default_name
400830
  73.3720012  67.7384997  21.3479988  74.2288237  68.2703711  21.4033966
  73.3858734  67.0252645  22.0629837  72.5945185  68.3805925  21.2902317
  73.3690012  67.0154997  20.0829988  73.3100283  65.9435887  20.2717531
  72.1680012  67.4284997  19.2289988  72.1561901  66.7776018  18.3547610
  71.2731610  67.2510622  19.8255531  72.1970012  68.8804997  18.7789988
  72.1938972  69.5080563  19.6702136  73.1225995  69.0402784  18.2259729
  71.0160012  69.2434997  17.9019988  69.9700012  69.6534997  18.4489988
  71.1320012  69.1204997  16.6649988  74.6640012  67.2524997  19.3149988
  75.5860012  67.8944997  19.8189988  74.7280012  66.7204997  18.0919988
  73.9866431  66.1323548  17.7390495  75.9080012  66.9224997  17.2569988
  76.7918787  66.5977098  17.8059717  75.7940012  66.0914997  15.9789988
  74.9185285  66.4113521  15.4138952  76.6886536  66.2322437  15.3724608
  75.6934186  65.0375272  16.2380827  76.0980012  68.3964997  16.9279988
  77.2150012  68.9224997  17.0009988  75.0130012  69.0824997  16.5629988
  74.1273296  68.6207079  16.4132202  75.0980012  70.5164997  16.3049988
  75.8912951  70.7189145  15.5854071  73.7770012  71.0274997  15.7319988
  73.0056155  70.9398646  16.4971023  73.8965131  72.0750783  15.4556007
  73.3350012  70.2504997  14.5069988  73.9990012  70.2754997  13.4699988
  72.2100012  69.5554997  14.6199988  71.8698398  69.0198378  13.8342148
  71.6992076  69.5654593  15.4912574  75.4670012  71.2794997  17.5709988
  76.2710012  72.2184997  17.5289988  74.8830012  70.8924997  18.7079988
  74.1333342  70.2156752  18.7052724  75.2770012  71.4834997  19.9829988
  75.1943212  72.5692314  19.9335025  74.3640012  70.9744997  21.0979988
  73.3385891  71.1752213  20.7876117  74.5175769  69.8976707  21.1683831
  74.6150012  71.6084997  22.4479988  74.9890012  72.9404997  22.5559988
  75.1012605  73.5306378  21.6464746  75.2180012  73.5204997  23.7879988
  75.5125472  74.5676132  23.8579832  75.0740012  72.7664997  24.9339988
  75.3000012  73.3394997  26.1639988  75.5513974  74.2642144  26.1065333
  74.7030012  71.4424997  24.8539988  74.5881005  70.8462286  25.7591834
  74.4760012  70.8704997  23.6159988  74.1825479  69.8231417  23.5451008
  76.7340012  71.1704997  20.2999988  77.4810012  72.0444997  20.7559988
  77.1540012  69.9274997  20.0639988  76.5316184  69.2170276  19.7062721
  78.5370012  69.5654997  20.3209988  78.7756981  69.8280441  21.3516264
  78.6414986  68.4887813  20.1873676  79.5050012  70.2734997  19.3949988
  80.6040012  70.6594997  19.7999988  79.1050012  70.4634997  18.1359988
  78.1886658  70.1659352  17.8328747  80.0050012  71.0474997  17.1469988
  80.9420931  70.4919727  17.1837093  79.4100012  70.9094997  15.7459988
  78.4756162  71.4680578  15.6908843  80.1124471  71.3041310  15.0118761
  79.2169905  69.8577513  15.5346426  80.3210012  72.5104997  17.4279988
  81.2320012  73.0664997  16.8059988  79.5950012  73.1454997  18.3469988
  78.8840960  72.6481307  18.8640455  79.7570012  74.5714997  18.5929988
  80.3489809  75.0274786  17.7994356  78.3790012  75.2444997  18.6249988
  77.8576851  74.7401118  17.8114131  77.9221131  74.9680481  19.5752239
  78.2790012  76.7584997  18.4329988  78.9779103  77.2468592  19.1120656
  78.6130012  77.1424997  16.9999988  77.9141789  76.6548552  16.3203304
  78.5356919  78.2237195  16.8855972  79.6288782  76.8245581  16.7654621
  76.8910012  77.2474997  18.8109988  76.6927444  77.0077618  19.8556611
  76.8343726  78.3267753  18.6693701  76.1487290  76.7592654  18.1795256
  80.5070012  74.8804997  19.8829988  80.8530012  76.0444997  20.1169988
  80.7800012  73.8744997  20.7179988  80.5770219  72.9153567  20.4752159
  81.2970012  74.1554997  22.0529988  80.8092100  75.0393534  22.4640480
  81.0230012  72.9684997  22.9819988  81.4555992  73.3390961  23.9113084
  79.9395513  72.9080884  23.0848911  81.5850012  71.5764997  22.6769988
  81.5948988  71.4424500  21.5953179  82.9950012  71.3984997  23.2229988
  82.9858256  71.5319552  24.3047586  83.3540691  70.3974849  22.9839579
  83.6560265  72.1384408  22.7717417  80.6590012  70.4954997  23.2179988
  79.6780608  70.5901820  22.7522835  81.0747658  69.5136225  22.9918169
  80.5603862  70.6077951  24.2977042  82.7820012  74.5084997  22.0449988
  83.2370012  75.2444997  22.9299988  83.5560012  74.0054997  21.0769988
  83.1852765  73.4197776  20.3424294  84.9970012  74.2524997  21.1059988
  85.3823067  73.9942946  22.0923907  85.7440012  73.4214997  20.0549988
  85.1434258  73.4675350  19.1465445  86.6953828  73.9262066  19.8869393
  86.0000012  71.9644997  20.4209988  86.8579098  71.6338337  19.8355471
  86.2532445  71.9409085  21.4809107  84.8270012  71.0424997  20.1619988
  85.0585357  70.0448570  20.5350938  83.9433610  71.4249007  20.6729283
  84.5390012  70.9524997  18.7329988  85.2229325  71.3395623  18.0985543
  83.4320012  70.4214997  18.2249988  82.5190012  69.9054997  19.0329988
  82.6681544  69.9178535  20.0318485  81.6775343  69.5018687  18.6468443
  83.2540012  70.3834997  16.9129988  83.9625205  70.7595183  16.2992313
  82.4105755  69.9786829  16.5324002  85.3640012  75.7164997  20.9029988
  86.3080012  76.1944997  21.5419988  84.6600012  76.4414997  20.0339988
  83.8290462  76.0658478  19.5998342  85.1090012  77.7644997  19.6329988
  86.1182847  77.9411837  20.0047901  85.1220012  77.8844997  18.1009988
  85.6989710  78.7774133  17.8603531  85.6404116  77.0042028  17.7209620
  83.7480012  77.9804997  17.4569988  83.1533793  78.6757782  18.0495471
  83.8761728  78.3790281  16.4505961  83.0380012  76.6444997  17.3839988
  83.7100012  75.6014997  17.5339988  81.8080012  76.6374997  17.1729988
  84.2880012  78.9104997  20.2109988  84.4970012  80.0594997  19.8049988
  83.3730012  78.6464997  21.1419988  83.1761780  77.7019696  21.4407009
  82.5650012  79.7284997  21.6929988  82.6630231  80.6197095  21.0731312
  81.0920012  79.3184997  21.7299988  81.1106390  78.2320423  21.6441947
  80.6366168  79.5996930  22.6795541  80.2730012  79.9074997  20.5769988
  80.3870459  80.9915042  20.5823656  80.7460012  79.3544997  19.2399988
  80.6318219  78.2705152  19.2337035  80.1501218  79.7867641  18.4361480
  81.7952423  79.6096710  19.0914020  78.7900012  79.6614997  20.7719988
  78.4631575  80.1269030  21.7018764  78.2369429  80.0916562  19.9370178
  78.6020144  78.5887985  20.8175197  83.0360012  80.1634997  23.0769988
  83.2410012  81.3574997  23.3149988  83.2110012  79.2164997  24.0009988
  82.9818495  78.2553260  23.7918720  83.6680012  79.5404997  25.3449988
  83.9366245  80.5955061  25.3988702  82.5590012  79.2624997  26.3739988
  81.5971311  79.5712941  25.9646686  82.5316105  78.1966261  26.6004127
  82.8190012  80.0394997  27.9919988  84.9280012  78.7974997  25.7649988
  85.5860012  79.2314997  26.7159988  85.2840012  77.7004997  25.0919988
  84.6797864  77.2961828  24.3908912  86.5360012  77.0164997  25.4049988
  86.5945194  76.8234947  26.4761775  86.6140012  75.6834997  24.6639988
  86.1080143  75.8719320  23.7171251  87.6653632  75.4654234  24.4764338
  85.9640012  74.4914997  25.3589988  84.9255969  74.7336284  25.5852533
  86.0140012  73.2684997  24.4629988  87.0521768  73.0254636  24.2366722
  85.5466068  72.4253886  24.9717295  85.4791994  73.4745964  23.5358463
  86.6670012  74.2244997  26.6789988  86.5867711  75.1036705  27.3183119
  86.2008058  73.3724125  27.1736811  87.7185424  74.0055733  26.4934424
  87.7400012  77.8854997  25.0659988  88.7630012  77.8384997  25.7599988
  87.6430012  78.6714997  23.9919988  86.8362640  78.6343185  23.3854577
  88.7380012  79.5674997  23.6329988  89.6606577  79.0023760  23.5009407
  88.4170012  80.2914997  22.3249988  89.1988587  81.0235206  22.1226516
  88.3420012  79.2994997  21.1749988  87.5599940  78.5673854  21.3764266
  88.1127765  79.8302938  20.2509789  89.2993949  78.7887131  21.0720676
  87.1600012  80.9684997  22.4469988  86.9599648  81.4224649  21.6251099
  89.0190012  80.5754997  24.7389988  90.1660012  80.9984997  24.9169988
  87.9890012  80.9694997  25.4909988  87.0429681  80.6958856  25.2668201
  88.2000012  81.8614997  26.6229988  88.9156766  82.6391070  26.3561007
  86.8820012  82.5264997  27.0219988  86.1131005  81.7544461  26.9932877
  87.0007285  82.8824278  28.0453848  86.4700012  83.6854997  26.1269988
  85.6776314  84.2446845  26.6245562  87.3325587  84.3346381  25.9762810
  85.9640012  83.2294997  24.7719988  85.7210012  82.0424997  24.5539988
  85.8040012  84.1734997  23.8529988  85.4694540  83.9264375  22.9325967
  86.0175171  85.1346337  24.0782399  88.8020012  81.1274997  27.8139988
  89.4850012  81.7464997  28.6369988  88.5720012  79.8134997  27.9139988
  88.0415929  79.3300850  27.2033113  89.0230012  79.0544997  29.0779988
  88.5877988  79.4710532  29.9863937  88.5880012  77.5944997  28.9529988
  87.5024251  77.5364140  28.8739420  89.0408241  77.1375110  28.0731052
  88.9790012  76.7454997  30.1269988  88.2890012  76.8304997  31.3219988
  87.4508847  77.5224782  31.4046210  88.6510012  76.0504997  32.4049988
  88.0989823  76.1252837  33.3418996  89.7130012  75.1764997  32.2979988
  90.0014337  74.5587116  33.1484366  90.4100012  75.0854997  31.1119988
  91.2506041  74.3969476  31.0260752  90.0440012  75.8654997  30.0339988
  90.5952320  75.7926948  29.0964787  90.5330012  79.1414997  29.2579988
  91.0270012  79.3064997  30.3789988  91.2840012  79.0204997  28.1609988
  90.8777546  78.7974663  27.2636030  92.7340012  79.1434997  28.2519988
  93.1219575  78.4446093  28.9930394  93.3730012  78.8264997  26.8999988
  92.9815663  79.5458331  26.1806675  94.4479855  78.9703704  27.0086725
  93.0980012  77.4134997  26.4049988  93.9392525  77.0895415  25.7922605
  93.0000869  76.7519559  27.2657396  91.8320012  77.3214997  25.5769988
  91.4790012  78.2534997  24.8559988  91.1390012  76.1934997  25.6789988
  90.2868874  76.0782450  25.1491686  91.4671668  75.4559193  26.2859451
  93.1350012  80.5334997  28.7269988  94.0460012  80.6784997  29.5509988
  92.4650012  81.5694997  28.2209988  91.8236367  81.4477360  27.4503338
  92.7090012  82.9224997  28.7109988  93.7720591  83.1417288  28.8107268
  92.0810012  83.9554997  27.7579988  90.9994623  83.8201037  27.7516023
  92.4120012  85.3694997  28.2109988  93.4934273  85.5058077  28.2172063
  91.9598848  86.0863655  27.5255831  92.0201982  85.5309294  29.2152560
  92.5550012  83.7194997  26.3329988  92.2632146  82.7190681  26.0134690
  92.1018854  84.4581405  25.6717911  93.6402536  83.8118316  26.2905393
  92.1870012  83.0774997  30.1329988  92.8230012  83.7204997  30.9769988
  91.0230012  82.4884997  30.4239988  90.5015781  81.9979661  29.7115423
  90.4420012  82.5924997  31.7579988  90.4137473  83.6354530  32.0735131
  89.0130012  82.0454997  31.7489988  89.0230120  81.0441723  31.3184844
  88.6841204  81.9909729  32.7867677  88.0590012  82.9244997  30.9619988
  88.2930012  84.1494997  30.8989988  87.0860012  82.3894997  30.3889988
  91.2720012  81.8684997  32.8099988  91.1820012  82.2084997  33.9949988
  92.0750012  80.8824997  32.4099988  92.0600510  80.5837138  31.4453212
  92.9460012  80.1744997  33.3389988  92.5504218  80.2523941  34.3516925
  93.0330012  78.6924997  32.9599988  92.0115846  78.3230355  32.8688735
  93.5268807  78.6367725  31.9899073  93.7910012  77.8414997  33.9629988
  93.8962780  76.8355007  33.5568169  94.7787247  78.2773128  34.1132361
  92.9350012  77.7544997  35.5459988  94.2950012  77.3724997  36.6439988
  95.0381143  78.1683098  36.5933221  93.9247220  77.2863705  37.6655543
  94.7518874  76.4297627  36.3429951  94.3490012  80.7584997  33.4009988
  94.9750012  80.7294997  34.4659988  94.8540012  81.2934997  32.2879988
  94.3598223  81.2232662  31.4099590  96.1820012  81.8984997  32.2879988
  96.8907557  81.2603082  32.8157088  96.6610012  82.0694997  30.8359988
  96.6112865  81.0692538  30.4057246  95.9092765  82.7041212  30.3666742
  98.0650012  82.6664997  30.5899988  98.7365687  82.1514239  31.2768720
  98.3334003  82.4157036  29.5637618  98.1880012  84.1764997  30.7939988
  97.1920012  84.8504997  31.1209988  99.3090012  84.6964997  30.6159988
  96.1880012  83.2084997  33.0659988  97.2210012  83.6044997  33.6169988
  95.0390012  83.8874997  33.1329988  94.2123256  83.5477992  32.6625623
  94.9610012  85.1654997  33.8319988  95.7058749  85.8328602  33.3985333
  93.5760012  85.7854997  33.6359988  92.8201111  85.1330118  34.0730227
  93.5408879  86.7593534  34.1243389  93.3789306  85.9064473  32.5708067
  95.2640012  85.0374997  35.3189988  95.6930012  86.0174997  35.9389988
  95.0530012  83.8614997  35.9039988  94.6108817  83.1157022  35.3859101
  95.3610012  83.6374997  37.3089988  95.6827212  84.5528841  37.8056543
  94.1410012  83.0694997  38.0639988  94.4359469  82.8293012  39.0854737
  93.0100012  84.0874997  38.0889988  92.7141793  84.3278643  37.0678155
  92.1573284  83.6709558  38.6252272  93.3472981  84.9938322  38.5918843
  93.6830012  81.7654997  37.4299988  94.4935278  81.0377281  37.4686925
  92.8218215  81.3787654  37.9748894  93.4048786  81.9439205  36.3912906
  96.5680012  82.7294997  37.5079988  97.0150012  82.5664997  38.6539988
  97.1090012  82.1384997  36.4439988  96.7201169  82.2962191  35.5253079
  98.2570012  81.2614997  36.5629988  99.0122145  81.5926753  35.8502052
  98.6495515  81.3520934  37.5758148  97.9260012  79.8094997  36.2909988
  96.8830012  79.3114997  36.7249988  98.8100012  79.1174997  35.5739988
  99.6327588  79.5806345  35.2152853  98.6040012  77.7154997  35.2359988
  97.5693248  77.5538297  34.9336631  99.5220012  77.3104997  34.0769988
  99.3560258  78.0289777  33.2742904 100.5468240  77.3995123  34.4374359
  99.2900012  75.9014997  33.5519988 100.0697572  75.6848767  32.8218236
  99.3774169  75.2118589  34.3915542  97.9290012  75.7364997  32.9019988
  97.3820012  76.7384997  32.3949988  97.4040012  74.6024997  32.8989988
  98.8350012  76.7784997  36.4119988  98.1800012  75.7344997  36.4959988
  99.7380012  77.1284997  37.3259988 100.2828412  77.9680240  37.1901772
 100.0140012  76.3074997  38.4989988 100.0015014  75.2506324  38.2325883
 101.3920012  76.6514997  39.0719988 102.1462399  76.4900548  38.3018301
 101.4340012  78.1024997  39.5259988 100.6802981  78.2646092  40.2965517
 102.4206461  78.3288557  39.9302188 101.2311995  78.7553854  38.6770510
 101.6730012  75.7984997  40.1889988 102.5368830  76.0148464  40.5474714
  98.9610012  76.4564997  39.5879988  99.1180012  75.8694997  40.6639988
  97.8990012  77.2224997  39.3369988  97.8663177  77.7271989  38.4627506
  96.8160012  77.4244997  40.2929988  97.1446312  77.1385974  41.2921791
  96.3990012  78.8954997  40.3179988  96.4980876  79.1972164  39.2752869
  95.3508866  78.9474811  40.6127085  97.2240012  79.8344997  41.2009988
  97.4497497  79.3239582  42.1372070  98.5230012  80.2334997  40.5149988
  98.2980415  80.7445422  39.5788751  99.0881695  80.9006476  41.1658436
  99.1142680  79.3414197  40.3083657  96.4150012  81.0654997  41.5769988
  95.5224224  80.7612793  42.1236729  97.0193732  81.7202918  42.2047591
  96.1223468  81.5987833  40.6725316  95.6140012  76.5364997  39.9929988
  94.4670012  76.9694997  40.1529988  95.8580012  75.3004997  39.5479988
  96.8066366  74.9776713  39.4216185  94.7670012  74.4034997  39.1799988
  94.1491797  74.8625676  38.4082135  95.3320012  73.0914997  38.6369988
  96.2796585  72.8647938  39.1255162  94.6261329  72.2815387  38.8208828
  95.6000012  73.0994997  37.1669988  95.2710012  74.0784997  36.2769988
  94.7561750  74.9529241  36.6750386  95.6820012  73.7274997  35.0139988
  95.5548452  74.2810678  34.1788382  96.2920012  72.5014997  35.0709988
  96.8660012  71.7364997  34.0589988  96.8565753  72.1269033  33.0413570
  97.4100012  70.5324997  34.4109988  97.8692683  69.9070605  33.6454927
  97.3920012  70.0804997  35.7359988  97.8276592  69.1183087  36.0052385
  96.8220012  70.8394997  36.7419988  96.8341770  70.4447909  37.7579503
  96.2580012  72.0754997  36.4119988  93.8480012  74.1324997  40.3649988
  92.6200012  74.1394997  40.2279988  94.4270012  73.8924997  41.5379988
  95.4342261  73.9157658  41.6091044  93.6600012  73.5224997  42.7189988
  92.7067589  73.0834824  42.4245632  94.4380012  72.4944997  43.5429988
  95.3633652  72.9430018  43.9044492  93.8333437  72.1759734  44.3921339
  94.7870012  70.9834997  42.6249988  93.2860012  74.7124997  43.5929988
  92.6810012  74.5174997  44.6509988  93.6270012  75.9344997  43.1819988
  94.2225012  76.0447499  42.3737142  93.2100012  77.1354997  43.9049988
  93.2933862  76.9634921  44.9781062  94.0860012  78.3264997  43.5329988
  95.1271311  78.0111553  43.6015959  93.8569813  78.6004312  42.5031389
  93.8600012  79.5244997  44.4369988  93.0020012  79.4414997  45.3409988
  94.5430012  80.5524997  44.2439988  91.7420012  77.3884997  43.5789988
  91.3830012  78.2514997  42.7749988  90.8740012  76.6024997  44.2229988
  91.1902503  75.9117158  44.8885087  89.4470012  76.6754997  43.9269988
  89.2825551  76.5609783  42.8555784  88.7000012  75.5594997  44.6579988
  88.9515710  74.5933644  44.2205123  88.9621599  75.5580059  45.7160019
  87.2080012  75.6874997  44.5859988  86.3380012  75.7254997  45.6359988
  86.7686103  75.6571416  46.6349996  85.0490012  75.8474997  45.1779988
  84.2227136  75.8971955  45.7566859  85.0650012  75.8894997  43.8099988
  84.0160012  76.0044997  42.9029988  82.9993396  76.0760432  43.2894952
  84.3310012  76.0204997  41.5729988  83.5346697  76.1099578  40.8341121
  85.6560012  75.9244997  41.1339988  85.8948554  75.9392229  40.0705932
  86.6990012  75.8084997  42.0309988  87.7129962  75.7348320  41.6379493
  86.4090012  75.7904997  43.3999988  88.8730012  78.0364997  44.2949988
  87.9890012  78.5534997  43.5999988  89.3580012  78.6324997  45.3849988
  90.0586655  78.1816630  45.9558886  88.8900012  79.9494997  45.7809988
  87.8193901  79.8782664  45.9728764  89.4061120  80.2231022  46.7012545
  89.1340012  81.0234997  44.7409988  88.3620012  81.9844997  44.6619988
  90.1870012  80.8804997  43.9389988  90.8269859  80.1161072  44.1009340
  90.4880012  81.8174997  42.8649988  90.0008475  82.7736825  43.0560353
  92.0020012  82.0474997  42.7779988  92.3450850  82.2880369  43.7842465
  92.4484235  81.1060683  42.4578205  92.4170012  83.1554997  41.8229988
  92.3988429  82.7645921  40.8056678  91.7044703  83.9758446  41.9092304
  93.8130012  83.6614997  42.1459988  93.8118195  84.0848681  43.1504174
  94.5102891  82.8246756  42.1058177  94.2580012  84.6864997  41.2069988
  94.8669546  84.3925145  40.4567670  93.9120012  85.9684997  41.2779988
  93.1150012  86.3894997  42.2499988  92.7711801  85.7335459  42.9367387
  92.8552490  87.3642776  42.2993579  94.3650012  86.8304997  40.3779988
  94.9736961  86.5104389  39.6383018  94.0992679  87.8031678  40.4363194
  89.9660012  81.3534997  41.5119988  89.5740012  82.1834997  40.6869988
  89.9410012  80.0404997  41.2689988  90.3025895  79.3867829  41.9487102
  89.4510012  79.5174997  39.9999988  89.6642930  80.2169878  39.1917153
  90.1250012  78.1814997  39.6809988  89.7034374  77.7826098  38.7583552
  91.6240012  78.3694997  39.5129988  92.0463734  78.7679542  40.4354603
  92.0879731  77.4095377  39.2864987  91.8140874  79.0660120  38.6963971
  89.8770012  77.2514997  40.7419988  90.3008999  76.4143436  40.5393169
  87.9390012  79.3404997  39.9779988  87.4000012  78.9174997  38.9489988
  87.2470012  79.6434997  41.0789988  87.7185661  79.8704790  41.9428311
  85.7890012  79.5614997  41.0869988  85.4303917  78.5989882  40.7222110
  85.2440012  79.8074997  42.5099988  85.7350788  79.1175641  43.1962436
  85.5060012  81.2404997  42.9569988  85.0148150  81.9310528  42.2714529
  85.1116767  81.3857767  43.9627341  86.5791920  81.4311841  42.9570116
  83.7530012  79.4734997  42.5829988  83.2183393  80.2554699  42.0437770
  83.6087915  78.5194829  42.0758942  83.2190012  79.3794997  43.9939988
  83.3624484  80.3333554  44.5016226  82.1560434  79.1398949  43.9655449
  83.7529026  78.5973694  44.5337407  85.1910012  80.5304997  40.0789988
  84.1120012  80.2804997  39.5279988  85.8770012  81.6454997  39.8149988
  86.7113474  81.8804554  40.3334209  85.3990012  82.5884997  38.8089988
  84.3715510  82.8795180  39.0275248  86.2730012  83.8424997  38.8119988
  87.3098760  83.5119197  38.7511162  86.0207782  84.4123761  37.9177256
  86.0930012  84.7194997  40.0379988  86.1559197  84.0918808  40.9269513
  86.8942522  85.4582148  40.0579674  84.7490012  85.4304997  40.0139988
  83.9547601  84.6842619  40.0342302  84.6710431  86.0673111  40.8951873
  84.5830012  86.2584997  38.8219988  85.1112860  87.1183894  38.7819478
  83.7890012  85.9534997  37.7999988  83.0810012  84.8334997  37.8179988
  83.1460129  84.2112673  38.6109051  82.4796294  84.6072490  37.0387284
  83.7030012  86.7694997  36.7579988  84.2424434  87.6232456  36.7431682
  83.0984629  86.5334030  35.9841185  85.3780012  81.9504997  37.4269988
  84.3650012  82.0014997  36.7219988  86.4920012  81.3314997  37.0269988
  87.3140235  81.3063024  37.6132954  86.5700012  80.7294997  35.6999988
  86.2787469  81.4565820  34.9419609  88.0020012  80.2744997  35.4159988
  88.3409056  79.6503852  36.2428749  88.0072600  79.6911351  34.4952609
  88.8710012  81.3854997  35.2759988  89.7617972  81.0746282  35.0986821
  85.5990012  79.5624997  35.5659988  84.8720012  79.4574997  34.5729988
  85.5610012  78.6844997  36.5699988  86.1553514  78.7946448  37.3791435
  84.7040012  77.5044997  36.4959988  84.9253375  76.9376509  35.5916803
  84.9480012  76.6054997  37.7079988  86.0181465  76.6237891  37.9142844
  84.4097277  77.0527678  38.5436499  84.4950012  75.1754997  37.5249988
  84.8180012  74.4644997  36.3769988  85.4055630  74.9544950  35.6006128
  84.4070012  73.1564997  36.2099988  84.6655245  72.6094104  35.3033782
  83.6660012  72.5434997  37.1969988  83.2530012  71.2414997  37.0369988
  83.5358550  70.8579766  36.2036301  83.3360012  73.2274997  38.3449988
  82.7507024  72.7423756  39.1261393  83.7500012  74.5334997  38.5039988
  83.4927058  75.0801784  39.4112151  83.2350012  77.8984997  36.4049988
  82.4500012  77.2644997  35.6909988  82.8460012  78.9484997  37.1309988
  83.4949379  79.4341205  37.7336204  81.4510012  79.3734997  37.1319988
  80.7997507  78.5270974  37.3501163  81.2390012  80.4424997  38.2049988
  81.2185144  79.9221684  39.1625659  82.1089257  81.0981514  38.1668922
  79.9770012  81.2684997  38.0519988  80.1666375  82.0731340  37.3415747
  79.1810908  80.6284418  37.6712695  79.5550012  81.8614997  39.3889988
  78.6201003  82.4040188  39.2485270  79.3990457  81.0469379  40.0962940
  80.5490012  82.7774997  39.9419988  81.3004119  82.3742612  40.4831827
  80.5210012  84.0964997  39.7799988  81.4640012  84.8534997  40.3229988
  82.2041054  84.4250372  40.8603680  81.4380519  85.8552555  40.1968580
  79.5470012  84.6584997  39.0779988  78.8270403  84.0814919  38.6671235
  79.5293664  85.6611010  38.9572578  81.0170012  79.8794997  35.7609988
  79.9040012  79.5864997  35.3089988  81.8810012  80.6364997  35.0789988
  82.7967396  80.8590745  35.4422933  81.4620012  81.2614997  33.8269988
  80.4138563  81.5537672  33.8908057  82.3020012  82.5104997  33.5499988
  82.0598981  82.8160276  32.5320901  81.9519473  83.2695325  34.2495925
  83.8020012  82.3524997  33.6859988  84.2337229  83.3112604  33.9732181
  83.9570531  81.6301263  34.4873943  84.4700012  81.8574997  32.4269988
  83.8420012  81.9114997  31.3499988  85.6440012  81.4454997  32.5179988
  81.4990012  80.2814997  32.6549988  80.8100012  80.4914997  31.6499988
  82.2860012  79.2064997  32.7549988  83.0350219  79.1462747  33.4298619
  82.1160012  78.1054997  31.8079988  82.1386886  78.4972134  30.7910697
  83.2280012  77.0644997  31.9559988  83.3785401  77.0560393  33.0355198
  82.7928622  76.1154338  31.6429045  84.5760012  77.2644997  31.2539988
  85.2538885  76.4588231  31.5358761  84.3750012  77.2534997  29.7449988
  83.6975441  78.0592457  29.4622903  85.3351093  77.3959001  29.2489996
  83.9482301  76.2974656  29.4417403  85.2720012  78.5334997  31.6689988
  85.4579519  78.5120513  32.7428059  86.2202113  78.6187286  31.1382119
  84.6424165  79.3897013  31.4268402  80.7500012  77.4524997  31.9719988
  80.0780012  77.1374997  30.9839988  80.3240012  77.2374997  33.2179988
  80.9321969  77.3635344  34.0144362  78.9720012  76.7464997  33.4519988
  78.8292523  75.8264349  32.8852512  78.7660012  76.4434997  34.9339988
  78.8967163  77.3572074  35.5137847  77.7591733  76.0559694  35.0896207
  79.4948217  75.7006748  35.2582379  77.9360012  77.7454997  32.9629988
  76.8470012  77.3524997  32.5269988  78.2500012  79.0404997  33.0379988
  79.0712156  79.3531221  33.5359680  77.3740012  80.0454997  32.4509988
  76.3566818  79.9161545  32.8203636  77.8570012  81.4454997  32.8299988
  78.9137776  81.5184453  32.5730909  77.2896323  82.1651472  32.2398292
  77.6740012  81.7454997  34.3039988  76.7390012  81.1874997  34.9159988
  78.4680012  82.5394997  34.8539988  77.3050012  79.8924997  30.9369988
  76.2250012  80.0014997  30.3429988  78.4490012  79.6334997  30.2959988
  79.3237187  79.5634318  30.7960579  78.4700012  79.4984997  28.8409988
  78.0566006  80.3945745  28.3781283  79.9070012  79.3124997  28.3489988
  80.3751954  78.4931880  28.8945461  79.8998666  79.0817789  27.2837208
  80.9880012  80.7474997  28.5189988  77.6040012  78.3334997  28.3829988
  76.7040012  78.5054997  27.5519988  77.8420012  77.1414997  28.9359988
  78.5619723  77.0240234  29.6345259  77.1110012  75.9614997  28.4919988
  77.2002999  75.8377612  27.4127334  77.6590012  74.7044997  29.1759988
  78.6854154  74.5436974  28.8462767  77.6310012  74.8564997  30.6839988
  76.6047832  75.0168824  31.0145343  78.0245606  73.9522221  31.1482102
  78.2434968  75.7098469  30.9751140  76.8740012  73.5684997  28.7949988
  77.2191259  72.7824337  29.2246376  75.6160012  76.0834997  28.7459988
  74.8260012  75.4284997  28.0579988  75.2110012  76.9064997  29.7149988
  75.8632255  77.3086570  30.3730050  73.7930012  77.1964997  29.8829988
  73.2176796  76.2707993  29.8694650  73.5590012  77.8974997  31.2209988
  73.9891627  77.3067605  32.0297556  74.0112950  78.8892172  31.2158294
  72.1120012  78.0884997  31.5529988  71.4290012  79.2674997  31.5899988
  71.9911096  80.1701490  31.3505035  70.1200012  79.0444997  31.9379988
  69.4086354  79.7549827  32.0342909  69.9350012  77.7024997  32.1349988
  68.7910012  76.9954997  32.4979988  67.8670724  77.5495003  32.6639432
  68.9020012  75.6384997  32.6239988  68.0278597  75.0523677  32.9075936
  70.1150012  74.9804997  32.3969988  70.1901681  73.8978441  32.4985190
  71.2530012  75.6794997  32.0379988  72.1736860  75.1201084  31.8721026
  71.1710012  77.0674997  31.9019988  73.2700012  78.0464997  28.7319988
  72.1240012  77.8774997  28.2969988  74.0960012  78.9664997  28.2269988
  75.0278790  79.0891010  28.5966905  73.6450012  79.8704997  27.1739988
  72.6675302  80.2809351  27.4273612  74.6340012  81.0254997  27.0169988
  75.6586281  80.6547408  27.0448686  74.4584102  81.5356893  26.0699114
  74.5250012  82.0644997  28.0899988  73.3530012  82.7384997  28.3559988
  72.4834578  82.5934614  27.8630911  73.5520012  83.5914997  29.3459988
  72.7404280  84.2224740  29.7083790  74.8110012  83.4954997  29.7289988
  75.4430012  82.5494997  28.9589988  76.4972953  82.3277220  29.1244672
  73.4550012  79.1374997  25.8499988  72.4120012  79.2764997  25.1999988
  74.4510012  78.3504997  25.4289988  75.3139234  78.2558532  25.9452415
  74.3350012  77.6674997  24.1419988  74.0089526  78.3777027  23.3821283
  75.6760012  77.0704997  23.7099988  76.1043675  76.5830682  24.5857910
  75.4603979  76.3221379  22.9473914  76.6670012  78.0844997  23.1589988
  77.4439031  77.5165090  22.6472265  76.1238242  78.6908759  22.4341756
  77.4300012  79.1634997  24.3789988  78.5740012  78.0114997  25.1359988
  79.2653527  77.6364020  24.3813904  79.1344173  78.5184297  25.9215281
  78.0193275  77.1776947  25.5663564  73.2570012  76.5904997  24.1739988
  72.6090012  76.3264997  23.1529988  73.0550012  75.9524997  25.3279988
  73.6565808  76.0968903  26.1263424  71.9820012  74.9694997  25.4389988
  72.1239697  74.2014585  24.6786983  72.0130012  74.3064997  26.8139988
  71.8630436  75.0616996  27.5855464  71.2199191  73.5613823  26.8766188
  72.9782031  73.8224251  26.9628485  70.6270012  75.6134997  25.1839988
  69.7770012  75.0414997  24.4919988  70.4070012  76.8064997  25.7399988
  71.0662341  77.2079313  26.3914309  69.1720012  77.5324997  25.4709988
  68.3120575  76.8836198  25.6369837  69.0630012  78.7364997  26.4059988
  69.9892645  79.3030963  26.3105850  68.2286983  79.3431247  26.0537987
  68.8420012  78.3694997  27.8639988  67.7879169  78.1245558  27.9944201
  69.4484802  77.4906419  28.0828398  69.2200012  79.4914997  28.8089988
  69.9930012  80.3814997  28.3989988  68.7420012  79.4854997  29.9629988
  69.0930012  77.9724997  24.0149988  68.0300012  77.8894997  23.3899988
  70.2110012  78.4444997  23.4559988  71.0668850  78.5105937  23.9881583
  70.2110012  78.9354997  22.0829988  69.3894571  79.6377351  21.9414718
  71.5260012  79.6524997  21.7719988  72.3307889  78.9535063  21.9996480
  71.5250157  79.8692277  20.7037628  71.7390012  80.9394997  22.5489988
  70.8271070  81.5344273  22.4979018  71.9515798  80.6898874  23.5885208
  72.8970012  81.7374997  21.9729988  72.7435767  81.8447025  20.8991890
  72.9040729  82.7229994  22.4386594  74.2270012  81.0474997  22.2279988
  74.1412259  80.0099110  21.9052715  74.9917783  81.5496966  21.6355349
  74.6070012  81.0894997  23.6659988  73.8986825  80.6238272  24.2151195
  75.4932907  80.6223134  23.7937788  74.6869528  82.0508656  23.9651347
  69.9820012  77.8304997  21.0629988  69.3090012  78.0654997  20.0539988
  70.5210012  76.6364997  21.2959988  71.0750379  76.4975965  22.1289745
  70.3990012  75.5314997  20.3559988  70.2893064  75.9174864  19.3425490
  71.6470012  74.6464997  20.4099988  71.9203270  74.7069660  21.4634389
  71.3507698  73.6253338  20.1700669  72.8490012  75.0454997  19.5469988
  73.6722073  74.3591242  19.7452947  72.4850012  74.9874997  18.0699988
  71.6621135  75.6740026  17.8708294  73.3493541  75.2736461  17.4707368
  72.1825315  73.9732612  17.8093596  73.3940012  76.4204997  19.9179988
  73.7127107  76.4164422  20.9603553  74.2445380  76.6591787  19.2794686
  72.6148777  77.1701335  19.7797430  69.1560012  74.6884997  20.6019988
  68.9460012  73.6954997  19.8989988  68.3300012  75.0624997  21.5739988
  68.5079099  75.8946376  22.1180523  67.1440012  74.2794997  21.8799988
  66.5846239  74.8029732  22.6553514  66.5385745  74.2163475  20.9758031
  67.4590012  72.8804997  22.3599988  66.7560012  71.9274997  22.0009988
  68.5080012  72.7354997  23.1659988  69.0512921  73.5493349  23.4162117
  68.9340012  71.4404997  23.6709988  68.2624268  70.6687972  23.2947509
  70.3630012  71.1054997  23.2269988  70.9973979  71.9898403  23.2868457
  70.7807281  70.3163395  23.8521631  70.4870012  70.5144997  21.5249988
  71.8062751  70.3460821  21.5320817  68.8450012  71.4344997  25.1879988
  68.9560012  72.4764997  25.8409988  68.6440012  70.2434997  25.7429988
  68.5801971  69.4158624  25.1676337  68.4530012  70.1024997  27.1749988
  67.7758462  70.8759932  27.5373083  67.8500012  68.7364997  27.4959988
  68.6215595  67.9674592  27.4589344  67.3978919  68.7493484  28.4877307
  66.7730012  68.3114997  26.5379988  65.7610012  69.1874997  26.1769988
  65.7529492  70.1934058  26.5967462  64.7700012  68.7984997  25.2959988
  63.9796901  69.4963140  25.0192963  64.7820012  67.5234997  24.7659988
  64.0020459  67.2130004  24.0707578  65.7840012  66.6414997  25.1179988
  65.7955417  65.6342138  24.7016548  66.7730012  67.0364997  25.9989988
  67.5649862  66.3410099  26.2767641  69.7780012  70.2944997  27.9119988
  70.8660012  70.1554997  27.3489988  69.6700012  70.6214997  29.1959988
  68.7572529  70.7296478  29.6146799  70.8420012  70.8784997  30.0199988
  71.7030004  70.3475405  29.6139669  71.1590012  72.3764997  30.0469988
  71.0060968  72.8142080  29.0605248  70.5105061  72.8731083  30.7687564
  72.5690012  72.6974997  30.4449988  73.5900012  73.0544997  29.6169988
  73.3621407  73.1093799  28.5524953  74.7340012  73.2764997  30.3419988
  75.6283997  73.5498780  29.9606656  74.4660012  73.0654997  31.6679988
  75.2990012  73.1634997  32.7789988  76.3395124  73.4499602  32.6261088
  74.7530012  72.8914997  34.0019988  75.3749783  72.9601944  34.8944815
  73.4100012  72.5254997  34.1379988  72.9862048  72.3080081  35.1184035
  72.5810012  72.4284997  33.0369988  71.5419074  72.1405337  33.1965620
  73.1100012  72.7004997  31.7719988  70.6110012  70.3584997  31.4329988
  69.6470012  70.7654997  32.0939988  71.4680012  69.4584997  31.9339988
  71.4480012  68.9864997  33.3299988  70.6039662  68.3112053  33.4702942
  71.3437210  69.8412907  33.9982480  72.7810012  68.2904997  33.4879988
  72.5988196  67.2218417  33.6014845  73.2641795  68.6736389  34.3868004
  73.6080012  68.5784997  32.2719988  74.1832551  67.6916700  32.0060757
  74.2824158  69.4267403  32.3892689  72.5810012  68.8764997  31.1829988
  72.9265390  69.6205112  30.4652602  72.1870012  67.6014997  30.4429988
  71.2580012  66.9114997  30.8579988  72.8930012  67.2954997  29.3559988
  73.6092266  67.9249724  29.0230054  72.6190012  66.0904997  28.5839988
  71.9247605  65.4526576  29.1310696  71.9950012  66.4464997  27.2329988
  71.9452805  65.5452149  26.6220054  70.9873552  66.8260658  27.4023481
  72.7880012  67.4964997  26.4829988  73.8100012  67.9834997  26.9679988
  72.3210012  67.8514997  25.2929988  72.8103111  68.5477917  24.7490752
  71.4783295  67.4238219  24.9364920  73.8910012  65.2764997  28.3859988
  74.9200012  65.5584997  29.0079988  73.8270012  64.2604997  27.5209988
  72.9639877  64.0324997  27.0484280  74.9900012  63.4094997  27.2869988
  75.3490013  63.0373871  28.2465561  74.5990012  62.2164997  26.4159988
  74.2459856  62.5727379  25.4482311  75.4660758  61.5720646  26.2711358
  73.8056241  61.6524566  26.9064144  76.1310012  64.1874997  26.6459988
  77.3000012  63.8054997  26.7729988  75.8150012  65.2754997  25.9399988
  74.8526945  65.5469630  25.7972651  76.8590012  66.0674997  25.2999988
  77.5838236  65.4112362  24.8182832  76.2450012  66.9804997  24.2379988
  75.7099095  66.3382901  23.5384682  75.5350763  67.6300370  24.7500613
  77.2510012  67.8294997  23.4779988  76.7039278  68.4241121  22.7463925
  77.7351905  68.4923062  24.1951789  78.3020012  66.9984997  22.7689988
  78.0240012  66.5164997  21.6509988  79.4060012  66.8294997  23.3279988
  77.6470012  66.8904997  26.3129988  78.8600012  67.0694997  26.1569988
  76.9820012  67.3914997  27.3529988  76.0027391  67.1841279  27.4876914
  77.6260012  68.3224997  28.2759988  78.3233059  68.9851463  27.7633929
  76.5700012  69.1804997  28.9939988  75.7599211  68.5354754  29.3343123
  77.1860012  69.8914997  30.1869988  77.9959147  70.5371101  29.8473987
  76.4256583  70.4941226  30.6838135  77.5790067  69.1540929  30.8869127
  75.9630012  70.1864997  28.0289988  75.4890969  69.6573870  27.2022240
  75.2174856  70.7868057  28.5504762  76.7466440  70.8375354  27.6414977
  78.5100012  67.5804997  29.2729988  79.6800012  67.9284997  29.4669988
  77.9610012  66.5484997  29.9189988  77.0251019  66.2344958  29.7054723
  78.6780012  65.8954997  31.0099988  78.9941196  66.6373623  31.7433528
  77.7720012  64.8774997  31.7039988  78.3705933  64.3489924  32.4459333
  76.9755355  65.4274390  32.2053063  77.1660012  63.8784997  30.7399988
  77.3520012  64.0454997  29.5169988  76.5050012  62.9274997  31.2049988
  79.9610012  65.2304997  30.5229988  80.9930012  65.2884997  31.2029988
  79.9200012  64.5954997  29.3489988  79.0611295  64.5028845  28.8256812
  81.1220012  63.9524997  28.8259988  81.5495013  63.2944582  29.5825200
  80.7830012  63.1184997  27.5869988  81.6573185  62.5030343  27.3751714
  79.9454934  62.4769714  27.8610830  80.4190012  63.9264997  26.3479988
  79.5545012  63.4603720  25.8752772  80.1599437  64.9379477  26.6609909
  81.5710012  63.9824997  25.3549988  82.3982543  64.5339199  25.8018621
  81.8931708  62.9663545  25.1275011  81.1880012  64.6414997  24.1099988
  80.2196601  64.9092819  24.0065214  82.0280012  64.9064997  23.1169988
  83.3060012  64.5694997  23.2189988  83.6388691  64.1103530  24.0547519
  83.9409623  64.7734379  22.4604916  81.5920012  65.5094997  22.0189988
  80.6184514  65.7666617  21.9404585  82.2355595  65.7087216  21.2665082
  82.2030012  64.9744997  28.5019988  83.3970012  64.6684997  28.6059988
  81.8090012  66.1874997  28.1099988  80.8315313  66.4036118  27.9760299
  82.7940012  67.2154997  27.7939988  83.5736937  66.8030636  27.1536275
  82.1200012  68.3724997  27.0589988  82.0985499  68.1823788  25.9859223
  81.1011155  68.4961159  27.4260015  82.8060012  69.6904997  27.2469988
  84.0530012  69.9234997  26.6929988  84.5368580  69.1369599  26.1139152
  84.6820012  71.1354997  26.8679988  85.6666904  71.3062547  26.4328775
  84.0670012  72.1324997  27.5929988  84.5630772  73.0932356  27.7308206
  82.8260012  71.9144997  28.1429988  82.3385863  72.7025690  28.7169967
  82.1990012  70.7014997  27.9689988  81.2136857  70.5301653  28.4024706
  83.5010012  67.7064997  29.0519988  84.7120012  67.9614997  29.0329988
  82.7620012  67.8474997  30.1549988  81.7617136  67.7090285  30.1362934
  83.3780012  68.2804997  31.4069988  83.9509236  69.1933863  31.2442194
  82.3000012  68.5604997  32.4539988  81.4565257  67.8847466  32.3125558
  82.7061631  68.4288358  33.4568932  81.7480012  69.9544997  32.3939988
  82.0540012  70.7884997  31.3329988  82.7013728  70.4206528  30.5369470
  81.5500012  72.0724997  31.2749988  81.8003272  72.7192252  30.4340566
  80.7300012  72.5364997  32.2809988  80.3294128  73.5493039  32.2379113
  80.4170012  71.7164997  33.3429988  79.7687427  72.0799954  34.1403268
  80.9250012  70.4334997  33.3969988  80.6785498  69.7846772  34.2374695
  84.3760012  67.2514997  31.9219988  85.3750012  67.6134997  32.5539988
  84.1210012  65.9664997  31.6669988  83.2573263  65.6810416  31.2280469
  85.0650012  64.9304997  32.0759988  85.2505402  64.9979383  33.1479719
  84.4950012  63.5464997  31.7649988  83.4471883  63.6285548  32.0538836
  84.5629009  63.3775962  30.6903075  85.1370012  62.3744997  32.5059988
  86.1495575  62.2288182  32.1296910  85.1870012  62.6524997  33.9989988
  84.1747076  62.7978416  34.3761409  85.6471887  61.8075428  34.5112253
  85.7750255  63.5518225  34.1821551  84.3870012  61.0824997  32.2209988
  84.4096877  60.8771123  31.1507648  84.8605611  60.2607908  32.7582480
  83.3524621  61.1822977  32.5494318  86.4120012  65.1184997  31.3939988
  87.4640012  64.9354997  32.0179988  86.4000012  65.4834997  30.1109988
  85.5364413  65.5324856  29.5894970  87.6480012  65.7584997  29.4089988
  88.3179467  64.9074042  29.5310996  87.3780012  65.9574997  27.9179988
  86.7157399  66.8120161  27.7790318  88.3190284  66.1395980  27.3989533
  86.9063888  65.0630202  27.5110743  88.3510012  66.9754997  29.9949988
  89.5850012  67.0134997  30.0649988  87.5830012  67.9844997  30.4139988
  86.5808634  67.9590698  30.2908219  88.1800012  69.1884997  30.9859988
  88.9539773  69.6058380  30.3418802  87.1030012  70.2634997  31.2209988
  86.3309036  69.8565362  31.8739501  87.7160012  71.4944997  31.8679988
  88.4879239  71.9023241  31.2153767  86.9420264  72.2452188  32.0276373
  88.1583299  71.2200950  32.8256778  86.4260012  70.6254997  29.9109988
  85.9562774  69.7380802  29.4867955  85.6668769  71.3864956  30.0918723
  87.1681606  71.0121601  29.2125763  88.9240012  68.8554997  32.2729988
  90.0560012  69.3014997  32.4919988  88.3000012  68.0584997  33.1439988
  87.3592635  67.7316951  32.9757406  88.9440012  67.6944997  34.4009988
  89.3195163  68.5882996  34.8992047  87.9410012  67.0034997  35.3269988
  87.3455395  66.2818736  34.7677310  88.4684031  66.4922044  36.1323089
  86.9750012  67.9434997  35.9769988  86.4880012  67.7484997  37.2509988
  86.7328082  66.9694242  37.8453141  85.6620012  68.7324997  37.5609988
  85.1742538  68.7634835  38.5352890  85.5900012  69.5544997  36.5289988
  86.4020012  69.0854997  35.5269988  86.4794513  69.6324287  34.5873332
  90.1610012  66.8024997  34.1919988  91.0630012  66.8004997  35.0379988
  90.2150012  66.0564997  33.0879988  89.4641671  66.0730470  32.4126665
  91.3560012  65.1994997  32.8269988  91.6015105  64.6869524  33.7571168
  91.0526903  64.4674833  32.0784976  92.5830012  65.9324997  32.3299988
  93.6600012  65.3314997  32.2489988  92.4480012  67.2154997  31.9909988
  91.5358177  67.6477299  32.0256059  93.5700012  68.0094997  31.5129988
  94.4548005  67.3803296  31.4161772  93.2470012  68.6174997  30.1389988
  92.5899845  69.4693701  30.3143417  94.1889275  68.9667916  29.7160687
  92.5830012  67.6584997  29.1699988  93.2792567  66.8511167  28.9431469
  91.6904437  67.2463480  29.6407156  92.1950012  68.3684997  27.8839988
  93.1002525  68.6743856  27.3595439  91.6264566  67.6822038  27.2564205
  91.3800012  69.5524997  28.1399988  91.8519489  70.3701948  28.4988015
  90.0690012  69.6164997  27.9339988  89.4180012  68.5624997  27.4629988
  89.9215095  67.7105383  27.2611543  88.4213936  68.6161089  27.3080823
  89.4080012  70.7354997  28.1959988  89.9040535  71.5396761  28.5528355
  88.4114408  70.7786288  28.0375502  93.9760012  69.1254997  32.4629988
  95.0880012  69.6484997  32.3319988  93.1170012  69.5064997  33.4069988
  92.2070719  69.0738289  33.4771709  93.4350012  70.5964997  34.3179988
  94.5083828  70.7858924  34.3089750  92.7060012  71.8804997  33.8899988
  91.6791220  71.8070270  34.2480774  93.2046502  72.7129883  34.3863977
  92.7030012  72.1134997  32.3969988  93.8120012  72.6504997  31.7559988
  94.6910696  72.9056544  32.3478047  93.8130012  72.8624997  30.3909988
  94.6885579  73.2868741  29.8996653  92.6970012  72.5364997  29.6499988
  92.6920012  72.7444997  28.2899988  93.5139186  73.1190591  27.9647963
  91.5860012  72.0004997  30.2629988  90.7042602  71.7401779  29.6774512
  91.5940012  71.7934997  31.6279988  90.7179361  71.3713737  32.1203602
  93.1050012  70.2994997  35.7719988  93.2280012  71.2034997  36.6059988
  92.6890012  69.0784997  36.1099988  92.5847062  68.3652375  35.4025534
  92.3030012  68.7564997  37.4779988  92.7653752  69.4593585  38.1710348
  90.7810012  68.8474997  37.6309988  90.2780100  68.2384982  36.8798554
  90.4930631  68.5076549  38.6258341  90.2460012  70.2414997  37.4819988
  90.3010012  71.1374997  38.5349988  90.7329397  70.8181286  39.4834349
  89.8170012  72.4224997  38.3949988  89.8650459  73.1174831  39.2333247
  89.2720012  72.8274997  37.1929988  88.8866446  73.8407513  37.0793271
  89.2160012  71.9454997  36.1339988  88.7884896  72.2615025  35.1824336
  89.7020012  70.6614997  36.2799988  89.6601918  69.9644850  35.4430266
  92.7920012  67.3854997  37.9239988  92.2710012  66.8454997  38.9059988
  93.7760012  66.8064997  37.2319988  94.1476894  67.2333409  36.3954859
  94.2980012  65.5044997  37.6349988  93.4752655  64.8118971  37.8125009
  95.1900012  64.9314997  36.5329988  95.9116088  65.7058719  36.2727502
  95.7137560  64.0762285  36.9599555  94.4430012  64.4954997  35.2839988
  93.8352758  65.3311475  34.9369203  95.1742067  64.2360441  34.5184118
  93.5490012  63.2984997  35.5559988  92.8763555  63.5396434  36.3791005
  92.9648785  63.0831776  34.6612716  94.3160012  62.1074997  35.9119988
  95.2836132  62.0764165  35.6241445  93.8210012  61.0734997  36.5869988
  92.5550012  61.0804997  36.9809988  91.9671315  61.8734520  36.7671391
  92.1843438  60.2928487  37.4931694  94.5920012  60.0324997  36.8659988
  95.5559877  60.0267586  36.5646731  94.2121084  59.2496006  37.3786869
  95.0690012  65.5844997  38.9459988  95.1470012  64.5914997  39.6779988
  95.6390012  66.7454997  39.2589988  95.5312908  67.5268551  38.6281411
  96.4670012  66.9234997  40.4429988  96.7949540  65.9540150  40.8180262
  97.7030012  67.7584997  40.0989988  98.3160964  67.8610219  40.9943772
  98.2717674  67.2398271  39.3272580  97.3340012  69.0434997  39.6299988
  98.1242401  69.5470729  39.4213451  95.7180012  67.5694997  41.6019988
  96.3570012  68.0454997  42.5449988  94.3940012  67.5984997  41.5559988
  93.9221387  67.1767413  40.7688742  93.5890012  68.2544997  42.5699988
  94.2208599  68.8839613  43.1966022  92.5200012  69.1354997  41.9099988
  92.1374861  68.6375926  41.0190049  91.7025371  69.3027287  42.6113453
  93.1530012  70.7534997  41.4399988  92.9280012  67.2384997  43.4919988
  92.6770012  66.0934997  43.0999988  92.6460012  67.6214997  44.7399988
  92.8950012  68.9294997  45.3649988  92.6516373  69.7256413  44.6614131
  93.9438587  69.0065439  45.6514618  91.9810012  68.9094997  46.5479988
  90.9928767  69.2687494  46.2605117  92.3820333  69.5441301  47.3382638
  91.9370012  67.4814997  46.9819988  90.9758707  67.2893316  47.4588622
  92.7417322  67.2049177  47.6631816  92.0470012  66.6704997  45.6859988
  92.7197243  65.8189622  45.7881052  90.6840012  66.1854997  45.2139988
  89.9170012  66.9254997  44.5949988  90.3940012  64.9174997  45.5139988
  91.0716894  64.3282149  45.9761475  89.1240012  64.3234997  45.1059988
  88.9174200  64.5047595  44.0512152  89.1370012  62.8064997  45.3729988
  89.2797805  62.6358597  46.4400491  87.8260012  62.1754997  44.9299988
  87.6827401  62.3453362  43.8628847  87.8534358  61.1036772  45.1263270
  87.0009201  62.6246162  45.4828411  90.3240012  62.1464997  44.6649988
  91.2247440  62.4446734  45.2015205  90.1906674  61.0681149  44.7510680
  90.4590012  62.5234997  43.2029988  90.5928414  63.6017595  43.1161519
  91.3226086  62.0150127  42.7743702  89.5587631  62.2252028  42.6656996
  87.9600012  65.0064997  45.8109988  86.9400012  65.3264997  45.1889988
  88.0900012  65.2424997  47.1129988  88.9372648  64.9605717  47.5849737
  87.0190012  65.8304997  47.9079988  86.3491711  66.3964347  47.2605851
  86.2080012  64.7384997  48.6179988  86.8320974  64.2842660  49.3875928
  85.3354199  65.1975755  49.0827044  85.7860012  63.7414997  47.7029988
  85.2818436  63.0712563  48.1701164  87.6350012  66.8204997  48.8909988
  88.8040012  67.2034997  48.7699988  86.8370012  67.2424997  49.8719988
  85.8742566  66.9379247  49.8933588  87.2990012  68.1274997  50.9169988
  86.7862489  67.8298600  51.8316544  88.3691946  67.9527842  51.0277232
  87.0630012  69.6034997  50.6779988  87.3690012  70.4114997  51.5639988
  86.5310012  69.9874997  49.5149988  86.3217737  69.3228111  48.7838953
  86.3090012  71.4044997  49.2459988  87.1809670  71.9818373  49.5533357
  86.0760012  71.6294997  47.7529988  85.1749644  71.0806005  47.4792441
  85.9086692  72.6968164  47.6083095  87.2300012  71.1754997  46.8779988
  88.1296872  71.1186597  47.4907263  86.9979828  70.1870129  46.4815604
  87.4610012  72.1394997  45.7289988  86.6427455  72.0458231  45.0150090
  87.4885862  73.1574588  46.1177117  88.7180012  71.8684997  45.0379988
  88.6761326  71.2840221  44.2153613  89.8990012  72.3414997  45.4199988
  89.9920012  73.1114997  46.4949988  89.1616841  73.3379534  47.0235744
  90.8927479  73.4681819  46.7805383  90.9910012  72.0424997  44.7289988
  90.9220033  71.4538794  43.9111568  91.8864793  72.4048197  45.0238576
  85.1460012  71.9614997  50.0569988  85.2260012  73.0914997  50.5539988
  84.0660012  71.2004997  50.1999988  84.0061530  70.3123450  49.7228207
  82.9250012  71.6384997  50.9859988  82.8130442  72.7181009  50.8858685
  81.6430012  70.9664997  50.4929988  81.7363236  69.8853491  50.5954901
  80.7978795  71.3155810  51.0863046  81.4796448  71.2188605  49.4452736
  83.1540012  71.3414997  52.4649988  84.1190012  70.6794997  52.8519988
  82.2470012  71.8424997  53.2999988  81.4943917  72.4063880  52.9316128
  82.3580012  71.6974997  54.7469988  83.4014524  71.5277337  55.0124950
  81.8630012  72.9464997  55.4819988  81.9228811  72.7803211  56.5575908
  82.7240012  74.1374997  55.1059988  82.6642611  74.3045963  54.0305404
  82.3682718  75.0239056  55.6312050  83.7590174  73.9409963  55.3856942
  80.4150012  73.2694997  55.1269988  79.7764546  72.4310666  55.4051900
  80.0982520  74.1616547  55.6672108  80.3341781  73.4468979  54.0545724
  81.6130012  70.4284997  55.1599988  80.3850012  70.3494997  55.0899988
  82.3710012  69.4134997  55.5609988  83.3729080  69.4994546  55.4666923
  81.8320012  68.1684997  56.0859988  80.7543666  68.2732564  56.2118119
  82.1040012  66.9804997  55.1489988  83.1834171  66.9541272  54.9997842
  81.7909726  66.0889984  55.6924494  81.4020012  67.0214997  53.7889988
  80.3330777  67.1217762  53.9772756  81.7622990  67.9056939  53.2631774
  81.6520012  65.7904997  52.9379988  82.7238164  65.6841997  52.7706326
  81.2778988  64.9117282  53.4632678  80.9840012  65.8814997  51.6449988
  81.5347625  66.1974803  50.8595577  79.7070012  65.5764997  51.4419988
  79.1790012  65.6894997  50.2319988  79.7504643  66.0086145  49.4627812
  78.2075013  65.4560009  50.0844656  78.9560012  65.1574997  52.4519988
  79.3580951  65.0713644  53.3744961  77.9855649  64.9265415  52.2938519
  82.4290012  67.8874997  57.4579988  83.2820012  68.6244997  57.9599988
  81.9660012  66.7984997  58.0629988  81.2328144  66.2487334  57.6383889
  82.4720012  66.3864997  59.3609988  82.4998120  67.2419367  60.0359456
  81.5700012  65.3154997  59.9679988  81.1172013  64.7561758  59.1493240
  82.1949843  64.6481005  60.5613573  80.4820012  65.8974997  60.8429988
  80.2770012  67.1274997  60.7979988  79.8310012  65.1244997  61.5769988
  83.8970012  65.8494997  59.2319988  84.3120012  65.4224997  58.1509988
  84.6690012  65.8724997  60.3159988  84.4510012  66.6214997  61.5629988
  83.4089344  66.5324265  61.8700218  84.6955954  67.6726335  61.4100598
  85.3850012  65.9534997  62.5099988  84.8881895  65.1045458  62.9796311
  85.6985491  66.6606545  63.2779318  86.5470012  65.5154997  61.6829988
  86.9353439  64.6007720  62.1308405  87.3498347  66.2480880  61.6000993
  85.9690012  65.2114997  60.2919988  86.5681731  65.6353059  59.4860958
  85.8020012  63.7234997  60.0669988  84.7620012  63.1364997  60.4219988
  86.7990012  63.0694997  59.4619988  88.1210012  63.5944997  59.0829988
  88.7662533  63.6300722  59.9607712  88.0122720  64.5980570  58.6717207
  88.5930012  62.6084997  58.0629988  89.6819724  62.5622208  58.0729506
  88.2517800  62.9118752  57.0732348  87.9880012  61.3014997  58.4579988
  88.5982191  60.7975784  59.2075296  87.8564079  60.6462221  57.5969563
  86.6210012  61.6624997  59.0549988  85.8385064  61.6459015  58.2963653
  86.2440012  60.7244997  60.1919988  85.4550012  59.7954997  59.9849988
  86.7850012  60.9414997  61.3869988  87.4228515  61.7116095  61.5290452
  86.4790012  60.0864997  62.5149988  85.7875924  60.6154622  63.1709346
  86.0029037  59.1799858  62.1412835  87.7120012  59.7054997  63.3039988
  87.6530012  59.5504997  64.5279988  88.8410012  59.5534997  62.6129988
  88.8317492  59.5646846  61.6031034  90.1070012  59.3084997  63.2889988
  89.9830354  58.5273781  64.0390526  91.1660012  58.8544997  62.2799988
  90.7121247  58.1390146  61.5943046  91.5119583  59.7237610  61.7207150
  92.2650012  58.2474997  62.9359988  92.9140530  57.9718831  62.2845641
  90.6090012  60.5304997  64.0429988  91.4830012  60.3914997  64.9059988
  90.0820012  61.7144997  63.7389988  89.4623848  61.7746869  62.9436672
  90.4270012  62.9434997  64.4399988  91.2024422  62.7314034  65.1760732
  90.9300012  64.0174997  63.4609988  90.0712541  64.4984721  62.9926833
  91.7580012  65.0594997  64.1889988  92.6172444  64.5793184  64.6572162
  92.1043507  65.8102505  63.4787059  91.1481881  65.5386894  64.9548998
  91.7860012  63.3854997  62.3619988  91.1713425  62.6330124  61.8679761
  92.0330850  64.1751049  61.6523702  93.0630012  62.7424997  62.8669988
  92.8166888  61.9524272  63.5763757  93.6131603  62.3176755  62.0273866
  93.6784306  63.4945199  63.3607721  89.2550012  63.4604997  65.2639988
  89.4220012  64.3814997  66.0699988  88.0700012  62.8784997  65.0929988
  87.9844240  62.1548678  64.3936185  86.8750012  63.2754997  65.8259988
  86.9225973  64.3358457  66.0739910  85.6280012  63.0284997  64.9649988
  85.8213969  63.6166592  64.0679114  85.5904132  61.9708088  64.7042742
  84.2890012  63.4514997  65.5729988  84.1533347  62.9279533  66.5193574
  84.2500012  64.9504997  65.8139988  84.3851464  65.4747575  64.8679605
  83.2877294  65.2245821  66.2464483  85.0490991  65.2295154  66.5007980
  83.1380012  63.0164997  64.6809988  83.1507581  61.9318837  64.5735516
  82.1936031  63.3256349  65.1289373  83.2429534  63.4795474  63.6998409
  86.7330012  62.5514997  67.1549988  86.3860012  63.1734997  68.1649988
  86.9910012  61.2454997  67.1799988  87.1928733  60.7752450  66.3092477
  86.9180012  60.4454997  68.3969988  85.9167953  60.5082108  68.8233242
  87.2260012  58.9794997  68.0859988  87.9582889  58.9705296  67.2786739
  87.6651577  58.5350161  68.9791258  86.0100012  58.1814997  67.6719988
  85.5090012  58.2644997  66.3799988  86.0099969  58.9145337  65.6626715
  84.3960012  57.5414997  65.9969988  84.0138893  57.6153173  64.9788419
  83.7680012  56.7234997  66.9109988  82.6600012  56.0014997  66.5329988
  82.4146584  56.1436081  65.6158228  84.2450012  56.6254997  68.2009988
  83.7487258  55.9784733  68.9243024  85.3590012  57.3534997  68.5749988
  85.7396656  57.2824140  69.5938911  87.8420012  60.9534997  69.5039988
  87.3900012  61.0764997  70.6509988  89.1390012  61.2504997  69.2379988
  89.8470012  61.2924997  67.9429988  89.1971010  61.7427091  67.1926378
  90.1020862  60.2770550  67.6398441  91.0630012  62.1274997  68.2289988
  90.8483219  63.1731549  68.0085061  91.8928698  61.7888769  67.6087133
  91.3590012  61.9294997  69.6549988  91.8654729  62.8069462  70.0570845
  91.9674997  61.0438181  69.8377480  89.9880012  61.7684997  70.3209988
  90.0174180  61.0171632  71.1101289  89.4790012  63.0824997  70.8919988
  89.5990012  63.3284997  72.0949988  88.8980012  63.9324997  70.0419988
  88.8929749  63.7611179  69.0466584  88.3160012  65.1754997  70.5319988
  89.0138280  65.6702928  71.2075109  88.0140012  66.1164997  69.3669988
  87.8149557  65.5369414  68.4655597  87.1505261  66.7416153  69.5944656
  89.1430012  67.0474997  69.0379988  90.4230012  66.7914997  69.4969988
  90.6037377  65.9013645  70.0995712  91.4660012  67.6484997  69.1999988
  92.4703580  67.4352035  69.5658850  91.2340012  68.7754997  68.4389988
  92.0534879  69.4537823  68.2013561  89.9600012  69.0434997  67.9779988
  89.7727916  69.9338795  67.3777683  88.9230012  68.1824997  68.2779988
  87.9170988  68.3935133  67.9150474  87.0580012  64.9374997  71.3529988
  86.6020012  65.8544997  72.0449988  86.4840012  63.7394997  71.2889988
  86.7980488  63.0531915  70.6178397  85.3330012  63.4144997  72.1229988
  84.8618751  64.3163610  72.5138767  84.3030012  62.6074997  71.3149988
  84.8163886  61.7932819  70.8035467  83.2300012  62.0354997  72.2279988
  82.7158297  62.8492018  72.7394841  82.5121988  61.4685525  71.6351823
  83.6917056  61.3781273  72.9647414  83.6710012  63.4844997  70.2329988
  83.3761296  64.4209591  70.7064915  84.4399527  63.6819607  69.4861238
  82.4680012  62.8574997  69.5639988  81.6983870  62.6601606  70.3102234
  82.0752644  63.5387018  68.8091341  82.7622100  61.9211605  69.0898575
  85.7480012  62.6644997  73.3889988  85.2420012  62.9604997  74.4759988
  86.6630012  61.7044997  73.2709988  87.0412032  61.4839389  72.3608254
  87.0720012  60.8864997  74.4059988  86.2162992  60.5575513  74.9956311
  87.8560012  59.6414997  73.9369988  88.6972322  59.9668094  73.3249505
  88.3720012  58.8454997  75.1249988  87.5312542  58.5194302  75.7373093
  88.9206385  57.9738148  74.7682593  89.0345986  59.4717283  75.7224131
  86.9770012  58.7714997  73.0529988  86.6594218  59.3428593  72.1807640
  87.5402468  57.8966363  72.7282401  86.1001803  58.4503165  73.6152509
  87.8820012  61.6624997  75.4399988  87.6810012  61.4454997  76.6449988
  88.7850012  62.5524997  75.0229988  89.0117967  62.6482878  74.0434643
  89.5770012  63.3094997  75.9969988  90.0683224  62.6498584  76.7122442
  90.6520012  64.1394997  75.2749988  90.1716769  64.7741171  74.5302515
  91.4040012  65.0064997  76.2689988  91.8850089  64.3725171  77.0138468
  92.1616131  65.5883747  75.7440740  90.7060160  65.6819208  76.7636952
  91.6170012  63.2244997  74.5419988  91.0706156  62.6328597  73.8074737
  92.3730177  63.8241197  74.0350525  92.1010604  62.5587670  75.2565528
  88.7060012  64.1504997  76.9239988  88.8790012  64.0534997  78.1489988
  87.7700012  64.9754997  76.4349988  87.4220012  65.3024997  75.0419988
  86.7068995  64.5744672  74.6589861  88.3196929  65.2891396  74.4238806
  86.8380012  66.6674997  75.1659988  86.1632400  66.8631536  74.3326225
  87.6315185  67.4147450  75.1734823  86.1090012  66.6534997  76.4639988
  85.1113291  66.2311593  76.3440907  86.0309519  67.6523863  76.8932230
  86.9510012  65.7524997  77.3819988  87.6333866  66.3452167  77.9912073
  86.0820012  64.8954997  78.2849988  85.8870012  65.2494997  79.4549988
  85.5550012  63.7744997  77.7889988  85.6955816  63.5213433  76.8213995
  84.6840012  62.9374997  78.6019988  83.9910589  63.5594870  79.1686220
  83.8860012  61.9574997  77.7109988  83.5466408  62.4894548  76.8222026
  84.7420012  60.7814997  77.2979988  85.0813791  60.2487421  78.1863076
  84.1569405  60.1076047  76.6721631  85.6056344  61.1391925  76.7373807
  82.6490012  61.4434997  78.4489988  82.9557642  60.5726668  79.0283495
  82.3239063  62.2334971  79.1259899  81.5060012  61.0624997  77.5329988
  81.8302210  60.2721704  76.8559751  80.6650738  60.7075473  78.1287750
  81.1983645  61.9330008  76.9536135  85.4520012  62.1874997  79.6829988
  84.8410012  61.6734997  80.6249988  86.7780012  62.1134997  79.5749988
  87.2248419  62.4140099  78.7205245  87.6130012  61.5564997  80.6329988
  87.0364975  60.8838154  81.2680096  88.7910012  60.7784997  80.0379988
  89.4010136  60.3857338  80.8514605  88.2950012  59.6274997  79.1749988
  87.6852518  60.0195492  78.3609948  89.1477481  59.0883545  78.7623920
  87.6962102  58.9489595  79.7825621  89.6030012  61.6604997  79.2529988
  90.3403136  61.1707813  78.8813180  88.1430012  62.6184997  81.5839988
  88.3280012  62.3394997  82.7719988  88.3970012  63.8324997  81.0879988
  88.3671390  64.0058597  80.0934366  88.8130012  64.9204997  81.9679988
  89.6607770  64.6294303  82.5882036  89.2100012  66.1584997  81.1409988
  88.3853098  66.4211389  80.4784250  89.5190012  67.3314997  82.0529988
  90.3439559  67.0697605  82.7156021  89.7973922  68.1967088  81.4513243
  88.6379038  67.5717153  82.6480328  90.4120012  65.8454997  80.2689988
  90.1665065  65.0283752  79.5906611  90.6815762  66.7289428  79.6902439
  91.2524650  65.5540507  80.8989026  87.7160012  65.2434997  82.9709988
  87.9940012  65.4834997  84.1529988  86.4560012  65.2504997  82.5259988
  86.2427675  65.1360349  81.5454231  85.3550012  65.5014997  83.4479988
  85.5428195  66.4080149  84.0233714  84.0440012  65.6734997  82.6789988
  84.1620228  66.4856013  81.9615993  83.6760012  64.3964997  81.9419988
  83.5573475  63.5839952  82.6588373  82.7402301  64.5442911  81.4029354
  84.4660960  64.1439514  81.2348425  82.9930012  66.0084997  83.5929988
  82.1706908  66.1162322  83.1094703  85.2330012  64.3864997  84.4799988
  84.7360012  64.6094997  85.5889988  85.6790012  63.1794997  84.1359988
  85.9438520  62.9873855  83.1804646  85.7340012  62.0884997  85.1009988
  84.9032456  62.1709937  85.8018120  85.6370012  60.7394997  84.3839988
  86.3870956  60.8094955  83.5962436  85.9210633  59.9563517  85.0869126
  84.2790012  60.4014997  83.7659988  83.9729589  61.2223389  83.1174142
  84.3610012  59.1174997  82.9539988  84.6665601  58.2960595  83.6020486
  83.3843146  58.8961343  82.5236716  85.0909614  59.2390936  82.1537030
  83.2160012  60.2854997  84.8459988  83.1354524  61.2320810  85.3804097
  82.2566835  60.0446864  84.3879379  83.4924057  59.4964191  85.5453209
  86.9900012  62.1284997  85.9579988  87.0840012  61.3684997  86.9269988
  87.9510012  62.9884997  85.6239988  87.8695301  63.4979182  84.7556932
  89.1470012  63.1874997  86.4319988  89.2508677  62.3725380  87.1483425
  90.3940012  63.2164997  85.5379988  90.2714951  62.3312812  84.9139155
  90.3027079  64.1106366  84.9213265  91.7770012  63.1894997  86.1959988
  91.7038472  62.7041249  87.1692206  92.7490012  62.4214997  85.3199988
  92.8230403  62.9065739  84.3466951  93.7308399  62.4056776  85.7931194
  92.3924151  61.3997192  85.1899542  92.3030012  64.5974997  86.4429988
  91.6177278  65.1316675  87.1011512  93.2859619  64.5418501  86.9107515
  92.3822526  65.1279755  85.4940975  89.1010012  64.4564997  87.2649988
  89.5440012  64.4394997  88.4159988  88.5810012  65.5544997  86.7149988
  88.3572182  65.5831901  85.7305205  88.3980012  66.7684997  87.5009988
  89.2968306  67.0336213  88.0576992  88.0230012  67.9454997  86.5829988
  87.1507510  67.6651910  85.9924855  87.7050012  69.1904997  87.3969988
  88.5769930  69.4717092  87.9874667  87.4431205  70.0076291  86.7248243
  86.8666902  68.9855803  88.0628399  89.1510012  68.2254997  85.6059988
  89.3322875  67.3404133  84.9961959  88.8752140  69.0600092  84.9613012
  90.0564440  68.4773708  86.1581175  87.3540012  66.5774997  88.5929988
  87.5030012  67.1334997  89.6879988  86.3080012  65.7914997  88.3289988
  86.2085306  65.3977764  87.4042356  85.2690012  65.5164997  89.3119988
  84.7712719  66.4405856  89.6059885  84.2230012  64.5604997  88.7319988
  84.7356863  63.7549833  88.2062635  83.3570012  63.9744997  89.8349988
  82.8436021  64.7794397  90.3609194  82.6212117  63.2984456  89.3994946
  83.9842352  63.4247534  90.5367516  83.3930012  65.2664997  87.8029988
  82.7374053  64.6666708  87.4396812  85.8620012  64.9294997  90.5869988
  85.6090012  65.4364997  91.6849988  86.6620012  63.8714997  90.4519988
  86.8117411  63.4441135  89.5492151  87.2910012  63.2624997  91.6179988
  86.5084628  63.0550246  92.3478529  87.9570012  61.9424997  91.2269988
  88.7490749  62.1349436  90.5033382  88.3821799  61.4727510  92.1139370
  87.2151045  61.2776597  90.7846455  88.3100012  64.1774997  92.2799988
  88.5630012  64.0244997  93.4799988  88.8570012  65.1344997  91.5409988
  88.6612317  65.2048997  90.5526580  89.7900012  66.0884997  92.1309988
  90.5526460  65.5547983  92.6981274  90.4770012  66.9114997  91.0439988
  91.0341527  66.1654649  90.4773299  89.6944396  67.3352377  90.4145995
  91.4260012  68.0224997  91.4939988  90.8850673  68.7054812  92.1490008
  92.6170012  67.4404997  92.2409988  93.1587337  66.7577235  91.5864444
  93.2804471  68.2471590  92.5528336  92.2662200  66.8991011  93.1196002
  91.8890012  68.8314997  90.2929988  91.0252301  69.2770221  89.7995327
  92.5644947  69.6202644  90.6241480  92.4097089  68.1780687  89.5930056
  89.0570012  67.0044997  93.0919988  89.5050012  67.2194997  94.2149988
  87.9150012  67.5294997  92.6649988  87.5863218  67.3547970  91.7260908
  87.1490012  68.4444997  93.5079988  87.7708171  69.2588303  93.8798990
  85.9510012  69.0474997  92.7459988  85.3602167  68.2324866  92.3278759
  85.0770012  69.8874997  93.6639988  85.6670154  70.7030464  94.0821706
  84.2419577  70.2978517  93.0961835  84.6946329  69.2645911  94.4726279
  86.4440012  69.8824997  91.5759988  87.0197444  69.2534487  90.8970903
  85.5906794  70.3037733  91.0445195  87.0757136  70.6900710  91.9459565
  86.6870012  67.7494997  94.7819988  86.7350012  68.3324997  95.8609988
  86.2750012  66.4904997  94.6709988  86.2550744  66.0224585  93.7762140
  85.8070012  65.7624997  95.8409988  84.9947420  66.2949875  96.3357622
  85.3150012  64.3524997  95.4669988  86.1351106  63.8072895  94.9998098
  84.8420012  63.5974997  96.6999988  84.0215327  64.1419017  97.1675016
  84.4994447  62.6043783  96.4093693  85.6656212  63.5044619  97.4078799
  84.1940012  64.4374997  94.4469988  84.5566537  64.9368997  93.5485642
  83.8566716  63.4327387  94.1925115  83.3625878  65.0039864  94.8664574
  86.9340012  65.6594997  96.8589988  86.7180012  65.8404997  98.0559988
  88.1440012  65.3884997  96.3939988  88.3007072  65.1762614  95.4190642
  89.2810012  65.3414997  97.3019988  89.0770118  64.6521034  98.1212792
  90.5220012  64.8604997  96.5579988  90.2639481  64.5683518  95.5400806
  91.2702250  65.6526157  96.5294810  91.1750012  63.6804997  97.1869988
  92.3590012  63.6624997  97.8599988  92.8882389  64.6111462  97.9498708
  92.6360012  62.3904997  98.2969988  93.4544929  62.1135874  98.8199619
  91.6200012  61.5574997  97.9099988  91.4480012  60.1924997  98.1179988
  92.2142524  59.6499491  98.6717104  90.3190012  59.6144997  97.6099988
  90.1520359  58.5467415  97.7518267  89.3660012  60.3634997  96.9079988
  88.4673837  59.8927578  96.5092655  89.5350012  61.7174997  96.6999988
  88.7668844  62.2540820  96.1430636  90.6800012  62.3374997  97.2079988
  89.5500012  66.6964997  97.9339988  89.8420012  66.7874997  99.1209988
  89.4640012  67.7564997  97.1429988  89.2817645  67.6541222  96.1548652
  89.7030012  69.0944997  97.6659988  90.6650090  69.1282485  98.1773706
  89.7210012  70.1064997  96.5279988  88.7778420  70.0079731  95.9905580
  89.7813785  71.0983178  96.9760517  90.8740012  69.9174997  95.5629988
  90.7747732  68.9379955  95.0952100  90.8305908  70.6915562  94.7968042
  92.2220012  69.9914997  96.2499988  92.4840012  70.9054997  97.0309988
  93.0900012  69.0314997  95.9539988  94.0042487  69.0316096  96.3832456
  92.8320862  68.3054906  95.3009351  88.6730012  69.4844997  98.7079988
  89.0060012  70.1004997  99.7149988  87.4170012  69.1414997  98.4649988
  87.1662743  68.7182629  97.5828956  86.3500012  69.4444997  99.4159988
  86.3810637  70.5012673  99.6812845  84.9890012  69.1354997  98.8069988
  84.2152942  69.4704320  99.4978657  84.8971394  69.6804737  97.8674964
  84.8370012  67.7504997  98.5649988  83.9722518  67.5855856  98.1820996
  86.5000012  68.7244997 100.7469988  86.1780012  69.2884997 101.7919988
  86.9840012  67.4864997 100.7239988  87.2141883  67.0443811  99.8455658
  87.0920012  66.6914997 101.9519988  86.1262750  66.6763780 102.4572151
  87.5110012  65.2464997 101.6519988  87.0559786  64.6254325 102.4235746
  87.0810068  64.9941129 100.6827177  89.0080012  64.9984997 101.6209988
  89.4544286  65.6670244 100.8848751  89.4160793  65.2202557 102.6071015
  89.3240012  63.5604997 101.2549988  88.8387793  62.8985413 101.9722643
  88.9388956  63.3574367 100.2557197  90.8230012  63.3194997 101.2779988
  91.0042390  62.2629894 101.0804148  91.2795894  63.9193706 100.4907369
  91.4190012  63.6874997 102.5899988  90.9963581  63.1314536 103.3195777
  92.4138177  63.5143881 102.5682620  91.2515446  64.6665497 102.7730789
  88.0330012  67.3464997 102.9499988  87.9290012  67.0984997 104.1519988
  88.9440012  68.1834997 102.4669988  89.0369839  68.3358654 101.4728970
  89.8350012  68.9044997 103.3609988  90.4381565  68.1972185 103.9302581
  90.7690012  69.8134997 102.5669988  90.1441936  70.4842782 101.9772777
  91.3455199  70.3940864 103.2871690  91.7170012  69.0644997 101.6459988
  92.4777277  68.5750365 102.2541285  91.1485460  68.3112335 101.1005166
  92.3860012  70.0054997 100.6599988  93.2119199  69.4844795 100.1757517
  91.6576466  70.3088943  99.9079677  92.9070012  71.2004997 101.3149988
  92.7408048  71.2950262 102.3067361  93.5770012  72.1624997 100.6899988
  93.8150012  72.0684997  99.3889988  93.4854631  71.2637535  98.8752982
  94.3247357  72.8020749  98.9176839  94.0120012  73.2164997 101.3649988
  93.8327099  73.2865574 102.3564859  94.5208559  73.9449756 100.8849067
  88.9390012  69.7244997 104.2789988  87.6920012  69.6394997 104.1169988
  89.4890012  70.4444997 105.1539988  73.2520012  86.2144997  48.8769988
  73.7751929  85.4110016  48.5595682  72.8975321  86.0256204  49.8037008
  73.7985492  87.0462861  48.7051964  72.0700012  86.3484997  48.0319988
  71.1696985  86.2814606  48.6427852  72.0750012  87.7024997  47.3139988
  72.2002470  88.4629372  48.0848083  72.9456983  87.7037174  46.6582663
  70.8260012  88.0074997  46.4989988  70.9626044  88.9670695  46.0003344
  70.6938692  87.2255630  45.7511898  69.5760012  88.0784997  47.3509988
  68.7530012  87.1624997  47.3449988  69.4240012  89.1724997  48.0889988
  68.6084003  89.2724877  48.6762798  70.1247320  89.8992763  48.0594461
  72.0390012  85.1864997  47.0389988  71.6210012  84.0804997  47.3839988
  72.4790012  85.4354997  45.8039988  72.6691254  86.3775854  45.4934725
  72.6310012  84.3464997  44.8439988  71.9605422  83.5280114  45.1060312
  72.2910012  84.8234997  43.4319988  72.6867143  85.8391318  43.4306682
  72.8567971  84.2127503  42.7284647  70.8180012  84.8494997  43.0149988
  70.3580953  83.9119704  43.3274508  70.0710012  86.0134997  43.6429988
  70.5300754  86.9514583  43.3306156  69.0299200  85.9940786  43.3207044
  70.1162076  85.9314237  44.7289639  70.6980012  84.8884997  41.4979988
  71.1719913  84.0039002  41.0726559  69.6450943  84.9066700  41.2166480
  71.1908702  85.7828942  41.1168983  74.0400012  83.7684997  44.8859988
  74.2270012  82.5624997  44.6869988  75.0400012  84.6144997  45.1489988
  74.8633838  85.5838139  45.3711150  76.4200012  84.1534997  45.1209988
  76.6415251  83.8036498  44.1127173  77.0658013  84.9978291  45.3621405
  76.6890012  83.0304997  46.1029988  77.4120012  82.0804997  45.7899988
  76.1130012  83.1214997  47.3029988  75.6274868  83.9597776  47.5887700
  76.2630012  82.0434997  48.2749988  77.2984521  81.7246888  48.3945824
  75.7200012  82.4834997  49.6519988  76.2289423  83.3998091  49.9510893
  74.2170012  82.7324997  49.5959988  73.7073060  81.8164467  49.2974042
  73.8623978  83.0409430  50.5794720  74.0051520  83.5183937  48.8710214
  76.0600012  81.4474997  50.7139988  77.1422285  81.3352967  50.7795470
  75.6699615  81.7733744  51.6782468  75.6116439  80.4908654  50.4458059
  75.5940012  80.7704997  47.7749988  76.0770012  79.6624997  48.0339988
  74.4840012  80.9004997  47.0479988  74.0812363  81.8136151  46.8927570
  73.7920012  79.7394997  46.5059988  73.8917101  78.8941029  47.1867789
  72.3030012  80.0474997  46.3229988  72.1800145  80.7100470  45.4662575
  71.5210012  78.7654997  46.0879988  71.6431368  78.1025946  46.9445846
  70.4646907  79.0019274  45.9599000  71.8935884  78.2713136  45.1907477
  71.8020012  80.6934997  47.4989988  70.8686204  80.8868235  47.3848651
  74.3750012  79.2704997  45.1809988  74.4600012  78.0584997  44.9469988
  74.7740012  80.1954997  44.3039988  74.6512752  81.1823355  44.4806133
  75.3380012  79.7874997  43.0229988  74.6797741  79.0636689  42.5424726
  75.4920012  80.9954997  42.0999988  76.0985343  81.7303774  42.6293111
  76.0255003  80.6566957  41.2119162  74.1720012  81.6304997  41.6869988
  73.4005721  80.8619127  41.7346663  73.9416609  82.4205573  42.4017395
  74.2190012  82.2154997  40.2819988  73.3637684  82.8780546  40.1489688
  75.1409129  82.7861752  40.1701615  74.1780012  81.1834997  39.2459988
  73.2647854  80.8664970  38.9533459  75.2500012  80.6374997  38.6809988
  76.4640012  81.0284997  39.0369988  76.5745236  81.7445008  39.7407226
  77.2738473  80.6089289  38.6031679  75.1070012  79.7054997  37.7499988
  74.1815713  79.4119072  37.4716410  75.9240923  79.2930013  37.3230259
  76.6740012  79.0794997  43.2069988  76.9550012  78.0834997  42.5289988
  77.5130012  79.5754997  44.1169988  77.2982011  80.4212929  44.6255203
  78.8060012  78.9394997  44.3469988  79.2872559  78.7216373  43.3935686
  79.7160012  79.8654997  45.1529988  79.2279972  80.0936170  46.1005819
  80.6597981  79.3549780  45.3446103  80.0070012  81.1674997  44.4319988
  80.5500012  81.1714997  43.3269988  79.6500012  82.2834997  45.0579988
  79.8202305  83.1792056  44.6234500  79.2099912  82.2311368  45.9656056
  78.6590012  77.5934997  45.0499988  79.3880012  76.6474997  44.7349988
  77.7250012  77.4854997  45.9989988  77.1431974  78.2722570  46.2492319
  77.5710012  76.2454997  46.7499988  78.5396770  75.9221742  47.1310854
  76.6230012  76.4494997  47.9339988  76.8349230  75.6544242  48.6488718
  76.8745543  77.4128311  48.3776355  75.1490012  76.4274997  47.5759988
  74.8571447  77.4221134  47.2388575  74.9969561  75.7115019  46.7683283
  74.2990012  76.0284997  48.7739988  73.2833638  75.8366193  48.4279327
  74.7142907  75.1167989  49.2034585  74.2760012  77.1204997  49.8299988
  73.9096536  76.6873585  50.7607398  75.2956089  77.4783545  49.9729644
  73.4020012  78.2584997  49.4349988  72.4570753  77.9271949  49.3028926
  73.4142836  78.9602822  50.1612565  73.7415457  78.6602707  48.5727989
  77.0770012  75.0904997  45.8899988  77.2080012  73.9344997  46.3069988
  76.5120012  75.3644997  44.7149988  76.2500237  76.3114169  44.4808730
  76.1770012  74.3024997  43.7749988  76.1573019  73.3359652  44.2785087
  74.8150012  74.5564997  43.0969988  74.5697609  73.7050336  42.4622050
  73.7290012  74.7374997  44.1419988  73.9733265  75.5891278  44.7769281
  72.7741989  74.9158228  43.6473734  73.6585422  73.8377055  44.7531495
  74.8860012  75.7774997  42.1819988  74.9988781  76.6543257  42.8196003
  75.7736038  75.6649248  41.5594332  73.6710012  75.9494997  41.2999988
  72.7830031  76.0626076  41.9219038  73.7946698  76.8369201  40.6792812
  73.5577276  75.0732051  40.6617380  77.2610012  74.1104997  42.7209988
  77.3000012  73.0504997  42.0769988  78.1380012  75.0974997  42.5219988
  78.0072014  76.0084917  42.9380327  79.2830012  74.8974997  41.6419988
  78.9458150  74.5261008  40.6742862  80.0270012  76.2174997  41.4269988
  80.2442118  76.6054440  42.4221962  80.9602217  75.9583341  40.9269660
  79.2900012  77.2874997  40.6109988  78.8451455  77.9404077  41.3619418
  80.0833586  77.8225929  40.0891163  78.0160012  76.7974997  39.4169988
  78.8560012  75.5814997  38.3989988  79.1855786  74.7503121  39.0223806
  78.1725386  75.2126795  37.6341777  79.7208121  76.0418860  37.9212460
  80.2250012  73.8424997  42.2059988  80.7690012  73.0204997  41.4589988
  80.4270012  73.8524997  43.5259988  80.0391663  74.5824127  44.1064386
  81.2660012  72.8394997  44.1569988  82.2580360  72.8316088  43.7054417
  81.4110012  73.1374997  45.6499988  80.4210948  73.1447083  46.1062155
  82.2720012  72.0844997  46.3259988  83.2622798  72.0770165  45.8705959
  82.3625333  72.3151199  47.3874682  81.8099379  71.1046357  46.2057293
  82.0160012  74.4244997  45.8249988  82.1066100  74.6106835  46.7624026
  80.6930012  71.4464997  43.9419988  81.4370012  70.4954997  43.6719988
  79.3710012  71.3064997  44.0539988  78.7909758  72.0568777  44.4012778
  78.7370012  70.0324997  43.7379988  79.1869736  69.2517707  44.3512575
  77.2440012  70.0954997  44.0469988  76.7777628  70.8667086  43.4338441
  76.7859588  69.1311200  43.8272961  77.1002955  70.3337369  45.1008920
  78.9700012  69.6544997  42.2839988  79.2240012  68.4854997  41.9719988
  78.8810012  70.6284997  41.3759988  78.5024791  71.5355343  41.6086114
  79.2760012  70.3774997  39.9939988  78.7569031  69.4978122  39.6134906
  78.9170012  71.5744997  39.1149988  77.8357065  71.7017765  39.1669775
  79.4062936  72.4492392  39.5433955  79.3390012  71.4184997  37.6639988
  80.4277767  71.4171493  37.6123581  78.9567653  70.4695179  37.2879251
  78.8150012  72.5324997  36.7859988  79.5480012  73.0964997  35.9749988
  77.5380012  72.8564997  36.9419988  77.1351143  73.5937634  36.3814402
  76.9745790  72.3644065  37.6206011  80.7630012  70.0724997  39.8989988
  81.1740012  69.1774997  39.1509988  81.5830012  70.8044997  40.6489988
  81.2098386  71.5697302  41.1923874  83.0220012  70.5774997  40.6729988
  83.4255793  70.6291828  39.6617853  83.7060012  71.6474997  41.5279988
  83.3992129  72.6109837  41.1209621  83.3207938  71.5428854  42.5422824
  85.2170012  71.5684997  41.5519988  85.8750012  70.7284997  42.4419988
  85.2840933  70.1216832  43.1280754  87.2530012  70.6544997  42.4669988
  87.7572983  69.9877515  43.1664507  87.9910012  71.4294997  41.6009988
  89.3650012  71.3604997  41.6239988  89.6986622  70.7432058  42.2791462
  87.3620012  72.2734997  40.7119988  87.9469835  72.8870967  40.0268748
  85.9830012  72.3394997  40.6919988  85.4793727  73.0060000  39.9918304
  83.3450012  69.1854997  41.1989988  83.9070012  68.3574997  40.4759988
  82.9710012  68.9204997  42.4529988  82.4169128  69.5835933  42.9758681
  83.4000012  67.6964997  43.1229988  84.4860828  67.6107937  43.0886424
  82.9580012  67.7244997  44.5869988  81.8867661  67.9258814  44.5866153
  83.1395532  66.7272439  44.9877727  83.6700012  68.7594997  45.4559988
  83.6760857  69.6906128  44.8893489  83.0853847  68.8925677  46.3662821
  85.0960012  68.3794997  45.8209988  85.4310012  68.4524997  47.0209988
  85.8860012  68.0254997  44.9209988  82.8590012  66.4494997  42.4369988
  83.4870012  65.3864997  42.5059988  81.6980012  66.5504997  41.7849988
  81.1927829  67.4237342  41.7368809  81.0980012  65.3694997  41.1729988
  81.0192354  64.5692880  41.9089039  79.6990012  65.6954997  40.6549988
  79.0452067  65.9292380  41.4952478  79.7498956  66.5538857  39.9851606
  78.9500012  64.3634997  39.6969988  81.9610012  64.8224997  40.0439988
  82.1570012  63.6074997  39.9379988  82.4910012  65.7044997  39.1939988
  82.3699265  66.6992445  39.3201854  83.1930012  65.2384997  38.0019988
  82.6220499  64.4459791  37.5182375  83.3650012  66.3894997  37.0129988
  83.6342888  67.2779868  37.5841152  84.1863442  66.1230537  36.3477904
  82.1250012  66.6734997  36.1939988  81.7190012  65.8044997  35.1909988
  82.3107591  64.9093515  34.9996042  80.5870012  66.0574997  34.4409988
  80.2811808  65.3693055  33.6529857  79.8440012  67.1904997  34.6929988
  78.7160012  67.4464997  33.9509988  78.5417307  66.7734487  33.2890079
  80.2250012  68.0654997  35.6859988  79.6352370  68.9597786  35.8873540
  81.3600012  67.8054997  36.4279988  81.6678544  68.4960063  37.2131911
  84.5390012  64.6064997  38.3379988  85.0140012  63.7444997  37.5879988
  85.1710012  65.0104997  39.4429988  84.8586215  65.8089112  39.9769063
  86.3940012  64.3324997  39.8629988  87.0946014  64.2946331  39.0288378
  87.0590012  65.0704997  41.0269988  86.2619380  65.4130167  41.6869015
  87.6797039  64.3456252  41.5536725  87.9130012  66.2574997  40.6049988
  88.8225454  66.2634416  41.2056608  88.1736192  66.1401639  39.5531373
  87.2080012  67.5824997  40.7829988  86.2860012  67.7034997  41.5859988
  87.6410012  68.5884997  40.0319988  87.2058757  69.4966193  40.1100111
  88.4034557  68.4408705  39.3862666  86.1160012  62.8854997  40.2409988
  86.9520012  62.0044997  40.0119988  84.9510012  62.6184997  40.8329988
  84.3459515  63.3495007  41.1789059  84.5560012  61.2324997  41.0529988
  85.3525237  60.7005864  41.5733057  83.2870012  61.1634997  41.9019988
  83.4553812  61.7592145  42.7991449  82.4755069  61.6027745  41.3218137
  82.9150012  59.7444997  42.2989988  83.8034764  59.1190827  42.2120148
  82.5784992  59.7545986  43.3357082  81.8150012  59.1854997  41.4159988
  80.8586201  59.5919245  41.7450172  82.0025948  59.4879381  40.3857371
  81.7760012  57.6714997  41.4989988  82.7913733  57.2932533  41.3804672
  81.3961120  57.3895263  42.4809735  80.9020012  57.0874997  40.4419988
  81.2540901  57.3483070  39.5319918  80.8987877  56.0810020  40.5259756
  79.9609939  57.4375326  40.5519145  84.3530012  60.5134997  39.7249988
  84.7400012  59.3494997  39.5739988  83.7400012  61.1924997  38.7499988
  83.3063306  62.0860118  38.9334799  83.6190012  60.6274997  37.4119988
  83.2062652  59.6197561  37.4589146  82.7160012  61.5114997  36.5299988
  83.2734217  62.3992812  36.2312906  82.2700012  60.7514997  35.2889988
  81.7120769  59.8637686  35.5869161  81.6333636  61.3924053  34.6790535
  83.1447070  60.4532783  34.7110257  81.4890012  61.9904997  37.3099988
  81.8546635  62.5752845  38.1540476  80.9171808  62.6351790  36.6425338
  80.6020012  60.8764997  37.8159988  81.1730407  60.2316224  38.4839411
  79.7567287  61.3017223  38.3571081  80.2355596  60.2915152  36.9724268
  84.9870012  60.4484997  36.7709988  85.1670012  59.5584997  35.9309988
  85.9610012  61.2784997  37.1529988  85.7653684  62.0491591  37.7758240
  87.3190012  61.1324997  36.6379988  87.3135611  61.1534372  35.5482138
  88.1850012  62.2844997  37.1439988  87.5130557  63.1246421  37.3193536
  88.6131303  61.9583641  38.0918601  89.2950012  62.7134997  36.2109988
  90.1040506  61.9843088  36.2536658  88.9094196  62.7684585  35.1929573
  89.9280012  64.3284997  36.6919988  91.0210012  63.8764997  38.0359988
  91.7908657  63.1989668  37.6667336  91.4904822  64.7732186  38.4404533
  90.4480467  63.3817318  38.8202368  87.9230012  59.7924997  37.0389988
  88.5740012  59.1274997  36.2239988  87.7200012  59.3804997  38.2859988
  87.2152563  59.9656503  38.9363300  88.2570012  58.1134997  38.7689988
  89.1833922  57.8811768  38.2437132  88.5520012  58.1924997  40.2699988
  87.5928822  58.1640802  40.7870891  89.1307586  57.3061914  40.5299942
  89.3160012  59.4364997  40.6889988  88.6784837  60.3080339  40.5403369
  89.5694182  59.3483174  41.7454578  90.5960012  59.6314997  39.8979988
  90.8490012  60.7094997  39.3629988  91.4110012  58.5864997  39.8249988
  92.2772840  58.6605069  39.3110158  91.1611625  57.7220849  40.2837680
  87.2940012  56.9644997  38.4849988  87.4630012  55.8594997  38.9979988
  72.2950012  49.2114997  32.7569988  71.3967570  49.6662365  32.8374427
  73.4720012  49.9134997  33.2539988  73.5147726  49.8386669  34.3405851
  74.7480012  49.3014997  32.6709988  74.6808424  48.2225270  32.8103078
  74.7612555  49.5295907  31.6052132  76.0170012  49.8134997  33.3109988
  76.3080012  49.5384997  34.6399988  75.6035814  48.9424749  35.2202114
  77.4680012  50.0064997  35.2299988  77.6839840  49.7836764  36.2748926
  78.3540012  50.7594997  34.4879988  79.5110012  51.2274997  35.0699988
  79.5978540  50.9711204  35.9910449  78.0880012  51.0464997  33.1659988
  78.7880018  51.6407733  32.5786842  76.9250012  50.5754997  32.5859988
  76.7068807  50.8002349  31.5419597  73.4140012  51.4004997  32.9249988
  74.0060012  51.8524997  31.9439988  72.6940012  52.1584997  33.7489988
  72.1616514  51.7458940  34.5016339  72.6190012  53.6004997  33.5599988
  72.3633028  53.8265622  32.5248112  71.5460012  54.1984997  34.4699988
  71.5616938  53.6899249  35.4339514  71.7438135  55.2603101  34.6167260
  69.8570012  54.0634997  33.8369988  73.9720012  54.2384997  33.8469988
  74.5950012  53.9684997  34.8779988  74.4280012  55.0854997  32.9269988
  73.9008116  55.2666474  32.0847660  75.7180012  55.7384997  33.0869988
  76.4698109  55.0069226  33.3831006  76.1540012  56.3814997  31.7709988
  75.2763231  56.7926732  31.2722836  76.8558689  57.1856938  31.9918005
  76.8250012  55.3964997  30.8359988  76.2670012  55.0254997  29.8039988
  78.0300012  54.9694997  31.1919988  78.5230918  54.3117792  30.6051724
  78.4484641  55.3042064  32.0481302  75.6570012  56.7904997  34.1869988
  74.6630012  57.5054997  34.3309988  76.7300012  56.8754997  34.9709988
  77.4849309  56.2095504  34.8891940  76.8260012  57.9054997  35.9959988
  75.9588873  57.8555064  36.6545679  78.0880012  57.7034997  36.8339988
  78.2486576  58.6205941  37.4007672  77.8897478  56.8817466  37.5221249
  79.3320012  57.3894997  36.0139988  79.2121818  56.4008497  35.5709238
  79.4198130  58.1336354  35.2223845  80.5870012  57.4114997  36.8709988
  80.5468858  58.2715832  37.5393894  80.6319294  56.4957263  37.4604392
  81.7970012  57.5054997  36.0599988  81.6909484  57.8171184  35.1051449
  83.0160012  57.2104997  36.4989988  84.0600012  57.3264997  35.6899988
  83.9258801  57.6397230  34.7392082  84.9846038  57.1011060  36.0282403
  83.1910012  56.8014997  37.7469988  82.3953358  56.7147816  38.3630318
  84.1192630  56.5783209  38.0765740  76.8360012  59.2824997  35.3469988
  77.5300012  59.5074997  34.3509988  76.0600012  60.2064997  35.9089988
  75.5207035  59.9929282  36.7358268  75.9230012  61.5284997  35.3189988
  76.8557343  61.8111615  34.8309307  74.7960012  61.5664997  34.2809988
  75.0322061  60.8724479  33.4744012  73.4740012  61.1704997  34.9189988
  73.2368825  61.8644199  35.7254410  72.6839114  61.2024865  34.1687760
  73.5520838  60.1602850  35.3208320  74.6870012  62.8894997  33.7429988
  73.9811003  62.9133772  33.0928187  75.6690012  62.5514997  36.4169988
  75.2920012  62.2144997  37.5419988  75.8840012  63.8164997  36.0659988
  76.2422010  63.9970069  35.1390633  75.6760012  64.9514997  36.9609988
  75.4983993  64.5933799  37.9750535  76.9040012  65.8584997  36.9719988
  77.6087561  65.4729587  37.7087334  77.3808252  65.8834476  35.9921434
  76.6260012  67.2764997  37.3479988  76.5960012  68.3544997  36.5139988
  76.7842762  68.1642353  35.4573760  76.3220012  69.4954997  37.2249988
  76.2321766  70.4233611  36.8362776  76.1830012  69.1704997  38.5489988
  75.9040012  69.9774997  39.6469988  75.7676299  71.0467789  39.4853096
  75.8180012  69.3724997  40.8689988  75.6006012  69.9735930  41.7519053
  76.0030012  67.9934997  41.0159988  75.9340161  67.5221146  41.9963745
  76.2780012  67.1884997  39.9269988  76.4076106  66.1190878  40.0933126
  76.3710012  67.7794997  38.6629988  74.4300012  65.6804997  36.4709988
  74.4360012  66.2704997  35.3849988  73.3640012  65.6454997  37.2669988
  73.4319323  65.1999084  38.1708423  72.0670012  66.1654997  36.8479988
  71.9179738  65.9812341  35.7840739  70.9440012  65.4724997  37.6269988
  70.0187378  65.6055009  37.0663763  71.1848463  64.4109205  37.6830636
  70.7690012  66.0274997  39.0329988  71.7500012  66.5324997  39.6169988
  69.6380012  65.9564997  39.5549988  71.9490012  67.6744997  36.9999988
  70.9010012  68.2354997  36.6639988  72.9880012  68.3404997  37.4989988
  73.8357671  67.8392507  37.7229223  72.9520012  69.7614997  37.7349988
  73.8988978  70.1710805  37.3832467  72.1364469  70.1674111  37.1364952
  72.7490012  70.1614997  39.1789988  73.0420012  71.3074997  39.5349988
  72.2740012  69.2484997  40.0249988  72.0310875  68.3270728  39.6902378
  72.0360012  69.5584997  41.4289988  72.5040272  70.5089666  41.6852476
  70.5330012  69.6654997  41.6969988  69.9712923  68.9986750  41.0428372
  70.3354134  69.4049521  42.7367940  69.9780012  71.0384997  41.4869988
  70.6540012  72.1364997  41.0459988  71.7138944  72.0069208  40.8270571
  69.8080012  73.2144997  40.9719988  70.0672109  74.1461586  40.6805858
  68.5550012  72.8224997  41.3589988  67.3740012  73.5514997  41.4479988
  67.3912468  74.6074612  41.1782831  66.2550012  72.8884997  41.8729988
  65.3105779  73.4265475  41.9546644  66.2930012  71.5304997  42.2069988
  65.3948457  71.0133569  42.5446073  67.4640012  70.8054997  42.1199988
  67.4422948  69.7515667  42.3972260  68.6240012  71.4554997  41.6879988
  72.6610012  68.5134997  42.3439988  73.0160012  68.8144997  43.4869988
  72.8010012  67.2814997  41.8559988  72.5015213  67.0765419  40.9134472
  73.3460012  66.1964997  42.6579988  74.0210689  66.6065479  43.4091600
  72.2360012  65.4154997  43.3709988  71.4640833  65.3289941  42.6063035
  72.6242063  64.4250102  43.6083326  71.6380012  66.0424997  44.6289988
  71.2323811  67.0232890  44.3807539  70.5290012  65.1604997  45.1799988
  70.9339809  64.1796191  45.4289235  70.1111984  65.6186761  46.0764451
  69.7455961  65.0499543  44.4302277  72.7140012  66.2784997  45.6739988
  73.4711918  66.9511403  45.2711137  72.2670261  66.7255657  46.5619438
  73.1773101  65.3284507  45.9401767  74.1480012  65.2504997  41.7779988
  73.7640012  64.9724997  40.6399988  75.2600012  64.7584997  42.3129988
  75.6142771  65.1041608  43.1934000  76.0230012  63.7364997  41.6169988
  76.1013982  63.9919793  40.5602664  77.4310012  63.6254997  42.1979988
  77.7942187  64.6182230  42.4638420  77.4087672  62.9968815  43.0881925
  78.6370012  62.8994997  41.0679988  75.3080012  62.3914997  41.7099988
  74.5340012  62.1294997  42.6339988  75.5730012  61.5314997  40.7289988
  76.1682194  61.8000400  39.9584790  74.9670012  60.2094997  40.7039988
  74.6957198  59.9178741  41.7186219  73.7050012  60.1874997  39.8339988
  73.9393419  60.5426154  38.8304668  73.2864698  59.1827966  39.7748107
  72.6190012  61.0734997  40.3589988  72.3340012  62.3424997  39.9529988
  72.9572543  62.7571714  39.1607219  71.2720012  62.8414997  40.6679988
  70.8641188  63.7582658  40.5527971  70.8540012  61.8914997  41.5619988
  69.8220012  61.9284997  42.4949988  69.2198305  62.8340554  42.5688762
  69.6280012  60.8164997  43.2659988  68.8305148  60.8095818  44.0090113
  70.4320012  59.6814997  43.1239988  70.2656907  58.7994719  43.7424382
  71.4590012  59.6414997  42.1989988  72.0549855  58.7317763  42.1261503
  71.6820012  60.7634997  41.3969988  75.9910012  59.2024997  40.2029988
  76.9050012  59.5384997  39.4469988  75.8210012  57.9574997  40.6339988
  75.0099067  57.7474010  41.1979878  76.7710012  56.8894997  40.3679988
  77.6985100  57.3080839  39.9773406  77.0850012  56.1204997  41.6559988
  76.1468984  55.8278069  42.1275848  77.6567217  55.2282202  41.4009047
  77.8860012  56.9424997  42.6419988  78.8080012  57.6594997  42.2629988
  77.5350012  56.8414997  43.9189988  78.0357275  57.3682458  44.6203628
  76.7689797  56.2384160  44.1828207  76.2190012  55.9424997  39.3119988
  75.0430012  55.9964997  38.9409988  77.0910012  55.0634997  38.8219988
  78.0745618  55.1271022  39.0425947  76.6530012  54.0094997  37.9169988
  76.0968610  54.4433639  37.0859939  77.8560012  53.2524997  37.3569988
  78.5661594  53.1049181  38.1706290  77.5066027  52.2836370  37.0001712
  78.5340012  53.9924997  36.2239988  77.8230012  54.6614997  35.4449988
  79.7750012  53.9044997  36.1119988  75.7200012  53.0524997  38.6459988
  76.0220012  52.5904997  39.7499988  74.5820012  52.7544997  38.0219988
  74.3792352  53.1915375  37.1343146  73.5860012  51.8624997  38.5949988
  74.0107161  51.2667516  39.4029596  72.3550012  52.6234997  39.1369988
  71.6392111  51.9023016  39.5314823  72.7640012  53.5874997  40.2409988
  73.4794828  54.3093389  39.8471268  71.8833085  54.1135852  40.6093937
  73.2226114  53.0311006  41.0584328  71.6520012  53.3624997  38.0119988
  71.3233356  52.6482482  37.2570644  70.7872447  53.8934285  38.4100068
  72.3400966  54.0770277  37.5602520  73.1620012  50.8534997  37.5359988
  73.3270012  51.0694997  36.3339988  72.6100012  49.7364997  38.0039988
  72.5164815  49.5843940  38.9980899  72.1800012  48.6824997  37.1029988
  72.9358706  48.5394016  36.3308048  72.0020012  47.3674997  37.8619988
  71.2415330  47.4923703  38.6328395  71.6907563  46.5863376  37.1684479
  72.9466164  47.0848443  38.3266570  70.8800012  49.0754997  36.4019988
  70.2290012  50.0694997  36.7369988  70.5070012  48.2724997  35.4079988
  71.0809770  47.4794781  35.1594672  69.3060012  48.5314997  34.6199988
  69.2690698  49.5793138  34.3219704  69.3060012  47.6674997  33.3639988
  69.3335612  46.6150630  33.6463418  68.4027181  47.8647351  32.7866963
  70.1817243  47.9040619  32.7596424  68.0690012  48.2614997  35.4669988
  67.8050012  47.1174997  35.8479988  67.3080012  49.3124997  35.7619988
  67.5794395  50.2396365  35.4673160  66.0760012  49.1624997  36.5089988
  65.3980355  49.9577160  36.1990106  65.6437278  48.1958637  36.2504373
  66.2640012  49.2324997  38.0089988  65.7560012  48.3834997  38.7479988
  66.9950012  50.2424997  38.4729988  67.4083703  50.8848188  37.8122027
  67.2530012  50.4494997  39.8899988  66.6576179  49.7488321  40.4753900
  68.7290012  50.2394997  40.2299988  68.8436355  50.2313500  41.3139235
  69.2300012  48.9234997  39.6579988  69.1161100  48.9310861  38.5739919
  70.2821699  48.7937126  39.9113667  68.6515302  48.1005734  40.0778371
  69.4990012  51.3164997  39.6819988  70.4263100  51.1871274  39.8940399
  66.8380012  51.8584997  40.2829988  66.9220012  52.7894997  39.4749988
  66.3930012  52.0114997  41.5289988  66.3033361  51.2008590  42.1247514
  65.9600012  53.3064997  42.0509988  65.8366515  54.0061132  41.2243035
  64.6320012  53.1914997  42.7949988  64.8617484  52.6871013  43.7335603
  64.3187002  54.2150915  43.0004306  63.4980012  52.4434997  42.0759988
  62.5935195  52.5738191  42.6701625  63.3670715  52.9230029  41.1059301
  63.7630012  50.9604997  41.8759988  64.1380012  50.2824997  42.8559988
  63.5890012  50.4764997  40.7379988  67.0650012  53.8534997  42.9489988
  67.2080012  53.4854997  44.1169988  67.8660012  54.7494997  42.3809988
  67.7653798  54.9995996  41.4076413  68.9500012  55.3524997  43.1389988
  69.5164723  54.5758149  43.6527793  69.8960012  56.1144997  42.2119988
  70.2599687  55.4329665  41.4431429  69.3469973  56.9309106  41.7427781
  70.9950012  56.6394997  42.9359988  71.5760032  57.1135210  42.3365489
  68.3940012  56.2814997  44.2149988  67.4820012  57.0794997  43.9809988
  68.9650012  56.1684997  45.4099988  69.7786504  55.5829936  45.5335179
  68.4180012  56.8434997  46.5759988  67.5623009  57.4513099  46.2819871
  67.9580012  55.8244997  47.6219988  68.8092413  55.1843908  47.8538394
  67.6667863  56.3783060  48.5145191  66.7950012  54.9694997  47.1559988
  67.1066481  54.4323390  46.2602112  66.5621816  54.2545864  47.9451731
  65.3240012  55.9394997  46.7829988  64.8740012  56.4574997  48.4349988
  65.6892262  57.0359046  48.8696882  63.9755050  57.0730397  48.3912304
  64.6826810  55.5796368  49.0521329  69.4730012  57.7694997  47.1609988
  70.6300012  57.3764997  47.3379988  69.0600012  58.9954997  47.4669988
  68.1155688  59.2735129  47.2414869  69.9490012  59.9864997  48.0609988
  70.6945990  59.4829661  48.6763336  70.6730012  60.7994997  46.9809988
  69.9321834  61.0454047  46.2201972  71.0230077  61.7159009  47.4561874
  71.8420012  60.0884997  46.3349988  72.5535834  59.8084555  47.1117399
  71.4806560  59.1908433  45.8332570  72.5500012  60.9554997  45.3219988
  72.1350012  62.0824997  45.0579988  73.6240012  60.4334997  44.7419988
  74.1354398  60.9708239  44.0565686  73.9247268  59.5014380  44.9888318
  69.1400012  60.8864997  48.9849988  67.9690012  60.6204997  49.2769988
  69.7760012  61.9604997  49.4469988  70.7474622  62.0793673  49.1975327
  69.1610012  62.9514997  50.3159988  68.1326137  62.6604906  50.5300834
  69.9220012  63.0694997  51.6399988  70.9437454  63.2683455  51.3165820
  69.5344814  63.9380334  52.1725188  69.9090012  61.8534997  52.5699988
  70.2532890  60.9801853  52.0160233  70.8200012  62.0864997  53.7659988
  70.4760470  62.9594405  54.3207678  70.7980654  61.2117613  54.4159621
  71.8395065  62.2554686  53.4193595  68.4950012  61.5314997  53.0239988
  67.8745345  61.3134715  52.1547553  68.5133132  60.6638558  53.6835138
  68.0814618  62.3858753  53.5598405  69.1340012  64.3004997  49.6099988
  70.0140012  64.6024997  48.7969988  68.1240012  65.1044997  49.9209988
  67.4272619  64.8283878  50.5980630  67.9680012  66.3894997  49.2549988
  68.0898897  66.2634210  48.1791983  66.5830012  66.9704997  49.5239988
  65.8223049  66.2393041  49.2505150  66.4893985  67.2127890  50.5825990
  66.2440012  68.4874997  48.6039988  69.0460012  67.3664997  49.7189988
  69.2480012  67.5314997  50.9289988  69.7500012  68.0254997  48.8019988
  69.6260012  67.9294997  47.3379988  68.5831275  68.0671427  47.0523955
  69.9657942  66.9475639  47.0086936  70.5100012  69.0364997  46.8429988
  69.9023617  69.9218238  46.6557170  70.9896549  68.7228764  45.9158127
  71.5220012  69.2864997  47.9069988  71.8099631  70.3373671  47.8777669
  72.4137469  68.6638163  47.8352034  70.7790012  68.9864997  49.2119988
  71.4182180  68.5109329  49.9558646  70.1650012  70.2454997  49.8029988
  69.0160012  70.5924997  49.5199988  70.9510012  70.9334997  50.6309988
  71.8654199  70.5666456  50.8531605  70.5070012  72.1484997  51.3129988
  69.4180474  72.1862986  51.3421548  71.0330012  72.1584997  52.7429988
  70.6317492  73.0401484  53.2427903  70.6578784  71.2607160  53.2342904
  72.5560012  72.1804997  52.8189988  73.2220012  72.1464997  51.7629988
  73.0880012  72.2394997  53.9479988  70.9180012  73.4074997  50.5389988
  71.6200012  74.2884997  51.0339988  70.4370012  73.4904997  49.2989988
  69.8600693  72.7546786  48.9171398  70.7770012  74.6184997  48.4399988
  71.7966936  74.9453153  48.6437586  70.6780012  74.2144997  46.9669988
  69.6609978  73.8541485  46.8122393  70.8402472  75.1110229  46.3686491
  71.6580012  73.1474997  46.5489988  72.8390012  72.9474997  47.2489988
  73.0512130  73.5743113  48.1151239  73.7380012  71.9744997  46.8649988
  74.6612095  71.8225786  47.4242019  73.4630012  71.1934997  45.7649988
  74.3530012  70.2214997  45.3769988  75.1278753  70.1753597  45.9418358
  72.3010012  71.3774997  45.0509988  72.0863659  70.7599152  44.1788625
  71.4070012  72.3484997  45.4439988  70.4843126  72.4987955  44.8835015
  69.8990012  75.8394997  48.6839988  70.4040012  76.9664997  48.7049988
  68.5970012  75.6434997  48.8669988  68.2412113  74.7005069  48.9324021
  67.6480012  76.7434997  48.9209988  68.1874762  77.6905897  48.9302874
  66.7140012  76.7234997  47.7049988  65.9048630  76.0088551  47.8555901
  66.2953404  77.7167980  47.5431913  67.3990012  76.3334997  46.4289988
  68.1970012  77.2384997  45.7519988  68.3241936  78.2429044  46.1558467
  68.8290012  76.8814997  44.5769988  69.4517120  77.6040646  44.0495219
  68.6710012  75.6074997  44.0709988  69.1699048  75.3217265  43.1449702
  67.8800012  74.6944997  44.7389988  67.7520338  73.6879060  44.3408861
  67.2510012  75.0574997  45.9119988  66.6291566  74.3365225  46.4426599
  66.8420012  76.6794997  50.2109988  66.8110012  75.6604997  50.9059988
  66.1860012  77.8004997  50.5249988  66.2430732  78.6136670  49.9286759
  65.4330012  77.9074997  51.7709988  66.0619585  77.6236684  52.6147711
  64.9660012  79.3484997  51.9729988  64.4134620  79.6373297  51.0789199
  64.2946535  79.3531210  52.8317019  66.0990012  80.3364997  52.2099988
  65.6928750  81.2101831  52.7197434  66.8506878  79.8642490  52.8424927
  66.7630012  80.7904997  50.9249988  66.2090012  80.6324997  49.8369988
  67.9590012  81.3534997  51.0449988  68.4474710  81.6747489  50.2214105
  68.3750981  81.4580646  51.9593460  64.2520012  76.9444997  51.7969988
  63.9940012  76.2934997  52.8159988  63.5160012  76.8404997  50.6869988
  63.6796358  77.4298499  49.8832642  62.4010012  75.9004997  50.6399988
  61.7577802  76.0477382  51.5075740  61.5700012  76.1154997  49.3729988
  60.8406585  75.3080122  49.3087925  61.0491145  77.0678688  49.4718426
  62.4150012  76.1314997  48.1199988  63.6570012  76.1444997  48.2399988
  61.8400012  76.1304997  47.0109988  62.8750012  74.4564997  50.7119988
  62.0930012  73.5744997  51.0809988  64.1330012  74.2004997  50.3669988
  64.7109930  74.9309016  49.9764380  64.7020012  72.8714997  50.5039988
  63.9862640  72.1262558  50.1569669  65.9790012  72.7464997  49.6729988
  66.5307829  73.6863643  49.6900496  66.6061813  71.9502467  50.0739057
  65.7370012  72.4164997  48.2279988  64.4920012  72.6084997  47.6549988
  63.6788319  73.0010807  48.2655197  64.2740012  72.3084997  46.3249988
  63.2899171  72.4671539  45.8839681  65.3030012  71.8074997  45.5539988
  65.1340669  71.5670231  44.5043645  66.5460012  71.6114997  46.1139988
  67.3606313  71.2160253  45.5073045  66.7600012  71.9154997  47.4419988
  67.7442074  71.7618504  47.8845254  65.0070012  72.5774997  51.9729988
  65.1780012  73.4814997  52.7959988  65.0710012  71.2864997  52.2979988
  64.7588620  70.5813573  51.6457390  65.5130012  70.8594997  53.6149988
  66.3310385  71.5029374  53.9388846  64.3890012  70.9324997  54.6579988
  64.8151801  70.6631255  55.6243881  64.0428448  71.9655968  54.6894008
  63.2140012  70.0124997  54.3469988  63.2140012  69.3314997  53.3029988
  62.2750012  69.9684997  55.1689988  66.0830012  69.4494997  53.5419988
  65.6780012  68.6774997  52.6619988  67.0560012  69.1154997  54.3829988
  68.1320012  70.0794997  54.6629988  67.7289152  70.9174692  55.2317070
  68.5453281  70.4444973  53.7227666  69.1310012  69.2674997  55.4549988
  69.1712542  69.6727919  56.4660462  70.1069539  69.3754037  54.9817396
  68.6900012  67.8244997  55.4569988  68.2989434  67.5608572  56.4396816
  69.4974853  67.1416967  55.1927090  67.5720012  67.7414997  54.4119988
  67.9344446  67.5101235  53.4104010  66.5390012  66.7064997  54.8279988
  65.3930012  67.0414997  55.1469988  66.9560012  65.4384997  54.8229988
  67.7976378  65.2452667  54.2991589  66.2420012  64.3144997  55.4269988
  66.8756912  63.4278907  55.4055349  65.8680012  64.6144997  56.8839988
  66.7836059  64.7730010  57.4537746  65.2632829  65.5210124  56.9095032
  65.1370012  63.5434997  57.4539988  64.9156530  63.7555677  58.3637416
  64.9980012  63.8754997  54.6549988  63.9920012  63.5084997  55.2709988
  65.0250012  63.9014997  53.3239988  65.7183124  64.4550584  52.8413067
  64.0440012  63.1734997  52.5269988  63.5918137  62.4044738  53.1532774
  62.9300012  64.0734997  51.9739988  62.2079123  63.4197365  51.4848355
  62.4595830  64.5576567  52.8298017  63.4000012  65.1254997  50.9959988
  64.2099217  64.6927401  50.4087606  62.5699745  65.3801676  50.3369850
  63.8900012  66.3664997  51.6859988  64.7080012  66.2284997  52.6119988
  63.4540012  67.4714997  51.3129988  64.7570012  62.4874997  51.3709988
  65.9730012  62.6054997  51.2069988  63.9780012  61.7714997  50.5669988
  62.9802960  61.7393417  50.7207828  64.5340012  60.9774997  49.4849988
  65.5636349  60.7041692  49.7157456  63.7200012  59.6984997  49.2959988
  62.7977441  59.9799763  48.7877547  64.3037582  59.0416943  48.6510690
  63.3830012  58.9684997  50.5939988  62.7101221  59.5976070  51.1767154
  62.8797452  58.0350558  50.3419708  64.6370012  58.6654997  51.4159988
  65.0500343  57.7158514  51.0758947  65.3626896  59.4599412  51.2418193
  64.3260012  58.5794997  52.9059988  63.3827731  58.0459960  53.0234515
  65.1249597  58.0137209  53.3852261  64.2190012  59.9214997  53.5409988
  63.4784374  60.4457667  53.0973671  64.0129110  59.8134182  54.5238239
  65.0930556  60.4158561  53.4326496  64.5760012  61.7694997  48.1779988
  63.7370012  62.6324997  47.9109988  65.5820012  61.4564997  47.3629988
  66.3151641  60.8554455  47.7112879  65.6980012  61.9734997  45.9979988
  64.8192693  62.5663073  45.7440134  66.9460012  62.8364997  45.7939988
  67.8284642  62.2616957  46.0749947  67.0580012  63.2554997  44.3449988
  66.1760495  63.8307855  44.0633810  67.9491197  63.8688246  44.2114290
  67.1296609  62.3692706  43.7144715  66.8990012  64.0594997  46.6909988
  66.8532585  63.7445630  47.7335075  67.7938612  64.6613983  46.5327481
  66.0160710  64.6523017  46.4519990  65.7180012  60.7444997  45.0929988
  66.6880012  59.9804997  45.0779988  64.6450012  60.5464997  44.3329988
  63.9303509  61.2586190  44.2854545  64.4370012  59.3094997  43.5939988
  65.0407730  58.5098235  44.0230405  62.9660012  58.8964997  43.6529988
  62.3625022  59.6648578  43.1697648  62.7570012  57.5694997  42.9449988
  63.3598667  56.8004949  43.4279940  61.7044083  57.2912036  42.9969477
  63.0564954  57.6629131  41.9011225  62.5590012  58.7694997  45.0219988
  61.6354057  58.5101944  45.0585023  64.8770012  59.4614997  42.1439988
  64.4890012  60.4164997  41.4639988  65.6910012  58.5154997  41.6779988
  66.1006213  57.8701901  42.3382156  66.0500012  58.3864997  40.2739988
  65.5269199  59.1513246  39.6999535  67.5570012  58.5534997  40.0529988
  68.0600037  58.0681739  40.8893878  67.8056914  58.0326271  39.1283664
  68.0130012  59.9974997  39.9579988  67.2133971  60.5857348  39.5077614
  68.2121886  60.3661486  40.9642415  69.2700012  60.1234997  39.1149988
  69.7305041  61.0899391  39.3200128  69.9584194  59.3265989  39.3962976
  68.9530012  60.0184997  37.6349988  68.4877773  59.0502009  37.4504322
  68.2529227  60.8126975  37.3756937  70.1790012  60.1464997  36.8009988
  70.8276629  59.4104127  37.0408187  69.9312874  60.0720919  35.8246784
  70.6100066  61.0438536  36.9715545  65.6010012  57.0234997  39.7669988
  65.5700012  56.0434997  40.5159988  65.2490012  56.9674997  38.4859988
  65.3098983  57.8062947  37.9267011  64.7280012  55.7584997  37.8629988
  64.7581103  54.9204862  38.5593651  63.2840012  55.9544997  37.3569988
  63.3018134  56.5954382  36.4755336  62.6580012  54.6174997  36.9979988
  62.6394154  53.9761383  37.8791406  61.6396551  54.7761148  36.6431561
  63.2451845  54.1396791  36.2137779  62.4430012  56.6844997  38.4069988
  62.9538727  57.6188617  38.6395466  61.4760391  56.9027570  37.9537355
  62.2360012  55.8934997  39.6789988  63.2025670  55.6752497  40.1331104
  61.6312762  56.4751069  40.3748005  61.7247350  54.9591433  39.4472986
  65.6470012  55.3584997  36.7179988  66.1360012  56.2144997  35.9719988
  65.8910012  54.0604997  36.5919988  65.5538560  53.4408030  37.3147771
  66.6690012  53.4904997  35.5019988  66.8465198  54.2521024  34.7426914
  68.0210012  52.9764997  36.0049988  68.5463279  53.7797895  36.5215802
  67.8615245  52.1461305  36.6928608  69.1270012  52.3774997  34.7029988
  65.8690012  52.3734997  34.8389988  64.8000012  51.9784997  35.3119988
  66.3950012  51.8674997  33.7299988  67.2466883  52.2555753  33.3503600
  65.7390012  50.7894997  32.9969988  65.1633685  50.1715710  33.6861362
  64.7890012  51.3594997  31.9409988  64.3900048  50.5239104  31.3659408
  63.9743702  51.8645892  32.4599988  65.4740012  52.3364997  31.0039988
  66.2750012  51.8914997  30.1549988  65.2120012  53.5514997  31.1179988
  66.7610012  49.8664997  32.3439988  67.8540012  50.2954997  31.9739988
  70.4810012  55.3264997  28.9639988  70.5093181  56.1484893  28.3777987
  69.1980012  54.6624997  29.1619988  68.5040460  54.9578929  28.3750628
  69.3690012  53.1414997  29.1179988  68.3974063  52.6729381  29.2746918
  69.7512053  52.8644255  28.1355274  70.3300012  52.6294997  30.1739988
  69.9140012  52.1814997  31.2419988  71.6220012  52.6894997  29.8779988
  72.3055979  52.3618302  30.5454027  71.9159399  53.0625645  28.9866383
  68.5560012  55.0874997  30.4789988  67.9800012  54.2684997  31.1949988
  68.6520012  56.3754997  30.7879988  69.1807786  56.9958478  30.1916248
  68.0810012  56.9164997  32.0139988  68.2603633  56.2298385  32.8412985
  68.7210012  58.2594997  32.3479988  69.0239495  58.7704125  31.4340570
  68.0147321  58.8836256  32.8954938  69.9480012  58.1474997  33.2039988
  71.2170012  58.5174997  32.8699988  71.3598259  58.9390980  31.8750336
  72.0750012  58.2644997  33.9119988  73.0679874  58.4490800  33.9148178
  71.3640012  57.7204997  34.9489988  71.7910012  57.3014997  36.2079988
  72.8468497  57.3994918  36.4603476  70.8460012  56.7884997  37.0549988
  71.1417731  56.4498457  38.0479400  69.5030012  56.6874997  36.6759988
  68.7594764  56.2763280  37.3587932  69.0780012  57.1044997  35.4279988
  68.0204323  57.0070819  35.1827264  70.0200012  57.6314997  34.5399988
  66.5630012  57.0264997  31.8659988  65.9720012  56.6174997  30.8629988
  65.9140012  57.5904997  32.8819988  66.4348138  57.9157055  33.6839306
  64.4570012  57.7094997  32.9069988  64.0090662  56.8485519  32.4107907
  63.9470012  57.7644997  34.3409988  64.1464854  56.8193391  34.8459510
  64.4355754  58.5749794  34.8818479  62.4700012  58.0054997  34.4489988
  61.5670012  57.0884997  33.9409988  61.9396548  56.1845039  33.4593133
  60.2060012  57.3084997  34.0389988  59.5046731  56.5787906  33.6343207
  59.7350012  58.4534997  34.6499988  58.6623881  58.6301055  34.7300712
  60.6260012  59.3754997  35.1599988  60.2577320  60.2809358  35.6423507
  61.9860012  59.1504997  35.0589988  62.6902352  59.8783998  35.4618829
  64.0420012  58.9514997  32.1309988  64.0580012  60.0714997  32.6449988
  63.6560012  58.7504997  30.8719988  63.7739932  57.8471181  30.4360183
  63.1110012  59.8364997  30.0719988  63.7093492  60.7362010  30.2155827
  63.1270012  59.4704997  28.5859988  62.5638099  58.5444123  28.4707730
  62.6223353  60.2716269  28.0459918  64.5300012  59.2844997  28.0229988
  65.0540635  60.2373134  28.0978687  65.0429979  58.5395005  28.6312032
  64.5120012  58.8284997  26.5709988  65.5220076  58.5352741  26.2846340
  63.8462331  57.9699549  26.4829460  64.0520012  59.8724997  25.6599988
  63.8765606  60.7871555  26.0507988  63.8550012  59.6904997  24.3569988
  64.0770012  58.5024997  23.8109988  64.3959328  57.7368757  24.3873690
  63.9261210  58.3688325  22.8213181  63.4340012  60.6944997  23.6009988
  63.2630277  61.5987789  24.0171083  63.2861074  60.5506502  22.6122958
  61.6980012  60.1464997  30.5509988  60.7330012  59.5144997  30.1099988
  61.5770012  61.1114997  31.4589988  62.3798001  61.6551208  31.7419991
  60.3000012  61.3794997  32.1039988  59.8988665  60.4606899  32.5317589
  60.4810012  62.4024997  33.2259988  60.8165797  61.8900157  34.1275787
  61.2133267  63.1593618  32.9450024  59.2270012  63.1344997  33.5909988
  58.1330012  62.5084997  34.1479988  58.0795515  61.5206439  34.3514287
  57.1820012  63.3994997  34.3679988  56.2290620  63.0987095  34.8033505
  57.6220012  64.5824997  33.9789988  58.9010012  64.4454997  33.4939988
  59.4415401  65.3184446  33.1280943  59.2830012  61.8844997  31.0819988
  59.5910012  62.7734997  30.2819988  58.0700012  61.3364997  31.0799988
  57.5920012  60.2284997  31.9239988  57.8630877  60.4167941  32.9628239
  58.0470153  59.2946606  31.5938385  56.1120012  60.2514997  31.7029988
  55.6425565  60.9088901  32.4348174  55.7100534  59.2439649  31.8098308
  55.9180012  60.7584997  30.3099988  54.9638317  61.2827256  30.2566431
  55.9464015  59.9783772  29.5492741  57.0670012  61.7454997  30.0889988
  57.5056585  61.6491899  29.0958208  56.6150012  63.1824997  30.3059988
  56.9210012  63.8244997  31.3129988  55.8930012  63.6864997  29.3009988
  55.7637933  63.0908568  28.4956329  55.3520012  65.0444997  29.2529988
  54.7204555  65.1141791  28.3673385  54.4970012  65.3444997  30.4889988
  55.1175885  65.2875075  31.3832712  54.0736322  66.3453468  30.4043582
  53.6908159  64.6143175  30.5596998  56.4590012  66.0824997  29.1059988
  56.1840012  67.2754997  28.9519988  57.7160012  65.6384997  29.1539988
  57.9005801  64.6897365  29.4470489  58.8500012  66.5004997  28.8509988
  58.5176105  67.3499358  28.2542795  59.4880012  67.0284997  30.1429988
  60.4146501  67.5440231  29.8906963  58.7986826  67.7302399  30.6125736
  59.7670012  65.9684997  31.0409988  60.1646663  66.3222659  31.8399429
  59.9220012  65.8204997  28.0159988  60.7770012  66.5244997  27.4699988
  59.9040012  64.4904997  27.8879988  59.1668326  63.9711194  28.3428899
  60.9530012  63.7424997  27.1929988  60.8243520  62.6764945  27.3805662
  60.8950012  63.9834997  25.6849988  59.8846404  64.2932938  25.4179820
  61.5973669  64.7766062  25.4285529  61.2490012  62.7464997  24.8859988
  62.2360012  62.0724997  25.1749988  60.4450012  62.4424997  23.8759988
  60.6354508  61.6275653  23.3105691  59.6459711  63.0273241  23.6769205
  62.3300012  64.0884997  27.7539988  63.2970012  64.2854997  27.0159988
  62.4160012  64.1614997  29.0809988  61.6072777  63.9240283  29.6374815
  63.6200012  64.5984997  29.7669988  64.4213301  64.7305728  29.0399996
  63.3980012  65.9284997  30.4989988  62.5333760  65.7946704  31.1490852
  64.2843248  66.1101584  31.1068891  63.1630012  67.1104997  29.5849988
  62.3761648  66.8581811  28.8741368  62.8500122  67.9654827  30.1842850
  64.4290012  67.4584997  28.8329988  64.7140174  66.6110640  28.2095266
  64.2376447  68.3257449  28.2010432  65.5360012  67.7704997  29.7329988
  66.1655625  67.0175323  29.9713097  65.7630012  68.9744997  30.2489988
  66.7950012  69.1654997  31.0589988  67.4073205  68.3939519  31.2823350
  66.9641365  70.0816762  31.4490159  64.9610012  69.9864997  29.9529988
  64.1763540  69.8406877  29.3339933  65.1378975  70.8991996  30.3476951
  64.0700012  63.5484997  30.7709988  63.2530012  62.8394997  31.3649988
  65.3840012  63.4604997  30.9539988  66.0123420  63.9306261  30.3181777
  65.9600012  62.6624997  32.0329988  65.4221070  61.7189072  32.1246633
  67.4270012  62.3614997  31.7559988  67.7731913  61.6041691  32.4593501
  67.6050012  61.8514997  30.3339988  67.2594335  62.6085281  29.6300169
  68.6589321  61.6411070  30.1521649  67.0243660  60.9388946  30.1994053
  68.2030012  63.5534997  31.9279988  69.1272153  63.3616816  31.7529720
  65.7890012  63.4454997  33.3279988  66.6730012  64.2034997  33.7339988
  64.6450012  63.2634997  33.9819988  64.0071919  62.5469937  33.6659009
  64.2470012  64.0924997  35.1069988  64.9596615  64.9079216  35.2306981
  62.8500012  64.6914997  34.8789988  62.8798984  65.4548332  34.1014852
  62.1734116  63.8921189  34.5768115  62.2420012  65.3334997  36.0859988
  62.4320012  66.6134997  36.5169988  63.1038624  67.2369546  35.9270783
  61.6980012  66.8434997  37.6549988  61.6736334  67.7100279  38.1732984
  61.0060012  65.7054997  37.9749988  60.1350012  65.4504997  39.0309988
  59.9369007  66.2489984  39.7460195  59.5790012  64.2034997  39.1039988
  58.8900973  63.9680143  39.9152066  59.8750012  63.2154997  38.1559988
  59.4277418  62.2239036  38.2252500  60.7400012  63.4654997  37.1069988
  60.9410098  62.6617039  36.3987555  61.3220012  64.7324997  37.0059988
  64.2720012  63.2784997  36.3919988  63.9080012  62.0984997  36.4109988
  64.7090012  63.9264997  37.4679988  64.9910295  64.8905888  37.3626831
  64.8400012  63.3094997  38.7769988  64.6881961  62.2327621  38.7015620
  66.2360012  63.5684997  39.3629988  66.4245914  64.6420197  39.3535774
  66.3370012  63.0494997  40.7869988  66.1489756  61.9758877  40.7971610
  67.3359260  63.2465920  41.1761039  65.5986783  63.5530642  41.4110202
  67.2220012  62.9144997  38.5539988  68.0946569  63.0761682  38.9199708
  63.7640012  63.8584997  39.7039988  63.4560012  65.0534997  39.6709988
  63.1970012  62.9804997  40.5319988  63.5188616  62.0231611  40.5348487
  62.0750012  63.3374997  41.3999988  61.3470021  63.9249275  40.8404945
  61.3880012  62.0824997  41.9249988  61.4739722  61.2966455  41.1745712
  61.8885449  61.7664938  42.8402563  59.9190012  62.3044997  42.2279988
  59.5660012  63.0994997  43.0989988  59.0540012  61.5994997  41.5069988
  58.0624753  61.7072819  41.6662449  59.3919181  60.9590077  40.8029512
  62.5770012  64.2154997  42.5429988  62.9590012  63.7484997  43.6179988
  62.5760012  65.5234997  42.2949988  62.3730723  65.8433348  41.3587164
  62.9080012  66.5174997  43.3079988  63.5281810  66.0656803  44.0821663
  63.6810012  67.6794997  42.6779988  63.2145000  67.8898266  41.7155859
  63.5530662  68.5371983  43.3383667  65.1540012  67.4154997  42.4759988
  65.6170012  66.8144997  41.3149988  64.8980382  66.5314018  40.5462028
  66.9620012  66.5734997  41.1239988  67.3118264  66.1010303  40.2061225
  67.8640012  66.9334997  42.0999988  69.2050012  66.6924997  41.9119988
  69.3961964  66.2722299  41.0703235  67.4300012  67.5324997  43.2619988
  68.1432499  67.8181098  44.0351764  66.0830012  67.7704997  43.4439988
  65.7323611  68.2450603  44.3604833  61.6780012  67.0594997  44.0239988
  61.8080012  67.9954997  44.8199988  60.4980012  66.4994997  43.7539988
  60.4530231  65.6988936  43.1399090  59.2480012  67.0434997  44.2739988
  59.1516519  68.0953308  44.0048011  58.0610012  66.2784997  43.6879988
  57.1360802  66.7474590  44.0237048  58.1150012  66.2954997  42.1689988
  59.0394936  65.8262568  41.8325102  57.2627903  65.7464997  41.7684556
  58.0814990  67.3259515  41.8152372  58.0930012  64.9214997  44.1459988
  57.3474562  64.4418074  43.7776804  59.1640012  67.0154997  45.7939988
  58.4250012  67.8224997  46.3659988  59.8950012  66.1224997  46.4589988
  60.4917387  65.4842044  45.9524587  59.8120012  65.9884997  47.9059988
  58.7982364  66.2063891  48.2420112  60.1710012  64.5584997  48.3269988
  61.0484936  64.2653440  47.7506604  60.4267015  64.5907235  49.3860922
  59.0570012  63.5454997  48.1049988  59.3228543  62.6190538  48.6140381
  58.1348275  63.9414475  48.5303493  58.8230012  63.2424997  46.6389988
  57.7340012  63.4694997  46.1129988  59.8470012  62.7254997  45.9709988
  59.7464353  62.5041499  44.9906967  60.7219799  62.5558636  46.4461169
  60.6950012  66.9744997  48.6579988  60.6330012  67.0174997  49.8909988
  61.5140012  67.7614997  47.9569988  61.6102017  67.6667230  46.9560681
  62.3520012  68.7394997  48.6429988  62.8066967  68.2858050  49.5236305
  63.4640012  69.2274997  47.7159988  63.0301449  69.5720979  46.7773188
  63.9995953  70.0492188  48.1914108  64.7260012  67.9934997  47.3489988
  61.5420012  69.9184997  49.1629988  61.8460012  70.4534997  50.2349988
  60.5140012  70.3394997  48.4259988  60.3029824  69.9012974  47.5408156
  59.7090012  71.4814997  48.8409988  59.9675199  71.7573880  49.8633259
  59.9560012  72.6854997  47.9329988  59.1787598  73.4281628  48.1131280
  60.9290742  73.1125271  48.1756436  59.9420012  72.3174997  46.4669988
  59.7470012  71.1564997  46.1099988  60.1470012  73.3054997  45.6049988
  60.1477539  73.1143067  44.6132607  60.3013192  74.2440649  45.9446781
  58.2260012  71.1384997  48.8599988  57.3780012  72.0314997  48.7599988
  57.8940012  69.8524997  48.9879988  58.5976529  69.1280488  48.9759780
  56.4930012  69.4544997  49.0689988  55.8587637  69.9856427  48.3592600
  56.3480012  67.9414997  48.8219988  56.8537794  67.6877141  47.8903977
  56.9610012  67.1434997  49.9659988  56.4553944  67.3964232  50.8979282
  56.8462099  66.0776824  49.7686237  58.0205769  67.3846786  50.0510493
  54.8880012  67.5624997  48.6109988  54.4944480  68.0975282  47.7467289
  54.8120442  66.4889105  48.4385563  54.3111635  67.8294438  49.4964929
  55.8700012  69.8394997  50.4039988  54.6520012  70.0454997  50.4759988
  56.6720012  69.9674997  51.4569988  57.6614927  69.8110817  51.3283940
  56.1870012  70.2524997  52.7999988  55.1031080  70.3664979  52.7832870
  56.5430012  69.1154997  53.7529988  57.6244842  68.9795357  53.7502753
  56.2137030  69.3847188  54.7565842  55.8890012  67.8044997  53.3639988
  54.8620012  67.7864997  52.6859988  56.4850012  66.6974997  53.7919988
  56.0928998  65.7954591  53.5624795  57.3276103  66.7627773  54.3450354
  56.7400012  71.5774997  53.3109988  57.1240012  71.7064997  54.4749988
  56.7880012  72.5834997  52.4359988  56.5057620  72.4521252  51.4751756
  57.3090012  73.8854997  52.8309988  58.1748867  73.7658435  53.4821699
  57.7320012  74.6854997  51.5969988  58.4404899  74.0937599  51.0173541
  56.5240012  75.0164997  50.7349988  55.8152270  75.6086643  51.3138596
  56.8446457  75.5854979  49.8623435  56.0449094  74.0929597  50.4099672
  58.3690012  75.9014997  52.0089988  58.6338807  76.4024437  51.2340831
  56.3060012  74.6924997  53.6449988  56.6820012  75.7184997  54.2229988
  55.0460012  74.2624997  53.7029988  54.7695703  73.4453777  53.1776446
  54.0250012  74.9764997  54.4569988  54.3938738  75.9634153  54.7363366
  52.7570012  75.1484997  53.6109988  52.4677903  74.2022067  53.1538489
  51.9444396  75.5104166  54.2409668  52.9060012  76.1354997  52.4949988
  53.3320012  75.7764997  51.2349988  53.5731561  74.8359450  50.9569684
  53.3720012  76.8484997  50.4639988  53.6827406  76.7717879  49.4220509
  52.9920012  77.8904997  51.1799988  52.6970012  77.4724997  52.4549988
  52.3649462  78.1936597  53.2018381  53.6520012  74.3164997  55.7729988
  53.2540012  75.0194997  56.7039988  53.7610012  72.9914997  55.8819988
  53.9690762  72.3970667  55.0924080  53.4890012  72.3624997  57.1669988
  52.7236498  72.9271650  57.6994361  52.9890012  70.9264997  56.9679988
  52.7473406  70.5498990  57.9619160  52.0761972  71.0031884  56.3772299
  53.9560012  69.9704997  56.2849988  53.3823348  69.2041934  55.7636712
  54.5227565  70.5552186  55.5604359  54.9130012  69.3094997  57.2609988
  54.6100012  69.2914997  58.4729988  55.9570012  68.7884997  56.8189988
  54.7030012  72.3804997  58.0849988  54.5720012  72.0414997  59.2659988
  55.8720012  72.7694997  57.5749988  55.9485303  72.9073037  56.5773752
  57.0680012  72.9374997  58.3889988  56.9075825  72.5030388  59.3757149
  58.2610012  72.2394997  57.7359988  57.9822563  71.1971617  57.5812989
  58.4280983  72.7174779  56.7707447  59.5340012  72.3054997  58.5599988
  59.6993414  73.3390650  58.8641470  59.4089414  71.6823075  59.4454894
  60.7300012  71.8154997  57.7609988  60.5219530  70.8043613  57.4111215
  60.8675650  72.4748458  56.9040050  61.9930012  71.8094997  58.6019988
  62.8415783  71.6196354  57.9447553  62.1030848  72.7914471  59.0621726
  61.9450012  70.7674997  59.6629988  61.8434302  69.8574876  59.2367816
  62.7999818  70.7942282  60.2000218  61.1590097  70.9434945  60.2723774
  57.3960012  74.4024997  58.6429988  58.3520012  74.6954997  59.3679988
  56.6310012  75.3274997  58.0649988  55.9730813  75.0702586  57.3431485
  56.7870012  76.7404997  58.3859988  57.7809830  76.9732475  58.7680036
  56.5110012  77.6304997  57.1519988  57.0558947  77.2234202  56.3002496
  55.0250012  77.6764997  56.8279988  54.4794598  78.0839294  57.6791666
  54.8621836  78.3097666  55.9558956  54.6673506  76.6687996  56.6165081
  57.0660012  79.0324997  57.3659988  58.1426520  78.9769990  57.5267614
  56.8614866  79.6429580  56.4864454  56.5916501  79.4823936  58.2381727
  55.9030012  77.1534997  59.5579988  56.2640012  78.0874997  60.2909988
  54.7670012  76.4864997  59.7639988  54.4120936  75.8597762  59.0559326
  53.9700012  76.6934997  60.9649988  53.9448162  77.7535746  61.2173994
  52.5330012  76.2104997  60.7339988  52.1670115  76.7376124  59.8529182
  52.5956919  75.1438239  60.5186554  51.5730012  76.4384997  61.8979988
  51.9459563  75.8855803  62.7601388  51.5628073  77.5041009  62.1271106
  50.1600012  75.9764997  61.5719988  49.7985163  76.5444321  60.7147471
  50.1914408  74.9169484  61.3181049  49.2220012  76.1874997  62.7519988
  49.6066111  75.6212694  63.6002671  49.2149669  77.2493969  62.9978116
  47.8360012  75.7404997  62.4449988  47.8422372  74.7564479  62.2176157
  47.2459762  75.8963649  63.2497824  47.4792708  76.2653578  61.6592720
  54.5860012  76.0004997  62.1749988  54.5150012  76.5244997  63.2919988
  55.1960012  74.8304997  61.9699988  55.1364335  74.3593083  61.0786348
  55.9130012  74.1704997  63.0539988  55.2779405  74.0964947  63.9367901
  56.3260012  72.7614997  62.6299988  57.0294338  72.8341760  61.8005406
  56.9810012  72.0244997  63.7859988  56.2779656  71.9510181  64.6157222
  57.2676692  71.0235045  63.4636181  57.8679311  72.5695055  64.1091465
  55.1690012  72.0324997  62.2029988  55.4286929  71.1474822  61.9367197
  57.1290012  74.9824997  63.4769988  57.4360012  75.0784997  64.6709988
  57.8290012  75.5824997  62.5119988  57.5797642  75.4310113  61.5450285
  58.9940012  76.4074997  62.8039988  59.6842903  75.8045684  63.3939768
  59.6880012  76.8134997  61.5049988  59.0123841  77.4254887  60.9074112
  60.5868618  77.3851601  61.7359840  59.9606232  75.9199398  60.9434587
  58.6550012  77.6494997  63.6129988  59.5630012  78.2474997  64.1979988
  57.3910012  78.0544997  63.6559988  56.7105591  77.6152765  63.0525246
  56.9550012  79.1604997  64.4989988  57.8222888  79.7161293  64.8556316
  56.0490012  80.1184997  63.7079988  55.5013418  79.4345084  63.0596744
  55.3568925  80.5886836  64.4065778  56.7260012  81.1974997  62.8559988
  55.9633415  81.7469261  62.3041095  57.5020012  82.1604997  63.7439988
  58.2652034  81.6118388  64.2958977  57.9780083  82.9219236  63.1261383
  56.8191316  82.6381433  64.4465984  57.6310012  80.6104997  61.7819988
  57.0432061  79.9781444  61.1166242  58.0852035  81.4179656  61.2077164
  58.4135608  80.0144560  62.2515000  56.2320012  78.7004997  65.7529988
  56.3450012  79.3524997  66.7939988  55.4830012  77.5974997  65.6839988
  55.2828188  77.1534738  64.7992008  54.8800012  77.0404997  66.8889988
  54.2985393  77.8066494  67.4018495  53.9510012  75.8824997  66.5279988
  54.4970415  75.1779908  65.9006182  53.6392004  75.3845666  67.4461180
  52.7150012  76.3384997  65.7809988  52.6180012  77.4934997  65.3649988
  51.7610012  75.4324997  65.6059988  50.9150107  75.6829448  65.1143920
  51.8854145  74.4967818  65.9652398  55.9520012  76.5834997  67.8689988
  55.8650012  76.8504997  69.0729988  56.9770012  75.8944997  67.3679988
  56.9682409  75.5811440  66.4078786  58.1060012  75.5174997  68.2069988
  57.7487822  75.0781819  69.1383922  58.9750012  74.4894997  67.4839988
  59.0405938  74.8675090  66.4637509  59.9667017  74.4921350  67.9363517
  58.4280012  73.0614997  67.4639988  57.5788689  73.0202314  66.7818168
  59.4930012  72.0804997  67.0059988  60.3423184  72.1208654  67.6880029
  59.0800961  71.0717506  67.0000397  59.8220646  72.3437845  66.0007631
  57.9000012  72.6724997  68.8339988  57.0989603  73.3533088  69.1219778
  57.5151196  71.6532900  68.7996598  58.7064744  72.7313446  69.5649141
  58.9490012  76.7154997  68.6179988  59.6150012  76.6554997  69.6549988
  58.9350012  77.7934997  67.8349988  58.4833875  77.7470771  66.9327852
  59.5960012  79.0344997  68.2129988  60.5331716  78.8144907  68.7242784
  59.9020012  79.8734997  66.9709988  60.7595980  79.4600640  66.4402466
  59.0379468  79.8904489  66.3067527  60.2350012  81.3004997  67.2769988
  61.4540012  81.6334997  67.8349988  62.1753581  80.8454829  68.0512709
  61.7620012  82.9454997  68.1179988  62.7273606  83.1965662  68.5574841
  60.8480012  83.9424997  67.8449988  61.0907638  84.9810842  68.0697393
  59.6300012  83.6254997  67.2889988  58.9055339  84.4105238  67.0722399
  59.3270012  82.3104997  67.0059988  58.3636780  82.0561550  66.5639385
  58.7800012  79.8694997  69.1859988  59.3510012  80.4614997  70.1069988
  57.4590012  79.9394997  68.9989988  57.0295249  79.5816247  68.1578240
  56.6070012  80.5904997  69.9869988  56.9708442  81.5991992  70.1825559
  55.1700012  80.6804997  69.4739988  54.8901137  79.6812903  69.1403181
  54.5449618  80.9691612  70.3190433  54.9720012  81.6634997  68.3419988
  55.9380012  82.6154997  68.0429988  56.8505254  82.6455402  68.6383949
  55.7570012  83.5154997  67.0099988  56.5231436  84.2576466  66.7856204
  54.6000012  83.4714997  66.2619988  54.4150012  84.3644997  65.2319988
  55.1518159  84.9703195  65.1238970  53.6260012  82.5364997  66.5399988
  52.7106914  82.5017000  65.9491540  53.8150012  81.6404997  67.5739988
  53.0488364  80.8986185  67.7991742  56.6510012  79.8444997  71.3129988
  56.5790012  80.4574997  72.3849988  56.7590012  78.5164997  71.2569988
  56.7395912  78.0345994  70.3695898  56.8490012  77.7204997  72.4729988
  56.0216225  77.9578224  73.1417451  56.7800012  76.2374997  72.1189988
  55.9192454  76.1755907  71.4531414  57.6874236  76.0054562  71.5614682
  56.6140012  75.2374997  73.2579988  56.2403367  75.7531531  74.1426327
  55.6280012  74.1594997  72.8469988  56.0012289  73.6430622  71.9626389
  55.5096925  73.4449209  73.6615422  54.6639041  74.6151683  72.6212036
  57.9570012  74.6294997  73.6239988  58.6396805  75.4184433  73.9396191
  57.8241711  73.9173543  74.4384350  58.3722486  74.1157856  72.7569541
  58.1230012  78.0194997  73.2529988  58.0950012  78.0684997  74.4869988
  59.2420012  78.2174997  72.5579988  59.2173952  78.1875331  71.5487436
  60.5280012  78.4244997  73.2119988  60.6766875  77.6761988  73.9904828
  61.6600012  78.2984997  72.1899988  61.5177527  79.0469017  71.4104091
  63.0080012  78.5124997  72.8569988  63.1511746  77.7641284  73.6364482
  63.8003555  78.4190320  72.1143431  63.0410528  79.5081047  73.2994677
  61.6320012  76.9904997  71.6069988  62.3419269  76.9107390  70.9657156
  60.6200012  79.7744997  73.9119988  61.1640012  79.8614997  75.0179988
  60.0860012  80.8294997  73.2999988  59.6323847  80.7137002  72.4050563
  60.2000012  82.1754997  73.8479988  61.2103505  82.3587571  74.2136627
  59.8360012  83.2364997  72.7929988  59.9198464  84.2267600  73.2407206
  60.7710012  83.1394997  71.6019988  60.6873685  82.1496014  71.1534370
  60.5010507  83.8957976  70.8649500  61.7972392  83.3033149  71.9307831
  58.3820012  83.0694997  72.3509988  58.3181090  82.1350232  71.7935292
  57.7754069  82.9957133  73.2536053  57.8710012  84.2044997  71.4919988
  58.4768555  84.2786152  70.5889222  56.8331785  84.0147703  71.2180899
  57.9341556  85.1393062  72.0489980  59.3250012  82.3134997  75.0869988
  59.4550012  83.2784997  75.8469988  58.4320012  81.3544997  75.2979988
  58.2734831  80.6650238  74.5771698  57.6030012  81.3044997  76.4969988
  57.4800545  82.2960678  76.9326316  56.2150012  80.7124997  76.1649988
  56.3509708  79.7444570  75.6828099  55.3900012  80.5374997  77.4259988
  55.2532059  81.5052552  77.9085306  54.4167296  80.1194450  77.1689510
  55.9064531  79.8618819  78.1078472  55.4840012  81.6074997  75.1669988
  56.0936470  81.6544802  74.2646543  54.5320295  81.1289290  74.9371735
  55.2330012  83.0084997  75.6789988  56.1846031  83.4879051  75.9086159
  54.7102822  83.5862582  74.9167264  54.6229871  82.9623536  76.5811369
  58.2870012  80.5224997  77.6099988  58.2670012  80.9344997  78.7709988
  58.9050012  79.3904997  77.2699988  58.9008942  79.0552683  76.3172646
  59.6050012  78.6064997  78.2729988  58.8868745  78.3231686  79.0424900
  59.9929144  77.7092659  77.7907184  60.7530012  79.3534997  78.9209988
  60.9640012  79.2434997  80.1309988  61.5090012  80.1184997  78.1349988
  61.3553973  80.0992129  77.1369340  62.6040012  80.9274997  78.6489988
  62.9990112  80.4798172  79.5609454  63.7310012  81.0134997  77.6189988
  63.3267241  81.3257386  76.6561041  64.4913248  81.7249771  77.9411910
  64.4330012  79.7124997  77.3869988  65.1450012  79.4454997  76.2379988
  65.6550012  78.2274997  76.3119988  66.2521488  77.8247091  75.4939074
  65.3040012  77.6994997  77.4689988  65.5516752  76.7783754  77.8010945
  64.5400012  78.6074997  78.1609988  64.1525852  78.3539977  79.1477849
  62.1510012  82.3224997  79.0559988  62.9810012  83.1534997  79.4369988
  60.8530012  82.5984997  78.9749988  60.2149271  81.9300890  78.5673372
  60.3160012  83.8504997  79.4619988  61.1299752  84.5675435  79.5687395
  59.5910089  84.2292209  78.7415435  59.6340012  83.6764997  80.8019988
  59.7680012  84.5164997  81.6939988  58.8950012  82.5744997  80.9509988
  58.7191743  81.9517674  80.1755062  58.2720012  82.2734997  82.2339988
  57.8022888  83.1699699  82.6387340  57.2010012  81.1964997  82.0609988
  57.6924990  80.4567027  81.4291526  57.0049405  80.7631624  83.0417531
  55.8810012  81.6184997  81.4179988  56.0733138  81.9627510  80.4018257
  54.9160012  80.4474997  81.3809988  54.7228302  80.1029703  82.3969138
  53.9795597  80.7621389  80.9203685  55.3516367  79.6352666  80.7991057
  55.2760012  82.7944997  82.1619988  55.9670171  83.6370127  82.1342837
  54.3365392  83.0800701  81.6887526  55.0892408  82.5123724  83.1981569
  59.3060012  81.8284997  83.2589988  59.1860012  82.1464997  84.4489988
  60.3250012  81.0874997  82.8169988  60.4037203  80.8410109  81.8407068
  61.3170012  80.5564997  83.7469988  60.8232917  79.9881700  84.5352574
  62.2820012  79.6314997  83.0099988  62.5962260  80.1160690  82.0855776
  63.1526558  79.4564700  83.6419996  61.6620012  78.3934997  82.7069988
  62.2851600  77.8282385  82.2446648  62.0740012  81.6774997  84.4459988
  62.2800012  81.6344997  85.6629988  62.4880012  82.6974997  83.6909988
  62.3762944  82.6863003  82.6872580  63.1990012  83.8204997  84.2959988
  64.0550818  83.4726688  84.8741327  63.6780012  84.7994997  83.2089988
  62.8125158  85.1668826  82.6575776  64.4150012  85.9714997  83.8329988
  65.2809397  85.6049199  84.3842432  64.7457904  86.6524637  83.0488003
  63.7480233  86.4995374  84.5144793  64.5790012  84.0734997  82.2089988
  65.2793071  83.4688699  82.7852758  63.9404030  83.4207104  81.6138870
  65.3480012  84.9984997  81.2919988  65.9872152  85.6513282  81.8864062
  65.9634265  84.4085307  80.6128173  64.6483105  85.6031706  80.7150188
  62.3180012  84.5084997  85.3289988  62.7940012  84.9484997  86.3819988
  61.0170012  84.6064997  85.0479988  60.6560613  84.3789573  84.1325501
  60.0880012  85.1124997  86.0509988  60.4458367  86.0785084  86.4072010
  58.7020012  85.3014997  85.4369988  58.3264391  84.3411077  85.0838692
  58.0224873  85.7024808  86.1890462  58.7667391  85.9959555  84.5993596
  60.0170012  84.1824997  87.2549988  59.9470012  84.6434997  88.3999988
  60.0390012  82.8684997  87.0169988  60.0952956  82.5190279  86.0710602
  59.9220012  81.9044997  88.1039988  59.1668747  82.2350068  88.8171946
  59.5080012  80.5424997  87.5509988  58.5084398  80.6278398  87.1247437
  60.2118928  80.2539279  86.7703817  59.5040012  79.5594997  88.5689988
  59.2411108  78.7145188  88.1968486  61.2030012  81.7544997  88.9129988
  61.1400012  81.2724997  90.0489988  62.3530012  82.1404997  88.3669988
  62.3783962  82.4350358  87.4012333  63.6090012  82.0844997  89.1059988
  63.5512383  81.3148794  89.8757047  64.7690012  81.7484997  88.1639988
  64.8018055  82.6006579  87.4851399  65.6840613  81.7204780  88.7555896
  64.6460012  80.4574997  87.3549988  63.8637388  80.5828682  86.6063672
  65.9570012  80.1314997  86.6659988  66.7397028  80.0055223  87.4140674
  65.8486365  79.2091284  86.0953946  66.2263112  80.9451975  85.9925982
  64.2120012  79.3104997  88.2449988  63.2443709  79.5415713  88.6904165
  64.1299699  78.4001217  87.6512108  64.9490246  79.1635494  89.0344929
  63.9000012  83.3794997  89.8519988  64.3940012  83.3434997  90.9809988
  63.5990012  84.5274997  89.2419988  63.2838697  84.5464658  88.2826074
  63.7900012  85.7974997  89.9319988  64.8087936  85.8618004  90.3141330
  63.5530012  86.9654997  88.9729988  62.8509009  86.5581082  88.2455465
  63.0730326  87.7710136  89.5287662  64.7830012  87.5114997  88.2439988
  64.4664981  88.2779205  87.5365203  65.7620012  88.1134997  89.2379988
  66.0793322  87.3475103  89.9455722  66.6316945  88.4976907  88.7049590
  65.2782520  88.9277518  89.7775176  65.4650012  86.4374997  87.4139988
  64.7667022  86.0545893  86.6697826  66.3336793  86.8628728  86.9114480
  65.7846905  85.6232856  88.0643472  62.8890012  85.9264997  91.1509988
  63.3060012  86.5094997  92.1559988  61.6630012  85.4024997  91.0849988
  61.2689164  85.0924336  90.2082687  60.8210012  85.3584997  92.2759988
  60.8384615  86.3092405  92.8088085  59.3700012  85.0084997  91.8989988
  59.0449522  85.6799355  91.1042551  59.2580012  83.5684997  91.4229988
  59.5824618  82.8964042  92.2174254  58.2219368  83.3504742  91.1638921
  59.8892159  83.4250370  90.5460235  58.4350012  85.2514997  93.0839988
  58.6654104  84.4998586  93.8390141  58.6606354  86.2424742  93.4779000
  56.9680012  85.1734997  92.7269988  56.7414947  84.1825912  92.3334317
  56.3666042  85.3563855  93.6174894  56.7367202  85.9252058  91.9723154
  61.3990012  84.3834997  93.2949988  61.2410012  84.5644997  94.5079988
  62.0840012  83.3404997  92.8219988  62.1529509  83.1791490  91.8273575
  62.6970012  82.3714997  93.7239988  62.0673792  82.2290781  94.6022877
  62.8600012  81.0254997  93.0159988  61.8735045  80.5896992  92.8578798
  63.3421270  81.1911491  92.0525596  63.6470012  80.1414997  93.7909988
  63.7366487  79.3045445  93.3294046  64.0420012  82.8724997  94.2389988
  64.3460012  82.7524997  95.4299988  64.8640012  83.4304997  93.3499988
  64.6345935  83.4543656  92.3666871  66.1530012  83.9684997  93.7729988
  66.7055896  83.2155226  94.3349336  66.9800012  84.3704997  92.5499988
  67.0307872  83.4472091  91.9728901  66.4079933  85.1141724  91.9951494
  68.3940012  84.8954997  92.7959988  68.3455031  85.7269646  93.4991452
  69.2770012  83.8014997  93.3669988  69.3263616  82.9698277  92.6641588
  70.2797717  84.1941340  93.5354932  68.8600518  83.4535719  94.3120913
  68.9900012  85.4524997  91.5139988  68.3689367  86.2707454  91.1495095
  69.9967431  85.8210229  91.7108806  69.0324564  84.6658488  90.7606881
  65.9800012  85.1544997  94.7089988  66.8540012  85.4244997  95.5419988
  64.8610012  85.8704997  94.5929988  64.1468737  85.6310122  93.9201191
  64.6440012  87.0274997  95.4459988  65.4999680  87.6943409  95.3423521
  63.7428808  87.5384289  95.1068339  64.4810012  86.6574997  96.9069988
  65.0280012  87.3204997  97.7929988  63.7290012  85.5884997  97.1819988
  63.3071070  85.0393537  96.4467822  63.4290012  85.2384997  98.5649988
  63.1447584  86.1233136  99.1345683  62.2960012  84.1964997  98.6359988
  61.9902805  84.0754772  99.6752239  61.1060012  84.6474997  97.8079988
  61.4108540  84.7682992  96.7684927  60.3154326  83.8996380  97.8696829
  60.7361629  85.5988103  98.1905257  62.7840012  82.8304997  98.1589988
  62.9610330  82.9029586  97.0859143  63.7248772  82.6231220  98.6687500
  61.8070012  81.7134997  98.4329988  60.8659711  81.9199580  97.9231584
  62.2185273  80.7724641  98.0680365  61.6298134  81.6401230  99.5059947
  64.6580012  84.7344997  99.3059988  64.6380012  84.6494997 100.5389988
  65.7290012  84.3904997  98.5939988  65.6884098  84.3833294  97.5848406
  66.9610012  83.9494997  99.2399988  66.7337948  83.4987513 100.2060745
  67.6710012  82.9084997  98.3689988  67.7913491  83.2910998  97.3554739
  68.6500191  82.6741440  98.7869717  66.9320012  81.6084997  98.2519988
  66.0480012  81.2074997  99.2369988  65.8924385  81.8491227 100.1043049
  65.3660012  80.0104997  99.1319988  64.6713520  79.7054900  99.9146432
  65.5660012  79.2004997  98.0329988  65.0303843  78.2551774  97.9459344
  66.4450012  79.5884997  97.0439988  66.6040041  78.9510371  96.1742519
  67.1240012  80.7854997  97.1559988  67.8207908  81.0918956  96.3758028
  67.8860012  85.1274997  99.5339988  68.4210012  85.2464997 100.6409988
  68.0800012  86.0064997  98.5489988  67.6435466  85.8761330  97.6475492
  68.9740012  87.1444997  98.7259988  69.9180792  86.8151452  99.1599820
  69.2600012  87.7984997  97.3709988  69.2872767  87.0324793  96.5960355
  68.4894916  88.5309197  97.1302170  70.5770012  88.5224997  97.3069988
  70.7020012  89.8124997  97.7959988  69.8316838  90.3013650  98.2337868
  71.9110012  90.4794997  97.7339988  71.9951838  91.4932438  98.1255813
  73.0120012  89.8614997  97.1759988  73.9674347  90.3836932  97.1253970
  72.9000012  88.5774997  96.6809988  73.7665427  88.0848472  96.2399778
  71.6890012  87.9174997  96.7449988  71.5982097  86.9056872  96.3499136
  68.4150012  88.1804997  99.6929988  69.1900012  88.9284997 100.2979988
  67.0950012  88.2414997  99.8579988  66.5026533  87.5755497  99.3828840
  66.4610012  89.2814997 100.6609988  67.1388960  90.1268034 100.7794021
  65.1830012  89.7714997  99.9719988  65.4894457  90.3193136  99.0808810
  64.6169718  88.8876678  99.6778015  64.3170012  90.6594997 100.8359988
  64.7430012  91.9284997 101.2079988  65.7168408  92.2786481 100.8657533
  63.9550012  92.7424997 101.9979988  64.3010666  93.7367778 102.2804021
  62.7250012  92.2934997 102.4269988  61.9380012  93.1014997 103.2149988
  62.3429339  93.9513901 103.4029227  62.2800012  91.0374997 102.0729988
  61.3081716  90.6805971 102.4139802  63.0740012  90.2294997 101.2809988
  62.7273341  89.2362986 100.9955630  66.1270012  88.8364997 102.0779988
  66.2130012  89.6444997 103.0089988  65.7530012  87.5704997 102.2709988
  65.7421003  86.9073989 101.5092390  65.2850012  87.1274997 103.5809988
  64.5814432  87.8519017 103.9913001  64.5780012  85.7774997 103.4539988
  65.0206464  85.1971137 102.6444825  64.6628889  85.2214134 104.3876272
  63.1140012  85.8874997 103.1519988  62.5650012  87.0924997 102.7489988
  63.2110781  87.9650434 102.6522937  61.2180012  87.1974997 102.4709988
  60.7974645  88.1525474 102.1561442  60.4030012  86.0914997 102.5919988
  59.3384683  86.1700675 102.3713253  60.9370012  84.8844997 102.9929988
  60.2953825  84.0088294 103.0911169  62.2850012  84.7864997 103.2699988
  62.7085370  83.8331908 103.5860992  66.4310012  87.0394997 104.5809988
  66.3790012  87.6444997 105.6579988  67.4680012  86.2704997 104.2479988
  67.4140689  85.8006841 103.3555505  68.6170012  85.9944997 105.1079988
  69.2980633  85.3210644 104.5876734  69.3790012  87.2754997 105.4749988
  68.6622949  88.0959191 105.4383466  69.7380378  87.1527676 106.4968253
  70.5510012  87.5864997 104.5609988  71.2258501  88.2669322 105.0803169
  71.0741915  86.6566533 104.3379303  70.0850012  88.2264997 103.2679988
  70.9065149  88.2011418 102.5520581  69.2459052  87.6504111 102.8779482
  69.6510012  89.6664997 103.4899988  68.7683603  89.6621890 104.1295511
  70.4614269  90.1934102 103.9936599  69.3320012  90.3554997 102.2089988
  68.5807735  89.8676582 101.7423431  69.0490090  91.3061536 102.3994521
  70.1498685  90.3599799 101.6164011  68.2400012  85.2404997 106.3789988
  69.1040012  85.0094997 107.2329988  66.9760012  84.8504997 106.5299988
  66.2756464  85.1339053 105.8597124  66.5520012  84.0654997 107.6819988
  67.0039917  84.4629601 108.5907501  65.0280012  84.1244997 107.8269988
  64.7415185  85.1386948 108.1052705  64.5747621  83.8693663 106.8690941
  64.5780012  83.2184997 108.8179988  63.6223318  83.2729147 108.8910389
  67.0030012  82.6164997 107.6019988  67.0480012  81.9384997 108.6329988
  67.3370012  82.1304997 106.4089988  67.1726449  82.6866092 105.5820595
  67.8800012  80.7854997 106.2419988  68.2273117  80.4139901 107.2060813
  66.8230012  79.8194997 105.6969988  67.3049905  78.8594459 105.8816127
  65.9675431  79.9300862 106.3633787  66.3470012  79.8804997 104.2399988
  67.2115163  79.9944038 103.5859802  65.6030012  78.6064997 103.8779988
  64.7380304  78.4921419 104.5313338  65.2700698  78.6615784 102.8415511
  66.2663008  77.7503422 104.0009965  65.4670012  81.0954997 103.9909988
  66.0302056  82.0032237 104.2076488  65.1481947  81.1063979 102.9487201
  64.5909574  81.0489799 104.6379008  69.0830012  80.8944997 105.3169988
  68.9780012  81.4504997 104.2199988  70.2350012  80.3994997 105.7759988
  70.2779778  79.9597698 106.6842333  71.4720012  80.5404997 105.0169988
  71.2385977  80.6708697 103.9602937  72.2730012  81.7534997 105.4939988
  71.8185986  82.6556398 105.0844126  72.2360114  81.7908044 106.5827320
  73.6230012  81.6704997 105.0699988  74.1039470  82.4410281 105.3807671
  72.3320012  79.2854997 105.0969988  73.5640012  79.3764997 105.1059988
  71.7130012  78.1114997 105.1189988  70.7091811  78.0361146 105.2012280
  72.5000012  76.8854997 105.1189988  73.2218827  76.9221598 105.9348678
  71.6180012  75.6494997 105.3019988  72.2413725  74.7588619 105.3811932
  71.0180067  75.7539632 106.2059866  70.4540012  75.3274997 103.9639988
  69.9247083  74.2318154 104.5008632  73.3310012  76.7794997 103.8489988
  73.0640012  77.4584997 102.8589988  74.3250012  75.9044997 103.8569988
  74.5518601  75.3818075 104.6909216  75.2070012  75.7814997 102.7029988
  75.5811194  76.7681020 102.4295933  76.3990012  74.8724997 103.0009988
  76.0484293  74.0780218 103.6597882  76.7266466  74.4413030 102.0550506
  77.5610012  75.5964997 103.6559988  77.8594304  76.4267181 103.0158596
  77.2321970  75.9823627 104.6209338  78.7620012  74.6994997 103.8769988
  79.8910012  75.1724997 103.9939988  78.5240012  73.3954997 103.9349988
  79.2884834  72.7517246 104.0806766  77.5794437  73.0526427 103.8332069
  74.4570012  75.3454997 101.4539988  74.8300012  75.6954997 100.3399988
  73.4170012  74.5484997 101.6269988  73.1692188  74.1753819 102.5322536
  72.6390012  74.1374997 100.4799988  73.2907765  73.6659169  99.7445412
  71.5600012  73.1374997 100.8879988  72.0400682  72.3794040 101.5068087
  70.8257031  73.6801354 101.4833583  70.8650012  72.4674997  99.7149988
  70.6939606  73.2152041  98.9405414  71.5173126  71.6854120  99.3265007
  69.5380012  71.8584997 100.1319988  69.7246331  71.0218559 100.8052704
  68.9445401  72.6136118 100.6474685  68.7810012  71.3734997  98.9819988
  69.2484987  71.3788729  98.0867242  67.5290012  70.9314997  99.0409988
  66.8840012  70.9094997 100.1989988  67.3469072  71.2298770 101.0375549
  65.9326682  70.5724612 100.2373422  66.9200012  70.5094997  97.9399988
  67.4108353  70.5253012  97.0574274  65.9684836  70.1744742  97.9897078
  72.0120012  75.3344997  99.7849988  72.0270012  75.3974997  98.5579988
  71.5080012  76.3144997 100.5319988  71.3789997  76.2358880 101.5306369
  71.0400012  77.5244997  99.8679988  70.4206223  77.2829131  99.0042251
  70.2310012  78.3884997 100.8539988  70.8881084  78.7076587 101.6629783
  69.6570012  79.6104997 100.1559988  68.9993781  79.2921171  99.3471322
  69.0898448  80.2055057 100.8718215  70.4695367  80.2115084  99.7477418
  69.1080012  77.5604997 101.4819988  69.5775726  76.8008893 102.1069752
  68.5217080  78.2334690 102.1076761  68.2010012  76.8924997 100.4729988
  68.7865459  76.2189777  99.8472149  67.4311058  76.3248044 100.9955717
  67.7306828  77.6515580  99.8479140  72.2090012  78.2944997  99.2729988
  72.0580012  78.9784997  98.2519988  73.3880012  78.1954997  99.8889988
  73.4827820  77.6771726 100.7506559  74.5610012  78.8864997  99.3649988
  74.3717444  79.9586757  99.3128490  75.7620012  78.6464997 100.2789988
  76.1241999  77.6294954 100.1286169  76.8760012  79.6324997  99.9649988
  76.5146676  80.6497772 100.1156110  77.7230679  79.4468486 100.6253856
  77.1900182  79.5087332  98.9285743  75.3630012  78.8124997 101.6459988
  76.1174894  78.6617244 102.2201195  74.8830012  78.4454997  97.9439988
  75.4220012  79.2314997  97.1569988  74.5600012  77.2014997  97.5969988
  74.2071317  76.5567393  98.2897228  74.7660012  76.7124997  96.2389988
  75.5634001  77.2771885  95.7559039  75.1610012  75.2374997  96.2679988
  74.3204217  74.7278215  96.7389059  75.2800560  74.8740200  95.2473085
  76.4350012  74.9554997  97.0599988  76.3302800  75.3737999  98.0610778
  76.6770012  73.4694997  97.1589988  76.7822945  73.0505370  96.1582578
  77.5892528  73.2864502  97.7267933  75.8345283  72.9964753  97.6635656
  77.6200012  75.6514997  96.4159988  77.4438705  76.7270033  96.3967820
  78.5217990  75.4417538  96.9912106  77.7466084  75.2863189  95.3968263
  73.5370012  76.9094997  95.3609988  73.6730012  77.1564997  94.1569988
  72.3370012  76.8024997  95.9359988  72.2294553  76.4505191  96.8765533
  71.1350012  77.1414997  95.1829988  71.1018568  76.5635720  94.2594186
  69.8860012  76.8244997  96.0019988  70.0563149  77.0865688  97.0462268
  69.0296167  77.3822228  95.6229861  69.4990012  75.3794997  95.9809988
  69.1850012  74.7104997  94.8189988  69.1848243  75.1261749  93.8985023
  68.8890012  73.4554997  95.1039988  68.6093408  72.7586584  94.3138714
  69.0030012  73.2854997  96.4099988  69.3850012  74.4744997  96.9809988
  69.5345196  74.5382933  98.0588094  71.1360012  78.6064997  94.7729988
  70.4910012  78.9754997  93.7869988  71.8520012  79.4514997  95.5139988
  72.2780338  79.1309446  96.3718099  72.0030012  80.8534997  95.1499988
  71.0235177  81.2929384  94.9613061  72.6780012  81.6314997  96.2789988
  73.4387482  80.9799558  96.7089450  73.1571489  82.5010508  95.8291118
  71.7270012  82.0864997  97.3699988  71.0155940  81.2859822  97.5729088
  72.3016147  82.2984140  98.2716715  70.9770012  83.3324997  96.9449988
  70.4608008  83.1279829  96.0070174  70.2462310  83.5812504  97.7145424
  71.9260012  84.4974997  96.7549988  72.6006364  84.2580493  95.9330308
  71.3381796  85.3784211  96.4970404  72.7200012  84.7734997  97.9839988
  73.2650915  83.9574875  98.2229559  73.3383909  85.5543955  97.8169781
  72.0950752  84.9958203  98.7456680  72.8090012  80.9784997  93.8639988
  72.7590012  82.0114997  93.1889988  73.5550012  79.9354997  93.5229988
  73.6169478  79.1475528  94.1518085  74.3420012  79.9044997  92.2969988
  74.4024585  80.9043543  91.8671909  75.7620012  79.4134997  92.5959988
  75.7031171  78.5690011  93.2826240  76.2263769  79.0915579  91.6638997
  76.6270012  80.4864997  93.2219988  76.6020012  81.6414997  92.8029988
  77.4010012  80.1074997  94.2329988  77.9987843  80.7825858  94.6879865
  77.3881069  79.1460137  94.5419960  73.7240012  79.0374997  91.2139988
  73.8020012  79.3894997  90.0349988  73.1130012  77.9084997  91.5809988
  73.1193115  77.5961666  92.5414713  72.4710012  77.0604997  90.5819988
  73.1849314  76.7989036  89.8009928  71.9650012  75.7734997  91.2319988
  72.8673392  75.1852614  91.3989151  71.5130989  76.0248615  92.1915307
  70.9740012  74.9604997  90.3999988  70.1998647  75.6256214  90.0173415
  71.6850012  74.2934997  89.2399988  72.4590288  73.6278227  89.6219074
  70.9671582  73.7177349  88.6557924  72.1410023  75.0544538  88.6066647
  70.2710012  73.9284997  91.2629988  69.7292830  74.4319604  92.0637285
  69.5697243  73.3601375  90.6520352  71.0084537  73.2512680  91.6938351
  71.3310012  77.7954997  89.8909988  71.1750012  77.7074997  88.6679988
  70.5220012  78.5274997  90.6599988  70.5843836  78.4928120  91.6674731
  69.4830012  79.3554997  90.0599988  68.8506941  78.7479193  89.4125939
  68.6110012  79.9784997  91.1489988  69.2395050  80.3896053  91.9389825
  67.9937219  80.7714922  90.7268268  67.6750012  79.0104997  91.8059988
  67.2630012  77.8674997  91.1459988  67.6278940  77.6741516  90.1372522
  66.4000012  76.9764997  91.7499988  66.0827152  76.0795445  91.2181137
  65.9390012  77.2204997  93.0259988  65.2581243  76.5175523  93.5059692
  66.3410012  78.3564997  93.6949988  65.9782244  78.5539410  94.7037158
  67.2040012  79.2444997  93.0859988  67.5228649  80.1433947  93.6136479
  70.0890012  80.4384997  89.1809988  69.5700012  80.7334997  88.0979988
  71.1920012  81.0424997  89.6289988  71.5871572  80.8048033  90.5275818
  71.8200012  82.1084997  88.8579988  71.0902226  82.8879637  88.6390049
  72.9700012  82.7254997  89.6489988  72.6102185  83.0820270  90.6141640
  73.7579595  81.9887229  89.8051452  73.6090012  83.8994997  88.9689988
  72.9900012  85.1364997  88.9679988  72.0292200  85.2509023  89.4699066
  73.5750012  86.2194997  88.3409988  73.0774139  87.1892710  88.3481459
  74.7910012  86.0724997  87.7049988  75.2548216  86.9245428  87.2080148
  75.4200012  84.8434997  87.6989988  76.3812035  84.7235640  87.1991932
  74.8290012  83.7644997  88.3279988  75.3234032  82.7930858  88.3233509
  72.3190012  81.6094997  87.5099988  72.2410012  82.3364997  86.5129988
  72.8440012  80.3834997  87.4579988  72.9713093  79.8317646  88.2943482
  73.3090012  79.8334997  86.1889988  74.0228735  80.5149423  85.7262663
  73.9970012  78.4894997  86.4209988  74.4751219  78.1744828  85.4934945
  74.7536235  78.6109604  87.1961568  73.0600012  77.5074997  86.8259988
  73.5121517  76.6723231  86.9661406  72.1590012  79.6844997  85.2019988
  72.2960012  80.0114997  84.0169988  71.0120012  79.1904997  85.6719988
  70.9284040  78.8750966  86.6278396  69.8630012  79.0284997  84.7869988
  70.1648359  78.5069411  83.8787192  68.7720012  78.2124997  85.4789988
  68.7485764  78.4581792  86.5406918  67.7984958  78.4231818  85.0362794
  68.9740012  76.7264997  85.3859988  70.2320012  76.1724997  85.5349988
  71.0823694  76.8271755  85.7257164  70.4180012  74.8094997  85.4449988
  71.4147337  74.3855692  85.5670964  69.3450012  73.9844997  85.2009988
  69.4896002  72.9064436  85.1303857  68.0880012  74.5214997  85.0459988
  67.2366889  73.8694379  84.8505940  67.9050012  75.8864997  85.1379988
  66.9092685  76.3124196  85.0146759  69.3190012  80.3764997  84.3349988
  68.8770012  80.5224997  83.1899988  69.3350012  81.3734997  85.2229988
  69.5913761  81.2083966  86.1858654  68.9070012  82.7164997  84.8409988
  67.9072821  82.7118015  84.4066730  68.9080012  83.6524997  86.0629988
  69.8601296  83.5550558  86.5845881  68.7160012  85.0934997  85.6259988
  67.7638018  85.1918315  85.1047041  68.7190312  85.7427199  86.5015583
  69.5271092  85.3821332  84.9574959  67.8240012  83.2484997  87.0379988
  67.9993022  82.2265091  87.3740151  67.8379796  83.9200922  87.8964088
  66.8526235  83.3074122  86.5470246  69.7990012  83.2554997  83.7299988
  69.3170012  83.8014997  82.7299988  71.1140012  83.1024997  83.8869988
  71.4974160  82.7147763  84.7371535  72.0370012  83.5574997  82.8589988
  71.8043915  84.5845136  82.5775127  73.4730012  83.5074997  83.3819988
  73.5368699  83.9875048  84.3585309  73.8103813  82.4741877  83.4628761
  74.6790012  84.3474997  82.3309988  75.7355328  84.0860505  83.0953832
  71.9160012  82.7454997  81.5769988  72.2220012  83.2634997  80.4989988
  71.4720012  81.4904997  81.6669988  71.2876901  81.0699155  82.5665752
  71.2960012  80.6724997  80.4719988  72.1366382  80.8174320  79.7934539
  71.2260012  79.1914997  80.8549988  72.2019923  78.9062270  81.2476309
  70.4681608  79.0440121  81.6244307  70.8980012  78.2964997  79.6729988
  70.2540012  77.2594997  79.8289988  71.3640012  78.6784997  78.4909988
  71.1743262  78.1188066  77.6719341  71.9062815  79.5272402  78.4156843
  70.0440012  81.0824997  79.7039988  70.0890012  81.3074997  78.4909988
  68.9100012  81.1784997  80.3989988  68.8878565  80.9601724  81.3848700
  67.6590012  81.5344997  79.7419988  67.5176208  80.9203044  78.8526872
  66.4830012  81.3014997  80.6879988  66.7565910  81.6548811  81.6821665
  65.6237857  81.8661091  80.3259697  66.1510012  79.9254997  80.7509988
  65.4109605  79.8019875  81.3499014  67.6430012  82.9714997  79.2439988
  66.7650012  83.3214997  78.4489988  68.5790012  83.8074997  79.6879988
  69.2247381  83.5318159  80.4140302  68.6340012  85.1784997  79.1989988
  67.6791166  85.5184905  78.7981237  69.0640012  86.1364997  80.3249988
  68.5140882  85.8828034  81.2312731  70.5550012  86.0244997  80.5899988
  71.1056266  86.2785141  79.6842454  70.8350450  86.7106526  81.3892922
  70.7961146  85.0038202  80.8869489  68.6780012  87.5684997  79.9849988
  67.5972680  87.6339171  79.8591481  68.9900012  88.2309228  80.7924338
  69.1698247  87.8679440  79.0595024  69.5540012  85.3064997  77.9869988
  69.4060012  86.2444997  77.1969988  70.4970012  84.3834997  77.8109988
  70.6785854  83.6763687  78.5089188  71.3590012  84.4324997  76.6359988
  71.4103212  85.4250742  76.1884932  72.7870012  83.9774997  76.9889988
  73.1566015  84.5885792  77.8124528  72.8040012  82.5154997  77.3969988
  72.4349434  81.9037091  76.5738283  73.8236561  82.2178158  77.6415159
  72.1656259  82.3736608  78.2690426  73.7410012  84.2364997  75.8299988
  73.7585860  85.3027819  75.6045326  74.7433933  83.9068502  76.1032037
  73.4046247  83.6854587  74.9517587  70.7820012  83.6034997  75.4909988
  71.0190012  83.9184997  74.3209988  70.0160012  82.5544997  75.7999988
  69.9119213  82.2407290  76.7543649  69.3550012  81.7934997  74.7459988
  70.0778505  81.5027104  73.9837458  68.7230012  80.5284997  75.3279988
  68.0945380  80.8031799  76.1751617  67.8800012  79.8264997  74.2799988
  68.5079139  79.5510811  73.4326677  67.4375654  78.9283054  74.7108082
  67.0880095  80.4950445  73.9425116  69.7540012  79.6394997  75.7719988
  69.3565810  78.8456091  76.1372321  68.3050012  82.6394997  74.0389988
  68.1980012  82.6114997  72.8069988  67.5280012  83.4134997  74.8029988
  67.6070054  83.3846644  75.8094908  66.4910012  84.2554997  74.2139988
  65.9256217  83.7189721  73.4520385  65.5280012  84.7664997  75.3029988
  65.3286810  83.9566827  76.0048309  66.1330012  85.9444997  76.0479988
  66.3321832  86.7549438  75.3468516  65.4358328  86.2887563  76.8118995
  67.0656110  85.6360575  76.5204409  64.1810012  85.1464997  74.6869988
  63.5785223  85.5957267  75.4765018  64.3762191  85.8885613  73.9128321
  63.4340012  83.9774997  74.0869988  63.2380020  83.2351784  74.8607192
  62.4888397  84.3250863  73.6699225  64.0357004  83.5280113  73.2970506
  67.0570012  85.4244997  73.4259988  66.3470012  85.9914997  72.5869988
  68.3130012  85.8064997  73.6619988  68.7992982  85.4634096  74.4780280
  68.9810012  86.7934997  72.8239988  68.2608889  87.3375779  72.2128389
  69.7960012  87.7904997  73.6649988  70.1404725  88.5997223  73.0211055
  68.9430012  88.3624997  74.7839988  68.5985184  87.5538648  75.4286242
  69.5349061  89.0660861  75.3694178  68.0825594  88.8786215  74.3581380
  71.0530012  87.1254997  74.2249988  70.7461493  86.5072066  75.0685961
  71.4628667  86.4902976  73.4397420  72.1080012  88.1094997  74.6789988
  71.6989891  88.7447877  75.4646310  72.9707303  87.5660127  75.0642513
  72.4157050  88.7278806  73.8357768  69.8570012  86.1304997  71.7669988
  70.6120012  86.8144997  71.0699988  69.7740012  84.8084997  71.6379988
  69.2182899  84.2927753  72.3053163  70.4910012  84.0624997  70.6139988
  71.0727181  84.7442446  69.9935728  71.4490012  83.0574997  71.2699988
  72.1916877  83.5823696  71.8708544  70.8900670  82.3691829  71.9039646
  72.2070012  82.2174997  70.2899988  73.2570012  82.7074997  69.5449988
  73.6009996  83.6558599  69.5937603  73.7310012  81.7484997  68.7699988
  74.5697326  81.9380605  68.1001516  73.0250012  80.6534997  68.9859988
  72.0640012  80.9194997  69.9319988  71.3759138  80.1344554  70.2455950
  69.5520012  83.3364997  69.6669988  69.7510012  83.3804997  68.4479988
  68.5280012  82.6654997  70.1949988  68.3905513  82.6296433  71.1949594
  67.6240012  81.8994997  69.3449988  68.1943343  81.2728912  68.6593013
  66.7380012  80.9984997  70.2089988  67.4479992  80.5178328  70.8820228
  66.0875802  81.6606722  70.7804706  65.8920012  79.9294997  69.5119988
  66.3783905  79.6348890  68.5820897  65.7480012  78.7174997  70.4129988
  65.2612407  79.0112518  71.3429841  65.1450513  77.9606831  69.9112210
  66.7341022  78.3085114  70.6330756  64.5190012  80.4614997  69.1379988
  64.6290707  81.3088789  68.4612916  63.9461573  79.6758212  68.6453929
  63.9952834  80.7820384  70.0385950  66.7710012  82.7894997  68.4519988
  66.5110012  82.4194997  67.3029988  66.3320012  83.9484997  68.9439988
  66.5336159  84.2012397  69.9008547  65.5090012  84.8484997  68.1519988
  65.2141272  84.3574455  67.2246292  64.2400012  85.2444997  68.9229988
  63.8143398  84.3527688  69.3831387  64.5620012  86.2634997  69.9989988
  64.9873030  87.1557556  69.5395454  63.6496145  86.5299143  70.5325464
  65.2808559  85.8382801  70.6993821  63.2900012  85.8124997  68.0149988
  62.4967112  86.0603222  68.4954937  66.2260012  86.1154997  67.7149988
  65.7230012  86.8074997  66.8229988  67.3720012  86.4444997  68.3059988
  67.7228127  85.8852970  69.0704090  68.1160012  87.6344997  67.9239988
  67.4430201  88.2661330  67.3441410  68.5610012  88.4074997  69.1699988
  69.2426667  87.7913066  69.7562907  69.0687196  89.3234907  68.8678686
  67.6886099  88.6583410  69.7734151  69.3310012  87.3274997  67.0589988
  69.9190012  88.2554997  66.4959988  69.7180012  86.0584997  66.9409988
  69.2534820  85.3377977  67.4747684  70.8530012  85.6784997  66.1069988
  71.2215800  86.5240673  65.5262543  72.0110012  85.1214997  66.9539988
  71.6089908  84.4300309  67.6945107  73.0100012  84.3934997  66.0719988
  73.4128175  85.0844883  65.3314755  73.8226745  84.0056339  66.6861833
  72.5126163  83.5670713  65.5643314  72.6910012  86.2434997  67.7209988
  71.9678721  86.7241660  68.3798966  73.5079685  85.8347201  68.3156106
  73.0855739  86.9774976  67.0183892  70.3950012  84.6654997  65.0669988
  70.5310012  84.8984997  63.8599988  69.8480012  83.5384997  65.5189988
  69.7740624  83.3568484  66.5097738  69.3960012  82.5084997  64.5919988
  70.0246821  82.5389244  63.7020921  69.5170012  81.1224997  65.2289988
  68.8859339  81.0735497  66.1163871  69.1972439  80.3643361  64.5141257
  70.5541409  80.9409038  65.5108913  67.9620012  82.7604997  64.1479988
  67.1220012  81.8554997  64.1859988  67.6760012  83.9914997  63.7239988
  68.3349431  84.7406424  63.8810975  66.4060012  84.3114997  63.0899988
  65.9839585  83.4139470  62.6379164  65.4070012  84.8574997  64.1229988
  65.5949367  84.3716813  65.0804746  65.5563449  85.9322960  64.2259999
  63.9660012  84.6044997  63.7259988  63.6150012  83.5104997  63.2859988
  63.1240012  85.6204997  63.8769988  62.1516330  85.5078017  63.6282035
  63.4599465  86.5011379  64.2399282  66.5500012  85.3084997  61.9519988
  65.5360012  85.6904997  61.3579988  67.7660012  85.7404997  61.6289988
  68.5485615  85.3962002  62.1667315  68.0260012  86.7184997  60.5769988
  67.1038672  86.9181571  60.0311919  68.5430012  88.0334997  61.1599988
  69.5254065  87.8614626  61.5997513  68.6289830  88.7616921  60.3534984
  67.6270012  88.5984997  62.2269988  66.4270012  88.3274997  62.2409988
  68.1920012  89.3884997  63.1319988  67.6290966  89.7931155  63.8665219
  69.1821623  89.5812847  63.0818417  69.0320012  86.0944997  59.6179988
  70.2310012  86.0454997  59.9069988  68.5380012  85.6144997  58.4749988
  67.5455420  85.6268433  58.2879914  69.4190012  84.9924997  57.4929988
  69.9783818  84.1789539  57.9548817  68.5950012  84.4244997  56.3379988
  67.8956069  85.2011714  56.0285994  69.2864125  84.2129993  55.5223285
  67.8240012  83.1584997  56.6909988  67.6144183  82.6148128  55.7698145
  68.4439722  82.5427906  57.3426430  66.5100012  83.4414997  57.3969988
  66.3210012  84.5054997  57.9839988  65.5940012  82.4814997  57.3439988
  64.7006682  82.6145980  57.7960414  65.7948672  81.6226739  56.8518885
  70.4630012  85.9724997  56.9759988  71.5790012  85.5664997  56.6359988
  70.1210012  87.2604997  56.9039988  69.1686861  87.5611131  57.0550845
  71.1140012  88.2654997  56.5379988  71.5685717  87.9866049  55.5873766
  70.4460012  89.6304997  56.3779988  69.9940306  89.9275655  57.3243467
  71.1924328  90.3687469  56.0848586  69.6743707  89.5702403  55.6105000
  72.2310012  88.3314997  57.5719988  73.4120012  88.4264997  57.2149988
  71.8760012  88.2884997  58.8569988  70.9048070  88.3169913  59.1328058
  72.8920012  88.2634997  59.9039988  73.5926642  89.0862913  59.7619269
  72.2380012  88.4104997  61.2779988  71.2410035  88.0018449  61.1133893
  72.7766658  87.7793388  61.9848059  72.1210012  89.8274997  61.8459988
  71.6051254  89.7834094  62.8051802  73.5000012  90.4394997  62.0399988
  74.0163440  90.4843513  61.0811050  73.3975486  91.4465244  62.4443568
  74.0756743  89.8267900  62.7337477  71.2540012  90.7114997  60.9609988
  70.2536286  90.2846901  60.8889725  71.1921187  91.7101434  61.3934134
  71.6944441  90.7736690  59.9658887  73.7170012  86.9844997  59.8399988
  74.9400012  87.0144997  60.0269988  73.0640012  85.8474997  59.5879988
  72.0552108  85.8285126  59.5423836  73.7870012  84.5854997  59.4549988
  74.4581419  84.4099586  60.2957453  72.8010012  83.4084997  59.3589988
  72.1416978  83.5663183  58.5054698  73.5520012  82.1004997  59.1829988
  74.2112147  81.9417527  60.0364259  72.8397491  81.2780559  59.1167893
  74.1448879  82.1414540  58.2692648  71.9180012  83.3554997  60.5929988
  71.3541173  84.2845132  60.6770874  71.2261007  82.5173972  60.5095867
  72.5389744  83.2264885  61.4794802  74.7180012  84.6374997  58.2499988
  75.8830012  84.2274997  58.3229988  74.2180012  85.1494997  57.1219988
  73.2446690  85.4094730  57.0503207  75.0600012  85.2874997  55.9379988
  75.5219706  84.3235188  55.7248689  74.2140012  85.7004997  54.7339988
  73.7521033  86.6684066  54.9286949  74.8487430  85.7724794  53.8508102
  73.4369481  84.9555764  54.5626011  76.1810012  86.2914997  56.1639988
  77.2380012  86.1934997  55.5279988  75.9710012  87.2624997  57.0559988
  75.0677237  87.3830040  57.4915075  77.0260012  88.2164997  57.3769988
  77.4045580  88.6784244  56.4651767  76.4780012  89.3144997  58.2899988
  76.3012926  88.8933291  59.2796905  77.4640012  90.4694997  58.3989988
  77.6408631  90.8915095  57.4096924  77.0529077  91.2383331  59.0532131
  78.4051286  90.1067111  58.8122349  75.2430012  89.8084997  57.7569988
  74.8997927  90.4975460  58.3306044  78.2190012  87.5274997  58.0269988
  79.3530012  88.0054997  57.9089988  77.9830012  86.4044997  58.7009988
  77.0268993  86.0898602  58.7844893  79.0220012  85.6514997  59.3949988
  78.5660598  84.8598262  59.9895320  79.9860012  85.0194997  58.4009988
  79.4543929  84.8184291  57.4709114  80.7956672  85.7241093  58.2110878
  80.5820012  83.7224997  58.9079988  79.8710012  82.8544997  59.4099988
  81.8960012  83.5814997  58.7719988  82.3460116  82.7361932  59.0930086
  82.4389054  84.3202604  58.3482201  79.7740012  86.5264997  60.4019988
  80.9850012  86.7294997  60.2719988  79.0890012  87.0544997  61.4119988
  77.6910012  86.8064997  61.7929988  77.6365701  85.9417271  62.4542899
  77.0930842  86.6193676  60.9010481  77.3070012  88.0844997  62.4819988
  76.6885718  87.8370995  63.3448066  76.7300989  88.6913829  61.7841607
  78.5890012  88.8054997  62.9019988  78.6253753  88.8253296  63.9912107
  78.6600911  89.8231465  62.5180186  79.7460012  87.9584997  62.3569988
  80.4818055  88.5487713  61.8108581  80.4380012  87.1994997  63.4799988
  80.0990012  86.0614997  63.8079988  81.4300012  87.8674997  64.0749988
  81.7543878  88.7505926  63.7075488  82.1330012  87.2934997  65.2179988
  82.4484745  86.2636058  65.0509827  83.3770012  88.1414997  65.5569988
  84.0278444  88.1750208  64.6832834  82.9780012  89.5584997  65.9469988
  82.3274771  89.5258184  66.8209846  83.8717825  90.1367017  66.1813870
  82.4487526  90.0286339  65.1181614  84.1980012  87.4824997  66.6579988
  84.5249074  86.4965857  66.3275323  85.0696141  88.0982147  66.8800021
  83.5877739  87.3804837  67.5553929  81.1940012  87.1594997  66.4109988
  81.3660012  86.2674997  67.2509988  80.1860012  88.0304997  66.5009988
  80.0892381  88.7845840  65.8360979  79.2320012  87.9524997  67.6019988
  79.7607765  87.9571844  68.5551377  78.2870012  89.1524997  67.5619988
  77.7116713  89.1748348  68.4875235  78.8815371  90.0625980  67.4823244
  77.4030012  89.0684997  66.4589988  76.8212206  89.8321253  66.4563233
  78.4430012  86.6504997  67.5589988  78.0940012  86.0934997  68.6069988
  78.1460012  86.1524997  66.3569988  78.3886324  86.6453007  65.5094278
  77.3970012  84.9064997  66.2419988  76.4826728  84.9656869  66.8324221
  77.0200012  84.6514997  64.7809988  76.4636571  85.5053970  64.3944243
  77.9255317  84.5111294  64.1907356  76.0210012  83.1664997  64.5139988
  78.1900012  83.7344997  66.8059988  77.6210012  82.8384997  67.4409988
  79.5060012  83.7204997  66.5819988  79.9464166  84.4274447  66.0107175
  80.3370012  82.6454997  67.1159988  79.9260729  81.6790553  66.8240698
  81.7620012  82.7554997  66.5709988  82.0286781  83.8116978  66.6087889
  82.4003403  82.1954514  67.2543501  81.9550012  82.2354997  65.1579988
  82.9748640  81.8632549  65.0609701  81.2531009  81.4187994  64.9893606
  81.7160012  83.3264997  64.1329988  80.6416553  83.4859102  64.0409758
  82.1898509  84.2426555  64.4854536  82.2890012  82.9494997  62.7789988
  83.3682826  82.8356021  62.8803868  81.8512967  81.9999154  62.4710966
  81.9940012  83.9874997  61.7529988  82.3998700  84.8673841  62.0379087
  82.3880835  83.7062646  60.8665982  80.9939618  84.0928905  61.6585895
  80.3550012  82.6694997  68.6399988  80.1190012  81.6454997  69.2919988
  80.6360012  83.8354997  69.2259988  80.8338622  84.6596852  68.6767551
  80.7690012  83.9224997  70.6769988  81.3753870  83.1113605  71.0800479
  81.4090012  85.2644997  71.0829988  81.5198679  85.2945667  72.1669285
  82.7740012  85.4124997  70.4299988  82.6638842  85.3829890  69.3459765
  83.2166987  86.3641923  70.7239384  83.4214223  84.5965715  70.7512599
  80.5140012  86.4334997  70.7109988  79.5565435  86.3359454  71.2227213
  80.9915194  87.3667436  71.0095482  80.3505978  86.4381034  69.6333258
  79.4220012  83.7024997  71.3559988  79.3540012  83.1264997  72.4499988
  78.3330012  84.1544997  70.7299988  78.4026222  84.7096731  69.8891452
  77.0070012  83.9054997  71.2869988  76.9546552  84.2874313  72.3065513
  75.9400012  84.6074997  70.4469988  76.0797686  85.6850361  70.5334833
  76.0616171  84.3082695  69.4059556  74.6380012  84.2634997  70.8879988
  73.9868786  84.7155822  70.3464633  76.7290012  82.4114997  71.3679988
  76.2030012  81.9174997  72.3709988  77.0820012  81.6734997  70.3149988
  77.3508957  82.1013305  69.4404956  77.0290012  80.2184997  70.3849988
  76.0412488  79.8963773  70.7146677  77.3040012  79.6174997  69.0069988
  76.5515556  80.0194252  68.3284852  78.2910670  79.9633430  68.7000892
  77.2640012  78.0984997  68.9649988  77.5687080  77.7637624  67.9734315
  77.9618013  77.7130617  69.7083793  75.8860012  77.5434997  69.2609988
  74.8730012  78.1794997  68.9729988  75.8400012  76.3474997  69.8349988
  74.9468600  75.9300951  70.0544839  76.6983529  75.8603930  70.0496163
  78.0220012  79.6894997  71.4089988  77.7290012  78.7334997  72.1369988
  79.2070012  80.2994997  71.4779988  79.4378836  81.0534710  70.8468729
  80.2250012  79.8514997  72.4219988  80.3966617  78.7811038  72.3084883
  81.5380012  80.5874997  72.1569988  82.0511692  80.1393081  71.3061861
  81.3437795  81.6399428  71.9502590  82.4990012  80.5464997  73.3079988
  83.0470012  79.3464997  73.7279988  82.7722676  78.4259228  73.2130623
  83.9320012  79.3074997  74.7859988  84.3585386  78.3568811  75.1061405
  84.2770012  80.4734997  75.4389988  84.9753378  80.4451277  76.2754322
  83.7370012  81.6754997  75.0319988  84.0065185  82.5987278  75.5449416
  82.8530012  81.7074997  73.9719988  82.4242989  82.6559407  73.6483108
  79.7740012  80.0574997  73.8619988  79.8700012  79.1424997  74.6899988
  79.2830012  81.2554997  74.1859988  79.2667825  82.0129360  73.5180718
  78.8560012  81.5304997  75.5549988  79.5819740  81.1701653  76.2838484
  78.6280012  83.0424997  75.7609988  79.5151413  83.5749974  75.4181738
  77.4120012  83.5344997  74.9899988  76.5243331  83.0027514  75.3326207
  77.2822622  84.6035162  75.1587357  77.5570641  83.3501848  73.9255346
  78.4900012  83.3594997  77.2509988  78.2063196  84.4085286  77.3356377
  77.6884255  82.7340488  77.6439201  79.7530012  83.1144997  78.0419988
  80.5549644  83.7399883  77.6499290  79.5798126  83.3609252  79.0895576
  80.0370717  82.0655082  77.9582094  77.6210012  80.7104997  75.9059988
  77.4560012  80.2704997  77.0499988  76.7340012  80.4944997  74.9329988
  76.8340453  80.9242463  74.0244789  75.5510012  79.6794997  75.1859988
  75.0439598  80.0267242  76.0862450  74.5830012  79.7834997  74.0099988
  74.1629757  80.7881063  73.9605684  75.1003821  79.5602527  73.0769512
  73.4270012  78.8404997  74.0939988  73.0080012  78.0814997  73.0229988
  73.4375777  78.0934598  72.1089853  71.9710012  77.3494997  73.3829988
  71.4894818  76.6811961  72.6691302  71.7040012  77.5994997  74.6519988
  72.6000012  78.5294997  75.1199988  72.5425920  78.8693980  76.1540561
  75.9310012  78.2294997  75.4479988  75.3480012  77.5764997  76.3199988
  76.9080012  77.7084997  74.7029988  77.2904322  78.2084447  73.9131248
  77.4080012  76.3674997  74.9799988  76.5755608  75.6671572  75.0482816
  78.3410012  75.9094997  73.8589988  78.9679571  76.7815951  73.6733242
  78.9575908  75.0925831  74.2339181  77.6660012  75.4814997  72.5569988
  77.0262155  76.2912995  72.2062861  78.7070012  75.1644997  71.4979988
  79.3469182  74.3544215  71.8478249  78.2086844  74.8613957  70.5771789
  79.3137399  76.0498023  71.3077154  76.7550012  74.2904997  72.7959988
  75.9865913  74.5598066  73.5206500  76.2827928  73.9995288  71.8576723
  77.3407156  73.4559725  73.1814880  78.1250012  76.3194997  76.3219988
  78.0730012  75.3044997  77.0259988  78.8010012  77.4084997  76.6899988
  78.8755066  78.2086196  76.0781521  79.5030012  77.4474997  77.9679988
  80.1930486  76.6069658  78.0417310  80.3010012  78.7464997  78.0849988
  81.1541969  78.6598025  77.4122136  79.6536381  79.5559109  77.7475458
  80.7910012  79.0434997  79.4839988  81.6070012  78.1474997  80.1599988
  81.8927717  77.2183764  79.6668815  82.0560012  78.4174997  81.4369988
  82.6987167  77.7066448  81.9563290  81.6880012  79.5924997  82.0549988
  82.1320012  79.8654997  83.3279988  82.6891926  79.1714787  83.6878213
  80.8770012  80.4964997  81.4049988  80.5849763  81.4261140  81.8935059
  80.4340012  80.2194997  80.1279988  79.7921316  80.9303515  79.6076208
  78.5340012  77.3114997  79.1329988  78.8180012  76.6084997  80.1099988
  77.3800012  77.9774997  79.0499988  77.1662835  78.5656221  78.2571961
  76.4290012  77.9324997  80.1529988  76.9489568  78.0763507  81.1001272
  75.3910012  79.0384997  79.9939988  74.9913114  78.9158250  78.9873716
  74.5901793  78.9043737  80.7211814  75.9820012  80.4414997  80.1399988
  76.6418541  80.6349187  79.2942541  74.8890012  81.4834997  80.1739988
  74.2289665  81.2909989  81.0198099  75.3331505  82.4734225  80.2783300
  74.3150307  81.4390767  79.2484260  76.8430012  80.5264997  81.3909988
  77.6565114  79.8042691  81.3225626  77.2563043  81.5311092  81.4806733
  76.2340731  80.3051192  82.2675239  75.7550012  76.5724997  80.2689988
  75.3690012  76.1734997  81.3729988  75.6080012  75.8484997  79.1549988
  75.8102387  76.2350610  78.2440818  75.0890012  74.4854997  79.2289988
  74.0721121  74.5001877  79.6211979  75.0690012  73.8394997  77.8439988
  76.1057805  73.7936843  77.5106990  74.6871109  72.8279104  77.9816467
  74.2360012  74.5554997  76.8029988  73.4575507  75.1413538  77.2917631
  74.8706609  75.2163452  76.2125818  73.4680012  73.3414997  75.7129988
  72.2760012  74.3474997  74.8409988  72.7940373  75.1418265  74.3036139
  71.7266077  73.7282275  74.1319364  71.5792397  74.7869476  75.5547987
  75.9090012  73.6374997  80.1889988  75.3560012  72.8334997  80.9479988
  77.2320012  73.7934997  80.1629988  77.6905302  74.3587389  79.4627452
  78.0540012  73.1374997  81.1649988  77.8735662  72.0635722  81.1178573
  79.1023314  73.3392657  80.9450136  77.7400012  73.6294997  82.5639988
  77.5660012  72.8364997  83.4929988  77.6360012  74.9494997  82.7259988
  77.8289713  75.5858520  81.9657899  77.3020012  75.5114997  84.0309988
  77.9946155  75.1406195  84.7865334  77.4020012  77.0354997  83.9829988
  76.5783135  77.4518334  83.4030814  77.3813510  77.4491619  84.9912433
  78.9170012  77.6554997  83.2179988  78.6293779  78.9456095  83.3656053
  75.9130012  75.0784997  84.4789988  75.6720012  74.8774997  85.6739988
  74.9830012  74.9314997  83.5329988  75.1818936  75.1574016  82.5688881
  73.6380012  74.4854997  83.8749988  73.2164728  75.1331209  84.6437639
  72.7340012  74.5364997  82.6439988  73.2143432  73.9790411  81.8398777
  71.7786022  74.0716439  82.8873542  72.4770012  75.9474997  82.1669988
  72.6200012  76.2484997  80.9829988  72.1010012  76.8254997  83.0879988
  71.9162377  77.7825360  82.8233411  72.0012810  76.5327592  84.0494871
  73.6270012  73.0784997  84.4489988  72.7570012  72.7604997  85.2649988
  74.5690012  72.2294997  84.0449988  75.2603556  72.5331779  83.3742471
  74.6060012  70.8454997  84.4959988  73.6910088  70.6066311  85.0380596
  74.7250012  69.9004997  83.2959988  75.5203234  70.2857808  82.6579390
  75.0094044  68.9201815  83.6783483  73.4520012  69.7774997  82.4939988
  72.4800012  68.8504997  82.8389988  72.6478639  68.2080578  83.7034003
  71.3150012  68.7334997  82.1079988  70.5588920  68.0013503  82.3914735
  71.1090012  69.5494997  81.0169988  69.9500012  69.4344997  80.2869988
  69.3591970  68.7576790  80.6253238  72.0610012  70.4784997  80.6529988
  71.9002401  71.1243837  79.7898127  73.2240012  70.5874997  81.3899988
  73.9814546  71.3187968  81.1079193  75.7320012  70.5484997  85.4699988
  75.5920012  69.6414997  86.2929988  76.8460012  71.2794997  85.3989988
  76.9953408  71.9563052  84.6643347  77.9170012  71.0574997  86.3619988
  78.1221347  69.9906170  86.4502072  79.1920012  71.7634997  85.9059988
  78.9737069  72.7691020  85.5465397  79.8945203  71.8199590  86.7374909
  79.9020012  71.0544997  84.7919988  79.9930012  69.6744997  84.7789988
  79.5457179  69.1026681  85.5920463  80.6410012  69.0214997  83.7519988
  80.7147334  67.9340114  83.7577845  81.1950012  69.7434997  82.7189988
  81.7016910  69.2294718  81.9022120  81.1080012  71.1184997  82.7189988
  81.5496311  71.6936133  81.9051761  80.4620012  71.7664997  83.7489988
  80.3880683  72.8539883  83.7474513  77.5150012  71.5234997  87.7529988
  77.9470012  70.9384997  88.7509988  76.6970012  72.5744997  87.8409988
  76.4773697  73.1463265  87.0379574  76.1570012  72.9664997  89.1369988
  76.9628375  73.0432939  89.8669506  75.4630012  74.3204997  89.0329988
  75.0583625  74.4483434  88.0289954  74.6609810  74.4260427  89.7635631
  76.3990012  75.4534997  89.2619988  76.8820012  76.3174997  88.3269988
  76.5428984  76.1730022  87.3012164  77.7310012  77.2234997  88.9139988
  78.2133440  77.9723456  88.4378951  77.8170012  76.9464997  90.2519988
  78.5460012  77.5794997  91.2539988  79.1637384  78.4369531  90.9870286
  78.4390012  77.0794997  92.5219988  78.9958878  77.5486563  93.3330901
  77.6280012  75.9744997  92.8059988  77.5489064  75.5848659  93.8209022
  76.9050012  75.3454997  91.8119988  76.2835445  74.4930106  92.0861424
  76.9940012  75.8334997  90.5059988  75.2080012  71.9054997  89.6699988
  75.1350012  71.6824997  90.8829988  74.4710012  71.2404997  88.7769988
  74.3782781  71.5612997  87.8237994  73.7280012  70.0544997  89.1819988
  73.0612847  70.2976388  90.0093268  72.8880012  69.5334997  88.0139988
  73.5191118  69.5847640  87.1267725  72.6564612  68.4915186  88.2348261
  71.5910012  70.3004997  87.7609988  71.8953660  71.3352717  87.6038055
  71.1937369  69.8938906  86.8309707  70.3040012  70.2454997  89.0319988
  70.6850012  68.7434997  89.9329988  71.6868288  68.8172074  90.3560917
  69.9609751  68.6075405  90.7363679  70.6392142  67.8910870  89.2552101
  74.6710012  68.9704997  89.6869988  74.3660012  68.2914997  90.6739988
  75.8140012  68.7944997  89.0229988  75.9599872  69.2109947  88.1145279
  76.8620012  67.9394997  89.5679988  76.4529152  66.9592878  89.8128099
  77.9810012  67.7594997  88.5429988  77.5498038  67.0733344  87.8140644
  78.1732811  68.7209235  88.0667712  79.2940012  67.1814997  89.0719988
  79.6706959  67.8266529  89.8657111  79.0780012  65.7814997  89.6179988
  78.7017224  65.1356087  88.8246905  80.0232195  65.3861975  89.9900193
  78.3537559  65.8160905  90.4318616  80.3580012  67.1814997  87.9909988
  80.5349027  68.2030827  87.6545863  81.2829291  66.7658929  88.3908494
  80.0218728  66.5755239  87.1496248  77.4080012  68.5174997  90.8669988
  77.6720012  67.7814997  91.8249988  77.5750012  69.8414997  90.9169988
  77.3774899  70.4189047  90.1122056  78.1050012  70.4834997  92.1159988
  79.0756566  70.0585869  92.3716867  78.2780012  71.9824997  91.8669988
  78.8199263  72.1467445  90.9356342  77.3032743  72.4670064  91.8098958
  79.1970012  72.8594997  93.1399988  79.1196590  74.0572720  92.5670608
  77.2020012  70.2414997  93.3159988  77.6840012  70.0234997  94.4329988
  75.8850012  70.2784997  93.1039988  75.5058079  70.5619956  92.2118430
  74.9550012  69.9704997  94.1839988  75.1533824  70.6123828  95.0423286
  73.5160012  70.2064997  93.7189988  73.4054475  69.6332875  92.7985071
  72.8811590  69.7755954  94.4932061  73.0980012  71.6674997  93.4669988
  73.6608532  72.0182477  92.6019703  72.0375962  71.6274027  93.2179349
  73.3110012  72.6314997  94.6399988  72.6620012  73.6994997  94.6269988
  74.0840012  72.3484997  95.5759988  75.1350012  68.5394997  94.6709988
  75.1280012  68.2764997  95.8789988  75.3000012  67.5974997  93.7419988
  75.2844169  67.8152939  92.7558841  75.5090012  66.2154997  94.1389988
  74.6771703  65.9126734  94.7749648  75.5213415  65.5993737  93.2399238
  76.8080012  66.0114997  94.8949988  76.8560012  65.2644997  95.8749988
  77.8780012  66.6724997  94.4499988  77.8279220  67.2446915  93.6192232
  79.1730012  66.5164997  95.1059988  79.4156680  65.4617194  95.2350356
  80.2800012  67.2004997  94.2829988  80.0012404  68.2395420  94.1075453
  81.6000012  67.1504997  95.0259988  81.8796695  66.1116958  95.2014206
  82.3715435  67.6383174  94.4302999  81.4994885  67.6654729  95.9814039
  80.4170012  66.5314997  92.9159988  79.5735842  66.8583629  92.3077973
  81.3455116  66.8886438  92.4705596  80.4370012  65.0224997  92.9789988
  79.5085499  64.6645704  93.4239311  80.5364307  64.6175722  91.9719006
  81.2804766  64.6948513  93.5866957  79.1200012  67.0584997  96.5269988
  79.5720012  66.4064997  97.4759988  78.5650012  68.2584997  96.6969988
  78.2458812  68.8081986  95.9120829  78.4640012  68.8364997  98.0329988
  79.4473379  68.8566100  98.5028323  77.9310012  70.2644997  97.9559988
  78.7874197  70.9180663  97.7901762  77.2554736  70.3281661  97.1029401
  77.2030012  70.6964997  99.2079988  77.9040012  71.1204997 100.3279988
  78.9931241  71.1425198 100.2902392  77.2450012  71.5104997 101.4769988
  77.8077339  71.8436363 102.3490387  75.8680012  71.4774997 101.5169988
  75.2070012  71.8654997 102.6589988  75.8011375  72.1387297 103.3618124
  75.1500012  71.0574997 100.4199988  74.0607887  71.0309942 100.4518433
  75.8170012  70.6684997  99.2749988  75.2543287  70.3322988  98.4040976
  77.5770012  67.9844997  98.9299988  77.9120012  67.7244997 100.0899988
  76.4330012  67.5424997  98.4059988  76.1427626  67.8239712  97.4804531
  75.5410012  66.6934997  99.1799988  75.3093583  67.1677313 100.1336995
  74.2350012  66.4684997  98.4159988  74.0120416  67.4450745  97.9862432
  74.4244994  65.7542129  97.6147591  73.0430012  65.9944997  99.2499988
  73.2039549  64.9572690  99.5438479  72.8930012  66.8544997 100.4919988
  72.7315426  67.8918711 100.1989280  72.0410323  66.5055176 101.0754894
  73.7985770  66.7844668 101.0945999  71.7680012  66.0144997  98.4249988
  71.8805681  65.3540664  97.5651988  70.9330480  65.6738520  99.0373008
  71.5740340  67.0299546  98.0795615  76.1730012  65.3544997  99.5309988
  75.8170012  64.7704997 100.5589988  77.1000012  64.8604997  98.7119988
  77.2980092  65.3067000  97.8278057  77.8040012  63.6254997  99.0359988
  77.0967967  62.8697221  99.3777023  78.5240012  63.0954997  97.7939988
  77.8244529  62.5585886  97.1533289  78.9611984  63.9252201  97.2385506
  79.6410012  62.1474997  98.0969988  80.9360012  62.5674997  98.3099988
  81.2397651  63.5303702  98.2833992  81.7020012  61.5174997  98.5509988
  82.7673826  61.6405427  98.7457341  80.9500012  60.4334997  98.5019988
  79.6570012  60.7984997  98.2179988  78.8817869  60.0369307  98.1334003
  78.7820012  63.8404997 100.1839988  78.8530012  63.0324997 101.1159988
  79.5500012  64.9294997 100.1289988  79.5432527  65.5334746  99.3195124
  80.4670012  65.2434997 101.2179988  81.0905290  64.3802453 101.4506015
  81.3740012  66.4094997 100.8249988  82.1104623  66.5668465 101.6130135
  82.0880012  66.1114997  99.5169988  81.3521462  65.9544842  98.7283523
  82.7292429  66.9523718  99.2527220  82.6954588  65.2135962  99.6304235
  80.5870012  67.5974997 100.6779988  81.1563400  68.3299845 100.4311799
  79.7100012  65.5704997 102.4989988  80.1130012  65.1544997 103.5909988
  78.6090012  66.3144997 102.3839988  78.2993603  66.6397422 101.4793225
  77.8590012  66.7314997 103.5619988  78.5323336  67.1642787 104.3018805
  76.8220012  67.7844997 103.1699988  77.4071964  68.4862662 102.5757181
  76.0796934  67.3017146 102.5343905  76.1150012  68.5374997 104.2969988
  76.0242786  67.8776053 105.1597905  76.9010012  69.7784997 104.6889988
  76.9917474  70.4391372 103.8267795  76.3807754  70.2999592 105.4924575
  77.8947890  69.4873760 105.0291944  74.6960012  68.8974997 103.8929988
  74.1381825  67.9871769 103.6733394  74.2101414  69.4328031 104.7087755
  74.7197714  69.5312689 103.0065054  77.1760012  65.5634997 104.2629988
  76.8080012  65.6894997 105.4359988  77.0020012  64.4334997 103.5829988
  77.3264449  64.3789915 102.6280828  76.2770012  63.2974997 104.1309988
  75.8744658  63.5335962 105.1160485  75.1250012  62.8804997 103.1909988
  75.5251118  62.7307121 102.1882149  74.4750012  61.5944997 103.6739988
  74.0742184  61.7436550 104.6766086  73.6661620  61.3191458 102.9971973
  75.2177585  60.7970255 103.6951080  74.0860012  63.9984997 103.0979988
  74.5623178  64.8438869 102.6014672  73.2667213  63.6298017 102.4807939
  73.5470012  64.4404997 104.4379988  74.3656921  64.8097845 105.0556344
  72.8157006  65.2354306 104.2917679  73.0700974  63.5956980 104.9349623
  77.1990012  62.1184997 104.4189988  77.0880012  61.4874997 105.4709988
  78.1200012  61.8094997 103.5079988  78.2030136  62.3879962 102.6842572
  78.9490012  60.6084997 103.5979988  78.5862616  59.9236733 104.3645052
  78.9910012  59.8604997 102.2479988  79.2778830  60.5600365 101.4628578
  79.9970012  58.7214997 102.3039988  79.7105096  58.0212597 103.0886564
  80.0146622  58.2041556 101.3447576  80.9879415  59.1215089 102.5187812
  77.6080012  59.3414997 101.8879988  76.9144560  60.1786522 101.8087980
  77.6533998  58.8164432 100.9338739  77.2632460  58.6567982 102.6628720
  80.3550012  60.9334997 104.0959988  80.7790012  60.4444997 105.1439988
  81.0980012  61.7554997 103.3509988  80.7310650  62.1584590 102.5006571
  82.4930012  62.0254997 103.7009988  83.0444618  61.1066078 103.9000668
  83.1980012  62.7854997 102.5639988  82.5061778  63.5161073 102.1448424
  84.4360012  63.5004997 103.0849988  85.1285477  62.7704423 103.5039217
  84.9207346  64.0321704 102.2661824  84.1468178  64.2118021 103.8586417
  83.5690012  61.8274997 101.4439988  82.6664223  61.3578298 101.0530208
  84.0672080  62.3769927 100.6452829  84.2398309  61.0596198 101.8292893
  82.5720012  62.7894997 105.0179988  83.3280012  62.4274997 105.9249988
  81.7870012  63.8524997 105.1389988  81.2392468  64.1414544 104.3411456
  81.7170012  64.6584997 106.3559988  82.3023145  64.2117114 107.1596701
  82.2260012  66.0754997 106.1119988  81.6435482  66.5392988 105.3159215
  82.1231332  66.6613848 107.0253755  83.2755798  66.0398709 105.8200835
  80.2620012  64.6474997 106.8149988  79.4450012  65.4444997 106.3529988
  79.9470012  63.7384997 107.7349988  80.6641752  63.1380573 108.1160889
  78.5700012  63.5314997 108.1679988  77.8779299  63.5004674 107.3264683
  78.4330012  62.2224997 108.9659988  79.0906579  62.2665930 109.8341247
  76.9990012  62.0264997 109.4269988  76.3407602  61.9818429 108.5593435
  76.9215732  61.0960234 109.9894215  76.7041828  62.8607879 110.0635103
  78.8990012  61.0404997 108.1319988  79.9443628  61.1793578 107.8562461
  78.7953806  60.1230392 108.7113335  78.2919487  60.9701752 107.2294232
  78.1110012  64.7284997 108.9899988  78.4890012  64.8764997 110.1579988
  77.2650012  65.5584997 108.3799988  77.1429066  65.4878011 107.3799018
  76.7010012  66.7274997 109.0699988  76.1199239  67.3129084 108.3574365
  75.7860012  66.3264997 110.2379988  76.3748778  65.8763317 111.0371686
  75.2603638  67.2004373 110.6227563  74.7330012  65.3224997 109.8619988
  74.0820012  65.4014997 108.6409988  74.3386492  66.2087144 107.9549696
  73.1210012  64.4764997 108.2889988  72.6241642  64.5457631 107.3212920
  72.7890012  63.4624997 109.1639988  72.0263085  62.7331628 108.8911112
  73.4240012  63.3724997 110.3859988  73.1646119  62.5726136 111.0795401
  74.3910012  64.2994997 110.7299988  74.8940320  64.2299592 111.6944800
  77.6770012  67.8324997 109.4529988  77.2860012  68.7794997 110.1329988
  78.9370012  67.7274997 109.0399988  79.2877860  66.9257665 108.5357437
  79.8520012  68.8324997 109.3049988  79.9205239  69.1406280 110.3482920
  81.2460012  68.5154997 108.8009988  81.1948389  68.2140876 107.7547516
  81.8761866  69.4000559 108.8933403  81.6707983  67.7040833 109.3919726
  79.2570012  69.9864997 108.5339988  78.9420012  69.8454997 107.3559988
  79.1140012  71.1404997 109.1719988  79.3747688  71.2515907 110.1414101
  78.4310012  72.2464997 108.5079988  77.7845607  71.8658761 107.7172146
  77.5710012  73.0114997 109.5169988  77.4093770  72.3475441 110.3661983
  78.1504910  73.8769860 109.8382852  76.2280012  73.4744997 108.9729988
  75.7575808  74.1139317 109.7199474  76.4331452  74.0565135 108.0745139
  75.2950012  72.3264997 108.6299988  75.4140012  71.2434997 109.2449988
  74.4270012  72.5124997 107.7529988  79.3190012  73.2084997 107.7219988
  78.8160012  74.1104997 107.0549988  80.6300012  73.0314997 107.7949988
  81.0462718  72.3195525 108.3780505  81.5110012  73.9564997 107.1019988
  80.9155333  74.6561847 106.5155193  82.3630012  74.7504997 108.0919988
  82.3081574  74.2373162 109.0520686  83.3898661  74.7286659 107.7270719
  81.9170012  76.1934997 108.2629988  80.8888684  76.1971798 108.6249799
  82.5629545  76.6701223 109.0003435  81.9950012  76.9594997 106.9499988
  81.4087883  76.4237927 106.2033586  81.5682321  77.9506487 107.1035930
  83.4310012  77.0954997 106.4649988  83.9910359  77.6572133 107.2126212
  83.8543936  76.0955792 106.3701461  83.5140012  77.7954997 105.1539988
  83.1221188  78.7222261 105.2417827  84.4807199  77.8642833 104.8697036
  82.9954797  77.2749404 104.4609961  82.3960012  73.3014997 106.0669988
  83.1100012  72.3484997 106.3719988  82.3580012  73.8124997 104.8439988
  81.7135301  74.5561352 104.6164850  83.2170012  73.2974997 103.7889988
  84.0202842  72.7085100 104.2316348  82.4350012  72.4074997 102.8189988
  81.6618858  73.0276303 102.3653140  83.1336861  72.0781759 102.0499180
  81.7920012  71.1934997 103.4729988  82.5771726  70.5850503 103.9217704
  81.1130843  71.5415383 104.2514864  81.0130012  70.3364997 102.4999988
  80.2900012  69.4234997 102.8999988  81.1540012  70.6264997 101.2159988
  80.6570832  70.0866063 100.5219605  81.7578374  71.3863005 100.9363815
  83.7920012  74.5174997 103.0899988  83.1760012  75.5804997 103.1049988
  84.9680012  74.3874997 102.4909988  85.4677311  73.5101873 102.5173099
  85.6210012  75.5394997 101.8679988  85.6893963  76.3586980 102.5837749
  87.0290012  75.1694997 101.4149988  87.5156632  74.5575202 102.1744330
  86.9903775  74.6187295 100.4751794  87.9170012  76.3494997 101.1829988
  88.5880012  76.5554997  99.9969988  88.5400548  75.9417971  99.1962678
  89.2920012  77.6694997 100.0799988  89.8993969  78.0063331  99.2399317
  89.0980012  78.1964997 101.2749988  88.2430012  77.3904997 101.9849988
  87.9599451  77.6590168 103.0027802  84.8070012  76.1174997 100.7189988
  84.7880012  77.3364997 100.5449988  84.1720012  75.2584997  99.9229988
  84.3832985  74.2738877 100.0004073  83.3090012  75.7024997  98.8149988
  82.8975241  74.8267038  98.3132345  82.1460012  76.5804997  99.3029988
  82.6715763  77.3990629  99.7947550  81.6349458  76.9576668  98.4171842
  81.1200012  75.9814997 100.2669988  81.6428070  75.4935982 101.0896330
  80.2210012  77.0764997 100.8169988  79.6974731  77.5645856  99.9949347
  79.4940056  76.6404790 101.5021733  80.8258365  77.8108975 101.3489146
  80.2960012  74.8894997  99.6049988  80.9556270  74.0902745  99.2670160
  79.5790935  74.4894215 100.3219940  79.7614566  75.3044885  98.7505133
  84.0040012  76.3664997  97.6229988  83.3870012  76.5434997  96.5769988
  85.2700012  76.7304997  97.7699988  85.7575606  76.6016823  98.6450938
  85.9790012  77.3674997  96.6739988  85.4081146  78.2257723  96.3196602
  87.3520012  77.8474997  97.1199988  87.2563819  78.1967032  98.1481102
  88.0225946  76.9887402  97.0893949  87.9170012  78.9604997  96.2589988
  88.7985304  79.3623173  96.7585481  88.2070554  78.5334781  95.2989867
  86.7340012  80.2924997  95.9819988  86.5160012  80.9214997  97.6459988
  87.4744632  81.2680558  98.0324549  85.8091871  81.7511439  97.6316771
  86.1315796  80.1283885  98.2873224  86.0950012  76.3694997  95.5519988
  85.9500012  76.7124997  94.3829988  86.3460012  75.1214997  95.9149988
  86.4421224  74.8724791  96.8890875  86.5040012  74.0774997  94.9189988
  87.3080090  74.3310021  94.2280523  86.8530012  72.7674997  95.6119988
  85.9395456  72.2332107  95.8732142  87.4749785  72.1347538  94.9788503
  87.6070012  72.9714997  96.8839988  87.1410012  72.7754997  98.1499988
  86.1115571  72.4311437  98.2488105  88.1220012  73.0704997  99.0649988
  88.0299039  72.9993205 100.0682690  89.2450012  73.4764997  98.3969988
  90.4840012  73.8774997  98.8859988  90.6398815  73.8893935  99.9647288
  91.4360012  74.2344997  97.9719988  92.4178550  74.5568279  98.3186506
  91.1810012  74.1964997  96.5969988  91.9496648  74.4807310  95.8783415
  89.9530012  73.7994997  96.1089988  89.8078044  73.7775682  95.0289350
  88.9570012  73.4314997  97.0189988  85.2240012  73.9174997  94.1359988
  85.2480012  73.7114997  92.9259988  84.0980012  74.0044997  94.8259988
  84.1076348  74.1243067  95.8288212  82.8160012  73.8704997  94.1619988
  82.7750589  72.9325068  93.6082910  81.7030012  73.8734997  95.1939988
  81.8224555  74.7574125  95.8205193  80.7568615  73.9350852  94.6562934
  81.7090012  72.6424997  96.0579988  81.2910012  71.4264997  95.5569988
  80.9516183  71.3703281  94.5227050  81.2980012  70.2974997  96.3399988
  80.9667120  69.3434744  95.9298949  81.7250012  70.3734997  97.6419988
  81.7260012  69.2454997  98.4209988  81.4104462  68.4676616  97.9551740
  82.1490012  71.5724997  98.1659988  82.4891396  71.6377273  99.1995130
  82.1410012  72.6964997  97.3719988  82.4788290  73.6511105  97.7753479
  82.6070012  74.9764997  93.1489988  82.0880012  74.7394997  92.0619988
  83.0210012  76.1844997  93.4969988  83.3979939  76.3662979  94.4161969
  82.8890012  77.2974997  92.5749988  81.8492282  77.3832282  92.2593691
  83.3110012  78.6104997  93.2229988  84.3550206  78.4999042  93.5160709
  83.2261953  79.3961069  92.4721797  82.4850012  78.9794997  94.4329988
  81.1400012  78.6454997  94.5069988  80.6840312  78.1122754  93.6728149
  80.3820012  78.9764997  95.6109988  79.3283517  78.7013615  95.6581555
  80.9620012  79.6604997  96.6549988  80.2060012  79.9934997  97.7529988
  79.2943107  79.7009641  97.6834064  82.2950012  80.0084997  96.6039988
  82.7558202  80.5468043  97.4322345  83.0470012  79.6714997  95.4959988
  84.0998344  79.9493926  95.4468269  83.7180012  77.0224997  91.3389988
  83.3040012  77.3364997  90.2289988  84.8950012  76.4374997  91.5259988
  85.2414890  76.2375647  92.4533992  85.7420012  76.1104997  90.3869988
  85.9182595  77.0088616  89.7954094  87.0900012  75.5544997  90.8439988
  86.9212943  74.6892667  91.4850987  87.6961622  75.2588797  89.9876825
  87.9140012  76.5234997  91.6389988  87.8780012  77.8794997  91.3599988
  87.2401513  78.2411907  90.5535082  88.6390012  78.7704997  92.0909988
  88.5935786  79.8368410  91.8697442  89.4580012  78.3094997  93.1029988
  90.0656383  79.0090127  93.6770706  89.5060012  76.9584997  93.3869988
  90.1462384  76.5906741  94.1888097  88.7420012  76.0744997  92.6539988
  88.7852351  75.0071255  92.8706624  85.0770012  75.1044997  89.4619988
  85.1360012  75.2474997  88.2449988  84.4330012  74.0934997  90.0309988
  84.4012970  73.9974828  91.0359241  83.7910012  73.0674997  89.2179988
  84.5164971  72.6334322  88.5300015  83.2340012  71.9574997  90.1029988
  84.1082720  71.6253852  90.6628646  82.5251412  72.4293071  90.7834511
  82.5720012  70.7544997  89.4319988  81.7912794  71.1093526  88.7592032
  83.5950012  69.9544997  88.6429988  84.3758516  69.5988957  89.3152466
  83.1055986  69.1019055  88.1721813  84.0384112  70.5880304  87.8748017
  81.9030012  69.8784997  90.4789988  81.1446018  70.4568836  91.0066368
  81.4337544  69.0235669  89.9921737  82.6502990  69.5260728  91.1899420
  82.6790012  73.6564997  88.3749988  82.4990012  73.2794997  87.2229988
  81.9230012  74.5814997  88.9439988  82.1117248  74.9230381  89.8755750
  80.7910012  75.1304997  88.2279988  80.3969155  74.3134761  87.6236245
  80.0609208  75.4028949  88.9901555  81.0410012  76.3264997  87.3359988
  80.2360012  76.5924997  86.4509988  82.1240012  77.0644997  87.5519988
  82.7962629  76.8500960  88.2746291  82.3210012  78.2744997  86.7609988
  81.5440969  78.3499270  86.0001902  82.2510012  79.5154997  87.6569988
  82.7341188  79.3172952  88.6137702  82.7370440  80.3630871  87.1738239
  80.8510012  79.9434997  87.9649988  80.0030012  79.3764997  88.8689988
  80.3820013  78.5218341  89.4293607  78.8010012  80.0404997  88.8729988
  78.0056963  79.8156340  89.4535374  78.8560012  81.0594997  87.9589988
  77.8930012  82.0004997  87.6059988  76.9240607  81.9664936  88.1040917
  78.2280012  82.9154997  86.6479988  77.4994778  83.6682149  86.3467127
  79.4890012  82.9104997  86.0409988  79.7447229  83.6450034  85.2773168
  80.4470012  81.9764997  86.3899988  81.4150358  82.0153772  85.8905008
  80.1320012  81.0274997  87.3679988  83.6230012  78.3134997  85.9769988
  83.6930012  79.0534997  84.9899988  84.6500012  77.5634997  86.3589988
  84.5795230  76.9689755  87.1724318  85.8980012  77.5754997  85.6229988
  85.8867286  78.4272943  84.9429855  86.7149434  77.6907188  86.3353395
  86.1170012  76.3094997  84.8229988  86.6560012  76.3494997  83.7129988
  85.7020012  75.1764997  85.3839988  85.3551369  75.1640884  86.3324873
  85.8410012  73.9024997  84.6799988  86.8768170  73.7500158  84.3767937
  85.4290012  72.7564997  85.6069988  86.1533991  72.6597070  86.4156878
  84.4391229  72.9367023  86.0262457  85.3690012  71.4234997  84.9229988
  86.5020012  70.8824997  84.3429988  87.4405533  71.4345664  84.3924175
  86.4540012  69.6584997  83.7069988  87.3541047  69.2409207  83.2558423
  85.2660012  68.9644997  83.6429988  85.2236789  67.9988619  83.1391610
  84.1300012  69.4924997  84.2169988  83.1907817  68.9411576  84.1724010
  84.1810012  70.7184997  84.8479988  83.2798773  71.1401867  85.2932580
  85.0750012  73.8464997  83.3619988  85.6520012  73.3774997  82.3669988
  83.8110012  74.2804997  83.2679988  82.9820012  74.9824997  84.2649988
  83.5750472  75.7632478  84.7412644  82.6459051  74.2711038  85.0193557
  81.8460012  75.5354997  83.4529988  82.0917474  76.5455152  83.1250102
  80.9427027  75.5616534  84.0624815  81.6820012  74.6254997  82.3109988
  81.2541530  75.1457785  81.4540537  81.0591313  73.7670097  82.5622513
  83.1050012  74.1604997  81.9809988  83.1213079  73.1074143  81.7002079
  83.7130012  74.9884997  80.8679988  83.3550012  74.7864997  79.7019988
  84.6040012  75.9274997  81.1869988  84.7810164  76.1828620  82.1480165
  85.3020012  76.6604997  80.1369988  84.5824237  77.1137033  79.4551527
  86.1550012  77.7684997  80.7539988  85.4111004  78.4657425  81.1394379
  86.7162670  77.3408709  81.5847901  87.1120012  78.5094997  79.8209988
  87.5289016  77.8002939  79.1059309  86.3820012  79.6124997  79.0729988
  85.9651921  80.3223937  79.7874353  87.0799557  80.1286423  78.4137894
  85.5764654  79.1787928  78.4804527  88.2920012  79.0684997  80.5989988
  88.8301678  78.2519120  81.0803102  88.9619209  79.5924784  79.9172694
  87.9313456  79.7625605  81.3581470  86.1620012  75.7354997  79.2859988
  86.3160012  75.9664997  78.0819988  86.7180012  74.6864997  79.8859988
  86.5735494  74.5534485  80.8767209  87.6160012  73.7684997  79.1869988
  88.4151587  74.3132099  78.6842690  88.2270012  72.7394997  80.1549988
  87.4211519  72.1925360  80.6444250  89.1180012  71.7644997  79.4059988
  89.9244104  72.3107145  78.9166582  89.5405246  71.0451152  80.1074691
  88.5295983  71.2367548  78.6554212  89.0090012  73.4494997  81.2609988
  88.3075160  74.0921287  81.7930207  89.3828668  72.6815693  81.9382040
  90.1650012  74.2784997  80.7529988  89.7918398  75.0469938  80.0760444
  90.6713421  74.7511359  81.5946240  90.8671899  73.6364343  80.2212254
  86.8930012  73.0874997  78.0249988  87.4110012  73.1144997  76.8999988
  85.7210012  72.4674997  78.2169988  85.0300012  72.0814997  79.4619988
  84.4212012  72.9125051  79.8182190  85.7635664  71.8166165  80.2234566
  84.2080012  70.9114997  79.0319988  83.3529798  70.7843835  79.6959859
  84.8101088  70.0029106  79.0377951  83.7780012  71.2524997  77.6549988
  82.9184351  71.9221869  77.6826436  83.5321274  70.3708142  77.0631572
  84.9840012  71.9764997  77.0399988  85.6352039  71.2836490  76.5070905
  84.5530012  73.0884997  76.1009988  84.4980012  72.8734997  74.8839988
  84.2480012  74.2734997  76.6319988  84.2970179  74.4270709  77.6290507
  83.7660012  75.3604997  75.7879988  83.0005649  74.9668744  75.1192195
  83.1440012  76.4564997  76.6499988  83.9006429  76.8667945  77.3187673
  82.7584809  77.2490265  76.0086130  82.3281984  76.0372339  77.2388801
  84.8790012  75.9294997  74.9179988  84.6680012  76.1984997  73.7309988
  86.0720012  76.1244997  75.4889988  86.2241004  75.9597928  76.4738017
  87.1780012  76.6524997  74.6969988  86.8463461  77.5258226  74.1353839
  88.3360012  77.0664997  75.6049988  89.1271322  77.5286356  75.0145402
  87.9862489  77.7722124  76.3584859  89.1130012  75.7124997  76.5099988
  90.0131847  76.4635811  77.1380469  87.6530012  75.6424997  73.6619988
  88.1420012  76.0334997  72.5959988  87.5240012  74.3474997  73.9569988
  87.2386478  74.0529327  74.8799847  87.8670012  73.3204997  72.9779988
  88.8675343  73.4758317  72.5743843  87.7830012  71.9214997  73.6169988
  86.9133362  71.8864267  74.2731642  87.6560012  70.8474997  72.5509988
  88.5255871  70.8816496  71.8946797  87.5983223  69.8682262  73.0261802
  86.7528055  71.0206142  71.9658764  89.0060012  71.6604997  74.4969988
  89.8810526  71.6584508  73.8470899  89.0812565  72.4865011  75.2042170
  88.9380012  70.3524997  75.2549988  88.8631949  69.5259407  74.5483842
  89.8383599  70.2340957  75.8578536  88.0633968  70.3539903  75.9055100
  86.9600012  73.4314997  71.7589988  87.4180012  73.3604997  70.6119988
  85.6610012  73.6274997  71.9909988  85.3048676  73.6942189  72.9337696
  84.7090012  73.6844997  70.8859988  84.8184784  72.8048483  70.2517060
  83.2820012  73.7194997  71.4299988  83.1636733  72.9774606  72.2196036
  83.0555097  74.7095802  71.8256530  82.2380012  73.4204997  70.4019988
  81.7690012  74.3674997  69.5189988  82.0811446  75.3275745  69.4886258
  80.8590012  73.8214997  68.7319988  80.3659592  74.4115908  67.9594698
  80.7200012  72.5524997  69.0749988  81.5710012  72.2764997  70.1159988
  81.6034761  71.2738119  70.5422191  84.9680012  74.8854997  69.9869988
  84.6900012  74.8344997  68.7839988  85.4900012  75.9754997  70.5519988
  85.6395462  76.0304560  71.5493530  85.7970012  77.1484997  69.7409988
  84.9006103  77.4423706  69.1949013  86.2250012  78.3094997  70.6379988
  87.1267804  78.0336811  71.1846415  86.4267822  79.1878058  70.0248405
  85.4271293  78.5362249  71.3451730  86.8760012  76.8414997  68.7099988
  86.7740012  77.2584997  67.5499988  87.9150012  76.1094997  69.1099988
  88.0046924  75.7957751  70.0658396  89.0060012  75.8264997  68.1839988
  89.0637142  76.5816269  67.4000656  90.3450012  75.7674997  68.9379988
  91.1417134  75.5395164  68.2299213  90.6330012  77.0994997  69.6129988
  89.8368993  77.3279563  70.3216101  91.5840889  77.0410716  70.1422614
  90.6847271  77.8855204  68.8596098  90.3360012  74.6364997  69.9679988
  89.6292033  74.9147378  70.7497411  89.9818274  73.7386866  69.4614496
  91.6900012  74.3654997  70.5859988  92.0446423  75.2627819  71.0931616
  91.6050400  73.5514529  71.3058659  92.3972673  74.0867327  69.8048691
  88.7500012  74.5454997  67.3989988  89.2220012  74.4084997  66.2639988
  88.0070012  73.5944997  67.9679988  87.6698587  73.6965640  68.9145806
  87.7140012  72.3544997  67.2599988  88.6443052  71.9985268  66.8173738
  87.2010012  71.2954997  68.2369988  86.2650001  71.6336170  68.6816096
  87.0322788  70.3598812  67.7038468  87.9395986  71.1371993  69.0228194
  86.7050012  72.5414997  66.1359988  86.5490012  71.6334997  65.3129988
  86.0230012  73.6814997  66.0809988  86.1751496  74.3795050  66.7949587
  85.0200012  73.9464997  65.0589988  84.6622986  73.0081917  64.6350574
  83.8310012  74.6914997  65.6709988  83.3934880  74.0317372  66.4202617
  84.2296868  75.5808328  66.1590934  82.7650012  75.0984997  64.6719988
  83.0292136  76.0709349  64.2564722  82.7351987  74.3582701  63.8724526
  81.4020012  75.1844997  65.3319988  81.5271027  75.5713023  66.3433505
  80.7775633  75.8680827  64.7567675  80.7330012  73.8904997  65.4059988
  81.3093488  73.0719715  65.5399185  79.4180012  73.7304997  65.3069988
  78.8880012  72.5194997  65.3859988  79.4866630  71.7174632  65.5217987
  77.8875601  72.4035064  65.3100849  78.6330012  74.7834997  65.1279988
  79.0378245  75.7068224  65.0672266  77.6336671  74.6576560  65.0532090
  85.5650012  74.7454997  63.8849988  85.2610012  74.4274997  62.7319988
  86.3780012  75.7694997  64.1489988  86.6118940  76.0034800  65.1032769
  86.9010012  76.6144997  63.0819988  86.0912241  76.9286208  62.4234487
  87.5590012  77.8604997  63.6759988  86.7822012  78.5028673  64.0907816
  88.2381227  77.5527107  64.4710836  88.2820012  78.5724997  62.6869988
  88.6853676  79.3487936  63.0822999  87.8950012  75.8924997  62.1849988
  88.2480012  76.4264997  61.1279988  88.3560012  74.7044997  62.5739988
  88.0582194  74.3246095  63.4611903  89.3310012  73.9534997  61.7929988
  89.8259490  74.6124697  61.0796375  90.3930012  73.3494997  62.7209988
  89.8217934  72.6589746  63.3414792  91.1002965  72.7883664  62.1102920
  91.1560012  74.3264997  63.6159988  90.4819758  74.7020713  64.3858926
  92.3400012  73.6344997  64.2729988  93.0147531  73.2590406  63.5036880
  92.8712457  74.3450818  64.9062073  91.9839027  72.8026442  64.8807083
  91.6140012  75.5434997  62.8249988  90.7459269  76.0547853  62.4089057
  92.1542580  76.2233928  63.4837621  92.2702837  75.2251214  62.0150436
  88.6960012  72.8544997  60.9519988  89.1040012  72.6404997  59.8059988
  87.7050012  72.1474997  61.4939988  87.3545023  72.3915376  62.4092558
  87.1420012  70.9794997  60.8269988  87.7620060  70.7041243  59.9738507
  87.0850012  69.7904997  61.7959988  86.4434708  70.0847893  62.6266200
  86.6230989  68.9639917  61.2559701  88.4330012  69.3534997  62.3299988
  89.6130012  69.7764997  61.7319988  89.5545813  70.4317729  60.8629167
  90.8410012  69.3834997  62.2169988  91.7575806  69.7244818  61.7356308
  90.9070012  68.5544997  63.3139988  92.1350012  68.1654997  63.7949988
  92.8672801  68.5293640  63.2920376  89.7520012  68.1174997  63.9289988
  89.8021732  67.4607804  64.7975050  88.5250012  68.5184997  63.4359988
  87.6073114  68.1790939  63.9163625  85.7540012  71.2194997  60.2489988
  85.4840012  70.8104997  59.1159988  84.8640012  71.8704997  60.9949988
  85.1498691  72.2181594  61.8991622  83.4710012  72.0474997  60.5939988
  83.3656416  71.8321048  59.5307003  82.5580012  71.1064997  61.3749988
  83.0399774  70.1288640  61.3801578  82.4893780  71.4825693  62.3957644
  81.1710012  70.9804997  60.7909988  80.9830012  70.5424997  59.4879988
  81.8564040  70.2863560  58.8882844  79.7170012  70.4284997  58.9479988
  79.5832594  70.0786843  57.9243561  78.6190012  70.7594997  59.7119988
  77.3550012  70.6484997  59.1789988  77.3565904  70.3326148  58.2724592
  78.7800012  71.2014997  61.0059988  77.9112909  71.4656082  61.6090656
  80.0490012  71.3094997  61.5389988  80.1821087  71.6579389  62.5631924
  83.0390012  73.4944997  60.7819988  82.0010012  73.7924997  61.3769988
  83.8450012  74.4254997  60.2779988  84.7097971  74.1581363  59.8299539
  83.5400012  75.8484997  60.4009988  83.2596007  76.0792404  61.4287310
  84.7570012  76.6874997  60.0279988  85.6127300  76.3433777  60.6088666
  84.9620133  76.5536417  58.9658537  84.5500012  78.1644997  60.2989988
  83.8760012  78.5434997  61.2569988  85.1320012  79.0074997  59.4539988
  85.0275079  80.0032840  59.5866427  85.6764762  78.6490063  58.6825520
  82.3490012  76.1754997  59.5109988  82.4900012  76.3554997  58.2999988
  81.1650012  76.2544997  60.1119988  81.0977806  76.0469845  61.0981621
  79.9420012  76.5544997  59.3859988  80.0519137  76.2700475  58.3395259
  78.7700012  75.7784997  59.9819988  78.8248130  75.8701231  61.0667568
  77.8464974  76.2347772  59.6255557  78.7900012  74.3144997  59.5979988
  79.8950012  73.7454997  59.4789988  77.7010012  73.7324997  59.4129988
  79.6910012  78.0604997  59.3979988  80.5540012  78.8544997  59.7829988
  78.4980012  78.4704997  58.9739988  77.8269073  77.7960886  58.6350267
  78.1410012  79.8854997  58.9279988  78.9547944  80.4574897  58.4822778
  76.8850012  80.0914997  58.0899988  76.8436877  79.3257394  57.3153998
  76.0161285  79.9960995  58.7411970  76.8460012  81.4534997  57.4269988
  77.7850012  82.2384997  57.5449988  75.7590012  81.7364997  56.7179988
  75.6805439  82.6305797  56.2547870  75.0159274  81.0563040  56.6453625
  77.9500012  80.3854997  60.3529988  76.9130012  80.1474997  60.9759988
  78.9690012  81.0754997  60.8689988  79.7886507  81.1884878  60.2897686
  79.0200012  81.5674997  62.2489988  80.0521049  81.8008855  62.5105175
  78.1710012  82.8334997  62.4259988  78.5259214  83.3914008  63.2925305
  78.2549667  83.4554437  61.5347999  76.3830012  82.6414997  62.5839988
  78.6330012  80.4814997  63.2529988  78.0140012  80.7444997  64.2859988
  79.0230012  79.2414997  62.9449988  79.3558843  79.0622436  62.0084330
  78.9160012  78.1134997  63.8709988  79.2520385  77.2024766  63.3758067
  79.7790012  78.3404997  65.1169988  79.4485351  79.2391729  65.6378422
  79.6990773  77.4834708  65.7857392  81.2390012  78.5244997  64.8279988
  81.8600012  78.4094997  63.6179988  81.2312382  78.1552838  62.7646927
  83.2050012  78.6514997  63.7509988  83.8835236  78.6284918  63.0032171
  83.4780012  78.9284997  65.0649988  84.6860012  79.2334997  65.6859988
  85.5899564  79.2704715  65.0780542  84.6600012  79.4694997  67.0329988
  85.5862924  79.7124643  67.5536259  83.4680012  79.4064997  67.7629988
  83.4607888  79.5961150  68.8363550  82.2680012  79.1034997  67.1499988
  81.3671936  79.0711565  67.7628612  82.2620012  78.8564997  65.7729988
  77.4740012  77.8274997  64.2789988  77.1920012  77.5734997  65.4519988
  76.5470012  77.8634997  63.3259988  76.7800220  78.1658779  62.3909223
  75.1550012  77.5364997  63.6209988  75.0588734  77.2349181  64.6640267
  74.2280012  78.7324997  63.3459988  74.3190094  79.0177217  62.2979214
  72.7830012  78.3674997  63.6479988  72.6911080  78.0825915  64.6960845
  72.1414698  79.2256485  63.4477019  72.4791945  77.5322586  63.0169891
  74.6490012  79.9314997  64.1939988  75.6733481  80.1802684  63.9166395
  73.9908503  80.7600038  63.9322396  74.5770012  79.6824997  65.6819988
  75.2352908  78.8543733  65.9446035  74.8908849  80.5790679  66.2165468
  73.5527928  79.4341062  65.9602032  74.7380012  76.3204997  62.8059988
  74.2890012  76.4484997  61.6619988  74.8960012  75.1314997  63.3849988
  75.3540428  75.0583329  64.2821854  74.4580012  73.9024997  62.7289988
  73.4896519  74.0649240  62.2556943  75.4560012  73.4734997  61.6609988
  75.4067556  74.1804839  60.8328397  76.4570143  73.4888298  62.0920879
  75.1670012  72.1734997  61.1879988  75.8084203  71.9269666  60.5176236
  74.3000012  72.8314997  63.7979988  75.3000012  72.3194997  64.3079988
  73.0580012  72.4964997  64.1339988  72.2770452  72.9802388  63.7142326
  72.7810012  71.4934997  65.1619988  73.6524476  71.3685812  65.8047084
  71.6000012  71.9344997  66.0219988  71.4577864  71.2054397  66.8197116
  71.8288669  72.9076329  66.4564319  70.4150012  72.0284997  65.2519988
  69.6888878  72.3069250  65.8148829  72.5300012  70.1254997  64.5309988
  71.4990012  69.4874997  64.7449988  73.4990012  69.6734997  63.7359988
  74.2781594  70.2662788  63.4877556  73.4320012  68.3364997  63.1509988
  72.7198293  67.7266120  63.7068292  72.9780012  68.4094997  61.6889988
  72.7480744  67.3982575  61.3534065  72.0745853  69.0182472  61.6520370
  74.0300012  69.0134997  60.7849988  74.4260012  70.1704997  61.0269988
  74.4650012  68.3284997  59.8349988  74.7360012  67.5604997  63.2139988
  74.6950012  66.3274997  63.1339988  75.8860012  68.2144997  63.3529988
  75.8905271  69.2192411  63.4558262  77.1620012  67.5194997  63.3199988
  77.1733388  66.8068439  62.4953216  78.3090012  68.5084997  63.1259988
  78.1319956  69.0848612  62.2179367  78.4010012  69.4504997  64.3129988
  78.5784751  68.8748609  65.2214274  79.2232662  70.1494631  64.1599321
  77.4674081  70.0044699  64.4110882  79.5430012  67.7944997  62.9999988
  80.2625569  68.4181913  62.8781443  77.3810012  66.7244997  64.6039988
  76.7340012  66.9464997  65.6319988  78.3130012  65.7794997  64.5289988
  78.6983562  65.5360864  63.6276937  78.7620012  65.0344997  65.6949988
  77.9563959  64.9641608  66.4258556  79.1760012  63.6194997  65.2859988
  80.0460773  63.6607812  64.6307412  79.4140418  63.0251782  66.1681658
  78.1140012  62.8734997  64.5409988  77.0180012  62.3174997  65.1649988
  76.8381894  62.3622649  66.1578550  76.2550012  61.7264997  64.2639988
  75.3347760  61.2236179  64.5613108  76.8140012  61.8794997  63.0779988
  77.9780012  62.5944997  63.2229988  78.5875902  62.8263341  62.3496402
  79.9130012  65.7224997  66.4129988  80.3180012  65.2664997  67.4869988
  80.4460012  66.8064997  65.8439988  80.1442267  67.1145603  64.9306915
  81.5260012  67.5364997  66.4979988  82.3171259  66.8477239  66.7943242
  82.1130012  68.5704997  65.5379988  82.4799037  67.9685894  64.7066230
  81.3024695  69.2117627  65.1917038  83.2500012  69.4354997  66.0809988
  83.0028314  69.7452047  67.0964252  84.5560012  68.6624997  66.0919988
  84.8040843  68.3528361  65.0767835  85.3513736  69.2974904  66.4822168
  84.4518642  67.7812037  66.7249074  83.3840012  70.7054997  65.2629988
  82.4531673  71.2704286  65.3130282  84.1978108  71.3110529  65.6618979
  83.5974713  70.4491002  64.2253144  81.0470012  68.2054997  67.7799988
  81.7980012  68.2944997  68.7579988  79.8010012  68.6744997  67.7979988
  79.2330859  68.6193190  66.9646161  79.2490012  69.3474997  68.9669988
  79.9662941  70.0714149  69.3536987  77.9600012  70.0884997  68.5889988
  77.7039733  70.5488816  69.5432511  78.2478568  70.8630332  67.8781282
  76.7450012  69.3244997  68.0479988  77.1126069  68.5283542  67.4006046
  75.8860012  68.7234997  69.1539988  75.5176271  69.5191388  69.8015771
  75.0412888  68.1950256  68.7120972  76.4838036  68.0258501  69.7405290
  75.9110012  70.2334997  67.1589988  76.5173844  70.5800893  66.3221747
  75.0507174  69.6819590  66.7797678  75.5662134  71.0909787  67.7368829
  78.9940012  68.3994997  70.1309988  78.6080012  68.8624997  71.2089988
  79.1940012  67.0924997  69.9449988  79.3787856  66.7209770  69.0241703
  79.0910012  66.1584997  71.0589988  78.1294826  66.2822598  71.5572605
  79.2010012  64.7164997  70.5599988  80.0724979  64.6809897  69.9062926
  79.3719340  64.0790247  71.4274708  77.9870012  64.2264997  69.8069988
  76.7860012  64.9174997  69.8609988  76.7291192  65.8291389  70.4557910
  75.6730012  64.4684997  69.1769988  74.7356189  65.0228849  69.2225335
  75.7540012  63.3114997  68.4319988  74.6490012  62.8574997  67.7479988
  73.8804639  63.4217465  67.8601394  76.9340012  62.6044997  68.3679988
  76.9973890  61.6886106  67.7804363  78.0410012  63.0624997  69.0539988
  78.9779279  62.5072593  69.0095412  80.1430012  66.4044997  72.1299988
  79.9860012  65.9114997  73.2509988  81.2060012  67.1504997  71.8179988
  81.3537932  67.4587040  70.8675952  82.2150012  67.4804997  72.8159988
  82.5056506  66.5859372  73.3667984  83.4560012  68.0914997  72.1379988
  84.2495224  68.1992640  72.8774656  83.9330012  67.1974997  71.0129988
  83.1401238  67.0896292  70.2728568  84.8104481  67.6413179  70.5426658
  84.1923193  66.2170299  71.4124136  83.1360012  69.4784997  71.5889988
  82.3743111  69.3618552  70.8180753  82.7344473  70.0744816  72.4085472
  84.3350012  70.1714997  71.0069988  84.7368576  69.5762985  70.1870311
  84.0423938  71.1528369  70.6335589  85.0969951  70.2889228  71.7775031
  81.6910012  68.4234997  73.8859988  82.3680012  68.6394997  74.8959988
  80.5090012  69.0014997  73.6829988  80.0928114  68.9485796  72.7642578
  79.8280012  69.7794997  74.7039988  80.4871838  69.9736484  75.5500979
  79.3250012  71.1194997  74.1259988  78.8467291  70.9296767  73.1651016
  78.3300012  71.7744997  75.0649988  78.8077164  71.9650675  76.0260256
  77.9903559  72.7169545  74.6354401  77.4759028  71.1128326  75.2092620
  80.5020012  72.0554997  73.8599988  81.1708840  71.5495466  73.1637890
  80.1041261  72.9557042  73.3915687  81.2650012  72.4324997  75.1059988
  81.6635990  71.5327884  75.5747623  82.0865187  73.0984880  74.8420523
  80.5968399  72.9389443  75.8025433  78.6840012  68.9934997  75.3309988
  78.5020012  69.0234997  76.5499988  77.9210012  68.2704997  74.5189988
  78.0894419  68.3110161  73.5239684  76.8050012  67.4674997  74.9979988
  76.3269916  67.9590818  75.8453198  75.7690012  67.2954997  73.8839988
  76.2422999  66.8552449  73.0063523  74.9520445  66.6545874  74.2155307
  75.1490012  68.5824997  73.4359988  73.9750012  69.0684997  73.9679988
  73.4394678  68.6086549  74.6903882  73.6710012  70.2154997  73.3869988
  72.7702713  70.7606169  73.6691899  74.6090012  70.4924997  72.4999988
  75.5460012  69.4884997  72.5129988  76.4072495  69.5381401  71.8467493
  77.2370012  66.1024997  75.5169988  76.3910012  65.3404997  75.9919988
  78.5240012  65.7764997  75.4319988  79.1734413  66.4131985  74.9927477
  79.0330012  64.5304997  75.9509988  78.2417140  63.7839788  75.8826584
  79.8764512  64.2227992  75.3329277  79.4900012  64.6344997  77.3929988
  79.0540012  63.8694997  78.2579988  80.3930012  65.5804997  77.6819988
  81.2730012  66.3124997  76.7539988  80.7069960  67.1083475  76.2698867
  81.6531023  65.6258180  75.9976322  82.3590012  66.8384997  77.6469988
  82.7057188  67.7990353  77.2658726  83.1891377  66.1322353  77.6598573
  81.7610012  66.9754997  78.9939988  81.2337509  67.9260287  79.0752440
  82.4962952  66.8988457  79.7949772  80.7620012  65.8154997  79.0879988
  81.2343807  64.9080383  79.4641234  79.5720012  66.1634997  79.9599988
  79.5310012  65.7764997  81.1349988  78.5960012  66.8894997  79.4119988
  78.7126146  67.3129801  78.5025127  77.3640012  67.1584997  80.1479988
  77.5731658  67.5677992  81.1363425  76.4780012  68.1404997  79.3639988
  76.5960283  67.9456585  78.2980687  75.0190012  67.9784997  79.7489988
  74.9001010  68.1736508  80.8147752  74.4123534  68.6838837  79.1810968
  74.6951554  66.9614451  79.5280392  76.9420012  69.5744997  79.6039988
  76.7077048  69.8258093  80.6384307  78.0223058  69.5975390  79.4607839
  76.2940012  70.5734997  78.6869988  75.2136469  70.5513667  78.8299839
  76.6694780  71.5715915  78.9126733  76.5282463  70.3230948  77.6523363
  76.6360012  65.8534997  80.4399988  76.1450012  65.6284997  81.5529988
  76.5650012  64.9664997  79.4439988  76.8582723  65.2032021  78.5069484
  75.9960012  63.6444997  79.6769988  74.9939936  63.7394224  80.0954121
  75.9050012  62.8694997  78.3619988  75.6386561  63.5390735  77.5441782
  76.8561013  62.3856745  78.1396886  74.6630012  61.5574997  78.3599988
  74.8898076  61.1532586  77.1133849  76.8110012  62.8664997  80.6989988
  76.2410012  62.1714997  81.5469988  78.1400012  62.9694997  80.6359988
  78.5935830  63.4192040  79.8536121  78.9770012  62.3744997  81.6719988
  78.7400939  61.3140910  81.7586447  80.4530012  62.5164997  81.3019988
  80.7076521  63.5731987  81.2205125  81.0677783  62.0536238  82.0739413
  80.6377834  62.0240988  80.3472757  78.6970012  63.0124997  83.0269988
  78.6230012  62.3204997  84.0469988  78.5380012  64.3384997  83.0519988
  78.7049712  64.9006592  82.2296868  78.1760012  65.0164997  84.2909988
  78.8942334  64.7403122  85.0629846  78.2240012  66.5314997  84.0989988
  77.5035809  66.8244797  83.3352858  77.9774194  67.0253678  85.0388881
  79.2252948  66.8270060  83.7856519  76.7980012  64.5914997  84.7749988
  76.5650012  64.5004997  85.9859988  75.8700012  64.3424997  83.8499988
  76.0475512  64.5205112  82.8717926  74.5500012  63.8584997  84.2359988
  74.1084377  64.5256333  84.9763052  73.6350012  63.8114997  83.0139988
  73.5982908  64.8523034  82.6923171  74.0987342  63.2069755  82.2345103
  72.2140012  63.3074997  83.2719988  72.2478645  62.5334116  84.0386420
  71.3170012  64.4444997  83.7389988  71.2822693  65.2188167  82.9726270
  70.3109198  64.0646770  83.9168632  71.7143620  64.8656210  84.6625038
  71.6480012  62.6254997  82.0369988  72.2773863  61.7767547  81.7694061
  70.6368873  62.2758854  82.2456131  71.6232984  63.3341296  81.2091507
  74.6370012  62.4844997  84.8879988  73.9930012  62.2284997  85.9129988
  75.4330012  61.5854997  84.3069988  75.9631480  61.8192931  83.4797236
  75.5040012  60.2194997  84.8099988  74.5035371  59.8585496  85.0485065
  76.1170012  59.2984997  83.7529988  76.7639741  59.9728100  83.1919009
  76.7257349  58.5498055  84.2599508  75.1480012  58.6024997  82.7909988
  75.7209192  58.0246011  82.0658098  74.2160012  57.6744997  83.5559988
  73.6423727  58.2517902  84.2811090  73.5341328  57.1878601  82.8586192
  74.8028758  56.9180953  84.0770852  74.3520012  59.6024997  81.9659988
  75.0355157  60.2148908  81.3778794  73.6774749  59.0675462  81.2974628
  73.7718603  60.2425915  82.6306927  76.2900012  60.1174997  86.1099988
  75.9200012  59.3284997  86.9879988  77.3670012  60.8934997  86.2569988
  77.7087890  61.4714689  85.5025241  78.1410012  60.8414997  87.4949988
  78.3795987  59.8219722  87.7978752  79.4580012  61.6324997  87.3449988
  79.9852662  61.2728960  86.4613835  79.1830012  63.1134997  87.1999988
  78.6561274  63.4739489  88.0835039  80.1259845  63.6501750  87.0957756
  78.5685271  63.2846442  86.3161250  80.3850012  61.3644997  88.5219988
  80.6172246  60.3004887  88.5673299  81.3069780  61.9320172  88.3955782
  79.8956269  61.6687858  89.4472142  77.3060012  61.3384997  88.6659988
  77.5420012  60.9504997  89.8169988  76.3180012  62.1974997  88.4009988
  76.2406589  62.6509861  87.5018505  75.3520012  62.5464997  89.4369988
  75.8718525  62.9382610  90.3112852  74.3850012  63.6134997  88.9249988
  74.3072042  63.5154200  87.8422120  73.4052318  63.4536380  89.3751058
  74.8430012  65.0154997  89.2509988  75.4000012  65.2634997  90.3179988
  74.6010012  65.9434997  88.3349988  74.8856583  66.8983336  88.5004143
  74.1331589  65.6911305  87.4762006  74.5880012  61.3134997  89.8979988
  74.4060012  61.0954997  91.1009988  74.1430012  60.4854997  88.9509988
  74.2522506  60.7030820  87.9707836  73.4250012  59.2704997  89.3129988
  72.5750800  59.5160387  89.9497434  72.9080012  58.5704997  88.0569988
  73.7952639  58.4524626  87.4349608  72.5252233  57.5880085  88.3332095
  71.8370012  59.3334997  87.2769988  72.2188367  60.3242049  87.0304109
  71.4770012  58.5964997  85.9969988  71.0946282  57.6058116  86.2428176
  70.7133694  59.1564834  85.4571974  72.3645248  58.4980328  85.3719336
  70.6070012  59.5494997  88.1399988  70.8795862  60.1254394  89.0243575
  69.8538966  60.0939675  87.5703589  70.2030634  58.5844115  88.4458389
  74.3020012  58.3284997  90.1249988  73.8170012  57.6814997  91.0599988
  75.5890012  58.2384997  89.7879988  75.9430261  58.6881402  88.9557794
  76.5090012  57.4314997  90.5829988  76.1294021  56.4142379  90.6788226
  77.8780012  57.3804997  89.8989988  77.8271980  56.7677463  88.9989701
  78.1992017  58.3879283  89.6343898  78.9620012  56.7954997  90.7559988
  79.0140012  55.4334997  91.0019988  78.2548392  54.7842923  90.5657618
  80.0130012  54.8954997  91.7899988  80.0421143  53.8220333  91.9768761
  80.9750012  55.7184997  92.3409988  81.7648614  55.2972184  92.9628853
  80.9350012  57.0764997  92.1029988  81.6924718  57.7293057  92.5367990
  79.9350012  57.6084997  91.3149988  79.9033292  58.6813781  91.1251867
  76.6330012  57.9774997  91.9989988  76.5750012  57.2234997  92.9779988
  76.8040012  59.2934997  92.1289988  76.8727896  59.8948355  91.3204428
  76.9620012  59.8904997  93.4499988  77.6439938  59.2901660  94.0521488
  77.5370012  61.3014997  93.3209988  77.3242255  61.7036397  92.3304892
  77.1016882  61.9533585  94.0784172  79.0260012  61.3684997  93.5009988
  79.5870012  61.2794997  94.7639988  78.9345935  61.1600303  95.6289792
  80.9570012  61.3404997  94.9349988  81.3857133  61.2685585  95.9345642
  81.7820012  61.4924997  93.8399988  82.8629263  61.5415481  93.9715096
  81.2360012  61.5824997  92.5759988  81.8842635  61.7030508  91.7080566
  79.8630012  61.5194997  92.4109988  79.4302493  61.5891056  91.4130104
  75.6410012  59.9184997  94.2079988  75.5830012  59.5654997  95.3919988
  74.5610012  60.3294997  93.5379988  74.6030109  60.5464700  92.5524743
  73.3020012  60.5504997  94.2419988  73.4809085  61.1114934  95.1592650
  72.3420012  61.3484997  93.3609988  72.9857811  62.0922549  92.8914513
  71.9603217  60.6671252  92.6006373  71.1710012  62.0504997  94.0499988
  71.4569141  62.3044588  95.0707139  70.8040012  63.3164997  93.2979988
  70.5175102  63.0632795  92.2772631  69.9691342  63.8075850  93.7979318
  71.6613821  63.9892509  93.2778974  69.9700012  61.1294997  94.1489988
  70.2366950  60.2446549  94.7269465  69.1505754  61.6519165  94.6426822
  69.6584005  60.8291039  93.1486156  72.6670012  59.2374997  94.6839988
  72.1330012  59.1474997  95.7949988  72.7060012  58.2124997  93.8289988
  73.1050590  58.3054608  92.9058463  72.0980012  56.9364997  94.1949988
  71.0661367  57.0937362  94.5090555  72.1050012  55.9844997  93.0009988
  73.0709239  56.1677565  92.5303509  72.0689543  54.9587309  93.3678762
  70.9900012  56.1984997  91.9759988  71.0739431  57.2067960  91.5705446
  71.0940012  55.1874997  90.8449988  71.0096761  54.1789126  91.2496471
  70.2908064  55.3592648  90.1284266  72.0561798  55.2985630  90.3450212
  69.6260012  56.1244997  92.6429988  69.5531332  56.8966333  93.4088965
  68.8470324  56.2793287  91.8964488  69.4984130  55.1444012  93.1025934
  72.8110012  56.3114997  95.3869988  72.1790012  55.6564997  96.2239988
  74.1280012  56.4994997  95.4789988  74.6528884  56.9162501  94.7234117
  74.8560012  56.0444997  96.6579988  74.6631876  54.9853048  96.8283759
  76.3580012  56.2414997  96.4589988  76.5742715  56.2354639  95.3906870
  76.6442868  57.2045519  96.8816937  77.1790012  55.1574997  97.1249988
  76.7780012  54.5944997  98.1439988  78.3380012  54.8564997  96.5519988
  78.9259877  54.1406845  96.9544666  78.6264902  55.3446876  95.7162073
  74.3790012  56.7744997  97.9069988  74.3050012  56.1844997  98.9919988
  74.0540012  58.0614997  97.7719988  74.2410061  58.5556651  96.9112264
  73.4930012  58.8104997  98.8919988  74.1198097  58.6940539  99.7761088
  73.3820012  60.3044997  98.5349988  72.7657409  60.4103557  97.6421840
  72.7540012  61.0794997  99.6769988  73.3699857  60.9744928 100.5701042
  72.6837778  62.1330657  99.4065029  71.7561580  60.6888448  99.8764904
  74.7610012  60.8824997  98.2199988  75.3635882  60.8105349  99.1254327
  75.2059842  60.2670155  97.4381619  74.7120012  62.3184997  97.7619988
  74.2675323  62.9347138  98.5435533  75.7230756  62.6689799  97.5546551
  74.1099259  62.3911945  96.8562832  72.1420012  58.2294997  99.2909988
  71.7920012  58.1854997 100.4749988  71.3610012  57.7774997  98.3079988
  71.6182091  57.8991016  97.3388979  70.0700012  57.1664997  98.6099988
  69.4434409  57.8132199  99.2242254  69.3140012  56.8404997  97.3089988
  69.9004299  56.1299136  96.7265316  67.9530012  56.2384997  97.6209988
  67.3657834  56.9487396  98.2030945  67.4323110  56.0141661  96.6900548
  68.0838925  55.3204363  98.1938241  69.1650012  58.0854997  96.4539988
  70.1517259  58.4738806  96.2017358  68.6283247  57.8361710  95.5386227
  68.6077879  58.8419033  97.0066901  70.2580012  55.9254997  99.4709988
  69.5160012  55.7014997 100.4349988  71.2570012  55.1024997  99.1429988
  71.8549864  55.3084352  98.3555322  71.4710012  53.8534997  99.8659988
  70.5567015  53.2600843  99.8696658  72.5760012  53.0444997  99.1849988
  72.1844572  52.7176637  98.2216863  73.4146960  53.7220078  99.0247681
  73.0460012  51.8354997  99.9769988  73.4119639  52.1742704 100.9462286
  72.1999931  51.1639244 100.1231463  74.1560012  51.0994997  99.2459988
  74.4087796  50.1968967  99.8023349  73.8043865  50.8259951  98.2511813
  75.3580012  51.9164997  99.1089988  75.4773830  52.4203417  98.2418249
  76.2940012  52.0354997 100.0459988  77.3540012  52.8024997  99.8329988
  77.4484847  53.2961521  98.9569393  78.0622556  52.8896944 100.5477521
  76.1690012  51.3864997 101.1959988  75.3611598  50.8021564 101.3573534
  76.8822340  51.4796453 101.9050273  71.8120012  54.1044997 101.3309988
  71.2850012  53.4334997 102.2259988  72.6940012  55.0714997 101.5969988
  73.1155803  55.6182156 100.8597932  73.1510012  55.2874997 102.9669988
  73.3790641  54.3580475 103.4887317  74.4090012  56.1804997 102.9779988
  75.1431515  55.7565759 102.2928629  74.0780012  57.6004997 102.5499988
  73.3442019  58.0252799 103.2349815  74.9839670  58.2063216 102.5674959
  73.6680679  57.5899135 101.5400759  75.0650012  56.1664997 104.3509988
  75.3543189  55.1469127 104.6056354  75.9502768  56.8022762 104.3377743
  74.3609606  56.5402653 105.0944548  72.0360012  55.8624997 103.8339988
  72.0080012  55.6344997 105.0499988  71.1000012  56.6074997 103.2389988
  71.1549056  56.8362120 102.2567689  70.0060012  57.1754997 104.0219988
  70.4030903  57.6743514 104.9060612  69.2320012  58.1984997 103.1899988
  69.4274734  57.8786305 102.1664884  68.1709344  58.0814603 103.4103149
  69.6270012  59.6704997 103.3489988  69.0767887  60.2677664 102.6219228
  69.3010012  60.1554997 104.7539988  69.8512398  59.5589683 105.4816571
  69.5868045  61.2027043 104.8528913  68.2311087  60.0527306 104.9352972
  71.0960012  59.9004997 103.0339988  71.2985614  59.6023352 102.0053264
  71.3338943  60.9568406 103.1591064  71.7105455  59.3075027 103.7113382
  69.0660012  56.0994997 104.5499988  68.4860012  56.2614997 105.6299988
  68.8980012  54.9984997 103.8119988  69.3293201  54.9103190 102.9029952
  68.0190012  53.9274997 104.2669988  67.0729065  54.3389716 104.6187017
  67.7510012  52.9254997 103.1279988  68.6110627  52.2626090 103.0332863
  66.5040012  52.1004997 103.4149988  65.6433794  52.7627092 103.5093889
  66.3348940  51.4001090 102.5971012  66.6396955  51.5472004 104.3442706
  67.5850012  53.6604997 101.7979988  68.4672661  54.2861340 101.6627545
  67.5525545  52.9045439 101.0134112  66.3400012  54.5204997 101.7219988
  66.3719536  55.2770381 102.5060450  66.2938246  55.0086142 100.7484942
  65.4572415  53.8954478 101.8567041  68.5880012  53.2134997 105.4879988
  67.8490012  52.5184997 106.1959988  69.8860012  53.3714997 105.7599988
  70.4867285  53.9043646 105.1473970  70.4840012  52.7224997 106.9229988
  70.2894128  51.6502988 106.8980995  71.9970012  52.9444997 106.9309988
  72.2032013  53.9733536 107.2260265  72.6690012  51.9924997 107.9089988
  72.4636210  50.9633779 107.6143346  73.7454179  52.1639056 107.9022037
  72.2801285  52.1671461 108.9121823  72.5220012  52.7184997 105.6169988
  73.4717607  52.8581957 105.6234971  69.8720012  53.2254997 108.2229988
  69.6250012  52.4324997 109.1399988  69.6210012  54.5264997 108.3249988
  69.8771262  55.1488847 107.5719143  69.0290012  55.1024997 109.5269988
  69.5614606  54.7426125 110.4073778  69.1150012  56.6314997 109.4939988
  68.7249737  56.9509675 108.5276044  68.4670694  57.0034613 110.2876795
  70.5180012  57.1874997 109.6829988  70.4390285  58.1728061 110.1423846
  71.0663064  56.5200996 110.3478601  71.2570012  57.3034997 108.3599988
  71.1185840  56.3766065 107.8033942  70.8297369  58.1326379 107.7960178
  72.7410012  57.5484997 108.5739988  72.8713744  58.5667019 108.9405607
  73.1004715  56.8440389 109.3240757  73.5160012  57.3714997 107.3159988
  73.1833528  58.0244719 106.6209649  74.4949445  57.5419556 107.4968706
  73.3956729  56.4279477 106.9763964  67.5770012  54.6644997 109.6859988
  66.7090012  55.4684997 110.0269988  62.3290012  62.0784997 106.5689988
  61.5769090  62.4272483 105.9920836  63.1440012  63.0414997 107.2979988
  62.6129610  63.3739737 108.1899385  64.4700012  62.4074997 107.7259988
  64.3088457  61.3420653 107.8902477  65.2005799  62.5452914 106.9288989
  65.0220012  63.0154997 108.9989988  65.2630012  64.2214997 109.0719988
  65.2300012  62.1824997 110.0119988  65.5970301  62.5349578 110.8844452
  65.0202181  61.2002962 109.9053770  63.4050012  64.2834997 106.4529988
  63.0210012  64.3424997 105.2859988  64.0510012  65.2834997 107.0549988
  64.2722258  65.2496654 108.0398918  64.3850012  66.4924997 106.3129988
  63.5496125  66.7830218 105.6759573  64.6800012  67.6364997 107.2839988
  64.9346289  68.4490661 106.6035579  63.7529245  67.8763365 107.8046783
  65.8070012  67.4544997 108.3059988  65.8776190  66.3949841 108.5520492
  67.1460012  67.9404997 107.7669988  67.0762954  69.0001198 107.5211427
  67.9174970  67.7933988 108.5228137  67.4038640  67.3762938 106.8707405
  65.4630012  68.1594997 109.6099988  64.5436504  67.7402135 110.0187685
  66.2744564  68.0197658 110.3242229  65.3241479  69.2242098 109.4223523
  65.5580012  66.2664997 105.3679988  65.6690012  66.9514997 104.3439988
  66.4440012  65.3224997 105.6959988  66.3550261  64.8009139 106.5563075
  67.6010012  65.0634997 104.8469988  68.1405004  65.9915045 104.6576662
  68.5470012  64.0804997 105.5369988  68.1029825  63.0891370 105.4467396
  69.4925385  64.1052389 104.9952912  68.7940012  64.3904997 106.9949988
  69.6320012  65.4284997 107.3729988  70.1160637  66.0231972 106.5983261
  69.8580012  65.7144997 108.7059988  70.5166125  66.5354403 108.9895292
  69.2450012  64.9554997 109.6789988  69.4670012  65.2334997 111.0079988
  70.0633088  65.9738407 111.1418348  68.4090012  63.9164997 109.3289988
  67.9239228  63.3146777 110.0975102  68.1880012  63.6404997 107.9939988
  67.5277953  62.8214072 107.7088394  67.1830012  64.5294997 103.4829988
  67.7210012  64.9524997 102.4529988  66.2220012  63.6024997 103.4539988
  65.8189781  63.2468662 104.3090991  65.7890012  63.0184997 102.1909988
  66.6559675  62.7266850 101.5982823  64.9330012  61.7734997 102.4529988
  64.6860270  61.3595006 101.4753957  65.5684948  61.0723197 102.9939187
  63.6490012  62.0104997 103.2439988  63.3588567  61.0477916 103.6648435
  63.9014877  62.6980646 104.0512206  62.2660012  62.6864997 102.2989988
  61.8290012  61.2794997 101.2819988  61.5512119  60.4411090 101.9207736
  60.9874273  61.5414546 100.6407237  62.6819156  60.9980477 100.6644043
  65.0350012  64.0134997 101.3179988  64.8980012  63.7784997 100.1129988
  64.5440012  65.1124997 101.8949988  64.5764189  65.2394962 102.8964579
  63.8880012  66.1344997 101.0899988  63.1207775  65.6794397 100.4635904
  63.2260012  67.1744997 101.9959988  63.9821126  67.5133536 102.7042168
  62.9228798  68.0080342 101.3624076  62.0190012  66.6514997 102.7559988
  61.3469163  66.1659815 102.0484149  62.3606197  65.9223880 103.4907062
  61.2820012  67.7764997 103.4639988  61.9614114  68.2407979 104.1787910
  60.9777158  68.5137641 102.7210648  60.0550012  67.2584997 104.1949988
  60.3754673  66.8469293 105.1520839  59.3806699  68.0971685 104.3682362
  59.3470012  66.2054997 103.4139988  59.9715450  65.4280936 103.2537351
  58.5399684  65.8878705 103.9315988  59.0495914  66.5867860 102.5272816
  64.8570012  66.8154997 100.1349988  64.4220012  67.4134997  99.1449988
  66.1590012  66.7364997 100.4099988  66.4593138  66.3449771 101.2912602
  67.1750012  67.2394997  99.4959988  66.7965211  68.1408091  99.0138230
  68.4480012  67.5954997 100.2679988  68.8439799  66.7010849 100.7489594
  69.1913923  67.9961951  99.5788594  68.2163747  68.3430723 101.0266710
  67.5070012  66.2324997  98.4059988  67.5900012  66.5974997  97.2279988
  67.6990012  64.9694997  98.7849988  67.6433240  64.7111811  99.7598172
  68.0730012  63.9434997  97.8179988  68.8885731  64.2589375  97.1672756
  68.4960012  62.6564997  98.5479988  67.6850787  62.3386853  99.2033598
  68.8020012  61.5544997  97.5519988  69.6131958  61.8714214  96.8965411
  69.0992367  60.6526276  98.0871420  67.9138097  61.3462981  96.9554507
  69.6910012  62.9314997  99.4439988  69.4261769  63.6893429 100.1813208
  69.9812767  62.0136598  99.9552812  70.5244426  63.2891531  98.8393830
  66.9280012  63.6854997  96.8469988  67.1280012  63.6134997  95.6279988
  65.7070012  63.5474997  97.3719988  65.5571199  63.5963406  98.3696207
  64.5650012  63.2504997  96.5149988  64.7779468  62.3758091  95.9004503
  63.3280012  62.9594997  97.3679988  63.6386773  62.2754064  98.1576797
  63.0153079  63.9056034  97.8098252  62.1630012  62.3494997  96.5969988
  62.5569737  61.8765924  95.6974182  61.6921286  61.5949211  97.2270720
  61.1330012  63.3994997  96.2079988  61.5825547  64.0883452  95.4928118
  60.2790131  62.9036405  95.7465582  60.6640012  64.1624997  97.3609988
  61.0973565  65.0590939  97.5295849  59.7130012  63.7514997  98.1929988
  59.1220012  62.5794997  98.0019988  59.3969744  61.9999006  97.2218997
  58.3997286  62.2720716  98.6375379  59.3500012  64.5114997  99.2159988
  59.7984421  65.4046728  99.3617469  58.6265558  64.1940971  99.8452691
  64.2940012  64.3914997  95.5419988  63.9930012  64.1554997  94.3659988
  64.3940012  65.6354997  96.0139988  64.5701317  65.8124668  96.9926509
  64.1840012  66.7784997  95.1309988  63.2088338  66.6847073  94.6531382
  64.2100012  68.0764997  95.9369988  65.1835226  68.1890544  96.4141649
  64.0321242  68.9214711  95.2718046  63.4329299  68.0461539  96.7007649
  65.2280012  66.8104997  94.0239988  64.9070012  67.0574997  92.8569988
  66.4900012  66.5574997  94.3729988  66.7475822  66.3998925  95.3367992
  67.5470012  66.5704997  93.3679988  67.4477076  67.4500780  92.7319313
  68.9150012  66.6114997  94.0479988  69.1049922  65.6474554  94.5198274
  70.0060012  66.9014997  93.0329988  69.8169307  67.8656671  92.5610528
  70.9729673  66.9268817  93.5354243  70.0125631  66.1204682  92.2727045
  68.9210012  67.6404997  95.0459988  69.7801775  67.6666596  95.4734705
  67.4450012  65.3674997  92.4389988  67.7390012  65.4734997  91.2439988
  67.0280012  64.2144997  92.9699988  66.7818528  64.1488698  93.9473437
  66.9790012  63.0004997  92.1609988  67.9509696  62.8205720  91.7016486
  66.6210012  61.7974997  93.0339988  67.4636426  61.7194494  93.7209942
  65.7139239  62.0195080  93.5961582  66.4470012  60.4724997  92.2879988
  65.6153754  60.5714592  91.5903553  67.7090012  60.1044997  91.5229988
  68.5410229  60.0049035  92.2200778  67.5563959  59.1589194  91.0027196
  67.9352927  60.8855724  90.7971765  66.0530012  59.3594997  93.2469988
  65.1114059  59.6145460  93.7332592  65.9350365  58.4275863  92.6940765
  66.8298204  59.2376615  94.0018539  65.9870012  63.1354997  91.0129988
  66.2770012  62.7314997  89.8809988  64.8070012  63.6974997  91.2859988
  64.5771088  64.0015975  92.2212920  63.7810012  63.8024997  90.2519988
  63.6374395  62.8463403  89.7487608  62.4470012  64.2624997  90.8699988
  62.5852627  65.2490021  91.3124885  61.3580012  64.3304997  89.8109988
  61.2188358  63.3441957  89.3683497  60.4246620  64.6574479  90.2693475
  61.6487416  65.0386693  89.0350703  62.0270012  63.3154997  91.9959988
  62.8570491  63.2616447  92.7004282  61.1620578  63.7605769  92.4878104
  61.6760012  61.9214997  91.5229988  62.5406611  61.4755722  91.0314585
  61.3884986  61.3089433  92.3775257  60.8456707  61.9745048  90.8188386
  64.2310012  64.7314997  89.1339988  63.9170012  64.5004997  87.9589988
  64.9740012  65.7854997  89.4699988  65.2337436  65.9533635  90.4314846
  65.3830012  66.7574997  88.4639988  64.5268039  67.0458365  87.8541731
  65.9440012  68.0074997  89.1399988  65.3702339  68.0915231  90.0629453
  66.9929716  67.8331438  89.3795004  65.8130012  69.3034997  88.3389988
  66.4793216  69.2560285  87.4776832  64.3840012  69.4944997  87.8629988
  63.7171015  69.5425311  88.7238336  64.3105883  70.4218948  87.2949763
  64.0969325  68.6563914  87.2279660  66.2640012  70.4844997  89.1699988
  67.3064276  70.3495152  89.4584876  66.1647370  71.3994534  88.5859546
  65.6462440  70.5566428  90.0651359  66.4130012  66.2034997  87.4879988
  66.5690012  66.7604997  86.3969988  67.1160012  65.1334997  87.8439988
  66.9590535  64.6970869  88.7412226  68.2000012  64.6244997  87.0059988
  68.8449381  65.4303978  86.6557364  69.0610012  63.6014997  87.7679988
  68.4133434  62.8275482  88.1798699  70.0760012  62.9674997  86.8349988
  70.7243603  63.7408311  86.4230644  70.6777080  62.2461931  87.3879601
  69.5560546  62.4594195  86.0228339  69.7560012  64.2694997  88.9409988
  69.0092681  64.6819972  89.6194806  70.3617269  63.5347875  89.4714646
  70.3966697  65.0719692  88.5753661  67.6560012  64.0404997  85.7019988
  68.0860012  64.4814997  84.6259988  66.7370012  63.0634997  85.7189988
  66.0620012  62.3994997  86.8459988  65.1989316  62.9870304  87.1590783
  66.7530350  62.2957407  87.6825424  65.6780012  61.0874997  86.2619988
  64.8410530  60.6594444  86.8137102  66.5227696  60.3993732  86.2928144
  65.2990012  61.4014997  84.8559988  64.2576994  61.7203850  84.8101526
  65.4472190  60.5498726  84.1920240  66.2190012  62.5594997  84.4369988
  67.0697865  62.2036900  83.8559119  65.4660012  63.6064997  83.6399988
  65.5140012  63.5844997  82.4039988  64.7750012  64.5284997  84.3099988
  64.7513760  64.5057190  85.3194651  63.9870012  65.5444997  83.6229988
  63.3305868  65.0754398  82.8900579  63.1270012  66.3104997  84.6299988
  63.7281745  66.2693948  85.5382940  63.0427915  67.3450162  84.2971561
  61.7300012  65.7514997  84.9169988  61.2538642  66.3604027  85.6855244
  60.8820012  65.7744997  83.6549988  61.3572955  65.1653958  82.8861122
  59.8921344  65.3743581  83.8744330  60.7878511  66.8002561  83.2985440
  61.7880012  64.3474997  85.5029988  62.3459232  64.3667365  86.4391891
  60.7757529  63.9896669  85.6911751  62.2839112  63.6794969  84.7987655
  64.8410012  66.5204997  82.8279988  64.3060012  67.2104997  81.9539988
  66.1360012  66.5974997  83.1019988  66.5016311  66.0995966  83.9010649
  67.0500012  67.4234997  82.3259988  66.4889302  68.1601405  81.7509693
  68.0170012  68.1634997  83.2599988  68.5611895  67.3598366  83.7560672
  68.7082116  68.7500460  82.6547785  67.3700012  69.0644997  84.3109988
  66.7582747  68.4508601  84.9723142  68.4290012  69.7874997  85.1269988
  69.0408734  70.4017464  84.4663838  67.9455962  70.4231119  85.8689000
  69.0610848  69.0568821  85.6317449  66.4230012  70.0544997  83.6559988
  65.6400576  69.5126393  83.1254462  65.9721489  70.6871750  84.4205610
  66.9760740  70.6753165  82.9511613  67.8430012  66.6284997  81.3039988
  68.1090012  67.1314997  80.2099988  68.2290012  65.3964997  81.6329988
  68.0091477  65.0245037  82.5458968  68.9670012  64.5574997  80.7079988
  69.6235582  65.2144643  80.1375344  69.5689086  63.8754222  81.3084795
  68.1220012  63.7524997  79.7479988  68.6780012  63.0494997  78.8989988
  66.7930012  63.8334997  79.8609988  66.3691387  64.3472511  80.6202743
  65.9200012  63.1054997  78.9459988  66.1814915  62.0506404  78.8623693
  64.4510012  63.2364997  79.3999988  64.3710018  62.9120851  80.4375226
  63.9840012  64.6714997  79.2829988  64.0632761  64.9964980  78.2456019
  62.9459742  64.7439346  79.6075816  64.6059720  65.3089309  79.9114355
  63.5510012  62.2814997  78.6119988  63.4652606  62.6776994  77.6001810
  64.0526919  61.3142964  78.5816045  62.1710012  62.1144997  79.2059988
  61.6684827  63.0812764  79.2362945  61.5921286  61.4237604  78.5929041
  62.2559143  61.7178753  80.2177194  66.1150012  63.5854997  77.5149988
  65.8840012  62.8334997  76.5599988  66.5390012  64.8384997  77.3389988
  66.5923761  65.4871167  78.1113629  66.8790012  65.3214997  76.0059988
  66.0472463  65.1494706  75.3228523  67.1710012  66.8204997  76.0519988
  66.3479366  67.2889041  76.5916851  68.0944265  66.9479196  76.6169322
  67.3180012  67.4724997  74.6889988  66.6718322  66.9372715  73.9932277
  66.9827902  68.5062274  74.7734954  68.7440012  67.4444997  74.1769988
  69.6670012  67.2554997  74.9969988  68.9430012  67.6134997  72.9559988
  68.0680012  64.5614997  75.4359988  68.1310012  64.3044997  74.2279988
  69.0160012  64.1914997  76.2899988  68.8948923  64.3906135  77.2727427
  70.2570012  63.5634997  75.8609988  70.5685800  63.9662604  74.8972552
  71.3580012  63.8414997  76.8859988  71.0474048  63.5273641  77.8824665
  72.2650718  63.3072017  76.6034238  71.7280012  65.2894997  76.9889988
  72.7250012  65.8214997  76.1909988  73.2458588  65.1752710  75.4844608
  73.0620012  67.1554997  76.2829988  73.8529257  67.5618007  75.6525556
  72.3990012  67.9754997  77.1719988  72.6629045  69.0305106  77.2455300
  71.4000012  67.4574997  77.9689988  70.8730739  68.1013660  78.6731891
  71.0680012  66.1224997  77.8739988  70.2766638  65.7117387  78.5010239
  70.1260012  62.0624997  75.6429988  71.0770012  61.4384997  75.1609988
  68.9860012  61.4684997  75.9849988  68.2749062  61.9884799  76.4790269
  68.7640012  60.0504997  75.7479988  69.6777007  59.5403335  75.4430679
  68.2050012  59.3514997  77.0059988  68.1493616  58.2783664  76.8232739
  69.1080012  59.6154997  78.1979988  69.1637701  60.6884708  78.3816387
  68.7029083  59.1172371  79.0787568  70.1064183  59.2305590  77.9904282
  66.7820012  59.8114997  77.2839988  66.1475091  59.5666816  76.4321854
  66.4043420  59.3084281  78.1741629  66.7730125  60.8894860  77.4451368
  67.8520012  59.7904997  74.5559988  67.8240012  58.6544997  74.0579988
  67.1070012  60.7894997  74.0879988  67.0995519  61.6686985  74.5850433
  66.2450012  60.6474997  72.9249988  66.1089217  59.5923818  72.6877060
  64.8740012  61.2654997  73.2099988  65.1230183  62.2859680  73.5010901
  64.3048781  61.2819788  72.2805218  64.0340012  60.6114997  74.3109988
  64.3832658  60.9666805  75.2805150  62.5620012  60.9634997  74.1419988
  62.2118753  60.6082032  73.1728367  61.9813899  60.4896838  74.9335099
  62.4376763  62.0449105  74.1985175  64.2260012  59.0994997  74.3379988
  65.2752332  58.8692070  74.5228686  63.6148567  58.6692323  75.1313926
  63.9253979  58.6773747  73.3790685  66.8500012  61.2664997  71.6709988
  66.1550012  61.4034997  70.6599988  68.1260012  61.6564997  71.7219988
  68.6234156  61.6866366  72.6005031  68.7910012  62.1854997  70.5289988
  68.2081833  62.9819382  70.0662804  70.1860012  62.7184997  70.8959988
  70.6776951  61.9981998  71.5498379  71.0280012  62.9264997  69.6479988
  70.5371440  63.6470767  68.9938362  72.0107117  63.3038510  69.9308179
  71.1408963  61.9779640  69.1229903  70.0670012  64.0204997  71.6889988
  69.4037853  63.8283457  72.5323981  71.0619214  64.2682745  72.0589188
  69.5290012  65.1764997  70.8789988  68.5338465  64.9296311  70.5091029
  69.4724170  66.0656328  71.5069636  70.1919819  65.3695584  70.0356218
  68.8280012  61.1694997  69.3909988  68.4980012  61.5404997  68.2519988
  69.2130012  59.9014997  69.6049988  69.7840012  59.2874997  70.8189988
  68.9791989  58.9691619  71.4816108  70.4132650  60.0127433  71.3348938
  70.5670012  58.1394997  70.2759988  70.6575361  57.3591536  71.0316194
  71.5609879  58.4736429  69.9786101  69.7910012  57.6674997  69.0979988
  68.9930616  56.9922073  69.4068217  70.4258125  57.1682520  68.3659701
  69.1890012  58.9424997  68.4869988  69.8241398  59.3473497  67.6990942
  67.7990012  58.6814997  67.9319988  67.6900012  58.1994997  66.7969988
  66.7430012  58.9724997  68.6849988  66.8725404  59.3062470  69.6294201
  65.3810012  58.7724997  68.2029988  65.2578389  57.7445894  67.8619259
  64.3700012  59.0414997  69.3209988  64.7073661  58.5854391  70.2517473
  64.2497212  60.1151257  69.4657738  63.0040012  58.4904997  69.0439988
  62.4940012  57.3054997  69.4889988  63.1454331  56.6917991  70.1111787
  61.2090012  57.1414997  69.0309988  60.6147783  56.3471175  69.2206188
  60.8640012  58.2304997  68.2749988  59.6770012  58.5194997  67.6059988
  58.8604454  57.7994142  67.6590294  59.6120012  59.7014997  66.9179988
  58.6995142  59.9627452  66.3820714  60.6950012  60.5874997  66.8859988
  60.6322681  61.5253896  66.3341596  61.8750012  60.3024997  67.5509988
  62.6876583  61.0269024  67.4968709  61.9710012  59.1024997  68.2609988
  65.0850012  59.6684997  67.0049988  65.0510012  60.8924997  67.1259988
  55.6560012  66.2364997  63.6169988  55.2060360  66.9839740  63.1081640
  54.8550012  65.4574997  64.5519988  53.8430426  65.3440767  64.1631874
  55.4600012  64.0664997  64.7539988  56.5275141  64.2038591  64.9261837
  54.9998138  63.6441169  65.6472627  55.2540012  63.1214997  63.5839988
  54.1839721  63.0594116  63.3857974  55.7595858  63.5461844  62.7167467
  55.7980012  61.7344997  63.8559988  56.5000012  61.5604997  64.8749988
  55.5240012  60.8184997  63.0529988  54.7310012  66.1654997  65.8949988
  54.7920012  67.3924997  65.9709988  54.5570012  65.3794997  66.9539988
  54.4145316  64.3884638  66.8211465  54.4750012  65.9134997  68.3059988
  54.4938982  67.0033209  68.3116255  53.1930012  65.4394997  69.0179988
  53.2000536  65.8065163  70.0443263  51.9620012  65.9674997  68.2999988
  51.9540107  65.6005026  67.2736702  51.0649643  65.6239383  68.8151598
  51.9828762  67.0572911  68.2954687  53.1620012  63.9204997  69.0999988
  54.0288888  63.5685403  69.6592236  52.2503662  63.6019369  69.6055075
  53.1845123  63.5012826  68.0940906  55.6990012  65.5674997  69.1429988
  55.8220012  66.0824997  70.2659988  56.5970012  64.7144997  68.6459988
  56.4319578  64.2385373  67.7706018  57.8130012  64.3964997  69.3879988
  57.5607335  64.0255794  70.3814163  58.6030012  63.3144997  68.6479988
  58.1656816  62.3499308  68.9057929  58.4569774  63.5066098  67.5850450
  60.0840012  63.2954997  68.9579988  60.5710012  62.6244997  70.0709988
  59.8672084  62.1108221  70.7259115  61.9220012  62.6004997  70.3549988
  62.2908723  62.0757405  71.2362841  62.8060012  63.2464997  69.5169988
  64.1530012  63.2244997  69.7949988  64.3634629  62.7330981  70.5923883
  62.3480012  63.9134997  68.4009988  63.0463660  64.4246584  67.7383498
  60.9960012  63.9314997  68.1249988  60.6271774  64.4509752  67.2405700
  58.6660012  65.6394997  69.6019988  59.2080012  65.8514997  70.6919988
  58.7920012  66.4764997  68.5699988  58.4160877  66.2466965  67.6611650
  59.5350012  67.7234997  68.7159988  60.5149054  67.5255975  69.1504197
  59.7300012  68.3794997  67.3499988  60.1736681  69.3612373  67.5156797
  60.4173602  67.7639811  66.7696760  58.4290012  68.5354997  66.5909988
  57.4200012  67.9274997  67.0069988  58.4150012  69.2594997  65.5729988
  58.8350012  68.6824997  69.6689988  59.4980012  69.4574997  70.3669988
  57.4990012  68.6544997  69.7019988  56.9726265  68.0731635  69.0655419
  56.7630012  69.5134997  70.6239988  57.0553210  70.5536319  70.4798695
  55.2630012  69.3884997  70.3689988  55.0652998  68.3473268  70.1141017
  54.7577443  69.6356939  71.3026532  54.7490012  70.2814997  69.2679988
  54.5670012  71.6414997  69.4789988  54.8027409  72.0587202  70.4580051
  54.0960012  72.4624997  68.4739988  53.9560960  73.5288941  68.6510052
  53.8030012  71.9244997  67.2389988  53.3340012  72.7334997  66.2319988
  53.2489743  73.6520787  66.4976728  53.9760012  70.5774997  67.0049988
  53.7436087  70.1526619  66.0284707  54.4460012  69.7664997  68.0149988
  54.5858994  68.7002275  67.8372568  57.0850012  69.1744997  72.0729988
  57.2970012  70.0714997  72.8969988  57.1210012  67.8804997  72.4039988
  56.8722815  67.1658517  71.7350323  57.4390012  67.4704997  73.7689988
  56.8705408  68.0547108  74.4926349  57.1330012  65.9744997  73.9639988
  57.7986018  65.3907259  73.3281652  57.3390012  65.5734997  75.4159988
  56.6733625  66.1565626  76.0524447  57.1181572  64.5128035  75.5353819
  58.3733804  65.7632366  75.7026322  55.7010012  65.6624997  73.5249988
  55.6173820  65.9365764  72.4733379  55.5559704  64.5875460  73.6324241
  54.6480012  66.3934997  74.3199988  54.7921114  67.4685879  74.2126801
  53.6591786  66.1213485  73.9508608  54.7307015  66.1195590  75.3717673
  58.8910012  67.7924997  74.0959988  59.2090012  68.2454997  75.2029988
  59.7950012  67.5504997  73.1459988  59.5301021  67.1148912  72.2741197
  61.2070012  67.8464997  73.3709988  61.5498836  67.3613749  74.2848832
  62.0410012  67.3284997  72.2009988  61.6011328  67.7281791  71.2872858
  63.0494624  67.7242289  72.3214330  62.0990012  65.8174997  72.1139988
  61.1499416  65.4542335  71.7197598  62.9046827  65.5379766  71.4351423
  62.3960012  65.0694997  73.7249988  64.1350012  64.6814997  73.5789988
  64.6992059  65.5982445  73.4076778  64.4808363  64.2090924  74.4984171
  64.2867579  64.0002557  72.7417546  61.4400012  69.3364997  73.5779988
  62.2170012  69.7344997  74.4529988  60.7770012  70.1794997  72.7799988
  60.1958785  69.8353204  72.0290418  60.9330012  71.6214997  72.9279988
  61.9891649  71.8868099  72.8807985  60.1960012  72.3524997  71.8089988
  59.3286822  71.7649946  71.5078430  59.8698880  73.3405305  72.1338760
  61.0220012  72.5574997  70.5789988  61.2980012  73.8084997  70.0699988
  60.9690783  74.6759343  70.4693314  62.0510012  73.6864997  68.9919988
  62.3738149  74.5674414  68.4371728  62.2800012  72.4024997  68.7879988
  61.6500012  71.6744997  69.7679988  61.7249959  70.5870910  69.7724139
  60.4520012  72.1214997  74.2829988  60.8860012  73.1924997  74.7219988
  59.5640012  71.3844997  74.9479988  59.0886353  70.6127012  74.5025172
  59.2050012  71.7174997  76.3229988  58.9344260  72.7690723  76.4183054
  58.0360012  70.8414997  76.8069988  58.3176598  69.7922160  76.7188369
  57.7030012  71.1564997  78.2569988  57.4207802  72.2055715  78.3458821
  56.8742774  70.5288267  78.5846332  58.5749244  70.9612039  78.8812652
  56.8070012  71.0284997  75.9209988  57.0875075  70.7434260  74.9070215
  56.0334299  70.3533318  76.2868338  56.2820012  72.4364997  75.9179988
  57.0549129  73.1122364  75.5518197  55.4088979  72.4978838  75.2683667
  56.0008373  72.7221430  76.9316331  60.4130012  71.5614997  77.2359988
  60.7640012  72.4674997  78.0009988  61.0810012  70.4114997  77.1509988
  60.8950293  69.7544125  76.4068548  62.0390012  70.0344997  78.1819988
  61.6793457  70.3388581  79.1649093  62.2150012  68.5184997  78.1749988
  62.4594558  68.2486315  77.1476175  63.0219631  68.2009353  78.8353512
  60.9140012  67.8244997  78.5889988  60.1121864  68.1961447  77.9509754
  61.0060012  66.3184997  78.4579988  61.8073524  65.9460460  79.0961314
  60.0610352  65.8684084  78.7622320  61.2159252  66.0556084  77.4212150
  60.5370012  68.2144997  80.0109988  60.3977129  69.2940907  80.0674036
  59.6104123  67.7139530  80.2920456  61.3324912  67.9151671  80.6934170
  63.3770012  70.7454997  78.0159988  64.1210012  70.8894997  78.9919988
  63.7030012  71.1984997  76.8029988  63.1750918  70.9531048  75.9776550
  64.8870012  72.0314997  76.6429988  65.6924930  71.6404364  77.2645706
  65.3580012  72.0504997  75.1869988  64.4938909  72.3286608  74.5836422
  66.1166963  72.8298059  75.1151411  65.9280012  70.7434997  74.6789988
  66.9162844  70.6053842  75.1175432  65.2722936  69.9341080  74.9999890
  66.0680012  70.7154997  72.8809988  64.8480012  69.4794997  72.4549988
  63.8675205  69.7992771  72.8078432  64.8206434  69.3531325  71.3726940
  65.1111198  68.5315995  72.9244187  64.6540012  73.4604997  77.1049988
  65.6230012  74.1764997  77.3759988  63.3980012  73.8954997  77.1979988
  62.6266006  73.2537029  77.0833804  63.0990012  75.3024997  77.3999988
  64.0202324  75.8616419  77.5636820  62.3950012  75.8694997  76.1599988
  61.3549668  75.5446523  76.1299677  62.4346747  76.9587036  76.1726765
  63.0170012  75.4334997  74.8709988  62.2740012  75.0244997  73.7849988
  61.2649440  74.9880647  73.7609999  63.0870012  74.6934997  72.7969988
  62.6898833  74.3387140  71.8459343  64.3300012  74.8774997  73.2019988
  64.3150012  75.3384997  74.4959988  65.2525893  75.5498305  75.0101670
  62.2510012  75.5994997  78.6259988  62.2400012  76.7514997  79.0729988
  61.5490012  74.6154997  79.1849988  61.5388688  73.7025460  78.7531281
  60.7250012  74.8294997  80.3669988  60.6165850  75.8976187  80.5553252
  59.3360012  74.2264997  80.1609988  59.4184737  73.2416130  79.7013295
  58.8210064  74.1384340  81.1176204  58.4470012  75.0444997  79.2679988
  58.6420012  75.0574997  77.8959988  59.4510588  74.4655050  77.4681344
  57.8260012  75.8084997  77.0729988  57.9897124  75.8097479  75.9953635
  56.8030012  76.5574997  77.6159988  56.1572932  77.1518023  76.9694963
  56.5980012  76.5534997  78.9789988  55.7908867  77.1449414  79.4112754
  57.4160012  75.7994997  79.7969988  57.2533000  75.7941462  80.8747741
  61.3740012  74.2624997  81.6239988  60.6920012  74.0624997  82.6339988
  62.6800012  73.9934997  81.5779988  63.2076303  74.1154901  80.7254583
  63.3680012  73.4544997  82.7459988  62.8401864  72.5758708  83.1168384
  64.7930012  73.0474997  82.3749988  65.3621814  72.9925826  83.3029628
  64.7360440  72.0563111  81.9251085  65.4820012  73.9994997  81.4149988
  64.7798694  74.2751520  80.6281521  65.7829556  74.8929588  81.9620446
  66.7100012  73.3874997  80.7749988  66.9720012  72.1934997  80.9259988
  67.4710012  74.2014997  80.0549988  68.3024971  73.8450369  79.6059439
  67.2153423  75.1739038  79.9592382  63.3820012  74.4584997  83.8909988
  63.2210012  74.0804997  85.0579988  63.5710012  75.7414997  83.5759988
  63.6639618  76.0418563  82.6161844  63.6480012  76.7474997  84.6239988
  64.5020833  76.5164136  85.2605850  63.7968757  77.7207514  84.1563272
  62.3960012  76.7964997  85.4769988  62.4670012  76.9614997  86.6979988
  61.2290012  76.6574997  84.8439988  61.1725157  76.6597710  83.8355824
  59.9890012  76.5554997  85.6059988  59.8836288  77.4196591  86.2619136
  58.7900012  76.5114997  84.6599988  59.0056277  75.6762516  83.9936917
  57.9163303  76.2749443  85.2673214  58.5100012  77.7634997  83.8319988
  59.4127040  78.0369228  83.2856762  57.3830012  77.5084997  82.8499988
  56.4797738  77.2354551  83.3956414  57.1963986  78.4109915  82.2679431
  57.6615839  76.6954948  82.1795398  58.1560012  78.9144997  84.7429988
  58.9867034  79.1107995  85.4208627  57.9576168  79.8040351  84.1451094
  57.2677802  78.6607116  85.3215782  59.9990012  75.3274997  86.5039988
  59.5880012  75.3954997  87.6689988  60.4660012  74.1934997  85.9799988
  60.7673454  74.1492310  85.0170183  60.4940012  72.9684997  86.7699988
  59.5184835  72.7926277  87.2233568  60.8370012  71.7804997  85.8739988
  60.0671204  71.7971591  85.1025680  61.8112739  71.9567914  85.4181326
  60.8370012  70.4164997  86.5639988  61.5449184  70.4392223  87.3925141
  59.4520012  70.0844997  87.0909988  58.7435707  70.0611385  86.2629411
  59.4722578  69.1099290  87.5787512  59.1446607  70.8437969  87.8101023
  61.3220012  69.3424997  85.6069988  62.3355338  69.5762791  85.2811181
  61.3168955  68.3763178  86.1115459  60.6623070  69.3026577  84.7402143
  61.4840012  73.0704997  87.9219988  61.2070012  72.5964997  89.0309988
  62.6440012  73.6834997  87.6799988  62.8412384  74.0745285  86.7698926
  63.6930012  73.7284997  88.6949988  63.9043751  72.7419367  89.1074472
  64.9890012  74.2984997  88.0959988  64.7564380  75.2165220  87.5563243
  65.9940012  74.5974997  89.1919988  66.2274250  73.6798028  89.7318568
  66.9053444  75.0002286  88.7499995  65.5724783  75.3276426  89.8828760
  65.5700012  73.3284997  87.0899988  64.8503403  73.1607714  86.2887138
  66.4875568  73.7432352  86.6726432  65.7911437  72.3818874  87.5830728
  63.2350012  74.5304997  89.9069988  63.4360012  74.1184997  91.0559988
  62.6140012  75.6884997  89.6709988  62.4851685  76.0363394  88.7315793
  62.1570012  76.5144997  90.7829988  62.9828642  76.7055370  91.4682390
  61.6330012  77.8514997  90.2659988  61.2559754  78.4304082  91.1090976
  62.4537508  78.3911009  89.7934519  60.5930012  77.6564997  89.3249988
  60.2791311  78.5086920  89.0137857  61.0830012  75.8114997  91.5999988
  61.0890012  75.8914997  92.8319988  60.1560012  75.1204997  90.9359988
  60.1641814  75.0688872  89.9273519  59.0650012  74.4694997  91.6529988
  58.5664038  75.1821614  92.3099715  58.0410012  73.9194997  90.6629988
  57.3572018  73.2549885  91.1911499  57.2550012  75.0544997  90.0289988
  57.9381225  75.7192228  89.5002379  56.5291952  74.6460821  89.3257919
  56.7329442  75.6136958  90.8054373  58.7170012  73.1814997  89.6379988
  58.0733667  72.8355612  89.0153740  59.5760012  73.3564997  92.5569988
  59.0780012  73.1774997  93.6759988  60.5690012  72.5954997  92.0949988
  61.0088115  72.7983271  91.2086990  60.9750012  71.3884997  92.8089988
  60.1396193  70.9226690  93.3317206  61.6030012  70.3724997  91.8379988
  60.9043124  70.1963114  91.0201405  62.9210012  70.8854997  91.2769988
  63.6204084  71.0614919  92.0942851  63.3389087  70.1450723  90.5949274
  62.7492337  71.8179666  90.7393181  61.7920012  69.0184997  92.5209988
  62.6138535  69.1216956  93.2295255  60.8726714  68.7940951  93.0619007
  62.0960012  67.8954997  91.5579988  63.0155111  68.1189883  91.0170236
  62.2178789  66.9644723  92.1115628  61.2743294  67.7913893  90.8493970
  61.9140012  71.7304997  93.9629988  61.9040012  71.0714997  95.0079988
  62.7380012  72.7664997  93.7939988  62.7685773  73.2860290  92.9284044
  63.6810012  73.1244997  94.8499988  63.8311547  72.2732249  95.5139900
  65.0310012  73.5224997  94.2529988  64.8691731  74.2510514  93.4585661
  65.6823140  73.9534770  95.0133606  65.7860012  72.3774997  93.6389988
  65.4190012  71.0674997  93.8999988  64.5678115  70.8731406  94.5525327
  66.1180012  70.0134997  93.3439988  65.8156156  68.9870811  93.5516729
  67.2000012  70.2614997  92.5249988  67.7546640  69.4323372  92.0857509
  67.5800012  71.5624997  92.2619988  68.4338220  71.7609200  91.6141412
  66.8780012  72.6124997  92.8199988  67.1814739  73.6396547  92.6176211
  63.1640012  74.2394997  95.7489988  63.3890012  74.1984997  96.9629988
  62.4840012  75.2374997  95.1879988  62.3133120  75.2336781  94.1925341
  62.0310012  76.3894997  95.9639988  62.6079200  76.4707093  96.8852310
  62.2230012  77.6744997  95.1509988  63.2847051  77.8771514  95.0102287
  61.7392616  77.5819188  94.1786177  61.5290012  79.1524997  95.9159988
  61.8890319  79.9916675  94.9490068  60.5780012  76.2514997  96.4059988
  60.2800012  76.3214997  97.6019988  59.6630012  76.0534997  95.4569988
  59.9285343  75.9813710  94.4852020  58.2430012  76.0134997  95.7909988
  57.9955774  76.8403509  96.4567297  57.3940012  76.1354997  94.5229988
  57.7754368  75.4598513  93.7574235  56.3560819  75.8856204  94.7429625
  57.3860012  77.5184997  93.9139988  58.4330012  78.4024997  94.1199988
  59.2777403  78.0881686  94.7329520  58.4170012  79.6674997  93.5609988
  59.2480590  80.3517367  93.7320640  57.3470012  80.0624997  92.7859988
  57.3304047  81.0581980  92.3428178  56.2960012  79.1944997  92.5719988
  55.4486143  79.5043451  91.9604176  56.3180012  77.9304997  93.1339988
  55.4879046  77.2445168  92.9652768  57.8630012  74.7554997  96.5599988
  56.9250012  74.7894997  97.3619988  58.5650012  73.6474997  96.3369988
  59.2646883  73.6330539  95.6087622  58.3100012  72.4174997  97.0739988
  57.2851721  72.4151387  97.4452386  58.5050012  71.1974997  96.1659988
  59.3843476  71.3458758  95.5392344  58.6309928  70.2918641  96.7593371
  57.3530012  70.9454997  95.2369988  56.1460012  71.5994997  95.4149988
  56.0395694  72.3067566  96.2375313  55.0840012  71.3644997  94.5649988
  54.1402534  71.8890158  94.7144097  55.2170012  70.4654997  93.5259988
  54.3799827  70.2787656  92.8532206  56.4130012  69.8024997  93.3399988
  56.5222377  69.0907353  92.5217329  57.4740012  70.0424997  94.1939988
  58.4188095  69.5183634  94.0500600  59.1820012  72.2694997  98.3129988
  59.1030012  71.2364997  98.9859988  60.0070012  73.2634997  98.6299988
  60.0998742  74.0644191  98.0217209  60.8330012  73.2074997  99.8299988
  61.3309980  72.2399351  99.8925860  61.8960012  74.3014997  99.7929988
  62.4191036  74.2526890  98.8379697  61.4011339  75.2681641  99.8866272
  62.9130012  74.1674997 100.9099988  62.8230012  73.2684997 101.7469988
  63.8930012  75.0614997 100.9269988  64.5982310  75.0195472 101.6487956
  63.9293632  75.7799645 100.2180651  59.9410012  73.3534997 101.0559988
  59.1920012  74.3284997 101.1759988  60.0190012  72.3834997 101.9689988
  60.6464100  71.6002085 101.8553660  59.1910012  72.4354997 103.1619988
  58.1467276  72.4788279 102.8526210  59.3615087  71.5255188 103.7372912
  59.4970012  73.6364997 104.0359988  58.5890012  74.2744997 104.5729988
  60.7840012  73.9564997 104.1959988  61.5202255  73.3723210 103.8261227
  61.1590012  75.1334997 104.9719988  60.7013013  75.0901982 105.9602978
  62.6780012  75.1894997 105.1389988  63.1160275  74.8666507 104.1945409
  62.9415625  76.2308518 105.3239885  63.2140012  74.3224997 106.2689988
  64.2701589  74.5602415 106.3959254  62.6713214  74.5850760 107.1771020
  63.0590012  72.8364997 105.9989988  63.0320012  72.0544997 106.9709988
  62.9660012  72.4504997 104.8139988  60.6430012  76.4084997 104.3189988
  60.1310012  77.3024997 105.0029988  60.7670012  76.5094997 102.9949988
  61.2882444  75.8242315 102.4669719  60.2280012  77.6654997 102.2859988
  60.5066455  78.6042738 102.7647049  60.7360012  77.6844997 100.8329988
  60.5847541  76.6986799 100.3932456  59.9870012  78.7224997 100.0169988
  60.1381608  79.7087116 100.4559040  60.3611542  78.7197721  98.9932300
  58.9230981  78.4854165 100.0150977  62.2300012  77.9594997 100.8019988
  62.7551245  77.1790544 101.3526827  62.5766122  77.9702972  99.7686335
  62.4315608  78.9267084 101.2624135  58.7070012  77.6694997 102.3539988
  58.0830012  78.7194997 102.5509988  58.0840012  76.4964997 102.1969988
  58.5991520  75.6590270 101.9660041  56.6310012  76.4104997 102.2919988
  56.1702309  77.0980845 101.5827618  56.1650012  74.9904997 101.9689988
  56.7261258  74.6601852 101.0948531  56.4243109  74.3659428 102.8238597
  54.6760012  74.8724997 101.6889988  54.1485197  74.7687915 102.6372122
  54.3402460  75.7783591 101.1842322  54.3420012  73.6794997 100.8159988
  55.2270012  72.9314997 100.3999988  53.0570012  73.4954997 100.5319988
  52.7773157  72.7158544  99.9540449  52.3658940  74.1361350 100.8953975
  56.1330012  76.8304997 103.6679988  55.0420012  77.3974997 103.7869988
  56.9150012  76.5594997 104.7159988  57.7434409  75.9899909 104.6188052
  56.5530012  77.0314997 106.0469988  55.5466062  76.6872351 106.2852218
  57.5200012  76.4684997 107.0859988  58.5308190  76.8119865 106.8660802
  57.2280376  76.8117915 108.0784746  57.4924139  75.3792573 107.0561769
  56.5360012  78.5534997 106.0999988  55.6500012  79.1514997 106.7229988
  57.5080012  79.1984997 105.4499988  58.2714812  78.6900767 105.0272653
  57.5390012  80.6574997 105.4049988  57.4259221  81.0828885 106.4021731
  58.8610012  81.1444997 104.7869988  58.8985321  80.8333509 103.7430264
  58.9650012  82.6574997 104.8679988  58.9280058  82.9693925 105.9117683
  59.9069862  82.9816612 104.4256367  58.1347586  83.1088777 104.3248097
  60.0520012  80.4914997 105.4899988  60.1904085  81.0067419 106.4405090
  59.7880545  79.4505413 105.6766463  61.3350012  80.5504997 104.6939988
  61.5998552  81.5912268 104.5073462  62.1344763  80.0678664 105.2561411
  61.1975003  80.0350278 103.7434820  56.3330012  81.1914997 104.6419988
  55.7860012  82.2494997 104.9769988  55.9040012  80.4704997 103.6039988
  56.3931595  79.6366584 103.3115398  54.7560012  80.9114997 102.8169988
  54.9226918  81.9224985 102.4452531  54.5550012  79.9774997 101.6209988
  55.5512431  79.9541091 101.1793494  54.3244885  79.0015342 102.0481468
  53.5240012  80.3174997 100.5379988  53.4665479  81.3996685 100.4209063
  53.9380012  79.6864997  99.2179988  53.9952241  78.6042222  99.3341880
  53.2025547  79.9307283  98.4514665  54.9134297  80.0715636  98.9207357
  52.1210012  79.8564997 100.9119988  51.8123732  80.3437464 101.8368981
  51.4267018  80.1197745 100.1140413  52.1186601  78.7756654 101.0530335
  53.4990012  80.9824997 103.6749988  52.6930012  81.9094997 103.5339988
  53.3130012  80.0094997 104.5709988  53.9494225  79.2272622 104.6273172
  52.1520012  80.0204997 105.4519988  51.2396513  80.1324958 104.8661884
  52.0740012  78.7064997 106.2319988  52.9657564  78.6504309 106.8562808
  51.1896490  78.7620864 106.8667675  51.9910012  77.4684997 105.3559988
  52.6316002  77.6153065 104.4864118  52.3482067  76.6131739 105.9295179
  50.5660012  77.2104997 104.8969988  49.9806005  76.8496222 105.7426775
  50.1369497  78.1429894 104.5302875  50.5070012  76.2164997 103.8289988
  50.7451063  75.2646674 104.0686247  50.1630012  76.4874997 102.5739988
  49.8420012  77.7254997 102.2249988  49.8596047  78.4622602 102.9156319
  49.5813185  77.9262147 101.2700864  50.1390012  75.5214997 101.6679988
  50.3829227  74.5780677 101.9335895  49.8768925  75.7328191 100.7157688
  52.1710012  81.1954997 106.4199988  51.1090012  81.5924997 106.9129988
  53.3460012  81.7584997 106.7039988  54.2005857  81.4043353 106.2985951
  53.4370012  82.8594997 107.6579988  52.7408391  82.6984766 108.4811204
  54.8560012  82.9454997 108.2269988  55.4955146  83.3213965 107.4283603
  54.8278428  83.6701851 109.0407175  55.4120012  81.6244997 108.7429988
  55.1497135  80.8453058 108.0273431  56.4967893  81.7142199 108.8003320
  54.8590012  81.2594997 110.1169988  55.4966319  80.4924100 110.5564296
  54.8753110  82.1492055 110.7464882  53.4890012  80.7524997 110.0579988
  52.7577720  81.3657916 110.3885684  53.1510012  79.5484997 109.6049988
  51.8770012  79.1804997 109.5889988  51.1665334  79.8167750 109.9213979
  51.6230806  78.2656567 109.2444900  54.0820012  78.7094997 109.1709988
  55.0531472  78.9866085 109.1846402  53.8155450  77.7973392 108.8288540
  53.0370012  84.1834997 107.0179988  52.1660012  84.8954997 107.5289988
  53.6690012  84.5324997 105.8949988  54.4009632  83.9551497 105.5064142
  53.3650012  85.7994997 105.2379988  53.4143072  86.6147380 105.9598399
  54.3760012  86.0704997 104.1259988  54.5906596  85.1346435 103.6100586
  53.9410991  86.7809110 103.4229511  55.6770012  86.6434997 104.6509988
  55.7320012  87.1734997 105.7599988  56.7330012  86.5384997 103.8549988
  57.6257805  86.9034686 104.1547361  56.6393579  86.0940698 102.9528825
  51.9450012  85.8234997 104.6859988  51.2970012  86.8754997 104.6979988
  51.4500012  84.6844997 104.1939988  52.0256102  83.8604626 104.0953250
  50.0690012  84.6244997 103.7239988  49.8928830  85.4061563 102.9850167
  49.7920012  83.2684997 103.0759988  50.3696663  83.1603740 102.1580058
  50.0556647  82.4678280 103.7670172  48.3570012  83.0594997 102.7059988
  47.7360012  83.4794997 101.5669988  48.3453350  84.0276807 100.8484519
  46.4150012  83.0994997 101.5789988  45.7403971  83.2896708 100.8517822
  46.1620012  82.4174997 102.7409988  44.9820012  81.8394997 103.2039988
  44.0884648  81.9127122 102.5840541  45.0210012  81.2114997 104.4179988
  44.1170262  80.7474661 104.8124630  46.2000012  81.1494997 105.1709988
  46.2204059  80.6460774 106.1375644  47.3720012  81.7234997 104.7129988
  48.2611801  81.6507170 105.3392289  47.3640012  82.3714997 103.4749988
  49.0930012  84.8844997 104.8659988  48.0920012  85.5884997 104.6879988
  49.3690012  84.3224997 106.0449988  50.1132400  83.6468085 106.1432294
  48.5540012  84.6274997 107.2139988  47.4979559  84.5033722 106.9742905
  48.9080012  83.6844997 108.3629988  49.9911869  83.5708818 108.4065746
  48.5514233  84.1231485 109.2949534  48.2830012  82.3124997 108.2029988
  47.0720012  82.1844997 108.0279988  49.1110012  81.2754997 108.2579988
  48.7487689  80.3380691 108.1574430  50.0990828  81.4291080 108.4001254
  48.7220012  86.0784997 107.6489988  47.7720012  86.6864997 108.1539988
  49.9190012  86.6424997 107.4679988  50.7044581  86.1026276 107.1337910
  50.1390012  88.0434997 107.8129988  49.8417813  88.2249048 108.8458839
  51.6200012  88.3934997 107.6619988  52.1732934  87.7287565 108.3253867
  51.8927732  88.1833775 106.6278111  51.9620012  89.8404997 107.9929988
  51.2042433  90.2302320 108.6727138  52.9361557  89.8683735 108.4812079
  52.0110012  90.7264997 106.7619988  51.9190012  90.2444997 105.6319988
  52.1590012  92.0284997 106.9759988  52.1979599  92.6647129 106.1925345
  52.2319414  92.3767124 107.9212654  49.2790012  88.9634997 106.9559988
  48.7120012  89.9414997 107.4579988  49.1700012  88.6684997 105.6649988
  49.6928985  87.8963755 105.2770528  48.3490012  89.4684997 104.7649988
  48.2095289  90.4657469 105.1823052  49.0210012  89.6004997 103.3979988
  49.8707495  90.2722156 103.5197555  49.3785480  88.6112205 103.1123642
  48.1070012  90.1354997 102.3209988  47.5690012  91.4134997 102.4109988
  47.8192754  92.0299404 103.2744008  46.7300012  91.9064997 101.4299988
  46.3147416  92.9107839 101.5141088  46.4200012  91.1214997 100.3399988
  45.5860012  91.6084997  99.3599988  45.2802341  92.5010956  99.5371392
  46.9410012  89.8494997 100.2279988  46.6958110  89.2281456  99.3666618
  47.7780012  89.3634997 101.2149988  48.1917133  88.3584376 101.1325811
  46.9590012  88.8584997 104.6109988  46.7050012  87.7984997 105.2429988
  46.1360012  89.4454997 103.8579988  66.6090012  70.3634997  71.7769988
  67.1532063  71.2131418  71.8222753  67.1062484  69.6891912  71.2129476
  66.3105639  70.1190380  72.7104189  65.3840012  70.6494997  71.0439988
  65.3053235  70.0358414  70.1465956  64.1640012  70.3744997  71.9349988
  64.1922737  71.0437794  72.7948618  62.8970012  70.6024997  71.1659988
  62.8677915  69.9332032  70.3061790  62.0400033  70.4039539  71.8096095
  62.8609319  71.6363099  70.8224336  64.2130012  68.9564997  72.4479988
  65.1231977  68.8113239  73.0298650  63.3447729  68.7677900  73.0794004
  64.2064869  68.2644808  71.6058774  65.4120012  72.0814997  70.5279988
  65.0260012  72.3604997  69.3839988  65.9540012  72.9954997  71.3319988
  66.2258087  72.7620177  72.2763007  66.1120012  74.3694997  70.8899988
  65.2117632  74.7089019  70.3776736  66.3630012  75.2774997  72.0849988
  65.5311312  75.1856486  72.7833225  67.6430012  74.8894997  72.7759988
  68.4754456  74.9815505  72.0783867  67.8099322  75.5473789  73.6288927
  67.5717013  73.8582450  73.1217309  66.4540012  76.6334997  71.6389988
  66.6123725  77.2079612  72.3916692  67.2340012  74.5304997  69.8789988
  67.2140012  75.4974997  69.1179988  68.0870012  73.5274997  69.7109988
  68.0740967  72.7143406  70.3099187  69.1060012  73.6064997  68.6789988
  69.3976056  74.6468964  68.5353301  70.3430012  72.8024997  69.0639988
  70.0550016  71.7913257  69.3515448  71.0457801  72.7568572  68.2320621
  71.0880012  73.3794997  70.2209988  71.8370012  74.5294997  70.1179988
  71.9525489  75.0676016  69.2711252  72.3710012  74.8074997  71.2929988
  72.9988563  75.6890437  71.4225247  72.0010012  73.8744997  72.1499988
  71.1940012  72.9714997  71.5049988  70.7801073  72.1235197  72.0506388
  68.5650012  73.1154997  67.3569988  68.9010012  73.6874997  66.3159988
  67.6730012  72.1244997  67.3879988  67.4555533  71.6264908  68.2393523
  67.0230012  71.7024997  66.1569988  67.7682880  71.5636304  65.3738245
  66.2880012  70.3844997  66.3689988  65.6449485  70.5069275  67.2405456
  65.6731493  70.2090206  65.4862393  67.2080012  69.2054997  66.5839988
  67.9770719  69.2230445  65.8117791  67.6751002  69.3068694  67.5636133
  66.4540012  67.8894997  66.5169988  65.8977477  67.8560017  65.5802176
  67.1771058  67.0741851  66.5389350  65.5190012  67.7144997  67.6219988
  64.5829763  68.0742098  67.5013115  65.8270012  67.1214997  68.7699988
  67.0460012  66.6404997  68.9639988  67.7410336  66.7259412  68.2361735
  67.2747209  66.1905570  69.8388350  64.9130012  67.0014997  69.7239988
  63.9815629  67.3625096  69.5750201  65.1527893  66.5496844  70.5948967
  66.0690012  72.7884997  65.6969988  65.9700012  73.0684997  64.4949988
  65.4100012  73.4514997  66.6529988  65.4656706  73.1665482  67.6203678
  64.5230012  74.5524997  66.3079988  63.8463634  74.2469730  65.5099298
  63.6920012  74.9654997  67.5209988  63.1891104  74.0687140  67.8829042
  64.4235284  75.2941721  68.2592008  62.6630012  76.0704997  67.2979988
  62.4564586  76.1597248  66.2314717  61.3990012  75.7434997  68.0239988
  61.6046726  75.6545661  69.0907175  60.6695924  76.5367069  67.8600296
  60.9991619  74.8002931  67.6517215  63.1760012  77.3764997  67.8409988
  64.1018134  77.6438095  67.3315711  62.4326783  78.1563916  67.6756478
  63.3656951  77.2768037  68.9097251  65.3260012  75.7214997  65.7489988
  64.8990012  76.3524997  64.7769988  66.4800012  76.0284997  66.3599988
  66.7746798  75.5095489  67.1748324  67.3130012  77.1384997  65.9079988
  66.7241791  78.0552567  65.8772700  68.4810012  77.3414997  66.8669988
  69.0852041  76.4349429  66.9015489  69.0947062  78.1736043  66.5219360
  68.0992059  77.5612683  67.8640110  67.8170012  76.8774997  64.4989988
  67.7820012  77.7684997  63.6409988  68.3210012  75.6614997  64.2639988
  68.3638522  74.9787062  65.0070036  68.8180012  75.2834997  62.9509988
  69.6458083  75.9435422  62.6918109  69.1756545  74.2550122  62.9999580
  67.7520012  75.3844997  61.8779988  67.9750012  75.9894997  60.8209988
  66.5860012  74.7684997  62.1309988  66.4500133  74.2448095  62.9838500
  65.5030012  74.7944997  61.1559988  65.8504112  74.4098835  60.1971057
  64.3530012  73.9214997  61.6429988  64.8071768  72.9365937  61.7515531
  64.0484067  74.2905120  62.6223619  63.1330012  73.8204997  60.7369988
  62.7480239  74.8214245  60.5419532  63.5100012  73.1614997  59.4279988
  63.8946583  72.1602904  59.6222093  62.6303526  73.0943613  58.7878335
  64.2769369  73.7544882  58.9297272  62.0280012  73.0524997  61.4309988
  61.7479836  73.5681433  62.3495853  61.1614988  72.9872655  60.7729567
  62.3778983  72.0484194  61.6707774  65.0160012  76.2134997  60.9009988
  64.7360012  76.5704997  59.7509988  64.8670012  77.0194997  61.9589988
  65.0075480  76.6818730  62.9004626  64.4080012  78.3914997  61.7779988
  63.4921145  78.3841365  61.1870702  64.1250012  79.0804997  63.1049988
  64.9056600  78.7412824  63.7858825  64.2149355  80.1566853  62.9572277
  62.7640012  78.7634997  63.6979988  62.6980237  77.7008728  63.9316050
  62.5940012  79.5644997  64.9579988  62.6594011  80.6273181  64.7251069
  61.6202772  79.3486837  65.3977553  63.3788395  79.2993391  65.6663906
  61.6730012  79.0894997  62.6909988  61.8199608  78.4941922  61.7898266
  60.6988872  78.8597452  63.1227581  61.7167162  80.1486599  62.4372912
  65.3970012  79.2064997  60.9679988  64.9920012  80.0254997  60.1449988
  66.6930012  79.0734997  61.2579988  67.0165055  78.4841855  62.0117581
  67.6790012  79.8384997  60.5079988  67.4255298  80.8983421  60.5321962
  69.0610012  79.6544997  61.1209988  69.0565874  80.0508639  62.1363682
  69.3009214  78.5915621  61.1474932  70.0320012  80.3374997  60.3529988
  70.8978225  80.2141805  60.7489098  67.6990012  79.4334997  59.0409988
  67.7370012  80.2934997  58.1569988  67.6750012  78.1274997  58.7699988
  67.6674932  77.4445767  59.5140816  67.7160012  77.6484997  57.3909988
  68.5422200  78.1135915  56.8532710  67.9190012  76.1394997  57.3839988
  68.7140310  75.9233036  58.0976415  66.9876684  75.6927580  57.7320523
  68.2790012  75.5654997  56.0459988  67.5112508  75.8307688  55.3191614
  69.2385934  75.9700933  55.7241466  68.3760012  74.0634997  56.1489988
  67.3891837  73.6534024  56.3637322  68.7382076  73.6609279  55.2030379
  69.2920012  73.6584997  57.2109988  68.8730788  73.4080868  58.0952481
  70.6150012  73.5944997  57.0949988  71.2110012  73.9144997  55.9549988
  70.6564104  74.2104403  55.1644621  72.2169470  73.8608959  55.8822030
  71.3480012  73.2104997  58.1299988  70.8982709  72.9684794  59.0013592
  72.3530351  73.1616118  58.0427322  66.4580012  78.0024997  56.5989988
  66.5440012  78.4324997  55.4439988  65.2880012  77.8314997  57.2049988
  65.3034418  77.4960040  58.1575236  63.9950012  78.0044997  56.5539988
  64.1114034  78.0656206  55.4719572  63.1260012  76.8004997  56.8819988
  63.0129561  76.7227372  57.9633281  62.1457304  76.9290527  56.4230397
  63.7280012  75.6204997  56.3849988  63.1739521  74.8653883  56.5957979
  63.2520012  79.2984997  56.8799988  62.0570012  79.3774997  56.5839988
  63.8880012  80.2404997  57.5839988  64.8435094  80.0814947  57.8700419
  63.2500012  81.5074997  57.9619988  62.5114779  81.2740409  58.7289275
  64.0287794  82.1395872  58.3886944  62.5690012  82.2574997  56.8329988
  61.4390012  82.7294997  56.9769988  63.2360012  82.3584997  55.6899988
  64.1317967  81.8996176  55.6058738  62.7340012  83.1024997  54.5489988
  62.3958302  84.0664126  54.9292769  63.5798576  83.2535710  53.8783247
  61.6050012  82.4534997  53.7789988  61.1980012  82.9974997  52.7479988
  61.0750012  81.3264997  54.2429988  61.4539007  80.8729928  55.0620629
  59.9770012  80.6754997  53.5379988  60.1216414  80.7107771  52.4582146
  59.8660012  79.2044997  53.9709988  59.8354141  79.1561488  55.0594958
  58.6120012  78.5804997  53.4039988  58.6420771  78.6280653  52.3154521
  58.5487869  77.5392441  53.7200545  57.7392952  79.1234376  53.7669097
  61.0810012  78.4404997  53.5099988  61.9757210  78.8785191  53.9523984
  60.9953622  77.3991274  53.8203363  61.1517023  78.4906438  52.4234502
  58.6740012  81.4194997  53.7799988  57.9900012  81.8324997  52.8369988
  58.3110012  81.6084997  55.0379988  58.8441177  81.2214445  55.8035537
  57.0840012  82.3224997  55.3449988  56.3680812  82.2453975  54.5266999
  56.4340012  81.7804997  56.6139988  57.1549851  81.8218337  57.4304379
  55.2170012  82.6084997  56.9729988  54.4953155  82.5672717  56.1571734
  54.7618010  82.2117767  57.8804701  55.5171063  83.6429812  57.1399912
  56.0520012  80.3294997  56.4179988  56.9445678  79.7453268  56.1940146
  55.5884116  79.9491489  57.3282282  55.3474663  80.2473318  55.5903636
  57.3700012  83.8124997  55.4709988  58.0590012  84.2444997  56.3939988
  56.9400012  84.6114997  54.4839988  56.3410699  84.2535703  53.7537473
  57.1790012  86.0264997  54.5359988  57.1181382  86.3089288  55.5870119
  58.5270012  86.5434997  53.9599988  58.6089363  86.0399975  52.9967379
  58.3509409  87.6071597  53.7995926  59.8280012  86.3544997  54.7469988
  59.7176605  86.8529131  55.7100719  59.9764207  85.2864388  54.9061204
  61.0430012  86.9354997  54.0059988  61.0463084  88.0090302  54.1947322
  61.9308030  86.4861559  54.4509678  61.0460012  86.6824997  52.4919988
  62.0545481  86.4010078  52.1891855  60.3602895  85.8632884  52.2756851
  60.6240012  87.8914997  51.7419988  61.2595186  88.6505981  51.9419661
  60.6359730  87.6944364  50.7514824  59.6893189  88.1522536  52.0221336
  56.1940012  86.5984997  53.5899988  55.2410012  85.9324997  53.1839988
  56.4260012  87.8814997  53.2489988  57.1670009  88.3373460  53.7620512
  55.7270012  88.6354997  52.2519988  54.6574735  88.6026995  52.4596858
  56.1810012  90.1094997  52.2359988  55.6197158  90.6911560  51.5047437
  56.0245531  90.5283690  53.2300674  57.6670012  90.2014997  51.8959988
  58.5090012  89.4994997  52.4549988  57.9910012  91.0804997  50.9089988
  58.9561705  91.1920415  50.6331248  57.2648518  91.6174110  50.4567443
  55.9980012  88.0224997  50.8969988  55.0540012  87.7514997  50.1599988
  57.2820012  87.7584997  50.5339988  58.0978546  88.0089093  51.0741631
  57.4770012  87.1074997  49.2659988  56.5520700  86.6022789  48.9878739
  57.8590012  88.0924997  48.1399988  57.8963138  87.6153920  47.1606749
  57.1190396  88.8927212  48.1257705  59.2290012  88.6994997  48.4399988
  59.4890012  89.2094997  49.5289988  60.1540012  88.5874997  47.4529988
  61.0799800  88.9677679  47.5873831  59.9121589  88.1243941  46.5886225
  58.5520012  86.0424997  49.3209988  59.7080012  86.3024997  49.6569988
  58.1860012  84.7884997  48.9909988  57.2079301  84.5374216  48.9701149
  59.1720012  83.7514997  48.7109988  60.1604236  84.2001272  48.6117336
  59.2120012  82.7284997  49.8439988  59.5436222  83.2039759  50.7670638
  58.2243591  82.2927210  49.9948631  60.1480012  81.5894997  49.5889988
  61.5180012  81.7824997  49.6339988  61.9100042  82.7733364  49.8635112
  62.3850012  80.7364997  49.3919988  63.4621524  80.9001054  49.4248467
  61.8860012  79.4814997  49.1079988  62.5672444  78.6512496  48.9217398
  60.5200012  79.2784997  49.0599988  60.1235262  78.2894312  48.8305399
  59.6600012  80.3254997  49.3019988  58.5824635  80.1645170  49.2688764
  58.8950012  83.0424997  47.3949988  57.7520012  82.7144997  47.0859988
  59.9520012  82.7944997  46.6319988  60.8622337  83.1118980  46.9333861
  59.8490012  82.1074997  45.3499988  58.8530393  82.1966903  44.9161737
  60.8710012  82.6484997  44.3449988  61.8709740  82.5514481  44.7677689
  60.7950012  81.8724997  43.0439988  59.7953847  81.9694650  42.6203650
  61.5271935  82.2689526  42.3405643  61.0077300  80.8206216  43.2347882
  60.6490012  84.1314997  44.1139988  60.7598694  84.6671942  45.0567827
  61.3824040  84.5019701  43.3977784  59.6450102  84.2922727  43.7212456
  60.0720012  80.6164997  45.5929988  61.1560012  80.2384997  46.0609988
  59.0980012  79.7594997  45.3009988  57.6850012  80.0764997  45.0519988
  57.5268499  80.2439516  43.9866123  57.4050803  80.9727434  45.6056145
  56.9820012  78.8544997  45.5519988  56.0341534  78.7312548  45.0280767
  56.7958891  78.9454321  46.6221366  57.9080012  77.7294997  45.2689988
  57.7778637  77.4323394  44.2283936  57.7730697  76.8611559  45.9138803
  59.3060012  78.3174997  45.4709988  59.6965038  78.1386808  46.4728120
  60.2820012  77.7764997  44.4449988  60.3120012  78.2184997  43.2959988
  61.0860012  76.8124997  44.8709988  61.0518219  76.4948826  45.8291483
  62.0620012  76.2094997  43.9799988  62.5849655  76.9900908  43.4274728
  63.0850012  75.4104997  44.7809988  62.5742064  74.5968697  45.2959698
  64.1450012  74.8414997  43.8689988  64.6565777  75.6546159  43.3539929
  64.8659235  74.2747548  44.4582104  63.6789226  74.1837201  43.1353794
  63.7110012  76.2744997  45.7339988  64.3563451  75.7769471  46.2415152
  61.3420012  75.3104997  42.9889988  60.5210012  74.4764997  43.3799988
  61.6320012  75.4924997  41.7019988  62.2738217  76.2178782  41.4156568
  61.0020012  74.6814997  40.6699988  59.9258062  74.6429408  40.8385717
  61.2580012  75.2744997  39.2879988  61.0403414  76.3419252  39.3244152
  62.3065001  75.1266359  39.0293750  60.3940012  74.6374997  38.2039988
  59.5670012  73.7654997  38.4719988  60.5920012  75.0744997  36.9659988
  60.0497388  74.6904270  36.2053809  61.2839717  75.7889914  36.7905591
  61.5390012  73.2604997  40.7459988  62.7460012  73.0314997  40.6309988
  60.6340012  72.3124997  40.9649988  59.6735361  72.5831461  41.1210654
  60.9720012  70.8984997  41.0319988  62.0017271  70.7413799  40.7109428
  60.8160012  70.3594997  42.4639988  60.9487219  69.2777177  42.4487593
  61.8420012  70.9804997  43.3879988  61.7096024  72.0623091  43.4041191
  61.7120048  70.5840206  44.3949773  62.8441324  70.7429039  43.0310915
  59.4250012  70.6684997  42.9769988  58.6854842  70.1957142  42.3307089
  59.3179647  70.2852280  43.9917626  59.2689731  71.7472742  42.9782726
  60.0710012  70.1394997  40.0699988  59.9380012  68.9124997  40.1589988
  59.4590012  70.8574997  39.1319988  59.6604412  71.8407232  39.0188936
  58.4870012  70.2494997  38.2469988  57.8963989  69.5503850  38.8390519
  57.8413005  71.0441884  37.8733147  59.0910012  69.5114997  37.0709988
  60.1010012  68.8214997  37.2149988  58.4860012  69.6604997  35.8959988
  57.6887685  70.2734376  35.8020490  58.9180012  68.9044997  34.7269988
  59.3278675  67.9427405  35.0354273  57.7340012  68.6544997  33.7979988
  56.9702563  68.0952976  34.3384486  57.3242944  69.6128247  33.4788538
  58.1440012  67.9164997  32.6639988  57.3895139  67.7671099  32.0895150
  60.0290012  69.6044997  33.9609988  60.9240012  68.9424997  33.4249988
  59.9800012  70.9324997  33.8939988  59.2111250  71.4451941  34.3015195
  60.9960012  71.6774997  33.1609988  61.2054647  71.1896522  32.2090381
  60.4990012  73.0954997  32.8839988  59.4983220  73.0072565  32.4609696
  60.4430953  73.6085756  33.8440652  61.3800012  73.8894997  31.9369988
  62.3573922  74.0123294  32.4036039  61.4876452  73.3199058  31.0139182
  60.7950012  75.2524997  31.6239988  59.8168318  75.1185714  31.1621039
  60.6838476  75.8102947  32.5538423  61.7000012  76.0214997  30.6779988
  62.6767359  76.1205452  31.1515806  61.7989078  75.4419386  29.7601613
  61.1660012  77.3724997  30.3559988  61.0746819  77.9098454  31.2063047
  61.7997442  77.8437040  29.7263670  60.2611295  77.2809285  29.9167709
  62.3210012  71.6984997  33.9089988  63.3860012  71.7114997  33.2809988
  62.2830012  71.6664997  35.2369988  61.3919940  71.6259806  35.7108803
  63.4910012  71.7724997  36.0449988  64.1750589  72.4698379  35.5613836
  63.1460012  72.3094997  37.4289988  62.4687426  71.6173858  37.9293978
  64.0580712  72.4133410  38.0167449  62.6641007  73.2823699  37.3320723
  64.2140012  70.4274997  36.1299988  63.9190012  69.4794997  35.3969988
  65.1780012  70.3414997  37.0419988  65.3325887  71.1256632  37.6594852
  66.0210012  69.1604997  37.1989988  66.4101798  68.8456971  36.2307330
  67.1950012  69.4824997  38.1139988  66.8285473  69.7879881  39.0940435
  67.8357394  68.6074498  38.2228213  68.0670012  70.5924997  37.6179988
  69.0430012  70.3534997  36.6709988  69.1723300  69.3429296  36.2835428
  69.8510012  71.3774997  36.2139988  70.6188218  71.1766738  35.4668568
  69.6840012  72.6574997  36.7059988  70.3178720  73.4683996  36.3471829
  68.7130012  72.9084997  37.6529988  68.5788267  73.9165616  38.0453104
  67.9100012  71.8794997  38.1039988  67.1412898  72.0755808  38.8514845
  65.1280012  68.0974997  37.8179988  63.9300012  68.3484997  38.5569988
  65.6690012  66.8234997  37.5479988  66.5234546  66.7401057  37.0159678
  65.2020205  65.9944385  37.8866527  80.8970012  86.6694997  82.9069988
  81.3710012  87.4804997  82.3129988  80.1330012  86.9974997  83.6429988
  80.3170012  85.9534997  82.2859988  82.0540012  85.9324997  83.5389988
  81.5030012  85.1724997  84.1319988  82.5570012  85.3504997  82.7379988
  83.0740012  86.7574997  84.3139988  83.7890012  86.0744997  84.8209988
  83.6620012  87.3034997  83.5449988  82.5160012  87.6494997  85.4489988
  83.3880012  88.2144997  85.8409988  81.9750012  88.5274997  85.0339988
  81.6110012  86.9234997  86.5309988  80.7170012  86.4134997  86.1119988
  82.2440012  86.1874997  87.0709988  81.0530012  87.8654997  87.6149988
  81.8850012  88.3984997  88.1229988  80.6250012  88.6934997  87.0099988
  80.0020012  87.2744997  88.5899988  79.5950012  88.0444997  89.2799988
  79.1630012  86.9414997  87.9409988  80.5900012  86.0614997  89.4119988
  80.7700012  85.3414997  88.5849988  81.5610012  86.3794997  89.8479988
  79.5920012  85.4894997  90.4059988  79.3870012  86.1714997  91.2579988
  78.5840012  85.2954997  89.9789988  80.0270012  84.1204997  90.9039988
  79.0570012  83.6544997  91.1779988  80.3960012  83.5114997  90.0509988
  81.1330012  84.1844997  91.9979988  81.8040012  83.2994997  91.9709988
  81.7610012  85.0654997  91.7469988  80.7640012  84.3914997  93.4799988
  80.1380012  85.3014997  93.3669988  80.1860012  83.5314997  93.8819988
  81.9060012  84.8434997  94.4499988  82.7510012  84.1254997  94.5089988
  82.2890012  85.8424997  94.1539988  81.3000012  84.9514997  95.8459988
  80.4700012  85.6664997  95.6569988  81.0030012  83.9844997  96.3039988
  82.3310012  85.5094997  96.7819988  82.1560012  84.9934997  97.7499988
  83.3430012  85.2314997  96.4169988  82.2440012  87.0594997  96.9859988
  81.6490012  87.8414997  96.2669988  82.9800012  87.2574997  98.0159988
  83.0910012  88.5834997  98.6169988  84.1120012  88.6044997  99.0549988
  83.0430012  89.3404997  97.8059988  82.1200012  89.0274997  99.7839988
  82.4960012  89.9384997 100.2979988  82.0830012  87.9664997 100.8459988
  83.0620012  87.6414997 101.2589988  81.5020012  88.4304997 101.6719988
  81.5090012  86.7984997 100.3949988  80.3930012  85.9914997 101.2929988
  79.5530012  87.1804997 102.0069988  78.5890012  86.8814997 103.0609988
  78.4970012  85.7954997 103.2779988  78.9530012  87.2544997 104.0419988
  77.2360012  87.5104997 102.6329988  76.6040012  87.2534997 103.4709988
  77.3870012  88.5774997 102.5699988  76.4100012  87.3204997 101.3429988
  77.2010012  87.6594997 100.0999988  76.6170012  87.7674997  99.1979988
  77.4980012  88.6744997 100.3219988  78.0540012  87.0034997 100.0129988
  75.9120012  85.9744997 101.1979988  76.7910012  85.3824997 100.9899988
  75.3720012  85.7064997 102.0939988  75.2030012  85.8244997 100.3969988
  75.1120012  88.1474997 101.4229988  74.5920012  88.1784997 100.4769988
  75.4190012  89.0814997 101.8699988  74.4530012  87.6754997 102.1359988
  79.5790012  85.2034997 100.3729988  81.1320012  85.2694997 102.3559988
  80.7660012  89.2294997  99.2159988  80.4640012  90.3214997  98.6399988
  81.2030012  91.2774997  98.4769988  78.9580012  90.4354997  98.3269988
  78.4800012  90.7484997  99.2799988  78.6360012  89.4534997  97.9199988
  78.7520012  91.5554997  97.2679988  79.0970012  92.4694997  97.7989988
  77.6720012  91.6964997  97.0489988  79.4570012  91.3004997  95.9239988
  80.5530012  91.4664997  95.9979988  79.1230012  92.1144997  95.2449988
  79.1670012  89.9704997  95.2219988  78.1630012  89.5254997  95.3919988
  79.7580012  89.1124997  95.6059988  79.4420012  90.1854997  93.7329988
  80.4540012  90.6374997  93.6589988  78.8130012  91.0434997  93.4129988
  79.2260012  88.8954997  92.8299988  79.8380012  88.0424997  93.1929988
  79.5610012  89.0964997  91.7899988  77.7980012  88.4144997  93.0139988
  77.8320012  87.9814997  94.0359988  77.7140012  87.5674997  92.2989988
  76.6340012  89.3114997  92.9089988  76.6970012  90.3004997  93.3859988
  75.4950012  89.0634997  92.1759988  74.6650012  89.7834997  92.2319988
  75.1860012  87.8954997  91.3289988  74.2450012  87.4094997  91.6649988
  75.9750012  87.1354997  91.5109988  75.0170012  88.1684997  89.8409988
  74.2540012  88.9204997  89.5439988  74.9050012  87.1544997  89.4019988
  76.3540012  88.6354997  89.1849988  77.0990012  87.9044997  89.5649988
  76.5040012  89.7044997  89.4469988  76.5270012  88.5434997  87.6399988
  76.0320012  87.6074997  87.3019988  77.6200012  88.3824997  87.5189988
  76.0400012  89.7444997  86.7719988  75.0090012  90.0354997  87.0679988
  76.0640012  89.2804997  85.7629988  77.1370012  90.8344997  86.6499988
  77.9060012  90.8014997  87.4509988  76.7000012  91.8514997  86.7529988
  77.8960012  90.6724997  85.2809988  78.1610012  89.5954997  85.2189988
  78.8970012  91.1524997  85.3199988  77.1420012  91.1564997  84.0169988
  77.8360012  91.0314997  83.1579988  76.9700012  92.2504997  84.1129988
  76.2030012  90.6364997  83.7279988  78.9360012  46.5554997  82.1349988
  78.0240012  47.1304997  82.4029988  78.7050012  45.6124997  81.5959988
  79.5570012  47.2024997  81.4789988  79.5100012  46.1384997  83.5289988
  78.7030012  45.5924997  84.0639988  80.3500012  45.4254997  83.3849988
  79.9900012  47.2794997  84.3589988  80.9560012  47.6204997  83.9269988
  79.3380012  48.1604997  84.1829988  79.9830012  47.0394997  85.8909988
  80.5240012  46.1394997  86.2509988  80.5700012  47.8954997  86.2879988
  78.5290012  47.2134997  86.4489988  78.0870012  48.1434997  86.0319988
  77.9290012  46.3964997  85.9939988  78.4220012  47.0864997  87.9959988
  78.7290012  46.0464997  88.2369988  78.9740012  47.8564997  88.5749988
  76.9800012  47.2694997  88.3759988  76.7480012  48.3454997  88.5309988
  76.3820012  46.9164997  87.5089988  76.6680012  46.2454997  89.5319988
  75.5770012  46.3334997  89.7179988  77.0500012  45.2934997  89.1049988
  77.3610012  46.6074997  90.8849988  78.4310012  46.8804997  90.7619988
  76.7320012  47.4314997  91.2849988  77.3130012  45.4864997  91.8529988
  76.2930012  45.0474997  91.8899988  78.0570012  44.7154997  91.5579988
  77.8250012  45.8634997  93.2829988  78.9310012  45.9484997  93.2199988
  77.5560012  46.9234997  93.4809988  77.4530012  44.8804997  94.3119988
  76.3730012  44.6534997  94.4419988  77.9330012  43.9444997  93.9549988
  77.9000012  45.1024997  95.7359988  78.8880012  45.6044997  95.8099988
  77.1950012  45.8774997  96.1069988  77.5420012  43.9024997  96.5859988
  76.4520012  43.7464997  96.4389988  78.0230012  42.9464997  96.2899988
  77.7000012  44.1954997  98.0899988  77.1560012  45.1334997  98.3319988
  77.2800012  43.3444997  98.6669988  79.1570012  44.2664997  98.4289988
  80.0250012  44.1894997  97.6489988  79.2500012  44.4264997  99.7289988
  80.5170012  44.6024997 100.3459988  80.4970012  44.5624997 101.4559988
  81.2230012  43.7924997 100.0649988  80.9420012  46.0824997 100.1209988
  81.7800012  46.1314997 100.8489988  79.7380012  46.9574997 100.5169988
  78.8540012  47.0604997  99.8519988  79.2800012  46.5494997 101.4439988
  80.4320012  48.1644997 101.0109988  80.0360012  49.5604997 100.3069988
  78.9600012  50.2334997 101.2899988  78.8810012  49.8134997 102.6089988
  79.0280012  48.7154997 102.6939988  79.6150012  50.3234997 103.2699988
  77.4400012  50.0724997 103.1919988  77.3590012  49.6214997 104.1689988
  77.3800012  51.1494997 103.1469988  76.2860012  49.4354997 102.3149988
  75.9240012  50.2994997 101.1539988  75.3990012  51.1634997 101.5349988
  76.8260012  50.6564997 100.6789988  75.3470012  49.6334997 100.5299988
  76.5540012  48.0854997 101.7499988  77.5370012  48.1864997 101.3139988
  76.6310012  47.3244997 102.5119988  75.9480012  47.6514997 100.9679988
  75.1800012  49.3454997 103.3629988  74.2430012  48.9434997 103.0049988
  75.0640012  50.3774997 103.6579988  75.5660012  48.7884997 104.2039988
  81.2080012  50.4674997 100.1339988  79.3160012  49.3154997  99.0559988
  81.3330012  46.3684997  98.7569988  82.4740012  46.9984997  98.5079988
  83.1580012  47.6594997  99.2599988  82.7760012  46.7744997  97.0299988
  83.0090012  45.7014997  96.8629988  83.6910012  47.3644997  96.8049988
  81.5970012  47.0824997  96.0589988  80.5760012  46.7304997  96.3199988
  81.8420012  46.5964997  95.0899988  81.2880012  48.6164997  95.6089988
  82.3520012  48.9044997  95.4639988  80.9730012  49.1894997  96.5069988
  80.3610012  48.9054997  94.4579988  79.3180012  48.8634997  94.8369988
  80.2930012  48.0384997  93.7669988  80.4820012  50.1994997  93.6449988
  81.4230012  50.2564997  93.0589988  80.5830012  50.9804997  94.4289988
  79.3270012  50.4024997  92.7109988  78.3960012  50.2084997  93.2849988
  79.4550012  49.6734997  91.8819988  79.1880012  51.7744997  92.0039988
  78.9640012  52.5654997  92.7509988  78.4350012  51.7554997  91.1869988
  80.4320012  52.2774997  91.3199988  80.7520012  53.2124997  91.8029988
  81.0770012  51.7704997  90.3119988  82.0560012  52.2554997  90.1839988
  80.7610012  50.4884997  89.5429988  80.4190012  49.6074997  90.1269988
  81.6180012  50.1264997  88.9349988  79.5950012  50.7194997  88.4899988
  78.7110012  51.0974997  89.0459988  79.3230012  49.7334997  88.0569988
  79.8660012  51.6674997  87.3219988  80.0830012  52.6694997  87.7499988
  78.9270012  51.8764997  86.7659988  81.1020012  51.3094997  86.3879988
  80.8300012  50.3274997  85.9429988  82.0210012  51.3224997  87.0119988
  81.2430012  52.2304997  85.1799988  81.4680012  53.3124997  85.2879988
  80.2190012  52.2124997  84.7499988  82.2760012  51.6114997  84.1869988
  82.3260012  50.5354997  84.4609988  83.3010012  52.0334997  84.2669988
  81.9120012  51.5964997  82.6709988  81.0980012  50.8634997  82.4849988
  82.8640012  51.3514997  82.1549988  81.3910012  52.9754997  82.1969988
  80.3580012  52.9954997  82.6069988  81.2760012  53.0194997  81.0929988
  81.9720012  53.7824997  82.6909988  54.7280012  66.8444997  84.6999988
  55.0520012  67.0334997  83.6539988  54.2020012  67.7244997  85.1279988
  53.9720012  66.0654997  84.4659988  55.9310012  66.4494997  85.4779988
  56.5840012  65.7464997  84.9179988  56.5240012  67.3704997  85.6619988
  55.4890012  65.8194997  86.7909988  54.6520012  65.1624997  86.4729988
  56.2730012  65.2074997  87.2859988  55.1610012  66.7664997  87.9609988
  56.1220012  67.2964997  88.1319988  54.5520012  67.6484997  87.6679988
  54.6300012  66.0724997  89.2479988  54.5490012  66.9054997  89.9799988
  53.6290012  65.6644997  88.9929988  55.4530012  64.8804997  89.8259988
  55.5520012  63.9914997  89.1669988  56.4710012  65.2244997  90.1059988
  54.9180012  64.4794997  91.2579988  55.1900012  65.3434997  91.9019988
  53.8110012  64.3964997  91.2169988  55.5760012  63.3154997  91.9919988
  55.6740012  62.3634997  91.4279988  56.6420012  63.5294997  92.2199988
  54.7320012  63.0234997  93.2399988  54.0440012  63.8794997  93.4089988
  54.1100012  62.1304997  93.0169988  55.4940012  62.7504997  94.5599988
  54.6400012  62.6404997  95.2619988  55.9550012  61.7504997  94.4159988
  56.2480012  63.9524997  95.1419988  57.0890012  63.9894997  94.4179988
  55.6370012  64.8254997  94.8269988  56.5470012  64.0364997  96.6029988
  55.7470012  63.5494997  97.1989988  57.3970012  63.3414997  96.7739988
  56.8580012  65.5184997  97.0089988  57.8310012  65.7654997  96.5329988
  56.1350012  66.2174997  96.5369988  57.2170012  65.6814997  98.4429988
  56.4260012  65.2144997  99.0669988  58.0580012  64.9564997  98.4459988
  57.6840012  67.0964997  98.8879988  58.0640012  67.0214997  99.9289988
  58.4490012  67.5614997  98.2299988  56.5240012  68.0644997  98.8519988
  56.4730012  69.0704997  98.2219988  55.5550012  67.5084997  99.5889988
  54.2490012  68.1534997  99.5319988  54.0890012  68.9044997 100.3359988
  54.0640012  68.5284997  98.5029988  53.1510012  67.1814997 100.0139988
  52.1570012  67.6574997 100.1509988  53.5500012  66.5664997 101.3869988
  53.6950012  67.3214997 102.1899988  52.6470012  65.9974997 101.6959988
  54.6560012  65.6644997 101.3799988  55.1090012  65.2034997 102.8419988
  54.9300012  63.6394997 102.6509988  55.6960012  62.8954997 101.7489988
  56.7280012  63.2954997 101.6479988  55.7400012  61.8624997 102.1549988
  55.0700012  62.8274997 100.3189988  54.8670012  63.8184997  99.9399988
  55.8330012  62.5344997  99.6129988  53.8700012  61.9004997 100.0889988
  52.6830012  62.3454997 100.9099988  52.5310012  63.3314997 100.4979988
  51.8570012  61.6534997 100.8369988  52.9210012  62.5784997 101.9379988
  53.4270012  61.9204997  98.6709988  54.2840012  61.5964997  98.0989988
  52.7650012  61.0704997  98.5979988  52.9370012  62.8514997  98.4289988
  54.1930012  60.5524997 100.6329988  54.4840012  60.5814997 101.6729988
  55.0190012  60.1074997 100.0989988  53.3160012  59.9324997 100.5249988
  56.5520012  65.6154997 102.9839988  54.2320012  65.6334997 103.9519988
  52.9300012  66.1094997  99.1089988  52.1810012  66.3824997  98.0349988
  51.7800012  67.4874997  97.7409988  51.8800012  65.0304997  97.2829988
  51.3500012  64.3764997  98.0079988  52.8720012  64.6824997  96.9239988
  50.9210012  65.2104997  96.0929988  51.5500012  65.7134997  95.3279988
  49.8770012  65.5654997  96.2329988  50.6550012  63.8494997  95.4179988
  49.8440012  63.4244997  96.0469988  51.4870012  63.1174997  95.4979988
  50.0380012  63.8824997  93.9819988  49.2820012  64.6854997  94.1189988
  49.6200012  62.8844997  93.7299988  51.1350012  64.1924997  92.9199988
  52.0160012  63.5224997  93.0169988  51.6120012  65.1284997  93.2819988
  50.5500012  64.4014997  91.5259988  51.2980012  64.9234997  90.8909988
  49.7570012  65.1444997  91.7569988  50.0100012  63.2084997  90.8159988
  49.9220012  63.4994997  89.7469988  48.9940012  62.9494997  91.1839988
  50.8910012  61.9784997  90.9559988  51.0580012  61.6184997  91.9819988
  51.6170012  61.2044997  90.0289988  52.1890012  60.3384997  90.3949988
  51.6810012  61.4084997  88.5399988  50.6890012  61.5654997  88.0659988
  52.0930012  60.4984997  88.0539988  52.6050012  62.5794997  88.1659988
  53.5520012  62.1014997  87.8329988  52.8150012  63.2674997  89.0119988
  52.2510012  63.3034997  86.8599988  52.2610012  62.5234997  86.0689988
  53.0080012  64.0994997  86.6919988  50.9110012  64.0734997  87.0419988
  51.1360012  64.6354997  87.9739988  49.9610012  63.5174997  87.1909988
  50.5880012  65.0354997  85.8769988  51.5370012  65.5894997  85.7179988
  49.7750012  65.6814997  86.2719988  50.0730012  64.3764997  84.6049988
  49.3970012  63.4984997  84.6859988  50.9690012  64.0424997  84.0379988
  49.2650012  65.2854997  83.6909988  50.0040012  66.0464997  83.3609988
  48.5620012  65.7304997  84.4279988  48.5450012  64.6274997  82.5159988
  49.2340012  64.1404997  81.7929988  47.9820012  65.3244997  81.8589988
  47.7590012  63.8804997  82.7589988  94.1970012  54.6404997  79.5459988
  94.4910012  53.5844997  79.3699988  94.2670012  55.3044997  78.6569988
  93.1180012  54.5994997  79.8069988  95.1020012  55.2494997  80.6999988
  96.0940012  55.6014997  80.3459988  94.5830012  56.1364997  81.1229988
  95.2830012  54.2484997  81.9039988  94.2800012  53.8394997  82.1519988
  95.8320012  53.3964997  81.4489988  96.0800012  54.6834997  83.1209988
  96.0680012  53.9134997  83.9219988  97.1220012  54.8744997  82.7889988
  95.5070012  55.8954997  83.9179988  95.6460012  56.8534997  83.3739988
  94.4320012  55.6684997  84.0789988  96.2910012  56.2034997  85.2629988
  95.5530012  56.8624997  85.7689988  96.2280012  55.2614997  85.8479988
  97.7110012  56.7064997  85.1699988  98.2630012  55.9784997  84.5379988
  97.6980012  57.6784997  84.6319988  98.4640012  56.9454997  86.4579988
  98.5460012  55.9654997  86.9759988  99.4520012  57.4254997  86.2959988
  97.7260012  57.8784997  87.5129988  97.6890012  58.9204997  87.1299988
  96.6580012  57.5984997  87.6309988  98.5400012  57.7874997  88.8419988
  98.6730012  56.7564997  89.2349988  99.5510012  58.1514997  88.5609988
  97.7460012  58.6484997  89.8979988  97.5800012  59.6674997  89.4869988
  96.8310012  58.0184997  89.8859988  98.5130012  58.9094997  91.2219988
  98.8840012  57.9734997  91.6919988  99.4570012  59.4644997  91.0319988
  97.6320012  59.6344997  92.2419988  98.2030012  59.9624997  93.1369988
  97.2620012  60.5824997  91.7959988  96.4820012  58.7494997  92.6649988
  95.9000012  58.6394997  91.7249988  96.7910012  57.7314997  92.9849988
  95.6210012  59.2604997  93.8789988  96.2530012  59.4844997  94.7649988
  95.0650012  60.1754997  93.5829988  94.6120012  58.2014997  94.1209988
  93.8400012  57.7204997  93.2999988  94.5650012  57.9884997  95.4319988
  93.4700012  57.3274997  96.0159988  92.9740012  58.0304997  96.7189988
  92.7530012  56.9714997  95.2459988  93.8860012  56.0624997  96.8079988
  92.9650012  55.5104997  97.0929988  94.4340012  56.5524997  98.1519988
  94.9500012  57.5354997  98.1319988  93.4990012  56.7704997  98.7109988
  95.1490012  55.5214997  98.8989988  96.0240012  56.0654997 100.0739988
  95.1790012  57.2994997 100.6719988  95.6630012  58.6404997 100.7709988
  96.6720012  58.8204997 100.3419988  94.9250012  59.2044997 100.1619988
  95.6440012  59.3364997 102.1949988  96.4660012  59.0904997 102.8519988
  95.9280012  60.3774997 102.1539988  94.4010012  59.2704997 103.0179988
  93.9260012  57.9444997 103.5129988  94.5420012  57.7004997 104.3659988
  92.8940012  58.0264997 103.8219988  94.0390012  57.2024997 102.7359988
  94.6240012  60.1514997 104.2219988  93.6790012  60.2214997 104.7399988
  95.3900012  59.9614997 104.9589988  94.9590012  61.0884997 103.8009988
  93.3740012  59.8964997 102.0959988  93.1540012  59.2924997 101.2279988
  93.7020012  60.8684997 101.7579988  92.3910012  60.0634997 102.5109988
  96.0530012  55.0714997 101.1899988  97.3520012  56.4294997  99.5309988
  94.8720012  55.2374997  96.0639988  94.5380012  54.7444997  94.9259988
  93.4460012  54.7804997  94.3879988  95.7310012  53.9424997  94.3689988
  95.7910012  52.9704997  94.9039988  96.6220012  54.5984997  94.4639988
  95.5500012  53.5054997  92.8699988  94.5470012  53.1384997  92.5639988
  96.2490012  52.6854997  92.5989988  95.9690012  54.7144997  91.9739988
  96.9500012  55.0884997  92.3349988  95.2900012  55.5664997  92.1949988
  95.9510012  54.4384997  90.4099988  96.5760012  53.5394997  90.2179988
  96.4080012  55.3134997  89.9009988  94.5230012  54.2794997  89.8269988
  93.8300012  54.4484997  90.6789988  94.2440012  53.2754997  89.4429988
  94.2560012  55.3324997  88.6429988  94.9930012  55.2324997  87.8179988
  94.6020012  56.3514997  88.9179988  92.8400012  55.4064997  87.9789988
  92.5580012  54.4454997  87.4989988  92.8380012  56.1694997  87.1709988
  91.7070012  55.8114997  88.9509988  91.2240012  54.9494997  89.4349988
  91.4040012  57.1014997  89.1999988  90.6330012  57.3574997  89.9429988
  92.0360012  58.2764997  88.6079988  91.2100012  59.0024997  88.4459988
  92.5230012  58.0864997  87.6279988  93.3150012  58.8654997  89.4089988
  93.9910012  58.0054997  89.6039988  92.8000012  59.3414997  90.2709988
  94.0170012  60.0474997  88.6069988  94.8260012  60.1224997  89.3639988
  93.3760012  60.9544997  88.5729988  94.5030012  59.6894997  87.1969988
  93.5900012  59.4774997  86.5999988  95.1750012  58.8054997  87.2139988
  95.2640012  60.8174997  86.6109988  96.0700012  61.1434997  87.3029988
  94.5590012  61.6714997  86.5139988  95.8460012  60.5974997  85.1879988
  96.6150012  59.7954997  85.1719988  96.3530012  61.5354997  84.8759988
  94.8640012  60.1684997  84.1299988  94.2500012  61.0724997  83.9289988
  94.1780012  59.3424997  84.4169988  95.6610012  59.9454997  82.8149988
  94.9030012  59.5874997  82.0869988  96.4780012  59.2064997  82.9589988
  96.1220012  60.9284997  82.5809988  53.6580012  88.8914997  79.9289988
  53.9600012  89.6234997  80.7079988  52.5470012  88.9154997  79.9139988
  54.0460012  89.1344997  78.9169988  54.2530012  87.5284997  80.3809988
  53.5460012  86.7444997  80.0359988  55.2960012  87.4964997  79.9999988
  54.1900012  87.3014997  81.9099988  54.8930012  87.8764997  82.5499988
  53.1460012  87.4534997  82.2589988  54.3960012  85.8024997  82.1759988
  53.6840012  85.1664997  81.6069988  55.4230012  85.7434997  81.7569988
  54.2830012  85.4294997  83.6199988  54.9240012  86.0044997  84.3219988
  53.2360012  85.5144997  83.9829988  54.6560012  83.8794997  83.8489988
  54.0550012  83.3094997  83.1079988  55.7080012  83.8444997  83.4929988
  54.6260012  83.3414997  85.3399988  55.0140012  82.3064997  85.2209988
  55.2440012  84.1034997  85.8619988  53.3100012  83.1934997  86.0829988
  52.7200012  84.0294997  85.6499988  52.8210012  82.1984997  86.0189988
  53.4910012  83.2294997  87.6939988  54.1080012  82.3604997  88.0069988
  54.1640012  84.0994997  87.8439988  52.2100012  83.3234997  88.5009988
  51.5490012  84.1844997  88.2629988  51.6120012  82.4464997  88.1729988
  52.5070012  83.1964997  90.0199988  53.2030012  82.3404997  90.1499988
  53.0690012  84.0804997  90.3909988  51.2980012  82.9994997  90.9819988
  50.7200012  83.9394997  90.8549988  50.6940012  82.1234997  90.6639988
  51.6650012  82.8954997  92.4419988  50.7450012  82.7204997  93.0399988
  52.2490012  81.9554997  92.5399988  52.3600012  84.0924997  93.1009988
  53.2240012  84.3884997  92.4679988  51.6050012  84.8984997  93.2219988
  52.7900012  83.8654997  94.6109988  52.0000012  83.4054997  95.2419988
  53.5480012  83.0644997  94.4749988  53.1390012  85.2314997  95.2309988
  53.4220012  86.2244997  94.5959988  53.0550012  85.1304997  96.5229988
  53.9250012  85.9444997  97.3049988  54.6540012  85.3164997  97.8599988
  54.3460012  86.7404997  96.6539988  53.0900012  86.6224997  98.3719988
  53.7760012  87.3064997  98.9159988  52.4200012  85.6294997  99.3619988
  53.0290012  84.7264997  99.5799988  52.2040012  86.1624997 100.3129988
  51.2670012  84.9834997  98.8899988  50.0140012  84.8334997  99.8189988
  50.7030012  84.3254997 101.1309988  51.3310012  83.0484997 101.0029988
  50.6920012  82.2664997 101.4669988  51.5520012  82.6854997  99.9759988
  52.6610012  83.0684997 101.7309988  53.1680012  82.1174997 101.6599988
  53.3760012  83.6654997 101.1839988  52.6790012  83.5904997 103.1339988
  51.4390012  83.1434997 103.9069988  51.4690012  83.6724997 104.8479988
  50.5760012  83.5054997 103.3689988  51.4110012  82.0764997 104.0719988
  53.9250012  83.0264997 103.8909988  54.7960012  82.8864997 103.2679988
  54.2450012  83.6964997 104.6749988  53.6270012  82.1334997 104.4189988
  52.8480012  85.0934997 103.2049988  52.1320012  85.5634997 102.5479988
  53.8500012  85.4224997 102.9709988  52.6930012  85.3414997 104.2449988
  49.4600012  86.1754997 100.0609988  49.0710012  83.8714997  99.4099988
  52.0390012  87.3824997  97.6889988  51.2870012  88.2444997  98.4529988
  51.6670012  88.7884997  99.4529988  49.9610012  88.4754997  97.8319988
  49.6530012  89.5114997  98.0909988  49.1200012  87.8384997  98.1809988
  50.0410012  88.2624997  96.2989988  50.3590012  87.2164997  96.1019988
  50.8460012  88.8934997  95.8659988  48.6810012  88.6794997  95.5559988
  48.5550012  89.7604997  95.7809988  47.7900012  88.1154997  95.9039988
  48.7310012  88.6204997  94.0039988  49.7680012  88.4454997  93.6479988
  48.5580012  89.6134997  93.5369988  47.9520012  87.5684997  93.2209988
  46.9080012  87.7864997  93.5339988  48.0860012  86.5174997  93.5539988
  48.1420012  87.4254997  91.6559988  49.1480012  87.0014997  91.4529988
  48.0870012  88.4664997  91.2709988  47.0450012  86.7354997  90.7219988
  47.3760012  86.7854997  89.6629988  46.1050012  87.3264997  90.7559988
  46.9260012  85.3704997  91.2459988  46.7050012  85.3644997  92.3239988
  47.2470012  84.2304997  90.6429988  47.2650012  83.2464997  91.1339988
  47.8110012  84.2054997  89.2939988  48.2200012  83.1794997  89.1759988
  48.5740012  84.9594997  89.0069988  46.7070012  84.3734997  88.1849988
  45.8910012  85.1184997  88.3039988  46.1910012  83.3934997  88.2799988
  47.3150012  84.3314997  86.7779988  46.5150012  84.4934997  86.0239988
  47.8090012  83.3464997  86.6329988  48.3660012  85.5134997  86.4779988
  49.2640012  85.2914997  87.0929988  47.9540012  86.5204997  86.7049988
  48.7440012  85.5464997  84.9479988  49.3310012  86.4744997  84.7819988
  47.7960012  85.6924997  84.3869988  49.4870012  84.2964997  84.4589988
  49.1420012  83.3584997  84.9429988  50.5840012  84.3924997  84.6059988
  49.2450012  84.0914997  82.8879988  49.5290012  85.0424997  82.3899988
  48.1450012  83.9804997  82.7839988  49.9050012  82.9334997  82.1849988
  49.7840012  82.9374997  81.0809988  49.4610012  81.9684997  82.5099988
  51.0120012  82.9834997  82.2699988  60.5050012  56.0164997  80.5159988
  61.3640012  56.5964997  80.1139988  59.6460012  56.7204997  80.5229988
  60.4020012  55.1534997  79.8239988  60.7240012  55.6614997  81.9749988
  59.8910012  55.1334997  82.4859988  61.4620012  54.8314997  81.9499988
  61.3580012  56.8314997  82.8779988  61.8960012  57.5514997  82.2249988
  60.4610012  57.2994997  83.3369988  62.3130012  56.3134997  83.9579988
  61.7470012  55.5324997  84.5089988  63.1400012  55.7094997  83.5279988
  62.9790012  57.1764997  85.0319988  64.0200012  56.9184997  85.3229988
  63.1600012  58.1404997  84.5089988  62.1440012  57.3594997  86.2589988
  61.0970012  57.5024997  85.9169988  62.2420012  56.5724997  87.0369988
  62.4190012  58.6634997  87.1129988  63.4660012  58.9564997  87.3429988
  62.0540012  59.4684997  86.4399988  61.7280012  58.7784997  88.4639988
  60.6490012  58.8384997  88.2059988  61.9870012  57.9094997  89.1059988
  62.1560012  60.0114997  89.3189988  63.1680012  59.7314997  89.6799988
  62.1440012  60.8914997  88.6409988  61.2170012  60.3044997  90.4619988
  61.6000012  61.1274997  91.1029988  60.2540012  60.7034997  90.0769988
  60.9010012  59.1304997  91.4049988  60.4050012  58.3014997  90.8559988
  61.8550012  58.6584997  91.7219988  60.0310012  59.3914997  92.6929988
  60.4880012  60.1394997  93.3759988  59.1190012  59.9364997  92.3669988
  59.7550012  58.1214997  93.4449988  59.3720012  57.2794997  92.8299988
  60.7040012  57.7734997  93.9059988  58.5720012  58.1274997  94.5639988
  57.7070012  58.2414997  93.8749988  58.7150012  57.2064997  95.1689988
  58.5500012  59.2144997  95.6199988  59.5500012  59.2394997  96.1029988
  58.3150012  60.1884997  95.1409988  57.4250012  58.9664997  96.6529988
  56.3910012  59.6094997  96.7249988  57.7030012  57.9414997  97.4259988
  56.7420012  57.6214997  98.4319988  56.9740012  58.2054997  99.3479988
  55.6780012  57.8004997  98.1669988  56.8510012  56.1004997  98.5989988
  55.9710012  55.8084997  99.2109988  58.1360012  55.8084997  99.5349988
  58.1550012  56.5244997 100.3839988  57.9190012  54.8324997 100.0209988
  59.4070012  56.0294997  98.8069988  60.7290012  55.5754997  99.5029988
  60.7420012  56.3504997 100.8609988  61.5660012  57.5434997 100.9909988
  62.6240012  57.3314997 101.2529988  61.5070012  58.2564997 100.1409988
  60.9250012  58.3104997 102.1229988  61.4260012  59.2654997 102.1879988
  59.8650012  58.4594997 101.9779988  60.9520012  57.6484997 103.5539988
  60.3500012  56.2234997 103.6529988  60.7390012  55.6944997 102.7949988
  60.6670012  55.8674997 104.6219988  59.2760012  56.3304997 103.6789988
  62.3970012  57.6754997 103.8569988  62.8670012  58.6034997 104.1499988
  62.5970012  57.1734997 104.7919988  62.9340012  57.1834997 103.0599988
  60.1930012  58.6424997 104.4139988  59.1770012  58.2844997 104.4909988
  60.3610012  59.6664997 104.1149988  60.6280012  58.4424997 105.3819988
  60.6690012  54.1254997  99.7469988  61.8530012  56.0554997  98.6699988
  56.8990012  55.5174997  97.2899988  56.6150012  54.1874997  97.2419988
  56.6360012  53.4224997  98.1239988  56.3010012  53.7164997  95.8189988
  56.4700012  54.6134997  95.1859988  55.2370012  53.3984997  95.7769988
  57.3310012  52.5614997  95.5389988  56.8100012  51.6004997  95.7339988
  58.2570012  52.7004997  96.1369988  57.8780012  52.4364997  94.1099988
  57.0080012  52.4274997  93.4189988  58.4160012  51.4744997  93.9739988
  58.8160012  53.6084997  93.7249988  59.7460012  53.4184997  94.3019988
  58.3950012  54.6024997  93.9879988  59.0650012  53.6984997  92.1739988
  59.4320012  52.6994997  91.8569988  59.9210012  54.3594997  91.9199988
  57.8280012  54.0264997  91.3019988  57.0590012  53.2514997  91.5069988
  58.0950012  54.1254997  90.2279988  57.1430012  55.3594997  91.7969988
  57.8710012  56.1984997  91.8039988  56.9410012  55.2404997  92.8829988
  55.9480012  55.7454997  90.9579988  55.0780012  55.0724997  90.9809988
  55.8900012  56.6924997  90.0889988  54.9140012  56.8924997  89.6219988
  56.9190012  57.7304997  89.6239988  57.7870012  57.7444997  90.3169988
  56.3970012  58.7004997  89.4789988  57.4610012  57.1604997  88.2259988
  57.5680012  56.0594997  88.3249988  58.4910012  57.5754997  88.2169988
  56.5460012  57.5374997  86.9539988  56.5420012  58.6364997  86.7859988
  55.4710012  57.2614997  86.9979988  57.0610012  56.7684997  85.6529988
  57.2550012  55.7024997  85.8979988  58.0550012  57.1734997  85.3649988
  56.2060012  56.6054997  84.3629988  55.1300012  56.8214997  84.5349988
  56.2840012  55.6244997  83.8479988  56.7420012  57.5794997  83.2259988
  56.0350012  57.5054997  82.3729988  57.7340012  57.1924997  82.9069988
  56.8820012  59.0924997  83.5369988  57.5170012  59.1844997  84.4439988
  55.8520012  59.4554997  83.7419988  57.4070012  59.9654997  82.3859988
  57.3360012  60.9954997  82.7969988  56.7070012  59.7254997  81.5569988
  58.4510012  59.8224997  82.0359988  99.6530012  65.0864997  81.1559988
 100.3640012  65.8634997  81.5099988  99.6410012  65.3294997  80.0719988
 100.0500012  64.0584997  81.3009988  98.3230012  65.2744997  81.9699988
  98.2140012  66.3744997  82.0849988  97.4670012  64.7524997  81.4909988
  98.5050012  64.7384997  83.3919988  97.5880012  64.7764997  84.0169988
  98.9050012  63.7104997  83.2599988  99.4850012  65.5034997  84.2379988
 100.5040012  65.5304997  83.7949988  99.2430012  66.5874997  84.2389988
  99.4950012  64.9654997  85.6699988  98.4630012  64.8114997  86.0519988
  99.9240012  63.9444997  85.7669988 100.2990012  65.9604997  86.5239988
 101.2020012  66.1154997  85.8959988  99.9880012  66.9934997  86.7879988
 100.9270012  65.3054997  87.8359988 101.1460012  64.2494997  87.5699988
 101.8250012  65.9074997  88.0889988  99.9580012  65.2944997  89.0769988
 100.0160012  66.3294997  89.4769988  98.8660012  65.2214997  88.8829988
 100.2400012  64.3194997  90.1859988  99.4460012  64.1364997  90.9419988
 100.4200012  63.3124997  89.7519988 101.4030012  64.6464997  91.0009988
 101.6810012  63.7734997  91.6299988 102.3480012  64.8514997  90.4529988
 101.1580012  65.8444997  91.9549988 100.7090012  66.6654997  91.3549988
 100.4370012  65.5954997  92.7619988 102.5110012  66.3974997  92.5279988
 103.0210012  65.6164997  93.1309988 103.2290012  66.7404997  91.7519988
 102.3120012  67.6584997  93.4079988 103.3040012  68.1244997  93.5879988
 101.7600012  68.3614997  92.7479988 101.5620012  67.5824997  94.7439988
 101.2240012  68.6084997  95.0029988 100.6710012  66.9294997  94.6329988
 102.5240012  66.9964997  95.8009988 102.9090012  65.9894997  95.5299988
 103.4050012  67.6624997  95.9159988 101.6850012  66.7724997  97.0209988
 100.4700012  67.0784997  97.0229988 102.3660012  66.2764997  97.9479988
 101.8430012  65.8284997  99.1899988 100.8580012  65.3294997  99.0639988
 102.6380012  65.2164997  99.6679988 101.8730012  67.0604997 100.1199988
 102.8040012  67.6514997  99.9829988 101.6850012  66.5004997 101.5729988
 102.3600012  65.6214997 101.6559988 101.8890012  67.3004997 102.3159988
 100.2330012  66.2024997 101.7209988  99.6460012  64.8874997 102.3789988
  98.0720012  65.0144997 102.2579988  97.3190012  66.1084997 102.7239988
  96.3870012  65.7644997 103.2219988  97.7180012  66.6544997 103.6049988
  97.0390012  67.1354997 101.5879988  96.4770012  67.9604997 102.0009988
  97.9750012  67.5904997 101.2999988  96.3010012  66.6924997 100.3139988
  97.3060012  66.0304997  99.3319988  98.0190012  66.7634997  98.9829988
  97.9010012  65.2154997  99.7159988  96.7700012  65.6764997  98.4639988
  95.3120012  65.6584997 100.6759988  94.6460012  65.4124997  99.8619988
  95.8940012  64.8234997 101.0369988  94.6590012  66.1254997 101.3979988
  95.6030012  67.9084997  99.7309988  95.3050012  67.6854997  98.7169988
  96.4320012  68.5984997  99.6839988  94.7940012  68.2664997 100.3499988
 100.1120012  63.7424997 101.5989988  99.9830012  65.0194997 103.8599988
 100.7640012  67.9644997  99.8249988 100.6490012  69.0934997 100.4169988
 101.4160012  69.6324997 101.1739988  99.2970012  69.6714997  99.9949988
  99.4040012  70.7544997 100.2189988  98.3910012  69.1874997 100.4189988
  99.0420012  69.6014997  98.5399988  98.6660012  68.5864997  98.2929988
  99.9750012  69.7874997  97.9659988  98.2610012  70.8444997  97.9719988
  98.8140012  71.7554997  98.2839988  97.2360012  70.7734997  98.3959988
  98.0550012  70.8104997  96.4799988  98.9920012  70.7964997  95.8829988
  97.5220012  71.7184997  96.1239988  97.2230012  69.5354997  96.0769988
  96.6290012  69.2964997  96.9849988  97.7990012  68.5864997  96.0269988
  96.6560012  69.7744997  94.7289988  97.3910012  70.1854997  94.0039988
  95.8340012  70.5164997  94.8109988  95.9230012  68.4774997  94.1739988
  95.4620012  68.9474997  93.2789988  95.1610012  68.1504997  94.9119988
  96.7440012  67.2304997  93.7649988  96.7370012  66.2654997  94.2929988
  97.5530012  67.1884997  92.6949988  98.1520012  66.2744997  92.5719988
  97.9410012  68.2524997  91.6909988  99.0450012  68.3504997  91.7679988
  97.4220012  69.1974997  91.9589988  97.4750012  67.8994997  90.2539988
  96.3660012  67.8714997  90.2039988  97.8090012  66.8554997  90.0709988
  97.9880012  68.8654997  89.1669988  99.0640012  68.5904997  89.1209988
  97.9390012  69.9514997  89.3939988  97.3050012  68.7484997  87.7669988
  96.2200012  68.9844997  87.7959988  97.2720012  67.6984997  87.4029988
  97.8520012  69.5784997  86.5869988  98.9230012  69.2994997  86.4899988
  97.6210012  70.6094997  86.9289988  97.1810012  69.3544997  85.2159988
  96.3300012  70.0644997  85.1339988  96.6390012  68.3854997  85.1769988
  98.1010012  69.5074997  83.9179988  98.9060012  68.7704997  84.1289988
  98.5250012  70.5224997  84.0719988  97.3590012  69.4404997  82.5969988
  98.0390012  69.4974997  81.7199988  96.7350012  70.3594997  82.6139988
  96.7090012  68.5394997  82.6209988  67.4400012  92.8204997  84.3789988
  67.3430012  93.3684997  83.4179988  66.5290012  92.9814997  84.9939988
  67.5840012  91.7404997  84.1599988  68.6960012  93.3254997  85.0409988
  69.5590012  93.0764997  84.3869988  68.6690012  94.4114997  85.2729988
  68.9990012  92.6854997  86.4229988  69.3330012  91.6404997  86.2479988
  69.8300012  93.3044997  86.8249988  67.7950012  92.7624997  87.3899988
  67.4420012  93.8124997  87.4789988  66.9690012  92.1464997  86.9749988
  68.0430012  92.4074997  88.8939988  67.1360012  92.4834997  89.5319988
  68.2190012  91.3124997  88.8209988  69.3060012  93.1194997  89.3609988
  70.1440012  92.6744997  88.7829988  69.3130012  94.2024997  89.1129988
  69.7130012  93.0844997  90.8349988  68.8980012  92.7684997  91.5209988
  70.4790012  92.2834997  90.9069988  70.1770012  94.4914997  91.2729988
  71.0420012  94.7914997  90.6429988  69.3300012  95.1814997  91.0699988
  70.4570012  94.5334997  92.7499988  69.8690012  93.6974997  93.1849988
  71.5330012  94.2804997  92.8689988  70.1470012  95.8674997  93.4389988
  70.9490012  96.6004997  93.2049988  69.1820012  96.2454997  93.0379988
  70.0960012  95.6474997  94.9669988  69.1540012  95.1574997  95.2929988
  70.8080012  94.8694997  95.3169988  70.2250012  96.9324997  95.7679988
  70.4020012  96.6534997  96.8289988  71.1950012  97.3944997  95.4839988
  69.2220012  98.0684997  95.6129988  69.5890012  98.8094997  96.3549988
  69.3390012  98.5024997  94.5969988  67.7250012  97.8034997  95.8649988
  67.1880012  98.7764997  95.8859988  67.2300012  97.1934997  95.0789988
  67.6150012  97.2344997  97.2519988  67.8850012  96.1614997  97.3569988
  68.3040012  97.8204997  97.8969988  66.1900012  97.3054997  97.5929988
  65.2870012  96.9604997  96.8389988  66.0430012  97.9584997  98.7569988
  64.7230012  98.0324997  99.2949988  64.7330012  99.0034997  99.8339988
  63.9610012  98.1664997  98.4969988  64.3220012  96.8004997 100.1139988
  63.3620012  97.1054997 100.5819988  65.3990012  96.4454997 101.2249988
  65.7080012  97.4034997 101.6969988  64.8980012  95.8234997 101.9969988
  66.5100012  95.7534997 100.7449988  67.9280012  96.0614997 101.4589988
  68.4340012  94.6704997 101.9479988  67.7450012  93.8064997 102.8649988
  68.4820012  93.3524997 103.5619988  67.1050012  94.3284997 103.6089988
  67.0140012  92.6884997 102.0329988  66.5410012  92.0634997 102.7759988
  66.2570012  93.1724997 101.4349988  67.8890012  91.7034997 101.2169988
  68.9330012  91.0474997 102.1619988  69.5710012  90.3694997 101.6149988
  69.4450012  91.8244997 102.7099988  68.4390012  90.5424997 102.9789988
  67.1530012  90.5094997 100.6799988  66.4810012  90.2124997 101.4709988
  66.6380012  90.6944997  99.7489988  67.8470012  89.7274997 100.4089988
  68.5440012  92.3224997 100.0199988  69.0200012  91.5814997  99.3949988
  69.2690012  93.0514997 100.3499988  67.8380012  92.8874997  99.4279988
  68.8530012  96.5144997 100.3869988  67.7670012  96.9404997 102.6639988
  64.2000012  95.7444997  99.1739988  63.6050012  94.6434997  99.6409988
  62.8890012  94.5884997 100.6019988  63.9740012  93.4234997  98.6889988
  63.0700012  93.3104997  98.0519988  64.0940012  92.5024997  99.2979988
  65.2200012  93.7304997  97.8069988  66.0900012  94.0814997  98.4019988
  64.9510012  94.5564997  97.1139988  65.7160012  92.5614997  96.8699988
  64.8780012  92.2164997  96.2269988  66.1130012  91.7134997  97.4689988
  66.8570012  93.1194997  96.0409988  67.7480012  92.4994997  96.2779988
  67.0870012  94.1804997  96.2779988  66.5130012  93.2084997  94.4829988
  66.4840012  92.1474997  94.1539988  67.3460012  93.7364997  93.9699988
  65.2240012  93.9364997  94.0199988  65.1870012  94.8294997  94.6799988
  64.3230012  93.2914997  94.0989988  65.4740012  94.3674997  92.5529988
  65.4950012  93.4464997  91.9319988  66.4770012  94.8374997  92.4649988
  64.3850012  95.2854997  91.9429988  63.4170012  94.7744997  91.8309988
  64.4210012  96.5134997  91.4119988  63.5810012  96.9084997  90.8219988
  65.7010012  97.2784997  91.3619988  66.3330012  96.8884997  92.1889988
  65.4260012  98.2814997  91.7539988  66.4380012  97.3214997  89.9679988
  66.1620012  96.4534997  89.3319988  67.4780012  97.3474997  90.3589988
  66.0270012  98.5204997  89.0899988  65.9190012  99.4534997  89.6829988
  64.9710012  98.4504997  88.7509988  66.9000012  98.6414997  87.8519988
  67.9560012  98.7444997  88.1809988  66.5370012  99.5124997  87.2649988
  67.0670012  97.5824997  86.6989988  67.4420012  96.6814997  87.2299988
  67.7870012  97.8744997  85.9049988  65.8290012  97.2024997  85.9399988
  65.5110012  98.1264997  85.4099988  64.9780012  97.0004997  86.6259988
  66.0270012  96.1884997  84.7959988  65.4990012  95.2454997  85.0519988
  67.1200012  96.0024997  84.7259988  65.7090012  96.6764997  83.3669988
  66.1700012  95.9984997  82.6159988  65.9800012  97.7284997  83.1349988
  64.6160012  96.5864997  83.1919988  50.1890012  76.8384997  80.3429988
  50.7790012  77.7734997  80.4439988  49.8100012  76.7164997  79.3059988
  50.8590012  75.9644997  80.4929988  49.1140012  76.8234997  81.4099988
  48.3160012  77.5184997  81.0719988  48.6640012  75.8234997  81.5909988
  49.4050012  77.5294997  82.7139988  50.1930012  76.9504997  83.2419988
  49.7680012  78.5564997  82.4939988  48.1560012  77.5744997  83.6559988
  47.3460012  78.1514997  83.1599988  47.6590012  76.5874997  83.7749988
  48.5040012  78.1764997  85.0309988  49.0380012  79.1444997  84.9179988
  47.6040012  78.4904997  85.6009988  49.3210012  77.3214997  86.1059988
  48.7320012  76.4474997  86.4569988  50.2440012  76.9904997  85.5839988
  49.7340012  78.2234997  87.3879988  50.5160012  78.9604997  87.1069988
  48.8030012  78.7294997  87.7199988  50.2590012  77.3724997  88.5009988
  49.8190012  76.3574997  88.3989988  51.3650012  77.2844997  88.4409988
  49.8470012  77.9424997  89.8969988  50.1390012  78.9984997  90.0789988
  48.7510012  77.9374997  90.0799988  50.4240012  77.1064997  91.0009988
  50.1050012  77.4594997  92.0059988  50.0590012  76.0644997  90.8759988
  51.9390012  77.2174997  91.0949988  52.4210012  76.8944997  90.1479988
  52.2740012  78.2414997  91.3649988  52.5250012  76.1564997  92.1159988
  52.1860012  75.1554997  91.7769988  53.6340012  76.2204997  92.0849988
  52.0840012  76.3674997  93.5349988  50.9860012  76.5334997  93.5039988
  52.3100012  75.5024997  94.1949988  52.7480012  77.6314997  94.0489988
  53.8500012  77.4944997  94.0799988  52.5300012  78.4724997  93.3559988
  52.2320012  78.1154997  95.4059988  52.3250012  77.2874997  96.1409988
  52.7950012  79.0184997  95.7249988  50.8910012  78.7254997  95.4359988
  50.4940012  79.7914997  95.0089988  50.1100012  77.8024997  96.0509988
  48.6870012  78.0724997  96.0349988  48.4730012  79.0514997  96.5139988
  48.3030012  78.0784997  94.9929988  47.9420012  77.0904997  96.9129988
  46.8840012  77.2154997  96.5999988  48.0980012  77.4804997  98.3809988
  49.1620012  77.6304997  98.6659988  47.5680012  78.4504997  98.4969988
  47.5250012  76.4954997  99.2309988  48.1500012  76.1254997 100.6359988
  49.6820012  76.5774997 100.6669988  50.6470012  75.6284997 100.1429988
  50.2880012  75.0784997  99.2469988  51.4660012  76.2284997  99.6919988
  51.1490012  74.7014997 101.2469988  50.4100012  73.9154997 101.2959988
  52.1040012  74.4404997 100.8159988  51.5350012  75.1774997 102.6059988
  52.3090012  76.4504997 102.3989988  53.3130012  76.2674997 102.0449988
  51.7890012  77.1604997 101.7729988  52.4880012  76.8444997 103.3879988
  50.3100012  75.3404997 103.4869988  50.4790012  75.7174997 104.4849988
  49.8360012  76.1884997 103.0139988  49.6250012  74.5084997 103.5529988
  52.3600012  74.1504997 103.3069988  52.5950012  74.5874997 104.2669988
  53.2620012  73.9274997 102.7569988  51.7980012  73.2814997 103.6179988
  47.4770012  77.0694997 101.6439988  48.0950012  74.6494997 100.8139988
  48.4620012  75.7544997  96.6559988  47.5470012  74.7214997  96.7929988
  46.3890012  74.8854997  97.0709988  48.2510012  73.3354997  96.6779988
  47.3570012  72.6804997  96.6029988  48.9050012  73.1824997  97.5629988
  49.0810012  73.3664997  95.3619988  49.5540012  74.3444997  95.1279988
  48.3630012  73.3124997  94.5169988  50.0330012  72.2174997  95.3189988
  49.5100012  71.2414997  95.2339988  50.5910012  72.0714997  96.2689988
  51.1080012  72.2434997  94.1479988  51.7210012  71.3184997  94.2049988
  51.7140012  73.1504997  94.3559988  50.4320012  72.2944997  92.7549988
  51.3500012  72.4064997  92.1389988  49.8070012  73.2084997  92.6589988
  49.5430012  71.1104997  92.3179988  48.5470012  71.0444997  92.8049988
  50.0800012  70.2014997  92.6639988  49.3980012  70.8774997  90.7659988
  48.7430012  69.9884997  90.6479988  50.4130012  70.5924997  90.4139988
  48.7910012  72.0754997  90.0629988  47.7700012  72.2704997  90.4229988
  49.2480012  72.8594997  89.0329988  48.5500012  73.6554997  88.7309988
  50.5760012  72.7304997  88.3259988  51.3290012  72.3744997  89.0609988
  50.9010012  73.7274997  87.9589988  50.5990012  71.7054997  87.1149988
  50.2630012  70.7074997  87.4679988  51.6330012  71.6534997  86.7129988
  49.4860012  71.9024997  86.0239988  48.4350012  71.8724997  86.3829988
  49.6640012  71.1034997  85.2719988  49.8760012  73.1364997  85.1809988
  50.8990012  73.1324997  84.7479988  49.7510012  74.0894997  85.7389988
  48.8070012  73.4574997  84.0309988  48.9590012  74.4804997  83.6259988
  47.8000012  73.4944997  84.4989988  48.9360012  72.4744997  82.9549988
  48.5910012  71.4754997  83.2979988  50.0260012  72.3634997  82.7729988
  48.3560012  72.8074997  81.5939988  48.5390012  71.9094997  80.9669988
  48.8540012  73.6764997  81.1129988  46.8620012  73.1414997  81.6909988
  46.4550012  73.6994997  80.8209988  46.6760012  73.8764997  82.5029988
  46.3030012  72.1984997  81.8749988  83.9920012  86.4094997  80.1709988
  84.3190012  87.3454997  80.6719988  83.0250012  86.1234997  80.6389988
  83.7740012  86.6234997  79.1029988  85.0890012  85.3444997  80.1719988
  84.7160012  84.3754997  79.7759988  85.8740012  85.7444997  79.4959988
  85.8340012  85.1984997  81.5039988  86.7760012  84.6174997  81.4059988
  86.1740012  86.2284997  81.7449988  85.0400012  84.6684997  82.6949988
  84.1540012  85.2954997  82.9309988  84.6210012  83.7094997  82.3209988
  85.8240012  84.5054997  83.9749988  86.7490012  83.8944997  83.9009988
  86.1870012  85.5324997  84.1939988  85.0150012  83.9284997  85.1499988
  84.0660012  84.5034997  85.2139988  84.7730012  82.8944997  84.8219988
  85.7950012  83.9744997  86.4419988  86.1240012  85.0014997  86.7089988
  85.1070012  83.6944997  87.2669988  87.0190012  83.0694997  86.5339988
  86.6880012  82.0674997  86.1889988  87.8270012  83.5054997  85.9069988
  87.8160012  83.0994997  87.8399988  87.1810012  82.6094997  88.6089988
  88.7200012  82.4614997  87.7409988  88.1840012  84.5454997  88.2179988
  88.5710012  85.1964997  87.4049988  87.2240012  85.0734997  88.3999988
  89.1600012  84.5954997  89.4019988  90.0070012  83.9684997  89.0499988
  89.5190012  85.6254997  89.6139988  88.4360012  84.1574997  90.7139988
  87.6240012  84.8644997  90.9889988  87.8810012  83.2214997  90.4889988
  89.3830012  84.0704997  91.9559988  90.2040012  83.3314997  91.8329988
  89.9120012  85.0224997  92.1749988  88.6070012  83.5584997  93.2899988
  87.7300012  84.1494997  93.6289988  88.2320012  82.5414997  93.0439988
  89.5610012  83.4304997  94.4249988  89.2580012  82.6724997  95.1789988
  90.5090012  83.0764997  93.9659988  89.7450012  84.7884997  95.2049988
  89.8390012  85.8894997  94.6449988  89.7390012  84.6094997  96.5109988
  89.7930012  85.8434997  97.3219988  90.4210012  85.5974997  98.2049988
  90.3990012  86.6264997  96.8189988  88.3840012  86.2014997  97.8819988
  88.6160012  86.8994997  98.7139988  87.7090012  84.9724997  98.5959988
  87.6090012  84.1664997  97.8389988  88.3970012  84.5654997  99.3689988
  86.4250012  85.2464997  99.1229988  85.8660012  84.3454997 100.3349988
  85.8650012  85.2264997 101.6209988  85.2110012  86.5004997 101.6749988
  84.4560012  86.5224997 100.8599988  84.6370012  86.5924997 102.6209988
  86.2540012  87.7324997 101.6929988  86.6670012  87.9424997 100.7179988
  85.5920012  88.5424997 101.9629988  87.4800012  87.7624997 102.5129988
  88.1290012  89.1434997 102.5119988  89.1100012  89.0994997 102.9599988
  88.2970012  89.3424997 101.4629988  87.4610012  89.7824997 103.0699988
  87.1300012  87.4914997 104.0309988  88.0070012  87.4194997 104.6569988
  86.7060012  88.3894997 104.4549988  86.5190012  86.6024997 104.0859988
  88.4150012  86.6694997 102.0859988  88.2460012  85.7824997 102.6799988
  89.4240012  86.9724997 102.3229988  88.2490012  86.4684997 101.0379988
  84.4870012  83.9714997  99.9349988  86.8380012  83.2944997 100.6569988
  87.4640012  86.6664997  96.8299988  87.5340012  87.9884997  96.5859988
  88.3110012  88.7454997  97.1689988  86.5860012  88.3224997  95.3889988
  86.6710012  89.4074997  95.1639988  85.5440012  88.0404997  95.6499988
  86.9850012  87.5824997  94.0929988  86.8510012  86.4984997  94.2969988
  88.0460012  87.9044997  94.0249988  86.1500012  88.0814997  92.8419988
  86.3770012  89.1674997  92.7809988  85.0590012  88.0514997  93.0499988
  86.5220012  87.3864997  91.5109988  86.2700012  86.3074997  91.5929988
  87.6070012  87.4284997  91.2789988  85.7270012  87.8684997  90.2829988
  86.1140012  87.3714997  89.3679988  85.9860012  88.9224997  90.0469988
  84.2220012  87.6594997  90.4129988  83.7190012  88.3284997  91.1439988
  84.1560012  86.5954997  90.7259988  83.3890012  87.7634997  89.1269988
  82.2990012  87.8384997  89.3279988  83.5600012  86.8904997  88.4609988
  83.6870012  89.0264997  88.2799988  83.6310012  89.9834997  88.8199988
  84.1920012  89.1264997  86.9939988  84.3110012  90.0534997  86.4139988
  84.5840012  87.8984997  86.1899988  84.2680012  87.9914997  85.1289988
  84.1180012  86.9334997  86.4839988  86.1450012  87.8304997  86.1919988
  86.5010012  86.9174997  85.6699988  86.6050012  87.6304997  87.1839988
  86.7060012  89.0684997  85.4629988  86.5800012  89.9224997  86.1609988
  86.0830012  89.1264997  84.5449988  88.2300012  89.1654997  85.2649988
  88.7970012  89.0674997  86.2149988  88.5790012  90.1464997  84.8779988
  88.8620012  88.0704997  84.4159988  88.3470012  87.1064997  84.6159988
  89.9180012  87.9594997  84.7419988  88.6990012  88.3394997  82.9319988
  89.3140012  89.2314997  82.6829988  87.6100012  88.4714997  82.7569988
  89.1060012  87.1314997  82.0109988  88.8540012  87.4294997  80.9709988
  88.4680012  86.2774997  82.3249988  90.5620012  86.7474997  82.1079988
  90.8210012  86.3784997  83.1229988  91.2900012  87.5834997  82.0389988
  90.8260012  86.0064997  81.3229988  96.2480012  75.2254997  80.4989988
  96.6720012  74.5214997  79.7509988  95.9770012  76.2024997  80.0459988
  95.2370012  74.8304997  80.7339988  97.1730012  75.3154997  81.6689988
  97.2090012  74.2864997  82.0869988  98.2070012  75.5164997  81.3159988
  96.6870012  76.3344997  82.7419988  96.6970012  77.3194997  82.2279988
  95.7170012  76.1324997  83.2439988  97.7860012  76.4034997  83.8699988
  97.8280012  75.3784997  84.2979988  98.7180012  76.8794997  83.4969988
  97.1810012  77.3134997  84.9919988  97.0330012  78.3324997  84.5749988
  96.2010012  76.8934997  85.3059988  98.1630012  77.4884997  86.1839988
  98.9090012  78.2954997  86.0209988  97.4680012  77.9254997  86.9329988
  98.7180012  76.1464997  86.7259988  97.8270012  75.4834997  86.7599988
  99.4890012  75.7924997  86.0079988  99.3060012  76.2744997  88.1059988
 100.1020012  77.0494997  88.0989988  98.5330012  76.5154997  88.8659988
  99.9640012  74.8574997  88.3179988 100.5670012  74.5904997  87.4239988
 100.6870012  74.9244997  89.1579988  99.0790012  73.7404997  88.6869988
  98.6620012  74.0534997  89.6679988  98.3100012  73.5904997  87.8989988
  99.7780012  72.3044997  88.9459988  99.0370012  71.4854997  88.8279988
 100.6360012  72.0924997  88.2729988 100.2870012  72.1274997  90.4429988
 100.7130012  71.1104997  90.5849988 101.2110012  72.7404997  90.5149988
  99.2700012  72.2914997  91.6029988  99.8350012  72.0754997  92.5349988
  99.1950012  73.3974997  91.6739988  97.8950012  71.7014997  91.2619988
  97.5520012  72.0534997  90.2659988  97.9240012  70.6004997  91.4109988
  96.7540012  72.2434997  92.1149988  96.7020012  73.3454997  91.9839988
  95.7430012  71.8334997  91.9009988  97.0580012  71.9304997  93.6429988
  97.5700012  70.9484997  94.1349988  96.7420012  73.0634997  94.3389988
  97.0200012  72.9614997  95.7689988  96.0720012  73.2954997  96.2419988
  97.2470012  71.9494997  96.1689988  98.1660012  73.9734997  96.1789988
  99.0530012  73.5144997  95.6909988  98.4390012  73.9284997  97.7129988
  98.5870012  72.8804997  98.0479988  99.3320012  74.5534997  97.9269988
  97.2630012  74.3574997  98.4119988  97.4060012  75.2934997  99.6989988
  98.0280012  74.2194997 100.7289988  97.3340012  73.0014997 101.1049988
  97.0820012  72.3874997 100.2139988  98.0060012  72.4774997 101.8179988
  96.0010012  73.1804997 101.9009988  95.3690012  73.8854997 101.3809988
  95.4320012  72.2814997 102.0839988  96.1600012  73.7454997 103.3269988
  96.7160012  75.1914997 103.4529988  97.7660012  75.3364997 103.2439988
  96.2160012  75.8194997 102.7299988  96.5020012  75.5374997 104.4539988
  94.7410012  73.7674997 103.8809988  94.1430012  72.8994997 103.6439988
  94.8240012  73.7924997 104.9569988  94.2600012  74.6704997 103.5349988
  96.9770012  72.8844997 104.1739988  96.6780012  71.8484997 104.1049988
  96.8330012  73.1334997 105.2149988  98.0320012  72.9154997 103.9409988
  98.4860012  76.3224997  99.3339988  96.0280012  75.6624997 100.1669988
  97.8250012  75.3704997  95.8449988  98.2860012  75.8194997  94.6739988
  98.9150012  75.1564997  93.8969988  97.7950012  77.2244997  94.5229988
  98.6610012  77.9204997  94.4939988  97.2170012  77.4824997  95.4369988
  96.9690012  77.3104997  93.1879988  97.6520012  76.9614997  92.3839988
  96.6020012  78.3404997  92.9899988  95.7500012  76.5354997  93.1729988
  95.1790012  76.5824997  94.1249988  95.9760012  75.4534997  93.0639988
  94.8370012  76.9064997  91.9909988  95.4380012  76.7994997  91.0629988
  94.4510012  77.9474997  92.0249988  93.5160012  76.1284997  92.1149988
  93.0340012  76.2054997  93.1129988  93.7580012  75.1074997  91.7489988
  92.5060012  76.8724997  91.2079988  92.5390012  77.9824997  91.2119988
  91.5180012  76.4644997  91.5139988  92.6410012  76.6154997  89.7149988
  93.6910012  76.8304997  89.4229988  92.0350012  77.4054997  89.2219988
  92.2450012  75.1984997  89.3499988  91.2620012  74.9454997  89.7739988
  92.8260012  74.3694997  88.4509988  92.2660012  73.4744997  88.1409988
  94.0220012  74.7154997  87.6289988  94.7160012  75.1084997  88.4019988
  93.8560012  75.6154997  86.9999988  94.7320012  73.4484997  87.0369988
  95.0710012  72.8224997  87.8899988  95.7200012  73.7824997  86.6519988
  93.9890012  72.6024997  85.9889988  93.5500012  73.3524997  85.2969988
  93.1460012  72.1094997  86.5179988  94.7940012  71.5294997  85.2229988
  95.4850012  72.0674997  84.5389988  94.1440012  70.9874997  84.5029988
  95.6120012  70.5884997  86.1129988  94.9960012  70.1194997  86.9099988
  96.4050012  71.2274997  86.5579988  96.2840012  69.4324997  85.4579988
  95.5530012  68.6894997  85.0709988  96.8630012  68.7594997  86.1259988
  97.2600012  69.7744997  84.3489988  96.7340012  70.4734997  83.6629988
  97.4700012  68.7994997  83.8599988  98.5650012  70.4454997  84.9099988
  99.0240012  69.6224997  85.4989988  98.2480012  71.2554997  85.6009988
  99.3110012  70.7684997  84.1519988  87.3690012  54.1584997  85.0369988
  88.2930012  53.7234997  85.4739988  87.3490012  55.2434997  85.2739988
  87.3710012  54.0934997  83.9279988  86.1480012  53.4624997  85.7059988
  85.2740012  53.8644997  85.1499988  86.2300012  52.3564997  85.6319988
  86.0250012  53.7434997  87.2209988  86.1630012  54.8344997  87.3829988
  85.0810012  53.3704997  87.6729988  87.1030012  52.8074997  87.9019988
  86.5860012  51.9304997  88.3469988  87.9320012  52.5454997  87.2099988
  87.8120012  53.5144997  89.0409988  88.6000012  52.8654997  89.4789988
  88.3560012  54.3984997  88.6449988  87.0250012  54.0704997  90.2219988
  87.6980012  54.3944997  91.0449988  86.4620012  54.9724997  89.8989988
  85.9770012  53.1694997  90.9799988  85.2350012  52.8844997  90.2039988
  86.5120012  52.2354997  91.2549988  85.3080012  53.7154997  92.3049988
  85.5550012  53.0764997  93.1799988  85.8950012  54.6354997  92.5139988
  83.8600012  53.9414997  92.1749988  83.5300012  54.6244997  92.9869988
  83.5960012  54.5184997  91.2629988  82.9770012  52.6884997  92.2359988
  83.2700012  51.7674997  91.6889988  82.9640012  52.5484997  93.3379988
  81.5050012  52.9504997  91.8629988  81.4440012  53.2204997  90.7869988
  81.0880012  51.9494997  92.1059988  80.7210012  53.9824997  92.6619988
  80.9730012  55.0214997  92.3629988  79.6420012  53.8084997  92.4629988
  80.9250012  53.8714997  94.1529988  81.9880012  54.0394997  94.4289988
  80.3870012  54.7484997  94.5719988  80.4470012  52.5154997  94.7629988
  79.3450012  52.4914997  94.6269988  81.0000012  51.6744997  94.2919988
  80.8640012  52.3344997  96.2499988  80.5460012  53.2064997  96.8609988
  80.1890012  51.5874997  96.7209988  82.3710012  52.1734997  96.5009988
  83.1420012  51.6914997  95.6399988  82.6710012  52.7064997  97.6789988
  84.0300012  52.7324997  98.1249988  84.2200012  51.7464997  98.6009988
  84.7740012  52.8044997  97.3029988  84.4130012  53.8434997  99.0559988
  85.4500012  53.7934997  99.4509988  83.5060012  53.8644997 100.3429988
  82.4860012  53.4704997 100.1449988  83.9900012  53.0364997 100.9029988
  83.4770012  55.1444997 100.9659988  84.7090012  55.8784997 101.7219988
  85.8340012  56.1384997 100.6249988  86.9260012  56.9494997 101.0319988
  87.3160012  57.3744997 100.0829988  86.6190012  57.8724997 101.5689988
  87.9530012  56.1144997 101.9209988  88.7940012  56.7164997 102.2309988
  87.5010012  55.7884997 102.8459988  88.6130012  54.8084997 101.3549988
  89.5710012  54.3654997 102.4179988  90.2560012  55.1714997 102.6349988
  89.0440012  54.0834997 103.3179988  89.9820012  53.4194997 102.0959988
  87.6780012  53.6894997 101.0329988  88.1690012  53.0774997 100.2909988
  87.5690012  53.2724997 102.0229988  86.8130012  54.0384997 100.4879988
  89.3910012  55.2124997 100.1069988  90.0580012  54.4114997  99.8249988
  89.9470012  56.1014997 100.3639988  88.7650012  55.4354997  99.2549988
  84.2670012  57.1134997 102.3729988  85.1670012  54.8084997 102.6279988
  84.2660012  55.1114997  98.3319988  85.3550012  55.4584997  97.6659988
  86.3340012  54.7584997  97.5959988  84.9970012  56.8644997  97.0649988
  85.8260012  57.6014997  97.0019988  84.2680012  57.3554997  97.7439988
  84.2660012  56.7534997  95.7009988  83.5370012  55.9204997  95.7929988
  84.8260012  56.4034997  94.8079988  83.4820012  57.9744997  95.2009988
  84.1220012  58.8714997  95.0559988  82.7710012  58.3584997  95.9629988
  82.5970012  57.6874997  93.9779988  81.9100012  56.8364997  94.1759988
  83.1680012  57.3714997  93.0789988  81.8000012  58.9724997  93.4639988
  82.5530012  59.7564997  93.2369988  81.0320012  59.2694997  94.2089988
  80.9770012  58.6674997  92.1769988  80.2730012  59.5074997  91.9969988
  80.2710012  57.8254997  92.3419988  81.7720012  58.2584997  90.8899988
  81.0190012  57.8524997  90.1809988  82.2970012  57.3264997  91.1909988
  82.6110012  59.2154997  90.1599988  82.0280012  60.1224997  89.9459988
  83.9080012  59.1554997  89.8109988  84.2550012  60.0484997  89.2699988
  84.9490012  58.1274997  90.0259988  84.5610012  57.2954997  90.6529988
  85.8800012  58.5194997  90.4879988  85.4430012  57.4674997  88.7379988
  84.6280012  56.7944997  88.3959988  86.3820012  56.9004997  88.9129988
  85.6840012  58.4514997  87.5729988  86.4810012  59.1924997  87.7939988
  84.7270012  58.9404997  87.2899988  86.2550012  57.8744997  86.2749988
  85.5070012  57.3724997  85.6249988  86.9960012  57.0594997  86.4229988
  87.0720012  58.9294997  85.4419988  88.1080012  58.9634997  85.8419988
  86.6290012  59.9424997  85.3319988  87.2100012  58.4444997  83.9419988
  87.5920012  57.4024997  83.8819988  87.9110012  59.1024997  83.3859988
  85.8950012  58.2404997  83.1909988  85.0940012  57.7694997  83.7979988
  86.0210012  57.4944997  82.3769988  85.2970012  59.4424997  82.6759988
  84.2880012  59.2084997  82.2749988  85.9840012  59.9334997  81.9539988
  85.0650012  60.2014997  83.4539988  43.4960012  92.0184997  81.9849988
  42.7180012  91.2414997  81.8249988  43.9370012  92.4584997  81.0649988
  42.8930012  92.7144997  82.6069988  44.5460012  91.5064997  82.9189988
  45.1810012  90.7504997  82.4099988  45.2110012  92.3594997  83.1729988
  44.0520012  90.8894997  84.2589988  43.4760012  91.6074997  84.8809988
  43.4710012  89.9764997  84.0069988  45.1570012  90.3754997  85.2489988
  45.4960012  89.4244997  84.7849988  45.9090012  91.1894997  85.3279988
  44.4990012  90.0414997  86.6009988  43.5750012  90.6294997  86.7859988
  44.1110012  89.0004997  86.6169988  45.5100012  90.2124997  87.7509988
  46.3410012  89.5034997  87.5469988  46.0660012  91.1564997  87.5619988
  45.0780012  90.0704997  89.2029988  44.8680012  89.0374997  89.5519988
  46.0170012  90.4154997  89.6879988  43.8880012  91.0064997  89.5169988
  43.8750012  91.9714997  88.9669988  42.9400012  90.5614997  89.1469988
  43.8420012  91.3364997  90.9809988  44.7650012  91.8154997  91.3709988
  42.9670012  92.0014997  91.1419988  43.7150012  90.0814997  91.8689988
  42.9360012  89.3934997  91.4749988  44.7260012  89.6214997  91.8569988
  43.3040012  90.3444997  93.3819988  42.3210012  90.8604997  93.4339988
  43.2610012  89.3644997  93.9029988  44.4420012  91.0214997  94.1389988
  45.3930012  90.5184997  93.8589988  44.4930012  92.0754997  93.7919988
  44.3230012  90.9734997  95.6439988  43.3240012  91.4274997  95.8169988
  44.3510012  89.9314997  96.0279988  45.5480012  91.6854997  96.2509988
  46.4120012  91.0174997  96.0509988  45.6380012  92.6974997  95.8019988
  45.3740012  91.8204997  97.7969988  44.9930012  90.8594997  98.2039988
  46.3540012  92.1914997  98.1659988  44.2300012  92.8164997  98.1739988
  43.9990012  93.7914997  97.5619988  43.7230012  92.4654997  99.3419988
  42.7540012  93.2584997 100.0219988  43.1940012  93.8144997 100.8779988
  42.2850012  93.9474997  99.2879988  41.5910012  92.4104997 100.6449988
  40.7360012  93.0944997 100.8329988  42.1130012  91.6984997 101.8629988
  42.6520012  92.4254997 102.5079988  41.2240012  91.4444997 102.4789988
  42.9370012  90.6364997 101.6499988  44.2480012  90.2994997 102.5289988
  44.7730012  88.8264997 101.9529988  44.8790012  88.7174997 100.5419988
  45.1160012  89.6684997 100.0189988  45.5900012  87.9354997 100.1999988
  43.4980012  88.1264997 100.0919988  42.7740012  88.8874997 100.3439988
  43.6640012  88.0684997  99.0259988  43.1300012  86.7924997 100.6609988
  42.7880012  86.8154997 102.0789988  42.5430012  85.7854997 102.2929988
  43.5450012  87.2764997 102.6959988  41.8350012  87.2724997 102.2999988
  41.8870012  86.2864997  99.9109988  42.0810012  86.2294997  98.8499988
  41.6850012  85.2714997 100.2189988  41.0880012  86.9704997 100.1569988
  44.2510012  85.7454997 100.4899988  45.1580012  86.1564997 100.9079988
  44.2450012  85.4734997  99.4449988  43.9650012  84.8454997 101.0149988
  45.2260012  91.3984997 102.3399988  43.8600012  90.0934997 103.9359988
  41.1570012  91.4744997  99.6709988  40.6290012  91.9474997  98.5369988
  40.3700012  93.1364997  98.3259988  40.3550012  90.9044997  97.5209988
  41.1120012  91.0654997  96.7239988  39.3400012  91.1134997  97.1209988
  40.5950012  89.4704997  97.9589988  39.8900012  89.4084997  98.8149988
  41.6110012  89.2294997  98.3389988  40.2250012  88.4304997  96.8719988
  39.2920012  88.7604997  96.3669988  39.8930012  87.5404997  97.4489988
  41.3110012  88.2084997  95.8349988  42.1980012  87.7644997  96.3339988
  41.7540012  89.0904997  95.3259988  40.9100012  87.1954997  94.7859988
  40.5230012  86.2754997  95.2749988  41.7420012  86.9944997  94.0789988
  39.9540012  87.8324997  93.7849988  40.1020012  88.9264997  93.6589988
  38.9350012  87.6984997  94.2089988  40.2330012  87.2004997  92.4689988
  40.1140012  86.1094997  92.6389988  41.2990012  87.2574997  92.1609988
  39.2330012  87.5514997  91.3799988  38.2420012  87.9474997  91.6439988
  39.4310012  87.6224997  90.0599988  38.5380012  87.7224997  89.4239988
  40.7330012  87.3294997  89.3669988  40.8590012  86.2694997  89.0629988
  41.5990012  87.5444997  90.0299988  40.9420012  88.2014997  88.0479988
  42.0190012  88.0094997  87.8529988  40.8450012  89.2954997  88.2129988
  39.9420012  87.8524997  86.9299988  38.9560012  88.2584997  87.2409988
  39.8990012  86.7474997  86.8279988  40.3870012  88.5614997  85.6879988
  41.3940012  88.2454997  85.3409988  40.3190012  89.6664997  85.7739988
  39.3840012  88.2034997  84.5929988  38.3760012  88.6424997  84.7489988
  39.1840012  87.1134997  84.5119988  39.9070012  88.5304997  83.1819988
  39.3140012  87.9924997  82.4109988  40.9960012  88.3204997  83.1229988
  39.7540012  89.9304997  82.6979988  40.3910012  90.6294997  83.2799988
  38.7200012  90.2914997  82.8849988  40.0950012  90.2814997  81.2089988
  39.1940012  90.1284997  80.5769988  40.8850012  89.5414997  80.9609988
  40.5120012  91.3114997  81.2069988  55.7540012  92.4504997  82.5049988
  55.8500012  92.9954997  83.4689988  54.7550012  92.7274997  82.1049988
  56.5560012  92.9674997  81.9359988  56.1010012  90.9984997  82.5309988
  55.3630012  90.4994997  83.1949988  56.0180012  90.4844997  81.5489988
  57.5750012  90.6904997  83.0059988  57.6930012  89.5894997  82.9189988
  58.3470012  91.1864997  82.3799988  57.7450012  90.9954997  84.4729988
  56.7640012  90.9894997  84.9939988  58.3530012  90.1954997  84.9469988
  58.5950012  92.2654997  84.7239988  59.6180012  92.0054997  84.3779988
  58.2640012  93.1414997  84.1269988  58.7210012  92.7174997  86.1599988
  57.7150012  92.6014997  86.6179988  59.2970012  91.9454997  86.7149988
  59.2900012  94.1134997  86.3749988  60.0860012  94.2164997  85.6069988
  58.4400012  94.7654997  86.0829988  59.7600012  94.3894997  87.7649988
  60.3330012  93.5254997  88.1639988  60.4620012  95.2444997  87.6609988
  58.5160012  94.7184997  88.7579988  57.8430012  95.4584997  88.2739988
  57.8550012  93.8334997  88.8739988  58.9900012  95.2384997  90.1309988
  59.8660012  94.5754997  90.2929988  59.2960012  96.3014997  90.0289988
  57.8590012  95.1634997  91.1509988  57.2860012  96.1154997  91.1379988
  57.3050012  94.2204997  90.9549988  58.2700012  95.0524997  92.6149988
  58.8070012  94.0964997  92.7959988  58.9850012  95.8744997  92.8309988
  56.9990012  95.1954997  93.5369988  56.7890012  96.2834997  93.4589988
  56.1670012  94.5804997  93.1329988  57.1470012  94.6844997  94.9649988
  56.2370012  94.9214997  95.5549988  57.2790012  93.5814997  94.9489988
  58.3080012  95.4354997  95.6809988  59.3000012  94.9504997  95.5559988
  58.4650012  96.3834997  95.1229988  57.9510012  95.7514997  97.1939988
  57.6180012  96.8094997  97.6649988  58.0020012  94.5664997  97.8769988
  57.9080012  94.5854997  99.3169988  58.6730012  93.8484997  99.6439988
  58.2940012  95.5424997  99.7279988  56.4570012  94.3224997  99.7399988
  55.8800012  95.0114997  99.0869988  56.2380012  94.6624997 101.2239988
  56.5420012  95.7054997 101.4549988  55.1500012  94.5834997 101.4369988
  57.0730012  93.8304997 101.9129988  56.6200012  92.5544997 102.7279988
  57.4320012  91.4834997 101.9279988  58.8750012  91.4984997 101.8329988
  59.1860012  92.5614997 101.9219988  59.3940012  90.8634997 102.5819988
  59.3310012  90.8324997 100.5259988  59.1370012  91.4044997  99.6309988
  60.3950012  90.6654997 100.4519988  58.7720012  89.4634997 100.1799988
  58.8990012  88.6174997 101.4549988  59.8870012  88.2164997 101.6209988
  58.6090012  89.2574997 102.2749988  58.1380012  87.8524997 101.4069988
  57.3430012  89.5124997  99.6949988  57.3320012  90.1544997  98.8269988
  56.9890012  88.5464997  99.3669988  56.7730012  90.0994997 100.3999988
  59.7180012  88.8874997  99.1439988  59.4070012  87.8594997  99.0339988
  60.7770012  89.0184997  99.3109988  59.4480012  89.5314997  98.3199988
  57.1990012  92.6004997 104.1399988  55.1600012  92.2634997 102.6389988
  56.1760012  92.9524997  99.5219988  54.8210012  92.7404997  99.3999988
  53.9480012  93.5094997  99.5139988  54.5960012  91.2364997  99.0579988
  53.4920012  91.1204997  99.0079988  55.0080012  90.5564997  99.8339988
  55.1430012  90.9504997  97.6669988  56.2390012  90.8194997  97.7989988
  55.0240012  91.8314997  96.9999988  54.5230012  89.6744997  97.0539988
  53.4190012  89.5894997  97.1389988  54.9860012  88.7424997  97.4439988
  54.6730012  89.5534997  95.5509988  54.0670012  90.3984997  95.1619988
  54.2340012  88.6674997  95.0439988  56.0830012  89.5924997  94.9339988
  56.5560012  90.5594997  95.2059988  56.0480012  89.6154997  93.8239988
  56.9040012  88.3594997  95.2909988  56.2160012  87.4874997  95.3099988
  57.2600012  88.4764997  96.3369988  58.1440012  88.1234997  94.3859988
  57.8070012  87.5804997  93.4769988  58.6740012  87.2934997  94.8999988
  59.0760012  89.2914997  93.8969988  59.7210012  89.7554997  94.6589988
  59.0330012  89.8934997  92.6849988  59.7890012  90.6044997  92.3179988
  58.1390012  89.5034997  91.5499988  57.3400012  88.8054997  91.8789988
  58.7010012  88.9074997  90.7989988  57.5410012  90.7084997  90.8599988
  58.3140012  91.2954997  90.3189988  57.0680012  91.4004997  91.5889988
  56.4460012  90.2284997  89.9039988  55.5270012  90.0384997  90.4999988
  56.7330012  89.2714997  89.4179988  56.0580012  91.1574997  88.7329988
  55.4790012  90.5024997  88.0469988  56.9750012  91.2794997  88.1179988
  55.3570012  92.4474997  89.1409988  56.0110012  93.0914997  89.7679988
  54.4820012  92.3344997  89.8169988  55.0070012  93.3174997  87.8869988
  55.8650012  93.3354997  87.1819988  54.7130012  94.2384997  88.4349988
  53.8800012  92.7364997  87.1179988  53.0610012  92.6164997  87.8589988
  54.0240012  91.6884997  86.7809988  53.2240012  93.4994997  85.9269988
  54.0730012  93.6224997  85.2209988  52.9070012  94.5064997  86.2719988
  52.4170012  92.9224997  85.4279988  61.5990012  51.7624997  85.0699988
  61.0110012  52.7044997  85.0609988  61.6730012  51.4734997  86.1399988
  61.0380012  50.9674997  84.5329988  63.0190012  51.9804997  84.3489988
  63.5930012  51.0294997  84.3799988  62.7380012  52.2104997  83.2989988
  63.9360012  53.0424997  84.8939988  64.9170012  53.0874997  84.3749988
  63.4840012  54.0574997  84.9089988  64.3090012  52.7254997  86.3179988
  64.2480012  51.6604997  86.6259988  65.3710012  53.0254997  86.4489988
  63.6590012  53.6794997  87.3719988  64.0240012  54.7044997  87.1499988
  62.5850012  53.7784997  87.1039988  63.9310012  53.3194997  88.7729988
  63.5180012  54.0784997  89.4719988  63.3160012  52.4254997  89.0109988
  65.4030012  53.3434997  89.1449988  66.0650012  52.6514997  88.5809988
  65.8460012  54.3434997  88.9479988  65.6880012  53.0404997  90.6089988
  64.8330012  53.4864997  91.1619988  65.7990012  51.9624997  90.8509988
  66.9960012  53.6654997  91.1909988  66.9270012  54.7564997  91.3919988
  67.2960012  53.2334997  92.1699988  68.2510012  53.4664997  90.3379988
  68.2480012  52.5054997  89.7799988  68.1360012  54.2434997  89.5529988
  69.5330012  53.5904997  91.2219988  70.2980012  53.9744997  90.5139988
  69.3510012  54.5124997  91.8129988  70.0390012  52.3094997  91.9269988
  69.3310012  51.4684997  91.7689988  70.9740012  51.9984997  91.4139988
  70.2260012  52.5394997  93.4679988  70.4280012  51.5054997  93.8209988
  70.9830012  53.3214997  93.6959988  69.0130012  52.9994997  94.2059988
  68.7310012  54.0204997  93.8689988  68.1910012  52.2894997  93.9739988
  69.1780012  52.9904997  95.7119988  69.1440012  51.9264997  96.0269988
  70.1250012  53.4734997  96.0339988  68.0380012  53.9064997  96.3159988
  68.1440012  54.9554997  96.9329988  66.8950012  53.3324997  95.9829988
  65.5950012  53.9354997  96.3269988  65.6380012  55.0024997  96.6349988
  64.9110012  54.0304997  95.4569988  64.9390012  53.2784997  97.5689988
  63.9720012  53.7904997  97.7629988  65.8680012  53.4714997  98.8639988
  66.2360012  54.4994997  99.0719988  65.3190012  53.2064997  99.7929988
  66.9760012  52.6394997  98.7989988  67.8000012  52.3974997 100.1459988
  66.6920012  51.7754997 101.2009988  65.7250012  50.7964997 100.8149988
  64.8360012  51.4304997 100.6109988  66.0290012  50.1074997  99.9979988
  65.3350012  49.9854997 102.0839988  64.9580012  50.8044997 102.6789988
  64.5590012  49.3164997 101.7439988  66.3640012  49.3114997 102.8779988
  67.3740012  50.2564997 103.5129988  68.0810012  49.7034997 104.1139988
  68.0290012  50.7314997 102.7989988  66.8720012  50.9864997 104.1309988
  65.6440012  48.6254997 104.0409988  64.7130012  48.2264997 103.6649988
  66.2790012  47.8624997 104.4669988  65.4820012  49.2704997 104.8929988
  66.9890012  48.1124997 102.1409988  67.3070012  48.4274997 101.1579988
  66.2680012  47.3144997 102.0379988  67.7580012  47.7154997 102.7879988
  68.8760012  51.3874997  99.9409988  68.1920012  53.7264997 100.6209988
  64.7440012  51.8744997  97.2739988  63.8550012  51.2374997  98.0839988
  63.1750012  51.7104997  98.9379988  63.8710012  49.6744997  97.6549988
  62.8690012  49.4434997  97.2359988  63.8840012  49.1194997  98.6169988
  65.0560012  49.2314997  96.7309988  65.0900012  49.9664997  95.8989988
  64.7240012  48.2654997  96.2929988  66.3280012  49.0454997  97.5599988
  66.0670012  48.1194997  98.1149988  66.4760012  49.9364997  98.2069988
  67.5900012  48.9144997  96.7179988  68.4790012  49.2234997  97.3079988
  67.4400012  49.4194997  95.7399988  67.7440012  47.4154997  96.3359988
  66.7600012  47.0864997  95.9369988  67.8510012  46.8834997  97.3049988
  68.9460012  47.0114997  95.4639988  69.0310012  45.9314997  95.7099988
  69.8680012  47.5464997  95.7769988  68.6970012  47.1964997  93.9799988
  69.6060012  46.7784997  93.4969988  68.7280012  48.3054997  93.9319988
  67.5050012  46.6854997  93.2699988  66.9440012  45.9744997  93.8939988
  67.0740012  47.0054997  92.0759988  66.2510012  46.4764997  91.5729988
  67.7170012  47.9644997  91.0879988  68.4080012  48.7414997  91.4799988
  66.8910012  48.4764997  90.5499988  68.4810012  47.2714997  89.9779988
  67.7610012  46.8174997  89.2639988  69.0360012  46.4034997  90.3939988
  69.4470012  48.2484997  89.1589988  70.2800012  48.6224997  89.7919988
  68.9010012  49.1364997  88.7739988  70.0050012  47.5014997  87.8349988
  69.1990012  47.4564997  87.0729988  70.1870012  46.5134997  88.3099988
  71.2630012  48.1064997  87.3039988  71.7510012  47.3914997  86.6069988
  71.8950012  48.3914997  88.1719988  71.0540012  49.3854997  86.4789988
  72.0210012  49.9324997  86.4719988  70.4300012  50.0354997  87.1289988
  70.5770012  49.2184997  85.0349988  69.6090012  48.6744997  85.0389988
  71.3180012  48.5824997  84.5059988  70.2030012  50.4314997  84.1829988
  69.7140012  50.0674997  83.2539988  70.9450012  51.1774997  83.8259988
  69.3620012  50.9234997  84.7149988  91.6240012  83.4114997  83.6019988
  90.7080012  83.5994997  83.0029988  92.4810012  82.9964997  83.0299988
  91.9450012  84.3654997  84.0739988  91.3270012  82.4854997  84.8269988
  90.4630012  82.9094997  85.3819988  91.0890012  81.4974997  84.3769988
  92.3890012  82.3864997  85.8419988  93.3400012  82.1714997  85.3089988
  92.5200012  83.3834997  86.3129988  92.1100012  81.3224997  86.9669988
  91.1030012  81.4104997  87.4269988  92.2460012  80.3194997  86.5089988
  93.1030012  81.4834997  88.1689988  94.0390012  81.9994997  87.8669988
  92.6310012  82.1994997  88.8749988  93.3470012  80.2764997  89.0099988
  92.3960012  79.7094997  88.9099988  94.1620012  79.7944997  88.4289988
  93.7320012  80.5244997  90.4529988  92.9210012  81.1254997  90.9159988
  93.7470012  79.5354997  90.9579988  95.0240012  81.2434997  90.6419988
  95.8350012  80.6214997  90.2069988  95.0410012  82.2944997  90.2799988
  95.4820012  81.4864997  92.1289988  94.6850012  82.0174997  92.6909988
  95.6790012  80.5194997  92.6399988  96.7710012  82.3014997  92.2469988
  97.5430012  81.7114997  91.7079988  96.6330012  83.3104997  91.8039988
  97.2520012  82.3524997  93.7019988  97.3610012  81.2994997  94.0389988
  98.2570012  82.8054997  93.8409988  96.2070012  82.8824997  94.7299988
  95.2970012  82.2454997  94.7259988  96.5870012  82.8394997  95.7729988
  95.9360012  84.3314997  94.4859988  96.8900012  84.8784997  94.6429988
  95.5970012  84.4274997  93.4319988  94.7320012  84.8704997  95.3489988
  93.7950012  84.4564997  94.9169988  94.7770012  84.5304997  96.4059988
  94.6220012  86.3864997  95.1349988  95.4040012  86.8574997  95.7689988
  94.7810012  86.7094997  94.0839988  93.2200012  86.7394997  95.6129988
  92.3580012  87.3244997  94.9209988  93.0390012  86.3934997  96.8889988
  91.7460012  86.5644997  97.5109988  91.7360012  87.4944997  98.1189988
  90.8910012  86.3934997  96.8229988  91.4280012  85.4264997  98.5139988
  90.4550012  85.6934997  98.9789988  92.4480012  85.3344997  99.6299988
  93.4720012  85.0944997  99.2699988  92.6660012  86.3034997 100.1279988
  92.0740012  84.3734997 100.6189988  92.4160012  82.8614997 100.6389988
  93.0980012  82.8204997 102.1159988  94.1940012  83.6554997 102.4389988
  93.9340012  84.7224997 102.2669988  94.3470012  83.6274997 103.5389988
  95.5710012  83.4534997 101.6739988  95.3150012  83.4624997 100.6249988
  96.1590012  84.3484997 101.8209988  96.3440012  82.1534997 101.9949988
  96.9800012  82.1384997 103.4199988  97.6200012  83.0004997 103.5359988
  96.1120012  82.2064997 104.0579988  97.3910012  81.1594997 103.6189988
  95.4720012  80.9454997 101.9869988  94.7730012  80.9904997 101.1639988
  96.0160012  80.0174997 102.0779988  94.8740012  80.8734997 102.8829988
  97.4650012  82.0234997 101.0029988  97.0040012  81.8254997 100.0469988
  98.1850012  81.2744997 101.3009988  97.9410012  82.9784997 100.8359988
  91.1230012  82.1114997 100.7119988  93.3920012  82.4804997  99.5779988
  91.4470012  84.2474997  97.7579988  90.2480012  83.8074997  97.4409988
  89.2230012  84.4224997  97.6349988  90.2330012  82.4934997  96.7049988
  89.2090012  82.0704997  96.7859988  90.8950012  81.8074997  97.2759988
  90.7170012  82.5914997  95.2069988  90.7440012  81.5724997  94.7649988
  91.8040012  82.8194997  95.1759988  89.9780012  83.6224997  94.2629988
  90.1870012  84.6434997  94.6469988  88.8960012  83.4014997  94.3769988
  90.4980012  83.5114997  92.7709988  89.9080012  84.2694997  92.2119988
  90.2950012  82.4674997  92.4499988  91.9220012  84.0224997  92.5679988
  92.6460012  83.3124997  93.0249988  92.0660012  84.9634997  93.1399988
  92.3400012  84.2284997  91.1309988  91.6740012  84.9774997  90.6519988
  92.1580012  83.2964997  90.5529988  93.7800012  84.7474997  90.9489988
  94.2230012  84.4084997  89.9889988  94.3790012  84.1904997  91.7019988
  94.0340012  86.2534997  91.0879988  93.2690012  86.9304997  91.4959988
  95.1920012  86.8104997  90.7839988  95.3540012  87.8984997  90.7739988
  96.4030012  86.1334997  90.2409988  96.3800012  85.0274997  90.3489988
  97.2720012  86.6244997  90.7299988  96.6970012  86.3384997  88.7349988
  96.7010012  87.4304997  88.5289988  95.8490012  85.8634997  88.1959988
  97.9550012  85.7324997  88.2309988  98.1210012  84.7894997  88.7959988
  98.8290012  86.3674997  88.4889988  98.0380012  85.3324997  86.7549988
  99.1120012  85.2384997  86.4889988  97.6310012  86.1004997  86.0619988
  97.3260012  83.9214997  86.5119988  96.4190012  83.8624997  87.1509988
  98.0680012  83.1124997  86.6799988  96.9200012  83.7384997  85.0399988
  96.9550012  82.6574997  84.7849988  97.7320012  84.1954997  84.4339988
  95.5350012  84.4094997  84.6979988  95.5240012  85.5074997  84.8639988
  94.7320012  84.1044997  85.4029988  95.1030012  84.1944997  83.2219988
  95.8320012  84.5844997  82.4799988  94.1740012  84.7774997  83.0399988
  94.8530012  83.1554997  82.9179988  50.7980012  90.2014997  83.7659988
  50.2330012  90.9214997  83.1349988  49.9880012  89.5014997  84.0609988
  51.5830012  89.6094997  83.2489988  51.1820012  90.9294997  85.0719988
  50.2800012  91.5364997  85.2999988  51.1840012  90.2304997  85.9359988
  52.4040012  91.8134997  85.1239988  53.3520012  91.2364997  85.0649988
  52.3170012  92.6504997  84.3979988  52.6100012  92.5164997  86.4979988
  53.5390012  93.1204997  86.4269988  51.7570012  93.2144997  86.6359988
  52.6850012  91.6924997  87.6949988  51.9940012  90.8234997  87.6649988
  53.6400012  91.1454997  87.5409988  52.7980012  92.5404997  88.9859988
  51.8480012  93.1124997  89.0519988  52.9330012  91.7574997  89.7619988
  53.9590012  93.5224997  89.1139988  54.8330012  92.8704997  88.8989988
  53.9190012  94.1924997  88.2289988  53.9510012  94.2534997  90.4359988
  53.2870012  93.8034997  91.2049988  55.0060012  94.1854997  90.7779988
  53.5220012  95.6984997  90.2439988  54.2510012  96.1604997  89.5449988
  52.5340012  95.8234997  89.7509988  53.5710012  96.6224997  91.4779988
  54.3860012  96.3464997  92.1809988  53.6570012  97.6684997  91.1139988
  52.2630012  96.6334997  92.3459988  51.3860012  96.9884997  91.7639988
  52.0400012  95.6144997  92.7299988  52.5730012  97.6184997  93.5119988
  53.3400012  97.2904997  94.2469988  53.0060012  98.5544997  93.0999988
  51.4270012  97.9814997  94.4959988  51.8540012  98.6024997  95.3119988
  50.7510012  98.5734997  93.8429988  50.5170012  96.8904997  95.1339988
  50.1490012  96.2924997  94.2729988  51.0860012  96.2424997  95.8349988
  49.3460012  97.5464997  95.9619988  49.8370012  98.0444997  96.8249988
  48.7900012  98.3034997  95.3679988  48.2910012  96.5314997  96.4069988
  47.6480012  95.7824997  95.7199988  48.0500012  96.6464997  97.7289988
  47.2180012  95.6344997  98.3989988  46.6600012  96.0404997  99.2689988
  46.4430012  95.2044997  97.7289988  48.1570012  94.5084997  98.9789988
  47.6020012  93.7594997  99.5829988  49.2640012  95.1574997  99.9709988
  49.4930012  96.0794997  99.3949988  48.7430012  95.3884997 100.9239988
  50.3400012  94.2124997 100.2349988  51.6490012  94.9114997 100.5589988
  52.6140012  93.8534997 101.1229988  52.5310012  92.4764997 100.6729988
  51.7910012  92.1924997  99.8949988  53.5040012  92.1454997 100.2509988
  52.4410012  91.4624997 101.9009988  52.6690012  90.4724997 101.5349988
  53.1510012  91.6484997 102.6929988  51.0210012  91.2644997 102.5629988
  50.0130012  90.8774997 101.4479988  50.0650012  91.5714997 100.6219988
  50.2140012  89.8854997 101.0699988  49.0630012  90.9134997 101.9599988
  51.1150012  90.0054997 103.5179988  50.1770012  89.9694997 104.0529988
  51.3650012  89.1444997 102.9159988  51.8860012  90.1134997 104.2659988
  50.6830012  92.5754997 103.3289988  51.4060012  92.8544997 104.0809988
  49.8510012  92.5094997 104.0149988  50.4580012  93.3744997 102.6369988
  52.1770012  95.4674997  99.2399988  51.2720012  95.8444997 101.5919988
  48.8790012  93.8434997  97.8749988  48.0960012  92.9164997  97.1839988
  46.9230012  92.8404997  97.3569988  48.9080012  92.1664997  96.1799988
  48.8830012  91.1004997  96.4929988  49.9930012  92.3934997  96.2499988
  48.5220012  92.4744997  94.7279988  49.3210012  91.9064997  94.2039988
  48.6690012  93.5474997  94.4829988  47.2530012  91.7884997  94.2209988
  46.3610012  92.1684997  94.7649988  47.2090012  90.6864997  94.3509988
  47.1160012  91.9034997  92.7089988  46.3490012  91.3064997  92.1709988
  48.0080012  91.3464997  92.3519988  47.1650012  93.2884997  92.0759988
  48.0730012  93.8264997  92.4219988  46.2620012  93.8934997  92.3069988
  47.1750012  93.3864997  90.5219988  46.5250012  92.6044997  90.0769988
  48.1960012  93.0744997  90.2149988  46.9210012  94.7154997  89.8259988
  45.8790012  95.0894997  89.9269988  47.0650012  94.4194997  88.7649988
  47.8070012  95.8204997  90.1939988  48.3150012  95.6404997  91.1529988
  47.9780012  96.9344997  89.4509988  48.7240012  97.6554997  89.8149988
  47.3080012  97.2964997  88.1629988  46.8380012  98.2864997  88.3419988
  46.5080012  96.5434997  87.9979988  48.2970012  97.3164997  87.0189988
  48.8110012  96.3324997  87.0689988  49.0250012  98.1324997  87.2139988
  47.5420012  97.4954997  85.6299988  46.8000012  98.3224997  85.6369988
  46.8940012  96.5994997  85.5279988  48.6180012  97.6664997  84.4519988
  49.2770012  98.5384997  84.6509988  48.1240012  97.8384997  83.4719988
  49.5560012  96.4434997  84.2199988  49.0300012  95.4674997  84.2949988
  50.3050012  96.3464997  85.0339988  50.2270012  96.4294997  82.7829988
  50.7340012  97.3874997  82.5389988  49.3950012  96.2954997  82.0589988
  51.2570012  95.2984997  82.6129988  51.6320012  95.2794997  81.5679988
  50.7610012  94.3094997  82.7199988  52.5170012  95.3914997  83.5299988
  52.1870012  95.6494997  84.5589988  52.9350012  96.3624997  83.1909988
  53.2760012  94.5904997  83.4019988  41.6170012 101.4104997  82.5859988
  40.8880012 102.1494997  82.9819988  41.8920012 101.7224997  81.5559988
  42.5470012 101.3394997  83.1889988  41.0440012  99.9824997  82.4689988
  40.1630012  99.7844997  81.8219988  41.8160012  99.3464997  81.9829988
  40.5650012  99.3234997  83.7789988  39.6780012  99.8954997  84.1239988
  40.3060012  98.2444997  83.7159988  41.4840012  99.4754997  84.9949988
  42.4870012  99.0114997  84.8759988  41.6820012 100.5514997  85.1869988
  40.7890012  98.8214997  86.2699988  41.1820012  99.3544997  87.1619988
  39.6850012  98.9414997  86.2349988  41.0840012  97.2944997  86.5039988
  40.7930012  96.6974997  85.6129988  42.1310012  97.0634997  86.7979988
  40.3890012  96.6934997  87.6989988  40.7220012  97.3654997  88.5179988
  39.3140012  96.9314997  87.5469988  40.6840012  95.1644997  88.0939988
  39.7680012  94.6764997  88.4909988  40.9530012  94.6384997  87.1529988
  41.8090012  95.0544997  89.1449988  42.2620012  94.0404997  89.1749988
  42.6700012  95.7164997  88.9089988  41.2800012  95.3794997  90.5779988
  40.2650012  95.8124997  90.4469988  41.2830012  94.4594997  91.2009988
  42.2880012  96.4194997  91.2359988  42.1780012  96.2594997  92.3289988
  43.2820012  96.1634997  90.8129988  42.0910012  97.9314997  90.9619988
  42.9030012  98.4894997  91.4759988  42.1000012  98.0724997  89.8599988
  40.7650012  98.5114997  91.4909988  40.6380012  99.5884997  91.2529988
  39.8690012  98.0614997  91.0119988  40.5640012  98.4464997  93.0239988
  39.9460012  97.5374997  93.1819988  41.5930012  98.2754997  93.4069988
  39.9630012  99.6674997  93.6339988  40.5310012 100.5884997  93.3859988
  38.8860012  99.7834997  93.3859988  40.0970012  99.5364997  95.1819988
  40.4590012 100.4284997  95.9509988  39.6890012  98.3884997  95.5649988
  39.6460012  98.1554997  97.0189988  39.2900012  98.9874997  97.6629988
  38.9220012  97.3294997  97.1839988  40.9260012  97.5824997  97.6229988
  41.1520012  96.6184997  97.1169988  40.7020012  97.4074997  99.2169988
  40.3490012  98.4454997  99.3939988  39.9710012  96.5994997  99.4339988
  41.9750012  97.0644997  99.9149988  41.9960012  97.1454997 101.5069988
  43.3390012  96.4864997 102.0379988  44.4780012  96.3694997 101.2249988
  45.2550012  95.7904997 101.7679988  44.2180012  95.6574997 100.4129988
  44.9740012  97.7784997 100.6629988  45.5040012  97.6444997  99.7319988
  44.0590012  98.3104997 100.4479988  45.7670012  98.7094997 101.5459988
  47.1270012  98.0374997 101.8449988  47.7070012  98.6534997 102.5169988
  47.1340012  97.0454997 102.2729988  47.5310012  97.9564997 100.8469988
  45.9730012 100.0764997 100.7889988  46.6240012  99.9784997  99.9319988
  45.0060012 100.5144997 100.5949988  46.4860012 100.7194997 101.4889988
  45.0770012  99.0294997 102.8149988  45.6470012  99.6954997 103.4469988
  44.9730012  98.1544997 103.4399988  44.0780012  99.3224997 102.5309988
  42.0220012  98.5564997 101.8569988  40.8010012  96.3784997 101.9809988
  41.9780012  98.5324997  97.4479988  42.9800012  98.1414997  96.6269988
  42.9700012  97.1074997  95.9509988  44.0690012  99.1694997  96.6439988
  44.6360012  98.9334997  97.5699988  43.6770012 100.1934997  96.8169988
  45.0700012  98.9644997  95.4799988  45.4900012  97.9464997  95.3259988
  45.9410012  99.5334997  95.8699988  44.5460012  99.4864997  94.1589988
  44.0980012 100.4814997  94.3689988  43.7460012  98.7924997  93.8209988
  45.5820012  99.4684997  93.0919988  45.3370012  98.6984997  92.3299988
  46.6330012  99.4024997  93.4459988  45.4680012 100.6444997  92.0999988
  45.6200012 101.5804997  92.6779988  44.4230012 100.6204997  91.7229988
  46.4620012 100.4204997  90.9519988  47.3590012  99.9784997  91.4369988
  46.6850012 101.4244997  90.5329988  46.1360012  99.3824997  89.9179988
  46.0460012  98.4164997  90.4599988  46.9840012  99.1564997  89.2359988
  44.9430012  99.6604997  89.0659988  44.2350012  98.8594997  89.3239988
  44.8150012 100.4374997  87.9929988  43.8200012 100.4514997  87.5239988
  45.8160012 101.3074997  87.2269988  46.6240012 101.5994997  87.9329988
  45.2330012 102.2314997  87.0299988  46.4080012 100.7714997  85.9949988
  47.1540012 100.0624997  86.4149988  47.0820012 101.4714997  85.4569988
  45.4090012 100.2544997  84.9389988  44.6080012 100.9924997  84.7199988
  44.9390012  99.3314997  85.3419988  46.0860012  99.7924997  83.5809988
  46.6480012 100.6684997  83.1939988  45.3660012  99.3434997  82.8639988
  47.1760012  98.7214997  83.7949988  46.5910012  97.8544997  84.1689988
  47.9050012  99.0644997  84.5609988  47.8780012  98.2564997  82.5409988
  48.4200012  99.0874997  82.0389988  47.0500012  97.8814997  81.9029988
  48.9450012  97.0874997  82.7129988  49.6040012  97.4394997  83.5359988
  49.5120012  96.8024997  81.8009988  48.3350012  95.8334997  83.3009988
  47.6340012  96.0794997  84.1269988  49.0520012  95.0714997  83.6749988
  47.5960012  95.4284997  82.5779988  44.2960012  80.6044997  82.9889988
  44.0090012  80.6154997  81.9159988  44.6760012  79.6324997  83.3699988
  45.0870012  81.3744997  83.1199988  43.0480012  81.2264997  83.7989988
  43.0070012  82.3124997  83.5649988  42.1360012  80.6714997  83.4929988
  43.3120012  80.9434997  85.2819988  43.4880012  79.8484997  85.3549988
  44.3120012  81.4104997  85.4079988  42.2390012  81.4584997  86.2849988
  42.0610012  82.4914997  85.9169988  41.2220012  81.0114997  86.3019988
  42.7490012  81.3944997  87.7009988  42.9230012  80.3064997  87.8379988
  43.6740012  82.0054997  87.7689988  41.8530012  81.9074997  88.8029988
  42.5200012  82.0484997  89.6799988  41.4790012  82.9174997  88.5309988
  40.4650012  81.1914997  88.8909988  40.0220012  81.4424997  89.8779988
  39.7950012  81.4614997  88.0459988  40.5450012  79.7114997  88.7499988
  39.5210012  79.2844997  88.6859988  41.0600012  79.3854997  87.8209988
  41.2530012  79.1224997  89.9519988  42.2270012  79.6524997  90.0219988
  40.7180012  79.4094997  90.8829988  41.3680012  77.6134997  89.9879988
  40.3760012  77.1574997  90.1949988  41.6070012  77.4014997  88.9239988
  42.4660012  76.9384997  90.8209988  42.3240012  75.8424997  90.7049988
  43.4220012  77.3434997  90.4259988  42.3660012  77.2414997  92.3619988
  42.4660012  78.3464997  92.4139988  41.4110012  76.9734997  92.8619988
  43.4510012  76.6134997  93.2699988  43.6230012  75.5364997  93.0569988
  44.4120012  77.1324997  93.0669988  43.2510012  76.7434997  94.7279988
  42.7720012  77.6924997  95.0489988  42.5170012  75.9814997  95.0669988
  44.6290012  76.5614997  95.4159988  45.1420012  75.6344997  95.0809988
  45.3080012  77.4264997  95.2579988  44.3280012  76.3664997  96.9059988
  43.2790012  76.0734997  97.3459988  45.3740012  76.6464997  97.6829988
  45.1030012  76.8354997  99.1079988  44.1040012  77.2624997  99.3389988
  45.1730012  75.8994997  99.7029988  46.0430012  77.9144997  99.7159988
  47.0570012  77.4794997  99.5909988  45.8160012  78.0644997 101.2579988
  45.6720012  77.1214997 101.8279988  46.7290012  78.5654997 101.6449988
  44.6740012  78.8324997 101.5769988  44.6010012  79.4044997 103.0119988
  43.4550012  80.4664997 102.8369988  43.6040012  81.5274997 101.8779988
  42.9600012  82.3314997 102.2939988  44.6110012  81.9694997 102.0399988
  43.3930012  81.2354997 100.3819988  43.5090012  82.1394997  99.8029988
  44.0650012  80.4464997 100.0789988  42.0030012  80.7004997  99.9199988
  40.9830012  81.7464997 100.1899988  40.0600012  81.4364997  99.7239988
  40.8760012  81.8704997 101.2569988  41.3650012  82.6884997  99.8249988
  42.1540012  80.5054997  98.3919988  42.8650012  81.2334997  98.0279988
  42.3210012  79.4714997  98.1299988  41.1360012  80.6574997  98.0649988
  41.6150012  79.3964997 100.6309988  42.2870012  78.6014997 100.3439988
  40.5670012  79.1784997 100.4819988  41.7970012  79.5074997 101.6899988
  44.1480012  78.4184997 104.0219988  45.8690012  80.0614997 103.3409988
  45.8800012  79.1434997  99.0699988  46.9540012  79.9104997  98.8249988
  48.0260012  79.8254997  99.3319988  46.4310012  81.0644997  98.0179988
  47.2760012  81.7814997  97.9419988  45.6210012  81.5754997  98.5819988
  46.0060012  80.5044997  96.6139988  45.0490012  79.9524997  96.4959988
  46.9250012  79.9724997  96.2889988  45.9400012  81.6674997  95.5499988
  46.0880012  81.1584997  94.5739988  46.7740012  82.3944997  95.6579988
  44.4470012  82.1944997  95.5639988  44.3040012  82.6174997  96.5809988
  43.6530012  81.4204997  95.4899988  44.1940012  83.3284997  94.5649988
  44.5100012  84.2704997  95.0619988  43.0930012  83.4704997  94.5929988
  44.7600012  83.2524997  93.1589988  45.8590012  83.3474997  93.2929988
  44.3040012  84.0434997  92.5259988  44.5400012  81.9644997  92.3489988
  43.4650012  82.0744997  92.0899988  44.4710012  81.0114997  92.9149988
  45.4020012  81.9994997  91.1609988  45.3870012  83.0134997  90.7369988
  46.1440012  80.9744997  90.5589988  46.8210012  81.3414997  89.7719988
  46.2400012  79.5474997  91.0179988  45.5480012  79.2504997  91.8349988
  47.2290012  79.5394997  91.5239988  46.1330012  78.5114997  89.8799988
  45.0770012  78.5714997  89.5399988  46.1700012  77.4724997  90.2699988
  47.1080012  78.5794997  88.6949988  48.0150012  78.0284997  89.0249988
  47.2930012  79.6504997  88.4679988  46.8200012  77.7554997  87.4759988
  46.4930012  76.7674997  87.8649988  47.7610012  77.6074997  86.9039988
  45.8070012  78.3534997  86.5139988  46.1960012  79.2244997  85.9429988
  44.9590012  78.7624997  87.1039988  45.2680012  77.3214997  85.5329988
  46.1340012  76.7334997  85.1599988  44.7500012  77.7384997  84.6429988
  44.2240012  76.4484997  86.2689988  44.3510012  76.2204997  87.3479988
  44.3390012  75.4694997  85.7559988  42.7730012  76.8964997  86.1569988
  42.2780012  76.0044997  86.5949988  42.6010012  77.0204997  85.0659988
  42.6170012  77.7864997  86.8029988  75.6210012  98.7754997  79.9689988
  74.6790012  99.0654997  80.4809988  75.6780012  99.1924997  78.9409988
  76.5310012  99.1334997  80.4969988  75.5220012  97.2244997  79.9259988
  74.6890012  96.9464997  79.2449988  76.3960012  96.8924997  79.3249988
  75.4400012  96.4924997  81.2929988  74.9100012  97.1374997  82.0249988
  74.8310012  95.5844997  81.0949988  76.8340012  95.9324997  81.7609988
  77.2930012  95.3264997  80.9509988  77.5280012  96.7894997  81.8909988
  76.7420012  95.1614997  83.0769988  76.6210012  95.8724997  83.9229988
  75.9110012  94.4234997  83.0569988  78.1030012  94.5074997  83.4759988
  78.4120012  93.9924997  82.5419988  78.8950012  95.2854997  83.5239988
  77.9870012  93.5444997  84.6339988  77.2230012  92.7494997  84.4959988
  78.9970012  93.2344997  84.9769988  77.6080012  94.2194997  85.9629988
  78.2680012  95.0774997  86.2109988  76.6330012  94.6824997  85.7019988
  77.5330012  93.2414997  87.1589988  76.8650012  92.3934997  86.8939988
  78.4620012  92.6554997  87.3249988  77.0880012  93.8814997  88.5059988
  76.9090012  93.1234997  89.2979988  77.9260012  94.4814997  88.9209988
  75.8750012  94.8904997  88.4569988  76.3680012  95.7354997  87.9299988
  75.0450012  94.4384997  87.8729988  75.3770012  95.2634997  89.8779988
  75.2010012  94.3104997  90.4209988  76.2050012  95.9054997  90.2479988
  73.9980012  96.0264997  89.7569988  74.1500012  96.9834997  89.2149988
  73.3040012  95.4704997  89.0909988  73.3030012  96.1844997  91.1129988
  72.2920012  96.6314997  91.0059988  73.3070012  95.1684997  91.5619988
  74.0860012  97.2124997  91.9369988  75.1620012  96.9344997  91.9129988
  73.9490012  98.2494997  91.5629988  73.5070012  97.0984997  93.3089988
  72.3370012  97.2894997  93.5569988  74.5300012  97.1114997  94.1889988
  74.1100012  97.2964997  95.5509988  74.2240012  98.3754997  95.7879988
  73.0810012  96.8954997  95.6709988  75.0800012  96.5424997  96.5819988
  74.9440012  95.4514997  96.4219988  74.7840012  96.7094997  98.0379988
  73.8850012  96.1224997  98.3219988  75.6330012  96.1754997  98.5149988
  74.7310012  98.1024997  98.3419988  75.4070012  98.6574997  99.6219988
  76.0970012  97.4064997 100.3699988  75.3920012  96.4144997 101.0989988
  74.4620012  96.2004997 100.5299988  76.0420012  95.5144997 101.0609988
  75.3110012  96.8634997 102.6019988  75.0570012  97.9084997 102.4989988
  74.4480012  96.4444997 103.0969988  76.6070012  96.9374997 103.3909988
  77.7520012  97.3794997 102.4759988  77.8060012  96.7224997 101.6209988
  77.5950012  98.4084997 102.1859988  78.6120012  97.3224997 103.1269988
  76.4640012  98.0334997 104.4699988  77.4260012  98.0824997 104.9579988
  76.1540012  98.9134997 103.9249988  75.6480012  97.6634997 105.0729988
  76.8460012  95.6224997 104.0579988  76.2390012  95.4794997 104.9399988
  77.8500012  95.6644997 104.4549988  76.8700012  94.7984997 103.3599988
  76.4390012  99.6324997  99.2379988  74.2450012  99.0594997 100.5129988
  76.4210012  96.9704997  96.2029988  77.4410012  96.2664997  96.5979988
  77.2950012  95.2064997  97.2139988  78.7060012  96.9374997  96.1359988
  79.5930012  96.6544997  96.7419988  78.6220012  98.0444997  96.1629988
  78.8560012  96.5814997  94.5759988  77.8270012  96.7274997  94.1819988
  79.0780012  95.4934997  94.5829988  79.9450012  97.4274997  93.9189988
  80.9210012  97.4504997  94.4479988  79.4830012  98.4354997  93.8429988
  80.2720012  96.9144997  92.5689988  80.6550012  95.8744997  92.6409988
  81.1130012  97.5754997  92.2689988  79.1760012  97.0664997  91.5109988
  78.3170012  96.4244997  91.7999988  79.5900012  96.7184997  90.5399988
  78.6440012  98.4504997  91.3299988  79.3930012  99.0674997  90.7889988
  78.4090012  98.8524997  92.3389988  77.3730012  98.4504997  90.6019988
  76.6200012  97.7004997  90.9249988  77.6200012  98.1794997  89.5539988
  76.6010012  99.7524997  90.4979988  76.1440012 100.0684997  91.4469988
  76.4430012 100.5894997  89.4659988  75.8840012 101.5264997  89.6069988
  77.0760012 100.3684997  88.0519988  77.6110012  99.3954997  88.0859988
  77.7970012 101.1714997  87.7859988  76.0430012 100.0524997  86.9509988
  75.7030012 101.0244997  86.5349988  75.1770012  99.5994997  87.4799988
  76.5680012  98.9934997  85.8949988  77.1290012  98.1544997  86.3599988
  77.2770012  99.5054997  85.2089988  75.4420012  98.3404997  85.1039988
  74.7460012  97.8364997  85.8079988  75.8890012  97.6194997  84.3859988
  74.5060012  99.2004997  84.1939988  73.8640012  98.5494997  83.5619988
  75.2590012  99.6044997  83.4839988  73.5900012 100.1264997  84.8999988
  74.1510012 101.0424997  85.1819988  73.1790012  99.6864997  85.8329988
  72.3320012 100.3734997  84.0509988  71.8590012 101.2634997  84.5179988
  71.7000012  99.4744997  84.2099988  72.6420012 100.5764997  82.5289988
  72.6710012  99.5644997  82.0689988  73.5300012 101.1874997  82.2579988
  71.7900012 101.1034997  82.0499988  70.3340012  42.6644997  80.8039988
  69.7470012  41.8414997  81.2659988  71.0310012  42.3304997  80.0059988
  69.6220012  43.3974997  80.3669988  71.2830012  43.2754997  81.8769988
  70.5640012  43.6704997  82.6269988  71.8440012  42.4684997  82.3949988
  72.1400012  44.4574997  81.4959988  73.0270012  44.1494997  80.9019988
  71.4360012  45.0824997  80.9059988  72.5150012  45.3854997  82.7029988
  73.1590012  46.2154997  82.3409988  71.6370012  45.8304997  83.2179988
  73.3740012  44.6364997  83.8379988  73.0310012  43.5904997  83.9849988
  74.4530012  44.6934997  83.5809988  73.1910012  45.2954997  85.2519988
  74.1500012  45.4324997  85.7949988  72.7620012  46.2884997  84.9979988
  72.1610012  44.7504997  86.2349988  71.1590012  44.7654997  85.7549988
  72.3340012  43.6674997  86.4079988  72.2390012  45.4864997  87.6399988
  73.2190012  45.1904997  88.0719988  72.1670012  46.5864997  87.5029988
  71.0810012  45.0344997  88.5489988  70.0930012  45.4064997  88.2019988
  71.0110012  43.9264997  88.5499988  71.2710012  45.3794997  90.0759988
  71.6010012  46.4244997  90.2559988  70.2130012  45.4514997  90.4089988
  72.1070012  44.2884997  90.7639988  71.4750012  43.4074997  91.0069988
  72.8290012  44.0474997  89.9549988  72.8610012  44.8804997  92.0079988
  73.7790012  44.2684997  92.1379988  73.2090012  45.9184997  91.8189988
  72.0450012  44.8204997  93.3109988  71.0420012  45.2654997  93.1359988
  71.9690012  43.7654997  93.6499988  72.8040012  45.6634997  94.4579988
  73.8240012  45.3084997  94.1949988  72.7250012  46.7624997  94.3209988
  72.4500012  45.2704997  95.8569988  72.4210012  44.1644997  95.9599988
  73.2590012  45.6844997  96.4969988  71.1230012  45.9044997  96.2239988
  70.8140012  47.0354997  95.7739988  70.4070012  45.1414997  97.0169988
  69.0510012  45.5464997  97.2409988  69.0250012  46.5054997  97.8009988
  68.6180012  45.6334997  96.2209988  68.2890012  44.4564997  98.1029988
  67.2050012  44.6694997  98.2229988  68.9140012  44.2844997  99.5309988
  68.7080012  45.2224997 100.0889988  68.3570012  43.4814997 100.0599988
  70.3260012  44.1014997  99.4639988  71.0670012  42.7644997  99.7569988
  71.8970012  43.1134997 101.0949988  72.7890012  44.2434997 101.1869988
  73.6170012  43.9744997 101.8769988  73.1770012  44.5894997 100.2049988
  72.0890012  45.5074997 101.8559988  72.9180012  46.1994997 101.8419988
  71.3200012  45.8574997 101.1829988  71.4970012  45.3854997 103.1909988
  70.4570012  44.3354997 103.1409988  70.8140012  43.4694997 102.6039988
  69.9130012  44.1894997 104.0629988  69.6950012  44.6784997 102.4569988
  72.4760012  44.9074997 104.2689988  72.9030012  43.9804997 103.9179988
  73.1980012  45.6514997 104.5719988  71.8190012  44.7474997 105.1109988
  70.9620012  46.7404997 103.4989988  70.1430012  46.9304997 102.8209988
  71.7900012  47.4294997 103.5829988  70.4530012  46.6884997 104.4499988
  70.0370012  41.7644997 100.0349988  72.0670012  42.4474997  98.6869988
  68.3630012  43.1744997  97.4899988  67.7320012  42.9754997  96.3309988
  67.1020012  43.7714997  95.6779988  68.2170012  41.5974997  95.9119988
  67.3600012  41.1324997  95.3789988  68.5450012  41.0374997  96.8129988
  69.4790012  41.6814997  95.0299988  70.4220012  41.9924997  95.5269988
  69.2970012  42.4884997  94.2889988  69.7530012  40.3734997  94.0889988
  69.7860012  39.5104997  94.7879988  70.7630012  40.4734997  93.6359988
  68.8260012  40.0944997  92.9449988  67.8380012  40.1064997  93.4529988
  68.9400012  39.0284997  92.6529988  68.8740012  41.1164997  91.8279988
  69.8870012  41.3064997  91.4139988  68.6430012  42.1374997  92.1999988
  67.9750012  40.7684997  90.6759988  66.9790012  40.7394997  91.1669988
  68.1510012  39.7164997  90.3669988  67.8800012  41.8324997  89.5469988
  67.5970012  42.8704997  89.8249988  67.1010012  41.4874997  88.8349988
  69.2630012  41.9494997  88.8309988  70.0640012  42.3474997  89.4719988
  69.4600012  41.7104997  87.5149988  70.4910012  41.8844997  87.1739988
  68.5530012  41.3034997  86.4329988  67.6690012  40.7434997  86.8049988
  69.1160012  40.5744997  85.8119988  68.1470012  42.4734997  85.5089988
  68.9510012  42.8844997  84.8619988  67.9150012  43.3454997  86.1559988
  66.8800012  42.2684997  84.7489988  66.2060012  41.7314997  85.4499988
  66.9710012  41.4764997  83.9749988  66.1240012  43.5674997  84.3209988
  65.9800012  44.1934997  85.2269988  65.1350012  43.1674997  84.0129988
  66.7330012  44.2724997  83.1559988  66.6610012  43.7294997  82.1889988
  67.8220012  44.3244997  83.3669988  66.1930012  45.7054997  82.8759988
  65.1340012  45.7734997  83.2029988  66.1790012  45.9094997  81.7839988
  67.0300012  46.7714997  83.5279988  67.4590012  46.3044997  84.4399988
  66.4550012  47.6924997  83.7649988  68.2550012  47.2484997  82.7349988
  68.9770012  46.4054997  82.6779988  68.7650012  48.0414997  83.3219988
  68.0040012  47.7194997  81.7599988  48.4730012  70.0644997  81.9279988
  49.3510012  70.7104997  81.7089988  47.5890012  70.7344997  81.9839988
  48.2940012  69.4924997  80.9919988  48.6670012  69.0294997  82.9899988
  48.0100012  68.1454997  82.8449988  49.7080012  68.6454997  82.9339988
  48.4960012  69.7114997  84.3779988  49.2720012  70.4344997  84.7099988
  47.5160012  70.2354997  84.3899988  48.4780012  68.5404997  85.4449988
  47.7990012  67.8254997  84.9339988  49.5040012  68.1144997  85.4259988
  48.0500012  68.9994997  86.8199988  47.8730012  70.0964997  86.8079988
  46.9950012  68.6674997  86.9209988  48.7170012  68.3214997  87.9889988
  48.2010012  68.7294997  88.8839988  48.5740012  67.2214997  88.0499988
  50.1870012  68.5894997  88.1859988  50.5510012  67.8784997  88.9579988
  50.7750012  68.2894997  87.2929988  50.5780012  69.9704997  88.7209988
  50.2960012  70.6484997  87.8879988  49.9730012  70.3914997  89.5509988
  52.0580012  70.0654997  89.1049988  52.6680012  69.6044997  88.2979988
  52.2690012  71.1464997  89.2499988  52.4770012  69.3354997  90.4619988
  52.4030012  68.2614997  90.1879988  53.5430012  69.5884997  90.6459988
  51.5960012  69.7524997  91.6319988  51.8460012  70.8254997  91.7789988
  50.5180012  69.5594997  91.4439988  51.6740012  68.9334997  92.9489988
  52.5930012  68.9894997  93.5719988  50.9410012  69.5654997  93.4949988
  51.2380012  67.5174997  92.9109988  50.2770012  67.2474997  92.4239988
  52.0140012  66.8684997  92.4519988  51.0370012  67.1614997  94.4419988
  52.0200012  66.8094997  94.8219988  50.6760012  68.0814997  94.9499988
  49.9960012  66.0094997  94.5919988  49.1170012  66.1914997  93.9379988
  50.2750012  65.0024997  94.2149988  49.7390012  65.9704997  96.1049988
  50.1680012  65.2074997  96.9049988  49.0130012  67.0634997  96.4919988
  48.6840012  67.2484997  97.8629988  47.6360012  67.6014997  97.9709988
  48.9270012  66.2944997  98.3779988  49.5350012  68.3884997  98.4709988
  50.5620012  68.1624997  98.1119988  49.3660012  68.3924997  99.9719988
  49.4840012  67.3934997 100.4439988  50.2500012  68.9744997 100.3109988
  48.1190012  69.0034997 100.4119988  47.9570012  69.2994997 101.9159988
  46.8780012  68.2154997 102.3549988  45.5960012  68.3574997 101.8819988
  44.8730012  68.1614997 102.7019988  45.4360012  69.3924997 101.5099988
  45.1890012  67.4394997 100.7979988  44.1140012  67.4284997 100.6939988
  45.5990012  67.8314997  99.8789988  45.5050012  65.9184997 100.9509988
  45.3870012  65.5334997 102.3879988  44.3270012  65.5144997 102.5929988
  45.7380012  64.5174997 102.4939988  46.0090012  66.0164997 103.1279988
  44.6370012  65.0794997 100.0869988  45.0060012  64.0704997  99.9779988
  43.5850012  65.1334997 100.3289988  44.7040012  65.6534997  99.1749988
  46.9580012  65.7284997 100.5709988  47.1370012  66.1254997  99.5819988
  47.1370012  64.6644997 100.5249988  47.4830012  66.3634997 101.2679988
  49.2870012  69.0534997 102.5979988  47.4190012  70.5894997 102.2229988
  48.9480012  69.6384997  97.9079988  49.7350012  70.3254997  97.2229988
  50.9040012  70.2114997  97.0459988  48.8160012  71.3354997  96.5519988
  49.2360012  72.2884997  96.1639988  48.0000012  71.6694997  97.2279988
  47.9930012  70.5634997  95.4069988  47.5270012  69.7104997  95.9449988
  48.6830012  70.1864997  94.6209988  46.8100012  71.2064997  94.6039988
  47.1060012  72.2214997  94.2639988  45.9440012  71.3624997  95.2819988
  46.4200012  70.3314997  93.3699988  47.3450012  70.1944997  92.7709988
  45.7810012  71.0134997  92.7699988  45.7530012  69.0494997  93.7829988
  44.8150012  69.3524997  94.2949988  46.2170012  68.3814997  94.5399988
  45.4310012  68.1834997  92.4919988  44.9180012  68.8954997  91.8099988
  44.6370012  67.4704997  92.7999988  46.6640012  67.4914997  91.8249988
  47.4870012  67.9504997  92.4129988  46.9110012  67.8014997  90.7869988
  46.5670012  66.0174997  91.9959988  46.6490012  65.7874997  93.0679988
  46.6470012  65.0554997  91.0109988  46.6300012  63.9884997  91.2759988
  46.7630012  65.3634997  89.5639988  47.7210012  64.8244997  89.4049988
  47.0290012  66.3884997  89.2269988  45.7200012  64.6964997  88.6829988
  45.5900012  63.6024997  88.8239988  46.0170012  64.7944997  87.6159988
  44.3400012  65.3994997  88.7869988  43.9950012  65.3824997  89.8429988
  43.6080012  64.8954997  88.1199988  44.2890012  66.9074997  88.3929988
  44.7850012  67.4864997  89.2009988  43.2100012  67.1694997  88.4099988
  44.6450012  67.1934997  86.9209988  45.7240012  67.0064997  86.7329988
  44.3530012  68.2594997  86.8049988  43.7990012  66.3794997  85.9519988
  42.7460012  66.3624997  86.3059988  44.1600012  65.3294997  86.0049988
  43.8020012  66.9004997  84.5129988  44.8080012  66.7084997  84.0829988
  43.5370012  67.9784997  84.4659988  42.9150012  66.0194997  83.5089988
  41.8670012  65.9144997  83.8629988  43.2420012  64.9884997  83.2559988
  42.9060012  66.5474997  82.5319988  34.6520012  93.7414997  83.8719988
  34.2540012  93.5364997  82.8549988  34.6730012  92.8464997  84.5309988
  35.6980012  94.1064997  83.7899988  33.8010012  94.7944997  84.5189988
  34.3040012  95.7794997  84.4189988  32.8520012  94.9134997  83.9529988
  33.4000012  94.6164997  86.0069988  32.4980012  95.2514997  86.1409988
  33.0010012  93.5934997  86.1749988  34.4580012  95.1734997  86.9829988
  35.0310012  96.0584997  86.6309988  34.0240012  95.4174997  87.9759988
  35.6600012  94.2314997  87.1639988  36.0300012  93.9164997  86.1649988
  36.4910012  94.7994997  87.6349988  35.3980012  93.0484997  88.0509988
  35.1150012  93.4094997  89.0629988  34.5660012  92.4274997  87.6559988
  36.6230012  92.1854997  88.1299988  36.7680012  91.7074997  87.1369988
  37.4450012  92.8324997  88.5019988  36.4440012  91.1014997  89.1759988
  36.2730012  91.5954997  90.1559988  35.6180012  90.4364997  88.8409988
  37.6590012  90.2364997  89.5049988  38.0930012  89.7234997  88.6199988
  38.4650012  90.9264997  89.8339988  37.4380012  89.1074997  90.5109988
  36.8420012  88.3784997  89.9209988  38.3840012  88.5464997  90.6669988
  36.7220012  89.3284997  91.8639988  35.7480012  89.8154997  91.6439988
  36.5810012  88.3494997  92.3679988  37.3620012  90.3524997  92.8079988
  38.3110012  89.9544997  93.2249988  37.6320012  91.2674997  92.2379988
  36.3580012  90.9244997  93.9569988  35.4440012  91.1764997  93.3789988
  36.2220012  90.2094997  94.7969988  36.8800012  92.2504997  94.6659988
  37.1630012  93.0004997  93.8959988  36.0620012  92.7974997  95.1809988
  38.0100012  92.0854997  95.7469988  37.6400012  91.4534997  96.5819988
  38.7240012  91.4794997  95.1489988  38.6400012  93.4744997  96.0009988
  39.7690012  93.8074997  95.6089988  37.7860012  94.2594997  96.5929988
  38.2640012  95.5064997  97.0709988  39.2810012  95.3904997  97.5039988
  38.4380012  96.2674997  96.2799988  37.2310012  96.1874997  98.0309988
  37.5040012  97.2504997  98.1989988  37.2060012  95.5214997  99.4319988
  37.0860012  94.4294997  99.2669988  38.2210012  95.7334997  99.8319988
  36.2700012  95.9874997 100.3889988  35.0500012  95.0674997 101.0049988
  35.7130012  93.8164997 101.7809988  36.9450012  93.8244997 102.5109988
  37.4750012  94.7984997 102.4459988  36.7780012  93.6754997 103.5989988
  37.8690012  92.7374997 102.0909988  38.3890012  93.1524997 101.2399988
  38.5880012  92.5944997 102.8839988  37.2090012  91.3974997 101.6729988
  36.0910012  91.0224997 102.6479988  36.5670012  91.0654997 103.6159988
  35.3140012  91.7664997 102.5489988  35.6280012  90.0694997 102.4419988
  36.7890012  91.5384997 100.3109988  36.0060012  92.2814997 100.3389988
  37.5650012  91.8034997  99.6079988  36.3180012  90.6164997 100.0009988
  38.4220012  90.3024997 101.8839988  39.1520012  90.2644997 101.0889988
  38.0140012  89.3234997 102.0869988  38.9460012  90.6254997 102.7709988
  34.3000012  95.8644997 102.0249988  34.2520012  94.5644997  99.8629988
  36.0010012  96.2354997  97.3619988  35.8420012  97.0374997  96.2769988
  36.4980012  98.0174997  95.9619988  34.5130012  96.5444997  95.6849988
  33.9750012  97.2694997  95.0379988  33.8670012  96.1084997  96.4769988
  34.8740012  95.3704997  94.6949988  33.8590012  94.9554997  94.5159988
  35.5430012  94.7104997  95.2869988  35.4220012  95.7474997  93.3089988
  35.0390012  96.7774997  93.1449988  35.1200012  94.9554997  92.5909988
  36.9590012  95.8604997  93.3379988  37.3140012  94.8344997  93.0989988
  37.4310012  96.0434997  94.3269988  37.4470012  96.8854997  92.3549988
  38.5190012  97.0764997  92.5769988  36.9020012  97.8434997  92.4919988
  37.2300012  96.3194997  90.9239988  37.5920012  97.0564997  90.1749988
  36.1280012  96.2614997  90.7889988  37.9400012  95.0024997  90.5419988
  37.6120012  94.9184997  89.4839988  37.4760012  94.0984997  90.9919988
  39.4070012  94.9624997  90.7319988  39.6870012  94.7624997  91.7769988
  40.3590012  94.8134997  89.7669988  41.4280012  94.7204997  90.0089988
  40.0560012  94.6394997  88.3209988  39.2130012  93.9314997  88.1739988
  40.9520012  94.3304997  87.7409988  39.5860012  95.9174997  87.7269988
  40.2480012  96.7944997  87.8849988  38.6010012  96.2674997  88.1029988
  39.4400012  95.8124997  86.2079988  38.8490012  94.9364997  85.8689988
  40.4770012  95.6994997  85.8259988  38.8390012  97.1614997  85.5819988
  39.1400012  98.0404997  86.1899988  37.7300012  97.1494997  85.5169988
  39.3840012  97.4364997  84.1649988  40.4750012  97.5964997  84.2979988
  39.0300012  98.3734997  83.6839988  39.1180012  96.2414997  83.1999988
  38.0330012  96.0294997  83.0949988  39.5860012  95.3604997  83.6889988
  39.6300012  96.3794997  81.7509988  39.6290012  95.3284997  81.3919988
  40.7150012  96.6154997  81.7919988  38.7440012  97.1934997  80.7619988
  37.6790012  96.8794997  80.7209988  39.1760012  97.1234997  79.7409988
  38.8160012  98.2694997  81.0309988  59.7090012  99.5014997  79.7859988
  60.7780012  99.6984997  79.5559988  59.1600012 100.3294997  80.2819988
  59.3450012  99.1674997  78.7909988  59.6290012  98.3444997  80.7549988
  58.5740012  98.0064997  80.8449988  60.1390012  97.4634997  80.3109988
  60.3000012  98.3134997  82.1289988  61.3580012  98.6124997  81.9669988
  59.7870012  98.9634997  82.8689988  60.4870012  96.8554997  82.7289988
  60.9560012  96.2094997  81.9559988  61.1450012  96.9964997  83.6129988
  59.2330012  96.1494997  83.1609988  58.6510012  96.0884997  82.2169988
  59.5540012  95.1144997  83.4059988  58.4030012  96.8174997  84.2359988
  58.2010012  97.8874997  84.0159988  57.4430012  96.2774997  84.3779988
  59.1910012  96.9174997  85.6489988  60.1970012  97.3884997  85.6619988
  58.4820012  97.6044997  86.1599988  59.3360012  95.5474997  86.3249988
  58.4540012  94.9254997  86.0599988  60.3160012  95.1064997  86.0399988
  59.5380012  95.5974997  87.8579988  60.1410012  94.6734997  87.9839988
  60.0330012  96.5584997  88.1149988  58.2790012  95.4504997  88.6849988
  57.6710012  94.6044997  88.3009988  58.5130012  95.1534997  89.7299988
  57.3410012  96.7334997  88.9139988  56.9900012  97.1654997  87.9529988
  56.4490012  96.5304997  89.5449988  58.1060012  97.7934997  89.6429988
  58.7580012  97.3624997  90.4329988  58.6250012  98.3914997  88.8639988
  57.1210012  98.6924997  90.4249988  57.5730012  99.7074997  90.4119988
  56.1520012  98.6264997  89.8869988  56.8890012  98.3654997  91.9209988
  55.8630012  98.7574997  92.0899988  56.7570012  97.2764997  92.0979988
  57.9580012  99.0504997  92.7739988  58.9050012  98.7134997  92.2999988
  57.8260012 100.1334997  92.5649988  57.8060012  98.6234997  94.2319988
  56.8310012  97.8954997  94.6239988  58.8350012  99.0814997  94.9939988
  58.4800012  98.8924997  96.4059988  57.6560012  99.5784997  96.6959988
  58.3840012  97.8474997  96.7699988  59.7150012  99.3314997  97.2569988
  60.4860012  98.6044997  96.9229988  59.4380012  99.1684997  98.7749988
  58.5700012  98.4814997  98.8749988  60.3000012  98.5464997  99.0989988
  59.4450012 100.4564997  99.4759988  58.2600012 100.6794997 100.5609988
  58.9640012 100.3394997 101.9209988  60.3410012 100.5954997 102.0609988
  60.6960012 101.5594997 101.6379988  60.5560012 100.6874997 103.1469988
  61.1670012  99.3544997 101.5979988  60.9910012  99.1824997 100.5469988
  62.2160012  99.6124997 101.6019988  60.8960012  97.9344997 102.2549988
  61.5800012  97.8224997 103.5909988  60.9770012  98.3914997 104.2829988
  61.7520012  96.7694997 103.7539988  62.5250012  98.3074997 103.3969988
  59.4020012  97.6194997 102.3269988  58.9160012  98.3854997 102.9119988
  59.0070012  97.4084997 101.3439988  59.3840012  96.7124997 102.9139988
  61.5100012  96.9394997 101.3419988  62.5860012  97.0234997 101.3749988
  61.0450012  96.8494997 100.3709988  61.3340012  95.9514997 101.7409988
  57.8760012 102.1254997 100.6719988  57.2780012  99.6054997 100.3769988
  59.9950012 100.7624997  96.8919988  61.0850012 101.1764997  97.4869988
  61.8960012 100.4744997  98.0739988  61.2620012 102.6994997  97.2659988
  62.1180012 103.0054997  97.9049988  60.4320012 103.3314997  97.6489988
  61.3980012 102.9554997  95.8039988  62.2220012 102.3404997  95.3849988
  61.7670012 104.0024997  95.8639988  60.0840012 103.0604997  95.0069988
  59.1900012 102.9764997  95.6609988  60.0240012 102.0734997  94.4999988
  59.9490012 104.2804997  94.0189988  59.9860012 105.2134997  94.6199988
  58.9590012 104.1964997  93.5209988  60.9400012 104.3904997  92.8219988
  61.8900012 104.8064997  93.2179988  60.6720012 105.1704997  92.0769988
  61.1970012 103.0804997  92.1099988  61.5290012 102.2404997  92.7569988
  62.0190012 103.3074997  91.3989988  60.0030012 102.3594997  91.3719988
  59.4850012 103.2444997  90.9439988  59.2370012 102.0444997  92.1119988
  60.3740012 101.3644997  90.3369988  60.4840012 100.3264997  90.6839988
  60.4100012 101.4344997  88.9729988  60.6350012 100.5354997  88.3789988
  60.0700012 102.6474997  88.1569988  60.8340012 102.8024997  87.3649988
  60.0990012 103.5644997  88.7829988  58.6760012 102.5604997  87.5399988
  58.4120012 103.5284997  87.0639988  57.9450012 102.5054997  88.3759988
  58.4850012 101.5214997  86.4969988  57.4960012 101.5344997  85.9899988
  58.4520012 100.5134997  86.9619988  59.6150012 101.5024997  85.3949988
  59.4710012 100.4944997  84.9499988  60.6040012 101.5994997  85.8909988
  59.3960012 102.5934997  84.2539988  59.7240012 103.5214997  84.7699988
  58.2890012 102.6514997  84.1779988  60.0390012 102.2754997  82.9059988
  59.5580012 101.3874997  82.4419988  61.1170012 102.1074997  83.1169988
  59.8910012 103.4434997  81.9129988  58.7860012 103.4974997  81.8159988
  60.4080012 103.2214997  80.9549988  60.3600012 104.8454997  82.3189988
  59.8870012 105.2014997  83.2579988  60.2670012 105.5554997  81.4699988
  61.4590012 104.8174997  82.4829988  87.1590012  44.6444997  83.0429988
  87.6090012  44.7404997  82.0319988  87.1830012  45.6954997  83.4029988
  86.1660012  44.1464997  83.0289988  88.1340012  43.8164997  83.9699988
  88.4520012  42.8614997  83.4989988  89.1260012  44.3144997  83.9979988
  87.8310012  43.5874997  85.4299988  87.0630012  42.7854997  85.4779988
  88.6100012  42.9714997  85.9279988  87.6600012  44.8714997  86.2969988
  88.5150012  45.5794997  86.2359988  86.8580012  45.5064997  85.8649988
  87.3100012  44.6064997  87.8699988  88.1550012  44.0374997  88.3119988
  87.1560012  45.5804997  88.3819988  86.1450012  43.5864997  88.1159988
  85.1000012  43.9244997  87.9459988  86.1940012  42.7294997  87.4109988
  86.3400012  42.8214997  89.4979988  87.4320012  42.6304997  89.5619988
  85.9920012  43.4954997  90.3099988  85.5260012  41.5514997  89.5449988
  84.5100012  41.8964997  89.2589988  85.9460012  40.8464997  88.7959988
  85.4690012  40.8574997  90.9359988  84.7840012  39.9954997  90.7929988
  86.4640012  40.5944997  91.3559988  84.7830012  41.6684997  91.9779988
  84.9370012  41.1104997  92.9269988  85.3440012  42.6164997  92.1239988
  83.2270012  41.8534997  91.6489988  83.2640012  42.6674997  90.8939988
  82.6950012  40.9244997  91.3519988  82.6190012  42.5174997  92.9209988
  81.5110012  42.5554997  92.8549988  82.8710012  41.9334997  93.8329988
  82.8910012  44.0114997  92.9559988  83.9800012  44.2314997  92.9429988
  82.5000012  44.4004997  91.9909988  82.2780012  44.8604997  94.0479988
  82.5410012  45.8774997  93.6859988  81.1700012  44.8284997  93.9799988
  82.9450012  44.8014997  95.4209988  84.0150012  44.5524997  95.2519988
  82.8370012  45.7904997  95.9139988  82.4020012  43.6604997  96.2319988
  81.3950012  43.0674997  96.0309988  83.3240012  43.4174997  97.1949988
  83.0240012  42.1794997  97.9089988  82.0040012  42.3354997  98.3189988
  83.0970012  41.2524997  97.3009988  83.9910012  41.9894997  99.0689988
  83.7380012  41.0554997  99.6149988  83.9810012  43.1824997 100.0889988
  82.9250012  43.1904997 100.4349988  84.7160012  42.8924997 100.8699988
  84.5970012  44.3554997  99.4839988  84.1940012  45.7904997  99.9429988
  85.3350012  46.2014997 100.8729988  85.7050012  45.3064997 101.9479988
  84.8740012  44.7674997 102.4509988  86.3000012  44.4464997 101.5719988
  86.5390012  45.9044997 103.1269988  86.1820012  46.8194997 103.5759988
  86.5480012  45.1104997 103.8589988  87.9710012  46.2894997 102.8649988
  88.5060012  46.9114997 104.1649988  89.4610012  47.3924997 104.0119988
  87.8480012  47.7124997 104.4689988  88.5570012  46.2004997 104.9759988
  88.8280012  45.1194997 102.5839988  89.8480012  45.4654997 102.5069988
  88.8400012  44.4914997 103.4629988  88.5450012  44.5714997 101.6969988
  88.1090012  47.4634997 101.8489988  87.1600012  47.4994997 101.3349988
  88.7400012  47.1374997 101.0359988  88.3780012  48.4274997 102.2539988
  84.3020012  46.6074997  98.6619988  82.8930012  45.7284997 100.6799988
  85.3080012  41.8254997  98.5779988  85.7250012  40.7014997  98.0499988
  85.1160012  39.6754997  97.8879988  87.1130012  40.9034997  97.5619988
  87.4810012  39.8614997  97.4569988  87.7450012  41.5334997  98.2249988
  87.2100012  41.5054997  96.1509988  86.5610012  40.9404997  95.4489988
  88.2740012  41.4334997  95.8399988  86.8040012  42.9404997  96.0949988
  85.7140012  43.0144997  96.3009988  87.1450012  43.3424997  95.1179988
  87.3830012  44.0384997  97.0789988  88.4870012  44.0994997  96.9729988
  87.1560012  43.6784997  98.1049988  86.6640012  45.3924997  96.8349988
  87.1980012  46.1374997  97.4619988  85.5710012  45.4074997  97.0329988
  86.8540012  45.9454997  95.3519988  86.2700012  45.2484997  94.7139988
  87.9290012  45.8234997  95.0999988  86.4570012  47.4404997  95.1589988
  87.0740012  47.8004997  94.3079988  86.7770012  47.9644997  96.0839988
  84.9710012  47.6394997  94.8719988  84.4230012  47.4434997  95.8049988
  84.2780012  47.9814997  93.7459988  83.1910012  48.1314997  93.8199988
  84.9950012  48.2564997  92.4039988  86.0130012  47.8254997  92.5159988
  85.1650012  49.3134997  92.1069988  84.4080012  47.4714997  91.2009988
  83.2980012  47.4964997  91.1919988  84.7370012  46.4164997  91.3169988
  84.9300012  47.9504997  89.7779988  86.0400012  47.9254997  89.7919988
  84.6640012  49.0234997  89.6639988  84.4240012  47.0294997  88.6869988
  83.3180012  46.9344997  88.7269988  84.8910012  46.0224997  88.7279988
  84.6790012  47.5714997  87.2639988  85.7730012  47.4634997  87.1049988
  84.5110012  48.6654997  87.1659988  84.0240012  46.7874997  86.1469988
  83.2070012  46.2144997  86.6359988  84.7260012  45.9604997  85.9059988
  83.5630012  47.5344997  84.8759988  84.4100012  48.1444997  84.4959988
  82.8150012  48.2274997  85.3169988  83.0910012  46.6054997  83.7449988
  83.9000012  46.1304997  83.1509988  82.5230012  47.2524997  83.0429988
  82.3850012  45.8954997  84.2279988  47.2530012  54.7134997  80.3109988
  47.7950012  55.4304997  79.6569988  46.6420012  55.2284997  81.0829988
  46.5350012  54.1174997  79.7069988  48.2830012  53.7444997  80.8579988
  47.5860012  53.0094997  81.3139988  48.9100012  53.2804997  80.0669988
  49.1450012  54.1604997  82.0339988  49.7020012  55.1224997  82.0549988
  48.3380012  54.4064997  82.7569988  50.0780012  53.0514997  82.5959988
  50.8680012  52.6294997  81.9399988  50.6320012  53.3164997  83.5219988
  49.2920012  51.7964997  83.0369988  48.7760012  51.8744997  84.0179988
  48.5890012  51.4904997  82.2329988  50.2220012  50.5674997  83.2459988
  49.5280012  49.7374997  83.4959988  50.7570012  50.3004997  82.3089988
  51.1020012  50.6284997  84.4969988  51.1980012  49.5574997  84.7759988
  52.1220012  50.8904997  84.1439988  50.5180012  51.3614997  85.6429988
  50.2600012  52.4254997  85.4509988  49.5080012  50.9434997  85.8369988
  51.2630012  51.4284997  86.9639988  51.3870012  50.3744997  87.2929988
  52.3150012  51.7254997  86.7689988  50.5460012  52.2664997  87.9769988
  49.4970012  51.9024997  87.9409988  50.8720012  51.8844997  88.9679988
  50.6500012  53.7714997  87.7869988  51.6190012  54.1074997  87.3599988
  49.9590012  54.1064997  86.9839988  50.5520012  54.5234997  89.0849988
  51.4580012  54.4004997  89.7159988  50.7010012  55.6034997  88.8689988
  49.2600012  54.2374997  89.7489988  48.3930012  54.7564997  89.2879988
  49.1800012  53.1294997  89.7689988  49.2930012  54.5804997  91.3669988
  49.8540012  55.5314997  91.4849988  48.2420012  54.6404997  91.7239988
  50.0740012  53.5544997  92.1569988  49.7280012  52.5154997  91.9689988
  51.1760012  53.6034997  92.0289988  49.7280012  53.7324997  93.6459988
  48.6870012  53.3984997  94.2119988  50.8220012  54.2064997  94.3359988
  50.6100012  54.5554997  95.6629988  51.4120012  55.2894997  95.8909988
  49.7340012  55.2124997  95.8549988  50.5770012  53.3344997  96.6299988
  49.6240012  52.7874997  96.4629988  50.7960012  53.6434997  98.1509988
  50.3720012  54.6704997  98.1659988  50.2100012  52.8794997  98.7059988
  52.1580012  53.7534997  98.4769988  52.6760012  54.7134997  99.6569988
  51.9550012  54.0584997 100.9059988  52.3130012  52.6524997 101.1649988
  51.3810012  52.0474997 101.1409988  52.9880012  52.1874997 100.4159988
  52.7460012  52.3294997 102.5969988  51.7770012  52.2484997 103.0679988
  53.2330012  51.3664997 102.5549988  53.7680012  53.1434997 103.3369988
  54.0180012  52.3774997 104.6019988  54.6130012  51.5164997 104.3369988
  54.6000012  53.0604997 105.2019988  53.0780012  52.1484997 105.0819988
  55.0870012  53.2354997 102.5609988  55.4450012  52.2164997 102.5849988
  54.8930012  53.6874997 101.5989988  55.8430012  53.8544997 103.0209988
  53.2390012  54.4744997 103.7499988  52.7990012  54.9494997 102.8849988
  54.1080012  55.0254997 104.0799988  52.4450012  54.4474997 104.4809988
  54.1110012  54.5044997  99.6389988  52.0930012  56.0894997  99.4899988
  51.5880012  52.4084997  96.2389988  51.5670012  51.1944997  96.7149988
  50.6730012  50.6394997  97.3149988  52.9030012  50.6204997  96.4479988
  53.4240012  51.2634997  95.7079988  52.9070012  49.5574997  96.1249988
  53.6400012  50.5554997  97.8909988  52.9810012  49.9984997  98.5919988
  53.6970012  51.5794997  98.3179988  55.0760012  50.0484997  97.7739988
  55.1100012  49.0474997  97.2929988  55.6320012  49.9194997  98.7269988
  55.8860012  51.0234997  96.9169988  55.5790012  51.0624997  95.8489988
  56.9080012  50.5904997  96.9719988  55.9870012  52.3944997  97.4349988
  56.3950012  52.3474997  98.4669988  55.0070012  52.9134997  97.3669988
  56.9290012  53.3034997  96.5819988  57.9330012  52.9304997  96.8779988
  56.9450012  54.3764997  96.8709988  56.7630012  53.2254997  95.0309988
  57.1630012  52.2084997  94.8319988  57.5680012  53.8904997  94.6519988
  55.3410012  53.3454997  94.5869988  54.6950012  53.9044997  95.2799988
  54.9300012  52.7644997  93.4279988  53.9400012  52.9854997  93.0019988
  55.8020012  51.9954997  92.4699988  55.7560012  50.9324997  92.7889988
  56.8320012  52.3894997  92.3359988  55.2740012  51.9814997  90.9609988
  54.3220012  51.4694997  91.2169988  56.0150012  51.4154997  90.3559988
  54.8340012  53.2734997  90.2999988  55.5420012  54.0914997  90.5519988
  53.8230012  53.5504997  90.6659988  54.8510012  53.1984997  88.7679988
  54.1290012  52.4254997  88.4289988  55.8170012  52.8564997  88.3369988
  54.4100012  54.5264997  88.0739988  54.9990012  55.3384997  88.5519988
  53.3540012  54.5424997  88.4169988  54.4600012  54.6654997  86.5759988
  54.0840012  55.6984997  86.4139988  53.8430012  53.9064997  86.0479988
  55.8400012  54.6474997  85.9739988  56.0090012  53.5504997  86.0259988
  56.5400012  55.2174997  86.6209988  55.9460012  55.2644997  84.5679988
  55.4150012  54.6184997  83.8369988  56.9880012  55.2404997  84.1839988
  55.5910012  56.3174997  84.5849988  99.1140012  47.9674997  82.2559988
  99.2350012  46.9164997  82.5929988  99.9890012  48.6014997  82.5159988
  98.9010012  47.9294997  81.1659988  97.9370012  48.5664997  83.0489988
  97.9260012  49.6724997  82.9409988  96.9050012  48.1644997  82.9649988
  98.0770012  48.4924997  84.5959988  97.7510012  47.5024997  84.9799988
  99.1710012  48.6164997  84.7449988  97.3490012  49.6884997  85.3129988
  97.2990012  50.6574997  84.7719988  96.2910012  49.4144997  85.5089988
  98.0760012  49.9474997  86.6799988  98.2470012  49.0244997  87.2739988
  99.0720012  50.4014997  86.4879988  97.2770012  50.9314997  87.5039988
  97.7720012  51.1364997  88.4769988  97.2350012  51.9284997  87.0159988
  95.7650012  50.5684997  87.7369988  95.2380012  51.3124997  88.3719988
  95.1990012  50.7514997  86.7989988  95.5500012  49.1004997  88.2369988
  94.4510012  48.9604997  88.1559988  95.9650012  48.3974997  87.4829988
  96.1150012  48.7984997  89.6429988  97.1990012  48.9964997  89.5049988
  95.7020012  49.5034997  90.3949988  95.8390012  47.3804997  90.1519988
  94.7670012  47.1904997  89.9299988  96.3140012  46.5744997  89.5529988
  96.3190012  47.2334997  91.5769988  96.2610012  48.1984997  92.1239988
  95.5580012  46.5584997  92.0229988  97.6920012  46.6214997  91.9439988
  97.9710012  45.7834997  91.2709988  98.5190012  47.3284997  91.7189988
  97.7600012  46.2934997  93.4379988  96.7760012  45.8384997  93.6809988
  98.5450012  45.5114997  93.5299988  98.0990012  47.5704997  94.2729988
  99.2000012  47.7124997  94.2259988  97.6570012  48.4984997  93.8519988
  97.8170012  47.6274997  95.7749988  96.7120012  47.6884997  95.8729988
  98.2520012  46.7534997  96.3039988  98.5270012  48.8114997  96.3869988
  98.7120012  49.8804997  95.8379988  98.9050012  48.4774997  97.6249988
  99.1410012  49.5024997  98.5859988  99.9960012  49.1644997  99.2089988
  99.4560012  50.3554997  97.9479988  97.9260012  49.7044997  99.4539988
  98.0660012  50.4204997 100.2919988  97.5930012  48.3974997 100.1659988
  97.7650012  47.6144997  99.3969988  98.2750012  48.2544997 101.0309988
  96.2900012  48.3104997 100.6339988  94.9380012  47.7394997  99.9789988
  94.0950012  47.6014997 101.3189988  93.2650012  48.6734997 101.7849988
  92.4330012  48.9684997 101.1099988  92.6660012  48.2544997 102.6219988
  94.0510012  49.9994997 102.0489988  94.9040012  49.7754997 102.6729988
  94.3550012  50.4274997 101.1049988  93.2980012  51.1564997 102.7589988
  92.7190012  50.7494997 104.0589988  93.4520012  50.5734997 104.8319988
  92.0190012  51.4624997 104.4689988  92.1290012  49.8654997 103.8669988
  94.3520012  52.2734997 103.1119988  93.8060012  53.1364997 103.4629988
  94.8980012  51.8724997 103.9529988  94.9690012  52.5714997 102.2769988
  92.2140012  51.7014997 101.8699988  92.6490012  52.1764997 101.0029988
  91.5300012  52.3464997 102.4019988  91.6290012  50.8584997 101.5339988
  94.3220012  48.8004997  99.1589988  95.1460012  46.3844997  99.4559988
  96.7700012  50.1994997  98.6589988  96.7460012  51.4824997  98.4469988
  97.6470012  52.2944997  98.6449988  95.3730012  51.8274997  97.9239988
  95.1790012  52.8854997  97.6459988  94.6440012  51.6204997  98.7369988
  95.0910012  50.8334997  96.7769988  94.9860012  49.7704997  97.0819988
  95.8100012  50.9564997  95.9389988  93.6900012  51.1024997  96.0419988
  93.6310012  52.1634997  95.7159988  92.8870012  50.9644997  96.7979988
  93.4110012  50.2484997  94.7629988  94.1740012  50.6014997  94.0359988
  92.4420012  50.5694997  94.3239988  93.3020012  48.7654997  94.9519988
  92.3290012  48.5914997  95.4589988  94.0460012  48.4334997  95.7079988
  93.2800012  48.0694997  93.6439988  94.1130012  47.3354997  93.6629988
  93.6780012  48.8144997  92.9219988  91.9880012  47.3934997  93.2119988
  91.2250012  48.1804997  93.3969988  91.7310012  46.5124997  93.8389988
  92.1790012  46.9684997  91.7639988  92.8940012  46.1384997  91.6659988
  91.6090012  47.5414997  90.6799988  91.9020012  47.0964997  89.7169988
  90.6710012  48.6474997  90.7739988  91.1130012  49.4764997  91.3669988
  89.6990012  48.4024997  91.2529988  90.4570012  49.2414997  89.3859988
  89.5330012  49.8594997  89.3959988  90.2380012  48.5194997  88.5699988
  91.5180012  50.2074997  88.9039988  92.4410012  49.6464997  88.6449988
  91.7210012  50.8924997  89.7549988  91.0840012  51.1484997  87.7399988
  90.2430012  51.7404997  88.1589988  90.6950012  50.5554997  86.8839988
  92.1930012  52.1124997  87.3919988  93.0330012  51.5284997  86.9599988
  92.4960012  52.5544997  88.3659988  91.7860012  53.3294997  86.5009988
  92.6610012  54.0134997  86.5159988  91.0160012  53.8704997  87.0909988
  91.4250012  52.9684997  85.0539988  91.4220012  53.9594997  84.5519988
  90.3700012  52.6194997  85.0509988  92.4260012  52.0304997  84.3649988
  92.4470012  52.2904997  83.2849988  92.3620012  50.9614997  84.6589988
  93.3950012  52.3934997  84.7699988 103.6190012  71.1174997  84.4359988
 104.2950012  71.8534997  83.9489988 103.0130012  71.6754997  85.1809988
 102.9080012  70.6354997  83.7319988 104.4270012  70.0604997  85.1489988
 103.8130012  69.1384997  85.2319988 105.3480012  69.7794997  84.5949988
 104.6350012  70.4884997  86.6679988 105.5350012  71.1254997  86.5379988
 103.8020012  71.0724997  87.1139988 104.9850012  69.3814997  87.6209988
 104.0480012  68.8874997  87.9549988 105.7020012  68.6364997  87.2129988
 105.7740012  69.8594997  88.9069988 106.6850012  70.2924997  88.4409988
 105.2020012  70.6564997  89.4279988 106.1940012  68.6554997  89.7949988
 106.3410012  67.7754997  89.1329988 107.2370012  68.7934997  90.1529988
 105.1310012  68.5994997  90.9629988 105.1180012  69.3914997  91.7429988
 104.1160012  68.4914997  90.5259988 105.2680012  67.3504997  91.9299988
 104.3870012  67.4284997  92.6029988 105.3200012  66.3394997  91.4739988
 106.3480012  67.5954997  92.9919988 107.3150012  67.5494997  92.4469988
 106.1060012  68.5974997  93.4059988 106.5150012  66.5494997  94.2009988
 106.0200012  65.6044997  93.8919988 107.5720012  66.2644997  94.3899988
 105.9460012  67.0834997  95.5609988 106.2990012  68.1364997  95.5279988
 104.8370012  67.1554997  95.5409988 106.5640012  66.3524997  96.7789988
 106.0730012  66.6154997  97.7399988 106.4100012  65.2834997  96.5179988
 108.0380012  66.7514997  97.0539988 108.4320012  66.0944997  97.8579988
 108.6230012  66.3304997  96.2079988 108.4410012  68.1764997  97.2769988
 108.4130012  68.8514997  96.3949988 107.8250012  68.6744997  98.0559988
 109.9150012  68.2814997  97.7579988 109.8750012  67.9024997  98.8019988
 110.5650012  67.6844997  97.0839988 110.2700012  69.7654997  97.7279988
 111.3330012  70.1644997  97.2479988 109.3690012  70.6074997  98.2809988
 109.5690012  72.0084997  98.0769988 110.4630012  72.4554997  98.5639988
 109.5180012  72.2274997  96.9889988 108.4010012  72.8294997  98.6349988
 108.6710012  73.9074997  98.6209988 108.1100012  72.4104997 100.1349988
 108.0610012  71.3114997 100.2889988 108.8770012  72.7584997 100.8589988
 106.7980012  72.9474997 100.5599988 106.2820012  72.3894997 102.0029988
 105.6820012  70.9914997 101.6499988 105.1240012  70.8174997 100.4099988
 104.2450012  71.4514997 100.1689988 105.9060012  70.9074997  99.6259988
 104.6120012  69.3554997 100.2339988 104.0930012  69.3034997  99.2879988
 105.4780012  68.7204997 100.1179988 103.6530012  68.7664997 101.2499988
 102.4940012  69.7704997 101.3619988 101.6010012  69.4884997 101.9009988
 102.8540012  70.6774997 101.8249988 102.1580012  69.9594997 100.3539988
 103.2200012  67.4454997 100.6769988 102.5310012  66.9044997 101.3089988
 102.7070012  67.6764997  99.7549988 104.0890012  66.8274997 100.5089988
 104.1580012  68.4674997 102.6639988 103.4210012  68.0184997 103.3129988
 104.6470012  69.3604997 103.0239988 104.9100012  67.7054997 102.5199988
 107.3830012  72.1814997 102.9569988 105.1570012  73.2704997 102.4129988
 107.2010012  72.5954997  97.9099988 106.8790012  73.3874997  96.8899988
 107.3930012  74.4374997  96.5169988 105.6200012  72.7634997  96.2409988
 105.1100012  73.4614997  95.5429988 104.8530012  72.4214997  96.9679988
 105.9900012  71.4534997  95.5919988 105.0910012  71.0604997  95.0699988
 106.3010012  70.6394997  96.2809988 107.1170012  71.5814997  94.5109988
 107.6180012  70.6074997  94.3269988 107.8880012  72.2784997  94.9019988
 106.5080012  72.1664997  93.2089988 105.9420012  73.0524997  93.5689988
 105.9160012  71.4454997  92.6049988 107.6580012  72.6844997  92.2759988
 108.0630012  73.5744997  92.8029988 107.2800012  73.1024997  91.3179988
 108.7980012  71.6514997  92.0089988 108.4130012  70.6094997  92.0399988
 109.5170012  71.7064997  92.8529988 109.4630012  71.9884997  90.6359988
 109.6200012  73.0804997  90.5019988 108.8260012  71.6194997  89.8039988
 110.7790012  71.2514997  90.4639988 111.5910012  71.6784997  91.0709988
 111.0390012  70.1484997  89.7459988 112.0750012  69.7924997  89.8519988
 110.0460012  69.3844997  88.9059988 109.0110012  69.5814997  89.2579988
 110.1890012  68.3124997  89.1609988 110.4070012  69.7214997  87.4779988
 111.4380012  69.3744997  87.2519988 110.5940012  70.8124997  87.3809988
 109.5150012  69.1484997  86.4059988 108.4390012  69.4094997  86.5069988
 109.5600012  68.0424997  86.3109988 109.9680012  69.5574997  85.0389988
 109.4840012  68.8244997  84.3579988 111.0500012  69.4284997  84.8219988
 109.4960012  70.9254997  84.5839988 110.0830012  71.7234997  85.0869988
 108.4620012  71.1214997  84.9409988 109.6780012  70.9794997  83.0889988
 109.2490012  70.0484997  82.6599988 110.7870012  70.9094997  83.0839988
 109.2280012  72.2274997  82.3269988 109.7550012  72.3834997  81.3609988
 109.4620012  73.1444997  82.9099988 107.7600012  72.1094997  82.0009988
 107.4670012  71.0794997  81.7039988 107.5730012  72.9014997  81.2439988
 107.0800012  72.3814997  82.8349988  75.7600012  41.1514997  80.5079988
  76.0990012  42.0074997  81.1279988  74.7480012  40.9284997  80.9079988
  75.5440012  41.4544997  79.4609988  76.6200012  39.8504997  80.7079988
  76.2670012  39.1264997  79.9419988  77.6970012  40.0304997  80.5029988
  76.7000012  39.2254997  82.1339988  76.9220012  40.1014997  82.7809988
  75.6910012  38.8974997  82.4639988  77.6570012  38.0394997  82.3119988
  77.4660012  37.2824997  81.5209988  78.6630012  38.4664997  82.1139988
  77.4230012  37.1654997  83.5319988  76.3780012  36.7864997  83.5149988
  78.0920012  36.2814997  83.4739988  77.5240012  37.8604997  84.8739988
  76.6160012  38.5004997  84.8649988  77.2720012  37.1654997  85.7029988
  78.7310012  38.6284997  85.3139988  78.7310012  39.5344997  84.6709988
  78.6910012  38.9784997  86.3669988  79.9920012  37.8034997  85.2549988
  79.6920012  36.8634997  85.7659988  80.2390012  37.3284997  84.2819988
  81.2310012  38.2934997  86.0519988  82.1670012  37.7114997  85.9119988
  81.4050012  39.2964997  85.6069988  81.0380012  38.2714997  87.5969988
  80.1370012  38.8924997  87.7889988  80.8610012  37.2694997  88.0419988
  82.1450012  39.1544997  88.3709988  83.1170012  38.6324997  88.4989988
  82.2080012  40.0464997  87.7119988  81.6170012  39.5774997  89.7659988
  82.2810012  40.3784997  90.1559988  80.6010012  40.0094997  89.6449988
  81.4870012  38.3224997  90.7129988  81.0220012  37.4304997  90.2409988
  82.5090012  37.9794997  90.9849988  80.8110012  38.6204997  92.0649988
  79.7930012  39.0514997  91.9479988  80.6510012  37.5934997  92.4589988
  81.6500012  39.3954997  93.0229988  82.6590012  38.9304997  92.9979988
  81.5070012  40.4764997  92.8099988  81.0330012  39.1764997  94.3939988
  79.8450012  39.0224997  94.6299988  82.0080012  39.1684997  95.3539988
  81.6440012  38.9154997  96.6679988  80.7730012  38.2274997  96.6949988
  82.5320012  38.3964997  97.0889988  81.2140012  40.1994997  97.4279988
  82.0640012  40.9104997  97.3479988  80.9490012  40.0494997  98.9029988
  81.9190012  39.7534997  99.3569988  80.7380012  41.0414997  99.3549988
  79.9590012  39.0934997  99.0789988  78.4050012  39.3224997  99.4699988
  78.5730012  40.1554997 100.8289988  77.9280012  39.7844997 101.9789988
  76.8370012  39.5914997 101.9069988  78.3180012  38.8134997 102.3529988
  78.2370012  40.8444997 103.1399988  77.6890012  41.7664997 103.0099988
  77.9340012  40.3894997 104.0709988  79.6870012  41.3084997 103.3289988
  80.5110012  40.0784997 103.3999988  80.3540012  39.5894997 102.4489988
  81.5550012  40.3234997 103.5289988  80.0140012  39.6174997 104.2399988
  80.1510012  42.2144997 102.1759988  80.0810012  41.7104997 101.2239988
  79.5020012  43.0524997 101.9689988  81.1640012  42.5394997 102.3579988
  79.8010012  42.0344997 104.6509988  79.6330012  41.3324997 105.4549988
  79.1090012  42.8634997 104.6609988  80.7640012  42.5014997 104.7969988
  77.7320012  40.1114997  98.4619988  77.8720012  37.9634997  99.6669988
  80.0430012  40.7524997  96.7229988  80.0330012  42.0624997  96.6079988
  80.7240012  42.8394997  97.2599988  78.8460012  42.4714997  95.7579988
  78.2800012  43.0464997  96.5219988  78.4460012  41.4934997  95.4169988
  79.1260012  43.4814997  94.6609988  80.0230012  44.1334997  94.7219988
  78.2060012  44.0874997  94.5169988  79.3660012  42.7804997  93.3419988
  78.5990012  41.9904997  93.1929988  80.3350012  42.2474997  93.4499988
  79.3470012  43.7374997  92.1989988  80.0160012  44.5824997  92.4679988
  78.3370012  44.1734997  92.0449988  79.9270012  43.1864997  90.8899988
  80.9670012  42.8224997  91.0319988  80.0790012  44.0524997  90.2099988
  79.0550012  42.2234997  90.0719988  78.7210012  41.3644997  90.6919988
  79.6570012  41.7594997  89.2619988  77.8430012  42.9834997  89.5189988
  78.1590012  43.8544997  88.9059988  77.1000012  43.1664997  90.3249988
  77.1840012  42.0114997  88.4879988  76.7230012  41.0884997  88.8709988
  77.0830012  42.0784997  87.1469988  76.4800012  41.2744997  86.6989988
  77.5620012  43.1524997  86.1749988  77.9220012  44.0884997  86.6539988
  76.6490012  43.4734997  85.6289988  78.5700012  42.7904997  85.1179988
  78.4020012  43.6234997  84.4019988  78.2790012  41.8794997  84.5509988
  80.0910012  42.9914997  85.4519988  80.4070012  42.0604997  85.9679988
  80.0910012  43.8864997  86.1099988  81.0250012  43.2414997  84.1929988
  82.0200012  43.6424997  84.4819988  80.4580012  44.0014997  83.6129988
  81.1850012  42.0214997  83.2839988  80.2410012  41.4394997  83.3379988
  82.0450012  41.4404997  83.6789988  81.4970012  42.4464997  81.8059988
  82.0120012  41.5234997  81.4639988  82.1130012  43.3714997  81.8429988
  80.2890012  42.7874997  80.9879988  79.5270012  43.3504997  81.5689988
  79.7630012  41.8654997  80.6599988  80.8570012  43.5874997  79.6959988
  81.2800012  44.5474997  80.0609988  80.0340012  43.7654997  78.9719988
  81.5920012  42.9254997  79.1889988  35.5110012  80.6664997  83.1979988
  36.6170012  80.6384997  83.2929988  35.2290012  79.6714997  82.7899988
  35.0880012  80.6834997  84.2249988  35.0740012  81.7064997  82.1769988
  35.7980012  81.6964997  81.3339988  34.0980012  81.3144997  81.8209988
  35.0290012  83.0964997  82.7079988  34.3510012  83.1434997  83.5869988
  35.9440012  83.5274997  83.1689988  34.3740012  84.0924997  81.7479988
  35.0370012  84.1184997  80.8579988  33.3510012  83.8124997  81.4169988
  34.2520012  85.6124997  82.2549988  35.2330012  86.1224997  82.3599988
  33.5950012  86.2034997  81.5809988  33.5570012  85.8294997  83.6549988
  34.1860012  85.3264997  84.4199988  33.5180012  86.9144997  83.8919988
  32.1150012  85.2764997  83.9289988  31.3560012  85.6394997  83.2029988
  32.0810012  84.1664997  83.9399988  31.5540012  85.6784997  85.3129988
  31.2190012  86.7364997  85.2599988  30.6170012  85.1104997  85.4969988
  32.4490012  85.5934997  86.4709988  33.3840012  86.1054997  86.1569988
  32.0390012  86.2614997  87.2589988  32.7270012  84.1424997  86.9199988
  33.1250012  83.4684997  86.1319988  33.5280012  84.1614997  87.6899988
  31.4640012  83.3874997  87.4089988  30.7790012  84.1804997  87.7789988
  30.9540012  82.7624997  86.6449988  31.8410012  82.4984997  88.6039988
  30.9370012  81.9664997  88.9699988  32.6490012  81.7914997  88.3169988
  32.2160012  83.2594997  89.9069988  33.1360012  83.8634997  89.7539988
  31.4110012  83.9874997  90.1449988  32.6150012  82.2954997  91.0269988
  31.6500012  81.7564997  91.1459988  33.5060012  81.6964997  90.7409988
  32.9900012  83.0684997  92.3329988  33.9840012  83.5654997  92.3199988
  32.2870012  83.9124997  92.5029988  32.9520012  82.1744997  93.5749988
  32.2580012  81.2254997  93.7249988  33.9570012  82.6184997  94.4799988
  34.2470012  81.6174997  95.5509988  33.3100012  81.4824997  96.1319988
  34.5220012  80.6244997  95.1359988  35.2150012  82.0424997  96.6579988
  35.4640012  81.1764997  97.3079988  34.5910012  83.1194997  97.5819988
  34.1070012  83.9884997  97.0869988  33.7910012  82.7754997  98.2719988
  35.5700012  83.6754997  98.4019988  36.1170012  83.0774997  99.7579988
  36.4290012  84.2714997 100.6109988  35.3880012  85.2824997 100.7709988
  35.3070012  85.9644997  99.8979988  34.3620012  84.8564997 100.8129988
  35.5780012  86.2174997 101.9519988  36.4780012  86.7864997 101.7719988
  34.7590012  86.9124997 102.0579988  35.7010012  85.6034997 103.3399988
  37.0230012  84.8504997 103.4699988  37.1990012  84.3014997 104.3829988
  37.1090012  84.0864997 102.7109988  37.8520012  85.5284997 103.3289988
  35.5320012  86.6314997 104.4509988  35.4700012  86.1564997 105.4189988
  36.3990012  87.2584997 104.5969988  34.7070012  87.2964997 104.2389988
  34.5460012  84.6754997 103.5679988  34.5000012  84.4684997 104.6269988
  34.7830012  83.7394997 103.0839988  33.6070012  85.0724997 103.2119988
  35.0770012  82.2134997 100.4279988  37.4310012  82.4754997  99.4309988
  36.5230012  82.5244997  96.1019988  37.5470012  81.7294997  96.0479988
  37.5740012  80.5474997  96.3339988  38.7840012  82.5924997  95.7189988
  39.7550012  82.0524997  95.7179988  38.8460012  83.4064997  96.4719988
  38.6450012  83.2524997  94.3659988  39.6710012  83.6074997  94.1309988
  37.8890012  84.0644997  94.4039988  38.1380012  82.2934997  93.2279988
  37.2370012  81.7174997  93.5289988  38.9530012  81.5744997  92.9989988
  37.6690012  82.9044997  91.9169988  38.5090012  83.4554997  91.4419988
  36.7680012  83.5224997  92.1149988  37.3860012  81.8354997  90.8929988
  36.4220012  81.3744997  91.1979988  38.1710012  81.0514997  90.8269988
  37.1470012  82.5264997  89.5609988  38.0050012  83.0984997  89.1479988
  36.3230012  83.1854997  89.9079988  36.7970012  81.6854997  88.3879988
  36.2190012  80.7824997  88.6779988  37.7440012  81.2174997  88.0449988
  36.1100012  82.3474997  87.2249988  35.0220012  82.2244997  87.3289988
  36.7380012  83.0854997  86.2319988  36.2060012  83.4974997  85.3619988
  38.2240012  83.3084997  86.2039988  38.5980012  83.0294997  85.1959988
  38.8310012  82.6154997  86.8249988  38.7730012  84.8114997  86.3399988
  39.8590012  84.8194997  86.5729988  38.1250012  85.3574997  87.0589988
  38.7860012  85.7094997  85.0369988  38.7110012  86.7894997  85.2889988
  37.8970012  85.5014997  84.4039988  40.0250012  85.5934997  84.1009988
  40.0990012  84.5974997  83.6129988  40.9580012  85.7284997  84.6889988
  39.9090012  86.6494997  82.9129988  40.9470012  86.8144997  82.5519988
  39.6200012  87.6094997  83.3909988  39.0900012  86.2014997  81.6369988
  39.1770012  87.0604997  80.9379988  38.0410012  85.9954997  81.9369988
  39.7270012  85.0034997  81.0259988  39.6290012  84.0294997  81.5509988
  40.7710012  85.3644997  80.9029988  39.1860012  84.7024997  79.6159988
  38.3910012  83.9304997  79.6949988  39.9560012  84.2404997  78.9609988
  38.7980012  85.6144997  79.1119988  89.9490012  94.7484997  82.5539988
  90.8510012  95.3284997  82.2639988  90.0350012  93.7264997  82.1279988
  90.1350012  94.7074997  83.6489988  88.7150012  95.5014997  82.1819988
  88.7840012  96.4184997  82.8059988  88.7660012  95.6864997  81.0879988
  87.3390012  94.7754997  82.3079988  87.4730012  93.7664997  81.8629988
  87.0530012  94.6784997  83.3779988  86.2050012  95.5564997  81.5379988
  86.4990012  95.6604997  80.4719988  85.2310012  95.0344997  81.6589988
  85.7930012  96.9104997  82.1069988  86.7010012  97.5354997  81.9629988
  84.9640012  97.2954997  81.4749988  85.2950012  96.8464997  83.5699988
  84.2650012  97.2334997  83.4129988  85.2360012  95.7814997  83.8829988
  86.1570012  97.5964997  84.6219988  87.1720012  97.1484997  84.5599988
  86.2510012  98.6694997  84.3509988  85.6100012  97.5654997  86.0799988
  86.3770012  98.0614997  86.7109988  84.7000012  98.1774997  86.2519988
  85.2680012  96.2274997  86.6889988  85.0460012  96.3604997  87.7699988
  84.4140012  95.7904997  86.1279988  86.3800012  95.2174997  86.5599988
  85.7230012  94.3834997  86.8889988  86.6820012  95.0674997  85.5019988
  87.5580012  95.5484997  87.5239988  88.3580012  94.8384997  87.2239988
  87.9060012  96.5754997  87.2789988  87.2070012  95.4994997  89.0169988
  86.4970012  96.3284997  89.2259988  86.6930012  94.5384997  89.2279988
  88.4430012  95.4204997  89.9369988  89.2660012  94.8344997  89.4749988
  88.9240012  96.4074997  90.1019988  88.0340012  94.7224997  91.3259988
  87.7440012  93.6544997  91.2349988  89.0280012  94.6814997  91.8219988
  86.9940012  95.3904997  92.1609988  87.2920012  96.3874997  92.5489988
  86.1900012  95.7254997  91.4709988  86.5620012  94.6384997  93.4419988
  85.6550012  93.8834997  93.5809988  87.4710012  94.8804997  94.3959988
  87.3720012  94.2734997  95.6979988  86.6520012  93.4324997  95.7949988
  88.4250012  94.0214997  95.9459988  86.9510012  95.3974997  96.6659988
  87.6490012  96.2444997  96.4939988  87.0720012  94.9504997  98.1169988
  88.0690012  94.4704997  98.2159988  87.0150012  95.8574997  98.7549988
  86.0090012  94.0434997  98.5149988  85.9820012  93.7094997 100.0639988
  85.3110012  95.0584997 100.5579988  83.8840012  95.1394997 100.4379988
  83.5630012  96.1944997 100.3039988  83.4390012  94.4474997  99.6909988
  83.1780012  94.7264997 101.7379988  82.1100012  94.8054997 101.5949988
  83.4090012  93.6774997 101.8409988  83.4550012  95.2984997 103.1149988
  84.8950012  95.0534997 103.4459988  85.4600012  95.8774997 103.0369988
  85.1820012  94.9814997 104.4839988  85.1640012  94.1254997 102.9639988
  83.1910012  96.8184997 103.3449988  83.4980012  97.3824997 102.4769988
  82.1180012  96.8914997 103.2459988  83.5370012  97.1674997 104.3069988
  82.6460012  94.4894997 104.0909988  81.5890012  94.6814997 103.9809988
  83.0480012  94.7474997 105.0599988  82.8970012  93.4514997 103.9269988
  85.1250012  92.5034997 100.1889988  87.3070012  93.6084997 100.6819988
  85.6020012  95.7834997  96.3529988  84.8670012  96.6234997  97.1169988
  85.2940012  97.2034997  98.0699988  83.4280012  96.8384997  96.5909988
  83.1080012  97.9024997  96.6149988  82.8050012  96.4104997  97.4049988
  83.2210012  96.2494997  95.1359988  82.1240012  96.1154997  95.0289988
  83.6900012  95.2534997  94.9859988  83.8330012  97.0774997  94.0039988
  84.9290012  97.2324997  94.1009988  83.3530012  98.0584997  94.2079988
  83.5430012  96.5884997  92.5909988  82.4500012  96.3944997  92.5479988
  84.1420012  95.6534997  92.6309988  83.7660012  97.6344997  91.5239988
  84.7310012  98.1744997  91.6279988  83.0680012  98.4864997  91.6639988
  83.4440012  97.2274997  90.0379988  84.2350012  96.4674997  89.8589988
  83.7940012  97.9444997  89.2649988  81.9620012  96.8104997  89.6769988
  81.8920012  96.7264997  88.5719988  81.3710012  97.7194997  89.9189988
  81.3370012  95.5264997  90.3279988  80.5030012  95.7634997  91.0039988
  81.7620012  94.2274997  90.1359988  81.3090012  93.4564997  90.7769988
  82.8560012  93.8534997  89.2439988  83.7760012  93.4974997  89.7539988
  83.1700012  94.7204997  88.6239988  82.4680012  92.8784997  88.0969988
  82.2350012  91.9194997  88.6089988  83.3930012  92.6654997  87.5199988
  81.3870012  93.3944997  87.1999988  81.4910012  94.5004997  87.1809988
  80.3630012  93.0844997  87.5009988  81.4670012  92.9504997  85.7529988
  80.5140012  93.2264997  85.2529988  81.6260012  91.8524997  85.6989988
  82.5110012  93.7344997  84.9509988  83.5250012  93.5204997  85.3509988
  82.5040012  94.8324997  85.1229988  82.3720012  93.3954997  83.4319988
  83.2700012  93.8524997  82.9639988  81.4080012  93.8684997  83.1479988
  82.3120012  91.8884997  83.1329988  81.4630012  91.2984997  83.5389988
  83.2870012  91.4924997  83.4889988  82.2790012  91.6004997  81.6379988
  83.1650012  92.0764997  81.1669988  81.4410012  92.1544997  81.1629988
  82.3620012  90.5104997  81.4409988  67.8930012 105.6014997  83.0619988
  68.8610012 106.1454997  83.0789988  67.1710012 106.0034997  83.8049988
  67.5990012 105.7574997  82.0019988  68.0530012 104.0254997  83.3599988
  67.1650012 103.4994997  82.9499988  68.9830012 103.8014997  82.7939988
  68.1810012 103.6734997  84.7629988  67.2120012 103.8524997  85.2769988
  68.3070012 102.5694997  84.7499988  69.2670012 104.5364997  85.4909988
  69.9390012 104.8024997  84.6469988  68.9200012 105.5334997  85.8369988
  69.9660012 103.7564997  86.5609988  70.4270012 102.8864997  86.0469988
  70.6550012 104.5124997  86.9949988  69.0080012 103.2224997  87.6389988
  68.2360012 102.4654997  87.3819988  69.6680012 102.6684997  88.3409988
  68.3580012 104.3234997  88.5409988  69.2110012 104.9044997  88.9539988
  67.7030012 105.0354997  87.9959988  67.6330012 103.8414997  89.8399988
  66.9060012 103.0124997  89.7019988  68.4770012 103.3864997  90.4009988
  67.1380012 105.0144997  90.7349988  68.0530012 105.3644997  91.2589988
  66.9360012 105.7804997  89.9559988  65.9770012 104.7304997  91.5859988
  65.7440012 105.6594997  92.1479988  65.0080012 104.5454997  91.0749988
  66.3350012 103.6264997  92.6199988  66.5590012 102.6174997  92.2139988
  67.2630012 103.9544997  93.1329988  65.3530012 103.3604997  93.7719988
  65.7740012 102.7204997  94.5769988  65.0920012 104.2654997  94.3629988
  64.1060012 102.5644997  93.2559988  63.4940012 103.1194997  92.5139988
  64.3570012 101.5904997  92.7839988  63.3290012 101.8944997  94.3469988
  62.6010012 101.2014997  93.8759988  64.1080012 101.3634997  94.9359988
  62.5900012 102.8734997  95.2859988  62.4380012 103.9004997  94.8909988
  61.5430012 102.5184997  95.4009988  63.2250012 103.2104997  96.6939988
  62.9780012 104.2064997  97.3329988  64.0660012 102.2274997  97.0389988
  64.4340012 102.2174997  98.4139988  65.1530012 103.0424997  98.6089988
  63.5470012 102.2944997  99.0789988  64.9760012 100.8114997  98.7679988
  64.0870012 100.1454997  98.7699988  65.4400012 100.8104997 100.2829988
  65.6350012 101.8924997 100.4409988  64.5540012 100.4254997 100.8309988
  66.7080012 100.1524997 100.5269988  67.5390012 100.5024997 101.7919988
  67.1740012 101.9694997 102.1129988  68.1080012 102.8244997 102.8239988
  67.5700012 103.5124997 103.5099988  68.7990012 102.3144997 103.5279988
  68.9380012 103.6964997 101.8459988  69.5780012 104.3354997 102.4349988
  69.5690012 103.1314997 101.1749988  68.2270012 104.6524997 100.9199988
  67.2230012 105.5654997 101.6989988  67.6780012 106.0624997 102.5429988
  66.7990012 106.3394997 101.0769988  66.4330012 104.9174997 102.0489988
  69.2330012 105.5654997 100.2759988  69.6830012 106.0614997 101.1229988
  70.0030012 104.9854997  99.7889988  68.7890012 106.2134997  99.5349988
  67.4370012 103.8074997  99.9329988  66.7190012 103.2374997 100.5039988
  68.1710012 103.1324997  99.5169988  67.0350012 104.4654997  99.1769988
  67.2320012  99.5964997 102.9359988  68.9200012 100.4584997 101.3169988
  66.0740012 100.3724997  97.9199988  65.7050012  99.5134997  97.0089988
  64.5480012  99.1294997  96.7729988  66.9740012  99.1124997  96.2319988
  67.7610012  99.1324997  97.0159988  67.1100012  99.9424997  95.5059988
  66.8250012  97.8224997  95.3329988  66.4990012  96.9284997  95.9059988
  67.8800012  97.6294997  95.0429988  65.8760012  98.0104997  94.0579988
  64.9050012  98.4644997  94.3499988  65.7140012  96.9884997  93.6539988
  66.3630012  98.9144997  92.8679988  67.2900012  98.4534997  92.4629988
  66.7400012  99.8684997  93.2929988  65.3180012  99.1264997  91.7659988
  64.5310012  99.7284997  92.2669988  64.8630012  98.1454997  91.5099988
  65.8290012  99.7864997  90.4119988  66.5780012  99.1074997  89.9499988
  66.3170012 100.7414997  90.7039988  64.7090012 100.0044997  89.3109988
  64.4450012  99.0004997  88.9159988  65.2370012 100.3644997  88.4019988
  63.4620012 100.7744997  89.7499988  62.8340012 100.3884997  90.5669988
  63.0320012 101.8924997  89.0899988  62.1840012 102.4144997  89.5579988
  63.6370012 102.5814997  87.9059988  64.2810012 101.8344997  87.3949988
  64.2700012 103.3834997  88.3429988  62.6310012 103.0694997  86.8449988
  63.0600012 103.6374997  85.9929988  61.8910012 103.7284997  87.3479988
  61.7640012 102.0134997  86.1349988  61.0210012 102.4914997  85.4619988
  61.1740012 101.5034997  86.9259988  62.4800012 100.9734997  85.2429988
  61.8350012 100.1534997  84.8599988  63.1080012 100.4514997  85.9969988
  63.5340012 101.4954997  84.3089988  63.9560012 102.4804997  84.5999988
  62.9920012 101.6684997  83.3549988  64.7380012 100.5224997  84.0149988
  65.3180012 100.9384997  83.1639988  64.2740012  99.5434997  83.7679988
  65.7900012 100.4774997  85.1169988  65.3820012 100.4064997  86.1479988
  66.2610012 101.4764997  85.2449988  66.9660012  99.5414997  84.8369988
  66.9250012  99.1624997  83.7939988  66.8450012  98.6954997  85.5469988
  68.0110012  99.8894997  84.9869988  92.1920012  91.2744997  80.4139988
  91.6570012  91.4774997  81.3659988  91.5600012  90.9794997  79.5489988
  92.5680012  92.3054997  80.2419988  93.3260012  90.3384997  80.7009988
  92.9670012  89.3444997  81.0419988  93.9210012  90.1194997  79.7889988
  94.2930012  90.8534997  81.7659988  95.3300012  90.5724997  81.4839988
  94.3030012  91.9644997  81.7949988  94.0300012  90.3814997  83.2479988
  93.0600012  90.8824997  83.4539988  93.7930012  89.2984997  83.3129988
  95.1350012  90.7824997  84.1019988  96.0640012  91.0944997  83.5799988
  94.8260012  91.7174997  84.6179988  95.4930012  89.6894997  85.1769988
  94.5800012  89.1114997  85.4329988  96.3240012  89.0694997  84.7789988
  95.9790012  90.3304997  86.4759988  95.2590012  91.0854997  86.8579988
  96.2390012  89.4734997  87.1339988  97.3410012  91.0024997  86.3459988
  98.1520012  90.3914997  85.8939988  97.2440012  91.8224997  85.6029988
  97.9060012  91.6934997  87.5729988  98.9560012  92.0454997  87.4849988
  97.4690012  92.6974997  87.7579988  97.7100012  90.9824997  88.9269988
  96.6370012  90.9474997  89.2149988  98.0500012  89.9494997  88.7009988
  98.3840012  91.6494997  90.1249988  99.4740012  91.5154997  89.9569988
  98.1450012  92.7304997  90.2139988  97.9560012  91.0154997  91.4979988
  98.3180012  89.9654997  91.5219988  98.5940012  91.4884997  92.2749988
  96.4730012  90.9094997  91.9799988  96.0790012  91.9484997  91.9819988
  95.8300012  90.3954997  91.2339988  96.2830012  90.2814997  93.3699988
  96.5990012  89.2284997  93.5299988  96.8980012  90.9044997  94.0539988
  94.7820012  90.2464997  93.8529988  94.2640012  91.2184997  93.7049988
  94.2470012  89.4924997  93.2369988  94.6470012  89.7674997  95.2869988
  93.5400012  89.5914997  95.8059988  95.8220012  89.7154997  95.8379988
  96.0420012  89.6294997  97.2779988  95.4510012  88.8014997  97.7249988
  97.1110012  89.4174997  97.4909988  95.7080012  90.9564997  98.0329988
  96.5510012  91.6564997  97.8449988  95.5740012  90.7324997  99.5739988
  96.5340012  90.4664997 100.0659988  95.1100012  91.6474997  99.9989988
  94.6340012  89.6114997  99.7519988  94.1060012  89.3204997 101.1829988
  93.7150012  90.7484997 101.7669988  92.5230012  91.3824997 101.3489988
  92.1240012  90.7924997 100.4969988  91.7670012  91.3534997 102.1629988
  92.7600012  92.8224997 100.8469988  93.3200012  92.6964997  99.9319988
  91.7800012  93.0884997 100.4819988  93.2830012  93.8314997 101.7849988
  94.7150012  93.5984997 102.1049988  95.2710012  93.7044997 101.1859988
  94.9900012  94.3324997 102.8479988  94.7430012  92.6564997 102.6339988
  93.2140012  95.1674997 101.1959988  93.7280012  95.8684997 101.8369988
  93.7550012  95.1944997 100.2619988  92.1840012  95.4644997 101.0629988
  92.3830012  93.7514997 103.0509988  91.4000012  93.9934997 102.6759988
  92.8180012  94.4644997 103.7359988  92.3340012  92.7334997 103.4079988
  92.9320012  88.3964997 101.1609988  95.2640012  88.8544997 101.9829988
  94.4780012  91.5254997  97.5299988  94.3280012  92.8384997  97.7949988
  95.0150012  93.4914997  98.5319988  93.0530012  93.3794997  97.0389988
  92.4850012  94.1414997  97.6149988  92.4610012  92.4474997  96.9099988
  93.4380012  93.9944997  95.7079988  92.5330012  94.3344997  95.1609988
  93.9490012  93.2724997  95.0349988  94.3300012  95.2204997  95.8529988
  95.3510012  94.9004997  96.1539988  93.8960012  95.8864997  96.6299988
  94.4120012  96.2384997  94.5629988  94.7760012  97.1954997  94.9959988
  93.4470012  96.4984997  94.0779988  95.1910012  95.6984997  93.3559988
  95.0440012  96.3684997  92.4809988  94.6720012  94.7464997  93.1129988
  96.6760012  95.6394997  93.5739988  96.8060012  94.9084997  94.4009988
  97.0360012  96.6504997  93.8599988  97.4890012  95.0934997  92.3669988
  97.2900012  94.0054997  92.2669988  98.5080012  94.9604997  92.7889988
  97.5050012  95.8094997  91.0959988  98.2540012  96.5954997  90.9239988
  96.6810012  95.4184997  90.0509988  96.8350012  96.1264997  89.2219988
  95.6490012  94.2814997  89.9859988  95.6940012  93.6854997  90.9229988
  95.8850012  93.5634997  89.1719988  94.1750012  94.8254997  89.8949988
  94.1450012  95.3104997  88.8959988  93.9190012  95.5744997  90.6759988
  93.1070012  93.7724997  89.9749988  92.1160012  94.2734997  90.0159988
  93.2900012  93.1354997  90.8669988  93.2350012  92.7524997  88.8909988
  93.9160012  91.9274997  89.1939988  93.6870012  93.2694997  88.0179988
  91.8540012  92.1964997  88.4989988  91.2060012  92.1514997  89.3999988
  92.0050012  91.1444997  88.1739988  91.2790012  92.9274997  87.3509988
  91.2780012  93.9964997  87.6549988  90.2610012  92.5264997  87.1599988
  91.9990012  92.8224997  85.9839988  92.0320012  91.7384997  85.7439988
  93.0300012  93.2054997  86.1419988  91.5300012  93.6214997  84.8439988
  92.3370012  93.6854997  84.0829988  91.2260012  94.6514997  85.1289988
  90.6530012  93.0564997  84.4629988  46.4860012 106.1544997  80.6859988
  45.4770012 105.7894997  80.3979988  47.1190012 106.4624997  79.8269988
  46.1630012 107.0074997  81.3209988  47.1370012 105.0284997  81.4619988
  46.3650012 104.3994997  81.9539988  47.8000012 104.4094997  80.8209988
  47.9870012 105.5374997  82.7059988  47.3460012 106.1434997  83.3809988
  48.0430012 104.6244997  83.3369988  49.3740012 106.0914997  82.5159988
  49.2210012 106.9194997  81.7919988  49.6990012 106.6104997  83.4429988
  50.4900012 105.1204997  82.1059988  50.1940012 104.6084997  81.1659988
  51.5250012 105.4694997  81.9039988  50.6580012 103.9594997  83.1659988
  49.8590012 103.2084997  82.9899988  51.5960012 103.3884997  82.9989988
  50.7460012 104.3464997  84.5709988  49.7660012 104.7494997  84.9049988
  50.7170012 103.3614997  85.0839988  51.8620012 105.2724997  84.9039988
  52.7820012 104.6734997  84.7289988  51.9900012 106.2164997  84.3319988
  51.6040012 105.6354997  86.4199988  50.8020012 106.4024997  86.4669988
  51.3750012 104.7184997  87.0039988  52.8610012 106.2444997  87.0969988
  53.6120012 105.4334997  87.2089988  53.2210012 107.0234997  86.3909988
  52.4240012 106.9124997  88.4279988  53.2920012 107.4134997  88.9069988
  51.6330012 107.6804997  88.2859988  51.7510012 105.9414997  89.4509988
  50.8460012 105.4364997  89.0499988  52.4580012 105.0974997  89.5939988
  51.4010012 106.5694997  90.8519988  52.3510012 106.7184997  91.4089988
  50.7970012 107.5024997  90.8669988  50.6560012 105.4864997  91.6629988
  49.6810012 105.2304997  91.1949988  51.3160012 104.5954997  91.6029988
  50.2640012 105.8024997  93.1569988  49.5710012 106.6634997  93.2739988
  49.6640012 104.9054997  93.4199988  51.3440012 105.7924997  94.2279988
  52.5330012 105.8424997  94.0549988  50.7700012 105.6394997  95.3999988
  51.6410012 105.8484997  96.5809988  52.5630012 105.2444997  96.4379988
  51.8380012 106.9364997  96.6959988  50.8490012 105.2854997  97.8249988
  49.9240012 105.8604997  98.0409988  51.7530012 105.3254997  99.0919988
  52.3580012 104.3944997  99.0399988  52.3340012 106.2714997  99.0389988
  50.8920012 105.2874997 100.2749988  51.6530012 104.6954997 101.6059988
  51.8140012 103.1894997 101.2209988  50.6720012 102.3214997 101.4609988
  50.3850012 102.1864997 102.5249988  49.7840012 102.5764997 100.8429988
  50.9080012 100.7964997 101.0249988  50.0100012 100.2764997 101.3239988
  51.0800012 100.8194997  99.9589988  52.1280012 100.0264997 101.4419988
  53.3310012 100.3614997 100.6179988  53.1710012  99.8554997  99.6769988
  53.2770012 101.4114997 100.3719988  54.3080012 100.0404997 100.9479988
  52.2000012 100.3124997 102.9449988  52.9720012  99.7784997 103.4789988
  52.2180012 101.3874997 103.0489988  51.3490012  99.8634997 103.4339988
  51.7470012  98.5374997 101.2009988  51.3640012  98.4734997 100.1929988
  50.9380012  98.2464997 101.8539988  52.5650012  97.8844997 101.4679988
  53.0280012 105.2204997 101.6349988  50.7880012 104.7654997 102.7529988
  50.4870012 103.9444997  97.5249988  49.3830012 103.3594997  98.0749988
  48.5670012 103.8944997  98.7349988  49.1970012 101.9424997  97.4939988
  49.6760012 101.2224997  98.1919988  49.7130012 101.8094997  96.5199988
  47.7420012 101.6204997  97.2119988  47.0950012 101.8184997  98.0929988
  47.7760012 100.5114997  97.1469988  47.1860012 102.1694997  95.9419988
  47.2330012 103.2664997  95.7699988  46.0980012 101.9584997  95.8609988
  47.8460012 101.6934997  94.6389988  48.8990012 102.0454997  94.5999988
  47.3100012 102.1524997  93.7799988  47.7300012 100.2034997  94.3079988
  47.8550012 100.0274997  93.2179988  46.8470012  99.7194997  94.7769988
  48.9390012  99.4074997  94.8409988  48.6090012  98.3494997  94.9149988
  49.3340012  99.6744997  95.8439988  50.1790012  99.4584997  93.9389988
  49.9880012  98.9474997  92.9709988  50.8490012  98.7334997  94.4499988
  50.8990012 100.7764997  93.7249988  51.1540012 101.3414997  94.6329988
  51.1320012 101.3344997  92.5409988  51.7870012 102.2144997  92.4599988
  50.7730012 100.8094997  91.1779988  50.2840012 101.5664997  90.5279988
  50.0230012  99.9954997  91.0779988  52.0000012 100.2244997  90.3509988
  51.5210012  99.8624997  89.4169988  52.3650012  99.2464997  90.7309988
  53.0930012 101.2394997  90.1299988  53.4610012 101.4354997  91.1599988
  52.7220012 102.2244997  89.7729988  54.3630012 100.7674997  89.2899988
  54.8090012  99.9424997  89.8849988  55.1570012 101.5444997  89.3269988
  54.1130012 100.5344997  87.8189988  53.4180012  99.6684997  87.7849988
  54.9810012 100.1204997  87.2629988  53.4120012 101.7164997  87.1609988
  53.8370012 102.7074997  87.4279988  52.3570012 101.6844997  87.5089988
  53.4130012 101.7384997  85.6829988  54.3940012 101.5274997  85.2049988
  53.2610012 102.7924997  85.3639988  52.3940012 100.8394997  84.8759988
  52.4140012 101.0574997  83.7869988  51.3550012 101.0434997  85.2119988
  52.6890012  99.7734997  84.9789988 104.1530012  81.2304997  80.5699988
 105.0810012  81.6564997  81.0079988 103.4100012  82.0314997  80.3649988
 104.2890012  80.7044997  79.6019988 103.4730012  80.3164997  81.6289988
 102.4050012  80.2514997  81.3309988 104.0340012  79.3574997  81.6339988
 103.5440012  80.7874997  83.0929988 104.5970012  80.6334997  83.4099988
 103.2750012  81.8564997  83.2289988 102.7440012  79.9224997  84.0429988
 101.6520012  79.8474997  83.8539988 103.2270012  78.9324997  84.1849988
 102.8970012  80.4114997  85.5529988 103.9870012  80.4844997  85.7559988
 102.6070012  81.4754997  85.6789988 101.9700012  79.6444997  86.4709988
 100.9480012  79.9724997  86.1859988 102.0660012  78.5484997  86.3189988
 102.0720012  80.0464997  87.9569988 103.1340012  80.1774997  88.2549988
 101.6810012  81.0784997  88.0769988 101.2270012  79.1314997  88.8959988
 100.1930012  79.0394997  88.4999988 101.6040012  78.1014997  88.7179988
 101.1070012  79.4834997  90.3779988 100.6240012  78.6114997  90.8679988
 102.1810012  79.6004997  90.6379988 100.2570012  80.7304997  90.6229988
 100.7470012  81.6154997  90.1629988  99.3140012  80.8204997  90.0419988
  99.8090012  80.9244997  92.0839988 100.7020012  81.1904997  92.6889988
  99.0370012  81.7214997  92.1429988  99.1610012  79.7124997  92.7639988
  98.2630012  79.4624997  92.1609988  99.8360012  78.8334997  92.6839988
  98.4400012  79.8854997  94.1049988  97.6910012  80.7034997  94.0409988
  97.9750012  78.9084997  94.3569988  99.3480012  80.1274997  95.3039988
  99.9840012  81.0164997  95.1109988  98.7570012  80.2854997  96.2319988
 100.3500012  79.0134997  95.4999988  99.6750012  78.1334997  95.5639988
 101.0320012  78.8064997  94.6479988 101.0800012  79.0994997  96.8279988
 101.1970012  80.0894997  97.5169988 101.7750012  78.0234997  96.9729988
 102.7090012  77.8004997  98.0659988 102.4910012  78.5044997  98.8969988
 102.5030012  76.7874997  98.4739988 104.1400012  78.0534997  97.7229988
 104.2990012  77.3254997  96.8989988 105.0540012  77.6934997  98.8999988
 104.9080012  76.6334997  99.1999988 106.1420012  77.8024997  98.7019988
 104.6270012  78.4114997  99.9859988 105.5530012  79.6284997 100.5259988
 104.7380012  80.2304997 101.6999988 104.0480012  79.2964997 102.6379988
 104.4930012  78.2834997 102.7399988 104.1350012  79.7664997 103.6409988
 102.5640012  78.9874997 102.3509988 102.5710012  78.2974997 101.5209988
 102.2530012  78.5144997 103.2709988 101.5720012  80.1874997 102.1379988
 101.9020012  81.2204997 103.2199988 101.6990012  80.7754997 104.1829988
 102.9660012  81.3974997 103.1579988 101.4740012  82.1794997 102.9669988
 101.8270012  80.8334997 100.8609988 101.8600012  80.1364997 100.0359988
 101.0760012  81.5374997 100.5359988 102.7330012  81.4204997 100.8389988
 100.1300012  79.7654997 102.2369988  99.5360012  80.6144997 101.9299988
  99.7420012  79.5834997 103.2289988  99.8210012  78.9694997 101.5769988
 106.8450012  79.1394997 101.0299988 105.5560012  80.6614997  99.4929988
 104.2370012  79.4244997  97.3079988 105.1710012  79.5684997  96.4269988
 105.9490012  78.6974997  96.0169988 105.2510012  81.0124997  95.9079988
 106.0720012  80.9894997  95.1589988 105.4900012  81.6424997  96.7909988
 103.9780012  81.4114997  95.1389988 103.2200012  81.8964997  95.7909988
 103.5630012  80.5504997  94.5729988 104.1790012  82.4054997  94.0109988
 104.5200012  83.3384997  94.5089988 103.2280012  82.5304997  93.4499988
 105.2480012  82.1284997  92.9739988 106.2400012  81.9524997  93.4409988
 105.3090012  83.1554997  92.5559988 104.7000012  81.0314997  92.0659988
 103.5930012  80.9754997  92.1399988 104.9140012  80.0414997  92.5219988
 105.0570012  81.0824997  90.5999988 104.8100012  82.1244997  90.3049988
 104.4160012  80.4174997  89.9819988 106.5170012  80.9204997  90.2669988
 107.1620012  81.6414997  90.8139988 106.4860012  81.2524997  89.2069988
 106.9430012  79.5574997  90.6069988 107.3400012  79.4164997  91.6229988
 107.0200012  78.5734997  89.7449988 107.1930012  77.5644997  90.1469988
 106.7120012  78.6254997  88.2869988 107.6830012  78.8294997  87.7869988
 105.9930012  79.4264997  88.0129988 106.0960012  77.3124997  87.7219988
 105.3260012  77.0304997  88.4719988 106.9850012  76.6474997  87.7319988
 105.6080012  77.4184997  86.2479988 104.8240012  78.1974997  86.3529988
 105.0420012  76.4904997  86.0189988 106.6480012  77.7474997  85.2149988
 107.3480012  76.8844997  85.2219988 107.1540012  78.6524997  85.6169988
 106.1330012  78.0294997  83.7679988 106.9700012  77.9074997  83.0469988
 105.7560012  79.0514997  83.5479988 105.0500012  77.0284997  83.1789988
 104.8830012  77.2654997  82.1069988 104.0920012  77.2864997  83.6789988
 105.4780012  75.5674997  83.3379988 105.1740012  75.2714997  84.3649988
 106.5770012  75.5934997  83.1749988 104.7000012  74.8214997  82.2919988
 103.6300012  74.8714997  82.5869988 105.1270012  73.7994997  82.3739988
 104.7570012  75.3924997  81.3409988 103.6820012  63.8484997  84.1219988
 104.5170012  64.1424997  83.4509988 104.0770012  63.3234997  85.0179988
 103.2690012  64.8074997  84.5009988 102.6250012  63.0334997  83.4149988
 101.7090012  63.0774997  84.0419988 102.4230012  63.6464997  82.5099988
 103.0250012  61.6194997  83.0419988 102.3400012  61.2044997  82.2719988
 103.9280012  61.7434997  82.4069988 103.2230012  60.6504997  84.1949988
 103.7690012  61.0994997  85.0519988 102.2620012  60.2604997  84.5939988
 104.2060012  59.5844997  83.7749988 103.7400012  58.7974997  83.1439988
 105.0820012  59.9704997  83.2109988 104.7750012  58.7384997  84.9799988
 104.0040012  58.2384997  85.6049988 105.3020012  57.8574997  84.5539988
 105.8800012  59.4604997  85.8229988 106.7970012  59.7574997  85.2689988
 105.4930012  60.3924997  86.2869988 106.4390012  58.5514997  86.9149988
 105.6010012  58.4264997  87.6339988 106.6970012  57.5434997  86.5269988
 107.5930012  59.1654997  87.6789988 108.5750012  58.9584997  87.2009988
 107.4960012  60.2724997  87.6629988 107.6180012  58.6164997  89.0579988
 106.7160012  59.0734997  89.5189988 107.6060012  57.5064997  89.0119988
 108.7100012  59.2074997  89.9729988 108.9230012  58.6564997  90.9139988
 109.6420012  59.1884997  89.3679988 108.4170012  60.6374997  90.4379988
 109.3590012  61.0294997  90.8769988 108.2810012  61.2674997  89.5319988
 107.4270012  60.8674997  91.5729988 107.6280012  61.8914997  91.9529988
 106.4050012  60.7014997  91.1689988 107.6740012  59.9314997  92.7629988
 107.2090012  58.9564997  92.5039988 108.7650012  59.8304997  92.9449988
 107.0910012  60.4474997  94.1459988 106.0030012  60.5854997  93.9639988
 107.2640012  59.6134997  94.8589988 107.8200012  61.7024997  94.5359988
 109.0550012  61.8094997  94.4119988 107.1070012  62.4724997  95.3599988
 107.6830012  63.4654997  96.2369988 108.7730012  63.2774997  96.3429988
 107.5690012  64.4554997  95.7469988 107.0860012  63.4044997  97.6549988
 107.6970012  64.0954997  98.2749988 107.1980012  61.8904997  98.2459988
 106.5980012  61.3084997  97.5139988 108.2210012  61.4554997  98.2179988
 106.6430012  61.7004997  99.5349988 106.6630012  60.2564997 100.1959988
 105.9300012  60.5214997 101.4839988 104.4440012  60.6994997 101.5449988
 103.8730012  60.1934997 100.7379988 104.0800012  60.1634997 102.4479988
 104.2270012  62.2234997 101.6529988 104.4540012  62.7114997 100.7159988
 103.1600012  62.3244997 101.7829988 104.8090012  63.1924997 102.7439988
 106.2390012  63.5794997 102.3319988 106.3000012  64.2524997 101.4899988
 106.7970012  64.0294997 103.1389988 106.7010012  62.6114997 102.2069988
 103.9770012  64.4444997 102.8309988 104.4200012  65.1514997 103.5169988
 103.7230012  64.7934997 101.8409988 103.0370012  64.2464997 103.3239988
 104.9350012  62.6094997 104.0849988 105.2530012  61.5794997 104.1359988
 103.9580012  62.6644997 104.5409988 105.5470012  63.2354997 104.7169988
 105.8510012  59.3124997  99.3499988 108.0540012  59.8824997 100.4269988
 105.6720012  63.8354997  97.6489988 105.3800012  65.0944997  97.5909988
 106.1620012  65.9904997  97.7239988 103.9220012  65.1894997  97.2129988
 103.5240012  66.1624997  97.5709988 103.2640012  64.3754997  97.5869988
 103.7650012  65.2804997  95.6289988 104.5980012  65.8494997  95.1639988
 102.8600012  65.8534997  95.3349988 103.6410012  63.9224997  94.8519988
 102.7390012  63.3944997  95.2309988 104.4600012  63.2294997  95.1419988
 103.6010012  64.0554997  93.2149988 102.7130012  64.6204997  92.8599988
 103.4640012  63.0044997  92.8809988 104.8370012  64.6154997  92.6169988
 105.6580012  63.9244997  92.9029988 104.9640012  65.6374997  93.0329988
 104.7650012  64.6314997  91.1419988 103.7620012  65.0464997  90.9059988
 104.8050012  63.5864997  90.7659988 105.8350012  65.5024997  90.4789988
 105.8560012  66.4984997  90.9719988 105.5680012  65.7234997  89.4229988
 107.1290012  64.8124997  90.5469988 107.4460012  64.5414997  91.5649988
 107.9210012  64.3794997  89.5469988 108.8260012  63.8234997  89.8299988
 107.7970012  64.4954997  88.0309988 107.2070012  65.3974997  87.7629988
 107.2370012  63.6484997  87.5799988 109.1550012  64.6574997  87.4199988
 109.6860012  63.6884997  87.5349988 109.7170012  65.3914997  88.0369988
 109.1830012  65.2774997  86.0099988 110.2400012  65.5024997  85.7519988
 108.7070012  66.2804997  85.9809988 108.6300012  64.4064997  84.9809988
 108.8700012  65.0594997  84.1149988 107.5250012  64.3254997  85.0519988
 109.3780012  63.0934997  84.6409988 108.8930012  62.3724997  85.3339988
 110.4580012  63.2064997  84.8759988 108.9940012  62.5724997  83.2349988
 109.2800012  63.2864997  82.4329988 107.8860012  62.6334997  83.1939988
 109.6960012  61.2524997  82.8619988 109.2210012  60.4864997  83.5109988
 110.7800012  61.1654997  83.0899988 109.4110012  60.8224997  81.4549988
 109.9110012  59.8464997  81.2829988 109.9000012  61.5424997  80.7639988
 108.3450012  60.7274997  81.1569988 101.8060012  52.7644997  83.1129988
 101.2820012  53.2224997  82.2469988 102.4810012  51.9874997  82.6939988
 102.4390012  53.4364997  83.7299988 100.7870012  51.9814997  83.9519988
 100.1700012  52.7564997  84.4549988 100.0520012  51.4894997  83.2799988
 101.5360012  51.1054997  85.0289988 100.6750012  50.7734997  85.6479988
 101.9480012  50.2054997  84.5249988 102.4430012  51.7054997  86.0759988
 102.1090012  52.7534997  86.2339988 102.3390012  51.1624997  87.0399988
 103.9810012  51.6654997  85.7489988 104.3990012  50.6674997  86.0019988
 104.0840012  51.9864997  84.6909988 104.7120012  52.5814997  86.6199988
 105.7760012  52.4894997  86.3139988 104.3400012  53.6044997  86.3999988
 104.6170012  52.3744997  88.1529988 103.5250012  52.5524997  88.2549988
 104.8300012  51.3154997  88.4109988 105.6470012  53.3104997  88.8959988
 106.6130012  52.8864997  88.5459988 105.5620012  54.3404997  88.4889988
 105.3830012  53.3474997  90.4179988 104.2990012  53.3574997  90.6629988
 105.7700012  52.3254997  90.6179988 106.1990012  54.5374997  91.1549988
 107.2710012  54.3424997  90.9399988 105.9480012  55.5494997  90.7719988
 106.0840012  54.4284997  92.7149988 106.3370012  53.4264997  93.1229988
 106.7240012  55.2444997  93.1129988 104.7550012  54.8614997  93.3069988
 104.6690012  55.9644997  93.1989988 103.8260012  54.4594997  92.8489988
 104.5020012  54.6604997  94.8349988 104.3560012  53.6054997  95.1519988
 105.4190012  55.0274997  95.3429988 103.3970012  55.5044997  95.3149988
 103.6840012  56.5774997  95.3299988 102.5420012  55.4444997  94.6079988
 102.9700012  55.0624997  96.7119988 102.3360012  54.1494997  96.6929988
 103.8310012  54.9164997  97.3989988 102.0770012  56.1664997  97.3379988
 101.9610012  57.2894997  96.8369988 101.3160012  55.7214997  98.3779988
 100.4090012  56.7884997  98.9119988 100.8750012  57.7704997  99.1429988
  99.7000012  57.1054997  98.1169988  99.7420012  56.2074997 100.1669988
  98.9090012  56.8354997 100.5489988 100.7620012  56.0244997 101.3639988
 101.0390012  57.0534997 101.6769988 100.1620012  55.6644997 102.2259988
 101.8370012  55.2854997 100.9269988 103.1640012  55.4904997 101.6879988
 103.7490012  54.0104997 101.7639988 103.7160012  53.1504997 100.6179988
 103.7870012  53.6844997  99.6469988 104.5190012  52.3834997 100.6209988
 102.4200012  52.2974997 100.3299988 101.7370012  52.9564997  99.8149988
 102.7230012  51.5934997  99.5699988 101.7980012  51.4124997 101.4859988
 101.2900012  52.3664997 102.5329988 100.9060012  51.9374997 103.4469988
 102.1450012  52.9844997 102.7649988 100.6020012  53.1084997 102.1549988
 100.5880012  50.6634997 101.0039988 100.7940012  49.9774997 100.1959988
 100.1200012  50.1244997 101.8139988  99.8330012  51.3654997 100.6819988
 102.9360012  50.4814997 101.8269988 103.8750012  50.9444997 102.0909988
 103.1480012  49.8154997 101.0039988 102.5570012  49.9194997 102.6689988
 104.1180012  56.2884997 100.9039988 102.8270012  55.9084997 103.0999988
  99.1780012  54.9584997  99.8389988  97.9300012  54.5734997 100.2479988
  97.1630012  55.2414997 100.9479988  97.6570012  53.1084997  99.8539988
  96.6740012  53.0584997  99.3379988  97.6770012  52.4164997 100.7239988
  98.6850012  52.6664997  98.7079988  99.7220012  52.5984997  99.1019988
  98.6520012  53.4434997  97.9149988  98.3170012  51.2944997  98.1149988
  97.2890012  51.2864997  97.6949988  98.5520012  50.4554997  98.8049988
  99.1380012  50.9084997  96.8259988  99.0760012  49.8244997  96.5939988
 100.1200012  50.9824997  97.3399988  98.9430012  51.7794997  95.5759988
  98.2550012  52.6184997  95.8119988  98.6000012  51.0994997  94.7669988
 100.2830012  52.4524997  95.0259988 100.8770012  51.7144997  94.4459988
 100.9380012  52.6104997  95.9089988 100.0650012  53.7144997  94.2329988
 101.0950012  54.1064997  94.0959988  99.4660012  54.4844997  94.7649988
  99.4390012  53.6114997  92.8849988  98.7980012  52.7224997  92.7899988
  99.3480012  54.4434997  91.8359988  98.8390012  54.0684997  90.9359988
  99.9440012  55.8694997  91.8539988 100.4570012  56.1124997  92.8099988
  99.1660012  56.6554997  91.7469988 100.9150012  56.0894997  90.6999988
 101.7330012  55.3384997  90.6429988 101.4770012  57.0404997  90.8179988
 100.2100012  56.0884997  89.3369988  99.6450012  57.0414997  89.2529988
  99.4970012  55.2484997  89.1929988 101.2070012  55.9994997  88.0899988
 101.3980012  54.9164997  87.9329988 102.0490012  56.6504997  88.4069988
 100.5660012  56.4274997  86.7999988 100.2070012  57.4714997  86.9189988
  99.6580012  55.8384997  86.5489988 101.5260012  56.3784997  85.5849988
 101.6700012  55.2944997  85.3889988 102.4710012  56.7994997  85.9899988
 101.0260012  57.1394997  84.4079988 100.0120012  56.7264997  84.2209988
 101.6990012  56.9374997  83.5469988 100.8950012  58.6524997  84.5799988
 101.8710012  59.0954997  84.8739988 100.2080012  59.0064997  85.3779988
 100.6120012  59.0364997  83.5769988  40.0870012  76.0734997  83.6329988
  39.3950012  76.4364997  84.4229988  39.4750012  75.6844997  82.7919988
  40.6870012  76.9034997  83.2019988  40.8620012  74.9684997  84.2259988
  41.4350012  74.4354997  83.4369988  41.7140012  75.3584997  84.8219988
  39.9450012  74.0004997  84.9499988  39.3320012  74.5354997  85.7069988
  39.1640012  73.5784997  84.2819988  40.6620012  72.9284997  85.7969988
  41.1990012  72.2084997  85.1439988  41.3460012  73.4304997  86.5139988
  39.6830012  71.9784997  86.5299988  39.0130012  72.6884997  87.0599988
  39.0510012  71.3124997  85.9039988  40.3440012  71.0384997  87.6019988
  39.6460012  70.2214997  87.8839988  41.0990012  70.4854997  87.0039988
  40.9530012  71.6674997  88.7809988  41.5960012  70.8734997  89.2179988
  41.6150012  72.4814997  88.4139988  40.0090012  72.1314997  89.9559988
  39.2910012  72.8364997  89.4849988  39.4570012  71.2404997  90.3249988
  40.6640012  72.8044997  91.1279988  41.4780012  73.4414997  90.7199988
  39.8910012  73.4654997  91.5769988  41.0310012  71.8324997  92.2149988
  40.0490012  71.4104997  92.5209988  41.7390012  71.0974997  91.7779988
  41.5940012  72.3304997  93.5729988  41.8050012  71.4524997  94.2189988
  42.5720012  72.8204997  93.3779988  40.7250012  73.4224997  94.3469988
  41.4170012  74.1144997  94.8729988  40.1690012  74.0004997  93.5779988
  39.5140012  72.8444997  95.0899988  38.8720012  72.1994997  94.4529988
  39.9710012  72.1324997  95.8099988  38.7690012  73.9454997  95.8249988
  38.2620012  73.4164997  96.6599988  39.6210012  74.5254997  96.2419988
  37.8890012  74.9104997  95.0549988  38.3880012  75.2554997  94.1249988
  37.0220012  74.3094997  94.7059988  37.3290012  76.1094997  95.8979988
  36.3420012  76.7004997  95.6349988  38.2840012  76.4074997  96.8969988
  37.8290012  77.3674997  97.8539988  38.6490012  78.0814997  98.0809988
  37.0930012  78.0794997  97.4219988  37.2470012  76.7604997  99.1149988
  36.7190012  77.4694997  99.7879988  38.2690012  76.0904997 100.0219988
  39.1680012  76.7424997 100.0219988  37.9520012  76.0004997 101.0829988
  38.7480012  74.8174997  99.4509988  39.8020012  73.9774997 100.3189988
  38.8430012  73.7254997 101.5839988  39.3850012  73.0494997 102.7039988
  40.4270012  73.3934997 102.8749988  38.6910012  73.2084997 103.5579988
  39.3320012  71.5204997 102.6479988  39.9870012  71.1654997 101.8659988
  39.6270012  71.0754997 103.5869988  37.9910012  70.7884997 102.4129988
  37.4820012  71.2294997 101.0499988  38.1640012  71.1054997 100.2209988
  36.6150012  70.6154997 100.8549988  37.1150012  72.2384997 101.1649988
  38.3010012  69.3164997 102.3419988  38.4520012  68.9154997 103.3329988
  37.5130012  68.7604997 101.8579988  39.1950012  69.2074997 101.7459988
  36.9760012  71.0974997 103.4369988  36.8420012  72.1584997 103.2869988
  37.3240012  70.8334997 104.4249988  36.0570012  70.6104997 103.1439988
  40.0740012  72.7384997  99.5189988  40.9480012  74.8304997 100.7129988
  36.3380012  75.7434997  98.7409988  35.4430012  75.3314997  99.6479988
  35.3910012  75.5464997 100.8109988  34.3050012  74.6034997  98.9079988
  33.4260012  75.2754997  98.8039988  34.0770012  73.7804997  99.6179988
  34.8760012  73.8814997  97.7299988  35.7630012  73.2664997  97.9919988
  35.2280012  74.6984997  97.0649988  33.9970012  72.7654997  97.1249988
  33.0550012  73.2324997  96.7639988  33.7580012  72.0154997  97.9079988
  34.6220012  71.8934997  96.0249988  34.1970012  70.8864997  95.8279988
  35.6570012  71.6914997  96.3769988  34.7150012  72.6884997  94.6979988
  35.2860012  72.0604997  93.9819988  35.2430012  73.6534997  94.8539988
  33.3810012  73.0724997  94.0709988  32.8720012  73.6594997  94.8659988
  32.8560012  72.1124997  93.8799988  33.4140012  73.7924997  92.6409988
  32.4900012  73.6104997  92.0499988  34.2040012  73.2124997  92.1169988
  33.8270012  75.2304997  92.6839988  33.2520012  75.7844997  93.4399988
  34.8790012  75.9074997  92.0099988  35.1370012  76.9424997  92.2819988
  35.7660012  75.2824997  91.0019988  35.8590012  74.1754997  91.0349988
  36.8150012  75.6344997  91.1039988  35.3820012  75.5374997  89.5889988
  35.4060012  76.6274997  89.3759988  34.3320012  75.2214997  89.4109988
  36.2850012  74.7584997  88.5839988  36.4390012  73.6844997  88.8209988
  37.2910012  75.2304997  88.5839988  35.5720012  74.7254997  87.1819988
  34.5860012  74.2534997  87.3819988  36.1410012  74.1764997  86.4019988
  35.3070012  76.0704997  86.5429988  36.0890012  76.8564997  86.6049988
  34.5320012  76.5114997  87.2049988  34.8910012  76.0004997  85.0209988
  34.3910012  76.9334997  84.6819988  34.1020012  75.2364997  84.8489988
  36.0340012  75.7104997  84.0319988  36.7340012  74.9344997  84.4079988
  36.5390012  76.6864997  83.8699988  35.4960012  75.2124997  82.6879988
  36.2070012  74.6424997  82.0519988  35.3520012  76.0654997  81.9899988
  34.6100012  74.5514997  82.7979988  47.7020012  59.0014997  83.8929988
  47.5010012  57.9134997  83.9969988  48.8100012  59.0884997  83.8949988
  47.2600012  59.3954997  82.9529988  47.1590012  59.7854997  85.0599988
  47.8380012  59.6754997  85.9319988  47.1570012  60.8734997  84.8349988
  45.6800012  59.4284997  85.3369988  45.1000012  59.5044997  84.3929988
  45.6280012  58.3774997  85.6939988  45.0550012  60.1564997  86.5569988
  45.2680012  61.2184997  86.3119988  43.9800012  59.9024997  86.6709988
  45.7880012  59.7644997  87.9049988  46.7800012  59.3444997  87.6359988
  45.9080012  60.7084997  88.4789988  45.0780012  58.5844997  88.6249988
  44.0840012  58.8994997  89.0089988  45.0210012  57.7994997  87.8399988
  45.8280012  57.9354997  89.7589988  46.8810012  58.0094997  89.4149988
  45.6760012  58.4704997  90.7209988  45.4240012  56.4984997  89.9529988
  45.7600012  55.9424997  89.0519988  46.0470012  56.0284997  90.7439988
  43.9530012  56.3024997  90.1869988  43.3280012  56.6554997  89.3399988
  43.8230012  55.2104997  90.3459988  43.3850012  57.0444997  91.4519988
  44.2270012  57.2974997  92.1309988  43.0590012  57.9914997  90.9709988
  42.2850012  56.3624997  92.1809988  41.3920012  56.2634997  91.5279988
  42.4760012  55.2914997  92.4059988  41.9320012  57.2064997  93.4729988
  41.6500012  58.2094997  93.0859988  40.9540012  56.7884997  93.7949988
  42.9010012  57.2544997  94.5899988  43.6000012  58.0564997  94.2689988
  42.3780012  57.6304997  95.4959988  43.6970012  56.0094997  94.9139988
  43.0900012  55.1014997  95.1189988  44.3160012  55.7974997  94.0169988
  44.6760012  56.2714997  96.1349988  45.3290012  57.1604997  96.0029988
  44.0320012  56.3964997  97.0309988  45.6720012  55.1974997  96.2219988
  45.9110012  54.3654997  95.3949988  46.1890012  55.2924997  97.4759988
  47.4280012  54.6134997  97.7319988  47.3240012  54.1344997  98.7289988
  47.7980012  53.9074997  96.9579988  48.4890012  55.6894997  97.8229988
  49.3700012  55.2284997  98.3189988  48.2070012  56.8284997  98.8849988
  47.9060012  56.3944997  99.8619988  49.2510012  57.1394997  99.1049988
  47.2280012  57.7664997  98.5539988  47.2160012  59.0724997  99.4139988
  46.7170012  58.6014997 100.8109988  45.4600012  57.9474997 100.9149988
  44.7480012  58.2044997 100.1009988  45.5790012  56.8434997 100.9309988
  44.6870012  58.3104997 102.2139988  44.2910012  59.2824997 101.9619988
  43.8120012  57.6834997 102.2979988  45.3310012  58.3264997 103.6099988
  45.8790012  56.9664997 103.9529988  45.0330012  56.3294997 104.1619988
  46.4480012  56.5244997 103.1479988  46.4870012  57.0384997 104.8429988
  46.4740012  59.2014997 103.7499988  46.8040012  59.2714997 104.7759988
  47.2400012  58.7394997 103.1449988  46.3240012  60.1974997 103.3599988
  44.2980012  58.8524997 104.4999988  44.7380012  59.0054997 105.4739988
  43.4790012  58.1764997 104.7009988  43.8550012  59.7344997 104.0619988
  48.6180012  59.5544997  99.6579988  46.2460012  60.0054997  98.8029988
  48.6880012  56.4084997  96.5729988  49.6860012  56.0104997  95.8639988
  50.4200012  55.0354997  96.0939988  49.8830012  56.9544997  94.6609988
  50.9800012  57.1134997  94.7359988  49.2370012  57.8514997  94.7779988
  49.5740012  56.3154997  93.2219988  48.5800012  55.8214997  93.1609988
  50.2850012  55.4704997  93.1009988  49.7700012  57.3554997  92.0659988
  50.5210012  58.0954997  92.4149988  48.8540012  57.9534997  91.8699988
  50.4890012  56.9304997  90.7989988  51.2160012  56.0964997  90.9029988
  51.2610012  57.7154997  90.6449988  49.5640012  56.8154997  89.6109988
  48.9370012  57.7264997  89.5039988  48.9300012  55.9044997  89.6519988
  50.3900012  56.5804997  88.3389988  51.0260012  55.6704997  88.3749988
  51.0460012  57.4424997  88.0899988  49.4330012  56.5384997  87.1619988
  49.9800012  56.4734997  86.1979988  48.8990012  57.5114997  87.0989988
  48.5080012  55.3894997  87.2219988  47.5910012  55.4164997  87.8299988
  48.7500012  54.1604997  86.6729988  48.1300012  53.2644997  86.8229988
  50.0210012  53.7464997  85.9739988  50.8740012  54.0084997  86.6349988
  50.1640012  54.3424997  85.0469988  50.0640012  52.2644997  85.5899988
  49.7640012  51.6554997  86.4689988  51.0620012  51.9584997  85.2099988
  48.9870012  51.7464997  84.5369988  48.0380012  52.1984997  84.8949988
  48.9510012  50.6464997  84.3809988  49.2150012  52.2834997  83.1009988
  50.2810012  52.0204997  82.9319988  49.0730012  53.3844997  83.0819988
  48.2940012  51.6954997  82.0659988  48.0770012  50.6664997  82.4229988
  48.8790012  51.6574997  81.1219988  47.0010012  52.5474997  81.6959988
  47.3510012  53.5494997  81.3659988  46.4540012  52.8304997  82.6199988
  46.0560012  51.8444997  80.7069988  45.5540012  50.9884997  81.2059988
  46.5940012  51.4794997  79.8069988  44.9730012  52.7934997  80.0869988
  45.3000012  53.8544997  80.0639988  44.0040012  52.8444997  80.6279988
  44.8160012  52.4384997  79.0459988  62.6950012  35.4784997  84.3169988
  62.1500012  36.0604997  83.5429988  62.2470012  34.4624997  84.3099988
  63.7520012  35.3634997  83.9929988  62.6800012  36.1174997  85.6859988
  62.9490012  37.1804997  85.5049988  61.6910012  36.0094997  86.1799988
  63.6490012  35.4254997  86.6229988  63.5770012  34.3224997  86.7319988
  64.6930012  35.5344997  86.2569988  63.7920012  36.1714997  87.9979988
  62.8440012  36.1244997  88.5769988  64.5490012  35.5634997  88.5379988
  64.3640012  37.6244997  87.8279988  65.2640012  37.5494997  87.1809988
  63.5970012  38.2664997  87.3439988  64.7710012  38.3204997  89.1649988
  64.0680012  38.1874997  90.0139988  65.6670012  37.7634997  89.5139988
  65.1550012  39.8624997  88.9969988  66.0460012  39.8454997  88.3339988
  64.2490012  40.3674997  88.5999988  65.4930012  40.5614997  90.2749988
  66.2760012  40.0494997  90.8749988  65.9050012  41.5554997  89.9979988
  64.1510012  40.8144997  91.0769988  63.4640012  41.3554997  90.3919988
  63.7110012  39.8354997  91.3619988  64.4090012  41.5994997  92.3809988
  65.0680012  40.9204997  92.9629988  64.9590012  42.5644997  92.3819988
  63.1450012  41.6884997  93.2749988  62.9900012  42.7404997  93.5959988
  62.2570012  41.4554997  92.6489988  63.2380012  40.6204997  94.3119988
  63.5910012  39.6304997  93.9529988  63.9030012  41.0414997  95.0959988
  61.8800012  40.1464997  94.9519988  61.3320012  41.1024997  95.0959988
  61.2710012  39.5154997  94.2709988  61.8560012  39.6174997  96.3529988
  61.9070012  40.4364997  97.1009988  60.8790012  39.0974997  96.4589988
  63.0190012  38.6524997  96.5339988  63.0770012  38.0804997  95.5829988
  63.9270012  39.2264997  96.8179988  62.4620012  37.7834997  97.6539988
  61.7470012  38.1144997  98.5829988  62.9770012  36.5664997  97.5229988
  62.6810012  35.5354997  98.4419988  61.7890012  35.7334997  99.0749988
  62.5030012  34.5834997  97.8969988  63.9310012  35.2624997  99.3329988
  63.6490012  34.4024997  99.9779988  64.2600012  36.4074997 100.2339988
  63.3280012  36.9714997 100.4519988  64.7400012  35.9814997 101.1409988
  65.1750012  37.2704997  99.6079988  66.0930012  38.2704997 100.3059988
  65.1250012  39.1534997 101.1489988  64.3990012  40.1924997 100.5599988
  64.9670012  41.1274997 100.7549988  64.2840012  40.1824997  99.4549988
  63.0350012  40.3814997 101.2479988  62.7170012  41.3954997 101.0599988
  62.2980012  39.7474997 100.7769988  62.9490012  40.2064997 102.7739988
  63.9090012  41.2284997 103.4649988  63.6320012  42.2634997 103.3269988
  63.9200012  41.0414997 104.5289988  64.9330012  41.0394997 103.1799988
  61.5560012  40.4454997 103.2659988  61.4620012  40.1154997 104.2899988
  61.1640012  41.4304997 103.0579988  60.8840012  39.7184997 102.8339988
  63.3730012  38.8574997 103.1689988  63.6200012  38.9014997 104.2189988
  64.2360012  38.4474997 102.6649988  62.5160012  38.2184997 103.0169988
  66.8520012  37.5154997 101.3049988  66.7970012  39.1084997  99.3309988
  65.0240012  34.9384997  98.4319988  66.1090012  34.3414997  98.9389988
  66.1900012  33.9994997 100.1099988  67.1300012  34.1584997  97.8419988
  67.0880012  33.0624997  97.6639988  68.1190012  34.4594997  98.2469988
  66.9440012  34.8844997  96.4959988  65.9580012  34.7284997  96.0089988
  67.7220012  34.5064997  95.7989988  67.1520012  36.4374997  96.7089988
  68.1450012  36.7394997  97.1049988  66.2790012  36.6094997  97.3749988
  66.9500012  37.3744997  95.5009988  67.1240012  38.4154997  95.8489988
  65.9090012  37.2704997  95.1269988  67.9230012  37.2254997  94.3469988
  67.9560012  36.1534997  94.0569988  68.9110012  37.4384997  94.8079988
  67.5930012  38.1314997  93.1509988  67.6170012  39.1974997  93.4659988
  66.5310012  38.0024997  92.8519988  68.6880012  37.9844997  92.0789988
  69.6790012  38.0884997  92.5699988  68.4730012  38.7504997  91.3039988
  68.6320012  36.6654997  91.3879988  68.6160012  35.7484997  91.9959988
  68.8000012  36.4114997  90.0829988  68.8120012  35.3754997  89.7149988
  69.1300012  37.4254997  88.9899988  70.0660012  37.0404997  88.5319988
  69.2330012  38.4904997  89.2899988  68.0560012  37.4644997  87.8129988
  67.2290012  37.8544997  88.4459988  67.8900012  36.4654997  87.3579988
  68.4540012  38.5484997  86.6939988  69.3830012  38.2184997  86.1809988
  68.7280012  39.3884997  87.3679988  67.4620012  38.9314997  85.6339988
  67.9160012  39.7934997  85.1009988  66.5700012  39.3844997  86.1179988
  67.1990012  37.7474997  84.6829988  66.6860012  36.8674997  85.1249988
  68.2110012  37.3604997  84.4399988  66.4810012  38.3114997  83.4859988
  67.0470012  39.2144997  83.1739988  65.4950012  38.6974997  83.8229988
  66.5110012  37.1594997  82.3929988  65.8650012  36.2954997  82.6569988
  67.5300012  36.7514997  82.2239988  65.9710012  37.5534997  80.9899988
  65.0520012  38.1564997  81.1489988  65.8040012  36.6514997  80.3629988
  66.6520012  38.2574997  80.4669988  38.8920012 105.0264997  84.1769988
  39.7130012 104.8874997  83.4419988  38.9760012 105.9464997  84.7939988
  38.0010012 105.1204997  83.5209988  38.7750012 103.7304997  85.0579988
  38.0030012 103.0884997  84.5819988  39.7490012 103.2454997  85.2819988
  38.1850012 104.0134997  86.4059988  38.6870012 104.8624997  86.9169988
  37.1550012 104.4164997  86.3019988  38.1950012 102.8814997  87.3799988
  39.2890012 102.7494997  87.5239988  37.8090012 103.0874997  88.4019988
  37.4990012 101.6174997  86.8989988  38.0290012 101.1234997  86.0559988
  37.3750012 101.0124997  87.8219988  36.0520012 101.8534997  86.2909988
  36.1770012 102.4744997  85.3779988  35.7620012 100.8694997  85.8649988
  35.0560012 102.3254997  87.3479988  35.4110012 102.2024997  88.3939988
  34.7900012 103.3754997  87.1039988  33.7270012 101.5524997  87.3359988
  33.3660012 101.3894997  86.2979988  33.7750012 100.5494997  87.8119988
  32.6100012 102.3604997  88.0709988  32.4720012 103.3414997  87.5689988
  31.7070012 101.7254997  87.9439988  32.7560012 102.6174997  89.5659988
  32.8760012 101.5884997  89.9659988  33.5730012 103.3434997  89.7649988
  31.5420012 103.4124997  90.1239988  31.5010012 104.4504997  89.7289988
  30.6280012 102.8604997  89.8149988  31.3190012 103.4024997  91.6539988
  30.3330012 103.8084997  91.9669988  31.2020012 102.3244997  91.8969988
  32.4790012 103.9324997  92.4329988  33.4610012 103.5384997  92.0949988
  32.4960012 105.0004997  92.1289988  32.2950012 103.7954997  93.9589988
  32.5920012 104.7024997  94.5279988  31.1970012 103.6974997  94.0949988
  33.0690012 102.5224997  94.4319988  32.5690012 102.1664997  95.3589988
  33.0110012 101.7384997  93.6459988  34.5600012 102.7494997  94.8309988
  35.2600012 103.5954997  94.2999988  34.9590012 101.7634997  95.5289988
  36.3700012 101.5464997  95.6289988  36.4040012 100.4974997  95.9929988
  36.9710012 101.6704997  94.7029988  37.0870012 102.3064997  96.7759988
  38.1680012 102.0504997  96.7949988  36.3610012 101.8644997  98.1099988
  35.7800012 100.9204997  98.0399988  37.1390012 101.7884997  98.8999988
  35.2930012 102.8134997  98.4489988  35.6400012 103.7494997  99.7259988
  35.7470012 102.5514997 100.7469988  34.6080012 101.8074997 101.3409988
  33.6740012 102.4084997 101.3589988  34.4430012 100.9524997 100.6489988
  34.7900012 101.3654997 102.8419988  34.7750012 102.3354997 103.3169988
  33.9800012 100.6634997 102.9719988  36.0400012 100.6434997 103.2799988
  36.2280012  99.4804997 102.2899988  37.0680012  98.8344997 102.4969988
  35.3280012  98.8884997 102.3679988  36.3390012  99.8654997 101.2869988
  37.2230012 101.5294997 103.1949988  37.2180012 102.2174997 104.0279988
  38.0920012 100.9204997 103.3989988  37.3410012 102.1294997 102.3049988
  35.9350012 100.0684997 104.6399988  35.2050012  99.2804997 104.7509988
  35.6500012 100.8394997 105.3399988  36.8160012  99.5744997 105.0219988
  36.9150012 104.4044997  99.6189988  34.4910012 104.5454997 100.0519988
  36.9530012 103.7194997  96.6149988  37.7240012 104.2804997  95.7929988
  38.5720012 103.7524997  95.0479988  37.4600012 105.7704997  95.7939988
  38.0890012 106.1834997  96.6119988  36.3920012 106.0114997  95.9829988
  38.0330012 106.4234997  94.4949988  39.0590012 106.0344997  94.3239988
  38.2360012 107.5134997  94.5789988  37.1060012 106.0504997  93.3679988
  36.0490012 105.9634997  93.7009988  37.3150012 105.0614997  92.9069988
  37.0480012 107.2064997  92.3389988  38.0730012 107.3094997  91.9239988
  36.8000012 108.1204997  92.9199988  36.0560012 106.9404997  91.2189988
  35.8390012 107.8804997  90.6669988  35.1270012 106.4964997  91.6359988
  36.5330012 105.9064997  90.1329988  36.4820012 104.8584997  90.4969988
  37.6040012 106.1814997  90.0229988  35.8190012 106.0384997  88.8679988
  36.1090012 105.2324997  88.1599988  36.1760012 106.9604997  88.3599988
  34.3250012 106.0534997  89.0959988  33.9270012 105.7004997  90.0589988
  33.4940012 106.4344997  88.1649988  32.4180012 106.5464997  88.3619988
  33.8320012 106.9554997  86.7729988  34.7890012 107.5204997  86.7779988
  33.0840012 107.6954997  86.4159988  34.1170012 106.0754997  85.5409988
  34.9370012 105.4914997  86.0109988  34.4950012 106.6994997  84.7029988
  32.9450012 105.1714997  85.0069988  32.4820012 105.7554997  84.1829988
  32.2090012 104.7864997  85.7449988  33.5660012 103.8444997  84.3499988
  32.7890012 103.1694997  83.9319988  34.0670012 103.2114997  85.1139988
  34.5390012 103.9884997  83.1619988  35.4750012 104.2934997  83.6769988
  34.2090012 104.8114997  82.4919988  34.8560012 102.7534997  82.3649988
  34.0360012 102.6304997  81.6249988  34.8650012 102.0114997  83.1919988
  36.2180012 102.7484997  81.6499988  37.0170012 102.9194997  82.4019988
  36.2970012 103.4294997  80.7759988  36.5080012 101.3614997  81.0409988
  37.2480012 101.3904997  80.2129988  35.6070012 101.0044997  80.4979988
  36.9230012 100.6994997  81.8309988  99.7910012  85.8134997  81.4589988
 100.6150012  86.2604997  80.8629988  99.2690012  86.6344997  81.9949988
  99.0360012  85.3434997  80.7939988 100.4380012  84.8194997  82.4129988
  99.6570012  84.2824997  82.9919988 100.9750012  84.1414997  81.7149988
 101.2330012  85.4374997  83.5879988 102.2150012  85.7334997  83.1599988
 100.7670012  86.2994997  84.1099988 101.4960012  84.3854997  84.7069988
 100.4440012  84.2974997  85.0529988 101.9480012  83.4774997  84.2529988
 102.4300012  84.8494997  85.8409988 102.6550012  84.0264997  86.5519988
 103.4410012  85.1294997  85.4739988 101.8820012  86.1254997  86.6329988
 102.7030012  86.4394997  87.3119988 101.6530012  86.9254997  85.8969988
 100.6490012  85.7584997  87.4759988  99.7470012  85.7964997  86.8289988
 100.7080012  84.7914997  88.0189988 100.4090012  86.6954997  88.6739988
 101.3400012  86.6914997  89.2789988 100.5010012  87.7114997  88.2339988
  99.0340012  86.4454997  89.4269988  98.1640012  86.7764997  88.8209988
  98.9340012  85.3614997  89.6489988  98.7280012  87.2734997  90.7849988
  97.7460012  86.9524997  91.1909988  99.5740012  87.0574997  91.4719988
  98.6120012  88.8114997  90.5459988  99.5710012  89.2304997  90.1719988
  97.8500012  88.9194997  89.7449988  98.1550012  89.6134997  91.7929988
  97.9720012  90.6604997  91.4689988  97.2020012  89.0684997  91.9629988
  99.0990012  89.4614997  92.9459988  98.9670012  88.4064997  93.2669988
 100.1380012  89.6314997  92.5909988  98.5650012  90.3734997  94.0829988
  98.6820012  91.4364997  93.7799988  97.4590012  90.2724997  94.1189988
  99.1900012  90.1764997  95.4739988 100.2900012  90.2914997  95.5779988
  98.6990012  90.9444997  96.1109988  98.7540012  88.8374997  96.1279988
  97.7880012  88.6174997  96.8489988  99.7070012  87.9974997  95.8349988
  99.5880012  86.6664997  96.1539988  98.8310012  86.5314997  96.9559988
  99.2560012  86.0944997  95.2609988 100.8780012  86.0264997  96.7399988
 100.7560012  84.9304997  96.6069988 101.0980012  86.4104997  98.1729988
 100.1190012  86.6744997  98.6269988 101.4760012  85.5374997  98.7479988
 102.0060012  87.4764997  98.3679988 101.7500012  88.7764997  99.2789988
 102.0350012  88.2134997 100.7249988 102.4490012  89.1454997 101.6429988
 103.3910012  89.6244997 101.3009988 101.6650012  89.9194997 101.7839988
 102.6800012  88.5624997 103.0699988 103.7310012  88.3264997 103.1519988
 102.4840012  89.3724997 103.7569988 101.8240012  87.3854997 103.6349988
 102.1780012  86.0784997 102.9089988 103.1990012  85.7894997 103.1119988
 101.5320012  85.2714997 103.2209988 102.0950012  86.2424997 101.8449988
 102.1880012  87.3084997 105.0579988 101.8820012  88.2084997 105.5719988
 101.6870012  86.5004997 105.5699988 103.2650012  87.2324997 105.0599988
 100.3360012  87.6004997 103.5489988 100.1580012  88.4704997 104.1639988
  99.8360012  86.8254997 104.1119988 100.0720012  87.6734997 102.5049988
 102.8250012  89.7124997  98.8099988 100.3990012  89.2414997  99.1339988
 101.9930012  86.2824997  95.8899988 103.1600012  85.7194997  96.1329988
 103.4680012  84.8884997  96.9729988 104.0760012  86.3474997  95.0039988
 103.5270012  87.1904997  94.5329988 104.0450012  85.5284997  94.2539988
 105.4370012  86.6634997  95.6729988 106.1510012  86.7424997  94.8249988
 105.7410012  85.7884997  96.2869988 105.4080012  87.9154997  96.5529988
 106.3810012  88.2864997  96.9409988 104.8740012  87.4894997  97.4279988
 104.5600012  89.1584997  96.0989988 104.5720012  89.9874997  96.8399988
 103.5220012  88.8294997  95.8779988 105.0570012  89.8554997  94.8269988
 105.4410012  89.0964997  94.1129988 105.9580012  90.4844997  94.9879988
 103.9730012  90.7544997  94.2189988 103.4930012  91.2524997  95.0889988
 103.1750012  90.0904997  93.8239988 104.3370012  91.8354997  93.2029988
 104.8810012  92.6304997  93.7549988 103.4250012  92.2884997  92.7579988
 105.2330012  91.3694997  92.0599988 106.3000012  91.5004997  92.2939988
 104.9270012  90.7364997  90.8869988 105.6610012  90.5734997  90.0839988
 103.5570012  90.2814997  90.4159988 102.8610012  91.1134997  90.6529988
 103.3060012  89.4094997  91.0569988 103.3540012  90.0204997  88.9079988
 102.3660012  89.5134997  88.9229988 104.1760012  89.3764997  88.5289988
 103.2420012  91.3474997  88.0899988 104.1270012  91.9904997  88.2839988
 102.2640012  91.8444997  88.2639988 103.3040012  91.0844997  86.5829988
 103.0420012  92.0804997  86.1659988 102.6330012  90.2464997  86.2949988
 104.6770012  90.6784997  85.9309988 105.0570012  89.7774997  86.4579988
 105.4110012  91.4754997  86.1729988 104.5510012  90.3364997  84.4159988
 103.8760012  89.4664997  84.2709988 105.5540012  89.9254997  84.1729988
 104.2240012  91.5044997  83.5609988 104.8300012  92.4094997  83.7809988
 103.2070012  91.9144997  83.7409988 104.3860012  91.1694997  82.0219988
 103.7570012  90.2944997  81.7539988 105.4240012  90.9294997  81.7079988
 104.1240012  92.0224997  81.3599988  45.2420012 107.2514997  84.3599988
  44.7170012 106.3464997  83.9829988  46.3030012 107.0124997  84.5859988
  45.3130012 107.9374997  83.4889988  44.5410012 107.9454997  85.4999988
  45.0890012 108.8054997  85.9409988  43.5500012 108.3454997  85.1949988
  44.2560012 106.9684997  86.6659988  43.7850012 106.0454997  86.2629988
  45.1840012 106.6084997  87.1599988  43.3040012 107.4334997  87.7389988
  43.0940012 108.4884997  87.4609988  42.3210012 106.9164997  87.7689988
  43.8660012 107.2054997  89.1839988  44.8740012 107.6554997  89.3119988
  43.2430012 107.7534997  89.9219988  43.9510012 105.7184997  89.6289988
  44.7570012 105.1624997  89.1039988  44.2840012 105.6754997  90.6879988
  42.6100012 105.0114997  89.5379988  42.5120012 104.8934997  88.4379988
  42.7870012 104.0004997  89.9609988  41.4490012 105.6394997  90.3299988
  41.3280012 106.6504997  89.8859988  40.4930012 105.1334997  90.0759988
  41.5490012 105.4264997  91.8869988  42.5190012 105.7824997  92.2939988
  40.7230012 106.0314997  92.3199988  41.2060012 103.9834997  92.2409988
  40.5370012 103.5704997  91.4559988  42.0640012 103.2774997  92.2239988
  40.5850012 103.8504997  93.5979988  39.7300012 104.5574997  93.5359988
  40.2920012 102.7864997  93.7279988  41.4660012 104.1644997  94.7969988
  41.5070012 105.2754997  94.7789988  40.7480012 103.9704997  95.6219988
  42.8180012 103.5294997  94.9889988  43.4460012 103.8484997  94.1289988
  43.3270012 104.0224997  95.8449988  42.9100012 101.9594997  94.9809988
  42.2940012 101.4504997  95.7529988  42.2910012 101.7114997  94.0929988
  44.2910012 101.2854997  94.8709988  44.2680012 100.1814997  94.7509988
  44.7200012 101.7204997  93.9429988  45.2210012 101.4784997  96.0959988
  45.0850012 100.8254997  97.1209988  46.1410012 102.3184997  95.7499988
  46.9030012 102.7364997  96.8369988  46.9370012 102.0634997  97.7199988
  47.9720012 102.8184997  96.5479988  46.4280012 104.0414997  97.5059988
  47.1470012 104.3634997  98.2889988  45.1530012 104.0104997  98.3879988
  44.3130012 103.5134997  97.8549988  45.2940012 103.3844997  99.2939988
  44.6300012 105.2664997  98.7399988  44.9790012 105.9724997 100.1479988
  43.8460012 105.5294997 101.1469988  42.4980012 105.6964997 100.9229988
  42.2560012 105.4834997  99.8599988  41.8610012 105.0034997 101.5139988
  42.1010012 107.0984997 101.4639988  42.8630012 107.7054997 100.9979988
  41.1300012 107.4414997 101.1379988  42.0450012 107.5694997 102.9629988
  41.1080012 106.5154997 103.6639988  41.0130012 106.6714997 104.7289988
  40.1040012 106.6464997 103.2889988  41.3660012 105.5264997 103.3149988
  43.4100012 107.6904997 103.6699988  43.9080012 106.7314997 103.6839988
  44.0400012 108.4484997 103.2289988  43.3160012 108.0204997 104.6939988
  41.4860012 108.9474997 102.9669988  42.1610012 109.6364997 102.4819988
  41.1250012 109.2334997 103.9439988  40.5540012 109.0034997 102.4239988
  46.2240012 105.4004997 100.5949988  44.9330012 107.4334997  99.9009988
  46.3070012 105.0374997  96.4139988  47.4970012 105.6034997  96.0749988
  48.5890012 105.3204997  96.5769988  47.2780012 106.7844997  95.1719988
  48.2240012 107.2644997  94.8419988  46.7000012 107.4924997  95.8039988
  46.4350012 106.3944997  93.9259988  46.0200012 107.3924997  93.6679988
  45.6260012 105.6674997  94.1529988  47.2360012 105.8734997  92.6569988
  48.0800012 106.5474997  92.3979988  46.5730012 105.7864997  91.7709988
  47.9220012 104.5354997  92.9049988  47.2180012 103.7654997  93.2879988
  48.7650012 104.7214997  93.6039988  48.6820012 103.9574997  91.6819988
  49.3980012 103.1664997  91.9939988  49.3710012 104.7274997  91.2729988
  47.8170012 103.4764997  90.4889988  47.0730012 104.1814997  90.0589988
  47.1580012 102.6974997  90.9279988  48.4530012 102.6974997  89.3629988
  49.4090012 102.3234997  89.7869988  48.6910012 103.3974997  88.5349988
  47.6310012 101.5434997  88.8279988  47.5260012 100.7944997  89.6269988
  47.0560012 101.4364997  87.6049988  46.5020012 100.5254997  87.3359988
  47.0830012 102.4494997  86.5239988  47.3340012 101.8444997  85.6269988
  47.8840012 103.2024997  86.6859988  45.7440012 103.1274997  86.3029988
  46.1280012 104.0674997  85.8529988  45.2530012 103.5764997  87.1919988
  44.7330012 102.5114997  85.3539988  43.9290012 102.2314997  86.0669988
  45.1820012 101.6264997  84.8529988  44.2140012 103.4964997  84.2919988
  44.9910012 103.7574997  83.5419988  43.7860012 104.3714997  84.8259988
  43.0220012 102.8784997  83.5809988  43.4590012 102.1164997  82.9009988
  42.6020012 103.6084997  82.8569988  41.8990012 102.2864997  84.4419988
  41.5560012 103.0044997  85.2169988  42.3150012 101.4174997  84.9959988
  40.7020012 101.8464997  83.6119988  40.9440012 100.8514997  83.1819988
  40.5540012 102.5014997  82.7269988  39.4710012 101.7814997  84.5489988
  39.4070012 102.8144997  84.9539988  39.6520012 101.0974997  85.4059988
  38.5310012 101.5014997  84.0259988  52.8150012  45.4324997  84.8959988
  53.4430012  44.5164997  84.8609988  52.3190012  45.5044997  83.9049988
  52.0140012  45.2324997  85.6399988  53.5300012  46.7304997  85.3469988
  54.4690012  46.9174997  84.7829988  52.7420012  47.4814997  85.1199988
  53.8980012  46.7894997  86.8789988  53.6160012  47.8004997  87.2419988
  53.2570012  46.0264997  87.3709988  55.4400012  46.6104997  87.1859988
  55.6940012  45.5294997  87.2199988  56.0120012  47.1354997  86.3909988
  55.7070012  47.2664997  88.6119988  55.5620012  48.3664997  88.5429988
  55.0620012  46.7484997  89.3529988  57.1950012  46.9064997  89.0349988
  57.7150012  47.8484997  89.3139988  57.2620012  46.3004997  89.9639988
  58.1570012  46.2684997  88.0279988  57.6870012  45.3904997  87.5379988
  58.3450012  46.9664997  87.1849988  59.5810012  45.8124997  88.3969988
  60.1480012  45.7204997  87.4459988  60.1190012  46.5954997  88.9729988
  59.6690012  44.4324997  89.1739988  59.2490012  43.6394997  88.5199988
  60.7190012  44.1914997  89.4449988  58.8440012  44.3254997  90.4779988
  58.7020012  45.2604997  91.0619988  57.8090012  44.0054997  90.2329988
  59.4070012  43.2444997  91.3829988  59.4710012  42.2684997  90.8569988
  60.4580012  43.5454997  91.5829988  58.5140012  43.1624997  92.6359988
  57.8370012  44.0314997  92.7839988  57.8620012  42.2804997  92.4579988
  59.2980012  43.2544997  93.9559988  59.9610012  42.3784997  94.1179988
  59.8090012  44.2364997  94.0589988  58.3490012  43.0364997  95.1349988
  57.6270012  43.8784997  95.1759988  57.7090012  42.1824997  94.8239988
  59.0370012  42.9034997  96.5159988  58.1930012  42.8054997  97.2309988
  59.7590012  42.0764997  96.6879988  59.7650012  44.2624997  96.8899988
  60.9150012  44.4424997  96.6319988  58.8800012  45.1424997  97.3639988
  59.3740012  46.4324997  97.6619988  60.4820012  46.4704997  97.7399988
  59.1080012  47.0374997  96.7689988  58.7200012  46.9964997  98.9779988
  59.0530012  48.0124997  99.2809988  58.9470012  46.0464997 100.1119988
  58.4650012  45.1114997  99.7549988  60.0580012  46.0294997 100.0839988
  58.6170012  46.5564997 101.4159988  57.0560012  46.4994997 101.8969988
  56.3500012  45.3694997 101.0049988  56.3400012  44.0084997 101.3319988
  57.3270012  43.5474997 101.1159988  56.1150012  43.8184997 102.4029988
  55.2410012  43.2904997 100.5539988  55.3610012  43.6624997  99.5479988
  55.5130012  42.2544997 100.4189988  53.7820012  43.3604997 101.1449988
  53.3030012  44.7874997 101.2329988  53.8810012  45.3874997 101.9209988
  53.2520012  45.1964997 100.2349988  52.2760012  44.8174997 101.5669988
  52.9000012  42.5754997 100.1949988  51.8910012  42.5184997 100.5749988
  52.8740012  42.9514997  99.1819988  53.2520012  41.5694997 100.0229988
  53.7240012  42.7274997 102.4949988  53.9880012  41.6924997 102.3379988
  52.7300012  42.8034997 102.9099988  54.4440012  43.1384997 103.1869988
  57.0630012  46.0844997 103.2949988  56.3880012  47.7504997 101.6149988
  57.2770012  47.0644997  98.8729988  56.7530012  47.7854997  97.9189988
  57.4100012  48.5804997  97.1879988  55.2240012  47.5674997  97.7949988
  54.7310012  48.2254997  98.5429988  54.8440012  46.5304997  97.9189988
  54.6870012  48.0084997  96.3509988  54.8710012  49.0974997  96.2339988
  53.5860012  48.1014997  96.4629988  55.1060012  47.1254997  95.2129988
  56.2080012  46.9904997  95.2349988  54.8820012  47.7274997  94.3069988
  54.3400012  45.8224997  95.0919988  53.3020012  46.1534997  94.8739988
  54.3030012  45.1554997  95.9789988  54.8290012  44.9304997  93.9859988
  55.9220012  44.7304997  93.9849988  54.6900012  45.4814997  93.0309988
  54.1150012  43.5564997  93.8479988  53.0260012  43.7484997  93.9539988
  54.4420012  42.8324997  94.6249988  54.3450012  42.8744997  92.4989988
  53.9520012  41.8374997  92.5569988  55.4520012  42.7874997  92.4789988
  53.6310012  43.7064997  91.4369988  52.8170012  44.3594997  91.7849988
  54.0050012  43.9324997  90.1689988  53.5400012  44.6994997  89.5319988
  55.3220012  43.4174997  89.5379988  56.0500012  43.0484997  90.2919988
  55.8990012  44.2834997  89.1469988  55.2790012  42.2714997  88.4849988
  54.5530012  42.5904997  87.7069988  54.9250012  41.3464997  88.9879988
  56.6700012  42.0524997  87.8649988  57.1050012  41.4414997  88.6849988
  57.2320012  42.9864997  87.6499988  56.7150012  41.3064997  86.5749988
  56.1460012  40.3604997  86.6929988  57.7970012  41.1394997  86.3849988
  56.0630012  42.1104997  85.3069988  55.0600012  42.4634997  85.6299988
  56.0530012  41.3924997  84.4589988  56.8870012  43.3554997  84.8469988
  57.8430012  42.8884997  84.5259988  57.0430012  44.0614997  85.6909988
  56.3180012  43.9804997  83.6399988  55.2230012  44.0994997  83.7859988
  56.3940012  43.3044997  82.7619988  56.9230012  45.3364997  83.3049988
  58.0230012  45.2114997  83.2089988  56.6110012  46.0794997  84.0689988
  56.3260012  45.5944997  82.4039988  71.9840012  34.3214997  82.9129988
  72.6150012  34.1234997  82.0199988  71.3550012  35.2294997  82.7909988
  71.4360012  33.3604997  83.0089988  72.8250012  34.5684997  84.2209988
  72.2220012  34.3444997  85.1269988  73.6870012  33.8684997  84.2699988
  73.3590012  36.0014997  84.3759988  73.9840012  35.9894997  85.2949988
  73.9490012  36.2874997  83.4779988  72.2580012  37.0184997  84.4339988
  71.7660012  37.2724997  83.4709988  71.4550012  36.4694997  84.9709988
  72.6110012  38.3424997  85.1349988  73.2720012  38.7824997  84.3589988
  71.6000012  38.7814997  84.9949988  73.0440012  38.2344997  86.6139988
  74.0980012  37.8844997  86.6069988  73.1320012  39.2814997  86.9759988
  72.2880012  37.2994997  87.5289988  71.1990012  37.5174997  87.5609988
  72.2900012  36.2594997  87.1369988  72.7780012  37.1304997  88.9859988
  73.5380012  36.3234997  88.9069988  73.1190012  38.0804997  89.4489988
  71.7250012  36.5334997  89.9199988  70.8320012  37.1904997  89.8449988
  71.5140012  35.4874997  89.6119988  72.1040012  36.5274997  91.4199988
  71.9590012  37.5524997  91.8229988  71.3990012  35.9014997  92.0069988
  73.5450012  36.0254997  91.6599988  73.5160012  34.9154997  91.6659988
  74.3400012  36.2444997  90.9159988  73.9560012  36.2464997  93.0949988
  73.1440012  35.8984997  93.7679988  74.8500012  35.6144997  93.2839988
  74.2220012  37.7024997  93.4309988  74.9590012  38.1874997  92.7549988
  73.2860012  38.3004997  93.4209988  74.8450012  38.0274997  94.7729988
  75.7490012  37.4364997  95.0329988  75.0980012  39.1084997  94.8359988
  73.9570012  37.6854997  95.9909988  73.9200012  36.6124997  96.2769988
  74.3600012  38.1634997  96.9089988  72.4650012  38.1874997  95.8889988
  72.0190012  39.3154997  95.9579988  71.6850012  37.1224997  95.6699988
  70.2210012  37.1534997  95.6589988  70.0180012  38.2034997  95.3589988
  69.8560012  36.6084997  94.7619988  69.6080012  36.8164997  97.0209988
  68.5360012  37.1064997  97.0429988  70.3700012  37.5634997  98.2209988
  70.5510012  38.6214997  97.9339988  69.6600012  37.6364997  99.0729988
  71.6550012  36.9164997  98.5409988  72.1410012  36.8084997  99.9729988
  71.0690012  36.0054997 100.8049988  71.1520012  34.5754997 100.6159988
  70.1840012  34.2064997 100.2139988  71.8560012  34.2044997  99.8409988
  71.4570012  33.8574997 101.9269988  71.3050012  32.8004997 101.7649988
  72.5000012  34.0064997 102.1629988  70.6140012  34.2204997 103.1099988
  70.5130012  33.1484997 104.1609988  71.3770012  32.5054997 104.2519988
  70.2900012  33.7154997 105.0519988  69.6200012  32.5864997 103.9329988
  71.3490012  35.4224997 103.7959988  70.7300012  35.7754997 104.6069988
  72.3120012  35.0174997 104.0699988  71.4240012  36.1034997 102.9609988
  69.2040012  34.6474997 102.6719988  68.8560012  33.8564997 102.0239988
  69.2830012  35.5234997 102.0449988  68.6350012  34.6644997 103.5899988
  73.3930012  36.0884997 100.0829988  72.2340012  38.1794997 100.4979988
  69.6720012  35.4374997  97.3349988  69.0330012  34.5914997  96.6349988
  68.1250012  34.7784997  95.8959988  69.7330012  33.2544997  96.8459988
  69.4150012  32.7354997  97.7759988  70.8270012  33.4104997  96.9549988
  69.6630012  32.3684997  95.5669988  68.5780012  32.2284997  95.3729988
  70.0910012  31.3984997  95.8999988  70.5010012  32.9024997  94.3789988
  71.6030012  32.9014997  94.5229988  70.1840012  33.9534997  94.2069988
  70.3050012  32.1254997  93.1169988  70.4690012  31.0364997  93.2619988
  71.0580012  32.4614997  92.3729988  69.0120012  32.4484997  92.3299988
  68.1910012  32.0344997  92.9539988  69.1120012  31.7994997  91.4329988
  68.8020012  33.9134997  91.8349988  69.6770012  34.1924997  91.2099988
  68.8590012  34.5814997  92.7209988  67.4790012  34.0524997  90.9819988
  66.7660012  33.2274997  91.1899988  67.6580012  33.8634997  89.9019988
  66.9090012  35.4664997  91.1009988  66.1470012  35.5954997  91.8829988
  67.1360012  36.4974997  90.2459988  66.4440012  37.3414997  90.3809988
  67.9900012  36.5844997  88.9969988  68.9920012  36.1754997  89.2459988
  68.1740012  37.6314997  88.6739988  67.4630012  35.7844997  87.6789988
  66.6140012  36.2304997  87.1189988  66.9580012  34.8734997  88.0679988
  68.6560012  35.5254997  86.7709988  69.2680012  34.7554997  87.2859988
  69.2410012  36.4514997  86.5889988  68.3070012  35.1514997  85.3209988
  69.2390012  35.1674997  84.7159988  67.5680012  35.8824997  84.9289988
  67.6510012  33.8314997  85.2839988  67.1720012  33.6944997  84.2909988
  66.8310012  33.8004997  86.0329988  68.5880012  32.6664997  85.4469988
  69.0800012  32.7344997  86.4409988  69.4640012  32.7624997  84.7699988
  67.9290012  31.3644997  85.0379988  67.3480012  31.4634997  84.0959988
  67.1500012  31.2314997  85.8179988  68.7480012  30.1154997  85.0669988
  69.6830012  30.1424997  84.4679988  68.1880012  29.2174997  84.7289988
  69.0930012  29.8504997  86.0899988  77.4550012 108.2104997  82.7729988
  76.9600012 107.4064997  82.1869988  77.9180012 108.8394997  81.9829988
  76.7120012 108.8554997  83.2879988  78.5620012 107.7044997  83.7249988
  79.0760012 106.9544997  83.0869988  79.2940012 108.4824997  84.0319988
  78.0540012 106.9194997  84.9149988  78.8750012 106.4294997  85.4809988
  77.6850012 107.6004997  85.7109988  76.9350012 105.8524997  84.6209988
  76.0190012 106.3774997  84.2729988  77.3390012 105.2164997  83.8049988
  76.5690012 104.8274997  85.7659988  77.4180012 104.2454997  86.1849988
  76.1860012 105.4484997  86.6039988  75.4280012 103.8764997  85.3769988
  74.5280012 104.5274997  85.3519988  75.7070012 103.5704997  84.3459988
  75.1730012 102.6914997  86.3669988  74.8770012 101.8134997  85.7539988
  76.0780012 102.3374997  86.9069988  73.9850012 102.8684997  87.2909988
  73.0810012 103.0184997  86.6629988  73.7150012 101.9594997  87.8709988
  73.9770012 104.0344997  88.3039988  74.7330012 103.7374997  89.0619988
  74.1850012 105.0514997  87.9099988  72.6000012 104.1294997  88.9179988
  71.8570012 104.3734997  88.1279988  72.3550012 103.1324997  89.3429988
  72.4250012 105.2034997  90.0139988  73.1560012 104.8554997  90.7739988
  72.7450012 106.2084997  89.6649988  70.9890012 105.2874997  90.6969988
  70.2790012 105.6404997  89.9189988  70.8570012 104.2474997  91.0639988
  71.0470012 106.3494997  91.7779988  71.1890012 107.3564997  91.3309988
  70.0280012 106.3464997  92.2199988  72.0750012 105.9804997  92.9169988
  71.8250012 104.9504997  93.2519988  73.1110012 105.9704997  92.5159988
  72.0770012 106.8724997  94.1309988  72.5770012 107.8394997  93.9119988
  71.0380012 107.1694997  94.3909988  72.9010012 106.2764997  95.2769988
  73.8540012 105.5494997  95.1229988  72.2780012 106.4664997  96.4429988
  72.8250012 105.7594997  97.5709988  72.0380012 105.3194997  98.2199988
  73.3740012 104.8354997  97.2869988  73.7670012 106.7314997  98.3849988
  74.3660012 106.0334997  99.0089988  73.0560012 107.7894997  99.2989988
  73.8180012 108.5774997  99.4809988  72.2130012 108.2494997  98.7409988
  72.5650012 107.0844997 100.4299988  73.0690012 107.3934997 101.9019988
  74.6100012 107.1064997 101.8389988  75.2210012 105.8294997 101.7179988
  75.6200012 105.5274997 102.7099988  74.4210012 105.2064997 101.2639988
  76.4500012 105.9354997 100.7709988  76.8910012 104.9494997 100.7859988
  76.3180012 106.0724997  99.7079988  77.5810012 106.9554997 101.0879988
  77.1640012 108.3234997 100.8079988  77.3650012 108.5864997  99.7799988
  76.1280012 108.5934997 100.9499988  77.7580012 108.9314997 101.4749988
  78.0710012 106.9164997 102.5009988  77.2020012 107.1704997 103.0899988
  78.3950012 105.9444997 102.8419988  78.8280012 107.6774997 102.6149988
  78.7290012 106.6974997 100.0999988  79.1350012 105.7064997 100.2409988
  79.5830012 107.3284997 100.2979988  78.3300012 106.9744997  99.1349988
  72.7810012 108.8244997 102.1409988  72.3930012 106.4824997 102.8839988
  74.5680012 107.5254997  97.4829988  75.7600012 107.1084997  97.1609988
  76.2330012 105.9664997  97.3889988  76.6210012 108.1814997  96.4179988
  76.6290012 109.1444997  96.9709988  76.1870012 108.4874997  95.4419988
  78.1000012 107.8974997  96.1329988  78.6040012 108.0104997  97.1159988
  78.4100012 108.7494997  95.4909988  78.4200012 106.6034997  95.3749988
  78.2480012 105.7264997  96.0359988  79.4930012 106.7004997  95.1069988
  77.6160012 106.3604997  94.0099988  77.7930012 107.2604997  93.3829988
  76.5310012 106.3424997  94.2469988  77.9060012 105.0714997  93.2279988
  77.7600012 104.2614997  93.9729988  78.9570012 104.8914997  92.9129988
  76.9170012 105.0714997  92.0949988  75.9790012 104.8084997  92.6279988
  77.0380012 104.1594997  91.4729988  76.8060012 106.3404997  91.2049988
  76.6860012 107.2684997  91.8039988  75.7810012 106.3874997  90.7789988
  77.8300012 106.5144997  90.1259988  78.2820012 105.5964997  89.7219988
  78.1930012 107.7604997  89.7359988  78.9680012 107.9284997  88.9739988
  77.5740012 109.0514997  90.3049988  78.0950012 109.9044997  89.8199988
  77.7200012 109.1124997  91.4039988  76.0940012 109.3174997  89.7459988
  75.7240012 110.3044997  90.0959988  75.4780012 108.5974997  90.3259988
  76.0380012 109.1004997  88.2499988  76.1720012 108.0254997  88.0019988
  76.9150012 109.6714997  87.8769988  74.7190012 109.5984997  87.5009988
  74.8880012 109.8114997  86.4239988  74.4070012 110.5094997  88.0549988
  73.6620012 108.4814997  87.6509988  73.4260012 108.1794997  88.6939988
  74.2010012 107.6074997  87.2259988  72.4040012 108.6534997  86.9509988
  72.7330012 108.8644997  85.9109988  71.8080012 109.5194997  87.3119988
  71.5060012 107.4584997  87.0019988  71.2640012 107.2234997  88.0599988
  71.9430012 106.5794997  86.4819988  70.2110012 107.7594997  86.2689988
  70.4820012 107.9604997  85.2099988  69.6890012 108.5944997  86.7839988
  69.5950012 106.8354997  86.2899988  55.9870012 107.7754997  84.0049988
  57.0510012 107.9244997  84.2889988  55.6560012 108.7594997  83.6089988
  55.8700012 107.0794997  83.1469988  55.1630012 107.3464997  85.1499988
  54.0850012 107.5214997  84.9439988  55.2830012 106.2504997  85.2879988
  55.5440012 108.0254997  86.4389988  54.8030012 107.8884997  87.2559988
  56.4620012 107.4784997  86.7429988  55.9910012 109.4914997  86.3909988
  56.7170012 109.7814997  85.6019988  54.9780012 109.9424997  86.3189988
  56.6740012 109.9704997  87.7129988  57.7390012 109.6534997  87.7179988
  56.5360012 111.0704997  87.7859988  56.0160012 109.4484997  89.0469988
  54.9410012 109.7044997  88.9389988  56.1360012 108.3494997  89.1569988
  56.4660012 110.3144997  90.2669988  56.6100012 111.3534997  89.9019988
  55.6230012 110.3474997  90.9889988  57.6670012 109.7324997  91.0779988
  57.4730012 109.7774997  92.1709988  57.6980012 108.6314997  90.9279988
  58.9660012 110.4944997  90.8259988  59.7850012 109.9934997  91.3859988
  59.1660012 110.4404997  89.7339988  59.1420012 112.0154997  91.3489988
  60.1290012 112.3274997  90.9449988  58.4260012 112.6794997  90.8169988
  59.1810012 112.2094997  92.8679988  58.9900012 113.2904997  93.0379988
  58.2740012 111.6624997  93.2059988  60.3990012 111.5894997  93.5409988
  60.3300012 110.4834997  93.4619988  61.4070012 111.8594997  93.1579988
  60.4710012 111.8554997  95.0639988  61.3860012 111.3564997  95.4489988
  60.5450012 112.9554997  95.1999988  59.2520012 111.3824997  95.7979988
  59.3460012 111.7474997  96.8429988  58.4290012 111.9554997  95.3209988
  59.0460012 109.8704997  95.8949988  59.2640012 109.5044997  94.8689988
  59.6400012 109.3744997  96.6929988  57.5820012 109.5144997  96.1389988
  56.8270012 109.3414997  95.2009988  57.2640012 109.3534997  97.4099988
  55.8850012 109.0444997  97.5909988  55.3310012 109.9864997  97.7859988
  55.5860012 108.3374997  96.7879988  55.5660012 108.0174997  98.7829988
  54.4600012 107.9744997  98.8739988  56.0600012 108.5164997 100.2249988
  56.9260012 109.2054997 100.1219988  55.2670012 109.1684997 100.6489988
  56.3620012 107.4094997 101.1329988  57.0220012 107.8044997 102.4819988
  58.5560012 108.0134997 102.1029988  59.2490012 106.9004997 101.4519988
  59.8970012 106.4694997 102.2459988  58.5640012 106.1134997 101.0719988
  60.0710012 107.3214997 100.1629988  60.5090012 106.4084997  99.7879988
  59.3980012 107.7094997  99.4129988  61.1820012 108.2944997 100.5159988
  62.2170012 108.2944997  99.4319988  62.9970012 109.0164997  99.6249988
  62.6410012 107.3064997  99.3339988  61.7540012 108.5654997  98.4939988
  60.6920012 109.6724997 100.7359988  59.8390012 109.8934997 100.1109988
  60.4150012 109.6564997 101.7789988  61.4920012 110.3984997 100.7279988
  61.9430012 107.9214997 101.7999988  62.8370012 108.5184997 101.9099988
  62.1440012 106.8674997 101.9159988  61.3240012 108.2354997 102.6279988
  56.4880012 109.0164997 103.0529988  57.0000012 106.5874997 103.3099988
  56.0320012 106.7434997  98.2999988  55.3770012 105.6964997  98.7389988
  54.4400012 105.7164997  99.5159988  55.9600012 104.4924997  98.1569988
  55.6500012 103.7184997  98.8919988  57.0670012 104.4084997  98.1689988
  55.5600012 104.0994997  96.7429988  54.4860012 103.8164997  96.7779988
  56.0730012 103.1364997  96.5339988  55.8030012 105.1964997  95.6689988
  55.2420012 106.1374997  95.8569988  55.4750012 104.7334997  94.7129988
  57.2740012 105.6874997  95.5099988  57.8570012 104.7904997  95.8099988
  57.5810012 106.5024997  96.1999988  57.5220012 106.0734997  94.0859988
  57.0060012 107.0404997  93.9079988  57.1260012 105.2814997  93.4149988
  59.0350012 106.1734997  93.7239988  59.4270012 107.1034997  94.1879988
  59.2540012 106.4224997  92.6629988  59.8490012 104.8564997  94.0419988
  59.6690012 104.6034997  95.1079988  60.9260012 105.0394997  93.8419988
  59.3790012 103.7044997  93.1919988  58.4680012 103.2274997  93.5829988
  59.9420012 103.1244997  92.1429988  59.2740012 102.3894997  91.6709988
  61.2270012 103.4354997  91.3679988  61.8110012 102.4904997  91.3269988
  61.7470012 104.2554997  91.9069988  61.1650012 103.7854997  89.9349988
  60.7020012 102.9124997  89.4259988  62.2130012 103.7684997  89.5669988
  60.4190012 105.0454997  89.5299988  60.7250012 105.8754997  90.2029988
  59.3230012 104.8844997  89.6109988  60.6840012 105.4454997  88.1129988
  60.7740012 104.5654997  87.4399988  61.6670012 105.9464997  87.9799988
  59.4470012 106.1404997  87.3289988  58.8900012 106.7534997  88.0699988
  58.7590012 105.3454997  86.9689988  59.9230012 107.0624997  86.2379988
  60.5440012 107.8224997  86.7569988  59.0740012 107.6254997  85.7949988
  60.6700012 106.5134997  85.0679988  61.4440012 105.8854997  85.5589988
  61.1140012 107.2594997  84.3749988  59.8500012 105.5644997  84.2029988
  60.4940012 104.9414997  83.5449988  59.0460012 106.1194997  83.6739988
  59.2330012 105.0194997  84.9499988  83.4100012 103.2044997  81.3489988
  82.9060012 103.9554997  80.7039988  83.3600012 102.2104997  80.8549988
  84.4770012 103.4384997  81.5519988  82.6500012 103.1514997  82.7219988
  82.2560012 104.1764997  82.8949988  81.8070012 102.4324997  82.6409988
  83.4870012 102.4804997  83.8989988  83.6460012 101.4244997  83.5929988
  84.4530012 103.0294997  83.8819988  82.8070012 102.7474997  85.2859988
  81.9360012 102.1074997  85.5399988  83.5540012 102.4034997  86.0329988
  82.5700012 104.2654997  85.4809988  83.5550012 104.7804997  85.4819988
  81.7920012 104.6314997  84.7769988  81.8800012 104.5804997  86.8969988
  81.9040012 105.6904997  86.8839988  80.8090012 104.2844997  86.8909988
  82.5170012 103.8584997  88.0959988  82.4150012 102.7544997  88.1759988
  83.6150012 103.9404997  87.9479988  82.0000012 104.3894997  89.4439988
  82.7840012 104.0824997  90.1689988  81.8750012 105.4924997  89.4069988
  80.6870012 103.8774997  89.9339988  80.0180012 103.6974997  89.0659988
  80.8730012 102.8364997  90.2729988  80.0480012 104.8574997  90.9109988
  79.9570012 105.8764997  90.4779988  79.0450012 104.3974997  91.0339988
  80.8200012 104.9644997  92.2439988  81.7350012 105.5814997  92.1069988
  80.0870012 105.4424997  92.9279988  81.3230012 103.6644997  92.8009988
  80.8210012 102.6954997  92.5889988  82.3190012 103.4844997  92.3419988
  81.6870012 103.8004997  94.3459988  82.4600012 104.5604997  94.5899988
  80.7540012 104.0134997  94.9119988  82.2120012 102.4474997  94.8579988
  81.3880012 101.7034997  94.8889988  83.0040012 102.1764997  94.1269988
  82.6860012 102.4974997  96.3079988  83.2280012 103.4664997  96.2829988
  81.8390012 102.5854997  97.0219988  83.7620012 101.3974997  96.7059988
  83.6880012 100.2144997  96.4159988  84.7750012 102.0094997  97.3909988
  85.8220012 101.1384997  97.8179988  85.5390012 100.7244997  98.8089988
  85.9070012 100.2794997  97.1179988  87.0910012 102.0124997  97.9779988
  88.0160012 101.4104997  98.1089988  86.9390012 102.9374997  99.2969988
  86.6880012 102.2644997 100.1449988  87.8160012 103.5914997  99.4929988
  85.9270012 103.8734997  99.0069988  85.1030012 104.5674997 100.1729988
  84.5170012 103.3534997 100.9509988  83.3540012 102.5974997 100.5769988
  82.6400012 103.2164997  99.9929988  83.5260012 101.6754997  99.9819988
  82.6120012 102.1714997 101.8329988  81.6880012 101.7644997 101.4479988
  83.2200012 101.4334997 102.3359988  82.1520012 103.1854997 102.9159988
  81.4990012 104.3484997 102.2329988  80.5450012 104.0044997 101.8619988
  81.4510012 105.2154997 102.8739988  82.1150012 104.6404997 101.3949988
  81.1840012 102.5514997 103.8769988  81.6600012 101.7974997 104.4859988
  80.7870012 103.3114997 104.5329988  80.4180012 102.0554997 103.2989988
  83.3230012 103.5274997 103.8549988  84.2310012 103.8644997 103.3759988
  83.6410012 102.6724997 104.4329988  83.0940012 104.2974997 104.5769988
  86.0620012 105.1574997 101.1149988  83.9950012 105.3854997  99.6449988
  87.2530012 102.7964997  96.8379988  87.6120012 102.3224997  95.6879988
  88.1000012 101.2504997  95.4169988  87.5900012 103.4614997  94.6149988
  88.4190012 103.3024997  93.8929988  87.8000012 104.4454997  95.0849988
  86.3090012 103.5374997  93.7249988  86.3820012 104.4474997  93.0909988
  85.4090012 103.6754997  94.3619988  86.0450012 102.2904997  92.8749988
  85.6220012 101.4354997  93.4449988  87.0670012 101.9734997  92.5779988
  85.2580012 102.5274997  91.6059988  85.8770012 102.9394997  90.7799988
  84.4800012 103.2814997  91.8499988  84.4890012 101.2554997  91.1029988
  83.5870012 101.6244997  90.5699988  83.9750012 100.6754997  91.8999988
  85.3790012 100.4424997  90.2259988  86.3490012 100.2844997  90.7439988
  85.5920012 100.9504997  89.2599988  84.8780012  99.0754997  89.8349988
  84.2730012  99.2804997  88.9259988  84.1670012  98.6914997  90.5959988
  85.7470012  97.8714997  89.5009988  86.3250012  97.4784997  90.3509988
  85.8870012  97.3474997  88.2229988  86.6560012  96.5714997  88.0909988
  85.1630012  97.9914997  87.0109988  84.1800012  98.4954997  87.1309988
  84.9870012  97.2004997  86.2509988  86.0210012  99.2084997  86.4739988
  86.1720012  99.8654997  87.3569988  85.3200012  99.7464997  85.8009988
  87.3520012  98.8824997  85.7539988  87.1140012  98.8814997  84.6689988
  87.8430012  97.9484997  86.1019988  88.2950012 100.1164997  85.9919988
  89.3070012 100.0294997  85.5419988  88.5810012 100.0444997  87.0629988
  87.6630012 101.4704997  85.6309988  86.9380012 101.7544997  86.4239988
  87.1160012 101.3714997  84.6679988  88.7760012 102.4484997  85.4169988
  89.5430012 102.0644997  84.7109988  89.2620012 102.7904997  86.3559988
  88.1520012 103.6354997  84.6319988  87.3620012 104.1444997  85.2229988
  87.7930012 103.2254997  83.6639988  89.1350012 104.8204997  84.4079988
  90.1850012 104.4764997  84.2879988  89.0780012 105.5494997  85.2439988
  88.8750012 105.4474997  83.5289988  36.6210012  64.0924997  80.9619988
  35.5210012  64.2414997  80.9409988  36.8570012  64.1514997  79.8779988
  37.0690012  65.0264997  81.3639988  37.0830012  62.8774997  81.5669988
  36.6520012  61.9634997  81.1039988  38.1910012  62.8084997  81.5279988
  36.7550012  62.7534997  83.0619988  37.1470012  63.4784997  83.8069988
  35.6440012  62.7674997  83.0589988  37.2330012  61.3724997  83.5919988
  37.2480012  60.5424997  82.8529988  38.2890012  61.3684997  83.9359988
  36.3760012  60.8194997  84.8459988  35.3270012  60.6604997  84.5169988
  36.7640012  59.8044997  85.0799988  36.2500012  61.7384997  86.0749988
  36.2430012  62.7654997  85.6509988  35.3000012  61.4634997  86.5809988
  37.4680012  61.6574997  87.0479988  37.5540012  60.6134997  87.4189988
  38.3990012  61.8444997  86.4709988  37.2830012  62.5944997  88.3059988
  38.2240012  62.9014997  88.8109988  36.8190012  63.4614997  87.7879988
  36.2100012  61.9474997  89.3359988  35.8740012  62.7994997  89.9649988
  35.3860012  61.4774997  88.7559988  36.8780012  60.9844997  90.2519988
  36.1850012  60.3344997  90.8289988  37.4960012  60.2834997  89.6509988
  37.8190012  61.3944997  91.4279988  38.7350012  61.8754997  91.0239988
  37.3010012  62.1914997  92.0039988  38.2030012  60.4214997  92.5229988
  38.9860012  60.8594997  93.1779988  37.3910012  60.2174997  93.2529988
  38.6550012  59.0814997  91.9899988  37.8220012  58.3564997  91.8689988
  39.1090012  59.3514997  91.0129988  39.8630012  58.4454997  92.8149988
  40.4600012  57.7474997  92.1899988  40.5830012  59.2664997  93.0209988
  39.5850012  57.8124997  94.1709988  38.6190012  57.3214997  93.9259988
  40.3400012  57.0494997  94.4569988  39.4210012  58.8004997  95.2959988
  38.4610012  59.4874997  95.4289988  40.4920012  58.6354997  96.0889988
  40.3580012  59.1194997  97.4109988  39.3320012  59.4294997  97.7009988
  40.7110012  58.2574997  98.0169988  41.2770012  60.3434997  97.6519988
  42.3230012  59.9974997  97.5139988  41.0720012  60.8064997  99.1179988
  41.4230012  59.9764997  99.7679988  41.6980012  61.6744997  99.4159988
  39.7240012  61.0934997  99.4549988  38.9830012  62.4374997  99.2669988
  38.6630012  62.7384997 100.7539988  38.9630012  61.7944997 101.8859988
  38.6060012  60.7694997 101.6489988  40.0540012  61.6984997 102.0719988
  38.4330012  62.3804997 103.2779988  37.3970012  62.1224997 103.4399988
  39.0500012  61.9254997 104.0389988  38.6270012  63.8144997 103.4879988
  37.5280012  64.6644997 102.7669988  36.5590012  64.4264997 103.1819988
  37.8060012  65.6514997 103.1039988  37.5330012  64.6404997 101.6869988
  38.5430012  64.0814997 104.9929988  37.7030012  63.4534997 105.2519988
  39.3990012  63.6024997 105.4469988  38.3810012  65.1144997 105.2619988
  40.0790012  64.1814997 102.9929988  40.2270012  63.9144997 101.9569988
  40.7750012  63.7064997 103.6679988  40.3360012  65.2204997 103.1369988
  39.8770012  63.4974997  98.6819988  37.6370012  62.2304997  98.6189988
  40.9820012  61.3894997  96.7069988  41.9050012  62.2334997  96.3789988
  43.1280012  62.1204997  96.6669988  41.2870012  63.4234997  95.7009988
  40.7680012  64.0494997  96.4579988  40.5270012  63.1364997  94.9429988
  42.2740012  64.3694997  95.0549988  43.0600012  64.7064997  95.7649988
  41.7010012  65.2744997  94.7609988  42.9450012  63.8604997  93.7759988
  43.5020012  62.9214997  93.9809988  43.7190012  64.5754997  93.4229988
  41.9500012  63.5564997  92.5759988  41.2000012  64.3764997  92.5869988
  41.4340012  62.5934997  92.7789988  42.5000012  63.4094997  91.1289988
  43.2310012  62.5754997  91.1999988  42.9420012  64.3974997  90.8819988
  41.4260012  62.8404997  90.2339988  40.6460012  63.6264997  90.1469988
  41.1000012  61.8934997  90.7149988  41.8910012  62.5264997  88.7929988
  42.3700012  63.3874997  88.2789988  40.9700012  62.2424997  88.2409988
  42.8610012  61.3984997  88.6579988  43.9030012  61.7054997  88.8299988
  42.5950012  60.0964997  88.3439988  43.4170012  59.3794997  88.4829988
  41.3430012  59.3944997  88.0119988  40.4410012  60.0154997  88.1969988
  41.2150012  58.5104997  88.6729988  41.2940012  58.8374997  86.6199988
  40.4530012  58.1394997  86.4169988  42.2580012  58.3104997  86.4569988
  41.2290012  59.9374997  85.5729988  41.8080012  60.8394997  85.8659988
  40.1650012  60.2564997  85.5609988  41.5600012  59.5254997  84.0729988
  41.1730012  60.3224997  83.4019988  40.8800012  58.6634997  83.9029988
  43.0340012  59.2314997  83.7099988  43.1330012  59.1914997  82.6039988
  43.3240012  58.2614997  84.1669988  44.0130012  60.3174997  84.2009988
  45.0200012  60.0054997  83.8469988  44.0370012  60.5014997  85.2959988
  43.7070012  61.7924997  83.6779988  44.3870012  62.5704997  84.0859988
  42.6980012  62.0494997  84.0649988  43.7690012  62.0034997  82.1449988
  44.7440012  61.7234997  81.6929988  43.6780012  63.1044997  82.0209988
  42.9570012  61.4324997  81.6459988  23.6420012  92.2364997  80.7449988
  22.7570012  92.3064997  81.4119988  23.8430012  91.1434997  80.7579988
  23.4800012  92.5264997  79.6849988  24.7460012  92.9474997  81.5919988
  25.6570012  93.1354997  80.9839988  24.3610012  93.9514997  81.8719988
  25.3730012  92.1364997  82.8159988  25.9930012  92.8744997  83.3689988
  24.5160012  91.7754997  83.4229988  26.2810012  90.9934997  82.4369988
  25.7660012  90.4464997  81.6189988  27.2270012  91.4124997  82.0319988
  26.7580012  90.0354997  83.5829988  25.7980012  89.5894997  83.9189988
  27.4170012  89.2224997  83.2089988  27.3490012  90.6984997  84.8839988
  28.1530012  91.4434997  84.7009988  26.4650012  91.1704997  85.3629988
  28.0160012  89.7264997  85.7469988  27.3610012  88.8604997  85.9849988
  28.8490012  89.2084997  85.2249988  28.7320012  90.3574997  86.9959988
  29.5030012  91.0214997  86.5499988  27.9340012  90.8564997  87.5859988
  29.4090012  89.2214997  87.8769988  28.8440012  88.2654997  87.8309988
  30.4570012  88.9944997  87.5879988  29.4300012  89.6964997  89.2919988
  30.0660012  90.6044997  89.3689988  28.4680012  90.0624997  89.7109988
  30.1430012  88.8134997  90.3429988  29.7110012  87.7914997  90.2869988
  31.2460012  88.8664997  90.2139988  29.8440012  89.3224997  91.8149988
  30.0960012  90.4034997  91.8049988  28.7650012  89.3314997  92.0829988
  30.7820012  88.6294997  92.8529988  30.3670012  87.6044997  92.9559988
  31.7330012  88.5624997  92.2829988  30.9210012  89.2864997  94.2849988
  29.9840012  89.3954997  94.8719988  31.4990012  88.5364997  94.8659988
  31.6740012  90.6334997  94.2259988  32.7460012  90.4044997  94.0429988
  31.2870012  91.2194997  93.3649988  31.3460012  91.5234997  95.4279988
  31.1540012  92.7264997  95.2549988  31.1910012  90.8024997  96.4799988
  30.3950012  91.2284997  97.6219988  30.6500012  90.5384997  98.4539988
  30.7030012  92.2534997  97.9209988  28.8890012  91.2934997  97.2729988
  28.8300012  91.8334997  96.3029988  27.9590012  91.9074997  98.3519988
  28.2660012  92.9524997  98.5719988  26.9350012  91.8574997  97.9229988
  28.0290012  91.0424997  99.4669988  28.1710012  91.6894997 100.8769988
  28.1740012  90.4834997 101.8939988  27.0020012  89.8854997 102.4909988
  27.1970012  89.5054997 103.5169988  26.1220012  90.5604997 102.5569988
  26.6810012  88.5754997 101.7199988  25.6900012  88.3634997 102.0939988
  26.6450012  88.9454997 100.7059988  27.6500012  87.3964997 101.8609988
  29.0630012  87.7844997 101.3839988  29.4860012  88.4504997 102.1219988
  29.7380012  86.9474997 101.2899988  28.9740012  88.3214997 100.4509988
  27.7710012  87.0424997 103.2769988  27.7710012  85.9694997 103.4039988
  28.7170012  87.4244997 103.6329988  27.0220012  87.4994997 103.9059988
  27.2070012  86.2594997 101.0699988  26.2120012  85.9864997 101.3889988
  27.8050012  85.3634997 101.1569988  27.2660012  86.5254997 100.0249988
  29.4940012  92.3054997 100.9589988  27.0400012  92.5814997 101.1809988
  28.3880012  89.9244997  96.9579988  27.3380012  89.7264997  96.1549988
  26.8530012  90.5004997  95.3529988  26.9210012  88.2724997  96.3209988
  26.6740012  88.1454997  97.3969988  27.7950012  87.6234997  96.0999988
  25.6760012  87.9264997  95.4439988  25.0490012  88.8374997  95.5429988
  25.1460012  86.9804997  95.6859988  26.1220012  87.8144997  93.9579988
  26.7790012  88.6594997  93.6619988  25.2230012  88.0164997  93.3379988
  26.5970012  86.4614997  93.4799988  25.7660012  85.7654997  93.7239988
  27.4810012  86.1874997  94.0949988  27.0890012  86.3064997  92.0609988
  27.5060012  85.2774997  92.0079988  27.9650012  86.9564997  91.8509988
  26.0370012  86.5734997  91.0619988  25.6060012  87.5974997  91.0729988
  25.2110012  85.8634997  91.2799988  26.5410012  86.2934997  89.6229988
  27.3120012  87.0624997  89.4029988  25.6970012  86.4144997  88.9109988
  26.8640012  84.8174997  89.4149988  26.0970012  84.0704997  89.6669988
  27.8840012  84.3854997  88.6799988  27.9030012  83.2914997  88.5709988
  28.9360012  85.1604997  87.9419988  29.9530012  84.7384997  88.0909988
  28.9980012  86.1894997  88.3589988  28.6200012  85.2224997  86.4259988
  27.6230012  85.6934997  86.2949988  28.6310012  84.1664997  86.0799988
  29.6640012  86.0154997  85.6089988  30.5640012  85.3664997  85.5689988
  30.0030012  86.9744997  86.0569988  29.2010012  86.1374997  84.0949988
  28.4380012  86.9134997  83.8669988  28.8380012  85.2074997  83.6079988
  30.3710012  86.6004997  83.2189988  30.0370012  86.8004997  82.1779988
  31.0930012  85.7594997  83.1559988  31.1050012  87.7534997  83.7659988
  31.9530012  87.3984997  84.3899988  30.3810012  88.3324997  84.3779988
  31.8570012  88.5434997  82.7539988  31.0590012  88.9314997  82.0859988
  32.5160012  87.8344997  82.2099988  32.4830012  89.8354997  83.3059988
  33.3500012  89.7684997  83.9969988  31.7110012  90.5254997  83.7089988
  32.8620012  90.3584997  82.4019988 113.7710012  76.1244997  85.2869988
 114.1880012  75.9424997  84.2729988 114.4600012  75.6614997  86.0249988
 113.6910012  77.2304997  85.3509988 112.4000012  75.4904997  85.3549988
 111.7290012  75.8454997  84.5439988 112.5610012  74.4124997  85.1379988
 111.7300012  75.5924997  86.7009988 110.7320012  75.1194997  86.8199988
 112.3380012  75.0314997  87.4419988 111.4920012  77.0184997  87.2359988
 112.4490012  77.5644997  87.3789988 110.8300012  77.6334997  86.5889988
 110.8240012  76.8824997  88.6489988 110.3800012  77.8354997  89.0099988
 109.9200012  76.2744997  88.4329988 111.7350012  76.3754997  89.7889988
 111.9590012  75.2944997  89.6579988 112.6640012  76.9814997  89.8329988
 111.0280012  76.3774997  91.1439988 110.4270012  77.2834997  91.3709988
 110.2940012  75.5464997  91.0729988 112.0170012  76.0814997  92.3239988
 111.3840012  75.7424997  93.1719988 112.7310012  75.3224997  91.9409988
 112.7140012  77.3954997  92.7339988 113.2030012  77.9944997  91.9369988
 111.8570012  78.0254997  93.0529988 113.6330012  77.2374997  93.9299988
 113.1700012  76.3704997  94.4479988 114.6620012  76.8784997  93.7139988
 113.8070012  78.4964997  94.7749988 114.6490012  78.2604997  95.4609988
 114.1830012  79.3604997  94.1859988 112.7270012  78.7824997  95.7769988
 112.0030012  79.5144997  95.3589988 112.1530012  77.8674997  96.0349988
 113.2520012  79.4314997  97.0769988 112.3840012  79.4504997  97.7699988
 114.0870012  78.8234997  97.4849988 113.7430012  80.9124997  96.8309988
 114.7570012  80.7264997  96.4149988 113.0830012  81.4654997  96.1289988
 113.8550012  81.6884997  98.1789988 114.3680012  81.0004997  98.8849988
 114.5710012  82.5344997  98.0989988 112.6110012  82.2644997  98.7439988
 112.4580012  82.8894997  99.7839988 111.5410012  82.0154997  97.9399988
 110.3020012  82.5794997  98.3029988 110.3230012  83.1664997  99.2469988
 109.8370012  83.1654997  97.4819988 109.2920012  81.4014997  98.6159988
 108.3270012  81.9494997  98.6529988 109.5820012  80.6184997  99.8949988
 109.7560012  81.3444997 100.7179988 108.6750012  80.0474997 100.1879988
 110.5600012  79.6034997  99.7159988 111.2550012  79.2394997 101.1229988
 111.8730012  77.8124997 100.7549988 111.0820012  76.7864997 100.0769988
 110.3360012  77.2194997  99.3769988 111.8160012  76.2364997  99.4499988
 110.3450012  75.8344997 101.0109988 109.3880012  76.1894997 101.3639988
 110.0030012  75.0034997 100.4119988 111.0770012  75.1784997 102.1559988
 112.4430012  74.6534997 101.7169988 113.0680012  74.2804997 102.5149988
 112.2090012  73.7604997 101.1559988 112.9730012  75.3904997 101.1319988
 111.2110012  76.1894997 103.3109988 111.7320012  77.0544997 102.9289988
 110.1790012  76.4004997 103.5519988 111.6280012  75.7044997 104.1809988
 110.2860012  74.0394997 102.7729988 109.4030012  74.4144997 103.2689988
 110.8990012  73.6284997 103.5609988 110.0020012  73.2054997 102.1489988
 112.3600012  80.1764997 101.3429988 110.2050012  79.1204997 102.1999988
 109.2550012  80.4644997  97.4989988 108.7930012  80.8124997  96.3659988
 108.3800012  81.8904997  96.0249988 108.6770012  79.5344997  95.5749988
 107.8800012  78.9104997  96.0329988 109.6500012  78.9984997  95.5969988
 108.0620012  79.8034997  94.1749988 108.5330012  80.6894997  93.6989988
 106.9730012  79.9924997  94.2899988 108.1800012  78.6624997  93.1239988
 107.6330012  77.7354997  93.3999988 109.1870012  78.2624997  92.8799988
 107.6090012  79.0814997  91.7309988 106.5920012  79.4944997  91.8999988
 107.5350012  78.2294997  91.0219988 108.5320012  80.1484997  91.0209988
 109.5880012  79.8054997  91.0689988 108.4180012  81.0914997  91.5959988
 108.1700012  80.2314997  89.5789988 107.1350012  80.6154997  89.4589988
 108.3520012  79.3024997  88.9969988 109.0090012  81.0734997  88.5899988
 108.3450012  81.4154997  87.7679988 109.8540012  80.5024997  88.1499988
 109.6060012  82.1964997  89.4029988 108.8450012  82.9234997  89.7209988
 110.8700012  82.3684997  89.8659988 111.0010012  83.1274997  90.6519988
 112.0350012  81.4314997  89.7019988 111.7870012  80.4464997  89.2519988
 112.2760012  81.2334997  90.7679988 113.2430012  82.0384997  88.9659988
 113.9240012  81.1774997  88.7949988 113.8390012  82.6644997  89.6639988
 112.9860012  82.7134997  87.5919988 113.8720012  83.2124997  87.1429988
 112.2170012  83.5044997  87.7209988 112.4260012  81.6774997  86.5889988
 111.4220012  81.2344997  86.7669988 113.1660012  80.8484997  86.5809988
 112.3360012  82.3784997  85.2019988 113.2050012  83.0684997  85.2439988
 111.4230012  83.0134997  85.2119988 112.2300012  81.4674997  83.8929988
 112.3590012  82.0554997  82.9589988 111.2170012  81.0174997  83.8169988
 113.2760012  80.3204997  83.8999988 113.2950012  79.7944997  84.8789988
 114.2480012  80.7424997  83.5689988 113.1500012  79.1204997  82.8679988
 112.0540012  79.0994997  82.6839988 113.3140012  78.1334997  83.3519988
 113.7040012  79.3584997  81.9349988 104.4850012  45.4014997  81.7309988
 103.9560012  45.2784997  80.7619988 105.2970012  44.7184997  82.0619988
 104.7950012  46.4634997  81.6299988 103.4680012  45.4404997  82.8559988
 103.4240012  44.4634997  83.3829988 103.8430012  46.1124997  83.6569988
 102.1000012  45.9394997  82.5009988 102.2090012  47.0374997  82.3719988
 101.7630012  45.4394997  81.5679988 101.0010012  45.6984997  83.6429988
  99.9870012  45.7444997  83.1919988 101.0510012  44.6164997  83.8929988
 101.1230012  46.5804997  84.9519988 102.1270012  46.4284997  85.4019988
 100.9760012  47.6404997  84.6549988  99.9650012  46.2604997  85.9379988
  99.0240012  46.6934997  85.5369988  99.6970012  45.1844997  85.8619988
 100.1880012  46.7684997  87.3079988 101.2090012  46.4044997  87.5549988
 100.1730012  47.8764997  87.3819988  99.1800012  46.2734997  88.3689988
  98.2010012  46.7974997  88.3269988  98.9380012  45.2094997  88.1629988
  99.7630012  46.3734997  89.8209988 100.6820012  45.7494997  89.8399988
 100.0700012  47.4314997  89.9619988  98.7190012  46.0814997  90.9199988
  97.8320012  46.7474997  90.9709988  98.2860012  45.0924997  90.6569988
  99.3130012  45.8604997  92.3699988 100.3060012  45.3624997  92.3439988
  99.6220012  46.8934997  92.6389988  98.5110012  45.1334997  93.5229988
  97.5570012  45.6884997  93.6489988  98.3780012  44.0404997  93.3789988
  99.2820012  45.2454997  94.8079988  99.5760012  46.2894997  95.0459988
  98.5820012  45.0554997  95.6499988 100.5440012  44.3444997  94.9059988
 101.2220012  44.6294997  94.0729988 101.0350012  44.5384997  95.8839988
 100.1820012  42.8234997  94.7149988  99.2490012  42.4914997  95.2179988
 100.0860012  42.6364997  93.6239988 101.2500012  41.8324997  95.2479988
 101.7750012  40.9144997  94.6599988 101.5250012  42.1614997  96.5609988
 102.5080012  41.4084997  97.2649988 102.0080012  40.6494997  97.9039988
 103.2130012  40.9114997  96.5649988 103.3100012  42.3644997  98.1729988
 104.1900012  41.8834997  98.6509988 102.3350012  42.9224997  99.3229988
 101.8570012  42.0514997  99.8199988 102.9770012  43.3194997 100.1379988
 101.2400012  43.6844997  98.8049988 100.2520012  44.2594997  99.9509988
 101.1630012  44.6814997 101.2479988 101.8250012  45.9334997 101.3119988
 101.8270012  46.5154997 100.3659988 101.2430012  46.5504997 102.0289988
 103.3050012  45.6514997 101.6279988 103.7970012  44.9654997 100.9549988
 103.8240012  46.5984997 101.6509988 103.4570012  45.1124997 103.0399988
 102.7610012  46.0154997 104.0089988 101.7060012  45.7904997 103.9459988
 103.0500012  45.6674997 104.9899988 103.0140012  47.0554997 103.8679988
 102.9500012  43.7144997 103.2019988 103.6560012  42.9454997 102.9259988
 102.6680012  43.5584997 104.2329988 102.1100012  43.5134997 102.5529988
 104.8820012  45.1214997 103.2499988 105.2780012  46.1194997 103.1289988
 105.3070012  44.5134997 102.4649988 105.1970012  44.7384997 104.2089988
  99.6580012  45.5034997  99.3429988  99.2770012  43.2064997 100.3939988
 103.7970012  43.4354997  97.3509988 104.9180012  43.2944997  96.6269988
 105.7210012  42.4124997  96.8199988 105.1400012  44.3644997  95.5619988
 104.5300012  44.0644997  94.6839988 106.2190012  44.4554997  95.3149988
 104.5480012  45.6684997  96.1149988 105.1010012  45.9504997  97.0369988
 103.4800012  45.5614997  96.4009988 104.6870012  46.7654997  95.0829988
 105.5700012  46.4564997  94.4829988 104.8920012  47.6854997  95.6709988
 103.5290012  46.9004997  94.1639988 102.7190012  47.5364997  94.5809988
 103.0910012  45.8874997  94.0379988 103.7620012  47.2724997  92.6669988
 104.2610012  48.2624997  92.5999988 102.8320012  47.3104997  92.0609988
 104.5340012  46.0814997  91.9949988 105.2280012  45.5714997  92.6959988
 105.2710012  46.4004997  91.2279988 103.6640012  44.9604997  91.3659988
 103.4680012  45.3494997  90.3439988 102.6200012  44.8634997  91.7339988
 104.2140012  43.5684997  91.3429988 105.2830012  43.3614997  91.4979988
 103.4700012  42.4784997  91.2849988 104.0350012  41.5354997  91.2779988
 101.9840012  42.4154997  91.2709988 101.5340012  42.9684997  92.1229988
 101.7100012  41.3394997  91.2889988 101.3850012  43.0284997  89.9939988
 101.9030012  43.9684997  89.7069988 100.2910012  43.2244997  90.0159988
 101.4600012  42.1114997  88.7869988 100.8110012  41.2374997  89.0039988
 102.5360012  41.8434997  88.7199988 101.0640012  42.7774997  87.5109988
 101.7820012  43.5554997  87.1709988 100.1430012  43.3964997  87.5599988
 100.7830012  41.8594997  86.2899988 100.3430012  42.4704997  85.4719988
 100.0030012  41.2024997  86.7299988 101.9460012  40.9794997  85.8119988
 102.0680012  40.0304997  86.3769988 102.9150012  41.5244997  85.8049988
 101.7470012  40.5934997  84.3549988 101.7940012  41.6174997  83.9269988
 100.8070012  40.0764997  84.0659988 102.8880012  39.8314997  83.6139988
 102.9770012  38.7754997  83.9479988 103.7900012  40.4054997  83.9159988
 102.7900012  39.9064997  82.5099988  28.9890012  81.1704997  82.2539988
  29.2350012  80.0874997  82.2379988  29.2920012  81.5554997  81.2569988
  27.9270012  81.4384997  82.4399988  29.9920012  81.8984997  83.1429988
  30.9880012  81.7824997  82.6629988  29.7350012  82.9744997  83.2509988
  29.9360012  81.4464997  84.5789988  30.2130012  80.3734997  84.6649988
  30.7810012  81.9034997  85.1369988  28.6480012  81.5494997  85.3369988
  27.8720012  80.8014997  85.0669988  28.8280012  81.3204997  86.4089988
  27.8800012  82.8874997  85.2489988  28.7310012  83.4764997  85.6499988
  27.7530012  83.2214997  84.1969988  26.6310012  83.1174997  86.1599988
  26.4210012  84.1914997  86.3509988  25.7010012  82.7584997  85.6689988
  26.7810012  82.5144997  87.5269988  26.9660012  81.4204997  87.5709988
  27.6520012  83.0244997  87.9919988  25.4700012  82.7404997  88.2939988
  25.2560012  83.8294997  88.2469988  24.5870012  82.3274997  87.7609988
  25.3480012  82.1684997  89.7419988  24.3960012  82.5344997  90.1819988
  25.4720012  81.0644997  89.7319988  26.5480012  82.7214997  90.6069988
  27.4480012  82.1914997  90.2279988  26.5860012  83.8274997  90.5119988
  26.3220012  82.4264997  92.0429988  25.4810012  83.1304997  92.2219988
  25.8940012  81.4244997  92.2599988  27.3990012  83.0484997  93.0009988
  28.3400012  82.4604997  93.0649988  27.6360012  84.0564997  92.5979988
  26.8900012  83.4114997  94.4149988  27.6760012  83.8974997  95.0299988
  26.1310012  84.1904997  94.1869988  26.1760012  82.2354997  95.2329988
  25.2270012  81.9354997  94.7389988  26.8580012  81.3594997  95.2599988
  26.0700012  82.6864997  96.7329988  27.0950012  82.7064997  97.1609988
  25.5770012  83.6814997  96.7309988  25.0890012  81.7034997  97.4889988
  23.9770012  81.9654997  97.8479988  25.5800012  80.5104997  97.4669988
  24.8840012  79.4584997  98.1969988  24.2870012  79.9694997  98.9809988
  24.2130012  78.8594997  97.5449988  25.8670012  78.5574997  98.8329988
  25.3580012  77.6434997  99.2069988  26.5100012  79.1054997 100.1279988
  26.6580012  80.1944997  99.9659988  25.8770012  79.0744997 101.0399988
  27.6860012  78.4254997 100.5029988  29.0470012  79.0654997 101.0619988
  28.5520012  80.4934997 101.3959988  27.7490012  80.8674997 102.5199988
  26.6640012  80.7414997 102.3169988  27.9530012  80.3284997 103.4699988
  27.8480012  82.3984997 102.8009988  27.3770012  82.8334997 103.6699988
  28.8650012  82.6794997 103.0299988  27.3490012  83.3374997 101.6529988
  28.1250012  83.2304997 100.3699988  27.6220012  83.9104997  99.6979988
  29.1550012  83.5014997 100.5489988  28.1370012  82.2504997  99.9169988
  25.8480012  83.0594997 101.2549988  25.8370012  82.0534997 100.8619988
  25.3160012  83.1254997 102.1919988  25.3820012  83.7724997 100.5899988
  27.3820012  84.7824997 102.2219988  26.9430012  85.4594997 101.5039988
  28.3920012  85.0144997 102.5279988  26.8120012  84.7454997 103.1379988
  29.4060012  78.4764997 102.3659988  30.1320012  79.1324997 100.0339988
  26.9300012  78.1314997  97.9339988  26.7220012  77.1754997  97.0379988
  25.7540012  76.4614997  96.8909988  27.9630012  77.1014997  96.1389988
  27.7850012  76.4074997  95.2899988  28.8290012  76.7374997  96.7319988
  28.2550012  78.5084997  95.6199988  28.6100012  79.1694997  96.4389988
  27.2950012  78.8874997  95.2089988  29.2000012  78.8034997  94.3889988
  30.2640012  78.6344997  94.6589988  28.9730012  79.8604997  94.1299988
  28.7990012  78.0954997  93.0449988  27.8080012  78.4624997  92.6999988
  28.6590012  77.0584997  93.4169988  29.7210012  78.4054997  91.8969988
  30.7160012  78.4324997  92.3899988  29.3560012  79.4044997  91.5759988
  29.6110012  77.4644997  90.6819988  29.7240012  76.4124997  91.0209988
  30.4460012  77.7144997  89.9929988  28.3030012  77.7644997  89.8139988
  28.5590012  77.1234997  88.9439988  28.3910012  78.8484997  89.5869988
  26.9030012  77.3874997  90.2459988  26.7650012  77.2124997  91.3229988
  25.8430012  77.3044997  89.4569988  24.9200012  76.9264997  89.9189988
  25.7610012  77.5924997  88.0269988  25.8860012  76.6114997  87.5199988
  26.5810012  78.1764997  87.5579988  24.4060012  78.2154997  87.4879988
  24.3600012  79.1334997  88.1119988  23.5930012  77.4904997  87.7099988
  24.2850012  78.5504997  86.0029988  24.3220012  77.6754997  85.3199988
  25.2440012  79.0454997  85.7389988  23.1690012  79.4844997  85.5369988
  23.1960012  80.2954997  86.2949988  22.1000012  79.1874997  85.4749988
  23.4610012  80.1544997  84.1759988  24.4660012  80.6194997  84.2639988
  22.6350012  80.8244997  83.8549988  23.5430012  79.1184997  83.0249988
  22.4940012  78.7534997  83.0369988  24.2070012  78.2654997  83.2829988
  23.9190012  79.6204997  81.6469988  22.9700012  79.8954997  81.1379988
  24.3260012  78.7604997  81.0739988  24.8570012  80.7684997  81.6399988
  25.3190012  80.9294997  80.6429988  25.6710012  80.6404997  82.3849988
  24.2400012  81.6704997  81.8419988  30.4630012  70.0564997  83.8989988
  30.3800012  69.0954997  84.4509988  31.5050012  70.4404997  83.9009988
  30.1130012  69.9774997  82.8479988  29.5750012  70.9494997  84.7059988
  29.4180012  71.9474997  84.2429988  28.5270012  70.5844997  84.7629988
  30.1450012  71.3254997  86.1099988  29.5120012  72.0264997  86.6949988
  30.1430012  70.4724997  86.8219988  31.5270012  71.8824997  86.1409988
  32.2910012  71.1724997  85.7589988  31.5290012  72.6474997  85.3359988
  31.9110012  72.4214997  87.4909988  31.5610012  71.7314997  88.2889988
  32.9970012  72.2314997  87.6269988  31.8140012  73.8894997  87.6709988
  32.5000012  74.4094997  86.9679988  30.7650012  74.2274997  87.5299988
  32.1520012  74.2294997  89.1179988  31.4120012  73.6714997  89.7319988
  33.1780012  73.8624997  89.3349988  32.0950012  75.7054997  89.4019988
  32.9710012  76.2664997  89.0129988  31.2080012  76.1424997  88.8949988
  31.8320012  76.0394997  90.8929988  31.7010012  77.1284997  91.0719988
  30.7710012  75.7384997  91.0289988  32.8080012  75.3174997  91.9099988
  32.6340012  74.2204997  91.8849988  33.8630012  75.4154997  91.5739988
  32.6870012  75.8494997  93.3409988  33.4200012  75.2454997  93.9169988
  32.7860012  76.9504997  93.2339988  31.3320012  75.4884997  93.9679988
  30.5880012  75.9764997  93.3029988  31.0710012  74.4094997  93.9569988
  31.1210012  76.0534997  95.3559988  31.6240012  75.4374997  96.1319988
  31.6160012  77.0454997  95.4269988  29.6250012  76.2154997  95.7169988
  29.1090012  76.9774997  95.0949988  29.1680012  75.2094997  95.5969988
  29.3540012  76.4794997  97.2239988  29.7420012  75.6794997  97.8889988
  29.7410012  77.4444997  97.6169988  27.7920012  76.3334997  97.3379988
  26.9670012  76.4644997  96.4449988  27.5190012  76.0934997  98.6179988
  26.1670012  75.7624997  99.0789988  25.8190012  76.5524997  99.7799988
  25.4310012  75.6114997  98.2609988  26.2840012  74.4404997  99.8989988
  25.2350012  74.2134997 100.1859988  27.1780012  74.5854997 101.1699988
  26.7320012  75.2724997 101.9209988  27.1410012  73.6014997 101.6829988
  28.4760012  75.0354997 100.8059988  29.5950012  75.2654997 101.9119988
  30.7540012  74.2914997 101.5029988  30.6580012  73.5594997 100.3029988
  30.0950012  74.0444997  99.4779988  31.6990012  73.6084997  99.9159988
  30.1360012  72.1004997 100.3949988  29.0780012  72.1194997 100.6119988
  30.2980012  71.6734997  99.4169988  30.7690012  71.1214997 101.3539988
  29.8500012  71.1294997 102.5409988  28.8310012  70.8734997 102.2929988
  30.0790012  70.4064997 103.3109988  30.0000012  72.1234997 102.9369988
  30.6850012  69.7684997 100.6439988  30.7920012  69.9584997  99.5869988
  31.5200012  69.1804997 100.9969988  29.7200012  69.3304997 100.8549988
  32.1990012  71.4274997 101.6789988  32.1890012  72.1444997 102.4869988
  32.7490012  71.7714997 100.8159988  32.5290012  70.4704997 102.0569988
  30.0480012  76.6664997 101.8359988  29.0770012  74.8104997 103.2069988
  26.7200012  73.4494997  99.0309988  26.2800012  72.1994997  99.2899988
  25.7730012  71.8754997 100.3589988  26.5280012  71.3174997  98.0949988
  25.7250012  71.4134997  97.3339988  26.6300012  70.2894997  98.5049988
  27.8300012  71.6194997  97.3429988  28.5560012  71.6104997  98.1849988
  27.7070012  72.6134997  96.8609988  28.0790012  70.5994997  96.1949988
  27.3760012  70.8124997  95.3609988  27.8570012  69.5724997  96.5559988
  29.5790012  70.6314997  95.6979988  29.7810012  69.6314997  95.2569988
  30.1790012  70.4474997  96.6139988  30.0390012  71.8494997  94.8579988
  31.0720012  71.6804997  94.4859988  29.9880012  72.6994997  95.5709988
  29.0190012  72.3314997  93.7699988  29.3230012  73.2874997  93.2919988
  28.0280012  72.5234997  94.2349988  28.7970012  71.3004997  92.7029988
  27.7220012  71.3204997  92.4219988  28.9940012  70.2914997  93.1259988
  29.5060012  71.5074997  91.3609988  30.5930012  71.6624997  91.4349988
  28.9990012  71.6464997  90.1299988  29.8040012  71.9874997  89.4629988
  27.5300012  71.6384997  89.6199988  26.8620012  71.0044997  90.2409988
  27.4150012  71.4034997  88.5399988  26.8310012  73.0164997  89.7969988
  26.5760012  73.1004997  90.8749988  25.9400012  73.1184997  89.1419988
  27.7410012  74.2644997  89.5339988  28.3660012  74.1814997  88.6199988
  28.5210012  74.2584997  90.3249988  26.9360012  75.5384997  89.5139988
  27.6560012  76.2774997  89.9259988  26.0090012  75.3374997  90.0929988
  26.4030012  75.8594997  88.1439988  25.5660012  76.5724997  88.3049988
  25.9900012  75.0284997  87.5329988  27.3390012  76.5654997  87.1919988
  28.2750012  75.9824997  87.0579988  27.7310012  77.4664997  87.7109988
  26.6690012  76.9694997  85.9209988  25.8640012  77.7074997  86.1249988
  26.1840012  76.0884997  85.4489988  27.6430012  77.6314997  84.9139988
  27.5140012  77.0224997  83.9939988  28.7320012  77.5884997  85.1279988
  27.3480012  78.7034997  84.8959988  46.5220012  50.3624997  84.4169988
  46.0560012  49.4634997  84.8729988  45.8420012  50.8034997  83.6569988
  46.7140012  51.0994997  85.2259988  47.8850012  50.1014997  83.7389988
  47.8350012  49.1154997  83.2289988  48.0150012  50.7954997  82.8799988
  49.0620012  50.3124997  84.7789988  49.9370012  50.4184997  84.1029988
  48.7220012  51.2464997  85.2749988  49.3550012  49.0304997  85.5569988
  50.0980012  49.2544997  86.3519988  48.4590012  48.6794997  86.1119988
  49.9360012  47.8774997  84.7629988  49.3780012  47.6204997  83.8379988
  50.9120012  48.3044997  84.4479988  50.2890012  46.6264997  85.5919988
  49.3460012  46.1164997  85.8829988  50.7970012  45.9714997  84.8529988
  51.0970012  46.9284997  86.8889988  51.9780012  47.5494997  86.6219988
  50.5050012  47.4024997  87.7009988  51.6870012  45.6104997  87.4669988
  52.3810012  45.2864997  86.6609988  52.3030012  45.8444997  88.3609988
  50.7750012  44.5214997  87.9659988  50.2930012  44.0974997  87.0599988
  51.3810012  43.7224997  88.4459988  49.6120012  44.7084997  88.9909988
  48.7570012  45.1374997  88.4259988  49.4000012  43.6804997  89.3539988
  49.9510012  45.5864997  90.1439988  50.9550012  45.4684997  90.6029988
  50.0480012  46.5964997  89.6909988  48.9150012  45.6144997  91.2689988
  47.8750012  45.5594997  90.8839988  49.2310012  44.7484997  91.8889988
  49.1220012  46.9544997  92.0509988  50.0470012  46.7864997  92.6429988
  49.2190012  47.7314997  91.2629988  47.9150012  47.2444997  92.9399988
  48.1790012  48.1424997  93.5379988  47.0900012  47.4934997  92.2389988
  47.5440012  45.9904997  93.8469988  46.6390012  46.2864997  94.4189988
  47.4860012  45.0194997  93.3109988  48.6150012  45.7534997  94.8879988
  49.2320012  44.7254997  95.0369988  48.6120012  46.8594997  95.7169988
  49.6390012  46.8524997  96.6689988  49.5650012  46.0384997  97.4219988
  50.6390012  46.7654997  96.1939988  49.5520012  48.2204997  97.5129988
  50.4300012  48.2614997  98.1919988  48.1790012  48.2514997  98.2979988
  47.4050012  48.1124997  97.5129988  48.1150012  47.3564997  98.9539988
  48.0270012  49.4964997  98.9589988  47.0330012  49.5664997 100.2189988
  46.8840012  48.1204997 100.7149988  46.1200012  47.7944997 101.8579988
  46.1900012  48.5104997 102.7039988  45.1080012  47.6654997 101.4199988
  46.5200012  46.4194997 102.4209988  45.8490012  46.3394997 103.2629988
  46.0680012  45.8704997 101.6079988  47.9280012  45.9374997 102.7099988
  48.5840012  46.7574997 103.7799988  48.2780012  47.7924997 103.7549988
  48.4840012  46.3294997 104.7659988  49.6480012  46.7434997 103.5949988
  47.7720012  44.4444997 102.9909988  48.7660012  44.0264997 103.0539988
  47.2830012  44.1574997 103.9109988  47.1040012  43.9964997 102.2709988
  48.8170012  46.2184997 101.5389988  48.4560012  45.6034997 100.7279988
  49.8520012  45.9394997 101.6689988  48.6570012  47.2114997 101.1459988
  47.8160012  50.3414997 101.1889988  45.6990012  50.0714997  99.7999988
  49.7610012  49.2924997  96.5759988  51.0090012  49.5774997  96.1779988
  52.0360012  48.9774997  96.5329988  50.9230012  50.9934997  95.5439988
  51.5440012  51.6124997  96.2269988  49.9370012  51.5034997  95.6069988
  51.4430012  51.0584997  94.1099988  52.4080012  50.5174997  94.2129988
  51.6270012  52.1344997  93.9059988  50.4460012  50.4904997  93.0889988
  50.2650012  49.4454997  93.4199988  51.0700012  50.4704997  92.1699988
  49.2480012  51.3904997  92.7679988  49.6660012  52.4044997  92.5929988
  48.5430012  51.4884997  93.6219988  48.3460012  51.1304997  91.5469988
  47.9240012  50.1204997  91.7379988  48.8290012  51.1314997  90.5459988
  47.3980012  52.3014997  91.3439988  47.9630012  53.1074997  90.8279988
  47.0810012  52.6684997  92.3429988  46.2000012  52.0184997  90.4469988
  45.6040012  52.9154997  90.7189988  45.7940012  51.0204997  90.7179988
  46.5830012  51.9654997  88.9619988  46.6190012  52.8724997  88.3409988
  47.0510012  50.8574997  88.3389988  47.3770012  50.9484997  87.2919988
  47.2520012  49.5084997  88.9169988  47.0690012  49.4054997  90.0079988
  48.3290012  49.2904997  88.7559988  46.4020012  48.4424997  88.1529988
  46.3960012  48.4844997  87.0429988  45.3660012  48.4224997  88.5539988
  46.8290012  47.0124997  88.3539988  46.9940012  46.7854997  89.4289988
  47.7780012  46.8714997  87.7939988  45.7580012  45.9564997  87.9199988
  44.9380012  45.8864997  88.6659988  46.3160012  44.9954997  87.9519988
  45.0860012  46.1104997  86.5349988  44.5980012  47.1074997  86.4899988
  44.2530012  45.3794997  86.4509988  45.9180012  45.9744997  85.2769988
  46.3350012  44.9454997  85.2469988  46.7860012  46.6504997  85.4359988
  45.1080012  46.2684997  84.0099988  44.6900012  47.2914997  84.1259988
  44.3210012  45.4874997  83.9339988  45.9010012  46.2494997  82.6989988
  46.7820012  46.8944997  82.9019988  45.1740012  46.8074997  82.0709988
  46.0610012  45.1844997  82.4249988  23.9590012  93.5684997  83.2149988
  23.5630012  93.0584997  84.1189988  24.7260012  92.9644997  82.6849988
  23.1930012  93.6514997  82.4149988  24.6270012  94.8924997  83.7259988
  25.0870012  95.4064997  82.8549988  23.8040012  95.3394997  84.3229988
  25.7840012  94.7714997  84.7739988  25.6730012  93.9454997  85.5079988
  26.6880012  94.4944997  84.1909988  26.0010012  96.0774997  85.5199988
  27.0780012  96.2004997  85.7619988  25.7430012  96.8894997  84.8069988
  25.1830012  96.2354997  86.8179988  24.1230012  95.9254997  86.6969988
  25.6860012  95.5904997  87.5699988  25.0980012  97.7684997  87.2119988
  24.7560012  98.4144997  86.3759988  24.4530012  97.8884997  88.1089988
  26.5150012  98.3534997  87.7159988  26.7420012  97.7714997  88.6349988
  27.2610012  98.1544997  86.9169988  26.5000012  99.8934997  87.9449988
  26.1790012 100.2954997  86.9599988  25.7470012 100.2364997  88.6859988
  27.9210012 100.4744997  88.2409988  28.5300012 100.1684997  87.3639988
  27.8640012 101.5804997  88.3319988  28.6070012 100.0184997  89.5779988
  28.7600012  98.9304997  89.4119988  29.5860012 100.5064997  89.7719988
  27.7190012 100.1684997  90.8139988  27.0680012 101.0494997  90.6269988
  27.0620012  99.2724997  90.8049988  28.4670012 100.3124997  92.1649988
  29.2170012  99.5014997  92.2899988  29.1420012 101.1904997  92.2529988
  27.5880012 100.2884997  93.4129988  26.9500012 101.1944997  93.3419988
  26.9900012  99.3524997  93.3939988  28.1870012 100.3354997  94.8559988
  28.9360012 101.1434997  94.7109988  27.5850012 100.7614997  95.6869988
  28.7330012  98.9644997  95.3549988  29.1490012  98.3294997  94.5439988
  29.6270012  99.2424997  95.9529988  27.6550012  98.0744997  95.9599988
  26.4700012  98.4054997  95.9119988  28.1410012  97.0834997  96.6289988
  27.2750012  96.2924997  97.4469988  26.4660012  96.8944997  97.9119988
  26.8770012  95.4224997  96.8819988  28.2590012  95.7464997  98.6019988
  27.6650012  94.9754997  99.1369988  28.7100012  96.7984997  99.6009988
  29.4780012  97.3694997  99.0379988  27.8170012  97.3994997  99.8779988
  29.3830012  96.2034997 100.6529988  28.6050012  96.0894997 101.9889988
  28.1820012  97.6144997 102.3079988  29.1180012  98.6304997 102.0269988
  29.2140012  99.2214997 102.9629988  30.1190012  98.2784997 101.6999988
  28.7280012  99.6164997 100.8499988  29.4380012 100.4274997 100.7819988
  28.6530012  99.0724997  99.9199988  27.3330012 100.2404997 100.8649988
  26.9060012 100.4164997 102.3119988  26.0110012 101.0214997 102.3179988
  26.8200012  99.4714997 102.8279988  27.6800012 101.0644997 102.6949988
  27.5100012 101.5774997 100.1629988  26.5400012 102.0054997  99.9539988
  28.1240012 102.2174997 100.7779988  27.9790012 101.2854997  99.2349988
  26.3060012  99.3994997 100.1839988  25.4200012 100.0054997 100.0649988
  26.1870012  98.6614997 100.9629988  26.7520012  99.0654997  99.2579988
  27.3550012  95.3264997 101.7539988  29.4330012  95.5464997 103.0779988
  29.3580012  95.0124997  97.9649988  28.9690012  93.9314997  97.2149988
  27.8970012  93.3674997  97.1549988  30.1400012  93.3724997  96.5029988
  29.9040012  92.3344997  96.1819988  30.9620012  93.2704997  97.2439988
  30.5610012  94.1974997  95.3379988  31.5130012  93.8074997  94.9189988
  30.6900012  95.2804997  95.5509988  29.6170012  94.1594997  94.1169988
  28.6320012  94.5584997  94.4409988  29.5080012  93.1364997  93.6989988
  30.0060012  95.1314997  92.9609988  31.0140012  94.8314997  92.6019988
  30.0100012  96.1454997  93.4139988  29.0980012  95.1424997  91.6869988
  28.0520012  95.2734997  92.0379988  29.1260012  94.2104997  91.0829988
  29.2960012  96.3754997  90.6839988  29.2300012  97.2114997  91.4119988
  28.4390012  96.4434997  89.9809988  30.5690012  96.5534997  89.8919988
  30.3010012  97.0684997  88.9449988  30.7510012  95.5224997  89.5189988
  31.8550012  96.9794997  90.5059988  31.9340012  96.4784997  91.4819988
  32.6120012  97.9154997  90.0089988  33.6090012  98.1324997  90.4209988
  32.3750012  98.7494997  88.7069988  32.5430012  99.8074997  88.9999988
  31.2910012  98.6444997  88.4839988  33.2070012  98.2524997  87.4729988
  34.2270012  98.1014997  87.8869988  33.0900012  99.0814997  86.7419988
  32.7410012  96.9714997  86.7989988  31.6390012  97.0654997  86.6959988
  33.1630012  96.1364997  87.3989988  33.3170012  96.9734997  85.3739988
  33.0150012  95.9804997  84.9769988  34.4180012  97.1204997  85.3609988
  32.7810012  97.9274997  84.3529988  33.3920012  97.9744997  83.4269988
  32.7320012  98.9614997  84.7559988  31.3310012  97.6864997  83.8719988
  30.7760012  97.3314997  84.7669988  31.1900012  96.7794997  83.2469988
  30.6750012  98.9264997  83.2389988  29.7650012  98.5104997  82.7559988
  31.3130012  99.2664997  82.3959988  30.3260012 100.0394997  84.2619988
  29.9130012  99.5294997  85.1589988  29.5880012 100.8324997  84.0139988
  31.2640012 100.5774997  84.5169988 113.3010012  68.7034997  80.5779988
 114.1590012  68.0684997  80.8859988 113.6230012  69.7094997  80.9239988
 113.2520012  68.8094997  79.4729988 111.8990012  68.3014997  81.0509988
 111.8560012  68.0954997  82.1419988 111.2300012  69.1804997  80.9269988
 111.4300012  67.0564997  80.2719988 111.2700012  67.3824997  79.2219988
 112.0790012  66.1644997  80.4039988 110.0240012  66.5734997  80.8969988
 109.4520012  67.4564997  81.2529988 109.4410012  66.0604997  80.1029988
 110.2690012  65.7344997  82.1859988 110.4780012  64.6724997  81.9349988
 111.2010012  66.1234997  82.6499988 108.9800012  65.6194997  83.1679988
 108.2750012  66.4144997  82.8429988 108.4660012  64.6594997  82.9479988
 109.1560012  65.8054997  84.6009988 109.8330012  64.9924997  84.9389988
 109.6890012  66.7674997  84.7569988 107.8260012  65.8034997  85.3419988
 106.9600012  66.3864997  84.9629988 107.3830012  64.7874997  85.2689988
 107.9890012  66.2664997  86.7859988 108.7680012  65.6544997  87.2899988
 108.4750012  67.2614997  86.6889988 106.7040012  66.4774997  87.5479988
 105.9730012  67.0254997  86.9149988 106.1450012  65.5204997  87.4649988
 106.8110012  67.0544997  88.9599988 107.1240012  68.1204997  88.9899988
 105.7560012  67.0914997  89.3079988 107.6710012  66.3174997  89.9489988
 107.1410012  65.3614997  90.1499988 108.6760012  66.0804997  89.5399988
 107.8440012  67.1164997  91.3179988 108.4790012  68.0214997  91.2069988
 106.8480012  67.4674997  91.6629988 108.3540012  66.2144997  92.4739988
 107.8520012  65.2254997  92.5399988 109.4400012  66.0804997  92.2859988
 108.3310012  66.8174997  93.8869988 108.8270012  67.8004997  94.0369988
 107.2690012  67.0234997  94.1379988 108.9430012  65.9314997  94.9809988
 109.5430012  64.8674997  94.8759988 108.6740012  66.5104997  96.1819988
 109.1330012  65.7634997  97.4099988 108.5010012  66.1464997  98.2399988
 109.1590012  64.6634997  97.2619988 110.6080012  66.0944997  97.7899988
 111.3880012  65.6144997  97.1609988 110.9550012  65.6634997  99.1719988
 110.5040012  66.1624997 100.0559988 110.7440012  64.5944997  99.3889988
 112.3650012  65.8984997  99.3479988 113.1100012  65.4794997 100.6899988
 112.9660012  66.7874997 101.6639988 113.2370012  68.0194997 101.0929988
 114.3300012  68.1804997 100.9729988 112.7520012  68.2294997 100.1159988
 112.8740012  69.2084997 102.1089988 113.4250012  69.0824997 103.0289988
 113.2450012  70.1334997 101.6909988 111.3960012  69.4444997 102.3059988
 110.8540012  68.3764997 103.1879988 109.8820012  68.6374997 103.5789988
 110.7960012  67.4484997 102.6379988 111.3770012  68.3204997 104.1309988
 111.2220012  70.8064997 103.0379988 111.3060012  71.7124997 102.4559988
 110.2060012  70.8594997 103.3989988 111.9100012  70.9094997 103.8639988
 110.5860012  69.5894997 101.0219988 110.9290012  70.5174997 100.5889988
 109.5370012  69.6464997 101.2709988 110.7630012  68.7554997 100.3599988
 112.3220012  64.4524997 101.3809988 114.5130012  65.1694997 100.3429988
 110.7290012  67.5724997  97.7549988 111.6260012  68.1014997  96.8269988
 112.3660012  67.3754997  96.1579988 111.7040012  69.6204997  96.8629988
 112.0150012  70.0834997  97.8239988 110.6630012  69.9964997  96.7629988
 112.5260012  70.1624997  95.6509988 113.2680012  69.4844997  95.1789988
 113.1110012  71.0514997  95.9689988 111.6990012  70.7714997  94.5099988
 110.8390012  71.3394997  94.9239988 111.2920012  69.8564997  94.0269988
 112.6570012  71.5644997  93.6269988 113.5700012  70.9344997  93.5669988
 112.9140012  72.5304997  94.1129988 111.8820012  71.6934997  92.3479988
 110.9000012  72.1514997  92.5919988 111.6150012  70.7304997  91.8639988
 112.5620012  72.5634997  91.2519988 113.6170012  72.2174997  91.2869988
 112.5750012  73.6604997  91.4269988 112.0910012  72.1534997  89.8159988
 111.1210012  72.6404997  89.5819988 111.9070012  71.0574997  89.8319988
 113.0440012  72.6544997  88.7289988 113.3710012  73.6944997  88.8769988
 113.6690012  71.9514997  87.7409988 114.4680012  72.4124997  87.1399988
 113.4790012  70.4194997  87.4859988 113.8190012  70.1144997  86.4729988
 112.4060012  70.1334997  87.4729988 114.2760012  69.5804997  88.5279988
 113.9000012  69.9454997  89.5069988 115.3770012  69.7304997  88.5129988
 113.9970012  68.0714997  88.4729988 114.3080012  67.6184997  89.4389988
 114.6480012  67.7194997  87.6439988 112.6050012  67.6214997  88.1219988
 112.4150012  68.1294997  87.1519988 111.9520012  67.9854997  88.9439988
 112.4470012  66.0954997  88.0209988 111.4120012  65.7464997  87.8189988
 112.6970012  65.7004997  89.0289988 113.2370012  65.3264997  86.9069988
 112.9850012  64.2654997  87.1179988 114.3430012  65.3764997  86.9989988
 112.8510012  65.5954997  85.4659988 113.4360012  66.4794997  85.1339988
 111.7930012  65.9334997  85.4399988 113.0230012  64.3374997  84.5509988
 112.6010012  63.4304997  85.0349988 114.0860012  64.0814997  84.3569988
 112.5820012  64.4494997  83.5369988  85.7470012  36.3634997  82.0959988
  84.8160012  35.7884997  81.9059988  86.6790012  35.9344997  81.6679988
  85.7110012  37.3204997  81.5329988  85.9850012  36.4644997  83.5749988
  86.9520012  36.9524997  83.8219988  85.1250012  37.0304997  83.9919988
  85.8290012  35.1284997  84.2979988  84.8320012  34.7354997  84.0059988
  86.5580012  34.4824997  83.7629988  86.1320012  35.2124997  85.7789988
  85.7360012  36.1144997  86.2919988  85.5230012  34.3764997  86.1849988
  87.6090012  35.0354997  86.2259988  88.0390012  34.1594997  85.6939988
  88.1800012  35.9594997  85.9929988  87.5460012  34.7664997  87.7659988
  86.7830012  35.4754997  88.1519988  87.1560012  33.7454997  87.9619988
  88.9090012  34.8064997  88.4089988  89.5850012  34.0194997  88.0129988
  89.3750012  35.7984997  88.2269988  88.7510012  34.6974997  89.9599988
  87.9670012  35.3184997  90.4439988  88.4700012  33.6374997  90.1359988
  90.1460012  34.9624997  90.6209988  90.7810012  34.1114997  90.2929988
  90.5410012  35.8854997  90.1439988  90.1620012  35.2404997  92.1109988
  89.7800012  34.3164997  92.5939988  91.1690012  35.5064997  92.4969988
  89.2030012  36.4484997  92.4589988  88.1810012  36.0634997  92.2589988
  89.3560012  36.3894997  93.5579988  89.4790012  37.8404997  91.9009988
  90.5430012  37.8344997  91.5819988  88.7800012  38.1114997  91.0809988
  89.4230012  38.9904997  92.9829988  90.1040012  38.5724997  93.7539988
  89.8610012  39.9314997  92.5869988  88.0310012  39.1294997  93.6759988
  87.4370012  39.7064997  92.9349988  87.6170012  38.1394997  93.9619988
  88.2230012  40.0024997  94.8969988  88.7530012  40.9554997  94.6889988
  87.2600012  40.4334997  95.2449988  88.7910012  39.1904997  96.0529988
  89.0680012  38.0384997  96.0979988  88.7820012  40.0564997  97.0639988
  89.0430012  39.6434997  98.3889988  89.3010012  38.5724997  98.5389988
  89.8910012  40.2594997  98.7559988  87.7810012  39.9844997  99.2309988
  87.5840012  41.0734997  99.3259988  87.9650012  39.7104997 100.7159988
  88.6080012  40.4544997 101.2309988  86.9620012  39.8874997 101.1599988
  88.4950012  38.4024997 100.9969988  87.6890012  37.3994997 101.8459988
  86.1620012  37.5004997 101.3709988  85.2550012  36.8074997 102.2929988
  85.2870012  37.2294997 103.3199988  84.2400012  36.9284997 101.8579988
  85.4760012  35.2034997 102.2209988  86.5370012  35.0594997 102.3619988
  84.9270012  34.7114997 103.0099988  85.1090012  34.5184997 100.9359988
  85.3710012  33.0124997 101.2229988  84.8490012  32.5874997 102.0679988
  84.9480012  32.4824997 100.3829988  86.4210012  32.8214997 101.3919988
  83.5840012  34.7374997 100.7809988  83.3300012  35.7834997 100.7029988
  83.1450012  34.1864997  99.9619988  83.0720012  34.3894997 101.6659988
  85.8940012  34.7884997  99.7409988  86.8710012  34.3424997  99.8549988
  85.7640012  35.8104997  99.4189988  85.4840012  34.1754997  98.9519988
  88.2420012  36.0734997 101.4839988  87.7570012  37.8034997 103.2869988
  86.7410012  39.2454997  98.6209988  85.4590012  39.4344997  99.0149988
  84.9840012  40.3524997  99.7159988  84.8120012  38.3014997  98.2319988
  83.9430012  37.9344997  98.8189988  85.3570012  37.3434997  98.0919988
  84.1840012  38.8874997  96.9099988  84.9540012  39.4144997  96.3059988
  83.3220012  39.5624997  97.0979988  83.8070012  37.7304997  95.9119988
  83.2550012  38.1834997  95.0609988  83.0970012  37.0484997  96.4259988
  84.9960012  36.8464997  95.2869988  85.4300012  36.1584997  96.0439988
  85.6910012  37.5774997  94.8209988  84.4120012  35.9694997  94.1409988
  83.6990012  35.2404997  94.5809988  85.2070012  35.3184997  93.7189988
  83.8690012  36.5984997  92.9069988  84.2870012  37.6204997  92.7859988
  82.7690012  36.6974997  93.0179988  84.0490012  35.7574997  91.6669988
  83.8440012  34.6964997  91.9259988  85.1220012  35.7804997  91.3809988
  83.0790012  36.1964997  90.5899988  82.0680012  35.8264997  90.8129988
  83.3620012  36.9054997  89.5069988  82.7010012  36.9324997  88.6279988
  84.7470012  37.4704997  89.1359988  85.1000012  36.7774997  88.3429988
  85.4630012  37.5064997  89.9849988  84.6650012  38.7704997  88.3669988
  84.1800012  39.6334997  88.8709988  84.1050012  38.4114997  87.4769988
  86.1170012  39.1054997  87.8469988  86.4640012  38.2844997  87.1849988
  86.8020012  39.2224997  88.7139988  86.0680012  40.5044997  87.1319988
  86.2090012  41.2964997  87.8979988  85.0740012  40.6194997  86.6509988
  87.1790012  40.6744997  86.1509988  88.1080012  40.3104997  86.6389988
  87.2280012  41.7054997  85.7389988  87.1440012  39.8534997  84.7989988
  86.2170012  40.0834997  84.2319988  87.0220012  38.8254997  85.2009988
  88.3530012  39.8124997  83.8579988  88.6810012  40.7944997  83.4569988
  87.8790012  39.3344997  82.9739988  89.5150012  38.9404997  84.4379988
  89.1040012  37.9764997  84.8069988  89.9920012  39.4014997  85.3289988
  90.2110012  38.5654997  83.6579988  93.5980012  41.3304997  82.6609988
  93.0740012  41.0404997  81.7249988  94.6430012  41.6934997  82.5569988
  93.0040012  42.2024997  83.0079988  93.6520012  40.1544997  83.5759988
  92.7320012  39.6204997  83.8969988  94.1870012  39.3124997  83.0879988
  94.3400012  40.4684997  84.9089988  94.5930012  39.5614997  85.4989988
  95.3190012  40.9144997  84.6319988  93.5580012  41.6074997  85.6279988
  93.5760012  42.5674997  85.0679988  92.5140012  41.2254997  85.6439988
  94.0050012  41.8414997  87.0529988  94.0230012  40.8724997  87.5969988
  95.0220012  42.2644997  87.1979988  93.1680012  42.9464997  87.8119988
  93.3910012  43.9494997  87.3899988  92.0880012  42.9124997  87.5539988
  93.4150012  42.8834997  89.3339988  94.5120012  42.9574997  89.4999988
  92.8490012  43.7784997  89.6679988  92.8100012  41.6584997  90.1759988
  91.8140012  41.4974997  89.7109988  93.5570012  40.8414997  90.0749988
  92.6740012  42.0084997  91.6519988  93.6800012  42.3444997  91.9819988
  91.9890012  42.8684997  91.8079988  92.2640012  40.9204997  92.5369988
  92.8690012  40.0004997  92.3889988  92.6070012  41.2454997  93.5419988
  90.7570012  40.4724997  92.6379988  90.1270012  41.3774997  92.7749988
  90.4740012  40.0504997  91.6499988  90.3450012  39.5334997  93.8379988
  90.6200012  40.0354997  94.7909988  89.2440012  39.3954997  93.8879988
  90.8750012  38.1094997  93.7419988  90.5680012  37.5924997  92.8069988
  91.9750012  38.1634997  93.5979988  90.5960012  37.2934997  94.9799988
  90.9260012  37.8174997  95.9029988  89.5070012  37.1404997  95.1379988
  91.1320012  35.8384997  95.0199988  90.5730012  35.2004997  95.7359988
  90.8340012  35.4044997  94.0409988  92.6520012  35.8454997  95.2899988
  93.5210012  36.4474997  94.6819988  92.8510012  35.1524997  96.3859988
  94.2050012  35.1404997  96.9099988  94.2150012  34.1454997  97.4049988
  94.9470012  35.2844997  96.0959988  94.5080012  36.3544997  97.8489988
  95.5390012  36.1484997  98.2079988  93.5680012  36.2744997  99.1179988
  92.5150012  36.4994997  98.8439988  93.7860012  35.3314997  99.6619988
  94.1020012  37.2004997  99.9889988  93.3710012  38.4634997 100.5659988
  94.5560012  38.9124997 101.5279988  95.5480012  39.8494997 101.1829988
  96.3240012  39.7604997 101.9739988  96.0700012  39.6264997 100.2279988
  94.9870012  41.2684997 101.1109988  95.7940012  41.9094997 100.7889988
  94.2170012  41.3754997 100.3609988  94.5340012  41.8324997 102.3739988
  93.1940012  41.3954997 102.8469988  92.8710012  42.0154997 103.6699988
  92.4620012  41.6054997 102.0809988  93.2790012  40.3794997 103.2049988
  95.5620012  41.6484997 103.3909988  95.7620012  40.6004997 103.5569988
  96.4780012  41.9844997 102.9279988  95.3170012  42.1434997 104.3199988
  94.4130012  43.3524997 102.1919988  93.7500012  43.6434997 101.3909988
  95.4330012  43.6924997 102.0889988  93.9790012  43.6114997 103.1469988
  93.1080012  39.5254997  99.5939988  92.2700012  37.9774997 101.4049988
  94.3760012  37.6234997  97.2389988  95.5140012  38.3934997  97.3209988
  96.4910012  38.2514997  98.0139988  95.4320012  39.5184997  96.3299988
  94.6020012  40.1914997  96.6329988  95.1890012  38.9634997  95.3989988
  96.6440012  40.3994997  96.1279988  97.3220012  40.5614997  96.9929988
  96.2500012  41.3934997  95.8259988  97.5460012  39.8954997  94.9849988
  97.4890012  38.7924997  94.8679988  98.6140012  40.1214997  95.1919988
  97.1740012  40.5624997  93.6879988  97.2520012  41.6464997  93.9179988
  96.1090012  40.3164997  93.4949988  98.0240012  40.0164997  92.4959988
  99.1250012  40.1674997  92.4979988  97.7860012  40.6364997  91.6059988
  97.8730012  38.4804997  92.2109988  96.8430012  38.0804997  92.3309988
  98.5890012  37.9084997  92.8379988  98.2820012  38.0894997  90.7579988
  99.3480012  38.3534997  90.5859988  97.7380012  38.7524997  90.0509988
  97.9350012  36.6424997  90.5179988  98.7960012  36.0604997  90.1569988
  96.7350012  36.0044997  90.7159988  96.6530012  34.9084997  90.6599988
  95.3880012  36.5204997  91.2419988  95.3620012  37.6194997  91.4019988
  95.3440012  36.1324997  92.2819988  94.1590012  36.1384997  90.5199988
  93.2110012  36.2244997  91.0909988  94.2830012  35.0654997  90.2579988
  93.8630012  36.8464997  89.1349988  94.5760012  36.4514997  88.3809988
  93.9410012  37.9494997  89.2379988  92.4380012  36.5474997  88.6279988
  91.7510012  36.9894997  89.3809988  92.3080012  35.4444997  88.6719988
  92.0100012  37.1154997  87.2789988  92.1550012  38.2144997  87.3519988
  90.9660012  36.7704997  87.1179988  92.8370012  36.7634997  86.1039988
  93.8410012  37.1934997  86.3049988  92.4750012  37.1464997  85.1259988
  92.9850012  35.1954997  85.9979988  91.9960012  34.7084997  86.1299988
  93.6240012  34.7854997  86.8099988  93.6470012  34.7174997  84.6959988
  92.9690012  34.8064997  83.8199988  93.9350012  33.6464997  84.7549988
  94.5930012  35.2374997  84.4349988  63.5800012 109.9104997  83.0269988
  62.4780012 110.0144997  83.1169988  63.7470012 108.8144997  82.9569988
  63.9920012 110.3994997  82.1189988  64.3980012 110.4354997  84.2719988
  63.8450012 110.0944997  85.1719988  65.4100012 110.0134997  84.4499988
  64.5300012 111.9424997  84.4869988  65.2480012 112.1854997  83.6749988
  63.6050012 112.5334997  84.3129988  65.0230012 112.3914997  85.8719988
  64.3010012 111.8964997  86.5559988  65.9410012 111.9164997  86.2789988
  64.8550012 113.8804997  86.3009988  65.7480012 114.4444997  85.9559988
  63.9600012 114.2964997  85.7909988  64.7990012 113.7794997  87.8169988
  63.8410012 113.3844997  88.2179988  65.5800012 113.0434997  88.1049988
  65.0720012 115.1544997  88.4399988  64.4460012 115.8304997  87.8199988
  64.8050012 115.1594997  89.5179988  66.5540012 115.5034997  88.3619988
  66.8750012 115.4454997  87.2999988  66.7920012 116.5694997  88.5649988
  67.3730012 114.6854997  89.4009988  67.1560012 114.9264997  90.4629988
  67.1270012 113.6024997  89.4349988  68.8700012 115.0434997  89.3329988
  69.3750012 114.3404997  88.6369988  69.0250012 116.0584997  88.9079988
  69.5160012 115.1364997  90.7159988  70.5570012 115.5034997  90.5889988
  69.0060012 115.8544997  91.3929988  69.5150012 113.7914997  91.4229988
  68.4950012 113.4774997  91.7319988  69.9630012 113.0004997  90.7849988
  70.2430012 113.7024997  92.7929988  70.4100012 112.6424997  93.0819988
  71.2970012 113.9614997  92.5559988  69.7750012 114.5234997  94.0199988
  70.5140012 114.5224997  94.8499988  69.6530012 115.5274997  93.5609988
  68.4310012 114.0584997  94.5519988  67.7640012 114.0394997  93.6629988
  68.4680012 113.0764997  95.0699988  67.8480012 115.0174997  95.5959988
  68.3150012 116.1264997  95.8909988  66.7890012 114.3764997  96.2629988
  66.2850012 115.2024997  97.3379988  66.7580012 116.2064997  97.3859988
  65.2260012 115.4054997  97.0719988  66.2870012 114.5074997  98.6839988
  65.8600012 115.1144997  99.5109988  67.7590012 114.1804997  99.0679988
  68.3060012 113.6294997  98.2739988  68.2570012 115.1714997  99.1299988
  67.8720012 113.5084997 100.4039988  68.5650012 112.1444997 100.5089988
  67.3740012 111.2764997 100.1079988  67.1200012 110.0104997 100.6119988
  66.2630012 109.5734997 100.0559988  67.9860012 109.3554997 100.3759988
  66.6670012 109.9974997 102.0759988  66.5440012 109.0274997 102.5359988
  67.4670012 110.5084997 102.5909988  65.5280012 110.8444997 102.5639988
  64.2850012 110.0434997 102.3429988  64.4470012 109.2824997 103.0919988
  63.3680012 110.5444997 102.6159988  64.2610012 109.7414997 101.3059988
  65.6660012 110.9214997 104.0499988  65.7400012 109.9584997 104.5339988
  66.5220012 111.4854997 104.3899988  64.7910012 111.4034997 104.4629988
  65.3500012 112.2364997 102.0949988  65.3730012 112.3644997 101.0229988
  66.0950012 112.8824997 102.5349988  64.3700012 112.5454997 102.4269988
  69.6160012 111.9494997  99.4949988  69.0150012 111.9044997 101.9239988
  65.6370012 113.2654997  98.6379988  64.2540012 113.3704997  98.8239988
  63.6200012 114.4544997  98.9739988  63.7120012 111.9054997  98.6579988
  63.4090012 111.5604997  99.6699988  64.4960012 111.1994997  98.3079988
  62.3760012 111.9784997  97.7919988  61.6530012 112.7124997  98.2069988
  61.8390012 111.0074997  97.8529988  62.5770012 112.3214997  96.3039988
  63.2110012 113.2314997  96.2379988  61.5880012 112.6754997  95.9419988
  63.1090012 111.3124997  95.1789988  63.2940012 111.9444997  94.2839988
  62.2890012 110.6174997  94.8969988  64.3280012 110.4194997  95.5159988
  64.1250012 109.7634997  96.3889988  65.1380012 111.1264997  95.7939988
  64.7560012 109.6324997  94.2759988  64.0200012 108.8744997  93.9309988
  65.6490012 109.0744997  94.6309988  65.2730012 110.4204997  93.0029988
  64.5530012 111.2504997  92.8369988  65.1540012 109.6734997  92.1899988
  66.7540012 110.8764997  93.1359988  67.0310012 111.1894997  94.1539988
  67.7100012 110.7584997  92.2379988  68.6630012 111.2974997  92.3449988
  67.4800012 110.1104997  90.8769988  66.6630012 110.6854997  90.3919988
  67.3170012 109.0134997  90.9519988  68.7340012 110.1294997  89.9379988
  69.5380012 109.4804997  90.3459988  69.1280012 111.1554997  89.7779988
  68.2520012 109.6674997  88.5329988  67.3470012 110.2324997  88.2229988
  67.9820012 108.5924997  88.6089988  69.2420012 109.8604997  87.3259988
  68.9240012 109.1614997  86.5229988  70.2090012 109.4344997  87.6699988
  69.1090012 111.3324997  86.8389988  69.1920012 112.0514997  87.6819988
  68.0970012 111.3724997  86.3829988  70.1590012 111.7844997  85.8869988
  71.0380012 111.1124997  85.9849988  70.5180012 112.7514997  86.3009988
  69.7320012 111.8064997  84.4529988  69.3680012 110.7934997  84.1789988
  70.6340012 111.9784997  83.8269988  68.4850012 112.6924997  84.1239988
  68.6170012 113.7894997  84.2479988  67.6070012 112.2164997  84.6109988
  68.3050012 112.7854997  83.0319988  90.2170012  98.0714997  83.9309988
  89.8630012  97.2724997  84.6169988  91.3190012  98.0624997  84.0759988
  89.9050012  97.6444997  82.9539988  89.4770012  99.3224997  84.0529988
  89.8670012 100.0804997  83.3399988  88.3900012  99.2104997  83.8529988
  89.8040012  99.9814997  85.4259988  90.9090012 100.0224997  85.5249988
  89.3910012 101.0124997  85.4319988  89.3770012  99.1484997  86.6589988
  88.5730012  98.4674997  86.3069988  90.3040012  98.5894997  86.9079988
  89.0640012 100.0554997  87.8989988  89.7930012 100.8924997  87.9439988
  88.0630012 100.5244997  87.7909988  89.0700012  99.2844997  89.3079988
  88.4430012  98.3774997  89.1699988  90.0540012  98.9664997  89.7139988
  88.3430012 100.1134997  90.4079988  87.5530012 100.6794997  89.8689988
  87.7220012  99.5464997  91.1339988  89.3300012 101.0214997  91.1429988
  90.1020012 100.3684997  91.6049988  89.7600012 101.7084997  90.3829988
  88.7400012 101.9954997  92.2099988  88.0750012 102.6954997  91.6619988
  88.1160012 101.5014997  92.9849988  89.8130012 102.6994997  93.0829988
  90.2590012 102.0194997  93.8409988  90.6960012 102.9094997  92.4409988
  89.4210012 104.0484997  93.7789988  90.3090012 104.5084997  94.2629988
  88.9130012 104.7584997  93.0919988  88.4040012 103.8684997  94.9699988
  87.8410012 104.8194997  95.0889988  87.6030012 103.1894997  94.6089988
  89.0830012 103.3314997  96.2289988  88.3610012 102.8854997  96.9459988
  89.7570012 102.4804997  95.9919988  89.9890012 104.3674997  96.9729988
  90.8420012 104.7764997  96.3899988  89.4230012 105.2904997  97.2209988
  90.6640012 103.8344997  98.2059988  91.2590012 102.9264997  97.9669988
  91.3600012 104.5844997  98.6389988  89.7310012 103.3784997  99.2929988
  89.3530012 104.0404997 100.2509988  89.2920012 102.1514997  99.0659988
  88.1730012 101.7174997  99.8409988  88.2430012 102.1404997 100.8659988
  87.1930012 102.0404997  99.4299988  88.1180012 100.1674997 100.0969988
  87.1690012  99.9304997 100.6229988  89.2360012  99.5414997 101.0569988
  88.8930012  98.6054997 101.5459988  90.0760012  99.3614997 100.3519988
  89.4550012 100.4814997 102.0829988  90.5040012 100.3474997 103.1669988
  91.8060012 100.3264997 102.2399988  92.2460012 101.5544997 101.7139988
  91.4790012 102.3404997 101.5479988  92.9270012 102.1094997 102.3949988
  92.9070012 101.3594997 100.3569988  92.0300012 101.3954997  99.7289988
  93.5660012 102.2074997 100.2429988  93.7290012 100.1484997  99.8349988
  92.8100012  98.9814997  99.7179988  92.1000012  99.2354997  98.9449988
  93.3470012  98.0624997  99.5379988  92.3200012  98.8154997 100.6659988
  94.2200012 100.5324997  98.4499988  94.8670012 101.3774997  98.6349988
  94.7060012  99.6314997  98.1039988  93.3420012 100.7604997  97.8639988
  94.8670012  99.9044997 100.7829988  94.5890012 100.1704997 101.7929988
  95.8300012 100.3324997 100.5479988  94.9510012  98.8284997 100.7969988
  90.5650012 101.5224997 104.1039988  90.4140012  98.9874997 103.7289988
  88.1530012  99.5294997  98.7529988  87.5430012  98.3214997  98.5569988
  86.9190012  97.6734997  99.3609988  88.1080012  97.7944997  97.2159988
  87.1510012  97.7084997  96.6569988  88.2740012  96.6994997  97.2979988
  89.1550012  98.6734997  96.5249988  89.8450012  99.1834997  97.2309988
  88.6280012  99.5204997  96.0349988  89.9570012  98.0544997  95.3509988
  89.2210012  97.9394997  94.5269988  90.2450012  97.0574997  95.7499988
  91.1670012  98.8824997  95.0349988  91.9610012  98.7514997  95.8009988
  90.8390012  99.9444997  95.0359988  91.6760012  98.6034997  93.6609988
  90.9300012  99.0234997  92.9519988  91.8290012  97.5054997  93.5979988
  92.9890012  99.3404997  93.3139988  93.4310012  98.8904997  92.3989988
  93.7580012  99.1074997  94.0819988  92.7100012 100.8574997  93.1179988
  92.5410012 101.2674997  94.1359988  91.7670012 101.0804997  92.5749988
  93.8550012 101.6164997  92.5079988  94.7410012 101.7344997  93.1479988
  93.8500012 102.2304997  91.2719988  94.7010012 102.8134997  90.8889988
  92.6490012 102.2494997  90.3099988  92.7270012 103.2664997  89.8679988
  91.6940012 102.3534997  90.8689988  92.5060012 101.1024997  89.3089988
  91.7630012 101.5854997  88.6379988  92.0290012 100.2154997  89.7769988
  93.7330012 100.6304997  88.4899988  94.5030012 100.0784997  89.0699988
  94.2210012 101.4954997  87.9929988  93.4190012  99.7944997  87.2529988
  92.6990012 100.4024997  86.6649988  92.8920012  98.9144997  87.6789988
  94.6020012  99.4874997  86.2349988  95.4520012  99.0824997  86.8239988
  94.9420012 100.4504997  85.7969988  94.1770012  98.4614997  85.0899988
  95.0170012  98.4564997  84.3629988  93.2370012  98.8394997  84.6339988
  94.0440012  97.0644997  85.6369988  93.5010012  96.3984997  84.9319988
  93.4030012  96.9164997  86.5329988  95.4230012  96.3564997  85.7409988
  95.3220012  95.2634997  85.9139988  95.9940012  96.7284997  86.6179988
  95.9070012  96.3824997  84.7409988  78.4560012  27.7004997  80.9499988
  77.8490012  26.8704997  80.5289988  79.4980012  27.6654997  80.5639988
  77.9660012  28.6724997  80.7309988  78.6010012  27.5054997  82.4609988
  79.1170012  26.5404997  82.6559988  79.2970012  28.2124997  82.9599988
  77.4160012  27.5404997  83.3709988  76.7990012  26.6534997  83.1129988
  77.5970012  27.5334997  84.4679988  76.5810012  28.8004997  83.2389988
  76.1890012  28.8064997  82.1989988  75.7450012  28.7644997  83.9689988
  77.3510012  30.1074997  83.5759988  78.3300012  30.2514997  83.0719988
  76.7310012  30.9624997  83.2279988  77.7390012  30.2884997  85.0909988
  78.2290012  29.3364997  85.3869988  78.4600012  31.1224997  85.2249988
  76.4440012  30.4894997  86.0099988  75.8640012  29.5424997  85.9849988
  76.8470012  30.6324997  87.0349988  75.6310012  31.7734997  85.7439988
  76.2670012  32.6344997  86.0429988  75.5400012  31.8644997  84.6409988
  74.3090012  31.8724997  86.4489988  74.0630012  32.9544997  86.4099988
  73.5130012  31.2934997  85.9339988  74.2910012  31.5524997  87.9329988
  73.2740012  31.6664997  88.3649988  74.6480012  30.5054997  88.0329988
  75.2060012  32.4104997  88.7269988  76.2700012  32.3174997  88.4229988
  74.9160012  33.4674997  88.5479988  75.0380012  32.1414997  90.2289988
  73.9560012  32.1204997  90.4809988  75.4480012  31.1744997  90.5899988
  75.6760012  33.2404997  91.0549988  76.6340012  33.4334997  90.5259988
  75.0270012  34.1404997  91.1119988  75.8530012  32.7404997  92.4899988
  74.8980012  32.3354997  92.8879988  76.5940012  31.9154997  92.4169988
  76.4560012  33.7764997  93.4589988  77.2640012  34.2934997  92.8979988
  75.6240012  34.4554997  93.7429988  77.0200012  33.0314997  94.7439988
  78.0950012  32.4024997  94.7889988  76.2290012  33.4064997  95.7379988
  76.5540012  32.8664997  97.0099988  77.6290012  33.0044997  97.2549988
  76.0840012  33.5524997  97.7459988  76.1110012  31.3534997  97.1119988
  75.0650012  31.5064997  96.7689988  76.1540012  30.8574997  98.5479988
  75.5900012  31.5944997  99.1589988  75.5270012  29.9404997  98.5779988
  77.4070012  30.6354997  99.0989988  77.5770012  29.7044997 100.3959988
  78.1920012  30.7324997 101.4639988  77.9740012  32.1374997 101.4109988
  78.3970012  32.5504997 100.4709988  76.9010012  32.4274997 101.4129988
  78.8900012  32.7934997 102.4789988  78.7850012  33.8634997 102.3749988
  78.4460012  32.5384997 103.4299988  80.2850012  32.3934997 102.6299988
  80.5040012  30.9364997 102.8199988  80.4020012  30.2804997 101.9679988
  81.3990012  30.6764997 103.3659988  79.7610012  30.5724997 103.5149988
  80.9890012  32.8414997 101.2899988  82.0510012  32.8314997 101.4889988
  80.8200012  32.2144997 100.4269988  80.7810012  33.8644997 101.0159988
  80.8860012  33.1824997 103.7919988  80.7680012  34.2144997 103.4949988
  81.9210012  32.8844997 103.8689988  80.3500012  32.8584997 104.6719988
  76.2150012  29.2634997 100.7279988  78.6210012  28.6634997 100.0709988
  76.9510012  30.5624997  96.3059988  76.2900012  29.6264997  95.5419988
  75.0850012  29.5344997  95.5119988  77.3370012  28.8354997  94.7879988
  77.0390012  27.7644997  94.8039988  78.3500012  28.8764997  95.2409988
  77.2070012  29.3564997  93.3009988  78.1040012  29.9514997  93.0279988
  76.2900012  29.9694997  93.1689988  77.0560012  28.1374997  92.3469988
  76.0610012  27.6554997  92.4509988  77.7020012  27.2714997  92.6079988
  77.3070012  28.2884997  90.8349988  76.4740012  28.9264997  90.4709988
  77.2780012  27.3384997  90.2599988  78.6520012  28.8524997  90.4529988
  79.4610012  28.0954997  90.3569988  78.9780012  29.6494997  91.1539988
  78.5590012  29.4374997  89.1049988  77.9520012  30.3674997  89.0829988
  78.0500012  28.7804997  88.3669988  79.9710012  29.8524997  88.5929988
  79.9820012  30.4984997  87.6889988  80.4240012  28.9754997  88.0839988
  80.9070012  30.5084997  89.5879988  81.7410012  29.9234997  90.0029988
  80.6410012  31.7374997  90.0869988  81.4290012  32.1854997  90.7099988
  79.4620012  32.6794997  89.7749988  78.8340012  32.8374997  90.6779988
  78.8240012  32.3124997  88.9419988  79.9970012  34.0204997  89.3179988
  80.8550012  34.3374997  89.9479988  79.2320012  34.8244997  89.3549988
  80.7180012  34.0674997  87.8959988  81.5640012  33.3504997  87.9649988
  81.0520012  35.1044997  87.6839988  79.8280012  33.5734997  86.6999988
  78.8840012  34.1594997  86.7049988  79.7330012  32.4674997  86.7229988
  80.6870012  33.9764997  85.4849988  81.6740012  33.4894997  85.6329988
  80.8300012  35.0724997  85.3719988  80.1690012  33.3864997  84.1859988
  79.1730012  33.8264997  83.9689988  79.9710012  32.2934997  84.1989988
  81.0380012  33.6734997  82.9709988  82.0410012  33.2634997  83.2199988
  81.0960012  34.7654997  82.7779988  80.5000012  32.9354997  81.6279988
  81.1340012  33.1924997  80.7529988  79.5340012  33.3814997  81.3069988
  80.3690012  31.8324997  81.6419988  48.5660012 108.1074997  83.3369988
  48.4430012 108.5194997  82.3119988  47.9190012 108.6294997  84.0739988
  48.0320012 107.1434997  83.1929988  49.9940012 107.8464997  83.7249988
  49.8990012 107.4054997  84.7409988  50.2850012 107.0534997  83.0029988
  51.0620012 109.0034997  83.6019988  52.1200012 108.7284997  83.8039988
  51.1210012 109.2634997  82.5239988  50.7660012 110.2724997  84.4959988
  49.8950012 110.7354997  83.9859988  50.4030012 109.9844997  85.5049988
  51.8510012 111.3174997  84.4369988  52.2580012 111.2854997  83.4039988
  51.4770012 112.3534997  84.5799988  52.9970012 111.1674997  85.4489988
  52.4610012 110.9634997  86.4009988  53.6360012 110.2974997  85.1849988
  53.9200012 112.4414997  85.8589988  54.7500012 112.3614997  85.1249988
  53.4240012 113.4124997  85.6459988  54.3730012 112.4804997  87.2949988
  54.9100012 111.5144997  87.4009988  55.1250012 113.2364997  87.6079988
  53.2390012 112.4524997  88.3289988  52.2680012 111.9884997  88.0539988
  53.6640012 111.8164997  89.1349988  52.8520012 113.8644997  88.8159988
  53.7380012 114.5084997  89.0059988  52.3670012 114.4064997  87.9759988
  52.0940012 113.9894997  90.1299988  51.3390012 114.7824997  89.9419988
  51.5300012 113.0664997  90.3839988  52.9620012 114.1664997  91.3949988
  53.4400012 113.1704997  91.5169988  53.7610012 114.9124997  91.1999988
  52.1580012 114.5274997  92.6929988  52.7810012 114.5774997  93.6119988
  51.6260012 115.4844997  92.5039988  50.8720012 113.7744997  92.9059988
  50.3060012 113.4934997  91.9909988  51.1710012 112.8164997  93.3819988
  50.0700012 114.3504997  94.0679988  50.6230012 114.5814997  95.0039988
  49.6240012 115.2954997  93.6889988  48.8740012 113.4414997  94.5039988
  47.8400012 113.1324997  93.9879988  49.2280012 112.9084997  95.6529988
  48.2490012 112.0144997  96.2429988  47.3520012 112.6264997  96.4779988
  48.0500012 111.2444997  95.4669988  48.8100012 111.4554997  97.5799988
  47.9940012 110.7454997  97.8339988  48.9940012 112.4894997  98.7169988
  49.5280012 113.4034997  98.3779988  47.9610012 112.8214997  98.9579988
  49.8120012 111.8964997  99.7939988  49.0800012 110.7994997 100.7229988
  49.7640012 111.1304997 102.1869988  50.3140012 112.4044997 102.4799988
  49.7480012 113.2874997 102.1139988  50.4060012 112.6554997 103.5589988
  51.7650012 112.7564997 101.9109988  51.6990012 113.0494997 100.8739988
  52.0150012 113.6244997 102.5029988  52.9570012 111.7924997 102.0089988
  52.6160012 110.4954997 101.3219988  52.0680012 110.7414997 100.4249988
  53.4220012 109.7804997 101.2459988  51.9610012 109.9304997 101.9679988
  54.1110012 112.3664997 101.2139988  54.8590012 111.5894997 101.1459988
  53.7000012 112.5714997 100.2359988  54.5550012 113.2724997 101.5989988
  53.4320012 111.5214997 103.4609988  52.7380012 110.8944997 104.0019988
  53.4680012 112.4854997 103.9479988  54.4040012 111.0514997 103.4559988
  47.6620012 111.2074997 100.8589988  49.4860012 109.4094997 100.2189988
  50.1490012 110.9614997  97.4499988  50.2520012 109.6464997  97.1789988
  49.3500012 108.8044997  97.2009988  51.6710012 109.3574997  96.8859988
  52.0730012 108.6384997  97.6309988  52.3750012 110.2164997  96.9119988
  51.7080012 108.7114997  95.5209988  50.9200012 107.9284997  95.5489988
  52.7300012 108.3074997  95.3569988  51.2990012 109.7434997  94.4189988
  52.0970012 110.5124997  94.3419988  50.2710012 110.0924997  94.6579988
  51.2020012 109.1504997  92.9729988  50.4010012 108.3814997  92.9419988
  52.1440012 108.6764997  92.6229988  50.8110012 110.2304997  91.8779988
  51.3970012 111.1614997  92.0299988  49.7700012 110.4534997  92.1949988
  50.9190012 109.8074997  90.4139988  51.9770012 109.5024997  90.2629988
  50.7680012 110.7674997  89.8749988  49.9610012 108.7474997  89.9369988
  50.2760012 107.7984997  90.4209988  50.0760012 108.6124997  88.8399988
  48.5390012 109.1994997  90.2199988  48.1530012 109.1274997  91.2469988
  47.5690012 109.6264997  89.3439988  46.6150012 109.8814997  89.8279988
  47.6460012 109.7304997  87.8589988  46.7770012 109.3084997  87.3089988
  48.4980012 109.1574997  87.4339988  47.6920012 111.2504997  87.3859988
  46.7560012 111.7564997  87.7039988  47.7230012 111.3314997  86.2789988
  48.7600012 112.0614997  88.1469988  49.7790012 111.6724997  87.9319988
  48.5680012 112.0744997  89.2409988  48.8050012 113.5254997  87.7369988
  49.1520012 114.1834997  88.5629988  47.8060012 113.9414997  87.4859988
  49.6230012 113.8594997  86.4749988  49.2600012 113.3664997  85.5469988
  50.6060012 113.3644997  86.6249988  49.6680012 115.3424997  86.1209988
  49.6010012 115.8474997  87.1079988  48.7450012 115.6314997  85.5739988
  50.9110012 115.9054997  85.2859988  51.8910012 115.6284997  85.7319988
  50.6710012 116.9894997  85.2469988  51.0100012 115.2594997  83.8839988
  50.0070012 115.0234997  83.4699988  51.8240012 114.5104997  83.7809988
  51.3190012 116.0464997  83.1619988 114.9230012  55.7224997  79.3039988
 115.2390012  56.6084997  79.8959988 114.3480012  55.9444997  78.3799988
 115.7640012  55.1004997  78.9279988 114.0660012  54.8684997  80.2979988
 113.9040012  53.8894997  79.7969988 114.5980012  54.7154997  81.2609988
 112.6090012  55.3674997  80.6509988 112.8460012  56.2344997  81.3029988
 112.0160012  55.7974997  79.8159988 111.6920012  54.4814997  81.5059988
 110.7270012  55.0234997  81.4149988 111.5980012  53.4744997  81.0459988
 112.0950012  54.3584997  82.9679988 111.7910012  53.3664997  83.3649988
 113.1790012  54.4204997  83.2039988 111.3660012  55.3404997  83.9309988
 111.8640012  56.3124997  83.7289988 110.2640012  55.4354997  83.8199988
 111.4630012  54.8654997  85.4459988 110.9740012  53.8904997  85.6589988
 112.5410012  54.8304997  85.7109988 110.8280012  55.9154997  86.4589988
 109.8290012  56.2294997  86.0869988 110.7400012  55.3724997  87.4249988
 111.6020012  57.1534997  86.7339988 112.6190012  57.0594997  87.1729988
 111.7750012  57.7394997  85.8049988 110.8800012  58.1874997  87.6569988
 111.5910012  59.0214997  87.8409988 110.0190012  58.5004997  87.0289988
 110.3430012  57.6804997  88.9719988 109.2520012  57.4714997  88.9999988
 110.9230012  56.8354997  89.3999988 110.5890012  58.7374997  90.1019988
 110.5290012  59.7814997  89.7239988 109.8160012  58.5414997  90.8749988
 112.0090012  58.7084997  90.7459988 112.6400012  58.6844997  89.8319988
 112.1880012  59.7234997  91.1599988 112.3400012  57.5204997  91.6559988
 112.3290012  56.6694997  90.9419988 113.4070012  57.5704997  91.9629988
 111.5050012  57.1824997  92.9259988 111.4270012  57.9914997  93.6839988
 110.4720012  56.8834997  92.6469988 112.1600012  55.9554997  93.4989988
 112.7250012  55.0974997  92.8589988 111.9920012  55.9784997  94.8989988
 112.9180012  55.2684997  95.7179988 112.4880012  54.2594997  95.8919988
 113.9220012  55.1534997  95.2569988 112.9460012  56.0734997  97.0519988
 113.5970012  55.5144997  97.7569988 111.5590012  56.2034997  97.8189988
 110.7630012  55.9974997  97.0719988 111.5410012  55.3554997  98.5359988
 111.4550012  57.5184997  98.3839988 111.6930012  57.7264997  99.9399988
 112.7870012  56.6184997 100.2919988 112.5250012  55.5654997 101.1669988
 111.4980012  55.1734997 101.0079988 113.2510012  54.7834997 100.8589988
 112.5920012  55.8584997 102.6939988 111.7400012  56.4354997 103.0219988
 112.7400012  55.0074997 103.3429988 113.8290012  56.6294997 103.0469988
 113.7230012  58.1084997 102.9779988 114.6690012  58.5674997 103.2239988
 113.4770012  58.3534997 101.9549988 112.9760012  58.5364997 103.6289988
 114.0040012  56.3044997 104.5109988 114.7980012  56.9354997 104.8819988
 113.1370012  56.6314997 105.0669988 114.2550012  55.2694997 104.6939988
 115.0700012  56.1284997 102.3379988 115.0580012  56.4244997 101.2999988
 115.1680012  55.0524997 102.3579988 115.9190012  56.5824997 102.8279988
 112.2720012  59.1104997 100.0879988 110.5180012  57.3714997 100.7409988
 113.5750012  57.3954997  96.7259988 114.8430012  57.3544997  96.5909988
 115.6330012  56.4564997  96.7719988 115.3530012  58.7844997  96.1679988
 116.4490012  58.7024997  96.3339988 114.8890012  59.5704997  96.8009988
 115.0790012  59.1024997  94.6939988 114.0490012  58.8264997  94.3829988
 115.6860012  58.4194997  94.0609988 115.3680012  60.5104997  94.2939988
 116.4190012  60.5694997  94.6479988 114.8510012  61.2784997  94.9089988
 115.1080012  60.6484997  92.7509988 114.0610012  60.3894997  92.4849988
 115.8360012  60.0504997  92.1619988 115.4580012  61.9484997  92.0969988
 116.5570012  62.0474997  91.9669988 115.2130012  62.7774997  92.7939988
 114.8220012  62.2684997  90.7069988 114.8300012  63.3774997  90.6479988
 113.7950012  61.8654997  90.5709988 115.6220012  61.6994997  89.5069988
 115.4950012  60.5994997  89.6029988 116.6860012  61.9774997  89.6609988
 115.0300012  62.2194997  88.2499988 115.1790012  63.3034997  88.3619988
 114.3100012  61.5964997  87.2469988 113.8860012  62.1684997  86.4089988
 114.0620012  60.0914997  87.3029988 113.1900012  59.7944997  86.6819988
 113.6330012  59.7334997  88.2629988 115.2080012  59.1914997  86.7909988
 114.9270012  58.1294997  86.9549988 116.0820012  59.3514997  87.4569988
 115.6620012  59.4124997  85.3069988 116.4840012  58.6944997  85.0999988
 115.9670012  60.4704997  85.1529988 114.6500012  59.2014997  84.2729988
 114.0180012  60.1074997  84.1499988 114.0530012  58.2984997  84.5209988
 115.2800012  59.0394997  82.8689988 115.9640012  58.1754997  82.7299988
 115.8140012  59.9904997  82.6589988 114.1900012  58.7504997  81.7749988
 113.6220012  57.9024997  82.2149988 114.5830012  58.5954997  80.7479988
 113.1850012  59.9044997  81.4149988 113.6600012  60.8274997  81.0209988
 112.7420012  60.2574997  82.3709988 112.0050012  59.3614997  80.5209988
 112.3550012  58.8744997  79.5859988 111.3480012  60.2234997  80.2779988
 111.4040012  58.6224997  81.0929988 110.5060012  81.5554997  84.6429988
 110.5870012  80.5714997  84.1339988 111.4480012  81.9264997  85.0989988
 110.2060012  82.3304997  83.9059988 109.4900012  81.4594997  85.7319988
 108.5820012  81.2664997  85.1219988 109.6410012  80.5394997  86.3359988
 109.3800012  82.7744997  86.5129988 110.3490012  82.9394997  87.0319988
 109.4520012  83.5444997  85.7159988 108.1340012  82.8584997  87.4049988
 107.3160012  82.5744997  86.7079988 108.4410012  82.2634997  88.2909988
 108.0130012  84.3274997  87.7859988 108.9850012  84.7784997  88.0789988
 107.6520012  84.8074997  86.8509988 106.9630012  84.5764997  88.8439988
 106.0120012  84.1244997  88.4909988 107.3330012  84.0434997  89.7459988
 106.7340012  86.0494997  89.2079988 107.2160012  86.5534997  88.3429988
 105.7090012  86.4754997  89.1719988 107.4680012  86.4634997  90.4479988
 107.2040012  85.7094997  91.2189988 108.5630012  86.3894997  90.2739988
 107.1990012  87.8824997  90.9479988 107.6270012  88.5824997  90.1979988
 106.1050012  88.0744997  90.9109988 107.9180012  88.3134997  92.2169988
 108.0780012  89.4124997  92.2359988 107.1650012  87.9824997  92.9639988
 109.2160012  87.6694997  92.6279988 108.9820012  86.5874997  92.7189988
 109.9390012  87.8574997  91.8059988 109.8850012  88.1604997  93.9299988
 110.9950012  88.1514997  93.9529988 109.6160012  89.2384997  93.9039988
 109.3320012  87.6154997  95.3209988 108.2290012  87.7094997  95.2229988
 109.5630012  86.5434997  95.4939988 109.8140012  88.5274997  96.4179988
 110.9210012  88.5564997  96.3339988 109.5040012  89.5844997  96.5569988
 109.6190012  87.8404997  97.7509988 109.9770012  86.7944997  97.6439988
 110.2330012  88.3884997  98.4969988 108.1390012  87.8834997  98.1929988
 107.3280012  88.4694997  97.4759988 107.9220012  87.2664997  99.3889988
 106.6200012  87.0744997  99.9269988 106.5290012  87.2124997 101.0259988
 105.8400012  87.6924997  99.4339988 106.2180012  85.5944997  99.5929988
 105.1250012  85.5824997  99.7919988 106.9380012  84.5594997 100.5109988
 107.0410012  85.1364997 101.4539988 106.4160012  83.6024997 100.7269988
 108.2390012  84.2704997 100.0149988 109.2860012  83.5014997 100.9949988
 110.2460012  84.6584997 101.4629988 109.9270012  85.5104997 102.5369988
 108.9390012  85.2344997 102.9639988 110.5510012  85.3704997 103.4449988
 109.9080012  86.9794997 102.0389988 109.3050012  87.0694997 101.1479988
 109.3820012  87.4934997 102.8299988 111.2240012  87.5884997 101.7649988
 111.0440012  89.1344997 101.5789988 110.0990012  89.4014997 102.0279988
 111.9830012  89.6094997 101.8219988 110.8710012  89.4374997 100.5569988
 112.1760012  87.3264997 102.9089988 113.0600012  87.9464997 102.8799988
 111.6080012  87.4864997 103.8129988 112.3890012  86.2684997 102.8879988
 111.7780012  87.1054997 100.4799988 111.0520012  87.4834997  99.7749988
 111.6710012  86.0324997 100.4309988 112.7450012  87.5424997 100.2799988
 108.6640012  82.9824997 102.2489988 110.0020012  82.5204997 100.1519988
 106.4630012  85.4374997  98.1829988 106.1090012  84.2984997  97.6769988
 105.4010012  83.4534997  98.2349988 106.7780012  84.1124997  96.3559988
 106.4690012  84.8824997  95.6169988 106.4640012  83.1244997  95.9559988
 108.2910012  84.1694997  96.5489988 108.6120012  83.4794997  97.3579988
 108.6300012  85.1254997  97.0019988 108.9880012  83.7774997  95.1949988
 108.7990012  84.6844997  94.5819988 108.6710012  82.8414997  94.6869988
 110.5500012  83.7354997  95.4639988 110.8160012  82.9104997  96.1589988
 110.9150012  84.6944997  95.8899988 111.2030012  83.6494997  94.0769988
 111.2100012  84.6214997  93.5389988 110.7220012  82.8754997  93.4419988
 112.6470012  83.1404997  94.2459988 112.7110012  82.0454997  94.4229988
 113.1630012  83.6354997  95.0959988 113.5320012  83.3264997  92.9799988
 114.3740012  82.6044997  93.0299988 113.9620012  84.3514997  92.9929988
 112.8990012  83.1544997  91.5869988 112.4980012  82.1474997  91.4049988
 112.9060012  83.9864997  90.5319988 112.5150012  83.6614997  89.5559988
 113.5520012  85.3284997  90.3489988 113.9060012  85.5504997  89.3199988
 114.1720012  85.5914997  91.2319988 112.4070012  86.4084997  90.3479988
 112.7890012  87.4514997  90.3449988 111.7960012  86.4274997  91.2759988
 111.3740012  86.2174997  89.2659988 110.4840012  85.6364997  89.5869988
 111.8110012  85.6474997  88.4179988 110.8280012  87.5304997  88.6629988
 111.6910012  88.2144997  88.5189988 110.3000012  88.0514997  89.4899988
 110.0340012  87.4104997  87.3469988 109.1790012  86.7164997  87.4959988
 110.8300012  86.8154997  86.8519988 109.7410012  88.7484997  86.6359988
 109.5850012  89.6024997  87.3299988 108.8200012  88.6414997  86.0239988
 110.8050012  89.1874997  85.5309988 111.7620012  89.1544997  86.0939988
 110.5460012  90.2424997  85.2939988 110.7540012  88.2154997  84.3749988
 110.9590012  87.2074997  84.7949988 111.4470012  88.5784997  83.5869988
 109.7750012  88.1344997  83.8559988  58.2150012  35.3094997  83.1319988
  58.6950012  36.2484997  82.7829988  57.3320012  35.1634997  82.4739988
  58.8640012  34.4314997  82.9229988  57.7180012  35.3684997  84.5799988
  58.6170012  35.3074997  85.2289988  57.2530012  36.3644997  84.7399988
  56.8770012  34.1804997  85.0679988  56.0570012  34.1124997  84.3219988
  57.4330012  33.2344997  84.8949988  56.2700012  34.1784997  86.5139988
  55.7780012  35.1554997  86.7099988  55.5300012  33.3774997  86.7269988
  57.3430012  34.0334997  87.6349988  58.0580012  33.1964997  87.4879988
  57.9290012  34.9774997  87.6509988  56.7120012  33.7754997  89.0389988
  56.3550012  32.7274997  89.1269988  57.5500012  33.7694997  89.7679988
  55.6230012  34.7794997  89.4689988  56.0590012  35.8004997  89.5029988
  54.8010012  34.8934997  88.7299988  55.1080012  34.4514997  90.8439988
  55.0680012  33.3544997  91.0149988  55.7770012  34.8634997  91.6299988
  53.7380012  35.0944997  91.2149988  52.9940012  34.9684997  90.3999988
  53.3640012  34.4614997  92.0469988  53.8430012  36.6504997  91.3889988
  54.8940012  36.8774997  91.6709988  53.7190012  37.2114997  90.4379988
  52.7080012  37.1484997  92.2879988  51.7870012  36.8724997  91.7309988
  52.7430012  36.6424997  93.2759988  52.7430012  38.6404997  92.6199988
  52.6450012  39.3284997  91.7529988  51.8080012  38.8464997  93.1849988
  53.9200012  39.0844997  93.5149988  53.8200012  38.4634997  94.4309988
  54.9190012  38.8484997  93.0879988  53.9630012  40.5224997  94.1179988
  53.9240012  41.1854997  93.2279988  53.0530012  40.7284997  94.7199988
  55.1730012  40.8004997  94.9839988  56.2000012  40.6694997  94.5819988
  55.2230012  41.8334997  95.3909988  55.1930012  39.8534997  96.1999988
  55.7890012  38.7824997  96.1509988  54.4200012  40.2784997  97.2189988
  54.4920012  39.7204997  98.5189988  55.4880012  39.2924997  98.7589988
  54.1660012  40.4924997  99.2489988  53.5660012  38.4744997  98.7069988
  52.5500012  38.8004997  98.3949988  53.4710012  37.9494997 100.1829988
  53.4280012  38.8864997 100.7769988  52.5820012  37.2834997 100.2099988
  54.6500012  37.1814997 100.4439988  55.1910012  37.3364997 101.9709988
  55.3040012  35.8544997 102.5129988  56.6380012  35.2314997 102.7249988
  57.5220012  35.7884997 102.3479988  56.7160012  35.1504997 103.8309988
  56.7390012  33.8194997 102.1879988  57.7700012  33.5204997 102.3019988
  56.1910012  33.0854997 102.7609988  56.3400012  33.5854997 100.7719988
  56.9130012  34.6504997  99.8849988  56.6580012  34.2364997  98.9209988
  56.4330012  35.5744997 100.1719988  57.9700012  34.7224997 100.0939988
  56.9310012  32.2684997 100.2449988  56.5610012  31.4174997 100.7979988
  56.7090012  32.1004997  99.2009988  58.0000012  32.1704997 100.3609988
  54.8750012  33.5764997 100.6029988  54.4360012  32.8844997 101.3059988
  54.6200012  33.3384997  99.5809988  54.4460012  34.5344997 100.8569988
  56.5850012  37.8924997 101.9779988  54.2510012  38.0694997 102.8589988
  54.0590012  37.4324997  97.8609988  53.1790012  36.6354997  97.3249988
  52.0070012  36.4854997  97.6119988  53.8220012  35.7574997  96.2429988
  53.9230012  36.2524997  95.2539988  53.0870012  34.9294997  96.1499988
  55.2170012  35.2214997  96.7079988  54.9800012  34.6224997  97.6139988
  55.9200012  36.0034997  97.0669988  55.9800012  34.3534997  95.6799988
  55.2050012  33.6674997  95.2759988  56.8240012  33.7494997  96.0779988
  56.5690012  35.1944997  94.5509988  55.8860012  35.8874997  94.0159988
  56.8750012  34.4614997  93.7739988  57.7720012  36.0994997  94.8669988
  58.5590012  35.4574997  95.3159988  57.3590012  36.8334997  95.5909988
  58.4380012  36.7794997  93.6199988  58.7800012  36.0244997  92.8809988
  59.4080012  37.1794997  93.9839988  57.5250012  37.7734997  92.9589988
  57.0590012  38.3594997  93.7789988  56.6600012  37.2914997  92.4549988
  58.2230012  38.8484997  92.1779988  58.8860012  39.5004997  92.7669988
  58.1350012  39.1074997  90.9089988  58.7260012  39.9574997  90.5379988
  57.2670012  38.4144997  89.9169988  56.6240012  37.6284997  90.3669988
  57.9640012  37.8074997  89.2999988  56.5080012  39.3414997  89.0239988
  57.2460012  39.9434997  88.4519988  55.8100012  40.0364997  89.5389988
  55.7850012  38.5494997  87.9099988  54.8930012  38.0264997  88.3169988
  56.5610012  37.8784997  87.4849988  55.2230012  39.3694997  86.7499988
  55.9400012  39.9384997  86.1199988  54.5790012  40.1724997  87.1699988
  54.5680012  38.3654997  85.7299988  53.8840012  37.7834997  86.3829988
  55.4000012  37.8134997  85.2419988  53.6540012  38.9964997  84.6929988
  54.3530012  39.4924997  83.9859988  53.0130012  39.7054997  85.2589988
  52.6880012  38.0644997  83.9919988  52.3240012  38.6984997  83.1549988
  51.9160012  37.6384997  84.6689988  53.3590012  36.8594997  83.3289988
  54.0210012  37.1244997  82.4769988  52.6870012  36.0134997  83.0709988
  54.0650012  36.4304997  84.0729988 102.1720012  97.4284997  80.2419988
 103.2790012  97.4644997  80.3169988 101.6830012  98.3414997  80.6459988
 102.0360012  97.4454997  79.1399988 101.5780012  96.1054997  80.7959988
 100.5210012  95.9454997  80.4939988 102.1010012  95.2124997  80.3909988
 101.7030012  96.0564997  82.3379988 101.0330012  96.7544997  82.8829988
 101.3580012  95.0724997  82.7229988 103.0910012  96.3954997  82.8979988
 103.8540012  95.9114997  82.2529988 103.1350012  97.5054997  82.8619988
 103.2010012  96.1594997  84.4009988 102.4090012  96.7614997  84.8969988
 102.9020012  95.0984997  84.5389988 104.5510012  96.4984997  85.0419988
 105.1740012  95.8524997  84.3879988 104.7450012  97.5574997  84.7669988
 104.5940012  96.3934997  86.5349988 104.0420012  95.5094997  86.9189988
 105.6540012  96.2614997  86.8389988 103.8370012  97.4594997  87.3149988
 104.2340012  98.4764997  87.1129988 102.7700012  97.4074997  87.0099988
 103.8790012  97.4764997  88.8459988 104.9010012  97.5754997  89.2679988
 103.3050012  98.3594997  89.2009988 103.2310012  96.2544997  89.4519988
 102.2390012  96.1544997  88.9619988 104.0000012  95.4594997  89.3499988
 103.0770012  96.2364997  90.9939988 104.0450012  96.6664997  91.3289988
 102.3510012  97.0234997  91.2889988 102.7390012  94.8674997  91.5289988
 103.2330012  94.1064997  90.8869988 103.1420012  94.8044997  92.5619988
 101.1320012  94.7164997  91.6139988 100.7090012  95.6654997  92.0079988
 100.6850012  94.5924997  90.6039988 100.7270012  93.5004997  92.4779988
 100.7870012  92.5684997  91.8749988 101.4870012  93.4704997  93.2879988
  99.3430012  93.6194997  93.1619988  98.7030012  94.1984997  92.4619988
  98.9580012  92.6084997  93.4159988  99.4310012  94.4314997  94.4509988
  99.4450012  93.9624997  95.5469988  99.3640012  95.6824997  94.1409988
  98.8610012  96.6404997  95.0559988  98.5430012  97.5284997  94.4689988
  97.9580012  96.2594997  95.5789988  99.8370012  96.9154997  96.1909988
 100.0360012  95.9084997  96.6149988  99.2820012  97.8934997  97.2659988
  99.3550012  98.9554997  96.9479988  98.2190012  97.6184997  97.4359988
 100.0470012  97.8974997  98.4679988  99.7270012  96.9094997  99.6609988
 101.0460012  96.9524997 100.4699988 101.3920012  98.1914997 101.1519988
 102.4800012  98.3544997 100.9969988 100.9690012  99.0924997 100.6579988
 101.0930012  97.9824997 102.6419988 101.2690012  98.9014997 103.1819988
 100.0240012  97.8564997 102.7239988 101.7510012  96.8414997 103.3869988
 103.2590012  96.9664997 103.2829988 103.7800012  96.2184997 103.8619988
 103.6660012  96.9304997 102.2829988 103.5880012  97.8834997 103.7479988
 101.3960012  96.9704997 104.7939988 100.3190012  96.9694997 104.8689988
 101.7470012  96.1604997 105.4159988 101.7300012  97.9474997 105.1129988
 101.3160012  95.5654997 102.7829988 100.2540012  95.3744997 102.8239988
 101.9610012  94.8094997 103.2079988 101.4620012  95.5324997 101.7129988
  98.6110012  97.3944997 100.4719988  99.5210012  95.5784997  99.0689988
 101.0220012  97.4554997  95.6099988 102.1870012  97.0494997  96.1729988
 102.4020012  96.1364997  96.9349988 103.2170012  97.9934997  95.7559988
 104.2260012  97.8074997  96.1799988 102.9750012  98.9864997  96.1919988
 103.3990012  98.1374997  94.3049988 102.4890012  98.3604997  93.7079988
 103.8150012  97.1664997  93.9609988 104.3870012  99.1924997  93.9579988
 105.4220012  98.8934997  94.2279988 104.1830012 100.0424997  94.6439988
 104.5570012  99.6784997  92.4869988 104.7130012  98.7544997  91.8909988
 105.3540012 100.4424997  92.3569988 103.2790012 100.2724997  91.9029988
 102.4470012  99.5364997  91.8799988 103.5720012 100.3064997  90.8319988
 102.7500012 101.6374997  92.4559988 103.1630012 102.4604997  91.8339988
 102.9620012 101.5794997  93.5449988 101.1660012 101.8534997  92.4119988
 100.7440012 101.5934997  91.4179988 100.9680012 102.8994997  92.7319988
 100.4820012 100.9724997  93.4689988 100.3510012 101.4344997  94.4579988
  99.8110012  99.7874997  93.3149988  99.5170012  99.2464997  94.2269988
  99.5950012  99.0824997  91.9909988 100.0050012  98.0604997  92.1409988
 100.1300012  99.4484997  91.0889988  98.1190012  99.1344997  91.6929988
  97.8140012 100.1884997  91.5169988  97.5190012  98.6764997  92.5079988
  97.6370012  98.4414997  90.3539988  98.0580012  98.9104997  89.4389988
  96.5300012  98.5264997  90.3009988  97.9510012  96.9224997  90.3439988
  96.9860012  96.3724997  90.3659988  98.3680012  96.6994997  91.3489988
  98.8870012  96.3434997  89.3709988  99.0150012  95.2524997  89.5359988
  99.8700012  96.8234997  89.5619988  98.5760012  96.6664997  87.8509988
  98.6280012  97.7714997  87.7449988  97.5560012  96.2584997  87.6869988
  99.5730012  95.9424997  86.9359988  99.5320012  94.9014997  87.3209988
 100.6000012  96.3544997  87.0339988  99.1960012  95.8174997  85.4449988
  99.9580012  95.1484997  84.9899988  99.1220012  96.7274997  84.8109988
  98.2650012  95.2254997  85.3129988 110.7610012  43.9114997  84.8019988
 110.0710012  43.4304997  84.0759988 110.6830012  43.4094997  85.7899988
 111.8160012  43.9914997  84.4639988 110.1900012  45.3464997  85.1339988
 110.8680012  45.6244997  85.9699988 110.5320012  46.0454997  84.3409988
 108.7100012  45.7564997  85.4649988 108.1960012  45.4994997  84.5139988
 108.2930012  45.0364997  86.2009988 108.5280012  47.2214997  85.9819988
 109.0000012  47.9484997  85.2869988 107.4290012  47.3594997  86.0719988
 109.0500012  47.4644997  87.3639988 110.0530012  46.9884997  87.3929988
 109.0300012  48.5554997  87.5719988 108.1590012  46.7684997  88.4679988
 107.1880012  47.3074997  88.4659988 107.9810012  45.6824997  88.3209988
 108.7920012  47.0434997  89.8629988 109.8470012  46.6964997  89.8719988
 108.8670012  48.1144997  90.1479988 108.0940012  46.2184997  90.9589988
 107.4680012  45.4424997  90.4699988 108.8500012  45.6714997  91.5609988
 107.3130012  46.9294997  92.0109988 106.4140012  47.4844997  91.6679988
 106.8250012  46.1464997  92.6299988 108.1430012  47.8844997  92.8879988
 109.1270012  47.4524997  93.1669988 108.2730012  48.8934997  92.4409988
 107.4730012  48.1774997  94.2909988 107.9900012  49.0724997  94.6979988
 106.4410012  48.4954997  94.0269988 107.4770012  46.9834997  95.2539988
 106.7860012  47.2374997  96.0859988 107.0480012  46.1034997  94.7279988
 108.8240012  46.6324997  95.8549988 109.4900012  46.2044997  95.0749988
 109.4470012  47.4774997  96.2189988 108.6690012  45.6254997  97.0059988
 108.0120012  46.0564997  97.7899988 108.1320012  44.7014997  96.7009988
 110.0330012  45.0754997  97.5779988 110.4590012  44.4564997  96.7589988
 110.7970012  45.8704997  97.7119988 109.8700012  44.1344997  98.7119988
 108.8290012  43.5544997  99.1199988 111.0470012  44.0684997  99.3329988
 111.0160012  43.4914997 100.6899988 110.1400012  42.8474997 100.9179988
 111.8840012  42.8104997 100.8179988 111.1780012  44.5584997 101.8419988
 111.3730012  44.0794997 102.8249988 109.8390012  45.3434997 101.9489988
 109.7350012  45.8934997 100.9889988 109.0280012  44.5994997 102.1019988
 109.8490012  46.2394997 103.0889988 109.1800012  47.6594997 102.9939988
 109.6000012  48.1934997 101.5519988 109.0010012  49.2874997 100.9889988
 108.5480012  49.0174997 100.0109988 108.0640012  49.6074997 101.4919988
 109.9220012  50.5544997 100.7979988 109.4160012  51.3274997 100.2379988
 110.0990012  50.9124997 101.8009988 111.2320012  50.2964997 100.1509988
 110.9290012  49.5644997  98.8079988 110.2390012  50.0744997  98.1509988
 111.9280012  49.4914997  98.4049988 110.6520012  48.5384997  98.9959988
 111.9490012  51.5164997  99.7729988 111.9760012  52.2044997 100.6049988
 112.9620012  51.2314997  99.5299988 111.4000012  51.8744997  98.9149988
 112.1440012  49.5204997 101.0789988 111.6740012  48.6944997 101.5919988
 112.5450012  50.3174997 101.6879988 112.8410012  49.0484997 100.4029988
 107.7240012  47.5094997 102.9489988 109.8090012  48.5344997 103.9979988
 112.1780012  45.5364997 101.5209988 113.4260012  45.2404997 101.7869988
 113.8020012  44.2674997 102.3659988 114.3120012  46.3424997 101.3019988
 115.2790012  46.3674997 101.8479988 113.7610012  47.3044997 101.3719988
 114.5840012  46.0184997  99.7969988 113.6020012  46.1564997  99.2959988
 115.0910012  45.0634997  99.5429988 115.5590012  46.9654997  99.0739988
 116.5470012  46.7424997  99.5289988 115.2570012  48.0304997  99.1699988
 115.7670012  46.6764997  97.5209988 115.4410012  45.6284997  97.3499988
 116.8360012  46.6224997  97.2239988 114.8890012  47.5554997  96.5799988
 115.2160012  48.6174997  96.5669988 113.8950012  47.5084997  97.0729988
 114.8990012  47.0004997  95.0839988 114.8490012  45.8934997  95.1629988
 115.8710012  47.3224997  94.6509988 113.6100012  47.3604997  94.3159988
 112.8020012  47.3364997  95.0789988 113.3700012  46.5164997  93.6349988
 113.6190012  48.6974997  93.6919988 113.0300012  49.4164997  94.2799988
 114.3960012  48.9284997  92.5729988 114.2570012  49.9374997  92.1569988
 115.3070012  47.9324997  91.7939988 115.3050012  46.8884997  92.1749988
 116.3910012  48.1384997  91.9269988 114.8820012  47.9554997  90.2969988
 113.7840012  48.0584997  90.1589988 115.3000012  47.0554997  89.7999988
 115.4230012  49.1074997  89.5519988 116.5040012  49.2274997  89.7779988
 114.8760012  50.0024997  89.9189988 115.2220012  49.2044997  87.9779988
 115.9860012  48.6054997  87.4359988 115.4740012  50.2604997  87.7439988
 113.7980012  48.8584997  87.4629988 112.9380012  49.3134997  87.9989988
 113.6170012  47.7704997  87.5969988 113.6160012  49.1934997  85.9029988
 114.3870012  48.6514997  85.3149988 113.7830012  50.2704997  85.6869988
 112.2660012  48.9844997  85.2729988 111.5630012  49.6834997  85.7749988
 111.9120012  47.9324997  85.3199988 112.2200012  49.3724997  83.8499988
 112.7480012  48.6264997  83.2199988 112.5570012  50.4134997  83.6579988
 111.1650012  49.3344997  83.5009988  35.3570012  52.6984997  84.8359988
  34.5850012  53.3994997  85.2189988  35.0040012  51.6694997  85.0599988
  35.4070012  52.6694997  83.7269988  36.6780012  53.0114997  85.4649988
  36.6000012  52.9224997  86.5689988  37.3370012  52.1414997  85.2569988
  37.3130012  54.3454997  85.1119988  37.0270012  54.6974997  84.0979988
  36.9040012  55.1484997  85.7629988  38.8510012  54.3764997  85.2129988
  39.1320012  53.7114997  84.3689988  39.0940012  55.4384997  84.9979988
  39.4240012  53.8424997  86.5059988  39.0890012  52.8294997  86.8139988
  40.5250012  53.7884997  86.3649988  39.0800012  54.8864997  87.6519988
  39.1220012  55.9164997  87.2389988  38.0290012  54.7444997  87.9819988
  39.9170012  54.7464997  88.9189988  40.9360012  55.1884997  88.8979988
  39.4380012  55.4104997  89.6699988  40.0120012  53.3514997  89.4849988
  40.4900012  52.6614997  88.7569988  40.7320012  53.4084997  90.3299988
  38.6880012  52.7844997  90.0039988  38.0880012  52.3484997  89.1769988
  38.8980012  51.8984997  90.6399988  37.8660012  53.7564997  90.8889988
  38.6530012  53.9084997  91.6579988  37.5580012  54.7354997  90.4639988
  36.6580012  53.0604997  91.4439988  36.2150012  52.4704997  90.6139988
  37.1530012  52.4234997  92.2079988  35.5760012  53.9644997  92.1899988
  35.3370012  54.8564997  91.5719988  34.5880012  53.4794997  92.3379988
  36.0950012  54.3024997  93.5559988  37.0920012  53.9094997  93.8499988
  36.1920012  55.3904997  93.7549988  35.1830012  53.6814997  94.5959988
  34.1340012  54.0384997  94.5189988  35.1860012  52.6014997  94.3339988
  35.7250012  53.9354997  95.9639988  36.8170012  53.7584997  96.0579988
  35.4790012  54.9514997  96.3409988  34.9820012  52.9424997  96.9169988
  34.1000012  52.1144997  96.5159988  35.3530012  53.1864997  98.1519988
  34.7550012  52.3964997  99.1819988  34.5220012  52.9764997 100.0999988
  33.7400012  51.9894997  98.9799988  35.6990012  51.2524997  99.6169988
  35.2630012  50.6444997 100.4379988  36.9540012  51.7354997 100.3129988
  36.6120012  52.4794997 101.0639988  37.3990012  50.9084997 100.9049988
  37.9530012  52.2884997  99.4759988  39.4450012  51.8364997  99.3269988
  40.0920012  52.0124997 100.7499988  40.6060012  53.3444997 101.1189988
  41.5700012  53.5604997 100.6099988  39.9040012  54.1794997 100.9079988
  40.8910012  53.4604997 102.6239988  41.4910012  52.6034997 102.8929988
  41.4550012  54.3614997 102.8159988  39.6760012  53.5294997 103.6049988
  38.5520012  54.3964997 103.2259988  38.9320012  55.3744997 102.9689988
  38.1090012  54.0974997 102.2879988  37.8110012  54.5334997 103.9989988
  39.1870012  52.1774997 103.6579988  38.6610012  51.9484997 104.5729988
  38.5670012  52.0384997 102.7839988  40.0330012  51.5064997 103.7029988
  40.1820012  53.9784997 104.9869988  39.3350012  54.0534997 105.6529988
  40.5920012  54.9704997 104.8669988  40.9180012  53.3134997 105.4149988
  39.4250012  50.3534997  99.0529988  40.1550012  52.6744997  98.3569988
  35.9650012  50.5044997  98.4409988  35.5630012  49.2534997  98.3379988
  34.9630012  48.6724997  99.1969988  35.9750012  48.7024997  97.0199988
  35.1170012  48.8794997  96.3369988  36.0490012  47.5984997  97.1279988
  37.3140012  49.3494997  96.4979988  38.1420012  49.0124997  97.1579988
  37.2670012  50.4454997  96.3179988  37.7140012  48.7144997  95.1699988
  36.9010012  48.9184997  94.4409988  37.8580012  47.6134997  95.2149988
  38.9040012  49.4044997  94.5329988  39.8150012  48.9914997  95.0169988
  38.9040012  50.4894997  94.7689988  39.0410012  49.2994997  93.0269988
  39.9880012  49.8054997  92.7429988  38.1840012  49.8924997  92.6419988
  38.9690012  47.9244997  92.4379988  37.9520012  47.5144997  92.6159988
  39.7350012  47.2464997  92.8699988  39.1430012  47.9564997  90.9529988
  39.0250012  46.8774997  90.7169988  40.2060012  48.1544997  90.6979988
  38.1710012  48.7504997  90.0609988  37.0960012  48.6954997  90.2869988
  38.4890012  49.4034997  88.9329988  37.7210012  50.0214997  88.4459988
  39.7800012  49.5704997  88.2859988  40.5290012  49.9074997  89.0349988
  39.8030012  50.4334997  87.5869988  40.5380012  48.2934997  87.8389988
  40.6440012  47.6144997  88.7119988  41.5500012  48.4344997  87.4029988
  39.8220012  47.4474997  86.7429988  38.7300012  47.3754997  86.9329988
  40.4130012  46.5244997  86.5589988  39.6870012  48.2134997  85.3289988
  40.7010012  48.5534997  85.0299988  39.0370012  49.0924997  85.5249988
  39.2210012  47.2834997  84.2469988  38.1560012  47.0184997  84.4199988
  39.8390012  46.3644997  84.3299988  39.3730012  48.1074997  82.8879988
  40.4420012  48.1374997  82.5899988  38.9420012  49.1314997  82.8909988
  38.7340012  47.3874997  81.7069988  37.6450012  47.4894997  81.9009988
  38.8280012  46.2804997  81.7379988  39.1790012  47.9114997  80.3809988
  39.3810012  47.0744997  79.6789988  40.1370012  48.4714997  80.3269988
  38.3770012  48.5064997  79.8929988  39.0680012 111.5244997  84.5449988
  39.4150012 112.0414997  83.6249988  39.8640012 110.8584997  84.9399988
  38.8340012 112.2604997  85.3439988  37.7590012 110.6724997  84.2189988
  38.0810012 109.9094997  83.4779988  37.5210012 110.3294997  85.2489988
  36.5800012 111.5034997  83.7559988  36.9550012 111.9204997  82.7969988
  35.7750012 110.7634997  83.5589988  36.2520012 112.7144997  84.6909988
  37.1240012 113.3984997  84.7769988  35.5570012 113.2564997  84.0149988
  35.7760012 112.4844997  86.1299988  34.7960012 111.9634997  86.0849988
  36.4600012 111.7774997  86.6479988  35.5350012 113.7204997  86.9369988
  36.3510012 114.4474997  86.7379988  34.5940012 114.2544997  86.6839988
  35.4040012 113.3714997  88.3729988  35.2790012 114.3574997  88.8689988
  34.4800012 112.8154997  88.6419988  36.6650012 112.6814997  89.0979988
  36.6260012 111.5824997  88.9429988  37.5900012 113.0854997  88.6329988
  36.5950012 112.7524997  90.5999988  35.5480012 112.4964997  90.8719988
  37.3420012 111.9854997  90.8949988  36.9650012 114.1554997  91.1519988
  37.8900012 114.4414997  90.6049988  36.3290012 115.0364997  90.9179988
  37.2500012 114.2074997  92.6609988  38.2860012 113.8724997  92.8769988
  37.3090012 115.2394997  93.0689988  36.2700012 113.4934997  93.6139988
  36.1700012 112.3904997  93.5199988  36.6110012 113.5754997  94.6679988
  34.8960012 114.1174997  93.6369988  34.9420012 115.2274997  93.6229988
  34.4270012 113.8624997  92.6629988  34.0790012 113.6624997  94.8719988
  33.8860012 112.5714997  94.7889988  34.5630012 113.8224997  95.8589988
  32.6650012 114.3314997  94.9499988  32.8820012 115.3934997  95.1919988
  32.1740012 114.3824997  93.9549988  31.7480012 113.6434997  96.0079988
  30.7480012 113.0514997  95.8059988  32.4330012 113.5874997  97.1679988
  31.9160012 112.9884997  98.4009988  32.3350012 113.4474997  99.3229988
  30.8090012 113.0754997  98.3629988  32.1930012 111.4754997  98.5779988
  31.4490012 110.9984997  97.9049988  32.0790012 110.9244997 100.0369988
  31.2140012 111.3964997 100.5499988  31.8490012 109.8494997 100.1969988
  33.3230012 111.1204997 100.6859988  33.4400012 111.6294997 102.2089988
  35.0470012 111.9944997 102.3229988  35.7330012 112.1844997 101.1079988
  35.1070012 112.8344997 100.4599988  36.6270012 112.8134997 101.3099988
  36.0500012 110.9144997 100.3509988  35.1530012 110.4824997  99.9319988
  36.6220012 111.3294997  99.5339988  36.8340012 109.7714997 100.9129988
  35.8530012 108.8794997 101.6249988  35.3250012 108.3574997 100.8409988
  36.3910012 108.0524997 102.0629988  35.1170012 109.3834997 102.2339988
  37.3790012 108.9064997  99.7309988  37.9010012 108.1244997 100.2629988
  36.5900012 108.4154997  99.1809988  38.0640012 109.4694997  99.1149988
  37.9190012 110.2324997 101.8659988  38.5100012 111.0264997 101.4349988
  38.5600012 109.3844997 102.0559988  37.4360012 110.7264997 102.6969988
  32.6880012 112.8694997 102.3289988  33.0780012 110.5044997 103.0399988
  33.4430012 111.2014997  97.9449988  33.7540012 109.9384997  97.7869988
  33.1780012 108.9464997  98.1549988  35.0040012 109.9304997  96.8569988
  35.9310012 109.7264997  97.4359988  34.9400012 110.8964997  96.3119988
  34.9150012 108.7144997  95.8889988  33.8690012 108.7494997  95.5159988
  35.0230012 107.7944997  96.5019988  35.9220012 108.8144997  94.7059988
  36.9280012 108.6214997  95.1349988  35.9360012 109.8634997  94.3419988
  35.5110012 107.8724997  93.5169988  35.3630012 106.7894997  93.7149988
  36.3890012 107.9664997  92.8429988  34.3200012 108.4714997  92.6369988
  33.3640012 108.2254997  93.1479988  34.4010012 107.9054997  91.6849988
  34.4920012 109.8984997  92.1479988  35.4570012 109.9574997  91.5989988
  34.6190012 110.5464997  93.0419988  33.4060012 110.4114997  91.2529988
  33.3820012 109.7704997  90.3459988  33.7070012 111.3734997  90.7849988
  32.0720012 110.5614997  91.9209988  32.0870012 111.2334997  92.7909988
  30.9350012 110.1754997  91.3549988  29.9820012 110.1724997  91.9049988
  30.6710012 109.5414997  89.9979988  30.2480012 108.5254997  90.1459988
  31.5720012 109.1844997  89.4549988  29.7550012 110.3994997  89.1399988
  28.8120012 110.6834997  89.6549988  29.4750012 109.7374997  88.2919988
  30.3870012 111.6634997  88.6769988  30.7890012 112.1254997  89.6039988
  29.5870012 112.3324997  88.2929988  31.4380012 111.5304997  87.6039988
  32.3780012 111.0274997  87.9169988  31.7990012 112.4924997  87.1819988
  31.1310012 110.7044997  86.3439988  30.1730012 110.9284997  85.8279988
  30.9980012 109.6204997  86.5469988  32.3380012 110.8354997  85.3919988
  33.2860012 110.6044997  85.9229988  32.2790012 111.8684997  84.9869988
  32.2090012 109.8414997  84.2239988  32.6340012 108.8344997  84.4209988
  32.7650012 110.3474997  83.4049988  30.7800012 109.7224997  83.5839988
  30.2240012 110.6554997  83.3539988  30.1330012 109.0864997  84.2259988
  30.8310012 109.2254997  82.5909988  64.3910012  31.7514997  84.4369988
  64.6730012  31.1634997  83.5379988  64.7860012  32.7884997  84.4009988
  63.2940012  31.8414997  84.5919988  65.0110012  30.9324997  85.4869988
  64.5450012  29.9334997  85.6199988  66.0380012  30.6434997  85.1779988
  65.0330012  31.3834997  86.9239988  65.4220012  30.5614997  87.5629988
  65.7390012  32.2384997  86.9929988  63.7070012  31.6874997  87.6909988
  63.0130012  32.2474997  87.0279988  63.2990012  30.6784997  87.9159988
  63.9470012  32.3624997  89.0419988  64.9240012  32.0314997  89.4539988
  64.1370012  33.4444997  88.8739988  62.9500012  32.2364997  90.2149988
  61.9800012  32.6794997  89.9029988  62.6770012  31.1774997  90.4089988
  63.4460012  32.8944997  91.5069988  64.4160012  32.4314997  91.7859988
  63.6300012  33.9774997  91.3379988  62.4710012  32.8604997  92.7339988
  62.7810012  33.6324997  93.4709988  61.4790012  33.1724997  92.3429988
  62.2130012  31.5154997  93.4149988  61.7380012  30.9314997  92.5979988
  63.1100012  31.0444997  93.8709988  61.2120012  31.4414997  94.6199988
  61.5840012  32.0214997  95.4909988  60.3110012  31.9774997  94.2519988
  60.9020012  29.9864997  95.0169988  60.5550012  29.3334997  94.1879988
  61.9100012  29.6784997  95.3679988  59.9400012  29.8924997  96.1549988
  60.1780012  30.7704997  96.7929988  58.9330012  30.1884997  95.7909988
  59.9670012  28.5834997  96.9589988  59.2370012  28.8164997  97.7639988
  59.6440012  27.6964997  96.3729988  61.4030012  28.3144997  97.4759988
  62.1090012  28.1504997  96.6329988  61.6810012  29.2514997  98.0039988
  61.5050012  27.1944997  98.4159988  60.8340012  27.5244997  99.2379988
  61.0450012  26.2824997  97.9789988  62.8950012  26.9484997  98.9359988
  63.0530012  26.1424997  99.8399988  63.8450012  27.6274997  98.3759988
  65.1040012  27.4154997  99.0409988  65.0060012  27.5054997 100.1439988
  65.5100012  26.4424997  98.6899988  66.0840012  28.5494997  98.5379988
  67.1020012  28.1634997  98.7629988  65.7830012  29.8344997  99.2679988
  65.6450012  29.4994997 100.3189988  66.5640012  30.6204997  99.1909988
  64.6490012  30.4574997  98.6739988  64.2550012  31.7944997  99.5379988
  63.6820012  31.2094997 100.9359988  62.9060012  30.0284997 100.9589988
  61.8780012  30.4324997 101.0829988  63.0620012  29.4174997 100.0449988
  63.3160012  28.9974997 102.0859988  62.6060012  28.1834997 102.0569988
  64.2620012  28.5384997 101.8399988  63.2340012  29.4694997 103.5149988
  61.8010012  29.9734997 103.6599988  61.0670012  29.3404997 103.1839988
  61.5020012  29.9834997 104.6979988  61.7580012  30.9584997 103.2209988
  63.4390012  28.2904997 104.4149988  64.3450012  27.7844997 104.1149988
  63.4820012  28.5544997 105.4609988  62.6830012  27.5344997 104.2629988
  64.1780012  30.5344997 103.8489988  63.9690012  31.3684997 103.1969988
  65.1860012  30.1804997 103.6889988  64.0370012  30.8024997 104.8859988
  65.4130012  32.6554997  99.7169988  63.1000012  32.3384997  98.8309988
  65.9950012  28.8254997  97.0969988  66.3530012  27.7994997  96.3069988
  66.8380012  26.7304997  96.6929988  66.3900012  28.2454997  94.8239988
  67.4360012  28.1164997  94.4739988  66.1330012  29.3234997  94.7389988
  65.3720012  27.3394997  94.0169988  65.8180012  26.3214997  94.0319988
  65.4380012  27.6204997  92.9439988  63.9990012  27.3084997  94.5889988
  63.4470012  28.2684997  94.5009988  64.1080012  27.0624997  95.6669988
  63.0860012  26.3484997  93.8749988  63.6070012  25.3734997  93.7559988
  62.9440012  26.7774997  92.8599988  61.7030012  26.1344997  94.5299988
  61.3000012  27.1694997  94.5259988  61.7410012  25.8534997  95.6039988
  60.7000012  25.2504997  93.7379988  59.7980012  25.2674997  94.3869988
  60.9820012  24.1794997  93.8319988  60.4460012  25.5034997  92.1809988
  59.5470012  24.8864997  91.9679988  61.3140012  25.0744997  91.6359988
  60.2250012  26.9164997  91.8309988  59.5840012  27.4214997  92.5689988
  60.6630012  27.6494997  90.7939988  60.3430012  28.6654997  90.5189988
  61.5650012  27.0184997  89.7039988  62.1140012  26.1114997  90.0369988
  62.3200012  27.7814997  89.4159988  60.7620012  26.5094997  88.4859988
  59.8330012  26.0614997  88.8979988  61.4020012  25.8364997  87.8749988
  60.4490012  27.5094997  87.3769988  59.8450012  28.3764997  87.7209988
  59.8540012  26.8884997  86.6739988  61.8000012  27.9104997  86.7169988
  62.2550012  27.0524997  86.1769988  62.5240012  28.2334997  87.4949988
  61.7460012  28.9494997  85.5239988  62.7850012  29.1124997  85.1669988
  61.4200012  29.9514997  85.8779988  60.7760012  28.5544997  84.4449988
  59.8130012  28.7754997  84.9519988  60.8090012  27.4574997  84.2749988
  60.9780012  29.0834997  83.0409988  61.0600012  30.1914997  83.0089988
  60.0330012  28.8204997  82.5199988  62.2900012  28.5714997  82.4079988
  62.6260012  28.9404997  81.4149988  62.2840012  27.4624997  82.3329988
  63.1110012  28.8394997  83.1059988  33.4650012  65.9644997  84.9089988
  33.8860012  64.9444997  84.7759988  33.3460012  66.5184997  83.9529988
  32.4120012  65.8294997  85.2369988  34.2050012  66.7244997  85.9729988
  35.2080012  67.0164997  85.5949988  33.7260012  67.7024997  86.1929988
  34.2780012  66.0454997  87.3609988  35.1530012  65.3664997  87.4479988
  34.5550012  66.8494997  88.0759988  32.9850012  65.2524997  87.7549988
  32.1040012  65.8794997  87.4979988  32.9040012  64.3504997  87.1119988
  32.8870012  64.9154997  89.2669988  33.7750012  64.3564997  89.6319988
  32.9320012  65.8774997  89.8209988  31.5390012  64.3854997  89.6589988
  30.8510012  65.0374997  89.0799988  31.3650012  63.3364997  89.3369988
  31.1530012  64.4324997  91.0829988  31.4680012  65.4104997  91.5059988
  30.0460012  64.4134997  91.1699988  31.7890012  63.2994997  91.9189988
  31.4760012  62.3874997  91.3679988  32.8780012  63.5004997  92.0179988
  31.1360012  63.4274997  93.3209988  31.2870012  64.4294997  93.7759988
  30.0360012  63.3004997  93.2279988  31.7760012  62.4914997  94.3859988
  31.8440012  61.5494997  93.8019988  32.8750012  62.6574997  94.3939988
  31.1230012  62.5334997  95.7759988  30.1270012  62.0434997  95.8279988
  31.7260012  61.7624997  96.3019988  31.1720012  63.8964997  96.5489988
  30.6580012  64.5494997  95.8109988  30.5580012  63.6414997  97.4389988
  32.6020012  64.2924997  97.1049988  32.8700012  63.6954997  98.0029988
  33.3730012  64.1184997  96.3249988  32.7810012  65.7834997  97.4599988
  32.5650012  66.3254997  96.5149988  31.9850012  66.0874997  98.1739988
  34.1830012  66.1094997  97.9319988  34.2360012  65.6784997  98.9539988
  34.9450012  65.8254997  97.1749988  34.1280012  67.6104997  98.1049988
  33.7430012  68.3264997  97.1969988  34.3140012  68.0054997  99.3879988
  34.2530012  69.4434997  99.6279988  35.0240012  69.6764997 100.3939988
  34.6040012  70.0864997  98.7919988  32.8880012  69.7464997 100.2649988
  32.8740012  70.8304997 100.5089988  32.6670012  69.0054997 101.6129988
  33.5320012  69.3194997 102.2359988  31.8270012  69.4384997 102.1979988
  32.6660012  67.5524997 101.5159988  31.4100012  66.8124997 102.0889988
  31.7860012  65.2504997 102.1819988  32.0620012  64.6354997 100.9559988
  32.5760012  65.2864997 100.2169988  32.7890012  63.8154997 101.1389988
  30.7300012  64.0964997 100.2439988  30.1420012  64.9434997  99.9229988
  31.1220012  63.6084997  99.3629988  29.8270012  63.0874997 100.9419988
  28.6340012  62.6414997 100.0889988  29.1040012  62.2714997  99.1899988
  28.1540012  61.7854997 100.5399988  27.8800012  63.4074997  99.9869988
  30.7230012  61.8884997 101.4139988  31.4520012  62.1644997 102.1609988
  30.0500012  61.1554997 101.8339988  31.1780012  61.4544997 100.5349988
  29.2410012  63.7034997 102.1359988  28.6360012  64.4984997 101.7259988
  30.0680012  64.0424997 102.7419988  28.6200012  63.1364997 102.8149988
  31.2360012  67.3514997 103.4519988  30.3500012  67.0844997 101.1619988
  31.8410012  69.4354997  99.3319988  31.0510012  70.3654997  98.8489988
  31.1280012  71.5324997  99.1409988  29.9680012  69.7324997  97.9949988
  29.6590012  70.5234997  97.2769988  29.1050012  69.4974997  98.6539988
  30.4620012  68.4394997  97.2679988  30.7570012  67.7384997  98.0779988
  31.4000012  68.6054997  96.6949988  29.3670012  67.6574997  96.4889988
  28.5050012  67.5804997  97.1859988  29.5650012  66.5854997  96.2769988
  28.9980012  68.3894997  95.1629988  29.8890012  68.8044997  94.6449988
  28.4120012  69.2994997  95.4119988  28.2720012  67.5474997  94.1819988
  27.2280012  67.2224997  94.3789988  28.7680012  66.5724997  93.9869988
  28.2090012  68.3614997  92.8469988  29.1660012  68.2734997  92.2889988
  27.9810012  69.4104997  93.1349988  27.1110012  67.8164997  91.9789988
  26.9100012  68.5214997  91.1449988  26.2150012  67.6904997  92.6239988
  27.2950012  66.3644997  91.4829988  27.1730012  65.6054997  92.2699988
  27.5720012  65.8954997  90.2629988  27.7110012  64.8054997  90.2119988
  27.8220012  66.7764997  89.0929988  26.9560012  67.3314997  88.6739988
  28.0910012  66.1144997  88.2419988  28.9830012  67.7694997  89.2819988
  29.7510012  67.2154997  89.8629988  28.5780012  68.6664997  89.7969988
  29.5650012  68.1294997  87.9219988  28.8140012  68.5114997  87.1979988
  30.0240012  67.2234997  87.4719988  30.7010012  69.1074997  88.1159988
  31.3970012  68.5734997  88.7979988  30.2500012  69.9384997  88.6989988
  31.4300012  69.6494997  86.8369988  31.5150012  68.9104997  86.0119988
  32.4760012  69.8564997  87.1459988  30.9310012  70.9834997  86.3029988
  30.7670012  71.7264997  87.1119988  29.9420012  70.8324997  85.8189988
  31.8980012  71.7054997  85.3019988  32.9350012  71.4194997  85.5809988
  31.7290012  72.8034997  85.3009988  31.7590012  71.2194997  83.7939988
  31.9570012  70.1304997  83.7039988  32.2040012  71.9084997  83.0429988
  30.6890012  71.3684997  83.5329988  25.9910012 106.1414997  82.1239988
  24.9210012 106.4354997  82.1819988  26.3440012 106.2994997  81.0829988
  26.6720012 106.6654997  82.8279988  26.1850012 104.5804997  82.6009988
  25.8170012 104.0664997  81.6879988  27.2610012 104.3194997  82.6969988
  25.3790012 104.1994997  83.8119988  24.2990012 104.2384997  83.5549988
  25.6010012 103.1164997  83.9179988  25.6740012 104.8804997  85.0889988
  25.6050012 104.2574997  86.0059988  26.7090012 105.2814997  85.1499988
  24.7270012 106.0144997  85.4079988  24.4750012 106.6044997  84.5009988
  23.6760012 105.6704997  85.5109988  25.2800012 106.7604997  86.5699988
  26.3750012 106.8894997  86.4319988  24.7290012 107.7224997  86.4949988
  24.9110012 106.0654997  87.8559988  23.8250012 105.8434997  87.9319988
  25.4970012 105.1214997  87.8249988  25.2860012 106.7874997  89.2099988
  25.2570012 105.9944997  89.9879988  26.3130012 107.1964997  89.0979988
  24.3660012 107.9404997  89.5809988  24.4390012 108.6684997  88.7449988
  23.3350012 107.5474997  89.7149988  24.7460012 108.6064997  90.8749988
  25.6520012 109.2374997  90.7479988  23.9190012 109.2924997  91.1589988
  24.8590012 107.5224997  91.9759988  24.0170012 106.8074997  92.0939988
  25.8150012 106.9804997  91.8089988  25.0240012 108.1074997  93.4049988
  25.7790012 108.9144997  93.5179988  24.0990012 108.4714997  93.8999988
  25.6720012 107.1304997  94.4439988  26.7470012 106.9414997  94.2329988
  25.6050012 107.6134997  95.4429988  24.9730012 105.7184997  94.4799988
  23.9050012 106.0214997  94.4369988  25.1330012 105.1314997  93.5499988
  25.2620012 104.9074997  95.7439988  25.0320012 105.5984997  96.5839988
  24.6330012 103.9954997  95.6569988  26.7560012 104.5424997  95.8609988
  27.6750012 104.9014997  95.1119988  26.8540012 103.9134997  97.0089988
  28.1220012 103.4494997  97.4179988  28.0190012 102.3654997  97.6359988
  29.0190012 103.5974997  96.7789988  28.5030012 104.0464997  98.8009988
  29.5930012 103.9494997  98.9939988  27.8210012 103.3874997  99.9879988
  26.7490012 103.6694997 100.0609988  27.9260012 102.2914997  99.8379988
  28.5420012 103.7274997 101.1179988  28.4920012 104.9444997 101.9889988
  28.5560012 106.1754997 100.9869988  28.9760012 107.4184997 101.4959988
  28.6750012 107.5124997 102.5619988  30.0720012 107.5514997 101.3719988
  28.1860012 108.6444997 100.9269988  28.4720012 109.5884997 101.3679988
  28.5440012 108.7314997  99.9119988  26.6860012 108.6284997 101.0369988
  26.0140012 107.5424997 100.0739988  24.9750012 107.8114997  99.9609988
  26.5000012 107.5374997  99.1099988  26.0990012 106.5494997 100.4889988
  26.1730012 108.2574997 102.4349988  25.2050012 108.7364997 102.4219988
  26.0630012 107.1844997 102.4889988  26.8710012 108.6154997 103.1769988
  26.2250012 109.9794997 100.5789988  26.7190012 110.5864997 101.3229988
  25.1540012 110.0554997 100.6989988  26.5460012 110.0714997  99.5519988
  27.2180012 104.9934997 102.7109988  29.7170012 104.9474997 102.8279988
  28.2650012 105.4804997  98.6299988  29.2300012 106.2464997  97.9479988
  30.3870012 105.9154997  97.8159988  28.5690012 107.5354997  97.4979988
  27.9350012 107.8464997  98.3559988  27.9490012 107.3454997  96.5959988
  29.6460012 108.6224997  97.3459988  30.5240012 108.3374997  96.7279988
  30.0750012 108.7644997  98.3609988  29.0620012 109.9274997  96.7579988
  30.0270012 110.4724997  96.6789988  28.1980012 110.3274997  97.3299988
  28.6010012 109.8284997  95.3359988  27.5320012 109.5284997  95.3079988
  29.2190012 109.0994997  94.7699988  28.5840012 111.0984997  94.6219988
  29.5840012 111.5804997  94.6279988  27.9510012 111.7874997  95.2209988
  28.1030012 111.1874997  93.1229988  27.6220012 112.1564997  92.8709988
  27.3070012 110.4344997  92.9419988  29.3100012 111.0704997  92.1599988
  30.0170012 110.2924997  92.5219988  29.9000012 112.0114997  92.1799988
  28.9850012 110.9874997  90.7159988  28.7420012 111.9014997  90.1529988
  29.0660012 109.8474997  90.0059988  28.8300012 109.9574997  88.9369988
  29.3910012 108.4514997  90.4329988  28.8620012 107.6904997  89.8199988
  29.0510012 108.3514997  91.4859988  30.9200012 108.2334997  90.3799988
  31.2010012 107.3094997  90.9299988  31.5180012 109.0634997  90.8119988
  31.4540012 107.9014997  88.9059988  32.5490012 107.7124997  88.9319988
  31.2940012 108.8524997  88.3559988  30.7180012 106.8634997  88.0119988
  31.0940012 107.0594997  86.9849988  29.6490012 107.1584997  87.9489988
  30.8470012 105.4594997  88.5409988  30.3910012 105.5324997  89.5519988
  31.9360012 105.2494997  88.4929988  30.2130012 104.4334997  87.6479988
  29.1130012 104.5824997  87.6849988  30.3740012 103.3874997  87.9879988
  30.6700012 104.4984997  86.2179988  31.7710012 104.5144997  86.0659988
  30.1530012 105.4104997  85.8509988  30.2690012 103.2044997  85.4709988
  30.6930012 102.2884997  85.9359988  30.3750012 103.2564997  84.3659988
  29.1790012 103.1194997  85.6719988  49.7180012  37.4854997  82.4049988
  48.9930012  38.2834997  82.1349988  49.9960012  36.7514997  81.6189988
  50.6410012  38.0384997  82.6819988  49.0420012  36.7994997  83.6049988
  48.0140012  36.4634997  83.3489988  49.6160012  35.9084997  83.9369988
  48.8400012  37.7964997  84.7399988  49.7770012  38.0744997  85.2699988
  48.4880012  38.7544997  84.3019988  47.9030012  37.2404997  85.7389988
  47.3350012  38.0514997  86.2429988  47.1780012  36.5834997  85.2139988
  48.6650012  36.4324997  86.8159988  49.6330012  35.9834997  86.5069988
  48.9840012  37.1884997  87.5639988  47.8200012  35.3184997  87.4139988
  47.6100012  34.5924997  86.5999988  48.3680012  34.7704997  88.2099988
  46.4880012  35.5864997  88.0169988  45.7590012  35.8194997  87.2119988
  46.2200012  34.6954997  88.6249988  46.5060012  36.8224997  89.0299988
  46.9390012  36.5034997  90.0019988  47.1020012  37.6374997  88.5659988
  45.0950012  37.3914997  89.4039988  44.4220012  37.6684997  88.5649988
  44.4990012  36.6304997  89.9519988  45.3100012  38.5994997  90.3549988
  45.5840012  39.4764997  89.7299988  44.2770012  38.7174997  90.7469988
  46.2300012  38.4514997  91.5639988  47.2380012  38.3834997  91.1009988
  46.1620012  39.3734997  92.1799988  46.0670012  37.2054997  92.4239988
  44.9740012  37.0114997  92.3679988  46.6330012  36.3854997  91.9339988
  46.6510012  37.3284997  93.8819988  47.7590012  37.2694997  93.8269988
  46.4740012  38.3604997  94.2529988  46.2060012  36.2104997  94.8309988
  45.1120012  36.3134997  94.6679988  46.5630012  35.2894997  94.3229988
  46.4010012  36.1634997  96.3599988  46.0000012  37.0874997  96.8289988
  45.8300012  35.2774997  96.7089988  47.9120012  35.8974997  96.7489988
  48.8410012  36.1604997  96.0449988  47.8970012  35.2644997  97.9319988
  49.1780012  35.0614997  98.5709988  48.9560012  34.2334997  99.2779988
  49.9670012  34.6784997  97.8879988  49.6840012  36.3234997  99.3519988
  50.6190012  35.9524997  99.8239988  48.8250012  36.7994997 100.4579988
  48.8490012  36.0404997 101.2689988  49.3190012  37.7044997 100.8729988
  47.5260012  37.1414997  99.9629988  46.4470012  37.5024997 101.1289988
  47.0880012  38.7424997 101.9199988  47.2290012  39.9374997 101.1679988
  46.4640012  40.0564997 100.3719988  46.9200012  40.7744997 101.8309988
  48.7300012  40.2284997 100.7639988  49.0180012  39.3244997 100.2479988
  48.8150012  41.0674997 100.0889988  49.6910012  40.5264997 101.9159988
  49.8650012  39.3344997 102.7909988  50.3960012  39.5664997 103.7019988
  48.8890012  38.9634997 103.0689988  50.2790012  38.5134997 102.2239988
  51.0240012  40.9434997 101.2619988  50.9790012  41.9744997 100.9419988
  51.8820012  40.7724997 101.8959988  51.3180012  40.4844997 100.3299988
  49.2260012  41.7514997 102.7129988  48.3960012  41.4004997 103.3079988
  48.9380012  42.5484997 102.0439988  50.0370012  41.9494997 103.3989988
  45.1670012  37.9404997 100.5019988  46.3730012  36.3064997 102.0519988
  49.9090012  37.2444997  98.3009988  50.7280012  38.2724997  98.3199988
  51.3760012  38.5834997  99.2839988  50.5220012  39.0784997  97.0259988
  50.6330012  38.3584997  96.1879988  51.1980012  39.9574997  96.9619988
  49.0780012  39.5674997  97.0979988  48.8160012  39.9604997  98.1039988
  48.3460012  38.7344997  97.0249988  48.8680012  40.7144997  96.1029988
  49.5050012  41.6034997  96.2979988  47.7840012  40.9484997  96.1729988
  49.1640012  40.3434997  94.6959988  48.5840012  39.4214997  94.4799988
  50.2290012  40.0514997  94.5749988  48.6330012  41.2664997  93.6699988
  48.1210012  42.1384997  94.1309988  47.9430012  40.7824997  92.9459988
  49.7740012  41.8104997  92.8459988  50.5310012  42.3234997  93.4769988
  49.4640012  42.5634997  92.0889988  50.5550012  40.6704997  92.1919988
  49.8290012  39.9244997  91.8029988  51.2170012  40.0744997  92.8569988
  51.3970012  41.0224997  90.9429988  52.4060012  41.2734997  91.3009988
  50.9410012  41.3094997  89.7249988  51.7060012  41.7614997  89.0769988
  49.5070012  41.3584997  89.2949988  49.2230012  42.3964997  89.5699988
  48.7640012  40.7314997  89.8329988  49.3260012  41.0224997  87.7449988
  48.2210012  41.0904997  87.6549988  49.6360012  39.9854997  87.4919988
  50.0090012  41.9744997  86.7439988  51.1030012  41.7924997  86.6799988
  49.9150012  42.9884997  87.1879988  49.4800012  41.9724997  85.3579988
  48.3730012  42.0624997  85.3249988  49.7960012  41.0384997  84.8469988
  50.0910012  43.0494997  84.4349988  51.0640012  43.3064997  84.9049988
  49.4290012  43.9274997  84.5929988  50.1050012  42.5074997  82.9439988
  49.9470012  43.4294997  82.3429988  49.1930012  41.8834997  82.8229988
  51.3150012  41.7844997  82.4889988  51.7100012  41.0094997  83.1799988
  52.1450012  42.5214997  82.4319988  50.9910012  41.0104997  81.2139988
  50.6560012  41.8334997  80.5459988  50.1540012  40.2814997  81.2389988
  51.9520012  40.5514997  80.8969988  43.5580012 117.9344997  80.9169988
  43.2050012 117.5434997  81.8949988  43.2570012 117.1684997  80.1699988
  43.0130012 118.8774997  80.6999988  45.0800012 118.2414997  81.0149988
  45.3550012 118.7654997  80.0739988  45.1650012 118.9684997  81.8499988
  45.8110012 117.0104997  81.2859988  45.2860012 116.4244997  82.0709988
  45.7980012 116.2444997  80.4809988  47.2940012 117.3644997  81.7649988
  47.7550012 116.3784997  81.9839988  47.9050012 117.7814997  80.9359988
  47.4330012 118.1804997  83.0899988  48.4740012 118.2534997  83.4719988
  47.0570012 119.1444997  82.6859988  46.4510012 117.8524997  84.1949988
  46.5920012 118.7704997  84.8049988  45.4180012 117.7304997  83.8039988
  46.8790012 116.6004997  84.9629988  46.9310012 115.7844997  84.2099988
  47.8700012 116.7244997  85.4489988  45.8990012 116.2364997  86.0319988
  45.8600012 117.0524997  86.7849988  44.9150012 116.1974997  85.5179988
  46.0400012 114.8684997  86.7449988  45.8450012 114.0874997  85.9789988
  47.0950012 114.9204997  87.0889988  45.1550012 114.6614997  88.0139988
  45.3710012 115.4374997  88.7789988  44.0960012 114.7494997  87.6899988
  45.4620012 113.3174997  88.7139988  45.3630012 112.5004997  87.9679988
  46.5180012 113.3344997  89.0599988  44.5260012 112.8944997  89.7339988
  43.4520012 112.8474997  89.4529988  44.6920012 111.9054997  90.2119988
  44.5880012 113.7894997  90.9789988  45.6070012 113.7324997  91.4179988
  44.2500012 114.8054997  90.6829988  43.5730012 113.3574997  92.0769988
  42.5910012 113.2224997  91.5749988  43.9190012 112.3734997  92.4599988
  43.4250012 114.3524997  93.2239988  43.2720012 115.3524997  92.7639988
  42.5790012 114.1804997  93.9219988  44.5910012 114.4234997  94.1069988
  45.7350012 113.9974997  93.8759988  44.3020012 115.0744997  95.2329988
  45.3370012 115.3754997  96.2179988  45.8620012 114.4184997  96.4259988
  46.0730012 116.0944997  95.7989988  44.7170012 115.7644997  97.5679988
  45.5760012 115.8094997  98.2729988  43.6100012 114.7984997  98.0369988
  42.6680012 115.0494997  97.5059988  43.9430012 113.7574997  97.8359988
  43.3730012 115.0294997  99.4059988  42.0700012 114.5204997 100.1049988
  42.3750012 114.5314997 101.6519988  43.7120012 114.4964997 102.1419988
  43.8590012 114.0524997 103.1499988  44.4590012 113.9074997 101.5699988
  44.3260012 115.9924997 102.2089988  45.2860012 116.0204997 102.7029988
  44.6350012 116.1874997 101.1919988  43.4330012 117.1674997 102.7129988
  42.8830012 116.9824997 104.0839988  42.2000012 116.1464997 104.0699988
  43.7100012 116.8714997 104.7709988  42.2500012 117.8194997 104.3379988
  44.3050012 118.4074997 102.6439988  43.7100012 119.2324997 103.0049988
  45.0890012 118.2034997 103.3579988  44.7180012 118.5224997 101.6519988
  42.3930012 117.5044997 101.7109988  42.8680012 117.8224997 100.7949988
  41.8440012 118.3614997 102.0719988  41.8170012 116.6274997 101.4529988
  40.9210012 115.4224997  99.7969988  41.7990012 113.0924997  99.7169988
  44.0480012 117.0114997  97.5519988  44.8660012 118.0914997  97.2939988
  46.0880012 118.1144997  97.2209988  43.9690012 119.3794997  97.3839988
  44.5690012 120.2784997  97.6389988  43.1300012 119.2934997  98.1079988
  43.3580012 119.6984997  95.9979988  44.1360012 119.9734997  95.2539988
  42.6700012 120.5664997  96.0879988  42.4550012 118.5604997  95.4959988
  41.7350012 118.5334997  96.3419988  42.9500012 117.6054997  95.2179988
  41.5990012 119.1114997  94.3589988  42.1760012 119.2464997  93.4189988
  41.2790012 120.1544997  94.5679988  40.3790012 118.2334997  93.8469988
  39.8000012 118.8214997  93.1019988  39.7580012 117.9824997  94.7329988
  40.9090012 117.0164997  93.0639988  41.5740012 116.4524997  93.7519988
  41.4150012 117.2934997  92.1139988  39.8300012 115.8904997  92.7779988
  39.5800012 115.3594997  93.7209988  40.2550012 115.0744997  92.1559988
  38.5370012 116.4784997  92.2939988  37.9170012 116.9374997  93.0769988
  38.0110012 116.3054997  91.0539988  37.1330012 116.9314997  90.8329988
  38.5470012 115.5544997  89.8909988  37.7640012 115.6294997  89.1059988
  38.7510012 114.5114997  90.2149988  39.7820012 116.3114997  89.3769988
  40.6070012 116.2174997  90.1149988  39.5340012 117.3874997  89.2529988
  40.2290012 115.8464997  87.9569988  40.8530012 116.6364997  87.4869988
  39.2300012 115.8034997  87.4739988  40.9660012 114.4754997  87.9399988
  40.5170012 113.7354997  88.6369988  42.0140012 114.6224997  88.2779988
  40.8780012 113.7214997  86.5599988  39.7890012 113.5574997  86.4079988
  41.3730012 112.7334997  86.6709988  41.3520012 114.5504997  85.3649988
  42.4380012 114.6114997  85.5909988  40.7280012 115.4684997  85.3239988
  41.1010012 113.8144997  84.0839988  40.0600012 113.9974997  83.7429988
  41.4290012 112.7564997  84.1799988  42.0460012 114.2924997  83.0059988
  43.0940012 114.3484997  83.3689988  41.8030012 115.2624997  82.5209988
  42.0620012 113.5704997  82.1619988  81.6010012 115.2234997  83.3099988
  81.0410012 114.5464997  82.6309988  81.8810012 116.1214997  82.7179988
  80.8700012 115.5094997  84.0959988  82.8110012 114.4724997  83.8479988
  82.4350012 113.8414997  84.6809988  83.2920012 113.8774997  83.0419988
  83.8600012 115.3014997  84.5839988  84.7100012 114.6344997  84.8399988
  84.1280012 116.1684997  83.9429988  83.2870012 115.8584997  85.8839988
  82.4320012 116.5364997  85.6769988  82.9490012 114.9664997  86.4529988
  84.3790012 116.6294997  86.7169988  84.6810012 117.6194997  86.3129988
  83.8010012 116.8684997  87.6349988  85.6830012 115.8664997  87.1629988
  86.2540012 115.6444997  86.2359988  86.2590012 116.5504997  87.8229988
  85.4630012 114.5474997  87.8029988  84.6710012 114.7154997  88.5639988
  84.9330012 113.8924997  87.0789988  86.6080012 113.9624997  88.5999988
  87.4630012 113.6644997  87.9559988  87.0100012 114.8254997  89.1729988
  86.1130012 112.7554997  89.6049988  85.3890012 112.1514997  89.0179988
  86.9970012 112.0904997  89.7079988  85.6980012 113.2384997  90.9739988
  85.1590012 114.2094997  90.9679988  84.9520012 112.4804997  91.2959988
  86.8620012 113.1834997  92.0739988  87.6280012 112.4014997  91.8849988
  87.4350012 114.1354997  92.0789988  86.3030012 113.0724997  93.5089988
  85.6300012 113.9234997  93.7489988  85.6830012 112.1584997  93.6259988
  87.4310012 112.8604997  94.5419988  88.1210012 112.0614997  94.1969988
  88.0100012 113.8084997  94.5199988  87.0560012 112.4054997  95.9809988
  86.5770012 111.4154997  95.8249988  88.0550012 112.4024997  96.4669988
  86.0030012 113.3064997  96.6349988  85.4250012 113.7524997  95.7969988
  85.4390012 112.7444997  97.4109988  86.6990012 114.3324997  97.4619988
  87.9030012 114.5794997  97.4659988  85.7580012 114.9934997  98.1069988
  86.2360012 115.9124997  99.0979988  87.1640012 115.5554997  99.5929988
  86.4980012 116.9384997  98.7609988  85.1470012 116.0724997 100.1989988
  85.3820012 117.0344997 100.7029988  85.1990012 114.9764997 101.2799988
  84.9820012 114.0674997 100.6789988  86.2730012 114.8774997 101.5439988
  84.3650012 115.2824997 102.4039988  82.9450012 114.6844997 102.5209988
  83.1360012 113.2484997 101.7449988  81.9610012 112.5814997 101.3329988
  81.4970012 112.1344997 102.2389988  81.2240012 113.2554997 100.8469988
  82.1880012 111.4864997 100.2459988  81.1970012 111.1244997 100.0169988
  82.5650012 111.9614997  99.3519988  83.0940012 110.2594997 100.5259988
  82.7620012 109.5224997 101.7979988  83.5480012 108.8244997 102.0469988
  82.6490012 110.1874997 102.6419988  81.9250012 108.8824997 101.5599988
  83.0150012 109.2784997  99.3549988  83.6840012 108.4424997  99.5009988
  81.9730012 108.9944997  99.3369988  83.3870012 109.7594997  98.4619988
  84.4540012 110.7904997 100.5179988  85.1750012 110.0014997 100.3619988
  84.6860012 111.3074997 101.4369988  84.4890012 111.4754997  99.6839988
  82.7020012 114.4284997 103.9499988  81.9460012 115.5104997 101.7839988
  83.8330012 116.0594997  99.5859988  83.4420012 117.1544997  99.0059988
  84.0100012 118.2284997  98.8329988  82.0300012 116.9254997  98.3409988
  81.8300012 117.4894997  97.4049988  81.3760012 117.3334997  99.1399988
  81.6260012 115.4624997  98.2329988  80.5590012 115.3294997  97.9519988
  81.7110012 114.9404997  99.2099988  82.3940012 114.6484997  97.1509988
  82.9690012 113.8854997  97.7199988  83.2430012 115.3084997  96.8729988
  81.5770012 114.1994997  95.9509988  81.0380012 115.1044997  95.5979988
  80.7810012 113.5304997  96.3419988  82.3790012 113.6954997  94.7069988
  83.2420012 113.0684997  95.0159988  82.8550012 114.5784997  94.2299988
  81.5160012 112.8814997  93.7029988  80.4690012 113.2394997  93.6109988
  81.5160012 111.8554997  94.1279988  82.1030012 112.7054997  92.2789988
  81.4580012 111.9134997  91.8429988  83.1230012 112.2784997  92.3819988
  82.1340012 113.8844997  91.3629988  83.0570012 114.4744997  91.4699988
  81.2750012 114.3514997  90.4739988  81.6820012 115.1714997  89.8639988
  79.8910012 113.7714997  90.1729988  79.0990012 114.5064997  90.4319988
  79.6690012 112.8914997  90.8149988  79.6450012 113.3864997  88.7119988
  79.3300012 114.2704997  88.1169988  78.7960012 112.6684997  88.6989988
  80.8740012 112.9414997  87.9889988  81.5870012 113.7894997  87.9019988
  80.5230012 112.8174997  86.9419988  81.5440012 111.6464997  88.4769988
  80.8390012 110.8154997  88.2589988  81.6820012 111.6684997  89.5789988
  82.7640012 111.2564997  87.6729988  83.2660012 110.4514997  88.2519988
  83.3780012 112.1784997  87.5819988  82.4800012 110.7274997  86.2759988
  81.9980012 111.5544997  85.7119988  81.7470012 109.8924997  86.3169988
  83.6980012 110.0814997  85.5489988  84.0860012 109.2634997  86.1929988
  84.5730012 110.7544997  85.4219988  83.3320012 109.6564997  84.1699988
  82.4930012 108.9304997  84.2349988  84.2150012 109.2824997  83.6089988
  83.0090012 110.4814997  83.4989988  71.6950012  25.2574997  82.4399988
  71.4160012  26.0764997  81.7429988  71.4550012  24.3374997  81.8659988
  72.7890012  25.2354997  82.6359988  70.8670012  25.3234997  83.6779988
  70.5210012  26.3664997  83.8439988  69.9240012  24.7484997  83.5569988
  71.5340012  24.7374997  84.9549988  70.7800012  24.2804997  85.6309988
  72.2620012  23.9914997  84.5699988  72.3290012  25.7794997  85.7319988
  73.1190012  25.3044997  86.3519988  72.8630012  26.3304997  84.9289988
  71.5900012  26.7484997  86.6299988  72.4540012  27.3204997  87.0309988
  70.8340012  27.4124997  86.1609988  70.8520012  26.1574997  87.8889988
  70.7470012  26.9744997  88.6339988  69.7940012  25.9074997  87.6619988
  71.5770012  25.0904997  88.6619988  71.8810012  24.2014997  88.0689988
  72.4600012  25.6354997  89.0559988  70.8830012  24.6134997  89.9159988
  71.0200012  25.4334997  90.6539988  69.7980012  24.5614997  89.6809988
  71.3340012  23.3004997  90.5379988  70.9780012  22.4044997  89.9859988
  72.4290012  23.1884997  90.6849988  70.9040012  23.0854997  92.0319988
  69.8270012  23.3094997  92.1859988  71.0800012  21.9904997  92.0969988
  71.7040012  23.9154997  93.0339988  72.7660012  23.5924997  92.9799988
  71.5990012  24.9934997  92.7859988  71.3470012  23.7784997  94.4979988
  70.3610012  24.2654997  94.6509988  71.3550012  22.7094997  94.8009988
  72.2540012  24.2894997  95.5629988  72.2210012  25.3984997  95.5199988
  71.9400012  23.8824997  96.5489988  73.7150012  23.8364997  95.4459988
  73.7050012  22.7254997  95.4309988  74.2020012  24.1854997  94.5099988
  74.5790012  24.1154997  96.7509988  74.0610012  23.8504997  97.6969988
  75.5070012  23.5124997  96.6469988  74.9960012  25.6404997  96.7539988
  75.8280012  26.0544997  95.8929988  74.5780012  26.2014997  97.8389988
  74.7830012  27.5734997  98.0739988  75.1420012  27.7934997  99.1019988
  75.5530012  27.9404997  97.3619988  73.4060012  28.2604997  98.0279988
  73.6490012  29.2994997  98.3389988  72.4370012  27.7084997  99.1789988
  72.9770012  27.7894997 100.1459988  71.4550012  28.2254997  99.1259988
  72.1380012  26.3014997  98.8589988  72.2930012  25.1214997  99.9479988
  71.6270012  25.8094997 101.2109988  70.2160012  25.9394997 101.2169988
  69.6850012  25.8854997 100.2429988  69.7820012  25.2394997 101.9639988
  69.9660012  27.4724997 101.6539988  70.4000012  28.1574997 100.9399988
  68.9040012  27.6634997 101.6549988  70.3280012  28.0174997 103.0289988
  70.0860012  27.0814997 104.1529988  70.4070012  26.0744997 103.9299988
  70.7060012  27.2834997 105.0139988  69.0650012  26.9094997 104.4629988
  71.7890012  28.5094997 102.9329988  71.9340012  29.4674997 102.4549988
  72.3170012  28.5964997 103.8709988  72.3690012  27.7974997 102.3659988
  69.3700012  29.1764997 103.3119988  69.6880012  29.6054997 104.2509988
  68.4520012  28.6114997 103.3789988  69.3690012  29.8724997 102.4859988
  71.4570012  23.9394997  99.5899988  73.7150012  24.8614997 100.2739988
  72.7280012  28.0864997  96.7779988  73.1960012  28.8064997  95.7499988
  74.1560012  29.5404997  95.8059988  72.2610012  28.5514997  94.5029988
  71.8260012  29.5404997  94.2429988  71.4090012  27.9464997  94.8789988
  72.8270012  27.6424997  93.3739988  71.9540012  27.0374997  93.0489988
  73.5910012  26.9934997  93.8519988  73.3970012  28.3994997  92.1489988
  74.2590012  28.9684997  92.5579988  72.5900012  29.1094997  91.8659988
  73.6550012  27.5454997  90.8559988  72.9250012  27.8104997  90.0619988
  73.3560012  26.4974997  91.0729988  75.1130012  27.6064997  90.4599988
  75.8410012  27.5924997  91.2979988  75.2700012  28.5944997  89.9769988
  75.7630012  26.6054997  89.4699988  75.1220012  26.4654997  88.5739988
  75.9550012  25.6144997  89.9349988  77.1750012  27.0364997  88.9939988
  77.7300012  26.1924997  88.5309988  77.7630012  27.4034997  89.8619988
  76.9210012  28.1494997  87.9929988  76.6640012  29.0854997  88.5119988
  77.1350012  28.1714997  86.6439988  76.6930012  28.9824997  86.0469988
  77.6760012  27.0094997  85.8699988  78.4330012  26.5374997  86.5329988
  78.3210012  27.2924997  85.0109988  76.6170012  25.9974997  85.4489988
  75.9130012  25.9354997  86.3069988  77.2830012  25.1174997  85.3209988
  75.8930012  26.1804997  84.1469988  75.1780012  27.0304997  84.1199988
  75.2000012  25.3174997  84.0469988  76.8630012  26.3824997  82.9699988
  77.4070012  25.4244997  83.1099988  77.5980012  27.2064997  83.0929988
  76.0220012  26.3264997  81.5769988  75.3430012  25.4504997  81.4959988
  76.7760012  26.2724997  80.7619988  75.1150012  27.5454997  81.4459988
  75.7080012  28.4594997  81.2299988  74.5080012  27.6574997  82.3709988
  74.1690012  27.4984997  80.2169988  73.4410012  26.6844997  80.4199988
  74.7310012  27.2324997  79.2949988  73.4780012  28.7404997  80.1019988
  72.5770012  28.7224997  79.4529988  74.2030012  29.5004997  79.7399988
  73.0040012  29.0674997  81.0519988  57.6500012 117.4064997  83.8779988
  58.5550012 117.8184997  84.3729988  57.2570012 118.0964997  83.1009988
  58.0000012 116.5204997  83.3069988  56.5360012 117.2364997  84.9269988
  56.4540012 118.1904997  85.4909988  55.5610012 117.0654997  84.4209988
  56.8700012 116.1464997  86.0189988  55.8810012 115.9034997  86.4619988
  57.1130012 115.1824997  85.5239988  57.9360012 116.5264997  87.0219988
  58.4200012 115.6194997  87.4449988  58.7620012 117.0034997  86.4509988
  57.3980012 117.1884997  88.2869988  58.1050012 118.0284997  88.4579988
  56.3620012 117.5334997  88.0839988  57.4010012 116.3794997  89.6249988
  58.4530012 116.3524997  89.9799988  57.0030012 117.0764997  90.3929988
  56.6120012 115.1154997  89.6209988  55.6410012 115.3824997  89.1529988
  57.1210012 114.3444997  89.0019988  56.4040012 114.3404997  90.9899988
  55.6400012 114.8764997  91.5939988  56.0900012 113.2974997  90.7709988
  57.6720012 114.1814997  91.8839988  58.4730012 113.9184997  91.1599988
  58.0210012 115.1634997  92.2699988  57.5030012 113.1794997  93.0089988
  56.5080012 113.3714997  93.4649988  57.3590012 112.2164997  92.4729988
  58.5570012 113.1434997  94.1149988  58.1890012 113.9704997  94.7589988
  58.3600012 112.2234997  94.7039988  60.0300012 113.2854997  93.6629988
  60.3230012 112.3904997  93.0729988  60.2220012 114.2394997  93.1269988
  60.8910012 113.3594997  94.9449988  60.7930012 112.5354997  95.6839988
  61.9270012 113.1894997  94.5819988  60.7170012 114.6084997  95.9029988
  59.6470012 114.5154997  96.1859988  61.3030012 114.5164997  96.8429988
  61.0070012 115.9664997  95.1839988  61.6750012 115.8004997  94.3109988
  60.0070012 116.2414997  94.7849988  61.5230012 117.0854997  96.1319988
  62.5410012 117.0034997  96.8179988  60.8090012 118.1404997  96.0469988
  61.1540012 119.2884997  96.8379988  62.2510012 119.3194997  97.0079988
  60.9010012 120.2594997  96.3609988  60.4310012 119.3254997  98.1859988
  60.6580012 120.2924997  98.6839988  60.7500012 118.2744997  99.2689988
  61.8580012 118.2084997  99.2299988  60.2720012 118.6134997 100.2129988
  60.2470012 116.9754997  98.9459988  60.1080012 115.8304997 100.0309988
  59.0420012 116.5484997 100.9779988  59.3430012 116.7314997 102.3379988
  59.3600012 115.7414997 102.8419988  60.2990012 117.2784997 102.4859988
  58.0330012 117.5004997 102.9109988  58.2870012 117.6774997 103.9459988
  58.1280012 118.4404997 102.3869988  56.6270012 116.9064997 102.6999988
  56.5500012 115.5524997 103.3299988  55.5840012 115.1184997 103.1169988
  57.1430012 114.7644997 102.8909988  56.6990012 115.6184997 104.3979988
  55.6750012 117.8024997 103.5029988  54.6600012 117.4894997 103.3069988
  56.0400012 117.5194997 104.4789988  55.8550012 118.8284997 103.2169988
  56.1890012 116.7404997 101.2439988  55.1840012 116.3434997 101.2319988
  56.7800012 116.0034997 100.7209988  56.2280012 117.7654997 100.9049988
  59.6080012 114.6074997  99.3959988  61.3960012 115.7194997 100.8049988
  59.0130012 119.2444997  97.9439988  58.1660012 119.8534997  98.7389988
  58.4830012 120.6374997  99.5819988  56.7240012 119.4314997  98.3859988
  56.1210012 120.3054997  98.0599988  56.2380012 118.8734997  99.2149988
  56.7320012 118.2994997  97.3139988  55.7440012 117.7994997  97.3949988
  57.5460012 117.5894997  97.5749988  56.8790012 118.6774997  95.8489988
  57.8700012 119.1804997  95.8539988  56.0250012 119.3334997  95.5749988
  57.0360012 117.6194997  94.7909988  56.1390012 116.9874997  94.6189988
  57.8690012 116.9354997  95.0599988  57.1340012 118.3224997  93.3659988
  56.1560012 118.8284997  93.2159988  57.2920012 117.5244997  92.6099988
  58.2100012 119.4884997  93.3369988  58.0350012 120.2294997  94.1459988
  57.9450012 120.0754997  92.4319988  59.6070012 119.0294997  93.0699988
  59.7440012 118.6874997  92.0219988  60.0410012 118.3184997  93.8049988
  60.4810012 120.2454997  93.2599988  60.2640012 120.6714997  94.2509988
  61.3590012 120.8484997  92.4539988  62.0780012 121.5314997  92.9309988
  61.6640012 120.3554997  91.0129988  61.6850012 121.2244997  90.3219988
  60.7580012 119.8634997  90.5999988  62.8800012 119.3534997  90.8439988
  62.9590012 118.8804997  91.8459988  63.8280012 119.8464997  90.5399988
  62.7510012 118.2604997  89.7769988  61.7980012 117.7634997  90.0599988
  63.5310012 117.4714997  89.8369988  62.6020012 118.6444997  88.3359988
  63.4130012 119.3664997  88.0999988  61.6270012 119.1774997  88.3269988
  62.7570012 117.4144997  87.3839988  63.7830012 117.0284997  87.5639988
  62.7050012 117.9034997  86.3879988  61.7520012 116.3904997  87.6249988
  60.7190012 116.7654997  87.7909988  61.9340012 116.0764997  88.6749988
  61.6700012 115.2034997  86.7069988  60.8920012 114.4404997  86.9229988
  62.6390012 114.6674997  86.7939988  61.4120012 115.5674997  85.2969988
  62.1070012 116.3744997  84.9829988  60.4160012 116.0244997  85.1109988
  61.6370012 114.6904997  84.6519988 108.3260012  93.4634997  79.8549988
 107.8720012  92.7384997  80.5639988 109.2850012  93.0324997  79.4949988
 107.6790012  93.6354997  78.9679988 108.5350012  94.7244997  80.6709988
 109.0480012  95.4854997  80.0449988 107.5740012  95.2044997  80.9539988
 109.2740012  94.4184997  82.0289988 108.7360012  93.6714997  82.6499988
 110.3270012  94.1004997  81.8719988 109.3170012  95.6624997  82.9489988
 110.0150012  96.4374997  82.5669988 108.2980012  96.0814997  83.0969988
 109.9190012  95.2184997  84.2969988 109.5290012  94.2234997  84.6029988
 111.0100012  95.0524997  84.1619988 109.6540012  96.2134997  85.4549988
 109.7040012  97.2644997  85.0999988 108.6010012  96.1304997  85.7999988
 110.4450012  96.0784997  86.7819988 110.5120012  94.9794997  86.9269988
 111.4970012  96.3954997  86.6199988 109.8760012  96.6304997  88.0509988
 109.7530012  97.7224997  87.8909988 108.8680012  96.1724997  88.1439988
 110.7190012  96.2314997  89.3359988 111.0250012  95.1634997  89.3559988
 111.5840012  96.9144997  89.4749988 109.8820012  96.3574997  90.6509988
 109.3280012  97.3204997  90.6259988 109.1270012  95.5504997  90.5389988
 110.7240012  96.1844997  91.9569988 111.4300012  95.3544997  91.7349988
 111.2650012  97.1134997  92.2339988 109.8670012  95.7404997  93.1109988
 109.3120012  94.8304997  92.7989988 110.5100012  95.6414997  94.0109988
 108.7360012  96.7494997  93.4349988 109.3150012  97.6984997  93.4199988
 107.9420012  96.7214997  92.6579988 107.9830012  96.5334997  94.7629988
 108.7170012  96.6604997  95.5869988 107.1450012  97.2584997  94.8449988
 107.4020012  95.0634997  94.7319988 106.7270012  94.8984997  93.8649988
 108.1270012  94.2334997  94.8749988 106.3790012  94.9844997  95.9319988
 105.9960012  95.9184997  96.6249988 105.9840012  93.8124997  96.0789988
 105.1460012  93.4204997  97.1639988 104.4230012  94.1954997  97.4979988
 104.5110012  92.6484997  96.6779988 105.9130012  92.9544997  98.4419988
 105.2610012  92.2704997  99.0259988 106.2010012  94.1104997  99.4429988
 105.2490012  94.6254997  99.6939988 106.5430012  93.6064997 100.3729988
 107.0640012  95.1984997  98.9259988 108.4210012  95.3904997  99.6399988
 108.1280012  94.8984997 101.1099988 109.1310012  94.6444997 102.1219988
 110.1190012  94.9544997 101.7199988 108.8660012  95.1014997 103.0979988
 109.3490012  93.1344997 102.1739988 108.4580012  92.6924997 102.5959988
 109.5670012  92.7254997 101.1989988 110.4950012  92.7314997 103.1659988
 110.6390012  91.2534997 103.1029988 110.7380012  90.8404997 102.1099988
 111.4650012  90.9644997 103.7359988 109.7080012  90.8894997 103.5119988
 111.8170012  93.2704997 102.7179988 112.7000012  93.0014997 103.2779988
 112.0450012  93.0654997 101.6829988 111.7580012  94.3404997 102.8539988
 110.1850012  93.1484997 104.6069988 109.3750012  92.6274997 105.0959988
 109.9880012  94.2104997 104.6029988 111.0330012  92.9564997 105.2479988
 109.4230012  94.5054997  98.9869988 108.7340012  96.8554997  99.6269988
 107.1950012  92.3444997  98.0809988 107.2300012  91.2824997  97.2829988
 106.2960012  90.6514997  96.8039988 108.7070012  91.1104997  96.9139988
 109.0540012  90.6554997  97.8669988 109.2540012  92.0734997  96.8289988
 108.9570012  90.1674997  95.7499988 108.1620012  89.3904997  95.7199988
 109.9730012  89.7584997  95.9349988 109.0130012  90.8614997  94.3719988
 109.8670012  91.5334997  94.6079988 108.2160012  91.5474997  94.0149988
 109.3610012  89.8944997  93.2409988 108.4610012  89.2504997  93.1429988
 110.2330012  89.3174997  93.6169988 109.8610012  90.6034997  92.0329988
 110.3100012  89.7854997  91.4289988 110.7050012  91.2854997  92.2719988
 108.7530012  91.4864997  91.3409988 108.2980012  92.0934997  92.1529988
 107.9500012  90.8674997  90.8869988 109.2790012  92.3814997  90.1999988
 110.0170012  93.0714997  90.6609988 108.3660012  92.9594997  89.9419988
 109.8240012  91.6824997  88.9419988 110.5040012  90.8894997  89.2859988
 109.3660012  91.9084997  87.6759988 109.8370012  91.2964997  86.8919988
 108.2400012  92.8724997  87.2299988 108.3740012  93.1004997  86.1499988
 108.3870012  93.8324997  87.7699988 106.8060012  92.3634997  87.6619988
 106.7720012  92.3364997  88.7719988 106.8340012  91.2824997  87.4059988
 105.5630012  93.0714997  87.0819988 105.5340012  94.1454997  87.3659988
 104.6590012  92.5554997  87.4709988 105.4700012  92.8924997  85.5429988
 104.4300012  92.5024997  85.5089988 106.0780012  91.9894997  85.3199988
 105.7550012  94.1364997  84.7199988 106.8380012  94.0254997  84.4979988
 105.6710012  95.0154997  85.3949988 104.7700012  94.2054997  83.5729988
 104.8390012  95.2144997  83.1129988 103.7300012  94.2024997  83.9649988
 104.9280012  93.1974997  82.4179988 105.9020012  93.4344997  81.9389988
 104.1330012  93.3824997  81.6629988 104.8500012  91.7024997  82.7749988
 105.7320012  91.4224997  83.3889988 104.7690012  91.0514997  81.8789988
 103.9840012  91.5754997  83.4589988 118.8930012  73.1264997  81.8879988
 118.5450012  72.1294997  81.5449988 119.4780012  73.6054997  81.0739988
 118.0060012  73.7124997  82.2139988 119.7660012  73.1384997  83.1449988
 119.3960012  72.5064997  83.9809988 120.8100012  72.8194997  82.9349988
 120.0040012  74.5244997  83.8179988 120.9810012  74.4834997  84.3449988
 120.2330012  75.2194997  82.9819988 118.9350012  75.1944997  84.7909988
 118.8780012  76.2944997  84.6459988 117.9790012  74.7164997  84.4869988
 119.1130012  75.0164997  86.2589988 118.0690012  75.1734997  86.6069988
 119.3520012  73.9804997  86.5809988 120.0410012  75.9964997  86.9469988
 121.1090012  75.7084997  86.8369988 119.9480012  77.0254997  86.5399988
 119.7840012  76.1354997  88.4949988 120.1670012  77.1114997  88.8609988
 118.6760012  76.0684997  88.5269988 120.4430012  75.0574997  89.3969988
 119.9640012  75.1144997  90.3969988 120.0440012  74.0924997  89.0179988
 121.9890012  74.9904997  89.3419988 122.4670012  74.7484997  88.3689988
 122.3470012  76.0044997  89.6209988 122.7030012  73.9484997  90.2759988
 122.2340012  72.9864997  89.9799988 123.7760012  73.9854997  89.9909988
 122.4950012  74.2274997  91.7769988 121.3850012  74.2194997  91.8229988
 122.8950012  73.4574997  92.4719988 122.9690012  75.6204997  92.2939988
 124.0550012  75.5794997  92.0669988 122.5720012  76.5474997  91.8269988
 122.8370012  75.7244997  93.8529988 122.8370012  74.6704997  94.2069988
 123.7470012  76.1614997  94.3169988 121.5600012  76.3614997  94.2069988
 121.5290012  77.3934997  93.7949988 120.7590012  75.7304997  93.7669988
 121.1980012  76.5084997  95.7279988 121.2540012  75.4774997  96.1379988
 122.0020012  77.1694997  96.1179988 119.8700012  77.1994997  96.0609988
 119.2290012  77.6654997  95.1649988 119.5640012  77.0644997  97.3199988
 118.3180012  77.7114997  97.7389988 118.5070012  78.4994997  98.4989988
 117.7410012  78.1134997  96.8789988 117.4840012  76.6314997  98.5209988
 116.4800012  77.0664997  98.7109988 118.1650012  76.0194997  99.7369988
 118.6100012  76.8344997 100.3469988 117.3630012  75.6444997 100.4079988
 119.1150012  74.9294997  99.4329988 120.3240012  74.4744997 100.3139988
 119.6890012  73.3864997 101.3059988 119.3410012  72.1034997 100.7499988
 118.4540012  72.1944997 100.0869988 120.2570012  71.6384997 100.3279988
 118.8260012  71.0704997 101.8239988 118.5170012  70.1444997 101.3629988
 119.6480012  70.8424997 102.4869988 117.6280012  71.5014997 102.7609988
 116.4900012  72.0744997 102.0289988 115.9270012  71.4334997 101.3669988
 115.8180012  72.7064997 102.5909988 117.0000012  72.8434997 101.4679988
 117.0990012  70.4264997 103.6469988 117.9170012  70.3074997 104.3429988
 116.2570012  70.7824997 104.2209988 116.8450012  69.6124997 102.9839988
 118.1150012  72.6024997 103.7209988 118.3390012  73.4684997 103.1149988
 118.9230012  72.1934997 104.3089988 117.3230012  72.7554997 104.4389988
 121.2220012  73.9044997  99.2819988 120.9070012  75.5454997 101.1129988
 117.2500012  75.6074997  97.5049988 116.5550012  74.5334997  97.7479988
 115.8460012  74.3774997  98.7209988 116.6640012  73.5774997  96.5549988
 116.5650012  74.1324997  95.5979988 115.7990012  72.9284997  96.8099988
 117.8600012  72.6104997  96.6189988 117.7930012  71.6944997  95.9939988
 118.0260012  72.3394997  97.6829988 119.0970012  73.1254997  96.0109988
 120.0140012  72.7474997  96.5109988 119.2090012  74.2154997  96.1949988
 119.3010012  72.7744997  94.4939988 119.3700012  71.6654997  94.5109988
 120.2860012  73.2424997  94.2839988 118.1990012  73.1794997  93.4979988
 118.1740012  74.2764997  93.3239988 117.2050012  72.9334997  93.9299988
 118.1870012  72.4654997  92.0119988 119.2340012  72.6474997  91.6909988
 117.6030012  73.1494997  91.3589988 117.6140012  71.0024997  91.7909988
 116.5050012  71.0014997  91.7249988 117.8520012  70.5384997  92.7719988
 118.3100012  70.2654997  90.6719988 119.1350012  69.6304997  91.0289988
 118.0870012  70.1554997  89.3189988 118.7300012  69.6504997  88.5839988
 116.9230012  70.8714997  88.5389988 116.1370012  71.3104997  89.1889988
 116.4430012  70.1104997  87.8869988 117.5800012  72.0204997  87.7829988
 118.4540012  71.6184997  87.2279988 117.8550012  72.7744997  88.5509988
 116.4230012  72.6454997  86.9619988 116.8370012  73.5524997  86.4719988
 115.5790012  72.9424997  87.6209988 115.8530012  71.6434997  86.0169988
 115.1660012  71.0064997  86.6139988 116.6790012  71.0244997  85.6059988
 115.1490012  72.3304997  84.8679988 115.8800012  72.9034997  84.2579988
 114.3620012  73.0714997  85.1249988 114.4870012  71.4284997  83.7699988
 113.6920012  70.7514997  84.1489988 115.3670012  70.8894997  83.3599988
 113.8460012  72.2644997  82.6199988 114.6660012  72.9644997  82.3529988
 112.8660012  72.7164997  82.8869988 113.4000012  71.3804997  81.3999988
 113.1360012  72.0474997  80.5519988 112.5410012  70.7174997  81.6349988
 114.2830012  70.8004997  81.0549988  72.5460012 115.9064997  79.3949988
  71.8620012 116.2024997  78.5709988  72.2220012 114.9164997  79.7809988
  73.5750012 115.8634997  78.9769988  72.5210012 116.8844997  80.4609988
  73.3800012 116.6804997  81.1349988  72.7680012 117.7714997  79.8389988
  71.2150012 117.0764997  81.2619988  70.3820012 117.1614997  80.5309988
  71.2540012 116.0724997  81.7359988  71.0540012 118.1924997  82.3459988
  71.7650012 118.9684997  81.9919988  70.0120012 118.5764997  82.3349988
  71.3200012 117.7034997  83.8199988  70.8950012 118.4464997  84.5279988
  70.7310012 116.7764997  83.9919988  72.6890012 117.3294997  84.2969988
  72.9630012 116.2864997  84.0329988  73.4120012 118.0804997  83.9109988
  72.7400012 117.2304997  85.8479988  72.4460012 118.2264997  86.2439988
  72.0880012 116.4084997  86.2119988  74.1910012 117.0544997  86.3259988
  74.3850012 116.0254997  85.9539988  74.8490012 117.8564997  85.9279988
  74.2630012 117.1434997  87.8819988  75.3070012 117.0454997  88.2489988
  73.9430012 118.1744997  88.1439988  73.4070012 116.2734997  88.7449988
  72.3520012 116.3174997  88.4019988  73.7190012 115.2254997  88.5439988
  73.6290012 116.2494997  90.2659988  73.0050012 115.5264997  90.8329988
  74.7180012 116.0804997  90.4129988  73.2110012 117.6514997  90.8299988
  74.0590012 118.3274997  90.5879988  72.2710012 117.9414997  90.3129988
  73.0830012 117.7594997  92.4599988  74.1090012 117.6454997  92.8699988
  72.6400012 118.7174997  92.8089988  72.2860012 116.7204997  93.1609988
  71.3150012 116.5734997  92.6409988  72.8220012 115.7484997  93.1339988
  72.0540012 117.1074997  94.6319988  73.0240012 117.1024997  95.1719988
  71.5830012 118.1124997  94.6839988  70.9910012 116.1254997  95.2869988
  70.3060012 115.2754997  94.7039988  70.9840012 116.3974997  96.6099988
  70.3570012 115.3364997  97.3949988  69.8560012 115.8444997  98.2469988
  69.6060012 114.6844997  96.8999988  71.4520012 114.4474997  98.1169988
  70.9880012 113.5234997  98.5249988  72.0770012 115.1364997  99.3579988
  71.2520012 115.4924997 100.0119988  72.5130012 114.2894997  99.9309988
  73.1180012 116.0094997  98.9459988  73.4850012 117.2594997  99.7619988
  74.1890012 116.6414997 101.0809988  75.2780012 115.7604997 100.8439988
  74.8940012 114.7764997 100.4979988  76.0300012 116.0384997 100.0749988
  75.9480012 115.3854997 102.1459988  76.8430012 114.8334997 101.9009988
  76.2120012 116.3064997 102.6449988  75.0970012 114.7554997 103.2429988
  75.9250012 114.5464997 104.4549988  76.1320012 115.5414997 104.8199988
  75.4360012 113.8604997 105.1309988  76.8130012 114.0414997 104.1039988
  73.8890012 115.5684997 103.6609988  74.2430012 116.4644997 104.1489988
  73.2600012 115.7064997 102.7939988  73.3830012 114.9764997 104.4089988
  74.6730012 113.3954997 102.8039988  75.4440012 112.6384997 102.7849988
  74.2040012 113.4294997 101.8319988  73.8760012 112.9694997 103.3959988
  74.5230012 118.0584997  99.0069988  72.3110012 117.9834997 100.2319988
  72.4720012 114.0974997  97.1819988  72.1730012 113.1684997  96.2599988
  71.2540012 112.3944997  96.2429988  73.2400012 113.1414997  95.2079988
  74.0250012 112.3714997  95.3639988  73.6040012 114.1854997  95.1009988
  72.6770012 112.7724997  93.7709988  72.0650012 113.6354997  93.4319988
  72.0450012 111.8614997  93.8419988  73.6760012 112.6004997  92.7309988
  74.3990012 111.8394997  93.0959988  74.2770012 113.5284997  92.6199988
  72.9350012 112.1404997  91.4659988  72.1320012 112.8744997  91.2419988
  72.4050012 111.1694997  91.5689988  73.9370012 112.1674997  90.3719988
  74.8310012 111.5404997  90.5779988  74.4060012 113.1744997  90.3269988
  73.4010012 111.7684997  88.9969988  73.4410012 110.6594997  88.9529988
  73.9890012 112.2744997  88.2009988  71.8860012 111.9874997  88.7239988
  71.4230012 111.3784997  89.5299988  71.8230012 111.5394997  87.7089988
  71.3280012 113.3684997  88.6359988  71.5700012 114.0264997  89.4839988
  70.3690012 113.7544997  87.8049988  69.9890012 114.7874997  87.8049988
  69.6790012 112.9304997  86.7929988  68.6340012 113.3054997  86.7509988
  69.7120012 111.8684997  87.1189988  70.4310012 113.2254997  85.4349988
  70.4400012 114.3194997  85.2389988  69.6610012 112.7974997  84.7589988
  71.6960012 112.4724997  85.0599988  71.6280012 112.1564997  83.9969988
  71.7000012 111.5384997  85.6609988  72.9870012 113.3394997  85.3579988
  72.9860012 113.5314997  86.4519988  72.8900012 114.3774997  84.9719988
  74.2900012 112.6004997  85.0209988  74.2680012 112.2354997  83.9719988
  74.5160012 111.6964997  85.6279988  75.5470012 113.4034997  85.1509988
  76.2630012 112.5844997  85.3759988  75.3590012 114.1094997  85.9889988
  75.8810012 114.2694997  83.9249988  75.0670012 114.8314997  83.4189988
  76.2970012 113.4434997  83.3089988  76.9450012 115.3484997  84.2789988
  76.6200012 116.0744997  85.0539988  77.2370012 115.9074997  83.3649988
  77.8320012 114.8054997  84.6699988  19.5150012  74.7224997  82.6979988
  19.2860012  75.7564997  82.3619988  18.6680012  74.0094997  82.6059988
  20.3690012  74.3484997  82.0939988  19.8690012  74.6704997  84.2249988
  18.9230012  74.7874997  84.7959988  20.3000012  73.6694997  84.4449988
  20.9120012  75.7544997  84.7459988  21.8860012  75.6314997  84.2259988
  20.4450012  76.7464997  84.5689988  20.8990012  75.6084997  86.2919988
  19.8180012  75.4244997  86.4739988  21.3510012  74.6484997  86.6219988
  21.4890012  76.7884997  87.0859988  22.5840012  76.9014997  86.9349988
  20.9450012  77.7384997  86.8959988  21.2580012  76.5794997  88.6599988
  20.3870012  75.9304997  88.8919988  22.1750012  76.0554997  89.0049988
  21.1530012  77.8434997  89.5179988  21.7670012  77.7454997  90.4389988
  21.5060012  78.7404997  88.9679988  19.7870012  78.0734997  90.1649988
  18.9770012  78.2224997  89.4199988  19.4340012  77.2394997  90.8089988
  19.6740012  79.2474997  91.1639988  20.1090012  80.1814997  90.7489988
  18.5890012  79.4284997  91.3219988  20.2800012  78.8804997  92.5249988
  19.8240012  77.9614997  92.9519988  21.3710012  78.7004997  92.4159988
  20.1730012  79.9544997  93.5699988  20.7180012  80.8834997  93.2979988
  19.1790012  80.4034997  93.7809988  20.6660012  79.5714997  94.9799988
  21.6860012  79.1504997  94.8549988  20.7320012  80.5014997  95.5839988
  19.7630012  78.5614997  95.8669988  20.0240012  78.8254997  96.9149988
  18.6950012  78.8264997  95.7129988  20.1100012  77.0424997  95.6569988
  19.7990012  76.7104997  94.6439988  21.1770012  76.7504997  95.7599988
  19.2350012  76.1354997  96.5249988  19.4270012  76.4524997  97.5719988
  18.1420012  76.1664997  96.3289988  19.6540012  74.6544997  96.5599988
  18.9440012  73.7534997  96.2019988  20.8680012  74.6174997  97.0589988
  21.5460012  73.3674997  97.0849988  21.1800012  72.6774997  97.8749988
  21.5260012  72.9044997  96.0749988  23.0200012  73.6994997  97.4029988
  23.6730012  72.8114997  97.2649988  23.1160012  74.2454997  98.8149988
  22.4280012  73.6034997  99.4059988  24.1080012  73.9514997  99.2209988
  22.8020012  75.5564997  98.8339988  22.8420012  76.2644997 100.2809988
  21.4160012  76.9814997 100.2189988  20.2600012  76.2324997 100.5859988
  19.3980012  76.9014997 100.3769988  20.2230012  75.3664997  99.8909988
  20.0920012  76.0344997 102.1389988  19.4550012  75.1654997 102.2139988
  21.0520012  75.7614997 102.5499988  19.5220012  77.2404997 102.9129988
  18.1340012  77.4914997 102.5149988  17.4860012  76.6364997 102.6399988
  17.7550012  78.3094997 103.1099988  18.1440012  77.7054997 101.4559988
  19.6040012  77.0384997 104.4349988  20.5900012  76.7124997 104.7309988
  19.2540012  77.9624997 104.8719988  18.9120012  76.2514997 104.6969988
  20.2460012  78.4734997 102.5289988  20.2100012  78.5764997 101.4539988
  21.1900012  78.7094997 102.9969988  19.6750012  79.3154997 102.8929988
  22.7230012  75.1804997 101.2749988  23.9310012  77.2494997 100.4549988
  23.4820012  74.7524997  96.5219988  24.7790012  74.6404997  96.2609988
  25.6080012  73.9044997  96.8929988  25.1590012  75.4624997  94.9809988
  25.7480012  74.6884997  94.4429988  25.8530012  76.3204997  95.1059988
  23.8990012  75.8714997  94.0839988  24.3750012  76.5714997  93.3649988
  23.0790012  76.3384997  94.6709988  23.2850012  74.6444997  93.4759988
  22.6400012  74.0884997  94.1889988  24.0640012  73.8614997  93.3599988
  22.5030012  74.9344997  92.2139988  23.0670012  75.5984997  91.5249988
  21.6010012  75.5084997  92.5109988  22.1130012  73.6564997  91.5189988
  21.3090012  73.8944997  90.7899988  21.6710012  72.8884997  92.1899988
  23.2490012  73.0754997  90.7969988  23.9700012  72.5864997  91.4859988
  23.7970012  73.9434997  90.3739988  23.0110012  71.8784997  89.8249988
  22.2300012  72.2664997  89.1359988  22.4310012  71.1204997  90.3949988
  24.1250012  71.1784997  89.1459988  24.4370012  70.2384997  89.6249988
  24.8100012  71.7044997  88.1789988  25.6050012  71.0464997  87.7969988
  24.6150012  73.0914997  87.6159988  25.3420012  73.8464997  87.9839988
  23.6590012  73.4914997  88.0159988  24.4750012  73.1504997  86.1169988
  25.4680012  72.9194997  85.6759988  24.1650012  74.1834997  85.8479988
  23.2480012  72.2724997  85.5689988  22.2930012  72.6124997  86.0239988
  23.3160012  71.2304997  85.9499988  23.1770012  72.1544997  84.0599988
  22.5410012  72.9424997  83.6029988  22.6050012  71.2554997  83.7459988
  24.5350012  72.1324997  83.3319988  25.0210012  71.1864997  83.6549988
  25.0590012  73.0894997  83.5409988  24.4120012  71.8984997  81.8869988
  23.9160012  70.9074997  81.8089988  25.4720012  71.8454997  81.5599988
  23.7540012  72.9194997  80.9569988  22.6960012  73.0054997  81.2859988
  23.6240012  72.4554997  79.9559988  24.2800012  74.3154997  81.0639988
  25.3670012  74.3854997  80.8449988  24.1290012  74.7184997  82.0879988
  23.8210012  75.0444997  80.3619988  17.6010012  92.5254997  80.8879988
  18.3790012  91.8754997  81.3429988  17.9870012  93.1144997  80.0289988
  16.7830012  91.8094997  80.6569988  17.1570012  93.5054997  81.9369988
  16.2810012  94.0454997  81.5169988  16.8750012  92.9014997  82.8259988
  18.2590012  94.3734997  82.5749988  19.1100012  93.7684997  82.9549988
  18.7180012  95.0084997  81.7879988  17.8450012  95.2224997  83.8249988
  16.9050012  95.7604997  83.5799988  17.5450012  94.6954997  84.7559988
  18.9160012  96.1634997  84.3089988  19.8440012  95.5594997  84.2189988
  18.8700012  97.0354997  83.6209988  18.7770012  96.6264997  85.7809988
  17.7800012  97.0454997  86.0369988  18.9120012  95.7854997  86.4939988
  19.7080012  97.7764997  86.2589988  19.4720012  98.7194997  85.7219988
  19.4290012  98.0314997  87.3039988  21.2330012  97.4434997  86.0939988
  21.4590012  97.1224997  85.0549988  21.9540012  98.2764997  86.2389988
  21.6680012  96.1544997  86.9539988  21.0240012  95.3354997  86.5689988
  22.6760012  95.7764997  86.6769988  21.6760012  96.3354997  88.4739988
  20.6000012  96.3604997  88.7489988  22.0730012  95.4034997  88.9299988
  22.5160012  97.4724997  89.0319988  23.4420012  97.7024997  88.4639988
  21.9280012  98.4144997  88.9859988  22.9110012  97.1824997  90.5749988
  23.5390012  96.2694997  90.6559988  23.4550012  98.0724997  90.9589988
  21.6450012  97.0684997  91.3879988  20.8740012  97.7554997  90.9779988
  21.2430012  96.0334997  91.3499988  21.9140012  97.4084997  92.8709988
  22.7760012  96.7264997  93.0359988  22.1940012  98.4794997  92.9629988
  20.7270012  96.9964997  93.7819988  19.8720012  97.5004997  93.2819988
  20.6410012  95.8894997  93.8169988  20.8140012  97.5974997  95.1649988
  21.6990012  98.4254997  95.4359988  19.9060012  97.0734997  95.9529988
  20.0450012  97.3624997  97.3799988  21.0430012  97.0774997  97.7759988
  19.8300012  98.4464997  97.4909988  19.0190012  96.5534997  98.3029988
  18.0110012  96.9334997  98.0299988  19.1400012  96.8794997  99.8349988
  20.1770012  96.6084997 100.1249988  18.9020012  97.9564997  99.9709988
  18.1420012  96.2694997 100.5779988  18.4460012  95.4384997 101.9019988
  19.6070012  94.4654997 101.3459988  20.0730012  93.6384997 102.3759988
  20.1760012  94.2004997 103.3279988  19.1320012  93.0864997 102.5869988
  21.3930012  92.8564997 102.0169988  22.0680012  93.6274997 101.6759988
  21.8750012  92.3664997 102.8499988  21.3670012  91.8444997 100.9589988
  20.9200012  92.4374997  99.5849988  19.8770012  92.7144997  99.6239988
  21.5690012  93.1734997  99.1349988  20.9390012  91.6484997  98.8469988
  22.8160012  91.4534997 100.7589988  23.3470012  90.9744997 101.5669988
  22.8060012  90.6464997 100.0409988  23.2640012  92.3634997 100.3879988
  20.5080012  90.6414997 101.3479988  20.9400012  90.2244997 102.2459988
  20.5140012  89.9744997 100.4979988  19.5440012  91.0724997 101.5729988
  19.1490012  96.3494997 102.8909988  17.2520012  94.6834997 102.4199988
  19.3200012  95.1844997  98.0989988  18.4290012  94.5704997  97.3339988
  17.3020012  95.0074997  97.1329988  18.9330012  93.1784997  97.1189988
  18.4720012  92.4954997  97.8629988  20.0430012  93.1824997  97.1779988
  18.4160012  92.5374997  95.8179988  17.3290012  92.7484997  95.7359988
  18.5040012  91.4364997  95.9429988  19.2420012  92.9154997  94.5709988
  20.2100012  93.3374997  94.9149988  18.8290012  93.8064997  94.0509988
  19.3010012  91.7684997  93.5689988  18.3250012  91.6384997  93.0539988
  19.4390012  90.7774997  94.0509988  20.5180012  91.8824997  92.6039988
  21.3760012  91.7704997  93.3019988  20.5670012  92.8524997  92.0649988
  20.5250012  90.8274997  91.5379988  20.2200012  89.8594997  91.9889988
  21.4760012  90.8104997  90.9639988  19.3500012  91.0484997  90.5119988
  18.3540012  90.9454997  90.9949988  19.4820012  90.1724997  89.8419988
  19.3100012  92.2424997  89.6039988  18.8450012  93.1124997  90.0919988
  20.0140012  92.3654997  88.4259988  19.8630012  93.3074997  87.8789988
  21.0510012  91.3584997  87.7759988  21.0470012  90.5464997  88.5349988
  22.0280012  91.8874997  87.7889988  20.8980012  90.7704997  86.3379988
  19.8580012  90.3884997  86.4169988  21.6830012  90.0644997  85.9899988
  20.7430012  91.8584997  85.2289988  19.9140012  92.5624997  85.4529988
  20.5370012  91.1914997  84.3649988  22.0530012  92.6004997  85.0019988
  22.8180012  91.7954997  85.0369988  22.3890012  93.3514997  85.7479988
  22.1960012  93.2834997  83.5389988  23.2950012  93.3954997  83.4189988
  21.6710012  94.2474997  83.7069988  21.7440012  92.5074997  82.3069988
  20.6430012  92.3644997  82.3389988  22.3190012  91.5714997  82.4769988
  22.1000012  93.1444997  80.9839988  23.1940012  93.3264997  81.0309988
  21.6560012  94.1624997  81.0199988  21.5830012  92.3124997  79.8189988
  21.9860012  91.2774997  79.8419988  22.0140012  92.6864997  78.8659988
  20.4890012  92.3714997  79.6379988  21.5420012  83.6114997  83.0909988
  21.0720012  83.2944997  82.1359988  22.3210012  84.3814997  82.9049988
  20.7570012  84.1774997  83.6369988  21.9470012  82.4474997  83.9239988
  22.8250012  81.8874997  83.5349988  22.4920012  82.8004997  84.8249988
  21.0690012  81.2664997  84.0879988  20.7650012  80.8324997  83.1109988
  21.5970012  80.4214997  84.5789988  19.7250012  81.6174997  84.8139988
  19.3110012  82.4824997  84.2529988  19.0560012  80.7324997  84.7569988
  19.8650012  81.9074997  86.3549988  20.4900012  81.1984997  86.9389988
  20.2210012  82.9574997  86.4379988  18.4790012  82.0974997  87.0159988
  17.9560012  82.8664997  86.4089988  17.9980012  81.0974997  87.0719988
  18.5340012  82.6894997  88.4569988  17.6060012  82.2964997  88.9259988
  19.4070012  82.3504997  89.0539988  18.4960012  84.2744997  88.4269988
  19.3430012  84.5544997  87.7649988  17.5990012  84.6314997  87.8759988
  18.6510012  84.9904997  89.8099988  19.6090012  84.6294997  90.2399988
  18.6370012  86.0944997  89.6889988  17.5430012  84.6594997  90.8059988
  16.5860012  84.9794997  90.3429988  17.3910012  83.5704997  90.9679988
  17.7930012  85.2724997  92.1939988  18.7640012  84.9364997  92.6159988
  17.9300012  86.3634997  92.0309988  16.7340012  84.9544997  93.2719988
  16.0130012  85.7634997  93.5189988  16.2430012  84.0594997  92.8329988
  17.2040012  84.5194997  94.7059988  17.9440012  85.2764997  95.0429988
  16.2740012  84.4894997  95.3129988  17.9670012  83.1364997  94.7389988
  17.3060012  82.3494997  94.3179988  18.9840012  83.1564997  94.2939988
  18.0980012  82.7194997  96.2089988  18.5440012  83.4704997  96.8959988
  17.1120012  82.4824997  96.6639988  19.0230012  81.5224997  96.4019988
  19.6490012  81.0094997  95.4969988  18.8570012  80.9154997  97.6279988
  19.7790012  79.9314997  98.0089988  19.2740012  79.3144997  98.7829988
  20.0680012  79.2344997  97.1939988  20.9820012  80.6744997  98.7259988
  21.7010012  79.9924997  99.2289988  20.3750012  81.6154997  99.7509988
  19.5850012  81.0704997 100.3089988  21.0990012  81.7964997 100.5739988
  19.9510012  82.8574997  99.2829988  19.2370012  83.8934997 100.2879988
  20.3810012  84.1844997 101.3609988  21.6060012  84.7414997 100.9759988
  22.4800012  84.4244997 101.5839988  21.7780012  84.5564997  99.8939988
  21.6070012  86.2784997 101.2639988  22.5010012  86.7404997 100.8719988
  20.7610012  86.7524997 100.7889988  21.5300012  86.8024997 102.7469988
  20.2450012  86.2764997 103.4379988  20.0900012  86.5674997 104.4659988
  19.3340012  86.3854997 102.8679988  20.4110012  85.2104997 103.4959988
  22.7190012  86.2794997 103.5669988  23.6400012  86.7184997 103.2139988
  22.6120012  86.6764997 104.5659988  22.6420012  85.2024997 103.5599988
  21.5820012  88.2724997 102.7629988  20.8460012  88.6424997 102.0639988
  22.5790012  88.6084997 102.5149988  21.5040012  88.7124997 103.7459988
  18.9460012  85.1344997  99.5069988  18.0680012  83.2314997 100.9879988
  21.8170012  81.4284997  97.8129988  22.8580012  81.9804997  98.2739988
  23.3780012  81.9124997  99.4189988  23.5050012  82.5444997  97.0769988
  23.0070012  82.3974997  96.0939988  24.5160012  82.0984997  96.9589988
  23.6020012  84.0694997  97.2899988  24.3320012  84.5094997  96.5779988
  23.9540012  84.2524997  98.3269988  22.3760012  84.8494997  97.0039988
  22.4610012  85.9004997  97.3529988  21.5160012  84.3894997  97.5369988
  21.9440012  84.8204997  95.5389988  20.8750012  85.0784997  95.3789988
  22.0310012  83.8294997  95.0449988  22.6660012  85.9484997  94.6629988
  23.7410012  85.6704997  94.6109988  22.7580012  86.9204997  95.1929988
  21.9070012  86.2644997  93.4109988  22.3160012  87.2234997  93.0279988
  20.8860012  86.6024997  93.6919988  21.8770012  85.2604997  92.2919988
  21.2310012  85.7504997  91.5329988  21.3380012  84.4074997  92.7589988
  23.2410012  84.7404997  91.8549988  23.6340012  83.8714997  92.4019988
  24.0660012  85.2634997  90.9279988  25.0360012  84.8094997  90.6779988
  23.7730012  86.4244997  90.0839988  24.6520012  87.1024997  90.0439988
  22.9540012  86.9974997  90.5679988  23.0490012  86.2214997  88.7419988
  22.7630012  87.1934997  88.2869988  22.0380012  85.7984997  88.9239988
  23.8310012  85.4684997  87.6209988  23.8770012  84.4044997  87.9389988
  24.8830012  85.8234997  87.6349988  23.1610012  85.6034997  86.2699988
  22.0610012  85.4534997  86.2459988  23.4860012  84.7484997  85.6399988
  23.5420012  86.9164997  85.5919988  24.5880012  86.7644997  85.2499988
  23.6160012  87.8324997  86.2169988  22.7700012  87.1354997  84.2469988
  21.7490012  87.4934997  84.4989988  22.6260012  86.2024997  83.6609988
  23.3410012  88.2094997  83.3529988  24.4120012  87.9864997  83.1629988
  23.2570012  89.1804997  83.8849988  22.5920012  88.4464997  82.0449988
  23.2310012  89.1044997  81.4179988  21.7230012  89.0994997  82.2739988
  22.1580012  87.6144997  81.4509988  92.0490012 109.4894997  81.9409988
  91.2510012 109.7894997  81.2289988  91.9020012 108.5264997  82.4749988
  93.0600012 109.4184997  81.4869988  92.0560012 110.6314997  83.0199988
  92.9360012 110.4384997  83.6709988  92.1990012 111.5804997  82.4609988
  90.8080012 110.6944997  83.9449988  89.8630012 110.5264997  83.3859988
  90.8100012 109.8074997  84.6129988  90.6100012 112.0394997  84.7359988
  91.6530012 112.2464997  85.0559988  90.2880012 112.8234997  84.0179988
  89.5090012 111.9884997  85.8259988  88.5200012 112.0444997  85.3229988
  89.4110012 111.0024997  86.3289988  89.4620012 113.1154997  86.9049988
  89.0580012 114.0094997  86.3839988  88.7870012 112.7584997  87.7119988
  90.8230012 113.3174997  87.5909988  91.7040012 113.6174997  86.9829988
  90.7200012 114.1814997  88.2809988  91.3500012 112.1924997  88.4889988
  91.5930012 111.3634997  87.7899988  92.2870012 112.5704997  88.9519988
  90.5590012 111.5784997  89.7179988  90.2530012 112.3994997  90.4009988
  89.6200012 111.0364997  89.4769988  91.2910012 110.5594997  90.5949988
  91.6960012 109.8194997  89.8719988  92.0830012 111.2304997  90.9919988
  90.5050012 109.9044997  91.7759988  89.6530012 109.2634997  91.4649988
  91.1920012 109.2914997  92.3979988  89.8440012 111.0014997  92.6249988
  90.6160012 111.6204997  93.1299988  89.2500012 111.6884997  91.9849988
  88.9860012 110.5004997  93.7689988  88.2660012 109.7964997  93.2999988
  89.5150012 109.9184997  94.5529988  88.2600012 111.7264997  94.4399988
  89.0160012 112.4774997  94.7559988  87.6710012 112.2694997  93.6699988
  87.2820012 111.3544997  95.5679988  86.3870012 112.0124997  95.5459988
  86.9100012 110.3234997  95.3869988  88.1390012 111.4274997  96.8359988
  89.1900012 112.0694997  96.9919988  87.6850012 110.5374997  97.7379988
  88.1600012 110.6004997  99.0919988  89.2700012 110.5904997  99.0319988
  87.6470012 111.4924997  99.5129988  87.6770012 109.3094997  99.8439988
  86.5830012 109.2474997  99.6609988  87.9460012 109.3404997 101.3519988
  87.9940012 110.3434997 101.8269988  87.1350012 108.7394997 101.8149988
  89.2150012 108.8164997 101.6179988  89.9390012 108.8484997 103.0879988
  91.5070012 108.4674997 102.6969988  91.6750012 107.3684997 101.8179988
  92.6060012 106.8094997 102.0519988  90.8220012 106.6594997 101.8849988
  91.5760012 107.8484997 100.3409988  91.9240012 106.9984997  99.7729988
  90.5550012 108.1284997 100.1279988  92.4530012 109.0014997  99.8839988
  93.8610012 108.8174997 100.3819988  94.3310012 107.9194997 100.0089988
  94.5190012 109.6344997 100.1229988  93.7880012 108.8364997 101.4589988
  92.4260012 108.9914997  98.3949988  93.0090012 108.1694997  98.0069988
  91.4070012 108.8884997  98.0519988  92.9010012 109.9034997  98.0649988
  92.0130012 110.3174997 100.4659988  91.0240012 110.3494997 100.0339988
  92.5590012 111.1984997 100.1619988  92.0640012 110.3334997 101.5449988
  89.8430012 110.2504997 103.5579988  89.3640012 107.8054997 103.9339988
  88.2960012 108.2034997  99.2779988  87.5960012 107.0574997  99.3929988
  86.4820012 106.9124997  99.8829988  88.4480012 105.8884997  98.9799988
  88.2980012 105.0234997  99.6599988  89.5490012 106.0364997  98.9559988
  88.1410012 105.5394997  97.5059988  87.0520012 105.4644997  97.2999988
  88.4720012 104.4944997  97.3259988  88.9330012 106.4484997  96.5079988
  89.9310012 106.7194997  96.9129988  88.2610012 107.3324997  96.5159988
  89.1340012 105.8184997  95.1399988  89.7000012 104.8694997  95.2549988
  89.6990012 106.5964997  94.5839988  87.9560012 105.6134997  94.2109988
  87.3810012 106.5554997  94.0849988  87.2780012 104.9334997  94.7689988
  88.3080012 104.9274997  92.8609988  88.8810012 103.9954997  93.0569988
  88.9680012 105.5754997  92.2449988  87.1670012 104.4394997  92.0399988
  86.6300012 103.6244997  92.5709988  87.5680012 103.9474997  91.1279988
  86.0210012 105.4114997  91.7049988  85.4260012 105.7274997  92.5739988
  85.8040012 105.8504997  90.4569988  84.9090012 106.4894997  90.4819988
  86.5210012 105.4614997  89.2219988  86.1130012 104.6904997  88.5349988
  87.5040012 105.0054997  89.4669988  86.8980012 106.6544997  88.3059988
  86.0870012 107.4064997  88.1919988  87.1490012 106.1544997  87.3459988
  88.2870012 107.3284997  88.7539988  88.9230012 106.4184997  88.7119988
  88.1890012 107.6864997  89.8009988  89.0470012 108.3134997  87.8979988
  89.8810012 108.6864997  88.5299988  88.3220012 109.1444997  87.7629988
  89.4720012 107.8104997  86.4909988  90.3250012 108.4614997  86.2039988
  88.6630012 107.9774997  85.7469988  90.0630012 106.3294997  86.4389988
  89.2650012 105.5584997  86.4919988  90.8910012 106.2094997  87.1699988
  90.7530012 106.0534997  85.0789988  91.4590012 105.2154997  85.2619988
  91.2940012 106.9904997  84.8239988  89.7440012 105.6614997  84.0309988
  90.2170012 104.9984997  83.2759988  89.3560012 106.6434997  83.6849988
  88.9250012 105.1344997  84.5649988 101.2590012  32.9214997  84.6409988
 100.6940012  33.7374997  84.1419988 100.6120012  32.0674997  84.9319988
 102.0140012  32.5934997  83.8939988 101.9510012  33.4634997  85.8739988
 102.3090012  32.5574997  86.4079988 102.7410012  34.0814997  85.3979988
 101.0850012  34.3104997  86.8139988 100.2000012  33.7474997  87.1809988
 101.7450012  34.4434997  87.6969988 100.7210012  35.7174997  86.2239988
 101.6720012  36.2874997  86.1489988 100.4160012  35.6214997  85.1599988
  99.5970012  36.4774997  87.0689988  99.3290012  37.4034997  86.5169988
  98.7580012  35.7654997  87.2269988 100.0570012  36.9574997  88.4499988
 100.7230012  36.2134997  88.9369988 100.5830012  37.9244997  88.2999988
  98.9330012  37.3914997  89.3779988  99.3880012  38.0974997  90.1049988
  98.1810012  38.0044997  88.8359988  98.1260012  36.3034997  89.9429988
  97.4280012  36.7434997  90.6869988  97.6130012  35.7814997  89.1069988
  98.8660012  35.2864997  90.7909988  99.3170012  34.5924997  90.0499988
  99.7640012  35.6484997  91.3369988  98.0520012  34.5454997  91.8859988
  97.1270012  34.1734997  91.3969988  98.6600012  33.6994997  92.2739988
  97.7100012  35.4914997  93.0679988  97.5580012  36.5214997  92.6809988
  96.7180012  35.1304997  93.4139988  98.7750012  35.5604997  94.1339988
  98.7560012  34.4794997  94.3889988  99.7810012  35.8344997  93.7509988
  98.4390012  36.5044997  95.2269988  98.0530012  37.5094997  94.9529988
  97.6860012  36.2324997  95.9979988  99.5580012  37.0074997  96.0879988
 100.3810012  37.4994997  95.5269988  99.0690012  37.7244997  96.7819988
 100.2260012  35.8394997  96.9519988 100.3560012  36.2774997  97.9649988
  99.5470012  34.9604997  96.9529988 101.6490012  35.2874997  96.3979988
 102.0200012  35.4634997  95.2729988 102.3110012  34.7204997  97.3539988
 103.6350012  34.3004997  97.2199988 103.7730012  33.3274997  97.7379988
 103.9650012  34.1364997  96.1719988 104.5670012  35.3284997  97.8369988
 105.5620012  34.8364997  97.7779988 104.1450012  35.7144997  99.2769988
 103.9480012  34.9174997 100.0259988 104.9820012  36.2844997  99.7329988
 102.9710012  36.5324997  99.2429988 102.3670012  37.3974997 100.4799988
 101.6320012  36.3754997 101.4999988 100.3580012  35.7824997 101.3369988
  99.5710012  36.5604997 101.2289988 100.3010012  35.2114997 100.3859988
  99.9280012  34.7324997 102.3969988 100.1380012  35.2314997 103.3309988
  98.8660012  34.5854997 102.2659988 100.7380012  33.4214997 102.4999988
 100.2120012  32.5554997 103.6499988  99.1460012  32.5264997 103.4789988
 100.6490012  31.5734997 103.5429988 100.4900012  33.0644997 104.5609988
 100.7160012  32.5744997 101.2419988 100.8040012  33.1844997 100.3549988
 101.4880012  31.8214997 101.1719988  99.7180012  32.1704997 101.1639988
 102.2230012  33.8444997 102.7519988 102.2690012  34.2564997 103.7489988
 102.5110012  34.5514997 101.9879988 102.8870012  32.9974997 102.6559988
 103.5680012  37.8934997 101.2329988 101.4070012  38.3334997  99.8459988
 104.4970012  36.4104997  96.8899988 105.2690012  37.5344997  97.1769988
 106.0770012  37.6414997  98.0189988 104.9290012  38.6424997  96.2659988
 105.1690012  38.2124997  95.2699988 105.4130012  39.5754997  96.6239988
 103.4110012  38.8644997  96.5909988 103.3270012  39.1494997  97.6619988
 102.8510012  37.9204997  96.4149988 102.7630012  39.8494997  95.6519988
 103.2240012  40.8564997  95.7349988 101.6580012  39.8894997  95.7489988
 102.9600012  39.4164997  94.1019988 102.4990012  38.4094997  94.0119988
 104.0450012  39.2434997  93.9369988 102.2810012  40.4804997  93.1679988
 102.4770012  41.4914997  93.5839988 101.1760012  40.3734997  93.1899988
 102.8340012  40.3904997  91.7529988 103.9200012  40.1614997  91.7909988
 102.7730012  41.4134997  91.3219988 102.1190012  39.4404997  90.8099988
 102.4680012  39.6724997  89.7809988 101.0260012  39.6254997  90.8759988
 102.3970012  37.9254997  90.9609988 101.9320012  37.6104997  91.9069988
 103.0330012  36.9744997  90.2719988 103.3300012  36.0734997  90.8289988
 103.6520012  37.1804997  88.8629988 103.7450012  38.2274997  88.5059988
 103.0460012  36.5854997  88.1469988 105.0480012  36.4964997  88.9659988
 105.0440012  35.5894997  89.6079988 105.8780012  37.1054997  89.3839988
 105.5810012  36.0214997  87.5919988 105.8240012  36.9064997  86.9659988
 104.8140012  35.4704997  87.0069988 106.7550012  35.0714997  87.7919988
 106.4590012  34.3004997  88.5349988 107.5060012  35.7594997  88.2359988
 107.2010012  34.5244997  86.5009988 106.2890012  34.2994997  85.9069988
 107.8440012  33.6314997  86.6499988 108.1230012  35.5884997  85.7159988
 109.1200012  35.4914997  86.1949988 107.8550012  36.6594997  85.8449988
 108.2690012  35.2524997  84.1799988 107.2780012  35.1874997  83.6819988
 108.7350012  34.2594997  84.0059988 109.1120012  36.3724997  83.5539988
 110.1610012  36.3504997  83.9199988 108.5980012  37.3544997  83.6339988
 109.2330012  36.0864997  82.4879988 109.1600012  39.3874997  81.5849988
 109.7320012  40.2224997  82.0419988 108.1290012  39.5124997  81.9779988
 109.1180012  39.4874997  80.4789988 109.7390012  38.1544997  82.0349988
 109.3090012  37.3584997  81.3909988 110.8410012  38.0254997  81.9639988
 109.5200012  37.9204997  83.5479988 109.9830012  38.7944997  84.0529988
 108.4450012  37.9944997  83.8179988 110.1500012  36.6144997  83.9809988
 109.5550012  35.8094997  83.4989988 111.2140012  36.3974997  83.7469988
 110.0450012  36.4454997  85.5019988 110.2010012  37.3904997  86.0659988
 109.0220012  36.0314997  85.6279988 111.1420012  35.5594997  86.0529988
 111.2060012  34.5964997  85.5029988 112.1010012  36.0194997  85.7319988
 111.1990012  35.5614997  87.5569988 110.2370012  35.3114997  88.0539988
 111.9010012  34.7914997  87.9419988 111.5140012  36.9404997  88.2289988
 112.5630012  37.1014997  87.9019988 110.9520012  37.7944997  87.7949988
 111.3430012  36.9844997  89.7019988 111.6540012  36.0204997  90.1589988
 111.9640012  37.7454997  90.2209988 109.8910012  37.2134997  90.1749988
 109.5730012  38.1604997  89.6879988 109.2310012  36.4774997  89.6679988
 109.6930012  37.1264997  91.6939988 108.6080012  36.9234997  91.8169988
 110.2180012  36.3104997  92.2359988 109.8200012  38.5594997  92.2929988
 110.9090012  38.7774997  92.2969988 109.2180012  39.3074997  91.7329988
 109.2570012  38.6274997  93.7399988 109.3450012  39.6934997  94.0389988
 108.2000012  38.2834997  93.7459988 109.9190012  37.6904997  94.7889988
 109.5310012  37.9784997  95.7889988 109.6780012  36.6604997  94.4479988
 111.5020012  37.6784997  94.8349988 111.8310012  37.2874997  93.8479988
 111.9790012  38.6734997  94.9639988 111.9800012  36.5924997  95.8089988
 112.5270012  35.5674997  95.4879988 111.5900012  36.9334997  97.0209988
 112.2000012  36.1174997  98.0609988 111.3300012  35.5644997  98.4759988
 112.9910012  35.3474997  97.9319988 112.6810012  37.1344997  99.1909988
 113.0720012  36.5334997 100.0399988 111.6210012  38.1134997  99.6489988
 112.0250012  38.8504997 100.3759988 111.1830012  38.6264997  98.7659988
 110.6400012  37.4204997 100.3479988 109.2930012  38.2784997 100.6389988
 109.8260012  39.7414997 100.6999988 109.1210012  40.9684997 100.6319988
 109.4490012  41.4154997  99.6699988 108.0350012  40.7544997 100.5439988
 109.4410012  41.7794997 101.8949988 109.2080012  42.8284997 101.7869988
 108.7790012  41.3434997 102.6289988 110.8970012  41.6584997 102.4649988
 111.9390012  41.8874997 101.3709988 111.8700012  41.1634997 100.5729988
 111.8340012  42.8804997 100.9579988 112.9250012  41.8974997 101.8099988
 111.1380012  42.6384997 103.6079988 110.5820012  42.4164997 104.5069988
 112.1820012  42.5054997 103.8529988 111.0180012  43.6754997 103.3319988
 111.1480012  40.3274997 103.0689988 110.9160012  39.6404997 102.2679988
 110.4550012  40.2394997 103.8929988 112.1310012  40.2134997 103.4999988
 108.3900012  38.1014997  99.4739988 108.7730012  37.8804997 101.9809988
 113.7090012  37.8844997  98.6019988 114.5690012  38.5664997  99.4099988
 114.6160012  38.4424997 100.5869988 115.3320012  39.5944997  98.5999988
 116.2050012  39.0724997  98.1519988 115.8560012  40.3824997  99.1809988
 114.5130012  40.2384997  97.4869988 114.2320012  39.5164997  96.6909988
 115.1970012  40.9914997  97.0399988 113.2340012  41.0864997  97.8119988
 113.5040012  42.0134997  98.3609988 112.5900012  40.4604997  98.4659988
 112.6000012  41.5474997  96.5579988 112.4030012  40.6074997  95.9999988
 113.3330012  42.2004997  96.0379988 111.2180012  42.3034997  96.6569988
 111.3690012  43.2824997  97.1609988 110.5280012  41.6384997  97.2199988
 110.5010012  42.5994997  95.3129988 109.5080012  43.0164997  95.5849988
 110.3080012  41.6174997  94.8299988 111.1770012  43.6584997  94.4249988
 112.2630012  43.4334997  94.3509988 111.1690012  44.6144997  94.9899988
 110.5870012  43.7164997  93.0249988 109.5000012  43.7344997  92.8519988
 111.3340012  43.6344997  91.8889988 110.6440012  43.5244997  91.0389988
 112.8390012  43.5044997  91.7399988 113.0640012  42.4404997  91.9659988
 113.3750012  44.0384997  92.5539988 113.3380012  44.0414997  90.4069988
 114.4480012  44.0584997  90.3999988 112.8920012  45.0514997  90.2799988
 112.9040012  43.0724997  89.2299988 113.5000012  43.3384997  88.3319988
 111.8870012  43.2474997  88.8169988 112.8620012  41.5424997  89.3499988
 112.3920012  41.2254997  90.3049988 113.8860012  41.2004997  89.6149988
 112.4760012  40.7434997  88.1529988 111.4260012  40.9464997  87.8519988
 112.3640012  39.6724997  88.4249988 113.4810012  40.8294997  87.0079988
 114.2940012  40.1134997  87.2549988 113.8320012  41.8634997  86.8029988
 112.9490012  40.3114997  85.6459988 111.9980012  40.8644997  85.4909988
 112.7860012  39.2154997  85.5589988 113.7100012  40.5954997  84.3779988
 113.8610012  41.6684997  84.1289988 113.0480012  40.2444997  83.5579988
 114.6330012  39.9774997  84.4099988 118.6850012  82.0454997  81.8879988
 118.1100012  81.1594997  81.5449988 119.3680012  82.3704997  81.0739988
 117.9650012  82.8254997  82.2139988 119.5370012  81.8484997  83.1449988
 119.0260012  81.3234997  83.9809988 120.4740012  81.2894997  82.9349988
 120.0980012  83.1374997  83.8179988 121.0370012  82.8644997  84.3449988
 120.4860012  83.7584997  82.9819988 119.2200012  84.0434997  84.7909988
 119.4270012  85.1254997  84.6459988 118.1770012  83.8074997  84.4869988
 119.3500012  83.8284997  86.2589988 118.3740012  84.2294997  86.6069988
 119.3360012  82.7654997  86.5809988 120.4850012  84.5584997  86.9469988
 121.4530012  84.0244997  86.8369988 120.6400012  85.5804997  86.5399988
 120.2690012  84.7544997  88.4949988 120.8740012  85.6114997  88.8609988
 119.1760012  84.9544997  88.5269988 120.6520012  83.5514997  89.3969988
 120.2000012  83.7204997  90.3969988 120.0340012  82.7094997  89.0179988
 122.1370012  83.1164997  89.3419988 122.5440012  82.7674997  88.3689988
 122.7260012  84.0164997  89.6209988 122.5820012  81.9354997  90.2759988
 121.8970012  81.1124997  89.9799988 123.6330012  81.7154997  89.9909988
 122.4460012  82.2554997  91.7769988 121.3660012  82.5124997  91.8229988
 122.6510012  81.4124997  92.4719988 123.2390012  83.4954997  92.2939988
 124.2840012  83.1964997  92.0669988 123.0740012  84.4894997  91.8269988
 123.1350012  83.6274997  93.8529988 122.8840012  82.6044997  94.2069988
 124.1230012  83.8344997  94.3169988 122.0480012  84.5514997  94.2069988
 122.2630012  85.5604997  93.7949988 121.1190012  84.1284997  93.7669988
 121.7310012  84.7804997  95.7279988 121.5400012  83.7654997  96.1379988
 122.6690012  85.2304997  96.1179988 120.6060012  85.7674997  96.0609988
 120.0950012  86.3734997  95.1649988 120.2770012  85.7094997  97.3199988
 119.2210012  86.6344997  97.7389988 119.5920012  87.3554997  98.4989988
 118.7560012  87.1624997  96.8789988 118.1530012  85.7844997  98.5209988
 117.2820012  86.4464997  98.7109988 118.6680012  85.0284997  99.7369988
 119.2950012  85.7134997 100.3469988 117.8000012  84.8554997 100.4079988
 119.3310012  83.7434997  99.4329988 120.3970012  83.0124997 100.3139988
 119.5200012  82.1074997 101.3059988 118.8770012  80.9454997 100.7499988
 118.0370012  81.2444997 100.0869988 119.6550012  80.2744997 100.3279988
 118.1310012  80.0644997 101.8239988 117.6090012  79.2394997 101.3629988
 118.8750012  79.6474997 102.4869988 117.0700012  80.7684997 102.7609988
 116.1010012  81.5964997 102.0289988 115.4020012  81.1084997 101.3669988
 115.6000012  82.3704997 102.5909988 116.7800012  82.2214997 101.4679988
 116.3000012  79.8504997 103.6469988 117.0650012  79.5404997 104.3429988
 115.5670012  80.3974997 104.2209988 115.8590012  79.1214997 102.9839988
 117.8060012  81.7224997 103.7209988 118.2300012  82.5094997 103.1149988
 118.4930012  81.1324997 104.3089988 117.0730012  82.0594997 104.4389988
 121.1330012  82.2454997  99.2819988 121.2180012  83.9144997 101.1129988
 117.6820012  84.8464997  97.5049988 116.7510012  83.9694997  97.7479988
 116.0250012  83.9864997  98.7209988 116.6280012  83.0154997  96.5549988
 116.6650012  83.5774997  95.5979988 115.6340012  82.5904997  96.8099988
 117.5590012  81.7904997  96.6189988 117.2760012  80.9164997  95.9939988
 117.6560012  81.4884997  97.6829988 118.8830012  81.9954997  96.0109988
 119.6840012  81.4104997  96.5109988 119.2520012  83.0274997  96.1949988
 118.9980012  81.6054997  94.4939988 118.8010012  80.5124997  94.5109988
 120.0670012  81.8254997  94.2839988 118.0240012  82.2624997  93.4979988
 118.2620012  83.3334997  93.3239988 117.0010012  82.2604997  93.9299988
 117.8420012  81.5714997  92.0119988 118.9030012  81.4984997  91.6909988
 117.4390012  82.3744997  91.3589988 116.9380012  80.2874997  91.7909988
 115.8600012  80.5514997  91.7249988 117.0580012  79.7804997  92.7719988
 117.4380012  79.4054997  90.6719988 118.0870012  78.5924997  91.0289988
 117.1940012  79.3524997  89.3189988 117.6990012  78.7084997  88.5839988
 116.2350012  80.3244997  88.5389988 115.5760012  80.9394997  89.1889988
 115.5870012  79.7004997  87.8869988 117.1470012  81.2844997  87.7829988
 117.9000012  80.6854997  87.2279988 117.5940012  81.9514997  88.5509988
 116.1720012  82.1674997  86.9619988 116.7910012  82.9494997  86.4719988
 115.4240012  82.6574997  87.6209988 115.3800012  81.3294997  86.0169988
 114.5610012  80.8754997  86.6139988 116.0340012  80.5314997  85.6059988
 114.8600012  82.1654997  84.8679988 115.7070012  82.5474997  84.2579988
 114.2730012  83.0724997  85.1249988 114.0020012  81.4474997  83.7699988
 113.0680012  80.9794997  84.1489988 114.7280012  80.7134997  83.3599988
 113.5790012  82.4124997  82.6199988 114.5420012  82.8964997  82.3529988
 112.7350012  83.0844997  82.8869988 112.9350012  81.6594997  81.3999988
 112.8370012  82.3704997  80.5519988 111.9420012  81.2204997  81.6349988
 113.6540012  80.8864997  81.0549988  32.0410012  56.6474997  81.8879988
  31.0010012  56.4624997  81.5449988  32.7450012  56.3714997  81.0739988
  32.1180012  57.7064997  82.2139988  32.4780012  55.8904997  83.1449988
  31.7460012  55.9054997  83.9809988  32.7100012  54.8244997  82.9349988
  33.8030012  56.3614997  83.8179988  34.2450012  55.4894997  84.3449988
  34.5210012  56.5014997  82.9819988  33.8650012  57.6224997  84.7909988
  34.7970012  58.2094997  84.6459988  32.9800012  58.2214997  84.4869988
  33.7970012  57.3804997  86.2589988  33.4230012  58.3664997  86.6069988
  33.0100012  56.6634997  86.5809988  35.1050012  57.0494997  86.9469988
  35.3770012  55.9774997  86.8369988  35.9580012  57.6344997  86.5399988
  35.1010012  57.3414997  88.4949988  36.1400012  57.4854997  88.8609988
  34.5000012  58.2754997  88.5269988  34.4830012  56.2394997  89.3969988
  34.2980012  56.6854997  90.3969988  33.4460012  56.1154997  89.0179988
  35.1810012  54.8574997  89.3419988  35.2040012  54.3224997  88.3689988
  36.2400012  55.0424997  89.6209988  34.6220012  53.7254997  90.2759988
  33.5530012  53.6634997  89.9799988  35.1790012  52.8074997  89.9909988
  34.7620012  54.0434997  91.7769988  34.2130012  55.0084997  91.8229988
  34.2870012  53.3184997  92.4719988  36.2100012  54.3114997  92.2939988
  36.7050012  53.3434997  92.0669988  36.8240012  55.1114997  91.8269988
  36.2350012  54.4774997  93.8529988  35.3170012  53.9624997  94.2069988
  37.0620012  53.8984997  94.3169988  36.1670012  55.9034997  94.2069988
  37.0510012  56.4354997  93.7949988  35.2250012  56.2924997  93.7669988
  36.1180012  56.2914997  95.7279988  35.2460012  55.7374997  96.1379988
  37.0870012  55.9134997  96.1179988  36.0710012  57.7864997  96.0609988
  36.1640012  58.5744997  95.1649988  35.8040012  57.9874997  97.3199988
  35.7580012  59.3904997  97.7389988  36.5380012  59.6114997  98.4989988
  35.8270012  60.0904997  96.8789988  34.4080012  59.5904997  98.5209988
  34.2960012  60.6784997  98.7109988  34.2080012  58.6974997  99.7369988
  35.1360012  58.7074997 100.3469988  33.4880012  59.2134997 100.4079988
  33.7220012  57.3354997  99.4329988  33.9160012  56.0584997 100.3139988
  32.6560012  56.0794997 101.3059988  31.3670012  55.7564997 100.7499988
  31.0130012  56.5734997 100.0869988  31.4100012  54.7294997 100.3279988
  30.2150012  55.6994997 101.8239988  29.2560012  55.5164997 101.3629988
  30.4180012  54.8714997 102.4869988  30.0040012  56.9554997 102.7609988
  29.9480012  58.2274997 102.0289988  29.1130012  58.4054997 101.3669988
  30.1700012  59.1234997 102.5909988  30.8680012  58.1594997 101.4679988
  28.8090012  56.8904997 103.6469988  29.1040012  56.1194997 104.3429988
  28.7070012  57.7994997 104.2209988  27.9740012  56.7144997 102.9839988
  31.2040012  57.0694997 103.7209988  32.0680012  57.2964997 103.1149988
  31.2420012  56.1644997 104.3089988  30.9490012  57.8344997 104.4389988
  33.8580012  54.9964997  99.2819988  35.1360012  56.0744997 101.1129988
  33.4010012  59.2934997  97.5049988  32.1250012  59.3744997  97.7479988
  31.6410012  59.9164997  98.7209988  31.3440012  58.8124997  96.5549988
  31.7790012  59.1694997  95.5979988  30.3540012  59.2484997  96.8099988
  31.0850012  57.2954997  96.6189988  30.2540012  56.9054997  95.9939988
  30.9310012  57.0184997  97.6829988  32.1390012  56.4684997  96.0109988
  32.2590012  55.4844997  96.5109988  33.1450012  56.9034997  96.1949988
  31.9330012  56.1184997  94.4939988  31.0000012  55.5154997  94.5109988
  32.8240012  55.4884997  94.2839988  31.7470012  57.2784997  93.4979988
  32.6920012  57.8364997  93.3239988  31.0470012  58.0244997  93.9299988
  31.1190012  56.9394997  92.0119988  31.7900012  56.1154997  91.6909988
  31.4290012  57.7834997  91.3589988  29.5630012  56.7234997  91.7909988
  29.0200012  57.6904997  91.7249988  29.2750012  56.2894997  92.7719988
  29.2600012  55.7554997  90.6719988  29.1100012  54.7254997  91.0289988
  29.0550012  55.8974997  89.3189988  28.9290012  55.0884997  88.5839988
  29.1100012  57.2614997  88.5389988  29.1090012  58.1624997  89.1889988
  28.2110012  57.3084997  87.8869988  30.4340012  57.2514997  87.7829988
  30.5110012  56.2914997  87.2279988  31.2260012  57.3794997  88.5509988
  30.4130012  58.5664997  86.9619988  31.4070012  58.6484997  86.4719988
  30.2600012  59.4474997  87.6209988  29.2600012  58.5724997  86.0169988
  28.3690012  58.8604997  86.6139988  29.1240012  57.5494997  85.6059988
  29.5160012  59.5234997  84.8679988  30.3720012  59.1654997  84.2579988
  29.7770012  60.5714997  85.1249988  28.4040012  59.6594997  83.7699988
  27.4250012  60.0214997  84.1489988  28.3650012  58.6284997  83.3599988
  28.8200012  60.6274997  82.6199988  29.8320012  60.2544997  82.3529988
  28.7350012  61.7024997  82.8869988  27.8310012  60.5834997  81.3999988
  28.2840012  61.1404997  80.5519988  26.8320012  61.0084997  81.6349988
  27.7570012  59.5304997  81.0549988  42.8820012  43.0714997  83.7329988
  43.4500012  42.6714997  82.8669988  43.6790012  43.5214997  84.3639988
  42.2790012  43.9574997  83.4389988  42.3350012  41.8034997  84.4209988
  42.2550012  40.9234997  83.7489988  43.0330012  41.6254997  85.2669988
  40.9320012  41.9954997  85.1389988  41.0990012  42.8154997  85.8699988
  40.2190012  42.3564997  84.3669988  40.4330012  40.7504997  85.8119988
  40.1080012  39.9844997  85.0769988  41.2180012  40.2584997  86.4259988
  39.1170012  40.8994997  86.6439988  39.0240012  41.9624997  86.9519988
  38.1990012  40.7244997  86.0439988  39.1590012  40.2274997  88.0309988
  38.6630012  39.2364997  87.9479988  40.2220012  40.1534997  88.3459988
  38.4940012  40.9464997  89.2179988  37.4990012  41.3424997  88.9219988
  38.2190012  40.2054997  89.9979988  39.2760012  42.1694997  89.7649988
  39.6730012  42.5994997  88.8209988  38.6750012  42.9684997  90.2479988
  40.4600012  41.6834997  90.5379988  40.8800012  40.7804997  90.0439988
  41.1750012  42.5334997  90.5199988  40.1240012  41.5054997  92.0179988
  39.5670012  42.4124997  92.3369988  39.4770012  40.6024997  92.0529988
  41.3470012  41.3114997  92.9689988  41.9390012  40.4264997  92.6499988
  42.1530012  42.0734997  92.9019988  41.0470012  41.1244997  94.4639988
  40.2240012  41.8254997  94.7179988  40.6680012  40.0974997  94.6559988
  42.3010012  41.2684997  95.3269988  42.0380012  40.9814997  96.3669988
  43.1740012  40.6514997  95.0259988  42.6430012  42.7204997  95.6279988
  42.9420012  43.3284997  94.7469988  41.7320012  43.2474997  95.9849988
  43.8540012  43.0274997  96.5809988  43.7980012  42.4794997  97.5459988
  44.8610012  42.7294997  96.2199988  43.9370012  44.5364997  96.8569988
  44.9330012  45.2534997  96.8189988  42.7580012  44.9064997  97.2039988
  42.6020012  46.2744997  97.7229988  43.4910012  46.5844997  98.3129988
  42.4410012  46.9204997  96.8329988  41.3480012  46.3384997  98.5469988
  41.1890012  47.4154997  98.7659988  41.6550012  45.6124997  99.8369988
  41.8250012  44.5284997  99.6599988  42.6440012  45.9644997 100.1999988
  40.5670012  45.7684997 100.7629988  40.7990012  45.3424997 102.3259988
  39.7760012  44.0614997 102.4699988  40.3150012  42.7934997 102.4999988
  41.2140012  42.6134997 101.8719988  40.5950012  42.6054997 103.5589988
  39.2760012  41.7154997 101.9679988  39.6180012  40.7704997 102.3629988
  38.3680012  41.8864997 102.5269988  39.0790012  41.6584997 100.4869988
  38.6760012  43.0124997  99.9539988  38.4030012  42.9014997  98.9149988
  37.7290012  43.2474997 100.4159988  39.4220012  43.7674997 100.1529988
  40.3650012  41.3114997  99.7489988  40.5190012  40.2694997  99.9889988
  40.2940012  41.4204997  98.6769988  41.1340012  41.9554997 100.1489988
  38.0420012  40.6704997 100.1579988  37.8980012  40.6884997  99.0879988
  37.1520012  41.0074997 100.6689988  38.2740012  39.6494997 100.4239988
  42.2130012  44.8504997 102.4879988  40.3770012  46.3954997 103.3179988
  40.2750012  45.6994997  97.7839988  39.0790012  46.1484997  98.0239988
  38.7240012  47.0914997  98.7839988  38.0980012  45.2874997  97.2289988
  38.1500012  44.2784997  97.6919988  38.4560012  45.3064997  96.1779988
  36.7050012  45.9674997  97.2839988  36.7840012  47.0614997  97.1049988
  36.3200012  45.8364997  98.3179988  35.7900012  45.4024997  96.1719988
  34.7910012  45.7654997  96.4949988  35.7880012  44.2964997  96.0669988
  36.1350012  45.9084997  94.7349988  36.6640012  46.8754997  94.8719988
  35.1040012  46.0004997  94.3319988  36.9110012  44.8494997  93.8459988
  36.1620012  44.0744997  93.5729988  37.6510012  44.4084997  94.5469988
  37.5690012  45.4124997  92.5959988  36.8790012  45.6544997  91.7589988
  38.1250012  44.5784997  92.1179988  38.5550012  46.6384997  92.7059988
  38.0730012  47.6054997  92.9669988  38.9290012  46.7644997  91.6679988
  39.6060012  46.4464997  93.7329988  39.2710012  46.5094997  94.7789988
  40.9610012  46.4074997  93.5729988  41.6430012  46.2664997  94.4239988
  41.7290012  46.5414997  92.3259988  42.7870012  46.8334997  92.4959988
  41.2990012  47.3674997  91.7179988  41.7780012  45.2354997  91.5539988
  40.7930012  44.7584997  91.3649988  42.3820012  44.5634997  92.1999988
  42.3860012  45.4044997  90.0899988  42.3710012  44.3794997  89.6619988
  43.4310012  45.7234997  90.2869988  41.6150012  46.3664997  89.1489988
  41.9540012  47.4244997  89.1559988  40.5250012  46.4394997  89.3519988
  41.8790012  45.8484997  87.6899988  41.4080012  44.8554997  87.5239988
  42.9690012  45.6494997  87.6109988  41.4550012  46.9094997  86.6219988
  41.8760012  46.6014997  85.6409988  41.8780012  47.8914997  86.9239988
  39.8980012  47.0554997  86.4889988  39.6970012  47.9994997  85.9389988
  39.4360012  47.2114997  87.4869988  39.2160012  45.9264997  85.6409988
  38.1440012  46.0594997  85.3809988  39.1190012  44.9634997  86.1869988
  39.8600012  45.7454997  84.7549988  86.0500012  23.9864997  83.2239988
  86.2290012  24.5614997  82.2899988  85.4920012  23.0834997  82.8949988
  87.0050012  23.7254997  83.7279988  85.2180012  24.6794997  84.3149988
  85.6970012  25.6724997  84.4539988  84.2230012  25.0194997  83.9549988
  85.2110012  23.8744997  85.6069988  85.2620012  22.7894997  85.3739988
  86.1740012  24.2674997  85.9979988  83.9240012  24.0054997  86.4309988
  83.0320012  23.5054997  85.9969988  84.1050012  23.3244997  87.2899988
  83.5760012  25.3504997  87.0519988  83.5630012  26.1674997  86.2989988
  82.5890012  25.3234997  87.5609988  84.6700012  25.9214997  87.9919988
  84.7960012  25.0694997  88.6939988  85.6760012  25.9674997  87.5229988
  84.2470012  27.2214997  88.7089988  84.1470012  28.0234997  87.9459988
  83.2090012  27.0134997  89.0449988  85.1500012  27.5094997  89.9439988
  84.6170012  28.1274997  90.6979988  85.3790012  26.5894997  90.5229988
  86.4000012  28.3954997  89.5479988  87.0520012  27.9644997  88.7579988
  85.8520012  29.3364997  89.3269988  87.4360012  28.6634997  90.6419988
  88.1040012  29.4534997  90.2369988  87.0190012  29.2154997  91.5109988
  88.0810012  27.4734997  91.1629988  87.3170012  26.8034997  91.6109988
  88.5240012  26.8904997  90.3269988  89.1580012  27.6724997  92.3409988
  90.0680012  28.1604997  91.9319988  88.7160012  28.3894997  93.0659988
  89.4280012  26.4824997  93.2559988  89.5200012  25.5784997  92.6169988
  90.3270012  26.5694997  93.9029988  88.2670012  26.1234997  94.2299988
  87.3290012  26.0624997  93.6389988  88.3990012  25.0474997  94.4709988
  88.0000012  27.0024997  95.4459988  88.0190012  26.3424997  96.3399988
  88.8370012  27.7234997  95.5649988  86.6630012  27.8024997  95.5009988
  86.1920012  28.4244997  94.5639988  86.1300012  27.7844997  96.7479988
  84.8400012  28.3464997  96.9369988  84.8960012  29.1624997  97.6899988
  84.4290012  28.9044997  96.0679988  83.8690012  27.3344997  97.4949988
  82.8630012  27.7914997  97.6109988  84.3410012  26.9584997  98.9809988
  84.7710012  27.8434997  99.4969988  83.4070012  26.6084997  99.4699988
  85.1860012  25.7874997  98.9009988  86.3240012  25.5464997  99.8859988
  86.6700012  26.9374997 100.3899988  87.8930012  27.3574997 101.0249988
  88.5110012  26.5524997 101.4769988  88.5640012  27.8564997 100.2939988
  87.8250012  28.3494997 102.2479988  88.7520012  28.5044997 102.7809988
  87.5890012  29.3334997 101.8709988  86.6690012  28.1074997 103.1889988
  86.7610012  28.9434997 104.4279988  86.6000012  30.0034997 104.2999988
  86.0340012  28.6174997 105.1569988  87.7120012  28.7074997 104.8819988
  85.3780012  28.4814997 102.4819988  84.5990012  27.9784997 103.0369988
  85.2600012  29.5524997 102.4149988  85.4470012  28.0244997 101.5059988
  86.6960012  26.6534997 103.4929988  87.6610012  26.1734997 103.4159988
  86.0850012  26.1494997 102.7589988  86.2610012  26.5754997 104.4779988
  85.8320012  24.6664997 100.9699988  87.5060012  24.9554997  99.1689988
  83.8580012  26.2004997  96.5999988  83.2380012  26.3294997  95.4439988
  82.6740012  27.3274997  95.0179988  83.3100012  24.9774997  94.6389988
  82.2790012  24.7054997  94.3259988  83.6150012  24.2284997  95.4019988
  84.2100012  25.0984997  93.4629988  84.9490012  25.9174997  93.5969988
  83.6260012  25.4104997  92.5709988  84.9840012  23.7904997  93.0919988
  84.2930012  22.9204997  93.0739988  85.6860012  23.5304997  93.9129988
  85.8390012  23.8514997  91.7859988  86.4970012  24.7434997  91.8599988
  85.1410012  23.9354997  90.9259988  86.6700012  22.6344997  91.5179988
  85.9700012  21.7834997  91.6619988  87.5280012  22.7074997  92.2209988
  87.2740012  22.5124997  90.1609988  86.5690012  22.7134997  89.3259988
  87.6440012  21.4664997  90.1289988  88.4050012  23.5244997  89.8829988
  88.7400012  23.8224997  90.8999988  87.8520012  24.3044997  89.3169988
  89.5820012  22.9244997  89.1719988  90.2660012  22.2764997  89.7399988
  90.0030012  23.2214997  87.9069988  90.7980012  22.6334997  87.4249988
  89.2150012  24.1774997  87.0189988  88.1050012  24.1834997  87.0669988
  89.4140012  23.9164997  85.9569988  89.6450012  25.5814997  87.2349988
  90.7320012  25.5384997  87.0109988  89.5350012  25.9424997  88.2799988
  88.9110012  26.5664997  86.2979988  87.8170012  26.4164997  86.4219988
  89.0820012  26.2694997  85.2409988  89.2770012  28.0744997  86.5209988
  90.2970012  28.2264997  86.1089988  89.2670012  28.1564997  87.6289988
  88.2470012  28.9424997  85.8499988  88.5880012  29.9944997  85.9509988
  87.2420012  29.0034997  86.3189988  88.1540012  28.7364997  84.3159988
  87.7010012  27.7394997  84.1279988  89.1850012  28.6144997  83.9209988
  87.4660012  29.8774997  83.4909988  88.0500012  30.7564997  83.8409988
  86.4490012  29.9424997  83.9329988  87.4880012  29.7314997  82.0189988
  87.0180012  30.5744997  81.4699988  86.8700012  28.8284997  81.8249988
  88.5170012  29.5534997  81.6389988  22.8350012  68.2524997  79.7979988
  23.0430012  69.3294997  79.9719988  22.0980012  68.3274997  78.9689988
  23.7080012  67.6824997  79.4159988  22.3030012  67.5314997  81.0109988
  21.5510012  66.7744997  80.6999988  23.1040012  66.9454997  81.5109988
  21.6190012  68.4204997  82.0869988  22.4070012  68.8314997  82.7529988
  21.1380012  69.2614997  81.5439988  20.5760012  67.6704997  82.9959988
  20.2600012  68.3784997  83.7919988  19.6420012  67.4664997  82.4289988
  20.9180012  66.2614997  83.6149988  21.2490012  65.5754997  82.8069988
  21.7780012  66.3374997  84.3149988  19.6900012  65.5684997  84.3009988
  18.8300012  65.6854997  83.6079988  19.9070012  64.4794997  84.3459988
  19.4240012  66.2334997  85.6579988  20.3680012  66.3544997  86.2319988
  19.0300012  67.2304997  85.3669988  18.3030012  65.6774997  86.5339988
  17.6620012  65.0344997  85.8929988  18.6500012  64.9654997  87.3129988
  17.4600012  66.8164997  87.2489988  17.2510012  67.5714997  86.4609988
  16.5170012  66.3344997  87.5839988  18.2420012  67.4834997  88.4159988
  18.2010012  66.7824997  89.2779988  19.2840012  67.7344997  88.1229988
  17.7490012  68.8114997  88.7589988  17.5600012  69.1544997  87.7189988
  16.7940012  68.6834997  89.3109988  18.6820012  69.7964997  89.5719988
  19.4560012  70.1544997  88.8599988  18.0100012  70.6614997  89.7539988
  19.3570012  69.2474997  90.8869988  20.0210012  68.3774997  90.6939988
  19.9370012  70.0704997  91.3549988  18.3140012  68.8864997  91.9829988
  17.5700012  69.6744997  92.2259988  17.7670012  68.0284997  91.5389988
  18.9460012  68.3774997  93.2969988  18.1610012  67.9654997  93.9669988
  19.7240012  67.6604997  92.9589988  19.5350012  69.6134997  94.0789988
  19.3410012  70.7414997  93.7579988  20.0490012  69.2684997  95.3049988
  20.5820012  70.3124997  96.0369988  21.2570012  70.8654997  95.3499988
  19.7090012  70.9124997  96.3719988  21.3710012  69.9094997  97.3549988
  20.6580012  69.2834997  97.9329988  21.8730012  71.0544997  98.1139988
  22.1650012  71.7864997  97.3309988  20.9510012  71.4354997  98.6039988
  22.8610012  70.8494997  99.1749988  22.4020012  70.1644997 100.5349988
  22.9820012  68.7204997 100.2569988  22.1170012  67.5784997 100.1439988
  21.2070012  67.8914997  99.5889988  22.5880012  66.7944997  99.5139988
  21.7800012  66.9314997 101.6029988  21.0600012  67.6444997 101.9769988
  21.3260012  65.9534997 101.5459988  22.8070012  66.8734997 102.7289988
  24.1560012  66.3674997 102.3139988  24.5020012  67.0234997 101.5289988
  24.8540012  66.3024997 103.1349988  23.9930012  65.4234997 101.8149988
  22.9240012  68.2214997 103.4069988  23.5470012  68.1144997 104.2829988
  23.4470012  68.9354997 102.7869988  21.9130012  68.5304997 103.6279988
  22.2730012  65.8924997 103.7729988  21.9090012  64.9454997 103.4019988
  21.4910012  66.4664997 104.2489988  23.0380012  65.7174997 104.5139988
  23.1550012  70.8444997 101.6469988  20.9140012  70.1664997 100.5969988
  22.5080012  69.0834997  97.0899988  22.1960012  67.8044997  96.7969988
  21.1060012  67.2924997  96.8229988  23.4300012  66.9744997  96.5459988
  23.7920012  66.5564997  97.5099988  24.1850012  67.7044997  96.1829988
  23.1430012  65.8804997  95.5139988  22.4820012  65.0754997  95.9019988
  24.0820012  65.3054997  95.3679988  22.5490012  66.3694997  94.2049988
  23.0840012  67.3044997  93.9319988  21.4870012  66.6204997  94.4169988
  22.6320012  65.2434997  93.1829988  22.0190012  64.3634997  93.4739988
  23.6670012  64.9404997  92.9149988  21.8830012  65.6904997  91.8539988
  21.7110012  66.7834997  91.7569988  20.8770012  65.2224997  91.9109988
  22.5390012  65.3494997  90.5079988  21.8280012  64.7774997  89.8749988
  23.3900012  64.6544997  90.6709988  23.0150012  66.6014997  89.6509988
  22.0810012  67.1804997  89.4929988  23.4280012  66.2094997  88.6969988
  24.0920012  67.5244997  90.2589988  25.1030012  67.1004997  90.3559988
  23.9390012  68.7584997  90.5729988  24.7350012  69.3934997  90.9879988
  22.6210012  69.5024997  90.4079988  22.0150012  69.4934997  91.3389988
  22.0520012  69.0194997  89.5849988  22.8870012  71.0234997  89.8629988
  23.0430012  71.6074997  90.7949988  21.8760012  71.4074997  89.6089988
  24.0350012  71.2584997  88.9049988  25.0350012  70.9234997  89.2539988
  24.0650012  72.3354997  88.6319988  23.8840012  70.5064997  87.5869988
  22.7920012  70.4364997  87.3939988  24.3010012  69.4784997  87.6449988
  24.4550012  71.2814997  86.3359988  25.5210012  71.4744997  86.5829988
  23.9580012  72.2694997  86.2299988  24.3910012  70.4734997  84.9979988
  24.8420012  71.2234997  84.3139988  23.4180012  70.4124997  84.4649988
  25.3100012  69.2964997  84.8819988  24.8990012  68.5464997  85.5919988
  26.2910012  69.5774997  85.3189988  25.5020012  68.7414997  83.4699988
  25.4640012  69.4964997  82.6559988  24.7180012  68.0034997  83.1959988
  26.5540012  68.3874997  83.4209988  96.8420012  27.3744997  82.2799988
  96.7610012  26.3064997  81.9839988  97.6150012  27.5914997  83.0469988
  97.2160012  27.9454997  81.4029988  95.5100012  27.9154997  82.8269988
  94.6580012  27.5764997  82.1989988  95.4440012  27.4724997  83.8439988
  95.4980012  29.4254997  83.1269988  96.4380012  29.7054997  83.6499988
  95.4410012  29.9684997  82.1589988  94.3480012  29.7774997  84.1229988
  94.1790012  30.8694997  84.0119988  93.4700012  29.1654997  83.8259988
  94.5830012  29.5074997  85.6019988  94.4190012  28.4304997  85.8189988
  95.6080012  29.8074997  85.9099988  93.5260012  30.2474997  86.4139988
  93.6310012  31.3424997  86.2549988  92.4990012  30.0314997  86.0499988
  93.6500012  29.9664997  87.9019988  93.3080012  28.9134997  87.9989988
  94.7020012  30.0664997  88.2459988  92.7500012  30.8254997  88.8369988
  92.9780012  31.8644997  88.5189988  91.6640012  30.5934997  88.8119988
  93.2090012  30.8714997  90.3239988  94.2280012  31.3124997  90.3109988
  92.4950012  31.5374997  90.8539988  93.2310012  29.4734997  91.0279988
  92.3830012  28.9864997  90.4999988  94.1630012  28.9564997  90.7139988
  93.1260012  29.4614997  92.5559988  94.0140012  29.9404997  93.0209988
  92.1540012  29.9354997  92.8109988  92.7170012  28.1104997  93.1459988
  91.6610012  27.9014997  92.8729988  93.3650012  27.3584997  92.6469988
  92.9290012  27.9054997  94.7029988  92.2720012  28.6634997  95.1799988
  92.5410012  26.9574997  95.1339988  94.4240012  28.0444997  95.1529988
  95.1040012  27.6194997  94.3839988  94.7380012  29.1024997  95.2749988
  94.6530012  27.2604997  96.5109988  93.8500012  27.5814997  97.2079988
  94.5940012  26.1614997  96.3539988  96.0320012  27.6804997  97.0749988
  97.0350012  27.4564997  96.3659988  96.0250012  28.1474997  98.3759988
  97.3720012  28.3244997  98.9019988  97.3750012  28.0394997  99.9759988
  98.1780012  27.7614997  98.3839988  97.8590012  29.7854997  98.8989988
  98.7620012  29.9204997  99.5329988  96.8080012  30.7774997  99.5439988
  96.5560012  30.4204997 100.5659988  97.2440012  31.7934997  99.6469988
  95.6440012  30.9314997  98.7099988  94.4270012  31.7474997  99.2989988
  94.1980012  30.8874997 100.6409988  93.2700012  31.3934997 101.5249988
  93.6250012  32.2074997 102.1919988  92.3200012  31.6354997 101.0019988
  92.9190012  30.3044997 102.4999988  91.9840012  30.4034997 103.0309988
  92.6570012  29.4474997 101.8969988  93.9520012  29.8794997 103.5769988
  93.6260012  28.4824997 104.0519988  92.5600012  28.3934997 104.1979988
  93.8940012  27.8474997 103.2209988  94.2270012  28.1634997 104.8919988
  95.3900012  29.9394997 103.1069988  95.7100012  30.9424997 102.8639988
  95.9910012  29.6784997 103.9649988  95.6100012  29.2504997 102.3049988
  93.7890012  30.8944997 104.6779988  93.8610012  31.9134997 104.3289988
  94.6170012  30.7224997 105.3489988  92.8860012  30.7454997 105.2529988
  94.8590012  33.0964997  99.6849988  93.2690012  31.7034997  98.4079988
  98.1210012  30.0534997  97.5309988  98.9820012  31.0764997  97.4309988
  99.3630012  31.6944997  98.3819988  99.2530012  31.3774997  95.9609988
  99.6730012  30.5114997  95.4059988 100.0110012  32.1834997  95.8689988
  98.0440012  32.0094997  95.2259988  98.5130012  32.5734997  94.3919988
  97.5620012  32.7794997  95.8649988  97.0300012  30.9334997  94.8069988
  96.2390012  31.5664997  94.3509988  96.6940012  30.4874997  95.7679988
  97.4810012  29.8674997  93.7509988  96.6430012  29.1854997  93.4899988
  98.0840012  29.0654997  94.2279988  98.0060012  30.4484997  92.4389988
  99.0290012  30.8464997  92.6109988  97.3780012  31.3444997  92.2429988
  98.0600012  29.4954997  91.2819988  97.3050012  28.7134997  91.5129988
  98.9810012  28.9074997  91.0799988  97.7490012  30.1984997  89.9779988
  96.7540012  30.6864997  89.9069988  97.7320012  29.3254997  89.2919988
  98.8590012  31.0774997  89.3889988  99.8100012  30.5274997  89.4559988
  98.7360012  32.2884997  88.8119988  99.6670012  32.7104997  88.4059988
  97.5150012  33.1374997  88.5999988  97.7520012  34.2214997  88.6429988
  96.7650012  32.9544997  89.3989988  96.7120012  32.8054997  87.2509988
  95.7310012  33.3224997  87.3149988  96.5820012  31.7044997  87.3259988
  97.4870012  33.2004997  86.0259988  98.5360012  32.8384997  86.0739988
  97.6650012  34.2894997  86.1499988  96.9020012  32.9644997  84.6499988
  96.0870012  33.6864997  84.4299988  96.5000012  31.9294997  84.6249988
  97.7930012  33.0254997  83.4419988  97.0970012  32.7814997  82.6119988
  98.7190012  32.4254997  83.5729988  98.3630012  34.4024997  83.1979988
  98.9390012  34.7564997  84.0799988  97.6350012  35.2204997  83.0139988
  98.9720012  34.4144997  81.8239988  99.3760012  35.4234997  81.5929988
  98.1390012  34.3194997  81.0949988 100.0530012  33.3824997  81.6029988
 100.4460012  33.0554997  82.5889988 100.7630012  33.8734997  80.9029988
  99.7140012  32.5404997  80.9619988 124.0270012  64.6824997  83.6169988
 124.4860012  65.5604997  84.1199988 123.8070012  65.0634997  82.5969988
 124.9050012  64.0014997  83.6289988 122.8250012  64.1424997  84.3309988
 121.9450012  64.8194997  84.3769988 122.3620012  63.2434997  83.8709988
 123.2600012  63.6674997  85.7139988 124.0620012  62.9044997  85.8009988
 123.6570012  64.5874997  86.1939988 122.0970012  63.0874997  86.5429988
 121.3640012  63.9194997  86.6019988 121.4920012  62.3504997  85.9729988
 122.4460012  62.4984997  87.9009988 123.1410012  61.6314997  87.9019988
 122.9470012  63.2214997  88.5799988 121.1010012  61.9844997  88.6129988
 120.6150012  61.2964997  87.8889988 121.2870012  61.3204997  89.4839988
 120.2000012  63.0444997  89.1399988 119.7500012  63.6254997  88.3069988
 119.3340012  62.4884997  89.5579988 120.7920012  63.9354997  90.2219988
 121.6200012  64.5154997  89.7629988 120.0700012  64.6794997  90.6229988
 121.5740012  63.2004997  91.3609988 121.0030012  62.2944997  91.6569988
 122.4760012  62.9274997  90.7719988 121.9160012  63.9804997  92.6509988
 121.0200012  64.1594997  93.2819988 122.5160012  63.2544997  93.2399988
 122.5500012  65.2924997  92.3559988 123.5860012  65.1234997  91.9929988
 122.0020012  65.8274997  91.5509988 122.3310012  66.0814997  93.6659988
 121.3010012  66.4834997  93.7709988 122.4220012  65.3094997  94.4589988
 123.2880012  67.2594997  93.7209988 124.3110012  66.8354997  93.6259988
 123.2900012  67.8634997  92.7889988 123.1800012  68.1734997  94.9949988
 124.1770012  68.6594997  95.0599988 122.3790012  68.9244997  94.8259988
 122.7570012  67.4644997  96.2239988 121.7140012  67.0874997  96.1559988
 123.4050012  66.5654997  96.2939988 122.8920012  68.3924997  97.4279988
 122.6220012  69.5754997  97.3539988 123.3640012  67.7534997  98.5019988
 123.4910012  68.6154997  99.6409988 124.3020012  68.0494997 100.1479988
 123.8150012  69.6234997  99.3059988 122.2150012  68.4824997 100.4639988
 122.2310012  69.0224997 101.4349988 121.8090012  66.9744997 100.6929988
 122.7300012  66.4254997 100.9809988 121.0750012  66.9654997 101.5269988
 121.2420012  66.4124997  99.5199988 120.3800012  65.0854997  99.3739988
 120.6060012  64.2424997 100.7169988 121.7650012  63.5694997 101.0809988
 121.7750012  62.5134997 100.7349988 122.6420012  64.1314997 100.6939988
 121.9280012  63.7474997 102.6649988 122.8120012  63.1674997 102.8829988
 122.1820012  64.7754997 102.8769988 120.7930012  63.3764997 103.5559988
 121.3640012  63.3134997 104.9779988 121.7300012  64.3224997 105.0919988
 120.6250012  63.0124997 105.7049988 122.2270012  62.6644997 105.0139988
 119.6680012  64.4054997 103.5319988 119.9370012  65.4324997 103.7299988
 119.2160012  64.2824997 102.5589988 119.0490012  64.0984997 104.3619988
 120.2880012  61.9794997 103.1889988 119.8520012  62.1834997 102.2219988
 119.5650012  61.5674997 103.8779988 121.1410012  61.3194997 103.2419988
 119.0050012  65.5904997  99.3799988 120.8010012  64.3414997  98.1899988
 121.1500012  69.0834997  99.6669988 120.0560012  69.3624997 100.3659988
 119.7920012  69.1054997 101.5209988 119.0720012  70.1594997  99.4099988
 119.7400012  70.8674997  98.8749988 118.3950012  70.8624997  99.9409988
 118.2950012  69.2754997  98.3929988 117.7520012  70.0874997  97.8649988
 117.5110012  68.6994997  98.9299988 118.9960012  68.5504997  97.2959988
 119.7130012  67.9094997  97.8519988 119.5650012  69.2894997  96.6919988
 118.1200012  67.7474997  96.4189988 117.5220012  68.5004997  95.8619988
 117.5010012  67.1864997  97.1519988 118.8140012  66.6984997  95.5629988
 119.1990012  65.8384997  96.1519988 119.6560012  67.1154997  94.9689988
 117.9180012  66.1164997  94.4729988 116.8930012  66.1934997  94.8939988
 118.2540012  65.0644997  94.3569988 117.9550012  66.8054997  93.0449988
 117.3760012  66.0904997  92.4219988 118.9840012  66.8584997  92.6279988
 117.3690012  68.2144997  92.9069988 116.3270012  68.1874997  92.5539988
 118.0520012  69.4174997  93.0069988 117.5670012  70.3984997  92.8979988
 119.5180012  69.5914997  93.2469988 119.9430012  68.6844997  93.7269988
 119.7180012  70.3354997  94.0469988 120.3200012  69.8414997  91.9239988
 121.4060012  69.7564997  92.1419988 120.0740012  70.8864997  91.6389988
 120.1640012  68.8064997  90.7889988 119.1560012  68.6434997  90.3519988
 120.4630012  67.8094997  91.1779988 121.0770012  69.1974997  89.6409988
 122.1330012  69.3154997  89.9639988 120.8930012  70.2564997  89.3609988
 120.8830012  68.4014997  88.3399988 119.8150012  68.3084997  88.0479988
 121.1790012  67.3594997  88.5869988 121.7640012  68.7814997  87.1249988
 122.8480012  68.8544997  87.3599988 121.3890012  69.7494997  86.7299988
 121.6860012  67.8254997  85.8759988 122.1320012  66.8384997  86.1239988
 122.3520012  68.3884997  85.1879988 120.3210012  67.4904997  85.3479988
 119.7910012  68.4034997  85.0029988 119.6480012  67.1274997  86.1539988
 120.4010012  66.8154997  84.4689988  99.9250012 107.2304997  80.8249988
 100.8410012 107.4164997  81.4269988  98.9530012 107.4414997  81.3209988
  99.9060012 107.9154997  79.9499988  99.6860012 105.7634997  80.4829988
  98.9600012 105.6224997  79.6529988 100.6040012 105.3934997  79.9789988
  99.3370012 104.8814997  81.6379988  99.7500012 103.8674997  81.4459988
  99.7370012 105.1484997  82.6389988  97.8160012 104.5704997  81.6729988
  97.3620012 105.5544997  81.9199988  97.4310012 104.1944997  80.7009988
  97.2810012 103.4414997  82.6779988  96.2140012 103.2284997  82.4519988
  97.8540012 102.4904997  82.6699988  97.5260012 103.9664997  84.1219988
  98.2800012 104.7814997  84.1629988  96.5830012 104.2904997  84.6119988
  98.1330012 102.8884997  85.1169988  99.2070012 102.7804997  84.8539988
  98.1500012 103.3014997  86.1479988  97.4920012 101.5414997  85.2229988
  96.5050012 101.7014997  85.7079988  97.3490012 101.1244997  84.2029988
  98.2680012 100.6054997  86.1909988  97.9490012  99.5444997  86.0989988
  99.3530012 100.7484997  85.9989988  98.0490012 100.8644997  87.6939988
  98.4870012 101.8634997  87.8989988  96.9730012 101.0254997  87.9199988
  98.6780012  99.8884997  88.7419988  98.4220012  98.8654997  88.3939988
  99.7860012  99.9274997  88.6599988  98.1930012 100.1264997  90.1889988
  97.0860012 100.2144997  90.2299988  98.4440012  99.2694997  90.8499988
  98.8780012 101.3534997  90.8919988  99.9340012 101.0844997  90.6779988
  98.6320012 102.3354997  90.4349988  98.6080012 101.4774997  92.4039988
  97.5680012 101.8614997  92.3269988  98.8080012 100.4734997  92.8359988
  99.5330012 102.5064997  93.0819988 100.5710012 102.1144997  93.1489988
  99.4840012 103.4434997  92.4869988  98.9360012 102.9994997  94.4439988
  97.8860012 102.5984997  94.9739988  99.6810012 103.9874997  94.8899988
  99.4330012 104.3764997  96.2269988  99.8630012 105.3754997  96.4549988
  98.3580012 104.5594997  96.4389988 100.0750012 103.4634997  97.2639988
  99.5300012 102.5044997  97.1329988  99.9080012 103.9954997  98.6789988
 100.1910012 105.0694997  98.6369988  98.8420012 104.0994997  98.9729988
 100.4090012 103.1654997  99.7089988 101.0540012 103.9144997 100.9629988
  99.9690012 104.9174997 101.4539988 100.3850012 106.1124997 102.1329988
 101.1090012 105.9354997 102.9579988 100.8710012 106.8394997 101.4479988
  99.1000012 106.7964997 102.7869988  98.5740012 106.0994997 103.4209988
  99.4870012 107.4914997 103.5179988  98.1030012 107.4194997 101.8719988
  97.6520012 106.2804997 100.9599988  97.4270012 105.4274997 101.5819988
  96.7510012 106.5754997 100.4439988  98.4180012 106.0184997 100.2449988
  96.9290012 107.9614997 102.5899988  96.3210012 108.5774997 101.9449988
  96.2620012 107.1824997 102.9289988  97.2830012 108.6934997 103.3009988
  98.6750012 108.5274997 101.0459988  99.0340012 109.3294997 101.6729988
  97.9280012 108.8274997 100.3249988  99.5390012 108.2574997 100.4559988
 101.2470012 102.8814997 102.0309988 102.3090012 104.5944997 100.6359988
 101.4350012 103.2544997  96.9699988 101.9400012 102.0454997  97.1059988
 101.5150012 101.1194997  97.7589988 103.2900012 102.1024997  96.3749988
 103.4120012 101.1194997  95.8699988 104.1670012 102.2424997  97.0419988
 103.3760012 103.2334997  95.3389988 103.3350012 104.2384997  95.8109988
 102.5200012 103.0964997  94.6439988 104.7010012 103.1734997  94.5219988
 104.6500012 102.1994997  93.9889988 105.5860012 103.0464997  95.1809988
 104.8610012 104.3204997  93.5879988 105.7840012 104.2214997  92.9769988
 104.9270012 105.2554997  94.1849988 103.7460012 104.4964997  92.5059988
 104.1820012 105.1684997  91.7359988 102.9160012 105.0504997  92.9949988
 103.1750012 103.2394997  91.9209988 102.2760012 103.5204997  91.3319988
 102.8670012 102.4444997  92.6339988 104.1770012 102.4944997  91.0109988
 105.0940012 102.2194997  91.5749988 104.5350012 103.1444997  90.1849988
 103.6050012 101.2204997  90.4419988 103.7440012 100.3724997  91.1279988
 102.8800012 101.1784997  89.2589988 102.4360012 100.2344997  88.9079988
 102.5900012 102.3414997  88.3609988 103.2050012 102.1724997  87.4509988
 102.9430012 103.2474997  88.8999988 101.1420012 102.7044997  87.9179988
 100.4510012 102.6764997  88.7879988 100.8520012 101.9584997  87.1469988
 100.9820012 104.1144997  87.2859988  99.8940012 104.2424997  87.1019988
 101.4030012 104.4034997  86.2989988 101.4780012 105.3184997  88.1389988
 102.5530012 105.5224997  87.9479988 101.3690012 105.0114997  89.2009988
 100.6110012 106.5394997  88.0169988 100.8220012 107.0824997  88.9619988
  99.5130012 106.3964997  87.9219988 100.9910012 107.6004997  86.9489988
 102.0790012 107.7924997  86.8369988 100.4090012 108.5154997  87.1899988
 100.5760012 107.1454997  85.5389988  99.4820012 107.3344997  85.4919988
 100.7190012 106.0684997  85.3059988 101.2260012 107.8214997  84.2939988
 100.8950012 107.5794997  83.2619988 102.3270012 107.7394997  84.4159988
 100.9890012 108.9004997  84.4159988  17.4650012 100.6264997  80.4069988
  18.3960012 100.0844997  80.6789988  17.5140012 101.6724997  80.7779988
  17.4740012 100.7284997  79.3009988  16.3270012  99.7254997  80.7519988
  15.3320012 100.1944997  80.5969988  16.4160012  98.7634997  80.2029988
  16.2190012  99.4314997  82.2929988  15.2950012  98.8404997  82.4719988
  17.1070012  98.8284997  82.5759988  16.1730012 100.7264997  83.0879988
  17.0450012 101.4044997  82.9639988  15.3190012 101.2704997  82.6309988
  15.8760012 100.6174997  84.5309988  15.5330012 101.5794997  84.9679988
  15.1410012  99.7944997  84.6569988  17.1240012 100.2164997  85.3769988
  17.4290012  99.2694997  84.8829988  18.0090012 100.8754997  85.2459988
  16.8560012  99.8514997  86.8999988  16.0230012  99.1174997  86.8569988
  17.8340012  99.5204997  87.3099988  16.4230012 101.0694997  87.7109988
  17.2990012 101.7514997  87.7529988  15.6240012 101.5894997  87.1409988
  15.9250012 100.6954997  89.0859988  15.0190012 101.2984997  89.3079988
  15.5700012  99.6474997  89.1799988  16.9350012 101.0934997  90.1629988
  17.1290012 102.1754997  89.9999988  16.4590012 100.9624997  91.1589988
  18.2470012 100.3374997  90.0259988  17.9290012  99.2924997  89.8229988
  18.8510012 100.7434997  89.1869988  19.1950012 100.4794997  91.1189988
  18.6920012 100.0684997  92.0189988  20.1500012  99.9174997  91.0339988
  19.4420012 102.0024997  91.4429988  19.8740012 102.4934997  90.5449988
  18.4510012 102.4954997  91.5399988  20.3910012 102.4014997  92.6959988
  21.3510012 101.8424997  92.6679988  20.6460012 103.4184997  92.3299988
  19.6970012 102.2884997  94.0409988  20.2370012 103.0724997  94.6129988
  18.6290012 102.5694997  93.9249988  19.8280012 100.8944997  94.7019988
  20.2970012  99.8594997  94.2879988  19.2660012 101.0284997  95.9329988
  18.8150012  99.7864997  96.5959988  17.7630012  99.9814997  96.8939988
  18.8000012  98.9244997  95.8939988  19.7070012  99.5634997  97.8479988
  19.2130012  98.7424997  98.4099988  19.7350012 100.6794997  98.8619988
  19.8880012 101.6784997  98.4009988  18.7420012 100.6514997  99.3609988
  20.7720012 100.5304997  99.8409988  20.4290012 100.1484997 101.3639988
  19.6220012 101.4304997 101.9159988  20.3900012 102.5754997 102.2209988
  20.3730012 102.7864997 103.3119988  21.4880012 102.4574997 102.0939988
  19.9300012 103.7844997 101.3229988  20.6940012 104.5464997 101.2869988
  19.8790012 103.5254997 100.2759988  18.4960012 104.3564997 101.4999988
  18.5500012 105.1784997 102.7629988  19.3390012 105.8984997 102.6059988
  17.6470012 105.7574997 102.8909988  18.6800012 104.4834997 103.5799988
  18.2270012 105.2724997 100.2889988  17.3560012 105.8574997 100.5449988
  18.9560012 106.0684997 100.3259988  18.1920012 104.6694997  99.3939988
  17.4730012 103.3154997 101.5499988  17.6180012 102.6454997 100.7159988
  16.4760012 103.7284997 101.6039988  17.6530012 102.6894997 102.4109988
  19.5700012  98.9264997 101.3709988  21.7370012  99.9224997 102.0419988
  21.0740012  99.3234997  97.4629988  21.5870012  98.1704997  97.7599988
  20.9640012  97.1834997  98.1689988  23.0980012  98.1934997  97.4719988
  23.3180012  97.6154997  96.5489988  23.6050012  97.6714997  98.3119988
  23.5730012  99.6034997  97.1939988  24.6720012  99.7024997  97.3209988
  23.1360012 100.3384997  97.9039988  23.4030012 100.0734997  95.7679988
  22.4160012 100.5604997  95.6179988  23.3890012  99.2284997  95.0469988
  24.4480012 101.0904997  95.2819988  23.8680012 101.3974997  94.3859988
  25.3200012 100.5164997  94.9029988  24.7410012 102.3554997  96.1059988
  25.4450012 102.9914997  95.5279988  25.3120012 102.1194997  97.0289988
  23.5610012 103.3344997  96.5339988  24.0450012 104.0684997  97.2119988
  22.8790012 102.7174997  97.1579988  22.8860012 104.0804997  95.3919988
  22.0630012 104.6564997  95.8669988  22.3510012 103.3834997  94.7109988
  23.7060012 105.1124997  94.6919988  24.2080012 105.9054997  95.2659988
  24.0500012 105.1074997  93.3989988  24.7360012 105.8554997  92.9739988
  23.6120012 104.0634997  92.3729988  23.0650012 104.6124997  91.5769988
  23.1720012 103.1874997  92.8949988  24.8320012 103.4614997  91.6109988
  25.0040012 102.4744997  92.0919988  25.7590012 104.0724997  91.5709988
  24.5100012 103.1724997  90.0859988  25.3810012 102.5934997  89.7129988
  24.4390012 104.2224997  89.7289988  23.1690012 102.4534997  89.6409988
  22.4030012 103.0634997  90.1649988  23.1720012 101.4144997  90.0349988
  22.8640012 102.3754997  88.1679988  23.7290012 102.0344997  87.5599988
  22.5700012 103.4064997  87.8749988  21.8180012 101.3464997  87.7409988
  20.8560012 101.5954997  88.2379988  22.0610012 100.3394997  88.1439988
  21.3540012 101.2654997  86.2509988  20.7740012 100.3194997  86.2199988
  22.3090012 101.0794997  85.7139988  20.6790012 102.4574997  85.5969988
  20.3520012 102.2844997  84.5489988  21.4750012 103.2304997  85.6589988
  19.8220012 102.7374997  86.2449988  65.7780012 117.9794997  83.4519988
  65.1650012 117.5484997  82.6329988  66.8540012 117.7034997  83.4849988
  65.7510012 119.0904997  83.4319988  65.0420012 117.5304997  84.7349988
  64.0310012 117.9814997  84.6469988  65.0070012 116.4194997  84.7459988
  65.6340012 118.1164997  86.0819988  66.7290012 118.0344997  86.2489988
  65.4150012 119.2044997  86.1339988  65.0940012 117.4204997  87.3879988
  63.9890012 117.3154997  87.4289988  65.5150012 116.3934997  87.4259988
  65.3080012 118.4154997  88.5349988  65.0860012 117.9374997  89.5129988
  66.3590012 118.7734997  88.5809988  64.2960012 119.5674997  88.5579988
  64.4730012 120.3004997  87.7419988  63.2840012 119.1384997  88.3999988
  64.1620012 120.3324997  89.8439988  65.1190012 120.6094997  90.3349988
  63.6260012 121.2994997  89.7319988  63.3670012 119.6064997  90.9089988
  62.3280012 119.5454997  90.5199988  63.8590012 118.6344997  91.1279988
  63.3510012 120.3864997  92.2709988  62.9300012 121.3924997  92.0559988
  62.6860012 119.8084997  92.9479988  64.7380012 120.6224997  92.9879988
  64.7520012 120.1524997  93.9949988  65.5640012 120.2134997  92.3669988
  64.9470012 122.1534997  93.1789988  65.3120012 122.5564997  92.2099988
  63.9790012 122.6454997  93.4119988  66.0680012 122.4404997  94.2189988
  65.9580012 121.7814997  95.1059988  66.9500012 122.0194997  93.6899988
  66.1500012 123.9174997  94.6839988  67.0780012 124.2144997  95.2169988
  65.9860012 124.6684997  93.8809988  65.0330012 124.3704997  95.6309988
  65.2910012 125.3674997  96.0489988  64.0370012 124.5104997  95.1589988
  64.8240012 123.4214997  96.9119988  65.7190012 122.7714997  96.8039988
  65.0990012 124.0094997  97.8129988  63.5050012 122.7384997  96.9929988
  62.7110012 122.4804997  96.0509988  63.3360012 122.4134997  98.2209988
  62.2040012 121.5914997  98.6159988  61.9570012 121.8544997  99.6659988
  61.3510012 121.8834997  97.9669988  62.6000012 120.0584997  98.5509988
  61.7230012 119.5694997  99.0249988  63.8330012 119.9514997  99.4419988
  63.8170012 120.6184997 100.3309988  63.8510012 118.9094997  99.8279988
  64.9770012 120.1514997  98.6319988  66.4360012 120.0534997  99.2429988
  66.5560012 121.1384997 100.3929988  67.4630012 120.9164997 101.4989988
  68.4220012 120.4654997 101.1639988  67.6950012 121.9194997 101.9189988
  67.0810012 120.0184997 102.6739988  66.8970012 119.0314997 102.2769988
  68.0220012 119.9354997 103.1969988  66.0070012 120.4924997 103.6979988
  66.0670012 119.4974997 104.8089988  67.0140012 119.5344997 105.3289988
  65.2440012 119.6974997 105.4789988  65.8400012 118.4794997 104.5279988
  66.4620012 121.8244997 104.1819988  65.6860012 122.1654997 104.8519988
  67.4340012 121.7304997 104.6439988  66.4410012 122.5334997 103.3679988
  64.7050012 120.5734997 102.9349988  64.8880012 121.4414997 102.3199988
  63.9530012 120.6704997 103.7049988  64.6530012 119.6734997 102.3399988
  66.6520012 118.7204997  99.8279988  67.3500012 120.5684997  98.2879988
  62.7390012 119.5864997  97.2019988  62.9640012 118.2514997  96.9139988
  62.9400012 117.4344997  97.8099988  63.2300012 117.9264997  95.4729988
  63.1480012 118.8954997  94.9369988  62.4050012 117.2354997  95.1949988
  64.7140012 117.3624997  95.3249988  64.9490012 116.6714997  96.1629988
  65.3090012 118.2944997  95.4259988  64.8090012 116.6464997  93.9669988
  64.3970012 117.2914997  93.1619988  64.2760012 115.6754997  94.0579988
  66.1100012 116.3014997  93.2989988  65.8310012 115.7744997  92.3619988
  66.8440012 115.7884997  93.9559988  66.6900012 117.6844997  92.7069988
  66.8800012 118.3194997  93.5979988  65.8630012 118.1344997  92.1179988
  68.0040012 117.6214997  91.7909988  67.6680012 117.0664997  90.8889988
  68.7950012 116.9944997  92.2549988  68.6890012 119.0284997  91.5729988
  69.5970012 119.1494997  92.2009988  68.0500012 119.7994997  92.0539988
  68.9320012 119.3434997  90.1409988  68.9400012 118.3914997  89.5909988
  69.2080012 120.5494997  89.5679988  69.4000012 120.4234997  88.4919988
  69.3060012 121.9854997  90.1079988  70.0910012 122.4984997  89.5129988
  69.8270012 122.0274997  91.0889988  67.9970012 122.7024997  89.9959988
  68.0400012 123.7704997  90.2989988  67.3470012 122.4204997  90.8509988
  67.1640012 122.6154997  88.7309988  66.3290012 123.3174997  88.9419988
  66.8190012 121.5824997  88.5109988  67.8550012 123.0864997  87.5369988
  68.7590012 122.4644997  87.3659988  68.2740012 124.1154997  87.5669988
  67.0560012 122.7624997  86.2569988  66.0130012 123.0734997  86.4819988
  67.1100012 121.6654997  86.0869988  67.4450012 123.5704997  85.0219988
  67.4210012 124.6734997  85.1529988  66.7470012 123.4444997  84.1659988
  68.8840012 123.2384997  84.5589988  69.4980012 122.8444997  85.3959988
  69.2350012 124.1554997  84.0379988  68.9780012 122.0714997  83.4759988
  68.4360012 121.1464997  83.7679988  70.0250012 121.7014997  83.5149988
  68.5650012 122.3504997  82.4839988 120.8520012  55.8254997  84.7829988
 120.5560012  56.1004997  83.7479988 121.7320012  55.1464997  84.7889988
 121.1140012  56.7614997  85.3209988 119.5920012  55.1664997  85.3659988
 118.6170012  55.5584997  85.0039988 119.6060012  54.1704997  84.8749988
 119.6410012  54.8964997  86.8129988 119.7000012  55.8994997  87.2879988
 118.7420012  54.3894997  87.2259988 120.7120012  53.8844997  87.1979988
 120.5930012  53.0184997  86.5129988 121.7250012  54.3404997  87.1629988
 120.4700012  53.4754997  88.6649988 119.5390012  54.0104997  88.9509988
 120.2580012  52.3854997  88.7019988 121.7140012  53.5294997  89.5439988
 121.5240012  52.9194997  90.4529988 122.5140012  53.0114997  88.9729988
 122.1800012  54.9364997  89.9249988 122.5410012  55.6254997  89.1319988
 121.3490012  55.4444997  90.4589988 123.3660012  54.9744997  90.9349988
 123.2170012  54.1244997  91.6339988 124.3440012  54.7994997  90.4389988
 123.5240012  56.3394997  91.5839988 123.8340012  57.0084997  90.7529988
 122.5420012  56.7434997  91.9099988 124.5130012  56.4864997  92.6729988
 125.5060012  56.0614997  92.4149988 124.7340012  57.5454997  92.9259988
 124.2480012  55.5434997  93.8569988 124.1930012  54.5104997  93.4509988
 125.1190012  55.5984997  94.5449988 122.9390012  55.9264997  94.6429988
 122.1340012  55.9124997  93.8779988 122.8210012  55.2704997  95.5319988
 122.7720012  57.3604997  95.1669988 123.6300012  57.3904997  95.8719988
 122.9210012  58.0264997  94.2899988 121.4710012  57.5794997  96.0149988
 120.6060012  57.6334997  95.3199988 121.4270012  56.6414997  96.6079988
 121.4490012  58.9554997  96.8229988 122.0390012  58.7074997  97.7309988
 122.0930012  59.7474997  96.3839988 120.0510012  59.3274997  97.1969988
 119.0280012  59.1724997  96.4939988 120.0440012  59.8234997  98.4609988
 118.7710012  59.9644997  99.0609988 118.8040012  60.6714997  99.9179988
 117.9750012  60.1124997  98.2999988 118.4930012  58.6544997  99.8079988
 117.6140012  58.9014997 100.4399988 119.6900012  58.3044997 100.7299988
 120.2710012  57.4954997 100.2379988 120.2810012  59.2114997 100.9799988
 119.0590012  57.7974997 101.9239988 118.8550012  56.2204997 102.2839988
 120.2100012  55.5604997 101.6979988 121.3730012  55.4344997 102.5779988
 121.4130012  56.2984997 103.2749988 121.2480012  54.4694997 103.1129988
 122.7160012  55.4784997 101.7149988 122.8920012  56.4734997 101.3339988
 123.5030012  55.3064997 102.4339988 122.7580012  54.5674997 100.5389988
 122.0160012  53.2254997 100.8289988 122.2680012  52.8734997 101.8189988
 120.9480012  53.2904997 100.6829988 122.4850012  52.4904997 100.1909988
 122.0270012  55.1104997  99.2839988 120.9890012  55.2704997  99.5359988
 122.4490012  56.0694997  99.0209988 122.1320012  54.4324997  98.4499988
 124.1420012  54.3364997 100.1459988 124.6230012  55.2734997  99.9059988
 124.1800012  53.6734997  99.2949988 124.6570012  53.9564997 101.0149988
 118.7640012  56.0564997 103.7169988 117.7590012  55.6644997 101.4679988
 118.2410012  57.5974997  98.9279988 117.0160012  57.4514997  98.5059988
 116.1470012  58.3164997  98.6389988 116.9770012  56.0694997  97.7669988
 115.9570012  55.8074997  97.4119988 117.3440012  55.4544997  98.6159988
 117.9240012  55.9654997  96.3989988 118.1480012  54.8864997  96.2549988
 118.8200012  56.5354997  96.7269988 117.2280012  56.4534997  95.1029988
 116.9770012  57.5074997  95.3499988 116.4400012  55.7574997  94.7439988
 118.2130012  56.5744997  93.9609988 118.9410012  55.7534997  93.7859988
 118.9340012  57.3894997  94.1869988 117.4840012  56.7704997  92.5379988
 116.8940012  57.7114997  92.5279988 116.7050012  55.9794997  92.5179988
 118.4040012  56.6144997  91.3089988 117.7630012  56.7004997  90.4059988
 118.9090012  55.6254997  91.3419988 119.5270012  57.7074997  91.1849988
 120.1760012  57.4224997  90.3299988 120.1320012  57.6014997  92.1109988
 119.0550012  59.0964997  91.0429988 118.4170012  59.4764997  91.8539988
 119.0460012  59.8604997  89.9159988 118.5760012  60.8534997  89.9689988
 119.5440012  59.4764997  88.5959988 119.8230012  58.4214997  88.3909988
 120.4670012  60.0744997  88.4369988 118.6600012  59.8844997  87.3559988
 118.4490012  60.9724997  87.4359988 117.6900012  59.3424997  87.3579988
 119.5190012  59.7404997  86.1469988 119.4550012  58.7444997  85.6599988
 120.5380012  60.1214997  86.3739988 119.1460012  60.6494997  84.9669988
 118.6490012  61.5604997  85.3609988 118.3230012  60.1614997  84.4009988
 120.1300012  60.8104997  83.8079988 120.2570012  59.8414997  83.2799988
 121.1080012  61.1404997  84.2199988 119.6890012  61.8714997  82.8729988
 119.8870012  62.8764997  83.3029988 118.5800012  61.9404997  82.8369988
 120.2350012  61.6094997  81.3989988 121.2990012  61.3184997  81.5319988
 120.1480012  62.5804997  80.8659988 119.5980012  60.5024997  80.6219988
 118.5870012  60.8574997  80.3299988 119.5860012  59.5554997  81.2039988
 120.2470012  60.2524997  79.7559988  51.8950012  30.6604997  82.2569988
  52.4830012  31.3664997  81.6309988  51.3930012  29.8874997  81.6369988
  52.5780012  30.1284997  82.9529988  50.8870012  31.5014997  83.0849988
  51.3930012  32.3914997  83.5179988  50.1640012  31.9334997  82.3599988
  50.2030012  30.7454997  84.2439988  49.7000012  29.8014997  83.9429988
  51.0310012  30.5274997  84.9519988  49.1280012  31.5304997  84.9189988
  48.7100012  30.8424997  85.6849988  49.5370012  32.4604997  85.3679988
  47.9210012  32.0464997  84.0739988  48.3990012  32.5064997  83.1819988
  47.2890012  31.1964997  83.7389988  47.1680012  33.1404997  84.8099988
  47.6890012  34.1154997  84.7039988  46.1540012  33.2684997  84.3739988
  47.0130012  32.9484997  86.3909988  46.5430012  31.9414997  86.4119988
  47.9300012  32.9394997  87.0179988  46.0270012  33.9774997  87.0729988
  46.5000012  34.9814997  87.0079988  45.0720012  33.9244997  86.5079988
  45.6700012  33.6714997  88.4919988  45.0040012  34.5354997  88.7039988
  45.0280012  32.7644997  88.4779988  46.7710012  33.5504997  89.5269988
  47.4070012  32.6574997  89.3429988  47.4850012  34.3994997  89.5839988
  46.0880012  33.4764997  90.8899988  46.8170012  33.6264997  91.7149988
  45.3400012  34.2894997  91.0129988  45.4050012  32.1034997  91.1559988
  44.8360012  31.7804997  90.2579988  46.2030012  31.3314997  91.1919988
  44.6070012  31.9744997  92.3729988  43.7510012  32.6764997  92.4629988
  44.0580012  31.0144997  92.4759988  45.2810012  31.9894997  93.7209988
  45.9280012  32.8874997  93.8169988  44.5070012  31.8184997  94.4989988
  46.3530012  30.8434997  93.8839988  45.9530012  29.8144997  93.7639988
  47.1100012  30.9974997  93.0859988  47.0160012  31.0114997  95.2599988
  46.6120012  31.7064997  96.1499988  48.1650012  30.2714997  95.2839988
  48.9380012  30.3594997  96.4829988  48.3730012  30.2224997  97.4289988
  49.5810012  29.4544997  96.4449988  50.0520012  31.5064997  96.4689988
  51.0190012  31.1554997  96.0479988  50.2230012  31.7994997  98.0209988
  50.6660012  30.9124997  98.5209988  50.8830012  32.6894997  98.0979988
  48.9930012  32.0944997  98.7069988  48.8130012  31.9664997 100.3379988
  49.5950012  30.6054997 100.5659988  48.9610012  29.3274997 100.3809988
  48.5000012  29.3114997  99.3699988  49.7840012  28.5834997 100.4419988
  47.8620012  29.0484997 101.4529988  47.1050012  29.8154997 101.5149988
  47.4370012  28.0824997 101.2239988  48.3620012  28.8654997 102.9249988
  48.8770012  30.1484997 103.4409988  48.9730012  30.0814997 104.5149988
  49.8660012  30.3764997 103.0719988  48.1380012  30.9284997 103.3279988
  47.1620012  28.5184997 103.7529988  47.5100012  28.4584997 104.7739988
  46.4600012  29.3374997 103.6999988  46.7620012  27.6054997 103.3389988
  49.3630012  27.7464997 102.9409988  48.8090012  26.8724997 102.6319988
  49.7010012  27.7214997 103.9669988  50.1950012  28.0154997 102.3079988
  49.5340012  33.1144997 100.9179988  47.4190012  31.7924997 100.7569988
  49.6690012  32.6394997  95.7079988  49.7080012  32.6184997  94.3949988
  49.7820012  31.5884997  93.6749988  49.7550012  33.9894997  93.7469988
  50.0200012  34.7314997  94.5299988  48.6810012  34.1324997  93.5039988
  50.8850012  34.1354997  92.6109988  51.8380012  33.7014997  92.9819988
  50.9760012  35.2344997  92.4759988  50.3620012  33.5894997  91.2529988
  49.3790012  34.0694997  91.0569988  50.1870012  32.5004997  91.3839988
  51.3610012  33.6734997  90.1159988  52.3410012  33.3124997  90.4929988
  51.3850012  34.7454997  89.8239988  51.1480012  32.7454997  88.9239988
  51.8340012  33.2124997  88.1859988  50.1240012  32.8484997  88.5049988
  51.5220012  31.2664997  89.0609988  50.7820012  30.8614997  89.7829988
  52.5400012  31.1834997  89.4969988  51.6120012  30.3894997  87.8179988
  52.2590012  30.9134997  87.0819988  50.6080012  30.3954997  87.3419988
  52.1520012  28.9824997  88.0049988  52.8310012  28.9624997  88.8709988
  51.7730012  27.8734997  87.3909988  52.2480012  26.9104997  87.6299988
  50.7050012  27.7824997  86.3829988  51.1380012  28.3824997  85.5539988
  49.8110012  28.3234997  86.7599988  50.3360012  26.3254997  85.8329988
  50.5040012  25.5724997  86.6319988  51.0380012  26.0074997  85.0329988
  48.9120012  26.2694997  85.3419988  48.2300012  26.9674997  85.8719988
  48.5580012  25.2204997  85.4329988  48.8340012  26.5334997  83.7839988
  49.1680012  25.5594997  83.3649988  49.5170012  27.2954997  83.3509988
  47.3420012  26.7804997  83.3909988  46.9140012  27.4174997  84.1929988
  46.7540012  25.8444997  83.5059988  47.2240012  27.3834997  81.9699988
  47.3270012  28.4884997  82.0099988  46.1810012  27.2384997  81.6159988
  48.2240012  26.7804997  80.9779988  49.2760012  27.0714997  81.1839988
  47.9950012  27.3004997  80.0239988  48.1440012  25.3004997  80.5819988
  48.2970012  24.6864997  81.4949988  48.8280012  25.0514997  79.7419988
  47.1370012  25.1084997  80.1529988  48.9080012 119.3404997  81.3459988
  48.0050012 119.8454997  81.7509988  48.8020012 118.7564997  80.4059988
  49.7740012 120.0294997  81.2519988  49.4030012 118.3644997  82.4159988
  50.2660012 117.7234997  82.1359988  49.8320012 118.9374997  83.2659988
  48.2690012 117.3634997  82.9429988  47.9080012 116.7484997  82.0909988
  48.6100012 116.6444997  83.7179988  47.0000012 118.0534997  83.5339988
  46.5050012 118.4344997  82.6159988  46.2260012 117.3204997  83.8479988
  47.2830012 119.1294997  84.5919988  48.3120012 119.4874997  84.3759988
  46.5680012 119.9794997  84.5519988  47.1130012 118.5854997  86.0769988
  46.0590012 118.3354997  86.3239988  47.6690012 117.6274997  86.1579988
  47.5990012 119.5924997  87.1109988  48.6900012 119.7704997  86.9959988
  47.1520012 120.5874997  86.8999988  47.3640012 119.1354997  88.6039988
  46.4050012 118.5744997  88.5949988  48.0960012 118.3324997  88.8369988
  47.3600012 120.2764997  89.6529988  46.5090012 120.9244997  89.3529988
  47.3240012 119.8124997  90.6609988  48.6230012 121.2074997  89.5559988
  49.4320012 120.5994997  90.0149988  48.9910012 121.4384997  88.5339988
  48.4050012 122.6594997  90.0379988  49.3820012 123.1854997  90.0719988
  47.8110012 122.8674997  89.1219988  47.6760012 122.8124997  91.3799988
  47.6050012 123.9204997  91.4209988  46.7070012 122.2704997  91.4089988
  48.4090012 122.3234997  92.6579988  49.2950012 121.7804997  92.2649988
  48.6860012 123.2034997  93.2759988  47.4920012 121.4094997  93.5049988
  46.6800012 121.9704997  94.0159988  47.1070012 120.5944997  92.8559988
  48.3100012 120.6784997  94.6179988  49.2920012 120.3104997  94.2539988
  48.5820012 121.3854997  95.4309988  47.3360012 119.5424997  95.0949988
  46.6000012 118.9574997  94.3699988  47.4480012 119.4374997  96.4479988
  46.6320012 118.4324997  96.9499988  45.6490012 118.8484997  97.2559988
  46.5010012 117.5764997  96.2529988  47.3500012 117.7984997  98.1579988
  46.5650012 117.1164997  98.5509988  47.8280012 118.7744997  99.2899988
  47.0870012 119.5714997  99.5149988  47.8350012 118.1844997 100.2319988
  49.0830012 119.2464997  98.9799988  49.6750012 120.6404997  99.4679988
  49.6170012 120.7854997 101.0499988  49.7110012 119.5854997 101.8619988
  48.8890012 119.5704997 102.6089988  49.6010012 118.6914997 101.2119988
  51.0450012 119.3914997 102.5709988  50.9240012 118.6044997 103.3009988
  51.7290012 119.0384997 101.8139988  51.6720012 120.5264997 103.3889988
  50.7820012 121.1534997 104.4369988  50.2880012 120.5314997 105.1699988
  51.2740012 121.9074997 105.0329988  49.9770012 121.5914997 103.8669988
  52.8850012 119.8124997 103.9579988  53.5590012 119.8964997 103.1179988
  53.3170012 120.3424997 104.7929988  52.5830012 118.8374997 104.3099988
  52.2690012 121.5694997 102.4989988  51.6080012 121.9214997 101.7209988
  52.9940012 120.9884997 101.9489988  52.8660012 122.4064997 102.8299988
  51.0900012 120.7874997  99.0369988  48.7000012 121.6384997  98.9289988
  48.4700012 117.0134997  97.6359988  49.2660012 116.4074997  98.4269988
  49.1580012 116.1544997  99.6339988  50.3720012 115.8934997  97.5559988
  49.9980012 115.6534997  96.5379988  50.7620012 114.9704997  98.0339988
  51.2750012 117.0704997  97.4029988  51.4610012 117.5974997  98.3629988
  50.7180012 117.7544997  96.7279988  52.6740012 116.6674997  96.8499988
  53.0720012 116.0254997  97.6649988  53.3090012 117.5784997  96.8859988
  52.7460012 115.9944997  95.5019988  51.8090012 115.4154997  95.3599988
  53.5870012 115.2764997  95.3939988  52.8010012 116.9964997  94.3699988
  53.7590012 117.5584997  94.3239988  52.0570012 117.7914997  94.5889988
  52.3630012 116.3464997  93.0209988  51.2870012 116.0754997  93.0629988
  53.0030012 115.4584997  92.8299988  52.3710012 117.3014997  91.7799988
  52.0750012 116.6534997  90.9269988  53.4180012 117.6454997  91.6399988
  51.3540012 118.4424997  91.7489988  50.2890012 118.1674997  91.7299988
  51.6680012 119.7184997  91.6519988  50.7920012 120.3604997  91.8249988
  53.0960012 120.3454997  91.5519988  53.8800012 119.7984997  92.1179988
  53.0920012 121.2984997  92.1239988  53.6040012 120.5314997  90.1549988
  53.6870012 119.5874997  89.5749988  54.6400012 120.9254997  90.2279988
  52.6780012 121.4264997  89.2979988  52.5340012 122.3864997  89.8379988
  51.7170012 120.9104997  89.0859988  53.3950012 121.8284997  87.9869988
  54.4840012 121.6374997  88.0949988  53.3180012 122.9054997  87.7269988
  52.7580012 121.1674997  86.7849988  51.7820012 121.6824997  86.6529988
  52.6960012 120.0704997  86.9479988  53.5470012 121.4564997  85.4519988
  54.6150012 121.1634997  85.5369988  53.5620012 122.5444997  85.2299988
  52.8920012 120.7474997  84.2519988  53.3700012 121.0484997  83.2949988
  51.7960012 120.9214997  84.3129988  53.2280012 119.2434997  84.3609988
  52.7710012 118.7524997  85.2459988  54.3080012 119.0534997  84.5399988
  52.8810012 118.7044997  83.4539988  54.7060012  27.4384997  80.7029988
  54.8640012  28.3364997  81.3379988  53.6110012  27.4124997  80.5199988
  55.3220012  27.5674997  79.7869988  55.2530012  26.1704997  81.4029988
  56.3580012  26.2704997  81.4569988  54.6670012  26.0744997  82.3419988
  55.0410012  24.9924997  80.4669988  53.9500012  24.7884997  80.4229988
  55.2870012  25.3014997  79.4279988  55.6680012  23.6454997  80.8059988
  55.2490012  22.7664997  80.2719988  56.7380012  23.6984997  80.5159988
  55.7320012  23.3094997  82.3189988  56.5050012  22.5484997  82.5629988
  56.1750012  24.0354997  83.0329988  54.4030012  22.9124997  82.9259988
  53.5820012  23.6494997  83.0609988  53.8720012  22.1314997  82.3419988
  54.5800012  22.3534997  84.4339988  53.5980012  22.1434997  84.9089988
  55.0670012  21.3554997  84.3949988  55.4430012  23.2894997  85.3599988
  56.4720012  23.3564997  84.9469988  55.0630012  24.3334997  85.3209988
  55.4500012  22.8194997  86.8659988  54.4480012  22.4654997  87.1879988
  56.1090012  21.9314997  86.9729988  55.8890012  23.8014997  87.9079988
  56.9430012  24.0464997  87.6539988  55.1780012  24.6434997  87.7709988
  55.7730012  23.1744997  89.2999988  54.7410012  22.8234997  89.5159988
  56.3860012  22.2504997  89.2189988  56.4070012  24.1074997  90.2789988
  57.4930012  23.9084997  90.1529988  56.2560012  25.2024997  90.1629988
  56.0140012  23.8454997  91.7569988  56.1810012  22.7614997  91.9349988
  56.7410012  24.3784997  92.4069988  54.6460012  24.4064997  92.0789988
  54.5490012  25.5134997  92.0669988  53.9230012  24.1334997  91.2819988
  54.0480012  23.7884997  93.3709988  52.9720012  24.0674997  93.3789988
  54.1210012  22.6894997  93.5119988  54.5430012  24.4714997  94.6159988
  54.1620012  25.5584997  95.0149988  55.3720012  23.6224997  95.2579988
  55.9350012  23.8204997  96.6219988  55.2720012  24.4044997  97.2959988
  56.0680012  22.8694997  97.1809988  57.2980012  24.4504997  96.6199988
  57.9190012  23.8054997  95.9619988  57.9210012  24.5254997  98.0249988
  57.5110012  23.6934997  98.6379988  59.0170012  24.4444997  97.8639988
  57.5760012  25.7824997  98.6649988  58.1000012  26.0584997 100.0949988
  56.7590012  26.0614997 100.9579988  55.7000012  25.1394997 100.6639988
  55.4670012  25.1754997  99.5779988  56.0010012  24.1184997 100.9819988
  54.4780012  25.5864997 101.4839988  54.1190012  26.5714997 101.2269988
  53.7170012  24.8534997 101.2619988  54.5490012  25.4724997 103.0119988
  55.3340012  26.5094997 103.7149988  55.0050012  27.4854997 103.3919988
  55.2820012  26.3614997 104.7829988  56.3660012  26.3984997 103.4179988
  53.1920012  25.6774997 103.5059988  53.1540012  25.7554997 104.5829988
  52.8550012  26.6174997 103.0959988  52.6390012  24.7654997 103.3359988
  54.9770012  24.0234997 103.3959988  54.1490012  23.3304997 103.3429988
  55.1960012  23.9964997 104.4529988  55.8690012  23.8124997 102.8239988
  58.9820012  25.0474997 100.5939988  58.5280012  27.4944997 100.0909988
  57.0970012  25.8064997  96.0259988  58.3130012  26.3604997  95.6249988
  59.3250012  25.7404997  95.5519988  58.1080012  27.8504997  95.3639988
  59.1020012  28.3354997  95.4799988  57.3890012  28.3244997  96.0659988
  57.6170012  28.0454997  93.8769988  56.7220012  27.5004997  93.5089988
  58.4590012  27.5874997  93.3139988  57.4300012  29.5844997  93.5309988
  58.3010012  30.0864997  94.0039988  56.5080012  29.9944997  93.9949988
  57.7020012  30.0344997  92.0739988  58.4830012  29.4114997  91.5889988
  57.9200012  31.1094997  92.2509988  56.3810012  29.8814997  91.2119988
  56.4230012  30.4024997  90.2319988  55.4630012  30.3974997  91.5679988
  56.0950012  28.4254997  90.7589988  55.7910012  27.7504997  91.5869988
  56.9950012  27.9664997  90.2949988  54.8790012  28.3414997  89.6959988
  54.0180012  28.7884997  90.2369988  54.5810012  27.2864997  89.5179988
  55.1390012  29.1484997  88.4859988  54.3820012  29.8524997  88.1099988
  56.1190012  28.9204997  87.6459988  56.0920012  29.6514997  86.8239988
  57.2330012  27.8584997  87.6299988  57.2900012  27.1364997  88.4719988
  58.2470012  28.3134997  87.6329988  57.0110012  26.8994997  86.3849988
  55.9740012  26.5374997  86.5499988  57.6890012  26.0194997  86.4169988
  57.0700012  27.5854997  85.0229988  56.1620012  28.2114997  84.8879988
  56.9560012  26.7544997  84.2939988  58.2560012  28.4274997  84.6069988
  58.2150012  29.3094997  85.2809988  58.0000012  28.8514997  83.6119988
  59.5390012  27.5774997  84.6089988  59.7280012  27.1434997  85.6149988
  60.4810012  28.1194997  84.3819988  59.5790012  26.3384997  83.5999988
  58.7690012  25.6154997  83.8329988  60.5720012  25.8404997  83.5689988
  59.3550012  26.8344997  82.1309988  58.3900012  27.3444997  81.9239988
  59.4530012  25.9404997  81.4789988  60.4290012  27.7834997  81.5459988
  60.6510012  28.7464997  82.0549988  60.0150012  28.2114997  80.6079988
  61.3650012  27.2044997  81.3939988  78.1170012  22.3614997  79.5439988
  78.3440012  21.2744997  79.5459988  77.9750012  22.7914997  78.5289988
  77.0600012  22.3584997  79.8869988  79.0840012  23.2064997  80.4009988
  80.0670012  22.9964997  79.9289988  78.9050012  24.3024997  80.4299988
  79.2000012  22.7194997  81.7849988  78.2220012  22.7934997  82.3069988
  79.4420012  21.6354997  81.8289988  80.4530012  23.1444997  82.7279988
  81.2940012  22.6284997  82.2159988  80.6090012  24.2404997  82.6379988
  80.3200012  22.7094997  84.2059988  79.8160012  21.7194997  84.1779988
  81.2700012  22.7004997  84.7809988  79.4510012  23.6494997  85.0869988
  79.9820012  24.6184997  85.1999988  78.4890012  23.9384997  84.6119988
  79.1350012  22.9964997  86.4519988  78.5610012  23.7844997  86.9849988
  78.4580012  22.1164997  86.3999988  80.2970012  22.4664997  87.2499988
  79.9730012  22.0904997  88.2439988  80.8780012  21.6404997  86.7869988
  81.2850012  23.5634997  87.7459988  82.3270012  23.1974997  87.8719988
  81.2630012  24.4464997  87.0719988  80.7270012  24.1254997  89.0909988
  79.6200012  24.2134997  89.0409988  81.0690012  23.4554997  89.9079988
  81.3990012  25.4124997  89.5939988  82.4700012  25.3114997  89.8739988
  81.3460012  26.0454997  88.6819988  80.4600012  26.0054997  90.6599988
  80.5330012  27.1114997  90.5779988  79.4220012  25.7034997  90.4049988
  80.7790012  25.5784997  92.1229988  80.8090012  24.4764997  91.9859988
  81.7800012  25.9614997  92.4159988  79.5950012  26.0974997  92.9979988
  79.7930012  27.1524997  93.2859988  78.6510012  25.9644997  92.4289988
  79.4460012  25.3144997  94.2639988  79.3860012  24.2224997  94.0689988
  80.2780012  25.4794997  94.9829988  78.0730012  25.6154997  94.9169988
  77.4180012  26.5414997  94.5169988  77.8750012  24.7884997  95.8659988
  76.5200012  24.9484997  96.3609988  76.4690012  25.9984997  96.7209988
  75.7970012  24.6924997  95.5569988  76.2190012  24.0644997  97.5609988
  75.2650012  24.4294997  97.9969988  77.3070012  24.1074997  98.6809988
  77.6790012  25.1544997  98.6709988  76.8630012  24.0424997  99.6969988
  78.3880012  23.2084997  98.4399988  78.3400012  21.8954997  99.2799988
  78.5280012  22.5574997 100.7289988  79.6840012  23.1914997 101.3069988
  80.6180012  22.7444997 100.9039988  79.6020012  24.2274997 100.9139988
  79.6740012  23.2874997 102.8839988  80.6770012  23.6534997 103.0429988
  79.0710012  24.0354997 103.3759988  79.4460012  21.9804997 103.6339988
  80.5280012  20.9634997 103.3759988  81.4950012  21.4164997 103.5349988
  80.3810012  20.1104997 104.0229988  80.4230012  20.6524997 102.3469988
  79.3870012  22.2764997 105.1069988  78.4190012  22.7214997 105.2849988
  79.4220012  21.3464997 105.6539988  80.2550012  22.8844997 105.3179988
  78.1270012  21.2724997 103.3209988  78.0470012  20.9294997 102.3009988
  77.2850012  21.9494997 103.3549988  77.9150012  20.4694997 104.0119988
  77.0390012  21.1824997  99.2229988  79.5250012  21.1214997  98.8789988
  76.1200012  22.7084997  97.1949988  75.0700012  22.2464997  96.4509988
  74.1020012  22.9344997  96.1599988  75.1730012  20.7814997  96.0269988
  74.3270012  20.5784997  95.3369988  74.9430012  20.1264997  96.8939988
  76.5160012  20.3684997  95.3949988  76.6980012  19.3514997  95.8019988
  77.2910012  21.1094997  95.6879988  76.6220012  20.2054997  93.8749988
  75.6900012  20.5934997  93.4109988  76.5110012  19.1114997  93.7139988
  77.8710012  20.7694997  93.2019988  77.8710012  20.3214997  92.1859988
  78.8350012  20.4794997  93.6719988  77.9860012  22.3144997  93.0249988
  78.9550012  22.6824997  92.6229988  77.8450012  22.6234997  94.0829988
  76.9090012  22.9464997  92.1129988  76.8230012  24.0464997  92.2399988
  75.9600012  22.4584997  92.4209988  77.1710012  22.7094997  90.5719988
  77.5220012  21.6604997  90.4669988  78.0630012  23.2704997  90.2189988
  75.8960012  23.0584997  89.7609988  75.5840012  24.1114997  89.8219988
  75.0740012  22.1684997  89.1749988  74.1090012  22.5344997  88.7959988
  75.0170012  20.7094997  89.0409988  74.0630012  20.3634997  89.4929988
  75.7870012  20.1244997  89.5879988  74.8640012  20.2354997  87.5139988
  74.1100012  20.7764997  86.9029988  74.4410012  19.2144997  87.6349988
  76.1680012  20.2174997  86.6619988  76.9900012  19.6244997  87.1159988
  76.5860012  21.2384997  86.5259988  75.8010012  19.6634997  85.3039988
  75.3270012  18.6634997  85.4029988  76.7390012  19.6204997  84.7109988
  74.8600012  20.5484997  84.4429988  73.9620012  20.8064997  85.0439988
  74.4590012  20.0024997  83.5619988  75.3700012  21.9204997  84.0359988
  76.3540012  21.8804997  83.5199988  75.5310012  22.5094997  84.9639988
  74.5230012  22.8844997  83.2179988  73.5960012  23.0814997  83.7969988
  74.1970012  22.5194997  82.2199988  75.2960012  24.2484997  83.0169988
  75.8020012  24.6324997  83.9289988  74.5000012  24.9424997  82.6699988
  76.1060012  24.1144997  82.2689988  27.8390012 112.3194997  83.4959988
  26.9330012 111.7014997  83.3169988  28.7570012 111.8964997  83.0349988
  27.6980012 113.3184997  83.0299988  28.0690012 112.6504997  85.0059988
  27.2550012 113.2894997  85.4119988  28.0980012 111.6654997  85.5199988
  29.3720012 113.5074997  85.3489988  29.9690012 113.2194997  86.2409988
  30.0550012 113.3804997  84.4819988  29.1430012 115.0284997  85.3269988
  30.1020012 115.5524997  85.1299988  28.4870012 115.3144997  84.4769988
  28.5200012 115.5844997  86.6609988  27.6210012 115.1114997  87.1119988
  29.3110012 115.5344997  87.4399988  28.1880012 117.0554997  86.4059988
  29.0320012 117.6654997  86.0169988  27.4140012 117.1784997  85.6199988
  27.5450012 117.6934997  87.6519988  27.9810012 117.0434997  88.4399988
  27.8350012 118.7564997  87.7989988  25.9950012 117.6524997  87.5939988
  25.5710012 118.3194997  86.8139988  25.5900012 116.6394997  87.3869988
  25.3680012 118.2244997  88.9039988  24.2950012 118.4214997  88.6949988
  25.4670012 117.3724997  89.6109988  25.9820012 119.5334997  89.4509988
  27.0040012 119.2634997  89.7909988  26.1120012 120.3154997  88.6719988
  25.0580012 120.1554997  90.4979988  25.3050012 121.1954997  90.7999988
  24.0310012 120.1064997  90.0769988  25.1580012 119.3454997  91.8219988
  24.7960012 118.3294997  91.5549988  26.2160012 119.2304997  92.1409988
  24.4170012 119.8604997  93.0319988  24.8470012 120.8644997  93.2369988
  23.3500012 119.9054997  92.7279988  24.5780012 119.0954997  94.4099988
  25.6490012 118.9554997  94.6689988  24.0440012 119.8124997  95.0679988
  23.8710012 117.8074997  94.4979988  22.8290012 118.0314997  94.1859988
  24.3280012 117.0534997  93.8209988  23.9270012 117.1794997  95.9159988
  24.5670012 117.5874997  96.8679988  23.0130012 116.2134997  95.8779988
  22.6530012 115.5294997  97.0899988  22.6970012 116.2264997  97.9539988
  21.6440012 115.0664997  97.0469988  23.6410012 114.3044997  97.2459988
  23.3400012 113.5504997  96.4879988  23.4860012 113.6434997  98.6859988
  22.5960012 112.9854997  98.7769988  24.2870012 112.8924997  98.8539988
  23.5740012 114.7034997  99.6249988  23.8600012 114.3874997 101.1209988
  25.4990012 114.3824997 101.1249988  26.2560012 115.4124997 100.4659988
  26.0190012 115.2524997  99.3919988  25.9080012 116.3704997 100.9079988
  27.8220012 115.2474997 100.6819988  28.2130012 114.4384997 100.0829988
  28.1300012 116.0574997 100.0369988  28.4220012 115.3364997 102.0139988
  28.3260012 113.9824997 102.7729988  28.7520012 114.0704997 103.7619988
  27.2740012 113.8514997 102.9799988  28.9130012 113.2824997 102.1979988
  29.9210012 115.5894997 101.9599988  30.3060012 115.4454997 102.9589988
  30.4470012 115.0424997 101.1909988  30.0370012 116.6464997 101.7729988
  27.8660012 116.4504997 102.9579988  27.9090012 117.3674997 102.3899988
  28.6200012 116.3694997 103.7269988  26.8640012 116.1504997 103.2269988
  23.4490012 115.5214997 102.0059988  23.3010012 113.0714997 101.4509988
  24.9960012 114.7074997  97.0309988  25.8730012 113.7454997  96.7949988
  25.6450012 112.5674997  96.8159988  27.3130012 114.2964997  96.6249988
  28.0330012 113.7504997  97.2709988  27.3890012 115.3374997  97.0049988
  27.5930012 114.2224997  95.0939988  27.4330012 113.1654997  94.7919988
  28.6710012 114.4204997  94.9089988  26.7360012 115.1014997  94.1229988
  26.9170012 116.1704997  94.3669988  25.6940012 114.7844997  94.3409988
  27.0660012 114.7844997  92.6629988  27.1570012 113.7004997  92.4379988
  28.0760012 115.2284997  92.5259988  26.0510012 115.4014997  91.7119988
  26.4630012 115.4284997  90.6809988  25.9080012 116.4754997  91.9569988
  24.7400012 114.6734997  91.6779988  24.2700012 114.7074997  92.6839988
  24.9420012 113.6474997  91.3029988  23.6560012 115.3844997  90.7959988
  23.8890012 115.4544997  89.7119988  23.7400012 116.4254997  91.1729988
  22.2570012 114.8414997  91.0099988  22.1140012 114.2484997  91.9259988
  21.1590012 114.9824997  90.2349988  20.1910012 114.5584997  90.5409988
  21.1310012 115.7274997  88.9439988  21.8280012 116.5914997  88.9909988
  20.1300012 116.2084997  88.9479988  21.3570012 114.9524997  87.5729988
  20.5450012 114.1984997  87.6629988  22.3280012 114.4154997  87.6369988
  21.1720012 115.7774997  86.2619988  20.2260012 116.3524997  86.3499988
  21.1430012 115.0554997  85.4179988  22.2620012 116.8504997  86.1339988
  23.1290012 116.3464997  86.6129988  22.0380012 117.7424997  86.7579988
  22.6360012 117.1584997  84.6979988  22.6310012 118.2644997  84.5909988
  21.8310012 116.7594997  84.0439988  24.0290012 116.6284997  84.1369988
  24.8280012 117.1924997  84.6649988  24.0430012 116.8974997  83.0589988
  24.2740012 115.1384997  84.2069988  23.5570012 114.7384997  84.9549988
  25.3280012 115.0094997  84.5329988  24.0410012 114.2184997  82.9779988
  22.9450012 114.0364997  82.9779988  24.5060012 113.2134997  83.0709988
  24.3110012 114.8224997  82.0859988 118.5950012  89.9234997  80.4279988
 119.5860012  89.4484997  80.2669988 118.6360012  90.2774997  81.4799988
 118.6140012  90.8084997  79.7559988 117.4530012  88.8024997  80.2979988
 116.5330012  89.3574997  80.5799988 117.4720012  88.3884997  79.2679988
 117.5930012  87.6374997  81.3839988 116.8160012  86.8594997  81.2259988
 118.5650012  87.1404997  81.1789988 117.5340012  87.9434997  82.8369988
 117.8300012  87.0364997  83.4059988 118.4510012  88.5554997  82.9719988
 116.2930012  88.5804997  83.3859988 116.4130012  89.6684997  83.5759988
 115.5600012  88.5134997  82.5539988 115.9090012  87.8014997  84.6469988
 114.8870012  88.1594997  84.8909988 115.8370012  86.7244997  84.3839988
 116.8680012  88.1134997  85.8229988 117.9000012  87.8354997  85.5179988
 116.8950012  89.2004997  86.0489988 116.5700012  87.1934997  86.9739988
 116.9000012  86.1694997  86.6969988 117.1110012  87.4364997  87.9129988
 115.1520012  87.0344997  87.5579988 114.4840012  86.6004997  86.7829988
 115.1970012  86.2314997  88.3249988 114.4290012  88.3324997  87.9839988
 114.2050012  88.9714997  87.1039988 113.4800012  88.0444997  88.4839988
 115.0970012  89.1194997  89.0279988 116.0230012  89.5834997  88.6259988
 114.4030012  89.9284997  89.3419988 115.4740012  88.3574997  90.3609988
 116.1640012  87.5014997  90.2049988 116.1350012  89.0514997  90.9219988
 114.4050012  88.1444997  91.3199988 113.9560012  89.0864997  91.6989988
 113.6100012  87.5354997  90.8399988 114.8680012  87.4244997  92.6429988
 113.9910012  87.1124997  93.2479988 115.5690012  86.5934997  92.4159988
 115.6650012  88.3814997  93.6509988 116.5680012  88.8294997  93.1839988
 114.9450012  89.2164997  93.7889988 115.8570012  87.5534997  94.9509988
 115.7800012  86.3594997  95.0319988 116.0050012  88.3904997  95.9289988
 116.2740012  87.7584997  97.2559988 115.6470012  88.2494997  98.0309988
 115.9550012  86.6944997  97.2829988 117.7880012  87.9814997  97.6879988
 118.3130012  87.5394997  96.8139988 118.2020012  87.1944997  98.9849988
 118.0340012  86.1574997  98.6229988 119.2980012  87.2984997  99.1349988
 117.3660012  87.4684997 100.0989988 118.0880012  88.0834997 101.4249988
 118.3300012  89.5044997 100.8959988 119.1270012  90.3534997 101.7589988
 118.9270012  90.2364997 102.8459988 120.2010012  90.0774997 101.6919988
 119.0400012  91.8694997 101.4659988 119.8280012  92.3914997 101.9879988
 119.3280012  91.9464997 100.4279988 117.7310012  92.6704997 101.5859988
 116.6090012  91.6674997 101.3249988 116.6040012  91.0084997 100.4699988
 116.6960012  90.9864997 102.1589988 115.6610012  92.1784997 101.2449988
 117.4970012  93.2924997 102.9069988 116.6550012  93.9494997 102.7479988
 117.1100012  92.7374997 103.7479988 118.3270012  93.9374997 103.1519988
 117.7050012  93.7924997 100.5589988 118.1600012  93.3784997  99.6699988
 118.2430012  94.6414997 100.9549988 116.6920012  94.0334997 100.2739988
 117.0730012  88.1774997 102.4679988 119.3660012  87.5054997 101.6909988
 118.0080012  89.3944997  97.7609988 119.1750012  89.8004997  97.3549988
 120.0990012  89.1764997  96.8659988 119.2060012  91.3504997  97.4199988
 120.1190012  91.5504997  98.0199988 118.4180012  91.8694997  98.0059988
 119.2380012  92.0814997  96.1429988 119.8440012  91.5114997  95.4069988
 119.7830012  93.0444997  96.2449988 117.8350012  92.4124997  95.6399988
 117.7660012  93.4834997  95.9269988 116.9190012  91.8444997  95.9129988
 117.7330012  92.5054997  94.1289988 118.4170012  93.3034997  93.7689988
 116.6850012  92.7234997  93.8289988 118.0740012  91.1954997  93.3809988
 117.6920012  90.2824997  93.8859988 119.1570012  90.9654997  93.2929988
 117.7670012  91.1614997  91.8659988 116.6860012  91.4154997  91.8179988
 117.7900012  90.1274997  91.4609988 118.7160012  92.0464997  91.0039988
 118.7520012  93.1084997  91.3279988 118.2330012  92.1674997  90.0109988
 120.0840012  91.5094997  90.8689988 120.8990012  91.9784997  91.4379988
 120.4400012  90.5574997  89.9979988 121.5180012  90.3744997  89.8829988
 119.5000012  89.8214997  89.0059988 118.4740012  90.1974997  89.2079988
 119.4310012  88.7214997  89.1439988 119.6620012  90.1414997  87.4929988
 118.9970012  89.5114997  86.8649988 120.6420012  89.6804997  87.2469988
 119.4570012  91.6734997  87.0419988 120.3860012  92.1324997  87.4439988
 118.6600012  92.1174997  87.6759988 119.2880012  91.8604997  85.5779988
 118.2650012  91.4564997  85.4159988 119.9350012  91.3144997  84.8579988
 119.2440012  93.3364997  85.0839988 120.2450012  93.8174997  85.0549988
 118.5790012  93.8704997  85.7959988 118.5370012  93.5404997  83.7729988
 118.6800012  94.5934997  83.4499988 117.4370012  93.4404997  83.8919988
 118.9960012  92.6894997  82.6239988 118.2500012  92.8644997  81.8199988
 118.8750012  91.6644997  83.0329988 120.4680012  92.9414997  82.0769988
 120.6210012  94.0204997  81.8599988 120.6350012  92.3394997  81.1579988
 121.2020012  92.5524997  82.8139988 114.3730012  39.7464997  81.4429988
 113.2660012  39.8274997  81.4969988 114.6560012  38.7384997  81.8139988
 114.7460012  39.8274997  80.3999988 114.9120012  40.9234997  82.3039988
 116.0070012  40.9654997  82.1199988 114.5060012  41.9164997  82.0149988
 114.6210012  40.7054997  83.8389988 113.5440012  40.8054997  84.0949988
 114.9430012  39.7024997  84.1919988 115.2700012  41.7354997  84.8479988
 116.3550012  41.5064997  84.7929988 115.0620012  42.7534997  84.4529988
 114.8370012  41.4844997  86.2699988 113.9360012  42.1144997  86.4349988
 114.9120012  40.3924997  86.4559988 115.8300012  42.1634997  87.2919988
 115.5610012  42.0754997  88.3669988 116.8930012  41.9924997  87.0199988
 115.6160012  43.7014997  87.0949988 116.0590012  44.0294997  86.1299988
 114.5380012  43.9674997  87.1459988 116.4240012  44.5604997  88.0999988
 117.4880012  44.3934997  87.8299988 116.2870012  45.6454997  87.9049988
 116.1410012  44.3064997  89.5589988 115.0310012  44.3524997  89.5799988
 116.4390012  43.2464997  89.7039988 116.5250012  45.3104997  90.5719988
 117.6320012  45.2744997  90.6629988 116.1890012  46.3124997  90.2319988
 115.8730012  45.0714997  91.9989988 114.7960012  45.1574997  91.7389988
 116.1720012  44.0474997  92.3089988 116.1880012  46.0014997  93.2179988
 117.2330012  45.8504997  93.5629988 116.1300012  47.0534997  92.8659988
 115.2130012  45.8234997  94.4349988 115.6070012  46.4164997  95.2869988
 114.2490012  46.3054997  94.1649988 114.9230012  44.3864997  94.8839988
 114.2020012  44.5094997  95.7199988 114.5300012  43.9264997  93.9519988
 116.0370012  43.4584997  95.3049988 116.8100012  43.4224997  94.5079988
 116.4410012  43.8334997  96.2699988 115.5700012  42.0364997  95.5769988
 114.5570012  41.4614997  95.1139988 116.4840012  41.4274997  96.4229988
 116.0540012  40.2064997  97.0379988 114.9680012  40.1874997  97.2689988
 116.2980012  39.3534997  96.3679988 116.9200012  40.0234997  98.4019988
 116.5600012  39.0344997  98.7569988 116.5240012  40.9524997  99.5459988
 115.4300012  41.1394997  99.4869988 116.7140012  40.5504997 100.5639988
 117.2180012  42.2314997  99.4349988 116.4650012  43.6324997  99.2309988
 116.1730012  44.0874997 100.7579988 117.2340012  44.2314997 101.6829988
 118.2040012  44.2804997 101.1439988 117.0280012  45.1894997 102.2079988
 117.3830012  42.9924997 102.6359988 117.6840012  42.1124997 102.0859988
 118.1990012  43.3234997 103.2599988 116.2720012  42.5824997 103.5899988
 115.1420012  41.9954997 102.8399988 114.4050012  41.8114997 103.6069988
 114.7480012  42.7084997 102.1299988 115.4220012  41.1224997 102.2699988
 116.8440012  41.5864997 104.6569988 117.2170012  40.8194997 103.9939988
 117.6550012  42.0634997 105.1879988 116.0360012  41.1684997 105.2379988
 115.7890012  43.8024997 104.2289988 114.9080012  43.5754997 104.8109988
 115.4860012  44.5904997 103.5549988 116.5590012  44.1204997 104.9159988
 117.3270012  44.6594997  98.5339988 115.1100012  43.4224997  98.5899988
 118.3350012  40.0404997  97.9379988 119.2720012  40.3824997  98.7149988
 119.3590012  40.3074997  99.9139988 120.4700012  40.9284997  97.9379988
 121.1540012  40.0794997  97.7229988 120.9030012  41.7324997  98.5709988
 120.0220012  41.5534997  96.6409988 119.0600012  42.1024997  96.7359988
 119.9390012  40.7514997  95.8769988 121.0740012  42.5054997  96.0609988
 122.0380012  42.0024997  95.8329988 121.3800012  43.2014997  96.8709988
 120.6910012  43.2524997  94.7529988 121.6510012  43.4854997  94.2449988
 120.0320012  44.1104997  95.0049988 119.9970012  42.3294997  93.8389988
 118.9920012  42.0084997  94.1859988 120.6820012  41.4784997  93.6349988
 119.6430012  43.0754997  92.3959988 120.6670012  43.3964997  92.1089988
 118.9690012  43.9124997  92.6799988 119.1000012  42.1434997  91.2949988
 118.8400012  42.5754997  90.3049988 118.1210012  41.6784997  91.5409988
 119.9190012  40.9344997  90.8689988 119.5460012  39.9934997  91.3009988
 121.0270012  40.9324997  90.1819988 121.5100012  39.9604997  90.0009988
 121.8270012  42.0284997  89.5709988 122.8620012  41.9124997  89.9599988
 121.5230012  43.0294997  89.9449988 121.7830012  42.1194997  87.9919988
 122.3230012  41.2184997  87.6319988 122.4300012  42.9844997  87.7309988
 120.4330012  42.1834997  87.3239988 119.9640012  43.1614997  87.5639988
 119.8270012  41.3164997  87.6629988 120.5040012  42.1244997  85.7509988
 120.9640012  41.1324997  85.5519988 121.3010012  42.7974997  85.3669988
 119.2570012  42.2424997  84.9059988 118.6720012  43.1464997  85.1809988
 118.5690012  41.3924997  85.1009988 119.6140012  42.4284997  83.3689988
 120.3850012  43.1834997  83.1079988 118.6090012  42.6684997  82.9619988
 120.3480012  41.1894997  82.7219988 120.0390012  40.2274997  83.1839988
 121.4380012  41.2764997  82.9179988 119.9970012  40.8264997  81.2279988
 120.8920012  40.3514997  80.7729988 119.9020012  41.8154997  80.7309988
 119.0830012  40.2174997  81.0619988  34.0640012  50.2284997  81.2199988
  34.5580012  51.0964997  81.7059988  33.2440012  50.4894997  80.5179988
  34.8610012  49.7774997  80.5909988  33.5950012  49.3434997  82.3299988
  32.7240012  49.7724997  82.8699988  33.2320012  48.3754997  81.9239988
  34.6750012  48.8564997  83.3429988  34.2590012  47.8444997  83.5319988
  35.6900012  48.7904997  82.8959988  34.8600012  49.7824997  84.6279988
  35.4570012  50.6164997  84.2019988  33.8450012  50.0044997  85.0219988
  35.6670012  49.0564997  85.7339988  36.5230012  48.5414997  85.2479988
  35.9510012  49.7584997  86.5469988  35.0040012  47.9964997  86.6299988
  34.7070012  47.0924997  86.0569988  35.7410012  47.8304997  87.4449988
  33.7760012  48.5584997  87.2929988  33.9650012  49.5334997  87.7919988
  33.0600012  48.8154997  86.4829988  33.2590012  47.6594997  88.4439988
  32.6810012  46.8824997  87.8969988  34.1510012  47.2614997  88.9729988
  32.4660012  48.4594997  89.4799988  32.9990012  49.4334997  89.5209988
  31.5270012  48.8234997  89.0099988  32.1620012  47.8574997  90.8429988
  31.7490012  48.7494997  91.3609988  31.3280012  47.1234997  90.8279988
  33.3790012  47.3304997  91.6329988  33.5990012  46.2944997  91.2999988
  34.2450012  47.9924997  91.4189988  33.0550012  47.3404997  93.1379988
  32.9440012  48.3874997  93.4939988  32.0940012  46.8004997  93.2739988
  34.1560012  46.6364997  94.0019988  33.7940012  45.5864997  93.9729988
  35.1510012  46.6964997  93.5119988  34.2900012  47.0004997  95.4839988
  33.2770012  47.0504997  95.9379988  34.8560012  46.1114997  95.8359988
  35.1500012  48.2214997  95.7649988  35.5240012  48.1874997  96.8099988
  35.9440012  48.2414997  94.9879988  34.5290012  49.6034997  95.7749988
  35.2440012  50.5984997  95.6389988  33.1640012  49.5534997  95.8629988
  32.6270012  50.8994997  95.9809988  33.3370012  51.7284997  96.1849988
  31.9440012  51.2864997  95.1939988  31.6440012  50.8784997  97.2519988
  31.2520012  51.9144997  97.3479988  32.2820012  50.3624997  98.4889988
  33.2940012  50.8224997  98.5099988  31.7170012  50.6544997  99.3999988
  32.3490012  48.9774997  98.4719988  33.3670012  48.2414997  99.4949988
  32.6190012  48.5144997 100.8219988  31.3170012  47.9864997 101.0879988
  30.7980012  48.8924997 101.4649988  30.8580012  47.6024997 100.1519988
  31.2980012  47.0024997 102.2609988  30.2650012  46.8144997 102.5139988
  31.7130012  46.0204997 102.0869988  32.0280012  47.4794997 103.5599988
  31.8550012  49.0314997 103.6759988  32.4300012  49.3234997 104.5419988
  32.2430012  49.4654997 102.7659988  30.8000012  49.2374997 103.7829988
  31.5590012  46.7764997 104.7259988  31.8620012  45.7464997 104.6079988
  31.9520012  47.1604997 105.6559988  30.4820012  46.7054997 104.6989988
  33.4980012  47.2504997 103.3479988  33.8790012  47.8194997 102.5129988
  33.6440012  46.2104997 103.0949988  33.9640012  47.5714997 104.2679988
  33.4670012  46.8234997  99.2189988  34.6450012  49.0004997  99.5129988
  30.5890012  49.9484997  96.8559988  29.5080012  49.8644997  97.6849988
  29.2910012  50.6404997  98.6039988  28.4970012  48.8554997  97.2199988
  27.4520012  49.2284997  97.2829988  28.6080012  47.9584997  97.8669988
  28.7300012  48.3564997  95.7729988  27.9050012  47.6254997  95.6329988
  29.6880012  47.8084997  95.6399988  28.6760012  49.4894997  94.6629988
  29.3920012  50.2934997  94.9369988  27.6920012  50.0054997  94.6739988
  28.9670012  49.1544997  93.1869988  29.9450012  48.6464997  93.0439988
  28.9500012  49.9914997  92.4569988  27.7860012  48.3844997  92.5609988
  26.8630012  48.9974997  92.6359988  27.7740012  47.5104997  93.2469988
  28.0560012  48.0244997  91.1559988  29.0690012  47.5874997  91.2849988
  28.1900012  48.8024997  90.3739988  27.1350012  46.8964997  90.6679988
  26.0980012  47.2524997  90.4879988  27.0220012  46.0734997  91.4059988
  27.9040012  46.3964997  89.4209988  28.9240012  46.0154997  89.5699988
  27.4200012  46.3654997  88.1909988  28.1020012  46.0694997  87.3809988
  25.9900012  46.8114997  87.7729988  25.2650012  46.9024997  88.6099988
  25.4990012  46.1334997  87.0419988  26.0950012  48.2494997  87.2269988
  26.4880012  48.9974997  87.9479988  25.0720012  48.6684997  87.1179988
  26.9480012  48.3284997  85.9529988  26.3440012  48.9324997  85.2419988
  27.1720012  47.2894997  85.6309988  28.2240012  49.1534997  86.2139988
  28.7580012  48.5204997  86.9539988  28.0550012  50.1814997  86.5989988
  29.2070012  49.3114997  84.9879988  29.8470012  48.4224997  84.8099988
  29.9220012  50.1094997  85.2819988  28.3820012  49.5844997  83.7069988
  27.6550012  50.4164997  83.8209988  27.8480012  48.6364997  83.4839988
  29.2110012  50.0224997  82.4559988  29.6310012  49.0814997  82.0409988
  30.0320012  50.6724997  82.8269988  28.3970012  50.6634997  81.2649988
  29.0690012  50.6274997  80.3809988  28.2870012  51.7384997  81.5229988
  27.4300012  50.1244997  81.1649988  34.3510012 118.8594997  85.1809988
  34.8830012 118.7414997  84.2119988  33.7950012 119.8104997  85.0359988
  33.6250012 118.0194997  85.1539988  35.2350012 118.9534997  86.4299988
  35.8410012 118.0224997  86.3919988  35.9400012 119.8084997  86.5119988
  34.6180012 118.9034997  87.8269988  34.1530012 117.8954997  87.7959988
  35.3410012 118.9144997  88.6709988  33.4830012 119.8884997  88.1029988
  32.6700012 119.9094997  87.3459988  33.0840012 119.6614997  89.1149988
  34.0070012 121.2914997  88.3629988  35.0090012 121.3704997  88.8369988
  34.0290012 121.6424997  87.3089988  32.9150012 122.1474997  89.0389988
  33.2100012 123.1954997  88.8169988  31.9880012 122.1164997  88.4269988
  32.6700012 122.0354997  90.5609988  33.4790012 121.4374997  91.0329988
  32.7180012 123.0014997  91.1079988  31.3120012 121.3694997  90.8999988
  30.5680012 122.1854997  90.7749988  31.0920012 120.5004997  90.2429988
  31.2790012 120.9914997  92.3719988  32.0490012 120.1954997  92.4599988
  31.6940012 121.8754997  92.9019988  29.9760012 120.4014997  92.9089988
  29.0220012 120.9084997  92.6509988  29.7540012 119.4154997  92.4469988
  29.8850012 120.4044997  94.4389988  29.9600012 121.4634997  94.7689988
  28.8790012 120.0554997  94.7569988  30.9140012 119.5614997  95.2349988
  31.9230012 119.6544997  94.7789988  31.1080012 119.9924997  96.2409988
  30.4180012 118.0854997  95.3759988  29.4160012 118.1394997  95.8529988
  30.2820012 117.6204997  94.3759988  31.2030012 117.1384997  96.2979988
  30.7750012 116.1444997  96.0439988  32.2690012 117.0034997  96.0189988
  31.1400012 117.1974997  97.8169988  31.5930012 118.1544997  98.1529988
  30.0810012 117.2184997  98.1519988  31.7540012 115.9954997  98.4679988
  32.3040012 115.1004997  97.9139988  31.7530012 116.1774997  99.8169988
  32.5780012 115.3344997 100.6289988  32.1380012 115.3314997 101.6489988
  32.5920012 114.2664997 100.3229988  34.0580012 115.7804997 100.6499988
  34.5140012 115.0404997 101.3419988  34.1820012 117.1784997 101.2599988
  33.6590012 117.9994997 100.7249988  33.8420012 117.0294997 102.3079988
  35.5610012 117.5204997 101.3669988  36.1450012 118.4324997 102.5029988
  35.3710012 119.7844997 102.3289988  35.8590012 120.8744997 101.5969988
  36.7350012 121.3484997 102.0889988  36.2800012 120.4734997 100.6499988
  34.7320012 121.9224997 101.2779988  34.1900012 122.4194997 102.0679988
  35.2510012 122.7114997 100.7529988  33.4860012 121.5134997 100.4309988
  32.5420012 120.6964997 101.3179988  31.6550012 120.7604997 100.7049988
  32.8770012 119.6824997 101.4779988  32.4730012 121.2024997 102.2689988
  32.8860012 122.8014997  99.9719988  33.5770012 123.3434997  99.3439988
  32.0100012 122.5824997  99.3799988  32.5170012 123.5334997 100.6749988
  33.8420012 120.5744997  99.2599988  34.1210012 119.6094997  99.6569988
  34.5910012 121.1344997  98.7199988  33.0680012 120.3694997  98.5349988
  35.6440012 117.8264997 103.7639988  37.5930012 118.6414997 102.3629988
  34.6150012 115.7904997  99.2719988  35.8990012 115.5604997  99.0089988
  36.7320012 114.9974997  99.6899988  36.2300012 116.1474997  97.5859988
  35.5650012 115.5914997  96.8909988  37.3100012 115.9694997  97.3939988
  35.9670012 117.7044997  97.4909988  36.5270012 118.2924997  98.2489988
  34.8840012 117.8724997  97.6709988  36.1960012 118.4424997  96.1269988
  37.2220012 118.2164997  95.7649988  36.2330012 119.5014997  96.4589988
  35.0970012 118.1964997  95.1179988  34.6500012 119.2134997  95.0779988
  34.2670012 117.5944997  95.5439988  35.4830012 117.6854997  93.7309988
  36.2390012 118.3524997  93.2639988  34.5730012 117.5464997  93.1079988
  36.0780012 116.2974997  93.8699988  35.3410012 115.8334997  94.5599988
  37.1280012 116.2884997  94.2339988  35.9310012 115.4124997  92.5699988
  36.3690012 114.4144997  92.7879988  36.4100012 115.8394997  91.6629988
  34.4280012 115.2344997  92.3189988  33.7940012 114.8114997  93.1119988
  33.7980012 115.3624997  91.1079988  32.7310012 115.1734997  90.9189988
  34.5600012 115.7724997  89.7939988  35.1670012 116.6714997  90.0349988
  33.8310012 116.0924997  89.0189988  35.5650012 114.6934997  89.2479988
  35.0680012 113.7024997  89.1679988  36.4150012 114.5984997  89.9569988
  36.1790012 114.9854997  87.8729988  37.0590012 114.3124997  87.7809988
  36.5100012 116.0464997  87.8749988  35.2200012 114.8744997  86.6009988
  34.4510012 115.6684997  86.7189988  34.7260012 113.8894997  86.7379988
  35.9940012 115.0354997  85.3539988  36.9660012 114.5044997  85.4379988
  36.2730012 116.1104997  85.3679988  35.2350012 114.9314997  84.0609988
  34.2200012 115.3824997  84.0729988  35.0180012 113.8504997  83.9249988
  36.1370012 115.4994997  82.9579988  37.1440012 115.0344997  82.8919988
  36.3640012 116.5664997  83.1659988  35.4470012 115.5664997  81.6399988
  34.3940012 115.9204997  81.6499988  35.4440012 114.6694997  80.9859988
  36.0070012 116.3724997  81.1179988 110.7300012 104.4504997  84.0739988
 110.8920012 104.1944997  83.0049988 111.6490012 104.8564997  84.5469988
 110.0020012 105.2894997  84.0999988 110.1970012 103.2474997  84.9399988
 109.3810012 102.7424997  84.3809988 111.0630012 102.5514997  84.9529988
 109.7240012 103.5654997  86.3009988 110.6470012 103.8124997  86.8689988
 109.2740012 104.5804997  86.3329988 108.8750012 102.5644997  87.0849988
 107.8270012 102.5804997  86.7169988 109.3940012 101.6084997  86.8589988
 108.9380012 102.8244997  88.5669988 109.9740012 102.9974997  88.9279988
 108.2060012 103.6104997  88.8519988 108.2840012 101.6054997  89.3469988
 107.3320012 101.3574997  88.8309988 108.9420012 100.7364997  89.1319988
 108.1090012 101.7404997  90.8169988 107.4340012 102.5594997  91.1479988
 107.5830012 100.8234997  91.1569988 109.4180012 102.0134997  91.5369988
 110.1780012 101.2084997  91.4409988 109.9010012 102.8284997  90.9559988
 109.1960012 102.5694997  92.9449988 108.7830012 103.5964997  92.8609988
 108.3930012 102.0004997  93.4599988 110.4640012 102.6134997  93.8419988
 110.8140012 101.6084997  94.1609988 111.2440012 103.2384997  93.3569988
 110.2390012 103.4394997  95.1519988 110.0020012 104.4924997  94.8919988
 109.3420012 103.1454997  95.7379988 111.4880012 103.3054997  96.0379988
 111.1960012 103.3384997  97.1089988 112.0020012 102.3344997  95.8699988
 112.5020012 104.5064997  95.8679988 113.4010012 104.2314997  96.4609988
 112.8440012 104.5004997  94.8109988 111.7810012 105.8294997  96.2629988
 112.3670012 106.7724997  96.1999988 110.8770012 105.9414997  95.6269988
 111.3740012 105.8454997  97.7859988 111.4510012 104.8914997  98.3499988
 112.1730012 106.5184997  98.1629988 110.0980012 106.6264997  98.0399988
 109.3970012 107.0894997  97.1369988 109.9080012 106.6144997  99.3089988
 108.8260012 107.4354997  99.8069988 109.3610012 108.0264997 100.5809988
 108.5130012 108.2184997  99.0829988 107.7850012 106.6754997 100.6259988
 107.0980012 107.4694997 100.9889988 108.3860012 105.9014997 101.8639988
 109.1900012 105.1874997 101.5859988 108.9050012 106.7894997 102.2849988
 107.4050012 105.4984997 102.8709988 106.8520012 104.1334997 102.8549988
 107.6230012 103.4074997 101.7089988 107.2580012 102.1294997 101.2229988
 106.5400012 101.5384997 101.8299988 106.9010012 102.1924997 100.1729988
 108.4830012 101.1134997 100.8899988 108.8420012 100.7634997 101.8469988
 108.0200012 100.2404997 100.4539988 109.7180012 101.6344997 100.2239988
 109.3130012 102.3674997  98.8999988 108.5560012 103.1174997  99.0759988
 110.2020012 102.8654997  98.5429988 108.9900012 101.5434997  98.2809988
 110.5100012 102.5834997 101.0529988 110.1600012 103.5704997 101.3169988
 110.6240012 102.1714997 102.0439988 111.4990012 102.8114997 100.6819988
 110.6110012 100.4744997  99.8909988 110.1490012  99.7924997  99.1939988
 110.6860012  99.9824997 100.8499988 111.5090012 100.8494997  99.4209988
 107.1340012 103.4364997 104.1389988 105.4530012 104.1144997 102.4249988
 107.0460012 105.7004997  99.8639988 106.4200012 106.2004997  98.7529988
 106.4540012 107.3394997  98.3489988 105.8220012 105.0194997  98.0479988
 105.1540012 104.5754997  98.8169988 106.6570012 104.3344997  97.7899988
 104.9270012 105.3534997  96.8229988 104.3370012 106.2924997  96.8959988
 104.2660012 104.4734997  96.6709988 105.6930012 105.3834997  95.4689988
 105.3680012 104.5594997  94.7989988 106.7280012 105.0744997  95.7269988
 105.7740012 106.7704997  94.8879988 106.0790012 107.5774997  95.5869988
 104.7170012 106.9854997  94.6229988 106.5840012 106.8304997  93.5609988
 106.4190012 107.8394997  93.1259988 106.2710012 106.1504997  92.7409988
 108.1170012 106.7354997  93.7009988 108.3420012 105.6864997  93.9889988
 108.6010012 107.3934997  94.4539988 108.8660012 107.0584997  92.4239988
 109.9410012 107.2334997  92.6409988 108.4550012 108.0124997  92.0319988
 108.8890012 106.1264997  91.2649988 109.4800012 105.2014997  91.3319988
 108.2230012 106.2594997  90.1239988 108.4220012 105.4724997  89.3809988
 107.3640012 107.4174997  89.7669988 107.8920012 108.0474997  89.0199988
 107.1120012 108.0214997  90.6649988 106.0540012 106.9504997  89.0469988
 105.2600012 107.7254997  89.1019988 105.6320012 106.1474997  89.6889988
 106.1700012 106.4404997  87.5639988 105.1770012 106.4824997  87.0659988
 106.4210012 105.3664997  87.4359988 107.2470012 107.0634997  86.7049988
 108.2160012 106.7644997  87.1589988 107.1330012 108.1674997  86.6709988
 107.1340012 106.6574997  85.2199988 106.0740012 106.6874997  84.8899988
 107.3830012 105.5774997  85.1359988 108.0100012 107.5094997  84.2839988
 109.0430012 107.4314997  84.6859988 107.5740012 108.5274997  84.3739988
 107.9750012 107.0784997  82.8249988 108.3680012 106.0424997  82.7429988
 108.6540012 107.7794997  82.2949988 106.5820012 107.2844997  82.2029988
 106.6330012 107.3774997  81.0969988 106.0990012 108.1844997  82.6409988
 105.9430012 106.4464997  82.5539988  68.3850012  19.8784997  81.3379988
  68.2590012  20.9474997  81.6119988  67.4280012  19.7864997  80.7819988
  69.2150012  19.9224997  80.5999988  68.6920012  18.8794997  82.4279988
  69.1960012  18.0544997  81.8799988  69.4210012  19.3644997  83.1119988
  67.5350012  18.3134997  83.2009988  66.7010012  18.0284997  82.5249988
  67.8920012  17.3754997  83.6789988  66.9810012  19.2504997  84.2759988
  67.8250012  19.7484997  84.7999988  66.3130012  20.0134997  83.8229988
  65.9870012  18.4464997  85.1999988  65.2680012  17.8044997  84.6479988
  66.6800012  17.7264997  85.6849988  65.3450012  19.4254997  86.2899988
  66.1670012  20.0774997  86.6549988  64.5700012  20.0484997  85.7939988
  64.8280012  18.7074997  87.5519988  63.8180012  18.3374997  87.2749988
  65.5760012  17.9164997  87.7739988  64.6930012  19.7014997  88.6829988
  65.6690012  20.1924997  88.8839988  63.9680012  20.5224997  88.4979988
  64.2760012  19.0284997  89.9629988  63.2110012  18.7274997  89.8699988
  64.9520012  18.1904997  90.2389988  64.4860012  19.9984997  91.1609988
  65.5140012  20.4024997  91.0409988  63.7980012  20.8524997  90.9849988
  64.1390012  19.3014997  92.5079988  63.1440012  18.8344997  92.3499988
  64.8800012  18.4734997  92.5069988  63.9620012  20.1134997  93.7129988
  64.7600012  20.8474997  93.9559988  63.0320012  20.6954997  93.5319988
  63.7610012  19.2964997  95.0249988  63.3530012  20.0564997  95.7249988
  62.9700012  18.5174997  94.9999988  64.9920012  18.5654997  95.5149988
  64.6540012  17.5204997  95.6809988  65.8180012  18.6454997  94.7759988
  65.4830012  19.1154997  96.8509988  65.7040012  20.1974997  96.7329988
  64.7480012  19.0484997  97.6819988  66.8170012  18.6274997  97.4769988
  67.6720012  17.9254997  96.8979988  66.8970012  19.1424997  98.6459988
  68.0150012  18.7934997  99.4799988  67.7430012  18.2644997 100.4179988
  68.7400012  18.2544997  98.8319988  68.7220012  20.1044997  99.9999988
  69.6680012  19.8264997 100.5119988  67.9260012  20.9924997 100.9329988
  67.5060012  20.3284997 101.7189988  68.6590012  21.6264997 101.4759988
  67.0370012  21.5994997 100.1019988  66.0610012  22.6604997 100.6969988
  64.6190012  22.2814997 100.3589988  64.1710012  20.9584997 100.1539988
  63.1390012  20.9384997  99.7449988  64.7800012  20.4254997  99.3929988
  64.1430012  20.2154997 101.4979988  63.8960012  19.1954997 101.2429988
  65.1250012  20.1424997 101.9429988  63.0510012  20.5674997 102.5429988
  61.5920012  20.4084997 102.0429988  60.8910012  20.7044997 102.8099988
  61.4540012  20.9724997 101.1319988  61.5080012  19.3684997 101.7639988
  63.2140012  19.7894997 103.8139988  64.1290012  20.0724997 104.3119988
  62.4840012  20.0124997 104.5779988  63.2350012  18.7424997 103.5509988
  63.2720012  22.0654997 102.8959988  63.2940012  22.6404997 101.9819988
  64.2800012  22.1214997 103.2789988  62.5970012  22.4204997 103.6599988
  66.1990012  22.6954997 102.1309988  66.2770012  23.9594997  99.9449988
  69.0170012  20.7014997  98.7059988  69.8070012  21.7734997  98.7229988
  70.5910012  22.0954997  99.5409988  69.4930012  22.7004997  97.5039988
  70.4470012  23.0774997  97.0769988  68.8700012  23.5074997  97.9469988
  68.6220012  21.9434997  96.4839988  68.2120012  22.7124997  95.7949988
  67.7560012  21.4594997  96.9829988  69.4150012  20.9954997  95.6059988
  69.5130012  19.9794997  96.0459988  70.3970012  21.5094997  95.5329988
  68.7290012  20.8524997  94.2649988  67.6320012  20.8874997  94.4369988
  69.0060012  19.8534997  93.8659988  69.1400012  22.0044997  93.3219988
  70.2050012  22.2634997  93.5099988  68.6240012  22.9054997  93.7179988
  68.8080012  21.9164997  91.7999988  67.7290012  21.8744997  91.5389988
  69.1750012  20.9454997  91.4029988  69.3020012  23.1184997  90.9239988
  69.0060012  22.6844997  89.9449988  70.3950012  23.2944997  91.0079988
  68.6260012  24.3974997  91.3289988  68.9590012  24.8544997  92.2729988
  67.6250012  25.0634997  90.6609988  67.1120012  25.8894997  91.1739988
  66.8880012  24.6984997  89.4249988  65.8600012  24.9394997  89.7699988
  66.8960012  23.6044997  89.2269988  67.2740012  25.6004997  88.3039988
  68.3680012  25.5024997  88.1379988  66.9650012  26.6424997  88.5349988
  66.5830012  25.3614997  86.9379988  67.0800012  25.9114997  86.1099988
  65.5450012  25.7434997  86.8369988  66.5190012  23.7934997  86.4469988
  65.6650012  23.3024997  86.9609988  67.3580012  23.1304997  86.7499988
  66.4910012  23.7494997  84.8929988  66.4780012  22.6884997  84.5639988
  67.4200012  24.2674997  84.5719988  65.1530012  24.2844997  84.3579988
  64.8960012  25.2324997  84.8769988  64.2890012  23.5944997  84.4689988
  65.2250012  24.5124997  82.8349988  65.4960012  23.5504997  82.3489988
  65.9110012  25.3614997  82.6269988  63.8710012  24.9154997  82.2889988
  63.9730012  25.2454997  81.2329988  63.5550012  25.7224997  82.9839988
  63.1730012  24.0544997  82.3689988  20.5060012  59.6334997  82.4399988
  20.1980012  58.6474997  82.0289988  20.2810012  60.4754997  81.7519988
  20.0380012  59.7954997  83.4349988  22.0250012  59.6044997  82.6529988
  22.5320012  58.9224997  81.9379988  22.4020012  60.6224997  82.4139988
  22.5360012  59.2574997  84.0159988  22.3820012  60.1274997  84.6899988
  21.9470012  58.3904997  84.3839988  23.9970012  58.8394997  84.2169988
  24.1550012  57.8724997  83.6919988  24.6830012  59.6324997  83.8489988
  24.2630012  58.4964997  85.7359988  24.0950012  59.4294997  86.3149988
  23.6930012  57.6134997  86.0959988  25.6930012  57.9604997  86.0829988
  25.7080012  56.9474997  85.6249988  26.5750012  58.5564997  85.7659988
  25.9760012  57.7914997  87.6089988  27.0610012  57.6894997  87.8249988
  25.5820012  58.6294997  88.2229988  25.1610012  56.6284997  88.2449988
  24.1050012  56.8694997  87.9999988  25.2870012  55.6534997  87.7269988
  25.2750012  56.6544997  89.6779988  26.2170012  56.1644997  90.0059988
  25.3070012  57.7034997  90.0409988  24.1160012  55.8714997  90.4599988
  23.1230012  56.2914997  90.1949988  24.1830012  54.8554997  90.0159988
  24.1940012  55.7644997  91.9349988  23.4810012  54.9394997  92.1479988
  25.2200012  55.5484997  92.3019988  23.5730012  56.8504997  92.7159988
  22.5520012  57.1274997  92.3769988  23.4350012  56.4954997  93.7599988
  24.3620012  58.1744997  92.9049988  25.3970012  57.8104997  93.0789988
  24.3830012  58.7364997  91.9469988  23.7360012  59.1134997  93.9569988
  23.8590012  60.2054997  93.7979988  22.6870012  58.7484997  93.9399988
  24.2240012  58.8334997  95.3639988  23.4520012  59.0464997  96.1339988
  24.5240012  57.7914997  95.6069988  25.5110012  59.7094997  95.6069988
  26.4070012  59.9004997  94.7769988  25.4140012  60.3774997  96.8059988
  26.5180012  61.0664997  97.4349988  27.4360012  60.4754997  97.2289988
  26.5060012  62.1014997  97.0319988  26.2720012  61.0864997  98.9289988
  27.1850012  61.6044997  99.2939988  26.0620012  59.7014997  99.5239988
  26.9700012  59.1524997  99.1949988  26.0530012  59.7234997 100.6349988
  24.8900012  59.1164997  99.0399988  24.3210012  57.9254997  99.9239988
  23.7100012  58.7284997 101.1749988  22.8840012  59.8014997 100.8099988
  23.3790012  60.6694997 100.3259988  22.0760012  59.3724997 100.1789988
  22.2290012  60.2694997 102.1689988  21.3590012  60.8714997 101.9489988
  21.8360012  59.3714997 102.6219988  23.1790012  61.0684997 103.0969988
  23.5860012  62.3974997 102.4809988  24.2350012  62.8754997 103.1999988
  24.1420012  62.0884997 101.6079988  22.6970012  62.9504997 102.2169988
  22.4060012  61.4514997 104.4499988  22.1190012  60.5944997 105.0419988
  23.0950012  62.0574997 105.0179988  21.5840012  62.1094997 104.2069988
  24.3380012  60.3014997 103.5379988  25.0730012  60.1854997 102.7549988
  23.9210012  59.3344997 103.7789988  24.7440012  60.6564997 104.4739988
  23.2650012  57.1704997  99.2359988  25.5320012  57.1184997 100.2619988
  25.0840012  61.8504997  99.1679988  25.0800012  63.2314997  99.0169988
  26.0640012  63.9174997  98.9869988  23.6480012  63.7304997  98.7909988
  23.7630012  64.7684997  98.4119988  23.0550012  63.5874997  99.7199988
  22.9950012  62.8044997  97.6969988  22.7000012  61.8994997  98.2689988
  23.6880012  62.4754997  96.8929988  21.6490012  63.0764997  97.0129988
  20.8230012  63.3294997  97.7119988  21.2570012  62.2344997  96.4029988
  21.6820012  64.3214997  96.1169988  21.8850012  65.3024997  96.5969988
  20.6640012  64.4784997  95.7009988  22.6850012  64.2864997  94.8949988
  23.6730012  63.8684997  95.1849988  22.7700012  65.3574997  94.6099988
  22.2030012  63.6564997  93.5769988  21.2030012  64.0444997  93.2859988
  22.1210012  62.5574997  93.7199988  23.2430012  63.8054997  92.3989988
  24.2700012  64.0454997  92.7479988  22.9020012  64.7214997  91.8699988
  23.1940012  62.5844997  91.5169988  22.2600012  62.4014997  90.9659988
  24.2500012  61.8324997  91.1439988  24.0680012  60.9974997  90.4509988
  25.6710012  62.0704997  91.5139988  25.7770012  61.6904997  92.5529988
  25.8430012  63.1644997  91.6039988  26.6310012  61.3904997  90.5829988
  26.6290012  60.3124997  90.8499988  27.6350012  61.8344997  90.7549988
  26.2430012  61.3324997  89.0659988  25.2650012  60.8154997  88.9679988
  27.0550012  60.6974997  88.6519988  26.2850012  62.6274997  88.2649988
  27.2050012  63.1394997  88.6179988  25.4030012  63.2624997  88.4969988
  26.1930012  62.3374997  86.7389988  25.1730012  62.0034997  86.4539988
  26.9460012  61.5634997  86.4749988  26.4210012  63.5324997  85.8519988
  27.4400012  63.9594997  85.9719988  25.6810012  64.3044997  86.1509988
  26.2240012  63.4184997  84.3269988  25.2960012  62.8434997  84.1189988
  27.0610012  62.7574997  84.0159988  26.1940012  64.7254997  83.4689988
  25.2660012  65.2544997  83.7739988  26.3280012  64.3824997  82.4199988
  27.0960012  65.3184997  83.7319988  79.7370012 121.7314997  84.6269988
  79.9220012 121.1164997  83.7199988  80.4290012 122.5984997  84.6799988
  78.7640012 122.1994997  84.3649988  79.7890012 121.0504997  86.0119988
  79.1240012 120.1614997  85.9769988  80.7520012 120.4984997  86.0679988
  79.3950012 121.8324997  87.2219988  80.2400012 122.4954997  87.5059988
  78.5870012 122.5664997  87.0089988  78.8780012 120.9594997  88.3269988
  78.6170012 121.5774997  89.2129988  77.9770012 120.4254997  87.9569988
  79.8450012 119.8534997  88.8879988  79.3160012 119.4384997  89.7719988
  79.9880012 119.1174997  88.0689988  81.1640012 120.4894997  89.2939988
  81.6650012 121.1094997  88.5199988  80.9790012 121.2274997  90.1029988
  82.2070012 119.5444997  89.9059988  82.6120012 118.9624997  89.0509988
  82.9840012 120.2364997  90.2969988  81.7140012 118.6674997  91.0829988
  81.3710012 119.2314997  91.9759988  80.8710012 118.0434997  90.7159988
  82.8500012 117.7044997  91.6829988  82.5130012 117.1014997  92.5539988
  83.0280012 117.0524997  90.8009988  84.1020012 118.4914997  92.2169988
  84.7960012 117.6894997  92.5479988  84.6440012 119.1074997  91.4679988
  83.8430012 119.3934997  93.4259988  83.3940012 120.3314997  93.0349988
  83.0320012 119.1624997  94.1489988  85.0720012 119.7634997  94.3379988
  85.9860012 120.1034997  93.8049988  84.7500012 120.6354997  94.9469988
  85.6280012 118.5804997  95.1319988  84.7470012 118.1124997  95.6209988
  85.9280012 117.9424997  94.2739988  86.5990012 119.0224997  96.2049988
  87.1690012 118.0994997  96.4459988  87.4480012 119.7044997  95.9849988
  86.0250012 119.5604997  97.5019988  85.0540012 119.1164997  97.8109988
  86.6410012 119.2214997  98.3619988  85.8730012 121.0804997  97.6569988
  86.0120012 121.7924997  96.6719988  85.7930012 121.4334997  98.9709988
  86.4050012 122.6834997  99.2579988  87.4910012 122.5754997  99.4689988
  86.4770012 123.3924997  98.4069988  85.5010012 123.4384997 100.3289988
  86.1050012 124.3034997 100.6779988  84.9780012 122.5724997 101.4869988
  85.9320012 122.0854997 101.7789988  84.6130012 123.1134997 102.3859988
  83.9630012 121.6874997 101.0289988  83.7390012 120.2314997 101.5989988
  82.1820012 120.2364997 101.6299988  81.4690012 120.8094997 100.5669988
  82.1720012 120.9744997  99.7229988  80.7070012 120.0634997 100.2549988
  80.5930012 122.0234997 100.9419988  81.2080012 122.5964997 101.6199988
  80.4030012 122.6444997 100.0799988  79.1950012 121.8534997 101.5509988
  78.2780012 121.4524997 100.4789988  78.7390012 120.6904997  99.8679988
  77.3670012 121.0464997 100.8939988  78.0910012 122.2454997  99.7709988
  79.3070012 120.8864997 102.6909988  79.5640012 119.9004997 102.3329988
  79.9630012 121.3054997 103.4399988  78.3690012 121.0694997 103.1959988
  78.7410012 123.1624997 102.1179988  78.7500012 123.9424997 101.3709988
  79.4720012 123.4484997 102.8599988  77.7580012 123.1614997 102.5649988
  84.1120012 119.2514997 100.5869988  84.3310012 120.1054997 102.9849988
  84.3050012 123.8944997  99.6669988  83.7430012 124.9234997 100.1269988
  84.1490012 125.7194997 101.0039988  82.3840012 125.2454997  99.3189988
  82.6730012 126.1724997  98.7789988  81.4890012 125.3944997  99.9599988
  82.1270012 124.1344997  98.2809988  81.8170012 123.1624997  98.7229988
  82.9800012 124.0124997  97.5799988  80.9740012 124.5414997  97.3389988
  81.2560012 125.4884997  96.8299988  80.1830012 124.8244997  98.0659988
  80.4410012 123.4674997  96.3869988  79.5170012 123.7834997  95.8579988
  80.0680012 122.6194997  96.9999988  81.3640012 123.1484997  95.0949988
  80.8500012 122.3194997  94.5639988  82.2910012 122.7224997  95.5369988
  81.7290012 124.2524997  94.1689988  82.2900012 125.0154997  94.7499988
  80.7920012 124.7794997  93.8879988  82.6360012 123.6874997  93.0219988
  82.7670012 124.5244997  92.3039988  82.1460012 122.7954997  92.5759988
  83.9770012 123.2484997  93.5109988  83.9150012 122.5174997  94.3309988
  85.1210012 123.6904997  93.0589988  86.0140012 123.3614997  93.6099988
  85.4310012 124.6634997  91.9989988  86.5360012 124.7254997  91.8989988
  85.1440012 125.7144997  92.2139988  84.9530012 124.2904997  90.5259988
  85.4010012 124.9414997  89.7459988  83.8680012 124.5134997  90.4339988
  85.2030012 122.7334997  90.1539988  84.5350012 122.1924997  90.8579988
  86.2440012 122.4464997  90.4129988  84.6380012 122.3864997  88.7549988
  84.6960012 123.2434997  88.0499988  83.5390012 122.2314997  88.8049988
  85.4420012 121.2054997  88.1309988  84.9880012 120.3044997  88.5969988
  86.5400012 121.1494997  88.2919988  85.2200012 121.1714997  86.5279988
  85.7440012 120.2704997  86.1419988  85.5650012 122.0954997  86.0179988
  83.6880012 120.8964997  86.1439988  83.0880012 121.6744997  86.6629988
  83.5810012 119.8924997  86.6079988  83.3250012 120.7874997  84.6259988
  82.2940012 120.3734997  84.6579988  84.0070012 120.0914997  84.0939988
  83.3720012 121.7324997  84.0439988  20.4710012 113.1034997  83.7289988
  21.1110012 112.8224997  82.8649988  19.9450012 114.0774997  83.6279988
  19.6240012 112.3864997  83.7839988  21.3250012 113.1344997  85.0209988
  21.7730012 112.1314997  85.1869988  22.0380012 113.9814997  84.9389988
  20.5390012 113.4244997  86.3179988  21.2840012 113.4874997  87.1389988
  20.0980012 114.4424997  86.3829988  19.4490012 112.4404997  86.6309988
  18.7320012 112.3314997  85.7889988  19.9560012 111.4704997  86.8249988
  18.6940012 112.8374997  87.8559988  19.3930012 113.2094997  88.6349988
  17.9250012 113.5204997  87.4349988  17.9650012 111.6144997  88.4289988
  17.1860012 111.2954997  87.7039988  18.7510012 110.8324997  88.5089988
  17.3900012 111.8634997  89.8139988  17.4490012 112.9324997  90.1109988
  16.3200012 111.6214997  89.6399988  18.0400012 111.0584997  90.9909988
  17.7580012 110.0134997  90.7399988  19.1290012 111.2334997  90.8579988
  17.4340012 111.4354997  92.3679988  17.5060012 112.5374997  92.4889988
  16.3610012 111.2154997  92.1849988  17.9260012 110.6144997  93.4959988
  19.0260012 110.4774997  93.5789988  17.5650012 111.0704997  94.4419988
  17.3920012 109.1944997  93.4579988  16.2900012 109.2454997  93.5859988
  17.4920012 108.6854997  92.4759988  18.0470012 108.2634997  94.5489988
  17.7690012 108.5544997  95.5849988  17.6860012 107.2774997  94.1839988
  19.5610012 108.2184997  94.4769988  19.8860012 108.0124997  93.4349988
  19.9690012 109.2194997  94.7319988  20.2530012 107.2394997  95.3819988
  20.1660012 107.5914997  96.4319988  19.9300012 106.1914997  95.2029988
  21.7800012 107.0914997  95.1079988  22.1920012 106.2924997  95.7609988
  21.9230012 106.8384997  94.0349988  22.3850012 108.4654997  95.5309988
  22.3720012 109.6024997  94.9879988  23.0470012 108.1514997  96.6979988
  23.7110012 109.2954997  97.3619988  24.5910012 108.8924997  97.9059988
  24.0710012 110.0524997  96.6329988  22.7360012 110.0704997  98.3159988
  23.3580012 110.7594997  98.9269988  22.1680012 109.0454997  99.2319988
  21.7630012 108.1754997  98.6719988  22.8740012 108.5094997  99.9019988
  21.2890012 109.5584997 100.1449988  19.8080012 109.1914997 100.3129988
  19.1380012 110.2964997 101.2429988  19.0320012 111.6244997 100.6539988
  19.8210012 111.7534997  99.8819988  18.1400012 111.7424997 100.0029988
  18.9930012 112.8444997 101.6059988  19.1090012 113.7344997 101.0069988
  17.9760012 112.8364997 101.9699988  19.9900012 112.7664997 102.7759988
  19.6200012 111.6644997 103.7999988  20.4230012 111.5974997 104.5179988
  18.6910012 111.9434997 104.2749988  19.4970012 110.7424997 103.2509988
  21.4200012 112.4904997 102.1969988  21.5680012 111.4334997 102.0289988
  21.6410012 113.0524997 101.3009988  22.1830012 112.7654997 102.9089988
  20.0580012 114.0904997 103.4769988  19.0610012 114.2984997 103.8389988
  20.4210012 114.8804997 102.8349988  20.5970012 114.0254997 104.4099988
  19.1320012 109.2654997  98.9729988  19.7510012 107.8734997 100.9979988
  21.7520012 110.8144997  97.6139988  21.5950012 112.1374997  97.8169988
  21.9890012 112.7324997  98.8189988  20.6690012 112.7814997  96.7929988
  19.6970012 112.9864997  97.2899988  20.4600012 112.0964997  95.9439988
  21.1920012 114.1294997  96.2989988  21.4730012 114.7534997  97.1749988
  20.3540012 114.5654997  95.7149988  22.5690012 114.0414997  95.5009988
  23.3250012 113.6064997  96.1899988  22.9220012 115.0304997  95.1379988
  22.4770012 113.1194997  94.3199988  21.5910012 113.3404997  93.6869988
  22.4060012 112.0854997  94.7209988  23.7830012 113.2034997  93.4469988
  24.5220012 113.3874997  94.2559988  23.8330012 114.0704997  92.7529988
  24.0950012 111.9094997  92.7589988  24.3720012 111.1384997  93.5109988
  25.0000012 112.0184997  92.1239988  23.0630012 111.3244997  91.8079988
  22.5900012 112.1244997  91.1989988  22.1920012 110.8024997  92.2599988
  23.7870012 110.3994997  90.8099988  24.4760012 110.8964997  90.1109988
  23.6260012 109.0954997  90.5769988  24.3180012 108.5964997  89.8829988
  22.6100012 108.2014997  91.2599988  21.6970012 108.6964997  91.6529988
  23.1740012 107.7304997  92.0929988  21.9440012 107.1644997  90.2399988
  21.2710012 106.4164997  90.7109988  22.7100012 106.5914997  89.6749988
  20.9780012 107.9104997  89.2029988  21.6120012 108.4744997  88.4849988
  20.3230012 108.6484997  89.7129988  19.9380012 107.0684997  88.4949988
  19.2510012 106.6664997  89.2709988  20.5330012 106.2604997  88.0179988
  19.1890012 107.8104997  87.3399988  18.7760012 108.7294997  87.8079988
  18.3670012 107.0974997  87.1199988  19.9880012 108.0654997  86.0379988
  20.9280012 108.6404997  86.1799988  19.3960012 108.5594997  85.2379988
  20.4230012 106.7174997  85.3579988  20.1190012 106.6284997  84.2929988
  20.0770012 105.8524997  85.9619988  21.9300012 106.5674997  85.3089988
  22.4010012 106.1844997  86.2399988  22.4340012 107.5244997  85.0519988
  22.1310012 105.8664997  84.4709988  40.6670012  33.4004997  82.7229988
  41.4820012  33.4804997  83.4739988  41.2410012  33.3444997  81.7739988
  40.1100012  32.4394997  82.7469988  39.7710012  34.6574997  82.9189988
  40.4850012  35.5084997  82.9069988  39.0830012  34.6594997  82.0469988
  38.7270012  34.6064997  84.0499988  38.0330012  35.4684997  83.9489988
  38.1650012  33.6594997  83.9069988  39.1230012  34.6034997  85.5609988
  39.6860012  33.6634997  85.7379988  39.8600012  35.4204997  85.7109988
  37.9650012  34.8244997  86.5429988  37.5850012  35.8604997  86.4179988
  37.1890012  34.1084997  86.1989988  38.3790012  34.6564997  87.9929988
  39.3750012  35.1404997  88.0819988  37.5680012  35.1434997  88.5769988
  38.6890012  33.2774997  88.5279988  39.4620012  32.7584997  87.9209988
  39.2620012  33.5134997  89.4499988  37.5490012  32.4644997  88.9589988
  37.0490012  32.8224997  89.8849988  36.8280012  32.3924997  88.1159988
  38.1880012  31.0734997  89.3629988  38.5390012  30.5194997  88.4659988
  39.1420012  31.3004997  89.8849988  37.3480012  30.1864997  90.2509988
  36.9970012  30.8284997  91.0869988  36.4770012  29.8514997  89.6469988
  38.1020012  28.9164997  90.7249988  37.3340012  28.1894997  91.0639988
  38.5420012  28.4374997  89.8239988  39.1070012  29.2024997  91.8499988
  39.9130012  29.8484997  91.4409988  38.6910012  29.7754997  92.7069988
  39.7720012  28.0314997  92.6199988  39.0000012  27.4194997  93.1319988
  40.2380012  27.3004997  91.9239988  40.7990012  28.4714997  93.6889988
  41.6860012  28.9184997  93.1909988  40.2360012  29.2084997  94.3019988
  41.1920012  27.2504997  94.4719988  40.2710012  26.6734997  94.6969988
  41.9110012  26.6294997  93.8959988  41.9170012  27.6064997  95.8569988
  43.0800012  27.7564997  96.0549988  40.9360012  27.7854997  96.7679988
  41.2220012  28.2634997  98.1149988  40.3580012  28.0784997  98.7889988
  42.1130012  27.7714997  98.5599988  41.3410012  29.8324997  98.1929988
  42.3730012  29.9674997  97.8039988  41.2920012  30.2034997  99.6769988
  40.2150012  30.0504997  99.9009988  41.8930012  29.6204997 100.4069988
  41.5470012  31.6374997  99.7869988  41.4440012  32.1514997 101.2559988
  41.6980012  33.7014997 101.0679988  41.0950012  34.5284997 100.0969988
  41.7800012  34.9194997  99.3139988  40.4020012  33.9554997  99.4439988
  40.5380012  35.8344997 100.7369988  41.3530012  36.4804997 101.0269988
  39.9550012  36.3054997  99.9599988  39.5970012  35.7884997 102.0109988
  40.4350012  35.4414997 103.2479988  39.9640012  35.1644997 104.1789988
  41.1270012  34.6364997 103.0489988  41.1670012  36.2204997 103.4059988
  39.0260012  37.1614997 102.2499988  39.7680012  37.8454997 102.6359988
  38.6340012  37.4654997 101.2909988  38.2120012  37.0844997 102.9559988
  38.4660012  34.8654997 101.8049988  37.8800012  35.3094997 101.0139988
  37.9690012  34.6724997 102.7449988  38.6720012  33.8774997 101.4219988
  40.0840012  31.9854997 101.8359988  42.5690012  31.5854997 102.0869988
  40.3410012  30.4604997  97.3949988  40.5800012  31.7024997  96.9309988
  41.5320012  32.3594997  97.2229988  39.4700012  32.1854997  96.0329988
  38.7160012  32.5674997  96.7529988  39.1440012  31.2514997  95.5279988
  40.0170012  33.1314997  94.9559988  40.5940012  33.9984997  95.3419988
  39.1740012  33.6264997  94.4299988  40.7990012  32.4514997  93.8369988
  40.4480012  31.4494997  93.5089988  41.7660012  32.1694997  94.3039988
  40.8680012  33.3094997  92.5799988  41.3430012  34.2704997  92.8679988
  39.8270012  33.5504997  92.2749988  41.6990012  32.5784997  91.5069988
  41.0590012  31.8974997  90.9059988  42.5020012  31.9774997  91.9849988
  42.3240012  33.5914997  90.5739988  43.1900012  34.0454997  91.1019988
  41.5200012  34.3084997  90.3029988  42.9580012  32.8874997  89.3479988
  42.1250012  32.2674997  88.9499988  43.7190012  32.1654997  89.7139988
  43.4500012  33.8394997  88.2779988  43.4620012  34.8954997  88.5869988
  44.0540012  33.4434997  87.0939988  44.5780012  34.2394997  86.5439988
  44.2970012  32.0194997  86.7329988  44.4290012  31.3534997  87.6119988
  45.2700012  31.9394997  86.2019988  43.1790012  31.4714997  85.8369988
  43.4720012  32.0664997  84.9449988  42.1450012  31.6894997  86.1789988
  43.2300012  29.9924997  85.6629988  42.9330012  29.5804997  86.6509988
  44.2050012  29.5544997  85.3569988  42.1780012  29.4164997  84.7009988
  41.4330012  30.2194997  84.5109988  41.7080012  28.4804997  85.0719988
  42.7200012  29.0914997  83.3139988  43.0580012  28.0364997  83.2319988
  43.6330012  29.6644997  83.0449988  41.6760012  29.4004997  82.1469988
  42.1530012  29.0104997  81.2219988  41.4770012  30.4934997  82.1409988
  40.3170012  28.6174997  82.3319988  39.8660012  28.9744997  83.2819988
  40.4470012  27.5224997  82.4649988  39.3000012  28.8694997  81.2209988
  39.6120012  28.3394997  80.2959988  39.1760012  29.9544997  81.0179988
  38.3840012  28.3344997  81.5529988  90.3680012 116.4334997  83.0609988
  90.8260012 115.7364997  82.3269988  90.5600012 116.1454997  84.1169988
  90.5730012 117.5034997  82.8439988  88.8130012 116.1414997  82.8719988
  88.2710012 116.8204997  83.5639988  88.4750012 116.3374997  81.8319988
  88.3380012 114.7064997  83.0999988  87.2560012 114.7534997  82.8539988
  88.9350012 114.0624997  82.4189988  88.5280012 114.1674997  84.5299988
  88.1300012 113.1304997  84.5189988  89.6210012 114.0854997  84.7089988
  87.8940012 115.0224997  85.6069988  88.5560012 115.9094997  85.7069988
  86.8580012 115.3694997  85.4049988  87.6510012 114.1674997  86.9359988
  86.9790012 113.2924997  86.8079988  88.6580012 113.8784997  87.3069988
  86.9250012 115.0254997  88.0499988  85.9850012 115.4144997  87.6029988
  86.6690012 114.3434997  88.8889988  87.8830012 116.1544997  88.5109988
  88.8480012 115.7334997  88.8649988  88.1620012 116.8254997  87.6699988
  87.3260012 117.1364997  89.5219988  86.5270012 117.8244997  89.1719988
  86.9740012 116.4534997  90.3249988  88.3700012 118.0184997  90.1319988
  89.2200012 117.3094997  90.2259988  88.5390012 118.8424997  89.4059988
  88.0860012 118.5714997  91.5509988  88.8380012 119.3284997  91.8619988
  87.1340012 119.1394997  91.4899988  88.1760012 117.5284997  92.7149988
  87.4420012 116.7054997  92.5799988  89.2050012 117.1114997  92.6769988
  87.9460012 118.1604997  94.0889988  88.4090012 117.5154997  94.8659988
  88.6030012 119.0554997  94.0309988  86.5190012 118.4464997  94.3939988
  86.6240012 118.8884997  95.4079988  86.2810012 119.1914997  93.6039988
  85.5460012 117.2464997  94.4159988  84.5090012 117.5704997  94.6489988
  85.3650012 116.8244997  93.4049988  85.9470012 116.1604997  95.3639988
  85.8870012 114.9484997  95.1389988  86.5390012 116.6754997  96.4759988
  86.9010012 115.8274997  97.4729988  86.0640012 115.7234997  98.1959988
  87.2400012 114.8544997  97.0579988  87.9720012 116.5784997  98.3279988
  88.2580012 115.9514997  99.1999988  87.3880012 117.8914997  98.8899988
  87.0920012 118.4854997  97.9989988  86.4060012 117.8244997  99.4049988
  88.3780012 118.6164997  99.6649988  88.5270012 117.9904997 101.1589988
  89.8170012 117.0714997 101.2159988  90.9780012 117.4244997 100.4069988
  91.2970012 116.5034997  99.8729988  90.7250012 118.2094997  99.6629988
  92.2210012 117.9404997 101.2199988  92.7650012 118.7394997 100.7379988
  91.8110012 118.6064997 101.9649988  93.0390012 116.9934997 102.0709988
  93.8890012 116.1634997 101.1729988  94.2880012 116.9224997 100.5169988
  94.6490012 115.6294997 101.7249988  93.2450012 115.5784997 100.5329988
  93.7630012 117.8884997 103.0549988  94.3810012 118.6044997 102.5329988
  92.9970012 118.4544997 103.5639988  94.3430012 117.2414997 103.6959988
  92.0340012 116.1724997 102.8609988  92.5180012 115.6164997 103.6509988
  91.6550012 115.5184997 102.0899988  91.2070012 116.8154997 103.1219988
  88.6890012 119.1324997 102.0279988  87.3370012 117.1184997 101.3269988
  89.0850012 116.9334997  97.5009988  89.9890012 115.9784997  97.2969988
  89.9450012 114.8334997  97.6809988  91.2520012 116.6274997  96.6669988
  91.5260012 116.0834997  95.7389988  92.0720012 116.5934997  97.4159988
  91.0510012 118.1564997  96.3929988  90.2700012 118.6114997  97.0389988
  90.6800012 118.0374997  95.3519988  92.3880012 118.9574997  96.4689988
  92.8940012 118.7784997  97.4419988  92.2560012 120.0594997  96.5179988
  93.2530012 118.7794997  95.2449988  93.7090012 117.7664997  95.2449988
  94.1630012 119.3774997  95.4639988  92.7620012 119.0434997  93.7919988
  92.2080012 120.0054997  93.8269988  91.9940012 118.2624997  93.6099988
  93.8260012 119.1774997  92.6579988  94.5340012 119.9844997  92.9449988
  93.2450012 119.5524997  91.7889988  94.5400012 117.7844997  92.2689988
  93.7720012 116.9954997  92.1159988  95.0850012 117.4024997  93.1579988
  95.3820012 117.9324997  91.0529988  96.2860012 118.4714997  91.3699988
  95.1300012 117.5634997  89.7769988  95.9080012 117.7224997  89.0159988
  93.8520012 116.8874997  89.2849988  93.4680012 116.3194997  90.1589988
  94.0200012 116.0684997  88.5539988  92.8870012 117.9034997  88.6739988
  92.8940012 118.8024997  89.3259988  91.8670012 117.4844997  88.8119988
  93.0720012 118.3204997  87.2059988  92.4670012 117.5434997  86.6909988
  94.1570012 118.3204997  86.9669988  92.5120012 119.7384997  87.0239988
  93.2580012 120.4594997  87.4209988  91.5410012 119.9694997  87.5109988
  92.3530012 119.9734997  85.5179988  91.5740012 119.3384997  85.0439988
  93.3520012 119.6714997  85.1379988  92.0780012 121.4124997  85.1859988
  92.9460012 122.0334997  85.4959988  91.1530012 121.7124997  85.7219988
  91.8300012 121.5754997  83.6799988  91.6450012 122.6644997  83.5609988
  90.8640012 121.1334997  83.3559988  92.9300012 121.0824997  82.6529988
  92.8610012 121.3504997  81.5769988  92.8940012 119.9784997  82.7749988
  93.9700012 121.3254997  82.9579988  12.7110012  76.4424997  83.3679988
  12.4560012  77.1144997  82.5209988  12.6480012  75.3754997  83.0659988
  13.7410012  76.6174997  83.7449988  11.7250012  76.8314997  84.4419988
  10.7730012  76.2984997  84.2319988  12.0140012  76.3934997  85.4209988
  11.4780012  78.2804997  84.7039988  10.9800012  78.7614997  83.8359988
  10.7640012  78.4254997  85.5429988  12.6680012  79.1584997  85.0749988
  13.2720012  78.5584997  85.7889988  13.3030012  79.3424997  84.1819988
  12.3630012  80.4254997  85.8179988  13.2610012  81.0734997  85.7339988
  11.3930012  80.7644997  85.3949988  12.2410012  80.2234997  87.3209988
  13.0600012  79.5384997  87.6289988  12.5030012  81.1994997  87.7819988
  10.7980012  79.7584997  87.9089988  10.0360012  80.4644997  87.5139988
  10.6240012  78.7004997  87.6179988  10.7120012  79.8984997  89.4599988
   9.6270012  79.9974997  89.6779988  11.0920012  78.9354997  89.8609988
  11.6110012  81.0364997  90.1269988  12.6800012  80.7754997  89.9719988
  11.3050012  82.0064997  89.6809988  11.3660012  81.2704997  91.6029988
  12.0560012  82.1024997  91.8609988  10.3760012  81.6974997  91.8709988
  11.7970012  80.1554997  92.5819988  11.0610012  79.3314997  92.4689988
  12.7940012  79.8394997  92.2059988  11.8780012  80.6734997  94.0549988
  12.6430012  81.4744997  94.1369988  10.8830012  81.0804997  94.3349988
  12.2080012  79.5864997  95.1459988  12.7630012  78.6964997  94.7809988
  12.7590012  80.1394997  95.9379988  10.9500012  79.0214997  95.8619988
  10.0780012  79.7024997  95.7649988  10.7280012  78.0794997  95.3169988
  11.1510012  78.6184997  97.3349988  11.6540012  79.3224997  98.0309988
  10.1500012  78.3374997  97.7269988  11.9080012  77.2654997  97.4819988
  12.2400012  76.4964997  96.6159988  12.2260012  77.1264997  98.7569988
  12.9390012  75.9734997  99.0879988  12.5650012  75.5544997 100.0469988
  12.7240012  75.1014997  98.4339988  14.5120012  76.1364997  99.1209988
  14.8390012  75.1184997  99.4239988  15.0580012  77.1594997 100.1669988
  14.6390012  76.9104997 101.1649988  16.1570012  77.0254997 100.2619988
  14.6730012  78.4014997  99.5679988  14.7110012  79.7084997 100.4339988
  13.6530012  79.3924997 101.5969988  12.3110012  79.1034997 101.3729988
  12.0050012  79.2914997 100.3209988  12.2290012  77.9954997 101.3999988
  11.4060012  79.8564997 102.4089988  10.3910012  79.6474997 102.1039988
  11.5100012  79.3804997 103.3729988  11.5170012  81.3444997 102.5249988
  12.7820012  81.7424997 103.1349988  13.6170012  81.5824997 102.4689988
  12.7500012  82.7754997 103.4459988  12.9870012  81.2564997 104.0779988
  11.4790012  81.9544997 101.1459988  12.3030012  81.5574997 100.5709988
  10.5240012  81.8294997 100.6559988  11.7920012  82.9864997 101.2059988
  10.3210012  81.8824997 103.2839988  10.5350012  82.9174997 103.5059988
  10.2470012  81.3564997 104.2239988   9.4460012  81.7914997 102.6569988
  16.0410012  79.9334997 101.1189988  14.2020012  80.7914997  99.5919988
  14.9060012  76.5464997  97.8129988  16.1900012  76.5134997  97.4959988
  17.1490012  76.1094997  98.1729988  16.3610012  77.0674997  96.0849988
  16.2110012  76.2814997  95.3129988  17.3970012  77.4484997  95.9639988
  15.4910012  78.2234997  95.8449988  15.5520012  78.8614997  96.7529988
  14.4470012  77.8464997  95.8219988  15.8110012  79.0544997  94.5849988
  16.8030012  79.5534997  94.6269988  14.9680012  79.7534997  94.3979988
  15.6700012  78.2134997  93.3559988  14.6750012  77.7194997  93.3879988
  16.4340012  77.4074997  93.3179988  15.8260012  78.9084997  92.0239988
  16.9190012  78.9914997  91.8429988  15.4600012  79.9564997  92.0689988
  15.0880012  78.3044997  90.8589988  13.9850012  78.4064997  90.9509988
  15.4440012  77.2534997  90.8119988  15.3380012  78.8804997  89.4019988
  14.8740012  79.8894997  89.3979988  14.8230012  78.3264997  88.5879988
  16.8010012  78.8694997  89.0309988  17.2890012  79.6754997  89.5979988
  17.5570012  78.0014997  88.3149988  18.6330012  78.2114997  88.2149988
  17.0230012  76.7864997  87.5959988  15.9630012  76.6144997  87.8799988
  17.6170012  75.9174997  87.9519988  16.8780012  76.9264997  86.0739988
  16.3260012  77.8604997  85.8349988  16.2120012  76.1584997  85.6259988
  18.2380012  76.7134997  85.3279988  18.5310012  75.6424997  85.3819988
  18.9830012  77.2404997  85.9619988  18.2410012  77.2334997  83.8359988
  19.2640012  77.2054997  83.4049988  18.1520012  78.3294997  83.9909988
  17.1380012  76.6434997  82.9809988  16.3290012  76.2084997  83.6059988
  17.5590012  75.8694997  82.3039988  16.5080012  77.6874997  82.0429988
  15.9340012  78.3664997  82.7079988  15.8740012  77.2234997  81.2579988
  17.4930012  78.5444997  81.2759988  18.4160012  77.9434997  81.1299988
  17.7820012  79.4804997  81.7989988  17.0070012  78.9984997  79.9209988
  16.9380012  78.1094997  79.2579988  17.6890012  79.7854997  79.5349988
  15.9970012  79.3874997  80.1739988  39.7430012 128.4394997  83.5129988
  39.4100012 129.2824997  84.1559988  40.0260012 128.8514997  82.5209988
  40.6680012 127.9284997  83.8569988  38.6680012 127.4304997  83.2089988
  37.6470012 127.8474997  83.0739988  38.9360012 126.8674997  82.2899988
  38.5510012 126.3994997  84.3599988  38.2150012 127.0014997  85.2309988
  37.7720012 125.6524997  84.0959988  39.8150012 125.7694997  84.9309988
  40.4130012 125.5904997  84.0109988  40.4110012 126.4994997  85.5189988
  39.6420012 124.5414997  85.7619988  38.9530012 123.8674997  85.2089988
  40.6770012 124.1464997  85.8399988  39.0740012 124.6304997  87.1769988
  39.1830012 125.6804997  87.5239988  37.9870012 124.4284997  87.0699988
  39.8480012 123.7474997  88.1719988  40.9380012 123.9584997  88.1859988
  39.5290012 124.0314997  89.1979988  39.6600012 122.2154997  87.7999988
  38.6170012 121.9134997  87.5619988  40.3860012 122.0804997  86.9709988
  40.0990012 121.3844997  88.9799988  39.6420012 121.9104997  89.8449988
  39.6680012 120.3714997  88.8319988  41.6330012 121.3864997  89.1189988
  42.2590012 121.1344997  88.2369988  41.9150012 122.3804997  89.5279988
  41.9480012 120.3224997  90.2139988  41.1850012 120.3464997  91.0209988
  41.8010012 119.3554997  89.6879988  43.2730012 120.4544997  90.8599988
  43.5470012 119.5154997  91.3869988  44.1010012 120.7994997  90.2049988
  43.3140012 121.4654997  92.0329988  44.1730012 121.4514997  92.7369988
  43.2600012 122.5004997  91.6309988  42.0840012 121.3684997  93.0139988
  41.1190012 121.8284997  92.7109988  41.9070012 120.2814997  93.1659988
  42.2850012 122.1174997  94.2939988  43.1440012 121.6724997  94.8409988
  42.4300012 123.1924997  94.0579988  41.2190012 122.0774997  95.3229988
  40.2420012 121.3244997  95.4039988  41.4040012 123.1914997  96.0819988
  40.3710012 123.3584997  97.1039988  39.3740012 123.4384997  96.6189988
  40.4590012 122.4444997  97.7279988  40.4990012 124.5974997  98.0309988
  41.5560012 124.7124997  98.3559988  39.6470012 124.5404997  99.3209988
  38.5510012 124.4364997  99.1709988  39.8350012 123.6804997  99.9989988
  39.8690012 125.7184997 100.1129988  41.2550012 126.0284997 100.9079988
  41.5170012 124.7414997 101.7239988  42.3700012 124.8664997 102.9009988
  43.0670012 125.7294997 102.8389988  41.6950012 124.9644997 103.7779988
  43.1830012 123.5804997 102.9979988  44.0120012 123.8304997 103.6439988
  42.5400012 122.8294997 103.4319988  43.6700012 122.8634997 101.7279988
  44.3990012 123.8154997 100.7879988  43.6890012 124.4984997 100.3469988
  45.1830012 124.3344997 101.3189988  44.7870012 123.1944997  99.9939988
  44.6050012 121.6814997 102.1829988  45.4450012 122.0884997 102.7259988
  43.9690012 121.1604997 102.8829988  44.8610012 121.0854997 101.3189988
  42.5320012 122.1034997 100.9819988  41.8680012 122.9064997 100.6999988
  42.0810012 121.3804997 101.6449988  42.8600012 121.6004997 100.0839988
  42.5210012 126.1674997 100.0859988  40.9260012 127.2114997 101.7709988
  40.2040012 125.7714997  97.2209988  41.2230012 126.2814997  96.5889988
  42.3770012 125.9754997  96.7039988  40.7880012 127.4394997  95.7309988
  41.0970012 128.3294997  96.3209988  39.6840012 127.3474997  95.6439988
  41.4620012 127.4424997  94.3269988  42.5630012 127.5624997  94.4159988
  41.1280012 128.3434997  93.7679988  41.1970012 126.2984997  93.4119988
  40.0940012 126.2354997  93.2899988  41.5140012 125.3684997  93.9319988
  41.8670012 126.3874997  92.0239988  41.5350012 127.2094997  91.3539988
  41.6110012 125.4034997  91.5749988  43.4070012 126.2974997  92.2039988
  43.5440012 125.6824997  93.1189988  43.7970012 127.2824997  92.5399988
  44.2510012 125.9594997  90.9989988  44.1620012 124.8984997  90.6839988
  45.3030012 126.1734997  91.2849988  43.8000012 126.9594997  89.8909988
  43.4530012 127.9424997  90.2769988  42.8930012 126.4904997  89.4529988
  44.8130012 127.0124997  88.8519988  45.7630012 127.4174997  89.2329988
  44.8880012 126.2654997  87.7449988  45.7660012 126.3584997  87.0889988
  43.9280012 125.1704997  87.2789988  42.8900012 125.5604997  87.2189988
  43.7940012 124.3664997  88.0339988  44.3830012 124.5874997  85.8909988
  45.4780012 124.5624997  85.7039988  43.8490012 125.1384997  85.0879988
  44.0250012 123.0804997  85.9909988  42.9280012 123.2464997  86.0389988
  44.3350012 122.6464997  86.9659988  44.2990012 122.2234997  84.7399988
  43.7060012 121.2984997  84.9019988  45.3470012 121.8544997  84.7529988
  43.9340012 122.8284997  83.3949988  44.2500012 122.0004997  82.7249988
  44.6260012 123.6484997  83.1079988  42.4620012 123.2414997  83.1149988
  42.4990012 123.8474997  82.1839988  41.9850012 123.8314997  83.9249988
  41.6000012 121.9954997  82.9079988  40.5750012 122.3874997  82.7309988
  41.5330012 121.4304997  83.8619988  41.9540012 121.0074997  81.8059988
  41.1230012 120.2734997  81.7249988  42.8550012 120.4014997  82.0419988
  42.1470012 121.5094997  80.8339988  10.7170012  89.2474997  82.4889988
  10.4870012  88.4704997  81.7289988  11.5660012  89.8624997  82.1209988
   9.7670012  89.8194997  82.5589988  11.0380012  88.6224997  83.8639988
  10.3000012  87.8344997  84.1269988  12.0300012  88.1254997  83.8019988
  11.0630012  89.6324997  85.1429988  12.0810012  90.0774997  85.1619988
  10.3260012  90.4624997  85.1149988  10.8510012  88.9164997  86.5039988
  10.8070012  89.7334997  87.2539988   9.8730012  88.3924997  86.4369988
  11.8820012  87.9364997  86.9859988  11.7180012  86.9324997  86.5399988
  12.8880012  88.3474997  86.7539988  11.6700012  87.7694997  88.5259988
  12.2600012  88.5384997  89.0679988  10.5880012  87.9254997  88.7259988
  12.0240012  86.3644997  89.0079988  11.7420012  86.4204997  90.0809988
  11.3580012  85.6414997  88.4909988  13.4650012  85.8644997  88.7829988
  13.4310012  84.8404997  89.2129988  13.6280012  85.7404997  87.6909988
  14.6210012  86.6924997  89.3649988  15.6120012  86.3744997  88.9769988
  14.5650012  87.7184997  88.9419988  14.6790012  86.5414997  90.8879988
  13.7810012  87.0664997  91.2789988  14.3770012  85.5014997  91.1379988
  15.9790012  87.0274997  91.5249988  15.8660012  86.8184997  92.6099988
  16.9050012  86.4914997  91.2269988  16.2520012  88.5124997  91.3039988
  17.3120012  88.7634997  91.5219988  16.4000012  88.6264997  90.2089988
  15.4220012  89.6104997  91.9299988  15.6960012  90.6454997  91.6329988
  14.3880012  89.6024997  91.5239988  15.3720012  89.3844997  93.3939988
  14.8790012  88.3974997  93.5229988  16.3650012  89.4204997  93.8929988
  14.4470012  90.4664997  94.0739988  14.6780012  91.5424997  93.9209988
  13.4940012  90.2424997  93.5489988  14.2820012  90.1534997  95.5509988
  13.9600012  89.0834997  95.9439988  14.2860012  91.2484997  96.2319988
  14.1800012  91.2704997  97.6479988  14.3030012  90.3104997  98.1939988
  15.0290012  91.8864997  98.0149988  12.9390012  91.9984997  98.0869988
  12.8730012  92.9624997  97.5379988  12.8290012  92.1564997  99.6629988
  13.5200012  91.3964997 100.0859988  13.3460012  93.1104997  99.9039988
  11.5310012  92.0514997 100.1009988  11.1820012  90.8924997 101.1209988
  12.0830012  89.5954997 100.8449988  11.7160012  88.4034997 101.4539988
  11.4970012  88.5934997 102.5259988  10.8180012  87.9534997 100.9779988
  12.7600012  87.2354997 101.4489988  12.3370012  86.4684997 102.0809988
  12.7510012  86.8254997 100.4499988  14.2310012  87.4554997 101.8299988
  14.3090012  87.8964997 103.2659988  15.3550012  88.0334997 103.4959988
  13.8090012  88.8394997 103.4319988  13.9120012  87.0594997 103.8209988
  15.0110012  86.1444997 101.7119988  14.5100012  85.4554997 102.3759988
  14.9900012  85.6904997 100.7329988  16.0510012  86.3204997 101.9439988
  14.9410012  88.4714997 101.0259988  15.2370012  88.0134997 100.0929988
  15.8690012  88.8404997 101.4369988  14.3640012  89.3554997 100.7959988
  11.5990012  91.3344997 102.5139988   9.8390012  90.4494997 100.8639988
  11.8310012  91.1744997  97.5169988  10.6610012  91.7524997  97.3669988
  10.4220012  92.9634997  97.5099988   9.5390012  90.7394997  97.0429988
   8.5740012  91.2584997  96.8609988   9.4030012  90.1304997  97.9619988
   9.9440012  89.7254997  95.9389988   9.1590012  88.9384997  95.9509988
  10.9100012  89.2414997  96.1989988   9.8250012  90.3744997  94.5699988
   8.7620012  90.6974997  94.5649988   9.9560012  89.6854997  93.7079988
  10.6600012  91.5984997  94.2019988  11.7340012  91.3164997  94.1609988
  10.4330012  92.5094997  94.7959988  10.0960012  92.0244997  92.8959988
   8.9960012  92.1784997  92.8979988  10.3510012  91.2314997  92.1609988
  10.7330012  93.3244997  92.3389988  10.6860012  94.0894997  93.1429988
  10.1900012  93.6774997  91.4359988  12.2180012  93.1164997  91.9359988
  12.3780012  92.2854997  91.2169988  12.8180012  92.6454997  92.7439988
  13.0110012  94.2694997  91.4299988  13.3720012  94.9714997  92.1959988
  13.3300012  94.5404997  90.0959988  13.8420012  95.4874997  89.8689988
  13.0280012  93.7254997  88.8139988  13.3110012  94.4304997  88.0029988
  11.9490012  93.5934997  88.5869988  13.5910012  92.3414997  88.7629988
  12.9580012  91.5514997  89.2189988  14.4840012  92.4244997  89.4189988
  14.0790012  91.8534997  87.3209988  13.2080012  91.7384997  86.6409988
  14.3880012  90.7914997  87.4219988  15.1290012  92.7604997  86.5949988
  16.0470012  92.7454997  87.2209988  14.8070012  93.8164997  86.4669988
  15.6210012  92.1704997  85.2449988  15.8560012  91.0884997  85.3349988
  16.6150012  92.6184997  85.0329988  14.7570012  92.5074997  84.0069988
  14.6090012  93.6084997  84.0189988  13.7220012  92.1474997  84.1879988
  15.2930012  92.1124997  82.5609988  15.3240012  91.0024997  82.5449988
  16.3590012  92.4224997  82.5169988  14.4660012  92.5474997  81.3279988
  14.8660012  92.2484997  80.3359988  14.3950012  93.6564997  81.3069988
  13.4550012  92.0894997  81.2739988  57.7680012 124.3594997  81.6439988
  56.6840012 124.2514997  81.4269988  58.2590012 123.3714997  81.7759988
  58.2160012 124.9534997  80.8189988  58.0790012 125.1524997  82.8899988
  59.1680012 125.3434997  82.9999988  57.6920012 126.1744997  82.6929988
  57.4090012 124.5184997  84.1309988  56.3250012 124.7584997  84.1739988
  57.5020012 123.4174997  84.2469988  58.0150012 125.0344997  85.4809988
  59.0180012 124.5904997  85.6549988  58.1450012 126.1354997  85.4179988
  57.1160012 124.6744997  86.6359988  57.6710012 125.0644997  87.5149988
  56.2840012 125.4104997  86.5889988  56.8530012 123.2304997  86.6489988
  56.1440012 122.9964997  85.8269988  57.7470012 122.5754997  86.5739988
  56.1290012 122.8244997  87.9499988  55.2650012 123.5164997  88.0489988
  55.8490012 121.7524997  87.8579988  57.0650012 122.8834997  89.1229988
  57.9520012 122.2314997  88.9709988  57.4580012 123.8954997  89.3589988
  56.5150012 122.2414997  90.4189988  55.9870012 121.2744997  90.2749988
  57.4240012 121.9954997  91.0069988  55.6930012 123.2864997  91.3349988
  56.3930012 124.1314997  91.5079988  54.8450012 123.7844997  90.8189988
  55.2950012 122.6034997  92.6549988  54.5600012 121.7774997  92.5379988
  56.2070012 122.1134997  93.0579988  54.7490012 123.4904997  93.8269988
  55.4190012 124.3744997  93.8929988  53.7340012 123.8354997  93.5379988
  54.7470012 122.7134997  95.1369988  54.2900012 123.4794997  95.7999988
  54.1090012 121.8044997  95.1549988  56.1630012 122.2244997  95.4649988
  56.4110012 121.3434997  94.8359988  56.9590012 122.9804997  95.2929988
  56.2530012 121.7224997  96.9149988  55.9760012 122.5954997  97.5439988
  55.4170012 120.9914997  96.9369988  57.4410012 120.9704997  97.3759988
  58.5260012 120.7884997  96.8499988  56.9900012 120.4234997  98.5299988
  57.9330012 119.7784997  99.3569988  57.3480012 119.0234997  99.9249988
  58.6270012 119.1744997  98.7339988  58.7900012 120.6464997 100.3309988
  59.4520012 119.9844997 100.9279988  57.8590012 121.5334997 101.2229988
  57.1200012 120.8004997 101.6129988  58.3500012 122.0634997 102.0659988
  57.3340012 122.4814997 100.3739988  56.6350012 123.8124997 100.8519988
  57.8050012 124.8014997 100.5089988  57.5590012 126.2014997 100.4579988
  58.1580012 126.6114997  99.6169988  56.5250012 126.5014997 100.1839988
  58.1050012 126.8434997 101.7669988  58.1410012 127.9084997 101.5869988
  57.4050012 126.5214997 102.5249988  59.4540012 126.4724997 102.3159988
  60.4450012 126.3174997 101.2069988  60.1710012 125.4624997 100.6069988
  60.4130012 127.2214997 100.6179988  61.4450012 126.1384997 101.5739988
  59.9500012 127.5584997 103.2819988  59.2400012 127.6824997 104.0859988
  60.8450012 127.1894997 103.7619988  60.2300012 128.4784997 102.7899988
  59.3690012 125.2784997 103.1459988  59.1770012 124.4174997 102.5229988
  58.4540012 125.5204997 103.6659988  60.3070012 125.2404997 103.6799988
  55.4970012 124.0564997  99.9589988  56.3820012 123.7194997 102.3129988
  59.6980012 121.4934997  99.5349988  60.5500012 122.2664997 100.2049988
  60.9140012 122.1054997 101.3789988  61.1150012 123.3214997  99.1889988
  62.1090012 122.9724997  98.8369988  61.2940012 124.2294997  99.8029988
  60.2310012 123.7244997  97.9539988  59.1530012 123.6884997  98.2209988
  60.4100012 123.0714997  97.0729988  60.4330012 125.1794997  97.5069988
  61.5270012 125.3594997  97.5649988  59.9840012 125.8514997  98.2689988
  59.9340012 125.6054997  96.0979988  58.9360012 125.1494997  95.9219988
  60.6350012 125.1774997  95.3489988  59.8630012 127.1814997  95.9999988
  60.9290012 127.4954997  96.0309988  59.3900012 127.6144997  96.9069988
  59.1100012 127.6084997  94.7419988  58.7260012 128.6514997  94.7579988
  58.2480012 126.9214997  94.6069988  59.9460012 127.2854997  93.4249988
  60.5680012 126.3794997  93.5889988  60.7180012 128.0744997  93.2999988
  59.1150012 127.0864997  92.1279988  58.5660012 127.9674997  91.7639988
  59.0530012 125.8764997  91.5389988  58.5190012 125.8804997  90.5779988
  59.7170012 124.5834997  91.8829988  59.0450012 123.7924997  91.4879988
  59.6960012 124.4004997  92.9789988  61.0740012 124.4704997  91.2329988
  61.4270012 123.4494997  91.4929988  61.6860012 125.2164997  91.7839988
  61.2140012 124.6824997  89.7779988  62.2410012 124.6044997  89.3599988
  60.8040012 125.6714997  89.4799988  60.5180012 123.6434997  88.8259988
  59.6320012 124.1064997  88.3409988  60.1200012 122.8084997  89.4409988
  61.4810012 123.0904997  87.8039988  62.2950012 122.5174997  88.2969988
  61.8840012 124.0144997  87.3359988  60.8340012 122.1134997  86.7939988
  59.8870012 122.4864997  86.3489988  60.5640012 121.1674997  87.3109988
  61.6910012 121.7814997  85.6279988  62.5880012 121.2644997  86.0309988
  62.0350012 122.7254997  85.1519988  61.1210012 120.9534997  84.5399988
  61.3640012 119.8764997  84.6629988  61.4710012 121.0994997  83.4949988
  60.0140012 121.0274997  84.4859988 125.1500012  77.5394997  85.0369988
 124.6820012  76.6314997  85.4739988 126.2350012  77.5194997  85.2739988
 125.0850012  77.5394997  83.9279988 124.4980012  78.7844997  85.7059988
 124.9320012  79.6434997  85.1499988 123.3910012  78.7424997  85.6319988
 124.7840012  78.8974997  87.2209988 125.8690012  78.7194997  87.3829988
 124.4450012  79.8534997  87.6729988 123.8090012  77.8534997  87.9019988
 122.9520012  78.4024997  88.3469988 123.5170012  77.0344997  87.2099988
 124.4900012  77.1194997  89.0409988 123.8130012  76.3554997  89.4789988
 125.3540012  76.5434997  88.6449988 125.0740012  77.8854997  90.2219988
 125.3740012  77.2014997  91.0449988 125.9960012  78.4154997  89.8989988
 124.2120012  78.9664997  90.9799988 123.9540012  79.7174997  90.2039988
 123.2590012  78.4654997  91.2549988 124.7820012  79.6144997  92.3049988
 124.1340012  79.3904997  93.1799988 125.6800012  78.9954997  92.5139988
 125.0610012  81.0534997  92.1749988 125.7550012  81.3584997  92.9869988
 125.6460012  81.2964997  91.2629988 123.8410012  81.9814997  92.2359988
 122.9090012  81.7214997  91.6889988 123.7000012  81.9994997  93.3379988
 124.1550012  83.4424997  91.8629988 124.4270012  83.4944997  90.7869988
 123.1700012  83.8964997  92.1059988 125.2150012  84.1894997  92.6619988
 126.2450012  83.8994997  92.3629988 125.0800012  85.2734997  92.4629988
 125.0970012  83.9884997  94.1529988 125.2260012  82.9204997  94.4289988
 125.9930012  84.4954997  94.5719988 123.7590012  84.5154997  94.7629988
 123.7750012  85.6184997  94.6269988 122.8980012  83.9934997  94.2919988
 123.5630012  84.1064997  96.2499988 124.4460012  84.3924997  96.8609988
 122.8410012  84.8074997  96.7209988 123.3480012  82.6064997  96.5009988
 122.8380012  81.8534997  95.6399988 123.8690012  82.2864997  97.6789988
 123.8460012  80.9274997  98.1249988 122.8530012  80.7734997  98.6009988
 123.8910012  80.1814997  97.3029988 124.9420012  80.5044997  99.0559988
 124.8540012  79.4694997  99.4509988 124.9960012  81.4104997 100.3429988
 124.6390012  82.4434997 100.1449988 124.1510012  80.9564997 100.9029988
 126.2760012  81.3934997 100.9659988 126.9650012  80.1354997 101.7219988
 127.1840012  79.0014997 100.6249988 127.9550012  77.8804997 101.0319988
 128.3650012  77.4744997 100.0829988 128.8890012  78.1534997 101.5689988
 127.0830012  76.8844997 101.9209988 127.6550012  76.0224997 102.2309988
 126.7740012  77.3474997 102.8459988 125.7550012  76.2714997 101.3549988
 125.2760012  75.3314997 102.4179988 126.0570012  74.6174997 102.6349988
 125.0140012  75.8674997 103.3179988 124.3170012  74.9544997 102.0959988
 124.6700012  77.2474997 101.0329988 124.0400012  76.7784997 100.2909988
 124.2570012  77.3714997 102.0229988 125.0500012  78.0984997 100.4879988
 126.1290012  75.4804997 100.1069988 125.3050012  74.8424997  99.8249988
 126.9980012  74.8924997 100.3639988 126.3760012  76.0974997  99.2549988
 128.2150012  80.5314997 102.3729988 125.8790012  79.7154997 102.6279988
 126.2150012  80.6054997  98.3319988 126.5220012  79.5044997  97.6659988
 125.7870012  78.5514997  97.5959988 127.9400012  79.8114997  97.0649988
 128.6460012  78.9554997  97.0019988 128.4570012  80.5214997  97.7439988
 127.8560012  80.5454997  95.7009988 127.0500012  81.3044997  95.7929988
 127.4850012  79.9984997  94.8079988 129.1040012  81.2844997  95.2009988
 129.9770012  80.6124997  95.0559988 129.5140012  81.9814997  95.9629988
 128.8490012  82.1794997  93.9779988 128.0240012  82.8974997  94.1759988
 128.5130012  81.6204997  93.0789988 130.1630012  82.9294997  93.4639988
 130.9190012  82.1484997  93.2369988 130.4870012  83.6864997  94.2089988
 129.8880012  83.7634997  92.1769988 130.7530012  84.4364997  91.9969988
 129.0720012  84.4994997  92.3419988 129.4500012  82.9834997  90.8899988
 129.0720012  83.7504997  90.1809988 128.5000012  82.4934997  91.1909988
 130.3760012  82.1094997  90.1599988 131.3040012  82.6604997  89.9459988
 130.2690012  80.8164997  89.8109988 131.1490012  80.4364997  89.2699988
 129.2040012  79.8134997  90.0259988 128.3870012  80.2314997  90.6529988
 129.5610012  78.8684997  90.4879988 128.5270012  79.3434997  88.7379988
 127.8840012  80.1824997  88.3959988 127.9260012  78.4254997  88.9129988
 129.5010012  79.0674997  87.5729988 130.2130012  78.2434997  87.7939988
 130.0250012  80.0054997  87.2899988 128.9040012  78.5164997  86.2749988
 128.4290012  79.2834997  85.6249988 128.0630012  77.8064997  86.4229988
 129.9280012  77.6624997  85.4419988 129.9250012  76.6254997  85.8419988
 130.9560012  78.0684997  85.3319988 129.4380012  77.5424997  83.9419988
 128.3840012  77.1984997  83.8819988 130.0710012  76.8174997  83.3859988
 129.2830012  78.8634997  83.1909988 128.8410012  79.6814997  83.7979988
 128.5320012  78.7654997  82.3769988 130.5060012  79.4174997  82.6759988
 130.3080012  80.4344997  82.2749988 130.9710012  78.7134997  81.9539988
 131.2720012  79.6214997  83.4539988  10.4940012  69.6024997  82.9479988
  11.3930012  68.9504997  82.9349988  10.2730012  69.7604997  81.8709988
   9.6820012  69.0234997  83.4389988  10.6610012  70.9054997  83.6979988
  11.2950012  71.4604997  82.9749988   9.7110012  71.4554997  83.8689988
  11.3600012  70.8604997  85.0919988  10.7640012  70.2054997  85.7629988
  12.3510012  70.3614997  85.1369988  11.6780012  72.2314997  85.7049988
  12.1460012  72.8254997  84.8909988  10.7480012  72.7894997  85.9449988
  12.6320012  72.2464997  86.9219988  13.6320012  71.8544997  86.6379988
  12.8150012  73.3204997  87.1409988  12.0410012  71.6284997  88.2409988
  11.0590012  72.0884997  88.4829988  11.7570012  70.5554997  88.1779988
  12.8430012  71.8754997  89.5349988  13.6900012  71.1564997  89.5199988
  13.3800012  72.8464997  89.4799988  11.9680012  71.8014997  90.7729988
  12.6360012  72.0794997  91.6169988  11.0980012  72.4864997  90.6809988
  11.5870012  70.4444997  91.0749988  10.8750012  69.9684997  90.3679988
  12.5240012  69.8654997  90.9269988  10.9330012  70.3574997  92.4329988
  10.0390012  71.0134997  92.5029988  10.6220012  69.2904997  92.4299988
  11.8980012  70.6554997  93.6449988  12.9070012  70.2034997  93.5369988
  12.0240012  71.7584997  93.6899988  11.3320012  70.2494997  95.0729988
  10.6780012  69.3514997  95.0609988  12.2700012  70.0584997  95.6379988
  10.5590012  71.4344997  95.7459988  11.3220012  72.2304997  95.8779988
   9.7490012  71.7524997  95.0549988   9.8470012  71.2494997  97.1699988
   9.4930012  72.2954997  97.2949988   9.0150012  70.5194997  97.0799988
  10.7410012  70.8374997  98.3509988  11.7280012  71.3264997  98.4979988
  10.2220012  71.2184997  99.2569988  10.8050012  69.3674997  98.4459988
  10.7370012  68.5674997  97.5639988  11.1040012  68.9594997  99.7999988
  11.0100012  67.5934997 100.0649988  10.3060012  67.2934997 100.8709988
  10.4560012  67.0734997  99.2549988  12.3720012  66.9754997 100.4409988
  12.3250012  65.8994997 100.7139988  13.0090012  67.6634997 101.7169988
  12.3230012  67.5804997 102.5869988  13.9760012  67.1844997 101.9839988
  13.1560012  68.9954997 101.3239988  14.2520012  69.9904997 101.8679988
  13.3940012  71.2604997 102.4119988  12.6330012  71.9414997 101.4229988
  12.8680012  71.6064997 100.3899988  11.5630012  71.6774997 101.5649988
  12.8100012  73.5384997 101.3679988  12.1370012  73.9294997 100.6199988
  12.4710012  73.9674997 102.2989988  14.1420012  74.0274997 101.1079988
  15.0940012  73.7114997 102.2289988  15.4350012  72.6864997 102.2109988
  15.8680012  74.4554997 102.1119988  14.5820012  74.0264997 103.1259988
  14.6050012  73.5284997  99.7749988  14.2600012  72.5124997  99.6549988
  14.2620012  74.1224997  98.9399988  15.6670012  73.5754997  99.5799988
  14.1410012  75.5194997 100.9789988  13.4320012  75.8834997 100.2499988
  15.0810012  75.8924997 100.5989988  13.9040012  75.9064997 101.9589988
  14.9770012  69.3174997 102.9919988  15.0210012  70.4464997 100.7029988
  13.3520012  67.0994997  99.4529988  13.2430012  66.5274997  98.2769988
  12.4070012  65.6984997  97.9679988  14.2840012  67.2094997  97.2499988
  15.2560012  67.1074997  97.7779988  14.0840012  68.2984997  97.1589988
  14.2820012  66.6054997  95.8509988  13.3130012  66.8554997  95.3689988
  14.5430012  65.5274997  95.7779988  15.4040012  67.2894997  95.0999988
  16.3490012  67.0594997  95.6379988  15.1560012  68.3704997  95.1589988
  15.4670012  66.8464997  93.6519988  15.8430012  65.8074997  93.5379988
  16.2490012  67.5464997  93.2879988  14.2190012  67.1324997  92.8049988
  13.8930012  68.1834997  92.9609988  13.2970012  66.5304997  92.9489988
  14.5250012  66.7744997  91.2989988  13.6300012  66.4254997  90.7409988
  15.3170012  66.0024997  91.1949988  14.9520012  68.0024997  90.4189988
  14.1580012  68.7764997  90.3479988  15.1590012  67.6024997  89.4029988
  16.1240012  68.8104997  90.9829988  15.9790012  69.2354997  91.9869988
  17.3510012  68.9174997  90.5189988  18.2020012  69.3084997  91.0949988
  17.9130012  68.2624997  89.3179988  17.2050012  67.5574997  88.8319988
  18.7850012  67.6574997  89.6469988  18.4290012  69.3504997  88.2509988
  19.2270012  68.7864997  87.7209988  19.0330012  70.0504997  88.8669988
  17.3830012  70.1244997  87.4719988  17.8990012  70.8794997  86.8399988
  16.7610012  70.6984997  88.1909988  16.4840012  69.2794997  86.4789988
  15.8600012  69.9944997  85.9009988  15.7220012  68.8114997  87.1379988
  17.2140012  68.3294997  85.4979988  17.8770012  67.5934997  85.9999988
  17.6650012  68.9804997  84.7179988  16.1360012  67.4164997  84.9299988
  15.6210012  67.1394997  85.8749988  16.5230012  66.4504997  84.5419988
  14.9620012  67.9704997  84.1029988  15.1830012  67.8884997  83.0169988
  14.8910012  69.0654997  84.2779988  13.5740012  67.2824997  84.3789988
  13.4240012  67.2784997  85.4799988  13.6700012  66.2664997  83.9389988
  12.8100012  67.9204997  83.8869988 118.8980012  98.9144997  83.7559988
 119.9900012  99.1214997  83.7269988 118.5740012  98.7464997  82.7069988
 118.6480012  98.0294997  84.3789988 118.1700012 100.1254997  84.3959988
 118.6650012 100.3344997  85.3679988 118.3440012 101.0234997  83.7659988
 116.6600012  99.8514997  84.8009988 116.1260012  99.5274997  83.8819988
 116.5900012  99.0704997  85.5879988 115.8960012 101.0954997  85.3009988
 116.1590012 101.8844997  84.5649988 114.7870012 101.0434997  85.2639988
 116.3430012 101.6014997  86.7419988 117.4320012 101.8204997  86.7389988
 115.7790012 102.5144997  87.0309988 116.2460012 100.5444997  87.8579988
 115.2480012 100.0574997  87.8199988 116.8830012  99.6824997  87.5649988
 116.8780012 100.8804997  89.1999988 117.9820012 101.0034997  89.1919988
 116.5490012 101.9114997  89.4539988 116.3960012  99.8414997  90.2719988
 116.6780012 100.1664997  91.2959988 115.2940012  99.7904997  90.1359988
 117.0450012  98.3924997  90.1139988 116.8390012  97.9844997  89.1009988
 118.1470012  98.5114997  90.0409988 116.4250012  97.3874997  91.1129988
 116.2030012  97.8404997  92.1029988 115.4550012  96.9964997  90.7399988
 117.3580012  96.1274997  91.2579988 117.9110012  95.8774997  90.3269988
 118.1710012  96.3904997  91.9689988 116.7140012  95.0054997  92.0439988
 115.8350012  94.7154997  91.4299988 117.4120012  94.1454997  91.9499988
 116.3240012  95.3264997  93.4829988 117.2220012  95.5414997  94.0999988
 115.7640012  96.2844997  93.4449988 115.4830012  94.3284997  94.2879988
 114.5770012  94.1074997  93.6839988 116.1330012  93.4274997  94.3169988
 115.0560012  94.7214997  95.7119988 114.8670012  95.8124997  95.6179988
 114.1350012  94.2034997  96.0549988 116.2540012  94.5154997  96.7019988
 117.3360012  93.9374997  96.5489988 115.9610012  95.2364997  97.7769988
 117.0470012  95.5794997  98.6089988 116.6370012  95.7114997  99.6319988
 117.8970012  94.8634997  98.6239988 117.6600012  96.8234997  98.1039988
 118.0560012  96.5454997  97.1039988 118.8780012  97.1854997  98.9879988
 119.5490012  96.3004997  98.9749988 119.4400012  97.9874997  98.4639988
 118.4340012  97.4434997 100.3249988 118.7800012  98.7934997 101.0879988
 117.7250012  98.8094997 102.1849988 116.7520012  97.9194997 102.5689988
 117.1670012  96.8894997 102.5929988 116.4900012  98.1344997 103.6269988
 115.5940012  98.0514997 101.5789988 116.0750012  97.9144997 100.6219988
 114.9850012  97.1804997 101.7679988 114.7660012  99.3564997 101.6649988
 115.7090012 100.5134997 101.3139988 115.1520012 101.4244997 101.4779988
 116.6000012 100.1814997 101.8259988 115.8330012 100.2954997 100.2639988
 113.7150012  99.2334997 100.5619988 114.2380012  99.1794997  99.6189988
 112.9790012  98.4824997 100.8089988 113.2790012 100.2114997 100.4279988
 114.1710012  99.4744997 103.0059988 114.9620012  99.4944997 103.7409988
 113.5350012  98.6274997 103.2159988 113.6400012 100.3894997 103.2239988
 120.1580012  98.6664997 101.7169988 118.4780012  99.9064997 100.1709988
 116.6980012  97.8674997  98.0679988 117.0780012  98.9384997  97.3529988
 118.0930012  99.1394997  96.6819988 115.8690012  99.8494997  97.3019988
 115.9840012 100.8144997  96.7619988 115.6450012 100.0554997  98.3709988
 114.6320012  99.0284997  96.7789988 114.3570012  98.2114997  97.4799988
 114.8710012  98.5204997  95.8199988 113.3470012  99.8484997  96.5459988
 113.4180012 100.6514997  95.7809988 113.1450012 100.3424997  97.5199988
 112.0700012  99.0764997  96.2749988 111.1740012  99.7224997  96.1509988
 111.7690012  98.3394997  97.0499988 112.1640012  98.1104997  95.0309988
 111.2380012  97.4964997  95.0469988 113.0940012  97.5134997  95.1439988
 112.1180012  98.9244997  93.7319988 112.8900012  99.7184997  93.8159988
 111.1300012  99.3844997  93.5179988 112.5170012  97.9334997  92.5629988
 111.7980012  97.0874997  92.5369988 113.5130012  97.5164997  92.8229988
 112.6520012  98.7674997  91.2779988 112.7890012  99.8444997  91.4519988
 112.4890012  98.3534997  90.0209988 112.6720012  99.0774997  89.2129988
 112.1300012  96.9534997  89.5799988 111.1360012  96.9434997  89.0849988
 111.8320012  96.3084997  90.4339988 113.0530012  96.2814997  88.5949988
 112.9310012  95.1804997  88.5009988 114.0950012  96.4764997  88.9249988
 112.8600012  96.7814997  87.1639988 112.9770012  97.8864997  87.1719988
 111.8300012  96.6014997  86.7899988 113.8130012  96.1784997  86.1109988
 113.4710012  96.3854997  85.0739988 113.6650012  95.0824997  86.2189988
 115.3530012  96.4514997  86.2979988 115.4050012  96.5114997  87.4059988
 115.5310012  97.5004997  85.9779988 116.3540012  95.4124997  85.6619988
 116.1250012  95.5224997  84.5809988 116.1450012  94.3404997  85.8679988
 117.7760012  95.7134997  85.9399988 118.1150012  95.4804997  86.9719988
 117.8520012  96.8214997  85.9159988 118.6970012  95.2304997  84.8309988
 118.8040012  94.1244997  84.8299988 119.7480012  95.5454997  85.0029988
 118.3780012  95.5954997  83.8309988 128.0750012  69.6124997  79.6269988
 128.0760012  70.6784997  79.3149988 128.2120012  68.8694997  78.8109988
 128.9100012  69.3964997  80.3269988 126.8850012  69.3224997  80.3919988
 125.9660012  69.6374997  79.8519988 126.6290012  68.2424997  80.4469988
 126.9540012  70.0164997  81.7579988 127.6400012  69.6284997  82.5409988
 127.2280012  71.0884997  81.6529988 125.5290012  70.0484997  82.4079988
 124.9620012  70.7814997  81.7959988 125.0200012  69.0644997  82.3169988
 125.4570012  70.3914997  83.9049988 126.1500012  71.2374997  84.1019988
 124.5230012  70.9554997  84.1119988 125.7560012  69.3754997  84.9359988
 125.0360012  68.5354997  84.8349988 126.7700012  68.9924997  84.6919988
 125.7520012  69.8994997  86.3959988 126.4150012  70.7884997  86.3279988
 124.7430012  70.2764997  86.6679988 126.2160012  68.9544997  87.4839988
 127.1030012  68.3584997  87.1829988 126.6930012  69.5274997  88.3079988
 125.1250012  68.0714997  88.0819988 124.7600012  67.4594997  87.2299988
 125.6700012  67.3744997  88.7549988 123.9960012  68.6894997  88.8039988
 123.1950012  68.9564997  88.0819988 123.5580012  67.8834997  89.4309988
 124.3130012  69.8814997  89.6429988 124.6670012  70.6954997  88.9739988
 123.3860012  70.3234997  90.0679988 125.2260012  69.5524997  90.8089988
 124.9470012  68.5634997  91.2329988 126.3080012  69.3934997  90.6119988
 125.0130012  70.4864997  92.0709988 125.4410012  71.5114997  92.0259988
 123.9070012  70.4984997  92.1659988 125.7330012  69.8494997  93.3569988
 125.2130012  68.9744997  93.8019988 126.6930012  69.4024997  93.0189988
 126.0670012  70.7934997  94.5129988 126.4200012  71.7354997  94.0429988
 125.1560012  70.9204997  95.1359988 127.0430012  70.0574997  95.4179988
 127.0340012  68.8724997  95.6049988 127.9680012  70.9254997  95.7589988
 129.2870012  70.3884997  96.0739988 129.2350012  69.2884997  96.2209988
 129.9980012  70.6414997  95.2579988 129.7060012  70.9764997  97.5269988
 130.7880012  70.7864997  97.6919988 128.8680012  70.2154997  98.6129988
 128.8420012  69.1174997  98.4439988 129.2870012  70.4074997  99.6239988
 127.5670012  70.6254997  98.6749988 126.4710012  69.8234997  99.4069988
 127.2770012  69.5854997 100.7689988 127.4450012  70.6834997 101.6169988
 127.6840012  71.6074997 101.0489988 126.5350012  70.9594997 102.1919988
 128.5500012  70.6414997 102.6479988 129.4630012  70.9634997 102.1689988
 128.4200012  71.4684997 103.3299988 128.7230012  69.3524997 103.4669988
 127.4330012  68.8434997 104.0729988 127.1460012  69.5544997 104.8329988
 126.7210012  68.6314997 103.2899988 127.6520012  67.8954997 104.5419988
 129.0930012  68.2444997 102.5479988 129.9500012  68.5484997 101.9669988
 129.4500012  67.4454997 103.1809988 128.2840012  68.0374997 101.8639988
 129.7890012  69.4644997 104.6099988 129.8580012  68.4384997 104.9389988
 129.4070012  70.0954997 105.3989988 130.7350012  69.8134997 104.2219988
 125.2330012  70.5864997  99.5659988 126.3120012  68.5314997  98.8009988
 129.3770012  72.3894997  97.5289988 130.0920012  73.1594997  96.7059988
 130.9550012  72.8094997  95.9279988 129.5960012  74.6784997  96.9169988
 130.4210012  75.3024997  97.3219988 128.7080012  74.6444997  97.5829988
 129.0580012  75.2474997  95.5449988 129.9110012  75.3054997  94.8349988
 128.5800012  76.2204997  95.7889988 127.8630012  74.3634997  94.9059988
 127.0190012  74.3584997  95.6289988 128.4210012  73.4044997  94.9439988
 127.6140012  74.6474997  93.4459988 127.4050012  75.7314997  93.3179988
 126.6310012  74.1434997  93.3249988 128.5210012  74.0414997  92.3649988
 128.0360012  74.0384997  91.3649988 128.7880012  72.9794997  92.5519988
 129.8230012  74.8174997  92.2259988 130.5110012  74.6314997  93.0779988
 129.6910012  75.9174997  92.3099988 130.5810012  74.4654997  90.9899988
 131.5340012  74.9934997  91.2059988 130.3040012  75.0924997  90.1159988
 130.8220012  73.0354997  90.6409988 131.5540012  72.4454997  91.2119988
 130.2410012  72.3214997  89.6149988 130.5040012  71.2594997  89.4999988
 129.2510012  72.6984997  88.5529988 128.5270012  73.3754997  89.0549988
 128.7880012  71.7204997  88.3009988 129.6990012  73.3724997  87.2179988
 130.2010012  74.2734997  87.6299988 128.6870012  73.6364997  86.8439988
 130.5360012  72.7074997  86.1609988 131.5900012  72.6664997  86.5079988
 130.5130012  73.4324997  85.3189988 129.9230012  71.4194997  85.7579988
 128.8660012  71.6544997  85.5089988 129.7530012  70.7624997  86.6369988
 130.5480012  70.5474997  84.7089988 130.8560012  71.2244997  83.8829988
 129.7930012  69.8984997  84.2159988 131.8560012  69.7944997  85.2989988
 131.5720012  68.8824997  85.8649988 132.4420012  70.5264997  85.8949988
 132.8370012  69.3394997  84.1709988 133.1600012  70.1454997  83.4769988
 132.1520012  68.7204997  83.5529988 134.0170012  68.4734997  84.5549988
 134.8130012  68.3714997  83.7869988 133.6790012  67.4444997  84.8019988
 134.5350012  68.8644997  85.4569988  69.1190012  20.5674997  82.1389988
  68.6690012  21.2094997  81.3519988  69.9090012  21.2284997  82.5569988
  68.4010012  20.4124997  82.9729988  69.6430012  19.2484997  81.6059988
  68.7900012  18.6954997  81.1569988  70.3970012  19.2814997  80.7909988
  70.1100012  18.2984997  82.7079988  71.1810012  18.4874997  82.9339988
  69.5750012  18.3744997  83.6789988  69.9650012  16.8014997  82.0639988
  68.9020012  16.5904997  81.8189988  70.5020012  16.7084997  81.0949988
  70.6490012  15.7074997  82.8609988  70.5480012  14.7554997  82.2969988
  71.7200012  15.9974997  82.9009988  70.0120012  15.4804997  84.2039988
  69.9180012  16.4544997  84.7309988  69.0400012  14.9444997  84.1549988
  70.9530012  14.8054997  85.1479988  70.9090012  13.7514997  84.7999988
  71.9710012  15.2114997  84.9699988  70.5820012  14.6114997  86.5819988
  69.4770012  14.5134997  86.6369988  71.0110012  13.6494997  86.9369988
  71.0710012  15.7364997  87.4879988  72.1430012  15.6444997  87.7659988
  71.0340012  16.7344997  87.0009988  70.2280012  15.7204997  88.8779988
  69.1410012  15.6814997  88.6479988  70.5430012  14.8474997  89.4869988
  70.5350012  16.9294997  89.6769988  71.6360012  17.0804997  89.6699988
  69.9810012  17.7654997  89.1999988  69.9780012  16.8454997  91.1299988
  69.4640012  15.8624997  91.1859988  70.8110012  16.7304997  91.8559988
  69.1540012  18.1034997  91.6089988  69.7520012  18.9744997  91.2669988
  68.1930012  18.1674997  91.0559988  68.9320012  18.2334997  93.0909988
  68.1210012  18.9484997  93.3459988  68.5630012  17.2904997  93.5489988
  70.1790012  18.5174997  93.9439988  70.7540012  17.5684997  93.8959988
  70.6400012  19.3604997  93.3859988  69.7670012  18.8784997  95.3559988
  68.8480012  18.4314997  95.9939988  70.8070012  19.5734997  95.8309988
  70.7960012  20.0094997  97.2019988  71.1560012  21.0594997  97.2519988
  69.7790012  19.9254997  97.6409988  71.7280012  19.1684997  98.0649988
  71.2290012  18.2564997  98.4569988  72.2970012  20.0004997  99.2229988
  72.6500012  21.0074997  98.9139988  71.4680012  20.1034997  99.9559988
  73.4400012  19.3824997  99.7539988  73.6250012  18.5124997 101.0309988
  72.3590012  17.5514997 100.8679988  72.3980012  16.2254997 101.4729988
  72.4210012  15.5014997 100.6299988  73.3540012  16.0104997 101.9969988
  71.1870012  15.8564997 102.4519988  71.2270012  14.8204997 102.7549988
  71.4240012  16.5034997 103.2839988  69.7810012  16.1964997 102.0029988
  69.5970012  15.6114997 100.6199988  70.2280012  14.7374997 100.6809988
  68.5730012  15.5034997 100.2939988  69.9670012  16.2824997  99.8589988
  68.7850012  15.4984997 102.9549988  68.8700012  14.4234997 102.9029988
  68.9160012  15.9294997 103.9369988  67.7800012  15.7534997 102.6509988
  69.5250012  17.7094997 102.0159988  69.2990012  17.9994997 103.0309988
  68.6470012  18.0034997 101.4599988  70.3540012  18.1964997 101.5229988
  74.8690012  17.7254997 100.7979988  73.4940012  19.4374997 102.2109988
  72.7800012  18.7424997  97.1869988  73.2260012  17.5144997  97.1029988
  72.8310012  16.5914997  97.8279988  74.4030012  17.4054997  96.0419988
  73.9870012  16.8324997  95.1849988  75.2370012  16.8174997  96.4809988
  74.8740012  18.7914997  95.5389988  75.3620012  19.3004997  96.3979988
  74.0610012  19.4544997  95.1729988  75.8370012  18.7024997  94.3679988
  75.4250012  17.9664997  93.6459988  76.8350012  18.4084997  94.7579988
  76.2440012  19.9844997  93.7149988  77.2890012  19.9724997  93.3369988
  76.1440012  20.7534997  94.5109988  75.3040012  20.4014997  92.5849988
  75.3160012  21.5024997  92.4379988  74.2450012  20.3774997  92.9209988
  75.4430012  19.5804997  91.3499988  75.1930012  18.5084997  91.4959988
  76.4940012  19.5964997  90.9909988  74.5340012  20.1224997  90.1619988
  74.8230012  19.4434997  89.3309988  74.8420012  21.1284997  89.8039988
  73.0720012  19.9104997  90.2859988  72.8700012  19.2724997  91.1589988
  72.1230012  20.3254997  89.5199988  71.1190012  19.9664997  89.7879988
  72.1790012  21.1654997  88.2629988  72.6660012  22.1484997  88.4349988
  71.1120012  21.4314997  88.1019988  72.7110012  20.5584997  86.9929988
  73.7870012  20.3374997  87.1619988  72.5880012  21.2364997  86.1219988
  72.0630012  19.2174997  86.5469988  71.0050012  19.3634997  86.2419988
  72.0500012  18.6314997  87.4899988  72.7230012  18.4374997  85.3989988
  72.6460012  19.0384997  84.4679988  71.9900012  17.6584997  85.1019988
  74.0770012  17.9084997  85.7089988  74.0500012  17.0834997  86.4519988
  74.7750012  18.6714997  86.1159988  74.8210012  17.2974997  84.5149988
  75.4550012  18.1744997  84.2639988  74.0750012  17.2694997  83.6919988
  75.7360012  16.0424997  84.5789988  76.5440012  16.2174997  85.3209988
  76.3960012  16.1274997  83.6889988  75.0930012  14.6764997  84.7389988
  74.2770012  14.4644997  84.0149988  74.4180012  14.5444997  85.6109988
  75.7720012  13.7964997  84.7519988 107.5670012  29.5844997  83.7489988
 106.7290012  28.9154997  83.4589988 108.4970012  29.0794997  83.4109988
 107.4920012  30.5564997  83.2149988 107.5670012  29.7584997  85.2349988
 106.6430012  30.2514997  85.6059988 107.5390012  28.7864997  85.7719988
 108.8280012  30.6094997  85.7199988 109.6680012  29.9584997  85.3929988
 109.0580012  31.5784997  85.2259988 109.0300012  30.8194997  87.1519988
 108.1860012  31.4444997  87.5149988 108.8320012  29.8694997  87.6929988
 110.3720012  31.4164997  87.6059988 111.1550012  30.8034997  87.1109988
 110.5280012  32.4454997  87.2149988 110.4740012  31.3684997  89.1429988
 110.2080012  30.3924997  89.6009988 111.5350012  31.6154997  89.3619988
 109.7280012  32.5414997  89.9289988 110.2510012  33.4794997  89.6459988
 108.6690012  32.4814997  89.5999988 109.7370012  32.1094997  91.3819988
 109.0260012  32.6674997  92.0279988 109.4050012  31.0504997  91.4219988
 111.0650012  32.2204997  92.1219988 111.9520012  32.0614997  91.4719988
 111.2190012  33.2424997  92.5319988 111.2210012  31.3544997  93.3859988
 110.9230012  30.2894997  93.2739988 112.2960012  31.4204997  93.6599988
 110.4260012  31.9174997  94.5579988 109.3620012  31.7954997  94.2619988
 110.5610012  31.2624997  95.4449988 110.7750012  33.2564997  95.1209988
 111.8660012  33.3694997  95.2939988 110.5020012  34.1244997  94.4839988
 110.0060012  33.6024997  96.5019988 110.0720012  32.8744997  97.3379988
 110.4380012  34.5424997  96.9079988 108.5030012  33.6044997  96.4009988
 108.1630012  34.1464997  95.4929988 108.1830012  32.5464997  96.2889988
 107.6900012  34.2434997  97.5109988 108.0740012  33.8344997  98.4699988
 107.9140012  35.3284997  97.4229988 106.2110012  33.8874997  97.3979988
 105.4060012  34.3064997  96.5849988 105.9660012  32.9174997  98.2209988
 104.5710012  32.7094997  98.4089988 104.1490012  33.5634997  98.9809988
 103.9430012  32.5114997  97.5149988 104.4470012  31.4244997  99.3269988
 103.3690012  31.1564997  99.3299988 104.8770012  31.6604997 100.8139988
 104.5840012  32.6754997 101.1589988 104.3410012  31.0614997 101.5819988
 106.2470012  31.4044997 101.0649988 107.1620012  32.2964997 101.9759988
 108.4620012  31.4324997 102.1009988 108.3910012  29.9784997 102.2109988
 108.5900012  29.6924997 103.2659988 107.3500012  29.5924997 102.1969988
 109.2400012  29.2154997 101.1859988 109.2940012  28.1814997 101.4929988
 108.6420012  29.3124997 100.2929988 110.5520012  29.6714997 100.8379988
 110.4780012  31.0094997 100.1079988 110.1210012  31.8624997 100.6669988
 111.4610012  31.3424997  99.8099988 109.9240012  30.7494997  99.2179988
 111.3140012  29.9044997 102.1149988 110.8950012  30.7624997 102.6189988
 111.2040012  29.0254997 102.7339988 112.3300012  30.1754997 101.8679988
 111.2700012  28.7044997  99.9279988 110.7630012  28.6584997  98.9749988
 111.3910012  27.7274997 100.3739988 112.2610012  28.9904997  99.6099988
 107.4580012  33.6474997 101.4039988 106.5080012  32.4244997 103.2479988
 105.2640012  30.3824997  98.7609988 105.1210012  29.2364997  99.3399988
 104.4030012  28.9024997 100.2679988 105.9870012  28.1444997  98.7289988
 105.5370012  27.1484997  98.9299988 106.9790012  28.0194997  99.2139988
 106.2380012  28.2654997  97.2019988 105.2920012  28.7224997  96.8419988
 106.3760012  27.2104997  96.8839988 107.4420012  29.0864997  96.8799988
 108.3850012  28.5294997  97.0639988 107.4610012  30.0094997  97.4989988
 107.4440012  29.4914997  95.3979988 107.4800012  28.5394997  94.8259988
 108.3100012  30.1504997  95.1759988 106.3290012  30.5124997  95.1169988
 106.2600012  31.2034997  95.9839988 105.3710012  29.9614997  95.0069988
 106.4500012  31.3814997  93.8429988 107.0480012  32.2854997  94.0859988
 105.4320012  31.8074997  93.7139988 106.9760012  30.5904997  92.5549988
 107.9240012  30.0614997  92.7919988 107.0740012  31.4594997  91.8699988
 105.9780012  29.5894997  92.0869988 105.6820012  28.8254997  92.8209988
 105.4350012  29.5504997  90.8539988 104.7430012  28.7784997  90.4869988
 105.6410012  30.4504997  89.6539988 106.3670012  29.8974997  89.0199988
 106.0600012  31.4054997  90.0359988 104.4430012  30.7064997  88.7219988
 103.5740012  31.1384997  89.2619988 104.0450012  29.7414997  88.3429988
 104.7470012  31.5274997  87.4949988 104.1050012  31.2174997  86.6419988
 105.8330012  31.5394997  87.2629988 104.6100012  33.0954997  87.5949988
 105.3380012  33.3864997  88.3819988 103.5850012  33.4064997  87.8909988
 104.9300012  33.7074997  86.2759988 104.8160012  34.7954997  86.4699988
 104.2130012  33.4284997  85.4749988 106.4380012  33.5844997  85.8989988
 106.5600012  32.5144997  85.6259988 106.8750012  33.8304997  86.8909988
 107.0390012  34.5894997  85.0479988 108.1190012  34.5824997  85.3089988
 106.6820012  35.6174997  85.2689988 106.8450012  34.4764997  83.5569988
 107.6200012  35.0564997  83.0109988 105.8130012  34.8764997  83.4699988
 106.7980012  33.4544997  83.1229988  14.3410012 101.5494997  79.7239988
  14.8460012 102.0654997  80.5679988  14.1580012 102.1284997  78.7929988
  15.1120012 100.7824997  79.4979988  13.0600012 100.8484997  80.1819988
  12.3780012 101.6514997  80.5319988  12.6770012 100.2534997  79.3259988
  13.3620012  99.7814997  81.2769988  14.0850012  99.0094997  80.9379988
  13.8440012 100.2764997  82.1469988  12.0630012  99.0784997  81.8239988
  11.5260012  98.6094997  80.9719988  12.4210012  98.2144997  82.4239988
  11.2530012 100.0414997  82.6549988  10.9330012 100.8884997  82.0109988
  10.3450012  99.5434997  83.0559988  12.0040012 100.7264997  83.8749988
  12.8400012 101.3434997  83.4819988  11.2990012 101.3994997  84.4079988
  12.4920012  99.6794997  84.8369988  13.2100012  98.9524997  84.3999988
  13.2560012 100.0424997  85.5559988  11.4000012  98.9394997  85.5209988
  10.8730012  99.7634997  86.0469988  10.6480012  98.4964997  84.8329988
  11.6640012  97.8354997  86.5789988  10.7350012  97.3584997  86.9589988
  12.1100012  96.9534997  86.0709988  12.5980012  98.2224997  87.7469988
  13.6320012  98.2514997  87.3419988  12.4310012  99.2224997  88.2009988
  12.4750012  97.2364997  88.9159988  11.3890012  97.2584997  89.1519988
  12.7710012  96.2384997  88.5269988  13.3310012  97.6254997  90.1209988
  13.1520012  96.7194997  90.7369988  14.4110012  97.7574997  89.8959988
  12.8250012  98.8934997  90.9299988  12.8130012  99.7754997  90.2549988
  11.8080012  98.6314997  91.2929988  13.6650012  99.2764997  92.1789988
  14.7270012  99.4914997  91.9309988  13.2790012 100.2394997  92.5749988
  13.5560012  98.2234997  93.2629988  12.4900012  97.9494997  93.4139988
  13.9180012  97.1934997  93.0539988  14.0790012  98.7764997  94.6199988
  14.1850012  99.9764997  94.8369988  14.2070012  97.8414997  95.5549988
  14.4630012  98.4744997  96.8369988  15.3910012  99.0834997  96.8729988
  13.5900012  99.1314997  97.0399988  14.4580012  97.3654997  97.9569988
  13.4370012  96.9484997  98.0849988  14.8390012  98.0884997  99.2799988
  15.8370012  98.5344997  99.0839988  14.2150012  98.9554997  99.5869988
  14.9420012  97.1494997 100.3789988  13.9290012  96.9864997 101.5819988
  12.5450012  97.0744997 100.7639988  11.3730012  96.5624997 101.5049988
  11.0920012  95.5274997 101.2169988  11.5810012  96.4784997 102.5929988
  10.0700012  97.3634997 101.2949988   9.7760012  97.2414997 100.2629988
   9.2680012  97.0034997 101.9219988  10.2420012  98.9574997 101.4259988
  10.9560012  99.2064997 102.6609988  11.7370012  98.5164997 102.9459988
  11.3700012 100.2034997 102.6919988  10.2100012  99.0714997 103.4289988
  10.9920012  99.4384997 100.2799988  11.7860012  98.7324997 100.0849988
  10.3210012  99.4694997  99.4349988  11.2890012 100.4184997 100.6239988
   8.9080012  99.6234997 101.5299988   8.2710012  99.1454997 102.2599988
   8.2990012  99.5244997 100.6429988   9.0190012 100.6974997 101.5429988
  14.0160012  95.6794997 102.3199988  14.0570012  98.2354997 102.4389988
  15.3550012  96.3074997  97.5319988  15.1760012  95.0954997  98.0119988
  14.3750012  94.7514997  98.8589988  16.1670012  94.1784997  97.2199988
  16.7750012  93.7584997  98.0489988  16.7550012  94.7384997  96.4609988
  15.3740012  93.0994997  96.3649988  14.8590012  92.3884997  97.0449988
  16.1020012  92.4344997  95.8539988  14.4430012  93.8284997  95.2929988
  15.0130012  94.5054997  94.6209988  13.7250012  94.4824997  95.8329988
  13.6960012  92.8584997  94.4589988  13.0570012  92.1994997  95.0849988
  14.4000012  92.1174997  94.0229988  12.8460012  93.4324997  93.3399988
  12.1190012  94.1724997  93.7389988  12.3150012  92.5704997  92.8819988
  13.6210012  94.1644997  92.1769988  14.1220012  95.0604997  92.6009988
  12.8520012  94.5444997  91.4709988  14.5910012  93.2814997  91.2969988
  14.1210012  92.2914997  91.1119988  15.3810012  93.1234997  92.0609988
  15.1470012  93.9954997  90.1089988  16.1820012  94.3004997  90.3209988
  14.5910012  94.0494997  88.8539988  15.1990012  94.4224997  88.0159988
  13.3880012  93.4554997  88.3039988  12.5740012  94.2074997  88.3689988
  12.9820012  92.6784997  88.9849988  13.4880012  92.8834997  86.8899988
  12.5090012  92.4384997  86.6109988  14.1310012  91.9774997  86.9049988
  13.6750012  93.9044997  85.8049988  14.7430012  94.2044997  85.7479988
  13.1720012  94.8144997  86.1969988  13.1970012  93.5344997  84.3849988
  12.2290012  92.9954997  84.4739988  14.0040012  92.9954997  83.8439988
  12.9870012  94.7714997  83.5669988  13.8130012  95.5054997  83.4509988
  12.1480012  95.2254997  84.1369988  12.4330012  94.3974997  82.1679988
  11.6610012  93.6224997  82.3639988  13.2680012  93.9534997  81.5859988
  11.9230012  95.5754997  81.4049988  12.8150012  96.2104997  81.2179988
  11.2660012  96.1354997  82.1059988  11.3080012  95.3874997  80.0339988
  10.6940012  94.4614997  80.0459988  12.1080012  95.2314997  79.2789988
  10.7500012  96.3284997  79.8439988 124.5670012  48.6354997  85.1959988
 125.1220012  47.7414997  85.5539988 124.8850012  49.6104997  85.6219988
 124.8290012  48.7774997  84.1249988 123.0600012  48.4024997  85.3259988
 122.4200012  49.2074997  84.9079988 122.8370012  47.4394997  84.8179988
 122.5110012  48.1294997  86.6709988 122.7030012  48.9834997  87.3539988
 121.4050012  48.0364997  86.6189988 123.0570012  46.8324997  87.3529988
 122.7580012  45.9224997  86.7889988 124.1670012  46.8654997  87.3139988
 122.6560012  46.5504997  88.8669988 123.3310012  47.0884997  89.5659988
 121.6360012  46.9584997  89.0329988 122.7040012  45.0184997  89.2689988
 122.0060012  44.5364997  88.5509988 123.6960012  44.5224997  89.2079988
 122.1310012  44.6804997  90.6129988 121.2850012  45.3994997  90.6619988
 121.6280012  43.6904997  90.6339988 123.1050012  44.9424997  91.7409988
 123.9700012  44.2664997  91.5729988 123.3350012  46.0294997  91.7559988
 122.4330012  44.6624997  93.0899988 121.4140012  45.1064997  93.0709988
 122.4380012  43.5724997  93.3039988 123.0870012  45.4304997  94.3039988
 122.8410012  46.5014997  94.1389988 122.6710012  45.0544997  95.2629988
 124.5660012  45.1194997  94.3589988 124.6590012  44.0374997  94.1259988
 125.1490012  45.5544997  93.5189988 125.1800012  45.4584997  95.7419988
 125.1510012  46.5684997  95.7399988 124.5860012  45.1604997  96.6319988
 126.6080012  44.9074997  95.9499988 126.4160012  43.8244997  96.1009988
 127.2100012  44.9644997  95.0179988 127.3960012  45.6604997  97.0049988
 128.2830012  45.0354997  97.2459988 127.7610012  46.6124997  96.5659988
 126.5750012  46.0264997  98.2939988 125.7980012  46.7584997  97.9869988
 126.1050012  45.0984997  98.6849988 127.5550012  46.5094997  99.4039988
 128.7800012  46.3374997  99.3979988 126.8820012  47.1164997 100.3629988
 127.6930012  47.7494997 101.3349988 127.4190012  47.4004997 102.3539988
 128.7730012  47.5464997 101.1739988 127.4780012  49.2614997 101.3099988
 128.3160012  49.7484997 101.8529988 126.0380012  49.5574997 101.8669988
 126.0270012  49.0534997 102.8569988 125.9160012  50.6464997 102.0509988
 125.0520012  49.1824997 100.8939988 123.5600012  49.4084997 101.3209988
 123.0150012  48.0084997 101.6639988 122.6920012  47.0354997 100.5879988
 121.7790012  46.4494997 100.8299988 122.4930012  47.4944997  99.5959988
 123.6900012  45.8654997 100.6079988 123.6340012  45.3674997  99.6519988
 124.7050012  46.2334997 100.6219988 123.7450012  44.8624997 101.7949988
 124.6970012  43.7324997 101.5009988 124.8110012  42.8794997 102.1529988
 124.3560012  43.3074997 100.5689988 125.6630012  44.2024997 101.3879988
 124.4260012  45.5894997 103.0059988 124.4340012  44.9344997 103.8649988
 125.4700012  45.7134997 102.7629988 124.0640012  46.6024997 103.1019988
 122.3770012  44.3364997 102.1249988 121.6380012  45.1024997 101.9409988
 122.2920012  43.8574997 103.0889988 122.1990012  43.5874997 101.3679988
 123.4010012  50.2524997 102.5029988 122.7370012  49.8784997 100.1779988
 127.5500012  49.7574997  99.9559988 127.4740012  51.0634997  99.7739988
 127.6540012  51.9464997 100.6339988 127.2730012  51.4244997  98.2959988
 128.2170012  51.0944997  97.8129988 127.2530012  52.5354997  98.2959988
 126.0090012  50.6424997  97.9309988 125.1890012  50.8994997  98.6349988
 126.2880012  49.5864997  98.1349988 125.5890012  50.7574997  96.4779988
 125.7400012  51.8024997  96.1319988 124.4850012  50.6874997  96.5809988
 126.1960012  49.8064997  95.5079988 125.9700012  48.8134997  95.9509988
 127.2990012  49.9204997  95.5849988 125.8070012  49.9014997  94.0709988
 126.2940012  48.9964997  93.6469988 126.3490012  50.7554997  93.6089988
 124.3440012  49.9884997  93.8329988 123.8420012  50.9704997  93.9739988
 123.8790012  49.3434997  94.6089988 123.8690012  49.2784997  92.4989988
 122.9180012  48.7354997  92.6889988 124.5510012  48.4594997  92.1879988
 123.6660012  50.3384997  91.4339988 122.8850012  51.0384997  91.7649988
 124.2370012  50.4464997  90.2699988 124.0130012  51.3584997  89.6969988
 125.2800012  49.4444997  89.7939988 125.3130012  49.3694997  88.6859988
 125.1550012  48.4124997  90.1869988 126.6830012  49.9104997  90.1439988
 126.9570012  50.0324997  91.2129988 126.9520012  50.9034997  89.7269988
 127.7690012  48.9144997  89.5659988 128.7320012  49.3304997  89.9309988
 127.7440012  49.1204997  88.4749988 127.6090012  47.4194997  89.9169988
 126.6700012  47.0564997  89.4469988 127.4580012  47.4164997  91.0179988
 128.9220012  46.6924997  89.4979988 128.8450012  45.6024997  89.6999988
 129.7260012  47.1564997  90.1079988 129.3530012  46.9344997  88.0389988
 129.6250012  47.9954997  87.8509988 128.5110012  46.7754997  87.3309988
 130.5300012  46.0674997  87.5439988 130.1650012  45.0214997  87.4619988
 131.3770012  46.2224997  88.2469988 131.1330012  46.3964997  86.1719988
 131.5960012  47.3754997  85.9229988 130.1970012  46.3644997  85.5749988
 131.7810012  45.6414997  85.6769988  72.0700012 125.4284997  79.4809988
  71.0810012 125.7964997  79.8269988  72.1160012 125.1834997  78.3989988
  72.7770012 126.2844997  79.5319988  72.4310012 124.1304997  80.1939988
  71.6730012 123.4074997  79.8239988  73.4210012 123.6704997  79.9859988
  72.2350012 124.3424997  81.7019988  72.8210012 125.2094997  82.0739988
  71.1870012 124.5864997  81.9809988  72.6700012 123.1184997  82.4549988
  72.2220012 122.1894997  82.0419988  73.7810012 123.0844997  82.4399988
  72.2750012 123.2124997  83.9189988  72.6290012 124.1574997  84.3829988
  71.1970012 123.3094997  84.1699988  72.7220012 122.0084997  84.7709988
  72.0930012 121.8014997  85.6629988  72.6150012 121.1354997  84.0929988
  74.1450012 121.9334997  85.1959988  74.3760012 120.8484997  85.1229988
  74.8790012 122.4554997  84.5449988  74.4110012 122.3254997  86.6389988
  75.4970012 122.1574997  86.7979988  74.1370012 123.3784997  86.8619988
  73.6720012 121.5054997  87.7339988  72.5720012 121.5074997  87.5799988
  74.0690012 120.4674997  87.7629988  74.0490012 121.9654997  89.0999988
  75.1390012 122.0624997  89.2959988  73.6160012 122.9804997  89.2239988
  73.3560012 121.2504997  90.2979988  72.4150012 120.8694997  89.8489988
  73.9460012 120.3344997  90.5149988  73.0270012 121.9014997  91.6999988
  72.9530012 121.1084997  92.4739988  73.9300012 122.5234997  91.8749988
  71.7720012 122.8184997  91.8169988  71.9240012 123.6544997  91.1009988
  70.9300012 122.1634997  91.5069988  71.6070012 123.3764997  93.2439988
  71.6680012 122.5284997  93.9589988  72.5810012 123.8584997  93.4739988
  70.4020012 124.3504997  93.3959988  70.3440012 124.8604997  92.4109988
  69.5540012 123.6394997  93.4929988  70.5360012 125.1704997  94.7209988
  70.4730012 126.3964997  94.7139988  70.7020012 124.3674997  95.7569988
  70.7290012 124.9984997  97.0649988  71.1600012 126.0164997  96.9509988
  69.6960012 125.0624997  97.4689988  71.4870012 124.2004997  98.1519988
  71.0240012 123.1934997  98.2289988  71.1760012 124.8324997  99.5719988
  70.0910012 125.0694997  99.6039988  71.4030012 124.1934997 100.4519988
  71.9640012 126.0284997  99.7789988  71.7310012 126.7964997 101.1399988
  73.0910012 126.5694997 101.8919988  74.2770012 126.3954997 101.2459988
  74.2450012 127.0184997 100.3269988  75.0660012 126.7424997 101.9469988
  74.4820012 124.9164997 100.8139988  73.8410012 124.5724997 100.0159988
  75.3710012 124.8824997 100.2009988  74.7310012 123.7924997 101.8319988
  73.4470012 123.6704997 102.7379988  73.3380012 124.5484997 103.3569988
  72.6440012 123.4694997 102.0439988  73.7240012 122.8314997 103.3589988
  75.0860012 122.4834997 101.1789988  75.4540012 121.8064997 101.9359988
  74.2350012 122.0554997 100.6689988  75.9430012 122.6874997 100.5539988
  75.8460012 124.1474997 102.8719988  76.8420012 124.1214997 102.4559988
  75.7160012 123.5334997 103.7509988  75.6200012 125.1384997 103.2349988
  71.6470012 128.2524997 100.8099988  70.6000012 126.2194997 101.8779988
  72.8700012 124.2524997  97.9219988  73.4390012 123.4524997  97.0459988
  72.8940012 122.5604997  96.4659988  74.8650012 124.0134997  96.7769988
  75.5010012 123.9334997  97.6849988  74.6970012 125.0994997  96.6199988
  75.4350012 123.4284997  95.5619988  74.8130012 123.7704997  94.7069988
  75.3560012 122.3204997  95.5489988  76.9000012 123.8474997  95.4629988
  77.4360012 123.4484997  96.3509988  76.9470012 124.9564997  95.5139988
  77.6280012 123.2544997  94.3119988  77.3510012 122.1874997  94.1689988
  78.7300012 123.3674997  94.3879988  77.2250012 123.8914997  92.9779988
  77.3060012 124.9944997  93.0809988  76.2440012 123.4564997  92.6909988
  78.1770012 123.4564997  91.7779988  78.0220012 122.3574997  91.7359988
  79.2360012 123.6624997  92.0419988  77.8390012 124.1444997  90.4769988
  76.7380012 124.1004997  90.3329988  78.3160012 123.5824997  89.6469988
  78.2520012 125.6474997  90.4249988  79.1700012 126.0184997  90.9039988
  77.6200012 126.6884997  89.8739988  78.2100012 127.6144997  89.9389988
  76.2900012 126.5954997  89.2039988  75.3590012 126.7964997  89.7749988
  76.0670012 125.5744997  88.8269988  76.2900012 127.3634997  87.9469988
  77.2050012 127.0824997  87.3829988  76.4870012 128.4094997  88.2649988
  75.1130012 127.0394997  87.0499988  74.9410012 125.9434997  87.0009988
  75.4690012 127.3314997  86.0379988  73.7110012 127.5524997  87.6129988
  73.8340012 128.6554997  87.6639988  73.6200012 127.0424997  88.5959988
  72.5230012 127.1244997  86.7729988  71.5970012 127.2064997  87.3819988
  72.6020012 126.0404997  86.5439988  72.2130012 127.8974997  85.4599988
  73.1510012 128.1764997  84.9339988  71.7020012 128.8584997  85.6859988
  71.2520012 127.2294997  84.5259988  70.2820012 127.6354997  84.8819988
  71.4060012 126.1304997  84.5839988  71.4600012 127.7024997  83.1159988
  71.4170012 128.8124997  83.0919988  70.6860012 127.2264997  82.4769988
  72.4560012 127.4024997  82.7249988  93.5150012  22.0854997  79.6719988
  94.3500012  22.7164997  80.0449988  93.2720012  22.3414997  78.6189988
  93.9840012  21.0844997  79.7839988  92.3360012  22.1684997  80.7019988
  91.6410012  23.0034997  80.4729988  91.7850012  21.2084997  80.6039988
  92.6970012  22.4294997  82.1709988  93.5740012  21.7834997  82.3909988
  93.0760012  23.4724997  82.2179988  91.4200012  22.2564997  83.0829988
  90.7930012  23.1274997  82.7919988  90.9360012  21.2714997  82.9099988
  91.6700012  22.2464997  84.6079988  92.0590012  23.2144997  84.9909988
  90.6880012  22.1404997  85.1159988  92.7510012  21.2634997  84.9969988
  92.4060012  20.2374997  84.7489988  93.6530012  21.5344997  84.4069988
  93.2050012  21.2874997  86.4779988  93.9400012  20.4724997  86.6499988
  93.6740012  22.2884997  86.5879988  92.0920012  21.0494997  87.4389988
  91.3360012  21.8384997  87.2349988  91.7930012  19.9804997  87.4159988
  92.5840012  21.2464997  88.9259988  93.3490012  20.4744997  89.1559988
  92.9860012  22.2804997  88.9839988  91.5350012  21.2544997  90.1169988
  90.8920012  22.1484997  89.9709988  90.9310012  20.3294997  89.9959988
  92.1240012  20.9124997  91.5529988  92.6590012  21.8324997  91.8749988
  91.2170012  20.8714997  92.1919988  92.9570012  19.7274997  91.6969988
  92.5140012  18.7644997  91.3639988  93.9110012  19.8324997  91.1389988
  93.3220012  19.4764997  93.1529988  93.8310012  20.3654997  93.5839988
  92.3580012  19.4194997  93.7019988  94.1860012  18.2464997  93.3929988
  93.5240012  17.3804997  93.1769988  95.0010012  18.2114997  92.6389988
  94.7220012  17.8944997  94.8049988  94.0190012  18.0394997  95.6529988
  95.1020012  16.8534997  94.8849988  95.9210012  18.7384997  95.0489988
  96.9610012  18.8254997  94.4049988  95.6810012  19.4964997  96.2629988
  96.6180012  20.4574997  96.7019988  97.4260012  19.8854997  97.2079988
  97.1360012  20.9194997  95.8339988  96.0380012  21.5964997  97.5949988
  96.8760012  22.1294997  98.0919988  95.1650012  20.9264997  98.7209988
  94.2400012  20.4264997  98.3609988  95.7350012  20.0984997  99.1949988
  94.9570012  21.7714997  99.8149988  93.7510012  22.7414997  99.6659988
  93.0190012  22.8164997 101.0949988  93.8680012  22.9654997 102.2359988
  94.5970012  23.8014997 102.1759988  93.2470012  23.3434997 103.0759988
  94.5340012  21.6834997 102.7279988  95.1910012  21.3554997 101.9359988
  95.0950012  22.0244997 103.5849988  93.6950012  20.5594997 103.1099988
  92.7370012  21.1024997 104.1349988  93.2330012  21.1544997 105.0929988
  92.3550012  22.0734997 103.8579988  91.9360012  20.3794997 104.1669988
  92.8690012  20.0814997 101.9039988  93.3830012  20.0554997 100.9549988
  92.5710012  19.0744997 102.1549988  92.0260012  20.7334997 101.7249988
  94.5640012  19.3814997 103.4989988  95.0320012  19.0134997 102.5979988
  94.0040012  18.6644997 104.0789988  95.3910012  19.7424997 104.0939988
  94.2680012  24.0944997  99.2779988  92.8160012  22.1274997  98.7159988
  95.1990012  22.4384997  96.7379988  95.7480012  23.4204997  96.1189988
  96.8980012  23.7794997  96.2449988  94.6610012  24.2424997  95.4219988
  95.1040012  25.2294997  95.1669988  93.8820012  24.4584997  96.1839988
  94.0840012  23.6564997  94.1569988  93.0670012  24.0564997  93.9569988
  93.9330012  22.5604997  94.0599988  94.8470012  24.0044997  92.8749988
  94.8610012  25.1144997  92.9229988  94.2090012  23.7254997  92.0089988
  96.2920012  23.5064997  92.8019988  96.9350012  23.7544997  93.6739988
  96.6790012  24.1034997  91.9489988  96.4870012  21.9574997  92.3369988
  95.7670012  21.4024997  92.9749988  97.5700012  21.7454997  92.4619988
  96.1040012  21.8094997  90.8699988  95.0380012  22.0164997  90.6339988
  96.2430012  20.7314997  90.6379988  97.0770012  22.5834997  89.7789988
  97.0910012  23.6774997  89.9719988  96.4860012  22.4644997  88.8459988
  98.4330012  21.8834997  89.6739988  99.0540012  21.9114997  90.5809988
  98.9460012  21.4164997  88.4989988  99.9690012  21.0144997  88.5409988
  98.3500012  21.4284997  87.0859988  99.1780012  21.7594997  86.4239988
  97.5710012  22.2004997  86.9099988  97.8480012  20.1114997  86.5109988
  96.7900012  19.8834997  86.7619988  98.4750012  19.2534997  86.8339988
  97.9210012  20.1394997  84.9609988  98.9910012  20.3574997  84.7539988
  97.1910012  20.8984997  84.6059988  97.4270012  18.7794997  84.2879988
  96.4420012  18.5824997  84.7609988  98.0970012  17.9184997  84.4999988
  97.3560012  18.8804997  82.7509988  98.3100012  19.3004997  82.3669988
  96.6620012  19.6544997  82.3579988  96.9850012  17.5044997  82.1599988
  97.5420012  16.7794997  82.7909988  97.1870012  17.5124997  81.0669988
  95.4450012  17.2204997  82.2879988  95.2040012  17.0294997  83.3559988
  95.2480012  16.2724997  81.7439988  94.6130012  18.3724997  81.8459988
  93.5300012  18.1294997  81.7879988  94.9790012  18.7354997  80.8619988
  94.7320012  19.1684997  82.6119988 101.6820012  26.2524997  79.7979988
 100.7850012  26.8844997  79.9719988 101.3110012  25.6114997  78.9689988
 102.5610012  26.8154997  79.4159988 102.1220012  25.4714997  81.0109988
 102.5020012  24.4754997  80.6999988 102.9840012  25.9614997  81.5109988
 101.0300012  25.2124997  82.0869988 100.9780012  26.1004997  82.7529988
 100.0650012  25.1194997  81.5439988 101.2860012  23.9534997  82.9959988
 100.5100012  23.9564997  83.7919988 101.0890012  23.0184997  82.4289988
 102.7110012  23.6874997  83.6149988 103.4730012  23.7074997  82.8069988
 102.9940012  24.5024997  84.3149988 102.8390012  22.2824997  84.3009988
 102.3790012  21.5464997  83.6079988 103.9200012  22.0334997  84.3459988
 102.1230012  22.3134997  85.6579988 102.4000012  23.2244997  86.2319988
 101.0520012  22.3634997  85.3669988 102.1700012  21.0624997  86.5339988
 102.4930012  20.2144997  85.8929988 102.9620012  21.0874997  87.3129988
 100.7850012  20.7624997  87.2489988 100.0110012  20.8804997  86.4609988
 100.8380012  19.7044997  87.5839988 100.4990012  21.7484997  88.4159988
 101.1210012  21.4234997  89.2779988 100.6970012  22.8014997  88.1229988
  99.0850012  21.8444997  88.7589988  98.6950012  21.8124997  87.7189988
  98.8090012  20.9204997  89.3109988  98.5700012  23.0994997  89.5719988
  98.5610012  23.9524997  88.8599988  97.5050012  22.8414997  89.7539988
  99.3480012  23.4894997  90.8869988 100.4130012  23.7374997  90.6939988
  98.8350012  24.3564997  91.3549988  99.2490012  22.3904997  91.9829988
  98.2250012  22.0354997  92.2259988  99.8070012  21.5384997  91.5389988
  99.9720012  22.7574997  93.2969988 100.0260012  21.8724997  93.9669988
 100.9450012  23.1734997  92.9589988  99.0860012  23.8024997  94.0789988
  97.9780012  24.0884997  93.7579988  99.6120012  24.1294997  95.3049988
  98.8790012  25.0434997  96.0369988  98.6520012  25.8864997  95.3499988
  97.9730012  24.4934997  96.3719988  99.5700012  25.5974997  97.3549988
  99.8490012  24.6904997  97.9329988  98.7320012  26.5254997  98.1139988
  98.1850012  27.0924997  97.3309988  98.0070012  25.8414997  98.6039988
  99.3250012  27.3424997  99.1749988  99.7610012  26.6424997 100.5349988
 101.3160012  26.5794997 100.2569988 102.0020012  25.3204997 100.1439988
 101.3430012  24.6194997  99.5889988 102.9110012  25.4294997  99.5139988
 102.4540012  24.7484997 101.6029988 101.5080012  24.3844997 101.9769988
 103.1590012  23.9324997 101.5459988 102.9290012  25.6614997 102.7289988
 103.9430012  26.6834997 102.3139988 103.4870012  27.2684997 101.5289988
 104.2890012  27.2934997 103.1349988 104.7370012  26.1474997 101.8149988
 101.7470012  26.3214997 103.4069988 102.1000012  26.8444997 104.2829988
 101.3110012  27.0914997 102.7869988 101.0500012  25.5264997 103.6279988
 103.6030012  24.7714997 103.7729988 104.3180012  24.0514997 103.4019988
 102.7600012  24.2944997 104.2489988 104.0780012  25.3974997 104.5139988
  99.4500012  27.6084997 101.6469988  99.1490012  25.2864997 100.5969988
 100.7910012  26.2954997  97.0899988 101.8280012  25.4864997  96.7969988
 101.8480012  24.2824997  96.8229988 103.0920012  26.2704997  96.5459988
 103.6210012  26.4294997  97.5099988 102.7360012  27.2584997  96.1829988
 103.9710012  25.5594997  95.5139988 104.4340012  24.6274997  95.9019988
 104.8810012  26.1804997  95.3679988 103.2820012  25.2184997  94.2049988
 102.6490012  26.0904997  93.9319988 102.6180012  24.3534997  94.4169988
 104.3430012  24.8324997  93.1829988 104.8930012  23.9124997  93.4739988
 105.0440012  25.6514997  92.9149988 103.6280012  24.3334997  91.8539988
 102.5610012  24.6244997  91.7569988 103.6420012  23.2234997  91.9109988
 104.2080012  24.7914997  90.5079988 104.4370012  23.9074997  89.8749988
 105.1910012  25.2814997  90.6709988 103.2620012  25.7394997  89.6509988
 102.3500012  25.1244997  89.4929988 103.7890012  25.9544997  88.6969988
 102.8620012  27.1004997  90.2589988 103.6630012  27.8474997  90.3559988
 101.6740012  27.4664997  90.5729988 101.4210012  28.4534997  90.9879988
 100.4540012  26.5704997  90.4079988 100.2140012  26.0144997  91.3389988
 100.6610012  25.8534997  89.5849988  99.1770012  27.4374997  89.8629988
  98.7080012  27.8194997  90.7949988  98.4120012  26.6734997  89.6089988
  99.4340012  28.5804997  88.9049988 100.1490012  29.3554997  89.2539988
  98.4640012  29.0494997  88.6319988 100.0580012  28.1344997  87.5869988
  99.6730012  27.1094997  87.3939988 101.1670012  28.0924997  87.6449988
  99.5850012  28.9734997  86.3359988  99.8470012  30.0244997  86.5829988
  98.4800012  28.9254997  86.2299988 100.2960012  28.5834997  84.9979988
  99.7970012  29.3024997  84.3139988  99.9520012  27.6704997  84.4649988
 101.7460012  28.9374997  84.8819988 102.2610012  28.2554997  85.5919988
 101.8920012  29.9484997  85.3189988 102.3310012  28.8854997  83.4699988
 101.6270012  29.1604997  82.6559988 102.6830012  27.8674997  83.1959988
 103.0860012  29.6994997  83.4209988 123.6020012  88.1504997  82.4049988
 123.4240012  89.1364997  82.8859988 123.6180012  88.2464997  81.2989988
 124.5930012  87.8204997  82.7829988 122.5500012  87.2264997  82.9279988
 121.6400012  87.7604997  82.5809988 122.7620012  86.2844997  82.3789988
 122.4460012  87.0084997  84.4419988 122.2760012  87.9694997  84.9719988
 121.6320012  86.2854997  84.6629988 123.7340012  86.5664997  85.0549988
 124.1360012  85.6834997  84.5139988 124.4960012  87.3744997  85.0329988
 123.5530012  86.1664997  86.5799988 123.3780012  87.1094997  87.1399988
 122.6480012  85.5564997  86.7879988 124.6910012  85.4414997  87.2119988
 124.9240012  84.5464997  86.5959988 125.6360012  86.0264997  87.1869988
 124.2920012  85.0494997  88.6919988 124.1440012  86.0054997  89.2379988
 123.3190012  84.5144997  88.7009988 125.2990012  84.1394997  89.4169988
 124.7410012  83.8494997  90.3329988 125.3920012  83.2354997  88.7789988
 126.6890012  84.7834997  89.7199988 127.1960012  84.8824997  88.7369988
 126.5930012  85.7704997  90.2199988 127.5660012  83.9484997  90.6519988
 126.9570012  83.6994997  91.5469988 127.8850012  82.9494997  90.2849988
 128.8490012  84.7104997  91.0869988 129.5110012  84.6334997  90.1979988
 128.6270012  85.7734997  91.3229988 129.5580012  84.2284997  92.3979988
 130.1410012  83.3544997  92.0379988 130.3210012  84.9924997  92.6589988
 128.7000012  83.7024997  93.5449988 128.0930012  82.7914997  93.3539988
 129.3320012  83.2854997  94.3579988 127.8240012  84.8154997  94.2479988
 127.0590012  85.0874997  93.4889988 127.1770012  84.3774997  95.0379988
 128.5650012  85.9894997  94.8869988 129.0810012  85.7134997  95.8309988
 129.2680012  86.3224997  94.0929988 127.5330012  87.0904997  95.2769988
 126.4190012  87.2634997  94.8319988 128.1970012  87.9274997  96.0259988
 127.8440012  89.2684997  96.3409988 128.8170012  89.7804997  96.4999988
 127.2510012  89.7434997  95.5299988 127.0970012  89.2654997  97.6539988
 126.6940012  90.2874997  97.8229988 127.9490012  88.9384997  98.9429988
 128.3580012  87.9104997  98.8419988 128.8040012  89.6434997  98.8759988
 127.2170012  89.1594997 100.0979988 127.7720012  88.6194997 101.5579988
 126.7280012  87.3734997 101.8219988 125.3570012  87.6234997 101.8269988
 125.1410012  88.4344997 102.5549988 124.9510012  87.9234997 100.8369988
 124.5970012  86.3444997 102.3599988 125.0340012  85.9574997 103.2689988
 123.6000012  86.6674997 102.6219988 124.4300012  85.2164997 101.3319988
 123.5820012  85.5624997 100.1989988 123.5670012  84.7144997  99.5309988
 122.6800012  85.9594997 100.6399988 123.9160012  86.4844997  99.7469988
 125.7300012  84.7844997 100.8289988 126.2340012  84.4254997 101.7139988
 125.5880012  83.9214997 100.1939988 126.1980012  85.6674997 100.4189988
 123.7110012  84.0184997 102.0759988 124.2650012  83.6264997 102.9159988
 123.5450012  83.3344997 101.2569988 122.7330012  84.3024997 102.4339988
 129.2060012  88.1414997 101.4689988 127.5650012  89.7154997 102.6119988
 125.9150012  88.4384997  97.5389988 124.7870012  89.0434997  96.9729988
 124.7910012  90.0914997  96.3799988 123.6030012  88.0854997  97.1999988
 123.3100012  88.2554997  98.2579988 123.8220012  86.9984997  97.1319988
 122.3700012  88.4244997  96.2749988 122.2310012  89.5164997  96.1229988
 121.4770012  88.1284997  96.8659988 122.3260012  87.6064997  95.0059988
 121.2750012  87.7924997  94.6959988 122.3300012  86.5364997  95.3059988
 123.2810012  87.9114997  93.8449988 123.3710012  87.0264997  93.1789988
 124.3290012  87.9934997  94.2059988 122.9750012  89.1784997  93.1529988
 122.9630012  90.0104997  93.8889988 121.9970012  89.0224997  92.6499988
 123.9950012  89.6604997  92.0879988 123.5610012  90.5724997  91.6239988
 124.2380012  88.8764997  91.3389988 125.4030012  90.0454997  92.8039988
 126.0140012  89.1884997  93.1609988 125.0750012  90.5904997  93.7139988
 126.2760012  90.9024997  91.8859988 126.2300012  91.9764997  92.1199988
 126.8690012  90.5854997  90.7479988 126.9980012  91.3784997  89.9969988
 126.7180012  89.1734997  90.1629988 126.3130012  89.2994997  89.1369988
 126.1440012  88.4134997  90.7349988 128.1090012  88.3524997  89.9739988
 127.8940012  87.3004997  89.6869988 128.7660012  88.4194997  90.8679988
 128.8950012  88.9064997  88.7359988 130.0050012  88.8994997  88.7639988
 128.5390012  89.9274997  88.4809988 128.8820012  87.9754997  87.4279988
 127.8230012  87.8564997  87.1119988 129.3160012  86.9604997  87.5569988
 129.6220012  88.6294997  86.2349988 130.5920012  88.8794997  86.7159988
 129.0590012  89.5794997  86.1129988 129.8340012  87.8424997  84.9139988
 130.2980012  88.5214997  84.1679988 128.8610012  87.6354997  84.4189988
 130.6660012  86.6094997  85.0219988 130.3050012  86.0464997  85.9099988
 131.7560012  86.8224997  85.0459988 130.3340012  85.6324997  83.9389988
 130.8890012  85.8834997  83.0099988 129.2680012  85.4984997  83.6599988
 130.8890012  84.6924997  84.1489988  15.0760012  58.4204997  84.8919988
  14.1480012  58.9894997  84.6689988  14.9820012  57.3204997  85.0219988
  15.6720012  58.4514997  83.9549988  15.7690012  58.9394997  86.1679988
  15.1710012  58.3994997  86.9329988  16.8110012  58.5544997  86.1539988
  15.6410012  60.4814997  86.4239988  16.3850012  60.9124997  87.1269988
  15.9110012  61.0894997  85.5329988  14.2050012  60.8094997  86.8039988
  13.6310012  60.5654997  85.8849988  13.8110012  60.1814997  87.6309988
  14.0680012  62.2794997  87.0739988  15.0090012  62.6824997  87.5049988
  13.8710012  62.7704997  86.0959988  12.9630012  62.5794997  88.0689988
  12.0020012  62.5164997  87.5159988  12.9490012  61.7994997  88.8599988
  13.1140012  63.9484997  88.7109988  14.0090012  63.9134997  89.3689988
  13.2580012  64.7754997  87.9839988  11.8560012  64.3494997  89.4959988
  11.9120012  65.4464997  89.6589988  10.9090012  64.1964997  88.9369988
  11.7830012  63.6714997  90.8829988  11.9390012  62.5884997  90.6889988
  12.7210012  64.1014997  91.2949988  10.5350012  64.1154997  91.6799988
  10.1680012  65.1174997  91.3689988   9.6570012  63.4424997  91.5809988
  10.5900012  64.2554997  93.2379988  11.1620012  65.1554997  93.5499988
   9.5990012  64.1774997  93.7339988  11.2930012  62.9684997  93.7629988
  11.0470012  62.0564997  93.1779988  12.3860012  63.1444997  93.6669988
  10.7830012  62.5654997  95.1809988  11.1620012  63.3114997  95.9109988
   9.6730012  62.6194997  95.1519988  11.3150012  61.2354997  95.8779988
  10.8470012  61.1544997  96.8819988  10.9070012  60.3584997  95.3319988
  12.8020012  61.0404997  96.1299988  13.4000012  61.0094997  95.1939988
  13.2400012  61.8654997  96.7309988  13.0170012  59.7594997  96.8189988
  13.4470012  58.6904997  96.3729988  12.5610012  59.9034997  98.1019988
  12.6500012  58.7994997  99.0039988  11.8980012  58.8594997  99.8199988
  12.5070012  57.8544997  98.4379988  13.9600012  58.7254997  99.8469988
  13.9770012  57.9014997 100.5919988  14.0920012  59.9644997 100.8159988
  13.0750012  60.3214997 101.0839988  14.6500012  59.5654997 101.6899988
  14.8300012  61.0994997 100.2569988  14.1670012  62.5274997 100.1299988
  14.4990012  62.9404997 101.6009988  14.4140012  64.3034997 102.0309988
  14.3330012  65.0944997 101.2559988  13.4520012  64.3364997 102.5849988
  15.6080012  64.6514997 103.0239988  15.5120012  65.7154997 103.1809988
  15.3630012  64.1534997 103.9509988  17.0090012  64.2224997 102.6319988
  17.1780012  64.6514997 101.2199988  17.1430012  65.7254997 101.1049988
  18.1970012  64.3574997 101.0189988  16.4690012  64.0074997 100.7209988
  18.0940012  64.8494997 103.5029988  18.0670012  64.5604997 104.5429988
  19.0560012  64.5714997 103.0989988  18.0450012  65.9254997 103.5789988
  17.1550012  62.7004997 102.6779988  16.3200012  62.1494997 102.2709988
  17.2400012  62.4154997 103.7159988  18.0320012  62.4574997 102.0959988
  14.9450012  63.3634997  99.1809988  12.7330012  62.3634997  99.9219988
  15.0530012  58.6414997  98.8869988  16.2770012  58.3934997  99.3569988
  16.6190012  57.9714997 100.4509988  17.3160012  58.6204997  98.2229988
  16.9500012  58.0304997  97.3559988  18.2990012  58.2374997  98.5699988
  17.4600012  60.1514997  98.0109988  17.6530012  60.6174997  99.0019988
  16.4020012  60.3984997  97.7789988  18.5280012  60.4584997  96.9839988
  18.2820012  59.9144997  96.0479988  19.4420012  60.0954997  97.4999988
  18.7250012  62.0164997  96.6519988  19.3770012  62.0854997  95.7549988
  19.3540012  62.4324997  97.4669988  17.5350012  62.8994997  96.3149988
  17.9450012  63.9294997  96.2429988  16.8640012  62.8434997  97.1989988
  16.7940012  62.4354997  95.0239988  15.8450012  62.9944997  94.8779988
  16.4600012  61.3844997  95.1539988  17.6130012  62.4464997  93.7749988
  18.6120012  61.9604997  93.7979988  17.7710012  63.4894997  93.4259988
  16.9090012  61.8084997  92.6329988  16.7480012  60.7214997  92.6889988
  16.5420012  62.4004997  91.4929988  16.0980012  61.8134997  90.6759988
  16.7050012  63.8964997  91.1109988  16.6190012  64.6744997  91.8999988
  15.9120012  63.9784997  90.3369988  18.0850012  64.2744997  90.3959988
  18.9620012  64.0744997  91.0479988  18.1450012  65.3754997  90.2619988
  18.1960012  63.6224997  89.0609988  17.2710012  63.7174997  88.4529988
  18.3250012  62.5344997  89.2439988  19.3610012  64.2184997  88.2569988
  20.3510012  64.0254997  88.7229988  19.1410012  65.3074997  88.2599988
  19.4540012  63.6724997  86.8359988  19.9170012  62.6654997  86.9099988
  20.2790012  64.2054997  86.3169988  18.2140012  63.6334997  85.9809988
  17.5840012  64.5264997  86.1799988  17.5410012  62.8244997  86.3359988
  18.4770012  63.4534997  84.4919988  19.1190012  64.2854997  84.1299988
  17.4860012  63.6804997  84.0439988  19.0860012  62.1564997  84.0269988
  20.0200012  62.0044997  84.6099988  19.4120012  62.1784997  82.9659988
  18.5250012  61.2294997  84.2719988  84.7120012  18.5384997  82.9269988
  84.0190012  17.7054997  82.6819988  85.6860012  18.0424997  83.1269988
  84.7980012  19.2004997  82.0379988  84.2810012  19.3504997  84.1619988
  83.2870012  19.8184997  83.9989988  84.2020012  18.5774997  84.9559988
  85.1990012  20.4734997  84.6799988  85.1740012  21.1864997  83.8279988
  84.6490012  20.8364997  85.5749988  86.7050012  20.1504997  84.9459988
  87.1820012  19.9274997  83.9669988  87.1990012  21.0874997  85.2819988
  86.9880012  18.8514997  85.7809988  86.7140012  18.0974997  85.0119988
  88.0880012  18.7814997  85.9169988  86.1980012  18.4844997  87.0119988
  85.1420012  18.8314997  87.0229988  86.2290012  17.3844997  87.1629988
  86.8230012  19.1304997  88.3329988  87.7380012  18.5344997  88.5349988
  86.8660012  20.2324997  88.1949988  85.7520012  19.0634997  89.5209988
  84.8090012  19.4864997  89.1129988  85.6790012  17.9844997  89.7729988
  86.2750012  19.7884997  90.7399988  86.5450012  20.8324997  90.4719988
  85.3850012  19.9084997  91.3929988  87.2120012  18.9874997  91.6369988
  87.2140012  17.9134997  91.3529988  88.2250012  19.2934997  91.2979988
  87.1720012  19.1594997  93.1659988  86.3200012  18.4944997  93.4229988
  88.0800012  18.6844997  93.5919988  86.9580012  20.6664997  93.6509988
  87.6660012  21.4294997  93.2609988  85.8920012  20.8554997  93.4029988
  87.0050012  20.6224997  95.1979988  87.9440012  20.1504997  95.5579988
  87.0260012  21.6794997  95.5419988  85.7890012  19.8104997  95.7369988
  84.9220012  20.2824997  95.2269988  86.0180012  18.7384997  95.5539988
  85.5840012  19.9674997  97.2579988  86.3070012  19.4164997  97.8969988
  85.7910012  21.0504997  97.3889988  84.1360012  19.7324997  97.6329988
  83.1900012  20.4734997  97.3919988  84.0480012  18.5384997  98.3059988
  82.7490012  17.9314997  98.2139988  82.0240012  18.4944997  98.8399988
  82.3940012  17.9354997  97.1609988  82.8580012  16.5964997  98.8959988
  81.9840012  15.9774997  98.6029988  82.9000012  16.7164997 100.4419988
  82.1270012  17.4464997 100.7629988  82.7370012  15.7034997 100.8689988
  84.1780012  17.2204997 100.8499988  84.2730012  17.7434997 102.3609988
  85.8020012  18.0724997 102.6139988  86.3930012  19.0064997 101.7259988
  85.6850012  19.8074997 101.4239988  87.1120012  19.5574997 102.3689988
  87.0810012  18.4844997 100.4339988  86.3000012  18.3024997  99.7099988
  87.6650012  19.3224997 100.0829988  88.0240012  17.2884997 100.5739988
  87.2520012  16.0264997 101.0529988  86.4910012  15.8444997 100.3079988
  87.8960012  15.1604997 101.0659988  86.6880012  16.3414997 101.9179988
  88.6400012  17.0204997  99.2219988  89.0680012  17.9564997  98.8949988
  89.4710012  16.3584997  99.4159988  87.8510012  16.6034997  98.6129988
  89.0570012  17.4624997 101.6069988  88.5190012  17.6314997 102.5269988
  89.7510012  18.2714997 101.4349988  89.6170012  16.5424997 101.6979988
  83.5520012  19.0534997 102.4559988  83.8660012  16.6194997 103.2849988
  84.0380012  15.8874997  98.4499988  83.9750012  14.6064997  98.1639988
  83.0390012  13.8934997  98.3649988  85.3180012  14.1764997  97.5069988
  85.4880012  13.1454997  97.8839988  86.0830012  14.9004997  97.8599988
  85.1570012  14.1044997  96.0049988  84.1950012  13.6804997  95.6449988
  85.9510012  13.5264997  95.4859988  85.3490012  15.5204997  95.3579988
  86.4020012  15.8364997  95.5229988  84.7440012  16.2854997  95.8889988
  85.0140012  15.4534997  93.8419988  85.0150012  14.3854997  93.5349988
  85.7930012  15.9684997  93.2389988  83.7430012  16.0634997  93.2769988
  83.6140012  17.0794997  93.7079988  82.9070012  15.4944997  93.7379988
  83.6750012  16.3884997  91.7759988  84.5510012  17.0034997  91.4769988
  82.8980012  17.1734997  91.6579988  83.3120012  15.2144997  90.8359988
  82.9330012  15.5264997  89.8389988  82.4610012  14.7704997  91.3949988
  84.4580012  14.2494997  90.7889988  84.6430012  13.6064997  91.6619988
  85.3270012  14.1274997  89.7689988  86.0730012  13.3204997  89.8239988
  85.3310012  14.9914997  88.5189988  85.8620012  15.9314997  88.7819988
  84.2880012  15.2174997  88.2109988  86.1160012  14.5074997  87.3569988
  87.1700012  14.3374997  87.6639988  86.1990012  15.3574997  86.6459988
  85.6000012  13.2074997  86.7369988  85.5870012  12.4034997  87.5039988
  86.3740012  12.9444997  85.9849988  84.1920012  13.3284997  86.1149988
  83.5230012  13.8144997  86.8559988  83.8750012  12.2994997  85.8419988
  84.0750012  14.1484997  84.8419988  84.9680012  13.7994997  84.2809988
  84.1010012  15.2114997  85.1629988  82.8430012  13.9514997  84.0969988
  82.5300012  12.8854997  84.1049988  82.8930012  14.0634997  82.9919988
  81.5850012  14.7174997  84.6229988  81.5240012  14.5174997  85.7149988
  80.6620012  14.3094997  84.1579988  81.4590012  16.2684997  84.4479988
  80.4460012  16.3974997  84.8849988  81.7160012  16.5954997  83.4179988
  82.2230012  16.7504997  85.0949988  35.4200012  41.4874997  79.7109988
  35.4900012  40.5034997  79.1999988  36.3690012  41.7434997  80.2299988
  35.5020012  42.1594997  78.8299988  34.2610012  41.7554997  80.6329988
  34.2880012  42.8404997  80.8709988  33.3120012  41.7114997  80.0569988
  34.1970012  40.9504997  81.9949988  34.9130012  41.4474997  82.6839988
  33.1830012  40.9484997  82.4479988  34.7720012  39.4874997  81.8679988
  33.9910012  38.8134997  81.4539988  35.6790012  39.5454997  81.2299988
  35.1020012  38.9224997  83.2839988  35.7150012  38.0114997  83.1109988
  35.6210012  39.6014997  83.9939988  33.7360012  38.4324997  83.9149988
  33.0180012  39.1954997  84.2839988  33.2200012  37.8414997  83.1279988
  34.0670012  37.4334997  85.0649988  33.1400012  36.8824997  85.3339988
  34.7580012  36.6534997  84.6789988  34.5970012  38.1414997  86.4169988
  35.5730012  38.5904997  86.1349988  33.9180012  39.0124997  86.5359988
  34.5790012  37.2084997  87.6249988  33.5670012  36.8544997  87.9139988
  35.0880012  36.2644997  87.3359988  35.3940012  37.8294997  88.7779988
  36.4490012  37.7004997  88.4569988  35.0570012  38.8604997  89.0199988
  35.2210012  37.1434997  90.0989988  35.4460012  36.0554997  90.1189988
  36.0340012  37.5794997  90.7189988  33.8190012  37.2164997  90.6119988
  33.2160012  37.9654997  90.0549988  33.2050012  36.3224997  90.3739988
  33.7980012  37.4364997  92.1079988  32.8130012  37.1104997  92.5039988
  34.6410012  36.9784997  92.6689988  33.9320012  38.9694997  92.4619988
  35.0250012  39.1614997  92.4099988  33.3980012  39.6704997  91.7859988
  33.5300012  39.2014997  94.0039988  32.4490012  39.1234997  94.2479988
  34.0150012  38.4414997  94.6529988  33.9680012  40.5694997  94.4509988
  34.2650012  41.4714997  93.6919988  34.3540012  40.5724997  95.7289988
  34.7380012  41.6994997  96.4849988  35.7930012  41.6674997  96.8299988
  34.6310012  42.6454997  95.9129988  33.9310012  41.8824997  97.7239988
  34.2260012  42.8874997  98.0949988  34.2080012  40.7754997  98.7619988
  34.1930012  39.7454997  98.3449988  35.2450012  40.9044997  99.1389988
  33.3920012  40.7844997  99.9359988  31.9070012  40.0804997  99.8209988
  32.1750012  38.8864997 100.8859988  32.2100012  39.2384997 102.2969988
  33.0340012  39.9674997 102.4559988  31.2040012  39.6074997 102.5889988
  32.3730012  37.9514997 103.1709988  32.3100012  38.2084997 104.2179988
  31.4570012  37.4604997 102.8769988  33.4420012  37.0164997 102.8379988
  33.3810012  36.2204997 101.5409988  32.7110012  35.3824997 101.6659988
  33.1120012  36.8074997 100.6749988  34.4080012  35.9114997 101.4109988
  34.7020012  37.8644997 102.9529988  34.5700012  38.6794997 102.2569988
  34.9200012  38.3154997 103.9099988  35.5580012  37.2974997 102.6179988
  33.4800012  35.8704997 103.8489988  34.0330012  35.0384997 103.4389988
  32.4630012  35.5984997 104.0899988  34.0290012  36.3034997 104.6719988
  30.7780012  40.8754997 100.4159988  31.7350012  39.3814997  98.4719988
  32.5710012  41.9224997  97.3479988  32.0620012  42.8994997  96.5029988
  32.6970012  43.9164997  96.1849988  30.6020012  42.7414997  96.0809988
  30.1770012  43.7654997  96.0119988  30.0060012  42.2044997  96.8489988
  30.5810012  41.9404997  94.8029988  29.6240012  41.3844997  94.7079988
  31.2870012  41.0884997  94.8959988  30.8960012  42.8314997  93.5439988
  31.9510012  43.1274997  93.7239988  30.2810012  43.7494997  93.4319988
  30.8860012  42.1644997  92.1909988  29.8970012  41.7234997  91.9399988
  31.5880012  41.3204997  92.3589988  31.4410012  43.0424997  91.1079988
  32.3140012  43.6234997  91.4739988  30.6750012  43.7984997  90.8309988
  31.9010012  42.2004997  89.8339988  32.7550012  41.5144997  90.0179988
  32.1860012  42.9054997  89.0239988  30.8120012  41.2004997  89.3469988
  29.9020012  41.8104997  89.1629988  30.7450012  40.3854997  90.0989988
  31.1540012  40.4904997  88.1079988  32.0020012  39.8114997  88.2829988
  30.5320012  40.5404997  86.8709988  30.8830012  39.8394997  86.0999988
  29.3900012  41.3564997  86.4369988  29.1440012  42.0474997  87.2709988
  28.4450012  40.8484997  86.1479988  29.8360012  42.2784997  85.3029988
  30.6840012  42.9404997  85.5759988  29.0120012  43.0134997  85.1789988
  29.9670012  41.6334997  83.8999988  30.2690012  40.5734997  84.0329988
  30.7370012  42.0824997  83.2359988  28.6370012  41.6054997  83.1289988
  28.2520012  42.6134997  82.8669988  27.8530012  41.0374997  83.6739988
  28.6930012  40.8314997  81.7809988  29.4550012  41.4344997  81.2409988
  27.6570012  40.8264997  81.3809988  29.1500012  39.3424997  81.8639988
  28.4410012  38.8134997  82.5359988  30.1840012  39.2514997  82.2579988
  29.1630012  38.6894997  80.4359988  29.6760012  37.7054997  80.3879988
  29.8550012  39.3684997  79.8929988  27.8300012  38.4304997  79.7609988
  27.0640012  37.9924997  80.4359988  27.9200012  37.9034997  78.7869988
  27.4160012  39.4164997  79.4589988 116.0770012  39.2484997  84.0169988
 115.7420012  39.6984997  84.9759988 115.1990012  39.2404997  83.3359988
 116.9340012  39.7954997  83.5709988 116.6190012  37.7684997  84.2279988
 117.0860012  37.3864997  83.2949988 117.4660012  37.7864997  84.9459988
 115.6480012  36.7244997  84.8029988 114.9260012  36.5714997  83.9729988
 116.2200012  35.7864997  84.9719988 114.9260012  37.0214997  86.0979988
 115.6760012  37.3994997  86.8249988 114.1150012  37.7634997  85.9369988
 114.4200012  35.8024997  86.9549988 114.2670012  36.1644997  87.9939988
 113.5590012  35.4064997  86.3759988 115.2770012  34.5244997  87.0129988
 115.5220012  34.1394997  85.9999988 116.2750012  34.7164997  87.4629988
 114.6740012  33.3194997  87.8209988 113.5720012  33.3754997  87.9449988
 114.8210012  32.3484997  87.3019988 115.2140012  33.5024997  89.2879988
 116.2960012  33.7204997  89.1589988 114.7420012  34.4184997  89.7039988
 115.0930012  32.2954997  90.1829988 115.6320012  31.4134997  89.7739988
 115.5630012  32.5324997  91.1609988 113.6240012  31.9384997  90.4079988
 113.1330012  31.7614997  89.4269988 113.5690012  31.0834997  91.1149988
 112.6890012  33.1144997  90.9989988 112.4770012  33.9054997  90.2479988
 111.8180012  32.5134997  91.3389988 112.9920012  33.8224997  92.3309988
 113.0240012  33.0374997  93.1159988 114.0200012  34.2214997  92.1959988
 112.1260012  35.0204997  92.7199988 112.3250012  35.8714997  92.0339988
 111.0740012  34.6824997  92.6049988 112.4440012  35.5624997  94.1859988
 111.8990012  36.5154997  94.3519988 111.9930012  34.7684997  94.8199988
 113.9080012  35.7934997  94.4239988 114.3180012  34.8254997  94.7829988
 114.4440012  36.0864997  93.4959988 114.2130012  36.8214997  95.5269988
 113.3590012  37.2774997  96.2929988 115.5280012  37.1204997  95.5959988
 115.9560012  37.8244997  96.7539988 116.8370012  38.4554997  96.5079988
 115.2370012  38.6474997  96.9509988 116.0150012  36.8854997  97.9979988
 115.0100012  36.7294997  98.4439988 116.6710012  37.5864997  99.2449988
 117.7540012  37.7834997  99.0959988 116.1920012  38.5884997  99.2779988
 116.3440012  36.8754997 100.4389988 117.5840012  36.2994997 101.2979988
 116.8300012  35.3334997 102.3159988 115.4330012  35.1104997 102.3189988
 115.1290012  34.7104997 103.3099988 114.8010012  36.0114997 102.1709988
 115.0960012  34.0284997 101.2409988 114.0450012  34.0884997 100.9989988
 115.5390012  34.3964997 100.3269988 115.5950012  32.5634997 101.4689988
 115.0250012  32.0684997 102.7869988 113.9480012  31.9904997 102.8059988
 115.5060012  31.1034997 102.8529988 115.5570012  32.6094997 103.5549988
 115.0870012  31.7124997 100.3219988 114.0410012  31.9464997 100.1859988
 115.5670012  32.0134997  99.4019988 115.2180012  30.6684997 100.5619988
 117.1010012  32.5534997 101.5679988 117.3620012  33.3724997 102.2219988
 117.3930012  32.7704997 100.5509988 117.5510012  31.5934997 101.7759988
 118.3860012  35.4684997 100.3909988 118.2870012  37.4074997 102.0329988
 116.7110012  35.6534997  97.7009988 116.0300012  34.5994997  97.6429988
 114.8770012  34.4724997  97.9869988 116.8780012  33.3694997  97.1709988
 116.4000012  32.7774997  96.3609988 116.8930012  32.6484997  98.0169988
 118.4220012  33.6264997  96.9599988 118.9000012  32.6364997  97.1169988
 118.9650012  34.4334997  97.4969988 118.9320012  33.8924997  95.5249988
 119.9290012  33.4214997  95.3889988 119.1610012  34.9484997  95.2679988
 118.1020012  33.3124997  94.3589988 117.0830012  33.7374997  94.2329988
 118.0030012  32.2114997  94.4669988 118.7450012  33.5284997  92.9519988
 118.2440012  32.9124997  92.1749988 119.7680012  33.0954997  92.9539988
 118.9360012  35.0404997  92.4619988 119.5390012  35.4924997  93.2789988
 117.9800012  35.5934997  92.3489988 119.8910012  35.2544997  91.2229988
 119.6080012  34.4304997  90.5329988 120.9470012  35.1084997  91.5339988
 119.9190012  36.6494997  90.6409988 119.9380012  37.4904997  91.3499988
 119.8140012  36.9334997  89.3389988 119.9330012  37.9964997  89.0839988
 119.6630012  35.8894997  88.2099988 118.5960012  35.5844997  88.2549988
 120.1440012  34.9074997  88.4109988 119.9190012  36.4314997  86.8299988
 120.8200012  37.0784997  86.8859988 119.1680012  37.2244997  86.6249988
 120.0600012  35.3014997  85.7369988 120.9550012  34.6714997  85.9279988
 120.2200012  35.8554997  84.7869988 118.7820012  34.4074997  85.6189988
 117.8490012  35.0074997  85.5609988 118.8610012  33.8814997  86.5949988
 118.9560012  33.4464997  84.4289988 118.3060012  32.5564997  84.5649988
 119.9720012  33.0184997  84.2909988 118.5510012  34.2354997  83.1329988
 119.1220012  35.1894997  83.1149988 117.4550012  34.4004997  83.1989988
 118.8210012  33.3674997  81.8029988 118.8690012  32.3354997  82.2139988
 119.8400012  33.6794997  81.4909988 117.8290012  33.5734997  80.6819988
 118.0780012  32.9434997  79.7999988 117.6650012  34.6424997  80.4309988
 116.8690012  33.1364997  81.0309988  25.9180012  51.3684997  82.9829988
  25.0240012  51.4294997  83.6389988  25.7710012  50.9444997  81.9669988
  26.4490012  52.3314997  82.8239988  26.9050012  50.4714997  83.8909988
  27.6090012  49.9724997  83.1909988  27.5070012  51.1504997  84.5319988
  26.3580012  49.4414997  84.8659988  25.8300012  48.6804997  84.2529988
  27.2030012  48.8964997  85.3399988  25.3100012  49.9644997  85.9019988
  24.2980012  49.9514997  85.4439988  25.5010012  49.0854997  86.5529988
  25.7210012  51.1784997  86.6219988  26.7470012  50.9754997  86.9979988
  25.6650012  51.9654997  85.8399988  24.8080012  51.6474997  87.7339988
  23.7300012  51.6094997  87.4649988  24.8900012  51.0694997  88.6789988
  25.1200012  53.0724997  88.0549988  26.1670012  53.0934997  88.4239988
  25.2120012  53.7174997  87.1559988  24.1830012  53.7674997  89.0409988
  24.6510012  54.7094997  89.3979988  23.2600012  54.0334997  88.4829988
  23.6500012  52.9914997  90.3099988  22.8980012  53.6124997  90.8419988
  23.2020012  52.0244997  89.9979988  24.7410012  52.6904997  91.3009988
  25.1880012  51.6764997  91.2199988  25.4860012  53.4984997  91.1399988
  24.3730012  52.8214997  92.7429988  23.7940012  53.7204997  93.0449988
  23.7670012  51.9164997  92.9619988  25.6630012  52.7824997  93.5719988
  25.9610012  51.7124997  93.5429988  26.3930012  53.4034997  93.0099988
  25.6620012  53.2424997  95.0969988  26.6340012  53.0114997  95.5839988
  25.4820012  54.3384997  95.1059988  24.5670012  52.5474997  95.8729988
  23.7010012  52.5024997  95.1789988  24.9130012  51.5874997  96.3119988
  24.3040012  53.3274997  97.1629988  25.2160012  53.1254997  97.7639988
  24.2170012  54.4274997  97.0269988  23.1530012  52.9024997  98.0129988
  22.6230012  53.5504997  98.9049988  22.6830012  51.7694997  97.5109988
  21.3530012  51.3744997  97.8249988  21.0210012  51.9634997  98.7069988
  20.7260012  51.7634997  96.9939988  21.2460012  49.9094997  98.0679988
  20.1470012  49.7464997  98.0329988  21.7920012  49.5194997  99.4539988
  21.4480012  50.1694997 100.2869988  21.5730012  48.4514997  99.6689988
  23.1580012  49.9284997  99.5569988  24.1780012  48.9814997 100.4049988
  25.4010012  49.9704997 100.8529988  25.4880012  51.2574997 100.4069988
  26.5120012  51.6814997 100.4909988  25.1460012  51.3984997  99.3589988
  24.7020012  52.2984997 101.2729988  24.7390012  53.2604997 100.7839988
  23.7080012  51.9014997 101.1299988  25.0370012  52.4744997 102.7899988
  24.7140012  51.1874997 103.5169988  24.8660012  51.4174997 104.5609988
  23.6850012  50.8874997 103.3839988  25.4340012  50.4534997 103.1869988
  26.4810012  52.9354997 102.9549988  26.4880012  53.9454997 102.5719988
  26.6410012  52.9264997 104.0229988  27.0950012  52.1894997 102.4719988
  24.1370012  53.6194997 103.2989988  24.3330012  53.6824997 104.3589988
  23.0640012  53.4994997 103.3489988  24.4830012  54.5314997 102.8359988
  23.4120012  48.4524997 101.6259988  24.6700012  47.9684997  99.4989988
  21.9630012  49.2464997  97.0139988  21.5000012  48.0214997  96.7429988
  20.5780012  47.4684997  97.3389988  22.2450012  47.4394997  95.5349988
  21.6160012  46.8104997  94.8689988  23.1120012  46.9164997  95.9949988
  22.7030012  48.6434997  94.4999988  23.3380012  48.2474997  93.6789988
  23.3880012  49.2404997  95.1389988  21.5750012  49.4644997  93.8429988
  21.9370012  50.4264997  93.4229988  20.7840012  49.7684997  94.5609988
  21.0500012  48.7674997  92.6509988  20.4870012  47.8354997  92.8709988
  21.8860012  48.4014997  92.0159988  20.0780012  49.6214997  91.7769988
  19.4260012  50.2884997  92.3809988  19.4830012  48.8774997  91.2059988
  20.6220012  50.4954997  90.6509988  21.1030012  49.8534997  89.8829988
  21.4180012  51.1834997  91.0079988  19.5730012  51.2104997  89.8349988
  18.8680012  51.6924997  90.5449988  18.9560012  50.5154997  89.2269988
  20.2320012  52.3444997  89.0619988  20.6350012  53.2114997  89.6049988
  20.4220012  52.4874997  87.7569988  20.7050012  53.4544997  87.3159988
  19.9880012  51.5294997  86.7089988  19.1780012  51.9764997  86.0939988
  19.4290012  50.6624997  87.1239988  21.2410012  51.1344997  85.9469988
  21.8550012  50.5074997  86.6289988  21.9270012  51.9154997  85.5549988
  21.1370012  50.2694997  84.6229988  22.1110012  49.8774997  84.2589988
  20.7170012  51.0084997  83.9069988  20.2240012  49.0204997  84.9009988
  19.2030012  49.3444997  85.1949988  20.6900012  48.5374997  85.7859988
  19.9730012  48.0564997  83.7449988  20.9550012  47.7034997  83.3609988
  19.4920012  48.5844997  82.8939988  19.2840012  46.8474997  84.3609988
  18.2790012  47.1084997  84.7549988  19.8510012  46.5814997  85.2789988
  19.2880012  45.6014997  83.4789988  19.1550012  44.6544997  84.0439988
  20.2340012  45.4244997  82.9249988  18.0640012  45.8274997  82.4659988
  18.1480012  45.1294997  81.6049988  18.1400012  46.8774997  82.1099988
  17.1130012  45.6164997  82.9989988  97.2890012 112.3044997  81.8409988
  97.6130012 112.2824997  80.7779988  97.8960012 113.1134997  82.2999988
  96.2130012 112.5714997  81.9129988  97.5560012 111.0054997  82.6919988
  97.2680012 110.0444997  82.2139988  98.6450012 110.8294997  82.8229988
  96.9970012 111.0484997  84.1299988  95.9580012 111.3944997  83.9449988
  97.0490012 110.0274997  84.5639988  97.7850012 111.9084997  85.1649988
  97.8680012 112.9604997  84.8189988  97.2960012 111.8814997  86.1629988
  99.1860012 111.3774997  85.4589988  99.1100012 110.3094997  85.7579988
  99.8690012 111.4714997  84.5879988 100.0780012 112.0754997  86.5289988
 101.0570012 111.5784997  86.3609988 100.1220012 113.1404997  86.2139988
  99.7510012 111.7894997  88.0329988  99.4700012 110.7164997  87.9739988
 100.6750012 111.8954997  88.6419988  98.7200012 112.7694997  88.5509988
  99.0180012 113.7514997  88.1249988  97.7110012 112.4254997  88.2379988
  98.7490012 113.0084997  90.0649988  99.7160012 113.2084997  90.5739988
  98.3190012 114.0234997  90.2049988  98.0890012 111.9384997  90.9439988
  97.0120012 111.9564997  90.6709988  98.3970012 110.8914997  90.7359988
  98.2560012 112.1914997  92.4269988  99.3040012 111.9414997  92.6959988
  98.1430012 113.2494997  92.7489988  97.2650012 111.4704997  93.3169988
  96.2140012 111.7784997  93.1349988  97.3180012 110.3744997  93.1409988
  97.6490012 111.6064997  94.8349988  97.6840012 112.6834997  95.1069988
  96.8770012 111.0824997  95.4379988  98.9210012 110.8984997  95.3779988
  98.6970012 109.8324997  95.1579988  99.9100012 111.1984997  94.9699988
  99.1110012 110.9624997  96.9349988  98.9270012 112.0044997  97.2709988
  98.4020012 110.2264997  97.3719988 100.6040012 110.6054997  97.2769988
 101.2180012 109.6434997  96.8519988 101.0720012 111.5144997  98.1219988
 102.4220012 111.3194997  98.6529988 102.6020012 110.2564997  98.9219988
 103.1300012 111.5594997  97.8309988 102.5910012 112.3314997  99.7819988
 103.6350012 112.2834997 100.1599988 101.7100012 112.0384997 101.0869988
 100.6290012 112.0404997 100.8289988 102.0860012 111.0384997 101.3909988
 102.1610012 112.9694997 102.0249988 101.1610012 113.8504997 102.8599988
 100.3820012 114.6334997 101.7879988  99.4290012 115.5834997 102.2079988
  99.4070012 115.7184997 103.3099988  99.7670012 116.5564997 101.7909988
  98.0260012 115.3504997 101.5899988  97.6530012 114.4194997 101.9909988
  97.3840012 116.1614997 101.9009988  97.8940012 115.1934997 100.0559988
  98.5090012 116.3164997  99.2039988  99.5750012 116.3394997  99.3759988
  98.1840012 116.1954997  98.1819988  98.1350012 117.2874997  99.4929988
  98.5820012 113.9864997  99.5719988  99.6310012 114.1064997  99.7989988
  98.1190012 113.1634997 100.0969988  98.3450012 113.8574997  98.5269988
  96.4350012 115.1234997  99.7479988  95.9560012 116.0294997 100.0879988
  96.0230012 114.1814997 100.0779988  96.4420012 115.2624997  98.6769988
 100.0810012 112.9994997 103.4829988 101.8970012 114.8714997 103.6459988
 102.1750012 113.6594997  99.3129988 102.8780012 114.3274997  98.4219988
 104.0550012 114.1204997  98.0769988 102.1500012 115.5114997  97.8739988
 102.7860012 116.3974997  97.6629988 101.4300012 115.7424997  98.6879988
 101.2590012 115.0484997  96.7079988 100.4820012 114.3464997  97.0789988
 101.7410012 114.5334997  95.8499988 100.4830012 116.2174997  96.0779988
 101.1920012 117.0714997  96.0429988  99.7210012 116.5894997  96.7969988
  99.7710012 115.9644997  94.7719988  98.8590012 115.3574997  94.9539988
 100.5100012 115.4354997  94.1329988  99.1390012 117.2734997  94.1319988
 100.0190012 117.9044997  93.8819988  98.6210012 117.8704997  94.9119988
  98.2040012 117.0304997  92.9589988  97.8080012 117.9764997  92.5309988
  97.2800012 116.5034997  93.2779988  98.7630012 116.2414997  91.7049988
  97.8990012 115.8854997  91.1029988  99.2810012 115.3394997  92.0939988
  99.5360012 117.0704997  90.6909988  98.8280012 117.7074997  90.1389988
 100.8560012 117.2144997  90.5509988 101.2250012 117.6314997  89.6019988
 101.8180012 116.4604997  91.4649988 101.3900012 116.1374997  92.4379988
 102.5530012 117.2104997  91.8279988 102.5060012 115.2884997  90.6729988
 101.7920012 114.4474997  90.7949988 103.4140012 114.9144997  91.1929988
 102.8670012 115.5444997  89.1799988 103.4050012 116.5164997  89.1699988
 102.0190012 115.7094997  88.4809988 103.8800012 114.5794997  88.4719988
 103.3640012 113.5954997  88.4449988 104.6850012 114.4384997  89.2239988
 104.3910012 115.0914997  87.0849988 105.2090012 114.3954997  86.7999988
 104.8230012 116.1124997  87.0169988 103.3100012 115.1144997  86.0039988
 102.8620012 116.1024997  85.7659988 102.4710012 114.4214997  86.2269988
 103.9150012 114.5584997  84.6369988 104.4670012 113.6024997  84.7609988
 104.7910012 115.2204997  84.4709988 103.0310012 114.4184997  83.4149988
 103.6920012 114.4434997  82.5219988 102.2580012 115.2094997  83.3109988
 102.4830012 113.4524997  83.4569988 126.5300012  60.6554997  84.8559988
 126.1000012  59.6564997  85.0819988 127.6280012  60.5624997  84.7159988
 126.1580012  61.0374997  83.8809988 126.2540012  61.6294997  85.9879988
 126.5750012  62.6604997  85.7259988 125.1540012  61.5724997  86.1339988
 126.9450012  61.2244997  87.2809988 126.8770012  60.1344997  87.4829988
 128.0330012  61.4204997  87.1719988 126.3980012  61.9944997  88.5549988
 126.3830012  63.0814997  88.3259988 125.3510012  61.7054997  88.7899988
 127.3530012  61.9894997  89.8349988 126.7980012  62.3994997  90.7059988
 127.4630012  60.9064997  90.0569988 128.7350012  62.6434997  89.6439988
 129.2690012  62.2224997  88.7659988 128.5780012  63.7354997  89.5149988
 129.7670012  62.4714997  90.7859988 130.7270012  62.9444997  90.4869988
 129.3620012  63.1184997  91.5929988 130.0790012  61.0734997  91.2889988
 130.2420012  61.0704997  92.3879988 129.1780012  60.4414997  91.1419988
 131.2530012  60.2964997  90.7559988 130.9940012  59.2164997  90.8019988
 131.4810012  60.3904997  89.6719988 132.5250012  60.5724997  91.5579988
 132.7610012  61.6234997  91.2869988 132.3490012  60.4674997  92.6499988
 133.7150012  59.5944997  91.1789988 133.8440012  59.7194997  90.0829988
 134.5810012  59.9974997  91.7469988 133.5080012  58.0454997  91.5199988
 132.6640012  57.6784997  90.8979988 134.4340012  57.4534997  91.3599988
 133.1490012  57.6524997  92.9849988 132.3020012  58.3124997  93.2719988
 132.8700012  56.5784997  92.9409988 134.2460012  57.9324997  94.0239988
 135.1280012  57.2954997  93.8029988 134.4310012  59.0224997  94.1389988
 133.5900012  57.3784997  95.3689988 132.8690012  56.5814997  95.0859988
 134.3260012  56.9224997  96.0649988 132.8520012  58.5814997  96.0449988
 133.4450012  59.6144997  96.4009988 131.5550012  58.4214997  96.1179988
 130.7810012  59.4334997  96.7819988 131.3710012  60.2524997  97.2469988
 130.1020012  60.0424997  96.1479988 129.8230012  58.7964997  97.8259988
 128.9680012  59.4614997  98.0689988 130.5580012  58.6074997  99.1529988
 131.5500012  58.1544997  98.9419988 130.7020012  59.6254997  99.5749988
 129.8450012  57.8074997 100.1119988 128.6790012  58.3544997 101.0199988
 128.8480012  59.9604997 101.0549988 129.7950012  60.5144997 101.9409988
 129.5180012  60.2384997 102.9799988 130.8370012  60.1484997 101.8169988
 129.8750012  61.9864997 101.8919988 130.4330012  62.3054997 102.7599988
 130.4670012  62.2004997 101.0139988 128.5600012  62.7584997 101.8579988
 128.9600012  64.1354997 102.3539988 129.0370012  64.1524997 103.4319988
 129.8720012  64.4504997 101.8679988 128.0900012  64.7334997 102.1259988
 128.0740012  62.8974997 100.4459988 127.1920012  63.5084997 100.3199988
 128.8700012  63.2674997  99.8159988 127.9240012  61.8944997 100.0759988
 127.4290012  62.2034997 102.6639988 126.4530012  62.5694997 102.3809988
 127.5790012  62.3634997 103.7209988 127.4080012  61.1324997 102.5309988
 127.3060012  58.1404997 100.4729988 128.9460012  57.8274997 102.3669988
 129.3520012  57.5224997  97.4549988 128.3910012  57.5614997  96.4539988
 127.9150012  58.5834997  95.9929988 128.1540012  56.1074997  96.0009988
 127.0710012  55.9284997  95.8299988 128.4180012  55.4564997  96.8619988
 129.0020012  55.6174997  94.8699988 129.1710012  54.5224997  94.9509988
 130.0140012  56.0704997  94.9489988 128.3360012  55.8854997  93.5059988
 127.8900012  56.8854997  93.3189988 127.3750012  55.3294997  93.4689988
 129.2520012  55.4904997  92.3069988 129.0440012  54.4264997  92.0659988
 130.3280012  55.6584997  92.5289988 128.9060012  56.3384997  91.0009988
 129.0470012  57.4064997  91.2709988 127.8070012  56.2284997  90.8789988
 129.6200012  55.8924997  89.6899988 129.4010012  54.8224997  89.4859988
 130.7200012  55.9594997  89.8299988 129.4820012  56.8514997  88.4419988
 130.1510012  56.4704997  87.6399988 129.9810012  57.7884997  88.7689988
 127.9900012  57.1014997  88.0959988 127.4670012  57.9094997  88.6269988
 127.2040012  56.2594997  87.4309988 126.1260012  56.4544997  87.3349988
 127.4620012  54.8534997  86.9079988 126.7990012  54.2704997  87.5809988
 128.5110012  54.5174997  87.0559988 127.1280012  54.7514997  85.4149988
 126.0690012  54.9444997  85.1369988 127.2670012  53.6744997  85.1809988
 128.0180012  55.5554997  84.3859988 127.7890012  56.6424997  84.4049988
 127.7810012  55.3644997  83.3169988 129.5500012  55.3254997  84.5709988
 129.8720012  54.2764997  84.3969988 129.9170012  55.5364997  85.5979988
 130.3290012  56.2084997  83.5379988 130.3850012  57.2414997  83.9429988
 129.6540012  56.3664997  82.6699988 131.6760012  55.6884997  82.9949988
 132.1490012  55.0444997  83.7669988 132.2960012  56.5634997  82.7069988
 131.4870012  54.7854997  81.7479988 131.0230012  55.4034997  80.9489988
 130.7400012  53.9864997  81.9389988 132.7950012  54.2374997  81.0839988
 133.5960012  55.0064997  81.0739988 132.4960012  53.8424997  80.0899988
 133.2690012  53.4604997  81.7219988  46.3430012  17.4534997  82.9479988
  47.4220012  17.1924997  82.9349988  46.0790012  17.5154997  81.8709988
  45.8120012  16.6094997  83.4389988  46.0020012  18.7214997  83.6979988
  46.3780012  19.4764997  82.9749988  44.9140012  18.8694997  83.8689988
  46.6650012  18.9464997  85.0919988  46.3630012  18.1134997  85.7629988
  47.7720012  18.8614997  85.1369988  46.4380012  20.3354997  85.7049988
  46.6450012  21.0624997  84.8909988  45.3660012  20.4974997  85.9449988
  47.3150012  20.7124997  86.9219988  48.3890012  20.7294997  86.6379988
  47.0760012  21.7744997  87.1409988  47.0040012  19.9154997  88.2409988
  45.9200012  19.9684997  88.4829988  47.1480012  18.8154997  88.1779988
  47.6510012  20.4484997  89.5349988  48.7080012  20.1064997  89.5199988
  47.7790012  21.5514997  89.4799988  46.8710012  20.0474997  90.7729988
  47.3820012  20.5594997  91.6169988  45.8060012  20.3504997  90.6809988
  47.0340012  18.6484997  91.0749988  46.5560012  17.9374997  90.3679988
  48.1200012  18.4684997  90.9269988  46.4620012  18.3184997  92.4329988
  45.3860012  18.5854997  92.5029988  46.5800012  17.2134997  92.4299988
  47.2410012  18.9604997  93.6449988  48.3460012  18.9264997  93.5369988
  46.9380012  20.0284997  93.6899988  46.8720012  18.3704997  95.0729988
  46.6090012  17.2914997  95.0609988  47.8120012  18.5504997  95.6379988
  45.7060012  19.1724997  95.7459988  46.1090012  20.1994997  95.8779988
  44.8360012  19.1584997  95.0549988  45.1190012  18.7314997  97.1699988
  44.3930012  19.5634997  97.2949988  44.6270012  17.7394997  97.0799988
  46.1020012  18.6894997  98.3509988  46.8280012  19.5174997  98.4979988
  45.4770012  18.8444997  99.2569988  46.7200012  17.3544997  98.4459988
  46.9610012  16.5884997  97.5639988  47.1520012  17.0914997  99.7999988
  47.5840012  15.7914997 100.0649988  47.0470012  15.2464997 100.8709988
  47.2690012  15.0994997  99.2549988  49.0790012  15.7374997 100.4409988
  49.4450012  14.7254997 100.7139988  49.4070012  16.6164997 101.7169988
  48.8030012  16.2784997 102.5869988  50.4820012  16.5404997 101.9839988
  49.0360012  17.9034997 101.3239988  49.6720012  19.2404997 101.8679988
  48.3940012  20.0894997 102.4119988  47.4320012  20.4304997 101.4229988
  47.7770012  20.2104997 100.3899988  46.5430012  19.7784997 101.5649988
  46.9890012  21.9744997 101.3679988  46.2170012  22.0804997 100.6199988
  46.5120012  22.2424997 102.2989988  48.0340012  22.9324997 101.1079988
  49.0360012  23.0024997 102.2289988  49.7400012  22.1844997 102.2109988
  49.4680012  23.9854997 102.1119988  48.4420012  23.0994997 103.1259988
  48.6530012  22.6484997  99.7749988  48.7200012  21.5764997  99.6549988
  48.1090012  23.0664997  98.9399988  49.6170012  23.0944997  99.5799988
  47.4660012  24.3134997 100.9789988  46.6720012  24.3804997 100.2499988
  48.1940012  25.0144997 100.5989988  47.1000012  24.5804997 101.9589988
  50.5980012  18.8944997 102.9919988  50.2090012  19.9554997 100.7029988
  49.9380012  16.2254997  99.4529988  50.0540012  15.6544997  98.2769988
  49.5960012  14.5694997  97.9679988  50.7580012  16.6814997  97.2499988
  51.6960012  16.9564997  97.7779988  50.1590012  17.6124997  97.1589988
  50.9860012  16.1214997  95.8509988  49.9950012  15.9844997  95.3689988
  51.6370012  15.2244997  95.7779988  51.7640012  17.1814997  95.0999988
  52.7250012  17.3284997  95.6379988  51.1230012  18.0864997  95.1589988
  51.9900012  16.7944997  93.6519988  52.7330012  15.9764997  93.5379988
  52.4480012  17.7394997  93.2879988  50.7270012  16.5854997  92.8049988
  50.0260012  17.4334997  92.9609988  50.1040012  15.6774997  92.9489988
  51.1460012  16.3704997  91.2989988  50.4510012  15.7074997  90.7409988
  52.1720012  15.9574997  91.1949988  51.0750012  17.6684997  90.4189988
  50.0460012  18.0824997  90.3479988  51.4180012  17.3774997  89.4029988
  51.8520012  18.8614997  90.9829988  51.5550012  19.1994997  91.9869988
  52.9450012  19.4264997  90.5189988  53.5840012  20.1124997  91.0949988
  53.7140012  19.0344997  89.3179988  53.3270012  18.1134997  88.8319988
  54.7500012  18.8064997  89.6469988  53.7780012  20.2374997  88.2509988
  54.7300012  20.0184997  87.7209988  54.0700012  21.1144997  88.8669988
  52.5160012  20.5564997  87.4719988  52.7060012  21.4504997  86.8399988
  51.7230012  20.8494997  88.1909988  52.0060012  19.4324997  86.4789988
  51.1570012  19.8564997  85.9009988  51.4800012  18.7094997  87.1379988
  53.0420012  18.8314997  85.4979988  53.9360012  18.4024997  85.9999988
  53.2120012  19.6044997  84.7179988  52.3920012  17.5764997  84.9299988
  52.0210012  17.1244997  85.8749988  53.1180012  16.8304997  84.5419988
  51.0950012  17.6434997  84.1029988  51.3320012  17.6514997  83.0169988
  50.6140012  18.6294997  84.2779988  50.0740012  16.4784997  84.3789988
  49.9360012  16.4174997  85.4799988  50.5490012  15.5754997  83.9389988
  49.1240012  16.7784997  83.8869988  12.3180012 109.5054997  80.8229988
  12.8340012 109.6064997  79.8439988  13.1070012 109.3424997  81.5879988
  11.6230012 110.2914997  81.1899988  11.4660012 108.2574997  80.4979988
  10.7060012 108.5464997  79.7399988  12.1140012 107.4384997  80.1179988
  10.7500012 107.7864997  81.8309988  11.4740012 107.9574997  82.6559988
   9.8130012 108.3694997  81.9539988  10.3640012 106.2444997  81.7789988
   9.5570012 106.2154997  81.0159988  11.1550012 105.5104997  81.5109988
   9.7360012 105.6824997  83.1119988   8.8900012 105.0064997  82.8659988
  10.4190012 105.1844997  83.8329988   9.1570012 106.7724997  84.1329988
   9.9650012 107.4424997  84.4969988   8.4470012 107.4014997  83.5539988
   8.6030012 106.0694997  85.3679988   8.0730012 105.1744997  84.9769988
   9.4640012 105.8154997  86.0219988   7.4780012 106.7494997  86.2089988
   6.6810012 106.9414997  85.4589988   7.1730012 106.0454997  87.0129988
   7.7170012 108.1784997  86.7959988   8.2200012 108.8504997  86.0679988
   6.7650012 108.6174997  87.1649988   8.5170012 108.1284997  88.0849988
   7.9490012 107.7094997  88.9429988   9.3820012 107.5004997  87.7829988
   8.9280012 109.5694997  88.5379988   9.3730012 110.0874997  87.6609988
   7.9800012 110.0904997  88.7899988   9.7140012 109.5974997  89.7739988
   9.7160012 110.6214997  90.2059988   9.1330012 109.0654997  90.5579988
  11.1490012 109.0534997  89.7869988  11.1210012 107.9664997  90.0149988
  11.5610012 109.1894997  88.7639988  12.0210012 109.7524997  90.8409988
  13.0510012 109.3344997  90.8459988  12.0650012 110.8114997  90.5099988
  11.5100012 109.9134997  92.2889988  12.0580012 110.7864997  92.7039988
  10.4160012 110.1084997  92.2909988  11.9550012 108.7214997  93.1589988
  12.6440012 107.8734997  92.6429988  11.3910012 108.7244997  94.3469988
  11.8790012 107.8234997  95.4049988  11.8620012 106.7414997  95.1569988
  12.9390012 108.1314997  95.5309988  10.9860012 108.0074997  96.6099988
  11.0390012 109.0264997  97.0489988  11.4500012 107.1044997  97.7999988
  11.6230012 106.1424997  97.2709988  12.3980012 107.4644997  98.2539988
  10.4730012 106.9484997  98.7839988  10.7930012 105.7794997  99.8139988
  12.0470012 106.4164997 100.5469988  11.9660012 107.7274997 101.0239988
  12.7550012 108.3374997 100.5349988  10.9990012 108.2014997 100.7479988
  12.0160012 107.6624997 102.5379988  12.1130012 108.6624997 102.9339988
  11.1100012 107.1444997 102.8149988  13.1540012 106.9774997 103.2659988
  13.0150012 105.4364997 103.1449988  13.0080012 105.1524997 102.1029988
  13.8040012 104.9054997 103.6559988  12.0580012 105.1294997 103.5399988
  14.3970012 107.5254997 102.5919988  15.1910012 106.9434997 103.0349988
  14.3340012 107.3574997 101.5269988  14.6140012 108.5434997 102.8809988
  13.0920012 107.3574997 104.7209988  13.3000012 108.4174997 104.7359988
  13.7420012 106.7234997 105.3079988  12.1160012 107.1734997 105.1439988
   9.6780012 105.5984997 100.7229988  11.2900012 104.5954997  99.0259988
   9.6800012 107.6044997  96.2549988   8.8550012 108.6194997  95.8459988
   9.2860012 109.7434997  95.7089988   7.4090012 108.1994997  95.7319988
   6.8300012 109.1424997  95.6279988   7.1200012 107.5974997  96.6189988
   7.3890012 107.0814997  94.6519988   6.3960012 106.5874997  94.5899988
   8.0770012 106.3514997  95.1299988   7.9180012 107.5784997  93.2859988
   8.7360012 108.3254997  93.3659988   6.9990012 108.0864997  92.9219988
   8.1830012 106.5024997  92.2419988   8.3160012 106.8544997  91.1959988
   7.3390012 105.7884997  92.3479988   9.4480012 105.7124997  92.6509988
   9.3640012 105.2254997  93.6459988  10.3110012 106.4124997  92.6779988
   9.6910012 104.6354997  91.5429988   9.8390012 105.1154997  90.5519988
   8.8350012 103.9304997  91.4759988  10.9320012 103.8504997  91.6699988
  10.8960012 102.9834997  90.9759988  10.9250012 103.4514997  92.7059988
  12.3470012 104.4884997  91.3589988  12.8300012 104.9644997  92.2249988
  13.0420012 104.5884997  90.2829988  14.0940012 104.8944997  90.3839988
  12.6160012 104.0754997  88.9229988  11.5060012 104.0754997  88.9639988
  12.9750012 103.0934997  88.5469988  12.9430012 105.1924997  87.8409988
  14.0500012 105.1404997  87.9089988  12.5350012 106.1904997  88.1089988
  12.5750012 104.8374997  86.4209988  11.5040012 104.5604997  86.3159988
  13.0850012 103.9734997  85.9419988  12.6970012 106.1014997  85.6019988
  12.0760012 106.9514997  85.9579988  12.3150012 105.9284997  84.5739988
  14.2210012 106.5134997  85.5459988  14.8560012 105.6074997  85.6449988
  14.5140012 107.1794997  86.3859988  14.6170012 107.3184997  84.3219988
  13.7710012 108.0274997  84.1969988  14.6710012 106.6864997  83.4099988
  15.9150012 108.0084997  84.3529988  16.7490012 107.2804997  84.4419988
  16.1060012 108.5684997  85.2929988  16.2090012 109.0284997  83.1859988
  16.0420012 108.5504997  82.1969988  17.1860012 109.5564997  83.2109988
  15.4680012 109.8504997  83.2859988 104.9620012 110.2214997  84.5079988
 104.4970012 109.2134997  84.5529988 105.2710012 110.4704997  83.4699988
 104.2430012 111.0374997  84.7329988 106.1780012 110.2624997  85.5239988
 105.7120012 110.0264997  86.5039988 106.9170012 109.4564997  85.3279988
 107.0120012 111.5504997  85.4449988 107.3210012 111.6774997  84.3849988
 106.2720012 112.3644997  85.5959988 108.1460012 111.6834997  86.4709988
 108.8850012 110.8874997  86.2369988 108.7130012 112.6254997  86.3099988
 107.8150012 111.5494997  87.9389988 107.4170012 112.4964997  88.3649988
 107.0070012 110.7874997  87.9299988 109.0620012 111.0474997  88.7539988
 109.7100012 110.3204997  88.2179988 109.7600012 111.8574997  89.0539988
 108.7380012 110.4744997  90.0929988 108.0540012 111.1804997  90.6089988
 108.1030012 109.5764997  89.9349988 109.8740012 110.1644997  91.0209988
 110.6990012 109.6114997  90.5229988 110.2780012 111.1044997  91.4529988
 109.4960012 109.1024997  92.0999988 109.0190012 108.3114997  91.4839988
 110.4590012 108.6284997  92.3879988 108.6490012 109.6244997  93.2609988
 107.7460012 110.0794997  92.7989988 108.2280012 108.8414997  93.9279988
 109.2780012 110.7944997  94.1439988 109.4870012 111.6354997  93.4489988
 108.5300012 111.2034997  94.8569988 110.5120012 110.3374997  94.9209988
 110.6390012 109.2434997  94.7769988 111.4270012 110.8034997  94.4959988
 110.4820012 110.6794997  96.3979988 110.5350012 111.7834997  96.5099988
 109.5530012 110.2154997  96.7949988 111.6020012 109.9894997  97.2319988
 111.3580012 108.9114997  97.1169988 112.5610012 110.2644997  96.7409988
 111.6220012 110.2794997  98.7509988 110.5650012 110.1834997  99.0799988
 112.0770012 109.4434997  99.3249988 112.2750012 111.5924997  99.1049988
 112.9900012 112.2424997  98.3589988 111.9130012 111.9024997 100.3389988
 112.3060012 113.1974997 100.8459988 112.8340012 113.0104997 101.8059988
 112.9450012 113.7464997 100.1219988 111.1020012 114.1434997 101.0459988
 111.3450012 115.1264997 101.5029988 110.1000012 113.4234997 102.0329988
 109.7370012 112.4344997 101.6799988 110.6090012 113.2674997 103.0079988
 108.9200012 114.2344997 102.2009988 107.8970012 113.7574997 103.2429988
 106.9830012 112.7114997 102.4109988 106.3130012 113.1354997 101.2149988
 105.4400012 113.7094997 101.5919988 106.9660012 113.8594997 100.6829988
 105.9070012 111.9444997 100.4099988 105.3100012 111.3084997 101.0469988
 105.3140012 112.2804997  99.5709988 107.0530012 111.1394997  99.8499988
 107.9530012 112.0054997  99.0909988 108.3200012 112.8614997  99.6379988
 108.7960012 111.4154997  98.7609988 107.4830012 112.4054997  98.2049988
 107.7580012 110.4234997 100.9719988 108.1670012 111.1394997 101.6689988
 106.9860012 109.8024997 101.3999988 108.5670012 109.8554997 100.5389988
 106.5780012 110.1524997  98.8739988 106.1010012 110.6114997  98.0209988
 105.9930012 109.4194997  99.4099988 107.3780012 109.5724997  98.4379988
 108.6010012 112.9814997 104.2859988 107.1130012 114.9534997 103.6279988
 110.4700012 114.3754997  99.7999988 109.6360012 115.4704997  99.7929988
 109.6130012 116.2854997 100.6359988 108.9040012 115.5574997  98.4199988
 108.3410012 116.4994997  98.5959988 108.2640012 114.6624997  98.2669988
 109.9990012 115.8174997  97.3319988 110.3930012 114.8304997  97.0079988
 110.7690012 116.4434997  97.8319988 109.4420012 116.6124997  96.1269988
 110.2450012 116.8444997  95.3959988 109.0450012 117.5394997  96.5929988
 108.3300012 115.9854997  95.2769988 107.7210012 116.7324997  94.7249988
 107.6950012 115.3254997  95.9049988 108.9840012 115.1124997  94.1289988
 109.4860012 114.1964997  94.5079988 109.7850012 115.7524997  93.6999988
 107.9290012 114.7354997  93.0279988 107.0110012 115.3594997  92.9999988
 107.4000012 113.8244997  93.3809988 108.3120012 114.6204997  91.5609988
 107.5460012 114.0194997  91.0249988 109.2450012 114.0174997  91.5399988
 108.4600012 115.9294997  90.8239988 107.5380012 116.5244997  90.7529988
 109.6210012 116.4104997  90.2489988 109.5500012 117.3754997  89.7249988
 110.9130012 115.7604997  90.2789988 111.1800012 115.5054997  91.3269988
 111.7710012 116.3994997  89.9829988 111.0640012 114.4224997  89.4829988
 110.4000012 113.6714997  89.9629988 112.1470012 114.1974997  89.5839988
 110.7890012 114.4564997  87.9369988 109.7830012 114.8914997  87.7589988
 110.7690012 113.3734997  87.6879988 111.7560012 115.2874997  87.0249988
 112.7640012 114.8254997  87.0929988 111.8620012 116.3364997  87.3739988
 111.2700012 115.4204997  85.5809988 111.9110012 116.1994997  85.1169988
 110.2430012 115.8234997  85.7109988 111.1150012 114.2504997  84.7109988
 111.1790012 114.6074997  83.6609988 110.0680012 113.8844997  84.7649988
 112.0440012 113.1154997  85.0579988 111.7690012 112.7324997  86.0639988
 113.0820012 113.5024997  84.9829988 111.9270012 111.9474997  84.0649988
 112.4900012 111.0964997  84.5039988 112.3200012 112.1014997  83.0369988
 110.8820012 111.6464997  83.8399988  70.0590012 129.9414997  84.2529988
  70.8420012 130.5984997  83.8159988  69.7320012 129.1604997  83.5329988
  70.4230012 129.4174997  85.1629988  68.8190012 130.7584997  84.6449988
  69.2340012 131.4574997  85.4029988  68.5760012 131.3734997  83.7519988
  67.6410012 130.0054997  85.2509988  67.2960012 129.4744997  84.3379988
  68.1680012 129.3374997  85.9649988  66.6160012 130.8804997  85.9069988
  66.3030012 131.7264997  85.2589988  65.6780012 130.3014997  86.0449988
  67.1510012 131.5634997  87.1879988  67.4810012 130.7684997  87.8899988
  68.0430012 132.1634997  86.9079988  66.1770012 132.5704997  87.9269988
  66.7750012 132.9624997  88.7779988  65.9280012 133.3884997  87.2169988
  64.8580012 131.9864997  88.4459988  64.2040012 131.7734997  87.5729988
  65.2040012 131.0744997  88.9779988  64.1040012 132.9364997  89.4239988
  64.8980012 133.3134997  90.1039988  63.6970012 133.8004997  88.8569988
  62.8020012 132.3354997  90.0609988  62.3810012 133.0834997  90.7669988
  62.0700012 132.2314997  89.2319988  62.8750012 130.9184997  90.6659988
  61.7950012 130.6694997  90.7349988  63.3300012 130.0904997  90.0809988
  63.3850012 130.8774997  92.0629988  64.4550012 131.1664997  91.9869988
  62.7130012 131.5724997  92.6089988  63.4630012 129.4714997  92.7059988
  62.4600012 129.0014997  92.6199988  64.2500012 128.8754997  92.1969988
  63.7950012 129.5474997  94.1569988  64.8790012 129.3424997  94.2869988
  63.7930012 130.6194997  94.4479988  62.9370012 128.8254997  95.1959988
  61.8720012 129.1024997  95.0419988  62.9040012 127.7694997  94.8529988
  63.3070012 129.0974997  96.7019988  63.4050012 130.1854997  96.9009988
  62.3590012 128.7634997  97.1749988  64.5040012 128.2514997  97.1019988
  64.4050012 127.0514997  97.3319988  65.5380012 129.0174997  97.3789988
  66.7130012 128.3184997  97.6779988  66.6740012 127.7124997  98.6079988
  67.0010012 127.6604997  96.8299988  67.8910012 129.3204997  97.8519988
  68.7730012 128.6844997  98.0799988  67.6180012 130.3544997  98.9629988
  67.6170012 129.7554997  99.8989988  68.5080012 131.0164997  99.0189988
  66.4290012 131.1424997  98.7279988  65.6800012 131.5994997 100.0789988
  65.5590012 130.1734997 100.8429988  66.0950012 130.1734997 102.1689988
  67.1380012 130.5444997 102.0669988  65.5470012 130.8414997 102.8669988
  66.1690012 128.7114997 102.6959988  66.7890012 128.1434997 102.0169988
  66.5760012 128.7684997 103.6939988  64.8570012 127.8424997 102.7529988
  63.8790012 128.4874997 103.6489988  64.0280012 128.2724997 104.6969988
  63.8390012 129.5604997 103.5319988  62.9080012 128.1464997 103.3229988
  64.3180012 127.6574997 101.3449988  65.1040012 127.0664997 100.8979988
  63.3960012 127.1164997 101.4969988  64.1840012 128.6364997 100.9089988
  65.2550012 126.4504997 103.2639988  64.4210012 125.8274997 102.9789988
  65.4610012 126.4294997 104.3239988  66.1510012 126.1494997 102.7419988
  66.5340012 132.5764997 100.8529988  64.2940012 132.0424997  99.8019988
  68.0600012 130.0404997  96.6519988  68.6750012 129.3674997  95.6309988
  69.4510012 128.4284997  95.7549988  68.4120012 130.1144997  94.3309988
  69.0500012 131.0244997  94.3459988  67.3520012 130.4414997  94.2619988
  68.5890012 129.1574997  93.1249988  67.9790012 128.2464997  93.3059988
  69.6910012 129.0154997  93.1089988  68.2220012 129.7874997  91.7739988
  68.8020012 130.7204997  91.6029988  67.1580012 130.0654997  91.6179988
  68.6410012 128.9014997  90.5839988  69.7510012 128.8594997  90.5769988
  68.3930012 129.4674997  89.6599988  68.0280012 127.4684997  90.4729988
  68.3090012 126.9134997  91.3929988  68.4610012 126.9674997  89.5809988
  66.4520012 127.5674997  90.2919988  66.0480012 128.2324997  91.0849988
  65.8780012 126.6234997  90.4029988  65.9540012 128.2594997  89.0049988
  66.2570012 129.3254997  88.9399988  64.8890012 128.3014997  89.3199988
  66.1510012 127.4744997  87.7489988  67.1710012 127.1694997  87.4729988
  65.2260012 127.2964997  86.7779988  65.5190012 126.7394997  85.8749988
  63.7500012 127.7694997  86.7139988  63.5510012 128.3294997  87.6539988
  63.0340012 126.9244997  86.6249988  63.4520012 128.7824997  85.6499988
  63.6860012 129.8464997  85.8679988  62.3520012 128.7704997  85.4909988
  63.8850012 128.3334997  84.2659988  63.5760012 127.2664997  84.3039988
  64.9700012 128.5574997  84.1729988  63.1540012 129.0024997  83.1649988
  62.0720012 128.8364997  83.3549988  63.3620012 128.4324997  82.2339988
  63.2860012 130.5004997  82.9919988  64.3410012 130.6864997  82.6959988
  63.0550012 131.1014997  83.8969988  62.4640012 131.1864997  81.8409988
  61.3780012 131.2014997  82.0719988  62.6030012 130.5564997  80.9369988
  62.8580012 132.6434997  81.2989988  63.8970012 132.6914997  80.9059988
  62.9060012 133.3484997  82.1559988  61.9660012 133.2064997  80.1529988
  62.2670012 132.5634997  79.2989988  62.2840012 134.2614997  80.0049988
  60.8800012 133.1064997  80.3639988  28.5380012 122.4714997  85.1969988
  28.5910012 123.5574997  84.9669988  28.5020012 121.7604997  84.3449988
  29.3210012 122.2914997  85.9649988  27.1270012 122.2914997  85.7989988
  26.4060012 122.4734997  84.9729988  27.0070012 121.2174997  86.0599988
  26.8540012 123.2244997  86.9939988  27.5730012 124.0674997  87.0729988
  25.8590012 123.7144997  87.0559988  26.9260012 122.4024997  88.3229988
  26.3390012 121.4594997  88.3069988  27.9990012 122.1144997  88.3499988
  26.3920012 123.1424997  89.5599988  26.9260012 124.0564997  89.8979988
  25.4450012 123.5924997  89.1899988  26.1730012 122.2034997  90.7379988
  25.6210012 121.3074997  90.3839988  27.2130012 121.9424997  91.0309988
  25.6000012 122.9234997  91.9499988  24.5190012 123.1144997  91.7809988
  25.4820012 122.2024997  92.7869988  26.4690012 124.1554997  92.4099988
  27.4540012 123.6594997  92.5509988  26.5440012 124.8804997  91.5719988
  25.9660012 125.0224997  93.5979988  26.7570012 125.7854997  93.7619988
  25.1440012 125.5954997  93.1189988  25.6970012 124.2704997  94.9069988
  25.1570012 124.9184997  95.6299988  25.0000012 123.4474997  94.6409988
  27.0060012 123.7124997  95.7019988  27.6030012 123.0384997  95.0519988
  27.5450012 124.6434997  95.9799988  26.7580012 122.7184997  96.8349988
  26.4310012 123.3254997  97.7059988  25.8440012 122.1764997  96.5099988
  27.8750012 121.6644997  97.0299988  27.3870012 120.9804997  97.7579988
  28.0130012 121.0724997  96.0999988  29.1550012 122.1284997  97.6949988
  28.9130012 122.9734997  98.3749988  29.6910012 121.3634997  98.2959988
  30.2240012 122.5424997  96.6639988  30.5070012 121.6264997  96.1009988
  29.7480012 123.3074997  96.0139988  31.5000012 123.1494997  97.2789988
  32.6560012 122.9074997  96.9669988  31.1080012 123.8524997  98.3209988
  32.0700012 124.4114997  99.1809988  32.4040012 123.5894997  99.8499988
  32.8790012 124.8404997  98.5519988  31.3580012 125.7284997  99.8139988
  32.1050012 126.4024997 100.2849988  30.2970012 125.4834997 100.8699988
  30.6860012 124.7404997 101.5989988  30.2280012 126.3914997 101.5059988
  29.1040012 125.0014997 100.3449988  27.7570012 125.9294997 100.4919988
  26.8570012 124.9084997 101.2999988  27.3350012 124.4324997 102.5569988
  28.2170012 123.7934997 102.3379988  27.4700012 125.3124997 103.2219988
  26.3780012 123.3994997 103.1479988  26.7210012 122.9214997 104.0529988
  25.4740012 123.8904997 103.4749988  26.0250012 122.2084997 102.1699988
  27.2860012 121.5484997 101.7789988  27.9180012 121.2744997 102.6109988
  27.0350012 120.6344997 101.2629988  27.8820012 122.1204997 101.0829988
  25.1610012 121.1534997 102.9229988  24.3070012 121.7604997 103.1859988
  24.9280012 120.2694997 102.3479988  25.7640012 120.8754997 103.7739988
  25.2120012 122.6404997 100.9619988  25.9260012 123.0464997 100.2599988
  24.4710012 123.2854997 101.4099988  24.8530012 121.6864997 100.6039988
  28.0000012 127.1384997 101.3419988  27.1980012 126.1544997  99.1629988
  30.7740012 126.4694997  98.7439988  31.5410012 127.1394997  97.8839988
  32.7560012 127.1104997  97.9299988  30.6060012 127.6794997  96.7749988
  30.8000012 128.7634997  96.6289988  29.5460012 127.5934997  97.0979988
  30.8800012 126.8654997  95.4219988  30.9370012 125.7944997  95.7109988
  31.7940012 127.2294997  94.9079988  29.6390012 126.9144997  94.5299988
  29.6210012 127.8964997  94.0109988  28.6960012 126.7664997  95.0979988
  29.6400012 125.8754997  93.3779988  28.7440012 126.0444997  92.7429988
  29.3960012 124.9864997  93.9979988  30.9350012 125.8134997  92.4879988
  30.8130012 125.0714997  91.6699988  31.7110012 125.5204997  93.2269988
  31.1570012 127.0694997  91.6319988  32.1620012 126.9764997  91.1689988
  31.1440012 128.0414997  92.1699988  30.0660012 127.3064997  90.4659988
  30.2440012 128.3364997  90.0889988  29.0470012 127.4214997  90.8939988
  30.1750012 126.2244997  89.3019988  29.5610012 125.3234997  89.4499988
  30.9280012 126.2554997  88.2219988  30.8360012 125.3844997  87.5549988
  31.9470012 127.2924997  87.9209988  31.8600012 128.0004997  88.7729988
  31.7000012 127.8604997  86.9989988  33.4210012 126.9324997  87.9129988
  33.7040012 126.4894997  88.8919988  34.0500012 127.8194997  87.6879988
  33.8290012 125.8424997  86.9109988  33.1570012 124.9934997  87.1619988
  34.8420012 125.6444997  87.3229988  33.8020012 126.2594997  85.4259988
  34.4030012 127.1844997  85.2939988  32.7950012 126.4614997  85.0039988
  34.4810012 125.1534997  84.6919988  34.7180012 124.3014997  85.3649988
  35.4450012 125.4734997  84.2429988  33.8560012 124.7254997  83.3389988
  33.6030012 125.6634997  82.8009988  32.9410012 124.1714997  83.6399988
  34.7800012 123.9054997  82.4539988  35.1650012 122.9894997  82.9519988
  35.7410012 124.4134997  82.2219988  34.0640012 123.5324997  81.1509988
  33.0290012 123.1694997  81.3309988  34.5810012 122.6994997  80.6289988
  34.1340012 124.4334997  80.5049988  56.8090012  19.0144997  84.4149988
  57.5310012  18.2384997  84.0809988  57.0780012  19.9054997  83.8079988
  55.8420012  18.5314997  84.1589988  56.8470012  19.3324997  85.9559988
  56.0910012  20.1094997  86.1999988  56.7020012  18.3704997  86.4929988
  58.2260012  19.7684997  86.4689988  58.9480012  19.0354997  86.0489988
  58.5310012  20.7994997  86.1899988  58.2950012  19.6904997  87.9999988
  57.3510012  20.1534997  88.3599988  58.2480012  18.6204997  88.2959988
  59.4090012  20.5074997  88.7089988  59.5350012  21.3964997  88.0539988
  59.0260012  20.7034997  89.7329988  60.7350012  19.8484997  88.7169988
  61.2530012  19.9934997  87.7449988  61.3260012  20.3884997  89.4869988
  60.7600012  18.3724997  89.0349988  60.2450012  17.7544997  88.2689988
  61.8060012  17.9994997  89.0839988  60.0310012  18.2384997  90.3959988
  60.4900012  18.9634997  91.1009988  58.9610012  18.5344997  90.3449988
  60.1660012  16.7774997  90.8979988  59.8710012  16.1614997  90.0219988
  61.2170012  16.7154997  91.2519988  59.0690012  16.4524997  91.9739988
  59.1840012  17.1924997  92.7939988  58.0360012  16.5474997  91.5759988
  59.1310012  14.9984997  92.4899988  58.7650012  14.2654997  91.7399988
  60.1980012  14.7134997  92.6119988  58.2910012  14.7114997  93.7909988
  57.1970012  14.8464997  93.6529988  58.3890012  13.6164997  93.9489988
  58.8420012  15.4534997  95.0469988  58.9520012  16.5204997  94.7589988
  58.0080012  15.3064997  95.7659988  60.0760012  14.7104997  95.7359988
  59.7290012  13.6794997  95.9619988  60.9260012  14.6274997  95.0249988
  60.6120012  15.4114997  97.0419988  59.8350012  15.4314997  97.8359988
  61.4960012  14.8374997  97.3929988  61.0540012  16.8184997  96.7549988
  61.5750012  17.1724997  95.7199988  60.6550012  17.6094997  97.7309988
  60.7680012  19.0344997  97.6919988  61.4820012  19.2534997  98.5149988
  61.1400012  19.4394997  96.7259988  59.4330012  19.6794997  98.0079988
  59.5310012  20.7854997  98.0049988  59.0520012  19.2804997  99.4899988
  59.9150012  19.7334997 100.0239988  58.1550012  19.8614997  99.7929988
  58.8450012  17.8854997  99.6889988  58.8880012  17.2934997 101.1739988
  57.3920012  17.3414997 101.5129988  56.2840012  17.5254997 100.6459988
  56.3590012  18.5104997 100.1379988  56.3530012  16.8124997  99.7959988
  54.9050012  17.3714997 101.3239988  55.0320012  18.0774997 102.1319988
  54.1550012  17.5384997 100.5659988  54.5580012  16.0464997 101.9799988
  55.1960012  15.9054997 103.3249988  54.7570012  15.1564997 103.9679988
  56.2410012  15.6744997 103.1849988  55.1730012  16.8494997 103.8499988
  53.0790012  15.9784997 102.2729988  52.6680012  16.9294997 102.5799988
  52.4820012  15.4974997 101.5129988  53.0200012  15.3634997 103.1589988
  54.9690012  14.9484997 101.0159988  54.2260012  15.0234997 100.2359988
  55.0050012  13.9764997 101.4859988  55.9380012  15.0804997 100.5579988
  59.2640012  15.8864997 101.1319988  59.5270012  18.2404997 102.1089988
  58.4620012  19.2764997  97.1539988  57.3040012  19.8894997  97.2469988
  56.9430012  20.8104997  97.9209988  56.3230012  19.2214997  96.2159988
  55.6250012  18.5954997  96.8119988  56.8520012  18.6014997  95.4609988
  55.4490012  20.2914997  95.5139988  54.8380012  20.9134997  96.2029988
  54.7330012  19.7034997  94.9009988  56.1370012  21.2874997  94.5569988
  56.7000012  21.9324997  95.2649988  55.3680012  21.7904997  93.9329988
  57.0450012  20.5654997  93.5509988  57.8020012  20.0314997  94.1629988
  57.7670012  21.1734997  92.9669988  56.3550012  19.6214997  92.5439988
  55.7590012  18.8974997  93.1389988  57.1790012  19.0794997  92.0329988
  55.5620012  20.3544997  91.4559988  56.3690012  20.6394997  90.7469988
  55.1310012  21.2794997  91.8949988  54.5500012  19.4034997  90.7859988
  55.2140012  18.6324997  90.3409988  54.0410012  19.8774997  89.9189988
  53.4100012  18.7454997  91.5779988  52.6170012  19.4174997  91.9359988
  53.4320012  17.5714997  92.1619988  52.5770012  17.2744997  92.7869988
  54.5310012  16.5744997  92.1589988  54.6440012  16.1194997  93.1659988
  55.5480012  16.9884997  91.9879988  54.3220012  15.3244997  91.2799988
  53.3640012  14.8484997  91.5799988  55.2000012  14.6614997  91.4329988
  54.4020012  15.5544997  89.7819988  55.1930012  16.2764997  89.4869988
  53.4060012  15.9534997  89.4929988  54.7010012  14.2514997  89.0569988
  53.8750012  13.5114997  89.1219988  55.4970012  13.8164997  89.6989988
  54.9120012  14.3554997  87.5479988  55.1970012  13.3484997  87.1749988
  55.8210012  14.9524997  87.3249988  53.7770012  14.8474997  86.6929988
  53.5520012  15.8754997  87.0509988  52.8040012  14.3174997  86.7709988
  54.3450012  15.0034997  85.2949988  54.4400012  13.9784997  84.8759988
  55.2710012  15.6154997  85.3329988  53.3720012  15.7744997  84.3099988
  52.4360012  15.2734997  83.9839988  53.9330012  16.1494997  83.4279988
  52.8580012  16.6614997  84.7379988  44.5090012  27.6534997  84.6099988
  43.6160012  28.1254997  84.1489988  45.1470012  27.2994997  83.7719988
  45.1720012  28.3694997  85.1419988  44.0300012  26.5684997  85.6319988
  44.9790012  26.0574997  85.8999988  43.6650012  27.1234997  86.5229988
  43.0280012  25.6054997  85.0449988  42.1490012  26.1954997  84.7059988
  43.5150012  25.0924997  84.1879988  42.5320012  24.4934997  85.9779988
  42.1510012  23.6914997  85.3099988  43.4010012  24.2974997  86.6409988
  41.5290012  25.0494997  86.9209988  41.8710012  25.9354997  87.4969988
  40.7530012  25.4394997  86.2289988  40.9650012  24.0194997  87.8789988
  40.0170012  24.5094997  88.1889988  40.6550012  23.1114997  87.3179988
  41.8570012  23.5784997  89.0989988  41.2970012  22.8524997  89.7259988
  42.8100012  23.1014997  88.7839988  42.0880012  24.8444997  89.9859988
  42.4450012  25.6734997  89.3389988  41.1980012  25.1454997  90.5789988
  43.1360012  24.5984997  91.0439988  44.0910012  24.5144997  90.4839988
  43.1950012  25.4494997  91.7559988  43.0810012  23.3284997  91.9299988
  42.0700012  23.2434997  92.3819988  43.3240012  22.3904997  91.3869988
  44.0820012  23.3274997  93.1169988  43.9760012  22.4634997  93.8079988
  45.1040012  23.2134997  92.6959988  44.0700012  24.6344997  93.9589988
  44.8130012  24.5634997  94.7819988  44.3920012  25.5214997  93.3719988
  42.7560012  24.7854997  94.7129988  41.9120012  25.0614997  94.0449988
  42.5550012  23.8074997  95.1999988  42.9590012  25.8044997  95.8849988
  42.0370012  25.8174997  96.5029988  43.8100012  25.6044997  96.5709988
  42.9310012  27.2464997  95.3829988  43.3860012  27.4194997  94.3839988
  41.8840012  27.5234997  95.1359988  43.6250012  28.1754997  96.4149988
  44.7780012  28.6094997  96.3249988  42.7190012  28.4974997  97.3249988
  43.1170012  29.1814997  98.4839988  44.1660012  29.5434997  98.4359988
  42.4910012  30.0984997  98.5179988  42.7350012  28.4154997  99.8069988
  43.0090012  29.0034997 100.7089988  43.7080012  27.1454997  99.9579988
  44.7190012  27.5334997  99.7109988  43.8450012  27.0124997 101.0529988
  43.2410012  26.0384997  99.1149988  42.7080012  24.7654997  99.7789988
  41.5220012  25.2534997 100.6769988  40.5990012  24.2354997 101.1909988
  40.1190012  23.7954997 100.2899988  41.1250012  23.5084997 101.8459988
  39.3710012  24.8514997 102.0569988  38.8160012  25.4284997 101.3309988
  38.7790012  24.0334997 102.4399988  39.9120012  25.6974997 103.1819988
  40.5090012  26.9984997 102.6949988  39.7060012  27.4704997 102.1489988
  40.7060012  27.6204997 103.5559988  41.4300012  26.7304997 102.1989988
  38.8360012  26.0574997 104.1299988  38.7970012  25.2234997 104.8149988
  39.1490012  26.9904997 104.5739988  37.8700012  26.0534997 103.6469988
  40.9820012  25.0434997 103.9919988  41.7960012  24.6854997 103.3779988
  40.5510012  24.1604997 104.4399988  41.2460012  25.6604997 104.8379988
  42.2040012  23.8754997  98.7049988  43.7290012  24.1374997 100.6579988
  41.4100012  28.0064997  99.7619988  40.4890012  28.9574997  99.7969988
  40.6240012  30.1464997 100.1079988  39.1020012  28.3034997  99.5849988
  38.3940012  28.9084997  98.9799988  38.6690012  28.0484997 100.5759988
  39.2250012  26.9344997  98.8689988  39.7690012  26.1874997  99.4849988
  39.8020012  27.0414997  97.9259988  37.8210012  26.3244997  98.5919988
  37.2990012  26.8144997  97.7419988  37.2620012  26.3884997  99.5499988
  37.7590012  24.7614997  98.2769988  36.7060012  24.4084997  98.2509988
  38.1940012  24.0594997  99.0209988  38.4360012  24.4604997  96.9339988
  38.7920012  23.4144997  96.8169988  39.2450012  25.1964997  96.7409988
  37.3540012  24.7154997  95.8479988  37.0280012  25.7754997  95.9219988
  36.5260012  24.0134997  96.0839988  37.7340012  24.5294997  94.3439988
  36.8620012  24.5844997  93.6579988  38.1060012  23.4834997  94.3169988
  38.8810012  25.3584997  93.9419988  39.6920012  25.5744997  94.6519988
  38.9380012  26.1094997  92.8399988  39.7840012  26.7774997  92.6179988
  37.8060012  26.2654997  91.8439988  36.8100012  26.2864997  92.3359988
  37.9120012  25.4874997  91.0579988  37.9020012  27.6524997  91.2069988
  37.6950012  28.4704997  91.9289988  37.1310012  27.6154997  90.4079988
  39.1590012  28.0834997  90.4109988  40.1020012  27.9124997  90.9729988
  38.9950012  29.1824997  90.4289988  39.4480012  27.5584997  89.0299988
  38.4740012  27.5964997  88.4969988  39.7240012  26.4914997  89.1699988
  40.4770012  28.2004997  88.1109988  40.5770012  27.6894997  87.1299988
  41.4680012  28.2474997  88.6129988  40.1000012  29.6244997  87.5269988
  40.7550012  30.3854997  88.0039988  39.0200012  29.8674997  87.6119988
  40.4450012  29.7804997  86.0379988  39.6580012  29.2214997  85.4879988
  41.4270012  29.3334997  85.7749988  40.3480012  31.2244997  85.3679988
  40.2140012  31.0624997  84.2769988  41.3170012  31.7594997  85.4689988
  39.4150012  31.7054997  85.7329988  51.4020012 124.4994997  85.7049988
  52.4300012 124.1204997  85.5199988  50.7020012 123.7054997  85.3669988
  51.2950012 124.7464997  86.7829988  51.1710012 125.8034997  84.9559988
  52.0640012 126.4524997  85.0759988  51.1730012 125.6304997  83.8579988
  49.9030012 126.4504997  85.3929988  48.9660012 126.0494997  84.9499988
  49.8180012 126.2674997  86.4859988  49.8840012 127.9994997  85.0069988
  50.1360012 128.0644997  83.9269988  48.8450012 128.3654997  85.1489988
  50.8710012 128.9494997  85.7099988  51.8850012 128.6144997  85.4049988
  50.7710012 130.0004997  85.3639988  50.8820012 128.9494997  87.2549988
  51.1780012 127.9344997  87.5959988  51.7830012 129.5114997  87.5829988
  49.5480012 129.3634997  87.8149988  49.3410012 130.4524997  87.7399988
  48.7800012 128.8554997  87.1939988  49.4310012 129.1484997  89.3099988
  48.4260012 129.3584997  89.7339988  49.5250012 128.0544997  89.4779988
  50.5740012 129.7294997  90.2059988  51.5350012 129.2734997  89.8859988
  50.6390012 130.8124997  89.9649988  50.1490012 129.4424997  91.6729988
  49.1290012 129.8134997  91.9109988  50.2820012 128.3454997  91.7869988
  51.1580012 129.9164997  92.7689988  52.2040012 129.6504997  92.5039988
  51.0770012 131.0224997  92.8399988  50.8730012 129.3324997  94.1599988
  49.7980012 129.0974997  94.3159988  51.4160012 128.3644997  94.1349988
  51.5010012 130.2994997  95.2169988  51.5150012 129.7974997  96.2079988
  52.5740012 130.5424997  95.0649988  50.7810012 131.6114997  95.4799988
  50.5350012 132.2504997  94.6049988  49.7930012 131.4084997  95.9439988
  51.4640012 132.4114997  96.6229988  51.9140012 131.8074997  97.4389988
  52.2510012 133.0154997  96.1229988  50.3770012 133.3204997  97.2789988
  49.5380012 133.9264997  96.6519988  50.5720012 133.3484997  98.6399988
  49.4690012 134.0464997  99.3069988  49.8650012 135.0574997  99.5459988
  48.6200012 134.2154997  98.6109988  48.9460012 133.2474997 100.4579988
  48.2930012 133.9374997 101.0339988  50.0510012 132.7884997 101.4429988
  50.6750012 132.0264997 100.9289988  50.7280012 133.6484997 101.6349988
  49.6580012 132.3644997 102.7099988  49.1420012 130.8654997 102.8579988
  50.0050012 129.9994997 101.8139988  51.0790012 129.3154997 102.3129988
  51.8560012 129.8414997 102.9079988  50.6770012 128.5014997 102.9539988
  51.9530012 128.7184997 101.1529988  52.5210012 129.5994997 100.8899988
  52.5720012 127.9794997 101.6409988  51.2710012 128.2064997  99.9269988
  50.1140012 127.4024997 100.3579988  49.3100012 128.0004997 100.7609988
  49.7130012 126.8604997  99.5139988  50.4390012 126.7074997 101.1179988
  50.6730012 129.3134997  99.1099988  50.0260012 129.9854997  99.6539988
  51.4680012 129.8994997  98.6729988  50.1470012 128.9254997  98.2509988
  52.3040012 127.3544997  99.2069988  52.6620012 126.5894997  99.8799988
  53.1440012 127.9714997  98.9239988  51.9710012 126.9334997  98.2699988
  49.4390012 130.4614997 104.2639988  47.7280012 130.8484997 102.4659988
  48.2670012 132.0644997  99.9119988  46.9930012 132.1724997  99.6469988
  46.3830012 133.2544997  99.8179988  46.3790012 130.8764997  99.3229988
  45.9510012 130.2904997 100.1639988  47.1630012 130.1334997  99.0629988
  45.4190012 131.1754997  98.1689988  46.0000012 131.4934997  97.2769988
  44.6990012 131.9904997  98.3939988  44.5530012 129.8964997  97.7819988
  43.7440012 130.4494997  97.2579988  44.2530012 129.5814997  98.8039988
  45.1950012 128.7824997  97.0549988  44.4000012 128.0844997  96.7169988
  45.8450012 128.2314997  97.7679988  46.0630012 129.2064997  95.8409988
  46.5130012 128.3834997  95.2449988  47.0300012 129.6654997  96.1389988
  45.2720012 130.0584997  94.8679988  44.8880012 131.0174997  95.2769988
  44.3410012 129.5234997  94.5819988  46.1190012 130.3494997  93.5949988
  45.4460012 130.6304997  92.7569988  46.6450012 129.4004997  93.3559988
  47.2090012 131.3594997  93.8549988  47.8610012 131.1474997  94.7149988
  47.3880012 132.5014997  93.2339988  48.1800012 133.1904997  93.5619988
  46.5080012 133.1064997  92.1349988  45.8980012 133.9284997  92.5679988
  45.8390012 132.2854997  91.8009988  47.3070012 133.7724997  90.9939988
  47.7890012 134.6964997  91.3799988  46.6520012 133.9684997  90.1189988
  48.4870012 132.9254997  90.4249988  48.2200012 131.9864997  89.8939988
  49.1250012 132.5444997  91.2519988  49.0560012 133.7534997  89.2489988
  49.3420012 134.7914997  89.5249988  48.2300012 133.7464997  88.5049988
  50.3490012 133.2504997  88.5279988  50.1210012 132.2234997  88.1699988
  51.0720012 133.2574997  89.3709988  50.6940012 134.0794997  87.3609988
  51.0210012 135.0874997  87.6929988  49.8400012 134.1984997  86.6609988
  51.8890012 133.5084997  86.5369988  51.4540012 132.7624997  85.8379988
  52.6830012 132.9514997  87.0779988  52.6640012 134.6114997  85.7909988
  53.2500012 135.2254997  86.5069988  51.8850012 135.2004997  85.2619988
  53.3260012 134.1584997  85.0219988  78.3450012  13.6864997  84.1789988
  78.2310012  13.9494997  83.1049988  78.0740012  12.6124997  84.0999988
  79.3580012  13.6844997  84.6349988  77.1810012  14.4164997  84.9239988
  76.3220012  14.2774997  84.2329988  76.8320012  13.9114997  85.8499988
  77.4520012  15.8954997  85.1779988  77.4830012  16.4784997  84.2329988
  76.4730012  16.2614997  85.5549988  78.6320012  16.1674997  86.0549988
  79.4990012  15.8454997  85.4409988  78.6770012  17.2774997  86.0509988
  78.6640012  15.5044997  87.4179988  77.8120012  16.0564997  87.8719988
  78.4280012  14.4204997  87.3549988  79.9690012  15.7774997  88.2729988
  80.7190012  15.1924997  87.6989988  80.1770012  16.8684997  88.3149988
  79.8240012  15.3824997  89.7179988  79.1340012  16.0554997  90.2709988
  79.4000012  14.3554997  89.7419988  81.0690012  15.4144997  90.6699988
  81.6230012  14.4514997  90.6809988  81.7960012  16.1714997  90.3049988
  80.7660012  15.5984997  92.1879988  81.6450012  15.8614997  92.8139988
  80.0290012  16.4164997  92.3349988  80.0060012  14.3324997  92.7709988
  79.7740012  14.7014997  93.7929988  79.1000012  14.1174997  92.1649988
  80.9730012  13.0814997  92.7199988  81.1880012  12.6194997  91.7329988
  81.9410012  13.4104997  93.1539988  80.4400012  11.9844997  93.6719988
  79.6970012  11.3454997  93.1489988  81.2630012  11.2734997  93.9009988
  80.0090012  12.3374997  95.1159988  79.1220012  13.0064997  95.0969988
  79.6760012  11.4714997  95.7269988  81.1920012  13.0624997  95.8569988
  82.1700012  12.5384997  95.7969988  81.3310012  14.0424997  95.3529988
  80.9300012  13.4524997  97.3379988  80.4240012  12.5784997  97.8009988
  81.9190012  13.6894997  97.7849988  80.0900012  14.7684997  97.4169988
  79.9990012  15.5964997  96.5299988  79.4460012  14.8614997  98.5809988
  78.6300012  16.0864997  98.6659988  78.5370012  16.3724997  99.7359988
  79.1340012  16.8704997  98.0609988  77.1290012  15.8824997  98.1869988
  76.5260012  16.8084997  98.3109988  76.3500012  14.9144997  99.1069988
  76.5010012  15.3084997 100.1339988  75.2430012  14.9274997  99.0149988
  76.8290012  13.5694997  99.0109988  77.4220012  12.8304997 100.2859988
  78.2220012  14.0904997 101.0579988  78.4460012  13.9354997 102.4389988
  78.7940012  14.8694997 102.9279988  77.5310012  13.6514997 103.0019988
  79.5720012  12.8624997 102.7979988  79.5950012  12.6184997 103.8499988
  79.3810012  11.9234997 102.2989988  80.9950012  13.1194997 102.4559988
  81.7850012  11.9884997 103.1099988  81.3370012  11.0594997 102.7879988
  82.7460012  12.0864997 102.6269988  81.8060012  11.9654997 104.1899988
  81.1330012  13.2454997 100.9589988  80.4000012  13.9914997 100.6879988
  82.1480012  13.4144997 100.6319988  80.8030012  12.2804997 100.6049988
  81.4260012  14.4094997 103.1279988  81.0500012  14.5994997 104.1229988
  80.8210012  15.1664997 102.6509988  82.4430012  14.7214997 102.9439988
  76.2600012  12.3474997 101.1069988  78.4920012  11.9154997  99.8299988
  77.1340012  15.5264997  96.8009988  76.0920012  15.1684997  96.2209988
  74.9210012  14.9394997  96.6059988  76.3770012  15.0994997  94.7329988
  77.4410012  14.7894997  94.6539988  76.2740012  16.1104997  94.2849988
  75.3260012  14.2394997  94.0519988  74.3420012  14.7544997  94.0379988
  75.2680012  13.2374997  94.5269988  75.5380012  13.9824997  92.5449988
  76.3740012  13.2614997  92.6719988  75.8660012  14.9294997  92.0669988
  74.3990012  13.2484997  91.7479988  73.4580012  13.8384997  91.7899988
  74.1990012  12.3074997  92.3039988  74.6880012  12.7294997  90.2779988
  73.8200012  12.0794997  90.0359988  75.5610012  12.0424997  90.2979988
  74.9520012  13.6674997  89.1949988  75.9770012  14.0924997  89.1199988
  74.3480012  14.5284997  89.5539988  74.2630012  13.2494997  87.8439988
  74.3410012  14.1164997  87.1539988  73.1800012  13.0744997  88.0209988
  74.9800012  12.0304997  87.3589988  76.0620012  12.1394997  87.5249988
  74.5670012  10.9074997  86.6699988  75.4090012  10.2384997  86.4409988
  73.2330012  10.5434997  86.1179988  72.5260012  10.3144997  86.9439988
  73.3440012   9.6144997  85.5199988  72.6070012  11.5884997  85.1999988
  72.2760012  12.5024997  85.7369988  71.7080012  11.0794997  84.7929988
  73.4070012  11.8224997  83.9029988  74.4010012  12.1894997  84.2379988
  72.9720012  12.6854997  83.3559988  73.5100012  10.5474997  82.9919988
  72.5330012  10.4054997  82.4819988  73.8470012   9.5954997  83.4549988
  74.3940012  10.8334997  81.7419988  74.1100012  11.8544997  81.4069988
  74.0200012  10.0314997  81.0699988  75.9290012  10.7864997  82.0229988
  76.2360012   9.8254997  82.4889988  76.2220012  11.6354997  82.6759988
  76.7230012  10.9834997  80.7379988  76.4950012  11.9364997  80.2129988
  76.5070012  10.1354997  80.0529988  78.2520012  10.9284997  80.9279988
  78.5990012  11.8114997  81.5059988  78.7820012  10.9064997  79.9519988
  78.5050012   9.9824997  81.4529988  19.6390012 122.0854997  83.6499988
  19.1170012 121.3534997  82.9979988  20.6160012 121.6934997  84.0069988
  19.8930012 123.0804997  83.2259988  18.6970012 122.2804997  84.8119988
  19.0930012 122.9694997  85.5889988  17.8280012 122.8464997  84.4139988
  18.2630012 121.0234997  85.5489988  17.5380012 121.3914997  86.3069988
  17.7110012 120.3494997  84.8599988  19.4110012 120.1014997  86.0569988
  19.8330012 119.5034997  85.2209988  20.2200012 120.7544997  86.4479988
  18.8300012 119.1984997  87.2469988  17.9520012 118.6484997  86.8479988
  19.7140012 118.5784997  87.5069988  18.5350012 119.8464997  88.5889988
  19.4190012 120.4994997  88.7529988  17.5750012 120.4044997  88.6069988
  18.5610012 118.7134997  89.7189988  17.5040012 118.3754997  89.6479988
  19.2480012 117.8724997  89.4879988  18.9840012 119.2054997  91.1169988
  18.9490012 118.2584997  91.6969988  20.0520012 119.4954997  91.0169988
  18.1720012 120.2514997  91.8169988  18.1340012 121.2354997  91.3029988
  17.1030012 119.9564997  91.7489988  18.5420012 120.4514997  93.2759988
  18.4480012 119.6154997  94.0029988  19.6240012 120.7034997  93.2569988
  17.8830012 121.6644997  93.9639988  18.0560012 122.5714997  93.3459988
  16.7790012 121.5684997  93.8849988  18.3710012 121.8714997  95.3669988
  18.0300012 122.8794997  95.6839988  17.8370012 121.2394997  96.1079988
  19.8920012 121.6564997  95.6069988  20.1760012 120.6544997  95.2199988
  20.4600012 122.4034997  95.0129988  20.2810012 121.7614997  97.1609988
  19.6260012 121.0144997  97.6569988  21.2840012 121.2834997  97.1579988
  20.3110012 123.1914997  97.7909988  20.9260012 123.2454997  98.7139988
  20.8960012 123.8294997  97.0939988  18.9390012 123.7624997  98.1879988
  18.5070012 124.8624997  97.7839988  18.2810012 122.9124997  98.9699988
  16.9240012 123.2844997  99.3589988  16.8860012 123.6594997 100.4039988
  16.5160012 124.0794997  98.6979988  15.9610012 122.0484997  99.2649988
  15.0100012 122.3514997  99.7529988  16.5890012 120.7844997 100.0329988
  17.2500012 121.3004997 100.7619988  15.7150012 120.2574997 100.4709988
  17.2530012 120.0134997  99.0619988  18.1430012 118.7444997  99.3729988
  18.6250012 119.0054997 100.8639988  19.5580012 120.1214997 101.0459988
  20.6170012 119.9474997 100.7589988  19.3660012 121.0194997 100.4209988
  19.5010012 120.7344997 102.4299988  19.8050012 121.7674997 102.3469988
  18.4840012 120.6914997 102.7889988  20.0610012 119.8894997 103.5419988
  21.5210012 119.4314997 103.4049988  21.5730012 119.2134997 102.3479988
  22.1120012 120.2964997 103.6659988  21.7310012 118.5984997 104.0599988
  19.9740012 120.6894997 104.8369988  20.4950012 121.6304997 104.7369988
  18.9250012 120.8944997 104.9899988  20.2020012 120.0914997 105.7069988
  19.1460012 118.6874997 103.7379988  19.4560012 118.0484997 104.5519988
  19.1980012 118.0774997 102.8479988  18.1310012 119.0464997 103.8159988
  17.2490012 117.5964997  99.2189988  19.3730012 118.7444997  98.6659988
  15.6710012 121.7864997  97.8989988  14.4870012 121.1184997  97.7319988
  13.8040012 120.6674997  98.6269988  14.1790012 120.9674997  96.2229988
  13.1430012 120.5664997  96.2149988  14.9180012 120.2324997  95.8369988
  14.2920012 122.2664997  95.3539988  15.3480012 122.5464997  95.5569988
  13.5360012 122.9454997  95.8029988  13.9720012 122.0104997  93.8549988
  12.9380012 121.6074997  93.9259988  14.5730012 121.1734997  93.4389988
  13.8280012 123.2654997  92.9749988  14.7880012 123.7584997  92.7109988
  13.3330012 124.0414997  93.5969988  12.9350012 123.1654997  91.7039988
  12.9990012 124.1314997  91.1589988  11.9230012 122.9214997  92.0919988
  13.2150012 122.0844997  90.6819988  12.3420012 122.2484997  90.0129988
  13.1300012 121.1184997  91.2229988  14.4730012 122.2024997  89.8999988
  15.3550012 122.3104997  90.5679988  14.3970012 123.1444997  89.3159988
  14.9310012 121.0654997  89.0159988  15.5780012 120.3634997  89.5619988
  14.6410012 120.8284997  87.7069988  15.0410012 119.9564997  87.1689988
  13.7760012 121.7724997  86.8449988  14.3060012 122.7464997  86.7719988
  12.8870012 122.0314997  87.4589988  13.3570012 121.3234997  85.3599988
  12.6440012 122.1034997  85.0179988  12.8480012 120.3404997  85.4529988
  14.4720012 121.3224997  84.3049988  13.9950012 120.8744997  83.4069988
  15.3390012 120.7544997  84.7049988  14.9210012 122.6914997  83.8269988
  15.2510012 123.1834997  84.7669988  13.9940012 123.2174997  83.5119988
  15.8970012 122.6354997  82.6459988  15.4300012 122.0784997  81.8059988
  16.8100012 122.0964997  82.9779988  16.2460012 124.1004997  82.2959988
  16.6650012 124.6444997  83.1699988  15.2570012 124.5674997  82.1019988
  17.2500012 124.2494997  81.1899988  16.7670012 123.8844997  80.2589988
  18.1730012 123.6364997  81.2689988  17.7070012 125.7004997  80.8449988
  18.4170012 126.1504997  81.5709988  16.7820012 126.2984997  80.6979988
  18.2680012 125.7364997  79.8869988  37.5250012 132.8244997  83.6069988
  36.9870012 133.0044997  82.6519988  38.5970012 132.5594997  83.4809988
  37.3280012 133.7284997  84.2209988  36.9060012 131.7054997  84.3949988
  35.8260012 131.5844997  84.1639988  37.4610012 130.7714997  84.1609988
  36.9360012 131.9524997  85.9369988  37.9450012 131.8944997  86.3979988
  36.4690012 132.9474997  86.1019988  36.0410012 130.9584997  86.7459988
  34.9480012 131.1554997  86.7119988  36.3230012 129.9854997  86.2889988
  36.2560012 130.8614997  88.2689988  37.3040012 131.1384997  88.5119988
  35.4930012 131.5534997  88.6859988  35.9250012 129.5454997  88.9549988
  36.6850012 128.7554997  88.7699988  35.9540012 129.7354997  90.0489988
  34.5040012 128.9324997  88.6579988  33.6790012 129.6654997  88.7899988
  34.5670012 128.6084997  87.5979988  34.0090012 127.8454997  89.6359988
  33.6770012 128.4414997  90.5129988  33.1100012 127.3674997  89.1919988
  34.8120012 126.6114997  90.0429988  34.6350012 125.8694997  89.2359988
  35.9040012 126.8184997  90.0719988  34.3400012 125.9134997  91.2879988
  33.2450012 125.7364997  91.3419988  34.7880012 124.9104997  91.4539988
  34.5670012 126.6724997  92.6369988  33.7870012 127.4614997  92.6829988
  34.3840012 125.9314997  93.4439988  35.9140012 127.2084997  92.9239988
  36.6850012 126.4244997  93.0809988  36.2280012 127.9154997  92.1269988
  36.1960012 128.0504997  94.1749988  35.5050012 128.9134997  94.0629988
  35.9400012 127.4534997  95.0759988  37.6070012 128.5764997  94.1219988
  38.3140012 127.7264997  94.0089988  37.7490012 129.1734997  93.1959988
  37.8810012 129.3694997  95.3889988  37.4330012 128.8964997  96.2889988
  38.9460012 129.4924997  95.6789988  37.1770012 130.7184997  95.3679988
  36.6560012 131.1404997  94.3149988  37.1610012 131.3134997  96.5049988
  36.2770012 132.4204997  96.7079988  36.8280012 133.3004997  97.1039988
  35.8160012 132.6914997  95.7349988  35.2640012 131.9544997  97.7609988
  34.5860012 132.8304997  97.8429988  36.0290012 131.6334997  99.0779988
  36.4820012 130.6224997  98.9949988  36.8600012 132.3524997  99.2459988
  35.1550012 131.6944997 100.1959988  35.2220012 130.6854997 101.4559988
  35.2720012 129.3554997 100.8249988  34.1690012 128.7194997 100.1599988
  33.2110012 129.2024997 100.4479988  34.2800012 128.8704997  99.0639988
  34.2100012 127.1714997 100.4479988  33.1910012 126.8484997 100.2919988
  34.8830012 126.6924997  99.7519988  34.4470012 126.5354997 101.8139988
  34.5400012 125.0004997 101.6019988  35.1680012 124.8284997 100.7409988
  35.0390012 124.5784997 102.4619988  33.5720012 124.5504997 101.4339988
  35.7870012 126.9694997 102.3969988  35.6470012 128.0384997 102.4459988
  35.9380012 126.5514997 103.3809988  36.6310012 126.7254997 101.7679988
  33.4380012 126.8534997 102.8969988  32.4570012 126.5084997 102.6049988
  33.3460012 127.9204997 102.7559988  33.7420012 126.5714997 103.8949988
  36.4600012 130.9884997 102.3149988  33.8580012 130.8704997 102.0719988
  34.5690012 130.7774997  97.2759988  33.7810012 130.8524997  96.3119988
  33.5690012 131.7584997  95.5149988  32.9790012 129.4904997  96.3359988
  32.7740012 129.3364997  97.4169988  33.5970012 128.5884997  96.1389988
  31.7540012 129.5104997  95.4389988  32.0060012 130.0034997  94.4759988
  31.0030012 130.1194997  95.9869988  31.3300012 128.0574997  95.0679988
  31.4480012 127.3594997  95.9239988  32.0120012 127.6344997  94.2999988
  29.8990012 127.8964997  94.5939988  29.1820012 128.2444997  95.3689988
  29.6540012 126.8384997  94.3589988  29.4540012 128.6824997  93.2019988
  29.6620012 129.7714997  93.2809988  28.3780012 128.5644997  92.9519988
  30.3150012 128.2464997  91.9299988  29.8230012 127.3624997  91.4719988
  31.3090012 127.9424997  92.3239988  30.4610012 129.3334997  90.8559988
  31.1620012 128.9274997  90.0949988  30.9530012 130.2224997  91.3049988
  29.0720012 129.4894997  90.1619988  28.1730012 129.1084997  90.6679988
  28.9830012 129.7914997  88.8339988  27.9500012 129.9194997  88.4779988
  30.0980012 130.0764997  87.8339988  31.1440012 130.1434997  88.1999988
  29.8760012 130.9904997  87.2419988  30.1380012 128.9374997  86.7489988
  29.1530012 128.8554997  86.2419988  30.1990012 127.9594997  87.2729988
  31.2940012 129.0374997  85.7189988  31.4570012 128.0534997  85.2299988
  32.2200012 129.1904997  86.3129988  31.0350012 130.1154997  84.6229988
  31.1530012 131.1114997  85.1009988  30.0310012 129.9394997  84.1829988
  32.1850012 130.0644997  83.5069988  33.1580012 130.2694997  84.0019988
  32.0210012 130.9544997  82.8629988  32.0580012 128.8634997  82.6129988
  31.0020012 128.7724997  82.2789988  32.3200012 127.8604997  83.0119988
  32.7220012 129.0934997  81.2649988  32.2170012 129.8894997  80.6769988
  32.5460012 128.1784997  80.6609988  34.2290012 129.2614997  81.2659988
  34.5310012 130.0484997  81.9889988  34.7410012 129.5694997  80.3299988
  34.7300012 128.3534997  81.6659988 122.3080012  95.9314997  81.5839988
 121.8690012  96.9444997  81.4599988 121.4380012  95.2544997  81.4519988
 123.0250012  95.7584997  80.7529988 122.9830012  95.6784997  82.9609988
 123.9410012  96.2344997  83.0439988 122.2830012  95.9104997  83.7919988
 123.5430012  94.2474997  83.0609988 122.6980012  93.6654997  82.6319988
 124.3280012  94.1574997  82.2799988 123.9670012  93.7594997  84.4319988
 123.0670012  93.9744997  85.0479988 124.1990012  92.6754997  84.4989988
 125.0200012  94.6184997  85.0489988 125.9220012  94.5284997  84.4059988
 124.5970012  95.6424997  84.9659988 125.3290012  94.2164997  86.5089988
 125.8330012  93.2284997  86.5739988 126.1670012  94.9294997  86.6599988
 124.2420012  94.5174997  87.6249988 123.9360012  95.5814997  87.5269988
 123.3860012  93.8474997  87.3969988 124.7780012  94.2744997  89.0369988
 125.7500012  94.8104997  89.0899988 124.1590012  94.8084997  89.7889988
 125.0010012  92.7614997  89.3599988 124.0260012  92.2634997  89.5529988
 125.4250012  92.2584997  88.4649988 125.9830012  92.3704997  90.5359988
 126.0110012  91.2604997  90.5789988 126.9380012  92.7794997  90.1419988
 125.6500012  92.8404997  91.9529988 124.5900012  92.8764997  92.2829988
 126.2000012  92.1974997  92.6739988 126.1730012  94.2884997  92.2179988
 127.2750012  94.3484997  92.0889988 125.6270012  95.0014997  91.5639988
 126.0270012  94.6074997  93.7029988 124.9940012  94.4384997  94.0749988
 126.7080012  93.8844997  94.2009988 126.4560012  96.0204997  94.0409988
 127.5350012  96.1374997  93.8069988 125.8360012  96.7344997  93.4579988
 126.3670012  96.3214997  95.4829988 125.3260012  96.1244997  95.8159988
 127.1040012  95.6514997  95.9769988 126.6690012  97.7254997  95.7979988
 126.7970012  98.5904997  94.9819988 126.7020012  97.8684997  97.1519988
 126.5890012  99.2104997  97.7489988 127.5970012  99.5544997  98.0659988
 126.0990012  99.8884997  97.0169988 125.5110012  99.2114997  98.9429988
 125.3470012 100.2484997  99.3069988 125.7870012  98.3034997 100.1829988
 126.7280012  98.6934997 100.6249988 124.9710012  98.4024997 100.9309988
 125.7770012  96.9494997  99.8159988 126.8710012  95.8374997 100.1349988
 126.4310012  95.4804997 101.6129988 125.8240012  94.2484997 101.9689988
 126.1790012  93.4344997 101.3009988 126.0550012  94.0074997 103.0279988
 124.3070012  94.5124997 101.7909988 124.1420012  94.7634997 100.7539988
 123.9060012  93.5094997 101.8099988 123.4630012  95.3644997 102.6759988
 123.3520012  94.7434997 104.0709988 124.2940012  94.5114997 104.5459988
 122.8950012  95.4914997 104.7019988 122.5800012  93.9884997 104.0399988
 123.9710012  96.7884997 102.7529988 123.9400012  97.2524997 101.7779988
 123.3140012  97.3174997 103.4259988 124.9590012  96.6374997 103.1639988
 122.0710012  95.4194997 102.0549988 121.6410012  94.4344997 101.9509988
 121.9790012  95.8334997 101.0609988 121.3990012  96.0134997 102.6569988
 126.5770012  94.7074997  99.2219988 128.2190012  96.4054997 100.0789988
 124.2750012  98.7404997  98.3299988 123.0960012  98.8564997  98.8979988
 123.0190012  99.3274997 100.0619988 121.9540012  98.3364997  98.0029988
 122.2320012  98.8774997  97.0729988 120.9430012  98.4704997  98.4419988
 122.2180012  96.8244997  97.8479988 122.1550012  96.4094997  98.8769988
 123.2440012  96.6224997  97.4749988 121.1110012  96.1584997  96.9059988
 120.2030012  96.6314997  97.3369988 121.1390012  95.0804997  97.1749988
 121.2530012  96.4374997  95.4019988 121.3320012  97.5444997  95.3619988
 120.3830012  96.0304997  94.8429988 122.4900012  95.8584997  94.6469988
 122.8260012  94.8594997  94.9999988 123.2330012  96.6144997  94.9819988
 122.4450012  96.0274997  93.0789988 121.4850012  95.7474997  92.5949988
 123.1390012  95.3784997  92.5039988 122.7750012  97.4994997  92.7419988
 123.8620012  97.5204997  92.9689988 122.2930012  98.1644997  93.4899988
 122.3050012  97.8664997  91.3889988 121.2820012  97.5834997  91.0999988
 123.0270012  98.5674997  90.4699988 122.5190012  98.7324997  89.5079988
 124.4370012  99.0864997  90.6899988 124.5950012  99.4694997  91.7209988
 124.4680012 100.0954997  90.2259988 125.5280012  98.1784997  90.1259988
 125.3220012  98.2134997  89.0339988 125.2790012  97.1294997  90.3949988
 126.9030012  98.6674997  90.5099988 127.0360012  98.5984997  91.6109988
 127.0210012  99.7144997  90.1569988 128.0170012  97.9274997  89.8629988
 128.0780012  96.9104997  90.3059988 128.9630012  98.5064997  89.9269988
 127.8550012  97.6614997  88.3269988 126.9580012  97.0454997  88.1039988
 128.7340012  97.0604997  88.0089988 127.7910012  98.9234997  87.4809988
 128.3120012  99.7494997  88.0099988 126.7470012  99.2554997  87.2909988
 128.2720012  99.0034997  86.0479988 129.3590012  98.7804997  86.0939988
 128.3020012 100.0594997  85.7029988 127.6130012  98.1064997  85.0079988
 126.5200012  98.3024997  84.9649988 127.7620012  97.0684997  85.3749988
 128.1430012  98.0654997  84.0329988 134.3890012  53.2654997  82.4819988
 133.7540012  52.6134997  81.8449988 135.3460012  52.7124997  82.5899988
 134.6740012  54.1924997  81.9409988 133.7470012  53.5354997  83.8529988
 134.5230012  53.8274997  84.5929988 132.8970012  54.2374997  83.7099988
 133.0570012  52.3664997  84.4189988 132.3050012  52.6444997  85.1889988
 132.5730012  51.7704997  83.6159988 134.0390012  51.4044997  85.1289988
 134.7980012  50.9784997  84.4379988 134.6560012  51.8124997  85.9569988
 133.2250012  50.1834997  85.6289988 132.2510012  50.1914997  85.0959988
 133.7330012  49.2024997  85.5039988 132.7840012  50.2144997  87.0989988
 133.7100012  50.4244997  87.6769988 132.0570012  51.0474997  87.2059988
 132.1580012  48.8884997  87.4549988 131.3310012  48.5204997  86.8109988
 132.9660012  48.1254997  87.4459988 131.5530012  48.8414997  88.8509988
 132.1920012  49.3844997  89.5789988 130.4950012  49.1734997  88.7829988
 131.4920012  47.3854997  89.3819988 130.7120012  46.9434997  88.7259988
 132.4500012  46.8244997  89.3329988 130.9600012  47.2414997  90.7719988
 130.8630012  46.1914997  91.1209988 131.7670012  47.7214997  91.3639988
 129.5780012  47.8894997  90.9289988 129.7100012  48.9924997  90.9409988
 128.9730012  47.5044997  90.0799988 128.9530012  47.5914997  92.2649988
 127.9140012  47.9774997  92.1889988 128.9700012  46.4964997  92.4499988
 129.4720012  48.4784997  93.4459988 130.5450012  48.1954997  93.4979988
 129.2890012  49.5204997  93.1079988 128.7340012  48.3714997  94.7879988
 127.7610012  48.9034997  94.8559988 128.4820012  47.2984997  94.9289988
 129.6500012  48.8324997  95.9639988 130.2670012  49.6894997  95.6189988
 129.1350012  49.1394997  96.8999988 130.6910012  47.7074997  96.2849988
 130.6420012  46.5994997  95.8299988 131.5330012  48.1614997  97.2249988
 132.3670012  47.2294997  97.9409988 131.9300012  46.2444997  98.2099988
 133.2280012  46.9204997  97.3089988 132.9410012  47.8994997  99.2009988
 133.5530012  47.2364997  99.8499988 131.7900012  48.4764997 100.0799988
 130.9660012  47.7374997 100.1689988 132.3390012  48.6354997 101.0329988
 131.3090012  49.7534997  99.6009988 130.0360012  50.2534997 100.3519988
 130.7440012  51.1174997 101.4799988 130.0380012  51.4854997 102.5919988
 129.1340012  50.8804997 102.8169988 130.7180012  51.3694997 103.4619988
 129.6400012  52.9784997 102.4409988 129.1010012  53.0554997 101.5079988
 128.8800012  53.3664997 103.1019988 130.6810012  54.0294997 102.4079988
 129.9160012  55.3054997 102.2479988 130.6400012  56.0644997 101.9889988
 129.2830012  55.1224997 101.3929988 129.4750012  55.5204997 103.2109988
 131.6390012  54.0514997 103.5879988 132.3640012  54.8504997 103.5339988
 131.0710012  54.1414997 104.5019988 132.1710012  53.1114997 103.5659988
 131.4520012  53.9214997 101.1509988 132.0290012  53.0174997 101.2779988
 131.9980012  54.8374997 100.9749988 130.8040012  53.6994997 100.3159988
 129.3500012  51.0374997  99.3579988 129.2970012  49.1224997 100.9619988
 133.7370012  49.0574997  98.8239988 134.5380012  49.5084997  99.7949988
 134.6790012  49.1154997 100.9489988 135.4060012  50.7264997  99.2239988
 136.4540012  50.3594997  99.2469988 135.3710012  51.4944997 100.0269988
 135.1270012  51.2374997  97.8219988 135.2920012  50.4334997  97.0729988
 135.8810012  51.9484997  97.4219988 133.7240012  51.9484997  97.8079988
 133.5670012  52.4644997  98.7789988 133.0950012  51.0674997  97.5589988
 133.4330012  52.8694997  96.6199988 133.7170012  52.2934997  95.7129988
 134.1300012  53.7314997  96.6919988 131.9890012  53.3384997  96.5439988
 131.8490012  54.0434997  97.3919988 131.2940012  52.4734997  96.6089988
 131.6670012  53.9934997  95.2459988 132.3560012  53.6414997  94.4489988
 131.7810012  55.0904997  95.3809988 130.2140012  53.8004997  94.7409988
 129.9710012  54.6384997  94.0529988 129.4580012  53.8844997  95.5509988
 130.0370012  52.4664997  94.0509988 129.9390012  51.5184997  94.5999988
 129.8210012  52.3764997  92.7339988 129.5180012  51.4114997  92.2989988
 129.7390012  53.5324997  91.8099988 130.5830012  54.2424997  91.9459988
 128.7470012  53.9564997  92.0749988 129.8740012  53.2194997  90.2769988
 130.7240012  52.5204997  90.1269988 130.1190012  54.1704997  89.7559988
 128.6600012  52.5614997  89.5929988 127.7470012  53.1954997  89.6129988
 128.4590012  51.5544997  90.0179988 128.9300012  52.3014997  88.0829988
 129.8320012  51.7214997  87.7919988 129.0390012  53.3514997  87.7369988
 127.7250012  51.7324997  87.3159988 126.8240012  52.2694997  87.6819988
 127.6930012  50.6434997  87.5349988 127.7480012  51.8524997  85.7789988
 127.9800012  52.9054997  85.5089988 126.7300012  51.6074997  85.4089988
 128.7870012  50.8894997  85.1209988 129.3240012  50.4254997  85.9769988
 129.4730012  51.5784997  84.5839988 128.0130012  49.8384997  84.3189988
 128.7380012  49.1634997  83.8149988 127.3050012  50.3044997  83.5999988
 127.4230012  49.1604997  84.9719988  90.3190012 121.1134997  84.1829988
  89.8960012 121.2274997  83.1619988  90.7310012 120.0864997  84.2869988
  91.1980012 121.7854997  84.2749988  89.2760012 121.3254997  85.2939988
  88.4470012 120.6054997  85.1219988  89.7750012 121.0824997  86.2559988
  88.7740012 122.8404997  85.4009988  89.5360012 123.6484997  85.4339988
  88.2040012 123.0644997  84.4739988  87.8720012 122.8644997  86.6349988
  87.2650012 121.9474997  86.7929988  88.5190012 123.0674997  87.5149988
  86.7770012 123.9294997  86.4349988  86.2330012 123.8244997  85.4729988
  85.9930012 123.6184997  87.1589988  87.1600012 125.4164997  86.6979988
  88.0090012 125.6504997  86.0199988  86.3500012 126.1364997  86.4589988
  87.6020012 125.8454997  88.1519988  86.7470012 125.5974997  88.8169988
  88.4890012 125.2394997  88.4359988  87.9810012 127.3534997  88.3299988
  88.7520012 127.6304997  87.5789988  87.1670012 128.0854997  88.1419988
  88.5870012 127.5194997  89.7639988  87.8460012 126.9744997  90.3859988
  89.6080012 127.1024997  89.8989988  88.6180012 128.9054997  90.2469988
  89.3940012 129.4534997  89.6719988  87.7290012 129.5384997  90.0379988
  89.0530012 129.0264997  91.7369988  89.8240012 128.2634997  91.9759988
  89.4740012 130.0504997  91.8289988  87.9050012 128.9374997  92.7569988
  86.9990012 129.4234997  92.3359988  87.7780012 127.8504997  92.9479988
  88.1790012 129.5544997  94.1149988  89.0450012 129.1814997  94.7019988
  88.5060012 130.6054997  93.9699988  86.9590012 129.5024997  94.9889988
  86.2640012 130.2314997  94.5179988  86.4680012 128.5094997  94.9059988
  87.1430012 130.1234997  96.3979988  87.7870012 130.9894997  96.1329988
  86.1330012 130.3684997  96.7889988  87.8320012 129.1974997  97.2589988
  88.6520012 129.5794997  98.0869988  87.3640012 127.9444997  97.1079988
  87.8560012 126.8744997  97.9699988  88.9270012 126.9994997  98.2359988
  87.3430012 126.8824997  98.9559988  87.6790012 125.4014997  97.4639988
  86.6320012 125.1794997  97.1669988  88.0300012 124.4604997  98.6239988
  87.3260012 124.6664997  99.4579988  87.8240012 123.4214997  98.2899988
  89.4140012 124.6434997  99.0939988  89.8980012 124.1594997 100.4819988
  88.8650012 125.0634997 101.3089988  89.2930012 126.3734997 101.8599988
  90.2690012 126.2094997 102.3639988  89.4870012 127.0904997 101.0339988
  88.3210012 126.8704997 102.9359988  88.0440012 126.0434997 103.5739988
  88.8050012 127.6734997 103.4709988  87.0130012 127.4264997 102.3589988
  86.1960012 126.3924997 101.7139988  86.6040012 126.1544997 100.7419988
  86.3840012 125.5584997 102.3739988  85.1430012 126.6174997 101.6339988
  86.1890012 127.8364997 103.5989988  86.5490012 128.8094997 103.8999988
  85.1650012 127.9034997 103.2619988  86.3480012 127.1154997 104.3869988
  87.3130012 128.5974997 101.4119988  87.9890012 129.1844997 102.0159988
  86.3450012 129.0064997 101.1639988  87.6970012 128.1844997 100.4909988
  89.6200012 122.7234997 100.7449988  91.3030012 124.5804997 100.6709988
  88.5300012 125.3384997  96.3859988  88.5520012 124.2994997  95.5339988
  87.9750012 123.2254997  95.6559988  89.6510012 124.7384997  94.5609988
  90.6900012 124.6064997  94.9309988  89.4580012 125.8074997  94.3279988
  89.5920012 123.9324997  93.2399988  88.6490012 124.1664997  92.7009988
  89.6540012 122.8294997  93.3549988  90.7230012 124.3464997  92.3139988
  91.6690012 124.0494997  92.8149988  90.6240012 125.4524997  92.3089988
  90.7400012 123.7494997  90.8909988  89.8890012 123.9994997  90.2229988
  90.8540012 122.6444997  90.8999988  92.0490012 124.2494997  90.1669988
  92.0290012 123.7484997  89.1749988  92.9210012 123.8234997  90.7069988
  92.2260012 125.7594997  89.9939988  92.2160012 126.3044997  90.9629988
  91.4190012 126.1634997  89.3459988  93.5270012 126.1334997  89.3239988
  93.8750012 125.3754997  88.5899988  94.3050012 126.1754997  90.1149988
  93.3940012 127.4924997  88.5669988  93.5380012 128.2994997  89.2999988
  92.9330012 127.6614997  87.2949988  92.7940012 128.7014997  86.9639988
  92.4810012 126.5374997  86.3679988  92.3220012 125.6254997  86.9819988
  93.2740012 126.3814997  85.6059988  91.1350012 126.7844997  85.6829988
  90.4390012 126.9224997  86.5379988  90.9130012 125.8364997  85.1479988
  90.9210012 127.8744997  84.6219988  91.7500012 127.6824997  83.9079988
  91.0270012 128.9074997  85.0149988  89.5490012 127.8224997  83.8659988
  88.6770012 128.1154997  84.4879988  89.3630012 126.7394997  83.7019988
  89.6010012 128.5934997  82.4799988  89.9850012 129.6324997  82.5659988
  88.5330012 128.6114997  82.1729988  90.4270012 128.0044997  81.3829988
  89.7860012 127.1664997  81.0379988  91.4010012 127.5754997  81.7029988
  90.3520012 128.8684997  80.0539988  89.3450012 129.2914997  79.8489988
  90.4790012 128.2164997  79.1639988  91.3320012 130.1444997  79.8729988
  91.0480012 130.8614997  80.6739988  90.9210012 130.5414997  78.9199988
  92.3940012 129.8214997  79.8939988 123.5640012  36.7994997  83.2869988
 123.4790012  37.9004997  83.1639988 122.5490012  36.4004997  83.5009988
 123.6350012  36.4144997  82.2469988 124.6480012  36.3224997  84.2659988
 124.3330012  36.7684997  85.2329988 124.5790012  35.2404997  84.5099988
 126.0520012  36.8014997  83.9889988 126.5400012  36.1434997  83.2379988
 126.0400012  37.8304997  83.5709988 127.0460012  36.8564997  85.1699988
 127.1740012  35.8734997  85.6699988 128.0120012  37.0344997  84.6519988
 126.7850012  37.8804997  86.2469988 126.6490012  38.8384997  85.6999988
 125.8330012  37.7454997  86.8039988 127.8890012  37.9364997  87.3049988
 128.0570012  36.9344997  87.7549988 128.8220012  38.2614997  86.7969988
 127.6650012  39.0044997  88.4129988 126.6450012  38.8074997  88.8039988
 128.4610012  38.8584997  89.1739988 127.6350012  40.5174997  88.0199988
 128.6800012  40.8314997  87.8109988 127.0340012  40.5924997  87.0879988
 127.0480012  41.3994997  89.1289988 125.9670012  41.1444997  89.1739988
 127.5260012  41.1544997  90.1009988 127.1980012  42.8784997  88.7289988
 128.1860012  43.1794997  88.3189988 126.5780012  43.0324997  87.8199988
 126.8460012  44.0004997  89.6989988 127.3480012  44.9024997  89.2879988
 125.7360012  44.0324997  89.7439988 127.1920012  43.8584997  91.1829988
 128.1810012  43.3524997  91.2169988 127.3530012  44.8994997  91.5379988
 126.1260012  43.0824997  92.0159988 125.3690012  43.8684997  92.2299988
 125.6130012  42.2764997  91.4499988 126.7020012  42.4684997  93.3009988
 125.9350012  41.8604997  93.8259988 127.4370012  41.7304997  92.9129988
 127.3450012  43.4774997  94.1919988 128.2440012  43.9954997  93.7959988
 126.5820012  44.2294997  94.4839988 127.9050012  42.6494997  95.4219988
 129.0450012  42.2914997  95.4659988 126.9980012  42.4884997  96.4449988
 127.6480012  42.1574997  97.7089988 128.6320012  41.6514997  97.6129988
 127.7570012  43.0934997  98.2989988 126.6810012  41.1824997  98.4329988
 125.7770012  41.7474997  98.7449988 127.3070012  40.4724997  99.6769988
 128.0930012  39.7184997  99.4539988 127.7870012  41.2184997 100.3459988
 126.2950012  39.6604997 100.3659988 125.3540012  40.0734997 101.5279988
 124.6100012  38.7254997 102.0349988 124.2670012  37.6254997 101.1419988
 125.0870012  37.5884997 100.3919988 124.2260012  36.6524997 101.6769988
 122.8960012  37.9544997 100.6219988 123.0010012  38.9584997 100.2369988
 122.7730012  37.2784997  99.7899988 121.6160012  37.9704997 101.5209988
 121.6720012  39.2574997 102.3109988 120.7780012  39.4204997 102.8949988
 122.5230012  39.2884997 102.9739988 121.6530012  40.1054997 101.6429988
 120.3850012  38.0074997 100.6709988 120.3450012  38.9174997 100.0919988
 120.3120012  37.1454997 100.0249988 119.5260012  38.0424997 101.3249988
 121.6660012  36.7544997 102.3909988 121.5610012  35.9364997 101.6939988
 120.7920012  36.8234997 103.0219988 122.6150012  36.7394997 102.9059988
 126.1420012  40.5154997 102.7159988 124.3310012  40.9214997 100.8779988
 126.3110012  40.1694997  97.5249988 125.0910012  40.1034997  96.9479988
 124.0510012  40.4884997  97.4679988 125.1840012  39.5104997  95.5539988
 125.4940012  38.4454997  95.6039988 125.7960012  40.1754997  94.9079988
 123.8260012  39.5264997  94.7129988 123.3230012  40.5014997  94.8919988
 123.2700012  38.6854997  95.1789988 124.0280012  39.1284997  93.2419988
 124.4470012  40.0404997  92.7659988 123.1050012  39.0764997  92.6239988
 124.8120012  37.8494997  92.8389988 124.4330012  36.8654997  93.1899988
 125.8070012  37.9534997  93.3219988 124.8580012  37.6314997  91.3319988
 125.6640012  36.9254997  91.0379988 125.0920012  38.5954997  90.8309988
 123.5830012  37.0384997  90.7659988 122.7620012  37.7404997  91.0279988
 123.2210012  36.1074997  91.2519988 123.5610012  36.6464997  89.2209988
 124.2120012  35.7494997  89.1419988 124.0320012  37.4934997  88.6759988
 122.1630012  36.3634997  88.6869988 121.7320012  35.3784997  88.9189988
 121.3190012  37.3154997  88.1779988 120.3440012  37.0164997  87.7639988
 121.6780012  38.7174997  88.0649988 122.1620012  39.0504997  89.0079988
 120.7770012  39.3674997  88.0239988 122.4770012  39.0314997  86.8259988
 122.1130012  38.5044997  85.9179988 123.5270012  38.6724997  86.8889988
 122.5840012  40.5454997  86.3869988 122.9850012  41.0854997  87.2719988
 121.5590012  40.8964997  86.1429988 123.6220012  41.0044997  85.2749988
 124.6130012  40.5584997  85.5059988 123.7050012  42.1064997  85.3839988
 122.9930012  40.6914997  83.8619988 122.1030012  41.3554997  83.8179988
 122.5470012  39.6744997  83.8859988 124.0160012  40.9604997  82.7009988
 123.5450012  40.4684997  81.8229988 124.8990012  40.2904997  82.7769988
 124.3000012  42.4574997  82.4829988 124.4370012  43.0664997  83.4029988
 123.3910012  42.8334997  81.9679988 125.3700012  42.7914997  81.3799988
 125.1000012  42.2844997  80.4299988 126.3800012  42.3404997  81.4769988
 125.3630012  43.8564997  81.0619988  27.3110012  41.4614997  79.8249988
  27.9290012  42.3544997  79.5929988  26.7610012  41.1384997  78.9149988
  28.1020012  40.7574997  80.1619988  26.4130012  41.7824997  80.9609988
  26.9500012  41.8304997  81.9329988  25.8630012  42.7174997  80.7229988
  25.1940012  40.8874997  80.9469988  24.3270012  41.2204997  81.5559988
  24.8520012  40.8564997  79.8899988  25.4880012  39.4634997  81.3069988
  24.4890012  39.0184997  81.5059988  25.9780012  38.9304997  80.4649988
  26.4270012  39.2174997  82.4859988  26.5040012  38.1094997  82.5159988
  27.4890012  39.4954997  82.3139988  25.8900012  39.9044997  83.8059988
  26.5610012  39.6524997  84.6549988  25.7570012  40.9984997  83.6669988
  24.5170012  39.2864997  84.2019988  23.7170012  39.5004997  83.4599988
  24.6930012  38.1914997  84.2669988  24.1350012  39.8684997  85.5159988
  24.8250012  39.7964997  86.3839988  23.9110012  40.9444997  85.3549988
  22.9720012  39.1924997  86.1369988  22.3450012  38.7624997  85.3269988
  23.2840012  38.3644997  86.8079988  22.0450012  39.9764997  87.0549988
  21.8390012  40.9764997  86.6169988  21.1080012  39.3834997  87.1169988
  22.6140012  40.3314997  88.5039988  23.1650012  39.4784997  88.9529988
  23.4320012  41.0574997  88.3069988  21.4570012  41.0034997  89.3529988
  21.1560012  41.9614997  88.8779988  20.5660012  40.3854997  89.5939988
  22.0720012  41.5154997  90.6339988  22.9960012  42.0834997  90.3949988
  21.3150012  42.2514997  90.9779988  22.2940012  40.4234997  91.6649988
  21.5070012  39.6404997  91.6149988  23.2880012  39.9614997  91.4849988
  22.4040012  40.9454997  93.1319988  23.2860012  41.6094997  93.2639988
  21.5300012  41.4144997  93.6329988  22.7190012  39.7134997  93.9789988
  22.6260012  38.5824997  93.5969988  23.0230012  40.0704997  95.2519988
  23.3100012  39.0414997  96.1459988  22.5570012  38.2334997  96.2639988
  24.2540012  38.5554997  95.8179988  23.6930012  39.7434997  97.5319988
  24.0260012  39.0094997  98.2969988  22.4680012  40.4934997  98.0579988
  22.1670012  41.3784997  97.4579988  21.5900012  39.8134997  98.0819988
  22.7890012  40.8894997  99.3829988  23.3470012  42.3154997  99.8529988
  24.8160012  42.0014997 100.2779988  25.4640012  43.0204997 101.0709988
  25.8960012  43.8234997 100.4359988  24.8340012  43.6044997 101.7759988
  26.6970012  42.4594997 101.8499988  27.3190012  41.9404997 101.1359988
  27.1890012  43.3774997 102.1369988  26.4220012  41.7604997 103.1439988
  25.6540012  40.5164997 102.8689988  24.6300012  40.5974997 102.5359988
  26.1940012  40.0254997 102.0729988  25.4200012  39.8604997 103.6939988
  27.7820012  41.3914997 103.7669988  27.5460012  41.0624997 104.7689988
  28.2810012  40.6744997 103.1319988  28.1990012  42.3734997 103.9349988
  25.8470012  42.6394997 104.1999988  26.3760012  43.5594997 104.4009988
  25.8260012  42.2064997 105.1889988  24.8180012  42.8814997 103.9759988
  23.3940012  43.2424997  98.7349988  22.5650012  42.6794997 101.0299988
  24.7270012  40.6814997  97.3449988  25.9710012  40.2034997  97.5569988
  26.2790012  39.0144997  97.6299988  27.0490012  41.3684997  97.6439988
  27.5950012  41.1954997  98.5969988  26.6820012  42.4164997  97.6119988
  27.9860012  41.2724997  96.5279988  28.4230012  40.2504997  96.5459988
  28.9060012  41.8194997  96.8249988  27.5410012  41.7244997  95.1379988
  28.2300012  42.3224997  94.5039988  26.6040012  42.3014997  95.2919988
  27.2500012  40.5274997  94.1909988  26.6670012  39.7804997  94.7709988
  28.1770012  40.0594997  93.7949988  26.5730012  40.9314997  92.8709988
  25.7150012  41.5314997  93.2439988  26.2090012  39.9534997  92.4879988
  27.5070012  41.6014997  91.9189988  28.4770012  41.0774997  92.0569988
  27.7270012  42.6084997  92.3329988  27.0960012  41.7954997  90.3919988
  26.7750012  40.8344997  89.9359988  27.9590012  42.1744997  89.8039988
  25.9090012  42.7614997  90.4739988  25.4520012  42.8164997  91.4729988
  25.4740012  43.5984997  89.4599988  24.7280012  44.3354997  89.7909988
  26.0690012  43.7024997  88.1179988  26.6040012  42.7524997  87.9029988
  26.8470012  44.4934997  88.0659988  25.0940012  43.9234997  86.9279988
  24.6200012  44.9244997  86.8339988  24.3240012  43.1234997  86.9169988
  25.8230012  43.8724997  85.5269988  26.0220012  42.8214997  85.2279988
  26.7480012  44.4624997  85.6999988  24.9500012  44.4974997  84.4209988
  25.6110012  45.0114997  83.6909988  24.4380012  45.4044997  84.8069988
  23.9230012  43.5314997  83.7839988  24.2570012  42.4884997  83.9719988
  23.9530012  43.7734997  82.6999988  22.4930012  43.6114997  84.3499988
  22.2400012  44.6894997  84.4449988  22.3900012  43.1774997  85.3669988
  21.4310012  42.9984997  83.4659988  21.4170012  43.4844997  82.4669988
  20.4980012  43.2364997  84.0199988  21.6330012  41.4724997  83.3249988
  20.7490012  41.1124997  82.7559988  21.6870012  41.0504997  84.3509988
  22.5440012  41.1944997  82.7529988 118.5110012 106.1674997  83.8399988
 117.8380012 105.5394997  83.2179988 119.5950012 105.9264997  83.8179988
 118.4500012 107.2504997  83.5999988 117.8850012 105.7824997  85.2139988
 117.9100012 104.6994997  85.4599988 118.3690012 106.3184997  86.0589988
 116.4580012 106.2364997  85.2299988 116.3730012 107.3034997  84.9309988
 115.9160012 105.7594997  84.3849988 115.7220012 106.1604997  86.4879988
 115.6150012 105.1054997  86.8209988 116.2800012 106.8074997  87.1979988
 114.2230012 106.6004997  86.3699988 114.0140012 107.4314997  85.6629988
 113.6340012 105.7234997  86.0269988 113.7220012 107.0964997  87.7029988
 113.9280012 106.4424997  88.5769988 114.3290012 107.9934997  87.9499988
 112.1500012 107.4534997  87.6739988 111.6370012 106.5534997  87.2749988
 111.9080012 107.5634997  88.7529988 111.7480012 108.7114997  86.8649988
 111.9110012 108.5154997  85.7839988 110.6540012 108.8434997  87.0089988
 112.5880012 109.9834997  87.1769988 113.5770012 109.8584997  86.6859988
 112.1250012 110.8604997  86.6759988 112.7790012 110.3194997  88.7049988
 111.7460012 110.2794997  89.1109988 113.4740012 109.5614997  89.1239988
 113.2780012 111.7124997  89.0019988 114.2740012 111.9734997  88.5839988
 112.5400012 112.3104997  88.4259988 113.3760012 112.1124997  90.5319988
 113.3680012 113.2224997  90.5889988 112.3680012 111.7754997  90.8539988
 114.4680012 111.4584997  91.4479988 114.2890012 110.3724997  91.2999988
 115.4460012 111.7134997  90.9849988 114.4400012 111.7064997  93.0029988
 114.8060012 112.7194997  93.2749988 113.3870012 111.5454997  93.3169988
 115.3810012 110.6184997  93.6779988 114.9590012 109.5924997  93.6179988
 116.3650012 110.5684997  93.1639988 115.7830012 110.8574997  95.1659988
 116.8880012 110.6774997  95.6319988 114.7540012 111.4314997  95.8099988
 114.9720012 111.7974997  97.1689988 116.0510012 111.9254997  97.3999988
 114.3570012 112.6874997  97.4209988 114.3370012 110.7404997  98.0679988
 113.2560012 110.7124997  97.8139988 114.4690012 111.2274997  99.5469988
 114.1320012 112.2834997  99.6249988 113.7850012 110.4494997  99.9479988
 115.8050012 111.0354997  99.9389988 116.1910012 110.3504997 101.2609988
 116.1290012 108.8174997 100.9899988 115.0060012 107.9704997 101.3239988
 114.1760012 108.4934997 101.8439988 114.4440012 107.6874997 100.4079988
 115.3910012 106.8014997 102.2269988 115.9480012 107.2964997 103.0089988
 114.4570012 106.3184997 102.4739988 116.4540012 105.8074997 101.7239988
 117.7990012 106.4884997 101.5609988 117.7740012 107.0794997 100.6569988
 118.0180012 107.1314997 102.3999988 118.5180012 105.6944997 101.4219988
 116.5970012 104.7254997 102.7599988 115.6200012 104.2724997 102.8409988
 117.2740012 103.9254997 102.5009988 116.9620012 105.1514997 103.6829988
 116.0080012 105.0724997 100.4189988 115.1120012 104.5694997 100.7539988
 116.8490012 104.4814997 100.0859988 115.7310012 105.7934997  99.6639988
 117.5670012 110.6734997 101.7019988 115.1560012 110.6254997 102.2739988
 114.9670012 109.4354997  97.9489988 114.1260012 108.4274997  97.7509988
 112.9120012 108.3824997  97.8759988 114.9620012 107.1364997  97.4659988
 114.2830012 106.3184997  97.7869988 115.8090012 107.0644997  98.1819988
 115.5000012 107.1104997  96.0299988 116.1650012 107.9934997  95.9199988
 114.7260012 107.3164997  95.2599988 116.3110012 105.8854997  95.6859988
 115.5590012 105.0684997  95.6429988 117.1110012 105.7124997  96.4369988
 117.1070012 105.8304997  94.3329988 116.4020012 105.4004997  93.5889988
 117.8730012 105.0264997  94.3689988 117.7770012 107.1084997  93.9219988
 118.4170012 107.4464997  94.7639988 116.9800012 107.8584997  93.7269988
 118.5470012 106.9934997  92.6639988 119.2750012 106.1794997  92.8649988
 119.1820012 107.8644997  92.3959988 117.7740012 106.5584997  91.3459988
 117.4070012 105.5114997  91.2899988 118.5540012 106.6584997  90.5619988
 116.6560012 107.4814997  90.8439988 115.6760012 106.9824997  90.8679988
 116.6940012 108.7324997  90.2709988 115.7370012 109.2444997  90.0869988
 117.9990012 109.4714997  90.0629988 118.8770012 108.9064997  90.4429988
 118.0250012 110.5014997  90.4799988 118.2410012 109.4844997  88.5489988
 118.3420012 108.5024997  88.0389988 119.1410012 110.0424997  88.2119988
 117.1080012 110.0984997  87.7019988 116.8040012 111.0254997  88.2339988
 116.1780012 109.4954997  87.7749988 117.6670012 110.3744997  86.3039988
 118.0080012 109.4604997  85.7739988 118.4950012 111.1044997  86.4309988
 116.5680012 111.0844997  85.4269988 115.9600012 111.6724997  86.1479988
 115.8950012 110.2984997  85.0209988 116.9570012 112.1434997  84.4339988
 117.6690012 111.7114997  83.6989988 117.5350012 112.9674997  84.9039988
 115.7680012 112.8374997  83.7519988 116.0480012 113.8194997  83.3139988
 115.0710012 113.0224997  84.5969988 115.0880012 112.1724997  82.5649988
 114.0400012 112.5404997  82.5279988 115.1650012 111.0664997  82.6289988
 115.5700012 112.5054997  81.6209988  66.5050012  14.4494997  83.5559988
  67.5240012  14.1744997  83.2099988  66.0760012  15.2464997  82.9109988
  65.8030012  13.5894997  83.5089988  66.5510012  14.9334997  85.0219988
  67.4220012  15.5614997  85.3049988  65.6290012  15.5504997  84.9599988
  66.4680012  13.9504997  86.1529988  67.0110012  13.0394997  85.8209988
  66.9490012  14.3504997  87.0709988  65.0650012  13.5044997  86.6809988
  64.5880012  12.7864997  85.9809988  65.4020012  12.9814997  87.6019988
  64.1310012  14.6874997  87.0389988  64.6310012  15.4274997  87.6999988
  64.0870012  15.2724997  86.0949988  62.7880012  14.2854997  87.5309988
  62.1550012  15.1964997  87.5809988  62.2800012  13.5774997  86.8429988
  62.7920012  13.4374997  88.8229988  63.4400012  12.5634997  88.5999988
  63.3940012  13.8144997  89.6779988  61.3850012  12.9684997  89.2389988
  60.6510012  12.7894997  88.4249988  61.5730012  12.0554997  89.8429988
  60.7030012  14.0474997  90.0969988  60.6160012  14.9024997  89.3929988
  59.6470012  13.7964997  90.3349988  61.4600012  14.2694997  91.4269988
  61.6080012  13.3494997  92.0319988  62.4420012  14.7414997  91.2099988
  60.6750012  15.1424997  92.3429988  60.4480012  16.0834997  91.7979988
  59.7010012  14.6524997  92.5539988  61.2440012  15.3304997  93.7859988
  62.2840012  15.6044997  93.5069988  60.7170012  16.2084997  94.2159988
  61.2250012  14.0904997  94.6929988  60.2570012  14.0924997  95.2389988
  61.2450012  13.1014997  94.1869988  62.3150012  14.0054997  95.7609988
  63.3800012  13.8424997  95.4879988  62.2430012  14.9804997  96.2889988
  62.0190012  12.8744997  96.7629988  62.4660012  13.1394997  97.7449988
  60.9150012  12.7534997  96.7529988  62.7270012  11.5224997  96.4689988
  63.3100012  11.3094997  95.4669988  62.6940012  10.8964997  97.6079988
  63.1050012   9.5504997  97.5089988  62.1700012   8.9994997  97.7469988
  63.5360012   9.2214997  96.5389988  64.1200012   9.0904997  98.6359988
  64.3840012   8.0264997  98.4569988  63.4840012   9.2474997 100.1089988
  62.6110012   8.5864997  99.9229988  64.1510012   8.5724997 100.6869988
  63.2930012  10.5724997 100.5859988  62.8430012  10.8744997 102.0429988
  63.0120012  12.4424997 102.1279988  62.8760012  13.3044997 100.9709988
  62.1080012  12.8824997 100.2879988  62.3960012  14.2204997 101.3769988
  64.1890012  13.7084997 100.1919988  64.4030012  12.7824997  99.6779988
  64.1070012  14.6074997  99.5979988  65.4150012  14.0364997 101.0649988
  65.0110012  14.8934997 102.1919988  64.5020012  14.2924997 102.9309988
  65.8760012  15.3774997 102.6189988  64.3790012  15.6794997 101.8049988
  66.0480012  12.7374997 101.5609988  65.2340012  12.0664997 101.7899988
  66.5850012  12.3164997 100.7239988  66.6740012  12.8034997 102.4389988
  66.3840012  14.7904997 100.1899988  66.1690012  15.8354997 100.0269988
  66.4430012  14.3734997  99.1949988  67.3860012  14.7234997 100.5859988
  61.3960012  10.6174997 102.2979988  63.8150012  10.2854997 102.9559988
  65.2400012   9.9654997  98.6449988  66.1780012  10.0184997  97.7569988
  66.3410012   9.2974997  96.7789988  67.1260012  11.1234997  98.0979988
  68.0180012  10.6774997  98.5869988  66.7010012  11.8504997  98.8219988
  67.5070012  11.9514997  96.7979988  67.9060012  11.3544997  95.9499988
  68.4490012  12.5084997  96.9909988  66.5000012  12.8834997  96.1709988
  66.1080012  13.6654997  96.8559988  65.6500012  12.1984997  95.9629988
  66.8480012  13.6014997  94.7959988  67.8860012  13.9864997  94.8879988
  66.1870012  14.4554997  94.5339988  66.7190012  12.6874997  93.5809988
  65.7970012  12.0784997  93.6929988  67.4020012  11.8194997  93.7009988
  66.5250012  13.3774997  92.1739988  67.4620012  13.7164997  91.6809988
  65.8090012  14.2084997  92.3499988  65.8290012  12.5144997  91.0679988
  65.8640012  13.1594997  90.1639988  64.7610012  12.2564997  91.2319988
  66.5300012  11.1924997  90.8099988  67.6240012  11.1474997  90.7029988
  65.9340012   9.9784997  90.8459988  66.5530012   9.0734997  90.7539988
  64.4680012   9.6774997  91.1609988  64.0810012  10.2434997  92.0359988
  64.3680012   8.6274997  91.5089988  63.5680012   9.7654997  89.9199988
  63.5290012  10.8244997  89.5879988  62.5360012   9.4884997  90.2249988
  63.9210012   8.7214997  88.7939988  64.0370012   7.7214997  89.2639988
  64.9290012   9.0314997  88.4449988  62.9380012   8.5004997  87.6329988
  62.8360012   9.4504997  87.0659988  61.9810012   7.9994997  87.8939988
  63.5580012   7.5484997  86.5229988  63.4310012   6.5154997  86.9099988
  64.6570012   7.6294997  86.3739988  62.9350012   7.7784997  85.1669988
  63.2640012   7.0274997  84.4169988  63.3370012   8.7794997  84.8999988
  61.3740012   7.7364997  85.1939988  61.0600012   8.2834997  86.1079988
  61.1600012   6.6604997  85.3689988  60.7970012   8.1144997  83.8629988
  59.7040012   8.3134997  83.8639988  61.1000012   7.2794997  83.1949988
  61.2160012   9.0834997  83.5169988  17.0620012  52.8124997  83.0609988
  16.3220012  53.4774997  82.5659988  16.7050012  52.0554997  83.7909988
  17.6590012  52.1814997  82.3679988  18.0830012  53.6994997  83.7859988
  18.6010012  53.0444997  84.5189988  18.8760012  54.0254997  83.0789988
  17.6200012  54.8524997  84.6639988  18.3710012  55.5634997  85.0699988
  17.0330012  55.5344997  84.0119988  16.7070012  54.5774997  85.8669988
  15.8830012  54.0384997  85.3529988  17.1500012  53.7994997  86.5239988
  16.1110012  55.7764997  86.5599988  16.9620012  56.3114997  87.0329988
  15.5740012  56.4824997  85.8909988  15.0370012  55.2204997  87.5559988
  15.4230012  54.4214997  88.2249988  14.8490012  56.0674997  88.2509988
  13.8380012  54.6414997  86.8829988  13.6040012  55.2874997  86.0089988
  14.0340012  53.6304997  86.4659988  12.6180012  54.6554997  87.7909988
  12.7000012  55.4644997  88.5479988  11.6970012  54.7974997  87.1859988
  12.6770012  53.3044997  88.5649988  12.7650012  52.4664997  87.8419988
  13.5470012  53.2474997  89.2549988  11.3730012  53.0424997  89.3439988
  10.5140012  53.5604997  88.8669988  11.2270012  51.9424997  89.2909988
  11.4000012  53.4864997  90.8289988  12.1340012  54.2864997  91.0659988
  10.4050012  53.9284997  91.0509988  11.8500012  52.3364997  91.8519988
  11.4490012  51.3534997  91.5249988  12.9530012  52.2194997  91.9219988
  11.3440012  52.5184997  93.2469988  11.5120012  53.5754997  93.5449988
  10.2370012  52.4364997  93.2829988  12.0190012  51.6324997  94.2099988
  11.6130012  50.6134997  94.0309988  13.1190012  51.6964997  94.0689988
  11.6150012  52.0344997  95.6319988  12.0810012  53.0434997  95.6209988
  10.5050012  52.0744997  95.6659988  12.2530012  51.0354997  96.6209988
  11.5730012  50.2814997  97.3409988  13.5830012  51.2834997  96.7719988
  14.2620012  50.6294997  97.8349988  13.6780012  49.8434997  98.3599988
  15.1820012  50.2044997  97.3789988  14.9790012  51.6084997  98.7609988
  15.8580012  51.1264997  99.2389988  14.0850012  52.0914997  99.9679988
  13.0520012  52.3814997  99.6799988  13.9810012  51.1944997 100.6159988
  14.9100012  52.9844997 100.6689988  14.3560012  54.2804997 101.3829988
  15.7140012  55.0444997 101.6919988  16.6670012  55.3194997 100.6639988
  16.1780012  55.4724997  99.6779988  17.1880012  56.2814997 100.8559988
  17.7840012  54.2644997 100.5619988  17.4100012  53.2754997 100.3419988
  18.3750012  54.7234997  99.7829988  18.6630012  54.1324997 101.7569988
  17.9590012  53.7144997 103.0279988  18.7190012  53.7034997 103.7959988
  17.0680012  54.3164997 103.1319988  17.6650012  52.6814997 102.9159988
  19.7810012  53.0834997 101.3649988  20.2770012  52.8104997 102.2849988
  19.2410012  52.2334997 100.9739988  20.4620012  53.5754997 100.6869988
  19.3870012  55.4354997 102.0399988  20.0990012  55.1724997 102.8079988
  18.6820012  56.1774997 102.3849988  19.9450012  55.7014997 101.1539988
  13.5810012  55.0334997 100.4019988  13.6200012  53.9794997 102.6189988
  15.3580012  52.7874997  97.9889988  16.7050012  52.8104997  97.6769988
  17.5350012  51.9464997  97.9839988  16.9210012  53.9334997  96.6459988
  17.8850012  53.8234997  96.1049988  16.8640012  54.9194997  97.1549988
  15.7930012  53.8964997  95.4859988  14.8270012  54.2574997  95.8979988
  15.6960012  52.8784997  95.0509988  16.2080012  54.8584997  94.3939988
  17.1310012  54.3884997  93.9919988  16.3660012  55.7874997  94.9829988
  15.0950012  55.0034997  93.3919988  14.1330012  54.9174997  93.9419988
  15.1010012  54.1414997  92.6919988  15.0660012  56.2554997  92.5119988
  14.6470012  57.0744997  93.1339988  14.4010012  56.1604997  91.6269988
  16.4990012  56.6874997  91.9569988  17.1180012  56.9184997  92.8509988
  16.4020012  57.6914997  91.4899988  17.1430012  55.7504997  90.9099988
  16.4770012  55.5584997  90.0419988  17.2750012  54.7364997  91.3449988
  18.4470012  56.3084997  90.3359988  18.3310012  57.3134997  89.9049988
  19.6570012  55.7384997  90.4309988  20.5650012  56.0714997  89.9069988
  19.9280012  54.4164997  91.1429988  19.2020012  54.1064997  91.9249988
  20.8160012  54.5694997  91.7929988  20.3060012  53.1914997  90.2219988
  20.7200012  52.4394997  90.9279988  21.1880012  53.4864997  89.6159988
  19.1400012  52.6744997  89.2549988  19.5910012  51.9864997  88.5079988
  18.6500012  53.5934997  88.8679988  18.1120012  51.9484997  90.0889988
  18.0420012  52.3964997  91.1029988  18.4090012  50.8794997  90.1469988
  16.7620012  51.8684997  89.4589988  16.4510012  52.9014997  89.1929988
  15.9420012  51.5694997  90.1469988  16.7010012  50.8214997  88.3199988
  17.0270012  49.8864997  88.8239988  17.3490012  51.1694997  87.4879988
  15.2690012  50.7264997  87.6059988  14.7600012  51.6614997  87.9239988
  14.7490012  49.7774997  87.8589988  15.4300012  50.8154997  86.0459988
  15.9400012  51.7204997  85.6509988  14.3960012  50.7554997  85.6439988
  16.0520012  49.9684997  85.6849988  79.7140012 131.6534997  83.3029988
  79.7920012 130.5734997  83.5519988  80.0310012 131.8094997  82.2499988
  78.6370012 131.9264997  83.3249988  80.5800012 132.4684997  84.2769988
  81.5970012 132.0224997  84.3039988  80.5250012 133.5184997  83.9199988
  79.8770012 132.6394997  85.6849988  78.8680012 132.9744997  85.3619988
  79.6540012 131.6854997  86.2069988  80.5010012 133.7734997  86.4929988
  80.7120012 134.7144997  85.9409988  79.7950012 133.8734997  87.3449988
  81.8340012 133.3284997  87.2089988  82.6240012 133.0464997  86.4799988
  82.1370012 134.2024997  87.8239988  81.5830012 132.1384997  88.1439988
  80.7320012 132.3844997  88.8139988  81.3120012 131.2064997  87.6029988
  82.7360012 131.6894997  89.0139988  83.4210012 131.1914997  88.2939988
  83.3150012 132.4254997  89.6109988  82.3270012 130.7114997  90.1229988
  81.5910012 130.0744997  89.5869988  83.1640012 130.0644997  90.4619988
  81.8100012 131.4184997  91.3579988  81.1540012 132.2514997  91.0269988
  81.2520012 130.7004997  91.9949988  82.9280012 132.1064997  92.1469988
  83.9540012 131.6864997  92.0739988  83.1020012 133.0884997  91.6579988
  82.5110012 132.4884997  93.5749988  81.7740012 131.7424997  93.9409988
  83.3760012 132.3854997  94.2659988  81.8820012 133.9634997  93.6519988
  82.6070012 134.7374997  93.3209988  80.9880012 133.9264997  92.9919988
  81.3860012 134.1594997  95.0459988  80.6840012 133.3164997  95.2239988
  82.2160012 134.0744997  95.7799988  80.6460012 135.4354997  95.3369988
  81.4570012 136.1244997  95.0179988  79.7990012 135.6714997  94.6579988
  80.2180012 135.7444997  96.8029988  80.8560012 135.2784997  97.5839988
  80.3610012 136.8424997  96.8929988  78.7420012 135.3544997  97.0289988
  77.9610012 135.3554997  96.0929988  78.4570012 135.2474997  98.3009988
  77.1610012 134.6834997  98.6369988  76.8300012 135.2284997  99.5469988
  76.4290012 134.8354997  97.8139988  77.3070012 133.1284997  98.9519988
  76.3400012 132.7214997  99.3159988  78.4610012 132.8384997  99.9669988
  79.3980012 133.3584997  99.6729988  78.3070012 133.3604997 100.9359988
  78.6360012 131.4024997 100.0049988  79.8950012 130.5934997  99.4119988
  80.5760012 129.9704997 100.7309988  79.8180012 129.6444997 101.8719988
  78.7170012 129.5854997 101.7349988  80.1830012 128.7464997 102.4139988
  80.0230012 130.7914997 102.8479988  79.7360012 131.7184997 102.3749988
  79.3700012 130.6484997 103.6959988  81.4410012 131.0994997 103.3739988
  82.3130012 131.6394997 102.2389988  83.1020012 132.1104997 102.8059988
  82.5660012 130.7844997 101.6299988  81.8340012 132.4844997 101.7659988
  81.2610012 132.2064997 104.3689988  80.7660012 131.8864997 105.2739988
  82.2190012 132.5824997 104.6979988  80.4770012 132.8994997 104.0999988
  82.0720012 129.8524997 103.9759988  82.1400012 129.1614997 103.1489988
  81.4480012 129.4904997 104.7799988  83.0490012 130.1414997 104.3349988
  79.3150012 129.5224997  98.6299988  80.8070012 131.5034997  98.7249988
  77.6240012 132.4924997  97.7329988  76.6520012 132.3264997  96.8609988
  75.4440012 132.5014997  96.9959988  77.2130012 131.8154997  95.5559988
  77.6150012 130.7834997  95.6449988  78.0450012 132.4594997  95.1999988
  76.1730012 131.7374997  94.4329988  75.4660012 132.5944997  94.4369988
  75.7020012 130.7414997  94.5729988  76.9160012 131.7074997  93.0909988
  77.4000012 132.7074997  93.0629988  76.1780012 131.5874997  92.2689988
  77.9990012 130.6004997  92.9389988  78.8570012 130.7474997  93.6279988
  78.4680012 130.6714997  91.9339988  77.5690012 129.1444997  93.1479988
  77.1350012 128.9924997  94.1589988  78.5250012 128.5824997  93.0819988
  76.5240012 128.5874997  92.1599988  75.6230012 129.2354997  92.1089988
  76.1160012 127.5834997  92.4029988  77.0210012 128.3554997  90.7259988
  77.8690012 127.6474997  90.8439988  77.4380012 129.3564997  90.4859988
  76.0400012 127.8164997  89.6509988  76.1130012 126.8014997  89.2339988
  75.1650012 128.5334997  88.9059988  74.4810012 127.8944997  88.3289988
  74.9500012 130.0414997  88.9219988  75.8160012 130.5244997  89.4239988
  74.0430012 130.3504997  89.4839988  74.8730012 130.6304997  87.5269988
  74.4320012 131.6354997  87.6999988  74.1090012 130.1334997  86.8909988
  76.2930012 130.8424997  86.8139988  77.0330012 130.0144997  86.8629988
  76.6830012 131.7174997  87.3759988  76.1140012 131.2294997  85.3449988
  75.8150012 130.3524997  84.7319988  77.0850012 131.5154997  84.8869988
  75.0340012 132.3024997  85.1019988  75.1470012 133.0874997  85.8799988
  74.0660012 131.8114997  85.3359988  75.0460012 132.9674997  83.7129988
  74.2110012 133.6944997  83.7999988  74.8130012 132.0904997  83.0709988
  76.2730012 133.7494997  83.3719988  76.4140012 133.6934997  82.2719988
  77.0690012 133.0914997  83.7819988  76.4230012 135.1364997  84.0129988
  76.1960012 135.1114997  85.1009988  75.6490012 135.7774997  83.5399988
  77.4080012 135.6054997  83.8019988   3.9670012  79.0434997  80.5079988
   4.8270012  79.3734997  81.1279988   3.1170012  79.6374997  80.9079988
   4.0430012  79.4074997  79.4609988   3.5920012  77.5294997  80.7079988
   2.8200012  77.2994997  79.9419988   4.4530012  76.8594997  80.5029988
   3.1860012  77.0474997  82.1339988   3.9810012  77.4764997  82.7809988
   2.2610012  77.5684997  82.4639988   2.9610012  75.5404997  82.3119988
   2.2750012  75.1684997  81.5209988   3.9570012  75.0894997  82.1139988
   2.1600012  75.1214997  83.5319988   1.1740012  75.6324997  83.5149988
   1.9620012  74.0294997  83.4739988   2.7400012  75.5174997  84.8739988
   2.5960012  76.6184997  84.8649988   2.0580012  75.2324997  85.7029988
   4.1220012  75.1484997  85.3139988   4.7890012  75.7624997  84.6709988
   4.3530012  75.4154997  86.3669988   4.3690012  73.6624997  85.2549988
   3.4740012  73.2464997  85.7659988   4.1860012  73.1584997  84.2819988
   5.5690012  73.0824997  86.0519988   5.7740012  71.9994997  85.9119988
   6.4240012  73.6334997  85.6069988   5.4220012  73.2094997  87.5969988
   5.2680012  74.2924997  87.7889988   4.5640012  72.6614997  88.0419988
   6.8210012  72.9934997  88.3709988   7.0950012  71.9244997  88.4989988
   7.5200012  73.5504997  87.7119988   6.7740012  73.6674997  89.7659988
   7.8130012  73.7214997  90.1559988   6.4040012  74.7084997  89.6449988
   5.7630012  72.9134997  90.7129988   4.7920012  72.6524997  90.2409988
   6.2030012  71.9294997  90.9849988   5.5240012  73.6124997  92.0649988
   5.1530012  74.6534997  91.9479988   4.6600012  73.0354997  92.4589988
   6.6620012  73.5204997  93.0229988   7.0040012  72.4634997  92.9979988
   7.3610012  74.3574997  92.8099988   6.0840012  73.8254997  94.3939988
   5.1660012  74.5964997  94.6299988   6.7380012  73.1034997  95.3539988
   6.3060012  73.1994997  96.6679988   5.2090012  73.3754997  96.6949988
   6.5250012  72.1944997  97.0889988   6.9590012  74.3844997  97.4279988
   8.0580012  74.2414997  97.3479988   6.6690012  74.4784997  98.9029988
   7.1090012  73.5644997  99.3569988   7.2570012  75.3064997  99.3549988
   5.2960012  74.5604997  99.0789988   4.4120012  75.8584997  99.4699988
   5.1390012  76.2994997 100.8289988   4.4290012  76.5224997 101.9789988
   3.5480012  77.1954997 101.9069988   3.9790012  75.5774997 102.3529988
   5.4180012  77.0134997 103.1399988   5.7250012  78.0404997 103.0099988
   4.8780012  76.9274997 104.0709988   6.7420012  76.2594997 103.3289988
   6.3940012  74.8204997 103.3999988   5.9290012  74.6054997 102.4489988
   7.2810012  74.2184997 103.5289988   5.7180012  74.8744997 104.2399988
   7.7220012  76.5324997 102.1759988   7.3030012  76.2424997 101.2239988
   7.8990012  77.5774997 101.9689988   8.6480012  76.0064997 102.3579988
   7.3530012  76.6674997 104.6509988   6.7230012  76.3154997 105.4549988
   7.4940012  77.7384997 104.6609988   8.3490012  76.2754997 104.7969988
   4.5370012  76.8884997  98.4619988   3.0520012  75.3304997  99.6669988
   6.5740012  75.6214997  96.7229988   7.5300012  76.5164997  96.6079988
   8.5700012  76.5334997  97.2599988   7.0280012  77.6664997  95.7579988
   7.0680012  78.4724997  96.5219988   6.0370012  77.2984997  95.4169988
   7.9600012  78.1444997  94.6609988   9.0480012  77.9254997  94.7219988
   7.7840012  79.2314997  94.5169988   7.6070012  77.4934997  93.3419988
   6.5070012  77.5224997  93.1929988   7.8710012  76.4194997  93.4499988
   8.2990012  78.1544997  92.1989988   9.3740012  78.2344997  92.4679988
   7.9360012  79.1934997  92.0449988   8.2860012  77.3554997  90.8899988
   8.7220012  76.3434997  91.0319988   9.0260012  77.8294997  90.2099988
   6.9870012  77.3444997  90.0719988   6.1280012  77.0084997  90.6919988
   7.0530012  76.5874997  89.2619988   6.7250012  78.7514997  89.5189988
   7.5800012  79.1084997  88.9059988   6.3570012  79.4224997  90.3249988
   5.5630012  78.5784997  88.4879988   4.5720012  78.2924997  88.8709988
   5.5440012  78.6974997  87.1469988   4.5450012  78.5964997  86.6989988
   6.6600012  79.0724997  86.1749988   7.5920012  79.4414997  86.6539988
   6.2770012  79.9614997  85.6289988   7.0750012  78.0854997  85.1179988
   7.5740012  78.7734997  84.4019988   6.2080012  77.6824997  84.5509988
   8.2540012  77.1024997  85.4519988   7.7820012  76.2394997  85.9679988
   8.9120012  77.7084997  86.1099988   9.0700012  76.5844997  84.1929988
  10.0390012  76.1234997  84.4819988   9.2450012  77.5164997  83.6129988
   8.2810012  75.6404997  83.2839988   7.2120012  75.9414997  83.3379988
   8.4350012  74.6134997  83.6789988   8.8050012  75.6984997  81.8059988
   8.4740012  74.6944997  81.4639988   9.9020012  75.8714997  81.8429988
   8.2380012  76.8184997  80.9879988   8.1360012  77.7604997  81.5689988
   7.2030012  76.5814997  80.6599988   9.2110012  76.9424997  79.6959988
  10.2040012  77.2814997  80.0609988   8.7850012  77.6684997  78.9719988
   9.2210012  75.9534997  79.1889988   6.4050012  85.3574997  82.7499988
   7.4570012  85.5474997  83.0539988   6.1700012  86.2964997  82.2049988
   6.3190012  84.5114997  82.0349988   5.5120012  85.0374997  83.8999988
   4.6020012  85.6494997  83.7219988   5.2680012  83.9544997  83.8559988
   6.1210012  85.2894997  85.2349988   7.0170012  84.6334997  85.2719988
   6.3830012  86.3694997  85.2119988   5.2100012  84.9324997  86.4119988
   4.4220012  85.6804997  86.1789988   4.8750012  83.8814997  86.2829988
   5.9310012  85.0584997  87.7229988   6.7780012  85.7764997  87.6869988
   5.0910012  85.4614997  88.3269988   6.5210012  83.7014997  88.1299988
   5.7850012  82.8744997  88.2249988   7.1900012  83.4434997  87.2809988
   7.2680012  83.7224997  89.5009988   7.9570012  82.8514997  89.4709988
   7.8900012  84.6384997  89.4089988   6.4980012  83.9274997  90.8639988
   5.9830012  84.9104997  90.8199988   5.7230012  83.1334997  90.9249988
   7.4030012  83.7714997  92.0729988   8.1280012  82.9524997  91.8779988
   8.0670012  84.6334997  92.2989988   6.7270012  83.4104997  93.4009988
   6.2380012  82.4214997  93.2719988   7.5410012  83.1284997  94.1019988
   5.8120012  84.5424997  93.8489988   6.4430012  85.4534997  93.9199988
   4.9590012  84.6614997  93.1479988   4.9310012  84.3304997  95.1459988
   3.9740012  84.8124997  94.8509988   4.7460012  83.2634997  95.3939988
   5.5060012  85.0334997  96.3829988   5.6320012  86.0504997  95.9529988
   4.8190012  85.0714997  97.2549988   6.9700012  84.6664997  96.7539988
   7.0370012  83.5574997  96.7949988   7.7190012  85.1384997  96.0839988
   7.2970012  85.2984997  98.0969988   6.4280012  85.0414997  98.7399988
   8.2790012  85.0214997  98.5379988   7.3630012  86.8364997  98.0789988
   7.2190012  87.6714997  97.2099988   7.6020012  87.1084997  99.3859988
   7.6200012  88.5044997  99.7349988   8.2220012  88.6234997 100.6619988
   8.1590012  89.1724997  99.0289988   6.1870012  88.9744997 100.1339988
   6.2790012  89.9854997 100.5849988   5.4750012  88.0794997 101.2849988
   6.1170012  87.7804997 102.1409988   4.5820012  88.6214997 101.6639988
   4.9980012  86.8294997 100.6859988   3.5000012  86.3044997 101.0229988
   3.7900012  84.9884997 101.8079988   4.8840012  84.9644997 102.7379988
   4.9650012  85.8224997 103.4399988   4.6830012  84.1014997 103.4079988
   6.2410012  84.7354997 102.1129988   6.2840012  85.2784997 101.1799988
   6.9850012  85.1154997 102.7959988   6.6710012  83.3384997 101.6959988
   6.4130012  82.4214997 102.8559988   5.3460012  82.5344997 102.9809988
   6.5710012  81.4774997 102.3559988   6.9820012  82.6934997 103.7319988
   5.9580012  82.8384997 100.5129988   4.9040012  82.7704997 100.7399988
   6.1320012  83.5054997  99.6809988   6.3380012  81.8814997 100.1889988
   8.0930012  83.4264997 101.2139988   8.7760012  83.8024997 101.9609988
   8.2260012  84.0304997 100.3289988   8.5100012  82.4334997 101.1429988
   2.7450012  87.2674997 101.8659988   2.9100012  86.0294997  99.6679988
   5.3440012  89.0634997  98.9169988   4.1810012  89.8114997  99.0289988
   3.8740012  90.4834997  99.9879988   3.3600012  89.5674997  97.6589988
   3.8800012  88.8064997  97.0379988   3.4070012  90.5194997  97.0889988
   1.9160012  89.1224997  97.9349988   1.3740012  89.9694997  98.4079988
   1.9880012  88.2414997  98.6079988   1.2770012  88.7834997  96.5989988
   1.5750012  89.5924997  95.8979988   0.1900012  88.9104997  96.7879988
   1.5300012  87.4404997  95.9219988   1.3220012  86.6644997  96.6889988
   2.5970012  87.3204997  95.6379988   0.5970012  87.1424997  94.8349988
  -0.4859988  87.2614997  95.0499988   0.8010012  86.0814997  94.5779988
   0.6070012  88.0074997  93.5859988   0.3180012  89.0384997  93.8799988
  -0.1479988  87.5564997  92.9069988   1.9890012  87.9644997  92.7829988
   2.7670012  88.3034997  93.4999988   1.9940012  88.8554997  92.1189988
   2.3930012  86.7094997  92.0019988   1.8660012  85.7984997  92.3209988
   3.2740012  86.6894997  90.9339988   3.4290012  85.6974997  90.4849988
   4.0140012  87.8024997  90.2729988   5.1190012  87.8254997  90.3859988
   3.6840012  88.7404997  90.7699988   3.7110012  88.0334997  88.8319988
   2.6660012  88.3494997  88.6249988   3.9850012  87.1744997  88.1829988
   4.3190012  89.4144997  88.3589988   5.4050012  89.4234997  88.5959988
   3.9580012  90.2914997  88.9369988   4.1290012  89.6794997  86.9139988
   3.1330012  90.1024997  86.6599988   4.2000012  88.7784997  86.2689988
   5.1510012  90.7494997  86.3579988   5.0750012  91.5984997  87.0699988
   4.7320012  91.3254997  85.5059988   6.6090012  90.3014997  86.1399988
   7.1550012  90.0014997  87.0589988   7.0310012  91.2624997  85.7769988
   6.8060012  89.1814997  85.0429988   6.4410012  89.5734997  84.0689988
   6.1250012  88.3454997  85.3109988   8.1940012  88.7634997  84.9019988
   8.7580012  89.6844997  84.6459988   8.2420012  88.0934997  84.0169988
   8.6500012  88.2784997  85.7909988  32.2190012  30.5624997  79.8689988
  31.8180012  30.4974997  78.8359988  33.0670012  29.8454997  79.8319988
  32.6020012  31.5764997  80.1139988  31.0730012  30.0514997  80.7759988
  31.2590012  30.3524997  81.8289988  30.1120012  30.5254997  80.4809988
  30.6160012  28.5584997  80.8449988  29.7330012  28.5334997  81.5189988
  30.2910012  28.1914997  79.8479988  31.7600012  27.5854997  81.3349988
  31.3540012  26.6084997  80.9949988  32.5960012  27.8564997  80.6549988
  32.1650012  27.6804997  82.7789988  32.8490012  26.8184997  82.9309988
  32.6620012  28.6254997  83.0859988  30.9390012  27.5084997  83.7079988
  30.1800012  28.3094997  83.5769988  30.5540012  26.5014997  83.4399988
  31.4590012  27.5524997  85.1649988  32.2370012  26.8034997  85.4249988
  31.7070012  28.6344997  85.2109988  30.2520012  27.4034997  86.1599988
  29.5520012  28.1734997  85.7709988  29.7190012  26.4424997  85.9949988
  30.5620012  27.6124997  87.6489988  30.8870012  26.6424997  88.0839988
  31.3500012  28.3964997  87.6519988  29.4420012  28.2244997  88.3989988
  29.0550012  29.1684997  87.9599988  28.6350012  27.4654997  88.3139988
  29.6560012  28.5694997  89.8789988  30.3350012  29.4434997  89.9669988
  28.6320012  28.7694997  90.2629988  30.2650012  27.3994997  90.5639988
  29.9580012  26.3864997  90.2279988  31.3710012  27.3404997  90.4789988
  29.9540012  27.4874997  92.0769988  30.4150012  28.4464997  92.3979988
  28.8730012  27.5234997  92.3319988  30.6870012  26.4374997  92.9539988
  30.4680012  25.3824997  92.6809988  31.7370012  26.4414997  92.5899988
  30.7270012  26.7214997  94.4439988  31.2960012  27.6614997  94.6049988
  29.7610012  26.9424997  94.9459988  31.2660012  25.5284997  95.2109988
  31.6640012  24.5324997  94.7039988  31.2190012  25.7004997  96.5949988
  31.9740012  24.8174997  97.3999988  31.2700012  24.2974997  98.0829988
  32.4550012  24.0104997  96.8069988  33.0530012  25.6304997  98.1789988
  33.8500012  24.9674997  98.5769988  32.4660012  26.4034997  99.3709988
  31.6140012  25.8294997  99.7939988  33.3150012  26.5224997 100.0779988
  31.9780012  27.6684997  98.9359988  32.2380012  28.9824997  99.7829988
  32.4690012  28.4744997 101.2709988  32.3160012  29.4044997 102.3849988
  31.3890012  29.9874997 102.1929988  32.1620012  28.8084997 103.3109988
  33.5310012  30.3744997 102.4569988  33.7150012  30.7364997 101.4569988
  33.3290012  31.2464997 103.0619988  34.9200012  29.7564997 102.9359988
  35.2520012  28.6064997 102.0829988  34.5910012  27.7864997 102.3229988
  35.0920012  28.7904997 101.0309988  36.2850012  28.3244997 102.2259988
  35.9870012  30.7964997 102.8709988  36.8300012  30.4704997 103.4619988
  36.2640012  31.0424997 101.8559988  35.4820012  31.6544997 103.2899988
  34.7840012  29.2244997 104.3469988  34.7310012  30.1254997 104.9389988
  35.6900012  28.7174997 104.6459988  33.9730012  28.5374997 104.5409988
  33.4640012  29.6734997  99.3139988  30.9680012  29.7194997  99.7979988
  33.6280012  26.4854997  97.2399988  34.8160012  26.9004997  97.4069988
  35.5750012  26.7584997  98.3539988  35.2200012  27.8254997  96.2549988
  36.0110012  28.4774997  96.6819988  34.3520012  28.4814997  96.0289988
  35.5800012  27.0694997  94.9589988  34.6830012  26.5784997  94.5239988
  36.2840012  26.2974997  95.3369988  36.2440012  27.8824997  93.8519988
  36.5170012  27.1984997  93.0199988  37.1940012  28.3394997  94.2039988
  35.2730012  28.9794997  93.3169988  35.0450012  29.7994997  94.0309988
  34.3690012  28.3824997  93.0719988  35.6030012  29.6474997  91.9769988
  36.6680012  29.9664997  91.9849988  34.9640012  30.4894997  91.6369988
  35.3450012  28.6164997  90.8579988  34.2950012  28.2594997  90.9229988
  35.9650012  27.6994997  90.9529988  35.4530012  29.2934997  89.5189988
  34.8250012  30.1994997  89.3769988  34.9490012  28.5614997  88.8529988
  36.7930012  29.5614997  89.0639988  37.3250012  30.3034997  89.6779988
  37.4170012  29.0364997  87.9479988  38.3150012  29.4704997  87.4849988
  36.7130012  28.0644997  86.9739988  36.1630012  27.3214997  87.5889988
  37.5640012  27.6334997  86.4049988  35.8200012  28.8164997  85.9129988
  36.2010012  29.7784997  85.5079988  34.9110012  29.3104997  86.3149988
  35.3650012  27.9294997  84.7359988  34.6390012  28.5124997  84.1299988
  34.8720012  27.0424997  85.1869988  36.5300012  27.2124997  83.9439988
  36.0540012  26.4494997  83.2909988  37.2040012  26.7044997  84.6659988
  37.3460012  28.2164997  83.0849988  37.5150012  29.1644997  83.6389988
  36.7120012  28.4334997  82.1989988  38.6830012  27.5924997  82.6279988
  38.1820012  26.6764997  82.2479988  39.3900012  27.4134997  83.4669988
  39.4610012  28.3194997  81.5159988  38.7740012  28.6424997  80.7039988
  40.0890012  27.5774997  80.9769988  40.3600012  29.4654997  81.9569988
  39.9150012  30.0604997  82.7829988  40.5210012  30.1134997  81.0699988
  41.2630012  29.0344997  82.4399988 132.5280012  73.3834997  82.1389988
 131.9680012  72.4244997  82.1199988 132.1340012  74.0984997  81.3859988
 132.3880012  74.0054997  83.0499988 134.0740012  73.1804997  81.9159988
 134.2240012  72.1064997  81.6759988 134.4310012  73.7414997  81.0259988
 134.9310012  73.7284997  83.0609988 134.6200012  74.7784997  83.2469988
 134.5040012  73.1984997  83.9389988 136.4500012  73.5174997  82.9279988
 136.5730012  72.6374997  82.2609988 136.8170012  74.4054997  82.3689988
 137.2770012  73.5084997  84.2959988 136.6510012  72.7924997  84.8699988
 138.3000012  73.1974997  83.9949988 137.1130012  74.8984997  85.0729988
 137.9690012  75.6034997  85.0119988 136.2880012  75.3394997  84.4739988
 136.7870012  74.8914997  86.6129988 135.8840012  74.2704997  86.7899988
 137.6010012  74.3034997  87.0889988 136.5610012  76.2464997  87.1699988
 137.5010012  76.8394997  87.1459988 135.8250012  76.8174997  86.5649988
 136.1440012  76.1504997  88.6339988 136.1540012  77.1624997  89.0919988
 135.0860012  75.8184997  88.7089988 137.0540012  75.2374997  89.5809988
 136.8380012  74.2134997  89.2069988 138.0900012  75.5304997  89.3079988
 136.8290012  75.4234997  91.1199988 136.8780012  76.5034997  91.3779988
 135.8240012  74.9704997  91.2589988 137.7940012  74.7134997  92.0569988
 137.7410012  73.6754997  91.6639988 138.7960012  75.1284997  91.8199988
 137.4610012  74.7554997  93.5529988 136.4960012  74.2374997  93.7379988
 138.1700012  74.1154997  94.1199988 137.5930012  76.2174997  94.1119988
 138.5850012  76.6034997  93.7939988 136.6860012  76.6844997  93.6699988
 137.5610012  76.1444997  95.6419988 137.1260012  75.1734997  95.9599988
 138.6390012  76.2514997  95.8889988 136.9430012  77.4014997  96.1609988
 137.2350012  78.5034997  95.8419988 136.0290012  76.9514997  97.0789988
 135.2150012  78.0524997  97.5649988 135.9510012  78.8104997  97.9079988
 134.7230012  78.4774997  96.6639988 134.2220012  77.6504997  98.6509988
 133.6580012  78.5114997  99.0709988 134.8660012  76.8614997  99.7969988
 135.6330012  77.4564997 100.3369988 133.9970012  76.6954997 100.4699988
 135.4980012  75.6914997  99.2499988 136.6410012  74.9024997 100.1319988
 135.6880012  74.3654997 101.3129988 134.6330012  73.4184997 101.0459988
 134.4490012  73.2584997  99.9619988 134.7510012  72.4244997 101.5289988
 133.2360012  74.0254997 101.4039988 133.0290012  74.8184997 100.6999988
 132.4550012  73.2914997 101.2739988 133.0560012  74.3534997 102.8989988
 133.5850012  73.2294997 103.7689988 134.5390012  72.8984997 103.3849988
 133.5830012  73.5434997 104.8029988 132.7730012  72.5184997 103.7599988
 133.9060012  75.6104997 103.2339988 134.8610012  75.5114997 102.7399988
 133.3830012  76.5044997 102.9289988 133.9620012  75.6784997 104.3109988
 131.5870012  74.6374997 103.1089988 131.1160012  73.6774997 103.2609988
 131.1120012  75.1344997 102.2759988 131.4380012  75.2874997 103.9589988
 137.1870012  73.7934997  99.4059988 137.6250012  75.8674997 100.6189988
 133.1760012  76.7484997  98.0169988 132.1080012  76.4144997  98.7679988
 131.7870012  76.9464997  99.8319988 131.2670012  75.3344997  98.0279988
 131.0060012  75.6024997  96.9819988 130.3100012  75.1324997  98.5549988
 132.0750012  73.9864997  98.0209988 131.6060012  73.4034997  98.8419988
 133.1560012  74.1434997  98.2229988 131.9040012  73.2074997  96.7229988
 130.8440012  73.2454997  96.3949988 132.2160012  72.1574997  96.9039988
 132.7820012  73.8354997  95.5689988 133.8160012  74.1044997  95.8759988
 132.4210012  74.8474997  95.2899988 132.9100012  72.9544997  94.3229988
 133.1660012  71.8834997  94.4739988 133.7520012  73.3884997  93.7419988
 131.5550012  73.0724997  93.4659988 131.0430012  73.9474997  93.9219988
 131.0860012  72.0714997  93.5799988 131.6610012  73.1784997  91.8969988
 131.9180012  74.2374997  91.6839988 130.6190012  73.0494997  91.5339988
 132.3290012  72.0744997  91.2479988 132.3790012  71.2024997  91.9149988
 132.9170012  72.0634997  90.1289988 133.1610012  71.1104997  89.6359988
 133.0440012  73.3054997  89.2979988 133.9980012  73.2524997  88.7309988
 133.1150012  74.2414997  89.8929988 131.8360012  73.7144997  88.3989988
 130.9330012  73.5104997  89.0139988 131.9260012  73.0534997  87.5099988
 131.7920012  75.2054997  87.8079988 131.8870012  75.8984997  88.6709988
 130.7440012  75.2604997  87.4429988 132.8090012  75.5934997  86.7019988
 132.5400012  74.9404997  85.8439988 133.8140012  75.2154997  86.9879988
 132.7560012  77.0394997  86.2149988 133.2130012  77.7094997  86.9749988
 131.7030012  77.3394997  86.0279988 133.4910012  77.1694997  84.8489988
 134.2210012  76.3374997  84.7629988 134.0810012  78.0684997  84.5699988
 132.4760012  76.9854997  83.7099988 131.6030012  77.6714997  83.7409988
 132.0010012  76.0124997  83.9599988 133.1310012  76.9974997  82.2249988
 133.8200012  76.1874997  81.9049988 133.5860012  77.9904997  82.0229988
 132.2160012  76.7894997  81.6289988   4.9970012  90.0554997  84.0419988
   5.1490012  89.1744997  83.3819988   5.5160012  89.6414997  84.9329988
   5.4020012  91.0364997  83.7159988   3.4740012  90.2974997  84.2409988
   3.0280012  90.6454997  83.2839988   3.0750012  89.3374997  84.6319988
   2.8800012  91.3394997  85.2899988   3.4260012  91.2814997  86.2549988
   3.1950012  92.3104997  84.8509988   1.4150012  91.2544997  85.4809988
   0.8980012  91.4704997  84.5209988   1.1550012  90.2154997  85.7759988
   0.9590012  92.0594997  86.6509988  -0.0439988  91.7974997  87.0499988
   1.5660012  91.7894997  87.5419988   1.0520012  93.5574997  86.4419988
   2.0280012  94.0124997  86.1699988   0.2980012  93.7754997  85.6549988
   0.6910012  94.4724997  87.6349988  -0.3579988  94.1774997  87.8499988
   1.3460012  94.0134997  88.4059988   0.7920012  96.0174997  87.5359988
   1.7550012  96.1914997  88.0609988   0.8420012  96.3564997  86.4789988
  -0.3589988  96.8394997  88.1459988  -0.1379988  97.8944997  87.8799988
  -1.2589988  96.5534997  87.5619988  -0.4959988  96.7214997  89.5909988
  -1.0049988  97.6654997  89.8819988  -1.1989988  95.8674997  89.6909988
   0.7830012  96.6664997  90.4759988   1.3600012  95.7574997  90.2039988
   1.3840012  97.5724997  90.2439988   0.4580012  96.5444997  91.9249988
  -0.1839988  97.4494997  91.9749988  -0.2419988  95.7324997  92.2139988
   1.6510012  96.3344997  92.9419988   2.2760012  95.4814997  92.6009988
   2.2630012  97.2614997  92.9099988   1.1540012  95.9034997  94.2929988
   2.1020012  95.9204997  94.8699988   0.4850012  96.7384997  94.5939988
   0.4490012  94.5734997  94.3919988  -0.4789988  94.5434997  93.7809988
   1.2410012  93.8794997  94.0389988   0.1260012  94.2104997  95.7779988
   0.0190012  95.0204997  96.6469988  -0.0389988  92.8634997  95.9189988
  -0.0879988  92.4404997  97.3469988  -0.2639988  93.2144997  98.1229988
  -0.9339988  91.7394997  97.5089988   1.1500012  91.6134997  97.6889988
   1.1240012  90.6464997  97.1419988   1.1720012  91.1814997  99.1739988
   0.1290012  90.9094997  99.4439988   1.8230012  90.2964997  99.3379988
   1.4190012  92.2684997 100.0209988   1.7280012  92.1484997 101.5729988
   3.0180012  92.9524997 101.5969988   4.2630012  92.3524997 101.5689988
   4.5820012  92.0834997 102.5989988   4.3110012  91.4334997 100.9469988
   5.2780012  93.2914997 100.9099988   6.2930012  92.9524997 101.0499988
   5.0990012  93.4824997  99.8619988   5.4670012  94.7604997 101.4289988
   5.5530012  94.8214997 102.9469988   6.1530012  93.9704997 103.2349988
   6.0490012  95.7144997 103.2979988   4.5600012  94.7294997 103.3589988
   6.8190012  95.2834997 100.9899988   7.0430012  96.2214997 101.4769988
   7.6300012  94.6384997 101.2949988   6.8690012  95.3954997  99.9169988
   4.3730012  95.6264997 100.9029988   4.2460012  95.4774997  99.8409988
   4.6680012  96.6454997 101.1069988   3.4190012  95.4394997 101.3739988
   0.7060012  92.8264997 102.3769988   2.0650012  90.7204997 101.8639988
   2.3280012  92.4094997  97.3689988   3.5670012  91.8724997  97.3799988
   3.7830012  90.6704997  97.4649988   4.5630012  93.0004997  97.2859988
   5.5920012  92.6494997  97.5149988   4.2150012  93.8464997  97.9159988
   4.4800012  93.5744997  95.8999988   3.5000012  94.0394997  95.6609988
   4.6850012  92.8824997  95.0559988   5.5740012  94.6484997  95.6999988
   6.5650012  94.1684997  95.5539988   5.7830012  95.1404997  96.6739988
   5.3830012  95.6664997  94.5259988   6.3360012  96.2224997  94.4029988
   4.5000012  96.3334997  94.6349988   5.0870012  94.8184997  93.2229988
   4.1090012  94.3204997  93.3949988   5.9700012  94.1504997  93.1339988
   4.9080012  95.5604997  91.9099988   5.7990012  96.1904997  91.6999988
   4.2300012  96.4144997  92.1199988   4.5650012  94.7004997  90.6519988
   3.6850012  94.1454997  91.0399988   5.4800012  94.0894997  90.4989988
   4.3690012  95.5874997  89.4459988   3.5920012  96.3554997  89.5739988
   5.0480012  95.5084997  88.2519988   4.5560012  96.0844997  87.4549988
   6.1570012  94.4914997  87.8449988   6.3930012  93.9784997  88.8019988
   7.1040012  94.9804997  87.5339988   5.7310012  93.3524997  86.8909988
   4.7180012  92.9494997  87.1069988   6.5380012  92.5944997  86.9809988
   5.7140012  93.8114997  85.4579988   5.5240012  94.8914997  85.2759988
   4.9660012  93.1884997  84.9219988   7.0870012  93.6484997  84.8999988
   7.3940012  92.5914997  85.0529988   7.8570012  94.2304997  85.4499988
   7.2310012  93.9074997  83.3889988   6.7690012  93.0754997  82.8169988
   8.3200012  93.9164997  83.1709988   6.6080012  95.2094997  82.8229988
   7.1930012  96.1454997  82.9499988   5.5740012  95.2144997  83.2299988
   6.4160012  95.1204997  81.1479988   6.1510012  96.1724997  80.9069988
   5.4470012  94.6074997  80.9679988   7.5440012  94.6074997  80.2069988
   7.6900012  93.5344997  80.4559988   8.5280012  95.0444997  80.4789988
   7.2970012  94.7694997  79.1359988  10.7760012 115.1874997  83.7109988
  10.4790012 116.2434997  83.8879988  11.3090012 115.3404997  82.7479988
  11.4930012 114.8714997  84.4979988   9.5410012 114.3254997  83.5949988
   8.8560012 114.6174997  82.7709988   9.7930012 113.2624997  83.3919988
   8.5980012 114.2884997  84.8059988   8.3630012 115.3584997  84.9899988
   7.7590012 113.6224997  84.5129988   9.2840012 113.8974997  86.0879988
   9.5270012 112.8234997  85.9349988  10.2140012 114.4754997  86.2739988
   8.4300012 114.0484997  87.3359988   8.0010012 115.0724997  87.3609988
   7.5590012 113.3584997  87.3219988   9.1680012 113.6714997  88.5989988
   9.5190012 112.6264997  88.4669988  10.0460012 114.3454997  88.6939988
   8.3150012 113.8254997  89.8669988   7.3140012 113.3444997  89.8259988
   8.8910012 113.3464997  90.6869988   7.9010012 115.2344997  90.1879988
   7.2380012 115.6444997  89.3959988   7.1900012 115.2264997  91.0409988
   9.0390012 116.1884997  90.3349988   9.7530012 115.8554997  91.1169988
   9.5640012 116.1584997  89.3569988   8.5740012 117.6244997  90.7699988
   8.0810012 118.0274997  89.8599988   7.8550012 117.5874997  91.6159988
   9.7480012 118.5484997  91.1279988  10.5810012 118.5224997  90.3929988
   9.5260012 119.6354997  91.1719988  10.4850012 118.1354997  92.4349988
  10.8860012 117.1084997  92.2909988  11.1440012 118.9804997  92.7299988
   9.5620012 117.8674997  93.6549988  10.1890012 118.3324997  94.4459988
   8.6670012 118.5204997  93.5819988   9.1350012 116.4214997  94.0859988
   8.5300012 115.9874997  93.2619988  10.1030012 115.8764997  94.0639988
   8.4480012 116.3844997  95.3659988   8.9690012 116.9854997  96.1419988
   7.3930012 116.6584997  95.1479988   8.4030012 114.9234997  95.9179988
   8.5720012 113.9154997  95.2219988   8.1710012 114.9654997  97.2629988
   8.0480012 113.6934997  97.9349988   7.3200012 113.7914997  98.7689988
   7.6480012 112.8624997  97.3149988   9.4150012 113.1824997  98.4709988
   9.2980012 112.2784997  99.1059988  10.0630012 114.1124997  99.5789988
   9.2440012 114.1874997 100.3259988  10.9870012 113.7174997 100.0519988
  10.5220012 115.3364997  98.9469988  10.6400012 116.5654997  99.8249988
  11.3060012 116.0284997 101.1099988  12.6580012 115.6284997 101.2659988
  13.0780012 114.8864997 100.5529988  13.3290012 116.5134997 101.2309988
  12.9340012 115.1054997 102.7449988  13.9740012 115.0714997 103.0359988
  12.5760012 115.8684997 103.4209988  12.1960012 113.8264997 103.1479988
  10.6860012 114.0294997 103.1659988  10.2400012 113.0484997 103.2419988
  10.4430012 114.6764997 103.9949988  10.3930012 114.4724997 102.2249988
  12.7130012 112.7984997 102.0909988  13.7730012 112.7234997 102.2819988
  12.2210012 111.8604997 102.3029988  12.5330012 113.1454997 101.0849988
  12.7020012 113.4014997 104.4589988  12.4780012 114.1804997 105.1719988
  13.7320012 113.0984997 104.3449988  12.1850012 112.5094997 104.7809988
  11.6540012 117.4714997  99.2459988   9.3310012 117.2084997 100.1799988
  10.3190012 113.1024997  97.3849988  11.5940012 112.6134997  97.5499988
  12.0380012 111.9584997  98.4289988  12.4660012 113.0984997  96.4079988
  11.9550012 112.8294997  95.4579988  13.3990012 112.4954997  96.3809988
  12.7510012 114.5484997  96.5649988  13.0730012 114.7384997  97.6109988
  11.7640012 115.0324997  96.4009988  13.6840012 115.1444997  95.5049988
  13.1710012 114.9464997  94.5399988  14.5910012 114.5054997  95.4529988
  13.9270012 116.5934997  95.6699988  14.7440012 116.7744997  96.3999988
  12.9980012 116.9504997  96.1639988  14.1790012 117.4064997  94.4119988
  14.5570012 118.4494997  94.3659988  13.1500012 117.5134997  94.0079988
  15.1780012 116.5884997  93.5959988  14.8090012 115.5494997  93.4569988
  16.2070012 116.6404997  94.0119988  15.3440012 117.1664997  92.1289988
  16.2500012 116.6694997  91.7199988  15.6580012 118.2314997  92.1599988
  14.1300012 116.9464997  91.2649988  13.4650012 117.8214997  91.2549988
  13.7930012 115.7544997  90.6009988  12.7630012 115.6804997  90.2229988
  14.5910012 114.5264997  90.5779988  14.0450012 113.5844997  90.7959988
  15.3710012 114.6294997  91.3619988  15.3710012 114.2544997  89.2409988
  15.9210012 113.3344997  89.5329988  16.0640012 115.1024997  89.0569988
  14.6130012 114.1314997  87.9149988  13.8670012 114.9434997  87.7779988
  13.9060012 113.2754997  87.9669988  15.6670012 114.0654997  86.8469988
  16.5330012 113.4924997  87.2419988  16.0630012 115.0884997  86.6679988
  15.1920012 113.3134997  85.5399988  14.2020012 113.7464997  85.2829988
  14.9700012 112.2364997  85.7009988  16.2340012 113.4164997  84.4079988
  16.4100012 112.3664997  84.0909988  17.2200012 113.7844997  84.7629988
  15.9150012 114.3114997  83.2099988  16.7360012 114.1494997  82.4779988
  15.9500012 115.3654997  83.5589988  14.6650012 114.0244997  82.4359988
  14.6850012 113.1284997  81.7789988  14.3930012 114.8564997  81.7509988
  13.7810012 114.0324997  83.1089988 131.1480012  83.8734997  83.9719988
 131.6380012  84.8714997  83.9739988 130.2310012  83.9324997  83.3489988
 131.8730012  83.2064997  83.4579988 130.8560012  83.2004997  85.2979988
 130.5270012  82.1534997  85.1319988 131.7650012  83.0954997  85.9279988
 129.8310012  83.8624997  86.2319988 128.8010012  83.5964997  85.9109988
 129.9600012  83.5264997  87.2819988 129.7960012  85.3984997  86.2699988
 129.7700012  85.6534997  85.1879988 128.8690012  85.7674997  86.7589988
 131.0140012  86.0694997  86.9069988 131.9870012  85.8514997  86.4179988
 130.7270012  87.1404997  86.9649988 131.2030012  85.7564997  88.3999988
 130.2110012  85.7294997  88.8989988 131.5780012  84.7134997  88.4799988
 132.2450012  86.7104997  89.0439988 132.9190012  87.0554997  88.2309988
 131.7320012  87.6554997  89.3249988 133.1510012  86.0934997  90.1359988
 133.8070012  85.3844997  89.5879988 133.8580012  86.9274997  90.3339988
 132.6300012  85.3814997  91.3189988 131.8640012  85.9004997  91.9339988
 132.1880012  84.4154997  90.9959988 133.7300012  85.0084997  92.3439988
 134.3280012  84.2144997  91.8469988 134.4100012  85.8854997  92.4039988
 133.4500012  84.5054997  93.7909988 132.9810012  83.4994997  93.8379988
 134.4250012  84.4544997  94.3219988 132.7680012  85.5374997  94.7909988
 133.5080012  86.3574997  94.9129988 131.8170012  85.8724997  94.3249988
 132.5770012  84.9424997  96.2019988 133.5810012  84.7894997  96.6529988
 131.9770012  85.7134997  96.7319988 131.7510012  83.6154997  96.2379988
 131.0430012  83.5654997  95.3829988 132.4630012  82.7624997  96.2079988
 131.1600012  83.4244997  97.5919988 132.0150012  83.2974997  98.2899988
 130.4240012  84.2334997  97.7879988 130.4070012  82.0964997  97.6159988
 130.4100012  81.2944997  96.6859988 130.0640012  81.8094997  98.9139988
 129.7990012  80.5044997  99.2989988 128.9170012  80.4834997  99.9749988
 129.6480012  79.8534997  98.4109988 130.9910012  79.9544997 100.1789988
 130.7290012  78.9664997 100.6149988 131.4140012  80.9934997 101.2719988
 131.6560012  81.9594997 100.7789988 130.4830012  81.1514997 101.8579988
 132.4870012  80.4864997 102.0879988 133.2520012  81.5234997 102.9969988
 133.5620012  82.7494997 102.0849988 134.2420012  82.6474997 100.7989988
 135.3440012  82.5694997 100.9179988 133.9620012  81.7314997 100.2379988
 133.8540012  83.7814997  99.8509988 134.1160012  83.4614997  98.8529988
 132.7810012  83.8984997  99.8569988 134.5310012  85.1744997 100.1139988
 133.7470012  85.9814997 101.1489988 132.7590012  86.1744997 100.7589988
 133.6980012  85.5254997 102.1259988 134.1860012  86.9674997 101.2019988
 135.9150012  85.0484997 100.7059988 135.8170012  84.8714997 101.7669988
 136.4610012  84.2444997 100.2359988 136.5320012  85.9114997 100.5009988
 134.6170012  85.8574997  98.8429988 135.1320012  85.2554997  98.1089988
 135.1860012  86.7744997  98.8329988 133.6340012  86.0384997  98.4319988
 132.2930012  81.9514997 104.0449988 134.5360012  80.9204997 103.5029988
 132.1480012  79.7844997  99.3779988 132.2690012  78.8304997  98.4919988
 131.5390012  77.8914997  98.2479988 133.6370012  79.0624997  97.7529988
 134.3920012  78.7164997  98.4899988 133.8940012  80.1344997  97.6199988
 133.6390012  78.2004997  96.4729988 133.4050012  77.1414997  96.7169988
 134.6380012  78.2024997  95.9869988 132.7860012  78.5574997  95.2659988
 131.7790012  78.8134997  95.6609988 132.7950012  77.6044997  94.6959988
 133.3800012  79.7044997  94.3429988 134.3260012  79.4644997  93.8119988
 133.5130012  80.6274997  94.9469988 132.4110012  79.9694997  93.1719988
 131.4920012  80.4584997  93.5609988 132.0220012  79.0054997  92.7809988
 133.0370012  80.8504997  92.0919988 134.1290012  80.7664997  92.2839988
 132.8730012  81.9294997  92.2999988 132.8610012  80.3124997  90.6609988
 133.1630012  79.2474997  90.7489988 133.6120012  80.8964997  90.0869988
 131.5150012  80.2974997  89.9239988 131.0900012  81.3114997  89.8959988
 130.8760012  79.2214997  89.4379988 129.8410012  79.3584997  89.0909988
 131.2480012  77.7674997  89.4189988 130.4950012  77.1224997  88.9159988
 131.4280012  77.4694997  90.4739988 132.4900012  77.2574997  88.5969988
 132.3240012  76.1814997  88.8169988 133.4570012  77.5294997  89.0709988
 132.4550012  77.5334997  87.1179988 132.0850012  78.5494997  86.8619988
 131.7830012  76.8004997  86.6229988 133.9480012  77.5424997  86.5269988
 133.7730012  77.6464997  85.4349988 134.2740012  76.4844997  86.6149988
 134.9000012  78.6704997  86.9719988 135.0960012  78.4484997  88.0429988
 134.4080012  79.6604997  86.8649988 136.2030012  78.6004997  86.1989988
 136.6390012  77.6484997  86.5679988 136.8620012  79.3974997  86.6049988
 136.0760012  78.5994997  84.6849988 135.6690012  79.6264997  84.5729988
 135.3880012  77.8064997  84.3209988 137.4160012  78.5304997  83.8869988
 137.2080012  77.9754997  82.9469988 138.2850012  77.9754997  84.3009988
 137.7440012  79.5604997  83.6339988   7.8280012  67.9024997  81.8669988
   8.6410012  68.0124997  81.1169988   7.5410012  68.9504997  82.0959988
   7.0070012  67.3184997  81.3999988   8.3410012  67.1584997  83.1299988
   8.5930012  66.0934997  82.9409988   9.3500012  67.5814997  83.3259988
   7.3490012  67.2954997  84.2919988   6.6930012  68.1894997  84.2309988
   6.6990012  66.4024997  84.4099988   7.9090012  67.2724997  85.7559988
   7.0620012  67.3514997  86.4699988   8.4770012  66.3254997  85.8849988
   8.8350012  68.4204997  86.1139988   9.8430012  68.2884997  85.6649988
   8.4620012  69.3954997  85.7339988   9.2400012  68.6524997  87.6279988
   9.7350012  67.7334997  88.0099988  10.0990012  69.3534997  87.6899988
   8.1580012  69.1514997  88.5939988   7.8510012  70.1804997  88.3099988
   7.3660012  68.3854997  88.4499988   8.6490012  69.1994997  90.1299988
   9.1360012  68.2084997  90.2599988   9.3910012  70.0254997  90.0949988
   7.6200012  69.4944997  91.2439988   7.2010012  70.5224997  91.1869988
   6.7240012  68.8394997  91.2279988   8.2820012  69.1694997  92.6129988
   7.5010012  68.8984997  93.3559988   8.8850012  68.2454997  92.4889988
   9.2100012  70.3504997  93.0369988   9.7760012  70.6684997  92.1349988
   8.5240012  71.2054997  93.2189988  10.1320012  69.9274997  94.1549988
  10.5010012  68.9064997  93.9179988  11.0300012  70.5804997  94.1949988
   9.4910012  69.8224997  95.5379988   8.4610012  69.4104997  95.4799988
  10.1940012  69.1604997  96.0869988   9.4260012  71.0534997  96.4739988
  10.4870012  71.3414997  96.6359988   8.9020012  71.7754997  95.8119988
   8.6790012  70.8874997  97.7909988   8.9200012  69.9344997  98.3079988
   8.9590012  71.7434997  98.4409988   7.1240012  70.8094997  97.5599988
   6.5620012  71.5764997  96.7889988   6.6260012  69.7644997  98.1879988
   5.3290012  69.5344997  97.7139988   4.6210012  70.2884997  98.1189988
   5.1740012  69.4664997  96.6159988   4.6990012  68.2134997  98.3089988
   3.6680012  67.9814997  97.9689988   4.5150012  68.2454997  99.8259988
   3.7830012  69.0544997 100.0369988   4.1630012  67.2534997 100.1809988
   5.7300012  68.5934997 100.4599988   5.6580012  68.8964997 102.0709988
   6.6550012  67.7884997 102.6829988   6.3850012  66.3824997 102.6429988
   6.9840012  65.8484997 103.4119988   5.3170012  66.1224997 102.8009988
   6.7510012  65.6504997 101.2439988   6.4260012  64.6224997 101.3069988
   6.1880012  66.2274997 100.5249988   8.1610012  65.5834997 100.6979988
   8.8110012  66.8594997 100.2589988   8.3160012  67.3354997  99.4249988
   8.8890012  67.4684997 101.1479988   9.8210012  66.5474997 100.0389988
   8.9930012  64.9694997 101.7299988   9.9220012  64.6494997 101.2819988
   9.2020012  65.6544997 102.5379988   8.4840012  64.1994997 102.2899988
   8.0400012  64.5414997  99.5569988   9.0680012  64.3004997  99.3269988
   7.5280012  65.0074997  98.7279988   7.5800012  63.6934997 100.0409988
   6.2880012  70.2074997 102.1129988   4.3210012  68.8344997 102.7219988
   5.6040012  67.1334997  97.9609988   5.2110012  66.4154997  96.8649988
   4.2890012  66.7134997  96.0999988   6.1230012  65.2064997  96.6329988
   5.8910012  64.5624997  97.5069988   7.1820012  65.5354997  96.5649988
   5.8570012  64.6294997  95.2629988   4.7840012  64.4194997  95.0679988
   6.3230012  63.6264997  95.3749988   6.5050012  65.3234997  94.0089988
   7.5940012  65.4614997  94.1769988   6.0460012  66.3094997  93.7829988
   6.2130012  64.3154997  92.8279988   5.1440012  64.0214997  92.9009988
   6.6690012  63.3314997  93.0669988   6.6150012  64.7934997  91.4489988
   7.7170012  64.7744997  91.3159988   6.4160012  65.8864997  91.4729988
   6.0380012  64.0784997  90.2909988   4.9560012  64.3314997  90.2579988
   6.2750012  63.0114997  90.4869988   6.5490012  64.3724997  88.8419988
   7.6570012  64.3024997  88.8749988   6.4370012  65.4644997  88.6689988
   5.9340012  63.5184997  87.8189988   6.6430012  62.7344997  87.5149988
   4.7620012  63.7174997  87.1609988   4.3870012  62.9484997  86.4689988
   3.8800012  64.8644997  87.4819988   4.1970012  65.4174997  88.3919988
   2.9040012  64.3544997  87.6319988   3.5110012  65.8044997  86.3239988
   3.1970012  65.1154997  85.5119988   4.4110012  66.3464997  85.9609988
   2.2630012  66.6744997  86.5279988   1.3650012  66.0644997  86.7629988
   2.0180012  67.2144997  85.5879988   2.4760012  67.8414997  87.5009988
   2.4820012  67.3284997  88.4869988   1.5050012  68.3774997  87.4259988
   3.6690012  68.6034997  87.2319988   4.5960012  68.0604997  87.5159988
   3.5830012  69.4144997  87.9859988   3.8540012  69.2334997  85.8599988
   4.3440012  68.5264997  85.1569988   4.6910012  69.9644997  85.8309988
   2.5960012  69.8394997  85.2349988   2.1030012  70.4924997  85.9859988
   1.8970012  69.0384997  84.9119988   2.7540012  70.6764997  83.9769988
   3.5690012  71.4274997  83.9009988   1.7980012  71.2364997  83.9009988
   2.9810012  70.1164997  83.0449988  95.0830012 126.4754997  79.9399988
  95.6400012 127.4354997  79.8809988  94.3220012 126.6484997  80.7299988
  94.6430012 126.1974997  78.9579988  95.9530012 125.2994997  80.6029988
  95.1770012 124.5914997  80.9649988  96.5050012 124.7264997  79.8279988
  96.7530012 125.6904997  81.8259988  97.5030012 124.9154997  82.0919988
  97.2510012 126.6474997  81.5609988  95.7910012 125.7334997  83.0229988
  94.8580012 126.3334997  82.9729988  95.4150012 124.6924997  82.9259988
  96.4440012 125.7234997  84.3959988  96.9780012 124.7494997  84.4249988
  97.2660012 126.4554997  84.5459988  95.5390012 125.8114997  85.6129988
  94.9240012 126.7284997  85.4879988  94.8620012 124.9314997  85.6349988
  96.2290012 125.7394997  86.9359988  96.5540012 124.6794997  87.0079988
  97.1500012 126.3564997  86.8639988  95.3170012 126.1114997  88.1449988
  94.7570012 127.0404997  87.9019988  94.4490012 125.4284997  88.2709988
  95.9690012 126.4014997  89.4339988  96.6070012 127.3024997  89.3089988
  95.2090012 126.5994997  90.2189988  96.9840012 125.2824997  89.9189988
  96.5290012 124.2944997  89.6909988  97.9750012 125.4094997  89.4329988
  97.0430012 125.2914997  91.4319988  96.0070012 125.1734997  91.8139988
  97.5560012 124.3484997  91.7169988  97.7870012 126.6074997  91.9509988
  98.7480012 126.5744997  91.3949988  97.1770012 127.5124997  91.7409988
  98.3160012 126.5584997  93.3899988  98.4870012 125.4784997  93.5909988
  99.2910012 127.0834997  93.4819988  97.4190012 127.1344997  94.3939988
  97.2180012 128.1354997  93.9569988  96.4840012 126.5384997  94.3159988
  97.9060012 127.0074997  95.8469988  98.0230012 125.9694997  96.2269988
  98.7930012 127.6684997  95.9479988  96.8810012 127.7004997  96.8619988
  95.8140012 128.2314997  96.5039988  97.5060012 127.8144997  98.0009988
  96.6430012 128.2264997  99.0619988  97.2960012 128.5944997  99.8819988
  95.9370012 129.0184997  98.7299988  95.8570012 127.0204997  99.8069988
  95.2500012 127.4674997 100.6239988  96.8460012 125.9604997 100.3479988
  97.6840012 126.5864997 100.7229988  96.3130012 125.3614997 101.1169988
  97.3510012 125.0874997  99.3639988  98.8020012 124.4384997  99.6559988
  98.5210012 123.5324997 100.9099988  97.9950012 122.2224997 100.6969988
  96.9460012 122.3344997 100.3489988  98.6350012 121.5914997 100.0429988
  98.0260012 121.5614997 102.1299988  97.6340012 120.5564997 102.0889988
  99.0850012 121.4364997 102.2999988  97.3820012 122.1504997 103.3639988
  95.9990012 122.6244997 103.0619988  95.7570012 122.4164997 102.0299988
  95.3930012 122.0914997 103.7789988  95.9490012 123.6664997 103.3399988
  97.2890012 121.0584997 104.4099988  98.2110012 120.9084997 104.9519988
  96.6380012 121.5374997 105.1259988  96.8230012 120.1694997 104.0109988
  98.2460012 123.2294997 103.9059988  98.2840012 124.0754997 103.2359988
  99.2570012 122.8654997 104.0159988  97.7550012 123.4194997 104.8489988
  99.1330012 123.5554997  98.4999988  99.8300012 125.3894997 100.1839988
  94.8850012 126.4114997  98.8899988  94.0040012 125.5464997  99.4159988
  93.9060012 125.2094997 100.5859988  93.1210012 125.1244997  98.2459988
  92.8170012 125.9644997  97.5859988  92.2240012 124.7314997  98.7709988
  93.7970012 124.0334997  97.4079988  93.0660012 123.6874997  96.6459988
  94.1650012 123.1754997  98.0099988  94.9260012 124.5704997  96.5089988
  95.7170012 124.8764997  97.2269988  94.5190012 125.4434997  95.9539988
  95.4460012 123.6194997  95.4809988  96.2190012 124.0764997  94.8269988
  94.5670012 123.3354997  94.8639988  96.1750012 122.4144997  96.0629988
  95.3980012 121.6554997  96.2969988  96.7320012 122.6584997  96.9919988
  97.1650012 121.7094997  95.0919988  96.5000012 121.5374997  94.2179988
  97.5960012 120.7694997  95.4969988  98.3690012 122.5554997  94.6379988
  98.6130012 123.1904997  95.5159988  97.9650012 123.2754997  93.8939988
  99.6460012 121.7694997  94.2989988 100.2270012 121.4174997  95.1649988
 100.1960012 121.6174997  93.0399988 101.1990012 121.1664997  93.0699988
  99.6900012 122.2084997  91.7489988 100.1840012 123.1564997  91.4459988
  98.6170012 122.4884997  91.6729988  99.7650012 121.1184997  90.6679988
  99.2510012 120.2224997  91.0759988 100.8010012 120.7564997  90.4939988
  99.0680012 121.7144997  89.4059988  99.6000012 122.6434997  89.1089988
  98.0150012 121.9254997  89.6909988  98.8250012 120.6524997  88.2899988
  98.8160012 119.5984997  88.6399988  99.6880012 120.6294997  87.5909988
  97.5030012 120.8454997  87.5599988  96.6500012 121.0644997  88.2379988
  97.3280012 119.8714997  87.0539988  97.4870012 121.9914997  86.5049988
  98.1790012 121.6264997  85.7159988  97.6930012 122.9654997  86.9969988
  96.0750012 122.0874997  85.8489988  96.1310012 123.0394997  85.2779988
  95.2560012 122.1144997  86.5979988  95.7120012 121.0454997  84.7739988
  96.2660012 121.1944997  83.8219988  94.6220012 121.0874997  84.5629988
  95.8500012 119.9864997  85.0799988  37.3390012 134.6134997  83.3409988
  36.7880012 134.1094997  82.5179988  37.5610012 135.6564997  83.0299988
  36.6140012 134.7174997  84.1759988  38.6120012 133.8764997  83.6249988
  39.1360012 133.9354997  82.6469988  39.0900012 134.4814997  84.4249988
  38.5050012 132.3904997  83.9849988  37.8130012 132.1434997  84.8179988
  38.0670012 131.8344997  83.1289988  39.7740012 131.5744997  84.3139988
  39.4000012 130.5364997  84.4429988  40.3690012 131.7254997  83.3889988
  40.4510012 132.0014997  85.6189988  41.4270012 131.4744997  85.6889988
  40.6150012 133.0984997  85.6739988  39.4920012 131.5064997  86.8189988
  38.7090012 132.2744997  86.9929988  38.9010012 130.6164997  86.5109988
  40.2270012 131.3114997  88.1799988  39.6360012 130.7354997  88.9249988
  41.0920012 130.6244997  88.0579988  40.9280012 132.5624997  88.7919988
  41.6950012 132.4614997  89.5889988  41.5910012 133.0404997  88.0399988
  40.0400012 133.6504997  89.3819988  39.2810012 133.8324997  88.5909988
  39.5350012 133.2744997  90.2969988  40.6910012 134.9984997  89.6269988
  41.5690012 134.8664997  90.2939988  41.0810012 135.3184997  88.6379988
  39.6490012 136.0714997  90.2399988  40.2160012 137.0184997  90.3639988
  38.9120012 136.2214997  89.4219988  38.8650012 135.5354997  91.4209988
  38.0720012 136.2414997  91.7469988  38.3980012 134.6234997  90.9909988
  39.7510012 135.2824997  92.6459988  40.6970012 134.8144997  92.2989988
  40.0850012 136.2594997  93.0579988  39.1490012 134.4214997  93.7079988
  38.6980012 133.5304997  93.2229988  39.9310012 134.1484997  94.4489988
  38.0130012 135.2344997  94.4989988  38.4830012 136.1424997  94.9319988
  37.1710012 135.4104997  93.7959988  37.5360012 134.4254997  95.6739988
  37.3140012 133.2234997  95.6059988  37.5810012 135.2534997  96.6749988
  37.7430012 134.6644997  97.9829988  37.1730012 135.3794997  98.6159988
  37.1970012 133.7124997  98.1539988  39.2460012 134.5024997  98.4019988
  39.6320012 133.8214997  97.6129988  39.3570012 133.8614997  99.8529988
  39.3020012 134.6404997 100.6429988  38.4630012 133.2464997 100.0899988
  40.6380012 133.1534997  99.8629988  40.8050012 132.0024997 100.8759988
  42.3090012 132.0304997 101.1659988  43.2620012 132.8534997 100.4619988
  44.2650012 132.4924997 100.7759988  43.2250012 132.6444997  99.3719988
  43.0700012 134.3744997 100.8369988  43.7060012 135.0194997 100.2469988
  42.0510012 134.6264997 100.5849988  43.3380012 134.7994997 102.2959988
  44.5800012 134.1044997 102.7639988  44.8470012 134.4374997 103.7569988
  44.5520012 133.0294997 102.8579988  45.3530012 134.4084997 102.0739988
  43.4950012 136.2984997 102.3449988  44.3030012 136.5534997 101.6749988
  42.5610012 136.7574997 102.0569988  43.6530012 136.6594997 103.3509988
  42.1980012 134.3844997 103.2099988  41.2910012 134.8514997 102.8579988
  42.4010012 134.7864997 104.1919988  42.1360012 133.3064997 103.2169988
  40.2200012 132.4024997 102.1819988  40.5170012 130.6984997 100.1789988
  39.8910012 135.8104997  98.3299988  41.1450012 135.8404997  97.8719988
  41.8110012 134.8424997  97.6199988  41.5600012 137.2154997  97.6439988
  42.0010012 137.6534997  98.5639988  40.7110012 137.8724997  97.3569988
  42.7110012 137.3494997  96.5389988  43.5330012 136.6084997  96.6369988
  43.1840012 138.3404997  96.7059988  42.2740012 137.3844997  95.0969988
  41.3830012 138.0344997  94.9599988  41.9720012 136.3704997  94.7589988
  43.3390012 137.7074997  94.1089988  44.2130012 137.1164997  94.4559988
  43.5320012 138.8014997  94.1149988  43.0040012 137.3764997  92.6679988
  42.1590012 137.9914997  92.2899988  42.7150012 136.3134997  92.8129988
  44.2000012 137.2594997  91.7189988  44.4000012 138.2844997  91.3409988
  43.8740012 136.6284997  90.8649988  45.4860012 136.5954997  92.1969988
  45.8200012 137.1624997  93.0919988  46.2680012 136.9064997  91.4719988
  45.3970012 135.0924997  92.5099988  45.0080012 134.7964997  93.4949988
  45.8630012 134.0464997  91.8069988  45.5640012 133.0544997  92.1759988
  46.5960012 134.0054997  90.5289988  47.4050012 133.2444997  90.5199988
  47.0770012 135.0064997  90.4879988  45.8540012 133.8434997  89.2229988
  45.1480012 132.9884997  89.1679988  46.5730012 133.7774997  88.3789988
  45.0000012 135.0864997  88.7999988  45.4290012 136.0264997  89.2079988
  43.9860012 134.9284997  89.2259988  44.8290012 135.2234997  87.2589988
  45.8480012 135.5034997  86.9179988  44.0080012 135.9574997  87.1099988
  44.4480012 133.8464997  86.5749988  43.6660012 133.3614997  87.1979988
  45.3550012 133.2064997  86.5459988  44.0690012 134.0974997  85.1839988
  43.4880012 133.2914997  84.6859988  44.9420012 134.1594997  84.5009988
  43.1590012 135.3744997  84.9299988  42.5370012 135.6054997  85.8209988
  42.4850012 135.1654997  84.0729988  43.9300012 136.6864997  84.5489988
  43.1970012 137.5174997  84.4829988  44.5040012 136.5264997  83.6109988
  44.6960012 136.9444997  85.3099988  61.2400012 135.2064997  84.1999988
  62.3310012 135.1634997  84.4099988  60.8920012 136.2434997  84.3939988
  60.9700012 135.0184997  83.1389988  60.5260012 134.2234997  85.1509988
  59.4250012 134.3684997  85.1189988  60.7940012 133.1914997  84.8379988
  61.0240012 134.3324997  86.6349988  62.0810012 134.0044997  86.7299988
  61.1650012 135.3944997  86.9309988  60.2550012 133.5454997  87.6729988
  59.8550012 132.6564997  87.1389988  61.0020012 133.3594997  88.4739988
  59.1240012 134.3324997  88.3199988  59.4640012 135.2624997  88.8239988
  58.3990012 134.6024997  87.5229988  58.3520012 133.4184997  89.2989988
  57.5480012 134.0874997  89.6729988  57.8530012 132.5804997  88.7669988
  59.2110012 133.0204997  90.5289988  60.0050012 132.2534997  90.4059988
  59.7730012 133.8914997  90.9279988  58.2820012 132.4134997  91.6369988
  57.3250012 132.9764997  91.6959988  58.0400012 131.3724997  91.3349988
  59.0130012 132.4374997  93.0149988  60.0450012 132.1004997  92.7829988
  58.9760012 133.4634997  93.4399988  58.3760012 131.5244997  94.0589988
  57.2730012 131.6574997  94.0189988  58.5960012 130.4714997  93.7829988
  58.8950012 131.7064997  95.5079988  58.7810012 132.7714997  95.8049988
  58.3590012 131.1564997  96.3109988  60.3470012 131.3354997  95.6019988
  60.4240012 130.2434997  95.7889988  60.8240012 131.4324997  94.6029988
  61.1340012 132.0884997  96.6159988  60.6840012 132.0844997  97.6319988
  62.1920012 131.7504997  96.6019988  61.2250012 133.5694997  96.2299988
  61.4210012 133.6374997  95.1389988  60.2530012 133.9824997  96.5759988
  62.4200012 134.3514997  96.7809988  62.5610012 133.9604997  97.8109988
  63.3330012 134.1144997  96.1949988  62.2040012 135.8554997  96.8099988
  62.4110012 136.6814997  95.9409988  61.6460012 136.1184997  97.9889988
  61.1970012 137.4464997  98.3319988  61.9760012 138.0524997  98.8419988
  61.0050012 138.0164997  97.3969988  59.9100012 137.3364997  99.1219988
  59.6200012 138.4004997  99.2589988  60.1490012 136.6174997 100.4489988
  59.9590012 135.5324997 100.3039988  61.1930012 136.7084997 100.8179988
  59.1480012 137.1454997 101.3569988  58.4040012 136.2164997 102.4599988
  57.8400012 135.0624997 101.5229988  56.6080012 134.3264997 101.8659988
  56.7860012 133.7694997 102.8109988  55.7450012 134.9624997 102.1569988
  56.2510012 133.2934997 100.6919988  55.2500012 132.9124997 100.8239988
  56.3010012 133.9354997  99.8249988  57.1040012 132.1244997 100.5289988
  58.4290012 132.5714997  99.9049988  58.1780012 133.1644997  99.0379988
  58.9850012 133.1974997 100.5869988  59.0780012 131.7684997  99.5889988
  57.2980012 131.3264997 101.7739988  57.7730012 131.9694997 102.4999988
  56.3940012 131.0964997 102.3179988  57.9390012 130.4624997 101.6759988
  56.3420012 131.2824997  99.5219988  56.7060012 130.2734997  99.6469988
  56.5170012 131.6264997  98.5129988  55.3010012 131.4084997  99.7819988
  59.2960012 135.7844997 103.6039988  57.2510012 137.0234997 102.9489988
  58.8980012 136.5004997  98.3109988  58.3700012 137.0864997  97.2649988
  58.3700012 138.2864997  97.0199988  57.7700012 136.0774997  96.1949988
  56.6990012 135.8414997  96.3709988  58.3030012 135.1184997  96.3719988
  58.0330012 136.6654997  94.8239988  57.5700012 137.6694997  94.7079988
  57.4740012 136.0524997  94.0849988  59.5430012 136.7414997  94.4129988
  59.9670012 135.7304997  94.2339988  59.9780012 137.2314997  95.3109988
  59.8420012 137.5924997  93.1569988  59.4970012 138.6014997  93.4689988
  59.2100012 137.2174997  92.3239988  61.2540012 137.7924997  92.7029988
  61.7150012 138.0114997  93.6899988  61.2810012 138.7334997  92.1139988
  61.7500012 136.6064997  91.9169988  61.6550012 135.6824997  92.5269988
  62.8590012 136.6684997  91.9489988  61.2950012 136.5124997  90.4279988
  60.1870012 136.4574997  90.4829988  61.6770012 135.5644997  89.9929988
  61.7080012 137.6514997  89.5249988  62.5960012 137.2864997  88.9899988
  61.0200012 138.7814997  89.2109988  61.5570012 139.5584997  88.6469988
  59.6810012 139.2204997  89.6669988  59.6420012 140.3194997  89.8229988
  59.4320012 138.7564997  90.6449988  58.5410012 138.8824997  88.6719988
  57.5570012 138.7074997  89.1559988  58.6280012 137.8674997  88.2289988
  58.3860012 139.9784997  87.6819988  59.3860012 140.4484997  87.5659988
  57.5450012 140.6544997  87.9439988  58.0460012 139.3754997  86.3319988
  58.7820012 138.5934997  86.0479988  58.1390012 140.1624997  85.5529988
  56.7160012 138.5594997  86.1149988  55.9910012 139.2924997  85.6999988
  56.3500012 138.1824997  87.0939988  56.8010012 137.3314997  85.1479988
  57.8060012 136.8774997  85.2789988  56.8860012 137.8494997  84.1689988
  55.6650012 136.2334997  85.1879988  55.7670012 135.6374997  86.1189988
  55.8060012 135.4864997  84.3779988  54.2710012 136.7834997  84.9739988
  53.8790012 136.9674997  85.9969988  53.6160012 136.0014997  84.5329988
  54.1710012 137.7444997  84.4269988 107.8650012  23.9324997  82.1389988
 106.8040012  24.2624997  82.1199988 108.4730012  24.4774997  81.3859988
 108.4390012  24.2084997  83.0499988 108.0150012  22.3804997  81.9159988
 107.0020012  21.9924997  81.6759988 108.6410012  22.1584997  81.0259988
 108.7410012  21.6684997  83.0609988 109.6940012  22.2074997  83.2469988
 108.1280012  21.9654997  83.9389988 108.8770012  20.1404997  82.9279988
 108.0470012  19.8234997  82.2609988 109.8240012  19.9824997  82.3689988
 109.0530012  19.3334997  84.2959988 108.2150012  19.7824997  84.8699988
 108.9800012  18.2654997  83.9949988 110.3710012  19.8054997  85.0729988
 111.2510012  19.1294997  85.0119988 110.6160012  20.7084997  84.4739988
 110.2910012  20.1214997  86.6129988 109.4830012  20.8614997  86.7899988
 109.9010012  19.1954997  87.0889988 111.5610012  20.6464997  87.1699988
 112.3500012  19.8634997  87.1459988 111.9510012  21.4914997  86.5649988
 111.3730012  21.0314997  88.6339988 112.3620012  21.2484997  89.0919988
 110.8130012  21.9874997  88.7089988 110.6880012  19.9384997  89.5809988
 109.6420012  19.9194997  89.2069988 111.2060012  18.9944997  89.3079988
 110.8190012  20.2004997  91.1199988 111.8820012  20.3944997  91.3779988
 110.1510012  21.0774997  91.2589988 110.3430012  19.1004997  92.0569988
 109.3200012  18.9184997  91.6639988 110.9740012  18.2164997  91.8199988
 110.3100012  19.4344997  93.5529988 109.5890012  20.2584997  93.7379988
 109.8460012  18.5994997  94.1199988 111.7650012  19.6334997  94.1119988
 112.3630012  18.7534997  93.7939988 112.0150012  20.6224997  93.6699988
 111.6860012  19.6484997  95.6419988 110.6420012  19.8544997  95.9599988
 112.0330012  18.6224997  95.8889988 112.7720012  20.5334997  96.1609988
 113.9110012  20.4964997  95.8419988 112.1280012  21.3224997  97.0789988
 113.0180012  22.3634997  97.5649988 113.9220012  21.8174997  97.9079988
 113.3210012  22.9384997  96.6639988 112.4030012  23.2404997  98.6509988
 113.1150012  23.9834997  99.0709988 111.7790012  22.4364997  99.7969988
 112.5310012  21.8224997 100.3369988 111.4220012  23.2444997 100.4699988
 110.7810012  21.5574997  99.2499988 110.2690012  20.2664997 100.1319988
 109.5310012  21.0734997 101.3129988 108.3710012  21.8884997 101.0459988
 108.1740012  22.0324997  99.9619988 107.4300012  21.5504997 101.5289988
 108.6490012  23.3864997 101.4039988 109.3750012  23.7664997 100.6999988
 107.7590012  23.9834997 101.2739988 108.9280012  23.6354997 102.8989988
 107.9520012  22.8674997 103.7689988 107.8440012  21.8634997 103.3849988
 108.2570012  22.9404997 104.8029988 107.0760012  23.4994997 103.7599988
 110.3440012  23.0904997 103.2339988 110.4620012  22.1374997 102.7399988
 111.0980012  23.8004997 102.9289988 110.4230012  23.0514997 104.3109988
 108.8750012  25.1314997 103.1089988 107.8330012  25.3744997 103.2609988
 109.2520012  25.7054997 102.2759988 109.4750012  25.4224997 103.9589988
 109.3110012  19.4844997  99.4059988 111.4300012  19.5234997 100.6189988
 111.2890012  24.0564997  98.0169988 110.7240012  25.0224997  98.7679988
 111.1690012  25.4554997  99.8319988 109.4820012  25.5994997  98.0279988
 109.6850012  25.9134997  96.9819988 109.0700012  26.4874997  98.5549988
 108.3500012  24.5094997  98.0209988 107.6770012  24.8354997  98.8419988
 108.7460012  23.4914997  98.2229988 107.5530012  24.5004997  96.7229988
 107.3520012  25.5424997  96.3949988 106.5990012  23.9614997  96.9039988
 108.3620012  23.7864997  95.5689988 108.8560012  22.8394997  95.8759988
 109.2670012  24.3654997  95.2899988 107.5320012  23.4634997  94.3229988
 106.5470012  22.9734997  94.4739988 108.1440012  22.7414997  93.7419988
 107.3420012  24.8104997  93.4659988 108.0800012  25.5054997  93.9219988
 106.2620012  25.0424997  93.5799988 107.4690012  24.7304997  91.8969988
 108.5600012  24.7194997  91.6839988 107.1100012  25.7174997  91.5339988
 106.5450012  23.8324997  91.2479988 105.7060012  23.5874997  91.9149988
 106.6660012  23.2564997  90.1289988 105.7920012  22.8044997  89.6359988
 107.9040012  23.4124997  89.2979988 108.0670012  22.4704997  88.7309988
 108.8320012  23.5534997  89.8929988 108.0310012  24.6804997  88.3989988
 107.6300012  25.5144997  89.0139988 107.4070012  24.4444997  87.5099988
 109.4740012  25.0584997  87.8079988 110.1710012  25.1224997  88.6709988
 109.2930012  26.0924997  87.4429988 110.0810012  24.1554997  86.7019988
 109.3840012  24.2704997  85.8439988 109.9390012  23.0914997  86.9879988
 111.4780012  24.5324997  86.2149988 112.2330012  24.2374997  86.9749988
 111.5340012  25.6254997  86.0279988 111.7700012  23.8454997  84.8489988
 111.1230012  22.9464997  84.7629988 112.7790012  23.4724997  84.5699988
 111.3630012  24.7924997  83.7099988 111.8350012  25.7974997  83.7409988
 110.3080012  25.0374997  83.9599988 111.5210012  24.1574997  82.2249988
 110.8870012  23.3034997  81.9049988 112.5910012  23.9364997  82.0229988
 111.1130012  25.0014997  81.6289988  92.7150012  14.6554997  82.3259988
  92.1310012  14.9544997  81.4289988  93.6810012  14.1734997  82.0629988
  92.9930012  15.4904997  83.0039988  92.0300012  13.5934997  83.2389988
  91.1970012  14.0894997  83.7809988  91.7920012  12.6614997  82.6839988
  92.9790012  13.1564997  84.3899988  93.8800012  12.6214997  84.0209988
  93.3920012  14.1044997  84.7959988  92.5420012  12.3504997  85.6519988
  93.2400012  12.4424997  86.5119988  91.6190012  12.6934997  86.1659988
  92.3540012  10.8714997  85.2269988  91.4330012  10.7444997  84.6189988
  93.1930012  10.7054997  84.5179988  92.5050012   9.8784997  86.3259988
  91.6460012   9.9114997  87.0299988  92.5180012   8.8614997  85.8809988
  93.7090012  10.0284997  87.2719988  93.7610012  11.1014997  87.5569988
  93.4400012   9.4684997  88.1929988  95.0350012   9.4604997  86.7869988
  94.9540012   8.3554997  86.8739988  95.1150012   9.7834997  85.7269988
  96.2820012   9.8244997  87.4829988  97.0660012   9.2054997  86.9979988
  96.5630012  10.8784997  87.2689988  96.3800012   9.6294997  88.9919988
  95.8410012   8.6784997  89.1869988  97.4380012   9.4754997  89.2949988
  95.7390012  10.8374997  89.7699988  96.0580012  11.7684997  89.2559988
  94.6340012  10.9354997  89.7029988  96.2120012  10.7644997  91.1719988
  95.5590012  11.3204997  91.8779988  96.2790012   9.7164997  91.5349988
  97.5870012  11.3844997  91.5329988  98.4260012  10.8374997  91.0529988
  97.5780012  12.4234997  91.1399988  97.8830012  11.4424997  92.9929988
  97.5000012  10.4464997  93.3029988  98.9810012  11.4604997  93.1619988
  97.4180012  12.7004997  93.7439988  97.8540012  13.6994997  93.5299988
  96.3810012  12.8564997  93.3759988  97.3460012  12.4344997  95.2479988
  97.3920012  11.3474997  95.8239988  97.0790012  13.6084997  95.7709988
  96.7130012  13.6854997  97.0949988  97.3950012  13.0654997  97.7149988
  96.7920012  14.7674997  97.3319988  95.2590012  13.1954997  97.4819988
  94.6760012  13.7924997  96.7469988  94.8790012  13.5904997  98.9529988
  94.6720012  14.6784997  98.8659988  94.0610012  12.9114997  99.2779988
  96.0140012  13.4244997  99.7209988  96.1010012  12.4114997 100.9409988
  94.7260012  12.7054997 101.7049988  94.4870012  13.9924997 102.2079988
  95.2150012  14.2564997 103.0049988  94.5260012  14.8084997 101.4549988
  93.0370012  14.0464997 102.7959988  93.0070012  13.2864997 103.5629988
  92.9610012  15.0494997 103.1889988  91.8860012  13.8774997 101.8769988
  91.9370012  12.4814997 101.4299988  90.9940012  12.3284997 100.9259988
  92.7740012  12.3424997 100.7609988  92.0320012  11.8144997 102.2739988
  90.6030012  14.1134997 102.5689988  89.7980012  14.0174997 101.8549988
  90.4310012  13.4704997 103.4189988  90.6760012  15.1004997 102.9999988
  91.9240012  14.7544997 100.6819988  91.9840012  15.7644997 101.0609988
  91.0420012  14.5294997 100.0999988  92.8000012  14.5344997 100.0899988
  96.0830012  11.0434997 100.4199988  97.2510012  12.7444997 101.8329988
  95.1570012  11.7914997  97.2199988  93.9740012  11.3154997  96.8109988
  92.9450012  11.9984997  96.6379988  94.0810012   9.8064997  96.5659988
  93.8760012   9.2764997  97.5209988  95.1220012   9.7584997  96.1819988
  93.0090012   9.5104997  95.5069988  92.0280012   9.7494997  95.9709988
  93.0780012   8.4254997  95.2779988  93.2100012  10.1534997  94.0359988
  94.2170012   9.8304997  93.6969988  93.1510012  11.2604997  94.1119988
  92.1480012   9.6964997  93.0919988  91.1270012   9.7704997  93.5239988
  92.2740012   8.5944997  93.0309988  92.1540012  10.2944997  91.6539988
  91.4090012   9.8604997  90.9539988  93.1660012   9.9724997  91.3289988
  92.0660012  11.7824997  91.5419988  92.8340012  12.3304997  92.1279988
  91.1500012  11.9434997  92.1479988  91.9660012  12.3944997  90.1009988
  91.1360012  11.9184997  89.5369988  92.8300012  12.0834997  89.4759988
  91.7140012  13.9004997  90.1839988  90.7260012  14.1934997  90.5669988
  92.5230012  14.8934997  89.8849988  92.3770012  15.9254997  90.2349988
  93.9290012  14.7294997  89.3119988  94.2270012  13.6594997  89.3019988
  94.6810012  15.2814997  89.9169988  94.0080012  15.3174997  87.9529988
  93.5900012  16.3474997  87.9779988  93.2840012  14.8624997  87.2439988
  95.3560012  15.4754997  87.3759988  96.0850012  15.7894997  88.1529988
  95.3900012  16.2514997  86.5809988  95.8560012  14.2254997  86.6419988
  95.1800012  13.9184997  85.8149988  95.8540012  13.4654997  87.4519988
  97.3470012  14.3444997  86.2069988  98.0280012  14.6744997  87.0199988
  97.4410012  15.0464997  85.3509988  97.9380012  13.0564997  85.7239988
  97.6680012  12.2954997  86.4879988  99.0380012  13.1454997  85.5979988
  97.5690012  12.6314997  84.2409988  96.5010012  12.3274997  84.2729988
  98.2320012  11.7864997  83.9539988  97.6760012  13.7554997  83.1569988
  97.1420012  14.6634997  83.5089988  97.2040012  13.4214997  82.2079988
  98.7560012  13.9894997  83.0419988 137.0320012  64.9354997  79.1869988
 136.5190012  64.1304997  78.6189988 137.5130012  64.3724997  80.0139988
 137.7980012  65.4644997  78.5799988 135.9740012  65.9234997  79.6609988
 136.5130012  66.6664997  80.2879988 135.7150012  66.5134997  78.7559988
 134.7090012  65.3454997  80.4459988 134.0050012  66.1874997  80.6169988
 134.1820012  64.6754997  79.7329988 135.0180012  64.4824997  81.6759988
 134.1580012  63.8094997  81.8839988 135.7750012  63.7374997  81.3499988
 135.3760012  65.3314997  82.9009988 136.2530012  65.9174997  82.5519988
 134.5380012  66.0424997  83.0669988 135.6820012  64.4104997  84.1599988
 135.4550012  64.9094997  85.1259988 134.9780012  63.5604997  84.0279988
 137.0700012  63.7584997  84.2219988 136.9580012  62.7254997  83.8289988
 137.7890012  64.3274997  83.5939988 137.4860012  63.6904997  85.6899988
 138.5940012  63.7704997  85.6889988 137.0430012  64.5844997  86.1789988
 136.8000012  62.6784997  86.5889988 135.6960012  62.7974997  86.5639988
 136.9940012  61.6404997  86.2449988 137.2790012  62.7244997  88.0789988
 136.8120012  61.7684997  88.3989988 138.3760012  62.6464997  88.2379988
 136.7030012  63.9124997  88.9069988 135.8870012  64.5154997  88.4549988
 136.2410012  63.4074997  89.7829988 137.7140012  65.0474997  89.3049988
 138.5730012  64.4724997  89.7119988 138.0730012  65.4784997  88.3469988
 137.1890012  65.9684997  90.4639988 136.1580012  66.3474997  90.2979988
 137.2860012  65.3434997  91.3769988 138.1850012  67.1764997  90.6569988
 139.2000012  66.7754997  90.4509988 137.9630012  67.7344997  89.7219988
 137.9860012  68.0994997  91.8919988 138.5510012  69.0334997  91.6849988
 136.9190012  68.3954997  91.9859988 138.5890012  67.3424997  93.0409988
 139.5550012  66.6314997  92.9869988 137.9080012  67.6604997  94.1349988
 138.5190012  67.2354997  95.3609988 138.8910012  66.1914997  95.2849988
 139.3760012  67.8974997  95.6099988 137.5070012  67.1484997  96.5579988
 137.5900012  68.1864997  96.9469988 137.9300012  66.0964997  97.5969988
 137.5370012  65.0974997  97.3119988 138.9740012  66.2864997  97.9239988
 137.2180012  66.5634997  98.8089988 137.5610012  65.8654997 100.2479988
 136.4510012  66.1574997 101.3019988 135.2120012  66.8554997 100.8719988
 135.3480012  67.9064997 100.5369988 134.8320012  66.3784997  99.9429988
 134.2980012  66.8454997 102.0839988 134.5980012  67.5724997 102.8249988
 133.3300012  67.1974997 101.7609988 134.1200012  65.5534997 102.7969988
 135.2850012  65.0504997 103.6289988 136.1310012  64.9194997 102.9699988
 135.4040012  65.7524997 104.4409988 135.1290012  64.0474997 103.9989988
 133.0080012  65.8144997 103.8119988 133.5590012  66.5244997 104.4119988
 132.2320012  66.3734997 103.3109988 132.8650012  64.9584997 104.4549988
 133.7850012  64.4364997 101.8519988 133.0060012  64.6954997 101.1499988
 133.4370012  63.6284997 102.4779988 134.6880012  64.2504997 101.2899988
 137.6860012  64.3914997  99.9589988 138.7510012  66.5264997 100.8169988
 136.2140012  66.7644997  96.1029988 135.4160012  67.7604997  95.6399988
 135.5970012  68.9774997  95.7239988 134.1980012  67.1134997  95.0849988
 133.3230012  67.7004997  95.4349988 134.1830012  66.0774997  95.4839988
 134.1960012  67.2044997  93.5229988 133.3510012  66.5234997  93.2869988
 135.0530012  66.6384997  93.1009988 134.0810012  68.5674997  92.8139988
 134.9610012  69.2324997  92.9449988 133.1840012  69.1054997  93.1899988
 133.8460012  68.2324997  91.2699988 134.5910012  67.5024997  90.8889988
 134.0940012  69.1964997  90.7759988 132.3990012  67.6994997  90.9319988
 131.5870012  68.3714997  91.2819988 132.1040012  66.7994997  91.5129988
 132.2440012  67.4434997  89.4689988 132.6830012  68.2274997  88.8149988
 131.1710012  67.5874997  89.2169988 132.6500012  65.9844997  89.0259988
 132.0000012  65.2384997  89.5299988 133.6440012  65.7684997  89.4719988
 132.5830012  65.7194997  87.5149988 131.8670012  65.0034997  87.0869988
 133.4560012  66.3264997  86.7089988 133.5090012  66.1774997  85.6209988
 134.5740012  67.2414997  87.0229988 135.5400012  66.8454997  86.6439988
 134.7630012  67.3934997  88.1069988 134.3970012  68.5404997  86.3109988
 133.4060012  68.9704997  86.5729988 134.4890012  68.4824997  85.2049988
 135.3800012  69.6374997  86.7879988 135.2470012  69.9594997  87.8429988
 135.0780012  70.5354997  86.2079988 136.9060012  69.4044997  86.5369988
 137.2830012  68.4934997  87.0489988 137.4460012  70.0604997  87.2529988
 137.4250012  69.6204997  85.1299988 138.3480012  70.2324997  85.2219988
 136.7080012  70.1134997  84.4389988 137.8730012  68.4264997  84.4459988
 136.9980012  67.7434997  84.4919988 138.7260012  67.9304997  84.9569988
 138.4810012  68.8474997  83.1019988 139.3020012  69.5964997  83.1029988
 137.5760012  69.2814997  82.6269988 138.9150012  67.6904997  82.2609988
 138.1700012  66.8684997  82.1939988 139.8280012  67.1864997  82.6449988
 139.1660012  68.1004997  81.2589988  99.9680012  18.1984997  84.6319988
  99.3980012  19.0244997  84.1549988  99.3770012  17.2854997  84.4099988
 101.0150012  18.0644997  84.2839988 100.1570012  18.5704997  86.0949988
 100.7370012  19.5144997  86.1719988  99.1750012  18.7484997  86.5829988
 100.8620012  17.4334997  86.8969988 101.4930012  16.8124997  86.2259988
 101.3700012  17.8424997  87.7959988  99.7800012  16.5204997  87.5929988
  98.9870012  16.3114997  86.8429988 100.1020012  15.4974997  87.8849988
  98.9830012  17.1934997  88.8349988  98.4700012  18.1244997  88.5119988
  98.1980012  16.4504997  89.0909988  99.8400012  17.4704997  90.0189988
 100.6160012  18.2184997  89.7509988  99.1060012  17.9734997  90.6849988
 100.4090012  16.1874997  90.6059988  99.7200012  15.3394997  90.4059988
 101.4220012  15.9534997  90.2139988 100.6600012  16.4374997  92.1509988
 101.2970012  17.3464997  92.1989988  99.7610012  16.7224997  92.7379988
 101.4470012  15.2824997  92.8609988 100.9200012  14.3064997  92.8139988
 102.2820012  15.1374997  92.1409988 101.8390012  15.7134997  94.2779988
 102.4940012  16.6104997  94.2589988 100.8630012  15.9614997  94.7469988
 102.4140012  14.5174997  95.0809988 102.2330012  14.7114997  96.1599988
 101.7820012  13.6524997  94.7869988 103.8050012  14.1354997  94.7149988
 104.0720012  13.0694997  94.5489988 104.0060012  14.6884997  93.7719988
 104.8430012  14.5384997  95.7779988 104.6320012  13.8904997  96.6549988
 105.8590012  14.3834997  95.3559988 104.9080012  16.0704997  96.3139988
 105.9520012  16.1774997  96.6789988 104.8110012  16.7454997  95.4359988
 103.8630012  16.4134997  97.4009988 102.8160012  16.4844997  97.0389988
 103.9280012  15.6054997  98.1609988 104.3510012  17.7224997  98.0469988
 104.6660012  17.8854997  99.1839988 104.1730012  18.7054997  97.1069988
 104.3120012  20.1154997  97.5649988 105.0610012  20.2614997  98.3719988
 104.6140012  20.7264997  96.6879988 102.9140012  20.7834997  97.9139988
 103.0230012  21.8544997  97.6429988 102.6750012  20.6404997  99.4219988
 103.6470012  20.8324997  99.9239988 101.9660012  21.4184997  99.7789988
 102.1780012  19.3904997  99.8639988 100.6510012  18.8834997  99.9029988
 100.5370012  18.0874997 101.2729988 100.9810012  18.5634997 102.5109988
 101.3660012  19.5884997 102.3269988 100.1360012  18.6074997 103.2309988
 102.1380012  17.7234997 103.0869988 102.9920012  18.0844997 102.5329988
 102.3420012  17.8034997 104.1449988 102.2460012  16.2684997 102.7929988
 100.9070012  15.4114997 102.8999988 101.1810012  14.3834997 102.7129988
 100.5040012  15.5724997 103.8889988 100.3190012  15.6784997 102.0349988
 102.7080012  16.1294997 101.3739988 103.6740012  16.6054997 101.2959988
 102.9390012  15.1104997 101.1009988 102.0040012  16.5924997 100.6979988
 103.2670012  15.5354997 103.6329988 103.3000012  14.4634997 103.5099988
 103.1150012  15.8024997 104.6679988 104.2520012  15.9024997 103.3849988
  99.7950012  20.0754997  99.9769988 100.4930012  17.8264997  98.8649988
 101.9050012  20.1004997  97.0459988 100.8380012  20.8274997  96.8289988
 100.6110012  21.9864997  97.2159988  99.7590012  19.9994997  96.0759988
  98.9310012  20.7194997  95.9019988  99.4520012  19.1974997  96.7799988
 100.2280012  19.4274997  94.7979988  99.4700012  18.7164997  94.4049988
 101.0290012  18.6584997  94.8399988 100.5170012  20.3924997  93.7029988
 100.0450012  21.3834997  93.8749988 100.3700012  19.9404997  92.6989988
 102.0460012  20.8554997  93.7659988 102.3360012  21.4524997  94.6569988
 102.3100012  21.5094997  92.9069988 103.0150012  19.6274997  93.6369988
 102.5360012  18.8064997  93.0619988 103.0720012  19.2494997  94.6799988
 104.4140012  19.9344997  92.9929988 104.8730012  20.7604997  93.5779988
 104.2550012  20.3754997  91.9849988 105.3180012  18.6674997  92.9759988
 105.4430012  18.4374997  94.0559988 106.3310012  18.8904997  92.5779988
 104.7340012  17.3564997  92.4229988 104.3170012  16.7464997  93.2379988
 104.6790012  16.8684997  91.1709988 104.2410012  15.8744997  90.9989988
 105.2290012  17.5774997  89.9569988 106.3320012  17.5974997  90.0889988
 104.7610012  18.5844997  89.9259988 105.0970012  16.7344997  88.6079988
 104.1210012  16.2304997  88.4459988 105.8680012  15.9334997  88.6159988
 105.3800012  17.6934997  87.3839988 106.4410012  18.0064997  87.4809988
 104.7140012  18.5824997  87.3849988 105.0700012  16.9574997  86.0809988
 104.0240012  16.5944997  85.9939988 105.6930012  16.0404997  86.1579988
 105.4800012  17.6254997  84.7819988 104.8690012  18.5494997  84.6979988
 105.2970012  16.9984997  83.8829988 106.9580012  18.1404997  84.8229988
 107.2980012  18.1074997  83.7659988 107.5900012  17.3964997  85.3539988
 107.2200012  19.6144997  85.2709988 107.4570012  19.5974997  86.3559988
 106.2820012  20.1624997  85.0409988 108.3560012  20.2124997  84.5189988
 108.6770012  21.1314997  85.0539988 107.9110012  20.5684997  83.5659988
 109.1520012  19.5314997  84.1509988 117.0830012  29.1214997  82.6329988
 117.4060012  30.0344997  82.0889988 116.7130012  29.4834997  83.6159988
 116.2160012  28.6494997  82.1229988 118.1380012  28.0444997  82.8359988
 118.7160012  27.8764997  81.9019988 118.7380012  28.4714997  83.6679988
 117.6220012  26.6504997  83.2679988 116.9590012  26.8064997  84.1449988
 116.9060012  26.1704997  82.5659988 118.7480012  25.6184997  83.7049988
 119.3180012  25.4054997  82.7759988 119.4880012  26.0664997  84.4019988
 118.2410012  24.3224997  84.3969988 117.1540012  24.2044997  84.1999988
 118.7120012  23.5254997  83.7839988 118.3170012  24.1744997  85.9719988
 119.4140012  24.2094997  86.1479988 117.7410012  25.0034997  86.4349988
 117.8090012  22.8474997  86.4469988 118.2200012  21.9744997  85.8969988
 117.9540012  22.6274997  87.5269988 116.3030012  22.6034997  86.2689988
 115.9840012  22.6164997  85.2049988 116.1490012  21.6394997  86.7999988
 115.3580012  23.6324997  86.9799988 115.6380012  24.6474997  86.6239988
 114.3290012  23.3024997  86.7219988 115.4450012  23.8184997  88.5529988
 116.4330012  24.2334997  88.8479988 114.6210012  24.5234997  88.7969988
 115.1930012  22.4764997  89.3439988 114.1980012  22.0974997  89.0259988
 116.0130012  21.7994997  89.0219988 115.2870012  22.5844997  90.8689988
 115.0680012  21.5714997  91.2679988 116.3040012  22.8284997  91.2449988
 114.2320012  23.6274997  91.4939988 114.2070012  24.4934997  90.7989988
 113.2920012  23.0384997  91.4439988 114.5290012  23.9954997  92.9259988
 115.5600012  24.4064997  92.9519988 113.9290012  24.8604997  93.2799988
 114.3300012  22.8334997  93.9169988 113.2580012  22.5954997  94.0799988
 114.8720012  21.8774997  93.7519988 114.8090012  23.3324997  95.3339988
 114.1490012  23.9644997  96.1449988 116.1030012  23.0404997  95.5239988
 116.6480012  23.2894997  96.8349988 115.9220012  23.6144997  97.6109988
 117.0920012  22.3174997  97.1359988 117.6790012  24.5094997  96.6999988
 118.3970012  24.2284997  95.9009988 118.5360012  24.6184997  97.9659988
 118.5830012  23.6064997  98.4229988 119.5520012  25.0454997  97.8199988
 117.8650012  25.5514997  98.7819988 118.5180012  26.1064997 100.1069988
 117.4330012  26.1024997 101.2009988 117.0790012  25.0044997 102.0029988
 116.7500012  24.2564997 101.2519988 118.0240012  24.6374997 102.4579988
 116.1160012  25.3404997 103.1759988 115.9040012  24.4004997 103.6649988
 116.5700012  25.9984997 103.9019988 114.7820012  25.8474997 102.7659988
 114.8060012  27.2704997 102.3399988 115.0280012  27.8414997 103.2299988
 115.4330012  27.4604997 101.4809988 113.7970012  27.5074997 102.0379988
 114.3010012  25.1734997 101.5369988 113.3290012  25.5274997 101.2279988
 115.0130012  25.2914997 100.7329988 114.1160012  24.1424997 101.7979988
 113.7060012  25.8034997 103.8279988 113.8220012  26.6264997 104.5169988
 113.6840012  24.7884997 104.1969988 112.7360012  26.0484997 103.4199988
 119.5400012  25.1374997 100.5829988 118.9600012  27.4714997  99.8569988
 116.9060012  25.7114997  96.4739988 117.4610012  26.7654997  95.9579988
 118.6280012  26.8644997  95.6839988 116.4520012  27.8844997  95.8009988
 116.6950012  28.5764997  96.6359988 115.3980012  27.5624997  95.9449988
 116.5330012  28.5944997  94.4569988 117.5800012  28.3754997  94.1559988
 116.3340012  29.6824997  94.5589988 115.5860012  28.0084997  93.4369988
 114.6030012  28.0724997  93.9499988 115.7030012  26.9204997  93.2449988
 115.6740012  28.7554997  92.0459988 116.4150012  28.3994997  91.2979988
 115.8890012  29.8154997  92.2989988 114.3280012  28.8474997  91.4119988
 113.5010012  29.1804997  92.0739988 114.0160012  27.7934997  91.2569988
 114.2920012  29.6834997  90.0819988 114.6180012  30.7374997  90.2139988
 113.2260012  29.7174997  89.7699988 115.1040012  29.0894997  88.9309988
 116.1240012  28.9674997  89.3539988 115.0890012  29.8324997  88.1059988
 114.6730012  27.7224997  88.3709988 114.5000012  26.9004997  89.0809988
 114.5540012  27.3554997  87.0899988 114.1720012  26.3424997  86.8929988
 114.7630012  28.2764997  85.8889988 115.8030012  28.1474997  85.5209988
 114.6020012  29.2964997  86.2989988 113.8280012  28.0884997  84.6939988
 114.2070012  28.7864997  83.9169988 112.8780012  28.4834997  85.1139988
 113.5480012  26.6314997  84.2339988 113.0870012  26.0944997  85.0899988
 114.5050012  26.1334997  83.9679988 112.6140012  26.4314997  83.0899988
 111.6480012  26.7884997  83.5059988 112.4520012  25.3414997  82.9539988
 112.9740012  27.2324997  81.8649988 113.2360012  28.2874997  82.0919988
 112.0590012  27.2144997  81.2349988 114.0730012  26.5704997  81.0909988
 113.7740012  25.5004997  81.1239988 115.0440012  26.7584997  81.5959988
 114.2180012  27.0254997  79.6199988 113.3940012  26.4244997  79.1789988
 115.0710012  26.6114997  79.0399988 114.1310012  28.5064997  79.4269988
 114.9190012  29.0414997  79.9979988 113.1110012  28.9214997  79.5739988
 114.4150012  28.7034997  78.3709988  72.4280012   5.0894997  82.6259988
  73.1550012   4.8204997  83.4209988  72.9010012   5.1954997  81.6259988
  71.5820012   4.3684997  82.6329988  71.7910012   6.4814997  82.9729988
  72.6150012   7.2204997  82.8739988  71.0040012   6.7374997  82.2319988
  71.0920012   6.4664997  84.2879988  70.3900012   5.6374997  84.5199988
  71.8670012   6.6224997  85.0689988  70.0530012   7.6204997  84.3579988
  70.5920012   8.5814997  84.2159988  69.2660012   7.5184997  83.5799988
  69.2840012   7.7324997  85.6639988  68.5410012   8.5254997  85.4309988
  68.8260012   6.7344997  85.8329988  70.0340012   8.1284997  86.9439988
  70.8580012   7.4154997  87.1589988  70.4500012   9.1184997  86.6609988
  69.2340012   8.5254997  88.1939988  68.5440012   9.3794997  88.0219988
  68.7340012   7.6864997  88.7229988  70.1360012   9.2294997  89.2629988
  69.4270012   9.6164997  90.0259988  70.8810012   8.4734997  89.5929988
  70.9300012  10.4904997  88.8539988  71.3420012  10.4874997  87.8219988
  70.2850012  11.3904997  88.9439988  72.2210012  10.7224997  89.6309988
  72.8620012   9.9034997  89.2389988  72.7290012  11.6014997  89.1809988
  72.1670012  10.7764997  91.1579988  71.2780012  11.4014997  91.3859988
  71.7790012   9.8044997  91.5299988  73.3440012  11.5064997  92.0209988
  73.5330012  12.5484997  91.6859988  73.2020012  11.5194997  93.1229988
  74.6660012  10.8874997  91.8349988  74.9880012  10.8034997  90.7749988
  75.4530012  11.4044997  92.4239988  74.8240012   9.4064997  92.2349988
  73.9650012   8.8814997  91.7659988  75.7550012   8.9774997  91.8059988
  74.9010012   9.2114997  93.7759988  75.4220012   8.2444997  93.9409988
  75.5600012   9.9584997  94.2669988  73.4760012   9.0804997  94.3329988
  72.7230012   8.1374997  94.0829988  73.2030012  10.0104997  95.2399988
  72.1110012   9.6874997  96.1569988  71.6410012  10.6424997  96.4729988
  71.2850012   9.0554997  95.7649988  72.4260012   8.8914997  97.4589988
  71.5460012   9.0094997  98.1259988  73.6450012   9.4194997  98.2729988
  74.3780012   9.6694997  97.4769988  73.3450012  10.3934997  98.7169988
  74.1700012   8.4484997  99.1359988  73.9320012   8.4564997 100.6929988
  72.4410012   8.0314997 100.8109988  72.1250012   6.7194997 101.3389988
  72.4930012   5.8774997 100.7139988  72.6300012   6.5794997 102.3179988
  70.5780012   6.4474997 101.5149988  70.0640012   6.3034997 100.5759988
  70.4200012   5.5304997 102.0629988  69.7250012   7.3504997 102.3769988
  69.7170012   8.7104997 101.6739988  69.2110012   9.3344997 102.3949988
  70.7550012   8.9504997 101.4959988  69.1400012   8.6454997 100.7629988
  68.3520012   6.8244997 102.4019988  67.7570012   7.5664997 102.9139988
  68.1210012   6.6114997 101.3689988  68.3640012   5.9114997 102.9779988
  70.2810012   7.6084997 103.7339988  71.3420012   7.7444997 103.5829988
  70.1880012   6.7844997 104.4259988  69.7720012   8.4934997 104.0849988
  74.8660012   7.4854997 101.2429988  74.1080012   9.8234997 101.2569988
  72.6980012   7.5634997  97.0309988  71.6500012   6.6894997  97.1259988
  70.5120012   6.9404997  97.4559988  72.1710012   5.2324997  96.8719988
  72.4190012   4.7724997  97.8519988  73.1310012   5.3674997  96.3289988
  71.1220012   4.3834997  96.1429988  70.7000012   5.0844997  95.3919988
  70.2620012   4.1544997  96.8069988  71.6870012   3.1034997  95.5449988
  70.9130012   2.7834997  94.8149988  71.7960012   2.2554997  96.2539988
  72.9540012   3.1814997  94.6129988  73.0410012   2.1784997  94.1409988
  73.8620012   3.2174997  95.2519988  72.9840012   4.3514997  93.6239988
  72.8330012   5.2854997  94.2059988  72.0980012   4.1964997  92.9709988
  74.2730012   4.3604997  92.7609988  74.5310012   3.3844997  92.2969988
  75.1220012   4.5384997  93.4539988  74.3610012   5.4704997  91.6229988
  75.3620012   5.4754997  91.1409988  74.3640012   6.5194997  91.9869988
  73.2920012   5.4044997  90.5749988  72.2520012   5.5364997  90.9079988
  73.5390012   5.2914997  89.2539988  72.6430012   5.4304997  88.6309988
  74.7940012   5.1814997  88.4559988  74.5420012   4.5094997  87.6079988
  75.6910012   4.7754997  88.9719988  75.1260012   6.5504997  87.8279988
  76.0350012   6.3994997  87.2079988  75.3820012   7.2324997  88.6669988
  73.9580012   6.9764997  86.9369988  73.1920012   7.3174997  87.6659988
  73.5470012   6.1794997  86.2799988  74.2300012   8.3264997  86.2709988
  74.8440012   8.8944997  87.0029988  73.3170012   8.9494997  86.1579988
  74.7520012   8.2104997  84.8769988  74.2280012   7.4044997  84.3209988
  75.8450012   8.0514997  85.0019988  74.5460012   9.4134997  83.9709988
  74.7180012  10.3014997  84.6159988  73.4780012   9.3574997  83.6709988
  75.3410012   9.5324997  82.6579988  76.4190012   9.3974997  82.8929988
  75.1110012  10.5174997  82.1979988  74.9400012   8.5954997  81.5449988
  75.0580012   7.5544997  81.9149988  75.5660012   8.6264997  80.6279988
  73.8590012   8.7144997  81.3169988   6.3580012 101.4184997  84.4889988
   5.8220012 102.3704997  84.2819988   6.3750012 100.7944997  83.5699988
   7.3960012 101.7624997  84.6859988   5.7720012 100.8864997  85.7659988
   4.9500012 100.1804997  85.5179988   6.5970012 100.4304997  86.3529988
   5.2750012 102.0314997  86.6939988   4.3680012 102.5094997  86.2649988
   4.9690012 101.5124997  87.6269988   6.2760012 103.1544997  86.9699988
   7.3630012 102.9404997  86.8879988   6.1560012 103.7534997  86.0419988
   6.0100012 103.8464997  88.3519988   6.5330012 103.4164997  89.2329988
   6.5440012 104.8074997  88.1899988   4.5180012 103.9284997  88.6879988
   4.0700012 104.3514997  87.7629988   4.0960012 102.9384997  88.9619988
   4.2740012 104.8624997  89.9269988   4.9590012 104.3944997  90.6659988
   4.7090012 105.8324997  89.6019988   2.8330012 105.0604997  90.4179988
   2.4220012 106.0874997  90.3109988   2.1800012 104.3644997  89.8489988
   2.7170012 104.7554997  91.9439988   3.3550012 103.8774997  92.1819988
   3.1920012 105.6144997  92.4639988   1.3120012 104.6014997  92.5429988
   0.6050012 105.3664997  92.1559988   0.9210012 103.6364997  92.1549988
   1.3420012 104.5464997  94.0619988   2.2450012 103.9674997  94.3479988
   1.5600012 105.5764997  94.4169988   0.1250012 104.1034997  94.9409988
   0.3410012 104.2474997  96.0209988  -0.6659988 104.8414997  94.6889988
  -0.4459988 102.6794997  94.7129988  -1.1879988 102.3984997  95.4909988
  -0.9469988 102.6124997  93.7239988   0.6620012 101.5414997  94.6919988
   0.2120012 100.5894997  94.3369988   1.5840012 101.8134997  94.1349988
   1.3340012 101.3234997  96.0539988   1.7270012 102.2784997  96.4619988
   0.5770012 100.8974997  96.7459988   2.4700012 100.4104997  95.9089988
   3.1930012 100.2234997  94.9039988   2.7080012  99.7534997  97.1209988
   3.8100012  98.8134997  97.0919988   3.4600012  98.0564997  97.8269988
   4.0900012  98.3854997  96.1059988   5.1310012  99.2814997  97.6749988
   5.7970012  98.4154997  97.8779988   4.7950012 100.1344997  99.0079988
   3.8890012  99.6864997  99.4689988   5.6570012 100.2184997  99.7029988
   4.3960012 101.3924997  98.5969988   4.2620012 102.6644997  99.5409988
   4.7740012 102.2674997 100.9749988   4.4620012 103.1364997 102.0749988
   5.2290012 103.9394997 102.0739988   3.4920012 103.5894997 101.7759988
   4.3930012 102.2684997 103.3099988   5.3700012 102.0954997 103.7359988
   3.8330012 102.8824997 103.9999988   3.6230012 100.9724997 103.2589988
   4.4130012  99.9624997 102.4469988   4.7270012 100.4714997 101.5469988
   5.3080012  99.5924997 102.9249988   3.7970012  99.1364997 102.1229988
   3.3530012 100.3614997 104.5889988   3.1010012  99.3164997 104.4859988
   4.3000012 100.2894997 105.1039988   2.6200012 100.9694997 105.0989988
   2.2900012 101.1604997 102.6999988   1.8740012 100.1774997 102.5379988
   2.3020012 101.7234997 101.7779988   1.5870012 101.6284997 103.3719988
   5.1620012 103.7014997  99.0479988   2.8420012 103.0164997  99.6419988
   5.7390012 100.0954997  96.7339988   7.0550012 100.2994997  96.8349988
   7.8500012  99.6574997  97.5079988   7.3710012 101.4754997  95.9189988
   8.4280012 101.7924997  96.0459988   6.7870012 102.3444997  96.2919988
   6.9590012 101.1094997  94.4939988   5.9180012 100.7224997  94.4529988
   7.6750012 100.3334997  94.1489988   6.8620012 102.1764997  93.3439988
   7.8030012 102.7624997  93.4259988   6.0560012 102.9174997  93.5309988
   6.6070012 101.7054997  91.8589988   7.2910012 100.8464997  91.6839988
   6.8730012 102.5534997  91.1929988   5.1270012 101.2764997  91.6669988
   4.5510012 102.2234997  91.5879988   4.8180012 100.6534997  92.5329988
   4.9700012 100.4774997  90.3569988   5.4060012  99.4564997  90.3839988
   5.4410012 101.0774997  89.5489988   3.5230012 100.3254997  89.8459988
   3.5700012  99.9304997  88.8089988   3.0060012 101.3084997  89.8799988
   2.8330012  99.3564997  90.7749988   2.5710012  99.7644997  91.7629988
   2.4630012  98.0844997  90.5229988   1.8460012  97.5024997  91.2239988
   2.6940012  97.2944997  89.1959988   2.5840012  96.1924997  89.2759988
   3.6430012  97.5884997  88.6979988   1.5810012  97.6394997  88.1659988
   0.5960012  97.3924997  88.6159988   1.8280012  97.0394997  87.2639988
   1.3160012  99.0444997  87.7219988   2.2360012  99.4234997  87.2269988
   1.2070012  99.7254997  88.5929988   0.0580012  99.2574997  86.8039988
  -0.8819988  98.8904997  87.2689988   0.2200012  98.9394997  85.7519988
  -0.1899988 100.8024997  86.6609988  -0.4619988 101.1464997  87.6819988
  -1.1209988 101.0564997  86.1109988   0.9820012 101.5494997  86.0619988
   1.9110012 101.4574997  86.6639988   0.6450012 102.6044997  86.1519988
   1.2630012 101.2634997  84.5389988   0.3120012 101.4054997  83.9819988
   1.6360012 100.2264997  84.3959988   2.1390012 102.3304997  83.8709988
   2.4200012 102.0564997  82.8309988   3.1070012 102.5384997  84.3739988
   1.5620012 103.2754997  83.7879988  68.7180012 136.4194997  80.5839988
  67.8470012 135.7324997  80.6349988  68.8020012 136.6734997  79.5059988
  68.4820012 137.3624997  81.1219988  69.9330012 135.6464997  81.0229988
  70.2500012 135.0044997  80.1729988  70.7770012 136.3534997  81.1759988
  69.6300012 134.6394997  82.1499988  69.4210012 135.3504997  82.9779988
  68.6990012 134.1434997  81.8029988  70.7780012 133.6144997  82.3489988
  70.3290012 132.6414997  82.6429988  71.3710012 133.5184997  81.4139988
  71.8140012 134.0004997  83.3789988  72.7150012 133.3794997  83.1909988
  72.0030012 135.0464997  83.0529988  71.3370012 134.0504997  84.8839988
  70.4400012 134.7064997  84.9099988  70.9710012 133.0304997  85.1269988
  72.5160012 134.6094997  85.7829988  72.8500012 135.5944997  85.3899988
  72.1530012 134.7374997  86.8249988  73.7230012 133.6264997  85.8369988
  73.3090012 132.7934997  86.4449988  74.0050012 133.2004997  84.8509988
  75.0960012 134.1364997  86.3659988  75.7440012 133.4154997  85.8229988
  75.2800012 135.2054997  86.1259988  75.1370012 133.9144997  87.8969988
  74.5730012 133.0034997  88.1899988  76.1770012 133.6884997  88.2149988
  74.7760012 135.1504997  88.6749988  75.4690012 135.9784997  88.4129988
  73.7900012 135.5434997  88.3469988  74.8940012 135.0334997  90.1699988
  75.9760012 134.8464997  90.3379988  74.7230012 136.0914997  90.4589988
  74.1640012 133.8964997  90.9609988  74.2950012 132.9354997  90.4189988
  74.6430012 133.7354997  91.9499988  72.5920012 134.2244997  91.1719988
  72.4420012 135.2184997  91.6459988  72.1080012 134.1844997  90.1729988
  71.7920012 133.2834997  92.1139988  70.7400012 133.4864997  91.8189988
  72.0240012 132.2194997  91.8939988  72.0440012 133.6174997  93.5569988
  72.8720012 134.4114997  94.0109988  71.3000012 132.8154997  94.2689988
  71.3150012 133.0164997  95.7449988  71.4610012 134.0534997  96.1149988
  70.3230012 132.7384997  96.1589988  72.1840012 131.9824997  96.5189988
  71.6050012 131.0344997  96.4889988  72.5340012 132.4054997  97.9799988
  71.5820012 132.4344997  98.5529988  73.2080012 131.5924997  98.3239988
  73.2590012 133.6324997  98.1099988  73.6220012 133.9544997  99.6579988
  72.2390012 134.5214997 100.2419988  71.5540012 133.6314997 101.1559988
  70.5020012 133.9774997 101.2479988  71.5610012 132.5624997 100.8529988
  72.2800012 133.7234997 102.5599988  72.0460012 132.8984997 103.2159988
  73.3350012 133.6564997 102.3399988  72.1240012 134.9694997 103.4269988
  70.6680012 135.2234997 103.4619988  70.1290012 134.3754997 103.8589988
  70.5150012 136.1744997 103.9499988  70.3160012 135.3264997 102.4459988
  72.4970012 134.8184997 104.8749988  73.5420012 134.5484997 104.8729988
  72.2270012 135.7474997 105.3559988  71.9900012 133.9624997 105.2959988
  72.8470012 136.1304997 102.7259988  73.8940012 135.9664997 102.9289988
  72.5380012 137.0084997 103.2729988  72.6300012 136.0814997 101.6689988
  73.9730012 132.7164997 100.3249988  74.5210012 135.0744997  99.6389988
  73.4050012 131.8894997  95.7689988  73.8190012 130.6824997  95.5979988
  73.2270012 129.6544997  95.9779988  75.2400012 130.7924997  94.9769988
  76.0330012 130.6934997  95.7489988  75.4180012 131.8004997  94.5429988
  75.4190012 129.6034997  93.9669988  74.8000012 128.7654997  94.3509988
  76.4800012 129.3334997  93.7799988  74.9470012 129.9344997  92.5649988
  75.4400012 130.9044997  92.3389988  73.8720012 130.1664997  92.4079988
  75.3480012 128.8734997  91.5499988  75.1440012 127.8234997  91.8529988
  76.4580012 128.8384997  91.5849988  74.8440012 129.1314997  90.1239988
  75.2830012 128.3564997  89.4599988  75.0560012 130.1774997  89.8169988
  73.3420012 128.9004997  89.9479988  72.7750012 129.5414997  90.6559988
  73.0670012 127.8424997  90.1469988  72.9250012 129.4224997  88.5769988
  73.5340012 130.2974997  88.2649988  71.9450012 129.9444997  88.5589988
  73.0880012 128.3104997  87.5749988  72.8490012 127.2914997  87.9129988
  73.7170012 128.4344997  86.3589988  73.7770012 127.5914997  85.6539988
  74.3590012 129.6684997  85.7719988  74.0600012 130.5994997  86.2989988
  73.9270012 129.9054997  84.7759988  75.8780012 129.4954997  85.5329988
  76.0530012 128.5394997  84.9949988  76.4600012 129.5024997  86.4789988
  76.4970012 130.6344997  84.6809988  77.6030012 130.5664997  84.6089988
  76.2870012 131.5664997  85.2479988  76.0650012 130.6284997  83.2669988
  75.0100012 130.9724997  83.3109988  76.0730012 129.6484997  82.7419988
  76.8660012 131.4544997  82.2939988  77.8150012 130.8754997  82.2839988
  76.8870012 132.4744997  82.7349988  76.3110012 131.5414997  80.8189988
  76.1140012 130.5144997  80.4419988  77.0280012 132.1664997  80.2449988
  74.9630012 132.3904997  80.7839988  75.2910012 133.4394997  80.6219988
  74.4890012 132.4924997  81.7829988  73.9000012 131.9844997  79.7699988
  73.0020012 132.5854997  80.0279988  73.6210012 130.9094997  79.7909988
  74.2490012 132.1964997  78.7369988 127.9950012  40.8314997  86.0799988
 127.2680012  41.2444997  85.3479988 127.5110012  41.0014997  87.0649988
 127.9920012  39.7544997  85.8069988 129.3080012  41.7214997  85.9509988
 129.8590012  41.2684997  85.0989988 129.0840012  42.7774997  85.6889988
 130.3380012  41.7254997  87.0459988 131.2260012  42.2364997  86.6149988
 129.9000012  42.3314997  87.8679988 130.9910012  40.4134997  87.5019988
 130.1110012  40.0354997  88.0659988 131.3900012  39.7594997  86.6969988
 132.2710012  40.6744997  88.3039988 132.7820012  39.7344997  88.6009988
 133.0120012  41.2824997  87.7419988 131.9840012  41.5274997  89.6039988
 132.9790012  41.9214997  89.9019988 131.3200012  42.3774997  89.3379988
 131.3850012  40.6134997  90.5759988 130.3740012  40.2894997  90.2489988
 131.9730012  39.6764997  90.6839988 131.3850012  41.1624997  91.9689988
 131.2450012  40.2374997  92.5689988 132.3050012  41.7064997  92.2729988
 130.2750012  42.1574997  92.3359988 130.2290012  42.9874997  91.5989988
 129.2780012  41.7224997  92.1069988 130.4760012  42.6144997  93.7789988
 131.4300012  43.1814997  93.8369988 129.7330012  43.4254997  93.9319988
 130.2870012  41.5814997  94.8679988 131.1490012  40.8844997  94.8069988
 130.4060012  42.0034997  95.8889988 128.9360012  40.8344997  94.8319988
 127.9810012  41.3944997  94.9279988 129.0050012  40.2864997  93.8679988
 128.9870012  39.7714997  95.9309988 128.0110012  39.2594997  95.7889988
 129.7570012  39.0124997  95.6759988 129.0960012  40.2634997  97.3189988
 129.9970012  40.9104997  97.3929988 128.1750012  40.7874997  97.6509988
 129.1290012  39.2404997  98.4449988 128.4290012  39.5574997  99.2469988
 128.7340012  38.2684997  98.0789988 130.5610012  39.0074997  98.8389988
 131.5060012  38.9304997  98.0629988 130.6140012  38.8194997 100.1429988
 131.9330012  38.3064997 100.6219988 131.6810012  37.6334997 101.4689988
 132.5080012  37.7564997  99.8469988 132.8290012  39.4254997 101.1859988
 133.7230012  38.9104997 101.5979988 132.1020012  40.3484997 102.2639988
 131.0780012  40.5624997 101.8899988 132.1910012  39.8794997 103.2669988
 132.7700012  41.5224997 102.5509988 132.0660012  42.6394997 103.4239988
 131.8280012  43.8144997 102.3569988 132.6750012  43.9294997 101.2179988
 133.6760012  44.3364997 101.4769988 132.6700012  43.0004997 100.6079988
 132.0400012  44.8334997 100.1389988 132.0550012  45.7874997 100.6449988
 132.6360012  44.8044997  99.2389988 130.6260012  44.6144997  99.6949988
 129.6770012  45.1284997 100.6729988 128.6970012  45.0334997 100.2299988
 129.7310012  44.4724997 101.5289988 129.9660012  46.1494997 100.8769988
 130.5220012  45.3784997  98.4229988 129.4660012  45.5344997  98.2579988
 130.9580012  46.3624997  98.5079988 130.9340012  44.8634997  97.5679988
 130.2380012  43.1594997  99.3649988 130.8950012  42.7704997  98.6019988
 129.2080012  43.1714997  99.0389988 130.2830012  42.6664997 100.3249988
 130.6970012  42.2934997 103.8529988 133.0700012  43.1254997 104.4809988
 133.3290012  40.2074997 100.0799988 134.5120012  40.7274997 100.1749988
 135.1560012  40.6904997 101.1579988 134.8420012  41.3624997  98.8129988
 133.8950012  41.4754997  98.2439988 135.6200012  40.6844997  98.4029988
 135.4700012  42.7794997  98.9719988 136.4590012  42.6384997  99.4579988
 134.6800012  43.3734997  99.4789988 135.7910012  43.4314997  97.5589988
 136.5570012  42.7734997  97.0959988 136.1920012  44.4144997  97.8879988
 134.5830012  43.6264997  96.7489988 133.8320012  44.4244997  96.9349988
 134.0430012  42.6554997  96.7679988 134.8750012  43.9044997  95.2899988
 133.9450012  43.7534997  94.7019988 135.5180012  43.0664997  94.9459988
 135.3560012  45.3864997  95.0259988 136.4300012  45.4164997  95.3079988
 134.7220012  46.0334997  95.6689988 135.1590012  45.8214997  93.6149988
 135.0530012  46.9254997  93.5489988 134.1140012  45.4814997  93.4469988
 136.2120012  45.2804997  92.7739988 137.0910012  44.9044997  93.3179988
 136.1700012  45.2144997  91.4899988 137.0170012  44.7864997  90.9339988
 135.1010012  45.6754997  90.5419988 135.5620012  46.3894997  89.8279988
 134.2520012  46.2464997  90.9759988 134.5040012  44.5304997  89.7149988
 133.8500012  44.0074997  90.4449988 135.2920012  43.8124997  89.4029988
 133.6000012  45.1924997  88.6289988 133.1410012  46.0574997  89.1539988
 132.7330012  44.5234997  88.4439988 134.2920012  45.7654997  87.4639988
 135.0820012  46.4984997  87.7339988 133.5700012  46.3324997  86.8389988
 134.9750012  44.6934997  86.5509988 135.8700012  44.3434997  87.1089988
 135.4060012  45.2734997  85.7069988 134.2600012  43.5984997  85.8729988
 133.4530012  43.9934997  85.2189988 133.8790012  42.8844997  86.6339988
 135.3090012  42.7074997  85.1639988 136.2680012  43.2224997  84.9429988
 134.8560012  42.4634997  84.1789988 135.6050012  41.3224997  85.9319988
 135.5780012  41.5404997  87.0209988 136.5970012  40.9214997  85.6309988
 134.7860012  40.6594997  85.5789988 122.3070012 103.3664997  83.5899988
 122.5180012 103.0324997  82.5519988 122.2640012 104.4734997  83.5049988
 121.2930012 103.0134997  83.8749988 123.4970012 102.9304997  84.4749988
 123.4690012 103.4644997  85.4479988 123.4390012 101.8394997  84.6739988
 124.8670012 103.1754997  83.8829988 124.9030012 103.0304997  82.7819988
 125.0630012 104.2654997  83.9749988 126.1640012 102.3884997  84.3709988
 125.9640012 101.3004997  84.2679988 127.0700012 102.5204997  83.7409988
 126.5950012 102.7574997  85.8219988 127.0830012 103.7544997  85.8539988
 125.6730012 102.7224997  86.4419988 127.6910012 101.7554997  86.3259988
 127.3060012 100.7154997  86.2589988 128.5950012 101.8324997  85.6839988
 127.9330012 101.7884997  87.8479988 128.7860012 101.1354997  88.1329988
 128.1670012 102.8624997  88.0109988 126.7690012 101.4454997  88.8169988
 125.8410012 101.9634997  88.4909988 126.6270012 100.3464997  88.7479988
 126.8640012 101.9454997  90.2509988 127.8490012 101.5294997  90.5519988
 126.9410012 103.0524997  90.3109988 125.7450012 101.3914997  91.1479988
 124.7880012 101.3204997  90.5879988 126.0140012 100.3284997  91.3249988
 125.6540012 101.9394997  92.5669988 126.5680012 101.6994997  93.1519988
 125.7230012 103.0474997  92.6059988 124.4580012 101.4304997  93.4579988
 123.6180012 102.1174997  93.2229988 124.1510012 100.3924997  93.2079988
 124.8830012 101.2564997  95.0029988 125.6260012 102.0474997  95.2429988
 123.9430012 101.4174997  95.5719988 125.4870012  99.9014997  95.4109988
 124.7550012  99.0704997  95.4959988 126.2620012  99.6044997  94.6719988
 126.1130012  99.9074997  96.7519988 125.3790012 100.3614997  97.4519988
 126.3550012  98.8424997  96.9569988 127.4870012 100.5664997  96.6779988
 128.2950012 100.4264997  95.7639988 127.7080012 101.2494997  97.7309988
 128.8670012 102.0334997  97.9019988 129.3950012 101.6264997  98.7909988
 129.5200012 102.2004997  97.0189988 128.4160012 103.5184997  98.3709988
 129.3600012 104.1034997  98.3619988 127.9000012 103.5734997  99.8399988
 128.7470012 103.1364997 100.4099988 127.8790012 104.6324997 100.1749988
 126.6870012 102.8014997 100.1309988 126.0370012 102.9034997 101.5719988
 125.3240012 104.2714997 101.6629988 124.7840012 104.8644997 100.4039988
 125.3370012 105.8244997 100.3229988 125.0060012 104.2164997  99.5289988
 123.2550012 105.1174997 100.3989988 122.9980012 105.9764997  99.7969988
 122.8290012 104.2254997  99.9619988 122.4450012 105.1654997 101.6709988
 122.2670012 103.7884997 102.1329988 122.0830012 103.1094997 101.3139988
 123.2060012 103.4944997 102.5779988 121.5540012 103.6874997 102.9379988
 123.1290012 106.0684997 102.6929988 122.5710012 106.2444997 103.5999988
 124.0100012 105.5564997 103.0499988 123.4020012 106.9984997 102.2159988
 121.0460012 105.6484997 101.3569988 120.4090012 105.6124997 102.2289988
 120.6370012 104.9744997 100.6189988 121.0750012 106.6054997 100.8579988
 125.0450012 101.8654997 101.6229988 127.1790012 102.9254997 102.5359988
 127.4170012 103.9994997  97.5119988 126.8630012 105.1884997  97.6669988
 127.3010012 106.1304997  98.3429988 125.6510012 105.2714997  96.7379988
 124.8240012 105.8594997  97.1879988 125.2610012 104.2634997  96.4809988
 126.0640012 106.0474997  95.5079988 126.3190012 107.1014997  95.7489988
 125.1730012 106.1744997  94.8559988 127.0680012 105.3674997  94.5509988
 126.5920012 104.4304997  94.1909988 128.0760012 105.2064997  94.9899988
 127.4070012 106.1954997  93.3839988 127.9370012 105.5884997  92.6199988
 128.0890012 107.0674997  93.4799988 126.0770012 106.5974997  92.6719988
 125.7020012 107.4004997  93.3419988 125.3990012 105.7174997  92.6599988
 126.3250012 107.2534997  91.3109988 127.2070012 107.8894997  91.5409988
 125.5150012 107.9714997  91.0589988 126.4590012 106.2134997  90.2449988
 127.1560012 105.4024997  90.5449988 127.0380012 106.7514997  89.4639988
 125.2900012 105.5284997  89.7039988 125.0840012 104.4684997  89.9149988
 124.4770012 106.0614997  88.7519988 123.6820012 105.4184997  88.3449988
 124.5760012 107.4144997  88.0709988 125.1880012 108.1244997  88.6679988
 123.5690012 107.8474997  87.8899988 125.3880012 107.3514997  86.7319988
 124.7710012 106.7744997  86.0099988 126.2700012 106.7194997  86.9709988
 125.7240012 108.7044997  86.2189988 126.3500012 109.1314997  87.0319988
 124.7730012 109.2454997  86.0229988 126.6460012 108.6604997  84.9749988
 127.5890012 108.1404997  85.2469988 126.9900012 109.6604997  84.6349988
 126.0420012 107.8594997  83.7769988 126.0000012 106.7564997  83.9029988
 126.7110012 107.9124997  82.8919988 124.6630012 108.3144997  83.2269988
 124.7470012 109.3584997  82.8589988 123.8510012 108.1784997  83.9719988
 124.3360012 107.4804997  81.9389988 123.2620012 107.6354997  81.6999988
 124.3070012 106.4204997  82.2709988 125.0760012 107.7654997  80.6869988
 124.8370012 108.7884997  80.3259988 124.6950012 107.0564997  79.9209988
 126.1650012 107.5684997  80.7879988 131.7980012  93.0464997  82.3279988
 130.9750012  93.7874997  82.4119988 131.4450012  92.5354997  81.4059988
 132.7530012  93.6054997  82.2209988 131.8730012  92.1544997  83.5409988
 130.9630012  91.5264997  83.4279988 132.7680012  91.4974997  83.5129988
 131.6720012  92.9164997  84.8209988 132.4810012  93.6634997  84.9719988
 130.7140012  93.4754997  84.8889988 131.7240012  91.9674997  85.9749988
 130.8500012  91.2814997  85.9489988 132.6070012  91.3054997  85.8519988
 131.7810012  92.5774997  87.4109988 132.8150012  92.5414997  87.8169988
 131.4010012  93.6204997  87.3799988 130.9990012  91.7184997  88.4599988
 131.0140012  92.2824997  89.4169988 129.9410012  91.7074997  88.1229988
 131.5730012  90.2714997  88.6119988 130.7920012  89.6314997  89.0749988
 131.6550012  89.7234997  87.6489988 132.8820012  90.2204997  89.2569988
 133.2740012  89.1914997  89.1059988 133.6600012  90.9094997  88.8659988
 132.8820012  90.4014997  90.7939988 132.2920012  91.3014997  91.0719988
 132.4270012  89.5144997  91.2839988 134.3430012  90.5324997  91.2689988
 134.9020012  89.5834997  91.1249988 134.7850012  91.3734997  90.6929988
 134.4810012  90.9004997  92.7739988 134.0830012  91.9174997  92.9789988
 133.8030012  90.2044997  93.3109988 135.9780012  90.8144997  93.2439988
 136.5440012  89.8874997  93.0099988 136.5870012  91.6004997  92.7469988
 136.2480012  90.8344997  94.7829988 135.4820012  90.2624997  95.3509988
 137.2300012  90.3444997  94.9539988 136.5040012  92.2614997  95.3029988
 137.2070012  92.8824997  94.7069988 135.5400012  92.8014997  95.4139988
 137.1260012  92.2834997  96.7369988 136.4000012  91.8384997  97.4509988
 138.0550012  91.7344997  97.0029988 137.2400012  93.7194997  97.2149988
 137.7000012  94.6774997  96.6179988 136.8460012  93.7674997  98.5119988
 136.7390012  95.0254997  99.1489988 136.8930012  95.0094997 100.2489988
 137.3880012  95.8344997  98.7519988 135.2900012  95.5764997  99.1739988
 135.3670012  96.4784997  99.8189988 134.3060012  94.6204997  99.8119988
 134.6180012  94.2604997 100.8149988 133.3210012  95.1354997  99.8239988
 134.1860012  93.5864997  98.8959988 133.2930012  92.2664997  99.1649988
 133.4360012  92.0834997 100.7209988 133.7140012  90.8084997 101.3679988
 133.6100012  89.9674997 100.6499988 134.8060012  90.7604997 101.5659988
 132.7490012  90.4974997 102.5869988 131.7450012  90.4154997 102.1959988
 133.1300012  89.5804997 103.0119988 132.6320012  91.5184997 103.7319988
 134.0510012  92.0534997 104.0739988 134.7580012  91.2434997 104.1799988
 134.3060012  92.6344997 103.1999988 134.0060012  92.5464997 105.0339988
 131.9830012  92.8004997 103.2449988 131.0470012  92.5854997 102.7499988
 131.8760012  93.5474997 104.0169988 132.4990012  93.2704997 102.4209988
 132.1050012  90.9884997 104.9979988 132.1040012  91.7704997 105.7439988
 132.6220012  90.0914997 105.3049988 131.0650012  90.8064997 104.7699988
 131.8910012  92.5924997  98.8969988 133.7890012  91.0494997  98.4979988
 134.9220012  95.9354997  97.8669988 133.8460012  96.5964997  97.5909988
 133.1430012  97.0954997  98.4599988 133.6820012  96.5184997  96.0339988
 132.8830012  97.2564997  95.8069988 133.2620012  95.5164997  95.8029988
 134.8830012  96.9544997  95.2279988 135.8370012  96.8164997  95.7799988
 134.6160012  97.9734997  94.8719988 135.1500012  95.9884997  94.0409988
 134.1700012  95.7804997  93.5589988 135.5020012  95.0024997  94.4129988
 136.0820012  96.5364997  92.9039988 136.6320012  97.3864997  93.3619988
 135.4770012  96.8414997  92.0239988 137.1840012  95.6704997  92.2629988
 137.7580012  95.3904997  93.1719988 137.7800012  96.3504997  91.6169988
 136.8480012  94.3934997  91.5439988 136.2130012  93.7014997  92.1379988
 137.7720012  93.8124997  91.3369988 136.2620012  94.6864997  90.0959988
 135.3670012  95.3214997  90.2699988 135.8280012  93.7034997  89.8129988
 137.3030012  95.2454997  89.1839988 137.4970012  96.3274997  89.2189988
 138.0530012  94.3824997  88.4849988 138.7630012  94.7664997  87.7369988
 138.0720012  92.8544997  88.4849988 137.8260012  92.4614997  89.4939988
 139.0960012  92.4814997  88.2729988 137.1620012  92.3914997  87.3129988
 137.6280012  92.7294997  86.3619988 136.2090012  92.9424997  87.4679988
 136.8620012  90.8654997  87.2109988 136.5070012  90.4824997  88.1909988
 137.8250012  90.3154997  87.1409988 136.0350012  90.5144997  85.9609988
 135.1040012  91.1054997  86.1019988 135.7220012  89.4484997  85.9779988
 136.8130012  90.7304997  84.6959988 136.7860012  89.7654997  84.1459988
 137.8770012  91.0084997  84.8539988 136.2520012  91.6904997  83.6659988
 136.1660012  92.6554997  84.2099988 135.2660012  91.3514997  83.2819988
 137.0840012  91.9924997  82.3739988 137.8800012  92.7374997  82.5889988
 136.3130012  92.5614997  81.8119988 137.6460012  90.7674997  81.5739988
 136.7570012  90.1464997  81.3329988 138.2930012  90.1084997  82.1909988
 138.2060012  91.0464997  80.6549988  10.3010012  59.8594997  82.0149988
   9.2250012  60.1344997  82.0479988  10.5180012  58.7814997  81.8599988
  10.8230012  60.3054997  81.1419988  10.9910012  60.4724997  83.2349988
  12.0250012  60.0804997  83.1239988  11.0920012  61.5684997  83.0849988
  10.3460012  60.3054997  84.5909988  10.8590012  60.6844997  85.5009988
   9.3870012  60.8344997  84.4039988   9.9890012  58.7914997  84.9129988
   9.2500012  58.6364997  85.7269988   9.5030012  58.2614997  84.0659988
  11.1920012  57.9474997  85.2349988  11.4380012  57.2784997  84.3829988
  12.0200012  58.6714997  85.3929988  10.9600012  57.1114997  86.5249988
  10.0530012  56.4804997  86.4099988  11.8260012  56.4194997  86.5999988
  10.7930012  58.0314997  87.7559988  11.5420012  58.8424997  87.6369988
   9.8050012  58.5394997  87.7269988  10.9120012  57.1674997  89.0489988
  11.5070012  56.2564997  88.8259988  11.4610012  57.7274997  89.8359988
   9.5440012  56.8014997  89.5979988   9.1390012  56.0914997  88.8459988
   9.6500012  56.1554997  90.4949988   8.6990012  58.0064997  90.0319988
   8.3090012  58.6034997  89.1789988   7.7360012  57.7174997  90.5029988
   9.4230012  59.1104997  90.9329988  10.4840012  59.2294997  90.6219988
   8.8860012  60.0704997  91.0909988   9.5720012  58.5584997  92.3689988
   8.5990012  58.5164997  92.9039988   9.9540012  57.5144997  92.3899988
  10.5030012  59.3714997  93.2909988  11.4350012  59.7184997  92.7969988
   9.9310012  60.2964997  93.5179988  11.0050012  58.6164997  94.5679988
  10.0680012  58.2224997  95.0159988  11.5420012  57.6994997  94.2459988
  12.0520012  59.4304997  95.4319988  12.3600012  58.7354997  96.2419988
  13.0440012  59.6014997  94.9619988  11.5920012  60.7564997  95.8149988
  12.0340012  61.8194997  95.4149988  10.5730012  60.5714997  96.6419988
   9.6610012  61.7074997  96.8439988  10.3150012  62.5634997  97.1159988
   9.1280012  61.9244997  95.8939988   8.5900012  61.3774997  97.8739988
   8.0060012  62.3124997  98.0129988   9.2490012  61.0564997  99.2509988
  10.0270012  61.7894997  99.5529988   8.3770012  60.8914997  99.9189988
   9.7950012  59.7044997  99.1139988  10.3650012  59.1154997 100.4889988
   9.0940012  58.7554997 101.3829988   8.1640012  57.6284997 101.0629988
   8.2470012  57.2334997 100.0289988   8.3660012  56.7564997 101.7209988
   6.5810012  58.0314997 101.3879988   6.2830012  58.4894997 100.4559988
   6.0290012  57.1034997 101.4339988   6.2730012  58.9524997 102.5529988
   6.9280012  60.2774997 102.3039988   6.5720012  61.0714997 102.9429988
   8.0030012  60.2544997 102.4059988   6.7070012  60.4934997 101.2689988
   4.8330012  59.1864997 102.7349988   4.7000012  59.9274997 103.5089988
   4.3710012  59.5034997 101.8109988   4.4020012  58.2364997 103.0119988
   6.8340012  58.2524997 103.8329988   6.7870012  58.9434997 104.6619988
   7.8820012  58.0324997 103.6899988   6.1550012  57.4424997 104.0499988
  11.1420012  57.8464997 100.1959988  11.1150012  60.2304997 101.1219988
   7.8750012  60.2694997  97.2659988   6.5770012  60.2974997  97.7429988
   6.2140012  60.9854997  98.6629988   5.7230012  59.3104997  96.9899988
   4.6850012  59.6834997  96.8639988   5.6470012  58.3894997  97.6069988
   6.2710012  58.9494997  95.6349988   7.2360012  58.4394997  95.8379988
   6.6610012  59.7944997  95.0279988   5.4120012  58.0034997  94.7929988
   4.4090012  58.4184997  94.5559988   5.2870012  57.0554997  95.3579988
   6.1620012  57.5464997  93.5079988   7.1220012  57.1034997  93.8499988
   6.3580012  58.3294997  92.7439988   5.2520012  56.5104997  92.7489988
   4.8650012  55.7224997  93.4289988   5.9300012  55.9844997  92.0429988
   4.1550012  57.1364997  91.9239988   3.3720012  57.5034997  92.6209988
   3.5830012  56.3994997  91.3209988   4.5220012  58.2924997  90.9329988
   3.9570012  58.2934997  89.9769988   5.5980012  58.1574997  90.6929988
   4.2100012  59.6714997  91.4489988   3.2130012  59.7884997  91.8999988
   4.9840012  60.7834997  91.4319988   4.6450012  61.6114997  92.0729988
   6.3820012  60.8614997  90.9219988   6.8350012  59.8904997  90.6299988
   6.9580012  61.4224997  91.6879988   6.3690012  61.8284997  89.7349988
   7.4380012  62.1024997  89.6049988   5.8450012  62.7754997  89.9839988
   5.8320012  61.4104997  88.3209988   4.7230012  61.4674997  88.3569988
   6.1540012  60.3844997  88.0409988   6.4190012  62.2984997  87.2269988
   7.5200012  62.1684997  87.3059988   6.1550012  63.3754997  87.2999988
   6.1090012  61.7944997  85.7759988   5.0120012  61.6254997  85.7299988
   6.5280012  60.7724997  85.6609988   6.5760012  62.6834997  84.6129988
   7.6500012  62.9614997  84.6759988   6.0340012  63.6414997  84.7639988
   6.4120012  62.1314997  83.2129988   5.3130012  62.2094997  83.0639988
   6.7140012  61.0634997  83.2379988   7.1760012  62.7614997  82.0499988
   8.0910012  63.2554997  82.4399988   6.4710012  63.4734997  81.5699988
   7.6660012  62.0094997  81.3949988  85.9580012   8.7264997  80.8889988
  85.6580012   8.1034997  81.7589988  86.2670012   8.1004997  80.0249988
  85.0740012   9.3364997  80.6059988  87.1300012   9.7194997  81.1909988
  87.4440012  10.3164997  80.3089988  86.6290012  10.5124997  81.7849988
  88.2430012   9.1214997  81.8829988  87.8830012   8.4184997  82.6639988
  88.7020012   8.4684997  81.1099988  89.2680012  10.1304997  82.4429988
  90.0160012   9.4354997  82.8819988  89.6710012  10.5584997  81.5009988
  88.8650012  11.3024997  83.4199988  89.5610012  12.1294997  83.1649988
  87.9540012  11.6934997  82.9179988  88.7750012  11.0074997  84.9429988
  88.2190012  11.8344997  85.4359988  88.0240012  10.1964997  85.0539988
  90.0700012  10.5014997  85.6569988  90.4720012   9.5784997  85.1869988
  90.9290012  11.2064997  85.6169988  89.7540012  10.0414997  87.0879988
  89.4750012  10.9564997  87.6529988  88.8700012   9.3694997  87.0469988
  91.0290012   9.5674997  87.7599988  91.4980012   8.7134997  87.2249988
  91.7810012  10.3824997  87.6879988  90.8880012   8.9954997  89.2269988
  90.3080012   8.0514997  89.1439988  91.9170012   8.8844997  89.6319988
  90.0360012   9.9944997  90.1169988  90.6370012  10.9134997  90.2849988
  88.9940012  10.2264997  89.8099988  89.8520012   9.3024997  91.5009988
  90.8250012   8.9034997  91.8579988  89.5070012  10.0074997  92.2859988
  88.8030012   8.1094997  91.6069988  88.3580012   7.9544997  90.6009988
  89.4950012   7.2584997  91.7839988  87.8170012   8.4804997  92.6859988
  87.4420012   9.4654997  92.3349988  86.9820012   7.7494997  92.7259988
  88.3020012   8.4224997  94.1699988  87.9470012   7.5044997  94.6859988
  89.3900012   8.2074997  94.2369988  87.8630012   9.7204997  94.9849988
  87.7920012  10.8454997  94.5779988  87.3720012   9.3094997  96.1899988
  86.8640012  10.3524997  97.0449988  87.7240012  10.4894997  97.7359988
  86.7040012  11.3074997  96.5019988  85.6140012   9.8934997  97.8369988
  84.7270012  10.1324997  97.2119988  85.6040012  10.6694997  99.1559988
  86.5980012  10.4844997  99.6159988  85.5370012  11.7664997  98.9949988
  84.5080012  10.2244997  99.9409988  84.8890012   9.8914997 101.5249988
  86.2210012   9.0304997 101.3249988  86.5280012   7.9834997 102.2209988
  86.7600012   8.3564997 103.2409988  85.7040012   7.2414997 102.2799988
  87.7570012   7.1424997 101.6529988  87.9330012   6.3164997 102.3249988
  87.4310012   6.7834997 100.6879988  88.9760012   7.9504997 101.3759988
  89.4630012   8.6874997 102.6319988  90.2540012   9.3294997 102.2739988
  88.6520012   9.2374997 103.0849988  89.7560012   7.9664997 103.3809988
  90.1140012   7.0264997 100.9449988  90.2490012   6.1924997 101.6169988
  89.9410012   6.5034997 100.0159988  91.0120012   7.6254997 100.9839988
  88.7350012   8.9214997 100.2269988  88.2480012   8.5474997  99.3379988
  89.6630012   9.3694997  99.9029988  88.1510012   9.6984997 100.6989988
  85.1900012  11.1844997 102.2789988  83.8820012   8.9314997 102.0579988
  85.7250012   8.5154997  97.9869988  84.6260012   7.7154997  97.9579988
  83.4670012   8.0754997  97.9449988  85.0180012   6.1814997  97.8509988
  84.1730012   5.5734997  98.2389988  85.8840012   6.1494997  98.5459988
  85.2930012   5.8794997  96.3949988  85.4270012   4.7784997  96.3259988
  86.2370012   6.3104997  95.9979988  84.0670012   6.0984997  95.3959988
  83.1730012   6.1104997  96.0549988  83.9370012   5.2314997  94.7129988
  84.2690012   7.3694997  94.5979988  85.0100012   7.1434997  93.8009988
  84.8110012   8.1534997  95.1689988  82.8880012   7.8064997  93.8979988
  82.1460012   7.8044997  94.7249988  82.5490012   6.9924997  93.2229988
  82.9870012   9.0274997  92.9469988  82.1160012   9.1734997  92.2729988
  83.7560012   8.7134997  92.2089988  83.6060012  10.3494997  93.6029988
  84.6760012  10.1184997  93.7949988  83.1360012  10.4374997  94.6049988
  83.2290012  11.4754997  92.6509988  82.2250012  11.9134997  92.7509988
  84.0010012  12.0244997  91.6979988  83.5260012  12.8414997  91.1349988
  85.4480012  11.5844997  91.4669988  85.7550012  10.8824997  92.2709988
  86.0180012  12.5384997  91.4359988  85.8870012  10.8344997  90.1689988
  86.9790012  10.6414997  90.2359988  85.6710012  11.4804997  89.2919988
  85.2930012   9.4204997  89.9389988  84.1830012   9.4054997  89.9669988
  85.6870012   8.8404997  90.8009988  85.6000012   8.7884997  88.5299988
  86.6720012   8.5404997  88.3749988  85.2650012   9.5734997  87.8189988
  84.8490012   7.5474997  88.2789988  83.7550012   7.5754997  88.4709988
  85.3800012   6.8124997  88.9209988  84.9430012   7.0624997  86.7689988
  84.8030012   7.9254997  86.0839988  84.1460012   6.2934997  86.6789988
  86.2390012   6.4454997  86.4079988  86.3720012   5.5354997  87.0309988
  87.1290012   7.1004997  86.5259988  86.2910012   6.0894997  84.9119988
  87.3390012   5.7944997  84.6889988  85.8120012   6.8914997  84.3109988
  85.5470012   5.3444997  84.5569988 119.7520012  31.4384997  82.1969988
 118.8520012  31.8104997  82.7299988 119.7650012  30.3314997  82.2949988
 119.5800012  31.8364997  81.1739988 121.1310012  32.0174997  82.7379988
 121.4940012  31.3784997  83.5709988 121.8850012  31.9134997  81.9289988
 121.1610012  33.5124997  83.0399988 120.7660012  34.1864997  82.2489988
 120.7500012  33.7604997  84.0419988 122.5820012  34.2004997  83.0919988
 123.0070012  34.2104997  82.0649988 122.3420012  35.2384997  83.4069988
 123.5790012  33.4924997  84.0639988 122.9370012  33.1464997  84.9019988
 123.8850012  32.5154997  83.6309988 124.7270012  34.3754997  84.5859988
 125.4890012  34.3734997  83.7769988 124.3790012  35.3924997  84.8649988
 125.3190012  33.9744997  85.9259988 125.8550012  33.0114997  85.7889988
 126.1500012  34.6034997  86.3099988 124.4550012  33.7544997  87.2279988
 123.8480012  34.6024997  87.6109988 123.7050012  32.9684997  86.9939988
 125.2950012  33.2874997  88.4139988 125.9830012  32.4624997  88.1289988
 125.9800012  34.1274997  88.6569988 124.4520012  33.0374997  89.7069988
 123.8560012  33.9654997  89.8369988 123.7880012  32.1464997  89.6829988
 125.3920012  32.8294997  90.9579988 125.9410012  31.8674997  90.8799988
 126.1060012  33.6794997  90.9079988 124.7430012  32.9794997  92.3669988
 124.3570012  34.0164997  92.4649988 123.8460012  32.3414997  92.5139988
 125.8080012  32.7244997  93.5289988 126.3620012  31.7904997  93.2939988
 126.5000012  33.5874997  93.4259988 125.2150012  32.7374997  95.0309988
 124.3380012  33.4184997  95.0899988 124.8490012  31.7074997  95.2309988
 126.3330012  33.2294997  96.0349988 127.2950012  32.6914997  95.8969988
 126.5680012  34.3044997  95.8839988 125.7310012  32.8904997  97.3769988
 125.7760012  31.7744997  97.8209988 125.1600012  33.9464997  97.9609988
 124.3460012  33.6964997  99.0549988 124.8170012  32.8314997  99.5689988
 124.2360012  34.6094997  99.6789988 122.9140012  33.2794997  98.6279988
 122.4540012  34.1514997  98.1159988 122.0530012  32.9584997  99.8339988
 122.4000012  33.4974997 100.7419988 121.0690012  33.4624997  99.7259988
 121.8460012  31.5714997 100.0429988 122.1480012  30.7734997 101.3709988
 123.6290012  31.2844997 101.6519988 124.3250012  30.8914997 102.8099988
 125.0500012  31.6794997 103.1059988 123.7810012  30.8024997 103.7749988
 124.9650012  29.5344997 102.5809988 125.5600012  29.2584997 103.4389988
 124.1870012  28.7984997 102.4449988 125.9310012  29.4464997 101.3279988
 125.3080012  29.5194997  99.9439988 124.8130012  30.4784997  99.9039988
 126.0530012  29.3374997  99.1839988 124.6080012  28.6984997  99.9029988
 126.9980012  30.4544997 101.4569988 127.4910012  30.4054997 100.4969988
 126.4750012  31.3844997 101.6249988 127.6120012  30.3064997 102.3319988
 126.6280012  28.0434997 101.5359988 127.0920012  28.0144997 102.5109988
 127.4070012  27.8754997 100.8059988 125.8710012  27.2844997 101.4029988
 121.1890012  31.2714997 102.3749988 122.0860012  29.3344997 101.0829988
 123.0280012  32.1624997  97.6469988 121.9100012  31.6434997  97.1349988
 120.8110012  32.2094997  97.1309988 122.4490012  30.4474997  96.2749988
 123.2440012  29.9434997  96.8659988 122.8590012  30.9044997  95.3489988
 121.3050012  29.6484997  95.8029988 120.4530012  30.3094997  95.5349988
 120.9410012  29.0204997  96.6439988 121.4430012  28.7804997  94.5839988
 121.6620012  29.4144997  93.6989988 120.4630012  28.3124997  94.3499988
 122.4660012  27.6204997  94.5759988 122.0820012  26.7204997  95.1019988
 123.3530012  27.9924997  95.1319988 123.1020012  27.1664997  93.2049988
 123.6040012  28.0284997  92.7159988 122.2300012  26.8234997  92.6079988
 124.0210012  25.9674997  93.2449988 123.4390012  25.0654997  93.5319988
 124.8070012  26.1284997  94.0119988 124.7060012  25.6294997  91.8929988
 123.9390012  25.3704997  91.1319988 125.3450012  24.7254997  91.8039988
 125.5610012  26.7454997  91.3399988 126.5430012  26.8294997  91.8269988
 125.2060012  27.7114997  90.4359988 125.9990012  28.3704997  90.0529988
 123.8880012  27.8644997  89.7689988 123.4490012  28.8284997  90.1049988
 123.2140012  26.9974997  89.9359988 124.1460012  27.8504997  88.2979988
 124.4170012  26.8654997  87.8619988 124.9400012  28.5994997  88.0919988
 122.9820012  28.1174997  87.3119988 122.3850012  28.9484997  87.7459988
 122.2890012  27.2514997  87.2439988 123.3590012  28.5674997  85.8089988
 124.1240012  29.3634997  85.9269988 122.4160012  28.9804997  85.3899988
 124.0850012  27.3324997  85.0489988 123.2160012  26.7324997  84.7039988
 124.8070012  26.7744997  85.6829988 124.8500012  27.9284997  83.7349988
 125.6040012  28.6524997  84.1129988 124.0840012  28.3574997  83.0529988
 125.5220012  26.7684997  82.8459988 126.1090012  26.0464997  83.4519988
 126.2320012  27.2744997  82.1579988 124.5600012  25.9384997  82.0179988
 125.0310012  25.1514997  81.3909988 123.9040012  26.4884997  81.3109988
 124.0470012  25.3874997  82.8339988  50.4470012  11.2954997  83.3819988
  51.1810012  11.9144997  82.8229988  49.4790012  11.5724997  82.9129988
  50.5780012  10.1994997  83.2569988  50.3380012  11.8274997  84.8179988
  51.0860012  11.3144997  85.4589988  50.5720012  12.9134997  84.8469988
  48.9740012  11.6634997  85.5459988  48.0890012  11.7384997  84.8789988
  48.9220012  10.6284997  85.9449988  48.7750012  12.6244997  86.7189988
  48.9030012  13.6444997  86.2989988  47.7750012  12.5394997  87.1949988
  49.7610012  12.4814997  87.8909988  49.7890012  11.3994997  88.1419988
  50.7950012  12.6744997  87.5349988  49.3380012  13.4084997  88.9989988
  49.6970012  14.4354997  88.7759988  48.2340012  13.4654997  88.8899988
  49.6730012  13.0724997  90.4969988  49.3280012  12.0374997  90.7079988
  50.7780012  13.1314997  90.5879988  49.0970012  14.0754997  91.4909988
  49.4770012  13.9454997  92.5269988  49.6180012  14.9964997  91.1509988
  47.5980012  14.0734997  91.4519988  47.1510012  14.7334997  92.2259988
  47.2220012  14.5034997  90.4989988  46.9350012  12.7444997  91.6309988
  45.8660012  12.7944997  91.3319988  47.4070012  11.9244997  91.0489988
  46.9840012  12.3534997  93.1229988  47.9780012  12.5174997  93.5909988
  46.1900012  12.9124997  93.6619988  46.4660012  10.9274997  93.3529988
  45.5390012  10.8584997  92.7439988  47.2260012  10.2324997  92.9369988
  46.2000012  10.4734997  94.8329988  47.2110012  10.4394997  95.2929988
  45.4430012  10.9604997  95.4849988  45.6420012   8.9924997  94.8129988
  44.5800012   8.9954997  94.4859988  46.1650012   8.3604997  94.0629988
  45.6730012   8.3274997  96.2809988  45.2140012   9.0144997  97.0239988
  44.9850012   7.4564997  96.2389988  47.1430012   8.0344997  96.5949988
  47.9670012   7.7814997  95.7679988  47.3600012   8.0054997  97.9309988
  48.5790012   7.3954997  98.2669988  48.6350012   7.0834997  99.3319988
  48.7740012   6.4194997  97.7729988  49.8670012   8.3634997  98.3229988
  50.8390012   7.9644997  98.6829988  49.6720012   9.5174997  99.3199988
  48.5850012   9.7444997  99.3459988  49.8300012   9.1354997 100.3509988
  50.5490012  10.6654997  99.1109988  50.1430012  12.1374997  99.5779988
  48.8350012  11.9374997 100.4179988  48.3840012  13.0834997 101.1199988
  48.8240012  14.0454997 100.7799988  47.2760012  13.0284997 101.0689988
  48.6070012  13.0444997 102.6559988  49.6710012  13.0754997 102.8379988
  48.1030012  13.8634997 103.1479988  48.2120012  11.7984997 103.4359988
  46.6680012  11.7384997 103.3209988  46.2800012  12.5154997 103.9629988
  46.3940012  11.9524997 102.2989988  46.3230012  10.7964997 103.7199988
  48.8790012  10.5234997 102.9609988  49.9530012  10.5974997 103.0549988
  48.4800012   9.7104997 103.5489988  48.5680012  10.4524997 101.9299988
  48.6830012  12.0574997 104.7969988  48.3680012  11.2194997 105.4019988
  48.2690012  12.9924997 105.1429988  49.7570012  12.1334997 104.8789988
  51.2650012  12.6394997 100.4499988  49.8000012  12.9304997  98.3329988
  50.1430012   8.8974997  96.9949988  50.8290012   8.1064997  96.2099988
  51.3730012   7.0284997  96.5059988  50.9390012   8.6784997  94.7629988
  51.8680012   9.2824997  94.6789988  50.1570012   9.4224997  94.5009988
  51.0420012   7.5714997  93.8119988  50.2540012   6.8414997  94.0949988
  52.0420012   7.0974997  93.9079988  50.7750012   8.1124997  92.3669988
  51.7490012   8.5904997  92.1249988  50.1470012   9.0294997  92.4039988
  50.4180012   7.1034997  91.2119988  51.2130012   6.3294997  91.1589988
  50.3430012   7.7724997  90.3279988  49.0680012   6.4324997  91.4549988
  49.1280012   6.0164997  92.4829988  48.9660012   5.4964997  90.8659988
  47.7800012   7.1934997  91.2289988  47.7290012   8.0834997  91.8919988
  46.9310012   6.5984997  91.6289988  47.5380012   7.6394997  89.7939988
  48.1670012   8.5514997  89.7099988  46.5080012   8.0234997  89.6339988
  47.8790012   6.6394997  88.7419988  48.8800012   6.1834997  88.7429988
  47.0550012   6.1954997  87.7769988  47.4760012   5.5634997  86.9799988
  45.6340012   6.5664997  87.5789988  45.1740012   6.7044997  88.5809988
  45.1430012   5.7134997  87.0619988  45.5710012   7.8084997  86.5979988
  46.1870012   8.6554997  86.9699988  44.5580012   8.2624997  86.6579988
  46.0290012   7.3934997  85.1509988  45.7820012   6.3154997  85.0379988
  47.1090012   7.5914997  84.9829988  45.2190012   8.0024997  83.9669988
  44.1330012   7.8584997  84.1559988  45.7400012   7.4974997  83.1259988
  45.5800012   9.5184997  83.7849988  46.6250012   9.4984997  83.4069988
  45.4220012   9.9494997  84.7969988  44.6410012  10.2814997  82.8739988
  43.6390012  10.2684997  83.3529988  44.4130012   9.8254997  81.8869988
  45.0420012  11.7314997  82.5699988  45.1840012  12.3154997  83.5039988
  44.2550012  12.2114997  81.9499988  46.3430012  11.7744997  81.8089988
  47.1570012  11.3624997  82.4439988  46.6600012  12.8064997  81.5499988
  46.3380012  11.2154997  80.8489988  26.7950012  33.9764997  83.7679988
  27.2140012  33.0354997  84.1849988  27.2770012  34.8724997  84.2139988
  26.9820012  33.8014997  82.6869988  25.3050012  33.8544997  84.1039988
  24.7600012  34.6924997  83.6199988  24.9160012  32.8554997  83.8169988
  24.9700012  34.2324997  85.5829988  25.4240012  35.2144997  85.8339988
  23.9110012  34.3694997  85.8919988  25.5670012  33.2104997  86.6329988
  25.3190012  32.2334997  86.1649988  26.6490012  33.3164997  86.4039988
  25.2520012  33.4234997  88.1249988  24.1630012  33.2524997  88.2619988
  25.7570012  32.7854997  88.8819988  25.6290012  34.7844997  88.6669988
  26.7310012  34.9134997  88.6089988  25.0780012  35.5874997  88.1329988
  25.2470012  34.8884997  90.1739988  25.6750012  34.0784997  90.8029988
  25.7630012  35.8154997  90.5029988  23.7720012  35.1934997  90.3719988
  23.5390012  36.2594997  90.1639988  23.0170012  34.6284997  89.7839988
  23.2770012  35.0284997  91.8319988  22.2320012  35.4054997  91.8379988
  23.4020012  33.9804997  92.1799988  24.0890012  35.9174997  92.8509988
  25.1140012  35.5444997  93.0579988  24.0770012  36.9474997  92.4349988
  23.4680012  35.8874997  94.3209988  24.1060012  36.4494997  95.0359988
  22.4350012  36.2854997  94.2249988  23.3260012  34.4254997  94.8749988
  22.5720012  33.9334997  94.2239988  24.3640012  34.0364997  94.8029988
  22.7530012  34.4384997  96.2659988  23.3200012  35.0744997  96.9779988
  21.7540012  34.8964997  96.1009988  22.5050012  33.0514997  96.9089988
  21.9810012  32.3074997  96.2709988  23.5250012  32.6294997  97.0279988
  21.6730012  33.2434997  98.1609988  22.1490012  33.9874997  98.8339988
  20.6490012  33.6034997  97.9239988  21.5650012  32.0114997  99.0989988
  20.8310012  31.9524997 100.0919988  22.4250012  31.0944997  98.7059988
  22.6160012  29.9814997  99.5439988  22.3120012  30.0944997 100.6069988
  21.9340012  29.1944997  99.1559988  24.0860012  29.5644997  99.5589988
  24.1740012  28.6434997 100.1739988  24.9220012  30.6964997 100.1639988
  24.5010012  30.9274997 101.1649988  25.9560012  30.4144997 100.4559988
  24.9060012  31.8804997  99.3319988  26.2070012  32.7174997  99.1879988
  26.4690012  33.3044997 100.6929988  25.5090012  34.1284997 101.4069988
  26.1000012  34.9654997 101.8369988  24.8360012  34.6714997 100.7089988
  24.9190012  33.2784997 102.5179988  24.0260012  33.7584997 102.8899988
  24.5210012  32.3374997 102.1689988  25.9120012  32.9544997 103.7039988
  27.1930012  32.3504997 103.1279988  27.7680012  31.7284997 103.7979988
  26.8650012  31.8424997 102.2319988  27.7380012  33.2574997 102.9119988
  26.2950012  34.1574997 104.4659988  25.4960012  34.7934997 104.8169988
  26.9010012  33.8724997 105.3129988  27.0590012  34.6714997 103.9019988
  25.1860012  32.0034997 104.5949988  25.9120012  31.7144997 105.3399988
  25.0020012  31.1014997 104.0299988  24.2860012  32.5124997 104.9069988
  27.2780012  31.7314997  98.8419988  26.0980012  33.9054997  98.3079988
  24.5640012  29.3114997  98.2069988  25.5820012  28.3854997  98.2079988
  26.1240012  27.9104997  99.1609988  25.9880012  27.9664997  96.7379988
  25.3280012  27.1234997  96.4399988  27.0250012  27.5674997  96.7139988
  25.9170012  29.1344997  95.6849988  26.4170012  28.7194997  94.7829988
  26.3630012  30.0484997  96.1319988  24.5260012  29.3214997  95.1209988
  23.7810012  29.3624997  95.9439988  24.2610012  28.4254997  94.5189988
  24.5040012  30.4524997  94.1129988  24.9290012  31.3564997  94.5989988
  23.4490012  30.5644997  93.7849988  25.2890012  30.1694997  92.7839988
  24.8650012  29.2314997  92.3659988  26.3610012  29.9824997  93.0079988
  25.2650012  31.2694997  91.6549988  26.0830012  30.9474997  90.9749988
  25.4950012  32.2734997  92.0719988  23.9010012  31.3684997  90.9989988
  23.8760012  32.2344997  90.3039988  23.0680012  31.5344997  91.7149988
  23.6140012  30.1614997  90.2729988  24.3050012  29.3654997  90.5889988
  22.7040012  29.8644997  89.3049988  22.5960012  28.8524997  88.8869988
  21.7650012  30.9184997  88.8929988  22.2810012  31.8674997  88.6309988
  21.1840012  31.2834997  89.7669988  20.7610012  30.4974997  87.7579988
  20.0030012  31.2874997  87.5749988  20.2710012  29.6084997  88.2089988
  21.2540012  30.1684997  86.3349988  20.4280012  29.8064997  85.6859988
  21.8600012  29.2434997  86.4449988  21.9520012  31.3774997  85.6919988
  22.9920012  31.4454997  86.0769988  21.5750012  32.2684997  86.2379988
  21.7030012  31.4974997  84.1799988  22.0780012  32.4324997  83.7099988
  20.6100012  31.6644997  84.0709988  21.9850012  30.2344997  83.3789988
  21.8160012  30.4704997  82.3069988  21.3100012  29.3804997  83.5999988
  23.3780012  29.5744997  83.4969988  23.5240012  28.9574997  84.4089988
  24.1350012  30.3624997  83.6969988  23.9830012  28.6974997  82.4369988
  25.0840012  28.8454997  82.4409988  23.6180012  28.9974997  81.4319988
  23.6640012  27.6534997  82.6419988  44.0850012  16.2754997  83.6899988
  44.6670012  17.2094997  83.8389988  43.0560012  16.6944997  83.6779988
  44.3860012  15.7444997  82.7609988  44.2390012  15.2664997  84.8009988
  43.6000012  14.3904997  84.5579988  45.2530012  14.8164997  84.7489988
  44.1420012  15.8264997  86.2369988  44.4970012  14.9504997  86.8209988
  44.8850012  16.6234997  86.4519988  42.7150012  15.9974997  86.7019988
  42.5040012  17.0254997  86.3379988  42.1980012  15.1824997  86.1509988
  42.6050012  16.0014997  88.3039988  41.5300012  15.8264997  88.5229988
  43.1660012  15.1414997  88.7289988  43.2010012  17.2904997  88.8959988
  42.8580012  17.2494997  89.9519988  44.3080012  17.2764997  88.8089988
  42.7180012  18.5874997  88.2149988  43.1240012  18.7174997  87.1889988
  41.6080012  18.6194997  88.2339988  43.2910012  19.7924997  88.9679988
  43.2100012  19.6444997  90.0659988  44.3880012  19.6604997  88.8529988
  42.7270012  21.1624997  88.7079988  43.4510012  21.8714997  89.1639988
  42.6890012  21.3774997  87.6189988  41.2020012  21.3044997  89.0619988
  40.9690012  22.3884997  88.9829988  40.6980012  20.6494997  88.3199988
  40.8130012  20.7814997  90.4959988  40.5200012  19.7184997  90.6289988
  41.6310012  20.9454997  91.2299988  39.6350012  21.6084997  91.1309988
  39.8260012  22.6824997  90.9199988  38.7140012  21.2474997  90.6269988
  39.4270012  21.3894997  92.6209988  38.6980012  22.1874997  92.8789988
  38.9400012  20.4514997  92.9619988  40.6400012  21.6704997  93.5239988
  41.1560012  20.7024997  93.6989988  41.3180012  22.4164997  93.0559988
  40.0910012  22.0344997  94.9489988  39.8040012  23.1074997  94.9329988
  39.1890012  21.4614997  95.2529988  41.1070012  21.7854997  95.9709988
  42.2990012  21.6844997  95.7359988  40.5040012  21.6794997  97.1789988
  41.3970012  21.3504997  98.2679988  42.4740012  21.5324997  98.0669988
  41.1900012  22.1054997  99.0569988  41.0800012  19.9554997  98.8869988
  40.0000012  20.0594997  99.1289988  41.9220012  19.7404997 100.1449988
  42.9670012  19.8334997  99.7789988  41.7590012  20.4434997 100.9899988
  41.6460012  18.4294997 100.5959988  40.7660012  18.1274997 101.8689988
  41.2530012  16.7784997 102.4749988  42.6150012  16.3314997 102.2929988
  43.3350012  17.1774997 102.2849988  42.9310012  15.6384997 103.1019988
  42.6520012  15.5034997 100.9719988  42.3800012  16.0734997 100.0959988
  43.6510012  15.1324997 100.8009988  41.7770012  14.1964997 100.9439988
  40.2800012  14.4544997 100.9159988  40.0330012  15.0434997 100.0449988
  39.8340012  13.4784997 100.7919988  40.1040012  14.9714997 101.8479988
  42.1370012  13.4694997  99.6569988  41.7320012  12.4764997  99.7849988
  41.6820012  13.9964997  98.8309988  43.2040012  13.3544997  99.5389988
  42.0140012  13.3624997 102.1639988  43.0510012  13.1914997 102.4109988
  41.4780012  12.4244997 102.1369988  41.5910012  13.9324997 102.9779988
  40.9310012  19.1844997 102.8809988  39.3170012  17.9854997 101.4149988
  41.2720012  18.9584997  97.8809988  40.3910012  17.9534997  97.8139988
  39.3610012  17.8334997  98.5259988  40.7420012  17.1444997  96.4549988
  40.4470012  16.0834997  96.5979988  41.8280012  17.1544997  96.2189988
  40.0000012  17.6264997  95.2439988  40.2550012  18.6994997  95.1159988
  38.8920012  17.5854997  95.3219988  40.3540012  16.7994997  93.9849988
  40.2450012  15.7074997  94.1589988  41.3650012  17.1324997  93.6649988
  39.4240012  17.1494997  92.8079988  39.0670012  18.1954997  92.9189988
  38.5420012  16.5084997  93.0209988  39.9260012  16.8904997  91.3659988
  40.1460012  15.8074997  91.2559988  40.8890012  17.4344997  91.2599988
  38.9700012  17.3274997  90.1549988  39.6530012  17.3164997  89.2789988
  38.7280012  18.4094997  90.2319988  37.7320012  16.3774997  90.0019988
  37.2320012  16.4704997  90.9899988  38.1540012  15.3524997  89.9239988
  36.8120012  16.7334997  88.8819988  35.8500012  17.1804997  89.1759988
  36.8900012  16.2664997  87.6069988  36.1700012  16.6444997  86.8659988
  37.9050012  15.3394997  87.0229988  37.5420012  14.2894997  86.9909988
  38.8080012  15.4814997  87.6549988  38.3310012  15.6054997  85.5699988
  37.5400012  15.4794997  84.8009988  38.9600012  14.7244997  85.3199988
  39.2210012  16.8324997  85.4139988  39.9900012  16.6544997  84.6329988
  39.6900012  17.1644997  86.3649988  38.2900012  17.9574997  84.8189988
  37.3040012  18.0244997  85.3279988  38.0680012  17.8284997  83.7379988
  38.9480012  19.3364997  84.8489988  39.4750012  19.3574997  85.8269988
  38.1700012  20.1294997  84.8659988  39.9230012  19.4154997  83.6649988
  39.2630012  19.2344997  82.7899988  40.5080012  18.4704997  83.6729988
  40.9770012  20.5374997  83.6649988  40.5160012  21.3704997  83.0919988
  41.7650012  20.1664997  82.9749988  41.5390012  21.0304997  85.0059988
  42.3390012  21.7824997  84.8389988  41.7900012  20.1264997  85.6019988
  40.6580012  21.5134997  85.4789988 109.2190012 123.3664997  81.9849988
 108.1200012 123.3684997  81.8249988 109.8430012 123.3634997  81.0649988
 109.2870012 124.2844997  82.6069988 109.5980012 122.2604997  82.9189988
 109.5100012 121.2774997  82.4099988 110.6720012 122.3914997  83.1729988
 108.8120012 122.1754997  84.2589988 108.9140012 123.0894997  84.8809988
 107.7550012 121.9424997  84.0069988 109.2280012 121.0294997  85.2489988
 108.7930012 120.1184997  84.7849988 110.3350012 121.0714997  85.3279988
 108.5260012 121.2594997  86.6009988 108.2910012 122.3294997  86.7859988
 107.5150012 120.8004997  86.6169988 109.3620012 120.6644997  87.7509988
 109.4450012 119.5754997  87.5469988 110.4220012 120.9364997  87.5619988
 108.9560012 120.8704997  89.2029988 108.0760012 120.2894997  89.5519988
 109.8630012 120.4484997  89.6879988 108.7790012 122.3734997  89.5169988
 109.4540012 123.0644997  88.9669988 107.7950012 122.7314997  89.1469988
 108.9810012 122.6384997  90.9809988 109.9720012 122.3234997  91.3709988
 108.8350012 123.7284997  91.1419988 108.0010012 121.8434997  91.8689988
 106.9640012 121.9094997  91.4749988 108.3900012 120.8024997  91.8569988
 107.8980012 122.3204997  93.3819988 107.5700012 123.3814997  93.4339988
 107.1740012 121.6584997  93.9029988 109.1810012 121.9914997  94.1389988
 109.4960012 120.9634997  93.8589988 109.9640012 122.6994997  93.7919988
 109.0620012 122.0424997  95.6439988 108.6790012 123.0704997  95.8169988
 108.3440012 121.2874997  96.0279988 110.4320012 121.6774997  96.2509988
 110.5680012 120.5934997  96.0509988 111.2130012 122.3274997  95.8019988
 110.4040012 121.8954997  97.7969988 109.4550012 121.4874997  98.2039988
 111.3590012 121.4634997  98.1659988 110.3030012 123.4094997  98.1739988
 110.8300012 124.2604997  97.5619988 109.6970012 123.5204997  99.3419988
 109.5740012 124.7664997 100.0219988 110.2790012 124.8464997 100.8779988
 109.7320012 125.5854997  99.2879988 108.1520012 124.9924997 100.6449988
 108.0330012 126.0804997 100.8329988 108.0160012 124.1194997 101.8629988
 108.9120012 124.2504997 102.5079988 107.2090012 124.5704997 102.4789988
 107.8460012 122.7854997 101.6499988 108.5320012 121.6194997 102.5289988
 107.8600012 120.2084997 101.9529988 107.8570012 120.0564997 100.5419988
 108.6980012 120.5594997 100.0189988 107.8050012 119.0004997 100.1999988
 106.4640012 120.6174997 100.0919988 106.4920012 121.6674997 100.3439988
 106.5390012 120.4584997  99.0259988 105.2590012 119.9364997 100.6609988
 105.0340012 120.1944997 102.0789988 104.1310012 119.6414997 102.2929988
 105.8950012 119.9844997 102.6959988 104.6850012 121.1924997 102.2999988
 104.0230012 120.4604997  99.9109988 104.1200012 120.2824997  98.8499988
 103.1620012 119.8864997 100.2189988 103.9440012 121.5084997 100.1569988
 105.3080012 118.4034997 100.4899988 106.2400012 118.0504997 100.9079988
 105.1120012 118.2164997  99.4449988 104.4690012 117.9704997 101.0149988
 110.0010012 121.7024997 102.3399988 108.1130012 121.7494997 103.9359988
 107.1830012 124.6394997  99.6709988 107.1460012 125.3474997  98.5369988
 107.8050012 126.3694997  98.3259988 106.2140012 124.8044997  97.5209988
 106.8620012 124.3814997  96.7239988 105.6460012 125.6714997  97.1209988
 105.3660012 123.6224997  97.9589988 104.8250012 124.0784997  98.8149988
 105.9130012 122.7334997  98.3389988 104.3690012 123.1504997  96.8719988
 103.9440012 124.0444997  96.3669988 103.5040012 122.7574997  97.4489988
 104.9780012 122.2244997  95.8349988 105.2900012 121.2824997  96.3339988
 105.9160012 122.5334997  95.3259988 103.9780012 121.7944997  94.7859988
 103.0530012 121.4184997  95.2749988 104.4220012 121.0624997  94.0789988
 103.7540012 122.9214997  93.7849988 104.6340012 123.5874997  93.6589988
 102.9400012 123.5474997  94.2089988 103.5030012 122.2764997  92.4689988
 102.6460012 121.5904997  92.6389988 104.2960012 121.5614997  92.1609988
 103.0470012 123.2334997  91.3799988 102.6270012 124.2154997  91.6439988
 103.2360012 123.1434997  90.0599988 102.6770012 123.8454997  89.4239988
 103.9480012 122.0144997  89.3669988 103.2850012 121.1754997  89.0629988
 104.7110012 121.5514997  90.0299988 104.7130012 122.4804997  88.0479988
 105.3370012 121.5824997  87.8529988 105.4200012 123.3214997  88.2129988
 103.7600012 122.9434997  86.9299988 103.3520012 123.9284997  87.2409988
 102.9460012 122.1934997  86.8279988 104.5760012 123.1274997  85.6879988
 105.0630012 122.1914997  85.3409988 105.3110012 123.9564997  85.7739988
 103.6150012 123.5864997  84.5929988 103.2140012 124.6104997  84.7489988
 102.7020012 122.9584997  84.5119988 104.2160012 123.4464997  83.1819988
 103.4160012 123.4874997  82.4109988 104.8360012 122.5274997  83.1229988
 105.0990012 124.5434997  82.6979988 106.0440012 124.5854997  83.2799988
 104.6250012 125.5304997  82.8849988 105.5890012 124.5494997  81.2089988
 104.8440012 125.0794997  80.5769988 105.6220012 123.4674997  80.9609988
 106.6130012 124.9804997  81.2069988  17.7260012  48.2434997  82.7859988
  17.5590012  48.2634997  81.6879988  18.5570012  47.5884997  83.1239988
  17.8760012  49.2824997  83.1519988  16.5140012  47.7984997  83.6269988
  15.7050012  48.5124997  83.3669988  16.2560012  46.7724997  83.2859988
  16.9580012  47.8734997  85.0859988  17.4760012  46.9534997  85.4349988
  17.6870012  48.6954997  85.2539988  15.7190012  47.9104997  86.0579988
  16.1980012  47.8754997  87.0599988  15.4760012  48.9874997  85.9289988
  14.6920012  46.8234997  85.8589988  14.1930012  47.0134997  84.8849988
  15.1730012  45.8244997  85.7879988  13.4980012  46.8024997  86.7709988
  12.9450012  47.7464997  86.5769988  12.8330012  45.9384997  86.5529988
  13.9260012  46.8914997  88.2889988  14.6870012  46.1584997  88.6309988
  14.4370012  47.8784997  88.3139988  12.7220012  46.9734997  89.2279988
  11.9130012  47.6954997  88.9849988  12.2820012  45.9574997  89.3169988
  13.1350012  47.4724997  90.6129988  13.5080012  48.5174997  90.5699988
  12.2050012  47.4644997  91.2209988  14.0740012  46.6134997  91.4659988
  13.5560012  45.6514997  91.6689988  14.9670012  46.2924997  90.8889988
  14.3540012  47.3864997  92.7239988  14.7310012  48.4274997  92.6339988
  13.4230012  47.3754997  93.3299988  15.5490012  46.6404997  93.4299988
  15.3160012  45.5594997  93.5349988  16.5230012  46.8404997  92.9349988
  15.7950012  47.1864997  94.8749988  16.7810012  46.7714997  95.1719988
  15.9990012  48.2744997  94.7829988  14.7640012  47.0394997  96.0109988
  13.7940012  47.3814997  95.5919988  14.6690012  45.9394997  96.1299988
  15.0880012  47.7754997  97.4389988  15.9930012  47.3304997  97.9049988
  15.3300012  48.8574997  97.3759988  13.8790012  47.5764997  98.3619988
  12.7510012  47.5944997  98.0109988  14.3300012  47.2014997  99.5979988
  13.2560012  46.5784997 100.3929988  13.5480012  46.6524997 101.4629988
  12.2140012  46.8034997 100.0829988  13.2690012  44.9534997 100.3169988
  12.3720012  44.6654997 100.9049988  14.6040012  44.4494997 100.9069988
  14.8830012  44.9484997 101.8599988  14.4100012  43.4084997 101.2429988
  15.6930012  44.5524997  99.9739988  16.9960012  43.7624997 100.3089988
  17.9770012  44.8264997 101.0059988  17.9090012  46.1754997 100.5629988
  18.8740012  46.7044997 100.7159988  17.7070012  46.2124997  99.4709988
  16.7570012  47.0084997 101.2959988  16.5170012  47.9084997 100.7499988
  15.8790012  46.3864997 101.2009988  17.0090012  47.3104997 102.7629988
  15.7640012  47.8104997 103.4049988  15.9160012  48.0144997 104.4539988
  15.4260012  48.6894997 102.8749988  14.9480012  47.1044997 103.3789988
  17.5920012  46.1534997 103.5099988  16.9010012  45.3264997 103.5729988
  18.4330012  45.6584997 103.0489988  17.8840012  46.4424997 104.5089988
  18.1200012  48.4074997 102.8959988  19.0110012  48.1334997 102.3499988
  18.2870012  48.3964997 103.9629988  17.7140012  49.3514997 102.5649988
  16.7300012  42.7424997 101.3959988  17.6080012  43.3294997  99.0629988
  13.0580012  44.4934997  98.9379988  12.9950012  43.1884997  98.6999988
  12.9370012  42.3364997  99.5919988  13.2580012  42.9524997  97.2009988
  12.8040012  43.7524997  96.5779988  12.8330012  41.9714997  96.8989988
  14.7630012  42.6804997  96.9459988  15.2510012  42.2654997  97.8539988
  15.2970012  43.6164997  96.6739988  14.9260012  41.7724997  95.7479988
  14.4310012  42.0454997  94.7909988  14.3950012  40.8414997  96.0389988
  16.3900012  41.4434997  95.3269988  16.4220012  40.6044997  94.5999988
  17.0690012  41.1624997  96.1599988  17.0260012  42.7174997  94.7549988
  17.3050012  43.4204997  95.5689988  16.3140012  43.2174997  94.0649988
  18.2790012  42.4014997  93.9209988  19.1210012  42.0264997  94.5399988
  18.6470012  43.3724997  93.5259988  18.0310012  41.4984997  92.7089988
  17.2340012  42.0624997  92.1779988  17.5870012  40.5704997  93.1289988
  19.2000012  41.2134997  91.8949988  19.9440012  40.5604997  92.3739988
  19.3730012  41.6924997  90.6499988  20.2880012  41.4144997  90.1059988
  18.5230012  42.5904997  89.8149988  19.0470012  42.9324997  88.8969988
  18.1410012  43.5114997  90.3049988  17.3730012  41.6994997  89.1689988
  17.4090012  40.6014997  89.3339988  17.3940012  41.8274997  88.0659988
  16.0030012  42.2604997  89.5399988  15.9830012  43.3164997  89.1969988
  15.8850012  42.2864997  90.6449988  14.7410012  41.5674997  89.0119988
  13.7910012  42.0294997  89.3549988  14.8350012  40.5154997  89.3589988
  14.7080012  41.4834997  87.4619988  13.6470012  41.2154997  87.2699988
  15.4510012  40.7694997  87.0459988  15.0420012  42.8064997  86.6669988
  15.9150012  43.3154997  87.1279988  14.1220012  43.4254997  86.7329988
  15.3570012  42.5334997  85.2139988  16.1250012  41.7494997  85.0409988
  15.7760012  43.5204997  84.9229988  14.0800012  42.1274997  84.4359988
  14.1690012  42.2344997  83.3339988  13.1310012  42.5694997  84.8089988
  13.9980012  41.0344997  84.6179988 135.6450012  58.0334997  83.9389988
 136.4240012  58.7004997  84.3679988 135.1620012  58.5044997  83.0569988
 136.1090012  57.0624997  83.6639988 134.6540012  57.8584997  85.0709988
 133.9100012  57.0544997  84.8829988 135.2230012  57.6024997  85.9909988
 133.8660012  59.1884997  85.3099988 133.4170012  59.5814997  84.3729988
 133.0060012  59.0274997  85.9949988 134.6330012  60.3754997  85.8519988
 135.4700012  60.5534997  85.1429988 133.9600012  61.2144997  85.5739988
 135.1300012  60.2394997  87.2959988 135.3930012  59.1784997  87.4939988
 135.9490012  60.9704997  87.4599988 134.1340012  60.6834997  88.3579988
 134.0010012  61.7614997  88.5919988 133.1460012  60.3384997  87.9859988
 134.2290012  59.9394997  89.7219988 133.3370012  60.2214997  90.3199988
 133.9740012  58.8644997  89.6069988 135.4710012  60.1254997  90.5059988
 136.2080012  59.6104997  89.8539988 135.9320012  61.1364997  90.4879988
 135.6320012  59.4864997  91.8699988 135.1410012  58.4894997  91.8749988
 136.7150012  59.4734997  92.1159988 135.1440012  60.4564997  92.9499988
 135.8610012  61.3004997  92.8599988 134.1610012  60.8914997  92.6669988
 135.2590012  59.9344997  94.4039988 134.4850012  59.1724997  94.6399988
 136.2720012  59.5194997  94.5959988 135.0670012  61.0544997  95.4679988
 135.9260012  61.7564997  95.5309988 134.1920012  61.6064997  95.0629988
 135.0130012  60.4454997  96.9189988 134.3350012  59.5644997  96.9409988
 135.9580012  60.0374997  97.3359988 134.5090012  61.4194997  97.9849988
 135.0580012  62.3824997  97.9059988 133.4570012  61.7544997  97.8619988
 134.6840012  61.0034997  99.4449988 135.4730012  60.2384997  99.6079988
 134.9430012  61.9964997  99.8719988 133.3420012  60.5154997  99.9739988
 132.3490012  60.2164997  99.2939988 133.4410012  60.3754997 101.2899988
 132.3490012  59.6844997 101.9509988 132.3520012  60.2114997 102.9289988
 131.3440012  59.6574997 101.4779988 132.8060012  58.1504997 102.2259988
 131.9090012  57.6704997 102.6729988 133.8210012  58.1044997 103.3599988
 133.5870012  58.9634997 104.0239988 133.7080012  57.2284997 104.0339988
 135.1230012  58.1294997 102.7409988 136.4320012  57.9044997 103.5999988
 137.5350012  57.3874997 102.5049988 137.9100012  58.1614997 101.4189988
 137.0900012  58.7724997 100.9859988 138.4730012  58.9914997 101.8979988
 138.7320012  57.4584997 100.3569988 139.3660012  58.0994997  99.7629988
 139.4520012  56.8934997 100.9289988 138.0660012  56.5144997  99.4429988
 137.3770012  57.2444997  98.3579988 136.6600012  57.9354997  98.7759988
 138.0690012  57.9084997  97.8629988 136.9220012  56.6234997  97.5999988
 139.0700012  55.6634997  98.8389988 139.8240012  55.4474997  99.5819988
 138.5390012  54.8024997  98.4609988 139.5810012  56.1874997  98.0449988
 137.0710012  55.6564997 100.2469988 136.2920012  56.2394997 100.7159988
 137.6730012  55.0814997 100.9349988 136.4120012  55.0384997  99.6559988
 136.7850012  59.2634997 104.0729988 136.2200012  56.8634997 104.5989988
 133.3100012  57.5944997 100.9859988 133.1940012  56.3084997 100.8849988
 132.8940012  55.4784997 101.7839988 133.4510012  55.9584997  99.4709988
 134.2140012  56.5904997  98.9679988 132.5180012  56.1834997  98.9119988
 133.6610012  54.4804997  99.1269988 132.7440012  53.9044997  99.3749988
 134.5970012  54.1494997  99.6259988 133.7060012  54.3164997  97.5869988
 132.6800012  54.5664997  97.2429988 133.8390012  53.2574997  97.2779988
 134.8710012  55.0824997  96.8499988 135.8750012  54.8454997  97.2629988
 134.7910012  56.1914997  96.8499988 134.8650012  54.7464997  95.3309988
 133.8000012  54.6694997  95.0239988 135.3190012  53.7414997  95.1969988
 135.5610012  55.7074997  94.3999988 135.1650012  56.7384997  94.5159988
 135.2960012  55.4464997  93.3529988 137.0860012  55.7254997  94.5889988
 137.4980012  54.7284997  94.3259988 137.4150012  55.7554997  95.6499988
 137.7030012  56.7114997  93.6829988 137.7400012  57.7764997  93.9539988
 138.1370012  56.3874997  92.3999988 138.5250012  57.2244997  91.8009988
 138.1050012  55.0574997  91.7119988 137.3340012  54.3424997  92.0709988
 139.0580012  54.4894997  91.7819988 137.7890012  54.9994997  90.1789988
 137.8580012  53.9554997  89.8059988 138.5380012  55.4974997  89.5269988
 136.3650012  55.4674997  89.8499988 136.3340012  55.6334997  88.7519988
 136.0660012  56.3264997  90.4879988 135.1790012  54.4684997  89.9839988
 134.1990012  54.9294997  89.7369988 135.0830012  54.1164997  91.0329988
 135.2680012  53.2854997  88.9159988 134.4310012  52.5724997  89.0729988
 136.1460012  52.6494997  89.1599988 135.1700012  53.7384997  87.4429988
 136.0570012  54.3234997  87.1189988 134.3050012  54.4344997  87.4089988
 134.8730012  52.6634997  86.3979988 133.9180012  52.1064997  86.5019988
 135.6620012  51.8984997  86.5609988 135.1030012  53.0514997  84.9469988
 134.8120012  52.2904997  84.1909988 136.2030012  53.1714997  84.8529988
 134.4810012  53.9404997  84.7089988  17.5990012 132.2404997  83.4789988
  18.1040012 133.2204997  83.6209988  16.7940012 132.3154997  82.7169988
  18.3800012 131.5834997  83.0409988  17.1020012 131.7904997  84.7879988
  16.3030012 132.4494997  85.1889988  16.5880012 130.8064997  84.7699988
  18.1860012 131.6524997  85.9059988  19.1240012 131.2794997  85.4409988
  18.3920012 132.6574997  86.3329988  17.7660012 130.6984997  87.0519988
  17.0030012 131.2144997  87.6729988  17.2770012 129.7834997  86.6539988
  18.9460012 130.3324997  87.9339988  19.5980012 129.5874997  87.4289988
  19.4850012 131.3044997  87.9289988  18.4770012 129.9134997  89.3269988
  17.9160012 130.7704997  89.7559988  17.7490012 129.0754997  89.2969988
  19.5630012 129.6354997  90.4099988  20.4710012 130.2354997  90.1879988
  19.1730012 129.8524997  91.4269988  20.0850012 128.1944997  90.4139988
  19.3190012 127.4644997  90.7509988  20.2120012 127.8184997  89.3759988
  21.3740012 128.0564997  91.1909988  22.2130012 128.2224997  90.4809988
  21.2620012 128.8954997  91.9119988  21.5670012 126.7114997  91.9849988
  21.3260012 125.9174997  91.2459988  22.6170012 126.5254997  92.2959988
  20.5780012 126.5714997  93.2229988  19.6130012 127.0904997  93.0379988
  20.4560012 125.4684997  93.2599988  21.2440012 127.0094997  94.5629988
  20.5040012 126.6834997  95.3249988  22.1740012 126.4284997  94.7369988
  21.5090012 128.5174997  94.5039988  22.3710012 128.7924997  93.8599988
  20.6800012 129.1304997  94.0909988  21.8060012 128.9854997  95.8839988
  20.9140012 128.8634997  96.5349988  22.6530012 128.3674997  96.2509988
  22.1610012 130.5264997  95.7759988  22.7010012 130.7414997  96.7229988
  22.8170012 130.6774997  94.8919988  20.9020012 131.4594997  95.7079988
  20.5930012 132.1384997  94.7279988  20.3500012 131.5164997  96.9279988
  19.1330012 132.2454997  97.0369988  19.2470012 133.0364997  97.8079988
  18.8500012 132.7394997  96.0829988  18.0110012 131.2964997  97.4729988
  16.9890012 131.7314997  97.4909988  18.2010012 130.7404997  98.9629988
  18.1520012 131.5094997  99.7639988  17.3620012 130.0684997  99.2459988
  19.4830012 130.2024997  99.1669988  19.7070012 128.6504997  99.2689988
  19.1590012 128.3984997 100.7719988  19.6440012 129.2974997 101.7689988
  20.7500012 129.2754997 101.8769988  19.2910012 130.3404997 101.6259988
  19.0320012 128.9794997 103.1239988  19.6120012 129.4244997 103.9189988
  18.0830012 129.4964997 103.1199988  18.7750012 127.5054997 103.5189988
  18.3200012 127.6084997 105.0219988  17.9520012 126.6324997 105.3009988
  19.1920012 127.8354997 105.6179988  17.5190012 128.3244997 105.1349988
  17.6150012 126.9404997 102.7489988  16.7810012 127.5864997 102.9779988
  17.7030012 126.8204997 101.6789988  17.3130012 125.9484997 103.0499988
  20.0950012 126.7424997 103.3159988  20.8860012 127.2434997 103.8529988
  20.3360012 126.6184997 102.2699988  20.0190012 125.8004997 103.8389988
  18.8570012 127.9384997  98.2919988  21.1450012 128.3704997  99.1829988
  17.8730012 130.1414997  96.6449988  17.3900012 130.3354997  95.3789988
  17.2190012 131.3794997  94.8249988  17.0420012 128.9844997  94.7229988
  17.9640012 128.5154997  94.3159988  16.2810012 129.1774997  93.9369988
  16.3400012 128.0584997  95.7999988  15.3330012 128.4324997  96.0799988
  16.6950012 128.1124997  96.8509988  16.2210012 126.6024997  95.2359988
  15.7500012 126.6534997  94.2309988  15.5470012 126.0294997  95.9079988
  17.5650012 125.9664997  95.0689988  18.2230012 126.1934997  95.9349988
  18.0180012 126.3284997  94.1209988  17.5630012 124.4334997  94.9619988
  17.1660012 124.0904997  95.9419988  18.5990012 124.1604997  94.6709988
  16.7030012 123.9284997  93.7799988  15.7000012 124.2514997  94.1289988
  16.6400012 122.8204997  93.7269988  16.9060012 124.5194997  92.4009988
  17.9790012 124.4034997  92.1369988  17.0190012 125.6244997  92.3999988
  15.9260012 124.3154997  91.3029988  14.8600012 124.5064997  91.4979988
  16.2550012 123.6754997  90.0829988  15.4910012 123.3644997  89.3559988
  17.6100012 123.1604997  89.7229988  17.5750012 122.0624997  89.5609988
  18.4590012 123.4434997  90.3809988  18.0890012 123.7244997  88.3819988
  17.4280012 123.3384997  87.5769988  19.1020012 123.2784997  88.2849988
  18.1590012 125.2654997  88.3249988  18.4210012 125.6814997  89.3209988
  17.1470012 125.6564997  88.0849988  19.1820012 125.8864997  87.3369988
  20.1950012 125.4684997  87.5219988  19.2830012 126.9804997  87.5049988
  18.8710012 125.5994997  85.9399988  17.8310012 125.9754997  85.8269988
  18.8840012 124.4954997  85.8199988  19.8060012 126.1644997  84.8529988
  20.8700012 126.2154997  85.1679988  19.5510012 127.1984997  84.5359988
  19.8440012 125.3614997  83.5349988  19.9700012 124.2644997  83.6619988
  20.8190012 125.6874997  83.1139988  18.7660012 125.5944997  82.4849988
  18.9080012 124.8694997  81.6559988  18.8740012 126.6234997  82.0799988
  17.7650012 125.4154997  82.9309988  27.8640012 131.3524997  84.2169988
  28.2740012 130.3304997  84.0649988  28.7390012 132.0034997  84.4289988
  27.3850012 131.9004997  83.3779988  26.8760012 131.2044997  85.3359988
  25.9540012 130.7514997  84.9139988  27.2200012 130.4454997  86.0709988
  26.4010012 132.4804997  86.0709988  27.2080012 133.2214997  86.2579988
  25.9190012 133.0584997  85.2529988  25.4590012 132.3144997  87.2719988
  24.7000012 131.6184997  86.8549988  26.0910012 131.8984997  88.0849988
  24.8530012 133.5964997  87.6389988  25.5910012 134.3814997  87.9079988
  24.3120012 134.0034997  86.7579988  23.7860012 133.3704997  88.7439988
  23.1510012 134.2814997  88.7349988  23.2080012 132.4354997  88.5839988
  24.4800012 133.2864997  90.1399988  25.3320012 132.5754997  90.0849988
  24.7920012 134.3484997  90.2259988  23.5700012 132.9874997  91.3189988
  22.7280012 133.7074997  91.4089988  23.1190012 131.9804997  91.1849988
  24.2890012 132.8774997  92.6699988  23.6710012 132.2844997  93.3779988
  25.1940012 132.2684997  92.4619988  24.6050012 134.2474997  93.2609988
  25.1910012 134.7424997  92.4589988  23.6900012 134.8574997  93.4209988
  25.4710012 134.2154997  94.5069988  26.4440012 133.7014997  94.3579988
  25.6290012 135.3064997  94.6449988  24.9430012 133.6274997  95.7679988
  25.0150012 132.5264997  95.6389988  25.5780012 133.9474997  96.6209988
  23.5380012 134.0254997  96.2709988  23.5480012 134.1604997  97.3739988
  23.3680012 134.9994997  95.7639988  22.3950012 133.0624997  96.0429988
  21.4380012 133.6134997  96.1709988  22.3700012 132.4544997  95.1129988
  22.2970012 131.9164997  97.0879988  22.3380012 132.3454997  98.1119988
  21.4030012 131.2804997  96.9139988  23.3850012 130.8714997  96.8399988
  23.5620012 130.1944997  95.7789988  23.8980012 130.6944997  98.0289988
  24.5810012 129.4364997  98.3449988  24.0240012 128.7454997  99.0129988
  24.5630012 128.7824997  97.4469988  26.0830012 129.5204997  98.7269988
  26.5650012 128.5754997  99.0549988  26.1970012 130.4814997  99.9679988
  25.4580012 130.2004997 100.7489988  27.2200012 130.4244997 100.3949988
  26.0490012 131.8314997  99.5189988  25.0500012 132.9004997 100.1809988
  25.8650012 133.2484997 101.5009988  27.0460012 134.0154997 101.2649988
  27.5020012 133.6484997 100.3199988  26.7250012 135.0694997 101.1169988
  28.0190012 133.9954997 102.4629988  28.7000012 134.8134997 102.2819988
  27.4880012 134.2674997 103.3639988  28.7700012 132.6274997 102.7549988
  27.7840012 131.5644997 103.1979988  28.4240012 130.7724997 103.5559988
  27.1010012 131.9704997 103.9299988  27.2040012 131.2194997 102.3549988
  29.5410012 132.2024997 101.5769988  28.9240012 132.2304997 100.6909988
  30.4110012 132.8284997 101.4439988  29.9440012 131.2474997 101.8829988
  29.7950012 132.8894997 103.8549988  30.0980012 131.9184997 104.2169988
  29.3860012 133.4504997 104.6819988  30.5330012 133.5734997 103.4619988
  24.9830012 134.1174997  99.2919988  23.8010012 132.2144997 100.5749988
  26.7950012 130.1064997  97.6719988  28.0700012 130.0874997  97.5999988
  28.8430012 129.3914997  98.2969988  28.4970012 131.2464997  96.6399988
  29.5970012 131.3174997  96.5079988  28.1960012 132.2164997  97.0899988
  27.9320012 131.3434997  95.2009988  28.0640012 132.3434997  94.7349988
  26.8380012 131.1604997  95.1269988  28.6710012 130.3834997  94.1889988
  28.4820012 129.2944997  94.3019988  29.7580012 130.5904997  94.2899988
  28.5700012 130.7374997  92.6389988  27.4990012 130.6704997  92.3509988
  29.0420012 129.9924997  91.9639988  29.2260012 132.0744997  92.2189988
  30.3280012 131.9464997  92.1579988  29.0300012 132.8184997  93.0199988
  28.6720012 132.6734997  90.8739988  27.5630012 132.6814997  90.9389988
  28.9760012 131.9294997  90.1069988  29.1950012 134.0954997  90.6099988
  29.1360012 134.5864997  91.6049988  28.5280012 134.5544997  89.8499988
  30.6370012 134.1824997  90.1619988  31.2920012 134.3424997  91.0319988
  31.1090012 134.3214997  88.8759988  32.1860012 134.2514997  88.6599988
  30.2730012 134.3544997  87.6189988  30.7230012 135.1584997  86.9979988
  29.2550012 134.7224997  87.8689988  30.1760012 132.9574997  87.0519988
  29.8890012 133.1384997  85.9949988  29.3970012 132.3184997  87.5199988
  31.5490012 132.1484997  86.8519988  31.8770012 131.8204997  87.8619988
  32.2350012 132.9134997  86.4289988  31.4260012 130.8904997  85.9729988
  32.3510012 130.3924997  85.6119988  30.8890012 131.1614997  85.0389988
  30.4280012 129.8864997  86.7409988  29.4310012 130.3444997  86.9149988
  30.8890012 129.7384997  87.7409988  30.1940012 128.6664997  85.9229988
  31.0620012 128.2414997  85.3759988  29.3280012 128.8874997  85.2629988
  29.7210012 127.4324997  86.8069988  28.9500012 127.7314997  87.5489988
  30.4700012 127.0584997  87.5369988  29.2140012 126.2364997  85.9819988
  28.5820012 125.5724997  86.6099988  30.0490012 125.5194997  85.8289988
  28.5730012 126.5374997  85.1259988   5.2390012 109.7714997  81.9099988
   6.1420012 109.2244997  82.2529988   5.5460012 110.6634997  81.3219988
   4.6350012 109.0464997  81.3229988   4.4510012 110.0164997  83.2429988
   4.2330012 109.0554997  83.7549988   5.2190012 110.5184997  83.8709988
   3.1330012 110.8084997  83.0929988   3.4020012 111.8044997  82.6809988
   2.4820012 110.2354997  82.3969988   2.1820012 110.8844997  84.3049988
   1.4780012 111.7414997  84.2399988   1.5860012 109.9684997  84.5019988
   2.8770012 110.9574997  85.7319988   3.6720012 110.1814997  85.7319988
   3.3770012 111.9484997  85.7859988   1.9930012 110.7844997  86.9229988
   1.3940012 111.7084997  87.0779988   1.2880012 109.9324997  87.0329988
   2.7970012 110.4674997  88.1839988   3.0640012 109.3914997  88.1189988
   3.6660012 111.1564997  88.2479988   2.0400012 110.7444997  89.5159988
   1.6820012 111.7954997  89.5079988   1.1840012 110.0354997  89.5209988
   2.7930012 110.3634997  90.8059988   3.0620012 109.3014997  90.6209988
   3.7320012 110.9554997  90.8409988   1.9940012 110.5424997  92.0969988
   1.0070012 110.0934997  91.8539988   2.4060012 110.1454997  93.0499988
   1.7760012 111.9494997  92.4759988   2.6900012 112.4654997  92.8409988
   1.4440012 112.5354997  91.5919988   0.6880012 112.1414997  93.5219988
   0.4310012 113.2164997  93.6379988  -0.2569988 111.6894997  93.1539988
   1.1220012 111.5794997  94.8269988   1.2590012 110.4824997  94.7099988
   2.1330012 111.9224997  95.1329988   0.1520012 111.8334997  95.9539988
   0.0620012 112.8594997  96.3699988  -0.8609988 111.6504997  95.5349988
   0.4900012 111.0864997  97.2569988   1.6000012 111.0624997  97.2949988
   0.0490012 111.5734997  98.1539988   0.0680012 109.5954997  97.2559988
  -0.4929988 108.9574997  96.3959988   0.2970012 109.2154997  98.4649988
  -0.3969988 108.0004997  98.9889988  -0.6829988 108.1934997 100.0449988
  -1.3199988 107.7804997  98.4099988   0.6070012 106.8854997  99.0559988
   0.0330012 106.0754997  99.5529988   1.7810012 107.1734997 100.0319988
   1.2470012 107.4374997 100.9699988   2.3900012 106.2754997 100.2749988
   2.6330012 108.2924997  99.5889988   3.9280012 108.6504997 100.3899988
   3.4410012 109.5614997 101.5869988   2.4950012 110.5874997 101.3549988
   2.7240012 111.2464997 100.4899988   1.5140012 110.0754997 101.2559988
   2.6870012 111.7204997 102.3599988   2.0940012 112.5774997 102.0769988
   2.3510012 111.4674997 103.3549988   4.1100012 112.2504997 102.5449988
   4.9410012 111.3574997 103.3819988   5.0170012 110.4584997 102.7889988
   5.9090012 111.8084997 103.5419988   4.3760012 111.1604997 104.2809988
   4.8080012 112.4434997 101.2349988   5.1020012 111.4324997 100.9949988
   4.1040012 112.8374997 100.5179988   5.6960012 113.0414997 101.3809988
   3.8950012 113.6064997 103.3099988   3.3580012 113.3744997 104.2169988
   3.1510012 114.2094997 102.8109988   4.8940012 114.0084997 103.3939988
   4.4330012 107.3764997 101.0429988   4.8390012 109.3774997  99.3839988
   0.9870012 106.5474997  97.7059988   1.5480012 105.3254997  97.5499988
   2.0590012 104.6734997  98.4709988   1.5760012 104.9214997  96.0229988
   0.6000012 104.9334997  95.4929988   2.0330012 103.9104997  95.9749988
   2.6080012 105.9774997  95.4469988   3.6200012 105.9024997  95.9009988
   2.3770012 107.0614997  95.5209988   2.8460012 105.7374997  93.9619988
   2.9080012 104.6314997  93.8739988   3.8000012 106.2334997  93.6809988
   1.6860012 106.2864997  93.1439988   1.5150012 107.3054997  93.5499988
   0.6920012 105.8604997  93.3979988   1.8780012 106.2944997  91.5269988
   2.8900012 106.7404997  91.4269988   1.2270012 107.0974997  91.1189988
   1.7510012 104.9374997  90.8219988   0.8130012 104.3994997  91.0789988
   2.5530012 104.2364997  91.1369988   1.8370012 105.0044997  89.2549988
   1.1490012 105.7564997  88.8129988   1.5400012 103.9674997  88.9869988
   3.2160012 105.2314997  88.6969988   3.9490012 104.7294997  89.3459988
   3.4730012 105.9264997  87.6449988   4.5430012 105.9844997  87.3979988
   2.5820012 106.7464997  86.7249988   3.1060012 107.5534997  86.1689988
   1.7260012 107.1794997  87.2849988   1.9720012 105.8534997  85.5989988
   1.4040012 104.9954997  86.0189988   2.8130012 105.4514997  84.9949988
   1.0210012 106.5764997  84.7269988   0.7500012 105.8804997  83.9049988
   1.5800012 107.4254997  84.2799988  -0.1609988 107.2484997  85.3929988
   0.2400012 108.1664997  85.8719988  -0.6749988 106.5844997  86.1199988
  -1.2539988 107.7694997  84.4359988  -1.9269988 108.2214997  85.1959988
  -1.7559988 106.8874997  83.9849988  -0.9809988 108.9214997  83.4469988
  -0.4199988 109.6804997  84.0329988  -1.9549988 109.3644997  83.1449988
  -0.2879988 108.4924997  82.1159988   0.5380012 107.7724997  82.2979988
   0.2150012 109.3904997  81.6989988  -1.2159988 107.9134997  81.0319988
  -0.6229988 107.5514997  80.1649988  -1.9959988 108.5814997  80.6089988
  -1.8499988 107.1144997  81.4739988  52.6490012   6.1964997  80.4649988
  52.4650012   6.5744997  79.4369988  52.2760012   6.9134997  81.2269988
  52.0820012   5.2414997  80.4849988  54.1280012   5.8434997  80.7259988
  54.1350012   4.9054997  81.3199988  54.7520012   5.7284997  79.8139988
  54.6680012   6.8414997  81.7379988  54.5230012   7.8184997  81.2309988
  54.0930012   6.9184997  82.6849988  56.2370012   6.7754997  81.8949988
  56.6160012   6.7294997  80.8519988  56.5400012   7.7294997  82.3769988
  56.8190012   5.5274997  82.6099988  56.6080012   4.6634997  81.9429988
  57.9260012   5.5224997  82.7109988  56.1830012   5.0494997  83.9689988
  55.1150012   4.7684997  83.8439988  56.8600012   4.2624997  84.3649988
  56.2030012   6.0294997  85.1559988  55.6510012   6.9174997  84.7809988
  55.6240012   5.6574997  86.0289988  57.5720012   6.3104997  85.8079988
  57.9260012   5.3864997  86.3129988  58.3380012   6.5144997  85.0299988
  57.6880012   7.4524997  86.8339988  58.6740012   7.8844997  86.5589988
  56.8520012   8.1774997  86.7349988  57.5960012   6.8934997  88.2809988
  58.1360012   5.9234997  88.3089988  58.1010012   7.5814997  88.9919988
  56.1660012   6.7144997  88.7069988  55.5720012   7.6314997  88.5069988
  55.6630012   5.8884997  88.1589988  55.8730012   6.4494997  90.1939988
  56.2210012   5.4064997  90.3589988  56.4670012   7.2234997  90.7239988
  54.3880012   6.6974997  90.5829988  54.0210012   7.7344997  90.4319988
  53.8570012   6.0964997  89.8139988  53.9340012   6.2524997  91.9699988
  52.8710012   6.5324997  92.1359988  53.9040012   5.1414997  91.9559988
  54.8110012   6.8254997  93.0459988  55.8540012   6.4664997  93.1789988
  54.9860012   7.9184997  92.9489988  54.0610012   6.7894997  94.3089988
  53.1090012   6.0824997  94.5639988  54.5210012   7.7474997  95.1189988
  53.9290012   7.8394997  96.4459988  53.0320012   8.4924997  96.3809988
  53.7080012   6.8114997  96.8039988  54.9160012   8.5184997  97.4699988
  55.8290012   7.8944997  97.5779988  54.1750012   8.6364997  98.8229988
  53.3790012   9.3984997  98.6799988  53.8080012   7.5994997  98.9739988
  55.0540012   9.0664997  99.8499988  54.8220012   8.6394997 101.3489988
  55.6070012   7.2824997 101.2999988  56.6480012   6.9664997 100.4169988
  56.3470012   6.1164997  99.7679988  56.8310012   7.8074997  99.7139988
  57.9730012   6.3904997 101.0839988  57.6520012   5.6094997 101.7569988
  58.5950012   5.8694997 100.3709988  58.8140012   7.3574997 101.9229988
  59.2820012   8.4794997 101.1099988  58.4730012   9.1904997 101.0299988
  60.1190012   9.0244997 101.5209988  59.6640012   8.1674997 100.1489988
  57.9660012   7.7664997 103.1249988  57.0150012   8.1874997 102.8359988
  57.8140012   6.9354997 103.7979988  58.6430012   8.4264997 103.6459988
  60.0790012   6.5264997 102.3279988  60.4530012   6.0634997 101.4269988
  59.7630012   5.7504997 103.0089988  60.9380012   7.0664997 102.6989988
  55.4570012   9.6864997 102.2139988  53.3360012   8.3754997 101.4809988
  55.3460012   9.7714997  96.9309988  56.5940012  10.1654997  97.2289988
  57.4400012   9.5254997  97.8839988  56.8420012  11.5214997  96.6069988
  56.7460012  12.2464997  97.4439988  56.0940012  11.6294997  95.7919988
  58.1600012  11.5994997  95.7979988  59.0290012  11.2664997  96.4049988
  58.3710012  12.6624997  95.5539988  58.1220012  10.7674997  94.5419988
  57.2680012  11.1974997  93.9749988  57.8120012   9.7644997  94.9059988
  59.3050012  10.6254997  93.5209988  60.2070012  10.4624997  94.1489988
  59.4860012  11.5514997  92.9339988  59.1660012   9.5734997  92.4279988
  59.2190012   8.5874997  92.9379988  59.9640012   9.4664997  91.6629988
  57.8620012   9.6964997  91.5769988  57.0010012   9.3384997  92.1819988
  58.0250012   8.8894997  90.8299988  57.6920012  11.0484997  90.9109988
  58.6650012  11.5134997  90.6419988  57.2640012  11.8144997  91.5929988
  56.6750012  10.6674997  89.8349988  55.6630012  10.5064997  90.2339988
  56.7830012  10.6494997  88.5139988  55.9460012  10.3094997  87.8859988
  58.0310012  11.0204997  87.7559988  58.3160012  10.1244997  87.1629988
  58.9190012  11.0844997  88.4199988  57.9980012  12.2324997  86.8339988
  59.0160012  12.2224997  86.3909988  58.0020012  13.1484997  87.4629988
  56.9080012  12.2984997  85.7919988  56.9470012  13.3184997  85.3509988
  55.9710012  12.1104997  86.3599988  57.0330012  11.4294997  84.5579988
  56.1170012  11.5174997  83.9359988  57.1800012  10.3544997  84.7979988
  58.2070012  11.9244997  83.7069988  59.1980012  11.4734997  83.9299988
  58.3570012  13.0184997  83.8269988  57.9820012  11.7144997  82.1589988
  58.7610012  12.2974997  81.6229988  57.0150012  12.2264997  81.9629988
  57.8330012  10.2784997  81.6789988  57.0070012   9.8644997  82.2959988
  58.7870012   9.7584997  81.9089988  57.2470012  10.0734997  80.2379988
  56.3070012  10.6624997  80.3019988  56.9930012   9.0274997  79.9619988
  57.8840012  10.5224997  79.4459988 116.7040012 114.8564997  83.3259988
 115.8400012 115.0874997  82.6659988 117.5220012 114.2024997  82.9569988
 117.0440012 115.8764997  83.6049988 116.1110012 114.1584997  84.5749988
 115.8690012 113.1174997  84.2699988 116.9250012 114.0684997  85.3239988
 115.0430012 114.9154997  85.3299988 115.4060012 115.8434997  85.8209988
 114.2460012 115.1334997  84.5869988 114.3490012 114.0864997  86.3789988
 113.4620012 114.5574997  86.8559988 114.0560012 113.2094997  85.7629988
 115.1750012 113.5734997  87.5689988 114.5510012 112.9624997  88.2549988
 116.0170012 112.9244997  87.2449988 115.8210012 114.7524997  88.2709988
 116.6350012 115.1504997  87.6289988 114.9030012 115.3634997  88.4059988
 116.3880012 114.3574997  89.6469988 115.5140012 114.0824997  90.2769988
 117.1790012 113.5814997  89.5629988 117.0520012 115.6334997  90.4109988
 117.8980012 115.9714997  89.7749988 116.3150012 116.4614997  90.4879988
 117.5880012 115.3164997  91.7149988 116.8480012 114.9694997  92.4669988
 118.1650012 114.3714997  91.6339988 118.5850012 116.3664997  92.2919988
 119.5310012 116.4404997  91.7139988 118.0410012 117.3344997  92.2589988
 118.9130012 116.1554997  93.8599988 119.5750012 115.2944997  94.0959988
 119.4250012 117.1084997  94.1119988 117.6030012 115.9484997  94.7669988
 116.8050012 116.6194997  94.3829988 117.1520012 114.9334997  94.8009988
 117.9180012 116.4454997  96.1769988 118.5330012 117.3654997  96.0849988
 117.0460012 116.6974997  96.8179988 118.8700012 115.4414997  96.9629988
 118.7040012 114.3774997  96.6879988 119.9310012 115.6174997  96.6839988
 118.6240012 115.6684997  98.4469988 117.6260012 115.6724997  98.9339988
 119.0860012 114.9644997  99.1719988 119.2900012 117.0884997  98.6409988
 120.4560012 117.2004997  98.9099988 118.3680012 118.0774997  98.6069988
 118.8710012 119.4034997  99.0049988 119.9320012 119.3854997  99.3349988
 118.8820012 120.0784997  98.1219988 118.0030012 120.0584997 100.1029988
 118.2970012 121.1134997 100.2879988 118.1800012 119.2574997 101.4739988
 119.1900012 118.7974997 101.5229988 118.0140012 120.0244997 102.2609988
 117.1640012 118.2944997 101.5629988 117.4760012 117.0324997 102.5219988
 116.1410012 116.1464997 102.3559988 114.9150012 116.6094997 102.7139988
 114.2920012 115.7364997 103.0049988 115.0030012 117.2484997 103.6189988
 114.0070012 117.3004997 101.6689988 112.9790012 117.2684997 101.9959988
 114.3220012 118.3334997 101.6769988 113.9190012 116.7024997 100.1789988
 115.1660012 116.8884997  99.3869988 115.9510012 116.2944997  99.8309988
 115.0700012 116.7674997  98.3189988 115.4280012 117.9164997  99.5899988
 113.5720012 115.2454997 100.1719988 113.5370012 114.7534997  99.2109988
 114.2200012 114.5884997 100.7339988 112.6080012 115.0214997 100.6039988
 112.6890012 117.4254997  99.6079988 112.5620012 117.1974997  98.5599988
 112.6480012 118.4974997  99.7339988 111.8600012 116.9494997 100.1099988
 118.6540012 116.3134997 102.0849988 117.5760012 117.5774997 103.9259988
 116.6740012 120.1024997  99.5969988 115.8810012 121.0364997 100.0429988
 116.1990012 121.9064997 100.8759988 114.4710012 120.8624997  99.4379988
 113.7470012 121.1194997 100.2399988 114.2680012 119.7924997  99.2189988
 114.2450012 121.5684997  98.0909988 114.8800012 122.4754997  98.0009988
 113.2230012 121.9534997  97.8859988 114.5200012 120.5944997  96.9049988
 113.8350012 119.7214997  96.8589988 115.4800012 120.0894997  97.1469988
 114.4650012 121.2224997  95.5089988 113.6120012 121.9254997  95.3919988
 114.2340012 120.3494997  94.8619988 115.7810012 121.7604997  94.9249988
 116.1430012 122.5984997  95.5579988 115.6240012 122.2004997  93.9169988
 116.8620012 120.7734997  94.7659988 116.5870012 120.0814997  93.9419988
 117.0600012 120.1574997  95.6689988 118.2310012 121.3724997  94.3839988
 118.8370012 121.4334997  95.3129988 118.1000012 122.4214997  94.0419988
 119.1320012 120.5384997  93.4609988 120.0050012 120.0204997  93.8829988
 118.8990012 120.4254997  92.1539988 119.4820012 119.7024997  91.5639988
 117.7620012 121.0204997  91.4179988 117.2900012 121.8494997  91.9869988
 116.9630012 120.2564997  91.2959988 117.8630012 121.6874997  90.0079988
 118.7170012 122.3944997  89.9399988 116.9020012 122.2334997  89.8949988
 118.0800012 120.6044997  88.9679988 117.1520012 119.9934997  88.9719988
 118.9510012 119.9794997  89.2599988 118.0910012 121.1364997  87.5409988
 118.9680012 121.7664997  87.2779988 117.2250012 121.8244997  87.4419988
 118.1190012 120.0024997  86.5479988 118.2820012 119.0204997  87.0429988
 118.8960012 120.1484997  85.7679988 116.6500012 120.0204997  85.9889988
 116.5440012 120.9534997  85.3949988 115.8810012 120.1164997  86.7849988
 116.2950012 118.6754997  85.3579988 115.9920012 117.9424997  86.1359988
 117.1320012 118.2974997  84.7339988 115.0350012 118.4974997  84.4019988
 114.1390012 118.7584997  85.0039988 115.0330012 117.4824997  83.9509988
 115.0840012 119.2594997  83.5949988  37.9670012  19.8894997  83.1009988
  38.3980012  19.0824997  82.4709988  37.1050012  19.5474997  83.7129988
  38.4810012  20.4514997  83.9099988  37.3870012  20.9474997  82.1239988
  37.1170012  21.7464997  82.8469988  38.1790012  21.3574997  81.4609988
  36.1530012  20.5794997  81.2259988  35.8110012  21.4894997  80.6879988
  36.5670012  19.8264997  80.5209988  34.9860012  19.9834997  82.0529988
  34.0820012  19.9254997  81.4099988  35.1950012  18.9644997  82.4429988
  34.4730012  20.9484997  83.1199988  35.2260012  20.9274997  83.9369988
  34.4890012  22.0054997  82.7789988  33.2250012  20.3234997  83.6939988
  32.3340012  20.5554997  83.0709988  33.2490012  19.2214997  83.8339988
  32.8970012  21.0814997  84.9749988  32.6670012  22.1484997  84.7689988
  32.0000012  20.5404997  85.3459988  33.9560012  20.9924997  86.1769988
  34.7860012  20.2744997  86.0029988  34.3690012  22.0174997  86.2879988
  33.3040012  20.6434997  87.5409988  32.6150012  21.4604997  87.8449988
  32.6830012  19.7274997  87.4459988  34.4850012  20.3564997  88.5509988
  35.1360012  19.5324997  88.1889988  34.9310012  21.3684997  88.6559988
  33.9590012  20.0614997  89.9069988  34.6480012  20.3934997  90.7119988
  32.9610012  20.5324997  90.0319988  33.6530012  18.4974997  90.0609988
  32.5830012  18.2824997  89.8519988  34.3590012  18.0554997  89.3249988
  34.2000012  17.9264997  91.3319988  34.2310012  16.8154997  91.3199988
  35.2690012  18.2054997  91.4439988  33.4180012  18.4204997  92.5389988
  34.0090012  18.2574997  93.4649988  33.3080012  19.5234997  92.4639988
  32.0750012  17.7574997  92.5849988  31.4700012  18.0184997  91.6909988
  32.2500012  16.6674997  92.4619988  31.2560012  17.7154997  93.9309988
  30.1090012  18.0464997  94.1139988  32.1590012  17.2404997  94.9169988
  31.6760012  17.2094997  96.2459988  30.5680012  17.2824997  96.2669988
  31.9180012  16.2204997  96.6899988  32.2730012  18.4904997  97.0699988
  33.3800012  18.4254997  97.0069988  32.0250012  18.3394997  98.5779988
  30.9280012  18.3644997  98.7539988  32.2670012  17.3134997  98.9299988
  32.8220012  19.2644997  99.2529988  32.1660012  20.4014997  99.9939988
  33.4240012  21.2394997 100.4629988  33.4880012  21.9544997 101.6979988
  34.2190012  22.7884997 101.6339988  32.5020012  22.4144997 101.9209988
  33.7280012  21.0784997 102.9289988  33.7410012  21.8034997 103.7289988
  32.9140012  20.3734997 103.0079988  35.0540012  20.3514997 102.9449988
  35.3940012  19.8194997 104.3469988  36.3750012  19.3684997 104.3829988
  35.3360012  20.6404997 105.0469988  34.7020012  19.0354997 104.6129988
  34.9590012  19.2224997 101.9459988  34.2250012  18.5024997 102.2759988
  34.9070012  19.4074997 100.8829988  35.8860012  18.6924997 102.1109988
  36.2000012  21.2404997 102.4809988  36.3690012  22.0924997 103.1229988
  35.9280012  21.6704997 101.5289988  37.1540012  20.7334997 102.4889988
  31.3220012  21.1614997  99.0369988  31.3780012  19.8144997 101.0879988
  31.6220012  19.6654997  96.5919988  32.2470012  20.4274997  95.8509988
  33.4300012  20.3424997  95.5779988  31.3030012  21.4884997  95.2889988
  31.5300012  22.4354997  95.8229988  30.2750012  21.1234997  95.5009988
  31.4450012  21.7594997  93.7709988  32.3810012  21.3334997  93.3489988
  31.7140012  22.8354997  93.7029988  30.2720012  21.4814997  92.8749988
  29.4130012  21.9394997  93.4089988  30.1730012  20.3834997  92.7399988
  30.3570012  22.1354997  91.3979988  31.2970012  21.7274997  90.9669988
  30.5760012  23.2144997  91.5459988  29.1260012  21.7474997  90.4829988
  29.1980012  22.2174997  89.4789988  28.2140012  22.1764997  90.9499988
  28.7960012  20.2244997  90.3429988  27.7660012  20.1854997  89.9289988
  28.8080012  19.7684997  91.3559988  29.8170012  19.4864997  89.4799988
  30.8700012  19.6114997  89.8119988  29.8480012  19.9124997  88.4539988
  29.5590012  18.0414997  89.4229988  29.9750012  17.3824997  90.1989988
  28.9850012  17.3994997  88.3669988  28.7970012  16.3194997  88.4549988
  28.4890012  18.1664997  87.1159988  28.1680012  19.1944997  87.3869988
  27.5870012  17.6334997  86.7469988  29.5310012  18.2824997  85.9919988
  30.0650012  17.3184997  85.8529988  30.3090012  19.0024997  86.3239988
  29.0500012  18.5734997  84.6169988  28.5270012  17.6844997  84.2039988
  29.9820012  18.7764997  84.0469988  28.0890012  19.8284997  84.4879988
  28.4860012  20.6994997  85.0529988  27.2270012  19.3234997  84.9739988
  27.5990012  20.3734997  83.0759988  26.7860012  21.1164997  83.2249988
  27.3910012  19.4014997  82.5809988  28.6780012  21.0694997  82.2489988
  29.2920012  21.6694997  82.9539988  28.2290012  21.7644997  81.5079988
  29.6930012  20.1074997  81.4929988  29.0760012  19.2794997  81.0819988
  30.4040012  19.7144997  82.2499988  30.6080012  20.7524997  80.5439988
  31.2330012  21.5324997  81.0289988  30.1030012  21.2144997  79.6689988
  31.3130012  19.9764997  80.1779988  65.0110012 136.8754997  85.4979988
  64.3140012 136.2654997  84.8839988  64.3660012 137.5724997  86.0739988
  65.6310012 136.2174997  86.1439988  65.9520012 137.7634997  84.6409988
  66.1830012 137.2394997  83.6889988  65.3040012 138.6344997  84.4049988
  67.2310012 138.1884997  85.3439988  67.8310012 137.2964997  85.6219988
  67.7980012 138.6864997  84.5289988  66.9070012 139.1144997  86.5369988
  66.2510012 139.9754997  86.2849988  66.3980012 138.4404997  87.2589988
  68.1420012 139.5904997  87.1679988  68.8050012 138.8514997  87.6669988
  68.6010012 140.0404997  86.2619988  67.9810012 140.8684997  88.0299988
  68.9730012 141.3104997  88.2619988  67.5080012 141.6164997  87.3589988
  67.2240012 140.5494997  89.3189988  66.2460012 140.0634997  89.1149988
  67.8300012 139.8284997  89.9079988  66.9730012 141.8074997  90.1669988
  67.9330012 142.0324997  90.6789988  66.7190012 142.6764997  89.5239988
  66.1420012 141.6234997  91.4289988  66.3330012 140.6124997  91.8499988
  66.3020012 142.5104997  92.0779988  64.6120012 141.5764997  91.2359988
  64.2550012 142.5754997  90.9049988  64.3950012 140.8304997  90.4419988
  63.9010012 141.1044997  92.5209988  62.8230012 141.1144997  92.2499988
  64.2200012 140.0584997  92.7129988  64.1710012 141.9894997  93.8219988
  65.2350012 141.9204997  94.1349988  64.0490012 142.9904997  93.3549988
  63.2310012 141.8324997  94.9449988  63.4310012 142.5174997  95.7959988
  62.1860012 142.0544997  94.6389988  63.2250012 140.3094997  95.3429988
  62.8150012 139.6094997  94.5849988  64.2160012 139.9564997  95.6999988
  62.2710012 140.1134997  96.6069988  62.5330012 140.8144997  97.4279988
  61.2610012 140.5194997  96.3879988  62.2370012 138.6834997  97.0859988
  61.3900012 138.1334997  97.8099988  63.3240012 138.0344997  96.6319988
  63.4840012 136.6074997  96.9159988  62.6390012 136.1424997  97.4689988
  63.6230012 135.9974997  95.9979988  64.8430012 136.4504997  97.7659988
  64.7740012 135.3544997  97.9389988  65.0630012 137.2814997  99.0029988
  64.1770012 137.1304997  99.6559988  65.9930012 136.9844997  99.5349988
  65.2310012 138.6164997  98.5399988  65.2060012 139.8284997  99.5799988
  65.6680012 139.2274997 101.0139988  65.5860012 140.0064997 102.1529988
  66.5480012 140.4914997 102.4249988  64.8170012 140.8054997 102.0979988
  65.2610012 139.0714997 103.4129988  66.1760012 139.0604997 103.9869988
  64.6110012 139.7174997 103.9849988  64.6710012 137.7004997 103.1759988
  63.3130012 137.8574997 102.5549988  62.9740012 136.8994997 102.1919988
  62.6630012 138.3634997 103.2539988  63.4320012 138.4614997 101.6679988
  65.4580012 136.6684997 102.3949988  66.4080012 136.3764997 102.8189988
  64.8810012 135.7584997 102.3239988  65.4800012 137.0894997 101.4009988
  64.5480012 137.1114997 104.5589988  64.2760012 136.0664997 104.5389988
  63.9900012 137.7444997 105.2319988  65.5240012 137.0774997 105.0199988
  66.1860012 140.8714997  99.1379988  63.8750012 140.4464997  99.6569988
  65.9220012 136.6844997  96.8539988  67.0930012 136.1054997  97.0429988
  67.3630012 135.4664997  97.9979988  68.0240012 136.4294997  95.8579988
  68.8560012 135.6954997  95.8139988  68.3000012 137.5044997  95.9229988
  67.2290012 136.1864997  94.4819988  66.5070012 137.0144997  94.3219988
  66.7690012 135.1754997  94.4709988  68.2080012 136.0184997  93.3129988
  68.8560012 135.1724997  93.6259988  68.8150012 136.8834997  92.9689988
  67.5050012 135.7114997  91.9299988  66.6670012 134.9924997  92.0479988
  68.2780012 135.2804997  91.2579988  66.9220012 136.9304997  91.2229988
  67.7430012 137.6594997  91.0539988  66.2530012 137.4164997  91.9659988
  66.2510012 136.7244997  89.8459988  66.9840012 136.2024997  89.1949988
  66.0140012 137.6974997  89.3639988  65.0720012 135.7394997  89.8529988
  65.5150012 134.7524997  90.1079988  64.6850012 135.5624997  88.8269988
  63.9920012 136.1304997  90.9049988  64.3350012 136.0504997  91.9469988
  62.8080012 136.6214997  90.5369988  62.1000012 136.8714997  91.3419988
  62.2560012 136.9674997  89.1329988  61.1560012 137.0944997  89.2199988
  62.4280012 136.1424997  88.4099988  62.5630012 138.3534997  88.6249988
  63.6540012 138.4234997  88.4269988  62.2050012 139.1544997  89.3069988
  61.9380012 138.6714997  87.1739988  60.8450012 138.6164997  87.3649988
  62.1320012 137.7844997  86.5339988  62.3000012 140.0644997  86.6099988
  63.3240012 140.3734997  86.9089988  61.5950012 140.8424997  86.9739988
  62.3430012 140.0314997  85.0359988  61.4300012 139.5564997  84.6189988
  63.1880012 139.4414997  84.6209988  62.5540012 141.4134997  84.3559988
  63.4860012 141.9094997  84.7029988  61.6580012 142.0414997  84.5469988
  62.7280012 141.3154997  82.7819988  62.5690012 142.3734997  82.4829988
  61.8970012 140.6764997  82.4149988  64.0160012 140.6784997  82.2829988
  64.0650012 140.7504997  81.1749988  64.0970012 139.6124997  82.5849988
  64.9440012 141.2394997  82.5239988  92.9320012 130.0414997  82.5049988
  92.5080012 130.3964997  83.4689988  92.1940012 129.3144997  82.1049988
  92.8840012 130.9944997  81.9359988  94.3640012 129.6184997  82.5309988
  94.4280012 128.7304997  83.1949988  94.7670012 129.2904997  81.5489988
  95.3650012 130.7434997  83.0059988  96.3790012 130.2974997  82.9189988
  95.3200012 131.6594997  82.3799988  95.1860012 131.0434997  84.4729988
  94.7020012 130.1894997  84.9939988  96.1820012 131.1714997  84.9469988
  94.5080012 132.4124997  84.7239988  95.2430012 133.1704997  84.3779988
  93.5840012 132.5624997  84.1269988  94.1800012 132.7464997  86.1599988
  93.7790012 131.8174997  86.6179988  95.1350012 132.8624997  86.7149988
  93.2530012 133.9364997  86.3749988  93.5600012 134.6774997  85.6069988
  92.2640012 133.5244997  86.0829988  93.2470012 134.4814997  87.7649988
  94.2820012 134.5474997  88.1639988  92.8560012 135.5164997  87.6609988
  92.3420012 133.5664997  88.7579988  91.3650012 133.3524997  88.2739988
  92.7800012 132.5524997  88.8739988  92.1280012 134.2364997  90.1309988
  93.1390012 134.6654997  90.2929988  91.3590012 135.0324997  90.0289988
  91.6290012 133.2194997  91.1509988  90.5190012 133.1964997  91.1379988
  92.1710012 132.2684997  90.9549988  91.9300012 133.5194997  92.6149988
  93.0260012 133.5084997  92.7959988  91.5740012 134.5494997  92.8309988
  91.1730012 132.4894997  93.5369988  90.1250012 132.8494997  93.4589988
  91.2920012 131.4614997  93.1329988  91.6900012 132.3634997  94.9649988
  91.0300012 131.6924997  95.5549988  92.7120012 131.9274997  94.9489988
  91.6170012 133.7434997  95.6809988  92.5320012 134.3624997  95.5559988
  90.8740012 134.3524997  95.1229988  91.1650012 133.5924997  97.1939988
  90.0820012 133.8304997  97.6649988  92.2180012 133.0454997  97.8769988
  92.1540012 132.9734997  99.3169988  93.1740012 133.2694997  99.6439988
  91.5170012 133.7854997  99.7279988  91.6590012 131.5844997  99.7399988
  90.7740012 131.4274997  99.0869988  91.2560012 131.5634997 101.2239988
  90.5030012 132.3474997 101.4549988  90.7820012 130.5814997 101.4369988
  92.3930012 131.8734997 101.9129988  93.2740012 130.8444997 102.7279988
  94.6060012 131.0144997 101.9279988  95.3130012 132.2734997 101.8329988
  94.5460012 133.0724997 101.9219988  96.1220012 132.4064997 102.5819988
  96.1170012 132.3364997 100.5259988  95.5250012 132.4534997  99.6309988
  96.7930012 133.1754997 100.4519988  97.0260012 131.1694997 100.1799988
  97.8220012 130.8584997 101.4549988  98.6630012 131.5154997 101.6209988
  97.1230012 130.9254997 102.2749988  98.1060012 129.8174997 101.4069988
  96.2710012 129.9554997  99.6949988  95.7090012 130.2654997  98.8269988
  96.9330012 129.1674997  99.3669988  95.4780012 129.7534997 100.3999988
  97.9970012 131.7024997  99.1439988  98.7330012 130.9204997  99.0339988
  98.4110012 132.6864997  99.3109988  97.3030012 131.7894997  98.3199988
  93.5220012 131.3694997 104.1399988  92.7980012 129.4334997 102.6389988
  92.7070012 130.6574997  99.5219988  92.2160012 129.3774997  99.3999988
  91.1140012 129.0034997  99.5139988  93.4070012 128.4334997  99.0579988
  92.9580012 127.4184997  99.0079988  94.2020012 128.4514997  99.8339988
  93.9280012 128.7654997  97.6669988  94.5880012 129.6494997  97.7989988
  93.1050012 129.1004997  96.9999988  94.7250012 127.5914997  97.0539988
  94.2480012 126.5914997  97.1389988  95.7640012 127.5274997  97.4439988
  94.9050012 127.6604997  95.5509988  93.8700012 127.5564997  95.1619988
  95.4540012 126.8384997  95.0439988  95.5740012 128.9024997  94.9339988
  94.9710012 129.7954997  95.2059988  95.5360012 128.8844997  93.8239988
  97.0520012 128.9994997  95.2909988  97.4650012 127.9684997  95.3099988
  97.1280012 129.3674997  96.3369988  97.8750012 129.9574997  94.3859988
  98.1770012 129.3944997  93.4769988  98.8580012 130.0024997  94.8999988
  97.3260012 131.3474997  93.8969988  97.2460012 132.1374997  94.6589988
  96.7830012 131.6104997  92.6849988  96.5430012 132.6194997  92.3179988
  96.6760012 130.6404997  91.5499988  96.8830012 129.5994997  91.8789988
  97.4730012 130.8304997  90.7989988  95.3330012 130.7224997  90.8599988
  95.2090012 131.6854997  90.3189988  94.4970012 130.6584997  91.5889988
  95.2040012 129.5344997  89.9039988  94.9100012 128.6434997  90.4999988
  96.1760012 129.3064997  89.4179988  94.2050012 129.6614997  88.7329988
  94.4840012 128.8324997  88.0469988  94.5560012 130.5174997  88.1179988
  92.7370012 129.6964997  89.1409988  92.5050012 130.5844997  89.7679988
  92.3990012 128.8814997  89.8169988  91.8070012 129.8264997  87.8869988
  92.2200012 130.5794997  87.1819988  90.8630012 130.0304997  88.4349988
  91.7500012 128.5604997  87.1179988  91.4460012 127.7904997  87.8589988
  92.7310012 128.1624997  86.7809988  90.7620012 128.3714997  85.9269988
  91.0780012 129.1684997  85.2209988  89.7300012 128.5984997  86.2719988
  90.8600012 127.3844997  85.4279988  33.9300012 134.9984997  80.2119988
  33.1630012 135.4344997  79.5369988  33.7220012 133.9134997  80.3269988
  35.0020012 135.0964997  79.9379988  33.9780012 135.6724997  81.5949988
  33.5990012 136.7014997  81.4159988  33.2420012 135.2214997  82.2949988
  35.3860012 135.7504997  82.1479988  35.7190012 134.6904997  82.1239988
  36.0010012 136.4804997  81.5789988  35.4850012 136.2554997  83.6249988
  35.4460012 137.3654997  83.6349988  34.6540012 135.8414997  84.2349988
  36.7840012 135.7454997  84.2689988  36.5610012 134.6834997  84.5049988
  37.6350012 135.9584997  83.5869988  37.1590012 136.4614997  85.6129988
  38.0900012 135.9614997  85.9549988  37.3620012 137.5464997  85.4849988
  36.0840012 136.2654997  86.6669988  35.3130012 137.0444997  86.4849988
  35.6130012 135.2774997  86.4769988  36.5310012 136.3494997  88.1749988
  37.4790012 136.8984997  88.3639988  35.8260012 137.0554997  88.6639988
  36.4970012 135.1094997  89.0309988  37.3520012 134.4624997  88.7389988
  36.5940012 135.3254997  90.1159988  35.2640012 134.2374997  88.8279988
  34.3560012 134.8774997  88.8439988  35.1850012 133.5764997  87.9389988
  34.8780012 133.2574997  90.0319988  34.2020012 132.4824997  89.6099988
  35.7540012 132.6224997  90.2859988  34.2700012 133.9584997  91.2569988
  33.4510012 134.6074997  90.8779988  33.8660012 133.1064997  91.8429988
  35.2110012 134.7214997  92.1939988  36.0760012 134.0354997  92.3209988
  35.5730012 135.7094997  91.8389988  34.6630012 134.8924997  93.6059988
  33.6520012 135.3504997  93.6619988  34.5240012 133.8754997  94.0309988
  35.5170012 135.7824997  94.5979988  35.4010012 135.1644997  95.5139988
  36.5980012 135.7384997  94.3459988  34.9770012 137.2714997  94.7229988
  34.2280012 137.8044997  93.8949988  35.5450012 137.9174997  95.7399988
  35.0690012 139.2264997  96.1099988  35.7720012 139.5804997  96.8939988
  35.2020012 139.8314997  95.1879988  33.6960012 139.2254997  96.8199988
  33.5700012 140.3274997  96.8909988  33.8610012 138.6154997  98.1749988
  34.2950012 139.4404997  98.7789988  32.8430012 138.3274997  98.5129988
  34.6620012 137.4844997  98.1689988  34.5190012 136.5004997  99.3389988
  34.2900012 137.4554997 100.5389988  35.3690012 138.1464997 101.1289988
  36.3230012 137.5794997 101.0689988  35.4690012 139.0744997 100.5259988
  34.9680012 138.5884997 102.5959988  35.8430012 139.1244997 102.9319988
  34.2250012 139.3694997 102.5209988  34.6630012 137.6004997 103.6699988
  35.5060012 136.3554997 103.6749988  35.1370012 135.7464997 104.4879988
  35.4480012 135.7694997 102.7699988  36.4960012 136.6794997 103.9599988
  34.7320012 138.4824997 104.9689988  34.4290012 139.5024997 104.7869988
  34.2240012 138.0874997 105.8369988  35.7950012 138.4944997 105.1599988
  33.1470012 137.2144997 103.4289988  33.0590012 136.8454997 102.4179988
  32.4750012 138.0114997 103.7109988  32.9240012 136.4134997 104.1179988
  33.3340012 135.6374997  99.1379988  35.8600012 135.8674997  99.5269988
  32.7560012 138.6564997  95.9409988  31.5630012 139.0564997  96.2389988
  31.1940012 139.8814997  97.0759988  30.5910012 138.2294997  95.4219988
  29.5670012 138.4254997  95.8059988  30.6630012 137.1244997  95.5039988
  30.7570012 138.4404997  93.8809988  30.2380012 137.6754997  93.2649988
  31.8110012 138.3444997  93.5439988  30.3610012 139.8754997  93.5119988
  29.6230012 140.1144997  94.3069988  29.7880012 139.7794997  92.5649988
  31.5740012 140.8094997  93.3299988  32.1780012 140.8344997  94.2629988
  31.1550012 141.8304997  93.2059988  32.4570012 140.4674997  92.0659988
  33.1200012 139.5764997  92.1109988  33.1320012 141.3464997  92.1439988
  31.6560012 140.4834997  90.7359988  30.9500012 141.3364997  90.6499988
  30.9800012 139.6134997  90.8779988  32.4660012 140.5054997  89.4179988
  32.8250012 141.5324997  89.1929988  31.8190012 140.3004997  88.5379988
  33.7600012 139.7384997  89.3169988  33.6210012 138.6924997  89.6309988
  34.9080012 140.0974997  88.6869988  35.8170012 139.4884997  88.7949988
  35.1740012 141.4444997  87.9559988  35.9090012 141.9784997  88.5959988
  34.3110012 142.1424997  87.8959988  35.6310012 141.0444997  86.5819988
  36.5020012 140.3574997  86.6349988  35.8640012 141.9814997  86.0329988
  34.5120012 140.3354997  85.7099988  34.1280012 139.4114997  86.1939988
  34.8290012 139.9224997  84.7289988  33.4040012 141.3774997  85.4089988
  33.6090012 142.1354997  84.6219988  33.2240012 141.9844997  86.3219988
  32.0420012 140.7804997  85.0689988  31.6610012 140.1524997  85.9029988
  32.1930012 140.2264997  84.1169988  30.9450012 141.7524997  84.7289988
  31.1080012 142.2314997  83.7399988  30.9580012 142.4424997  85.5999988
  29.5750012 141.1454997  84.5139988  29.3350012 140.3964997  85.2989988
  29.6740012 140.6384997  83.5299988  28.4240012 142.0514997  84.3219988
  28.1800012 142.6134997  85.2489988  27.5330012 141.4684997  84.0049988
  28.5440012 142.8274997  83.5359988  54.5730012 138.1644997  80.7299988
  53.9050012 138.0604997  79.8479988  55.0680012 137.1954997  80.9559988
  55.4140012 138.8644997  80.5329988  53.7370012 138.5764997  81.9489988
  54.2970012 139.0904997  82.7589988  52.9350012 139.2724997  81.6209988
  53.1760012 137.3414997  82.7189988  52.4530012 136.9224997  81.9859988
  54.0370012 136.6444997  82.7979988  52.4790012 137.5744997  84.0389988
  53.1120012 138.1234997  84.7689988  51.6260012 138.2284997  83.7579988
  51.9200012 136.2664997  84.6589988  51.1920012 135.8864997  83.9109988
  52.6660012 135.4614997  84.8279988  50.9190012 136.5224997  85.8199988
  50.4070012 137.4724997  85.5569988  50.0910012 135.7904997  85.7119988
  51.6510012 136.6174997  87.2419988  51.9570012 135.5734997  87.4649988
  52.4960012 137.3364997  87.1829988  50.7010012 136.9804997  88.3839988
  51.2680012 137.1234997  89.3289988  50.2630012 137.9594997  88.0929988
  49.6660012 135.8604997  88.7389988  48.9800012 135.7264997  87.8759988
  50.2520012 134.9174997  88.7149988  48.7430012 136.0134997  89.9779988
  48.1700012 136.9564997  89.8519988  48.0120012 135.1774997  89.9849988
  49.4530012 135.8504997  91.2909988  50.1880012 135.0264997  91.1659988
  50.0730012 136.7724997  91.2759988  48.4410012 135.6764997  92.4969988
  47.8430012 136.5614997  92.8019988  47.8140012 134.8264997  92.1519988
  49.1970012 135.2124997  93.7599988  48.4360012 135.1274997  94.5649988
  49.7410012 134.2444997  93.7279988  50.3180012 136.1334997  94.2129988
  50.9910012 136.2974997  93.3439988  49.9240012 137.1454997  94.4459988
  51.0710012 135.5564997  95.4289988  50.4530012 135.2524997  96.3009988
  51.6220012 134.6454997  95.1089988  52.1150012 136.5604997  95.9289988
  52.3710012 137.6274997  95.3509988  52.6270012 136.1344997  97.0739988
  53.7120012 136.9054997  97.6509988  54.2550012 136.3064997  98.4129988
  54.4190012 137.1274997  96.8239988  53.2870012 138.2084997  98.3889988
  54.1930012 138.6664997  98.8389988  52.1800012 137.9344997  99.3969988
  52.5080012 137.0264997  99.9459988  52.1120012 138.7494997 100.1489988
  50.9660012 137.7634997  98.6789988  49.6600012 137.5774997  99.4499988
  49.7800012 138.7334997 100.5319988  48.6150012 138.9724997 101.2649988
  47.6980012 139.2244997 100.6909988  48.3140012 138.0194997 101.7509988
  48.8760012 140.0054997 102.3739988  49.3150012 140.8504997 101.8649988
  47.9510012 140.2114997 102.8919988  49.7850012 139.5524997 103.5329988
  48.9820012 138.6694997 104.4859988  48.3990012 137.9514997 103.9279988
  49.7180012 138.1544997 105.0859988  48.3830012 139.2394997 105.1809988
  51.0010012 138.6654997 103.0649988  50.6140012 137.8354997 102.4929988
  51.6890012 139.3034997 102.5299988  51.4590012 138.2134997 103.9329988
  50.2330012 140.7604997 104.2159988  49.5140012 141.2674997 104.8429988
  50.6740012 141.3944997 103.4609988  51.0480012 140.5654997 104.8979988
  48.6320012 137.7904997  98.4269988  49.6760012 136.3004997 100.1539988
  52.7900012 139.1744997  97.4309988  52.2270012 140.2984997  97.7459988
  52.0340012 140.6964997  98.9009988  52.2520012 141.0634997  96.4379988
  52.1150012 140.3074997  95.6349988  53.2910012 141.4464997  96.3489988
  51.2210012 142.2534997  96.3889988  51.3520012 142.7354997  95.3969988
  51.4230012 142.9974997  97.1889988  49.7270012 141.9444997  96.4929988
  49.0840012 142.7334997  96.0469988  49.4870012 141.5974997  97.5209988
  49.3320012 140.7994997  95.6009988  49.8660012 139.8464997  95.8039988
  49.6620012 141.0824997  94.5789988  47.7980012 140.4224997  95.5349988
  47.1970012 141.3304997  95.3119988  47.4290012 140.0894997  96.5289988
  47.5420012 139.2124997  94.6229988  47.7670012 138.3694997  95.3119988
  48.2720012 139.1604997  93.7859988  46.0580012 139.1304997  94.0859988
  45.3220012 138.9634997  94.9019988  46.0120012 138.1304997  93.6029988
  45.6270012 140.2714997  93.2169988  44.7120012 140.8094997  93.5069988
  46.1830012 140.6234997  92.0219988  45.8070012 141.5454997  91.5549988
  47.3210012 139.9414997  91.3939988  47.3730012 138.8904997  91.7499988
  48.2780012 140.4384997  91.6609988  47.3780012 139.8374997  89.8799988
  46.5280012 139.2764997  89.4359988  48.3320012 139.3194997  89.6429988
  47.5530012 141.2594997  89.1529988  48.3340012 141.8924997  89.6239988
  46.5620012 141.7404997  89.3029988  47.7780012 141.1424997  87.6309988
  47.5580012 142.1164997  87.1439988  47.1070012 140.3834997  87.1739988
  49.1240012 140.6334997  87.1929988  49.0390012 140.4914997  86.0949988
  49.3390012 139.6034997  87.5479988  50.3550012 141.5694997  87.5069988
  51.2470012 140.9084997  87.4949988  50.3800012 142.0094997  88.5269988
  50.5780012 142.6184997  86.4029988  51.2510012 143.3654997  86.8769988
  49.6700012 143.2154997  86.1739988  51.2320012 142.0384997  85.1969988
  51.1790012 142.6674997  84.2829988  50.6500012 141.1174997  84.9789988
  52.3030012 141.8024997  85.3709988   7.0040012 125.6864997  84.2209988
   6.9530012 126.7134997  84.6429988   6.8210012 124.9234997  85.0079988
   6.2220012 125.4734997  83.4619988   8.3770012 125.4464997  83.6679988
   8.6320012 124.3664997  83.6299988   8.2470012 125.7924997  82.6199988
   9.4610012 126.3964997  84.2389988   9.0380012 127.4234997  84.2069988
   9.5560012 126.1374997  85.3149988  10.7910012 126.3644997  83.4349988
  11.1560012 125.3474997  83.1749988  10.6800012 126.9664997  82.5069988
  11.9990012 126.9304997  84.2529988  12.8720012 127.0944997  83.5859988
  11.7910012 127.9564997  84.6249988  12.3810012 125.9824997  85.4369988
  11.8570012 126.2674997  86.3739988  11.9560012 124.9964997  85.1499988
  13.9130012 125.8364997  85.5809988  14.2790012 125.3414997  84.6559988
  14.3280012 126.8594997  85.7079988  14.2500012 125.0064997  86.8119988
  13.8090012 123.9914997  86.7119988  15.3580012 124.9434997  86.8549988
  13.8250012 125.4954997  88.2069988  13.7590012 126.5824997  88.4299988
  12.7460012 125.2644997  88.3319988  14.5180012 124.7344997  89.3279988
  14.0360012 123.7364997  89.2439988  15.6180012 124.7704997  89.1759988
  14.0670012 125.3174997  90.7189988  13.0180012 125.6554997  90.5729988
  14.1550012 124.4584997  91.4189988  15.0130012 126.4744997  91.2269988
  16.0540012 126.0874997  91.2219988  15.0110012 127.3764997  90.5769988
  14.7030012 126.9564997  92.6239988  15.0970012 126.2164997  93.3539988
  15.3250012 127.8544997  92.8239988  13.1730012 127.1514997  92.8699988
  12.6050012 127.5634997  92.0079988  12.7350012 126.1494997  93.0629988
  12.9040012 128.0844997  94.0659988  13.6140012 127.8684997  94.8919988
  12.9910012 129.0934997  93.6089988  11.4150012 127.9344997  94.5569988
  10.5300012 127.8344997  93.7549988  11.2880012 127.8574997  95.8499988
   9.9970012 127.9314997  96.4419988  10.0880012 128.5484997  97.3609988
   9.1920012 128.2334997  95.7389988   9.4250012 126.5774997  97.0689988
   8.4320012 126.8024997  97.5129988  10.4830012 126.2954997  98.2399988
  11.5080012 126.3624997  97.8179988  10.3050012 127.0724997  99.0139988
  10.1780012 125.0084997  98.7299988  11.1020012 123.9354997  99.2959988
  11.6770012 124.6254997 100.5579988  10.8100012 125.0444997 101.6179988
  11.4600012 125.7524997 102.1749988   9.8420012 125.5024997 101.3219988
  10.4100012 123.9904997 102.6869988   9.6150012 124.4614997 103.2459988
   9.9110012 123.1924997 102.1579988  11.3990012 123.2784997 103.5709988
  10.5860012 122.2224997 104.3379988   9.8690012 122.7194997 104.9749988
  10.0090012 121.6844997 103.5989988  11.0760012 121.4584997 104.9229988
  12.4840012 122.6454997 102.7559988  13.2250012 123.3484997 102.4049988
  13.0410012 121.8494997 103.2279988  11.9470012 122.1974997 101.9329988
  12.0410012 124.2524997 104.5779988  12.4830012 123.6214997 105.3339988
  11.2350012 124.7234997 105.1209988  12.7500012 124.9364997 104.1349988
  10.3070012 122.7584997  99.6899988  12.2770012 123.6694997  98.3579988
   9.4670012 125.4474997  96.1739988   8.4020012 125.3374997  95.3189988
   7.5330012 126.1964997  95.2299988   8.4880012 123.9674997  94.5749988
   9.1850012 124.0494997  93.7129988   7.5160012 123.8084997  94.0599988
   8.7500012 122.7644997  95.5579988   7.9820012 122.7824997  96.3599988
   9.7510012 122.9294997  96.0119988   8.7220012 121.4194997  94.7389988
   9.1990012 121.5924997  93.7509988   7.6710012 121.0824997  94.6199988
   9.4680012 120.3164997  95.5579988   9.2540012 119.4424997  94.9059988
   8.9950012 120.2124997  96.5569988  11.0610012 120.5224997  95.6169988
  11.3550012 119.7164997  96.3239988  11.3000012 121.4844997  96.1189988
  11.8850012 120.4854997  94.2869988  11.2190012 120.3514997  93.4079988
  12.5480012 119.5934997  94.2859988  12.8480012 121.6734997  93.9569988
  13.2350012 121.3874997  92.9549988  13.7210012 121.5604997  94.6349988
  12.3550012 123.0444997  94.0289988  12.5950012 123.7654997  94.8249988
  11.5530012 123.5734997  93.0829988  11.1900012 124.6114997  93.0999988
  11.1410012 122.8134997  91.8729988  10.1960012 122.2704997  92.0879988
  11.9360012 122.1354997  91.4949988  10.4870012 123.6954997  90.7179988
  11.3590012 124.2364997  90.2909988   9.6810012 124.3424997  91.1259988
   9.7810012 122.8814997  89.5949988   8.7180012 122.7084997  89.8699988
  10.2690012 121.8854997  89.5409988  10.0080012 123.4814997  88.1849988
  11.0080012 123.9374997  88.0239988   9.2820012 124.2944997  87.9699988
   9.9500012 122.2804997  87.1829988   8.9140012 121.8804997  87.2099988
  10.6170012 121.4434997  87.4829988  10.2490012 122.6224997  85.7099988
  11.3350012 122.8504997  85.6599988   9.5660012 123.4804997  85.5329988
  10.0040012 121.4314997  84.7739988   9.0190012 120.9324997  84.8969988
  10.7820012 120.6424997  84.8359988  10.1040012 121.7294997  83.2129988
  11.1580012 122.0724997  83.1409988   9.3520012 122.5064997  82.9549988
  10.1440012 120.7414997  82.7079988  86.2800012 131.4304997  84.9649988
  85.4170012 131.9924997  85.3819988  85.8600012 130.4034997  85.0159988
  86.5850012 131.8284997  83.9739988  87.4490012 131.4734997  85.9739988
  87.4080012 130.7144997  86.7839988  88.4520012 131.2814997  85.5369988
  87.6520012 132.8924997  86.6159988  87.5140012 133.6724997  85.8369988
  86.7660012 133.0134997  87.2759988  89.0020012 133.1134997  87.3119988
  89.0920012 132.1654997  87.8839988  89.7600012 132.9174997  86.5239988
  89.1130012 134.4194997  88.0309988  88.2010012 134.4944997  88.6619988
  89.9400012 134.3134997  88.7649988  89.2270012 135.6994997  87.2259988
  89.9760012 135.6244997  86.4079988  88.2560012 135.9454997  86.7449988
  89.5890012 136.8214997  88.1639988  90.4870012 136.5884997  88.7749988
  89.7930012 137.7204997  87.5439988  88.4430012 137.2014997  89.1489988
  87.5230012 137.2214997  88.5279988  88.2540012 136.4814997  89.9739988
  88.7370012 138.3774997  90.0259988  89.7210012 138.2514997  90.5269988
  88.8450012 139.2774997  89.3839988  87.6630012 138.8264997  91.0349988
  87.8940012 139.8964997  91.2219988  86.6340012 138.6384997  90.6589988
  87.7310012 138.0894997  92.3509988  87.2290012 137.0984997  92.3449988
  88.7980012 137.8394997  92.5379988  87.3130012 138.8254997  93.5259988
  87.5480012 138.2694997  94.4589988  87.8670012 139.7804997  93.6429988
  85.8650012 139.4114997  93.4499988  85.6530012 140.0344997  94.3449988
  85.8020012 139.9084997  92.4579988  84.8290012 138.2334997  93.4089988
  83.8600012 138.5974997  93.0059988  85.2150012 137.4904997  92.6789988
  84.6790012 137.6404997  94.8149988  85.6900012 137.4524997  95.2349988
  84.2210012 138.4204997  95.4609988  83.8400012 136.4044997  94.8519988
  83.3640012 135.8684997  93.8659988  83.7820012 136.0044997  96.1179988
  83.0180012 134.8134997  96.3939988  82.2500012 135.0634997  97.1569988
  82.5280012 134.4354997  95.4709988  83.9220012 133.6544997  96.9909988
  83.2720012 132.8024997  97.2859988  84.4850012 134.2584997  98.2809988
  84.7940012 135.3094997  98.0909988  83.7210012 134.1964997  99.0839988
  85.6740012 133.4534997  98.5079988  86.7530012 134.0774997  99.4399988
  85.8820012 134.9504997 100.4439988  86.4240012 136.1374997 101.0719988
  86.8800012 136.8514997 100.3529988  85.5450012 136.6924997 101.4659988
  87.3290012 135.7074997 102.2449988  88.1830012 135.1274997 101.9249988
  87.6440012 136.6554997 102.6549988  86.7620012 135.0624997 103.4909988
  86.4490012 133.5594997 103.3829988  85.7870012 133.3614997 102.5529988
  87.4320012 133.1314997 103.2509988  86.0780012 133.0884997 104.2809988
  87.7840012 135.0824997 104.6019988  87.5400012 134.3734997 105.3789988
  88.7080012 134.7534997 104.1499988  87.6900012 136.0704997 105.0269988
  85.6070012 135.7144997 104.1139988  85.1700012 135.1414997 104.9189988
  84.9090012 136.0234997 103.3509988  86.0530012 136.6074997 104.5259988
  87.4420012 133.0384997 100.2109988  87.6200012 134.9814997  98.6699988
  84.9560012 133.2984997  96.1079988  84.7430012 132.3104997  95.2759988
  83.7160012 131.6784997  95.1609988  85.9420012 132.0554997  94.4329988
  86.4320012 131.1044997  94.7319988  86.5670012 132.9664997  94.5479988
  85.6670012 131.8824997  92.9139988  85.0420012 130.9974997  92.6719988
  86.6380012 131.7434997  92.3919988  84.9830012 133.1124997  92.4339988
  85.6070012 133.9864997  92.7179988  84.0440012 133.2634997  93.0079988
  84.5630012 133.1714997  90.9559988  84.1280012 132.2184997  90.5879988
  85.4190012 133.4224997  90.2939988  83.4890012 134.2304997  90.7759988
  83.9700012 135.0504997  91.3509988  82.5610012 133.9474997  91.3169988
  83.2100012 134.5414997  89.2449988  82.1540012 134.8644997  89.1239988
  83.4140012 133.5424997  88.8049988  83.9620012 135.6114997  88.4719988
  83.4020012 135.7194997  87.5189988  84.9740012 135.3464997  88.0989988
  84.2400012 136.9424997  89.1709988  84.8640012 137.0094997  90.0749988
  83.8370012 138.1284997  88.6559988  83.9960012 139.0474997  89.2399988
  83.0250012 138.4224997  87.4039988  82.1990012 139.0954997  87.7189988
  82.5420012 137.4874997  87.0489988  83.7920012 139.2434997  86.3729988
  83.8580012 140.2684997  86.7949988  83.1710012 139.3174997  85.4539988
  85.2210012 138.7494997  85.9709988  85.8600012 138.6454997  86.8729988
  85.6120012 139.5534997  85.3109988  85.0950012 137.3474997  85.2789988
  84.2000012 137.4504997  84.6279988  84.9280012 136.5464997  86.0299988
  86.4110012 137.1144997  84.5129988  87.0320012 136.6474997  85.3069988
  86.8280012 138.0154997  84.0129988  86.3510012 135.9284997  83.4939988
  85.7730012 135.1124997  83.9789988  87.4090012 135.6114997  83.3689988
  85.6930012 136.3334997  82.1729988  86.3770012 137.1274997  81.8039988
  84.6430012 136.6654997  82.3199988  85.8360012 135.1874997  81.1989988
  85.0440012 134.4184997  81.3219988  86.8820012 134.8154997  81.2339988
  85.6390012 135.5874997  80.1809988 136.4630012  49.8224997  82.5829988
 135.7630012  50.6464997  82.3319988 137.2860012  49.8194997  81.8359988
 136.8220012  49.9324997  83.6289988 135.6580012  48.5484997  82.4489988
 134.7590012  48.5164997  83.1009988 135.2190012  48.5464997  81.4279988
 136.4450012  47.1854997  82.5809988 135.6630012  46.3964997  82.5739988
 137.1110012  47.2084997  81.6909988 137.3380012  47.0234997  83.8489988
 138.0920012  46.2164997  83.7309988 137.9510012  47.9444997  83.9579988
 136.6640012  46.6874997  85.2199988 135.9120012  47.5044997  85.2419988
 136.2440012  45.6794997  85.0139988 137.6330012  46.7224997  86.4569988
 137.2800012  45.9234997  87.1439988 138.6770012  46.4544997  86.1899988
 137.7830012  48.1194997  87.0929988 138.7010012  48.1154997  87.7179988
 137.9010012  48.8984997  86.3089988 136.5660012  48.5934997  87.9459988
 136.3930012  49.6874997  87.8509988 135.7050012  48.1264997  87.4209988
 136.7530012  48.4444997  89.4489988 137.6470012  49.0454997  89.7199988
 135.7820012  48.7034997  89.9229988 136.9240012  46.9554997  89.8169988
 135.9160012  46.5224997  89.6399988 137.8020012  46.4564997  89.3539988
 137.1030012  46.9094997  91.3689988 137.5690012  45.9254997  91.5929988
 137.8320012  47.7064997  91.6289988 135.8580012  47.0984997  92.2279988
 134.9800012  47.6404997  91.8149988 135.4430012  46.0734997  92.3369988
 136.1090012  47.6534997  93.6539988 136.7550012  48.5564997  93.6169988
 135.0900012  47.8964997  94.0249988 136.8400012  46.6604997  94.5349988
 136.4050012  45.6474997  94.3939988 137.8820012  46.6034997  94.1519988
 136.7700012  47.0184997  96.0619988 137.2440012  48.0054997  96.2529988
 135.6750012  47.1134997  96.2239988 137.5530012  45.9464997  96.8359988
 138.1240012  45.0124997  96.3379988 137.6960012  46.2374997  98.1439988
 138.7880012  45.6354997  98.8919988 138.5560012  45.8144997  99.9629988
 138.9190012  44.5524997  98.6809988 140.1530012  46.4044997  98.6859988
 140.9670012  45.8474997  99.1959988 140.1070012  47.8394997  99.2679988
 139.8390012  47.6314997 100.3259988 141.0090012  48.4874997  99.2789988
 138.9920012  48.5114997  98.6499988 138.4240012  49.8374997  99.2879988
 137.6850012  49.1704997 100.6319988 137.8510012  49.8004997 101.8729988
 138.2670012  50.8254997 101.7749988 136.8030012  49.9974997 102.1859988
 138.7160012  49.0404997 102.7879988 139.5400012  48.7104997 102.1729988
 138.9800012  49.7464997 103.5619988 138.0690012  47.7504997 103.5509988
 137.2930012  46.9064997 102.5769988 136.5830012  47.6034997 102.1559988
 138.0960012  46.7504997 101.8719988 137.0100012  45.9624997 103.0189988
 139.2000012  46.9624997 104.1749988 138.8190012  46.1984997 104.8359988
 139.8560012  46.4894997 103.4589988 139.7900012  47.6844997 104.7209988
 137.1340012  48.2794997 104.5699988 137.7470012  48.7554997 105.3209988
 136.5910012  47.4104997 104.9109988 136.3740012  48.9284997 104.1609988
 139.5730012  50.6474997  99.7349988 137.5300012  50.4724997  98.3419988
 140.2830012  46.3444997  97.2549988 141.3310012  46.9624997  96.7969988
 142.3650012  47.3084997  97.3589988 141.0650012  47.1374997  95.3339988
 141.8340012  47.8334997  94.9339988 140.0360012  47.5174997  95.1559988
 141.1140012  45.7724997  94.6249988 140.4190012  45.0364997  95.0829988
 142.1590012  45.4394997  94.7999988 140.8640012  45.8464997  93.1259988
 139.8810012  46.3304997  92.9399988 140.8690012  44.8074997  92.7299988
 141.9210012  46.6864997  92.3489988 142.8630012  46.1514997  92.1019988
 142.1680012  47.6194997  92.8989988 141.4600012  47.2184997  90.9419988
 142.4410012  47.5364997  90.5309988 140.7570012  48.0524997  91.1539988
 140.7110012  46.2294997  90.0659988 140.4480012  46.8344997  89.1719988
 139.7270012  46.1154997  90.5679988 141.3790012  44.9104997  89.7189988
 141.3310012  44.2944997  90.6429988 142.4020012  45.1794997  89.3799988
 140.6670012  44.2334997  88.5739988 139.7270012  43.7494997  88.8789988
 140.9300012  44.3414997  87.2879988 140.2140012  43.9664997  86.5419988
 141.9860012  45.2504997  86.6579988 142.9380012  44.8064997  87.0199988
 141.9380012  46.2724997  87.0889988 141.9220012  45.2674997  85.1239988
 140.9150012  44.9774997  84.7529988 142.6190012  44.5614997  84.6239988
 142.1720012  46.7594997  84.6219988 141.7170012  47.5194997  85.2919988
 141.6730012  46.8084997  83.6309988 143.6590012  47.1134997  84.4259988
 143.7680012  46.6064997  83.4429988 144.3800012  46.8954997  85.2419988
 143.7320012  48.6554997  84.0469988 143.7490012  49.2434997  84.9899988
 142.8760012  49.0844997  83.4839988 145.0050012  48.9514997  83.3019988
 145.0850012  48.3024997  82.4039988 145.8240012  48.6774997  83.9999988
 145.1850012  50.4304997  82.7819988 146.2240012  50.5964997  82.4259988
 145.0160012  51.1914997  83.5729988 144.3070012  50.8544997  81.6339988
 143.2230012  50.7944997  81.8729988 144.5040012  50.3814997  80.6489988
 144.3810012  51.9614997  81.5719988  82.5800012   6.5884997  80.6979988
  82.5800012   7.4464997  81.4039988  81.6100012   6.0924997  80.4839988
  82.9020012   6.8404997  79.6649988  83.7500012   5.7184997  81.3299988
  83.7110012   4.7984997  80.7079988  84.6840012   6.2804997  81.1159988
  83.7240012   5.4284997  82.8709988  84.6250012   4.8514997  83.1739988
  83.5900012   6.3954997  83.4009988  82.5960012   4.6164997  83.3439988
  81.6980012   5.1684997  82.9929988  82.6570012   3.6744997  82.7589988
  82.5770012   4.3764997  84.8439988  83.4900012   3.8254997  85.1549988
  82.6320012   5.3584997  85.3619988  81.2600012   3.7194997  85.2389988
  80.3850012   4.3644997  85.0079988  81.0280012   2.7424997  84.7639988
  81.1910012   3.3124997  86.7159988  82.0230012   2.5764997  86.7299988
  81.5230012   4.0544997  87.4719988  79.8630012   2.7014997  87.2069988
  78.9080012   3.2394997  87.0259988  79.7300012   1.8064997  86.5619988
  79.9880012   2.3484997  88.7549988  80.2720012   3.2734997  89.2999988
  78.9650012   1.9964997  89.0089988  80.9580012   1.1974997  88.9659988
  80.6910012   0.3714997  88.2729988  81.9570012   1.5564997  88.6389988
  81.0090012   0.6594997  90.3729988  81.8360012  -0.0825003  90.4129988
  81.2830012   1.5264997  91.0099988  79.7150012  -0.0605003  90.9109988
  78.8500012   0.6354997  90.8559988  79.5700012  -0.9695003  90.2889988
  79.8760012  -0.6105003  92.3259988  79.1530012  -1.4355003  92.5009988
  80.9060012  -0.9865003  92.5029988  79.4380012   0.4414997  93.4539988
  80.0480012   1.3694997  93.4359988  78.3620012   0.6914997  93.3369988
  79.7150012  -0.1675003  94.8769988  79.1130012  -1.0985003  94.9459988
  80.7760012  -0.3945003  95.1159988  79.3990012   0.9524997  95.8649988
  78.4470012   1.6884997  95.8009988  80.2810012   0.9314997  96.8189988
  80.3050012   1.9724997  97.8609988  79.3900012   2.6024997  97.8549988
  80.5770012   1.5924997  98.8689988  81.4800012   2.9984997  97.5119988
  82.3780012   2.3444997  97.5389988  81.4530012   3.9784997  98.7609988
  81.5580012   3.5454997  99.7789988  82.4000012   4.5564997  98.6929988
  80.3940012   4.9124997  98.6719988  79.9450012   5.5944997 100.0089988
  79.1810012   4.3914997 100.6839988  78.6250012   4.6594997 101.9819988
  79.3570012   5.1144997 102.6829988  77.7370012   5.3194997 101.8929988
  78.1770012   3.2894997 102.6519988  77.7870012   3.5664997 103.6209988
  77.3720012   2.9244997 102.0319988  79.1660012   2.1744997 102.8509988
  78.4460012   1.0064997 103.6249988  78.8570012   0.0094997 103.5829988
  78.4540012   1.3094997 104.6619988  77.4170012   0.8884997 103.3199988
  79.6140012   1.6404997 101.5619988  78.8810012   1.2574997 100.8679988
  80.1320012   2.4204997 101.0239988  80.3430012   0.8484997 101.6449988
  80.3850012   2.5754997 103.6789988  80.0600012   3.0074997 104.6139988
  80.7770012   3.4604997 103.1989988  81.0470012   1.7374997 103.8389988
  81.0880012   6.0274997 100.7599988  78.9250012   6.6044997  99.7029988
  81.2580012   3.7234997  96.2969988  82.0140012   3.4954997  95.2899988
  82.8040012   2.5904997  95.1129988  81.7710012   4.5714997  94.2319988
  82.2850012   4.2064997  93.3169988  82.3090012   5.4964997  94.5299988
  80.2350012   4.8134997  94.0379988  79.8890012   5.5354997  94.8079988
  79.7730012   3.8184997  94.2109988  79.8130012   5.1154997  92.5579988
  80.3270012   4.3114997  91.9879988  80.2190012   6.0934997  92.2229988
  78.3110012   4.9574997  92.2369988  77.7610012   5.6744997  92.8829988
  78.0520012   3.9154997  92.5219988  78.0110012   5.1314997  90.7399988
  78.5610012   4.3924997  90.1189988  78.3780012   6.1224997  90.3989988
  76.5040012   4.9774997  90.3769988  76.5270012   5.1844997  89.2859988
  76.0320012   5.9024997  90.7699988  75.8490012   3.5944997  90.6369988
  75.8600012   3.4644997  91.7409988  76.5040012   2.7844997  90.2499988
  74.5230012   3.5914997  89.9219988  73.7070012   3.4724997  90.6489988
  74.2570012   3.5574997  88.6639988  73.1950012   3.4864997  88.3839988
  75.2130012   3.5174997  87.4819988  74.9630012   2.5734997  86.9519988
  76.2680012   3.4394997  87.8199988  75.1990012   4.6774997  86.4819988
  75.2770012   5.6174997  87.0689988  74.2000012   4.7984997  86.0129988
  76.2910012   4.5374997  85.3619988  77.1600012   4.1194997  85.9139988
  76.4330012   5.5964997  85.0549988  75.7580012   3.6104997  84.1349988
  74.8550012   4.1514997  83.7799988  75.4740012   2.6974997  84.6999988
  76.7540012   3.3904997  83.0749988  77.5070012   2.6324997  83.3779988
  77.3320012   4.2954997  82.7899988  76.0890012   2.7844997  81.8389988
  75.4030012   1.9844997  82.1899988  76.9190012   2.4254997  81.1939988
  75.4470012   3.8164997  80.9309988  75.1480012   4.6664997  81.5809988
  74.5370012   3.3894997  80.4579988  76.3220012   4.2504997  79.8309988
  76.6490012   3.4464997  79.1379988  77.2520012   4.7754997  80.1359988
  75.6710012   4.9694997  79.2889988 136.6710012  34.5824997  83.5479988
 136.4360012  33.9674997  82.6529988 136.9870012  33.8884997  84.3559988
 137.4710012  35.2634997  83.1869988 135.5700012  35.5144997  83.9249988
 135.9680012  36.1344997  84.7559988 135.3490012  36.2344997  83.1079988
 134.1260012  35.0434997  84.2829988 133.4780012  35.9014997  84.5619988
 133.7450012  34.4874997  83.3989988 134.0100012  34.2384997  85.5419988
 134.5130012  33.2574997  85.4059988 134.5070012  34.7534997  86.3919988
 132.5810012  33.8454997  85.9219988 132.0440012  34.7164997  86.3549988
 132.0740012  33.5614997  84.9749988 132.5080012  32.6924997  87.0689988
 132.8700012  31.7234997  86.6629988 133.1400012  32.9744997  87.9369988
 131.0650012  32.4174997  87.5579988 130.5360012  32.1934997  86.6069988
 130.9560012  31.6284997  88.3329988 130.5170012  33.7044997  88.0999988
 131.0570012  34.0354997  89.0129988 130.5110012  34.4614997  87.2869988
 128.9950012  33.5554997  88.4939988 128.5010012  33.1754997  87.5739988
 128.7720012  32.8364997  89.3099988 128.3750012  34.8184997  88.9989988
 128.3960012  35.5324997  88.1479988 127.3010012  34.5684997  89.1339988
 128.9960012  35.4224997  90.2499988 129.9560012  35.8244997  89.8619988
 128.3530012  36.2874997  90.5179988 129.3830012  34.4954997  91.4529988
 128.4560012  34.0194997  91.8369988 130.1000012  33.7084997  91.1339988
 130.2230012  35.1704997  92.5259988 131.2550012  35.1784997  92.1159988
 129.8290012  36.2084997  92.5629988 130.0740012  34.4404997  93.8299988
 129.0380012  34.1934997  94.1489988 130.5440012  33.4484997  93.6609988
 130.7020012  35.1854997  95.0599988 130.3940012  36.2514997  95.1019988
 130.4690012  34.6244997  95.9909988 132.2720012  35.0004997  94.9469988
 132.9080012  35.0614997  93.9409988 132.8300012  34.9154997  96.2059988
 134.2450012  34.7444997  96.3049988 134.4510012  33.7084997  96.6479988
 134.6370012  34.8734997  95.2729988 134.9090012  35.6844997  97.1949988
 136.0110012  35.7654997  97.0799988 134.6260012  35.3124997  98.7089988
 134.5310012  34.2064997  98.7729988 135.4350012  35.8504997  99.2479988
 133.3560012  35.9164997  99.0279988 133.2150012  36.7194997 100.3859988
 133.1010012  35.5494997 101.4809988 132.7500012  34.2204997 101.1589988
 132.2410012  34.1144997 100.1769988 133.6370012  33.5564997 101.0819988
 131.9570012  33.5304997 102.3259988 131.8610012  32.4674997 102.1559988
 132.4580012  33.7594997 103.2549988 130.5270012  33.9054997 102.5769988
 129.7560012  33.9824997 101.2599988 129.6530012  32.9834997 100.8629988
 128.8360012  34.4964997 101.4949988 130.3520012  34.5554997 100.5649988
 129.9640012  32.9384997 103.5509988 130.6750012  32.8764997 104.3609988
 128.9770012  33.2384997 103.8689988 129.9020012  31.9464997 103.1259988
 130.5480012  35.3044997 103.2239988 130.7790012  35.9794997 102.4129988
 131.2860012  35.2594997 104.0109988 129.5440012  35.5054997 103.5689988
 134.4540012  37.4674997 100.6779988 131.9600012  37.5114997 100.5119988
 134.4850012  36.9674997  96.8879988 135.1140012  38.0384997  97.4439988
 136.2530012  37.9744997  97.9079988 134.2260012  39.2824997  97.3939988
 134.7070012  40.0714997  98.0109988 133.2760012  38.9344997  97.8539988
 133.8060012  39.7474997  95.9949988 133.1190012  40.5994997  96.1889988
 133.3040012  38.9504997  95.4059988 135.0290012  40.2114997  95.2699988
 135.6240012  39.2764997  95.3459988 135.4950012  40.9534997  95.9539988
 134.8300012  40.8604997  93.8619988 135.8050012  41.2004997  93.4529988
 134.2920012  41.8304997  93.9319988 134.0610012  39.8824997  92.9789988
 133.0390012  40.3174997  92.9579988 134.0490012  38.8554997  93.4009988
 134.6350012  39.8924997  91.5299988 135.6840012  39.6214997  91.7779988
 134.6120012  40.9164997  91.0999988 134.1300012  38.7634997  90.5399988
 134.3340012  37.8074997  91.0659988 134.7630012  38.9464997  89.6459988
 132.6580012  38.7634997  90.2669988 132.0790012  38.4684997  91.1539988
 131.9740012  39.2064997  89.1339988 130.8930012  39.0464997  89.2609988
 132.5980012  39.7564997  87.9039988 133.5730012  40.2364997  88.1359988
 132.0290012  40.6414997  87.5489988 132.9880012  38.7364997  86.8619988
 132.1150012  38.1114997  86.5769988 133.7180012  38.0554997  87.3489988
 133.6090012  39.3044997  85.5509988 133.8300012  38.4504997  84.8759988
 134.5180012  39.9304997  85.6779988 132.6870012  40.2254997  84.7019988
 133.3280012  40.6084997  83.8789988 132.3340012  41.1104997  85.2739988
 131.3580012  39.6064997  84.1799988 130.6950012  40.4004997  83.7759988
 130.7770012  39.1584997  85.0139988 131.5120012  38.5694997  83.0969988
 132.3580012  37.9684997  83.4929988 131.6350012  38.9254997  82.0509988
 130.3470012  37.6904997  82.9269988 130.5440012  37.1594997  81.9719988
 129.4390012  38.3144997  82.7829988 130.1870012  36.6504997  83.9629988
 129.2390012  36.0884997  83.8229988 130.0290012  37.0444997  84.9899988
 131.0310012  35.9324997  83.8939988 130.5520012 100.6194997  81.2299988
 130.1580012 100.8294997  80.2129988 129.8320012 101.1184997  81.9139988
 130.6530012  99.5164997  81.3069988 131.9520012 101.1654997  81.2039988
 132.5250012 100.6764997  80.3879988 131.9190012 102.2534997  80.9829988
 132.8600012 101.0794997  82.4749988 133.8120012 101.6244997  82.2989988
 132.3060012 101.5484997  83.3159988 133.2630012  99.6294997  82.8149988
 132.3540012  99.0114997  82.9789988 133.7820012  99.1914997  81.9349988
 134.3480012  99.6244997  83.8669988 134.6310012  98.5634997  84.0339988
 135.2550012 100.1834997  83.5509988 134.0700012 100.3964997  85.1729988
 133.7390012 101.4304997  84.9349988 133.2710012  99.7304997  85.5629988
 135.2810012 100.3824997  86.1409988 135.5110012  99.3014997  86.2499988
 136.1270012 100.9154997  85.6549988 134.9190012 101.0434997  87.5149988
 134.5580012 102.0834997  87.3659988 134.0920012 100.4494997  87.9589988
 136.0220012 100.9124997  88.5999988 136.2830012  99.8404997  88.7339988
 136.9420012 101.4764997  88.3359988 135.6910012 101.4044997  89.9909988
 136.6840012 101.5574997  90.4659988 135.2480012 102.4144997  89.8489988
 134.7510012 100.6124997  90.9249988 133.8270012 100.4964997  90.3189988
 135.2210012  99.6504997  91.2239988 134.4280012 101.5304997  92.1719988
 133.9190012 102.4514997  91.8159988 133.6540012 100.9634997  92.7309988
 135.5330012 101.7714997  93.1219988 136.0660012 100.8084997  93.2689988
 136.1790012 102.4624997  92.5389988 135.1720012 102.5224997  94.3489988
 134.0870012 102.7514997  94.2789988 135.2120012 101.7774997  95.1729988
 136.0400012 103.8074997  94.6779988 137.1030012 103.5884997  94.9159988
 135.9630012 104.5494997  93.8539988 135.5410012 104.5154997  95.8829988
 136.0830012 105.5464997  96.2609988 134.5640012 103.9874997  96.4909988
 134.2020012 104.4014997  97.8239988 134.8260012 103.8584997  98.5649988
 134.3340012 105.5024997  97.8819988 132.7930012 103.7974997  98.1469988
 132.3680012 104.4064997  98.9729988 132.7470012 102.2724997  98.4119988
 133.1040012 101.6504997  97.5639988 133.4820012 101.9304997  99.1719988
 131.4160012 101.9964997  98.7559988 131.0460012 101.9084997 100.3499988
 131.8820012 100.6654997 100.8239988 131.7080012 100.1414997 102.1579988
 130.8260012 100.6044997 102.6499988 131.6660012  99.0354997 102.0619988
 132.9610012 100.3984997 103.0609988 132.8800012 101.4174997 103.4099988
 132.8740012  99.7894997 103.9489988 134.3210012 100.0084997 102.5249988
 135.3090012  99.9544997 103.5869988 135.4270012 100.8564997 104.1679988
 135.0810012  99.1654997 104.2899988 136.3060012  99.7594997 103.2199988
 134.1620012  98.6204997 101.8089988 133.2810012  98.6154997 101.1829988
 135.1250012  98.3144997 101.4269988 133.8440012  97.8614997 102.5079988
 134.8470012 101.0364997 101.5749988 135.8210012 100.7444997 101.2099988
 134.9930012 101.9674997 102.1029988 134.1860012 101.1664997 100.7309988
 131.5000012 103.0974997 101.0779988 129.6180012 101.5454997 100.4569988
 131.9990012 104.0764997  96.9809988 130.8700012 104.6914997  97.0579988
 130.4310012 105.1524997  98.1079988 130.2370012 104.7694997  95.6939988
 130.9950012 105.3254997  95.1019988 129.2810012 105.3284997  95.7719988
 130.0140012 103.3864997  95.0889988 129.3710012 102.9134997  95.8619988
 130.9330012 102.7644997  95.0359988 129.3660012 103.3534997  93.6909988
 128.5750012 104.1314997  93.7469988 128.8020012 102.4134997  93.5109988
 130.4910012 103.5384997  92.6519988 131.3690012 102.8574997  92.6719988
 131.0000012 104.4864997  92.9279988 130.1430012 103.6834997  91.1359988
 131.0670012 104.0054997  90.6099988 129.4130012 104.5214997  91.1569988
 129.6900012 102.3734997  90.4909988 128.6260012 102.0864997  90.6389988
 130.3000012 101.5574997  90.9349988 129.9760012 102.2894997  88.8999988
 129.6680012 101.2694997  88.5849988 131.0800012 102.3464997  88.7919988
 129.2850012 103.3364997  88.0589988 128.2100012 103.2684997  87.8379988
 129.7780012 104.4204997  87.4589988 129.1020012 105.0494997  86.8619988
 131.2720012 104.8384997  87.3449988 131.5720012 104.7944997  88.4129988
 131.3380012 105.9104997  87.0589988 132.2160012 103.9304997  86.5649988
 131.6750012 103.4724997  85.7099988 132.6400012 103.0564997  87.1049988
 133.4440012 104.5784997  85.9169988 133.9290012 103.6574997  85.5269988
 134.0120012 105.0594997  86.7409988 133.1130012 105.5084997  84.8339988
 134.0270012 106.0824997  84.5709988 132.5220012 106.3284997  85.2929988
 132.5240012 104.8764997  83.6049988 131.6130012 104.2514997  83.7269988
 133.2410012 104.1274997  83.2059988 132.3910012 105.9674997  82.4919988
 131.6810012 106.6874997  82.9529988 132.0130012 105.5624997  81.5299988
 133.5920012 106.8834997  82.0329988 134.0110012 107.4144997  82.9149988
 133.1910012 107.6424997  81.3269988 134.7530012 106.0574997  81.4439988
 134.4130012 105.7344997  80.4369988 134.8250012 105.1074997  82.0149988
 135.7400012 106.5634997  81.4929988   5.5980012  49.1734997  81.5049988
   5.4320012  48.1344997  81.1479988   6.2400012  49.7794997  80.8299988
   4.6210012  49.6984997  81.5619988   6.0930012  49.0564997  83.0189988
   5.2400012  48.6564997  83.6079988   7.0030012  48.4184997  83.0149988
   6.3680012  50.3564997  83.6259988   7.3540012  50.7204997  83.2649988
   5.5410012  51.0024997  83.2599988   6.2920012  50.4704997  85.1839988
   5.2630012  50.5464997  85.5949988   6.8610012  49.6144997  85.6049988
   7.0370012  51.7304997  85.7289988   8.0020012  51.8694997  85.1949988
   6.3170012  52.5524997  85.5269988   7.1630012  51.6464997  87.2989988
   6.1630012  51.8694997  87.7279988   7.5260012  50.6354997  87.5819988
   8.1640012  52.7034997  87.7719988   9.0640012  52.6204997  87.1259988
   7.6880012  53.6854997  87.5619988   8.4580012  52.4474997  89.2739988
   7.7600012  52.9474997  89.9789988   8.4390012  51.3534997  89.4649988
   9.7080012  53.1444997  89.7369988  10.5060012  52.6184997  89.1709988
   9.7000012  54.2144997  89.4399988  10.0620012  52.7994997  91.2249988
   9.0930012  52.8384997  91.7659988  10.4410012  51.7554997  91.2469988
  10.9960012  53.7614997  91.9519988  12.0350012  53.5124997  91.6479988
  10.9010012  54.8004997  91.5709988  10.7860012  53.6944997  93.5059988
  10.5900012  52.6534997  93.8429988  11.5860012  54.1834997  94.1019988
   9.5280012  54.5164997  93.8579988   9.8560012  55.5584997  94.0589988
   8.9350012  54.5884997  92.9209988   8.7660012  53.9184997  95.0499988
   8.2830012  52.9794997  94.7029988   9.5050012  53.7614997  95.8649988
   7.5850012  54.8244997  95.5289988   8.0140012  55.7774997  95.9059988
   7.0090012  55.2664997  94.6879988   6.6310012  54.2114997  96.5929988
   5.6830012  53.4944997  96.2989988   7.0650012  54.4454997  97.8249988
   6.3740012  53.7754997  98.9019988   6.0130012  54.5914997  99.5639988
   5.3990012  53.3714997  98.5529988   7.3370012  52.7244997  99.5479988
   6.6670012  52.2224997 100.2789988   8.5400012  53.3724997 100.1669988
   9.1800012  53.7864997  99.3589988   8.2130012  54.1924997 100.8419988
   9.3710012  52.5174997 100.8929988   9.1440012  52.0784997 102.4249988
   9.4890012  50.5474997 102.4219988  10.6400012  50.1284997 101.6889988
  11.4000012  50.9294997 101.5709988  11.1770012  49.3944997 102.3259988
  10.2190012  49.3794997 100.4159988   9.6600012  50.0294997  99.7589988
  11.1300012  48.9634997 100.0109988   9.4050012  48.0274997 100.5049988
  10.0920012  47.2084997 101.5539988   9.9900012  47.8064997 102.4469988
   9.7230012  46.1954997 101.6189988  11.1270012  47.2304997 101.2459988
   7.9980012  48.3134997 100.9339988   7.4550012  47.4394997 100.6079988
   7.8430012  48.7914997 101.8899988   7.7270012  49.1034997 100.2499988
   9.2970012  47.3504997  99.1849988  10.2800012  47.0514997  98.8539988
   8.8150012  47.9204997  98.4039988   8.6790012  46.4694997  99.2719988
  10.1140012  52.7304997 103.3279988   7.7340012  52.2004997 102.8309988
   7.7500012  51.7904997  98.6319988   6.9110012  50.8444997  98.1659988
   5.8430012  50.5794997  98.6899988   7.4720012  50.1404997  96.9319988
   7.2090012  49.0684997  97.0649988   8.5680012  50.2904997  96.8379988
   6.7440012  50.4994997  95.6359988   6.7410012  51.5234997  95.2049988
   5.6500012  50.3904997  95.7919988   7.2130012  49.8154997  94.3729988
   6.4350012  50.0324997  93.6099988   6.9450012  48.7454997  94.5039988
   8.6440012  50.0754997  93.9439988   9.4060012  49.9294997  94.7389988
   8.7200012  51.1254997  93.5889988   9.0820012  49.1114997  92.8009988
   9.0260012  48.0854997  93.2249988  10.1480012  49.3734997  92.6309988
   8.2160012  49.2804997  91.4959988   8.2490012  50.3864997  91.3969988
   7.2470012  48.8464997  91.8199988   8.7870012  48.5794997  90.2669988
   9.0650012  47.5774997  90.6599988   9.7020012  49.0974997  89.9079988
   7.8590012  48.4394997  89.1389988   7.1410012  49.2724997  89.1609988
   7.8590012  47.6164997  88.0329988   7.0210012  47.8504997  87.3599988
   8.8130012  46.5504997  87.5759988   8.2800012  45.5754997  87.5709988
   9.6990012  46.4874997  88.2419988   9.4450012  46.8624997  86.1539988
   8.5840012  46.9224997  85.4539988   9.9350012  45.8864997  85.9469988
  10.4580012  47.9604997  86.1789988  11.0310012  47.9434997  87.1299988
   9.7390012  48.7834997  86.3789988  11.1820012  48.2324997  84.8129988
  10.4510012  48.5694997  84.0469988  11.8740012  47.4754997  84.3849988
  11.9800012  49.4854997  84.8859988  12.6730012  49.3674997  85.7459988
  11.2240012  50.2624997  85.1309988  12.7400012  49.9524997  83.6679988
  12.0010012  50.2474997  82.8929988  13.3070012  49.1244997  83.1909988
  13.6330012  51.2254997  83.8509988  13.9660012  51.6334997  82.8719988
  14.5610012  50.9974997  84.4179988  13.0460012  52.4314997  84.6209988
  12.3650012  52.0564997  85.4139988  12.3980012  53.1634997  84.0929988
  13.8560012  53.0014997  85.1249988 142.0340012  76.8034997  83.5779988
 141.4750012  76.9804997  82.6339988 142.3790012  75.7614997  83.4059988
 142.8560012  77.5484997  83.5259988 141.1120012  77.0354997  84.7579988
 140.5860012  77.9994997  84.5859988 140.4230012  76.1644997  84.7309988
 141.6860012  77.1224997  86.2189988 142.3690012  76.2664997  86.4109988
 142.3480012  78.0144997  86.2339988 140.5820012  77.2504997  87.3429988
 139.8590012  76.4064997  87.3559988 140.9860012  77.3594997  88.3709988
 139.5480012  78.4044997  87.2159988 138.9760012  78.3594997  86.2649988
 138.9910012  78.1794997  88.1509988 140.0560012  79.8554997  87.3409988
 140.3920012  80.2814997  86.3709988 139.1480012  80.4154997  87.6539988
 141.1930012  80.1534997  88.4049988 140.8760012  79.9574997  89.4509988
 142.0400012  79.4574997  88.2279988 141.4510012  81.6764997  88.3589988
 141.6640012  81.9574997  87.3059988 140.5080012  82.2194997  88.5839988
 142.7030012  82.1664997  89.0769988 143.6010012  81.7164997  88.6019988
 142.7420012  83.2764997  89.0479988 142.6390012  81.8874997  90.6329988
 141.6910012  82.3554997  90.9749988 142.4960012  80.7914997  90.7449988
 143.8960012  82.3944997  91.2649988 144.6740012  81.6164997  91.1109988
 144.2240012  83.3914997  90.9029988 143.7140012  82.5504997  92.7749988
 144.6590012  83.0664997  93.0499988 142.9480012  83.2774997  93.1179988
 143.5040012  81.2014997  93.5539988 142.4770012  80.7824997  93.4949988
 144.1780012  80.5624997  92.9439988 144.0730012  81.2434997  95.0139988
 143.6550012  80.3284997  95.4849988 145.1790012  81.2954997  95.1009988
 143.2950012  82.1574997  95.9599988 143.7530012  81.8544997  96.9249988
 143.4950012  83.2504997  95.9489988 141.7650012  81.9164997  95.9379988
 141.0320012  82.0544997  94.9679988 141.3840012  81.4154997  97.0729988
 140.0590012  80.7614997  97.1659988 139.3960012  81.2644997  97.9009988
 139.4790012  80.8234997  96.2199988 140.2760012  79.2114997  97.4089988
 139.2870012  78.7134997  97.3279988 141.0140012  78.9864997  98.7669988
 140.4910012  79.6374997  99.5009988 140.7940012  77.9344997  99.0489988
 142.4830012  79.0724997  98.6799988 143.4050012  79.7194997  99.7449988
 142.6080012  79.6504997 101.0789988 142.0040012  80.8214997 101.6259988
 142.7510012  81.6234997 101.8059988 141.2860012  81.1924997 100.8639988
 141.4010012  80.5934997 103.0089988 142.2290012  80.2334997 103.6019988
 141.0410012  81.4674997 103.5319988 140.3650012  79.4644997 103.2129988
 139.1420012  79.6334997 102.3019988 138.5340012  78.7484997 102.4229988
 138.6600012  80.4744997 102.7789988 139.4470012  79.9204997 101.3069988
 140.9320012  78.1344997 102.8769988 141.5770012  77.6424997 103.5909988
 140.1160012  77.4264997 102.8529988 141.3570012  78.1164997 101.8839988
 139.8290012  79.4364997 104.5979988 139.3190012  80.3624997 104.8209988
 140.5960012  79.2424997 105.3329988 139.3460012  78.4744997 104.6849988
 144.6850012  78.9334997  99.7999988 143.4610012  81.1064997  99.2519988
 141.0780012  78.7434997  96.3339988 141.1990012  77.4384997  96.1499988
 140.6870012  76.5204997  96.7659988 141.9720012  77.2464997  94.7629988
 141.8020012  76.2334997  94.3379988 143.0390012  77.4934997  94.9499988
 141.4370012  78.1414997  93.6189988 141.6860012  79.2104997  93.7909988
 140.3310012  78.1754997  93.7269988 142.1010012  77.7234997  92.2789988
 142.1290012  78.7064997  91.7629988 141.5460012  76.9404997  91.7199988
 143.5710012  77.2304997  92.3309988 143.6380012  76.1694997  92.6529988
 144.1480012  77.8564997  93.0449988 144.1820012  77.1294997  90.9659988
 144.0270012  78.0644997  90.3859988 143.6980012  76.3444997  90.3469988
 145.7380012  76.7964997  90.9859988 145.9180012  75.7204997  91.1989988
 146.2030012  77.3034997  91.8579988 146.5150012  77.2564997  89.7389988
 147.6050012  77.0604997  89.8309988 146.4990012  78.3674997  89.7369988
 145.8010012  76.7694997  88.5129988 145.7450012  75.6714997  88.4939988
 145.3260012  77.5274997  87.5369988 144.8280012  77.1764997  86.6209988
 145.3590012  79.1014997  87.3309988 145.9520012  79.6704997  88.0789988
 144.3830012  79.6104997  87.4779988 145.8970012  79.5014997  85.9069988
 146.9740012  79.2414997  85.8199988 145.7390012  80.5924997  85.7709988
 145.1770012  79.0434997  84.5549988 144.1490012  79.4604997  84.6169988
 145.0050012  77.9474997  84.6049988 145.8380012  79.4694997  83.2539988
 146.8660012  79.0674997  83.1329988 145.9860012  80.5694997  83.2999988
 145.1000012  79.0534997  82.0399988 144.7960012  77.9974997  81.8809988
 145.7240012  79.2524997  81.1419988 143.7420012  79.8574997  81.8479988
 143.8990012  80.9494997  81.9819988 143.0020012  79.5874997  82.6309988
 143.2900012  79.6504997  80.3529988 143.2510012  78.5544997  80.1779988
 144.1430012  80.0464997  79.7609988 141.9540012  80.3584997  80.0069988
 141.5720012  80.3844997  78.9649988 142.0950012  81.3964997  80.3789988
 141.0920012  79.9764997  80.5949988  64.3450012   4.1624997  80.4279988
  63.8090012   5.1224997  80.2669988  64.1060012   3.8964997  81.4799988
  63.8190012   3.4504997  79.7559988  65.9240012   4.4194997  80.2979988
  66.3550012   3.4354997  80.5799988  66.1470012   4.7684997  79.2679988
  66.4820012   5.4514997  81.3839988  67.5650012   5.6384997  81.2259988
  65.9750012   6.4184997  81.1789988  66.3530012   5.1664997  82.8369988
  66.6350012   6.0784997  83.4059988  65.2510012   5.1964997  82.9719988
  67.0000012   3.9304997  83.3859988  66.2740012   3.1114997  83.5759988
  67.6370012   3.5624997  82.5539988  67.7620012   4.3464997  84.6469988
  68.3910012   3.4634997  84.8909988  68.4430012   5.1844997  84.3839988
  66.7990012   4.6444997  85.8229988  66.1170012   5.4664997  85.5179988
  66.1510012   3.7714997  86.0489988  67.5740012   5.2234997  86.9739988
  67.8950012   6.2504997  86.6969988  66.9920012   5.3374997  87.9129988
  68.8240012   4.5354997  87.5579988  69.6190012   4.5044997  86.7829988
  69.2500012   5.2174997  88.3249988  68.6650012   3.0584997  87.9839988
  68.4790012   2.4064997  87.1039988  69.6070012   2.7464997  88.4839988
  67.6650012   2.8004997  89.0279988  66.6420012   2.9564997  88.6259988
  67.7650012   1.7394997  89.3419988  67.7970012   3.6404997  90.3609988
  67.7280012   4.7384997  90.2049988  66.8570012   3.4554997  90.9219988
  68.7930012   3.1984997  91.3199988  68.6170012   2.1684997  91.6989988
  69.7940012   3.2374997  90.8399988  68.8300012   4.0524997  92.6429988
  69.7270012   3.8014997  93.2479988  68.7380012   5.1364997  92.4159988
  67.6270012   3.7314997  93.6509988  66.6310012   3.8864997  93.1839988
  67.7330012   2.6334997  93.7889988  67.9480012   4.5174997  94.9509988
  68.7000012   5.4484997  95.0319988  67.3450012   3.9194997  95.9289988
  67.4900012   4.5914997  97.2559988  67.7180012   3.8284997  98.0309988
  68.3640012   5.2764997  97.2829988  66.1240012   5.2834997  97.6879988
  65.9510012   5.9464997  96.8139988  66.2400012   6.1644997  98.9849988
  66.9750012   6.9144997  98.6229988  65.2850012   6.7114997  99.1349988
  66.7640012   5.4584997 100.0989988  65.8200012   5.3724997 101.4249988
  64.8020012   4.3514997 100.8959988  63.6620012   4.1184997 101.7589988
  63.8930012   4.0974997 102.8459988  62.9440012   4.9634997 101.6919988
  62.8590012   2.8294997 101.4659988  61.9140012   2.8574997 101.9879988
  62.5780012   2.9324997 100.4279988  63.4660012   1.4204997 101.5859988
  64.9610012   1.5924997 101.3249988  65.3450012   2.1274997 100.4699988
  65.2820012   2.1984997 102.1589988  65.4400012   0.6274997 101.2449988
  63.2980012   0.7774997 102.9069988  63.6070012  -0.2455003 102.7479988
  63.9340012   1.0074997 103.7479988  62.2470012   0.7284997 103.1519988
  62.8390012   0.4894997 100.5589988  62.7070012   1.0894997  99.6699988
  61.9110012   0.1054997 100.9549988  63.5280012  -0.2925003 100.2739988
  66.5940012   4.7104997 102.4679988  65.1090012   6.5824997 101.6909988
  65.1290012   4.2564997  97.7609988  63.9410012   4.5964997  97.3549988
  63.5470012   5.6394997  96.8659988  63.0220012   3.3494997  97.4199988
  62.1610012   3.7134997  98.0199988  63.3670012   2.4704997  98.0059988
  62.5740012   2.7704997  96.1429988  62.4080012   3.5854997  95.4069988
  61.5740012   2.2984997  96.2449988  63.5300012   1.6904997  95.6399988
  62.9680012   0.7754997  95.9269988  64.6050012   1.6264997  95.9129988
  63.5590012   1.5554997  94.1289988  62.5400012   1.2994997  93.7689988
  64.2890012   0.7734997  93.8289988  64.0360012   2.8224997  93.3809988
  64.8750012   3.3474997  93.8859988  63.2840012   3.6354997  93.2929988
  64.3060012   2.6724997  91.8659988  65.0430012   1.8424997  91.8179988
  64.8840012   3.5314997  91.4609988  63.0210012   2.4984997  91.0039988
  62.3790012   1.6514997  91.3279988  63.3460012   2.1204997  90.0109988
  62.2140012   3.7254997  90.8689988  61.2770012   3.8134997  91.4379988
  62.4720012   4.7084997  89.9979988  61.6970012   5.4804997  89.8829988
  63.6640012   4.7674997  89.0059988  64.2850012   3.8684997  89.2079988
  64.3550012   5.6264997  89.1439988  63.3470012   4.5994997  87.4929988
  64.2540012   4.7304997  86.8649988  62.8120012   5.5414997  87.2469988
  62.6300012   3.2304997  87.0419988  61.6070012   3.3914997  87.4439988
  63.0260012   2.4074997  87.6759988  62.6610012   2.9794997  85.5779988
  63.7290012   2.7194997  85.4159988  62.4480012   3.7984997  84.8579988
  61.8450012   1.7494997  85.0839988  60.7500012   1.9344997  85.0549988
  62.0810012   0.9284997  85.7959988  62.3050012   1.1744997  83.7729988
  61.5810012   0.3964997  83.4499988  63.2610012   0.6214997  83.8919988
  62.4210012   2.1344997  82.6239988  62.9300012   1.5604997  81.8199988
  63.1120012   2.9014997  83.0329988  61.0730012   2.7774997  82.0769988
  60.3260012   1.9844997  81.8599988  61.2850012   3.3664997  81.1579988
  60.6980012   3.5194997  82.8139988 124.7490012 110.1384997  83.2589988
 124.7710012 109.4724997  84.1469988 125.7650012 110.5824997  83.1809988
 124.5430012 109.6714997  82.2719988 123.8440012 111.3564997  83.3639988
 123.9800012 111.8424997  82.3739988 122.7710012 111.0804997  83.4429988
 124.1600012 112.3194997  84.5229988 124.9150012 113.0324997  84.1269988
 123.2040012 112.8304997  84.7629988 124.7490012 111.6954997  85.8249988
 123.9770012 111.4464997  86.5839988 125.2860012 110.7364997  85.6589988
 125.5700012 112.7774997  86.6709988 126.5220012 113.0814997  86.1849988
 124.9490012 113.6944997  86.5789988 125.7020012 112.4694997  88.0579988
 124.7830012 112.3304997  88.6669988 126.3320012 111.5544997  88.0959988
 126.4850012 113.5714997  88.8559988 127.2510012 113.1374997  89.5339988
 127.0370012 114.1604997  88.0929988 125.6140012 114.6334997  89.6149988
 124.9030012 115.0964997  88.8969988 124.9110012 114.1464997  90.3239988
 126.3990012 115.7534997  90.2889988 127.2260012 115.9894997  89.5849988
 125.8510012 116.7184997  90.3389988 127.0850012 115.3164997  91.5669988
 127.8030012 114.4844997  91.4069988 127.8340012 116.0884997  91.8449988
 126.1820012 114.8614997  92.7489988 125.2130012 115.4004997  92.8149988
 125.9210012 113.8004997  92.5429988 126.7820012 115.0834997  94.1359988
 126.9880012 114.0594997  94.5149988 127.6900012 115.7224997  94.1079988
 125.7070012 115.5394997  95.1749988 126.0760012 115.3534997  96.2069988
 125.4370012 116.6034997  95.0009988 124.3150012 114.8824997  95.2489988
 123.8910012 114.6894997  94.2409988 124.4440012 113.8594997  95.6649988
 123.3710012 115.7994997  96.0289988 123.7160012 116.1144997  97.0369988
 123.2390012 116.7104997  95.4069988 122.0190012 115.1174997  96.2569988
 121.0110012 115.3144997  95.6449988 122.1890012 114.0884997  97.0969988
 121.0960012 113.1714997  97.1509988 120.2300012 113.6954997  97.6099988
 120.8800012 112.7544997  96.1449988 121.4510012 111.8524997  97.9529988
 120.5130012 111.2574997  97.9889988 121.9280012 112.0344997  99.4149988
 121.2330012 112.6114997 100.0629988 121.9750012 111.0754997  99.9739988
 123.1830012 112.7134997  99.3829988 124.5010012 111.9764997  99.6299988
 124.7820012 112.1724997 101.1679988 123.9590012 111.6144997 102.2129988
 123.3470012 110.8184997 101.7379988 124.5400012 111.1424997 103.0339988
 123.0410012 112.6794997 102.8419988 122.2330012 112.7114997 102.1269988
 122.6310012 112.3334997 103.7799988 123.5100012 114.0784997 103.1349988
 123.3930012 114.8944997 101.8359988 122.4150012 114.8024997 101.3869988
 123.6420012 115.9204997 102.0649988 124.2130012 114.6294997 101.1849988
 122.6750012 114.6494997 104.2439988 122.6060012 113.8124997 104.9229988
 123.1490012 115.5384997 104.6339988 121.6630012 114.9374997 103.9979988
 124.9400012 113.9994997 103.5539988 125.5260012 113.7384997 102.6849988
 125.0460012 113.2484997 104.3219988 125.2490012 114.9734997 103.9039988
 124.2890012 110.5214997  99.4109988 125.5050012 112.6724997  98.7639988
 122.5370012 111.1844997  97.3379988 122.3250012 110.3104997  96.3919988
 121.2840012 109.7304997  96.1659988 123.6530012 109.9994997  95.6449988
 124.2560012 109.1254997  95.9709988 124.3950012 110.8104997  95.8019988
 123.2650012 109.9644997  94.1379988 122.3450012 109.3764997  93.9349988
 124.1060012 109.4444997  93.6309988 122.9960012 111.3394997  93.5679988
 123.8620012 111.9784997  93.8449988 122.0730012 111.7444997  94.0349988
 122.9170012 111.1944997  92.0249988 122.2870012 110.3294997  91.7269988
 123.8870012 110.8684997  91.5909988 122.3070012 112.4664997  91.3259988
 122.9530012 113.3374997  91.5689988 121.3270012 112.5204997  91.8469988
 122.0720012 112.5834997  89.8279988 121.1630012 111.9804997  89.6159988
 122.9110012 112.0894997  89.2929988 121.8300012 114.1034997  89.3239988
 121.8600012 114.1344997  88.2139988 122.7570012 114.5814997  89.7059988
 120.6700012 114.7994997  89.8749988 120.7980012 115.5094997  90.7059988
 119.4300012 114.5704997  89.5999988 118.6700012 115.2264997  90.0489988
 118.8570012 113.5434997  88.6359988 118.1530012 112.8064997  89.0769988
 119.6450012 112.8484997  88.2749988 118.2150012 114.2094997  87.3879988
 117.3750012 114.8424997  87.7469988 117.8050012 113.3814997  86.7709988
 119.0880012 115.1054997  86.5329988 119.8690012 114.4324997  86.1179988
 119.5850012 115.8934997  87.1389988 118.3550012 115.6394997  85.2719988
 117.5610012 116.3034997  85.6739988 118.0610012 114.7294997  84.7059988
 119.1670012 116.5664997  84.3169988 119.3790012 117.4814997  84.9099988
 118.4810012 116.9214997  83.5189988 120.3170012 115.9394997  83.5689988
 120.6370012 116.6454997  82.7719988 119.7700012 115.0674997  83.1519988
 121.6220012 115.6124997  84.3009988 121.5520012 114.6624997  84.8719988
 121.6360012 116.4254997  85.0579988 122.9120012 115.6034997  83.4689988
 122.9710012 116.5664997  82.9189988 122.8440012 114.8474997  82.6579988
 123.8170012 115.4444997  84.0929988  15.6790012  37.6584997  84.9599988
  15.0930012  36.8914997  84.4099988  15.9340012  38.3424997  84.1229988
  15.1470012  38.3534997  85.6449988  17.0070012  37.1334997  85.5499988
  17.5360012  36.5674997  84.7539988  17.6460012  37.9874997  85.8629988
  16.8020012  36.3114997  86.8129988  16.2160012  37.0414997  87.4109988
  16.0700012  35.4814997  86.7119988  18.1140012  35.7994997  87.4579988
  18.4800012  34.9734997  86.8119988  18.8400012  36.6384997  87.3809988
  18.0490012  35.2514997  88.8479988  17.5300012  34.2704997  88.8779988
  19.0950012  35.1624997  89.2119988  17.3430012  36.1764997  89.9309988
  17.7390012  37.2014997  89.7629988  16.2490012  36.1664997  89.7389988
  17.7640012  35.7304997  91.3859988  17.3310012  34.7334997  91.6149988
  18.8340012  35.4774997  91.5479988  17.5200012  36.7974997  92.4269988
  18.2340012  37.6364997  92.2839988  16.4830012  37.1394997  92.2199988
  17.7800012  36.3744997  93.8669988  17.4200012  35.3244997  93.9099988
  18.8900012  36.3994997  93.9009988  17.0280012  37.3104997  94.8229988
  17.4450012  38.3104997  94.5779988  16.0150012  37.2094997  94.3769988
  17.1110012  37.0014997  96.3059988  16.6470012  35.9934997  96.3479988
  18.1590012  37.1234997  96.6549988  16.3040012  38.0114997  97.0499988
  16.6570012  38.0124997  98.1039988  16.4010012  39.0624997  96.7039988
  14.8070012  37.6404997  97.2729988  14.4210012  38.6404997  97.5639988
  14.4650012  37.4264997  96.2379988  14.6300012  36.5274997  98.3289988
  15.1600012  35.6304997  97.9449988  15.2130012  37.0224997  99.1349988
  13.1420012  36.1884997  98.6789988  12.6050012  37.0964997  99.0269988
  12.6540012  35.6814997  97.8199988  13.3320012  35.2924997  99.8629988
  13.7430012  35.6724997 100.9649988  13.0310012  34.0734997  99.5289988
  13.0120012  33.1264997 100.6019988  12.8950012  33.5174997 101.6349988
  12.2170012  32.3814997 100.3849988  14.3030012  32.2294997 100.5339988
  14.0830012  31.4214997 101.2649988  15.6440012  32.9904997 100.9509988
  15.4660012  33.6104997 101.8549988  16.3060012  32.1394997 101.2199988
  16.1400012  33.7484997  99.8879988  17.6490012  34.1304997  99.9709988
  17.5530012  35.2914997 101.0119988  18.5880012  36.1404997 101.4029988
  19.4940012  35.5054997 101.5019988  18.8360012  36.8894997 100.6209988
  18.3180012  36.7324997 102.7749988  18.2780012  35.8364997 103.3769988
  19.1720012  37.2174997 103.2239988  17.0470012  37.5054997 102.9719988
  15.7520012  36.7394997 103.0459988  15.6740012  36.1164997 102.1669988
  15.6960012  36.1494997 103.9489988  14.9530012  37.4474997 103.2079988
  17.1620012  38.3294997 104.1769988  16.3120012  38.9954997 104.2089988
  17.4150012  37.7704997 105.0659988  18.0300012  38.9254997 103.9409988
  16.8770012  38.4654997 101.7619988  17.6300012  39.2374997 101.7079988
  15.9310012  38.9844997 101.8059988  16.8120012  37.8214997 100.8979988
  18.4660012  33.0574997 100.5449988  18.1090012  34.6354997  98.6299988
  14.2570012  31.6744997  99.1889988  15.2140012  30.9364997  98.7419988
  16.1030012  30.4334997  99.4869988  15.1970012  30.8664997  97.1849988
  14.1870012  30.6884997  96.7579988  16.0450012  30.2074997  96.8989988
  15.5210012  32.2274997  96.5539988  16.4850012  32.6284997  96.9319988
  14.6760012  32.9334997  96.7029988  15.7170012  32.1694997  94.9839988
  16.7070012  31.6954997  94.8089988  15.8120012  33.1724997  94.5149988
  14.4720012  31.6004997  94.2429988  13.4810012  31.9244997  94.6279988
  14.6120012  30.5194997  94.4569988  14.4280012  31.8974997  92.6919988
  13.5370012  31.3894997  92.2639988  15.3470012  31.4504997  92.2559988
  14.3580012  33.4184997  92.3189988  14.2950012  33.5434997  91.2169988
  15.2700012  33.9254997  92.7019988  13.1130012  34.1964997  92.8699988
  13.1220012  34.0354997  93.9689988  12.1480012  33.8564997  92.4349988
  13.3500012  35.6434997  92.5809988  13.9220012  36.1214997  93.3889988
  12.9670012  36.3734997  91.4929988  13.3330012  37.4044997  91.3819988
  12.2130012  35.8834997  90.2659988  11.4210012  36.6434997  90.1009988
  11.6960012  34.9444997  90.5589988  12.9870012  35.7874997  88.9129988
  14.0660012  36.0544997  88.9389988  12.5170012  36.4194997  88.1289988
  13.0590012  34.4084997  88.3929988  12.1730012  33.8374997  88.7439988
  13.9480012  33.9144997  88.8399988  13.2290012  34.3334997  86.8579988
  14.1780012  34.8454997  86.5889988  12.3340012  34.8454997  86.4449988
  13.5020012  32.8954997  86.3709988  14.4230012  32.6194997  86.9269988
  13.8290012  33.0674997  85.3229988  12.3880012  31.9384997  86.4059988
  11.9960012  32.0384997  87.4399988  12.5890012  30.8724997  86.1669988
  11.2810012  32.2904997  85.4889988  11.0110012  33.3634997  85.5899988
  10.3970012  31.6814997  85.7759988  11.6540012  32.0964997  83.9809988
  12.2230012  31.1444997  83.9199988  12.2650012  32.9144997  83.5409988
  10.7820012  32.1944997  83.3009988 141.6840012  69.8594997  83.5289988
 141.4660012  70.7784997  84.1139988 141.2940012  70.0774997  82.5119988
 142.7950012  69.8194997  83.5149988 141.0430012  68.5774997  84.0059988
 139.9410012  68.7194997  84.0219988 141.2500012  67.7584997  83.2839988
 141.5480012  68.0424997  85.3559988 140.9710012  67.1304997  85.6209988
 142.5450012  67.6734997  85.0309988 141.7530012  68.9634997  86.5359988
 142.3780012  68.4764997  87.3149988 142.3530012  69.8434997  86.2219988
 140.4690012  69.4474997  87.2839988 139.9050012  70.1104997  86.5939988
 139.7260012  68.6474997  87.4909988 140.7840012  70.3804997  88.4429988
 141.2840012  69.8274997  89.2669988 141.5560012  71.1024997  88.1019988
 139.5390012  71.0494997  88.8909988 138.8650012  71.2644997  88.0339988
 138.9860012  70.3104997  89.5089988 139.6210012  72.3714997  89.7549988
 139.7560012  73.1504997  88.9749988 138.6270012  72.6024997  90.1949988
 140.8100012  72.3954997  90.7029988 140.7240012  71.5344997  91.3999988
 141.8130012  72.2004997  90.2669988 140.9990012  73.7084997  91.4859988
 141.2420012  74.4394997  90.6849988 139.9790012  73.9224997  91.8709988
 142.0910012  73.7634997  92.5299988 142.1610012  72.7214997  92.9089988
 143.0210012  73.9574997  91.9539988 141.9900012  74.8014997  93.6449988
 141.7810012  75.7794997  93.1599988 141.1270012  74.6044997  94.3159988
 143.2270012  74.8154997  94.5339988 143.4380012  73.8394997  95.0209988
 144.0410012  75.1754997  93.8689988 143.2080012  75.9624997  95.6039988
 144.2620012  76.3054997  95.6759988 142.5910012  76.7704997  95.1559988
 142.9400012  75.5314997  97.0199988 143.5360012  74.7254997  97.4999988
 143.1400012  76.4654997  97.5869988 141.4340012  75.2514997  97.2449988
 140.5690012  76.0084997  96.8639988 141.2460012  74.0904997  97.8919988
 139.9230012  73.8014997  98.3979988 139.8020012  74.3484997  99.3569988
 139.0640012  74.1884997  97.8089988 139.6830012  72.3094997  98.5589988
 138.6130012  72.2324997  98.8459988 140.7220012  71.5244997  99.4619988
 141.0540012  72.1664997 100.3059988 140.0790012  70.7414997  99.9169988
 141.7160012  70.7654997  98.7459988 143.2640012  71.1374997  99.0319988
 143.4920012  71.1424997 100.6779988 142.8920012  70.1234997 101.3429988
 141.8130012  70.3904997 101.3469988 142.9140012  69.1454997 100.8159988
 143.3120012  70.0414997 102.7719988 142.9110012  69.0784997 103.0509988
 144.3850012  69.9644997 102.8659988 142.9250012  71.1214997 103.8469988
 141.4590012  71.0404997 104.0039988 141.2050012  70.0744997 104.4149988
 141.1870012  71.8524997 104.6619988 141.0080012  71.3294997 103.0659988
 143.5420012  70.6354997 105.2159988 143.2870012  71.3774997 105.9589988
 143.0210012  69.7084997 105.4019988 144.5790012  70.4484997 104.9809988
 143.4390012  72.4734997 103.4909988 144.5190012  72.4654997 103.4899988
 143.0640012  73.2264997 104.1679988 143.0200012  72.6284997 102.5079988
 144.1100012  70.0344997  98.5789988 143.6310012  72.5104997  98.4729988
 139.7140012  71.7324997  97.2569988 139.4230012  70.4974997  96.9769988
 139.0650012  69.5974997  97.7759988 139.3970012  70.3964997  95.4819988
 140.1620012  71.0844997  95.0619988 138.4130012  70.7004997  95.0639988
 139.5440012  68.9404997  94.9359988 139.3990012  68.8734997  93.8369988
 138.9900012  68.1514997  95.4879988 141.0700012  68.4974997  95.1169988
 141.1960012  67.4604997  94.7379988 141.3720012  68.5644997  96.1839988
 142.0480012  69.4934997  94.3519988 141.9860012  70.5214997  94.7689988
 141.8140012  69.5714997  93.2689988 143.5260012  69.0014997  94.4459988
 143.6280012  68.0464997  93.8869988 143.7680012  68.9504997  95.5289988
 144.4500012  70.1124997  93.8989988 145.5090012  69.8704997  94.1329988
 144.2980012  71.0694997  94.4419988 144.3440012  70.3804997  92.3409988
 143.3050012  70.7484997  92.2029988 144.4300012  69.4004997  91.8249988
 145.2430012  71.4724997  91.9179988 145.1040012  72.4294997  92.4419988
 146.1990012  71.4854997  91.0429988 146.8530012  72.3694997  91.0499988
 146.6360012  70.3684997  90.1869988 146.0900012  69.4294997  90.4169988
 147.7050012  70.2924997  90.4789988 146.3280012  70.5234997  88.7499988
 145.2740012  70.7874997  88.5169988 146.5270012  69.5604997  88.2319988
 147.1900012  71.5264997  88.0289988 147.2720012  71.2284997  86.9609988
 148.2500012  71.5784997  88.3599988 146.5710012  72.9734997  87.8679988
 147.4870012  73.5784997  87.6959988 146.0410012  73.3124997  88.7839988
 145.5550012  73.1934997  86.6609988 146.1980012  72.7514997  85.8699988
 145.4640012  74.2994997  86.6149988 144.1670012  72.4894997  86.7949988
 143.6330012  72.8614997  87.6949988 144.2550012  71.3824997  86.7489988
 143.2890012  72.7744997  85.5369988 142.2860012  72.3514997  85.7599988
 143.6600012  72.1004997  84.7359988 143.1320012  74.2184997  85.1359988
 143.8630012  74.3584997  84.3109988 143.2340012  74.9454997  85.9699988
 142.0610012  74.3214997  84.8609988  83.3500012 137.2084997  83.2819988
  82.9690012 137.4434997  82.2649988  84.4170012 136.9334997  83.1379988
  83.3440012 138.1524997  83.8669988  82.4420012 136.1304997  83.8099988
  82.3530012 135.3764997  82.9989988  82.9740012 135.6574997  84.6629988
  81.0110012 136.6774997  84.1419988  80.5140012 137.1834997  83.2869988
  80.4330012 135.8044997  84.5139988  80.8800012 137.8004997  85.1399988
  81.6090012 138.5514997  84.7689988  79.8730012 138.2694997  85.1499988
  81.1970012 137.5334997  86.6389988  80.6230012 136.6464997  86.9819988
  82.2920012 137.3794997  86.7439988  80.7960012 138.6324997  87.6109988
  81.3770012 139.5524997  87.3879988  79.7300012 138.8964997  87.4419988
  81.2020012 138.1624997  89.0519988  80.7010012 137.1724997  89.1119988
  82.2850012 137.9184997  88.9979988  80.8310012 139.1214997  90.2099988
  81.2570012 140.1374997  90.0639988  79.7410012 139.2984997  90.3309988
  81.3870012 138.6354997  91.5009988  81.0390012 137.5884997  91.6349988
  82.4850012 138.4754997  91.4439988  81.0320012 139.5184997  92.7289988
  81.6190012 139.1654997  93.6039988  81.1990012 140.5984997  92.5289988
  79.5310012 139.3664997  93.1849988  78.8660012 139.7024997  92.3609988
  79.2850012 138.2834997  93.2209988  79.0400012 140.0324997  94.5259988
  79.2070012 141.1304997  94.5459988  77.9350012 139.9314997  94.4819988
  79.5280012 139.3384997  95.7979988  80.6040012 139.0974997  95.6659988
  79.4130012 140.0814997  96.6169988  78.6030012 138.1774997  96.1889988
  77.6490012 138.6454997  96.5149988  78.4170012 137.4904997  95.3369988
  79.1800012 137.4284997  97.4149988  79.4960012 138.2214997  98.1259988
  78.4020012 136.7564997  97.8379988  80.4970012 136.7604997  97.0169988
  80.8970012 136.7154997  95.8959988  81.0850012 136.3834997  98.1029988
  82.4530012 136.0244997  97.8599988  82.7890012 135.2954997  98.6279988
  82.6800012 135.5214997  96.8949988  83.3910012 137.2154997  98.0819988
  84.4260012 136.8794997  98.3049988  82.9720012 138.1074997  99.2369988
  82.5240012 137.4094997  99.9759988  83.8690012 138.5804997  99.6919988
  82.1140012 139.1924997  98.8919988  81.2550012 139.8364997 100.0119988
  81.0420012 138.7114997 101.0209988  81.0870012 138.8494997 102.4659988
  81.3690012 137.8194997 102.7709988  81.9300012 139.5444997 102.6689988
  79.7480012 139.4534997 103.1039988  79.8750012 139.3564997 104.1719988
  79.8310012 140.5124997 102.9139988  78.3130012 138.9504997 102.7559988
  77.2700012 139.7184997 103.4529988  77.5210012 140.7644997 103.3529988
  76.3390012 139.4634997 102.9679988  77.2120012 139.5874997 104.5229988
  78.0360012 138.8974997 101.2959988  78.6620012 138.0884997 100.9499988
  77.0000012 138.7544997 101.0279988  78.4260012 139.8244997 100.9009988
  78.2510012 137.4834997 103.1039988  78.7300012 137.2214997 104.0359988
  78.7380012 136.9844997 102.2789988  77.2340012 137.1484997 102.9629988
  82.1650012 140.8924997 100.5889988  79.9490012 140.2914997  99.4879988
  83.4540012 137.9364997  96.8439988  84.3710012 138.8954997  96.7049988
  85.3160012 139.0994997  97.3979988  84.0170012 139.8424997  95.5149988
  83.9520012 140.8744997  95.9219988  83.0780012 139.5664997  94.9889988
  85.0920012 139.8874997  94.4779988  85.3930012 138.8804997  94.1169988
  85.9110012 140.4734997  94.9459988  84.6140012 140.6074997  93.2399988
  84.2320012 141.6364997  93.4119988  83.7530012 139.9954997  92.8959988
  85.6820012 140.6594997  92.2089988  86.0410012 139.6434997  91.9359988
  86.5190012 141.2334997  92.6609988  85.2760012 141.3094997  90.8389988
  86.2310012 141.3254997  90.2719988  84.8920012 142.3374997  91.0069988
  84.1380012 140.4554997  90.1869988  83.2210012 140.6054997  90.7969988
  84.4290012 139.3914997  90.3129988  84.0850012 140.6824997  88.6729988
  83.3060012 140.0034997  88.2659988  85.1030012 140.6194997  88.2329988
  83.5490012 142.0934997  88.3939988  82.9040012 142.5314997  89.1689988
  83.7160012 142.8674997  87.3179988  83.2880012 143.8794997  87.2889988
  84.4190012 142.4754997  86.0909988  85.5010012 142.2944997  86.2699988
  84.3850012 143.3484997  85.4039988  83.8560012 141.2164997  85.3949988
  84.0190012 140.3274997  86.0409988  84.4820012 140.9974997  84.5029988
  82.3410012 141.3284997  85.0829988  81.5840012 141.2694997  85.8939988
  82.1130012 140.4614997  84.4259988  81.8540012 142.5554997  84.2779988
  82.3980012 142.5124997  83.3109988  82.1720012 143.5004997  84.7679988
  80.3380012 142.5304997  84.1759988  80.0000012 142.5744997  85.2329988
  80.0290012 141.5804997  83.6909988  79.7410012 143.6894997  83.4049988
  79.9730012 143.5044997  82.3339988  80.2370012 144.5744997  83.8579988
  78.2340012 143.9784997  83.5959988  77.7240012 143.0174997  83.3719988
  77.9400012 144.6824997  82.7889988  77.7460012 144.4424997  84.9939988
  78.1470012 143.7504997  85.7639988  76.6360012 144.4044997  84.9799988
  78.0140012 145.4814997  85.2829988 140.8750012  88.5264997  79.6719988
 139.8310012  88.5914997  80.0449988 140.8930012  88.1744997  78.6189988
 141.1710012  89.5914997  79.7839988 141.7160012  87.6964997  80.7019988
 141.7000012  86.6094997  80.4729988 142.7590012  88.0664997  80.6039988
 141.2720012  87.7334997  82.1709988 141.0270012  88.7944997  82.3909988
 140.3060012  87.1874997  82.2179988 142.3540012  87.0324997  83.0829988
 142.2630012  85.9644997  82.7919988 143.3630012  87.4654997  82.9099988
 142.1710012  87.2034997  84.6079988 141.2460012  86.7224997  84.9909988
 142.9860012  86.6444997  85.1159988 141.9900012  88.6534997  84.9969988
 142.9200012  89.2074997  84.7489988 141.1290012  89.0344997  84.4069988
 141.6300012  88.9304997  86.4779988 141.6030012  90.0274997  86.6499988
 140.6220012  88.4754997  86.5879988 142.6300012  88.3864997  87.4389988
 142.6900012  87.2954997  87.2349988 143.5530012  89.0044997  87.4159988
 142.1280012  88.5574997  88.9259988 142.0500012  89.6414997  89.1559988
 141.1500012  88.0344997  88.9839988 142.9190012  87.8684997  90.1169988
 142.8250012  86.7704997  89.9709988 143.9800012  88.1774997  89.9959988
 142.6940012  88.5114997  91.5529988 141.6900012  88.1614997  91.8749988
 143.4100012  87.9514997  92.1919988 142.8340012  89.9534997  91.6969988
 143.7970012  90.3964997  91.3639988 142.0410012  90.4954997  91.1389988
 142.7200012  90.3814997  93.1529988 141.7550012  90.0384997  93.5839988
 143.4880012  89.7974997  93.7019988 142.8650012  91.8784997  93.3929988
 143.9310012  92.1044997  93.1769988 142.2690012  92.4344997  92.6389988
 142.6870012  92.4934997  94.8049988 143.1270012  91.9254997  95.6529988
 143.0760012  93.5314997  94.8849988 141.2280012  92.6334997  95.0489988
 140.3820012  93.2444997  94.4049988 140.9160012  91.9014997  96.2629988
 139.5790012  91.7834997  96.7019988 139.3380012  92.7424997  97.2079988
 138.8860012  91.7694997  95.8339988 139.2780012  90.5404997  97.5949988
 138.2950012  90.6814997  98.0919988 140.3770012  90.4804997  98.7209988
 141.4050012  90.2584997  98.3609988 140.4840012  91.4804997  99.1949988
 139.9850012  89.7044997  99.8149988 140.2690012  88.1824997  99.6659988
 140.7760012  87.6484997 101.0949988 140.0350012  88.0884997 102.2359988
 138.9370012  87.9284997 102.1759988 140.2600012  87.3964997 103.0759988
 140.3640012  89.4954997 102.7279988 140.0780012  90.1714997 101.9359988
 139.7150012  89.6024997 103.5849988 141.7320012  89.8024997 103.1099988
 142.1050012  88.7674997 104.1349988 141.6950012  89.0504997 105.0929988
 141.7630012  87.7804997 103.8579988 143.1850012  88.7934997 104.1669988
 142.6700012  89.6274997 101.9039988 142.2960012  89.9824997 100.9549988
 143.5520012  90.1984997 102.1549988 142.8850012  88.5834997 101.7249988
 141.8380012  91.2624997 103.4989988 141.7240012  91.8454997 102.5979988
 142.7310012  91.4424997 104.0789988 140.9770012  91.5264997 104.0939988
 138.9960012  87.4914997  99.2779988 141.3790012  88.0404997  98.7159988
 139.3670012  89.3544997  96.7379988 138.3110012  88.9674997  96.1189988
 137.2040012  89.4434997  96.2449988 138.6010012  87.6354997  95.4219988
 137.6230012  87.1744997  95.1669988 139.0520012  86.9644997  96.1839988
 139.4200012  87.7044997  94.1569988 139.9320012  86.7394997  93.9569988
 140.2490012  88.4384997  94.0599988 138.6150012  87.9364997  92.8749988
 137.8810012  87.1044997  92.9229988 139.2810012  87.7334997  92.0089988
 137.8420012  89.2554997  92.8019988 137.1930012  89.4864997  93.6739988
 137.1600012  89.0544997  91.9489988 138.7020012  90.5584997  92.3369988
 139.6110012  90.5114997  92.9749988 138.0180012  91.4244997  92.4619988
 139.0900012  90.4214997  90.8699988 139.7640012  89.5704997  90.6339988
 139.6860012  91.3304997  90.6379988 137.8470012  90.4674997  89.7789988
 137.1240012  89.6464997  89.9719988 138.3730012  90.1724997  88.8459988
 137.2740012  91.8814997  89.6739988 136.7840012  92.2644997  90.5809988
 137.1880012  92.5694997  88.4989988 136.6730012  93.5414997  88.5409988
 137.6330012  92.1734997  87.0859988 136.7890012  92.4604997  86.4239988
 137.7210012  91.0794997  86.9099988 138.8710012  92.8454997  86.5109988
 139.8230012  92.3294997  86.7619988 138.9530012  93.9054997  86.8339988
 138.7970012  92.8724997  84.9609988 137.8430012  93.4034997  84.7539988
 138.8570012  91.8214997  84.6059988 140.0580012  93.5834997  84.2879988
 140.9340012  93.0914997  84.7609988 140.1090012  94.6724997  84.4999988
 140.0460012  93.4604997  82.7509988 139.0480012  93.7624997  82.3669988
 140.0690012  92.4214997  82.3579988 141.2230012  94.2634997  82.1599988
 141.2720012  95.1754997  82.7909988 141.0650012  94.3884997  81.0669988
 142.5780012  93.4764997  82.2879988 142.8850012  93.4644997  83.3559988
 143.3440012  94.0684997  81.7439988 142.4590012  92.0604997  81.8459988
 143.4390012  91.5404997  81.7879988 141.9440012  92.0224997  80.8619988
 141.8510012  91.5334997  82.6119988  23.0410012  22.4684997  82.0039988
  22.1640012  21.8254997  82.2319988  23.3380012  22.2214997  80.9619988
  22.7070012  23.5264997  81.9429988  24.0200012  22.2534997  83.1469988
  24.3810012  21.2274997  82.9189988  24.9000012  22.9184997  83.0189988
  23.5010012  22.4374997  84.5389988  23.0580012  23.4294997  84.7669988
  22.7550012  21.6984997  84.9019988  24.6100012  22.4354997  85.6499988
  24.6560012  21.3954997  86.0399988  25.6220012  22.6144997  85.2289988
  24.3440012  23.2444997  86.9679988  23.2850012  23.2644997  87.3009988
  24.9990012  22.7974997  87.7469988  24.7070012  24.7124997  86.7359988
  25.6030012  24.8344997  86.0889988  23.8000012  25.2494997  86.3859988
  24.9690012  25.3054997  88.1289988  24.7950012  26.3984997  88.0259988
  24.2080012  24.8694997  88.8109988  26.4410012  24.9504997  88.6219988
  26.4290012  24.0474997  89.2699988  27.1670012  24.6404997  87.8399988
  27.0020012  26.0404997  89.5549988  27.9950012  25.6424997  89.8539988
  27.0920012  27.0054997  89.0129988  26.1760012  26.2694997  90.8709988
  26.7160012  26.9984997  91.5119988  25.2220012  26.7704997  90.5999988
  25.9470012  25.0014997  91.7399988  25.2190012  25.2944997  92.5259988
  25.4050012  24.2314997  91.1499988  27.1810012  24.1954997  92.1769988
  26.8160012  23.4014997  92.8639988  27.5640012  23.6244997  91.3049988
  28.2490012  25.1404997  92.8159988  28.6530012  25.7814997  92.0029988
  27.7220012  25.7314997  93.5949988  29.3100012  24.4004997  93.6019988
  29.0550012  23.5374997  94.2529988  29.9720012  23.8264997  92.9199988
  30.2560012  25.4394997  94.3249988  31.1900012  24.8734997  94.5309988
  30.5620012  26.3684997  93.7979988  29.6590012  25.9524997  95.6549988
  28.7980012  26.8104997  95.6539988  30.1540012  25.2444997  96.7109988
  29.3800012  25.4504997  97.9859988  29.9860012  25.0604997  98.8319988
  29.1720012  26.5314997  98.1369988  28.0990012  24.6194997  98.1019988
  27.3720012  25.1074997  97.4189988  27.4970012  24.6864997  99.5159988
  27.7060012  25.6364997 100.0529988  26.4280012  24.6974997  99.2129988
  27.8180012  23.4834997 100.2619988  28.1200012  23.6764997 101.7779988
  26.7430012  24.0404997 102.3869988  25.7120012  23.0844997 102.4209988
  26.0890012  22.0844997 102.7249988  25.0120012  23.3364997 103.2459988
  24.7650012  23.2004997 101.2089988  25.2050012  22.9284997 100.2609988
  24.0260012  22.4234997 101.3399988  23.9490012  24.4924997 101.0009988
  24.7190012  25.7694997 101.3519988  25.3450012  25.6964997 102.2279988
  25.5000012  26.0254997 100.6509988  23.9830012  26.5444997 101.5099988
  23.5730012  24.4874997  99.5089988  23.0340012  25.3994997  99.2969988
  24.3910012  24.3574997  98.8159988  22.8930012  23.6604997  99.3689988
  22.7000012  24.5794997 101.8879988  22.0410012  23.7484997 101.6849988
  22.1450012  25.4264997 101.5129988  23.0360012  24.6564997 102.9119988
  28.5110012  22.3194997 102.2829988  29.0030012  24.8424997 102.0909988
  28.3280012  23.2484997  97.7149988  27.1710012  22.5454997  97.5129988
  26.0580012  23.0074997  97.5019988  27.5250012  21.1234997  97.1349988
  26.8000012  20.3464997  97.4579988  28.5490012  20.8304997  97.4489988
  27.6860012  21.0104997  95.6449988  28.5120012  21.6234997  95.2249988
  26.7490012  21.2484997  95.0969988  28.0410012  19.5114997  95.2459988
  27.7000012  18.8544997  96.0739988  29.1390012  19.3904997  95.1319988
  27.3290012  19.1324997  93.9369988  26.2320012  19.0974997  94.1049988
  27.6860012  18.0814997  93.9079988  27.7840012  19.8024997  92.6799988
  27.3440012  20.8194997  92.5989988  27.2750012  19.3044997  91.8269988
  29.2370012  19.7114997  92.4389988  29.6040012  18.7104997  92.7539988
  29.7020012  20.4294997  93.1479988  29.7180012  20.3104997  90.9959988
  29.0420012  21.1554997  90.7439988  29.2760012  19.4824997  90.4009988
  31.0910012  20.4554997  90.4779988  31.8240012  20.1214997  91.2269988
  31.3960012  20.8264997  89.2359988  32.4620012  20.9364997  88.9879988
  30.4760012  21.1084997  88.1179988  29.3970012  20.9454997  88.3249988
  30.7050012  20.5554997  87.1819988  30.4830012  22.6344997  87.8379988
  31.5220012  22.9454997  87.5959988  30.2250012  23.1834997  88.7679988
  29.6890012  23.2504997  86.6649988  28.6140012  23.0144997  86.8159988
  29.9300012  22.7164997  85.7209988  29.8850012  24.7814997  86.6309988
  30.9670012  24.9884997  86.7739988  29.3290012  25.2834997  87.4509988
  29.3810012  25.3544997  85.2839988  29.6830012  26.4194997  85.1869988
  28.2870012  25.3154997  85.4749988  29.7560012  24.6354997  83.9829988
  29.1210012  23.7284997  83.8859988  30.8310012  24.3674997  84.0589988
  29.4970012  25.5764997  82.8439988  30.1200012  26.4964997  82.8579988
  28.4190012  25.8194997  82.7279988  29.7570012  24.8664997  81.4829988
  30.8590012  24.7264997  81.4639988  29.6000012  25.5284997  80.6049988
  29.1620012  23.9414997  81.3289988 114.7010012  17.1924997  85.0669988
 115.7040012  16.9214997  84.6719988 114.2880012  18.0894997  84.5569988
 113.9580012  16.3884997  84.8799988 114.7790012  17.3584997  86.5609988
 113.7270012  17.4184997  86.9139988 115.1360012  16.4504997  87.0929988
 115.3910012  18.6874997  86.9989988 116.3030012  18.8554997  86.3869988
 114.8420012  19.5194997  86.5099988 115.6260012  18.9724997  88.5069988
 116.5580012  18.4204997  88.7549988 115.7390012  20.0764997  88.5679988
 114.6230012  18.4824997  89.5679988 113.7080012  19.0504997  89.2919988
 114.3820012  17.4084997  89.4209988 114.9610012  18.8744997  91.0079988
 115.0520012  19.9724997  91.1559988 114.1800012  18.5144997  91.7119988
 116.3050012  18.1424997  91.4469988 116.2100012  17.0524997  91.2559988
 117.0780012  18.5104997  90.7399988 116.7040012  18.2684997  92.9209988
 117.6490012  17.7094997  93.0899988 116.8780012  19.3584997  93.0449988
 115.6760012  17.9444997  94.1069988 114.8880012  18.7154997  93.9699988
 115.2140012  16.9404997  93.9879988 116.3610012  18.0894997  95.4789988
 116.9380012  17.1714997  95.7219988 116.9320012  19.0374997  95.5729988
 115.3390012  18.1144997  96.6559988 114.6940012  17.2204997  96.5239988
 115.9610012  18.0764997  97.5749988 114.3660012  19.3094997  96.6369988
 114.8390012  20.2904997  96.4189988 113.5530012  19.1434997  95.8979988
 113.6910012  19.5414997  98.0249988 114.4220012  19.9494997  98.7549988
 112.9380012  20.3234997  97.7879988 113.0280012  18.3214997  98.6009988
 113.8080012  17.6274997  98.9819988 112.4630012  18.5684997  99.5249988
 112.0540012  17.5994997  97.6499988 111.1330012  18.1984997  97.4889988
 112.5500012  17.4054997  96.6739988 111.5950012  16.1514997  98.0369988
 111.4520012  15.3144997  97.1959988 111.6800012  15.9764997  99.3359988
 111.7040012  14.7504997  99.9789988 111.0380012  14.8434997 100.8639988
 111.2030012  13.9624997  99.3769988 113.1100012  14.3804997 100.5299988
 113.0270012  13.3494997 100.9359988 113.5930012  15.3914997 101.5899988
 113.5890012  16.3814997 101.0859988 112.7940012  15.5194997 102.3509988
 114.8140012  14.9884997 102.2109988 115.8470012  16.0694997 102.7709988
 115.9300012  17.0944997 101.5169988 116.5060012  16.8514997 100.3259988
 116.2950012  15.7984997 100.0449988 116.1380012  17.4814997  99.4889988
 118.0520012  17.1164997 100.2499988 118.5630012  16.5094997 100.9819988
 118.4230012  16.8504997  99.2709988 118.5360012  18.6084997 100.5329988
 117.9480012  19.4414997  99.4269988 118.2840012  19.0714997  98.4689988
 116.8790012  19.5384997  99.5489988 118.2940012  20.4574997  99.5439988
 118.1240012  19.0974997 101.8339988 117.0540012  19.2294997 101.8979988
 118.3870012  18.4584997 102.6639988 118.5260012  20.0894997 101.9799988
 120.0360012  18.6134997 100.4099988 120.3900012  19.6344997 100.3799988
 120.3940012  18.0894997  99.5359988 120.5480012  18.1774997 101.2549988
 115.3580012  16.7294997 103.9969988 117.1350012  15.3014997 102.9039988
 114.0330012  14.3774997  99.4529988 113.9880012  13.3384997  98.6169988
 113.4170012  12.2894997  98.7389988 114.6580012  13.6944997  97.2879988
 115.7220012  13.4094997  97.4319988 114.6880012  14.7774997  97.0449988
 114.2090012  12.8234997  96.1549988 114.1740012  11.7434997  96.4139988
 115.0280012  12.9044997  95.4089988 112.9050012  13.1804997  95.2749988
 112.0160012  12.9894997  95.9139988 112.8850012  12.3544997  94.5329988
 112.8590012  14.4824997  94.4789988 113.7580012  14.8134997  93.9159988
 112.7190012  15.2654997  95.2549988 111.7450012  14.4024997  93.4269988
 110.7760012  14.0964997  93.8739988 112.0110012  13.5714997  92.7389988
 111.5480012  15.7034997  92.7239988 111.9490012  16.5194997  93.3619988
 110.4760012  15.9544997  92.5689988 112.2810012  15.9314997  91.3169988
 113.3090012  15.5254997  91.4259988 112.2600012  17.0264997  91.1269988
 111.6090012  15.3474997  90.0989988 110.6650012  15.7574997  89.7089988
 111.9730012  14.2274997  89.3419988 111.2790012  13.8504997  88.5759988
 113.1880012  13.3484997  89.6329988 113.0140012  12.2504997  89.6359988
 113.7300012  13.7224997  90.5269988 114.2190012  13.7734997  88.4969988
 115.2200012  13.3554997  88.7349988 114.3710012  14.8734997  88.5349988
 113.7060012  13.3034997  87.0839988 112.8200012  13.9184997  86.8159988
 113.3620012  12.2484997  87.1329988 114.6620012  13.3554997  85.9069988
 115.5280012  12.6674997  86.0179988 115.0680012  14.3894997  85.8849988
 113.9660012  13.1284997  84.5879988 113.2700012  13.9814997  84.4359988
 113.3500012  12.2054997  84.5269988 114.9070012  13.1984997  83.4579988
 115.7440012  12.5264997  83.7429988 115.2680012  14.2424997  83.3379988
 114.3660012  12.7284997  82.1319988 113.9920012  11.6954997  82.2969988
 115.2270012  12.5884997  81.4429988 113.2170012  13.5594997  81.5449988
 113.0750012  13.2684997  80.4819988 113.4700012  14.6374997  81.6379988
 112.2930012  13.3274997  82.1159988 105.2250012   8.4924997  84.1479988
 105.3160012   7.7514997  84.9699988 106.1550012   9.0984997  84.1119988
 105.1470012   7.8864997  83.2199988 104.0380012   9.3554997  84.4669988
 103.9480012  10.1504997  83.6959988 103.1170012   8.7494997  84.3339988
 103.9770012  10.0214997  85.8899988 103.9430012   9.1764997  86.6109988
 104.9620012  10.4874997  86.1089988 102.9350012  11.0684997  86.1439988
 103.1030012  11.8994997  85.4249988 101.9470012  10.6264997  85.8939988
 103.0080012  11.6614997  87.6029988 104.0750012  11.8754997  87.8279988
 102.4600012  12.6254997  87.6669988 102.3710012  10.7144997  88.6339988
 101.2630012  10.6654997  88.5609988 102.7790012   9.6874997  88.5149988
 102.8560012  11.1614997  90.0429988 103.9020012  11.5354997  90.0259988
 102.1100012  11.9204997  90.3629988 102.8540012   9.9694997  91.0039988
 102.0540012   9.2164997  90.8349988 103.8110012   9.4594997  90.7629988
 102.7800012  10.3844997  92.4109988 103.6260012  11.0224997  92.7449988
 101.8040012  10.8504997  92.6649988 102.9010012   9.1574997  93.3779988
 102.8980012   9.5744997  94.4079988 101.9350012   8.6214997  93.2559988
 104.0710012   8.2324997  93.0629988 103.9250012   7.5754997  92.1799988
 104.9860012   8.8504997  92.9379988 104.2620012   7.1954997  94.1779988
 103.3900012   6.5144997  94.0849988 105.2170012   6.6624997  93.9839988
 104.3350012   7.6564997  95.6149988 103.4680012   8.2944997  95.8899988
 104.3990012   6.8604997  96.3869988 105.6570012   8.5074997  95.6789988
 106.4430012   7.7304997  95.7989988 105.8680012   8.9174997  94.6679988
 105.7530012   9.4594997  96.8489988 105.4430012   9.0064997  97.8149988
 106.7840012   9.8424997  97.0069988 104.8020012  10.5504997  96.5279988
 104.8760012  11.1744997  95.4769988 103.9170012  10.6634997  97.5669988
 102.7340012  11.3484997  97.1249988 102.9700012  12.4334997  97.1789988
 102.4890012  11.2114997  96.0499988 101.4440012  10.9334997  98.0139988
 100.6230012  11.6114997  97.6979988 101.6930012  11.1904997  99.5499988
 102.6470012  10.6434997  99.7039988 101.9520012  12.2414997  99.7999988
 100.5660012  10.6694997 100.3599988 100.6740012  10.5844997 101.9039988
 100.8110012   8.9574997 102.0459988 100.4540012   8.0074997 101.0629988
  99.9200012   7.0904997 101.3929988  99.7870012   8.3414997 100.2399988
 101.7190012   7.4514997 100.3129988 101.4620012   6.5204997  99.8289988
 101.9880012   8.1704997  99.5539988 102.9310012   7.0084997 101.1819988
 103.5950012   8.2914997 101.6049988 103.9500012   8.8444997 100.7469988
 102.8510012   8.8414997 102.1629988 104.4110012   8.1794997 102.3029988
 102.6690012   6.1234997 102.4169988 101.6930012   6.3504997 102.8199988
 102.8570012   5.0804997 102.2089988 103.3180012   6.3954997 103.2359988
 103.8750012   6.2914997 100.3129988 104.8890012   6.5504997 100.5789988
 103.8000012   6.7034997  99.3169988 103.6980012   5.2294997 100.2349988
 101.9280012  11.1374997 102.4089988  99.4380012  11.0064997 102.5679988
 101.1040012   9.5204997  97.8739988 100.6850012   9.1754997  96.5549988
 100.5520012   9.8984997  95.6249988 100.4560012   7.6764997  96.4759988
 100.3250012   7.3154997  97.5179988 101.4130012   7.2824997  96.0729988
  99.2320012   7.3484997  95.6549988  99.3750012   7.8004997  94.6499988
  98.3590012   7.7774997  96.1919988  98.9220012   5.8094997  95.5619988
  97.9580012   5.5084997  95.0989988  99.0910012   5.3504997  96.5589988
 100.0360012   5.0104997  94.7849988  99.7630012   3.9404997  94.9079988
 101.0180012   5.1744997  95.2779988 100.2360012   5.2564997  93.2559988
 101.1220012   4.7144997  92.8629988 100.3120012   6.3454997  93.0499988
  98.9330012   4.8714997  92.4319988  98.1400012   5.5544997  92.8059988
  98.6750012   3.8674997  92.8309988  99.1510012   4.9424997  90.9029988
  98.4130012   4.2624997  90.4279988 100.1150012   4.4774997  90.6069988
  99.0450012   6.3924997  90.4329988  98.2240012   6.8944997  90.9669988
  99.7470012   7.0514997  89.5859988  99.3860012   8.0794997  89.4299988
 100.9370012   6.6534997  88.7439988 101.5020012   5.8284997  89.2269988
 101.6370012   7.4534997  88.4209988 100.5260012   6.1454997  87.2659988
 100.0960012   5.1224997  87.3019988 101.5440012   6.0404997  86.8329988
  99.6270012   7.0094997  86.4389988 100.1910012   7.9574997  86.3049988
  98.6700012   7.1394997  86.9879988  99.3300012   6.4174997  85.0939988
  98.9190012   5.3874997  85.1479988 100.2510012   6.2364997  84.4979988
  98.3130012   7.2344997  84.2209988  98.0020012   6.5124997  83.4359988
  98.9060012   7.9424997  83.6049988  97.0630012   7.8184997  84.9459988
  97.3290012   8.6754997  85.6009988  96.6870012   6.9494997  85.5259988
  96.0370012   8.5574997  84.0749988  95.5460012   7.9824997  83.2599988
  96.4820012   9.4474997  83.5809988  94.9690012   9.1804997  84.9689988
  95.3670012   9.8744997  85.7399988  94.3870012   8.3534997  85.4269988
  94.3470012   9.7624997  84.2549988 107.2560012  16.4714997  79.4059988
 108.0900012  17.0514997  79.8559988 106.3720012  16.7894997  79.9989988
 107.1310012  16.8834997  78.3819988 107.5250012  14.9024997  79.2429988
 106.7990012  14.3174997  78.6389988 108.4910012  14.8574997  78.6959988
 107.5290012  14.1094997  80.5909988 106.7350012  14.5464997  81.2339988
 107.3100012  13.0244997  80.4969988 108.7380012  14.4294997  81.4009988
 109.6030012  13.9654997  80.8809988 108.8490012  15.5274997  81.2789988
 108.7190012  14.1714997  82.8819988 108.0070012  14.9484997  83.2329988
 108.2200012  13.2094997  83.1249988 110.1400012  14.1934997  83.4409988
 110.7290012  13.3664997  82.9889988 110.5160012  15.1984997  83.1519988
 110.2270012  14.1814997  84.9719988 109.8460012  13.2384997  85.4189988
 111.2770012  14.3134997  85.3109988 109.4660012  15.3754997  85.5129988
 109.9230012  16.2774997  85.0529988 108.4290012  15.1834997  85.1619988
 109.5520012  15.5514997  87.0389988 110.5530012  15.4064997  87.4979988
 109.3320012  16.5974997  87.3419988 108.5840012  14.6404997  87.8019988
 108.5870012  13.6474997  87.3039988 109.0810012  14.4954997  88.7859988
 107.1270012  15.2484997  88.0439988 107.2160012  16.2574997  88.5019988
 106.6050012  15.3964997  87.0739988 106.2620012  14.3964997  89.0069988
 105.4950012  15.1554997  89.2739988 105.7490012  13.5164997  88.5639988
 106.8610012  14.0174997  90.3739988 106.1170012  13.5244997  91.0359988
 107.6850012  13.2984997  90.1749988 107.4160012  15.2264997  91.1579988
 108.2330012  15.6164997  90.5139988 106.6150012  15.9954997  91.1899988
 107.8940012  14.9174997  92.5669988 108.4720012  13.9704997  92.5199988
 108.6610012  15.6654997  92.8609988 106.6580012  14.9204997  93.4669988
 105.5720012  14.9304997  93.0859988 107.1200012  14.9164997  94.6839988
 106.1990012  14.5134997  95.6809988 105.7190012  15.4254997  96.0969988
 105.4830012  13.8024997  95.2169988 106.9570012  13.8764997  96.9019988
 106.0070012  13.6394997  97.4269988 107.7930012  14.9424997  97.5859988
 108.5210012  15.4354997  96.9059988 107.1020012  15.7754997  97.8359988
 108.5430012  14.4764997  98.6529988 107.7260012  14.2504997  99.9879988
 108.8370012  13.7444997 100.9989988 108.5430012  13.7284997 102.4219988
 108.4750012  14.7464997 102.8619988 107.5260012  13.3294997 102.6239988
 109.6430012  12.8754997 103.2259988 110.5830012  13.4084997 103.2159988
 109.2490012  12.7464997 104.2229988 110.2340012  11.5344997 102.7829988
 110.6980012  11.5784997 101.3139988 111.1730012  12.5194997 101.0759988
 111.2390012  10.6724997 101.0879988 109.8080012  11.4214997 100.7219988
 111.4700012  11.2674997 103.7069988 112.3270012  11.8844997 103.4819988
 111.2730012  11.1764997 104.7649988 111.8310012  10.3044997 103.3779988
 109.1500012  10.5344997 102.9629988 108.9260012  10.2804997 103.9889988
 109.4330012   9.6054997 102.4899988 108.2340012  10.9764997 102.6009988
 107.1840012  15.5664997 100.4069988 106.7460012  13.1264997  99.7179988
 107.7370012  12.7134997  96.4849988 106.9780012  11.6114997  96.3209988
 105.7750012  11.4944997  96.6449988 107.8740012  10.5084997  95.7869988
 107.4640012   9.5404997  96.1479988 108.9080012  10.6094997  96.1799988
 107.9730012  10.3754997  94.2979988 106.9950012  10.4494997  93.7749988
 108.1540012   9.3064997  94.0569988 109.1510012  11.1584997  93.7309988
 110.1030012  10.7504997  94.1329988 109.0690012  12.2504997  93.9199988
 109.2200012  11.0224997  92.2039988 108.4270012  11.6344997  91.7239988
 108.9390012   9.9864997  91.9179988 110.6140012  11.4024997  91.7159988
 111.3400012  10.6594997  92.1099988 110.8480012  12.4574997  91.9709988
 110.6440012  11.2334997  90.1649988 109.8300012  11.8104997  89.6749988
 110.4000012  10.1934997  89.8609988 111.9560012  11.7564997  89.6609988
 112.6750012  10.9394997  89.8869988 112.2540012  12.6744997  90.2119988
 111.9910012  12.1114997  88.2289988 112.1240012  13.1924997  88.0739988
 111.9500012  11.2744997  87.2189988 112.1260012  11.7934997  86.2649988
 111.7880012   9.7864997  87.2549988 111.9710012   9.2364997  88.2029988
 112.5080012   9.4514997  86.4779988 110.4200012   9.3214997  86.6669988
 109.5660012   9.6544997  87.2949988 110.4680012   8.2194997  86.5339988
 110.2070012   9.7584997  85.1479988 111.1210012   9.6394997  84.5289988
 109.9760012  10.8354997  85.2909988 109.0400012   9.1394997  84.4349988
 109.2530012   8.0864997  84.1529988 108.8960012   9.6304997  83.4489988
 107.7080012   9.0404997  85.2479988 107.7890012   8.4704997  86.1979988
 107.1500012   8.3114997  84.6219988 106.8770012  10.3304997  85.3709988
 107.4800012  11.0974997  85.9039988 105.9830012  10.1024997  85.9889988
 106.5000012  10.8794997  84.0239988 106.0870012  10.1764997  83.2689988
 107.4160012  11.2664997  83.5289988 105.5140012  12.0644997  83.9859988
 105.1800012  12.2234997  82.9379988 106.0680012  12.9764997  84.2979988
 104.7070012  11.9024997  84.7319988   5.4260012 119.6794997  84.2619988
   4.9310012 120.0714997  83.3479988   5.8120012 118.6384997  84.2189988
   6.3060012 120.2994997  84.5369988   4.5000012 119.6214997  85.5129988
   4.0740012 120.6194997  85.7509988   3.5930012 118.9974997  85.3649988
   5.2040012 118.9594997  86.7329988   5.6070012 117.9584997  86.4679988
   6.0510012 119.5914997  87.0729988   4.2270012 118.9314997  87.8959988
   4.2510012 119.8904997  88.4579988   3.1390012 118.7584997  87.7519988
   4.6130012 117.7284997  88.8919988   3.7900012 117.3974997  89.5599988
   4.7260012 116.9204997  88.1369988   5.9080012 117.8944997  89.7099988
   6.2660012 116.9744997  90.2199988   6.6930012 118.0664997  88.9419988
   5.8280012 118.8734997  90.8699988   6.7240012 118.8264997  91.5249988
   5.8690012 119.8544997  90.3509988   4.5270012 118.7424997  91.5829988
   3.6990012 119.2594997  91.0539988   4.3620012 117.6474997  91.6699988
   4.5470012 119.3924997  93.0019988   3.5490012 119.2334997  93.4619988
   5.2620012 118.7974997  93.6099988   4.7500012 120.9094997  93.0499988
   5.7640012 120.9864997  92.6029988   3.9500012 121.1994997  92.3359988
   4.7830012 121.5664997  94.4159988   3.8200012 121.3414997  94.9239988
   5.6050012 121.1844997  95.0579988   4.9240012 123.0934997  94.5859988
   5.8520012 123.3354997  94.0259988   4.0780012 123.6744997  94.1589988
   5.0440012 123.6184997  96.0339988   5.8900012 123.0934997  96.5269988
   5.3740012 124.6794997  96.0119988   3.8160012 123.3944997  96.8929988
   2.8940012 123.7194997  96.3649988   3.6440012 122.3184997  97.1089988
   3.9850012 124.1154997  98.2479988   4.7000012 123.5424997  98.8759988
   4.3570012 125.1534997  98.1139988   2.6260012 124.4074997  98.9989988
   1.8070012 125.1834997  98.5149988   2.4410012 123.6094997 100.0609988
   1.1340012 123.7024997 100.7229988   1.2480012 123.6564997 101.8269988
   0.4110012 124.4944997 100.4349988   0.3990012 122.3354997 100.3429988
  -0.5829988 122.2544997 100.8569988   1.1360012 121.1764997 100.9839988
   1.3270012 121.2904997 102.0719988   0.4500012 120.3044997 100.9209988
   2.4530012 120.9744997 100.3889988   2.7380012 119.5914997  99.5179988
   3.9730012 118.9504997 100.2499988   4.7310012 119.6044997 101.2439988
   5.7070012 119.0764997 101.2989988   4.9520012 120.5994997 100.8019988
   4.1330012 119.6174997 102.6829988   4.8330012 120.1504997 103.3089988
   3.3490012 120.3594997 102.6499988   3.6490012 118.3144997 103.3889988
   2.4130012 117.7674997 102.6829988   2.6940012 117.6254997 101.6499988
   2.0720012 116.8604997 103.1609988   1.5930012 118.4694997 102.6429988
   4.7900012 117.2794997 103.3459988   5.2630012 117.3704997 102.3789988
   5.4820012 117.4794997 104.1499988   4.4680012 116.2604997 103.4989988
   3.3060012 118.6314997 104.8269988   2.7910012 119.5734997 104.9429988
   4.1370012 118.4924997 105.5029988   2.4670012 118.0314997 105.1449988
   1.6970012 118.5714997  99.7169988   3.2890012 119.9224997  98.1359988
   0.2690012 122.2194997  98.8699988  -0.8279988 121.4214997  98.4819988
  -1.5929988 120.8804997  99.2169988  -0.9029988 121.4084997  97.0019988
  -1.0849988 122.4064997  96.5489988  -1.7709988 120.7934997  96.6809988
   0.4350012 120.7704997  96.4319988   0.8300012 119.9054997  97.0059988
   1.2450012 121.5244997  96.5379988   0.3540012 120.2404997  94.9599988
  -0.4479988 119.4754997  94.8819988   1.2820012 119.6404997  94.8449988
   0.1610012 121.3124997  93.8999988   0.7060012 122.2674997  94.0569988
  -0.8699988 121.7034997  93.7609988   0.5210012 120.8234997  92.5369988
  -0.0259988 119.8614997  92.4399988   1.6120012 120.6214997  92.4799988
   0.0230012 121.7324997  91.3359988  -1.0609988 121.8994997  91.5159988
  -0.0099988 121.1554997  90.3869988   0.7450012 123.0364997  91.2179988
   1.7950012 122.7324997  91.0209988   0.7410012 123.6754997  92.1269988
   0.3440012 123.8654997  89.9809988  -0.7189988 124.1414997  89.9249988
   1.2330012 124.3704997  89.1289988   0.9270012 125.0124997  88.2889988
   2.7680012 124.1784997  89.3089988   3.1560012 124.2054997  90.3499988
   3.2830012 125.0354997  88.8239988   3.3770012 122.9104997  88.6169988
   2.6790012 122.0484997  88.5449988   4.2480012 122.5514997  89.2069988
   3.8540012 123.1274997  87.1609988   4.5400012 122.2704997  86.9899988
   4.4150012 124.0844997  87.1079988   2.7490012 123.2454997  86.1009988
   2.0120012 123.9854997  86.4809988   2.2440012 122.2554997  86.0889988
   3.0230012 123.6344997  84.6459988   3.5030012 122.8004997  84.0909988
   3.8120012 124.4154997  84.6169988   1.7860012 124.0714997  83.7929988
   2.1250012 124.5684997  82.8589988   1.3240012 124.9024997  84.3679988
   1.0210012 122.8634997  83.2839988   0.0130012 123.3254997  83.2069988
   1.0810012 122.0534997  84.0419988   1.5520012 122.2084997  82.0159988
   0.9540012 121.2884997  81.8429988   2.5900012 121.8244997  82.1109988
   1.3990012 122.8014997  81.0879988  58.3270012 141.6584997  84.6319988
  58.3100012 140.6554997  84.1549988  59.3410012 142.0564997  84.4099988
  57.5550012 142.3774997  84.2839988  57.9570012 141.4664997  86.0949988
  56.9360012 141.0374997  86.1719988  58.6520012 140.7494997  86.5829988
  58.0470012 142.8014997  86.8969988  57.8960012 143.6734997  86.2259988
  57.3950012 142.7644997  87.7959988  59.4580012 142.9134997  87.5929988
  60.2240012 142.6214997  86.8429988  59.7920012 143.9314997  87.8849988
  59.7140012 141.9024997  88.8349988  59.5880012 140.8464997  88.5119988
  60.7850012 142.0484997  89.0909988  58.8560012 142.1754997  90.0189988
  57.7890012 142.0194997  89.7509988  59.1590012 141.3394997  90.6849988
  59.1410012 143.5504997  90.6059988  60.1950012 143.8384997  90.4059988
  58.4530012 144.3304997  90.2139988  58.7910012 143.4934997  92.1509988
  57.7440012 143.1254997  92.1989988  59.3560012 142.7374997  92.7379988
  58.8240012 144.8904997  92.8609988  59.8210012 145.3764997  92.8139988
  58.2300012 145.4944997  92.1409988  58.2550012 144.7684997  94.2779988
  57.2000012 144.4214997  94.2589988  58.9030012 143.9974997  94.7469988
  58.4840012 146.0754997  95.0809988  58.5180012 145.8124997  96.1599988
  59.5010012 146.4104997  94.7869988  57.5760012 147.1964997  94.7149988
  57.9800012 148.2174997  94.5489988  57.0900012 146.8644997  93.7719988
  56.4970012 147.4734997  95.7779988  57.0460012 147.8774997  96.6549988
  55.7620012 148.1914997  95.3559988  55.5520012 146.2654997  96.3139988
  54.6410012 146.7864997  96.6789988  55.2380012 145.6604997  95.4359988
  56.2010012 145.3784997  97.4009988  57.0110012 144.7104997  97.0389988
  56.6190012 146.0734997  98.1609988  55.0430012 144.5984997  98.0469988
  54.6920012 144.6504997  99.1839988  54.6140012 143.6954997  97.1069988
  53.6810012 142.6304997  97.5649988  52.9860012 142.9494997  98.3719988
  53.0790012 142.3104997  96.6879988  54.4280012 141.2734997  97.9139988
  53.7150012 140.4664997  97.6429988  54.7060012 141.2504997  99.4219988
  53.8030012 141.6604997  99.9239988  54.8280012 140.2054997  99.7789988
  55.8370012 141.9764997  99.8639988  57.3740012 141.4994997  99.9029988
  57.9290012 142.0804997 101.2729988  57.2920012 141.9524997 102.5109988
  56.3810012 141.3434997 102.3269988  57.9530012 141.4234997 103.2309988
  56.8410012 143.3084997 103.0869988  55.9370012 143.5134997 102.5329988
  56.6280012 143.3624997 104.1449988  57.6000012 144.5534997 102.7929988
  59.1880012 144.4714997 102.8999988  59.5640012 145.4664997 102.7129988
  59.4210012 144.1054997 103.8889988  59.5110012 143.9114997 102.0349988
  57.3060012 144.9364997 101.3739988  56.2430012 145.1124997 101.2959988
  57.7120012 145.8994997 101.1009988  57.6080012 144.1504997 100.6979988
  57.1980012 145.7444997 103.6329988  57.7950012 146.6354997 103.5099988
  57.1650012 145.4394997 104.6679988  56.1830012 146.0204997 103.3849988
  57.3750012 140.0324997  99.9769988  58.1180012 142.2664997  98.8649988
  55.6450012 141.2414997  97.0459988  56.0890012 140.0284997  96.8289988
  55.5980012 138.9544997  97.2159988  57.4480012 140.0724997  96.0759988
  57.7030012 139.0054997  95.9019988  58.1660012 140.5454997  96.7799988
  57.4010012 140.8114997  94.7979988  58.4310012 140.9474997  94.4049988
  57.1970012 141.9024997  94.8399988  56.6030012 140.1954997  93.7029988
  56.4090012 139.1144997  93.8749988  56.9860012 140.4764997  92.6989988
  55.0900012 140.7094997  93.7659988  54.5080012 140.3924997  94.6569988
  54.4950012 140.3314997  92.9069988  55.0190012 142.2724997  93.6369988
  55.8870012 142.6604997  93.0619988  55.1930012 142.6124997  94.6799988
  53.7030012 142.8374997  92.9929988  52.8490012 142.4334997  93.5779988
  53.5750012 142.3864997  91.9849988  53.7060012 144.3944997  92.9759988
  53.7380012 144.6534997  94.0559988  52.7520012 144.8024997  92.5779988
  54.9440012 145.1194997  92.4229988  55.6390012 145.3724997  93.2379988
  55.2730012 145.4834997  91.1709988  56.2090012 146.0364997  90.9989988
  54.4130012 145.2284997  89.9569988  53.5050012 145.8544997  90.0889988
  54.2070012 144.1364997  89.9259988  55.0110012 145.8364997  88.6079988
  56.0990012 145.6774997  88.4459988  54.8510012 146.9364997  88.6159988
  54.2230012 145.2214997  87.3839988  53.1780012 145.5854997  87.4809988
  54.2460012 144.1104997  87.3849988  54.9030012 145.6394997  86.0809988
  55.9650012 145.3254997  85.9939988  54.9310012 146.7474997  86.1579988
  54.1810012 145.3354997  84.7819988  54.1400012 144.2284997  84.6979988
  54.6950012 145.7384997  83.8829988  52.6800012 145.7774997  84.8229988
  52.4230012 146.0014997  83.7659988  52.5990012 146.7504997  85.3539988
  51.6090012 144.7324997  85.2709988  51.4260012 144.8834997  86.3559988
  52.0520012 143.7404997  85.0409988  50.3370012 144.9074997  84.5189988
  49.5400012 144.3484997  85.0539988  50.4910012 144.3594997  83.5659988
  50.0860012 145.9254997  84.1509988  93.6280012   5.0524997  83.8669988
  93.2350012   5.6724997  83.0319988  93.2770012   4.0654997  83.4959988
  94.7300012   5.1004997  84.0009988  93.0210012   5.6244997  85.1839988
  93.3160012   6.6934997  85.2519988  91.9180012   5.6324997  85.0539988
  93.3810012   4.8774997  86.4259988  93.2920012   3.7764997  86.3049988
  94.4650012   4.9074997  86.6659988  92.7520012   5.4474997  87.7219988
  93.4150012   5.2354997  88.5889988  92.7210012   6.5264997  87.4599988
  91.2870012   4.9774997  87.9199988  90.7230012   4.9794997  86.9629988
  91.2940012   3.9714997  88.3919988  90.5100012   5.9834997  88.8659988
  90.3460012   6.9104997  88.2759988  89.5620012   5.4934997  89.1749988
  91.3590012   6.3374997  90.1069988  92.3970012   6.6184997  89.8299988
  90.8860012   7.2304997  90.5689988  91.6150012   5.0854997  90.9759988
  90.6560012   4.6234997  91.2939988  92.1510012   4.3254997  90.3679988
  92.5000012   5.2624997  92.2439988  92.6490012   4.2544997  92.6879988
  93.5060012   5.6364997  91.9559988  91.8840012   6.3074997  93.2119988
  92.0060012   7.2294997  92.6039988  90.8240012   6.0714997  93.4429988
  92.7650012   6.6114997  94.4599988  93.6950012   7.1124997  94.1159988
  92.1840012   7.4414997  94.9149988  92.8660012   5.3824997  95.4779988
  92.4540012   4.5334997  94.8919988  93.9040012   5.0674997  95.7189988
  92.0010012   5.4034997  96.7849988  92.1450012   4.4234997  97.2889988
  92.3110012   6.2594997  97.4209988  90.5280012   5.6924997  96.5099988
  90.4420012   6.7684997  96.2479988  90.1500012   5.0114997  95.7179988
  89.6780012   5.5014997  97.6859988  89.9590012   6.2854997  98.4209988
  88.6820012   5.7994997  97.2939988  89.7030012   4.0594997  98.1829988
  89.4190012   3.0964997  97.4789988  89.8750012   4.0484997  99.5719988
  89.6970012   2.7804997 100.2319988  88.8860012   2.8734997 100.9859988
  89.3270012   1.9754997  99.5619988  90.9830012   2.2434997 101.0439988
  90.5580012   1.4414997 101.6849988  91.5750012   3.3934997 101.9129988
  90.7490012   3.7504997 102.5639988  92.4570012   3.0164997 102.4739988
  91.8450012   4.6094997 101.1709988  92.8000012   5.6724997 101.7619988
  94.2880012   5.0224997 101.7979988  94.9450012   5.0374997 100.5019988
  94.3130012   4.6304997  99.6849988  95.1700012   6.0884997 100.2229988
  96.1970012   4.1794997 100.4219988  96.2390012   3.7764997  99.4209988
  97.1430012   4.6964997 100.4859988  96.3430012   2.9604997 101.3789988
  96.5510012   3.3154997 102.8209988  97.4340012   3.8954997 103.0419988
  95.6170012   3.8124997 103.0379988  96.5500012   2.3874997 103.3739988
  95.1590012   2.0844997 101.4119988  94.2160012   2.5634997 101.6279988
  94.9950012   1.6034997 100.4589988  95.4690012   1.3564997 102.1479988
  97.4960012   2.1274997 100.9209988  97.5820012   1.2864997 101.5939988
  98.4480012   2.6374997 100.9239988  97.4480012   1.7944997  99.8949988
  92.7840012   6.7974997 100.8329988  92.3720012   5.8904997 103.1579988
  91.9850012   1.7254997 100.1369988  91.6770012   0.6024997  99.4609988
  90.7130012  -0.1115003  99.6669988  92.8130012   0.1924997  98.5139988
  92.6050012  -0.8085003  98.0809988  93.7620012   0.1144997  99.0859988
  93.0900012   1.1534997  97.3359988  93.5110012   2.1314997  97.6529988
  92.1260012   1.3594997  96.8249988  94.1180012   0.6744997  96.4099988
  93.7050012  -0.2075003  95.8759988  94.9570012   0.1734997  96.9389988
  94.6090012   1.7444997  95.3859988  95.1780012   2.4994997  95.9699988
  93.6890012   2.2604997  95.0399988  95.5430012   1.2284997  94.2899988
  96.2720012   0.6384997  94.8859988  96.0780012   1.9894997  93.6829988
  94.9480012   0.4074997  93.0909988  94.5800012  -0.5855003  93.4279988
  95.8260012   0.2034997  92.4429988  93.8120012   1.1634997  92.4249988
  93.1870012   1.5434997  93.2609988  93.1630012   0.3974997  91.9499988
  94.1760012   2.1864997  91.3949988  94.6110012   3.0954997  91.8349988
  94.1420012   2.0904997  90.1009988  94.5060012   2.9664997  89.5439988
  93.7020012   0.9744997  89.1769988  93.7660012  -0.0255003  89.6589988
  94.4740012   0.9714997  88.3789988  92.2650012   1.1474997  88.6899988
  92.3220012   1.9894997  87.9679988  91.5050012   1.4574997  89.4399988
  91.7150012  -0.0955003  87.9919988  90.9120012   0.2184997  87.2909988
  91.3940012  -0.8665003  88.7239988  92.7310012  -0.9305003  87.1399988
  92.1930012  -1.8635003  86.8679988  93.5910012  -1.3025003  87.7359988
  93.3740012  -0.1155003  85.9919988  94.3580012  -0.4935003  85.6429988
  93.6510012   0.9124997  86.3079988  92.4750012  -0.0775003  84.7659988
  91.4610012   0.2304997  85.0969988  92.2950012  -1.0705003  84.3019988
  93.1270012   0.8794997  83.6479988  94.1140012   0.4204997  83.4259988
  93.1890012   1.8684997  84.1479988  92.2730012   1.0374997  82.4299988
  91.9450012   0.0084997  82.1699988  92.8680012   1.5164997  81.6239988
  91.3620012   1.6404997  82.6339988 127.5040012  23.3604997  83.0589988
 127.9490012  22.7334997  82.2569988 127.0340012  22.6874997  83.8079988
 128.2400012  24.0784997  83.4799988 126.3300012  24.1094997  82.5199988
 126.3890012  24.6464997  81.5489988 125.5390012  23.4004997  82.1949988
 125.6040012  24.9624997  83.5769988 126.2570012  25.7874997  83.9339988
 124.6560012  25.3344997  83.1319988 125.0880012  24.1754997  84.7879988
 124.2000012  23.6224997  84.4149988 125.7840012  23.4094997  85.1929988
 124.7190012  24.9914997  86.0459988 125.4550012  25.8004997  86.2379988
 123.7430012  25.5144997  85.9539988 124.4830012  24.1344997  87.2619988
 123.5920012  23.4904997  87.1009988 125.3060012  23.3994997  87.3889988
 124.2760012  24.9154997  88.5349988 123.6970012  25.8524997  88.3939988
 123.8130012  24.2964997  89.3329988 125.5770012  25.5034997  89.2159988
 125.8950012  26.1884997  88.4009988 125.2860012  26.0654997  90.1289988
 126.6780012  24.4644997  89.6199988 126.6760012  23.6264997  88.8909988
 127.6760012  24.9434997  89.5189988 126.5810012  23.9464997  91.0949988
 126.6560012  24.8724997  91.7049988 125.5930012  23.4514997  91.2019988
 127.6750012  22.9924997  91.6379988 127.3360012  21.9424997  91.5139988
 128.6250012  23.0474997  91.0639988 128.1250012  23.2704997  93.1429988
 128.3200012  24.3494997  93.3199988 127.2040012  22.9334997  93.6649988
 129.3780012  22.4734997  93.6879988 130.2920012  22.8364997  93.1699988
 129.4540012  22.7014997  94.7719988 129.3230012  20.9814997  93.5959988
 129.2680012  20.7734997  92.5059988 130.2420012  20.3984997  93.8189988
 128.1880012  20.2374997  94.3139988 127.1950012  20.5824997  93.9539988
 128.1310012  19.1664997  94.0239988 128.1080012  20.4334997  95.8359988
 128.4950012  19.6534997  96.6639988 127.6290012  21.6644997  96.1089988
 127.7480012  22.0774997  97.5009988 126.9590012  21.5734997  98.0989988
 128.7120012  21.8494997  98.0039988 127.5570012  23.6154997  97.6149988
 128.5310012  24.1424997  97.5239988 126.8820012  24.0394997  98.9259988
 127.3860012  23.6414997  99.8329988 127.1130012  25.1074997  99.1229988
 125.4950012  23.8034997  98.9909988 124.8200012  23.9334997 100.4189988
 125.5100012  22.7994997 101.2919988 126.1180012  21.5204997 100.9129988
 125.4680012  21.0724997 100.1309988 127.1450012  21.6904997 100.5249988
 126.1720012  20.3704997 101.9839988 126.5600012  19.4934997 101.4869988
 126.8320012  20.7344997 102.7569988 124.8440012  20.0204997 102.6129988
 123.6830012  19.7644997 101.7189988 123.6020012  20.4784997 100.9129988
 123.8700012  18.7594997 101.3709988 122.7730012  19.8284997 102.2979988
 125.0220012  18.7914997 103.5109988 125.8010012  18.9954997 104.2309988
 124.2030012  18.5414997 104.1689988 125.1860012  17.9444997 102.8609988
 124.4950012  21.2204997 103.4979988 125.2890012  21.4504997 104.1929988
 123.6290012  21.0964997 104.1309988 124.3890012  22.0774997 102.8479988
 125.1050012  25.2714997 100.9519988 123.3860012  23.5634997 100.2899988
 126.7380012  23.9904997  96.5329988 126.8570012  25.2114997  96.0779988
 127.6300012  26.0444997  96.4939988 125.9270012  25.3904997  94.9679988
 125.5900012  24.4254997  94.5309988 126.3840012  26.0214997  94.1759988
 124.6640012  26.2044997  95.4369988 124.9060012  27.0434997  96.1239988
 123.9750012  25.5904997  96.0559988 123.8750012  26.7894997  94.1619988
 124.6380012  27.4704997  93.7279988 123.2690012  27.6894997  94.3989988
 123.2000012  25.7584997  93.2149988 124.0440012  25.0974997  92.9209988
 122.7350012  26.3934997  92.4319988 122.0000012  24.9774997  93.7409988
 121.3170012  25.6964997  94.2409988 122.3940012  24.2314997  94.4629988
 121.2690012  24.1574997  92.7159988 120.7440012  24.9184997  92.0999988
 120.5100012  23.5134997  93.2089988 122.1530012  23.2044997  91.8879988
 122.8250012  23.8954997  91.3359988 121.4980012  22.7664997  91.1039988
 122.9150012  22.1494997  92.6849988 123.2670012  22.5664997  93.6399988
 123.1200012  20.8364997  92.3449988 123.8690012  20.2594997  92.9079988
 122.5900012  20.1544997  91.1309988 121.5630012  20.5134997  90.9059988
 122.4490012  19.0784997  91.3669988 123.6140012  20.3204997  90.0309988
 124.5340012  19.9434997  90.5289988 123.8780012  21.3794997  89.8209988
 123.1350012  19.6704997  88.7639988 122.0910012  19.9944997  88.5639988
 122.8940012  18.5994997  88.9389988 123.9890012  19.8924997  87.5389988
 124.9220012  20.4214997  87.8299988 123.4470012  20.6284997  86.9079988
 124.4340012  18.6514997  86.7489988 123.4660012  18.2114997  86.4289988
 125.0010012  17.9374997  87.3829988 125.2100012  18.9754997  85.4699988
 126.2540012  19.1984997  85.7759988 124.8690012  19.9714997  85.1149988
 125.2770012  17.8194997  84.4129988 124.2860012  17.3324997  84.5289988
 126.0470012  17.1834997  84.9009988 125.6850012  18.1224997  82.9279988
 125.4620012  17.2944997  82.2209988 126.7830012  18.2854997  82.8809988
 125.1450012  19.0464997  82.6299988  40.2140012 139.4744997  84.6399988
  40.6130012 138.7494997  85.3809988  39.8100012 138.9074997  83.7749988
  39.2810012 139.7584997  85.1729988  40.9360012 140.7774997  84.3749988
  41.8350012 140.5684997  83.7569988  40.2430012 141.4094997  83.7799988
  41.2800012 141.5524997  85.6689988  41.7200012 142.5534997  85.4699988
  40.2770012 141.8154997  86.0659988  42.2690012 140.9064997  86.6349988
  41.8240012 139.9394997  86.9549988  43.1610012 140.7394997  85.9939988
  42.6180012 141.6344997  87.9349988  43.1600012 142.5594997  87.6449988
  41.7340012 141.9754997  88.5159988  43.4260012 140.6844997  88.9229988
  42.8350012 139.7534997  89.0559988  44.2900012 140.3634997  88.3039988
  43.8590012 141.4094997  90.2229988  44.7750012 142.0154997  90.0569988
  42.9830012 142.0614997  90.4249988  44.1080012 140.4394997  91.3969988
  43.2720012 139.7124997  91.4869988  44.9400012 139.8614997  90.9409988
  44.3870012 141.1834997  92.7349988  45.3520012 141.7104997  92.5769988
  43.6130012 141.9644997  92.8879988  44.5280012 140.2704997  93.9109988
  43.6610012 139.5754997  93.9359988  45.4720012 139.6874997  93.9569988
  44.4520012 141.0464997  95.2679988  43.4310012 141.4814997  95.2279988
  44.3610012 140.2754997  96.0639988  45.5840012 141.9734997  95.5729988
  46.5280012 141.3884997  95.5909988  45.5760012 142.7184997  94.7489988
  45.5500012 142.8214997  96.9429988  45.9140012 142.1914997  97.7829988
  46.2090012 143.6884997  96.7229988  44.1790012 143.4004997  97.2119988
  43.5820012 142.4764997  97.3639988  44.1000012 143.9544997  98.1719988
  43.6860012 144.2634997  96.0009988  44.2610012 145.2144997  95.9909988
  43.8380012 143.8174997  94.9949988  42.1730012 144.5874997  96.0829988
  41.5980012 145.5514997  95.6269988  41.5060012 143.6324997  96.7619988
  40.0950012 143.8854997  97.0779988  40.0150012 144.7944997  97.7119988
  39.4910012 144.0084997  96.1539988  39.4090012 142.6384997  97.7929988
  38.3110012 142.7994997  97.8469988  40.1110012 142.4014997  99.2039988
  40.2390012 143.3914997  99.6899988  39.4530012 141.7884997  99.8569988
  41.3980012 141.8524997  99.0029988  42.0400012 140.7774997  99.9199988
  42.4940012 141.3664997 101.3579988  43.0410012 142.6874997 101.2929988
  43.8520012 142.7044997 102.0509988  43.6240012 142.8724997 100.3659988
  42.0460012 143.8144997 101.7029988  42.6220012 144.7154997 101.8499988
  41.3430012 143.8964997 100.8869988  41.2780012 143.6204997 103.0319988
  42.2770012 143.2964997 104.0389988  41.7890012 143.2464997 105.0019988
  42.8110012 142.3954997 103.7749988  43.0190012 144.0814997 104.0119988
  40.5500012 144.8814997 103.3869988  40.0030012 144.8024997 104.3139988
  41.2540012 145.6964997 103.4649988  39.8790012 145.1634997 102.5889988
  40.2720012 142.5254997 103.0109988  39.9160012 142.4454997 104.0279988
  40.8580012 141.6694997 102.7089988  39.4320012 142.7584997 102.3739988
  40.9810012 139.7964997 100.1769988  43.2490012 140.2484997  99.2569988
  39.4910012 141.5104997  96.8339988  39.1220012 140.3504997  97.2969988
  38.4230012 140.2294997  98.2789988  39.8960012 139.2244997  96.5999988
  39.2210012 138.3704997  96.3779988  40.6030012 138.7924997  97.3399988
  40.7200012 139.6764997  95.4109988  41.3580012 138.8104997  95.1319988
  41.4760012 140.4704997  95.5929988  39.9070012 140.1744997  94.1059988
  39.0190012 140.7984997  94.3419988  39.5310012 139.1924997  93.7469988
  40.7880012 140.8954997  93.0679988  41.6910012 140.2914997  92.8359988
  41.1430012 141.7984997  93.6099988  40.1520012 141.2824997  91.6659988
  39.5710012 140.4364997  91.2399988  41.0040012 141.4664997  90.9759988
  39.3830012 142.6284997  91.7359988  38.4530012 142.4264997  92.3089988
  39.2270012 142.9004997  90.6699988  40.1890012 143.7734997  92.3719988
  41.1190012 144.0074997  91.8119988  40.2740012 143.4964997  93.4439988
  39.2920012 144.9804997  92.3499988  38.5210012 144.9164997  93.1319988
  39.3610012 145.9614997  91.3899988  38.9470012 146.9224997  91.7279988
  40.3360012 146.0784997  90.1889988  39.8630012 145.4264997  89.4239988
  41.2850012 145.5704997  90.4609988  40.4970012 147.5554997  89.6639988
  40.6950012 148.2684997  90.4929988  39.6000012 147.9764997  89.1629988
  41.6410012 147.6024997  88.5859988  42.5070012 147.0804997  89.0459988
  42.1170012 148.6014997  88.4919988  41.1610012 147.0334997  87.3209988
  40.5430012 147.7994997  86.8039988  40.6970012 146.0294997  87.4269988
  42.3300012 146.7484997  86.3479988  43.1570012 147.4654997  86.5379988
  41.8600012 146.9414997  85.3599988  42.7640012 145.2784997  86.4319988
  41.9620012 144.5104997  86.4459988  43.2860012 145.0834997  87.3929988
  43.7780012 144.8494997  85.3639988  43.8520012 143.7604997  85.5749988
  44.7570012 145.3594997  85.4899988  43.3370012 144.8184997  83.9739988
  42.8920012 145.7904997  83.6719988  42.6650012 143.9524997  83.7919988
  44.2590012 144.7524997  83.3579988 144.3830012  63.8454997  83.4839988
 144.9040012  63.2044997  84.2259988 144.0340012  64.8504997  83.8039988
 145.1310012  64.0394997  82.6849988 143.2820012  63.0684997  82.8389988
 142.8900012  63.6264997  81.9619988 143.6610012  62.1184997  82.4039988
 142.0240012  62.8014997  83.6919988 141.6750012  63.7004997  84.2439988
 141.2590012  62.6464997  82.9009988 142.0280012  61.6474997  84.6929988
 142.7340012  60.8294997  84.4379988 142.3640012  61.9234997  85.7159988
 140.6570012  61.0154997  84.7649988 139.8350012  61.7404997  84.5829988
 140.5230012  60.1424997  84.0899988 140.3540012  60.5154997  86.2379988
 140.5870012  61.4054997  86.8609988 139.3000012  60.1844997  86.3599988
 141.1420012  59.2744997  86.5679988 140.8920012  58.5824997  85.7359988
 142.2190012  59.5474997  86.5539988 140.7750012  58.5634997  87.8779988
 139.7260012  58.2284997  87.7379988 141.4300012  57.6794997  88.0329988
 140.8570012  59.4914997  89.1299988 141.9420012  59.7284997  89.1419988
 140.2870012  60.4454997  89.1389988 140.4100012  58.8734997  90.4749988
 139.3150012  58.9994997  90.6159988 140.7030012  57.8044997  90.4059988
 141.1390012  59.4694997  91.6519988 142.1980012  59.1374997  91.6059988
 141.1980012  60.5774997  91.6149988 140.6070012  58.9464997  93.0129988
 139.7160012  59.5344997  93.3179988 140.2700012  57.8994997  92.8519988
 141.6790012  58.9154997  94.1519988 142.4770012  58.1654997  93.9669988
 142.1680012  59.9044997  94.2849988 141.0830012  58.4004997  95.4669988
 140.0470012  58.7924997  95.5539988 140.9240012  57.3004997  95.4919988
 141.9300012  58.7524997  96.7469988 142.0190012  59.8534997  96.8639988
 141.3670012  58.3544997  97.6179988 143.3680012  58.1674997  96.7569988
 144.0070012  57.7324997  95.8199988 143.7490012  58.1184997  98.0439988
 145.0440012  57.6934997  98.4319988 145.0210012  57.1234997  99.3849988
 145.5380012  57.0784997  97.6499988 146.0070012  58.8444997  98.5679988
 147.0230012  58.5344997  98.8909988 145.4150012  59.8864997  99.6079988
 145.1090012  59.3564997 100.5349988 146.2230012  60.6114997  99.8459988
 144.2940012  60.5734997  99.0289988 143.0760012  61.1954997  99.9019988
 143.6880012  62.1704997 100.9449988 144.7670012  63.0834997 100.6849988
 145.0760012  63.0964997  99.6179988 144.2950012  64.0754997 100.8509988
 145.9760012  62.9454997 101.7989988 146.4510012  61.9974997 101.5989988
 146.5860012  63.8024997 101.5559988 145.4650012  63.1394997 103.1649988
 146.6510012  63.5404997 104.0269988 147.1170012  64.4124997 103.5919988
 146.2900012  63.7394997 105.0249988 147.4070012  62.7894997 103.8489988
 144.3370012  64.0264997 103.4079988 144.0200012  63.9474997 104.4379988
 144.6050012  65.0434997 103.1599988 143.4300012  63.8104997 102.8639988
 145.0470012  61.7804997 103.7379988 145.8850012  61.0994997 103.6959988
 144.2140012  61.3894997 103.1729988 144.8100012  62.0334997 104.7609988
 142.3760012  62.0974997  98.9639988 142.2710012  60.1454997 100.5199988
 146.1220012  59.3944997  97.2729988 147.0050012  60.3494997  97.0069988
 147.9500012  60.6214997  97.6979988 146.5900012  61.1304997  95.7769988
 146.3730012  62.2054997  95.9569988 145.6930012  60.5874997  95.4099988
 147.6410012  61.0264997  94.6209988 147.9680012  59.9764997  94.4639988
 148.5530012  61.6264997  94.8249988 147.0580012  61.6144997  93.3349988
 147.6980012  62.3544997  92.8089988 146.1530012  62.1784997  93.6459988
 146.6640012  60.6944997  92.2579988 146.0200012  59.8804997  92.6529988
 147.5980012  60.1994997  91.9129988 145.8560012  61.3984997  91.0939988
 146.4620012  62.2584997  90.7389988 144.9300012  61.8874997  91.4639988
 145.5110012  60.4894997  89.8619988 144.7600012  59.7894997  90.2869988
 146.2960012  59.7914997  89.4999988 145.0710012  61.2414997  88.5829988
 144.3720012  62.0484997  88.8919988 144.5460012  60.5134997  87.9279988
 146.2660012  61.8534997  87.9229988 146.5070012  62.8664997  88.2779988
 146.9920012  61.3434997  86.9749988 147.9160012  61.9384997  86.9139988
 146.9570012  60.0244997  86.2499988 146.1090012  59.3984997  86.5999988
 147.8650012  59.3984997  86.3839988 146.7700012  60.4134997  84.7709988
 147.6530012  61.0094997  84.4549988 145.7630012  60.8524997  84.6039988
 146.6450012  59.2244997  83.8119988 145.7780012  58.6294997  84.1689988
 147.5670012  58.6164997  83.9359988 146.5940012  59.4794997  82.2829988
 146.5330012  58.4794997  81.8019988 147.4930012  59.9974997  81.8839988
 145.3690012  60.1844997  81.8849988 145.5960012  61.2704997  81.9569988
 144.5910012  59.9454997  82.6409988 145.0980012  59.8784997  80.4059988
 145.3320012  58.8264997  80.1359988 145.7590012  60.4554997  79.7249988
 143.6760012  60.3734997  79.9649988 143.7630012  60.7584997  78.9259988
 143.4300012  61.1814997  80.6859988 142.6740012  59.2154997  79.9249988
 142.9630012  58.4704997  79.1529988 141.6280012  59.4804997  79.6639988
 142.4490012  58.7884997  80.9259988 139.0860012  39.2714997  81.4939988
 138.2970012  40.0504997  81.4209988 138.5540012  38.3094997  81.6579988
 139.6720012  39.2934997  80.5499988 139.9600012  39.4824997  82.7459988
 140.4270012  40.4824997  82.6139988 139.2200012  39.4644997  83.5749988
 141.0640012  38.5024997  83.0789988 140.7280012  37.4584997  82.9039988
 141.9730012  38.7244997  82.4789988 141.6920012  38.6634997  84.5159988
 142.3860012  37.8154997  84.7009988 142.1780012  39.6564997  84.6319988
 140.6620012  38.5854997  85.6249988 139.8550012  39.3424997  85.5239988
 140.0690012  37.6494997  85.5559988 141.3090012  38.7844997  87.0139988
 142.1630012  38.0884997  87.1609988 141.6740012  39.8334997  86.9699988
 140.5300012  38.5494997  88.3279988 139.7510012  39.3084997  88.5559988
 139.8500012  37.6774997  88.2159988 141.4020012  38.3424997  89.6069988
 141.9010012  37.3624997  89.4479988 142.2320012  39.0784997  89.5469988
 140.6210012  38.2944997  90.8699988 140.4580012  39.3034997  91.3049988
 139.5870012  37.9574997  90.6439988 141.2730012  37.3924997  91.9439988
 141.2090012  36.3414997  91.5909988 142.3650012  37.5854997  92.0069988
 140.7700012  37.4654997  93.4239988 139.7120012  37.1314997  93.4879988
 141.3230012  36.8534997  94.1679988 140.8020012  38.8924997  94.0729988
 141.7780012  39.3304997  93.7719988 139.9450012  39.3914997  93.5729988
 140.5790012  38.9294997  95.5669988 139.6340012  38.4084997  95.8289988
 141.4060012  38.3714997  96.0549988 140.3530012  40.3614997  96.0619988
 139.4990012  40.7024997  95.4389988 140.1210012  40.2814997  97.1449988
 141.5840012  41.2284997  95.8439988 142.5600012  40.7624997  96.0989988
 141.6120012  41.4564997  94.7569988 141.5000012  42.5434997  96.6049988
 140.7910012  43.4594997  96.3489988 142.3280012  42.5344997  97.6639988
 142.4810012  43.5984997  98.5299988 143.4820012  43.5104997  99.0049988
 142.5730012  44.5674997  97.9939988 141.4060012  43.5934997  99.6629988
 141.6600012  44.3514997 100.4339988 141.4190012  42.2774997 100.5409988
 142.3020012  42.3444997 101.2109988 140.6000012  42.2854997 101.2909988
 141.6640012  41.1464997  99.8129988 140.9740012  39.7214997 100.0709988
 139.4460012  39.9534997 100.2179988 138.5870012  38.8724997 100.6579988
 137.5980012  39.1534997 100.2359988 138.8450012  37.9164997 100.1559988
 138.5880012  38.6514997 102.1999988 137.9160012  37.8214997 102.3629988
 139.6020012  38.5574997 102.5599988 137.9310012  39.8334997 103.0459988
 136.6970012  40.3224997 102.2699988 136.2010012  41.0794997 102.8599988
 136.9820012  40.6674997 101.2869988 136.0140012  39.4974997 102.1309988
 137.5850012  39.4804997 104.4659988 138.4740012  39.1364997 104.9719988
 137.0850012  40.3554997 104.8539988 136.8240012  38.7144997 104.4279988
 138.9000012  41.0444997 103.1689988 138.9440012  41.5364997 102.2089988
 139.8110012  40.5964997 103.5379988 138.6330012  41.7994997 103.8929988
 141.2920012  38.9344997  98.8489988 141.5240012  39.2134997 101.4199988
 140.1690012  43.8144997  99.0539988 139.1940012  44.2454997  99.9079988
 139.3740012  44.4564997 101.0589988 137.8430012  44.2974997  99.0929988
 137.9680012  44.9894997  98.2329988 137.0250012  44.6744997  99.7439988
 137.6660012  42.8984997  98.5839988 138.0090012  42.0504997  99.2149988
 138.3050012  42.7594997  97.6859988 136.1950012  42.7144997  98.0809988
 135.9900012  43.6474997  97.5129988 135.5320012  42.7144997  98.9719988
 135.9450012  41.4424997  97.2029988 134.8510012  41.2684997  97.2889988
 136.4630012  40.6344997  97.7619988 136.5450012  41.4844997  95.8009988
 137.2840012  40.6654997  95.6709988 137.2010012  42.3754997  95.7049988
 135.6050012  41.3144997  94.6259988 134.7810012  42.0544997  94.7099988
 135.2260012  40.2694997  94.5999988 136.2880012  41.5074997  93.2599988
 135.4950012  41.1154997  92.5879988 137.1690012  40.8324997  93.3119988
 136.4700012  42.9324997  92.8139988 135.5200012  43.4774997  92.7169988
 137.5100012  43.7474997  92.6439988 137.1930012  44.7714997  92.3969988
 138.9860012  43.4174997  92.8909988 139.0410012  43.1464997  93.9669988
 139.6570012  44.2804997  92.6909988 139.5710012  42.1504997  92.1179988
 139.1310012  41.1964997  92.4809988 140.6510012  42.1064997  92.3739988
 139.4800012  42.3604997  90.5969988 138.3860012  42.4984997  90.4609988
 139.8180012  41.5104997  89.9659988 140.2540012  43.5714997  90.0659988
 141.3430012  43.4554997  90.2519988 139.9130012  44.5284997  90.5169988
 140.1340012  43.8444997  88.4749988 140.5380012  44.8264997  88.1489988
 139.0430012  43.8294997  88.2649988 140.8780012  42.7724997  87.6279988
 140.2100012  41.8934997  87.5039988 141.8230012  42.4884997  88.1399988
 141.1430012  43.3194997  86.1839988 141.5650012  42.4204997  85.6869988
 141.8450012  44.1794997  86.2289988 139.8100012  43.5764997  85.4889988
 140.0670012  43.6804997  84.4129988 139.3440012  44.5124997  85.8639988
 139.0860012  42.7414997  85.5949988  68.3940012 143.4244997  84.5629988
  67.8060012 143.7984997  83.6969988  68.3480012 142.3234997  84.4169988
  69.4630012 143.7134997  84.4739988  67.8820012 143.7284997  86.0019988
  67.4480012 144.7514997  86.0069988  67.0220012 143.0524997  86.1919988
  68.9190012 143.6584997  87.1359988  68.3250012 143.9704997  88.0209988
  69.2130012 142.6094997  87.3509988  70.2780012 144.4044997  86.9659988
  70.8560012 143.9704997  86.1219988  69.9960012 145.4754997  86.8859988
  71.2120012 144.2444997  88.2579988  71.8470012 143.3324997  88.2389988
  71.9530012 145.0714997  88.2259988  70.4810012 144.1864997  89.5409988
  69.7100012 144.9744997  89.6779988  70.0640012 143.1604997  89.6259988
  71.4370012 144.5794997  90.6849988  71.5980012 145.6774997  90.6269988
  70.9730012 144.3524997  91.6689988  72.7610012 143.8994997  90.6519988
  72.7150012 142.7974997  90.5209988  73.3830012 144.2784997  89.8129988
  73.4900012 144.1324997  91.9769988  73.3520012 145.2044997  92.2359988
  72.9800012 143.5254997  92.7549988  74.9650012 143.8174997  91.9229988
  74.9270012 142.7164997  91.7799988  75.4210012 144.1584997  90.9689988
  75.7770012 144.1594997  93.1779988  76.7880012 143.7074997  93.0959988
  75.9170012 145.2614997  93.1819988  75.1590012 143.5534997  94.4919988
  74.1420012 143.9974997  94.5269988  75.0890012 142.4454997  94.4409988
  75.8420012 144.0104997  95.7549988  76.8730012 143.5984997  95.7899988
  75.9000012 145.1184997  95.7009988  75.0710012 143.6394997  97.0869988
  74.0420012 143.3524997  96.7819988  75.5720012 142.7194997  97.4579988
  75.2560012 144.8404997  98.1129988  75.0180012 144.3714997  99.0919988
  76.3120012 145.1844997  98.0849988  74.1490012 145.9714997  97.9619988
  74.4680012 147.1084997  97.9269988  72.9680012 145.3504997  97.7879988
  71.9600012 146.3074997  97.3659988  71.9820012 147.2604997  97.9359988
  72.2640012 146.5134997  96.3169988  70.5780012 145.8064997  97.6159988
  70.0000012 146.4364997  96.9059988  70.0720012 145.9504997  99.0899988
  69.7710012 147.0114997  99.2189988  69.1810012 145.2964997  99.2039988
  71.1530012 145.6474997  99.9359988  70.8160012 145.1304997 101.4019988
  70.6490012 143.4934997 101.2069988  71.5230012 142.9584997 100.2579988
  71.3460012 141.8614997 100.2359988  71.5500012 143.2504997  99.1859988
  73.0070012 143.2034997 100.7349988  73.5750012 143.1634997  99.8169988
  72.9970012 144.2534997 100.9839988  73.6680012 142.4354997 101.8589988
  72.9720012 142.6724997 103.2209988  71.9250012 142.4084997 103.2099988
  73.4580012 142.0134997 103.9249988  73.0380012 143.7224997 103.4639988
  73.6480012 140.9124997 101.6019988  73.9850012 140.4204997 102.5029988
  72.6290012 140.5894997 101.4469988  74.2440012 140.6104997 100.7539988
  75.0810012 142.9184997 101.9009988  75.4850012 142.7514997 102.8889988
  75.3000012 143.9424997 101.6369988  75.6260012 142.3924997 101.1299988
  71.9490012 145.5524997 102.2429988  69.4460012 145.5524997 101.8179988
  70.3950012 144.4054997  97.2389988  70.8420012 144.0564997  96.0549988
  71.3670012 144.8114997  95.2049988  70.2420012 142.7364997  95.8009988
  69.1730012 142.7744997  96.0999988  70.7690012 141.9344997  96.3609988
  70.3480012 142.4664997  94.2829988  71.3080012 142.7814997  93.8209988
  69.4030012 142.8704997  93.8609988  70.0800012 140.9664997  94.0589988
  69.1160012 140.7044997  94.5459988  70.8200012 140.3794997  94.6419988
  69.9770012 140.4094997  92.5869988  70.2830012 141.2544997  91.9339988
  68.9020012 140.2904997  92.3319988  70.8740012 139.1924997  92.3139988
  70.5240012 138.7634997  91.3519988  70.7590012 138.2674997  92.9199988
  72.3450012 139.5334997  92.0419988  72.8240012 139.5764997  93.0429988
  72.5120012 140.5074997  91.5339988  73.1340012 138.4584997  91.2589988
  72.6650012 138.2224997  90.2799988  73.0080012 137.5244997  91.8479988
  74.5960012 138.9164997  91.2969988  75.2030012 138.9584997  92.2129988
  75.3140012 139.1394997  90.1799988  76.3240012 139.5684997  90.2629988
  74.7610012 139.0454997  88.8659988  74.1000012 138.1544997  88.8069988
  75.5350012 138.9354997  88.0759988  73.9080012 140.2914997  88.3829988
  74.2480012 141.2174997  88.8949988  72.8850012 139.9884997  88.6939988
  74.0460012 140.3924997  86.8659988  73.5580012 139.5024997  86.4149988
  75.1200012 140.3814997  86.5829988  73.5240012 141.7284997  86.2819988
  74.2200012 142.5184997  86.6329988  72.4870012 142.0494997  86.5219988
  73.5210012 141.6024997  84.7159988  72.9440012 140.6984997  84.4259988
  74.6110012 141.5094997  84.5249988  72.9270012 142.8314997  83.9769988
  71.8360012 142.8004997  84.1829988  73.0800012 142.6904997  82.8859988
  73.4220012 144.2584997  84.5149988  74.5160012 144.3554997  84.3509988
  73.2390012 144.2404997  85.6099988  72.6350012 145.2864997  83.7799988
  71.5540012 145.0274997  83.7879988  72.8740012 145.4634997  82.7099988
  72.7420012 146.2954997  84.2339988  38.2300012   7.7634997  83.8069988
  39.0790012   8.3774997  83.4369988  37.3050012   8.2034997  83.3779988
  38.3520012   6.8044997  83.2599988  38.4410012   7.6254997  85.3689988
  37.5320012   7.2804997  85.9059988  39.2030012   6.8844997  85.6929988
  38.8020012   8.9344997  86.1379988  39.9050012   9.0504997  86.0749988
  38.2580012   9.7504997  85.6159988  38.3390012   8.9004997  87.5639988
  38.4340012   9.9634997  87.8719988  37.2840012   8.5674997  87.6639988
  39.3190012   8.0474997  88.4439988  39.1470012   6.9584997  88.3079988
  40.3800012   8.2774997  88.2089988  39.2870012   8.3484997  89.9589988
  39.3100012   9.4444997  90.1419988  38.2400012   8.1584997  90.2789988
  40.3420012   7.5764997  90.8939988  39.8030012   7.5424997  91.8649988
  40.4920012   6.5244997  90.5709988  41.7210012   8.2254997  91.1379988
  42.2300012   8.0424997  90.1679988  41.5910012   9.3224997  91.2589988
  42.5410012   7.5454997  92.2649988  42.1970012   8.0094997  93.2139988
  42.4470012   6.4424997  92.3499988  44.0370012   7.9934997  92.0869988
  44.5450012   7.6454997  91.1619988  44.1030012   9.1024997  92.0559988
  44.9350012   7.5244997  93.2879988  45.0640012   6.4264997  93.3949988
  45.9810012   7.8744997  93.1579988  44.4780012   8.0124997  94.6929988
  44.5580012   9.1204997  94.6539988  43.4110012   7.7774997  94.8939988
  45.3450012   7.5624997  95.8949988  45.1140012   6.4954997  96.1029988
  46.4120012   7.5944997  95.5859988  45.0960012   8.4914997  97.1129988
  45.7770012   8.1414997  97.9179988  45.3490012   9.5574997  96.9289988
  43.7100012   8.3564997  97.6629988  43.3630012   7.3054997  97.5639988
  43.8550012   8.5954997  98.7379988  42.7360012   9.4094997  97.1839988
  43.0410012  10.3174997  96.4109988  41.5280012   9.1454997  97.6649988
  40.4710012  10.0134997  97.1459988  40.8290012  11.0644997  97.1519988
  40.1160012   9.7744997  96.1209988  39.1450012   9.9044997  98.0049988
  38.3100012  10.3554997  97.4279988  39.2610012  10.7134997  99.3159988
  39.2480012  11.8104997  99.1429988  38.3480012  10.5084997  99.9149988
  40.4900012  10.5424997 100.1769988  40.4930012   9.6514997 101.4719988
  40.8450012   8.2584997 100.8019988  41.8480012   7.4984997 101.5099988
  42.8800012   7.8944997 101.4019988  41.5990012   7.3914997 102.5879988
  41.9220012   6.1304997 100.7459988  41.2400012   6.0474997  99.9119988
  42.8850012   6.0894997 100.2589988  41.7980012   4.8904997 101.5829988
  40.4250012   4.9264997 102.2599988  39.6030012   4.9724997 101.5609988
  40.3080012   4.0904997 102.9329988  40.4550012   5.8284997 102.8529988
  41.9440012   3.7294997 100.6089988  41.6670012   2.7974997 101.0789988
  41.1970012   3.7394997  99.8279988  42.8870012   3.7964997 100.0889988
  42.8980012   4.8244997 102.6689988  43.8260012   4.7724997 102.1179988
  42.7290012   3.9074997 103.2149988  43.0240012   5.7884997 103.1399988
  41.6820012  10.0434997 102.2789988  39.1150012   9.7034997 102.0729988
  38.9160012   8.4794997  98.3219988  38.7190012   7.6774997  97.3149988
  38.5150012   7.9174997  96.1039988  38.9950012   6.3324997  97.8279988
  38.2620012   5.6504997  97.3479988  38.8440012   6.2204997  98.9229988
  40.3820012   5.8464997  97.4809988  41.1240012   6.2314997  98.2119988
  40.6370012   6.3414997  96.5189988  40.4320012   4.3384997  97.2099988
  39.7680012   4.1844997  96.3319988  39.9520012   3.7794997  98.0429988
  41.8500012   3.8404997  96.8389988  42.0270012   2.7444997  96.8839988
  42.5780012   4.1774997  97.6079988  42.3210012   4.3854997  95.4789988
  43.0860012   5.1784997  95.6199988  41.4580012   4.8494997  94.9549988
  42.8950012   3.2724997  94.6199988  42.3620012   2.3214997  94.8349988
  43.9730012   3.1744997  94.8679988  42.6390012   3.4434997  93.1389988
  43.4400012   4.1304997  92.7919988  41.6620012   3.9544997  93.0059988
  42.7220012   2.2224997  92.2769988  43.2560012   1.3414997  92.6639988
  42.1690012   2.1014997  91.0479988  42.1870012   1.2124997  90.4009988
  41.4040012   3.1634997  90.3279988  41.5330012   4.0674997  90.9609988
  40.3190012   2.9274997  90.3719988  41.7110012   3.4224997  88.8829988
  41.4000012   2.4514997  88.4419988  42.8150012   3.5394997  88.9029988
  41.0180012   4.5184997  88.1509988  41.2640012   5.4534997  88.6979988
  39.9140012   4.4034997  88.2079988  41.4300012   4.5914997  86.6569988
  40.4940012   4.6494997  86.0609988  41.9910012   3.6644997  86.4109988
  42.2880012   5.8494997  86.2909988  43.0960012   6.0474997  87.0269988
  41.6490012   6.7584997  86.2599988  42.8440012   5.6654997  84.7949988
  43.2290012   4.6334997  84.6519988  43.6350012   6.4334997  84.6589988
  41.7940012   5.9264997  83.7089988  40.7970012   5.7934997  84.1809988
  42.0020012   5.2854997  82.8259988  41.8710012   7.3574997  83.1089988
  41.0750012   7.5044997  82.3479988  42.8430012   7.5744997  82.6159988
  41.6810012   8.0324997  83.9709988  50.5120012   0.2214997  82.2839988
  50.2650012  -0.7945003  81.9099988  51.2930012   0.1434997  83.0699988
  50.8830012   0.9374997  81.5199988  49.3070012   0.8554997  83.1219988
  49.5730012   1.8884997  83.4299988  48.4640012   0.9674997  82.4059988
  48.7280012   0.1294997  84.3369988  48.1000012   0.9414997  84.7619988
  48.1500012  -0.7265003  83.9269988  49.7300012  -0.5285003  85.3219988
  49.7990012  -1.5735003  84.9509988  50.6930012   0.0204997  85.2509988
  49.0840012  -0.6045003  86.6909988  47.9830012  -0.5645003  86.5429988
  49.4760012  -1.4955003  87.2259988  49.4340012   0.6754997  87.4579988
  50.5410012   0.7024997  87.5489988  49.1410012   1.5804997  86.8819988
  48.8110012   0.7504997  88.8109988  48.8710012  -0.1985003  89.3849988
  49.5020012   1.4214997  89.3639988  47.4190012   1.3614997  88.8259988
  47.3180012   2.3974997  88.4389988  46.7690012   0.8284997  88.0999988
  46.7340012   1.0514997  90.1479988  45.6490012   1.2854997  90.0949988
  46.8040012  -0.0415003  90.3339988  47.3280012   1.8004997  91.3639988
  48.4000012   1.5094997  91.3459988  47.2790012   2.9074997  91.2799988
  46.8480012   1.3604997  92.7589988  47.1150012   2.1844997  93.4539988
  45.7400012   1.2864997  92.8009988  47.4800012   0.0644997  93.2819988
  46.9820012  -0.7705003  92.7449988  48.5340012   0.0394997  92.9339988
  47.1420012  -0.1705003  94.8009988  46.0790012  -0.4485003  94.9599988
  47.6310012  -1.1315003  95.0659988  47.7490012   0.8694997  95.7749988
  48.7320012   1.1794997  95.3609988  47.1320012   1.7914997  95.8329988
  48.0590012   0.3864997  97.1949988  48.4710012   1.2484997  97.7609988
  47.0970012   0.0564997  97.6429988  49.0940012  -0.6775003  97.2379988
  49.8690012  -0.9145003  96.3259988  49.2090012  -1.2165003  98.4749988
  50.4040012  -1.9725003  98.7679988  50.0300012  -2.7725003  99.4419988
  50.8540012  -2.4075003  97.8499988  51.4090012  -1.1085003  99.5099988
  52.3420012  -1.6625003  99.7489988  50.8470012  -0.5145003 100.8529988
  50.2740012  -1.3115003 101.3729988  51.7370012  -0.0735003 101.3529988
  49.9930012   0.6064997 100.5249988  48.7620012   1.0014997 101.3599988
  48.9990012   2.5744997 101.3909988  48.0340012   3.5054997 100.9229988
  48.0800012   3.6044997  99.8169988  47.0030012   3.1584997 101.1479988
  48.2900012   4.8754997 101.6529988  47.6700012   5.6734997 101.2709988
  47.9390012   4.7454997 102.6659988  49.7150012   5.4764997 101.7509988
  50.5380012   4.6144997 102.6589988  51.5070012   5.0914997 102.6869988
  49.8980012   4.5684997 103.5279988  50.6260012   3.6154997 102.2589988
  50.2060012   5.4334997 100.3889988  49.8640012   4.5264997  99.9119988
  49.7790012   6.2634997  99.8439988  51.2840012   5.4644997 100.3299988
  49.7920012   6.9054997 102.2719988  50.7570012   7.2724997 101.9559988
  49.5560012   6.8824997 103.3259988  49.0030012   7.4904997 101.8229988
  47.6380012   0.7434997 100.4489988  48.6660012   0.5724997 102.8089988
  51.8000012  -0.1075003  98.5569988  52.9180012   0.5144997  98.7939988
  53.7120012   0.2374997  99.7069988  53.1430012   1.5814997  97.7469988
  52.5250012   1.3414997  96.8549988  54.2140012   1.6454997  97.4579988
  52.8910012   2.9294997  98.4699988  53.5720012   2.9754997  99.3469988
  51.9060012   3.0014997  98.9799988  53.2880012   4.2154997  97.6979988
  54.2370012   4.0314997  97.1489988  53.4840012   5.0674997  98.3829988
  52.0640012   4.5244997  96.7469988  52.0040012   5.6104997  96.5209988
  51.1180012   4.1244997  97.1709988  52.2020012   3.8714997  95.3309988
  52.1320012   2.7694997  95.4539988  53.2080012   4.1324997  94.9409988
  51.1610012   4.4234997  94.3389988  51.1190012   5.5284997  94.2319988
  50.1180012   4.1014997  94.5469988  51.2630012   3.8464997  92.8989988
  50.3750012   4.1964997  92.3309988  51.3650012   2.7484997  93.0359988
  52.4060012   4.5044997  92.1829988  53.3640012   3.9684997  92.1139988
  52.2780012   5.6734997  91.5269988  53.2600012   6.0034997  91.1549988
  51.1250012   6.5754997  91.3989988  51.4160012   7.5224997  91.9009988
  50.2040012   6.3024997  91.9569988  50.8090012   6.9224997  89.8919988
  51.6710012   7.5414997  89.5629988  49.9570012   7.6354997  89.8829988
  50.4890012   5.7664997  89.0759988  49.4540012   5.5744997  88.7209988
  50.9570012   4.8324997  89.4529988  51.3170012   5.8164997  87.8219988
  52.2900012   6.3004997  88.0499988  50.8910012   6.5514997  87.1049988
  51.3620012   4.4534997  87.0919988  51.2620012   4.6354997  86.0009988
  50.5960012   3.7334997  87.4529988  52.7840012   3.9254997  87.3649988
  52.7220012   3.4354997  88.3599988  53.5280012   4.7434997  87.2579988
  53.0490012   2.7714997  86.4059988  52.4020012   1.8824997  86.5699988
  54.0270012   2.4424997  86.8169988  53.2450012   3.0514997  84.9019988
  52.3190012   3.2874997  84.3359988  53.7120012   2.1394997  84.4709988
  53.9510012   3.8984997  84.7709988  -0.8159988  47.5074997  85.1369988
  -0.3149988  47.1404997  86.0579988  -0.9839988  46.6184997  84.4919988
  -1.8249988  47.8644997  85.4349988  -0.1039988  48.7164997  84.4139988
   1.0060012  48.6914997  84.3849988  -0.3839988  48.7104997  83.3389988
  -0.3389988  50.0824997  85.0959988   0.3760012  50.8054997  84.6469988
  -1.3249988  50.5214997  84.8329988  -0.1659988  50.2194997  86.6209988
  -1.1139988  49.8724997  87.0839988   0.6630012  49.5564997  86.9479988
   0.2300012  51.5784997  87.1969988   1.2670012  51.6514997  86.8059988
  -0.2849988  52.4374997  86.7159988   0.2610012  51.7264997  88.7429988
  -0.7689988  51.6814997  89.1579988   0.7470012  50.7944997  89.1009988
   0.9060012  53.0254997  89.3249988   1.0900012  52.8744997  90.4099988
   1.8670012  53.1054997  88.7729988   0.1060012  54.3294997  89.0879988
  -0.0209988  54.3784997  87.9849988  -0.9079988  54.4654997  89.5209988
   0.8050012  55.5924997  89.6779988   1.8900012  55.4114997  89.8389988
   0.6290012  56.4344997  88.9749988   0.2960012  55.8704997  91.1139988
   0.7200012  56.8724997  91.3409988  -0.7969988  56.0634997  91.0639988
   0.6030012  55.0064997  92.2889988   0.0710012  54.0314997  92.2589988
   1.7050012  54.8734997  92.2359988   0.1980012  55.8344997  93.5929988
   0.6770012  56.8354997  93.5399988  -0.8799988  56.0374997  93.4189988
   0.4570012  55.0884997  94.8909988   1.4650012  54.6264997  94.8119988
   0.4990012  55.8934997  95.6549988  -0.5709988  54.0084997  95.1539988
  -1.5919988  54.3544997  94.8819988  -0.2799988  53.1874997  94.4639988
  -0.6569988  53.5654997  96.6489988   0.3540012  53.1914997  96.9169988
  -1.0339988  54.4094997  97.2649988  -1.7149988  52.4084997  96.7989988
  -2.3979988  51.9924997  95.8719988  -1.7609988  52.0094997  98.0909988
  -2.3179988  50.7074997  98.2989988  -2.9929988  50.8634997  99.1669988
  -2.9569988  50.3274997  97.4729988  -1.2479988  49.5984997  98.6119988
  -1.8349988  48.6564997  98.5529988  -0.5379988  49.7824997  99.9359988
  -1.3249988  49.7744997 100.7209988   0.1140012  48.8994997 100.1069988
   0.2510012  50.9994997  99.9649988   0.9270012  51.4564997 101.4019988
   1.9750012  52.4684997 100.8559988   1.6610012  53.6224997 100.2089988
   2.4460012  53.8004997  99.4429988   0.6350012  53.6154997  99.7839988
   1.7610012  54.8634997 101.2229988   1.3440012  55.7554997 100.7789988
   1.0830012  54.7084997 102.0489988   3.1330012  55.0854997 101.8709988
   2.9380012  56.3544997 102.7089988   3.8780012  56.6704997 103.1369988
   2.3960012  57.0844997 102.1269988   2.4000012  56.1724997 103.6269988
   3.5530012  53.9934997 102.8009988   3.9770012  53.2284997 102.1669988
   4.2590012  54.3284997 103.5459988   2.7170012  53.6394997 103.3859988
   4.2190012  55.3414997 100.9349988   3.8800012  55.9064997 100.0779988
   4.7840012  54.4564997 100.6819988   4.9240012  56.0474997 101.3489988
  -0.1589988  52.1594997 102.2189988   1.5960012  50.2884997 101.9919988
  -0.3519988  49.6214997  97.4909988   0.5530012  48.7324997  97.3679988
   0.9300012  47.9104997  98.1479988   1.2360012  48.9294997  95.9719988
   0.7960012  49.8134997  95.4629988   1.0030012  48.1084997  95.2619988
   2.6820012  49.0914997  96.2019988   3.1590012  49.0864997  95.1989988
   3.1570012  48.3574997  96.8879988   3.0320012  50.4664997  96.8529988
   4.0720012  50.5354997  97.2369988   2.3040012  50.6434997  97.6739988
   2.9660012  51.6224997  95.8329988   2.9870012  52.5864997  96.3839988
   2.0370012  51.4564997  95.2479988   4.2740012  51.7234997  95.0299988
   4.5440012  50.7024997  94.6849988   5.1080012  52.1184997  95.6479988
   4.1020012  52.6164997  93.7509988   5.1170012  52.9464997  93.4419988
   3.6540012  53.5404997  94.1749988   3.3610012  51.9134997  92.5849988
   3.0660012  52.7874997  91.9649988   2.4910012  51.3104997  92.9209988
   4.3300012  51.1714997  91.6949988   4.3280012  50.0714997  91.7329988
   5.2180012  51.7744997  90.9229988   5.8840012  51.1964997  90.2659988
   5.4410012  53.2344997  90.7449988   6.4940012  53.3224997  90.4039988
   5.5930012  53.8084997  91.6839988   4.5370012  53.9464997  89.7729988
   4.6180012  55.0434997  89.9319988   3.5370012  53.5964997  90.1049988
   4.6770012  53.6414997  88.2489988   4.2870012  52.6214997  88.0459988
   5.7750012  53.5574997  88.1049988   4.0880012  54.8454997  87.4449988
   4.5920012  55.8174997  87.6339988   3.0850012  55.0534997  87.8749988
   4.0510012  54.6864997  85.9319988   4.8280012  55.3014997  85.4299988
   3.0770012  55.1194997  85.6189988   4.1360012  53.2744997  85.4239988
   3.5180012  52.6714997  86.1219988   5.1040012  52.7814997  85.6579988
   3.6260012  52.9684997  83.9589988   3.5900012  51.8674997  83.8209988
   4.2790012  53.4464997  83.1979988   2.1840012  53.4624997  83.6729988
   2.0220012  53.3484997  82.5799988   2.0450012  54.5584997  83.7939988
   1.3450012  52.8934997  84.1269988 143.7450012  96.6494997  81.8029988
 144.0850012  95.6044997  81.6419988 144.6860012  97.2294997  81.9169988
 143.3360012  96.9114997  80.8039988 142.6820012  96.5214997  82.9229988
 142.3350012  97.5574997  83.1209988 141.8460012  95.8614997  82.6069988
 143.2430012  95.8854997  84.2079988 143.3530012  94.7934997  84.0399988
 144.2580012  96.2994997  84.3869988 142.3810012  96.0624997  85.4539988
 141.3660012  95.6364997  85.3019988 142.8660012  95.4724997  86.2609988
 142.2320012  97.4124997  86.0649988 142.0430012  98.0934997  85.2079988
 141.3630012  97.4564997  86.7559988 143.3930012  97.9614997  86.8939988
 143.5800012  97.3714997  87.8159988 144.3580012  97.8114997  86.3629988
 143.4480012  99.5194997  87.1279988 143.3760012  99.9334997  86.0999988
 142.5710012  99.8104997  87.7459988 144.6660012 100.0844997  87.8959988
 145.5380012  99.5174997  87.5039988 144.7910012 101.1544997  87.6229988
 144.6490012 100.0394997  89.4489988 145.7100012  99.9994997  89.7789988
 144.4680012 101.0774997  89.8009988 143.9660012  98.8524997  90.0889988
 142.8680012  98.8524997  89.9179988 144.4890012  97.9894997  89.6249988
 144.3070012  98.8224997  91.5849988 143.9690012  97.8484997  91.9979988
 145.3960012  99.0414997  91.6349988 143.6980012  99.9544997  92.4629988
 144.2800012  99.9354997  93.4089988 143.8300012 100.9444997  91.9749988
 142.1480012  99.8634997  92.8599988 141.5930012 100.1704997  91.9479988
 142.0190012  98.7854997  93.0959988 141.8030012 100.7154997  94.1069988
 141.6940012 100.1624997  95.0639988 142.7230012 101.3324997  94.1949988
 140.5460012 101.6514997  94.0639988 141.0050012 102.4914997  93.5009988
 139.6790012 101.2834997  93.4749988 140.0970012 102.2404997  95.4109988
 140.6060012 103.1804997  95.9619988 139.1100012 101.4224997  95.7969988
 138.4810012 101.4924997  97.0889988 138.6490012 102.4384997  97.6469988
 137.3730012 101.4854997  97.0009988 138.8420012 100.2584997  97.9819988
 138.2100012 100.2304997  98.8959988 140.2600012 100.2554997  98.4299988
 140.8900012 100.4324997  97.5329988 140.5340012 101.0754997  99.1279988
 140.5870012  99.0894997  99.1129988 140.0110012  98.8534997 100.5759988
 141.1600012  98.0314997 101.3279988 142.2120012  97.3664997 100.7159988
 141.7690012  96.7534997  99.9019988 143.0250012  98.0544997 100.3999988
 143.0710012  96.4954997 101.6479988 143.7680012  95.9334997 101.0429988
 143.5620012  97.0834997 102.4089988 142.3490012  95.4414997 102.5069988
 141.3600012  94.6204997 101.7389988 141.8770012  94.1424997 100.9199988
 140.9440012  93.8804997 102.4069988 140.5780012  95.2634997 101.3629988
 143.4500012  94.4754997 103.0619988 144.1060012  95.0504997 103.6989988
 143.0860012  93.6174997 103.6059988 144.0090012  93.9684997 102.2889988
 141.7370012  96.1244997 103.6949988 140.9010012  96.7364997 103.3889988
 142.5110012  96.6964997 104.1829988 141.3030012  95.2794997 104.2089988
 140.0440012 100.2024997 101.2199988 138.7740012  98.0684997 100.5789988
 138.6530012  99.0694997  97.1489988 137.4770012  98.5744997  97.3289988
 136.5630012  99.0074997  98.0159988 137.3140012  97.2584997  96.5159988
 136.9960012  97.5444997  95.4909988 136.5010012  96.6354997  96.9469988
 138.7150012  96.5884997  96.3889988 139.1510012  96.5504997  97.4099988
 139.3010012  97.3114997  95.7819988 138.7970012  95.2494997  95.6279988
 138.5070012  95.3974997  94.5659988 138.0660012  94.5584997  96.0989988
 140.1500012  94.5464997  95.8719988 140.0940012  93.6634997  95.2009988
 140.1750012  94.1224997  96.8989988 141.3670012  95.4894997  95.5029988
 142.3540012  95.0354997  95.7359988 141.3410012  96.3004997  96.2629988
 141.3060012  96.0814997  94.0649988 142.1850012  96.7234997  93.8419988
 140.4250012  96.7594997  94.0639988 141.1810012  95.0624997  92.9759988
 140.1550012  94.6614997  93.1199988 141.8960012  94.2474997  93.2179988
 141.2680012  95.4794997  91.5199988 142.2280012  95.2774997  91.0229988
 140.1960012  95.9984997  90.8449988 140.3110012  96.1414997  89.7599988
 138.7780012  96.2924997  91.2809988 138.6030012  96.0414997  92.3489988
 138.0870012  95.6774997  90.6649988 138.5150012  97.8564997  90.9949988
 139.3310012  98.3244997  91.5849988 137.5130012  97.9244997  91.4709988
 138.3460012  98.1874997  89.5229988 137.4780012  97.6304997  89.1079988
 139.2910012  97.8694997  89.0339988 138.0940012  99.6944997  89.2719988
 138.6610012  99.9174997  88.3429988 138.6590012 100.1374997  90.1189988
 136.6380012 100.2184997  88.9709988 136.5750012 101.3234997  88.8769988
 136.0370012  99.8504997  89.8299988 135.9870012  99.7564997  87.6779988
 134.8910012  99.9244997  87.7489988 136.2250012  98.6884997  87.4839988
 136.4120012 100.6024997  86.4139988 137.5140012 100.7124997  86.3339988
 135.9800012 101.6034997  86.6279988 135.7730012 100.0744997  85.1879988
 136.0950012 100.7104997  84.3359988 134.6870012 100.2634997  85.3239988
 136.1450012  99.0464997  84.9909988  16.8800012 139.8944997  82.7919988
  16.4760012 139.0004997  82.2699988  16.2680012 140.7684997  82.4819988
  16.6680012 139.7394997  83.8709988  18.3590012 140.0804997  82.6099988
  18.7120012 140.1444997  81.5589988  18.6470012 141.0754997  83.0119988
  19.2880012 139.1374997  83.4499988  19.0270012 138.1444997  83.0269988
  20.2830012 139.3594997  83.0099988  19.2170012 139.4414997  84.9609988
  19.2290012 140.5514997  85.0089988  18.1990012 139.1464997  85.2939988
  20.2410012 138.8084997  85.9079988  21.0990012 138.4444997  85.3039988
  20.6610012 139.5194997  86.6499988  19.6060012 137.8004997  86.8659988
  18.7950012 138.3254997  87.4139988  19.1910012 137.0314997  86.1789988
  20.6350012 137.3104997  87.9139988  21.6060012 137.1134997  87.4109988
  20.8480012 138.1384997  88.6239988  20.1590012 136.1154997  88.7359988
  21.0450012 135.9294997  89.3809988  19.2820012 136.4484997  89.3309988
  19.6690012 134.8074997  88.0659988  18.8310012 135.0704997  87.3859988
  20.4250012 134.2554997  87.4669988  19.1490012 133.8244997  89.1839988
  18.1540012 134.2414997  89.4509988  19.0710012 132.8074997  88.7449988
  20.1240012 133.7154997  90.4279988  21.1490012 133.4894997  90.0659988
  20.0560012 134.6434997  91.0339988  19.6810012 132.5564997  91.3439988
  19.6400012 131.6224997  90.7429988  20.2510012 132.6044997  92.2959988
  18.1880012 132.6604997  91.8639988  17.5650012 132.5854997  90.9469988
  18.0060012 131.7334997  92.4469988  17.7860012 133.9374997  92.7439988
  17.9640012 134.8304997  92.1079988  16.6990012 134.0624997  92.9319988
  18.5140012 134.0604997  94.1289988  18.2490012 133.2364997  94.8249988
  19.6110012 134.0154997  93.9569988  18.3200012 135.4474997  94.9129988
  17.8320012 136.4184997  94.3879988  19.0420012 135.3994997  96.0669988
  19.4300012 136.5994997  96.7159988  20.4050012 136.5034997  97.2409988
  19.6140012 137.4014997  95.9689988  18.4480012 137.0914997  97.7949988
  18.8670012 138.0404997  98.1919988  18.4570012 136.0704997  98.8889988
  18.3270012 135.0584997  98.4489988  19.4610012 136.1914997  99.3499988
  17.3540012 136.4024997  99.7639988  17.2820012 135.8724997 101.2959988
  18.1080012 136.8974997 102.1079988  18.2660012 138.2604997 101.6509988
  17.5380012 138.4644997 100.8359988  18.1690012 138.9354997 102.5279988
  19.7080012 138.4144997 101.0879988  19.7460012 137.9744997 100.1019988
  19.8980012 139.4754997 101.0219988  21.0090012 137.8574997 101.6749988
  20.8850012 136.3584997 101.9029988  21.7780012 136.0544997 102.4299988
  20.0040012 136.0304997 102.4349988  20.7190012 135.9084997 100.9359988
  22.0940012 138.0954997 100.6559988  23.0350012 137.7564997 101.0619988
  21.7910012 137.5504997  99.7739988  22.2430012 139.1494997 100.4769988
  21.3970012 138.5224997 102.8949988  20.5220012 138.4664997 103.5239988
  21.5570012 139.5804997 102.7489988  22.2740012 138.1954997 103.4339988
  15.8650012 136.0244997 101.7249988  17.9630012 134.5034997 101.4199988
  17.0820012 137.2224997  97.3199988  16.7360012 138.3304997  96.7019988
  17.4710012 139.3144997  96.6579988  15.3210012 138.2844997  96.1929988
  14.6080012 138.7054997  96.9349988  15.0430012 137.2294997  95.9799988
  15.2950012 139.0204997  94.8349988  16.1180012 138.6214997  94.2039988
  15.3820012 140.1134997  95.0149988  13.9290012 138.8184997  94.0369988
  13.5690012 139.6404997  93.3819988  13.1030012 138.5664997  94.7359988
  13.9920012 137.6134997  93.0129988  12.9290012 137.5764997  92.6929988
  14.2890012 136.6344997  93.4459988  14.6650012 137.9104997  91.6409988
  15.3680012 138.7524997  91.8189988  13.9320012 138.1834997  90.8519988
  15.4320012 136.7544997  91.1339988  14.7350012 135.8904997  91.1669988
  16.3260012 136.5504997  91.7609988  15.8740012 136.8804997  89.6419988
  16.3140012 135.9184997  89.2999988  16.6970012 137.6274997  89.6409988
  14.8190012 137.1754997  88.5909988  14.5290012 138.2334997  88.6719988
  14.1930012 136.3534997  87.7819988  13.4700012 136.7454997  87.0509988
  14.4390012 134.9074997  87.7769988  13.5810012 134.2784997  87.4569988
  14.8380012 134.6244997  88.7739988  15.6260012 134.5134997  86.8179988
  16.0290012 133.5124997  87.0849988  16.4390012 135.2194997  87.0909988
  15.2940012 134.6414997  85.2749988  15.0730012 135.7274997  85.1939988
  14.5600012 133.8714997  84.9559988  16.5150012 134.5214997  84.2949988
  16.8110012 133.4504997  84.2719988  17.4500012 135.0304997  84.6129988
  16.2480012 135.1104997  82.8629988  15.8150012 136.1294997  82.9549988
  15.5090012 134.4954997  82.3049988  17.4070012 135.2074997  81.8879988
  17.7780012 134.1794997  81.6859988  18.2130012 135.7604997  82.4159988
  17.1660012 136.0044997  80.6039988  17.3060012 137.0944997  80.7669988
  16.2460012 135.6534997  80.0899988  18.2550012 135.6664997  79.6259988
  19.2830012 135.7234997  80.0439988  18.1910012 136.3274997  78.7359988
  18.0970012 134.6564997  79.1919988 131.3240012  25.4604997  81.0739988
 132.3990012  25.6534997  81.2789988 131.2290012  25.9104997  80.0629988
 131.0380012  24.3874997  81.1229988 130.5140012  26.2544997  82.0929988
 130.5910012  27.3344997  81.8449988 129.4930012  26.0114997  81.7289988
 130.8410012  25.9214997  83.5439988 130.4910012  24.9104997  83.8419988
 131.9350012  25.9284997  83.7339988 130.2160012  26.8524997  84.5799988
 130.4150012  27.8754997  84.1969988 129.1180012  26.7604997  84.4379988
 130.4610012  26.5044997  86.0699988 130.0610012  25.4934997  86.2989988
 131.5650012  26.5194997  86.1979988 129.9390012  27.5524997  87.0249988
 130.1840012  28.5954997  86.7309988 128.8460012  27.6024997  86.8309988
 130.2260012  27.2284997  88.5339988 129.5530012  26.3744997  88.7599988
 131.2610012  26.8974997  88.7619988 129.8850012  28.3384997  89.5279988
 130.4550012  29.2484997  89.2429988 128.8020012  28.4204997  89.7599988
 130.4080012  27.9944997  90.9589988 129.9370012  27.0334997  91.2579988
 131.5150012  27.9394997  90.8939988 130.1420012  29.1384997  91.9319988
 130.4490012  30.1434997  91.5689988 129.0350012  29.1194997  92.0239988
 130.6350012  28.9124997  93.4359988 130.4860012  27.8484997  93.7189988
 131.7170012  29.1254997  93.5779988 130.0070012  29.6704997  94.5609988
 130.1010012  30.7734997  94.4589988 128.9040012  29.5724997  94.4689988
 130.3820012  29.2804997  95.9739988 131.4190012  28.9524997  96.2039988
 130.1780012  30.2084997  96.5499988 129.5080012  28.0554997  96.4389988
 128.4780012  28.3024997  96.1049988 129.8940012  27.2944997  95.7269988
 129.4330012  27.6604997  97.9409988 130.5010012  27.6674997  98.2479988
 128.9660012  28.5084997  98.4869988 128.6380012  26.3534997  98.2059988
 127.9090012  25.7324997  97.4279988 128.8440012  26.0814997  99.4409988
 128.1290012  24.9194997 100.0089988 127.9490012  25.1914997 101.0709988
 127.1460012  24.7484997  99.5209988 129.0300012  23.7024997 100.1689988
 128.4770012  22.9294997 100.7459988 130.2910012  23.9814997 101.0099988
 130.0240012  24.5994997 101.8939988 130.5940012  23.0004997 101.4309988
 131.3900012  24.6014997 100.3339988 132.9120012  24.4914997 100.8549988
 133.3380012  25.9744997 100.9979988 132.5990012  26.9284997 100.2519988
 133.2750012  27.7924997 100.0739988 132.4240012  26.5994997  99.2049988
 131.2700012  27.3064997 100.9649988 130.6900012  27.9794997 100.3499988
 130.6270012  26.4384997 100.9929988 131.3210012  28.0164997 102.3389988
 129.9540012  28.5184997 102.6499988 129.6590012  29.2854997 101.9489988
 129.2290012  27.7204997 102.5859988 129.8650012  29.0474997 103.5879988
 131.6600012  27.0404997 103.4709988 132.6340012  26.6474997 103.2169988
 131.8140012  27.4404997 104.4619988 130.8840012  26.2914997 103.5219988
 132.4340012  29.1084997 102.3089988 133.3300012  28.6544997 101.9109988
 132.5290012  29.5554997 103.2879988 132.1360012  29.8464997 101.5799988
 133.0470012  23.8734997 102.2269988 133.6650012  23.8034997  99.7819988
 129.3850012  23.2804997  98.8589988 130.0020012  22.1214997  98.7709988
 130.1210012  21.3294997  99.6599988 130.1210012  21.7624997  97.2729988
 129.3980012  22.2864997  96.6119988 129.9340012  20.6714997  97.1859988
 131.6060012  21.9044997  96.7429988 131.7320012  21.4174997  95.7529988
 132.3730012  21.3954997  97.3649988 132.1160012  23.3924997  96.5389988
 133.1570012  23.4094997  96.1529988 131.9970012  23.8554997  97.5419988
 131.2630012  24.2824997  95.5809988 131.5930012  25.3314997  95.7419988
 130.1760012  24.3654997  95.7969988 131.3760012  23.7104997  94.1379988
 130.7710012  24.3534997  93.4639988 131.0380012  22.6524997  94.1089988
 132.7990012  23.8024997  93.5669988 133.3650012  22.8954997  93.8679988
 133.3910012  24.6594997  93.9519988 132.8460012  23.8694997  92.0359988
 133.8970012  23.8274997  91.6789988 132.3530012  24.7884997  91.6529988
 132.0920012  22.8444997  91.3069988 131.2090012  22.4144997  91.8019988
 132.4360012  22.2394997  90.1759988 131.6790012  21.5584997  89.7609988
 133.7000012  22.3964997  89.2189988 134.1080012  21.3754997  89.0599988
 134.4360012  23.1364997  89.5999988 133.2640012  22.8574997  87.7859988
 134.1660012  22.7544997  87.1449988 133.0990012  23.9554997  87.8409988
 132.1110012  22.0744997  87.1339988 131.2490012  22.2614997  87.8099988
 132.3980012  21.0074997  87.0189988 131.5960012  22.4884997  85.7479988
 131.8390012  23.5524997  85.5399988 130.4990012  22.3124997  85.7449988
 132.1990012  21.6784997  84.5309988 132.1820012  20.5854997  84.7319988
 133.2840012  21.9144997  84.5549988 131.6310012  22.0734997  83.1689988
 132.3990012  21.8994997  82.3849988 131.5050012  23.1774997  83.1699988
 130.2580012  21.4054997  82.7019988 130.4180012  20.3214997  82.5149988
 130.0300012  21.8814997  81.7249988 129.1310012  21.6254997  83.6069988
 129.2410012  21.0144997  84.5289988 128.1390012  21.3344997  83.1999988
 129.1610012  22.7034997  83.8749988  33.6440012  10.3074997  82.2539988
  32.5460012  10.1354997  82.2379988  34.0080012   9.9794997  81.2569988
  33.9820012  11.3494997  82.4399988  34.3030012   9.2584997  83.1429988
  34.1200012   8.2724997  82.6629988  35.3930012   9.4434997  83.2509988
  33.8550012   9.3444997  84.5789988  32.7670012   9.1404997  84.6649988
  34.2550012   8.4714997  85.1369988  34.0440012  10.6224997  85.3369988
  33.3500012  11.4464997  85.0669988  33.8040012  10.4584997  86.4089988
  35.4310012  11.2994997  85.2489988  35.9620012  10.4104997  85.6499988
  35.7730012  11.4034997  84.1969988  35.7440012  12.5304997  86.1599988
  36.8300012  12.6674997  86.3509988  35.4480012  13.4814997  85.6689988
  35.1330012  12.4204997  87.5269988  34.0280012  12.3094997  87.5709988
  35.5830012  11.5174997  87.9919988  35.4460012  13.7144997  88.2939988
  36.5470012  13.8544997  88.2469988  35.0930012  14.6224997  87.7609988
  34.8830012  13.8734997  89.7419988  35.3120012  14.7994997  90.1819988
  33.7730012  13.8244997  89.7319988  35.3550012  12.6394997  90.6069988
  34.7650012  11.7774997  90.2279988  36.4560012  12.5274997  90.5119988
  35.0760012  12.8844997  92.0429988  35.8340012  13.6764997  92.2219988
  34.1040012  13.3784997  92.2599988  35.6240012  11.7684997  93.0009988
  34.9740012  10.8694997  93.0649988  36.6130012  11.4644997  92.5979988
  36.0200012  12.2524997  94.4149988  36.4530012  11.4344997  95.0299988
  36.8480012  12.9574997  94.1869988  34.8950012  13.0434997  95.2329988
  34.6590012  14.0104997  94.7389988  33.9750012  12.4214997  95.2599988
  35.3520012  13.1184997  96.7329988  35.3020012  12.0944997  97.1609988
  36.3780012  13.5444997  96.7309988  34.4370012  14.1634997  97.4889988
  34.7730012  15.2554997  97.8479988  33.2140012  13.7534997  97.4669988
  32.2100012  14.5174997  98.1969988  32.7600012  15.0804997  98.9809988
  31.6570012  15.2274997  97.5449988  31.2460012  13.5974997  98.8329988
  30.3680012  14.1664997  99.2069988  31.7490012  12.9194997 100.1279988
  32.8260012  12.6994997  99.9659988  31.7600012  13.5534997 101.0399988
  30.9920012  11.7914997 100.5029988  31.5390012  10.3904997 101.0619988
  32.9970012  10.7894997 101.3959988  33.4240012  11.5654997 102.5199988
  33.3710012  12.6564997 102.3169988  32.8730012  11.3984997 103.4699988
  34.9450012  11.3644997 102.8009988  35.4110012  11.8044997 103.6699988
  35.1580012  10.3304997 103.0299988  35.9150012  11.7994997 101.6529988
  35.7570012  11.0314997 100.3699988  36.4690012  11.4874997  99.6979988
  35.9580012   9.9854997 100.5489988  34.7780012  11.0854997  99.9169988
  35.7390012  13.3144997 101.2549988  34.7360012  13.3934997 100.8619988
  35.8400012  13.8424997 102.1919988  36.4810012  13.7324997 100.5899988
  37.3550012  11.6684997 102.2219988  38.0600012  12.0624997 101.5039988
  37.5190012  10.6464997 102.5279988  37.3560012  12.2404997 103.1379988
  30.9270012  10.0714997 102.3659988  31.5340012   9.3044997 100.0339988
  30.7490012  12.5654997  97.9339988  29.8100012  12.8374997  97.0379988
  29.1620012  13.8514997  96.8909988  29.6520012  11.6034997  96.1389988
  28.9720012  11.8284997  95.2899988  29.2310012  10.7644997  96.7319988
  31.0360012  11.2184997  95.6199988  31.6730012  10.8204997  96.4389988
  31.4790012  12.1504997  95.2089988  31.2680012  10.2564997  94.3889988
  31.0270012   9.2054997  94.6589988  32.3370012  10.4114997  94.1299988
  30.5890012  10.7034997  93.0449988  31.0210012  11.6674997  92.6999988
  29.5630012  10.9124997  93.4169988  30.8350012   9.7634997  91.8969988
  30.7960012   8.7674997  92.3899988  31.8570012  10.0594997  91.5759988
  29.9040012   9.9354997  90.6819988  28.8470012   9.8924997  91.0209988
  30.0970012   9.0854997  89.9929988  30.2910012  11.2204997  89.8139988
  29.6350012  11.0074997  88.9439988  31.3670012  11.0594997  89.5869988
  30.0090012  12.6424997  90.2459988  29.8440012  12.7914997  91.3229988
  29.9970012  13.7054997  89.4569988  29.6810012  14.6524997  89.9189988
  30.2900012  13.7684997  88.0269988  29.3030012  13.7094997  87.5199988
  30.8180012  12.9104997  87.5579988  31.0020012  15.0784997  87.4879988
  31.9210012  15.0624997  88.1119988  30.3340012  15.9384997  87.7099988
  31.3450012  15.1764997  86.0029988  30.4690012  15.1984997  85.3199988
  31.7740012  14.1864997  85.7389988  32.3510012  16.2284997  85.5369988
  33.1580012  16.1464997  86.2949988  32.1260012  17.3144997  85.4749988
  33.0000012  15.8914997  84.1759988  33.3960012  14.8574997  84.2639988
  33.7240012  16.6714997  83.8549988  31.9610012  15.8794997  83.0249988
  31.6670012  16.9504997  83.0369988  31.0650012  15.2744997  83.2829988
  32.4370012  15.4704997  81.6469988  32.7750012  16.3984997  81.1379988
  31.5510012  15.1214997  81.0739988  33.5200012  14.4574997  81.6399988
  33.6490012  13.9854997  80.6429988  33.3370012  13.6544997  82.3849988
  34.4600012  15.0134997  81.8419988 130.6400012 108.1694997  85.0869988
 130.2750012 107.1234997  84.9949988 129.7100012 108.6934997  84.7819988
 130.9140012 108.4704997  86.1199988 131.7870012 108.3784997  84.1279988
 131.3400012 108.1914997  83.1279988 132.1490012 109.4284997  84.1719988
 132.8510012 107.3874997  84.5339988 133.3110012 107.9474997  85.3759988
 132.4140012 106.4214997  84.8669988 133.9040012 107.1264997  83.4479988
 133.4430012 106.3194997  82.8399988 134.1430012 107.9544997  82.7469988
 135.2010012 106.5614997  83.9319988 135.0630012 105.6834997  84.5989988
 135.8210012 106.3224997  83.0409988 136.0470012 107.5214997  84.7049988
 135.5530012 107.9284997  85.6129988 136.9130012 106.8804997  84.9769988
 136.6480012 108.8214997  83.9809988 137.0420012 108.4474997  83.0119988
 135.7720012 109.4724997  83.7719988 137.6070012 109.6254997  84.9059988
 138.2730012 108.8024997  85.2429988 138.2640012 110.3654997  84.3999988
 136.9150012 110.4344997  86.0339988 137.3880012 111.4284997  86.1829988
 135.8760012 110.7104997  85.7549988 136.8790012 109.7114997  87.4539988
 136.1190012 108.9004997  87.4189988 137.9150012 109.3294997  87.5719988
 136.4530012 110.6954997  88.5949988 137.2410012 111.4784997  88.6059988
 135.4690012 111.1564997  88.3659988 136.1680012 109.9754997  89.9299988
 135.1970012 109.4494997  89.8069988 136.9710012 109.2094997  89.9539988
 136.0250012 110.9044997  91.1959988 137.0150012 111.3604997  91.4109988
 135.3120012 111.6654997  90.8139988 135.5360012 110.2274997  92.4829988
 134.6750012 109.5394997  92.3439988 136.3580012 109.5554997  92.8099988
 135.1720012 111.2154997  93.6139988 135.8890012 112.0524997  93.7569988
 134.1250012 111.5764997  93.5219988 135.1560012 110.5164997  95.0339988
 136.1880012 110.0944997  95.5899988 133.9710012 110.5764997  95.5729988
 133.6440012 110.1114997  96.8569988 132.5780012 109.9174997  97.1059988
 134.1490012 109.1314997  96.9919988 134.2240012 111.1254997  97.9179988
 135.3150012 111.2934997  97.7889988 133.9820012 110.7234997  99.3879988
 132.9130012 110.4214997  99.4079988 134.4980012 109.7604997  99.5899988
 134.2800012 111.6594997 100.3939988 133.4990012 111.8404997 101.7259988
 132.4470012 110.6914997 101.6839988 132.8630012 109.3554997 102.1569988
 133.6170012 108.8714997 101.4999988 133.3650012 109.4274997 103.1459988
 131.6690012 108.4284997 102.3749988 132.0880012 107.4564997 102.5869988
 131.1320012 108.7904997 103.2389988 130.8330012 108.2024997 101.1159988
 131.7790012 107.6914997 100.0159988 132.3870012 106.8404997 100.2859988
 131.3020012 107.4674997  99.0729988 132.4800012 108.4754997  99.7719988
 129.7380012 107.2124997 101.4569988 130.1320012 106.2104997 101.5419988
 129.2660012 107.5174997 102.3789988 128.9530012 107.2074997 100.7149988
 130.1700012 109.5124997 100.6729988 131.0220012 110.1284997 100.4259988
 129.7210012 109.8724997 101.5869988 129.4200012 109.4414997  99.8989988
 134.4400012 111.5394997 102.8139988 132.8800012 113.1594997 101.7699988
 133.5240012 112.3474997  97.8149988 133.9790012 113.2784997  97.0019988
 135.0720012 113.2374997  96.5059988 132.9080012 114.2894997  96.6089988
 133.3080012 115.2774997  96.2949988 132.3470012 114.6464997  97.4989988
 132.0400012 113.7014997  95.4729988 132.7060012 113.4224997  94.6289988
 131.3780012 114.5124997  95.0989988 130.9590012 112.6094997  95.8069988
 130.4000012 113.0974997  96.6349988 131.5080012 111.7194997  96.1799988
 130.0920012 112.5384997  94.4999988 129.7770012 113.4984997  94.0369988
 129.1610012 112.0844997  94.9019988 130.6350012 111.6114997  93.4239988
 130.7200012 110.6634997  93.9969988 131.6380012 111.8684997  93.0219988
 129.7120012 111.3484997  92.2319988 128.8120012 110.9324997  92.7329988
 130.1530012 110.5444997  91.6039988 129.1930012 112.5314997  91.3299988
 128.4470012 113.1154997  91.9089988 128.7380012 112.1314997  90.3989988
 130.0920012 113.4794997  90.6179988 129.8000012 114.5394997  90.5739988
 131.0940012 113.1374997  89.8139988 131.7200012 113.9804997  89.4839988
 131.5690012 111.7134997  89.4279988 130.8020012 110.9154997  89.5169988
 132.5220012 111.3764997  89.8879988 131.8830012 111.6974997  87.8459988
 132.2270012 110.6694997  87.6039988 132.6470012 112.4824997  87.6609988
 130.6850012 112.1554997  86.9519988 130.4000012 113.1494997  87.3579988
 129.7980012 111.4884997  87.0069988 131.1380012 112.4604997  85.5159988
 131.6830012 111.5244997  85.2699988 131.8270012 113.3304997  85.4779988
 129.9290012 112.5454997  84.6109988 129.2590012 113.4044997  84.8269988
 129.4100012 111.5874997  84.8309988 130.2680012 112.4714997  83.0829988
 129.3380012 112.4874997  82.4759988 130.8180012 111.5454997  82.8109988
 131.1130012 113.6054997  82.4999988 130.9410012 113.5904997  81.4019988
 132.1850012 113.5194997  82.7769988 130.7490012 115.1064997  82.8429988
 131.2790012 115.7794997  82.1349988 130.8800012 115.2214997  83.9399988
 129.7050012 115.3024997  82.5169988   6.8090012 131.8114997  84.1249988
   5.7900012 132.2204997  84.2919988   6.7210012 130.7364997  83.8589988
   7.1750012 132.4144997  83.2659988   7.7700012 132.0994997  85.3039988
   8.8220012 131.8684997  85.0289988   7.7940012 133.1764997  85.5779988
   7.5420012 131.4654997  86.7459988   8.0810012 132.1874997  87.3949988
   6.4740012 131.4514997  87.0539988   8.2930012 130.0724997  86.9099988
   7.6590012 129.3534997  86.3479988   9.2920012 130.0754997  86.4229988
   8.3240012 129.5804997  88.3619988   7.3710012 129.7134997  88.9159988
   8.5410012 128.4964997  88.2539988   9.4220012 130.2444997  89.1189988
   9.2150012 131.3154997  89.3319988   9.4310012 129.8114997  90.1419988
  10.8250012 129.9194997  88.5979988  10.9230012 128.8574997  88.2889988
  11.0530012 130.4714997  87.6609988  11.9090012 130.0764997  89.7499988
  12.9240012 130.0094997  89.3019988  11.8440012 131.1094997  90.1539988
  11.8150012 129.0284997  90.8419988  10.8190012 129.0764997  91.3329988
  11.7500012 128.1134997  90.2139988  13.0610012 128.8294997  91.7169988
  13.0490012 127.8774997  92.2899988  13.8930012 128.6934997  90.9949988
  13.2800012 129.9184997  92.7359988  13.4560012 130.8714997  92.1919988
  12.3310012 129.9664997  93.3109988  14.3750012 129.7944997  93.7629988
  14.1320012 128.9574997  94.4529988  15.3360012 129.5414997  93.2669988
  14.5340012 131.0024997  94.6869988  15.3820012 130.8084997  95.3789988
  14.8320012 131.9054997  94.1119988  13.2750012 131.4224997  95.4609988
  12.4730012 131.5864997  94.7099988  13.0700012 130.7714997  96.3379988
  13.4530012 132.8854997  95.9809988  14.2420012 132.7854997  96.7569988
  13.8620012 133.5874997  95.2239988  12.2200012 133.4684997  96.6549988
  12.1610012 134.6274997  96.9859988  11.2380012 132.5814997  96.9309988
  10.0890012 133.0644997  97.7279988  10.4640012 133.5284997  98.6649988
   9.5760012 133.8944997  97.1979988   9.0280012 131.9564997  97.8369988
   8.0060012 132.3654997  97.9899988   9.3530012 131.1014997  99.0469988
   9.3640012 131.7354997  99.9589988   8.5210012 130.3664997  99.0729988
  10.6290012 130.4644997  98.8809988  11.7780012 130.6564997  99.9649988
  11.5700012 132.0984997 100.5909988  12.4940012 132.4644997 101.5469988
  12.6190012 131.6214997 102.2589988  13.4930012 132.5224997 101.0639988
  12.1160012 133.8304997 102.1769988  13.0130012 133.9744997 102.7599988
  12.1910012 134.6014997 101.4239988  10.8730012 134.0104997 102.9569988
   9.6980012 133.7844997 102.0769988   9.7420012 134.5834997 101.3509988
   9.8480012 132.8304997 101.5929988   8.7300012 133.9084997 102.5379988
  10.8280012 133.0434997 104.1159988   9.9110012 133.2314997 104.6539988
  10.8680012 132.0464997 103.7039988  11.6660012 133.3504997 104.7249988
  10.9320012 135.4284997 103.5629988  10.0790012 135.5774997 104.2089988
  10.9450012 136.1334997 102.7449988  11.8060012 135.5544997 104.1849988
  11.6070012 129.5854997 100.9999988  13.0500012 130.7194997  99.3079988
   9.0430012 131.1914997  96.6589988   8.5130012 131.7384997  95.5379988
   8.0630012 132.8494997  95.4259988   8.5750012 130.7654997  94.3989988
   7.6540012 130.1464997  94.3569988   9.5450012 130.2424997  94.2579988
   8.3180012 131.4964997  93.0439988   7.4140012 132.1254997  93.1889988
   8.0320012 130.7284997  92.2939988   9.5470012 132.1754997  92.4079988
   9.1920012 132.2364997  91.3569988  10.4560012 131.5454997  92.3009988
   9.9150012 133.5584997  92.8699988  10.4110012 133.4754997  93.8599988
   9.0330012 134.2134997  93.0349988  10.9660012 134.2844997  91.9939988
  10.9700012 135.3314997  92.3649988  10.6730012 134.3824997  90.9269988
  12.3810012 133.7284997  92.1399988  12.5080012 132.6254997  92.1009988
  12.6810012 133.9844997  93.1789988  13.3320012 134.4054997  91.1659988
  13.2000012 135.4814997  91.4099988  13.0050012 134.1774997  90.1289988
  14.7950012 134.0584997  91.4109988  15.0980012 134.4914997  92.3749988
  15.6550012 133.4054997  90.6559988  16.7050012 133.3084997  90.9679988
  15.5340012 132.7814997  89.2889988  14.4740012 132.7594997  88.9559988
  16.0690012 131.8074997  89.2799988  16.3060012 133.5764997  88.2919988
  17.4070012 133.4564997  88.3829988  16.1770012 134.6624997  88.4849988
  15.9060012 133.2054997  86.8339988  15.5670012 132.1484997  86.7949988
  16.7730012 133.2574997  86.1409988  14.8090012 134.0784997  86.0969988
  15.2830012 135.0154997  85.7329988  13.8910012 134.3494997  86.6609988
  14.2460012 133.3784997  84.8139988  15.1400012 132.9374997  84.3219988
  13.7280012 134.1744997  84.2369988  13.1420012 132.2724997  85.0239988
  12.2660012 132.7124997  85.5449988  13.6120012 131.5284997  85.7019988
  12.6780012 131.7094997  83.7579988  12.2580012 132.5254997  83.1309988
  11.8820012 130.9404997  83.8509988  13.7150012 130.8654997  83.0159988
  14.6040012 131.3294997  82.5389988  13.2220012 130.3964997  82.1379988
  14.0720012 130.1144997  83.7529988 108.1530012 132.5834997  82.3989988
 108.9980012 132.2414997  81.7629988 108.2130012 133.6894997  82.4829988
 107.2080012 132.3024997  81.8869988 108.0730012 131.8864997  83.7959988
 108.7380012 132.4354997  84.4959988 107.0800012 132.1334997  84.2279988
 108.4410012 130.3874997  84.0829988 107.9990012 129.9304997  83.1719988
 109.5500012 130.3314997  84.1349988 107.8740012 129.8774997  85.4619988
 106.7640012 129.8604997  85.4109988 108.2020012 128.8204997  85.3669988
 108.3110012 130.5524997  86.7799988 109.4170012 130.6034997  86.6979988
 107.9620012 131.6054997  86.8409988 107.9940012 129.7534997  88.0309988
 108.6990012 128.8984997  88.1059988 108.2320012 130.4534997  88.8599988
 106.5200012 129.3214997  88.2269988 105.8800012 130.2264997  88.3059988
 106.1520012 128.8444997  87.2929988 106.2310012 128.3974997  89.4479988
 105.1460012 128.1644997  89.4939988 106.7030012 127.4544997  89.0989988
 106.7680012 128.9294997  90.7439988 107.8180012 129.2474997  90.5689988
 106.2670012 129.8754997  91.0409988 106.6580012 127.9504997  91.8959988
 105.5950012 127.6754997  92.0639988 107.2540012 127.0364997  91.6849988
 107.2220012 128.4814997  93.2389988 106.6000012 129.3784997  93.4459988
 106.9690012 127.7834997  94.0649988 108.6330012 128.7834997  93.2029988
 109.0250012 128.5704997  92.1859988 108.6720012 129.8884997  93.3069988
 109.4500012 128.0904997  94.3429988 108.9860012 128.3304997  95.3229988
 109.2530012 127.0024997  94.2369988 110.8650012 128.5414997  94.2909988
 111.3380012 128.5584997  93.2849988 110.7410012 129.6124997  94.5599988
 111.7470012 127.8914997  95.4079988 111.0500012 127.3404997  96.0759988
 112.4970012 127.1934997  94.9799988 112.6020012 128.9154997  96.1559988
 112.9610012 129.9354997  95.6719988 112.7950012 128.4574997  97.4159988
 113.4560012 129.5264997  98.2739988 114.1860012 129.0994997  98.9939988
 114.0180012 130.3244997  97.7439988 112.4020012 130.2904997  99.1749988
 112.8840012 130.8374997 100.0139988 111.3910012 129.3834997  99.9059988
 111.8980012 128.3964997  99.8549988 111.3850012 129.6324997 100.9889988
 110.0350012 129.3034997  99.4469988 108.9990012 128.1514997  99.8799988
 108.1390012 128.9034997 100.9529988 107.5500012 130.2154997 100.8529988
 107.4710012 130.5954997  99.8129988 106.5690012 130.2074997 101.3749988
 108.4690012 131.2224997 101.6199988 109.4300012 131.1144997 101.1389988
 108.2070012 132.2144997 101.2829988 108.5140012 131.1374997 103.1279988
 107.1490012 131.4174997 103.7369988 106.5180012 130.5564997 103.5699988
 107.2850012 131.7304997 104.7619988 106.7040012 132.2304997 103.1839988
 108.9640012 129.8244997 103.7499988 109.8170012 129.3964997 103.2449988
 109.0460012 129.9564997 104.8189988 108.1440012 129.1514997 103.5459988
 109.4400012 132.2814997 103.5339988 108.8900012 133.1904997 103.3409988
 110.3990012 132.2764997 103.0369988 109.6110012 132.2944997 104.6009988
 108.1290012 127.8014997  98.6929988 109.7270012 127.0714997 100.5859988
 111.6360012 131.2344997  98.3979988 110.9010012 132.1804997  98.9869988
 110.9050012 132.4844997 100.1809988 110.0690012 132.8604997  97.9149988
 110.6000012 132.8194997  96.9399988 109.8120012 133.8954997  98.2269988
 108.7020012 132.2634997  97.7819988 108.2010012 132.4624997  98.7529988
 108.8010012 131.1614997  97.6859988 107.9600012 132.7904997  96.5409988
 107.6490012 133.8444997  96.7049988 107.1040012 132.0824997  96.5129988
 108.7700012 132.7914997  95.1759988 109.4250012 131.8954997  95.1839988
 109.4390012 133.6774997  95.1439988 107.8460012 132.5874997  93.9559988
 106.9230012 133.2014997  94.0279988 107.4450012 131.5554997  94.0489988
 108.5040012 132.7734997  92.5609988 108.2120012 133.8114997  92.2909988
 108.0410012 132.1194997  91.7919988 110.0470012 132.5724997  92.4759988
 110.0820012 131.4804997  92.6799988 110.6600012 133.0374997  93.2779988
 110.6200012 132.8474997  91.1109988 110.0950012 133.6874997  90.6339988
 111.4380012 132.1014997  90.3769988 111.8910012 132.5774997  89.4949988
 112.0930012 130.8074997  90.6349988 111.8080012 130.2984997  91.5799988
 113.1800012 131.0034997  90.5159988 111.5630012 129.7384997  89.6269988
 112.1160012 129.8584997  88.6709988 110.4840012 129.8214997  89.3739988
 111.6880012 128.3274997  90.1159988 111.2990012 128.2914997  91.1559988
 112.7820012 128.1354997  90.1569988 110.8790012 127.3324997  89.3109988
 109.7940012 127.4024997  89.5389988 111.0030012 126.2724997  89.6169988
 111.1250012 127.3814997  87.7769988 110.5680012 128.2894997  87.4619988
 110.6060012 126.4854997  87.3739988 112.6150012 127.2734997  87.3599988
 113.0340012 126.5994997  88.1369988 113.1560012 128.2434997  87.4019988
 112.8640012 126.6824997  85.9819988 112.3610012 125.7274997  85.7179988
 113.9560012 126.4764997  85.9599988 112.4320012 127.6664997  84.8479988
 113.1930012 128.4714997  84.7649988 111.3760012 127.9354997  85.0639988
 112.4370012 127.0044997  83.9549988  20.9700012  30.0614997  84.2239988
  20.7220012  30.5414997  85.1949988  20.4430012  30.5624997  83.3839988
  22.0220012  30.3024997  83.9629988  20.7520012  28.5644997  84.3059988
  19.6980012  28.2654997  84.1189988  21.2200012  28.0894997  83.4169988
  21.2420012  27.9074997  85.6439988  22.2900012  28.2294997  85.8259988
  20.6070012  28.2724997  86.4789988  21.2380012  26.3474997  85.6629988
  22.0130012  26.0944997  84.9089988  21.5170012  26.0294997  86.6899988
  19.8390012  25.7384997  85.3209988  19.4000012  26.2774997  84.4539988
  19.8820012  24.6724997  85.0119988  18.8880012  25.8474997  86.4559988
  18.9550012  26.8244997  86.9809988  17.8750012  25.7544997  86.0099988
  19.0370012  24.6954997  87.5439988  18.8880012  23.7044997  87.0659988
  20.0830012  24.7044997  87.9159988  18.2520012  25.0544997  88.7929988
  18.1790012  24.2094997  89.5099988  18.8090012  25.8244997  89.3679988
  16.7830012  25.4514997  88.4809988  16.7300012  26.4964997  88.1049988
  16.5160012  24.7794997  87.6369988  15.7770012  25.0774997  89.6449988
  14.7480012  25.2214997  89.2509988  15.8820012  24.0654997  90.0919988
  15.8550012  26.0124997  90.9029988  16.7520012  26.6644997  90.8439988
  14.9170012  26.6074997  90.9009988  15.8680012  25.2564997  92.2579988
  14.9800012  24.5894997  92.2259988  16.7820012  24.6394997  92.1289988
  16.0200012  26.0814997  93.5859988  16.5990012  25.5524997  94.3729988
  16.5230012  26.9994997  93.2139988  14.5780012  26.5544997  94.0669988
  14.0890012  27.2254997  93.3289988  14.0030012  25.6124997  94.1969988
  14.5350012  27.3034997  95.3809988  15.1080012  28.2134997  95.1019988
  13.5350012  27.6974997  95.6639988  15.3140012  26.4894997  96.3869988
  14.9070012  25.4914997  96.9129988  16.5660012  27.0294997  96.5379988
  17.2650012  26.4424997  97.6819988  16.6610012  26.5564997  98.6069988
  17.3480012  25.3514997  97.4869988  18.6590012  27.0804997  97.6669988
  19.0920012  26.9174997  96.6569988  19.5260012  26.3414997  98.7609988
  19.4380012  25.2384997  98.6609988  20.5920012  26.5444997  98.5199988
  19.2120012  26.6604997 100.0989988  20.3710012  26.9634997 101.1869988
  19.4670012  27.9164997 102.1669988  19.0190012  29.1384997 101.6529988
  18.8290012  29.7694997 102.5479988  19.8220012  29.5174997 100.9859988
  17.6480012  29.1274997 100.9319988  17.4910012  30.1024997 100.4949988
  17.7530012  28.4734997 100.0799988  16.3810012  28.6724997 101.6829988
  16.5420012  27.2004997 101.8649988  17.3590012  26.9314997 102.5179988
  15.6540012  26.7354997 102.2659988  16.7660012  26.6624997 100.9559988
  16.1870012  29.3294997 102.9849988  15.2710012  28.9024997 103.3659988
  16.9820012  29.0574997 103.6639988  16.0550012  30.3854997 102.7979988
  15.1060012  28.8774997 100.9179988  15.1340012  29.8624997 100.4749988
  14.1650012  28.8114997 101.4429988  15.0210012  28.1524997 100.1219988
  20.5660012  25.7054997 101.9639988  21.6380012  27.6444997 100.7279988
  18.5690012  28.4884997  98.0389988  19.7410012  29.2324997  97.7999988
  20.7320012  28.7514997  97.2799988  19.6820012  30.7354997  98.2359988
  20.5100012  30.9314997  98.9509988  18.6670012  30.9754997  98.6199988
  20.1140012  31.6364997  97.0909988  21.1910012  31.4174997  96.9299988
  20.0540012  32.7054997  97.3859988  19.4980012  31.3904997  95.6669988
  19.7460012  30.4074997  95.2129988  19.8670012  32.1864997  94.9859988
  17.9240012  31.3944997  95.5349988  17.4570012  32.2944997  95.9869988
  17.4420012  30.5964997  96.1389988  17.4290012  31.2884997  94.1159988
  17.7930012  30.3194997  93.7129988  17.9090012  32.0894997  93.5129988
  15.9350012  31.3974997  94.1019988  15.6870012  32.4224997  94.4519988
  15.4290012  30.7274997  94.8299988  15.1870012  31.2894997  92.6989988
  15.4940012  32.2334997  92.1989988  14.0950012  31.2454997  92.8969988
  15.5930012  29.9554997  91.9789988  15.0660012  29.0474997  92.3059988
  16.4770012  29.8784997  90.9589988  16.5450012  28.9434997  90.3849988
  17.2310012  31.0364997  90.3379988  17.9660012  31.4844997  91.0409988
  16.4850012  31.8424997  90.1689988  17.9010012  30.6464997  88.9929988
  18.3660012  29.6464997  89.1239988  18.8280012  31.2284997  88.8009988
  16.9850012  30.6654997  87.7099988  16.5530012  31.6894997  87.7119988
  16.1220012  29.9744997  87.8129988  17.8000012  30.3894997  86.4389988
  18.2420012  29.3714997  86.4849988  18.5310012  31.2174997  86.3179988
  17.0480012  30.5174997  85.0529988  17.8370012  30.2454997  84.3199988
  16.8160012  31.5994997  84.9519988  15.8670012  29.5244997  85.0509988
  15.1120012  29.7424997  85.8369988  16.3770012  28.5654997  85.2859988
  15.1250012  29.4304997  83.7199988  15.8180012  29.2284997  82.8759988
  14.5890012  30.3364997  83.3659988  14.1400012  28.2234997  83.7629988
  13.5010012  28.2604997  82.8549988  13.6070012  28.3004997  84.7339988
  14.6170012  27.2194997  83.7529988   8.0630012  39.8304997  82.6789988
   7.9140012  40.7484997  82.0709988   7.1600012  39.5374997  83.2569988
   8.0460012  38.9544997  81.9959988   9.4160012  39.8774997  83.4039988
   9.5560012  38.8624997  83.8339988  10.1940012  40.2604997  82.7099988
   9.4260012  40.7204997  84.7289988  10.4140012  40.6374997  85.2289988
   9.4350012  41.7854997  84.4149988   8.3010012  40.3274997  85.7219988
   7.2910012  40.7194997  85.4789988   8.2670012  39.2214997  85.8219988
   8.4260012  40.7584997  87.1649988   8.2210012  41.8454997  87.0659988
   7.6180012  40.2514997  87.7349988   9.7730012  40.5954997  87.8989988
  10.5450012  41.1534997  87.3269988   9.6980012  41.0534997  88.9089988
  10.1040012  39.0894997  87.9769988   9.2820012  38.5594997  88.5039988
  10.2980012  38.5814997  87.0079988  11.3610012  38.9564997  88.9049988
  12.0940012  39.5924997  88.3639988  11.0580012  39.3784997  89.8859988
  11.9830012  37.5214997  89.0689988  12.0950012  36.8144997  88.2199988
  12.9690012  37.5084997  89.5819988  10.9800012  36.7104997  89.9809988
  10.0460012  36.6394997  89.3829988  11.4600012  35.7084997  89.9519988
  10.7430012  37.1954997  91.3689988  10.0410012  38.0484997  91.2539988
  10.2260012  36.4324997  91.9889988  12.1160012  37.4884997  92.1249988
  12.7880012  36.6034997  92.1189988  12.6830012  38.2534997  91.5519988
  11.9790012  37.9554997  93.5379988  11.4530012  37.2494997  94.2149988
  12.9960012  38.0434997  93.9749988  11.2070012  39.3264997  93.6629988
  11.7250012  40.0714997  93.0229988  10.1590012  39.1994997  93.3159988
  11.2940012  39.7864997  95.1189988  10.7610012  38.9524997  95.6239988
  12.2890012  40.0184997  95.5559988  10.5380012  41.0874997  95.2559988
   9.9210012  41.5454997  94.2749988  10.4890012  41.5144997  96.5389988
   9.6070012  42.6344997  96.7129988   9.9480012  43.3734997  97.4689988
   9.6340012  43.2554997  95.7929988   8.1880012  42.2264997  97.1859988
   7.5650012  43.1224997  96.9789988   8.0060012  41.8934997  98.7179988
   8.7460012  42.3854997  99.3849988   7.0090012  42.3324997  98.9349988
   7.8730012  40.5184997  98.8959988   8.9980012  39.7134997  99.6999988
   9.5410012  40.5484997 100.8949988   8.7530012  40.4964997 102.0769988
   7.6810012  40.7404997 101.9169988   8.8310012  39.5014997 102.5649988
   9.1240012  41.6904997 102.9849988   8.5820012  42.5004997 102.5199988
   8.8500012  41.3954997 103.9869988  10.5670012  42.0474997 103.1279988
  11.0700012  42.6744997 101.9009988  10.6100012  43.6294997 101.6959988
  12.1350012  42.7804997 102.0499988  10.8660012  42.0374997 101.0529988
  10.7400012  43.1824997 104.1619988  10.5990012  42.9574997 105.2089988
  11.7640012  43.5254997 104.1519988  10.2280012  44.0804997 103.8499988
  11.4460012  40.9204997 103.4939988  11.3580012  40.1454997 102.7479988
  11.0110012  40.5244997 104.3999988  12.5160012  41.0684997 103.4839988
   8.3970012  38.4164997 100.1459988  10.1500012  39.6624997  98.7979988
   7.7750012  41.0824997  96.3749988   6.6180012  41.2034997  95.7139988
   5.9300012  42.1474997  95.6369988   6.3510012  39.9314997  94.8319988
   5.5860012  39.3404997  95.3799988   7.3110012  39.3794997  94.7439988
   5.9740012  40.3314997  93.4269988   5.2190012  41.1454997  93.3789988
   5.6320012  39.4204997  92.8919988   7.1690012  40.8434997  92.5099988
   8.0430012  40.2754997  92.8939988   7.2090012  41.9464997  92.6329988
   7.0050012  40.3914997  91.0799988   6.9020012  39.2844997  91.0919988
   7.7810012  40.3614997  90.2849988   5.7830012  41.0194997  90.2419988
   4.9110012  40.9604997  90.9279988   5.5520012  40.3554997  89.3809988
   6.1490012  42.4574997  89.8689988   7.1250012  42.4534997  89.3389988
   6.3200012  43.0684997  90.7809988   5.0700012  43.1554997  89.0499988
   5.2160012  44.2574997  89.0269988   4.0310012  42.9464997  89.3809988
   5.0570012  42.7554997  87.5759988   5.1040012  41.6604997  87.4879988
   5.0230012  43.5734997  86.4529988   4.8740012  43.1424997  85.4519988
   5.0060012  45.0654997  86.4279988   4.9760012  45.5284997  87.4369988
   4.0500012  45.4564997  86.0209988   6.1710012  45.6114997  85.5849988
   7.1590012  45.2634997  85.9559988   6.1020012  46.6914997  85.8349988
   6.1260012  45.2714997  84.0369988   5.0420012  45.3124997  83.7949988
   6.4280012  44.2144997  83.8809988   7.0630012  46.0674997  83.0459988
   6.7100012  47.1194997  83.0899988   6.9760012  45.7214997  81.9929988
   8.5120012  46.1144997  83.4469988   8.5830012  46.3954997  84.5199988
   9.0470012  46.9094997  82.8859988   9.1730012  44.7594997  83.1719988
   9.3880012  44.8754997  82.0879988   8.4760012  43.9024997  83.2959988
  10.4710012  44.5094997  83.9439988  11.1440012  45.3814997  83.7969988
  11.0170012  43.6064997  83.5969988  10.1990012  44.2674997  85.4449988
   9.8250012  45.1694997  85.9759988  11.1390012  44.0904997  86.0089988
   9.6440012  43.3314997  85.6709988  97.5840012 132.8214997  85.6749988
  97.1180012 133.4294997  86.4789988  97.2640012 131.7774997  85.8759988
  97.3130012 133.2124997  84.6709988  99.1420012 132.8894997  85.7809988
  99.6320012 132.0944997  85.1789988  99.4910012 133.8784997  85.4159988
  99.6950012 132.6574997  87.1629988  99.1250012 131.7604997  87.4849988
 100.7910012 132.4804997  87.1089988  99.2240012 133.6874997  88.2409988
  98.1150012 133.7534997  88.2359988  99.4000012 133.1624997  89.2039988
  99.8870012 135.0744997  88.2359988  99.7970012 135.3784997  87.1709988
  99.3660012 135.8264997  88.8659988 101.4160012 135.0634997  88.5749988
 101.7190012 134.2044997  87.9389988 101.9100012 136.0344997  88.3569988
 101.8590012 134.6314997  90.0239988 101.3840012 135.3164997  90.7579988
 101.5610012 133.5864997  90.2549988 103.3980012 134.8694997  90.2709988
 103.9020012 134.1204997  89.6239988 103.6490012 135.8824997  89.8909988
 103.7210012 134.4444997  91.7249988 103.5060012 133.3554997  91.6819988
 104.8180012 134.5974997  91.8159988 103.0340012 135.2634997  92.8609988
 103.3110012 136.3294997  93.0039988 101.9540012 135.3594997  92.6169988
 103.2330012 134.7174997  94.3219988 102.8610012 133.6704997  94.2929988
 104.3290012 134.6784997  94.4999988 102.4140012 135.5054997  95.4009988
 102.4180012 134.7914997  96.2519988 102.7770012 136.5234997  95.6569988
 100.8180012 135.5654997  95.1569988 100.6360012 136.2694997  94.3169988
 100.5330012 134.5104997  94.9549988 100.1550012 136.1104997  96.4389988
 100.5400012 135.5764997  97.3339988 100.4660012 137.1774997  96.4219988
  98.6400012 136.0254997  96.2849988  98.2510012 136.8314997  96.9439988
  98.2530012 136.3694997  95.3019988  98.1560012 134.6514997  96.6049988
  97.9810012 133.8094997  95.7509988  97.7700012 134.6114997  97.8649988
  97.2360012 133.3984997  98.3599988  96.7020012 133.5544997  99.3219988
  96.5660012 132.8624997  97.6539988  98.3740012 132.3524997  98.7919988
  97.8100012 131.4114997  98.9649988  99.2180012 132.8894997 100.0369988
  98.5050012 133.3034997 100.7819988  99.6950012 132.0494997 100.5849988
 100.0440012 133.9384997  99.6379988 101.5910012 133.7974997  99.9589988
 101.6480012 134.2214997 101.4619988 100.9280012 135.1774997 102.1139988
  99.9280012 135.3474997 101.6609988 100.7010012 134.8514997 103.1519988
 101.8120012 136.3994997 102.1079988 102.0020012 136.6384997 101.0719988
 101.2850012 137.2834997 102.4359988 103.1640012 136.4254997 102.8319988
 102.9140012 135.8994997 104.1899988 103.8970012 135.6884997 104.5859988
 102.4060012 136.6154997 104.8199988 102.3170012 135.0044997 104.0949988
 104.2220012 135.6224997 102.0979988 104.4810012 136.1784997 101.2089988
 105.0820012 135.4834997 102.7379988 103.8100012 134.6504997 101.8689988
 103.5480012 137.8924997 102.8799988 102.7360012 138.5254997 103.2059988
 103.9010012 138.1844997 101.9019988 104.3610012 137.8964997 103.5909988
 102.0280012 132.4004997  99.7489988 102.3160012 134.7824997  99.1489988
  99.2110012 132.0754997  97.5679988  99.9530012 130.9894997  97.6059988
 100.0950012 130.2494997  98.5849988 100.9190012 130.9794997  96.4359988
 101.7240012 131.7234997  96.6159988 100.2890012 131.3974997  95.6209988
 101.5710012 129.7254997  96.0559988 100.7350012 128.9974997  95.9769988
 102.2200012 129.4554997  96.9169988 102.5010012 129.8554997  94.8449988
 103.0800012 128.9254997  94.6589988 103.3140012 130.5734997  95.0839988
 101.7470012 130.1994997  93.5139988 101.0020012 131.0114997  93.6599988
 101.0940012 129.3834997  93.1389988 102.6820012 130.4794997  92.3279988
 103.5450012 131.1064997  92.6399988 102.0880012 130.9794997  91.5339988
 103.2890012 129.2494997  91.6619988 102.4350012 128.5394997  91.6569988
 104.0860012 128.8734997  92.3399988 104.0590012 129.3424997  90.2699988
 104.7770012 128.4994997  90.1789988 104.8840012 130.0864997  90.2909988
 103.2710012 129.7034997  89.0329988 102.3830012 129.0574997  88.9599988
 103.4820012 130.6554997  88.1489988 102.8380012 130.5884997  87.2589988
 104.5610012 131.6824997  88.0899988 104.9050012 131.9544997  89.1109988
 104.1580012 132.5564997  87.5359988 105.8400012 131.2834997  87.2599988
 106.3560012 130.3924997  87.6789988 106.4950012 132.1794997  87.3069988
 105.6820012 131.0074997  85.7479988 104.9750012 130.1824997  85.5179988
 106.6030012 130.6394997  85.2459988 105.2850012 132.2644997  84.9819988
 105.9360012 133.1354997  85.2109988 104.2310012 132.4654997  85.2699988
 105.3050012 132.0134997  83.4839988 104.4950012 131.2764997  83.2979988
 106.2910012 131.5644997  83.2349988 104.8900012 133.2744997  82.5339988
 104.8070012 132.9294997  81.4809988 105.6320012 134.0984997  82.5899988
 103.5080012 133.9114997  82.7669988 103.4730012 134.4864997  83.7179988
 102.8170012 133.0524997  82.9009988 103.1340012 134.7904997  81.5819988
 103.6500012 135.7724997  81.5239988 102.0540012 135.0454997  81.6479988
 103.3500012 134.3204997  80.5989988  26.1030012 140.4424997  82.0199988
  25.5530012 139.5094997  82.2669988  26.2870012 140.4334997  80.9239988
  25.6320012 141.4264997  82.2319988  27.5130012 140.3854997  82.6579988
  27.3990012 140.4924997  83.7579988  27.9140012 139.3594997  82.5169988
  28.4240012 141.3814997  81.9089988  29.4840012 141.1124997  82.1039988
  28.3620012 141.3984997  80.7999988  28.1990012 142.8334997  82.2409988
  29.0190012 143.3914997  81.7389988  27.2750012 143.2154997  81.7569988
  28.2040012 143.2704997  83.7279988  27.8510012 144.3234997  83.7539988
  27.3340012 142.7304997  84.1579988  29.4760012 142.8384997  84.3559988
  29.5900012 141.7334997  84.3989988  30.3670012 143.2304997  83.8189988
  29.6190012 143.2644997  85.7969988  29.7390012 144.3654997  85.7099988
  28.6480012 143.0514997  86.2919988  30.8010012 142.7594997  86.5919988
  31.6250012 142.8414997  85.8509988  31.0980012 143.4644997  87.3969988
  30.6080012 141.4164997  87.1299988  30.3120012 140.6114997  86.4229988
  31.6190012 141.0294997  87.3799988  29.6140012 141.2804997  88.3239988
  29.8670012 142.1444997  88.9759988  28.5280012 141.2834997  88.0919988
  30.0320012 140.2054997  89.3499988  30.0290012 139.2034997  88.8699988
  31.0570012 140.4514997  89.7009988  29.1180012 140.1234997  90.5609988
  28.9570012 141.1954997  90.8029988  28.1070012 139.7294997  90.3189988
  29.5510012 139.5004997  91.8909988  29.7610012 138.4254997  91.7049988
  30.5070012 139.9774997  92.1949988  28.4710012 139.8634997  92.8909988
  28.5520012 140.9394997  93.1539988  27.4730012 139.5354997  92.5309988
  28.5520012 139.1864997  94.2579988  28.4070012 138.0894997  94.1519988
  29.5730012 139.2354997  94.6919988  27.4390012 139.7334997  95.1489988
  26.3460012 140.1834997  94.7689988  27.7670012 139.6234997  96.4369988
  26.6870012 139.5014997  97.3739988  25.7680012 139.0364997  96.9569988
  26.9570012 138.8874997  98.2599988  26.2910012 140.8544997  97.9739988
  27.1360012 141.1974997  98.6079988  25.0220012 140.5304997  98.8159988
  24.3770012 139.9964997  98.0859988  25.4220012 139.9834997  99.6969988
  24.3410012 141.7314997  99.1549988  24.7330012 142.5474997 100.4909988
  26.1790012 142.0824997 100.7979988  27.0810012 142.9564997 101.3879988
  27.2470012 143.8114997 100.6979988  26.7260012 143.2804997 102.3899988
  28.3940012 142.1664997 101.4969988  28.6200012 141.8034997 100.5049988
  29.0740012 142.9024997 101.8989988  28.5280012 141.0894997 102.5389988
  28.0420012 141.6874997 103.8279988  27.0050012 141.9824997 103.8889988
  28.2150012 141.0264997 104.6639988  28.5770012 142.6224997 103.9019988
  27.7410012 139.9314997 102.0279988  27.8920012 139.0244997 102.5939988
  26.6980012 140.1974997 101.9359988  27.9560012 139.8004997 100.9779988
  29.9520012 140.6434997 102.6259988  30.1080012 140.1394997 101.6839988
  29.9900012 139.9474997 103.4509988  30.6460012 141.4094997 102.9379988
  24.7400012 144.0094997 100.2179988  23.8950012 142.0304997 101.6129988
  25.9740012 141.9054997  97.1039988  26.8740012 142.6804997  96.6029988
  28.0550012 142.5934997  96.6819988  26.0450012 143.5764997  95.6199988
  25.0640012 143.7854997  96.0979988  25.8670012 143.1224997  94.6219988
  26.8910012 144.8184997  95.4499988  27.8630012 144.5454997  94.9879988
  26.9300012 145.3654997  96.4169988  26.1890012 145.8484997  94.5889988
  26.2420012 146.8284997  95.1109988  25.1260012 145.5254997  94.5519988
  26.7030012 146.0704997  93.1929988  27.8070012 146.1964997  93.1779988
  26.3990012 147.0074997  92.6799988  26.5900012 144.8844997  92.2589988
  25.5040012 144.7804997  92.0529988  27.0900012 143.9354997  92.5499988
  27.0570012 145.1624997  90.7289988  28.1600012 145.2954997  90.7399988
  26.5300012 146.0594997  90.3389988  26.8550012 144.0364997  89.6949988
  27.4590012 143.1754997  90.0539988  27.3610012 144.5224997  88.8339988
  25.4020012 143.7244997  89.5109988  24.8060012 144.6094997  89.2439988
  24.8210012 142.4894997  89.6729988  23.7210012 142.4904997  89.7049988
  25.4980012 141.1904997  90.0889988  25.4740012 141.0624997  91.1919988
  26.5780012 141.3094997  89.8599988  25.1090012 139.8764997  89.3939988
  24.0140012 139.8114997  89.2229988  25.4710012 138.9904997  89.9569988
  25.7950012 139.6694997  88.0169988  25.4700012 138.7574997  87.4729988
  26.8630012 139.7164997  88.3209988  25.7730012 140.8764997  86.9799988
  26.3140012 140.6284997  86.0419988  26.2130012 141.8334997  87.3339988
  24.3660012 141.1094997  86.4749988  23.6860012 141.4844997  87.2699988
  23.9680012 140.1554997  86.0679988  24.2740012 142.1884997  85.3989988
  24.5820012 141.7144997  84.4419988  25.0550012 142.9544997  85.5949988
  22.9790012 142.9134997  85.3229988  23.0260012 143.7544997  86.0479988
  22.1690012 142.1914997  85.5589988  22.7050012 143.5044997  83.9679988
  22.2350012 142.7304997  83.3249988  23.7070012 143.8514997  83.6359988
  22.0630012 144.4084997  83.8979988 111.8050012 128.3734997  82.1109988
 111.1660012 128.0694997  82.9669988 111.2060012 128.1614997  81.1989988
 111.9160012 129.4784997  82.1169988 113.1880012 127.6744997  82.1439988
 113.0020012 126.5834997  82.2399988 113.6670012 127.8594997  81.1589988
 114.1850012 128.2044997  83.2219988 113.7800012 127.9054997  84.2119988
 115.1860012 127.7414997  83.0849988 114.3820012 129.7334997  83.1389988
 114.4000012 130.0614997  82.0769988 113.5540012 130.2864997  83.6319988
 115.6500012 130.2854997  83.7549988 116.4690012 129.9884997  83.0659988
 115.5630012 131.3934997  83.7619988 115.8630012 129.7564997  85.1649988
 114.9100012 129.9114997  85.7159988 116.0930012 128.6734997  85.0729988
 117.0970012 130.2544997  85.9929988 117.9220012 130.0204997  85.2859988
 116.9240012 131.3294997  86.2109988 117.2600012 129.4914997  87.2669988
 116.5480012 130.0254997  87.9319988 116.9870012 128.4294997  87.0879988
 118.7210012 129.4884997  87.9019988 119.3660012 128.9224997  87.1959988
 119.0960012 130.5274997  88.0239988 118.8260012 129.0084997  89.3439988
 119.8970012 129.2514997  89.5069988 118.1980012 129.6774997  89.9709988
 118.3990012 127.5724997  89.6169988 117.3250012 127.4434997  89.8719988
 118.7070012 126.9914997  88.7219988 119.1500012 127.1584997  90.8929988
 119.1440012 126.0494997  90.9669988 120.2170012 127.4034997  90.7009988
 118.5040012 127.6284997  92.1719988 118.3900012 128.7304997  92.1019988
 117.5140012 127.1354997  92.2719988 119.3340012 127.2834997  93.4099988
 119.5440012 126.2044997  93.2449988 120.3680012 127.6874997  93.4449988
 118.6420012 127.4664997  94.7669988 117.6690012 126.9294997  94.7719988
 119.1540012 127.0014997  95.6359988 118.4530012 128.8784997  95.2219988
 119.1900012 129.7744997  94.9649988 117.5380012 128.8884997  96.2219988
 117.4210012 130.1674997  96.8329988 118.3610012 130.3714997  97.3889988
 117.1190012 130.9104997  96.0639988 116.1520012 130.1964997  97.8879988
 115.9710012 131.2764997  98.0729988 116.5670012 129.5584997  99.2519988
 117.5370012 129.9664997  99.6079988 115.8590012 129.8414997 100.0599988
 116.8010012 128.2074997  99.0439988 115.7420012 127.0634997  99.4699988
 115.2810012 127.4504997 101.0249988 115.0430012 126.3844997 101.8849988
 114.3530012 126.7774997 102.6619988 114.5830012 125.5074997 101.3809988
 116.3930012 125.9854997 102.6809988 116.3910012 125.1934997 103.4149988
 117.0520012 125.5304997 101.9559988 117.1620012 127.1424997 103.3139988
 117.9650012 126.5674997 104.4519988 118.7060012 125.8954997 104.0429988
 118.4190012 127.3594997 105.0279988 117.3640012 126.0464997 105.1829988
 118.0040012 127.9204997 102.2639988 118.5100012 128.7574997 102.7219988
 118.6820012 127.2014997 101.8289988 117.2940012 128.3654997 101.5819988
 116.0600012 128.0694997 103.8659988 115.3840012 127.4534997 104.4399988
 115.5750012 128.6684997 103.1089988 116.5700012 128.6914997 104.5869988
 114.5490012 127.1004997  98.6519988 116.4080012 125.7284997  99.5279988
 114.9790012 129.5864997  97.3239988 114.3480012 130.2204997  96.3309988
 114.8600012 131.0714997  95.5999988 112.9000012 129.7374997  96.2709988
 112.3540012 130.5924997  95.8189988 112.6460012 129.5804997  97.3409988
 112.9600012 128.5224997  95.3679988 111.9120012 128.1564997  95.3369988
 113.4970012 127.6064997  95.6969988 113.3160012 128.8074997  93.9299988
 114.3710012 129.0614997  93.6939988 112.7110012 129.7154997  93.7229988
 112.8700012 127.8084997  92.8539988 112.5690012 128.3904997  91.9569988
 111.9060012 127.2984997  93.0669988 113.9610012 126.7244997  92.5329988
 114.4130012 126.5304997  93.5299988 114.6800012 127.2344997  91.8579988
 113.5700012 125.4584997  91.7819988 112.8940012 124.8524997  92.4229988
 114.4840012 124.8694997  91.5529988 112.6910012 125.6584997  90.5869988
 111.7400012 126.1814997  90.8269988 112.5020012 124.6544997  90.1499988
 113.3660012 126.4844997  89.5259988 113.2490012 127.5764997  89.5959988
 114.0880012 125.9654997  88.5109988 114.3510012 126.6054997  87.6559988
 114.3870012 124.5284997  88.2169988 113.4710012 124.0194997  87.8489988
 114.8050012 123.9274997  89.0519988 115.3200012 124.4204997  86.9529988
 114.6670012 124.7314997  86.1099988 115.5780012 123.3504997  86.7999988
 116.7000012 125.0944997  86.9839988 117.1610012 124.8764997  87.9709988
 116.7220012 126.2034997  87.0449988 117.7050012 124.7624997  85.9099988
 117.2900012 125.0234997  84.9129988 118.0280012 123.7024997  85.9799988
 119.0330012 125.6204997  85.9639988 119.6380012 125.4544997  86.8809988
 118.6520012 126.6624997  86.0129988 120.0130012 125.2494997  84.7659988
 119.8420012 124.2054997  84.4259988 121.0650012 125.3994997  85.0909988
 119.8970012 126.1514997  83.5099988 120.7520012 125.8754997  82.8579988
 120.1420012 127.1874997  83.8289988 118.5510012 126.1384997  82.8539988
 117.7390012 126.5694997  83.4779988 118.2030012 125.1264997  82.5539988
 118.5000012 126.8234997  81.9809988  95.1690012 142.2074997  84.0769988
  95.6780012 141.5024997  83.3849988  95.2860012 143.2494997  83.7089988
  94.0720012 142.0384997  84.1329988  95.7910012 142.2444997  85.5099988
  96.7760012 142.7544997  85.5689988  95.0730012 142.8514997  86.1019988
  95.7680012 140.9004997  86.1819988  94.7060012 140.6304997  86.3669988
  96.2010012 140.0984997  85.5459988  96.4360012 140.9254997  87.6289988
  97.4110012 141.4514997  87.5399988  95.8740012 141.5334997  88.3699988
  96.5010012 139.5604997  88.2129988  95.4580012 139.2214997  88.3859988
  96.9930012 138.8174997  87.5499988  97.1920012 139.5254997  89.5749988
  98.2490012 139.8184997  89.4029988  96.7630012 140.2964997  90.2499988
  97.0250012 138.1154997  90.2309988  97.2230012 137.2664997  89.5419988
  97.7720012 137.8694997  91.0149988  95.7180012 137.9844997  91.0459988
  95.8930012 138.2574997  92.1079988  94.8680012 138.6104997  90.6989988
  95.1360012 136.5954997  91.0419988  94.4960012 136.5084997  90.1379988
  95.8660012 135.7584997  91.0119988  94.0940012 136.4004997  92.1379988
  94.2220012 135.3274997  92.3929988  94.2550012 136.9604997  93.0839988
  92.6860012 136.7444997  91.7689988  92.3960012 137.7554997  91.4089988
  92.5100012 136.1034997  90.8779988  91.5720012 136.3284997  92.8469988
  90.5520012 136.6874997  92.5899988  91.5360012 135.2254997  92.9719988
  91.8230012 136.9694997  94.2229988  92.6610012 136.4654997  94.7509988
  91.9490012 138.0524997  94.0129988  90.6580012 136.8484997  95.2269988
  89.8320012 137.4794997  94.8339988  90.2540012 135.8144997  95.2619988
  90.9380012 137.2574997  96.6859988  91.4310012 138.2534997  96.6979988
  90.0960012 137.2224997  97.4089988  91.9570012 136.2564997  97.2329988
  91.7450012 135.1304997  97.5779988  93.2050012 136.8264997  97.3729988
  94.2190012 135.8544997  97.8609988  94.0190012 135.5304997  98.9039988
  94.4310012 135.1234997  97.0499988  95.5670012 136.6554997  97.9219988
  96.3540012 135.9734997  98.3089988  95.4020012 137.7494997  98.9839988
  94.9100012 137.2724997  99.8589988  96.3800012 138.2084997  99.2409988
  94.6040012 138.8124997  98.4239988  93.6700012 139.6934997  99.3529988
  94.4320012 139.5744997 100.7569988  95.4570012 140.5274997 101.0749988
  96.4040012 139.9764997 100.8869988  95.5470012 141.4434997 100.4529988
  95.4680012 140.9974997 102.5399988  96.3850012 141.5474997 102.6879988
  94.6620012 141.7144997 102.5949988  95.4030012 139.8804997 103.6499988
  94.0420012 139.1734997 103.7169988  93.7410012 138.5464997 102.8919988
  93.9520012 138.5094997 104.5639988  93.3460012 139.9974997 103.7639988
  96.5490012 138.8684997 103.4609988  96.6410012 138.6684997 102.4039988
  97.4440012 139.3364997 103.8429988  96.2770012 138.0334997 104.0899988
  95.6130012 140.6994997 104.9279988  94.8240012 141.4334997 104.9949988
  96.5650012 141.1984997 105.0299988  95.3490012 140.0954997 105.7839988
  93.7170012 141.0214997  98.8109988  92.3370012 139.0694997  99.4639988
  95.8130012 137.1214997  96.6039988  96.6860012 138.0274997  96.2689988
  97.6040012 138.4174997  96.9889988  96.3140012 138.5154997  94.8399988
  95.2110012 138.4764997  94.7129988  96.8810012 137.8404997  94.1639988
  96.7180012 139.9774997  94.5639988  96.9430012 140.0374997  93.4779988
  97.7200012 140.1174997  95.0229988  95.7700012 141.1064997  95.1849988
  96.4350012 141.9964997  95.2119988  95.5330012 140.8834997  96.2469988
  94.5510012 141.5944997  94.3109988  94.8300012 141.5914997  93.2349988
  94.3400012 142.6654997  94.5169988  93.3110012 140.7434997  94.5819988
  93.3070012 140.5304997  95.6719988  93.3480012 139.7694997  94.0469988
  91.9520012 141.4594997  94.1769988  92.1940012 142.5434997  94.1449988
  91.2200012 141.4154997  95.0119988  91.5780012 140.9014997  92.7989988
  91.0150012 139.9444997  92.8249988  92.5090012 140.6594997  92.2429988
  90.6710012 141.9644997  92.1059988  89.7430012 142.2114997  92.6429988
  90.9820012 142.5984997  90.9529988  90.1830012 143.2494997  90.5689988
  92.1640012 142.3764997  90.1079988  93.0320012 142.7944997  90.6619988
  91.9990012 143.0894997  89.2729988  92.2940012 140.9984997  89.4709988
  92.1750012 140.1564997  90.1849988  93.3140012 140.9524997  89.0329988
  91.3050012 140.7744997  88.3509988  91.6230012 141.4914997  87.5639988
  90.2860012 141.0744997  88.6789988  91.1620012 139.3204997  87.8899988
  90.2960012 139.3004997  87.1959988  90.7530012 138.7564997  88.7559988
  92.4650012 138.9344997  87.2219988  93.2410012 138.8674997  88.0139988
  92.8730012 139.6204997  86.4489988  92.3030012 137.5674997  86.5359988
  91.4610012 137.5644997  85.8109988  91.8890012 136.9934997  87.3929988
  93.5200012 136.8234997  86.0979988  93.2380012 135.7554997  85.9799988
  94.2010012 136.5674997  86.9379988  94.3670012 137.3674997  84.9689988
  93.7020012 137.2424997  84.0879988  95.1970012 136.6594997  84.7619988
  94.9230012 138.3144997  85.1359988  22.3000012  16.8084997  84.0309988
  21.6110012  17.6764997  83.9469988  23.3220012  17.2244997  84.1559988
  21.9950012  16.3294997  84.9859988  22.3740012  15.9264997  82.7429988
  21.3280012  15.5634997  82.6569988  22.4170012  16.6164997  81.8729988
  23.2350012  14.6944997  82.7719988  22.9370012  13.9704997  81.9829988
  24.2740012  15.0514997  82.6059988  23.1860012  13.9654997  84.1219988
  23.7030012  14.6794997  84.7979988  22.1580012  13.7124997  84.4579988
  23.8490012  12.5724997  84.1589988  23.2530012  11.9754997  83.4359988
  24.9320012  12.6394997  83.9199988  23.9420012  11.8614997  85.5649988
  22.8810012  11.7464997  85.8719988  24.3800012  10.8534997  85.4049988
  24.7460012  12.6354997  86.6279988  25.7790012  12.3264997  86.3569988
  24.6080012  13.6934997  86.3199988  24.6310012  12.3054997  88.1179988
  24.4400012  11.2234997  88.2789988  25.6110012  12.5534997  88.5809988
  23.6500012  13.1474997  88.8029988  24.0190012  14.1944997  88.8319988
  22.6180012  13.1874997  88.3929988  23.3490012  12.8154997  90.2589988
  22.3660012  13.0794997  90.7019988  23.3580012  11.7104997  90.3729988
  24.4440012  13.2564997  91.2719988  24.3030012  12.7764997  92.2639988
  25.4480012  12.9434997  90.9119988  24.5050012  14.7724997  91.5899988
  25.3840012  14.9404997  92.2489988  24.8600012  15.2864997  90.6719988
  23.1790012  15.4964997  91.9149988  23.3770012  16.5864997  91.9999988
  22.5070012  15.3984997  91.0349988  22.4010012  14.9654997  93.1569988
  21.4820012  15.5884997  93.1139988  22.1160012  13.8934997  93.0949988
  23.2360012  15.0274997  94.4589988  24.1480012  14.4044997  94.5779988
  23.4650012  16.0904997  94.6879988  22.2680012  14.6514997  95.6049988
  21.0930012  14.4224997  95.5119988  22.8910012  14.8264997  96.8259988
  21.9490012  14.7584997  97.9139988  21.3780012  15.7094997  97.8549988
  21.2830012  13.8704997  97.8789988  22.7840012  14.5364997  99.2449988
  22.0650012  14.2984997 100.0579988  23.6540012  15.6884997  99.6619988
  23.1630012  16.6664997  99.4709988  23.7280012  15.5964997 100.7669988
  24.8770012  15.5684997  98.9529988  26.1910012  16.1664997  99.4299988
  26.5340012  15.2424997 100.6099988  27.7300012  15.4724997 101.3519988
  28.2770012  14.5144997 101.2179988  28.4250012  16.1894997 100.8669988
  27.4440012  15.7374997 102.8759988  28.3500012  15.4194997 103.3719988
  27.2320012  16.7764997 103.0809988  26.3690012  14.8364997 103.5109988
  26.4840012  15.0214997 104.9269988  27.4330012  14.6054997 105.2329988
  26.2950012  16.0474997 105.2059988  25.7290012  14.3384997 105.2889988
  24.9860012  15.4024997 103.0619988  24.8680012  16.3484997 103.5689988
  25.1360012  15.4114997 101.9919988  24.1910012  14.7104997 103.2949988
  26.6230012  13.4204997 103.0669988  26.3600012  13.3544997 102.0219988
  25.9380012  12.8934997 103.7159988  27.5930012  13.0264997 103.3319988
  27.1260012  15.9674997  98.2979988  26.0130012  17.4804997 100.0949988
  23.5050012  13.3134997  98.9669988  23.7450012  12.4404997  99.9969988
  23.3940012  12.4904997 101.1479988  24.4010012  11.2484997  99.4069988
  23.6860012  10.7284997  98.7339988  24.5580012  10.4254997 100.1369988
  25.5860012  11.5874997  98.5389988  26.4140012  11.9914997  99.1589988
  25.2880012  12.3384997  97.7769988  26.1610012  10.5014997  97.6409988
  25.2900012  10.0614997  97.1099988  26.5430012   9.6564997  98.2549988
  27.3350012  10.9354997  96.7739988  27.8290012   9.9834997  96.4829988
  27.9990012  11.4904997  97.4709988  26.9350012  11.7544997  95.5279988
  26.0550012  11.2074997  95.1269988  27.7590012  11.8434997  94.7869988
  26.6270012  13.2644997  95.7759988  26.9520012  13.5614997  96.7959988
  25.5260012  13.4114997  95.7659988  27.2440012  14.1174997  94.6369988
  26.8900012  13.6524997  93.6919988  28.3440012  13.9744997  94.5759988
  26.8290012  15.5664997  94.7119988  25.8860012  15.7164997  95.2569988
  27.4540012  16.6044997  94.1769988  27.0310012  17.6034997  94.3579988
  28.6630012  16.5204997  93.3189988  29.3520012  15.7724997  93.7659988
  29.3190012  17.4164997  93.2979988  28.4400012  16.1484997  91.7489988
  28.3660012  17.0854997  91.1559988  27.4470012  15.6564997  91.6719988
  29.4170012  15.1024997  91.0629988  29.2470012  14.1354997  91.5829988
  30.4540012  15.4034997  91.3229988  29.2180012  14.9764997  89.5419988
  29.9610012  14.2204997  89.2099988  29.5410012  15.9154997  89.0429988
  27.7690012  14.5764997  89.1679988  27.1790012  14.4504997  90.1009988
  27.7870012  13.6474997  88.5579988  26.8850012  15.5234997  88.3489988
  26.9970012  16.5184997  88.8289988  25.8210012  15.2134997  88.2629988
  27.3970012  15.6594997  86.9039988  27.4330012  14.6064997  86.5529988
  28.3890012  16.1584997  86.9409988  26.5850012  16.5854997  85.9929988
  26.7400012  17.6054997  86.4039988  25.5430012  16.2114997  85.9019988
  26.9090012  16.6444997  84.9319988   2.5880012 124.7534997  83.4479988
   3.5770012 124.4294997  83.8389988   2.6890012 125.1724997  82.4229988
   1.8070012 123.9634997  83.4689988   2.3500012 125.9284997  84.3739988
   1.4330012 126.4154997  83.9769988   1.9990012 125.5494997  85.3579988
   3.5000012 126.9504997  84.4849988   4.3950012 126.3284997  84.7009988
   3.6700012 127.4104997  83.4889988   3.4030012 127.8354997  85.7109988
   2.5690012 128.5634997  85.8069988   3.2730012 127.0344997  86.4699988
   4.6850012 128.5644997  86.1889988   5.6190012 127.9674997  86.1139988
   4.8180012 129.4454997  85.5259988   4.5610012 129.1314997  87.5689988
   4.0980012 130.1414997  87.5569988   4.0570012 128.4184997  88.2569988
   6.0500012 129.3164997  88.0239988   6.6630012 128.4244997  87.7719988
   6.4020012 130.2164997  87.4769988   6.0820012 129.6374997  89.5309988
   5.9140012 128.6824997  90.0729988   7.1080012 129.9854997  89.7739988
   5.1260012 130.7994997  89.8959988   5.1980012 131.6064997  89.1359988
   4.0980012 130.3794997  89.8839988   5.1700012 131.1554997  91.3639988
   6.1820012 131.5294997  91.6319988   4.2990012 131.8164997  91.5579988
   5.0440012 129.8954997  92.2749988   4.1080012 129.3384997  92.0569988
   5.8910012 129.1804997  92.1979988   4.8790012 130.3314997  93.7699988
   4.1830012 131.1914997  93.6659988   4.3250012 129.5274997  94.2989988
   6.0430012 130.7864997  94.5839988   6.8330012 130.0104997  94.4939988
   6.3240012 131.8024997  94.2329988   5.5380012 131.0244997  96.0249988
   6.4220012 131.4984997  96.5039988   4.8390012 131.8864997  96.0769988
   4.8370012 129.9864997  96.8309988   3.8160012 129.8684997  96.4089988
   5.4280012 129.0464997  96.8699988   4.7300012 130.5884997  98.2219988
   5.5800012 130.4574997  99.0509988   3.6850012 131.4354997  98.2539988
   3.3350012 131.9804997  99.5659988   4.0780012 131.7474997 100.3579988
   3.2200012 133.0754997  99.4219988   1.9160012 131.3804997 100.0619988
   1.7410012 132.0864997 100.9009988   2.0900012 129.9754997 100.5779988
   3.1180012 129.9014997 100.9939988   1.4020012 129.7754997 101.4269988
   1.8830012 129.0904997  99.4419988   1.9080012 127.4564997  99.6649988
   2.5120012 127.3104997 101.0609988   3.5490012 126.3954997 101.1719988
   3.1180012 125.4124997 100.8849988   4.4900012 126.5504997 100.6009988
   4.0770012 126.3464997 102.5939988   3.3750012 125.8714997 103.2629988
   4.8890012 125.6344997 102.5969988   4.5350012 127.6504997 103.3809988
   3.2560012 128.3804997 103.6819988   3.4940012 129.2664997 104.2529988
   2.8330012 128.5834997 102.7089988   2.6260012 127.6364997 104.1449988
   5.4020012 127.2484997 104.5049988   6.0880012 126.4694997 104.2069988
   6.1140012 128.0154997 104.7719988   4.8000012 126.8484997 105.3069988
   5.3750012 128.4254997 102.4159988   4.7860012 128.9314997 101.6659988
   6.0930012 127.8014997 101.9049988   6.0480012 129.1404997 102.8669988
   0.5350012 126.9164997  99.6819988   2.6580012 126.7654997  98.5809988
   0.9360012 131.6314997  98.9929988  -0.3329988 131.2544997  99.2109988
  -0.6909988 130.7054997 100.2279988  -1.1689988 131.4134997  97.9609988
  -1.3229988 132.5014997  97.7969988  -2.1189988 130.8744997  98.1659988
  -0.4159988 130.8884997  96.7109988   0.0920012 129.9304997  96.9519988
   0.3710012 131.6224997  96.4359988  -1.2939988 130.6764997  95.5079988
  -1.7929988 131.6094997  95.1689988  -2.0759988 129.9384997  95.7879988
  -0.5749988 130.0304997  94.3049988  -1.1519988 130.2834997  93.3899988
  -0.5879988 128.9254997  94.4149988   0.7480012 130.5824997  94.0119988
   1.5570012 130.2144997  94.6779988   0.7060012 131.6654997  94.2569988
   1.1890012 130.3994997  92.5659988   2.1700012 130.8954997  92.4049988
   0.4120012 130.9084997  91.9579988   1.4600012 128.9554997  92.0419988
   0.5660012 128.3294997  92.2489988   2.2800012 128.4794997  92.6209988
   1.7580012 128.7974997  90.5869988   2.5260012 128.0464997  90.3499988
   1.2550012 129.2944997  89.4319988   1.8120012 129.0294997  88.5209988
   0.0610012 130.2054997  89.0899988   0.3890012 131.1784997  88.6649988
  -0.3359988 130.4144997  90.1059988  -1.0689988 129.6774997  88.2309988
  -1.9829988 130.2994997  88.3349988  -1.3309988 128.7454997  88.7759988
  -0.7929988 129.7504997  86.7369988   0.1010012 129.1454997  86.4739988
  -0.6129988 130.8464997  86.6989988  -2.0539988 129.2214997  85.9669988
  -2.9369988 129.8354997  86.2429988  -2.3089988 128.2544997  86.4519988
  -1.7159988 129.0264997  84.4939988  -2.6249988 128.5884997  84.0279988
  -0.9089988 128.2744997  84.3639988  -1.4869988 130.2614997  83.6609988
  -0.6199988 130.8434997  84.0409988  -2.3739988 130.9224997  83.7589988
  -1.3429988 129.9324997  82.1539988  -1.4919988 130.8894997  81.6089988
  -2.0449988 129.1764997  81.7409988  -0.0169988 129.3774997  81.6909988
   0.7730012 130.1434997  81.8409988  -0.0469988 129.2214997  80.5919988
   0.2350012 128.5134997  82.3439988 124.1320012 122.5014997  82.5479988
 123.1620012 122.5954997  83.0819988 124.2150012 121.9814997  81.5699988
 124.5570012 123.5274997  82.5499988 125.1220012 121.5994997  83.3349988
 124.5580012 120.6424997  83.3289988 126.1190012 121.6214997  82.8439988
 125.2300012 121.9974997  84.8159988 125.7480012 122.9784997  84.7489988
 124.2260012 122.0224997  85.2899988 125.9790012 121.0374997  85.7149988
 125.6160012 119.9964997  85.5779988 127.0420012 120.9874997  85.3939988
 125.8930012 121.3854997  87.2099988 126.7830012 121.0034997  87.7549988
 125.9000012 122.4954997  87.2609988 124.5870012 120.9474997  87.9129988
 123.7200012 121.4764997  87.4619988 124.2760012 119.8964997  87.7329988
 124.6160012 121.1834997  89.4669988 124.8590012 122.2244997  89.7689988
 123.6500012 120.8854997  89.9279988 125.7050012 120.3834997  90.2009988
 125.7240012 119.3024997  89.9449988 126.6810012 120.7134997  89.7859988
 125.4500012 120.4174997  91.7249988 124.8400012 121.3234997  91.9229988
 124.8410012 119.5484997  92.0539988 126.7250012 120.4934997  92.5129988
 127.3870012 119.6194997  92.3319988 127.2540012 121.3944997  92.1349988
 126.6000012 120.6584997  94.0039988 127.6050012 120.8704997  94.4259988
 125.9070012 121.5014997  94.2119988 126.1250012 119.4354997  94.7629988
 125.0840012 119.1504997  94.4979988 126.8160012 118.5664997  94.7119988
 125.8800012 119.7664997  96.2719988 125.1070012 120.5604997  96.3449988
 125.3640012 118.8814997  96.7039988 127.1140012 120.3474997  97.0179988
 127.9420012 119.6074997  97.0169988 127.5690012 121.2284997  96.5169988
 126.7700012 120.7264997  98.4689988 125.8370012 121.3294997  98.4639988
 126.6190012 119.7814997  99.0319988 127.7960012 121.6674997  99.0369988
 128.8820012 121.9934997  98.4989988 127.3350012 122.3224997 100.1699988
 128.1560012 123.3984997 100.7129988 128.1350012 123.3794997 101.8229988
 129.2490012 123.2654997 100.5599988 127.6750012 124.7934997 100.1809988
 128.1530012 125.6464997 100.7099988 126.0900012 124.8954997 100.5099988
 125.9370012 124.5384997 101.5509988 125.8460012 125.9794997 100.5259988
 125.2030012 124.3664997  99.5109988 123.8670012 123.6894997  99.9419988
 124.2950012 122.2534997 100.5189988 123.2290012 121.4624997 100.8869988
 122.5150012 121.9664997 101.5729988 122.6510012 121.0214997 100.0459988
 123.8230012 120.2924997 101.7219988 123.0450012 119.5564997 101.8629988
 124.5810012 119.8004997 101.1299988 124.4200012 120.6564997 103.1129988
 124.8410012 119.4564997 103.8149988 125.6450012 118.9034997 103.3529988
 125.1630012 119.5114997 104.8449988 124.0040012 118.8214997 104.0649988
 125.6080012 121.4544997 102.9119988 126.3580012 120.9124997 102.3549988
 125.4220012 122.3984997 102.4209988 126.1210012 121.7094997 103.8279988
 123.4040012 121.4344997 103.9889988 122.7030012 120.7424997 104.4319988
 122.8020012 122.0184997 103.3089988 123.8550012 122.0474997 104.7559988
 123.2780012 124.5124997 101.0229988 123.0460012 123.5514997  98.7469988
 127.8360012 124.8174997  98.7259988 127.3290012 125.8904997  98.1139988
 126.8460012 126.8774997  98.6439988 127.2720012 125.5924997  96.6169988
 128.0450012 124.8444997  96.3379988 127.5190012 126.5414997  96.0959988
 125.9090012 125.2304997  96.1779988 125.1430012 126.0234997  96.3149988
 125.3780012 124.4334997  96.7399988 125.8180012 124.7744997  94.7109988
 124.9490012 124.0884997  94.6149988 126.6950012 124.1544997  94.4259988
 125.6340012 125.9674997  93.7939988 126.5570012 126.5354997  93.5509988
 124.8780012 126.6344997  94.2609988 124.9180012 125.5714997  92.4779988
 124.6640012 126.5014997  91.9249988 123.8930012 125.1644997  92.6139988
 125.7700012 124.6464997  91.5109988 125.3760012 124.8164997  90.4869988
 125.7520012 123.5994997  91.8839988 127.1960012 125.1274997  91.2509988
 127.8480012 124.9674997  92.1359988 127.1120012 126.2024997  90.9849988
 127.8230012 124.4094997  90.0949988 128.3930012 123.5144997  90.3879988
 127.5880012 124.6994997  88.8149988 128.0170012 124.0144997  88.0689988
 126.6470012 125.8464997  88.2599988 125.9840012 126.3184997  89.0159988
 126.0270012 125.4264997  87.4399988 127.5690012 126.8784997  87.6339988
 128.2870012 127.2554997  88.3939988 127.0010012 127.7414997  87.2249988
 128.4870012 126.3374997  86.4959988 129.2330012 125.5954997  86.8519988
 129.0160012 127.2724997  86.2129988 127.7060012 125.7744997  85.2999988
 127.4180012 124.7124997  85.4559988 128.4500012 125.5154997  84.5169988
 126.6210012 126.6224997  84.6539988 126.9830012 127.6724997  84.6759988
 125.7280012 126.4604997  85.2939988 126.2290012 126.2564997  83.1799988
 125.2170012 126.6454997  82.9349988 126.2480012 125.1564997  83.3319988
 127.1900012 126.6434997  82.0339988 126.6640012 126.3014997  81.1169988
 128.1120012 126.0424997  82.1859988 127.4690012 128.1674997  81.9299988
 126.6020012 128.8624997  81.9339988 128.0010012 128.2984997  80.9629988
 128.1820012 128.4584997  82.7299988  91.6230012 146.7754997  84.8439988
  91.6360012 147.7754997  84.3599988  91.9400012 145.9814997  84.1339988
  92.3610012 146.7844997  85.6739988  90.2460012 146.4824997  85.4699988
  89.4450012 146.4494997  84.7009988  90.2330012 145.4954997  85.9799988
  89.7140012 147.4694997  86.4739988  89.9410012 148.5204997  86.1959988
  88.6100012 147.4174997  86.5859988  90.2970012 147.3654997  87.9349988
  90.1690012 146.3364997  88.3349988  91.3660012 147.6574997  87.8509988
  89.4900012 148.2884997  88.8259988  89.4160012 149.2274997  88.2359988
  88.4530012 147.9104997  88.9539988  90.0740012 148.6944997  90.1439988
  90.9760012 149.2574997  89.8209988  89.3630012 149.4114997  90.6059988
  90.3430012 147.5294997  91.1329988  90.9820012 146.7194997  90.7219988
  90.8230012 147.9574997  92.0389988  88.9980012 146.7804997  91.7639988
  89.1830012 146.4164997  92.7969988  88.3180012 147.6414997  91.9389988
  88.4180012 145.6134997  90.9849988  87.7510012 146.0264997  90.1999988
  89.2230012 145.0234997  90.4969988  87.5220012 144.6224997  91.8309988
  87.0880012 143.9104997  91.0969988  88.2410012 144.0724997  92.4749988
  86.3850012 145.2774997  92.6109988  86.5150012 146.2524997  93.1269988
  85.5230012 145.5234997  91.9539988  85.7430012 144.2354997  93.5959988
  84.6920012 144.5424997  93.7819988  85.7400012 143.2124997  93.1629988
  86.4800012 144.2084997  94.8719988  87.5670012 144.0274997  94.7289988
  86.4170012 145.1584997  95.4439988  85.9780012 143.1594997  95.8819988
  84.9670012 142.7394997  95.6959988  86.7750012 142.4064997  95.7069988
  86.1310012 143.6074997  97.3149988  85.7660012 144.6564997  97.2919988
  85.5160012 142.9904997  98.0039988  87.5920012 143.6264997  97.7869988
  88.0380012 142.6394997  98.3279988  88.2460012 144.8294997  97.6319988
  89.5900012 145.0244997  98.0639988  89.6930012 144.6774997  99.1139988
  90.1700012 144.4634997  97.2999988  90.0760012 146.4854997  98.0449988
  91.1620012 146.4714997  98.2809988  89.3900012 147.4424997  98.9959988
  89.6240012 147.1254997 100.0349988  89.6100012 148.5294997  98.9419988
  88.0240012 147.3254997  98.5939988  86.8710012 147.2304997  99.6409988
  87.2800012 146.2284997 100.7829988  86.7680012 146.4524997 102.0739988
  87.1370012 147.3994997 102.5229988  85.6610012 146.5224997 102.1189988
  87.0940012 145.3684997 103.0839988  86.9890012 145.9164997 104.0089988
  86.5380012 144.4444997 103.0319988  88.6130012 145.0824997 103.1669988
  88.9980012 144.0014997 102.1149988  88.8270012 144.4354997 101.1419988
  90.0520012 143.8084997 102.2499988  88.2970012 143.2144997 102.3519988
  89.4360012 146.3464997 103.0059988  89.1600012 146.7964997 102.0639988
  89.2990012 147.0844997 103.7829988  90.4700012 146.0914997 102.8259988
  88.9430012 144.5684997 104.5839988  88.2790012 143.8184997 104.9869988
  88.9720012 145.4354997 105.2269988  89.9290012 144.1274997 104.5759988
  86.7060012 148.6264997 100.1919988  85.6710012 146.7594997  98.9409988
  89.8300012 147.0664997  96.7649988  90.6170012 148.0004997  96.3269988
  91.6120012 148.4574997  96.9749988  90.3230012 148.1104997  94.7949988
  89.6820012 147.2524997  94.4969988  91.3790012 148.1534997  94.4529988
  89.7640012 149.4444997  94.4949988  89.6150012 149.5194997  93.3959988
  90.4670012 150.2424997  94.8149988  88.3510012 149.7204997  95.1499988
  88.0070012 150.7714997  95.0429988  88.5010012 149.7244997  96.2509988
  87.2860012 148.8754997  94.4539988  87.3850012 147.7884997  94.6609988
  87.1750012 148.9714997  93.3529988  85.8580012 149.2114997  95.0499988
  85.6960012 150.2784997  94.7849988  86.0110012 149.2244997  96.1499988
  84.6730012 148.3884997  94.6669988  83.7930012 148.6564997  95.2909988
  84.9460012 147.3394997  94.9129988  84.3470012 148.6414997  93.2109988
  85.2670012 148.4784997  92.6109988  83.9140012 149.6634997  93.2649988
  83.1650012 147.7424997  92.8029988  82.6620012 147.2084997  93.6229988
  82.8010012 147.4764997  91.5589988  81.8720012 146.8974997  91.4559988
  83.4460012 147.9214997  90.2799988  84.2790012 148.6304997  90.4719988
  82.6970012 148.3254997  89.5649988  84.0440012 146.7994997  89.5229988
  83.2220012 146.0574997  89.4349988  84.8110012 146.2444997  90.1049988
  84.4540012 147.3054997  88.1359988  85.1250012 148.1744997  88.3069988
  83.5520012 147.6274997  87.5719988  85.1960012 146.2394997  87.3169988
  84.4900012 145.4074997  87.1109988  85.9140012 145.7744997  88.0259988
  85.8860012 146.6414997  86.0089988  86.5620012 145.8134997  85.7069988
  86.5270012 147.5304997  86.1949988  84.9790012 146.9954997  84.8539988
  84.5370012 148.0124997  84.7909988  84.1890012 146.2334997  85.0259988
  85.5120012 146.7194997  83.4099988  86.3640012 147.4234997  83.3019988
  84.7780012 146.9114997  82.5979988  86.0760012 145.3494997  83.1739988
  86.9510012 145.2234997  83.8469988  86.4080012 145.1884997  82.1259988
  85.3400012 144.5574997  83.4329988 140.7260012  33.4794997  84.1129988
 140.0230012  34.0954997  83.5129988 141.0300012  32.6094997  83.4919988
 141.6300012  34.0954997  84.3079988 140.0340012  33.0014997  85.3939988
 139.5520012  33.8514997  85.9229988 139.2720012  32.2484997  85.1029988
 140.8340012  32.1224997  86.4299988 141.5130012  32.7384997  87.0589988
 140.0160012  31.7494997  87.0819988 141.6030012  30.9294997  85.7979988
 140.9720012  30.3614997  85.0819988 142.5240012  31.2174997  85.2459988
 142.0310012  29.9494997  86.9169988 141.3260012  29.1454997  87.2159988
 142.7930012  29.2864997  86.4539988 142.7760012  30.5424997  88.1519988
 142.0140012  31.1614997  88.6729988 143.0030012  29.6194997  88.7259988
 144.0810012  31.2154997  87.7469988 144.7840012  30.4964997  87.2749988
 143.9600012  32.0954997  87.0789988 144.7340012  31.9614997  88.9189988
 145.2780012  31.3064997  89.6329988 145.4260012  32.7004997  88.4599988
 143.7620012  32.7464997  89.8639988 142.7720012  32.3224997  90.1359988
 144.1780012  32.8834997  90.8849988 143.4510012  34.0494997  89.2439988
 144.3720012  34.6664997  89.1679988 143.1050012  33.8664997  88.2049988
 142.2900012  34.7104997  89.9789988 142.2770012  35.7534997  89.5969988
 141.3480012  34.1914997  89.7009988 142.4610012  34.6834997  91.4709988
 142.3380012  33.6554997  91.8749988 143.4900012  34.9684997  91.7769988
 141.5340012  35.6914997  92.2749988 141.5470012  36.6584997  91.7279988
 140.4800012  35.4144997  92.0579988 141.8230012  35.7264997  93.7779988
 141.7430012  34.7174997  94.2349988 142.8320012  36.1604997  93.9449988
 140.8110012  36.5854997  94.6429988 140.9290012  37.6814997  94.5049988
 139.7850012  36.2264997  94.4129988 141.1080012  36.3204997  96.1389988
 142.1290012  35.8884997  96.6269988 139.9080012  36.5204997  96.7959988
 140.0900012  36.3994997  98.2499988 141.1150012  36.7474997  98.5019988
 139.4460012  37.1314997  98.7819988 139.7960012  34.9404997  98.7299988
 138.7240012  34.7774997  98.4859988 140.1600012  34.8624997 100.2059988
 141.2640012  34.9694997 100.1539988 139.8090012  35.8264997 100.6329988
 139.5600012  33.8624997 100.9199988 140.4650012  32.7634997 101.6389988
 139.7410012  31.4414997 101.2289988 138.3310012  31.2654997 101.4619988
 138.2480012  31.1664997 102.5649988 137.7760012  32.1314997 101.0429988
 137.7830012  29.9744997 100.8159988 136.7250012  29.9414997 101.0289988
 137.8010012  30.0404997  99.7379988 138.3420012  28.6604997 101.3429988
 139.8120012  28.5564997 100.9819988 139.8160012  28.8474997  99.9419988
 140.3610012  29.2764997 101.5719988 140.0270012  27.5014997 101.0589988
 138.2320012  28.5754997 102.8289988 138.8300012  29.2994997 103.3629988
 137.2240012  28.6714997 103.2069988 138.4830012  27.5484997 103.0449988
 137.5290012  27.4774997 100.8169988 137.9760012  26.5194997 101.0359988
 137.5860012  27.4434997  99.7389988 136.5710012  27.3614997 101.3009988
 141.8110012  32.6244997 101.0149988 140.4560012  32.9214997 103.1289988
 140.5800012  33.9824997  98.0209988 139.9530012  33.1034997  97.1699988
 138.7270012  33.1934997  96.8619988 140.9840012  32.1774997  96.5239988
 141.9480012  32.5664997  96.9159988 141.1660012  32.4014997  95.4509988
 140.5460012  30.6874997  96.5899988 139.5440012  30.5604997  96.1279988
 140.2670012  30.5184997  97.6519988 141.5240012  29.7214997  95.9669988
 141.4510012  28.7714997  96.5379988 142.4680012  30.2434997  96.2339988
 141.4470012  29.6304997  94.4199988 142.4370012  29.1754997  94.1999988
 141.4480012  30.6334997  93.9419988 140.1600012  28.9134997  93.9619988
 139.3750012  29.6984997  93.9529988 139.9640012  28.0934997  94.6849988
 140.4190012  28.2574997  92.5959988 139.4630012  27.7304997  92.3879988
 141.1260012  27.4014997  92.6329988 140.8400012  29.2754997  91.5199988
 141.1480012  28.6484997  90.6559988 141.7600012  29.8554997  91.7459988
 139.7360012  30.2454997  91.2549988 139.4490012  30.8244997  92.1449988
 138.8070012  30.2024997  90.2769988 138.0370012  30.9884997  90.2779988
 138.6200012  29.1454997  89.2149988 138.7010012  28.1074997  89.6039988
 139.4280012  29.3754997  88.4879988 137.2190012  29.2814997  88.5359988
 136.4650012  29.0434997  89.3159988 136.9190012  28.5674997  87.7379988
 136.9160012  30.7044997  87.8919988 137.8070012  31.0114997  87.3049988
 136.7210012  31.5094997  88.6319988 135.7060012  30.8494997  86.9669988
 134.7970012  30.5104997  87.5089988 135.8890012  30.1404997  86.1319988
 135.5840012  32.3334997  86.3929988 136.6160012  32.6774997  86.1659988
 135.0920012  33.0394997  87.0959988 134.6470012  32.3074997  85.1609988
 133.6730012  31.9234997  85.5329988 135.0300012  31.6174997  84.3789988
 134.5300012  33.6594997  84.5259988 135.5580012  34.0814997  84.5309988
 134.0170012  34.3974997  85.1789988 133.9160012  33.8734997  83.1669988
 132.8260012  33.9714997  83.3589988 134.1500012  33.0024997  82.5189988
 134.3450012  34.7684997  82.6669988 138.1850012 103.9164997  83.6439988
 137.5780012 104.6864997  84.1669988 137.5290012 103.0864997  83.3079988
 138.6700012 104.4354997  82.7899988 139.3080012 103.4164997  84.5989988
 138.8910012 102.6324997  85.2669988 140.1070012 102.9894997  83.9559988
 139.8380012 104.5944997  85.4279988 140.1170012 105.3834997  84.6969988
 139.1640012 105.0674997  86.1749988 141.1510012 104.2714997  86.1909988
 141.6390012 103.6394997  85.4179988 141.7610012 105.1884997  86.3439988
 141.0180012 103.5724997  87.5559988 140.1190012 102.9204997  87.5829988
 141.9410012 102.9894997  87.7609988 140.9900012 104.5884997  88.7409988
 140.1270012 105.2804997  88.6369988 140.8920012 104.0774997  89.7219988
 142.2300012 105.5694997  89.0189988 143.1660012 104.9714997  89.0319988
 142.2820012 106.2774997  88.1649988 142.0400012 106.5114997  90.1589988
 141.6780012 105.8544997  90.9789988 142.9510012 107.0934997  90.4159988
 141.0450012 107.6554997  89.7979988 141.2800012 108.1014997  88.8079988
 140.0270012 107.2234997  89.6939988 140.9290012 108.6794997  90.9299988
 140.5040012 108.2474997  91.8619988 141.8950012 109.0844997  91.2979988
 139.9250012 109.7644997  90.5219988 140.4190012 110.3794997  89.7399988
 139.1580012 109.1674997  89.9819988 139.4160012 110.7284997  91.6509988
 140.2420012 111.2154997  92.2119988 138.8340012 111.5174997  91.1289988
 138.6890012 109.9734997  92.8159988 137.9470012 109.2764997  92.3709988
 139.3080012 109.2824997  93.4279988 137.9520012 110.9454997  93.7249988
 138.7230012 111.6034997  94.1789988 137.2470012 111.5634997  93.1279988
 137.1680012 110.2904997  94.8869988 136.5280012 111.1374997  95.2129988
 136.4980012 109.4594997  94.5799988 138.1660012 109.8754997  95.9629988
 139.3700012 110.0924997  95.9409988 137.5730012 109.0544997  96.8739988
 138.3630012 108.4904997  97.8629988 139.4060012 108.8594997  97.7709988
 138.0710012 108.8764997  98.8629988 138.2360012 106.9664997  97.8419988
 137.1530012 106.7214997  97.8509988 138.9880012 106.2314997  98.9729988
 139.0240012 106.9974997  99.7759988 138.3290012 105.4584997  99.4239988
 140.1930012 105.5424997  98.5699988 140.7530012 104.4074997  99.5289988
 140.3900012 104.8954997 100.9849988 141.4120012 105.5954997 101.7189988
 142.3860012 105.0604997 101.7199988 141.5500012 106.5234997 101.1249988
 140.9830012 106.0114997 103.1359988 141.0720012 105.3584997 103.9919988
 141.7140012 106.7744997 103.3579988 139.6020012 106.7314997 103.3489988
 139.8450012 107.7094997 104.4019988 140.6930012 108.3394997 104.1759988
 139.0380012 108.3504997 104.7239988 140.1040012 107.0814997 105.2409988
 139.2100012 107.3904997 102.1129988 139.3020012 106.6124997 101.3689988
 138.2110012 107.8004997 102.0819988 139.9800012 108.0614997 101.7639988
 138.5540012 105.7544997 103.7339988 138.8840012 105.2424997 104.6249988
 138.3680012 105.0854997 102.9059988 137.6290012 106.2934997 103.8749988
 140.0410012 103.1094997  99.2309988 142.2560012 104.3784997  99.4129988
 138.6630012 106.5654997  96.4879988 138.3350012 105.3224997  96.1429988
 137.7170012 104.5314997  96.7829988 138.7230012 105.3124997  94.6929988
 139.8290012 105.2174997  94.6569988 138.3460012 106.2214997  94.1769988
 138.1740012 104.0044997  94.0859988 137.1190012 103.8944997  94.4179988
 138.7030012 103.0934997  94.4389988 138.2180012 103.9504997  92.5489988
 138.0860012 102.8734997  92.3129988 139.1900012 104.3064997  92.1449988
 137.0110012 104.7014997  91.8849988 136.7560012 105.6434997  92.4169988
 136.1570012 103.9934997  91.9499988 137.3130012 104.7554997  90.3489988
 137.3550012 103.6954997  90.0169988 138.3450012 105.1594997  90.4179988
 136.3950012 105.5074997  89.4259988 136.1700012 106.5274997  89.8049988
 135.4790012 104.8794997  89.3709988 136.9220012 105.5074997  88.0209988
 136.8170012 104.4534997  87.6849988 137.9480012 105.9174997  87.9059988
 135.8950012 106.2804997  87.1199988 135.0290012 105.7134997  86.7469988
 135.9720012 107.5614997  86.7429988 135.2990012 107.7954997  85.9049988
 136.9680012 108.6574997  87.0759988 137.5710012 108.3974997  87.9709988
 136.4470012 109.5364997  87.5119988 137.9060012 108.9434997  85.9539988
 137.5650012 109.5914997  85.1189988 138.2800012 107.9814997  85.5409988
 139.1870012 109.6334997  86.3229988 139.7130012 109.1114997  87.1509988
 138.8710012 110.6764997  86.5399988 140.3380012 109.7114997  85.2399988
 140.8110012 110.7084997  85.3709988 140.0690012 109.6504997  84.1639988
 141.4170012 108.7014997  85.4829988 141.1500012 107.6274997  85.3809988
 141.8100012 108.8154997  86.5159988 142.6680012 108.8634997  84.5049988
 143.0730012 109.8634997  84.7699988 142.2910012 108.8054997  83.4609988
 143.7480012 107.8284997  84.8809988 143.4500012 106.8524997  84.4409988
 143.8300012 107.6114997  85.9679988 145.1230012 108.3504997  84.6689988
 145.9140012 107.6824997  85.0729988 145.1930012 109.3234997  85.2019988
 145.3350012 108.6354997  83.6159988  10.8990012  36.0164997  83.2239988
  11.8800012  36.5364997  83.1979988  10.0540012  36.7344997  83.1579988
  10.7020012  35.3284997  82.3739988  10.8300012  35.1124997  84.5019988
  11.2380012  34.1204997  84.2129988  11.3760012  35.6794997  85.2859988
   9.3870012  35.0684997  85.0209988   9.0270012  36.1104997  85.1599988
   8.7270012  34.5944997  84.2639988   9.0500012  34.3804997  86.3879988
   8.2160012  34.9294997  86.8739988   8.7040012  33.3334997  86.2469988
  10.2570012  34.2954997  87.3109988  10.8320012  33.4154997  86.9519988
  10.8170012  35.2474997  87.4289988   9.8480012  33.9274997  88.7219988
   8.9260012  34.4344997  89.0779988   9.6320012  32.8424997  88.6199988
  10.9300012  34.0104997  89.7719988  11.3910012  35.0204997  89.7299988
  10.6930012  33.7844997  90.8329988  12.1210012  33.0614997  89.4339988
  11.7170012  32.1704997  88.9079988  12.8320012  33.5684997  88.7459988
  12.9210012  32.6064997  90.6979988  12.6810012  33.3524997  91.4859988
  12.6830012  31.5584997  90.9779988  14.3940012  32.5024997  90.4099988
  14.5260012  31.7184997  89.6339988  14.6650012  33.5174997  90.0479988
  15.3490012  32.1454997  91.6159988  15.0990012  31.1264997  91.9809988
  16.3780012  32.1044997  91.1989988  15.1480012  33.1534997  92.7239988
  16.1780012  33.5444997  92.8639988  14.5250012  33.9734997  92.3069988
  14.4600012  32.5734997  93.9699988  13.4910012  32.1174997  93.6719988
  15.1540012  31.7884997  94.3389988  14.1960012  33.7224997  94.9789988
  15.1360012  34.2344997  95.2779988  13.5940012  34.4474997  94.3909988
  13.5920012  33.0934997  96.2639988  12.6550012  32.6214997  95.8989988
  14.3780012  32.3744997  96.5799988  13.2290012  34.2024997  97.2119988
  14.0070012  34.7654997  97.9469988  11.9590012  34.4864997  97.2069988
  11.4840012  35.7224997  97.8299988  12.2400012  36.5334997  97.8979988
  10.6570012  35.9634997  97.1279988  10.9220012  35.4544997  99.2469988
  10.6430012  36.2874997  99.9269988  11.9100012  34.7034997 100.2679988
  12.2340012  33.7194997  99.8679988  12.7100012  35.4544997 100.4459988
  11.2110012  34.4564997 101.4809988  11.9670012  33.4874997 102.6249988
  11.3210012  32.0434997 102.3049988  10.0700012  32.0194997 101.7469988
   9.3630012  32.1974997 102.5859988   9.9250012  32.6764997 100.8629988
   9.8180012  30.5504997 101.2859988   9.6830012  29.9094997 102.1449988
   8.9210012  30.6154997 100.6879988  10.8010012  29.9064997 100.3839988
  11.9350012  29.4674997 101.1559988  12.7160012  29.1984997 100.4599988
  12.3500012  30.2674997 101.7519988  11.6260012  28.5994997 101.7189988
  10.2390012  28.6064997  99.6829988  11.0630012  28.1054997  99.1969988
   9.7360012  27.9464997 100.3749988   9.5980012  28.9114997  98.8689988
  11.1430012  30.8874997  99.2999988  12.0280012  30.5914997  98.7559988
  11.3250012  31.8184997  99.8169988  10.3230012  30.9944997  98.6059988
  13.4220012  33.5304997 102.2469988  11.4540012  33.9774997 103.9649988
   9.8120012  34.5264997  99.1169988   8.7080012  35.0304997  98.5229988
   8.6000012  36.1444997  98.1109988   7.8140012  33.8624997  98.3309988
   6.8180012  34.2474997  98.0249988   7.6940012  33.2844997  99.2719988
   8.3890012  32.9294997  97.1779988   7.7240012  32.0474997  97.0549988
   9.3830012  32.6394997  97.5789988   8.5290012  33.5304997  95.7699988
   8.9940012  34.5274997  95.9189988   7.5010012  33.8284997  95.4719988
   9.4500012  32.7524997  94.8489988  10.4040012  32.5824997  95.3929988
   9.6190012  33.3004997  93.8979988   8.8930012  31.4054997  94.4309988
   7.9140012  31.3604997  93.9079988   8.5860012  30.8774997  95.3589988
  10.0160012  30.5964997  93.7349988  10.8570012  30.5274997  94.4579988
  10.2470012  31.2404997  92.8599988   9.7100012  29.1534997  93.2329988
   8.9620012  29.2804997  92.4209988   9.1790012  28.5574997  94.0059988
  10.9470012  28.4464997  92.7739988  11.2930012  27.7334997  93.5369988
  11.5230012  28.5504997  91.6119988  12.4650012  27.9864997  91.5409988
  11.1140012  29.3704997  90.4449988  12.0100012  29.7724997  89.9259988
  10.6290012  30.2904997  90.8379988  10.2690012  28.6654997  89.4109988
   9.3140012  28.3524997  89.8859988  10.7320012  27.7414997  89.0039988
   9.8880012  29.5834997  88.2229988  10.1650012  30.6124997  88.5379988
   8.7900012  29.6284997  88.0609988  10.6070012  29.1364997  86.9689988
  10.3060012  28.1024997  86.6989988  11.6900012  29.0104997  87.1869988
  10.2650012  30.1554997  85.7669988  10.8210012  31.1034997  85.9299988
   9.1600012  30.2684997  85.7439988  10.5900012  29.4654997  84.4329988
  10.1360012  28.4614997  84.5709988  11.6960012  29.3824997  84.5089988
  10.0330012  30.1284997  83.1759988   8.9440012  30.2874997  83.3299988
  10.0500012  29.5144997  82.2499988  10.7680012  31.4094997  82.8129988
  11.3760012  31.8034997  83.6549988  10.1510012  32.2374997  82.4029988
  11.5140012  31.1464997  82.0329988   2.0400012  47.5344997  84.0539988
   2.2400012  46.9754997  83.1149988   1.4240012  48.4304997  83.8269988
   1.4770012  46.9214997  84.7889988   3.3270012  47.9844997  84.7139988
   3.8470012  48.7324997  84.0779988   3.1190012  48.4274997  85.7119988
   4.4180012  46.9084997  84.8799988   4.7850012  46.7344997  83.8459988
   5.3110012  47.3164997  85.4009988   4.1070012  45.6134997  85.6419988
   3.3640012  45.1204997  84.9789988   4.9460012  44.8884997  85.7209988
   3.5480012  45.8724997  87.0729988   2.7580012  46.6514997  87.1459988
   3.1540012  44.8634997  87.3179988   4.7830012  46.0844997  88.0749988
   5.5560012  45.2864997  88.0399988   5.3560012  47.0074997  87.8389988
   4.2090012  46.2054997  89.5069988   4.9630012  46.5894997  90.2279988
   3.3420012  46.8964997  89.5809988   3.5230012  44.9464997  90.0529988
   3.0630012  45.2164997  91.0279988   2.7060012  44.6404997  89.3649988
   4.4270012  43.7724997  90.3129988   5.0330012  43.5744997  89.4029988
   5.0090012  44.1204997  91.1929988   3.7660012  42.4534997  90.7149988
   2.8650012  42.6084997  91.3459988   3.3390012  42.0904997  89.7569988
   4.8180012  41.4594997  91.2559988   4.4350012  40.4164997  91.2209988
   5.6860012  41.4744997  90.5629988   5.4140012  41.6844997  92.5779988
   6.4220012  41.2534997  92.7579988   5.5130012  42.7314997  92.9389988
   4.5580012  41.0774997  93.6359988   3.5400012  41.4974997  93.4929988
   4.6890012  39.9744997  93.6709988   4.9600012  41.4754997  95.0369988
   4.5270012  40.7334997  95.7419988   6.0320012  41.2184997  95.1819988
   4.6310012  42.9684997  95.4129988   4.9320012  43.6614997  94.5979988
   3.5410012  43.0184997  95.6219988   5.3510012  43.2544997  96.7029988
   5.7350012  42.3824997  97.5129988   5.6500012  44.5544997  96.7879988
   6.4110012  45.0344997  97.9519988   6.6890012  44.2444997  98.6809988
   7.3640012  45.3734997  97.4919988   5.5800012  46.2444997  98.4469988
   6.2850012  46.9624997  98.9189988   4.5950012  45.7624997  99.5049988
   5.1410012  45.0154997 100.1209988   4.2390012  46.6124997 100.1249988
   3.5200012  45.2044997  98.7909988   2.1740012  44.8684997  99.4539988
   2.6000012  44.5944997 100.9409988   2.1350012  43.3984997 101.5689988
   1.9720012  42.5404997 100.8829988   3.0010012  43.1244997 102.2089988
   0.8710012  43.7484997 102.3399988   0.1690012  44.1214997 101.6089988
   0.3960012  42.9634997 102.9099988   0.9580012  44.9394997 103.3439988
   0.8040012  46.2934997 102.7749988  -0.2269988  46.5064997 102.5339988
   1.1030012  47.0474997 103.4879988   1.4660012  46.4514997 101.9359988
  -0.1109988  44.6444997 104.3479988  -0.1249988  45.4024997 105.1169988
  -0.9759988  44.7004997 103.7049988   0.0550012  43.6744997 104.7929988
   2.1920012  44.9474997 104.2639988   2.3670012  43.9514997 104.6459988
   2.0390012  45.4504997 105.2069988   3.0140012  45.3584997 103.6959988
   1.3490012  46.0424997  99.4359988   1.6200012  43.6234997  98.9189988
   4.9350012  46.9954997  97.3339988   4.1580012  48.1054997  97.5289988
   3.9100012  48.5964997  98.6459988   3.6110012  48.5494997  96.2379988
   4.4520012  48.7754997  95.5479988   3.0370012  49.4914997  96.3739988
   2.7810012  47.4604997  95.5809988   2.2050012  46.9244997  96.3639988
   3.4790012  46.7334997  95.1119988   1.7220012  48.0524997  94.5579988
   2.3570012  48.6664997  93.8829988   1.1330012  48.6614997  95.2769988
   0.9230012  47.1234997  93.6649988   1.5380012  46.8664997  92.7769988
   0.0230012  47.6194997  93.2439988   0.4780012  45.7474997  94.2449988
  -0.1849988  45.9884997  95.1029988   1.4070012  45.1994997  94.5109988
  -0.1929988  44.9024997  93.0969988  -0.3079988  43.9024997  93.5669988
   0.5710012  44.8434997  92.2919988  -1.4199988  45.4804997  92.4979988
  -1.1959988  46.3604997  91.8589988  -2.0819988  45.8474997  93.3119988
  -2.1649988  44.3744997  91.7329988  -3.0339988  43.9454997  92.2539988
  -1.7819988  43.7934997  90.5859988  -2.4819988  43.1154997  90.0759988
  -0.5799988  44.0864997  89.7619988   0.2860012  43.4544997  90.0539988
  -0.1919988  45.1054997  89.9739988  -0.7929988  44.0404997  88.2399988
  -1.7049988  44.6554997  88.0849988  -1.1039988  42.9834997  88.0999988
   0.4530012  44.3404997  87.4219988   1.2610012  43.6714997  87.7879988
   0.6080012  45.4394997  87.4769988   0.2740012  43.9974997  85.9169988
   0.2410012  42.9194997  85.6479988   1.1010012  44.5454997  85.4169988
  -1.0519988  44.5294997  85.1619988  -1.0949988  45.5874997  85.4979988
  -1.8669988  43.8974997  85.5749988  -1.0189988  44.5124997  83.6789988
  -0.2099988  45.2254997  83.4099988  -1.9449988  44.9894997  83.2919988
  -0.6679988  43.1384997  83.0419988   0.2940012  42.8404997  83.5119988
  -0.5049988  43.3084997  81.9569988  -1.7099988  41.9904997  83.2049988
  -1.3709988  41.3174997  84.0219988  -1.7509988  41.4144997  82.2559988
  -2.6929988  42.4744997  83.3899988 122.8820012   9.2894997  84.8439988
 123.6920012   8.7034997  84.3599988 122.0500012   9.4874997  84.1339988
 122.4650012   8.6814997  85.6739988 123.4350012  10.5844997  85.4699988
 123.8700012  11.2584997  84.7009988 122.6360012  11.1634997  85.9799988
 124.5490012  10.4514997  86.4739988 125.2780012   9.6604997  86.1959988
 125.1430012  11.3834997  86.5859988 124.1280012  10.0344997  87.9349988
 123.3610012  10.7314997  88.3349988 123.7510012   8.9924997  87.8509988
 125.3480012  10.1624997  88.8259988 126.1580012   9.6814997  88.2359988
 125.6350012  11.2284997  88.9539988 125.3430012   9.4514997  90.1439988
 125.2840012   8.3894997  89.8209988 126.3390012   9.6194997  90.6059988
 124.2360012   9.9024997  91.1329988 123.2050012   9.8464997  90.7219988
 124.3100012   9.2634997  92.0389988 124.3980012  11.4324997  91.7639988
 123.9940012  11.4914997  92.7969988 125.4930012  11.4934997  91.9389988
 123.7770012  12.5794997  90.9849988 124.5000012  12.8864997  90.1999988
 122.8310012  12.2604997  90.4969988 123.4840012  13.8824997  91.8309988
 123.1510012  14.6474997  91.0969988 122.6190012  13.6114997  92.4749988
 124.6730012  14.4354997  92.6109988 125.3950012  13.7674997  93.1269988
 125.3710012  14.9974997  91.9539988 124.1910012  15.5594997  93.5959988
 125.0470012  16.2424997  93.7819988 123.3560012  16.1514997  93.1629988
 123.7450012  14.9734997  94.8719988 122.9710012  14.1894997  94.7289988
 124.5580012  14.4774997  95.4439988 123.1770012  15.9874997  95.8819988
 123.4150012  17.0564997  95.6959988 122.1010012  15.7694997  95.7069988
 123.4540012  15.6044997  97.3149988 124.5220012  15.2984997  97.2919988
 123.3040012  16.4624997  98.0039988 122.6290012  14.3994997  97.7869988
 121.5650012  14.6024997  98.3279988 123.2350012  13.1714997  97.6319988
 122.6210012  11.9604997  98.0639988 122.2780012  12.0764997  99.1139988
 121.8280012  11.8084997  97.2999988 123.5360012  10.7214997  98.0449988
 122.8990012   9.8414997  98.2809988 124.7130012  10.7314997  98.9959988
 124.3200012  10.7224997 100.0349988 125.4750012   9.9254997  98.9419988
 125.4040012  11.9154997  98.5939988 125.9900012  12.9124997  99.6409988
 124.9360012  13.1554997 100.7829988 125.4130012  13.4454997 102.0739988
 125.9750012  12.5984997 102.5229988 126.1090012  14.3104997 102.1189988
 124.3390012  13.8024997 103.0839988 124.8480012  13.5734997 104.0089988
 123.9040012  14.7894997 103.0319988 123.2310012  12.7264997 103.1669988
 122.1250012  13.0334997 102.1149988 122.5800012  12.9234997 101.1419988
 121.3610012  12.2824997 102.2499988 121.8860012  14.0594997 102.3519988
 123.7910012  11.3244997 103.0059988 124.3180012  11.2914997 102.0639988
 124.4730012  11.0124997 103.7829988 122.9870012  10.6264997 102.8259988
 122.6210012  12.7514997 104.5839988 122.3900012  13.7264997 104.9869988
 123.3130012  12.2284997 105.2269988 121.6930012  12.1994997 104.5759988
 127.2270012  12.2444997 100.1919988 126.2960012  14.1644997  98.9409988
 124.1520012  10.5884997  96.7649988 124.4630012   9.4064997  96.3269988
 124.2630012   8.3304997  96.9749988 124.7220012   9.5844997  94.7949988
 124.3900012  10.6024997  94.4969988 124.1500012   8.6954997  94.4529988
 126.1340012   9.2724997  94.4949988 126.2820012   9.3514997  93.3959988
 126.3830012   8.2384997  94.8149988 127.1740012  10.2694997  95.1499988
 128.2320012   9.9454997  95.0429988 127.0900012  10.1444997  96.2509988
 127.0960012  11.6264997  94.4539988 126.1500012  12.1714997  94.6609988
 127.2390012  11.6614997  93.3529988 128.1930012  12.6004997  95.0499988
 129.1590012  12.1184997  94.7849988 128.1160012  12.4684997  96.1499988
 128.2030012  14.0434997  94.6669988 128.9280012  14.6084997  95.2909988
 127.1880012  14.4234997  94.9129988 128.5980012  14.1644997  93.2109988
 127.9340012  13.5054997  92.6109988 129.6820012  13.9304997  93.2649988
 128.5430012  15.6484997  92.8029988 128.3960012  16.3674997  93.6229988
 128.5350012  16.0984997  91.5589988 128.5960012  17.1924997  91.4559988
 128.5280012  15.3154997  90.2799988 128.6280012  14.2254997  90.4719988
 129.2890012  15.6954997  89.5649988 127.2650012  15.4724997  89.5229988
 127.1330012  16.5714997  89.4349988 126.3700012  15.1654997  90.1049988
 127.4440012  14.8464997  88.1359988 127.7680012  13.7974997  88.3069988
 128.2260012  15.3974997  87.5719988 126.1450012  14.8534997  87.3169988
 125.8710012  15.9104997  87.1109988 125.3520012  14.5344997  88.0259988
 126.0760012  14.0574997  86.0089988 125.0100012  13.9814997  85.7069988
 126.4340012  13.0224997  86.1949988 126.8880012  14.5954997  84.8539988
 127.9740012  14.3704997  84.7909988 126.7200012  15.6804997  85.0259988
 126.3550012  14.3184997  83.4099988 126.4400012  13.2164997  83.3019988
 126.9350012  14.8074997  82.5979988 124.9100012  14.6464997  83.1739988
 124.3040012  14.0034997  83.8469988 124.5870012  14.4674997  82.1259988
 124.6870012  15.7034997  83.4329988 115.8060012  10.8754997  82.8939988
 116.7650012  11.4204997  83.0319988 114.9890012  11.3494997  83.4789988
 115.5080012  11.0114997  81.8319988 116.1100012   9.3914997  83.0159988
 115.5780012   8.7324997  82.2969988 117.0290012   9.3024997  82.3989988
 116.2700012   8.7294997  84.4069988 116.7850012   9.4524997  85.0749988
 115.3040012   8.5364997  84.9199988 117.1160012   7.4044997  84.3239988
 116.5010012   6.6914997  83.7339988 117.9530012   7.6774997  83.6449988
 117.5230012   6.8624997  85.6799988 118.0790012   5.9134997  85.5239988
 118.2620012   7.5484997  86.1469988 116.3460012   6.6994997  86.7239988
 115.8800012   7.6624997  87.0219988 115.5700012   6.1644997  86.1349988
 116.8040012   5.7194997  87.7969988 115.8920012   5.6024997  88.4209988
 117.1060012   4.6984997  87.4779988 117.8930012   6.2394997  88.7869988
 118.8670012   6.5324997  88.3409988 117.5550012   7.2524997  89.0949988
 118.2580012   5.3574997  89.9959988 117.3520012   4.9444997  90.4889988
 118.7880012   4.4544997  89.6259988 119.2560012   5.9134997  91.0979988
 119.5320012   5.1824997  91.8879988 120.1390012   6.4514997  90.6909988
 118.4730012   6.8204997  92.0179988 118.0540012   7.6874997  91.4629988
 117.6600012   6.1484997  92.3649988 119.3070012   7.3584997  93.1279988
 120.1720012   6.6934997  93.3399988 119.7480012   8.3194997  92.7869988
 118.4900012   7.6284997  94.3839988 117.4170012   7.8804997  94.2439988
 118.4120012   6.5874997  94.7639988 119.1270012   8.6884997  95.3269988
 119.2770012   9.6244997  94.7489988 118.4690012   8.8554997  96.2069988
 120.5860012   8.3734997  95.8569988 120.6400012   7.3494997  96.2859988
 121.1820012   8.4884997  94.9259988 121.1630012   9.4414997  96.7839988
 122.0520012  10.2414997  96.4539988 120.3460012   9.6564997  97.8629988
 120.2600012  10.9734997  98.4389988 120.7550012  11.0434997  99.4309988
 120.6530012  11.7364997  97.7349988 118.8680012  11.3694997  98.6609988
 118.7680012  12.4224997  98.9999988 118.2360012  10.5134997  99.7939988
 119.0040012  10.2244997 100.5439988 117.4410012  11.0974997 100.3039988
 117.7390012   9.3094997  99.2579988 116.2250012   8.7794997  99.4579988
 116.2280012   7.9624997 100.8059988 117.2500012   7.0144997 101.2199988
 116.7770012   6.2094997 101.8229988 117.6720012   6.3804997 100.4109988
 118.4590012   7.6314997 102.0839988 119.2620012   6.9174997 102.1869988
 118.7310012   8.5134997 101.5229988 118.0870012   8.1054997 103.4599988
 116.9790012   9.1224997 103.4209988 116.1920012   8.8494997 102.7329988
 116.6200012   9.4414997 104.3889988 117.4800012  10.0154997 103.0769988
 117.6030012   6.9924997 104.3609988 118.4210012   6.3154997 104.5569988
 117.3250012   7.4734997 105.2879988 116.6900012   6.6054997 103.9319988
 119.2940012   8.7394997 104.1419988 119.9910012   9.0394997 103.3739988
 119.7090012   7.9434997 104.7419988 119.0580012   9.5884997 104.7659988
 115.3080012   9.9244997  99.6399988 115.8670012   7.8824997  98.3319988
 118.1160012  11.2414997  97.4609988 117.0710012  12.0094997  97.3409988
 116.7430012  13.0044997  97.9769988 116.2780012  11.4804997  96.0889988
 116.8240012  10.5244997  95.9349988 116.4880012  12.2814997  95.3479988
 114.8090012  11.1854997  96.4219988 114.2690012  12.0584997  96.8459988
 114.6810012  10.2504997  97.0089988 113.9490012  10.7954997  95.2379988
 113.9730012  11.5154997  94.3919988 112.8850012  10.6864997  95.5389988
 114.2790012   9.4604997  94.5209988 113.7020012   8.7654997  95.1679988
 115.3710012   9.3194997  94.6709988 113.8670012   9.3554997  93.0769988
 112.8200012   9.7074997  92.9549988 113.9320012   8.2544997  92.9389988
 114.7680012   9.9534997  92.0129988 115.7370012   9.4144997  92.0789988
 114.8250012  11.0474997  92.1979988 114.3660012   9.6374997  90.5959988
 113.3280012   9.9884997  90.4129988 114.2970012   8.5294997  90.6319988
 115.0830012  10.0064997  89.3429988 114.4790012   9.7264997  88.4679988
 116.2440012  10.6074997  89.0699988 116.5360012  10.7594997  88.0199988
 117.2140012  11.0364997  90.0469988 116.7650012  11.0044997  91.0619988
 117.3780012  12.1104997  89.8149988 118.6160012  10.3534997  89.9079988
 118.6300012   9.2474997  90.0059988 119.3780012  10.6524997  90.6599988
 119.4130012  10.6544997  88.6219988 120.4240012  10.8704997  89.0299988
 119.1650012  11.6524997  88.2019988 119.4170012   9.5374997  87.5069988
 118.3850012   9.3824997  87.1259988 119.7150012   8.5654997  87.9569988
 120.3780012   9.9694997  86.4189988 121.3710012  10.0544997  86.9099988
 120.1270012  10.9924997  86.0649988 120.5640012   9.1184997  85.2339988
 121.4160012   9.5834997  84.6939988 119.6710012   9.2934997  84.5959988
 120.7850012   7.6404997  85.4899988 120.1330012   7.0194997  86.1419988
 121.8630012   7.6284997  85.7589988 120.7850012   6.6964997  84.1599988
 121.3910012   5.8044997  84.4269988 121.1740012   7.1904997  83.2439988
 119.7370012   6.3644997  83.9989988 128.1470012 117.0624997  82.4039988
 128.4650012 116.0044997  82.2819988 127.8440012 117.5924997  81.4749988
 127.1890012 116.9614997  82.9559988 129.2070012 118.0034997  83.1529988
 128.6090012 118.9224997  83.3319988 129.4250012 117.6104997  84.1699988
 130.5890012 118.1594997  82.3989988 130.4060012 118.6374997  81.4129988
 131.1200012 118.8774997  83.0589988 131.2560012 116.8124997  82.0989988
 130.5990012 116.1014997  81.5559988 132.2230012 116.8944997  81.5569988
 131.6030012 115.9774997  83.3529988 130.7530012 115.7644997  84.0369988
 131.9490012 115.0224997  82.9019988 132.5480012 116.7544997  84.2789988
 133.5380012 117.0014997  83.8389988 132.0990012 117.7294997  84.5639988
 132.9720012 115.9634997  85.5269988 133.2590012 114.9454997  85.1869988
 133.9390012 116.3704997  85.8909988 131.8670012 116.0984997  86.6749988
 131.8460012 117.1834997  86.9129988 130.8820012 115.8224997  86.2409988
 131.9930012 115.2434997  87.9559988 132.0350012 114.1974997  87.5829988
 132.9390012 115.4984997  88.4799988 130.7870012 115.4894997  88.8689988
 129.8180012 115.4924997  88.3259988 130.8840012 114.5984997  89.5259988
 130.9240012 116.8434997  89.5039988 131.9290012 116.9764997  89.9589988
 130.9140012 117.6124997  88.7019988 129.9380012 117.2534997  90.6419988
 130.1090012 118.2964997  90.9859988 128.9400012 117.2974997  90.1569988
 129.8730012 116.1304997  91.6999988 129.1850012 116.4874997  92.4959988
 129.5000012 115.1824997  91.2579988 131.1590012 115.6704997  92.3989988
 131.8780012 115.3744997  91.6049988 131.6540012 116.4624997  93.0009988
 130.9880012 114.3204997  93.2149988 130.3680012 114.6874997  94.0609988
 130.4660012 113.4984997  92.6809988 132.3800012 113.9904997  93.9209988
 133.0950012 113.0634997  93.5639988 132.4270012 114.7124997  95.0689988
 133.5900012 114.5124997  96.0149988 133.5010012 113.5174997  96.4999988
 134.5380012 114.4634997  95.4389988 133.7400012 115.6934997  97.0029988
 134.6260012 115.3484997  97.5779988 132.5000012 115.9224997  97.9139988
 131.7350012 116.4954997  97.3479988 132.1160012 114.8874997  98.0439988
 132.8780012 116.6654997  99.1069988 131.9940012 116.4394997 100.3499988
 132.3790012 117.5744997 101.3819988 132.5170012 118.9044997 100.9049988
 133.4110012 119.2194997 101.4829988 132.6900012 118.9674997  99.8089988
 131.3030012 119.7784997 101.2459988 131.4540012 120.8154997 100.9849988
 130.4250012 119.3794997 100.7589988 130.9260012 119.8744997 102.7259988
 132.1030012 120.2054997 103.5159988 131.8740012 120.0654997 104.5619988
 132.9170012 119.5524997 103.2369988 132.4640012 121.1874997 103.2499988
 129.8910012 120.9814997 102.8409988 129.5510012 121.1924997 103.8439988
 130.2330012 121.8094997 102.2369988 129.0950012 120.6694997 102.1809988
 130.3610012 118.5674997 103.1419988 129.4300012 118.3084997 102.6589988
 130.1230012 118.8304997 104.1619988 131.0460012 117.7334997 103.1419988
 130.5330012 116.5864997 100.0469988 132.3310012 115.1324997 100.9199988
 133.9660012 116.8454997  96.1949988 134.7670012 117.8314997  96.5639988
 135.2890012 117.9694997  97.6679988 134.9400012 118.7614997  95.3699988
 135.8550012 119.3354997  95.6279988 134.0460012 119.4004997  95.2099988
 135.3060012 117.9974997  94.0289988 134.5750012 117.1664997  93.9319988
 136.3690012 117.7304997  94.2149988 135.2010012 118.8494997  92.7819988
 135.9270012 118.3504997  92.1049988 135.4600012 119.9264997  92.8689988
 133.8500012 118.6714997  92.1619988 133.0400012 118.8424997  92.9029988
 133.7860012 117.5644997  92.0879988 133.6830012 119.5454997  90.9099988
 133.8700012 120.6084997  91.1729988 132.6310012 119.4814997  90.5589988
 134.4670012 118.9784997  89.7169988 134.3910012 117.8694997  89.6989988
 135.5350012 119.2684997  89.8059988 134.0490012 119.4204997  88.3349988
 132.9780012 119.1334997  88.2669988 134.5280012 118.8444997  87.5149988
 134.1890012 120.9444997  88.1569988 134.8270012 121.5034997  88.8559988
 133.7280012 121.6284997  87.0999988 134.0470012 122.6694997  86.9419988
 132.9900012 120.9374997  85.9599988 132.5100012 121.7314997  85.3499988
 132.2300012 120.2344997  86.3619988 133.8440012 120.2664997  84.9089988
 133.2480012 119.9284997  84.0349988 134.3730012 119.3594997  85.2709988
 135.0450012 121.1214997  84.3129988 135.6260012 121.5764997  85.1429988
 134.6630012 122.0094997  83.7659988 135.9380012 120.4874997  83.2379988
 136.6510012 121.1384997  82.6899988 135.2160012 120.2694997  82.4219988
 136.5890012 119.1884997  83.7409988 135.8270012 118.4814997  84.1349988
 137.3740012 119.4424997  84.4849988 137.3640012 118.4334997  82.5949988
 137.8810012 117.5264997  82.9739988 138.1850012 119.0954997  82.2459988
 136.5980012 118.0944997  81.3089988 137.3070012 117.5224997  80.6729988
 136.4450012 119.0784997  80.8159988 135.2240012 117.4284997  81.3719988
 135.3950012 116.5174997  81.9829988 134.8580012 117.1544997  80.3589988
 134.5240012 118.0804997  81.9379988 107.9540012   1.1944997  83.8589988
 106.9690012   1.6964997  83.9649988 108.2230012   0.9474997  84.9079988
 107.7200012   0.2774997  83.2769988 108.9070012   2.1824997  83.1329988
 109.8190012   1.5784997  82.9369988 108.3490012   2.3654997  82.1909988
 109.1930012   3.5434997  83.7149988 109.7270012   4.1704997  82.9689988
 108.2180012   4.0384997  83.9109988 109.9050012   3.5814997  85.0569988
 109.3690012   3.0784997  85.8899988 110.8770012   3.0644997  84.9079988
 110.2130012   4.9974997  85.5489988 110.6430012   5.5694997  84.6989988
 109.2920012   5.5404997  85.8499988 111.2800012   5.1144997  86.6269988
 112.1440012   4.4424997  86.4379988 111.6680012   6.1484997  86.7459988
 110.7250012   4.7044997  87.9769988 109.9480012   5.4794997  88.1519988
 110.3080012   3.6744997  87.9819988 111.7420012   4.9874997  89.1539988
 112.5690012   4.2634997  89.3119988 112.2190012   5.9544997  88.8869988
 110.9690012   5.1294997  90.4579988 110.1190012   5.8174997  90.2619988
 110.5550012   4.1574997  90.8009988 111.8530012   5.7434997  91.5629988
 112.7670012   5.1264997  91.6969988 112.1420012   6.7984997  91.3709988
 111.0710012   5.6454997  92.8509988 110.8560012   4.5614997  92.9599988
 111.6870012   6.1804997  93.6059988 109.6620012   6.3094997  92.8869988
 109.6290012   7.3374997  92.4669988 109.1520012   5.6114997  92.1879988
 108.8060012   6.1414997  94.2089988 108.8880012   5.1374997  94.6779988
 109.1700012   6.8654997  94.9689988 107.2570012   6.3294997  94.0009988
 107.2480012   7.4054997  93.7239988 106.8330012   5.8264997  93.1049988
 106.4350012   6.0884997  95.3669988 106.9180012   6.3524997  96.3319988
 105.4910012   6.6584997  95.2309988 106.0980012   4.5684997  95.4649988
 105.9480012   3.8954997  94.4709988 105.9670012   4.0954997  96.7339988
 105.3560012   2.7804997  96.8239988 104.5690012   2.7044997  97.6039988
 104.9310012   2.3464997  95.8939988 106.4830012   1.7584997  97.3999988
 105.9890012   0.7744997  97.5469988 107.2080012   2.2664997  98.6429988
 106.3930012   2.6194997  99.3109988 107.7060012   1.3704997  99.0719988
 108.1120012   3.2274997  98.2769988 109.0690012   3.8854997  99.2919988
 108.8760012   2.9764997 100.5779988 108.0250012   3.3434997 101.6839988
 107.0930012   3.8364997 101.3349988 107.7470012   2.4934997 102.3429988
 108.6500012   4.3144997 102.7829988 108.8520012   5.2644997 102.3109988
 107.8180012   4.4854997 103.4509988 109.8040012   3.9784997 103.5729988
 110.0580012   5.1074997 104.5899988 110.3990012   6.0154997 104.1139988
 109.1900012   5.1304997 105.2319988 110.8770012   4.6574997 105.1309988
 109.6940012   2.6214997 104.2479988 108.7180012   2.7054997 104.7029988
 109.6840012   1.8314997 103.5119988 110.4560012   2.4434997 104.9929988
 111.0650012   3.9864997 102.7889988 111.9350012   3.7994997 103.3999988
 111.2210012   4.9024997 102.2369988 110.9660012   3.2044997 102.0509988
 110.4260012   3.6394997  98.7789988 108.5980012   5.3084997  99.5879988
 107.5140012   1.6634997  96.4039988 107.5610012   0.5694997  95.5749988
 106.8350012  -0.4585003  95.7779988 108.5830012   0.8244997  94.4419988
 109.4420012   0.1294997  94.5629988 108.9470012   1.8744997  94.4629988
 107.8650012   0.3694997  93.1269988 107.5140012  -0.6775003  93.2449988
 108.6890012   0.3764997  92.3809988 106.7830012   1.3184997  92.7019988
 107.1350012   2.3714997  92.6699988 105.9970012   1.3224997  93.4869988
 106.2810012   0.8574997  91.2979988 106.0880012  -0.2345003  91.3629988
 107.0180012   0.9674997  90.4739988 104.9070012   1.4824997  90.8359988
 104.1290012   1.2634997  91.5979988 104.6580012   1.0874997  89.8279988
 105.0410012   3.0284997  90.7199988 105.1070012   3.3894997  91.7679988
 104.0930012   3.3784997  90.2579988 106.1870012   3.5434997  89.8759988
 106.1180012   3.0824997  88.8669988 107.1150012   3.1304997  90.3269988
 106.2400012   5.1144997  89.9859988 105.7970012   5.4774997  90.9259988
 106.6870012   5.9284997  89.0169988 106.7020012   7.0204997  89.1449988
 107.2070012   5.4674997  87.6839988 107.7210012   4.4914997  87.5489988
 107.9710012   6.2024997  87.3509988 106.2600012   5.6354997  86.5239988
 106.7810012   5.5554997  85.5459988 105.8260012   6.6564997  86.5939988
 104.9760012   4.7684997  86.5819988 104.3350012   5.2704997  87.3369988
 105.2640012   3.7504997  86.9219988 104.3920012   4.6914997  85.1699988
 104.3850012   5.6164997  84.5549988 103.3310012   4.4064997  85.3319988
 105.1320012   3.7394997  84.2969988 105.2980012   2.9194997  85.0279988
 106.1570012   4.0674997  84.0209988 104.4720012   3.1004997  83.0789988
 105.1490012   2.4904997  82.4429988 104.0830012   3.8604997  82.3679988
 103.2260012   2.1774997  83.4099988 102.5690012   2.6134997  84.1929988
 103.5520012   1.2234997  83.8759988 102.4350012   1.7914997  82.1569988
 101.6620012   1.0224997  82.3669988 103.0580012   1.4474997  81.3029988
 101.9140012   2.7244997  81.8529988  18.4630012  22.0434997  83.7569988
  17.4510012  21.6944997  83.4589988  18.4410012  23.1494997  83.8639988
  18.5620012  21.5784997  84.7609988  19.5590012  21.4854997  82.8789988
  19.3560012  20.4394997  82.5659988  19.4360012  22.0854997  81.9519988
  20.9810012  21.5054997  83.3959988  21.5440012  20.9534997  82.6129988
  21.2220012  22.5814997  83.2579988  21.3360012  20.8884997  84.7449988
  22.4290012  20.8944997  84.9419988  20.9760012  21.5564997  85.5559988
  20.7340012  19.5664997  85.1349988  19.6250012  19.5324997  85.0739988
  21.0220012  18.7884997  84.3959988  21.0300012  19.0584997  86.6129988
  22.1330012  18.9274997  86.6389988  20.7440012  19.9294997  87.2399988
  20.2810012  17.7584997  87.0039988  19.2610012  17.9384997  86.6039988
  20.6910012  16.8654997  86.4859988  20.2320012  17.5334997  88.4769988
  21.1950012  17.6684997  89.0149988  19.5160012  18.2424997  88.9429988
  19.8380012  16.0874997  88.8279988  18.7640012  15.9354997  88.5889988
  20.4580012  15.4024997  88.2099988  20.0960012  15.7354997  90.3559988
  19.9820012  14.6444997  90.5299988  21.1340012  16.1164997  90.4619988
  19.3300012  16.5924997  91.3069988  19.5930012  17.6394997  91.0429988
  18.2590012  16.4144997  91.0689988  19.7150012  16.4274997  92.7589988
  18.8550012  16.7554997  93.3809988  19.7640012  15.3274997  92.9109988
  21.0280012  17.0224997  93.2819988  21.7340012  16.9714997  92.4259988
  20.9060012  18.0954997  93.5449988  21.7560012  16.2754997  94.4099988
  21.2110012  16.4214997  95.3669988  21.8810012  15.1884997  94.2179988
  23.1840012  16.8854997  94.5819988  23.7260012  16.3584997  95.3969988
  23.8140012  17.0224997  93.6779988  23.1200012  18.2874997  95.2369988
  23.3550012  19.2954997  94.5849988  22.6700012  18.2134997  96.5699988
  22.5610012  19.5434997  97.2059988  23.3260012  19.6194997  98.0079988
  22.5930012  20.4024997  96.5009988  21.2770012  19.7404997  98.0039988
  21.3500012  20.8014997  98.3269988  21.1960012  18.7494997  99.2059988
  21.4730012  17.6904997  99.0179988  21.8310012  19.1564997 100.0219988
  19.8620012  18.9044997  99.6389988  19.0550012  17.5604997 100.0369988
  18.0550012  18.0824997 101.0889988  17.1900012  19.1844997 100.8049988
  16.9720012  19.4194997  99.7409988  16.1860012  19.0354997 101.2559988
  17.8640012  20.4534997 101.4499988  18.8400012  20.6044997 101.0119988
  17.3280012  21.3284997 101.1139988  18.0010012  20.4284997 102.9779988
  16.7140012  20.4774997 103.7249988  16.0430012  19.6474997 103.5599988
  16.9080012  20.4944997 104.7869988  16.2550012  21.4274997 103.4959988
  18.9310012  19.3244997 103.5959988  18.9910012  19.4654997 104.6649988
  18.6200012  18.3784997 103.1779988  19.8690012  19.5764997 103.1239988
  18.6890012  21.7884997 103.2369988  18.0160012  22.5964997 102.9899988
  19.5340012  21.9154997 102.5759988  18.8830012  21.9694997 104.2839988
  18.3070012  17.0044997  98.8779988  19.9500012  16.6254997 100.7469988
  20.2810012  19.5234997  97.0479988  19.1890012  20.3684997  97.0779988
  18.9610012  21.1234997  97.9889988  18.4300012  20.3264997  95.7539988
  17.3630012  20.5744997  95.9359988  18.4180012  19.2914997  95.3499988
  19.0530012  21.2104997  94.6969988  20.1530012  21.0564997  94.7139988
  18.7210012  22.2644997  94.8089988  18.7780012  20.6884997  93.2419988
  17.6980012  20.7044997  92.9799988  19.0920012  19.6244997  93.1889988
  19.4890012  21.4324997  92.0949988  20.5680012  21.1694997  92.1349988
  19.4460012  22.5344997  92.2339988  18.9420012  21.1584997  90.6629988
  18.8990012  20.0514997  90.5799988  19.6950012  21.4684997  89.9079988
  17.6080012  21.7214997  90.3239988  17.6790012  22.8294997  90.3409988
  16.7490012  21.4994997  90.9939988  17.3080012  21.2174997  88.8909988
  17.2940012  20.1104997  88.9829988  18.1300012  21.4734997  88.1889988
  15.9340012  21.6764997  88.3289988  15.8940012  22.7734997  88.2529988
  14.7950012  20.8804997  88.2139988  13.8630012  21.4214997  87.9909988
  14.5900012  19.4254997  88.5939988  13.9470012  19.4774997  89.4979988
  15.5270012  18.9484997  88.9519988  14.0440012  18.6744997  87.3419988
  13.0850012  19.0394997  86.9159988  13.6970012  17.7224997  87.7969988
  15.0640012  18.4014997  86.1639988  15.7200012  17.5654997  86.4879988
  15.7820012  19.2354997  86.0129988  14.4150012  18.0214997  84.8419988
  13.9330012  18.9244997  84.4119988  13.6100012  17.2864997  85.0589988
  15.5470012  17.6644997  83.9169988  15.1280012  17.3464997  82.9389988
  16.0200012  16.7164997  84.2519988  16.5560012  18.7574997  83.5449988
  17.2580012  18.9684997  84.3799988  15.9880012  19.6904997  83.3419988
  17.4260012  18.3314997  82.3009988  18.0440012  19.1784997  81.9339988
  16.6630012  17.8734997  81.6359988  18.4330012  17.2414997  82.6069988
  18.8550012  16.8824997  81.6439988  17.9790012  16.4174997  83.1979988
  19.2570012  17.5784997  83.2719988 134.5750012  18.6964997  79.9499988
 135.5710012  18.2484997  80.1529988 134.6860012  19.3274997  79.0419988
 133.7870012  17.9414997  79.7419988 134.2310012  19.4454997  81.2529988
 134.3280012  18.7354997  82.1019988 134.9730012  20.2664997  81.3519988
 132.8200012  20.0444997  81.4419988 132.9150012  20.8774997  82.1719988
 132.4530012  20.2954997  80.4239988 131.8830012  18.9894997  81.9429988
 132.1050012  18.1174997  81.2919988 132.2270012  18.6574997  82.9459988
 130.3990012  19.2664997  81.9939988 130.1040012  19.5774997  80.9689988
 129.7890012  18.4054997  82.3389988 130.0600012  20.2854997  83.1529988
 130.3400012  21.3014997  82.8009988 128.9870012  20.5624997  83.2249988
 130.6990012  20.1154997  84.5159988 131.7900012  20.1584997  84.3129988
 130.4790012  21.0524997  85.0699988 130.2220012  18.9014997  85.3919988
 129.1240012  18.8894997  85.5599988 130.5190012  17.9704997  84.8639988
 130.8890012  18.7434997  86.7559988 130.4640012  17.8254997  87.2149988
 131.9490012  18.4854997  86.5439988 130.6300012  19.8394997  87.7329988
 131.1120012  20.7904997  87.4219988 129.5370012  20.0124997  87.8289988
 131.1130012  19.4844997  89.2079988 130.6740012  18.5534997  89.6259988
 132.2170012  19.3624997  89.2289988 130.7720012  20.5834997  90.2819988
 131.4830012  21.4164997  90.0929988 129.7870012  21.0504997  90.0669988
 131.0370012  20.1374997  91.7199988 131.8440012  19.3744997  91.6759988
 131.3610012  20.9264997  92.4319988 129.9270012  19.2554997  92.2869988
 129.0280012  19.8984997  92.3959988 129.7160012  18.5534997  91.4529988
 130.1650012  18.3974997  93.4909988 129.3340012  17.6674997  93.5949988
 131.0990012  17.8184997  93.3269988 130.3280012  19.3484997  94.6409988
 130.0870012  20.5354997  94.6069988 130.7770012  18.7224997  95.6459988
 131.0580012  19.4384997  96.8449988 132.1520012  19.3004997  96.9799988
 130.9390012  20.5394997  96.7549988 130.3710012  18.7484997  98.0449988
 129.2720012  18.8774997  97.9429988 130.8390012  19.4134997  99.3689988
 131.9180012  19.1534997  99.4249988 130.7470012  20.5204997  99.3239988
 130.1180012  18.9584997 100.4769988 130.8100012  19.2584997 101.9109988
 131.8650012  18.0824997 102.1109988 131.5390012  16.7454997 101.5509988
 130.6830012  16.3544997 102.1399988 131.3590012  16.7554997 100.4549988
 132.6840012  15.8044997 101.8739988 133.0010012  15.9264997 102.8989988
 132.3660012  14.7744997 101.7959988 133.9600012  15.9914997 101.0319988
 133.7150012  15.4964997  99.6489988 133.2800012  14.5094997  99.7129988
 132.9950012  16.1184997  99.1379988 134.5970012  15.4994997  99.0259988
 134.7270012  17.2944997 101.1319988 135.6050012  17.4374997 100.5189988
 134.0320012  17.9924997 100.6899988 134.8950012  17.4874997 102.1809988
 135.0080012  14.9574997 101.5919988 134.6840012  13.9394997 101.4359988
 135.0680012  15.1104997 102.6589988 135.9400012  15.0454997 101.0539988
 131.5210012  20.5234997 101.9309988 129.7520012  19.0054997 102.9219988
 130.7650012  17.2884997  98.0869988 130.0730012  16.3834997  97.4219988
 128.9220012  16.5164997  97.0269988 130.9590012  15.1844997  97.0549988
 130.4690012  14.2634997  97.4389988 131.9620012  15.1264997  97.5299988
 131.1170012  15.0034997  95.5549988 131.8220012  15.7634997  95.1549988
 130.1520012  15.1644997  95.0279988 131.6840012  13.5764997  95.1409988
 130.9930012  12.7854997  95.5029988 132.6540012  13.3874997  95.6489988
 131.8620012  13.3574997  93.5659988 130.8290012  13.3314997  93.1589988
 132.4040012  12.4194997  93.3189988 132.5430012  14.5044997  92.8539988
 133.3770012  14.8214997  93.5159988 131.8070012  15.3174997  92.6709988
 133.1580012  14.1544997  91.4609988 133.8220012  13.2744997  91.6029988
 133.6850012  15.0274997  91.0209988 132.1490012  13.6174997  90.3729988
 131.6870012  12.7194997  90.8339988 132.7470012  13.3744997  89.4679988
 131.0080012  14.5554997  89.9359988 130.0440012  14.3374997  90.4189988
 130.9040012  15.5194997  88.8959988 130.0130012  16.1104997  88.6369988
 132.0930012  15.7544997  88.0269988 133.0230012  15.2094997  88.2979988
 132.3310012  16.8394997  88.0519988 131.7840012  15.2994997  86.6189988
 130.9710012  15.9054997  86.1649988 131.3490012  14.2824997  86.7299988
 133.0700012  15.2354997  85.7769988 133.7250012  14.5424997  86.3459988
 133.6960012  16.1524997  85.8229988 132.7390012  14.7354997  84.3339988
 132.1560012  13.7964997  84.4439988 133.6360012  14.3934997  83.7749988
 131.9940012  15.6724997  83.3899988 132.6280012  16.5734997  83.2429988
 130.9550012  15.8674997  83.7319988 131.6650012  15.0034997  82.0189988
 132.5590012  14.4194997  81.7129988 131.6840012  15.8334997  81.2809988
 130.4050012  14.1364997  81.8759988 129.4500012  14.7034997  81.8939988
 130.4530012  13.4634997  82.7589988 130.3500012  13.3784997  80.5639988
 129.2720012  13.3714997  80.2979988 130.7920012  12.3634997  80.6519988
 130.9150012  13.9474997  79.7949988  33.6110012   1.6154997  84.6859988
  32.6750012   2.0164997  85.1299988  33.4950012   1.4014997  83.6009988
  34.5200012   2.2194997  84.8909988  33.9030012   0.2414997  85.3249988
  33.0020012  -0.3825003  85.1459988  34.6710012  -0.2605003  84.6979988
  34.3790012   0.1624997  86.7529988  33.5820012   0.6364997  87.3659988
  34.3500012  -0.9185003  87.0069988  35.7220012   0.6634997  87.0729988
  36.5320012  -0.0375003  86.7779988  35.9500012   1.4184997  86.2899988
  35.9990012   1.1944997  88.5269988  35.1350012   1.8344997  88.8049988
  35.9200012   0.3504997  89.2439988  37.2490012   1.8744997  88.8389988
  37.3170012   2.3004997  89.8629988  38.1450012   1.2354997  88.6859988
  37.5330012   3.1094997  87.8999988  38.5610012   3.3534997  88.2419988
  37.6380012   2.7814997  86.8439988  36.3990012   4.0774997  87.8879988
  36.5310012   4.9214997  87.1769988  35.5200012   3.4754997  87.5759988
  35.9160012   4.7554997  89.2369988  34.9360012   5.2624997  89.1119988
  35.8050012   3.9804997  90.0259988  36.9750012   5.7794997  89.8199988
  37.7990012   5.2614997  90.3559988  37.3390012   6.4774997  89.0359988
  36.4200012   6.6084997  91.0479988  36.9620012   7.5274997  91.3569988
  35.4120012   6.9214997  90.7009988  36.0670012   5.7304997  92.2959988
  35.5230012   6.2854997  93.0899988  35.3520012   4.9114997  92.0659988
  37.3040012   5.1864997  92.9949988  37.6930012   4.3194997  92.4189988
  38.1340012   5.9224997  93.0609988  37.0210012   4.5504997  94.3609988
  36.0830012   3.9904997  94.1619988  37.8200012   3.8694997  94.7259988
  36.7930012   5.6814997  95.3909988  37.8180012   6.0834997  95.5399988
  36.1450012   6.4824997  94.9749988  36.3900012   5.1524997  96.7309988
  36.7170012   4.0394997  97.0739988  35.7380012   6.0224997  97.4479988
  34.8550012   5.6584997  98.5319988  35.3710012   4.8444997  99.0849988
  34.8270012   6.5054997  99.2499988  33.4440012   5.1654997  98.1359988
  32.9800012   5.8904997  97.4339988  32.7140012   4.9934997  99.4789988
  32.8910012   5.8264997 100.1929988  31.6190012   4.9814997  99.2919988
  33.0330012   3.7234997 100.1389988  32.4010012   3.4854997 101.6259988
  32.7050012   1.8944997 101.7949988  33.0470012   1.0384997 100.7139988
  32.6630012   0.0444997 101.0269988  32.4860012   1.3074997  99.7939988
  34.5920012   0.9854997 100.4179988  34.7980012   0.0854997  99.8579988
  34.9000012   1.8204997  99.8059988  35.6090012   1.0294997 101.5159988
  35.1120012   0.0954997 102.5899988  35.9540012  -0.1585003 103.2159988
  34.2980012   0.4964997 103.1759988  34.7050012  -0.7345003 102.0309988
  36.9900012   0.6194997 101.0899988  36.9240012  -0.3735003 100.6709988
  37.4110012   1.3304997 100.3939988  37.5560012   0.7044997 102.0059988
  35.7030012   2.4364997 102.1509988  36.0990012   3.1104997 101.4059988
  36.2620012   2.4054997 103.0739988  34.7020012   2.7654997 102.3839988
  33.1980012   4.1834997 102.5929988  30.9130012   3.7074997 101.5489988
  33.5730012   3.8624997  97.5389988  32.5910012   3.5814997  96.5839988
  31.7150012   4.3184997  96.2589988  32.6560012   2.0884997  96.2029988
  31.9470012   1.4004997  96.7109988  33.7220012   1.7924997  96.0939988
  32.1740012   2.1134997  94.7749988  32.8520012   2.7814997  94.2009988
  31.1380012   2.5104997  94.7259988  32.3150012   0.8384997  93.9899988
  32.1530012  -0.0285003  94.6649988  33.3890012   0.6244997  93.8039988
  31.7210012   0.6354997  92.5739988  30.6400012   0.8264997  92.7409988
  31.9000012  -0.3525003  92.0969988  32.2790012   1.5894997  91.4839988
  32.1730012   1.1734997  90.4589988  33.3520012   1.8144997  91.6659988
  31.3870012   2.8774997  91.3949988  31.3790012   3.2724997  92.4329988
  30.3450012   2.5154997  91.2599988  31.6820012   3.8914997  90.3279988
  32.4700012   4.5804997  90.6999988  30.8810012   4.6494997  90.2009988
  32.0050012   3.2244997  89.0009988  33.0770012   3.0674997  88.8119988
  31.2280012   3.0424997  87.9549988  31.6330012   2.6734997  87.0009988
  29.7550012   3.4684997  87.8619988  29.3380012   3.9284997  88.7839988
  29.2270012   2.5664997  87.4859988  29.4550012   4.5934997  86.7809988
  29.8430012   5.5434997  87.2069988  28.3740012   4.8004997  86.6329988
  30.1550012   4.3744997  85.4069988  29.7300012   3.4124997  85.0479988
  31.2350012   4.1484997  85.5409988  30.1940012   5.5014997  84.2719988
  29.1750012   5.9134997  84.1089988  30.4840012   5.0914997  83.2809988
  31.0190012   6.6794997  84.6439988  30.5020012   7.0884997  85.5379988
  30.9390012   7.4974997  83.8959988  32.5450012   6.5514997  84.7679988
  32.7140012   5.9984997  85.7159988  32.9910012   7.5644997  84.8659988
  33.2540012   5.8254997  83.6459988  33.2590012   6.3934997  82.6909988
  32.6620012   4.8924997  83.5259988  34.7250012   5.4174997  83.8499988
  35.3780012   6.3094997  83.7479988  35.0260012   4.6394997  83.1159988
  34.9230012   4.9194997  84.8229988  11.1690012 145.1444997  83.1709988
  10.5980012 145.0594997  82.2209988  12.2470012 145.1874997  82.9089988
  10.9450012 146.1424997  83.6039988  11.0170012 143.8584997  84.0379988
   9.9610012 143.7274997  84.3579988  11.3080012 142.9724997  83.4339988
  11.8640012 143.9644997  85.3089988  12.8700012 144.0844997  84.8509988
  11.6170012 144.8624997  85.9139988  11.9250012 142.6264997  86.0919988
  10.9890012 142.4684997  86.6679988  11.9070012 141.7854997  85.3669988
  13.2110012 142.4774997  86.8359988  13.9610012 142.0824997  86.1179988
  13.4230012 143.4514997  87.3279988  13.1560012 141.3124997  87.9169988
  12.4920012 140.5664997  87.4299988  14.1840012 140.9384997  88.1079988
  12.6510012 141.8864997  89.2359988  13.3430012 142.7044997  89.5279988
  11.6890012 142.4304997  89.1169988  12.6210012 140.8384997  90.3939988
  11.8530012 140.0364997  90.3729988  13.6250012 140.3694997  90.4709988
  12.4300012 141.4774997  91.8489988  13.1080012 142.3404997  92.0229988
  11.3640012 141.7894997  91.8799988  12.5320012 140.4614997  92.9769988
  12.5090012 141.0774997  93.9019988  11.6780012 139.7544997  93.0439988
  13.7850012 139.5544997  92.9629988  13.8030012 138.8994997  92.0659988
  14.6720012 140.2214997  93.0309988  13.8270012 138.6934997  94.2589988
  12.8380012 138.1964997  94.3579988  14.5420012 137.8464997  94.1729988
  14.2070012 139.4834997  95.5709988  13.4700012 140.3034997  95.7079988
  14.0250012 138.7674997  96.3999988  15.6820012 139.9544997  95.8359988
  16.4570012 139.1584997  95.8429988  16.0490012 140.5034997  94.9419988
  16.0240012 140.6754997  97.1939988  15.6430012 140.1104997  98.0719988
  17.1250012 140.6464997  97.3399988  15.4820012 142.1264997  97.2339988
  15.2040012 142.7274997  96.2509988  15.3150012 142.6024997  98.5539988
  14.6550012 143.9104997  98.7189988  15.0100012 144.3914997  99.6559988
  14.9480012 144.6104997  97.9069988  13.0720012 143.7984997  98.7999988
  12.6970012 144.7384997  99.2589988  12.7140012 142.6514997  99.7489988
  13.2610012 142.7874997 100.7059988  11.6220012 142.7584997  99.9219988
  12.9970012 141.4324997  99.1289988  12.3970012 140.0624997  99.7179988
  11.7230012 140.6074997 100.9859988  10.4080012 140.2044997 101.3109988
   9.6160012 140.6584997 100.6769988  10.2500012 139.1074997 101.2469988
  10.1590012 140.5944997 102.7619988   9.1640012 140.2574997 103.0149988
  10.8970012 140.0864997 103.3649988  10.2570012 142.0744997 103.1869988
  11.6320012 142.5074997 103.0599988  12.2270012 141.8794997 103.7059988
  11.9930012 142.3464997 102.0549988  11.7000012 143.5694997 103.2419988
   9.3040012 142.8714997 102.3769988   9.4990012 142.6804997 101.3319988
   8.2830012 142.6124997 102.6159988   9.4670012 143.9244997 102.5549988
   9.8920012 142.1514997 104.6709988  10.0130012 143.1394997 105.0899988
  10.4430012 141.4534997 105.2839988   8.8600012 141.8534997 104.7819988
  11.3350012 139.4484997  98.8629988  13.4350012 139.0734997 100.1169988
  12.5630012 143.5534997  97.4919988  11.2000012 143.6534997  97.3569988
  10.4710012 144.0804997  98.1759988  10.8300012 143.2214997  95.9569988
  11.2580012 142.2274997  95.7099988  11.3120012 143.8664997  95.1919988
   9.3040012 143.0554997  95.8009988   8.7700012 144.0294997  95.7709988
   8.7480012 142.4394997  96.5389988   8.8040012 142.4404997  94.4339988
   9.4270012 142.7524997  93.5689988   7.7250012 142.6604997  94.2909988
   8.8800012 140.8864997  94.3959988   8.2230012 140.4774997  95.1939988
   9.8190012 140.5854997  94.9079988   8.6560012 140.3124997  92.9769988
   9.4040012 140.7204997  92.2639988   7.6330012 140.7204997  92.8349988
   8.5120012 138.7864997  92.9089988   7.8030012 138.4704997  93.7039988
   9.5450012 138.4214997  93.0909988   7.9090012 138.2624997  91.6479988
   6.8610012 138.6074997  91.5099988   7.9440012 137.1534997  91.7059988
   8.6960012 138.4824997  90.3579988   9.7370012 138.3184997  90.6719988
   8.2700012 138.8754997  89.1069988   9.0680012 138.9184997  88.3509988
   6.9070012 139.2034997  88.5809988   6.1500012 139.2894997  89.3899988
   6.5110012 138.3984997  87.9259988   6.8650012 140.6244997  87.8879988
   7.0020012 141.3744997  88.6969988   5.7940012 140.6834997  87.6019988
   7.7880012 140.8014997  86.6639988   8.8880012 140.7904997  86.8199988
   7.5740012 141.8104997  86.2509988   7.4020012 139.8304997  85.5249988
   6.4410012 140.1774997  85.0889988   7.2230012 138.8014997  85.9019988
   8.4040012 139.7454997  84.3549988   8.6440012 140.8244997  84.2459988
   7.9910012 139.3794997  83.3899988   9.8370012 139.2474997  84.6679988
   9.7250012 138.2034997  85.0309988  10.3990012 139.7074997  85.5079988
  10.7980012 139.0524997  83.4849988  11.3080012 139.9864997  83.1659988
  10.2990012 138.5694997  82.6189988  12.0010012 138.1324997  83.8959988
  12.8290012 138.6524997  84.4229988  12.4480012 137.8134997  82.9299988
  11.6240012 137.2444997  84.4469988   2.4210012 133.7374997  82.6259988
   2.8070012 133.0654997  83.4209988   2.8520012 133.5154997  81.6259988
   1.3100012 133.7264997  82.6329988   2.8250012 135.2154997  82.9729988
   3.9310012 135.2534997  82.8739988   2.3850012 135.9154997  82.2319988
   2.2790012 135.6514997  84.2879988   1.2090012 135.4654997  84.5199988
   2.9740012 135.2734997  85.0689988   2.2210012 137.2034997  84.3579988
   3.2510012 137.5954997  84.2159988   1.5520012 137.6294997  83.5799988
   1.7030012 137.7824997  85.6639988   1.6410012 138.8674997  85.4309988
   0.7120012 137.3094997  85.8329988   2.5320012 137.6044997  86.9439988
   2.7080012 136.5294997  87.1589988   3.4860012 138.0984997  86.6609988
   2.1730012 138.4224997  88.1939988   2.1910012 139.5204997  88.0219988
   1.2520012 138.0994997  88.7229988   3.3160012 138.3844997  89.2629988
   3.0200012 139.1364997  90.0259988   3.4030012 137.3274997  89.5929988
   4.7340012 138.8434997  88.8539988   5.0480012 138.5774997  87.8219988
   4.8170012 139.9474997  88.9439988   5.8730012 138.1934997  89.6309988
   5.8400012 137.1544997  89.2389988   6.8270012 138.5434997  89.1809988
   5.8670012 138.2694997  91.1579988   5.5850012 139.3204997  91.3859988
   4.9460012 137.7724997  91.5299988   7.2380012 138.0754997  92.0209988
   8.0510012 138.7544997  91.6859988   7.1380012 138.1764997  93.1229988
   7.8560012 136.7534997  91.8349988   8.0490012 136.4824997  90.7749988
   8.7910012 136.6454997  92.4239988   7.0280012 135.5154997  92.2349988
   6.0320012 135.6634997  91.7659988   7.4670012 134.5894997  91.8059988
   6.9620012 135.3164997  93.7759988   6.7420012 134.2404997  93.9409988
   7.9470012 135.4674997  94.2669988   5.7840012 136.1294997  94.3329988
   4.6020012 135.8874997  94.0829988   6.1710012 137.0174997  95.2399988
   5.1260012 137.4694997  96.1569988   5.3770012 138.5044997  96.4729988
   4.0870012 137.5144997  95.7649988   4.8580012 136.6574997  97.4589988
   4.2580012 137.3124997  98.1259988   6.1310012 136.2814997  98.2729988
   6.8540012 136.0024997  97.4769988   6.5250012 137.2204997  98.7169988
   5.9130012 135.1994997  99.1359988   5.7350012 135.3574997 100.6929988
   4.3170012 135.9884997 100.8109988   3.2340012 135.1824997 101.3389988
   2.9760012 134.3014997 100.7139988   3.5320012 134.7514997 102.3179988
   1.8720012 135.9664997 101.5149988   1.3850012 136.1854997 100.5759988
   1.1630012 135.3634997 102.0629988   1.7960012 137.2054997 102.3769988
   2.6620012 138.2544997 101.6739988   2.6740012 139.0584997 102.3949988
   3.6130012 137.7744997 101.4959988   2.1780012 138.5754997 100.7629988
   0.4060012 137.6824997 102.4019988   0.4250012 138.6334997 102.9139988
   0.0920012 137.6674997 101.3689988  -0.1709988 136.9744997 102.9779988
   2.3880012 137.0474997 103.7339988   3.2900012 136.4714997 103.5829988
   1.7880012 136.4744997 104.4259988   2.5650012 138.0534997 104.0849988
   5.8290012 134.0134997 101.2429988   6.7450012 136.2944997 101.2569988
   4.2150012 135.4644997  97.0309988   2.8500012 135.4644997  97.1259988
   2.1370012 136.3864997  97.4559988   2.3160012 134.0124997  96.8719988
   2.2120012 133.5004997  97.8519988   3.1390012 133.5004997  96.3289988
   0.9670012 134.0334997  96.1429988   1.0920012 134.8424997  95.3919988
   0.1590012 134.4094997  96.8069988   0.5800012 132.6884997  95.5449988
  -0.2189988 132.9394997  94.8149988   0.1200012 131.9674997  96.2539988
   1.6020012 131.9364997  94.6129988   1.0270012 131.1104997  94.1409988
   2.3220012 131.3814997  95.2519988   2.3750012 132.8154997  93.6239988
   2.8580012 133.6284997  94.2059988   1.5960012 133.2634997  92.9709988
   3.3700012 131.9964997  92.7609988   2.9430012 131.0814997  92.2969988
   4.1360012 131.5884997  93.4539988   4.1490012 132.7914997  91.6229988
   4.9210012 132.1534997  91.1409988   4.8250012 133.5944997  91.9869988
   3.2870012 133.4254997  90.5749988   2.5730012 134.1934997  90.9079988
   3.4040012 133.1814997  89.2539988   2.8050012 133.8624997  88.6309988
   4.2970012 132.2914997  88.4559988   3.6730012 131.9374997  87.6079988
   4.7250012 131.4054997  88.9719988   5.4290012 133.1294997  87.8279988
   6.0300012 132.4314997  87.2079988   6.0630012 133.4884997  88.6669988
   4.8050012 134.2054997  86.9369988   4.4360012 134.9584997  87.6659988
   3.9790012 133.8564997  86.2799988   5.8800012 135.0664997  86.2709988
   6.7150012 135.1104997  87.0029988   5.5790012 136.1304997  86.1579988
   6.2060012 134.6434997  84.8769988   5.2870012 134.3604997  84.3209988
   6.9430012 133.8204997  85.0019988   6.8190012 135.6994997  83.9709988
   7.5210012 136.2704997  84.6159988   5.9630012 136.3404997  83.6709988
   7.5060012 135.2804997  82.6579988   8.2460012 134.4864997  82.8929988
   7.9610012 136.1844997  82.1979988   6.5960012 134.8184997  81.5449988
   6.0200012 133.9434997  81.9149988   7.0970012 134.4404997  80.6279988
   5.8430012 135.6024997  81.3169988  28.2420012   8.3294997  81.7309988
  27.8300012   7.9754997  80.7619988  29.2780012   8.1014997  82.0619988
  28.0230012   9.4144997  81.6299988  27.3240012   7.8914997  82.8559988
  27.7380012   7.0064997  83.3829988  27.3430012   8.6614997  83.6569988
  25.8800012   7.6994997  82.5009988  25.4660012   8.7224997  82.3719988
  25.8140012   7.0994997  81.5679988  25.0190012   6.9744997  83.6429988
  24.0990012   6.5454997  83.1919988  25.5650012   6.0404997  83.8929988
  24.7170012   7.8124997  84.9519988  25.6770012   8.1444997  85.4019988
  24.0950012   8.6834997  84.6549988  23.8400012   6.9914997  85.9379988
  22.8060012   6.9384997  85.5369988  24.1030012   5.9144997  85.8619988
  23.8020012   7.5454997  87.3079988  24.8750012   7.6964997  87.5549988
  23.2740012   8.5194997  87.3819988  23.1390012   6.6384997  88.3689988
  22.0280012   6.6474997  88.3269988  23.4180012   5.5834997  88.1629988
  23.6090012   6.9974997  89.8209988  24.7120012   6.8724997  89.8399988
  23.3890012   8.0774997  89.9619988  22.8200012   6.2544997  90.9199988
  21.7250012   6.4324997  90.9709988  22.8950012   5.1774997  90.6569988
  23.4490012   6.3344997  92.3699988  24.5590012   6.3554997  92.3439988
  23.2420012   7.3924997  92.6389988  23.0760012   5.3184997  93.5229988
  21.9730012   5.3674997  93.6489988  23.4660012   4.2884997  93.3789988
  23.7070012   5.7754997  94.8079988  23.4820012   6.8364997  95.0459988
  23.1750012   5.2814997  95.6499988  25.2430012   5.5634997  94.9059988
  25.7100012   6.1304997  94.0729988  25.5880012   5.9634997  95.8839988
  25.6290012   4.0484997  94.7149988  24.9560012   3.3214997  95.2179988
  25.6300012   3.8374997  93.6239988  27.0340012   3.6664997  95.2479988
  27.9250012   3.0974997  94.6599988  27.1250012   4.0854997  96.5609988
  28.3450012   3.8754997  97.2649988  28.2550012   2.9704997  97.9039988
  29.2000012   3.7624997  96.5649988  28.6120012   5.0934997  98.1729988
  29.6140012   5.0764997  98.6509988  27.4890012   5.1354997  99.3229988
  27.4700012   4.1424997  99.8199988  27.8730012   5.7854997 100.1379988
  26.1660012   5.3024997  98.8049988  25.0240012   5.3534997  99.9509988
  25.6340012   6.1494997 101.2479988  25.6400012   7.5664997 101.3119988
  25.3700012   8.0824997 100.3659988  24.8370012   7.8414997 102.0289988
  27.0800012   8.0034997 101.6279988  27.8350012   7.6234997 100.9549988
  27.1020012   9.0824997 101.6509988  27.4660012   7.5954997 103.0399988
  26.4300012   8.0724997 104.0089988  25.6000012   7.3844997 103.9459988
  26.8470012   7.8994997 104.9899988  26.1710012   9.1114997 103.8679988
  27.6660012   6.1224997 103.2019988  28.6480012   5.7694997 102.9259988
  27.4890012   5.8534997 104.2329988  27.0160012   5.5544997 102.5529988
  28.7240012   8.2664997 103.2499988  28.6110012   9.3334997 103.1289988
  29.3820012   7.9244997 102.4649988  29.1800012   8.0734997 104.2089988
  23.9200012   6.1784997  99.3429988  24.6490012   3.9674997 100.3939988
  28.5460012   6.2684997  97.3509988  29.6040012   6.6644997  96.6269988
  30.7250012   6.2564997  96.8199988  29.3030012   7.7154997  95.5619988
  28.9030012   7.1664997  94.6839988  30.2170012   8.2974997  95.3149988
  28.1730012   8.5954997  96.1149988  28.5330012   9.1014997  97.0369988
  27.2780012   8.0044997  96.4009988  27.7880012   9.6314997  95.0829988
  28.7130012   9.7674997  94.4829988  27.5420012  10.5414997  95.6709988
  26.6990012   9.2134997  94.1639988  25.6860012   9.4004997  94.5809988
  26.7820012   8.1124997  94.0379988  26.7330012   9.6504997  92.6669988
  26.7150012  10.7594997  92.5999988  25.8920012   9.2524997  92.0609988
  27.9700012   8.9544997  91.9949988  28.8220012   8.8254997  92.6959988
  28.4740012   9.5794997  91.2279988  27.7200012   7.5574997  91.3659988
  27.3660012   7.8114997  90.3439988  26.8400012   6.9874997  91.7339988
  28.8530012   6.5804997  91.3429988  29.8970012   6.8934997  91.4979988
  28.7000012   5.2694997  91.2849988  29.6390012   4.6964997  91.2779988
  27.4140012   4.5234997  91.2709988  26.7580012   4.8044997  92.1229988
  27.6700012   3.4434997  91.2889988  26.5980012   4.7884997  89.9939988
  26.6210012   5.8614997  89.7069988  25.5390012   4.4534997  90.0159988
  27.0900012   4.0114997  88.7869988  26.9220012   2.9354997  89.0039988
  28.1680012   4.2734997  88.7199988  26.4310012   4.4174997  87.5109988
  26.7050012   5.4394997  87.1709988  25.3280012   4.5384997  87.5599988
  26.6080012   3.4744997  86.2899988  25.9350012   3.8104997  85.4719988
  26.2230012   2.5294997  86.7299988  28.0470012   3.2344997  85.8119988
  28.5950012   2.4504997  86.3769988  28.6520012   4.1664997  85.8049988
  28.0500012   2.8004997  84.3549988  27.6160012   3.7294997  83.9269988
  27.4570012   1.9054997  84.0659988  29.4140012   2.6544997  83.6139988
  29.9840012   1.7604997  83.9479988  29.9460012   3.5814997  83.9159988
  29.2920012   2.6754997  82.5099988 101.1910012 142.0284997  84.4439988
 101.6920012 141.0394997  84.3789988 100.6450012 142.3174997  83.5199988
 100.4070012 142.0064997  85.2309988 102.1230012 143.1644997  84.8039988
 102.4820012 143.0614997  85.8499988 103.0540012 143.0554997  84.2069988
 101.5530012 144.5904997  84.7419988 101.5030012 144.9984997  83.7099988
 100.4940012 144.5094997  85.0669988 102.2700012 145.6454997  85.5939988
 103.3620012 145.5704997  85.4059988 101.9080012 146.6874997  85.4619988
 102.1960012 145.3204997  87.1579988 101.1760012 144.9704997  87.4259988
 102.8690012 144.4774997  87.4239988 102.6170012 146.5114997  88.1209988
 103.7250012 146.6014997  88.1079988 102.0400012 147.3604997  87.6959988
 102.0840012 146.3684997  89.5559988 100.9960012 146.1454997  89.6039988
 102.5570012 145.5444997  90.1309988 102.2730012 147.6734997  90.3809988
 101.8110012 148.4394997  89.7219988 101.6460012 147.7814997  91.2919988
 103.7540012 148.1014997  90.6219988 104.2040012 148.2474997  89.6159988
 103.7870012 149.0674997  91.1699988 104.4840012 147.0474997  91.5369988
 104.7990012 146.1654997  90.9379988 105.4180012 147.5144997  91.9169988
 103.5710012 146.6524997  92.8159988 103.0340012 147.6004997  93.0359988
 102.7650012 146.0224997  92.3819988 104.2450012 146.1054997  94.0129988
 104.7910012 145.1524997  93.8499988 104.9280012 146.8254997  94.5119988
 103.1030012 145.8444997  95.0709988 102.1920012 145.3904997  94.6269988
 103.5020012 145.1794997  95.8669988 102.6750012 147.0944997  95.8769988
 103.4760012 147.5944997  96.4629988 102.0660012 147.8404997  95.3239988
 101.7300012 146.7144997  97.0329988 102.2710012 146.1724997  97.8379988
 101.4090012 147.6334997  97.5679988 100.4450012 145.9834997  96.5169988
  99.5940012 146.4434997  95.7949988 100.4670012 144.8344997  96.9869988
  99.3600012 143.9644997  96.6059988  98.3480012 144.3374997  96.8749988
  99.3560012 143.8714997  95.4989988  99.7050012 142.5264997  97.1029988
  99.0060012 141.8144997  96.6159988  99.6790012 142.4094997  98.6299988
  98.7590012 142.9034997  99.0079988  99.6500012 141.3324997  98.9009988
 100.8320012 143.0644997  99.2589988 102.2330012 142.4274997  99.7359988
 102.5060012 143.0774997 101.1919988 101.4700012 143.2034997 102.1339988
 100.6640012 142.4754997 101.9029988 101.7880012 142.9904997 103.1759988
 100.9050012 144.6694997 102.1949988 100.7560012 144.9624997 101.1659988
  99.8960012 144.8004997 102.5559988 101.7340012 145.7094997 103.0339988
 101.2890012 145.5404997 104.4709988 100.2300012 145.6804997 104.6309988
 101.6260012 144.5804997 104.8329988 101.8400012 146.2894997 105.0199988
 103.1720012 145.4654997 102.8569988 103.6580012 146.3634997 103.2089988
 103.5720012 144.5624997 103.2919988 103.3560012 145.2084997 101.8239988
 101.3060012 147.1034997 102.6419988 101.7100012 147.4344997 101.6969988
 101.5030012 147.8544997 103.3929988 100.2290012 147.0204997 102.6399988
 102.1350012 140.9684997  99.8039988 103.3150012 142.9284997  98.8569988
 101.0610012 142.2854997  96.6249988 101.2720012 141.5144997  95.6039988
 100.4770012 141.1054997  94.8249988 102.7540012 141.2614997  95.4329988
 102.9850012 140.1854997  95.5849988 103.2620012 141.8024997  96.2589988
 103.3920012 141.9624997  94.1529988 104.5020012 141.9744997  94.1929988
 103.1490012 143.0434997  94.2389988 103.0000012 141.3124997  92.8609988
 102.1120012 141.7984997  92.4049988 102.7640012 140.2734997  93.1759988
 104.0550012 141.3024997  91.7769988 104.9890012 140.7684997  92.0519988
 104.4080012 142.3194997  91.5039988 103.6870012 140.5854997  90.4519988
 103.2890012 139.5544997  90.5629988 104.6720012 140.4044997  89.9719988
 102.8090012 141.4234997  89.5179988 102.8330012 140.9884997  88.4959988
 103.0840012 142.4964997  89.4339988 101.2620012 141.4294997  89.6439988
 100.7970012 141.6284997  88.6549988 101.1180012 142.2824997  90.3409988
 100.7410012 140.1684997  90.2629988 100.9650012 139.9834997  91.3239988
 100.2260012 139.1304997  89.5739988  99.8200012 138.3754997  90.2629988
  99.9770012 138.9264997  88.1659988 100.3810012 137.9424997  87.8429988
 100.6220012 139.5794997  87.5399988  98.5910012 139.2364997  87.5729988
  98.2630012 140.2544997  87.8759988  97.8700012 138.5964997  88.1259988
  98.5600012 139.2894997  86.0329988  98.3420012 138.2694997  85.6509988
  99.5590012 139.5794997  85.6409988  97.5700012 140.3414997  85.5809988
  97.8500012 141.3444997  85.9679988  96.5380012 140.1994997  85.9659988
  97.7280012 140.6054997  84.0419988  97.5210012 139.6714997  83.4779988
  98.8040012 140.8374997  83.8869988  96.7440012 141.6904997  83.4199988
  96.9490012 142.7034997  83.8269988  95.7480012 141.3564997  83.7819988
  96.8140012 141.7034997  81.9009988  96.4420012 142.6924997  81.5569988
  96.0030012 141.0894997  81.4529988  98.1850012 141.3874997  81.2989988
  98.8740012 142.1564997  81.7079988  98.1360012 141.3644997  80.1889988
  98.5670012 140.3834997  81.5829988 138.5650012  20.9744997  80.8249988
 137.7150012  21.3624997  81.4269988 139.2270012  20.2324997  81.3209988
 138.1770012  20.4094997  79.9499988 139.6210012  22.0194997  80.4829988
 140.2910012  21.7074997  79.6529988 139.0960012  22.8594997  79.9789988
 140.4230012  22.5284997  81.6379988 140.6850012  23.5904997  81.4459988
 139.9420012  22.5474997  82.6389988 141.8350012  21.8844997  81.6729988
 141.6240012  20.8224997  81.9199988 142.3680012  21.9624997  80.7009988
 142.9320012  22.4834997  82.6779988 143.9200012  22.0274997  82.4519988
 143.0280012  23.5894997  82.6699988 142.4250012  22.2024997  84.1219988
 141.3360012  21.9874997  84.1629988 142.9980012  21.3864997  84.6119988
 142.5680012  23.4314997  85.1169988 141.7630012  24.1514997  84.8539988
 142.3120012  23.1074997  86.1479988 143.8790012  24.1434997  85.2229988
 144.5830012  23.4344997  85.7079988 144.2390012  24.3974997  84.2029988
 143.8030012  25.3574997  86.1909988 144.6840012  26.0274997  86.0989988
 142.8410012  25.8804997  85.9989988 143.8270012  25.0194997  87.6939988
 142.8840012  24.4684997  87.8989988 144.6020012  24.2554997  87.9199988
 143.8920012  26.1784997  88.7419988 144.7010012  26.8554997  88.3939988
 142.9730012  26.7984997  88.6599988 144.1440012  25.7004997  90.1889988
 144.9880012  24.9784997  90.2299988 144.4450012  26.5414997  90.8499988
 142.8690012  25.1114997  90.8919988 142.1730012  25.9504997  90.6779988
 142.4890012  24.1724997  90.4349988 143.0140012  24.8524997  92.4039988
 143.6290012  23.9304997  92.3269988 143.4430012  25.7814997  92.8359988
 141.6600012  24.5644997  93.0819988 141.0520012  25.4914997  93.1489988
 141.1490012  23.7784997  92.4869988 141.8530012  23.8144997  94.4439988
 142.9380012  23.5204997  94.9739988 140.6700012  23.4534997  94.8899988
 140.6410012  22.9924997  96.2269988 139.7060012  22.4384997  96.4549988
 141.4030012  22.2124997  96.4389988 140.6590012  24.1094997  97.2639988
 141.6650012  24.5634997  97.1329988 140.4820012  23.5804997  98.6789988
 139.6210012  22.8794997  98.6369988 141.2830012  22.8684997  98.9729988
 140.5640012  24.5464997  99.7089988 139.6020012  24.3204997 100.9629988
 139.8900012  22.8704997 101.4539988 138.8500012  22.1494997 102.1329988
 138.3690012  22.7174997 102.9579988 138.0300012  21.8474997 101.4479988
 139.4870012  20.8394997 102.7869988 140.3230012  21.0944997 103.4209988
 138.7660012  20.5054997 103.5179988 139.9280012  19.7494997 101.8719988
 140.9610012  20.4054997 100.9599988 141.6460012  20.9634997 101.5819988
 141.5180012  19.6374997 100.4439988 140.4960012  21.0684997 100.2449988
 140.5580012  18.6214997 102.5899988 140.6870012  17.7654997 101.9449988
 141.5550012  18.8584997 102.9289988 139.8410012  18.2374997 103.3009988
 138.8130012  19.1904997 101.0459988 138.0510012  18.7524997 101.6729988
 139.2400012  18.5084997 100.3249988 138.2730012  19.9164997 100.4559988
 140.0540012  25.2694997 102.0309988 138.1870012  24.5084997 100.6359988
 139.6830012  25.0774997  96.9699988 139.9850012  26.3534997  97.1059988
 140.8740012  26.8514997  97.7589988 138.8600012  27.1014997  96.3749988
 139.3400012  27.9674997  95.8699988 138.0680012  27.5034997  97.0419988
 138.1260012  26.2364997  95.3389988 137.5670012  25.4004997  95.8109988
 138.8980012  25.8444997  94.6439988 137.0890012  27.0644997  94.5219988
 137.7030012  27.8214997  93.9889988 136.4480012  27.6874997  95.1809988
 136.2840012  26.2314997  93.5879988 135.5970012  26.8544997  92.9769988
 135.6820012  25.5134997  94.1849988 137.0830012  25.4324997  92.5059988
 136.3350012  25.1464997  91.7359988 137.4280012  24.4964997  92.9949988
 138.2850012  26.1134997  91.9209988 138.8460012  25.3574997  91.3319988
 139.0010012  26.5754997  92.6339988 137.9130012  27.3054997  91.0109988
 137.3330012  28.0674997  91.5749988 137.2410012  26.9904997  90.1849988
 139.1240012  27.9994997  90.4419988 139.5100012  28.7664997  91.1279988
 139.7360012  27.6064997  89.2589988 140.6490012  28.1084997  88.9079988
 139.2850012  26.4954997  88.3609988 138.8880012  26.9944997  87.4509988
 138.4670012  25.9704997  88.8999988 140.2430012  25.3504997  87.9179988
 140.8180012  24.9664997  88.7879988 140.9160012  25.7824997  87.1469988
 139.5440012  24.1164997  87.2859988 140.3480012  23.3724997  87.1019988
 139.0330012  24.1304997  86.2989988 138.4340012  23.4344997  88.1389988
 137.4440012  23.9014997  87.9479988 138.7030012  23.6184997  89.2009988
 138.4170012  21.9364997  88.0169988 137.9270012  21.6214997  88.9619988
 139.3890012  21.4064997  87.9219988 137.4860012  21.3024997  86.9489988
 136.4920012  21.7874997  86.8369988 137.4180012  20.2204997  87.1899988
 138.0890012  21.4264997  85.5389988 138.8620012  20.6304997  85.4919988
 138.6060012  22.3814997  85.3059988 137.1660012  21.2614997  84.2939988
 137.5760012  21.2624997  83.2619988 136.3230012  21.9754997  84.4159988
 136.7220012  20.2504997  84.4159988 110.1350012 134.7724997  85.3809988
 111.0780012 134.7244997  85.9679988 110.4010012 134.9094997  84.3109988
 109.5940012 133.8124997  85.5189988 109.2350012 135.8534997  85.9679988
 108.1800012 135.7064997  85.6519988 109.3120012 135.5834997  87.0429988
 109.7650012 137.2934997  85.9669988 110.8490012 137.1384997  86.1569988
 109.7370012 137.7714997  84.9649988 109.0710012 138.1044997  87.0349988
 109.1520012 139.1774997  86.7579988 107.9710012 137.9894997  86.9319988
 109.4560012 137.8144997  88.6079988 108.9310012 136.8924997  88.9369988
 110.5480012 137.6174997  88.6699988 109.1410012 139.0634997  89.5629988
 109.7030012 139.9724997  89.2589988 108.0340012 139.1474997  89.5339988
 109.3200012 138.6644997  91.0209988 108.7470012 137.7404997  91.2489988
 110.3900012 138.4944997  91.2689988 108.7090012 139.6794997  92.0579988
 109.1910012 140.6804997  92.0409988 107.6290012 139.7954997  91.8209988
 108.8910012 139.3864997  93.5639988 109.9650012 139.1504997  93.7199988
 108.6480012 140.2814997  94.1749988 107.9300012 138.3214997  93.9479988
 106.8760012 138.6494997  93.8219988 107.9880012 137.4914997  93.2119988
 108.1840012 137.5724997  95.3439988 109.2400012 137.2314997  95.3929988
 107.9910012 138.2774997  96.1809988 107.3370012 136.3764997  95.5439988
 106.2830012 136.7114997  95.4429988 107.3690012 135.3624997  95.0919988
 107.2340012 136.1164997  97.0439988 107.2120012 137.1074997  97.5459988
 106.2600012 135.6174997  97.2349988 108.2960012 135.1334997  97.5109988
 108.1460012 134.1714997  96.9759988 109.2480012 135.6004997  97.1789988
 108.3850012 134.9974997  99.0539988 108.0960012 135.9684997  99.5099988
 107.6610012 134.2394997  99.4229988 109.8160012 134.4854997  99.3329988
 110.0720012 133.2894997  99.4699988 110.6870012 135.5184997  99.6809988
 111.9510012 134.9994997 100.0369988 111.7800012 134.6814997 101.0879988
 112.2350012 134.0474997  99.5409988 113.0060012 136.1314997  99.8579988
 113.8420012 135.8394997 100.5289988 112.3400012 137.5084997 100.3709988
 111.7010012 137.2654997 101.2469988 113.0770012 138.2764997 100.6869988
 111.5950012 138.1394997  99.3399988 110.4660012 139.1854997  99.5049988
 110.6420012 139.5564997 101.0219988 109.9190012 140.6674997 101.5629988
 110.5960012 141.0744997 102.3439988 109.7650012 141.4024997 100.7439988
 108.4780012 140.2494997 102.0659988 107.8170012 141.0904997 102.2169988
 108.0880012 139.6394997 101.2649988 108.5060012 139.5464997 103.3669988
 107.1060012 139.0574997 103.7069988 106.3300012 139.8074997 103.6809988
 106.7920012 138.3264997 102.9779988 107.1130012 138.4614997 104.6079988
 109.4980012 138.4244997 103.4429988 110.4780012 138.7624997 103.1399988
 109.7000012 138.2044997 104.4809988 109.1280012 137.6164997 102.8299988
 108.8870012 140.7214997 104.3189988 109.9370012 140.8924997 104.1269988
 108.8710012 140.3414997 105.3299988 108.3500012 141.6414997 104.1439988
 110.6230012 140.3694997  98.5879988 109.1760012 138.5264997  99.2609988
 113.3960012 136.1494997  98.4179988 114.4340012 136.9114997  98.2269988
 115.0910012 137.4024997  99.1249988 114.7930012 137.1144997  96.7609988
 114.7290012 136.2194997  96.1059988 115.8050012 137.5714997  96.7289988
 113.7890012 138.1584997  96.3069988 114.0320012 138.6814997  95.3569988
 113.6050012 138.9324997  97.0809988 112.3620012 137.6244997  96.0519988
 111.7340012 138.4594997  95.6729988 111.9540012 137.4344997  97.0679988
 112.1370012 136.4094997  95.2329988 111.0960012 136.0624997  95.4039988
 112.7150012 135.5004997  95.5059988 112.2630012 136.8054997  93.6979988
 113.1900012 137.4014997  93.5529988 111.4540012 137.4874997  93.3609988
 112.3360012 135.6594997  92.6819988 111.4570012 134.9854997  92.7739988
 113.2170012 134.9894997  92.7709988 112.6140012 136.2574997  91.3119988
 111.7650012 136.9294997  91.0619988 112.4830012 135.4184997  90.5959988
 113.9970012 136.8264997  91.2359988 114.8060012 136.1624997  91.5759988
 114.3580012 138.0634997  90.8999988 115.3950012 138.4154997  90.8019988
 113.3630012 139.1364997  90.5659988 113.6830012 140.0434997  91.1219988
 112.3230012 138.9154997  90.8879988 113.3580012 139.4154997  89.0839988
 112.6440012 140.2174997  88.8009988 113.0860012 138.4744997  88.5589988
 114.6870012 140.1084997  88.7509988 115.5390012 139.3974997  88.8109988
 114.9930012 140.9054997  89.4619988 114.5760012 140.6784997  87.3159988
 115.4700012 141.3314997  87.2179988 113.6810012 141.3354997  87.2719988
 114.2970012 139.6714997  86.1819988 114.1890012 140.2794997  85.2579988
 113.3080012 139.2034997  86.3729988 115.5050012 138.6784997  85.8229988
 116.0000012 138.3584997  86.7649988 116.2660012 139.1764997  85.1849988
 114.9280012 137.4804997  85.0579988 115.7140012 137.0774997  84.3839988
 114.1720012 137.8904997  84.3539988 114.4110012 136.3054997  85.8469988
 115.2490012 135.8334997  86.4029988 113.9530012 135.5154997  85.2129988
 113.6460012 136.6224997  86.5879988 116.6390012 136.5054997  84.7599988
 116.9400012 137.5584997  84.5719988 115.7450012 136.2544997  84.1499988
 117.3710012 135.6754997  84.6609988 116.3830012 136.3164997  86.2629988
 117.3390012 136.4274997  86.8179988 115.7110012 137.1234997  86.6269988
 115.5920012 135.0244997  86.5559988 114.6210012 135.2184997  86.0509988
 116.1260012 134.1434997  86.1409988 115.4250012 134.7844997  88.0559988
 114.9660012 135.6684997  88.5489988 114.6920012 133.9524997  88.1289988
 116.7770012 134.3844997  88.7839988 117.3170012 133.8454997  87.9769988
 117.3770012 135.2674997  89.0889988 116.5330012 133.3844997  89.8359988
 116.0950012 132.4904997  89.3429988 117.5830012 133.1724997  90.1339988
 115.8080012 134.0194997  90.9929988 116.3270012 134.8704997  91.4839988
 114.7410012 134.2434997  90.7769988 115.8100012 133.1054997  92.1839988
 115.1720012 132.2444997  91.8909988 116.8080012 132.6664997  92.3939988
 115.2030012 133.7034997  93.4159988 115.4110012 134.7774997  93.6059988
 114.1170012 133.7474997  93.1849988 115.4590012 132.9524997  94.7779988
 115.1700012 133.5434997  95.6739988 114.8220012 132.0434997  94.7409988
 116.9590012 132.6654997  95.0169988 117.2300012 131.8854997  94.2729988
 117.5980012 133.5624997  94.8689988 117.2840012 132.0284997  96.3859988
 116.6980012 132.6074997  97.1319988 116.8040012 131.0284997  96.4439988
 118.7310012 131.8414997  96.8509988 119.2870012 132.7784997  97.0689988
 118.5810012 131.3704997  97.8459988 119.5540012 130.7254997  96.1369988
 118.9840012 129.8144997  95.8589988 119.8590012 131.0724997  95.1259988
 120.8820012 130.4714997  96.8729988 120.5470012 130.0224997  97.8319988
 121.3480012 129.6174997  96.3359988 121.6990012 131.7624997  97.0629988
 122.3570012 132.2054997  96.1339988 121.6380012 132.2684997  98.3149988
 122.1640012 133.5624997  98.6859988 123.0170012 133.3764997  99.3729988
 122.4900012 134.2204997  97.8519988 121.0130012 134.4754997  99.2999988
 121.5210012 135.3554997  99.7479988 120.1030012 133.7544997 100.4259988
 120.7980012 133.0394997 100.9159988 119.8510012 134.6364997 101.0529988
 118.9480012 133.1354997  99.7479988 117.6470012 132.8314997 100.5439988
 117.1950012 134.2744997 100.9469988 117.1910012 134.6114997 102.2889988
 116.4040012 134.0594997 102.8459988 118.0860012 134.2104997 102.8119988
 117.1410012 136.0744997 102.4089988 117.3640012 136.2924997 103.4429988
 117.8330012 136.5044997 101.6989988 115.8260012 136.9234997 102.2009988
 115.2650012 136.6614997 100.9059988 115.0980012 135.6024997 100.7759988
 114.3130012 137.1374997 100.7239988 115.9860012 136.9414997 100.1519988
 114.8190012 136.4204997 103.3479988 115.1600012 135.4684997 103.7269988
 114.9900012 137.2144997 104.0609988 113.7620012 136.4614997 103.1309988
 116.2100012 138.3434997 102.5299988 117.1260012 138.5974997 102.0169988
 116.4560012 138.1634997 103.5659988 115.4090012 139.0064997 102.2379988
 116.6980012 132.2534997  99.5839988 118.0860012 131.9304997 101.6739988
 120.2000012 134.8994997  98.1599988 119.3340012 135.8434997  98.5039988
 119.1780012 136.3804997  99.5939988 118.4290012 136.1534997  97.2119988
 117.5140012 136.6324997  97.6209988 118.1470012 135.1904997  96.7349988
 119.0010012 137.1974997  96.3029988 119.4240012 138.0344997  96.8989988
 118.1700012 137.6354997  95.7099988 120.1240012 136.8254997  95.2449988
 121.0750012 136.6984997  95.8049988 120.2540012 137.7364997  94.6219988
 119.7550012 135.5654997  94.4479988 118.7160012 135.5874997  94.0539988
 119.9760012 134.8324997  95.2529988 120.5780012 135.0564997  93.2699988
 121.6290012 135.2974997  93.5379988 120.1960012 135.5704997  92.3619988
 120.2660012 133.5824997  92.9799988 119.1920012 133.4264997  92.7419988
 120.5120012 133.0614997  93.9299988 121.0510012 133.0344997  91.8359988
 122.1050012 132.9194997  92.1679988 121.0160012 133.6984997  90.9459988
 120.5770012 131.6514997  91.4979988 120.4360012 130.9774997  92.3559988
 120.1850012 131.1054997  90.3219988 119.9040012 130.0414997  90.3419988
 120.1310012 131.7694997  88.9809988 121.1530012 131.8704997  88.5549988
 119.6120012 132.7504997  88.9429988 119.1840012 130.9314997  88.0259988
 118.1170012 130.8684997  88.3299988 119.4900012 129.8654997  87.9599988
 119.1720012 131.4754997  86.5809988 120.2140012 131.6614997  86.2419988
 118.6010012 132.4194997  86.7139988 118.4940012 130.5524997  85.5879988
 117.4330012 130.4224997  85.8899988 118.8800012 129.5124997  85.6619988
 118.5490012 131.0264997  84.0869988 118.1530012 130.1864997  83.4769988
 119.6310012 131.1154997  83.8489988 117.8170012 132.2654997  83.8359988
 118.3230012 133.1744997  84.2249988 116.8110012 132.2304997  84.3059988
 117.6250012 132.4164997  82.2689988 117.0660012 133.3474997  82.0329988
 117.0810012 131.5154997  81.9129988 118.9410012 132.4294997  81.5509988
 119.7670012 132.8894997  82.1339988 118.7950012 132.9884997  80.6009988
 119.2570012 131.3874997  81.3279988 139.4090012 110.2444997  83.1009988
 138.5950012 109.8264997  82.4709988 139.0820012 111.1114997  83.7129988
 139.9620012 109.7204997  83.9099988 140.4770012 110.8064997  82.1239988
 141.2800012 111.0634997  82.8469988 140.8730012 110.0074997  81.4609988
 140.1300012 112.0454997  81.2259988 141.0450012 112.3734997  80.6879988
 139.3690012 111.6444997  80.5209988 139.5530012 113.2234997  82.0529988
 139.5100012 114.1274997  81.4099988 138.5300012 113.0304997  82.4429988
 140.5260012 113.7194997  83.1199988 140.4930012 112.9674997  83.9369988
 141.5830012 113.6854997  82.7789988 139.9230012 114.9784997  83.6939988
 140.1690012 115.8644997  83.0709988 138.8200012 114.9724997  83.8339988
 140.6860012 115.2934997  84.9749988 141.7570012 115.5054997  84.7689988
 140.1600012 116.1994997  85.3459988 140.5790012 114.2354997  86.1769988
 139.8480012 113.4174997  86.0029988 141.5980012 113.8054997  86.2879988
 140.2410012 114.8944997  87.5409988 141.0690012 115.5694997  87.8449988
 139.3350012 115.5304997  87.4459988 139.9350012 113.7174997  88.5509988
 139.1000012 113.0804997  88.1889988 140.9390012 113.2544997  88.6559988
 139.6480012 114.2484997  89.9069988 139.9680012 113.5534997  90.7119988
 140.1360012 115.2384997  90.0319988 138.0900012 114.5804997  90.0609988
 137.8930012 115.6534997  89.8519988 137.6360012 113.8824997  89.3249988
 137.5090012 114.0434997  91.3319988 136.3980012 114.0304997  91.3199988
 137.7700012 112.9694997  91.4439988 138.0170012 114.8174997  92.5389988
 137.8440012 114.2294997  93.4649988 139.1220012 114.9084997  92.4639988
 137.3760012 116.1714997  92.5849988 137.6470012 116.7714997  91.6909988
 136.2830012 116.0144997  92.4619988 137.3480012 116.9904997  93.9309988
 137.6980012 118.1314997  94.1139988 136.8570012 116.0954997  94.9169988
 136.8350012 116.5784997  96.2459988 136.9260012 117.6864997  96.2669988
 135.8420012 116.3534997  96.6899988 138.1060012 115.9604997  97.0699988
 138.0220012 114.8544997  97.0069988 137.9590012 116.2114997  98.5779988
 138.0020012 117.3074997  98.7539988 136.9290012 115.9864997  98.9299988
 138.8700012 115.3994997  99.2529988 140.0180012 116.0354997  99.9939988
 140.8360012 114.7634997 100.4629988 141.5490012 114.6874997 101.6979988
 142.3710012 113.9424997 101.6339988 142.0250012 115.6654997 101.9209988
 140.6690012 114.4624997 102.9289988 141.3930012 114.4374997 103.7289988
 139.9770012 115.2884997 103.0079988 139.9200012 113.1494997 102.9449988
 139.3830012 112.8174997 104.3469988 138.9150012 111.8444997 104.3829988
 140.2040012 112.8614997 105.0469988 138.6090012 113.5234997 104.6129988
 138.7930012 113.2624997 101.9459988 138.0850012 114.0084997 102.2759988
 138.9780012 113.3114997 100.8829988 138.2470012 112.3454997 102.1109988
 140.7890012 111.9884997 102.4809988 141.6390012 111.8044997 103.1229988
 141.2240012 112.2524997 101.5289988 140.2670012 111.0434997 102.4889988
 140.7920012 116.8674997  99.0369988 139.4440012 116.8324997 101.0879988
 139.2920012 116.5914997  96.5919988 140.0430012 115.9544997  95.8509988
 139.9380012 114.7734997  95.5779988 141.1190012 116.8804997  95.2889988
 142.0630012 116.6374997  95.8229988 140.7720012 117.9134997  95.5009988
 141.3880012 116.7334997  93.7709988 140.9460012 115.8054997  93.3489988
 142.4600012 116.4464997  93.7029988 141.1300012 117.9104997  92.8749988
 141.6030012 118.7624997  93.4089988 140.0340012 118.0294997  92.7399988
 141.7820012 117.8154997  91.3979988 141.3590012 116.8824997  90.9669988
 142.8580012 117.5774997  91.5459988 141.4150012 119.0524997  90.4829988
 141.8840012 118.9734997  89.4789988 141.8590012 119.9574997  90.9499988
 139.8980012 119.4074997  90.3429988 139.8760012 120.4384997  89.9289988
 139.4420012 119.4044997  91.3559988 139.1430012 118.3994997  89.4799988
 139.2500012 117.3444997  89.8119988 139.5680012 118.3614997  88.4539988
 137.7020012 118.6824997  89.4229988 137.0360012 118.2764997  90.1989988
 137.0700012 119.2674997  88.3669988 135.9930012 119.4734997  88.4549988
 137.8450012 119.7494997  87.1159988 138.8790012 120.0534997  87.3869988
 137.3280012 120.6604997  86.7469988 137.9440012 118.7054997  85.9919988
 136.9710012 118.1874997  85.8529988 138.6510012 117.9154997  86.3239988
 138.2430012 119.1814997  84.6169988 137.3630012 119.7194997  84.2039988
 138.4300012 118.2464997  84.0469988 139.5140012 120.1214997  84.4879988
 140.3780012 119.7104997  85.0529988 139.0230012 120.9914997  84.9739988
 140.0670012 120.6024997  83.0759988 140.8230012 121.4034997  83.2249988
 139.0990012 120.8264997  82.5809988 140.7440012 119.5114997  82.2489988
 141.3340012 118.8884997  82.9539988 141.4470012 119.9494997  81.5079988
 139.7660012 118.5134997  81.4929988 138.9490012 119.1444997  81.0819988
 139.3610012 117.8084997  82.2499988 140.3960012 117.5874997  80.5439988
 141.1650012 116.9494997  81.0289988 140.8660012 118.0844997  79.6689988
 139.6070012 116.8954997  80.1779988   2.0720012  36.4794997  82.7859988
   2.3710012  37.0334997  81.8699988   0.9860012  36.3174997  82.9579988
   2.4080012  35.4224997  82.7349988   2.5820012  37.2464997  84.0119988
   3.6220012  36.8814997  84.1489988   2.6110012  38.3324997  83.7789988
   1.9040012  36.9654997  85.3799988   2.1150012  37.8804997  85.9739988
   0.8050012  37.0214997  85.2239988   2.2150012  35.6564997  86.0699988
   2.2820012  34.8214997  85.3399988   3.2530012  35.6784997  86.4639988
   1.1990012  35.1234997  87.1179988   0.2120012  34.8194997  86.7089988
   1.6890012  34.2324997  87.5659988   0.8910012  36.0684997  88.2989988
   0.0560012  36.7364997  88.0009988   0.4880012  35.4654997  89.1409988
   2.0110012  36.9034997  88.7439988   2.8800012  36.3344997  89.1359988
   2.4860012  37.4994997  87.9359988   1.5980012  37.9524997  89.7809988
   2.4190012  38.6984997  89.8449988   0.7300012  38.5194997  89.3839988
   1.2490012  37.3274997  91.1609988   0.9880012  38.2444997  91.7309988
   0.3440012  36.6904997  91.0639988   2.3840012  36.7314997  92.0049988
   2.8240012  35.9094997  91.4009988   3.0890012  37.5614997  92.2209988
   1.8520012  36.0754997  93.2499988   1.3220012  36.8714997  93.8159988
   1.1410012  35.3154997  92.8609988   2.9500012  35.4694997  94.0729988
   3.5700012  34.8124997  93.4269988   3.7350012  36.0934997  94.5539988
   2.4760012  34.7144997  95.2759988   1.6570012  35.3274997  95.7099988
   2.0540012  33.7504997  94.9199988   3.5260012  34.4954997  96.3019988
   4.1310012  35.4174997  96.4379988   3.1040012  34.3004997  97.3119988
   4.4510012  33.2984997  95.9129988   3.8620012  32.4254997  95.5599988
   5.1740012  33.5434997  95.1049988   5.1450012  32.8584997  97.1779988
   4.8230012  31.9114997  97.8789988   6.1220012  33.6494997  97.3329988
   6.9300012  33.5254997  98.4799988   6.8080012  32.4774997  98.8289988
   7.9830012  33.5734997  98.1299988   6.6560012  34.6274997  99.5519988
   7.6410012  34.8304997 100.0249988   5.5440012  34.1964997 100.5929988
   5.7340012  33.1934997 101.0299988   5.4680012  34.9534997 101.4029988
   4.3120012  34.2224997  99.9089988   2.9280012  33.9624997 100.6099988
   2.9860012  34.8494997 101.9099988   1.7580012  35.1914997 102.6089988
   0.9200012  34.4934997 102.3939988   2.0180012  35.3044997 103.6829988
   1.2150012  36.6454997 102.0899988   0.7140012  36.5464997 101.1379988
   0.4600012  36.9424997 102.8029988   2.1830012  37.8154997 102.1149988
   3.0310012  37.7484997 103.3459988   2.4480012  37.8004997 104.2539988
   3.7060012  36.9094997 103.2709988   3.7140012  38.5784997 103.4559988
   3.0700012  37.8054997 100.8959988   2.4450012  37.9714997 100.0309988
   3.8440012  38.5584997 100.9129988   3.5910012  36.8694997 100.7639988
   1.4990012  39.1394997 101.9729988   0.7300012  39.1184997 101.2149988
   2.2360012  39.8854997 101.7159988   1.0110012  39.4614997 102.8809988
   1.9200012  34.5214997  99.6759988   2.8530012  32.5094997 101.0469988
   6.1790012  35.8744997  98.9319988   7.0110012  36.5434997  98.0769988
   8.0260012  36.1474997  97.6619988   6.3780012  37.8264997  97.5899988
   6.3400012  38.5474997  98.4349988   5.3480012  37.7724997  97.1769988
   7.2680012  38.5354997  96.4679988   8.3020012  38.1294997  96.4719988
   7.3830012  39.5944997  96.7819988   6.6430012  38.6604997  95.1019988
   7.2240012  39.4104997  94.5229988   5.5860012  39.0044997  95.1179988
   6.5790012  37.4184997  94.3569988   5.8670012  37.4614997  93.5049988
   6.1110012  36.6314997  94.9849988   7.8930012  36.8004997  93.8829988
   8.6250012  36.7234997  94.7159988   8.3350012  37.5654997  93.2089988
   7.7090012  35.4644997  93.1919988   6.9630012  34.9034997  93.7949988
   8.6780012  34.9264997  93.2569988   7.3270012  35.6224997  91.6739988
   8.0850012  36.3024997  91.2299988   6.3380012  36.1204997  91.5809988
   7.3970012  34.3634997  90.8609988   8.3460012  33.8104997  90.8079988
   6.3820012  33.7694997  90.2479988   6.6580012  32.8114997  89.7839988
   4.9330012  34.0924997  90.1399988   4.7980012  35.1884997  90.0159988
   4.4150012  33.8494997  91.0919988   4.2290012  33.2274997  89.0679988
   3.2070012  33.6584997  89.0119988   4.1980012  32.1404997  89.2939988
   4.7800012  33.3784997  87.6619988   5.8780012  33.2114997  87.6659988
   4.6570012  34.4284997  87.3189988   4.0920012  32.5004997  86.6149988
   2.9980012  32.6494997  86.7379988   4.3540012  31.4544997  86.8839988
   4.6470012  32.6384997  85.1689988   5.7280012  32.3864997  85.2259988
   4.3350012  33.5914997  84.6919988   3.8980012  31.6244997  84.3539988
   2.8120012  31.6234997  84.5879988   4.2830012  30.6744997  84.7809988
   4.2360012  31.5794997  82.8319988   3.6880012  32.4034997  82.3259988
   3.6640012  30.7034997  82.4569988   5.7480012  31.3624997  82.4269988
   6.3010012  32.2084997  82.8889988   5.7690012  31.5024997  81.3259988
   6.0570012  30.3854997  82.8569988   9.4980012  21.9414997  83.9389988
   9.1700012  22.9124997  84.3679988   8.8800012  21.6694997  83.0569988
  10.5720012  22.0094997  83.6639988   9.2900012  20.9564997  85.0709988
   9.7580012  19.9664997  84.8829988   9.7400012  21.3894997  85.9909988
   7.7620012  20.7214997  85.3099988   7.2300012  20.4524997  84.3729988
   7.5900012  19.8644997  85.9949988   6.9470012  21.8764997  85.8519988
   7.0950012  22.7194997  85.1429988   5.9170012  21.5664997  85.5739988
   7.2590012  22.2864997  87.2959988   8.3410012  22.1354997  87.4939988
   6.8860012  23.3204997  87.4599988   6.4750012  21.5284997  88.3579988
   5.4250012  21.8084997  88.5919988   6.4270012  20.4824997  87.9859988
   7.2010012  21.3394997  89.7219988   6.6060012  20.6174997  90.3199988
   8.1030012  20.7004997  89.6069988   7.4920012  22.5614997  90.5059988
   8.2450012  23.0524997  89.8539988   6.7260012  23.3664997  90.4879988
   8.1450012  22.4714997  91.8699988   8.8860012  21.6444997  91.8749988
   8.5610012  23.4714997  92.1159988   7.0630012  22.3804997  92.9499988
   6.5480012  23.3614997  92.8599988   6.2920012  21.6314997  92.6669988
   7.5900012  22.2924997  94.4039988   8.0080012  21.2904997  94.6399988
   8.3530012  23.0774997  94.5959988   6.4790012  22.5324997  95.4679988
   6.1490012  23.5914997  95.5309988   5.6400012  21.9274997  95.0629988
   7.0240012  22.2554997  96.9189988   7.5880012  21.2984997  96.9409988
   7.7560012  22.9804997  97.3359988   5.9320012  22.1514997  97.9849988
   5.2440012  23.0204997  97.9059988   5.2290012  21.3004997  97.8619988
   6.3840012  22.1594997  99.4449988   7.3880012  22.6044997  99.6079988
   5.5590012  22.7694997  99.8719988   6.3360012  20.7314997  99.9739988
   6.2420012  19.6984997  99.2939988   6.5020012  20.7704997 101.2899988
   6.7360012  19.5004997 101.9509988   6.2480012  19.6994997 102.9289988
   6.3860012  18.5574997 101.4779988   8.3290012  19.3514997 102.2259988
   8.4400012  18.3394997 102.6729988   8.7510012  20.2754997 103.3599988
   7.8670012  20.3794997 104.0239988   9.5210012  19.8434997 104.0339988
   9.2140012  21.4934997 102.7409988   9.9110012  22.6224997 103.5999988
  10.8030012  23.4534997 102.5049988  10.2240012  24.0904997 101.4189988
   9.3510012  23.5574997 100.9859988   9.6640012  24.9224997 101.8979988
  11.1830012  24.5904997 100.3569988  10.8250012  25.4184997  99.7629988
  11.9760012  25.0484997 100.9289988  11.8110012  23.6204997  99.4429988
  10.8760012  23.2534997  98.3579988   9.9670012  22.8464997  98.7759988
  10.5180012  24.1434997  97.8629988  11.2830012  22.5994997  97.5999988
  12.9750012  24.2334997  98.8389988  13.4570012  24.8524997  99.5819988
  13.5760012  23.4204997  98.4609988  12.6790012  24.9034997  98.0449988
  12.2350012  22.3774997 100.2469988  11.4030012  21.8724997 100.7159988
  12.9930012  22.7214997 100.9349988  12.5620012  21.5344997  99.6559988
   8.7820012  23.4584997 104.0729988  10.7980012  22.0384997 104.5989988
   9.0340012  19.6114997 100.9859988  10.1830012  19.0234997 100.8849988
  10.8410012  18.4354997 101.7839988  10.6040012  19.1314997  99.4709988
  10.3020012  20.0754997  98.9679988  10.0470012  18.3494997  98.9119988
  12.0530012  18.7744997  99.1269988  12.2450012  17.7094997  99.3749988
  12.7100012  19.5194997  99.6259988  12.2220012  18.7554997  97.5869988
  11.6070012  17.8964997  97.2429988  13.2540012  18.4834997  97.2779988
  11.9460012  20.1224997  96.8499988  12.5420012  20.9644997  97.2629988
  10.8880012  20.4614997  96.8499988  12.2560012  19.9914997  95.3309988
  11.9300012  18.9744997  95.0239988  13.3580012  20.0364997  95.1969988
  11.6240012  20.9944997  94.3999988  10.5200012  21.0124997  94.5159988
  11.7680012  20.6514997  93.3529988  12.1760012  22.4164997  94.5889988
  13.2550012  22.4264997  94.3259988  12.2710012  22.7324997  95.6499988
  11.4930012  23.3564997  93.6829988  10.5180012  23.7884997  93.9539988
  11.9550012  23.6394997  92.3999988  11.3230012  24.3114997  91.8009988
  13.1770012  23.1124997  91.7119988  13.5520012  22.1304997  92.0709988
  14.0590012  23.7844997  91.7819988  13.1120012  22.7974997  90.1789988
  14.1070012  22.4714997  89.8059988  12.9300012  23.6794997  89.5269988
  12.1470012  21.6514997  89.8499988  11.9820012  21.6844997  88.7519988
  11.2380012  21.6944997  90.4879988  12.6310012  20.1784997  89.9839988
  11.8380012  19.4414997  89.7369988  12.9220012  19.9574997  91.0329988
  13.7620012  19.8194997  88.9159988  14.1110012  18.7764997  89.0729988
  14.6800012  20.3964997  89.1599988  13.3050012  19.8974997  87.4429988
  13.0940012  20.9384997  87.1189988  12.3360012  19.3544997  87.4089988
  14.1920012  19.2204997  86.3979988  14.3520012  18.1264997  86.5019988
  15.1960012  19.6664997  86.5609988  13.9180012  19.5784997  84.9469988
  14.5150012  19.0244997  84.1909988  14.2160012  20.6444997  84.8529988
  12.8600012  19.3334997  84.7089988 124.2560012 130.5204997  83.3169988
 123.2230012 130.8964997  83.4779988 124.5180012 130.1564997  82.2999988
 124.9000012 131.3654997  83.6419988 124.6490012 129.3494997  84.2219988
 123.9900012 128.4904997  83.9709988 125.7290012 129.1514997  84.0539988
 124.4470012 129.6474997  85.7579988 123.4020012 129.9554997  85.9739988
 124.8630012 128.7994997  86.3409988 125.4470012 130.8314997  86.2759988
 126.3150012 130.7504997  85.5869988 125.0050012 131.8044997  85.9719988
 125.7810012 130.8294997  87.7419988 124.8230012 131.1564997  88.1999988
 125.9410012 129.7674997  88.0259988 126.9240012 131.7374997  88.1849988
 127.8270012 131.5194997  87.5759988 126.5040012 132.7524997  88.0139988
 127.0650012 131.5164997  89.6379988 126.0900012 131.7014997  90.1379988
 127.2210012 130.4304997  89.8069988 128.0430012 132.4964997  90.3499988
 128.9410012 132.6314997  89.7109988 127.5740012 133.4934997  90.4949988
 128.4810012 132.0014997  91.7759988 128.9890012 131.0144997  91.7389988
 129.1370012 132.8194997  92.1429988 127.4030012 131.8324997  92.8579988
 126.9470012 132.8454997  92.8709988 126.6290012 131.1694997  92.4149988
 127.7700012 131.3114997  94.2439988 128.3300012 130.3704997  94.0569988
 128.4840012 131.9574997  94.7979988 126.4980012 130.8374997  95.0469988
 125.9720012 130.2014997  94.3039988 126.6880012 130.1584997  95.9059988
 125.7060012 132.0494997  95.6579988 126.3600012 132.4454997  96.4649988
 125.4400012 132.7854997  94.8699988 124.3700012 131.6794997  96.2409988
 123.7780012 131.0134997  95.5769988 124.4980012 131.0454997  97.1439988
 123.5420012 132.9794997  96.6609988 123.8750012 133.4864997  97.5919988
 123.6180012 133.8024997  95.9189988 122.0590012 132.6354997  96.8729988
 121.1230012 133.1564997  96.2599988 122.0380012 131.7954997  97.8639988
 120.8290012 131.7414997  98.6079988 120.6520012 132.7514997  99.0349988
 119.8870012 131.4254997  98.1089988 121.1000012 130.8564997  99.9339988
 120.1930012 130.3724997 100.3569988 121.7240012 131.7554997 100.9609988
 121.0820012 132.6344997 101.1819988 121.9510012 131.1554997 101.8679988
 122.9090012 132.3374997 100.4279988 124.0800012 133.0984997 101.2079988
 125.0350012 131.8624997 101.6339988 125.4580012 131.0194997 100.5519988
 125.0940012 131.2824997  99.5359988 126.5650012 131.0284997 100.4519988
 124.9200012 129.5604997 100.7759988 123.8450012 129.6624997 100.7949988
 125.1830012 129.0534997  99.8599988 125.1990012 128.6164997 101.9029988
 126.6090012 128.2704997 101.9239988 127.2200012 129.1504997 102.0619988
 126.8220012 127.5144997 102.6649988 126.9750012 127.9584997 100.9569988
 124.8350012 129.2264997 103.2339988 125.4580012 130.0874997 103.4239988
 123.7760012 129.3674997 103.0759988 124.9620012 128.4584997 103.9819988
 124.4100012 127.3444997 101.8219988 124.8210012 126.7194997 101.0429988
 123.4020012 127.6704997 101.6109988 124.4420012 126.7474997 102.7209988
 124.8180012 133.9994997 100.2509988 123.5020012 133.6584997 102.4489988
 122.0300012 129.8304997  99.6849988 121.6430012 128.7274997  99.0939988
 120.4890012 128.4874997  98.8379988 122.8860012 127.9304997  98.5969988
 123.0510012 127.0854997  99.2989988 123.7030012 128.6774997  98.4959988
 122.6260012 127.2944997  97.2629988 122.1700012 128.0514997  96.5899988
 121.7900012 126.5634997  97.2959988 123.8610012 126.5114997  96.7979988
 123.9830012 125.6394997  97.4749988 124.6860012 127.2174997  97.0319988
 123.8150012 126.0504997  95.2839988 122.9330012 125.4044997  95.0899988
 124.6610012 125.3914997  94.9959988 123.7810012 127.2714997  94.2399988
 124.6370012 127.9784997  94.2709988 122.9360012 127.9704997  94.4109988
 123.6830012 126.8964997  92.7229988 122.7600012 126.2804997  92.6689988
 124.5300012 126.2034997  92.5319988 123.6430012 128.0394997  91.6809988
 123.7420012 127.6754997  90.6359988 124.4640012 128.7344997  91.9579988
 122.3260012 128.7294997  91.8349988 121.4460012 128.1184997  91.5819988
 122.0320012 130.0184997  92.0419988 120.9730012 130.2674997  92.2019988
 123.0490012 131.1424997  92.1939988 123.9040012 130.7404997  92.7789988
 122.6390012 131.8484997  92.9479988 123.5300012 131.8254997  90.9499988
 124.1970012 131.1304997  90.3959988 124.0590012 132.7704997  91.1949988
 122.3470012 132.3094997  90.1489988 121.8850012 133.0024997  90.8849988
 121.6620012 131.4654997  89.9199988 122.6000012 133.1034997  88.8839988
 123.1080012 132.3984997  88.1919988 123.3210012 133.8834997  89.2079988
 121.4450012 133.7014997  88.1009988 121.7880012 134.4404997  87.3449988
 120.9800012 134.3034997  88.9099988 120.4780012 132.7734997  87.4179988
 119.6520012 133.3584997  86.9599988 119.9330012 132.1944997  88.1929988
 121.1730012 131.8174997  86.4689988 121.9630012 131.2634997  87.0199988
 121.7940012 132.2394997  85.6499988 120.2410012 130.7944997  85.8579988
 120.7970012 130.1584997  85.1359988 119.3430012 131.2674997  85.4069988
 119.9200012 130.0464997  86.6139988  20.8990012  10.0914997  80.7679988
  21.0370012  10.4744997  79.7349988  21.6080012   9.2684997  80.9989988
  21.1210012  10.9904997  81.3819988  19.4730012   9.7074997  81.0669988
  18.8060012  10.5734997  80.8679988  19.1610012   8.9234997  80.3439988
  19.2500012   9.1314997  82.4549988  18.2170012   8.7594997  82.6249988
  19.8460012   8.2004997  82.5759988  19.5910012  10.0644997  83.6489988
  20.6960012  10.1184997  83.7509988  19.2560012  11.0924997  83.3939988
  18.8880012   9.6964997  84.9819988  19.2790012  10.3114997  85.8219988
  17.8110012   9.9684997  84.9529988  19.0190012   8.2904997  85.5499988
  18.6670012   8.1764997  86.5979988  18.4160012   7.4694997  85.1049988
  20.3830012   7.7624997  85.4679988  20.3850012   6.6814997  85.7259988
  20.7250012   7.9664997  84.4309988  21.3490012   8.3934997  86.5289988
  22.4170012   8.2114997  86.2809988  21.0650012   9.4644997  86.6089988
  21.2070012   7.7194997  87.9049988  20.1430012   7.8644997  88.1899988
  21.3060012   6.6324997  87.6989988  22.2350012   8.2164997  88.8839988
  23.2850012   7.9184997  88.6769988  22.1490012   9.3144997  88.7419988
  21.7870012   8.0074997  90.2879988  20.7300012   8.2364997  90.5439988
  21.9380012   6.9254997  90.4919988  22.6890012   8.7394997  91.3149988
  23.7770012   8.6174997  91.1269988  22.2930012   9.7744997  91.3959988
  22.4380012   8.2224997  92.7659988  21.3740012   8.0284997  93.0169988
  22.9480012   7.2344997  92.7419988  23.0370012   9.2234997  93.8209988
  23.1380012   8.6284997  94.7529988  24.0710012   9.4624997  93.4929988
  22.1920012  10.4064997  94.0449988  22.3670012  11.1994997  93.2869988
  21.1100012  10.1624997  94.1079988  22.7770012  10.9744997  95.3599988
  23.9250012  11.2364997  95.5889988  21.8090012  10.9704997  96.3249988
  22.3720012  11.0974997  97.6749988  23.0570012  10.2954997  98.0259988
  22.8710012  12.0834997  97.7879988  21.1870012  11.2064997  98.7179988
  21.5610012  11.3204997  99.7569988  20.4350012   9.8224997  98.7859988
  19.7350012   9.7994997  97.9229988  21.0960012   8.9374997  98.6669988
  19.7250012   9.7884997 100.0249988  18.5950012   8.7334997 100.2479988
  17.8490012   9.3874997 101.4859988  18.6190012   9.6414997 102.6609988
  17.8610012   9.8104997 103.4549988  19.2200012   8.7644997 102.9849988
  19.4200012  10.9954997 102.6259988  20.1350012  11.1274997 103.4249988
  20.0380012  10.9634997 101.7409988  18.6330012  12.2364997 102.4309988
  17.9970012  12.2704997 101.0629988  17.3550012  13.1384997 101.0319988
  18.8890012  12.4674997 100.4859988  17.4560012  11.3654997 100.8299988
  17.4990012  12.3064997 103.4229988  17.9530012  12.2294997 104.3999988
  17.0050012  13.2664997 103.4349988  16.9020012  11.4094997 103.3499988
  19.4740012  13.5354997 102.6219988  18.7860012  14.3624997 102.5249988
  20.2280012  13.5824997 101.8509988  19.8260012  13.5584997 103.6429988
  17.6530012   8.7834997  99.1129988  19.2110012   7.4734997 100.4819988
  20.2820012  12.2864997  98.4019988  20.5370012  13.5124997  99.0369988
  21.2900012  13.6174997  99.9609988  19.5850012  14.5944997  98.4859988
  19.5930012  15.4264997  99.2219988  18.5510012  14.2514997  98.7019988
  19.8690012  15.1314997  97.0609988  20.9310012  15.4134997  96.8969988
  19.2300012  15.9804997  96.7359988  19.4280012  14.1264997  96.0559988
  18.4020012  13.7504997  96.2529988  19.9780012  13.1664997  96.1559988
  19.5730012  14.6404997  94.5919988  20.6480012  14.9004997  94.4939988
  18.8590012  15.4914997  94.5849988  19.1110012  13.5954997  93.5339988
  18.0240012  13.3704997  93.5939988  19.6760012  12.6774997  93.8019988
  19.4870012  13.9994997  92.0949988  20.3270012  14.7164997  92.2129988
  18.6660012  14.6944997  91.8159988  19.7390012  12.8744997  91.0979988
  20.7470012  12.4484997  91.2899988  19.8310012  13.4334997  90.1419988
  18.7400012  11.7414997  91.1489988  19.0460012  10.8894997  91.7729988
  17.5860012  11.7714997  90.4629988  16.8250012  11.0014997  90.6569988
  17.1570012  12.9134997  89.5499988  17.9250012  13.7084997  89.4429988
  16.3410012  13.3634997  90.1559988  16.5740012  12.3834997  88.2349988
  16.1390012  13.2214997  87.6479988  15.8200012  11.5934997  88.4399988
  17.7420012  11.7404997  87.3969988  17.2160012  11.5774997  86.4319988
  18.0540012  10.7914997  87.8839988  19.0240012  12.6164997  87.2549988
  19.6840012  12.2034997  86.4629988  19.4860012  12.7824997  88.2519988
  18.7650012  14.0604997  86.7009988  19.7860012  14.4904997  86.7869988
  18.0470012  14.5794997  87.3709988  18.2810012  14.1224997  85.2799988
  17.3340012  13.5584997  85.1449988  18.9970012  13.5254997  84.6769988
  18.2010012  15.5064997  84.6959988  17.4350012  16.0834997  85.2559988
  17.7790012  15.5304997  83.6679988  19.4730012  16.2824997  84.6059988
  20.1760012  15.8644997  83.8529988  19.9830012  16.2354997  85.5919988
  19.2680012  17.3054997  84.2249988 131.6700012 128.1124997  80.7669988
 131.6320012 128.2384997  79.6639988 132.5350012 128.6294997  81.2339988
 130.6960012 128.5334997  81.0969988 131.7400012 126.6504997  81.0079988
 130.8870012 126.1874997  80.4689988 132.7130012 126.3044997  80.5979988
 131.6980012 126.2824997  82.5059988 132.5080012 126.7794997  83.0819988
 130.7430012 126.6194997  82.9639988 132.0040012 124.7464997  82.6769988
 131.1870012 124.1484997  82.2199988 132.8250012 124.6424997  81.9359988
 132.3190012 124.3944997  84.1199988 132.6780012 123.3444997  84.1779988
 133.1200012 125.0344997  84.5499988 131.0240012 124.4154997  84.9779988
 130.5360012 125.4124997  85.0129988 130.1960012 123.8554997  84.4929988
 131.2860012 123.7644997  86.4009988 131.9680012 122.9444997  86.0909988
 131.8910012 124.4884997  86.9869988 130.1300012 123.1314997  87.1279988
 129.6810012 122.2974997  86.5469988 130.4930012 122.8194997  88.1299988
 129.0250012 124.2634997  87.4099988 128.8570012 124.8334997  86.4719988
 128.0770012 123.7504997  87.6799988 129.3690012 125.1324997  88.5839988
 129.3300012 124.4864997  89.4879988 130.4410012 125.4174997  88.5269988
 128.4470012 126.2804997  88.7869988 128.6390012 127.0844997  88.0449988
 127.4640012 125.7814997  88.6529988 128.5650012 126.8484997  90.2079988
 127.5800012 127.2404997  90.5389988 128.7720012 125.9764997  90.8659988
 129.6530012 127.9164997  90.3159988 130.6200012 127.7044997  89.8119988
 129.1860012 128.8254997  89.8809988 130.0470012 128.2204997  91.7499988
 130.3200012 129.2934997  91.8369988 129.1450012 128.2564997  92.3979988
 131.1680012 127.2754997  92.2959988 130.8410012 126.2134997  92.2749988
 132.1270012 127.3554997  91.7409988 131.4500012 127.7604997  93.7399988
 131.2060012 128.9054997  94.1469988 132.0070012 126.8384997  94.4559988
 132.3050012 127.1394997  95.8849988 133.3290012 126.8754997  96.2259988
 132.2890012 128.2384997  96.0539988 131.2260012 126.3894997  96.7349988
 130.2720012 126.9144997  96.5139988 131.4970012 126.4554997  98.2489988
 131.9860012 127.4494997  98.3389988 130.6280012 126.3494997  98.9329988
 132.4700012 125.4904997  98.6769988 132.5760012 124.9524997 100.1269988
 132.6600012 126.2174997 101.1139988 131.4700012 126.8124997 101.6569988
 131.0020012 127.3814997 100.8249988 130.6770012 126.1374997 102.0439988
 131.7970012 127.7144997 102.9039988 130.8770012 128.0594997 103.3529988
 132.1980012 127.0184997 103.6259988 132.6690012 128.9864997 102.7839988
 134.0960012 128.6044997 102.4189988 134.0190012 128.0674997 101.4859988
 134.8710012 129.3524997 102.3369988 134.4630012 127.8414997 103.0899988
 132.0210012 129.9144997 101.7989988 132.6840012 130.6584997 101.3839988
 131.7540012 129.4204997 100.8759988 131.0790012 130.3334997 102.1189988
 132.6940012 129.6794997 104.1869988 131.7010012 129.8894997 104.5559988
 133.1120012 130.6694997 104.0779988 133.2310012 129.0964997 104.9199988
 131.3690012 124.1454997 100.2969988 133.7830012 124.1454997 100.2159988
 131.2890012 125.0084997  96.1559988 130.3750012 124.1654997  96.6419988
 129.4840012 124.4084997  97.3879988 130.4090012 122.9394997  95.8209988
 129.3820012 122.6514997  95.5099988 130.8320012 122.1064997  96.4219988
 131.2360012 123.0024997  94.5569988 131.4220012 121.9804997  94.1619988
 132.2560012 123.3944997  94.7569988 130.4400012 123.7934997  93.5259988
 130.4750012 124.8584997  93.8409988 129.3660012 123.5114997  93.4949988
 130.9560012 123.6784997  92.0869988 130.4880012 124.4494997  91.4379988
 130.6650012 122.6774997  91.7019988 132.4930012 123.7064997  91.8929988
 132.9440012 122.7774997  92.3009988 132.9400012 124.6484997  92.2769988
 133.0200012 123.6474997  90.3809988 132.6660012 124.4744997  89.7279988
 132.7940012 122.6014997  90.0829988 134.5520012 123.6634997  90.4179988
 134.8430012 123.2354997  89.4349988 135.0650012 122.9284997  91.0749988
 135.2110012 125.0504997  90.5699988 135.0870012 125.5714997  91.5299988
 135.8440012 125.6394997  89.5359988 136.2250012 126.6354997  89.8069988
 136.0390012 125.1374997  88.1029988 135.9890012 124.0384997  87.9469988
 136.9740012 125.4924997  87.6199988 134.9150012 125.7494997  87.1689988
 133.8900012 125.4114997  87.4309988 135.2870012 125.5034997  86.1509988
 134.7210012 127.3034997  87.1699988 135.5740012 127.9024997  86.7859988
 134.4200012 127.6394997  88.1849988 133.5240012 127.8074997  86.3929988
 132.6530012 127.4584997  86.9889988 133.4290012 127.3134997  85.4029988
 133.4960012 129.4024997  86.2089988 134.5570012 129.6884997  86.0479988
 133.2640012 129.8434997  87.2019988 132.5090012 129.7844997  85.1259988
 131.5020012 129.8944997  85.5819988 132.4440012 129.0184997  84.3229988
 132.9920012 131.2294997  84.5709988 133.9400012 130.9744997  84.0509988
 133.0810012 131.8624997  85.4809988 132.1480012 131.8824997  83.5699988
 131.9790012 131.3524997  82.6089988 132.7550012 132.7574997  83.2549988
 131.2670012 132.2024997  84.1669988 120.5360012   5.1834997  84.5609988
 120.6980012   6.2744997  84.4269988 119.5400012   4.9474997  84.1289988
 121.2880012   4.6554997  83.9369988 120.6280012   4.5894997  85.9479988
 119.9450012   5.1884997  86.5869988 120.2180012   3.5694997  85.7839988
 122.0070012   4.3684997  86.6429988 121.8140012   3.7684997  87.5579988
 122.7000012   3.8274997  85.9649988 122.7350012   5.5934997  87.0339988
 122.9270012   6.2624997  86.1679988 122.0850012   6.1554997  87.7379988
 124.1310012   5.2934997  87.7579988 124.6940012   4.5644997  87.1359988
 124.7570012   6.2114997  87.7569988 123.9910012   4.9584997  89.2459988
 123.3710012   5.6804997  89.8179988 123.3750012   4.0364997  89.1729988
 125.2940012   4.5224997  89.9319988 125.9510012   5.4184997  89.9409988
 125.0190012   4.4034997  91.0019988 126.0260012   3.3474997  89.3179988
 126.4460012   3.7094997  88.3549988 126.8290012   3.0644997  90.0319988
 125.2490012   2.0744997  88.8729988 124.3360012   2.3144997  88.2869988
 125.9350012   1.4324997  88.2809988 124.9370012   1.1984997  90.0279988
 124.6390012   1.7884997  90.9209988 124.0930012   0.6094997  89.6069988
 126.0570012   0.2274997  90.5139988 126.3830012  -0.2705003  89.5759988
 126.8470012   0.7724997  91.0739988 125.5960012  -0.9115003  91.4059988
 124.7670012  -1.5125003  90.9769988 126.3880012  -1.6675003  91.5989988
 124.9500012  -0.3965003  92.6859988 125.6580012   0.1714997  93.3259988
 124.1560012   0.3144997  92.3709988 124.3830012  -1.5835003  93.4929988
 123.7020012  -2.0965003  92.7809988 125.3110012  -2.1635003  93.6879988
 123.5910012  -1.1215003  94.7719988 122.8320012  -0.3645003  94.4789988
 123.0230012  -1.9635003  95.2209988 124.4360012  -0.6005003  95.8459988
 125.6050012  -0.8745003  96.1239988 123.6920012   0.2344997  96.6219988
 124.2990012   0.7604997  97.7769988 123.4220012   0.9464997  98.4339988
 125.1870012   0.2464997  98.2029988 124.7930012   2.1754997  97.4939988
 125.8190012   2.0824997  97.0769988 125.0450012   2.9294997  98.8789988
 124.2990012   2.4924997  99.5759988 126.0110012   2.6214997  99.3319988
 124.8900012   4.3234997  98.8389988 123.8470012   5.0574997  99.8239988
 124.4610012   5.0884997 101.2569988 125.8680012   5.0274997 101.5739988
 126.4990012   5.5294997 100.8099988 126.0130012   5.6614997 102.4749988
 126.2360012   3.5584997 101.9309988 126.1490012   2.9654997 101.0329988
 127.2980012   3.4784997 102.1079988 125.5160012   2.7904997 103.0589988
 124.0860012   2.5104997 102.6679988 123.6830012   3.4794997 102.4129988
 124.1780012   1.8734997 101.8019988 123.5170012   2.0774997 103.4779988
 126.2360012   1.5364997 103.4069988 127.1330012   1.7464997 103.9709988
 125.5960012   0.8944997 103.9939988 126.6900012   1.0844997 102.5369988
 125.5530012   3.7114997 104.3209988 126.5980012   3.8484997 104.5569988
 124.9960012   3.2984997 105.1489988 125.2700012   4.7094997 104.0179988
 123.8130012   6.4634997  99.3479988 122.5850012   4.3274997  99.9519988
 123.7990012   2.9394997  96.7419988 124.1940012   3.5894997  95.7069988
 125.3950012   3.7034997  95.3659988 123.0330012   4.3014997  95.0859988
 123.1370012   5.4074997  95.0559988 122.0640012   4.0794997  95.5819988
 122.9000012   3.7644997  93.6769988 123.7840012   3.8584997  93.0109988
 122.1120012   4.4394997  93.2819988 122.2750012   2.3144997  93.6389988
 121.3720012   2.3984997  94.2799988 123.0140012   1.5384997  93.9319988
 121.7710012   1.9474997  92.2249988 122.5390012   2.1034997  91.4379988
 120.9380012   2.6164997  91.9209988 121.1910012   0.5124997  92.0709988
 120.4550012   0.3324997  92.8839988 121.9660012  -0.2815003  92.0129988
 120.2080012   0.3494997  90.8389988 119.4330012   1.1454997  90.8429988
 119.5120012  -0.5155003  90.8419988 120.9070012   0.3934997  89.4469988
 121.5040012   1.3074997  89.2429988 120.1130012   0.3514997  88.6709988
 121.7520012  -0.8415003  89.2809988 122.3390012  -0.9845003  90.2009988
 121.9740012  -1.5545003  88.1069988 122.6550012  -2.4175003  88.1589988
 121.2720012  -1.1505003  86.7739988 120.1990012  -0.9835003  87.0109988
 121.2180012  -2.0305003  86.0989988 121.7640012   0.0114997  85.9569988
 121.7110012   1.0034997  86.4549988 121.2460012   0.0084997  84.9739988
 123.2500012  -0.1615003  85.6709988 123.4500012  -1.1385003  85.1809988
 123.7740012  -0.0905003  86.6479988 123.7930012   0.8674997  84.6889988
 123.6910012   1.8904997  85.1099988 123.0200012   0.8554997  83.8909988
 125.1410012   0.6474997  83.9869988 124.9890012  -0.0585003  83.1419988
 125.7560012   0.1664997  84.7769988 125.8210012   1.9964997  83.6379988
 125.7980012   2.6954997  84.5009988 125.3850012   2.3844997  82.6919988
 127.2890012   1.7924997  83.2629988 127.2770012   1.2254997  82.3069988
 127.7120012   1.1334997  84.0499988 128.1720012   2.9784997  83.0809988
 129.2090012   2.6354997  83.2839988 127.9620012   3.7754997  83.8259988
 128.0290012   3.3244997  82.0349988 133.3990012   6.0764997  81.0499988
 133.5410012   7.1404997  81.3349988 133.8250012   5.9414997  80.0329988
 133.9780012   5.4594997  81.7699988 131.8840012   5.7064997  81.0309988
 131.4250012   6.2664997  80.1879988 131.7860012   4.6244997  80.7989988
 131.0860012   6.1794997  82.2839988 130.9230012   7.2504997  82.5319988
 130.0410012   5.8314997  82.1399988 131.5400012   5.3564997  83.4879988
 131.3810012   4.2974997  83.1919988 132.6070012   5.4934997  83.7639988
 130.8890012   5.7374997  84.8779988 129.7840012   5.6304997  84.8359988
 131.2550012   5.0314997  85.6539988 131.3120012   7.1684997  85.3899988
 132.4220012   7.1304997  85.4119988 131.0100012   7.9894997  84.7039988
 130.7490012   7.5074997  86.8249988 131.0340012   8.5514997  87.0769988
 129.6590012   7.4634997  86.6119988 130.8990012   6.5864997  88.0189988
 130.5040012   7.1694997  88.8779988 130.2610012   5.6894997  87.8649988
 132.3130012   6.1064997  88.4589988 132.6710012   5.2294997  87.8779988
 132.9730012   6.9754997  88.2549988 132.4690012   5.9464997  90.0429988
 131.7810012   6.5854997  90.6379988 132.2220012   4.8994997  90.3209988
 133.8390012   6.3604997  90.6759988 134.6490012   5.9374997  90.0449988
 133.8450012   7.4714997  90.6919988 134.0510012   5.7934997  92.1709988
 133.2810012   4.9984997  92.0749988 135.1230012   5.4994997  92.1489988
 133.8990012   6.8874997  93.2179988 134.8080012   7.5274997  93.2249988
 133.0280012   7.5174997  92.9399988 133.6970012   6.5304997  94.7109988
 134.6820012   6.1394997  95.0459988 133.4790012   7.5094997  95.1869988
 132.4910012   5.4984997  94.9779988 131.6250012   5.8284997  94.3639988
 132.9480012   4.5714997  94.5709988 132.2320012   5.4304997  96.3969988
 131.2070012   5.7094997  96.8989988 133.3540012   5.1384997  97.0299988
 133.2330012   5.0154997  98.4939988 132.2660012   5.4034997  98.8789988
 133.2810012   3.9274997  98.7149988 134.2950012   5.7834997  99.2129988
 135.2380012   5.2094997  99.0859988 133.9110012   5.9914997 100.7249988
 132.8860012   6.3374997 100.9789988 134.0320012   5.0194997 101.2479988
 134.8430012   6.9444997 101.2499988 134.4200012   8.4134997 101.7099988
 133.3500012   8.8084997 100.5679988 132.6970012  10.0994997 100.6029988
 133.4210012  10.9194997 100.7989988 132.3460012  10.2754997  99.5639988
 131.4620012  10.1994997 101.5219988 131.6990012  10.2774997 102.5729988
 130.9700012  11.1444997 101.3449988 130.4240012   9.1974997 101.4659988
 130.8430012   7.9534997 102.1969988 129.9760012   7.3124997 102.1339988
 131.8110012   7.6184997 101.8509988 131.0110012   8.2384997 103.2249988
 129.2330012   9.7904997 102.1739988 128.9600012  10.6874997 101.6389988
 128.4030012   9.1004997 102.1999988 129.4440012   9.9094997 103.2269988
 130.0940012   8.8714997 100.0399988 130.8830012   8.2454997  99.6509988
 129.9490012   9.7174997  99.3839988 129.1510012   8.3464997 100.0629988
 133.6530012   8.3184997 102.9969988 135.5480012   9.3694997 101.6529988
 134.4930012   7.0934997  98.6329988 135.5740012   7.3484997  97.8769988
 136.4400012   6.5514997  97.4959988 135.6050012   8.8374997  97.5449988
 135.7220012   9.3464997  98.5259988 134.6650012   9.0884997  97.0099988
 136.7220012   9.0244997  96.5729988 136.5650012   8.2714997  95.7709988
 137.6880012   8.7414997  97.0419988 136.7480012  10.4174997  95.9079988
 136.6720012  11.2314997  96.6599988 135.8080012  10.7144997  95.3969988
 137.9640012  10.5484997  95.0269988 138.9090012  10.7184997  95.5859988
 137.7440012  11.4584997  94.4299988 138.1970012   9.3444997  94.0999988
 137.1760012   9.0654997  93.7609988 138.4620012   8.4024997  94.6249988
 139.1610012   9.5594997  92.9239988 139.6870012   8.6574997  92.5439988
 139.9120012  10.3364997  93.1809988 138.4710012  10.0704997  91.6829988
 139.3260012  10.2764997  91.0049988 138.0400012  11.0724997  91.8919988
 137.4910012   9.0244997  91.1119988 137.9420012   8.0224997  91.0559988
 136.2480012   9.1404997  90.8379988 135.6740012   8.2304997  90.6109988
 135.3360012  10.3544997  91.0689988 135.8090012  11.1774997  91.6469988
 134.5080012  10.0444997  91.7429988 134.9500012  10.9574997  89.7079988
 135.8510012  11.0774997  89.0699988 134.6540012  12.0114997  89.8989988
 134.0120012  10.1324997  88.8049988 133.0560012  10.0994997  89.3699988
 134.3720012   9.1184997  88.5279988 133.7270012  10.8094997  87.4529988
 133.4150012  11.8534997  87.6689988 132.8220012  10.2834997  87.0789988
 134.9320012  10.8984997  86.4019988 135.9270012  10.8044997  86.8869988
 134.8330012  11.9274997  85.9959988 134.7810012   9.7304997  85.4179988
 134.6420012   8.7694997  85.9579988 135.7210012   9.6504997  84.8309988
 133.6540012   9.9094997  84.3929988 133.6200012  10.9694997  84.0609988
 132.6120012   9.7744997  84.7529988 133.6820012   8.8314997  83.3139988
 132.7220012   8.6694997  82.7799988 133.9770012   7.8594997  83.7639988
 134.4080012   9.1114997  82.5199988   6.3760012  28.1044997  82.0299988
   6.3060012  29.2094997  81.9409988   5.7780012  27.5744997  81.2579988
   7.4640012  27.9894997  81.8379988   5.9480012  27.7084997  83.4349988
   5.8330012  26.6064997  83.5159988   6.6290012  28.0684997  84.2369988
   4.5400012  28.2544997  83.7949988   4.5630012  29.3104997  83.4489988
   3.7480012  27.7544997  83.1979988   4.1870012  28.2094997  85.2459988
   4.4730012  27.2044997  85.6249988   4.7750012  28.9304997  85.8529988
   2.7130012  28.4174997  85.5559988   2.4820012  29.4524997  85.2269988
   2.1500012  27.7524997  84.8659988   2.3560012  28.1454997  87.0329988
   2.6050012  27.1454997  87.4469988   2.8790012  28.9464997  87.5979988
   0.8480012  28.2534997  87.3459988   0.6690012  28.4304997  88.4279988
   0.3360012  29.0514997  86.7659988   0.0700012  27.0044997  87.0709988
  -1.0199988  27.1414997  87.2359988   0.2360012  26.7794997  85.9959988
   0.4750012  25.7774997  88.0009988   1.3150012  25.3104997  87.4429988
   0.9360012  26.1494997  88.9409988  -0.7129988  24.8624997  88.2969988
  -1.3229988  25.4004997  89.0539988  -1.2389988  24.5334997  87.3759988
  -0.3199988  23.5184997  88.8749988  -1.2059988  22.9374997  89.2069988
  -0.0159988  22.8054997  88.0789988   0.7710012  23.3644997  89.9839988
   1.0000012  22.2814997  90.0809988   1.7420012  23.8794997  89.8219988
   0.4770012  23.8134997  91.3929988   0.4530012  24.9234997  91.4309988
  -0.4509988  23.4044997  91.8469988   1.6410012  23.4324997  92.3019988
   1.9610012  22.3754997  92.1759988   2.4620012  24.0764997  91.9209988
   1.3770012  23.7114997  93.7599988   1.1070012  24.7744997  93.9399988
   0.6370012  23.0244997  94.2229988   2.7060012  23.4684997  94.4499988
   3.6660012  22.9734997  93.9519988   2.6590012  23.8814997  95.7509988
   3.7330012  23.6774997  96.6279988   3.4280012  22.8664997  97.3229988
   4.6370012  23.2944997  96.1069988   4.1770012  24.9954997  97.3699988
   5.0580012  24.8534997  98.0319988   2.9660012  25.4644997  98.1769988
   2.2200012  25.8134997  97.4319988   2.6840012  24.5794997  98.7869988
   3.2890012  26.6004997  98.9629988   2.0200012  27.3974997  99.5169988
   2.4620012  27.7154997 101.0139988   3.7910012  28.2714997 101.3609988
   4.6360012  27.8964997 100.7449988   3.8240012  29.3674997 101.1839988
   4.0160012  28.0344997 102.8549988   5.0170012  28.3984997 103.0319988
   3.2260012  28.5244997 103.4049988   3.8840012  26.5964997 103.3889988
   2.5450012  25.9414997 103.0999988   2.5800012  24.9594997 103.5479988
   1.7510012  26.6134997 103.3889988   2.4430012  25.8214997 102.0319988
   4.9680012  25.7964997 102.8299988   4.8350012  25.7854997 101.7579988
   5.8700012  26.3824997 102.9209988   4.9850012  24.8284997 103.3099988
   4.1010012  26.6954997 104.8869988   5.0270012  27.1604997 105.1899988
   4.0950012  25.7474997 105.4049988   3.3530012  27.3734997 105.2709988
   2.0550012  28.6624997  98.7409988   0.7590012  26.6664997  99.5239988
   4.6310012  25.9934997  96.4419988   5.5470012  25.6404997  95.5119988
   6.3710012  24.7474997  95.6299988   5.5430012  26.5694997  94.3309988
   6.5770012  26.7624997  93.9729988   5.0710012  27.5484997  94.5599988
   4.8990012  26.0714997  93.0679988   3.7950012  25.9604997  93.0169988
   5.3290012  25.0514997  92.9719988   5.1320012  26.9534997  91.7649988
   6.1800012  27.2914997  91.9069988   4.4460012  27.8144997  91.6119988
   5.2180012  26.1634997  90.4579988   4.2280012  25.6754997  90.3309988
   5.8430012  25.2584997  90.6109988   5.6620012  26.8844997  89.1529988
   6.5560012  27.4944997  89.4059988   4.8760012  27.6154997  88.8649988
   6.1130012  25.8844997  88.1049988   6.8810012  25.2184997  88.5529988
   6.6000012  26.4184997  87.2609988   5.0290012  24.9624997  87.6429988
   4.2830012  25.5504997  87.0669988   4.4570012  24.5254997  88.4889988
   5.4250012  23.6814997  86.9019988   5.8420012  22.8864997  87.5369988
   5.2180012  23.3694997  85.6149988   5.6160012  22.4164997  85.2359988
   4.4940012  24.3654997  84.6009988   4.9830012  24.2584997  83.6099988
   4.6070012  25.4444997  84.8409988   2.9720012  24.1824997  84.4019988
   2.4280012  24.6994997  85.2209988   2.7360012  23.1184997  84.6199988
   2.4460012  24.6254997  83.0879988   2.8130012  23.9444997  82.2899988
   3.0650012  25.5374997  82.9559988   0.9440012  24.8864997  82.9729988
   0.6850012  25.6374997  83.7509988   0.4720012  23.8914997  83.1129988
   0.6000012  25.4264997  81.5579988   1.4620012  25.2704997  80.8749988
   0.3600012  26.5114997  81.5639988  -0.5869988  24.6574997  81.0149988
  -0.3819988  23.5664997  81.0039988  -0.8269988  24.9534997  79.9719988
  -1.9539988  24.6414997  81.7819988  -1.8799988  24.2284997  82.8109988
  -2.6229988  24.0184997  81.1509988  -2.5259988  26.0264997  82.0209988
  -2.5019988  26.6174997  81.0799988  -1.8239988  26.5794997  82.6809988
  -3.5579988  25.9264997  82.4209988 140.8210012 123.5954997  81.7369988
 140.1220012 122.9354997  82.2929988 141.7570012 123.0744997  81.4399988
 140.3550012 123.7924997  80.7479988 141.2060012 124.8494997  82.4999988
 141.9330012 125.4914997  81.9599988 140.2560012 125.4014997  82.6689988
 141.8750012 124.6374997  83.9799988 142.7900012 124.1074997  83.6389988
 142.2230012 125.6214997  84.3599988 141.1060012 123.8274997  85.0349988
 140.3560012 124.5114997  85.4869988 140.6520012 122.9824997  84.4719988
 142.0910012 123.3794997  86.0849988 142.7740012 124.2104997  86.3659988
 141.4750012 123.0944997  86.9639988 142.9700012 122.1514997  85.8389988
 142.2820012 121.2894997  85.9749988 143.3640012 122.0394997  84.8069988
 144.1280012 122.0984997  86.8839988 144.8040012 122.8274997  86.3879988
 143.8110012 122.2954997  87.9299988 144.7300012 120.6474997  87.0569988
 144.9500012 120.2964997  86.0259988 145.6620012 120.7104997  87.6579988
 143.7540012 119.6294997  87.7929988 142.7230012 119.7644997  87.4019988
 144.1420012 118.5944997  87.6759988 143.8260012 119.8564997  89.3419988
 144.8310012 120.2084997  89.6589988 143.0790012 120.6124997  89.6649988
 143.6250012 118.5084997  90.0119988 142.6360012 118.1384997  89.6649988
 144.4390012 117.8604997  89.6249988 143.5470012 118.5254997  91.5139988
 142.5030012 118.6634997  91.8669988 143.7150012 117.4904997  91.8829988
 144.6240012 119.5234997  92.1979988 145.6160012 119.1714997  91.8429988
 144.3000012 120.5434997  91.8999988 144.8160012 119.4354997  93.6969988
 144.9530012 118.3974997  94.0699988 145.6290012 120.1174997  94.0259988
 143.6130012 120.1284997  94.4649988 142.6950012 119.7294997  93.9829988
 143.7150012 119.7034997  95.4859988 143.6940012 121.5854997  94.6429988
 144.3920012 122.4664997  94.1059988 142.7380012 121.9214997  95.5569988
 142.6430012 123.3004997  95.8249988 143.6560012 123.7544997  95.7829988
 141.9480012 123.6684997  95.0399988 142.0890012 123.5784997  97.2639988
 141.9600012 124.6814997  97.2499988 143.1180012 123.2464997  98.3369988
 143.4950012 122.2084997  98.2089988 143.9970012 123.8634997  98.0539988
 142.5880012 123.4944997  99.6179988 142.2700012 122.2944997 100.6029988
 141.7710012 123.1384997 101.8249988 140.5280012 123.8074997 101.6129988
 140.5880012 124.7594997 102.1819988 140.2800012 124.1194997 100.5759988
 139.3400012 122.9604997 102.1669988 139.2810012 122.1594997 101.4449988
 139.6100012 122.6024997 103.1489988 137.9470012 123.6384997 102.2609988
 137.0560012 122.5264997 102.7039988 137.1590012 122.3214997 103.7599988
 136.0190012 122.7864997 102.5529988 137.3310012 121.6804997 102.0919988
 138.0290012 124.6704997 103.3179988 137.0940012 125.2064997 103.3889988
 138.2110012 124.1734997 104.2589988 138.6920012 125.4744997 103.0369988
 137.5230012 124.1774997 100.9159988 137.2230012 123.4074997 100.2199988
 138.2880012 124.8724997 100.6009988 136.6720012 124.8214997 101.0759988
 141.1890012 121.4504997 100.0559988 143.4840012 121.6864997 101.0999988
 140.8900012 122.8234997  97.4819988 139.8320012 123.2084997  96.7369988
 139.7450012 124.2054997  96.0299988 138.7120012 122.2634997  96.9859988
 137.7920012 122.8124997  97.2819988 138.8910012 121.6144997  97.8689988
 138.2920012 121.4354997  95.7329988 138.1100012 122.1244997  94.8809988
 137.4390012 120.7614997  95.9619988 139.4650012 120.5164997  95.4129988
 139.6120012 119.9124997  96.3339988 140.3740012 121.0864997  95.1289988
 139.1020012 119.4204997  94.3289988 137.9970012 119.3344997  94.4069988
 139.5700012 118.5194997  94.7799988 139.6730012 119.7744997  92.8809988
 139.3040012 119.0024997  92.1729988 140.7750012 119.6504997  92.9469988
 139.4540012 121.1744997  92.3979988 139.8110012 121.9834997  93.0699988
 138.3590012 121.3634997  92.3709988 140.2100012 121.5324997  91.0209988
 141.2630012 121.7794997  91.2749988 139.7660012 122.5044997  90.7179988
 140.0740012 120.6384997  89.7889988 140.8990012 119.9144997  89.7259988
 139.1000012 120.6534997  88.8739988 139.2800012 120.0384997  87.9799988
 137.8860012 121.6254997  88.8629988 138.0390012 122.4824997  89.5529988
 136.9690012 121.1774997  89.3029988 137.7190012 122.3574997  87.4729988
 137.3520012 121.4884997  86.8859988 138.6860012 122.6924997  87.0399988
 136.5790012 123.4764997  87.3909988 137.0520012 124.3224997  87.9339988
 135.7220012 123.0044997  87.9169988 136.1850012 123.8004997  85.9199988
 135.3730012 124.5574997  85.8839988 135.8250012 122.9364997  85.3219988
 137.3390012 124.3004997  85.0099988 138.1480012 123.5684997  85.2199988
 137.5680012 125.3814997  85.1229988 137.1080012 124.0894997  83.4779988
 137.8800012 124.7034997  82.9669988 136.1730012 124.5524997  83.0969988
 137.1710012 122.6764997  82.9199988 137.6540012 122.0944997  83.7349988
 137.8350012 122.7544997  82.0339988 135.8530012 122.0004997  82.5889988
 135.4230012 121.7264997  83.5759988 135.9460012 121.0754997  81.9809988
 135.2380012 122.6914997  81.9729988 141.2140012  11.8104997  81.5029988
 140.2950012  11.3104997  81.8779988 141.9370012  11.0904997  81.0629988
 140.9550012  12.5744997  80.7389988 141.9000012  12.4834997  82.6979988
 142.8680012  12.9804997  82.4719988 141.2380012  13.2984997  83.0609988
 142.1920012  11.4834997  83.8499988 141.2450012  10.9304997  84.0269988
 143.0460012  10.8244997  83.5849988 142.5930012  12.2934997  85.1329988
 143.3180012  13.0154997  84.7019988 141.7520012  12.7934997  85.6589988
 143.2630012  11.4584997  86.1949988 142.5070012  10.8084997  86.6859988
 144.0600012  10.7884997  85.8059988 143.9420012  12.3464997  87.2939988
 144.3450012  11.5184997  87.9139988 144.7760012  12.8644997  86.7739988
 143.0470012  13.3644997  88.0719988 143.6240012  13.9214997  88.8399988
 142.6300012  14.1414997  87.3959988 141.9230012  12.6574997  88.8419988
 141.1490012  13.3924997  89.1499988 141.5550012  11.9074997  88.1099988
 142.5380012  12.0194997  90.1149988 143.5160012  11.5324997  89.9119988
 142.6670012  12.8504997  90.8409988 141.7360012  11.0034997  90.9509988
 141.4800012  10.0964997  90.3619988 142.3100012  10.6434997  91.8319988
 140.3930012  11.6174997  91.4999988 140.5340012  12.3474997  92.3259988
 139.8880012  11.9744997  90.5779988 139.5270012  10.5024997  92.0789988
 138.4860012  10.6294997  91.7139988 139.8950012   9.5214997  91.7089988
 139.4700012  10.3674997  93.6319988 138.9400012  11.2724997  93.9969988
 138.8200012   9.4934997  93.8519988 140.8660012  10.2744997  94.2359988
 141.4490012   9.5054997  93.6849988 141.3650012  11.2374997  93.9969988
 140.9940012   9.9254997  95.7309988 140.2210012  10.3934997  96.3769988
 140.8740012   8.8264997  95.8359988 142.3420012  10.3604997  96.3789988
 143.0770012  11.0954997  95.7729988 142.4040012   9.8904997  97.6109988
 143.6490012  10.0504997  98.3879988 143.7150012   9.1284997  99.0029988
 144.5140012  10.2374997  97.7159988 143.5910012  11.3584997  99.2239988
 144.5970012  11.3924997  99.6929988 142.6020012  11.1714997 100.4069988
 142.7480012  10.1334997 100.7749988 142.8070012  11.7914997 101.3069988
 141.2610012  11.3794997  99.9409988 140.0530012  11.2004997 100.9929988
 140.6510012  11.8584997 102.3419988 140.3330012  13.1794997 102.6579988
 139.2700012  13.1834997 102.9809988 140.8790012  13.4424997 103.5889988
 140.5790012  14.1964997 101.4939988 141.6110012  14.0604997 101.2059988
 139.9250012  13.8294997 100.7159988 140.3210012  15.6724997 101.6789988
 141.2360012  16.1664997 102.7759988 142.2810012  16.2234997 102.5099988
 140.9190012  17.1844997 102.9489988 141.0790012  15.5354997 103.6389988
 140.5980012  16.4394997 100.4439988 140.1100012  17.3924997 100.5859988
 141.6420012  16.4014997 100.1699988 139.9690012  16.0894997  99.6399988
 138.8340012  15.8124997 102.1109988 138.2720012  15.2584997 101.3739988
 138.5130012  16.8434997 102.0959988 138.6070012  15.4574997 103.1049988
 138.8280012  11.8604997 100.5969988 139.8780012   9.7654997 101.1459988
 143.4140012  12.4774997  98.3869988 143.6210012  13.6714997  98.9849988
 143.9420012  13.8304997 100.1979988 143.5050012  14.8104997  97.9969988
 144.2700012  15.5844997  98.2189988 142.5880012  15.4094997  98.1849988
 143.9060012  14.4134997  96.5649988 143.1760012  13.6434997  96.2339988
 144.9150012  13.9754997  96.7209988 144.0030012  15.6084997  95.5469988
 144.8810012  16.2604997  95.7409988 143.0570012  16.1894997  95.4969988
 144.2870012  15.0304997  94.1069988 144.8730012  14.0924997  94.2049988
 144.8040012  15.7724997  93.4619988 142.9800012  14.7754997  93.3319988
 142.3300012  14.0974997  93.9239988 143.2370012  14.3694997  92.3299988
 142.2410012  16.0974997  92.8649988 142.9700012  16.6904997  92.2719988
 141.9870012  16.6744997  93.7789988 141.0200012  15.9404997  91.9599988
 140.1220012  15.7034997  92.5679988 141.1680012  15.0074997  91.3749988
 140.6990012  17.2514997  91.2409988 140.3060012  18.0674997  91.8659988
 140.9850012  17.4614997  89.9129988 140.6230012  18.4074997  89.4839988
 141.6460012  16.5124997  88.9759988 141.6220012  15.4374997  89.2549988
 142.7150012  16.8174997  88.9799988 140.9800012  16.5704997  87.5539988
 141.7290012  16.1544997  86.8459988 140.8750012  17.6334997  87.2469988
 139.7480012  15.7014997  87.4599988 139.0460012  16.1134997  88.2159988
 140.0060012  14.6654997  87.7669988 139.0430012  15.7364997  86.0519988
 139.6150012  16.2294997  85.2369988 138.0840012  16.2924997  86.1299988
 138.6970012  14.3934997  85.4659988 137.7750012  14.0184997  85.9589988
 139.4730012  13.6374997  85.7129988 138.4980012  14.4724997  83.9629988
 138.5100012  13.4794997  83.4649988 139.3660012  15.0224997  83.5389988
 137.2780012  15.1334997  83.2729988 137.3550012  14.7384997  82.2379988
 137.4800012  16.1844997  83.5719988 135.9230012  14.6844997  83.8649988
 135.9050012  15.0634997  84.9089988 136.0380012  13.5804997  83.8999988
 135.0850012  15.1124997  83.2749988  12.3810012  12.0874997  83.0649988
  11.2730012  12.0024997  83.0579988  12.7540012  11.0434997  83.1379988
  12.5980012  12.6544997  82.1349988  12.8390012  12.9724997  84.2729988
  13.9460012  13.0714997  84.2849988  12.4960012  14.0244997  84.1679988
  12.2440012  12.5494997  85.6039988  12.8180012  13.1814997  86.3149988
  11.1920012  12.8914997  85.7159988  12.3720012  11.0314997  85.9879988
  11.3640012  10.5704997  85.9149988  13.0150012  10.5934997  85.1939988
  12.8960012  10.7074997  87.4509988  12.9990012   9.6054997  87.5549988
  13.9330012  11.1054997  87.4669988  12.0660012  11.2514997  88.5989988
  12.6890012  11.0404997  89.4949988  11.8990012  12.3424997  88.4719988
  10.7910012  10.5224997  88.8079988  10.0620012  10.7364997  87.9969988
  10.9880012   9.4304997  88.8469988   9.9530012  10.6724997  90.1609988
   9.0830012   9.9844997  90.2339988  10.6310012  10.3804997  90.9909988
   9.5210012  12.1324997  90.4209988  10.4860012  12.6704997  90.5359988
   8.9100012  12.4294997  89.5419988   8.6880012  12.2704997  91.6789988
   8.5240012  13.3654997  91.7699988   7.6740012  11.8374997  91.5419988
   9.3150012  11.8544997  93.0189988   9.3560012  10.7444997  93.0519988
  10.2940012  12.3694997  93.1249988   8.4170012  12.1494997  94.2899988
   8.4920012  13.2444997  94.4589988   7.3700012  12.0834997  93.9259988
   8.5500012  11.3494997  95.5229988   9.5630012  11.6494997  95.8669988
   7.8220012  11.6524997  96.3059988   8.2260012   9.8954997  95.3669988
   7.1640012   9.7624997  95.0699988   8.8460012   9.4864997  94.5409988
   8.1880012   9.0194997  96.6909988   7.5100012   9.4454997  97.4609988
   7.7770012   8.0014997  96.5199988   9.6010012   8.7704997  97.2569988
  10.5670012   8.4164997  96.5829988   9.6490012   8.9364997  98.6039988
  10.9280012   8.7214997  99.2269988  10.7490012   8.1664997 100.1729988
  11.4820012   7.9554997  98.6439988  11.6970012  10.0494997  99.4189988
  12.6070012   9.8984997 100.0389988  10.9620012  11.1024997 100.2989988
  10.6730012  10.4504997 101.1499988  11.6770012  11.8884997 100.6229988
   9.8350012  11.6934997  99.6809988   9.2730012  12.9424997 100.4409988
  10.4660012  13.7314997 101.0019988  10.4870012  15.1614997 100.7309988
  10.4610012  15.2864997  99.6269988   9.6200012  15.7004997 101.1699988
  11.9170012  15.6764997 101.1169988  12.5790012  15.0474997 100.5389988
  12.0580012  16.7184997 100.8699988  12.2680012  15.4844997 102.5699988
  12.3820012  14.0964997 103.0649988  13.1660012  13.6454997 102.4739988
  12.7440012  14.1394997 104.0819988  11.4550012  13.5454997 103.0119988
  13.4760012  16.1724997 102.8319988  13.5210012  17.1774997 102.4389988
  13.5880012  16.4214997 103.8759988  14.4020012  15.7054997 102.5269988
  11.2420012  15.9914997 103.5469988  10.9680012  17.0064997 103.2989988
  11.5540012  15.9724997 104.5809988  10.3880012  15.3424997 103.4229988
   8.4910012  13.8574997  99.4879988   8.5320012  12.5094997 101.7079988
  12.0370012  10.4564997  98.1199988  12.8900012  11.4874997  97.9689988
  13.5830012  11.8994997  98.8619988  12.8530012  12.0114997  96.5159988
  11.8030012  12.0764997  96.1589988  13.3210012  11.2994997  95.8019988
  13.5460012  13.3484997  96.2639988  13.3340012  13.5574997  95.1929988
  14.6280012  13.1684997  96.4369988  13.0660012  14.5904997  97.1459988
  13.7940012  15.4084997  96.9629988  13.2500012  14.3274997  98.2099988
  11.6100012  15.0534997  96.9159988  11.3120012  15.8774997  97.5979988
  11.0310012  14.1414997  97.1739988  11.2520012  15.5334997  95.4429988
  11.3110012  14.5914997  94.8559988  11.9680012  16.3304997  95.1519988
   9.7850012  15.9624997  95.2549988   9.5280012  16.9354997  95.7269988
   9.2980012  15.1224997  95.7959988   9.2620012  15.9264997  93.8469988
   8.1580012  15.8454997  93.9369988   9.7020012  14.9674997  93.4969988
   9.8070012  17.0904997  92.9799988   9.6610012  18.0974997  93.3969988
  10.4540012  16.9344997  91.8189988  10.7700012  17.8564997  91.3099988
  10.8230012  15.5614997  91.1539988   9.9340012  14.9374997  90.9209988
  11.4440012  15.0604997  91.9279988  11.7100012  15.6334997  89.8499988
  12.0830012  14.6094997  89.6369988  12.5150012  16.3804997  90.0179988
  11.0240012  16.2434997  88.6299988  10.5520012  17.2384997  88.7749988
  10.1770012  15.5584997  88.4099988  11.9830012  16.4744997  87.4329988
  12.3790012  15.4854997  87.1149988  12.8160012  17.1014997  87.8179988
  11.4640012  17.3424997  86.2649988  12.2940012  17.4754997  85.5379988
  11.2880012  18.2814997  86.8319988  10.0120012  16.9654997  85.6999988
   9.3450012  17.8004997  85.3979988   9.5330012  16.5144997  86.5949988
   9.9420012  15.8734997  84.6519988  10.4240012  14.9314997  84.9889988
  10.4930012  16.3344997  83.8049988   8.4830012  15.4404997  84.1659988
   7.9550012  16.3994997  83.9779988   8.1200012  14.7894997  84.9899988
   8.5500012  14.7724997  83.2799988   3.7100012 144.8984997  84.1219988
   4.0100012 145.8824997  83.7019988   2.8780012 144.9944997  84.8519988
   3.2950012 144.4394997  83.1999988   4.8760012 144.0794997  84.5899988
   4.4010012 143.3304997  85.2589988   5.2730012 143.6504997  83.6449988
   5.8990012 144.8104997  85.3319988   6.5110012 145.2744997  84.5279988
   5.4670012 145.6084997  85.9719988   6.7690012 143.9334997  86.2339988
   7.1520012 143.0834997  85.6299988   7.5780012 144.6214997  86.5629988
   6.0030012 143.3894997  87.5059988   5.0450012 142.8794997  87.2689988
   6.7390012 142.6534997  87.8929988   5.8200012 144.5804997  88.4709988
   6.7110012 145.2354997  88.3649988   5.0110012 145.2304997  88.0749988
   5.6460012 144.1084997  89.9899988   6.6510012 143.9124997  90.4209988
   5.3200012 144.9034997  90.6949988   4.5480012 143.0094997  90.2609988
   4.7380012 142.0204997  89.7919988   4.4060012 142.8344997  91.3489988
   3.1750012 143.4814997  89.8419988   3.0150012 144.5514997  90.0929988
   3.2210012 143.5394997  88.7339988   2.0180012 142.5584997  90.2179988
   1.9900012 141.6764997  89.5429988   2.1160012 142.1544997  91.2479988
   0.6960012 143.1864997  90.2909988   0.4800012 143.4424997  89.2319988
  -0.0539988 142.3734997  90.3999988   0.4330012 144.2294997  91.3619988
   1.1320012 144.1534997  92.2219988   0.6930012 145.1084997  90.7339988
  -1.0339988 144.0954997  91.8519988  -1.7349988 143.7914997  91.0459988
  -0.8789988 143.1274997  92.3749988  -1.6909988 145.2404997  92.5489988
  -1.8259988 146.1144997  91.8769988  -2.6699988 145.0024997  93.0169988
  -0.9539988 145.7974997  93.7229988   0.0290012 146.2474997  93.4649988
  -1.4379988 146.6544997  94.2379988  -0.9159988 144.7424997  94.8399988
  -1.3909988 143.6114997  94.7609988  -0.5319988 145.3124997  95.9089988
  -0.2779988 144.4324997  97.0129988  -0.2719988 145.1074997  97.8949988
  -0.9109988 143.5394997  97.2039988   1.2170012 143.8904997  96.9729988
   1.3370012 143.2054997  96.1069988   1.5220012 143.0554997  98.2619988
   1.0530012 142.0484997  98.2709988   2.6180012 142.9394997  98.3989988
   0.9980012 143.6994997  99.3559988   1.6840012 143.9414997 100.7529988
   3.1340012 144.4294997 100.4069988   3.4070012 145.8694997 100.2959988
   4.2530012 145.8864997  99.5759988   2.6030012 146.4774997  99.8289988
   3.8120012 146.5154997 101.6669988   4.1070012 147.5414997 101.5009988
   2.9310012 146.6424997 102.2789988   4.8420012 145.7984997 102.4929988
   6.0810012 145.4604997 101.6559988   5.8040012 144.5904997 101.0789988
   6.4260012 146.2194997 100.9689988   6.8760012 145.1524997 102.3189988
   5.1700012 146.8464997 103.5609988   4.2950012 147.1024997 104.1399988
   5.7760012 146.3404997 104.2979988   5.6540012 147.7254997 103.1619988
   4.2450012 144.6414997 103.1669988   3.2550012 144.8374997 103.5519988
   4.9720012 144.2964997 103.8879988   4.1450012 143.9764997 102.3219988
   0.9240012 144.9224997 101.5199988   1.7800012 142.5924997 101.3049988
   2.1160012 145.0304997  96.8669988   3.3880012 144.6524997  96.4359988
   3.7140012 143.5054997  96.1599988   4.3660012 145.7954997  96.3589988
   5.1520012 145.5174997  97.0929988   4.0140012 146.8014997  96.6739988
   4.9520012 145.9654997  94.9249988   5.3660012 145.0284997  94.4949988
   5.8820012 146.5514997  95.0909988   4.0920012 146.8154997  93.9339988
   3.5020012 147.5894997  94.4689988   3.4350012 146.0794997  93.4239988
   4.9700012 147.2544997  92.7819988   5.5270012 146.3494997  92.4579988
   5.7070012 148.0294997  93.0849988   4.2660012 147.8044997  91.4809988
   3.7670012 148.7664997  91.7259988   3.5050012 147.0684997  91.1439988
   5.3450012 148.0254997  90.4359988   6.0270012 147.1484997  90.4599988
   5.9600012 148.9464997  90.5259988   4.7330012 148.0414997  89.0999988
   4.2260012 147.0554997  89.0279988   5.6280012 147.9964997  88.4429988
   3.7880012 149.2364997  88.7349988   4.2550012 150.2254997  88.8549988
   2.5430012 149.0454997  88.2829988   1.9380012 149.9014997  87.9489988
   1.7870012 147.7994997  88.0059988   2.3460012 146.8394997  88.0069988
   1.3120012 148.0124997  87.0239988   0.6040012 147.7934997  89.0779988
   0.1850012 148.8224997  89.1089988   1.0910012 147.4074997  89.9989988
  -0.4709988 146.7224997  88.6779988  -0.9969988 146.3544997  89.5859988
   0.1260012 145.8504997  88.3339988  -1.4029988 147.1904997  87.5569988
  -0.8889988 147.5634997  86.6459988  -1.8289988 148.1494997  87.9229988
  -2.4689988 146.1444997  87.0659988  -3.3119988 146.6284997  86.5279988
  -2.9359988 145.6864997  87.9639988  -1.8629988 144.9684997  86.2549988
  -2.7019988 144.3104997  85.9439988  -1.1319988 144.4254997  86.8919988
  -1.0809988 145.3914997  84.9869988  -0.9789988 144.5454997  84.2739988
  -0.1139988 145.8694997  85.2539988  -1.9189988 146.4754997  84.2289988
  -2.9849988 146.1834997  84.1169988  -1.6129988 146.6804997  83.1809988
  -1.8049988 147.4364997  84.7729988 115.2990012 142.5844997  82.9609988
 114.4610012 141.9094997  82.6829988 116.0950012 142.2894997  82.2439988
 115.1490012 143.6824997  82.8799988 115.8180012 142.2554997  84.4429988
 114.9860012 142.3964997  85.1659988 116.1170012 141.1854997  84.4249988
 117.0210012 142.9814997  84.9309988 117.9130012 142.7974997  84.2939988
 116.7940012 144.0674997  84.8739988 117.3370012 142.5914997  86.3409988
 116.4140012 142.6154997  86.9589988 117.6520012 141.5254997  86.3179988
 118.3680012 143.4284997  86.9909988 119.3510012 142.9734997  86.7429988
 118.2910012 144.4134997  86.4829988 118.1690012 143.6194997  88.5439988
 118.7310012 144.5094997  88.8989988 117.0780012 143.7924997  88.6579988
 118.5100012 142.3894997  89.2939988 117.9850012 141.5144997  88.8549988
 119.5820012 142.3404997  89.0049988 118.2250012 142.6254997  90.7249988
 118.7530012 143.5344997  91.0849988 117.1460012 142.7134997  90.9779988
 118.8910012 141.5794997  91.6499988 118.2220012 141.2644997  92.4789988
 119.1070012 140.6404997  91.0969988 120.2190012 141.9724997  92.2759988
 120.7570012 141.0574997  92.6029988 120.8690012 142.4344997  91.5019988
 120.2330012 142.8934997  93.5019988 121.2650012 143.3054997  93.5309988
 119.5080012 143.7214997  93.3579988 120.1020012 142.1394997  94.8819988
 119.0940012 141.6824997  94.9839988 120.7760012 141.2634997  94.9979988
 120.0980012 143.2554997  96.0349988 119.2010012 143.8914997  95.8789988
 119.9670012 142.6444997  96.9539988 121.4270012 144.1144997  96.2399988
 122.1780012 143.3304997  96.4759988 121.6740012 144.4424997  95.2069988
 121.3260012 145.1374997  97.3729988 121.0060012 144.6664997  98.3269988
 122.3150012 145.6204997  97.5209988 120.2790012 146.1764997  96.8609988
 119.8160012 146.3014997  95.7339988 119.9580012 146.9334997  97.8919988
 118.8820012 147.8394997  97.7779988 119.0620012 148.7074997  98.4479988
 118.7850012 148.3334997  96.7879988 117.4940012 147.2014997  98.2349988
 116.7790012 148.0514997  98.2389988 117.5100012 146.5004997  99.5999988
 117.7060012 147.3224997 100.3199988 116.5830012 145.9564997  99.8789988
 118.5770012 145.6644997  99.6819988 118.3500012 144.0524997  99.9469988
 117.5820012 143.9964997 101.2869988 117.8760012 144.8244997 102.4239988
 118.0340012 144.2174997 103.3409988 118.7500012 145.4944997 102.2709988
 116.6140012 145.7254997 102.6749988 116.7890012 146.1164997 103.6669988
 116.6170012 146.4814997 101.9039988 115.2980012 144.9654997 102.7239988
 114.7150012 144.4354997 101.4729988 115.0410012 143.4424997 101.2029988
 113.6420012 144.5004997 101.5789988 115.1120012 145.0974997 100.7169988
 115.3780012 143.8884997 103.7619988 115.9980012 143.0484997 103.4839988
 115.7500012 144.4034997 104.6349988 114.4120012 143.4274997 103.9039988
 114.2550012 145.9124997 103.3159988 113.9920012 146.6324997 102.5559988
 114.5390012 146.2684997 104.2959988 113.3430012 145.3594997 103.4829988
 117.4810012 143.5804997  98.8089988 119.6790012 143.3694997 100.0809988
 117.1370012 146.3384997  97.1289988 115.9060012 145.8084997  97.0709988
 114.9550012 146.1374997  97.7399988 115.8120012 144.8414997  95.9089988
 115.3190012 143.8764997  96.1539988 116.7870012 144.4974997  95.5039988
 115.1450012 145.5844997  94.7609988 114.2300012 146.1454997  95.0449988
 114.9440012 144.8424997  93.9589988 116.0720012 146.6664997  93.9989988
 116.6180012 147.2304997  94.7849988 115.5720012 147.4054997  93.3379988
 117.2330012 146.1264997  93.0759988 116.9150012 145.5854997  92.1589988
 117.7130012 145.3614997  93.7239988 118.1150012 147.3264997  92.6289988
 118.5260012 147.8924997  93.4919988 117.4930012 148.0164997  92.0189988
 119.4330012 146.8634997  91.9139988 119.1240012 146.2494997  91.0409988
 120.0140012 146.1474997  92.5349988 120.2940012 148.0794997  91.4809988
 120.5860012 148.6424997  92.3929988 119.5640012 148.7664997  91.0029988
 121.4430012 147.6504997  90.5909988 122.1240012 146.9284997  91.0649988
 121.7460012 148.0444997  89.3349988 122.6080012 147.5604997  88.8539988
 120.9740012 149.0204997  88.4449988 121.5740012 149.9544997  88.4889988
 119.8970012 149.1554997  88.6839988 120.8740012 148.5264997  86.9649988
 121.7300012 147.8694997  86.7019988 120.9750012 149.3444997  86.2199988
 119.5770012 147.7164997  86.6799988 118.7760012 148.4814997  86.5989988
 119.4490012 147.1014997  87.5959988 119.5330012 146.9344997  85.3829988
 118.5230012 146.4744997  85.3319988 120.3490012 146.1834997  85.3039988
 119.5740012 147.8924997  84.1769988 120.5830012 148.3544997  84.1319988
 118.7620012 148.6344997  84.3359988 119.4850012 147.0714997  82.8359988
 119.1580012 146.0854997  83.2289988 120.4810012 146.9024997  82.3729988
 118.4560012 147.5294997  81.7539988 118.9340012 148.3454997  81.1699988
 117.5800012 147.8594997  82.3519988 117.8360012 146.4294997  80.8639988
 116.9050012 146.8914997  80.4709988 117.5500012 145.5224997  81.4379988
 118.4700012 146.2584997  79.9679988  21.7900012  -1.5025003  82.5859988
  22.6270012  -2.1165003  82.9819988  21.5670012  -1.8545003  81.5559988
  20.8600012  -1.5795003  83.1889988  22.1290012  -0.0015003  82.4689988
  22.9670012   0.3334997  81.8219988  21.2670012   0.5034997  81.9829988
  22.4970012   0.7244997  83.7789988  23.4640012   0.3004997  84.1239988
  22.5830012   1.8304997  83.7159988  21.6140012   0.4294997  84.9949988
  20.5510012   0.7274997  84.8759988  21.5890012  -0.6645003  85.1869988
  22.1970012   1.1844997  86.2699988  21.8930012   0.5964997  87.1619988
  23.3060012   1.2404997  86.2349988  21.6630012   2.6464997  86.5039988
  21.8560012   3.2814997  85.6129988  20.5940012   2.7074997  86.7979988
  22.2550012   3.3494997  87.6989988  22.0320012   2.6334997  88.5179988
  23.3530012   3.2844997  87.5469988  21.7210012   4.8124997  88.0939988
  22.5480012   5.4394997  88.4909988  21.3720012   5.2894997  87.1529988
  20.5930012   4.7424997  89.1449988  19.9850012   5.6724997  89.1749988
  19.8480012   3.9524997  88.9089988  21.1670012   4.5054997  90.5779988
  22.2380012   4.2394997  90.4469988  21.0170012   5.4134997  91.2009988
  20.3360012   3.3184997  91.2359988  20.4200012   3.4944997  92.3289988
  19.3140012   3.4144997  90.8129988  20.7700012   1.8564997  90.9619988
  20.0570012   1.1774997  91.4759988  20.7830012   1.7164997  89.8599988
  22.1710012   1.4954997  91.4909988  22.4680012   0.4514997  91.2529988
  22.9840012   2.0814997  91.0119988  22.3590012   1.5904997  93.0239988
  22.8260012   2.5864997  93.1819988  21.3160012   1.5964997  93.4069988
  23.1460012   0.4804997  93.6339988  22.7310012  -0.5195003  93.3859988
  24.2280012   0.5364997  93.3859988  22.9930012   0.5884997  95.1819988
  22.7780012  -0.3495003  95.9509988  23.2140012   1.7864997  95.5649988
  23.2200012   2.0234997  97.0189988  23.7030012   1.2584997  97.6629988
  23.8040012   2.9534997  97.1839988  21.8650012   2.3864997  97.6229988
  21.4890012   3.3024997  97.1169988  22.0590012   2.5944997  99.2169988
  22.5720012   1.6254997  99.3939988  22.6520012   3.5084997  99.4339988
  20.7480012   2.7314997  99.9149988  20.7390012   2.6484997 101.5069988
  19.3090012   3.0864997 102.0379988  18.1660012   3.0204997 101.2249988
  17.3070012   3.4704997 101.7679988  18.3100012   3.7654997 100.4129988
  17.8990012   1.5514997 100.6629988  17.3550012   1.5994997  99.7319988
  18.8870012   1.1714997 100.4479988  17.2640012   0.5064997 101.5459988
  15.8140012   0.9544997 101.8449988  15.3400012   0.2544997 102.5169988
  15.6510012   1.9324997 102.2729988  15.4030012   0.9694997 100.8469988
  17.2770012  -0.8755003 100.7889988  16.6190012  -0.8825003  99.9319988
  18.3020012  -1.1545003 100.5949988  16.8720012  -1.5915003 101.4889988
  17.9960012   0.3004997 102.8149988  17.5390012  -0.4475003 103.4469988
  17.9600012   1.1804997 103.4399988  19.0290012   0.1684997 102.5309988
  20.9380012   1.2514997 101.8569988  21.7970012   3.5954997 101.9809988
  20.9780012   1.2814997  97.4479988  19.9260012   1.5084997  96.6269988
  19.7720012   2.5314997  95.9509988  19.0130012   0.3214997  96.6439988
  18.4170012   0.4644997  97.5699988  19.5630012  -0.6275003  96.8169988
  17.9920012   0.3654997  95.4799988  17.4160012   1.3034997  95.3259988
  17.2220012  -0.3345003  95.8699988  18.5930012  -0.0665003  94.1589988
  19.1930012  -0.9785003  94.3689988  19.2720012   0.7444997  93.8209988
  17.5660012  -0.2135003  93.0919988  17.6870012   0.5854997  92.3299988
  16.5180012  -0.3155003  93.4459988  17.8660012  -1.3565003  92.0999988
  17.8640012  -2.3045003  92.6779988  18.8940012  -1.1665003  91.7229988
  16.8480012  -1.2935003  90.9519988  15.8930012  -0.9985003  91.4369988
  16.7880012  -2.3205003  90.5329988  17.0060012  -0.2165003  89.9179988
  16.9420012   0.7514997  90.4599988  16.1330012  -0.1275003  89.2359988
  18.2280012  -0.3025003  89.0659988  18.8000012   0.6014997  89.3239988
  18.4780012  -1.0485003  87.9929988  19.4630012  -0.9045003  87.5239988
  17.6270012  -2.0665003  87.2269988  16.8760012  -2.4835003  87.9329988
  18.3500012  -2.8865003  87.0299988  16.9580012  -1.6305003  85.9949988
  16.1090012  -1.0485003  86.4149988  16.4040012  -2.4285003  85.4569988
  17.8620012  -0.9625003  84.9389988  18.7700012  -1.5645003  84.7199988
  18.1800012   0.0234997  85.3419988  17.1210012  -0.6135003  83.5809988
  16.7050012  -1.5675003  83.1939988  17.7610012  -0.0555003  82.8639988
  15.8750012   0.2714997  83.7949988  16.3150012   1.2204997  84.1689988
  15.2100012  -0.1825003  84.5609988  15.1070012   0.6194997  82.5409988
  14.7040012  -0.2865003  82.0389988  15.8660012   1.1214997  81.9029988
  13.8690012   1.6044997  82.7129988  13.2750012   1.1524997  83.5359988
  13.2650012   1.7954997  81.8009988  14.2730012   2.9384997  83.3009988
  15.0040012   2.8074997  84.1269988  13.4440012   3.5774997  83.6749988
  14.9380012   3.4564997  82.5779988 127.5550012 141.6024997  82.5969988
 127.1840012 142.4684997  82.0079988 128.0250012 140.8694997  81.9069988
 128.4000012 141.8864997  83.2609988 126.5210012 140.9584997  83.4709988
 125.9690012 140.3104997  82.7579988 126.9920012 140.2904997  84.2239988
 125.5740012 141.8834997  84.2659988 125.5080012 141.4834997  85.2999988
 125.8700012 142.9464997  84.3939988 124.2160012 141.9634997  83.5459988
 124.4680012 142.6084997  82.6769988 123.9600012 140.9634997  83.1359988
 123.0470012 142.6264997  84.2299988 123.2580012 143.6794997  84.5149988
 122.2360012 142.7304997  83.4769988 122.3260012 141.8934997  85.4339988
 122.9240012 142.1014997  86.3479988 121.3530012 142.3824997  85.6539988
 121.9540012 140.4074997  85.4329988 121.2490012 140.2344997  84.5929988
 122.9020012 139.8634997  85.2309988 121.4310012 139.7844997  86.7599988
 121.1980012 138.6994997  86.7169988 122.2560012 140.0054997  87.4709988
 120.1540012 140.4574997  87.3469988 120.4490012 141.5234997  87.4539988
 119.3680012 140.4554997  86.5619988 119.6700012 139.9094997  88.7209988
 118.9380012 140.6394997  89.1289988 119.1020012 139.0354997  88.3349988
 120.6380012 139.3734997  89.8159988 120.0740012 138.7794997  90.5659988
 121.2440012 138.6684997  89.2079988 121.5070012 140.3924997  90.5069988
 122.2280012 139.9244997  91.2109988 122.0930012 140.7894997  89.6499988
 120.6930012 141.4314997  91.2349988 120.7630012 142.5104997  90.9809988
 119.6010012 141.2684997  91.1099988 120.9640012 141.4314997  92.7829988
 122.0720012 141.4014997  92.8589988 120.4300012 142.2964997  93.2299988
 120.5910012 140.2674997  93.7179988 119.4850012 140.1794997  93.7709988
 120.9440012 139.3254997  93.2459988 121.0660012 140.5044997  95.1309988
 121.1310012 141.5604997  95.7829988 121.3300012 139.3124997  95.6209988
 121.5670012 139.3314997  97.0569988 121.8900012 140.3314997  97.4179988
 120.6730012 139.0644997  97.6589988 122.4970012 138.2244997  97.5809988
 121.9720012 137.2454997  97.6089988 122.8840012 138.4974997  99.0959988
 123.2230012 139.5534997  99.1589988 122.0090012 138.3984997  99.7729988
 123.9460012 137.5504997  99.4269988 124.3980012 137.4354997 100.9539988
 124.4780012 138.9384997 101.3589988 123.8740012 139.3934997 102.4989988
 122.7720012 139.5044997 102.4079988 124.0470012 138.7444997 103.3839988
 124.5200012 140.7124997 102.8619988 124.0290012 141.0804997 103.7509988
 125.5190012 140.4324997 103.1629988 124.5150012 141.8024997 101.8219988
 123.1510012 141.8174997 101.2099988 122.4440012 141.7704997 102.0249988
 123.0870012 142.7444997 100.6609988 123.0680012 140.9254997 100.6049988
 124.8500012 143.1524997 102.5479988 124.2280012 143.2384997 103.4269988
 125.8860012 143.1574997 102.8529988 124.6440012 143.9554997 101.8559988
 125.4810012 141.5764997 100.7489988 125.3090012 140.6134997 100.2909988
 126.4690012 141.5784997 101.1839988 125.4600012 142.3744997 100.0209988
 123.4510012 136.6644997 101.8039988 125.7840012 136.8954997 100.9469988
 123.6830012 138.2834997  96.6839988 124.2280012 137.1264997  96.3209988
 123.7550012 136.0294997  96.7649988 125.4280012 137.4294997  95.4659988
 126.3400012 137.7654997  96.0039988 125.2590012 138.2504997  94.7369988
 125.7960012 136.1734997  94.6169988 126.2200012 135.3044997  95.1649988
 126.6750012 136.4524997  93.9979988 124.8210012 135.5474997  93.6359988
 123.9070012 135.3214997  94.2259988 125.0630012 134.6054997  93.0979988
 124.2680012 136.5264997  92.5329988 125.1550012 136.8654997  91.9569988
 123.8930012 137.4724997  92.9789988 123.3340012 135.7484997  91.6319988
 122.3660012 135.6334997  92.1649988 123.8120012 134.8234997  91.2439988
 122.8160012 136.6134997  90.4259988 122.3200012 137.5404997  90.7839988
 122.0320012 136.0094997  89.9209988 123.8870012 137.1924997  89.3759988
 124.3790012 138.0304997  89.9149988 123.3150012 137.6724997  88.5529988
 124.7970012 136.1984997  88.7149988 125.7970012 136.0994997  89.1629988
 124.5360012 135.4594997  87.6299988 125.2620012 134.7754997  87.1659988
 123.2430012 135.4314997  86.8279988 122.4580012 136.1724997  87.0919988
 122.7550012 134.4334997  86.8039988 123.3790012 135.7004997  85.3119988
 122.3430012 135.4934997  84.9679988 124.0770012 134.9434997  84.8949988
 124.0360012 137.0504997  84.9279988 125.0450012 136.8454997  85.3449988
 123.6130012 137.7884997  85.6419988 124.1950012 137.4684997  83.4349988
 124.9130012 138.2844997  83.2049988 123.1620012 137.6654997  83.0769988
 124.7270012 136.2404997  82.6499988 124.6610012 136.3554997  81.5469988
 124.0440012 135.3984997  82.8929988 126.1400012 135.9884997  83.0719988
 126.4190012 135.0124997  82.6219988 126.3480012 135.8414997  84.1529988
 127.2310012 137.0214997  82.6289988 128.1610012 136.4294997  82.7609988
 127.2110012 137.8324997  83.3879988 127.1070012 137.5314997  81.1889988
 127.0490012 136.5864997  80.6069988 128.0210012 138.0894997  80.8919988
 126.1630012 138.0874997  81.0049988   2.4340012  20.1894997  84.9809988
   1.8710012  20.1704997  84.0229988   3.5040012  20.2424997  84.6859988
   2.1220012  21.0384997  85.6249988   2.2050012  18.8894997  85.8049988
   2.4210012  18.0464997  85.1139988   2.7510012  18.9674997  86.7689988
   0.8580012  18.5894997  86.4229988   0.7730012  19.1754997  87.3639988
   0.0560012  18.8204997  85.6899988   0.7610012  17.1804997  86.9109988
   0.4290012  16.5294997  86.0739988   1.7920012  16.8564997  87.1709988
   0.1370012  16.9414997  88.3149988  -0.7589988  17.5954997  88.3819988
  -0.3029988  15.9224997  88.2829988   1.0580012  17.1814997  89.4979988
   1.5080012  18.1824997  89.3259988   0.4570012  17.2234997  90.4319988
   2.1350012  16.0674997  89.7139988   1.6960012  15.0844997  89.4359988
   2.9820012  16.2484997  89.0189988   2.8000012  15.9534997  91.1209988
   3.7050012  15.3304997  90.9519988   3.1580012  16.9534997  91.4449988
   1.7820012  15.6354997  92.2579988   0.9840012  16.4084997  92.2519988
   1.1760012  14.7754997  91.8989988   2.3270012  15.5594997  93.7189988
   2.8440012  16.4504997  94.1349988   1.6200012  15.2434997  94.5149988
   3.3610012  14.4104997  93.6339988   2.9910012  13.4614997  93.1889988
   4.0950012  14.7564997  92.8749988   4.0380012  14.0364997  94.9859988
   3.3050012  13.6364997  95.7189988   4.7440012  13.2284997  94.6969988
   4.9110012  15.1054997  95.6499988   4.3750012  15.9524997  96.1289988
   5.5410012  14.7024997  96.4719988   5.8520012  15.7784997  94.6699988
   6.5570012  15.0034997  94.2989988   5.3260012  16.0804997  93.7399988
   6.6700012  16.8644997  95.3969988   6.7110012  16.4634997  96.4319988
   7.6870012  16.9684997  94.9609988   5.9070012  18.1664997  95.3609988
   5.6470012  18.7874997  94.3689988   5.6450012  18.6324997  96.6139988
   4.9190012  19.8354997  96.7829988   5.3750012  20.2544997  97.7059988
   5.1650012  20.5064997  95.9329988   3.4100012  19.7754997  97.0339988
   3.0860012  20.8354997  97.1119988   3.1760012  18.9744997  98.3949988
   3.9850012  19.3474997  99.0589988   2.1390012  19.2914997  98.6359988
   3.2510012  17.5674997  98.3029988   3.2120012  16.7434997  99.6809988
   3.3550012  17.8134997 100.7959988   3.5390012  17.4514997 102.1499988
   3.1800012  16.4134997 102.3139988   4.6230012  17.4874997 102.3929988
   2.7030012  18.2604997 103.1059988   1.7080012  18.2694997 102.6849988
   2.8160012  17.8124997 104.0819988   3.0940012  19.7904997 103.1809988
   2.9560012  20.4214997 101.7929988   1.9550012  20.2964997 101.4079988
   3.2170012  21.4614997 101.9219988   3.6440012  19.9274997 101.1229988
   2.0990012  20.4634997 104.1089988   2.2230012  19.9904997 105.0719988
   2.4220012  21.4904997 104.1989988   1.0670012  20.5324997 103.7999988
   4.5320012  20.0144997 103.6299988   5.2230012  19.2964997 103.2119988
   4.5010012  19.8054997 104.6889988   4.8490012  20.9764997 103.2539988
   1.9340012  16.0124997  99.7399988   4.5010012  16.0564997  99.6919988
   2.8190012  19.1184997  95.9259988   1.5340012  19.3374997  95.8349988
   0.8450012  20.1104997  96.4889988   0.9360012  18.5684997  94.6629988
   0.5780012  17.5884997  95.0459988   1.6400012  18.2754997  93.8549988
  -0.2479988  19.2814997  94.0759988  -0.9979988  19.4674997  94.8749988
  -0.7759988  18.6554997  93.3239988   0.1020012  20.6284997  93.4349988
   0.1790012  21.3294997  94.2929988  -0.8769988  20.9394997  93.0089988
   1.3410012  20.5334997  92.5189988   1.2040012  19.6254997  91.8949988
   2.3000012  20.4314997  93.0699988   1.3440012  21.5934997  91.4029988
   1.4970012  22.5424997  91.9619988   0.4740012  21.4904997  90.7199988
   2.5680012  21.6094997  90.4939988   2.6210012  22.6664997  90.1579988
   2.3620012  20.8734997  89.6879988   3.8890012  21.4454997  91.2209988
   3.9420012  20.3584997  91.4469988   3.9840012  22.0164997  92.1689988
   5.0150012  21.8954997  90.2929988   5.0010012  22.9584997  90.0119988
   5.9790012  21.1084997  89.7769988   6.7180012  21.5664997  89.1039988
   6.0760012  19.5674997  90.0009988   5.6110012  19.3844997  90.9929988
   7.1380012  19.3294997  90.2249988   5.4990012  18.5414997  89.0409988
   4.4320012  18.8494997  89.0029988   5.4260012  17.4854997  89.3759988
   6.2440012  18.5774997  87.6859988   7.3280012  18.7454997  87.8669988
   5.9260012  19.4354997  87.0569988   6.0970012  17.1934997  86.9469988
   4.9960012  17.0864997  86.8379988   6.5270012  16.4144997  87.6119988
   6.7840012  17.0754997  85.5669988   7.8820012  17.0854997  85.7369988
   6.3780012  17.8864997  84.9259988   6.4360012  15.7244997  84.8599988
   5.3530012  15.7754997  84.6179988   6.5250012  14.8334997  85.5179988
   7.2360012  15.4514997  83.5429988   8.2950012  15.1684997  83.7189988
   7.3450012  16.3744997  82.9339988   6.6280012  14.4104997  82.5649988
   6.4330012  13.4834997  83.1449988   7.2870012  14.0334997  81.7539988
   5.6570012  14.7034997  82.1119988 137.4110012 136.9104997  85.6749988
 137.6880012 136.1964997  86.4789988 138.0100012 137.8234997  85.8759988
 137.5620012 136.4594997  84.6709988 135.8970012 137.2814997  85.7809988
 135.6480012 138.1814997  85.1789988 135.2840012 136.4294997  85.4159988
 135.4300012 137.6584997  87.1629988 136.2290012 138.3604997  87.4849988
 134.4280012 138.1354997  87.1089988 135.5940012 136.5384997  88.2409988
 136.6400012 136.1644997  88.2359988 135.5720012 137.0914997  89.2039988
 134.5690012 135.3914997  88.2359988 134.5710012 135.0754997  87.1709988
 134.8600012 134.5244997  88.8659988 133.1050012 135.8294997  88.5749988
 133.0540012 136.7394997  87.9389988 132.3590012 135.0364997  88.3569988
 132.8000012 136.3694997  90.0239988 133.0650012 135.5784997  90.7579988
 133.3790012 137.2894997  90.2549988 131.2560012 136.5704997  90.2709988
 130.9820012 137.4304997  89.6239988 130.7320012 135.6684997  89.8909988
 131.0650012 137.0694997  91.7249988 131.5760012 138.0554997  91.6819988
 129.9690012 137.2294997  91.8159988 131.4950012 136.0914997  92.8609988
 130.9310012 135.1444997  93.0039988 132.5050012 135.6964997  92.6169988
 131.4570012 136.6704997  94.3219988 132.1070012 137.5714997  94.2929988
 130.4160012 137.0144997  94.4999988 132.0230012 135.6854997  95.4009988
 132.2190012 136.3714997  96.2519988 131.3890012 134.8094997  95.6569988
 133.5380012 135.1814997  95.1569988 133.5160012 134.4544997  94.3169988
 134.1070012 136.1144997  94.9549988 134.0230012 134.4714997  96.4389988
 133.8020012 135.0924997  97.3339988 133.4260012 133.5354997  96.4219988
 135.5010012 134.1304997  96.2849988 135.6490012 133.2474997  96.9439988
 135.7760012 133.6914997  95.3019988 136.3490012 135.3134997  96.6049988
 136.7540012 136.0734997  95.7509988 136.7310012 135.2444997  97.8649988
 137.5840012 136.2594997  98.3599988 138.0520012 135.9614997  99.3219988
 138.3770012 136.5874997  97.6539988 136.7830012 137.5824997  98.7919988
 137.5880012 138.3284997  98.9649988 135.8230012 137.3024997 100.0369988
 136.3920012 136.7054997 100.7819988 135.6000012 138.2424997 100.5849988
 134.7370012 136.5264997  99.6379988 133.2910012 137.0944997  99.9589988
 133.1180012 136.7034997 101.4619988 133.5410012 135.5844997 102.1139988
 134.4540012 135.1414997 101.6609988 133.8510012 135.8334997 103.1519988
 132.3510012 134.6574997 102.1079988 132.1020012 134.4814997 101.0719988
 132.6100012 133.6614997 102.4359988 131.0450012 135.0114997 102.8319988
 131.4320012 135.4464997 104.1899988 130.5480012 135.9234997 104.5859988
 131.7200012 134.6174997 104.8199988 132.2560012 136.1384997 104.0949988
 130.2540012 136.0784997 102.0979988 129.8500012 135.6164997 101.2089988
 129.4680012 136.4514997 102.7379988 130.9220012 136.8964997 101.8689988
 130.2660012 133.7104997 102.8799988 130.8690012 132.8754997 103.2059988
 129.8460012 133.5284997 101.9019988 129.4850012 133.9344997 103.5909988
 133.2620012 138.5584997  99.7489988 132.3190012 136.3514997  99.1489988
 136.0580012 138.0824997  97.5679988 135.6490012 139.3324997  97.6059988
 135.7200012 140.0824997  98.5849988 134.7250012 139.6114997  96.4359988
 133.7430012 139.1234997  96.6159988 135.2130012 139.0344997  95.6209988
 134.4490012 140.9984997  96.0559988 135.4550012 141.4634997  95.9769988
 133.9020012 141.4394997  96.9169988 133.5200012 141.1334997  94.8449988
 133.2240012 142.1884997  94.6589988 132.5380012 140.6714997  95.0839988
 134.1470012 140.5924997  93.5139988 134.6360012 139.6054997  93.6599988
 135.0030012 141.1934997  93.1389988 133.1710012 140.5854997  92.3279988
 132.1680012 140.2244997  92.6399988 133.6020012 139.9384997  91.5339988
 132.9320012 141.9364997  91.6619988 133.9510012 142.3784997  91.6569988
 132.2730012 142.5194997  92.3399988 132.1670012 142.0614997  90.2699988
 131.7140012 143.0724997  90.1789988 131.1680012 141.5784997  90.2909988
 132.8230012 141.4954997  89.0329988 133.8560012 141.8664997  88.9599988
 132.3540012 140.6404997  88.1489988 132.9910012 140.5244997  87.2589988
 131.0300012 139.9554997  88.0899988 130.6250012 139.7904997  89.1109988
 131.1740012 139.0034997  87.5359988 129.9140012 140.6964997  87.2599988
 129.6680012 141.6954997  87.6789988 129.0350012 140.0194997  87.3069988
 130.1430012 140.9174997  85.7479988 131.0530012 141.5124997  85.5179988
 129.3620012 141.5284997  85.2459988 130.1730012 139.5994997  84.9819988
 129.3050012 138.9454997  85.2109988 131.1290012 139.1124997  85.2699988
 130.2240012 139.8464997  83.4839988 131.2080012 140.3274997  83.2979988
 129.4030012 140.5534997  83.2349988 130.2700012 138.5194997  82.5339988
 130.4460012 138.8274997  81.4809988 129.3270012 137.9354997  82.5899988
 131.4180012 137.5204997  82.7669988 131.2920012 136.9594997  83.7179988
 132.3220012 138.1534997  82.9009988 131.5320012 136.5724997  81.5819988
 130.7620012 135.7744997  81.5239988 132.4970012 136.0264997  81.6479988
 131.4560012 137.0844997  80.5989988  14.6140012   5.9624997  83.4139988
  15.3740012   6.2114997  82.6429988  15.1120012   5.1784997  84.0239988
  14.4580012   6.7484997  84.1829988  13.2940012   5.4634997  82.8929988
  13.0280012   6.1964997  82.1019988  13.4630012   4.5254997  82.3229988
  12.4010012   5.1464997  84.0699988  12.3870012   5.9854997  84.7979988
  11.3560012   5.0884997  83.6979988  12.6840012   3.7554997  84.6769988
  12.3750012   2.9104997  84.0259988  13.7680012   3.7684997  84.9189988
  11.8600012   3.5564997  85.9179988  10.9020012   4.0534997  85.6539988
  11.8040012   2.4624997  86.1049988  12.3360012   4.3024997  87.1729988
  13.2420012   3.8384997  87.6159988  12.6250012   5.3524997  86.9509988
  11.2690012   4.2644997  88.2289988  10.3250012   4.4074997  87.6619988
  11.1710012   3.2374997  88.6419988  11.4670012   5.2534997  89.3869988
  11.5040012   6.2724997  88.9439988  10.5780012   5.1794997  90.0489988
  12.7920012   4.9324997  90.1909988  13.6600012   5.2254997  89.5629988
  12.7390012   5.6204997  91.0609988  12.8720012   3.4834997  90.6679988
  11.9620012   3.4304997  91.3029988  12.8070012   2.9284997  89.7069988
  14.2010012   3.1414997  91.3189988  14.2160012   2.1114997  91.7369988
  15.0300012   3.3214997  90.6019988  14.4560012   3.9824997  92.5939988
  15.5180012   3.7364997  92.8079988  14.3070012   5.0664997  92.3969988
  13.7080012   3.5734997  93.9089988  12.6420012   3.8824997  93.8509988
  13.8490012   2.4774997  94.0169988  14.3280012   4.2954997  95.2019988
  13.5980012   4.5374997  96.0039988  14.9840012   3.5124997  95.6389988
  15.1320012   5.6184997  94.9599988  16.0970012   5.4464997  94.4389988
  14.5540012   6.2864997  94.2859988  15.4220012   6.2094997  96.3369988
  15.4830012   5.6174997  97.4039988  15.4130012   7.5764997  96.1979988
  15.0270012   8.1854997  97.4609988  15.5600012   7.8104997  98.3599988
  15.3120012   9.2564997  97.3759988  13.4390012   8.2374997  97.5479988
  13.0100012   9.0574997  96.9339988  13.1570012   8.5274997  99.0299988
  13.8630012   9.2944997  99.4149988  12.1620012   8.9794997  99.2299988
  13.4120012   7.3754997  99.8619988  12.6710012   6.9594997 101.1589988
  11.2550012   6.3704997 100.6699988  11.0590012   5.1364997 100.1039988
  10.2780012   5.2884997  99.3289988  11.9140012   4.7274997  99.5249988
  10.6330012   4.0394997 101.1349988  10.3500012   3.2464997 100.4579988
  11.5530012   3.8524997 101.6669988   9.4420012   4.3034997 102.0849988
   9.8120012   5.4494997 103.0579988  10.5710012   5.1394997 103.7609988
  10.1670012   6.2484997 102.4239988   9.0030012   5.9044997 103.6099988
   8.1660012   4.6214997 101.3359988   7.4620012   4.7814997 102.1399988
   8.2780012   5.4954997 100.7119988   7.8220012   3.8614997 100.6499988
   9.1910012   3.1314997 102.9699988   8.5040012   3.4324997 103.7459988
  10.0280012   2.8804997 103.6049988   8.8980012   2.1874997 102.5339988
  13.4860012   5.9474997 101.9319988  12.5220012   8.2684997 101.8699988
  12.8100012   7.0144997  97.0649988  11.4680012   6.8574997  97.2459988
  10.7400012   7.5154997  97.9589988  10.9090012   5.6394997  96.5019988
  10.8250012   4.7534997  97.1669988  11.6430012   5.3014997  95.7389988
   9.7370012   6.2064997  95.7479988   9.9560012   7.2474997  95.4259988
   8.8870012   6.2244997  96.4629988   9.4330012   5.3914997  94.5549988
   9.4410012   4.3004997  94.7609988  10.1960012   5.4784997  93.7529988
   8.1960012   5.8094997  93.7359988   7.3430012   5.8374997  94.4479988
   7.8760012   5.0784997  92.9629988   8.2600012   7.1594997  93.0509988
   8.6770012   7.9514997  93.7109988   7.1970012   7.4584997  92.9279988
   9.0510012   7.1134997  91.7469988   8.7610012   6.2294997  91.1389988
  10.0810012   6.8524997  92.0709988   9.1100012   8.4844997  90.9929988
  10.0360012   8.5144997  90.3809988   9.1950012   9.2504997  91.7929988
   7.9930012   8.8804997  90.1039988   7.0770012   9.2514997  90.5869988
   7.9410012   8.5474997  88.7679988   7.0300012   8.8824997  88.2499988
   8.9500012   7.7364997  88.0079988   8.4820012   6.7654997  87.7379988
   9.7660012   7.4164997  88.6909988   9.4940012   8.3314997  86.6949988
   8.6880012   8.6544997  86.0029988  10.1360012   7.6854997  86.0599988
  10.4090012   9.6384997  86.7739988  11.4310012   9.4674997  87.1729988
   9.7920012  10.3784997  87.3289988  10.5550012  10.3804997  85.4549988
  11.1800012  11.2994997  85.4589988   9.5490012  10.5164997  85.0039988
  11.3880012   9.4524997  84.5219988  10.8010012   8.6004997  84.1149988
  12.2190012   9.0394997  85.1319988  11.9560012  10.2814997  83.3609988
  12.6790012  11.0464997  83.7169988  11.1330012  10.8284997  82.8529988
  12.7190012   9.3164997  82.3419988  12.0760012   8.4344997  82.1359988
  13.5890012   8.8824997  82.8809988  13.2950012  10.0234997  81.1209988
  14.0530012  10.7654997  81.4519988  12.3800012  10.4404997  80.6499988
  13.7260012   9.2894997  80.4069988 140.0680012   4.3854997  83.0609988
 140.7030012   3.8434997  82.3269988 140.3330012   4.1624997  84.1169988
 139.9660012   5.4694997  82.8439988 138.6570012   3.6704997  82.8719988
 137.9470012   4.1714997  83.5639988 138.2770012   3.7644997  81.8319988
 138.6010012   2.1604997  83.0999988 137.5490012   1.9024997  82.8539988
 139.3550012   1.7084997  82.4189988 138.9340012   1.6954997  84.5299988
 138.8420012   0.5884997  84.5189988 140.0070012   1.9214997  84.7089988
 138.0870012   2.3394997  85.6069988 138.4740012   3.3754997  85.7069988
 136.9950012   2.3834997  85.4049988 138.0920012   1.4504997  86.9359988
 137.6910012   0.4224997  86.8079988 139.1400012   1.4544997  87.3069988
 137.1550012   2.0714997  88.0499988 136.1440012   2.1834997  87.6029988
 137.1010012   1.3454997  88.8889988 137.7600012   3.4234997  88.5109988
 138.8040012   3.2884997  88.8649988 137.8410012   4.1454997  87.6699988
 136.9510012   4.2104997  89.5219988 135.9910012   4.6484997  89.1719988
 136.8040012   3.4564997  90.3249988 137.7070012   5.3494997  90.1319988
 138.7210012   4.9054997  90.2259988 137.6390012   6.1874997  89.4059988
 137.2800012   5.8014997  91.5509988 137.7910012   6.7374997  91.8619988
 136.2060012   6.0804997  91.4899988 137.6570012   4.8244997  92.7149988
 137.1820012   3.8294997  92.5799988 138.7620012   4.7114997  92.6769988
 137.2600012   5.3674997  94.0889988 137.8850012   4.8774997  94.8659988
 137.6410012   6.4094997  94.0309988 135.8100012   5.2434997  94.3939988
 135.7870012   5.6974997  95.4079988 135.3740012   5.8914997  93.6039988
 135.2110012   3.8194997  94.4159988 134.1250012   3.8414997  94.6489988
 135.1550012   3.3634997  93.4049988 135.8990012   2.8884997  95.3639988
 136.1800012   1.7074997  95.1389988 136.3240012   3.5484997  96.4759988
 136.9080012   2.8354997  97.4729988 136.1340012   2.5014997  98.1959988
 137.5060012   1.9964997  97.0579988 137.7270012   3.8554997  98.3279988
 138.1760012   3.3334997  99.1999988 136.7990012   4.9534997  98.8899988
 136.3490012   5.4414997  97.9989988 135.8750012   4.6144997  99.4049988
 137.5480012   5.9254997  99.6649988 137.8660012   5.3664997 101.1589988
 139.3610012   4.8434997 101.2159988 140.3770012   5.5074997 100.4069988
 140.9400012   4.7114997  99.8729988 139.9150012   6.1904997  99.6629988
 141.4270012   6.3504997 101.2199988 141.7260012   7.2694997 100.7379988
 140.8470012   6.8754997 101.9649988 142.4760012   5.6684997 102.0709988
 143.5250012   5.1094997 101.1729988 143.6950012   5.9504997 100.5169988
 144.4030012   4.8094997 101.7249988 143.0700012   4.3674997 100.5329988
 142.9220012   6.7304997 103.0549988 143.3140012   7.5914997 102.5329988
 142.0280012   7.0594997 103.5639988 143.6590012   6.2714997 103.6959988
 141.7410012   4.6004997 102.8609988 142.3610012   4.2014997 103.6509988
 141.5590012   3.8664997 102.0899988 140.7660012   4.9864997 103.1219988
 137.7020012   6.5084997 102.0279988 136.9660012   4.1964997 101.3269988
 138.6960012   4.5064997  97.5009988 139.8320012   3.8424997  97.2969988
 140.1090012   2.7304997  97.6809988 140.8630012   4.8194997  96.6669988
 141.2780012   4.3724997  95.7389988 141.6590012   5.0144997  97.4159988
 140.2430012   6.2304997  96.3929988 139.3660012   6.4494997  97.0389988
 139.9200012   6.0124997  95.3519988 141.3030012   7.3724997  96.4689988
 141.8380012   7.3424997  97.4419988 140.8680012   8.3944997  96.5179988
 142.1830012   7.4434997  95.2449988 142.9040012   6.5984997  95.2449988
 142.8890012   8.2724997  95.4639988 141.6380012   7.5604997  93.7919988
 140.8370012   8.3294997  93.8269988 141.1180012   6.5954997  93.6099988
 142.6220012   7.9854997  92.6579988 143.0760012   8.9584997  92.9449988
 141.9600012   8.1844997  91.7889988 143.6960012   6.8484997  92.2689988
 143.1800012   5.8764997  92.1159988 144.3270012   6.6334997  93.1579988
 144.4640012   7.2244997  91.0529988 145.1810012   7.9954997  91.3699988
 144.3250012   6.8004997  89.7769988 145.0270012   7.1704997  89.0159988
 143.2860012   5.7944997  89.2849988 143.0770012   5.1414997  90.1589988
 143.6760012   5.0554997  88.5539988 142.0760012   6.5004997  88.6739988
 141.8320012   7.3654997  89.3259988 141.2140012   5.8134997  88.8119988
 142.1370012   6.9524997  87.2059988 141.7740012   6.0374997  86.6909988
 143.1790012   7.2554997  86.9669988 141.2040012   8.1574997  87.0239988
 141.7180012   9.0584997  87.4209988 140.2070012   8.1084997  87.5109988
 140.9850012   8.3384997  85.5179988 140.4150012   7.5114997  85.0439988
 142.0290012   8.3284997  85.1379988 140.3190012   9.6444997  85.1859988
 140.9790012  10.4824997  85.4959988 139.3470012   9.6734997  85.7219988
 140.0360012   9.7314997  83.6799988 139.5540012  10.7254997  83.5609988
 139.2320012   9.0364997  83.3559988 141.2290012   9.5644997  82.6529988
 141.0880012   9.8034997  81.5769988 141.5040012   8.4954997  82.7749988
 142.1600012  10.0884997  82.9579988 141.3540012 132.8504997  82.4529988
 140.8000012 133.8124997  82.5009988 141.4670012 132.5494997  81.3889988
 142.3370012 132.9424997  82.9609988 140.3260012 131.8724997  83.0679988
 139.7060012 131.4234997  82.2639988 140.8630012 130.9824997  83.4609988
 139.3910012 132.4604997  84.1419988 138.7240012 133.2294997  83.6939988
 138.7630012 131.6564997  84.5819988 140.2150012 132.9804997  85.3099988
 141.1360012 132.3854997  85.4849988 140.5670012 134.0314997  85.2409988
 139.6140012 132.8454997  86.7059988 139.5890012 131.7464997  86.8699988
 140.2600012 133.3944997  87.4239988 138.2130012 133.5034997  86.8319988
 138.3260012 134.5494997  86.4729988 137.5190012 133.0104997  86.1189988
 137.4790012 133.3464997  88.1619988 137.8890012 134.1684997  88.7859988
 136.4010012 133.4484997  87.9099988 137.7240012 132.0244997  88.8909988
 137.1980012 131.1444997  88.4639988 138.8070012 131.8624997  89.0819988
 137.2430012 132.0914997  90.3289988 137.4960012 133.0554997  90.8199988
 136.1340012 132.0234997  90.3389988 137.7160012 130.9624997  91.2519988
 137.3380012 130.0154997  90.8109988 138.8220012 130.8504997  91.2709988
 137.5060012 131.1074997  92.7379988 137.9870012 130.2484997  93.2519988
 138.0060012 132.0584997  93.0229988 136.0210012 131.2494997  93.1799988
 135.5900012 132.1484997  92.6879988 135.4640012 130.3524997  92.8329988
 135.8280012 131.4554997  94.6869988 136.2920012 132.4214997  94.9799988
 134.7530012 131.3064997  94.9239988 136.4670012 130.4394997  95.6359988
 137.5580012 130.6474997  95.6179988 136.1240012 130.6674997  96.6679988
 136.2640012 128.9454997  95.3349988 135.2060012 128.6464997  95.4909988
 136.4920012 128.7604997  94.2639988 137.1510012 128.0604997  96.1129988
 136.7820012 126.9814997  96.5999988 138.3770012 128.5784997  96.2509988
 139.1810012 127.9774997  97.1709988 138.6740012 127.8744997  98.1539988
 139.5310012 126.9794997  96.8269988 140.3710012 129.0074997  97.4189988
 141.1290012 128.6994997  98.1709988 139.7220012 130.4104997  97.9309988
 139.2310012 130.9724997  97.1089988 139.0340012 130.2724997  98.7919988
 140.8190012 131.2414997  98.3929988 140.5500012 132.6054997  99.2059988
 140.0540012 132.0644997 100.6319988 140.8470012 131.2464997 101.4519988
 140.3950012 130.2324997 101.4219988 141.9200012 131.2594997 101.1659988
 140.8520012 131.4744997 102.9599988 141.4130012 130.6494997 103.3719988
 141.2490012 132.4534997 103.1859988 139.5350012 131.4474997 103.6429988
 138.6450012 132.5644997 103.1599988 137.7160012 132.3804997 103.6799988
 139.0820012 133.4794997 103.5329988 138.5420012 132.6134997 102.0859988
 138.8560012 130.0684997 103.5329988 139.6280012 129.3474997 103.7559988
 138.1940012 129.8134997 104.3469988 138.3140012 129.9674997 102.6039988
 139.9040012 131.7124997 105.1099988 139.1080012 131.7734997 105.8379988
 140.4630012 132.6364997 105.1139988 140.5960012 130.9894997 105.5169988
 141.8230012 133.2694997  99.4179988 139.4540012 133.4094997  98.6739988
 141.0380012 129.2274997  96.1799988 141.5840012 128.1524997  95.5689988
 141.9080012 127.1404997  96.2049988 141.7050012 128.3834997  94.0899988
 142.6270012 127.8764997  93.7339988 141.6530012 129.4584997  93.8119988
 140.4940012 127.6184997  93.3789988 139.5920012 128.2004997  93.6679988
 140.4940012 126.5914997  93.8019988 140.5150012 127.4774997  91.8119988
 141.3490012 126.8814997  91.3829988 140.6950012 128.4574997  91.3199988
 139.0790012 126.9944997  91.3459988 138.3280012 127.6554997  91.8279988
 138.8400012 125.9964997  91.7709988 139.1100012 126.7714997  89.8349988
 140.0230012 126.2204997  89.5239988 139.2740012 127.7714997  89.3789988
 137.8340012 126.1794997  89.3179988 136.9360012 126.6214997  89.8009988
 138.0400012 125.0994997  89.4789988 137.6420012 126.3994997  87.8009988
 136.7760012 125.7754997  87.4919988 138.5140012 125.9484997  87.2809988
 137.3540012 127.8854997  87.4509988 136.4240012 128.2844997  87.8819988
 138.0860012 128.6384997  86.5909988 137.7330012 129.6794997  86.5399988
 139.2870012 128.1594997  85.7899988 139.2140012 128.7574997  84.8559988
 139.2170012 127.0614997  85.6339988 140.6820012 128.2664997  86.4849988
 140.6990012 127.9034997  87.5349988 140.9310012 129.3464997  86.5729988
 141.9260012 127.6024997  85.8159988 142.8320012 128.0584997  86.2689988
 141.9920012 127.8004997  84.7249988 141.9970012 126.0684997  86.0289988
 140.9630012 125.6714997  85.9489988 142.3780012 125.7894997  87.0339988
 142.8580012 125.4694997  84.9659988 142.9750012 124.3924997  85.2129988
 143.9100012 125.8114997  85.0659988 142.3690012 125.4294997  83.4519988
 142.4190012 126.4574997  83.0349988 141.3360012 125.0404997  83.5769988
 143.2970012 124.6144997  82.5639988 143.6270012 123.6334997  82.9679988
 144.1450012 125.3204997  82.4399988 142.7420012 124.4294997  81.1559988
 142.5910012 125.4444997  80.7289988 141.7290012 123.9724997  81.1779988
 143.4410012 123.9044997  80.4699988   3.2320012   7.1044997  80.5979988
   2.2650012   6.5624997  80.6709988   3.8850012   6.8324997  79.7419988
   2.9000012   8.1544997  80.4529988   4.0590012   6.9214997  81.8529988
   3.5680012   7.4894997  82.6719988   4.1830012   5.8464997  82.1049988
   5.5310012   7.4254997  81.6899988   6.1850012   7.2454997  82.5709988
   5.8550012   6.6644997  80.9479988   5.8400012   8.8404997  81.1409988
   6.9250012   9.0784997  81.1079988   5.4180012   8.9194997  80.1159988
   5.2140012  10.0374997  81.9289988   5.2990012  10.8124997  81.1379988
   4.1950012   9.7734997  82.2839988   6.0910012  10.2964997  83.0709988
   6.1190012   9.4234997  83.7579988   7.0890012  10.4024997  82.5939988
   5.7110012  11.6034997  83.6879988   5.5280012  12.3934997  82.9279988
   4.7310012  11.3454997  84.1439988   6.6080012  12.0914997  84.8349988
   7.6090012  12.2724997  84.3889988   6.2810012  13.1344997  85.0339988
   6.4850012  11.1134997  86.0179988   5.4050012  11.0514997  86.2729988
   6.8810012  10.1114997  85.7479988   7.2220012  11.5694997  87.2879988
   8.3100012  11.5274997  87.0669988   7.0470012  12.6554997  87.4389988
   6.6500012  10.7744997  88.4939988   5.5560012  10.9414997  88.5949988
   6.8830012   9.6884997  88.4619988   7.4460012  11.1584997  89.7809988
   8.4980012  10.9844997  89.4679988   7.3450012  12.2594997  89.8799988
   7.0140012  10.6214997  91.0689988   5.9540012  10.9434997  91.1469988
   7.1320012   9.5234997  91.1959988   7.7930012  11.2074997  92.3239988
   8.8920012  11.2644997  92.1709988   7.4830012  12.2734997  92.3609988
   7.5160012  10.4114997  93.6699988   7.4590012   9.3684997  93.2939988
   8.4330012  10.4794997  94.2939988   6.2450012  10.8284997  94.4239988
   5.6070012  11.8914997  94.2749988   6.0230012   9.9664997  95.4499988
   4.9640012  10.4114997  96.3509988   5.2250012  11.1834997  97.1059988
   4.0970012  10.6434997  95.6959988   4.4630012   9.2064997  97.2299988
   3.6350012   9.5024997  97.9089988   5.5080012   8.5344997  98.2249988
   6.3640012   8.1644997  97.6199988   5.8460012   9.2174997  99.0319988
   4.8820012   7.4034997  98.7829988   4.1420012   7.3724997 100.1519988
   3.7770012   8.9074997 100.5999988   2.9550012   8.8224997 101.7399988
   2.0300012   8.2414997 101.5419988   3.4560012   8.3584997 102.6159988
   2.2870012  10.1484997 102.1239988   1.7670012  10.6304997 101.3099988
   1.4830012  10.0004997 102.8309988   3.1770012  11.2894997 102.8019988
   4.1760012  11.8014997 101.7199988   4.7910012  10.9984997 101.3429988
   3.5290012  12.1344997 100.9229988   4.7620012  12.6804997 101.9459988
   2.3530012  12.5254997 103.2439988   2.9190012  13.3004997 103.7399988
   1.9670012  12.8874997 102.3029988   1.5820012  12.1684997 103.9109988
   3.9400012  10.6164997 103.9789988   3.3250012  10.1494997 104.7329988
   4.6060012  11.2704997 104.5229988   4.5090012   9.7524997 103.6699988
   2.8960012   6.5924997  99.8349988   5.0020012   6.8434997 101.2009988
   4.0260012   8.2244997  96.3549988   2.7750012   8.2084997  95.8679988
   1.8670012   8.9864997  96.1879988   2.7000012   7.0394997  94.8299988
   2.7400012   6.0874997  95.4029988   3.5800012   7.0314997  94.1519988
   1.4780012   6.9984997  93.8479988   1.5370012   7.9644997  93.3019988
   0.5350012   6.9744997  94.4359988   1.5490012   5.7994997  92.9029988
   1.2020012   4.8834997  93.4269988   2.6070012   5.4954997  92.7519988
   0.7710012   5.9154997  91.5969988  -0.2949988   5.8004997  91.8879988
   0.9220012   4.9754997  91.0239988   1.1030012   7.1174997  90.6679988
   0.6270012   8.0534997  91.0289988   0.5500012   6.9224997  89.7249988
   2.5840012   7.4574997  90.3119988   3.1150012   7.7734997  91.2359988
   2.6000012   8.3034997  89.5919988   3.3570012   6.2114997  89.6859988
   2.6710012   5.7634997  88.9349988   3.5130012   5.4024997  90.4299988
   4.6970012   6.6174997  89.1819988   5.5070012   6.7504997  89.9149988
   4.9670012   6.9534997  87.9219988   5.9990012   7.1694997  87.6069988
   4.0900012   7.0714997  86.7079988   3.1700012   6.4494997  86.6789988
   4.7800012   6.7504997  85.8989988   3.5550012   8.4684997  86.1589988
   3.4780012   8.3514997  85.0569988   4.3300012   9.2634997  86.2049988
   2.2370012   8.9584997  86.7419988   2.4730012   9.5324997  87.6629988
   1.6320012   8.0894997  87.0799988   1.4080012   9.9354997  85.8869988
   2.0550012  10.8294997  85.7609988   0.5910012  10.3054997  86.5419988
   1.0250012   9.2984997  84.4929988   0.7560012   8.2384997  84.6909988
   1.8110012   9.3254997  83.7079988  -0.2969988   9.8794997  83.8629988
  -1.1749988   9.7654997  84.5339988  -0.5949988   9.2614997  82.9889988
  -0.2299988  11.3574997  83.3699988  -0.2189988  12.1024997  84.1929988
  -1.1689988  11.6644997  82.8619988   0.9770012  11.5884997  82.4609988
   1.8940012  11.6324997  83.0859988   0.8790012  12.5644997  81.9389988
   1.0360012  10.8604997  81.6229988 129.1890012 146.8484997  82.5479988
 129.5980012 147.6524997  83.1969988 128.0830012 146.8974997  82.4549988
 129.6360012 147.1284997  81.5689988 129.6030012 145.4654997  82.9799988
 128.9280012 144.7594997  82.4509988 130.6240012 145.2384997  82.6059988
 129.2620012 145.1954997  84.4959988 128.1860012 145.3994997  84.6779988
 129.6800012 144.1944997  84.7379988 129.8620012 146.0934997  85.5979988
 130.9470012 146.1824997  85.3759988 129.4900012 147.1354997  85.4919988
 129.6710012 145.6364997  87.0599988 128.5890012 145.5664997  87.3039988
 130.0430012 144.6014997  87.2149988 130.3260012 146.5174997  88.1589988
 129.8680012 147.5284997  88.2099988 130.0480012 146.1944997  89.1859988
 131.8950012 146.7844997  88.1979988 132.3850012 145.8014997  88.3669988
 132.2510012 146.9964997  87.1669988 132.3030012 147.9034997  89.1829988
 132.0660012 148.8984997  88.7499988 131.8390012 147.6374997  90.1569988
 133.8080012 147.8864997  89.4409988 134.2400012 148.0334997  88.4289988
 134.1170012 148.7914997  90.0059988 134.3900012 146.5994997  89.9819988
 134.2140012 145.6504997  89.4309988 135.4690012 146.6694997  89.7259988
 134.2400012 146.1644997  91.4189988 135.0660012 145.5394997  91.8209988
 134.3140012 147.1374997  91.9519988 132.9200012 145.2984997  91.5129988
 132.1770012 146.0264997  91.1219988 132.8600012 144.4624997  90.7829988
 132.5060012 144.9634997  92.8699988 131.6080012 144.3234997  92.7389988
 133.1660012 144.2924997  93.4599988 132.1560012 146.2014997  93.8079988
 133.0590012 146.8484997  93.8159988 131.3260012 146.7554997  93.3199988
 131.6880012 145.6294997  95.1659988 130.9910012 144.7674997  95.0929988
 132.5070012 145.0644997  95.6599988 131.1280012 146.7194997  96.0229988
 131.3250012 147.9004997  95.9239988 130.4500012 146.1254997  97.0159988
 129.6760012 146.8934997  97.8609988 130.2730012 147.6534997  98.4089988
 128.9330012 147.4234997  97.2279988 128.9730012 145.9714997  98.8669988
 128.3480012 146.6954997  99.4319988 130.0260012 145.2574997  99.8739988
 130.9820012 145.8204997  99.9309988 129.5170012 145.3054997 100.8609988
 130.1970012 143.9364997  99.4449988 130.8620012 142.9024997 100.4179988
 131.7350012 143.8134997 101.3229988 133.2030012 143.7264997 101.1489988
 133.5150012 142.6604997 101.1729988 133.5550012 144.0984997 100.1629988
 134.0190012 144.4284997 102.3309988 133.8780012 143.8984997 103.2609988
 135.0820012 144.3284997 102.1629988 133.7480012 145.9284997 102.5509988
 132.3960012 146.1064997 103.1829988 132.2500012 147.0684997 103.6519988
 131.6650012 146.0214997 102.3929988 132.3370012 145.3694997 103.9709988
 134.7500012 146.3394997 103.6209988 134.5560012 147.3374997 103.9859988
 134.8310012 145.5664997 104.3699988 135.6780012 146.2394997 103.0759988
 133.8620012 146.6294997 101.2639988 133.7810012 147.6854997 101.4769988
 133.1410012 146.2894997 100.5359988 134.8600012 146.3914997 100.9249988
 129.8190012 142.2614997 101.2779988 131.6630012 141.9444997  99.6199988
 128.2280012 145.0594997  98.1139988 127.2220012 144.3824997  98.6969988
 126.9450012 144.4394997  99.8739988 126.5690012 143.5124997  97.6609988
 125.9690012 144.0694997  96.9109988 125.9030012 142.7644997  98.1419988
 127.7120012 142.8274997  96.8549988 128.4850012 143.5284997  96.4739988
 127.1970012 142.3234997  96.0089988 128.4850012 141.6144997  97.5679988
 127.6910012 140.9154997  97.9069988 128.9770012 141.9744997  98.4969988
 129.6570012 141.2164997  96.6869988 130.1190012 140.3554997  97.2149988
 130.4170012 142.0244997  96.6419988 129.3260012 140.8874997  95.2029988
 128.8120012 141.7634997  94.7529988 128.6600012 139.9994997  95.2039988
 130.6340012 140.6324997  94.3769988 131.2690012 139.9854997  95.0209988
 131.1410012 141.5944997  94.1489988 130.4270012 139.8234997  93.0899988
 129.9560012 138.8494997  93.3449988 131.3880012 139.5174997  92.6249988
 129.5780012 140.6724997  92.1279988 128.5640012 140.9304997  92.4679988
 129.9990012 140.9884997  90.8469988 129.3510012 141.6314997  90.2329988
 131.2590012 140.5644997  90.1639988 131.0400012 139.5874997  89.6829988
 132.0720012 140.2714997  90.8619988 131.6690012 141.4184997  89.0429988
 132.0630012 142.3574997  89.4869988 130.8970012 141.7064997  88.2969988
 132.9640012 140.9564997  88.2629988 132.7970012 139.9504997  87.8219988
 133.8490012 140.8654997  88.9289988 133.4950012 141.9344997  87.1349988
 134.4200012 141.5684997  86.6419988 133.5250012 142.9584997  87.5649988
 132.3860012 141.9894997  86.0009988 131.4210012 141.9804997  86.5509988
 132.4530012 141.0784997  85.3689988 132.3920012 143.2204997  85.1929988
 132.3210012 144.1024997  85.8659988 131.5570012 143.1214997  84.4669988
 133.5660012 143.4444997  84.3369988 134.5060012 143.4674997  84.9269988
 133.6120012 144.5054997  84.0079988 133.6970012 142.5614997  83.1179988
 133.9100012 141.5074997  83.3969988 134.4730012 142.8304997  82.3689988
 132.6750012 142.4684997  82.6909988 143.9910012 143.3594997  84.0169988
 144.1860012 143.8854997  84.9759988 143.5060012 144.0904997  83.3359988
 144.9170012 142.9384997  83.5709988 143.0460012 142.0974997  84.2279988
 142.9810012 141.4984997  83.2949988 143.5230012 141.3974997  84.9459988
 141.6410012 142.3424997  84.8029988 141.1200012 142.8644997  83.9729988
 141.1670012 141.3514997  84.9719988 141.4970012 143.1094997  86.0979988
 142.2230012 142.6864997  86.8249988 141.6760012 144.1934997  85.9369988
 140.1990012 142.8684997  86.9549988 140.4190012 143.1944997  87.9939988
 139.3970012 143.3744997  86.3759988 139.5950012 141.4534997  87.0129988
 139.4060012 141.0384997  85.9999988 140.3000012 140.7224997  87.4629988
 138.2570012 141.3024997  87.8209988 137.7020012 142.2564997  87.9449988
 137.5220012 140.6494997  87.3019988 138.7040012 140.9494997  89.2879988
 139.4770012 140.1614997  89.1589988 139.2140012 141.8444997  89.7039988
 137.6260012 140.3924997  90.1829988 137.1810012 139.4604997  89.7739988
 138.0810012 140.1274997  91.1609988 136.5260012 141.4294997  90.4079988
 136.1100012 141.7444997  89.4269988 135.7800012 141.0094997  91.1149988
 137.0020012 142.8554997  90.9989988 137.5490012 143.4634997  90.2479988
 136.0240012 143.2574997  91.3389988 137.7610012 142.9864997  92.3309988
 137.1200012 142.5314997  93.1159988 138.6550012 142.3424997  92.1959988
 138.2930012 144.3654997  92.7199988 139.1150012 144.6624997  92.0339988
 137.4360012 145.0624997  92.6049988 138.9200012 144.3944997  94.1859988
 139.4230012 145.3714997  94.3519988 138.0100012 144.3394997  94.8199988
 139.9120012 143.2934997  94.4239988 139.3240012 142.4214997  94.7829988
 140.4500012 143.0034997  93.4959988 140.9400012 143.5984997  95.5269988
 140.8570012 144.5624997  96.2929988 141.9080012 142.6584997  95.5959988
 142.7320012 142.6834997  96.7539988 143.7410012 142.2894997  96.5079988
 143.0300012 143.7354997  96.9509988 141.9770012 142.1224997  97.9979988
 141.2980012 142.8804997  98.4439988 142.9220012 141.9554997  99.2449988
 143.6780012 141.1544997  99.0959988 143.5010012 142.9024997  99.2779988
 142.1480012 141.8404997 100.4389988 142.3410012 140.4884997 101.2979988
 141.1210012 140.5924997 102.3159988 140.1710012 141.6424997 102.3189988
 139.6700012 141.6794997 103.3099988 140.5820012 142.6644997 102.1709988
 139.0810012 141.3354997 101.2409988 138.5580012 142.2484997 100.9989988
 139.6310012 141.1644997 100.3269988 138.1240012 140.1174997 101.4689988
 137.3980012 140.3254997 102.7869988 136.7460012 141.1864997 102.8059988
 136.8530012 139.3964997 102.8529988 138.1420012 140.1754997 103.5549988
 137.1350012 140.0804997 100.3219988 136.7600012 141.0834997 100.1859988
 137.6480012 139.8414997  99.4019988 136.3300012 139.4004997 100.5619988
 138.9380012 138.8504997 101.5679988 139.7660012 139.0784997 102.2219988
 139.2790012 138.7234997 100.5509988 138.3780012 137.9504997 101.7759988
 142.0810012 139.3614997 100.3909988 143.6530012 140.5024997 102.0329988
 141.3230012 140.8674997  97.7009988 140.0690012 140.8634997  97.6429988
 139.3330012 141.7604997  97.9869988 139.5000012 139.4824997  97.1709988
 138.7430012 139.5604997  96.3609988 138.9040012 139.0764997  98.0169988
 140.5570012 138.3274997  96.9599988 139.9880012 137.3864997  97.1169988
 141.5300012 138.3134997  97.4969988 141.0580012 138.0454997  95.5249988
 141.2080012 136.9524997  95.3889988 142.0680012 138.4294997  95.2679988
 140.1190012 138.4244997  94.3589988 139.9200012 139.5104997  94.2329988
 139.1420012 137.9074997  94.4669988 140.6510012 138.0034997  92.9519988
 139.8610012 138.0874997  92.1749988 140.8460012 136.9094997  92.9539988
 142.0230012 138.6674997  92.4619988 142.7300012 138.4094997  93.2789988
 141.9650012 139.7714997  92.3489988 142.7230012 137.9844997  91.2229988
 141.8780012 137.7714997  90.5329988 143.1770012 137.0194997  91.5339988
 143.9070012 138.7204997  90.6409988 144.6220012 139.1634997  91.3499988
 144.0880012 138.9634997  89.3389988 145.0440012 139.4434997  89.0839988
 143.1310012 138.5204997  88.2099988 142.2930012 139.2494997  88.2549988
 142.5700012 137.5834997  88.4109988 143.7250012 138.6024997  86.8299988
 144.7590012 138.1994997  86.8859988 143.9800012 139.6644997  86.6249988
 142.8540012 137.8684997  85.7369988 142.8140012 136.7744997  85.9279988
 143.4060012 138.0364997  84.7869988 141.4080012 138.4524997  85.6189988
 141.4030012 139.5614997  85.5609988 141.0110012 138.0984997  86.5949988
 140.6970012 137.7814997  84.4289988 139.5960012 137.8414997  84.5649988
 140.8930012 136.6974997  84.2909988 141.1380012 138.5514997  83.1329988
 142.2480012 138.5934997  83.1149988 140.6790012 139.5614997  83.1989988
 140.5570012 137.8514997  81.8029988 139.7190012 137.2494997  82.2139988
 141.3750012 137.1674997  81.4909988 140.1890012 138.7954997  80.6819988
 139.7970012 138.2444997  79.7999988 140.9970012 139.5164997  80.4309988
 139.3000012 139.3624997  81.0309988  57.0040012  55.8904997  81.9139988
  56.2550012  56.6324997  82.2659988  57.7720012  56.2604997  81.2029988
  57.4970012  55.4384997  82.8009988  56.5430012  54.7424997  81.0579988
  57.3980012  54.0744997  80.8189988  55.8200012  54.0534997  81.5449988
  55.9750012  55.0294997  79.6899988  55.5410012  54.0564997  79.3729988
  55.2120012  55.8364997  79.6929988  56.9890012  55.3314997  78.6179988
  57.5610012  56.2014997  79.0049988  57.7210012  54.4964997  78.6129988
  56.4350012  55.7804997  77.2569988  55.8500012  54.9004997  76.9119988
  55.7640012  56.6514997  77.4179988  57.5080012  56.0704997  76.2399988
  58.2620012  56.6794997  76.7839988  57.9140012  55.0684997  75.9829988
  57.0460012  56.7984997  74.9449988  56.3640012  56.1054997  74.4069988
  56.5430012  57.7324997  75.2759988  58.2330012  57.1824997  74.0439988
  58.6990012  58.0964997  74.4689988  58.8450012  56.2594997  73.9549988
  58.0680012  57.6624997  72.6189988  57.1110012  58.2234997  72.6829988
  58.9830012  58.2674997  72.4399988  58.0650012  56.6184997  71.4459988
  58.7050012  57.0364997  70.6389988  58.7080012  55.7614997  71.7429988
  56.6580012  56.2494997  71.0059988  56.1780012  55.6524997  71.8099988
  56.2030012  57.2514997  70.8559988  56.7370012  55.4184997  69.8019988
  55.8060012  55.2614997  69.2159988  57.4940012  55.8584997  69.1179988
  57.2700012  54.0304997  70.1639988  58.2990012  53.8874997  70.5599988
  56.6270012  53.6634997  70.9919988  57.2570012  53.0844997  68.8969988
  57.4620012  53.5524997  67.9109988  58.0740012  52.3394997  69.0139988
  55.9560012  52.1084997  68.7709988  56.1770012  51.3324997  68.0079988
  55.9340012  51.4604997  69.6739988  54.5910012  52.7984997  68.4839988
  53.8340012  53.1064997  69.3539988  54.3180012  52.5674997  67.2169988
  53.0430012  53.0034997  66.7729988  52.7320012  52.5364997  65.8139988
  52.2470012  52.7054997  67.4879988  52.8980012  54.5464997  66.6119988
  51.8510012  54.8684997  66.4239988  53.8350012  55.1284997  65.4849988
  53.5930012  54.5344997  64.5779988  53.4440012  56.1404997  65.2479988
  55.2220012  54.9954997  65.7859988  56.2700012  55.7014997  64.7449988
  55.8980012  57.2314997  64.8529988  56.6810012  58.2474997  64.2949988
  56.2740012  59.1954997  64.7089988  57.6900012  58.1214997  64.7429988
  56.7680012  58.4894997  62.7549988  57.3570012  59.3564997  62.4959988
  57.1230012  57.5684997  62.3149988  55.4820012  58.8214997  61.9979988
  54.8350012  60.0934997  62.4769988  54.0740012  60.3814997  61.7669988
  54.3680012  59.9294997  63.4369988  55.6550012  60.7964997  62.4819988
  55.9680012  59.1304997  60.6249988  56.8900012  59.6884997  60.6939988
  56.2490012  58.2064997  60.1409988  55.3050012  59.8474997  60.1649988
  54.5620012  57.6504997  62.0569988  53.7590012  57.7884997  61.3469988
  54.1140012  57.5154997  63.0309988  55.0960012  56.7834997  61.6969988
  57.6540012  55.4804997  65.1949988  55.9360012  55.1394997  63.3939988
  53.3130012  55.2424997  67.8199988  52.9550012  56.5194997  67.9259988
  52.1650012  57.1324997  67.2189988  53.6910012  57.1554997  69.1389988
  54.6710012  57.4224997  68.6909988  53.8410012  56.4524997  69.9859988
  53.0620012  58.3844997  69.6639988  52.3590012  58.0644997  70.4629988
  52.3590012  58.8154997  68.9189988  53.9420012  59.5354997  70.0729988
  53.5520012  60.4944997  69.6709988  54.9330012  59.3394997  69.6109988
  54.1690012  59.6744997  71.6069988  55.0800012  60.2954997  71.7479988
  54.3190012  58.6324997  71.9599988  52.9820012  60.1524997  72.4409988
  52.1940012  59.3694997  72.4219988  52.6390012  61.1274997  72.0339988
  53.4180012  60.4404997  73.9239988  52.5780012  60.8784997  74.5039988
  54.2720012  61.1374997  73.7899988  54.0160012  59.2254997  74.5069988
  54.9990012  58.9014997  74.1049988  53.2550012  58.4354997  74.3289988
  54.1210012  59.3184997  76.0109988  54.9800012  59.8884997  76.3929988
  53.3150012  58.7284997  76.9529988  53.7000012  58.8874997  77.9709988
  52.0690012  57.8534997  76.6419988  52.0990012  57.1214997  75.8069988
  51.2830012  58.5044997  76.2029988  51.3190012  57.1674997  77.8139988
  50.2790012  56.8914997  77.5359988  51.2290012  57.9844997  78.5619988
  52.1260012  56.0374997  78.4079988  53.0950012  56.3204997  78.8709988
  52.4570012  55.4144997  77.5499988  51.4030012  55.0544997  79.3269988
  50.6560012  54.5164997  78.7049988  50.9970012  55.7054997  80.1309988
  52.4050012  54.1654997  80.0289988  52.9680012  54.7994997  80.7469988
  53.0840012  53.8074997  79.2269988  51.7250012  52.9604997  80.6819988
  51.5380012  52.1704997  79.9229988  50.7810012  53.2444997  81.1939988
  52.6520012  52.2974997  81.7769988  53.3470012  53.0674997  82.1749988
  53.3380012  51.5554997  81.3169988  51.9090012  51.7474997  83.0599988
  50.9900012  51.2714997  82.6549988  51.5090012  52.5904997  83.6629988
  52.5050012  50.9694997  83.5829988  82.9980012  55.4974997  82.4669988
  82.8160012  55.6934997  83.5459988  84.0940012  55.4404997  82.2949988
  82.5550012  54.4784997  82.4699988  82.3340012  56.6624997  81.7109988
  82.7850012  57.5604997  82.1839988  82.6900012  56.6124997  80.6599988
  80.8260012  56.6604997  81.9309988  80.4570012  55.8944997  81.2169988
  80.4540012  56.2834997  82.9079988  80.0510012  57.8684997  81.3099988
  78.9550012  57.6994997  81.2329988  80.2890012  58.6124997  82.0999988
  80.5730012  58.4724997  80.0799988  81.5950012  58.8314997  80.3249988
  80.5810012  57.6914997  79.2899988  79.7170012  59.6684997  79.5339988
  79.9600012  60.5334997  80.1879988  80.1550012  59.8064997  78.5219988
  78.2710012  59.3624997  79.2979988  78.0540012  58.3004997  79.0549988
  77.8270012  59.5424997  80.3009988  77.6000012  60.2994997  78.2319988
  76.5170012  60.1304997  78.4099988  77.9190012  61.3444997  78.4289988
  77.9830012  59.7764997  76.8719988  79.0580012  59.7434997  76.5929988
  77.7040012  58.7034997  76.8129988  77.0830012  60.5384997  75.7959988
  76.0460012  60.4344997  76.1819988  77.2500012  61.6364997  75.7629988
  77.0150012  60.0184997  74.3839988  76.6870012  58.9564997  74.3859988
  76.3900012  60.6574997  73.7239988  78.4040012  59.9714997  73.6879988
  78.9550012  60.9314997  73.5919988  79.1380012  59.4284997  74.3219988
  78.3870012  59.2474997  72.3099988  77.9640012  58.2204997  72.3369988
  77.6690012  59.7444997  71.6229988  79.7330012  59.2574997  71.6359988
  80.1160012  60.2994997  71.6969988  80.3820012  58.4644997  72.0659988
  79.5590012  59.0154997  70.1599988  79.1130012  58.0144997  69.9749988
  78.7540012  59.6644997  69.7549988  80.9220012  59.1334997  69.4349988
  81.8730012  59.7484997  69.8739988  80.9340012  58.4234997  68.2659988
  82.1610012  58.3564997  67.6009988  82.3540012  59.3264997  67.0939988
  83.0040012  58.2284997  68.3139988  82.1440012  57.1774997  66.5679988
  83.1740012  56.9114997  66.2479988  81.3060012  57.5614997  65.4249988
  81.5890012  58.5984997  65.1449988  81.6000012  56.9734997  64.5299988
  79.9790012  57.5494997  65.7359988  78.8800012  57.9524997  64.7009988
  78.7110012  56.6264997  63.8519988  78.6640012  56.6294997  62.3779988
  78.7410012  57.6534997  61.9539988  79.5290012  56.0374997  62.0089988
  77.3710012  55.9454997  61.8499988  77.3240012  56.1334997  60.7879988
  77.4810012  54.9214997  62.1749988  75.9990012  56.3544997  62.4069988
  75.7840012  57.8554997  62.3219988  75.7140012  58.1234997  61.2789988
  74.8790012  58.2114997  62.7929988  76.6530012  58.3764997  62.6969988
  74.8590012  55.6974997  61.6779988  74.9460012  54.6214997  61.6639988
  73.8370012  55.9384997  61.9309988  74.9400012  55.9754997  60.6369988
  75.9260012  55.8494997  63.8529988  76.7850012  56.2844997  64.3419988
  76.0320012  54.7754997  63.8519988  75.0290012  56.1624997  64.3669988
  77.7010012  58.2464997  65.5479988  79.4430012  58.9924997  63.8569988
  81.5620012  56.0344997  67.2449988  81.6600012  54.8404997  66.7359988
  82.3160012  54.4664997  65.8389988  80.7480012  53.7974997  67.4339988
  81.2900012  53.1974997  68.1969988  80.3120012  53.1154997  66.6729988
  79.6510012  54.4374997  68.2589988  78.8740012  54.8374997  67.5729988
  80.1080012  55.2904997  68.8049988  78.9260012  53.4634997  69.2379988
  79.5910012  52.9304997  69.9499988  78.5710012  52.5434997  68.7259988
  77.6460012  54.0184997  69.8809988  77.0460012  53.1774997  70.2909988
  77.0210012  54.4594997  69.0749988  77.8660012  55.1094997  71.0229988
  76.8500012  55.4894997  71.2659988  78.4870012  55.9334997  70.6129988
  78.4670012  54.5114997  72.3239988  79.5060012  54.1354997  72.2039988
  77.8080012  53.6894997  72.6749988  78.6580012  55.4814997  73.4699988
  77.6720012  55.9614997  73.6489988  79.2720012  56.3014997  73.0399988
  79.1280012  54.9114997  74.7669988  80.2080012  54.8944997  74.9759988
  78.2540012  54.4764997  75.7019988  78.6650012  54.0594997  76.6329988
  76.7680012  54.4924997  75.5539988  76.5450012  54.1954997  74.5059988
  76.3170012  55.4924997  75.7279988  76.0210012  53.6574997  76.6399988
  76.6640012  52.9894997  77.2529988  75.3250012  52.9544997  76.1359988
  75.0780012  54.4184997  77.5979988  74.7920012  53.7544997  78.4419988
  74.2090012  54.5954997  76.9279988  75.5340012  55.7504997  78.1379988
  74.8390012  56.5334997  77.7649988  76.6030012  55.8584997  77.8559988
  75.4510012  55.9084997  79.6689988  74.4460012  55.7124997  80.0999988
  75.6380012  56.9584997  79.9819988  76.4350012  54.9394997  80.4099988
  77.3980012  55.3644997  80.0529988  76.4000012  53.8594997  80.1539988
  76.4270012  55.1454997  81.8969988  76.7130012  56.1954997  82.1189988
  77.2090012  54.5274997  82.3879988  75.1410012  54.7014997  82.5319988
  74.4120012  55.5264997  82.3879988  75.3420012  54.5464997  83.6139988
  74.8530012  53.7654997  82.0059988  90.9270012  85.8574997  81.1349988
  89.8790012  85.8384997  81.5049988  91.4020012  86.7654997  81.5639988
  91.4060012  85.0174997  81.6819988  90.8400012  85.6204997  79.5729988
  91.7750012  85.8904997  79.0359988  90.6760012  84.5704997  79.2489988
  89.7660012  86.4504997  78.8039988  88.8140012  85.8804997  78.8669988
  89.7110012  87.4294997  79.3259988  90.1570012  86.7014997  77.3779988
  89.4420012  87.4944997  77.0699988  91.2000012  87.0684997  77.2779988
  89.8850012  85.4304997  76.4979988  90.6770012  84.6634997  76.6339988
  88.8990012  84.9774997  76.7329988  89.7310012  85.6914997  74.9829988
  89.0530012  86.5524997  74.7999988  90.6820012  86.1674997  74.6629988
  89.3510012  84.4394997  74.0479988  89.8020012  84.7364997  73.0769988
  89.8630012  83.5084997  74.3709988  87.8580012  84.1304997  73.8039988
  87.5610012  83.6784997  74.7739988  87.3030012  85.0854997  73.6829988
  87.6110012  83.0944997  72.6769988  87.6070012  83.6724997  71.7279988
  88.3490012  82.2684997  72.5919988  86.1450012  82.5534997  72.8549988
  85.9490012  81.9704997  73.7799988  85.4270012  83.4004997  72.8859988
  85.7090012  81.6394997  71.6539988  86.2660012  80.6834997  71.5469988
  84.6630012  81.2914997  71.7839988  85.7810012  82.3044997  70.2489988
  85.0520012  83.1414997  70.2879988  86.7750012  82.7574997  70.0479988
  85.3590012  81.4234997  69.0469988  86.1840012  80.7094997  68.8389988
  84.4870012  80.8084997  69.3559988  85.0000012  82.3164997  67.8289988
  84.6660012  81.6264997  67.0239988  84.1580012  83.0164997  68.0129988
  86.1890012  83.0404997  67.2789988  87.0980012  82.4084997  67.3779988
  85.9300012  83.1444997  66.2039988  86.3350012  84.4674997  67.7579988
  85.5460012  85.0104997  68.5309988  87.4600012  84.9814997  67.2769988
  87.7840012  86.3104997  67.7959988  86.8660012  86.9364997  67.7899988
  88.2110012  86.3334997  68.8209988  88.9090012  87.0194997  66.9369988
  89.3060012  87.8824997  67.5139988  88.3310012  87.5974997  65.6259988
  87.6820012  88.4824997  65.7989988  89.1840012  87.9824997  65.0269988
  87.4510012  86.7224997  64.7649988  87.9840012  86.0084997  63.4699988
  88.5380012  84.6834997  64.1399988  88.1930012  83.4734997  63.4319988
  87.1300012  83.1704997  63.5399988  88.4560012  83.5364997  62.3539988
  88.9560012  82.3344997  64.1959988  89.5510012  82.6774997  65.0299988
  88.2110012  81.7234997  64.6829988  89.7990012  81.4174997  63.3589988
  90.8760012  82.2714997  62.6819988  91.5050012  82.8024997  63.3809988
  91.4720012  81.6734997  62.0089988  90.3100012  82.9744997  62.0889988
  90.3800012  80.4024997  64.3329988  91.1610012  79.8224997  63.8629988
  90.9710012  80.8574997  65.1139988  89.5860012  79.8884997  64.8529988
  88.9600012  80.7034997  62.2729988  88.2490012  80.1054997  62.8239988
  89.6460012  80.0724997  61.7269988  88.2800012  81.3984997  61.8019988
  86.7980012  85.6074997  62.6629988  89.0540012  86.8774997  62.8689988
  89.9480012  86.0184997  66.6199988  90.5870012  85.4954997  67.6269988
  90.6070012  85.8094997  68.8379988  91.1740012  84.2544997  67.1139988
  92.1710012  84.1494997  67.5939988  91.3630012  84.2554997  66.0189988
  90.3580012  83.0324997  67.4609988  89.5330012  82.8954997  66.7299988
  89.8560012  83.2744997  68.4229988  91.2240012  81.7964997  67.7319988
  91.8460012  82.0724997  68.6099988  91.9430012  81.6384997  66.8989988
  90.3880012  80.5474997  68.1029988  90.9060012  79.5644997  68.0579988
  89.6040012  80.3794997  67.3339988  89.6850012  80.6994997  69.4629988
  88.5970012  80.8744997  69.3219988  90.0960012  81.5884997  69.9869988
  89.8950012  79.4654997  70.3219988  90.8920012  79.0244997  70.1069988
  89.0910012  78.7394997  70.0739988  89.9970012  79.7554997  71.8029988
  88.9430012  79.8234997  72.1499988  90.4710012  80.7514997  71.9359988
  90.6630012  78.7294997  72.6649988  90.7660012  77.7044997  72.2779988
  91.1780012  78.9644997  73.8939988  91.6980012  78.2434997  74.5409988
  91.1520012  80.2744997  74.6139988  90.5060012  80.9194997  73.9809988
  92.1610012  80.7364997  74.5699988  90.7510012  80.2964997  76.0589988
  91.5830012  79.7074997  76.4999988  89.7980012  79.7264997  76.0389988
  90.6470012  81.5884997  76.7909988  89.8890012  82.1884997  76.2439988
  91.5980012  82.1594997  76.7339988  90.2740012  81.3994997  78.2849988
  90.9870012  82.0084997  78.8809988  90.3810012  80.3214997  78.5309988
  88.8320012  81.8904997  78.6509988  88.0670012  81.5634997  77.9149988
  88.7970012  83.0004997  78.6819988  88.4980012  81.4094997  80.1469988
  88.8100012  80.3524997  80.2899988  87.4040012  81.5484997  80.2829988
  89.1810012  82.2484997  81.2329988  90.0580012  82.7414997  80.7609988
  89.4000012  81.6114997  82.1159988  88.2590012  83.3464997  81.8329988
  88.8080012  83.9414997  82.5939988  87.3530012  82.9354997  82.3259988
  88.0060012  83.9994997  80.9709988  48.9930012  87.1714997  80.0969988
  48.1950012  86.7684997  79.4369988  48.5860012  88.1704997  80.3629988
  48.9900012  86.4594997  80.9489988  50.2450012  87.1284997  79.2079988
  51.1330012  87.5784997  79.7019988  50.6370012  86.1234997  78.9409988
  50.0130012  87.9514997  77.9619988  49.7120012  88.9964997  78.1859988
  50.9190012  87.9854997  77.3189988  48.8290012  87.3994997  77.0609988
  47.9140012  87.3464997  77.6879988  48.6800012  88.0654997  76.1839988
  49.0860012  86.1004997  76.3339988  50.0750012  86.1754997  75.8319988
  49.1310012  85.2664997  77.0659988  48.1740012  85.7184997  75.1769988
  48.2500012  84.6454997  74.8979988  47.1530012  86.0854997  75.4179988
  48.4910012  86.3534997  73.7979988  48.5740012  87.4564997  73.9029988
  49.5020012  85.9464997  73.5799988  47.4770012  86.0924997  72.7259988
  46.4620012  86.4404997  73.0129988  47.7930012  86.5534997  71.7659988
  47.3260012  84.5564997  72.3649988  48.3000012  84.1924997  71.9719988
  47.1600012  84.0474997  73.3379988  46.0380012  84.1494997  71.6209988
  45.5410012  83.3754997  72.2439988  45.3850012  85.0414997  71.7319988
  46.1700012  83.7224997  70.1419988  46.8840012  82.8754997  70.0459988
  45.2350012  83.2854997  69.7319988  46.4600012  84.8234997  69.0249988
  45.8120012  85.7044997  69.2179988  47.5070012  85.1604997  69.1849988
  46.2410012  84.3794997  67.5479988  45.4090012  83.6514997  67.4379988
  45.8270012  85.2454997  66.9889988  47.5660012  83.8924997  66.8439988
  48.3880012  84.6054997  67.0689988  47.8370012  82.9564997  67.3779988
  47.5680012  83.5534997  65.3769988  48.5720012  83.2274997  65.0309988
  46.8760012  82.7054997  65.1839988  47.0940012  84.7084997  64.4649988
  46.7050012  84.6834997  63.2979988  47.2990012  85.8364997  65.1529988
  46.6610012  87.0244997  64.5619988  45.9990012  86.8034997  63.6979988
  46.1370012  87.4564997  65.4409988  47.7920012  88.0574997  64.1539988
  47.4170012  89.0874997  63.9769988  48.4650012  87.6084997  62.8129988
  47.7230012  87.2374997  62.0739988  49.1230012  88.3854997  62.3689988
  49.2720012  86.4754997  63.1569988  50.1120012  85.8304997  61.9499988
  51.6240012  86.0734997  62.3339988  51.9660012  87.3924997  62.7759988
  52.8920012  87.8154997  62.3319988  51.3400012  88.2274997  62.3949988
  51.9870012  87.5234997  64.3159988  51.9870012  88.5644997  64.6039988
  51.2090012  86.9914997  64.8429988  53.1680012  86.8484997  65.0959988
  53.2410012  85.3784997  64.7229988  52.4380012  84.8644997  65.2309988
  53.0480012  85.1584997  63.6839988  54.1650012  84.9624997  65.0959988
  54.5290012  87.4314997  64.6859988  54.4980012  87.3884997  63.6079988
  54.5770012  88.4674997  64.9849988  55.4080012  86.8764997  64.9819988
  53.0440012  87.0484997  66.5939988  52.6820012  88.0604997  66.6929988
  54.0430012  86.9234997  66.9849988  52.3870012  86.2754997  66.9649988
  49.9470012  84.3554997  61.9019988  49.7960012  86.5054997  60.6469988
  48.8580012  88.1544997  65.1179988  48.5340012  88.5434997  66.3839988
  47.4170012  88.9714997  66.6369988  49.6490012  88.2934997  67.3549988
  50.2430012  87.4644997  66.9149988  49.2530012  87.9024997  68.3169988
  50.4590012  89.5984997  67.5409988  50.6840012  90.0394997  66.5469988
  51.3690012  89.4154997  68.1519988  49.6750012  90.7344997  68.3669988
  48.7640012  91.0834997  67.8339988  50.3510012  91.6154997  68.3279988
  49.3670012  90.4244997  69.8569988  50.3720012  90.0914997  70.1939988
  48.4870012  89.7574997  69.9739988  48.8960012  91.6084997  70.6509988
  47.9630012  91.9764997  70.1729988  49.6650012  92.4094997  70.6169988
  48.4660012  91.1234997  72.0619988  47.6260012  90.4024997  71.9789988
  48.1710012  91.9744997  72.7129988  49.6300012  90.4484997  72.8919988
  49.9060012  89.4884997  72.4039988  49.1740012  90.1994997  73.8739988
  50.8220012  91.3414997  73.1559988  50.5850012  92.3974997  73.3529988
  52.0960012  90.9304997  73.0069988  52.8940012  91.6634997  73.1979988
  52.6680012  89.5974997  72.5999988  53.6090012  89.6474997  72.0109988
  51.9960012  88.9914997  71.9549988  52.9900012  88.5304997  73.7379988
  53.8140012  87.9554997  73.2649988  52.1230012  87.9384997  74.1009988
  53.4140012  89.2994997  75.0379988  52.4170012  89.6584997  75.3709988
  54.2000012  90.0564997  74.8269988  53.9180012  88.2544997  76.0379988
  54.5460012  87.4964997  75.5219988  53.0040012  87.6914997  76.3249988
  54.6290012  88.8814997  77.1879988  53.9190012  89.6924997  77.4569988
  55.5640012  89.2544997  76.7179988  54.8510012  87.9984997  78.4209988
  55.6820012  87.2644997  78.3379988  53.8830012  87.4634997  78.5299988
  55.0340012  88.7454997  79.7599988  54.2820012  89.5624997  79.7959988
  55.9600012  89.3584997  79.7619988  54.9930012  87.9474997  81.0939988
  53.9850012  87.6194997  81.4279988  55.4760012  88.5334997  81.9049988
  55.5280012  86.9924997  80.9039988  73.0180012  93.8814997  82.5849988
  72.8940012  93.1384997  83.4009988  72.5360012  94.8604997  82.7979988
  74.0520012  94.2694997  82.4629988  72.5600012  93.2254997  81.3139988
  73.2830012  92.4754997  80.9279988  71.5250012  92.8664997  81.5039988
  72.4390012  94.2334997  80.0629988  73.4720012  94.5864997  79.8529988
  72.1630012  93.6284997  79.1729988  71.5530012  95.4894997  80.2379988
  71.8810012  96.1064997  81.1019988  71.8260012  96.1264997  79.3699988
  70.0920012  95.2204997  80.4429988  69.9420012  94.7474997  81.4369988
  69.5410012  96.1804997  80.3459988  69.4300012  94.3934997  79.3669988
  69.9260012  93.3994997  79.3319988  68.3910012  94.2374997  79.7309988
  69.4610012  95.0404997  78.0319988  68.9010012  95.9974997  78.0989988
  70.4830012  95.3684997  77.7449988  68.8600012  94.2484997  76.8679988
  67.8470012  93.8914997  77.1509988  68.7880012  94.9054997  75.9749988
  69.8170012  92.9924997  76.6539988  70.7600012  93.0904997  77.2329988
  69.2890012  92.0534997  76.9249988  70.3840012  92.7854997  75.2359988
  71.0120012  93.6844997  75.0529988  71.0300012  91.8964997  75.0699988
  69.4280012  92.9074997  74.0789988  68.8460012  91.9614997  74.0559988
  68.6400012  93.6784997  74.2189988  70.0950012  93.0604997  72.7439988
  70.8920012  92.3064997  72.9179988  69.3780012  92.5924997  72.0359988
  70.5170012  94.4784997  72.4639988  69.6700012  95.1734997  72.6459988
  71.3930012  94.6704997  73.1199988  71.2440012  94.7014997  71.0809988
  71.8850012  95.5994997  70.9489988  71.9020012  93.8074997  71.1129988
  70.2650012  94.3284997  69.9519988  70.5240012  93.3084997  69.5959988
  69.2620012  94.2054997  70.4129988  70.1600012  95.4694997  68.8359988
  70.3630012  96.6204997  69.0549988  69.9010012  94.9474997  67.6519988
  70.0010012  95.7824997  66.4489988  68.9540012  95.9654997  66.1269988
  70.4780012  96.7804997  66.5509988  70.7290012  95.0384997  65.2919988
  70.6470012  95.6134997  64.3449988  70.2040012  93.5924997  65.0169988
  70.2310012  93.0494997  65.9859988  69.1040012  93.6504997  64.8729988
  70.8640012  92.9504997  63.9319988  71.6170012  91.5404997  63.9669988
  73.0000012  92.0334997  64.5409988  74.1950012  91.3094997  64.6549988
  74.3200012  91.0514997  65.7289988  74.0840012  90.4144997  64.0059988
  75.4500012  92.0494997  64.1669988  75.5180012  92.9604997  64.7429988
  76.2820012  91.4604997  64.5229988  75.6830012  92.3654997  62.7189988
  74.7450012  93.4854997  62.2719988  74.7120012  93.6184997  61.2009988
  73.7650012  93.2584997  62.6659988  75.1190012  94.3644997  62.7749988
  77.1180012  92.8534997  62.5139988  77.0920012  92.9644997  61.4399988
  77.3960012  93.7414997  63.0619988  77.7970012  92.0504997  62.7579988
  75.3920012  91.1254997  61.8969988  74.4900012  90.7224997  62.3329988
  76.2080012  90.4354997  62.0509988  75.4670012  91.1154997  60.8199988
  71.0070012  90.6354997  64.9049988  71.9090012  91.0894997  62.6119988
  72.1570012  94.8504997  65.5469988  73.0050012  95.8814997  65.1919988
  72.7060012  96.9764997  64.7339988  74.4720012  95.6004997  65.6569988
  75.1170012  96.5014997  65.5659988  74.9210012  94.9474997  64.8779988
  74.5700012  94.9084997  66.9679988  75.5580012  94.4044997  67.0359988
  73.8280012  94.1034997  67.1529988  74.3890012  95.8374997  68.1129988
  73.3350012  96.1814997  68.1809988  74.8590012  96.7834997  67.7689988
  74.8870012  95.4244997  69.4729988  74.3100012  94.5634997  69.8729988
  74.7270012  96.2844997  70.1579988  76.3980012  94.9724997  69.5289988
  76.9880012  95.6394997  68.8649988  76.3800012  93.9444997  69.1089988
  77.0890012  95.0254997  70.9439988  77.0850012  96.1084997  71.1939988
  78.1610012  94.7444997  70.8619988  76.2360012  94.2524997  71.9989988
  75.7430012  93.4104997  71.4669988  75.4090012  94.9504997  72.2449988
  76.9800012  93.9084997  73.2419988  77.8690012  94.5014997  73.5029988
  76.7850012  92.8194997  73.9699988  77.3710012  92.7014997  74.8929988
  75.7010012  91.7924997  73.6739988  75.9850012  90.7904997  74.0599988
  75.5150012  91.6684997  72.5859988  74.4050012  92.2934997  74.2919988
  73.5090012  91.7334997  73.9469988  74.0570012  93.2744997  73.9049988
  74.4180012  92.3464997  75.8699988  73.7220012  93.1434997  76.2079988
  75.3440012  92.8304997  76.2469988  74.1590012  91.0244997  76.5939988
  74.6570012  90.2224997  76.0069988  73.0700012  90.8434997  76.7229988
  74.7420012  90.9734997  78.0629988  74.4470012  89.9814997  78.4659988
  74.3610012  91.8504997  78.6289988  76.2630012  91.2284997  78.2069988
  76.5840012  92.2624997  77.9599988  76.9030012  90.5234997  77.6349988
  76.6670012  91.1494997  79.7509988  76.8880012  90.0854997  79.9809988
  75.7810012  91.4614997  80.3429988  77.8310012  92.1024997  80.1539988
  78.1140012  91.9934997  81.2229988  77.5470012  93.1544997  79.9359988
  78.7960012  91.9024997  79.6419988  60.0020012  92.8834997  79.8429988
  59.3730012  93.0764997  78.9479988  60.9750012  93.3754997  79.6309988
  59.5840012  93.2534997  80.8039988  60.2440012  91.3804997  79.8949988
  60.8290012  91.1424997  80.8089988  59.2340012  90.9904997  80.1459988
  60.9240012  90.8384997  78.6669988  60.5930012  91.4364997  77.7909988
  61.9910012  91.0774997  78.8599988  60.6270012  89.3474997  78.3829988
  60.8860012  88.6774997  79.2309988  59.5550012  89.2254997  78.1149988
  61.5120012  88.7814997  77.2419988  62.4490012  88.4164997  77.7129988
  60.9540012  87.8994997  76.8589988  61.8020012  89.8324997  76.0689988
  62.3240012  90.7714997  76.3519988  62.5190012  89.2364997  75.4649988
  60.4720012  90.3014997  75.3489988  59.9200012  89.3384997  75.3919988
  59.9700012  91.0544997  75.9939988  60.4510012  90.5364997  73.8459988
  60.8240012  91.5394997  73.5479988  60.9970012  89.6834997  73.3889988
  59.0340012  90.3474997  73.2749988  59.1970012  90.7014997  72.2339988
  58.8080012  89.2834997  73.5019988  57.9430012  91.2874997  73.9779988
  57.8490012  91.0204997  75.0519988  58.4560012  92.2724997  73.9689988
  56.5870012  91.3114997  73.3769988  55.9700012  92.1664997  73.7279988
  56.6930012  91.3834997  72.2729988  55.7600012  90.0694997  73.6789988
  56.3670012  89.2154997  73.3099988  55.6890012  90.0434997  74.7869988
  54.3270012  89.9604997  73.1309988  54.0130012  89.0124997  73.6179988
  53.6090012  90.6594997  73.6109988  54.2150012  89.8934997  71.5699988
  53.1740012  89.9534997  71.1839988  54.7350012  90.7984997  71.1889988
  55.0170012  88.6334997  70.9289988  56.1220012  88.7474997  70.9609988
  54.8470012  87.7934997  71.6359988  54.5410012  88.2254997  69.5479988
  53.3180012  88.1644997  69.2759988  55.5620012  87.9944997  68.7619988
  55.3130012  87.7334997  67.3689988  55.1920012  86.6344997  67.2609988
  54.3670012  88.2344997  67.0709988  56.4550012  88.3194997  66.4989988
  56.5410012  89.4084997  66.7059988  56.1570012  88.2484997  64.9759988
  55.9250012  87.2074997  64.6639988  55.2470012  88.8784997  64.8719988
  57.1860012  88.7194997  64.1399988  57.1750012  90.1014997  63.3599988
  58.6160012  90.0494997  62.5959988  59.5210012  88.9894997  62.5529988
  59.0160012  88.0044997  62.6419988  60.1030012  89.1644997  61.6229988
  60.5840012  89.1324997  63.6389988  59.9960012  89.0694997  64.5429988
  61.1990012  88.2504997  63.5369988  61.5470012  90.3104997  63.7819988
  60.8050012  91.4744997  64.3129988  59.9990012  91.6184997  63.6079988
  60.2310012  91.1894997  65.1829988  61.4630012  92.2874997  64.5829988
  62.5910012  89.8984997  64.7169988  62.9580012  88.9274997  64.4199988
  63.2810012  90.7244997  64.8029988  62.1790012  89.7994997  65.7109988
  62.2530012  90.5394997  62.4149988  61.5280012  90.8724997  61.6859988
  62.7980012  89.6404997  62.1669988  62.9960012  91.2864997  62.6509988
  56.0170012  90.1234997  62.3529988  57.2920012  91.2284997  64.3109988
  57.6570012  87.6684997  66.8619988  58.5970012  88.2464997  67.6169988
  58.4950012  89.3664997  68.0839988  59.7470012  87.2764997  67.6619988
  60.1930012  87.3864997  66.6509988  59.3530012  86.2384997  67.7219988
  60.8390012  87.6144997  68.6909988  61.2540012  88.6394997  68.5859988
  61.6730012  86.9214997  68.4489988  60.3350012  87.4344997  70.1229988
  59.7720012  88.3034997  70.5259988  61.2260012  87.4524997  70.7859988
  59.3690012  86.2574997  70.3439988  59.9270012  85.3304997  70.0899988
  58.4560012  86.4684997  69.7479988  58.7850012  86.1424997  71.7309988
  58.4670012  87.1794997  71.9739988  59.6200012  85.9454997  72.4359988
  57.6490012  85.1144997  71.9499988  58.0960012  84.1354997  71.6749988
  56.8720012  85.2364997  71.1659988  57.0140012  85.0474997  73.3029988
  57.7630012  84.5594997  73.9639988  56.1210012  84.3884997  73.2729988
  56.7100012  86.4224997  73.8539988  55.8310012  86.8734997  73.3709988
  57.2950012  86.9984997  74.8909988  56.8410012  87.8754997  75.3739988
  58.3910012  86.4354997  75.7099988  59.3530012  86.9734997  75.5659988
  58.6610012  85.3734997  75.5249988  58.0690012  86.6014997  77.1869988
  57.7020012  87.6134997  77.4599988  59.0070012  86.4474997  77.7619988
  57.2040012  85.5134997  77.7079988  57.6980012  84.5514997  77.4519988
  56.2320012  85.5234997  77.1699988  56.9300012  85.5504997  79.2099988
  57.8800012  85.3554997  79.7519988  56.1970012  84.7314997  79.3699988
  56.1700012  86.8644997  79.6499988  55.4550012  87.1504997  78.8499988
  56.9400012  87.6524997  79.7999988  55.5010012  86.7174997  81.0129988
  56.2730012  86.6444997  81.8089988  54.9280012  85.7764997  81.1579988
  54.5560012  87.9104997  81.3289988  55.2410012  88.7854997  81.3299988
  54.2060012  87.9164997  82.3829988  53.3460012  88.2484997  80.4769988
  53.7870012  88.2854997  79.4579988  52.8740012  89.2274997  80.7079988
  52.5970012  87.4434997  80.6329988  66.5360012  55.3074997  81.9359988
  66.4740012  56.1854997  81.2569988  67.5360012  55.2544997  82.4149988
  65.7530012  55.2694997  82.7229988  66.4100012  54.0934997  80.9859988
  67.2280012  54.2274997  80.2469988  66.5270012  53.1974997  81.6329988
  65.0740012  54.1504997  80.1449988  64.2480012  54.3154997  80.8699988
  65.0740012  55.1314997  79.6229988  65.0340012  52.9514997  79.1389988
  65.9610012  52.9954997  78.5279988  65.0140012  52.0064997  79.7229988
  63.9090012  53.2194997  78.1289988  62.8600012  53.1674997  78.4919988
  64.1130012  54.2654997  77.8159988  63.9780012  52.3314997  76.8859988
  63.2480012  52.6894997  76.1289988  64.9800012  52.4684997  76.4269988
  63.8600012  50.8164997  77.1739988  64.7610012  50.4974997  77.7399988
  62.9510012  50.5664997  77.7619988  63.8040012  49.9694997  75.9229988
  63.5360012  48.9854997  76.3609988  62.9790012  50.4074997  75.3219988
  65.0440012  50.1584997  75.0369988  65.0430012  51.2264997  74.7309988
  65.9400012  49.9414997  75.6579988  65.1600012  49.2154997  73.7989988
  65.3660012  48.2144997  74.2339988  64.2050012  49.1444997  73.2339988
  66.2510012  49.6324997  72.8419988  65.9660012  50.4854997  72.1899988
  67.0920012  50.0164997  73.4579988  66.7310012  48.5054997  71.9529988
  66.8220012  47.6164997  72.6129988  65.9360012  48.3054997  71.2029988
  68.1130012  48.9744997  71.4169988  68.0230012  49.7814997  70.6589988
  68.7510012  49.4404997  72.1979988  68.8550012  47.7874997  70.6739988
  69.9440012  47.9204997  70.8529988  68.6010012  46.7794997  71.0669988
  68.6030012  47.8684997  69.1379988  68.9410012  48.8304997  68.6959988
  69.2580012  47.0524997  68.7639988  67.1800012  47.4044997  68.7109988
  66.3370012  46.7414997  69.3649988  66.9770012  47.9334997  67.5239988
  65.7090012  47.8514997  66.8449988  65.8680012  47.2394997  65.9309988
  64.9640012  47.3264997  67.4799988  65.1740012  49.2144997  66.4159988
  64.2320012  48.8884997  65.9259988  66.0080012  49.8094997  65.2879988
  66.3910012  48.9844997  64.6509988  65.3480012  50.5154997  64.7389988
  67.1750012  50.5134997  65.8059988  68.0910012  51.3514997  64.9019988
  67.0480012  52.0324997  63.9059988  67.5300012  52.8514997  62.8689988
  67.9410012  53.7774997  63.3239988  68.3910012  52.3524997  62.3729988
  66.3960012  53.0054997  61.8519988  66.8300012  53.6034997  61.0639988
  66.1620012  52.0624997  61.3819988  65.0980012  53.6974997  62.2439988
  64.4530012  52.9114997  63.2859988  65.0220012  53.1764997  64.1649988
  63.4210012  53.0944997  63.5479988  64.4630012  51.8384997  63.1609988
  65.4310012  55.1714997  62.5219988  66.1430012  55.2164997  63.3339988
  65.8580012  55.5254997  61.5949988  64.5510012  55.7494997  62.7599988
  64.2930012  53.6194997  60.8999988  64.9910012  53.4444997  60.0949988
  64.0060012  54.6284997  60.6459988  63.5260012  52.8594997  60.9049988
  68.6420012  52.4704997  65.6929988  69.0170012  50.4344997  64.2009988
  65.1010012  49.9954997  67.6569988  64.3780012  51.1394997  67.5409988
  63.7630012  51.4874997  66.5779988  64.5070012  52.0024997  68.8539988
  65.1030012  51.4154997  69.5849988  63.5350012  52.2694997  69.3209988
  65.1280012  53.3874997  68.5269988  64.9960012  53.9564997  69.4719988
  64.6330012  53.9964997  67.7409988  66.6130012  53.4064997  68.2149988
  66.9310012  54.3784997  67.7789988  66.9110012  52.5694997  67.5479988
  67.4620012  53.3064997  69.5229988  67.0530012  52.4704997  70.1299988
  67.2910012  54.2734997  70.0439988  68.9450012  53.2994997  69.4459988
  69.4630012  53.8794997  68.6529988  69.2960012  52.3074997  69.0879988
  69.7930012  53.5974997  70.7749988  69.5480012  54.5754997  71.2429988
  70.8800012  53.7104997  70.5739988  69.6920012  52.3674997  71.7879988
  69.9060012  51.4304997  71.2309988  68.5940012  52.3134997  71.9489988
  70.5780012  52.7634997  72.9999988  71.6070012  53.0594997  72.7469988
  70.1910012  53.1074997  74.2649988  70.9730012  53.3784997  74.9889988
  68.7190012  53.1884997  74.6769988  68.0220012  53.1874997  73.8119988
  68.4960012  54.1474997  75.1909988  68.3330012  51.9344997  75.5399988
  68.4030012  51.0114997  74.9249988  67.3060012  51.9714997  75.9609988
  69.1960012  51.6044997  76.6479988  69.1840012  52.4414997  77.3789988
  70.2280012  51.4704997  76.2579988  69.0470012  50.2884997  77.3809988
  69.8970012  50.0614997  78.0579988  68.9570012  49.4744997  76.6299988
  67.7030012  50.0404997  78.1519988  66.9920012  49.5674997  77.4419988
  67.2200012  51.0004997  78.4329988  67.7820012  49.0804997  79.3579988
  68.0760012  48.1034997  78.9189988  66.7760012  48.9594997  79.8139988
  68.7930012  49.4604997  80.4989988  69.8060012  49.1974997  80.1249988
  68.5400012  48.7894997  81.3469988  68.7050012  50.8814997  80.8999988
  68.8540012  51.6444997  80.1059988  69.3950012  51.0664997  81.7509988
  67.6770012  50.9714997  81.3099988  90.9340012  54.5954997  81.8729988
  90.0830012  54.7814997  82.5629988  91.6770012  55.4174997  81.9449988
  91.5900012  53.7304997  82.1109988  90.5240012  54.5524997  80.4329988
  89.8780012  55.4354997  80.2399988  91.4320012  54.4214997  79.8059988
  89.5060012  53.4044997  80.0449988  90.1120012  52.4744997  80.0879988
  88.5560012  53.3394997  80.6159988  88.9480012  53.3894997  78.5899988
  88.5050012  52.4284997  78.2529988  88.1290012  54.1414997  78.5889988
  89.8940012  53.8254997  77.5119988  89.2560012  53.8684997  76.6029988
  90.2750012  54.8234997  77.8129988  91.0910012  52.9154997  77.2839988
  91.6570012  52.5794997  78.1789988  90.7250012  52.0084997  76.7579988
  92.1460012  53.4604997  76.3389988  92.8970012  52.6884997  76.0689988
  91.6770012  53.6934997  75.3589988  92.9500012  54.6744997  76.7939988
  92.3460012  55.5314997  77.1629988  93.5620012  54.4204997  77.6859988
  93.7850012  55.3904997  75.7129988  94.6220012  54.6894997  75.5099988
  93.2270012  55.3344997  74.7539988  94.1960012  56.7754997  75.9519988
  93.3610012  57.4134997  76.3129988  94.7280012  56.8284997  76.9249988
  94.9680012  57.4364997  74.8139988  95.0550012  58.5034997  75.1139988
  95.9690012  56.9784997  74.6679988  94.2700012  57.4364997  73.3619988
  94.2170012  56.3854997  73.0049988  93.2760012  57.9124997  73.4989988
  95.1330012  58.1534997  72.3869988  95.3870012  59.1854997  72.7109988
  96.1390012  57.6834997  72.4359988  94.5710012  58.0944997  71.0019988
  95.4020012  58.2564997  70.2819988  94.3000012  57.0624997  70.6909988
  93.4960012  59.1074997  70.6929988  92.5980012  58.6014997  71.1089988
  93.6630012  60.0914997  71.1799988  93.4300012  59.3024997  69.2549988
  93.8540012  60.2514997  68.6189988  92.9800012  58.1944997  68.6059988
  93.0090012  58.1494997  67.1279988  91.9760012  58.2874997  66.7429988
  93.6020012  58.9894997  66.7059988  93.6580012  56.9134997  66.5339988
  94.7120012  56.8174997  66.8719988  93.6040012  57.0414997  65.0169988
  92.7420012  57.6924997  64.7539988  94.5310012  57.5594997  64.6929988
  93.3790012  55.7624997  64.4199988  93.6380012  55.7984997  62.7749988
  92.2100012  55.2824997  62.4259988  91.1200012  56.1444997  62.7949988
  91.3670012  56.7464997  63.6949988  90.8850012  56.8334997  61.9549988
  89.8230012  55.3254997  63.0339988  89.0010012  56.0234997  62.9809988
  89.9150012  54.6844997  62.1689988  89.6570012  54.4554997  64.2159988
  89.7560012  55.3284997  65.4599988  89.0120012  56.1094997  65.5029988
  89.6330012  54.6654997  66.3039988  90.7470012  55.7504997  65.3749988
  88.2920012  53.8634997  64.1479988  87.5180012  54.5584997  63.8579988
  88.3470012  53.0104997  63.4879988  88.1180012  53.5004997  65.1509988
  90.7610012  53.3404997  64.2599988  90.8280012  52.7704997  63.3449988
  90.5020012  52.7244997  65.1089988  91.7050012  53.7924997  64.5259988
  93.8200012  57.1284997  62.1489988  94.6950012  54.7924997  62.4979988
  93.0030012  55.7614997  67.0079988  93.5020012  55.1034997  68.1789988
  94.6030012  55.3394997  68.6439988  92.4250012  54.2654997  68.8209988
  92.0600012  53.4354997  68.1799988  91.5410012  54.8854997  69.0839988
  93.0260012  53.7414997  70.1619988  93.3350012  54.5984997  70.7979988
  93.9760012  53.1724997  70.0729988  92.0270012  52.9024997  70.9929988
  92.5480012  52.6414997  71.9379988  91.7180012  51.9364997  70.5389988
  90.7380012  53.7924997  71.3129988  90.1970012  53.1514997  72.0409988
  90.0510012  53.9654997  70.4569988  91.1260012  55.0714997  72.0509988
  91.3950012  55.8624997  71.3189988  91.9780012  54.7544997  72.6889988
  89.9590012  55.6904997  72.8719988  89.5990012  54.8984997  73.5619988
  89.1690012  56.0814997  72.1949988  90.3570012  56.9824997  73.6649988
  90.7920012  57.6224997  72.8669988  91.1170012  56.6544997  74.4049988
  89.2220012  57.8154997  74.1829988  88.5690012  57.9924997  73.3159988
  88.9880012  58.3474997  75.4019988  88.0970012  58.9574997  75.6079988
  89.8100012  58.2534997  76.6449988  90.7770012  57.8234997  76.3069988
  89.3750012  57.4464997  77.2729988  90.0280012  59.6054997  77.3569988
  89.1810012  59.9814997  77.9699988  89.9950012  60.4284997  76.6109988
  91.3040012  59.6604997  78.1749988  91.4330012  60.5684997  78.8019988
  92.1080012  59.8474997  77.4319988  91.6960012  58.4274997  79.0469988
  91.4850012  57.4964997  78.4789988  90.9490012  58.5834997  79.8549988
  93.1600012  58.5084997  79.4759988  93.4910012  59.5224997  79.7879988
  93.7490012  58.4784997  78.5339988  93.8090012  57.3884997  80.3079988
  93.3890012  56.4104997  79.9899988  93.4750012  57.3884997  81.3679988
  95.3500012  57.3694997  80.2779988  95.6870012  58.3514997  80.6719988
  95.8150012  57.2254997  79.2789988  96.0090012  56.2724997  81.1419988
  95.8300012  55.3504997  80.5469988  95.5800012  56.3224997  82.1649988
  97.1020012  56.4274997  81.2619988  98.3620012  70.0124997  81.6939988
  98.0450012  71.0744997  81.7759988  99.2840012  70.0164997  81.0729988
  98.6550012  69.5934997  82.6799988  97.2900012  69.1824997  81.0309988
  97.7730012  68.2244997  80.7419988  96.5030012  68.9924997  81.7919988
  96.5980012  69.7804997  79.8469988  96.2150012  68.8584997  79.3599988
  95.7600012  70.4574997  80.1179988  97.4060012  70.5354997  78.7949988
  97.4560012  71.5824997  79.1629988  98.4090012  70.0614997  78.8469988
  96.7270012  70.3964997  77.4959988  96.4830012  69.3284997  77.3139988
  95.7890012  70.9864997  77.5779988  97.4870012  70.9614997  76.3319988
  97.8770012  71.9444997  76.6739988  98.4610012  70.4574997  76.1509988
  96.7010012  71.2504997  75.0879988  95.7990012  71.8304997  75.3789988
  97.4290012  71.8014997  74.4539988  96.4000012  69.9354997  74.2119988
  95.7950012  69.1894997  74.7699988  95.7790012  70.3754997  73.4029988
  97.5540012  69.1434997  73.5449988  98.1890012  68.6844997  74.3319988
  97.0560012  68.2754997  73.0629988  98.3530012  69.8584997  72.4329988
  97.5610012  70.1104997  71.6959988  98.8180012  70.7984997  72.7979988
  99.4240012  68.9864997  71.7769988 100.0440012  68.5354997  72.5809988
  99.0480012  68.0504997  71.3099988 100.1830012  69.5964997  70.6819988
 100.7940012  70.3944997  71.1549988 100.9350012  68.8834997  70.2829988
  99.3520012  70.2174997  69.5629988  98.8950012  71.1834997  69.8669988
 100.0730012  70.4804997  68.7589988  98.2490012  69.3614997  69.0149988
  97.6120012  68.9394997  69.8209988  97.6200012  69.9894997  68.3489988
  98.7940012  68.2674997  68.0789988  98.9500012  68.7504997  67.0909988
  99.5980012  67.6714997  68.5609988  97.6780012  67.2444997  67.9729988
  97.2020012  66.6354997  68.9139988  97.4020012  67.0184997  66.6819988
  96.2800012  66.2834997  66.4739988  96.4150012  65.9024997  65.4389988
  95.9980012  65.4404997  67.1399988  95.0470012  67.2404997  66.4199988
  94.0950012  66.8104997  66.0409988  95.4570012  68.3864997  65.4719988
  96.0510012  67.9484997  64.6419988  94.5400012  68.8944997  65.1049988
  96.2490012  69.3424997  66.1759988  96.3270012  70.7814997  65.6669988
  96.7850012  70.5814997  64.1609988  98.0400012  70.1464997  63.8789988
  98.7460012  70.5684997  64.6259988  97.9730012  69.0424997  63.9799988
  98.3420012  70.6364997  62.4489988  98.4120012  71.7074997  62.5699988
  99.3420012  70.2794997  62.2489988  97.5500012  70.4674997  61.2379988
  96.9940012  69.0074997  61.2089988  97.7050012  68.2024997  61.0929988
  96.4620012  68.9154997  62.1439988  96.2940012  69.0264997  60.3869988
  96.3700012  71.4224997  61.2499988  95.6470012  71.0734997  60.5279988
  95.9660012  71.4124997  62.2519988  96.8000012  72.4034997  61.1079988
  98.3840012  70.7634997  60.0719988  97.8770012  70.7234997  59.1189988
  99.2550012  70.1244997  60.0639988  98.6380012  71.8134997  60.0849988
  94.9990012  71.3334997  65.5669988  97.3520012  71.4614997  66.5139988
  94.7630012  67.7694997  67.7229988  93.6080012  68.3964997  67.9269988
  92.6570012  68.5714997  67.1609988  93.6820012  69.0754997  69.2829988
  94.7000012  69.4814997  69.4649988  93.4220012  68.3604997  70.0929988
  92.4330012  70.0544997  69.2709988  91.4710012  69.5004997  69.3299988
  92.4830012  70.7594997  68.4139988  92.4110012  71.0374997  70.4759988
  91.6990012  71.8734997  70.3029988  93.4260012  71.4794997  70.5779988
  91.9800012  70.3204997  71.7699988  92.5690012  69.3834997  71.8629988
  90.9600012  69.9104997  71.6139988  92.1640012  71.1734997  73.0389988
  92.0200012  72.2614997  72.8659988  93.2230012  71.0624997  73.3559988
  91.3230012  70.7044997  74.1159988  91.6450012  69.6774997  74.3909988
  90.2350012  70.7594997  73.8959988  91.4590012  71.6864997  75.3409988
  90.5550012  71.5794997  75.9779988  91.5630012  72.6884997  74.8739988
  92.7330012  71.4814997  76.2089988  93.6740012  71.7754997  75.7209988
  92.8070012  71.0874997  77.5159988  93.8190012  70.8114997  77.8479988
  91.8440012  70.7254997  78.5699988  91.0670012  71.5054997  78.7239988
  92.3540012  70.4994997  79.5309988  91.1220012  69.4224997  78.1669988
  90.6890012  69.5214997  77.1479988  90.3140012  69.2934997  78.9189988
  92.0380012  68.2104997  78.2039988  92.8140012  68.2804997  77.4109988
  91.4720012  67.3184997  77.8629988  92.5590012  67.7974997  79.6129988
  91.8080012  67.9954997  80.4079988  93.3700012  68.5144997  79.8619988
  93.0290012  66.3384997  79.7469988  93.3700012  65.9764997  78.7539988
  92.1970012  65.6644997  80.0429988  94.1530012  66.1654997  80.8209988
  93.7330012  66.6794997  81.7119988  95.0030012  66.8324997  80.5599988
  94.4860012  64.6724997  80.9949988  94.5020012  64.2074997  79.9869988
  93.6800012  64.1884997  81.5869988  95.8750012  64.5224997  81.7019988
  96.2670012  63.5054997  81.4859988  95.6510012  64.5844997  82.7889988
  96.5170012  65.4084997  81.5109988  84.1290012  50.1234997  84.0049988
  85.1870012  50.3684997  84.2409988  83.9460012  49.2224997  84.6279988
  83.4200012  50.8224997  84.4979988  83.8140012  49.9104997  82.5389988
  82.8050012  49.4454997  82.5349988  83.8250012  50.9584997  82.1699988
  84.7960012  48.9094997  81.8879988  85.8530012  49.1584997  82.1259988
  84.6380012  47.8964997  82.3159988  84.6200012  48.8834997  80.2779988
  84.5860012  49.9794997  80.0989988  85.4840012  48.2974997  79.8959988
  83.2370012  48.2704997  79.8749988  83.2930012  47.2264997  80.2499988
  82.5390012  48.9934997  80.3489988  83.1000012  48.2894997  78.3349988
  83.9340012  48.9214997  77.9609988  83.3040012  47.2884997  77.8959988
  81.6860012  48.8624997  77.9659988  80.8130012  48.5284997  78.5659988
  81.7390012  49.9514997  78.1789988  81.4160012  48.4074997  76.4929988
  81.4230012  47.2964997  76.4859988  80.4580012  48.8494997  76.1459988
  82.5360012  48.9214997  75.6009988  82.8800012  49.9694997  75.7309988
  83.4490012  48.3314997  75.8319988  82.2210012  48.8194997  74.0769988
  81.2930012  49.4264997  74.0109988  83.0360012  49.2384997  73.4489988
  81.9920012  47.3204997  73.6339988  83.0060012  46.8894997  73.7769988
  81.2340012  47.0214997  74.3879988  81.5630012  47.1034997  72.1839988
  81.2550012  46.0534997  71.9949988  80.6290012  47.6974997  72.0869988
  82.5610012  47.5444997  71.0819988  82.5160012  48.6514997  70.9949988
  83.6350012  47.2624997  71.1189988  82.1070012  47.0334997  69.6929988
  82.9480012  47.0134997  68.9669988  81.7680012  45.9804997  69.7949988
  81.0040012  47.8984997  69.0609988  80.0850012  47.8914997  69.6849988
  81.3340012  48.9564997  68.9809988  80.5910012  47.3334997  67.6579988
  81.0440012  46.3714997  67.0659988  79.7020012  48.2404997  67.1019988
  79.2250012  47.8914997  65.7739988  79.3830012  46.8354997  65.4699988
  78.1140012  47.9274997  65.7729988  79.6520012  49.0164997  64.7259988
  79.0710012  48.9804997  63.7799988  81.1200012  48.9204997  64.3779988
  81.3750012  47.8864997  64.0639988  81.2090012  49.6114997  63.5119988
  81.8640012  49.4174997  65.4429988  83.4690012  49.4484997  65.3989988
  83.8620012  50.3384997  64.1719988  84.8840012  49.9364997  63.2689988
  85.7950012  49.5784997  63.7939988  84.5210012  49.0434997  62.7169988
  85.2490012  51.1504997  62.3769988  85.7770012  51.9334997  62.9009988
  86.0240012  51.0034997  61.6389988  84.0590012  51.8214997  61.6379988
  83.2220012  52.5764997  62.5799988  83.6560012  53.3684997  63.1719988
  82.4610012  53.0954997  62.0159988  82.7980012  51.7974997  63.1949988
  84.7120012  52.7354997  60.5349988  83.9780012  53.0224997  59.7969988
  85.1960012  53.5884997  60.9869988  85.4420012  52.1144997  60.0379988
  83.2080012  50.7724997  60.9489988  82.4890012  51.3214997  60.3589988
  82.7520012  50.0894997  61.6499988  83.7680012  50.1144997  60.2999988
  83.9190012  50.2014997  66.5879988  83.9900012  48.1054997  65.2319988
  79.3170012  50.2234997  65.3539988  79.3550012  51.4104997  64.6929988
  79.7740012  51.6784997  63.5669988  78.7990012  52.4134997  65.6569988
  78.3810012  51.9844997  66.5919988  78.0150012  52.9354997  65.0669988
  79.7680012  53.5104997  66.1819988  79.0950012  54.3524997  66.4509988
  80.4010012  53.9564997  65.3839988  80.4180012  53.1354997  67.5349988
  81.0290012  52.2274997  67.3449988  79.6310012  52.7784997  68.2329988
  81.2960012  54.2324997  68.1889988  80.5770012  54.9084997  68.6989988
  81.8400012  54.9114997  67.4979988  82.2930012  53.8574997  69.3079988
  82.6510012  54.7514997  69.8619988  83.0980012  53.3024997  68.7809988
  81.6410012  53.0154997  70.3569988  81.0420012  52.1274997  70.0599988
  80.8500012  53.5204997  70.9499988  82.7000012  52.5084997  71.3659988
  83.4600012  51.8224997  70.9349988  82.2160012  51.9034997  72.1619988
  83.5130012  53.6404997  71.9759988  84.4400012  53.8824997  71.4359988
  83.3100012  54.2154997  73.1969988  84.0170012  54.9754997  73.5599988
  82.2710012  53.9934997  74.2389988  81.4530012  53.2884997  73.9789988
  81.6280012  54.8874997  74.3859988  82.7780012  53.5284997  75.6429988
  83.5390012  54.2074997  76.0849988  83.2320012  52.5444997  75.3949988
  81.6250012  53.2044997  76.6609988  81.2300012  52.2074997  76.3699988
  80.8000012  53.9464997  76.6079988  82.0800012  53.0464997  78.1079988
  82.7390012  53.8844997  78.4199988  82.8500012  52.2464997  78.0889988
  80.9830012  52.6814997  79.1569988  80.4480012  51.7674997  78.8199988
  80.3000012  53.5524997  79.0569988  81.4420012  52.5434997  80.5889988
  82.0830012  51.6474997  80.7339988  80.4660012  52.5094997  81.1199988
  82.1490012  53.8294997  81.0379988  81.4830012  54.6974997  80.8449988
  83.1560012  54.0024997  80.6019988  82.3200012  53.9384997  82.5929988
  81.2960012  53.8874997  83.0189988  82.7710012  54.9294997  82.8129988
  82.8870012  53.1534997  83.1389988  98.3760012  60.7444997  83.8679988
  97.3710012  61.1704997  83.6629988  98.5680012  61.1624997  84.8789988
  98.4180012  59.6354997  83.8189988  99.3420012  61.3404997  82.8489988
  99.5050012  62.4104997  83.0969988 100.2840012  60.8774997  83.2129988
  98.9500012  61.0874997  81.3979988  99.0670012  60.0234997  81.0999988
  97.8840012  61.3364997  81.2079988  99.7650012  61.8574997  80.3619988
  99.7960012  62.8994997  80.7449988 100.8150012  61.5254997  80.5039988
  99.4490012  61.5724997  78.8719988  99.6150012  60.4974997  78.6429988
  98.3760012  61.8304997  78.7439988 100.1900012  62.4784997  77.9169988
 100.1810012  63.5494997  78.2109988 101.2670012  62.2864997  78.1109988
  99.8380012  62.2264997  76.4079988 100.3060012  61.2444997  76.1819988
  98.7550012  62.1324997  76.1799988 100.4150012  63.2334997  75.4139988
 100.0610012  64.2464997  75.6989988 101.4900012  63.0734997  75.1819988
  99.8300012  63.0134997  73.9829988 100.0770012  61.9724997  73.6839988
  98.7380012  63.2054997  74.0479988 100.3420012  64.0704997  73.0099988
 100.2640012  65.1184997  73.3729988 101.4170012  63.8074997  72.9179988
  99.8110012  63.9594997  71.5059988  99.7220012  62.8884997  71.2229988
  98.8030012  64.4054997  71.3639988 100.5910012  64.5594997  70.3809988
 100.7440012  65.6554997  70.4829988 101.6450012  64.2204997  70.4729988
 100.1390012  64.2624997  68.9679988  99.0560012  64.1714997  68.7379988
 100.5440012  65.1214997  68.3919988 100.7210012  62.8744997  68.5029988
 101.7800012  62.8874997  68.8369988 100.1760012  62.2174997  69.2149988
 100.7070012  62.4724997  67.0009988  99.6670012  62.7154997  66.6939988
 101.3500012  63.1964997  66.4549988 101.1930012  61.0214997  66.7359988
 101.7670012  60.2554997  67.5139988 100.9320012  60.8024997  65.5009988
 101.3720012  59.5114997  64.9329988 101.6090012  59.7364997  63.8709988
 102.2940012  59.1264997  65.4209988 100.2260012  58.5234997  64.7729988
 100.5940012  57.6474997  64.1959988  99.0580012  59.0744997  63.9319988
  99.4540012  59.6174997  63.0479988  98.5440012  58.1834997  63.5109988
  98.1230012  59.9214997  64.6079988  96.6130012  60.1504997  64.0869988
  96.5260012  61.6914997  63.9439988  97.4570012  62.4584997  64.6899988
  96.9890012  63.4504997  64.8679988  97.5550012  62.0984997  65.7369988
  98.8370012  62.5334997  63.9769988  99.5510012  63.0614997  64.5919988
  99.2720012  61.5454997  63.9489988  98.9440012  63.2364997  62.6029988
 100.3880012  63.4244997  62.2919988 100.8450012  64.1074997  62.9929988
 100.9190012  62.4864997  62.3559988 100.5920012  63.9214997  61.3539988
  98.3980012  62.3594997  61.4709988  97.3610012  62.1914997  61.7249988
  98.3360012  62.7844997  60.4799988  98.9900012  61.4574997  61.4199988
  98.1000012  64.5474997  62.6329988  97.1260012  64.3024997  63.0309988
  98.1060012  65.0044997  61.6539988  98.5540012  65.2014997  63.3619988
  96.3450012  59.5774997  62.7149988  95.7270012  59.6454997  65.1599988
  99.7850012  58.1904997  66.0829988  98.9280012  57.1964997  66.1709988
  98.6360012  56.4504997  65.2819988  98.7320012  56.8724997  67.6689988
  99.5530012  57.2234997  68.3299988  98.6730012  55.7664997  67.7559988
  97.3160012  57.3384997  68.1989988  97.0850012  56.8914997  69.1889988
  96.4550012  57.0114997  67.5769988  97.1470012  58.9024997  68.4029988
  96.1350012  59.1494997  68.7889988  97.3660012  59.3284997  67.3999988
  98.1760012  59.5824997  69.3609988  98.0860012  60.6784997  69.1999988
  99.2540012  59.4234997  69.1449988  97.9390012  59.0494997  70.8039988
  98.6710012  59.5434997  71.4779988  98.0350012  57.9424997  70.8329988
  96.5720012  59.4534997  71.3749988  95.8190012  58.6934997  71.0739988
  96.1830012  60.4204997  70.9899988  96.5410012  59.5294997  72.9059988
  95.5060012  59.7214997  73.2629988  97.2250012  60.3174997  73.2889988
  97.0500012  58.3634997  73.6349988  97.8150012  57.7484997  73.1399988
  96.5800012  57.8494997  74.7659988  97.1680012  57.0174997  75.1809988
  95.3820012  58.2814997  75.7229988  94.7590012  57.3754997  75.8819988
  94.8280012  59.1654997  75.3419988  95.9090012  58.6354997  77.1559988
  95.0070012  58.7334997  77.7969988  96.3130012  59.6684997  77.1009988
  96.8610012  57.6164997  77.8079988  97.7430012  57.6074997  77.1319988
  96.3440012  56.6394997  77.9229988  97.4540012  57.9064997  79.1939988
  97.4530012  58.9974997  79.4019988  98.4850012  57.4924997  79.1969988
  96.6870012  57.2494997  80.4109988  96.4620012  56.1804997  80.2099988
  95.6810012  57.7194997  80.3869988  97.3290012  57.5094997  81.7729988
  96.5410012  57.5094997  82.5569988  97.6950012  58.5574997  81.7719988
  98.5200012  56.5544997  82.2399988  98.1240012  55.5324997  82.4269988
  98.8470012  56.9684997  83.2169988  99.6680012  56.5194997  81.3349988
  99.4260012  55.9484997  80.4129988 100.5710012  56.0164997  81.7419988
  99.8770012  57.5774997  81.0669988  47.1070012  58.8504997  82.5019988
  46.1150012  58.5634997  82.9129988  47.9440012  58.6074997  83.1899988
  47.2590012  58.3784997  81.5069988  47.1120012  60.3694997  82.2889988
  46.4400012  60.8904997  83.0039988  48.1370012  60.7244997  82.5279988
  46.7750012  60.8874997  80.9259988  47.6410012  60.7154997  80.2519988
  45.8960012  60.3174997  80.5579988  46.3890012  62.3574997  80.7249988
  45.4260012  62.5354997  81.2499988  47.1960012  63.0264997  81.0929988
  46.0520012  62.6314997  79.2059988  46.9810012  62.4424997  78.6269988
  45.1570012  62.0804997  78.8459988  45.5460012  64.0724997  78.8589988
  44.5340012  64.1094997  79.3169988  46.1610012  64.9414997  79.1759988
  45.3840012  64.3584997  77.3329988  45.3060012  65.4454997  77.1169988
  46.2130012  63.9464997  76.7189988  44.2030012  63.5694997  76.6969988
  44.4220012  62.5074997  76.9419988  43.2310012  63.7154997  77.2149988
  44.2320012  63.6824997  75.2639988  43.7620012  64.6344997  74.9359988
  45.2810012  63.6914997  74.9009988  43.4240012  62.5404997  74.4819988
  43.8230012  61.5384997  74.7469988  42.4100012  62.6294997  74.9259988
  43.3190012  62.6204997  73.0069988  42.4780012  61.9254997  72.7939988
  43.1250012  63.6514997  72.6399988  44.3910012  61.9764997  72.2259988
  44.6460012  60.9494997  72.5649988  44.0330012  61.8464997  71.1819988
  45.7320012  62.7374997  72.0369988  45.3900012  63.7794997  71.8629988
  46.2940012  62.7464997  72.9949988  46.6570012  62.0904997  70.9849988
  47.7520012  62.1904997  71.1439988  46.2690012  61.0494997  71.0019988
  46.3880012  62.5844997  69.5779988  46.5840012  61.8084997  68.8079988
  45.3530012  62.9064997  69.3349988  47.2910012  63.8524997  69.3349988
  47.5010012  64.7434997  70.1649988  47.9570012  63.7414997  68.1359988
  48.6690012  64.8304997  67.5069988  48.0980012  65.7604997  67.7129988
  49.7040012  64.7954997  67.9099988  48.6850012  64.5844997  66.0129988
  49.2220012  65.4854997  65.6479988  47.2950012  64.4034997  65.4179988
  46.7660012  65.3234997  65.7469988  47.3170012  64.3944997  64.3069988
  46.6850012  63.2444997  65.9019988  45.4820012  62.7004997  65.0179988
  46.2710012  62.0724997  63.7669988  47.3260012  61.2234997  64.1319988
  48.2050012  61.7004997  64.6159988  46.8810012  60.4254997  64.7629988
  47.7810012  60.5584997  62.7729988  48.3640012  59.6764997  62.9929988
  46.8740012  60.1854997  62.3199988  48.6000012  61.4914997  61.8449988
  49.9370012  61.8704997  62.4609988  50.4290012  62.5084997  61.7419988
  49.6410012  62.4324997  63.3339988  50.4710012  60.9694997  62.7249988
  48.9660012  60.7104997  60.4919988  48.1030012  60.4424997  59.8999988
  49.5870012  61.3864997  59.9239988  49.6060012  59.8744997  60.7349988
  47.8580012  62.6674997  61.4039988  47.7570012  63.4044997  62.1869988
  46.8820012  62.2704997  61.1629988  48.2210012  63.0654997  60.4679988
  44.7050012  61.6624997  65.7059988  44.7010012  63.9284997  64.6799988
  49.4220012  63.3794997  65.7739988  50.8030012  63.3454997  65.9249988
  51.5110012  64.3144997  65.9549988  51.2720012  61.9034997  66.1509988
  52.3120012  61.9964997  66.5299988  51.1150012  61.3144997  65.2219988
  50.3320012  61.2704997  67.2449988  49.4200012  60.9954997  66.6729988
  50.0170012  61.9704997  68.0489988  50.5740012  59.9184997  67.9289988
  50.8100012  59.0874997  67.2299988  49.7240012  59.5454997  68.5389988
  51.8200012  59.9254997  68.8249988  52.8050012  60.1074997  68.3449988
  51.9550012  58.9044997  69.2409988  51.8060012  60.9284997  70.0469988
  51.4100012  61.9254997  69.7569988  52.8790012  60.9904997  70.3319988
  51.1660012  60.4594997  71.3649988  51.5330012  59.4524997  71.6559988
  50.0660012  60.4014997  71.2219988  51.3380012  61.4964997  72.5429988
  51.6000012  62.5184997  72.1939988  52.2460012  61.1354997  73.0719988
  50.1160012  61.4744997  73.4249988  49.9130012  60.5444997  73.9759988
  49.3860012  62.5454997  73.7979988  48.5480012  62.3814997  74.4909988
  49.6550012  63.9614997  73.4279988  49.2780012  64.0764997  72.3889988
  50.7520012  64.1104997  73.3379988  48.9960012  64.9364997  74.3589988
  47.9180012  64.9574997  74.0919988  49.4620012  65.9294997  74.1869988
  48.9300012  64.5494997  75.8759988  48.3920012  63.5824997  75.9739988
  48.3120012  65.3754997  76.2899988  50.2250012  64.5634997  76.6769988
  50.7570012  65.4724997  76.3239988  50.8410012  63.6684997  76.4449988
  49.9330012  64.4784997  78.2029988  49.5770012  63.4644997  78.4879988
  49.1760012  65.2474997  78.4669988  51.1330012  64.6804997  79.0899988
  51.5810012  65.6894997  78.9699988  51.8890012  63.9234997  78.7909988
  51.0140012  64.4854997  80.6149988  50.4200012  63.5694997  80.8229988
  50.3720012  65.3364997  80.9259988  52.3210012  64.4274997  81.4729988
  52.8300012  63.4884997  81.1679988  51.9810012  64.5684997  82.5219988
  52.9330012  65.3164997  81.2099988  45.4040012  70.2464997  81.0569988
  46.3650012  70.7204997  81.3499988  44.9640012  69.5054997  81.7569988
  44.6510012  71.0154997  80.7809988  45.8600012  69.2874997  79.8699988
  46.7010012  68.7294997  80.3349988  45.1050012  68.4914997  79.6999988
  46.3690012  69.9034997  78.5559988  45.5820012  70.5944997  78.1829988
  47.2630012  70.5414997  78.7219988  46.5320012  68.9214997  77.4089988
  45.5490012  68.4214997  77.2789988  46.6480012  69.3574997  76.3939988
  47.5740012  67.7444997  77.4679988  47.6760012  67.3834997  78.5129988
  47.1300012  66.9374997  76.8469988  48.9700012  68.0254997  76.8759988
  49.4860012  67.0474997  76.7689988  48.8310012  68.7134997  76.0159988
  49.8460012  68.8564997  77.8249988  49.3730012  69.8324997  78.0679988
  49.9170012  68.3214997  78.7959988  51.1650012  69.2014997  77.1939988
  51.9160012  69.5804997  77.9189988  51.5700012  68.3064997  76.6749988
  51.0000012  70.4524997  76.2289988  50.3470012  70.2324997  75.3569988
  50.5070012  71.2024997  76.8819988  52.3550012  70.9234997  75.8259988
  52.9450012  71.2564997  76.7059988  52.9030012  70.0134997  75.4999988
  52.3070012  71.9934997  74.7819988  51.4860012  71.6944997  74.0949988
  51.9410012  72.9664997  75.1749988  53.6590012  72.2224997  74.1219988
  53.5530012  73.1644997  73.5429988  54.4880012  72.2214997  74.8629988
  54.0930012  71.1004997  73.1469988  55.1280012  71.3974997  72.8709988
  54.1370012  70.1324997  73.6899988  53.2080012  70.9164997  71.8709988
  53.4900012  69.8874997  71.5629988  52.1640012  70.9124997  72.2509988
  53.5220012  72.0534997  70.8819988  53.2350012  73.0214997  71.3439988
  54.6060012  72.0814997  70.6429988  52.6450012  71.9734997  69.6159988
  51.7990012  72.8284997  69.2789988  52.8780012  70.8474997  69.0569988
  52.3280012  70.6304997  67.7409988  51.9390012  71.5594997  67.2699988
  53.0270012  70.1374997  67.0319988  51.0510012  69.7334997  67.9059988
  51.3310012  68.7204997  68.2659988  50.2060012  69.4584997  66.6099988
  50.8280012  69.5294997  65.6919988  49.8380012  68.4104997  66.5879988
  49.0310012  70.2754997  66.5359988  48.8300012  71.4034997  65.4609988
  48.8470012  70.5474997  64.1529988  47.7380012  69.5884997  63.8619988
  48.2500012  68.7194997  63.3959988  47.2290012  69.1724997  64.7569988
  46.7620012  70.1404997  62.8379988  45.9890012  69.3864997  62.7939988
  46.3160012  71.0574997  63.1939988  47.2470012  70.4854997  61.4339988
  48.3810012  71.5754997  61.3549988  48.0370012  72.5784997  61.5609988
  49.1710012  71.2584997  62.0189988  48.7440012  71.5154997  60.3389988
  47.7420012  69.2254997  60.7709988  48.5880012  68.8614997  61.3359988
  46.9320012  68.5134997  60.7039988  48.0870012  69.3134997  59.7519988
  46.1720012  70.9534997  60.5739988  46.4700012  71.0474997  59.5399988
  45.9730012  72.0014997  60.7399988  45.2930012  70.3304997  60.6359988
  47.5050012  72.0234997  65.7049988  50.0500012  72.2684997  65.4929988
  50.2320012  70.4014997  68.8849988  49.5040012  69.6424997  69.6539988
  49.5570012  68.4584997  69.6759988  48.6370012  70.4424997  70.5679988
  47.6330012  69.9734997  70.4929988  48.5150012  71.4524997  70.1209988
  49.0230012  70.3504997  72.0139988  50.0780012  70.6774997  72.1399988
  48.9480012  69.3264997  72.4399988  48.2010012  71.2974997  72.8749988
  48.2790012  71.0574997  73.9569988  47.1210012  71.2004997  72.6329988
  48.7050012  72.6994997  72.7189988  48.8930012  73.0654997  71.6869988
  49.7710012  72.6724997  73.0339988  47.8880012  73.8124997  73.3879988
  46.8890012  73.7604997  72.9039988  48.3450012  74.7634997  73.0409988
  47.9230012  73.6854997  74.9489988  48.9780012  73.5164997  75.2549988
  47.2300012  72.8474997  75.1749988  47.4140012  74.8294997  75.8109988
  47.4110012  74.6004997  76.8989988  46.3790012  74.9934997  75.4409988
  47.9790012  76.2024997  75.6919988  47.6090012  76.8654997  74.8969988
  49.0640012  76.7074997  76.2799988  49.2420012  77.7934997  76.3019988
  50.0710012  76.1434997  77.2949988  51.0450012  76.4134997  76.8329988
  50.0510012  75.0404997  77.4289988  49.8440012  76.8144997  78.6949988
  48.9360012  76.3794997  79.1629988  49.6760012  77.8844997  78.4449988
  51.0950012  76.5694997  79.6249988  50.8750012  77.2004997  80.5119988
  52.0330012  76.9744997  79.1869988  51.3620012  75.1024997  79.9859988
  52.1840012  75.0104997  80.7269988  51.6540012  74.5174997  79.0879988
  50.2100012  74.4644997  80.7969988  49.2080012  74.6464997  80.3529988
  50.2680012  74.8504997  81.8369988  50.4710012  73.0084997  80.8619988
  51.3750012  72.6564997  81.4039988  50.5100012  72.7014997  79.7949988
  49.3040012  72.2664997  81.5679988  48.3510012  72.6354997  81.1319988
  49.2750012  72.7044997  82.5879988  49.4060012  70.7324997  81.5599988
  49.4570012  70.3134997  80.5319988  48.5610012  70.2054997  82.0529988
  50.3670012  70.3824997  81.9929988  94.1180012  77.6324997  83.8639988
  94.9690012  77.2424997  83.2649988  93.1370012  77.3784997  83.4089988
  94.0480012  77.0544997  84.8109988  94.3540012  79.1774997  83.9299988
  93.4570012  79.6814997  84.3499988  95.2030012  79.3154997  84.6329988
  94.6310012  79.9224997  82.6509988  95.1790012  80.8794997  82.7859988
  95.3870012  79.3574997  82.0659988  93.3880012  80.3254997  81.8749988
  92.8840012  79.4004997  81.5219988  92.7410012  80.8464997  82.6129988
  93.6920012  81.1184997  80.6499988  92.7190012  81.4914997  80.2639988
  94.2680012  82.0124997  80.9739988  94.4330012  80.3794997  79.5469988
  95.3920012  80.0844997  80.0249988  94.0060012  79.4004997  79.2419988
  94.5920012  81.2134997  78.1829988  95.0410012  80.4674997  77.4919988
  93.6530012  81.5294997  77.6799988  95.5870012  82.3914997  78.1989988
  95.2160012  83.2414997  78.8109988  96.5220012  82.0684997  78.7059988
  95.8010012  82.9714997  76.8349988  96.6590012  83.6774997  76.8089988
  96.1750012  82.1544997  76.1819988  94.6920012  83.8334997  76.3479988
  93.8110012  83.1774997  76.1839988  94.3360012  84.4674997  77.1869988
  94.9040012  84.6394997  75.0569988  94.2710012  85.5504997  74.9849988
  95.9470012  85.0144997  75.1299988  94.7870012  83.8934997  73.7469988
  95.3880012  82.9844997  73.9609988  93.7370012  83.6364997  73.4909988
  95.5380012  84.5974997  72.5889988  95.3980012  85.6934997  72.7049988
  96.5900012  84.3314997  72.8259988  95.1320012  84.1474997  71.2059988
  94.9740012  83.0474997  71.2229988  94.1150012  84.4984997  70.9279988
  96.1210012  84.6654997  70.2309988  96.1550012  85.7714997  70.1369988
  97.1170012  84.1754997  70.2959988  95.6510012  84.4274997  68.7229988
  94.5290012  84.5464997  68.2629988  96.7570012  84.1984997  67.9959988
  96.6370012  83.8814997  66.5909988  95.6350012  83.9684997  66.1189988
  97.2920012  84.5444997  65.9859988  96.9950012  82.3814997  66.3879988
  97.9870012  82.2174997  66.8609988  97.0620012  82.0044997  64.8129988
  97.4650012  82.8874997  64.2719988  97.7580012  81.1714997  64.5749988
  95.7860012  81.6374997  64.2379988  95.8050012  81.2504997  62.7149988
  96.5570012  79.8584997  62.8099988  95.9330012  78.7294997  63.3599988
  95.5610012  78.8724997  64.3969988  95.0110012  78.4104997  62.8289988
  96.9570012  77.5264997  63.2969988  96.4730012  76.6214997  63.6349988
  97.1660012  77.3884997  62.2469988  98.1930012  77.6434997  64.1189988
  97.7450012  77.8314997  65.5469988  97.3870012  78.8434997  65.6659988
  96.9570012  77.1424997  65.8129988  98.5460012  77.5974997  66.2319988
  99.0330012  76.3534997  64.0689988  98.4420012  75.4534997  64.1479988
  99.5670012  76.3004997  63.1309988  99.8200012  76.3924997  64.8069988
  99.1220012  78.7454997  63.7709988  98.8050012  79.7454997  64.0249988
  99.4640012  78.6234997  62.7539988 100.0070012  78.4534997  64.3179988
  94.4420012  81.0084997  62.2679988  96.5950012  82.2084997  61.9869988
  95.9190012  81.4754997  66.8299988  96.0280012  80.7704997  67.9299988
  97.0080012  80.7034997  68.6729988  94.7340012  79.9684997  68.0889988
  94.6510012  79.2124997  67.2789988  93.8120012  80.5784997  67.9779988
  94.6920012  79.1744997  69.4409988  95.5050012  79.4164997  70.1589988
  94.8830012  78.1154997  69.1679988  93.3420012  79.3614997  70.1549988
  92.5750012  78.9774997  69.4489988  93.2240012  80.4534997  70.3259988
  93.1870012  78.8744997  71.6039988  93.4070012  77.7904997  71.7129988
  92.1140012  79.0474997  71.8339988  93.8800012  79.6274997  72.7959988
  93.2700012  79.7694997  73.7139988  94.1110012  80.6774997  72.5169988
  95.2850012  79.1384997  73.1069988  95.8510012  78.9124997  72.1779988
  95.3100012  78.1824997  73.6719988  96.2050012  80.0824997  73.8879988
  95.6630012  80.2804997  74.8379988  96.3010012  81.0934997  73.4379988
  97.5860012  79.5714997  74.0349988  98.1570012  79.5204997  73.0959988
  98.3510012  79.3554997  75.0769988  99.3600012  79.0024997  74.8189988
  98.0320012  79.6324997  76.5259988  97.2820012  78.9054997  76.9049988
  97.6660012  80.6804997  76.5689988  99.1330012  79.6104997  77.4849988
  99.9780012  80.1244997  76.9779988  99.3600012  78.5524997  77.7359988
  98.9670012  80.3054997  78.8039988  97.9970012  79.9984997  79.2519988
  98.8920012  81.3964997  78.6099988 100.1130012  79.9124997  79.7389988
 101.0150012  80.5484997  79.6159988 100.4630012  78.9514997  79.3069988
  99.7820012  79.6934997  81.2469988  99.6750012  80.7224997  81.6519988
 100.7420012  79.3824997  81.7109988  98.5790012  78.7144997  81.4769988
  98.7870012  77.7344997  80.9979988  97.6230012  79.1024997  81.0649988
  98.3900012  78.3334997  82.9519988  97.4120012  77.8234997  83.0879988
  98.2060012  79.2664997  83.5259988  99.5670012  77.5984997  83.5869988
  99.1680012  77.0734997  84.4809988 100.3590012  78.3054997  83.9149988
 100.0450012  76.7424997  83.0649988  68.8840012  97.5434997  82.2909988
  68.0320012  97.1354997  82.8759988  69.4700012  98.2654997  82.8989988
  69.5250012  96.7064997  81.9399988  68.4320012  98.1684997  80.9999988
  67.4430012  98.6344997  81.1989988  69.1500012  98.9994997  80.8319988
  68.4090012  97.1824997  79.8169988  69.4540012  96.8374997  79.6629988
  67.8360012  96.2884997  80.1439988  67.8780012  97.8314997  78.4719988
  66.7880012  98.0374997  78.5389988  68.4130012  98.8044997  78.4929988
  68.2620012  96.9634997  77.2139988  69.2870012  96.5454997  77.3029988
  67.4850012  96.1704997  77.2059988  68.3640012  97.8534997  75.9409988
  67.5830012  98.6374997  75.8539988  69.2360012  98.4704997  76.2459988
  68.6660012  97.2034997  74.5919988  69.3460012  97.8564997  74.0029988
  69.2460012  96.2584997  74.6679988  67.3790012  97.0134997  73.8209988
  66.6960012  96.3504997  74.3939988  66.9540012  98.0174997  73.6059988
  67.7340012  96.4044997  72.4119988  68.2090012  97.1174997  71.7049988
  68.4560012  95.5614997  72.4699988  66.5200012  95.8344997  71.5959988
  67.0430012  95.1004997  70.9469988  65.9230012  95.1984997  72.2829988
  65.4920012  96.7884997  71.0369988  64.9680012  97.3684997  71.8269988
  66.0030012  97.5834997  70.4519988  64.4490012  96.0114997  70.1629988
  64.1670012  95.0974997  70.7279988  63.6000012  96.7094997  69.9979988
  64.9830012  95.5314997  68.8109988  65.8010012  94.8034997  68.9989988
  64.1040012  95.2834997  68.1789988  65.7190012  96.6164997  67.9039988
  66.5660012  97.0444997  68.4809988  66.1070012  96.1164997  66.9909988
  64.9680012  97.8484997  67.3519988  64.2500012  97.5114997  66.5739988
  64.3600012  98.1894997  68.2169988  65.8940012  98.8634997  66.8029988
  65.7340012 100.0814997  66.8319988  66.9220012  98.2384997  66.2019988
  67.8940012  99.1264997  65.4749988  67.2340012  99.8114997  64.9019988
  68.5360012  99.6854997  66.1879988  68.7780012  98.3444997  64.4419988
  69.4610012  99.1524997  64.1009988  68.0680012  97.8694997  63.2129988
  67.7410012  98.7634997  62.6409988  68.7190012  97.2794997  62.5329988
  66.9590012  97.1074997  63.6149988  65.5750012  97.1524997  62.7779988
  65.2040012  95.6014997  62.7629988  64.9110012  94.9524997  63.9799988
  64.3200012  95.5764997  64.6849988  64.2050012  94.1084997  63.8259988
  66.1380012  94.4944997  64.7359988  66.7830012  95.3454997  64.8929988
  65.8980012  93.9494997  65.6369988  67.0440012  93.4844997  63.9569988
  67.7590012  94.0164997  62.7669988  68.3210012  93.1504997  62.4479988
  67.0030012  94.2604997  62.0359988  68.4100012  94.8504997  62.9829988
  68.0430012  93.1124997  65.0519988  68.8710012  92.5364997  64.6669988
  68.3610012  94.0504997  65.4829988  67.5070012  92.6534997  65.8699988
  66.2770012  92.2094997  63.6359988  65.9060012  91.7304997  64.5299988
  67.0180012  91.5214997  63.2569988  65.5670012  92.4084997  62.8469988
  64.5580012  97.8814997  63.5439988  65.8090012  97.6524997  61.3519988
  69.3930012  97.2244997  65.0249988  70.1640012  97.4064997  66.1399988
  70.5950012  98.4184997  66.5269988  70.5310012  96.0514997  66.7899988
  71.4030012  96.2054997  67.4609988  70.8590012  95.3504997  65.9929988
  69.3070012  95.5444997  67.5149988  68.4040012  95.4744997  66.8719988
  69.0310012  96.2204997  68.3529988  69.7330012  94.1844997  68.1829988
  70.4600012  94.4414997  68.9819988  70.3090012  93.6354997  67.4089988
  68.6070012  93.3714997  68.7409988  67.9640012  92.8434997  68.0049988
  67.8500012  93.9774997  69.2829988  69.0980012  92.4014997  69.8199988
  69.7640012  92.9064997  70.5519988  69.6570012  91.5654997  69.3479988
  67.9390012  91.7194997  70.6549988  67.3690012  91.0734997  69.9539988
  67.4250012  92.6434997  70.9949988  68.2620012  91.0624997  71.9039988
  68.8340012  91.7824997  72.5279988  68.9590012  90.2274997  71.6769988
  67.0690012  90.6964997  72.6549988  66.8650012  89.6254997  72.5049988
  66.3550012  91.4344997  73.4659988  65.4430012  91.0104997  73.9119988
  66.6650012  92.9204997  73.8709988  65.9350012  93.6314997  73.4299988
  67.6500012  93.3074997  73.5329988  66.6510012  93.2264997  75.3929988
  66.6640012  94.3134997  75.6239988  67.5310012  92.6874997  75.8039988
  65.3760012  92.7234997  76.0779988  65.1910012  91.6314997  76.1599988
  64.5900012  93.1614997  75.4259988  65.2160012  93.2814997  77.5209988
  64.1100012  93.2224997  77.6089988  65.3510012  94.3834997  77.5759988
  66.0180012  92.6094997  78.5889988  67.0850012  92.9104997  78.5169988
  65.8510012  91.5154997  78.4859988  65.5660012  92.9514997  80.0149988
  64.5520012  92.5094997  80.1149988  65.6430012  94.0144997  80.3279988
  66.3890012  92.2104997  80.9829988  67.4230012  92.2184997  80.5759988
  66.0430012  91.1764997  81.1979988  66.4590012  92.9614997  82.2489988
  67.3340012  92.8234997  82.9199988  65.6190012  92.7284997  82.9379988
  66.4760012  94.0644997  82.1109988  46.1190012  78.2884997  85.1219988
  47.0990012  77.7674997  85.0729988  45.3810012  77.5684997  84.7069988
  45.8960012  78.4124997  86.2029988  46.0560012  79.6474997  84.4799988
  45.4670012  79.5824997  83.5399988  45.5190012  80.2574997  85.2379988
  47.3650012  80.4814997  84.4819988  47.1880012  81.4904997  84.9139988
  48.1110012  80.0174997  85.1619988  48.0580012  80.7224997  83.0989988
  48.6500012  79.9154997  82.6169988  47.2910012  81.0354997  82.3589988
  49.0940012  81.8824997  83.1079988  48.5120012  82.8174997  83.2459988
  49.7730012  81.6794997  83.9629988  49.9740012  81.9414997  81.8809988
  50.6820012  82.7924997  81.9729988  50.6120012  81.0444997  82.0319988
  49.2500012  82.1384997  80.5349988  48.3960012  81.4274997  80.5379988
  48.7750012  83.1414997  80.5039988  50.1450012  81.9184997  79.3399988
  51.0370012  82.5584997  79.5129988  50.6370012  80.9274997  79.4409988
  49.5620012  82.2354997  77.9589988  48.6300012  82.8234997  78.1019988
  50.2960012  82.9204997  77.4849988  49.2450012  81.0634997  76.9979988
  48.4260012  80.4254997  77.3929988  48.9950012  81.5404997  76.0269988
  50.4990012  80.2694997  76.9409988  51.3550012  80.9744997  77.0159988
  50.5680012  79.4584997  77.6969988  50.6660012  79.4644997  75.6039988
  51.5320012  78.7954997  75.7919988  49.8290012  78.7534997  75.4379988
  50.8640012  80.3764997  74.3649988  50.1370012  81.2134997  74.2929988
  51.8980012  80.7634997  74.4889988  50.8920012  79.4334997  73.1309988
  51.7860012  78.8434997  73.4249988  49.9560012  78.8534997  73.2719988
  51.1170012  80.0294997  71.7449988  50.5010012  80.9394997  71.5829988
  52.1310012  80.4754997  71.6539988  50.7840012  79.0054997  70.7129988
  51.4490012  78.0194997  70.4709988  49.5120012  79.2044997  70.2039988
  48.7750012  78.0244997  69.8539988  49.4220012  77.2974997  69.3179988
  48.2340012  77.5444997  70.6979988  47.7900012  78.3024997  68.6919988
  47.3800012  77.2944997  68.4709988  48.5810012  78.6324997  67.3469988
  49.3490012  79.4284997  67.4499988  49.0500012  77.6294997  67.2519988
  47.7610012  79.0014997  66.3009988  46.8140012  78.0744997  65.5979988
  47.1510012  78.1904997  64.0679988  47.9010012  79.2744997  63.5129988
  47.4920012  80.2104997  63.9499988  48.9960012  79.2254997  63.6899988
  47.5740012  79.4314997  61.9679988  48.3120012  80.1264997  61.5959988
  47.7890012  78.4394997  61.5999988  46.1410012  79.7954997  61.3689988
  45.9190012  81.2524997  61.8669988  45.1980012  81.6824997  61.1869988
  45.6050012  81.2484997  62.8999988  46.8280012  81.8334997  61.8159988
  46.1700012  79.8054997  59.8659988  45.2130012  80.0814997  59.4489988
  46.9480012  80.4354997  59.4619988  46.3110012  78.8024997  59.4919988
  44.9780012  78.9344997  61.8209988  44.0640012  79.3234997  61.3969988
  44.9370012  78.8214997  62.8939988  45.1450012  77.9694997  61.3659988
  47.1150012  76.6384997  65.9689988  45.4680012  78.6414997  65.8409988
  46.8510012  79.3064997  69.1079988  45.7450012  78.8094997  69.5249988
  45.3820012  77.6924997  69.6149988  44.7360012  80.0074997  69.7989988
  43.7170012  79.6804997  70.0959988  44.6950012  80.6714997  68.9089988
  45.1930012  80.9684997  70.9239988  44.3570012  81.6844997  71.0699988
  46.1810012  81.4264997  70.7059988  45.5500012  80.1364997  72.1709988
  46.3170012  79.3784997  71.9039988  44.6080012  79.7244997  72.5939988
  46.3250012  80.9684997  73.2599988  45.6230012  81.7244997  73.6709988
  47.3170012  81.3924997  72.9939988  46.4190012  79.9954997  74.4519988
  47.1210012  80.4944997  75.1539988  46.9520012  79.0584997  74.1829988
  45.1500012  79.6844997  75.2049988  44.4080012  79.1324997  74.5889988
  44.6570012  80.6664997  75.3709988  45.1820012  78.7284997  76.4629988
  44.1100012  78.6174997  76.7349988  45.7740012  79.3094997  77.2019988
  45.7970012  77.3404997  76.3559988  45.5730012  76.8534997  75.3949988
  46.7110012  76.7214997  77.1309988  47.1010012  75.7424997  76.8149988
  47.3640012  77.1794997  78.4109988  46.9390012  78.1034997  78.8569988
  48.3780012  77.4694997  78.0619988  47.2800012  75.9914997  79.4349988
  47.7160012  76.3464997  80.3919988  48.0160012  75.2234997  79.1149988
  45.9070012  75.3114997  79.6909988  45.7210012  74.3454997  79.1729988
  45.1800012  76.0734997  79.3389988  45.6680012  74.9934997  81.1999988
  45.8340012  75.9324997  81.7709988  46.3410012  74.1914997  81.5709988
  44.2170012  74.4714997  81.4489988  44.2180012  73.3974997  81.1649988
  43.6260012  74.9264997  80.6249988  43.6720012  74.8074997  82.7789988
  44.3610012  74.5424997  83.6089988  42.6670012  74.3564997  82.9229988
  43.3570012  76.3214997  82.9879988  42.9940012  76.5674997  81.9679988
  44.3080012  76.8664997  83.1709988  42.4530012  76.6954997  84.1629988
  41.5010012  76.1304997  84.0729988  42.2810012  77.7884997  84.2609988
  42.9660012  76.2264997  85.0299988  87.4570012  95.0664997  81.7349988
  88.4270012  95.4984997  81.4079988  87.4460012  93.9574997  81.6669988
  87.2710012  95.2404997  82.8159988  86.3010012  95.7164997  80.8609988
  86.2720012  96.7754997  81.1949988  86.4380012  95.6874997  79.7589988
  85.0060012  95.1464997  81.3389988  84.8670012  94.0934997  81.0119988
  85.0240012  95.1324997  82.4499988  83.8250012  95.9934997  80.9929988
  82.9080012  95.4814997  81.3549988  83.7640012  96.9594997  81.5389988
  83.4010012  96.1654997  79.5459988  82.4660012  96.7664997  79.5429988
  84.1330012  96.8464997  79.0619988  83.3380012  94.8844997  78.7189988
  84.2670012  94.2774997  78.7639988  82.6010012  94.2324997  79.2339988
  82.7500012  94.9894997  77.3299988  82.2630012  94.0214997  77.0849988
  82.0730012  95.8674997  77.4069988  83.8090012  95.2694997  76.2019988
  84.8420012  95.4984997  76.5419988  83.9120012  94.2684997  75.7299988
  83.2810012  96.2994997  75.1979988  82.6580012  95.6634997  74.5329988
  82.6920012  97.0624997  75.7509988  84.3830012  96.9264997  74.3379988
  84.0320012  97.8204997  73.7799988  84.9560012  97.3524997  75.1889988
  85.0650012  95.9194997  73.4699988  86.0320012  96.3844997  73.1819988
  85.1670012  95.0074997  74.0959988  84.2900012  95.5984997  72.1629988
  83.2850012  95.1754997  72.3749988  84.0720012  96.5604997  71.6519988
  84.9540012  94.5544997  71.2279988  86.0580012  94.6764997  71.2029988
  84.6530012  93.5604997  71.6239988  84.4620012  94.3814997  69.7559988
  84.4790012  93.3284997  69.4009988  83.3810012  94.6244997  69.8389988
  85.3560012  95.2874997  68.8349988  85.3330012  96.3654997  69.1019988
  86.4100012  94.9504997  68.9339988  84.8660012  95.3134997  67.4049988
  83.7420012  95.7394997  67.1649988  85.8550012  94.9704997  66.6189988
  85.5640012  94.8484997  65.2129988  84.8500012  95.6544997  64.9389988
  86.4710012  94.9094997  64.5739988  84.9160012  93.4094997  64.8489988
  85.6490012  92.5864997  64.9919988  84.6370012  93.3504997  63.3449988
  85.6460012  93.3584997  62.8809988  84.2070012  92.3764997  63.0289988
  83.8870012  94.4164997  62.7609988  82.3600012  94.2934997  62.4609988
  81.8870012  95.0174997  63.7759988  82.0380012  96.4524997  63.8879988
  82.3660012  96.7244997  64.9139988  82.8260012  96.9304997  63.2679988
  80.6900012  97.1384997  63.4239988  80.9110012  98.1854997  63.2769988
  80.3540012  96.7634997  62.4679988  79.4800012  97.0714997  64.3539988
  79.8510012  97.5904997  65.6549988  80.1600012  98.6174997  65.5259988
  79.0190012  97.6394997  66.3419988  80.6570012  97.0604997  66.1399988
  78.3490012  97.9554997  63.7959988  77.4750012  97.8214997  64.4169988
  78.6830012  98.9794997  63.8749988  78.0900012  97.7244997  62.7729988
  79.1400012  95.6504997  64.3709988  78.9350012  95.3004997  63.3699988
  78.2170012  95.6294997  64.9319988  79.9020012  95.1564997  64.9559988
  81.9940012  95.0624997  61.1869988  81.8620012  92.9514997  62.5079988
  83.7840012  93.2064997  65.7369988  83.1190012  91.9984997  65.6249988
  83.3670012  91.0774997  64.8049988  82.1150012  91.8034997  66.8129988
  82.6350012  91.5684997  67.7659988  81.5150012  90.8784997  66.6789988
  81.1100012  92.9114997  67.0119988  80.5010012  93.1654997  66.1179988
  81.5100012  93.8624997  67.4239988  80.0550012  92.6284997  68.1059988
  80.4760012  92.5604997  69.1319988  79.6470012  91.6254997  67.8579988
  78.9530012  93.7994997  68.1989988  78.2940012  93.5124997  69.0459988
  78.4210012  93.9874997  67.2419988  79.5480012  95.2174997  68.4999988
  78.6420012  95.8474997  68.6219988  80.2690012  95.6174997  67.7559988
  80.1790012  95.2434997  69.8499988  81.2370012  94.9054997  69.8249988
  79.6780012  94.5324997  70.5419988  80.1450012  96.5804997  70.6009988
  79.1120012  96.9874997  70.5889988  80.6980012  97.2654997  69.9229988
  80.6800012  96.5934997  72.0409988  81.7670012  96.7524997  72.1059988
  79.9990012  96.2384997  73.1829988  80.4530012  96.2644997  74.1849988
  78.5240012  95.7704997  73.2049988  78.1090012  95.8454997  72.1769988
  77.9420012  96.4304997  73.8819988  78.4890012  94.3304997  73.5919988
  79.1460012  93.7614997  72.8999988  77.4560012  93.9384997  73.4709988
  79.0900012  93.9194997  74.9779988  80.0710012  94.4414997  75.0099988
  79.2150012  92.8174997  75.0539988  78.2040012  94.4134997  76.1439988
  77.2690012  93.8444997  75.9549988  77.9600012  95.4864997  75.9889988
  78.7240012  94.2724997  77.5809988  78.0510012  94.7384997  78.3329988
  79.6890012  94.7994997  77.7349988  79.2540012  92.9344997  78.0779988
  80.2690012  92.7134997  77.6839988  78.7730012  92.0884997  77.5419988
  79.0930012  92.5904997  79.5339988  78.0410012  92.5484997  79.8889988
  79.6300012  93.3544997  80.1369988  79.6370012  91.1764997  79.8539988
  80.6610012  91.0894997  79.4319988  78.9660012  90.4744997  79.3149988
  79.5010012  90.8644997  80.9109988  89.5360012  89.8184997  82.0829988
  90.5090012  89.4694997  82.4899988  88.9260012  89.9914997  82.9949988
  89.6570012  90.7784997  81.5369988  88.9220012  88.8094997  81.1689988
  89.6450012  88.5994997  80.3519988  88.8500012  87.8544997  81.7309988
  87.5920012  89.2904997  80.6699988  87.0840012  88.4944997  80.0849988
  86.9580012  89.5974997  81.5279988  87.5730012  90.4484997  79.7239988
  86.5390012  90.6404997  79.3639988  87.8820012  91.4034997  80.2009988
  88.4250012  90.1634997  78.3959988  88.2070012  90.8084997  77.5179988
  89.4970012  90.2444997  78.6779988  88.4150012  88.7434997  77.8489988
  88.7310012  87.9494997  78.5599988  87.3670012  88.4744997  77.5979988
  89.1660012  88.4904997  76.4709988  89.1850012  87.3944997  76.2889988
  88.5070012  88.8634997  75.6579988  90.4990012  89.2284997  76.3789988
  90.3620012  90.2374997  76.8229988  91.1890012  88.7384997  77.0989988
  91.1320012  89.2494997  74.9819988  91.4390012  88.2534997  74.5959988
  90.3940012  89.5344997  74.2009988  92.2970012  90.2114997  74.9629988
  91.8110012  91.1434997  75.3229988  92.9720012  90.0784997  75.8349988
  93.1240012  90.4684997  73.6609988  94.0900012  90.9084997  73.9889988
  93.3980012  89.4354997  73.3589988  92.2900012  91.2014997  72.6039988
  91.3750012  90.6254997  72.3509988  91.9820012  92.2144997  72.9419988
  93.2110012  91.3914997  71.3119988  93.9070012  92.2194997  71.5679988
  93.9280012  90.5454997  71.2549988  92.4840012  91.5444997  69.9629988
  91.8810012  90.6114997  69.9489988  91.8430012  92.4514997  69.9909988
  93.4970012  91.4454997  68.7899988  94.2600012  92.2514997  68.8449988
  94.0320012  90.4734997  68.8589988  92.7150012  91.5554997  67.5069988
  91.5780012  92.0044997  67.4969988  93.3320012  91.1334997  66.4419988
  92.8420012  91.2704997  65.1609988  92.0300012  92.0284997  65.1419988
  93.6830012  91.6554997  64.5459988  92.3240012  89.9234997  64.6419988
  93.1430012  89.2044997  64.8569988  91.9450012  90.0624997  63.1179988
  92.9090012  90.3924997  62.6759988  91.7300012  89.0934997  62.6169988
  90.9190012  90.9884997  62.8619988  89.4350012  90.4434997  62.5529988
  88.5930012  91.6614997  62.8299988  88.9530012  92.9844997  62.3669988
  90.0330012  93.1214997  62.5869988  88.5980012  93.0464997  61.3159988
  88.1550012  94.0764997  63.0959988  88.5080012  95.0144997  62.6919988
  87.1080012  94.0074997  62.8399988  88.1870012  93.9964997  64.6399988
  89.6630012  93.7284997  65.0799988  90.2390012  94.6324997  64.9559988
  89.7840012  93.2984997  66.0639988  90.1100012  93.0064997  64.4129988
  87.5930012  95.2144997  65.2449988  88.3540012  95.9644997  65.0849988
  86.7440012  95.4904997  64.6379988  87.4420012  95.2544997  66.3139988
  87.3350012  92.7974997  65.0089988  86.2980012  92.8404997  64.7109988
  87.3010012  92.6674997  66.0809988  87.8300012  91.8804997  64.7269988
  89.4130012  90.3174997  61.1269988  89.0250012  89.3344997  63.3709988
  91.2160012  89.4994997  65.5079988  90.8880012  88.2984997  65.4049988
  91.3800012  87.4904997  64.6189988  89.9680012  87.8984997  66.5219988
  89.5080012  86.8974997  66.3759988  89.0990012  88.5694997  66.6919988
  90.6730012  87.7594997  67.8649988  91.2270012  88.7114997  68.0079988
  91.4400012  86.9894997  67.6379988  89.8140012  87.3834997  69.0619988
  90.5250012  87.1694997  69.8879988  89.3970012  86.3894997  68.7909988
  88.6630012  88.3004997  69.4539988  87.9650012  87.7074997  70.0839988
  88.0350012  88.6304997  68.5989988  89.0780012  89.5824997  70.2219988
  89.9610012  90.1284997  69.8279988  89.4480012  89.1344997  71.1679988
  88.0050012  90.5854997  70.3579988  87.1780012  90.1274997  70.9419988
  87.6420012  90.7654997  69.3239988  88.5060012  91.9524997  71.0429988
  89.1780012  92.4464997  70.3089988  89.0010012  91.6354997  71.9849988
  87.4210012  92.8724997  71.4329988  86.9870012  93.4174997  70.5819988
  86.9840012  93.1394997  72.6609988  86.0620012  93.6864997  72.9109988
  87.6120012  92.3804997  73.8179988  87.4940012  91.2954997  73.6109988
  87.1230012  92.5614997  74.7989988  89.0670012  92.7764997  74.1079988
  89.5940012  93.2084997  73.2309988  89.5950012  91.8784997  74.4939988
  89.2390012  93.9384997  75.0819988  88.3900012  94.6304997  74.8929988
  90.1930012  94.4464997  74.8229988  89.2730012  93.5524997  76.5649988
  89.9640012  92.7324997  76.8569988  88.2240012  93.3114997  76.8399988
  89.9040012  94.6574997  77.4199988  89.4080012  95.6464997  77.3169988
  90.9610012  94.9324997  77.2189988  89.7280012  94.5944997  78.9799988
  88.7480012  94.1674997  79.2819988  89.8030012  95.6114997  79.4219988
  90.8740012  93.8234997  79.7009988  91.8540012  94.0494997  79.2279988
  90.6340012  92.7434997  79.5999988  91.0050012  94.2274997  81.2179988
  90.0550012  94.0334997  81.7609988  91.1280012  95.3274997  81.1269988
  91.7960012  93.6964997  81.7899988  57.9770012  51.6944997  83.2909988
  58.7380012  51.7984997  84.0939988  56.9570012  51.9514997  83.6489988
  58.1420012  52.3494997  82.4099988  57.8040012  50.2594997  82.8049988
  57.9040012  49.5304997  83.6369988  56.8120012  50.1774997  82.3099988
  58.9440012  49.8354997  81.9059988  59.8860012  49.9034997  82.4929988
  58.7440012  48.7454997  81.8169988  59.0470012  50.5404997  80.5219988
  59.4190012  51.5774997  80.6669988  59.7800012  49.9494997  79.9319988
  57.6940012  50.4574997  79.8529988  57.1900012  49.5544997  80.2599988
  57.1550012  51.4144997  80.0219988  57.8370012  50.1614997  78.3089988
  58.3970012  49.2034997  78.2649988  56.8120012  49.9374997  77.9439988
  58.5690012  51.2454997  77.4759988  58.5220012  52.3014997  77.8169988
  59.6770012  51.1644997  77.4439988  58.0370012  51.2254997  75.9959988
  56.9270012  51.2294997  76.0359988  58.4940012  52.1464997  75.5739988
  58.3390012  49.9354997  75.3369988  57.8430012  49.1054997  75.8839988
  57.8870012  49.9824997  74.3229988  59.8550012  49.5944997  75.0989988
  60.4430012  50.4074997  74.6219988  60.3190012  49.5804997  76.1079988
  60.0210012  48.3604997  74.2709988  59.6310012  47.4244997  74.7249988
  59.5020012  48.5624997  73.3099988  61.4660012  48.0104997  73.9629988
  61.8430012  49.0354997  73.7569988  61.8460012  47.4924997  74.8689988
  61.6700012  47.2104997  72.6669988  62.7630012  47.1354997  72.4829988
  61.2880012  46.1664997  72.6809988  61.0990012  47.8204997  71.3709988
  60.0800012  48.2244997  71.5489988  61.7480012  48.6694997  71.0639988
  61.0730012  46.7104997  70.2409988  62.0710012  46.2324997  70.1499988
  60.3860012  45.9634997  70.6929988  60.6640012  47.3614997  68.9209988
  60.4240012  48.5504997  68.8449988  60.6080012  46.4024997  67.9239988
  59.8990012  46.9514997  66.7689988  60.1740012  47.9954997  66.5089988
  60.3210012  46.3514997  65.9349988  58.4100012  46.6754997  66.8389988
  58.2440012  45.6094997  66.5729988  57.6520012  47.5334997  65.7349988
  57.9560012  47.0734997  64.7699988  56.5560012  47.4374997  65.8859988
  58.1360012  48.8954997  65.8459988  57.2520012  50.1594997  65.4869988
  57.5800012  50.4404997  63.9589988  58.9360012  50.7654997  63.6649988
  59.1500012  51.8074997  63.9859988  59.6610012  50.1224997  64.2089988
  59.2830012  50.6204997  62.1619988  58.7420012  51.4244997  61.6849988
  60.3480012  50.7894997  62.1079988  58.9040012  49.3094997  61.4589988
  59.5380012  49.2754997  60.0879988  60.5710012  49.5924997  60.1019988
  59.5160012  48.2704997  59.6939988  59.0680012  50.0894997  59.5559988
  59.3680012  48.1674997  62.2609988  58.8210012  48.2534997  63.1869988
  59.0540012  47.2114997  61.8679988  60.4110012  48.2164997  62.5369988
  57.4800012  49.1904997  61.2679988  57.1810012  50.0474997  60.6829988
  56.8890012  49.2304997  62.1709988  57.3160012  48.3084997  60.6659988
  55.8240012  49.8284997  65.6079988  57.7910012  51.2434997  66.3769988
  57.8270012  47.0414997  68.1429988  56.7230012  46.3884997  68.5289988
  56.1160012  45.6134997  67.8559988  56.4420012  46.7734997  70.0619988
  57.2660012  46.5314997  70.7669988  55.5220012  46.2324997  70.3699988
  56.0430012  48.2544997  70.1629988  55.0720012  48.3064997  69.6259988
  56.7760012  48.9624997  69.7209988  55.9010012  48.7714997  71.6419988
  55.4810012  49.7994997  71.6079988  56.9580012  48.8934997  71.9599988
  55.0230012  47.9794997  72.5069988  54.8550012  46.9444997  72.1409988
  53.9660012  48.3164997  72.4419988  55.4110012  48.1384997  73.9849988
  55.5230012  49.2354997  74.1249988  56.3820012  47.6004997  74.0369988
  54.4660012  47.4974997  75.0809988  54.7150012  46.4194997  75.1859988
  53.4100012  47.5524997  74.7399988  54.6580012  48.1224997  76.4959988
  54.2580012  49.1584997  76.4839988  55.7560012  48.1384997  76.6659988
  54.1770012  47.4384997  77.7549988  53.3230012  47.8744997  78.2939988
  54.7550012  46.3854997  78.3399988  54.3030012  45.9544997  79.2459988
  55.9980012  45.6774997  77.8789988  55.9620012  45.6014997  76.7709988
  55.9940012  44.6374997  78.2709988  57.2810012  46.4014997  78.2449988
  57.4610012  46.4574997  79.3399988  57.3050012  47.4424997  77.8589988
  58.4710012  45.8424997  77.5239988  58.1730012  45.6034997  76.4809988
  58.7910012  44.8164997  77.8049988  59.7440012  46.7304997  77.5119988
  59.5570012  47.7354997  77.0769988  60.4370012  46.1324997  76.8829988
  60.3160012  46.9874997  79.0019988  60.3680012  45.9794997  79.4669988
  59.6160012  47.6214997  79.5869988  61.7040012  47.6154997  79.1279988
  61.5070012  48.6464997  78.7639988  62.3600012  47.0444997  78.4369988
  62.1960012  47.6604997  80.5979988  62.2860012  46.5994997  80.9159988
  61.3630012  48.0644997  81.2129988  63.5340012  48.3704997  80.8069988
  63.8300012  48.0044997  81.8129988  63.4370012  49.4764997  80.7969988
  64.1840012  47.9164997  80.0279988  77.8150012  50.7594997  81.0089988
  77.3580012  51.2334997  81.9039988  78.9170012  50.8794997  81.0809988
  77.5750012  49.6754997  80.9959988  77.3660012  51.3444997  79.6329988
  77.4920012  52.4474997  79.5969988  78.1340012  51.0524997  78.8849988
  75.9410012  51.0734997  79.2329988  75.7430012  50.0244997  78.9239988
  75.3230012  51.3344997  80.1179988  75.5100012  51.9764997  78.0569988
  75.9960012  52.9564997  78.2499988  75.8700012  51.5624997  77.0909988
  73.9750012  52.2024997  78.0579988  73.5800012  52.6254997  79.0069988
  73.7350012  52.8594997  77.1949988  73.1840012  50.8984997  77.7509988
  73.3620012  50.2634997  78.6459988  72.1060012  51.1554997  77.6739988
  73.6760012  50.0654997  76.5209988  73.5600012  50.6594997  75.5899988
  74.7500012  49.8224997  76.6699988  72.7920012  48.8024997  76.3299988
  72.8850012  48.1744997  77.2419988  71.7520012  49.1934997  76.3119988
  73.0350012  47.8304997  75.2129988  73.1530012  48.4264997  74.2829988
  74.0230012  47.3624997  75.4089988  71.8820012  46.8734997  74.9409988
  71.6880012  46.2214997  75.8189988  70.9720012  47.4604997  74.6909988
  72.1150012  46.0004997  73.7179988  73.1350012  45.5884997  73.8759988
  71.3380012  45.2064997  73.6929988  72.0390012  46.7634997  72.3859988
  71.2370012  47.4994997  72.6079988  72.9520012  47.3304997  72.1059988
  71.5790012  46.0354997  71.1519988  70.6650012  45.4324997  71.3349988
  71.2250012  46.7684997  70.3969988  72.7530012  45.1884997  70.6229988
  73.5950012  45.9134997  70.5909988  73.0130012  44.3264997  71.2749988
  72.2990012  44.5764997  69.2519988  72.9140012  43.6784997  69.0299988
  71.2310012  44.2744997  69.2169988  72.5770012  45.7024997  68.2649988
  73.6710012  46.2174997  68.2689988  71.5120012  46.1384997  67.6269988
  71.6600012  47.2204997  66.7129988  72.5240012  46.9954997  66.0509988
  70.6810012  47.1154997  66.1989988  71.8190012  48.6664997  67.3579988
  70.8640012  48.8874997  67.8819988  72.0850012  49.6344997  66.1619988
  71.5450012  49.4064997  65.2179988  71.6480012  50.6154997  66.4439988
  73.4270012  49.7904997  65.8969988  73.9650012  50.1044997  64.3959988
  74.0050012  48.5914997  63.8959988  74.8330012  47.5814997  64.3139988
  75.4760012  47.8904997  65.1649988  74.2700012  46.6644997  64.5939988
  75.8690012  47.0704997  63.2429988  76.5120012  46.3124997  63.6659988
  75.2170012  46.5284997  62.5739988  76.6710012  48.0234997  62.3999988
  77.7100012  48.8414997  63.1869988  77.3230012  49.3984997  64.0279988
  78.3440012  48.0954997  63.6449988  78.2820012  49.5014997  62.5509988
  77.3640012  47.1604997  61.3539988  76.6690012  46.4514997  60.9279988
  77.7820012  47.7664997  60.5639988  78.1200012  46.6194997  61.9039988
  75.8400012  48.9754997  61.5539988  75.1530012  48.3294997  61.0269988
  76.4750012  49.4784997  60.8399988  75.2630012  49.6194997  62.2009988
  72.8770012  50.6854997  63.5899988  75.2770012  50.8044997  64.3489988
  72.9590012  48.7744997  68.2409988  73.0350012  49.9374997  68.9289988
  72.1990012  50.8404997  68.9769988  74.3370012  49.8634997  69.7189988
  75.2010012  50.2764997  69.1559988  74.5780012  48.8194997  70.0149988
  74.2330012  50.5374997  71.0869988  73.4590012  50.1684997  71.7929988
  73.8950012  51.5304997  70.7199988  75.5730012  50.4424997  71.9249988
  76.3870012  50.6064997  71.1869988  75.7870012  49.3954997  72.2279988
  75.5550012  51.4544997  73.0729988  74.7310012  51.3494997  73.8109988
  75.2940012  52.4774997  72.7279988  76.7970012  51.3374997  73.8779988
  76.6570012  51.9804997  74.7729988  77.6890012  51.7684997  73.3749988
  76.9690012  49.9774997  74.3609988  77.4500012  49.4244997  73.5249988
  76.0120012  49.4724997  74.6119988  78.0150012  49.7294997  75.4489988
  77.5180012  49.9754997  76.4119988  78.8500012  50.4594997  75.3949988
  78.3610012  48.2514997  75.5239988  78.7950012  47.8884997  74.5809988
  78.1280012  47.4484997  76.5989988  78.2810012  46.3634997  76.5059988
  77.5230012  47.7244997  77.9019988  77.3420012  48.8124997  78.0339988
  78.0420012  47.3804997  78.8219988  76.0380012  47.1564997  77.8869988
  75.5160012  47.8414997  77.1849988  75.6140012  47.2304997  78.9109988
  75.8730012  45.6794997  77.4129988  76.3910012  45.5364997  76.4409988
  74.7940012  45.4844997  77.2349988  76.2690012  44.5934997  78.4649988
  77.3680012  44.7314997  78.5569988  76.1140012  43.5774997  78.0429988
  75.7790012  44.7104997  79.9449988  76.0710012  45.7094997  80.3339988
  76.3890012  44.0514997  80.5979988  74.2930012  44.4454997  80.0949988
  74.0720012  43.4764997  79.5989988  73.6250012  45.1844997  79.6039988
  73.8580012  44.1644997  81.5469988  74.4590012  43.4004997  82.0849988
  72.8540012  43.6914997  81.4919988  73.6490012  45.4494997  82.3209988
  74.6680012  45.7644997  82.6309988  73.1130012  45.3314997  83.2869988
  73.0910012  46.2364997  81.7699988  38.1200012  70.7724997  85.2179988
  37.9720012  70.0664997  84.3739988  37.5370012  70.6034997  86.1489988
  39.1860012  70.5584997  85.4439988  37.9920012  72.2274997  84.7599988
  36.9440012  72.3484997  84.4099988  38.2740012  72.8764997  85.6159988
  39.0460012  72.5694997  83.6649988  40.0900012  72.3974997  84.0039988
  38.9030012  71.8934997  82.7949988  38.9090012  74.0404997  83.1179988
  39.0000012  74.7474997  83.9699988  39.8260012  74.2224997  82.5179988
  37.6580012  74.1784997  82.2869988  36.7760012  73.9744997  82.9309988
  37.5680012  75.2104997  81.8859988  37.5060012  73.1734997  81.0669988
  37.4570012  72.1354997  81.4599988  36.5550012  73.3854997  80.5339988
  38.6480012  73.3494997  80.1049988  39.6510012  73.1564997  80.5419988
  38.7700012  72.5124997  79.3859988  38.6570012  74.6684997  79.4209988
  37.6780012  74.6484997  78.8949988  38.6070012  75.5394997  80.1089988
  39.7210012  75.0624997  78.3629988  39.6020012  76.0994997  77.9829988
  40.7020012  75.1814997  78.8709988  39.9180012  74.0714997  77.1949988
  40.4690012  73.1954997  77.5999988  38.9940012  73.6544997  76.7409988
  40.6700012  74.7214997  76.0259988  40.0480012  75.6114997  75.7899988
  41.6640012  75.0294997  76.4149988  40.8210012  73.7924997  74.8209988
  41.4760012  74.4454997  74.2049988  41.3120012  72.8214997  75.0459988
  39.4860012  73.5094997  74.0119988  38.7470012  73.0294997  74.6869988
  39.1390012  74.5004997  73.6489988  39.6350012  72.5974997  72.7629988
  40.0460012  71.5954997  73.0109988  38.6190012  72.3844997  72.3669988
  40.4500012  73.2744997  71.6789988  40.0850012  74.3124997  71.5279988
  41.5070012  73.5454997  71.8879988  40.2800012  72.5314997  70.3219988
  39.3420012  71.7774997  70.1049988  41.1290012  72.9454997  69.3869988
  40.7440012  72.3804997  68.1049988  40.7540012  71.2704997  68.0689988
  39.7130012  72.7414997  67.9019988  41.6650012  73.0004997  66.9849988
  41.4440012  74.0814997  66.8569988  41.2750012  72.2824997  65.6619988
  41.4590012  71.2044997  65.8579988  40.2080012  72.3194997  65.3549988
  42.1120012  72.7184997  64.5629988  41.6850012  73.6514997  63.3599988
  40.8430012  74.7534997  64.1779988  40.6170012  76.0114997  63.4369988
  41.3220012  76.8204997  63.7249988  40.8030012  75.8854997  62.3489988
  39.2270012  76.6494997  63.6469988  39.1650012  76.9624997  64.6789988
  39.0810012  77.5164997  63.0199988  37.9980012  75.6214997  63.5159988
  38.1880012  74.8894997  62.2809988  39.1950012  74.6224997  61.9959988
  37.5890012  73.9914997  62.2499988  37.8850012  75.5844997  61.5129988
  38.0150012  74.7304997  64.6619988  39.0430012  74.4624997  64.8569988
  37.6160012  75.2714997  65.5069988  37.3650012  73.9394997  64.3179988
  36.7030012  76.3604997  63.4119988  36.7460012  77.1554997  62.6819988
  36.4470012  76.9214997  64.2989988  35.8720012  75.6714997  63.3989988
  42.8200012  74.3054997  62.6219988  40.7180012  72.8504997  62.5029988
  43.0420012  72.8424997  67.4099988  43.9500012  73.6644997  66.9299988
  43.7920012  74.5214997  66.0829988  45.2630012  73.3494997  67.7219988
  45.9510012  73.0784997  66.8929988  45.1250012  72.5494997  68.4809988
  45.7200012  74.6094997  68.5769988  46.0250012  75.4334997  67.8969988
  46.6780012  74.3734997  69.0879988  44.5960012  74.9774997  69.6489988
  44.3500012  74.1284997  70.3209988  43.6540012  75.2114997  69.1089988
  44.9880012  76.1384997  70.4829988  45.1810012  77.0364997  69.8569988
  45.9950012  75.9644997  70.9189988  44.0380012  76.5264997  71.6019988
  43.0200012  76.7194997  71.2029988  44.4600012  77.4464997  72.0599988
  43.8610012  75.4744997  72.7649988  43.3940012  74.5604997  72.3409988
  43.1180012  75.9034997  73.4709988  45.1330012  75.1594997  73.6449988
  45.6950012  76.0994997  73.8299988  45.7040012  74.5894997  72.8809988
  44.8490012  74.2994997  74.8329988  45.1700012  73.2694997  74.6209988
  44.4950012  74.7324997  76.0879988  44.5220012  74.0194997  76.9259988
  44.3210012  76.0624997  76.6379988  43.2420012  76.3214997  76.5729988
  44.7410012  76.8324997  75.9569988  44.8510012  76.2974997  78.0519988
  44.6780012  77.3584997  78.3309988  45.9620012  76.2664997  78.0369988
  44.1060012  75.5744997  79.1369988  44.4500012  74.5194997  79.1939988
  43.0700012  75.4874997  78.7449988  44.1480012  76.1774997  80.5569988
  44.0590012  77.2814997  80.4679988  45.0450012  75.8064997  81.0979988
  43.0030012  75.6644997  81.3749988  42.8520012  74.5704997  81.4909988
  42.1600012  76.1104997  80.8049988  43.0060012  76.3334997  82.7739988
  43.2220012  77.4054997  82.5779988  43.8400012  75.8854997  83.3559988
  41.7440012  76.1034997  83.5369988  41.7120012  75.0084997  83.7239988
  40.9140012  76.3374997  82.8359988  41.5590012  76.7184997  84.9079988
  41.9870012  77.7434997  84.8959988  42.1320012  76.1394997  85.6629988
  40.4660012  76.6594997  85.0979988  53.6810012  91.3434997  80.9709988
  53.3490012  92.0594997  81.7519988  54.7870012  91.3844997  81.0729988
  53.3020012  90.3014997  81.0479988  53.2560012  91.9004997  79.5969988
  53.5140012  91.2574997  78.7279988  52.1710012  92.1404997  79.6109988
  53.9140012  93.2694997  79.2329988  53.8730012  93.9304997  80.1249988
  55.0160012  93.1344997  79.2049988  53.4080012  94.0884997  78.0349988
  54.1450012  94.8544997  77.7119988  53.2300012  93.3654997  77.2099988
  52.0760012  94.9004997  78.3199988  51.1720012  94.2974997  78.5499988
  52.2530012  95.5984997  79.1669988  51.7880012  95.8394997  77.1469988
  52.5920012  96.5464997  76.8479988  51.5660012  95.2364997  76.2409988
  50.6200012  96.7944997  77.4679988  49.8030012  96.1234997  77.8099988
  50.8750012  97.3504997  78.3949988  50.2060012  97.7814997  76.2869988
  49.2860012  98.3354997  76.5719988  51.0950012  98.4394997  76.1869988
  50.0970012  97.1414997  74.9009988  51.0860012  96.7334997  74.6009988
  49.3020012  96.3744997  75.0269988  49.7450012  98.0814997  73.7339988
  49.0980012  98.8824997  74.1509988  50.6860012  98.5944997  73.4419988
  49.0450012  97.5014997  72.4819988  48.6540012  96.4864997  72.7109988
  48.1890012  98.1274997  72.1529988  49.8730012  97.1914997  71.1789988
  49.3610012  96.6304997  70.3679988  50.2850012  98.1474997  70.7899988
  51.1250012  96.2344997  71.5339988  51.6360012  96.8334997  72.3179988
  50.7140012  95.3284997  72.0289988  52.0100012  95.8404997  70.3649988
  51.4130012  95.4214997  69.5259988  52.4000012  96.7714997  69.8999988
  53.1260012  94.8194997  70.7709988  54.1190012  95.1974997  70.4449988
  53.1530012  94.8234997  71.8809988  52.9630012  93.3884997  70.3549988
  52.8120012  92.4694997  71.1139988  53.1740012  93.3594997  68.9809988
  52.6960012  92.2244997  68.3649988  53.5560012  91.8274997  67.7839988
  52.4030012  91.4184997  69.0709988  51.4620012  92.5204997  67.4749988
  51.2620012  91.5034997  67.0739988  51.8220012  93.5584997  66.4519988
  52.8290012  94.0234997  66.4999988  51.9030012  93.1714997  65.4139988
  50.8770012  94.6614997  66.4859988  51.1350012  95.8894997  65.4569988
  51.2470012  95.1114997  64.0909988  50.4380012  95.3064997  62.9219988
  49.3790012  95.5094997  63.1899988  50.6510012  96.1894997  62.2809988
  50.4070012  94.0284997  62.0699988  49.8660012  93.1864997  62.4759988
  49.8830012  94.3124997  61.1699988  51.7100012  93.4694997  61.6649988
  52.5200012  94.5904997  61.0849988  53.0480012  95.1464997  61.8449988
  53.2400012  94.1974997  60.3809988  51.8990012  95.2804997  60.5339988
  52.5410012  92.8464997  62.7029988  53.5670012  92.8964997  62.3699988
  52.5450012  93.3624997  63.6519988  52.2300012  91.8374997  62.9279988
  51.4200012  92.4144997  60.5649988  51.1830012  92.9324997  59.6469988
  50.6390012  91.7294997  60.8579988  52.3330012  91.8434997  60.4809988
  49.9310012  96.7624997  65.4219988  52.4750012  96.5034997  65.7159988
  50.3600012  92.9224997  68.3199988  49.1270012  92.6924997  67.7779988
  48.8840012  92.4254997  66.6099988  48.1360012  93.0484997  68.8749988
  47.1030012  92.9724997  68.4739988  48.2860012  94.0794997  69.2609988
  48.3910012  92.1964997  70.1149988  49.4630012  92.3044997  70.3869988
  48.0680012  91.1834997  69.7929988  47.4890012  92.6954997  71.2249988
  46.4240012  92.6054997  70.9219988  47.6730012  93.7874997  71.1289988
  47.9570012  92.1854997  72.5689988  48.8050012  92.7854997  72.9629988
  48.3070012  91.1464997  72.3919988  46.7340012  92.0734997  73.4699988
  47.0530012  91.2834997  74.1839988  45.8100012  91.7234997  72.9609988
  46.5200012  93.2724997  74.3829988  45.4220012  93.3774997  74.5189988
  46.9630012  94.2034997  73.9699988  47.2250012  93.0694997  75.8179988
  46.8090012  92.1344997  76.2499988  46.8160012  93.8804997  76.4579988
  48.7410012  93.2194997  75.7479988  49.1980012  94.2194997  75.7069988
  49.6250012  92.2154997  75.8789988  50.7010012  92.4134997  75.7659988
  49.3060012  90.7354997  76.0549988  49.6610012  90.1614997  75.1719988
  48.2280012  90.4724997  76.1189988  49.8500012  90.0244997  77.3519988
  50.8960012  90.3664997  77.5019988  49.9760012  88.9614997  77.0569988
  49.0440012  90.4134997  78.5579988  48.0220012  90.0024997  78.4109988
  48.9320012  91.4894997  78.3079988  49.7230012  90.1434997  79.9369988
  50.7490012  90.5704997  79.9509988  49.8860012  89.0544997  80.0889988
  48.9330012  90.7084997  81.1119988  47.9310012  90.2304997  81.1579988
  48.7470012  91.7864997  80.9149988  49.7150012  90.5474997  82.4269988
  50.8180012  90.5774997  82.2989988  49.5640012  89.4794997  82.6949988
  49.3310012  91.5194997  83.5469988  49.2280012  92.5414997  83.1249988
  50.1440012  91.4714997  84.3019988  48.0660012  91.0454997  84.2909988
  47.8570012  91.6274997  85.2139988  48.1770012  89.9874997  84.6099988
  47.2170012  91.0124997  83.5759988  49.7230012  50.9704997  81.5879988
  49.4830012  51.5454997  82.5079988  50.4790012  50.2254997  81.9169988
  48.8190012  50.3494997  81.4089988  50.1150012  51.8834997  80.5099988
  50.6990012  52.7894997  80.7799988  50.7230012  51.3534997  79.7449988
  48.9580012  52.5784997  79.9099988  48.1930012  51.8794997  79.5099988
  48.5010012  53.2884997  80.6329988  49.2900012  53.4304997  78.5739988
  49.9410012  54.2894997  78.8429988  49.9610012  52.7354997  78.0239988
  48.0020012  53.6884997  77.7769988  47.6300012  52.7114997  77.3989988
  47.3010012  54.3314997  78.3509988  48.2790012  54.4284997  76.3829988
  49.0940012  53.9024997  75.8409988  47.4390012  54.3214997  75.6629988
  48.5350012  55.9774997  76.6119988  47.5320012  56.3944997  76.8439988
  49.2560012  56.0334997  77.4549988  49.1180012  56.7524997  75.4189988
  48.9150012  57.8274997  75.6109988  50.2010012  56.5104997  75.3489988
  48.4490012  56.3364997  74.0829988  48.5770012  55.2524997  73.8759988
  47.4240012  56.7614997  74.1309988  49.1370012  56.9894997  72.8779988
  49.0370012  58.0964997  72.8479988  50.2280012  56.8394997  73.0179988
  48.7440012  56.4234997  71.4889988  47.6820012  56.1314997  71.6309988
  48.8360012  57.2094997  70.7089988  49.5840012  55.1674997  71.0239988
  50.6580012  55.3124997  71.2709988  49.1050012  54.2994997  71.5249988
  49.4860012  54.8974997  69.5179988  48.5150012  54.5804997  69.0819988
  49.7620012  55.8484997  69.0139988  50.5360012  53.8554997  68.9329988
  50.1450012  52.8374997  69.1419988  50.4950012  54.0484997  67.8399988
  51.8910012  54.0344997  69.5069988  52.4600012  54.9884997  69.4919988
  51.8840012  53.7964997  70.5929988  52.8690012  53.0114997  68.8329988
  52.9590012  51.8304997  69.1439988  53.4490012  53.5334997  67.8339988
  54.2430012  52.6784997  66.9849988  55.0230012  53.2784997  66.4689988
  54.8130012  51.8794997  67.5059988  53.3350012  52.1094997  65.8379988
  54.0140012  51.5724997  65.1409988  52.5180012  53.2374997  65.0049988
  53.0370012  54.1784997  65.2879988  52.6550012  53.0734997  63.9149988
  51.1410012  53.3894997  65.3909988  50.2230012  54.3664997  64.5889988
  49.1940012  53.4584997  63.8189988  49.5390012  52.3684997  62.9529988
  50.4740012  52.5654997  62.3859988  49.8330012  51.5304997  63.6209988
  48.4380012  52.0864997  61.9139988  48.1180012  53.0334997  61.5049988
  48.7530012  51.4504997  61.0999988  47.1950012  51.3644997  62.4499988
  47.4530012  50.3164997  63.5059988  47.8240012  50.7104997  64.4399988
  46.4940012  49.8634997  63.7069988  48.1360012  49.5464997  63.1759988
  46.3200012  52.4234997  63.1229988  46.0480012  53.2174997  62.4429988
  45.5190012  51.8214997  63.5269988  46.8540012  52.8614997  63.9529988
  46.3880012  50.7114997  61.3469988  46.9940012  50.0324997  60.7669988
  46.1110012  51.5924997  60.7859988  45.5670012  50.1104997  61.7099988
  49.4860012  55.2834997  65.5069988  51.0840012  55.0194997  63.5819988
  52.4890012  51.1044997  66.4539988  51.8710012  50.2344997  65.7849988
  51.8770012  50.1084997  64.5819988  51.0140012  49.4574997  66.7829988
  51.5500012  49.6784997  67.7309988  50.9170012  48.3724997  66.5619988
  49.6710012  50.1044997  66.7849988  49.1830012  50.0284997  65.7899988
  49.9560012  51.1464997  67.0459988  48.6230012  49.6074997  67.8339988
  49.1810012  49.5424997  68.7919988  48.1820012  48.6414997  67.5049988
  47.4350012  50.6964997  67.8609988  47.0530012  50.9094997  66.8399988
  48.0040012  51.5584997  68.2699988  46.2420012  50.1904997  68.6489988
  45.9820012  49.1834997  68.2569988  45.3300012  50.8224997  68.6119988
  46.5720012  50.1554997  70.1809988  47.2260012  49.2834997  70.3939988
  45.5940012  49.9084997  70.6469988  47.1460012  51.4644997  70.7649988
  46.6460012  52.2834997  70.2069988  48.2240012  51.3984997  70.5029988
  46.8660012  51.6724997  72.1959988  46.1340012  52.4674997  72.4009988
  47.4880012  50.9774997  73.2739988  47.2070012  51.1444997  74.3239988
  48.5570012  49.9234997  73.2499988  48.3300012  49.5804997  72.2179988
  48.3660012  49.0744997  73.9409988  50.0290012  50.4824997  73.2839988
  50.2570012  51.0814997  72.3769988  50.6300012  49.5484997  73.2799988
  50.3990012  51.3184997  74.5109988  50.3110012  50.7074997  75.4349988
  49.7350012  52.2084997  74.5089988  51.8400012  51.7854997  74.5129988
  51.9650012  52.4974997  73.6689988  52.5730012  50.9574997  74.4079988
  52.1980012  52.6164997  75.7559988  51.4870012  53.4054997  76.0829988
  53.1730012  53.1384997  75.6519988  52.3810012  51.7334997  76.9849988
  53.1330012  50.9244997  76.8639988  51.4930012  51.1754997  77.3509988
  52.9630012  52.4674997  78.2219988  52.1880012  53.1574997  78.6209988
  53.8040012  53.0444997  77.7829988  53.4550012  51.6814997  79.4319988
  54.4040012  51.2014997  79.1089988  52.8410012  50.8164997  79.7649988
  53.7160012  52.3574997  80.2729988 101.6420012  51.4884997  80.3139988
 100.5580012  51.2454997  80.3219988 101.9040012  51.5484997  81.3919988
 102.2480012  50.7254997  79.7789988 101.7460012  52.8724997  79.6649988
 101.4050012  53.6424997  80.3899988 102.7820012  53.2094997  79.4439988
 100.9740012  52.9954997  78.2899988 101.2130012  52.1614997  77.5969988
  99.9170012  52.7384997  78.5139988 101.2000012  54.3904997  77.6639988
 100.7800012  55.0904997  78.4179988 102.2920012  54.5924997  77.6159988
 100.4630012  54.6044997  76.3159988  99.4100012  54.3174997  76.5199988
 100.5310012  55.6904997  76.0879988 101.0730012  53.8394997  75.1309988
 102.1130012  54.2254997  75.0779988 101.1170012  52.7414997  75.2929988
 100.3350012  53.9944997  73.8439988 100.5150012  53.1774997  73.1129988
  99.2590012  53.9294997  74.1129988 100.4070012  55.4964997  73.2649988
  99.7570012  56.0544997  73.9729988 101.4550012  55.8624997  73.3049988
  99.9270012  55.5574997  71.8229988  99.0480012  54.8824997  71.7469988
  99.6480012  56.5994997  71.5569988 100.9780012  54.9894997  70.7779988
 101.7110012  55.7794997  70.5069988 101.5400012  54.1244997  71.1899988
 100.1500012  54.5634997  69.5109988  99.6950012  53.5844997  69.7719988
  99.2930012  55.1884997  69.1809988 101.0850012  54.3974997  68.2789988
 100.4800012  53.9294997  67.4729988 101.4200012  55.4114997  67.9739988
 102.2630012  53.4364997  68.4949988 102.8190012  53.7904997  69.3899988
 102.0320012  52.3724997  68.7189988 103.2770012  53.4654997  67.4079988
 102.8140012  53.0974997  66.4669988 103.5610012  54.5204997  67.2089988
 104.5990012  52.7154997  67.6629988 105.4290012  53.3294997  67.2529988
 104.7500012  52.5414997  68.7499988 104.5730012  51.3354997  67.0279988
 105.1850012  50.3604997  67.5129988 104.0290012  51.4094997  65.7939988
 103.9130012  50.1764997  65.0939988 104.6610012  50.1824997  64.2719988
 104.1570012  49.2744997  65.6949988 102.5430012  50.1534997  64.4059988
 102.4970012  49.2594997  63.7489988 102.4970012  51.4184997  63.4229988
 103.4460012  51.3494997  62.8489988 101.6670012  51.1744997  62.7269988
 102.2740012  52.5694997  64.2119988 101.2160012  53.6804997  63.8359988
  99.9050012  52.7724997  63.8719988  98.8230012  53.1174997  62.9369988
  98.0080012  53.6344997  63.4869988  99.0370012  53.8764997  62.1539988
  98.3360012  51.7814997  62.2389988  97.4860012  52.0374997  61.6239988
  99.1380012  51.4014997  61.6239988  97.8160012  50.7194997  63.2029988
  96.9450012  51.4534997  64.2749988  97.5840012  52.1654997  64.7759988
  96.1740012  52.0054997  63.7589988  96.6830012  50.6954997  64.9989988
  96.8600012  49.7824997  62.4479988  97.3610012  49.3124997  61.6149988
  96.4580012  49.0704997  63.1539988  96.0250012  50.3754997  62.1049988
  98.9640012  50.0674997  63.8359988  99.4500012  49.3144997  63.2329988
  98.6510012  49.7854997  64.8299988  99.7150012  50.8364997  63.9379988
 101.0830012  54.7184997  64.8959988 101.5430012  54.0504997  62.4269988
 101.5670012  50.1484997  65.4639988 101.3920012  48.9444997  66.1409988
 101.8310012  47.8984997  65.8029988 100.4310012  49.2004997  67.3699988
  99.4810012  49.5964997  66.9519988 101.0300012  49.8644997  68.0299988
 100.0300012  47.9644997  68.1949988 100.8990012  47.5174997  68.7229988
  99.8220012  47.1484997  67.4699988  98.7000012  48.0174997  68.9879988
  98.1930012  47.0914997  69.3349988  98.0520012  48.4254997  68.1829988
  98.6820012  49.1204997  70.1199988  97.9500012  48.7454997  70.8669988
  98.4020012  50.1354997  69.7659988  99.9910012  49.0284997  70.9639988
 100.7870012  49.2684997  70.2279988 100.1570012  47.9504997  71.1739988
 100.0080012  49.9064997  72.1939988  99.7200012  50.9394997  71.9019988
 101.0530012  50.0384997  72.5459988  99.2280012  49.3154997  73.3129988
  99.6240012  48.3204997  73.6079988  98.1980012  49.0544997  72.9859988
  99.0470012  50.2294997  74.5469988  98.1010012  50.7904997  74.5449988
  99.7620012  50.2604997  75.7159988  99.4870012  50.9474997  76.5299988
 100.9320012  49.3604997  75.9919988 101.8720012  49.9524997  75.9709988
 101.0100012  48.5674997  75.2169988 100.8110012  48.6434997  77.3739988
  99.9080012  48.0104997  77.5129988 100.8750012  49.4444997  78.1409988
 102.0210012  47.6584997  77.5749988 102.9220012  48.2824997  77.3919988
 102.1430012  46.8384997  76.8359988 102.1060012  47.1404997  79.0279988
 101.4650012  46.2324997  79.0299988 101.5250012  47.7804997  79.7259988
 103.4670012  46.8574997  79.6899988 104.1500012  47.7314997  79.6379988
 103.8720012  46.2044997  78.8869988 103.4620012  46.3084997  81.0419988
 104.4420012  45.9104997  81.3829988 102.7360012  45.4804997  80.8979988
 103.0120012  47.4164997  82.0799988 101.9390012  47.1684997  82.2279988
 103.1660012  48.4474997  81.6929988 103.8430012  47.3454997  83.3659988
 104.9310012  47.4044997  83.1489988 103.7020012  46.4054997  83.9399988
 103.5100012  48.1454997  84.0609988  43.4120012  66.2254997  81.2939988
  44.3500012  66.7634997  81.5509988  43.5880012  65.1504997  81.0759988
  42.8240012  66.0734997  82.2239988  42.5380012  66.9334997  80.2619988
  41.4980012  66.6194997  80.4969988  42.5180012  68.0394997  80.3559988
  42.8340012  66.5614997  78.8109988  43.8960012  66.7764997  78.5639988
  42.4920012  65.5074997  78.7289988  42.1350012  67.5574997  77.7709988
  42.2600012  68.5804997  78.1859988  42.6400012  67.3734997  76.7979988
  40.6410012  67.1904997  77.5219988  40.5800012  66.0904997  77.3809988
  40.1540012  67.3354997  78.5099988  39.9080012  68.0104997  76.4669988
  38.8230012  68.1904997  76.6189988  40.4050012  69.0024997  76.4009988
  40.2360012  67.4014997  75.0609988  41.3390012  67.3924997  74.9359988
  39.8550012  66.3664997  74.9239988  39.8320012  68.2314997  73.8539988
  40.1380012  69.2874997  74.0139988  40.4850012  67.7564997  73.0899988
  38.3890012  67.9984997  73.3009988  38.3020012  67.0524997  72.7259988
  37.6800012  67.8844997  74.1489988  37.9450012  69.0564997  72.3079988
  37.0470012  68.6544997  71.7919988  37.6410012  69.9174997  72.9419988
  38.9010012  69.4854997  71.2619988  38.4300012  70.2634997  70.6229988
  39.7130012  70.0364997  71.7839988  39.4880012  68.3204997  70.4029988
  39.4500012  67.3124997  70.8669988  38.9120012  68.0994997  69.4779988
  40.9350012  68.6634997  69.8639988  40.8260012  69.4644997  69.1029988
  41.4300012  69.1734997  70.7179988  41.6950012  67.3984997  69.3559988
  41.3540012  66.5104997  69.9289988  41.4690012  67.2054997  68.2849988
  43.1950012  67.5304997  69.5099988  43.4990012  68.4414997  68.9509988
  43.4950012  67.6594997  70.5719988  43.8140012  66.2734997  68.9439988
  43.8990012  65.2884997  69.6749988  44.2120012  66.3944997  67.6579988
  44.9670012  65.3304997  67.0839988  45.7840012  65.7494997  66.4579988
  45.3830012  64.5794997  67.7889988  44.1140012  64.5914997  66.0919988
  44.8340012  63.9354997  65.5579988  43.4880012  65.6184997  65.0639988
  44.2930012  66.3244997  64.7659988  43.2320012  64.9344997  64.2269988
  42.3520012  66.2514997  65.5689988  41.5110012  67.1754997  64.6219988
  40.5240012  66.2384997  64.0419988  39.3330012  65.6394997  64.5389988
  39.5790012  64.5744997  64.7399988  39.1430012  66.0234997  65.5639988
  38.1000012  65.9144997  63.5589988  37.2860012  65.2234997  63.7179988
  37.8560012  66.9664997  63.5459988  38.2610012  65.5684997  62.1169988
  39.1550012  66.5674997  61.4269988  39.9890012  66.7844997  62.0779988
  39.5510012  66.1854997  60.4979988  38.5720012  67.4544997  61.2239988
  38.8610012  64.1984997  62.0329988  39.8530012  64.1224997  62.4539988
  38.2870012  63.4894997  62.6099988  39.0780012  63.8904997  61.0199988
  36.9500012  65.5304997  61.3879988  37.1510012  64.9594997  60.4929988
  36.6040012  66.5294997  61.1689988  36.1620012  65.0414997  61.9409988
  40.7380012  68.1854997  65.3949988  42.4180012  67.6394997  63.4899988
  43.0360012  63.9434997  66.7769988  43.0360012  62.6524997  66.5929988
  43.9850012  61.9704997  66.1469988  41.6330012  62.1144997  67.0039988
  40.9940012  62.4924997  66.1769988  41.2120012  62.5704997  67.9249988
  41.5010012  60.5594997  67.2869988  42.1430012  59.9454997  66.6199988
  40.4340012  60.3044997  67.1089988  41.8160012  60.1864997  68.7939988
  42.8850012  60.3614997  69.0399988  41.8390012  59.0784997  68.8609988
  40.8650012  60.7204997  69.8749988  39.7750012  60.5554997  69.7299988
  40.9470012  61.8194997  70.0129988  41.1120012  60.0764997  71.2659988
  42.1560012  60.3334997  71.5469988  41.0360012  58.9764997  71.1279988
  39.9540012  60.4454997  72.2689988  39.7150012  59.5564997  72.8909988
  38.9540012  60.5924997  71.8079988  40.1530012  61.6414997  73.2089988
  41.0230012  61.3924997  73.8539988  39.2550012  61.6764997  73.8629988
  40.3070012  63.0554997  72.6389988  39.3610012  63.5754997  72.4299988
  41.4830012  63.6884997  72.4909988  41.5490012  64.6804997  72.0199988
  42.8450012  63.1464997  72.9049988  43.4570012  63.3114997  71.9929988
  42.8100012  62.0464997  73.0579988  43.5650012  63.8554997  74.0499988
  43.4860012  64.9544997  73.9039988  44.6090012  63.4814997  74.1169988
  43.0020012  63.5594997  75.4439988  41.9190012  63.8014997  75.4019988
  43.5350012  64.2654997  76.1159988  43.0580012  62.0844997  76.0459988
  43.9300012  61.5114997  75.6629988  42.1880012  61.5894997  75.5659988
  42.7560012  62.2204997  77.5369988  43.5240012  62.7074997  78.1739988
  42.8870012  61.1634997  77.8509988  41.3630012  62.7254997  77.9419988
  40.5380012  62.1144997  77.5189988  41.2630012  63.7454997  77.5139988
  41.1570012  62.8604997  79.4219988  42.0010012  63.4034997  79.8999988
  41.2000012  61.8434997  79.8679988  39.8060012  63.5464997  79.8409988
  39.7130012  63.9054997  80.8879988  38.9480012  62.9184997  79.5189988
  39.8280012  64.4924997  79.2579988  46.2930012  86.0334997  80.2989988
  46.8330012  85.2074997  80.8079988  45.3210012  85.7474997  79.8429988
  46.0530012  86.8294997  81.0359988  47.1530012  86.5824997  79.2099988
  47.9880012  86.9884997  79.8199988  47.5990012  85.7644997  78.6059988
  46.4310012  87.6874997  78.4289988  45.5660012  87.2224997  77.9099988
  45.9020012  88.2504997  79.2259988  47.3620012  88.5194997  77.5369988
  48.1820012  88.7984997  78.2339988  47.4860012  87.8604997  76.6509988
  46.5550012  89.7524997  77.1559988  45.5110012  89.5104997  76.8629988
  46.5450012  90.3524997  78.0909988  47.2300012  90.5944997  76.0979988
  48.2580012  90.8224997  76.4509988  47.2660012  89.9464997  75.1959988
  46.5060012  91.8964997  75.7339988  45.8160012  91.9984997  76.5989988
  47.0520012  92.8634997  75.7699988  45.6710012  91.7724997  74.4939988
  46.3440012  91.3394997  73.7229988  44.8540012  91.0414997  74.6679988
  45.0130012  93.0574997  73.9939988  44.2450012  93.3464997  74.7439988
  45.7570012  93.8804997  74.0309988  44.1800012  92.9554997  72.7249988
  43.3780012  93.7244997  72.7059988  44.9780012  93.1564997  71.9779988
  43.5520012  91.6494997  72.3139988  44.4020012  90.9394997  72.2229988
  42.8660012  91.3534997  73.1359988  42.7230012  91.6254997  71.0119988
  41.8520012  90.9364997  70.9889988  42.2720012  92.6404997  71.0379988
  43.4940012  91.5364997  69.6209988  44.3060012  92.2884997  69.7189988
  43.9700012  90.5474997  69.4479988  42.5530012  91.9584997  68.5239988
  41.6620012  91.3004997  68.6079988  42.1480012  92.9834997  68.3849988
  43.1290012  91.5374997  67.1909988  43.4890012  90.4914997  67.2979988
  42.3080012  91.5914997  66.4449988  44.2700012  92.4804997  66.7489988
  44.5500012  93.4414997  67.4659988  44.8200012  92.1264997  65.5529988
  45.9650012  92.7754997  65.0149988  45.9530012  92.9404997  63.9159988
  46.2010012  93.7424997  65.5079988  47.1920012  91.8554997  65.3489988
  48.0620012  92.5174997  65.1499988  47.2610012  90.5954997  64.4309988
  46.8240012  90.9874997  63.4879988  48.2600012  90.1624997  64.2149988
  46.4120012  89.5684997  64.9269988  46.0590012  88.3184997  63.9469988
  44.5910012  88.6414997  63.4789988  44.3180012  89.5094997  62.4049988
  45.2670012  89.8994997  61.9779988  43.9110012  89.0154997  61.4969988
  43.4300012  90.6804997  62.9029988  43.8500012  91.1214997  63.7939988
  43.5290012  91.4094997  62.1119988  42.0180012  90.3514997  63.1769988
  41.2100012  91.6814997  63.3629988  41.7910012  92.4724997  62.9139988
  40.1770012  91.4794997  63.1199988  41.1600012  92.0274997  64.3849988
  41.4280012  89.5604997  62.0329988  40.3490012  89.5054997  62.0619988
  41.7780012  90.0354997  61.1289988  41.9110012  88.5944997  62.0539988
  41.8780012  89.6304997  64.4619988  42.2180012  90.3744997  65.1669988
  42.6220012  88.8494997  64.5109988  40.8460012  89.3804997  64.6619988
  46.8680012  88.2914997  62.6929988  46.0960012  87.1044997  64.7899988
  47.0960012  91.5814997  66.7589988  48.0750012  90.9004997  67.2649988
  49.1530012  90.6684997  66.7069988  47.6610012  90.3414997  68.5859988
  47.4320012  91.1394997  69.3249988  48.5160012  89.7554997  68.9859988
  46.4330012  89.4574997  68.3929988  46.6040012  88.7154997  67.5839988
  45.5780012  90.0034997  67.9399988  46.1240012  88.7184997  69.7469988
  45.7160012  89.5514997  70.3599988  46.9490012  88.1764997  70.2549988
  44.9170012  87.7264997  69.4779988  45.2140012  86.9114997  68.7829988
  44.0400012  88.2574997  69.0519988  44.4550012  87.2574997  70.8649988
  43.8520012  88.0194997  71.4029988  45.3100012  86.9424997  71.4999988
  43.6290012  85.9684997  70.6959988  44.2510012  85.0654997  70.5189988
  42.9170012  86.0414997  69.8459988  42.8160012  85.5714997  71.9619988
  42.5960012  84.4834997  71.9119988  41.8480012  86.1154997  71.9489988
  43.4210012  85.8244997  73.3549988  44.3570012  85.2764997  73.5369988
  42.9050012  86.4754997  74.4099988  43.4130012  86.4604997  75.3859988
  41.5710012  87.1374997  74.5929988  41.1550012  87.0964997  75.6219988
  40.9190012  86.9644997  73.7099988  41.8100012  88.6934997  74.5939988
  40.8670012  89.2814997  74.5969988  42.2810012  89.0844997  73.6659988
  42.7420012  89.1774997  75.6759988  43.8020012  89.2664997  75.3549988
  42.7470012  88.4604997  76.5239988  42.3660012  90.5484997  76.2789988
  41.2640012  90.5584997  76.4229988  42.4620012  91.2844997  75.4519988
  43.0660012  90.9424997  77.5949988  44.1670012  90.9204997  77.4459988
  42.8040012  89.9834997  78.0899988  42.4750012  92.1784997  78.3059988
  42.0730012  92.9474997  77.6119988  43.2670012  92.6594997  78.9179988
  41.3660012  91.8704997  79.4109988  40.6310012  91.2564997  78.8479988
  40.9220012  92.8614997  79.6479988  42.0030012  91.1354997  80.5669988
  42.4610012  90.2144997  80.1469988  41.2330012  90.9954997  81.3549988
  42.8250012  91.6724997  81.0859988  99.4990012  89.8264997  81.4589988
 100.5430012  89.4474997  81.4839988  99.1900012  89.5914997  82.4999988
  99.5200012  90.9344997  81.3809988  98.6330012  89.1704997  80.3309988
  97.6210012  89.6134997  80.2129988  99.1650012  89.3714997  79.3769988
  98.5260012  87.5854997  80.4109988  99.5690012  87.2414997  80.5739988
  98.0120012  87.2144997  81.3239988  97.7740012  86.9334997  79.2519988
  97.6230012  85.8584997  79.4889988  96.7280012  87.3034997  79.1879988
  98.3560012  87.0714997  77.8499988  98.5940012  88.1504997  77.7339988
  99.3370012  86.5594997  77.9489988  97.5230012  86.4004997  76.7349988
  97.5010012  85.3404997  77.0679988  96.4250012  86.5754997  76.7439988
  98.1480012  86.3714997  75.3879988  98.2240012  87.4604997  75.1829988
  99.2100012  86.0664997  75.5069988  97.3420012  85.7034997  74.2059988
  97.8890012  85.8414997  73.2499988  97.2950012  84.5984997  74.3099988
  95.8960012  86.1464997  73.9729988  95.2800012  85.8474997  74.8479988
  95.9820012  87.2464997  74.0959988  95.1990012  85.7344997  72.7049988
  95.9160012  85.1764997  72.0649988  94.4380012  84.9954997  73.0369988
  94.5020012  86.8424997  71.8949988  93.7270012  86.4744997  71.1899988
  93.9970012  87.4874997  72.6459988  95.3960012  87.8374997  71.1189988
  96.1930012  88.3694997  71.6809988  95.9100012  87.2634997  70.3189988
  94.7750012  88.9004997  70.2929988  93.8470012  88.4484997  69.8819988
  94.5250012  89.8124997  70.8769988  95.6880012  89.3144997  69.1219988
  96.6720012  89.6774997  69.4879988  95.9200012  88.4874997  68.4169988
  95.0610012  90.4234997  68.2149988  94.3760012  89.9594997  67.4739988
  94.3820012  91.1154997  68.7559988  96.2110012  91.1024997  67.4929988
  96.9150012  91.9434997  68.0179988  96.3790012  90.5084997  66.3559988
  97.5810012  91.0174997  65.6519988  97.2320012  91.3464997  64.6499988
  98.0590012  91.9514997  66.0189988  98.6830012  89.9174997  65.4299988
  99.4120012  90.2974997  64.6829988  98.1430012  88.6654997  64.6929988
  97.7870012  88.9584997  63.6829988  99.0410012  88.0104997  64.6949988
  97.0930012  88.0604997  65.4389988  96.3670012  86.8044997  64.8519988
  95.6130012  87.4444997  63.6069988  94.5860012  88.3954997  64.0119988
  93.6330012  88.0874997  63.5309988  94.4330012  88.5034997  65.1069988
  95.0070012  89.8184997  63.4559988  94.3960012  90.5134997  64.0119988
  95.9760012  90.0414997  63.8779988  95.1320012  90.0944997  61.9789988
  93.7940012  90.2404997  61.3289988  93.3500012  91.0394997  61.9049988
  93.7810012  90.6914997  60.3479988  93.2680012  89.3014997  61.2399988
  95.8350012  91.4754997  61.8339988  96.4890012  91.6584997  62.6739988
  96.2730012  91.4674997  60.8479988  95.0640012  92.2094997  62.0199988
  96.0410012  89.0934997  61.3369988  95.5400012  88.1404997  61.4289988
  96.9300012  89.1114997  61.9499988  96.2160012  89.3104997  60.2939988
  97.3810012  85.8124997  64.4549988  95.4290012  86.3134997  65.8789988
  99.3140012  89.5334997  66.7039988  99.8380012  90.4214997  67.5329988
 100.0560012  91.6054997  67.2969988  99.9490012  89.6664997  68.8069988
 100.4170012  88.6704997  68.6489988  98.8780012  89.5334997  69.0689988
 100.6420012  90.5274997  69.8549988 101.6740012  90.8954997  69.6689988
 101.0000012  89.9204997  70.7139988  99.8670012  91.6344997  70.4379988
  99.2770012  92.1234997  69.6329988 100.5740012  92.3524997  70.9069988
  98.8050012  91.2884997  71.5199988  99.4020012  90.7464997  72.2839988
  97.9030012  90.7384997  71.1789988  98.2620012  92.5694997  72.1279988
  97.4740012  92.8404997  71.3939988  99.0790012  93.3144997  72.2309988
  97.7670012  92.3614997  73.5779988  97.3160012  93.3264997  73.8929988
  98.6040012  92.0844997  74.2549988  96.7120012  91.2444997  73.7179988
  96.5510012  91.1374997  74.8119988  97.0030012  90.1884997  73.5309988
  95.5740012  91.4664997  72.8819988  95.7760012  91.4254997  71.8019988
  94.2870012  91.8864997  73.1719988  93.6470012  92.0884997  72.3009988
  93.6890012  92.2874997  74.5379988  92.8960012  93.0494997  74.3759988
  94.4780012  92.6564997  75.2269988  92.9620012  91.2184997  75.3549988
  92.0370012  90.9204997  74.8149988  92.7100012  91.8114997  76.2599988
  93.8370012  90.0684997  75.8639988  94.8360012  90.4834997  76.1129988
  93.9340012  89.2954997  75.0709988  93.3240012  89.5364997  77.1989988
  92.2170012  89.4444997  77.1899988  93.5430012  90.3534997  77.9199988
  94.0890012  88.3024997  77.6679988  95.1760012  88.5354997  77.6739988
  94.0840012  87.5074997  76.8919988  93.6040012  87.6784997  78.9489988
  94.1790012  86.7524997  79.1669988  92.6050012  87.2504997  78.7179988
  93.6310012  88.6154997  80.2009988  93.0650012  89.5244997  79.9049988
  94.6590012  88.9514997  80.4519988  93.1280012  87.9894997  81.4519988
  93.5520012  88.5254997  82.3279988  93.5370012  86.9604997  81.5369988
  92.0240012  88.0034997  81.5769988  72.1280012  99.7734997  80.6939988
  72.0780012 100.5784997  81.4569988  73.1270012  99.3044997  80.8289988
  71.2800012  99.0694997  80.8359988  72.1340012 100.2484997  79.1809988
  71.2800012 100.9504997  79.0679988  73.0740012 100.8394997  79.1969988
  72.1310012  99.1084997  78.2159988  72.9350012  98.3454997  78.2959988
  71.1890012  98.5404997  78.3689988  72.3020012  99.6414997  76.8009988
  71.2290012  99.7954997  76.5609988  72.6400012 100.6994997  76.8469988
  73.2200012  98.8324997  75.9709988  74.2620012  98.9634997  76.3329988
  72.9630012  97.7554997  76.0659988  73.3300012  99.1574997  74.4429988
  73.6710012 100.2144997  74.4139988  74.1610012  98.5624997  74.0069988
  72.0900012  98.8394997  73.6689988  71.8700012  97.7524997  73.7349988
  71.3520012  99.4824997  74.1949988  72.1390012  99.0324997  72.1139988
  72.2300012 100.1394997  72.0799988  73.0520012  98.5774997  71.6749988
  70.9200012  98.4714997  71.3559988  70.9720012  97.3614997  71.3429988
  69.9360012  98.7574997  71.7839988  71.0070012  99.0174997  69.9199988
  72.0540012  99.1034997  69.5579988  70.3400012  98.3324997  69.3549988
  70.4770012 100.4564997  69.9429988  70.9050012 101.0594997  70.7729988
  70.8030012 100.8704997  68.9649988  68.9330012 100.6034997  69.7729988
  68.4960012  99.6984997  70.2479988  68.6590012 101.5554997  70.2759988
  68.4490012 100.6124997  68.2989988  68.8460012  99.6994997  67.8039988
  67.3820012 100.3384997  68.4379988  68.6620012 101.8534997  67.4099988
  68.1140012 102.7134997  67.8499988  69.7230012 102.1814997  67.3769988
  68.0510012 101.7604997  66.0299988  68.5880012 100.9924997  65.4329988
  67.0220012 101.3424997  66.0559988  68.1370012 103.1274997  65.3229988
  67.5060012 104.1304997  65.7009988  68.9460012 103.1374997  64.3139988
  69.2420012 104.4014997  63.6509988  69.3120012 104.1924997  62.5629988
  68.3960012 105.1104997  63.7819988  70.6160012 104.8914997  64.1469988
  70.8800012 105.8114997  63.5829988  71.6900012 103.7734997  63.7469988
  71.6440012 103.3054997  62.7399988  72.6880012 104.2604997  63.7219988
  71.5480012 102.7504997  64.6439988  72.7490012 101.9304997  65.2469988
  73.0170012 100.7504997  64.2969988  72.1230012 100.1464997  63.4179988
  71.1760012  99.9944997  63.9779988  71.8070012 100.9004997  62.6659988
  72.5380012  98.9534997  62.5699988  72.5470012  98.0334997  63.1349988
  71.7900012  98.7734997  61.8129988  73.8320012  98.9684997  61.7719988
  73.8310012 100.1784997  60.9019988  73.5490012 101.0734997  61.4359988
  74.8330012 100.4034997  60.5679988  73.1990012  99.9904997  60.0469988
  75.0310012  98.8784997  62.6579988  75.1480012  99.8864997  63.0269988
  74.7510012  98.1744997  63.4289988  75.9080012  98.7064997  62.0519988
  73.7880012  97.7384997  60.8439988  72.7960012  97.7274997  60.4169988
  73.8730012  96.8394997  61.4369988  74.5830012  97.8214997  60.1169988
  73.9730012 102.8234997  65.2789988  72.3330012 101.3774997  66.5509988
  70.6200012 105.0064997  65.5099988  71.7230012 105.5574997  66.0979988
  72.4480012 106.4154997  65.6369988  71.8770012 104.9804997  67.5239988
  71.8800012 103.8704997  67.5559988  71.0560012 105.4004997  68.1429988
  73.2120012 105.3384997  68.2919988  73.2610012 106.4474997  68.3209988
  74.0670012 104.9064997  67.7289988  73.2110012 104.7674997  69.8079988
  74.1870012 104.9944997  70.2869988  73.0270012 103.6744997  69.7219988
  72.0840012 105.2414997  70.7339988  71.2470012 104.7374997  70.2059988
  71.7660012 106.3024997  70.6459988  72.2760012 104.7544997  72.1689988
  73.2870012 105.1414997  72.4209988  72.3220012 103.6504997  72.2859988
  71.1630012 105.2864997  73.1069988  71.1240012 106.3874997  72.9689988
  71.5450012 105.0194997  74.1159988  69.8180012 104.6024997  72.9529988
  69.5160012 104.7264997  71.8909988  69.1350012 105.1504997  73.6369988
  69.9220012 103.0994997  73.1749988  70.4020012 102.5514997  72.3509988
  69.5120012 102.3554997  74.1939988  69.8440012 101.3084997  74.2619988
  68.9230012 102.8414997  75.4839988  68.3100012 102.0454997  75.9569988
  68.2840012 103.7294997  75.2889988  69.9600012 103.2594997  76.6359988
  70.5090012 104.1784997  76.3399988  70.6700012 102.4524997  76.9149988
  69.2450012 103.6474997  78.0359988  68.6590012 102.7654997  78.3699988
  68.6260012 104.5414997  77.8089988  69.9920012 104.0134997  79.3399988
  70.7610012 104.7424997  79.0059988  70.6000012 103.1594997  79.7059988
  69.1150012 104.6314997  80.4459988  68.3770012 105.3124997  79.9699988
  69.7390012 105.2104997  81.1599988  68.2980012 103.5954997  81.2699988
  67.5460012 103.1384997  80.5909988  67.7540012 104.1904997  82.0349988
  69.1040012 102.5044997  82.0009988  69.8340012 103.1174997  82.5699988
  69.6610012 101.9354997  81.2259988  68.4210012 101.6834997  83.0579988
  68.2820012 102.2694997  83.9909988  69.0650012 100.8244997  83.3449988
  67.4610012 101.2964997  82.6559988  95.9290012  42.9454997  82.6699988
  95.9320012  43.8564997  83.3059988  97.0000012  42.8524997  82.3899988
  95.5490012  42.0774997  83.2509988  95.1130012  43.2644997  81.4159988
  95.4470012  42.5814997  80.6059988  94.0270012  43.0934997  81.5799988
  95.3880012  44.7124997  80.9009988  94.8910012  45.4944997  81.5139988
  96.4640012  44.9564997  80.7679988  94.6500012  44.7764997  79.5619988
  95.1080012  44.1834997  78.7419988  93.6650012  44.2874997  79.7169988
  94.3330012  46.2524997  79.0409988  93.9010012  46.7334997  79.9449988
  95.3230012  46.7184997  78.8499988  93.4980012  46.4254997  77.8399988
  92.5000012  46.0464997  78.1449988  93.4410012  47.5134997  77.6219988
  93.8560012  45.7454997  76.4979988  94.9550012  45.6234997  76.3959988
  93.4160012  44.7274997  76.4219988  93.2480012  46.5284997  75.2979988
  92.1520012  46.6524997  75.4309988  93.6980012  47.5444997  75.3219988
  93.6060012  45.8834997  73.9659988  94.7150012  45.9384997  73.9369988
  93.2890012  44.8194997  73.9219988  92.8780012  46.5894997  72.7809988
  91.8120012  46.6324997  73.0919988  93.1210012  47.6714997  72.7219988
  92.8850012  45.9314997  71.4009988  92.2890012  45.0004997  71.5049988
  92.4290012  46.5234997  70.5779988  94.2690012  45.5544997  70.9139988
  94.8700012  46.4854997  70.8339988  94.7590012  44.8594997  71.6279988
  94.1270012  44.7424997  69.5749988  93.3280012  45.1104997  68.8959988
  95.1010012  44.9554997  69.0849988  93.8750012  43.2544997  69.6819988
  94.4760012  42.9584997  70.5679988  92.7930012  43.0244997  69.7879988
  94.4960012  42.3344997  68.4909988  94.9590012  43.0154997  67.7459988
  95.2660012  41.7504997  69.0379988  93.4430012  41.4544997  67.7149988
  92.4360012  40.9574997  68.2509988  93.6010012  41.6104997  66.3629988
  92.7410012  40.9744997  65.4129988  93.2850012  40.6794997  64.4909988
  92.4030012  40.0464997  65.9229988  91.7500012  41.9504997  64.8719988
  91.0630012  41.4014997  64.1939988  92.3680012  43.1494997  63.9639988
  92.9050012  43.8704997  64.6159988  93.1190012  42.7494997  63.2489988
  91.3380012  43.8224997  63.3009988  91.5990012  44.7974997  62.1159988
  92.2100012  46.0904997  62.8479988  91.4910012  46.8114997  63.7829988
  90.8400012  47.5934997  63.3359988  90.7900012  46.1434997  64.3259988
  92.2240012  47.3784997  65.0259988  91.4830012  47.7454997  65.7189988
  92.7530012  46.5444997  65.4639988  93.2290012  48.4014997  64.6889988
  94.3680012  47.8474997  63.8639988  94.9390012  47.0344997  64.2859988
  93.9730012  47.5574997  62.9009988  94.9760012  48.7074997  63.6229988
  92.6390012  49.4544997  63.8489988  92.1220012  49.1464997  62.9519988
  91.8580012  50.0164997  64.3379988  93.3810012  50.2174997  63.6649988
  93.7370012  49.0334997  65.9709988  94.2310012  48.2444997  66.5189988
  92.8730012  49.3484997  66.5369988  94.5160012  49.7704997  65.8449988
  92.5770012  44.2624997  61.1409988  90.2660012  45.1654997  61.5949988
  91.0820012  42.6564997  66.0399988  89.7210012  42.5314997  66.0409988
  89.0630012  41.7584997  65.3239988  89.1270012  43.6474997  66.9259988
  88.7220012  44.4984997  66.3379988  89.9650012  44.0864997  67.5069988
  87.8590012  43.1254997  67.7039988  87.2780012  42.4654997  67.0249988
  87.2920012  44.0294997  68.0139988  88.1510012  42.3644997  69.0259988
  88.8540012  41.5394997  68.7819988  87.2250012  41.9664997  69.4939988
  88.7330012  43.3684997  70.0019988  88.0890012  44.2734997  69.9819988
  89.7030012  43.8944997  69.8659988  88.9460012  42.8214997  71.3709988
  88.1020012  42.1134997  71.5179988  88.9270012  43.6864997  72.0679988
  90.2440012  41.9574997  71.4749988  91.0710012  42.5914997  71.0889988
  90.2050012  41.1494997  70.7139988  90.5500012  41.5234997  72.8849988
  91.2970012  40.7004997  72.8729988  89.5990012  41.0954997  73.2679988
  91.0770012  42.6174997  73.7189988  92.0280012  43.1104997  73.4689988
  90.4360012  43.1604997  74.8429988  90.8700012  43.9674997  75.4499988
  89.0890012  42.6864997  75.3879988  89.0200012  42.2064997  76.3879988
  88.6000012  42.0564997  74.6149988  88.1770012  43.9384997  75.5899988
  87.2060012  43.5284997  75.9429988  87.9900012  44.4504997  74.6219988
  88.6520012  44.9064997  76.6429988  87.8380012  45.6474997  76.7939988
  89.4170012  45.5294997  76.1299988  89.2070012  44.3694997  77.9589988
  90.1100012  43.7394997  77.8109988  88.4250012  43.7554997  78.4539988
  89.7020012  45.6254997  78.8159988  88.9120012  46.3644997  79.0669988
  90.3810012  46.2164997  78.1649988  90.3900012  45.2624997  80.1879988
  90.8550012  46.1554997  80.6579988  91.2360012  44.5804997  79.9559988
  89.4190012  44.5044997  81.1869988  90.0030012  44.2674997  82.1019988
  89.1930012  43.5894997  80.5999988  88.1660012  45.2524997  81.6889988
  87.4900012  45.4704997  80.8339988  88.3870012  46.1554997  82.2969988
  87.5880012  44.5694997  82.3469988  85.9110012  97.4654997  81.7769988
  85.0380012  97.5754997  82.4539988  86.7070012  96.8544997  82.2539988
  85.4200012  96.8504997  80.9919988  86.4650012  98.8324997  81.3849988
  86.5600012  99.5214997  82.2509988  87.4780012  98.6964997  80.9479988
  85.5570012  99.4694997  80.2859988  84.5650012  99.7854997  80.6719988
  85.8980012 100.4714997  79.9479988  85.4100012  98.5434997  79.0609988
  86.3990012  98.0824997  78.8519988  84.6250012  97.7874997  79.2769988
  85.0070012  99.2664997  77.6879988  83.8970012  99.2534997  77.6519988
  85.2990012 100.3214997  77.8799988  85.7610012  98.7904997  76.4219988
  85.9290012  97.6924997  76.4279988  85.1190012  99.0964997  75.5679988
  87.1380012  99.4074997  76.3209988  87.1460012 100.3824997  76.8529988
  87.9520012  98.8534997  76.8359988  87.5140012  99.8474997  74.9029988
  87.7050012  98.9774997  74.2389988  86.8340012 100.5784997  74.4149988
  88.8820012 100.6614997  74.8749988  88.9110012 101.5554997  75.5349988
  89.7140012 100.0604997  75.3019988  89.3320012 101.1474997  73.4909988
  88.5800012 101.8484997  73.0699988  90.1840012 101.8614997  73.5089988
  89.7630012 100.1494997  72.4489988  90.1960012 100.5124997  71.4929988
  90.6360012  99.6224997  72.8889988  88.7270012  99.1114997  71.9519988
  88.7700012  98.2094997  72.5989988  87.6900012  99.4964997  71.8469988
  89.1240012  98.6974997  70.4859988  89.0920012  99.5764997  69.8079988
  90.1330012  98.2364997  70.4289988  88.1530012  97.8034997  69.7159988
  88.3450012  96.7294997  69.9229988  87.1940012  97.9234997  70.2639988
  87.9140012  98.0424997  68.1709988  87.8480012  99.1234997  67.9209988
  88.7800012  97.6554997  67.5929988  86.6480012  97.4124997  67.7659988
  85.8730012  96.7614997  68.4359988  86.4060012  97.7284997  66.4849988
  85.1720012  97.2344997  65.9119988  85.3540012  96.7694997  64.9189988
  84.6310012  96.4984997  66.5429988  84.2110012  98.4154997  65.6439988
  83.3680012  98.0584997  65.0149988  84.9400012  99.4914997  64.7489988
  85.4990012  99.0774997  63.8819988  84.1520012 100.2054997  64.4269988
  85.8250012 100.2304997  65.5809988  86.6370012 101.4944997  65.1199988
  87.9810012 100.6974997  64.7559988  89.1320012 101.4304997  64.2559988
  89.2780012 102.3804997  64.8139988  90.0490012 100.8144997  64.3649988
  89.0370012 101.8054997  62.7649988  88.0850012 102.2694997  62.5509988
  89.7580012 102.5604997  62.4909988  89.0480012 100.6674997  61.7049988
  87.9330012  99.7314997  61.7689988  88.2000012  98.8844997  61.1539988
  87.7160012  99.5564997  62.8129988  87.0970012 100.2324997  61.3039988
  89.0190012 101.4194997  60.3779988  89.1940012 100.6404997  59.6499988
  88.0350012 101.8164997  60.1789988  89.5880012 102.3314997  60.2709988
  90.3480012  99.9804997  61.7509988  90.3210012  99.1554997  61.0539988
  90.3910012  99.6514997  62.7779988  91.1980012 100.6104997  61.5339988
  86.0240012 102.0954997  63.8929988  86.7230012 102.4814997  66.2059988
  83.8420012  99.0504997  66.8929988  82.7120012  99.6984997  66.8799988
  82.0080012  99.9974997  65.9019988  82.2980012 100.0154997  68.3949988
  81.8440012  99.0864997  68.8009988  81.5050012 100.7874997  68.3059988
  83.4220012 100.6214997  69.2369988  84.3360012  99.9904997  69.1939988
  83.0380012 100.5434997  70.2759988  83.6840012 102.2064997  69.0129988
  82.7740012 102.7764997  69.2969988  83.6850012 102.4524997  67.9299988
  84.9300012 102.7864997  69.6639988  85.2180012 103.7094997  69.1159988
  85.8320012 102.1394997  69.7129988  84.6300012 103.1834997  71.1249988
  83.8920012 102.4194997  71.4529988  84.1270012 104.1744997  71.1379988
  85.8700012 103.1964997  72.0099988  86.3310012 104.0394997  71.4519988
  86.3500012 102.2004997  71.8959988  85.6030012 103.6134997  73.4229988
  85.2710012 104.6734997  73.4329988  86.5990012 103.5354997  73.9089988
  84.7940012 102.7484997  74.3389988  84.4750012 101.7484997  74.0079988
  84.5700012 103.0704997  75.6489988  84.0070012 102.3384997  76.2469988
  85.0880012 104.3244997  76.3879988  84.3400012 104.6574997  77.1389988
  85.3610012 105.1244997  75.6669988  86.3690012 104.0314997  77.1369988
  87.2000012 103.5594997  76.5709988  86.0380012 103.3514997  77.9509988
  86.7790012 105.2404997  77.9729988  85.9330012 105.9284997  78.1859988
  87.5760012 105.8124997  77.4509988  87.4050012 104.9354997  79.3549988
  87.5590012 105.8744997  79.9279988  88.4160012 104.5034997  79.1939988
  86.6370012 103.9364997  80.2529988  86.6710012 102.9104997  79.8289988
  85.5610012 104.2074997  80.2149988  87.2110012 103.8724997  81.6899988
  87.1690012 104.9314997  82.0239988  88.2730012 103.5444997  81.6979988
  86.4640012 102.9504997  82.6629988  86.9190012 101.9504997  82.8289988
  85.5260012 102.7874997  82.0899988  86.1460012 103.5534997  84.0219988
  87.1170012 103.5494997  84.5629988  85.4650012 102.9714997  84.6779988
  85.8100012 104.6124997  84.0229988 107.8960012  78.6364997  84.6479988
 107.9510012  78.5714997  83.5399988 108.7310012  79.2964997  84.9649988
 106.8950012  79.0504997  84.8939988 108.1510012  77.2604997  85.3219988
 109.0940012  76.8634997  84.8899988 108.4390012  77.3994997  86.3859988
 106.9780012  76.2514997  85.1389988 107.3240012  75.2554997  85.4889988
 106.0760012  76.5624997  85.7089988 106.5130012  75.9934997  83.6909988
 105.5990012  75.3624997  83.7059988 106.1560012  76.8794997  83.1229988
 107.6540012  75.4504997  82.8099988 108.5380012  76.1124997  82.9309988
 107.8560012  74.4174997  83.1639988 107.1350012  75.2044997  81.3639988
 107.6740012  74.3044997  80.9969988 106.0630012  74.9334997  81.4729988
 107.3730012  76.4534997  80.4799988 106.9760012  77.4034997  80.8989988
 108.4780012  76.5604997  80.4439988 106.8670012  76.1934997  79.0059988
 106.6360012  75.1154997  78.8669988 105.9410012  76.7654997  78.7839988
 107.9610012  76.5584997  77.9619988 108.0910012  77.6604997  78.0069988
 108.9270012  76.0614997  78.1949988 107.4850012  76.0704997  76.6279988
 107.3370012  74.9694997  76.6339988 106.5980012  76.6784997  76.3509988
 108.6120012  76.2524997  75.4809988 108.7550012  77.3494997  75.3769988
 109.5240012  75.8014997  75.9269988 108.3130012  75.4534997  74.2169988
 109.1440012  75.5514997  73.4859988 108.1660012  74.3784997  74.4559988
 106.9530012  75.8284997  73.4649988 106.8330012  75.3714997  72.4589988
 106.0700012  75.4934997  74.0489988 106.6110012  77.3274997  73.2139988
 105.5480012  77.6384997  73.1299988 106.8890012  77.8754997  74.1399988
 107.3660012  77.9214997  72.0209988 107.2730012  79.0284997  72.0129988
 108.4560012  77.7224997  72.1049988 106.7280012  77.4084997  70.6869988
 105.5720012  77.4814997  70.2969988 107.7440012  77.0444997  69.8989988
 107.4030012  76.6564997  68.5489988 106.5820012  77.3264997  68.2139988
 108.2790012  76.6574997  67.8659988 106.8810012  75.1634997  68.5299988
 107.5920012  74.4114997  68.9329988 106.5850012  74.7194997  67.0809988
 107.4290012  75.0214997  66.4249988 106.6290012  73.6144997  66.9669988
 105.2850012  75.1524997  66.7519988 105.1430012  75.9464997  65.4489988
 106.1750012  75.1154997  64.4759988 106.7770012  75.7564997  63.3799988
 107.2300012  76.7504997  63.5819988 107.6910012  75.1674997  63.1539988
 105.8840012  76.0114997  62.1239988 105.0720012  76.6864997  62.3509988
 106.5590012  76.4294997  61.3919988 105.2750012  74.8094997  61.5409988
 104.6740012  75.2314997  60.2019988 103.8890012  75.9654997  60.3099988
 105.4560012  75.7764997  59.6939988 104.1630012  74.3864997  59.7649988
 106.4330012  73.8454997  61.3589988 107.1230012  74.4174997  60.7569988
 106.9030012  73.7314997  62.3249988 106.1670012  72.9184997  60.8719988
 104.1650012  74.1884997  62.3629988 103.1970012  74.6524997  62.2479988
 104.5710012  74.0844997  63.3589988 103.9220012  73.1844997  62.0459988
 103.7430012  75.9114997  64.9899988 105.6800012  77.2954997  65.5459988
 105.6920012  74.9634997  69.3189988 105.2540012  73.6714997  69.3069988
 105.8890012  72.7094997  68.8399988 103.9630012  73.5304997  70.0179988
 104.0110012  74.0844997  70.9789988 103.6420012  72.4734997  70.1379988
 102.8930012  74.1554997  69.0879988 103.0550012  73.8954997  68.0199988
 103.0390012  75.2464997  69.2349988 101.4010012  73.8904997  69.3129988
 101.2460012  72.7974997  69.1869988 100.8140012  74.4004997  68.5189988
 100.7770012  74.1814997  70.6479988 101.3470012  73.8044997  71.5239988
  99.8090012  73.6394997  70.7049988 100.6410012  75.6834997  70.8689988
  99.8190012  76.0314997  70.2079988 101.5530012  76.0974997  70.3869988
 100.3310012  76.3114997  72.2509988  99.4640012  75.7584997  72.6719988
 100.0610012  77.3884997  72.2149988 101.5740012  76.0404997  73.1339988
 102.5100012  76.2374997  72.5689988 101.7250012  74.9624997  73.3519988
 101.6060012  76.7124997  74.4989988 100.9920012  77.6154997  74.6289988
 102.2120012  76.2404997  75.6209988 102.0310012  76.8734997  76.5019988
 103.0160012  74.9734997  75.7039988 103.8580012  75.0814997  76.4209988
 103.3440012  74.6774997  74.6849988 102.1930012  73.7474997  76.1409988
 101.3520012  73.5544997  75.4419988 101.8770012  74.0164997  77.1719988
 102.8940012  72.4044997  76.1429988 103.4700012  72.2844997  75.2009988
 102.1510012  71.6064997  76.3539988 104.0020012  72.2324997  77.2109988
 104.7240012  73.0684997  77.0939988 104.5770012  71.2984997  77.0379988
 103.3870012  72.3864997  78.6339988 103.5760012  71.4284997  79.1649988
 102.2830012  72.4854997  78.5479988 103.9590012  73.4284997  79.6039988
 103.8430012  74.3644997  79.0169988 105.0660012  73.3434997  79.6449988
 103.6080012  73.4394997  81.0609988 102.5100012  73.5944997  81.1129988
 104.0730012  74.2764997  81.6229988 103.8470012  72.1204997  81.8519988
 103.7540012  72.3734997  82.9289988 104.8300012  71.6424997  81.6529988
 103.0920012  71.3204997  81.6909988  66.8900012  44.4454997  80.2559988
  66.0050012  44.4684997  80.9259988  66.7170012  45.1764997  79.4379988
  67.8420012  44.7084997  80.7649988  66.8740012  43.0244997  79.7069988
  67.4230012  42.4324997  80.4699988  65.8180012  42.7044997  79.5759988
  67.5660012  42.8144997  78.3759988  68.6260012  43.1064997  78.5309988
  67.5250012  41.7054997  78.3229988  66.9680012  43.5474997  77.1279988
  65.8660012  43.4074997  77.1129988  67.2690012  44.6154997  77.1809988
  67.6640012  43.0664997  75.8289988  68.6360012  43.6054997  75.8369988
  67.9490012  41.9934997  75.8709988  66.9030012  43.5624997  74.6099988
  65.8630012  43.1754997  74.6609988  66.8740012  44.6714997  74.6789988
  67.5340012  43.0534997  73.3239988  68.5220012  43.5564997  73.2589988
  67.7120012  41.9574997  73.2879988  66.6350012  43.5754997  72.1869988
  65.6400012  43.1994997  72.5099988  66.6810012  44.6844997  72.2319988
  66.9700012  43.3154997  70.6709988  66.0400012  43.7414997  70.2379988
  67.9160012  43.7964997  70.3409988  67.0880012  41.8104997  70.3729988
  67.9440012  41.3314997  70.8939988  66.0810012  41.4034997  70.6089988
  67.3870012  41.5004997  68.9199988  68.4030012  41.8094997  68.5949988
  67.2980012  40.4044997  68.7579988  66.2640012  42.0834997  67.9329988
  66.3940012  43.1864997  67.9729988  66.5940012  41.6334997  66.9729988
  64.8410012  41.7484997  68.3779988  64.6420012  40.6564997  68.4129988
  64.4810012  42.2704997  69.2909988  63.7630012  42.3144997  67.4039988
  62.7440012  41.9834997  67.6969988  63.8830012  43.4174997  67.4629988
  64.0500012  42.0954997  65.8939988  65.0160012  42.5914997  65.6569988
  64.1420012  41.0004997  65.7339988  62.9730012  42.7714997  65.1049988
  61.8040012  42.9824997  65.4279988  63.5410012  43.1424997  63.9139988
  62.8630012  43.8864997  62.9659988  63.1020012  43.5324997  61.9399988
  61.7560012  43.8404997  63.0449988  63.3430012  45.3054997  63.0479988
  62.8680012  45.6924997  62.1219988  64.8850012  45.2974997  62.8539988
  65.1400012  44.2614997  62.5439988  65.2740012  45.9374997  62.0339988
  65.5130012  45.5764997  64.1279988  66.9340012  46.2084997  64.1549988
  67.8820012  44.9994997  63.6629988  67.9700012  43.8254997  64.4689988
  68.4840012  44.1144997  65.4109988  66.9550012  43.4284997  64.6839988
  68.8590012  42.7324997  63.8619988  69.8430012  43.1154997  63.6379988
  69.1270012  42.0054997  64.6139988  68.3290012  42.0644997  62.6349988
  68.4010012  42.9034997  61.4219988  68.0090012  42.2754997  60.6359988
  67.8060012  43.7924997  61.5769988  69.4240012  43.2344997  61.3209988
  69.0550012  40.7594997  62.3979988  68.7370012  40.0654997  63.1609988
  68.6100012  40.3814997  61.4889988  70.1040012  40.9164997  62.1939988
  66.8380012  41.6844997  62.8329988  66.2240012  42.5524997  63.0239988
  66.7940012  40.9104997  63.5849988  66.5600012  41.2424997  61.8869988
  66.8920012  47.2614997  63.0859988  67.1810012  46.6084997  65.5289988
  62.8080012  45.9024997  64.2749988  63.0670012  47.2424997  64.2729988
  63.6180012  47.8554997  63.3479988  62.7700012  47.9144997  65.5609988
  61.8890012  48.5864997  65.4879988  63.6580012  48.5384997  65.7979988
  62.4830012  46.9434997  66.6719988  63.4510012  46.4814997  66.9619988
  61.7200012  46.2254997  66.3029988  61.8070012  47.5754997  67.9609988
  60.9390012  48.1904997  67.6409988  62.5650012  48.2424997  68.4239988
  61.3580012  46.4794997  68.9599988  60.6940012  45.7444997  68.4579988
  60.7030012  46.9074997  69.7499988  62.5920012  45.8804997  69.7049988
  63.3000012  46.7364997  69.7429988  63.1530012  45.1734997  69.0569988
  62.2040012  45.2834997  71.0339988  61.4540012  44.5024997  70.7849988
  61.7350012  46.1174997  71.5989988  63.2880012  44.6254997  71.8709988
  63.8630012  45.4914997  72.2639988  63.9780012  43.9804997  71.2869988
  62.7790012  43.9264997  73.0459988  62.8180012  42.8274997  73.0149988
  62.4090012  44.4694997  74.2129988  62.1190012  43.8044997  75.0399988
  62.5100012  45.9304997  74.6359988  61.6230012  46.2634997  75.2169988
  62.5850012  46.6404997  73.7849988  63.8880012  46.3274997  75.3399988
  63.9680012  47.4204997  75.1559988  64.6930012  45.8264997  74.7609988
  64.1100012  46.2574997  76.9079988  65.1350012  46.6744997  77.0119988
  64.1680012  45.1694997  77.1259988  63.0010012  46.9494997  77.6899988
  62.0450012  46.4964997  77.3489988  63.0720012  48.0494997  77.5479988
  63.0050012  46.7214997  79.1589988  62.5420012  47.6234997  79.6119988
  64.0420012  46.6414997  79.5489988  62.1680012  45.4964997  79.7559988
  61.1230012  45.8704997  79.6979988  62.1650012  45.2754997  80.8449988
  62.3100012  44.2484997  78.8579988  63.3890012  43.9844997  78.8519988
  61.9960012  44.5164997  77.8269988  61.5660012  42.9424997  79.3889988
  60.4650012  43.0904997  79.3959988  61.9660012  42.7164997  80.4009988
  61.6580012  42.1114997  78.6569988 107.0730012  65.1664997  81.6159988
 107.0540012  66.0604997  82.2759988 107.5140012  64.2164997  81.9849988
 106.0010012  65.0774997  81.3369988 107.8910012  65.5774997  80.3669988
 108.9600012  65.5654997  80.6719988 107.7860012  64.7644997  79.6179988
 107.4100012  66.7934997  79.6119988 106.4220012  66.6614997  79.1209988
 107.3870012  67.6194997  80.3549988 108.3800012  67.2714997  78.5629988
 108.1340012  68.2444997  78.0859988 109.3010012  67.3474997  79.1789988
 108.6820012  66.3464997  77.3729988 109.4240012  66.8084997  76.6869988
 109.1130012  65.3754997  77.6969988 107.3830012  65.9994997  76.6709988
 106.8030012  65.3024997  77.3129988 107.0080012  67.0364997  76.5359988
 107.6330012  65.3544997  75.2949988 108.1070012  66.1384997  74.6649988
 108.1980012  64.4024997  75.3789988 106.2360012  65.0134997  74.5309988
 105.7060012  64.2714997  75.1669988 105.6060012  65.9254997  74.4539988
 106.4160012  64.4174997  73.2269988 106.9290012  65.0534997  72.4749988
 107.1970012  63.6314997  73.3079988 105.1590012  63.6974997  72.6499988
 104.8620012  62.7964997  73.2279988 104.3480012  64.4564997  72.6829988
 105.2870012  63.3294997  71.0819988 105.9650012  62.4814997  70.8459988
 104.2390012  63.0584997  70.8299988 105.7990012  64.5524997  70.1749988
 105.3360012  65.4864997  70.5589988 106.8910012  64.7494997  70.1409988
 105.2410012  64.3644997  68.7649988 104.2010012  63.9854997  68.8569988
 105.2030012  65.2714997  68.1239988 105.9900012  63.2014997  67.9789988
 107.0630012  63.1094997  68.2539988 105.5670012  62.2124997  68.2579988
 105.8280012  63.4934997  66.4949988 106.0620012  64.4644997  66.0079988
 106.4020012  62.8784997  65.7699988 104.2900012  63.1844997  66.3009988
 103.9050012  62.0774997  66.0319988 103.5490012  64.3144997  66.3349988
 102.1410012  64.1404997  65.9369988 101.9060012  63.1064997  65.6069988
 101.4830012  64.2904997  66.8199988 101.7110012  65.1394997  64.8389988
 100.6160012  65.1054997  64.6539988 102.4470012  64.7774997  63.4679988
 102.6540012  63.6874997  63.4189988 101.7420012  65.1204997  62.6809988
 103.6240012  65.5364997  63.3789988 104.7760012  64.9334997  62.4199988
 105.9540012  66.0194997  62.5859988 105.7950012  67.3204997  62.2279988
 106.7900012  67.7184997  61.9369988 105.1530012  67.3864997  61.3229988
 105.3390012  68.3664997  63.2729988 105.6150012  69.3574997  62.9459988
 104.2600012  68.3054997  63.2649988 105.9410012  68.3104997  64.7629988
 105.4640012  67.1434997  65.5549988 105.8550012  66.2394997  65.1109988
 105.6050012  67.2074997  66.6229988 104.4030012  67.1324997  65.3519988
 107.4380012  68.3004997  64.7699988 107.9250012  68.2184997  65.7309988
 107.9230012  67.5164997  64.2079988 107.8850012  69.1834997  64.3379988
 105.5310012  69.6764997  65.3339988 105.7820012  69.7454997  66.3819988
 104.4990012  69.9714997  65.2079988 106.1900012  70.3684997  64.8319988
 105.1950012  63.6174997  62.8569988 104.2220012  64.9654997  61.0159988
 101.9840012  66.4414997  65.3449988 101.2640012  67.4334997  64.8989988
 100.3450012  67.3304997  64.0659988 101.7680012  68.7614997  65.5039988
 101.6910012  69.5264997  64.7019988 102.8560012  68.7044997  65.7229988
 101.1370012  69.1484997  66.8509988 100.1050012  68.7474997  66.9409988
 101.0050012  70.2324997  67.0559988 102.0180012  68.6504997  68.0369988
 103.0290012  69.1084997  68.0829988 102.2800012  67.5984997  67.7949988
 101.4200012  68.8534997  69.4329988 100.9410012  69.8484997  69.5499988
 102.3230012  68.8704997  70.0799988 100.5850012  67.7024997  70.0169988
  99.6860012  67.5494997  69.3839988 100.1950012  67.9594997  71.0249988
 101.2870012  66.4174997  70.1759988 102.0250012  66.5204997  70.9999988
 101.8390012  66.0794997  69.2729988 100.3800012  65.2304997  70.5579988
 100.1770012  64.6564997  69.6289988  99.3920012  65.6064997  70.8999988
 100.9770012  64.1574997  71.4809988 101.2730012  63.1854997  71.0589988
 101.1420012  64.3564997  72.7879988 101.7060012  63.6184997  73.3779988
 100.8340012  65.6024997  73.5239988 100.1410012  66.2584997  72.9549988
 101.7650012  66.1964997  73.6459988 100.1620012  65.6624997  74.9339988
  99.2720012  65.0004997  75.0019988  99.8600012  66.7254997  75.0469988
 101.1620012  65.1954997  75.9739988 101.9770012  65.9504997  75.9699988
 101.5630012  64.2004997  75.6819988 100.6430012  65.3104997  77.4009988
  99.8230012  64.6084997  77.6639988 100.1800012  66.3154997  77.4999988
 101.7380012  65.0134997  78.3939988 102.6530012  64.6224997  77.8989988
 101.4120012  64.2944997  79.1739988 102.0690012  66.4454997  78.9529988
 101.1880012  66.7704997  79.5469988 102.1580012  67.2144997  78.1569988
 103.4600012  66.4704997  79.5839988 104.2440012  66.5914997  78.8059988
 103.6280012  65.5674997  80.2079988 103.9320012  67.6514997  80.5399988
 103.8910012  68.5854997  79.9379988 104.9190012  67.4124997  80.9909988
 103.1800012  67.7854997  81.3469988  57.5480012  98.6034997  81.8809988
  56.7190012  98.6904997  82.6149988  57.2050012  98.6424997  80.8249988
  58.4050012  99.2764997  82.0979988  58.0020012  97.0874997  82.0699988
  58.8540012  96.9174997  81.3779988  58.3320012  96.8764997  83.1099988
  56.9450012  96.0074997  81.8419988  57.4830012  95.0674997  82.0879988
  56.0980012  96.2434997  82.5229988  56.3790012  95.9294997  80.4119988
  55.6390012  95.1004997  80.4229988  55.8040012  96.8624997  80.2329988
  57.4290012  95.7574997  79.3349988  57.9140012  96.7524997  79.2349988
  58.2120012  94.9964997  79.5369988  56.7810012  95.1494997  78.0059988
  56.3110012  94.1514997  78.1339988  56.0620012  95.9124997  77.6349988
  57.8770012  94.8974997  76.8919988  58.6530012  94.2414997  77.3389988
  57.3870012  94.3584997  76.0529988  58.4400012  96.2674997  76.4309988
  57.6230012  96.9314997  76.0769988  58.9080012  96.8224997  77.2719988
  59.5680012  96.2224997  75.4199988  60.5460012  95.8274997  75.7699988
  59.1230012  95.5964997  74.6169988  59.8740012  97.5544997  74.8099988
  58.8540012  97.9844997  74.7159988  60.5280012  98.0824997  75.5359988
  60.4950012  97.5564997  73.3909988  60.8230012  98.5714997  73.0799988
  61.4370012  96.9704997  73.4519988  59.5270012  97.1574997  72.2269988
  59.1320012  96.1274997  72.3619988  58.6850012  97.8804997  72.2649988
  60.1940012  97.2434997  70.8529988  59.4090012  97.3594997  70.0759988
  60.6880012  98.2364997  70.9109988  61.1030012  96.1054997  70.5479988
  61.4480012  96.4014997  69.5339988  61.8730012  96.2364997  71.3379988
  60.4820012  94.6914997  70.5259988  61.2460012  93.9184997  70.2929988
  60.1900012  94.3364997  71.5369988  59.3330012  94.5494997  69.5779988
  58.2830012  93.9404997  69.8029988  59.5200012  95.3124997  68.4659988
  58.6000012  95.2444997  67.4689988  58.8910012  94.4524997  66.7459988
  57.5800012  95.1004997  67.8839988  58.7760012  96.5404997  66.6139988
  58.0880012  96.5064997  65.7419988  60.2110012  96.6234997  66.0519988
  60.8750012  96.6334997  66.9429988  60.6020012  95.7204997  65.5369988
  60.4010012  97.8354997  65.2769988  59.7760012  97.6814997  63.7829988
  58.3680012  98.4054997  63.7259988  58.1490012  99.6004997  64.5349988
  57.1850012  99.4604997  65.0689988  58.9630012  99.7354997  65.2789988
  58.0380012 100.9414997  63.7219988  58.4990012 101.7914997  64.2039988
  58.8180012 100.8824997  62.9769988  56.8210012 101.2334997  62.8709988
  55.6940012 101.6084997  63.7689988  56.1860012 102.3114997  64.4249988
  54.8710012 102.0394997  63.2169988  55.4690012 100.7684997  64.4089988
  57.2850012 102.2874997  61.8869988  57.6380012 103.1644997  62.4089988
  58.1390012 101.8664997  61.3779988  56.4440012 102.5064997  61.2459988
  56.5530012  99.9644997  62.0809988  55.8370012 100.1394997  61.2909988
  56.1450012  99.3274997  62.8519988  57.5040012  99.5234997  61.8199988
  60.7180012  98.3484997  62.9139988  59.5470012  96.2234997  63.6149988
  58.5810012  97.6914997  67.4409988  57.3180012  98.0584997  67.6449988
  56.3200012  97.4934997  67.2609988  57.3160012  99.4784997  68.2749988
  56.7060012  99.4724997  69.2029988  56.9090012 100.1904997  67.5259988
  58.7670012 100.0004997  68.5489988  59.5290012  99.5144997  67.9029988
  58.8310012  99.6154997  69.5899988  58.8650012 101.5554997  68.4729988
  58.4740012 101.9224997  67.4999988  59.9050012 101.9434997  68.4239988
  58.3110012 102.2424997  69.6969988  57.2010012 102.1834997  69.6969988
  58.4250012 103.3254997  69.4779988  58.7700012 101.9284997  71.1499988
  59.8800012 101.8764997  71.1149988  58.4290012 100.8864997  71.3319988
  58.4010012 102.9344997  72.2839988  58.7940012 103.9334997  71.9969988
  59.0010012 102.5904997  73.1529988  56.8370012 102.9304997  72.6729988
  56.4870012 101.8864997  72.8259988  56.2470012 103.2394997  71.7839988
  56.5820012 103.7454997  73.8889988  56.6460012 104.7974997  73.5719988
  56.3690012 103.3534997  75.1649988  56.1540012 104.1174997  75.9259988
  56.3550012 101.9074997  75.6569988  56.0260012 101.3064997  74.7829988
  55.5500012 101.6814997  76.3879988  57.7000012 101.5154997  76.2679988
  58.4960012 101.9344997  75.6159988  57.7950012 100.4174997  76.1299988
  57.9850012 101.8714997  77.7359988  57.5720012 100.9774997  78.2509988
  57.4880012 102.8354997  77.9749988  59.5020012 102.0234997  77.9179988
  59.8010012 103.0174997  77.5209988  60.1530012 101.2674997  77.4309988
  59.7840012 101.9904997  79.4239988  59.5770012 101.0074997  79.8979988
  59.0580012 102.7404997  79.8039988  61.1890012 102.4064997  79.7559988
  61.3440012 103.4624997  79.4459988  61.8810012 101.7214997  79.2199988
  61.4480012 102.2604997  81.2619988  62.5010012 102.5954997  81.3809988
  61.4980012 101.1994997  81.5859988  60.5050012 103.0114997  82.2889988
  60.7760012 103.0734997  83.3649988  59.5410012 102.4744997  82.1669988
  60.2450012 104.0474997  81.9839988  40.3850012  55.5884997  85.6099988
  40.6060012  55.2874997  86.6559988  39.3150012  55.8754997  85.5249988
  41.0100012  56.4724997  85.3609988  40.7190012  54.3214997  84.8509988
  41.7990012  54.2644997  85.1049988  40.1400012  53.4954997  85.3159988
  40.5360012  54.2944997  83.2969988  41.3280012  54.9434997  82.8669988
  40.8480012  53.2594997  83.0389988  39.1220012  54.5414997  82.9329988
  38.4380012  53.7884997  83.3829988  38.7800012  55.5084997  83.3599988
  39.0580012  54.5694997  81.4359988  39.9090012  55.1684997  81.0469988
  39.1670012  53.5064997  81.1329988  37.7660012  55.1854997  80.8489988
  36.8800012  54.6134997  81.1979988  37.6130012  56.2404997  81.1619988
  37.9340012  55.2354997  79.3329988  38.9240012  55.6864997  79.1099988
  38.1290012  54.2354997  78.8899988  36.7810012  55.9654997  78.6289988
  35.8820012  55.3154997  78.7029988  36.4730012  56.9004997  79.1429988
  37.0860012  56.1774997  77.1079988  36.1980012  56.7414997  76.7509988
  37.9700012  56.8484997  77.0449988  37.1410012  54.8694997  76.2919988
  37.7080012  54.0984997  76.8569988  36.1060012  54.5074997  76.1129988
  37.7730012  55.0614997  74.9099988  37.1530012  55.6934997  74.2389988
  38.6700012  55.7054997  75.0339988  38.1290012  53.7294997  74.2219988
  38.3800012  52.9664997  74.9899988  37.1860012  53.4344997  73.7149988
  39.0850012  53.8464997  73.0149988  40.1310012  54.0004997  73.3569988
  39.2920012  52.8764997  72.5129988  38.8310012  54.8234997  71.8299988
  38.0150012  54.3964997  71.2089988  38.4300012  55.6944997  72.3919988
  40.0020012  55.1354997  70.9329988  39.9870012  56.2004997  70.6179988
  40.9480012  55.0224997  71.5029988  40.0650012  54.0704997  69.7769988
  39.6400012  52.9224997  69.8879988  40.5670012  54.6524997  68.7489988
  40.3850012  54.0514997  67.4459988  41.2740012  54.1834997  66.7919988
  40.2220012  52.9604997  67.5779988  39.1540012  54.7484997  66.7709988
  38.2690012  54.5184997  67.4019988  38.8390012  54.1394997  65.3519988
  39.8500012  53.9214997  64.9469988  38.2600012  53.1914997  65.3619988
  38.1440012  55.0954997  64.5559988  38.4970012  55.4464997  63.0409988
  40.0790012  55.6164997  63.2489988  40.8620012  56.3634997  62.3509988
  41.6360012  55.6964997  61.9139988  40.2680012  56.7584997  61.4989988
  41.5010012  57.6654997  62.8999988  42.0210012  58.1584997  62.0919988
  40.7030012  58.2894997  63.2739988  42.5580012  57.4634997  64.0299988
  42.9940012  58.7584997  64.7189988  43.6050012  59.3114997  64.0199988
  42.1970012  59.4224997  65.0199988  43.6030012  58.6184997  65.5999988
  42.0300012  56.4664997  65.0619988  42.9450012  56.1554997  65.5439988
  41.4030012  57.0124997  65.7499988  41.5210012  55.6544997  64.5629988
  43.8210012  56.8294997  63.3579988  44.4170012  57.6544997  62.9969988
  43.5470012  56.1884997  62.5319988  44.4190012  56.2024997  64.0019988
  38.1380012  54.3174997  62.1909988  37.9340012  56.7664997  62.7239988
  39.3890012  56.1484997  66.7179988  38.4640012  56.9084997  67.2569988
  37.3640012  56.5934997  67.7369988  38.9230012  58.3234997  67.1579988
  38.0590012  58.9264997  66.8059988  39.8210012  58.4404997  66.5159988
  39.2390012  58.7214997  68.6479988  39.8310012  57.8854997  69.0769988
  38.2640012  58.7594997  69.1789988  39.9690012  60.0664997  68.7619988
  39.3000012  60.8734997  68.3949988  40.8540012  60.1724997  68.0979988
  40.5800012  60.3574997  70.1969988  39.7630012  60.4394997  70.9459988
  41.1000012  61.3394997  70.1799988  41.6170012  59.3054997  70.7369988
  42.4120012  58.9094997  70.0689988  41.0910012  58.3584997  70.9849988
  42.2570012  59.6874997  72.0939988  42.9180012  60.5614997  71.9129988
  42.9480012  58.9014997  72.4679988  41.3140012  60.0004997  73.3019988
  40.5940012  60.8144997  73.0709988  41.8720012  60.4504997  74.1509988
  40.5290012  58.7624997  73.7659988  39.5020012  58.7864997  73.3729988
  40.8570012  57.8104997  74.6139988  40.2240012  56.9224997  74.7579988
  42.1420012  57.8044997  75.3919988  42.8880012  58.5834997  75.1229988
  42.7660012  56.8884997  75.3169988  41.6950012  57.9544997  76.8529988
  41.0540012  57.0564997  76.9799988  41.1780012  58.9004997  77.1239988
  42.9310012  57.9814997  77.7959988  43.6620012  58.6844997  77.3419988
  43.4930012  57.0254997  77.8599988  42.5670012  58.4544997  79.1879988
  41.6520012  59.0824997  79.2319988  43.4170012  59.1044997  79.4889988
  42.5930012  57.3314997  80.2229988  43.6670012  57.0464997  80.2299988
  41.9450012  56.4754997  79.9379988  42.1450012  57.8264997  81.5819988
  42.7900012  58.6874997  81.8619988  42.1970012  57.1324997  82.4469988
  40.6990012  58.3374997  81.6809988  40.0220012  57.5004997  81.4089988
  40.5420012  59.1424997  80.9309988  40.1850012  58.9474997  82.9799988
  40.8670012  59.7014997  83.4259988  39.9080012  58.1264997  83.6759988
  39.2290012  59.4484997  82.7139988  86.8120012  39.1174997  84.0099988
  86.9140012  38.8804997  82.9299988  85.7480012  39.0824997  84.3279988
  87.4080012  38.3794997  84.5889988  87.4020012  40.5644997  84.1539988
  87.1070012  41.0734997  85.0959988  88.5080012  40.5714997  84.0449988
  86.7700012  41.5364997  83.1809988  85.7240012  41.6234997  83.5469988
  87.1460012  42.5564997  83.4109988  86.9970012  41.1724997  81.6629988
  88.0730012  40.9214997  81.5499988  86.4030012  40.2804997  81.3689988
  86.6210012  42.3434997  80.7329988  86.5960012  43.2334997  81.3969988
  87.2560012  42.5034997  79.8349988  85.1140012  42.2434997  80.2059988
  84.9520012  41.2864997  79.6659988  84.4980012  41.8654997  81.0499988
  84.6150012  43.5784997  79.6379988  83.5350012  43.5734997  79.8969988
  85.1980012  44.4264997  80.0569988  84.7100012  43.6174997  78.1179988
  85.7730012  43.8694997  77.9139988  84.4910012  42.6034997  77.7199988
  83.7340012  44.5444997  77.3479988  82.7660012  44.0094997  77.2389988
  83.4780012  45.5244997  77.8049988  84.1750012  44.7524997  75.8809988
  84.3910012  43.8284997  75.3039988  83.3000012  45.1224997  75.3049988
  85.4140012  45.7174997  75.7189988  85.3280012  46.6564997  76.3059988
  86.4330012  45.2894997  75.8409988  85.4890012  46.0724997  74.2089988
  84.4420012  46.1624997  73.8509988  86.0160012  47.0274997  73.9939988
  86.3050012  45.1204997  73.3589988  87.3690012  45.3784997  73.5459988
  86.2270012  44.0314997  73.5659988  85.7740012  45.0604997  71.9509988
  84.7780012  44.6334997  72.1949988  85.5880012  46.0564997  71.4969988
  86.5840012  44.0944997  70.9899988  87.4810012  44.7204997  70.7949988
  86.6900012  43.1384997  71.5459988  85.7780012  43.8984997  69.7039988
  85.0970012  44.6994997  69.1499988  86.0360012  42.7024997  69.1949988
  85.4900012  42.2774997  67.9419988  85.4900012  43.1494997  67.2529988
  86.3000012  41.6054997  67.5869988  84.1960012  41.4374997  68.2059988
  84.5480012  40.6114997  68.8609988  83.7360012  40.8574997  66.8529988
  84.7290012  40.5454997  66.4639988  83.1440012  39.9184997  66.9129988
  83.0450012  41.8824997  66.1319988  82.6220012  41.5474997  64.6379988
  84.0740012  41.5864997  63.9239988  84.8490012  42.7594997  64.1319988
  84.2890012  43.6074997  64.5809988  85.7370012  42.6274997  64.7869988
  85.5970012  43.1654997  62.8239988  84.8200012  43.4424997  62.1259988
  86.1940012  44.0464997  63.0079988  86.4530012  42.0874997  62.1369988
  85.6300012  41.0714997  61.4259988  86.2120012  40.1624997  61.4609988
  84.8120012  40.7754997  62.0659988  85.3770012  41.3634997  60.4169988
  87.3450012  42.6634997  61.1099988  86.8690012  43.2394997  60.3289988
  88.1020012  43.2394997  61.6209988  87.8680012  41.8874997  60.5719988
  87.3990012  41.4434997  63.1219988  87.8470012  42.1554997  63.7989988
  88.1900012  40.9744997  62.5559988  86.8190012  40.7244997  63.6829988
  82.0520012  40.1724997  64.5439988  81.6890012  42.6104997  64.1919988
  83.1810012  42.2404997  68.7419988  82.1210012  41.5704997  69.1599988
  82.0170012  40.3264997  69.1689988  81.0500012  42.6044997  69.6659988
  80.0320012  42.1844997  69.8149988  80.9930012  43.5014997  69.0139988
  81.4030012  43.1004997  71.1089988  82.3090012  43.7024997  70.8829988
  81.5280012  42.1934997  71.7389988  80.3930012  44.0984997  71.7549988
  79.9250012  44.7344997  70.9729988  81.0680012  44.8474997  72.2239988
  79.4130012  43.3854997  72.7389988  79.0820012  42.4544997  72.2299988
  78.5400012  44.0594997  72.8739988  79.9660012  43.0124997  74.0999988
  80.2650012  44.0144997  74.4749988  80.8940012  42.4124997  74.2119988
  79.0200012  42.3724997  75.0719988  79.0430012  41.3404997  74.6609988
  77.9950012  42.8004997  75.0449988  79.5130012  42.2264997  76.5649988
  79.4910012  43.2524997  76.9929988  80.5830012  41.9284997  76.5599988
  78.6300012  41.4204997  77.4659988  77.6470012  41.9114997  77.5189988
  78.8380012  40.3024997  78.1799988  78.0740012  39.9274997  78.8769988
  80.1320012  39.5724997  78.2249988  80.6970012  39.6174997  77.2699988
  79.8290012  38.5124997  78.3609988  81.1300012  40.0654997  79.2709988
  81.3860012  41.1194997  79.0319988  82.1340012  39.6014997  79.3749988
  80.4940012  40.0364997  80.6549988  79.9910012  39.0764997  80.9019988
  79.7050012  40.8144997  80.7339988  81.5350012  40.3384997  81.7949988
  82.1450012  41.1794997  81.4019988  81.9640012  39.3354997  82.0049988
  80.7510012  40.8364997  83.1149988  79.6920012  40.5084997  83.1869988
  80.6940012  41.9434997  83.0449988  81.5220012  40.6014997  84.4819988
  82.6070012  40.7734997  84.3169988  81.4200012  39.5234997  84.7299988
  81.0420012  41.4254997  85.7049988  81.3870012  41.0104997  86.6759988
  79.9580012  41.2324997  85.8579988  81.0430012  42.9134997  85.5909988
  80.2700012  43.3414997  86.2649988  80.9470012  43.2874997  84.5499988
  82.0240012  43.2714997  85.9709988  39.8720012  83.3014997  81.4779988
  39.4860012  84.1034997  82.1419988  40.8830012  83.7184997  81.2849988
  39.7820012  82.3204997  81.9909988  39.0070012  83.3694997  80.1719988
  39.2760012  82.4224997  79.6569988  37.9390012  83.3394997  80.4769988
  39.2320012  84.5874997  79.2599988  39.2090012  85.4694997  79.9349988
  40.1980012  84.5994997  78.7109988  38.0530012  84.7784997  78.3699988
  37.0860012  84.8464997  78.9129988  38.3800012  85.6294997  77.7359988
  37.8110012  83.6314997  77.3229988  38.7670012  83.5634997  76.7609988
  37.5280012  82.7134997  77.8809988  36.6560012  83.8774997  76.3639988
  35.8040012  83.9544997  77.0739988  36.8400012  84.8454997  75.8519988
  36.5860012  82.7584997  75.3039988  37.6660012  82.5724997  75.1179988
  36.2470012  81.8594997  75.8619988  35.6540012  83.1834997  74.0739988
  34.6440012  83.4354997  74.4619988  36.0630012  84.1214997  73.6419988
  35.3770012  82.0904997  73.0619988  34.4830012  81.5804997  73.4809988
  35.1380012  82.5574997  72.0829988  36.5240012  81.0374997  72.7679988
  37.3940012  81.5294997  72.2839988  36.7910012  80.6604997  73.7789988
  36.1130012  79.9034997  71.8109988  37.0000012  79.2394997  71.7379988
  35.3160012  79.3494997  72.3509988  35.5860012  80.3474997  70.4699988
  35.1720012  79.4974997  69.8849988  34.8150012  81.1344997  70.6139988
  36.5930012  80.9784997  69.5899988  37.0360012  81.8654997  70.0929988
  37.3840012  80.2184997  69.4139988  36.0750012  81.5304997  68.1849988
  36.8460012  81.6244997  67.3909988  35.3340012  80.8014997  67.7939988
  35.5000012  82.9604997  68.4379988  34.7650012  82.7444997  69.2429988
  36.3060012  83.6414997  68.7869988  34.8090012  83.5504997  67.2509988
  34.3820012  82.9044997  66.2979988  34.6510012  84.8534997  67.4229988
  33.9380012  85.4484997  66.3079988  33.5180012  84.7444997  65.5589988
  33.0020012  85.8984997  66.7049988  34.9310012  86.4364997  65.5319988
  34.3420012  86.9044997  64.7139988  36.0850012  85.6504997  64.8559988
  35.5480012  84.7604997  64.4619988  36.5440012  86.2004997  64.0079988
  36.9760012  85.1384997  65.7479988  38.4540012  84.5894997  65.2209988
  38.2540012  83.5904997  64.0309988  37.4990012  82.3594997  64.1869988
  38.0170012  81.7934997  64.9899988  36.4140012  82.5624997  64.3189988
  37.4350012  81.4564997  62.9499988  38.3670012  80.9294997  62.8069988
  36.6930012  80.6904997  63.1189988  37.2030012  82.0954997  61.5879988
  35.9690012  82.9804997  61.5649988  35.1100012  82.3854997  61.8379988
  36.2060012  83.8644997  62.1379988  35.8350012  83.4134997  60.5849988
  38.3330012  83.0494997  61.2069988  38.1460012  83.4414997  60.2179988
  38.2510012  83.9214997  61.8379988  39.3240012  82.6284997  61.2939988
  36.9970012  80.9914997  60.5679988  36.6840012  81.4134997  59.6239988
  36.4270012  80.1604997  60.9559988  37.9300012  80.4754997  60.3979988
  39.2120012  85.7314997  64.6669988  38.9790012  83.9334997  66.4489988
  35.4460012  87.3764997  66.5029988  36.5080012  88.1314997  66.1409988
  36.6780012  88.6224997  65.0379988  37.3180012  88.3364997  67.3769988
  36.8870012  89.2094997  67.9109988  38.3190012  88.7134997  67.0749988
  37.3850012  87.0704997  68.2979988  37.9820012  86.2414997  67.8609988
  36.4390012  86.5214997  68.4899988  37.8810012  87.2604997  69.7329988
  38.8920012  87.7204997  69.6989988  38.0740012  86.2684997  70.1929988
  37.0110012  88.1104997  70.6319988  36.9070012  89.0904997  70.1199988
  37.4980012  88.2634997  71.6179988  35.5420012  87.5754997  70.8139988
  35.5750012  86.4864997  71.0349988  35.0510012  87.7854997  69.8399988
  34.7700012  88.4304997  71.7869988  33.7310012  88.4504997  71.3939988
  35.2000012  89.4544997  71.7729988  34.6800012  88.0204997  73.2459988
  33.8760012  87.2574997  73.1709988  34.1580012  88.8754997  73.7259988
  35.8840012  87.5964997  74.0649988  36.7220012  87.1634997  73.4989988
  36.1110012  87.7944997  75.3959988  37.0460012  87.4544997  75.8629988
  35.0930012  88.5144997  76.2869988  34.2780012  88.9714997  75.6859988
  35.5970012  89.3154997  76.8689988  34.4330012  87.5544997  77.2629988
  35.3000012  87.0794997  77.7689988  33.8350012  86.7654997  76.7589988
  33.6930012  88.3354997  78.4099988  32.7870012  88.8194997  77.9849988
  34.3660012  89.1124997  78.8329988  33.1750012  87.5644997  79.7069988
  32.5830012  86.7214997  79.2919988  32.5600012  88.3254997  80.2329988
  34.2500012  87.0564997  80.7179988  34.8450012  87.9594997  80.9729988
  34.9290012  86.3114997  80.2499988  33.6140012  86.6124997  82.0629988
  33.0300012  87.4824997  82.4309988  34.4510012  86.4574997  82.7769988
  32.8490012  85.3034997  81.9169988  31.9330012  85.4154997  81.2989988
  32.4810012  84.9964997  82.9189988  33.6830012  84.1074997  81.4969988
  34.6400012  84.1064997  82.0619988  33.8230012  84.2324997  80.4019988
  33.1880012  83.1394997  81.7209988 105.9920012  54.9624997  83.3759988
 105.1720012  55.2004997  82.6649988 105.5220012  54.7744997  84.3649988
 106.2780012  53.9724997  82.9609988 107.0600012  55.9924997  83.3749988
 106.5520012  56.9234997  83.7049988 107.9530012  55.7804997  83.9999988
 107.4560012  56.3524997  81.8869988 108.0310012  55.4374997  81.6289988
 106.5660012  56.3574997  81.2219988 108.1850012  57.7004997  81.7089988
 107.5320012  58.5914997  81.8299988 109.0700012  57.6714997  82.3809988
 108.7520012  57.8344997  80.2209988 109.4880012  58.6664997  80.2039988
 109.3710012  56.9194997  80.1099988 107.7450012  58.0404997  79.0789988
 108.1960012  57.7374997  78.1099988 106.7830012  57.4884997  79.1259988
 107.1930012  59.4724997  78.9739988 106.8420012  59.6064997  80.0199988
 107.9880012  60.2174997  78.7589988 106.0480012  59.7034997  77.9289988
 105.1410012  59.1084997  78.1689988 105.7860012  60.7714997  78.0899988
 106.3150012  59.4234997  76.3989988 107.1060012  60.0924997  75.9969988
 106.6840012  58.3984997  76.1789988 104.9960012  59.5494997  75.5359988
 104.4130012  58.6184997  75.7009988 104.4480012  60.4534997  75.8789988
 105.3110012  59.7864997  74.0579988 104.4340012  60.1724997  73.4969988
 106.1100012  60.5554997  73.9929988 105.8810012  58.4854997  73.3739988
 106.7880012  58.2434997  73.9689988 105.0790012  57.7264997  73.4979988
 106.3280012  58.5854997  71.9339988 106.8810012  57.6454997  71.7209988
 105.4430012  58.6374997  71.2639988 107.3050012  59.7384997  71.6129988
 106.8210012  60.6814997  71.9479988 108.1630012  59.6384997  72.3119988
 107.8490012  59.7004997  70.1849988 106.9990012  59.7384997  69.4709988
 108.5670012  60.5314997  70.0159988 108.6790012  58.4644997  69.8959988
 109.7570012  58.2164997  70.3009988 107.9500012  57.6644997  69.1059988
 108.4660012  56.3134997  69.0159988 109.5460012  56.1434997  68.8189988
 108.3140012  55.7474997  69.9599988 107.7930012  55.4734997  67.8779988
 108.3340012  54.5074997  67.7839988 107.8140012  56.1664997  66.4449988
 108.8680012  56.2334997  66.0999988 107.3120012  55.4214997  65.7919988
 107.1210012  57.3814997  66.4769988 107.4560012  58.5434997  65.4309988
 107.0260012  57.8744997  64.0039988 105.6930012  57.3314997  63.9229988
 105.8410012  56.2964997  63.5459988 105.1390012  57.2684997  64.8839988
 104.7450012  58.0224997  62.9129988 103.8670012  57.3944997  62.8949988
 104.3130012  58.9154997  63.3409988 105.1850012  58.1564997  61.4359988
 105.6340012  56.7164997  60.9399988 105.4190012  55.9684997  61.6889988
 105.1060012  56.5474997  60.0129988 106.7110012  56.7684997  60.8879988
 104.0410012  58.6254997  60.5599988 104.0320012  59.6674997  60.8409988
 104.4600012  58.5684997  59.5659988 103.0900012  58.1504997  60.7519988
 106.3700012  59.0744997  61.2439988 107.1960012  58.7204997  61.8419988
 106.1970012  60.0794997  61.6009988 106.5920012  59.1624997  60.1899988
 106.5800012  59.6734997  65.7589988 108.9480012  58.7474997  65.4939988
 106.4450012  55.2174997  68.2039988 106.2890012  54.2874997  69.1299988
 107.1700012  53.6024997  69.6549988 104.8820012  54.3844997  69.5909988
 104.1070012  54.1064997  68.8439988 104.7300012  55.4654997  69.7939988
 104.6750012  53.6384997  70.9629988 105.4240012  53.9504997  71.7219988
 104.8030012  52.5434997  70.8199988 103.3050012  53.9684997  71.6469988
 102.4820012  53.7274997  70.9409988 103.0440012  55.0224997  71.8829988
 103.2070012  53.0724997  72.9189988 103.4130012  52.0674997  72.4929988
 102.2010012  53.3044997  73.3309988 104.2380012  53.3114997  74.0269988
 105.1930012  53.1664997  73.4779988 104.3010012  52.3794997  74.6279988
 104.0590012  54.6794997  74.7069988 103.2580012  54.6114997  75.4739988
 103.7510012  55.3054997  73.8429988 105.3360012  55.2864997  75.2459988
 105.1550012  56.3684997  75.4209988 106.0110012  55.4474997  74.3779988
 105.9550012  54.5594997  76.4009988 106.7920012  53.8824997  76.1749988
 105.6670012  54.5584997  77.6899988 106.2190012  53.9514997  78.4209988
 104.5340012  55.3694997  78.1899988 103.5720012  55.4244997  77.6369988
 104.9700012  56.3474997  78.4859988 104.1080012  54.9964997  79.5879988
 104.9740012  54.8894997  80.2759988 103.7460012  53.9574997  79.4379988
 102.9880012  55.8494997  80.3129988 102.6250012  55.2464997  81.1729988
 102.0590012  56.0564997  79.7409988 103.4900012  57.2344997  80.8129988
 103.5760012  57.8824997  79.9149988 104.4570012  56.9874997  81.3019988
 102.5310012  58.0184997  81.7769988 102.2760012  57.3954997  82.6609988
 101.5980012  58.1914997  81.1999988 103.0430012  59.3894997  82.3219988
 102.2640012  59.9794997  82.8499988 103.3030012  60.0314997  81.4539988
 104.2120012  59.1934997  83.3229988 104.7310012  60.1564997  83.5189988
 104.9870012  58.5114997  82.9109988 103.6100012  58.7424997  84.7019988
 102.8010012  59.4814997  84.8879988 104.4630012  58.7844997  85.4119988
 103.2340012  57.7034997  84.5919988 103.0870012  83.3434997  83.8189988
 103.1930012  83.7944997  82.8089988 103.0410012  84.1994997  84.5249988
 102.0410012  82.9934997  83.9509988 104.2830012  82.4504997  84.1169988
 105.2530012  82.9524997  83.9109988 104.3970012  82.0754997  85.1569988
 104.1660012  81.2064997  83.3259988 104.9840012  80.4774997  83.5109988
 103.2290012  80.8504997  83.8049988 103.9560012  81.4244997  81.7849988
 103.8460012  80.4204997  81.3219988 102.9190012  81.8214997  81.7499988
 105.0600012  82.1514997  81.0419988 105.3520012  83.1854997  81.3249988
 105.9160012  81.5044997  81.3309988 104.8860012  82.2294997  79.4909988
 105.9080012  82.1674997  79.0609988 104.3980012  81.2784997  79.1879988
 103.9980012  83.3814997  78.9759988 103.0140012  83.4994997  79.4779988
 104.5240012  84.3384997  79.1809988 103.5750012  83.2654997  77.4929988
 103.0590012  82.2984997  77.3079988 102.8540012  84.1084997  77.4419988
 104.6680012  83.2164997  76.3569988 105.3680012  84.0654997  76.5109988
 105.1490012  82.2144997  76.3399988 104.1460012  83.2134997  74.9649988
 103.2920012  82.5314997  74.7669988 103.8180012  84.2034997  74.5819988
 105.2840012  82.6464997  74.0279988 106.3100012  82.9654997  74.3119988
 105.2540012  81.5434997  74.1569988 105.0460012  82.9594997  72.5469988
 104.0970012  82.4574997  72.2649988 105.0610012  84.0374997  72.2769988
 106.0610012  82.3184997  71.5949988 105.9620012  82.6894997  70.5519988
 107.1060012  82.6054997  71.8399988 105.9470012  80.7994997  71.5359988
 106.9310012  80.3944997  71.2189988 105.9220012  80.3954997  72.5709988
 104.8540012  80.1114997  70.7679988 105.0030012  79.0114997  70.8269988
 103.8210012  80.2694997  71.1469988 104.9150012  80.5654997  69.3109988
 105.8660012  80.3784997  68.5849988 103.7370012  81.2254997  68.9849988
 103.7180012  81.7624997  67.6839988 104.6700012  81.6384997  67.1249988
 102.9040012  81.3054997  67.0799988 103.4720012  83.3254997  67.5899988
 102.4480012  83.5574997  67.9519988 103.7110012  83.8724997  66.2299988
 103.3860012  83.2354997  65.3789988 103.1410012  84.8214997  66.1329988
 105.1290012  84.1144997  66.0789988 105.5720012  85.4294997  65.3249988
 105.0570012  85.0474997  63.8919988 105.4870012  83.8124997  63.3599988
 106.5980012  83.8444997  63.3769988 105.2460012  82.9654997  64.0369988
 105.0820012  83.5374997  61.9289988 105.4480012  84.2954997  61.2519988
 105.4690012  82.5884997  61.5849988 103.5960012  83.4184997  61.6699988
 103.2350012  83.4204997  60.1889988 103.5420012  84.3404997  59.7149988
 103.7170012  82.6434997  59.6129988 102.1780012  83.2314997  60.0789988
 103.0960012  82.1214997  62.3419988 103.2870012  81.2414997  61.7459988
 103.6060012  82.1364997  63.2939988 102.0530012  82.2364997  62.5969988
 102.8970012  84.6144997  62.3449988 103.3930012  85.5024997  61.9819988
 103.1510012  84.6484997  63.3939988 101.8280012  84.6874997  62.2139988
 104.8030012  86.5744997  65.8779988 107.0840012  85.5514997  65.1729988
 104.4420012  83.9084997  68.5499988 104.1860012  85.1014997  69.0279988
 103.1220012  85.7214997  68.8229988 105.4010012  85.7304997  69.8389988
 106.1980012  85.7614997  69.0649988 105.7140012  85.0314997  70.6439988
 105.2630012  87.0494997  70.4099988 104.6680012  87.7254997  69.7599988
 106.2540012  87.5384997  70.5219988 104.3760012  86.9984997  71.7049988
 103.8720012  86.0084997  71.7159988 103.5740012  87.7654997  71.7419988
 105.2480012  87.0474997  72.9689988 105.9760012  86.2104997  73.0379988
 104.6140012  86.7614997  73.8359988 106.0220012  88.3464997  73.1269988
 105.4130012  89.2104997  72.7859988 106.8360012  88.3054997  72.3719988
 106.4810012  88.5994997  74.6119988 105.6390012  88.4954997  75.3299988
 106.7790012  89.6644997  74.7179988 107.6380012  87.7234997  75.1069988
 108.3720012  87.6254997  74.2789988 107.2300012  86.6974997  75.2259988
 108.1800012  88.1864997  76.3819988 108.9510012  88.9584997  76.2399988
 107.6400012  88.0474997  77.5799988 108.0420012  88.4424997  78.5239988
 106.2930012  87.4204997  77.9119988 106.4230012  86.5024997  78.5249988
 105.9310012  86.9674997  76.9639988 105.2330012  88.4784997  78.4589988
 105.0690012  89.2984997  77.7279988 105.4110012  89.0514997  79.3939988
 103.8680012  87.8754997  78.8209988 103.6080012  87.1034997  78.0649988
 103.0280012  88.5974997  78.9049988 103.7470012  87.2354997  80.2539988
 104.6250012  86.6014997  80.5059988 102.8290012  86.6284997  80.4089988
 103.5630012  88.3414997  81.3329988 102.7500012  89.0364997  81.0349988
 104.4960012  88.9424997  81.2799988 103.4020012  87.7464997  82.7229988
 102.5650012  87.0304997  82.5759988 102.9940012  88.4824997  83.4479988
 104.5360012  86.9094997  83.3139988 104.5320012  85.8974997  82.8559988
 104.3230012  86.8764997  84.4039988 105.8830012  87.5174997  83.0349988
 105.9500012  88.6094997  83.2289988 106.2320012  87.2594997  82.0119988
 106.5810012  87.0104997  83.7359988  91.3980012  96.4494997  79.2849988
  91.6470012  96.8264997  80.2999988  90.7640012  95.5584997  79.4819988
  90.9400012  97.2914997  78.7229988  92.5820012  96.0334997  78.3989988
  92.0920012  95.8474997  77.4189988  93.3410012  96.8444997  78.3589988
  93.3300012  94.7244997  78.8179988  93.4470012  94.7394997  79.9229988
  92.7150012  93.8644997  78.4749988  94.7720012  94.7104997  78.1959988
  95.3600012  95.4984997  78.7139988  95.1320012  93.7034997  78.4969988
  94.7990012  94.7944997  76.7119988  94.1370012  93.9884997  76.3289988
  94.4010012  95.7174997  76.2389988  96.1180012  94.4464997  76.0619988
  96.8740012  94.6134997  76.8589988  96.0300012  93.3654997  75.8219988
  96.4220012  95.2254997  74.7499988  96.3540012  96.3334997  74.7739988
  97.4130012  94.9494997  74.3289988  95.4090012  94.8474997  73.6379988
  95.1820012  93.7664997  73.5229988  94.4580012  95.3304997  73.9499988
  95.8020012  95.3964997  72.2949988  96.6510012  94.7514997  71.9839988
  94.9930012  95.1024997  71.5919988  96.3470012  96.8354997  72.2219988
  95.4640012  97.5094997  72.2039988  97.1280012  97.0154997  72.9919988
  96.9780012  97.0864997  70.8239988  97.4250012  98.0944997  70.6929988
  97.8440012  96.3944997  70.7529988  96.0210012  96.8624997  69.5829988
  94.9580012  96.7124997  69.8719988  95.9320012  97.7994997  68.9929988
  96.5690012  95.7374997  68.7099988  97.2630012  96.0944997  67.9199988
  97.1150012  94.9664997  69.2949988  95.4220012  95.0044997  67.9369988
  94.8220012  94.4114997  68.6589988  94.6370012  95.7614997  67.7259988
  95.9370012  94.2574997  66.6919988  96.3120012  94.8874997  65.8569988
  96.7770012  93.6814997  67.1359988  94.7330012  93.3334997  66.1169988
  94.0830012  92.5714997  66.8409988  94.4780012  93.4964997  64.8129988
  93.2380012  92.9024997  64.3299988  93.3650012  92.5914997  63.2709988
  92.9200012  92.0104997  64.9109988  92.0940012  93.9464997  64.5209988
  91.1320012  93.4754997  64.2249988  92.3810012  95.1534997  63.5939988
  92.1550012  94.7594997  62.5799988  91.6460012  95.9024997  63.9589988
  93.7110012  95.5074997  63.5919988  94.2180012  96.8164997  62.7419988
  95.7860012  96.6344997  62.8909988  96.7050012  97.4714997  62.1739988
  97.5370012  96.8334997  61.8049988  96.1690012  97.9244997  61.3129988
  97.0410012  98.5764997  63.1169988  97.5420012  99.4164997  62.6579988
  96.1200012  99.0414997  63.4359988  97.8420012  98.0814997  64.3329988
  98.9490012  97.1704997  64.0939988  99.6160012  96.9634997  64.9169988
  98.6030012  96.2264997  63.6979988  99.4720012  97.5814997  63.2429988
  98.2830012  99.2954997  65.1669988  97.4630012  99.9864997  65.2949988
  98.6680012  98.9424997  66.1129988  99.1220012  99.8274997  64.7429988
  96.9680012  97.2874997  65.2999988  96.6240012  96.3814997  64.8239988
  96.1600012  97.9594997  65.5499988  97.5830012  97.0164997  66.1449988
  93.7400012  96.6874997  61.3509988  93.8210012  98.0764997  63.4209988
  92.1550012  94.2884997  65.8879988  91.1650012  94.9264997  66.5139988
  90.0600012  95.2634997  66.0569988  91.4620012  95.1294997  68.0289988
  92.2760012  94.4884997  68.4289988  90.5510012  94.7994997  68.5719988
  91.7440012  96.6074997  68.2609988  90.8460012  97.2044997  67.9959988
  92.6160012  96.9444997  67.6589988  91.8870012  97.0504997  69.7519988
  92.4530012  96.2204997  70.2269988  90.8620012  97.0444997  70.1789988
  92.4560012  98.3854997  70.0519988  91.8410012  99.1614997  69.5489988
  93.5450012  98.4484997  69.8399988  92.4120012  98.6584997  71.5099988
  93.1400012  97.9874997  72.0149988  91.4050012  98.3844997  71.8919988
  92.8160012 100.1134997  71.8699988  92.0880012 100.8244997  71.4229988
  93.8050012 100.3094997  71.4039988  92.9190012 100.3494997  73.4229988
  93.0930012 101.4464997  73.4579988  93.7980012  99.7344997  73.7129988
  91.6710012  99.9334997  74.1379988  90.6650012 100.0634997  73.7129988
  91.6330012  99.3694997  75.3189988  90.6070012  99.1894997  75.6709988
  92.7200012  98.9494997  76.2179988  93.2200012  98.1194997  75.6749988
  92.2350012  98.4194997  77.0659988  93.6010012 100.0944997  76.8209988
  92.9180012 100.8414997  77.2789988  94.2710012 100.5604997  76.0669988
  94.4700012  99.5324997  77.9639988  95.4610012 100.0044997  77.7979988
  94.6700012  98.4394997  77.9879988  93.9370012  99.9744997  79.2999988
  92.8710012  99.6764997  79.3929988  94.0170012 101.0594997  79.5239988
  94.6630012  99.3684997  80.4619988  95.7290012  99.3604997  80.1469988
  94.3500012  98.3094997  80.5869988  94.5460012 100.0594997  81.7939988
  93.5640012 100.5694997  81.8909988  95.2890012 100.8724997  81.9439988
  94.5670012  99.1434997  83.0649988  93.7040012  98.4444997  83.0979988
  94.3970012  99.8154997  83.9339988  95.8210012  98.2884997  83.3339988
  96.7840012  98.8194997  83.1759988  95.8540012  97.4434997  82.6129988
  95.9660012  97.9214997  84.3719988  67.5980012 101.8224997  84.4519988
  68.6930012 101.8964997  84.2789988  67.1510012 100.8314997  84.6829988
  67.2360012 102.5724997  85.1879988  67.0210012 101.9964997  83.0699988
  65.9110012 102.0004997  83.1159988  67.2270012 102.9784997  82.5919988
  67.4830012 100.8664997  82.1049988  68.5530012 101.1094997  81.9319988
  67.3790012  99.9364997  82.7039988  66.5790012 100.8004997  80.8259988
  67.1000012 100.1334997  80.1069988  65.5860012 100.4204997  81.1479988
  66.4890012 102.2024997  80.0679988  65.9250012 102.9314997  80.6879988
  67.5140012 102.6054997  80.2149988  65.9200012 102.1914997  78.5879988
  65.8890012 103.2594997  78.2829988  66.5970012 101.6194997  77.9189988
  64.4850012 101.6814997  78.5199988  64.3960012 100.5744997  78.5529988
  63.8520012 102.0284997  79.3639988  63.6940012 102.1644997  77.2879988
  63.3740012 103.2014997  77.5239988  64.3530012 102.3884997  76.4219988
  62.4910012 101.2504997  76.9549988  62.9130012 100.2394997  76.7719988
  61.8220012 101.2744997  77.8409988  61.6700012 101.6604997  75.7209988
  60.6000012 101.3964997  75.8539988  61.6170012 102.7664997  75.8149988
  62.2070012 101.1744997  74.3999988  61.4170012 101.6104997  73.7519988
  63.1470012 101.7014997  74.1289988  62.2850012  99.6414997  74.1939988
  63.2540012  99.2774997  74.5979988  61.4990012  99.1224997  74.7819988
  62.2870012  99.1744997  72.7349988  62.3940012  98.1134997  72.4209988
  61.2620012  99.3094997  72.3279988  63.2930012  99.8934997  71.8339988
  63.1970012 101.0004997  71.8649988  64.2570012  99.8384997  72.3849988
  63.4220012  99.4934997  70.3139988  63.3790012  98.3844997  70.2569988
  62.5120012  99.9104997  69.8319988  64.6530012 100.0494997  69.5839988
  65.4480012 100.8704997  69.9809988  64.7320012  99.4674997  68.4619988
  65.7660012  99.7344997  67.4359988  66.7710012  99.8754997  67.8879988
  65.8580012  98.8794997  66.7329988  65.4250012 100.9264997  66.5499988
  64.6900012 100.5844997  65.7899988  66.6260012 101.4524997  65.6939988
  67.3490012 101.8764997  66.4239988  66.9520012 100.5634997  65.1139988
  66.3120012 102.5764997  64.8009988  66.0380012 102.1904997  63.3429988
  65.8600012 103.5454997  62.6529988  66.6010012 104.6774997  63.1189988
  67.6300012 104.4954997  63.4949988  67.0010012 105.1884997  62.2179988
  65.7190012 105.4134997  64.1049988  65.4240012 104.7484997  64.9029988
  66.2710012 106.2084997  64.5839988  64.3830012 106.0194997  63.6279988
  63.3970012 104.9414997  63.4329988  63.3070012 104.3244997  64.3149988
  62.4840012 105.4874997  63.2479988  63.6510012 104.2924997  62.6079988
  64.0040012 106.9854997  64.7109988  62.9840012 107.3114997  64.5699988
  64.0690012 106.4734997  65.6589988  64.6670012 107.8384997  64.6909988
  64.5920012 106.7964997  62.2689988  65.4040012 107.4924997  62.4179988
  63.6380012 107.2784997  62.1199988  64.7930012 106.1064997  61.4629988
  67.2240012 101.6644997  62.7109988  64.7580012 101.4454997  63.4079988
  64.8960012 101.9874997  67.3199988  63.7770012 102.5754997  66.9459988
  63.1940012 102.3984997  65.8779988  63.4640012 103.5964997  68.0999988
  62.8530012 103.1154997  68.8939988  62.7010012 104.2114997  67.5769988
  64.6720012 104.4844997  68.5209988  65.1460012 104.9064997  67.6089988
  65.4780012 103.8194997  68.8969988  64.4060012 105.7224997  69.4249988
  63.5560012 106.2694997  68.9639988  65.2290012 106.4684997  69.4429988
  64.0080012 105.3674997  70.8169988  63.1140012 104.7084997  70.8559988
  63.6780012 106.3174997  71.2879988  65.1760012 104.6834997  71.5879988
  65.9570012 105.4714997  71.5319988  65.4490012 103.7144997  71.1159988
  64.8910012 104.4044997  73.0359988  64.3430012 103.4384997  73.0569988
  64.3000012 105.1604997  73.5959988  66.1930012 104.2684997  73.8559988
  66.8060012 103.4854997  73.3609988  65.9180012 103.7384997  74.7929988
  66.9400012 105.5134997  74.1619988  67.2140012 106.1364997  73.2979988
  67.4180012 105.8634997  75.4089988  68.0210012 106.7834997  75.4209988
  67.4100012 105.0834997  76.7259988  68.3820012 104.6054997  76.9729988
  66.7120012 104.2214997  76.6639988  66.9880012 105.9634997  77.8839988
  67.6280012 106.8524997  78.0729988  66.9830012 105.2054997  78.6959988
  65.5410012 106.4004997  77.8209988  64.9060012 105.4944997  77.7279988
  65.4790012 107.0814997  76.9449988  65.2610012 107.2494997  79.0349988
  65.9490012 108.1174997  79.1209988  65.5150012 106.6774997  79.9519988
  63.8720012 107.8214997  79.1659988  63.7500012 108.6574997  78.4449988
  63.7120012 108.2004997  80.1979988  62.7410012 106.7414997  78.9049988
  62.6970012 106.4794997  77.8259988  61.8360012 107.2734997  79.2689988
  62.9390012 105.4564997  79.7109988  63.1540012 105.7354997  80.7649988
  63.8820012 104.9354997  79.4369988  61.8460012 104.4224997  79.6389988
  61.0110012 104.7054997  80.3149988  62.3400012 103.5254997  80.0709988
  61.5040012 104.2124997  78.6029988  57.7540012  38.6034997  83.6299988
  58.6270012  39.1464997  83.2099988  58.2240012  37.6784997  84.0279988
  57.1800012  39.1174997  84.4299988  56.7720012  38.3704997  82.4509988
  56.1050012  37.5154997  82.6929988  56.1860012  39.3144997  82.4579988
  57.2780012  38.1864997  81.0399988  56.4060012  37.8764997  80.4249988
  57.5760012  39.1854997  80.6549988  58.4720012  37.2534997  80.8819988
  59.4140012  37.6054997  81.3549988  58.3370012  36.2544997  81.3499988
  58.7210012  36.8874997  79.3949988  59.5960012  36.2074997  79.4729988
  57.8570012  36.3724997  78.9229988  59.2150012  38.0504997  78.4739988
  58.3940012  38.4524997  77.8409988  59.6890012  38.8794997  79.0419988
  60.3400012  37.5264997  77.4689988  61.1120012  37.0644997  78.1209988
  59.9810012  36.7314997  76.7799988  60.9440012  38.6744997  76.7249988
  60.2350012  38.9044997  75.9009988  61.0230012  39.5994997  77.3349988
  62.2300012  38.3504997  76.0269988  62.9690012  38.1084997  76.8209988
  62.1350012  37.4794997  75.3449988  62.8810012  39.5394997  75.2609988
  63.2050012  40.1924997  76.0999988  63.7790012  39.2364997  74.6809988
  61.8630012  40.3754997  74.3489988  61.0700012  40.7824997  75.0129988
  62.3590012  41.3204997  74.0399988  61.2640012  39.5604997  73.1939988
  60.5090012  38.8444997  73.5819988  60.6650012  40.2614997  72.5739988
  62.2620012  38.7554997  72.3529988  63.1480012  39.4214997  72.2759988
  62.4970012  37.8484997  72.9499988  61.7770012  38.2294997  70.9799988
  61.5380012  39.0584997  70.2799988  62.6810012  37.7794997  70.5169988
  60.6310012  37.1914997  71.1029988  61.0710012  36.3834997  71.7259988
  59.8730012  37.7914997  71.6499988  60.2110012  36.7294997  69.7339988
  60.6150012  35.6714997  69.2409988  59.3240012  37.5074997  69.1589988
  59.1970012  37.4404997  67.7099988  60.0760012  37.0604997  67.1479988
  58.2870012  36.8074997  67.6279988  58.7320012  38.8434997  67.2209988
  57.9780012  39.1874997  67.9609988  58.1940012  38.8404997  65.7729988
  57.3260012  38.1474997  65.7639988  57.8830012  39.8434997  65.4089988
  59.1800012  38.1564997  64.9649988  60.0910012  39.0034997  63.9249988
  59.9710012  40.5344997  64.4839988  60.3380012  41.5504997  63.6479988
  60.5660012  42.4364997  64.2789988  61.2200012  41.2174997  63.0599988
  59.2540012  41.9044997  62.5239988  59.7040012  42.6174997  61.8499988
  59.1190012  41.0004997  61.9479988  57.9550012  42.5554997  62.9199988
  57.0060012  41.6484997  63.6929988  56.8700012  40.8244997  63.0089988
  57.5210012  41.4144997  64.6139988  56.1210012  42.2524997  63.8269988
  58.1990012  43.7604997  63.7949988  57.3060012  44.3614997  63.8829988
  58.5820012  43.3224997  64.7049988  58.9750012  44.2554997  63.2299988
  57.3370012  43.0204997  61.6589988  57.1300012  42.2594997  60.9199988
  58.0280012  43.6804997  61.1549988  56.4720012  43.6354997  61.8579988
  61.4540012  38.4854997  63.9739988  59.4070012  38.9894997  62.5939988
  59.8250012  39.8094997  67.3649988  59.4000012  41.0544997  67.5829988
  58.2660012  41.4504997  67.6349988  60.5500012  41.8854997  67.5309988
  61.1500012  41.7984997  66.5999988  61.2330012  41.5764997  68.3509988
  60.1640012  43.3794997  67.7579988  59.3250012  43.4634997  68.4819988
  59.8060012  43.7084997  66.7589988  61.2610012  44.3444997  68.2319988
  61.4270012  45.1334997  67.4679988  62.2210012  43.7854997  68.2709988
  60.8780012  44.9724997  69.5159988  59.8870012  45.4434997  69.3439988
  61.6030012  45.7274997  69.8889988  60.8100012  43.9914997  70.7039988
  61.3910012  43.0694997  70.4879988  59.7220012  43.7754997  70.7659988
  61.2080012  44.6104997  72.0729988  62.2280012  45.0104997  71.8919988
  61.1890012  43.8494997  72.8819988  60.3440012  45.9054997  72.3849988
  60.3370012  46.5944997  71.5139988  60.9120012  46.4594997  73.1619988
  58.9570012  45.4864997  72.7739988  58.2260012  45.3334997  71.9659988
  58.5290012  45.2044997  74.0139988  57.4640012  44.9824997  74.1759988
  59.4680012  45.2264997  75.2439988  59.2400012  45.8954997  76.1019988
  60.4680012  45.4994997  74.8439988  59.6180012  43.7504997  75.7869988
  60.4530012  43.6834997  76.5169988  59.8530012  43.0194997  74.9839988
  58.2720012  43.2754997  76.3839988  57.5450012  42.9784997  75.5989988
  57.7600012  44.0044997  77.0469988  58.4480012  42.0144997  77.2319988
  59.1220012  41.2694997  76.7589988  57.5210012  41.4804997  77.5349988
  59.2350012  42.3204997  78.5039988  60.0030012  43.0744997  78.2259988
  59.6850012  41.4224997  78.9789988  58.3570012  42.9344997  79.5779988
  58.1960012  42.0654997  80.2519988  57.3200012  43.1534997  79.2439988
  58.9570012  44.2134997  80.2719988  58.3320012  44.6054997  81.1019988
  59.0440012  45.0244997  79.5169988  60.3140012  43.9574997  81.0319988
  60.1960012  43.2494997  81.8799988  60.6810012  44.9034997  81.4839988
  61.0790012  43.5254997  80.3519988  77.9400012 104.5754997  79.8749988
  78.7670012 105.2044997  80.2699988  77.8950012 103.5894997  80.3849988
  76.9490012 105.0404997  80.0619988  78.0750012 104.4504997  78.3809988
  77.1230012 103.9994997  78.0279988  78.0630012 105.4264997  77.8489988
  79.1420012 103.4504997  77.9429988  80.0500012 103.6374997  78.5549988
  78.9460012 102.4724997  78.4319988  79.4670012 103.2744997  76.4349988
  80.1220012 104.1374997  76.1869988  79.9870012 102.2954997  76.3739988
  78.3530012 103.3504997  75.3739988  77.7190012 102.4804997  75.6499988
  77.7260012 104.2554997  75.5209988  78.8140012 103.1144997  73.9339988
  79.3120012 102.1324997  73.7859988  77.9550012 103.1544997  73.2299988
  79.7830012 104.2984997  73.4949988  79.2850012 105.2734997  73.6859988
  80.6380012 104.2494997  74.2019988  80.2010012 104.3334997  72.0209988
  80.8660012 105.2064997  71.8519988  80.7720012 103.3884997  71.8969988
  79.1260012 104.2464997  70.8349988  78.6870012 103.2344997  70.9719988
  78.3200012 105.0014997  70.9539988  79.8150012 104.3694997  69.4629988
  80.0040012 105.4374997  69.2199988  80.7020012 103.7064997  69.3689988
  78.8780012 103.9614997  68.2859988  77.9430012 104.5464997  68.4179988
  79.4400012 104.2314997  67.3669988  78.4260012 102.4884997  68.3049988
  79.2340012 101.7574997  68.5229988  77.6110012 102.3364997  69.0439988
  77.8890012 102.0194997  66.9169988  78.7200012 101.9164997  66.1869988
  77.4850012 101.0114997  67.1539988  76.8150012 102.8994997  66.3409988
  77.2760012 103.8354997  65.9599988  76.3840012 102.4584997  65.4169988
  75.6410012 103.2024997  67.2919988  75.0130012 102.2994997  67.4529988
  76.0270012 103.5684997  68.2679988  74.6710012 104.3704997  66.9049988
  74.2220012 105.0914997  67.7459988  74.6830012 104.5644997  65.6059988
  74.2440012 105.7084997  64.9629988  73.6620012 105.3724997  64.0779988
  73.4830012 106.2514997  65.5649988  75.4070012 106.5814997  64.4119988
  74.9420012 107.5054997  64.0059988  76.2350012 105.8264997  63.3519988
  76.6040012 104.9084997  63.8559988  75.5430012 105.4064997  62.5909988
  77.2150012 106.6594997  62.7309988  78.5790012 106.0474997  62.1709988
  79.0410012 105.1284997  63.4249988  79.4840012 105.5704997  64.6159988
  78.8910012 106.4674997  64.8969988  79.3790012 104.8484997  65.4529988
  81.0160012 105.9074997  64.6919988  81.2600012 106.6624997  63.9599988
  81.2590012 106.2934997  65.6709988  82.0250012 104.7074997  64.4089988
  81.7940012 103.7144997  65.5149988  81.9670012 104.1834997  66.4729988
  80.8410012 103.2224997  65.3929988  82.4970012 102.9034997  65.3979988
  81.8280012 104.0994997  63.1079988  80.8870012 103.5744997  63.0439988
  81.8310012 104.7914997  62.2779988  82.5740012 103.3324997  62.9619988
  83.4180012 105.2674997  64.5319988  84.1290012 104.4554997  64.5619988
  83.5520012 105.8884997  65.4059988  83.7280012 105.8644997  63.6869988
  78.3740012 105.2514997  60.9449988  79.4830012 107.2444997  62.0379988
  76.2610012 106.9314997  65.4889988  75.8280012 107.8774997  66.3249988
  74.9040012 108.6334997  66.2029988  76.5820012 107.8004997  67.6539988
  77.4610012 108.4644997  67.5099988  77.0180012 106.8074997  67.8969988
  75.8390012 108.4374997  68.7869988  75.3990012 109.4254997  68.5279988
  76.6280012 108.6704997  69.5329988  74.7650012 107.6154997  69.6669988
  73.8700012 107.4584997  69.0279988  74.4350012 108.3734997  70.4089988
  75.2130012 106.3924997  70.4629988  76.1700012 106.4234997  71.0259988
  75.3780012 105.6144997  69.6869988  74.1510012 106.0474997  71.5149988
  73.1380012 105.9654997  71.0679988  74.0840012 106.9174997  72.2029988
  74.4580012 104.7674997  72.2179988  75.1360012 104.1624997  71.5799988
  73.5600012 104.1314997  72.3729988  75.2230012 104.8314997  73.6249988
  76.0220012 105.5954997  73.5159988  75.6160012 103.8104997  73.8149988
  74.3810012 105.1204997  74.8429988  73.6610012 104.3854997  75.2329988
  74.2960012 106.2944997  75.5999988  73.5110012 106.3834997  76.3659988
  75.0910012 107.5674997  75.3089988  74.5160012 108.5174997  75.3059988
  75.7340012 107.4244997  74.4149988  76.2060012 107.5614997  76.4449988
  76.9760012 108.3254997  76.2069988  76.7610012 106.5994997  76.4069988
  75.5530012 107.8034997  77.8579988  74.9650012 106.8994997  78.1259988
  74.8380012 108.6514997  77.8089988  76.4590012 108.1154997  79.0349988
  77.0020012 109.0784997  78.9239988  77.2240012 107.3104997  79.0569988
  75.7290012 108.0634997  80.3539988  75.4050012 107.0114997  80.5059988
  74.8100012 108.6864997  80.4149988  76.6270012 108.3524997  81.4839988
  77.1490012 109.2904997  81.1989988  77.3540012 107.5214997  81.6039988
  75.9490012 108.5844997  82.8099988  75.2130012 109.4004997  82.6449988
  76.6940012 109.0384997  83.4989988  75.1970012 107.3824997  83.3969988
  74.9560012 107.5974997  84.4599988  75.8380012 106.4794997  83.3039988
  74.2540012 107.2494997  82.8259988  54.6220012  43.9774997  81.4589988
  55.4800012  43.2714997  81.4839988  54.2530012  43.8584997  82.4999988
  55.0120012  45.0144997  81.3809988  53.5870012  43.6484997  80.3309988
  52.7810012  44.4044997  80.2129988  54.1560012  43.6594997  79.3769988
  52.9570012  42.1904997  80.4109988  53.8260012  41.5174997  80.5739988
  52.3490012  42.0114997  81.3239988  52.0300012  41.8264997  79.2519988
  51.5290012  40.8644997  79.4889988  51.1680012  42.5244997  79.1879988
  52.6250012  41.7624997  77.8499988  53.2100012  42.6994997  77.7339988
  53.3790012  40.9524997  77.9489988  51.6150012  41.4084997  76.7349988
  51.2410012  40.4164997  77.0679988  50.6400012  41.9394997  76.7439988
  52.1950012  41.1724997  75.3879988  52.6310012  42.1734997  75.1829988
  53.0940012  40.5304997  75.5069988  51.2120012  40.8114997  74.2059988
  51.7740012  40.7584997  73.2499988  50.7990012  39.7854997  74.3099988
  49.9970012  41.7114997  73.9729988  49.3170012  41.6354997  74.8479988
  50.4450012  42.7204997  74.0959988  49.2020012  41.5564997  72.7049988
  49.6920012  40.7904997  72.0649988  48.2390012  41.1134997  73.0369988
  48.9160012  42.8334997  71.8949988  48.0620012  42.7454997  71.1899988
  48.6550012  43.6094997  72.6459988  50.0910012  43.4734997  71.1189988
  51.0190012  43.7084997  71.6809988  50.3840012  42.7594997  70.3189988
  49.8600012  44.6824997  70.2929988  48.8350012  44.5664997  69.8819988
  49.9290012  45.6244997  70.8769988  50.8590012  44.7674997  69.1219988
  51.9080012  44.7814997  69.4879988  50.8020012  43.9104997  68.4169988
  50.6390012  46.0214997  68.2149988  49.8380012  45.8134997  67.4739988
  50.2290012  46.9014997  68.7559988  51.9490012  46.2784997  67.4929988
  52.8940012  46.8354997  68.0179988  51.9090012  45.6624997  66.3559988
  53.2120012  45.7414997  65.6519988  52.9930012  46.1674997  64.6499988
  53.9750012  46.4614997  66.0189988  53.8840012  44.3364997  65.4299988
  54.6980012  44.4504997  64.6829988  52.9570012  43.3354997  64.6929988
  52.7190012  43.7304997  63.6829988  53.5840012  42.4184997  64.6949988
  51.7650012  43.1164997  65.4389988  50.6610012  42.1744997  64.8519988
  50.1640012  43.0304997  63.6069988  49.5130012  44.2694997  64.0119988
  48.5120012  44.2964997  63.5309988  49.4050012  44.4214997  65.1069988
  50.3850012  45.4694997  63.4559988  50.0410012  46.3294997  64.0119988
  51.3730012  45.3564997  63.8779988  50.5960012  45.6874997  61.9789988
  49.3830012  46.2734997  61.3289988  49.2320012  47.1744997  61.9049988
  49.5210012  46.7014997  60.3479988  48.5740012  45.5634997  61.2399988
  51.7190012  46.7554997  61.8339988  52.3970012  46.7094997  62.6739988
  52.1300012  46.6014997  60.8479988  51.2380012  47.7044997  62.0199988
  51.1180012  44.4414997  61.3369988  50.3280012  43.7104997  61.4289988
  51.9620012  44.1614997  61.9499988  51.3550012  44.5874997  60.2939988
  51.2860012  40.9004997  64.4549988  49.6130012  42.0254997  65.8789988
  54.3500012  43.7634997  66.7039988  55.1410012  44.4254997  67.5329988
  55.7410012  45.4684997  67.2969988  54.9930012  43.6754997  68.8069988
  55.1020012  42.5814997  68.6489988  53.9390012  43.9084997  69.0689988
  55.9340012  44.2564997  69.8549988  57.0290012  44.2584997  69.6689988
  56.0680012  43.5644997  70.7139988  55.5730012  45.5584997  70.4379988
  55.1810012  46.2164997  69.6329988  56.4790012  45.9994997  70.9069988
  54.4570012  45.5874997  71.5199988  54.8380012  44.8764997  72.2839988
  53.4220012  45.3704997  71.1789988  54.3730012  46.9754997  72.1279988
  53.7200012  47.4944997  71.3939988  55.3920012  47.4054997  72.2309988
  53.8370012  46.9454997  73.5779988  53.7330012  48.0054997  73.8929988
  54.5330012  46.4054997  74.2549988  52.4680012  46.2444997  73.7179988
  52.2810012  46.1984997  74.8119988  52.3900012  45.1514997  73.5309988
  51.4710012  46.8334997  72.8819988  51.6470012  46.7274997  71.8019988
  50.3980012  47.6594997  73.1719988  49.8620012  48.0634997  72.3009988
  49.9670012  48.2374997  74.5379988  49.4750012  49.2194997  74.3759988
  50.8340012  48.3224997  75.2269988  48.9250012  47.4724997  75.3549988
  47.9550012  47.5004997  74.8149988  48.8860012  48.1154997  76.2599988
  49.3660012  46.0964997  75.8639988  50.4470012  46.1534997  76.1129988
  49.1990012  45.3354997  75.0709988  48.7050012  45.7664997  77.1989988
  47.6300012  46.0494997  77.1899988  49.1840012  46.4624997  77.9199988
  49.0140012  44.3474997  77.6679988  50.1160012  44.2044997  77.6739988
  48.7440012  43.5994997  76.8919988  48.3490012  43.9214997  78.9489988
  48.5810012  42.8564997  79.1669988  47.2640012  43.8514997  78.7179988
  48.6860012  44.7954997  80.2009988  48.4570012  45.8414997  79.9049988
  49.7680012  44.7684997  80.4519988  48.0040012  44.3734997  81.4519988
  48.5820012  44.7364997  82.3279988  48.0450012  43.2664997  81.5369988
  46.9680012  44.7554997  81.5769988  77.2350012  44.4664997  79.6239988
  77.2100012  43.7914997  80.5059988  76.3560012  44.4094997  78.9459988
  77.2150012  45.4394997  80.1599988  78.4660012  44.3944997  78.7709988
  78.2040012  45.0524997  77.9159988  79.3410012  44.7584997  79.3499988
  78.8290012  42.9724997  78.3299988  79.8640012  42.9114997  77.9309988
  78.8160012  42.3244997  79.2329988  77.8990012  42.3174997  77.2759988
  77.8310012  41.2154997  77.4049988  76.9030012  42.7964997  77.3829988
  78.3250012  42.5434997  75.8499988  78.3370012  43.6004997  75.5089988
  79.3290012  42.0824997  75.7289988  77.4090012  41.9664997  74.7449988
  77.9540012  41.9494997  73.7769988  77.2210012  40.9024997  75.0039988
  76.0680012  42.6664997  74.6469988  75.5350012  42.7704997  75.6159988
  76.4290012  43.6544997  74.2869988  75.1450012  42.2244997  73.5079988
  75.8460012  41.9404997  72.6949988  74.6070012  41.3434997  73.9209988
  74.2310012  43.3524997  72.9839988  73.4470012  43.5894997  73.7349988
  74.8730012  44.2104997  72.6909988  73.5170012  42.9114997  71.6879988
  72.9490012  43.7574997  71.2459988  74.3000012  42.4504997  71.0479988
  72.4490012  41.8164997  71.9929988  72.8260012  40.8564997  72.4049988
  71.7290012  42.2484997  72.7209988  71.5350012  41.4624997  70.7639988
  70.5740012  41.0694997  71.1599988  71.3250012  42.4404997  70.2819988
  72.0150012  40.3174997  69.8129988  72.2880012  39.4264997  70.4179988
  71.1070012  39.9804997  69.2679988  73.0900012  40.7084997  68.7899988
  74.0750012  41.0204997  69.1979988  73.2690012  39.6954997  68.3689988
  72.6370012  41.7564997  67.7749988  72.8440012  41.3034997  66.7809988
  71.5410012  41.9324997  67.8149988  73.3040012  43.1244997  67.7669988
  73.8100012  43.6254997  68.7479988  73.5620012  43.4624997  66.5069988
  74.1610012  44.7034997  66.2979988  73.5640012  45.2304997  65.5239988
  74.3760012  45.3154997  67.1999988  75.5370012  44.5394997  65.6519988
  76.0010012  45.5474997  65.5919988  75.5160012  43.8654997  64.2479988
  74.7530012  43.0704997  64.3909988  75.3120012  44.6444997  63.4839988
  76.7110012  43.1494997  63.8779988  76.6470012  42.2324997  62.5249988
  76.2780012  40.7874997  63.0849988  76.9560012  40.1234997  64.1609988
  77.8040012  39.5064997  63.7949988  77.2920012  40.8424997  64.9389988
  75.9620012  39.2124997  64.9629988  76.4680012  38.6914997  65.7619988
  75.2720012  39.8054997  65.5439988  75.1360012  38.1554997  64.2079988
  74.3750012  37.2234997  65.1009988  73.5340012  37.7804997  65.4869988
  74.0190012  36.4304997  64.4609988  74.9350012  36.8044997  65.9239988
  74.1070012  38.8194997  63.3149988  73.5610012  38.0604997  62.7759988
  73.4960012  39.4564997  63.9379988  74.6470012  39.4074997  62.5869988
  76.0060012  37.3204997  63.2229988  76.6650012  36.7494997  63.8599988
  76.5590012  37.9204997  62.5149988  75.4080012  36.5664997  62.7319988
  75.6130012  42.8024997  61.6889988  78.0330012  42.2104997  62.0329988
  76.4110012  43.7844997  66.5059988  77.1720012  44.3064997  67.4899988
  77.1690012  45.5004997  67.8139988  77.9970012  43.1824997  68.0839988
  79.0130012  43.2464997  67.6389988  77.4950012  42.2404997  67.7749988
  77.9220012  43.4104997  69.6079988  76.9600012  43.8304997  69.9729988
  78.7290012  44.1114997  69.9119988  78.0760012  42.0634997  70.3839988
  77.3380012  41.3414997  69.9729988  77.6240012  42.1394997  71.3969988
  79.4780012  41.4754997  70.2009988  80.0300012  42.0754997  70.9559988
  80.0340012  41.5484997  69.2419988  79.5000012  40.0224997  70.6939988
  78.9130012  39.8034997  71.6119988  80.4730012  39.7694997  71.1669988
  78.9610012  38.9924997  69.6819988  79.7950012  38.3214997  69.3859988
  78.6750012  39.4524997  68.7119988  77.8310012  38.1264997  70.2579988
  78.1750012  37.7964997  71.2609988  77.8630012  37.1824997  69.6729988
  76.3880012  38.5854997  70.2189988  76.0480012  38.7524997  69.1859988
  75.5540012  38.7934997  71.2289988  74.5740012  39.2704997  71.0799988
  75.9260012  38.6274997  72.6699988  76.4210012  39.5764997  72.9699988
  76.6530012  37.8054997  72.8409988  74.7520012  38.3464997  73.5749988
  74.3080012  37.3514997  73.3539988  73.9770012  39.1394997  73.6379988
  75.1820012  38.3244997  75.0569988  75.6930012  39.2524997  75.3919988
  75.9370012  37.5154997  75.1539988  73.9610012  38.1664997  76.0069988
  73.3370012  37.2724997  75.7949988  73.4070012  39.1224997  75.8959988
  74.3490012  37.9094997  77.5189988  75.0020012  37.0164997  77.4219988
  73.3720012  37.5714997  77.9269988  74.9730012  39.0724997  78.3039988
  74.1910012  39.8504997  78.4339988  75.7440012  39.4784997  77.6149988
  75.5980012  38.6534997  79.6269988  76.0420012  39.5454997  80.1179988
  76.4720012  38.0334997  79.3349988  74.7750012  37.7164997  80.5869988
  75.2610012  37.7334997  81.5869988  74.6520012  36.6924997  80.1739988
  73.7880012  38.1854997  80.7869988  97.2440012  41.5774997  80.7609988
  98.1930012  41.5774997  81.3389988  96.7210012  40.5964997  80.7609988
  96.6370012  42.3644997  81.2559988  97.5640012  41.9494997  79.3019988
  98.1330012  41.1004997  78.8669988  96.6310012  42.0994997  78.7179988
  98.5140012  43.1954997  79.3409988  98.1150012  44.0234997  79.9649988
  99.4730012  42.8634997  79.7949988  98.6470012  43.7444997  77.8909988
  99.1580012  42.8784997  77.4189988  97.6500012  43.8484997  77.4139988
  99.5430012  44.9904997  77.6509988  99.0430012  45.6334997  76.8959988
  99.7040012  45.5814997  78.5769988 100.9080012  44.6064997  77.0709988
 101.5150012  45.5304997  77.1799988 101.4270012  43.8184997  77.6579988
 100.9680012  44.1914997  75.6129988 102.0670012  44.2314997  75.4509988
 100.6970012  43.1174997  75.5279988 100.3900012  45.1424997  74.6589988
  99.2790012  45.1144997  74.6809988 100.7270012  46.1414997  75.0059988
 100.8120012  44.9574997  73.2529988 101.9070012  45.1384997  73.1999988
 100.4700012  43.9854997  72.8389988 100.1280012  46.1414997  72.4189988
  99.0780012  46.2974997  72.7449988 100.7320012  47.0534997  72.6129988
 100.0850012  45.9084997  70.8869988  99.4470012  44.9994997  70.8819988
  99.4740012  46.7194997  70.4359988 101.3990012  45.6214997  70.0859988
 101.9910012  46.5604997  70.0429988 102.0750012  44.9134997  70.6099988
 101.2710012  45.0394997  68.5839988 100.4610012  44.2824997  68.6469988
 100.9010012  45.9314997  68.0349988 102.4910012  44.2254997  68.0729988
 102.8390012  43.4454997  68.7839988 102.2240012  43.6924997  67.1359988
 103.8680012  44.8594997  67.6829988 103.7640012  45.6504997  66.9109988
 104.4670012  45.2834997  68.5179988 104.6620012  43.6524997  67.0659988
 104.8490012  42.6044997  67.6259988 104.9590012  44.0084997  65.8089988
 105.7070012  43.1174997  65.0339988 106.3980012  43.7094997  64.3969988
 106.4460012  42.4534997  65.5309988 104.8580012  42.3464997  63.9909988
 105.4960012  41.6744997  63.3779988 104.0230012  43.3044997  63.1639988
 103.3020012  43.8604997  63.8009988 104.7170012  44.0724997  62.7599988
 103.4510012  42.6734997  62.0229988 101.8150012  42.6234997  61.9769988
 101.4930012  42.3234997  63.5399988 100.1870012  42.0624997  63.9569988
  99.5060012  42.0044997  63.0799988 100.2250012  41.0434997  64.3989988
  99.7600012  43.0694997  65.0879988  98.7450012  42.7984997  65.3419988
 100.2810012  42.9094997  66.0199988  99.7200012  44.5294997  64.7489988
 101.0810012  45.1324997  64.5969988 101.6670012  44.8924997  65.4719988
 101.5260012  44.7854997  63.6759988 100.9640012  46.2034997  64.5199988
  98.8710012  44.7994997  63.5109988  99.2210012  44.2734997  62.6359988
  97.8580012  44.5094997  63.7499988  98.8650012  45.8624997  63.3179988
  98.9630012  45.2184997  65.9099988  97.8990012  45.1164997  65.7569988
  99.1640012  46.2794997  65.9359988  99.3060012  44.7594997  66.8259988
 101.3710012  43.9824997  61.6219988 101.3240012  41.4334997  61.2069988
 103.8330012  41.4734997  64.6379988 104.3430012  40.3944997  65.3109988
 105.4550012  40.1224997  65.5799988 103.0740012  39.6764997  65.8609988
 103.2780012  38.5944997  66.0089988 102.2070012  39.7904997  65.1759988
 102.4850012  40.3484997  67.1619988 101.4700012  39.9024997  67.2349988
 102.6140012  41.4514997  67.1139988 103.3730012  39.8074997  68.3729988
 104.4270012  40.1084997  68.1879988 103.2640012  38.7014997  68.3469988
 102.8140012  40.3264997  69.7859988 101.8210012  39.8434997  69.9089988
 102.8100012  41.4374997  69.7979988 103.4810012  39.8274997  71.0289988
 104.5910012  39.8524997  71.0479988 103.1960012  38.7554997  71.0889988
 103.0730012  40.6094997  72.3349988 103.8080012  40.2744997  73.0969988
 102.0580012  40.4354997  72.7519988 103.1420012  42.1864997  72.2029988
 102.9490012  42.6434997  73.1969988 102.2340012  42.4604997  71.6239988
 104.4850012  42.6404997  71.7139988 104.6000012  42.5634997  70.6229988
 105.5160012  43.1734997  72.3649988 106.3280012  43.6704997  71.8129988
 105.4730012  43.3764997  73.8739988 106.5040012  43.1014997  74.1839988
 104.7960012  42.7194997  74.4609988 105.3080012  44.8024997  74.2919988
 104.3150012  45.2574997  74.0899988 106.0120012  45.3914997  73.6679988
 105.7840012  45.0374997  75.7269988 105.9350012  46.1264997  75.8899988
 106.7340012  44.5084997  75.9539988 104.7580012  44.5134997  76.8159988
 104.3620012  43.5024997  76.5799988 103.9270012  45.2474997  76.8769988
 105.4150012  44.3374997  78.2329988 106.0490012  45.2134997  78.4889988
 106.1080012  43.4684997  78.2599988 104.4190012  44.2024997  79.4409988
 103.6860012  43.4104997  79.1749988 103.7180012  45.0644997  79.4509988
 104.9630012  43.8844997  80.8149988 105.6590012  44.7124997  81.0709988
 105.4670012  42.8974997  80.7419988 103.8430012  43.9464997  81.8819988
 102.7980012  43.8554997  81.5179988 104.0350012  44.8824997  82.4489988
 103.8350012  43.0304997  82.5109988  43.9840012  99.0234997  81.0699988
  44.4290012  98.9704997  82.0869988  44.2770012  98.1784997  80.4109988
  42.8770012  99.0024997  81.1519988  44.4160012 100.3074997  80.4229988
  43.6010012 101.0554997  80.5229988  45.2640012 100.7494997  80.9889988
  44.8540012 100.2804997  78.9349988  45.4780012 101.1894997  78.8009988
  45.5840012  99.4594997  78.7669988  43.6680012 100.4344997  77.9589988
  42.8230012 101.0644997  78.3109988  43.9900012 100.8134997  76.9659988
  42.8690012  99.1324997  77.7779988  42.6320012  98.7094997  78.7769988
  41.8920012  99.3754997  77.3069988  43.5260012  98.1144997  76.8909988
  43.6660012  98.5524997  75.8789988  44.5220012  97.8214997  77.2859988
  42.6790012  96.8794997  76.8119988  42.7080012  96.3814997  77.8049988
  41.6820012  97.2004997  76.4399988  43.2240012  95.9254997  75.7659988
  43.2110012  96.4484997  74.7859988  44.2290012  95.5894997  76.1009988
  42.3850012  94.6914997  75.4369988  42.1570012  94.0604997  76.3219988
  41.3890012  95.0584997  75.1079988  42.9850012  93.7104997  74.4309988
  43.7970012  93.2344997  75.0209988  42.2930012  92.8554997  74.2749988
  43.5790012  94.1664997  73.0779988  44.3230012  94.9624997  73.2979988
  44.0530012  93.2974997  72.5739988  42.6240012  94.9044997  72.1339988
  41.8720012  94.2004997  71.7169988  42.0520012  95.6674997  72.7039988
  43.3650012  95.7894997  70.9849988  44.1350012  96.3444997  71.5629988
  43.7420012  95.1664997  70.1449988  42.4150012  96.8514997  70.2759988
  41.8880012  97.4554997  71.0459988  42.9910012  97.6494997  69.7609988
  41.4130012  96.3024997  69.1949988  41.9790012  95.8384997  68.3599988
  40.9540012  95.4864997  69.7929988  40.3380012  97.3854997  68.9409988
  39.1650012  97.3054997  69.3329988  40.8660012  98.4194997  68.3489988
  39.9840012  99.4214997  67.8709988  39.0710012  98.9584997  67.4379988
  39.5560012 100.0744997  68.6619988  40.7160012 100.4194997  66.9109988
  40.0890012 101.3214997  66.7429988  40.9700012  99.8034997  65.5099988
  41.4640012  98.8214997  65.6749988  39.9450012  99.6494997  65.1099988
  41.6860012 100.5664997  64.5529988  43.1490012 100.1294997  63.9369988
  42.9630012  98.7254997  63.1609988  41.8060012  98.3034997  62.4309988
  40.9700012  99.0324997  62.4959988  42.0140012  98.2224997  61.3429988
  41.3180012  96.9634997  62.8509988  40.6860012  97.1714997  63.7019988
  40.6940012  96.5784997  62.0579988  42.4030012  95.9364997  63.2689988
  43.5820012  95.9744997  62.2939988  43.1200012  95.8484997  61.3259988
  44.0510012  96.9424997  62.3929988  44.3480012  95.2414997  62.4999988
  42.7480012  96.2154997  64.6309988  43.2230012  97.1844997  64.6029988
  41.9280012  96.1934997  65.3339988  43.5100012  95.5144997  64.9409988
  41.6470012  94.4884997  63.0579988  40.9750012  94.1984997  63.8529988
  42.3700012  93.7114997  62.8549988  41.0430012  94.6084997  62.1709988
  43.5750012 101.1364997  62.9169988  44.0730012  99.9344997  65.0789988
  41.8520012 100.8924997  67.5799988  41.7220012 101.6994997  68.6649988
  40.7660012 102.3904997  68.9799988  43.1390012 101.6994997  69.2569988
  43.3910012 102.5674997  69.9039988  43.8970012 101.5164997  68.4649988
  43.2090012 100.4744997  70.2469988  44.3050012 100.4384997  70.4259988
  42.8120012  99.6224997  69.6549988  42.5650012 100.6364997  71.6329988
  42.5650012 101.7354997  71.7969988  43.1230012  99.9994997  72.3509988
  41.0840012 100.2074997  71.6039988  41.1080012  99.1224997  71.8429988
  40.5780012 100.2154997  70.6149988  40.2700012 100.9994997  72.5869988
  39.1990012 100.8054997  72.3649988  40.4480012 102.0874997  72.4499988
  40.6710012 100.5444997  74.0179988  40.0750012 101.1094997  74.7669988
  41.7230012 100.8724997  74.1529988  40.4630012  99.0624997  74.3999988
  40.8000012  99.0974997  75.4579988  41.2130012  98.3764997  73.9499988
  39.1020012  98.5134997  74.2099988  38.9090012  98.2284997  73.1649988
  38.2610012  98.0434997  75.1749988  37.2910012  97.5834997  74.9329988
  38.6050012  97.9854997  76.6209988  39.6420012  97.6154997  76.7679988
  37.8730012  97.3834997  77.2009988  38.6020012  99.3464997  77.2149988
  37.6750012  99.9394997  77.0569988  39.4040012 100.0174997  76.8389988
  38.7740012  99.2994997  78.7339988  39.6340012  98.6834997  79.0729988
  37.8420012  98.8324997  79.1159988  38.8690012 100.7734997  79.3599988
  38.2800012 101.4924997  78.7519988  39.9130012 101.1474997  79.4249988
  38.2620012 100.8414997  80.7769988  37.1830012 100.6114997  80.6439988
  38.2680012 101.8434997  81.2579988  38.9280012  99.8134997  81.7419988
  40.0190012  99.9924997  81.8469988  38.7950012  98.8244997  81.2529988
  38.3990012  99.7654997  83.1909988  38.7670012  98.7794997  83.5499988
  37.3000012  99.6084997  83.1499988  38.9470012 100.8364997  84.1799988
  40.0550012 100.9124997  84.2209988  38.5660012 100.6194997  85.2009988
  38.5050012 101.8194997  83.9109988  26.6900012  75.2684997  81.4319988
  26.4070012  75.5134997  82.4779988  26.1520012  74.3694997  81.0609988
  26.5070012  76.0924997  80.7099988  28.1870012  75.0764997  81.3439988
  28.5900012  74.4064997  82.1329988  28.3450012  74.5194997  80.3959988
  29.0550012  76.3494997  81.6609988  28.6440012  77.2754997  81.2059988
  29.1280012  76.5064997  82.7579988  30.4850012  76.1814997  81.1949988
  31.0290012  77.0764997  81.5659988  31.0250012  75.2574997  81.4939988
  30.5820012  76.2814997  79.7099988  29.9200012  75.4924997  79.2929988
  30.0890012  77.1914997  79.3049988  32.0280012  76.1984997  79.1099988
  32.3910012  77.2284997  79.3169988  32.6370012  75.5114997  79.7349988
  32.0660012  75.9154997  77.5929988  32.0550012  74.8044997  77.5789988
  31.1470012  76.3204997  77.1179988  33.3590012  76.3294997  76.9029988
  34.1760012  75.8784997  77.5049988  33.2910012  75.9974997  75.8449988
  33.7170012  77.8324997  76.8389988  33.7920012  78.1694997  77.8949988
  34.7280012  77.8894997  76.3819988  32.7780012  78.7724997  76.1179988
  31.7600012  78.7554997  76.5629988  33.0690012  79.8154997  76.3659988
  32.5510012  78.6764997  74.5789988  32.5890012  77.6214997  74.2339988
  31.5870012  79.1824997  74.3569988  33.6740012  79.4134997  73.8179988
  33.5020012  80.5094997  73.8559988  34.5770012  79.2854997  74.4519988
  33.6380012  78.9594997  72.3929988  34.4930012  79.4124997  71.8469988
  33.8940012  77.8814997  72.3109988  32.3680012  79.2434997  71.6299988
  31.6020012  78.4674997  71.8429988  31.9430012  80.1894997  72.0279988
  32.5610012  79.6894997  70.1039988  31.7760012  80.4044997  69.7759988
  33.6110012  80.0424997  70.0189988  32.5520012  78.3464997  69.2459988
  32.6700012  77.2864997  69.7419988  32.1800012  78.6674997  68.0129988
  32.0230012  77.6524997  66.9749988  31.9350012  78.1324997  65.9759988
  32.9660012  77.0694997  66.9149988  30.7790012  76.7024997  67.2669988
  31.0290012  76.1944997  68.2229988  30.6770012  75.6094997  66.2109988
  31.4150012  75.8174997  65.4059988  30.9960012  74.6664997  66.7039988
  29.4720012  75.5174997  65.5229988  29.0360012  76.4814997  64.2839988
  30.2420012  77.4764997  64.1589988  29.8040012  78.6834997  63.5309988
  29.3000012  78.5244997  62.5539988  29.0870012  79.3294997  64.0809988
  30.9120012  79.7254997  63.1439988  30.5230012  80.3604997  62.3619988
  31.0660012  80.3394997  64.0189988  32.2560012  79.1294997  62.6009988
  32.0760012  78.4584997  61.2259988  31.5550012  79.1164997  60.5459988
  33.0180012  78.1504997  60.7949988  31.4540012  77.5824997  61.3349988
  33.1480012  80.3824997  62.3289988  32.5570012  81.1184997  61.8039988
  33.4300012  80.7214997  63.3139988  33.9320012  80.1864997  61.6129988
  33.0000012  78.2054997  63.5649988  32.2380012  77.5714997  63.9929988
  33.3570012  78.8974997  64.3129988  33.8530012  77.7064997  63.1279988
  28.9860012  75.6484997  63.0859988  27.7990012  77.2344997  64.7339988
  29.6950012  77.6214997  67.4389988  28.6960012  77.0054997  68.0959988
  28.6750012  75.9054997  68.6789988  27.5200012  77.9414997  67.9419988
  26.6560012  77.6614997  67.3029988  27.7870012  78.8804997  67.4119988
  26.9280012  78.3124997  69.3269988  26.9230012  77.4534997  70.0309988
  25.8640012  78.5584997  69.1189988  27.5150012  79.5604997  70.0279988
  27.3610012  80.4894997  69.4389988  28.6090012  79.3684997  70.0039988
  26.9150012  79.6694997  71.4379988  25.9570012  79.1074997  71.4429988
  26.7970012  80.7444997  71.6909988  27.8870012  79.1794997  72.5849988
  28.7600012  79.8564997  72.4659988  28.1830012  78.1364997  72.3449988
  27.4290012  79.2954997  73.9759988  26.6460012  78.5224997  74.1309988
  26.8280012  80.2164997  74.1389988  28.3900012  79.3624997  75.1079988
  29.0640012  78.4824997  75.0359988  27.8420012  79.4154997  76.0729988
  29.3040012  80.6034997  75.1359988  29.7430012  80.8934997  74.1699988
  29.5180012  81.5444997  76.0849988  30.2130012  82.3794997  75.9129988
  28.8770012  81.6094997  77.3729988  27.7680012  81.6754997  77.3359988
  28.9580012  82.6624997  77.7189988  29.3380012  80.5354997  78.4489988
  29.1530012  79.4884997  78.1239988  28.6070012  80.7034997  79.2679988
  30.7310012  80.8604997  78.8859988  30.6960012  81.8904997  79.2989988
  31.4400012  80.8274997  78.0309988  31.2410012  79.9694997  80.0319988
  32.3340012  80.1144997  80.1649988  31.0710012  78.8914997  79.8239988
  30.6320012  80.2824997  81.4169988  31.1080012  79.6094997  82.1609988
  29.5250012  80.1974997  81.3659988  31.0300012  81.7114997  81.8249988
  30.2950012  82.3944997  81.3479988  32.0130012  81.9524997  81.3659988
  30.9040012  82.1654997  83.2479988  31.3070012  83.1754997  83.4769988
  31.5790012  81.5464997  83.8759988  29.4710012  81.9434997  83.8029988
  29.3850012  82.4404997  84.7929988  29.1670012  80.8864997  83.9589988
  28.7810012  82.4344997  83.0839988 107.9290012  49.1334997  83.7029988
 107.3920012  48.6054997  82.8859988 108.0250012  48.5324997  84.6319988
 108.9710012  49.3244997  83.3709988 107.1360012  50.4344997  83.9409988
 106.1260012  49.9934997  84.0829988 107.5440012  50.8244997  84.8979988
 106.9350012  51.4614997  82.7449988 106.6080012  50.8534997  81.8739988
 106.1270012  52.1584997  83.0549988 108.2090012  52.2164997  82.4779988
 108.3740012  52.9194997  83.3229988 109.0680012  51.5134997  82.4299988
 108.1990012  53.0894997  81.2029988 107.5170012  53.9264997  81.4649988
 109.1970012  53.5344997  81.0049988 107.6260012  52.4064997  79.9929988
 107.4310012  51.3184997  80.1099988 106.6120012  52.8454997  79.8809988
 108.5560012  52.7124997  78.7679988 108.6140012  53.8214997  78.7369988
 109.6090012  52.3924997  78.9169988 108.1710012  52.2324997  77.3829988
 107.9550012  51.1434997  77.4109988 107.2540012  52.7844997  77.0839988
 109.3130012  52.3674997  76.3559988 109.7340012  53.3924997  76.4399988
 110.1520012  51.7564997  76.7539988 109.1510012  52.1394997  74.8169988
 108.7900012  51.1074997  74.6229988 108.2600012  52.7184997  74.4939988
 110.3950012  52.2674997  73.9359988 110.8950012  53.2534997  74.0489988
 111.0830012  51.5014997  74.3539988 110.0660012  51.9084997  72.4369988
 109.3660012  51.0504997  72.5289988 109.4000012  52.6364997  71.9269988
 111.3970012  51.6154997  71.7039988 111.9450012  52.5794997  71.6429988
 111.8950012  50.8584997  72.3469988 111.2640012  51.0944997  70.2749988
 110.8180012  50.0774997  70.2569988 110.5550012  51.7164997  69.6889988
 112.5320012  51.3014997  69.4529988 112.5290012  52.3834997  69.2009988
 113.4210012  51.2714997  70.1189988 112.5380012  50.3474997  68.2679988
 113.1760012  49.2734997  68.2659988 111.9690012  50.9044997  67.2619988
 111.8590012  50.0954997  66.0749988 111.4100012  50.7504997  65.2979988
 112.8410012  49.8394997  65.6209988 110.9630012  48.7904997  66.2679988
 111.6210012  47.9824997  66.6539988 110.4690012  48.1874997  64.8679988
 111.3920012  47.7334997  64.4479988 109.8290012  47.3724997  65.2689988
 109.7770012  49.0274997  63.9559988 109.3640012  48.6094997  62.5229988
 108.0510012  49.5154997  62.3029988 107.6420012  50.5984997  63.0399988
 108.5150012  51.2464997  63.2669988 106.9870012  51.1414997  62.3249988
 106.9520012  50.3354997  64.4429988 107.7160012  49.8424997  65.0249988
 106.6580012  51.3114997  64.8019988 105.6730012  49.5094997  64.4459988
 105.9240012  48.1634997  63.9889988 106.7460012  47.7394997  64.5479988
 105.0540012  47.5274997  64.0549988 106.1670012  48.0864997  62.9389988
 105.1860012  49.4194997  65.8139988 104.4670012  48.6164997  65.8819988
 105.9160012  49.0464997  66.5169988 104.9570012  50.4014997  66.1989988
 104.6610012  50.1284997  63.5239988 104.5560012  51.1524997  63.8509988
 103.7250012  49.5904997  63.5369988 105.1570012  50.1074997  62.5659988
 110.4120012  49.1334997  61.6049988 109.0690012  47.1594997  62.5379988
 109.8540012  49.0704997  67.1739988 109.4540012  47.9534997  67.8239988
 110.0520012  46.8494997  67.8799988 108.1640012  48.2584997  68.6049988
 107.3590012  48.3114997  67.8419988 108.1670012  49.2924997  69.0129988
 107.9970012  47.2254997  69.6339988 108.9160012  47.0704997  70.2379988
 107.6010012  46.3914997  69.0149988 107.0390012  47.5254997  70.8299988
 106.1350012  46.8964997  70.6859988 106.9080012  48.6284997  70.7949988
 107.5540012  47.1084997  72.2769988 107.5390012  45.9994997  72.2129988
 106.8810012  47.5194997  73.0589988 109.0310012  47.4204997  72.7229988
 109.3020012  48.4984997  72.7189988 109.6990012  46.8054997  72.0829988
 109.1130012  46.8344997  74.1629988 108.5900012  45.8654997  74.0199988
 108.5450012  47.3964997  74.9339988 110.5730012  46.4444997  74.6659988
 111.0640012  45.7014997  74.0009988 110.4450012  45.8254997  75.5789988
 111.6570012  47.4954997  74.9859988 112.3820012  47.6804997  74.1789988
 111.7320012  48.3654997  76.0059988 112.5950012  49.0404997  76.1009988
 110.6600012  48.5034997  77.1259988 109.7880012  47.8584997  76.8829988
 110.1710012  49.4994997  77.0699988 111.1410012  48.4514997  78.5719988
 112.0410012  49.1024997  78.5409988 111.4470012  47.4224997  78.8559988
 110.0960012  49.1314997  79.5839988 109.7400012  50.1184997  79.2209988
 110.6860012  49.3004997  80.5089988 108.8640012  48.2284997  79.8079988
 108.2450012  48.1914997  78.8869988 108.2000012  48.7374997  80.5389988
 109.1560012  46.8534997  80.2969988 109.8920012  46.3674997  79.6219988
 108.2040012  46.2814997  80.3199988 109.7070012  46.7424997  81.7499988
 109.0030012  47.2984997  82.4059988 110.7780012  47.0234997  81.8459988
 109.7210012  45.2684997  82.3029988 108.7250012  44.8134997  82.4859988
 110.2300012  45.3944997  83.2829988 110.5840012  44.2684997  81.4459988
 111.6380012  44.6154997  81.3929988 110.1450012  44.1864997  80.4289988
 110.6440012  43.2714997  81.9319988  31.0870012  74.1554997  80.2119988
  31.3010012  74.3584997  81.2829988  30.0880012  74.6414997  80.1769988
  31.7750012  74.6034997  79.4629988  30.9370012  72.6304997  79.8599988
  31.9450012  72.1654997  79.8869988  30.1750012  72.3214997  80.6069988
  30.3890012  72.2184997  78.5189988  29.3960012  72.6634997  78.2949988
  31.0260012  72.6644997  77.7259988  30.3760012  70.6804997  78.3719988
  31.3260012  70.1544997  78.6079988  29.5730012  70.2314997  78.9949988
  30.0380012  70.3214997  76.9319988  29.7450012  69.2514997  76.8849988
  29.1080012  70.7954997  76.5509988  31.2310012  70.6104997  75.9289988
  31.3200012  71.6954997  75.7099988  32.1870012  70.3104997  76.4079988
  31.1240012  69.9924997  74.4779988  31.1610012  68.8834997  74.5219988
  30.1030012  70.2404997  74.1149988  32.0370012  70.5634997  73.3679988
  31.9360012  71.6464997  73.1429988  33.1020012  70.3544997  73.6049988
  31.6980012  70.0064997  71.9809988  31.6890012  68.8954997  71.9869988
  30.6800012  70.3494997  71.6979988  32.7600012  70.4214997  70.9589988
  33.7120012  69.9314997  71.2559988  32.6560012  70.0364997  69.9229988
  33.0500012  71.9504997  70.7089988  32.0330012  72.3174997  70.4509988
  33.4050012  72.4624997  71.6279988  33.9430012  72.2804997  69.4849988
  34.7850012  71.5894997  69.2699988  33.2220012  72.2974997  68.6399988
  34.6040012  73.6744997  69.4169988  33.8000012  74.4384997  69.3469988
  35.1260012  73.9524997  70.3579988  35.5660012  74.0724997  68.2259988
  35.0500012  73.9704997  67.2479988  35.6700012  75.1444997  68.4989988
  37.0460012  73.5284997  68.3059988  37.7190012  74.3034997  67.8809988
  37.3610012  73.3664997  69.3589988  37.1760012  72.2734997  67.4929988
  37.5380012  71.2064997  67.9889988  36.8080012  72.4754997  66.2289988
  36.7660012  71.5444997  65.1779988  36.6530012  72.0044997  64.1729988
  37.7440012  71.0174997  65.1749988  35.5170012  70.5324997  65.2769988
  35.5830012  69.7384997  64.5039988  34.2200012  71.2544997  64.9809988
  33.8440012  71.5514997  65.9829988  34.4630012  72.1404997  64.3549988
  33.2730012  70.4094997  64.2169988  32.9580012  70.7394997  62.6369988
  31.5710012  69.9304997  62.4519988  30.4510012  70.2844997  63.1859988
  30.7230012  70.8474997  64.1049988  29.8400012  71.0494997  62.6609988
  29.5060012  69.0494997  63.4629988  28.5780012  69.3574997  63.9199988
  29.1840012  68.7204997  62.4859988  30.1020012  67.8634997  64.2619988
  31.0210012  67.0764997  63.3809988  31.4780012  66.2794997  63.9489988
  30.3600012  66.6004997  62.6709988  31.6900012  67.7614997  62.8819988
  30.8350012  68.3364997  65.4829988  31.6390012  68.9634997  65.1259988
  30.2880012  69.0654997  66.0629988  31.3480012  67.5694997  66.0439988
  28.9760012  66.9754997  64.7399988  28.3260012  66.5284997  64.0019988
  28.4110012  67.5484997  65.4599988  29.4510012  66.1264997  65.2079988
  32.7430012  72.1754997  62.4689988  34.0810012  70.1704997  61.8909988
  35.4740012  69.9244997  66.5869988  34.9200012  68.7114997  66.6139988
  34.3930012  68.1204997  65.6769988  35.0000012  68.1874997  68.0739988
  34.3020012  68.8164997  68.6659988  36.0400012  68.2184997  68.4629988
  34.4470012  66.7384997  68.1989988  34.8670012  66.1204997  67.3769988
  33.3540012  66.8044997  68.0119988  34.6050012  66.0044997  69.5759988
  35.6710012  65.9374997  69.8829988  34.2060012  65.0024997  69.3079988
  33.7720012  66.5594997  70.7739988  32.7060012  66.2774997  70.6389988
  33.9110012  67.6614997  70.7369988  34.2920012  66.0854997  72.1879988
  35.3770012  66.3124997  72.2679988  34.2160012  64.9764997  72.1969988
  33.4220012  66.6084997  73.2889988  32.3780012  66.2594997  73.1379988
  33.3350012  67.7154997  73.2449988  33.8960012  66.1534997  74.6999988
  34.8940012  66.6044997  74.8849988  34.1040012  65.0684997  74.5849988
  32.9280012  66.4164997  75.7789988  31.9800012  65.9284997  75.5109988
  33.0930012  67.1584997  76.9569988  32.3180012  67.3414997  77.7159988
  34.2910012  67.9154997  77.3249988  33.9680012  68.9784997  77.3519988
  35.0600012  67.9494997  76.5239988  35.1520012  67.5894997  78.6279988
  35.6210012  66.5894997  78.5089988  34.5510012  67.5674997  79.5619988
  36.2890012  68.6034997  78.8649988  36.9620012  68.7614997  77.9949988
  36.8790012  68.1354997  79.6809988  35.8110012  69.8924997  79.5229988
  35.0100012  69.6384997  80.2499988  35.4050012  70.6184997  78.7859988
  36.9040012  70.6584997  80.1929988  37.5590012  71.0744997  79.3979988
  37.5400012  70.0144997  80.8369988  36.4820012  71.7774997  81.1399988
  35.7990012  72.5434997  80.7129988  37.3770012  72.3984997  81.3599988
  35.9040012  71.3104997  82.4869988  36.6390012  70.6284997  82.9669988
  35.0900012  70.5744997  82.3149988  35.4960012  72.3574997  83.4929988
  34.5570012  72.8464997  83.1569988  36.3040012  73.1104997  83.6169988
  35.3860012  71.8284997  84.4639988  40.6570012  50.7944997  79.8719988
  40.0730012  51.1534997  78.9979988  41.3470012  51.6204997  80.1449988
  40.0960012  50.6124997  80.8129988  41.5270012  49.4984997  79.4829988
  40.7170012  48.7434997  79.3899988  41.7820012  49.6814997  78.4169988
  42.7290012  49.1494997  80.3389988  43.4990012  49.9264997  80.5339988
  42.4370012  48.8374997  81.3649988  43.5510012  48.0174997  79.6809988
  44.4180012  47.7814997  80.3339988  42.9170012  47.1084997  79.6049988
  44.2750012  48.3454997  78.3579988  44.1560012  49.4394997  78.2059988
  45.3530012  48.1084997  78.4849988  43.6850012  47.5864997  77.1469988
  43.7620012  46.4844997  77.2669988  42.5980012  47.7194997  76.9559988
  44.2770012  48.0514997  75.7959988  44.0270012  49.1314997  75.8729988
  45.3860012  48.0564997  75.8569988  43.5460012  47.5314997  74.5149988
  43.7380012  46.4384997  74.5529988  42.4630012  47.5724997  74.7579988
  43.8700012  48.1694997  73.2459988  43.6770012  49.2634997  73.2779988
  44.9110012  48.0854997  72.8679988  42.9700012  47.7384997  72.0599988
  41.8860012  47.9654997  72.1469988  43.2570012  48.2684997  71.1269988
  43.1440012  46.2624997  71.5919988  44.1090012  46.3494997  71.0479988
  43.0870012  45.4734997  72.3719988  41.9960012  45.9914997  70.5399988
  41.0690012  45.7144997  71.0869988  41.6940012  46.9394997  70.0469988
  42.2990012  44.8844997  69.5409988  43.3440012  44.9894997  69.1769988
  42.3430012  43.8734997  70.0009988  41.4540012  44.9004997  68.2709988
  41.2960012  45.9664997  67.9989988  42.0060012  44.3174997  67.5029988
  40.0650012  44.0884997  68.4559988  40.3030012  43.0164997  68.6219988
  39.6280012  44.5104997  69.3859988  39.0780012  44.1684997  67.2889988
  38.8300012  43.2274997  66.5649988  38.5900012  45.4024997  67.2989988
  37.5840012  45.6044997  66.2649988  37.2020012  44.7424997  65.6759988
  36.6740012  46.0354997  66.7349988  38.1480012  46.7044997  65.1979988
  37.3100012  46.9724997  64.5189988  39.2050012  46.1034997  64.2449988
  38.7670012  45.1584997  63.8569988  39.2020012  46.7644997  63.3519988
  40.5060012  45.9394997  64.8309988  41.7810012  45.5524997  64.1009988
  42.3240012  46.8264997  63.3669988  42.7660012  47.8374997  64.2759988
  42.2300012  47.9964997  65.2369988  43.8430012  47.6694997  64.4879988
  42.7220012  49.2034997  63.4679988  42.8860012  50.0064997  64.1719988
  43.4220012  49.1554997  62.6469988  41.4360012  49.4624997  62.6729988
  40.3310012  49.6324997  63.6359988  40.1390012  48.6774997  64.1029988
  40.6840012  50.3664997  64.3459988  39.4350012  49.9924997  63.1529988
  41.6810012  50.8564997  62.0439988  40.8420012  51.2064997  61.4599988
  41.7450012  51.5524997  62.8679988  42.5890012  50.8894997  61.4609988
  41.0510012  48.4414997  61.6289988  41.9080012  48.2914997  60.9889988
  40.2240012  48.8594997  61.0739988  40.8100012  47.4874997  62.0739988
  42.8260012  45.1334997  65.0849988  41.3750012  44.5814997  63.0699988
  38.7410012  47.8084997  65.9129988  37.9700012  48.7744997  66.3609988
  36.8270012  49.0544997  66.0849988  38.8600012  49.5934997  67.2819988
  38.3090012  50.5294997  67.5129988  39.7860012  49.8334997  66.7159988
  39.3230012  48.8944997  68.4879988  40.1720012  49.4394997  68.9509988
  39.7430012  47.8964997  68.2409988  38.1530012  48.8034997  69.5209988
  37.3900012  48.1414997  69.0579988  37.6190012  49.7754997  69.5929988
  38.6130012  48.2314997  70.8639988  39.2570012  49.0064997  71.3319988
  39.2400012  47.3244997  70.7329988  37.3650012  47.9044997  71.8709988
  36.6880012  47.2854997  71.2449988  36.8010012  48.8094997  72.1819988
  37.7720012  47.0874997  73.1089988  37.0570012  47.5104997  73.8459988
  38.7680012  47.3584997  73.5219988  37.5470012  45.5464997  73.0899988
  36.5440012  45.3114997  72.6729988  37.4990012  45.3044997  74.1729988
  38.6650012  44.9134997  72.3799988  38.9350012  45.0544997  71.3229988
  39.4230012  43.9754997  72.9079988  40.2060012  43.6364997  72.2139988
  39.3190012  43.3084997  74.2289988  39.6780012  42.2584997  74.1809988
  38.2570012  43.2804997  74.5539988  40.1120012  44.0614997  75.2709988
  39.8490012  45.1414997  75.2539988  41.2060012  44.0304997  75.0809988
  39.9240012  43.4214997  76.6649988  40.2140012  42.3494997  76.6349988
  38.8390012  43.3224997  76.8829988  40.7260012  44.0434997  77.8039988
  40.6380012  45.1374997  77.6299988  41.8200012  43.8744997  77.7139988
  40.3810012  43.8414997  79.2159988  40.8750012  42.9224997  79.5979988
  39.2750012  43.7924997  79.3089988  40.9130012  44.9354997  80.1619988
  40.9890012  45.9164997  79.6449988  41.9170012  44.6614997  80.5499988
  40.0180012  45.1764997  81.4039988  40.5650012  45.7264997  82.1989988
  39.7430012  44.2254997  81.9099988  38.7890012  45.9714997  81.1179988
  38.2720012  46.2784997  82.0519988  37.9780012  45.4914997  80.5299988
  39.0440012  46.8294997  80.4599988  35.7180012  58.4754997  80.2709988
  35.5310012  57.3874997  80.1429988  35.6870012  58.6784997  81.3629988
  36.7370012  58.6444997  79.8609988  34.7670012  59.3894997  79.4619988
  33.8000012  59.3254997  80.0049988  35.0380012  60.4634997  79.5549988
  34.7580012  58.9654997  77.9659988  34.6220012  57.8954997  77.6979988
  33.8700012  59.4254997  77.4829988  36.0140012  59.5234997  77.1929988
  36.9360012  59.0074997  77.5339988  35.9250012  59.1594997  76.1469988
  36.0560012  61.0894997  77.2019988  36.1820012  61.3984997  78.2619988
  36.9260012  61.3704997  76.5719988  34.7680012  61.7314997  76.6719988
  34.6680012  61.2654997  75.6679988  33.9530012  61.4414997  77.3699988
  34.7770012  63.2394997  76.7589988  34.6930012  63.4944997  77.8369988
  35.7400012  63.6194997  76.3559988  33.6660012  63.8924997  75.9599988
  33.7990012  64.9884997  76.0799988  33.8950012  63.7214997  74.8869988
  32.2340012  63.4694997  76.2559988  32.2380012  62.3614997  76.1759988
  32.0690012  63.7874997  77.3069988  31.2660012  64.1814997  75.3379988
  30.2640012  64.2264997  75.8169988  31.5210012  65.2484997  75.1649988
  31.0170012  63.4324997  74.0269988  32.0210012  63.3444997  73.5609988
  30.6470012  62.4174997  74.2899988  30.1450012  64.0784997  72.9259988
  29.1080012  63.7624997  73.1699988  30.2000012  65.1874997  72.9169988
  30.4560012  63.5924997  71.4919988  30.4950012  62.4824997  71.5189988
  29.6680012  63.8704997  70.7589988  31.7110012  64.2364997  70.8719988
  31.4000012  65.2984997  70.9739988  32.5780012  63.9714997  71.5129988
  32.0550012  64.0294997  69.4069988  32.0890012  62.9304997  69.2499988
  31.1930012  64.4794997  68.8689988  33.3650012  64.6684997  68.9649988
  33.7130012  65.7654997  69.4179988  34.0130012  63.9234997  68.1549988
  35.2930012  64.3574997  67.6119988  35.1990012  65.1454997  66.8349988
  35.8100012  64.7394997  68.5179988  35.9280012  63.0484997  66.9659988
  37.0010012  63.2984997  66.8239988  35.3940012  62.6344997  65.5609988
  34.3660012  63.0554997  65.6029988  36.0300012  63.1434997  64.8049988
  35.2110012  61.1464997  65.4439988  34.7210012  60.6594997  63.9819988
  33.3030012  60.0724997  64.3139988  32.2420012  60.9344997  64.7669988
  31.6270012  60.4274997  65.5409988  32.5730012  61.9304997  65.1319988
  31.2600012  61.3474997  63.6249988  30.4000012  61.7914997  64.1049988
  31.6970012  62.1044997  62.9909988  30.6770012  60.3364997  62.6559988
  29.7080012  60.9354997  61.6989988  30.2660012  61.6124997  61.0689988
  29.2440012  60.2344997  61.0219988  28.8430012  61.3324997  62.2089988
  31.7850012  59.7244997  61.7959988  31.3240012  59.6054997  60.8269988
  32.7080012  60.2844997  61.7549988  32.0150012  58.7714997  62.2479988
  29.9470012  59.1844997  63.3409988  29.2870012  59.5724997  64.1019988
  30.6610012  58.5154997  63.7989988  29.3840012  58.5364997  62.6859988
  34.4930012  61.8424997  63.1349988  35.5650012  59.6274997  63.4209988
  35.8650012  62.0074997  67.9659988  36.7770012  62.0264997  69.0639988
  37.6870012  62.8034997  69.1589988  36.5090012  60.8234997  69.9419988
  37.3060012  60.7914997  70.7159988  36.6020012  59.8734997  69.3729988
  35.1630012  61.0104997  70.7219988  34.3640012  61.3334997  70.0209988
  35.1770012  61.8654997  71.4309988  34.9070012  59.7764997  71.6739988
  35.6940012  59.7794997  72.4579988  34.8220012  58.8224997  71.1119988
  33.5690012  59.9574997  72.3009988  32.7770012  59.9344997  71.5219988
  33.6090012  60.8754997  72.9259988  33.2540012  58.8724997  73.3649988
  33.9300012  58.8644997  74.2459988  33.3470012  57.8434997  72.9559988
  31.8220012  59.1204997  73.9859988  31.7740012  60.2304997  73.9729988
  31.7210012  58.6864997  75.0039988  30.7120012  58.6614997  72.9589988
  30.8170012  57.5554997  72.9909988  30.9610012  59.0654997  71.9549988
  29.2160012  59.0644997  73.2369988  28.5390012  58.9314997  72.3799988
  28.6190012  59.6384997  74.2959988  27.5690012  59.9154997  74.1219988
  29.0940012  60.1334997  75.6159988  28.5840012  61.0974997  75.8279988
  30.1380012  60.5074997  75.5509988  28.8760012  59.0644997  76.7339988
  28.9870012  57.9884997  76.4809988  27.8050012  59.1574997  77.0119988
  29.8660012  59.2334997  77.9049988  30.8630012  58.9174997  77.5309988
  29.5990012  58.5114997  78.7059988  29.8970012  60.6464997  78.5349988
  28.9200012  60.9274997  78.9839988  30.1450012  61.4324997  77.7899988
  31.0690012  60.7304997  79.6339988  32.0240012  60.2584997  79.3159988
  30.6600012  60.2214997  80.5319988  31.5460012  62.1944997  79.9309988
  30.7430012  62.9504997  80.0699988  32.0100012  62.6644997  79.0379988
  32.5680012  62.3394997  81.1579988  32.7670012  61.2944997  81.4799988
  32.0330012  62.8534997  81.9839988  33.8720012  63.1594997  80.8999988
  34.5560012  62.9904997  81.7589988  33.5850012  64.2304997  80.8239988
  34.3250012  62.7374997  79.9769988  49.6820012 106.1334997  85.0649988
  49.7880012 107.2054997  84.7939988  50.4920012 105.6344997  84.4909988
  49.8930012 106.0204997  86.1499988  48.2990012 105.6334997  84.7919988
  48.1670012 104.6544997  85.3009988  47.6720012 106.5214997  85.0189988
  48.1430012 105.3654997  83.2519988  48.7150012 104.5214997  82.8099988
  47.0950012 104.9984997  83.2399988  48.2680012 106.6684997  82.4419988
  47.6520012 107.4744997  82.8949988  49.3320012 106.9784997  82.5279988
  47.9490012 106.5454997  80.9089988  47.0650012 105.9244997  80.6509988
  47.8260012 107.5684997  80.4929988  49.1530012 105.9544997  80.0679988
  49.2210012 104.8774997  80.3309988  48.8610012 105.9764997  78.9959988
  50.4890012 106.6554997  80.3109988  50.3510012 107.7544997  80.2239988
  50.8700012 106.3604997  81.3119988  51.6610012 106.1264997  79.3659988
  52.5970012 106.4374997  79.8769988  51.7440012 105.0194997  79.3699988
  51.5980012 106.7294997  77.9479988  51.2000012 107.7614997  78.0509988
  52.6790012 106.7254997  77.6939988  50.7940012 105.8314997  76.9029988
  49.7020012 106.0384997  76.9079988  51.2490012 106.1094997  75.9279988
  50.9560012 104.2244997  76.9769988  52.0340012 103.9844997  76.8619988
  50.4990012 103.8104997  77.9019988  50.2880012 103.6364997  75.7609988
  50.3610012 102.5284997  75.7979988  49.1860012 103.7724997  75.7859988
  51.0780012 103.8084997  74.3949988  52.0410012 104.3444997  74.5389988
  51.2850012 102.8204997  73.9329988  50.3200012 104.7444997  73.3799988
  49.8270012 105.5714997  73.9339988  51.0420012 105.2254997  72.6869988
  49.2140012 103.9954997  72.5879988  49.6970012 103.1114997  72.1199988
  48.3130012 103.5164997  73.0269988  48.7280012 104.8774997  71.3879988
  47.9620012 105.8264997  71.4629988  49.2310012 104.3354997  70.3159988
  48.7300012 104.5944997  69.0399988  47.7490012 104.0914997  68.8969988
  48.3200012 105.6094997  68.8489988  49.7400012 104.2694997  67.9609988
  50.5620012 104.9784997  68.1979988  49.1760012 104.5894997  66.5589988
  48.7650012 105.6194997  66.5049988  50.0310012 104.5714997  65.8499988
  48.1120012 103.8744997  66.1659988  47.6830012 103.5294997  64.6979988
  49.1330012 103.4084997  64.0239988  49.2720012 104.1144997  62.8119988
  48.8000012 103.5514997  61.9789988  48.8520012 105.1364997  62.9309988
  50.7580012 104.3444997  62.4559988  50.5910012 104.7814997  61.4829988
  51.1410012 105.0794997  63.1479988  51.7410012 103.1394997  62.3269988
  51.8750012 102.3684997  63.6479988  50.9610012 101.9754997  64.0689988
  52.5650012 101.5544997  63.4789988  52.2930012 103.0134997  64.4069988
  51.3560012 102.3174997  61.1139988  50.3530012 101.9534997  61.2819988
  51.4250012 103.0204997  60.2969988  52.0020012 101.4784997  60.9019988
  53.1360012 103.6284997  62.0549988  53.0460012 104.3854997  61.2889988
  53.7240012 102.8134997  61.6599988  53.6120012 104.0174997  62.9429988
  46.9470012 102.2114997  64.6809988  46.9880012 104.6944997  64.1979988
  50.1550012 102.9604997  68.1279988  51.0660012 102.4874997  67.3269988
  51.6370012 103.0994997  66.4349988  51.3000012 100.9434997  67.4939988
  51.3390012 100.5854997  66.4429988  50.6570012 100.3494997  68.1779988
  52.7930012 100.7264997  67.9409988  53.4950012 101.4374997  67.4529988
  52.9450012  99.6954997  67.5559988  52.9660012 100.7664997  69.4999988
  52.8540012 101.8074997  69.8719988  53.9720012 100.3704997  69.7549988
  51.9040012  99.9914997  70.3659988  51.9060012  98.9424997  69.9999988
  50.9180012 100.4844997  70.2269988  52.3010012  99.8904997  71.8289988
  53.2300012 100.4874997  71.9529988  52.6410012  98.8584997  72.0619988
  51.2070012 100.3964997  72.7789988  51.0230012 101.4804997  72.6159988
  51.6100012 100.4104997  73.8139988  49.8980012  99.5644997  72.7159988
  50.1590012  98.6314997  73.2609988  49.5320012  99.4164997  71.6779988
  48.8240012 100.2754997  73.4669988  48.4290012 101.0984997  72.8529988
  48.0490012 100.0554997  74.5709988  47.2480012 100.7294997  74.9109988
  48.1900012  98.7394997  75.3839988  48.7340012  97.8884997  74.9229988
  47.1770012  98.3324997  75.5919988  48.9620012  98.8834997  76.6959988
  48.8490012  97.9624997  77.3059988  48.3810012  99.6494997  77.2529988
  50.4160012  99.2694997  76.5559988  50.4510012 100.2254997  75.9909988
  50.9960012  98.5434997  75.9479988  51.1280012  99.3814997  77.9279988
  52.2260012  99.4194997  77.7629988  50.8600012  98.5654997  78.6329988
  50.8760012 100.7754997  78.5169988  49.7960012 100.8884997  78.7529988
  51.2710012 101.6154997  77.9059988  51.5640012 100.7994997  79.9219988
  52.6220012 101.1294997  79.8369988  51.6840012  99.7654997  80.3109988
  50.9330012 101.5354997  81.1349988  51.2630012 101.0214997  82.0629988
  49.8300012 101.6344997  81.0489988  51.4160012 103.0204997  81.2139988
  52.4860012 103.2364997  81.4249988  50.8360012 103.4344997  82.0669988
  51.1220012 103.4604997  80.2369988  35.5840012  90.7384997  83.4369988
  34.8680012  91.0994997  82.6679988  35.6340012  91.5054997  84.2389988
  35.0590012  89.8744997  83.8979988  36.9440012  90.4404997  82.8409988
  37.4700012  91.3534997  82.4899988  37.5570012  90.1354997  83.7159988
  36.9100012  89.2664997  81.8739988  37.9310012  88.9664997  81.5549988
  36.5150012  88.3214997  82.3029988  36.1810012  89.5924997  80.5079988
  35.6400012  88.7524997  80.0209988  35.3210012  90.2574997  80.7359988
  37.1270012  90.2384997  79.4729988  37.8300012  91.0154997  79.8429988
  37.8370012  89.4754997  79.0879988  36.4020012  90.9844997  78.2409988
  35.3440012  90.6534997  78.3119988  36.4110012  92.0744997  78.4569988
  36.9940012  90.4284997  77.0059988  37.1080012  89.3404997  77.2009988
  36.3200012  90.6374997  76.1479988  38.3660012  91.0834997  76.5939988
  38.8760012  91.0544997  77.5809988  38.8180012  90.3514997  75.8909988
  38.4160012  92.5184997  76.0649988  38.0470012  93.3214997  76.7369988
  39.4950012  92.7764997  76.0069988  37.8250012  92.6114997  74.6459988
  38.1530012  91.7164997  74.0749988  36.7300012  92.6604997  74.8279988
  38.2570012  93.9254997  73.9549988  37.6800012  94.7544997  74.4159988
  39.3210012  94.1834997  74.1449988  38.0490012  94.0744997  72.4219988
  38.7180012  93.3364997  71.9299988  36.9690012  93.8464997  72.2959988
  38.4670012  95.4214997  71.9639988  37.5960012  96.1074997  72.0349988
  39.2660012  95.9264997  72.5489988  38.8150012  95.4974997  70.4669988
  37.8890012  95.0824997  70.0159988  38.9330012  96.5774997  70.2309988
  40.0520012  94.6514997  70.0359988  40.9940012  95.1834997  70.2889988
  39.9700012  93.6234997  70.4509988  40.0470012  94.6044997  68.4619988
  39.6640012  95.5154997  67.7169988  40.5610012  93.4384997  67.9759988
  40.2530012  93.1254997  66.6369988  40.2600012  94.0074997  65.9619988
  41.0600012  92.5004997  66.1969988  38.8960012  92.4944997  66.3689988
  38.9720012  91.4174997  66.6299988  38.5620012  92.4464997  64.8829988
  39.4700012  92.2334997  64.2799988  37.7950012  91.6764997  64.6489988
  38.1690012  93.7974997  64.5299988  37.5770012  94.2034997  63.1299988
  36.3290012  93.2144997  62.8779988  35.2980012  93.4444997  63.7469988
  35.4560012  93.2614997  64.8309988  34.8600012  94.4564997  63.6049988
  34.2600012  92.3174997  63.3779988  33.4100012  92.5834997  63.9889988
  33.9510012  92.3284997  62.3429988  34.6100012  90.8684997  63.6949988
  35.5190012  90.2664997  62.6629988  34.8710012  90.3674997  61.8049988
  36.3580012  90.9344997  62.5339988  35.7410012  89.2114997  62.7269988
  35.2840012  90.7834997  65.0649988  35.4780012  89.7274997  65.1819988
  36.2050012  91.3474997  65.0889988  34.6760012  91.2574997  65.8219988
  33.2840012  90.0824997  63.8059988  32.9020012  89.9824997  62.8009988
  32.6900012  90.7104997  64.4519988  33.5560012  89.1084997  64.1869988
  37.0510012  95.5934997  63.1429988  38.6640012  93.9924997  62.1459988
  37.9540012  93.3414997  67.0889988  36.8770012  92.6624997  67.6489988
  36.9370012  91.4694997  67.8609988  35.7820012  93.5804997  68.1409988
  35.5700012  94.4034997  67.4249988  36.0390012  93.8264997  69.1929988
  34.4240012  92.8034997  68.2819988  34.3510012  92.0504997  69.0949988
  34.3290012  92.3644997  67.2659988  33.2560012  93.7384997  68.4539988
  32.4060012  93.2644997  67.9179988  33.3870012  94.7374997  67.9859988
  32.7620012  93.9934997  69.9539988  32.2170012  93.0744997  70.2619988
  32.1290012  94.8874997  70.1359988  33.8430012  94.0654997  71.0669988
  34.4150012  95.0134997  70.9729988  34.5680012  93.2254997  71.0059988
  33.1180012  93.9424997  72.4469988  32.6070012  92.9574997  72.4939988
  32.3330012  94.7284997  72.4659988  34.0830012  94.1484997  73.6189988
  34.8220012  93.3254997  73.5199988  33.6640012  94.0934997  74.6459988
  34.7830012  95.5204997  73.4819988  35.5390012  95.5284997  72.6829988
  34.7210012  96.6274997  74.2439988  35.3790012  97.4754997  74.0049988
  33.8660012  96.7504997  75.4559988  33.1480012  95.9094997  75.5659988
  33.2370012  97.6654997  75.3989988  34.6630012  96.9164997  76.7719988
  33.7780012  96.7614997  77.4259988  35.1290012  97.9114997  76.9369988
  35.7810012  95.8974997  76.9879988  36.6370012  95.9644997  76.2839988
  35.3030012  94.8944997  76.9509988  36.3050012  95.8934997  78.4299988
  36.5710012  96.9364997  78.7079988  37.2280012  95.2834997  78.5259988
  35.2850012  95.3504997  79.4269988  34.7790012  94.4364997  79.0499988
  34.5230012  96.1574997  79.4559988  35.9440012  95.2494997  80.8519988
  36.6760012  96.0784997  80.9579988  36.5650012  94.3314997  80.7729988
  35.0020012  95.1894997  82.0199988  34.2370012  94.3894997  81.9289988
  34.4210012  96.1304997  82.1169988  35.7250012  94.9504997  83.4399988
  36.3570012  94.0414997  83.5399988  34.9600012  94.9304997  84.2459988
  36.4390012  95.7884997  83.5859988  72.3170012 110.7894997  81.2309988
  71.5820012 111.6044997  81.0539988  71.9040012 110.4204997  82.1939988
  72.2020012 110.0144997  80.4439988  73.7050012 111.3734997  81.3469988
  73.8240012 112.1094997  82.1709988  74.4700012 110.5934997  81.5499988
  74.2390012 112.1514997  80.1359988  73.4600012 112.9214997  79.9519988
  75.2510012 112.5054997  80.4289988  74.2050012 111.3624997  78.8539988
  74.9830012 110.5844997  79.0069988  73.2190012 110.8854997  78.6679988
  74.5330012 112.1654997  77.6059988  73.8950012 113.0754997  77.5809988
  75.5810012 112.5334997  77.6199988  74.4570012 111.3404997  76.3429988
  75.1540012 110.4854997  76.4749988  73.4190012 110.9574997  76.2479988
  74.7820012 112.1444997  75.0749988  75.7230012 112.7334997  75.1159988
  74.8800012 111.4014997  74.2549988  73.8120012 113.2454997  74.7539988
  73.8180012 114.0254997  75.5459988  74.1980012 113.8434997  73.9009988
  72.3970012 112.7934997  74.6069988  72.2980012 112.0114997  73.8249988
  72.1420012 112.3324997  75.5849988  71.4320012 113.9514997  74.1719988
  71.3530012 114.5844997  75.0819988  71.8460012 114.5404997  73.3259988
  70.0240012 113.4524997  73.8139988  69.6010012 112.7344997  74.5489988
  69.2220012 114.2204997  73.7699988  69.9790012 112.6084997  72.5069988
  70.6340012 111.7224997  72.6509988  68.9130012 112.5024997  72.2119988
  70.6990012 113.2454997  71.2869988  69.9710012 112.9644997  70.4959988
  70.6240012 114.3514997  71.3599988  72.1490012 112.8354997  70.8559988
  72.8390012 113.1154997  71.6799988  72.0930012 111.7264997  70.8779988
  72.5470012 113.3974997  69.5759988  71.7610012 113.2774997  68.7999988
  72.8790012 114.4354997  69.7939988  73.8070012 112.6554997  69.0239988
  74.5690012 111.9744997  69.7199988  73.8950012 112.8744997  67.6789988
  75.0370012 112.2994997  67.0069988  75.3420012 112.9674997  66.1729988
  75.9530012 112.1944997  67.6269988  74.7390012 110.8704997  66.4709988
  75.5660012 110.4874997  65.8359988  73.6070012 110.8194997  65.3629988
  73.9800012 111.5524997  64.6159988  73.4480012 109.8264997  64.8899988
  72.3270012 111.0834997  65.9949988  71.2240012 111.6404997  65.1169988
  71.3230012 110.7904997  63.8319988  70.9400012 109.4334997  63.6759988
  71.3430012 108.6824997  64.3889988  69.8340012 109.3374997  63.7109988
  71.2340012 108.9204997  62.1969988  70.7090012 108.0234997  61.9059988
  70.7810012 109.6304997  61.5209988  72.7110012 108.8624997  61.7939988
  73.3450012 110.2484997  61.7759988  74.4120012 110.1014997  61.6999988
  72.9270012 110.7994997  60.9469988  73.1270012 110.7324997  62.7169988
  73.3040012 107.8764997  62.8509988  72.8020012 106.9394997  62.6599988
  74.3600012 107.7914997  62.6389988  73.1060012 108.2144997  63.8569988
  72.8000012 108.2074997  60.4829988  72.2610012 108.8134997  59.7699988
  72.5070012 107.1744997  60.5969988  73.8300012 108.1694997  60.1609988
  69.9170012 111.2654997  65.6959988  71.3790012 113.0904997  64.7619988
  74.3240012 110.0634997  67.5569988  74.0580012 108.7244997  67.3919988
  74.3750012 107.9994997  66.5129988  73.1820012 108.2454997  68.5339988
  73.6820012 108.5334997  69.4839988  73.1940012 107.1344997  68.5609988
  71.8040012 108.7784997  68.3769988  71.4720012 108.6074997  67.3309988
  71.9210012 109.8714997  68.5409988  70.8010012 108.3074997  69.4369988
  71.2430012 108.6344997  70.4019988  70.8590012 107.1984997  69.4889988
  69.4470012 108.8754997  69.2719988  68.8570012 108.2804997  68.5419988
  69.6400012 109.8514997  68.7779988  68.6250012 109.0954997  70.5299988
  67.5410012 109.3324997  70.5759988  69.0840012 110.0234997  70.9339988
  68.7840012 107.8134997  71.3459988  69.8590012 107.5714997  71.4849988
  68.1910012 106.9714997  70.9299988  68.2060012 107.9824997  72.8129988
  68.1430012 106.9504997  73.2219988  67.1370012 108.2854997  72.7819988
  69.0400012 108.8914997  73.6769988  68.6550012 109.9214997  73.6869988
  70.2280012 108.5404997  74.3409988  70.8400012 109.3724997  74.7189988
  70.8400012 107.2104997  74.3639988  71.9290012 107.1694997  74.1459988
  70.3370012 106.6054997  73.5799988  70.6540012 106.4054997  75.7009988
  71.1380012 105.4494997  75.4089988  69.5670012 106.2724997  75.8849988
  71.1630012 106.9804997  77.0269988  70.8740012 108.0444997  77.1639988
  72.2640012 107.1224997  76.9749988  70.6560012 106.0544997  78.0949988
  70.6790012 105.0164997  77.6999988  69.5800012 106.2654997  78.2739988
  71.5460012 106.0544997  79.4019988  71.7080012 107.1234997  79.6589988
  72.5750012 105.6684997  79.2409988  70.9030012 105.2284997  80.5339988
  71.6970012 104.5184997  80.8509988  70.0650012 104.5914997  80.1789988
  70.3160012 105.9754997  81.7319988  70.0150012 105.1954997  82.4639988
  69.4060012 106.5084997  81.3829988  71.2260012 106.8794997  82.5059988
  71.9730012 106.3844997  83.1629988  70.6670012 107.5534997  83.1909988
  71.6910012 107.6314997  81.8329988 102.7670012  91.4454997  85.3329988
 103.0890012  91.9284997  86.2799988 103.2790012  90.4954997  85.0669988
 101.6780012  91.2384997  85.4129988 102.9290012  92.4104997  84.1829988
 102.1220012  92.1624997  83.4599988 102.6650012  93.3954997  84.6249988
 104.3020012  92.4444997  83.4899988 105.0230012  92.7114997  84.2919988
 104.5590012  91.4534997  83.0569988 104.3460012  93.5824997  82.4679988
 104.3200012  94.5904997  82.9339988 105.2490012  93.5754997  81.8219988
 103.2170012  93.6334997  81.4429988 103.0550012  92.6384997  80.9759988
 102.2430012  94.0724997  81.7449988 103.5920012  94.5454997  80.2789988
 103.6700012  95.6124997  80.5819988 104.5650012  94.1904997  79.8789988
 102.6120012  94.5054997  79.0369988 102.8630012  93.5624997  78.5069988
 101.5770012  94.5044997  79.4409988 102.8540012  95.7494997  78.2199988
 102.6110012  96.6714997  78.7899988 103.8950012  95.9594997  77.8929988
 102.1310012  95.7474997  76.8629988 101.0380012  95.6094997  77.0059988
 102.0800012  96.7774997  76.4499988 102.7530012  94.8204997  75.8369988
 103.8410012  95.0294997  75.7509988 102.5970012  93.7714997  76.1669988
 102.1070012  95.0334997  74.4719988 101.0020012  94.9564997  74.5539988
 102.3860012  96.0334997  74.0759988 102.5410012  94.0254997  73.4359988
 102.6530012  93.0234997  73.9019988 101.7980012  94.0084997  72.6099988
 103.9570012  94.3134997  72.8569988 103.9650012  95.3984997  72.6189988
 104.6470012  94.1304997  73.7089988 104.4250012  93.4654997  71.6889988
 104.0580012  92.4614997  71.9939988 103.8150012  93.7874997  70.8179988
 105.8670012  93.5134997  71.3939988 106.1520012  94.4144997  70.8109988
 106.4330012  93.3764997  72.3399988 106.2200012  92.2154997  70.5389988
 106.7050012  91.1894997  71.0069988 105.7850012  92.3824997  69.3359988
 105.6680012  91.2704997  68.4659988 106.3920012  91.3274997  67.6249988
 105.8340012  90.2724997  68.9249988 104.2820012  91.2294997  67.8059988
 104.3280012  90.2594997  67.2659988 104.0180012  92.3824997  66.9269988
 103.9880012  93.3774997  67.4199988 104.8200012  92.6254997  66.1969988
 102.6820012  92.1084997  66.3479988 102.2890012  92.9894997  65.0559988
 103.7710012  93.2294997  64.3359988 103.6720012  93.8154997  63.0129988
 103.0220012  93.2604997  62.3039988 103.3500012  94.8644997  63.1879988
 104.9510012  93.9144997  62.1909988 104.7770012  94.4184997  61.2519988
 105.6570012  94.5434997  62.7119988 105.6710012  92.5754997  61.9939988
 106.3050012  92.0144997  63.2469988 106.6420012  91.0104997  63.0339988
 107.1530012  92.5874997  63.5909988 105.6500012  91.8254997  64.0849988
 104.7830012  91.5404997  61.3329988 103.8290012  91.4634997  61.8339988
 104.6270012  91.8574997  60.3119988 105.4010012  90.6544997  61.3329988
 106.7740012  92.8084997  60.9039988 107.5170012  93.3944997  61.4239988
 106.3410012  93.2054997  59.9979988 107.1620012  91.8184997  60.7129988
 101.4790012  92.1264997  64.1249988 101.6460012  94.2404997  65.6329988
 103.2720012  91.1084997  68.8089988 103.2940012  90.1044997  69.6369988
 104.0370012  89.1454997  69.6579988 102.1220012  90.2284997  70.5229988
 101.3250012  89.5844997  70.0959988 101.6610012  91.2394997  70.5269988
 102.4900012  89.9794997  71.9889988 101.6370012  90.3714997  72.5829988
 103.3530012  90.6524997  72.1799988 102.6740012  88.5454997  72.3189988
 103.6620012  88.2364997  71.9149988 101.9310012  87.8984997  71.8069988
 102.5480012  88.2924997  73.8329988 101.4790012  88.0224997  73.9709988
 102.6190012  89.3124997  74.2679988 103.5240012  87.3704997  74.5789988
 103.4420012  86.2794997  74.3839988 103.2530012  87.4524997  75.6529988
 104.9980012  87.7554997  74.4319988 105.2300012  87.9854997  73.3699988
 105.5720012  86.8204997  74.6039988 105.6480012  88.7704997  75.3779988
 106.7310012  88.5284997  75.3109988 105.1950012  88.6554997  76.3859988
 105.5420012  90.2464997  74.9309988 106.0650012  90.5224997  74.0029988
 105.0010012  91.2734997  75.6469988 105.1420012  92.3014997  75.2809988
 104.3400012  91.1434997  76.9959988 104.2970012  90.0994997  77.3719988
 103.3780012  91.6944997  77.0639988 105.2400012  91.8914997  78.0549988
 104.7950012  91.7894997  79.0679988 105.2250012  92.9794997  77.8319988
 106.6870012  91.3974997  78.0159988 107.2880012  91.7274997  77.1409988
 106.4920012  90.3124997  77.8819988 107.3670012  91.3464997  79.3339988
 107.5450012  92.3874997  79.6769988 108.4220012  91.0114997  79.2379988
 106.6150012  90.6524997  80.4679988 106.0680012  89.7974997  80.0149988
 105.8400012  91.3884997  80.7709988 107.5020012  90.1754997  81.6209988
 107.6850012  91.0204997  82.3179988 108.5330012  89.9284997  81.2869988
 106.9370012  89.0024997  82.3849988 106.7210012  88.2114997  81.6359988
 105.9080012  89.1494997  82.7789988 107.9440012  88.3764997  83.2889988
 108.2720012  88.9874997  84.1559988 108.8580012  88.2554997  82.6679988
 107.7800012  87.3604997  83.7079988  96.7630012  35.1194997  82.3529988
  97.5780012  34.4804997  82.7549988  96.9920012  36.1874997  82.5589988
  96.7340012  35.0014997  81.2489988  95.2880012  34.7884997  82.7899988
  94.9310012  33.7394997  82.7089988  95.1940012  35.1184997  83.8469988
  94.2920012  35.7284997  82.0699988  94.5040012  36.7364997  82.4869988
  94.4870012  35.7964997  80.9779988  92.8440012  35.4804997  82.2549988
  92.5980012  34.4204997  82.4809988  92.5590012  36.0844997  83.1419988
  91.9290012  35.9914997  81.0889988  90.8770012  36.1354997  81.4169988
  92.2990012  36.9914997  80.7769988  91.9770012  35.0414997  79.8409988
  93.0400012  34.9834997  79.5239988  91.6720012  34.0114997  80.1269988
  91.1910012  35.4984997  78.5099988  90.1460012  35.4564997  78.8849988
  91.3700012  36.5844997  78.3599988  91.6350012  34.7384997  77.2839988
  91.6530012  33.6454997  77.4819988  90.9430012  34.8364997  76.4209988
  92.9700012  35.1294997  76.6159988  93.8220012  34.9434997  77.3039988
  93.0320012  34.3724997  75.8059988  93.1080012  36.5234997  76.0589988
  92.1620012  36.8294997  75.5629988  93.1550012  37.3384997  76.8119988
  94.3100012  36.6204997  75.1509988  94.8250012  37.5974997  75.2639988
  94.9810012  35.7734997  75.4099988  94.0070012  36.5614997  73.6419988
  93.6740012  35.5264997  73.4109988  93.1480012  37.2344997  73.4319988
  95.2070012  36.7444997  72.7539988  95.8100012  37.6154997  73.0879988
  95.8880012  35.8684997  72.8149988  95.0110012  36.9534997  71.2639988
  94.5290012  36.0284997  70.8799988  94.4370012  37.8974997  71.1479988
  96.3700012  37.1884997  70.6159988  96.6610012  38.2414997  70.8179988
  97.1040012  36.3944997  70.8709988  96.1940012  37.1314997  69.0539988
  96.1010012  38.1434997  68.3359988  96.3190012  35.8994997  68.6669988
  96.4070012  35.5904997  67.2609988  97.0950012  36.2634997  66.7069988
  96.9070012  34.6054997  67.1419988  95.0430012  35.4574997  66.5359988
  94.5720012  34.4564997  66.6349988  95.3130012  35.6404997  65.0909988
  95.9910012  36.5074997  64.9409988  95.8550012  34.7424997  64.7269988
  94.1610012  35.7184997  64.2639988  94.2720012  36.1894997  62.7699988
  94.1600012  37.7174997  62.9389988  93.8420012  38.4764997  64.1239988
  94.5000012  38.1734997  64.9669988  93.9320012  39.5634997  63.9129988
  92.3620012  38.2394997  64.6579988  92.2240012  37.2114997  64.9619988
  92.4110012  38.8084997  65.5739988  91.1430012  38.7924997  63.9329988
  91.1610012  40.2694997  63.8569988  92.1790012  40.6314997  63.8589988
  90.6640012  40.6134997  62.9619988  90.6590012  40.7094997  64.7059988
  91.0240012  38.2224997  62.5479988  90.2690012  38.6484997  61.9039988
  91.8950012  38.5384997  61.9939988  90.8670012  37.1534997  62.5449988
  90.0070012  38.3584997  64.8239988  90.0640012  37.2984997  65.0189988
  89.0860012  38.7864997  64.4569988  90.2080012  38.9554997  65.7019988
  95.5940012  35.8564997  62.2259988  93.1220012  35.6644997  62.0379988
  94.1360012  36.5004997  66.9849988  93.3450012  36.2704997  68.0509988
  93.2260012  35.1814997  68.6169988  92.6390012  37.6604997  68.4739988
  92.4180012  38.2864997  67.5839988  93.3710012  38.1044997  69.1819988
  91.3260012  37.2164997  69.1139988  91.6220012  36.8134997  70.1059988
  90.9540012  36.2954997  68.6159988  90.2580012  38.2844997  69.2989988
  89.7240012  38.4664997  68.3419988  90.8120012  39.2304997  69.4769988
  89.3000012  38.0934997  70.4469988  89.0610012  37.0104997  70.5029988
  88.3300012  38.5364997  70.1369988  89.7550012  38.6544997  71.7959988
  89.6740012  39.7624997  71.8209988  90.8240012  38.3924997  71.9459988
  88.9010012  38.1034997  72.9179988  88.8950012  36.9964997  72.8229988
  87.8490012  38.4084997  72.7369988  89.4500012  38.3224997  74.3329988
  90.5460012  38.1454997  74.2929988  88.9440012  37.6664997  75.0729988
  89.2520012  39.7194997  74.8369988  88.2070012  40.0564997  74.7759988
  90.2120012  40.5124997  75.2969988  89.9930012  41.5734997  75.4879988
  91.6920012  40.2784997  75.4529988  92.2960012  40.7534997  74.6499988
  91.9530012  39.1984997  75.4499988  92.2350012  40.8974997  76.7839988
  92.0480012  41.9924997  76.7989988  93.3370012  40.7674997  76.8419988
  91.6390012  40.2664997  78.0939988  91.7350012  39.1594997  78.0789988
  90.5590012  40.4994997  78.2099988  92.4650012  40.8534997  79.3209988
  92.4490012  41.9534997  79.4709988  93.4980012  40.5444997  79.0499988
  92.0830012  40.2664997  80.6929988  92.2500012  39.1674997  80.6879988
  91.0210012  40.4954997  80.9249988  92.8470012  40.8334997  81.9669988
  92.2310012  41.5224997  82.5839988  93.7830012  41.3804997  81.7259988
  93.2490012  39.7294997  82.9439988  93.9800012  39.0884997  82.4059988
  92.3700012  39.1764997  83.3399988  94.0450012  40.0544997  84.1609988
  93.4690012  40.7814997  84.7729988  95.0870012  40.3744997  83.9479988
  94.1810012  39.1414997  84.7789988  93.0470012 104.4664997  81.6829988
  92.6210012 103.9534997  80.7949988  92.5180012 105.4394997  81.7609988
  92.9230012 103.9704997  82.6699988  94.5090012 104.8724997  81.5779988
  94.7000012 105.3394997  82.5679988  95.1870012 103.9954997  81.4989988
  94.8510012 105.8264997  80.4189988  94.6930012 106.8524997  80.8149988
  95.9200012 105.6434997  80.1789988  94.0030012 105.6944997  79.1169988
  94.4600012 105.0244997  78.3579988  92.9910012 105.2684997  79.2829988
  94.0190012 107.0534997  78.2709988  93.4540012 107.8774997  78.7569988
  95.0720012 107.3964997  78.3629988  93.7260012 106.8914997  76.8839988
  94.3660012 106.2174997  76.2749988  92.6670012 106.5554997  76.8459988
  93.7840012 108.2414997  76.0859988  92.9130012 108.3694997  75.4079988
  93.7100012 109.0464997  76.8489988  95.1240012 108.5464997  75.3269988
  95.9690012 108.4754997  76.0449988  95.3790012 107.7294997  74.6179988
  95.1910012 109.9114997  74.6529988  94.6840012 110.6054997  75.3569988
  96.2160012 110.3374997  74.6029988  94.3820012 109.9874997  73.3749988
  93.3040012 109.7714997  73.5349988  94.2640012 111.0564997  73.0969988
  94.8150012 109.0744997  72.1929988  95.9110012 108.9054997  72.1269988
  94.3700012 108.0764997  72.3989988  94.4780012 109.6174997  70.8059988
  93.6870012 108.9364997  70.4269988  94.1520012 110.6794997  70.8339988
  95.6060012 109.3184997  69.7669988  95.2010012 109.3974997  68.7349988
  96.4730012 109.9914997  69.9409988  96.3010012 107.9444997  69.6929988
  96.5180012 107.5314997  70.7009988  95.5730012 107.2164997  69.2769988
  97.6100012 108.0894997  68.9129988  97.5310012 108.5504997  67.9049988
  98.2730012 108.7274997  69.5349988  98.2580012 106.7214997  68.6849988
  99.1760012 106.2574997  69.2969988  97.4930012 106.0124997  67.8449988
  97.7930012 104.6184997  67.7909988  98.7980012 104.5004997  67.3319988
  97.7070012 104.1564997  68.7969988  96.7040012 103.7944997  66.9889988
  97.0790012 102.7494997  66.9529988  96.4380012 104.2314997  65.5269988
  97.3410012 104.2604997  64.8789988  95.8120012 103.5034997  64.9679988
  95.8640012 105.5374997  65.5589988  94.3710012 105.7644997  65.3119988
  94.2700012 106.0914997  63.7739988  94.5770012 105.1464997  62.7289988
  94.5720012 104.1424997  63.2039988  93.8280012 105.1304997  61.9079988
  95.9550012 105.4244997  62.0999988  96.6130012 104.9524997  62.8149988
  96.0670012 104.8994997  61.1619988  96.4430012 106.8154997  61.8069988
  97.0370012 107.3884997  63.1059988  97.7520012 106.7154997  63.5549988
  97.4700012 108.3504997  62.8769988  96.2270012 107.6824997  63.7569988
  97.4540012 106.7544997  60.6979988  96.9950012 106.0514997  60.0189988
  97.6250012 107.7464997  60.3079988  98.4290012 106.3604997  60.9439988
  95.2670012 107.6314997  61.3879988  94.6430012 107.7854997  62.2569988
  94.7220012 107.1034997  60.6199988  95.6210012 108.5894997  61.0379988
  93.6460012 104.4854997  65.5309988  94.0060012 106.9304997  66.1779988
  95.4360012 103.9344997  67.6039988  95.0670012 103.1144997  68.5499988
  95.5320012 102.0174997  68.7759988  93.8270012 103.6834997  69.2969988
  92.8140012 103.3634997  68.9709988  93.7400012 104.7794997  69.1399988
  94.1120012 103.4184997  70.8039988  94.4780012 102.3884997  71.0069988
  93.1290012 103.5234997  71.3109988  95.1680012 104.3384997  71.3739988
  94.8770012 105.3744997  71.0969988  96.1460012 104.0904997  70.9069988
  95.1420012 104.1754997  72.9169988  95.1080012 103.1054997  73.2149988
  94.1760012 104.5134997  73.3509988  96.4050012 104.8054997  73.6159988
  96.4290012 105.8884997  73.3729988  97.2110012 104.2464997  73.0949988
  96.6610012 104.7534997  75.1139988  97.0090012 103.7194997  75.3259988
  95.6950012 104.8784997  75.6489988  97.7860012 105.8044997  75.6179988
  97.7810012 105.8474997  76.7279988  97.3470012 106.7514997  75.2359988
  99.1280012 105.6424997  75.0669988  99.4630012 106.2804997  74.2359988
  99.9670012 104.7004997  75.3419988 100.9690012 104.7514997  74.8929988
  99.7890012 103.5384997  76.3059988  99.8920012 102.5234997  75.8649988
  98.7400012 103.4734997  76.6669988 100.7050012 103.6694997  77.5539988
 101.7560012 103.6534997  77.1949988 100.5200012 102.7634997  78.1709988
 100.5650012 104.9124997  78.4089988  99.5360012 104.8604997  78.8239988
 100.6570012 105.8394997  77.8029988 101.4710012 104.8844997  79.6699988
 102.5060012 104.9204997  79.2679988 101.1450012 103.9854997  80.2359988
 101.3990012 106.1144997  80.6249988 101.7940012 106.9674997  80.0319988
 102.1590012 105.9734997  81.4229988 100.1070012 106.3254997  81.3729988
 100.2870012 107.0784997  82.1699988 100.0030012 105.3014997  81.7899988
  98.8770012 106.8684997  80.6409988  98.3480012 106.0754997  80.0699988
  99.3640012 107.5184997  79.8839988  97.8520012 107.6524997  81.4729988
  98.3970012 108.4494997  82.0229988  97.4420012 107.0144997  82.2839988
  97.0400012 108.0834997  80.8489988  89.9410012 107.1784997  79.6069988
  88.9080012 107.3544997  79.9769988  90.5760012 107.8794997  80.1899988
  90.0910012 106.0944997  79.7959988  89.8860012 107.3944997  78.0859988
  90.8740012 107.1594997  77.6379988  89.1100012 106.7084997  77.6839988
  89.4580012 108.7434997  77.5509988  88.4410012 108.8714997  77.9789988
  90.0990012 109.5144997  78.0299988  89.4290012 108.9154997  76.0259988
  90.4380012 108.9704997  75.5639988  88.9250012 108.0024997  75.6399988
  88.5280012 110.0884997  75.6079988  87.9980012 110.5084997  76.4889988
  89.1570012 110.9284997  75.2439988  87.5720012 109.7524997  74.4619988
  88.2450012 109.3444997  73.6789988  86.8350012 109.0494997  74.9049988
  86.7680012 110.9454997  73.8339988  86.2350012 110.5214997  72.9559988
  86.0250012 111.2354997  74.6069988  87.7060012 112.1144997  73.3629988
  86.9850012 112.8694997  72.9849988  88.2510012 112.4974997  74.2529988
  88.6410012 111.7254997  72.2029988  89.0200012 110.6844997  72.1249988
  88.1600012 112.0854997  71.2679988  89.9620012 112.5704997  72.2589988
  89.7600012 113.6564997  72.3859988  90.4970012 112.1524997  73.1379988
  90.9510012 112.5334997  71.0579988  91.8550012 113.1364997  71.2879988
  91.1500012 111.4484997  70.9199988  90.4930012 113.0524997  69.7069988
  89.5570012 112.4804997  69.5359988  90.2530012 114.1374997  69.6779988
  91.3800012 112.7214997  68.4779988  90.9010012 113.1944997  67.5939988
  92.3780012 113.1904997  68.6179988  91.6660012 111.2124997  68.2249988
  92.2820012 110.7624997  69.0329988  90.6640012 110.7344997  68.1979988
  92.4860012 110.9124997  67.0069988  92.0080012 111.2474997  66.0619988
  93.4780012 111.4114997  67.0169988  92.7060012 109.4264997  66.8399988
  93.0080012 108.5694997  67.6439988  92.3560012 109.2204997  65.5149988
  92.1000012 107.8874997  65.0679988  92.4680012 107.7354997  64.0309988
  92.4590012 106.9974997  65.6269988  90.5810012 107.7174997  65.0899988
  90.3780012 106.7344997  64.6119988  89.9360012 108.9054997  64.2869988
  90.5570012 109.1594997  63.4019988  88.9790012 108.5314997  63.8659988
  89.5520012 110.0814997  65.0909988  89.0970012 111.4744997  64.2699988
  87.8340012 111.0094997  63.4019988  86.6210012 110.6724997  63.9979988
  86.6700012 110.9004997  65.0839988  85.7140012 111.2934997  63.8319988
  86.2810012 109.1504997  63.9169988  86.9710012 108.6114997  64.5499988
  85.2540012 109.0874997  64.2439988  86.1670012 108.4134997  62.5569988
  87.4600012 108.4404997  61.7859988  88.2850012 108.0564997  62.3679988
  87.3190012 107.7974997  60.9299988  87.7120012 109.4794997  61.6329988
  85.7660012 107.0194997  62.8649988  85.7120012 106.4774997  61.9329988
  86.4610012 106.5984997  63.5759988  84.7720012 106.8564997  63.2549988
  85.1170012 109.0634997  61.7199988  84.1650012 109.0964997  62.2279988
  84.8930012 108.4964997  60.8279988  85.4220012 110.0444997  61.3879988
  88.7220012 112.5494997  65.1959988  90.1880012 111.7744997  63.3789988
  90.0970012 107.7054997  66.4059988  88.8520012 107.3814997  66.8729988
  87.8860012 107.0534997  66.1659988  88.9720012 107.5494997  68.3389988
  89.5310012 108.4664997  68.6209988  89.6260012 106.7054997  68.6439988
  87.5990012 107.3704997  68.9929988  87.1440012 106.3734997  68.8109988
  86.8550012 108.1184997  68.6439988  87.7590012 107.5294997  70.5069988
  88.3540012 108.4044997  70.8469988  88.4940012 106.7204997  70.7019988
  86.5500012 107.2304997  71.3829988  85.8520012 108.0824997  71.2319988
  86.9230012 107.4984997  72.3949988  85.9660012 105.9014997  71.1989988
  86.7220012 105.0904997  71.2689988  85.6280012 105.8614997  70.1409988
  84.5790012 105.5774997  71.9259988  84.1010012 104.7804997  71.3179988
  83.9700012 106.5014997  71.8169988  84.7930012 105.0844997  73.4259988
  85.5850012 105.8094997  73.7129988  85.2300012 104.0714997  73.2969988
  83.5240012 105.0734997  74.2569988  82.8190012 104.2304997  74.1979988
  83.2480012 106.0934997  75.1059988  82.2640012 105.9674997  75.5809988
  84.0360012 107.3544997  75.3809988  83.6120012 108.2264997  74.8389988
  85.0890012 107.3384997  75.0259988  83.9940012 107.6034997  76.9379988
  84.3890012 106.6964997  77.4439988  82.9230012 107.6614997  77.2249988
  84.4870012 109.0564997  77.2799988  83.9880012 109.7724997  76.5919988
  85.5560012 109.2014997  77.0139988  84.2030012 109.5334997  78.6959988
  83.1270012 109.7424997  78.8749988  84.7530012 110.4924997  78.8109988
  84.7410012 108.5474997  79.6749988  85.7520012 108.2584997  79.3169988
  84.1930012 107.5814997  79.6949988  84.8120012 109.1004997  81.1319988
  84.1020012 108.6234997  81.8399988  84.3630012 110.1144997  81.0589988
  86.2360012 109.1664997  81.7829988  86.6870012 108.1524997  81.8349988
  86.2070012 109.6394997  82.7879988  87.1650012 110.0404997  80.9539988
  88.1700012 110.0294997  81.4289988  86.7050012 111.0474997  80.8629988
  87.2560012 109.6924997  79.9029988 111.6810012  75.4184997  84.7129988
 110.9620012  76.0304997  84.1279988 112.7200012  75.8104997  84.7039988
 111.2760012  75.2604997  85.7359988 111.8040012  74.0284997  84.0359988
 112.4120012  73.2944997  84.6079988 110.7430012  73.7234997  83.9159988
 112.3200012  74.1154997  82.5439988 111.8490012  73.2664997  82.0049988
 111.8910012  75.0694997  82.1689988 113.8560012  74.0704997  82.5289988
 114.2920012  74.7104997  83.3249988 114.1960012  73.0504997  82.8089988
 114.4370012  74.2924997  81.0869988 113.9750012  73.6474997  80.3079988
 114.1470012  75.3474997  80.8949988 115.9940012  74.2384997  81.1329988
 116.3460012  74.9614997  80.3669988 116.2950012  74.7104997  82.0929988
 116.5460012  72.9234997  80.8399988 117.5910012  72.8304997  81.2069988
 115.9900012  72.1294997  81.3819988 116.5390012  72.6234997  79.3639988
 115.5560012  72.1894997  79.0789988 116.6780012  73.5964997  78.8459988
 117.4770012  71.4534997  78.9629988 118.5430012  71.6874997  79.1729988
 117.1970012  70.5904997  79.6049988 117.4640012  71.0194997  77.4879988
 117.8090012  71.9294997  76.9519988 118.2430012  70.2414997  77.3359988
 116.0550012  70.5744997  76.9389988 115.7400012  69.6874997  77.5299988
 115.3570012  71.4054997  77.1739988 116.0910012  70.3454997  75.4659988
 117.0470012  69.8344997  75.2229988 115.2450012  69.6654997  75.2269988
 115.8690012  71.6644997  74.7789988 114.8620012  72.1054997  74.9419988
 116.6450012  72.3754997  75.1339988 115.8110012  71.5034997  73.2309988
 116.7480012  70.9174997  73.1179988 114.9150012  70.8724997  73.0459988
 115.8200012  72.7194997  72.3569988 114.8950012  73.2794997  72.6109988
 116.7000012  73.3724997  72.5349988 115.8510012  72.1764997  70.9979988
 116.2780012  71.0684997  70.6979988 115.2920012  73.1174997  70.2589988
 115.0740012  72.6954997  68.8999988 114.7560012  73.6424997  68.4129988
 115.9990012  72.3084997  68.4209988 113.9990012  71.7004997  68.7009988
 114.3700012  70.8494997  69.3109988 113.8430012  71.2754997  67.2149988
 114.8640012  71.1144997  66.8079988 113.3680012  70.2724997  67.1699988
 112.9920012  72.2204997  66.4639988 113.6000012  73.0024997  65.3189988
 113.9240012  71.9834997  64.2869988 113.0290012  70.9744997  64.0859988
 113.2490012  70.1214997  64.7629988 111.9450012  71.1844997  64.2089988
 113.1160012  70.4474997  62.6289988 114.0980012  70.0174997  62.4929988
 112.4680012  69.5884997  62.5429988 112.8910012  71.4214997  61.4939988
 112.9530012  70.6744997  60.1859988 112.1280012  69.9804997  60.1249988
 112.8210012  71.4544997  59.4499988 113.9230012  70.2164997  60.0619988
 111.4490012  71.8144997  61.8129988 110.7930012  70.9584997  61.8639988
 111.6030012  72.2864997  62.7709988 111.0520012  72.5704997  61.1509988
 113.8120012  72.6014997  61.4699988 113.8360012  73.1474997  62.4009988
 113.3820012  73.3524997  60.8239988 114.7920012  72.2854997  61.1429988
 112.6590012  73.9354997  64.6969988 114.8840012  73.6554997  65.7359988
 112.7400012  72.2884997  69.0659988 111.7350012  71.3504997  69.1419988
 111.9160012  70.1484997  69.0319988 110.3340012  71.9844997  69.4949988
 109.8470012  71.2374997  70.1579988 109.8590012  72.0764997  68.4949988
 110.3110012  73.3114997  70.1219988 110.4580012  74.0684997  69.3219988
 111.0000012  73.2904997  70.9929988 108.9610012  73.7114997  70.6779988
 108.1190012  73.1154997  70.2639988 108.8850012  74.7844997  70.3969988
 108.9090012  73.4204997  72.1939988 109.1740012  72.3484997  72.3159988
 107.8590012  73.4124997  72.5559988 109.6860012  74.2884997  73.2179988
 109.3320012  75.3414997  73.1919988 110.7480012  74.3284997  72.8929988
 109.4890012  73.9514997  74.7109988 108.4330012  73.6554997  74.8899988
 109.7660012  74.6884997  75.4939988 110.3550012  72.6304997  75.0959988
 109.7440012  71.7374997  74.8459988 110.4850012  72.6054997  76.1989988
 111.7270012  72.6174997  74.5659988 112.2420012  73.5524997  74.8339988
 112.3360012  71.7464997  73.6989988 113.3840012  71.9544997  73.4349988
 111.6720012  70.4914997  73.1169988 111.7560012  70.4734997  72.0099988
 110.5850012  70.4474997  73.3409988 112.2880012  69.1984997  73.6709988
 113.3890012  69.1934997  73.5229988 111.9370012  68.3234997  73.0829988
 111.9660012  68.8764997  75.1279988 110.8670012  68.7254997  75.1799988
 112.3140012  69.6614997  75.8329988 112.4040012  67.5924997  75.6549988
 113.5140012  67.5784997  75.7039988 112.0650012  66.7614997  75.0009988
 111.8390012  67.2814997  77.1179988 111.7550012  66.2074997  77.3869988
 110.8070012  67.6894997  77.1649988 112.8470012  67.9524997  78.1279988
 113.8290012  68.1584997  77.6499988 113.1660012  67.1844997  78.8649988
 112.2950012  69.1564997  78.9169988 111.2690012  68.8834997  79.2449988
 112.0910012  70.0254997  78.2549988 113.1010012  69.5494997  80.1269988
 113.9960012  70.0414997  79.6889988 113.3670012  68.5734997  80.5849988
 112.4870012  70.2614997  80.7189988 112.0010012  80.4104997  84.1169988
 112.0540012  79.4774997  83.5149988 111.5500012  81.2964997  83.6209988
 111.3340012  80.2544997  84.9919988 113.3580012  81.0164997  84.4589988
 113.3100012  81.7534997  85.2889988 113.9500012  80.2224997  84.9629988
 114.1230012  81.5784997  83.3039988 115.2080012  81.4374997  83.4959988
 113.9660012  81.1234997  82.3029988 114.0350012  83.1284997  83.2689988
 112.9690012  83.3164997  83.0219988 114.3010012  83.5964997  84.2409988
 114.9910012  83.9334997  82.2639988 114.9250012  85.0194997  82.4899988
 116.0570012  83.6214997  82.2719988 114.5450012  83.5624997  80.8199988
 113.9500012  82.6254997  80.7789988 113.9920012  84.3924997  80.3299988
 115.7430012  83.2504997  79.8249988 116.1210012  82.2394997  80.0879988
 115.3480012  83.1294997  78.7939988 116.8810012  84.2134997  79.7189988
 116.4760012  85.1274997  79.2339988 117.2480012  84.4574997  80.7389988
 117.9850012  83.7024997  78.7509988 118.9290012  84.2814997  78.8429988
 118.1230012  82.6164997  78.9429988 117.6790012  83.8484997  77.2479988
 116.8240012  83.1694997  77.0429988 117.2480012  84.8464997  77.0219988
 118.7830012  83.4874997  76.1999988 119.7070012  83.9964997  76.5479988
 119.0270012  82.4074997  76.2819988 118.4280012  83.8964997  74.7529988
 118.0620012  84.9444997  74.7119988 119.3210012  83.8724997  74.0919988
 117.4170012  82.9214997  74.0499988 117.9470012  81.9684997  74.2639988
 116.4050012  82.9084997  74.5069988 117.2280012  83.1504997  72.5379988
 116.5920012  84.0584997  72.6149988 118.2500012  83.2134997  72.1059988
 116.4690012  81.9934997  71.8599988 117.1120012  81.0904997  71.7929988
 115.5510012  81.8024997  72.4549988 115.8400012  82.4454997  70.4979988
 115.9600012  83.5624997  69.9679988 115.0750012  81.4734997  70.0519988
 114.6350012  81.6134997  68.7149988 113.7790012  80.9434997  68.4869988
 114.1840012  82.6064997  68.5029988 115.6820012  81.2254997  67.6779988
 116.4700012  81.9984997  67.8089988 115.1250012  81.2514997  66.2629988
 114.1590012  80.7044997  66.3049988 114.7520012  82.2564997  65.9689988
 116.0550012  80.9784997  65.2329988 115.4950012  80.1644997  63.9789988
 114.2490012  80.9574997  63.4879988 113.2000012  80.2504997  62.8089988
 113.5550012  79.5954997  61.9839988 112.6210012  79.5954997  63.4939988
 112.2100012  81.3184997  62.1549988 112.7510012  82.0054997  61.5209988
 111.6370012  80.7684997  61.4239988 111.3540012  82.1244997  63.0699988
 112.3400012  82.8504997  63.9819988 113.1080012  83.2854997  63.3599988
 111.8260012  83.6474997  64.4979988 112.7890012  82.1764997  64.6969988
 110.5310012  83.1204997  62.3519988 109.7800012  83.5524997  62.9969988
 111.1140012  83.9644997  62.0129988 109.9130012  82.5924997  61.6409988
 110.4280012  81.2884997  63.8959988 109.7440012  80.7374997  63.2689988
 109.9480012  81.9344997  64.6169988 110.9090012  80.5224997  64.4859988
 116.5430012  80.2404997  62.9109988 115.1580012  78.7774997  64.3059988
 116.2310012  79.9644997  67.9719988 117.5290012  79.7834997  67.8359988
 118.3150012  80.4314997  67.1829988 117.8180012  78.4634997  68.5669988
 118.7990012  78.5974997  69.0719988 117.9060012  77.5804997  67.8999988
 116.7460012  78.0934997  69.6029988 115.7640012  77.8764997  69.1309988
 116.6600012  78.9554997  70.2979988 117.1420012  76.8274997  70.4199988
 118.0700012  77.1244997  70.9529988 117.4900012  76.0034997  69.7609988
 116.0730012  76.3794997  71.3539988 116.4040012  75.5124997  71.9649988
 115.1860012  76.0774997  70.7569988 115.6190012  77.4134997  72.4359988
 115.0810012  76.8204997  73.2059988 114.8710012  78.0744997  71.9469988
 116.6890012  78.2854997  73.0209988 116.1880012  79.0834997  73.6099988
 117.3790012  78.7864997  72.3079988 117.6650012  77.5064997  73.9309988
 118.1650012  76.6904997  73.3669988 117.1280012  76.9944997  74.7569988
 118.7500012  78.3844997  74.4999988 119.6060012  78.4664997  73.8139988
 118.6070012  79.0964997  75.6829988 119.4060012  79.7664997  76.0339988
 117.4080012  79.0794997  76.5809988 117.7280012  78.5294997  77.4909988
 116.6220012  78.5084997  76.0419988 116.6880012  80.3874997  77.0239988
 116.5390012  81.0634997  76.1539988 117.3350012  80.8584997  77.7949988
 115.2840012  80.1834997  77.6559988 114.8830012  81.2034997  77.8399988
 115.1120012  79.7024997  78.6429988 114.2460012  79.3964997  76.8029988
 114.3220012  78.3044997  76.9939988 114.5150012  79.5804997  75.7409988
 112.8440012  79.9234997  76.9249988 112.3730012  79.5814997  75.9799988
 112.7030012  81.0214997  77.0199988 111.9150012  79.2854997  77.9929988
 112.0070012  78.1844997  78.1049988 110.8820012  79.6154997  77.7519988
 112.2500012  79.8034997  79.4029988 111.7880012  80.8124997  79.4499988
 113.3270012  79.9394997  79.6359988 111.7620012  79.0024997  80.6479988
 111.9110012  79.3844997  81.6799988 112.1220012  77.9584997  80.5259988
 110.6580012  78.9564997  80.5259988  65.3260012  33.8034997  82.8469988
  64.8330012  32.8204997  83.0009988  64.7460012  34.6444997  83.2829988
  66.3170012  33.8194997  83.3499988  65.7060012  33.9924997  81.3879988
  66.6620012  34.5424997  81.2549988  65.8100012  32.9824997  80.9369988
  64.6250012  34.6984997  80.5539988  63.7300012  34.0424997  80.4959988
  64.3400012  35.6054997  81.1299988  65.0380012  35.1734997  79.1679988
  64.0950012  35.6194997  78.7859988  65.8540012  35.9224997  79.2479988
  65.3550012  34.1674997  78.1129988  66.2770012  33.6614997  78.4709988
  64.5620012  33.4194997  77.8979988  65.6800012  34.7214997  76.7209988
  65.3870012  35.7684997  76.4959988  66.7900012  34.7714997  76.6919988
  65.2230012  33.8464997  75.5039988  65.7460012  32.8674997  75.5339988
  64.1550012  33.6224997  75.7119988  65.4100012  34.4944997  74.1649988
  64.9870012  35.5214997  74.1459988  66.5010012  34.6714997  74.0499988
  64.8010012  33.7264997  73.0009988  65.4390012  32.8604997  72.7239988
  63.7490012  33.3714997  73.0539988  64.9230012  34.6444997  71.8039988
  64.3230012  35.5774997  71.8589988  65.9960012  34.8914997  71.6579988
  64.5300012  33.9594997  70.4789988  65.0100012  32.9624997  70.3739988
  63.4800012  33.6024997  70.4049988  64.8310012  34.7314997  69.1889988
  64.4650012  34.0064997  68.4309988  64.2460012  35.6694997  69.0799988
  66.3540012  35.0714997  68.8699988  66.3700012  35.5994997  67.8929988
  66.4990012  35.8174997  69.6809988  67.4060012  33.9924997  68.9239988
  68.3930012  34.3524997  69.2849988  67.1190012  33.1654997  69.6089988
  67.7110012  33.3524997  67.5259988  67.9680012  34.1534997  66.8009988
  68.4330012  32.5124997  67.6109988  66.5390012  32.5864997  66.9169988
  66.1980012  31.4294997  67.2399988  65.9040012  33.3474997  66.0089988
  64.8130012  32.6994997  65.3889988  65.1630012  31.8144997  64.8149988
  64.0760012  32.3674997  66.1509988  64.0800012  33.7844997  64.5119988
  63.0110012  33.4974997  64.4099988  64.6990012  33.9134997  63.0619988
  64.6370012  32.9154997  62.5769988  64.0410012  34.4954997  62.3819988
  66.0170012  34.5684997  63.1449988  66.9630012  34.3804997  61.8779988
  68.3030012  35.1984997  62.2079988  69.0840012  34.8354997  63.2979988
  69.2020012  33.7364997  63.4049988  70.1220012  35.1644997  63.0779988
  68.6450012  35.4714997  64.6119988  67.6460012  35.0984997  64.7829988
  69.2390012  35.0484997  65.4089988  68.8640012  36.8794997  65.0129988
  68.5170012  36.9504997  66.4789988  68.7650012  37.9104997  66.9089988
  67.4430012  36.8934997  66.5799988  68.9230012  36.0764997  66.9649988
  70.2840012  37.2784997  64.7899988  70.3940012  38.3444997  64.9239988
  70.8390012  36.6854997  65.5029988  70.7190012  36.9204997  63.8689988
  67.9690012  37.7864997  64.1979988  67.9910012  38.7644997  64.6549988
  66.9470012  37.4354997  64.1979988  68.4010012  37.7304997  63.2099988
  67.2870012  32.9164997  61.7759988  66.2050012  35.0444997  60.7829988
  64.1490012  35.0434997  65.1769988  63.5360012  36.0494997  64.6129988
  62.7240012  35.9134997  63.6839988  64.2380012  37.3264997  65.1619988
  64.1550012  38.1854997  64.4629988  65.3300012  37.1344997  65.0919988
  63.8200012  37.7024997  66.5879988  64.1080012  36.8704997  67.2659988
  62.7310012  37.8924997  66.6949988  64.6860012  38.9284997  66.9679988
  64.2180012  39.7664997  66.4089988  65.7180012  38.8164997  66.5739988
  64.7440012  39.1444997  68.4879988  64.0040012  38.5534997  69.0689988
  64.4630012  40.2064997  68.6539988  66.1730012  38.8394997  68.9189988
  66.9090012  39.3524997  68.2639988  66.2420012  37.7334997  68.8359988
  66.4070012  39.2104997  70.4049988  65.8460012  38.5594997  71.1079988
  66.0300012  40.2394997  70.5879988  67.9200012  39.1444997  70.7349988
  68.0410012  39.7594997  71.6519988  68.5180012  39.6724997  69.9619988
  68.3750012  37.7184997  70.8009988  68.0140012  37.1534997  69.9289988
  69.0570012  37.0504997  71.7589988  69.2510012  35.9804997  71.5929988
  69.5990012  37.4404997  73.0589988  69.8990012  38.5074997  72.9779988
  70.4570012  36.7654997  73.2639988  68.4720012  37.1864997  74.1199988
  68.1000012  36.1394997  74.0949988  67.5860012  37.8474997  74.0049988
  69.0740012  37.1684997  75.5379988  69.8400012  36.3794997  75.6959988
  68.3210012  36.7504997  76.2399988  69.5410012  38.4564997  76.0399988
  68.8850012  39.2964997  75.7249988  70.4120012  38.7454997  75.4139988
  69.7900012  38.5484997  77.5399988  70.2510012  39.5494997  77.6849988
  70.4740012  37.6784997  77.6409988  68.6060012  38.5174997  78.5219988
  67.6130012  38.3014997  78.0719988  68.5370012  39.5514997  78.9229988
  68.8310012  37.5354997  79.6469988  69.7680012  37.8794997  80.1339988
  68.9530012  36.4664997  79.3689988  67.8180012  37.5794997  80.7839988
  67.7130012  38.6554997  81.0369988  68.0800012  36.9034997  81.6259988
  66.8300012  37.1804997  80.4699988 115.1780012  59.2744997  84.5829988
 115.4620012  58.3744997  83.9979988 114.4160012  59.8404997  84.0049988
 114.8200012  58.8464997  85.5429988 116.3460012  60.2884997  84.8099988
 115.8080012  61.0164997  85.4539988 117.1110012  59.8544997  85.4879988
 117.0000012  60.9224997  83.5719988 117.7580012  61.6014997  84.0169988
 117.5480012  60.1984997  82.9309988 116.0700012  61.7104997  82.5829988
 115.0290012  61.3254997  82.5309988 116.0820012  62.7304997  83.0229988
 116.6600012  61.8714997  81.1699988 117.6140012  62.4244997  81.3099988
 116.8780012  60.8494997  80.7929988 115.7800012  62.7304997  80.2219988
 114.7700012  62.3024997  80.0439988 115.7470012  63.7664997  80.6229988
 116.4600012  62.9224997  78.8059988 117.3760012  63.4824997  79.0899988
 116.5450012  61.8854997  78.4169988 115.5390012  63.7624997  77.8779988
 114.5300012  63.3004997  77.8329988 115.4520012  64.7494997  78.3799988
 116.0750012  63.9444997  76.4019988 117.1410012  64.2534997  76.4709988
 116.0460012  62.9714997  75.8669988 115.5080012  65.1394997  75.6299988
 114.3980012  65.1144997  75.6799988 115.9290012  66.0984997  76.0009988
 115.8570012  65.0794997  74.1479988 116.9620012  64.9674997  74.1449988
 115.4470012  64.2104997  73.5889988 115.3620012  66.3994997  73.4549988
 114.4600012  66.7264997  74.0149988 116.2000012  67.1054997  73.6379988
 114.9680012  66.3654997  71.9909988 115.8110012  66.0444997  71.3429988
 114.1650012  65.6184997  71.8099988 114.5430012  67.6954997  71.3019988
 113.7120012  68.1524997  71.8819988 115.4770012  68.2964997  71.2779988
 114.0570012  67.5304997  69.8019988 113.1840012  66.8424997  69.8269988
 113.5930012  68.4814997  69.4649988 115.2810012  67.1824997  68.8699988
 115.7000012  67.9294997  68.0359988 115.5700012  65.9024997  68.9459988
 116.4130012  65.3194997  67.8319988 116.1660012  65.8324997  66.8779988
 117.4700012  65.5164997  68.1109988 116.1560012  63.8094997  67.6239988
 116.6610012  63.2484997  68.4389988 116.6660012  63.2234997  66.3109988
 117.7200012  63.5394997  66.1579988 116.7560012  62.1164997  66.3209988
 115.8000012  63.5484997  65.2329988 116.2940012  63.4154997  63.6939988
 114.9730012  64.0014997  62.8719988 114.1480012  63.1074997  62.1509988
 113.6390012  63.6934997  61.3559988 114.7280012  62.2714997  61.7049988
 112.9880012  62.5154997  63.0219988 112.5790012  61.6964997  62.4479988
 113.4180012  61.9194997  63.8139988 111.8010012  63.3924997  63.5689988
 112.2700012  64.5454997  64.3779988 112.8440012  65.3174997  63.8879988
 111.4410012  65.1244997  64.7579988 112.8320012  64.1274997  65.1999988
 111.1860012  63.9934997  62.3139988 111.9850012  64.5814997  61.8889988
 110.9630012  63.1314997  61.7009988 110.3190012  64.6004997  62.5289988
 110.7870012  62.5164997  64.2059988 110.4440012  61.8774997  63.4059988
 109.9480012  63.0964997  64.5589988 111.3870012  62.0274997  64.9599988
 117.3740012  64.3834997  63.3969988 116.6180012  62.0054997  63.3449988
 114.7830012  63.5214997  67.7359988 114.3790012  62.4104997  68.1999988
 114.9920012  61.6214997  68.8239988 112.8490012  62.3094997  67.7939988
 112.7550012  61.4274997  67.1249988 112.5530012  63.1664997  67.1519988
 111.8400012  62.1144997  68.9649988 112.1250012  61.1864997  69.5059988
 110.8170012  61.9544997  68.5619988 111.6540012  63.2664997  69.9759988
 111.2400012  64.1474997  69.4409988 112.6160012  63.5674997  70.4439988
 110.6770012  63.0284997  71.1409988 111.1250012  62.3584997  71.9059988
 109.8750012  62.4904997  70.5909988 110.3210012  64.3604997  71.7439988
 109.3460012  64.1354997  72.2259988 110.1570012  65.1924997  71.0269988
 111.3070012  64.8574997  72.8849988 112.3540012  64.8474997  72.5129988
 111.1960012  64.1564997  73.7389988 110.9460012  66.3134997  73.2929988
 111.1420012  67.0864997  72.5189988 111.6670012  66.5624997  74.1019988
 109.4850012  66.2984997  73.7899988 108.7000012  66.4404997  73.0329988
 109.1550012  66.0984997  75.0539988 108.1010012  66.1624997  75.3599988
 110.0990012  65.9084997  76.2109988 111.1630012  66.1464997  75.9989988
 110.1300012  64.8044997  76.3389988 109.5420012  66.5954997  77.5019988
 108.4860012  66.2944997  77.6679988 109.5880012  67.6914997  77.3229988
 110.2700012  66.2104997  78.8029988 109.7200012  66.7254997  79.6189988
 111.3180012  66.5484997  78.6589988 110.3920012  64.6664997  79.1349988
 111.1000012  64.0674997  78.5239988 109.3640012  64.3614997  78.8449988
 110.4750012  64.3074997  80.6189988 110.2680012  63.2234997  80.7469988
 109.6300012  64.8904997  81.0449988 111.7820012  64.7534997  81.2489988
 112.0840012  65.7594997  80.8869988 112.5730012  64.0164997  80.9939988
 111.6190012  64.7894997  82.7599988 111.4790012  63.7534997  83.1359988
 110.7690012  65.4554997  83.0169988 112.8560012  65.2524997  83.6489988
 112.5950012  65.2904997  84.7279988 113.1540012  66.2844997  83.3639988
 113.7330012  64.5704997  83.6409988  57.8850012 106.8534997  84.6349988
  57.3200012 107.1704997  85.5379988  58.9680012 106.8534997  84.8859988
  57.5090012 105.8504997  84.3409988  57.7860012 107.7434997  83.3379988
  56.7170012 107.6844997  83.0389988  58.0170012 108.7754997  83.6789988
  58.6150012 107.3324997  82.1809988  59.6530012 107.1844997  82.5469988
  58.3000012 106.2944997  81.9369988  58.5460012 108.2294997  80.9659988
  57.4710012 108.4394997  80.7779988  59.1750012 109.0964997  81.2599988
  59.1900012 107.6254997  79.6979988  59.9890012 108.2724997  79.2769988
  59.8120012 106.7134997  79.8259988  58.2570012 107.3274997  78.5529988
  57.7290012 108.2344997  78.1869988  58.8380012 106.9184997  77.6979988
  57.1830012 106.2534997  78.9819988  57.7540012 105.3974997  79.4019988
  56.6160012 106.7124997  79.8199988  56.2390012 105.7724997  77.8369988
  55.5570012 104.9814997  78.2139988  55.5630012 106.6184997  77.5889988
  56.9090012 105.3244997  76.5409988  57.8520012 105.9064997  76.4559988
  57.1470012 104.2504997  76.6939988  55.9220012 105.1594997  75.3409988
  54.8710012 104.9574997  75.6409988  55.9030012 106.1164997  74.7779988
  56.3630012 104.1714997  74.2629988  57.4670012 104.2634997  74.1859988
  56.2660012 103.1474997  74.6849988  55.4540012 104.1954997  73.0069988
  55.9030012 103.4924997  72.2729988  54.4340012 103.8844997  73.3189988
  55.4260012 105.6134997  72.3409988  54.7650012 105.3864997  71.4779988
  54.9520012 106.3664997  73.0059988  56.8340012 106.1694997  71.8649988
  57.4220012 106.5474997  72.7279988  57.3150012 105.2654997  71.4339988
  56.7050012 107.3104997  70.8809988  55.9610012 108.0674997  71.2109988
  57.6680012 107.8634997  70.8559988  56.4140012 106.8434997  69.4269988
  55.9890012 105.7064997  69.1879988  56.5110012 107.8214997  68.5629988
  55.8730012 107.5254997  67.3329988  56.5830012 106.9194997  66.7309988
  54.8920012 107.0654997  67.5799988  55.6970012 108.7794997  66.5769988
  55.1950012 108.7254997  65.5879988  57.0600012 109.3934997  66.2849988
  57.5020012 109.7684997  67.2319988  57.8110012 108.6934997  65.8599988
  56.9300012 110.5154997  65.5149988  56.8720012 110.4064997  63.9339988
  57.3950012 108.8724997  63.5559988  56.6180012 108.0284997  62.6579988
  55.7440012 107.6564997  63.2349988  56.2390012 108.5704997  61.7649988
  57.3630012 106.7554997  62.1119988  56.5020012 106.3044997  61.6409988
  58.1190012 107.0264997  61.3889988  58.1390012 105.8484997  63.0649988
  59.4160012 106.5104997  63.5699988  60.1740012 106.5794997  62.8049988
  59.2670012 107.4164997  64.1389988  59.8810012 105.8664997  64.3019988
  57.2430012 105.5494997  64.2609988  56.4840012 106.2944997  64.4529988
  56.7170012 104.6294997  64.0549988  57.7720012 105.4064997  65.1909988
  58.4990012 104.5034997  62.5979988  58.9600012 104.1304997  63.5009988
  59.1890012 104.5244997  61.7669988  57.6430012 103.9434997  62.2539988
  55.5030012 110.4994997  63.5179988  57.9470012 111.3874997  63.3939988
  54.9670012 109.7754997  67.3859988  53.7100012 109.7484997  67.4129988
  52.9400012 109.0074997  66.7669988  53.2370012 110.8674997  68.4359988
  52.4700012 110.4834997  69.1419988  52.6730012 111.6354997  67.8649988
  54.4270012 111.5684997  69.0949988  54.1410012 112.5854997  69.4409988
  55.2810012 111.7874997  68.4189988  54.8920012 110.7624997  70.3639988
  55.2430012 109.7724997  70.0029988  53.9940012 110.6054997  70.9999988
  55.8050012 111.5684997  71.2139988  55.8130012 112.5704997  70.7349988
  56.8550012 111.2164997  71.1169988  55.5310012 111.7554997  72.7049988
  54.5180012 112.1744997  72.8859988  56.1540012 112.6004997  73.0679988
  55.7630012 110.5024997  73.5769988  56.8360012 110.3474997  73.8219988
  55.4410012 109.5924997  73.0279988  54.8710012 110.6484997  74.9689988
  53.8610012 110.3254997  74.6379988  54.7420012 111.7284997  75.1939988
  55.3610012 109.8434997  76.1299988  55.0660012 108.7964997  75.9669988
  55.9830012 110.2874997  77.3189988  56.3370012 109.5484997  78.0529988
  56.3170012 111.7564997  77.7089988  56.5420012 112.4124997  76.8409988
  57.2140012 111.8224997  78.3619988  55.1230012 112.4924997  78.3799988
  54.2090012 112.5074997  77.7489988  55.4330012 113.5464997  78.5469988
  54.8450012 111.9044997  79.8089988  54.6690012 110.8184997  79.6539988
  53.9050012 112.3334997  80.2169988  55.9190012 112.1404997  80.8629988
  56.3640012 113.1424997  80.6859988  56.7940012 111.4804997  80.6779988
  55.5350012 111.9334997  82.3029988  54.6800012 112.6164997  82.4939988
  56.3120012 112.3304997  82.9909988  55.0780012 110.5524997  82.5809988
  55.9030012 109.8214997  82.4459988  54.2450012 110.2724997  81.9009988
  54.6670012 110.3264997  84.0389988  55.5960012 110.6094997  84.5769988
  54.4470012 109.2504997  84.2059988  53.4470012 111.0514997  84.4319988
  53.4140012 112.0894997  84.0359988  53.3440012 111.1044997  85.5369988
  52.6310012 110.4994997  83.9179988  28.6950012  89.6444997  80.0359988
  28.0330012  90.3174997  79.4499988  29.7370012  90.0164997  80.1399988
  28.2200012  89.7024997  81.0389988  28.5980012  88.1974997  79.6239988
  28.9830012  87.4584997  80.3579988  27.5270012  87.9334997  79.4919988
  29.1900012  87.7764997  78.2709988  28.7720012  86.8004997  77.9439988
  28.8240012  88.5854997  77.6039988  30.7220012  87.7824997  78.1349988
  31.1190012  88.8154997  78.0409988  31.0780012  87.4524997  79.1339988
  31.2900012  86.8514997  77.0929988  32.3830012  86.6714997  77.1749988
  30.8050012  85.8524997  77.1279988  31.0290012  87.2464997  75.6669988
  31.5620012  86.4914997  75.0509988  29.9480012  87.1494997  75.4309988
  31.3180012  88.6224997  75.0889988  30.5130012  89.3394997  75.3619988
  32.3730012  88.8904997  75.3109988  31.3430012  88.4304997  73.5339988
  30.6630012  87.6104997  73.2189988  30.9620012  89.3164997  72.9829988
  32.7760012  88.2984997  72.9339988  33.3510012  89.2074997  73.2109988
  33.3260012  87.4254997  73.3459988  32.7340012  88.0814997  71.4069988
  32.2410012  88.9924997  71.0059988  33.7880012  87.9944997  71.0649988
  31.7670012  86.9034997  71.0399988  31.9890012  86.0674997  71.7379988
  30.7380012  87.2614997  71.2549988  31.8420012  86.3804997  69.5859988
  31.4280012  87.1544997  68.9049988  32.8770012  86.2824997  69.1939988
  31.0850012  84.9904997  69.3969988  31.4900012  84.4474997  70.2779988
  29.9830012  85.0654997  69.5159988  31.4680012  84.2494997  68.1439988
  31.3110012  84.8214997  67.2049988  32.5720012  84.1354997  68.2039988
  30.9050012  82.8694997  67.8089988  31.4100012  82.6094997  66.8539988
  31.1260012  82.1574997  68.6319988  29.4290012  82.9224997  67.4909988
  28.6020012  83.2214997  68.2639988  29.1560012  82.4184997  66.2429988
  27.8040012  82.4204997  65.8099988  27.6170012  81.5754997  65.1139988
  27.1080012  82.2494997  66.6589988  27.4330012  83.7764997  65.1589988
  26.3240012  83.8414997  65.1739988  27.9420012  83.9864997  63.7399988
  29.0140012  83.6964997  63.7049988  27.4250012  83.3564997  62.9839988
  27.6640012  85.3474997  63.4469988  28.3170012  85.8964997  62.1659988
  29.7870012  86.2184997  62.5919988  30.3680012  86.0404997  63.8899988
  29.5430012  86.0184997  64.6339988  30.9100012  85.0714997  63.8399988
  31.3260012  87.2824997  64.1879988  32.0470012  86.9954997  64.9389988
  31.9200012  87.3904997  63.2929988  30.7030012  88.5814997  64.6229988
  29.5990012  88.9114997  63.7009988  29.9370012  89.2954997  62.7499988
  29.0110012  88.0114997  63.6049988  29.0080012  89.7364997  64.0709988
  30.1750012  88.3894997  66.0169988  29.4730012  87.5724997  66.0959988
  30.9920012  88.2334997  66.7059988  29.7880012  89.3254997  66.3929988
  31.6750012  89.7804997  64.5919988  32.1690012  89.7394997  63.6329988
  32.4220012  89.6644997  65.3639988  31.1810012  90.7344997  64.7129988
  28.3940012  84.8754997  61.0759988  27.5990012  87.1824997  61.8869988
  27.8970012  84.8774997  65.9749988  27.0230012  85.2294997  66.9709988
  25.9750012  84.7124997  67.2729988  27.5270012  86.5634997  67.5549988
  27.5060012  87.4014997  66.8259988  28.6020012  86.4294997  67.8009988
  26.7700012  87.0874997  68.7939988  26.4000012  86.2644997  69.4409988
  25.8530012  87.6114997  68.4479988  27.6330012  87.9324997  69.8299988
  28.0730012  88.8474997  69.3779988  28.5490012  87.3874997  70.1419988
  26.7600012  88.0824997  71.1139988  26.4160012  87.0564997  71.3659988
  25.9130012  88.7194997  70.7799988  27.4870012  88.9134997  72.2769988
  27.8580012  89.8394997  71.7869988  28.2410012  88.2614997  72.7649988
  26.4800012  89.2604997  73.3659988  25.6760012  89.7704997  72.7939988
  26.9100012  89.9124997  74.1569988  25.8870012  88.0334997  74.1849988
  25.5370012  87.3594997  73.3739988  24.9370012  88.3874997  74.6399988
  26.8590012  87.3574997  75.1049988  27.1050012  87.7854997  76.0879988
  27.4970012  86.1264997  74.9619988  28.0300012  85.6854997  75.8169988
  27.3770012  85.1594997  73.7819988  26.9110012  85.7404997  72.9579988
  26.6920012  84.3564997  74.1289988  28.7690012  84.5854997  73.2809988
  29.3280012  85.5104997  73.0249988  28.6640012  84.0334997  72.3229988
  29.6790012  83.8364997  74.3599988  29.9030012  84.5204997  75.2059988
  30.6760012  83.5554997  73.9559988  28.9810012  82.6084997  74.9269988
  28.6790012  81.8804997  74.1439988  28.0180012  82.9314997  75.3779988
  29.7130012  81.8084997  76.0789988  30.5920012  81.2374997  75.7119988
  28.9830012  81.0514997  76.4379988  30.3010012  82.5404997  77.3049988
  31.1880012  83.1314997  76.9909988  30.7520012  81.8604997  78.0599988
  29.3250012  83.3074997  78.1019988  28.5560012  82.5584997  78.3899988
  28.6660012  84.0204997  77.5629988  29.8610012  84.0284997  79.3269988
  29.8030012  83.3504997  80.2049988  29.1460012  84.8604997  79.5039988
  30.9100012  84.3864997  79.2449988  35.5190012  51.7784997  83.5899988
  34.6750012  52.4074997  83.2349988  36.3490012  52.2264997  83.0029988
  35.6770012  52.1164997  84.6359988  35.4900012  50.3194997  83.4199988
  36.5300012  49.9374997  83.4989988  34.9840012  49.7254997  84.2099988
  34.9420012  49.8594997  82.0689988  35.4550012  50.2814997  81.1789988
  35.2240012  48.7864997  82.0149988  33.4560012  49.8584997  82.0889988
  33.2050012  49.2744997  82.9999988  33.1850012  50.9114997  82.3179988
  32.7660012  49.2294997  80.8399988  33.1830012  48.1994997  80.8319988
  31.6920012  49.1674997  81.1159988  32.9710012  49.9734997  79.6029988
  32.1600012  50.7304997  79.5479988  33.9200012  50.5344997  79.7399988
  33.1270012  49.2664997  78.2939988  32.3060012  48.5434997  78.1019988
  33.0810012  50.0094997  77.4689988  34.4330012  48.5374997  78.0579988
  35.2500012  49.2794997  78.1889988  34.5410012  47.7104997  78.7919988
  34.6560012  47.9894997  76.6549988  35.5850012  47.3824997  76.6109988
  33.7710012  47.3334997  76.5119988  34.6530012  49.0794997  75.5849988
  33.6750012  49.5984997  75.6659988  35.5060012  49.7644997  75.7799988
  34.7300012  48.4514997  74.1239988  35.2890012  47.4914997  74.1029988
  33.7310012  48.0324997  73.8769988  34.9700012  49.5184997  72.9739988
  34.7040012  48.9684997  72.0459988  34.2860012  50.3824997  73.1139988
  36.4530012  49.9304997  72.9879988  36.5850012  50.4984997  73.9329988
  37.1360012  49.0544997  72.9599988  36.9140012  50.8294997  71.7599988
  37.9890012  51.0994997  71.8369988  36.8070012  50.1514997  70.8859988
  36.0140012  52.0714997  71.6009988  34.9910012  51.6544997  71.4819988
  36.1520012  52.7804997  72.4449988  36.3490012  52.6634997  70.2279988
  37.4590012  52.7184997  69.7429988  35.2790012  52.9474997  69.6499988
  35.4220012  53.4114997  68.3019988  34.4320012  53.8304997  68.0209988
  36.2260012  54.1534997  68.1099988  35.7340012  52.2694997  67.3369988
  36.7530012  51.8954997  67.5709988  35.7220012  52.5354997  65.7979988
  36.1690012  53.5414997  65.6519988  36.4210012  51.8564997  65.2639988
  34.4390012  52.2344997  65.2559988  33.3790012  53.3014997  64.8279988
  33.0020012  52.8134997  63.3249988  34.0680012  52.5834997  62.4459988
  33.7350012  52.8034997  61.4089988  34.9190012  53.2944997  62.5189988
  34.6510012  51.1394997  62.3859988  35.3190012  51.0264997  61.5449988
  35.3100012  50.9584997  63.2219988  33.6940012  49.9604997  62.3309988
  32.8730012  49.7844997  63.6139988  33.5100012  49.4944997  64.4369988
  32.4960012  50.7624997  63.8739988  32.1650012  48.9914997  63.4239988
  32.7110012  50.2534997  61.2169988  32.0570012  51.0534997  61.5329988
  33.2860012  50.5044997  60.3379988  32.1710012  49.3434997  61.0029988
  34.4650012  48.6284997  62.0879988  33.8420012  47.7474997  62.0519988
  35.0360012  48.4774997  62.9919988  35.0430012  48.5864997  61.1769988
  32.2340012  53.0844997  65.7299988  34.0130012  54.6294997  64.9619988
  34.7180012  51.2554997  67.6039988  35.1280012  49.9964997  67.7399988
  36.2640012  49.6544997  67.5379988  34.0590012  49.0374997  68.1429988
  34.5270012  48.0884997  68.4809988  33.4450012  48.8374997  67.2379988
  33.1230012  49.4614997  69.3169988  33.5940012  50.1664997  70.0349988
  32.7750012  48.6324997  69.9689988  31.8710012  50.1554997  68.8459988
  31.4150012  49.5724997  68.0179988  32.0570012  51.1684997  68.4299988
  30.8710012  50.2354997  69.9579988  30.9000012  49.2804997  70.5229988
  29.8090012  50.2474997  69.6319988  30.9830012  51.4074997  70.8509988
  30.4340012  52.2484997  70.3759988  32.0700012  51.5214997  71.0519988
  30.2000012  51.2844997  72.2469988  30.6180012  50.5444997  72.9629988
  29.1330012  51.0194997  72.0889988  30.2030012  52.6724997  73.0169988
  29.9490012  52.6064997  74.0969988  29.4270012  53.3444997  72.5929988
  31.5160012  53.4784997  72.9179988  31.6800012  54.0904997  72.0189988
  32.5360012  53.4934997  73.7959988  33.4020012  54.0904997  73.4739988
  32.6080012  52.8214997  75.1219988  33.5610012  52.2794997  75.2979988
  31.7520012  52.1144997  75.1629988  32.4780012  53.9164997  76.1539988
  31.7880012  54.7174997  75.8149988  33.5160012  54.3004997  76.2489988
  31.9940012  53.3614997  77.5649988  32.1590012  52.2654997  77.6459988
  30.9190012  53.4864997  77.8149988  32.6030012  54.0464997  78.8049988
  32.1410012  53.6394997  79.7299988  32.4380012  55.1204997  78.5769988
  34.0790012  53.6114997  78.9309988  34.7240012  53.9874997  78.1089988
  34.1160012  52.5084997  79.0539988  34.7490012  54.1274997  80.2409988
  35.7760012  53.7044997  80.2169988  34.2040012  53.7814997  81.1449988
  34.9110012  55.5754997  80.3409988  33.9430012  56.1154997  80.2639988
  35.5270012  55.8654997  79.4639988  35.6270012  56.0034997  81.6319988
  36.6630012  55.6414997  81.8019988  35.1050012  55.5394997  82.4959988
  35.5910012  57.1144997  81.6239988 111.1200012  58.0724997  83.9949988
 110.9170012  58.7984997  83.1789988 111.6650012  58.6814997  84.7469988
 110.1960012  57.6704997  84.4629988 112.0790012  56.9964997  83.5979988
 113.0790012  57.4294997  83.3799988 112.2000012  56.3894997  84.5199988
 111.5530012  56.1384997  82.3899988 112.1510012  55.2224997  82.1939988
 110.5340012  55.7344997  82.5689988 111.3110012  56.8984997  81.0769988
 111.0500012  56.1544997  80.2939988 110.4730012  57.6274997  81.0999988
 112.5430012  57.6714997  80.4569988 112.8120012  58.3434997  81.2999988
 113.3230012  56.9084997  80.2489988 112.1850012  58.1854997  79.0649988
 111.2530012  58.7744997  79.1979988 112.9580012  58.9054997  78.7209988
 112.0850012  57.1064997  77.9899988 113.0540012  56.5674997  77.9269988
 111.2260012  56.4234997  78.1689988 111.7360012  57.7904997  76.5549988
 110.8750012  58.4924997  76.5629988 112.6130012  58.3184997  76.1249988
 111.1390012  56.7474997  75.5029988 110.4140012  55.9874997  75.8639988
 110.6360012  57.2614997  74.6559988 112.3010012  55.8994997  74.8869988
 113.0590012  56.5654997  74.4219988 112.8850012  55.3674997  75.6679988
 111.7490012  54.6254997  74.1699988 112.6710012  54.0694997  73.8969988
 110.9730012  54.0684997  74.7359988 111.2620012  54.9404997  72.7639988
 110.5230012  55.7674997  72.8289988 112.1330012  55.1824997  72.1179988
 110.6150012  53.7594997  71.9989988 111.2920012  52.9404997  71.6759988
 109.7560012  53.4094997  72.6109988 109.7640012  54.3494997  70.7789988
 108.7750012  53.8444997  70.7429988 109.6260012  55.4374997  70.9569988
 110.5000012  54.1114997  69.4889988 111.5680012  54.3694997  69.6599988
 110.5200012  53.0304997  69.2349988 109.7850012  54.9614997  68.4069988
 108.5750012  54.9914997  68.1509988 110.7480012  55.5974997  67.7129988
 110.2330012  56.6494997  66.8619988 109.6330012  56.1664997  66.0609988
 109.5680012  57.3084997  67.4599988 111.4140012  57.3784997  66.2229988
 111.0440012  58.2404997  65.6279988 112.3340012  56.4034997  65.4319988
 111.7180012  55.8814997  64.6689988 112.9060012  57.0894997  64.7709988
 113.0830012  55.6094997  66.3399988 113.6570012  54.3284997  65.7799988
 113.5030012  54.3864997  64.1969988 113.3680012  53.0964997  63.4619988
 113.9620012  52.2474997  63.8629988 112.3130012  52.7814997  63.6049988
 113.4670012  53.1124997  61.9179988 113.9110012  52.2064997  61.5319988
 112.4330012  53.1214997  61.6049988 114.2130012  54.2404997  61.2669988
 115.5220012  54.5214997  61.9319988 116.2700012  53.7424997  61.9609988
 115.8800012  55.4704997  61.5629988 115.3710012  54.8104997  62.9609988
 114.5150012  53.9134997  59.7979988 115.2860012  53.1574997  59.7739988
 113.5970012  53.5404997  59.3669988 114.7170012  54.8334997  59.2699988
 113.3300012  55.4684997  61.2569988 113.8850012  56.3164997  60.8839988
 112.9380012  55.7104997  62.2339988 112.4990012  55.2814997  60.5929988
 115.1280012  54.1964997  66.0319988 112.7560012  53.1684997  66.1999988
 112.2510012  57.9124997  67.2999988 111.8530012  58.9684997  67.9879988
 110.7060012  59.3534997  68.0499988 112.9600012  59.6094997  68.8679988
 112.8100012  60.7024997  68.7419988 114.0050012  59.4254997  68.5359988
 112.8670012  59.1324997  70.2669988 111.8660012  59.2184997  70.7409988
 113.5260012  59.7554997  70.9099988 113.3160012  57.5834997  70.3849988
 113.2600012  57.0334997  69.4219988 112.6310012  57.0544997  71.0819988
 114.7630012  57.3054997  70.9039988 115.1620012  57.9194997  71.7389988
 115.3030012  57.5904997  69.9759988 115.1250012  55.8214997  70.9329988
 114.2510012  55.4094997  71.4799988 116.1080012  55.5784997  71.3899988
 115.0770012  55.1224997  69.5009988 115.7890012  55.5744997  68.7779988
 114.0540012  55.1644997  69.0689988 115.4430012  53.6194997  69.6539988
 116.3960012  53.5864997  70.2239988 115.5200012  53.1054997  68.6719988
 114.3740012  52.9084997  70.4339988 113.3780012  52.9834997  69.9729988
 114.4690012  52.3364997  71.6789988 113.5480012  51.8954997  72.0889988
 115.6760012  52.3534997  72.6279988 116.6210012  52.3834997  72.0459988
 115.7070012  51.3914997  73.1829988 115.7060012  53.4624997  73.7049988
 114.6530012  53.5854997  74.0369988 115.9780012  54.4424997  73.2559988
 116.5090012  52.9474997  74.8799988 117.5790012  52.8664997  74.5929988
 116.2880012  51.8664997  75.0159988 116.3820012  53.6034997  76.3129988
 116.5350012  54.7034997  76.2899988 117.0610012  53.0734997  77.0139988
 115.0370012  53.3274997  77.0039988 114.9490012  52.2884997  77.3879988
 114.3130012  53.6074997  76.2089988 114.7850012  54.2334997  78.1949988
 113.6890012  54.2264997  78.3739988 115.3480012  55.1644997  77.9669988
 115.3500012  53.6604997  79.5739988 116.4250012  53.4124997  79.4359988
 114.7850012  52.7404997  79.8359988 115.2440012  54.6414997  80.7529988
 114.2020012  54.6174997  81.1389988 115.4530012  55.6724997  80.3949988
 115.9770012  54.3514997  81.5359988  49.0410012  37.1764997  81.8799988
  48.0430012  36.6884997  81.8629988  49.1200012  37.9984997  81.1369988
  49.0800012  37.5064997  82.9399988  50.2470012  36.1484997  81.5819988
  51.1850012  36.5814997  81.9919988  49.9040012  35.2564997  82.1479988
  50.4640012  35.8434997  80.1789988  50.8670012  36.7424997  79.6649988
  51.3010012  35.1134997  80.1919988  49.1380012  35.4394997  79.4509988
  48.5370012  35.0374997  80.2949988  48.5130012  36.2914997  79.1049988
  49.3820012  34.4224997  78.3809988  49.8370012  33.5484997  78.8949988
  48.3690012  34.2834997  77.9469988  50.3660012  34.9064997  77.3029988
  51.4270012  35.1114997  77.5599988  50.4470012  34.0494997  76.6009988
  49.8290012  36.0674997  76.4009988  48.8660012  35.6954997  75.9879988
  49.6150012  37.0114997  76.9459988  50.6370012  36.3904997  75.1019988
  51.7320012  36.5174997  75.2399988  50.5320012  35.4364997  74.5409988
  49.9530012  37.4644997  74.2069988  49.1450012  36.9094997  73.6829988
  49.4370012  38.0644997  74.9859988  50.8460012  38.2574997  73.3559988
  50.2140012  38.9774997  72.7939988  51.5490012  38.9504997  73.8669988
  51.5520012  37.3364997  72.3219988  52.2550012  36.5784997  72.7279988
  50.7540012  36.7584997  71.8089988  52.3280012  37.9934997  71.1699988
  52.6160012  37.2834997  70.3649988  51.7320012  38.7224997  70.5789988
  53.6920012  38.5674997  71.6859988  53.5820012  39.3874997  72.4279988
  54.3510012  37.8074997  72.1579988  54.6840012  38.8264997  70.5949988
  55.6690012  39.0324997  71.0659988  54.6790012  37.8844997  70.0059988
  54.2990012  39.9904997  69.6559988  53.5390012  40.6994997  70.0509988
  55.1850012  40.6504997  69.5409988  53.6600012  39.6604997  68.2479988
  52.9810012  40.4284997  67.6089988  53.9920012  38.4094997  67.9029988
  53.7910012  38.1014997  66.5279988  52.7040012  37.9774997  66.3329988
  54.2310012  38.8744997  65.8629988  54.6400012  36.8554997  66.1739988
  55.6930012  37.2084997  66.1719988  54.3770012  36.4734997  64.6589988
  53.3760012  36.9274997  64.5009988  55.1980012  36.9834997  64.1109988
  54.1980012  35.0564997  64.4149988  53.4390012  34.5704997  63.1499988
  52.4390012  35.7054997  62.8289988  51.2040012  35.4214997  62.1179988
  50.9430012  36.2544997  61.4319988  51.2320012  34.5624997  61.4139988
  50.0160012  35.2334997  63.0959988  49.1260012  35.0694997  62.5069988
  50.1220012  34.3934997  63.7669988  49.6320012  36.3624997  64.0219988
  49.4510012  37.7064997  63.2429988  48.7840012  37.6144997  62.3989988
  49.0550012  38.4954997  63.8649988  50.4330012  37.9884997  62.8929988
  48.3100012  36.0524997  64.6659988  47.6460012  35.9644997  63.8189988
  48.3500012  35.0894997  65.1529988  48.0280012  36.7854997  65.4069988
  50.7760012  36.5324997  65.0089988  51.6530012  36.7994997  64.4379988
  50.9150012  35.5454997  65.4249988  50.4630012  37.2374997  65.7649988
  54.3590012  34.3094997  62.0059988  52.6910012  33.4094997  63.6249988
  54.3780012  35.7034997  67.0219988  55.2950012  35.5194997  67.9329988
  56.2670012  36.2524997  68.1689988  54.9040012  34.2464997  68.7099988
  54.4410012  33.6104997  67.9259988  54.1440012  34.6064997  69.4359988
  56.0500012  33.6364997  69.6089988  56.9710012  33.3974997  69.0359988
  55.6100012  32.6584997  69.8989988  56.4340012  34.5244997  70.8839988
  56.6120012  35.5814997  70.5919988  57.3670012  34.0764997  71.2879988
  55.4140012  34.6364997  72.0739988  55.2670012  33.6124997  72.4789988
  54.4140012  34.8684997  71.6489988  55.8330012  35.6174997  73.1759988
  55.7840012  36.6074997  72.6749988  56.8980012  35.4354997  73.4319988
  54.9990012  35.5714997  74.5299988  55.1330012  34.5694997  74.9919988
  53.9370012  35.7124997  74.2379988  55.4560012  36.6174997  75.6309988
  56.4320012  36.2644997  76.0259988  54.8600012  36.3874997  76.5399988
  55.5310012  38.0804997  75.1919988  56.2050012  38.3784997  74.3749988
  54.8550012  39.0704997  75.8519988  54.9070012  40.0644997  75.3839988
  53.9430012  38.9634997  77.0359988  54.1930012  38.0094997  77.5469988
  52.9240012  38.8984997  76.5989988  54.1140012  40.0684997  78.0969988
  53.4020012  40.0384997  78.9489988  53.9920012  41.0514997  77.5939988
  55.4750012  40.1824997  78.8069988  55.5040012  41.0654997  79.4799988
  56.2300012  40.3784997  78.0159988  55.9250012  39.0024997  79.6989988
  56.9660012  39.0674997  80.0819988  55.9980012  38.1894997  78.9449988
  54.8970012  38.4304997  80.6329988  53.8460012  38.6434997  80.3419988
  55.0620012  38.9754997  81.5869988  55.0130012  36.8884997  80.9269988
  54.3420012  36.6464997  81.7779988  56.0820012  36.7144997  81.1739988
  54.4520012  35.9964997  79.8249988  54.7430012  36.2924997  78.7939988
  53.3640012  36.1764997  79.6969988  54.5550012  34.4964997  80.1049988
  54.8900012  34.3154997  81.1479988  55.3210012  34.1154997  79.3949988
  53.6760012  33.8344997  79.9549988  83.5630012  32.6774997  80.6779988
  82.7070012  32.2584997  80.1059988  83.3520012  33.4834997  81.4139988
  83.8990012  31.8204997  81.2999988  84.6720012  32.9004997  79.6419988
  85.6010012  33.1614997  80.1929988  84.9160012  32.0144997  79.0179988
  84.5050012  33.9294997  78.5819988  83.5530012  33.7164997  78.0489988
  84.2340012  34.9824997  78.8109988  85.7300012  34.0414997  77.6879988
  86.5750012  34.5104997  78.2369988  85.9260012  32.9934997  77.3749988
  85.5590012  34.7504997  76.3269988  84.5540012  34.4804997  75.9389988
  85.6240012  35.8464997  76.4929988  86.4980012  34.2884997  75.2289988
  86.1670012  33.2864997  74.8829988  86.4390012  35.0534997  74.4259988
  87.9710012  34.0844997  75.5439988  88.3900012  35.0194997  75.9719988
  87.9820012  33.4314997  76.4429988  88.8210012  33.5684997  74.3759988
  88.2960012  33.8814997  73.4489988  89.7720012  34.1354997  74.4609988
  88.9250012  31.9494997  74.3759988  89.5690012  31.6204997  75.2189988
  87.9710012  31.3964997  74.5149988  89.5220012  31.5494997  72.9859988
  88.8370012  31.8804997  72.1759988  90.5590012  31.9454997  72.9469988
  89.6950012  30.0264997  72.8599988  90.4200012  29.6104997  73.5909988
  88.7050012  29.5964997  73.1259988  90.2730012  29.5474997  71.5079988
  91.3230012  29.9004997  71.4169988  90.2800012  28.4434997  71.6299988
  89.4320012  30.1424997  70.3779988  88.3400012  29.9494997  70.4399988
  89.5160012  31.2504997  70.3879988  89.9000012  29.5554997  69.0469988
  90.9610012  29.8054997  68.8329988  89.7900012  28.4504997  69.0729988
  89.0800012  30.1374997  67.8449988  88.6890012  31.1594997  68.0399988
  89.6820012  30.1874997  66.9129988  87.8230012  29.1804997  67.6759988
  86.8510012  29.1934997  68.4489988  87.9630012  28.5744997  66.5489988
  86.8020012  27.8074997  66.1479988  87.1760012  26.9014997  65.6249988
  86.1590012  27.4844997  66.9939988  85.9090012  28.5474997  65.1819988
  85.1840012  27.8214997  64.7549988  86.5080012  29.0764997  63.8389988
  87.0440012  28.1834997  63.4529988  85.7320012  29.3204997  63.0809988
  87.4770012  30.1284997  64.0059988  87.4740012  31.4964997  63.1829988
  85.8980012  31.8364997  63.1919988  85.5560012  33.1844997  62.9169988
  86.4390012  33.8584997  62.8909988  85.1990012  33.2904997  61.8709988
  84.4950012  33.7244997  63.8949988  84.9310012  33.5574997  64.8689988
  84.4510012  34.7574997  63.5829988  83.1030012  33.1214997  63.7929988
  82.2840012  33.7964997  64.8199988  82.1150012  34.8574997  64.7069988
  81.4010012  33.1754997  64.8599988  82.7400012  33.6554997  65.7889988
  82.4860012  33.3394997  62.4769988  81.6210012  32.6934997  62.4629988
  82.2660012  34.3764997  62.2719988  83.2580012  33.0474997  61.7799988
  83.2000012  31.6544997  64.0759988  83.5930012  31.4874997  65.0679988
  83.9430012  31.2194997  63.4249988  82.3180012  31.0644997  63.8729988
  88.2630012  32.4324997  64.0289988  87.9240012  31.2814997  61.7919988
  85.3170012  29.5774997  65.9039988  84.2440012  29.3414997  66.6859988
  83.7190012  28.2564997  66.8719988  83.7030012  30.5924997  67.3789988
  83.0960012  31.3214997  66.8009988  84.6130012  31.1004997  67.7639988
  82.9640012  30.3334997  68.7109988  82.0610012  29.7164997  68.5149988
  82.5270012  31.2684997  69.1219988  83.8040012  29.6084997  69.7969988
  84.6680012  30.2784997  69.9959988  84.1220012  28.6274997  69.3859988
  82.9820012  29.3164997  71.1069988  83.5210012  28.6794997  71.8399988
  82.1020012  28.6634997  70.9239988  82.6290012  30.5524997  71.9859988
  81.8610012  30.3244997  72.7559988  82.1960012  31.3384997  71.3309988
  83.7580012  31.1854997  72.8859988  84.5860012  31.3624997  72.1659988
  84.1660012  30.3854997  73.5389988  83.4650012  32.5024997  73.4989988
  83.2090012  33.2864997  72.7549988  84.4720012  32.7514997  73.8969988
  82.4190012  32.6854997  74.6309988  81.9900012  33.6974997  74.5919988
  82.0170012  31.7894997  75.5589988  81.1670012  32.0004997  76.2239988
  82.4500012  30.3594997  75.8869988  83.0100012  30.0114997  74.9939988
  81.5940012  29.6524997  75.9399988  83.3440012  30.0474997  77.1029988
  82.8390012  30.2484997  78.0719988  84.2780012  30.6404997  77.0079988
  83.9160012  28.6104997  77.1729988  84.5010012  28.3974997  76.2529988
  83.0700012  27.8894997  77.1889988  84.6480012  28.3924997  78.5369988
  84.9340012  27.3254997  78.6569988  83.9940012  28.7684997  79.3519988
  86.1190012  29.0844997  78.5079988  85.9460012  30.1594997  78.7269988
  86.5570012  29.0624997  77.4869988  87.1120012  28.4354997  79.5699988
  86.8480012  27.3674997  79.7239988  86.8420012  29.0214997  80.4749988
  88.6190012  28.4504997  79.1369988  89.0620012  29.4504997  79.3289988
  88.7460012  28.2574997  78.0499988  89.4330012  27.3934997  79.8389988
  89.6510012  27.6844997  80.8889988  90.4470012  27.3044997  79.3929988
  88.9250012  26.4184997  79.9949988 103.5710012 102.9524997  83.4659988
 102.8730012 102.1344997  83.7469988 103.0360012 103.8774997  83.7699988
 104.4360012 102.6564997  84.0969988 103.9250012 102.7894997  81.9829988
 104.4380012 101.8144997  81.8349988 102.9370012 102.8704997  81.4799988
 104.9470012 103.8144997  81.4079988 104.7440012 104.8254997  81.8229988
 105.9040012 103.4634997  81.8489988 105.0820012 103.7764997  79.8959988
 104.1590012 104.0384997  79.3369988 105.9490012 104.4384997  79.6819988
 105.7810012 102.4794997  79.4019988 106.6180012 102.1544997  80.0559988
 105.0760012 101.6384997  79.2269988 106.5260012 102.6924997  78.0099988
 105.8240012 103.2524997  77.3559988 107.3900012 103.3624997  78.2079988
 107.1750012 101.4744997  77.3709988 107.9960012 101.0844997  78.0099988
 106.4260012 100.6744997  77.1829988 107.8070012 101.7704997  75.9919988
 108.4670012 102.6584997  75.8889988 108.4020012 100.8664997  75.7399988
 106.7550012 101.6574997  74.8829988 107.0060012 100.8704997  74.1389988
 105.8320012 101.2654997  75.3609988 106.2810012 102.9234997  74.1979988
 106.3440012 103.7874997  74.8929988 106.9550012 103.0634997  73.3249988
 104.8390012 102.8934997  73.5119988 104.1790012 102.7304997  74.3909988
 104.5690012 103.8424997  73.0009988 104.6630012 101.7574997  72.3889988
 104.8370012 100.8314997  72.9779988 103.6460012 101.6714997  71.9489988
 105.5700012 101.9144997  71.2359988 105.5200012 102.9184997  70.7609988
 106.6050012 101.6834997  71.5659988 105.2850012 101.0024997  69.9649988
 104.9440012 100.0464997  70.4159988 104.4510012 101.3604997  69.3239988
 106.5140012 100.7934997  69.0809988 106.5860012 101.6934997  68.4339988
 107.4660012 100.7384997  69.6509988 106.4110012  99.4594997  68.2549988
 106.0150012  98.4264997  68.7449988 106.9430012  99.6694997  67.0599988
 106.8980012  98.5784997  66.0949988 107.7630012  98.7494997  65.4189988
 106.8510012  97.5674997  66.5529988 105.5440012  98.7484997  65.3599988
 105.6250012  97.9554997  64.5859988 105.4320012 100.2304997  64.7149988
 106.4270012 100.4684997  64.2819988 104.7200012 100.1814997  63.8629988
 105.0360012 101.1304997  65.7329988 104.6610012 102.6524997  65.3369988
 103.6300012 102.2744997  64.1529988 102.2770012 102.7054997  64.1839988
 101.6590012 102.0514997  64.8359988 102.1550012 103.7694997  64.4769988
 101.5560012 102.6504997  62.7759988 100.7440012 101.9874997  63.0389988
 101.1050012 103.6124997  62.5839988 102.2490012 102.3014997  61.5589988
 103.3940012 103.3174997  61.2369988 103.7540012 103.2054997  60.2249988
 103.0230012 104.3214997  61.3809988 104.2410012 103.1214997  61.8779988
 102.7380012 100.8904997  61.5749988 101.9940012 100.1814997  61.9069988
 102.9540012 100.5784997  60.5639988 103.6640012 100.7534997  62.1149988
 101.2700012 102.3924997  60.4739988 100.8150012 103.3374997  60.2179988
 100.4440012 101.7084997  60.6049988 101.7580012 102.1214997  59.5499988
 104.0060012 103.3154997  66.4929988 105.7670012 103.3944997  64.6589988
 104.4630012  98.3944997  66.2299988 103.2870012  98.3214997  65.7099988
 102.9070012  98.1544997  64.5439988 102.2830012  98.2234997  66.8639988
 102.6900012  97.3814997  67.4639988 101.2550012  98.0124997  66.4989988
 102.3570012  99.5284997  67.7179988 102.1380012 100.4104997  67.0799988
 103.3770012  99.5444997  68.1569988 101.5420012  99.4754997  69.0289988
 102.0750012  98.8104997  69.7419988 100.5970012  98.9594997  68.7569988
 101.2250012 100.7444997  69.8859988 100.8770012 101.5174997  69.1669988
 102.1170012 101.1054997  70.4399988 100.0170012 100.6384997  70.8379988
  99.1440012 100.2364997  70.2809988  99.7300012 101.6504997  71.1979988
 100.4330012  99.6224997  71.8589988 101.4140012  99.9404997  72.2719988
 100.6240012  98.6994997  71.2709988  99.4740012  99.3484997  73.0219988
  99.7370012  98.3654997  73.4669988  98.5120012  99.0824997  72.5339988
  99.4140012 100.3834997  74.1669988  98.6730012 101.1694997  73.9559988
 100.1960012 100.5094997  75.2909988 100.0050012 101.4164997  75.8829988
 101.3120012  99.5274997  75.5769988 102.3380012  99.9324997  75.7109988
 101.3210012  98.7834997  74.7519988 101.1240012  98.7334997  76.9199988
 101.8860012  97.9564997  76.6979988 100.1310012  98.2404997  76.9929988
 101.2760012  99.5914997  78.1989988 100.6730012 100.5214997  78.1299988
 102.3640012  99.8014997  78.2769988 100.8140012  98.8634997  79.4939988
  99.7400012  98.6384997  79.3239988 101.0590012  99.5644997  80.3199988
 101.5580012  97.5464997  79.8299988 101.3010012  96.9164997  78.9519988
 101.1520012  97.0494997  80.7359988 103.1170012  97.7424997  79.9599988
 103.4160012  98.4244997  80.7839988 103.5180012  98.2394997  79.0509988
 103.7430012  96.3454997  80.0689988 104.8390012  96.4304997  79.9059988
 103.3080012  95.7334997  79.2509988 103.5040012  95.5514997  81.2789988
 103.7230012  96.0254997  82.2589988 104.1510012  94.6574997  81.1509988
 102.4940012  95.0894997  81.3129988 114.2480012  90.7444997  82.5369988
 114.3860012  91.7364997  82.0559988 114.2280012  90.8394997  83.6429988
 113.2700012  90.3744997  82.1589988 115.3350012  89.8634997  82.0139988
 116.2240012  90.4324997  82.3609988 115.1610012  88.9134997  82.5629988
 115.4480012  89.6484997  80.4999988 115.5800012  90.6154997  79.9699988
 116.2900012  88.9584997  80.2789988 114.1790012  89.1554997  79.8869988
 113.8120012  88.2574997  80.4279988 113.3850012  89.9324997  79.9089988
 114.3760012  88.7634997  78.3619988 114.5130012  89.7124997  77.8019988
 115.3040012  88.1904997  78.1539988 113.2670012  87.9934997  77.7299988
 113.0710012  87.0894997  78.3459988 112.3000012  88.5394997  77.7549988
 113.6810012  87.6184997  76.2499988 113.7920012  88.5794997  75.7039988
 114.6750012  87.1214997  76.2409988 112.7120012  86.6684997  75.5249988
 113.2810012  86.4014997  74.6089988 112.6550012  85.7614997  76.1629988
 111.2970012  87.2564997  75.2219988 110.7870012  87.3344997  76.2049988
 111.3540012  88.2464997  74.7219988 110.4550012  86.3864997  74.2899988
 111.0730012  86.1624997  73.3949988 110.1760012  85.3764997  74.6569988
 109.1420012  87.0964997  73.8549988 108.4840012  86.9934997  74.7439988
 109.3210012  88.1674997  73.6189988 108.4530012  86.5874997  72.5439988
 107.9050012  85.6904997  72.9039988 107.6600012  87.3204997  72.2829988
 109.3310012  86.0964997  71.3969988 109.9740012  85.2104997  71.5879988
 108.7160012  85.6544997  70.5839988 110.1620012  87.2434997  70.6939988
 110.9160012  87.5444997  71.4529988 110.8260012  86.8314997  69.9039988
 109.3750012  88.3864997  70.0549988 108.8700012  88.0904997  69.1109988
 108.6590012  88.6904997  70.8489988 110.3620012  89.5274997  69.6649988
 111.4680012  89.7444997  70.1099988 109.6650012  90.3374997  68.9159988
 109.9640012  91.6914997  68.6009988 108.9710012  92.1644997  68.4419988
 110.5370012  92.1894997  69.4119988 110.7110012  91.7184997  67.2879988
 111.0720012  92.7554997  67.1189988 109.8730012  91.3574997  65.9989988
 109.5050012  90.3144997  66.0999988 108.9890012  92.0284997  66.0659988
 110.5950012  91.6074997  64.8439988 110.0620012  91.0454997  63.3839988
 111.1550012  89.8424997  63.1199988 112.5150012  90.1474997  63.1149988
 112.6980012  90.9664997  62.3869988 112.9090012  90.4634997  64.1049988
 113.3250012  88.8994997  62.5819988 112.9040012  88.4954997  61.6729988
 114.3090012  89.2614997  62.3199988 113.5370012  87.7794997  63.6099988
 114.3700012  88.1584997  64.7429988 114.4190012  87.3124997  65.4109988
 115.2560012  88.5914997  64.3019988 114.0000012  89.0674997  65.1949988
 112.2550012  87.2954997  64.1129988 111.7660012  86.9174997  63.2279988
 112.4320012  86.4394997  64.7479988 111.7530012  88.1594997  64.5229988
 114.3030012  86.6104997  62.8659988 113.7650012  86.1964997  62.0259988
 114.4960012  85.9344997  63.6849988 115.2690012  86.9334997  62.5079988
 108.6480012  90.5114997  63.4729988 110.2250012  92.1494997  62.3299988
 111.9250012  90.9394997  67.4029988 113.0270012  91.5884997  67.9689988
 112.9820012  92.6364997  68.5619988 114.2490012  90.6794997  67.7419988
 114.5350012  90.8604997  66.6839988 114.0740012  89.5844997  67.8099988
 115.4680012  91.0664997  68.6669988 115.5630012  92.1634997  68.8189988
 116.3720012  90.8064997  68.0759988 115.5440012  90.2514997  69.9359988
 116.5870012  90.4794997  70.2459988 115.5830012  89.1824997  69.6359988
 114.5770012  90.5184997  71.0969988 114.5230012  89.6304997  71.7629988
 113.5270012  90.5584997  70.7359988 114.8330012  91.7954997  71.7889988
 114.8120012  92.6274997  71.0529988 115.8170012  91.6794997  72.2919988
 113.7950012  92.2374997  72.8539988 114.1920012  93.1654997  73.3179988
 113.5820012  91.4434997  73.6029988 112.3720012  92.5654997  72.1379988
 111.7960012  91.6844997  71.7809988 112.6780012  93.1234997  71.2279988
 111.4650012  93.3874997  73.0559988 111.4690012  94.4624997  72.8219988
 110.8860012  93.0464997  74.1939988 110.7250012  93.8344997  74.9449988
 111.0930012  91.6414997  74.7789988 111.4930012  91.7834997  75.8049988
 111.6970012  90.9044997  74.2069988 109.7360012  90.7654997  74.9679988
 109.9920012  89.7234997  75.2549988 109.0770012  90.8064997  74.0739988
 108.9290012  91.2874997  76.2059988 107.8190012  91.2364997  76.1779988
 109.2430012  92.3224997  76.4609988 108.9790012  90.3574997  77.5139988
 110.0410012  90.2824997  77.8299988 108.5860012  89.3264997  77.3849988
 108.2130012  90.9824997  78.7069988 107.2340012  91.1934997  78.2259988
 108.7380012  91.9544997  78.8289988 108.0330012  90.1864997  80.0279988
 107.5420012  90.8474997  80.7739988 109.0130012  90.0194997  80.5229988
 107.2500012  88.9214997  79.9199988 107.6340012  88.3744997  79.0319988
 106.1530012  89.0914997  79.8959988 107.6210012  87.9584997  81.0029988
 107.0560012  88.1874997  81.9319988 108.6920012  87.8674997  81.2819988
 107.1040012  86.9974997  80.7929988  63.8340012 111.0034997  82.5849988
  64.3600012 111.5424997  83.4009988  63.6710012 109.9244997  82.7979988
  62.7640012 111.2744997  82.4629988  64.5860012 111.2804997  81.3139988
  64.4200012 112.3094997  80.9279988  65.6390012 110.9844997  81.5039988
  64.1080012 110.3844997  80.0629988  63.0590012 110.6844997  79.8529988
  64.6810012 110.7234997  79.1729988  64.1190012 108.8464997  80.2379988
  63.4970012 108.5274997  81.1019988  63.5310012 108.4794997  79.3699988
  65.4720012 108.2334997  80.4429988  65.8650012 108.5354997  81.4369988
  65.3760012 107.1304997  80.3459988  66.4880012 108.5344997  79.3669988
  66.6480012 109.6334997  79.3319988  67.4290012 108.0694997  79.7309988
  66.0920012 108.0204997  78.0319988  66.0060012 106.9154997  78.0989988
  65.0660012 108.3354997  77.7449988  67.0380012 108.3284997  76.8679988
  68.0740012 108.0424997  77.1509988  66.7220012 107.7474997  75.9749988
  66.9700012 109.9054997  76.6539988  66.1400012 110.3624997  77.2329988
  67.9390012 110.3744997  76.9249988  66.6220012 110.3994997  75.2359988
  65.5940012 110.0194997  75.0529988  66.6000012 111.4974997  75.0699988
  67.3380012 109.7534997  74.0789988  68.3560012 110.1974997  74.0559988
  67.5440012 108.6704997  74.2189988  66.7030012 110.0084997  72.7439988
  66.4790012 111.0824997  72.9179988  67.5590012 109.9834997  72.0359988
  65.5470012 109.0854997  72.4639988  65.8460012 108.0304997  72.6459988
  64.7180012 109.4274997  73.1199988  64.8230012 109.3164997  71.0809988
  63.7840012 108.9464997  70.9489988  64.7930012 110.4264997  71.1129988
  65.8390012 109.0644997  69.9519988  66.2090012 110.0494997  69.5959988
  66.7330012 108.5924997  70.4129988  65.2740012 108.0684997  68.8359988
  64.4500012 107.2384997  69.0549988  65.7840012 108.3484997  67.6519988
  65.2260012 107.7204997  66.4489988  65.9810012 106.9724997  66.1269988
  64.2640012 107.1734997  66.5509988  65.0530012 108.7474997  65.2919988
  64.7920012 108.2274997  64.3449988  66.3090012 109.6334997  65.0169988
  66.5980012 110.0944997  65.9859988  67.1800012 108.9584997  64.8729988
  66.1350012 110.5384997  63.9319988  66.3220012 112.1254997  63.9669988
  64.9050012 112.5094997  64.5409988  64.3370012 113.7874997  64.6549988
  64.3810012 114.0694997  65.7289988  64.9390012 114.4584997  64.0059988
  62.8830012 113.8954997  64.1669988  62.3080012 113.1864997  64.7429988
  62.5370012 114.8544997  64.5229988  62.5120012 113.7704997  62.7189988
  62.6430012 112.3144997  62.2719988  62.5940012 112.1864997  61.2009988
  63.5770012 111.9414997  62.6659988  61.8340012 111.8054997  62.7749988
  61.0550012 114.1884997  62.5139988  61.0140012 114.0824997  61.4399988
  60.3200012 113.6184997  63.0619988  60.9560012 115.2354997  62.7579988
  63.4590012 114.6204997  61.8969988  64.4300012 114.4374997  62.3329988
  63.1840012 115.6534997  62.0509988  63.4030012 114.6724997  60.8199988
  67.3390012 112.5204997  64.9049988  66.3390012 112.6624997  62.6119988
  63.9880012 109.7164997  65.5469988  62.7030012 109.3534997  65.1919988
  62.3230012 108.2844997  64.7339988  61.6590012 110.4214997  65.6569988
  60.6160012 110.0514997  65.5659988  61.6630012 111.2144997  64.8779988
  61.9730012 111.0464997  66.9679988  61.4500012 112.0244997  67.0359988
  63.0430012 111.2834997  67.1529988  61.5920012 110.1804997  68.1129988
  62.2610012 109.2954997  68.1809988  60.6660012 109.6724997  67.7689988
  61.4190012 110.8034997  69.4729988  62.3840012 111.1814997  69.8729988
  61.0600012 110.0064997  70.1579988  60.4370012 112.0374997  69.5289988
  59.5710012 111.8264997  68.8649988  61.0380012 112.8714997  69.1089988
  59.8390012 112.3884997  70.9439988  59.2240012 111.4974997  71.1939988
  59.1200012 113.2314997  70.8619988  60.9810012 112.5364997  71.9989988
  61.8660012 112.9454997  71.4669988  61.2610012 111.4904997  72.2449988
  60.5670012 113.2434997  73.2419988  59.4980012 113.2644997  73.5029988
  61.3480012 114.0264997  73.9699988  60.9350012 114.4574997  74.8929988
  62.8250012 114.2504997  73.6739988  63.1640012 115.2354997  74.0599988
  63.0480012 114.2464997  72.5859988  63.6030012 113.0994997  74.2919988
  64.6580012 113.0474997  73.9469988  63.3280012 112.0944997  73.9049988
  63.5620012 113.0634997  75.8699988  63.6780012 112.0114997  76.2079988
  62.5250012 113.1944997  76.2469988  64.5290012 114.0004997  76.5939988
  64.5780012 114.9424997  76.0069988  65.5260012 113.5274997  76.7229988
  64.0790012 114.3754997  78.0629988  64.8880012 115.0214997  78.4659988
  63.8920012 113.4374997  78.6289988  62.6860012 115.0344997  78.2069988
  61.8310012 114.3684997  77.9599988  62.5630012 115.9784997  77.6349988
  62.3980012 115.3304997  79.7509988  62.8250012 116.3304997  79.9809988
  62.9480012 114.5674997  80.3429988  60.8990012 115.2114997  80.1539988
  60.7290012 115.4624997  81.2229988  60.5310012 114.1864997  79.9359988
  60.2210012 115.9274997  79.6419988  78.5650012 113.4524997  85.0419988
  78.3350012 112.9024997  84.1039988  77.8440012 113.1254997  85.8219988
  79.6000012 113.1844997  85.3449988  78.3170012 114.9744997  85.0029988
  77.2190012 115.1224997  84.9219988  78.6100012 115.5014997  85.9359988
  78.9710012 115.7454997  83.8069988  78.5810012 116.7864997  83.8279988
  80.0560012 115.5144997  83.8529988  78.4060012 115.3874997  82.4229988
  78.7210012 114.3714997  82.1019988  77.3050012 115.5354997  82.3869988
  78.8010012 116.3324997  81.3229988  79.7610012 116.8324997  81.5759988
  78.9910012 115.7404997  80.4019988  77.6880012 117.4014997  80.8599988
  76.8700012 116.7764997  80.4399988  77.3350012 117.9414997  81.7639988
  78.2900012 118.3834997  79.7919988  77.8210012 119.3894997  79.8399988
  79.3400012 118.4754997  80.1439988  78.3760012 117.6424997  78.3929988
  78.9630012 118.3354997  77.7529988  79.0340012 116.7574997  78.5239988
  77.0410012 117.1954997  77.7269988  76.5980012 116.3474997  78.2909988
  76.3370012 118.0524997  77.8039988  77.2450012 116.7524997  76.2449988
  77.6650012 117.6724997  75.7839988  77.9210012 115.8704997  76.2359988
  75.9240012 116.4424997  75.5259988  75.6100012 115.4354997  75.8759988
  75.2900012 117.3044997  75.8229988  76.1030012 116.4124997  74.0329988
  75.0690012 116.4404997  73.6259988  76.6750012 117.2704997  73.6189988
  76.8400012 115.1074997  73.6329988  77.9450012 115.1004997  73.7469988
  76.3690012 114.2264997  74.1179988  76.6510012 114.6944997  72.0849988
  75.6180012 114.2864997  72.0529988  76.7330012 115.6034997  71.4519988
  77.6740012 113.7184997  71.5889988  78.6250012 114.2934997  71.5829988
  77.8130012 112.7974997  72.1949988  77.2110012 113.1064997  70.2879988
  76.0620012 112.8104997  69.9879988  78.2980012 112.8944997  69.5719988
  78.0790012 112.2854997  68.2849988  79.0520012 111.9614997  67.8579988
  77.4550012 111.3694997  68.3759988  77.4430012 113.2914997  67.1909988
  76.4410012 113.5434997  67.5989988  77.4750012 112.6454997  65.7709988
  77.5150012 111.5354997  65.7899988  76.4360012 112.8574997  65.4409988
  78.3590012 113.3384997  64.9469988  79.6620012 112.5864997  64.6319988
  80.5280012 113.5954997  63.8609988  80.5470012 114.9904997  64.3339988
  80.4110012 115.0294997  65.4359988  81.5750012 115.3624997  64.1309988
  79.5550012 115.9094997  63.6529988  78.6400012 115.8034997  64.2169988
  79.8680012 116.9304997  63.8189988  79.1470012 115.7594997  62.1939988
  78.1200012 114.7264997  61.8759988  78.5570012 113.7424997  61.9519988
  77.3580012 114.7324997  62.6409988  77.7000012 114.9344997  60.9039988
  78.4280012 117.0674997  61.8059988  78.0730012 116.9964997  60.7889988
  77.6200012 117.3004997  62.4839988  79.2520012 117.7634997  61.8539988
  80.4620012 115.5634997  61.3819988  81.0340012 116.4784997  61.3409988
  80.3680012 115.1984997  60.3699988  80.9320012 114.7524997  61.9189988
  80.3310012 112.1024997  65.8879988  79.3380012 111.4894997  63.6089988
  78.3000012 114.4234997  67.2739988  77.7700012 115.5604997  66.8389988
  76.6850012 115.7144997  66.3699988  78.7850012 116.6814997  67.0759988
  78.6160012 117.5414997  66.3929988  79.8290012 116.3294997  66.9359988
  78.5160012 117.0514997  68.5109988  78.5190012 116.1874997  69.2089988
  77.5250012 117.5544997  68.5479988  79.6160012 117.9394997  69.1049988
  79.6380012 118.9714997  68.6949988  80.6560012 117.5504997  69.0639988
  79.3890012 118.2544997  70.5969988  78.2820012 118.1734997  70.6429988
  79.8940012 119.2244997  70.7929988  79.9850012 117.2904997  71.5839988
  81.0770012 117.3574997  71.3899988  79.6620012 116.2304997  71.5179988
  79.8890012 117.6824997  73.0739988  78.8280012 117.9114997  73.3129988
  80.2900012 118.7014997  73.2599988  80.4790012 116.7414997  74.1589988
  79.7910012 115.8744997  74.2499988  80.5010012 117.3954997  75.0579988
  81.9160012 116.2684997  73.8699988  82.4630012 116.9294997  73.1819988
  82.5060012 115.1544997  74.2879988  83.4820012 114.8924997  73.8539988
  81.9320012 114.0924997  75.1569988  81.3630012 114.5164997  76.0109988
  82.7660012 113.4924997  75.5799988  81.0510012 113.1074997  74.3389988
  81.6870012 112.5884997  73.5899988  80.2020012 113.6104997  73.8289988
  80.4360012 111.9954997  75.2209988  81.0420012 111.7034997  76.1049988
  80.3910012 111.1104997  74.5509988  79.0250012 112.2534997  75.5329988
  78.3700012 111.3584997  75.6009988  78.5320012 112.9424997  74.8149988
  78.7540012 112.8664997  76.8999988  77.6540012 112.8884997  77.0479988
  79.2200012 113.8734997  76.9499988  79.4320012 112.1844997  78.0759988
  80.5260012 112.3014997  77.9239988  79.0930012 111.1264997  78.0889988
  79.0830012 112.8004997  79.4369988  77.9910012 112.9994997  79.3939988
  79.6340012 113.7494997  79.6119988  79.4530012 111.7954997  80.5889988
  79.2670012 110.7244997  80.3589988  78.8390012 112.1044997  81.4609988
  80.5300012 111.9534997  80.8119988  63.8560012  35.5674997  79.9669988
  64.9060012  35.2284997  79.8389988  63.7410012  35.8784997  81.0269988
  63.8000012  36.4934997  79.3549988  62.8200012  34.5684997  79.5599988
  62.9390012  33.6944997  80.2339988  61.8100012  34.9084997  79.8729988
  62.9250012  34.1744997  78.0499988  63.9620012  34.2714997  77.6619988
  62.6170012  33.1094997  77.9769988  61.8890012  34.8364997  77.1329988
  60.8540012  34.6024997  77.4619988  61.9960012  35.9414997  77.1709988
  62.0170012  34.2784997  75.6879988  63.0680012  34.4344997  75.3629988
  61.9500012  33.1704997  75.7309988  61.1970012  35.0154997  74.6489988
  61.3500012  36.1114997  74.7489988  61.4710012  34.6004997  73.6559988
  59.6880012  34.8144997  74.6129988  59.3020012  35.4214997  75.4599988
  59.2740012  35.1654997  73.6439988  59.2240012  33.3944997  74.8919988
  59.5050012  33.1944997  75.9489988  58.1210012  33.3634997  74.7649988
  59.8070012  32.4724997  73.7759988  60.9020012  32.5304997  73.9579988
  59.4920012  31.4264997  73.9759988  59.4970012  32.8734997  72.3309988
  58.5250012  33.3484997  72.0779988  60.2250012  33.6604997  72.0359988
  59.7110012  31.6374997  71.4019988  60.5960012  31.0814997  71.7759988
  58.8490012  30.9394997  71.4699988  60.0480012  31.9454997  69.9509988
  59.8410012  30.9464997  69.5109988  59.3310012  32.7144997  69.5929988
  61.5650012  32.2334997  69.6599988  61.8480012  33.1084997  70.2839988
  62.1400012  31.3664997  70.0489988  61.7860012  32.5254997  68.1539988
  62.8830012  32.3604997  68.0909988  61.2770012  31.7254997  67.5749988
  61.2740012  33.8394997  67.6549988  60.2680012  33.7284997  67.1949988
  61.2430012  34.6454997  68.4199988  62.2660012  34.2724997  66.5329988
  62.5190012  35.4484997  66.2989988  62.7740012  33.2374997  65.9629988
  63.8440012  33.4974997  65.0399988  63.4430012  34.1914997  64.2699988
  64.6530012  34.0234997  65.5909988  64.2640012  32.1124997  64.5579988
  65.0880012  32.2374997  63.8219988  63.1230012  31.3074997  63.8219988
  62.6910012  31.9654997  63.0379988  63.6880012  30.4744997  63.3499988
  62.0880012  30.8514997  64.7349988  60.8870012  29.9814997  64.2059988
  59.7930012  31.1094997  63.8919988  59.6770012  32.2804997  64.5419988
  58.6110012  32.5944997  64.5689988  59.8820012  32.3184997  65.6329988
  60.5000012  33.3944997  63.9099988  60.5060012  34.2624997  64.5529988
  61.5360012  33.0954997  63.9529988  60.0490012  33.7924997  62.4969988
  60.7690012  35.1004997  62.1109988  60.4980012  35.4014997  61.1099988
  60.5430012  35.8684997  62.8359988  61.8160012  34.8394997  62.1479988
  60.3000012  32.7164997  61.5169988  61.3440012  32.4474997  61.4579988
  59.7090012  31.8454997  61.7579988  59.9420012  32.9374997  60.5219988
  58.6220012  34.0764997  62.5629988  58.1880012  33.1044997  62.7449988
  58.2170012  34.5764997  61.6949988  58.5570012  34.8114997  63.3509988
  61.2970012  29.3694997  62.9179988  60.5020012  29.0324997  65.2909988
  64.7750012  31.5254997  65.7799988  65.3330012  30.3404997  65.7449988
  65.6160012  29.7384997  64.7039988  65.6610012  29.8004997  67.0769988
  65.5500012  30.6024997  67.8379988  66.6760012  29.3514997  67.0209988
  64.7690012  28.6544997  67.4199988  65.2350012  27.9914997  68.1799988
  64.5420012  27.9824997  66.5649988  63.4600012  29.0554997  68.1019988
  62.8130012  29.5304997  67.3339988  63.6800012  29.7614997  68.9309988
  62.7430012  27.8674997  68.5759988  63.2990012  27.4384997  69.4369988
  62.8410012  27.0584997  67.8199988  61.2810012  28.1524997  68.8759988
  60.6710012  28.2674997  67.9539988  61.2090012  29.1784997  69.2939988
  60.5720012  27.1984997  69.7599988  60.8650012  26.1444997  69.5689988
  59.5730012  27.3404997  69.2959988  60.5650012  27.3714997  71.2569988
  59.7370012  26.8544997  71.7879988  60.3120012  28.4414997  71.4129988
  61.8270012  27.0204997  71.9309988  62.0350012  25.9494997  71.7909988
  62.7530012  27.7054997  72.5729988  63.7290012  27.2464997  72.7909988
  62.8460012  29.2454997  72.7779988  61.8980012  29.8044997  72.6269988
  63.6300012  29.6374997  72.0959988  63.1050012  29.6214997  74.2439988
  63.1360012  30.7324997  74.2339988  64.1160012  29.2544997  74.5239988
  62.1440012  29.0654997  75.3129988  62.2190012  27.9634997  75.1919988
  61.0920012  29.4164997  75.2379988  62.7300012  29.4674997  76.6909988
  62.2120012  30.4454997  76.7969988  63.8060012  29.7164997  76.5709988
  62.3530012  28.4944997  77.9279988  62.2260012  27.4554997  77.5539988
  61.3160012  28.7074997  78.2659988  63.2950012  28.5624997  79.1109988
  63.7130012  29.5924997  79.1339988  64.1740012  27.9504997  78.8149988
  62.7130012  27.9804997  80.4159988  62.1480012  28.7854997  80.9319988
  63.6140012  27.7504997  81.0219988  61.8040012  26.7094997  80.2349988
  62.3850012  25.8524997  79.8319988  60.9680012  26.7694997  79.5069988
  61.4870012  26.4204997  81.2599988  72.8840012  29.5914997  80.3929988
  73.4060012  28.6324997  80.1859988  71.8480012  29.3104997  80.6769988
  73.3610012  30.0684997  81.2759988  73.1050012  30.4914997  79.1629988
  72.9570012  29.7944997  78.3109988  72.2490012  31.1904997  79.2749988
  74.4830012  31.0724997  79.0799988  74.6970012  31.8274997  79.8669988
  75.1880012  30.2234997  79.2079988  74.8180012  31.6324997  77.7049988
  75.9240012  31.5944997  77.6019988  74.3980012  30.9894997  76.9029988
  74.5060012  33.1004997  77.5589988  73.3950012  33.1294997  77.5289988
  74.8610012  33.5924997  78.4889988  75.1540012  33.8784997  76.3449988
  74.9110012  34.9464997  76.5299988  76.2620012  33.7974997  76.3499988
  74.5570012  33.3594997  75.0139988  74.9410012  32.3204997  74.9199988
  73.4470012  33.3864997  75.0419988  75.0490012  34.2234997  73.8669988
  74.3190012  34.2254997  73.0289988  75.2050012  35.2354997  74.2989988
  76.3680012  33.7444997  73.1889988  77.1600012  33.7314997  73.9679988
  76.1470012  32.7044997  72.8669988  76.7770012  34.5724997  71.9019988
  76.7820012  35.6644997  72.1059988  77.8110012  34.2694997  71.6299988
  75.7800012  34.3864997  70.8009988  75.2800012  33.3964997  70.7389988
  74.9340012  35.0684997  71.0319988  76.4440012  34.8094997  69.5489988
  75.7580012  34.7604997  68.6759988  76.8900012  35.8254997  69.4979988
  77.6540012  33.8874997  69.1589988  78.1480012  34.2684997  68.2399988
  78.4010012  33.9184997  69.9809988  77.2160012  32.4264997  69.0479988
  77.0170012  32.0304997  70.0659988  76.3170012  32.3294997  68.4019988
  78.3830012  31.6284997  68.4709988  78.5610012  31.9274997  67.4149988
  79.3380012  31.8444997  68.9949988  77.9980012  30.1624997  68.5519988
  78.3220012  29.3794997  69.3859988  77.1630012  29.8864997  67.5319988
  76.5180012  28.6004997  67.5949988  77.0610012  27.8514997  66.9789988
  76.4380012  28.1774997  68.6189988  75.0040012  28.7814997  67.1249988
  74.4710012  27.8164997  66.9819988  74.7110012  29.4134997  65.7439988
  75.3440012  28.9604997  64.9519988  73.6270012  29.2394997  65.5749988
  74.9510012  30.7824997  65.9139988  74.6930012  31.8034997  64.7329988
  75.4160012  31.0334997  63.5509988  75.5250012  31.7794997  62.3069988
  75.4590012  30.9574997  61.5629988  74.6500012  32.4444997  62.1429988
  76.9110012  32.4664997  62.1169988  76.8190012  32.7284997  61.0739988
  76.9310012  33.2844997  62.8219988  78.1510012  31.6124997  62.4939988
  78.1000012  30.3294997  61.6229988  77.2020012  29.7314997  61.6739988
  78.4010012  30.5514997  60.6099988  78.8870012  29.6454997  61.9019988
  79.4070012  32.3694997  62.1009988  80.2460012  31.7374997  62.3499988
  79.3320012  32.6934997  61.0729988  79.4320012  33.2974997  62.6529988
  78.2390012  31.2004997  63.9219988  78.4770012  31.9904997  64.6199988
  78.9780012  30.4154997  63.9839988  77.2960012  30.8174997  64.2819988
  73.2510012  31.8804997  64.4409988  75.2490012  33.1304997  64.9779988
  74.3070012  29.6414997  68.1039988  73.1290012  29.2884997  68.6199988
  72.4040012  28.3984997  68.2379988  72.7010012  30.2744997  69.7379988
  71.7100012  29.8654997  70.0329988  72.5760012  31.2184997  69.1649988
  73.7340012  30.4444997  70.8619988  73.4140012  31.3084997  71.4839988
  74.7230012  30.6304997  70.3909988  74.0100012  29.2224997  71.8219988
  74.4240012  28.3314997  71.3039988  73.0450012  28.7774997  72.1479988
  74.8500012  29.4474997  73.0559988  74.8110012  28.5624997  73.7259988
  74.4170012  30.2624997  73.6729988  76.2560012  29.8094997  72.6629988
  76.2820012  30.8254997  72.2149988  76.5240012  29.2784997  71.7249988
  77.1680012  29.3974997  73.7749988  77.1500012  28.2884997  73.8499988
  76.8930012  29.8714997  74.7419988  78.6500012  29.7584997  73.3449988
  78.9360012  28.9824997  72.6029988  79.2700012  29.5114997  74.2339988
  79.0570012  31.1244997  72.8219988  78.5300012  31.4554997  71.9149988
  79.9200012  32.0404997  73.3549988  80.1470012  32.9664997  72.8059988
  80.6170012  31.7434997  74.6619988  81.6040012  32.2374997  74.7879988
  80.8420012  30.6654997  74.8119988  79.8920012  32.3094997  75.8949988
  78.8340012  31.9824997  75.7939988  79.8070012  33.4174997  75.9029988
  80.4710012  31.7104997  77.2709988  81.4460012  32.1884997  77.5099988
  80.6370012  30.6514997  76.9809988  79.4430012  31.8704997  78.3409988
  78.7250012  31.0244997  78.4009988  78.8530012  32.8104997  78.2819988
  80.1860012  31.7294997  79.7159988  80.8750012  32.5884997  79.8649988
  80.7920012  30.7984997  79.7129988  79.1820012  31.5384997  80.8799988
  79.8710012  31.3144997  81.7219988  78.4480012  30.7074997  80.8049988
  78.4450012  32.8644997  81.0679988  77.7930012  33.0174997  80.1809988
  79.1890012  33.6874997  81.1249988  77.6910012  32.7364997  82.3559988
  78.4300012  32.6334997  83.1789988  76.9470012  31.9134997  82.3019988
  77.1630012  33.6774997  82.6219988 107.4180012  37.7654997  79.6429988
 108.0760012  37.9054997  78.7579988 106.7570012  36.9204997  79.3529988
 107.9480012  37.4744997  80.5749988 106.5140012  39.0044997  79.7979988
 105.6810012  39.0694997  79.0669988 106.0700012  38.9884997  80.8159988
 107.3350012  40.3484997  79.7269988 107.9630012  40.3874997  80.6429988
 108.0560012  40.3174997  78.8819988 106.4600012  41.6114997  79.5139988
 105.9050012  41.4194997  78.5709988 105.7290012  41.6054997  80.3499988
 107.2660012  42.9924997  79.5519988 106.5360012  43.8264997  79.4759988
 107.7060012  43.0174997  80.5719988 108.4130012  42.9964997  78.4689988
 108.9010012  43.9924997  78.5309988 109.1350012  42.2024997  78.7569988
 107.9270012  42.7014997  77.0869988 107.4050012  41.7214997  77.0389988
 107.2140012  43.4534997  76.6869988 109.1300012  42.6854997  76.1109988
 109.7870012  43.5744997  76.2219988 109.7630012  41.7844997  76.2539988
 108.7260012  42.7034997  74.5829988 107.9080012  41.9804997  74.3759988
 108.4350012  43.7184997  74.2379988 110.0200012  42.2584997  73.7989988
 110.8110012  42.9454997  74.1679988 110.2730012  41.1794997  73.8839988
 110.0470012  42.7014997  72.3539988 109.1400012  42.3204997  71.8389988
 110.0340012  43.8124997  72.3499988 111.3470012  42.4244997  71.6159988
 112.2000012  42.9794997  72.0619988 111.6210012  41.3484997  71.6359988
 111.2590012  42.9194997  70.1709988 110.3080012  42.6234997  69.6789988
 111.2020012  44.0254997  70.2639988 112.4790012  42.5164997  69.4299988
 113.3300012  43.1294997  69.7959988 112.8830012  41.5104997  69.6729988
 112.3140012  42.5464997  67.9059988 111.3310012  42.1084997  67.6329988
 112.3700012  43.6014997  67.5609988 113.4730012  41.8564997  67.1599988
 114.6310012  41.6974997  67.6009988 113.0700012  41.5134997  65.9699988
 114.0820012  41.0964997  64.9599988 114.5370012  42.0194997  64.5409988
 114.8610012  40.5374997  65.5219988 113.4100012  40.1714997  63.8649988
 114.1510012  39.5054997  63.3729988 112.6780012  40.8994997  62.6799988
 112.0280012  41.6214997  63.2199988 113.4100012  41.5804997  62.1959988
 111.9850012  39.9664997  61.8089988 110.5010012  40.2664997  61.3829988
 109.7890012  40.5284997  62.7069988 109.4900012  39.5244997  63.6759988
 108.5520012  39.0474997  63.3199988 110.2960012  38.7644997  63.7629988
 109.2740012  40.2054997  65.1589988 109.3970012  39.3814997  65.8459988
 110.1130012  40.8434997  65.3929988 107.9990012  40.9154997  65.4489988
 107.9950012  42.2754997  64.7839988 108.7460012  42.9204997  65.2149988
 108.1070012  42.2994997  63.7099988 107.1300012  42.8314997  65.1139988
 106.8160012  40.1164997  64.9579988 106.8110012  40.0724997  63.8789988
 106.9830012  39.1484997  65.4069988 105.9220012  40.5114997  65.4159988
 107.9240012  41.0714997  66.9089988 107.9780012  40.1074997  67.3929988
 106.9840012  41.5334997  67.1709988 108.8040012  41.5164997  67.3519988
 110.3270012  41.4854997  60.5949988 109.9530012  39.0474997  60.7519988
 112.4630012  39.3164997  64.5499988 112.9280012  38.4994997  65.4139988
 114.1300012  38.3054997  65.7119988 111.7940012  37.7034997  66.1069988
 112.0570012  36.6464997  65.8869988 110.7890012  37.8874997  65.6699988
 111.5810012  38.1504997  67.6449988 110.6130012  37.6814997  67.9209988
 111.3650012  39.2394997  67.6119988 112.7090012  37.7674997  68.6439988
 113.6190012  38.3324997  68.3489988 112.8900012  36.6874997  68.4579988
 112.3420012  37.9804997  70.1219988 111.5420012  37.2604997  70.3999988
 111.8860012  38.9794997  70.2909988 113.5910012  37.7954997  70.9259988
 114.3440012  38.6004997  70.7889988 113.9000012  36.7824997  70.5919988
 113.5220012  37.6894997  72.4259988 114.5320012  37.4294997  72.8089988
 112.7760012  36.8844997  72.5989988 112.9180012  38.9174997  73.1939988
 112.9600012  38.5934997  74.2559988 111.8450012  38.9094997  72.9089988
 113.7080012  40.2414997  73.0149988 113.8560012  40.4744997  71.9499988
 114.2500012  41.0494997  73.9409988 114.8900012  41.8844997  73.6199988
 114.1830012  40.8564997  75.4009988 114.9980012  41.4214997  75.8999988
 114.4520012  39.7884997  75.5499988 112.9630012  41.3014997  76.2409988
 112.0760012  40.6374997  76.1569988 112.6760012  42.3134997  75.8819988
 113.1650012  41.4874997  77.7619988 112.4890012  42.2854997  78.1349988
 114.2140012  41.8184997  77.9209988 112.8940012  40.2374997  78.5529988
 113.5230012  39.4184997  78.1439988 111.8750012  39.8244997  78.3919988
 113.4530012  40.2514997  80.0119988 114.5580012  40.3624997  80.0199988
 113.1750012  39.2994997  80.5119988 112.8130012  41.4464997  80.8279988
 111.7100012  41.3104997  80.8389988 113.1350012  42.3594997  80.2839988
 113.1620012  41.4954997  82.2649988 112.8520012  40.5704997  82.7959988
 112.5750012  42.2984997  82.7609988 114.6340012  41.5894997  82.5919988
 114.9010012  40.5694997  82.9399988 114.8610012  42.3344997  83.3849988
 115.3000012  41.8264997  81.7349988  40.7990012  41.7134997  84.9599988
  40.3020012  41.6344997  83.9699988  41.0270012  42.7624997  85.2469988
  40.2590012  41.2004997  85.7849988  42.1870012  41.1134997  84.7609988
  42.7090012  41.3494997  83.8089988  42.8370012  41.6444997  85.4899988
  42.2430012  39.5904997  85.0029988  43.3200012  39.3204997  84.9649988
  41.7970012  39.3224997  85.9849988  41.5480012  38.7074997  83.8589988
  41.6800012  37.7014997  84.3099988  40.4690012  38.9724997  83.8589988
  42.2210012  38.8504997  82.5549988  42.3100012  39.8884997  82.1679988
  43.2960012  38.5844997  82.6479988  41.5330012  37.9234997  81.4669988
  42.2060012  37.9864997  80.5849988  41.5460012  36.8334997  81.6779988
  40.0460012  38.2264997  81.2309988  39.7190012  37.4554997  80.5009988
  39.3860012  38.0834997  82.1129988  39.6980012  39.5894997  80.6179988
  38.6120012  39.6314997  80.3869988  39.9730012  40.3424997  81.3869988
  40.4390012  40.0924997  79.3629988  40.1870012  41.1604997  79.1939988
  41.5410012  40.0044997  79.4769988  40.1440012  39.2584997  78.0579988
  40.3480012  38.2264997  78.4169988  39.0580012  39.3804997  77.8589988
  40.8280012  39.5534997  76.7539988  41.9060012  39.4304997  76.9919988
  40.6350012  38.7594997  76.0009988  40.6850012  40.8034997  75.8609988
  39.8030012  40.6384997  75.2059988  40.4140012  41.6514997  76.5249988
  41.9430012  41.2464997  75.0969988  41.8890012  42.2244997  74.5729988
  42.7890012  41.3164997  75.8129988  42.3340012  40.1954997  74.0889988
  42.8530012  39.3184997  74.5329988  41.4860012  39.7454997  73.5309988
  43.3300012  40.7134997  73.0479988  43.8810012  41.5784997  73.4759988
  43.8920012  39.8344997  72.6659988  42.5250012  41.2854997  71.8229988
  41.4360012  41.8324997  71.8359988  43.3050012  41.1984997  70.8079988
  42.6840012  41.5994997  69.5559988  41.6230012  41.9084997  69.6769988
  43.2080012  42.5174997  69.2139988  42.4720012  40.4404997  68.3629988
  43.4820012  39.9854997  68.2899988  42.0480012  41.0904997  67.0129988
  40.9960012  41.4324997  67.1129988  42.6920012  41.9634997  66.7749988
  42.1340012  40.1074997  66.0019988  43.6090012  39.5954997  65.6349988
  43.4500012  39.3004997  64.1089988  44.1310012  38.1784997  63.5179988
  45.2310012  38.1854997  63.6749988  43.6440012  37.2484997  63.8799988
  43.9080012  38.2594997  61.9769988  44.5400012  39.0704997  61.6449988
  44.4530012  37.4244997  61.5619988  42.4730012  38.3304997  61.3809988
  42.0080012  39.7934997  61.3639988  41.8620012  40.2364997  62.3379988
  42.7740012  40.3914997  60.8929988  41.0490012  39.7704997  60.8659988
  42.5500012  37.9074997  59.9579988  42.8820012  38.7594997  59.3839988
  43.1810012  37.0314997  59.9199988  41.5890012  37.7124997  59.5049988
  41.5070012  37.4474997  62.0809988  41.3300012  37.8314997  63.0749988
  41.8340012  36.4194997  62.1329988  40.5670012  37.5144997  61.5549988
  44.5720012  40.7054997  65.7579988  43.9240012  38.3424997  66.3969988
  41.4690012  39.5104997  68.7919988  41.7820012  38.5454997  69.6619988
  42.8710012  38.3194997  70.1229988  40.5330012  37.7784997  69.9819988
  40.1480012  37.2664997  69.0749988  39.7120012  38.4154997  70.3739988
  40.6480012  36.7894997  71.1939988  39.7110012  36.2444997  71.4379988
  41.0730012  37.3304997  72.0669988  41.5000012  35.6244997  70.7219988
  42.3760012  36.0314997  70.1729988  40.9790012  35.0164997  69.9519988
  42.0110012  34.7974997  71.9389988  42.6890012  35.4304997  72.5519988
  42.5350012  33.9184997  71.5069988  40.9060012  34.3004997  72.8509988
  40.3500012  33.6354997  72.1549988  40.2700012  35.1464997  73.1859988
  41.3180012  33.5324997  74.1109988  42.0010012  32.7244997  73.7709988
  40.4200012  33.0304997  74.5319988  42.0980012  34.3694997  75.2029988
  41.4840012  35.2604997  75.4529988  42.9630012  34.7954997  74.6519988
  42.3450012  33.6494997  76.5669988  41.6560012  32.8484997  76.8719988
  43.4130012  33.8584997  77.3899988  43.4410012  33.3704997  78.3749988
  44.5350012  34.8294997  77.1609988  44.3010012  35.3844997  76.2269988
  45.5450012  34.3694997  77.1179988  44.4660012  35.9194997  78.2389988
  44.5000012  35.4624997  79.2509988  43.4240012  36.2824997  78.1059988
  45.5480012  37.0044997  77.9779988  45.5290012  37.4434997  76.9579988
  46.4860012  36.4104997  78.0309988  45.6060012  38.2494997  78.9089988
  46.6960012  38.4624997  78.9159988  45.4900012  37.9304997  79.9669988
  44.8110012  39.4364997  78.4129988  43.9450012  38.9214997  77.9449988
  45.3550012  39.9894997  77.6179988  44.3180012  40.3934997  79.4479988
  43.8200012  39.8414997  80.2729988  43.5370012  41.0194997  78.9669988
  45.2890012  41.3204997  80.0659988  45.3610012  42.2404997  79.4469988
  46.2720012  40.8054997  80.0179988  45.0750012  41.8104997  81.5239988
  44.8540012  41.0074997  82.2589988  44.1130012  42.3624997  81.4499988
  45.8630012  42.5274997  81.8389988  25.0970012  72.3564997  80.4769988
  23.9880012  72.4094997  80.4369988  25.4950012  71.8614997  81.3879988
  25.4730012  71.5774997  79.7789988  25.9150012  73.5754997  80.1759988
  25.8620012  74.3954997  80.9239988  26.9530012  73.1964997  80.2899988
  25.7730012  74.1984997  78.8519988  26.4790012  75.0384997  78.6779988
  25.9700012  73.3874997  78.1199988  24.4150012  74.8794997  78.6799988
  23.5970012  74.1324997  78.7599988  24.2890012  75.6434997  79.4769988
  24.1910012  75.6384997  77.3899988  25.0610012  76.3144997  77.2499988
  24.1810012  74.9374997  76.5279988  22.8180012  76.4054997  77.4199988
  22.4700012  76.9664997  78.3139988  22.9010012  77.1844997  76.6329988
  21.6070012  75.6104997  76.9139988  21.4350012  74.6734997  77.4859988
  20.7000012  76.2454997  77.0079988  21.7400012  75.2144997  75.4449988
  22.0370012  76.0434997  74.7669988  22.4800012  74.4124997  75.2359988
  20.4140012  74.7164997  74.9039988  20.1040012  73.9154997  75.6079988
  19.7090012  75.5754997  74.9259988  20.4350012  74.0684997  73.4789988
  20.8100012  74.8804997  72.8199988  21.1230012  73.2074997  73.6129988
  19.1140012  73.5134997  72.9769988  18.7700012  72.9784997  73.8879988
  18.4520012  74.4054997  72.9679988  19.2310012  72.6124997  71.7519988
  18.2360012  72.2114997  71.4629988  19.4990012  73.2804997  70.9059988
  20.1780012  71.3344997  71.8679988  21.2240012  71.7084997  71.8769988
  20.1160012  70.7814997  72.8289988  20.1120012  70.3534997  70.6949988
  20.7630012  69.4854997  70.9319988  19.1050012  69.8924997  70.6009988
  20.5270012  70.9114997  69.2989988  21.3020012  71.6704997  69.5389988
  20.8820012  70.0374997  68.7109988  19.5290012  71.6274997  68.4349988
  18.3270012  71.7524997  68.6089988  20.2300012  72.3144997  67.5849988
  19.6140012  73.4924997  67.1029988  18.7040012  73.3694997  66.4769988
  19.2920012  74.0584997  68.0029988  20.5460012  74.3394997  66.2739988
  20.3030012  75.4084997  66.4569988  20.3510012  74.1174997  64.7479988
  19.2800012  74.3524997  64.5649988  21.0140012  74.8144997  64.1919988
  20.7370012  72.7764997  64.4779988  21.1370012  72.4194997  62.9739988
  22.7520012  72.6004997  62.9409988  23.4710012  72.3524997  64.1239988
  23.1220012  72.9204997  65.0129988  23.3820012  71.2604997  64.3099988
  24.9990012  72.8204997  64.0169988  25.5100012  72.5214997  64.9199988
  25.3590012  72.3144997  63.1329988  25.2190012  74.3254997  63.7799988
  26.6790012  74.5314997  63.3549988  26.9010012  73.8674997  62.5319988
  26.7990012  75.5414997  62.9909988  27.4130012  74.3164997  64.1169988
  24.2980012  74.8784997  62.7159988  24.3920012  75.9454997  62.5749988
  24.4340012  74.3064997  61.8099988  23.3050012  74.8414997  63.1399988
  24.9360012  75.1634997  65.0309988  25.4540012  74.7264997  65.8709988
  23.9130012  75.0944997  65.3689988  25.1850012  76.2074997  64.9169988
  20.8860012  70.9684997  62.8239988  20.6840012  73.3654997  61.9419988
  21.9140012  74.1274997  66.5509988  22.3920012  74.1774997  67.8539988
  21.8380012  74.7914997  68.7529988  23.7320012  73.3654997  67.9819988
  24.5650012  73.9664997  67.5589988  23.7000012  72.4184997  67.4009988
  24.0860012  72.9974997  69.4539988  23.2190012  72.5394997  69.9779988
  24.3780012  73.9924997  69.8519988  25.0840012  71.9634997  69.7389988
  26.0310012  72.0914997  69.1719988  24.6330012  71.0554997  69.2869988
  25.3940012  71.8074997  71.2279988  24.6030012  71.9704997  71.9909988
  26.0630012  72.6884997  71.3269988  26.3230012  70.6314997  71.5249988
  26.8040012  70.3274997  70.5699988  25.6550012  69.7774997  71.7669988
  27.3210012  70.7824997  72.6439988  28.1140012  71.4954997  72.3309988
  27.9460012  69.8654997  72.6869988  26.6840012  71.1074997  73.9889988
  25.9190012  71.9124997  73.9779988  27.3630012  71.4574997  74.7959988
  25.9980012  69.8434997  74.5599988  26.5170012  68.8844997  74.4129988
  24.7410012  69.7884997  75.1629988  24.3390012  68.8464997  75.5649988
  23.8310012  70.9924997  75.2779988  23.7820012  71.3874997  74.2409988
  24.2660012  71.7334997  75.9819988  22.3840012  70.5994997  75.6979988
  22.3190012  69.5174997  75.4549988  21.6200012  71.1824997  75.1399988
  22.1400012  70.9144997  77.1869988  22.3530012  71.9374997  77.5649988
  22.8340012  70.3144997  77.8149988  20.6630012  70.6294997  77.5459988
  20.4450012  69.5894997  77.2189988  19.9920012  71.3344997  77.0099988
  20.2690012  70.8484997  79.0389988  20.5810012  69.8514997  79.4159988
  19.1790012  71.0184997  79.1649988  20.9890012  71.9554997  79.8129988
  20.8510012  72.8664997  79.1939988  22.0620012  71.6694997  79.8429988
  20.3690012  72.2044997  81.2489988  19.3400012  72.5434997  81.0039988
  20.9410012  73.0114997  81.7549988  20.3650012  71.0234997  82.1929988
  21.4250012  70.7754997  82.4149988  19.8640012  70.0974997  81.8409988
  19.8940012  71.3174997  83.1559988  41.9780012 105.2654997  80.7419988
  42.5980012 105.6284997  81.5899988  41.7030012 104.2024997  80.9139988
  41.1500012 106.0064997  80.7449988  42.7530012 105.3564997  79.3989988
  43.2240012 106.3544997  79.2709988  43.5290012 104.5784997  79.5579988
  41.7620012 105.0764997  78.2639988  41.3070012 104.0654997  78.3419988
  41.0380012 105.9174997  78.3089988  42.3030012 105.2164997  76.8399988
  42.8850012 104.2924997  76.6349988  41.4210012 105.1674997  76.1659988
  43.1090012 106.4774997  76.5399988  42.7620012 107.3544997  77.1279988
  44.1740012 106.2974997  76.7989988  43.0180012 106.9074997  75.0609988
  41.9500012 107.1304997  74.8539988  43.6560012 107.7974997  74.8699988
  43.5750012 105.8564997  74.0279988  44.6000012 105.6854997  74.4219988
  42.8680012 105.0074997  74.1429988  43.4830012 106.2814997  72.5549988
  42.4340012 106.6274997  72.4349988  44.2030012 107.1234997  72.4849988
  43.8700012 105.1764997  71.5969988  44.8870012 104.7824997  71.8049988
  43.1470012 104.3354997  71.6539988  43.9060012 105.6434997  70.1589988
  44.1410012 106.7194997  70.3019988  44.7270012 105.0804997  69.6639988
  42.6050012 105.5084997  69.4079988  41.8570012 106.0994997  69.9789988
  42.6800012 106.1784997  68.5249988  42.2940012 104.1154997  68.9629988
  43.1950012 103.5164997  68.7099988  41.8290012 103.5204997  69.7779988
  41.5160012 104.0884997  67.6389988  40.4660012 104.4334997  67.7489988
  41.9420012 104.7624997  66.8659988  41.3220012 102.6324997  67.1559988
  42.2680012 102.2284997  66.7359988  40.9350012 102.0434997  68.0139988
  40.4250012 102.3784997  65.9769988  40.8160012 102.8904997  65.0729988
  40.4530012 101.2974997  65.7219988  38.9790012 102.9244997  66.3329988
  38.2430012 102.4004997  67.1579988  38.7360012 103.9974997  65.5439988
  37.3960012 104.4444997  65.4239988  36.9300012 103.9454997  64.5469988
  36.7870012 104.0954997  66.2859988  37.2380012 105.9984997  65.3809988
  36.1510012 106.2294997  65.3829988  37.9590012 106.5484997  64.1319988
  37.7780012 105.8114997  63.3209988  37.5420012 107.5594997  63.9399988
  39.3880012 106.6224997  64.2849988  40.2190012 107.3444997  63.1509988
  41.3710012 106.3294997  62.9429988  41.9920012 105.7984997  64.1019988
  41.2650012 105.6414997  64.9269988  42.2070012 104.7284997  63.8929988
  43.1310012 106.5714997  64.6549988  42.8570012 107.5564997  65.0019988
  43.5910012 106.0164997  65.4599988  44.2420012 106.9924997  63.6169988
  44.8030012 105.7634997  62.9679988  44.0700012 105.3164997  62.3119988
  45.6350012 106.0464997  62.3389988  45.2620012 105.0784997  63.6649988
  43.8250012 107.9244997  62.5389988  43.2350012 107.2874997  61.8969988
  43.3100012 108.7644997  62.9819988  44.7030012 108.1984997  61.9729988
  45.3410012 107.6224997  64.3939988  45.8350012 106.8184997  64.9189988
  44.8490012 108.2924997  65.0849988  46.0930012 108.0184997  63.7279988
  39.4340012 107.4154997  61.8599988  40.8160012 108.6174997  63.6669988
  37.9040012 106.6174997  66.5269988  37.2010012 106.4894997  67.6879988
  36.1300012 105.9264997  67.8169988  37.9760012 107.1294997  68.8609988
  38.2680012 108.1534997  68.5459988  38.8070012 106.4144997  69.0439988
  37.1990012 107.2674997  70.1499988  36.9960012 106.2174997  70.4519988
  36.3360012 107.9444997  69.9779988  38.0200012 107.8724997  71.3469988
  37.2760012 107.9544997  72.1679988  38.5410012 108.7934997  71.0089988
  39.1330012 106.9504997  72.0159988  39.5800012 107.5204997  72.8579988
  39.9230012 106.8604997  71.2399988  38.7900012 105.5234997  72.5139988
  38.7160012 104.9504997  71.5649988  37.7690012 105.5574997  72.9519988
  39.7950012 104.7734997  73.4579988  39.9890012 105.3284997  74.4009988
  40.6640012 104.7614997  72.7669988  39.3620012 103.3684997  73.8409988
  40.1370012 103.0744997  74.5799988  39.3600012 102.8624997  72.8509988
  37.9210012 103.3064997  74.3579988  37.1820012 103.7334997  73.6639988
  37.4750012 102.7554997  75.5279988  36.4050012 102.5124997  75.6109988
  38.3470012 102.0974997  76.5799988  39.3240012 101.7064997  76.2229988
  37.7620012 101.3114997  77.1029988  38.6020012 103.1384997  77.7119988
  39.1820012 103.9834997  77.2839988  39.1530012 102.6624997  78.5509988
  37.2600012 103.6074997  78.3499988  36.6510012 102.7684997  78.7489988
  36.6540012 104.0834997  77.5489988  37.4960012 104.6104997  79.5289988
  38.2220012 105.3674997  79.1649988  37.9250012 104.0134997  80.3619988
  36.1640012 105.1814997  79.9369988  35.4480012 104.3604997  80.1529988
  35.7350012 105.7684997  79.0969988  36.3590012 106.2124997  81.0949988
  35.5680012 106.9814997  81.2249988  37.3100012 106.7424997  80.8729988
  36.6850012 105.5374997  82.4289988  37.4800012 104.7614997  82.4149988
  35.7580012 105.0084997  82.7349988  37.0090012 106.5654997  83.5569988
  36.3420012 107.4544997  83.5399988  38.0470012 106.8644997  83.2949988
  37.0040012 106.0394997  84.5349988 103.3310012  35.8424997  80.2499988
 102.4080012  35.5724997  80.8059988 103.9620012  36.4884997  80.8969988
 103.8980012  34.9064997  80.0579988 102.8110012  36.6814997  79.0329988
 102.4590012  37.6094997  79.5299988 103.6820012  36.9604997  78.4009988
 101.7910012  36.0394997  78.0559988 102.2700012  35.2864997  77.3949988
 100.9090012  35.5854997  78.5559988 101.1740012  37.0544997  76.9819988
 100.0790012  36.9834997  76.8129988 101.3390012  38.1294997  77.2099988
 101.9020012  36.9494997  75.6419988 101.5970012  35.9334997  75.3089988
 101.5910012  37.6454997  74.8339988 103.5180012  37.0654997  75.7199988
 103.8100012  38.0194997  76.2099988 103.7970012  36.1934997  76.3489988
 104.1550012  36.7544997  74.3619988 103.9200012  37.4174997  73.5019988
 105.2410012  36.9664997  74.4689988 104.0350012  35.3374997  73.9729988
 104.5760012  34.6674997  74.6749988 103.0110012  34.9694997  73.7449988
 104.8060012  35.1244997  72.6499988 104.4030012  35.8304997  71.8929988
 105.8800012  35.3784997  72.7809988 104.7530012  33.6934997  72.1569988
 105.3780012  33.8184997  71.2469988 105.3160012  33.0414997  72.8589988
 103.3350012  33.2034997  71.8139988 102.9380012  33.2744997  72.8489988
 102.9210012  33.8884997  71.0439988 103.3610012  31.7504997  71.2019988
 104.0220012  31.5694997  70.3279988 103.8920012  31.1684997  71.9849988
 101.9630012  31.1304997  70.8579988 102.1570012  30.3434997  70.0979988
 101.4180012  30.7624997  71.7539988 101.0000012  32.1764997  70.2029988
 100.5750012  32.7684997  71.0409988 101.6440012  32.6244997  69.4159988
  99.6870012  31.5754997  69.6709988  99.8400012  30.7564997  68.9359988
  99.1650012  30.9904997  70.4579988  98.6910012  32.6164997  69.1219988
  98.3640012  33.6044997  69.7189988  98.5050012  32.4124997  67.7809988
  98.0420012  33.5554997  67.0089988  97.3940012  33.0584997  66.2549988
  97.4480012  34.3224997  67.5499988  99.1770012  34.2154997  66.1959988
  98.5860012  34.9424997  65.5979988  99.7970012  32.9754997  65.4179988
 100.2530012  32.2074997  66.0789988  99.1220012  32.5754997  64.6319988
 100.9180012  33.5554997  64.6989988 101.4650012  32.8814997  63.4329988
 102.3520012  34.0294997  62.6089988 101.6500012  35.2194997  62.3119988
 102.0150012  35.5294997  61.3089988 100.5490012  35.1434997  62.1879988
 102.0400012  36.4544997  63.1629988 101.7030012  37.3154997  62.6069988
 101.3870012  36.4514997  64.0229988 103.4950012  36.6614997  63.7129988
 104.4590012  36.6094997  62.5889988 104.5200012  35.5724997  62.2939988
 104.1150012  37.1304997  61.7079988 105.4410012  36.9674997  62.8619988
 103.5120012  38.0534997  64.2889988 102.7710012  38.0314997  65.0739988
 104.3930012  38.2524997  64.8809988 103.2630012  38.7184997  63.4749988
 103.7580012  35.6574997  64.7729988 104.7150012  35.7014997  65.2729988
 103.5770012  34.6674997  64.3819988 102.9460012  35.7144997  65.4819988
 102.3770012  31.7824997  63.9539988 100.3230012  32.3524997  62.6489988
 100.0900012  34.8174997  67.0859988  99.7280012  36.0034997  67.6079988
  98.7590012  36.6674997  67.2099988 100.6740012  36.4044997  68.7299988
 101.5170012  36.7474997  68.0939988 101.0070012  35.5484997  69.3549988
 100.0620012  37.5954997  69.5069988  99.7130012  38.4924997  68.9509988
 100.8900012  37.9864997  70.1359988  98.8430012  37.0574997  70.2719988
  99.0290012  35.9834997  70.4839988  97.8760012  37.2704997  69.7679988
  98.8340012  37.6944997  71.6779988  98.8700012  38.8054997  71.6999988
  99.6330012  37.2994997  72.3409988  97.5050012  37.3144997  72.3829988
  97.3400012  36.2154997  72.3779988  96.6980012  37.7694997  71.7699988
  97.3460012  37.9034997  73.7859988  96.2520012  37.9764997  73.9659988
  97.7630012  38.9274997  73.6749988  98.0040012  37.0524997  74.8279988
  98.1810012  37.6764997  75.7299988  99.0160012  36.7394997  74.4929988
  97.2420012  35.8104997  75.1659988  96.2140012  35.9714997  75.5209988
  97.5250012  34.4924997  74.8979988  96.8000012  33.7574997  75.2759988
  98.7470012  33.8954997  74.2079988  99.2910012  34.7204997  73.7009988
  98.3820012  33.1704997  73.4489988  99.5980012  33.1404997  75.2779988
  98.9060012  32.4974997  75.8629988 100.0020012  33.9204997  75.9579988
 100.6820012  32.3384997  74.6139988 101.2110012  33.1044997  74.0069988
 100.1400012  31.6104997  73.9729988 101.6350012  31.6144997  75.5559988
 102.3180012  32.3244997  76.0699988 102.2050012  30.9904997  74.8349988
 101.0670012  30.6854997  76.5999988 101.6040012  29.7194997  76.4879988
 100.0140012  30.5204997  76.2839988 101.1790012  31.2174997  78.0659988
 100.3510012  31.9364997  78.2439988 102.1450012  31.7564997  78.1599988
 100.9520012  30.0814997  79.0609988 101.5280012  29.1854997  78.7439988
  99.8760012  29.8034997  79.0509988 101.3190012  30.4884997  80.4969988
 100.6760012  31.2904997  80.9189988 102.3980012  30.7344997  80.5849988
 101.3660012  29.6664997  81.2419988  33.8610012 100.3904997  80.2029988
  32.7870012 100.6544997  80.0979988  34.4070012 101.3224997  79.9439988
  34.1270012 100.1904997  81.2629988  34.1540012  99.2434997  79.1799988
  35.1310012  98.7254997  79.2889988  33.4450012  98.4454997  79.4879988
  34.0060012  99.5264997  77.7039988  33.2720012  98.7604997  77.3739988
  33.4450012 100.4214997  77.3599988  35.2280012  99.4534997  76.7889988
  35.9940012 100.1534997  77.1849988  35.4860012  98.3794997  76.9079988
  34.9440012  99.8434997  75.3209988  34.1380012  99.1514997  74.9939988
  34.5480012 100.8734997  75.1919988  36.1840012  99.6204997  74.4889988
  37.0480012 100.0754997  75.0199988  36.4410012  98.5394997  74.5099988
  36.1400012 100.1664997  73.0649988  35.5780012 101.1244997  73.0799988
  37.1010012 100.5564997  72.6679988  35.5430012  99.1504997  72.0929988
  36.3640012  98.5754997  71.6149988  34.8720012  98.4634997  72.6509988
  34.7800012  99.8694997  70.9779988  34.0520012 100.5904997  71.4079988
  35.4170012 100.5034997  70.3259988  34.1980012  98.7974997  70.0949988
  34.8920012  98.3204997  69.3689988  33.8980012  98.0574997  70.8679988
  32.9530012  99.3104997  69.2649988  32.1080012  99.6984997  69.8729988
  33.2130012 100.0844997  68.5109988  32.3040012  98.0734997  68.4969988
  32.9190012  97.5194997  67.7559988  32.1450012  97.3834997  69.3529988
  30.8860012  98.4494997  68.0169988  30.1960012  98.4714997  68.8869988
  30.8860012  99.4944997  67.6389988  30.3290012  97.3654997  67.0849988
  30.5740012  96.4174997  67.6089988  29.2190012  97.4224997  67.0799988
  30.9720012  97.2374997  65.6729988  32.0720012  97.2384997  65.8249988
  30.5970012  96.3224997  65.1649988  30.5700012  98.3924997  64.7699988
  29.6590012  99.1774997  65.1019988  31.2150012  98.4914997  63.5779988
  30.5990012  99.2314997  62.5709988  30.8300012  98.6534997  61.6509988
  29.4890012  99.2014997  62.5999988  31.1260012 100.7094997  62.3479988
  30.3950012 101.1364997  61.6279988  32.5640012 100.7064997  61.6309988
  33.2860012 100.1604997  62.2749988  32.5500012 100.0714997  60.7199988
  33.0330012 102.0534997  61.3179988  34.6290012 102.2834997  61.2409988
  35.0160012 101.7664997  62.6909988  36.1300012 102.3784997  63.4139988
  37.0970012 102.2294997  62.8889988  35.8840012 103.4354997  63.6549988
  36.3900012 101.6244997  64.7479988  36.8820012 100.7064997  64.4629988
  37.0110012 102.2394997  65.3829988  35.2120012 101.2364997  65.6779988
  34.5040012 100.0954997  65.0539988  33.6510012  99.9014997  65.6869988
  34.1900012 100.3484997  64.0519988  35.1540012  99.2374997  64.9679988
  35.7030012 100.7604997  67.0209988  36.5010012 101.3994997  67.3709988
  34.9110012 100.8384997  67.7499988  36.0880012  99.7604997  66.8869988
  34.3230012 102.4344997  65.7579988  34.8690012 103.3434997  65.9609988
  33.5950012 102.4894997  66.5539988  33.8300012 102.4694997  64.7969988
  35.2280012 101.4904997  60.1289988  34.8580012 103.7364997  61.1289988
  31.2730012 101.4734997  63.5779988  30.3060012 102.2204997  63.8819988
  29.3100012 102.3744997  63.2069988  30.6340012 103.0134997  65.1899988
  30.4320012 104.0604997  64.8759988  31.6000012 102.7424997  65.6669988
  29.6490012 102.6844997  66.2749988  29.6120012 101.5764997  66.1919988
  28.6820012 103.1214997  65.9449988  29.9690012 103.2574997  67.6659988
  29.0540012 103.0564997  68.2629988  29.9860012 104.3684997  67.6339988
  31.2180012 102.7974997  68.3859988  32.0920012 103.4444997  68.1589988
  31.5310012 101.7834997  68.0559988  30.8370012 102.9784997  69.8919988
  30.0770012 102.1814997  70.0389988  30.4610012 103.9884997  70.1609988
  32.0410012 102.7664997  70.7709988  32.7180012 103.6474997  70.7929988
  32.6050012 101.8584997  70.4679988  31.5820012 102.5204997  72.2829988
  30.7890012 101.7434997  72.2929988  31.0370012 103.4504997  72.5529988
  32.8230012 102.2654997  73.1459988  33.3140012 101.2944997  72.9859988
  33.3290012 103.0334997  74.1229988  34.3230012 102.7404997  74.4909988
  32.8650012 104.3114997  74.6319988  32.2360012 104.8004997  73.8579988
  33.7400012 104.9904997  74.7159988  32.0300012 104.2544997  75.9859988
  31.6510012 105.2744997  76.2099988  32.6160012 103.7314997  76.7719988
  30.7130012 103.4234997  75.8749988  30.9040012 102.3364997  75.7559988
  30.2230012 103.7914997  74.9479988  29.8450012 103.6054997  77.1029988
  28.8740012 103.1794997  76.7719988  29.6450012 104.6544997  77.4089988
  30.1770012 102.7404997  78.3429988  31.0410012 103.1504997  78.9079988
  30.3150012 101.7314997  77.8989988  28.8980012 102.7794997  79.2999988
  28.1130012 102.2214997  78.7469988  28.4460012 103.7774997  79.4799988
  29.1480012 102.0274997  80.5359988  28.2630012 102.1624997  81.1929988
  29.9440012 102.6104997  81.0479988  29.7370012 100.5724997  80.4379988
  30.8140012 100.7074997  80.1979988  29.2260012 100.0984997  79.5729988
  29.5180012  99.9934997  81.3599988  25.8600012  84.0764997  80.5419988
  25.9480012  83.1054997  81.0749988  25.1720012  84.7994997  81.0299988
  26.9120012  84.4194997  80.4419988  25.3340012  83.6324997  79.1529988
  24.4540012  82.9554997  79.1919988  25.0710012  84.5054997  78.5179988
  26.4270012  82.8164997  78.3809988  27.1230012  83.5084997  77.8599988
  27.0550012  82.1754997  79.0359988  25.7740012  81.8184997  77.3249988
  26.6490012  81.4594997  76.7419988  25.1940012  81.0394997  77.8649988
  24.8660012  82.6424997  76.3739988  24.1840012  83.3144997  76.9369988
  25.4670012  83.3564997  75.7699988  24.1440012  81.8024997  75.2989988
  24.8800012  81.2574997  74.6699988  23.3070012  81.1614997  75.6509988
  23.4400012  82.6324997  74.2009988  22.5700012  83.1594997  74.6479988
  24.0460012  83.3484997  73.6059988  22.9460012  81.6024997  73.1899988
  22.8350012  80.5724997  73.5909988  21.9510012  81.9574997  72.8459988
  23.8740012  81.5894997  71.8809988  24.1950012  82.6074997  71.5729988
  24.8450012  81.1434997  72.1819988  23.2600012  80.8584997  70.6939988
  22.5700012  80.0254997  70.9479988  22.5030012  81.5584997  70.2809988
  24.3420012  80.4324997  69.6479988  25.0790012  79.7554997  70.1299988
  23.8540012  79.8784997  68.8179988  25.0810012  81.5284997  69.0359988
  24.3920012  82.1724997  68.4479988  25.4890012  82.2804997  69.7449988
  26.3470012  81.0794997  68.1709988  26.6810012  82.0944997  67.8679988
  27.1360012  80.5404997  68.7379988  25.8210012  80.3814997  66.9169988
  25.0470012  79.6034997  67.0929988  25.3860012  81.0374997  66.1329988
  26.9930012  79.7704997  66.1819988  27.8190012  80.4804997  65.9599988
  27.3780012  78.9334997  66.8029988  26.6330012  79.2824997  64.7879988
  27.0970012  79.7314997  63.8189988  25.8440012  78.2554997  65.0109988
  25.5870012  77.2234997  64.0729988  26.3270012  77.2444997  63.2449988
  25.7220012  76.2344997  64.5609988  24.1430012  77.3934997  63.5379988
  23.9150012  76.4534997  62.9909988  23.9030012  78.6274997  62.5869988
  24.8180012  78.5504997  61.9609988  22.9570012  78.3964997  62.0519988
  23.7840012  79.9424997  63.2469988  24.0010012  81.1464997  62.2359988
  23.8830012  82.2424997  63.4159988  23.1440012  83.4414997  63.1029988
  23.8310012  84.3124997  63.0439988  22.5040012  83.4744997  62.1959988
  22.3750012  83.8794997  64.4429988  23.0340012  83.8104997  65.2959988
  22.1380012  84.9294997  64.3459988  21.1110012  83.0614997  64.6599988
  20.2700012  83.2024997  63.4409988  20.7260012  82.6814997  62.6119988
  19.3410012  82.7304997  63.7259988  20.1230012  84.2424997  63.1859988
  21.4250012  81.5494997  64.9349988  22.0960012  81.4604997  65.7759988
  20.5480012  80.9714997  65.1849988  21.8100012  81.0864997  64.0389988
  20.4030012  83.6104997  65.8659988  20.4700012  84.6874997  65.8099988
  21.0270012  83.3354997  66.7039988  19.3880012  83.2724997  66.0119988
  25.3110012  81.1014997  61.5159988  22.7890012  81.2784997  61.3169988
  23.4130012  77.4684997  64.7369988  22.1240012  76.9774997  64.6789988
  21.5100012  76.5824997  63.7559988  21.5690012  77.0574997  66.0759988
  20.5800012  76.5544997  66.1199988  21.3910012  78.1304997  66.3029988
  22.5140012  76.3854997  67.0969988  23.5260012  76.8104997  66.9219988
  22.4480012  75.2954997  66.8909988  22.2270012  76.6934997  68.5789988
  21.1240012  76.6174997  68.6869988  22.5990012  77.7184997  68.7919988
  22.8830012  75.6804997  69.5339988  23.8810012  75.2694997  69.2679988
  22.2970012  74.7444997  69.4139988  22.6940012  76.2744997  70.9559988
  21.6080012  76.4424997  71.1149988  23.3760012  77.1504997  70.9239988
  23.2860012  75.3374997  71.9999988  24.0720012  74.7314997  71.4989988
  22.4730012  74.6304997  72.2709988  23.9270012  76.2104997  73.0859988
  24.6320012  76.9594997  72.6659988  24.5180012  75.5184997  73.7229988
  22.8470012  77.0164997  73.7279988  22.3200012  77.6764997  73.0219988
  22.5120012  77.0244997  75.0549988  21.6440012  77.5714997  75.4499988
  23.1560012  76.0674997  76.0699988  23.2280012  75.0084997  75.7419988
  22.4940012  75.9164997  76.9489988  24.4740012  76.8334997  76.4489988
  25.1150012  76.6314997  75.5649988  25.0800012  76.3014997  77.2129988
  24.3430012  78.2754997  77.0029988  23.8760012  78.9404997  76.2449988
  25.4040012  78.5484997  77.1899988  23.3690012  78.5574997  78.1849988
  22.3480012  78.1294997  78.0969988  23.0770012  79.6294997  78.1579988
  23.8460012  78.2834997  79.6569988  24.7390012  78.9154997  79.8519988
  24.2540012  77.2514997  79.7099988  22.7970012  78.4104997  80.8119988
  23.1540012  77.6454997  81.5339988  21.7860012  78.1614997  80.4249988
  22.7200012  79.8854997  81.3399988  22.2240012  80.4674997  80.5349988
  23.7120012  80.3634997  81.4899988  21.9370012  79.9594997  82.5969988
  22.0810012  79.0864997  83.2689988  20.8540012  79.8314997  82.3839988
  22.1460012  80.8284997  83.2569988  22.5110012  64.6184997  80.7769988
  21.5680012  65.1784997  80.9559988  22.6910012  63.9054997  81.6099988
  22.4400012  64.0804997  79.8079988  23.6420012  65.6704997  80.7699988
  23.3020012  66.5384997  80.1669988  23.7550012  65.9854997  81.8299988
  25.0630012  65.2054997  80.3989988  25.8780012  65.9374997  80.5799988
  25.4210012  64.4364997  81.1159988  25.3230012  64.7184997  78.9259988
  26.3490012  64.2924997  78.9439988  24.7120012  63.8744997  78.5399988
  25.2710012  65.9374997  77.9879988  24.3220012  66.4554997  78.2469988
  26.0910012  66.6264997  78.2829988  25.4030012  65.5334997  76.5459988
  25.6890012  66.3434997  75.8419988  26.2630012  64.8824997  76.2779988
  24.2000012  64.7734997  75.9469988  24.5680012  64.1414997  75.1119988
  23.7540012  64.0804997  76.6929988  23.0330012  65.5954997  75.4219988
  22.3490012  64.7514997  75.1919988  22.5710012  66.1214997  76.2849988
  23.2100012  66.5864997  74.2389988  22.1860012  66.9864997  74.0809988
  23.8670012  67.4294997  74.5419988  23.7410012  65.8874997  72.9959988
  24.7450012  65.4124997  73.0069988  23.0060012  65.0984997  72.7299988
  23.8900012  66.8334997  71.7809988  22.8830012  67.2164997  71.5089988
  24.4460012  67.7244997  72.1439988  24.7190012  66.2244997  70.5779988
  24.5300012  65.1364997  70.4529988  24.4220012  66.6764997  69.6079988
  26.2010012  66.2224997  70.7149988  26.6430012  67.2414997  70.7139988
  26.3540012  65.9224997  71.7739988  26.9140012  65.2564997  69.7339988
  26.4050012  64.2694997  69.7079988  26.5730012  65.7044997  68.7759988
  28.4210012  65.1074997  70.0489988  28.9710012  66.0724997  70.0379988
  28.6100012  64.5954997  71.0159988  29.1300012  64.3894997  68.8359988
  29.5420012  63.2114997  68.7969988  29.0300012  65.2134997  67.8319988
  29.4540012  64.6534997  66.5249988  30.0660012  65.3914997  65.9619988
  30.1450012  63.7904997  66.6379988  28.2340012  64.2414997  65.7089988
  28.4660012  64.0364997  64.6419988  27.1020012  65.2584997  65.6049988
  26.4920012  65.3444997  66.5299988  27.5780012  66.2434997  65.4089988
  26.4210012  64.9414997  64.4459988  25.2360012  65.7684997  63.9349988
  24.7150012  64.9184997  62.6749988  25.1600012  63.6314997  62.3309988
  24.7770012  63.4554997  61.3029988  26.2710012  63.6324997  62.3369988
  24.5970012  62.5284997  63.3319988  25.1720012  61.6284997  63.1719988
  24.8520012  62.8564997  64.3289988  23.1010012  62.1904997  63.2459988
  22.1750012  63.4414997  63.3629988  21.2120012  63.0754997  63.0379988
  22.1130012  63.9384997  64.3189988  22.4530012  64.1264997  62.5759988
  22.9570012  61.4464997  61.9249988  23.8930012  60.9144997  61.8439988
  22.0300012  60.9104997  61.7849988  22.9530012  62.2084997  61.1599988
  22.7380012  61.3144997  64.4139988  21.7430012  60.9074997  64.3069988
  22.8280012  61.8524997  65.3459988  23.4090012  60.4704997  64.4659988
  24.2640012  65.7154997  65.0659988  25.5730012  67.1304997  63.4479988
  27.7020012  63.0444997  66.4799988  27.4030012  61.9624997  65.7889988
  27.3980012  61.8304997  64.5729988  26.7940012  61.0064997  66.8799988
  27.3870012  61.2634997  67.7829988  26.9450012  59.9664997  66.5189988
  25.2670012  61.2694997  67.1109988  24.7380012  61.7344997  66.2519988
  25.1660012  62.0044997  67.9379988  24.5820012  59.9214997  67.5609988
  24.7100012  59.1714997  66.7509988  23.4940012  60.1224997  67.6579988
  25.1660012  59.3454997  68.9149988  26.2520012  59.1314997  68.8199988
  24.4910012  58.4814997  69.0909988  25.0770012  60.4064997  70.0729988
  25.8930012  61.1604997  70.0699988  25.2280012  59.8934997  71.0469988
  23.7880012  61.2364997  70.3839988  22.8940012  60.7214997  69.9709988
  23.8410012  62.1654997  69.7769988  23.6230012  61.6144997  71.8489988
  23.3060012  60.7324997  72.4449988  22.7870012  62.3324997  71.9909988
  24.9320012  62.3294997  72.3119988  25.0740012  63.3324997  71.8839988
  25.8290012  61.8924997  73.2469988  26.6190012  62.6414997  73.4029988
  25.8160012  60.6454997  74.0789988  26.7520012  60.0474997  74.0359988
  25.0880012  59.8964997  73.6999988  25.4410012  60.7914997  75.5709988
  25.3590012  59.8124997  76.0899988  24.4160012  61.1854997  75.4049988
  26.4290012  61.7464997  76.2599988  26.0240012  61.8984997  77.2839988
  26.4750012  62.7064997  75.7029988  27.7710012  61.0594997  76.4729988
  28.2340012  60.7554997  75.5099988  27.5520012  60.1454997  77.0669988
  28.8520012  61.9344997  77.1219988  28.9440012  62.7884997  76.4179988
  29.7870012  61.3374997  77.1829988  28.5660012  62.5274997  78.5089988
  28.6840012  61.8394997  79.3729988  27.5220012  62.9044997  78.5079988
  29.5480012  63.6824997  78.9119988  29.3840012  64.4884997  78.1659988
  30.5930012  63.3224997  78.7939988  29.1460012  64.3514997  80.2439988
  28.0490012  64.5164997  80.3029988  29.6560012  65.3314997  80.3609988
  29.4360012  63.7304997  81.1179988 114.6320012  49.0784997  82.0179988
 114.5410012  49.7704997  82.8819988 113.8240012  49.2034997  81.2659988
 115.6290012  49.2534997  81.5579988 114.5460012  47.6794997  82.6769988
 115.5280012  47.2994997  83.0299988 113.9240012  47.7914997  83.5909988
 114.0750012  46.5054997  81.8289988 113.9430012  45.6874997  82.5689988
 113.0880012  46.7484997  81.3799988 114.9740012  46.0874997  80.6859988
 115.0430012  46.8794997  79.9099988 116.0090012  45.8484997  81.0119988
 114.5150012  44.7344997  79.9469988 115.2550012  44.5934997  79.1299988
 114.6740012  43.8634997  80.6179988 113.0710012  44.7194997  79.3759988
 112.8180012  43.6384997  79.3419988 112.3590012  45.1624997  80.1039988
 112.9690012  45.4004997  78.0319988 111.8860012  45.6444997  77.9809988
 113.5430012  46.3454997  77.9249988 113.2490012  44.3824997  76.9129988
 114.0110012  43.6434997  77.2409988 112.2760012  43.8474997  76.8769988
 113.5210012  44.9294997  75.5189988 112.5950012  45.4894997  75.2649988
 114.4420012  45.5374997  75.6479988 113.7210012  43.8274997  74.4329988
 114.6770012  43.2774997  74.5669988 112.9150012  43.0724997  74.5549988
 113.7790012  44.4104997  73.0249988 114.4210012  45.3134997  73.1039988
 114.2520012  43.7594997  72.2589988 112.4710012  44.9194997  72.3599988
 111.9110012  43.9794997  72.1639988 111.9830012  45.7754997  72.8729988
 112.6700012  45.3294997  70.8839988 113.0900012  44.4814997  70.3029988
 111.6570012  45.5224997  70.4699988 113.5410012  46.5404997  70.7169988
 113.1570012  47.3714997  71.3469988 114.6190012  46.3044997  70.8479988
 113.3600012  47.1074997  69.2459988 113.7090012  46.2454997  68.6369988
 112.3160012  47.4194997  69.0329988 114.2890012  48.2714997  69.0059988
 115.1230012  48.7244997  69.7739988 114.0950012  48.7364997  67.8019988
 114.9230012  49.8234997  67.3949988 114.3540012  50.7534997  67.1779988
 115.7320012  50.1074997  68.1019988 115.7120012  49.4814997  66.0289988
 116.4740012  50.2894997  65.9749988 114.6600012  49.2274997  64.8809988
 113.7800012  48.6254997  65.1939988 114.1750012  50.2244997  64.8089988
 115.3660012  48.7854997  63.6999988 115.1190012  47.4664997  62.9829988
 116.1010012  46.4904997  63.8749988 117.3770012  46.1874997  63.2989988
 117.3250012  46.0114997  62.2029988 118.0620012  47.0434997  63.4789988
 117.9660012  44.8884997  63.8849988 118.8380012  44.5204997  63.3629988
 118.3280012  45.0574997  64.8879988 116.9490012  43.7314997  63.9259988
 116.5270012  43.3734997  62.4429988 115.9800012  44.2074997  62.0289988
 117.4300012  43.0894997  61.9239988 115.9530012  42.4714997  62.5999988
 117.6910012  42.5334997  64.4769988 118.2310012  42.8264997  65.3659988
 117.0260012  41.7974997  64.9049988 118.2830012  42.0204997  63.7339988
 115.7140012  43.9644997  64.8979988 115.1170012  44.8424997  64.7019988
 116.0900012  44.0784997  65.9039988 115.1730012  43.0304997  64.8639988
 113.7490012  47.0444997  63.1089988 115.5930012  47.6034997  61.5859988
 116.4660012  48.2244997  66.1219988 117.3830012  48.1614997  67.0399988
 117.8420012  49.1184997  67.6569988 117.7680012  46.6644997  67.2679988
 118.3220012  46.3034997  66.3749988 116.8220012  46.1054997  67.4349988
 118.5390012  46.4544997  68.5979988 119.2730012  47.2874997  68.6219988
 118.9650012  45.4314997  68.6789988 117.6420012  46.5774997  69.8829988
 116.7480012  45.9234997  69.8109988 117.2630012  47.6204997  69.9379988
 118.3030012  46.1374997  71.2049988 119.3090012  46.5764997  71.3779988
 118.4350012  45.0604997  70.9649988 117.4330012  46.4604997  72.4529988
 116.4850012  45.9154997  72.2569988 117.1790012  47.5404997  72.5139988
 118.0380012  46.2604997  73.8009988 118.9290012  46.8784997  74.0439988
 118.5290012  45.2674997  73.8889988 117.0960012  46.2644997  75.0389988
 117.7760012  45.7754997  75.7679988 116.2510012  45.5434997  75.0039988
 116.6030012  47.5764997  75.4499988 116.1410012  48.2364997  74.7009988
 116.8030012  48.1604997  76.6599988 116.6090012  49.2434997  76.6649988
 117.5870012  47.5554997  77.7609988 117.2430012  46.5244997  77.9919988
 117.2230012  48.1294997  78.6399988 119.1050012  47.7334997  77.5179988
 119.3920012  48.7934997  77.3479988 119.3260012  47.1214997  76.6179988
 119.9120012  47.1864997  78.7529988 120.9680012  47.5294997  78.7049988
 119.9660012  46.0764997  78.7619988 119.3900012  47.7534997  80.1089988
 118.4770012  47.1924997  80.4029988 119.2320012  48.8504997  80.0319988
 120.3950012  47.4014997  81.2509988 121.3890012  47.8344997  81.0079988
 120.4700012  46.2944997  81.1899988 119.8600012  47.7564997  82.6639988
 120.4130012  47.2744997  83.4979988 118.9040012  47.1904997  82.6989988
 119.6470012  49.2684997  82.9929988 118.9780012  49.2804997  83.8799988
 119.0650012  49.7914997  82.2039988 120.9460012  50.0604997  83.1419988
 121.5650012  49.6984997  83.9909988 120.6480012  51.1024997  83.3859988
 121.4330012  50.1754997  82.1509988  96.2050012 117.6464997  81.0089988
  95.6050012 117.9164997  81.9039988  97.1840012 118.1664997  81.0809988
  96.3850012 116.5504997  80.9959988  95.5710012 118.0224997  79.6329988
  95.2790012 119.0944997  79.5969988  96.3930012 118.0364997  78.8849988
  94.3480012 117.2424997  79.2329988  94.5540012 116.1954997  78.9239988
  93.6770012 117.2554997  80.1179988  93.6130012 117.9214997  78.0569988
  93.7010012 119.0114997  78.2499988  94.1010012 117.6704997  77.0909988
  92.1040012 117.5614997  78.0579988  91.5800012 117.8074997  79.0069988
  91.6370012 118.0824997  77.1949988  91.8530012 116.0574997  77.7509988
  92.2540012 115.5334997  78.6459988  90.7570012 115.8954997  77.6739988
  92.6190012 115.4664997  76.5209988  92.2910012 115.9754997  75.5899988
  93.7060012 115.6384997  76.6699988  92.2670012 113.9644997  76.3299988
  92.5860012 113.4164997  77.2419988  91.1560012 113.9434997  76.3119988
  92.8530012 113.1534997  75.2129988  92.7410012 113.7504997  74.2829988
  93.9440012 113.0844997  75.4089988  92.1370012 111.8364997  74.9409988
  92.1990012 111.1594997  75.8189988  91.0740012 112.0444997  74.6909988
  92.6780012 111.1114997  73.7179988  93.7770012 111.1074997  73.8759988
  92.2500012 110.0864997  73.6929988  92.3240012 111.7924997  72.3859988
  91.3060012 112.1784997  72.6079988  92.9610012 112.6574997  72.1059988
  92.1670012 110.9454997  71.1519988  91.5420012 110.0464997  71.3349988
  91.5660012 111.4954997  70.3969988  93.5720012 110.5944997  70.6229988
  94.0840012 111.5794997  70.5909988  94.1320012 109.8904997  71.2749988
  93.3770012 109.8584997  69.2519988  94.2810012 109.2524997  69.0299988
  92.4970012 109.1814997  69.2169988  93.2170012 111.0074997  68.2649988
  94.0420012 111.8904997  68.2689988  92.0660012 111.0164997  67.6269988
  91.8030012 112.0764997  66.7129988  92.6880012 112.1874997  66.0509988
  90.9320012 111.6154997  66.1989988  91.4130012 113.4784997  67.3579988
  90.4450012 113.3284997  67.8819988  91.3020012 114.4754997  66.1619988
  90.8850012 114.0634997  65.2179988  90.5310012 115.2244997  66.4439988
  92.4900012 115.1184997  65.8969988  92.8730012 115.6104997  64.3959988
  93.4710012 114.2194997  63.8959988  94.6150012 113.5884997  64.3139988
  95.0970012 114.1144997  65.1649988  94.4320012 112.5284997  64.5939988
  95.7670012 113.4984997  63.2429988  96.6450012 113.0324997  63.6659988
  95.3620012 112.7534997  62.5739988  96.1580012 114.6814997  62.3999988
  96.8190012 115.8264997  63.1869988  96.2540012 116.1994997  64.0279988
  97.6840012 115.3684997  63.6449988  97.1060012 116.6514997  62.5509988
  97.1220012 114.1364997  61.3539988  96.7400012 113.2204997  60.9279988
  97.2850012 114.8544997  60.5639988  98.0240012 113.9154997  61.9039988
  95.0330012 115.2564997  61.5539988  94.6340012 114.4024997  61.0269988
  95.4360012 115.9594997  60.8399988  94.2580012 115.6404997  62.2009988
  91.6460012 115.7454997  63.5899988  93.8310012 116.7454997  64.3489988
  92.4320012 114.0014997  68.2409988  92.0710012 115.1084997  68.9289988
  90.9600012 115.6374997  68.9769988  93.3080012 115.5234997  69.7189988
  93.9570012 116.2274997  69.1559988  93.9190012 114.6444997  70.0149988
  92.9610012 116.1114997  71.0869988  92.3800012 115.4814997  71.7929988
  92.2790012 116.9074997  70.7199988  94.2410012 116.5204997  71.9249988
  94.9350012 116.9744997  71.1869988  94.8280012 115.6274997  72.2279988
  93.8490012 117.4524997  73.0729988  93.1220012 117.0504997  73.8109988
  93.2260012 118.3064997  72.7279988  95.0460012 117.8054997  73.8779988
  94.6770012 118.3494997  74.7729988  95.7140012 118.5364997  73.3749988
  95.7100012 116.6064997  74.3609988  96.3610012 116.2714997  73.5249988
  95.0080012 115.7824997  74.6119988  96.7730012 116.7634997  75.4489988
  96.2200012 116.8074997  76.4119988  97.2780012 117.7514997  75.3949988
  97.6420012 115.5204997  75.5239988  98.1800012 115.3434997  74.5809988
  97.7250012 114.6874997  76.5989988  98.2690012 113.7364997  76.5059988
  97.0600012 114.7194997  77.9019988  96.4880012 115.6634997  78.0339988
  97.6690012 114.5924997  78.8219988  95.8920012 113.6414997  77.8869988
  95.1520012 114.0834997  77.1849988  95.4710012 113.5524997  78.9109988
  96.2860012 112.2074997  77.4129988  96.8210012 112.2684997  76.4409988
  95.3570012 111.6264997  77.2349988  97.0570012 111.3464997  78.4649988
  98.0270012 111.8824997  78.5569988  97.2900012 110.3454997  78.0429988
  96.5580012 111.2734997  79.9449988  96.4590012 112.3094997  80.3339988
  97.3700012 110.8874997  80.5979988  95.2770012 110.4764997  80.0949988
  95.4310012 109.4944997  79.5989988  94.3820012 110.9144997  79.6039988
  94.9780012 110.0544997  81.5469988  95.8190012 109.5674997  82.0849988
  94.2210012 109.2424997  81.4919988  94.3060012 111.1694997  82.3209988
  95.1360012 111.8404997  82.6309988  93.8530012 110.8604997  83.2869988
  93.4960012 111.6934997  81.7699988  36.5780012  42.8184997  81.0329988
  37.4780012  42.5514997  80.4379988  36.5840012  42.1334997  81.9079988
  36.6030012  43.9174997  81.1929988  35.2710012  42.6474997  80.2459988
  35.1880012  41.5444997  80.1379988  34.4470012  43.0984997  80.8389988
  35.3020012  43.3774997  78.9109988  34.2540012  43.4834997  78.5579988
  35.5090012  44.4614997  79.0379988  36.2100012  42.7084997  77.8699988
  37.2900012  42.6484997  78.1239988  35.8260012  41.6664997  77.8389988
  36.0190012  43.3994997  76.4919988  34.9690012  43.3424997  76.1339988
  36.2400012  44.4604997  76.7349988  36.9640012  42.9614997  75.3709988
  37.0250012  41.8524997  75.3449988  36.5210012  43.4054997  74.4539988
  38.4680012  43.4124997  75.5399988  38.4540012  44.4984997  75.3059988
  38.8070012  43.3624997  76.5959988  39.4230012  42.6904997  74.5879988
  40.3890012  43.1114997  74.9399988  39.2850012  41.6184997  74.8479988
  39.1710012  43.0114997  73.1259988  38.1090012  42.7504997  72.9279988
  39.2510012  44.1064997  72.9589988  40.1550012  42.2534997  72.2009988
  41.1870012  42.5954997  72.4299988  40.2320012  41.2064997  72.5629988
  40.0250012  42.4864997  70.7349988  39.9960012  43.5064997  70.2949988
  40.9790012  42.0964997  70.3209988  38.8790012  41.7024997  70.1829988
  38.9180012  40.6664997  70.5809988  37.9130012  42.1324997  70.5269988
  38.8080012  41.5834997  68.6139988  37.9800012  40.9604997  68.2139988
  38.6480012  42.6004997  68.1979988  40.0750012  40.8534997  68.0989988
  40.7030012  41.7224997  67.8079988  40.6430012  40.3114997  68.8849988
  40.0440012  40.2104997  66.6929988  39.5610012  40.9764997  66.0499988
  41.0240012  39.9204997  66.2589988  39.2330012  38.8614997  66.7639988
  39.2130012  38.1524997  67.7339988  38.5560012  38.6924997  65.6249988
  37.5670012  37.6194997  65.4819988  37.6750012  37.3204997  64.4179988
  37.8300012  36.6644997  65.9849988  36.0980012  37.9344997  65.8289988
  35.4180012  37.1704997  65.3969988  35.7440012  39.3134997  65.2879988
  36.1570012  39.3994997  64.2609988  34.6370012  39.2814997  65.1999988
  36.1210012  40.4084997  66.0999988  35.9500012  41.9124997  65.4879988
  35.5620012  41.6244997  64.0029988  36.1660012  42.0994997  62.8809988
  36.2330012  43.1834997  63.1159988  37.1740012  41.6444997  62.7739988
  35.2770012  41.9824997  61.5799988  35.8250012  42.3884997  60.7429988
  35.0840012  40.9244997  61.4789988  33.9150012  42.6714997  61.6329988
  33.1250012  42.3164997  62.8629988  33.5500012  42.8524997  63.6989988
  32.0810012  42.5074997  62.6649988  33.1450012  41.2524997  63.0469988
  34.0780012  44.1604997  61.5449988  34.6860012  44.3144997  60.6659988
  33.0560012  44.5034997  61.4839988  34.4710012  44.5384997  62.4769988
  33.2490012  42.1394997  60.4109988  33.1920012  41.0624997  60.4749988
  33.8250012  42.4004997  59.5359988  32.1950012  42.3734997  60.3749988
  34.7910012  42.5994997  66.1799988  37.3160012  42.5774997  65.4959988
  35.9180012  38.0214997  67.2589988  34.6740012  38.0664997  67.7019988
  33.6900012  37.8684997  67.0629988  34.6290012  38.3474997  69.2079988
  34.8760012  37.4004997  69.7349988  33.6170012  38.6064997  69.5879988
  35.5310012  39.5554997  69.6119988  36.3760012  39.7744997  68.9239988
  36.0700012  39.3054997  70.5509988  34.9110012  40.9054997  69.8619988
  34.5470012  41.3244997  68.8989988  35.5990012  41.6604997  70.2989988
  33.6420012  40.8964997  70.7539988  32.8140012  40.2554997  70.3819988
  33.2270012  41.9244997  70.8399988  33.9700012  40.5034997  72.2089988
  34.9020012  41.0474997  72.4739988  34.2770012  39.4384997  72.2819988
  32.8790012  40.8834997  73.2469988  32.0060012  40.2394997  73.0069988
  32.7190012  41.9804997  73.1709988  33.3560012  40.7544997  74.7229988
  32.6140012  41.3134997  75.3319988  34.2980012  41.3174997  74.8979988
  33.3950012  39.2644997  75.1229988  32.5880012  38.6364997  74.7189988
  34.3930012  38.6094997  75.7609988  34.0950012  37.5744997  75.9809988
  35.6260012  39.3124997  76.2519988  35.6200012  40.4214997  76.1799988
  36.4400012  39.0234997  75.5529988  35.9560012  39.0824997  77.7019988
  35.0760012  39.4384997  78.2789988  36.7640012  39.8054997  77.9449988
  36.5490012  37.6784997  78.1929988  37.2270012  37.2524997  77.4229988
  35.6790012  36.9884997  78.1879988  37.2020012  37.8154997  79.5829988
  36.5200012  38.3474997  80.2799988  38.0280012  38.5274997  79.3729988
  37.8720012  36.5364997  80.1629988  38.4540012  35.9934997  79.3879988
  37.0620012  35.7804997  80.2419988  38.5700012  36.6314997  81.5079988
  39.3910012  37.3754997  81.4249988  39.1240012  35.6694997  81.5669988
  37.7760012  36.9334997  82.8099988  37.6350012  38.0314997  82.9099988
  38.5780012  36.7544997  83.5569988  36.4190012  36.3414997  83.0889988
  36.1590012  36.4464997  84.1639988  36.5010012  35.2644997  82.8289988
  35.5990012  36.8664997  82.5539988  48.9030012 114.6094997  81.6229988
  48.8000012 114.5914997  82.7289988  48.0890012 115.3184997  81.3589988
  49.9390012 114.9034997  81.3509988  48.6010012 113.2004997  81.0799988
  49.4450012 112.4834997  81.1669988  47.7640012 112.8154997  81.7019988
  48.2510012 113.2914997  79.5869988  47.9030012 114.3274997  79.3889988
  49.1060012 113.0664997  78.9159988  46.9790012 112.4744997  79.1409988
  47.1050012 111.3974997  79.3859988  46.1370012 112.6164997  79.8519988
  46.3920012 112.6474997  77.7539988  45.6120012 111.8654997  77.6399988
  46.0270012 113.6634997  77.4919988  47.4190012 112.2054997  76.6309988
  47.7980012 113.1984997  76.3069988  48.2850012 111.7884997  77.1869988
  47.0020012 111.4404997  75.3689988  47.8400012 111.3964997  74.6409988
  46.8960012 110.3804997  75.6859988  45.7780012 112.0064997  74.5389988
  45.5920012 111.3264997  73.6809988  44.8430012 112.0624997  75.1369988
  46.0700012 113.4084997  73.9199988  46.2800012 114.0364997  74.8119988
  47.0150012 113.3374997  73.3399988  44.9550012 114.0214997  73.1419988
  43.9960012 114.0564997  73.7019988  45.1170012 115.1194997  73.0839988
  44.6760012 113.5054997  71.6579988  44.2510012 112.4824997  71.5719988
  43.8520012 114.0474997  71.1449988  45.8530012 113.5634997  70.8059988
  46.1160012 114.6424997  70.7539988  46.7360012 113.0324997  71.2209988
  45.5200012 112.9804997  69.4419988  45.0350012 112.0154997  69.7049988
  44.8780012 113.6994997  68.8899988  46.7850012 112.7814997  68.5659988
  47.6880012 112.4924997  69.1449988  46.5360012 111.8604997  67.9969988
  47.0090012 113.7414997  67.4829988  47.5800012 113.2224997  66.6829988
  46.1010012 114.1974997  67.0339988  47.9840012 114.8224997  67.9839988
  48.5900012 114.6544997  68.9819988  48.2510012 115.7254997  66.9869988
  49.3450012 116.5824997  67.2099988  49.0480012 117.5794997  66.8199988
  49.5300012 116.6594997  68.3019988  50.5470012 116.0814997  66.4329988
  51.2690012 116.7914997  66.8909988  50.4470012 116.1474997  64.8439988
  49.7040012 116.8734997  64.4499988  51.4830012 116.3564997  64.5019988
  49.9730012 114.8114997  64.4549988  50.6580012 114.0364997  63.2849988
  50.2010012 112.5764997  63.6309988  49.4390012 112.2074997  64.6779988
  50.0670012 112.2044997  65.5949988  48.5770012 112.8944997  64.8159988
  48.8490012 110.8014997  64.4159988  49.7020012 110.1764997  64.1999988
  48.3840012 110.5394997  65.3549988  47.8030012 110.6124997  63.3259988
  47.5870012 109.0924997  63.3119988  47.1380012 108.8594997  64.2659988
  46.9390012 108.7434997  62.5209988  48.4820012 108.4894997  63.3479988
  46.4920012 111.3054997  63.6859988  46.7480012 112.3484997  63.7949988
  45.7500012 111.2234997  62.9039988  46.1190012 110.9934997  64.6499988
  48.3450012 110.9904997  61.9409988  49.0360012 110.2104997  61.6559988
  48.8450012 111.9444997  62.0149988  47.6280012 110.9094997  61.1379988
  50.1180012 114.4834997  61.9999988  52.1020012 114.0174997  63.4509988
  50.8100012 114.7354997  66.9489988  51.9730012 114.1804997  66.8589988
  52.9830012 114.6094997  66.2979988  51.9700012 112.7324997  67.5259988
  52.9480012 112.2334997  67.3569988  51.1990012 112.1034997  67.0319988
  51.6720012 112.7494997  69.0849988  50.6960012 113.2534997  69.2499988
  52.4750012 113.2354997  69.6779988  51.5720012 111.2974997  69.6519988
  51.5660012 110.5224997  68.8559988  50.6100012 111.2374997  70.2039988
  52.7290012 111.1494997  70.6219988  52.6990012 112.0214997  71.3099988
  53.7070012 111.2954997  70.1149988  52.9920012 109.7594997  71.2729988
  53.8880012 109.2204997  70.8969988  52.0770012 109.1424997  71.1479988
  53.1440012 109.7394997  72.7769988  53.7700012 110.5864997  73.1309988
  53.7150012 108.8264997  73.0529988  51.8870012 109.8474997  73.6759988
  52.3020012 109.5934997  74.6749988  51.1710012 109.0404997  73.4099988
  51.1360012 111.1054997  73.5379988  50.6210012 111.2954997  72.5839988
  50.9710012 112.0244997  74.4559988  50.2990012 112.8234997  74.1109988
  51.4010012 112.0804997  75.8929988  52.4270012 111.6574997  75.9619988
  50.7340012 111.4214997  76.4889988  51.3500012 113.4704997  76.4519988
  50.2780012 113.6944997  76.6349988  51.7660012 114.2204997  75.7469988
  52.1710012 113.5334997  77.7139988  53.1870012 113.0834997  77.7449988
  51.7100012 112.8804997  78.4859988  52.1700012 114.9844997  78.0379988
  51.1710012 115.2724997  78.4289988  52.5800012 115.5624997  77.1819988
  53.1820012 115.2284997  79.1839988  52.8360012 114.5474997  79.9909988
  52.9670012 116.2834997  79.4539988  54.6860012 115.1134997  78.8699988
  55.0850012 115.7734997  78.0699988  54.9590012 114.0544997  78.6759988
  55.5450012 115.4654997  80.1189988  55.7360012 116.5554997  80.0179988
  56.5160012 114.9404997  79.9889988  55.0520012 114.9894997  81.4199988
  55.9430012 114.8574997  82.0699988  54.5750012 113.9944997  81.2919988
  54.2830012 115.7074997  81.7779988  73.8230012 117.6074997  81.4739988
  73.6510012 116.5114997  81.5339988  72.8210012 118.0514997  81.2959988
  74.0360012 117.8874997  82.5279988  75.0340012 118.0964997  80.6479988
  75.0940012 119.1704997  80.9259988  75.9100012 117.6354997  81.1509988
  75.0830012 117.7204997  79.1029988  76.0470012 118.1244997  78.7259988
  74.9580012 116.6204997  79.0099988  73.9760012 118.4184997  78.3489988
  72.9290012 118.3714997  78.7169988  74.2580012 119.4934997  78.3509988
  73.8270012 117.9534997  76.9089988  74.8400012 117.9534997  76.4519988
  73.4480012 116.9104997  76.8609988  72.8550012 118.7534997  76.0539988
  71.8150012 118.5554997  76.3909988  72.9890012 119.8354997  76.2659988
  72.9710012 118.6114997  74.4909988  73.9850012 118.9874997  74.2369988
  72.9750012 117.5344997  74.2189988  71.9080012 119.3464997  73.7789988
  70.9230012 118.8324997  73.7529988  71.7630012 120.3744997  74.1759988
  72.1990012 119.6054997  72.2709988  71.5800012 120.4854997  71.9929988
  73.2550012 119.9484997  72.2629988  72.3380012 118.5034997  71.2349988
  73.2870012 117.9764997  71.4719988  71.4650012 117.8204997  71.3149988
  72.4360012 118.9794997  69.7179988  72.4630012 118.0374997  69.1299988
  71.6010012 119.5974997  69.3249988  73.7050012 119.7774997  69.4289988
  73.7720012 120.7534997  69.9549988  74.6360012 119.3564997  69.8649988
  73.8540012 120.0484997  67.9299988  72.9220012 120.5284997  67.5619988
  74.7040012 120.7504997  67.7919988  74.1600012 118.7974997  67.1189988
  74.7460012 118.1044997  67.7599988  73.1780012 118.3594997  66.8379988
  75.0660012 119.1544997  65.9299988  74.6530012 119.7994997  65.1239988
  75.8950012 119.8224997  66.2489988  75.5620012 117.8294997  65.2759988
  75.9550012 116.8504997  65.8909988  75.5050012 117.9354997  63.9779988
  76.0740012 116.7954997  63.2709988  76.5380012 117.1064997  62.3109988
  76.8760012 116.2714997  63.8339988  75.0050012 115.8644997  62.8739988
  75.4410012 115.0004997  62.3279988  74.0820012 116.6044997  61.8279988
  74.7580012 117.1564997  61.1409988  73.5240012 115.8624997  61.2179988
  73.2530012 117.4914997  62.5159988  72.3730012 118.5084997  61.6339988
  71.0310012 118.3974997  62.4649988  70.5840012 117.0754997  62.8629988
  69.4870012 117.0714997  62.6849988  71.0760012 116.2374997  62.3229988
  70.6870012 116.8294997  64.3469988  70.2990012 115.8614997  64.6279988
  71.7220012 116.6994997  64.6249988  70.0670012 117.9164997  65.2999988
  70.9290012 119.1484997  65.2619988  71.9800012 119.0164997  65.0489988
  70.5670012 119.8004997  64.4809988  70.8180012 119.7564997  66.1479988
  68.6550012 118.2104997  65.0589988  68.5750012 118.9514997  64.2779988
  68.1290012 117.2924997  64.8419988  68.2240012 118.7354997  65.8989988
  70.2170012 117.2304997  66.6439988  69.6980012 117.6414997  67.4969988
  71.2700012 117.0704997  66.8229988  69.7000012 116.2884997  66.5369988
  72.9350012 119.8824997  61.8019988  72.3250012 117.9654997  60.2889988
  74.3500012 115.3474997  63.9989988  73.2870012 114.5504997  63.9019988
  72.7530012 114.2394997  62.8579988  72.7740012 114.2764997  65.3449988
  72.5690012 115.2504997  65.8389988  73.6210012 113.8644997  65.9349988
  71.4960012 113.3134997  65.2679988  71.7320012 112.4054997  64.6729988
  70.6090012 113.7604997  64.7699988  71.0770012 112.7144997  66.6379988
  71.8730012 112.0284997  66.9989988  70.2520012 112.0094997  66.3979988
  70.6800012 113.8204997  67.6789988  69.8500012 114.4154997  67.2419988
  71.6170012 114.4074997  67.7889988  70.3930012 113.4014997  69.1199988
  70.7790012 112.4064997  69.4279988  69.3080012 113.3504997  69.3509988
  70.8810012 114.5214997  70.0429988  70.7620012 115.5174997  69.5649988
  71.9910012 114.5084997  70.0759988  70.5140012 114.3874997  71.4709988
  71.1970012 114.8914997  72.1879988  70.7480012 113.3114997  71.6159988
  69.0310012 114.5614997  71.6789988  68.5500012 113.7074997  71.1789988
  68.3150012 115.4844997  72.3169988  67.2430012 115.2794997  72.4519988
  68.8010012 116.7424997  73.0349988  68.1210012 117.5534997  72.6969988
  69.8120012 117.0364997  72.6819988  68.8080012 116.5444997  74.6209988
  67.8750012 116.0714997  74.9959988  68.9770012 117.5844997  74.9749988
  70.0380012 115.6174997  74.9909988  70.9830012 115.8794997  74.4689988
  69.7750012 114.5614997  74.7629988  70.2710012 115.6634997  76.5609988
  69.4130012 115.2714997  77.1469988  70.6140012 116.6834997  76.8379988
  71.3540012 114.6754997  76.9069988  72.2820012 114.7494997  76.2999988
  70.9920012 113.6374997  76.7489988  71.9960012 114.7184997  78.2829988
  71.1860012 114.4624997  78.9989988  72.2670012 115.7814997  78.4619988
  73.2200012 113.7134997  78.3779988  74.0130012 114.2084997  77.7769988
  72.9660012 112.7414997  77.9029988  73.7190012 113.6984997  79.8629988
  74.1040012 114.7084997  80.1219988  74.5920012 113.0454997  80.0789988
  72.8280012 113.4904997  80.4939988  26.2550012  54.9034997  82.3799988
  25.3900012  54.5474997  82.9789988  26.7760012  55.5574997  83.1129988
  26.9320012  54.0524997  82.1529988  25.9380012  55.6444997  81.0599988
  25.6180012  54.8774997  80.3229988  25.0060012  56.2004997  81.2979988
  27.0770012  56.5454997  80.4429988  27.4380012  57.3324997  81.1389988
  27.9070012  55.8094997  80.3869988  26.7360012  57.2664997  79.2019988
  25.7700012  57.8084997  79.2819988  27.4360012  58.0574997  78.8559988
  26.5360012  56.4184997  77.9039988  25.8020012  55.6144997  78.1309988
  26.0850012  57.0914997  77.1429988  27.8410012  55.9514997  77.3099988
  28.5550012  56.7724997  77.0859988  28.2030012  55.3254997  78.1539988
  27.5390012  55.0904997  76.0329988  28.1630012  54.1744997  76.1049988
  26.4750012  54.8204997  75.8589988  28.1890012  55.6344997  74.7359988
  29.2360012  56.0044997  74.7039988  27.9850012  54.9264997  73.9039988
  27.3260012  56.8164997  74.1529988  26.2270012  56.6534997  74.1609988
  27.6820012  57.7114997  74.7079988  27.9260012  57.3084997  72.8589988
  29.0200012  57.4774997  72.9559988  27.9260012  56.4384997  72.1689988
  27.4620012  58.6654997  72.3049988  26.3540012  58.7264997  72.2459988
  27.7440012  59.4694997  73.0179988  28.0970012  59.0354997  70.9709988
  27.9090012  60.0924997  70.6849988  29.2070012  59.0174997  70.9929988
  27.7480012  58.1194997  69.8359988  28.2430012  57.1344997  69.9759988
  26.6620012  57.8894997  69.8759988  28.2360012  58.4364997  68.4189988
  27.7370012  59.3764997  68.1019988  29.3230012  58.6644997  68.4559988
  27.6880012  57.3434997  67.4679988  26.6400012  57.1024997  67.7469988
  27.5470012  57.9074997  66.5209988  28.6360012  56.1314997  67.3419988
  29.7610012  56.1914997  66.8749988  28.0220012  55.1184997  67.8939988
  28.7680012  53.8944997  67.9709988  29.7580012  54.0194997  67.4829988
  28.8450012  53.6614997  69.0539988  27.9910012  52.8544997  67.1309988
  28.5320012  51.8844997  67.1339988  27.8660012  53.2674997  65.6079988
  27.6140012  54.3484997  65.6519988  28.8010012  53.1474997  65.0199988
  26.8270012  52.4904997  64.9809988  25.8840012  53.1344997  63.8979988
  25.3570012  54.4874997  64.6239988  23.9740012  54.8744997  64.4439988
  23.2260012  54.0594997  64.5489988  23.7550012  55.5954997  65.2599988
  23.8330012  55.6004997  63.0809988  24.0810012  54.8984997  62.2979988
  22.7590012  55.6974997  63.1359988  24.5720012  56.8994997  62.7689988
  25.9930012  56.5604997  62.5079988  26.4810012  56.3314997  63.4439988
  26.1000012  55.7184997  61.8399988  26.4790012  57.4204997  62.0709988
  24.1380012  57.5694997  61.5239988  24.4510012  58.5914997  61.3649988
  24.4660012  57.0254997  60.6509988  23.0640012  57.4614997  61.5529988
  24.5340012  57.8224997  63.9969988  23.4910012  57.9914997  64.2229988
  24.9170012  58.7644997  63.6309988  24.9880012  57.3224997  64.8389988
  26.6700012  53.5564997  62.6839988  24.7260012  52.2084997  63.6699988
  26.6820012  52.7684997  67.6379988  26.4530012  51.8474997  68.6579988
  27.2460012  51.0004997  69.0849988  25.0880012  52.2074997  69.2279988
  24.8740012  51.3884997  69.9469988  24.3690012  52.1664997  68.3819988
  25.1150012  53.7604997  69.6989988  25.0920012  54.3314997  68.7469988
  26.0680012  53.8934997  70.2539988  24.0380012  54.2124997  70.6529988
  23.8890012  53.5504997  71.5329988  23.0370012  54.1444997  70.1749988
  24.2230012  55.6104997  71.2749988  24.1700012  56.4214997  70.5169988
  25.1930012  55.7664997  71.7939988  23.1410012  55.9264997  72.3189988
  22.2000012  56.0464997  71.7409988  23.3090012  56.9634997  72.6799988
  22.8950012  54.9634997  73.4279988  22.5270012  53.9844997  73.0519988
  22.0550012  55.3984997  74.0099988  24.0730012  54.7554997  74.3739988
  24.1650012  55.7164997  74.9229988  24.9720012  54.5374997  73.7589988
  23.8070012  53.6864997  75.4049988  22.9770012  53.8034997  76.1169988
  24.4910012  52.5134997  75.3819988  24.1190012  51.6834997  75.9999988
  25.6060012  52.1254997  74.4449988  26.2870012  52.9644997  74.1879988
  25.2030012  51.8354997  73.4509988  26.2100012  50.8854997  75.0879988
  26.6820012  50.2784997  74.2869988  25.3800012  50.2074997  75.3799988
  27.3060012  51.1044997  76.1619988  27.8700012  51.9874997  75.7939988
  27.9510012  50.2014997  76.1239988  26.9320012  51.3914997  77.6849988
  26.3260012  52.3194997  77.6099988  27.8240012  51.4864997  78.3409988
  26.0530012  50.2954997  78.2849988  26.5720012  49.3134997  78.2939988
  25.2090012  50.1094997  77.5869988  25.5930012  50.7374997  79.6839988
  26.3280012  51.3824997  80.2099988  25.4370012  49.8144997  80.2829988
  24.3420012  51.5914997  79.7379988  24.3720012  52.2154997  78.8189988
  24.2530012  52.2694997  80.6139988  23.0220012  50.8104997  79.6349988
  22.1990012  51.5464997  79.7549988  22.9680012  50.1254997  80.5079988
  22.9090012  50.2484997  78.6839988 122.3830012  78.2044997  80.2189988
 122.3100012  77.7034997  81.2079988 122.1790012  79.2894997  80.3479988
 123.4570012  78.0964997  79.9539988 121.3960012  77.5514997  79.1869988
 121.4790012  76.4574997  79.3569988 120.3400012  77.8504997  79.3639988
 121.6710012  77.9194997  77.6739988 121.3970012  78.9784997  77.4799988
 122.7140012  77.7404997  77.3359988 120.7460012  77.1664997  76.6679988
 121.0470012  76.0984997  76.6209988 119.6820012  77.2384997  76.9799988
 120.6970012  77.8124997  75.2689988 119.9800012  77.3404997  74.5639988
 120.5790012  78.9134997  75.3599988 121.9970012  77.7674997  74.4149988
 121.7110012  78.1834997  73.4249988 122.7910012  78.4194997  74.8369988
 122.3500012  76.3084997  74.0949988 122.5780012  75.7504997  75.0279988
 121.4900012  75.8504997  73.5619988 123.6390012  76.0494997  73.2479988
 124.4500012  76.4864997  73.8689988 123.7900012  74.9574997  73.1059988
 123.5350012  76.7854997  71.8649988 123.3520012  77.8764997  71.9679988
 124.5150012  76.5914997  71.3779988 122.5120012  76.1664997  70.8989988
 122.6690012  75.0674997  70.9019988 121.4720012  76.2814997  71.2749988
 122.5220012  76.6774997  69.4449988 121.5030012  76.4704997  69.0509988
 122.4950012  77.7804997  69.3169988 123.6470012  76.1224997  68.5279988
 123.5000012  76.6524997  67.5629988 124.7000012  76.3464997  68.8039988
 123.5410012  74.6584997  68.2119988 124.1670012  74.5944997  67.2959988
 123.9310012  74.1534997  69.1209988 122.1990012  74.1054997  67.6719988
 121.3120012  74.3274997  68.3029988 121.8730012  74.6714997  66.7739988
 122.1610012  72.5964997  67.5059988 122.9790012  72.1844997  66.8759988
 122.2040012  72.0834997  68.4899988 120.7890012  72.2594997  66.8819988
 119.8770012  71.7444997  67.4929988 120.7970012  72.5444997  65.6289988
 119.6530012  72.1894997  64.9029988 119.9660012  71.7034997  63.9539988
 118.9270012  71.5254997  65.4189988 118.8130012  73.4364997  64.4219988
 117.9030012  73.0974997  63.8809988 119.6300012  74.2624997  63.3109988
 119.9140012  73.5324997  62.5229988 119.1440012  75.1514997  62.8569988
 120.7910012  74.8804997  63.9549988 121.8930012  75.5914997  62.9979988
 121.6060012  77.1744997  63.2029988 121.2490012  77.7164997  64.4519988
 121.6040012  77.1514997  65.3409988 121.8130012  78.6674997  64.5609988
 119.7880012  78.0164997  64.5459988 119.1420012  77.2164997  64.2169988
 119.5250012  78.2014997  65.5769988 119.2660012  79.2094997  63.7449988
 119.0880012  78.7794997  62.3319988 118.4690012  77.8964997  62.3869988
 118.6390012  79.4844997  61.6479988 120.0250012  78.4844997  61.8829988
 117.8500012  79.5244997  64.2329988 117.8430012  79.9314997  65.2329988
 117.2970012  80.1644997  63.5609988 117.2310012  78.6484997  64.3559988
 120.0370012  80.4814997  63.7419988 121.0680012  80.2784997  63.4929988
 119.8610012  80.8904997  64.7259988 119.7010012  81.2024997  63.0109988
 123.2060012  75.3044997  63.4379988 121.6330012  75.2494997  61.5379988
 118.5100012  74.1774997  65.5839988 117.3360012  74.5974997  65.7899988
 116.3820012  74.4224997  65.0589988 117.2580012  75.2884997  67.1469988
 116.2910012  75.0204997  67.6229988 117.2460012  76.3744997  66.9129988
 118.3700012  74.9314997  68.1449988 119.3800012  75.3494997  67.9459988
 118.4790012  73.8274997  68.0839988 117.9030012  75.1944997  69.6489988
 116.8460012  74.9174997  69.4479988 117.8280012  76.2414997  70.0139988
 118.5600012  74.3384997  70.7329988 119.6650012  74.3114997  70.6309988
 118.2430012  73.2914997  70.5379988 118.2050012  74.7414997  72.1729988
 117.2660012  74.2494997  72.5049988 118.0880012  75.8454997  72.2279988
 119.2450012  74.2424997  73.1619988 119.1490012  74.7734997  74.1319988
 120.2160012  74.5404997  72.7109988 119.1940012  72.6724997  73.3609988
 120.1850012  72.2784997  73.6699988 119.0750012  72.2014997  72.3619988
 118.0220012  72.2114997  74.2299988 117.0210012  72.2554997  73.7749988
 118.2110012  71.8684997  75.5039988 117.3380012  71.5044997  76.0659988
 119.5200012  71.8454997  76.2399988 120.4020012  72.2994997  75.7389988
 119.7700012  70.7754997  76.4019988 119.3070012  72.5984997  77.6049988
 118.6390012  71.9494997  78.2089988 118.8120012  73.5814997  77.4539988
 120.6460012  72.9264997  78.3279988 121.3140012  73.6854997  77.8699988
 121.1870012  71.9644997  78.4559988 120.3510012  73.4134997  79.7519988
 119.6760012  72.6334997  80.1649988 119.7700012  74.3614997  79.7349988
 121.6020012  73.4154997  80.6569988 122.1270012  74.3724997  80.4519988
 122.2260012  72.5004997  80.5589988 121.2590012  73.2954997  82.1469988
 122.1370012  73.7234997  82.6769988 121.1850012  72.2254997  82.4359988
 119.9280012  73.8604997  82.7259988 118.9740012  73.4244997  82.3589988
 119.8210012  74.9134997  82.3899988 119.9850012  74.0834997  84.2759988
 119.8390012  73.1494997  84.8599988 119.1340012  74.7294997  84.5819988
 120.9150012  74.6344997  84.5339988  27.8460012  96.3084997  83.1909988
  28.0300012  97.2874997  83.6819988  28.8050012  95.8594997  82.8539988
  27.3710012  95.6794997  83.9749988  26.9020012  96.4294997  81.9459988
  26.6690012  95.4094997  81.5719988  25.9010012  96.7824997  82.2759988
  27.4070012  97.2094997  80.8309988  26.6940012  97.2964997  79.9839988
  27.5620012  98.2004997  81.3079988  28.7200012  96.6494997  80.1519988
  29.5870012  96.6904997  80.8459988  28.5160012  95.5684997  79.9999988
  29.1290012  97.2004997  78.7679988  29.2340012  98.2924997  78.9429988
  30.0120012  96.6704997  78.3529988  28.0180012  96.9934997  77.7169988
  27.0480012  97.4114997  78.0629988  28.1750012  97.6104997  76.8059988
  27.8490012  95.5234997  77.3449988  28.7690012  95.1664997  76.8339988
  27.5300012  94.8654997  78.1809988  26.7080012  95.3444997  76.2999988
  25.7090012  95.5154997  76.7559988  26.6870012  96.1474997  75.5319988
  26.6620012  93.9604997  75.7319988  26.8530012  93.1764997  76.4959988
  25.6430012  93.6474997  75.4189988  27.7430012  93.7604997  74.5679988
  28.7140012  94.1414997  74.9519988  27.9650012  92.6964997  74.3369988
  27.4750012  94.5154997  73.2169988  27.0380012  95.4914997  73.5199988
  28.4610012  94.6104997  72.7139988  26.3720012  93.7774997  72.4049988
  26.7580012  92.7534997  72.2119988  25.5340012  93.6914997  73.1289988
  25.9850012  94.3634997  71.1419988  26.7950012  94.2534997  70.3899988
  25.1370012  93.8304997  70.6609988  25.6700012  95.8284997  71.2059988
  24.7630012  96.0874997  71.7929988  26.5920012  96.3614997  71.5219988
  25.3020012  96.2204997  69.7309988  26.0450012  95.7044997  69.0859988
  24.2650012  95.8594997  69.5639988  25.4970012  97.7214997  69.5789988
  25.6830012  98.5814997  70.4339988  25.5210012  97.9324997  68.1949988
  25.8850012  99.3224997  67.7809988  25.0940012  99.7024997  67.0999988
  25.7560012 100.0924997  68.5719988  27.2090012  99.2184997  67.0599988
  27.3570012 100.1894997  66.5399988  27.3180012  98.1244997  65.9319988
  27.1330012  97.1134997  66.3549988  26.4780012  98.3254997  65.2339988
  28.5090012  98.0874997  65.1809988  29.5580012  96.8394997  65.2149988
  29.1940012  95.9614997  63.9869988  29.4420012  96.4494997  62.6179988
  29.4710012  97.5534997  62.4899988  30.4780012  96.1764997  62.3229988
  28.3260012  95.6914997  61.7959988  28.5660012  95.9324997  60.7719988
  28.4750012  94.6394997  61.9929988  26.7480012  96.0114997  61.9869988
  26.4740012  97.5094997  61.8299988  26.6660012  97.8544997  60.8239988
  25.4910012  97.7424997  62.2119988  27.1590012  98.0664997  62.4509988
  26.1930012  95.1644997  60.9129988  26.6330012  94.1894997  61.0639988
  25.1180012  95.0604997  60.9039988  26.5120012  95.4854997  59.9319988
  26.2880012  95.4524997  63.3709988  26.7010012  96.0274997  64.1869988
  26.4950012  94.4264997  63.6369988  25.2230012  95.6244997  63.4159988
  30.9130012  97.3404997  64.8689988  29.4040012  95.9414997  66.4139988
  28.2210012  98.8844997  68.0049988  28.7410012  99.8444997  68.8639988
  28.4010012 100.9834997  68.8949988  29.8990012  99.1734997  69.6719988
  30.8740012  99.4164997  69.1969988  29.9960012  98.0724997  69.5639988
  29.9100012  99.5024997  71.1589988  29.7200012 100.5944997  71.2339988
  30.9580012  99.2584997  71.4349988  29.0810012  98.5474997  72.1099988
  28.9680012  97.5214997  71.6989988  28.0000012  98.8034997  72.1079988
  29.6640012  98.4454997  73.5279988  30.7440012  98.1984997  73.4519988
  29.2290012  97.6114997  74.1199988  29.5680012  99.7264997  74.3089988
  29.8160012 100.5754997  73.6359988  30.2280012  99.6074997  75.1949988
  28.1660012 100.0914997  74.8099988  27.6970012  99.2974997  75.4289988
  27.6110012 100.2394997  73.8589988  28.0170012 101.3974997  75.5839988
  26.9920012 101.4354997  76.0099988  28.0350012 102.1414997  74.7589988
  28.9800012 101.4954997  76.7189988  30.0490012 101.5484997  76.4669988
  28.7230012 101.5764997  78.0489988  29.5630012 101.5374997  78.7579988
  27.3750012 101.5964997  78.7579988  26.7750012 100.8974997  78.1369988
  26.8000012 102.5464997  78.7159988  27.3940012 101.1234997  80.2359988
  28.0060012 100.2344997  80.5019988  26.3540012 100.8114997  80.4729988
  27.7050012 102.1424997  81.2749988  26.9850012 102.9854997  81.1989988
  28.7110012 102.5894997  81.1249988  27.5480012 101.4624997  82.6639988
  26.5990012 100.8874997  82.7239988  27.4180012 102.2304997  83.4559988
  28.7450012 100.5544997  82.9969988  28.4710012  99.5434997  82.6269988
  28.8160012 100.5384997  84.1059988  30.1610012 100.8834997  82.4489988
  30.2600012 101.9344997  82.0999988  30.3170012 100.2344997  81.5609988
  31.2740012 100.5514997  83.3579988  31.0070012 101.1934997  84.2249988
  32.1760012 100.9114997  82.8189988  31.4000012  99.0424997  83.6379988
  30.3960012  98.7064997  83.9729988  32.0960012  98.8614997  84.4859988
  31.7520012  98.5244997  82.7199988 107.9220012 101.1934997  82.8089988
 108.7990012 101.4434997  83.4419988 107.6670012 100.1174997  82.9179988
 107.1290012 101.9014997  83.1319988 108.3270012 101.4854997  81.4049988
 107.4150012 101.5454997  80.7729988 108.9210012 102.4234997  81.3589988
 109.3550012 100.4744997  80.7929988 109.8140012 101.0464997  79.9569988
 110.0640012 100.2924997  81.6289988 108.5940012  99.2304997  80.3869988
 108.1510012  98.7344997  81.2769988 107.7830012  99.5504997  79.6989988
 109.4390012  98.2284997  79.6209988 110.2510012  97.9194997  80.3139988
 108.8590012  97.2874997  79.5039988 109.9110012  98.7824997  78.3119988
 110.6200012  99.6194997  78.4899988 110.4700012  97.9304997  77.8709988
 108.7270012  99.1914997  77.3739988 107.8120012  98.5704997  77.4839988
 108.3170012 100.1944997  77.6169988 109.0670012  99.1134997  75.8509988
 110.0450012  99.6064997  75.6659988 109.1490012  98.0374997  75.5899988
 108.0490012  99.9344997  74.9519988 107.0880012  99.3814997  75.0279988
 107.8350012 100.8804997  75.4939988 108.5820012 100.4174997  73.5899988
 109.3700012 101.1814997  73.7609988 109.0390012  99.5374997  73.0899988
 107.5290012 100.9044997  72.5659988 106.8480012 100.1294997  72.1549988
 107.0120012 101.7824997  73.0089988 108.1960012 101.4914997  71.2889988
 108.8500012 102.3804997  71.4169988 108.8070012 100.6924997  70.8159988
 107.2010012 101.7144997  70.1139988 106.5100012 100.8524997  69.9939988
 106.6040012 102.6374997  70.2729988 107.8250012 101.8444997  68.6839988
 108.5550012 102.6564997  68.4779988 108.3620012 100.8744997  68.6109988
 106.6850012 101.8054997  67.6749988 105.8670012 101.0984997  67.9339988
 106.1360012 102.7714997  67.6759988 107.2500012 101.3694997  66.2749988
 107.4270012 100.1714997  65.9809988 107.4640012 102.4124997  65.6049988
 108.0020012 102.2014997  64.2799988 107.6920012 101.2124997  63.8809988
 107.5930012 103.0224997  63.6509988 109.4940012 102.1844997  64.1739988
 109.9360012 103.1424997  64.5189988 109.9060012 101.9184997  62.6999988
 109.3470012 100.9764997  62.5149988 109.6030012 102.6694997  61.9389988
 111.3200012 101.7944997  62.6609988 111.7630012 100.3774997  62.0419988
 111.3700012  99.5714997  63.3469988 111.6520012  98.1764997  63.1959988
 110.9940012  97.7004997  62.4379988 112.7050012  97.9594997  62.9159988
 111.3970012  97.2434997  64.4039988 111.7770012  96.2834997  64.0859988
 111.9190012  97.6594997  65.2529988 109.9980012  97.0204997  64.8229988
 109.3320012  96.0104997  63.8699988 110.0070012  95.1784997  63.7349988
 108.4590012  95.5594997  64.3189988 109.1250012  96.4294997  62.8959988
 109.9940012  96.3084997  66.1719988 110.9350012  96.4574997  66.6799988
 109.2110012  96.6564997  66.8299988 109.8490012  95.2624997  65.9449988
 109.1310012  98.2854997  64.8739988 109.2880012  98.8904997  63.9939988
 109.5480012  98.8664997  65.6829988 108.0750012  98.0764997  64.9649988
 110.8930012  99.9194997  60.9259988 113.1840012 100.4184997  61.8659988
 110.0600012 101.1954997  65.0919988 111.1010012 101.4094997  65.8949988
 111.8970012 102.3274997  65.8489988 111.4420012 100.2544997  66.8869988
 112.2030012  99.5954997  66.4169988 110.4450012  99.7824997  67.0249988
 112.0150012 100.6104997  68.2469988 111.5660012 101.5294997  68.6809988
 113.0570012 100.9834997  68.1479988 111.8170012  99.5274997  69.3299988
 112.2470012  98.6154997  68.8629988 110.7270012  99.4724997  69.5359988
 112.6930012  99.6934997  70.5849988 113.7530012  99.4604997  70.3469988
 112.3530012  99.0034997  71.3859988 112.5260012 101.0054997  71.2579988
 111.4850012 100.8464997  71.6139988 112.5160012 101.7524997  70.4359988
 113.4560012 101.2424997  72.4309988 114.4550012 101.4364997  71.9849988
 113.5560012 100.3404997  73.0719988 113.2410012 102.3924997  73.2669988
 113.2040012 103.3154997  72.6499988 114.0910012 102.5584997  73.9629988
 111.9020012 102.2254997  74.0099988 110.9830012 102.1824997  73.4069988
 111.7690012 102.0344997  75.3829988 110.7740012 101.8684997  75.8199988
 112.8730012 101.9504997  76.4029988 112.5040012 102.1734997  77.4279988
 113.6260012 102.7394997  76.1889988 113.4770012 100.5324997  76.5479988
 113.8560012 100.3294997  75.5229988 112.6250012  99.8604997  76.7889988
 114.7480012 100.4874997  77.4549988 115.4430012 101.3034997  77.1649988
 115.1820012  99.4954997  77.2039988 114.5100012 100.6334997  78.9919988
 113.8360012 101.5014997  79.1569988 115.4900012 100.7204997  79.5079988
 113.7710012  99.5154997  79.6599988 114.2240012  98.5064997  79.5469988
 112.8270012  99.3694997  79.0939988 113.6070012  99.7094997  81.1639988
 113.0650012 100.6234997  81.4879988 114.6370012  99.7444997  81.5779988
 112.8900012  98.5324997  81.8739988 113.6500012  97.7244997  81.9359988
 112.0950012  98.1904997  81.1769988 112.3920012  98.8784997  83.2819988
 111.5550012  99.5864997  83.1059988 113.0760012  99.5464997  83.8479988
 112.1100012  97.9734997  83.8619988  95.6840012  31.7054997  82.3689988
  95.0730012  31.4474997  81.4779988  96.2760012  32.6444997  82.3219988
  94.8920012  31.9714997  83.1019988  96.4950012  30.5004997  82.8399988
  97.3960012  30.3084997  82.2179988  96.8120012  30.7034997  83.8849988
  95.7590012  29.1964997  82.9259988  96.5470012  28.4964997  83.2769988
  94.9380012  29.1884997  83.6749988  95.1030012  28.6454997  81.6319988
  94.4730012  27.7794997  81.9279988  94.4930012  29.4644997  81.1939988
  96.1820012  28.1024997  80.6719988  96.6800012  28.9464997  80.1489988
  97.0450012  27.6664997  81.2189988  95.6720012  26.9624997  79.6929988
  96.5810012  26.6244997  79.1499988  95.2700012  26.1204997  80.2959988
  94.4430012  27.3344997  78.7939988  93.6400012  27.7274997  79.4529988
  94.7510012  28.2414997  78.2309988  94.0430012  26.4054997  77.6849988
  94.9960012  25.9514997  77.3409988  93.4220012  25.6144997  78.1569988
  93.1700012  27.0524997  76.6539988  92.2990012  27.6824997  76.9369988
  93.8250012  27.7914997  76.1449988  92.5530012  26.1094997  75.5689988
  93.3440012  25.3704997  75.3199988  91.6390012  25.6464997  75.9999988
  92.3550012  27.0214997  74.4639988  91.7480012  27.8934997  74.7889988
  93.3030012  27.3424997  73.9819988  91.4970012  26.3454997  73.3579988
  90.8080012  25.6454997  73.8779988  90.8240012  26.9904997  72.7539988
  92.3520012  25.4364997  72.4269988  93.0110012  24.7404997  72.9899988
  91.7010012  25.0324997  71.6219988  93.2040012  26.2634997  71.4359988
  94.1050012  26.7394997  71.8779988  93.7520012  25.7184997  70.6379988
  92.3600012  27.2564997  70.5989988  91.4110012  26.7304997  70.3569988
  91.9480012  28.1894997  71.0409988  93.0830012  27.9074997  69.4489988
  94.1590012  28.4504997  69.4949988  92.3450012  27.7804997  68.2899988
  92.8200012  28.4324997  67.1279988  93.9130012  28.2444997  67.0729988
  92.4020012  27.9524997  66.2179988  92.4920012  30.0164997  67.0619988
  91.4340012  30.1614997  66.7549988  93.3490012  30.5314997  65.8359988
  93.1590012  29.8324997  64.9939988  93.0070012  31.5474997  65.5439988
  94.7350012  30.5484997  66.2219988  95.6840012  31.0454997  65.0809988
  95.3740012  29.9544997  64.0099988  96.0420012  28.6894997  64.0939988
  97.0730012  28.8304997  63.7069988  96.1600012  28.2924997  65.1249988
  95.2480012  27.6994997  63.2399988  95.8910012  26.8374997  63.1399988
  94.3120012  27.4434997  63.7149988  94.9330012  28.0074997  61.8039988
  94.7110012  26.7124997  60.9489988  95.4970012  26.0164997  61.2039988
  93.7760012  26.2194997  61.1749988  94.8030012  27.1074997  59.9479988
  93.6750012  28.8344997  61.6019988  93.6700012  28.9924997  60.5339988
  92.8920012  28.2154997  62.0159988  93.9150012  29.8094997  61.9999988
  96.1650012  28.6804997  61.1649988  97.0760012  28.1874997  61.4679988
  96.1640012  29.6174997  61.7019988  96.1730012  28.9334997  60.1149988
  95.2400012  32.3534997  64.5309988  97.1080012  30.9224997  65.4819988
  92.7900012  30.6414997  68.3149988  92.2870012  31.9404997  68.3759988
  91.3950012  32.3894997  67.6019988  92.9130012  32.7104997  69.5699988
  93.6320012  32.0584997  70.1109988  92.1580012  33.0844997  70.2949988
  93.8830012  33.8114997  68.9399988  93.2790012  34.5314997  68.3459988
  94.5220012  33.3674997  68.1469988  94.5900012  34.5654997  70.0019988
  93.8310012  35.0774997  70.6309988  95.0980012  35.3984997  69.4699988
  95.5040012  33.7194997  70.8369988  95.0070012  33.2034997  71.6859988
  96.1440012  34.4694997  71.3489988  96.4450012  32.7974997  70.1509988
  96.9200012  33.2454997  69.2519988  95.8840012  31.9144997  69.7769988
  97.6760012  32.3314997  71.0419988  98.3440012  33.1324997  71.4249988
  98.2590012  31.7884997  70.2689988  97.3600012  31.4124997  72.3169988
  96.6330012  32.0004997  72.9169988  98.2790012  31.4244997  72.9419988
  96.8360012  30.0544997  71.8919988  97.4220012  29.5984997  71.0799988
  95.8040012  29.3634997  72.3799988  95.6970012  28.3164997  72.0609988
  94.8790012  29.7834997  73.5229988  95.4300012  30.4204997  74.2479988
  94.5050012  28.9344997  74.1349988  93.6280012  30.5724997  73.0899988
  93.2050012  30.1354997  72.1609988  93.9340012  31.6154997  72.8589988
  92.5930012  30.8274997  74.1999988  92.4040012  29.7734997  74.4939988
  91.6780012  31.3594997  73.8599988  93.0760012  31.6084997  75.4649988
  93.1190012  32.6804997  75.1789988  94.0830012  31.1774997  75.6459988
  92.1200012  31.3104997  76.6329988  92.0750012  30.2084997  76.7639988
  91.1240012  31.7374997  76.3869988  92.6220012  32.0154997  77.9539988
  92.7960012  33.0884997  77.7269988  93.5320012  31.4474997  78.2449988
  91.6420012  31.9074997  79.1319988  90.7480012  32.5434997  78.9559988
  92.1090012  32.2964997  80.0609988  91.1500012  30.5264997  79.4549988
  90.3980012  30.7474997  80.2419988  91.9740012  29.8414997  79.7499988
  90.6330012  30.1284997  78.5549988 102.4000012 108.8694997  83.2059988
 102.1610012 107.9794997  82.5849988 102.0820012 108.6814997  84.2539988
 103.4970012 109.0144997  83.1169988 101.6440012 110.1414997  82.7039988
 100.5370012 110.0554997  82.7469988 101.9050012 110.9804997  83.3819988
 102.1660012 110.4014997  81.3259988 103.2170012 110.7614997  81.3379988
 102.2200012 109.4824997  80.7029988 101.4390012 111.5424997  80.6529988
 100.3510012 111.3254997  80.7179988 101.5050012 112.4604997  81.2749988
 101.8910012 111.9774997  79.2289988 102.8320012 112.5504997  79.3679988
 102.1470012 111.1364997  78.5499988 100.9230012 112.9254997  78.4849988
  99.9590012 112.4264997  78.2459988 100.5960012 113.7574997  79.1449988
 101.4300012 113.4754997  77.1809988 100.6950012 114.2484997  76.8699988
 102.4660012 113.8314997  77.3649988 101.5180012 112.3534997  76.0349988
 101.9690012 111.4044997  76.3969988 100.4910012 112.2604997  75.6209988
 102.4130012 112.8144997  74.8409988 101.8250012 113.6344997  74.3769988
 103.4030012 113.1704997  75.1979988 102.5380012 111.6474997  73.8319988
 103.3170012 110.9794997  74.2579988 101.6410012 111.0124997  73.9929988
 102.8500012 111.9024997  72.3539988 101.9450012 112.3894997  71.9319988
 103.6260012 112.6864997  72.2279988 102.9710012 110.5794997  71.6289988
 103.7480012 109.9674997  72.1359988 102.0100012 110.0814997  71.8789988
 103.1100012 110.6064997  70.0689988 103.6580012 111.4834997  69.6639988
 103.6520012 109.6504997  69.9089988 101.7640012 110.6024997  69.3849988
 101.1930012 109.6514997  69.4409988 101.1350012 111.2954997  69.9839988
 101.7300012 111.0394997  67.9759988 102.5580012 110.5104997  67.4579988
 100.7610012 110.8204997  67.4789988 102.0750012 112.5674997  67.9789988
 101.3510012 113.4394997  68.3949988 103.2680012 112.8464997  67.3589988
 103.7170012 114.1994997  67.3729988 103.0120012 115.0454997  67.2319988
 104.1560012 114.4974997  68.3489988 104.7790012 114.4684997  66.3399988
 105.3120012 115.4114997  66.5869988 104.2190012 114.6254997  64.8699988
 103.2690012 115.1964997  64.7919988 105.1190012 115.1294997  64.4579988
 103.9860012 113.3604997  64.4269988 103.7370012 112.9154997  62.9699988
 103.8360012 111.3774997  63.0729988 103.6050012 110.7434997  64.2599988
 104.0490012 109.7284997  64.1819988 104.0620012 111.3154997  65.0959988
 102.1110012 110.6174997  64.6339988 101.9490012 110.2254997  65.6269988
 101.6410012 111.5864997  64.5539988 101.3020012 109.6754997  63.7259988
 101.5960012 109.8804997  62.2929988 101.6190012 110.9534997  62.1669988
 102.5380012 109.4324997  62.0129988 100.7250012 109.5994997  61.7199988
 101.3570012 108.2494997  64.0889988 100.7570012 107.7354997  63.3519988
 102.3940012 107.9494997  64.0729988 100.9620012 108.0734997  65.0789988
  99.8200012 109.9914997  63.9679988  99.2000012 109.4144997  63.2969988
  99.6980012 111.0614997  64.0519988  99.6370012 109.6684997  64.9819988
 102.3490012 113.3184997  62.6009988 104.8660012 113.3544997  62.1409988
 105.7190012 113.3484997  66.3519988 106.5200012 113.1524997  67.3489988
 106.5970012 113.9084997  68.2789988 107.4000012 111.9374997  67.3439988
 108.1320012 112.1694997  66.5409988 106.8380012 111.0124997  67.0929988
 108.2260012 111.7214997  68.7089988 108.7180012 112.6314997  69.1129988
 109.0300012 110.9984997  68.4539988 107.4780012 111.0094997  69.8579988
 107.2520012 109.9424997  69.6489988 106.5470012 111.6154997  69.8799988
 108.1510012 110.9654997  71.2619988 108.4590012 111.9924997  71.5539988
 109.0440012 110.3124997  71.1699988 107.2800012 110.3984997  72.3599988
 107.1500012 109.3364997  72.0609988 106.2900012 110.8954997  72.4379988
 107.9270012 110.6444997  73.7299988 109.0320012 110.7524997  73.7109988
 107.5970012 109.7584997  74.3129988 107.2930012 111.9084997  74.5559988
 107.4550012 112.7624997  73.8629988 107.9470012 112.0984997  75.4339988
 105.8570012 111.7964997  74.9309988 105.1630012 111.6374997  74.0919988
 105.3940012 111.9104997  76.1659988 104.3090012 111.7684997  76.2709988
 106.1560012 112.1784997  77.4689988 107.2650012 112.2494997  77.4789988
 105.7790012 111.5094997  78.2709988 105.6290012 113.5094997  78.0699988
 104.5190012 113.4804997  78.0339988 105.9810012 114.4354997  77.5649988
 106.1990012 113.6514997  79.5109988 107.3030012 113.6904997  79.3949988
 106.1150012 112.6774997  80.0399988 105.6070012 114.8074997  80.2369988
 105.5430012 115.7194997  79.6059988 106.1620012 114.9634997  81.1859988
 104.1680012 114.5584997  80.8159988 104.0690012 113.4914997  81.1109988
 103.4510012 114.8724997  80.0289988 103.8060012 115.5154997  81.9569988
 104.0000012 116.5354997  81.5609988 104.4480012 115.4024997  82.8569988
 102.2720012 115.3974997  82.4039988 102.0470012 115.9424997  83.3459988
 102.0540012 114.3414997  82.6699988 101.3110012 115.8454997  81.3379988
 101.4930012 116.9314997  81.1939988 100.2420012 115.7744997  81.6309988
 101.5150012 115.3284997  80.3759988 125.3930012  61.0324997  80.6639988
 126.4290012  60.6574997  80.8119988 125.3670012  61.9434997  80.0279988
 124.8880012  60.3014997  79.9969988 124.6130012  61.2194997  81.9649988
 124.5360012  60.1974997  82.3929988 125.1040012  61.9274997  82.6659988
 123.1420012  61.6494997  81.7199988 122.7230012  61.9584997  82.7009988
 123.3530012  62.5994997  81.1829988 122.3500012  60.6604997  80.9109988
 122.8010012  60.8074997  79.9059988 122.5700012  59.5964997  81.1429988
 120.8680012  60.9954997  80.9669988 120.2790012  60.1824997  80.4899988
 120.5840012  61.1524997  82.0299988 120.5240012  62.2754997  80.2239988
 119.6170012  62.6814997  80.7209988 121.3140012  63.0484997  80.3379988
 120.1000012  61.9114997  78.7379988 119.3550012  61.0874997  78.7699988
 119.5790012  62.8174997  78.3589988 121.2810012  61.5364997  77.8989988
 122.1270012  62.1474997  78.2799988 121.4830012  60.4684997  78.1289988
 121.1850012  61.8404997  76.4109988 120.2390012  61.3564997  76.0869988
 121.2070012  62.9454997  76.2929988 122.4120012  61.3784997  75.5799988
 123.1100012  62.2004997  75.8489988 122.8070012  60.4444997  76.0329988
 122.1960012  61.4524997  74.0489988 121.5360012  60.6294997  73.6999988
 121.5890012  62.3374997  73.7629988 123.4720012  61.2974997  73.1179988
 124.0120012  62.2674997  73.1539988 124.0820012  60.5034997  73.5989988
 123.1100012  61.0344997  71.6109988 122.4050012  60.1814997  71.5129988
 122.5770012  61.9454997  71.2639988 124.4450012  60.8834997  70.7309988
 124.8900012  61.8914997  70.5899988 125.1440012  60.2224997  71.2859988
 124.1080012  60.4174997  69.3059988 123.2200012  60.9494997  68.9019988
 125.0150012  60.5594997  68.6809988 123.7890012  58.9394997  69.2619988
 124.0920012  58.2624997  70.1869988 123.2160012  58.6844997  68.0949988
 122.5970012  57.4314997  68.0569988 123.3830012  56.6874997  67.8049988
 122.1580012  57.2144997  69.0539988 121.5260012  57.3614997  67.0129988
 120.9010012  56.4824997  67.2839988 122.0450012  57.3504997  65.5439988
 122.3280012  56.2964997  65.3389988 121.1640012  57.5964997  64.9129988
 123.0720012  58.3144997  65.2789988 123.7100012  58.4374997  63.9099988
 122.6290012  59.4554997  63.2259988 122.2550012  60.6854997  63.9429988
 122.8610012  60.9534997  64.8339988 122.5170012  61.5184997  63.2569988
 120.6850012  60.6774997  64.1169988 120.3250012  59.9834997  64.8609988
 120.5020012  61.6684997  64.5059988 119.7600012  60.4654997  62.8879988
 120.0280012  61.5604997  61.9029988 121.0200012  61.3864997  61.5129988
 119.2730012  61.6774997  61.1399988 120.1000012  62.4964997  62.4369988
 119.9440012  59.1074997  62.2869988 120.4650012  59.1734997  61.3429988
 120.4610012  58.4454997  62.9659988 118.9490012  58.8044997  61.9959988
 118.3870012  60.5304997  63.4399988 117.6260012  60.5514997  62.6739988
 118.3110012  61.4464997  64.0059988 118.1620012  59.7314997  64.1309988
 125.0350012  59.1274997  63.9769988 123.5450012  57.1414997  63.2109988
 120.6630012  58.5284997  67.0939988 119.8280012  58.5764997  68.0299988
 119.4650012  57.5894997  68.6599988 119.2240012  59.9314997  68.0919988
 118.1880012  59.9834997  67.6919988 119.8550012  60.5564997  67.4239988
 119.2340012  60.4244997  69.5339988 118.9790012  61.4994997  69.4119988
 120.2190012  60.2244997  70.0059988 118.2050012  59.8074997  70.4899988
 118.2550012  58.6994997  70.4259988 117.1370012  59.9744997  70.2329988
 118.5210012  60.2694997  71.9079988 118.6470012  61.3734997  71.8939988
 119.5440012  59.8424997  71.9859988 117.5820012  59.6294997  72.9259988
 117.4310012  58.5404997  72.7649988 116.6410012  60.2114997  72.8279988
 118.1820012  59.7154997  74.3779988 118.2670012  60.7934997  74.6339988
 119.2290012  59.3454997  74.4039988 117.4090012  58.9774997  75.3909988
 117.0280012  57.9684997  75.1229988 116.4480012  59.5294997  75.4589988
 117.9960012  58.9324997  76.7599988 117.4780012  59.5314997  77.5239988
 119.0180012  58.1314997  77.2629988 119.3140012  58.0944997  78.3219988
 119.8290012  57.1194997  76.4709988 119.5170012  56.8894997  75.4299988
 119.8670012  56.1524997  77.0159988 121.2870012  57.5514997  76.4959988
 121.2270012  58.6394997  76.2809988 121.7700012  57.0684997  75.6199988
 122.2200012  57.0844997  77.6679988 121.8440012  57.6064997  78.5739988
 123.2580012  57.3244997  77.3519988 122.3410012  55.5854997  77.8709988
 123.0020012  55.1974997  77.0669988 121.3820012  55.1104997  77.5709988
 122.9020012  55.1654997  79.2919988 123.8770012  55.6994997  79.2899988
 123.0820012  54.0944997  79.5269988 122.1610012  55.7144997  80.4639988
 121.5660012  56.6184997  80.2119988 122.8380012  55.9284997  81.3189988
 121.0140012  54.7444997  80.9379988 120.5240012  55.1134997  81.8649988
 121.6560012  53.8724997  81.1839988 119.8690012  54.4254997  79.9269988
 119.4920012  55.3564997  79.4519988 119.0330012  53.9094997  80.4459988
 120.1560012  53.9064997  78.9869988  87.9300012 117.6054997  83.7859988
  87.5130012 116.6394997  83.4319988  87.7040012 117.5164997  84.8699988
  89.0300012 117.6654997  83.6409988  87.2140012 118.7414997  82.9719988
  86.1660012 118.3904997  82.8569988  87.3390012 119.7364997  83.4509988
  87.7770012 118.7954997  81.5499988  87.3670012 119.6164997  80.9249988
  88.8790012 118.8514997  81.6819988  87.4810012 117.5874997  80.7039988
  87.8740012 116.6474997  81.1469988  86.3930012 117.3644997  80.7029988
  87.9770012 117.7994997  79.2719988  87.6940012 118.8034997  78.8899988
  89.0830012 117.8264997  79.1749988  87.3980012 116.6584997  78.4179988
  87.6270012 115.7704997  79.0459988  86.3280012 116.5184997  78.1539988
  88.2530012 116.3544997  77.1059988  89.3060012 116.5864997  77.3719988
  88.0720012 115.2874997  76.8529988  87.8650012 117.2424997  75.8649988
  86.9450012 116.7644997  75.4649988  87.4850012 118.2674997  76.0589988
  88.8700012 117.3854997  74.7559988  88.7120012 118.1834997  73.9999988
  89.8630012 117.6334997  75.1899988  89.0490012 116.1904997  73.9409988
  89.9590012 116.2934997  73.3119988  89.2490012 115.2444997  74.4889988
  87.8550012 115.9214997  72.9869988  86.9230012 115.9954997  73.5869988
  87.7870012 116.6814997  72.1799988  87.9060012 114.4614997  72.4139988
  88.8270012 114.3164997  71.8109988  87.8870012 113.6664997  73.1899988
  86.6740012 114.1264997  71.5339988  86.6560012 113.0304997  71.3539988
  85.8070012 114.3424997  72.1939988  86.4360012 114.8404997  70.1979988
  85.3610012 114.7294997  69.9389988  86.6660012 115.9224997  70.3089988
  87.3650012 114.2044997  69.1409988  88.4410012 114.2654997  69.4119988
  87.1180012 113.1274997  69.0259988  87.2250012 115.0614997  67.9209988
  86.4480012 116.0444997  67.9189988  87.9570012 114.6434997  66.9939988
  88.1510012 115.3044997  65.7519988  88.2020012 116.4074997  65.8779988
  89.0350012 114.8294997  65.2739988  87.0400012 114.7714997  64.8219988
  86.8820012 113.6804997  64.9589988  87.4730012 115.1724997  63.3689988
  88.5510012 114.9174997  63.2859988  86.8270012 114.6584997  62.6259988
  87.1500012 116.6194997  63.2209988  88.1090012 117.6934997  62.5629988
  87.3480012 119.0764997  62.6839988  86.0420012 119.3164997  62.2179988
  85.9740012 120.3074997  61.7199988  85.7070012 118.7284997  61.3369988
  84.9890012 119.1504997  63.3539988  84.0070012 119.3244997  62.9409988
  84.9590012 118.1104997  63.6419988  85.0920012 120.0054997  64.6279988
  86.1070012 119.3594997  65.6099988  85.7310012 118.4094997  65.9589988
  87.0950012 119.1504997  65.2259988  86.2100012 119.9934997  66.4779988
  85.6300012 121.3314997  64.2659988  85.5810012 122.0394997  65.0799988
  86.6300012 121.1424997  63.9049988  84.9360012 121.7344997  63.5439988
  83.6970012 120.1434997  65.2109988  83.7780012 120.5064997  66.2249988
  83.4070012 119.1044997  65.2579988  83.0380012 120.7344997  64.5919988
  89.3450012 117.7374997  63.3429988  88.1270012 117.3324997  61.0819988
  85.7610012 115.4124997  65.1169988  84.6840012 115.0544997  64.5249988
  84.5060012 114.1344997  63.7679988  83.6020012 116.0514997  64.9469988
  82.6580012 115.5104997  64.7229988  83.6720012 117.0764997  64.5229988
  83.5610012 116.3124997  66.4019988  84.3340012 117.0714997  66.6489988
  83.7740012 115.3854997  66.9759988  82.1080012 116.5164997  66.9699988
  81.5030012 115.6374997  66.6579988  81.7520012 117.4794997  66.5459988
  82.0540012 116.7164997  68.4619988  82.4510012 115.8684997  69.0589988
  81.0080012 116.8314997  68.8179988  82.8760012 117.9984997  68.8649988
  82.8510012 118.6384997  67.9569988  83.9780012 117.8624997  68.9149988
  82.4260012 118.4174997  70.2129988  82.3520012 117.5794997  70.9379988
  81.4120012 118.8634997  70.1309988  83.3080012 119.6174997  70.7679988
  82.6910012 119.8464997  71.6629988  83.2940012 120.4474997  70.0299988
  84.7830012 119.3814997  71.1769988  85.6600012 119.7824997  70.6489988
  85.1520012 118.6594997  72.2469988  86.2320012 118.4884997  72.3699988
  84.3410012 117.8694997  73.2509988  84.7040012 116.8224997  73.1739988
  83.2660012 117.9564997  72.9829988  84.4720012 118.4394997  74.6879988
  84.0430012 119.4634997  74.7379988  85.5610012 118.5624997  74.8709988
  83.8010012 117.5754997  75.7749988  84.4920012 116.7064997  75.8209988
  82.7900012 117.1754997  75.5479988  83.6280012 118.2464997  77.1749988
  82.9680012 119.1394997  77.1459988  84.5710012 118.7074997  77.5389988
  83.0950012 117.4084997  78.3549988  83.7880012 116.5454997  78.4519988
  82.0600012 117.1954997  78.0129988  83.0240012 118.1114997  79.7259988
  82.0280012 118.5964997  79.8079988  83.6860012 119.0024997  79.7649988
  83.2620012 117.2094997  81.0239988  84.2640012 116.7774997  80.8129988
  82.5100012 116.4064997  80.8699988  83.0190012 117.9144997  82.3449988
  83.2460012 117.2704997  83.2219988  81.9250012 118.1064997  82.3279988
  83.5750012 118.8754997  82.3209988 123.0320012  69.2084997  81.5839988
 123.7050012  68.3414997  81.4069988 122.5020012  69.0234997  82.5419988
 123.6410012  70.0914997  81.8719988 121.9940012  69.5834997  80.5229988
 121.3770012  68.6844997  80.3079988 121.3240012  70.4134997  80.8329988
 122.5620012  70.0494997  79.2489988 123.4740012  70.6624997  79.4129988
 122.9390012  69.1214997  78.7689988 121.5690012  70.8304997  78.4639988
 121.3280012  71.8114997  78.9289988 122.1120012  71.0204997  77.5129988
 120.2610012  70.1354997  78.0189988 119.6240012  70.1944997  78.9269988
 119.9610012  70.8484997  77.2209988 120.5420012  68.6794997  77.4609988
 121.3660012  68.7924997  76.7249988 120.9570012  68.0374997  78.2679988
 119.3130012  68.0674997  76.8439988 119.5960012  67.0194997  76.6099988
 118.4930012  68.0244997  77.5919988 118.7230012  68.6804997  75.5709988
 117.8840012  68.0354997  75.2339988 118.3380012  69.6764997  75.8759988
 119.7480012  68.7614997  74.3769988 120.4930012  69.5814997  74.2969988
 120.3390012  67.8214997  74.3579988 118.9510012  68.8034997  73.0549988
 118.2030012  67.9814997  73.0689988 118.4080012  69.7714997  73.0209988
 119.7450012  68.8264997  71.7609988 120.5310012  69.6104997  71.8159988
 120.2850012  67.8764997  71.5549988 118.8550012  69.0534997  70.5389988
 117.9820012  68.3674997  70.4879988 118.3850012  70.0584997  70.6019988
 119.4730012  68.8144997  69.1409988 119.6920012  67.7304997  69.0349988
 118.7450012  69.0464997  68.3349988 120.7620012  69.6444997  68.9189988
 121.6300012  69.3714997  69.5569988 121.1220012  69.4194997  67.8919988
 120.5350012  71.1744997  69.0929988 119.5650012  71.4964997  68.6579988
 120.6030012  71.3334997  70.1909988 121.5050012  72.0434997  68.3499988
 121.1270012  72.9904997  67.6249988 122.7440012  71.6844997  68.5929988
 123.6730012  72.5054997  67.9669988 123.3550012  73.4964997  67.5789988
 124.3040012  72.8664997  68.8069988 124.3890012  71.6914997  66.9019988
 125.2340012  72.3134997  66.5349988 123.3570012  71.3764997  65.7579988
 122.6940012  72.2544997  65.6009988 124.0160012  71.3444997  64.8639988
 122.5960012  70.1744997  66.0109988 122.8250012  68.9334997  65.1119988
 122.0460012  69.3424997  63.8369988 120.8300012  70.1094997  63.7769988
 120.1210012  69.8484997  64.5909988 121.0630012  71.1804997  63.9609988
 120.1290012  69.8164997  62.4029988 119.0770012  70.0034997  62.5619988
 120.5090012  70.5184997  61.6759988 120.2910012  68.4674997  61.7759988
 119.4080012  68.3104997  60.5609988 118.4000012  68.5134997  60.8909988
 119.6610012  69.0124997  59.7799988 119.3730012  67.2764997  60.2509988
 121.6470012  68.4374997  61.1979988 122.3740012  68.5864997  61.9829988
 121.8620012  67.5234997  60.6629988 121.6800012  69.2254997  60.4599988
 120.1630012  67.3244997  62.7639988 119.1860012  67.3174997  63.2239988
 120.9170012  67.5264997  63.5099988 120.3610012  66.4894997  62.1089988
 124.3030012  68.7864997  64.8909988 122.2500012  67.8444997  65.8509988
 124.9650012  70.4274997  67.4089988 126.0360012  70.5204997  68.1069988
 126.7750012  71.5224997  68.2009988 126.2860012  69.2354997  68.8379988
 127.3750012  69.0244997  68.7719988 125.5510012  68.4924997  68.4599988
 125.7560012  69.2434997  70.2659988 126.0780012  68.3544997  70.8499988
 124.6530012  69.1114997  70.2919988 125.8720012  70.5424997  71.0369988
 124.9860012  71.1054997  70.6729988 126.7940012  71.1044997  70.7749988
 125.7620012  70.4254997  72.5319988 126.7810012  70.1544997  72.8809988
 124.9100012  69.7784997  72.8269988 125.4130012  71.7434997  73.1529988
 124.4140012  72.1254997  72.8529988 126.1620012  72.5174997  72.8789988
 125.2560012  71.5864997  74.6729988 126.2860012  71.4474997  75.0649988
 124.6890012  70.6684997  74.9389988 124.7870012  72.8864997  75.4149988
 123.9220012  73.3134997  74.8639988 125.5860012  73.6534997  75.3289988
 124.5120012  72.5754997  76.8639988 123.4560012  72.2964997  76.9929988
 125.2890012  72.4714997  77.9289988 124.9280012  72.2264997  78.9379988
 126.7670012  72.6754997  77.9989988 127.0100012  73.5464997  78.6439988
 127.2390012  72.9514997  77.0319988 127.3800012  71.4024997  78.6169988
 128.4550012  71.6394997  78.4659988 127.2040012  70.4354997  78.0969988
 127.0450012  71.1704997  80.0939988 127.5200012  70.2244997  80.4299988
 125.9620012  71.0204997  80.2939988 127.4640012  72.2914997  81.1019988
 126.9310012  73.2504997  80.9299988 128.4810012  72.6354997  80.8199988
 127.5630012  71.7924997  82.5329988 128.2700012  72.4134997  83.1249988
 127.9340012  70.7524997  82.6579988 126.2530012  71.9164997  83.3049988
 125.4660012  71.5184997  82.6299988 126.0550012  73.0084997  83.3579988
 126.2020012  71.2004997  84.6879988 125.1930012  71.3504997  85.1289988
 126.8390012  71.8214997  85.3529988 126.5920012  69.7224997  84.7019988
 126.5070012  69.3974997  85.7609988 127.6500012  69.5214997  84.4329988
 125.9080012  69.0774997  84.1099988  69.7490012  27.7694997  83.1639988
  69.8910012  28.2314997  82.1629988  70.7320012  27.3824997  83.5079988
  69.4690012  28.6544997  83.7739988  68.5380012  26.7964997  83.1359988
  69.0190012  25.8224997  82.9029988  68.0360012  26.7054997  84.1229988
  67.5230012  27.0614997  81.9079988  66.6150012  27.4584997  82.4099988
  67.9990012  27.8444997  81.2809988  67.1810012  25.8804997  81.0879988
  67.0230012  24.9844997  81.7259988  66.2320012  26.1314997  80.5679988
  68.0490012  25.6824997  79.8379988  67.8400012  26.5424997  79.1659988
  69.1320012  25.6794997  80.0849988  67.6510012  24.5164997  78.9049988
  68.5750012  24.2734997  78.3379988  67.4700012  23.5324997  79.3899988
  66.5110012  24.8144997  77.9099988  66.3750012  23.8544997  77.3679988
  65.6200012  25.0234997  78.5409988  66.8690012  25.9994997  76.8979988
  66.1150012  26.0254997  76.0829988  66.7460012  27.0044997  77.3529988
  68.2560012  25.8464997  76.2449988  69.0590012  25.9934997  76.9979988
  68.3490012  24.7954997  75.8959988  68.5920012  26.9114997  75.1499988
  69.5730012  26.7124997  74.6659988  67.8720012  27.0054997  74.3089988
  68.9170012  28.3594997  75.6649988  68.0600012  28.7274997  76.2679988
  69.8020012  28.3984997  76.3359988  69.1560012  29.2444997  74.4299988
  69.5790012  30.1784997  74.8569988  69.9220012  28.7984997  73.7599988
  67.7670012  29.6564997  73.6289988  67.2120012  28.7194997  73.4129988
  67.2150012  30.2444997  74.3929988  67.9760012  30.6014997  72.4359988
  66.9890012  30.7124997  71.9369988  68.2170012  31.6064997  72.8439988
  69.0690012  30.2684997  71.4209988  70.0050012  30.2524997  72.0199988
  68.7600012  29.2684997  71.0489988  69.0090012  31.1404997  70.0899988
  69.1590012  32.3564997  70.0679988  68.8040012  30.3264997  69.1379988
  68.5330012  30.8944997  67.8739988  67.6360012  31.5354997  68.0139988
  69.2970012  31.6584997  67.6129988  68.1420012  29.8654997  66.8539988
  69.0060012  29.2474997  66.5269988  67.6160012  30.5914997  65.5839988
  66.6020012  30.9674997  65.8389988  68.2030012  31.5024997  65.3379988
  67.4000012  29.6394997  64.5549988  68.3160012  29.6714997  63.2049988
  67.6160012  28.5594997  62.2949988  66.2260012  28.2964997  62.2759988
  65.6580012  29.2474997  62.1829988  65.9850012  27.5804997  61.4609988
  65.7620012  27.5374997  63.6229988  66.0130012  28.2694997  64.3769988
  64.6870012  27.4354997  63.6489988  66.3510012  26.2234997  63.9459988
  67.8370012  26.1324997  63.8299988  68.1010012  26.2794997  62.7929988
  68.3260012  26.8634997  64.4569988  68.0330012  25.1324997  64.1859988
  65.9750012  25.8874997  65.3369988  66.3010012  24.9074997  65.6539988
  66.5260012  26.5804997  65.9559988  64.9310012  26.0254997  65.5799988
  65.7750012  25.2164997  62.9599988  64.7570012  25.4494997  62.6869988
  65.7090012  24.2444997  63.4259988  66.2460012  25.2424997  61.9879988
  68.2550012  30.9744997  62.5109988  69.7100012  29.2164997  63.6429988
  67.0300012  29.0374997  67.3199988  67.4200012  27.9404997  68.0739988
  68.5500012  27.6514997  68.2889988  66.2400012  27.2374997  68.5329988
  66.2770012  26.2004997  68.1369988  65.2480012  27.5914997  68.1789988
  66.3400012  27.1824997  70.1019988  65.7830012  28.0904997  70.4179988
  67.3990012  27.3554997  70.3889988  65.8200012  25.8324997  70.6719988
  66.4670012  25.0534997  70.2169988  64.8170012  25.8204997  70.1929988
  65.7330012  25.7524997  72.2219988  66.8090012  25.6404997  72.4719988
  65.1470012  24.8464997  72.4889988  65.0990012  27.0314997  72.8149988
  65.6220012  27.9704997  72.5349988  65.2750012  26.9524997  73.9089988
  63.6520012  27.1544997  72.4539988  63.2390012  26.1374997  72.6289988
  63.4750012  27.3644997  71.3779988  62.8620012  28.1834997  73.2339988
  63.0610012  27.8974997  74.2889988  61.7810012  28.2684997  72.9929988
  63.4500012  29.5984997  73.1019988  63.3160012  30.0644997  72.1139988
  64.1150012  30.3774997  73.9459988  64.5160012  31.3554997  73.6419988
  64.4690012  29.9294997  75.4109988  65.4630012  29.4354997  75.3839988
  63.7890012  29.1554997  75.8279988  64.4710012  31.0584997  76.3019988
  63.4020012  31.3264997  76.4439988  64.8790012  32.0084997  75.8939988
  65.0690012  30.7354997  77.7099988  64.7870012  29.7574997  78.1549988
  64.6460012  31.5944997  78.2719988  66.6500012  30.8584997  77.8049988
  66.9920012  31.8634997  77.4779988  67.0020012  30.1394997  77.0359988
  67.2520012  30.4504997  79.1619988  68.3200012  30.3874997  78.8619988
  66.8370012  29.4704997  79.4799988  67.0190012  31.4194997  80.3369988
  65.9820012  31.8174997  80.3189988  67.5360012  32.4004997  80.2619988
  67.4200012  30.9004997  81.7459988  68.4030012  30.3934997  81.8449988
  66.8330012  29.9594997  81.8049988  67.2820012  31.8124997  82.9459988
  67.8360012  32.7674997  82.8209988  67.5910012  31.3494997  83.9079988
  66.2090012  32.0644997  83.0829988 123.5390012  86.6054997  80.3239988
 124.2930012  87.3764997  80.5869988 124.1460012  85.6834997  80.1969988
 122.7830012  86.5814997  81.1369988 122.8010012  86.7564997  78.9799988
 122.1710012  87.6704997  79.0369988 123.6400012  86.9324997  78.2729988
 122.0440012  85.5214997  78.4159988 122.7880012  84.7414997  78.1449988
 121.3410012  85.1224997  79.1779988 121.1960012  85.9064997  77.1719988
 120.3120012  86.4134997  77.6139988 121.8270012  86.6244997  76.6049988
 120.7550012  84.6654997  76.3939988 121.5520012  83.8994997  76.2899988
 120.0660012  84.1374997  77.0879988 119.8710012  84.8564997  75.1309988
 120.3920012  85.3364997  74.2749988 119.6030012  83.8594997  74.7209988
 118.4870012  85.5844997  75.2009988 118.0960012  85.1774997  76.1579988
 118.7030012  86.6334997  75.4979988 117.6010012  85.5394997  73.9009988
 118.2380012  86.0644997  73.1579988 117.5970012  84.4584997  73.6449988
 116.1990012  86.1244997  74.0049988 115.6010012  85.8114997  74.8879988
 116.3410012  87.2254997  74.0329988 115.3230012  85.6514997  72.8579988
 115.1260012  84.5584997  72.8509988 114.3320012  86.1244997  73.0249988
 115.8280012  86.0874997  71.4639988 116.3810012  87.0404997  71.6039988
 116.4510012  85.2864997  71.0119988 114.6770012  86.3854997  70.5379988
 114.0480012  85.4694997  70.5069988 114.1210012  87.2504997  70.9589988
 115.0340012  86.6304997  69.1059988 114.1030012  86.6654997  68.5009988
 115.3970012  87.6804997  69.0929988 116.1300012  85.7964997  68.4799988
 117.0960012  86.1164997  68.9249988 115.9940012  84.7174997  68.7049988
 116.3310012  85.9614997  66.9359988 117.3350012  85.5614997  66.6769988
 115.5880012  85.4464997  66.2899988 116.2050012  87.4614997  66.4979988
 115.2740012  87.9304997  65.9029988 117.3110012  88.1224997  66.8549988
 117.3450012  89.4974997  66.3389988 116.7120012  89.5704997  65.4279988
 116.9360012  90.1814997  67.1139988 118.7140012  89.9074997  65.8369988
 118.7740012  91.0164997  65.8449988 118.9990012  89.5744997  64.3439988
 118.1510012  90.0904997  63.8429988 119.9010012  90.0214997  63.8729988
 118.9390012  88.2104997  64.1419988 118.3090012  87.4484997  62.8709988
 118.9090012  85.9894997  62.8549988 119.0220012  85.1484997  64.0549988
 118.9570012  85.6924997  65.0219988 118.1370012  84.4794997  63.9949988
 120.4150012  84.3744997  63.9819988 120.4900012  83.8414997  64.9179988
 120.4070012  83.6664997  63.1659988 121.6090012  85.2824997  63.9439988
 121.5640012  86.0464997  62.6669988 121.7020012  85.2784997  61.9199988
 120.6000012  86.5224997  62.5659988 122.3080012  86.8284997  62.7119988
 121.8260012  86.1694997  65.1089988 120.8830012  86.6394997  65.3459988
 122.1520012  85.6304997  65.9859988 122.6410012  86.8254997  64.8409988
 122.8330012  84.4234997  63.8259988 122.6380012  83.5704997  63.1939988
 123.2550012  84.1104997  64.7689988 123.6020012  85.0294997  63.3709988
 116.8280012  87.1894997  63.1639988 118.7240012  88.0524997  61.5649988
 119.7320012  89.3234997  66.6819988 119.7260012  89.9124997  67.9359988
 119.0200012  90.7894997  68.4199988 120.9130012  89.5314997  68.7649988
 121.1740012  90.4324997  69.3599988 121.7850012  89.4084997  68.0869988
 120.5420012  88.2374997  69.6419988 120.4390012  87.3934997  68.9269988
 119.5310012  88.2794997  70.1009988 121.6590012  87.8874997  70.6249988
 122.6100012  88.0844997  70.0839988 121.6110012  86.8164997  70.9169988
 121.5990012  88.6814997  71.9659988 121.7410012  89.7764997  71.8469988
 122.4980012  88.4014997  72.5549988 120.3750012  88.4674997  72.8729988
 120.0610012  87.4174997  72.6899988 119.5880012  89.0974997  72.4059988
 120.7110012  88.8074997  74.3059988 121.6750012  88.2794997  74.4659988
 119.9730012  88.3284997  74.9849988 120.8320012  90.2924997  74.6189988
 121.3370012  90.6944997  73.7139988 121.5130012  90.2834997  75.4969988
 119.4420012  90.9024997  74.9469988 118.9870012  91.3144997  74.0339988
 118.7510012  90.8084997  76.1019988 117.8120012  91.3804997  76.1309988
 119.2440012  90.0474997  77.3539988 119.7580012  90.7914997  77.9999988
 119.9890012  89.2324997  77.2329988 118.0890012  89.4924997  78.2209988
 117.3680012  90.3364997  78.2609988 118.5410012  89.3584997  79.2259988
 117.5860012  88.1624997  77.8389988 118.4590012  87.4864997  77.7089988
 117.1010012  88.1364997  76.8409988 116.6250012  87.5644997  78.9009988
 115.6640012  88.0924997  78.7249988 116.9760012  87.8734997  79.9089988
 116.4580012  86.0434997  78.5849988 116.6210012  86.0044997  77.4869988
 115.4530012  85.6894997  78.8999988 117.5540012  85.2174997  79.3329988
 117.2280012  85.1974997  80.3949988 118.5550012  85.6954997  79.2619988
 117.6430012  83.7544997  78.9629988 118.0370012  83.5844997  77.9379988
 116.6690012  83.2714997  79.1939988 118.6580012  83.0994997  79.9379988
 118.2050012  83.0854997  80.9519988 119.6560012  83.5754997  79.8249988
 118.8680012  82.0584997  79.6099988  54.8380012 116.1694997  82.3319988
  54.3040012 115.2054997  82.4689988  54.2630012 116.9904997  82.8129988
  55.8520012 116.0954997  82.7789988  54.7870012 116.5444997  80.8199988
  54.9110012 117.6464997  80.8909988  55.6520012 116.0484997  80.3289988
  53.4640012 116.2014997  79.9919988  53.4350012 115.1734997  79.5709988
  52.6270012 116.1974997  80.7229988  53.2680012 117.1864997  78.7859988
  52.8100012 118.1544997  79.0839988  54.2480012 117.3724997  78.2969988
  52.4040012 116.6494997  77.7179988  51.7200012 116.0344997  78.3409988
  51.8400012 117.4684997  77.2219988  52.8960012 115.6024997  76.6599988
  53.4150012 114.7544997  77.1549988  51.9790012 115.1774997  76.1999988
  53.7570012 116.2804997  75.5229988  53.0500012 116.4534997  74.6829988
  54.1720012 117.1494997  76.0769988  54.8460012 115.3964997  75.0089988
  55.3480012 115.1534997  75.9689988  54.5120012 114.5044997  74.4369988
  55.8200012 116.1504997  74.0969988  56.3070012 116.8244997  74.8339988
  56.5720012 115.4304997  73.7089988  55.3600012 117.1214997  72.9699988
  54.7620012 117.9464997  73.4129988  56.2390012 117.6834997  72.5869988
  54.5140012 116.4794997  71.8769988  53.7380012 115.9234997  72.4459988
  53.9880012 117.2964997  71.3399988  55.2090012 115.5374997  70.9199988
  55.9910012 116.1834997  70.4669988  55.6670012 114.8084997  71.6229988
  54.2680012 115.0164997  69.7269988  54.8310012 114.3534997  69.0359988
  53.5940012 114.2844997  70.2219988  53.6610012 116.2394997  68.9529988
  53.0790012 116.8284997  69.6929988  54.5050012 116.9154997  68.6989988
  52.6880012 115.7814997  67.9029988  53.2060012 115.0844997  67.2099988
  51.7510012 115.2974997  68.2509988  52.3450012 117.0844997  67.1129988
  52.4490012 118.2294997  67.5179988  51.9650012 116.7314997  65.8899988
  51.3230012 117.7214997  65.0919988  50.5840012 117.1354997  64.5049988
  50.7790012 118.4984997  65.6689988  52.3710012 118.2744997  64.1299988
  51.9590012 119.0104997  63.4059988  53.0040012 117.1044997  63.3039988
  53.1150012 116.1824997  63.9139988  52.4390012 116.9594997  62.3579988
  54.3530012 117.4334997  62.9689988  55.1170012 116.8894997  61.7299988
  56.5830012 116.5934997  62.2229988  56.6680012 115.5344997  63.2419988
  55.8710012 114.7714997  63.1159988  57.6500012 115.0384997  63.0859988
  56.4540012 116.1034997  64.6089988  55.4360012 116.4354997  64.7459988
  56.5620012 115.2374997  65.2459988  57.3340012 117.1834997  65.1639988
  56.7970012 117.4924997  66.5799988  55.7920012 117.8864997  66.5339988
  56.7660012 116.6444997  67.2469988  57.4180012 118.2054997  67.0999988
  58.7430012 116.6994997  65.3069988  58.7090012 115.6464997  65.5449988
  59.2590012 116.7264997  64.3579988  59.3530012 117.2974997  65.9679988
  57.2920012 118.4064997  64.3089988  57.6190012 119.2934997  64.8329988
  56.2350012 118.4544997  64.0959988  57.6810012 118.2664997  63.3109988
  54.4440012 115.6434997  61.3089988  55.2270012 117.9964997  60.7389988
  53.4210012 118.8594997  64.9959988  53.3040012 120.1534997  65.2309988
  52.3780012 120.8594997  64.8499988  54.5000012 120.6044997  66.0279988
  55.4460012 120.4814997  65.4579988  54.4930012 120.0404997  66.9859988
  54.2870012 122.0624997  66.4199988  54.1360012 122.5984997  65.4589988
  55.2630012 122.5084997  66.7069988  53.3650012 122.2984997  67.6579988
  52.4310012 121.7074997  67.5529988  53.1310012 123.3834997  67.6719988
  53.9390012 121.8424997  69.0469988  54.9590012 122.2834997  69.0479988
  54.0770012 120.7464997  68.9279988  53.0340012 122.2604997  70.2909988
  52.0010012 122.4324997  69.9219988  53.3040012 123.2524997  70.7139988
  52.9610012 121.1994997  71.5199988  54.0060012 120.9984997  71.8399988
  52.6820012 120.2074997  71.1059988  52.0700012 121.6644997  72.6919988
  51.0490012 121.7104997  72.2569988  52.4900012 122.6444997  73.0029988
  52.1420012 120.6294997  73.8369988  51.1830012 120.0914997  73.8699988
  53.1290012 120.6184997  74.7359988  53.0790012 119.8694997  75.5399988
  54.3920012 121.4654997  74.8979988  54.2630012 122.1204997  75.7869988
  54.5610012 122.1314997  74.0249988  55.5910012 120.5854997  75.1559988
  56.4780012 121.2544997  75.1329988  55.7650012 119.7834997  74.4059988
  55.5280012 119.9664997  76.5519988  54.6080012 119.3944997  76.7949988
  55.4790012 120.7594997  77.3289988  56.8050012 119.1254997  76.8269988
  57.4470012 119.4614997  75.9849988  56.5550012 118.0614997  76.6269988
  57.4960012 119.5394997  78.1659988  57.7810012 120.6054997  78.0329988
  58.4990012 119.0604997  78.1449988  56.7430012 119.1604997  79.4169988
  56.4070012 118.1254997  79.1909988  55.9000012 119.8844997  79.4079988
  57.4410012 119.3784997  80.7159988  58.2180012 120.1564997  80.5599988
  57.9690012 118.4414997  80.9929988  56.5060012 119.8184997  81.8819988
  57.1470012 119.8164997  82.7899988  55.6080012 119.2104997  82.1219988
  56.2320012 120.8954997  81.8939988  21.2410012  89.4874997  80.5839988
  20.6320012  90.2224997  81.1519988  21.6830012  90.0494997  79.7339988
  21.8960012  88.8924997  81.2549988  20.1950012  88.4994997  80.0239988
  20.7600012  87.9864997  79.2159988  19.9410012  87.7954997  80.8449988
  18.9240012  89.1214997  79.3719988  18.3240012  88.2814997  78.9589988
  18.1770012  89.3874997  80.1489988  18.9040012  90.3884997  78.3939988
  19.6650012  90.3294997  77.5859988  17.9300012  90.2084997  77.8909988
  18.9620012  91.7614997  79.0929988  18.0870012  91.7884997  79.7769988
  19.9130012  91.8684997  79.6569988  18.9940012  92.9634997  78.1629988
  18.2670012  92.8444997  77.3309988  18.5580012  93.7184997  78.8519988
  20.3850012  93.4794997  77.6789988  20.9250012  93.9414997  78.5329988
  20.8800012  92.5154997  77.4339988  20.3540012  94.2864997  76.4079988
  20.2800012  93.6304997  75.5139988  19.5630012  95.0434997  76.5999988
  21.6720012  95.0574997  76.1219988  22.0910012  95.5714997  77.0139988
  22.3890012  94.2744997  75.7939988  21.7070012  95.9904997  74.8929988
  20.9290012  96.7824997  74.8429988  22.7330012  96.4164997  74.9129988
  21.5870012  95.2644997  73.5779988  22.2670012  94.3934997  73.6939988
  20.5460012  94.8754997  73.5499988  21.9670012  96.1074997  72.3009988
  21.2710012  96.9694997  72.2209988  23.0100012  96.4394997  72.4899988
  21.8470012  95.3934997  70.9239988  22.4860012  94.4874997  70.8519988
  20.7990012  95.0364997  70.8389988  22.1200012  96.3104997  69.7299988
  21.2300012  96.9554997  69.5659988  22.9450012  96.9814997  70.0529988
  22.4470012  95.3814997  68.6119988  21.7540012  94.5174997  68.6889988
  22.1520012  95.8374997  67.6419988  23.8630012  94.7834997  68.5209988
  24.8110012  95.0094997  69.2719988  23.7760012  93.8444997  67.6619988
  24.9930012  93.1644997  67.2899988  25.6360012  93.9554997  66.8489988
  25.6090012  92.7824997  68.1329988  24.7120012  92.2024997  66.1599988
  25.5780012  91.7854997  65.6019988  23.7640012  92.9624997  65.0849988
  24.1540012  93.9584997  64.7849988  23.7430012  92.3554997  64.1549988
  22.4490012  93.0514997  65.5729988  21.2800012  93.1664997  64.5309988
  21.5200012  91.7654997  63.8109988  21.2880012  90.5644997  64.4819988
  21.6980012  90.5734997  65.5139988  20.2120012  90.3504997  64.6589988
  21.9130012  89.3804997  63.6979988  22.9770012  89.5334997  63.8109988
  21.7140012  88.3984997  64.1009988  21.6500012  89.2204997  62.2329988
  22.1330012  87.9044997  61.7069988  21.6310012  87.1914997  62.3449988
  21.7090012  87.6474997  60.7479988  23.2050012  87.7724997  61.7059988
  20.1860012  89.1964997  61.9649988  20.0450012  89.2064997  60.8939988
  19.6380012  88.3954997  62.4379988  19.7790012  90.1304997  62.3249988
  22.4200012  90.2714997  61.4439988  23.3420012  90.6004997  61.8999988
  21.8090012  91.1624997  61.4269988  22.5330012  90.0554997  60.3919988
  19.9580012  93.1574997  65.1759988  21.5330012  94.2894997  63.5619988
  23.9570012  91.0774997  66.5969988  24.4900012  90.1404997  67.4989988
  25.6650012  90.1724997  67.8429988  23.3450012  89.2684997  68.0189988
  23.5370012  88.2644997  67.5819988  22.2900012  89.5364997  67.7939988
  23.4100012  89.0594997  69.5699988  24.3960012  88.8104997  70.0169988
  22.8440012  88.1144997  69.7179988  22.8850012  90.1524997  70.4739988
  21.7900012  90.2574997  70.3229988  23.4370012  91.0864997  70.2339988
  23.1410012  89.9244997  71.9289988  23.9690012  89.1874997  72.0139988
  22.2220012  89.4464997  72.3289988  23.4540012  91.2904997  72.6989988
  23.3580012  91.0964997  73.7889988  22.6730012  91.9794997  72.3129988
  24.8110012  91.8934997  72.4529988  24.7010012  92.6614997  71.6579988
  25.5180012  91.0984997  72.1329988  25.4550012  92.7154997  73.6549988
  24.7140012  93.4884997  73.9509988  26.2800012  93.3754997  73.3109988
  25.8780012  91.7794997  74.7669988  26.6290012  91.0384997  74.4559988
  25.3360012  91.5494997  75.9869988  25.8680012  90.8014997  76.5929988
  24.1720012  92.1664997  76.6059988  23.2540012  91.8874997  76.0459988
  24.1960012  93.2684997  76.4649988  24.0160012  91.9474997  78.1199988
  24.1020012  90.8544997  78.3049988  23.0490012  92.2674997  78.5639988
  25.2630012  92.3524997  78.9169988  25.4640012  93.4114997  78.6479988
  26.1290012  91.7214997  78.6249988  25.1070012  92.1574997  80.4169988
  26.1280012  92.2314997  80.8489988  24.6470012  91.1734997  80.6509988
  24.0900012  93.1674997  80.9769988  23.0790012  92.9754997  80.5569988
  24.3610012  94.1984997  80.6649988  24.0380012  93.1194997  82.5219988
  25.0810012  93.1034997  82.9039988  23.6400012  92.1534997  82.9019988
  23.3200012  94.3774997  83.1109988  23.8150012  94.5904997  84.0819988
  22.2750012  94.0884997  83.3559988  23.2090012  95.6774997  82.3679988
  22.5240012  96.4524997  82.7739988  22.8460012  95.3944997  81.3569988
  24.2230012  96.1154997  82.2459988  43.3690012  29.7214997  83.3149988
  44.3960012  30.0014997  83.6329988  43.3230012  28.7334997  82.8089988
  42.7250012  29.6874997  84.2189988  42.7770012  30.7254997  82.3539988
  42.6480012  31.7054997  82.8609988  43.4560012  30.9084997  81.4939988
  41.3980012  30.4664997  81.8059988  40.7300012  30.2514997  82.6669988
  41.0460012  31.4144997  81.3449988  41.4070012  29.3304997  80.7549988
  41.9950012  28.4404997  81.0659988  40.3950012  29.0014997  80.4349988
  41.9720012  29.8484997  79.3919988  41.5400012  30.8594997  79.2319988
  43.0780012  29.9504997  79.4049988  41.5880012  28.9704997  78.2479988
  41.7030012  27.9104997  78.5599988  40.5180012  29.1564997  78.0129988
  42.3190012  29.2934997  76.8729988  43.3930012  29.0854997  77.0639988
  42.0430012  28.5194997  76.1239988  42.0950012  30.6844997  76.2669988
  41.1540012  30.5584997  75.6909988  41.9840012  31.3794997  77.1269988
  43.2590012  31.2044997  75.4339988  43.3040012  32.2914997  75.6579988
  44.2110012  30.7314997  75.7559988  43.0700012  31.0744997  73.9579988
  44.0340012  31.2404997  73.4319988  42.6200012  30.0884997  73.7169988
  42.1660012  32.2554997  73.5479988  41.1590012  32.0734997  73.9809988
  42.5940012  33.2434997  73.8189988  42.0140012  32.3334997  72.0099988
  41.6630012  31.3294997  71.6899988  41.1590012  33.0084997  71.7879988
  43.2240012  32.6884997  71.2299988  43.6090012  33.7104997  71.4329988
  44.0260012  31.9404997  71.4049988  42.8890012  32.7114997  69.7009988
  43.2470012  31.7854997  69.2029988  41.7780012  32.6894997  69.7319988
  43.5440012  33.8944997  68.9979988  43.2500012  34.8064997  69.5599988
  44.6480012  33.7724997  68.9639988  43.0840012  34.1804997  67.5519988
  42.1000012  33.6054997  67.0929988  43.9470012  34.9404997  66.9839988
  43.8040012  35.1424997  65.5669988  42.9770012  34.4884997  65.2169988
  43.5870012  36.2114997  65.3539988  45.1030012  34.7774997  64.8729988
  45.8870012  35.5614997  64.9469988  44.8580012  34.5964997  63.3439988
  44.3690012  35.5354997  63.0049988  45.8860012  34.7634997  62.9569988
  44.1140012  33.4674997  62.9919988  44.6920012  32.1514997  62.2699988
  44.1130012  30.9744997  63.1819988  44.4970012  29.6894997  62.7019988
  43.7500012  29.2064997  62.0359988  45.4510012  29.6314997  62.1359988
  44.9150012  28.7864997  63.8839988  45.3830012  27.8954997  63.4929988
  45.6390012  29.2744997  64.5189988  43.7400012  28.2624997  64.7149988
  43.1500012  29.5074997  65.3869988  43.8690012  29.8364997  66.1239988
  42.9090012  30.2664997  64.6569988  42.1900012  29.2064997  65.7789988
  42.6400012  27.6164997  63.9179988  42.4180012  28.3304997  63.1389988
  42.8310012  26.6974997  63.3839988  41.8060012  27.4754997  64.5899988
  44.2950012  27.1804997  65.6899988  44.9780012  27.6464997  66.3859988
  44.7960012  26.4304997  65.0959988  43.4830012  26.6794997  66.1959988
  44.1630012  32.0004997  60.8859988  46.1620012  32.1564997  62.5559988
  45.6080012  33.5434997  65.4019988  46.6500012  33.4904997  66.2239988
  47.2620012  34.4704997  66.7349988  47.0780012  31.9964997  66.5009988
  47.7210012  31.6084997  65.6819988  46.2190012  31.2944997  66.4409988
  47.8880012  31.8474997  67.7529988  48.7180012  32.5704997  67.6049988
  48.1170012  30.7734997  67.9239988  47.0610012  32.0934997  68.9639988
  46.1230012  31.5104997  69.0809988  46.7960012  33.1604997  69.1239988
  47.9710012  31.7614997  70.1239988  48.9810012  32.1514997  69.8759988
  48.1860012  30.6734997  70.1959988  47.5340012  32.1334997  71.5569988
  48.1540012  31.4654997  72.1919988  46.5050012  31.7214997  71.6339988
  47.7690012  33.6024997  71.9109988  47.2150012  34.2774997  71.2249988
  48.8150012  33.8924997  71.6719988  47.4050012  33.9094997  73.3939988
  47.8160012  34.9064997  73.6619988  47.9470012  33.0854997  73.9069988
  45.9840012  33.8284997  73.9379988  45.3260012  33.0674997  73.4949988
  45.4140012  34.5414997  74.8619988  44.3520012  34.2814997  74.9819988
  45.9280012  35.7104997  75.6919988  45.4090012  36.6264997  75.3399988
  47.0310012  35.7184997  75.8249988  45.4560012  35.5424997  77.1129988
  44.3500012  35.4384997  77.0779988  45.5950012  36.4854997  77.6829988
  46.0270012  34.3114997  77.8579988  47.1270012  34.3804997  78.0039988
  45.8190012  33.3774997  77.2939988  45.3280012  33.9974997  79.1699988
  44.2730012  33.9114997  78.8299988  45.3370012  34.9234997  79.7829988
  45.7090012  32.8034997  79.9159988  45.0150012  32.7594997  80.7819988
  46.7030012  32.9404997  80.3929988  45.5880012  31.4794997  79.0729988
  46.3010012  31.4954997  78.2209988  44.5410012  31.2424997  78.7859988
  45.9800012  30.1144997  79.8249988  45.9470012  29.2074997  79.1839988
  45.1520012  29.9494997  80.5469988  47.2280012  29.9914997  80.7139988
  48.2040012  29.9094997  80.1889988  47.1850012  29.1724997  81.4629988
  47.3360012  30.9604997  81.2449988  28.3160012  44.9094997  80.7519988
  29.0220012  45.3164997  81.5079988  28.6600012  45.3574997  79.7949988
  28.4760012  43.8104997  80.7719988  26.7730012  45.2634997  81.1249988
  26.1420012  44.9984997  80.2489988  26.6310012  44.6754997  82.0569988
  26.6520012  46.8264997  81.3629988  25.5960012  46.9954997  81.6639988
  27.2460012  47.0524997  82.2739988  27.0450012  47.7284997  80.2069988
  26.8130012  48.7424997  80.5979988  28.1350012  47.6264997  80.0179988
  26.1530012  47.5994997  78.9339988  26.4630012  46.7314997  78.3139988
  25.0870012  47.4124997  79.1859988  26.3690012  48.7614997  77.9919988
  25.7620012  49.5714997  78.4489988  27.4300012  49.0724997  77.8769988
  25.8140012  48.4104997  76.5869988  26.2780012  47.4664997  76.2279988
  24.7230012  48.2404997  76.7089988  25.9980012  49.5014997  75.4619988
  25.1080012  50.1384997  75.6499988  26.9990012  49.9604997  75.6149988
  25.9760012  48.9964997  74.0559988  26.5850012  48.0814997  73.8929988
  24.9440012  48.6364997  73.8579988  26.4420012  49.9564997  72.9619988
  25.6580012  50.7414997  73.0159988  27.3750012  50.4524997  73.3039988
  26.4840012  49.3384997  71.5719988  27.3450012  48.6404997  71.5049988
  25.5440012  48.7524997  71.4869988  26.6480012  50.3904997  70.5019988
  25.8290012  51.1324997  70.6169988  27.6010012  50.9374997  70.6709988
  26.6840012  49.9864997  69.0639988  27.3040012  49.0684997  68.9839988
  25.6560012  49.6644997  68.7899988  27.1640012  51.0594997  68.1049988
  26.7900012  50.7574997  67.1029988  26.5890012  51.9634997  68.3979988
  28.7630012  51.2894997  68.0869988  28.9380012  52.3784997  68.2219988
  29.2600012  50.6714997  68.8649988  29.3780012  50.7394997  66.7279988
  29.0680012  51.1074997  65.6469988  30.2870012  49.8104997  67.0179988
  31.2410012  49.4064997  66.0749988  31.0160012  49.7124997  65.0309988
  32.2170012  49.8724997  66.3289988  31.3150012  47.8814997  65.8149988
  32.2580012  47.6754997  65.2649988  30.1480012  47.3144997  64.9479988
  30.0820012  47.9354997  64.0289988  30.4180012  46.2884997  64.6169988
  28.9010012  47.1954997  65.7119988  27.7990012  46.2064997  65.0969988
  26.6930012  47.1404997  64.6439988  26.9530012  48.2794997  63.7779988
  26.8820012  49.1784997  64.4269988  27.9860012  48.4784997  63.4199988
  25.9110012  48.5134997  62.6829988  24.9620012  48.7714997  63.1289988
  26.3120012  49.2864997  62.0439988  25.7040012  47.3364997  61.7889988
  27.0080012  46.7934997  61.1829988  27.5130012  47.4974997  60.5369988
  27.6310012  46.5134997  62.0189988  26.8220012  45.9514997  60.5319988
  24.9330012  46.2214997  62.5389988  24.8670012  45.3324997  61.9289988
  25.5730012  46.0464997  63.3909988  23.9260012  46.5574997  62.7379988
  24.8360012  47.8054997  60.6199988  24.5220012  47.0624997  59.9009988
  25.4180012  48.5294997  60.0709988  24.0060012  48.4104997  60.9549988
  28.3410012  45.4864997  63.8989988  27.3570012  45.3914997  66.2379988
  31.3260012  47.2514997  67.1619988  31.8170012  46.0774997  67.2789988
  32.2810012  45.4784997  66.3099988  31.8760012  45.6084997  68.6789988
  32.7240012  46.1714997  69.1239988  31.9880012  44.5044997  68.7249988
  30.5540012  45.9964997  69.4389988  29.7110012  45.6794997  68.7889988
  30.5100012  47.1054997  69.4839988  30.3600012  45.4254997  70.8869988
  30.3720012  44.3254997  70.7319988  29.3150012  45.6214997  71.2109988
  31.4720012  45.8304997  71.8729988  32.3870012  45.2234997  71.7039988
  31.0190012  45.6264997  72.8669988  31.8770012  47.2884997  71.8839988
  30.9470012  47.8944997  71.9269988  32.2970012  47.6344997  70.9159988
  32.8410012  47.7394997  73.0089988  33.5730012  48.4554997  72.5789988
  33.3830012  46.8284997  73.3409988  32.1110012  48.3314997  74.2769988
  31.8310012  49.3244997  73.8659988  32.8740012  48.4814997  75.0709988
  30.8990012  47.5974997  74.8019988  29.9160012  47.8344997  74.3689988
  30.8690012  46.7624997  75.8389988  29.9530012  46.1574997  75.9139988
  32.0720012  46.4704997  76.7049988  33.0350012  46.5604997  76.1579988
  32.0570012  45.4164997  77.0569988  32.2330012  47.3074997  78.0259988
  32.2910012  48.3784997  77.7349988  33.2560012  47.0874997  78.3979988
  31.0790012  47.0364997  79.0849988  31.0420012  45.9324997  79.1989988
  30.1230012  47.2824997  78.5739988  31.0350012  47.8334997  80.3919988
  31.9060012  47.4874997  80.9879988  30.1080012  47.4624997  80.8799988
  30.9930012  49.3504997  80.1199988  30.0700012  49.5934997  79.5509988
  31.9220012  49.5484997  79.5439988  30.9110012  50.1764997  81.4039988
  31.7400012  49.9944997  82.1209988  29.9150012  49.8854997  81.8029988
  30.8790012  51.7294997  81.3439988  31.7820012  52.0514997  80.7829988
  31.1620012  52.0614997  82.3649988  29.6920012  52.4204997  80.7289988
  28.7730012  52.0904997  81.2569988  29.6130012  52.1984997  79.6429988
  29.6810012  53.5244997  80.8569988  54.1930012  26.6714997  81.3519988
  54.2050012  26.2764997  82.3899988  53.6080012  27.6124997  81.4369988
  55.2300012  26.9484997  81.0669988  53.4510012  25.6434997  80.4669988
  53.1750012  26.1014997  79.4939988  54.1110012  24.7724997  80.2679988
  52.1790012  25.0794997  81.0589988  52.2300012  24.9394997  82.1599988
  51.4060012  25.8714997  80.9669988  51.5470012  23.7004997  80.5709988
  52.3220012  22.9114997  80.6739988  50.7220012  23.3024997  81.2009988
  50.9830012  23.7644997  79.1199988  50.0190012  24.3164997  79.0879988
  51.7650012  24.2514997  78.4999988  50.6360012  22.3204997  78.6159988
  51.5380012  21.6744997  78.6829988  49.8450012  21.8774997  79.2579988
  50.4170012  22.2124997  77.0939988  50.0770012  21.1934997  76.8089988
  49.6210012  22.9704997  76.9309988  51.5730012  22.5804997  76.1249988
  52.0520012  23.5294997  76.4509988  52.3070012  21.7494997  76.1939988
  51.2150012  22.9414997  74.6909988  50.6320012  22.0444997  74.3899988
  50.5310012  23.8144997  74.6309988  52.4520012  23.1094997  73.7939988
  53.2850012  23.5864997  74.3539988  52.8250012  22.0774997  73.6169988
  52.2200012  23.6144997  72.3749988  51.5980012  22.9034997  71.7899988
  51.5420012  24.4934997  72.3359988  53.4960012  23.8624997  71.4839988
  53.8060012  24.9024997  71.7189988  54.3320012  23.1754997  71.7339988
  53.2410012  23.4804997  69.9389988  52.1830012  23.7194997  69.6989988
  53.9300012  24.1404997  69.3699988  53.5000012  22.0204997  69.5309988
  54.5730012  21.7414997  69.4459988  53.0250012  21.3404997  70.2699988
  52.9790012  21.6734997  68.1899988  53.3330012  22.4614997  67.4899988
  53.3750012  20.6564997  67.9849988  51.4720012  21.4504997  68.2639988
  50.8810012  20.8814997  69.1779988  50.9050012  21.8924997  67.2109988
  49.5060012  21.8914997  67.0399988  49.2970012  21.2584997  66.1509988
  48.8720012  21.6644997  67.9229988  49.0480012  23.3744997  66.5709988
  47.9380012  23.3304997  66.5799988  49.4440012  23.7094997  65.1019988
  48.9870012  22.8724997  64.5319988  48.8680012  24.5984997  64.7669988
  50.8810012  23.7494997  64.8109988  51.3630012  24.1974997  63.3699988
  51.1870012  25.7304997  63.2789988  51.3020012  26.5244997  64.5379988
  50.3060012  27.0094997  64.6189988  51.4810012  25.8634997  65.4129988
  52.4270012  27.5904997  64.5429988  52.1580012  28.4464997  65.1449988
  53.2780012  27.0904997  64.9799988  53.0700012  28.0844997  63.2709988
  53.9890012  27.0434997  62.8089988  54.5220012  26.5844997  63.6279988
  53.3760012  26.2734997  62.3639988  54.6360012  27.3594997  62.0039988
  51.9970012  28.4494997  62.2489988  52.3620012  28.9074997  61.3419988
  51.5550012  27.5314997  61.8919988  51.2510012  29.0664997  62.7259988
  53.9580012  29.2684997  63.5849988  54.5060012  29.5954997  62.7129988
  54.6750012  28.9394997  64.3229988  53.3970012  30.0454997  64.0839988
  52.7660012  23.8944997  63.3189988  50.4050012  23.5764997  62.4059988
  49.6060012  24.3314997  67.4299988  49.3980012  25.6274997  67.2749988
  48.5080012  26.1624997  66.5989988  50.3550012  26.3754997  68.2039988
  50.7110012  27.3264997  67.7539988  51.2440012  25.7594997  68.4609988
  49.5790012  26.7874997  69.4339988  48.7760012  27.5174997  69.1929988
  50.2450012  27.3914997  70.0859988  49.1280012  25.6614997  70.3909988
  50.0470012  25.1524997  70.7509988  48.3840012  24.9634997  69.9519988
  48.3830012  26.1574997  71.5579988  48.2840012  25.3574997  72.3219988
  47.3300012  26.4964997  71.4619988  49.2590012  27.2354997  72.2699988
  49.1210012  28.1104997  71.5999988  50.3140012  26.8864997  72.2819988
  48.6860012  27.6394997  73.6309988  47.6000012  27.6714997  73.4009988
  48.9550012  28.6874997  73.8829988  49.1580012  26.7034997  74.6969988
  49.0360012  25.6404997  74.3969988  48.3770012  26.8244997  75.4779988
  50.5110012  26.7914997  75.2379988  51.2750012  26.0284997  75.0269988
  50.8850012  27.6884997  76.1899988  51.9030012  27.6004997  76.5969988
  50.0450012  28.7534997  76.8709988  49.1410012  28.9974997  76.2739988
  50.6370012  29.6754997  77.0519988  49.4080012  28.2454997  78.2099988
  50.2420012  28.1144997  78.9319988  49.0320012  27.2284997  77.9709988
  48.3710012  29.1784997  78.7229988  47.6130012  29.1814997  77.9099988
  48.8550012  30.1584997  78.9189988  47.6330012  28.6244997  79.9669988
  47.1420012  27.6654997  79.6949988  46.7870012  29.2604997  80.3069988
  48.5810012  28.3004997  81.1649988  49.2340012  27.4104997  81.0389988
  47.9970012  27.9694997  82.0499988  49.4690012  29.4494997  81.7149988
  48.8140012  30.2674997  82.0829988  50.2180012  29.7914997  80.9699988
  50.2070012  28.9424997  83.0029988  51.0090012  29.6724997  83.2419988
  50.8250012  28.0804997  82.6709988  49.4340012  28.7634997  84.2549988
  49.0590012  29.7444997  84.6159988  50.1470012  28.3894997  85.0209988
  48.6430012  27.9904997  84.1539988 127.0360012  52.3984997  84.5829988
 127.8960012  52.7884997  83.9979988 126.5650012  51.5744997  84.0049988
 127.5040012  52.0944997  85.5429988 125.8900012  53.4374997  84.8099988
 125.2310012  52.8164997  85.4539988 126.2300012  54.2484997  85.4879988
 125.1830012  54.0104997  83.5719988 124.4190012  54.6824997  84.0169988
 125.8360012  54.6414997  82.9309988 124.5110012  52.9934997  82.5829988
 125.0170012  52.0064997  82.5309988 123.4970012  52.8844997  83.0229988
 124.2810012  53.5604997  81.1699988 123.6180012  54.4414997  81.3099988
 125.2700012  53.8984997  80.7929988 123.5330012  52.5834997  80.2219988
 124.0780012  51.6324997  80.0439988 122.5080012  52.4284997  80.6229988
 123.2610012  53.2354997  78.8059988 122.5960012  54.0794997  79.0899988
 124.2810012  53.4444997  78.4169988 122.5370012  52.2224997  77.8779988
 123.1160012  51.2744997  77.8329988 121.5680012  52.0174997  78.3799988
 122.2920012  52.7324997  76.4019988 121.8590012  53.7534997  76.4709988
 123.2620012  52.8194997  75.8669988 121.1740012  52.0274997  75.6299988
 121.3310012  50.9284997  75.6799988 120.1720012  52.3304997  76.0009988
 121.1920012  52.3804997  74.1479988 121.1710012  53.4914997  74.1449988
 122.1030012  52.0774997  73.5889988 119.9400012  51.7314997  73.4549988
 119.7230012  50.7964997  74.0149988 119.1400012  52.4794997  73.6379988
 120.0210012  51.3444997  71.9909988 120.2390012  52.2204997  71.3429988
 120.8580012  50.6364997  71.8099988 118.7510012  50.7634997  71.3019988
 118.3960012  49.8844997  71.8819988 118.0430012  51.6194997  71.2779988
 118.9730012  50.3014997  69.8019988 119.7600012  49.5164997  69.8269988
 118.0830012  49.7274997  69.4649988 119.1730012  51.5574997  68.8699988
 118.3810012  51.8854997  68.0359988 120.4090012  51.9974997  68.9459988
 120.8870012  52.9034997  67.8319988 120.4070012  52.5974997  66.8779988
 120.5650012  53.9304997  68.1109988 122.4170012  52.8284997  67.6239988
 122.9130012  53.3974997  68.4389988 122.9380012  53.4044997  66.3109988
 122.4990012  54.4134997  66.1579988 124.0270012  53.6264997  66.3209988
 122.7190012  52.5064997  65.2329988 122.7920012  53.0124997  63.6939988
 122.3680012  51.6314997  62.8719988 123.3530012  50.9194997  62.1509988
 122.8320012  50.3434997  61.3559988 124.1150012  51.5944997  61.7049988
 124.0800012  49.8384997  63.0219988 124.9410012  49.5294997  62.4479988
 124.6190012  50.3354997  63.8139988 123.3500012  48.5544997  63.5689988
 122.1500012  48.8824997  64.3779988 121.3140012  49.3604997  63.8879988
 121.6730012  47.9914997  64.7579988 122.4980012  49.4904997  65.1999988
 122.8270012  47.8724997  62.3139988 122.1480012  48.5964997  61.8889988
 123.7090012  47.7544997  61.7009988 122.3280012  46.9394997  62.5289988
 124.3410012  47.6524997  64.2059988 125.0170012  47.3874997  63.4059988
 123.8640012  46.7504997  64.5589988 124.7550012  48.3054997  64.9599988
 121.7020012  53.9704997  63.3969988 124.1530012  53.5024997  63.3449988
 122.8670012  51.4994997  67.7359988 124.0180012  51.2314997  68.1999988
 124.7280012  51.9344997  68.8239988 124.3010012  49.7244997  67.7939988
 125.1880012  49.7364997  67.1249988 123.4850012  49.3284997  67.1519988
 124.6150012  48.7464997  68.9649988 125.5020012  49.1394997  69.5059988
 124.8950012  47.7494997  68.5619988 123.4930012  48.4244997  69.9759988
 122.6670012  47.9074997  69.4409988 123.0790012  49.3424997  70.4439988
 123.8460012  47.4824997  71.1409988 124.4570012  48.0074997  71.9059988
 124.4750012  46.7504997  70.5909988 122.5650012  46.9694997  71.7439988
 122.9050012  46.0284997  72.2259988 121.7590012  46.7074997  71.0269988
 121.9540012  47.8894997  72.8849988 121.8390012  48.9304997  72.5129988
 122.6640012  47.8624997  73.7389988 120.5520012  47.3574997  73.2929988
 119.7610012  47.4594997  72.5189988 120.2190012  48.0434997  74.1019988
 120.7400012  45.9094997  73.7899988 120.6940012  45.1124997  73.0329988
 120.9780012  45.6054997  75.0539988 121.0410012  44.5504997  75.3599988
 121.0550012  46.5644997  76.2109988 120.6920012  47.5924997  75.9989988
 122.1470012  46.7274997  76.3389988 120.4390012  45.9304997  77.5019988
 120.8640012  44.9174997  77.6679988 119.3460012  45.8444997  77.3229988
 120.7350012  46.6984997  78.8029988 120.2890012  46.0904997  79.6189988
 120.2740012  47.6994997  78.6589988 122.2530012  47.0034997  79.1349988
 122.7640012  47.7784997  78.5239988 122.6790012  46.0194997  78.8449988
 122.5990012  47.1284997  80.6189988 123.7000012  47.0524997  80.7469988
 122.1220012  46.2204997  81.0449988 122.0010012  48.3734997  81.2489988
 120.9670012  48.5544997  80.8869988 122.6390012  49.2474997  80.9939988
 121.9850012  48.2074997  82.7599988 123.0300012  48.1914997  83.1359988
 121.4250012  47.2834997  83.0169988 121.3780012  49.3804997  83.6489988
 121.3710012  49.1164997  84.7279988 120.3180012  49.5524997  83.3639988
 121.9500012  50.3324997  83.6409988 108.2140012  32.4204997  83.3099988
 108.1270012  32.7344997  82.2469988 107.7960012  33.1974997  83.9849988
 107.7500012  31.4244997  83.4759988 109.6740012  32.3134997  83.6719988
 110.2200012  33.2084997  83.3039988 109.9180012  32.0844997  84.7309988
 110.3550012  31.0744997  83.0699988 111.3460012  30.8184997  83.5019988
 109.7630012  30.2064997  83.4279988 110.4740012  31.0554997  81.5549988
 109.7670012  31.7894997  81.1119988 111.4760012  31.4584997  81.2939988
 110.1990012  29.6754997  81.0999988 110.8350012  28.9724997  81.6799988
 109.1650012  29.3364997  81.3239988 110.5050012  29.3854997  79.6189988
 109.7400012  29.8534997  78.9639988 111.5170012  29.7394997  79.3259988
 110.7690012  27.8854997  79.3579988 111.5490012  27.3814997  79.9679988
 109.8360012  27.2844997  79.4049988 111.1160012  27.7334997  77.8099988
 110.7840012  26.7304997  77.4669988 110.5410012  28.4704997  77.2089988
 112.5770012  27.7564997  77.4299988 113.0160012  28.6184997  77.9759988
 112.8740012  26.7534997  77.8049988 112.8330012  27.9734997  75.9559988
 113.7070012  27.4024997  75.5749988 111.9480012  27.6404997  75.3719988
 113.2240012  29.4314997  75.6469988 112.4270012  30.1564997  75.9159988
 114.1180012  29.7304997  76.2359988 113.6990012  29.6134997  74.2479988
 114.5880012  28.9634997  74.0999988 113.0530012  29.1294997  73.4839988
 114.1090012  31.0584997  73.9009988 113.2970012  31.8114997  73.9929988
 114.9150012  31.3124997  74.6209988 114.8130012  31.3154997  72.4739988
 115.0030012  32.4024997  72.6019988 115.8120012  30.8334997  72.5419988
 114.0210012  30.9394997  71.3519988 114.2490012  29.9034997  71.0229988
 112.9460012  31.0954997  71.5859988 114.5000012  31.8744997  70.1089988
 115.1000012  32.9364997  70.2679988 113.9730012  31.3664997  69.0269988
 113.8470012  32.1924997  67.9419988 113.1920012  33.0174997  68.2939988
 114.7690012  32.7574997  67.6849988 113.2090012  31.4714997  66.7799988
 113.9420012  30.6874997  66.4939988 112.9610012  32.4104997  65.6279988
 113.9070012  32.9564997  65.4229988 112.8220012  31.7804997  64.7229988
 111.6560012  33.0934997  65.6739988 111.1200012  33.8644997  64.4209988
 110.4480012  32.6814997  63.5829988 109.5710012  31.7314997  64.0609988
 109.4570012  31.9054997  65.1519988 108.5890012  31.8654997  63.5579988
 110.0290012  30.2484997  63.8409988 110.9310012  30.0484997  64.3999988
 109.2530012  29.5464997  64.1079988 110.2490012  29.8154997  62.4129988
 111.5210012  30.3824997  61.9039988 111.5760012  31.4414997  62.1129988
 112.3900012  29.9594997  62.3859988 111.8140012  30.1204997  60.8979988
 110.4350012  28.2774997  62.2969988 110.7870012  28.0654997  61.2979988
 111.1820012  28.0034997  63.0279988 109.4870012  27.7804997  62.4409988
 109.1440012  30.2984997  61.4979988 108.2890012  29.8274997  61.9609988
 109.3970012  30.0354997  60.4809988 109.1020012  31.3754997  61.5649988
 110.1250012  34.9034997  64.8139988 112.3170012  34.3014997  63.6759988
 111.9850012  30.8684997  67.3339988 111.5810012  29.6854997  66.9879988
 112.0920012  28.8184997  66.2829988 110.2010012  29.5094997  67.5709988
 109.7380012  28.6514997  67.0379988 109.6330012  30.4644997  67.5369988
 110.2870012  29.1814997  69.1039988 110.6450012  30.1044997  69.6089988
 110.9370012  28.3004997  69.2939988 108.8800012  28.8084997  69.6209988
 108.4390012  28.1034997  68.8839988 108.2440012  29.7104997  69.7439988
 109.0620012  28.0614997  71.0239988 109.6490012  27.1324997  70.8599988
 108.0640012  27.8344997  71.4559988 109.8040012  28.8694997  72.1279988
 110.6730012  29.3774997  71.6569988 110.0860012  28.0884997  72.8649988
 108.8140012  29.7694997  72.8399988 108.0110012  29.1014997  73.2179988
 108.2780012  30.4384997  72.1329988 109.4710012  30.4844997  74.0139988
 110.2580012  31.0964997  73.5239988 109.9740012  29.7954997  74.7259988
 108.4200012  31.3084997  74.7409988 107.4610012  31.3094997  74.2019988
 108.5160012  32.0094997  75.9319988 107.5640012  32.4024997  76.3179988
 109.6860012  32.1824997  76.8409988 110.6160012  31.6434997  76.5599988
 109.5500012  31.7634997  77.8609988 109.9100012  33.6984997  77.1459988
 109.1190012  34.2514997  77.6959988 110.0740012  34.2554997  76.1989988
 111.1190012  33.9594997  78.0729988 110.9410012  33.4024997  79.0179988
 111.0110012  35.0124997  78.4109988 112.5490012  33.6664997  77.4869988
 112.9060012  34.4974997  76.8409988 112.4760012  32.7944997  76.8029988
 113.5200012  33.1834997  78.6159988 114.4430012  32.7954997  78.1349988
 113.0090012  32.3844997  79.1929988 113.8230012  34.3384997  79.6339988
 112.8700012  34.9094997  79.6469988 114.5230012  35.0324997  79.1209988
 114.4720012  34.1104997  80.9199988 115.0090012  35.0124997  81.2839988
 115.1870012  33.2674997  80.8069988 113.5260012  33.7294997  82.0699988
 112.6880012  34.4344997  82.2639988 114.1100012  33.5604997  82.9999988
 113.1240012  32.7054997  81.9139988  87.5930012  24.8134997  79.9049988
  87.5270012  25.8324997  79.4679988  88.5950012  24.3974997  79.6679988
  87.5340012  24.8384997  81.0139988  86.4980012  23.9314997  79.2359988
  86.5530012  22.9714997  79.7919988  85.4990012  24.4134997  79.3099988
  86.7150012  23.7144997  77.7209988  87.7800012  23.4444997  77.5589988
  86.0220012  22.9734997  77.2689988  86.2390012  25.0614997  77.0399988
  85.2330012  24.9004997  76.5949988  86.2990012  25.9284997  77.7319988
  87.1560012  25.4614997  75.9009988  86.8410012  26.4324997  75.4629988
  88.1780012  25.6434997  76.2969988  87.3860012  24.5254997  74.7199988
  87.9340012  25.0324997  73.8969988  88.0180012  23.6714997  75.0429988
  86.1630012  23.8804997  73.9619988  85.6260012  23.2944997  74.7379988
  85.4900012  24.7204997  73.6869988  86.4260012  23.0584997  72.6369988
  85.9220012  23.5224997  71.7619988  87.4970012  23.2664997  72.4279988
  86.1070012  21.6274997  72.7669988  86.6210012  21.0704997  71.9549988
  86.5460012  21.1704997  73.6789988  84.6170012  21.2644997  72.7059988
  83.8670012  21.8744997  73.2529988  84.4820012  21.3044997  71.6039988
  84.3210012  19.7994997  73.0789988  84.5500012  19.6434997  74.1549988
  83.2380012  19.7774997  72.8359988  84.9940012  18.6914997  72.2799988
  86.0540012  18.5454997  72.5789988  84.4370012  17.7514997  72.4789988
  84.9660012  18.9224997  70.7889988  85.5120012  19.8504997  70.5129988
  85.5850012  18.1004997  70.3699988  83.5290012  18.9744997  70.1789988
  83.1030012  17.9574997  70.3149988  82.9490012  19.7964997  70.6499988
  83.5140012  19.4284997  68.6919988  84.2080012  18.8124997  68.0809988
  82.5720012  19.0744997  68.2209988  83.9160012  20.8894997  68.4409988
  83.7490012  21.7834997  69.3019988  84.5220012  20.9734997  67.2629988
  85.0430012  22.2294997  66.8169988  84.1950012  22.7664997  66.3409988
  85.3830012  22.8944997  67.6389988  86.2170012  22.1784997  65.8859988
  86.5510012  23.1614997  65.4909988  85.9050012  21.3264997  64.5989988
  85.1650012  20.5224997  64.7969988  85.3110012  22.0804997  64.0389988
  87.0850012  20.8304997  63.9759988  88.2200012  21.7074997  63.2199988
  88.8740012  22.6594997  64.3169988  90.0280012  23.3784997  63.9099988
  90.5660012  23.5864997  64.8589988  90.7750012  22.7554997  63.3729988
  89.6270012  24.6404997  63.0209988  90.4950012  25.2024997  62.7109988
  89.1590012  24.3394997  62.0959988  88.6540012  25.7334997  63.5869988
  88.5920012  26.7864997  62.5239988  89.5930012  27.1284997  62.3069988
  88.1360012  26.3994997  61.6239988  87.8620012  27.5144997  62.8459988
  87.2700012  25.2724997  63.9089988  86.8800012  25.9534997  64.6509988
  86.8420012  25.3244997  62.9189988  87.2780012  24.3394997  64.4539988
  89.3140012  26.3084997  64.8349988  88.8130012  27.2234997  65.1169988
  90.3450012  26.5004997  64.5779988  89.2930012  25.6444997  65.6869988
  89.2070012  20.8444997  62.5689988  87.3910012  22.5264997  62.3139988
  87.3440012  21.5764997  66.6099988  88.0650012  22.4624997  67.2759988
  87.7730012  23.6304997  67.3459988  89.2430012  21.6154997  67.8769988
  90.2320012  22.1164997  67.9399988  89.4330012  20.7564997  67.1979988
  88.8720012  20.9754997  69.2409988  87.8300012  20.6014997  69.1489988
  88.7510012  21.6254997  70.1339988  89.7210012  19.7994997  69.7409988
  90.7890012  20.0664997  69.8859988  89.8170012  18.9964997  68.9789988
  89.1290012  19.0804997  70.9639988  88.0860012  18.7524997  70.7659988
  89.0440012  19.7274997  71.8629988  90.0330012  17.8684997  71.4779988
  91.0390012  18.2824997  71.7049988  90.0280012  17.0444997  70.7329988
  89.4480012  17.2134997  72.7649988  89.9720012  16.2504997  72.9449988
  88.4060012  16.8654997  72.5999988  89.3590012  18.1034997  74.0519988
  88.7050012  17.5514997  74.7609988  88.6830012  18.9334997  73.7509988
  90.5560012  18.5344997  74.7819988  91.1870012  17.6584997  74.9959988
  90.9760012  19.7624997  75.1309988  91.9340012  19.7584997  75.6719988
  90.4000012  21.1074997  74.9159988  89.4840012  21.0514997  74.2889988
  91.1060012  21.8304997  74.4539988  89.9670012  21.8094997  76.2039988
  89.0420012  21.2964997  76.5459988  89.7840012  22.8904997  76.0289988
  90.9710012  21.6734997  77.3689988  91.9530012  22.1434997  77.1479988
  91.0760012  20.6034997  77.6519988  90.6430012  22.4164997  78.6669988
  89.9020012  21.9034997  79.3169988  90.1560012  23.4034997  78.5189988
  91.9240012  22.7904997  79.4999988  92.3350012  23.7414997  79.0999988
  92.7040012  22.0074997  79.6099988  91.5230012  23.0964997  80.9999988
  90.6940012  23.8334997  81.0599988  92.3920012  23.5074997  81.5559988
  90.8520012  21.9474997  81.7509988  90.1200012  21.3734997  81.1439988
  90.2040012  22.3374997  82.5649988  91.7520012  20.9504997  82.2659988
  91.1640012  20.0974997  82.6669988  92.4600012  21.4104997  82.9879988
  92.3720012  20.4564997  81.4879988  65.4090012 121.3044997  83.1509988
  65.7460012 121.7344997  84.1189988  66.3170012 120.9394997  82.6249988
  64.8610012 120.3744997  83.4169988  64.8200012 122.3404997  82.2329988
  63.8190012 122.5934997  82.6429988  65.4430012 123.2594997  82.1829988
  64.5980012 121.8604997  80.8219988  65.6070012 121.6444997  80.4089988
  63.9020012 120.9974997  80.7599988  63.9190012 122.9534997  79.8269988
  62.8830012 123.1524997  80.1759988  64.5750012 123.8474997  79.8999988
  63.8450012 122.6084997  78.3419988  64.8870012 122.5764997  77.9569988
  63.3900012 121.5994997  78.2459988  63.0250012 123.6064997  77.6259988
  61.9810012 123.3004997  77.8499988  63.1900012 124.6794997  77.8589988
  63.0930012 123.5174997  76.0489988  62.7350012 122.5284997  75.6929988
  62.3890012 124.3054997  75.7049988  64.4720012 123.7994997  75.4439988
  64.9200012 124.8124997  75.5249988  65.3120012 123.1644997  75.7999988
  64.4010012 123.5054997  73.8729988  63.8870012 122.5554997  73.6099988
  63.6340012 124.2444997  73.5559988  65.7870012 123.5444997  73.3859988
  66.3860012 124.3914997  73.7849988  66.2570012 122.6444997  73.8349988
  65.9310012 123.3294997  71.8629988  65.4850012 122.3714997  71.5219988
  65.6390012 124.3144997  71.4399988  67.4250012 123.1294997  71.5349988
  68.0860012 123.9604997  71.8609988  67.6710012 122.1604997  72.0199988
  67.7260012 122.8364997  70.0459988  67.1870012 121.8984997  69.7959988
  67.3210012 123.5664997  69.3119988  69.2210012 122.5484997  69.6009988
  69.9180012 123.3984997  69.7619988  69.6220012 121.6644997  70.1419988
  69.2290012 122.3154997  68.0949988  68.5430012 123.0554997  67.6269988
  70.2400012 122.5114997  67.6789988  68.7970012 120.8884997  67.6459988
  68.4490012 120.0594997  68.4179988  68.7810012 120.8544997  66.3709988
  68.3660012 119.6364997  65.6579988  69.0890012 119.4774997  64.8289988
  68.4290012 118.7664997  66.3449988  67.0060012 119.8104997  65.0369988
  66.6520012 118.8314997  64.6489988  67.1310012 120.8924997  63.9179988
  68.2110012 121.0424997  63.7029988  66.6790012 120.4584997  63.0009988
  66.7070012 122.1784997  64.3209988  65.3570012 122.8314997  63.8319988
  64.2760012 121.6844997  64.2919988  62.9140012 122.1094997  64.4499988
  62.5740012 121.6384997  65.3969988  62.8020012 123.1864997  64.6979988
  61.8670012 121.7774997  63.3029988  60.8650012 122.0304997  63.6169988
  62.1370012 122.3744997  62.4439988  61.7280012 120.3084997  62.8499988
  62.9720012 119.7954997  62.2159988  62.8840012 118.7404997  62.0029988
  63.1340012 120.3974997  61.3339988  63.7800012 119.8864997  62.9259988
  61.4910012 119.4554997  64.0149988  62.4410012 119.2014997  64.4609988
  60.8010012 119.9634997  64.6719988  60.9320012 118.5814997  63.7159988
  60.6850012 120.2874997  61.7689988  60.8620012 119.3914997  61.1919988
  60.6900012 121.1694997  61.1449988  59.7010012 120.2044997  62.2059988
  65.1040012 123.9324997  64.7689988  65.3690012 123.0594997  62.3649988
  66.0290012 120.1344997  66.0679988  65.7340012 119.2064997  66.9379988
  66.2080012 118.0684997  66.9759988  64.5830012 119.6274997  67.8659988
  63.6760012 119.4064997  67.2629988  64.6280012 120.6744997  68.2339988
  64.6520012 118.7334997  69.1529988  64.9350012 117.7074997  68.8359988
  63.5940012 118.6274997  69.4739988  65.5950012 119.1064997  70.3179988
  65.2310012 120.0644997  70.7469988  66.5870012 119.2704997  69.8459988
  65.7970012 118.0254997  71.4569988  66.0180012 116.9864997  71.1309988
  64.7620012 118.0244997  71.8609988  66.8500012 118.4634997  72.4659988
  66.5560012 119.5134997  72.6779988  67.8820012 118.4444997  72.0549988
  66.6510012 117.6144997  73.7409988  66.9230012 116.5514997  73.5649988
  65.5680012 117.7064997  73.9739988  67.5940012 118.1244997  74.8289988
  68.5470012 118.4394997  74.3509988  67.8390012 117.1844997  75.3669988
  67.0420012 119.1844997  75.6889988  66.9630012 120.1654997  75.1989988
  66.3730012 119.0254997  76.8559988  65.9690012 119.9614997  77.2699988
  65.9420012 117.7964997  77.6219988  66.0960012 117.9784997  78.7069988
  66.5210012 116.9044997  77.3009988  64.4320012 117.4544997  77.6759988
  64.3160012 116.4234997  78.0739988  63.9600012 117.4194997  76.6709988
  63.5790012 118.4664997  78.4879988  63.8450012 119.4964997  78.1649988
  64.0520012 118.2764997  79.4749988  62.1370012 118.1264997  78.4939988
  61.8650012 117.1954997  79.0349988  61.9740012 117.7554997  77.4589988
  61.2230012 119.2664997  78.8779988  60.2020012 118.8584997  78.7189988
  61.4120012 120.1084997  78.1779988  61.2110012 119.7814997  80.3639988
  62.2730012 120.0864997  80.4819988  61.0020012 119.0134997  81.1389988
  60.4630012 121.1124997  80.5749988  59.3700012 121.0894997  80.3769988
  60.7430012 121.7624997  79.7179988  60.7740012 121.7734997  81.8669988
  60.4860012 122.8434997  81.7889988  61.8780012 121.8024997  81.9799988
  60.2890012 121.2994997  82.7469988 107.9300012 104.4644997  82.6769988
 108.4540012 103.9164997  81.8649988 106.9080012 104.0274997  82.6519988
 108.3900012 104.2634997  83.6679988 107.8070012 105.9474997  82.3389988
 106.9830012 106.1544997  81.6219988 107.6440012 106.5304997  83.2699988
 109.2020012 106.4874997  81.8939988 109.1150012 107.5514997  82.2019988
 110.0550012 105.9924997  82.4059988 109.2910012 106.5044997  80.3889988
 109.0570012 105.5424997  79.8849988 108.4710012 107.1684997  80.0409988
 110.5920012 107.0184997  79.7919988 111.0450012 107.7504997  80.4939988
 111.3770012 106.2394997  79.6889988 110.3250012 107.6674997  78.4089988
 109.6410012 108.5414997  78.4549988 111.2720012 108.1064997  78.0279988
 109.8080012 106.7384997  77.3369988 108.8430012 106.2524997  77.5959988
 109.5270012 107.2934997  76.4169988 110.8250012 105.5994997  76.9709988
 110.7820012 104.8574997  77.7979988 110.3500012 105.2164997  76.0429988
 112.3000012 105.9484997  76.7969988 112.7330012 106.3704997  77.7289988
 112.7550012 104.9684997  76.5379988 112.5220012 107.0144997  75.6959988
 111.9050012 106.9424997  74.7749988 112.3160012 108.0144997  76.1339988
 114.0370012 107.0514997  75.3689988 114.6240012 107.3694997  76.2559988
 114.4150012 106.0504997  75.0679988 114.2770012 108.0164997  74.2359988
 113.6460012 107.7734997  73.3549988 113.9760012 109.0134997  74.6239988
 115.7280012 108.2094997  73.7649988 116.3280012 108.9004997  74.3959988
 116.2870012 107.2544997  73.6699988 115.7020012 108.9444997  72.3699988
 114.7210012 109.4544997  72.2659988 116.5300012 109.6824997  72.3029988
 115.7510012 107.9374997  71.2719988 116.8110012 107.6084997  71.2229988
 115.0870012 107.0604997  71.4259988 115.4980012 108.6384997  69.9379988
 115.6090012 109.8544997  69.8469988 115.1710012 107.7204997  69.0239988
 115.1240012 108.2544997  67.6979988 115.3340012 109.3434997  67.6329988
 115.7380012 107.6824997  66.9699988 113.6610012 108.1914997  67.0689988
 113.3640012 107.1494997  66.8249988 113.6360012 108.9334997  65.6849988
 114.1110012 109.9374997  65.7209988 114.3180012 108.3174997  65.0619988
 112.2780012 108.9484997  65.0239988 112.3000012 109.2814997  63.4989988
 110.8270012 108.9014997  63.1159988 109.8880012 108.3354997  64.0489988
 109.7830012 108.9054997  64.9969988 108.9600012 108.2854997  63.4419988
 110.3240012 106.8904997  64.3729988 111.3460012 106.9494997  64.7209988
 109.8330012 106.5304997  65.2649988 110.1020012 105.8044997  63.2519988
 108.6880012 105.3704997  63.0519988 108.1560012 106.2644997  62.7599988
 108.4130012 104.7374997  62.2219988 108.4080012 104.9084997  63.9869988
 110.6920012 106.3144997  61.9709988 110.7410012 105.5464997  61.2139988
 110.1160012 107.1694997  61.6499988 111.7210012 106.6014997  62.1299988
 110.8870012 104.5704997  63.6619988 111.9430012 104.7694997  63.7779988
 110.8850012 103.8044997  62.9009988 110.4610012 104.0374997  64.4989988
 112.4460012 110.7844997  63.3819988 113.3130012 108.4314997  62.8009988
 112.6300012 108.9264997  67.8449988 111.8000012 108.2194997  68.6099988
 111.9110012 107.0354997  68.9079988 110.6190012 109.1104997  69.0929988
 109.6640012 108.5424997  69.0829988 110.4760012 110.0034997  68.4479988
 110.8220012 109.5574997  70.5689988 111.8210012 110.0304997  70.6789988
 110.9320012 108.7224997  71.2939988 109.7800012 110.5424997  71.0489988
 108.7650012 110.1344997  70.8579988 109.8280012 111.4364997  70.3909988
 109.9640012 110.8744997  72.5239988 110.0320012 109.9424997  73.1259988
 109.0200012 111.4244997  72.7239988 111.1450012 111.7924997  72.7949988
 110.7810012 112.6144997  73.4479988 111.4750012 112.3274997  71.8789988
 112.3980012 111.1144997  73.3849988 112.7380012 110.3634997  72.6399988
 112.0620012 110.5494997  74.2799988 113.6300012 112.1154997  73.5709988
 113.6930012 112.6694997  72.6099988 114.4990012 111.4234997  73.5889988
 113.6550012 113.0564997  74.7529988 113.0640012 113.9694997  74.5849988
 114.3090012 112.9174997  75.8859988 114.2580012 113.7734997  76.5749988
 115.1570012 111.7024997  76.2799988 116.1540012 112.0654997  75.9519988
 114.9430012 110.6764997  75.9099988 114.9250012 111.5604997  77.7809988
 115.4610012 112.4174997  78.2409988 115.5450012 110.6624997  77.9889988
 113.5320012 111.5074997  78.2949988 112.9120012 111.0194997  77.5139988
 113.1680012 112.4974997  78.6429988 113.2490012 110.6594997  79.5579988
 113.5930012 109.6284997  79.3289988 112.1930012 110.6604997  79.9029988
 114.0570012 111.0414997  80.8469988 113.6750012 112.0444997  81.1369988
 115.0730012 111.2914997  80.4739988 113.8970012 110.2444997  82.0919988
 112.8710012 109.8204997  82.0959988 113.9570012 110.8074997  83.0479988
 114.9960012 109.1974997  82.1519988 115.9670012 109.6804997  81.9109988
 114.8260012 108.3574997  81.4449988 115.0960012 108.7514997  83.6559988
 115.0890012 109.7354997  84.1729988 116.0530012 108.2514997  83.9179988
 114.2950012 108.0764997  84.0259988 118.3050012  90.8184997  80.5779988
 118.1160012  89.8214997  81.0299988 117.4650012  90.9164997  79.8569988
 118.2170012  91.4464997  81.4909988 119.6420012  90.9514997  79.8279988
 120.4040012  90.9614997  80.6369988 119.7840012  90.0914997  79.1389988
 119.5950012  92.3224997  79.0379988 120.5650012  92.4954997  78.5239988
 118.8410012  92.2474997  78.2259988 119.2780012  93.5784997  79.9389988
 118.1850012  93.6414997  80.1279988 119.8360012  93.5284997  80.8979988
 119.6870012  94.8284997  79.1869988 119.3270012  95.7204997  79.7439988
 120.7890012  94.9654997  79.2229988 119.1930012  94.9454997  77.7159988
 119.5730012  94.1074997  77.0939988 118.0850012  94.8564997  77.6949988
 119.6880012  96.2174997  77.0349988 119.3860012  97.0824997  77.6639988
 120.7950012  96.2974997  77.0049988 119.1780012  96.5614997  75.5899988
 118.0880012  96.3544997  75.6399988 119.2800012  97.6304997  75.3049988
 119.8400012  95.7674997  74.4159988 120.9300012  95.8954997  74.5919988
 119.7380012  94.6664997  74.5189988 119.3960012  96.3774997  73.0799988
 118.5270012  95.8684997  72.6119988 119.1290012  97.4554997  73.0619988
 120.3610012  96.1314997  71.8779988 120.2270012  96.8744997  71.0629988
 121.4310012  96.2034997  72.1709988 120.0380012  94.7634997  71.2349988
 119.8160012  93.9454997  71.9529988 119.1630012  94.8794997  70.5609988
 121.1650012  94.3264997  70.2259988 122.1930012  94.2754997  70.6419988
 120.7890012  93.3394997  69.8809988 121.2980012  95.1664997  68.9199988
 120.2770012  95.2654997  68.4939988 121.5870012  96.1734997  69.2919988
 122.3960012  94.7234997  67.9299988 122.4520012  95.5004997  67.1379988
 123.3600012  94.5724997  68.4599988 122.1750012  93.3104997  67.2499988
 122.9590012  92.6874997  66.5369988 120.8980012  93.0124997  67.3729988
 120.5550012  91.7274997  66.7849988 120.8830012  91.5794997  65.7329988
 121.0320012  90.9274997  67.3899988 119.0880012  91.4804997  66.9529988
 118.9230012  90.4364997  66.6119988 118.2110012  92.4034997  66.0029988
 118.5600012  92.2894997  64.9539988 117.1760012  92.0034997  66.0589988
 118.3630012  93.7644997  66.4179988 117.6600012  94.8294997  65.5519988
 118.1330012  94.4774997  64.1259988 119.5660012  94.7934997  63.8889988
 119.8190012  95.8614997  64.0599988 120.2700012  94.1564997  64.4669988
 119.8850012  94.6544997  62.3849988 120.7560012  95.2654997  62.1969988
 120.0740012  93.5934997  62.3189988 118.9810012  95.0624997  61.2879988
 119.8030012  94.9814997  60.0509988 119.1550012  94.9844997  59.1869988
 120.3810012  95.8924997  60.0809988 120.4580012  94.1234997  60.0189988
 117.7310012  94.1234997  61.2459988 117.1000012  94.4784997  60.4449988
 118.0090012  93.2344997  60.6979988 117.3220012  93.9924997  62.2369988
 118.5650012  96.4194997  61.5499988 119.4040012  97.0754997  61.7279988
 117.8990012  96.4754997  62.3989988 118.1080012  96.7264997  60.6209988
 116.1680012  94.7064997  65.6949988 118.2720012  96.0984997  65.9809988
 118.7110012  91.7134997  68.3449988 117.4890012  91.4324997  68.7359988
 116.7110012  90.8264997  68.0079988 117.1750012  91.9274997  70.1079988
 116.6010012  92.8734997  70.0109988 118.0660012  92.2294997  70.6989988
 116.3790012  90.9494997  70.9749988 116.8170012  89.9364997  70.8419988
 115.2910012  90.8954997  70.7589988 116.5300012  91.2284997  72.4839988
 117.5270012  91.6104997  72.7919988 116.4070012  90.2884997  73.0629988
 115.4620012  92.2234997  73.1109988 114.5300012  91.8994997  72.5999988
 115.7050012  93.2324997  72.7149988 115.4620012  92.2074997  74.6429988
 116.5030012  92.4534997  74.9419988 115.2900012  91.1784997  75.0259988
 114.4330012  93.0464997  75.4399988 114.4040012  92.8724997  76.5369988
 113.4270012  92.6964997  75.1229988 114.3130012  94.5514997  75.1349988
 113.3730012  94.9104997  75.6049988 114.1000012  94.7784997  74.0679988
 115.5020012  95.2704997  75.7229988 116.3520012  95.1284997  75.0399988
 115.6280012  96.1714997  76.7129988 116.5380012  96.5964997  77.1599988
 114.3680012  96.6194997  77.5439988 113.4340012  96.3034997  77.0329988
 114.3130012  97.7234997  77.6609988 114.3520012  95.9554997  78.9549988
 113.4710012  96.3714997  79.4889988 115.3190012  96.2104997  79.4379988
 114.3540012  94.3964997  78.9359988 115.2650012  94.0534997  78.4019988
 113.4260012  94.1754997  78.3669988 114.1480012  93.7804997  80.2939988
 113.9950012  92.6854997  80.1869988 113.1890012  94.0804997  80.7669988
 115.2980012  93.9864997  81.1669988 115.1430012  95.0384997  81.4889988
 116.1920012  94.0114997  80.5069988 115.5520012  93.0054997  82.3569988
 116.5660012  93.2154997  82.7609988 115.3890012  91.9464997  82.0609988
 114.6430012  93.2994997  83.5759988 113.5660012  93.1864997  83.3269988
 114.8770012  94.3304997  83.9169988 114.8880012  92.3184997  84.7009988
 115.9700012  92.3574997  84.9469988 114.7320012  91.2314997  84.5329988
 114.3470012  92.5934997  85.6309988  19.2070012  70.2074997  80.1719988
  20.1340012  69.7104997  80.5309988  19.3370012  71.2974997  80.3419988
  19.1360012  69.9784997  79.0869988  18.0520012  69.6854997  81.0989988
  18.1650012  68.5804997  81.1029988  18.1830012  70.2394997  82.0529988
  16.6610012  70.0914997  80.5759988  15.9500012  69.5564997  81.2409988
  16.5350012  71.1814997  80.7529988  16.2420012  69.5994997  79.1509988
  15.1400012  69.4724997  79.2159988  16.4720012  70.2754997  78.2989988
  16.7890012  68.1674997  78.6819988  17.8200012  68.0724997  79.0849988
  16.0720012  67.4414997  79.1189988  16.7370012  68.0854997  77.1589988
  17.3870012  68.8894997  76.7539988  17.0170012  67.0874997  76.7599988
  15.2450012  68.1134997  76.6969988  14.6030012  67.3114997  77.1189988
  14.6950012  69.0204997  77.0279988  15.0890012  68.0874997  75.1549988
  15.2310012  69.1274997  74.7899988  15.9190012  67.4734997  74.7439988
  13.7230012  67.5114997  74.6849988  13.5900012  66.4354997  74.9259988
  12.8720012  68.0604997  75.1409988  13.5620012  67.6924997  73.2039988
  12.6210012  67.2124997  72.8599988  13.3950012  68.7444997  72.8909988
  14.7570012  67.1814997  72.3809988  15.5800012  67.9224997  72.4719988
  15.0910012  66.2084997  72.7989988  14.4540012  66.9274997  70.8789988
  15.3790012  66.6004997  70.3579988  13.7920012  66.0354997  70.8669988
  13.7530012  68.2054997  70.3479988  12.7560012  68.4144997  70.7919988
  14.4200012  69.0664997  70.5669988  13.4440012  68.0694997  68.7789988
  14.4110012  67.9864997  68.2379988  12.7970012  67.1954997  68.5519988
  12.6840012  69.2484997  68.2639988  12.4530012  69.2794997  67.1779988
  11.7980012  69.3834997  68.9209988  13.4440012  70.5094997  68.5349988
  13.5830012  70.9374997  69.6439988  13.8890012  70.9624997  67.3569988
  14.8360012  72.1074997  67.4329988  14.6740012  72.7534997  66.5439988
  14.6280012  72.7364997  68.3249988  16.3150012  71.5774997  67.2959988
  17.0750012  72.3784997  67.4239988  16.5310012  70.9244997  65.9089988
  15.9980012  71.6084997  65.2149988  17.6090012  71.0084997  65.6519988
  16.0230012  69.5714997  65.8709988  15.0750012  69.1464997  64.5939988
  16.1670012  69.0074997  63.4899988  17.4560012  68.3834997  63.7749988
  18.0430012  69.3234997  63.8439988  17.5450012  68.0244997  64.8229988
  17.9960012  67.4414997  62.7029988  18.2330012  68.0964997  61.8779988
  18.9530012  67.0464997  63.0089988  17.1610012  66.1974997  62.2309988
  16.9250012  65.2514997  63.3699988  16.9890012  65.7314997  64.3349988
  15.9600012  64.8264997  63.1349988  17.7240012  64.5394997  63.5129988
  15.9410012  66.7534997  61.6869988  15.1580012  66.0494997  61.4479988
  15.3400012  67.3494997  62.3569988  16.1370012  67.3864997  60.8339988
  18.1020012  65.5224997  61.2209988  18.8760012  65.0184997  61.7809988
  18.5410012  66.1944997  60.4979988  17.5310012  64.7494997  60.7289988
  14.5090012  67.8574997  64.9059988  14.1550012  70.2584997  64.3329988
  16.4180012  70.6724997  68.3479988  17.5060012  69.9514997  68.4539988
  18.3220012  69.6264997  67.6249988  17.6940012  70.0764997  70.0219988
  16.7520012  69.7794997  70.5299988  17.8820012  71.1614997  70.1639988
  18.8220012  69.0704997  70.4239988  19.8070012  69.5804997  70.3719988
  18.9930012  68.1704997  69.7949988  18.5770012  68.6664997  71.9209988
  17.8990012  67.7884997  71.9799988  18.1320012  69.4684997  72.5469988
  19.9310012  68.3104997  72.6929988  20.6350012  69.1664997  72.6149988
  20.4030012  67.4174997  72.2289988  19.5870012  68.0404997  74.1989988
  18.7370012  67.3254997  74.2119988  19.2380012  69.0194997  74.5929988
  20.8110012  67.4134997  74.8539988  21.6140012  68.1804997  74.8989988
  20.9950012  66.3724997  74.5119988  20.4540012  67.1824997  76.3589988
  19.4430012  66.7234997  76.3209988  20.3290012  68.1934997  76.8029988
  21.4570012  66.5224997  77.1239988  22.3490012  67.1564997  77.2339988
  21.3020012  65.2684997  77.6549988  22.1320012  64.9564997  78.3069988
  20.1760012  64.2454997  77.5889988  20.5590012  63.2924997  77.1639988
  19.3890012  64.6294997  76.9059988  19.6440012  63.8144997  78.9589988
  20.4950012  63.3964997  79.5389988  18.9360012  62.9914997  78.7209988
  18.8670012  64.9004997  79.7259988  18.1270012  65.4304997  79.0879988
  19.6180012  65.6434997  80.0669988  18.1130012  64.5174997  81.0339988
  18.8100012  64.0154997  81.7389988  17.3210012  63.7904997  80.7529988
  17.5900012  65.7894997  81.7569988  17.2900012  66.5964997  81.0539988
  18.5020012  66.1264997  82.2939988  16.2870012  65.5544997  82.5919988
  16.6670012  65.1054997  83.5339988  15.6570012  64.7494997  82.1549988
  15.3850012  66.8144997  82.9289988  14.3950012  66.5824997  83.3769988
  15.1450012  67.2744997  81.9469988  15.8140012  68.0024997  83.8179988
  15.9860012  67.6144997  84.8449988  14.9230012  68.6544997  83.9439988
  16.6450012  68.6624997  83.4899988  75.1400012  20.4194997  80.5929988
  76.2150012  20.6884997  80.6679988  74.9970012  20.0784997  79.5449988
  74.9660012  19.6444997  81.3689988  74.1870012  21.6014997  80.8369988
  73.1340012  21.2994997  81.0249988  74.5860012  22.0634997  81.7649988
  74.1360012  22.6464997  79.7439988  73.8840012  22.1884997  78.7639988
  73.2380012  23.2524997  79.9899988  75.3850012  23.4694997  79.4779988
  75.5470012  24.0174997  80.4309988  76.1980012  22.7134997  79.4209988
  75.3080012  24.4114997  78.3329988  76.0140012  25.2674997  78.3779988
  75.6850012  23.8644997  77.4419988  73.9480012  25.1874997  78.0459988
  73.0610012  24.5864997  77.7529988  73.8320012  25.6684997  79.0399988
  74.2340012  26.2204997  76.9459988  73.5590012  27.0654997  77.1999988
  75.2640012  26.6264997  77.0359988  74.0260012  25.7664997  75.5449988
  74.7370012  24.9464997  75.3069988  73.0710012  25.2214997  75.3919988
  74.2400012  26.8774997  74.4589988  73.4800012  27.6634997  74.6579988
  75.2640012  27.2804997  74.6109988  74.0210012  26.4184997  72.9919988
  73.0590012  25.8654997  72.9449988  74.0650012  27.3664997  72.4139988
  75.1460012  25.6344997  72.3309988  76.0480012  26.2834997  72.3519988
  75.4380012  24.7664997  72.9609988  74.7580012  25.1704997  70.8969988
  73.8230012  24.5724997  70.9469988  74.5860012  26.0594997  70.2519988
  75.8520012  24.2594997  70.2259988  76.1700012  23.4194997  70.8789988
  75.4880012  23.8734997  69.2499988  77.0940012  25.0524997  69.8679988
  76.7430012  26.0274997  69.4659988  77.7470012  25.3634997  70.7109988
  78.0080012  24.3474997  68.7679988  77.4540012  24.5934997  67.8369988
  79.0300012  24.7514997  68.6049988  78.1740012  22.7854997  68.9549988
  78.1310012  22.2194997  70.0379988  78.3840012  22.1384997  67.7969988
  78.3160012  20.7064997  67.7589988  79.0790012  20.4264997  67.0009988
  78.6710012  20.2624997  68.7139988  76.9660012  20.2644997  67.2899988
  76.9660012  19.1554997  67.3529988  76.7590012  20.6724997  65.8679988
  77.4750012  20.1664997  65.1859988  75.7790012  20.2634997  65.5409988
  76.7440012  22.0774997  65.7789988  75.3770012  22.9394997  65.6229988
  75.0520012  22.7784997  64.1269988  76.0230012  22.6634997  63.1389988
  77.0810012  22.6554997  63.4799988  75.8050012  21.7544997  62.5389988
  75.9580012  23.9074997  62.1589988  76.2460012  24.7654997  62.7489988
  76.7170012  23.7154997  61.4149988  74.6740012  24.2624997  61.4619988
  73.6170012  24.7054997  62.4699988  73.9030012  25.5634997  63.0599988
  72.6440012  24.7244997  62.0019988  73.6040012  23.8914997  63.1799988
  75.0430012  25.3084997  60.4199988  76.0930012  25.2264997  60.1769988
  74.4930012  25.0174997  59.5369988  74.7560012  26.2604997  60.8419988
  74.1510012  23.0824997  60.7109988  73.8920012  22.2674997  61.3709988
  74.6360012  22.8534997  59.7729988  73.1580012  23.3874997  60.4169988
  74.3320012  22.1644997  66.3319988  75.6010012  24.3224997  65.9589988
  75.9660012  20.7624997  68.2189988  75.0930012  19.8104997  68.6399988
  75.1820012  18.6144997  68.5599988  73.9770012  20.5454997  69.3239988
  73.3210012  20.9334997  68.5159988  74.4560012  21.3684997  69.8969988
  73.0940012  19.6284997  70.2419988  72.6310012  18.7854997  69.6859988
  72.2690012  20.3244997  70.5079988  73.7350012  18.9944997  71.5369988
  74.5850012  18.2974997  71.3739988  72.8190012  18.4844997  71.9019988
  74.2060012  20.0444997  72.5819988  73.8920012  19.7234997  73.5979988
  73.6020012  20.9624997  72.4119988  75.7040012  20.5174997  72.5019988
  75.8010012  21.1174997  71.5719988  76.4140012  19.6634997  72.4729988
  76.1000012  21.5614997  73.6199988  75.8000012  21.0984997  74.5839988
  75.5230012  22.4924997  73.4349988  77.5680012  21.9924997  73.5289988
  77.6570012  22.6464997  74.4229988  77.8330012  22.6694997  72.6889988
  78.4410012  20.7954997  73.6869988  78.9220012  20.3934997  72.7829988
  78.5840012  19.9794997  74.7609988  79.2060012  19.0744997  74.7009988
  77.8820012  20.1244997  76.0859988  77.3030012  19.2224997  76.3769988
  77.1910012  20.9944997  76.0559988  78.8480012  20.3484997  77.2519988
  79.4000012  21.2884997  77.0369988  79.5870012  19.5294997  77.3839988
  77.9980012  20.3004997  78.5669988  77.2260012  19.5264997  78.3679988
  77.4490012  21.2474997  78.7559988  78.7900012  20.0974997  79.8449988
  79.4370012  19.1944997  79.8289988  78.1630012  19.9144997  80.7439988
  79.8270012  21.1644997  80.2049988  80.4640012  21.2214997  79.2969988
  80.4660012  20.8914997  81.0719988  79.1950012  22.5014997  80.6299988
  78.6370012  22.3944997  81.5849988  78.4730012  22.7264997  79.8169988
  80.0550012  23.7594997  80.8189988  80.5370012  24.0024997  79.8479988
  80.9470012  23.5764997  81.4539988  79.4140012  25.0044997  81.4109988
  78.7540012  24.7424997  82.2659988  78.7920012  25.4854997  80.6269988
  80.2050012  25.7364997  81.6809988  35.1770012 115.1964997  82.0319988
  35.1610012 116.1924997  82.5239988  36.0440012 114.5954997  82.3779988
  34.2950012 114.6574997  82.4409988  34.9700012 115.3654997  80.5539988
  34.0050012 115.8654997  80.3259988  35.7380012 116.0624997  80.1569988
  35.0850012 113.9764997  79.7519988  35.9150012 113.3524997  80.1479988
  34.1440012 113.3874997  79.8079988  35.4450012 114.2364997  78.2669988
  35.6860012 115.3194997  78.2169988  36.3860012 113.7034997  78.0129988
  34.4770012 113.8864997  77.2109988  33.5090012 114.3924997  77.4129988
  34.8400012 114.2814997  76.2389988  34.1570012 112.4264997  76.8079988
  35.0430012 112.0364997  76.2639988  33.9360012 111.7144997  77.6319988
  32.9340012 112.2234997  75.9059988  32.0330012 112.1574997  76.5529988
  32.8710012 113.1734997  75.3329988  33.0570012 110.9574997  75.0649988
  33.3390012 110.0974997  75.7089988  32.0710012 110.7914997  74.5809988
  34.0420012 110.9614997  73.8109988  34.9810012 111.3964997  74.2159988
  34.2460012 109.9034997  73.5389988  33.4070012 111.7124997  72.6619988
  32.3900012 111.2834997  72.5289988  33.1690012 112.7494997  72.9799988
  34.0850012 111.7854997  71.2379988  35.1600012 112.0624997  71.2169988
  34.1010012 110.7824997  70.7609988  33.2640012 112.6824997  70.2899988
  32.1820012 112.4314997  70.3339988  33.3700012 113.7644997  70.5189988
  33.5880012 112.6174997  68.7489988  33.6360012 111.5474997  68.4539988
  32.8000012 113.1884997  68.2119988  34.9490012 113.1094997  68.3859988
  34.9970012 114.1584997  68.7509988  35.6410012 112.4524997  68.9539988
  35.2370012 113.1264997  66.8369988  34.8730012 112.2254997  66.2979988
  34.5620012 113.9094997  66.4299988  36.6970012 113.5994997  66.5459988
  37.5300012 113.8354997  67.3669988  36.6670012 113.9084997  65.2399988
  37.9390012 114.0324997  64.5869988  37.9760012 114.7954997  63.7799988
  38.7190012 114.4214997  65.2759988  38.4210012 112.7084997  64.0009988
  39.5030012 112.8734997  63.8089988  37.6460012 112.4324997  62.6359988
  37.6390012 113.3894997  62.0719988  38.3270012 111.8034997  62.0229988
  36.4350012 111.7584997  62.7979988  35.0490012 112.3554997  62.2819988
  34.0040012 111.1254997  62.3649988  34.3410012 109.7274997  62.5649988
  33.5940012 109.0534997  62.0929988  35.3840012 109.5664997  62.2169988
  34.3610012 109.3184997  64.1019988  34.7480012 108.3104997  64.1409988
  35.0560012 109.9524997  64.6319988  33.0420012 109.4804997  64.8549988
  33.1050012 108.6964997  66.1329988  33.3270012 107.6434997  66.0399988
  33.9070012 109.1514997  66.6949988  32.1600012 108.7524997  66.6519988
  32.6290012 110.8964997  65.1219988  32.8280012 111.2734997  64.1299988
  31.6290012 110.9314997  65.5279988  33.2920012 111.4284997  65.7879988
  31.9770012 108.8204997  64.1029988  31.6800012 109.3284997  63.1969988
  31.1400012 108.7754997  64.7839988  32.3910012 107.8734997  63.7889988
  34.5620012 113.4974997  63.0619988  35.2250012 112.6664997  60.7939988
  38.2610012 111.7464997  64.9929988  38.5320012 110.5144997  64.7169988
  39.2520012 110.1414997  63.8269988  37.9670012 109.5114997  65.6989988
  38.3090012 108.5024997  65.3849988  36.8720012 109.4224997  65.5349988
  38.4370012 109.7734997  67.1029988  37.9050012 110.6714997  67.4839988
  39.4780012 110.1164997  67.2789988  38.1150012 108.5724997  68.0279988
  38.9550012 107.8524997  68.1259988  37.3400012 107.9134997  67.5809988
  37.7940012 109.0594997  69.4659988  37.3950012 108.2344997  70.0949988
  36.9220012 109.7484997  69.4619988  38.8980012 109.6784997  70.2869988
  39.4590012 110.3694997  69.6209988  39.5090012 108.8084997  70.6109988
  38.5020012 110.4724997  71.5199988  37.8030012 109.8334997  72.1009988
  37.9990012 111.3974997  71.1669988  39.6580012 110.9794997  72.3419988
  40.3740012 111.4704997  71.6479988  40.2130012 110.1424997  72.8179988
  39.1580012 112.0504997  73.3269988  38.6050012 112.8504997  72.8129988
  39.2570012 112.0804997  74.6619988  38.7540012 112.9204997  75.1629988
  39.9050012 111.0364997  75.5019988  40.5350012 111.5364997  76.2679988
  40.4300012 110.2814997  74.8789988  38.7900012 110.1724997  76.2039988
  39.2850012 109.3694997  76.7909988  38.0360012 109.7504997  75.5049988
  38.0300012 110.9354997  77.3609988  37.5620012 111.8724997  76.9909988
  38.8120012 111.1064997  78.1309988  36.8580012 110.0314997  78.0469988
  36.2080012 109.9004997  77.1559988  36.3270012 110.6064997  78.8359988
  37.3060012 108.6894997  78.5859988  37.9210012 108.7324997  79.5109988
  37.6900012 108.1404997  77.6999988  36.0060012 107.9324997  79.1669988
  36.2400012 106.8494997  79.0769988  35.1390012 108.1654997  78.5119988
  35.7960012 108.3384997  80.6539988  35.9560012 109.4284997  80.7969988
  36.5280012 107.8604997  81.3379988  34.4100012 107.9034997  81.2729988
  33.6030012 108.6334997  81.0459988  34.4290012 107.8874997  82.3829988
  34.1200012 106.8664997  80.9969988  14.1520012  76.7654997  82.1589988
  14.1670012  77.0394997  83.2359988  14.9460012  77.3474997  81.6439988
  14.3610012  75.6834997  82.0209988  12.8350012  77.1544997  81.6149988
  12.0560012  76.7104997  82.2699988  12.7870012  78.2624997  81.6899988
  12.6430012  76.8954997  80.1409988  13.5160012  77.3544997  79.6299988
  12.6460012  75.7984997  79.9639988  11.2730012  77.4254997  79.5859988
  10.4480012  77.2734997  80.3139988  11.3270012  78.5204997  79.4049988
  10.8710012  76.6684997  78.3079988  10.5950012  75.6224997  78.5579988
  10.0050012  77.1454997  77.8019988  11.9510012  76.7584997  77.1369988
  11.3110012  76.9564997  76.2509988  12.5690012  77.6504997  77.3759988
  12.7380012  75.4534997  76.9399988  13.3810012  75.3464997  77.8399988
  12.1410012  74.5374997  76.7449988  13.7650012  75.4674997  75.8149988
  14.4830012  76.2894997  76.0249988  14.4020012  74.5594997  75.8699988
  13.2420012  75.6174997  74.3789988  12.4370012  76.3654997  74.2129988
  14.1410012  75.8944997  73.7889988  12.7800012  74.2324997  73.6539988
  13.6870012  73.7044997  73.2899988  12.3480012  73.5774997  74.4409988
  11.9150012  74.4094997  72.4729988  11.8570012  73.5504997  71.7719988
  10.8780012  74.6644997  72.7809988  12.3810012  75.5264997  71.5069988
  12.2260012  76.4204997  72.1479988  13.4350012  75.4224997  71.1729988
  11.5220012  75.6134997  70.3139988  11.7890012  74.8774997  69.5249988
  10.4730012  75.4764997  70.6559988  11.7000012  77.0354997  69.6219988
  11.2710012  77.8364997  70.2609988  12.8000012  77.1064997  69.4839988
  11.1170012  77.1044997  68.2249988  11.6900012  76.4454997  67.5379988
  10.1120012  76.6324997  68.2779988  10.9060012  78.5544997  67.7449988
  11.3190012  79.5284997  68.3479988  10.3690012  78.4994997  66.5179988
  10.4150012  79.8094997  65.8359988   9.4040012  79.9284997  65.3909988
  10.6850012  80.6694997  66.4859988  11.4470012  79.9084997  64.6389988
  11.2780012  80.9444997  64.2749988  11.4320012  78.7834997  63.6179988
  10.5080012  78.5374997  63.0519988  12.1090012  79.1054997  62.7979988
  11.8220012  77.4914997  64.1739988  12.8660012  76.5694997  63.3919988
  14.2020012  77.3814997  63.5239988  15.0850012  77.3424997  64.6579988
  14.8830012  78.1314997  65.4139988  14.9560012  76.4024997  65.2359988
  16.6030012  77.4534997  64.3409988  16.7660012  78.4874997  64.0769988
  17.1310012  77.1574997  65.2349988  17.2250012  76.5994997  63.2789988
  16.9470012  75.1124997  63.5839988  17.4540012  74.8884997  64.5109988
  15.8910012  74.9684997  63.7619988  17.2470012  74.5224997  62.7309988
  16.5880012  76.8644997  61.9379988  15.6120012  76.4114997  61.8469988
  16.5340012  77.9124997  61.6809988  17.2830012  76.4364997  61.2309988
  18.6960012  76.8684997  63.1819988  19.2590012  76.2924997  62.4619988
  19.0890012  76.6514997  64.1639988  18.8510012  77.9264997  63.0329988
  12.8400012  75.2954997  64.1219988  12.3900012  76.4974997  61.9859988
  12.7410012  79.7974997  65.2229988  13.1980012  80.9594997  65.6549988
  12.7480012  82.0874997  65.5359988  14.5480012  80.7684997  66.3659988
  15.1200012  81.6874997  66.6159988  15.2620012  80.2284997  65.7069988
  14.2720012  80.0224997  67.6649988  13.7130012  79.0934997  67.4249988
  13.5850012  80.5624997  68.3509988  15.5850012  79.7944997  68.3809988
  16.2310012  80.6984997  68.3619988  16.0660012  78.9954997  67.7779988
  15.3900012  79.3254997  69.8959988  14.9260012  78.3164997  69.9399988
  14.8000012  80.0564997  70.4899988  16.7470012  79.2394997  70.6689988
  17.1870012  80.2584997  70.6369988  17.4540012  78.4984997  70.2389988
  16.4550012  78.8584997  72.0559988  16.1370012  77.7944997  72.0189988
  15.6860012  79.4904997  72.5489988  17.7290012  78.8084997  72.8809988
  18.6440012  78.4564997  72.3579988  17.4600012  78.0484997  73.6449988
  18.1360012  80.1324997  73.5779988  18.3940012  80.9504997  72.8899988
  18.1840012  80.3354997  74.9309988  18.5610012  81.3274997  75.2179988
  17.8700012  79.4024997  76.0949988  18.8040012  78.9804997  76.5229988
  17.2620012  78.5194997  75.8019988  17.0410012  80.0824997  77.3219988
  17.5110012  81.0834997  77.4249988  17.2940012  79.4244997  78.1819988
  15.5400012  80.2784997  77.1339988  15.2900012  79.4284997  76.4639988
  15.3250012  81.2084997  76.5649988  14.6900012  80.3774997  78.3909988
  14.5500012  79.3604997  78.8169988  13.7150012  80.8624997  78.1729988
  15.3150012  81.2114997  79.5539988  15.3810012  82.2474997  79.1599988
  16.2830012  80.7234997  79.8009988  14.3080012  81.0804997  80.7689988
  13.8740012  80.0784997  80.5649988  13.4790012  81.8004997  80.5969988
  14.9510012  81.1444997  82.1499988  15.3010012  82.1934997  82.2529988
  15.7790012  80.4234997  82.3179988  13.9020012  80.8244997  83.1799988
  13.0780012  81.5644997  83.0909988  14.4230012  81.0104997  84.1429988
  13.5360012  79.7984997  82.9609988  81.3010012 124.2464997  81.0809988
  82.2660012 124.1004997  81.6129988  80.5520012 123.9474997  81.8449988
  81.0940012 125.2944997  80.7779988  81.1780012 123.3064997  79.9999988
  82.0730012 123.4664997  79.3609988  81.3700012 122.2534997  80.2949988
  79.9020012 123.4124997  79.1549988  79.0100012 123.2214997  79.7899988
  79.9140012 124.4054997  78.6579988  79.8380012 122.3544997  78.0889988
  80.8020012 122.4314997  77.5419988  79.7580012 121.4124997  78.6719988
  78.5080012 122.3304997  77.2429988  77.5980012 122.4294997  77.8729988
  78.7260012 123.2804997  76.7099988  78.4720012 121.1734997  76.2879988
  79.1280012 121.3564997  75.4099988  78.7700012 120.3044997  76.9129988
  77.0230012 121.0654997  75.8579988  76.4690012 120.5824997  76.6909988
  76.6060012 121.9914997  75.4069988  76.8260012 119.9244997  74.7489988
  77.3300012 119.0184997  75.1479988  75.7350012 119.7184997  74.7909988
  77.2930012 120.3364997  73.3399988  77.2250012 121.4434997  73.2839988
  78.3680012 120.0614997  73.2859988  76.5620012 119.6634997  72.1329988
  76.5260012 118.5524997  72.1509988  75.5250012 120.0604997  72.1699988
  77.2530012 120.0574997  70.7869988  78.3620012 120.0364997  70.8429988
  76.9270012 119.2874997  70.0559988  76.8140012 121.5274997  70.4629988
  75.7030012 121.5444997  70.4459988  77.2140012 122.1184997  71.3149988
  77.2720012 121.9544997  69.1089988  78.3760012 122.0704997  69.1329988
  77.0580012 121.1374997  68.3869988  76.6790012 123.3054997  68.5899988
  76.6630012 123.9604997  69.4869988  77.4120012 123.7674997  67.8939988
  75.2780012 123.2124997  67.8029988  75.4180012 122.3494997  67.1169988
  74.4740012 122.9734997  68.5319988  74.9870012 124.5064997  67.0879988
  75.4650012 125.5864997  67.3519988  74.1190012 124.3714997  66.0279988
  73.8360012 125.5694997  65.3189988  72.8820012 125.4964997  64.7529988
  73.6660012 126.4244997  66.0079988  74.9040012 125.9204997  64.2409988
  74.4700012 126.7634997  63.6609988  75.1820012 124.7574997  63.1869988
  74.1780012 124.3074997  63.0319988  75.3740012 125.1474997  62.1649988
  76.1600012 123.8104997  63.5819988  76.3780012 122.5164997  62.7359988
  77.5950012 121.8814997  63.4869988  77.8210012 122.3484997  64.7949988
  76.8770012 122.5074997  65.3589988  78.4220012 121.6454997  65.4119988
  78.7650012 123.5914997  64.7239988  78.1380012 124.3904997  64.3579988
  79.0420012 123.9894997  65.6889988  79.9630012 123.5544997  63.8349988
  79.7010012 123.8514997  62.3769988  80.5400012 123.6274997  61.7339988
  78.8550012 123.2944997  62.0029988  79.5080012 124.9094997  62.2769988
  80.9780012 124.5994997  64.3189988  81.2530012 124.2334997  65.2969988
  81.8530012 124.6074997  63.6849988  80.6360012 125.6234997  64.3349988
  80.6120012 122.2034997  63.9419988  79.9810012 121.5314997  63.3789988
  80.8690012 121.8884997  64.9429988  81.5630012 122.2014997  63.4299988
  75.2740012 121.6154997  63.0589988  76.6920012 122.8594997  61.3239988
  76.0790012 126.3554997  64.8699988  76.8280012 127.2824997  64.2559988
  76.6230012 127.6544997  63.1239988  78.0940012 127.6544997  65.1019988
  77.9740012 128.7304997  65.3499988  78.9190012 127.4304997  64.3919988
  78.2900012 126.8224997  66.4279988  78.2170012 125.7444997  66.1689988
  77.4110012 127.1124997  67.0429988  79.4720012 127.1824997  67.2619988
  79.3520012 128.1854997  67.7259988  80.4060012 127.0804997  66.6699988
  79.9410012 126.1214997  68.2509988  81.0180012 125.8974997  68.0939988
  79.4880012 125.1534997  67.9459988  79.7240012 126.3884997  69.7629988
  80.4450012 127.1504997  70.1279988  80.0890012 125.4984997  70.3199988
  78.2510012 126.7684997  70.1089988  77.5050012 126.1494997  69.5649988
  78.1440012 127.7014997  69.5149988  77.8450012 126.8154997  71.6469988
  76.8420012 127.2924997  71.6599988  78.3720012 127.5624997  72.2789988
  77.9270012 125.4184997  72.2739988  78.9230012 124.9604997  72.3649988
  76.7600012 124.8414997  72.6489988  76.8070012 123.8524997  73.1279988
  75.3420012 125.3914997  72.6229988  74.9210012 125.4414997  71.5959988
  75.3040012 126.4334997  73.0059988  74.1340012 124.7174997  73.3129988
  73.7460012 124.0184997  72.5419988  73.4100012 125.5574997  73.3879988
  74.4460012 124.2744997  74.7469988  75.3450012 123.6224997  74.7099988
  73.6970012 123.6424997  75.2719988  74.8810012 125.3934997  75.6739988
  73.9610012 125.9434997  75.9679988  75.6470012 126.1224997  75.3349988
  75.4910012 124.8774997  77.0199988  75.8550012 125.7234997  77.6419988
  76.4950012 124.4224997  76.8849988  74.5230012 124.0294997  77.8509988
  74.3690012 123.0754997  77.3019988  73.5790012 124.6114997  77.9229988
  74.9700012 123.6234997  79.2339988  75.9770012 123.1554997  79.1949988
  74.2720012 122.8534997  79.6239988  74.9320012 124.7674997  80.3259988
  73.8890012 125.1414997  80.4159988  75.5780012 125.6494997  80.1289988
  75.3560012 124.4244997  81.2939988  39.7470012  33.4774997  81.8189988
  40.2790012  33.3934997  80.8479988  39.0300012  32.6354997  81.9319988
  40.3500012  33.5954997  82.7449988  38.8480012  34.7564997  81.5459988
  38.2860012  34.9114997  82.4909988  39.5070012  35.6164997  81.3009988
  37.8360012  34.6114997  80.3499988  38.2910012  33.9734997  79.5619988
  36.9280012  34.0394997  80.6369988  37.4460012  35.9444997  79.7029988
  36.7640012  36.3874997  80.4599988  38.3780012  36.5374997  79.5879988
  36.6800012  35.8054997  78.3819988  36.8440012  34.8234997  77.8889988
  35.5920012  35.7654997  78.6029988  37.0200012  37.0264997  77.4919988
  36.5640012  37.9714997  77.8559988  38.1300012  37.0844997  77.4849988
  36.7820012  36.7334997  75.9659988  37.1830012  35.7154997  75.7719988
  35.6750012  36.6354997  75.9329988  37.2490012  37.8404997  75.0459988
  36.8500012  38.8394997  75.3259988  38.3560012  37.9234997  75.0809988
  37.0650012  37.7114997  73.4719988  36.0450012  38.0344997  73.1729988
  37.9430012  38.2494997  73.0539988  37.1790012  36.1964997  73.0569988
  38.1700012  35.8534997  73.4259988  36.3350012  35.6444997  73.5229988
  37.1160012  36.1074997  71.4929988  36.0560012  35.8984997  71.2319988
  37.4170012  37.1064997  71.1119988  38.0250012  35.0584997  70.9089988
  39.0220012  35.0914997  71.3979988  37.7140012  34.0124997  71.1199988
  38.1700012  35.1644997  69.3299988  38.4080012  34.1224997  69.0269988
  37.1300012  35.3934997  69.0129988  39.2300012  36.1684997  68.9059988
  38.8710012  37.1484997  69.2869988  40.2440012  35.9464997  69.3019988
  39.3170012  36.3754997  67.3369988  38.3310012  36.4634997  66.8329988
  39.9210012  37.2944997  67.1779988  40.0990012  35.2834997  66.6579988
  40.6910012  34.4604997  67.3149988  40.0110012  35.3204997  65.3149988
  40.6720012  34.2524997  64.5799988  41.3510012  34.6794997  63.8109988
  41.4200012  33.7544997  65.2319988  39.6790012  33.2064997  63.9859988
  40.2850012  32.4104997  63.5019988  38.7800012  33.8384997  62.9239988
  38.0580012  34.5814997  63.3259988  39.5090012  34.4714997  62.3729988
  38.1650012  32.9364997  62.0869988  36.6980012  33.0184997  61.6369988
  36.0770012  33.9154997  62.8129988  35.6320012  33.2454997  64.0179988
  35.1990012  32.2524997  63.7749988  36.4910012  33.0154997  64.6829988
  34.6000012  34.0834997  64.7929988  33.6440012  33.9404997  64.3109988
  34.3860012  33.7954997  65.8119988  34.8180012  35.5944997  65.0659988
  34.6820012  36.4054997  63.8379988  34.6050012  37.4724997  63.9829988
  35.6080012  36.3644997  63.2829988  34.0000012  35.9724997  63.1209988
  33.8130012  35.9894997  66.0929988  33.9530012  35.2984997  66.9109988
  33.8800012  36.9994997  66.4709988  32.8450012  35.8304997  65.6429988
  36.1720012  35.8424997  65.7609988  36.2450012  35.2724997  66.6759988
  36.3180012  36.9024997  65.9039988  36.9680012  35.6084997  65.0689988
  36.5880012  33.8514997  60.4449988  36.1460012  31.6554997  61.6299988
  38.8500012  32.5794997  64.9929988  38.7880012  31.2214997  65.0269988
  39.3730012  30.4584997  64.3239988  37.8660012  30.7724997  66.1269988
  38.2450012  29.8864997  66.6799988  36.8430012  30.6904997  65.7019988
  37.7620012  31.8724997  67.1849988  36.9210012  32.5124997  66.8429988
  38.7400012  32.3594997  67.3819988  37.1540012  31.3284997  68.5039988
  37.3860012  32.0214997  69.3399988  37.8300012  30.4704997  68.7099988
  35.6080012  31.0964997  68.4809988  35.4280012  30.2474997  67.7869988
  35.1760012  32.0484997  68.1059988  35.0240012  30.8634997  69.9469988
  35.4360012  29.8834997  70.2699988  33.9300012  30.8504997  69.7569988
  35.2640012  31.9404997  70.9789988  34.7050012  32.8634997  70.7149988
  36.3410012  32.2124997  70.9479988  35.1440012  31.4654997  72.4629988
  35.7790012  30.5574997  72.5559988  34.0970012  31.1564997  72.6689988
  35.5050012  32.6454997  73.4379988  34.7510012  33.4424997  73.5149988
  36.6270012  32.8324997  74.1789988  36.6980012  33.7504997  74.7809988
  37.8170012  31.9984997  74.2519988  38.7280012  32.6334997  74.2069988
  37.7570012  31.2584997  73.4249988  37.7300012  31.0394997  75.4669988
  38.4890012  30.2324997  75.3749988  36.8170012  30.4094997  75.5319988
  37.9490012  31.8024997  76.8039988  37.1520012  32.5654997  76.9369988
  38.9240012  32.3324997  76.7489988  38.1890012  30.9864997  78.1099988
  38.4010012  31.5954997  79.0139988  39.1300012  30.4364997  77.8979988
  37.0070012  30.0954997  78.4019988  37.1700012  29.1164997  77.9029988
  36.0960012  30.4884997  77.9039988  36.6440012  29.9624997  79.9479988
  37.6100012  29.5984997  80.3589988  35.8250012  29.2114997  79.9659988
  36.1120012  31.2314997  80.5339988  35.4110012  31.8154997  79.9009988
  36.9560012  31.9514997  80.5989988  35.5630012  31.1464997  82.0069988
  35.2190012  32.1714997  82.2619988  36.3230012  30.6994997  82.6829988
  34.6680012  30.5024997  82.1459988 120.8080012  35.2204997  80.3019988
 120.9270012  34.4014997  79.5609988 121.4730012  35.0124997  81.1669988
 121.3810012  36.0094997  79.7689988 119.4460012  35.8244997  80.5669988
 118.8550012  35.1154997  81.1849988 119.6190012  36.7464997  81.1619988
 118.7040012  36.2354997  79.2729988 117.7500012  36.7684997  79.4719988
 119.3470012  37.0504997  78.8759988 118.3050012  35.1244997  78.3069988
 119.2430012  34.6204997  77.9869988 117.6940012  34.4524997  78.9479988
 117.5880012  35.4934997  77.0069988 116.5980012  35.9054997  77.2969988
 118.0880012  36.2984997  76.4259988 117.5160012  34.2494997  76.0189988
 118.5490012  33.8624997  75.8859988 117.0200012  33.4724997  76.6379988
 116.7340012  34.5664997  74.7189988 115.6370012  34.4984997  74.8849988
 117.0400012  35.6154997  74.5169988 117.1200012  33.6424997  73.5449988
 118.2250012  33.5664997  73.4549988 116.8050012  32.6794997  74.0009988
 116.4490012  34.0674997  72.2069988 115.3610012  33.9064997  72.3649988
 116.5950012  35.1584997  72.0539988 116.8870012  33.2544997  71.0309988
 117.9970012  33.2224997  71.0059988 116.4850012  32.2194997  70.9849988
 116.4800012  33.9194997  69.6739988 117.0320012  34.8824997  69.7139988
 117.0160012  33.3594997  68.8779988 115.0170012  33.9764997  69.3689988
 114.6170012  32.9404997  69.3509988 114.5740012  34.5754997  70.1929988
 114.5330012  34.6734997  67.9989988 114.6220012  33.9514997  67.1589988
 113.4850012  34.9674997  68.2189988 115.2780012  35.9624997  67.7299988
 116.3120012  35.5844997  67.5779988 115.0070012  36.4524997  66.7699988
 115.1510012  36.9484997  68.9409988 114.1190012  37.3594997  68.9509988
 115.2990012  36.5004997  69.9469988 116.1620012  38.1184997  68.8589988
 116.0400012  39.2344997  69.3149988 117.2700012  37.7584997  68.1799988
 118.2440012  38.8114997  67.8639988 117.7590012  39.5844997  67.2299988
 118.6510012  39.2734997  68.7879988 119.5430012  38.2304997  67.1489988
 120.3220012  39.0204997  67.0949988 119.1260012  37.6174997  65.7379988
 118.4270012  38.3304997  65.2519988 120.0200012  37.5254997  65.0849988
 118.4300012  36.4044997  65.9389988 118.5660012  35.1594997  65.0219988
 117.8480012  35.3554997  63.5839988 116.6160012  36.0794997  63.6489988
 115.9580012  35.6034997  62.8909988 116.0390012  35.8754997  64.5759988
 116.7300012  37.5784997  63.2389988 115.7270012  37.9504997  63.0919988
 117.2420012  38.0674997  64.0549988 117.4600012  37.8864997  61.9099988
 116.8580012  37.0254997  60.9029988 117.2770012  37.2794997  59.9399988
 116.9760012  35.9844997  61.1669988 115.7930012  37.2044997  60.9299988
 117.2800012  39.3314997  61.5549988 117.7640012  39.5984997  60.6279988
 116.2270012  39.5574997  61.4769988 117.6450012  39.9614997  62.3529988
 118.9220012  37.6194997  61.9309988 119.2550012  37.7694997  60.9139988
 118.9710012  36.5834997  62.2329988 119.4520012  38.3124997  62.5679988
 120.0030012  35.0154997  64.7649988 117.9200012  34.0074997  65.6849988
 120.1580012  37.2804997  68.1079988 121.1520012  36.5774997  67.6449988
 121.7820012  36.9024997  66.6629988 121.2120012  35.2124997  68.3419988
 122.2660012  34.9384997  68.5639988 120.9090012  34.4414997  67.6019988
 120.2830012  35.0764997  69.5309988 120.2960012  34.0014997  69.8099988
 119.2010012  35.2534997  69.3489988 120.6310012  35.9644997  70.8359988
 120.9640012  36.9974997  70.5999988 121.5230012  35.4074997  71.1949988
 119.4940012  36.0084997  71.8739988 119.1370012  34.9824997  72.1059988
 118.6660012  36.5144997  71.3319988 119.7680012  36.7004997  73.2759988
 120.7410012  36.3754997  73.7019988 118.9780012  36.3334997  73.9659988
 119.5700012  38.2384997  73.2059988 120.4340012  38.6374997  72.6329988
 119.5300012  38.5484997  74.2719988 118.2370012  38.6654997  72.5699988
 117.3530012  38.2914997  73.1299988 118.3360012  38.3934997  71.4979988
 118.2240012  40.1694997  72.5919988 118.8780012  40.5824997  71.8099988
 117.5770012  40.9094997  73.5519988 117.3290012  41.9264997  73.2139988
 116.7290012  40.4164997  74.7529988 117.5000012  40.1804997  75.5179988
 116.2790012  39.4374997  74.4809988 115.7100012  41.4964997  75.2779988
 115.1220012  41.9454997  74.4489988 116.1730012  42.3734997  75.7789988
 114.7690012  40.8444997  76.3559988 114.3930012  39.9054997  75.8959988
 113.7870012  41.3544997  76.4499988 115.4960012  40.6804997  77.6209988
 115.5270012  41.6634997  78.1379988 116.4710012  40.1584997  77.5149988
 114.7350012  39.7484997  78.5939988 113.6430012  39.8214997  78.4039988
 114.9930012  40.1854997  79.5819988 115.2750012  38.3134997  78.5099988
 116.3780012  38.1844997  78.4959988 114.9760012  37.8424997  77.5489988
 114.7240012  37.3594997  79.5779988 115.3220012  36.4464997  79.3669988
 113.6360012  37.1764997  79.4519988 115.0950012  37.6004997  80.9679988
 114.8640012  38.6444997  81.2699988 116.1530012  37.3154997  81.1499988
 114.3990012  36.9924997  81.5839988  24.1710012 104.1764997  83.9529988
  23.3680012 104.6094997  84.5869988  24.9430012 104.9734997  84.0209988
  24.5700012 103.2194997  84.3509988  23.7480012 104.1464997  82.4909988
  22.9320012 103.3934997  82.5199988  23.3370012 105.1724997  82.3779988
  24.9180012 103.8014997  81.5789988  25.7800012 104.4324997  81.8869988
  25.1880012 102.7564997  81.8419988  24.6210012 103.7254997  80.1309988
  23.7490012 103.0844997  79.8789988  24.4310012 104.7524997  79.7529988
  25.8300012 103.1214997  79.3549988  26.7600012 103.7014997  79.5389988
  25.9950012 102.0614997  79.6459988  25.5710012 103.0884997  77.8349988
  25.2240012 104.1364997  77.7049988  26.5530012 102.9914997  77.3259988
  24.6650012 102.0124997  77.2529988  25.0120012 100.9574997  77.2649988
  23.9380012 101.9504997  78.0899988  23.9580012 102.2714997  75.9149988
  23.0250012 101.6724997  75.8459988  23.7660012 103.3594997  75.8039988
  24.8490012 101.8614997  74.7119988  25.7290012 102.5204997  74.8699988
  25.1190012 100.7854997  74.6459988  24.3480012 102.3234997  73.3639988
  23.6870012 101.4974997  73.0249988  23.6900012 103.2064997  73.5139988
  25.3150012 102.7224997  72.2599988  24.7530012 103.2964997  71.4919988
  25.8780012 103.5464997  72.7489988  26.3830012 101.7194997  71.7909988
  27.1880012 102.4274997  71.4979988  26.6860012 101.0654997  72.6369988
  26.0090012 100.8044997  70.5759988  26.2950012  99.7714997  70.8689988
  24.9120012 100.8624997  70.4129988  26.7460012 101.0264997  69.2729988
  27.8370012 101.0734997  69.4759988  26.5080012 100.1964997  68.5739988
  26.4840012 102.4024997  68.6329988  26.3430012 103.1774997  69.4169988
  27.3060012 102.6644997  67.9319988  25.1250012 102.3944997  67.7949988
  24.1990012 101.6214997  67.8159988  25.0610012 103.5764997  67.1829988
  23.8380012 103.8404997  66.4029988  23.5700012 103.0444997  65.6759988
  23.0700012 103.7214997  67.1959988  23.8150012 105.2674997  65.7929988
  22.8120012 105.3744997  65.3279988  24.8110012 105.4154997  64.6919988
  25.3720012 104.4724997  64.5229988  24.1480012 105.5884997  63.8179988
  25.6930012 106.5194997  64.8219988  27.1670012 106.4354997  65.3739988
  28.0210012 105.7064997  64.2489988  28.0670012 106.2554997  62.9589988
  28.0390012 107.3634997  62.8739988  29.0350012 106.0534997  62.4519988
  26.9300012 105.5884997  62.0829988  26.1180012 105.7354997  62.7799988
  26.7250012 106.1534997  61.1859988  27.0620012 104.1564997  61.7319988
  27.4430012 103.2774997  62.9219988  27.7090012 102.2614997  62.6679988
  28.2770012 103.6964997  63.4659988  26.5750012 103.3074997  63.5639988
  25.8330012 103.5454997  61.1729988  26.1000012 102.5174997  60.9769988
  25.0870012 103.5654997  61.9539988  25.5860012 104.0024997  60.2269988
  28.2570012 104.0334997  60.8479988  28.5490012 103.0364997  60.5519988
  29.0860012 104.3474997  61.4649988  28.1650012 104.6354997  59.9559988
  27.7230012 107.7674997  65.3559988  27.1470012 105.7504997  66.6619988
  24.0070012 106.2464997  66.9209988  22.9570012 106.3324997  67.7649988
  21.8490012 105.8224997  67.6519988  23.4590012 107.2964997  68.8759988
  22.8600012 108.2164997  69.0489988  24.4620012 107.6734997  68.5829988
  23.5730012 106.5094997  70.2429988  24.2280012 107.1284997  70.8919988
  23.9030012 105.4524997  70.1599988  22.1900012 106.4314997  70.9969988
  21.5110012 105.6884997  70.5279988  21.6360012 107.3944997  71.0279988
  22.5850012 106.2504997  72.4479988  23.1970012 105.3344997  72.5909988
  21.6440012 105.9244997  72.9409988  23.1790012 107.3654997  73.1829988
  22.4980012 108.2434997  73.1929988  24.1290012 107.7084997  72.7199988
  23.6030012 107.1034997  74.5899988  24.5780012 106.5724997  74.5509988
  22.8810012 106.4354997  75.1059988  23.5880012 108.4394997  75.3999988
  24.0230012 108.1664997  76.3849988  22.5340012 108.7334997  75.5919988
  24.3140012 109.5654997  74.7969988  23.7410012 110.1064997  74.0289988
  25.5060012 109.9444997  75.0829988  25.7710012 110.8404997  74.5019988
  26.4890012 109.2694997  76.0109988  27.4090012 109.1304997  75.4039988
  26.0390012 108.3594997  76.4629988  26.7090012 110.3734997  77.1359988
  25.7040012 110.6464997  77.5219988  27.2650012 111.2574997  76.7589988
  27.5840012 109.7784997  78.2939988  28.3850012 109.1174997  77.8979988
  27.0260012 109.1444997  79.0149988  28.4340012 110.7914997  79.1359988
  27.7500012 111.5784997  79.5179988  29.1470012 111.2724997  78.4329988
  29.1100012 110.1034997  80.3039988  29.8950012 110.8014997  80.6659988
  29.7920012 109.2554997  80.0789988  28.1480012 109.6924997  81.4169988
  27.4900012 108.8834997  81.0339988  27.4820012 110.5354997  81.6989988
  28.9600012 109.1444997  82.5849988  29.9600012 109.5144997  82.8959988
  29.1210012 108.1194997  82.1869988  28.2640012 108.9854997  83.8639988
  27.4090012 108.2904997  83.7219988  27.8850012 109.9694997  84.2129988
  29.0100012 108.7224997  84.6439988  62.0200012  18.8534997  80.3629988
  62.3950012  19.8384997  80.7159988  62.8220012  18.4384997  79.7149988
  62.0260012  18.1694997  81.2389988  60.6390012  18.8564997  79.6639988
  60.5880012  18.0054997  78.9509988  59.8970012  18.6884997  80.4729988
  60.3640012  20.1074997  78.7759988  59.2880012  20.2154997  78.5229988
  60.7350012  20.9404997  79.4109988  61.0820012  20.2014997  77.3799988
  62.0540012  19.6724997  77.2789988  60.3370012  19.6524997  76.7649988
  61.3260012  21.6284997  76.8559988  60.3870012  22.2074997  76.7279988
  61.8760012  22.0824997  77.7069988  62.1150012  21.8034997  75.5649988
  63.0960012  21.3024997  75.7119988  61.7790012  21.1514997  74.7299988
  62.2830012  23.1644997  74.8669988  63.1520012  23.6624997  75.3469988
  62.4990012  23.0464997  73.7839988  61.0750012  24.1204997  74.9429988
  60.0940012  23.7354997  74.5919988  60.8520012  24.3004997  76.0159988
  61.2620012  25.5034997  74.2699988  60.6540012  26.3594997  74.6339988
  62.3030012  25.8214997  74.4899988  61.0090012  25.6444997  72.7619988
  61.2610012  26.7124997  72.5889988  61.6740012  25.0104997  72.1379988
  59.5690012  25.4474997  72.3059988  59.1290012  24.4474997  72.5079988
  58.9400012  26.1754997  72.8609988  59.3050012  25.6904997  70.8219988
  59.4580012  26.7284997  70.4579988  60.0880012  25.0844997  70.3179988
  57.9230012  25.1304997  70.3539988  57.9670012  24.0214997  70.3189988
  57.1830012  25.2734997  71.1699988  57.3920012  25.4424997  68.9319988
  56.5120012  24.7654997  68.8969988  56.8920012  26.4314997  68.8529988
  58.3460012  25.1604997  67.7349988  58.8910012  24.2134997  67.9369988
  57.6790012  25.1004997  66.8479988  59.2920012  26.2574997  67.4559988
  59.1460012  27.4524997  67.8169988  60.3470012  25.8464997  66.7629988
  61.3920012  26.7704997  66.5499988  60.9540012  27.6884997  66.1029988
  61.7970012  27.0184997  67.5539988  62.4180012  26.1084997  65.5759988
  63.4580012  26.4614997  65.7389988  61.9320012  26.3704997  64.1019988
  61.6180012  27.4074997  63.8559988  62.7090012  26.2464997  63.3179988
  60.7200012  25.6394997  63.8799988  60.6750012  24.2744997  63.0789988
  59.9310012  23.2834997  64.0189988  58.5780012  22.9384997  64.0649988
  58.2770012  22.7564997  65.1189988  57.9740012  23.7684997  63.6389988
  58.3670012  21.5514997  63.3759988  57.3300012  21.2944997  63.5329988
  58.4620012  21.7434997  62.3169988  59.3200012  20.3934997  63.6689988
  58.6200012  19.0604997  63.2769988  58.3980012  19.1844997  62.2279988
  59.3860012  18.3054997  63.3779988  57.7360012  19.0024997  63.8949988
  60.6140012  20.4654997  62.8979988  61.2850012  19.6624997  63.1659988
  60.4130012  20.4304997  61.8369988  61.0460012  21.4464997  63.0289988
  59.5980012  20.3194997  65.1999988  58.6340012  20.4804997  65.6609988
  60.3060012  21.0634997  65.5359988  60.1970012  19.4324997  65.3409988
  59.8560012  24.4304997  61.8779988  62.0620012  23.6874997  62.8389988
  62.5900012  24.6664997  65.7409988  63.1540012  24.2334997  66.8579988
  63.4620012  24.8884997  67.8489988  63.5830012  22.7314997  66.8199988
  64.6770012  22.6564997  66.6409988  63.0350012  22.1894997  66.0199988
  63.2940012  22.1084997  68.2239988  63.8050012  22.7594997  68.9659988
  63.7630012  21.1094997  68.3499988  61.8220012  22.0154997  68.7879988
  61.2020012  21.3644997  68.1359988  61.3520012  23.0214997  68.7339988
  61.6550012  21.4954997  70.2149988  62.0700012  22.2634997  70.9019988
  62.1700012  20.5144997  70.2949988  60.1490012  21.3444997  70.5869988
  59.8010012  20.3884997  70.1409988  59.5440012  22.1544997  70.1249988
  59.9560012  21.2924997  72.1179988  60.4350012  22.1624997  72.6159988
  60.5660012  20.4054997  72.3959988  58.4380012  21.3944997  72.3849988
  58.0440012  20.6654997  71.6449988  58.1460012  22.3994997  72.0099988
  57.9360012  21.0064997  73.7579988  58.3460012  20.0594997  74.1399988
  57.1960012  21.8114997  74.5609988  56.8750012  21.3244997  75.4929988
  56.6580012  23.2104997  74.3799988  55.8350012  23.0504997  73.6509988
  57.4750012  23.7684997  73.8749988  56.1730012  23.9274997  75.6609988
  55.5170012  23.2114997  76.1999988  55.5670012  24.7704997  75.2659988
  57.2620012  24.5184997  76.5619988  57.6700012  25.3934997  76.0119988
  57.9750012  23.6854997  76.7439988  56.7390012  25.1034997  77.8849988
  55.9460012  24.5584997  78.4409988  56.3100012  26.0494997  77.4899988
  57.7840012  25.4654997  79.0009988  58.0990012  24.4914997  79.4329988
  57.2650012  25.9564997  79.8529988  59.0390012  26.2534997  78.6419988
  58.8670012  26.9854997  77.8249988  59.6930012  25.4064997  78.3429988
  59.6740012  27.0774997  79.7749988  58.9200012  27.8464997  80.0469988
  60.5750012  27.6624997  79.4909988  59.9160012  26.2734997  81.0769988
  60.4940012  25.3254997  81.0399988  58.9420012  26.1164997  81.5889988
  60.4340012  26.8754997  81.8529988  43.3780012 120.7864997  79.2669988
  42.7720012 121.2554997  78.4629988  44.4240012 121.1024997  79.0659988
  42.9880012 121.0604997  80.2709988  43.3040012 119.2294997  79.1609988
  44.0970012 118.7354997  79.7629988  42.3130012 118.8844997  79.5259988
  43.5330012 118.6754997  77.7789988  44.4330012 119.2414997  77.4569988
  43.7060012 117.5784997  77.8329988  42.5060012 119.1504997  76.7009988
  42.4440012 120.2594997  76.7059988  43.0300012 118.9724997  75.7379988
  41.1150012 118.4934997  76.7059988  40.8120012 118.5844997  77.7709988
  40.3660012 119.0184997  76.0759988  41.1200012 116.9644997  76.3669988
  41.9780012 116.6574997  77.0029988  40.1470012 116.4744997  76.5849988
  41.5510012 116.5194997  74.9179988  40.8670012 116.9974997  74.1839988
  42.5970012 116.8134997  74.6869988  41.3050012 114.9824997  74.6709988
  42.0520012 114.4744997  75.3179988  40.2910012 114.7354997  75.0509988
  41.7290012 114.6564997  73.2169988  42.8200012 114.8674997  73.2599988
  41.5720012 113.5604997  73.1259988  40.9130012 115.3474997  72.0809988
  39.8460012 115.0744997  71.9379988  40.8220012 116.4274997  72.3249988
  41.4580012 115.1464997  70.6199988  42.5070012 115.5134997  70.6489988
  41.4920012 114.0504997  70.4419988  40.6740012 115.9684997  69.5409988
  41.3880012 115.9614997  68.6899988  39.6540012 115.6094997  69.2849988
  40.6210012 117.5644997  69.7849988  39.9180012 117.7494997  70.6249988
  41.6770012 117.8454997  69.9869988  40.0780012 118.2304997  68.5029988
  40.6110012 117.8424997  67.6079988  39.0100012 117.9234997  68.5199988
  40.1700012 119.7444997  68.6569988  39.3660012 120.1364997  67.9979988
  39.8270012 120.1324997  69.6399988  41.5460012 120.2224997  68.3369988
  42.3890012 120.3944997  69.1909988  41.5880012 120.6084997  67.0769988
  42.8030012 121.1374997  66.5819988  42.6500012 121.6714997  65.6199988
  43.3420012 121.8054997  67.2879988  43.8440012 119.9944997  66.1499988
  44.7880012 120.5554997  65.9769988  43.3030012 119.1534997  64.9049988
  42.8920012 119.8684997  64.1599988  44.1410012 118.6724997  64.3569988
  42.2510012 118.3324997  65.3039988  42.3850012 116.7844997  64.9829988
  41.9610012 116.7294997  63.4799988  41.0080012 117.4524997  62.8279988
  40.8430012 118.4534997  63.2809988  41.3350012 117.6794997  61.7899988
  39.7820012 116.5744997  62.8339988  39.5420012 116.3854997  63.8699988
  38.9000012 117.1054997  62.5059988  39.7510012 115.2224997  62.1099988
  40.2770012 115.4694997  60.7519988  40.4840012 114.4864997  60.3559988
  39.5640012 115.9814997  60.1219988  41.1750012 116.0634997  60.8469988
  40.5500012 114.1604997  62.8439988  39.9920012 113.9044997  63.7329988
  40.6840012 113.3004997  62.2039988  41.5230012 114.5684997  63.0729988
  38.2820012 114.8444997  62.0619988  37.6520012 115.6594997  61.7359988
  37.9880012 114.4934997  63.0399988  38.2750012 114.0314997  61.3509988
  43.7810012 116.3414997  65.1929988  41.3970012 116.0634997  65.7929988
  44.1170012 119.1574997  67.3739988  45.2000012 118.4104997  67.3359988
  45.9400012 118.2654997  66.3569988  45.2060012 117.4444997  68.5059988
  44.4590012 116.6424997  68.3259988  44.7910012 118.0764997  69.3209988
  46.4570012 116.7874997  68.8859988  47.1890012 117.6194997  68.9649988
  46.7250012 116.1374997  68.0249988  46.3230012 115.8574997  70.0969988
  47.2510012 115.2744997  70.2829988  45.6020012 115.0474997  69.8579988
  45.9820012 116.6124997  71.4279988  45.1740012 117.3614997  71.2819988
  46.8010012 117.2624997  71.8029988  45.6990012 115.6784997  72.6139988
  45.0680012 114.8194997  72.3019988  45.2010012 116.2754997  73.4079988
  46.9260012 115.0664997  73.2799988  47.6400012 115.9184997  73.2849988
  47.2980012 114.2684997  72.6019988  46.8300012 114.2974997  74.6719988
  47.6690012 113.5754997  74.7629988  46.0820012 113.4754997  74.6509988
  46.4720012 115.0874997  75.9089988  47.1220012 115.9724997  75.9819988
  45.5190012 114.8794997  76.7929988  45.5890012 115.5234997  77.6829988
  44.4870012 113.8044997  76.8519988  44.2140012 113.4624997  75.8309988
  43.6150012 114.2124997  77.4059988  44.8810012 112.5244997  77.6819988
  45.7690012 112.0054997  77.2629988  43.9820012 111.8734997  77.6349988
  45.1570012 112.6814997  79.1939988  45.9860012 113.3844997  79.4239988
  45.5220012 111.7594997  79.6959988  43.9030012 113.0834997  79.9599988
  43.0290012 112.4364997  79.7309988  43.7060012 114.1384997  79.6719988
  44.1540012 113.0624997  81.4579988  44.8940012 113.8694997  81.6439988
  44.5990012 112.0754997  81.7069988  42.8950012 113.4834997  82.4079988
  43.2390012 113.5644997  83.4609988  42.0670012 112.7444997  82.3519988
  42.2630012 114.8674997  82.1749988  41.6890012 114.9054997  81.2239988
  43.1250012 115.5554997  82.0409988  41.3860012 115.2454997  83.3599988
  40.4020012 114.7334997  83.4179988  41.1360012 116.3264997  83.2939988
  41.8550012 115.0274997  84.3429988 105.8990012  20.9604997  80.5409988
 105.2350012  21.0724997  81.4249988 106.9290012  20.7664997  80.9089988
 105.5850012  20.1724997  79.8229988 105.9390012  22.3394997  79.8029988
 105.8920012  23.1314997  80.5799988 106.9520012  22.3524997  79.3479988
 104.8200012  22.5864997  78.8329988 104.9330012  21.7714997  78.0859988
 103.8290012  22.5104997  79.3299988 104.9660012  24.0294997  78.2549988
 104.1740012  24.2824997  77.5169988 105.1150012  24.7374997  79.0989988
 106.2210012  24.0064997  77.4199988 107.1150012  23.7744997  78.0369988
 106.1220012  23.1224997  76.7539988 106.4610012  25.3124997  76.6499988
 105.5610012  25.4484997  76.0139988 106.7020012  26.1974997  77.2769988
 107.5520012  25.1854997  75.5829988 108.4540012  24.9734997  76.1969988
 107.4860012  24.3004997  74.9139988 107.8100012  26.4154997  74.6669988
 107.2920012  27.3304997  75.0239988 108.8700012  26.7474997  74.6709988
 107.3810012  26.1414997  73.2149988 107.9450012  25.2584997  72.8439988
 106.3050012  25.8824997  73.1139988 107.7360012  27.2854997  72.2589988
 107.2650012  28.1594997  72.7569988 108.8300012  27.4834997  72.2679988
 107.1760012  27.1214997  70.8639988 107.7180012  26.3234997  70.3119988
 106.1220012  26.7954997  70.9949988 107.3440012  28.4214997  69.9769988
 106.8330012  29.2814997  70.4609988 108.4310012  28.6454997  70.0269988
 106.8710012  28.3254997  68.4839988 107.2500012  27.3574997  68.0919988
 105.7650012  28.3804997  68.5759988 107.3940012  29.3654997  67.5209988
 106.9530012  30.3424997  67.8159988 108.5010012  29.4004997  67.6019988
 106.9150012  29.0784997  66.0619988 105.9690012  28.4954997  66.0849988
 106.7470012  30.0614997  65.5719988 107.9950012  28.2874997  65.2409988
 108.2780012  28.5484997  64.0979988 108.5030012  27.3274997  65.9779988
 109.4390012  26.4704997  65.3659988 109.6830012  26.6654997  64.2999988
 110.4510012  26.5304997  65.8199988 109.0210012  25.0304997  65.5499988
 109.8020012  24.3664997  65.1229988 107.6500012  24.7294997  64.7889988
 107.8080012  25.0644997  63.7409988 107.4740012  23.6394997  64.6649988
 106.5160012  25.4784997  65.3739988 105.1080012  24.8704997  65.1509988
 104.7230012  25.1114997  63.6079988 105.1940012  26.3094997  62.9309988
 105.2230012  27.1914997  63.6059988 106.1640012  26.0444997  62.4589988
 104.2370012  26.7214997  61.7479988 104.6740012  27.5784997  61.2579988
 104.2380012  25.8794997  61.0709988 102.7610012  27.1174997  61.9409988
 102.5870012  28.2304997  62.9779988 103.4200012  28.8954997  62.8039988
 101.6530012  28.6944997  62.6979988 102.5980012  27.7204997  63.9299988
 102.2110012  27.7114997  60.6299988 101.2460012  28.1394997  60.8599988
 102.9000012  28.4944997  60.3479988 102.2730012  26.9034997  59.9159988
 102.0010012  25.9604997  62.4299988 101.8800012  25.3534997  61.5449988
 101.0100012  26.2474997  62.7489988 102.5110012  25.5284997  63.2779988
 105.1670012  23.4344997  65.4889988 104.0770012  25.6704997  65.9019988
 108.9410012  24.8124997  66.9609988 108.3300012  23.7094997  67.4499988
 107.9390012  22.7504997  66.7869988 108.3460012  23.6974997  68.9769988
 108.1340012  24.6354997  69.5339988 109.3480012  23.3214997  69.2759988
 107.5010012  22.4444997  69.5049988 107.6460012  22.3414997  70.6019988
 107.9400012  21.5884997  68.9479988 105.9910012  22.6594997  69.2989988
 105.3840012  21.7614997  69.5409988 105.8310012  22.8554997  68.2169988
 105.4170012  23.9154997  70.0749988 105.9300012  24.8294997  69.7039988
 105.6830012  23.8574997  71.1519988 103.9370012  24.0654997  69.7859988
 103.2820012  23.2854997  70.2279988 103.7700012  24.0494997  68.6869988
 103.3080012  25.3304997  70.2959988 102.3280012  25.4364997  69.7839988
 104.0040012  26.1584997  70.0419988 103.2020012  25.3914997  71.8959988
 104.2590012  25.4274997  72.2359988 102.7440012  24.4424997  72.2469988
 102.5110012  26.6344997  72.3619988 102.7010012  27.5544997  71.7889988
 101.4700012  26.6854997  73.2439988 101.0860012  27.6564997  73.5889988
 100.8570012  25.5174997  73.9419988 101.0430012  24.5524997  73.4229988
  99.7590012  25.6844997  73.9309988 101.2450012  25.4434997  75.4669988
 102.2220012  24.9294997  75.5879988 100.4370012  24.8634997  75.9619988
 101.4750012  26.8144997  76.1379988 100.6310012  27.4944997  75.8939988
 102.4580012  27.1974997  75.7889988 101.5860012  26.6344997  77.6899988
 102.3870012  25.9304997  78.0019988 100.6730012  26.1404997  78.0879988
 101.8080012  27.9304997  78.3519988 101.1080012  28.7094997  77.9829988
 102.8030012  28.3034997  78.0259988 101.9090012  27.8004997  79.8579988
 102.7450012  27.1214997  80.1299988 101.0200012  27.2484997  80.2319988
 101.9330012  29.1764997  80.5429988 102.1460012  28.9234997  81.6039988
 100.9250012  29.6384997  80.4709988 103.0420012  30.1404997  80.1379988
 104.0820012  29.7534997  80.1889988 102.9800012  31.0234997  80.8089988
 102.7550012  30.5954997  79.1659988  12.7820012  85.6944997  83.1589988
  11.9350012  85.2744997  83.7419988  12.7600012  86.7934997  83.3179988
  13.6820012  85.1684997  83.5439988  12.5740012  85.3524997  81.6789988
  13.4110012  84.6854997  81.3789988  11.5730012  84.8844997  81.5649988
  12.5930012  86.5894997  80.7719988  11.7910012  87.3334997  80.9669988
  13.4180012  87.2534997  81.1089988  12.6440012  86.4234997  79.2279988
  11.6630012  86.0674997  78.8469988  12.7790012  87.4274997  78.7719988
  13.6410012  85.3644997  78.6989988  14.6090012  85.5834997  79.1989988
  13.2700012  84.4094997  79.1309988  13.6890012  85.1914997  77.2569988
  13.7330012  86.1804997  76.7529988  14.5490012  84.5684997  76.9299988
  12.5260012  84.3084997  76.6979988  12.5510012  83.4394997  77.3899988
  11.6360012  84.9724997  76.6749988  12.8100012  83.7294997  75.2569988
  13.5590012  82.9094997  75.2789988  11.8210012  83.4814997  74.8179988
  13.3450012  84.7924997  74.2509988  14.2580012  85.3034997  74.6249988
  13.6430012  84.2674997  73.3179988  12.2820012  85.7924997  73.8579988
  11.5670012  85.1974997  73.2499988  11.6080012  86.1174997  74.6789988
  12.8060012  86.7714997  72.7769988  12.0090012  87.4584997  72.4199988
  13.5590012  87.3624997  73.3409988  13.4120012  86.1744997  71.4329988
  14.3720012  85.7194997  71.7559988  12.7360012  85.3854997  71.0399988
  13.8290012  87.1994997  70.3689988  14.5530012  86.6314997  69.7459988
  12.8570012  87.3994997  69.8709988  14.3960012  88.4574997  70.9739988
  13.5000012  89.0434997  71.2709988  15.0770012  88.0354997  71.7429988
  15.0250012  89.3304997  69.8999988  14.2370012  89.5854997  69.1589988
  15.3700012  90.2974997  70.3239988  16.2610012  88.6574997  69.3109988
  17.1600012  88.0574997  69.9199988  16.1950012  88.8534997  67.9629988
  17.0000012  88.0924997  67.0769988  17.0920012  88.6494997  66.1199988
  18.0200012  87.8314997  67.4299988  16.2750012  86.8454997  66.5219988
  16.8230012  86.4414997  65.6439988  14.8210012  87.2154997  66.0349988
  14.2140012  87.5544997  66.9019988  14.8370012  88.1114997  65.3769988
  14.1610012  86.1444997  65.3649988  12.8190012  86.3844997  64.4879988
  13.2170012  85.7114997  63.1089988  13.7840012  84.4194997  63.0879988
  13.3070012  83.7534997  63.8389988  13.4760012  83.9814997  62.1149988
  15.3410012  84.2524997  63.4019988  15.3630012  84.6524997  64.4049988
  15.5600012  83.1984997  63.4809988  16.3240012  85.0074997  62.5609988
  16.1790012  86.5774997  62.7089988  16.9390012  86.9514997  62.0389988
  15.1930012  86.9314997  62.4499988  16.3160012  86.9714997  63.7049988
  17.7740012  84.7764997  62.8409988  17.9150012  83.7254997  63.0459988
  18.2660012  85.1774997  61.9679988  18.0550012  85.2784997  63.7549988
  16.0420012  84.6054997  61.1469988  15.0810012  84.9914997  60.8389988
  15.9900012  83.5264997  61.1429988  16.8150012  84.8934997  60.4509988
  11.6990012  85.6214997  65.1229988  12.7100012  87.8464997  64.3479988
  16.0940012  85.7364997  67.5239988  17.1150012  85.2594997  68.0769988
  18.2990012  85.5804997  67.9189988  16.7880012  84.1534997  68.9959988
  16.6480012  83.2394997  68.3799988  15.7970012  84.3524997  69.4559988
  17.7820012  83.9044997  70.0609988  18.6560012  83.5614997  69.4679988
  17.4500012  82.9954997  70.6079988  18.0420012  85.0894997  70.9849988
  17.0790012  85.5714997  71.2569988  18.6830012  85.8224997  70.4499988
  18.7560012  84.6914997  72.3469988  19.5780012  84.0034997  72.0549988
  18.0490012  84.0874997  72.9539988  19.3070012  85.8174997  73.2299988
  20.0960012  86.2724997  72.5929988  19.8260012  85.3824997  74.1109988
  18.2170012  86.7834997  73.6699988  17.8870012  87.3224997  72.7559988
  18.5790012  87.6104997  74.3179988  17.0330012  86.0794997  74.4319988
  16.6680012  85.1394997  73.9669988  16.1530012  86.7554997  74.3809988
  17.3490012  85.7624997  75.8599988  17.3820012  84.6744997  76.0229988
  17.5220012  86.5024997  76.8989988  17.6000012  86.0194997  77.8839988
  17.4830012  87.9714997  76.9909988  17.0650012  88.4354997  76.0719988
  18.5480012  88.2254997  77.1809988  16.5820012  88.3554997  78.1799988
  16.6680012  87.6054997  78.9939988  15.5580012  88.2194997  77.7699988
  16.8000012  89.7734997  78.8849988  15.9100012  89.8864997  79.5409988
  16.6790012  90.5224997  78.0729988  18.0850012  89.9424997  79.7339988
  18.3380012  91.0184997  79.6229988  18.9720012  89.4494997  79.2809988
  17.9030012  89.5044997  81.2299988  17.5890012  88.4554997  81.4169988
  17.1560012  90.1964997  81.6739988  19.2280012  89.5774997  82.0039988
  19.6240012  90.6154997  81.9849988  19.8060012  88.8834997  81.3559988
  19.1450012  89.1314997  83.4699988  20.1790012  89.2554997  83.8559988
  18.7720012  88.0864997  83.5319988  18.1960012  89.8614997  84.3209988
  18.4600012  89.8364997  85.3999988  17.1980012  89.4254997  84.1019988
  18.1410012  90.9404997  84.0599988  17.3650012  58.7834997  79.6649988
  17.7920012  58.6344997  80.6789988  17.3470012  59.8924997  79.6029988
  18.0260012  58.3764997  78.8709988  15.9820012  58.2984997  79.4689988
  15.9620012  57.2644997  79.8749988  15.3300012  58.8774997  80.1569988
  15.2930012  58.4594997  78.0999988  15.5260012  57.6594997  77.3649988
  14.2030012  58.4544997  78.3139988  15.5690012  59.8164997  77.4539988
  15.3740012  60.6204997  78.1959988  16.6610012  59.7964997  77.2529988
  14.7070012  60.0454997  76.1649988  14.6760012  59.0984997  75.5839988
  13.6560012  60.3214997  76.3959988  15.3620012  61.0164997  75.1679988
  14.6810012  61.1984997  74.3099988  15.6930012  61.9794997  75.6139988
  16.6120012  60.4234997  74.5039988  17.4290012  60.3294997  75.2509988
  16.5220012  59.3594997  74.1989988  17.2040012  61.2074997  73.3449988
  16.6630012  60.9444997  72.4109988  16.9720012  62.2874997  73.4559988
  18.7590012  61.0574997  73.1539988  19.2280012  61.6914997  72.3719988
  19.2630012  61.5364997  74.0199988  19.2410012  59.6074997  72.7729988
  20.3480012  59.6934997  72.7959988  19.0290012  58.9914997  73.6729988
  18.8390012  59.0324997  71.3689988  17.7490012  58.8194997  71.4079988
  18.9380012  59.8884997  70.6679988  19.6970012  57.7194997  71.1099988
  19.7900012  57.1624997  72.0669988  19.1090012  57.1784997  70.3379988
  21.0390012  57.9974997  70.5419988  20.9660012  58.7604997  69.7379988
  21.5580012  58.5554997  71.3509988  21.8050012  56.7524997  70.0349988
  22.8660012  57.0774997  69.9889988  21.9160012  55.8674997  70.6979988
  21.5950012  56.2694997  68.5739988  21.2510012  57.0704997  67.8849988
  22.5710012  55.9184997  68.1769988  20.6390012  55.1684997  68.6069988
  20.4540012  54.3954997  69.5079988  20.1200012  55.0864997  67.3799988
  19.0180012  54.1304997  67.1259988  19.2210012  53.4534997  66.2689988
  18.8520012  53.4704997  68.0049988  17.7460012  54.8904997  66.7259988
  17.0470012  54.1294997  66.3189988  18.1070012  55.9294997  65.5999988
  18.9140012  56.6404997  65.8799988  18.5600012  55.3604997  64.7599988
  16.9070012  56.5474997  65.2599988  16.3930012  57.9734997  65.5019988
  16.8420012  58.6534997  64.1019988  16.2890012  58.2614997  62.8399988
  16.9020012  57.3934997  62.5149988  15.2740012  57.8114997  62.8809988
  16.3530012  59.4254997  61.7649988  16.1200012  58.9994997  60.7999988
  15.5960012  60.1514997  62.0219988  17.6890012  60.1144997  61.6809988
  17.7520012  61.1944997  60.5859988  16.8040012  61.7124997  60.6009988
  18.6160012  61.8374997  60.6679988  17.7300012  60.7694997  59.5939988
  18.2560012  60.7524997  62.9269988  18.6030012  60.0604997  63.6799988
  19.0370012  61.4504997  62.6639988  17.3780012  61.2774997  63.2729988
  18.5840012  58.9944997  61.1529988  18.2340012  58.4704997  60.2759988
  18.6670012  58.2354997  61.9169988  19.5350012  59.4714997  60.9659988
  14.9420012  57.9754997  65.7179988  17.2010012  58.5004997  66.6469988
  17.2630012  55.5394997  67.9329988  16.6430012  54.8694997  68.8699988
  16.4290012  53.6714997  68.9689988  16.3470012  55.9004997  69.9669988
  15.3590012  56.3674997  69.7669988  17.0360012  56.7714997  69.9409988
  16.3390012  55.2454997  71.3469988  17.2660012  54.6964997  71.6199988
  15.5980012  54.4184997  71.3899988  16.0750012  56.2334997  72.4749988
  15.0290012  56.6064997  72.4269988  16.6930012  57.1494997  72.3559988
  16.4260012  55.6264997  73.9359988  16.3060012  54.5244997  74.0109988
  15.5840012  56.0004997  74.5569988  17.7340012  56.1064997  74.5149988
  17.9800012  57.1344997  74.1719988  18.5800012  55.4664997  74.1869988
  17.6830012  56.1694997  75.9829988  17.4920012  55.1314997  76.3319988
  16.8570012  56.7474997  76.4509988  18.9230012  56.6644997  76.6879988
  19.8280012  56.1164997  76.3479988  18.7830012  56.5394997  77.7829988
  19.1530012  58.1754997  76.3799988  18.3040012  58.8744997  76.4069988
  20.3900012  58.7104997  76.1829988  20.3500012  59.7344997  75.7839988
  21.7870012  58.1484997  76.1829988  22.2140012  58.1664997  75.1579988
  21.8280012  57.1474997  76.6619988  22.8510012  58.9684997  77.0549988
  22.9490012  59.9664997  76.5769988  23.8000012  58.4044997  76.9319988
  22.4330012  59.2064997  78.5389988  21.6770012  59.9884997  78.7659988
  23.3540012  59.5484997  79.0579988  21.8710012  57.9094997  79.2299988
  22.6350012  57.1594997  78.9359988  20.8200012  57.7214997  78.9249988
  21.8620012  57.9964997  80.7559988  21.2000012  58.7954997  81.1539988
  22.9520012  58.1204997  80.9279988  21.5260012  56.6814997  81.4399988
  22.1810012  55.8734997  81.0489988  20.4420012  56.5634997  81.2259988
  21.7140012  56.6424997  82.8709988  22.7900012  56.8924997  82.9879988
  21.5950012  55.5884997  83.1989988  20.7770012  57.5594997  83.6459988
  21.3870012  58.4024997  84.0359988  20.2860012  57.0254997  84.4879988
  19.8840012  57.8554997  83.0539988 103.1460012 119.3574997  80.5049988
 103.0130012 119.9954997  81.4039988 104.0900012 118.7724997  80.5409988
 102.3290012 118.6194997  80.3499988 103.1420012 120.3844997  79.4549988
 102.1640012 120.8944997  79.3219988 103.7820012 121.2384997  79.7639988
 103.4330012 120.0394997  78.0179988 103.2430012 120.9284997  77.3789988
 104.5130012 119.7884997  77.9489988 102.5640012 118.9924997  77.2509988
 102.3530012 118.1264997  77.9139988 101.6270012 119.5454997  77.0259988
 103.1650012 118.6014997  75.8999988 103.7400012 119.4584997  75.4879988
 103.9730012 117.8584997  76.0679988 102.2960012 118.0964997  74.7269988
 101.7950012 117.1554997  75.0389988 101.4360012 118.7724997  74.5329988
 103.0900012 117.8744997  73.4349988 103.5790012 118.8314997  73.1559988
 103.8940012 117.1264997  73.6039988 102.2940012 117.3094997  72.2079988
 103.0090012 116.8844997  71.4709988 101.6950012 116.4594997  72.5989988
 101.2730012 118.2214997  71.5269988 100.5410012 118.3974997  72.3439988
 101.6990012 119.1404997  71.0709988 100.4320012 117.6724997  70.3219988
 101.0810012 117.4374997  69.4509988 100.0420012 116.6994997  70.6899988
  99.3030012 118.6404997  69.9249988  98.6310012 118.9484997  70.7539988
  99.9170012 119.4974997  69.5739988  98.4810012 118.1304997  68.7869988
  99.2030012 117.5774997  68.1489988  97.8610012 117.2844997  69.1509988
  97.7070012 119.1874997  67.9829988  97.2690012 118.5594997  67.1779988
  96.9120012 119.6954997  68.5689988  98.6850012 120.2734997  67.4659988
  99.1460012 120.8324997  68.3089988  99.4750012 119.6974997  66.9379988
  98.0860012 121.2244997  66.5259988  97.7530012 120.5544997  65.7039988
  97.1670012 121.6694997  66.9629988  99.0410012 122.2634997  66.0059988
  98.6770012 123.0004997  65.1019988 100.2080012 122.3014997  66.5659988
 101.0790012 123.2344997  65.9009988 101.0560012 123.1034997  64.7979988
 100.8120012 124.2544997  66.2519988 102.5470012 122.9294997  66.4039988
 103.1210012 123.8534997  66.1789988 103.0880012 121.7254997  65.6739988
 102.7750012 121.9084997  64.6229988 104.1860012 121.5744997  65.7509988
 102.5650012 120.5414997  66.2679988 103.0640012 119.2394997  65.4039988
 102.2540012 119.3574997  64.0059988 100.9200012 119.8234997  63.9829988
 100.3490012 118.8784997  63.8589988 100.6730012 120.4044997  64.8969988
 100.6190012 120.8924997  62.8559988  99.5620012 121.1074997  62.8849988
 101.0930012 121.8314997  63.1019988 100.8410012 120.4674997  61.4269988
 100.0090012 119.1974997  61.2819988  99.0410012 119.2534997  61.7579988
  99.7770012 119.0074997  60.2439988 100.5730012 118.3874997  61.7209988
 100.2880012 121.5284997  60.5269988 100.7010012 122.4804997  60.8269988
 100.4820012 121.3444997  59.4809988  99.2280012 121.6694997  60.6789988
 102.2380012 120.1944997  61.0929988 102.5790012 119.4044997  61.7449988
 102.8240012 121.0884997  61.2529988 102.2890012 119.8954997  60.0559988
 104.5070012 119.2594997  65.2249988 102.4780012 118.1064997  66.1109988
 102.6440012 122.6554997  67.8449988 102.3050012 123.6884997  68.6349988
 102.0410012 124.8314997  68.2489988 102.6050012 123.3564997  70.1179988
 103.3580012 124.0944997  70.4679988 103.0560012 122.3434997  70.2029988
 101.2460012 123.4584997  70.9249988 100.9830012 124.5374997  70.9099988
 101.4690012 123.2744997  71.9979988 100.1370012 122.6484997  70.3529988
 100.2810012 121.5504997  70.4409988 100.0740012 122.9094997  69.2749988
  98.8280012 122.8574997  71.0669988  98.6500012 123.9474997  71.1859988
  98.9760012 122.4294997  72.0819988  97.5990012 122.1874997  70.4119988
  97.9080012 121.1204997  70.4159988  97.4590012 122.4334997  69.3379988
  96.2660012 122.2804997  71.2039988  95.5600012 121.7194997  70.5549988
  95.8390012 123.3014997  71.1099988  96.2180012 121.9244997  72.7609988
  95.1290012 121.8694997  72.9739988  96.6470012 122.7924997  73.3059988
  96.9000012 120.6684997  73.1109988  96.6970012 119.8774997  72.3729988
  97.6930012 120.3514997  74.1479988  98.0560012 119.3504997  74.4229988
  98.0270012 121.4004997  75.2379988  97.9120012 122.4544997  74.9049988
  99.0900012 121.2534997  75.5259988  97.0800012 121.3174997  76.4559988
  96.0700012 121.1094997  76.0439988  97.1800012 122.2404997  77.0669988
  97.4390012 120.3334997  77.5649988  97.4850012 119.2774997  77.2209988
  96.5880012 120.4654997  78.2679988  98.7550012 120.8354997  78.2249988
  98.5950012 121.7924997  78.7649988  99.5270012 121.0184997  77.4469988
  99.3430012 119.9764997  79.4179988 100.2680012 120.4774997  79.7749988
  99.6930012 118.9834997  79.0639988  98.3330012 119.7014997  80.4969988
  97.7020012 118.9404997  79.9899988  97.6930012 120.5934997  80.6669988
  98.8150012 119.4034997  81.9009988  99.5520012 118.5734997  81.9329988
  97.9040012 119.0384997  82.4219988  99.5460012 120.6074997  82.5339988
 100.0370012 120.5184997  83.5269988  98.8680012 121.4844997  82.6089988
 100.3610012 120.8934997  81.8359988  94.3080012 120.3284997  81.2939988
  94.9980012 119.4964997  81.5509988  93.2790012 119.9714997  81.0759988
  94.0580012 120.8814997  82.2239988  94.8560012 121.3104997  80.2619988
  94.3700012 122.2814997  80.4969988  95.9430012 121.5194997  80.3559988
  94.5400012 120.9554997  78.8109988  94.9330012 119.9464997  78.5639988
  93.4430012 121.1124997  78.7289988  95.4020012 121.8144997  77.7709988
  96.4320012 121.8664997  78.1859988  95.3080012 121.2854997  76.7979988
  94.7860012 123.2234997  77.5219988  93.6910012 123.0964997  77.3809988
  94.8460012 123.7284997  78.5099988  95.4690012 124.0854997  76.4669988
  95.4600012 125.1864997  76.6189988  96.5300012 123.7654997  76.4009988
  94.9240012 123.6594997  75.0609988  95.1040012 122.5694997  74.9359988
  93.8400012 123.8564997  74.9239988  95.6730012 124.1984997  73.8539988
  96.7660012 124.0774997  74.0139988  95.3170012 123.4744997  73.0899988
  95.1970012 125.5804997  73.3009988  94.2500012 125.5044997  72.7259988
  94.9630012 126.2594997  74.1489988  96.1640012 126.1994997  72.3079988
  95.6140012 127.0144997  71.7919988  96.9600012 126.6454997  72.9419988
  96.7500012 125.3304997  71.2619988  97.4360012 125.9274997  70.6229988
  97.4310012 124.6244997  71.7839988  95.7020012 124.5524997  70.4029988
  94.7020012 124.4184997  70.8669988  95.3860012 125.0824997  69.4779988
  96.2870012 123.1854997  69.8639988  97.0580012 123.4304997  69.1029988
  96.8740012 122.7844997  70.7179988  95.1710012 122.2204997  69.3559988
  94.2380012 122.4054997  69.9289988  94.9420012 122.4104997  68.2849988
  95.5570012 120.7654997  69.5099988  96.5060012 120.6214997  68.9509988
  95.7360012 120.4914997  70.5719988  94.4240012 119.9404997  68.9439988
  93.4680012 119.6884997  69.6749988  94.6110012 119.5694997  67.6579988
  93.6920012 118.6434997  67.0839988  94.2440012 117.9094997  66.4579988
  93.0230012 118.1054997  67.7889988  92.8180012 119.3584997  66.0919988
  92.2950012 118.5364997  65.5579988  93.7230012 120.1494997  65.0639988
  94.5560012 119.4774997  64.7659988  93.0060012 120.2844997  64.2269988
  94.1530012 121.3774997  65.5689988  94.9190012 122.3634997  64.6219988
  93.8280012 123.1764997  64.0419988  93.0340012 124.2474997  64.5389988
  92.0270012 123.8224997  64.7399988  93.3800012 124.5004997  65.5639988
  93.0940012 125.5084997  63.5589988  92.2740012 126.1934997  63.7179988
  94.0890012 125.9294997  63.5459988  92.7810012 125.2914997  62.1169988
  93.9180012 124.5814997  61.4269988  94.2740012 123.7964997  62.0779988
  93.6090012 124.1264997  60.4979988  94.6920012 125.3074997  61.2239988
  91.5330012 124.4664997  62.0329988  91.6280012 123.4764997  62.4539988
  90.7370012 124.9114997  62.6099988  91.2670012 124.2004997  61.0199988
  92.5200012 126.5764997  61.3879988  91.9920012 126.2814997  60.4929988
  93.4450012 127.0884997  61.1689988  91.9030012 127.2694997  61.9409988
  95.7820012 123.2984997  65.3949988  95.5320012 121.5494997  63.4899988
  91.9960012 120.3094997  66.7769988  90.7240012 120.0884997  66.5929988
  90.2140012 119.0374997  66.1469988  89.9530012 121.3784997  67.0039988
  90.2170012 122.0734997  66.1769988  90.3310012 121.8714997  67.9249988
  88.3990012 121.2434997  67.2869988  87.9030012 120.5054997  66.6199988
  87.9650012 122.2514997  67.1089988  88.0850012 120.8694997  68.7939988
  88.4400012 119.8454997  69.0399988  86.9970012 120.6574997  68.8609988
  88.4490012 121.8984997  69.8749988  88.1000012 122.9424997  69.7299988
  89.5460012 122.0054997  70.0129988  87.8570012 121.5444997  71.2659988
  88.2890012 120.5594997  71.5469988  86.7600012 121.4314997  71.1279988
  88.0220012 122.7474997  72.2689988  87.1060012 122.8314997  72.8909988
  87.9970012 123.7584997  71.8079988  89.2350012 122.7564997  73.2089988
  89.1380012 121.8574997  73.8539988  89.1160012 123.6464997  73.8629988
  90.6540012 122.8464997  72.6389988  91.0050012 123.8674997  72.4299988
  91.4790012 121.7954997  72.4909988  92.4680012 121.9004997  72.0199988
  91.1770012 120.3614997  72.9049988  91.4440012 119.7864997  71.9929988
  90.0880012 120.2074997  73.0579988  91.9990012 119.7734997  74.0499988
  93.0680012 120.0374997  73.9039988  91.8090012 118.6804997  74.1169988
  91.6120012 120.2764997  75.4439988  91.6640012 121.3854997  75.4019988
  92.3980012 119.8724997  76.1159988  90.1680012 119.9694997  76.0459988
  89.7520012 119.0134997  75.6629988  89.5310012 120.7424997  75.5659988
  90.2500012 120.2904997  77.5369988  90.8610012 119.6164997  78.1739988
  89.2300012 119.9804997  77.8509988  90.5090012 121.7494997  77.9419988
  89.7670012 122.4584997  77.5189988  91.4980012 122.0214997  77.5139988
  90.6070012 121.9754997  79.4219988  91.2860012 121.2374997  79.8999988
  89.6130012 121.7594997  79.8679988  91.0520012 123.4234997  79.8409988
  91.3900012 123.5764997  80.8879988  90.2870012 124.1624997  79.5189988
  91.9880012 123.5634997  79.2579988  45.6620012 124.2034997  80.5379988
  46.4710012 124.8434997  80.9519988  45.4840012 123.4274997  81.3119988
  44.7580012 124.8484997  80.5209988  45.9720012 123.5884997  79.1429988
  46.0620012 124.4794997  78.4839988  46.9650012 123.0914997  79.1739988
  44.9450012 122.6704997  78.5409988  44.0320012 123.2574997  78.3059988
  45.3640012 122.2034997  77.6239988  44.4910012 121.6874997  79.6269988
  44.0990012 122.0774997  80.5909988  43.9130012 120.8354997  79.2089988
  45.7260012 120.8354997  80.2619988  46.6280012 121.4314997  80.5209988
  45.4250012 120.2264997  81.1419988  46.3070012 119.8194997  79.2559988
  46.7930012 120.4214997  78.4589988  47.0430012 119.2694997  79.8799988
  45.2740012 118.7884997  78.8989988  44.9210012 118.3984997  79.8779988
  44.4320012 119.2174997  78.3139988  45.9860012 117.6704997  78.1079988
  46.6030012 117.0534997  78.7959988  45.1790012 117.0864997  77.6149988
  46.9040012 118.2014997  76.9309988  47.7740012 118.7854997  77.2999988
  47.4320012 117.3514997  76.4469988  46.2280012 119.0754997  75.9499988
  45.2020012 118.6584997  75.8589988  46.0250012 120.1194997  76.2689988
  46.8480012 118.9844997  74.5799988  47.8300012 119.4444997  74.8189988
  46.8790012 117.9144997  74.2789988  46.1980012 119.8534997  73.4869988
  45.8560012 120.7624997  74.0279988  46.8920012 120.1674997  72.6779988
  44.9940012 119.1584997  72.7899988  45.2950012 118.2974997  72.1559988
  44.2250012 118.8114997  73.5129988  44.2560012 120.1594997  71.9269988
  43.3900012 119.5324997  71.6249988  43.8300012 120.9024997  72.6349988
  45.1330012 120.5884997  70.7699988  45.9240012 121.2684997  71.1519988
  45.9140012 119.8904997  70.3979988  44.2840012 121.2504997  69.6889988
  43.1000012 121.2484997  69.8379988  44.8780012 121.7754997  68.6489988
  43.9890012 122.2534997  67.6319988  43.2140012 121.4754997  67.4639988
  43.5400012 123.2084997  67.9799988  44.6760012 122.4784997  66.2809988
  43.8490012 122.7724997  65.5999988  45.2590012 121.2364997  65.7319988
  45.7680012 120.7464997  66.5889988  44.5330012 120.5084997  65.3099988
  46.3890012 121.4234997  64.8319988  46.2960012 122.2394997  63.4679988
  47.4770012 121.4674997  62.7509988  47.7200012 120.0084997  62.7129988
  46.7570012 119.5084997  62.9519988  47.9210012 119.6194997  61.6919988
  48.7350012 119.6424997  63.8099988  48.5330012 120.4574997  64.4899988
  48.6200012 118.6714997  64.2689988  50.2650012 119.7634997  63.5659988
  50.6080012 121.0694997  62.9039988  51.6760012 121.1214997  62.7499988
  50.0890012 121.1394997  61.9599988  50.2960012 121.7854997  63.6499988
  50.9740012 119.7234997  64.8449988  52.0180012 119.9374997  64.6689988
  50.7680012 120.6264997  65.4019988  50.7940012 118.7804997  65.3399988
  50.7720012 118.5704997  62.7229988  50.1670012 118.5764997  61.8289988
  50.6160012 117.6584997  63.2799988  51.7870012 118.7174997  62.3839988
  44.9850012 121.9844997  62.8499988  46.7990012 123.6084997  63.7179988
  45.5930012 123.5374997  66.3949988  45.0650012 124.8094997  66.4769988
  43.8960012 125.1374997  66.5759988  46.3040012 125.7754997  66.7179988
  46.0200012 126.8484997  66.7609988  47.0590012 125.6094997  65.9209988
  46.9970012 125.3194997  68.0689988  48.0020012 125.7434997  68.2809988
  47.1730012 124.2234997  68.1099988  46.2350012 125.8214997  69.3059988
  45.1750012 125.6294997  69.0339988  46.4380012 126.9134997  69.3499988
  46.4650012 125.1394997  70.6679988  47.4730012 125.3834997  71.0669988
  46.5450012 124.0474997  70.4739988  45.3840012 125.4284997  71.7119988
  44.4540012 125.2094997  71.1459988  45.4170012 126.5274997  71.8759988
  45.4470012 124.7034997  73.0519988  45.2500012 123.6394997  72.8019988
  44.7130012 125.0304997  73.8199988  46.7470012 124.6904997  73.8429988
  46.9610012 125.7474997  74.1109988  47.5710012 124.3754997  73.1669988
  46.8130012 123.8014997  75.0749988  45.9070012 123.1884997  75.1899988
  47.8220012 123.5744997  75.9519988  47.4800012 123.1024997  76.8859988
  49.2010012 124.1564997  75.9679988  49.4810012 124.3384997  77.0279988
  49.1880012 125.1604997  75.4919988  50.3310012 123.3214997  75.3289988
  51.2410012 123.9444997  75.4639988  50.1310012 123.1954997  74.2429988
  50.5160012 121.9564997  76.0569988  51.3630012 121.4504997  75.5459988
  49.5760012 121.3984997  75.8579988  50.6630012 121.8384997  77.5219988
  49.8940012 122.4264997  78.0689988  51.5920012 122.3834997  77.7929988
  50.6310012 120.3944997  78.0819988  51.4610012 119.8014997  77.6409988
  49.6870012 119.8354997  77.9119988  50.8050012 120.3404997  79.6249988
  51.7690012 120.8194997  79.9009988  50.9270012 119.2924997  79.9719988
  49.7200012 120.8594997  80.5469988  48.8050012 120.2364997  80.4559988
  49.6280012 121.9514997  80.3619988  50.1010012 120.7684997  82.0259988
  49.4280012 121.2724997  82.7529988  51.1440012 120.9834997  82.3409988
  50.0660012 119.7044997  82.3429988  26.9290012  42.3494997  81.3249988
  26.5840012  42.5944997  80.2979988  27.9720012  42.6674997  81.5389988
  26.2890012  42.8464997  82.0849988  26.9130012  40.8084997  81.4869988
  27.4660012  40.5434997  82.4129988  25.8640012  40.4504997  81.4069988
  27.5510012  40.0844997  80.3659988  26.9840012  40.4104997  79.4679988
  28.5650012  40.5384997  80.3619988  27.6110012  38.5734997  80.3569988
  27.9130012  38.1424997  81.3349988  26.5880012  38.1654997  80.2059988
  28.4220012  37.9474997  79.2209988  29.4670012  37.9594997  79.5989988
  28.2410012  36.8584997  79.0999988  28.4290012  38.5994997  77.8069988
  27.3690012  38.6464997  77.4779988  28.6630012  39.6814997  77.8939988
  29.4800012  37.9954997  76.7929988  30.5420012  38.2404997  77.0099988
  29.2730012  36.9284997  77.0239988  29.1120012  38.2514997  75.3329988
  29.6710012  37.5044997  74.7309988  28.0320012  38.0034997  75.2609988
  29.5210012  39.6544997  74.8009988  30.5970012  39.9044997  74.9129988
  29.3370012  39.5224997  73.7129988  28.6660012  40.8624997  75.1969988
  27.5810012  40.7064997  75.0179988  28.8370012  41.0724997  76.2749988
  29.0170012  42.1474997  74.5059988  28.2810012  42.9234997  74.8069988
  30.0270012  42.3734997  74.9089988  28.9960012  42.0334997  72.9279988
  29.2730012  43.0394997  72.5469988  29.7570012  41.2924997  72.6029988
  27.6720012  41.7604997  72.2279988  27.2200012  41.0294997  72.9319988
  26.9250012  42.5814997  72.1869988  27.7260012  41.2664997  70.8079988
  28.5670012  40.5404997  70.7819988  26.8430012  40.6994997  70.4419988
  27.8760012  42.4394997  69.7569988  27.0370012  42.4564997  69.0299988
  27.8690012  43.4334997  70.2529988  29.2240012  42.3734997  69.0909988
  30.1650012  43.1204997  69.2929988  29.1440012  41.3944997  68.1849988
  30.3030012  41.1494997  67.4259988  30.2580012  41.8744997  66.5849988
  31.2640012  41.2644997  67.9719988  30.2630012  39.6074997  66.9709988
  31.3040012  39.4344997  66.6249988  29.3040012  39.5124997  65.7049988
  29.3010012  40.4564997  65.1199988  29.7560012  38.6454997  65.1759988
  28.0150012  39.2294997  66.1639988  27.0180012  38.5554997  65.1309988
  27.7580012  38.4484997  63.7299988  27.0270012  37.9344997  62.5969988
  26.3580012  37.1254997  62.9639988  26.3320012  38.6584997  62.1209988
  28.0240012  37.4814997  61.5519988  27.5330012  36.9104997  60.7779988
  28.4210012  38.3794997  61.1009988  29.1480012  36.6164997  61.9949988
  28.6390012  35.3824997  62.6249988  27.7100012  35.6194997  63.1219988
  28.4650012  34.7144997  61.7949988  29.2540012  34.9784997  63.4159988
  30.0750012  36.1854997  60.8289988  29.5060012  35.8594997  59.9699988
  30.8270012  36.9474997  60.6859988  30.5460012  35.2744997  61.1659988
  30.0860012  37.2904997  62.9119988  30.8160012  36.5954997  63.3019988
  29.4760012  37.6274997  63.7369988  30.6440012  38.0774997  62.4259988
  26.7490012  37.1964997  65.6699988  25.7770012  39.3804997  64.9769988
  29.8810012  38.7954997  68.1489988  29.9940012  37.4364997  68.0079988
  30.4740012  36.9174997  67.0319988  29.3770012  36.7264997  69.1149988
  28.7310012  35.9304997  68.6869988  28.6360012  37.3644997  69.6429988
  30.3060012  36.2474997  70.2389988  30.6140012  37.0614997  70.9299988
  31.2580012  35.7804997  69.9089988  29.3930012  35.3044997  71.2379988
  28.5460012  34.8654997  70.6689988  28.9060012  35.9644997  71.9859988
  30.1160012  34.2394997  71.9939988  30.8930012  34.6834997  72.6539988
  30.4700012  33.4734997  71.2719988  29.2030012  33.4054997  72.9479988
  29.7520012  32.4624997  73.1579988  28.3450012  33.1264997  72.2999988
  28.7520012  34.1894997  74.1819988  27.8500012  34.7814997  73.9159988
  29.4910012  34.8534997  74.6779988  28.3090012  33.1794997  75.2339988
  29.1410012  32.4794997  75.4629988  27.4900012  32.5704997  74.7939988
  27.7540012  33.7464997  76.5439988  26.6690012  33.9254997  76.5439988
  28.3210012  34.0084997  77.7179988  27.5540012  34.2254997  78.4769988
  29.7840012  33.8334997  78.1179988  29.9910012  34.8024997  78.6209988
  30.5110012  33.6244997  77.3029988  29.6650012  32.7394997  79.1849988
  30.7130012  32.4114997  79.3549988  29.2670012  31.8444997  78.6609988
  28.7910012  33.0054997  80.4749988  28.9050012  32.1244997  81.1429988
  27.7070012  32.9894997  80.2319988  29.1370012  34.3174997  81.2889988
  28.9940012  35.0764997  80.4899988  30.2020012  34.3954997  81.5939988
  28.2530012  34.7564997  82.5809988  28.7250012  35.7174997  82.8759988
  28.2940012  34.0344997  83.4239988  26.7870012  34.9794997  82.1559988
  26.4240012  33.9794997  81.8369988  26.6470012  35.4104997  81.1409988
  25.9650012  35.5604997  83.2449988  26.3420012  36.5904997  83.4199988
  26.2680012  34.9694997  84.1359988  24.4980012  35.5254997  83.0739988
  24.0470012  36.1124997  83.9029988  24.1750012  34.4684997  83.1909988
  24.1950012  36.0024997  82.1179988 128.6200012  76.0524997  85.5049988
 128.2400012  77.0934997  85.4199988 129.7260012  76.1564997  85.5259988
 128.3120012  75.7554997  86.5299988 128.0670012  75.1434997  84.4229988
 128.6440012  75.3844997  83.5049988 128.2690012  74.0544997  84.5169988
 126.5500012  75.2594997  83.9929988 125.8640012  75.3074997  84.8649988
 126.4680012  76.2454997  83.4889988 126.0550012  74.2484997  82.9949988
 125.9510012  73.4194997  83.7269988 125.0770012  74.6684997  82.6749988
 127.0210012  73.9144997  81.8929988 127.3390012  74.9084997  81.5099988
 127.9530012  73.4634997  82.2959988 126.5130012  72.8074997  80.8989988
 126.9250012  71.8004997  81.1249988 125.4050012  72.7404997  80.8739988
 126.9070012  73.1354997  79.4519988 127.9930012  73.3304997  79.5819988
 126.8840012  72.2354997  78.8009988 126.3210012  74.2734997  78.6919988
 125.6700012  73.8654997  77.8889988 125.6260012  74.7914997  79.3869988
 127.2960012  75.3664997  78.1229988 127.6580012  75.9144997  79.0189988
 128.0310012  74.7774997  77.5339988 126.6730012  76.4024997  77.0999988
 125.8930012  75.7884997  76.6019988 126.0170012  77.1534997  77.5899988
 127.6440012  77.0414997  76.1359988 128.0720012  78.0374997  76.3769988
 128.4600012  76.2964997  76.0149988 126.9900012  77.1604997  74.7309988
 126.5170012  76.1644997  74.5999988 126.1020012  77.8164997  74.8549988
 127.9740012  77.5934997  73.5839988 128.1570012  78.6894997  73.6029988
 128.9040012  77.0184997  73.7799988 127.8120012  77.2474997  72.1029988
 128.8320012  77.1874997  71.6669988 127.3950012  76.2184997  72.0589988
 126.9030012  78.1994997  71.2989988 125.8720012  78.0494997  71.6839988
 127.1620012  79.2724997  71.4289988 126.9380012  77.9524997  69.7689988
 126.2630012  77.0974997  69.2109988 127.9310012  78.6234997  69.2249988
 128.0530012  78.4974997  67.8249988 127.0460012  78.3694997  67.3729988
 128.4370012  79.4704997  67.4509988 128.9710012  77.3414997  67.3899988
 129.9500012  77.4804997  67.8959988 129.3020012  77.5524997  65.9579988
 128.5700012  78.1794997  65.4039988 130.2030012  78.2004997  65.9049988
 129.5430012  76.3074997  65.3079988 128.5110012  75.5374997  64.2919988
 129.2840012  74.0944997  63.9039988 128.7990012  72.9044997  64.5249988
 129.1480012  72.8594997  65.5789988 127.6960012  72.7754997  64.4929988
 129.4810012  71.6514997  63.9319988 130.5440012  71.7254997  64.1119988
 129.0310012  70.8014997  64.4239988 129.3520012  71.4024997  62.4059988
 130.1940012  72.4354997  61.6109988 129.8410012  72.3944997  60.5909988
 130.1190012  73.4434997  61.9929988 131.2370012  72.1544997  61.5979988
 129.8260012  69.9644997  62.1069988 130.8260012  69.8984997  62.5119988
 129.2160012  69.3254997  62.7289988 129.7920012  69.7824997  61.0429988
 127.9000012  71.5214997  61.9399988 127.5220012  70.5134997  61.8649988
 127.9770012  71.8714997  60.9209988 127.2500012  72.1994997  62.4739988
 127.2960012  75.3314997  65.0549988 128.4030012  76.4064997  63.0999988
 128.3410012  76.0224997  67.5719988 129.1440012  75.1754997  68.2399988
 130.2870012  75.3574997  68.4839988 128.3340012  73.9094997  68.4829988
 128.3230012  73.2974997  67.5549988 127.2410012  74.0514997  68.6279988
 129.0860012  73.0214997  69.4769988 130.1730012  72.9624997  69.2539988
 128.7890012  71.9514997  69.4379988 128.9670012  73.4384997  70.9509988
 129.2110012  74.5174997  71.0559988 129.5650012  72.7784997  71.6149988
 127.4840012  73.3454997  71.5159988 127.2400012  72.2864997  71.2849988
 126.8550012  74.0834997  70.9739988 127.2250012  73.5254997  73.0139988
 126.1300012  73.6894997  73.1039988 127.8730012  74.3814997  73.2999988
 127.5260012  72.2284997  73.7219988 128.4040012  71.8954997  73.1279988
 126.7920012  71.4324997  73.4729988 127.8860012  72.2834997  75.2149988
 126.9590012  72.7084997  75.6569988 128.6760012  73.0534997  75.3469988
 128.1020012  70.8494997  75.8409988 127.3430012  70.0904997  75.6019988
 129.2250012  70.4524997  76.4379988 129.2870012  69.4424997  76.8699988
 130.5320012  71.3164997  76.6349988 130.6920012  71.9124997  75.7109988
 131.4330012  70.6714997  76.7179988 130.3280012  72.1824997  77.8979988
 130.3680012  71.5294997  78.7959988 129.4890012  72.9054997  77.8239988
 131.6310012  72.9764997  78.0299988 131.9480012  73.3224997  77.0239988
 132.4190012  72.3974997  78.5569988 131.5520012  74.2834997  78.8739988
 130.7770012  74.9744997  78.4789988 132.5490012  74.7674997  78.7929988
 131.3000012  73.9984997  80.3249988 132.2550012  73.7694997  80.8439988
 130.6160012  73.1344997  80.4659988 130.6200012  75.2724997  80.9959988
 130.6070012  75.1324997  82.0979988 129.5390012  75.4124997  80.7809988
 131.3040012  76.5114997  80.7289988 131.0970012  76.8054997  79.6769988
 132.4040012  76.3944997  80.8299988 130.8380012  77.6604997  81.6149988
 131.2840012  77.6984997  82.6319988 129.7300012  77.5954997  81.5559988
 131.1920012  78.5464997  81.0459988 126.4690012  83.2994997  83.5899988
 126.7460012  82.2844997  83.2349988 125.5390012  83.4574997  83.0029988
 126.1360012  83.1304997  84.6359988 127.3900012  84.4304997  83.4199988
 126.8050012  85.3724997  83.4989988 128.1540012  84.5874997  84.2099988
 128.1050012  84.4554997  82.0689988 127.4410012  84.4384997  81.1789988
 128.5430012  85.4754997  82.0149988 129.2770012  83.5414997  82.0889988
 129.8340012  83.8474997  82.9999988 128.8410012  82.5454997  82.3179988
 130.2070012  83.6124997  80.8399988 130.5120012  84.6804997  80.8319988
 131.0920012  82.9994997  81.1159988 129.5880012  83.1524997  79.6029988
 129.7610012  82.0564997  79.5479988 128.4940012  83.2954997  79.7399988
 129.9000012  83.8054997  78.2939988 130.9920012  83.8694997  78.1019988
 129.4790012  83.1914997  77.4689988 129.3200012  85.1834997  78.0579988
 128.2190012  85.1024997  78.1889988 129.7440012  85.9024997  78.7919988
 129.4820012  85.7534997  76.6549988 129.1230012  86.8034997  76.6109988
 130.5830012  85.7254997  76.5119988 128.8130012  84.8934997  75.5849988
 129.2640012  83.8814997  75.6659988 127.7190012  84.8784997  75.7799988
 129.1390012  85.4354997  74.1239988 129.2890012  86.5354997  74.1029988
 130.1840012  85.1504997  73.8769988 128.2930012  84.7424997  72.9739988
 128.8410012  85.0114997  72.0459988 128.3000012  83.6404997  73.1139988
 126.8710012  85.3304997  72.9879988 126.4160012  84.9644997  73.9329988
 126.8720012  86.4414997  72.9599988 125.9540012  84.9054997  71.7599988
 124.9400012  85.3544997  71.8369988 126.4550012  85.3744997  70.8859988
 125.8980012  83.3724997  71.6009988 126.9610012  83.0714997  71.4819988
 125.3530012  82.8994997  72.4449988 125.2700012  83.1134997  70.2279988
 124.3620012  83.7524997  69.7429988 125.9380012  82.2304997  69.6499988
 125.5400012  81.9524997  68.3019988 126.0620012  81.0134997  68.0209988
 124.4490012  81.8624997  68.1099988 125.9970012  83.0444997  67.3369988
 125.4240012  83.9664997  67.5709988 125.8420012  82.8284997  65.7979988
 124.8710012  82.3094997  65.6519988 125.7100012  83.7934997  65.2639988
 127.0390012  82.2754997  65.2559988 127.2170012  80.7814997  64.8279988
 127.8150012  80.9334997  63.3249988 127.1160012  81.7714997  62.4459988
 127.2430012  81.3924997  61.4089988 126.0080012  81.7354997  62.5189988
 127.5460012  83.2684997  62.3859988 127.0890012  83.7684997  61.5449988
 127.1380012  83.8174997  63.2219988 129.0260012  83.6074997  62.3309988
 129.7820012  83.2414997  63.6139988 129.4580012  83.8614997  64.4369988
 129.4760012  82.2384997  63.8739988 130.8280012  83.4304997  63.4239988
 129.6200012  82.7714997  61.2169988 129.6430012  81.7394997  61.5329988
 129.0120012  82.9284997  60.3379988 130.6060012  83.1564997  61.0029988
 129.2390012  85.1324997  62.0879988 130.2720012  85.4434997  62.0519988
 128.8810012  85.6024997  62.9919988 128.8090012  85.5214997  61.1769988
 128.2520012  80.2474997  65.7299988 125.9000012  80.1254997  64.9619988
 127.4220012  83.2174997  67.6039988 127.8730012  84.4624997  67.7399988
 127.1890012  85.4314997  67.5379988 129.3070012  84.5594997  68.1429988
 129.5220012  85.5964997  68.4809988 129.9130012  84.3394997  67.2379988
 129.7830012  83.6494997  69.3169988 128.9780012  83.3844997  70.0349988
 130.5680012  84.0884997  69.9689988 130.3420012  82.3314997  68.8459988
 131.0610012  82.5104997  68.0179988 129.5720012  81.6474997  68.4299988
 131.0810012  81.6524997  69.9579988 131.6460012  82.4234997  70.5229988
 131.9110012  80.9894997  69.6319988 130.2710012  80.7994997  70.8509988
 130.1860012  79.7984997  70.3759988 129.3450012  81.3784997  71.0519988
 130.9630012  80.4134997  72.2469988 131.0900012  81.2534997  72.9629988
 131.9680012  79.9654997  72.0889988 130.1070012  79.3214997  73.0169988
 130.3480012  79.2164997  74.0969988 130.3040012  78.3134997  72.5929988
 128.5760012  79.4944997  72.9179988 128.0700012  79.1134997  72.0189988
 127.7630012  80.1114997  73.7959988 126.7130012  80.1734997  73.4739988
 128.1200012  80.6844997  75.1219988 127.7030012  81.6994997  75.2979988
 129.2300012  80.7144997  75.1629988 127.5480012  79.7424997  76.1539988
 127.5990012  78.6854997  75.8149988 126.4940012  80.0794997  76.2489988
 128.2710012  79.8814997  77.5649988 128.8160012  80.8464997  77.6459988
 129.0410012  79.1204997  77.8149988 127.3700012  79.7164997  78.8049988
 127.9840012  79.7524997  79.7299988 126.8380012  78.7684997  78.5769988
 126.4740012  80.9684997  78.9309988 125.7340012  81.0684997  78.1089988
 127.1240012  81.8604997  79.0539988 125.6290012  80.9744997  80.2409988
 125.0800012  81.9394997  80.2169988 126.2710012  80.9104997  81.1449988
 124.6100012  79.9334997  80.3409988 125.0400012  78.9114997  80.2639988
 123.9460012  80.0844997  79.4639988 123.7820012  80.0364997  81.6319988
 123.1890012  80.9594997  81.8019988 124.4790012  80.0804997  82.4959988
 123.1260012  79.1394997  81.6239988 131.7180012  62.2914997  80.3399988
 132.2280012  62.8824997  79.5489988 132.0750012  61.2434997  80.4329988
 131.9550012  62.8004997  81.2979988 130.1930012  62.4024997  80.2219988
 129.6980012  61.8924997  81.0749988 129.8910012  63.4694997  80.2849988
 129.6120012  61.6434997  79.0509988 129.7580012  60.5604997  79.2489988
 128.5200012  61.8184997  79.1609988 130.0590012  62.0184997  77.5809988
 130.9440012  61.3594997  77.4479988 129.2610012  61.6944997  76.8799988
 130.2420012  63.5184997  77.4219988 129.3940012  63.9554997  77.9909988
 131.2310012  63.9134997  77.7389988 130.1300012  63.8364997  75.8689988
 129.0560012  63.8214997  75.5839988 130.5420012  64.8604997  75.7449988
 130.8500012  62.9584997  74.8409988 131.7830012  62.4364997  75.1429988
 130.1840012  62.1224997  74.5359988 131.0630012  63.6994997  73.5209988
 130.2040012  64.3364997  73.2199988 131.9720012  64.3344997  73.5779988
 131.2710012  62.8444997  72.2989988 131.8910012  61.9964997  72.6599988
 130.3290012  62.3414997  71.9909988 131.7150012  63.8184997  71.1359988
 130.9830012  64.6464997  71.0269988 132.7260012  64.2494997  71.2979988
 131.7580012  63.2414997  69.6839988 130.7300012  62.8574997  69.5089988
 132.0470012  64.0374997  68.9649988 132.8050012  62.1974997  69.2809988
 132.7750012  62.1254997  68.1729988 133.8530012  62.4684997  69.5329988
 132.5190012  60.8324997  69.8729988 133.3350012  60.1704997  69.5119988
 132.6440012  60.9114997  70.9739988 131.1250012  60.3104997  69.5059988
 131.0510012  59.2794997  69.9129988 130.2730012  60.8584997  69.9629988
 130.8880012  60.1264997  68.0239988 131.1170012  61.0764997  67.4959988
 131.5530012  59.3524997  67.5849988 129.4240012  59.7774997  67.7729988
 128.5320012  59.8294997  68.5719988 129.3010012  59.4324997  66.4779988
 127.8990012  59.3794997  65.9939988 127.8990012  58.7664997  65.0679988
 127.2090012  58.9134997  66.7299988 127.5000012  60.8714997  65.5139988
 126.3980012  60.9254997  65.3819988 128.2500012  61.1914997  64.1729988
 129.3460012  61.0124997  64.1539988 127.6120012  60.5974997  63.4839988
 128.1550012  62.5154997  63.8029988 128.3320012  62.9014997  62.2879988
 129.5450012  63.9904997  62.4149988 130.6970012  63.7784997  63.2259988
 130.8350012  62.7054997  63.4809988 131.6010012  64.1254997  62.6819988
 130.7420012  64.5364997  64.5609988 130.1350012  63.9714997  65.2529988
 131.7140012  64.4434997  65.0229988 130.3530012  66.0584997  64.5969988
 131.4150012  66.7934997  63.8599988 132.3580012  66.4154997  64.2259988
 131.3600012  66.6824997  62.7869988 131.3770012  67.8504997  64.0789988
 128.9980012  66.3564997  63.9569988 128.9510012  65.9564997  62.9549988
 128.1900012  65.9544997  64.5509988 128.7970012  67.4084997  63.8249988
 130.2930012  66.4424997  66.0329988 131.3070012  66.4704997  66.4029988
 129.8610012  65.6814997  66.6649988 129.8520012  67.4134997  66.2069988
 128.6690012  61.6804997  61.5049988 127.0710012  63.5554997  61.9349988
 127.8420012  61.7354997  66.5939988 127.2780012  62.8634997  66.6899988
 126.3040012  63.2714997  66.0449988 128.2440012  63.7044997  67.4829988
 128.9040012  64.1444997  66.7049988 128.7730012  63.0714997  68.2269988
 127.4810012  64.7524997  68.2769988 126.8330012  65.4454997  67.6989988
 128.2400012  65.4694997  68.6569988 126.7730012  64.1704997  69.4949988
 126.2730012  63.2094997  69.2489988 125.9390012  64.8274997  69.8199988
 127.7590012  63.8374997  70.6459988 128.1480012  64.8194997  70.9919988
 128.6570012  63.2844997  70.2959988 127.1680012  63.1144997  71.9119988
 126.1420012  63.5094997  72.0709988 127.8190012  63.2734997  72.7989988
 127.0350012  61.6494997  71.5949988 128.0310012  61.2404997  71.3219988
 126.3860012  61.5314997  70.6999988 126.4750012  60.7404997  72.7669988
 126.4850012  59.6804997  72.4339988 125.3730012  60.8684997  72.8249988
 127.1430012  60.8424997  74.0859988 128.1840012  60.4894997  74.0349988
 126.7030012  61.4984997  75.1679988 127.3040012  61.4214997  76.0859988
 125.4230012  62.2364997  75.4249988 124.9040012  61.8034997  76.3059988
 124.7810012  62.3094997  74.5209988 125.6200012  63.7264997  75.8729988
 124.6650012  64.2914997  75.8029988 126.3140012  64.3064997  75.2279988
 126.1580012  63.9744997  77.2879988 126.4890012  65.0314997  77.3729988
 127.1010012  63.3884997  77.3399988 125.1540012  63.7224997  78.3609988
 124.3670012  62.9644997  78.1569988 124.5300012  64.6404997  78.3639988
 125.8240012  63.5344997  79.7639988 126.4480012  64.4334997  79.9499988
 126.3390012  62.5694997  79.5669988 124.7320012  63.2774997  80.8289988
 123.8890012  62.7334997  80.3529988 124.2170012  64.2294997  81.0799988
 125.4720012  62.5244997  81.9689988 126.0230012  61.6534997  81.5549988
 124.8320012  62.0594997  82.7499988 126.4370012  63.4664997  82.6709988
 125.8790012  64.4074997  82.8619988 127.3250012  63.6904997  82.0419988
 126.8100012  63.0494997  83.6299988 127.8780012  39.4174997  80.0759988
 127.3470012  39.2894997  81.0439988 128.9640012  39.2364997  80.2249988
 127.5940012  38.6634997  79.3119988 127.4370012  40.8364997  79.5679988
 126.3680012  40.8014997  79.2659988 127.7550012  41.5424997  80.3649988
 128.2380012  41.2354997  78.2739988 129.3450012  41.3264997  78.2719988
 128.1060012  40.5174997  77.4359988 127.7550012  42.5864997  77.7259988
 126.6800012  42.7724997  77.9369988 128.3240012  43.3754997  78.2629988
 128.1650012  42.7424997  76.2449988 129.2690012  42.6604997  76.1489988
 127.8040012  41.8914997  75.6289988 127.7710012  44.1814997  75.7479988
 128.0360012  45.0134997  76.4349988 128.3250012  44.2404997  74.7869988
 126.2780012  44.2974997  75.5689988 125.6950012  44.0374997  76.4779988
 126.1450012  45.3904997  75.4179988 125.5620012  43.4324997  74.4579988
 126.2320012  43.2944997  73.5829988 125.3600012  42.4284997  74.8879988
 124.2140012  43.9794997  73.9849988 123.3750012  43.7874997  74.6879988
 124.2640012  45.0754997  73.8109988 123.7220012  43.3594997  72.6609988
 122.8360012  43.9184997  72.2919988 124.4220012  43.3914997  71.7989988
 123.5220012  41.8224997  72.8379988 124.4900012  41.2914997  72.9649988
 122.8230012  41.5954997  73.6709988 122.7770012  41.0974997  71.7239988
 122.4180012  40.0634997  71.9119988 121.9980012  41.7854997  71.3319988
 123.7310012  41.0454997  70.4639988 124.0230012  42.0904997  70.2269988
 124.6290012  40.4194997  70.6519988 122.9890012  40.4514997  69.2719988
 122.8420012  39.3634997  69.4429988 121.9400012  40.7964997  69.1429988
 123.7850012  40.5814997  67.9789988 124.8070012  40.1604997  68.0929988
 123.2490012  39.9144997  67.2709988 123.8500012  42.0564997  67.4669988
 122.8710012  42.7934997  67.4909988 125.1140012  42.3904997  67.0459988
 125.2880012  43.8154997  66.7809988 124.7640012  44.0954997  65.8419988
 124.7960012  44.4204997  67.5729988 126.7900012  44.1984997  66.7999988
 126.8730012  45.2744997  67.0659988 127.3490012  43.8674997  65.4209988
 126.5570012  44.2964997  64.7709988 128.3380012  44.3714997  65.3739988
 127.6240012  42.4614997  65.2009988 126.9450012  41.8654997  63.8959988
 125.6290012  42.6594997  63.7219988 124.9520012  42.4394997  62.5219988
 125.1780012  43.2734997  61.8239988 125.1590012  41.5314997  61.9159988
 123.5140012  42.4954997  62.8709988 123.4950012  43.2074997  63.6829988
 122.9500012  42.9414997  62.0649988 122.7300012  41.2304997  63.2509988
 121.4050012  41.7534997  63.7089988 120.7190012  41.9894997  62.9099988
 120.9890012  41.1534997  64.5059988 121.6500012  42.6924997  64.1829988
 122.5950012  40.4234997  61.9999988 122.1480012  39.4874997  62.3009988
 122.0510012  40.9404997  61.2239988 123.5430012  40.1944997  61.5359988
 123.4580012  40.4224997  64.1869988 123.5320012  40.8444997  65.1779988
 124.4930012  40.2134997  63.9569988 122.9080012  39.4934997  64.1829988
 127.8390012  42.1084997  62.7449988 126.6120012  40.4804997  64.0759988
 127.5570012  43.4424997  67.7559988 127.2620012  43.6974997  69.0879988
 126.4290012  44.4924997  69.4589988 128.1930012  42.9024997  69.9149988
 129.1920012  43.3124997  69.6539988 128.1000012  41.8534997  69.5599988
 127.9630012  42.9874997  71.4739988 126.8830012  42.7754997  71.6219988
 128.1040012  44.0494997  71.7679988 128.8920012  42.0974997  72.2949988
 128.6780012  42.1954997  73.3809988 129.9680012  42.3414997  72.1679988
 128.7110012  40.6374997  71.9729988 129.7070012  40.1554997  71.8789988
 128.1610012  40.4654997  71.0229988 127.9050012  39.8624997  73.0169988
 126.9390012  40.3664997  73.2349988 128.4730012  39.8234997  73.9709988
 127.7350012  38.3654997  72.6499988 128.7410012  37.9074997  72.7639988
 127.3870012  38.2644997  71.5999988 126.7470012  37.7074997  73.5999988
 126.7240012  36.6264997  73.3449988 125.7670012  38.1904997  73.3999988
 127.2230012  37.7594997  75.0659988 128.3000012  37.9704997  75.1349988
 126.5860012  37.6504997  76.1759988 127.2350012  37.7524997  77.0589988
 125.1070012  37.3664997  76.3039988 124.7910012  37.0194997  77.3109988
 124.8360012  36.6294997  75.5179988 124.2480012  38.6244997  76.1209988
 123.1840012  38.3074997  76.1059988 124.4510012  39.1714997  75.1749988
 124.3450012  39.7004997  77.2139988 125.2610012  40.2884997  76.9919988
 124.3130012  39.1944997  78.2029988 123.1460012  40.6884997  77.1389988
 122.2520012  40.3194997  77.6859988 122.8390012  40.8124997  76.0779988
 123.5670012  42.1104997  77.6519988 124.3170012  42.4584997  76.9099988
 123.9870012  41.9134997  78.6619988 122.3760012  43.0784997  77.7329988
 121.8420012  43.1544997  76.7619988 122.6760012  44.1234997  77.9589988
 121.4430012  42.8014997  78.9819988 120.9580012  41.8024997  78.9369988
 120.5770012  43.4534997  78.7419988 122.1590012  43.1384997  80.2839988
 121.3950012  42.9784997  81.0749988 122.6750012  44.1214997  80.3309988
 122.9820012  42.4524997  80.5779988  20.6840012  53.6604997  81.7029988
  21.1940012  54.5144997  81.2079988  21.0750012  52.6744997  81.3749988
  20.9850012  53.7394997  82.7699988  19.1460012  53.8054997  81.8319988
  18.7820012  53.3904997  82.7969988  18.9520012  54.8994997  81.8259988
  18.2210012  53.2594997  80.6469988  17.1400012  53.4554997  80.8119988
  18.4550012  53.9214997  79.7859988  18.2930012  51.8224997  80.3459988
  19.3410012  51.4734997  80.4599988  17.7290012  51.3554997  81.1819988
  17.7610012  51.3844997  78.8979988  16.8050012  51.9484997  78.8489988
  18.3390012  51.8864997  78.0929988  17.6150012  49.9024997  78.7179988
  18.5000012  49.4504997  79.2129988  16.6770012  49.6534997  79.2579988
  17.5040012  49.7544997  77.2219988  16.7630012  50.5254997  76.9209988
  18.4410012  50.1944997  76.8199988  17.1900012  48.3434997  76.7289988
  18.0430012  47.6454997  76.8689988  16.3940012  47.8674997  77.3399988
  16.9910012  48.3164997  75.2679988  16.4630012  49.1814997  74.8139988
  17.9870012  48.3034997  74.7759988  16.2380012  46.9884997  74.8729988
  16.5840012  46.2074997  75.5829988  15.1570012  47.2124997  74.9969988
  16.3390012  46.8684997  73.3479988  15.3540012  46.4234997  73.0909988
  16.3280012  47.9054997  72.9499988  17.3120012  45.9234997  72.7569988
  18.3290012  46.3504997  72.6259988  17.3630012  45.0474997  73.4389988
  16.8510012  45.4114997  71.3919988  17.5920012  44.7404997  70.9079988
  15.8450012  44.9404997  71.4149988  16.6150012  46.5584997  70.4089988
  16.4630012  46.0474997  69.4339988  15.7850012  47.2604997  70.6389988
  17.7400012  47.5844997  70.3169988  17.5600012  48.2934997  71.1529988
  18.8220012  47.3334997  70.3089988  17.5520012  48.5444997  68.9799988
  16.6130012  48.5624997  68.1909988  18.6660012  49.2614997  68.8839988
  18.6410012  49.9974997  67.6189988  18.1050012  49.4444997  66.8179988
  18.1760012  50.9984997  67.7499988  20.1600012  50.2484997  67.3229988
  20.5180012  50.9924997  68.0659988  20.2890012  51.0164997  66.0339988
  19.4930012  51.7764997  65.8859988  21.2250012  51.6134997  66.0139988
  20.3710012  50.1054997  64.9369988  20.3540012  50.7334997  63.5269988
  18.8460012  50.6474997  63.0799988  18.3410012  49.6644997  62.2259988
  18.5460012  49.9744997  61.1789988  18.7230012  48.6944997  62.6089988
  16.7780012  49.5624997  62.3099988  16.3890012  50.5524997  62.1239988
  16.4990012  48.8734997  61.5259988  16.1260012  49.1674997  63.6449988
  16.4770012  49.9584997  64.9299988  17.5110012  49.8964997  65.2339988
  16.2390012  51.0084997  64.8399988  15.8580012  49.4974997  65.6859988
  14.6600012  49.3594997  63.4159988  14.3140012  48.8084997  62.5529988
  14.0660012  49.2174997  64.3059988  14.5450012  50.3974997  63.1419988
  16.3750012  47.6684997  63.8759988  17.4240012  47.4434997  63.9999988
  15.8770012  47.1184997  63.0909988  16.0900012  47.2934997  64.8479988
  20.8020012  52.1814997  63.5329988  21.1690012  49.8844997  62.7009988
  20.8330012  49.0074997  67.5009988  22.1670012  49.0904997  67.4729988
  22.7900012  50.1474997  67.4059988  22.7820012  47.7244997  67.5929988
  23.6890012  47.7144997  66.9509988  22.1160012  46.8534997  67.4169988
  23.4030012  47.6894997  69.0519988  23.9750012  48.6314997  69.1929988
  24.1170012  46.8404997  68.9959988  22.4480012  47.4254997  70.1949988
  21.7130012  46.6374997  69.9269988  21.8900012  48.3444997  70.4759988
  23.2180012  47.1544997  71.4679988  23.8630012  48.0274997  71.7079988
  23.9910012  46.3624997  71.3729988  22.3340012  46.9334997  72.7289988
  21.5200012  46.1924997  72.5859988  21.7110012  47.8494997  72.6459988
  23.0120012  46.8314997  74.1129988  23.8690012  47.5384997  74.1199988
  23.5080012  45.8564997  74.3089988  22.0110012  47.1094997  75.2579988
  21.3280012  47.9294997  74.9489988  22.5220012  47.5054997  76.1609988
  21.1890012  45.8584997  75.7179988  20.3130012  45.5404997  75.1339988
  21.3630012  45.1464997  76.8879988  20.7740012  44.2474997  77.1209988
  22.4360012  45.5144997  77.8749988  23.1640012  46.2604997  77.4909988
  23.0320012  44.6224997  78.1659988  21.8420012  45.9294997  79.2199988
  21.0930012  45.2244997  79.6389988  21.2880012  46.8894997  79.1379988
  22.9160012  46.0794997  80.3359988  23.7660012  46.7184997  80.0119988
  23.4490012  45.1134997  80.4659988  22.3980012  46.5774997  81.6499988
  23.2570012  46.6524997  82.3499988  21.7300012  45.8424997  82.1479988
  21.7460012  47.9694997  81.5459988  20.9350012  47.8914997  80.7919988
  22.4860012  48.7314997  81.2209988  20.9380012  48.2184997  82.7849988
  21.6250012  48.5384997  83.5969988  20.3850012  47.3004997  83.0789988
  19.8790012  49.2794997  82.5819988  19.2460012  48.8594997  81.7719988
  20.2390012  50.2924997  82.3009988  19.0610012  49.4174997  83.8349988
  19.3160012  50.3954997  84.2979988  19.3900012  48.6544997  84.5719988
  17.9820012  49.2304997  83.6489988  69.4590012 124.3214997  83.4099988
  68.7560012 124.9634997  83.9829988  70.3990012 124.8144997  83.0839988
  69.8150012 123.6264997  84.2009988  68.9130012 123.6704997  82.1409988
  69.6990012 123.0274997  81.6899988  68.0870012 123.0164997  82.4939988
  68.4340012 124.7024997  80.9969988  67.6460012 124.2624997  80.3489988
  67.8860012 125.5844997  81.3939988  69.5380012 125.1314997  79.9909988
  69.3160012 126.1084997  79.5099988  70.4110012 125.3844997  80.6299988
  69.8720012 124.1234997  78.8999988  70.6110012 123.3644997  79.2359988
  68.9350012 123.5614997  78.7019988  70.3830012 124.7554997  77.5599988
  69.6090012 125.3674997  77.0499988  71.2190012 125.3714997  77.9539988
  70.9580012 123.7574997  76.4979988  71.5450012 122.9594997  76.9999988
  70.0910012 123.1504997  76.1609988  71.5880012 124.4594997  75.2649988
  72.3910012 125.1534997  75.5909988  71.9490012 123.6494997  74.5949988
  70.5830012 125.1784997  74.4139988  69.6740012 124.5744997  74.2069988
  70.2420012 126.1264997  74.8839988  71.1840012 125.5674997  72.9929988
  71.7330012 124.7544997  72.4699988  70.2840012 125.8004997  72.3839988
  71.9050012 126.9274997  72.9639988  71.0570012 127.6444997  72.9959988
  72.6390012 127.0324997  73.7919988  72.7070012 127.0064997  71.6659988
  73.4850012 126.2144997  71.6279988  71.9780012 126.7704997  70.8619988
  73.3720012 128.3644997  71.4749988  72.5530012 129.0274997  71.1219988
  73.6650012 128.7264997  72.4839988  74.4970012 128.4464997  70.4029988
  74.7520012 129.5094997  70.2049988  75.3950012 127.9204997  70.7919988
  74.0300012 127.9534997  69.0099988  73.0480012 128.3424997  68.6639988
  74.8380012 128.2374997  68.3029988  74.0730012 126.4854997  68.8329988
  74.8380012 125.7074997  69.4049988  73.2220012 126.1414997  67.9169988
  73.1670012 124.8144997  67.4039988  73.9390012 124.7814997  66.6059988
  73.3330012 124.0684997  68.2099988  71.7610012 124.4914997  66.7389988
  71.9530012 123.5304997  66.2149988  71.3900012 125.5384997  65.6379988
  72.1410012 125.6664997  64.8289988  70.5140012 125.1194997  65.0989988
  70.9570012 126.7744997  66.1639988  71.0910012 128.0474997  65.2319988
  70.4650012 127.5674997  63.8639988  69.0310012 127.1944997  63.8249988
  68.8640012 126.2974997  64.4599988  68.3610012 128.0444997  64.0729988
  68.6700012 127.0034997  62.3359988  67.6010012 126.8584997  62.3859988
  68.7650012 127.9254997  61.7819988  69.4570012 125.8954997  61.6649988
  69.4840012 124.6884997  62.5659988  68.4870012 124.2724997  62.5629988
  70.1330012 123.9894997  62.0599988  69.9730012 124.8784997  63.5099988
  68.7140012 125.5994997  60.4539988  68.6570012 126.5354997  59.9189988
  69.2280012 124.9094997  59.8009988  67.7220012 125.2544997  60.7059988
  70.8530012 126.3214997  61.2399988  70.7470012 127.1944997  60.6129988
  71.2550012 125.5514997  60.5979988  71.5260012 126.5284997  62.0579988
  70.2180012 129.0764997  65.7979988  72.4860012 128.3774997  65.0369988
  70.7270012 124.4484997  67.7009988  69.5830012 123.9664997  67.4019988
  69.3130012 123.4074997  66.2899988  68.7400012 123.9134997  68.6469988
  69.2000012 124.4604997  69.4969988  68.6240012 122.8294997  68.8639988
  67.3920012 124.6144997  68.4329988  66.7330012 124.5024997  69.3199988
  66.8780012 124.1704997  67.5539988  67.7060012 126.1324997  68.1609988
  66.8200012 126.6674997  67.7569988  68.4550012 126.2684997  67.3509988
  68.2860012 126.9734997  69.3619988  69.2770012 126.6614997  69.7569988
  67.5530012 127.0664997  70.1919988  68.3290012 128.4234997  68.9089988
  67.3940012 128.7914997  68.4349988  69.0140012 128.4644997  68.0349988
  68.8130012 129.4994997  69.7809988  68.8180012 130.4784997  69.2569988
  69.8680012 129.2844997  70.0539988  67.9430012 129.5524997  71.0679988
  67.9580012 128.5834997  71.6109988  66.9030012 129.8024997  70.7679988
  68.3250012 130.7414997  71.9599988  68.3760012 131.7064997  71.4359988
  68.5540012 130.6484997  73.3389988  68.7380012 131.6234997  73.8139988
  68.3400012 129.3904997  74.1289988  69.2580012 128.7804997  73.9879988
  67.5470012 128.8094997  73.6099988  68.0670012 129.6364997  75.6439988
  67.6710012 128.7514997  76.1869988  67.3780012 130.4844997  75.8449988
  69.3480012 129.9074997  76.4699988  69.0560012 130.0564997  77.5309988
  69.8590012 130.8124997  76.0779988  70.3810012 128.7314997  76.5519988
  70.7080012 128.3294997  75.5689988  69.8420012 127.9074997  77.0679988
  71.6100012 129.1064997  77.2809988  72.0870012 130.0354997  76.9009988
  72.3280012 128.2584997  77.2839988  71.3160012 129.4934997  78.7889988
  70.3200012 129.1614997  79.1519988  71.1260012 130.5874997  78.7609988
  72.3540012 129.1454997  79.8879988  72.2320012 129.8884997  80.7049988
  73.4160012 129.2634997  79.5829988  72.3140012 127.7824997  80.5319988
  72.7970012 127.0184997  79.8869988  71.2380012 127.5134997  80.6069988
  72.9200012 127.6684997  81.4559988  81.3640012  19.8574997  79.9119988
  81.2350012  19.4654997  80.9429988  80.8280012  19.1084997  79.2919988
  80.7840012  20.8024997  79.8369988  82.8550012  20.0674997  79.5949988
  83.3720012  20.7244997  80.3269988  83.4220012  19.1254997  79.4419988
  83.0010012  20.8464997  78.2679988  82.3890012  21.7684997  78.3659988
  84.0440012  21.2254997  78.3259988  82.7650012  20.1014997  77.0039988
  83.3250012  19.1524997  77.1499988  81.7210012  19.7244997  77.0569988
  82.8440012  20.7254997  75.5879988  83.9130012  21.0124997  75.4909988
  82.5660012  19.9914997  74.8009988  81.9140012  21.8974997  75.3339988
  80.8700012  21.5194997  75.3899988  81.9000012  22.6174997  76.1789988
  82.1480012  22.6914997  74.0539988  81.3350012  23.4484997  74.0099988
  83.0680012  23.2804997  74.2569988  82.2740012  21.8814997  72.7679988
  82.8990012  20.9864997  72.9769988  81.2520012  21.5594997  72.4769988
  82.9080012  22.6944997  71.5499988  82.6990012  22.3244997  70.5239988
  82.4040012  23.6804997  71.4689988  84.4200012  22.8244997  71.6379988
  84.8010012  23.5884997  72.3489988  84.8150012  21.8774997  72.0619988
  85.1890012  23.0294997  70.2749988  84.5790012  23.6164997  69.5559988
  86.1990012  23.4884997  70.3429988  85.3990012  21.6574997  69.5999988
  85.7890012  21.0794997  70.4649988  84.3920012  21.2604997  69.3519988
  86.3130012  21.7904997  68.3329988  85.8010012  22.4404997  67.5909988
  87.2940012  22.2384997  68.6009988  86.6330012  20.4664997  67.7499988
  87.4000012  20.0014997  68.4049988  85.7120012  19.8664997  67.9099988
  87.2990012  20.5594997  66.3829988  86.5990012  21.0524997  65.6749988
  88.2210012  21.1464997  66.5809988  87.5470012  19.1234997  65.9449988
  87.5340012  18.1724997  66.6659988  87.8830012  19.1964997  64.6139988
  88.0240012  17.9374997  63.9719988  88.8160012  17.9824997  63.1939988
  88.4240012  17.1564997  64.6529988  86.6990012  17.5134997  63.2939988
  86.9410012  16.6414997  62.6489988  86.1590012  18.5344997  62.3369988
  86.5750012  19.5074997  62.6739988  86.5190012  18.2724997  61.3189988
  84.7180012  18.5024997  62.3429988  83.7470012  19.7594997  62.4129988
  83.0170012  19.3004997  63.7059988  81.9730012  19.8544997  64.3999988
  82.3110012  20.4054997  65.3039988  81.5230012  20.6234997  63.7359988
  81.0510012  18.7024997  65.0409988  81.5310012  18.2254997  65.8819988
  80.1740012  19.1484997  65.4859988  80.5370012  17.4704997  64.1989988
  81.7370012  16.5954997  63.8359988  82.3600012  16.3894997  64.6939988
  81.5640012  15.6664997  63.3139988  82.3500012  17.2254997  63.2079988
  79.6560012  16.6714997  65.1599988  78.8930012  17.3454997  65.5199988
  79.2230012  15.8754997  64.5729988  80.1360012  16.2484997  66.0299988
  79.8110012  17.9384997  62.9849988  80.4610012  18.4414997  62.2839988
  79.0030012  18.5664997  63.3299988  79.5430012  17.0264997  62.4719988
  84.4920012  21.0004997  62.7469988  82.7400012  19.8644997  61.3519988
  85.7860012  17.2394997  64.3679988  85.4230012  15.9634997  64.6269988
  85.7890012  15.0514997  63.8919988  84.5850012  15.8334997  65.8749988
  85.2860012  15.3304997  66.5739988  83.7760012  15.0954997  65.6909988
  84.1220012  17.1644997  66.3569988  83.5670012  17.6974997  65.5539988
  85.0840012  17.7094997  66.4689988  83.3130012  17.2394997  67.6939988
  83.7140012  16.5384997  68.4569988  82.3110012  16.9964997  67.2799988
  83.2920012  18.6504997  68.1949988  83.5110012  19.3714997  67.3789988
  84.2150012  18.6494997  68.8139988  82.0810012  19.0444997  68.9779988
  81.2120012  18.5094997  68.5389988  81.9880012  20.1504997  68.9159988
  81.9980012  18.6444997  70.4639988  80.9980012  19.0474997  70.7349988
  82.7660012  19.2894997  70.9419988  82.1860012  17.0944997  70.7679988
  83.0930012  16.6504997  70.3049988  81.3820012  16.5184997  70.2609988
  82.0030012  16.8674997  72.2559988  81.1260012  16.2764997  72.5589988
  82.9120012  17.2024997  73.2139988  82.6680012  16.8604997  74.2309988
  84.2870012  17.8004997  73.1609988  84.6690012  18.3484997  74.0479988
  84.3080012  18.6134997  72.4039988  85.3290012  16.6884997  72.8569988
  86.1390012  17.2764997  72.3749988  84.8730012  16.1354997  72.0069988
  85.7150012  15.8324997  74.0649988  86.3010012  14.9754997  73.6709988
  84.8720012  15.4614997  74.6869988  86.7460012  16.4984997  75.0919988
  86.4310012  17.4614997  75.5469988  87.6740012  16.7824997  74.5519988
  87.0590012  15.6504997  76.3579988  87.6900012  16.0284997  77.1909988
  87.7080012  14.8274997  75.9899988  85.9120012  14.9914997  77.1389988
  86.5220012  14.4794997  77.9139988  85.4400012  14.2124997  76.5029988
  84.8720012  15.9424997  77.7869988  83.9260012  15.9984997  77.2069988
  85.3090012  16.9614997  77.8539988  84.4130012  15.6804997  79.2379988
  83.6590012  14.8744997  79.3629988  83.6880012  16.4554997  79.5669988
  85.2020012  15.5344997  80.0059988  23.4070012  99.2294997  80.5719988
  24.4100012  99.5694997  80.9059988  23.1140012  98.4354997  81.2929988
  22.6700012 100.0554997  80.4859988  23.5600012  98.6174997  79.2249988
  23.9290012  99.4754997  78.6229988  24.4860012  98.0034997  79.2089988
  22.3390012  97.8794997  78.7199988  22.7010012  97.5274997  77.7299988
  22.1480012  96.9754997  79.3359988  21.0430012  98.7504997  78.5289988
  20.3450012  97.9314997  78.2529988  20.7470012  99.3304997  79.4289988
  21.2350012  99.7704997  77.3989988  22.0440012 100.5054997  77.5979988
  21.5670012  99.1734997  76.5219988  19.9590012 100.4114997  77.1409988
  19.2940012  99.5874997  76.8049988  19.5950012 100.8644997  78.0879988
  20.1010012 101.5954997  76.1419988  19.2460012 102.2904997  76.2839988
  20.9540012 102.1404997  76.5999988  20.4270012 101.3024997  74.6709988
  21.3980012 100.8664997  74.3509988  19.6680012 100.5554997  74.3549988
  20.2050012 102.4704997  73.7059988  19.1610012 102.8184997  73.8579988
  21.0300012 103.1814997  73.9259988  20.4950012 102.1694997  72.2509988
  21.5360012 101.7914997  72.1749988  19.8170012 101.3264997  71.9969988
  20.2590012 103.3424997  71.3049988  19.3110012 103.7934997  71.6709988
  21.0570012 104.1094997  71.3969988  20.0520012 102.8344997  69.8969988
  19.2320012 102.0964997  69.7679988  19.6700012 103.7224997  69.3489988
  21.4370012 102.4234997  69.2899988  22.0800012 103.3094997  69.1019988
  21.9550012 101.8484997  70.0869988  21.3260012 101.6504997  67.9869988
  20.4500012 100.9674997  67.9529988  21.1510012 102.3804997  67.1679988
  22.6000012 100.8624997  67.5849988  22.7210012 100.7584997  66.4859988
  23.4810012 101.4844997  67.8529988  22.5940012  99.4664997  68.2429988
  21.9620012  99.2664997  69.2959988  23.1420012  98.6084997  67.4269988
  22.9760012  97.1894997  67.6239988  23.7910012  96.5614997  67.2059988
  23.0480012  96.9474997  68.7049988  21.6790012  96.6354997  66.9989988
  21.6820012  95.5754997  67.3309988  21.8290012  96.6614997  65.4309988
  22.7940012  96.1614997  65.1989988  21.0830012  96.0634997  64.8649988
  21.9910012  98.0284997  64.9369988  21.7110012  98.3214997  63.3849988
  20.1760012  98.5814997  63.2569988  19.3750012  98.9684997  64.3299988
  18.6420012  98.1504997  64.4979988  19.9740012  99.2294997  65.2289988
  18.4400012 100.2494997  64.0599988  17.5880012  99.8364997  63.5399988
  18.0780012 100.6004997  65.0139988  18.9080012 101.4244997  63.3419988
  19.6200012 101.1014997  61.9939988  20.1310012 102.0094997  61.7089988
  20.3700012 100.3354997  62.1209988  19.0070012 100.8124997  61.1519988
  17.7040012 102.2624997  63.0019988  17.9250012 103.2844997  62.7319988
  17.0370012 101.7984997  62.2889988  17.1810012 102.3364997  63.9439988
  19.8520012 102.2244997  64.2399988  19.3100012 102.4494997  65.1469988
  20.2470012 103.1384997  63.8219988  20.6080012 101.5434997  64.6009988
  22.4100012  99.5664997  63.0649988  22.0860012  97.1364997  62.5699988
  20.5710012  97.4464997  67.4409988  19.4210012  96.9194997  67.3319988
  19.0810012  95.8334997  66.8719988  18.2850012  97.8314997  67.9269988
  17.5340012  98.0784997  67.1459988  18.7100012  98.7144997  68.4519988
  17.2550012  97.0874997  68.8449988  17.0450012  96.0964997  68.3909988
  16.2940012  97.6354997  68.7399988  17.7910012  97.1354997  70.2859988
  17.9490012  98.1964997  70.5739988  18.7590012  96.5914997  70.3399988
  16.8690012  96.4574997  71.3849988  16.7100012  95.4114997  71.0479988
  15.9080012  96.9804997  71.1919988  17.2760012  96.4474997  72.8509988
  18.0230012  95.6484997  73.0449988  16.4280012  96.0464997  73.4469988
  17.8340012  97.7884997  73.3259988  17.5360012  98.6474997  72.6869988
  18.9060012  97.8054997  73.0329988  17.5090012  98.3384997  74.7529988
  17.8310012  99.3974997  74.8479988  18.0500012  97.6494997  75.4359988
  16.0710012  98.1614997  75.0199988  15.4170012  98.8794997  74.5039988
  15.4570012  97.2794997  75.7439988  14.3720012  97.3994997  75.8829988
  16.0920012  96.1944997  76.5289988  16.9060012  95.6644997  75.9899988
  15.4140012  95.3354997  76.7189988  16.5570012  96.7424997  77.9039988
  15.6780012  96.8484997  78.5759988  16.9920012  97.7464997  77.7109988
  17.5310012  95.6884997  78.4559988  18.4030012  95.7204997  77.7689988
  17.0140012  94.7064997  78.4179988  18.1310012  96.1074997  79.8269988
  17.4520012  96.0024997  80.6999988  18.5220012  97.1274997  79.6249988
  19.4080012  95.2314997  80.2249988  20.2110012  95.4844997  79.4999988
  19.1510012  94.1504997  80.2279988  19.8560012  95.6044997  81.6099988
  19.0140012  95.4364997  82.3139988  20.0770012  96.6914997  81.5499988
  21.0510012  94.7754997  82.0639988  21.9040012  94.8744997  81.3599988
  20.7310012  93.7304997  82.2619988  21.6100012  95.2754997  83.4249988
  21.0980012  95.0534997  84.3859988  21.8420012  96.3604997  83.3929988
  22.6430012  94.8704997  83.4829988 117.3820012 103.7614997  84.4429988
 118.1920012 103.6194997  85.1909988 116.3730012 103.6624997  84.8959988
 117.3860012 104.8474997  84.2079988 117.6310012 102.8664997  83.2729988
 118.6040012 103.2034997  82.8549988 117.8160012 101.8294997  83.6259988
 116.5050012 102.9524997  82.1999988 115.5900012 102.5884997  82.7139988
 116.3440012 103.9304997  81.6979988 116.8380012 101.9024997  81.0719988
 117.8080012 102.2324997  80.6439988 116.7290012 100.8614997  81.4449988
 115.7700012 102.1384997  79.9499988 114.7660012 101.9094997  80.3669988
 115.8090012 103.2034997  79.6359988 115.9610012 101.1594997  78.7579988
 115.4770012 100.1724997  78.9209988 115.3030012 101.6504997  78.0089988
 117.4130012 101.1254997  78.2159988 117.7100012 102.1954997  78.1819988
 118.0210012 100.5344997  78.9339988 117.5060012 100.5314997  76.8359988
 117.0690012  99.5094997  76.8429988 117.0020012 101.1654997  76.0759988
 119.0640012 100.4274997  76.6239988 119.5310012  99.9614997  77.5179988
 119.2620012  99.7284997  75.7839988 119.7870012 101.6554997  76.2549988
 119.3450012 101.9314997  75.2739988 119.6500012 102.4274997  77.0429988
 121.3790012 101.5214997  75.9959988 121.8760012 102.5084997  76.1139988
 121.8860012 100.7974997  76.6689988 121.7280012 101.1104997  74.4989988
 122.8290012 101.0794997  74.3569988 121.4890012 100.0274997  74.4269988
 121.2080012 101.9994997  73.3389988 121.6130012 101.5504997  72.4069988
 120.1490012 101.6714997  73.2679988 121.2630012 103.4954997  73.6799988
 120.8100012 103.6884997  74.6759988 122.3000012 103.8644997  73.5309988
 120.3460012 104.3644997  72.8269988 119.2990012 104.0154997  72.9579988
 120.3640012 105.4544997  73.0409988 120.7470012 104.1934997  71.2989988
 121.8480012 104.0694997  70.8069988 119.5760012 104.0794997  70.6029988
 119.7720012 103.8574997  69.1729988 119.1190012 104.6214997  68.6999988
 120.7970012 104.0104997  68.7729988 119.2410012 102.4234997  68.7629988
 119.9880012 101.7624997  69.2509988 119.3810012 102.1854997  67.2289988
 120.4120012 102.4254997  66.8939988 119.1200012 101.1264997  67.0149988
 118.5570012 103.1274997  66.5299988 117.7360012 102.6564997  65.2429988
 118.9620012 102.4634997  64.2129988 119.8470012 103.5494997  63.8369988
 120.3300012 104.0064997  64.7279988 120.5780012 103.1124997  63.1239988
 119.2000012 104.7284997  63.0409988 118.3150012 105.0644997  63.5609988
 119.8340012 105.5834997  62.8579988 118.7300012 104.3764997  61.6149988
 117.5820012 103.3364997  61.4889988 117.8250012 102.3054997  61.6979988
 116.8160012 103.5764997  62.2119988 117.1820012 103.4124997  60.4879988
 118.1990012 105.6924997  61.0609988 118.7930012 106.5634997  61.2979988
 118.2050012 105.6054997  59.9849988 117.1830012 105.8154997  61.4069988
 119.8280012 103.9244997  60.7679988 120.6870012 104.5764997  60.8369988
 119.5440012 103.9694997  59.7269988 120.1800012 102.9304997  61.0009988
 117.1650012 101.2784997  65.6079988 116.8950012 103.8084997  64.7749988
 117.8150012 102.2384997  69.0969988 117.5620012 101.6464997  70.2679988
 118.4070012 101.2984997  71.0449988 116.0740012 101.5974997  70.4189988
 115.7370012 100.5394997  70.4479988 115.6260012 102.0434997  69.5049988
 115.6970012 102.3374997  71.7539988 116.2680012 101.8254997  72.5579988
 114.6040012 102.3084997  71.9519988 115.9810012 103.7534997  71.7689988
 115.7310012 104.2704997  70.8169988 117.0710012 103.9334997  71.8779988
 115.3060012 104.4714997  72.9509988 115.6210012 103.9494997  73.8789988
 114.1950012 104.4564997  72.9169988 115.5550012 105.9844997  72.8269988
 115.3100012 106.4064997  71.8289988 116.5940012 106.1264997  73.1929988
 114.4970012 106.6584997  73.7339988 113.4730012 106.2274997  73.7299988
 114.5220012 107.7264997  73.4279988 114.7850012 106.6254997  75.2269988
 114.9630012 105.5674997  75.5189988 113.8300012 106.9054997  75.7199988
 115.9640012 107.5054997  75.5919988 115.8460012 108.5134997  75.1679988
 116.9470012 107.2624997  76.4909988 117.5800012 108.1064997  76.8009988
 117.0550012 106.0214997  77.3129988 116.9390012 105.2324997  76.5399988
 116.1560012 105.8514997  77.9419988 118.4930012 105.8154997  77.9049988
 119.1990012 105.7254997  77.0519988 118.5370012 104.7744997  78.2899988
 119.0150012 106.8144997  78.9529988 118.1560012 106.9534997  79.6449988
 119.1710012 107.7784997  78.4239988 120.3050012 106.4504997  79.7189988
 120.0520012 105.6114997  80.4029988 120.5770012 107.2514997  80.4389988
 121.4780012 106.0264997  78.8289988 121.6940012 106.7694997  78.0319988
 121.1680012 105.0564997  78.3839988 122.7990012 105.8164997  79.4839988
 123.2280012 106.7654997  79.8709988 123.6350012 105.5184997  78.8159988
 122.8310012 104.7814997  80.5929988 121.9900012 105.0204997  81.2789988
 123.8170012 104.9374997  81.0819988 122.6760012 103.3224997  80.0319988
 123.6090012 103.1914997  79.4429988 121.8060012 103.3264997  79.3409988
 122.6430012 102.5104997  80.7899988 106.5560012 118.2714997  79.8869988
 106.8890012 117.9274997  80.8899988 105.8840012 119.1534997  79.9579988
 107.4880012 118.6844997  79.4449988 106.0420012 117.0094997  79.1069988
 105.3740012 116.4014997  79.7529988 105.5850012 117.4304997  78.1849988
 107.1140012 116.0384997  78.6759988 107.8050012 116.4764997  77.9249988
 107.5970012 115.7154997  79.6229988 106.6340012 114.6664997  78.1469988
 107.5190012 113.9984997  78.0809988 106.0340012 114.2694997  78.9939988
 105.8020012 114.7674997  76.9029988 105.1400012 113.8794997  76.9969988
 105.1330012 115.6544997  76.9179988 106.4290012 114.7594997  75.5729988
 105.7380012 114.6534997  74.7099988 106.8810012 115.7684997  75.4629988
 107.5570012 113.7424997  75.2349988 108.4210012 113.9854997  75.8889988
 107.2640012 112.6734997  75.3029988 108.1110012 114.1524997  73.7949988
 107.3430012 113.8784997  73.0409988 108.3050012 115.2464997  73.7799988
 109.4150012 113.4354997  73.4499988 110.1160012 113.8014997  74.2299988
 109.1730012 112.3534997  73.5149988 110.1210012 113.8564997  72.2339988
 110.2000012 114.9594997  72.3409988 111.0800012 113.2984997  72.2979988
 109.4030012 113.6504997  70.8819988 108.9900012 112.6224997  70.9659988
 108.5090012 114.2824997  70.6969988 110.3890012 113.5234997  69.7419988
 111.0140012 114.4394997  69.8049988 111.1060012 112.7124997  69.9899988
 109.9570012 113.3264997  68.3579988 109.0130012 113.8384997  68.0719988
 110.7410012 113.6854997  67.6579988 109.6980012 111.7264997  68.2449988
 110.4790012 111.1014997  68.7279988 108.8110012 111.6394997  68.9089988
 109.3400012 111.2414997  66.8029988 110.0070012 111.7244997  66.0569988
 109.4490012 110.1364997  66.8459988 107.8370012 111.4544997  66.4189988
 106.9390012 111.4464997  67.1939988 107.7790012 111.7904997  65.1339988
 106.4510012 112.1564997  64.7409988 106.3210012 112.0704997  63.6409988
 105.6980012 111.4954997  65.2219988 106.1940012 113.7074997  64.9709988
 105.2140012 114.0084997  64.5449988 107.1180012 114.4034997  63.9189988
 107.0960012 113.8404997  62.9609988 106.5470012 115.3414997  63.7529988
 108.4130012 114.6634997  64.4799988 109.7080012 114.3284997  63.6249988
 110.2960012 115.7584997  63.3949988 110.4590012 116.7214997  64.4419988
 110.2790012 116.2764997  65.4439988 111.5300012 117.0124997  64.4879988
 109.5650012 117.9764997  64.3389988 108.5260012 117.6814997  64.3459988
 109.7930012 118.5244997  65.2409988 109.6860012 118.8264997  63.1059988
 108.8340012 118.2814997  61.9699988 107.8070012 118.2474997  62.3009988
 108.9080012 118.9154997  61.0989988 109.1210012 117.3374997  61.5299988
 109.1190012 120.2334997  63.4299988 109.9080012 120.7714997  63.9339988
 109.0170012 120.7694997  62.4979988 108.2310012 120.2644997  64.0449988
 111.1380012 118.8574997  62.5859988 111.7690012 118.9024997  63.4609988
 111.1870012 119.7024997  61.9159988 111.2220012 117.8684997  62.1599988
 110.7380012 113.5494997  64.4259988 109.3970012 113.7004997  62.3819988
 106.4340012 114.1364997  66.3909988 106.1300012 115.3384997  66.7319988
 105.5540012 116.1744997  66.0419988 106.6500012 115.5644997  68.1519988
 107.7340012 115.3634997  68.0089988 106.2190012 114.8404997  68.8759988
 106.3790012 117.0074997  68.6709988 106.5630012 117.0884997  69.7639988
 105.3160012 117.3274997  68.6319988 107.2270012 118.1224997  67.9589988
 106.9830012 119.0114997  68.5799988 106.8700012 118.2844997  66.9199988
 108.7310012 117.9984997  68.2209988 109.1250012 117.3674997  67.3969988
 108.9510012 117.5384997  69.2089988 109.5170012 119.2624997  67.9169988
 109.3790012 120.1264997  68.6019988 109.0820012 119.6034997  66.9539988
 110.9880012 118.8794997  67.8809988 111.4890012 119.8394997  67.6299988
 110.9580012 118.1364997  67.0559988 111.6270012 118.2614997  69.1139988
 112.6660012 117.9704997  68.8479988 111.1650012 117.2814997  69.3579988
 111.7560012 119.2554997  70.2799988 112.5580012 119.9754997  70.0569988
 111.1490012 119.0654997  71.4829988 111.2840012 119.9464997  72.1269988
 110.2780012 117.9654997  72.0319988 110.7890012 117.0574997  71.6459988
 109.2450012 118.0164997  71.6289988 110.1520012 117.7884997  73.5959988
 109.4170012 116.9894997  73.8349988 109.8430012 118.7094997  74.1339988
 111.4750012 117.3244997  74.2059988 112.2530012 118.1154997  74.2629988
 111.7880012 116.5354997  73.4889988 111.4140012 116.7924997  75.6119988
 112.3750012 116.3814997  75.9889988 110.7530012 115.8994997  75.6329988
 111.1220012 117.8214997  76.7269988 110.1190012 118.2574997  76.5309988
 111.8700012 118.6434997  76.7169988 111.2480012 117.2904997  78.1409988
 112.2710012 116.8794997  78.2789988 110.6770012 116.3374997  78.1219988
 110.9110012 118.2514997  79.2279988 109.8160012 118.4364997  79.2469988
 111.3970012 119.2264997  79.0089988 111.2190012 117.8664997  80.6479988
 112.3070012 117.9384997  80.8599988 110.8520012 116.8414997  80.8689988
 110.8030012 118.6594997  81.3039988  97.9650012  21.1464997  83.9689988
  97.4420012  21.8194997  84.6809988  98.2490012  21.8054997  83.1209988
  98.8600012  20.7244997  84.4749988  97.1180012  19.9304997  83.5629988
  96.5740012  19.5864997  84.4689988  96.2710012  20.2804997  82.9349988
  97.8230012  18.7394997  82.8959988  98.7850012  18.6304997  83.4429988
  97.1780012  17.8994997  83.2319988  97.9750012  18.6494997  81.3649988
  96.9840012  18.5944997  80.8659988  98.6160012  19.5154997  81.0929988
  98.8750012  17.4154997  81.0579988  99.8600012  17.4884997  81.5679988
  98.3860012  16.5234997  81.5059988  98.9020012  17.2374997  79.5249988
  99.5850012  16.3704997  79.3969988  97.9210012  17.1394997  79.0119988
  99.5330012  18.3634997  78.6359988  98.9750012  19.2514997  78.9999988
 100.5710012  18.5234997  78.9979988  99.4340012  18.1734997  77.0579988
  99.6470012  17.1004997  76.8669988  98.4300012  18.3504997  76.6179988
 100.5220012  19.0574997  76.3759988 100.0940012  20.0024997  75.9779988
 101.4070012  19.4234997  76.9379988 100.9860012  18.2244997  75.1539988
 101.4020012  17.3324997  75.6679988 100.0680012  17.9384997  74.5979988
 101.8620012  19.0604997  74.2489988 102.7390012  19.3794997  74.8509988
 102.2780012  18.3254997  73.5269988 101.0920012  20.2654997  73.5519988
 100.0340012  19.9304997  73.6099988 101.1940012  21.0644997  74.3169988
 101.6690012  20.7514997  72.2539988 101.3040012  21.7884997  72.0989988
 102.7560012  20.5394997  72.3419988 101.1130012  19.8474997  71.1319988
 101.8910012  19.6814997  70.3569988 100.8490012  18.8194997  71.4599988
  99.7230012  20.3394997  70.5269988  99.1460012  20.8104997  71.3519988
  99.7470012  21.2254997  69.8569988  98.8860012  19.2564997  69.9369988
  97.7450012  18.9684997  70.3299988  99.5310012  18.6314997  68.9039988
  98.7250012  17.6454997  68.1949988  99.5020012  16.9734997  67.7729988
  98.0520012  17.0374997  68.8369988  97.9300012  18.2474997  67.0309988
  97.4420012  17.3954997  66.5119988  98.9850012  18.8434997  66.0389988
  99.7440012  19.3804997  66.6469988  99.5800012  18.0174997  65.5959988
  98.4720012  19.7054997  65.0339988  99.2640012  20.0034997  63.6899988
  98.1320012  20.4464997  62.6689988  97.0310012  19.6154997  62.4129988
  96.7160012  19.9074997  61.3879988  97.2920012  18.5374997  62.3479988
  95.8500012  19.8344997  63.3149988  95.0280012  19.2014997  63.0119988
  96.0780012  19.5804997  64.3389988  95.3050012  21.2604997  63.4279988
  94.8270012  21.8744997  62.0959988  94.1650012  21.1674997  61.6179988
  94.2950012  22.7914997  62.3069988  95.6430012  22.1174997  61.4319988
  94.1290012  21.3204997  64.3569988  94.5170012  20.8394997  65.2419988
  93.9050012  22.3414997  64.6309988  93.3050012  20.7024997  64.0309988
  96.3720012  22.1624997  64.0629988  97.2170012  22.1194997  63.3909988
  96.7810012  21.6594997  64.9259988  96.0250012  23.1544997  64.3129988
 100.1360012  21.1494997  63.9459988  99.9900012  18.8544997  63.1709988
  97.1180012  19.3574997  67.4719988  95.9910012  19.0094997  67.9449988
  95.5970012  17.8704997  68.1519988  95.0310012  20.1504997  67.7889988
  94.4970012  20.0574997  66.8189988  95.5820012  21.1124997  67.7169988
  94.0310012  20.2004997  68.9179988  93.4070012  19.2814997  68.8769988
  93.2530012  20.9644997  68.7049988  94.6380012  20.4564997  70.2669988
  95.3120012  21.3204997  70.0779988  95.2460012  19.5644997  70.5279988
  93.7360012  20.5754997  71.4519988  93.0990012  19.6654997  71.4539988
  93.0520012  21.4444997  71.3469988  94.6420012  20.6104997  72.7059988
  95.4420012  21.3334997  72.4389988  95.1710012  19.6504997  72.8879988
  93.9750012  21.0794997  74.0489988  93.2910012  20.3084997  74.4649988
  93.3350012  21.9214997  73.7099988  95.0040012  21.4964997  75.0799988
  94.4980012  22.0564997  75.8959988  95.7360012  22.1554997  74.5669988
  95.7820012  20.3634997  75.6709988  96.7790012  20.0944997  75.2909988
  95.3740012  19.7354997  76.7679988  95.8990012  18.7944997  76.9919988
  94.0960012  19.9874997  77.5969988  93.5550012  19.0254997  77.7259988
  93.4220012  20.6984997  77.0729988  94.4690012  20.6894997  78.9469988
  94.8290012  21.7054997  78.6769988  95.3000012  20.1534997  79.4519988
  93.2350012  20.9364997  79.9239988  92.8440012  19.9474997  80.2459988
  92.4980012  21.4964997  79.3099988  93.6360012  21.5594997  81.2569988
  94.5680012  21.1354997  81.6889988  92.8420012  21.5494997  82.0339988
  93.8610012  23.1644997  81.1029988  92.8500012  23.5044997  80.7919988
  94.5010012  23.2494997  80.1989988  94.3200012  23.8594997  82.3599988
  94.7790012  23.0814997  83.0069988  93.4310012  24.2284997  82.9159988
  95.1960012  25.0844997  82.2119988  94.8380012  25.8704997  81.5129988
  96.0890012  24.8384997  81.5989988  95.7520012  25.5164997  83.5109988
  96.3420012  26.4444997  83.3579988  96.5310012  24.8334997  83.9119988
  95.0280012  25.6534997  84.3419988  82.3530012 131.7244997  84.5859988
  82.0670012 132.2824997  83.6679988  82.7160012 132.5364997  85.2519988
  81.3790012 131.2604997  84.8529988  83.4630012 130.7114997  84.1329988
  84.3890012 131.2314997  83.8069988  83.5830012 130.0724997  85.0339988
  83.0170012 129.8304997  82.9899988  82.1520012 129.2354997  83.3519988
  82.7450012 130.3664997  82.0559988  84.1410012 128.8664997  82.5529988
  85.0310012 129.3724997  82.1219988  84.5560012 128.2814997  83.4019988
  83.5950012 127.9174997  81.5049988  84.2840012 127.0674997  81.3099988
  82.7210012 127.4764997  82.0299988  83.3930012 128.6374997  80.1379988
  82.6090012 129.4224997  80.2059988  84.3550012 129.1494997  79.9219988
  82.8950012 127.6064997  79.0809988  83.4040012 126.6214997  79.1469988
  81.7870012 127.5774997  79.1599988  83.2610012 128.1304997  77.5969988
  84.3710012 128.1864997  77.5679988  82.9840012 127.3214997  76.8869988
  82.6740012 129.4674997  77.2449988  81.5740012 129.5214997  77.1029988
  83.0100012 130.2834997  77.9199988  83.0790012 129.8854997  75.8589988
  82.7110012 130.9214997  75.6959988  84.1900012 129.8704997  75.8649988
  82.3540012 129.1264997  74.6689988  82.5160012 128.0484997  74.8859988
  81.2670012 129.3154997  74.7969988  82.8400012 129.4484997  73.3239988
  82.8280012 130.5224997  73.0379988  83.8730012 129.0554997  73.2129988
  81.9820012 128.6224997  72.3519988  82.0930012 127.5674997  72.6799988
  80.9180012 128.8974997  72.5149988  82.6260012 128.5694997  70.9939988
  83.7230012 128.4354997  71.1009988  82.2310012 127.6604997  70.4919988
  82.3910012 129.7694997  70.0439988  81.3200012 130.0634997  70.0779988
  82.8430012 130.7084997  70.4289988  82.8680012 129.4864997  68.5999988
  83.4610012 128.4904997  68.1539988  82.4480012 130.6004997  67.9019988
  82.8150012 130.6274997  66.4999988  82.7300012 129.6254997  66.0259988
  82.0220012 131.1994997  65.9729988  84.1690012 131.4074997  66.3449988
  83.9440012 132.4564997  66.6329988  84.6630012 131.3024997  64.8949988
  83.7740012 131.5234997  64.2669988  85.4220012 132.0994997  64.7399988
  85.2380012 129.9844997  64.7179988  86.3360012 129.7504997  63.5769988
  85.6500012 128.7624997  62.4889988  84.3650012 128.4194997  62.6469988
  83.8000012 129.3184997  62.9719988  83.9300012 128.2594997  61.6369988
  84.1330012 127.2734997  63.6349988  84.2580012 127.6534997  64.6379988
  83.1000012 126.9604997  63.6039988  84.8750012 125.9494997  63.4669988
  84.6720012 125.3454997  62.1019988  83.6130012 125.4514997  61.9189988
  85.2570012 125.8354997  61.3369988  84.9700012 124.3204997  62.2689988
  86.2700012 126.2264997  63.8359988  86.3810012 126.6014997  64.8429988
  86.8590012 125.3314997  63.7009988  86.6810012 126.9654997  63.1639988
  84.3460012 125.0664997  64.5099988  85.0190012 124.2214997  64.5169988
  83.3260012 124.7104997  64.4859988  84.3710012 125.4404997  65.5219988
  86.7200012 131.0584997  62.9499988  87.4070012 129.0514997  64.2499988
  85.1730012 130.9034997  67.2259988  86.1930012 131.7504997  67.5099988
  86.3020012 132.9504997  67.2429988  87.3450012 130.9864997  68.2199988
  87.3520012 131.2404997  69.3019988  88.3490012 131.2704997  67.8369988
  87.3040012 129.4704997  68.1429988  87.0070012 129.1944997  67.1089988
  86.3700012 129.1524997  68.6539988  88.5300012 128.6244997  68.5309988
  89.4140012 129.0884997  68.0439988  88.5130012 127.5934997  68.1179988
  88.9110012 128.5874997  70.0509988  89.0840012 129.5914997  70.4949988
  89.8460012 127.9874997  70.0619988  87.9190012 127.7884997  70.9549988
  86.8930012 128.2154997  70.9289988  88.4750012 127.6684997  71.9099988
  87.9590012 126.2944997  70.5169988  88.9770012 126.0194997  70.1659988
  87.2820012 126.2314997  69.6389988  87.5610012 125.2144997  71.5659988
  88.3530012 125.2044997  72.3459988  87.7240012 124.1624997  71.2479988
  86.0790012 125.2474997  72.0579988  85.3740012 125.0554997  71.2359988
  85.6310012 125.4234997  73.2939988  84.5380012 125.4644997  73.4079988
  86.3700012 125.6924997  74.5709988  87.4440012 125.4364997  74.4469988
  86.0820012 125.0774997  75.4499988  86.3340012 127.2094997  74.9709988
  85.2810012 127.3604997  75.2899988  86.5250012 127.8214997  74.0629988
  87.2680012 127.6314997  76.1719988  88.1940012 127.0264997  76.0709988
  86.8250012 127.2924997  77.1329988  87.5170012 129.0854997  76.0779988
  86.5080012 129.5394997  76.1759988  87.7900012 129.3284997  75.0279988
  88.6090012 129.6814997  77.0699988  88.7800012 130.7014997  76.6619988
  89.6010012 129.1814997  77.0839988  88.1420012 129.7454997  78.4819988
  88.8580012 130.3134997  79.1139988  87.9600012 128.7144997  78.8529988
  86.8370012 130.5684997  78.6759988  85.9320012 130.0604997  78.2789988
  86.8950012 131.5064997  78.0839988  86.6050012 130.9884997  80.0999988
  86.4690012 130.1744997  80.8439988  85.7320012 131.6714997  80.1749988
  87.4920012 131.5684997  80.4319988 128.7170012  56.5484997  82.7739988
 127.7580012  56.0354997  83.0009988 129.3540012  56.2944997  83.6479988
 129.1560012  56.0434997  81.8869988 128.6100012  58.0624997  82.5509988
 127.9000012  58.2034997  81.7079988 128.2540012  58.5934997  83.4599988
 129.9200012  58.7414997  82.2349988 129.6710012  59.8184997  82.3499988
 130.7520012  58.6714997  82.9679988 130.4980012  58.4774997  80.8059988
 131.2380012  57.6504997  80.8579988 129.6210012  58.2904997  80.1509988
 131.0950012  59.8494997  80.2889988 130.5890012  60.7394997  80.7209988
 132.1460012  59.8844997  80.6479988 131.0490012  60.0024997  78.7769988
 129.9750012  60.1364997  78.5259988 131.5180012  60.9874997  78.5689988
 131.5570012  58.8274997  78.0859988 132.6300012  58.7904997  78.3699988
 131.0890012  57.8884997  78.4509988 131.4310012  58.9544997  76.5329988
 131.7520012  57.9664997  76.1379988 130.3610012  59.0064997  76.2379988
 132.1840012  60.1244997  75.8999988 131.5570012  61.0414997  75.9109988
 133.1830012  60.2844997  76.3589988 132.2180012  60.0484997  74.3369988
 133.2010012  60.3964997  73.9539988 132.1870012  58.9564997  74.1339988
 131.0170012  60.6064997  73.6779988 130.1380012  60.1954997  74.2189988
 131.0660012  61.7144997  73.7549988 130.7750012  60.3194997  72.1819988
 129.8870012  60.8954997  71.8449988 131.6070012  60.7884997  71.6159988
 130.7520012  58.8384997  71.8519988 131.7430012  58.4104997  72.1129988
 130.0780012  58.1684997  72.4269988 130.5060012  58.5384997  70.3749988
 130.6930012  57.4444997  70.3399988 129.4370012  58.7514997  70.1619988
 131.5120012  59.2584997  69.4739988 131.2310012  60.3334997  69.4789988
 132.5360012  59.1024997  69.8779988 131.4120012  58.6614997  68.0489988
 130.4020012  58.0284997  67.7269988 132.3210012  59.0674997  67.3029988
 132.3820012  58.5904997  65.9379988 131.4290012  58.1504997  65.5739988
 132.7260012  59.4054997  65.2669988 133.3650012  57.3884997  65.9289988
 134.2860012  57.6324997  66.5009988 133.5490012  56.9834997  64.4289988
 133.7730012  57.8814997  63.8129988 134.3920012  56.2644997  64.3409988
 132.3120012  56.3804997  63.9879988 132.4210012  55.5974997  62.5619988
 130.9080012  55.2244997  62.3129988 129.9130012  56.1734997  62.0539988
 130.2180012  56.9114997  61.2819988 129.1210012  55.5484997  61.5879988
 129.3800012  56.9844997  63.3249988 130.1330012  57.6274997  63.7579988
 128.5660012  57.6154997  63.0009988 128.8290012  56.3004997  64.5719988
 129.8870012  55.5454997  65.2989988 130.6790012  56.1704997  65.6829988
 129.4640012  54.9834997  66.1189988 130.2880012  54.8084997  64.6189988
 128.3770012  57.3794997  65.4639988 129.2750012  57.8514997  65.8339988
 127.7520012  58.0824997  64.9329988 127.8160012  57.0204997  66.3149988
 127.6520012  55.3994997  64.3369988 126.9320012  55.8214997  63.6509988
 127.1950012  55.0914997  65.2649988 128.0870012  54.5294997  63.8679988
 132.8510012  56.4474997  61.4509988 133.2260012  54.3784997  62.8169988
 132.7540012  56.2814997  66.6189988 133.6430012  55.2984997  66.8769988
 134.8170012  55.3244997  66.6289988 132.8220012  54.0994997  67.4589988
 133.1630012  53.1544997  66.9849988 131.7860012  54.3714997  67.1649988
 132.8930012  53.9114997  68.9629988 133.9320012  54.1134997  69.2999988
 132.5000012  52.9314997  69.3079988 132.0470012  54.7694997  69.9519988
 132.3940012  55.7954997  70.1989988 132.1310012  54.3034997  70.9569988
 130.5330012  54.9444997  69.6839988 130.3090012  55.6854997  68.8859988
 130.1580012  55.2824997  70.6729988 129.6750012  53.6054997  69.4729988
 129.9570012  53.2214997  68.4679988 128.5650012  53.5994997  69.4419988
 129.9230012  52.5144997  70.5719988 130.9910012  52.4464997  70.8709988
 129.7620012  51.5734997  70.0029988 129.0450012  52.5624997  71.7589988
 129.1550012  51.5954997  72.2949988 128.0180012  52.5374997  71.3359988
 129.1810012  53.6684997  72.8249988 128.6270012  54.5874997  72.5839988
 129.8260012  53.5234997  74.0359988 129.7460012  54.4184997  74.6709988
 130.4710012  52.2994997  74.5409988 130.1580012  51.4564997  73.8879988
 130.2890012  52.0454997  75.6069988 131.9660012  52.1714997  74.4779988
 132.4010012  52.7454997  73.6329988 132.3180012  51.1224997  74.3809988
 132.7940012  52.6114997  75.7209988 133.8820012  52.4254997  75.5939988
 132.4140012  51.9814997  76.5529988 132.7060012  54.0984997  76.1219988
 131.6730012  54.3004997  76.4749988 132.8940012  54.7504997  75.2419988
 133.8570012  54.4364997  77.0979988 134.8530012  54.5974997  76.6309988
 134.0590012  53.6064997  77.8079988 133.3590012  55.5624997  77.9989988
 132.4010012  55.2604997  78.4749988 133.1550012  56.3934997  77.2909988
 134.3770012  56.0194997  79.0819988 133.6730012  56.5724997  79.7399988
 135.1240012  56.7894997  78.7909988 135.0600012  54.9584997  79.9819988
 135.5100012  55.4774997  80.8549988 135.9280012  54.5224997  79.4439988
 134.3890012  54.2014997  80.4419988 127.5810012  91.5114997  81.7969988
 127.4800012  92.1454997  82.7039988 127.6190012  92.2724997  80.9879988
 128.5580012  90.9884997  81.8789988 126.6160012  90.3924997  81.7169988
 126.9890012  89.7434997  82.5379988 125.6030012  90.7204997  82.0349988
 126.4490012  89.6214997  80.4269988 127.3740012  89.0124997  80.3449988
 125.5250012  89.0164997  80.5519988 126.3320012  90.3874997  79.1309988
 127.2570012  90.9674997  78.9269988 126.1470012  89.7284997  78.2559988
 125.1660012  91.3464997  79.2269988 124.1580012  90.8904997  79.3389988
 125.2830012  92.0264997  80.0969988 125.1130012  92.4374997  78.0749988
 124.1630012  93.0004997  78.1949988 125.9720012  93.1384997  78.1469988
 125.1980012  91.7784997  76.6459988 126.2410012  91.4134997  76.5309988
 124.5160012  90.9234997  76.4529988 124.8450012  92.6704997  75.4509988
 123.7970012  93.0034997  75.6109988 125.4720012  93.5754997  75.6029988
 125.1150012  92.0044997  74.1299988 126.1880012  91.7374997  74.0229988
 124.5380012  91.0674997  74.2839988 124.5800012  92.7054997  72.8359988
 123.4880012  92.7664997  73.0279988 125.0120012  93.7174997  72.6809988
 124.8310012  91.9254997  71.5919988 125.8890012  91.5974997  71.5049988
 124.2780012  90.9634997  71.6479988 124.5290012  92.6604997  70.2289988
 124.5760012  91.8184997  69.5049988 123.5240012  93.1254997  70.3169988
 125.4880012  93.8004997  69.8509988 125.1800012  94.1874997  68.8559988
 125.2050012  94.6104997  70.5569988 126.9860012  93.4774997  70.0219988
 127.3430012  93.0934997  71.0009988 127.0570012  92.5864997  69.3609988
 127.8120012  94.6974997  69.5559988 127.2370012  95.1354997  68.7119988
 127.8890012  95.4754997  70.3459988 129.2410012  94.3944997  69.2329988
 129.9930012  93.7424997  69.9449988 129.5470012  95.0424997  68.0969988
 130.7670012  94.8634997  67.4549988 130.9470012  95.8194997  66.9169988
 131.5050012  94.6364997  68.2539988 130.7500012  93.6074997  66.5559988
 131.7530012  93.4394997  66.1079988 129.7450012  93.7944997  65.3699988
 128.7570012  94.0704997  65.7979988 130.1870012  94.6834997  64.8709988
 129.5960012  92.6084997  64.4769988 128.7470012  92.5454997  63.1829988
 128.0470012  91.1824997  63.2709988 127.5130012  90.7684997  64.4449988
 128.3090012  90.4024997  65.1279988 126.8360012  91.4754997  64.9699988
 126.6810012  89.4394997  64.1679988 127.3410012  88.7394997  63.6759988
 126.4800012  88.9524997  65.1109988 125.3310012  89.5494997  63.4799988
 125.3990012  90.4364997  62.2949988 124.4680012  90.3484997  61.7559988
 125.6050012  91.4394997  62.6369988 126.2220012  90.1064997  61.6769988
 124.9660012  88.1174997  63.0189988 125.7550012  87.7034997  62.4069988
 124.7630012  87.5554997  63.9179988 124.0210012  88.1074997  62.4969988
 124.4030012  90.0124997  64.5949988 123.3900012  90.1444997  64.2429988
 124.7690012  90.9414997  65.0069988 124.3390012  89.3134997  65.4169988
 127.8230012  93.6964997  63.2429988 129.6320012  92.5684997  62.0059988
 130.3160012  92.5274997  67.2919988 130.9870012  91.2854997  66.9959988
 131.7830012  91.2114997  66.0819988 130.6640012  90.2864997  68.0699988
 129.9450012  90.8104997  68.7359988 131.5230012  89.9924997  68.7099988
 130.1560012  89.0644997  67.3189988 130.9730012  88.5804997  66.7419988
 129.4490012  89.2824997  66.4909988 129.5700012  88.0104997  68.2879988
 130.3360012  87.3834997  68.7929988 129.1460012  87.2094997  67.6449988
 128.4770012  88.4284997  69.2939988 127.6010012  87.7564997  69.4199988
 128.1380012  89.3994997  68.8719988 129.0350012  88.6844997  70.6889988
 130.1010012  88.9924997  70.7359988 129.0730012  87.6714997  71.1439988
 128.2780012  89.6454997  71.5529988 127.2220012  89.2994997  71.5759988
 128.1710012  90.6184997  71.0269988 128.9110012  89.8384997  72.9549988
 128.8680012  88.8994997  73.5469988 128.1460012  90.4554997  73.4719988
 130.2280012  90.4814997  73.1229988 131.1330012  89.8854997  72.9369988
 130.4700012  91.7774997  73.3979988 131.5010012  92.1554997  73.4419988
 129.4350012  92.8244997  73.5899988 128.4750012  92.5534997  73.1019988
 129.6620012  93.8554997  73.2449988 129.0190012  92.9764997  75.0949988
 129.0970012  92.0134997  75.6449988 127.9390012  93.2344997  75.0799988
 129.9170012  93.9584997  75.9279988 129.7440012  94.8504997  75.2899988
 130.9830012  93.6484997  75.8939988 129.4630012  94.4034997  77.2969988
 128.4070012  94.7324997  77.1969988 130.0690012  95.2764997  77.6229988
 129.6680012  93.3874997  78.2769988 129.2300012  92.4424997  77.8919988
 129.1230012  93.6804997  79.1999988 131.2100012  93.3234997  78.6059988
 131.6360012  94.3494997  78.5849988 131.7050012  92.8384997  77.7359988
 131.4990012  92.6364997  79.9219988 132.5830012  92.3964997  79.8829988
 130.8660012  91.7404997  80.0909988 131.3810012  93.6444997  81.0709988
 131.8410012  94.6164997  80.7919988 131.8760012  93.3064997  82.0069988
 130.3410012  93.8594997  81.3949988  68.0860012  19.0624997  80.5159988
  67.3030012  19.4954997  79.8569988  68.6310012  18.2214997  80.0359988
  68.7640012  19.9104997  80.7509988  67.2400012  18.7414997  81.7759988
  67.0740012  19.6304997  82.4219988  66.2820012  18.3954997  81.3329988
  67.8270012  17.7574997  82.7689988  68.7940012  18.2394997  83.0279988
  67.1120012  17.7014997  83.6169988  68.2700012  16.4184997  82.1989988
  69.0260012  16.4934997  81.3869988  68.7350012  15.9044997  83.0669988
  67.1540012  15.4314997  81.6929988  66.4060012  15.2614997  82.4959988
  66.5830012  15.9204997  80.8749988  67.5060012  14.1334997  80.9499988
  68.0470012  13.6474997  81.7899988  66.4870012  13.7254997  80.7799988
  68.4180012  14.2974997  79.6949988  69.4350012  14.6364997  79.9869988
  68.5310012  13.2864997  79.2489988  67.8480012  15.3114997  78.6739988
  66.7510012  15.1714997  78.7769988  68.0550012  16.3614997  78.9719988
  68.1960012  15.0084997  77.1969988  69.2530012  15.2864997  76.9999988
  68.0140012  13.9224997  77.0519988  67.2660012  15.7924997  76.2579988
  67.4590012  16.8624997  76.4879988  67.6650012  15.5334997  75.2539988
  65.7930012  15.2534997  76.3149988  65.7510012  14.1504997  76.4389988
  65.4070012  15.7614997  77.2249988  64.8990012  15.4364997  75.0679988
  63.8990012  14.9824997  75.2329988  64.7320012  16.5234997  74.9149988
  65.3820012  14.9224997  73.6749988  66.4400012  15.1634997  73.4329988
  65.4130012  13.8124997  73.6469988  64.5500012  15.4304997  72.4899988
  63.5180012  15.0304997  72.3929988  64.3970012  16.5234997  72.6179988
  65.1290012  15.2204997  71.0399988  66.1050012  15.7154997  70.8499988
  65.2450012  14.1254997  70.8919988  64.1270012  15.8654997  69.9839988
  63.1190012  16.4154997  70.2419988  64.6250012  15.4854997  68.8159988
  64.0020012  16.1484997  67.6689988  64.1960012  15.4164997  66.8559988
  62.9160012  16.2274997  67.8879988  64.5880012  17.5984997  67.4359988
  64.0460012  18.0364997  66.5709988  66.1500012  17.5574997  67.1759988
  66.6410012  17.1034997  68.0629988  66.2870012  16.7444997  66.4309988
  66.7810012  18.7924997  66.8639988  67.5330012  18.9704997  65.4499988
  66.3950012  18.6604997  64.3859988  66.2790012  19.4834997  63.1839988
  65.3410012  19.2314997  62.6429988  66.3270012  20.5714997  63.4039988
  67.4710012  19.1994997  62.1339988  67.4350012  19.9584997  61.3669988
  68.2850012  19.3224997  62.8329988  67.5230012  17.7324997  61.5449988
  68.3970012  17.6704997  60.3119988  68.3450012  16.7864997  59.6939988
  68.1770012  18.4834997  59.6359988  69.4380012  17.7754997  60.5769988
  68.0560012  16.6744997  62.4689988  68.9800012  16.9844997  62.9329988
  67.3740012  16.5854997  63.3029988  68.2200012  15.7704997  61.9009988
  66.1060012  17.4194997  61.0639988  65.5460012  18.2524997  60.6659988
  65.5760012  16.9994997  61.9069988  66.1990012  16.7434997  60.2279988
  67.9460012  20.3964997  65.4299988  68.6410012  18.0504997  65.3429988
  64.1460012  18.3234997  68.5529988  64.1470012  19.6574997  68.4289988
  64.5080012  20.2494997  67.4659988  63.6290012  20.2664997  69.7009988
  62.5410012  20.1294997  69.8799988  63.7940012  21.3644997  69.6769988
  64.5360012  19.8614997  70.8199988  64.6930012  18.7754997  70.6479988
  64.0970012  20.0074997  71.8289988  65.9930012  20.5144997  70.7299988
  65.9490012  21.5044997  71.2319988  66.2910012  20.5614997  69.6599988
  67.0650012  19.7824997  71.5119988  67.0200012  18.6784997  71.4019988
  66.8460012  19.8484997  72.5989988  68.5040012  20.3194997  71.2349988
  68.5250012  21.3904997  71.5289988  68.5640012  20.3094997  70.1259988
  69.6460012  19.5664997  71.8939988  70.6610012  20.0084997  71.7999988
  69.6450012  18.5654997  71.4119988  69.4070012  19.2424997  73.4099988
  70.3660012  18.7564997  73.6899988  68.5090012  18.5894997  73.3619988
  69.2910012  20.4554997  74.3239988  70.1820012  21.0994997  74.3599988
  68.2330012  20.8504997  75.0449988  68.3200012  21.6344997  75.8109988
  66.8870012  20.1484997  75.1299988  66.9900012  19.0654997  74.9019988
  66.1170012  20.6874997  74.5379988  66.2720012  20.2174997  76.4959988
  66.1010012  21.2374997  76.9019988  66.9490012  19.8014997  77.2729988
  64.9490012  19.4294997  76.6049988  65.0790012  18.4114997  76.1789988
  64.1950012  20.0174997  76.0399988  64.4230012  19.1894997  77.9749988
  65.1850012  18.6974997  78.6169988  63.5160012  18.5494997  77.9249988
  64.0680012  20.5134997  78.6509988  63.1940012  20.9654997  78.1349988
  64.9060012  21.2234997  78.8179988  63.6840012  20.2644997  80.1229988
  64.2340012  19.4544997  80.6479988  62.6670012  19.8194997  80.1639988
  63.6140012  21.5774997  80.9869988  64.6250012  21.9534997  81.2529988
  63.1600012  21.2774997  81.9549988  62.7270012  22.7484997  80.4359988
  63.0310012  23.0424997  79.4089988  62.9130012  23.7314997  80.9189988
  61.6530012  22.4644997  80.4009988  53.6970012 129.7524997  80.0949988
  53.3480012 129.0814997  80.9089988  52.7670012 130.1774997  79.6619988
  54.1920012 130.6614997  80.4969988  54.5820012 129.0284997  79.1049988
  55.0470012 129.8194997  78.4789988  55.3700012 128.4874997  79.6719988
  53.8250012 128.0364997  78.2619988  54.6540012 127.4274997  77.8409988
  53.2000012 127.3574997  78.8809988  53.0740012 128.6454997  77.1539988
  52.3080012 129.1514997  77.7799988  53.7170012 129.4324997  76.7049988
  52.2970012 127.7734997  76.1029988  51.9380012 126.8584997  76.6199988
  51.4280012 128.3504997  75.7219988  53.3270012 127.5404997  74.9599988
  53.6780012 128.5644997  74.7099988  54.2820012 127.0484997  75.2439988
  52.8060012 126.8084997  73.7399988  52.1640012 127.5824997  73.2669988
  53.5800012 126.5764997  72.9769988  51.9260012 125.5384997  73.9499988
  52.2990012 124.9254997  74.7969988  50.8660012 125.7924997  74.1649988
  51.9690012 124.5054997  72.8309988  52.9130012 123.9194997  72.8049988
  51.1880012 123.7244997  72.9509988  51.8040012 125.0774997  71.3579988
  50.9080012 125.7164997  71.5139988  52.7690012 125.5894997  71.1569988
  51.6150012 123.9504997  70.3889988  52.1550012 123.0154997  70.6479988
  50.5310012 123.7224997  70.4629988  51.9490012 124.4054997  68.9479988
  53.0050012 124.6904997  68.7549988  51.6310012 123.5444997  68.3209988
  51.1700012 125.7444997  68.6479988  50.0930012 125.6014997  68.8769988
  51.4690012 126.5954997  69.2959988  51.4000012 126.2804997  67.1889988
  52.4570012 126.3234997  66.8479988  50.8730012 125.5584997  66.5289988
  50.7070012 127.6134997  66.8069988  50.6440012 127.6104997  65.6979988
  49.7180012 127.5424997  67.3089988  51.4680012 128.8664997  67.2939988
  51.5760012 129.1964997  68.4519988  52.0020012 129.3974997  66.2659988
  52.9220012 130.5184997  66.3129988  52.8160012 131.1284997  65.3909988
  52.8690012 131.1954997  67.1929988  54.4580012 129.9534997  66.1979988
  55.1250012 130.8044997  66.4539988  54.7540012 129.3034997  64.8319988
  54.5490012 130.0114997  64.0009988  55.8430012 129.1334997  64.6889988
  54.0550012 128.1364997  64.7719988  53.6450012 127.4624997  63.3419988
  54.6990012 126.2654997  63.1219988  55.0140012 125.3934997  64.2439988
  55.5530012 125.9574997  65.0339988  54.0510012 125.0684997  64.6939988
  55.7080012 124.0384997  63.8699988  55.6600012 123.4334997  64.7639988
  55.2220012 123.4814997  63.0819988  57.1440012 124.0674997  63.3899988
  57.2410012 124.3544997  61.9459988  56.9300012 125.3664997  61.7319988
  58.2570012 124.1444997  61.6459988  56.5180012 123.7054997  61.4749988
  57.9150012 124.9164997  64.3109988  58.8890012 124.9334997  63.8459988
  57.5440012 125.9284997  64.2299988  57.8200012 124.5114997  65.3079988
  57.6980012 122.6774997  63.4619988  58.7730012 122.7344997  63.3769988
  57.2580012 122.1204997  62.6469988  57.3990012 122.2424997  64.4039988
  52.2760012 126.9414997  63.5099988  53.8330012 128.3804997  62.2129988
  54.5880012 129.0094997  67.2049988  55.6260012 128.2654997  67.4149988
  56.6890012 128.2284997  66.8509988  55.2640012 127.4964997  68.6899988
  54.4310012 126.7814997  68.5199988  54.9150012 128.1954997  69.4789988
  56.6050012 126.8354997  69.2059988  57.3620012 127.6334997  69.3649988
  56.9820012 126.1724997  68.3979988  56.3520012 125.9444997  70.4329988
  55.3620012 125.4484997  70.3439988  56.2710012 126.6244997  71.3079988
  57.6260012 125.0384997  70.7129988  58.4790012 125.7354997  70.5729988
  57.7340012 124.3034997  69.8869988  57.7800012 124.3834997  72.0479988
  58.8200012 124.0114997  72.1669988  57.0730012 123.5314997  71.9629988
  57.2990012 125.2214997  73.2679988  56.2270012 125.4364997  73.0699988
  57.7810012 126.2224997  73.2589988  57.5640012 124.4844997  74.5349988
  58.6460012 124.3184997  74.7219988  57.1540012 123.4654997  74.3659988
  56.8680012 125.1454997  75.6439988  55.7890012 124.9384997  75.6809988
  57.3180012 125.9104997  76.5839988  56.6180012 126.3464997  77.3119988
  58.7620012 126.1724997  76.7779988  59.0420012 127.1474997  76.3249988
  59.4090012 125.4674997  76.2139988  59.2200012 126.4634997  78.2839988
  58.9390012 125.5464997  78.8449988  58.6940012 127.3254997  78.7469988
  60.6560012 126.6454997  78.4499988  60.9620012 127.5644997  77.9059988
  61.2240012 125.8514997  77.9199988  61.1110012 126.7814997  79.8959988
  60.2120012 127.0774997  80.4769988  61.9300012 127.5324997  79.8959988
  61.6610012 125.4044997  80.4149988  62.4420012 125.0884997  79.6909988
  60.7950012 124.7284997  80.2489988  62.1740012 125.5244997  81.8499988
  62.9510012 126.3184997  81.8199988  62.6430012 124.5544997  82.1209988
  61.1080012 125.7674997  82.9269988  60.2790012 125.0314997  82.8529988
  60.4990012 126.6304997  82.5829988  61.5630012 125.9234997  84.4019988
  62.2890012 126.7644997  84.4209988  62.0560012 125.0024997  84.7809988
  60.7930012 126.1684997  85.1649988  42.6380012  21.7934997  83.1039988
  41.6110012  21.5744997  83.4679988  43.3330012  21.1994997  83.7359988
  42.7530012  21.3594997  82.0869988  43.0700012  23.2154997  82.9839988
  42.1520012  23.7364997  82.6389988  43.2510012  23.6384997  83.9959988
  44.1620012  23.4694997  81.9789988  43.9710012  23.1604997  80.9289988
  44.3660012  24.5614997  81.9389988  45.4610012  22.6534997  82.4459988
  45.8000012  22.8214997  83.4899988  45.3920012  21.5634997  82.2399988
  46.7700012  23.1834997  81.7279988  46.9340012  24.2404997  82.0259988
  47.5930012  22.4504997  81.8719988  46.6220012  23.3464997  80.1689988
  45.6960012  23.9314997  79.9869988  47.4200012  24.0414997  79.8309988
  46.6480012  22.2214997  79.1899988  47.3570012  21.4044997  79.4449988
  45.7060012  21.6374997  79.2679988  46.8510012  22.6704997  77.7769988
  46.0650012  23.4034997  77.4999988  47.8580012  23.1404997  77.7459988
  46.8410012  21.4684997  76.7799988  47.6920012  20.9014997  77.2149988
  45.8360012  21.0114997  76.9039988  47.1780012  21.8414997  75.3289988
  46.3600012  22.4574997  74.8959988  48.0210012  22.5574997  75.2309988
  47.3950012  20.5204997  74.5599988  48.1000012  19.8824997  75.1349988
  46.4760012  19.9034997  74.4709988  48.0030012  20.9064997  73.2189988
  47.2010012  21.3884997  72.6199988  48.8380012  21.5744997  73.5219988
  48.7540012  19.7084997  72.5839988  49.4670012  19.3284997  73.3459988
  47.9880012  18.9154997  72.4429988  49.4930012  19.9854997  71.2729988
  49.9910012  20.9764997  71.3319988  50.2410012  19.1884997  71.0729988
  48.6870012  20.1414997  69.9209988  47.8660012  20.8894997  69.9519988
  49.3540012  20.4334997  69.0819988  47.9360012  18.8204997  69.6129988
  48.2590012  17.7044997  69.9869988  46.9190012  19.1114997  68.7049988
  46.5630012  17.9404997  67.9169988  47.3840012  17.6944997  67.2099988
  46.5040012  17.0464997  68.5739988  45.3210012  18.1214997  67.0359988
  45.1110012  17.1624997  66.5159988  45.2920012  19.2844997  66.0949988
  45.3570012  20.2294997  66.6749988  46.1950012  19.1144997  65.4719988
  44.2070012  19.2124997  65.2619988  43.2180012  20.3454997  64.8369988
  43.3560012  20.5474997  63.2399988  44.5110012  20.0504997  62.5019988
  44.6060012  18.9644997  62.7159988  44.2990012  20.0794997  61.4119988
  45.8560012  20.8574997  62.8689988  45.8430012  21.0584997  63.9299988
  46.6860012  20.2624997  62.5169988  45.9100012  22.2944997  62.3279988
  44.8280012  23.0934997  62.8939988  45.0030012  24.1434997  62.7129988
  43.8780012  22.8134997  62.4649988  44.7810012  23.0104997  63.9699988
  47.2000012  22.9954997  62.7569988  48.0150012  22.5524997  62.2039988
  47.1210012  24.0304997  62.4589988  47.3210012  22.8504997  63.8209988
  45.8260012  22.2824997  60.8319988  44.9380012  21.6844997  60.6899988
  46.6720012  21.7144997  60.4749988  45.8060012  23.3054997  60.4859988
  41.9080012  19.7564997  65.1089988  43.6020012  21.5354997  65.5499988
  44.1930012  18.4174997  67.8899988  43.8630012  17.6634997  68.9219988
  44.1610012  16.5214997  69.1509988  43.0660012  18.5164997  69.9689988
  42.1820012  17.8844997  70.1999988  42.8380012  19.4684997  69.4429988
  43.8710012  18.7714997  71.3229988  43.2420012  19.3384997  72.0419988
  44.6940012  19.4874997  71.1129988  44.3710012  17.5764997  72.1129988
  45.0360012  18.0614997  72.8589988  45.0670012  17.0244997  71.4449988
  43.2720012  16.7254997  72.6659988  42.6350012  16.2514997  71.8889988
  42.6970012  17.4004997  73.3359988  43.8830012  15.6104997  73.6339988
  44.9110012  15.5704997  73.2149988  43.3670012  14.6364997  73.4979988
  43.9000012  15.8964997  75.1239988  44.3880012  15.0314997  75.6229988
  42.8760012  15.8924997  75.5529988  44.6690012  17.1784997  75.6269988
  44.4150012  17.3194997  76.6989988  44.1820012  17.9504997  74.9939988
  46.2360012  17.0524997  75.3639988  46.5510012  17.0764997  74.3109988
  47.1690012  16.8114997  76.3059988  48.2140012  16.8264997  75.9629988
  46.9160012  16.6214997  77.8579988  47.5510012  15.8064997  78.2669988
  45.8810012  16.2484997  78.0139988  47.0560012  17.8284997  78.6939988
  46.2000012  18.5174997  78.5339988  48.0280012  18.3264997  78.4869988
  46.8710012  17.4924997  80.1819988  47.6400012  16.7314997  80.4349988
  45.7920012  17.2944997  80.3589988  47.1760012  18.6704997  81.0879988
  46.6470012  19.5794997  80.7289988  48.2560012  18.8704997  80.9219988
  46.9020012  18.4564997  82.5329988  47.1430012  17.4194997  82.8509988
  45.8600012  18.8014997  82.7009988  47.7690012  19.2694997  83.3899988
  47.5110012  20.3424997  83.2599988  48.8120012  19.1254997  83.0349988
  47.6970012  19.0774997  84.8629988  47.9800012  19.9494997  85.4909988
  48.3970012  18.2704997  85.1689988  46.3960012  18.6824997  85.4999988
  46.0780012  17.7954997  84.9099988  45.5330012  19.3694997  85.3649988
  46.5650012  18.2504997  86.5089988   7.5600012  94.5134997  79.5609988
   8.0950012  95.0494997  78.7489988   6.8600012  95.1824997  80.1049988
   6.9560012  93.6894997  79.1239988   8.5770012  93.9464997  80.5589988
   8.9480012  94.7244997  81.2599988   8.0220012  93.2214997  81.1919988
   9.7590012  93.1744997  79.9499988  10.4040012  92.6974997  80.7189988
   9.1410012  92.4194997  79.4189988  10.4130012  93.7874997  78.6839988
   9.6580012  93.8374997  77.8699988  10.7170012  94.8314997  78.9089988
  11.6280012  92.9274997  78.2759988  12.2680012  92.8734997  79.1819988
  11.3660012  91.8854997  77.9909988  12.4170012  93.5264997  77.0579988
  11.7750012  93.4504997  76.1539988  12.6840012  94.5944997  77.2079988
  13.7540012  92.7844997  76.8089988  14.1270012  92.8044997  77.8559988
  13.6300012  91.7214997  76.5079988  14.8470012  93.4914997  75.8829988
  15.1720012  94.4874997  76.2539988  15.7070012  92.7884997  75.8599988
  14.2880012  93.7064997  74.3859988  13.3420012  94.2884997  74.3689988
  15.0900012  94.2874997  73.8819988  14.0240012  92.3824997  73.5229988
  14.8930012  91.6914997  73.4819988  13.2050012  91.8214997  74.0209988
  13.6540012  92.8014997  72.1059988  12.5860012  93.1014997  72.1669988
  14.1730012  93.7164997  71.7499988  13.7890012  91.7434997  71.0829988
  14.8610012  91.4524997  71.1029988  13.1780012  90.8634997  71.3799988
  13.3620012  92.1354997  69.6089988  13.9580012  93.0664997  69.4939988
  13.7380012  91.3434997  68.9269988  11.9220012  92.6184997  69.3459988
  11.5420012  93.2544997  70.1739988  11.9700012  93.2344997  68.4229988
  10.8340012  91.5484997  69.1819988  11.0630012  90.7524997  68.4429988
  10.7680012  91.0894997  70.1919988   9.4810012  92.1714997  68.7649988
   8.5790012  92.4094997  69.5289988   9.3550012  92.3114997  67.4169988
   8.2410012  92.9974997  66.8959988   7.9780012  92.3834997  66.0079988
   7.3830012  93.1474997  67.5859988   8.7600012  94.3974997  66.2779988
   7.9270012  94.8864997  65.7299988   9.9650012  94.3194997  65.1849988
   9.5760012  93.7154997  64.3379988  10.0640012  95.3284997  64.7299988
  11.0840012  93.7634997  65.8239988  12.4880012  94.2794997  65.5889988
  12.7010012  94.3894997  63.9659988  13.9130012  94.9934997  63.6669988
  13.6960012  95.9534997  63.1529988  14.4940012  95.3754997  64.5329988
  14.8010012  94.1414997  62.7729988  15.7960012  94.5544997  62.6869988
  15.0550012  93.1554997  63.1329988  14.3010012  94.0384997  61.3709988
  13.1130012  93.1344997  61.3179988  12.1680012  93.5534997  61.6319988
  12.9580012  92.9104997  60.2729988  13.2730012  92.2304997  61.8879988
  14.1190012  95.4074997  60.7249988  13.1980012  95.8404997  61.0849988
  14.8940012  96.1064997  61.0039988  14.0740012  95.2814997  59.6529988
  15.3770012  93.3314997  60.6489988  16.3010012  93.8884997  60.6139988
  15.0850012  93.1614997  59.6229988  15.6290012  92.3744997  61.0829988
  12.6330012  95.6164997  66.1989988  13.4500012  93.2854997  66.0979988
   9.2030012  95.2084997  67.3989988   9.6010012  96.5154997  67.1429988
   9.5000012  96.9974997  66.0529988  10.0930012  97.1594997  68.4579988
  10.1400012  98.2354997  68.1879988  11.0940012  96.7674997  68.7399988
   9.0630012  96.9654997  69.5639988   8.0490012  97.1174997  69.1369988
   9.3370012  97.8184997  70.2209988   9.2620012  95.8094997  70.5099988
  10.3100012  95.9994997  70.8279988   9.2280012  94.8504997  69.9499988
   8.3600012  95.9374997  71.7789988   7.3670012  95.8194997  71.2949988
   8.4100012  97.0004997  72.0979988   8.5490012  95.0264997  72.9779988
   8.3360012  93.9954997  72.6229988   7.8790012  95.5364997  73.7029988
   9.9940012  95.0434997  73.5689988  10.8040012  94.7134997  72.8839988
   9.9950012  94.2094997  74.3029988  10.6000012  96.2704997  74.3369988
  10.7190012  97.0584997  73.5629988  11.5570012  95.9324997  74.7909988
   9.7740012  96.6924997  75.5399988   9.1460012  95.8684997  75.9099988
   9.7350012  97.8724997  76.1569988   9.1820012  97.8524997  77.1079988
  10.4290012  99.2634997  75.9299988  10.0450012  99.8884997  76.7639988
  10.1930012  99.8264997  75.0019988  11.9890012  99.2324997  75.9009988
  12.4680012 100.2254997  75.7639988  12.2470012  98.6644997  74.9819988
  12.5590012  98.4984997  77.1469988  12.2160012  97.4414997  77.1709988
  12.2270012  99.1504997  77.9829988  14.1290012  98.4824997  77.2929988
  14.4570012  99.5374997  77.1769988  14.7110012  97.8824997  76.5619988
  14.4670012  98.0034997  78.6849988  14.0380012  98.7504997  79.3869988
  15.5570012  98.1914997  78.7909988  14.0170012  96.6024997  79.1509988
  14.1430012  95.7434997  78.4579988  12.9220012  96.7204997  79.2979988
  14.6400012  96.2194997  80.5359988  14.2790012  97.0384997  81.1939988
  15.7440012  96.1434997  80.4329988  14.0750012  94.9944997  81.1849988
  14.3720012  94.0654997  80.6519988  12.9660012  94.9844997  81.1179988
  14.3440012  95.0034997  82.2629988  37.7700012  23.3194997  82.6159988
  37.9210012  22.6804997  83.5129988  37.5330012  24.3724997  82.8789988
  38.6470012  23.3894997  81.9379988  36.5750012  22.9084997  81.7029988
  36.8570012  21.9804997  81.1609988  35.6130012  22.9004997  82.2579988
  36.3780012  23.9344997  80.5519988  36.0740012  24.9374997  80.9209988
  37.3970012  24.1084997  80.1459988  35.4910012  23.7024997  79.2899988
  35.7480012  24.3584997  78.4299988  35.6030012  22.7244997  78.7759988
  34.0100012  23.8744997  79.7149988  33.6660012  23.0104997  80.3229988
  34.0490012  24.7294997  80.4239988  33.0820012  24.2584997  78.6159988
  32.9080012  23.4164997  77.9119988  32.0970012  24.5154997  79.0609988
  33.5160012  25.3914997  77.6699988  34.5700012  25.1854997  77.3849988
  32.9080012  25.2644997  76.7489988  33.2810012  26.8154997  78.1549988
  32.1890012  27.0004997  78.0679988  33.6140012  26.8154997  79.2149988
  33.9340012  27.9384997  77.4589988  33.5200012  28.8484997  77.9439988
  35.0240012  27.9594997  77.6729988  33.7680012  28.0814997  75.9499988
  32.7150012  27.7854997  75.7549988  33.8710012  29.1454997  75.6469988
  34.7870012  27.1684997  75.1719988  35.7680012  27.2564997  75.6859988
  34.6170012  26.0724997  75.2389988  34.8290012  27.6454997  73.7699988
  35.2130012  26.8784997  73.0639988  33.8270012  27.9614997  73.4069988
  35.7610012  28.8324997  73.4089988  35.4300012  29.7774997  73.8889988
  36.7670012  28.5754997  73.8019988  35.8880012  29.1064997  71.9489988
  34.8290012  28.9724997  71.6389988  36.1680012  30.1684997  71.7799988
  36.9980012  28.3524997  71.1979988  38.0720012  28.5374997  71.4119988
  36.9010012  27.3094997  71.5659988  36.7220012  28.3474997  69.6939988
  35.6780012  28.6524997  69.1179988  37.7980012  27.8074997  69.1709988
  37.7850012  27.4324997  67.8469988  37.3470012  28.2434997  67.2269988
  38.8550012  27.2504997  67.6099988  36.9620012  26.1384997  67.4599988
  37.4010012  25.4304997  68.1949988  37.2540012  25.6754997  65.9889988
  38.2610012  25.2144997  66.0759988  36.3990012  25.0444997  65.6639988
  37.3640012  26.8164997  65.2209988  36.4020012  27.1444997  64.0009988
  36.3580012  25.7384997  63.2369988  37.5510012  25.1984997  62.7339988
  37.9810012  25.8424997  61.9369988  38.3530012  25.0404997  63.4869988
  37.2550012  23.7774997  62.1459988  36.5110012  23.9304997  61.3789988
  38.2110012  23.4634997  61.7529988  36.8160012  22.7004997  63.0649988
  35.4730012  23.0844997  63.5119988  35.0990012  22.2054997  64.0159988
  35.5390012  23.9294997  64.1809988  34.8480012  23.3364997  62.6679988
  36.7380012  21.3984997  62.3729988  36.4520012  20.6394997  63.0869988
  36.0730012  21.3844997  61.5229988  37.7140012  21.2324997  61.9419988
  37.6770012  22.5274997  64.2599988  38.6710012  22.3434997  63.8809988
  37.2480012  21.7254997  64.8419988  37.6730012  23.4304997  64.8519988
  35.0690012  27.4544997  64.5219988  37.0000012  28.1814997  63.1089988
  35.5740012  26.3764997  67.7219988  34.8290012  25.3414997  68.1309988
  35.2450012  24.1784997  68.3039988  33.3890012  25.8054997  68.3759988
  32.8250012  25.7334997  67.4209988  33.5910012  26.8284997  68.7599988
  32.8450012  24.8364997  69.4349988  32.8420012  23.8264997  68.9709988
  31.8080012  25.1634997  69.6639988  33.5180012  24.8774997  70.9059988
  33.4450012  25.9324997  71.2449988  34.5780012  24.5554997  70.8299988
  32.8200012  23.9554997  71.8499988  32.6470012  22.9464997  71.4179988
  31.7800012  24.3414997  71.9109988  33.4020012  23.8184997  73.2879988
  32.8010012  23.1984997  73.9879988  33.3310012  24.8784997  73.6129988
  34.8250012  23.3774997  73.3999988  35.5420012  23.9914997  72.8139988
  34.7620012  22.4484997  72.7939988  35.3960012  23.1334997  74.8409988
  34.7350012  22.4414997  75.4049988  35.3010012  24.0464997  75.4659988
  36.7970012  22.5284997  74.7579988  36.8450012  21.4984997  74.3749988
  37.9550012  23.0764997  75.0569988  38.9220012  22.6864997  74.7069988
  38.1330012  24.4804997  75.6299988  37.1650012  25.0254997  75.6399988
  38.8480012  25.0774997  75.0249988  38.7230012  24.4154997  76.9889988
  39.6220012  23.7634997  76.9639988  38.1070012  23.8224997  77.6979988
  39.1980012  25.6864997  77.5659988  39.6780012  26.3194997  76.7889988
  39.9600012  25.5344997  78.3609988  38.1040012  26.4724997  78.2999988
  37.6440012  25.8894997  79.1269988  37.3660012  26.6514997  77.4899988
  38.5770012  27.8904997  78.7349988  39.0600012  28.4734997  77.9219988
  39.2810012  27.8134997  79.5909988  37.4680012  28.7734997  79.2179988
  36.6650012  28.6924997  78.4539988  37.8180012  29.8194997  79.3439988
  36.9670012  28.5174997  80.7009988  36.4160012  27.5524997  80.6689988
  36.3050012  29.3624997  80.9879988  38.0840012  28.3514997  81.7849988
  38.8380012  27.6154997  81.4329988  37.6470012  27.9724997  82.7339988
  38.5700012  29.3434997  81.8999988  21.0020012  43.3774997  80.3099988
  21.6990012  44.1734997  79.9709988  21.5150012  42.4724997  80.7009988
  20.5320012  43.7484997  81.2459988  19.9920012  43.1464997  79.2039988
  19.1720012  42.5724997  79.6859988  19.6580012  44.1504997  78.8659988
  20.5250012  42.4404997  77.9969988  21.3150012  43.0514997  77.5079988
  20.9300012  41.4594997  78.3249988  19.3610012  42.0544997  77.0039988
  18.5550012  41.4444997  77.4649988  18.8050012  42.9544997  76.6659988
  19.9120012  41.1924997  75.9019988  20.2700012  40.1984997  76.2469988
  19.0650012  41.0284997  75.2029988  20.9530012  41.7614997  74.9789988
  20.5880012  42.6154997  74.3679988  21.8350012  42.1064997  75.5599988
  21.3240012  40.6694997  74.0259988  21.7690012  39.7504997  74.4639988
  20.3820012  40.3774997  73.5139988  22.2040012  41.0334997  72.8089988
  21.8720012  41.9844997  72.3409988  23.1950012  41.3764997  73.1739988
  22.3240012  39.8524997  71.8619988  22.7750012  39.0364997  72.4659988
  21.2830012  39.6534997  71.5259988  23.3630012  40.1174997  70.6539988
  22.8560012  40.8244997  69.9629988  24.2120012  40.6494997  71.1339988
  23.9300012  38.8904997  69.9979988  24.7810012  39.1194997  69.3209988
  24.2060012  38.2544997  70.8659988  22.8980012  38.0874997  69.2419988
  23.3870012  37.0934997  69.1479988  22.0010012  37.7894997  69.8249988
  22.5070012  38.7144997  67.8999988  21.9900012  39.6974997  67.9449988
  23.3680012  38.8874997  67.2189988  21.4420012  37.8164997  67.2349988
  21.5950012  37.8624997  66.1349988  21.6140012  36.7484997  67.4869988
  19.9380012  38.0444997  67.4519988  19.7650012  37.9884997  68.5479988
  19.6920012  39.0954997  67.1869988  19.0750012  36.9224997  66.7369988
  19.5500012  35.8814997  66.3639988  17.9290012  37.4354997  66.4379988
  17.0260012  36.6384997  65.6019988  17.4740012  35.6564997  65.3369988
  16.1270012  36.5404997  66.2459988  16.5970012  37.4814997  64.3679988
  15.6920012  37.0394997  63.8979988  17.6410012  37.6224997  63.3169988
  18.2580012  36.7074997  63.1929988  17.1190012  37.9284997  62.3849988
  18.4560012  38.7084997  63.6329988  19.7610012  39.1734997  62.9049988
  20.0880012  40.4544997  63.7449988  19.3360012  41.0354997  64.7679988
  18.5790012  40.2914997  65.0969988  19.9520012  41.2284997  65.6719988
  18.5320012  42.2404997  64.3399988  17.7920012  41.9234997  63.6199988
  17.9560012  42.6454997  65.1589988  19.2270012  43.4164997  63.6649988
  19.8340012  43.0124997  62.2999988  19.0670012  42.8584997  61.5549988
  20.4680012  43.7994997  61.9189988  20.5260012  42.1914997  62.4139988
  18.1300012  44.4164997  63.4709988  17.4750012  44.4164997  64.3289988
  18.5670012  45.4024997  63.4129988  17.4750012  44.2164997  62.6359988
  20.2220012  44.0224997  64.5899988  21.0230012  43.3064997  64.6979988
  19.8100012  44.3354997  65.5379988  20.7520012  44.8744997  64.1899988
  20.7660012  38.1144997  63.2669988  19.5170012  39.5934997  61.4969988
  16.0760012  38.6894997  65.0069988  15.2800012  39.5474997  64.3389988
  15.0360012  39.4724997  63.1379988  14.6820012  40.5294997  65.3509988
  14.2710012  39.8794997  66.1519988  13.8990012  41.2274997  64.9879988
  15.9090012  41.2974997  65.8589988  16.1990012  42.0774997  65.1229988
  16.7700012  40.6394997  66.1059988  15.5310012  41.9964997  67.2129988
  15.0190012  41.2714997  67.8819988  14.7500012  42.7704997  67.0599988
  16.6430012  42.8094997  67.8769988  16.2430012  43.6674997  68.4599988
  17.2580012  43.2894997  67.0859988  17.5920012  42.0414997  68.7899988
  18.5370012  42.6124997  68.9149988  17.8710012  41.2084997  68.1099988
  16.9280012  41.5544997  70.0599988  15.9760012  41.0004997  69.9099988
  16.7030012  42.5524997  70.4929988  17.8700012  40.8464997  71.0929988
  17.2020012  40.5924997  71.9429988  18.5250012  41.6264997  71.5359988
  18.6910012  39.5924997  70.6839988  19.6140012  39.8034997  70.1249988
  18.2970012  38.3154997  70.8859988  18.9130012  37.4844997  70.5129988
  16.9870012  37.8654997  71.5609988  16.2360012  37.6064997  70.7839988
  16.4760012  38.6254997  72.1899988  17.1570012  36.5894997  72.3989988
  17.6520012  35.8104997  71.7809988  16.1630012  36.1734997  72.6689988
  17.9430012  36.9524997  73.6849988  18.5700012  37.8574997  73.5309988
  18.4930012  36.0734997  74.0819988  16.9870012  37.5134997  74.8099988
  16.2110012  36.7214997  74.8729988  16.5230012  38.4714997  74.4899988
  17.7510012  37.6544997  76.1579988  18.6470012  38.2314997  75.8429988
  18.1640012  36.6474997  76.3819988  16.9580012  38.1734997  77.3189988
  16.0740012  37.5154997  77.4519988  16.5850012  39.1974997  77.1029988
  17.8280012  38.3704997  78.5719988  18.7740012  38.8754997  78.2829988
  18.0820012  37.3614997  78.9619988  17.0830012  39.1644997  79.6869988
  16.6690012  40.1364997  79.3439988  17.7540012  39.3534997  80.5519988
  16.2750012  38.5004997  80.0619988  52.4010012  19.7134997  80.3519988
  51.5180012  19.8024997  81.0199988  53.1140012  20.5594997  80.4549988
  52.9200012  18.7404997  80.4929988  51.7600012  19.8114997  78.9429988
  51.2530012  20.7924997  78.8269988  52.5850012  19.9324997  78.2089988
  50.7780012  18.7344997  78.6919988  51.2490012  17.8194997  79.1109988
  49.8800012  18.9024997  79.3239988  50.3140012  18.5374997  77.2429988
  50.2620012  19.5324997  76.7509988  51.0990012  17.9454997  76.7259988
  49.0460012  17.6874997  77.2759988  48.1280012  18.1754997  77.6689988
  48.6300012  17.5934997  76.2499988  49.1620012  16.2034997  77.8529988
  49.4290012  16.2774997  78.9279988  48.1510012  15.7474997  77.9159988
  50.0140012  15.1654997  77.1529988  51.0690012  15.5014997  77.2349988
  50.1610012  14.1904997  77.6659988  49.9020012  14.8824997  75.6049988
  49.1080012  14.1394997  75.3739988  49.5800012  15.7474997  74.9859988
  51.0800012  14.3564997  74.8109988  51.7880012  15.1754997  74.5619988
  51.5390012  13.6154997  75.4989988  50.7310012  13.7124997  73.4709988
  49.9220012  12.9554997  73.5599988  50.2820012  14.5384997  72.8789988
  51.8680012  12.9884997  72.6509988  52.5480012  12.4474997  73.3439988
  51.4340012  12.2524997  71.9409988  52.7890012  13.9664997  71.9769988
  52.1050012  14.6114997  71.3849988  53.3590012  14.6394997  72.6529988
  53.9170012  13.3554997  71.1309988  54.6270012  12.8284997  71.8029988
  53.4700012  12.6954997  70.3569988  54.8520012  14.3944997  70.4339988
  55.3250012  15.0764997  71.1719988  55.6600012  13.8024997  69.9529988
  54.0700012  15.2524997  69.3919988  53.0380012  15.5764997  69.6469988
  54.7420012  16.0964997  69.1259988  54.0730012  14.2674997  68.2189988
  55.0010012  13.8534997  67.5379988  52.7950012  13.8874997  67.9429988
  52.4770012  13.4284997  66.6359988  53.0080012  14.0444997  65.8779988
  52.8430012  12.3894997  66.4909988  51.0120012  13.6204997  66.2259988
  50.4270012  12.7604997  66.6159988  50.9370012  13.5624997  64.6189988
  51.5640012  12.7444997  64.2029988  49.8470012  13.3594997  64.5549988
  51.0790012  14.7934997  64.0059988  52.0850012  15.0684997  62.8469988
  52.2960012  16.6374997  63.1509988  52.8240012  17.0134997  64.4229988
  52.3180012  16.4674997  65.2479988  53.9250012  16.8634997  64.4239988
  52.5810012  18.5244997  64.7029988  51.5490012  18.8134997  64.5689988
  52.7290012  18.5464997  65.7719988  53.3780012  19.5204997  63.7969988
  53.0220012  19.3614997  62.3619988  53.6130012  20.0654997  61.7929988
  53.1460012  18.3214997  62.0989988  51.9890012  19.6284997  62.1909988
  53.1010012  20.8874997  64.3789988  52.0650012  21.1204997  64.1829988
  53.3280012  20.9244997  65.4349988  53.6510012  21.7254997  63.9769988
  54.8480012  19.3544997  64.0899988  55.2130012  18.3804997  63.7979988
  54.9960012  19.3574997  65.1599988  55.4570012  20.1754997  63.7429988
  53.3910012  14.3824997  62.8489988  51.2990012  14.9134997  61.5749988
  50.5380012  14.8244997  66.7329988  50.0690012  14.8314997  68.0239988
  49.7020012  13.8724997  68.7039988  50.3970012  16.2054997  68.5739988
  50.0000012  16.9564997  67.8589988  51.4970012  16.3034997  68.7009988
  49.5830012  16.4324997  69.8589988  49.9850012  15.6854997  70.5769988
  48.5350012  16.1844997  69.5869988  49.6520012  17.8044997  70.5679988
  48.9820012  17.6984997  71.4469988  49.2010012  18.5804997  69.9129988
  51.0710012  18.2144997  70.9949988  51.0460012  19.3244997  70.9589988
  51.9380012  17.9994997  70.3329988  51.4780012  17.8194997  72.4679988
  51.5120012  16.7154997  72.5799988  50.6650012  18.1544997  73.1469988
  52.7440012  18.5104997  72.9079988  52.9920012  18.4484997  73.9889988
  52.4830012  19.5884997  72.8459988  53.9160012  18.0634997  72.0469988
  54.0060012  18.5594997  71.0569988  53.6470012  16.9994997  71.8749988
  55.2450012  18.2614997  72.8239988  55.8740012  19.1064997  72.5069988
  55.7150012  17.4764997  73.7729988  56.7000012  17.6134997  74.2449988
  54.9890012  16.2324997  74.2259988  55.3070012  15.3824997  73.5839988
  53.9140012  16.3704997  73.9829988  55.1020012  15.9874997  75.7569988
  56.0800012  15.5044997  75.9649988  54.4080012  15.1304997  75.8899988
  54.8670012  17.1524997  76.7209988  53.8070012  17.4764997  76.7849988
  55.3470012  18.0564997  76.2889988  55.3810012  16.9314997  78.1329988
  55.1650012  17.8314997  78.7469988  56.4670012  16.6974997  78.1389988
  54.5770012  15.8704997  78.8089988  54.8620012  14.8874997  78.3769988
  53.4940012  16.1034997  78.7159988  54.8850012  15.7694997  80.2839988
  54.3080012  14.9564997  80.7749988  54.6190012  16.7604997  80.7099988
  56.3940012  15.4594997  80.6509988  57.1400012  16.2614997  80.4659988
  56.6170012  14.5514997  80.0519988  56.5210012  15.0844997  82.0869988
  57.4800012  14.5684997  82.3059988  55.7060012  14.3934997  82.3919988
  56.3810012  15.9844997  82.7229988 116.6400012  27.3114997  80.0789988
 116.3520012  28.1064997  80.7999988 116.6560012  26.4264997  80.7499988
 115.8880012  27.2864997  79.2609988 118.0340012  27.5954997  79.6159988
 117.9480012  28.2824997  78.7469988 118.6740012  28.0284997  80.4139988
 118.7590012  26.3404997  79.1109988 119.1540012  25.8594997  80.0309988
 118.0110012  25.6374997  78.6859988 119.9620012  26.5274997  78.1239988
 120.6100012  27.2514997  78.6609988 120.5540012  25.5974997  77.9839988
 119.4220012  27.2004997  76.8619988 118.4950012  26.7394997  76.4589988
 119.1290012  28.2674997  76.9559988 120.5190012  27.1864997  75.7979988
 120.8770012  26.1634997  75.5519988 120.0020012  27.5824997  74.8979988
 121.8710012  27.7984997  76.0009988 122.4160012  27.3284997  76.8479988
 122.4270012  27.7364997  75.0409988 121.8170012  29.2864997  76.3609988
 121.3300012  29.3994997  77.3529988 122.8600012  29.6184997  76.5549988
 120.9800012  30.1164997  75.3619988 121.4610012  29.8394997  74.3989988
 119.9080012  29.8704997  75.2019988 121.1300012  31.6584997  75.4539988
 120.4330012  32.0584997  76.2219988 122.1760012  31.8704997  75.7599988
 120.8780012  32.4474997  74.1489988 120.7790012  33.5344997  74.3509988
 121.7210012  32.2904997  73.4419988 119.6390012  32.0134997  73.2479988
 119.7700012  30.9744997  72.8769988 118.7650012  32.2174997  73.9019988
 119.5890012  33.0464997  72.0649988 119.3730012  34.0694997  72.4429988
 120.6200012  33.1134997  71.6579988 118.8240012  32.6204997  70.8029988
 119.2680012  33.2234997  69.9819988 118.8780012  31.5194997  70.6589988
 117.3090012  32.8684997  70.8119988 116.9390012  32.3024997  71.6929988
 116.9830012  33.9174997  70.9789988 116.5380012  32.3454997  69.5189988
 115.6460012  32.9804997  68.9459988 117.0250012  31.1234997  69.2319988
 116.5880012  30.4754997  68.0719988 116.5910012  29.3944997  68.3249988
 115.5190012  30.7704997  67.9979988 117.4070012  30.9334997  66.9329988
 117.1670012  31.9544997  66.5659988 117.1640012  29.9414997  65.7369988
 116.0600012  29.8874997  65.6259988 117.6060012  30.3104997  64.7869988
 117.8340012  28.7214997  66.1329988 117.6780012  27.3544997  65.3819988
 117.5430012  27.7504997  63.8329988 117.9320012  26.9114997  62.7779988
 118.5530012  26.0464997  63.0939988 117.0310012  26.3394997  62.4699988
 118.4490012  27.6814997  61.5699988 118.5460012  26.9444997  60.7869988
 117.6600012  28.3694997  61.3029988 119.8130012  28.3634997  61.7369988
 119.8730012  29.2494997  62.9409988 119.0900012  29.9924997  62.9059988
 119.6420012  28.6634997  63.8179988 120.8630012  29.6444997  63.1179988
 120.7910012  27.1654997  61.8269988 121.7570012  27.6404997  61.9129988
 120.4840012  26.4584997  62.5829988 120.8070012  26.7754997  60.8199988
 120.3150012  29.0704997  60.4989988 121.3430012  29.3974997  60.5479988
 119.6760012  29.9174997  60.2989988 120.1200012  28.4364997  59.6469988
 118.9580012  26.6024997  65.5479988 116.3850012  26.8394997  65.9329988
 118.8540012  30.9004997  67.1959988 119.8070012  31.3574997  66.3419988
 119.6070012  31.9034997  65.2829988 121.2270012  31.1634997  66.9069988
 121.5120012  32.0754997  67.4729988 121.7670012  31.0144997  65.9469988
 121.3850012  29.9394997  67.8859988 120.7250012  30.1614997  68.7519988
 122.4620012  29.9964997  68.1519988 120.9800012  28.6614997  67.1649988
 121.3740012  28.7174997  66.1279988 119.8970012  28.6524997  66.9179988
 121.2730012  27.5114997  68.0579988 122.2460012  27.6684997  68.5719988
 121.2550012  26.5854997  67.4429988 120.3160012  27.4354997  69.3239988
 119.3390012  27.4524997  68.7939988 120.3800012  28.4344997  69.8059988
 120.3900012  26.3614997  70.4279988 121.4700012  26.1274997  70.5379988
 120.1290012  25.3714997  69.9969988 119.7200012  26.6794997  71.7439988
 120.1450012  27.5944997  72.2099988 120.1070012  25.8774997  72.4089988
 118.2200012  26.6214997  71.6089988 117.9440012  25.6274997  71.2279988
 117.3100012  27.6094997  71.8249988 116.2210012  27.4794997  71.7389988
 117.6210012  29.0104997  72.2249988 116.9140012  29.6584997  71.6649988
 118.6880012  29.2484997  72.0229988 117.3080012  29.3334997  73.6829988
 117.9810012  30.1654997  73.9809988 117.6890012  28.5714997  74.3959988
 115.8860012  29.7924997  74.0239988 115.1010012  29.1834997  73.5259988
 115.7230012  30.7974997  73.5779988 115.4530012  29.9414997  75.5419988
 115.4480012  28.9284997  75.9969988 114.4550012  30.4294997  75.5639988
 116.4600012  30.7364997  76.3259988 116.4790012  31.7514997  75.8739988
 117.3770012  30.2324997  75.9519988 116.2800012  30.8154997  77.8709988
 116.5050012  29.8614997  78.3939988 115.2490012  31.1854997  78.0589988
 117.2730012  31.7884997  78.5389988 117.5170012  32.7224997  77.9889988
 118.2650012  31.2924997  78.5949988 116.8420012  32.2064997  79.9359988
 116.0060012  32.9384997  79.9199988 117.6530012  32.8904997  80.2649988
 116.7330012  31.4594997  80.7509988   9.0890012  72.0774997  82.6289988
   9.8930012  72.8384997  82.5409988   8.8440012  72.1234997  83.7109988
   8.0910012  72.3464997  82.2199988   9.5330012  70.6664997  82.3119988
  10.5510012  70.5094997  82.7289988   8.8750012  69.9644997  82.8669988
   9.3980012  70.3894997  80.8839988   9.8660012  69.4164997  80.6209988
   8.3250012  70.1804997  80.6859988  10.0970012  71.3994997  79.8399988
   9.5450012  72.3574997  79.9499988  11.1750012  71.5764997  80.0409988
   9.8840012  70.9304997  78.3589988   9.9390012  69.8254997  78.2559988
   8.7940012  71.0614997  78.1879988  10.6070012  71.8034997  77.2769988
  10.2670012  72.8574997  77.3689988  11.6760012  71.8104997  77.5769988
  10.4350012  71.2964997  75.8239988  11.4170012  71.5414997  75.3649988
  10.3730012  70.1924997  75.7179988   9.2290012  72.0074997  74.9829988
   8.4330012  71.2754997  75.2379988   8.8410012  72.9544997  75.4159988
   9.4020012  72.0294997  73.5049988   8.7580012  72.8274997  73.0769988
  10.4370012  72.3894997  73.3249988   9.3500012  70.5994997  72.8359988
  10.1400012  69.9874997  73.3209988   8.3500012  70.1274997  72.9439988
   9.8750012  70.6724997  71.3259988   9.1820012  71.3644997  70.7999988
  10.7840012  71.3104997  71.2899988  10.1700012  69.2664997  70.8009988
  10.6810012  68.6044997  71.5329988   9.2660012  68.7064997  70.4819988
  11.0780012  69.2514997  69.5229988  12.1470012  69.2884997  69.8239988
  10.7850012  68.2424997  69.1609988  10.8950012  70.3034997  68.4149988
   9.8090012  70.4054997  68.2009988  11.2320012  71.3204997  68.7089988
  11.5370012  70.0784997  67.0129988  11.1110012  70.8164997  66.3009988
  12.6360012  70.1924997  67.1309988  11.2000012  68.6954997  66.5619988
  12.0560012  67.8184997  66.3619988   9.9020012  68.4784997  66.3819988
   9.6020012  67.0624997  66.3519988   9.9080012  66.6464997  65.3679988
  10.2330012  66.5544997  67.1129988   8.1340012  66.8004997  66.6799988
   7.9550012  65.7294997  66.4449988   7.2880012  67.7194997  65.6319988
   7.7690012  67.6924997  64.6309988   6.2640012  67.3364997  65.4359988
   7.3280012  69.1114997  66.0539988   6.6010012  70.1744997  65.1129988
   7.5070012  70.2724997  63.7639988   8.7910012  70.7934997  63.8249988
   8.9380012  71.6234997  64.5479988   9.4940012  69.9824997  64.1119988
   9.2450012  71.2904997  62.4189988  10.3140012  71.4404997  62.4509988
   9.0790012  70.5234997  61.6779988   8.6730012  72.4974997  61.7569988
   9.0270012  73.6354997  62.6559988  10.0910012  73.8114997  62.7109988
   8.4670012  74.5484997  62.5149988   8.8330012  73.3294997  63.6729988
   9.2620012  72.7924997  60.3559988   9.1600012  71.8464997  59.8459988
   8.6950012  73.5764997  59.8749988  10.3070012  73.0444997  60.4579988
   7.1340012  72.4834997  61.6979988   6.8320012  72.4574997  62.7339988
   6.7220012  71.6724997  61.1149988   6.8640012  73.4054997  61.2049988
   5.2920012  69.6074997  64.7309988   6.6620012  71.4784997  65.8089988
   7.8720012  67.0854997  68.0409988   6.5540012  66.9574997  68.4809988
   5.6080012  66.4594997  67.8959988   6.4810012  67.5304997  69.8749988
   7.2580012  67.1654997  70.5799988   5.5030012  67.1964997  70.2849988
   6.3530012  69.0924997  69.8509988   7.2150012  69.5074997  69.2859988
   6.4010012  69.4764997  70.8919988   5.0900012  69.5844997  69.2199988
   4.3120012  69.0174997  69.7739988   4.9620012  69.3794997  68.1349988
   4.8860012  71.1394997  69.3449988   3.8350012  71.3854997  69.0819988
   5.4750012  71.7914997  68.6649988   4.9890012  71.6904997  70.7709988
   4.9530012  72.8004997  70.7529988   6.0580012  71.5054997  71.0099988
   4.0490012  71.1084997  71.7529988   4.2530012  70.0204997  71.6549988
   2.9470012  71.0634997  71.6189988   4.2890012  71.5984997  73.2069988
   3.8970012  72.6214997  73.3929988   5.3770012  71.5544997  73.4229988
   3.4500012  70.7894997  74.1609988   2.4250012  70.6864997  73.7749988
   3.8320012  70.4324997  75.3999988   3.1170012  69.8834997  76.0309988
   5.1360012  70.8344997  76.0089988   4.8860012  71.5434997  76.8269988
   5.8710012  71.3754997  75.3749988   5.9920012  69.6114997  76.5759988
   5.2860012  69.1484997  77.2989988   6.7190012  70.1174997  77.2469988
   6.5160012  68.5894997  75.5219988   6.8450012  69.0544997  74.5689988
   5.6460012  67.9414997  75.2829988   7.7600012  67.7634997  75.9189988
   8.5260012  68.4644997  76.3129988   8.1790012  67.2604997  75.0219988
   7.4990012  66.8924997  77.1709988   7.1520012  67.5284997  78.0129988
   8.4840012  66.4294997  77.3969988   6.5800012  65.7554997  77.0319988
   6.8450012  65.1044997  76.1709988   5.6480012  66.2964997  76.7609988
   6.2040012  64.9814997  78.2869988   5.4660012  64.2954997  77.8189988
   5.7520012  65.6594997  79.0419988   7.2430012  63.9764997  78.7659988
   8.0280012  64.5204997  79.3349988   7.7270012  63.5514997  77.8609988
   6.8400012  63.1534997  79.3939988  25.5120012 119.4284997  82.6929988
  24.5280012 118.9304997  82.5659988  25.5470012 120.4054997  82.1649988
  25.6240012 119.6124997  83.7829988  26.6040012 118.6104997  82.0329988
  27.4650012 119.2784997  82.2519988  26.6240012 117.6114997  82.5169988
  26.3350012 118.3994997  80.5169988  25.6320012 117.5554997  80.3469988
  25.9660012 119.3074997  79.9949988  27.6010012 118.0284997  79.7669988
  28.4790012 118.6264997  80.0909988  28.0160012 117.0544997  80.1039988
  27.4040012 117.8904997  78.2129988  26.5600012 117.1854997  78.0529988
  27.0180012 118.9034997  77.9679988  28.7390012 117.4774997  77.5379988
  28.5480012 117.4734997  76.4439988  29.4120012 118.2824997  77.9019988
  29.2500012 116.0984997  77.9419988  30.2560012 115.9624997  77.4919988
  29.4280012 116.0394997  79.0369988  28.3190012 114.8594997  77.4409988
  28.6620012 113.9794997  78.0259988  27.2730012 115.1274997  77.7039988
  28.4830012 114.5474997  75.8739988  27.6220012 113.8694997  75.6919988
  28.3590012 115.4824997  75.2869988  29.7950012 113.7604997  75.6469988
  30.6770012 114.4364997  75.6609988  29.8880012 112.9824997  76.4349988
  29.7330012 112.9544997  74.3109988  30.5670012 112.2264997  74.2089988
  28.8720012 112.2524997  74.3439988  29.5350012 113.7974997  73.0819988
  29.0580012 113.2434997  72.2449988  28.8260012 114.6494997  73.1579988
  30.8170012 114.6054997  72.6399988  31.2900012 115.1624997  73.4769988
  31.5550012 113.9004997  72.2019988  30.4440012 115.6914997  71.6409988
  29.3520012 115.6604997  71.4399988  30.6270012 116.6424997  72.1859988
  31.3990012 115.6094997  70.4269988  32.4320012 115.5994997  70.8339988
  31.3290012 114.6394997  69.8909988  31.0090012 116.6674997  69.3789988
  30.5610012 117.7654997  69.6999988  31.1940012 116.0694997  68.2049988
  30.7330012 116.7134997  67.0359988  30.5890012 117.8044997  67.1839988
  31.5470012 116.6754997  66.2809988  29.5620012 115.9984997  66.3599988
  29.7570012 114.9474997  66.0569988  29.1290012 116.8214997  65.0679988
  29.1290012 117.9034997  65.3189988  29.9710012 116.6954997  64.3539988
  27.8510012 116.4144997  64.7029988  27.7880012 115.4594997  63.4519988
  26.2260012 115.1174997  63.3119988  25.5450012 114.7084997  64.4899988
  26.2650012 114.2604997  65.2079988  25.1450012 115.6144997  64.9919988
  24.3960012 113.6404997  64.2169988  24.1430012 113.2104997  65.1749988
  23.6350012 114.2654997  63.7739988  24.7300012 112.4834997  63.2349988
  26.0370012 111.8904997  63.6379988  26.3630012 111.1234997  62.9519988
  26.8230012 112.6284997  63.7109988  25.9220012 111.3574997  64.5699988
  23.6560012 111.5114997  63.2709988  23.4260012 111.2384997  64.2899988
  22.7900012 111.9284997  62.7779988  24.0800012 110.6384997  62.7959988
  24.8720012 113.0584997  61.8459988  23.9790012 113.6214997  61.6199988
  24.9540012 112.3024997  61.0789988  25.7500012 113.6684997  61.6949988
  28.2150012 116.1484997  62.1909988  28.5400012 114.2414997  63.8269988
  28.3920012 116.0304997  67.1829988  28.1640012 114.9364997  67.9279988
  28.8420012 113.8764997  67.8189988  27.0690012 115.2394997  68.9509988
  26.1330012 115.4044997  68.3749988  27.3150012 116.1834997  69.4809988
  26.8620012 114.1824997  70.0199988  27.7510012 114.1954997  70.6869988
  26.8390012 113.1324997  69.6579988  25.4860012 114.2184997  70.7059988
  24.6110012 114.0754997  70.0359988  25.3950012 115.2534997  71.0999988
  25.4730012 113.3324997  71.9939988  26.2810012 113.5884997  72.7119988
  25.7540012 112.2814997  71.7669988  24.1680012 113.5424997  72.7779988
  23.3270012 113.6854997  72.0669988  24.1910012 114.3944997  73.4909988
  23.7670012 112.2384997  73.4799988  23.8770012 111.3994997  72.7599988
  22.7040012 112.3694997  73.7759988  24.5520012 111.7284997  74.7279988
  25.4380012 111.0974997  74.5029988  23.9260012 110.9684997  75.2429988
  24.9960012 112.9324997  75.5699988  25.6210012 113.6964997  75.0829988
  24.7470012 113.0374997  76.8659988  25.0140012 114.0234997  77.2729988
  24.0070012 112.0734997  77.7669988  23.2040012 111.5804997  77.1779988
  23.4420012 112.5554997  78.5929988  25.0140012 110.9934997  78.2959988
  25.6890012 110.6434997  77.4859988  24.3490012 110.1894997  78.6779988
  25.8890012 111.4854997  79.4449988  25.1800012 111.7164997  80.2679988
  26.4930012 112.3764997  79.1669988  26.8470012 110.3864997  80.0289988
  26.1580012 109.5694997  80.3319988  27.3360012 110.7194997  80.9699988
  28.0620012 109.9754997  79.2129988  27.8130012 109.4084997  78.2909988
  28.7010012 109.3004997  79.8219988  28.9800012 111.1064997  78.8349988
  28.4000012 111.8684997  78.2729988  29.7940012 110.6354997  78.2419988
  29.6150012 111.8804997  79.9999988  29.8350012 111.2004997  80.8519988
  29.0190012 112.6974997  80.4589988  30.9940012 112.5264997  79.7019988
  30.8110012 113.3654997  78.9959988  31.4070012 111.7394997  79.0359988
  31.6870012 112.6844997  80.5569988 115.2930012  20.5234997  84.8079988
 116.0510012  21.3364997  84.8149988 115.5040012  19.9254997  83.8949988
 115.5920012  19.8814997  85.6639988 113.8460012  21.1054997  84.8509988
 113.1460012  20.2454997  84.9099988 113.5950012  21.7414997  85.7269988
 113.3590012  21.8344997  83.6589988 112.2560012  21.9644997  83.6959988
 113.9040012  22.8024997  83.6859988 113.3360012  21.0194997  82.3049988
 114.3550012  20.7864997  81.9309988 112.9690012  19.9974997  82.5399988
 112.5750012  21.6484997  81.1969988 111.5030012  21.6644997  81.4889988
 112.9070012  22.7064997  81.1159988 112.6260012  20.9084997  79.8139988
 113.6990012  21.0244997  79.5499988 112.4570012  19.8134997  79.8989988
 111.7500012  21.5274997  78.7349988 111.7360012  22.6364997  78.8089988
 112.1230012  21.2874997  77.7159988 110.3650012  20.9054997  78.8099988
 110.4560012  19.7984997  78.7889988 110.1940012  21.1394997  79.8819988
 109.1790012  21.5294997  77.9819988 108.2770012  20.8884997  78.0799988
 109.0030012  22.5684997  78.3329988 109.4170012  21.6624997  76.4439988
 108.4260012  21.9344997  76.0209988 110.1900012  22.4544997  76.3569988
 109.9610012  20.4054997  75.6979988 111.0280012  20.2504997  75.9679988
 109.2380012  19.6214997  76.0099988 110.0680012  20.5384997  74.2009988
 109.0890012  20.8484997  73.7769988 110.8830012  21.2594997  73.9769988
 110.6260012  19.3414997  73.5149988 111.3940012  18.8694997  74.1649988
 109.8760012  18.5414997  73.3379988 111.2040012  19.7464997  72.1819988
 110.7470012  20.7024997  71.8469988 112.2710012  19.9874997  72.3779988
 111.2110012  18.6964997  71.0469988 111.8460012  17.8434997  71.3689988
 110.1890012  18.2674997  70.9719988 111.7040012  19.1974997  69.6949988
 112.8560012  19.5864997  69.5739988 110.7850012  19.1194997  68.6789988
 111.1320012  19.7504997  67.4619988 112.2150012  19.6574997  67.2359988
 110.7140012  19.0284997  66.7279988 110.5300012  21.1644997  67.2089988
 109.4300012  21.0274997  67.2739988 111.0070012  21.6834997  65.8029988
 110.6480012  21.0834997  64.9389988 110.5120012  22.6354997  65.5129988
 112.4270012  21.9384997  65.9149988 113.0010012  23.3684997  65.4729988
 112.5230012  23.5624997  63.9689988 113.0420012  22.5984997  63.0629988
 114.1110012  22.8284997  62.8659988 112.9610012  21.5804997  63.4989988
 112.2300012  22.6984997  61.7059988 112.2960012  23.6954997  61.2949988
 112.7580012  22.0594997  61.0139988 110.7690012  22.2374997  61.6379988
 109.8400012  22.8194997  62.6569988 109.4130012  23.7934997  62.4709988
 108.9870012  22.1944997  62.8759988 110.3310012  22.8844997  63.6169988
 110.1660012  22.4634997  60.2289988 110.0130012  23.5284997  60.1349988
 110.9430012  22.2204997  59.5199988 109.2240012  21.9464997  60.1199988
 110.8130012  20.7494997  61.7729988 111.5650012  20.1944997  61.2309988
 109.8900012  20.2364997  61.5479988 111.2510012  20.6074997  62.7509988
 112.4180012  24.4834997  66.3059988 114.4380012  23.2084997  65.4519988
 111.0490012  22.0754997  68.1569988 110.2460012  23.0534997  68.5879988
 109.2100012  23.3414997  68.0199988 110.7940012  23.7974997  69.7439988
 110.3070012  23.3504997  70.6369988 110.5580012  24.8754997  69.6089988
 112.3190012  23.6844997  69.7569988 112.7920012  23.9064997  68.7759988
 112.5920012  22.6414997  70.0239988 113.0260012  24.4654997  70.9439988
 112.7120012  25.5254997  71.0559988 114.1240012  24.3434997  70.8289988
 112.6900012  23.7024997  72.2449988 112.6670012  22.6264997  71.9719988
 111.6780012  23.8534997  72.6769988 113.7530012  23.9284997  73.3059988
 114.7610012  23.7464997  72.8759988 113.4820012  23.2204997  74.1169988
 113.6720012  25.3624997  73.8499988 112.7270012  25.4284997  74.4309988
 113.6740012  26.0604997  72.9859988 114.7580012  25.6454997  74.8889988
 114.7690012  26.6774997  75.2989988 115.7980012  25.5644997  74.5079988
 114.6090012  24.8104997  76.1309988 114.7710012  23.7284997  76.0209988
 114.1710012  25.0994997  77.4019988 114.0890012  24.2194997  78.0569988
 113.7250012  26.5234997  77.9679988 113.7370012  27.2814997  77.1549988
 114.4050012  26.8554997  78.7819988 112.2970012  26.6774997  78.5409988
 111.6600012  26.4534997  77.6579988 112.0850012  27.6904997  78.9439988
 112.0590012  25.6924997  79.7639988 112.6120012  26.1444997  80.6159988
 112.3980012  24.6564997  79.5529988 110.6090012  25.7124997  80.2409988
 110.0110012  25.1224997  79.5139988 110.2230012  26.7454997  80.1059988
 110.4060012  25.0504997  81.6419988 111.0140012  25.5414997  82.4309988
 110.8400012  24.0284997  81.6869988 108.9300012  24.9404997  82.1739988
 108.1450012  25.1124997  81.4069988 108.8460012  25.7054997  82.9749988
 108.5420012  23.6374997  82.9749988 109.1590012  23.5414997  83.8939988
 108.7580012  22.8034997  82.2729988 107.1730012  23.5004997  83.5219988
 106.8930012  22.4304997  83.6309988 106.3740012  24.0504997  82.9799988
 107.2050012  24.0094997  84.5089988  33.6770012 120.1864997  82.2189988
  34.3010012 119.6564997  81.4679988  34.1800012 119.9064997  83.1679988
  33.7660012 121.2934997  82.1949988  32.2240012 119.6634997  82.0229988
  32.3260012 118.5574997  82.0349988  31.6580012 120.0534997  82.8949988
  31.3950012 120.3004997  80.8919988  30.3340012 119.9864997  80.9929988
  31.4720012 121.3994997  81.0349988  31.7220012 120.0774997  79.3809988
  32.7210012 120.5294997  79.2039988  31.8630012 118.9854997  79.2309988
  30.6450012 120.5554997  78.3989988  29.7420012 119.9204997  78.5239988
  30.4140012 121.5864997  78.7429988  31.0800012 120.4574997  76.9489988
  31.6230012 119.4924997  76.8599988  30.1370012 120.5194997  76.3649988
  32.1210012 121.4144997  76.4139988  33.0520012 121.4004997  77.0209988
  32.4570012 120.8944997  75.4919988  31.6460012 122.7324997  75.9829988
  31.0320012 122.7224997  75.0569988  31.0950012 123.2014997  76.8259988
  32.9640012 123.5104997  75.5789988  33.5680012 123.7664997  76.4759988
  33.6190012 122.7814997  75.0569988  32.7790012 124.7184997  74.6909988
  32.1240012 124.3914997  73.8549988  32.2540012 125.4904997  75.2949988
  34.1220012 125.3334997  74.2169988  33.9050012 126.3684997  73.8779988
  34.7560012 125.4764997  75.1179988  34.7850012 124.5264997  73.0919988
  35.0800012 123.5364997  73.5009988  34.1170012 124.2924997  72.2349988
  35.9990012 125.1094997  72.3219988  35.7130012 126.0524997  71.8099988
  36.7980012 125.4444997  73.0179988  36.5930012 124.1624997  71.2529988
  37.0670012 123.2904997  71.7509988  35.7100012 123.8784997  70.6399988
  37.6110012 124.9424997  70.4699988  37.1820012 125.9424997  70.2449988
  38.5550012 125.0444997  71.0459988  38.0040012 124.2374997  69.0849988
  38.8750012 123.4514997  68.8869988  37.0950012 124.6494997  68.1739988
  37.0580012 124.0934997  66.8269988  36.4540012 124.7374997  66.1529988
  38.0710012 123.9904997  66.3819988  36.2630012 122.7354997  66.7489988
  37.0340012 122.0364997  67.1379988  36.0110012 122.4584997  65.2649988
  35.2130012 123.1984997  65.0409988  36.8370012 122.5954997  64.5349988
  35.4050012 121.1344997  65.1549988  35.0270012 120.7704997  63.6859988
  34.3530012 119.3524997  63.8739988  33.3860012 119.0164997  64.8449988
  33.7260012 118.3044997  65.6279988  33.1430012 119.8814997  65.4979988
  32.1840012 118.2594997  64.2049988  32.4860012 117.2644997  63.9149988
  31.4360012 118.2044997  64.9819988  31.4370012 118.8334997  62.9309988
  32.3240012 118.6414997  61.6939988  32.0940012 119.1374997  60.7629988
  33.3510012 118.9084997  61.8929988  32.4810012 117.5844997  61.5359988
  30.1860012 118.0294997  62.6919988  30.4060012 117.0454997  62.3059988
  29.6900012 118.0034997  63.6509988  29.5600012 118.5564997  61.9859988
  31.0330012 120.2364997  63.1369988  30.2980012 120.2044997  63.9279988
  30.7350012 120.6774997  62.1969988  31.7650012 120.9314997  63.5199988
  34.0040012 121.6814997  63.1059988  36.2730012 120.5954997  62.8549988
  35.0840012 122.7894997  67.5469988  34.5730012 121.6324997  68.0109988
  34.9800012 120.5494997  67.7189988  33.3850012 121.8664997  68.9089988
  32.5470012 121.9824997  68.1889988  33.6490012 122.8204997  69.4139988
  33.2960012 120.7784997  69.9859988  33.2760012 119.7364997  69.5999988
  32.3200012 120.8514997  70.5119988  34.3250012 120.8914997  71.1049988
  34.6080012 121.9144997  71.4329988  35.2810012 120.5724997  70.6379988
  33.8940012 120.1474997  72.3619988  33.7370012 119.0864997  72.0739988
  32.9010012 120.5414997  72.6669988  34.9930012 120.2744997  73.4349988
  34.8540012 121.1994997  74.0359988  35.9950012 120.3114997  72.9569988
  34.9300012 119.0854997  74.3679988  35.3830012 118.2194997  73.8399988
  33.8600012 118.9554997  74.6389988  35.8520012 119.3044997  75.5939988
  35.5200012 120.2874997  75.9919988  36.8880012 119.4634997  75.2279988
  35.7140012 118.2404997  76.6639988  35.1220012 117.3664997  76.3549988
  36.4360012 118.2224997  77.8479988  36.4130012 117.2694997  78.3979988
  37.4470012 119.2544997  78.2089988  37.9340012 119.7274997  77.3299988
  38.2920012 118.7664997  78.7399988  36.8400012 120.3414997  79.1049988
  36.7420012 119.6854997  79.9969988  35.8660012 120.7514997  78.7629988
  37.7250012 121.5284997  79.2789988  37.7150012 122.0364997  78.2909988
  38.7750012 121.3334997  79.5849988  37.1870012 122.6004997  80.2409988
  36.1180012 122.3654997  80.4309988  37.3340012 123.6374997  79.8699988
  37.8180012 122.5594997  81.6279988  38.6970012 123.2344997  81.7099988
  38.2420012 121.5684997  81.8969988  36.7840012 122.8994997  82.7949988
  37.3980012 122.9494997  83.7199988  35.9980012 122.1144997  82.8009988
  36.1130012 124.3174997  82.6099988  35.5390012 124.2804997  81.6599988
  36.8430012 125.1444997  82.4769988  35.1330012 124.6904997  83.7209988
  35.6910012 124.9474997  84.6459988  34.4140012 123.8684997  83.9239988
  34.6850012 125.6504997  83.3889988 128.8900012  44.8804997  80.0809988
 129.1630012  44.7204997  79.0159988 128.3450012  44.0144997  80.5139988
 129.8200012  45.2104997  80.5919988 127.8250012  46.1134997  80.1189988
 126.8570012  45.8984997  79.6179988 127.6480012  46.3644997  81.1859988
 128.3930012  47.3214997  79.3619988 128.6010012  47.1604997  78.2819988
 127.6730012  48.1444997  79.5549988 129.7760012  47.8094997  79.7719988
 129.6740012  48.0294997  80.8559988 130.5500012  47.0244997  79.6339988
 130.3140012  49.0294997  78.9409988 131.1240012  49.5694997  79.4769988
 130.7350012  48.5324997  78.0409988 129.2720012  50.0694997  78.5769988
 128.4850012  49.5514997  77.9889988 128.7830012  50.5204997  79.4669988
 129.8680012  51.1834997  77.5639988 129.0300012  51.9074997  77.4689988
 130.7040012  51.7054997  78.0769988 130.1310012  50.6394997  76.1149988
 129.4490012  49.7724997  75.9849988 129.8790012  51.3374997  75.2889988
 131.5110012  49.9884997  75.8789988 132.2560012  50.7984997  76.0329988
 131.7130012  49.0594997  76.4539988 131.5330012  49.6024997  74.3249988
 130.5250012  49.2724997  73.9939988 131.7950012  50.5524997  73.8119988
 132.6160012  48.6114997  73.7839988 133.6220012  48.6774997  74.2499988
 132.2340012  47.6484997  74.1839988 132.6600012  48.4764997  72.2179988
 131.5870012  48.5084997  71.9319988 133.3140012  49.2214997  71.7159988
 133.2800012  47.1564997  71.7039988 134.3560012  47.1864997  71.9809988
 132.8080012  46.3574997  72.3149988 133.1720012  47.0264997  70.1799988
 133.2520012  47.9964997  69.6439988 134.1040012  46.4784997  69.9239988
 131.8010012  46.4294997  69.8029988 131.5450012  45.4424997  70.2439988
 130.9820012  47.0894997  70.1619988 131.6520012  46.2154997  68.2919988
 132.3940012  46.5244997  67.3499988 130.4700012  45.6284997  68.1839988
 129.9840012  45.3424997  66.8889988 130.8250012  45.4564997  66.1719988
 129.6220012  44.2944997  66.8239988 128.8680012  46.3094997  66.5009988
 127.9510012  45.7184997  66.7109988 129.0590012  46.7924997  65.0039988
 129.3800012  46.0124997  64.2809988 128.0130012  47.0164997  64.7029988
 130.0210012  47.9444997  64.9149988 130.1690012  48.8074997  63.5379988
 131.5930012  48.4224997  62.8729988 132.5940012  48.0584997  63.7999988
 133.5630012  48.3884997  63.3689988 132.5340012  48.6894997  64.7119988
 132.6220012  46.5564997  64.2859988 133.3100012  46.5774997  65.1179988
 131.6540012  46.4054997  64.7429988 132.7750012  45.4394997  63.3189988
 132.8020012  44.1164997  64.0659988 132.2810012  44.2174997  65.0059988
 132.3720012  43.3334997  63.4579988 133.8000012  43.8504997  64.3789988
 131.5790012  45.4054997  62.4239988 131.8310012  44.8804997  61.5139988
 130.7120012  44.9844997  62.9099988 131.3820012  46.4184997  62.1029988
 134.0090012  45.5084997  62.5159988 134.0050012  46.4194997  61.9359988
 134.1810012  44.7244997  61.7929988 134.8730012  45.3914997  63.1529988
 129.1310012  48.4154997  62.6339988 130.1630012  50.2684997  63.8089988
 128.8870012  47.4844997  67.3509988 127.8740012  48.3014997  67.3039988
 126.8420012  48.1544997  66.7199988 128.0730012  49.6584997  68.1239988
 127.6960012  50.3954997  67.3829988 129.1360012  49.6894997  68.4469988
 127.0150012  49.5544997  69.1879988 126.0470012  49.4114997  68.6629988
 127.0480012  50.5094997  69.7559988 127.4110012  48.4704997  70.2459988
 128.4140012  48.6904997  70.6699988 127.4610012  47.4324997  69.8539988
 126.3410012  48.2854997  71.3979988 125.4660012  47.8264997  70.8899988
 126.1220012  49.3404997  71.6699988 126.7670012  47.3634997  72.5609988
 127.4720012  46.5934997  72.1819988 125.9460012  46.7344997  72.9659988
 127.4200012  48.2324997  73.6469988 126.5740012  48.6844997  74.2079988
 127.9780012  49.1024997  73.2399988 128.2630012  47.2174997  74.5909988
 127.5490012  46.4194997  74.8889988 128.5390012  47.8404997  75.4689988
 129.4490012  46.5944997  73.9179988 129.6190012  46.9104997  72.8779988
 130.2400012  45.6434997  74.4439988 131.0460012  45.2114997  73.8329988
 130.0340012  45.1044997  75.8559988 129.3540012  44.2374997  75.7109988
 129.5480012  45.8584997  76.5099988 131.3350012  44.7954997  76.5909988
 131.7710012  43.9824997  75.9719988 131.0860012  44.2604997  77.5319988
 132.3670012  45.9374997  76.7259988 131.9270012  46.5404997  77.5489988
 132.4650012  46.4614997  75.7509988 133.7530012  45.3354997  77.2129988
 134.2120012  44.7334997  76.3989988 133.6050012  44.7084997  78.1179988
 134.8220012  46.3854997  77.3979988 135.1670012  46.7074997  76.3929988
 135.7080012  45.9064997  77.8659988 134.4140012  47.6344997  78.2939988
 133.3470012  47.9054997  78.1459988 135.0860012  48.4594997  77.9759988
 134.8300012  47.2744997  79.7899988 135.9370012  47.1864997  79.7859988
 134.3980012  46.3044997  80.1159988 134.2990012  48.3344997  80.7079988
 134.8810012  49.2644997  80.5349988 134.3330012  47.9654997  81.7559988
 133.2760012  48.5754997  80.3489988  62.5170012 135.4324997  79.2059988
  62.1760012 136.4264997  79.5659988  63.0700012 135.5584997  78.2509988
  63.3560012 135.0684997  79.8369988  61.3880012 134.3924997  79.0709988
  60.8010012 134.0284997  79.9409988  60.6700012 134.7684997  78.3119988
  61.8990012 133.0874997  78.4489988  62.4230012 133.1614997  77.4719988
  62.5880012 132.6674997  79.2129988  60.6690012 132.0904997  78.2939988
  60.1070012 132.0464997  79.2519988  60.0080012 132.6914997  77.6339988
  60.9910012 130.6804997  77.8729988  61.8100012 130.3044997  78.5219988
  60.2510012 129.9034997  78.1609988  61.6310012 130.4264997  76.4979988
  62.5960012 130.9724997  76.5759988  61.7730012 129.3254997  76.4379988
  60.7740012 130.9214997  75.2449988  59.7600012 130.8874997  75.6989988
  61.0560012 131.9904997  75.1359988  60.9370012 130.1974997  73.9549988
  60.7950012 129.1044997  74.0929988  60.0720012 130.5694997  73.3649988
  62.3420012 130.3164997  73.2559988  63.0110012 129.8574997  74.0159988
  62.5830012 129.8524997  72.2759988  63.0020012 131.6744997  73.1319988
  62.9880012 132.0824997  74.1649988  64.0590012 131.4974997  72.8399988
  62.3310012 132.6324997  72.1609988  61.2970012 132.7254997  72.5539988
  62.7620012 133.6414997  72.3379988  62.3420012 132.2484997  70.7089988
  63.3970012 132.2044997  70.3629988  62.0000012 131.2014997  70.5629988
  61.6430012 133.2324997  69.8629988  60.8740012 132.7854997  69.1969988
  61.1180012 134.0074997  70.4609988  62.3600012 134.0534997  68.7939988
  63.2740012 134.5274997  69.2119988  62.7820012 133.3454997  68.0489988
  61.3660012 134.8774997  68.0089988  60.6560012 134.1454997  67.5679988
  60.8930012 135.5434997  68.7609988  62.0770012 135.7724997  66.9899988
  62.5910012 136.8364997  67.2549988  62.0590012 135.1744997  65.8359988
  63.0220012 135.6904997  64.8809988  62.5440012 136.3504997  64.1249988
  63.9460012 136.2364997  65.1659988  63.5670012 134.3944997  64.1159988
  64.2540012 134.8064997  63.3469988  62.4300012 133.5364997  63.5219988
  61.7350012 134.1974997  62.9599988  62.8260012 132.7924997  62.7979988
  61.7720012 132.8894997  64.5759988  60.6680012 131.7964997  64.2089988
  61.6860012 130.6984997  63.5509988  62.4690012 129.8734997  64.4109988
  62.5470012 130.3114997  65.4299988  62.1050012 128.8334997  64.5489988
  63.8470012 129.7394997  63.9489988  64.3180012 130.6904997  64.1499988
  64.2150012 129.0024997  64.6479988  64.0110012 129.2324997  62.5539988
  65.4260012 128.8414997  62.5219988  66.0900012 129.6894997  62.5989988
  65.5250012 128.2464997  63.4179988  65.5880012 128.2544997  61.6299988
  63.1480012 128.0314997  62.3539988  63.5530012 127.2284997  62.9509988
  62.1360012 128.2934997  62.6259988  63.1850012 127.7164997  61.3219988
  63.7630012 130.3084997  61.5289988  64.0160012 130.0404997  60.5139988
  64.3930012 131.1444997  61.7939988  62.6970012 130.4784997  61.5759988
  60.0130012 131.2124997  65.3719988  59.8040012 132.3364997  63.1539988
  64.2170012 133.5494997  65.1309988  65.1380012 132.6994997  64.6299988
  65.2910012 132.4524997  63.4239988  65.6910012 131.9084997  65.7509988
  65.9720012 130.8724997  65.4649988  64.8730012 131.8634997  66.5009988
  67.0060012 132.5214997  66.2429988  67.7530012 132.6704997  65.4339988
  67.4130012 131.7074997  66.8799988  67.0110012 133.8354997  67.0289988
  66.5660012 134.5064997  66.2639988  67.9460012 134.3344997  67.3599988
  66.2460012 133.6994997  68.3649988  66.4770012 132.7124997  68.8209988
  65.1700012 133.5244997  68.1509988  66.3620012 134.9314997  69.3069988
  65.7740012 135.8004997  68.9429988  67.4240012 135.2474997  69.3909988
  66.0190012 134.6594997  70.7909988  64.9260012 134.7164997  70.9829988
  66.4390012 135.5174997  71.3569988  66.5140012 133.2894997  71.4189988
  67.5750012 133.2444997  71.0919988  66.0280012 132.4054997  70.9539988
  66.3270012 133.2624997  72.9409988  65.7530012 134.1244997  73.3099988
  66.6290012 132.3154997  73.8069988  66.3130012 132.4624997  74.8499988
  67.3090012 130.9794997  73.4189988  68.3620012 131.0264997  73.7719988
  67.3140012 130.7784997  72.3269988  66.5280012 129.8214997  74.0959988
  67.0630012 128.9124997  73.7469988  65.4890012 129.8284997  73.7039988
  66.5840012 129.9404997  75.6639988  65.9190012 130.7204997  76.0929988
  67.5450012 130.1204997  76.1909988  66.0120012 128.6154997  76.1899988
  66.6760012 127.7574997  75.9499988  65.0420012 128.3444997  75.7199988
  65.7960012 128.5974997  77.6859988  66.7620012 128.8454997  78.1769988
  65.1990012 127.7364997  78.0529988  64.8520012 129.7054997  78.3969988
  63.8130012 129.6614997  78.0049988  65.1680012 130.7434997  78.1559988
  64.7110012 129.6414997  79.9499988  64.2340012 128.6524997  80.1199988
  63.9320012 130.3394997  80.3279988  66.0470012 129.7854997  80.7939988
  65.8310012 129.0974997  81.6389988  66.0920012 130.7814997  81.2849988
  67.0270012 129.4724997  80.3749988   5.7010012  63.6944997  82.9149988
   5.3720012  62.8584997  83.5689988   4.7170012  64.1834997  82.7519988
   6.3100012  64.3154997  83.6069988   6.4900012  63.3694997  81.5839988
   6.7930012  64.3354997  81.1259988   7.4430012  62.8224997  81.7469988
   5.6630012  62.5054997  80.5859988   5.3460012  61.6444997  81.2119988
   4.7160012  63.0174997  80.3109988   6.4000012  62.0424997  79.2959988
   6.5140012  62.8744997  78.5679988   7.3830012  61.5974997  79.5639988
   5.7040012  60.9124997  78.5519988   5.9060012  59.8594997  78.8439988
   4.6470012  61.1724997  78.7759988   5.9700012  61.0534997  77.0289988
   5.3640012  60.3114997  76.4659988   5.6650012  62.0344997  76.6069988
   7.4170012  60.7714997  76.5699988   7.5280012  61.0664997  75.5039988
   8.0410012  61.5204997  77.1019988   8.0470012  59.3334997  76.7379988
   7.8320012  58.9474997  77.7569988   7.6460012  58.6694997  75.9429988
   9.5690012  59.3764997  76.5889988  10.0540012  60.1204997  77.2569988
  10.0060012  58.3694997  76.7549988  10.1190012  59.5994997  75.1469988
  10.0210012  60.7054997  75.1119988  11.2060012  59.3854997  75.0539988
   9.2740012  58.9554997  73.9489988   9.3600012  57.8544997  74.0739988
   8.2080012  59.2644997  73.9869988   9.9270012  59.3064997  72.6009988
  11.0030012  59.5274997  72.7709988   9.7870012  58.4224997  71.9429988
   9.2570012  60.5604997  72.0179988   8.1770012  60.5834997  72.2799988
   9.7530012  61.4514997  72.4589988   9.3620012  60.6174997  70.4599988
   9.4950012  61.6794997  70.1589988  10.2860012  60.0244997  70.2909988
   8.0820012  60.1444997  69.7539988   7.7550012  59.1174997  70.0209988
   7.3110012  60.8984997  70.0249988   8.1910012  60.2444997  68.2569988
   9.1750012  60.5924997  67.5909988   7.0030012  59.9684997  67.7469988
   6.7630012  60.1554997  66.3049988   7.7290012  60.3744997  65.8019988
   6.2720012  59.2584997  65.8729988   5.7000012  61.2964997  65.9879988
   4.7410012  60.9094997  66.3949988   5.5430012  61.5484997  64.4819988
   5.3010012  60.5324997  64.1019988   4.7520012  62.3184997  64.3569988
   6.8060012  61.9194997  63.9539988   7.1530012  62.0724997  62.4599988
   8.0520012  63.3504997  62.3829988   8.2790012  64.1654997  63.5159988
   8.7930012  65.1144997  63.2519988   7.2630012  64.4054997  63.8969988
   9.0660012  63.5334997  64.7019988   9.0970012  64.2504997  65.5089988
   8.5270012  62.6634997  65.0469988  10.5500012  63.2084997  64.4009988
  11.3480012  64.4704997  64.1779988  11.3770012  64.9784997  65.1309988
  12.3870012  64.3274997  63.9199988  10.8410012  65.0714997  63.4379988
  11.1600012  62.4974997  65.5769988  12.2050012  62.3684997  65.3329988
  11.0910012  63.1364997  66.4439988  10.5440012  61.6424997  65.8139988
  10.8280012  62.4424997  63.1269988  10.5320012  61.4034997  63.1449988
  11.8920012  62.4874997  62.9469988  10.3590012  62.9134997  62.2749988
   7.9310012  60.8114997  62.1389988   5.9110012  62.3674997  61.7449988
   6.1520012  62.5304997  66.6079988   5.1380012  63.3074997  66.9479988
   3.9590012  63.0284997  66.9779988   5.6820012  64.6974997  67.4169988
   4.8730012  65.4504997  67.5349988   6.4300012  65.1214997  66.7139988
   6.4750012  64.4424997  68.7029988   7.4580012  63.9654997  68.4989988
   5.8480012  63.8954997  69.4399988   6.7610012  65.7464997  69.4649988
   5.9440012  66.0304997  70.1619988   6.9620012  66.6214997  68.8099988
   8.0120012  65.5564997  70.3649988   8.2020012  66.5914997  70.7219988
   8.8490012  65.1014997  69.7929988   7.7050012  64.6754997  71.5379988
   7.4500012  63.6704997  71.1399988   6.7700012  64.9864997  72.0519988
   8.7730012  64.6704997  72.5479988   9.1510012  65.6544997  72.8989988
   9.6160012  64.1214997  72.0769988   8.2910012  64.0204997  73.9069988
   7.7720012  63.1134997  73.5299988   7.4350012  64.5444997  74.3839988
   9.5320012  63.8344997  74.7989988  10.1250012  62.9154997  74.6809988
   9.9080012  64.7254997  75.7939988  10.8430012  64.5874997  76.3549988
   9.2160012  66.0184997  76.1679988   8.5880012  66.5084997  75.3939988
   9.9330012  66.7894997  76.5229988   8.2580012  65.7874997  77.3369988
   7.3740012  65.3244997  76.8489988   7.8990012  66.8024997  77.6129988
   8.7880012  65.2684997  78.6519988   9.3920012  64.3464997  78.5129988
   7.8710012  64.9754997  79.2049988   9.5880012  66.2914997  79.5869988
   8.8080012  67.0214997  79.8939988  10.3760012  66.7294997  78.9379988
  10.2330012  65.6564997  80.7849988   9.4190012  65.3324997  81.4679988
  10.8260012  66.4604997  81.2719988  11.1600012  64.3084997  80.4699988
  11.9790012  64.2704997  81.2209988  11.6650012  64.3684997  79.4819988
  10.3750012  62.9284997  80.6239988   9.4100012  63.0064997  80.0789988
  10.1510012  62.8364997  81.7079988  11.0100012  61.6014997  80.0409988
  12.0190012  61.5604997  80.5039988  11.1560012  61.5994997  78.9389988
  10.3810012  60.7374997  80.3419988 116.5910012 115.9444997  82.1989988
 115.9190012 115.1244997  81.8649988 116.3140012 116.8674997  81.6459988
 116.6150012 116.0304997  83.3059988 118.0140012 115.6764997  81.8739988
 118.1500012 115.4904997  80.7869988 118.5410012 116.6054997  82.1799988
 118.4000012 114.4454997  82.7339988 118.1600012 114.7934997  83.7609988
 117.6830012 113.7094997  82.3109988 119.8260012 114.0014997  82.6919988
 120.3870012 114.8284997  83.1779988 120.0320012 113.1364997  83.3569988
 120.4120012 113.8844997  81.2349988 120.3690012 114.8634997  80.7109988
 121.4780012 113.5924997  81.3519988 119.7180012 112.9454997  80.2519988
 119.2960012 112.1194997  80.8619988 118.8840012 113.5414997  79.8239988
 120.4900012 112.3974997  79.0199988 120.5460012 113.2204997  78.2759988
 121.5130012 112.1004997  79.3369988 119.6890012 111.2414997  78.3839988
 119.9190012 110.4474997  79.1259988 118.5870012 111.3764997  78.4379988
 120.0200012 110.8414997  76.9199988 119.5280012 111.5704997  76.2419988
 121.1230012 110.7264997  76.8529988 119.4180012 109.4394997  76.6779988
 119.6340012 108.6504997  77.4289988 118.3280012 109.5924997  76.8269988
 119.7770012 108.8664997  75.2559988 120.8490012 108.5894997  75.3419988
 119.4110012 107.8244997  75.1409988 119.3500012 109.7144997  74.0089988
 118.2430012 109.6594997  73.9289988 119.6540012 110.7774997  74.1179988
 119.9080012 109.0994997  72.7789988 120.9810012 109.1614997  73.0589988
 119.6480012 108.0184997  72.7789988 119.5900012 109.8344997  71.5179988
 120.0310012 109.2334997  70.6949988 118.4920012 109.8844997  71.3509988
 120.1840012 111.2684997  71.3169988 119.8570012 111.9524997  72.1289988
 121.2870012 111.1834997  71.4129988 119.8350012 111.9154997  69.9529988
 119.4990012 113.0954997  69.7789988 119.9890012 110.9864997  69.0319988
 119.9580012 111.2574997  67.6509988 120.1560012 112.3294997  67.4399988
 120.7170012 110.6534997  67.1089988 118.5170012 110.8734997  67.0939988
 118.4640012 109.7724997  67.2329988 118.4860012 111.1614997  65.5069988
 118.4530012 112.2714997  65.4909988 119.3500012 110.7004997  64.9829988
 117.2360012 110.6434997  65.1279988 115.9840012 111.4204997  64.5379988
 116.6660012 112.3114997  63.3749988 117.0530012 113.6944997  63.6109988
 116.0760012 114.2234997  63.6139988 117.6660012 113.8424997  64.5249988
 117.9520012 114.1174997  62.4969988 117.4420012 114.0404997  61.5489988
 118.0090012 115.1954997  62.5089988 119.3480012 113.5684997  62.3749988
 119.3870012 112.0744997  62.1379988 120.3970012 111.7174997  61.9979988
 119.1160012 111.6344997  63.0859988 118.6060012 111.7834997  61.4509988
 119.9690012 114.4094997  61.2389988 119.3390012 114.5014997  60.3669988
 120.0100012 115.4014997  61.6639988 120.9870012 114.0724997  61.1059988
 120.0470012 113.8584997  63.6679988 119.8810012 114.8904997  63.9389988
 121.1040012 113.7544997  63.4729988 119.5610012 113.1614997  64.3359988
 115.0660012 110.4084997  64.0379988 115.5410012 112.3754997  65.5729988
 117.5060012 111.6424997  67.7189988 116.7740012 110.8814997  68.5409988
 116.9360012 109.7034997  68.7939988 115.7140012 111.8514997  69.0399988
 114.9630012 111.9634997  68.2289988 116.0240012 112.8794997  69.3249988
 114.9280012 111.2304997  70.1949988 114.5380012 110.2254997  69.9279988
 114.0470012 111.9034997  70.2839988 115.6020012 111.1894997  71.5319988
 116.1700012 110.2354997  71.5479988 114.7970012 111.1884997  72.2979988
 116.6390012 112.3074997  71.9169988 116.1870012 113.2924997  71.6729988
 117.5110012 112.3184997  71.2279988 117.0120012 112.3564997  73.4509988
 117.9110012 112.9984997  73.5709988 117.1650012 111.3254997  73.8359988
 115.9640012 113.2024997  74.2929988 115.0430012 112.6114997  74.4869988
 115.6930012 114.1284997  73.7429988 116.5740012 113.7714997  75.5579988
 117.5780012 114.2304997  75.4319988 116.7670012 112.8374997  76.1269988
 115.5250012 114.6444997  76.4049988 115.5630012 115.7244997  76.2009988
 114.6270012 114.3904997  77.3229988 113.9780012 115.1714997  77.7449988
 114.2720012 113.0634997  77.9429988 113.9110012 112.4414997  77.0959988
 113.4630012 113.2444997  78.6829988 115.5720012 112.4334997  78.5649988
 116.0860012 113.2334997  79.1399988 116.1790012 111.9984997  77.7419988
 115.1640012 111.2094997  79.4209988 114.4890012 110.5824997  78.7999988
 114.6250012 111.5544997  80.3289988 116.3810012 110.3204997  79.8589988
 117.0480012 110.8514997  80.5709988 116.9730012 110.0194997  78.9689988
 116.0120012 109.0194997  80.5169988 116.9480012 108.4234997  80.4859988
 115.2360012 108.5344997  79.8859988 115.5890012 109.1634997  81.9859988
 114.7800012 109.9144997  82.1109988 116.4720012 109.4614997  82.5909988
 114.8390012 107.9284997  82.6539988 115.3270012 106.9934997  82.3029988
 113.8610012 107.8454997  82.1339988 114.6310012 107.8294997  84.1409988
 114.0560012 108.6744997  84.5749988 115.4690012 107.5574997  84.8169988
 113.8960012 107.0364997  84.3929988  90.4970012  14.7314997  83.0539988
  89.6050012  15.2984997  83.3969988  91.2530012  14.7194997  83.8679988
  90.1660012  13.7224997  82.7279988  91.1890012  15.2654997  81.7969988
  90.5070012  15.5304997  80.9609988  91.8090012  16.1634997  82.0069988
  92.2360012  14.3254997  81.1239988  92.9760012  14.9644997  80.5969988
  92.8470012  13.9234997  81.9599988  91.8140012  13.1364997  80.1509988
  92.4530012  12.2394997  80.2959988  90.7680012  12.9184997  80.4549988
  91.8430012  13.3864997  78.6829988  91.1220012  12.6164997  78.3349988
  91.3880012  14.3474997  78.3609988  93.1790012  13.1954997  77.9949988
  93.8370012  14.0834997  78.1049988  93.7450012  12.3294997  78.4019988
  93.0640012  12.9264997  76.4469988  93.9700012  12.3984997  76.0809988
  92.1530012  12.2904997  76.4149988  92.9110012  14.1804997  75.5449988
  92.5710012  13.8384997  74.5449988  91.9990012  14.6894997  75.9239988
  94.0820012  15.1934997  75.5999988  94.3060012  15.6794997  76.5729988
  94.9920012  14.6204997  75.3209988  93.9950012  16.4534997  74.6659988
  93.0300012  16.9164997  74.9619988  94.8590012  17.0904997  74.9509988
  94.0040012  16.1054997  73.1649988  93.1290012  15.4224997  73.1189988
  93.8400012  16.9574997  72.4699988  95.2410012  15.3074997  72.6479988
  96.0670012  16.0144997  72.8749988  95.5050012  14.3344997  73.1149988
  95.2020012  15.1444997  71.0889988  94.5480012  15.9694997  70.7349988
  96.1860012  15.3664997  70.6249988  94.5970012  13.8514997  70.7349988
  95.2130012  13.0234997  71.1469988  93.5770012  13.8494997  71.1749988
  94.4040012  13.5114997  69.2139988  93.8080012  14.3544997  68.8039988
  95.4440012  13.4924997  68.8239988  93.7920012  12.1464997  68.8809988
  93.5790012  11.3824997  69.7769988  93.4690012  12.0614997  67.6219988
  92.8930012  10.7814997  67.2029988  93.5300012  10.2804997  66.4429988
  92.6900012  10.1074997  68.0629988  91.5690012  11.1104997  66.4209988
  91.0510012  10.1454997  66.2309988  91.7220012  12.0114997  65.2049988
  92.5770012  11.6494997  64.5949988  90.8610012  11.8084997  64.5339988
  91.7910012  13.4564997  65.5089988  92.4560012  14.5644997  64.6279988
  91.2820012  15.0224997  63.6359988  90.2130012  15.8124997  64.1919988
  89.5740012  15.1904997  64.8549988  90.6430012  16.7454997  64.6139988
  89.1690012  16.3024997  63.1179988  88.3510012  16.8364997  63.5789988
  89.6720012  16.9914997  62.4549988  88.4970012  15.2214997  62.1809988
  87.9600012  14.0654997  62.9129988  87.1210012  14.2184997  63.5749988
  87.8260012  13.1524997  62.3509988  88.8380012  13.7784997  63.4739988
  87.4150012  15.7354997  61.2949988  87.9820012  16.3364997  60.5989988
  86.9760012  14.9334997  60.7209988  86.7110012  16.2154997  61.9579988
  89.5630012  14.6594997  61.2209988  90.2760012  14.1204997  61.8269988
  89.9420012  15.4824997  60.6329988  89.0360012  14.0484997  60.5029988
  92.8060012  15.5684997  65.6599988  93.5780012  14.0854997  63.8289988
  90.7490012  11.7674997  67.4369988  89.5380012  12.1774997  67.1939988
  88.8850012  11.8594997  66.2209988  89.0300012  12.9944997  68.3869988
  89.2970012  12.4984997  69.3439988  87.9490012  12.9674997  68.1319988
  89.3670012  14.4954997  68.3229988  88.7460012  15.1724997  68.9479988
  89.3290012  14.8104997  67.2589988  90.6560012  14.8594997  68.9309988
  91.1410012  15.7254997  68.4309988  91.4210012  14.0744997  68.7469988
  90.5990012  15.2614997  70.4479988  89.9650012  16.1744997  70.4309988
  91.6620012  15.5064997  70.6579988  89.9860012  14.2594997  71.4439988
  90.6480012  13.3844997  71.6179988  89.0540012  13.8364997  71.0119988
  89.5330012  14.8124997  72.9299988  90.4680012  15.3194997  73.2509988
  89.5000012  13.9134997  73.5829988  88.1770012  15.6034997  73.1509988
  87.3070012  14.9154997  73.2169988  88.0750012  16.1144997  72.1699988
  88.2640012  16.6134997  74.2699988  88.5170012  17.6234997  73.9129988
  88.0210012  16.5604997  75.6229988  88.2120012  17.3564997  76.3579988
  87.5530012  15.2774997  76.4029988  87.2090012  14.4444997  75.7529988
  86.7040012  15.5754997  77.0549988  88.7810012  14.7844997  77.1589988
  89.2170012  15.6424997  77.7139988  89.4660012  14.3634997  76.3909988
  88.2620012  13.5754997  77.9799988  89.1500012  13.1214997  78.4699988
  87.7850012  12.8194997  77.3209988  87.1930012  14.0074997  78.9249988
  86.2600012  14.0804997  78.3279988  87.4570012  15.0054997  79.3359988
  87.0690012  13.0314997  80.0739988  87.9970012  13.0364997  80.6839988
  86.9110012  11.9624997  79.8169988  85.9890012  13.3274997  81.1719988
  84.9450012  13.3654997  80.7929988  86.3440012  14.2964997  81.5819988
  86.0060012  12.2744997  82.3219988  87.0830012  12.2354997  82.5889988
  85.5180012  11.3124997  82.0549988  85.1080012  12.6914997  83.5419988
  85.3140012  12.0034997  84.3899988  84.0220012  12.6774997  83.3069988
  85.4390012  13.6934997  83.8869988   8.0120012  75.6374997  80.3219988
   7.6240012  76.2104997  81.1909988   9.0420012  75.2644997  80.5109988
   7.3970012  74.7124997  80.3399988   7.9020012  76.4214997  79.0079988
   8.4430012  75.7554997  78.3029988   6.8340012  76.5714997  78.7399988
   8.6120012  77.8564997  78.9809988   7.9040012  78.4074997  79.6359988
   9.5460012  77.9264997  79.5799988   8.6650012  78.5694997  77.6209988
   9.3290012  78.0684997  76.8839988   7.6240012  78.6434997  77.2409988
   9.1610012  79.9974997  77.6339988   8.5610012  80.4564997  78.4489988
  10.2430012  80.1204997  77.8559988   8.7480012  80.8304997  76.3559988
   9.4840012  80.6354997  75.5469988   7.6960012  80.5054997  76.2079988
   8.8430012  82.4234997  76.5069988   8.0730012  82.8764997  77.1669988
   9.8220012  82.6054997  76.9999988   8.8440012  83.2244997  75.2169988
   8.9390012  84.2794997  75.5539988   9.7510012  82.9504997  74.6369988
   7.5710012  83.2324997  74.4199988   7.2610012  82.1804997  74.2409988
   6.8300012  83.6924997  75.1079988   7.8900012  83.8514997  73.0809988
   6.9350012  84.0684997  72.5569988   8.4000012  84.8214997  73.2669988
   8.7220012  82.9924997  72.0749988   8.9900012  83.5364997  71.1449988
   9.6790012  82.9314997  72.6369988   8.0670012  81.5564997  71.7619988
   8.4210012  80.8114997  72.5069988   6.9560012  81.5374997  71.7569988
   8.6440012  81.0484997  70.4599988   8.1440012  81.5844997  69.6249988
   9.7310012  81.2704997  70.5139988   8.6080012  79.5684997  70.2849988
   9.0720012  79.0974997  71.1779988   7.5760012  79.1604997  70.2449988
   9.3430012  79.3154997  68.9779988   8.8630012  79.8974997  68.1629988
  10.4230012  79.5164997  69.1489988   9.2210012  77.8354997  68.5419988
  10.1480012  77.0684997  68.4739988   7.9240012  77.6254997  68.2069988
   7.7120012  76.3114997  67.7569988   8.5630012  75.8864997  67.1819988
   7.5280012  75.7134997  68.6759988   6.4850012  76.1914997  66.8279988
   6.3340012  75.1414997  66.4999988   6.6410012  76.9624997  65.4539988
   7.5240012  76.5484997  64.9229988   5.7500012  76.9074997  64.7929988
   6.9440012  78.3114997  65.8589988   7.8800012  79.2884997  64.9529988
   6.8480012  79.6724997  63.7339988   5.5280012  80.0734997  64.1949988
   4.7840012  79.2684997  64.0129988   5.5020012  80.5514997  65.1969988
   5.0460012  81.3644997  63.3459988   3.9700012  81.3234997  63.4179988
   5.3720012  82.2584997  63.8579988   5.4390012  81.4464997  61.9049988
   6.8230012  81.9674997  61.5859988   7.5440012  81.6044997  62.3039988
   7.0640012  81.7844997  60.5499988   6.8060012  83.0324997  61.7679988
   5.3010012  80.1334997  61.2399988   5.5210012  80.2414997  60.1879988
   5.9030012  79.3454997  61.6669988   4.3150012  79.6924997  61.2539988
   4.4470012  82.3674997  61.2859988   4.9840012  82.8514997  60.4839988
   4.3350012  83.1944997  61.9719988   3.5230012  81.8974997  60.9829988
   8.1730012  80.5134997  65.6759988   9.0280012  78.5854997  64.3999988
   5.4140012  76.6724997  67.5939988   4.1400012  76.6014997  67.1419988
   3.7770012  76.0614997  66.1249988   3.2660012  77.0004997  68.3069988
   2.8750012  76.1444997  68.8969988   2.3200012  77.3364997  67.8319988
   3.9600012  78.0234997  69.2019988   4.2610012  78.8214997  68.4909988
   4.8730012  77.5564997  69.6299988   3.0730012  78.5824997  70.3229988
   2.6870012  77.6614997  70.8099988   2.2000012  79.1584997  69.9479988
   3.8310012  79.5124997  71.2469988   4.2270012  80.3654997  70.6559988
   4.7840012  79.0114997  71.5199988   3.0090012  79.9284997  72.4579988
   2.6790012  79.0554997  73.0609988   2.1190012  80.5044997  72.1259988
   3.7230012  80.9374997  73.4139988   2.9250012  81.5364997  73.9029988
   4.3850012  81.5414997  72.7579988   4.4960012  80.2824997  74.5309988
   3.8150012  79.5024997  74.9329988   4.5860012  81.0824997  75.2969988
   5.8640012  79.7284997  74.0339988   6.4830012  80.5294997  73.6029988
   6.2440012  78.4574997  74.0069988   7.2120012  78.2144997  73.5459988
   5.4240012  77.2834997  74.4379988   5.5810012  76.4804997  73.6869988
   4.3800012  77.5974997  74.2249988   5.6010012  76.6854997  75.8019988
   6.6080012  76.9294997  76.2029988   5.6050012  75.5774997  75.8839988
   4.5480012  77.2354997  76.8459988   4.8420012  78.2974997  76.9849988
   4.7030012  76.6724997  77.7909988   3.0710012  77.1134997  76.3449988
   3.0000012  76.0854997  75.9319988   2.7580012  77.8884997  75.6139988
   2.1500012  77.0254997  77.5209988   2.4860012  76.1464997  78.1109988
   1.0810012  76.8994997  77.2479988   2.2730012  78.3044997  78.4529988
   2.4010012  79.2324997  77.8559988   3.2470012  78.1684997  78.9709988
   1.0850012  78.1044997  79.4279988   1.3490012  77.1604997  79.9499988
   0.1260012  77.9654997  78.8849988   0.9930012  79.2944997  80.4069988
   0.3560012  79.1144997  81.2999988   0.6340012  80.1794997  79.8399988
   2.0190012  79.5444997  80.7529988  40.7840012 123.4294997  80.2299988
  39.9710012 122.9824997  79.6189988  40.4410012 123.6404997  81.2659988
  41.5340012 122.6124997  80.2919988  41.3940012 124.6894997  79.5749988
  41.6290012 125.3464997  80.4399988  42.3520012 124.5094997  79.0429988
  40.4160012 125.4964997  78.7349988  40.1070012 124.9274997  77.8319988
  39.4570012 125.7534997  79.2339988  40.9590012 126.8934997  78.3459988
  39.9880012 127.4204997  78.2289988  41.5770012 127.3654997  79.1399988
  41.7020012 127.1054997  77.0269988  41.1740012 126.6274997  76.1739988
  41.5770012 128.1734997  76.7509988  43.1450012 126.6244997  76.9489988
  43.7860012 126.9634997  77.7909988  42.9640012 125.5294997  76.9869988
  43.8550012 126.8294997  75.6489988  44.8930012 126.4524997  75.7699988
  43.4030012 126.1564997  74.8899988  43.9250012 128.2434997  75.0969988
  42.8450012 128.4704997  75.2259988  44.4590012 128.8624997  75.8489988
  44.5690012 128.5464997  73.7399988  44.4040012 129.6374997  73.6089988
  45.6760012 128.5134997  73.8219988  43.9270012 127.7714997  72.5769988
  44.2630012 128.1254997  71.5779988  44.0540012 126.6744997  72.6939988
  42.3760012 127.9684997  72.5549988  41.9760012 127.3494997  71.7229988
  41.9140012 127.4604997  73.4279988  41.8200012 129.4154997  72.4759988
  41.9410012 129.8854997  73.4759988  42.4080012 130.0174997  71.7509988
  40.3050012 129.3694997  72.3789988  40.0600012 128.8274997  71.4409988
  39.8980012 128.7574997  73.2119988  39.6580012 130.7894997  72.3729988
  38.5700012 130.6904997  72.1689988  39.7180012 131.0864997  73.4419988
  40.4120012 131.8904997  71.5669988  40.0580012 132.9404997  71.6389988
  41.4390012 131.9434997  71.9869988  40.3660012 131.5424997  70.0309988
  39.4450012 131.7164997  69.2619988  41.5200012 130.9354997  69.6379988
  41.7750012 130.6624997  68.2019988  40.9380012 130.9594997  67.5339988
  42.7050012 131.2084997  67.9349988  41.7920012 129.1104997  67.9999988
  42.6140012 128.7894997  68.6749988  41.9610012 128.7744997  66.4289988
  42.8320012 129.2574997  65.9359988  42.1260012 127.6764997  66.4269988
  40.6910012 129.0694997  65.6659988  40.3480012 128.5654997  64.2859988
  41.3930012 127.3484997  64.2129988  41.8810012 126.7804997  63.0419988
  42.1920012 127.6364997  62.4059988  42.8730012 126.2994997  63.1779988
  40.8020012 126.0964997  62.2319988  39.9090012 126.7014997  62.2759988
  41.1620012 125.9104997  61.2299988  40.3340012 124.7684997  62.7379988
  39.8140012 124.8674997  64.1859988  40.1940012 125.7944997  64.5869988
  38.7340012 124.8474997  64.1849988  40.0880012 123.9804997  64.7379988
  39.1850012 124.2894997  61.8379988  38.8620012 123.3614997  62.2879988
  38.3800012 125.0084997  61.8799988  39.4830012 124.0954997  60.8179988
  41.5530012 123.8774997  62.5899988  41.6330012 123.7914997  61.5159988
  41.4080012 122.9204997  63.0699988  42.4540012 124.3914997  62.8899988
  38.9550012 128.0314997  64.1929988  40.6130012 129.5304997  63.1969988
  40.5020012 128.5804997  68.4739988  40.5530012 127.1814997  68.4969988
  41.6060012 126.5194997  68.6029988  39.0740012 126.6624997  68.5539988
  38.9050012 125.9164997  67.7479988  38.3630012 127.5124997  68.4739988
  38.8170012 126.0974997  69.9429988  38.8180012 126.8374997  70.7709988
  39.5380012 125.2904997  70.1979988  37.3730012 125.5284997  69.9519988
  37.0240012 124.9014997  69.1039988  36.7470012 126.4384997  70.0659988
  37.1640012 124.6484997  71.2459988  37.8460012 123.7724997  71.1969988
  36.1850012 124.1494997  71.0859988  37.3800012 125.4264997  72.5709988
  38.4730012 125.6184997  72.6079988  37.1440012 124.6564997  73.3369988
  36.6640012 126.7774997  72.7509988  35.5870012 126.5884997  72.5569988
  36.9480012 127.4954997  71.9519988  36.7820012 127.3464997  74.1329988
  37.8530012 127.5164997  74.3729988  36.3910012 126.5344997  74.7819988
  36.1410012 128.7104997  74.3159988  36.1780012 129.3704997  73.4369988
  35.6130012 129.2044997  75.4779988  35.1860012 130.2164997  75.4229988
  35.5360012 128.4624997  76.8409988  35.6360012 127.3624997  76.7169988
  34.5940012 128.7534997  77.3519988  36.6140012 128.6794997  77.9089988
  37.5890012 128.5714997  77.3859988  36.4910012 127.9344997  78.7239988
  36.5950012 130.1624997  78.4909988  35.6990012 130.1744997  79.1479988
  36.3590012 130.7374997  77.5709988  37.8560012 130.5414997  79.2439988
  37.7500012 131.5624997  79.6699988  38.6510012 130.5624997  78.4679988
  38.2140012 129.7284997  80.4889988  39.1120012 130.1734997  80.9699988
  38.4760012 128.7174997  80.1099988  37.0880012 129.5354997  81.5359988
  37.4650012 128.7254997  82.1959988  36.2150012 129.1074997  80.9979988
  36.7120012 130.8444997  82.3199988  36.1300012 131.3614997  81.5269988
  37.5530012 131.4894997  82.6539988  35.7520012 130.5694997  83.5189988
  36.2350012 129.7574997  84.1029988  34.7710012 130.2474997  83.1089988
  35.6320012 131.4024997  84.2449988  71.1940012  14.2484997  84.9289988
  71.6350012  13.2324997  84.8479988  70.1070012  14.2384997  85.1599988
  71.7850012  14.7874997  85.6999988  71.3430012  14.8914997  83.5799988
  70.3560012  15.2064997  83.1779988  71.8420012  15.8624997  83.7869988
  72.0770012  14.1644997  82.3639988  72.4520012  14.8634997  81.5849988
  73.0570012  13.7604997  82.6949988  71.2370012  13.2174997  81.4499988
  70.8200012  12.4084997  82.0869988  70.3470012  13.7314997  81.0299988
  72.0070012  12.4994997  80.3129988  72.9990012  12.2164997  80.7249988
  71.5700012  11.5014997  80.0949988  72.1340012  13.3634997  79.0429988
  71.1820012  13.8744997  78.7849988  72.9600012  14.0984997  79.1519988
  72.4700012  12.5754997  77.7549988  71.6810012  11.7964997  77.6929988
  72.3360012  13.2304997  76.8679988  73.8950012  11.9524997  77.6619988
  74.7230012  12.5564997  78.0899988  73.8830012  11.0884997  78.3609988
  74.2720012  11.5274997  76.2789988  75.0650012  10.7644997  76.4369988
  73.4590012  11.0004997  75.7359988  74.9040012  12.6994997  75.4889988
  74.1510012  13.4864997  75.2679988  75.7780012  13.0494997  76.0799988
  75.5690012  12.3944997  74.1539988  76.0130012  13.3254997  73.7409988
  76.4630012  11.7634997  74.3449988  74.5880012  11.8454997  73.1559988
  74.0420012  10.9254997  73.4559988  73.7570012  12.5814997  73.1339988
  74.9940012  11.5124997  71.6979988  75.7430012  12.2504997  71.3399988
  75.2510012  10.4324997  71.6809988  73.7710012  11.7134997  70.7169988
  72.8640012  11.2964997  71.2039988  73.4700012  12.7824997  70.6749988
  74.1710012  11.2504997  69.3039988  74.7280012  12.0864997  68.8299988
  74.8020012  10.3364997  69.2969988  72.8190012  10.9204997  68.5179988
  71.7600012  10.6894997  69.0319988  73.0830012  10.9584997  67.1059988
  71.9580012  10.9004997  66.1919988  72.2200012  10.2204997  65.3539988
  71.0970012  10.4634997  66.7399988  71.5140012  12.2504997  65.6699988
  70.8280012  12.1574997  64.8009988  72.7250012  12.9904997  64.9629988
  73.4390012  12.3564997  64.3949988  72.3260012  13.7394997  64.2459988
  73.4270012  13.7934997  65.7839988  74.9610012  14.0694997  65.7209988
  75.1600012  14.4994997  64.1939988  74.4960012  15.6754997  63.6599988
  73.4220012  15.7704997  63.9259988  75.0220012  16.5524997  64.0949988
  74.7240012  15.6404997  62.0569988  74.0960012  16.4474997  61.7089988
  75.7310012  15.9424997  61.8109988  74.4750012  14.3534997  61.2849988
  75.5820012  13.2534997  61.6469988  76.5820012  13.5894997  61.4169988
  75.5140012  12.9514997  62.6819988  75.3540012  12.4054997  61.0189988
  73.0820012  13.8024997  61.4759988  73.0270012  13.3024997  62.4319988
  72.3580012  14.6034997  61.4359988  72.8300012  13.1104997  60.6859988
  74.6920012  14.6804997  59.8569988  75.0900012  13.8124997  59.3539988
  75.5010012  15.3964997  59.8839988  73.8450012  15.1574997  59.3869988
  75.3530012  15.2294997  66.5379988  75.6400012  12.8264997  65.9599988
  70.9530012  12.9374997  66.8019988  70.2210012  13.9844997  66.4199988
  69.7010012  14.1464997  65.3349988  70.0230012  14.9274997  67.6069988
  70.1100012  14.4744997  68.6179988  69.0280012  15.4234997  67.6189988
  71.1120012  16.1424997  67.5469988  70.7480012  16.7574997  66.6959988
  72.1200012  15.6794997  67.4919988  71.2350012  17.0314997  68.7719988
  70.2150012  17.4224997  68.9789988  71.7410012  17.9524997  68.4139988
  71.8660012  16.2774997  69.9869988  72.8730012  15.8614997  69.7679988
  71.2310012  15.3864997  70.1809988  71.9200012  17.1684997  71.2699988
  71.1490012  17.9424997  71.0679988  72.8740012  17.7314997  71.3559988
  71.6240012  16.4294997  72.5009988  70.6300012  15.9334997  72.4639988
  71.6970012  17.0324997  73.4309988  72.5950012  15.2954997  72.8069988
  72.4920012  14.3704997  72.1989988  72.3570012  14.9754997  73.8439988
  74.0000012  15.8044997  72.7279988  74.4630012  15.5194997  71.7719988
  74.7230012  16.4724997  73.6059988  75.7310012  16.7634997  73.2759988
  74.1800012  16.9144997  74.9209988  73.2080012  16.4134997  75.1169988
  73.9840012  18.0064997  74.8579988  75.0740012  16.5374997  76.0899988
  75.9600012  17.2064997  76.1359988  75.4930012  15.5094997  76.0479988
  74.4480012  16.6984997  77.4899988  73.9530012  15.7284997  77.7109988
  73.6430012  17.4624997  77.4459988  75.3390012  17.0254997  78.6959988
  74.7350012  17.0474997  79.6279988  75.7540012  18.0494997  78.5789988
  76.3980012  15.9844997  79.2279988  77.1310012  16.4074997  79.9469988
  76.9560012  15.6964997  78.3109988  75.7640012  14.6834997  79.9529988
  75.0510012  14.3924997  79.1529988  75.2140012  15.0634997  80.8409988
  76.8360012  13.6904997  80.2729988  77.4450012  13.3924997  79.3929988
  76.3780012  12.7574997  80.6679988  77.7810012  13.9444997  81.3999988
  77.2250012  14.2424997  82.3149988  78.4260012  14.8044997  81.1199988
  78.4550012  13.0834997  81.6009988 122.2760012 101.6614997  82.1949988
 122.0330012 102.7074997  81.9099988 122.4220012 101.7384997  83.2939988
 121.4850012 100.9164997  81.9629988 123.5890012 101.2064997  81.4979988
 124.3360012 101.9364997  81.8749988 123.8000012 100.2304997  81.9849988
 123.5410012 101.1914997  80.0009988 122.6590012 100.6534997  79.5929988
 123.6400012 102.2144997  79.5789988 124.6060012 100.2534997  79.3339988
 124.6790012  99.3704997  80.0049988 124.2550012  99.9294997  78.3309988
 126.0520012 100.8164997  79.4539988 126.3200012 100.9914997  80.5179988
 126.7420012 100.0294997  79.0809988 126.2260012 102.2484997  78.6959988
 125.6920012 103.0324997  79.2739988 127.2820012 102.5564997  78.8489988
 125.9260012 102.2314997  77.1889988 125.8740012 101.1604997  76.8989988
 124.9100012 102.6464997  77.0209988 126.8980012 102.9694997  76.3529988
 126.4280012 102.8514997  75.3529988 126.9690012 104.0294997  76.6809988
 128.3340012 102.3634997  76.3619988 128.6950012 102.1864997  77.3979988
 128.3430012 101.4114997  75.7889988 129.3500012 103.2344997  75.5889988
 129.3690012 104.2054997  76.1269988 130.3420012 102.7514997  75.7209988
 128.9340012 103.4584997  74.1469988 128.5580012 102.4974997  73.7349988
 128.1730012 104.2684997  74.1419988 130.1030012 103.8444997  73.2599988
 130.3420012 104.9264997  73.3349988 131.0940012 103.3664997  73.4129988
 129.7690012 103.6374997  71.7229988 128.8030012 104.0304997  71.3429988
 130.6180012 103.9994997  71.1039988 129.7780012 102.1344997  71.3099988
 130.6920012 101.5784997  71.6089988 128.8820012 101.6564997  71.7609988
 129.7650012 102.0924997  69.7829988 128.8030012 102.4954997  69.3989988
 130.6430012 102.5804997  69.3099988 129.7800012 100.6304997  69.3239988
 130.7260012  99.8824997  69.1599988 128.5790012 100.2534997  69.0949988
 128.4400012  99.1754997  68.1409988 128.9530012  99.4234997  67.1869988
 128.5630012  98.1194997  68.4639988 126.9910012  99.2484997  67.4869988
 126.8410012  98.3644997  66.8309988 126.9150012 100.4824997  66.5279988
 127.0960012 101.4544997  67.0339988 127.6650012 100.2894997  65.7309988
 125.5940012 100.6534997  65.9799988 125.5080012 101.6854997  64.8079988
 126.0770012 100.8424997  63.5269988 125.5790012  99.5834997  63.3359988
 125.6910012  98.8484997  64.1619988 124.4960012  99.7344997  63.1379988
 126.2140012  98.9784997  62.1549988 125.7800012  98.0334997  61.8619988
 125.9500012  99.6964997  61.3929988 127.7170012  98.6494997  62.1989988
 128.5820012  99.8304997  62.0039988 128.2760012 100.3924997  61.1339988
 128.5710012 100.3774997  62.9349988 129.5560012  99.4374997  61.7519988
 128.1900012  98.0104997  63.4879988 129.2110012  97.6574997  63.4689988
 128.1250012  98.7524997  64.2699988 127.6020012  97.1524997  63.7779988
 128.0350012  97.7204997  61.0199988 127.1920012  97.0564997  60.8939988
 128.9510012  97.1724997  61.1849988 128.0780012  98.2934997  60.1059988
 124.0590012 102.0764997  64.5049988 126.3720012 102.7704997  65.1579988
 126.0300012  99.3504997  68.4639988 125.9030012  98.2494997  69.2059988
 126.2650012  97.1824997  68.7759988 125.2500012  98.5204997  70.5599988
 124.5250012  97.7044997  70.7619988 124.7090012  99.4874997  70.4769988
 126.2550012  98.7134997  71.6929988 125.6750012  99.0774997  72.5679988
 126.8610012  99.6344997  71.5509988 127.1090012  97.4794997  72.0839988
 127.4550012  97.0154997  71.1359988 126.3500012  96.8074997  72.5399988
 128.3070012  97.8184997  72.9669988 129.0770012  98.3924997  72.4089988
 128.8170012  96.8664997  73.2269988 128.0110012  98.6704997  74.2029988
 127.1670012  99.3624997  73.9939988 128.8820012  99.3194997  74.4349988
 127.7310012  97.8294997  75.5039988 126.8810012  97.1324997  75.3439988
 127.5760012  98.5034997  76.3729988 128.8590012  96.8984997  76.0409988
 129.1480012  96.1244997  75.2979988 128.5860012  96.4344997  77.0129988
 130.1170012  97.8024997  76.2389988 130.8050012  97.6554997  75.3939988
 130.3140012  98.6644997  77.3259988 131.1280012  99.4034997  77.2919988
 129.3010012  98.7334997  78.4309988 128.6440012  97.8384997  78.4489988
 128.7080012  99.6424997  78.1909988 130.0790012  98.8404997  79.7129988
 130.9370012  99.5374997  79.6039988 130.5230012  97.8554997  79.9699988
 129.2580012  99.3294997  80.8809988 128.3620012  98.6994997  81.0639988
 128.9090012 100.3574997  80.6439988 130.1400012  99.4204997  82.1739988
 130.9480012 100.1494997  81.9509988 130.5180012  98.3804997  82.2789988
 129.3850012  99.8634997  83.4659988 129.9200012  99.5384997  84.3849988
 128.4150012  99.3254997  83.5229988 129.0610012 101.3374997  83.5389988
 127.9570012 101.2814997  83.6549988 129.2940012 101.8994997  82.6099988
 129.6610012 102.3084997  84.5959988 129.5720012 101.8804997  85.6179988
 129.0860012 103.2374997  84.3949988 131.1840012 102.5804997  84.4379988
 131.5890012 102.8174997  85.4449988 131.2560012 103.5614997  83.9209988
 131.7100012 101.7334997  83.9469988  18.1810012 107.7404997  80.9179988
  18.8980012 107.0314997  81.3839988  17.1790012 107.3324997  80.6659988
  17.9050012 108.5304997  81.6499988  18.8430012 108.2074997  79.6179988
  19.9250012 108.4004997  79.7869988  18.8280012 107.4744997  78.7829988
  18.4250012 109.5724997  79.0079988  18.4440012 110.2514997  79.8869988
  19.0490012 110.0264997  78.2099988  17.0270012 109.4384997  78.2739988
  16.2980012 108.9144997  78.9269988  16.6610012 110.4664997  78.0609988
  17.0780012 108.9234997  76.8479988  17.8820012 109.2114997  76.1379988
  17.5170012 107.9034997  76.8989988  15.7830012 108.9454997  76.0389988
  15.0020012 108.5634997  76.7299988  15.5070012 110.0084997  75.8679988
  15.7080012 108.1654997  74.7159988  15.9040012 107.1154997  75.0219988
  14.6860012 108.1654997  74.2799988  16.7170012 108.5354997  73.6279988
  16.9060012 109.5994997  73.8869988  17.6730012 108.0024997  73.8209988
  16.1490012 108.1204997  72.2759988  16.9220012 108.1094997  71.4779988
  15.6170012 107.1544997  72.4139988  15.0130012 109.0654997  71.7589988
  14.4940012 108.5454997  70.9259988  14.2080012 109.3814997  72.4559988
  15.7220012 110.3864997  71.3199988  14.7950012 110.9894997  71.2159988
  16.3290012 110.8944997  72.0999988  16.5060012 110.4364997  69.9689988
  17.5230012 110.0664997  70.2169988  15.9570012 109.7314997  69.3089988
  16.8580012 111.7384997  69.3379988  15.9020012 112.2974997  69.2519988
  17.5170012 112.3734997  69.9679988  17.5750012 111.5574997  67.9999988
  18.5710012 111.1184997  68.2199988  16.9800012 110.8414997  67.3929988
  17.6520012 112.9374997  67.2759988  16.9940012 112.8034997  66.3909988
  17.2890012 113.6604997  68.0379988  19.0800012 113.3294997  66.8609988
  19.9770012 113.4884997  67.6899988  19.0980012 113.4484997  65.5539988
  20.3980012 113.8364997  65.0639988  20.3610012 114.3684997  64.0899988
  20.8740012 114.5684997  65.7509988  21.3450012 112.6754997  64.8339988
  22.0140012 112.9604997  63.9939988  20.6050012 111.4114997  64.3179988
  19.8630012 111.7024997  63.5429988  21.3620012 110.7044997  63.9139988
  19.9440012 110.8274997  65.4699988  19.6570012 109.3084997  65.6359988
  19.2450012 109.0154997  64.1699988  19.3030012 107.6214997  63.7199988
  20.3490012 107.2784997  63.5699988  18.7630012 106.9804997  64.4489988
  18.5920012 107.5134997  62.3859988  19.0190012 106.6264997  61.9429988
  17.5410012 107.3484997  62.5699988  18.6320012 108.7074997  61.4049988
  17.9020012 109.9054997  61.8659988  18.3400012 110.3194997  62.7619988
  18.0430012 110.6734997  61.1189988  16.8740012 109.5954997  61.9839988
  20.0340012 109.0394997  60.9389988  20.6230012 109.3344997  61.7949988
  20.5120012 108.1804997  60.4909988  19.9110012 109.7574997  60.1419988
  17.8650012 108.0344997  60.2019988  17.6990012 108.7264997  59.3899988
  16.8800012 107.7444997  60.5379988  18.3830012 107.1314997  59.9159988
  20.8680012 108.4884997  65.8659988  18.4820012 109.0624997  66.5199988
  21.9770012 112.3364997  66.0709988  22.8240012 111.3094997  66.1799988
  23.4290012 110.7234997  65.2959988  23.1800012 111.2194997  67.6789988
  22.3530012 111.6414997  68.2889988  24.0820012 111.8274997  67.9059988
  23.3650012 109.7714997  68.1119988  24.1900012 109.3914997  67.4719988
  22.4770012 109.1104997  68.0219988  23.7710012 109.6524997  69.6389988
  24.6540012 110.2904997  69.8589988  24.0030012 108.5814997  69.8179988
  22.6140012 110.1484997  70.4769988  21.6370012 109.8954997  70.0109988
  22.6670012 111.2544997  70.5569988  22.6760012 109.4134997  71.8329988
  23.4450012 109.8464997  72.5079988  22.9850012 108.3504997  71.7419988
  21.4320012 109.5164997  72.7099988  21.4180012 108.6364997  73.3879988
  20.5360012 109.2424997  72.1129988  21.1900012 110.9034997  73.2909988
  21.8270012 111.6244997  72.7359988  21.4990012 110.8444997  74.3569988
  19.7580012 111.3384997  73.3299988  18.9940012 110.6074997  73.6329988
  19.3830012 112.6644997  73.1199988  18.2970012 112.8084997  73.2129988
  20.1310012 113.9804997  72.8089988  19.5060012 114.6704997  72.2019988
  21.0820012 113.8644997  72.2469988  20.4830012 114.7774997  74.0789988
  19.5760012 114.8504997  74.7159988  20.7920012 115.7934997  73.7539988
  21.5970012 114.1234997  74.9269988  22.3310012 113.7664997  74.1739988
  21.1940012 113.2974997  75.5509988  22.1990012 115.1414997  75.8319988
  21.5900012 116.0674997  75.9089988  23.1750012 115.5564997  75.4999988
  22.3540012 114.6614997  77.3309988  21.3220012 114.5394997  77.7239988
  22.6990012 115.4834997  77.9949988  23.2270012 113.4434997  77.6419988
  24.3050012 113.7094997  77.6089988  22.9800012 112.8574997  76.7309988
  22.9750012 112.6694997  78.9479988  21.9740012 112.1914997  78.9979988
  22.9500012 113.4374997  79.7509988  24.0760012 111.6774997  79.2039988
  23.8810012 111.1554997  80.1659988  25.0760012 112.1624997  79.1829988
  24.0290012 110.8144997  78.5059988  79.3710012 130.3034997  81.4939988
  78.7190012 129.4934997  81.1029988  79.0590012 130.5994997  82.5189988
  80.4570012 130.0664997  81.4729988  78.9320012 131.4184997  80.5679988
  79.4350012 132.3264997  80.9649988  79.4310012 131.2914997  79.5839988
  77.4100012 131.6484997  80.4569988  76.9980012 130.6404997  80.2409988
  77.0170012 131.9424997  81.4529988  77.0090012 132.4444997  79.2309988
  77.3120012 133.5094997  79.1349988  77.5550012 131.8434997  78.4719988
  75.5370012 132.3574997  78.7529988  75.0790012 131.3484997  78.8279988
  74.9460012 133.0244997  79.4159988  75.3320012 132.9004997  77.3729988
  75.1700012 133.9994997  77.3849988  76.1430012 132.5774997  76.6849988
  73.9830012 132.2444997  76.9179988  73.9540012 131.1634997  77.1699988
  73.1970012 132.8074997  77.4649988  73.7820012 132.4964997  75.4109988
  74.4430012 131.7874997  74.8689988  72.7310012 132.2294997  75.1679988
  73.9500012 133.9914997  75.0459988  73.4500012 134.6294997  75.8059988
  75.0410012 134.1994997  75.0579988  73.7190012 134.2664997  73.5779988
  72.6670012 134.0284997  73.3099988  74.0890012 135.2954997  73.3839988
  74.5110012 133.2784997  72.6669988  75.6000012 133.3204997  72.8849988
  74.1900012 132.2174997  72.7439988  74.4120012 133.7344997  71.1719988
  74.5280012 134.8344997  71.2759988  75.3150012 133.3614997  70.6429988
  73.1880012 133.4814997  70.3579988  72.9480012 132.4004997  70.4479988
  72.3990012 134.1804997  70.7089988  73.4810012 133.9564997  68.9169988
  72.4820012 133.8724997  68.4379988  73.5990012 135.0594997  68.8649988
  74.6350012 133.4674997  68.1109988  75.5560012 133.9244997  68.5329988
  74.6520012 132.3574997  68.0719988  74.3970012 134.0304997  66.7199988
  73.7560012 133.4574997  65.8909988  74.8130012 135.3104997  66.6879988
  74.8090012 135.9574997  65.3759988  74.3130012 135.3574997  64.5839988
  74.3090012 136.9394997  65.5199988  76.3260012 136.2264997  64.8799988
  76.0880012 136.9154997  64.0409988  76.9440012 134.9544997  64.3639988
  76.1230012 134.3324997  63.9479988  77.6310012 135.1614997  63.5149988
  77.6010012 134.3244997  65.4999988  78.4700012 132.9404997  65.2769988
  78.0420012 132.4894997  63.8809988  77.6710012 131.1564997  63.7699988
  78.5680012 130.5674997  64.0569988  76.7980012 130.7744997  64.3409988
  77.2550012 130.8284997  62.3479988  78.1030012 130.8124997  61.6789988
  76.9620012 129.7884997  62.3449988  76.1610012 131.6724997  61.5609988
  76.8360012 132.9824997  61.2599988  76.1540012 133.5954997  60.6889988
  77.0800012 133.3824997  62.2329988  77.7700012 132.7004997  60.7969988
  75.6520012 130.8634997  60.4369988  75.5020012 129.8364997  60.7349988
  74.6380012 131.1194997  60.1699988  76.3750012 130.8554997  59.6349988
  75.0340012 131.8654997  62.5259988  75.2530012 132.6104997  63.2759988
  74.7720012 130.9514997  63.0369988  74.0810012 132.0984997  62.0749988
  79.9150012 133.2364997  65.2599988  78.2160012 131.9534997  66.3609988
  77.0110012 136.9714997  65.9489988  78.2810012 137.3474997  65.7309988
  78.8800012 137.0814997  64.7139988  78.8950012 137.9354997  66.9809988
  78.4320012 138.9314997  67.1449988  79.9850012 138.0004997  66.7759988
  78.5500012 137.0854997  68.2309988  78.6450012 136.0044997  67.9899988
  77.4890012 137.2714997  68.5059988  79.4010012 137.3844997  69.4339988
  79.3120012 138.4394997  69.7729988  80.4590012 137.1924997  69.1539988
  79.1500012 136.4524997  70.6369988  79.4970012 136.9784997  71.5519988
  79.7630012 135.5324997  70.5269988  77.7400012 136.1944997  70.9299988
  77.2620012 135.4454997  70.2639988  77.1860012 137.1254997  70.6849988
  77.4700012 135.8004997  72.3759988  76.3770012 135.6814997  72.5369988
  77.8440012 136.6514997  72.9839988  78.0290012 134.4414997  72.8999988
  79.1200012 134.4034997  72.6929988  77.6000012 133.5964997  72.3209988
  77.8650012 134.1474997  74.3549988  77.6300012 133.0984997  74.5919988
  78.0160012 134.8374997  75.5099988  77.6930012 134.3124997  76.4209988
  78.5210012 136.2524997  75.8519988  77.7170012 136.8894997  76.2769988
  78.7400012 136.6434997  74.8359988  79.7570012 136.4244997  76.7109988
  80.1840012 137.4444997  76.6069988  80.4850012 135.7854997  76.1659988
  79.4850012 136.3354997  78.2049988  79.0650012 135.3414997  78.4679988
  78.7380012 137.1564997  78.2429988  80.8320012 136.5784997  78.9749988
  81.2380012 137.5754997  78.6989988  81.5720012 135.9064997  78.4899988
  80.6540012 136.2314997  80.4479988  81.6550012 136.3594997  80.9139988
  80.3870012 135.1614997  80.5779988  79.7890012 137.1414997  81.2809988
  78.7450012 137.1584997  80.9009988  80.1730012 138.1794997  81.1829988
  79.8480012 136.7884997  82.7879988  79.4520012 137.6714997  83.3329988
  80.8480012 136.5364997  83.2009988  79.0380012 135.5994997  83.2509988
  77.9580012 135.8124997  83.1009988  79.1480012 135.4864997  84.3499988
  79.2970012 134.7384997  82.5979988  26.6680012  31.2884997  81.6079988
  26.4340012  30.4754997  80.8879988  26.6890012  32.1854997  80.9529988
  25.8170012  31.4154997  82.3099988  27.9820012  31.0784997  82.3279988
  27.9620012  31.7454997  83.2159988  27.9580012  30.0294997  82.6929988
  29.3310012  31.3864997  81.5929988  29.2230012  32.3814997  81.1119988
  30.0840012  31.6214997  82.3759988  29.8900012  30.2244997  80.7899988
  30.6040012  29.7164997  81.4729988  29.1760012  29.4234997  80.5019988
  30.7270012  30.7184997  79.5529988  31.3950012  31.5504997  79.8629988
  31.4210012  29.9614997  79.1289988  29.7130012  31.1214997  78.3869988
  28.7520012  30.5644997  78.3969988  29.5460012  32.2114997  78.5239988
  30.4200012  30.7834997  77.1029988  29.8020012  31.3814997  76.3989988
  31.4660012  31.1304997  76.9609988  30.1970012  29.2764997  76.6499988
  30.3470012  28.6144997  77.5289988  29.1090012  29.1984997  76.4409988
  31.0070012  28.7194997  75.4739988  31.0770012  29.4164997  74.6109988
  32.0630012  28.5804997  75.7909988  30.5020012  27.3684997  74.8679988
  30.5110012  26.6774997  75.7369988  29.4150012  27.4664997  74.6579988
  31.1700012  26.9514997  73.5689988  30.9240012  27.8114997  72.9099988
  32.2590012  26.9154997  73.7859988  30.7400012  25.6384997  72.9609988
  31.5310012  24.8614997  72.8859988  29.9190012  25.1404997  73.5189988
  30.1240012  25.7674997  71.5299988  29.7020012  24.7714997  71.2789988
  29.2930012  26.5044997  71.5219988  31.1170012  26.1124997  70.3729988
  31.0850012  27.1754997  70.0479988  32.1310012  25.9394997  70.7929988
  30.8560012  25.2984997  69.1049988  31.7160012  25.4734997  68.4229988
  30.9590012  24.2154997  69.3269988  29.5210012  25.7664997  68.4749988
  28.6750012  24.9604997  68.1159988  29.3910012  27.0534997  68.4439988
  28.0970012  27.4594997  68.1629988  27.6690012  26.8414997  67.3449988
  27.5500012  27.3904997  69.1269988  28.2630012  28.8464997  67.5599988
  27.2280012  29.2494997  67.5679988  29.0480012  28.8884997  66.2309988
  30.1040012  28.6934997  66.5129988  28.6220012  28.0334997  65.6629988
  28.9970012  30.0914997  65.5069988  27.8780012  30.3804997  64.4689988
  28.0680012  29.1714997  63.4889988  29.3480012  28.8474997  62.8459988
  29.0960012  28.8754997  61.7649988  30.0870012  29.5964997  63.2009988
  29.7470012  27.4194997  63.3579988  30.8180012  27.2934997  63.3009988
  29.2600012  27.3454997  64.3189988  29.1590012  26.1774997  62.6099988
  27.6540012  26.3134997  62.5409988  27.3750012  25.5214997  61.8609988
  27.2390012  26.2384997  63.5349988  27.3200012  27.2214997  62.0619988
  29.8090012  26.1584997  61.2969988  30.8680012  26.3204997  61.4399988
  29.7140012  25.1534997  60.9139988  29.2150012  26.8374997  60.7039988
  29.6520012  24.9364997  63.3249988  29.2470012  24.0674997  62.8279988
  29.2850012  24.9724997  64.3399988  30.7310012  24.9494997  63.3569988
  26.4750012  30.2774997  65.0089988  28.1960012  31.5804997  63.7309988
  28.9930012  29.5844997  68.6199988  28.4560012  30.6974997  69.1799988
  27.3100012  31.0834997  69.0279988  29.4440012  31.3724997  70.1059988
  29.0880012  32.4224997  70.1719988  30.4860012  31.2574997  69.7399988
  29.3180012  30.6924997  71.5099988  30.1770012  31.0484997  72.1179988
  29.4660012  29.6004997  71.3749988  28.0330012  31.0684997  72.3249988
  27.3660012  31.5904997  71.6069988  28.3200012  31.8314997  73.0799988
  27.3120012  29.8984997  73.0289988  28.1130012  29.4104997  73.6239988
  27.1380012  29.1944997  72.1869988  25.9870012  30.3084997  73.7139988
  25.5120012  30.9434997  72.9349988  26.1660012  30.9564997  74.5979988
  24.9780012  29.1914997  74.1319988  24.8930012  28.4354997  73.3219988
  23.9850012  29.6704997  74.2689988  25.3500012  28.4764997  75.4499988
  24.4300012  27.9234997  75.7349988  25.5360012  29.2184997  76.2549988
  26.4210012  27.4404997  75.3119988  26.6110012  27.2024997  74.2549988
  27.2340012  26.9904997  76.3029988  27.9770012  26.1924997  76.1619988
  27.2790012  27.4364997  77.7629988  26.3070012  27.1494997  78.2199988
  27.4970012  28.5244997  77.8249988  28.3650012  26.7254997  78.6079988
  28.1990012  27.0684997  79.6519988  29.3850012  27.0954997  78.3699988
  28.4160012  25.2004997  78.5599988  28.9960012  24.8754997  77.6699988
  27.3470012  24.8964997  78.5539988  29.2260012  24.4324997  79.6979988
  29.9190012  23.6834997  79.2599988  28.5550012  24.0144997  80.4789988
  30.2610012  25.4464997  80.4269988  29.6700012  26.2264997  80.9539988
  30.8870012  25.9494997  79.6589988  31.1550012  24.7704997  81.4029988
  31.7720012  24.0944997  80.7739988  30.5090012  24.1284997  82.0389988
  31.9710012  25.8254997  82.2659988  32.3280012  25.1444997  83.0669988
  31.1600012  26.4944997  82.6259988  33.1980012  26.4064997  81.5639988
  33.8770012  27.0004997  82.2109988  32.8880012  27.0854997  80.7399988
  33.9890012  25.7014997  81.2299988 125.0070012  31.6194997  80.5049988
 125.6540012  31.5424997  81.4039988 124.1520012  30.9104997  80.5409988
 124.5670012  32.6284997  80.3499988 125.9810012  31.2964997  79.4549988
 126.7770012  32.0604997  79.3219988 126.5870012  30.4174997  79.7639988
 125.5620012  31.1304997  78.0179988 126.4650012  31.0274997  77.3789988
 124.9800012  30.1864997  77.9489988 124.8460012  32.2874997  77.2509988
 124.0920012  32.7624997  77.9139988 125.6690012  32.9984997  77.0259988
 124.2840012  31.8414997  75.8999988 124.9140012  31.0234997  75.4879988
 123.3220012  31.3124997  76.0679988 124.0820012  32.8254997  74.7269988
 123.3500012  33.6004997  75.0389988 124.9970012  33.4264997  74.5329988
 123.6190012  32.1444997  73.4349988 124.3710012  31.3754997  73.1559988
 122.6540012  31.6204997  73.6039988 123.3370012  33.0784997  72.2079988
 122.7060012  32.5364997  71.4709988 122.7210012  33.9164997  72.5989988
 124.5260012  33.7564997  71.5269988 124.9260012  34.3944997  72.3439988
 125.2620012  33.0594997  71.0709988 124.2740012  34.7274997  70.3219988
 123.8440012  34.1874997  69.4509988 123.4760012  35.4074997  70.6899988
 125.5510012  35.4904997  69.9249988 126.0570012  36.0294997  70.7539988
 126.1670012  34.6354997  69.5739988 125.3290012  36.4314997  68.7869988
 124.5750012  35.9234997  68.1489988 124.7240012  37.2894997  69.1509988
 126.5770012  36.8284997  67.9829988 126.1210012  37.4444997  67.1779988
 127.3120012  37.4204997  68.5689988 127.2950012  35.5564997  67.4659988
 127.6780012  34.9414997  68.3089988 126.4980012  34.9904997  66.9379988
 128.3880012  35.8214997  66.5259988 127.8590012  36.3494997  65.7039988
 129.1030012  36.5514997  66.9629988 129.0690012  34.5854997  66.0059988
 129.8830012  34.6964997  65.1019988 128.7330012  33.4664997  66.5659988
 129.3400012  32.3434997  65.9009988 129.2240012  32.4074997  64.7979988
 130.3920012  32.2734997  66.2519988 128.5830012  31.0494997  66.4039988
 129.2770012  30.2114997  66.1789988 127.2700012  30.9204997  65.6739988
 127.5430012  31.1584997  64.6229988 126.7780012  29.9274997  65.7509988
 126.3140012  31.7924997  66.2679988 124.9210012  31.7344997  65.4039988
 125.2900012  32.4644997  64.0059988 126.1580012  33.5804997  63.9829988
 125.4440012  34.4224997  63.8589988 126.7870012  33.6294997  64.8969988
 127.2660012  33.5254997  62.8559988 127.8070012  34.4594997  62.8849988
 128.0060012  32.7774997  63.1019988 126.7930012  33.4504997  61.4269988
 125.8540012  34.6444997  61.2819988 126.2160012  35.5434997  61.7579988
 125.7480012  34.9244997  60.2439988 124.9070012  34.3664997  61.7209988
 127.9750012  33.6374997  60.5269988 128.7460012  32.9424997  60.8269988
 127.7390012  33.5114997  59.4809988 128.4460012  34.5964997  60.6789988
 126.0900012  32.2134997  61.0929988 125.2330012  32.1414997  61.7449988
 126.7500012  31.3734997  61.2529988 125.7900012  32.2604997  60.0559988
 124.4810012  30.3604997  65.2249988 124.0340012  32.6514997  66.1109988
 128.2930012  31.0444997  67.8449988 129.3800012  31.0374997  68.6349988
 130.5480012  30.9234997  68.2489988 128.9700012  30.8584997  70.1179988
 129.4300012  29.9104997  70.4679988 127.8670012  30.7534997  70.2029988
 129.4990012  32.1144997  70.9249988 130.6060012  32.0204997  70.9099988
 129.2540012  31.9614997  71.9979988 129.0850012  33.4234997  70.3529988
 127.9980012  33.6364997  70.4409988 129.3530012  33.4004997  69.2749988
 129.6990012  34.5974997  71.0669988 130.7890012  34.4194997  71.1859988
 129.2470012  34.5934997  72.0819988 129.4550012  35.9764997  70.4119988
 128.3450012  36.0234997  70.4159988 129.7330012  36.0314997  69.3379988
 129.9680012  37.2104997  71.2039988 129.6610012  38.0584997  70.5549988
 131.0720012  37.2894997  71.1099988 129.6460012  37.3694997  72.7609988
 129.9400012  38.4194997  72.9739988 130.3330012  36.6864997  73.3059988
 128.2380012  37.1224997  73.1109988 127.5530012  37.5664997  72.3729988
 127.6850012  36.4714997  74.1479988 126.6210012  36.4464997  74.4229988
 128.5740012  35.8214997  75.2379988 129.6090012  35.5944997  74.9049988
 128.0950012  34.8604997  75.5259988 128.7960012  36.7454997  76.4559988
 128.9210012  37.7694997  76.0439988 129.6400012  36.3574997  77.0669988
 127.7490012  36.7184997  77.5649988 126.7340012  37.0104997  77.2209988
 128.1450012  37.4824997  78.2679988 127.8060012  35.3114997  78.2249988
 128.7640012  35.1574997  78.7649988 127.7340012  34.5214997  77.4469988
 126.8040012  35.0264997  79.4179988 126.9850012  33.9904997  79.7749988
 125.7510012  35.0114997  79.0639988 126.8650012  36.0714997  80.4969988
 126.3450012  36.9124997  79.9899988 127.9140012  36.3944997  80.6669988
 126.4300012  35.7094997  81.9009988 125.4080012  35.2754997  81.9329988
 126.3740012  36.6894997  82.4219988 127.3380012  34.6344997  82.5339988
 127.0970012  34.1964997  83.5269988 128.3850012  34.9974997  82.6089988
 127.3490012  33.7704997  81.8359988  99.8690012 130.7054997  79.5399988
 100.2310012 129.9074997  80.2229988  98.8600012 130.8474997  79.9819988
 100.4130012 131.6644997  79.6769988  99.5580012 130.2794997  78.1049988
 100.4510012 129.8144997  77.6349988  98.6130012 129.6954997  78.1359988
  99.0530012 131.4924997  77.2849988  98.3370012 132.0584997  77.9179988
  99.8720012 132.2354997  77.1799988  98.4790012 131.1764997  75.8979988
  97.6200012 130.4734997  75.9519988  98.2490012 132.1714997  75.4619988
  99.5450012 130.5394997  74.9989988 100.5470012 131.0074997  75.1059988
  99.7720012 129.4794997  75.2399988  99.0900012 130.5734997  73.4139988
  98.0110012 130.3494997  73.2739988  99.2220012 131.6544997  73.1919988
  99.9750012 129.6914997  72.4889988 100.9720012 129.9524997  72.9029988
  99.8150012 128.5924997  72.5069988  99.8780012 130.0994997  71.0159988
 100.3830012 131.0784997  70.8719988 100.3590012 129.3384997  70.3659988
  98.4560012 130.2974997  70.4909988  97.9450012 129.3524997  70.7719988
  97.8510012 131.0974997  70.9679988  98.3880012 130.4584997  68.9789988
  98.7250012 131.4754997  68.6829988  99.1120012 129.7224997  68.5689988
  96.9020012 130.3184997  68.5879988  96.3890012 129.5294997  69.1779988
  96.3300012 131.2404997  68.8249988  96.7570012 129.9454997  67.1209988
  97.2730012 128.9624997  67.0799988  95.6710012 129.7454997  67.0009988
  97.1670012 131.0604997  66.1759988  98.2080012 131.3544997  66.4289988
  97.0140012 130.6204997  65.1669988  96.2480012 132.2224997  66.2749988
  95.1970012 131.8644997  66.2889988  96.4060012 132.8124997  67.2029988
  96.2580012 133.2884997  65.1369988  95.9070012 132.7854997  64.2109988
  95.5090012 134.0584997  65.4199988  97.6400012 133.9914997  65.0529988
  98.2130012 134.3484997  66.0359988  98.0530012 134.1684997  63.7889988
  99.2760012 134.7944997  63.4359988  99.0370012 135.2854997  62.4689988
  99.5330012 135.6254997  64.1259988 100.4170012 133.7064997  63.4639988
 101.3740012 134.1664997  63.1379988 100.0860012 132.5444997  62.4649988
  99.7020012 133.0564997  61.5559988 100.9940012 131.9084997  62.5329988
  98.9790012 131.7534997  63.0069988  98.7580012 130.2454997  62.3609988
 100.0200012 129.4534997  62.9669988 100.0860012 129.3674997  64.3679988
 100.0390012 130.3934997  64.7919988  99.2900012 128.7634997  64.8529988
 101.4950012 128.9124997  64.8749988 102.1740012 129.7484997  64.7919988
 101.2650012 128.7204997  65.9129988 102.2290012 127.7024997  64.3529988
 103.0710012 128.2144997  63.1709988 103.6960012 127.3864997  62.8709988
 102.3650012 128.4454997  62.3859988 103.6970012 129.0574997  63.4209988
 103.0820012 127.2704997  65.4769988 103.4890012 128.1794997  65.8919988
 102.5590012 126.7084997  66.2369988 103.8580012 126.6854997  65.0059988
 101.3020012 126.5674997  63.9149988 100.9380012 126.0204997  64.7719988
 101.8770012 125.8644997  63.3309988 100.4540012 126.9474997  63.3639988
  97.4920012 129.7144997  62.8159988  99.0520012 130.2604997  60.8719988
 100.5520012 133.2174997  64.7579988 101.6280012 132.5934997  65.1309988
 102.5540012 132.2274997  64.4269988 101.5540012 132.4674997  66.6649988
 100.5390012 132.0544997  66.8469988 101.9210012 133.4294997  67.0819988
 102.6590012 131.4454997  67.2039988 102.7510012 130.5104997  66.6109988
 102.4270012 131.0964997  68.2329988 104.1360012 131.8794997  67.1099988
 104.4020012 132.4724997  66.2089988 104.7380012 130.9474997  67.1759988
 104.6030012 132.6724997  68.3729988 103.7800012 133.3194997  68.7469988
 105.4420012 133.3274997  68.0569988 105.0780012 131.7744997  69.5239988
 105.9410012 131.1184997  69.2779988 104.2650012 131.0744997  69.8119988
 105.4760012 132.6964997  70.7249988 104.7360012 133.5214997  70.6529988
 106.5020012 133.0614997  70.5059988 105.5010012 131.9804997  72.1339988
 104.5090012 132.0934997  72.6219988 106.1550012 132.5504997  72.8279988
 106.0200012 130.5424997  72.0319988 107.0700012 130.4364997  71.7209988
 105.4060012 129.3904997  72.2769988 106.0220012 128.4994997  72.0849988
 103.9160012 129.1874997  72.7079988 103.5710012 128.2824997  72.1639988
 103.2070012 129.9334997  72.2909988 103.6000012 128.9044997  74.2179988
 104.1760012 128.0994997  74.7239988 102.5440012 128.5694997  74.1389988
 103.7120012 130.1264997  75.1879988 102.9300012 130.8944997  75.0069988
 104.7000012 130.6314997  75.1269988 103.6040012 129.7514997  76.7219988
 104.1930012 128.8644997  77.0409988 102.5510012 129.5214997  76.9929988
 104.1000012 130.9294997  77.6429988 103.7700012 131.8714997  77.1549988
 105.2020012 131.0644997  77.6679988 103.5840012 130.9004997  79.0909988
 103.2870012 129.8784997  79.4079988 102.6290012 131.4674997  79.1199988
 104.6550012 131.5004997  80.0389988 105.5720012 130.8914997  79.8869988
 104.2380012 131.4414997  81.0669988 105.0200012 132.9344997  79.6899988
 104.1390012 133.6064997  79.7719988 105.4330012 133.1394997  78.6789988
 105.8500012 133.2414997  80.3619988 102.3790012  18.2904997  80.7669988
 102.8290012  18.6854997  81.7019988 101.3460012  18.6944997  80.8419988
 102.8580012  18.6954997  79.8489988 102.3580012  16.7514997  80.8779988
 103.2430012  16.2644997  81.3389988 101.5240012  16.6074997  81.5979988
 102.0590012  15.8954997  79.6019988 102.2010012  14.8644997  79.9889988
 100.9780012  15.9884997  79.3659988 103.0720012  16.0854997  78.4639988
 102.5890012  16.0474997  77.4639988 103.6390012  17.0314997  78.6019988
 104.1410012  15.0054997  78.3429988 104.6590012  15.0114997  79.3259988
 103.6560012  14.0134997  78.2219988 105.2000012  15.2204997  77.2429988
 105.5920012  16.2544997  77.3539988 106.0810012  14.5464997  77.2989988
 104.6110012  15.1894997  75.8599988 103.9390012  16.0624997  75.7189988
 105.4860012  15.4274997  75.2179988 104.0480012  13.9374997  75.3249988
 104.7230012  13.0984997  75.5999988 103.1440012  13.7264997  75.9349988
 103.6720012  13.9624997  73.8699988 103.5350012  12.9064997  73.5519988
 102.7220012  14.5394997  73.8459988 104.6770012  14.6064997  72.9589988
 104.8320012  15.7034997  73.0389988 105.5990012  14.0564997  73.2449988
 104.4160012  14.3064997  71.4699988 104.4040012  13.1954997  71.4439988
 103.4330012  14.7364997  71.1839988 105.4910012  14.9434997  70.5549988
 105.5110012  16.0424997  70.7189988 106.4810012  14.5124997  70.8159988
 105.1380012  14.5724997  69.1019988 104.0790012  14.7274997  68.8029988
 105.6640012  15.2334997  68.3799988 105.6260012  13.2074997  68.5729988
 106.7280012  13.2804997  68.6939988 105.2190012  12.4814997  69.3079988
 105.2650012  12.5564997  67.2289988 105.6580012  13.1144997  66.3519988
 105.6630012  11.5204997  67.1839988 103.7630012  12.4054997  67.2319988
 103.0180012  12.1134997  68.2129988 103.4500012  12.7954997  66.0279988
 102.0930012  13.1194997  65.6489988 101.9140012  12.8334997  64.5909988
 101.3070012  12.6264997  66.2589988 101.8730012  14.6584997  65.9279988
 100.8180012  14.9934997  65.8369988 102.7270012  15.5364997  64.9889988
 102.6710012  15.1154997  63.9629988 102.1790012  16.5014997  65.0389988
 104.0460012  15.5834997  65.5569988 105.3260012  15.4724997  64.6579988
 105.4530012  16.8804997  63.9389988 105.1360012  18.1484997  64.4979988
 104.1020012  18.1564997  64.9029988 105.7290012  18.2964997  65.4249988
 105.6080012  19.2394997  63.4899988 105.2970012  20.2004997  63.8729988
 106.6860012  19.2184997  63.4219988 104.9900012  19.1574997  62.0849988
 105.5620012  18.0544997  61.2029988 106.6370012  17.9994997  61.1149988
 104.9960012  17.1474997  61.3549988 105.3990012  18.2034997  60.1459988
 103.4750012  18.9554997  62.2419988 103.1580012  18.1784997  62.9219988
 103.0360012  19.8514997  62.6549988 103.0630012  18.8224997  61.2529988
 105.2270012  20.4894997  61.3539988 104.8350012  20.3114997  60.3639988
 106.2650012  20.7384997  61.1919988 104.7470012  21.3384997  61.8189988
 106.4870012  15.2414997  65.4959988 104.9680012  14.4114997  63.6579988
 102.1870012  14.9294997  67.2169988 101.6570012  16.0444997  67.7879988
 101.1920012  16.9954997  67.1229988 101.6960012  15.9524997  69.2599988
 102.5870012  16.5414997  69.5679988 101.8230012  14.8854997  69.5429988
 100.3780012  16.4964997  69.8889988  99.5760012  15.7604997  69.6649988
  99.9620012  17.2954997  69.2389988 100.3560012  16.8954997  71.4439988
 100.9160012  16.2594997  72.1629988  99.2840012  16.7204997  71.6789988
 100.6680012  18.3724997  71.7299988  99.8580012  18.9044997  71.1879988
 101.6560012  18.5324997  71.2469988 100.6280012  18.8244997  73.1659988
  99.5860012  18.6224997  73.4939988 100.7260012  19.9264997  73.0639988
 101.7280012  18.3494997  74.1559988 101.7050012  17.2394997  74.1679988
 101.5480012  18.8404997  75.1359988 103.1630012  18.7074997  73.6899988
 103.3800012  18.2294997  72.7109988 103.8330012  18.2294997  74.4359988
 103.4070012  20.2134997  73.6859988 103.1410012  20.5824997  72.6839988
 103.9670012  20.9824997  74.7149988 104.0060012  22.0504997  74.4579988
 104.4430012  20.4774997  76.0599988 104.5040012  19.3694997  76.0019988
 103.7530012  20.7344997  76.8919988 105.7360012  21.1284997  76.5109988
 105.4280012  22.1924997  76.4249988 106.6220012  20.9894997  75.8539988
 106.0240012  21.0044997  78.0529988 105.0720012  21.3084997  78.5389988
 106.7490012  21.8184997  78.2649988 106.4130012  19.5524997  78.5369988
 107.1620012  19.1204997  77.8389988 105.4840012  18.9604997  78.3969988
 106.9300012  19.4074997  79.9539988 107.9660012  19.7394997  80.1769988
 106.8780012  18.3174997  80.1619988 106.0660012  20.2044997  80.9719988
 105.0040012  19.9954997  80.7239988 106.3100012  21.2864997  80.9059988
 106.3890012  19.7234997  82.4389988 107.4530012  19.8854997  82.7169988
 106.1530012  18.6414997  82.5239988 105.8040012  20.4924997  83.6319988
 104.7210012  20.6244997  83.4189988 106.2420012  21.5044997  83.7699988
 106.0700012  19.9634997  84.5719988  10.1480012  56.0424997  83.5899988
   9.4450012  55.2594997  83.2349988   9.7770012  56.9104997  83.0029988
   9.8250012  56.2304997  84.6359988  11.5980012  55.8814997  83.4199988
  12.0730012  56.8824997  83.4989988  12.1440012  55.3234997  84.2099988
  12.0060012  55.2934997  82.0689988  11.6320012  55.8424997  81.1789988
  13.1010012  55.4774997  82.0149988  11.8730012  53.8134997  82.0889988
  12.4310012  53.5104997  82.9999988  10.7990012  53.6394997  82.3179988
  12.4360012  53.0694997  80.8399988  13.4990012  53.3914997  80.8319988
  12.4000012  51.9944997  81.1159988  11.7130012  53.3404997  79.6029988
  10.8860012  52.6014997  79.5479988  11.2420012  54.3374997  79.7399988
  12.4320012  53.4324997  78.2939988  13.0770012  52.5484997  78.1019988
  11.6880012  53.4534997  77.4689988  13.2760012  54.6664997  78.0579988
  12.6120012  55.5474997  78.1889988  14.1100012  54.6994997  78.7919988
  13.8430012  54.8384997  76.6549988  14.5320012  55.7084997  76.6109988
  14.4160012  53.8974997  76.5119988  12.7570012  54.9354997  75.5849988
  12.1510012  54.0074997  75.6659988  12.1530012  55.8464997  75.7799988
  13.3900012  54.9544997  74.1239988  14.3960012  55.4244997  74.1029988
  13.7160012  53.9224997  73.8769988  12.3490012  55.2904997  72.9739988
  12.8720012  54.9754997  72.0459988  11.4260012  54.6874997  73.1139988
  12.0730012  56.8044997  72.9879988  11.5190012  56.9884997  73.9329988
  13.0070012  57.4044997  72.9599988  11.2190012  57.3454997  71.7599988
  11.0480012  58.4404997  71.8369988  11.8850012  57.1774997  70.8859988
   9.9000012  56.5614997  71.6009988  10.2230012  55.5054997  71.4819988
   9.2070012  56.7634997  72.4449988   9.3420012  56.9494997  70.2279988
   9.3880012  58.0594997  69.7429988   8.9620012  55.9094997  69.6499988
   8.5130012  56.0934997  68.3019988   8.0060012  55.1464997  68.0209988
   7.8460012  56.9614997  68.1099988   9.6780012  56.3004997  67.3369988
  10.1430012  57.2824997  67.5709988   9.4130012  56.3134997  65.7979988
   8.4510012  56.8494997  65.6519988  10.1520012  56.9484997  65.2639988
   9.5960012  55.0084997  65.2559988   8.4370012  54.0504997  64.8279988
   8.8880012  53.6294997  63.3249988   9.2140012  54.6704997  62.4459988
   8.9650012  54.3584997  61.4089988   8.5840012  55.5834997  62.5189988
  10.7050012  55.1204997  62.3859988  10.8780012  55.7754997  61.5449988
  10.9460012  55.7604997  63.2219988  11.7920012  54.0604997  62.3309988
  11.8930012  53.2254997  63.6139988  12.2390012  53.8344997  64.4369988
  10.8850012  52.9394997  63.8739988  12.6190012  52.4484997  63.4239988
  11.4110012  53.1074997  61.2169988  10.5550012  52.5294997  61.5329988
  11.2140012  53.7034997  60.3379988  12.2690012  52.4864997  61.0029988
  13.1890012  54.7064997  62.0879988  14.0100012  54.0064997  62.0519988
  13.3910012  55.2624997  62.9919988  13.2840012  55.2784997  61.1769988
   8.5480012  52.8904997  65.7299988   7.1720012  54.8014997  64.9619988
  10.5960012  55.1974997  67.6039988  11.8870012  55.4914997  67.7399988
  12.3310012  56.5914997  67.5379988  12.7450012  54.3394997  68.1429988
  13.7320012  54.7194997  68.4809988  12.8880012  53.7104997  67.2379988
  12.2370012  53.4454997  69.3169988  11.5780012  53.9794997  70.0349988
  13.0310012  53.0234997  69.9689988  11.4320012  52.2614997  68.8459988
  11.9720012  51.7544997  68.0179988  10.4400012  52.5384997  68.4299988
  11.2620012  51.2734997  69.9579988  12.2160012  51.2154997  70.5229988
  11.1530012  50.2164997  69.6319988  10.1060012  51.4914997  70.8509988
   9.2180012  51.0214997  70.3759988  10.0910012  52.5844997  71.0519988
  10.1560012  50.7014997  72.2469988  10.9310012  51.0504997  72.9629988
  10.3230012  49.6144997  72.0889988   8.7740012  50.8294997  73.0169988
   8.8170012  50.5704997  74.0969988   8.0350012  50.1174997  72.5929988
   8.0910012  52.2104997  72.9179988   7.4970012  52.4294997  72.0189988
   8.1690012  53.2274997  73.7959988   7.6530012  54.1444997  73.4739988
   8.8440012  53.2384997  75.1219988   9.4710012  54.1384997  75.2979988
   9.4710012  52.3214997  75.1629988   7.7430012  53.2084997  76.1539988
   6.8820012  52.5934997  75.8149988   7.4540012  54.2774997  76.2489988
   8.2510012  52.6764997  77.5649988   9.3570012  52.7414997  77.6459988
   8.0290012  51.6164997  77.8149988   7.6250012  53.3444997  78.8049988
   7.9870012  52.8474997  79.7299988   6.5390012  53.2784997  78.5769988
   8.1910012  54.7754997  78.9309988   7.8750012  55.4514997  78.1089988
   9.2940012  54.7124997  79.0539988   7.7380012  55.4894997  80.2409988
   8.2530012  56.4734997  80.2169988   8.0330012  54.9154997  81.1449988
   6.3120012  55.7814997  80.3409988   5.6860012  54.8664997  80.2639988
   6.0790012  56.4224997  79.4639988   5.9500012  56.5334997  81.6319988
   6.4050012  57.5324997  81.8019988   6.3640012  55.9724997  82.4959988
   4.8410012  56.5984997  81.6239988  61.7790012  14.4284997  83.5189988
  61.1190012  14.4804997  84.4109988  61.8500012  15.3484997  82.8999988
  62.8100012  14.2124997  83.8709988  61.3260012  13.2184997  82.7049988
  61.0750012  12.3884997  83.3999988  60.3850012  13.5674997  82.2289988
  62.3340012  12.7964997  81.5759988  62.4160012  13.6744997  80.8999988
  63.3000012  12.5084997  82.0409988  61.8170012  11.5384997  80.8149988
  61.8850012  10.7784997  81.6229988  60.7240012  11.5264997  80.6119988
  62.6400012  11.1304997  79.6089988  63.6900012  11.0204997  79.9559988
  62.2170012  10.1444997  79.3209988  62.7060012  12.0834997  78.4049988
  61.6820012  12.2934997  78.0289988  63.1500012  13.0244997  78.7939988
  63.5140012  11.5004997  77.2189988  64.6080012  11.6104997  77.3799988
  63.1330012  10.4714997  77.0459988  63.1880012  12.2364997  75.9019988
  62.1210012  11.9714997  75.7379988  63.3190012  13.3394997  75.9259988
  64.1280012  11.6484997  74.7969988  65.1990012  11.5074997  75.0599988
  63.7770012  10.6584997  74.4349988  64.0700012  12.5994997  73.5769988
  63.0010012  12.6244997  73.2749988  64.3500012  13.6374997  73.8589988
  65.0490012  12.2454997  72.3979988  66.0980012  12.2784997  72.7639988
  64.9110012  11.2414997  71.9409988  64.8160012  13.1664997  71.2109988
  63.7310012  13.2554997  70.9889988  65.1280012  14.2284997  71.2979988
  65.5190012  12.7064997  69.8679988  66.5240012  13.1794997  69.8509988
  65.4450012  11.5984997  69.8429988  64.7980012  13.3564997  68.6579988
  63.6870012  13.3384997  68.6349988  64.9230012  14.4594997  68.7069988
  65.2670012  12.8304997  67.2619988  64.7540012  13.4754997  66.5159988
  66.3770012  12.8304997  67.2099988  64.7760012  11.4094997  67.0539988
  64.4620012  10.6984997  67.9809988  64.6740012  11.1304997  65.6979988
  63.9190012   9.9434997  65.4199988  64.3050012   9.5324997  64.4629988
  64.2810012   9.0994997  66.0449988  62.3660012  10.1804997  65.2489988
  61.8730012   9.1914997  65.1349988  62.2050012  11.0544997  63.9749988
  62.9550012  10.7564997  63.2119988  61.1670012  10.9334997  63.5969988
  62.3710012  12.4544997  64.3669988  62.7040012  13.4754997  63.2459988
  61.2960012  14.2324997  63.1119988  60.4430012  14.7064997  64.1339988
  60.8990012  14.8674997  65.1339988  60.0710012  15.6884997  63.7699988
  59.2720012  13.8924997  64.4809988  59.6400012  13.0324997  65.0219988
  58.6900012  14.4364997  65.2109988  58.2280012  13.3844997  63.5039988
  58.8660012  12.1004997  62.8569988  59.4400012  12.5264997  62.0479988
  59.4970012  11.6714997  63.6219988  58.0710012  11.4564997  62.5119988
  57.0070012  12.8864997  64.2009988  56.4940012  12.3444997  63.4189988
  57.3890012  12.2084997  64.9499988  56.4820012  13.7334997  64.6169988
  57.8510012  14.4204997  62.4449988  57.2940012  15.2194997  62.9109988
  57.2580012  13.9904997  61.6519988  58.7980012  14.7844997  62.0749988
  63.7030012  14.3164997  63.8539988  63.0950012  12.7934997  61.9799988
  61.8720012  10.7324997  66.4219988  60.5880012  10.8604997  66.5219988
  59.7360012  10.5584997  65.6849988  60.2240012  11.6094997  67.8029988
  59.1730012  11.3474997  68.0499988  60.2990012  12.7004997  67.6079988
  61.1310012  11.1894997  69.0609988  60.8940012  11.9364997  69.8489988
  62.1920012  11.3234997  68.7609988  60.9250012   9.7784997  69.6129988
  61.1250012   9.0314997  68.8149988  59.8250012   9.6724997  69.7339988
  61.7490012   9.3384997  70.7979988  62.7810012   9.5824997  70.4679988
  61.5230012   8.2604997  70.9499988  61.4750012  10.0454997  72.1399988
  61.6210012  11.1464997  72.1199988  62.2000012   9.7664997  72.9339988
  60.0170012   9.8644997  72.4489988  59.5020012   8.9764997  72.0259988
  59.5700012  10.5784997  71.7239988  59.4950012  10.1114997  73.8409988
  58.3860012  10.1094997  73.7869988  59.7680012  11.1054997  74.2559988
  59.6680012   8.9014997  74.6899988  59.6910012   7.9484997  74.1409988
  59.9310012   8.8224997  75.9539988  60.0090012   7.8334997  76.4299988
  60.0790012   9.9954997  76.8779988  60.4420012  10.8554997  76.2749988
  60.8700012   9.9634997  77.6579988  58.7560012  10.4624997  77.4129988
  58.4980012   9.8054997  78.2709988  57.9020012  10.1754997  76.7629988
  58.5090012  11.8974997  77.8799988  58.2660012  12.5014997  76.9799988
  59.3230012  12.3034997  78.5169988  57.2600012  11.9034997  78.7919988
  57.5280012  11.2764997  79.6689988  56.4690012  11.5744997  78.0839988
  56.8330012  13.2664997  79.3389988  56.4530012  13.7964997  78.4399988
  57.7080012  13.7784997  79.7929988  55.6980012  13.1344997  80.4249988
  56.1660012  12.6424997  81.3039988  54.8670012  12.5294997  80.0039988
  55.0110012  14.4074997  80.8409988  54.0200012  14.1704997  81.2819988
  54.7970012  14.8824997  79.8599988  55.8710012  15.3874997  81.6999988
  56.8160012  15.5004997  81.1269988  56.1080012  15.0424997  82.7289988
  55.2890012  16.3214997  81.8529988   6.1320012  88.9494997  84.3619988
   6.2040012  89.6564997  85.2159988   7.0690012  88.3524997  84.3419988
   5.1540012  88.4424997  84.5089988   6.0550012  89.5784997  82.9939988
   5.0330012  89.9494997  82.7629988   6.7220012  90.4654997  82.9559988
   6.2900012  88.6464997  81.8169988   7.0610012  87.8744997  82.0219988
   5.3270012  88.0954997  81.7589988   6.5480012  89.3314997  80.3789988
   5.7610012  90.0934997  80.1889988   7.5000012  89.8994997  80.4469988
   6.5290012  88.3574997  79.1909988   7.1420012  87.5184997  79.5849988
   5.4970012  87.9644997  79.0749988   6.9910012  89.0194997  77.9469988
   7.9800012  89.4654997  78.1849988   7.2260012  88.2344997  77.1959988
   6.1050012  90.0974997  77.3849988   5.1600012  89.7674997  76.9029988
   5.7930012  90.8574997  78.1319988   6.6690012  90.9074997  76.2259988
   5.8280012  91.4534997  75.7489988   7.4210012  91.6054997  76.6509988
   7.4170012  90.0694997  75.1439988   8.3160012  89.6454997  75.6409988
   6.6760012  89.2784997  74.8999988   7.8470012  90.9104997  73.9249988
   7.0080012  91.2734997  73.2939988   8.4480012  91.8074997  74.1859988
   8.6570012  90.0564997  72.8869988   9.4650012  89.6074997  73.5039988
   8.1890012  89.1554997  72.4349988   9.2910012  90.9444997  71.8219988
   8.4490012  91.2924997  71.1849988   9.7490012  91.8564997  72.2619988
  10.2570012  90.1694997  70.9249988  10.6700012  90.7214997  70.0539988
  11.1360012  89.9424997  71.5649988   9.7640012  88.8194997  70.3539988
  10.5510012  88.4834997  69.6449988   9.7980012  88.0884997  71.1899988
   8.3490012  88.9614997  69.7069988   7.6110012  89.5524997  70.2899988
   8.4780012  89.5124997  68.7509988   7.7660012  87.6054997  69.4529988
   7.4620012  86.8154997  70.3229988   7.7250012  87.4244997  68.1379988
   7.2220012  86.0974997  67.7789988   7.9830012  85.5074997  67.2259988
   7.0140012  85.4304997  68.6429988   5.8850012  86.3154997  66.9609988
   5.4910012  85.3424997  66.5969988   6.1220012  87.0854997  65.6019988
   6.8160012  86.4864997  64.9739988   5.2300012  87.0104997  64.9439988
   6.5790012  88.3934997  65.6789988   5.7050012  89.7084997  65.6319988
   5.3480012  90.0414997  64.0929988   6.4470012  90.1474997  63.2219988
   6.0800012  90.8114997  62.4099988   7.3960012  90.5524997  63.6339988
   6.7940012  88.7584997  62.4999988   7.7150012  89.0244997  62.0029988
   6.8870012  88.0014997  63.2649988   5.8520012  88.2004997  61.4279988
   5.3930012  89.3364997  60.4549988   6.2430012  89.5544997  59.8259988
   4.6580012  88.9514997  59.7629988   5.0590012  90.1944997  61.0199988
   6.6710012  87.2634997  60.6539988   7.0590012  86.5104997  61.3249988
   6.1430012  86.6584997  59.9319988   7.4010012  87.7104997  59.9959988
   4.6230012  87.5194997  62.0739988   4.0510012  88.2854997  62.5759988
   4.9700012  86.8584997  62.8539988   3.9840012  87.0634997  61.3319988
   4.4120012  89.4034997  66.2999988   6.5300012  90.8014997  66.1449988
   4.9390012  87.0114997  67.7709988   4.3780012  86.3104997  68.7119988
   4.4590012  85.0794997  68.8989988   3.5410012  87.1774997  69.6309988
   2.5700012  86.7224997  69.9209988   3.2980012  88.1074997  69.0729988
   4.2550012  87.5244997  70.9649988   3.6830012  88.3774997  71.3889988
   5.2390012  87.8074997  70.5339988   4.5640012  86.3394997  71.9849988
   5.0220012  85.4864997  71.4399988   3.6180012  86.1414997  72.5339988
   5.6110012  86.6754997  73.0499988   5.1520012  87.0704997  73.9809988
   6.2840012  87.5014997  72.7379988   6.5060012  85.5304997  73.5049988
   7.0480012  85.9944997  74.3569988   7.2470012  85.2034997  72.7449988
   5.8510012  84.1734997  73.9539988   6.7340012  83.5374997  74.1789988
   5.3450012  83.6644997  73.1059988   4.9380012  84.2054997  75.1699988
   4.5160012  83.1814997  75.2639988   4.0900012  84.8674997  74.8959988
   5.5240012  84.5644997  76.4899988   6.5970012  84.3444997  76.5969988
   4.9980012  85.1814997  77.5229988   5.6280012  85.3664997  78.4059988
   3.5710012  85.6984997  77.5529988   3.2190012  85.9674997  76.5339988
   3.3080012  86.5504997  78.2159988   2.4960012  84.6674997  77.9819988
   2.5640012  83.8854997  77.1959988   1.5120012  85.1804997  78.0429988
   2.6880012  84.0554997  79.3619988   3.6190012  83.4524997  79.2939988
   1.7540012  83.4854997  79.5549988   2.8710012  85.1024997  80.4829988
   2.0650012  85.8664997  80.5049988   3.8080012  85.6764997  80.3149988
   2.8910012  84.3884997  81.8899988   2.1250012  83.6084997  82.0879988
   2.6440012  85.1614997  82.6489988   4.2170012  83.6744997  82.1319988
   4.6410012  83.0834997  81.2909988   3.9980012  82.9414997  82.9369988
   5.2830012  84.6374997  82.6289988   5.4990012  85.4264997  81.8769988
   6.2350012  84.0904997  82.7959988   5.1630012  85.2184997  84.0489988
   4.8230012  84.4784997  84.8049988   4.5370012  86.1354997  84.0589988
   6.1330012  85.6724997  84.3459988 110.3890012 125.2234997  79.7829988
 111.3540012 125.1414997  79.2399988 110.1090012 126.2974997  79.7289988
 109.5770012 124.6424997  79.2959988 110.4270012 124.7814997  81.2249988
 111.4920012 124.9264997  81.5079988 109.8220012 125.4294997  81.8939988
 110.0660012 123.3234997  81.5049988 110.3570012 123.0214997  82.5339988
 108.9560012 123.2884997  81.5479988 110.6130012 122.2464997  80.5779988
 110.2750012 121.2904997  81.0319988 110.0230012 122.4434997  79.6559988
 112.1530012 122.2774997  80.5289988 112.4110012 123.3574997  80.5599988
 112.4940012 121.7404997  81.4399988 112.7950012 121.6194997  79.2889988
 113.8730012 121.7744997  79.5109988 112.5750012 120.5314997  79.3289988
 112.4920012 122.3384997  77.9889988 112.3920012 123.4334997  78.1459988
 113.2460012 122.1604997  77.1929988 111.2710012 121.7964997  77.1849988
 111.2060012 120.6934997  77.3039988 110.3730012 122.0584997  77.7839988
 111.2080012 122.2924997  75.6849988 110.2170012 122.4704997  75.2149988
 111.7120012 123.2754997  75.5649988 111.8570012 121.2874997  74.6829988
 112.7920012 120.8654997  75.1089988 111.2270012 120.3804997  74.5559988
 112.2100012 122.0694997  73.4079988 112.8350012 122.9604997  73.6309988
 112.8320012 121.4674997  72.7119988 110.9920012 122.4144997  72.5439988
 110.4660012 121.4464997  72.3989988 110.1920012 123.0984997  72.8979988
 111.4270012 122.9264997  71.1219988 112.3040012 122.3624997  70.7399988
 110.5850012 122.6914997  70.4369988 111.8130012 124.4554997  70.9779988
 110.8990012 125.0774997  71.0859988 112.4590012 124.5314997  71.8789988
 112.5850012 124.8194997  69.6809988 113.0750012 125.8074997  69.8179988
 113.4900012 124.1974997  69.5139988 111.7940012 124.9294997  68.3649988
 110.9340012 125.7184997  68.0959988 112.1330012 123.9594997  67.5029988
 111.6100012 123.8644997  66.1309988 111.2950012 124.8894997  65.8419988
 112.5360012 123.7144997  65.5359988 110.6400012 122.6504997  65.8309988
 111.3250012 121.8504997  66.1859988 110.3460012 122.6374997  64.2929988
 111.3530012 122.6014997  63.8259988 109.9160012 121.6174997  64.1919988
 109.4760012 123.6474997  63.8929988 109.2360012 123.9424997  62.3529988
 107.9790012 124.8634997  62.4659988 107.2480012 124.9434997  63.7099988
 106.2280012 125.3734997  63.6079988 107.0450012 123.9494997  64.1629988
 107.8860012 125.8734997  64.7639988 107.1690012 125.8744997  65.5709988
 108.7860012 125.4104997  65.1409988 108.2100012 127.3654997  64.4499988
 109.0380012 127.8294997  65.6319988 108.4210012 127.9954997  66.5029988
 109.8470012 127.1664997  65.8979988 109.5100012 128.7864997  65.4649988
 108.9760012 127.3764997  63.1579988 109.3260012 128.3964997  63.0969988
 109.7000012 126.5744997  63.1459988 108.2630012 127.2134997  62.3629988
 106.9980012 128.2264997  64.2709988 106.3980012 128.1634997  65.1669988
 106.4130012 127.9444997  63.4079988 107.3210012 129.2454997  64.1169988
 110.3740012 124.7124997  61.8589988 108.9070012 122.7154997  61.6259988
 109.4970012 122.8754997  66.6609988 108.8400012 121.7774997  66.9649988
 109.1190012 120.6414997  66.6509988 107.7590012 122.1694997  67.8659988
 108.0350012 122.7254997  68.7879988 107.2510012 121.2314997  68.1769988
 106.6580012 122.8984997  67.0319988 106.3470012 122.2544997  66.1819988
 106.9690012 123.9094997  66.6949988 105.2630012 123.0614997  67.7759988
 104.8440012 122.0384997  67.8839988 104.5270012 123.5374997  67.0929988
 105.3270012 123.8064997  69.1159988 105.7850012 123.1354997  69.8739988
 104.2400012 123.7904997  69.3439988 106.1530012 125.1834997  69.1779988
 106.0900012 125.6234997  68.1589988 107.2550012 125.0554997  69.1309988
 105.6820012 126.2284997  70.2079988 104.8050012 126.6954997  69.7099988
 106.3770012 127.0834997  70.3529988 105.1670012 125.7024997  71.6279988
 104.2620012 125.0614997  71.5589988 104.9100012 126.6334997  72.1769988
 106.2840012 125.0054997  72.2669988 106.4290012 123.9604997  71.9549988
 107.1100012 125.4904997  73.2559988 107.9170012 124.7974997  73.5389988
 107.1010012 126.7774997  74.0039988 106.4450012 127.5434997  73.5369988
 108.1200012 127.2184997  74.0479988 106.4430012 126.6084997  75.3499988
 106.8520012 125.7594997  75.9369988 105.3550012 126.4154997  75.2319988
 106.5170012 127.9764997  76.1709988 106.3500012 128.7734997  75.4159988
 107.5540012 128.0654997  76.5609988 105.5370012 128.0054997  77.3689988
 104.5360012 127.8514997  76.9129988 105.4980012 129.0704997  77.6839988
 105.8580012 127.0664997  78.5669988 106.9620012 127.1234997  78.6799988
 105.6270012 126.1064997  78.0579988 105.0250012 127.3234997  79.7819988
 103.9380012 127.3224997  79.5549988 105.2210012 128.2804997  80.3109988
 105.3810012 126.2534997  80.9069988 105.2830012 125.2514997  80.4359988
 104.7420012 126.3474997  81.8109988 106.8320012 126.3524997  81.3989988
 106.8830012 125.6574997  82.2649988 106.9830012 127.3904997  81.7639988
 107.5470012 126.1964997  80.5639988  48.7250012 124.3134997  78.7329988
  47.7120012 124.1174997  79.1439988  49.3040012 125.0154997  79.3709988
  49.3180012 123.3984997  78.5169988  48.4340012 124.9984997  77.3709988
  49.3060012 124.9514997  76.6829988  47.7330012 124.3464997  76.8069988
  47.7700012 126.3714997  77.4069988  47.7140012 126.6594997  76.3349988
  46.7960012 126.3654997  77.9409988  48.6000012 127.4714997  78.1179988
  48.7250012 127.2104997  79.1899988  49.6070012 127.3434997  77.6679988
  48.1120012 128.9214997  77.8969988  47.0020012 128.8894997  77.8539988
  48.4910012 129.3714997  78.8389988  48.4900012 129.5164997  76.6109988
  49.5970012 129.4934997  76.5159988  48.0910012 128.9774997  75.7249988
  47.9880012 130.9994997  76.3069988  46.8820012 130.9114997  76.3419988
  48.3300012 131.5794997  77.1909988  48.6550012 131.5874997  75.0229988
  49.7360012 131.6464997  75.2719988  48.3120012 130.8404997  74.2749988
  47.8170012 132.8174997  74.5809988  46.7690012 132.4484997  74.6159988
  47.7570012 133.6274997  75.3399988  48.3680012 133.4964997  73.3229988
  48.0560012 134.5574997  73.2169988  49.4690012 133.6424997  73.3149988
  47.9720012 132.7074997  72.0639988  48.5730012 131.7734997  72.0419988
  46.9220012 132.3584997  72.1609988  48.0310012 133.4984997  70.7989988
  47.3810012 134.3994997  70.8189988  49.0920012 133.8124997  70.6899988
  47.5510012 132.8004997  69.6279988  48.1170012 131.9374997  69.2159988
  46.5090012 132.4344997  69.7519988  47.3630012 133.5654997  68.2969988
  46.4510012 134.0944997  68.6489988  48.2470012 134.2344997  68.2239988
  47.1320012 132.8084997  66.9639988  46.1620012 132.2684997  66.9059988
  47.0690012 133.5174997  66.1119988  48.2750012 131.8754997  66.7029988
  49.3640012 132.2614997  66.2069988  47.9590012 130.6404997  67.1359988
  48.9950012 129.6614997  66.9299988  49.1660012 129.4314997  65.8559988
  49.9780012 129.9004997  67.3909988  48.5490012 128.2314997  67.3649988
  49.3410012 127.4624997  67.2439988  47.4260012 127.6624997  66.4479988
  47.9140012 127.4754997  65.4679988  46.9830012 126.7164997  66.8259988
  46.3210012 128.5664997  66.3459988  45.6990012 128.8804997  64.9229988
  46.8940012 129.5544997  64.2409988  46.8090012 130.3044997  63.0669988
  45.8490012 130.1424997  62.5309988  46.7720012 131.3774997  63.3529988
  47.9010012 130.1934997  61.9169988  48.0340012 129.1694997  61.5999988
  47.5210012 130.7454997  61.0699988  49.2680012 130.7204997  62.0559988
  49.9190012 130.7514997  60.6839988  50.8060012 131.3624997  60.5979988
  50.2790012 129.7404997  60.5619988  49.1450012 131.0434997  59.9899988
  49.1990012 132.0534997  62.6079988  50.1690012 132.4854997  62.8079988
  48.5550012 132.6004997  61.9369988  48.7080012 131.9344997  63.5629988
  50.0270012 129.9084997  63.0059988  49.4930012 129.8564997  63.9429988
  51.0400012 130.2464997  63.1659988  50.1160012 128.8724997  62.7149988
  45.3460012 127.6154997  64.2759988  44.6210012 129.8994997  65.0559988
  48.0950012 128.3514997  68.7339988  49.0630012 128.4334997  69.6599988
  50.2320012 128.4894997  69.4329988  48.4550012 128.3684997  71.0629988
  47.3550012 128.5124997  70.9899988  49.0090012 129.1914997  71.5619988
  48.9120012 127.0594997  71.7329988  50.0180012 126.9874997  71.8029988
  48.5360012 126.2174997  71.1129988  48.3960012 126.9504997  73.1079988
  48.5760012 127.8424997  73.7449988  49.0290012 126.1484997  73.5439988
  46.9740012 126.5224997  73.3159988  46.9530012 125.7624997  74.1259988
  46.4410012 126.0744997  72.4509988  45.9460012 127.6914997  73.6579988
  45.9950012 128.2534997  72.7009988  46.4190012 128.3094997  74.4509988
  44.5220012 127.2564997  74.0449988  44.6570012 126.6524997  74.9679988
  44.1220012 126.5164997  73.3189988  43.4310012 128.3324997  74.3949988
  42.6500012 127.7784997  74.9579988  43.0190012 128.5634997  73.3889988
  43.9920012 129.5504997  74.9449988  44.7200012 130.0194997  74.2659988
  43.7140012 130.1874997  76.1359988  44.0630012 131.2304997  76.1659988
  42.6920012 129.7984997  77.1709988  42.0170012 128.9744997  76.8559988
  41.9550012 130.5594997  77.5039988  43.3760012 129.2624997  78.4629988
  44.1050012 128.4364997  78.3249988  42.5600012 128.9194997  79.1339988
  44.2220012 130.3194997  79.1669988  43.6020012 131.2344997  79.2759988
  44.9860012 130.6394997  78.4269988  44.8860012 129.9444997  80.5489988
  45.8090012 130.5364997  80.7289988  45.3420012 128.9334997  80.4749988
  44.0160012 130.0804997  81.7089988  43.1970012 129.3364997  81.6109988
  43.6360012 131.1114997  81.8709988  44.6160012 129.7264997  83.1169988
  44.8960012 128.6514997  83.1669988  43.7400012 129.9224997  83.7709988
  45.7430012 130.6814997  83.5569988  45.3170012 131.7074997  83.5619988
  46.5590012 130.5694997  82.8119988  46.2950012 130.5234997  85.0009988
  46.7180012 129.5034997  85.1259988  45.5270012 130.6334997  85.7969988
  47.2070012 131.1424997  85.1369988  94.9990012 133.6824997  81.8099988
  95.7360012 132.9274997  82.1589988  94.1130012 133.5584997  82.4679988
  95.3570012 134.7134997  82.0189988  94.5420012 133.4774997  80.3619988
  95.3820012 133.8034997  79.7129988  94.3940012 132.3884997  80.2019988
  93.3860012 134.3614997  79.8739988  92.5830012 134.1834997  80.6199988
  93.6350012 135.4304997  80.0469988  92.8050012 134.1834997  78.4279988
  92.6270012 133.1044997  78.2319988  91.8610012 134.7284997  78.2149988
  93.7870012 134.6404997  77.3069988  94.2210012 135.6524997  77.4539988
  94.6270012 133.9134997  77.2909988  93.1080012 134.6994997  75.9029988
  92.4550012 135.5934997  75.8149988  93.9070012 134.9544997  75.1739988
  92.3670012 133.4174997  75.4729988  93.0860012 132.5714997  75.4389988
  91.6150012 133.0644997  76.2119988  91.7770012 133.5774997  74.0979988
  91.4130012 134.6124997  73.9269988  92.5390012 133.3824997  73.3119988
  90.6610012 132.5554997  73.7269988  89.9120012 132.4544997  74.5419988
  90.1150012 133.0494997  72.8949988  91.2240012 131.1014997  73.5529988
  92.2940012 131.1974997  73.2709988  91.2720012 130.5284997  74.5039988
  90.2880012 130.2884997  72.6539988  89.3260012 130.2784997  73.2109988
  90.1700012 130.7824997  71.6659988  90.7640012 128.8744997  72.3219988
  90.8760012 128.1884997  73.1889988  89.9340012 128.3994997  71.7569988
  92.0210012 128.8004997  71.4269988  91.7410012 129.3634997  70.5109988
  92.9040012 129.3224997  71.8539988  92.4900012 127.4404997  70.8239988
  92.6490012 126.7954997  71.7139988  91.6810012 126.9734997  70.2219988
  93.7270012 127.5344997  69.9579988  94.6690012 127.9644997  70.3599988
  94.0820012 126.5634997  69.5509988  93.4640012 128.4444997  68.7419988
  93.7150012 129.6444997  68.7909988  92.8530012 127.8084997  67.7229988
  92.7560012 128.3634997  66.4229988  93.5800012 129.0684997  66.1829988
  92.6740012 127.5294997  65.6929988  91.5010012 129.2774997  66.2349988
  90.6290012 128.6644997  66.5469988  91.2540012 129.7504997  64.7589988
  91.4920012 128.8424997  64.1649988  90.2080012 130.1224997  64.7319988
  92.1510012 130.8344997  64.4979988  92.7150012 130.8474997  62.9709988
  92.3820012 132.2964997  62.4289988  93.4700012 133.2874997  62.2169988
  94.4800012 133.0184997  62.5939988  93.5200012 133.3884997  61.1109988
  93.1460012 134.6654997  62.7539988  94.0420012 135.2574997  62.6399988
  92.4050012 135.2044997  62.1809988  92.6960012 134.7704997  64.1699988
  93.5600012 133.9234997  65.0569988  93.1930012 134.2434997  66.0209988
  93.3760012 132.8984997  64.7699988  94.5900012 134.1694997  64.8479988
  92.8690012 136.2034997  64.6969988  92.2620012 136.9064997  64.1439988
  92.6070012 136.2974997  65.7409988  93.8610012 136.6144997  64.5809988
  91.2950012 134.3434997  64.3389988  90.6700012 134.8734997  63.6359988
  90.9800012 134.4944997  65.3609988  91.1700012 133.3014997  64.0849988
  94.2110012 130.7304997  62.9639988  92.0350012 129.8674997  62.0829988
  91.6620012 130.4184997  67.0809988  90.5850012 130.9184997  67.6169988
  89.4220012 130.7134997  67.3299988  90.9380012 131.9484997  68.6989988
  91.1810012 131.5054997  69.6879988  89.9900012 132.5194997  68.7919988
  92.1100012 132.8744997  68.2339988  91.7060012 133.3754997  67.3279988
  93.0140012 132.3364997  67.8749988  92.5810012 133.9304997  69.2619988
  91.6360012 134.3544997  69.6659988  93.2070012 134.7574997  68.8639988
  93.3930012 133.3024997  70.3909988  92.9470012 132.4374997  70.9259988
  93.4680012 134.0924997  71.1679988  94.8110012 132.7964997  70.0749988
  95.3720012 133.6434997  69.6259988  94.6350012 131.9724997  69.3509988
  95.6490012 132.3454997  71.3219988  95.7510012 133.1674997  72.0609988
  96.6940012 132.2504997  70.9579988  95.0730012 131.1244997  71.9829988
  94.8020012 130.4254997  71.1629988  94.1040012 131.3274997  72.4869988
  96.0590012 130.3054997  72.7639988  96.8860012 129.8804997  72.1749988
  96.0520012 130.0314997  74.0329988  96.8690012 129.3954997  74.4039988
  95.0170012 130.4354997  75.0249988  94.1690012 130.9944997  74.5749988
  95.5020012 131.2224997  75.6419988  94.5680012 129.3244997  75.9179988
  95.4520012 128.9694997  76.4899988  94.1090012 128.4534997  75.4029988
  93.6420012 129.8654997  77.0319988  92.6350012 130.1004997  76.6249988
  94.1840012 130.7374997  77.4569988  93.3500012 128.9154997  78.1919988
  94.2030012 128.5854997  78.8219988  92.9740012 127.9584997  77.7719988
  92.4260012 129.6794997  79.2119988  91.5990012 130.0324997  78.5589988
  93.0560012 130.4534997  79.6999988  91.7410012 128.8054997  80.2489988
  92.5560012 128.5394997  80.9559988  91.3390012 127.9384997  79.6829988
  90.5410012 129.4084997  80.9499988  90.3820012 128.6944997  81.7869988
  89.6770012 129.5854997  80.2729988  90.8240012 130.7574997  81.6129988
  91.5350012 130.7024997  82.4649988  89.9300012 131.3654997  81.8709988
  91.3700012 131.3774997  80.8689988 139.8800012  76.3894997  82.4419988
 140.7180012  76.7854997  83.0549988 139.5730012  75.3954997  82.8319988
 139.1440012  77.2034997  82.6179988 140.3000012  76.2254997  81.0089988
 140.7830012  77.1214997  80.5619988 141.0440012  75.4004997  81.0179988
 139.0680012  75.7214997  80.2049988 139.3990012  75.0554997  79.3799988
 138.4640012  75.0724997  80.8749988 138.1180012  76.8454997  79.7099988
 137.8870012  77.5894997  80.5009988 138.7320012  77.4714997  79.0269988
 136.7340012  76.4674997  79.1339988 136.1730012  75.8714997  79.8849988
 136.2240012  77.4534997  79.0979988 136.6680012  75.6194997  77.9059988
 137.1140012  74.6124997  78.0539988 135.5820012  75.4224997  77.7769988
 137.3700012  76.2074997  76.7309988 136.7510012  77.1304997  76.7249988
 138.4010012  76.5844997  76.9039988 137.1900012  75.4624997  75.4199988
 137.5000012  74.3954997  75.4329988 136.1600012  75.5494997  75.0109988
 137.9270012  76.1564997  74.3089988 137.5600012  77.2044997  74.3579988
 139.0020012  76.1244997  74.5879988 137.6380012  75.4874997  72.9599988
 138.0710012  74.4664997  72.8959988 136.5550012  75.5934997  72.7349988
 138.4720012  76.2784997  71.8729988 138.1190012  77.3254997  71.9849988
 139.5530012  76.1834997  72.1109988 138.0250012  75.9494997  70.4779988
 138.0290012  74.8474997  70.3379988 137.0010012  76.3494997  70.3159988
 138.9030012  76.5164997  69.3229988 138.3650012  76.2794997  68.3799988
 138.8690012  77.6254997  69.2499988 140.4050012  76.0474997  69.4109988
 140.9670012  76.5334997  70.2369988 140.2790012  74.9884997  69.7219988
 141.1300012  76.1254997  68.0359988 141.3200012  77.1834997  67.7549988
 142.1680012  75.7724997  68.2199988 140.4960012  75.2444997  66.9689988
 140.0780012  74.1334997  67.1639988 140.7480012  75.8834997  65.8039988
 140.5180012  75.0704997  64.6019988 141.1990012  75.3424997  63.7669988
 140.6590012  73.9784997  64.7499988 139.0580012  75.1794997  63.9719988
 139.0550012  74.7374997  62.9529988 138.5300012  76.6494997  63.8269988
 139.4190012  77.2424997  63.5209988 137.7100012  76.6864997  63.0789988
 138.0670012  77.1004997  65.1309988 137.9510012  78.6094997  65.2409988
 136.9280012  78.9704997  64.0709988 135.5510012  78.9024997  64.1549988
 135.1610012  78.4554997  65.0939988 135.1130012  79.9184997  64.0589988
 134.8810012  77.9624997  63.0409988 135.3250012  76.9824997  63.1369988
 133.8220012  77.9814997  63.2509988 135.0700012  78.3684997  61.6029988
 136.4790012  78.5664997  61.1869988 136.5590012  78.8784997  60.1559988
 136.8560012  79.2754997  61.9099988 137.0350012  77.6464997  61.2849988
 134.4380012  77.2714997  60.7689988 133.4240012  77.1674997  61.1259988
 134.5040012  77.3954997  59.6979988 134.8800012  76.3064997  60.9689988
 134.3190012  79.6364997  61.3769988 134.9180012  80.2804997  62.0029988
 133.2850012  79.6394997  61.6889988 134.3700012  79.8184997  60.3129988
 137.3910012  78.8054997  66.6299988 139.2920012  79.1934997  64.9759988
 138.3060012  74.4114997  64.8099988 137.1420012  73.9814997  64.3189988
 136.8070012  74.0774997  63.1599988 136.4270012  73.3164997  65.4439988
 137.0580012  72.6644997  66.0859988 135.6860012  72.5974997  65.0339988
 135.7790012  74.3224997  66.4009988 136.4800012  75.0204997  66.9069988
 135.2830012  73.7414997  67.2079988 134.8130012  75.2174997  65.6199988
 134.1740012  74.6514997  64.9079988 135.3960012  75.8144997  64.8859988
 134.1090012  76.2024997  66.5699988 133.6140012  76.9034997  65.8639988
 134.8940012  76.8104997  67.0669988 133.1620012  75.5924997  67.5359988
 133.6310012  74.8574997  68.2239988 132.3020012  75.0524997  67.0849988
 132.7120012  76.6594997  68.5539988 131.7270012  76.3594997  68.9709988
 132.5690012  77.5684997  67.9309988 133.6590012  77.0654997  69.7169988
 133.1030012  77.9164997  70.1639988 134.6430012  77.4524997  69.3769988
 133.7750012  75.9784997  70.7389988 134.1240012  75.0624997  70.2389988
 133.4710012  76.1804997  72.0179988 133.7060012  75.3484997  72.6979988
 133.0390012  77.3684997  72.7689988 132.1970012  77.1694997  73.4659988
 132.5990012  78.1754997  72.1449988 134.1750012  77.8154997  73.6679988
 134.9860012  78.2404997  73.0379988 134.5490012  77.0274997  74.3569988
 133.7060012  78.8944997  74.6309988 132.7420012  78.6274997  75.1149988
 133.6220012  79.9054997  74.1769988 134.7610012  79.2094997  75.7519988
 135.6850012  79.4694997  75.1929988 134.8490012  78.3194997  76.4119988
 134.1680012  80.3504997  76.6009988 133.1270012  80.0914997  76.8909988
 134.1240012  81.2914997  76.0119988 135.0200012  80.5344997  77.8889988
 135.4820012  81.5324997  78.0499988 135.8070012  79.7514997  77.8729988
 134.3290012  80.1414997  79.2249988 134.0780012  79.0594997  79.2439988
 133.3960012  80.7154997  79.4139988 135.3140012  80.3424997  80.3259988
 134.9020012  80.1154997  81.3329988 135.7140012  81.3764997  80.2569988
 136.1040012  79.5824997  80.1459988 138.3500012  66.4864997  80.9109988
 138.7570012  67.0824997  81.7549988 139.2830012  65.9864997  80.5739988
 137.5240012  65.8824997  81.3419988 137.7910012  67.3154997  79.7379988
 136.7870012  67.7284997  79.9729988 138.3330012  68.2374997  79.4369988
 137.8190012  66.4944997  78.4899988 138.8990012  66.2734997  78.3499988
 137.3220012  65.5904997  78.9029988 137.0920012  67.0514997  77.2319988
 137.2030012  66.3744997  76.3589988 135.9920012  67.1784997  77.3229988
 137.7370012  68.4074997  76.7209988 137.6800012  69.1344997  77.5589988
 138.8230012  68.3244997  76.5009988 136.9790012  69.1604997  75.5849988
 137.6100012  70.0184997  75.2699988 136.9490012  68.4444997  74.7359988
 135.5540012  69.6344997  75.9269988 135.0400012  68.7444997  76.3489988
 135.4400012  70.4554997  76.6659988 134.6840012  70.1994997  74.7739988
 134.2010012  69.3124997  74.3119988 133.8040012  70.7774997  75.1279988
 135.2710012  71.0654997  73.6909988 136.1240012  70.5784997  73.1719988
 134.5910012  71.1844997  72.8199988 135.4850012  72.6244997  74.0429988
 134.5390012  73.0644997  74.4239988 136.2120012  72.7824997  74.8669988
 136.0900012  73.4094997  72.8149988 135.3990012  73.2974997  71.9519988
 136.1140012  74.5194997  72.8749988 137.4270012  72.9914997  72.2049988
 138.2370012  73.4244997  72.8289988 137.6230012  71.9204997  72.4249988
 137.4610012  73.3614997  70.7549988 136.6280012  72.8334997  70.2449988
 137.2470012  74.4494997  70.8339988 138.8570012  73.0144997  70.1189988
 139.6410012  73.3634997  70.8249988 139.0530012  71.9234997  70.0429988
 139.2160012  73.7894997  68.8279988 138.4360012  73.6214997  68.0549988
 139.2370012  74.8924997  68.9589988 140.6230012  73.4174997  68.3099988
 141.6330012  73.5484997  68.9839988 140.5420012  72.9064997  67.1829988
 141.6220012  72.3464997  66.5349988 141.7390012  73.0104997  65.6519988
 142.5860012  72.4304997  67.0809988 141.4060012  70.7804997  66.1469988
 142.3930012  70.4494997  65.7579988 140.3640012  70.5694997  65.0079988
 140.7340012  71.3024997  64.2599988 140.4910012  69.6934997  64.3379988
 139.0590012  70.8414997  65.5049988 137.8800012  71.4104997  64.6809988
 137.7150012  70.2154997  63.5679988 137.4140012  68.9364997  64.0489988
 138.3510012  68.5304997  64.4859988 136.5630012  68.9394997  64.7629988
 137.2160012  68.0294997  62.8719988 138.0000012  68.1484997  62.1389988
 137.2960012  66.9934997  63.1659988 135.8710012  68.0534997  62.1739988
 135.5590012  69.4294997  61.4829988 134.5540012  69.4274997  61.0869988
 135.5670012  70.2204997  62.2189988 136.2670012  69.5814997  60.6819988
 135.9790012  66.9434997  61.1229988 135.1500012  66.8554997  60.4369988
 137.0050012  67.0544997  60.8059988 135.8150012  66.0534997  61.7129988
 134.7980012  67.7404997  63.1849988 133.8620012  67.5564997  62.6789988
 134.6980012  68.5974997  63.8349988 135.1740012  66.8234997  63.6139988
 136.7200012  71.5684997  65.6179988 138.3500012  72.5704997  63.9219988
 140.9650012  70.0504997  67.3989988 141.0730012  68.7484997  67.3359988
 141.4780012  68.1014997  66.4079988 140.7330012  68.2044997  68.7079988
 140.7510012  69.0634997  69.4119988 141.4180012  67.4144997  69.0849988
 139.2710012  67.7844997  68.6519988 139.1200012  66.8684997  68.0419988
 138.5760012  68.4924997  68.1499988 138.6450012  67.4854997  70.0419988
 139.2940012  66.6924997  70.4729988 137.5900012  67.2424997  69.7929988
 138.6790012  68.7034997  71.0159988 137.6950012  69.2204997  71.0269988
 139.4090012  69.4684997  70.6749988 138.9160012  68.4314997  72.5109988
 138.3090012  67.5164997  72.6799988 138.4500012  69.2494997  73.1009988
 140.4070012  68.2554997  73.0489988 140.8270012  67.3874997  72.4969988
 140.3800012  67.8624997  74.0879988 141.2860012  69.5104997  72.9219988
 140.6120012  70.3704997  72.7229988 141.9480012  69.4244997  72.0339988
 142.0450012  69.8094997  74.2019988 142.8670012  69.1004997  74.3769988
 141.6310012  70.5984997  75.2149988 142.1130012  70.4864997  76.1969988
 140.3320012  71.4214997  75.3229988 139.6170012  70.9354997  76.0209988
 139.7920012  71.6074997  74.3699988 140.6320012  72.8394997  75.8159988
 141.2950012  73.3484997  75.0839988 141.0950012  72.7444997  76.8209988
 139.3690012  73.6954997  76.0049988 138.6870012  73.4854997  75.1539988
 139.5080012  74.7964997  76.0599988 138.5840012  73.3104997  77.3649988
 139.3740012  73.2014997  78.1389988 138.2510012  72.2554997  77.2569988
 137.4660012  74.1904997  77.8599988 137.0080012  74.6694997  76.9679988
 137.9090012  74.9194997  78.5719988 136.3270012  73.5554997  78.6459988
 135.8900012  72.7154997  78.0649988 135.5430012  74.2974997  78.9119988
 136.7070012  73.0654997  80.0509988 137.4520012  72.2524997  79.9179988
 135.7900012  72.6154997  80.4879988 137.3310012  74.0414997  81.0389988
 137.3890012  73.5584997  82.0379988 136.8390012  75.0334997  81.1309988
 138.4120012  74.1734997  80.8179988 139.6260012  64.4944997  80.9059988
 139.8200012  65.2394997  81.7069988 139.5710012  64.9484997  79.8929988
 140.5950012  63.9524997  80.8699988 138.3490012  63.5104997  80.9889988
 138.2230012  63.0904997  82.0099988 137.4090012  64.0964997  80.9109988
 138.3940012  62.4684997  79.9139988 139.3190012  61.8704997  80.0599988
 137.6330012  61.6604997  79.9509988 138.3370012  63.0924997  78.4459988
 137.8710012  64.1004997  78.3999988 139.4320012  63.2044997  78.2909988
 137.5800012  62.2784997  77.3959988 137.7070012  62.7604997  76.4029988
 138.2190012  61.4124997  77.1169988 136.0310012  62.1254997  77.6779988
 135.9110012  61.7614997  78.7209988 135.5480012  63.1244997  77.6099988
 135.2730012  61.2064997  76.7499988 135.5190012  60.1324997  76.8959988
 134.2010012  61.3564997  76.9969988 135.3570012  61.5394997  75.2439988
 134.8660012  62.5264997  75.1029988 136.4190012  61.5174997  74.9189988
 134.4810012  60.5654997  74.4899988 135.0400012  59.6364997  74.2479988
 133.4730012  60.3864997  74.9199988 133.9780012  61.1364997  73.1679988
 133.3700012  62.0354997  73.4059988 134.8600012  61.5504997  72.6329988
 133.1500012  60.1794997  72.3199988 132.1970012  60.1474997  72.8909988
 132.8480012  60.6114997  71.3419988 133.8130012  58.7814997  72.0509988
 134.7360012  59.0584997  71.4979988 134.0280012  58.2794997  73.0179988
 132.8260012  57.8444997  71.1739988 131.9340012  57.8034997  71.8349988
 132.5810012  58.3574997  70.2199988 133.4930012  56.4704997  70.8799988
 133.6850012  56.0384997  71.8849988 132.7620012  55.8294997  70.3419988
 134.7570012  56.6054997  70.1119988 135.5640012  57.2174997  70.5679988
 135.2300012  55.6014997  70.0479988 134.5000012  57.0204997  68.6069988
 133.3840012  56.9104997  68.1009988 135.5890012  57.5804997  67.9309988
 135.4620012  57.6564997  66.5099988 136.4310012  57.4604997  66.0039988
 134.7390012  56.9214997  66.0949988 135.0060012  59.0804997  66.0339988
 133.9380012  59.3094997  66.2359988 135.1810012  59.1184997  64.4339988
 136.0480012  58.4504997  64.2439988 134.2130012  58.7064997  64.0769988
 135.3920012  60.4724997  63.9759988 135.7650012  60.6934997  62.4759988
 137.1610012  61.4224997  62.4079988 137.5680012  62.2214997  63.5049988
 138.2860012  62.9844997  63.1379988 136.6630012  62.7484997  63.8779988
 138.1100012  61.4154997  64.7179988 138.4160012  62.0634997  65.5269988
 137.2540012  60.8764997  65.0969988 139.2750012  60.4704997  64.4039988
 140.4430012  61.0794997  63.6959988 139.9870012  61.5604997  62.8429988
 141.1190012  61.6784997  64.2879988 141.0440012  60.2594997  63.3299988
 139.8000012  59.8964997  65.7649988 138.9520012  59.5504997  66.3379988
 140.5250012  59.1614997  65.4469988 140.2750012  60.6904997  66.3209988
 138.7970012  59.2984997  63.5239988 137.8180012  59.0224997  63.8889988
 139.4300012  58.4354997  63.6669988 138.7720012  59.5944997  62.4859988
 135.9770012  59.3754997  61.8429988 134.7560012  61.6734997  61.8659988
 135.8480012  60.1454997  66.5769988 135.4880012  60.7804997  67.6269988
 134.4160012  60.6344997  68.1899988 136.5750012  61.7954997  67.9939988
 136.4030012  62.7784997  67.5049988 137.6110012  61.4984997  67.7239988
 136.5180012  62.0834997  69.5059988 136.4930012  61.0974997  70.0169988
 135.6050012  62.6954997  69.6649988 137.8010012  62.9454997  69.8479988
 137.6810012  63.8874997  69.2719988 138.5750012  62.3664997  69.2999988
 138.2040012  63.1394997  71.3269988 137.4190012  63.7484997  71.8249988
 139.0590012  63.8414997  71.2249988 138.5390012  61.9724997  72.1089988
 137.9250012  61.0634997  71.9339988 138.4750012  62.2464997  73.1839988
 140.1060012  61.6864997  72.0449988 140.5180012  62.6484997  72.4169988
 140.5190012  61.5424997  71.0239988 140.6460012  60.5284997  72.9549988
 140.3070012  60.7284997  73.9939988 141.7550012  60.5724997  72.9039988
 140.1920012  59.2024997  72.4239988 140.2160012  59.1304997  71.3269988
 139.4590012  58.2054997  72.9849988 139.2080012  57.3414997  72.3519988
 138.8680012  58.2564997  74.3429988 137.8060012  57.9584997  74.2089988
 138.8450012  59.3364997  74.6019988 139.7010012  57.3954997  75.3649988
 140.7790012  57.6464997  75.2719988 139.5540012  56.3084997  75.1869988
 139.3430012  57.5384997  76.8649988 139.6750012  58.5584997  77.1569988
 139.9700012  56.7934997  77.3999988 137.8030012  57.3964997  77.1449988
 137.4830012  56.5504997  76.4989988 137.4230012  58.4224997  76.9549988
 137.3340012  57.1064997  78.5169988 137.8870012  57.7944997  79.1909988
 137.7360012  56.0874997  78.6999988 135.8150012  57.2384997  78.8199988
 135.3470012  56.5694997  78.0669988 135.4560012  58.2754997  78.6429988
 135.3620012  56.9844997  80.3029988 134.2560012  57.0894997  80.3359988
 135.9020012  57.7894997  80.8459988 135.8230012  55.6674997  80.9329988
 135.2980012  54.7594997  80.5659988 135.5420012  55.5694997  82.0039988
 136.9250012  55.5354997  80.8829988 134.1590012  89.0254997  84.3549988
 133.8300012  89.9514997  83.8359988 135.1050012  88.7104997  83.8629988
 134.4280012  89.3674997  85.3769988 133.0570012  87.9504997  84.1829988
 133.1840012  87.1944997  84.9869988 132.1780012  88.5894997  84.4139988
 132.9430012  87.1424997  82.8429988 132.2050012  86.3394997  83.0549988
 132.3840012  87.7774997  82.1239988 134.2810012  86.5124997  82.4629988
 135.0440012  87.2914997  82.2479988 134.5650012  85.8984997  83.3439988
 134.1640012  85.5034997  81.2619988 135.0210012  84.7974997  81.2129988
 133.1860012  84.9994997  81.4189988 134.0890012  86.2404997  79.8989988
 133.3750012  87.0874997  79.9819988 135.1340012  86.6024997  79.7869988
 133.6250012  85.2944997  78.7669988 132.8600012  84.6054997  79.1829988
 133.1000012  85.8664997  77.9719988 134.9230012  84.5854997  78.2649988
 135.6350012  85.4224997  78.1039988 135.3360012  83.9114997  79.0449988
 134.8610012  83.6554997  77.0399988 135.8840012  83.2284997  76.9629988
 134.1120012  82.8434997  77.1539988 134.4990012  84.3874997  75.8179988
 133.4070012  84.5604997  75.9229988 134.9440012  85.4054997  75.8409988
 134.6830012  83.6484997  74.5139988 135.7260012  83.7144997  74.1379988
 134.2280012  82.6394997  74.6089988 133.8470012  84.5804997  73.5739988
 132.7710012  84.5664997  73.8509988 134.1360012  85.6374997  73.7529988
 133.8640012  84.1444997  72.0919988 133.8320012  83.0414997  71.9639988
 132.9950012  84.6474997  71.6159988 135.0160012  84.7224997  71.2139988
 134.7060012  84.7654997  70.1479988 135.1570012  85.7684997  71.5609988
 136.2560012  83.7974997  71.2579988 136.5300012  83.6924997  72.3289988
 135.9530012  82.8084997  70.8539988 137.3090012  84.3384997  70.3889988
 138.4780012  84.4744997  70.7189988 136.7890012  84.4284997  69.1819988
 137.5880012  84.7224997  68.0429988 138.6590012  84.7964997  68.3279988
 137.4870012  84.0104997  67.1959988 137.1520012  86.1014997  67.4599988
 136.1260012  86.0394997  67.0379988 138.0350012  86.6294997  66.2389988
 139.0660012  86.7154997  66.6419988 137.9970012  85.8714997  65.4279988
 137.6360012  87.9454997  65.7689988 136.8100012  88.2374997  64.4359988
 135.9250012  86.9014997  64.3289988 134.5820012  86.8774997  64.6689988
 134.2180012  85.9114997  65.0819988 134.3940012  87.5104997  65.5629988
 133.6650012  87.5474997  63.5859988 132.6550012  87.4014997  63.9409988
 133.9930012  88.5764997  63.5499988 133.7200012  86.8714997  62.2219988
 132.3830012  87.1484997  61.5579988 132.3820012  86.6634997  60.5929988
 131.6420012  86.6114997  62.1309988 132.1920012  88.2074997  61.6509988
 134.8740012  87.4294997  61.4429988 134.6890012  88.4614997  61.1839988
 135.8580012  87.3414997  61.8789988 134.9370012  86.9464997  60.4779988
 133.9810012  85.3714997  62.3099988 133.1050012  84.9234997  62.7549988
 134.9570012  85.3904997  62.7719988 134.0830012  84.9294997  61.3299988
 135.9050012  89.3494997  64.5519988 137.6970012  88.2074997  63.3069988
 137.2200012  86.9914997  68.5869988 136.3640012  87.9674997  68.5939988
 135.3930012  88.0394997  67.8819988 136.8560012  89.0254997  69.5469988
 137.6760012  89.6164997  69.0859988 137.2030012  88.5734997  70.4999988
 135.8040012  90.0864997  69.7379988 135.5490012  90.3514997  68.6899988
 136.2580012  90.9714997  70.2319988 134.6190012  89.5834997  70.5589988
 134.2580012  88.5774997  70.2559988 133.7850012  90.3164997  70.5239988
 135.0700012  89.4524997  72.0819988 135.5410012  90.4074997  72.3999988
 135.9150012  88.7424997  72.2109988 133.9760012  88.8234997  72.9159988
 133.7990012  87.7274997  72.8829988 132.9770012  89.1754997  72.5799988
 134.0050012  89.3864997  74.3509988 133.1040012  89.0664997  74.9159988
 133.8170012  90.4804997  74.2889988 135.4200012  89.3404997  74.9219988
 135.2190012  89.6224997  75.9779988 136.1200012  90.1364997  74.5899988
 136.2080012  88.0174997  74.8519988 136.0120012  87.4004997  73.9619988
 136.9210012  87.3614997  75.7579988 137.4050012  86.4354997  75.4149988
 137.1650012  87.8974997  77.1509988 137.2900012  87.1124997  77.9269988
 136.2660012  88.5284997  77.3219988 138.5520012  88.5444997  77.3099988
 138.4010012  89.5934997  76.9769988 139.2350012  88.1024997  76.5529988
 139.1710012  88.3714997  78.6469988 140.2660012  88.5574997  78.6339988
 139.0840012  87.2724997  78.7869988 138.5800012  88.9844997  79.9269988
 137.4960012  88.8174997  80.1009988 138.6870012  90.0664997  79.6979988
 139.2550012  88.5974997  81.3129988 140.3400012  88.4754997  81.1099988
 139.0900012  87.5514997  81.6489988 139.0980012  89.7704997  82.3789988
 138.0280012  89.7474997  82.6779988 139.2450012  90.8294997  82.0769988
 140.0250012  89.5814997  83.5979988 141.0610012  89.5474997  83.1959988
 139.8630012  88.5524997  83.9849988 139.9270012  90.5274997  84.7929988
 140.5200012  90.0054997  85.5729988 138.9040012  90.7234997  85.1789988
 140.2800012  91.5494997  84.5379988  16.7200012  35.8394997  82.2039988
  16.2960012  36.2114997  81.2469988  16.6720012  36.6164997  82.9969988
  16.0650012  34.9684997  82.4179988  18.0910012  35.1224997  82.1389988
  18.7990012  35.9094997  81.8039988  18.3400012  34.8944997  83.1969988
  18.1950012  33.8244997  81.2989988  19.1330012  33.2514997  81.4609988
  17.3970012  33.1424997  81.6639988  18.0280012  34.0914997  79.8399988
  16.9640012  34.2914997  79.5909988  18.5910012  35.0004997  79.5389988
  18.6560012  33.0624997  78.8679988  18.7210012  33.5244997  77.8589988
  19.6500012  32.7544997  79.2579988  17.8100012  31.8664997  78.7339988
  17.5620012  31.6004997  79.7839988  16.8630012  32.1574997  78.2319988
  18.3800012  30.5984997  78.1399988  19.1670012  30.2194997  78.8269988
  17.5650012  29.8444997  78.1669988  18.7790012  30.6574997  76.6529988
  19.7240012  31.2314997  76.5479988  19.0650012  29.6394997  76.3119988
  17.7280012  31.1824997  75.5989988  16.7460012  30.6784997  75.7239988
  17.5240012  32.2564997  75.7969988  18.2620012  30.8534997  74.1539988
  18.6950012  29.8394997  74.0179988  17.3280012  30.7234997  73.5669988
  18.9810012  32.0764997  73.5369988  18.1950012  32.8544997  73.6519988
  19.9290012  32.2754997  74.0809988  19.4710012  31.7904997  72.1119988
  20.2820012  31.0324997  72.1579988  18.5340012  31.3864997  71.6719988
  19.8180012  33.0924997  71.2719988  20.6680012  33.6124997  71.7639988
  20.1820012  32.6824997  70.3059988  18.6020012  34.0764997  71.1799988
  17.8910012  33.9264997  72.0199988  18.9030012  35.1454997  71.1479988
  17.7880012  33.7134997  69.9299988  17.5580012  32.6274997  69.9829988
  16.8330012  34.2394997  70.1449988  18.3090012  34.1504997  68.5639988
  17.6600012  34.0484997  67.5499988  19.5890012  34.5654997  68.6689988
  20.3940012  34.5584997  67.4839988  20.0280012  34.7854997  66.4599988
  21.1000012  35.3934997  67.6809988  21.2290012  33.2794997  67.3179988
  21.7110012  32.9514997  68.2639988  22.2500012  33.3154997  66.1949988
  22.7660012  34.2904997  66.0559988  23.0670012  32.5964997  66.4199988
  21.5470012  33.1014997  64.9839988  22.3220012  32.4324997  63.7589988
  21.0110012  32.1574997  62.7609988  19.9560012  31.3844997  63.3969988
  19.6220012  30.6234997  62.6599988  20.3070012  30.7984997  64.2729988
  18.6860012  32.1674997  63.9389988  17.9040012  31.4254997  63.8759988
  18.7870012  32.4324997  64.9809988  18.0750012  33.3654997  63.1669988
  16.9410012  33.9424997  63.9199988  17.3060012  34.4914997  64.7749988
  16.3850012  34.4954997  63.1769988  16.2820012  33.1444997  64.2289988
  19.0950012  34.4514997  62.9159988  19.7440012  34.1724997  62.0989988
  18.5510012  35.3174997  62.5669988  19.7100012  34.6304997  63.7859988
  17.5110012  32.9064997  61.8099988  17.0110012  31.9544997  61.9129988
  18.2650012  32.8924997  61.0369988  16.7510012  33.5764997  61.4339988
  23.2000012  33.4764997  63.2219988  22.8670012  31.1634997  64.3069988
  20.2280012  32.1674997  67.0999988  20.7270012  30.8604997  67.1819988
  21.8890012  30.5284997  67.1149988  19.4670012  29.9994997  67.1649988
  19.1540012  29.7404997  66.1309988  18.5720012  30.4664997  67.6269988
  19.8390012  28.7054997  67.8929988  20.6150012  28.1454997  67.3289988
  18.9080012  28.1334997  67.6979988  20.0300012  28.8244997  69.3889988
  19.8000012  27.7984997  69.7469988  19.2150012  29.4854997  69.7549988
  21.4250012  29.2244997  69.8409988  21.2670012  30.3234997  69.7989988
  22.1740012  28.9414997  69.0709988  21.6700012  28.7934997  71.2109988
  21.7860012  27.6894997  71.1679988  20.8010012  28.9954997  71.8739988
  23.0080012  29.3034997  71.7539988  23.0920012  30.3884997  71.5299988
  23.9040012  28.8284997  71.2999988  23.0800012  29.1054997  73.2479988
  22.6610012  28.0794997  73.3309988  22.3900012  29.8714997  73.6629988
  24.4400012  29.2674997  73.8959988  25.2860012  28.8314997  73.3449988
  24.6720012  29.9434997  75.0239988  25.7190012  30.0704997  75.3349988
  23.7090012  30.6394997  75.8769988  24.0820012  30.6094997  76.9229988
  22.6860012  30.2074997  75.8709988  23.6240012  32.0444997  75.3769988
  23.1360012  32.1114997  74.3809988  24.6140012  32.5364997  75.2739988
  22.8200012  32.9184997  76.3589988  21.8250012  32.4564997  76.5349988
  22.4850012  33.8414997  75.8389988  23.5480012  33.3794997  77.6459988
  24.3140012  34.1654997  77.4709988  24.0950012  32.5844997  78.1959988
  22.6030012  33.9334997  78.7809988  21.9930012  33.0264997  78.9839988
  21.9230012  34.7674997  78.5049988  23.4290012  34.2474997  79.9969988
  24.3610012  34.7324997  79.6369988  23.8480012  33.3484997  80.4979988
  22.7200012  35.1454997  80.9929988  22.3490012  35.9434997  80.3139988
  23.3310012  35.6034997  81.8009988  21.5630012  34.4584997  81.6369988
  20.9480012  35.1614997  82.2379988  21.8440012  33.6414997  82.3339988
  20.7700012  34.3624997  80.8639988  11.8500012 103.0154997  84.9409988
  11.5630012 102.1884997  85.6249988  11.0190012 103.6914997  84.6449988
  12.7150012 103.5534997  85.3829988  12.1970012 102.3154997  83.6579988
  13.1310012 101.7224997  83.7599988  11.3190012 101.6724997  83.4319988
  12.4750012 103.3084997  82.5009988  11.6640012 104.0644997  82.5789988
  13.4180012 103.8404997  82.7519988  12.7080012 102.6924997  81.0789988
  13.4840012 101.9004997  81.0119988  11.7970012 102.1894997  80.6909988
  13.1070012 103.7774997  80.0619988  12.3070012 104.5354997  80.2009988
  13.9180012 104.3964997  80.5029988  13.4330012 103.2154997  78.6359988
  13.4580012 104.0744997  77.9329988  14.3250012 102.5654997  78.7669988
  12.2750012 102.3704997  78.0869988  12.1390012 101.4154997  78.6379988
  11.3590012 102.9904997  78.1909988  12.4640012 102.0464997  76.5689988
  12.5620012 103.0134997  76.0299988  13.3370012 101.4244997  76.2749988
  11.1670012 101.3344997  75.9689988  10.8190012 100.5884997  76.7149988
  10.5640012 102.2674997  75.9589988  11.3270012 100.7774997  74.5419988
  10.3920012 100.2074997  74.3569988  11.3830012 101.6384997  73.8419988
  12.4810012  99.7694997  74.3279988  13.4970012 100.2184997  74.3519988
  12.3540012  98.9854997  75.1049988  12.3360012  98.9384997  73.0539988
  13.1940012  98.2464997  72.9199988  11.3840012  98.3654997  73.0349988
  12.2550012  99.8044997  71.7749988  11.4860012 100.5884997  71.9419988
  13.2220012 100.3344997  71.6409988  11.7740012  99.0074997  70.5969988
  12.5420012  98.2264997  70.4089988  10.8160012  98.5504997  70.9249988
  11.6500012  99.6764997  69.2079988  12.5750012 100.2584997  69.0119988
  11.4750012  98.9354997  68.3989988  10.4590012 100.5674997  69.0329988
   9.9580012 101.1174997  70.0009988  10.0860012 100.7464997  67.7739988
   8.9970012 101.6244997  67.4059988   8.6040012 101.1884997  66.4619988
   8.2080012 101.4944997  68.1769988   9.3660012 103.0734997  67.2859988
   8.4400012 103.6184997  67.0029988  10.3860012 103.3204997  66.1729988
   9.8590012 103.1344997  65.2129988  10.6250012 104.4044997  66.2329988
  11.5440012 102.5284997  66.3849988  12.8980012 102.7844997  65.6029988
  12.4940012 103.1634997  64.0839988  11.8000012 102.2604997  63.2479988
  12.3880012 101.4654997  62.7429988  11.0460012 101.6594997  63.8009988
  10.9030012 102.9394997  62.2189988  10.6320012 102.2094997  61.4709988
  10.0460012 103.4594997  62.6209988  11.5870012 104.0234997  61.3539988
  11.8010012 105.2284997  62.2449988  12.3490012 104.8204997  63.0809988
  12.4810012 105.9224997  61.7719988  10.8510012 105.6334997  62.5609988
  12.8820012 103.4724997  60.8169988  12.6900012 102.6154997  60.1879988
  13.3900012 104.2024997  60.2059988  13.4610012 103.1154997  61.6559988
  10.5700012 104.4024997  60.2399988   9.6040012 104.5234997  60.7069988
  10.4420012 103.6194997  59.5069988  10.9270012 105.3244997  59.8049988
  13.4350012 103.9924997  66.1959988  13.7570012 101.5914997  65.7889988
   9.8120012 103.5704997  68.5269988  10.2080012 104.8364997  68.7369988
   9.9120012 105.8404997  68.0659988  10.9540012 104.9774997  70.1199988
  11.1740012 106.0544997  70.2819988  11.8940012 104.3874997  70.0819988
  10.1730012 104.4414997  71.3169988   9.5110012 103.6124997  70.9849988
   9.4120012 105.1684997  71.6729988  11.0200012 103.9224997  72.3899988
  11.6330012 103.1044997  71.9549988  10.3960012 103.5694997  73.2389988
  11.9950012 104.9614997  73.0079988  12.3840012 105.6694997  72.2449988
  12.8440012 104.4234997  73.4819988  11.2820012 105.7914997  74.0849988
  11.0910012 105.1214997  74.9509988  10.3090012 106.1664997  73.7019988
  12.1790012 106.9724997  74.5399988  12.0400012 107.7404997  73.7489988
  13.1950012 106.5244997  74.5389988  11.9780012 107.4854997  75.9909988
  12.6390012 108.3524997  76.2019988  12.4690012 106.7294997  76.6409988
  10.5790012 108.0194997  76.1779988  10.4330012 109.0754997  75.9049988
   9.5270012 107.3664997  76.6879988   8.5420012 107.8414997  76.7969988
   9.4680012 105.9274997  77.1649988  10.2620012 105.2464997  76.7919988
   8.5070012 105.4934997  76.8149988   9.4140012 105.7714997  78.7199988
  10.3120012 106.0484997  79.3119988   9.2030012 104.6814997  78.7449988
   8.1350012 106.4684997  79.3759988   7.3790012 106.5814997  78.5699988
   8.4660012 107.5014997  79.6139988   7.5330012 105.5874997  80.5249988
   6.9650012 104.7064997  80.1559988   6.8380012 106.2564997  81.0759988
   8.5780012 105.1424997  81.5919988   9.1640012 106.0624997  81.8009988
   9.3060012 104.4544997  81.1119988   7.9830012 104.4274997  82.7769988
   7.3690012 105.1184997  83.3929988   8.7680012 104.1544997  83.5129988
   6.9900012 103.2224997  82.5689988   7.3260012 102.6294997  81.6919988
   6.0480012 103.7054997  82.2329988   6.7220012 102.5454997  83.8909988
   7.5700012 101.9824997  84.3369988   5.8870012 101.8264997  83.7539988
   6.3790012 103.2714997  84.6579988  86.3370012  12.6494997  80.3629988
  85.3190012  12.9224997  80.7159988  86.6680012  13.4884997  79.7149988
  87.0160012  12.7234997  81.2389988  86.4730012  11.2744997  79.6639988
  87.3250012  11.3094997  78.9509988  86.7160012  10.5534997  80.4729988
  85.2560012  10.8754997  78.7759988  85.2570012   9.7934997  78.5229988
  84.3900012  11.1604997  79.4109988  85.0900012  11.5794997  77.3799988
  85.5190012  12.6004997  77.2789988  85.7120012  10.8944997  76.7649988
  83.6460012  11.6784997  76.8559988  83.1650012  10.6854997  76.7279988
  83.1380012  12.1804997  77.7069988  83.3920012  12.4464997  75.5649988
  83.7910012  13.4724997  75.7119988  84.0740012  12.1774997  74.7299988
  82.0210012  12.4754997  74.8669988  81.4370012  13.2904997  75.3469988
  82.1170012  12.7024997  73.7839988  81.1920012  11.1774997  74.9429988
  81.6740012  10.2404997  74.5919988  81.0350012  10.9374997  76.0159988
  79.7970012  11.2234997  74.2699988  79.0070012  10.5324997  74.6339988
  79.3760012  12.2274997  74.4899988  79.6820012  10.9574997  72.7619988
  78.5940012  11.1014997  72.5889988  80.2460012  11.6834997  72.1379988
  80.0240012   9.5454997  72.3059988  81.0630012   9.2084997  72.5079988
  79.3630012   8.8454997  72.8609988  79.8090012   9.2574997  70.8219988
  78.7600012   9.3054997  70.4579988  80.3330012  10.0974997  70.3179988
  80.5050012   7.9394997  70.3539988  81.6040012   8.0944997  70.3189988
  80.4370012   7.1884997  71.1699988  80.2480012   7.3794997  68.9319988
  81.0110012   6.5724997  68.8969988  79.3150012   6.7824997  68.8529988
  80.4330012   8.3574997  67.7349988  81.3200012   8.9954997  67.9369988
  80.5590012   7.6994997  66.8479988  79.2460012   9.1884997  67.4559988
  78.0720012   8.9224997  67.8169988  79.5480012  10.2784997  66.7629988
  78.5230012  11.2254997  66.5499988  77.6540012  10.6964997  66.1029988
  78.2360012  11.6024997  67.5539988  79.0780012  12.3124997  65.5759988
  78.6220012  13.3124997  65.7389988  78.8670012  11.8034997  64.1019988
  77.8670012  11.3854997  63.8559988  78.9120012  12.5884997  63.3179988
  79.7170012  10.6704997  63.8799988  81.0790012  10.7634997  63.0789988
  82.1400012  10.1234997  64.0189988  82.6190012   8.8124997  64.0649988
  82.8320012   8.5314997  65.1189988  81.8550012   8.1284997  63.6389988
  84.0220012   8.7424997  63.3759988  84.3820012   7.7364997  63.5329988
  83.8200012   8.8184997  62.3169988  85.0770012   9.8074997  63.6689988
  86.4740012   9.2454997  63.2769988  86.3730012   9.0124997  62.2279988
  87.1480012  10.0834997  63.3779988  86.6210012   8.3724997  63.8949988
  84.8750012  11.0874997  62.8979988  85.6060012  11.8364997  63.1659988
  84.9300012  10.8914997  61.8369988  83.8550012  11.4184997  63.0289988
  85.1220012  10.0914997  65.1999988  85.0600012   9.1164997  65.6609988
  84.3110012  10.7204997  65.5359988  85.9450012  10.7774997  65.3409988
  81.0070012   9.9334997  61.8779988  81.5230012  12.2024997  62.8389988
  80.4960012  12.6294997  65.7409988  80.8700012  13.2344997  66.8579988
  80.1870012  13.4744997  67.8489988  82.3200012  13.8124997  66.8199988
  82.2850012  14.9084997  66.6409988  82.9150012  13.3214997  66.0199988
  82.9690012  13.5884997  68.2239988  82.2700012  14.0304997  68.9659988
  83.9170012  14.1554997  68.3499988  83.2100012  12.1324997  68.7879988
  83.9210012  11.5814997  68.1359988  82.2580012  11.5644997  68.7339988
  83.7450012  12.0194997  70.2149988  82.9390012  12.3554997  70.9019988
  84.6690012  12.6304997  70.2949988  84.0470012  10.5354997  70.5869988
  85.0340012  10.2864997  70.1409988  83.3030012   9.8524997  70.1249988
  84.1190012  10.3494997  72.1179988  83.2050012  10.7384997  72.6159988
  84.9390012  11.0454997  72.3959988  84.1700012   8.8284997  72.3849988
  84.9350012   8.5104997  71.6449988  83.2000012   8.4374997  72.0099988
  84.6070012   8.3684997  73.7579988  85.5070012   8.8724997  74.1399988
  83.8800012   7.5514997  74.5609988  84.3980012   7.2814997  75.4929988
  82.5430012   6.8754997  74.3799988  82.7860012   6.0724997  73.6509988
  81.9050012   7.6314997  73.8749988  81.8790012   6.3204997  75.6609988
  82.6570012   5.7394997  76.1999988  81.1010012   5.6324997  75.2659988
  81.1810012   7.3444997  76.5619988  80.2690012   7.6614997  76.0119988
  81.9370012   8.1374997  76.7439988  80.6520012   6.7644997  77.8849988
  81.2740012   6.0304997  78.4409988  79.7540012   6.2424997  77.4899988
  80.1860012   7.7674997  79.0009988  81.1230012   8.1784997  79.4329988
  79.7500012   7.2014997  79.8529988  79.2760012   8.9364997  78.6419988
  78.5640012   8.6914997  77.8249988  80.0520012   9.6724997  78.3429988
  78.3920012   9.4854997  79.7749988  77.7020012   8.6574997  80.0469988
  77.7190012  10.3224997  79.4909988  79.1670012   9.8064997  81.0769988
  80.0520012  10.4784997  81.0399988  79.4210012   8.8544997  81.5889988
  78.5160012  10.2614997  81.8529988  71.6520012 135.2924997  79.9809988
  72.3780012 135.2344997  80.8189988  71.5030012 134.2454997  79.6399988
  70.7440012 135.5654997  80.5609988  72.0080012 136.1334997  78.7439988
  72.5620012 137.0534997  79.0289988  72.6620012 135.5194997  78.0889988
  70.7390012 136.4554997  77.9379988  69.9080012 135.7894997  78.2559988
  70.4560012 137.5194997  78.0879988  70.9280012 136.1814997  76.4529988
  71.7410012 136.7574997  75.9599988  71.3730012 135.2104997  76.1479988
  69.7280012 136.5174997  75.6489988  69.4720012 137.5974997  75.7019988
  70.0380012 136.2674997  74.6119988  68.4050012 135.7874997  75.9079988
  68.2640012 135.6334997  76.9989988  67.6560012 136.4834997  75.4729988
  68.1620012 134.4774997  75.2199988  68.9770012 133.8094997  75.5719988
  67.1720012 134.0414997  75.4709988  68.2450012 134.5554997  73.5899988
  67.4330012 135.2134997  73.2129988  69.2760012 134.9154997  73.3859988
  68.1630012 133.1724997  72.9049988  68.6350012 132.3884997  73.5359988
  67.1570012 132.7024997  72.8819988  68.8940012 133.1954997  71.5059988
  69.6510012 134.0034997  71.4149988  69.4890012 132.2584997  71.4559988
  67.9240012 133.4014997  70.3069988  67.0900012 132.6804997  70.4439988
  67.4490012 134.4014997  70.4019988  68.6840012 133.3554997  68.9459988
  69.6500012 133.9004997  68.9939988  68.8950012 132.2894997  68.7139988
  67.8250012 133.9764997  67.8079988  67.6660012 135.0324997  68.1149988
  68.4560012 133.9344997  66.8949988  66.6210012 133.1724997  67.4449988
  66.9710012 132.1214997  67.5309988  65.7930012 133.3544997  68.1629988
  66.1110012 133.4904997  66.0269988  66.9650012 133.3064997  65.3419988
  65.3530012 132.7154997  65.7849988  65.5060012 134.8724997  66.0039988
  65.1830012 135.5184997  66.9869988  65.3090012 135.1654997  64.7669988
  64.4170012 136.2534997  64.6499988  63.8590012 136.1214997  63.6989988
  63.6490012 136.3684997  65.4449988  65.0820012 137.6514997  64.5229988
  64.2770012 138.4164997  64.4829988  65.9390012 137.7384997  63.2039988
  65.2610012 137.5644997  62.3409988  66.4910012 138.7024997  63.2219988
  67.0270012 136.7964997  63.1049988  67.8100012 136.4734997  61.7449988
  69.0590012 135.6824997  62.2879988  68.8960012 134.8464997  63.4489988
  67.9680012 134.2374997  63.4049988  69.7180012 134.1094997  63.3149988
  69.0130012 135.5664997  64.8539988  68.0810012 136.0964997  64.9799988
  69.2160012 134.8344997  65.6219988  70.0310012 136.7474997  65.1059988
  71.4340012 136.3974997  64.6639988  71.5320012 136.4444997  63.5899988
  72.1100012 137.1894997  64.9469988  71.7530012 135.4374997  65.0429988
  69.7170012 138.0184997  64.4129988  69.7450012 137.6814997  63.3879988
  68.7540012 138.3714997  64.7499988  70.5320012 138.7194997  64.5189988
  70.1990012 137.1074997  66.5189988  70.8430012 136.3704997  66.9779988
  69.2230012 137.1284997  66.9799988  70.7100012 138.0574997  66.5559988
  67.0120012 135.5614997  60.9439988  68.2380012 137.7204997  61.0929988
  65.9230012 137.7744997  65.6239988  65.4520012 138.3304997  66.7379988
  64.2930012 138.7364997  66.9229988  66.5580012 138.3844997  67.8339988
  67.5850012 138.4464997  67.4149988  66.6060012 137.4104997  68.3659988
  66.1560012 139.5434997  68.7969988  65.0740012 139.6004997  69.0399988
  66.4690012 140.4724997  68.2729988  66.9820012 139.6514997  70.0929988
  66.6830012 140.4354997  70.8209988  68.0130012 139.7904997  69.7009988
  66.9490012 138.4074997  71.0749988  67.5490012 138.6244997  71.9839988
  67.4540012 137.5404997  70.5989988  65.5430012 138.0034997  71.5029988
  64.9880012 137.6264997  70.6179988  64.9840012 138.8694997  71.9179988
  65.5820012 136.8704997  72.4459988  66.3630012 137.1574997  73.1819988
  65.9560012 135.9064997  72.0379988  64.2840012 136.4604997  73.2019988
  64.5270012 135.5644997  73.8139988  63.5200012 135.9174997  72.6049988
  63.7890012 137.5774997  74.1629988  63.7680012 138.5794997  73.7089988
  63.5270012 137.4504997  75.5109988  62.9970012 138.2614997  76.0329988
  63.6390012 136.1784997  76.2659988  63.7840012 135.2624997  75.6549988
  62.7790012 136.0294997  76.9529988  64.8380012 136.0784997  77.2869988
  65.7910012 136.1634997  76.7229988  64.8460012 135.0974997  77.8079988
  64.9080012 137.1784997  78.3329988  64.6250012 138.1524997  77.8799988
  65.9660012 137.2804997  78.6539988  63.9570012 137.0014997  79.5279988
  62.9930012 136.7164997  79.0549988  63.7470012 137.9494997  80.0669988
  64.4200012 135.9244997  80.5009988  65.3520012 136.2904997  80.9809988
  64.6830012 135.0354997  79.8899988  63.3810012 135.5314997  81.5209988
  63.7950012 134.5854997  81.9299988  62.4090012 135.3084997  81.0329988
  63.0370012 136.5174997  82.6229988  62.4580012 137.3294997  82.1329988
  63.8750012 137.0334997  83.1379988  62.0610012 135.9274997  83.6169988
  62.5710012 135.1034997  84.1599988  61.1430012 135.5104997  83.1489988
  61.6930012 136.7764997  84.2319988 129.9380012  34.7204997  82.9649988
 130.3040012  33.8984997  82.3119988 128.8560012  34.8354997  82.7389988
 130.0590012  34.4724997  84.0409988 130.7100012  36.1194997  82.6419988
 130.3860012  36.3094997  81.5969988 130.2930012  36.9034997  83.3089988
 132.2470012  36.0454997  82.8019988 132.5170012  37.0064997  83.2899988
 132.5290012  35.1904997  83.4529988 132.9910012  36.0434997  81.5359988
 132.7240012  35.2464997  80.8099988 132.5960012  36.9824997  81.0929988
 134.5080012  36.0764997  81.6999988 134.6810012  36.8694997  82.4589988
 134.9010012  35.1294997  82.1279988 135.3450012  36.1614997  80.4519988
 136.4160012  35.9994997  80.6969988 135.0720012  35.2884997  79.8199988
 135.3600012  37.4434997  79.5959988 134.3800012  37.5574997  79.0859988
 135.3860012  38.4004997  80.1599988 136.4470012  37.4824997  78.4889988
 137.4480012  37.5144997  78.9709988 136.4790012  36.4864997  77.9969988
 136.2650012  38.6384997  77.5649988 136.3070012  39.6264997  78.0719988
 137.0920012  38.6964997  76.8249988 135.0570012  38.6214997  76.5549988
 134.2000012  38.7954997  77.2399988 135.3440012  39.4754997  75.9049988
 134.8800012  37.2724997  75.7559988 135.8190012  36.9404997  75.2629988
 134.6000012  36.3464997  76.3019988 133.8370012  37.2624997  74.6289988
 133.5750012  36.2074997  74.3959988 132.9180012  37.6894997  75.0839988
 134.3240012  37.9924997  73.3539988 134.9670012  38.8544997  73.6329988
 135.0130012  37.2754997  72.8569988 133.1020012  38.3014997  72.4459988
 132.2740012  38.9104997  72.8669988 133.5590012  38.8244997  71.5789988
 132.4620012  36.9824997  71.8479988 133.3050012  36.6264997  71.2179988
 132.0200012  36.2354997  72.5419988 131.3250012  37.4974997  70.8159988
 130.1290012  37.4944997  71.0269988 131.8900012  37.9234997  69.7629988
 130.9500012  38.5244997  68.8979988 130.2750012  37.7234997  68.5269988
 130.2270012  39.2104997  69.3869988 131.5750012  39.3074997  67.6849988
 130.7520012  39.7794997  67.1069988 132.4250012  38.4414997  66.7559988
 133.2870012  38.0864997  67.3599988 131.8640012  37.5214997  66.4839988
 133.0220012  39.1654997  65.6519988 132.2330012  39.6984997  64.4569988
 133.0660012  39.1934997  63.2309988 134.3540012  38.7894997  63.3359988
 134.9560012  38.9534997  62.4159988 134.9470012  39.2674997  64.1439988
 134.3470012  37.2434997  63.5529988 135.3850012  36.9734997  63.6779988
 133.9320012  37.0094997  64.5219988 133.8400012  36.2964997  62.5379988
 134.3430012  36.7014997  61.1719988 134.1470012  35.9994997  60.3749988
 134.0390012  37.7014997  60.8989988 135.4140012  36.7524997  61.0449988
 134.3360012  34.9244997  62.8609988 133.8250012  34.1754997  62.2739988
 135.4110012  34.8364997  62.8129988 134.1820012  34.7884997  63.9219988
 132.3290012  36.3384997  62.4979988 131.8250012  35.7294997  61.7619988
 131.9570012  37.3484997  62.4019988 131.9060012  36.0814997  63.4579988
 130.9410012  39.0194997  64.4489988 132.4000012  41.1964997  64.4339988
 132.4220012  40.4314997  68.2029988 131.9080012  41.6744997  68.4249988
 130.7470012  41.8774997  68.5259988 132.9520012  42.7174997  68.7759988
 132.5500012  43.7394997  68.9399988 133.5630012  42.7134997  67.8479988
 133.8280012  42.3924997  69.9869988 134.3300012  43.3454997  70.2599988
 134.5230012  41.5724997  69.7069988 133.1160012  42.0884997  71.2809988
 132.9190012  40.9954997  71.2399988 132.1760012  42.6804997  71.2469988
 133.9440012  42.3794997  72.5439988 134.3280012  43.4024997  72.7449988
 134.8190012  41.6994997  72.4639988 133.3430012  41.8464997  73.7939988
 134.0390012  41.3774997  74.5219988 132.6750012  40.9994997  73.5259988
 132.4540012  42.9034997  74.5669988 131.7770012  43.2904997  73.7759988
 133.2580012  43.6444997  74.7659988 131.7200012  42.2814997  75.7799988
 131.6630012  43.2034997  76.3979988 132.4150012  41.5674997  76.2719988
 130.3010012  41.8554997  75.4699988 129.5800012  42.6784997  75.3549988
 129.8460012  40.6064997  75.4129988 128.7970012  40.4954997  75.0989988
 130.6600012  39.3544997  75.6579988 131.6870012  39.6374997  75.9729988
 130.6860012  38.7654997  74.7159988 130.2140012  38.4604997  76.8089988
 130.8360012  37.5404997  76.8599988 129.1770012  38.1854997  76.5209988
 130.2320012  39.0414997  78.1999988 130.0860012  38.1224997  78.8069988
 129.3770012  39.7494997  78.2479988 131.5230012  39.7874997  78.6599988
 131.9670012  40.2104997  77.7329988 132.2220012  39.0834997  79.1589988
 131.0850012  40.8824997  79.7019988 130.3560012  40.3304997  80.3329988
 130.4510012  41.5494997  79.0809988 132.1830012  41.6214997  80.4889988
 132.7900012  40.8074997  80.9409988 131.6630012  42.2004997  81.2819988
 133.1050012  42.4334997  79.6629988 132.4710012  43.1024997  79.0429988
 133.5630012  41.6194997  79.0609988 134.2140012  43.2614997  80.3799988
 134.9320012  43.6184997  79.6109988 134.6330012  42.6104997  81.1769988
 133.7480012  44.1164997  80.9159988  13.1040012  40.4204997  83.1699988
  12.8790012  39.3424997  83.0259988  12.2900012  40.8554997  83.7879988
  14.1170012  40.5244997  83.6139988  13.1320012  41.0964997  81.7729988
  13.7200012  42.0224997  81.9529988  13.6630012  40.4474997  81.0449988
  11.7750012  41.4984997  81.2169988  11.2330012  40.5414997  81.0539988
  11.2380012  42.1094997  81.9729988  11.8040012  42.2764997  79.8789988
  12.3670012  43.2164997  80.0629988  12.3730012  41.6814997  79.1319988
  10.4540012  42.6394997  79.4119988   9.7410012  42.5374997  80.2579988
  10.4140012  43.7354997  79.2379988   9.8960012  41.7964997  78.1609988
  10.7120012  41.7424997  77.4089988   9.8010012  40.7894997  78.6209988
   8.5150012  42.1814997  77.5719988   7.7120012  41.7214997  78.1859988
   8.2540012  43.2604997  77.5399988   8.3750012  41.7494997  76.0739988
   7.3820012  42.0224997  75.6579988   9.0850012  42.2904997  75.4129988
   8.4250012  40.1754997  75.8939988   9.4770012  39.8294997  75.7979988
   7.9690012  39.7434997  76.8109988   7.5830012  39.7594997  74.6729988
   7.3950012  38.6654997  74.7049988   6.5660012  40.1954997  74.7739988
   8.3860012  39.8924997  73.3769988   7.8000012  39.8664997  72.4339988
   8.7730012  40.9304997  73.4609988   9.6490012  38.9394997  73.3529988
  10.1360012  38.8334997  74.3459988   9.1390012  37.9674997  73.1789988
  10.7480012  39.3764997  72.3659988  11.0090012  40.4344997  72.5829988
  11.6970012  38.8494997  72.6019988  10.3590012  39.1724997  70.9539988
  10.3180012  38.0744997  70.7889988   9.2950012  39.4354997  70.7709988
  11.2440012  39.7664997  69.8389988  11.1220012  40.8714997  69.8489988
  12.3020012  39.5024997  70.0509988  10.8190012  39.2334997  68.5239988
   9.8040012  38.5504997  68.3819988  11.6630012  39.5504997  67.5689988
  11.4370012  39.2014997  66.2169988  12.4350012  39.0614997  65.7489988
  10.8320012  38.2764997  66.1059988  10.7170012  40.3974997  65.4709988
  10.4430012  40.1204997  64.4299988  11.7940012  41.4134997  65.3069988
  12.3840012  41.5584997  66.2369988  12.5530012  41.0604997  64.5759988
  11.2830012  42.6494997  64.8349988  10.7730012  42.8834997  63.3449988
  11.5820012  44.1734997  63.0199988  12.1790012  45.0714997  63.9099988
  12.5370012  44.6004997  64.8499988  13.0380012  45.4864997  63.3409988
  11.1380012  46.1674997  64.4169988  10.3950012  45.6874997  65.0369988
  11.7100012  46.8794997  64.9919988  10.3810012  46.9614997  63.4629988
   9.1770012  46.1484997  62.9399988   8.4430012  46.0234997  63.7219988
   8.7200012  46.7044997  62.1349988   9.6210012  45.2214997  62.6089988
   9.7130012  48.2184997  64.1009988   9.1980012  48.6604997  63.2609988
   9.1130012  47.9634997  64.9619988  10.4450012  48.9504997  64.4099988
  11.2150012  47.3834997  62.2029988  11.9170012  48.1314997  62.5419988
  10.5730012  47.6724997  61.3839988  11.7990012  46.5224997  61.9139988
  11.3530012  41.8564997  62.5029988   9.2910012  43.0294997  63.4429988
   9.6540012  40.8444997  66.2849988   8.5420012  40.3174997  65.9879988
   8.1900012  39.6964997  64.9949988   7.5690012  40.7124997  67.1209988
   8.0840012  40.5074997  68.0839988   6.7030012  40.0224997  67.0349988
   6.8830012  42.1274997  67.0559988   6.4370012  42.3274997  66.0579988
   7.7240012  42.8514997  67.1109988   5.7060012  42.3584997  68.0109988
   4.8840012  41.6274997  67.8569988   5.1810012  43.2854997  67.6959988
   6.0820012  42.4244997  69.5589988   6.5400012  41.4394997  69.7949988
   5.2050012  42.5564997  70.2279988   7.1830012  43.3654997  69.9009988
   6.9970012  44.3804997  69.4889988   8.1400012  43.0294997  69.4469988
   7.4720012  43.4444997  71.4439988   7.8540012  42.4474997  71.7539988
   6.5180012  43.5294997  72.0079988   8.4120012  44.5794997  71.7799988
   7.8550012  45.4664997  72.1499988   9.0630012  44.8804997  70.9319988
   9.2790012  44.1704997  72.9069988   8.9340012  43.2964997  73.4789988
  10.3450012  44.8744997  73.3429988  10.9180012  44.3654997  74.1319988
  10.9290012  46.1894997  72.8749988  10.3950012  46.6514997  72.0169988
  11.9180012  46.0304997  72.3939988  11.0320012  47.1984997  74.0659988
  11.5200012  48.1214997  73.6879988  11.8510012  46.8694997  74.7419988
   9.7410012  47.6024997  74.7889988   8.8170012  47.1454997  74.3759988
   9.4970012  48.6744997  74.6299988   9.7380012  47.3404997  76.2499988
  10.2330012  48.2124997  76.7269988  10.4310012  46.5124997  76.5109988
   8.3400012  47.0644997  76.8299988   7.8710012  46.0824997  76.6029988
   7.7480012  47.8194997  76.2689988   8.2820012  47.2694997  78.3659988
   7.2500012  47.4224997  78.7489988   8.8860012  48.0774997  78.8319988
   8.8890012  46.1174997  79.2129988   9.8770012  45.9064997  78.7509988
   8.1770012  45.2664997  79.1739988   9.1000012  46.4454997  80.6839988
   9.5050012  45.5524997  81.2069988   8.1020012  46.6424997  81.1309988
   9.7630012  47.2944997  80.9549988 125.3780012 113.3374997  81.1189988
 125.9470012 113.6854997  82.0079988 124.8500012 114.1744997  80.6129988
 126.1760012 113.1604997  80.3669988 124.4420012 112.1434997  81.4449988
 125.1100012 111.4394997  81.9859988 123.7590012 112.4764997  82.2559988
 123.7690012 111.6104997  80.2219988 123.0990012 112.3744997  79.7729988
 124.6290012 111.2694997  79.6089988 122.9390012 110.2814997  80.3529988
 123.5610012 109.3844997  80.5579988 122.1620012 110.4764997  81.1219988
 122.2000012 109.8674997  79.0809988 121.6320012 108.9204997  79.1979988
 121.4200012 110.5944997  78.7679988 123.1210012 109.6834997  77.8719988
 123.7730012 110.5464997  77.6159988 123.7520012 108.8284997  78.1949988
 122.3990012 109.2734997  76.5119988 121.8520012 108.3174997  76.6519988
 121.6750012 110.0634997  76.2179988 123.4930012 109.2104997  75.4469988
 124.1890012 110.0764997  75.4479988 124.0860012 108.2924997  75.6459988
 123.0490012 109.2594997  74.0109988 122.0680012 108.7374997  74.0079988
 122.9030012 110.2974997  73.6439988 123.8070012 108.3854997  73.0189988
 124.7430012 108.9464997  72.8109988 124.1410012 107.4204997  73.4579988
 122.9780012 108.0464997  71.7689988 122.0440012 107.4724997  71.9449988
 122.5470012 108.9954997  71.3859988 123.8580012 107.3484997  70.7439988
 124.7060012 108.0424997  70.5659988 124.1880012 106.3874997  71.1929988
 123.2040012 106.8874997  69.4999988 124.0110012 106.3754997  68.9319988
 122.4210012 106.1304997  69.7179988 122.6500012 108.0174997  68.6479988
 122.2020012 108.8794997  69.1869988 123.4440012 108.4564997  68.0069988
 121.6040012 107.5284997  67.5619988 122.1060012 106.8034997  66.8859988
 120.7510012 106.9654997  67.9969988 121.0890012 108.7794997  66.8799988
 120.1340012 109.3824997  67.2399988 121.7770012 109.1094997  65.7889988
 121.4330012 110.4074997  65.2339988 120.5170012 110.3504997  64.6089988
 121.3510012 111.2134997  65.9939988 122.4590012 110.8544997  64.2229988
 122.2280012 111.8854997  63.8799988 122.5590012 109.8414997  63.0629988
 121.6200012 110.0224997  62.4989988 123.3440012 110.1584997  62.3429988
 122.5470012 108.4414997  63.4149988 123.8910012 107.5364997  63.4739988
 124.9720012 108.7454997  63.6449988 126.3030012 108.3984997  63.9359988
 126.3080012 107.5434997  64.6459988 126.6730012 107.9804997  62.9749988
 127.0270012 109.7174997  64.3589988 126.5030012 109.9944997  65.2619988
 127.9540012 109.5894997  64.8969988 127.3660012 110.8114997  63.3539988
 126.1650012 111.3214997  62.5459988 125.8670012 110.5894997  61.8089988
 125.2960012 111.5034997  63.1619988 126.3910012 112.2784997  62.0989988
 128.0840012 111.8914997  64.0889988 128.3500012 112.7254997  63.4559988
 127.3960012 112.2064997  64.8599988 128.9330012 111.4984997  64.6269988
 128.3820012 110.2014997  62.4939988 129.2050012 109.7134997  62.9939988
 128.7720012 110.8894997  61.7589988 127.8710012 109.4154997  61.9559988
 124.0190012 106.7134997  64.7259988 124.0790012 106.8694997  62.1419988
 123.7940012 110.7444997  64.8609988 124.0340012 111.8484997  65.7199988
 123.4350012 112.8384997  65.7939988 125.0620012 111.4334997  66.7389988
 125.9360012 112.1154997  66.6639988 125.3220012 110.3984997  66.4319988
 124.3840012 111.3304997  68.0989988 124.8850012 110.5854997  68.7549988
 123.3750012 110.8784997  67.9929988 124.2390012 112.6664997  68.8089988
 123.7300012 113.3964997  68.1439988 125.2940012 112.9424997  69.0179988
 123.3820012 112.5294997  70.1229988 122.4470012 112.0154997  69.8139988
 123.1020012 113.5274997  70.5219988 123.8920012 111.7024997  71.3549988
 124.2160012 110.6804997  71.0629988 123.0500012 111.6364997  72.0769988
 125.2010012 112.3334997  71.9789988 125.0530012 113.3624997  72.3699988
 125.9910012 112.4154997  71.2029988 125.8980012 111.4714997  73.0849988
 125.9390012 110.4904997  72.5639988 125.2770012 111.4964997  74.0059988
 127.3100012 111.8244997  73.4249988 127.5410012 112.8954997  73.3249988
 128.1520012 110.8794997  73.8819988 129.1470012 111.2604997  74.1569988
 128.0120012 109.4094997  74.1219988 128.8950012 108.9264997  73.6519988
 127.1990012 108.8134997  73.6559988 128.0150012 109.1654997  75.5929988
 127.2600012 109.8984997  75.9489988 129.0210012 109.4094997  75.9959988
 127.6460012 107.7764997  75.9639988 128.2500012 107.0514997  75.3779988
 126.5590012 107.7374997  75.7369988 128.0770012 107.5644997  77.3729988
 129.1590012 107.8074997  77.4419988 127.8040012 106.4964997  77.5179988
 127.4740012 108.5344997  78.3859988 127.0590012 107.9804997  79.2549988
 126.5760012 109.0754997  78.0179988 128.4380012 109.6394997  79.0029988
 128.5710012 110.3954997  78.1999988 129.4310012 109.2134997  79.2619988
 127.9060012 110.3474997  80.2499988 126.9220012 110.8104997  80.0239988
 128.5840012 111.2234997  80.3279988 127.8910012 109.5844997  81.5279988
 128.9470012 109.4314997  81.8379988 127.4600012 108.5984997  81.2509988
 127.2220012 110.0794997  82.2639988  95.5310012   9.3644997  80.1739988
  95.5260012   9.9554997  79.2329988  94.4760012   9.1594997  80.4549988
  95.8950012   8.3324997  79.9819988  96.2950012  10.1004997  81.2989988
  95.8400012  11.1094997  81.3969988  96.1320012   9.5854997  82.2689988
  97.8400012  10.1794997  81.1219988  98.1010012  10.8414997  80.2679988
  98.2590012  10.7524997  81.9769988  98.5830012   8.8764997  80.8969988
  98.1810012   8.0904997  81.5719988  98.2970012   8.5894997  79.8629988
 100.1100012   8.8974997  81.0449988 100.3470012   9.1574997  82.0979988
 100.6020012   7.9384997  80.7729988 100.8380012   9.9734997  80.1599988
 100.4800012  10.9804997  80.4649988 101.9460012   9.9304997  80.2239988
 100.5880012   9.8254997  78.6259988 100.9470012   8.8244997  78.3069988
  99.5180012   9.9814997  78.3669988 101.4760012  10.7924997  77.7749988
 101.3610012  11.8544997  78.0789988 102.5670012  10.6634997  77.9399988
 101.0950012  10.8174997  76.3379988 101.3770012   9.8894997  75.7969988
 100.0040012  10.9914997  76.2159988 101.7210012  11.9134997  75.4959988
 101.5010012  12.8714997  76.0139988 102.8230012  11.7904997  75.4359988
 101.2040012  11.8414997  74.0779988 101.5270012  10.8554997  73.6809988
 100.0940012  11.8774997  74.0419988 101.7810012  12.9004997  73.2209988
 101.5660012  13.8724997  73.7149988 102.8420012  12.5784997  73.1499988
 101.0410012  13.0844997  71.8869988 101.7400012  13.6294997  71.2169988
 100.9490012  12.0804997  71.4189988  99.6530012  13.7834997  71.9639988
  98.8900012  13.0294997  71.6739988  99.4350012  14.1004997  73.0059988
  99.4720012  14.9064997  70.9239988  98.6530012  15.5424997  71.3209988
 100.3370012  15.5834997  70.7539988  99.1140012  14.3364997  69.5489988
  98.0550012  13.8934997  69.1859988 100.2540012  14.2074997  68.9129988
 100.3230012  13.5494997  67.6439988  99.5450012  13.9794997  66.9759988
 101.2310012  13.9164997  67.1209988 100.3300012  12.0494997  67.7099988
 101.1070012  11.6284997  68.3829988 100.6750012  11.4154997  66.3369988
 101.7590012  11.5564997  66.1399988 100.6020012  10.3074997  66.3709988
  99.8830012  11.8644997  65.2379988 100.4340012  11.8374997  63.7659988
  99.2830012  12.4294997  62.8329988  98.3210012  13.1574997  63.4749988
  98.6430012  13.7034997  64.3879988  97.8170012  13.8794997  62.7979988
  97.1690012  12.2844997  64.0679988  97.5830012  11.8204997  64.9509988
  96.4590012  13.0104997  64.4359988  96.5640012  11.2064997  63.1059988
  97.3840012   9.8954997  63.1489988  98.2790012   9.9584997  62.5489988
  97.5850012   9.8184997  64.2079988  96.9140012   9.0044997  62.7599988
  95.2040012  10.7964997  63.6659988  94.6630012  11.6964997  63.9189988
  94.8070012  10.2274997  62.8379988  95.2970012  10.2124997  64.5699988
  96.4650012  11.7654997  61.7659988  96.1070012  12.7794997  61.6639988
  95.8990012  11.1364997  61.0949988  97.4690012  11.6904997  61.3749988
 101.5570012  12.8024997  63.7139988 100.7310012  10.4684997  63.3999988
  99.0020012  11.6744997  68.0969988  98.6920012  10.4404997  68.4839988
  99.4900012   9.5624997  68.7499988  97.1440012  10.2784997  68.6079988
  96.7930012   9.9004997  67.6239988  96.6680012  11.2424997  68.8889988
  96.7660012   9.3374997  69.7799988  97.2440012   8.3584997  69.5619988
  95.6660012   9.1854997  69.7969988  97.1410012   9.8934997  71.2079988
  96.7700012  10.9394997  71.1479988  98.2450012   9.8644997  71.3269988
  96.5670012   9.1544997  72.3869988  97.2400012   9.2334997  73.2669988
  96.4300012   8.0654997  72.2179988  95.1980012   9.7314997  72.9189988
  94.8070012   9.0014997  73.6589988  94.4590012   9.9654997  72.1219988
  95.5090012  10.9834997  73.6509988  96.2080012  11.5904997  73.0369988
  96.1130012  10.7064997  74.5409988  94.3750012  11.8554997  74.0929988
  93.8050012  11.4514997  74.9569988  93.6950012  12.0444997  73.2349988
  94.7910012  13.2654997  74.4569988  94.6910012  14.0024997  73.6469988
  95.3530012  13.6094997  75.6059988  95.5620012  14.6734997  75.7899988
  95.6340012  12.7284997  76.7859988  94.9460012  11.8744997  76.9649988
  95.3230012  13.3244997  77.6709988  97.0490012  12.2244997  76.9259988
  97.3170012  11.5034997  76.1239988  97.2150012  11.7714997  77.9259988
  98.1220012  13.3054997  76.8339988  98.1200012  13.7654997  75.8229988
  99.1160012  12.8094997  76.8729988  98.0830012  14.5124997  77.7109988
  97.0680012  14.9604997  77.7769988  98.6800012  15.2894997  77.1869988
  98.5850012  14.3124997  79.1349988  99.6900012  14.3544997  79.0239988
  98.1310012  13.3634997  79.4929988  98.0730012  15.3474997  80.1419988
  97.0550012  15.6554997  79.8219988  98.6630012  16.2714997  79.9599988
  98.2180012  15.0804997  81.6679988  99.2820012  14.9634997  81.9659988
  97.7300012  14.0984997  81.8479988  97.5180012  16.0494997  82.5549988
  98.1930012  16.9324997  82.5579988  97.3900012  15.6744997  83.5929988
  96.4970012  16.3234997  82.2139988 114.9850012 126.4074997  81.6299988
 115.3110012 125.7674997  82.4769988 113.9200012 126.7134997  81.7069988
 115.6370012 127.3064997  81.6559988 115.2690012 125.6114997  80.2679988
 114.5890012 124.7394997  80.1519988 114.9110012 126.3504997  79.5199988
 116.7520012 125.2294997  80.0229988 117.3010012 126.1864997  79.8919988
 117.1770012 124.6014997  80.8349988 116.7950012 124.4754997  78.6789988
 117.8360012 124.0874997  78.6439988 116.1740012 123.5584997  78.7709988
 116.5760012 125.0594997  77.2729988 115.5310012 125.3884997  77.0879988
 117.1370012 126.0174997  77.2229988 117.0510012 124.1304997  76.2239988
 118.1420012 124.0844997  76.4299988 116.6000012 123.1324997  76.4119988
 116.7330012 124.5214997  74.7459988 115.6880012 124.7954997  74.4849988
 117.2480012 125.5034997  74.6729988 117.4070012 123.4824997  73.7689988
 118.4930012 123.3774997  73.9749988 117.0980012 122.5314997  74.2549988
 116.9740012 123.5174997  72.3209988 115.8680012 123.5094997  72.4239988
 117.3310012 124.4444997  71.8249988 117.4380012 122.3474997  71.4759988
 118.5180012 122.1064997  71.5769988 116.9920012 121.3664997  71.7459988
 117.0980012 122.6144997  70.0019988 117.6360012 123.5684997  69.8149988
 117.5820012 121.8674997  69.3369988 115.6490012 122.7714997  69.5519988
 115.0290012 121.8724997  69.7559988 115.1010012 123.5914997  70.0639988
 115.6210012 123.1514997  68.0379988 116.2790012 122.3724997  67.5959988
 114.6470012 122.9654997  67.5379988 116.1770012 124.4264997  67.5619988
 117.2500012 124.4124997  67.8499988 116.0830012 124.5094997  66.4579988
 115.3980012 125.6124997  68.2429988 114.4780012 125.9064997  67.6919988
 115.1120012 125.2894997  69.2659988 116.4170012 126.7864997  68.2889988
 116.4780012 127.6304997  69.1589988 117.1400012 126.6444997  67.2329988
 118.0600012 127.7384997  66.8059988 117.4930012 128.4664997  66.1869988
 118.4980012 128.3254997  67.6409988 119.3050012 127.2524997  66.0149988
 119.9530012 128.1034997  65.7159988 118.9600012 126.5934997  64.6499988
 118.2430012 127.3174997  64.2069988 119.9110012 126.6014997  64.0769988
 118.5190012 125.2534997  64.7659988 118.1840012 124.6064997  63.3319988
 118.4870012 123.0694997  63.6349988 117.8270012 122.3274997  64.6809988
 118.2650012 121.3204997  64.8519988 117.9530012 122.8384997  65.6589988
 116.3700012 121.9444997  64.4109988 116.0420012 121.3784997  65.2709988
 115.7700012 122.8274997  64.2499988 115.9500012 121.0494997  63.2659988
 116.6020012 121.4084997  62.0399988 116.3650012 120.5934997  61.3719988
 116.3790012 122.3854997  61.6359988 117.6770012 121.4564997  62.1299988
 116.3410012 119.6124997  63.5819988 117.3810012 119.6184997  63.8719988
 115.6090012 119.1734997  64.2439988 116.3170012 119.0444997  62.6639988
 114.5020012 121.0094997  63.0259988 114.1350012 120.3284997  62.2719988
 114.0250012 121.9514997  62.7969988 114.0760012 120.7084997  63.9719988
 116.7940012 124.8084997  63.0679988 119.1570012 125.0874997  62.3729988
 119.9450012 126.2934997  66.8539988 120.6500012 126.6384997  67.8419988
 120.9900012 127.7464997  68.1509988 120.8120012 125.4564997  68.6549988
 121.5860012 124.7504997  68.2839988 120.0090012 124.7004997  68.7879988
 121.1540012 125.7974997  70.0639988 122.0030012 126.5114997  70.1219988
 121.3070012 124.8674997  70.6509988 119.9710012 126.3074997  70.9239988
 119.2650012 125.4714997  71.1169988 119.4880012 127.0334997  70.2349988
 120.4220012 127.1204997  72.1979988 119.9830012 128.1154997  71.9689988
 121.5140012 127.3144997  72.2749988 119.8610012 126.6064997  73.5589988
 118.7560012 126.5264997  73.6449988 120.2060012 127.3834997  74.2739988
 120.4180012 125.2664997  73.9489988 120.1870012 124.5434997  73.1379988
 119.8290012 124.9394997  74.8319988 121.8520012 125.2964997  74.4489988
 122.4740012 125.5194997  73.5549988 122.0620012 124.2504997  74.7579988
 122.1360012 126.2944997  75.6129988 122.0550012 127.3384997  75.2759988
 122.4210012 126.1134997  76.9249988 122.6300012 126.9764997  77.5739988
 122.5270012 124.8214997  77.6739988 123.2810012 124.8754997  78.4879988
 122.8030012 123.9884997  76.9929988 121.2310012 124.4574997  78.3499988
 121.3710012 123.4114997  78.6989988 120.3790012 124.3234997  77.6489988
 120.8200012 125.3624997  79.4819988 119.7710012 125.0534997  79.6819988
 120.7560012 126.3814997  79.0439988 121.7190012 125.3374997  80.7829988
 122.7890012 125.3144997  80.4849988 121.6540012 124.3624997  81.3109988
 121.6000012 126.4824997  81.8179988 122.0090012 127.4134997  81.3699988
 122.1460012 126.2244997  82.7509988 120.1910012 126.5774997  82.4519988
 119.4980012 127.0594997  81.7299988 120.3070012 127.2544997  83.3249988
 119.6180012 125.3574997  83.0579988 120.5020012 124.9274997  83.5759988
 119.4040012 124.6604997  82.2199988 118.4050012 125.7534997  83.9959988
 117.8860012 124.9034997  84.4879988 117.5360012 126.0814997  83.3869988
 118.5790012 126.4784997  84.8189988  27.8190012 124.6604997  80.3009988
  28.0920012 125.4814997  80.9989988  28.4800012 124.6494997  79.4079988
  28.0280012 123.7204997  80.8549988  26.3110012 124.6064997  79.8949988
  26.2780012 125.2934997  79.0229988  25.9990012 123.6054997  79.5259988
  25.3340012 124.9554997  81.0779988  25.3060012 124.1594997  81.8519988
  25.6920012 125.9314997  81.4709988  23.8380012 125.0214997  80.8179988
  23.3480012 124.1274997  80.3749988  23.2330012 125.3144997  81.7019988
  23.5460012 126.1284997  79.8349988  24.0430012 127.0504997  80.2049988
  23.8920012 125.8344997  78.8199988  22.0290012 126.4414997  79.6889988
  21.4610012 125.4934997  79.5699988  21.6910012 127.0134997  80.5789988
  21.7610012 127.3254997  78.4139988  20.7050012 127.6534997  78.5219988
  22.4630012 128.1864997  78.4329988  21.8880012 126.5804997  77.0439988
  21.5220012 127.2234997  76.2149988  22.9790012 126.3834997  76.9799988
  21.0250012 125.3324997  76.9119988  21.3850012 124.5324997  77.5939988
  20.0070012 125.6824997  77.1869988  21.0190012 124.7784997  75.5049988
  20.0360012 124.2854997  75.3509988  21.0460012 125.6924997  74.8739988
  22.1460012 123.7534997  75.2499988  23.1520012 124.2044997  75.3859988
  21.8790012 122.9154997  75.9279988  22.0790012 123.0894997  73.8449988
  21.1180012 123.2154997  73.3009988  22.8250012 123.5644997  73.1729988
  22.3530012 121.5924997  73.8819988  23.3640012 121.4434997  74.3189988
  21.5440012 121.2004997  74.5349988  22.1690012 120.9644997  72.5249988
  22.3690012 119.8744997  72.6099988  21.2610012 121.3084997  71.9849988
  23.2920012 121.4134997  71.5159988  23.2620012 122.5084997  71.3289988
  24.2600012 121.2424997  72.0339988  23.2910012 120.6134997  70.2569988
  22.4240012 119.8684997  69.9069988  24.3440012 120.9864997  69.4939988
  24.4290012 120.3124997  68.2009988  25.5240012 120.1624997  68.0839988
  23.9900012 119.2914997  68.1899988  23.7910012 121.1334997  67.0939988
  22.7290012 121.0734997  67.4139988  24.1490012 120.6284997  65.7319988
  24.4080012 119.5534997  65.8349988  23.3110012 120.8274997  65.0309988
  25.3010012 121.2754997  65.0949988  25.6510012 121.0744997  63.5599988
  26.0480012 122.4504997  62.9899988  26.3580012 123.5424997  63.9389988
  26.8410012 123.1984997  64.8779988  27.0170012 124.3234997  63.5019988
  25.1230012 124.3784997  64.2649988  24.5660012 123.8784997  65.0439988
  25.4310012 125.2974997  64.7419988  24.2060012 124.9054997  63.2159988
  23.6260012 123.8394997  62.3679988  24.2290012 123.5204997  61.5299988
  23.3970012 122.9464997  62.9309988  22.6480012 124.1504997  62.0319988
  22.9400012 125.4334997  63.9479988  22.2420012 125.8854997  63.2579988
  22.3810012 124.6204997  64.3869988  23.2190012 126.1294997  64.7239988
  24.9090012 126.0164997  62.4249988  25.3330012 126.7694997  63.0729988
  24.2800012 126.3954997  61.6329988  25.7720012 125.6594997  61.8829988
  26.7760012 120.1044997  63.5739988  24.4780012 120.5394997  62.8009988
  24.2440012 122.5094997  67.3119988  23.3710012 123.4934997  67.7199988
  22.1550012 123.4684997  67.6559988  24.2590012 124.6214997  68.3169988
  23.6490012 125.5344997  68.1479988  25.1390012 124.8644997  67.6839988
  24.7740012 124.2604997  69.7049988  25.1300012 123.2074997  69.7009988
  23.8630012 124.2924997  70.3399988  25.7760012 125.1624997  70.3659988
  25.4810012 126.2074997  70.1309988  26.7670012 125.0744997  69.8719988
  25.8170012 125.0604997  71.8579988  24.8010012 125.4834997  72.0129988
  26.4820012 125.8794997  72.2059988  26.2110012 123.6654997  72.4079988
  25.6510012 122.9814997  71.7349988  25.8300012 123.5694997  73.4469988
  27.6950012 123.2544997  72.2539988  28.2990012 123.9554997  72.8689988
  28.0770012 123.3314997  71.2139988  28.1120012 121.8204997  72.8459988
  27.6850012 121.7664997  73.8699988  29.2170012 121.7274997  72.9179988
  27.7300012 120.5424997  72.1079988  28.3350012 120.2914997  71.2239988
  26.7370012 119.6454997  72.4349988  26.5500012 118.8754997  71.6719988
  25.7120012 119.5894997  73.5109988  24.7140012 119.3104997  73.1099988
  25.5780012 120.5674997  74.0209988  25.9610012 118.4814997  74.5729988
  27.0230012 118.5934997  74.8789988  25.9330012 117.5064997  74.0409988
  24.9920012 118.2854997  75.7469988  25.0240012 117.2634997  76.1809988
  23.9810012 118.3024997  75.2859988  25.1050012 119.2144997  76.9599988
  25.1570012 120.2514997  76.5659988  26.0370012 118.9894997  77.5229988
  23.9290012 119.1554997  78.0299988  23.7650012 118.1234997  78.4059988
  23.0220012 119.4904997  77.4809988  24.0030012 120.2304997  79.1269988
  23.1530012 120.2014997  79.8409988  24.0340012 121.2734997  78.7459988
  25.1710012 120.0054997  80.1609988  26.1230012 120.3954997  79.7419988
  25.4120012 118.9364997  80.3469988  25.0980012 120.6964997  81.5159988
  24.9000012 121.7894997  81.5479988  26.0690012 120.6374997  82.0529988
  24.3080012 120.2644997  82.1659988 136.8350012  50.5704997  84.0949988
 136.2440012  49.6394997  83.9619988 136.2310012  51.3844997  84.5519988
 137.6240012  50.4674997  84.8699988 137.5700012  50.9674997  82.7759988
 138.3770012  51.6754997  83.0619988 138.1090012  50.0284997  82.5269988
 136.7480012  51.4314997  81.6129988 136.0150012  50.6484997  81.3199988
 136.2790012  52.2964997  82.1289988 137.5790012  52.0444997  80.5089988
 138.4440012  52.6264997  80.8939988 137.9670012  51.2154997  79.8799988
 136.8460012  52.9224997  79.4869988 136.2270012  52.1894997  78.9269988
 136.2020012  53.6824997  79.9779988 137.7870012  53.5694997  78.4619988
 138.6600012  54.1784997  78.7809988 138.2110012  52.6974997  77.9209988
 137.0250012  54.4144997  77.3969988 136.6060012  53.7094997  76.6469988
 136.2060012  54.9874997  77.8819988 137.9700012  55.3164997  76.5809988
 137.3670012  55.9464997  75.8929988 138.5260012  56.0074997  77.2499988
 138.9200012  54.3894997  75.7429988 139.5560012  53.8024997  76.4399988
 138.4080012  53.5914997  75.1639988 139.9270012  55.1724997  74.8509988
 139.2460012  55.7304997  74.1749988 140.5310012  55.9664997  75.3399988
 140.9440012  54.2864997  74.1449988 141.4400012  54.8764997  73.3449988
 141.7360012  53.9764997  74.8599988 140.3520012  53.0114997  73.4789988
 140.1830012  52.3204997  74.3319988 139.4730012  53.2684997  72.8499988
 141.4630012  52.2324997  72.7429988 141.8300012  52.7514997  71.8319988
 142.3070012  51.9914997  73.4239988 140.8590012  50.9724997  72.1709988
 140.5300012  50.2734997  72.9699988 139.9960012  51.3804997  71.6039988
 141.5230012  50.1334997  71.0349988 141.9610012  50.7834997  70.2479988
 142.3920012  49.5444997  71.4009988 140.6460012  49.0864997  70.3939988
 140.7520012  47.8874997  70.4529988 139.7880012  49.7934997  69.6849988
 138.9300012  48.9734997  68.8889988 139.5320012  48.1414997  68.4659988
 138.1030012  48.7354997  69.5919988 138.4820012  49.8754997  67.7239988
 137.7020012  49.3534997  67.1309988 139.6100012  50.3154997  66.8649988
 140.2690012  50.9674997  67.4779988 140.1610012  49.3914997  66.5879988
 139.1590012  50.9834997  65.6769988 140.3860012  51.5804997  64.7809988
 139.6850012  52.3134997  63.5329988 138.7780012  53.4034997  63.7489988
 138.2080012  53.1014997  64.6539988 139.2320012  54.4144997  63.8269988
 137.6330012  53.4914997  62.6549988 136.8790012  54.0654997  63.1719988
 137.9730012  54.0344997  61.7849988 136.9930012  52.2164997  62.1189988
 137.9720012  51.3324997  61.2829988 137.3890012  50.4814997  60.9619988
 138.3460012  51.9834997  60.5069988 138.8090012  50.9764997  61.8659988
 136.4700012  51.4044997  63.2839988 137.2940012  51.3534997  63.9809988
 135.6870012  51.9604997  63.7779988 136.0370012  50.4294997  63.1179988
 135.7660012  52.6494997  61.2519988 135.0770012  53.2614997  61.8159988
 135.2080012  51.7284997  61.1739988 136.0510012  53.0794997  60.3029988
 141.0850012  52.6084997  65.6349988 141.1410012  50.4434997  64.2119988
 137.7410012  50.9964997  68.1779988 136.6480012  51.0224997  68.8689988
 135.9700012  50.0784997  69.2249988 136.3870012  52.4804997  69.1699988
 135.8420012  52.9284997  68.3119988 137.3680012  52.9914997  69.2829988
 135.5060012  52.6844997  70.3999988 134.5780012  52.0844997  70.2839988
 135.0450012  53.6954997  70.3879988 136.1930012  52.3054997  71.6859988
 137.1380012  52.8814997  71.7749988 136.3750012  51.2094997  71.6969988
 135.2720012  52.4724997  72.9719988 134.3790012  51.8624997  72.7169988
 135.0520012  53.5604997  73.0199988 135.9670012  52.0604997  74.2849988
 135.5480012  52.6774997  75.1079988 137.0540012  52.2854997  74.2329988
 135.7200012  50.5464997  74.6579988 134.6130012  50.4444997  74.6519988
 136.0450012  50.4174997  75.7129988 136.4630012  49.4984997  73.8429988
 137.4910012  49.9204997  73.8319988 136.0590012  49.3314997  72.8219988
 136.3900012  48.1824997  74.5629988 135.5100012  47.5614997  74.3419988
 137.2940012  47.6434997  75.3899988 137.1230012  46.5724997  75.5759988
 138.6350012  48.1444997  75.8629988 139.1380012  48.7824997  75.1049988
 139.3050012  47.2734997  76.0229988 138.5880012  49.0014997  77.1369988
 137.9370012  48.4894997  77.8769988 138.2670012  50.0314997  76.8699988
 140.0030012  49.1864997  77.8209988 140.5860012  48.2444997  77.9109988
 139.8180012  49.4794997  78.8769988 141.0250012  50.0854997  77.0619988
 140.5990012  51.0564997  76.7299988 141.2500012  49.3994997  76.2179988
 142.2610012  50.2674997  77.9269988 143.1270012  50.2084997  77.2339988
 142.4820012  49.4264997  78.6189988 142.3370012  51.5824997  78.6969988
 141.8420012  52.3404997  78.0519988 143.3890012  51.8594997  78.9229988
 141.6100012  51.4584997  80.0499988 142.0140012  50.7314997  80.7869988
 140.5580012  51.1904997  79.8129988 141.6190012  52.8364997  80.8829988
 141.1800012  53.7044997  80.3469988 142.6950012  53.0474997  81.0619988
 141.0370012  52.6444997  81.8099988  86.4670012 135.2454997  81.2319988
  86.4910012 135.2114997  82.3419988  85.6630012 135.9164997  80.8619988
  87.3400012 135.7484997  80.7629988  86.3470012 133.7844997  80.5919988
  86.8380012 133.7564997  79.5949988  86.8440012 133.0534997  81.2639988
  84.9180012 133.4584997  80.0979988  84.9160012 132.3834997  79.8169988
  84.1600012 133.6524997  80.8859988  84.3540012 134.1184997  78.8579988
  84.5000012 135.2134997  78.9789988  85.0430012 133.9524997  78.0019988
  82.8340012 133.8904997  78.5229988  82.8720012 132.8714997  78.0809988
  82.2330012 133.8314997  79.4559988  82.2610012 134.8934997  77.4649988
  82.9940012 135.1134997  76.6599988  81.3030012 134.6034997  76.9829988
  81.9100012 136.2954997  78.1939988  81.1660012 136.0934997  78.9929988
  82.7850012 136.7444997  78.7109988  81.2200012 137.3624997  77.2969988
  80.2590012 136.9914997  76.8799988  81.1580012 138.2754997  77.9259988
  82.0280012 137.6484997  76.0769988  83.0530012 138.0594997  76.1959988
  82.0720012 136.7264997  75.4589988  81.3720012 138.7854997  75.1319988
  80.2880012 138.6254997  75.3119988  81.6390012 139.8194997  75.4389988
  81.6780012 138.5464997  73.6029988  81.3940012 137.5244997  73.2729988
  81.0340012 139.3174997  73.1279988  83.1520012 138.7664997  73.1759988
  83.5040012 139.8004997  73.3809988  83.8050012 138.1724997  73.8499988
  83.3580012 138.4584997  71.6829988  83.3150012 137.3494997  71.7249988
  82.4670012 138.8254997  71.1299988  84.6860012 139.0084997  71.0529988
  84.8260012 140.1004997  71.1979988  85.5390012 138.8384997  71.7439988
  84.9970012 138.5264997  69.5809988  83.9800012 138.4794997  69.1349988
  85.6910012 139.3024997  69.1939988  85.6720012 137.1474997  69.6369988
  85.9430012 136.5154997  70.6099988  85.9090012 136.7774997  68.3359988
  86.3660012 135.4604997  68.1159988  87.2490012 135.4974997  67.4419988
  86.7400012 134.9384997  69.0219988  85.2960012 134.4744997  67.4979988
  85.8000012 133.4854997  67.4479988  84.9340012 134.8904997  66.0989988
  85.8860012 134.8674997  65.5259988  84.3910012 134.0434997  65.6279988
  84.2390012 136.1374997  66.2439988  83.1450012 136.6004997  65.1129988
  84.0600012 136.9274997  63.8879988  83.9460012 136.3324997  62.6009988
  83.3110012 135.4224997  62.5619988  83.5340012 137.1204997  61.9349988
  85.3280012 136.0914997  61.9799988  85.7210012 135.2024997  62.4509988
  85.0350012 135.8234997  60.9749988  86.3780012 137.1364997  61.9939988
  87.6080012 136.7054997  61.2049988  87.9930012 135.8014997  61.6549988
  87.4860012 136.5684997  60.1409988  88.4010012 137.4284997  61.3219988
  85.8910012 138.4364997  61.3189988  85.8910012 138.2434997  60.2559988
  84.9110012 138.6604997  61.7139988  86.5740012 139.2694997  61.3929988
  86.6870012 137.5554997  63.4289988  87.6030012 138.1284997  63.4449988
  86.6030012 136.6654997  64.0339988  85.8050012 138.1004997  63.7329988
  82.2770012 135.4244997  64.8229988  82.5300012 137.8774997  65.5849988
  84.1270012 134.5244997  68.3309988  83.6800012 133.4684997  68.8699988
  84.0830012 132.3054997  68.6079988  82.7330012 133.8634997  70.0079988
  81.7530012 133.4284997  69.7159988  82.5850012 134.8954997  70.3919988
  83.0500012 133.1644997  71.4279988  83.4500012 132.1434997  71.2489988
  82.0930012 133.0984997  71.9889988  84.0370012 133.8904997  72.3109988
  83.6500012 134.9314997  72.3029988  85.0190012 133.9024997  71.7909988
  84.1460012 133.2684997  73.7339988  84.0540012 132.1824997  73.5169988
  83.3440012 133.6204997  74.4179988  85.5570012 133.4714997  74.4019988
  86.2910012 133.0704997  73.6709988  85.5730012 132.7984997  75.2859988
  85.8900012 134.9194997  74.7689988  85.0040012 135.3644997  75.2709988
  86.0800012 135.5054997  73.8449988  87.0870012 135.0954997  75.7409988
  87.9500012 134.5564997  75.2949988  86.8110012 134.7434997  76.7579988
  87.6390012 136.4834997  75.9009988  88.5270012 136.7624997  75.3149988
  87.2550012 137.4354997  76.7519988  87.6050012 138.4704997  76.6179988
  86.1340012 137.3194997  77.7919988  86.6610012 137.0454997  78.7319988
  85.5030012 136.4224997  77.6129988  85.3120012 138.6044997  77.9219988
  84.2320012 138.3714997  78.0309988  85.3950012 139.2144997  76.9969988
  85.8750012 139.3974997  79.1029988  86.9000012 139.6914997  78.7929988
  85.8640012 138.6974997  79.9659988  85.0890012 140.6484997  79.4889988
  85.0070012 141.3884997  78.6639988  85.6660012 141.0194997  80.3629988
  83.7090012 140.4284997  80.0779988  83.1110012 140.2644997  79.1549988
  83.4780012 141.3974997  80.5699988  83.6300012 139.2614997  81.0989988
  84.4030012 139.4284997  81.8799988  83.9100012 138.2524997  80.7289988
  82.2380012 139.2194997  81.8569988  81.5490012 138.8054997  81.0899988
  82.1560012 140.2974997  82.1129988  82.0780012 138.2854997  83.0189988
  82.3840012 137.3074997  82.5899988  81.0500012 138.2624997  83.4399988
  82.7570012 138.6974997  83.7959988  18.1150012 116.1024997  83.0319988
  18.1760012 115.0484997  82.6889988  17.1830012 116.2484997  83.6199988
  19.0380012 116.2974997  83.6189988  18.2660012 116.9134997  81.6989988
  19.2180012 116.6564997  81.1869988  17.4640012 116.4694997  81.0709988
  18.1830012 118.4494997  81.8489988  17.1770012 118.6774997  82.2609988
  18.9930012 118.7564997  82.5449988  18.5600012 119.3244997  80.6369988
  18.1310012 120.3474997  80.7019988  19.6490012 119.4234997  80.4399988
  18.1710012 118.7454997  79.2099988  18.4850012 117.6794997  79.2099988
  17.0610012 118.7664997  79.1559988  18.7370012 119.4464997  78.0189988
  18.2000012 120.4064997  77.8639988  19.8190012 119.6704997  77.9089988
  18.6410012 118.5864997  76.7579988  19.4680012 117.8474997  76.8229988
  17.6250012 118.1404997  76.6939988  18.7500012 119.3854997  75.4259988
  17.9880012 120.1924997  75.4339988  19.7770012 119.8104997  75.4209988
  18.7350012 118.5414997  74.1359988  19.5480012 117.8074997  74.3209988
  17.7730012 117.9874997  74.1009988  18.9500012 119.3314997  72.8449988
  19.8090012 119.9944997  73.0879988  19.1090012 118.7814997  71.8919988
  17.8080012 120.1824997  72.4659988  16.9250012 119.6154997  72.1009988
  17.4460012 120.7494997  73.3499988  18.1470012 121.2334997  71.4199988
  17.3170012 121.9634997  71.3039988  18.9880012 121.8574997  71.7879988
  18.4410012 120.5874997  70.1149988  19.3460012 119.9534997  70.2319988
  17.6650012 119.8534997  69.8089988  18.6700012 121.5634997  68.9879988
  17.8050012 122.1234997  68.5719988  19.3050012 122.3734997  69.4069988
  19.1720012 120.9154997  67.6849988  18.6750012 119.9234997  67.6469988
  18.9480012 121.5324997  66.7879988  20.6880012 120.5914997  67.6859988
  21.5140012 120.7894997  68.5459988  20.9160012 120.2114997  66.4769988
  22.3150012 120.2574997  65.9529988  22.2780012 120.5994997  64.8969988
  22.9410012 120.9694997  66.5319988  22.8310012 118.8484997  65.8859988
  23.8160012 118.9774997  65.3889988  22.0280012 117.9444997  64.9099988
  22.0440012 118.5404997  63.9719988  22.5370012 116.9874997  64.6669988
  20.6410012 117.7144997  65.3529988  19.7180012 116.7374997  64.5519988
  19.1410012 117.5934997  63.3549988  18.6760012 118.9094997  63.5869988
  17.9870012 119.0154997  64.4519988  19.5870012 119.5374997  63.6859988
  17.5850012 119.2694997  62.5819988  17.1040012 120.1944997  62.8649988
  17.9660012 119.4484997  61.5869988  16.4510012 118.2594997  62.3969988
  16.8520012 117.1074997  61.5599988  17.6120012 116.6194997  62.1529988
  16.0010012 116.4624997  61.3999988  17.2900012 117.5144997  60.6609988
  15.9540012 117.7324997  63.7069988  16.7110012 116.9994997  63.9469988
  15.9350012 118.5394997  64.4239988  15.0100012 117.2274997  63.5609988
  15.3520012 119.0834997  61.6319988  15.8090012 119.4494997  60.7249988
  15.1680012 120.0234997  62.1309988  14.5300012 118.3884997  61.5479988
  20.6090012 115.6954997  63.8989988  18.6500012 116.2714997  65.5579988
  22.9530012 118.3544997  67.2359988  23.7710012 117.2874997  67.3919988
  24.1090012 116.5304997  66.4709988  24.1140012 117.0734997  68.9189988
  24.5600012 117.9424997  69.4489988  24.7950012 116.1964997  68.9669988
  22.6990012 116.6544997  69.4949988  22.2920012 115.7254997  69.0409988
  21.8490012 117.3654997  69.4209988  22.8000012 116.3314997  70.9799988
  23.7480012 115.7604997  71.0679988  21.9150012 115.7204997  71.2609988
  22.8570012 117.6144997  71.7979988  22.0360012 118.2424997  71.3919988
  23.6980012 118.2944997  71.5439988  22.7600012 117.4484997  73.4149988
  21.8920012 116.7624997  73.5149988  22.3540012 118.3984997  73.8229988
  24.0190012 116.9264997  74.1199988  24.9330012 117.5044997  73.8629988
  24.2630012 115.8894997  73.8049988  23.9190012 116.8814997  75.6869988
  23.5760012 117.8414997  76.1289988  24.9750012 116.6594997  75.9549988
  23.0740012 115.7684997  76.2449988  23.1760012 114.8864997  75.5959988
  22.3400012 115.8664997  77.2969988  21.7880012 114.9474997  77.5439988
  22.0310012 117.0374997  78.2169988  21.0730012 116.9514997  78.7729988
  22.0480012 117.9964997  77.6569988  23.1060012 117.1594997  79.3429988
  24.1290012 117.2604997  78.9229988  23.0680012 116.2274997  79.9469988
  22.9110012 118.3374997  80.2149988  23.6530012 118.2514997  81.0369988
  21.8990012 118.2404997  80.6619988  22.8700012 119.6964997  79.5489988
  21.8700012 119.7714997  79.0699988  23.6970012 119.8414997  78.8219988
  22.9200012 120.9074997  80.5059988  22.8340012 121.7134997  79.7459988
  23.9340012 120.9374997  80.9569988  21.7740012 121.2044997  81.4949988
  20.8410012 121.0624997  80.9089988  21.8370012 122.2714997  81.7969988
  21.8290012 120.3904997  82.8259988  22.0800012 119.3234997  82.6439988
  20.8000012 120.3654997  83.2429988  22.7750012 120.9404997  83.9099988
  22.8170012 120.2474997  84.7769988  22.5490012 121.9424997  84.3329988
  23.7770012 121.1274997  83.4679988  36.9910012  18.3084997  82.3119988
  37.8080012  18.6014997  83.0049988  36.6260012  17.2724997  82.4839988
  36.1560012  18.9824997  82.5999988  37.4860012  18.5584997  80.8939988
  36.5970012  18.4934997  80.2299988  38.0220012  19.5294997  80.9609988
  38.5780012  17.6354997  80.3679988  39.3580012  17.5414997  81.1539988
  38.0360012  16.6734997  80.2459988  39.2110012  18.0714997  79.0519988
  39.8510012  18.9744997  79.1429988  39.6570012  17.1144997  78.7079988
  38.2150012  18.4444997  77.9359988  37.6040012  17.5354997  77.7479988
  37.5350012  19.2544997  78.2779988  38.7210012  18.9764997  76.5729988
  37.9120012  19.3974997  75.9379988  39.4710012  19.7384997  76.8749988
  39.5210012  17.8244997  75.7479988  40.2510012  18.1774997  74.9889988
  40.1130012  17.1964997  76.4469988  38.7020012  16.6744997  75.1099988
  39.3950012  15.8824997  74.7539988  38.0720012  16.2254997  75.9069988
  37.9750012  17.1124997  73.8149988  37.6100012  18.1054997  74.1539988
  38.7470012  17.1574997  73.0169988  36.8240012  16.2464997  73.3749988
  37.2150012  15.5534997  72.5999988  36.4360012  15.6874997  74.2529988
  35.6370012  17.0384997  72.9029988  35.4290012  17.7944997  73.6899988
  36.0130012  17.5724997  72.0039988  34.3920012  16.1894997  72.8049988
  34.1100012  15.8364997  73.8199988  33.5450012  16.9094997  72.7869988
  34.3050012  15.1424997  71.6659988  35.1640012  14.4694997  71.8749988
  33.4320012  14.4554997  71.7079988  34.5550012  15.5874997  70.1519988
  35.6020012  15.9544997  70.2079988  34.4840012  14.6904997  69.4989988
  33.7040012  16.7344997  69.7029988  32.6720012  16.3404997  69.8159988
  33.9340012  17.5974997  70.3649988  33.6820012  17.0314997  68.2289988
  33.5060012  16.1954997  67.3819988  33.9410012  18.2704997  68.0169988
  34.0940012  18.7754997  66.6959988  33.7360012  18.1424997  65.8559988
  33.7720012  19.8224997  66.5089988  35.6390012  19.0654997  66.5739988
  36.0120012  19.9364997  67.1539988  35.8810012  19.5254997  65.1539988
  35.2360012  20.4074997  64.9489988  36.9270012  19.8604997  64.9919988
  35.5460012  18.5354997  64.2689988  36.4040012  17.8114997  63.1689988
  37.1620012  16.6524997  63.9779988  36.5250012  15.3354997  64.2339988
  35.7340012  15.4874997  64.9999988  36.0810012  15.0074997  63.2699988
  37.5690012  14.2804997  64.5579988  38.1040012  14.4004997  65.4879988
  37.0660012  13.3244997  64.5599988  38.6680012  14.1424997  63.5629988
  39.6550012  15.2744997  63.4779988  40.4450012  15.1214997  62.7579988
  39.1100012  16.1724997  63.2279988  40.1500012  15.4364997  64.4239988
  39.4500012  12.8654997  63.8549988  39.9010012  12.9614997  64.8309988
  38.6850012  12.1084997  63.9419988  40.2460012  12.7724997  63.1309988
  38.0430012  13.8484997  62.2059988  37.3050012  13.1084997  62.4769988
  38.8410012  13.4594997  61.5899988  37.6070012  14.7624997  61.8299988
  35.4220012  17.3054997  62.1589988  37.4780012  18.7184997  62.7129988
  36.3680012  17.8244997  66.7989988  37.5350012  17.9574997  67.4129988
  38.0540012  18.9944997  67.7689988  38.1550012  16.6014997  67.6289988
  38.8480012  16.5014997  66.7659988  37.5170012  15.7214997  67.4009988
  39.0430012  16.5284997  68.8309988  38.3610012  16.5004997  69.7079988
  39.6420012  17.4564997  68.9509988  39.8260012  15.1884997  68.9539988
  40.5850012  15.2054997  68.1429988  39.1850012  14.2844997  68.8799988
  40.6060012  15.0944997  70.2089988  40.0490012  15.5514997  71.0559988
  41.4670012  15.7704997  70.0219988  41.1070012  13.6704997  70.5169988
  41.8790012  13.7374997  71.3119988  41.4210012  13.2924997  69.5199988
  40.0200012  12.7174997  70.8819988  40.5330012  11.7384997  70.9999988
  39.2370012  12.5964997  70.1029988  39.3380012  13.2014997  72.2199988
  38.9390012  14.2224997  72.0389988  40.2180012  13.1894997  72.8989988
  38.1700012  12.3404997  72.6079988  37.4910012  11.9304997  71.8449988
  37.9310012  11.9174997  73.8959988  37.0060012  11.3764997  74.1419988
  38.7310012  12.3324997  75.1139988  38.8190012  13.4394997  75.1709988
  39.7620012  11.9214997  75.0829988  38.0610012  11.8404997  76.4589988
  38.9450012  11.8124997  77.1319988  37.7490012  10.7904997  76.2749988
  36.7900012  12.5654997  76.8709988  35.9270012  11.8674997  76.8209988
  36.5800012  13.3674997  76.1319988  36.8620012  13.0284997  78.3419988
  37.7030012  13.7444997  78.4659988  37.0450012  12.1094997  78.9399988
  35.6390012  13.7394997  78.8909988  35.7840012  13.8124997  79.9899988
  34.7630012  13.0714997  78.7469988  35.2950012  15.1594997  78.3799988
  35.0840012  15.0914997  77.2909988  36.1920012  15.7934997  78.5469988
  34.0790012  15.7224997  79.2079988  33.9550012  16.8024997  78.9769988
  34.3090012  15.7164997  80.2949988  32.7060012  15.0784997  78.9769988
  32.2190012  15.4024997  78.0319988  31.9700012  15.4204997  79.7349988
  32.8350012  13.9794997  78.8839988  42.3660012   9.4114997  82.5789988
  42.0680012   8.7584997  81.7309988  41.5980012   9.5784997  83.3639988
  43.2440012   8.9744997  83.1019988  42.6670012  10.8414997  81.9989988
  43.5180012  10.5584997  81.3429988  41.7620012  11.0694997  81.3969988
  43.0320012  11.9404997  83.0309988  42.0880012  11.9024997  83.6139988
  43.9490012  11.7114997  83.6159988  43.3430012  13.3654997  82.4819988
  42.6680012  13.6794997  81.6569988  43.3080012  14.2764997  83.1159988
  44.8000012  13.4204997  82.0049988  45.3970012  13.4644997  82.9409988
  44.9700012  12.3894997  81.6269988  45.1400012  14.4474997  80.8629988
  44.9080012  15.4834997  81.1909988  46.2500012  14.4474997  80.8199988
  44.5540012  13.9654997  79.4819988  45.3590012  13.3274997  79.0599988
  43.6450012  13.3554997  79.6689988  44.1660012  15.1514997  78.5119988
  43.6920012  14.6804997  77.6249988  43.4900012  15.8754997  79.0149988
  45.5010012  15.8534997  78.0459988  45.9600012  16.5034997  78.8209988
  46.2740012  15.1254997  77.7179988  45.2570012  16.7624997  76.8829988
  44.5660012  16.2024997  76.2179988  44.6620012  17.6614997  77.1519988
  46.5630012  17.2124997  76.1559988  46.4460012  18.2674997  75.8299988
  47.2850012  17.0724997  76.9889988  46.9560012  16.3524997  74.8879988
  46.3360012  16.6054997  74.0009988  48.0260012  16.6184997  74.7509988
  46.7940012  14.7974997  75.1409988  47.3690012  14.5754997  76.0649988
  45.7350012  14.4684997  75.2089988  47.4110012  13.8564997  74.0549988
  48.4850012  14.1404997  74.0819988  47.2210012  12.7744997  74.2169988
  46.7700012  14.2084997  72.6849988  45.7060012  14.0004997  72.9279988
  46.8280012  15.2784997  72.3899988  47.2350012  13.3524997  71.5459988
  48.3930012  12.9514997  71.4219988  46.2770012  13.1214997  70.5899988
  46.6590012  12.2704997  69.5629988  47.7080012  12.5024997  69.2799988
  46.6000012  11.2374997  69.9669988  45.9150012  12.3484997  68.2669988
  46.1190012  11.4074997  67.7129988  46.3750012  13.5834997  67.5009988
  46.1740012  14.4984997  68.0969988  47.4800012  13.6564997  67.4169988
  45.7630012  13.6954997  66.2179988  46.3710012  12.9544997  64.9539988
  45.2300012  13.2234997  63.8599988  44.0530012  12.5214997  63.9559988
  43.7080012  12.3254997  64.9929988  43.3200012  13.2364997  63.5269988
  43.9440012  11.1104997  63.3059988  44.5340012  10.4074997  63.8749988
  42.9500012  10.6914997  63.3659988  44.3850012  10.8094997  61.9179988
  43.8620012  11.9144997  60.9289988  44.2340012  11.7154997  59.9349988
  42.7880012  11.8294997  60.8579988  44.1480012  12.8794997  61.3199988
  45.9130012  10.8834997  61.7759988  46.1500012  11.9044997  62.0389988
  46.2830012  10.2214997  62.5449988  46.1480012  10.5994997  60.7609988
  44.0500012   9.4394997  61.4559988  42.9830012   9.3244997  61.3349988
  44.4050012   8.8064997  62.2559988  44.4190012   9.2684997  60.4549988
  47.5800012  13.6844997  64.4169988  46.5540012  11.5434997  65.3909988
  44.4820012  12.3894997  68.5399988  43.8950012  11.2384997  68.8319988
  44.3990012  10.1844997  68.7379988  42.5660012  11.4864997  69.4209988
  41.7150012  10.9734997  68.9239988  42.3310012  12.5564997  69.6039988
  42.5200012  10.7554997  70.8489988  43.0190012   9.7734997  70.9929988
  41.4400012  10.7194997  71.1079988  43.1720012  11.5534997  71.9879988
  42.7260012  12.5704997  72.0419988  44.2790012  11.6194997  71.9209988
  42.8980012  10.8674997  73.3079988  43.4430012   9.9084997  73.4429988
  41.8120012  10.6364997  73.2959988  43.3090012  11.7934997  74.5119988
  42.6520012  11.6494997  75.3959988  43.2710012  12.8954997  74.3769988
  44.7660012  11.6634997  74.9649988  45.1920012  12.5474997  75.4879988
  45.3140012  11.7014997  73.9999988  45.1740012  10.3254997  75.5739988
  46.2710012  10.4644997  75.6819988  44.9300012   9.4654997  74.9139988
  44.4260012  10.2244997  76.8739988  43.3350012  10.1544997  76.7479988
  44.9390012  10.2534997  78.1069988  44.2590012   9.9814997  78.9279988
  46.3900012  10.3854997  78.3679988  46.7810012  11.2814997  77.8409988
  47.0810012   9.5594997  78.0929988  46.5980012  10.8364997  79.7949988
  45.6860012  11.2894997  80.2369988  47.2430012  11.7404997  79.8359988
  46.9970012   9.8084997  80.8979988  46.0870012   9.1794997  80.9919988
  47.3030012  10.3884997  81.7959988  48.1280012   8.7984997  80.6289988
  47.7900012   8.0724997  79.8589988  48.3700012   8.2634997  81.5719988
  49.4580012   9.4784997  80.1969988  49.4190012  10.0774997  79.2619988
  50.2430012   8.7464997  79.9079988  49.9310012  10.5724997  81.2429988
  49.2640012  11.4594997  81.2079988  50.9570012  10.8964997  80.9679988
  49.9270012   9.9894997  82.6679988  50.2360012   8.9344997  82.5099988
  48.9920012   9.8164997  83.2409988  50.9270012  10.6624997  83.6319988
  51.9180012  10.8354997  83.1619988  51.0540012   9.9834997  84.5029988
  50.6080012  11.6634997  83.9929988 135.1230012  96.9134997  79.8229988
 135.7460012  96.2174997  80.4239988 134.0230012  96.9284997  79.9719988
 135.5710012  97.8764997  80.1499988 135.4070012  96.7754997  78.3019988
 136.4940012  96.6964997  78.0849988 134.9140012  95.8254997  78.0049988
 134.6650012  97.8964997  77.4939988 133.7380012  98.2194997  78.0139988
 135.2470012  98.8234997  77.3049988 134.1490012  97.2454997  76.1469988
 133.6610012  96.2904997  76.4369988 133.3250012  97.7764997  75.6259988
 135.2860012  96.9054997  75.1449988 136.1000012  96.5084997  75.7879988
 134.9200012  96.0824997  74.4939988 135.8360012  98.1234997  74.4489988
 136.4220012  98.7214997  75.1789988 136.6890012  97.8384997  73.7959988
 134.7810012  99.0244997  73.7259988 134.4080012  98.5264997  72.8049988
 133.9200012  99.3234997  74.3619988 135.4730012 100.2744997  73.2149988
 135.9870012 100.7284997  74.0889988 136.2630012 100.1874997  72.4379988
 134.4310012 101.3834997  72.7449988 133.6960012 101.4474997  73.5759988
 135.0480012 102.3044997  72.6659988 133.6550012 101.1394997  71.4269988
 132.8780012 100.3554997  71.5459988 133.2220012 102.0804997  71.0249988
 134.6270012 100.6434997  70.2979988 135.0760012  99.6574997  70.5419988
 133.9760012 100.4354997  69.4219988 135.6850012 101.6194997  69.9119988
 135.2770012 102.6524997  69.8769988 136.4390012 101.7664997  70.7139988
 136.3800012 101.3204997  68.5899988 135.7740012 101.4614997  67.6699988
 137.1980012 102.0714997  68.5529988 136.9970012  99.9224997  68.5669988
 137.8770012  99.7864997  69.2309988 136.2840012  99.1514997  68.9279988
 137.4780012  99.4984997  67.1599988 136.6310012  99.6224997  66.4509988
 138.3250012 100.1294997  66.8169988 138.0030012  98.0804997  67.1859988
 138.2650012  97.4944997  68.1969988 138.2570012  97.6874997  65.9429988
 138.9530012  96.4684997  65.8259988 139.8490012  96.6214997  65.1869988
 139.3200012  96.0134997  66.7709988 138.0770012  95.2954997  65.2109988
 138.7330012  94.4004997  65.2549988 137.8130012  95.5394997  63.7819988
 138.6840012  95.7204997  63.1159988 137.2880012  94.6574997  63.3559988
 136.7960012  96.5634997  63.7919988 136.3180012  97.2204997  62.3759988
 134.7750012  97.3344997  62.6599988 134.2060012  97.7714997  63.8789988
 134.8790012  98.5094997  64.3649988 133.2700012  98.3394997  63.6869988
 133.8050012  96.5914997  64.8709988 134.6690012  95.9484997  64.9489988
 133.5860012  97.0284997  65.8339988 132.7130012  95.7004997  64.3649988
 133.0450012  94.8734997  63.2029988 133.8540012  94.2344997  63.5239988
 132.1760012  94.3344997  62.8539988 133.4870012  95.3784997  62.3569988
 132.2600012  94.7864997  65.4659988 132.0350012  95.4354997  66.2999988
 131.2890012  94.3404997  65.3119988 132.9890012  94.0164997  65.6749988
 131.4890012  96.5594997  64.0519988 131.6950012  97.2774997  63.2709988
 131.3180012  97.0854997  64.9799988 130.7280012  95.8284997  63.8219988
 136.9970012  98.4974997  62.3109988 136.5370012  96.2954997  61.2069988
 136.8080012  95.1564997  65.9929988 136.8510012  94.6124997  67.3059988
 137.8700012  94.1664997  67.7289988 135.4030012  94.5044997  67.8679988
 135.2200012  93.4454997  67.5839988 134.6440012  95.0704997  67.2859988
 135.4840012  94.6174997  69.4019988 136.2300012  93.8944997  69.7949988
 134.5000012  94.2764997  69.7889988 135.7900012  96.0064997  70.0369988
 134.8560012  96.5794997  70.2189988 136.5100012  96.5964997  69.4309988
 136.4180012  95.9774997  71.4449988 135.7340012  95.5174997  72.1899988
 136.5560012  97.0534997  71.6849988 137.7260012  95.2314997  71.4919988
 138.2430012  95.2624997  70.5089988 137.4590012  94.1534997  71.5229988
 138.4980012  95.6254997  72.7089988 137.9110012  95.7614997  73.6419988
 138.8800012  96.6504997  72.5129988 139.7960012  94.7734997  72.9429988
 140.3550012  95.3524997  73.7089988 140.4340012  94.8434997  72.0359988
 139.6040012  93.3514997  73.4209988 139.9710012  92.5884997  72.7179988
 138.9780012  92.8824997  74.5419988 139.0010012  91.7984997  74.7279988
 138.2810012  93.7124997  75.6209988 138.6490012  94.7554997  75.5149988
 138.7490012  93.3384997  76.5569988 136.7260012  93.7484997  75.8349988
 136.2590012  94.1234997  74.8989988 136.4660012  94.5004997  76.6109988
 136.1100012  92.3724997  76.2149988 136.2410012  91.6694997  75.3649988
 135.0060012  92.4954997  76.2629988 136.6480012  91.8214997  77.5219988
 137.6850012  91.4964997  77.2869988 136.1770012  90.8414997  77.7489988
 136.6230012  92.7174997  78.7389988 135.6580012  93.2654997  78.6819988
 137.4060012  93.4904997  78.5899988 136.8590012  92.0144997  80.0939988
 137.2280012  90.9674997  80.0579988 135.9370012  92.0694997  80.7129988
 137.8870012  92.5994997  80.9709988 138.9080012  92.4874997  80.5479988
 137.8150012  92.0174997  81.9149988 137.6480012  94.0654997  81.4049988
 137.1100012  94.7464997  80.7109988 138.5630012  94.5954997  81.7449988
 136.9670012  94.0104997  82.2809988  67.8710012   5.4024997  82.3509988
  68.2340012   4.3544997  82.2909988  67.4450012   5.6404997  83.3489988
  68.7190012   6.0964997  82.1709988  66.7000012   5.7064997  81.3819988
  65.8340012   5.0124997  81.4419988  66.2900012   6.7004997  81.6639988
  67.0580012   5.6374997  79.8659988  67.4180012   4.6004997  79.6969988
  66.2130012   5.7464997  79.1529988  68.2220012   6.6184997  79.6909988
  68.0260012   7.5184997  80.3109988  69.1630012   6.2234997  80.1299988
  68.4570012   7.0534997  78.2729988  67.5370012   7.6554997  78.1079988
  69.4260012   7.5954997  78.2919988  68.5880012   5.9534997  77.2429988
  69.3760012   5.2474997  77.5839988  67.6240012   5.4184997  77.1079988
  68.9930012   6.5434997  75.8459988  68.1610012   7.2284997  75.5729988
  69.9310012   7.1304997  75.9449988  69.3480012   5.3634997  74.8889988
  70.2670012   4.8204997  75.1969988  68.5920012   4.5494997  74.8589988
  69.4620012   5.9414997  73.4649988  69.4630012   5.0974997  72.7429988
  68.5730012   6.5524997  73.1969988  70.6740012   6.8694997  73.1689988
  70.4220012   7.8414997  73.6439988  71.5670012   6.4754997  73.6989988
  70.9880012   6.9904997  71.6499988  71.4630012   6.0044997  71.4549988
  70.0850012   6.9774997  71.0019988  71.8910012   8.0924997  71.3369988
  71.4020012   9.0694997  71.5399988  72.7640012   8.1994997  72.0159988
  72.3440012   8.0754997  69.8609988  72.8540012   7.1364997  69.5579988
  71.4370012   8.0464997  69.2199988  73.1920012   9.2924997  69.4139988
  72.6350012  10.2404997  69.5729988  74.0410012   9.3114997  70.1299988
  73.8200012   9.2984997  68.0079988  74.3990012  10.2374997  67.8819988
  74.5600012   8.5064997  67.7639988  72.7790012   9.2974997  66.8509988
  71.9020012  10.0714997  66.6239988  73.0110012   8.1774997  66.0359988
  72.1770012   8.1274997  64.8609988  71.7000012   9.0974997  64.6039988
  72.9130012   7.9254997  64.0539988  71.3250012   6.8304997  64.8719988
  71.9010012   5.8944997  65.0339988  70.6220012   6.5744997  63.4489988
  71.3720012   6.6164997  62.6299988  70.1430012   5.5794997  63.5639988
  69.6490012   7.5854997  63.3939988  68.5760012   7.5094997  62.2629988
  67.5040012   8.5924997  62.6599988  67.0040012   8.6344997  64.0309988
  66.0340012   9.1484997  64.2029988  66.8080012   7.6044997  64.3989988
  67.9960012   9.4224997  64.9149988  67.4860012   9.4184997  65.8669988
  68.9510012   8.9474997  65.0839988  68.3430012  10.8524997  64.5259988
  69.0870012  10.8424997  63.2679988  68.5350012  10.3984997  62.4519988
  69.3730012  11.8274997  62.9289988  69.9730012  10.2524997  63.4489988
  67.0530012  11.6664997  64.3169988  67.3800012  12.6104997  63.9079988
  66.4780012  11.1094997  63.5919988  66.5220012  11.7814997  65.2499988
  69.1660012  11.5764997  65.5559988  68.5720012  11.7454997  66.4419988
  69.4580012  12.5254997  65.1309988  70.1080012  11.0604997  65.6679988
  69.1590012   7.9224997  61.0059988  67.9630012   6.2174997  62.2459988
  70.3500012   6.9724997  65.8829988  69.7400012   5.8964997  66.3139988
  69.7570012   4.7474997  65.8739988  69.0080012   6.2764997  67.5889988
  68.5320012   7.2734997  67.4719988  69.6780012   6.3814997  68.4689988
  68.1150012   5.1514997  67.9309988  68.5980012   4.2084997  68.2659988
  67.4060012   4.9804997  67.0919988  67.2060012   5.2974997  69.2069988
  67.8840012   5.4634997  70.0709988  66.5670012   4.3984997  69.3449988
  66.1910012   6.4994997  69.1819988  65.1780012   6.3094997  69.5979988
  65.9590012   6.4944997  68.0959988  66.7410012   7.9164997  69.5689988
  67.8490012   7.8404997  69.5749988  66.4900012   8.1074997  70.6339988
  66.3010012   9.0474997  68.6449988  65.2210012   8.9134997  68.4209988
  66.7170012   8.7364997  67.6629988  66.7070012  10.4184997  69.1769988
  66.2120012  10.6184997  70.1519988  66.3220012  11.2964997  68.6159988
  68.1890012  10.5664997  69.3049988  68.6830012  10.7404997  68.3379988
  68.8650012  10.5744997  70.4499988  69.9600012  10.6564997  70.3999988
  68.3430012  10.4654997  71.8689988  68.3140012   9.3724997  72.0639988
  67.2760012  10.7754997  71.8739988  69.3480012  11.1194997  72.8289988
  69.3960012  12.2154997  72.6489988  70.3900012  10.7514997  72.7149988
  69.0070012  10.9244997  74.3749988  68.8350012   9.8334997  74.4899988
  68.0700012  11.4814997  74.5919988  70.1810012  11.3954997  75.2749988
  70.3070012  12.4994997  75.2699988  71.0980012  11.0514997  74.7499988
  70.0350012  10.8454997  76.6679988  71.0080012  10.8844997  77.2019988
  69.6650012   9.8054997  76.5369988  69.0350012  11.5474997  77.5099988
  68.0650012  11.5314997  76.9689988  69.1800012  12.6394997  77.3609988
  68.8940012  11.0474997  78.9429988  69.8560012  11.2804997  79.4479988
  68.9310012   9.9424997  79.0509988  67.7480012  11.5334997  79.7409988
  67.8110012  12.6404997  79.8149988  67.6930012  11.1704997  80.7889988
  66.8130012  11.2404997  79.2169988  52.4140012 137.3544997  82.9149988
  51.6700012 136.8524997  83.5689988  51.8800012 138.3144997  82.7519988
  53.2680012 137.5214997  83.6069988  52.8800012 136.6404997  81.5839988
  53.6770012 137.2644997  81.1259988  53.3560012 135.6494997  81.7469988
  51.7100012 136.3964997  80.5859988  50.9610012 135.8654997  81.2119988
  51.2190012 137.3544997  80.3109988  52.0550012 135.5964997  79.2959988
  52.6190012 136.2184997  78.5679988  52.6130012 134.6744997  79.5639988
  50.8420012 135.0594997  78.5519988  50.4120012 134.0774997  78.8439988
  50.1180012 135.8724997  78.7759988  51.1410012 135.0254997  77.0289988
  50.2210012 134.7564997  76.4659988  51.4450012 136.0064997  76.6069988
  52.1730012 133.9744997  76.5699988  52.4320012 134.1544997  75.5039988
  53.1120012 134.2374997  77.1019988  51.8790012 132.4314997  76.7379988
  51.4830012 132.2354997  77.7569988  51.1720012 132.1114997  75.9429988
  53.1580012 131.6054997  76.5889988  53.9790012 131.9434997  77.2569988
  52.9480012 130.5274997  76.7549988  53.7370012 131.4774997  75.1469988
  54.2820012 132.4454997  75.1119988  54.5120012 130.6864997  75.0539988
  52.6760012 131.4254997  73.9489988  52.1240012 130.4694997  74.0739988
  51.9720012 132.2844997  73.9869988  53.4130012 131.3444997  72.6009988
  54.4250012 130.9184997  72.7709988  52.7970012 130.6964997  71.9429988
  53.5710012 132.7584997  72.0179988  52.6940012 133.3884997  72.2799988
  54.4840012 133.2114997  72.4589988  53.6900012 132.7464997  70.4599988
  54.4010012 133.5454997  70.1589988  54.1160012 131.7334997  70.2909988
  52.3670012 133.0814997  69.7539988  51.5150012 132.4194997  70.0209988
  52.1580012 134.1384997  70.0249988  52.5130012 133.1014997  68.2569988
  53.5210012 132.8304997  67.5909988  51.3780012 133.5454997  67.7469988
  51.2860012 133.8364997  66.3049988  52.2060012 133.4694997  65.8019988
  50.3730012 133.3754997  65.8729988  51.0550012 135.3794997  65.9879988
  50.0460012 135.6024997  66.3949988  51.0690012 135.6754997  64.4819988
  50.2940012 134.9754997  64.1019988  50.8520012 136.7584997  64.3569988
  52.3200012 135.2654997  63.9539988  52.6930012 135.1954997  62.4599988
  54.1570012 135.7404997  62.3829988  54.8050012 136.2834997  63.5159988
  55.7670012 136.7744997  63.2519988  54.1050012 137.0564997  63.8969988
  55.0960012 135.3174997  64.7019988  55.5280012 135.8904997  65.5089988
  54.1600012 134.9044997  65.0469988  56.1350012 134.2094997  64.4009988
  57.5080012 134.7964997  64.1779988  57.8200012 135.1994997  65.1309988
  58.2840012 134.0904997  63.9199988  57.4300012 135.5794997  63.4379988
  56.2360012 133.2764997  65.5769988  57.0240012 132.5794997  65.3329988
  56.5420012 133.8434997  66.4439988  55.2450012 132.9214997  65.8139988
  55.9310012 133.4194997  63.1269988  55.0990012 132.7314997  63.1449988
  56.8330012 132.8544997  62.9469988  55.8120012 134.0734997  62.2749988
  52.6190012 133.7154997  62.1389988  51.8350012 136.1414997  61.7449988
  52.1270012 136.1404997  66.6079988  51.7310012 137.3544997  66.9479988
  50.6010012 137.7924997  66.9779988  52.9660012 138.1924997  67.4169988
  52.7260012 139.2704997  67.5349988  53.8240012 138.1184997  66.7139988
  53.4760012 137.5334997  68.7029988  54.0160012 136.5834997  68.4989988
  52.6490012 137.4374997  69.4399988  54.4500012 138.4454997  69.4649988
  53.9370012 139.1424997  70.1619988  55.1110012 139.0534997  68.8099988
  55.3730012 137.5814997  70.3649988  56.1160012 138.3264997  70.7219988
  55.8050012 136.7324997  69.7929988  54.6210012 137.0294997  71.5379988
  53.8420012 136.3444997  71.1399988  54.0270012 137.8144997  72.0519988
  55.4990012 136.4204997  72.5479988  56.3670012 137.0174997  72.8989988
  55.8830012 135.4904997  72.0769988  54.7340012 136.1574997  73.9069988
  53.7920012 135.7034997  73.5299988  54.3250012 137.0734997  74.3839988
  55.6510012 135.3004997  74.7989988  55.6190012 134.2074997  74.6809988
  56.4660012 135.8234997  75.7939988  57.1580012 135.1794997  76.3549988
  56.6280012 137.2804997  76.1679988  56.3870012 138.0394997  75.3939988
  57.6550012 137.5094997  76.5229988  55.7070012 137.6324997  77.3369988
  54.7160012 137.7504997  76.8489988  55.9860012 138.6724997  77.6129988
  55.8500012 136.9044997  78.6519988  55.8250012 135.8024997  78.5129988
  54.9280012 137.1824997  79.2049988  57.0880012 137.2954997  79.5869988
  56.8590012 138.3374997  79.8939988  57.9860012 137.2094997  78.9379988
  57.2610012 136.4064997  80.7849988  56.4060012 136.5994997  81.4679988
  58.2040012 136.7334997  81.2719988  57.2620012 134.7694997  80.4699988
  57.9150012 134.2754997  81.2209988  57.7120012 134.5334997  79.4819988
  55.8330012 134.0774997  80.6239988  55.0810012 134.6874997  80.0789988
  55.5960012 134.1274997  81.7079988  55.6060012 132.6234997  80.0409988
  56.4140012 132.0184997  80.5039988  55.7240012 132.5394997  78.9389988
  54.5970012 132.2674997  80.3419988  31.2290012 127.0934997  80.7419988
  31.9460012 127.1254997  81.5899988  30.4890012 126.2824997  80.9139988
  30.8430012 128.1354997  80.7449988  31.9570012 126.8124997  79.3989988
  32.8400012 127.4744997  79.2709988  32.2790012 125.7614997  79.5579988
  30.9490012 127.0274997  78.2639988  30.0750012 126.3474997  78.3419988
  30.7020012 128.1104997  78.3089988  31.4940012 126.8994997  76.8399988
  31.5760012 125.8104997  76.6349988  30.6900012 127.2674997  76.1659988
  32.7950012 127.6374997  76.5399988  32.8980012 128.5744997  77.1279988
  33.6520012 126.9804997  76.7989988  32.9160012 128.0594997  75.0609988
  32.0750012 128.7564997  74.8539988  33.8950012 128.5494997  74.8699988
  32.9170012 126.8704997  74.0279988  33.7430012 126.2404997  74.4219988
  31.8950012 126.4494997  74.1429988  33.0340012 127.2884997  72.5549988
  32.2690012 128.0854997  72.4349988  34.0650012 127.6974997  72.4849988
  32.8600012 126.1324997  71.5969988  33.5750012 125.3074997  71.8049988
  31.8270012 125.7254997  71.6539988  33.1100012 126.5274997  70.1589988
  33.8200012 127.3694997  70.3019988  33.5720012 125.6464997  69.6639988
  31.8970012 127.0164997  69.4079988  31.5120012 127.8884997  69.9789988
  32.2760012 127.5734997  68.5249988  30.9710012 125.9294997  68.9629988
  31.4870012 124.9794997  68.7099988  30.2810012 125.6214997  69.7779988
  30.2700012 126.2694997  67.6389988  29.5030012 127.0654997  67.7489988
  30.9620012 126.6664997  66.8659988  29.4180012 125.0724997  67.1559988
  30.0660012 124.2734997  66.7359988  28.8010012 124.7324997  68.0139988
  28.5060012 125.2674997  65.9769988  29.0920012 125.5374997  65.0729988
  28.0260012 124.2984997  65.7219988  27.4830012 126.4264997  66.3329988
  26.5880012 126.3064997  67.1579988  27.7700012 127.4884997  65.5439988
  26.7940012 128.5084997  65.4239988  26.1490012 128.2854997  64.5469988
  26.0920012 128.4844997  66.2859988  27.3800012 129.9564997  65.3809988
  26.5270012 130.6684997  65.3829988  28.2740012 130.1054997  64.1319988
  27.7700012 129.5394997  63.3209988  28.3780012 131.1954997  63.9399988
  29.5730012 129.5034997  64.2849988  30.6450012 129.7534997  63.1509988
  31.1890012 128.3184997  62.9429988  31.4900012 127.5584997  64.1019988
  30.7740012 127.7604997  64.9269988  31.1800012 126.5124997  63.8929988
  32.8590012 127.7094997  64.6549988  33.0770012 128.7094997  65.0019988
  33.0060012 127.0044997  65.4599988  34.0370012 127.5634997  63.6169988
  33.9590012 126.2144997  62.9679988  33.1030012 126.1614997  62.3119988
  34.8270012 126.0754997  62.3389988  34.0450012 125.3944997  63.6649988
  34.1040012 128.5824997  62.5389988  33.2850012 128.2944997  61.8969988
  34.0410012 129.5654997  62.9819988  35.0090012 128.4144997  61.9729988
  35.3040012 127.6074997  64.3939988  35.3640012 126.6654997  64.9189988
  35.1810012 128.4284997  65.0849988  36.1530012 127.6064997  63.7279988
  29.9840012 130.1834997  61.8599988  31.7680012 130.6004997  63.6669988
  28.2580012 130.1934997  66.5269988  27.5770012 130.4084997  67.6879988
  26.3670012 130.4114997  67.8169988  28.5610012 130.6114997  68.8609988
  29.2980012 131.3814997  68.5459988  28.9620012 129.5914997  69.0439988
  27.9390012 131.0964997  70.1499988  27.2680012 130.2644997  70.4519988
  27.4920012 132.0994997  69.9779988  28.9470012 131.2484997  71.3469988
  28.3270012 131.6684997  72.1679988  29.8380012 131.8194997  71.0089988
  29.5000012 129.9134997  72.0159988  30.1620012 130.2084997  72.8579988
  30.1570012 129.4644997  71.2399988  28.5300012 128.8114997  72.5139988
  28.1970012 128.3404997  71.5649988  27.6440012 129.3184997  72.9519988
  29.0680012 127.6794997  73.4579988  29.5000012 128.0794997  74.4009988
  29.8310012 127.2624997  72.7669988  28.0300012 126.6394997  73.8409988
  28.5780012 126.0174997  74.5799988  27.7920012 126.1924997  72.8509988
  26.7260012 127.2574997  74.3579988  26.2730012 127.9804997  73.6639988
  26.0740012 126.9784997  75.5279988  25.0150012 127.2644997  75.6109988
  26.5390012 125.9894997  76.5799988  27.2200012 125.1874997  76.2229988
  25.6540012 125.5674997  77.1029988  27.2500012 126.7904997  77.7119988
  28.1580012 127.2674997  77.2839988  27.5150012 126.1124997  78.5509988
  26.2820012 127.8324997  78.3499988  25.3520012 127.3744997  78.7489988
  25.9690012 128.5364997  77.5489988  26.9600012 128.6094997  79.5289988
  27.9560012 128.9394997  79.1649988  27.0600012 127.8804997  80.3619988
  26.0490012 129.7364997  79.9369988  25.0320012 129.3444997  80.1529988
  25.9440012 130.4554997  79.0969988  26.7030012 130.5564997  81.0949988
  26.3630012 131.6054997  81.2249988  27.7920012 130.5814997  80.8729988
  26.6760012 129.8074997  82.4289988  27.0170012 128.7504997  82.4149988
  25.6090012 129.7734997  82.7349988  27.4430012 130.5654997  83.5569988
  27.2680012 131.6624997  83.5399988  28.5000012 130.3444997  83.2949988
  27.1930012 130.1024997  84.5349988 118.4970012  14.3244997  84.3579988
 117.4050012  14.1294997  84.3069988 118.7430012  14.2174997  85.4359988
 119.0450012  13.5214997  83.8199988 118.7270012  15.7454997  83.9189988
 118.4580012  16.4094997  84.7689988 119.8160012  15.9064997  83.7659988
 117.7740012  16.1884997  82.7919988 118.1650012  15.5604997  81.9639988
 116.7840012  15.8224997  83.1389988 117.7700012  17.7274997  82.5929988
 116.7450012  18.0394997  82.2989988 118.0920012  18.2344997  83.5279988
 118.7470012  18.2444997  81.5629988 118.8820012  19.3314997  81.7509988
 119.6540012  17.6914997  81.8889988 118.4680012  17.8554997  80.0579988
 118.3610012  16.7494997  80.0319988 117.4620012  18.2594997  79.8149988
 119.6690012  18.3644997  79.1589988 120.6270012  17.9594997  79.5519988
 119.5230012  18.0084997  78.1169988 119.7370012  19.9204997  79.1049988
 118.8390012  20.1644997  78.4969988 119.6050012  20.4144997  80.0909988
 121.0290012  20.6074997  78.5759988 120.9210012  21.5704997  79.1189988
 121.9500012  20.0344997  78.8159988 120.8910012  20.7854997  77.0449988
 119.8350012  20.9694997  76.7519988 121.4130012  21.7124997  76.7269988
 121.5750012  19.6944997  76.2669988 122.6540012  19.6614997  76.5289988
 121.2140012  18.6964997  76.5949988 121.5660012  19.8604997  74.7719988
 122.1450012  20.7934997  74.6039988 122.2430012  19.0284997  74.4829988
 120.2310012  20.0704997  73.9809988 119.6000012  20.8064997  74.5229988
 120.4290012  20.5354997  72.9919988 119.4320012  18.6774997  73.7699988
 120.0750012  17.9054997  73.2959988 119.0800012  18.3424997  74.7689988
 118.1960012  18.7054997  72.8279988 117.6490012  17.7844997  73.1229988
 117.5560012  19.5854997  73.0479988 118.6140012  18.6714997  71.3849988
 119.7580012  18.7624997  70.9309988 117.5200012  18.6484997  70.6729988
 117.6800012  18.5264997  69.1969988 118.5520012  17.9454997  68.8269988
 116.8130012  17.9694997  68.7829988 117.4850012  19.8624997  68.4229988
 116.3920012  20.0604997  68.4529988 118.0330012  19.8434997  66.9619988
 117.4230012  19.1124997  66.3889988 117.8740012  20.8874997  66.6179988
 119.4320012  19.5694997  66.8319988 119.9140012  19.6264997  65.2839988
 119.4190012  18.2164997  64.6999988 118.2980012  18.2964997  63.7859988
 117.8590012  17.2804997  63.6939988 117.5040012  19.0124997  64.0889988
 118.8500012  18.7774997  62.3819988 118.0780012  19.1514997  61.7259988
 119.5010012  19.6104997  62.6019988 119.6770012  17.8324997  61.5149988
 118.8990012  16.5754997  61.4799988 117.9080012  16.7364997  61.0829988
 119.5080012  15.8294997  60.9919988 118.7420012  16.2444997  62.4959988
 119.8120012  18.2114997  60.0669988 120.3050012  19.1724997  60.0689988
 120.3270012  17.3934997  59.5859988 118.8360012  18.4014997  59.6459988
 121.0250012  17.6014997  62.2159988 121.5990012  18.4934997  62.0129988
 121.4770012  16.7874997  61.6689988 120.8440012  17.4724997  63.2729988
 119.2220012  20.7114997  64.6169988 121.3480012  19.5544997  65.3029988
 118.2270012  20.8364997  69.1729988 117.6000012  21.9484997  69.3439988
 116.4390012  22.1894997  68.9639988 118.6270012  22.9374997  69.9649988
 119.0800012  23.5954997  69.1929988 119.4980012  22.4004997  70.3989988
 117.8570012  23.8604997  70.9749988 116.8190012  23.9554997  70.5909988
 118.3610012  24.8334997  71.1619988 117.7910012  23.2884997  72.3769988
 118.8430012  23.0114997  72.6029988 117.2500012  22.3304997  72.5339988
 117.2640012  24.2934997  73.3919988 116.3450012  24.8384997  73.0889988
 117.9760012  25.1454997  73.3569988 117.1220012  23.7444997  74.8179988
 116.8350012  24.5874997  75.4819988 118.0450012  23.2074997  75.1249988
 115.9510012  22.7764997  74.9939988 116.0540012  21.9254997  74.2859988
 114.9780012  23.2744997  74.7949988 116.0650012  22.1174997  76.3649988
 117.1240012  21.9914997  76.6769988 115.8030012  21.0374997  76.3829988
 115.3420012  22.9784997  77.3669988 114.4220012  23.4764997  77.0289988
 115.8530012  23.3664997  78.5829988 115.2630012  23.9704997  79.2879988
 117.2020012  23.0254997  79.1699988 117.6990012  22.1834997  78.6429988
 117.0910012  22.5454997  80.1659988 118.0810012  24.2754997  79.4089988
 117.4830012  25.0414997  79.9469988 118.4740012  24.7064997  78.4629988
 119.3440012  23.9814997  80.2609988 120.0280012  24.8534997  80.3329988
 119.9010012  23.2044997  79.6939988 119.0520012  23.6624997  81.6749988
 118.6080012  22.6454997  81.6309988 118.3250012  24.3194997  82.1999988
 120.2020012  23.7124997  82.6479988 120.3990012  24.8054997  82.6579988
 120.9780012  23.0504997  82.2069988 119.8980012  23.2394997  84.1229988
 119.0000012  23.7744997  84.4999988 120.8410012  23.3594997  84.6969988
 119.6360012  21.6684997  84.1579988 120.6380012  21.2164997  84.3199988
 119.3980012  21.2454997  83.1589988 118.6270012  21.1444997  85.1719988
 118.4800012  20.0734997  84.9139988 117.6380012  21.6504997  85.1509988
 119.0170012  21.2634997  86.2049988   3.7430012  99.9674997  80.5139988
   3.1480012  99.0754997  80.8019988   3.1550012 100.8714997  80.7799988
   4.6520012 100.0334997  81.1499988   3.9750012  99.9214997  79.0119988
   3.0110012  99.8214997  78.4689988   4.4940012 100.8634997  78.7339988
   4.9550012  98.7504997  78.6339988   5.6960012  98.7124997  79.4609988
   4.3880012  97.7984997  78.7049988   5.6500012  98.8024997  77.2429988
   4.9030012  98.8294997  76.4209988   6.1190012  99.7944997  77.0659988
   6.5690012  97.6684997  76.9499988   7.5530012  97.8084997  77.4469988
   6.2020012  96.7464997  77.4489988   6.8760012  97.5884997  75.4419988
   5.9030012  97.5994997  74.9059988   7.5550012  98.4474997  75.2579988
   7.5180012  96.3054997  75.0329988   8.5780012  96.2484997  75.3609988
   6.9550012  95.4574997  75.4789988   7.6660012  96.1684997  73.4759988
   8.1220012  95.1604997  73.3739988   6.6950012  96.0744997  72.9429988
   8.5580012  97.1084997  72.7009988   8.1330012  98.1324997  72.6319988
   9.4770012  97.2994997  73.2939988   9.1100012  96.5694997  71.3619988
   9.9610012  97.1924997  71.0109988   9.4470012  95.5214997  71.5099988
   8.0160012  96.6924997  70.3749988   7.0690012  96.1974997  70.6809988
   7.7470012  97.7564997  70.2049988   8.3540012  96.0334997  69.0489988
   9.4530012  96.0664997  68.8909988   8.1800012  94.9414997  69.1619988
   7.6200012  96.4594997  67.7999988   7.8900012  97.5294997  67.6739988
   7.8490012  95.8794997  66.8809988   6.0640012  96.3714997  67.8849988
   5.8370012  96.9084997  68.8309988   5.5690012  96.9134997  67.0519988
   5.4410012  94.9294997  67.9779988   5.7340012  94.2994997  67.1109988
   5.7430012  94.4294997  68.9229988   3.8790012  95.0284997  68.1749988
   3.2170012  94.0204997  67.9629988   3.4260012  96.2504997  68.3709988
   2.0620012  96.5514997  68.0709988   1.3220012  95.7234997  68.0509988
   1.7300012  97.2514997  68.8679988   1.8720012  97.3314997  66.6639988
   0.7830012  97.5104997  66.5389988   2.3340012  96.4584997  65.4749988
   3.3870012  96.1604997  65.6649988   1.8290012  95.4724997  65.3879988
   2.3000012  97.1724997  64.2609988   3.3810012  97.3634997  63.2019988
   4.4790012  97.9854997  64.1439988   4.8200012  99.3654997  64.0379988
   4.0350012 100.0304997  63.6169988   4.9670012  99.8814997  65.0109988
   6.0630012  99.5404997  63.2019988   5.9380012  99.3624997  62.1439988
   6.2990012 100.5894997  63.3049988   7.2960012  98.7654997  63.5269988
   7.7450012  99.0864997  64.9389988   7.8130012 100.1504997  65.1069988
   7.0620012  98.7454997  65.7029988   8.6300012  98.5264997  65.2039988
   7.0690012  97.2404997  63.4279988   6.5000012  97.0984997  62.5209988
   8.0580012  96.8084997  63.4679988   6.3820012  96.8514997  64.1649988
   8.3640012  99.2104997  62.5089988   8.0050012  98.8724997  61.5479988
   9.2400012  98.5954997  62.6479988   8.5420012 100.2754997  62.5209988
   3.8080012  96.0704997  62.6889988   3.0350012  98.4824997  62.2429988
   2.5620012  98.5414997  66.8689988   1.9000012  99.5354997  67.4479988
   0.7310012  99.4684997  67.7899988   2.8780012 100.7804997  67.4279988
   2.6840012 101.2654997  66.4479988   3.9390012 100.4484997  67.4309988
   2.5930012 101.6904997  68.6279988   1.5810012 101.6294997  69.0819988
   2.5790012 102.7534997  68.3039988   3.5790012 101.6034997  69.7659988
   3.3920012 102.5284997  70.3509988   4.6520012 101.7364997  69.5099988
   3.5020012 100.2984997  70.6299988   4.2400012 100.4374997  71.4489988
   3.7210012  99.4604997  69.9339988   2.1780012 100.1254997  71.4049988
   1.2690012  99.9884997  70.7809988   2.0250012 101.0694997  71.9709988
   2.1870012  98.9274997  72.4119988   1.1820012  98.7664997  72.8559988
   2.8580012  99.2924997  73.2189988   2.4860012  97.5174997  71.7769988
   3.5460012  97.2004997  71.6749988   2.0470012  97.7184997  70.7759988
   1.7430012  96.3784997  72.4169988   0.8540012  96.0104997  71.8829988
   2.2160012  95.7154997  73.4729988   1.7470012  94.7834997  73.8189988
   3.5310012  96.0584997  74.2299988   3.6120012  97.1554997  74.3859988
   4.4240012  95.6604997  73.7039988   3.4920012  95.5344997  75.7189988
   4.5700012  95.6954997  75.9349988   3.2130012  94.4664997  75.5909988
   2.5610012  96.2834997  76.5899988   1.4940012  96.3044997  76.2819988
   2.8790012  97.3394997  76.7229988   2.4880012  95.6354997  78.0969988
   3.5270012  95.6634997  78.4889988   2.0370012  94.6304997  77.9559988
   1.6060012  96.4364997  79.0369988   0.5570012  96.2664997  78.7109988
   2.0110012  97.4514997  78.8349988   1.6770012  95.9924997  80.5169988
   1.2680012  96.7954997  81.1659988   2.7590012  95.8744997  80.7379988
   1.1100012  94.6184997  80.7779988   1.7710012  93.8734997  80.2849988
   0.1610012  94.6624997  80.2019988   0.9280012  94.0744997  82.2079988
   1.9350012  93.7664997  82.5639988   0.1110012  93.3224997  82.1819988
   0.5360012  94.8384997  82.9129988  30.3100012  19.2024997  84.9479988
  29.3170012  19.6454997  85.1769988  30.9440012  19.4084997  85.8369988
  30.1930012  18.1294997  84.6849988  31.1000012  19.9824997  83.8639988
  31.0700012  21.0564997  84.1479988  32.1470012  19.6274997  83.7569988
  30.4150012  19.9874997  82.4779988  29.4140012  20.4544997  82.5929988
  30.9540012  20.6984997  81.8159988  30.3450012  18.5804997  81.8459988
  31.3050012  18.0234997  81.8819988  29.6030012  17.9134997  82.3359988
  29.9610012  18.6464997  80.3799988  30.8320012  19.1534997  79.9139988
  29.8790012  17.5674997  80.1269988  28.7010012  19.4194997  80.0339988
  27.9140012  19.1144997  80.7559988  28.7790012  20.5144997  80.2019988
  28.1870012  18.9814997  78.6219988  28.1620012  17.8724997  78.6859988
  27.1980012  19.4724997  78.4979988  29.1790012  19.4604997  77.5289988
  29.0930012  20.5654997  77.6149988  30.1700012  19.0154997  77.7589988
  28.8450012  18.8264997  76.1199988  29.1660012  17.7644997  76.1809988
  27.7660012  19.0254997  75.9439988  29.6840012  19.3364997  75.0339988
  29.7760012  20.4354997  75.1739988  30.7440012  19.0044997  75.0269988
  29.1220012  18.9304997  73.6159988  29.9170012  18.9994997  72.8419988
  28.7340012  17.8894997  73.6279988  27.9790012  19.8144997  73.1449988
  27.0640012  19.9414997  73.7619988  28.4330012  20.8254997  73.2219988
  27.5700012  19.4764997  71.6859988  27.4120012  18.3834997  71.5619988
  26.5700012  19.9254997  71.5049988  28.3850012  19.9814997  70.5299988
  29.4100012  19.5734997  70.6639988  27.9930012  19.5844997  69.5689988
  28.5880012  21.5354997  70.5109988  27.6880012  22.0194997  70.9459988
  29.4520012  21.6854997  71.1929988  28.8180012  22.0734997  69.1769988
  28.1640012  23.0104997  68.7769988  29.9490012  21.5964997  68.6359988
  30.3350012  21.9374997  67.2649988  29.3760012  22.0114997  66.7099988
  30.8190012  22.9334997  67.3619988  31.2900012  20.8564997  66.7299988
  31.6730012  21.2024997  65.7459988  30.4850012  19.5434997  66.7079988
  30.1680012  19.2624997  67.7349988  29.5650012  19.7014997  66.1049988
  31.3360012  18.5514997  66.0689988  31.4550012  18.2524997  64.5229988
  30.7330012  19.5074997  63.8239988  30.1810012  19.4044997  62.5609988
  30.8740012  19.7484997  61.7639988  29.8930012  18.3504997  62.3589988
  28.7970012  20.0774997  62.5269988  28.3100012  19.7924997  61.6059988
  28.2300012  19.7064997  63.3689988  28.6460012  21.6814997  62.6059988
  28.7510012  22.2104997  63.9449988  28.6680012  23.2824997  64.0469988
  28.0450012  21.7674997  64.6309988  29.7500012  22.0084997  64.3029988
  29.6630012  22.4174997  61.7369988  29.6930012  22.0044997  60.7389988
  29.2160012  23.3904997  61.5989988  30.6590012  22.5634997  62.1289988
  27.2470012  22.0074997  62.0879988  26.9520012  23.0464997  62.1129988
  26.5370012  21.5354997  62.7509988  27.0860012  21.5954997  61.1029988
  32.8660012  18.2264997  64.1279988  30.7130012  17.0144997  64.1729988
  32.3920012  20.7604997  67.6259988  33.2700012  21.8404997  67.6119988
  33.3570012  22.6434997  66.7349988  33.9460012  21.9274997  68.9729988
  34.8940012  22.4784997  68.7949988  34.2680012  20.9324997  69.3479988
  33.0450012  22.7694997  69.9279988  32.1130012  22.1704997  70.0069988
  32.8810012  23.8364997  69.6639988  33.4580012  22.8694997  71.4509988
  34.4170012  23.4174997  71.5659988  33.6430012  21.8834997  71.9299988
  32.4400012  23.5774997  72.2769988  31.5040012  22.9964997  72.1299988
  32.2800012  24.5724997  71.8109988  32.7980012  23.7084997  73.7929988
  33.6720012  24.3884997  73.8769988  33.0730012  22.6684997  74.0699988
  31.6660012  24.3334997  74.5749988  30.7180012  23.8064997  74.3359988
  31.5340012  25.3134997  74.0679988  31.9790012  24.4464997  76.0869988
  31.2700012  25.2174997  76.4559988  32.9660012  24.9544997  76.1329988
  31.9660012  23.1504997  76.7589988  32.2450012  22.2914997  76.1309988
  31.5250012  22.8754997  78.0079988  31.6910012  21.8204997  78.2689988
  30.9250012  23.8444997  79.0649988  30.4940012  23.2484997  79.8969988
  30.2470012  24.5474997  78.5359988  31.9140012  24.8254997  79.7479988
  31.3790012  25.6204997  80.3099988  32.5430012  25.2474997  78.9349988
  32.9560012  24.2044997  80.7089988  33.4430012  25.1114997  81.1269988
  33.7060012  23.6494997  80.1049988  32.3710012  23.6034997  81.9109988
  32.0070012  22.5614997  81.7799988  31.5810012  24.2274997  82.3799988
  33.3860012  23.5984997  83.0899988  33.9910012  24.5304997  83.1079988
  33.9360012  22.6434997  82.9479988  32.8210012  23.4784997  84.6109988
  32.1750012  22.5754997  84.6559988  32.2500012  24.4304997  84.6699988
  34.0140012  23.3474997  85.6119988  33.6780012  23.5094997  86.6579988
  34.6610012  24.2384997  85.4609988  34.8790012  22.1894997  85.5029988
  35.6940012  22.2494997  86.2549988  35.3770012  22.0844997  84.5149988
  34.2950012  21.2654997  85.7029988  53.8850012   8.1624997  82.5569988
  54.3030012   9.1764997  82.7359988  54.4170012   7.6684997  81.7159988
  54.2170012   7.5424997  83.4159988  52.3860012   8.2494997  82.2089988
  51.8960012   8.7874997  83.0479988  52.1070012   8.6414997  81.2069988
  51.7930012   6.8444997  82.2889988  51.9540012   6.4294997  83.3059988
  50.6990012   7.0314997  82.2509988  52.2850012   5.7934997  81.2409988
  53.3760012   5.6294997  81.3679988  51.6930012   4.8824997  81.4769988
  52.2530012   6.2244997  79.8259988  51.2230012   6.5134997  79.5259988
  52.9220012   7.0864997  79.6149988  52.5460012   5.0724997  78.7979988
  51.6690012   4.3934997  78.7449988  52.6500012   5.5974997  77.8239988
  53.7000012   4.0434997  79.0909988  53.6940012   3.6384997  80.1259988
  53.5620012   3.1384997  78.4629988  55.1060012   4.5664997  78.7689988
  55.4840012   5.4594997  79.3119988  55.7530012   3.6824997  78.9509988
  55.3530012   4.9434997  77.3109988  55.0130012   4.0564997  76.7349988
  54.7240012   5.7634997  76.9019988  56.8210012   5.2264997  77.0819988
  57.1090012   6.2404997  77.4339988  57.4120012   4.4644997  77.6339988
  57.2510012   5.1844997  75.5329988  58.3470012   5.0054997  75.4889988
  56.8000012   4.2444997  75.1489988  56.7910012   6.3474997  74.6489988
  55.6990012   6.1404997  74.6349988  56.8220012   7.3594997  75.1049988
  57.3520012   6.1574997  73.2479988  58.3040012   6.7184997  73.1319988
  57.6640012   5.0954997  73.1489988  56.4460012   6.5304997  72.1119988
  55.6430012   5.7654997  72.0509988  55.9900012   7.4684997  72.4939988
  57.0240012   6.7954997  70.7229988  57.9580012   7.3554997  70.9439988
  57.2320012   5.8774997  70.1329988  56.1690012   7.6144997  69.7779988
  54.9640012   7.7864997  69.9199988  56.8950012   7.9134997  68.7409988
  56.2930012   8.5814997  67.6199988  55.4370012   9.2124997  67.9389988
  57.1710012   9.1404997  67.2309988  55.9420012   7.4734997  66.4959988
  56.9300012   6.9674997  66.4889988  55.6220012   8.0834997  65.0929988
  54.6540012   8.6044997  65.2539988  56.3370012   8.9144997  64.9149988
  55.6060012   7.0324997  64.0759988  55.2320012   7.6384997  62.6249988
  53.8880012   8.3204997  62.7979988  52.7050012   7.5694997  63.0549988
  52.4530012   6.9794997  62.1479988  52.8080012   6.8734997  63.9149988
  51.4470012   8.4994997  63.2409988  51.2850012   9.0044997  62.2999988
  50.6190012   7.8144997  63.3489988  51.2760012   9.5064997  64.3219988
  51.0270012   8.8434997  65.6639988  50.1170012   8.2614997  65.6709988
  51.9110012   8.2934997  65.9519988  50.9640012   9.6144997  66.4169988
  52.3940012  10.4984997  64.4829988  52.1330012  11.3224997  65.1309988
  53.2570012   9.9264997  64.7899988  52.6860012  10.9614997  63.5519988
  50.0740012  10.2724997  63.8149988  49.2070012   9.6474997  63.9719988
  50.2910012  10.4604997  62.7739988  49.8750012  11.0774997  64.5069988
  56.2550012   8.6894997  62.3429988  55.0670012   6.4794997  61.7599988
  54.9380012   6.5934997  66.9729988  54.9690012   5.2904997  66.6129988
  55.8590012   4.7584997  66.0229988  53.8700012   4.5654997  67.3269988
  54.0860012   3.4764997  67.3529988  52.9980012   4.5854997  66.6379988
  53.6110012   5.0994997  68.7009988  53.4780012   6.2014997  68.7289988
  54.4440012   4.9084997  69.4099988  52.2700012   4.5124997  69.1869988
  52.3800012   3.4164997  69.0459988  51.5450012   4.9444997  68.4649988
  51.8530012   4.7134997  70.6769988  52.3440012   5.6524997  71.0119988
  52.2020012   3.8194997  71.2369988  50.3770012   5.1174997  70.7819988
  49.8250012   4.2314997  70.4019988  50.1040012   5.9684997  70.1209988
  49.7630012   5.3824997  72.1819988  50.1030012   4.5574997  72.8439988
  48.6530012   5.4234997  72.1629988  50.1820012   6.6964997  72.8719988
  51.2480012   6.3914997  72.9269988  49.7190012   6.6254997  73.8789988
  50.0300012   8.0894997  72.2529988  48.9740012   8.3374997  72.0739988
  51.0900012   8.8964997  71.9319988  50.8400012   9.9154997  71.5979988
  52.5000012   8.6334997  72.1719988  53.1770012   9.4434997  71.8249988
  52.8810012   7.6634997  71.7869988  52.8690012   8.5034997  73.7489988
  53.9790012   8.5204997  73.7019988  52.6580012   7.5024997  74.1809988
  52.3970012   9.5544997  74.7169988  51.2880012   9.6174997  74.7439988
  52.6010012  10.6114997  74.4399988  52.8700012   9.4764997  76.1609988
  52.6840012   8.5274997  76.7079988  52.3560012  10.3094997  76.6859988
  54.3700012   9.5764997  76.3999988  54.8350012  10.5614997  76.1829988
  54.8430012   8.7624997  75.8099988  54.7260012   9.1684997  77.8419988
  54.2570012   8.1824997  78.0459988  54.2300012   9.8624997  78.5539988
  56.2000012   9.1564997  78.2279988  56.6540012  10.1514997  78.0309988
  56.7890012   8.4594997  77.5949988  56.5690012   8.9024997  79.6819988
  56.4980012   7.8204997  79.9259988  55.8610012   9.3934997  80.3839988
  57.5970012   9.2634997  79.8979988 125.3370012  19.7324997  85.4639988
 124.5060012  20.4654997  85.3849988 125.5790012  19.5314997  86.5289988
 125.1560012  18.7284997  85.0229988 126.4250012  20.5084997  84.7889988
 127.4530012  20.1974997  85.0749988 126.3700012  20.3154997  83.6959988
 126.3250012  22.0394997  85.0389988 125.5010012  22.4484997  84.4159988
 125.9320012  22.3164997  86.0409988 127.5380012  22.7574997  84.6679988
 127.3720012  23.8564997  84.6559988 128.3060012  22.6764997  85.4669988
 128.2280012  22.5444997  83.2619988 129.0120012  23.3164997  83.1079988
 128.5730012  21.4884997  83.2399988 127.2760012  22.9364997  82.0489988
 126.3280012  22.3774997  82.1999988 127.0320012  24.0194997  82.0939988
 127.8320012  22.4924997  80.7129988 128.1110012  21.4184997  80.6759988
 127.0210012  22.5214997  79.9529988 129.0340012  23.2474997  80.2019988
 128.7090012  24.1634997  79.6639988 129.6160012  23.5514997  81.0979988
 130.0450012  22.6644997  79.2309988 130.9460012  23.3144997  79.2339988
 130.2300012  21.6094997  79.5249988 129.6760012  22.6184997  77.6829988
 129.5510012  23.6664997  77.3369988 130.4300012  21.9714997  77.1849988
 128.3510012  21.8914997  77.4489988 128.3580012  20.9654997  78.0629988
 127.4930012  22.5234997  77.7619988 128.1240012  21.3874997  76.0559988
 128.9660012  20.7004997  75.8239988 127.1570012  20.8404997  76.0609988
 128.1890012  22.4934997  75.0829988 127.4750012  23.2844997  75.3949988
 129.1920012  22.9634997  75.0029988 127.7900012  21.9644997  73.7119988
 128.4690012  21.1604997  73.3559988 126.8180012  21.4354997  73.8199988
 127.6710012  23.0434997  72.5909988 127.2020012  23.9464997  73.0379988
 128.6790012  23.3744997  72.2619988 126.7050012  22.7394997  71.4089988
 125.5760012  22.2934997  71.6219988 127.2470012  22.9694997  70.2489988
 126.4350012  22.7164997  69.0609988 127.1390012  22.8474997  68.2109988
 126.0690012  21.6674997  69.0539988 125.2680012  23.7804997  68.7149988
 124.4560012  23.6174997  69.4549988 124.6100012  23.5364997  67.3089988
 124.3420012  22.4794997  67.0969988 123.7110012  24.1824997  67.2109988
 125.5950012  23.8084997  66.3429988 125.1880012  24.2684997  64.8839988
 126.6720012  24.4534997  64.2209988 127.7780012  23.5704997  64.3699988
 128.4200012  23.9824997  65.1779988 127.4350012  22.6304997  64.8529988
 128.5160012  23.2444997  62.9959988 128.9380012  24.1724997  62.6389988
 129.2510012  22.4704997  63.1629988 127.5900012  22.7574997  61.8439988
 126.6700012  23.8384997  61.2509988 126.4840012  23.5664997  60.2219988
 125.7060012  23.9844997  61.7129988 127.2340012  24.7554997  61.1599988
 128.5410012  22.2164997  60.8099988 129.2020012  23.0144997  60.5059988
 129.1580012  21.4454997  61.2469988 128.0360012  21.8724997  59.9189988
 126.8020012  21.5814997  62.3339988 127.4540012  20.9084997  62.8709988
 126.2700012  21.0574997  61.5529988 126.0580012  21.8524997  63.0679988
 124.4970012  23.1284997  64.2089988 124.4850012  25.6234997  64.9209988
 125.7540012  25.1234997  68.7629988 124.8790012  26.1364997  68.7869988
 123.6920012  26.0184997  68.7959988 125.5670012  27.5034997  68.6209988
 124.7900012  28.2914997  68.7149988 126.0180012  27.6714997  67.6199988
 126.6450012  27.8604997  69.6789988 127.0300012  28.8764997  69.4479988
 127.4510012  27.1334997  69.4419988 126.2560012  27.9104997  71.1619988
 125.5380012  28.7574997  71.2069988 127.2000012  28.0524997  71.7309988
 125.5810012  26.6784997  71.7779988 126.0980012  25.7114997  71.5979988
 124.5740012  26.6734997  71.3079988 125.1260012  26.9084997  73.2429988
 124.7030012  27.9344997  73.3019988 126.0090012  26.8754997  73.9159988
 123.9720012  25.9654997  73.7429988 123.0170012  26.2904997  73.2779988
 123.8340012  26.1554997  74.8289988 123.9610012  24.4584997  73.3979988
 124.8510012  24.0144997  73.8939988 123.9060012  24.3794997  72.2909988
 122.6160012  23.9024997  73.8769988 121.7060012  24.3574997  73.4589988
 122.5250012  22.8974997  74.7249988 121.5270012  22.4914997  74.9499988
 123.5980012  22.0694997  75.4769988 124.4950012  21.9954997  74.8249988
 123.2400012  21.0194997  75.5339988 123.9450012  22.6224997  76.8699988
 124.6910012  21.9734997  77.3759988 123.0210012  22.6524997  77.4869988
 124.6440012  24.0394997  76.9369988 123.9980012  24.8214997  76.4839988
 125.5760012  24.0754997  76.3329988 124.8800012  24.5014997  78.4269988
 125.4410012  23.7034997  78.9579988 123.8590012  24.6344997  78.8449988
 125.7610012  25.7674997  78.4979988 125.2130012  26.5284997  77.9029988
 126.7370012  25.5684997  78.0059988 125.9800012  26.3094997  79.8629988
 126.3340012  25.4784997  80.5099988 125.0030012  26.5214997  80.3479988
 126.7470012  27.6774997  79.9449988 126.3300012  28.2464997  79.0869988
 127.8020012  27.4654997  79.6699988 126.5620012  28.4754997  81.2639988
 125.4770012  28.7034997  81.3309988 127.1550012  29.4134997  81.3269988
 126.9860012  27.9454997  82.1429988  12.8240012  37.0084997  81.9439988
  12.4660012  38.0084997  81.6169988  13.8090012  36.8064997  81.4709988
  12.9380012  37.1404997  83.0409988  11.7610012  35.8914997  81.7329988
  12.0900012  34.9084997  82.1329988  10.8470012  36.1654997  82.3019988
  11.4180012  35.5344997  80.2949988  10.9900012  36.4414997  79.8149988
  12.4400012  35.4584997  79.8659988  10.4500012  34.3424997  79.9949988
  10.6880012  33.6364997  80.8189988   9.3990012  34.6754997  80.1329988
  10.6470012  33.7504997  78.6249988  11.7390012  33.5714997  78.5299988
  10.0610012  32.8094997  78.5469988  10.0930012  34.6734997  77.3669988
   8.9890012  34.7414997  77.4659988  10.5790012  35.6714997  77.4309988
  10.2800012  34.0754997  75.9119988  11.3370012  34.2964997  75.6509988
  10.1500012  32.9724997  75.8809988   9.3300012  34.7184997  74.8569988
   9.2860012  34.1734997  73.8899988   8.3010012  34.5394997  75.2339988
   9.6190012  36.1674997  74.4559988   8.7170012  36.6924997  74.0759988
   9.8940012  36.8884997  75.2549988  10.7890012  36.3154997  73.4729988
  11.4660012  35.4454997  73.6079988  10.3930012  36.3834997  72.4369988
  11.5550012  37.6954997  73.6299988  10.7080012  38.3794997  73.8509988
  12.2290012  37.6704997  74.5129988  12.2180012  38.2724997  72.3659988
  11.5500012  38.2594997  71.4789988  12.4980012  39.3294997  72.5649988
  13.5050012  37.6114997  71.8529988  13.9750012  38.2334997  71.0619988
  14.3240012  37.5234997  72.5989988  13.3470012  36.2994997  71.2039988
  13.1650012  35.5694997  72.0219988  12.4230012  36.4444997  70.6049988
  14.4780012  35.7314997  70.3249988  14.7440012  36.3684997  69.4539988
  15.3360012  35.6884997  71.0279988  14.3230012  34.2694997  69.9709988
  14.3940012  33.2384997  70.6689988  14.1830012  34.2364997  68.6049988
  14.0970012  32.8844997  68.0379988  15.1030012  32.6284997  67.6409988
  13.8270012  32.1884997  68.8599988  12.9750012  32.8424997  67.0179988
  12.8760012  31.8084997  66.6249988  13.2440012  33.8144997  65.7899988
  14.1500012  33.5504997  65.2039988  12.3830012  33.6504997  65.1079988
  13.3850012  35.0974997  66.2039988  13.8240012  36.2524997  65.2209988
  13.2510012  35.9634997  63.7699988  12.0060012  36.5634997  63.4109988
  11.2710012  36.2764997  64.1919988  12.1290012  37.6664997  63.3589988
  11.6360012  36.2394997  61.9619988  10.9570012  37.0274997  61.6689988
  12.5040012  36.4104997  61.3429988  11.0120012  34.8544997  61.7279988
  11.9990012  33.7944997  62.1349988  12.9370012  33.9584997  61.6239988
  12.2900012  33.9444997  63.1639988  11.5630012  32.8094997  62.0559988
   9.8920012  34.7804997  62.6369988   9.5810012  33.7494997  62.7109988
  10.1790012  35.2024997  63.5889988   9.0110012  35.2724997  62.2499988
  10.7330012  34.6444997  60.2669988  10.0870012  33.7794997  60.3079988
  11.6540012  34.3984997  59.7599988  10.2470012  35.4784997  59.7829988
  13.2830012  37.5104997  65.7469988  15.3040012  36.1504997  65.0989988
  11.7540012  33.2164997  67.7059988  10.6950012  32.4814997  67.3959988
  10.5950012  31.6494997  66.4949988   9.6080012  32.9014997  68.3899988
   8.6560012  33.0594997  67.8399988   9.8860012  33.8784997  68.8389988
   9.5260012  31.7724997  69.4529988   9.3560012  30.7864997  68.9689988
   8.6500012  31.8854997  70.1259988  10.7400012  31.6344997  70.3169988
  11.2410012  32.5774997  70.6229988  11.4570012  31.0034997  69.7489988
  10.4030012  30.8134997  71.5849988  10.0870012  29.7964997  71.2709988
   9.4490012  31.1594997  72.0359988  11.4760012  30.7674997  72.6519988
  11.9520012  31.7664997  72.7509988  12.2110012  29.9824997  72.3709988
  10.9310012  30.2274997  73.9919988  10.7500012  29.1404997  73.8429988
   9.9870012  30.7894997  74.1579988  11.8670012  30.6234997  75.1369988
  11.3220012  30.4854997  76.0949988  12.2360012  31.6704997  75.1179988
  13.1910012  29.8764997  75.2119988  13.2820012  28.9344997  74.6509988
  14.2770012  30.1954997  75.9059988  15.1690012  29.6364997  75.5889988
  14.3510012  31.4434997  76.8099988  15.0580012  31.2124997  77.6359988
  13.3510012  31.7204997  77.2069988  14.7770012  32.7364997  76.0469988
  14.2010012  32.9624997  75.1239988  15.8250012  32.6404997  75.6919988
  14.5170012  34.0234997  76.8519988  13.4880012  33.9284997  77.2609988
  14.5180012  34.8204997  76.0779988  15.5180012  34.2974997  77.9919988
  16.5240012  34.3434997  77.5239988  15.5060012  33.4094997  78.6599988
  15.4530012  35.6054997  78.7389988  14.5670012  35.7064997  79.4019988
  15.3230012  36.3864997  77.9589988  16.6360012  35.8464997  79.6439988
  17.4790012  35.1304997  79.5429988  16.3370012  35.6374997  80.6929988
  17.2690012  37.2474997  79.4019988  17.3690012  37.3474997  78.2999988
  18.3110012  37.1754997  79.7819988  16.5410012  38.4404997  80.0849988
  15.4820012  38.4294997  79.7489988  16.9570012  39.4284997  79.7919988
  16.6970012  38.3514997  81.1819988   9.7270012 114.7074997  79.8749988
  10.4880012 114.0014997  80.2699988   8.7480012 114.5824997  80.3849988
  10.0150012 115.7644997  80.0619988   9.6270012 114.5534997  78.3809988
   9.0200012 115.4144997  78.0279988  10.5860012 114.7324997  77.8489988
   8.8250012 113.3304997  77.9429988   9.1650012 112.4684997  78.5549988
   7.8280012 113.3554997  78.4319988   8.7080012 112.9804997  76.4349988
   9.6700012 112.4824997  76.1869988   7.8310012 112.2994997  76.3739988
   8.5910012 114.0904997  75.3739988   7.6250012 114.5664997  75.6499988
   9.3750012 114.8644997  75.5209988   8.4380012 113.5964997  73.9339988
   7.5560012 112.9374997  73.7859988   8.3300012 114.4494997  73.2299988
   9.7710012 112.8444997  73.4949988  10.6450012 113.5024997  73.6859988
   9.8690012 111.9934997  74.2019988   9.8760012 112.4394997  72.0209988
  10.8510012 111.9334997  71.8519988   9.0430012 111.7144997  71.8969988
   9.6060012 113.4834997  70.8349988   8.5340012 113.7414997  70.9719988
  10.2120012 114.4064997  70.9539988   9.8460012 112.8254997  69.4629988
  10.9300012 112.8224997  69.2199988   9.3450012 111.8384997  69.3689988
   9.2830012 113.6784997  68.2859988   9.6990012 114.6994997  68.4179988
   9.6450012 113.1714997  67.3669988   7.7540012 113.8704997  68.3049988
   7.1730012 112.9494997  68.5229988   7.4640012 114.6474997  69.0439988
   7.2000012 114.3204997  66.9169988   7.2410012 113.4834997  66.1869988
   6.1380012 114.5444997  67.1539988   7.8830012 115.5294997  66.3409988
   8.8850012 115.2344997  65.9599988   7.3740012 115.8774997  65.4169988
   7.9790012 116.7374997  67.2919988   6.9830012 117.2014997  67.4529988
   8.4060012 116.4194997  68.2679988   8.9640012 117.8934997  66.9049988
   9.5970012 118.4584997  67.7459988   9.1570012 117.9144997  65.6059988
  10.2090012 118.5434997  64.9629988   9.7780012 119.0594997  64.0779988
  10.6130012 119.3864997  65.5649988  11.2680012 117.5474997  64.4119988
  12.0990012 118.1634997  64.0059988  10.6670012 116.6024997  63.3519988
   9.8250012 116.0814997  63.8559988  10.1350012 117.2124997  62.5909988
  11.6560012 115.7794997  62.7309988  11.2870012 114.3314997  62.1709988
  10.4610012 113.7184997  63.4249988  10.9720012 113.3574997  64.6159988
  11.7540012 114.0954997  64.8969988  10.2430012 113.3364997  65.4529988
  11.5670012 111.9064997  64.6919988  12.3530012 111.7944997  63.9599988
  11.9890012 111.7324997  65.6709988  10.5580012 110.7054997  64.4089988
   9.5400012 110.7634997  65.5149988  10.0320012 110.6734997  66.4729988
   8.8910012 111.6174997  65.3929988   8.8610012 109.9314997  65.3979988
   9.9250012 110.7954997  63.1079988   9.2460012 111.6334997  63.0439988
  10.6070012 110.9114997  62.2779988   9.2970012 109.9294997  62.9619988
  11.3490012 109.4304997  64.5319988  10.6710012 108.5894997  64.5619988
  11.9830012 109.4044997  65.4059988  11.9900012 109.2274997  63.6869988
  10.4680012 114.3964997  60.9449988  12.6210012 113.6454997  62.0379988
  11.7600012 116.7664997  65.4889988  12.6180012 117.3544997  66.3249988
  13.2040012 118.3954997  66.2029988  12.6710012 116.5984997  67.6539988
  13.4760012 115.8464997  67.5099988  11.7680012 115.9994997  67.8969988
  13.1720012 117.4404997  68.7869988  14.0690012 118.0424997  68.5279988
  13.5360012 116.7034997  69.5329988  12.1770012 118.3574997  69.6669988
  11.8690012 119.2124997  69.0279988  12.8670012 118.8124997  70.4089988
  11.0490012 117.7064997  70.4629988  11.2440012 116.7684997  71.0259988
  10.3110012 117.4104997  69.6869988  10.5270012 118.6934997  71.5149988
  10.2730012 119.6774997  71.0679988  11.3730012 118.9084997  72.2029988
   9.3190012 118.1714997  72.2179988   8.8390012 117.3994997  71.5799988
   8.5380012 118.9464997  72.3729988   9.5130012 117.4284997  73.6249988
  10.4030012 116.7724997  73.5159988   8.5740012 116.8664997  73.8149988
   9.6530012 118.3074997  74.8429988   8.8060012 118.8914997  75.2329988
  10.7960012 118.5924997  75.5999988  10.7480012 119.3814997  76.3659988
  12.1860012 118.0284997  75.3089988  13.0240012 118.7574997  75.3059988
  12.1550012 117.3694997  74.4149988  12.3710012 116.9284997  76.4449988
  13.2560012 116.3004997  76.2069988  11.5180012 116.2164997  76.4069988
  12.4970012 117.6134997  77.8579988  11.5060012 118.0374997  78.1259988
  13.2100012 118.4634997  77.8089988  12.9610012 116.7744997  79.0349988
  14.0020012 116.4044997  78.9239988  12.2980012 115.8824997  79.0569988
  12.7840012 117.4854997  80.3539988  11.6920012 117.6234997  80.5059988
  13.2400012 118.4964997  80.4149988  13.2230012 116.6494997  81.4839988
  14.2370012 116.2954997  81.1989988  12.5290012 115.7904997  81.6039988
  13.3350012 117.3574997  82.8099988  14.0130012 118.2224997  82.6449988
  13.9100012 116.7014997  83.4989988  12.0210012 117.8914997  83.3969988
  12.1930012 118.1664997  84.4599988  11.2420012 117.1054997  83.3039988
  11.7290012 118.7984997  82.8259988  39.7540012 134.4134997  84.2409988
  39.7040012 134.4194997  85.3499988  39.3310012 135.3584997  83.8379988
  40.8290012 134.3904997  83.9589988  38.8860012 133.2834997  83.7809988
  39.3330012 132.3694997  84.2269988  37.8690012 133.3894997  84.2159988
  38.8110012 133.0804997  82.2589988  38.2930012 132.1484997  81.9469988
  38.2650012 133.8954997  81.7369988  40.2760012 133.0774997  81.5769988
  40.7700012 134.0734997  81.5809988  40.8940012 132.3474997  82.1419988
  40.2730012 132.5544997  80.0659988  39.8350012 131.5344997  80.0129988
  39.7710012 133.3024997  79.4169988  41.7940012 132.6094997  79.5539988
  42.3370012 133.3234997  80.2099988  42.3280012 131.6594997  79.7699988
  41.9030012 132.9094997  78.0849988  41.4300012 133.8914997  77.8679988
  42.9860012 132.9334997  77.8409988  41.2230012 131.8874997  77.1869988
  41.7430012 130.9074997  77.2519988  40.2070012 131.6244997  77.5509988
  41.0000012 132.2314997  75.7529988  40.2460012 133.0474997  75.7739988
  41.9520012 132.7364997  75.4819988  40.6350012 131.0544997  74.8469988
  41.5080012 130.3684997  74.8659988  39.6880012 130.5744997  75.1729988
  40.4620012 131.3744997  73.3769988  41.4220012 131.6294997  72.8789988
  40.1700012 130.5094997  72.7439988  39.6690012 132.7034997  73.2149988
  38.8250012 132.7734997  73.9339988  40.3110012 133.5974997  73.3699988
  38.9400012 132.8654997  71.8279988  39.5940012 132.7364997  70.9389988
  38.2750012 131.9754997  71.8449988  38.1710012 134.2194997  71.7579988
  37.3610012 134.1814997  72.5169988  38.9420012 134.9784997  72.0109988
  37.6710012 134.2764997  70.3229988  38.5010012 133.8914997  69.6929988
  36.7070012 133.7594997  70.1259988  37.5340012 135.7134997  69.9729988
  37.7870012 136.6374997  70.6969988  37.2160012 135.7524997  68.6489988
  37.2810012 137.0404997  67.9869988  36.3480012 137.0694997  67.3839988
  37.2540012 137.9334997  68.6479988  38.5290012 137.2574997  67.1499988
  38.5420012 138.2884997  66.7359988  38.4830012 136.2754997  65.9319988
  37.4310012 136.3614997  65.5839988  39.2940012 136.6224997  65.2569988
  38.7790012 135.0064997  66.3359988  39.9310012 134.0824997  65.7129988
  39.4260012 133.9474997  64.2059988  38.8490012 132.7404997  63.6769988
  39.5860012 131.9114997  63.7439988  38.0050012 132.4644997  64.3449988
  38.2660012 132.9444997  62.3009988  37.8800012 132.0444997  61.8469988
  37.3740012 133.5494997  62.3729988  39.1810012 133.5734997  61.2619988
  39.4640012 134.9954997  61.5179988  39.9740012 135.4554997  60.6839988
  38.4470012 135.3364997  61.6469988  39.9720012 135.1554997  62.4569988
  40.4280012 132.7624997  61.1299988  41.0850012 132.6754997  61.9829988
  40.2430012 131.7744997  60.7359988  40.9530012 133.1714997  60.2789988
  38.4730012 133.4924997  59.9089988  39.2000012 133.8134997  59.1789988
  37.5280012 134.0154997  59.8919988  38.2770012 132.4524997  59.6939988
  41.2320012 134.7424997  65.7939988  39.9300012 132.7394997  66.3339988
  39.6330012 137.0454997  67.9609988  40.7670012 137.5664997  67.5659988
  41.0680012 138.2614997  66.6009988  41.8770012 137.1744997  68.5539988
  42.8610012 137.6164997  68.2889988  42.0000012 136.0704997  68.5389988
  41.5090012 137.5824997  69.9429988  40.5550012 137.1234997  70.2809988
  41.4590012 138.6764997  70.1349988  42.4520012 137.0274997  71.1019988
  43.5230012 137.2444997  70.8979988  42.1900012 135.9784997  71.3589988
  42.2100012 137.7114997  72.4779988  42.3530012 138.7814997  72.2159988
  42.8940012 137.4264997  73.3059988  40.8260012 137.4744997  73.1789988
  40.7250012 136.3864997  73.3789988  39.9790012 137.7954997  72.5359988
  40.6180012 138.2294997  74.4769988  40.5140012 139.2624997  74.0819988
  41.3960012 138.2684997  75.2699988  39.2260012 137.7784997  75.0639988
  38.3760012 137.7564997  74.3479988  39.0130012 138.6834997  75.6729988
  39.1840012 136.4014997  75.7629988  39.9920012 136.1424997  76.4649988
  38.2330012 135.4494997  75.6389988  38.3760012 134.5854997  76.3039988
  36.9670012 135.3334997  74.8749988  36.8480012 134.2654997  74.5929988
  37.1850012 135.8164997  73.8989988  35.6220012 135.8854997  75.4559988
  34.8780012 135.8564997  74.6309988  35.7160012 136.9534997  75.7489988
  35.0760012 135.1804997  76.6869988  35.5860012 134.2114997  76.8769988
  33.9990012 134.9834997  76.4979988  35.0420012 135.9594997  78.0369988
  34.6470012 135.3214997  78.8559988  34.2940012 136.7784997  77.9739988
  36.4200012 136.4974997  78.5439988  36.7950012 137.3914997  77.9999988
  37.1700012 135.7194997  78.2859988  36.6150012 136.6704997  80.0689988
  36.3240012 135.7284997  80.5799988  35.7960012 137.4064997  80.2189988
  37.8880012 137.3084997  80.5889988  37.6380012 137.3164997  81.6719988
  37.9930012 138.3214997  80.1439988  39.0850012 136.4344997  80.2719988
  39.0910012 135.3584997  80.5509988  39.9890012 136.8324997  80.7799988
  39.3160012 136.4044997  79.1859988 113.2560012  13.2974997  80.1589988
 113.6230012  13.4694997  81.1939988 112.2120012  12.9184997  80.1529988
 113.2920012  14.2694997  79.6209988 114.2560012  12.2874997  79.5759988
 115.3040012  12.3624997  79.9379988 113.9400012  11.3414997  80.0669988
 114.1270012  12.0434997  78.1289988 114.3770012  13.0174997  77.6539988
 114.8290012  11.2884997  77.7159988 112.7990012  11.4064997  77.7439988
 112.6490012  10.5444997  78.4289988 111.9730012  12.1494997  77.7789988
 112.9050012  10.9434997  76.2769988 113.9550012  11.1694997  75.9909988
 112.7750012   9.8404997  76.2399988 111.7370012  11.3734997  75.3979988
 111.7320012  10.7344997  74.4889988 110.8170012  11.1224997  75.9689988
 111.7210012  12.8554997  75.0169988 111.5860012  13.6214997  75.8099988
 112.6670012  13.0864997  74.4829988 110.6030012  13.2524997  74.0069988
 110.4860012  12.3974997  73.3079988 109.6180012  13.3834997  74.5029988
 110.8670012  14.6004997  73.3579988 110.7760012  15.3324997  74.1889988
 111.9260012  14.6864997  73.0319988 109.9710012  15.0424997  72.2689988
 108.8950012  14.9394997  72.5269988 110.0820012  16.1184997  72.0159988
 109.9360012  14.0634997  71.0849988 109.6740012  13.0624997  71.4909988
 109.1230012  14.3804997  70.3969988 111.2990012  14.0294997  70.2989988
 112.0620012  13.7714997  71.0639988 111.2120012  13.3684997  69.4099988
 111.8950012  15.3434997  69.7749988 111.0870012  15.6344997  69.0699988
 111.9560012  16.0234997  70.6519988 113.2010012  15.1574997  68.9269988
 114.0410012  14.9444997  69.6219988 112.9570012  14.2504997  68.3339988
 113.6400012  16.4604997  68.1189988 113.0030012  16.4044997  67.2109988
 113.2680012  17.4114997  68.5579988 115.0850012  16.3894997  67.7449988
 116.0130012  15.9314997  68.4479988 115.2430012  16.8594997  66.4809988
 116.4990012  16.6074997  65.8809988 116.6830012  17.2904997  65.0239988
 117.3020012  16.5054997  66.6419988 116.3640012  15.2744997  65.1339988
 117.2770012  15.2424997  64.5019988 115.1180012  15.3064997  64.2119988
 114.3180012  14.7114997  64.7039988 114.8310012  16.3494997  63.9619988
 115.5640012  14.6304997  63.0179988 115.2790012  13.0654997  62.6579988
 113.7880012  12.8504997  63.2439988 112.6410012  13.0834997  62.3639988
 112.8660012  13.9184997  61.6669988 112.4670012  12.1264997  61.8289988
 111.3760012  13.5344997  63.2269988 111.5100012  14.5364997  63.6079988
 110.5730012  13.6104997  62.5079988 111.0580012  12.6794997  64.4029988
 111.3560012  11.1754997  64.1129988 111.0090012  10.9164997  63.1229988
 112.3930012  10.9124997  64.2589988 110.6860012  10.6174997  64.7509988
 111.9200012  12.9744997  65.6579988 112.9570012  12.8114997  65.4059988
 111.8090012  14.0164997  65.9209988 111.6130012  12.3604997  66.4919988
 109.6690012  12.8814997  64.7959988 109.4960012  13.9204997  65.0359988
 109.4310012  12.2604997  65.6469988 109.0630012  12.6754997  63.9269988
 115.3160012  12.8824997  61.2249988 116.1540012  12.2024997  63.4739988
 116.2830012  14.1904997  66.0139988 117.4060012  13.6784997  66.4359988
 118.4970012  14.2384997  66.3029988 117.0220012  12.3504997  67.1749988
 117.9130012  11.7904997  67.5299988 116.4850012  11.8764997  66.3259988
 116.0880012  12.5404997  68.5429988 115.5470012  11.5804997  68.6869988
 115.4080012  13.3554997  68.2149988 116.8990012  12.7934997  69.8389988
 117.4590012  13.7204997  69.5919988 117.4380012  11.8904997  70.1979988
 115.9980012  13.2084997  70.9809988 115.0550012  12.6474997  71.1559988
 115.5590012  14.2034997  70.7549988 116.7520012  13.1734997  72.4039988
 117.6010012  13.8894997  72.4139988 117.2530012  12.1814997  72.4239988
 115.8280012  13.3044997  73.6329988 116.4650012  13.1904997  74.5359988
 115.0470012  12.5154997  73.5999988 115.0920012  14.6874997  73.7569988
 114.3860012  14.6134997  74.6119988 114.4830012  14.7694997  72.8309988
 115.9640012  15.8664997  73.8989988 116.6880012  16.0344997  73.0879988
 116.2050012  16.5914997  75.0259988 116.9550012  17.3944997  74.9729988
 115.6140012  16.3774997  76.3459988 115.0270012  15.4564997  76.5509988
 114.9170012  17.2274997  76.5049988 116.5800012  16.4974997  77.5859988
 117.1120012  17.4694997  77.5059988 117.3390012  15.6854997  77.5839988
 115.7180012  16.6214997  78.7949988 115.4760012  15.6524997  79.2819988
 114.8640012  17.2934997  78.5679988 116.3500012  17.3734997  79.9749988
 117.1010012  18.0904997  79.5809988 116.9850012  16.6584997  80.5409988
 115.4620012  17.8264997  81.1339988 115.0460012  16.9424997  81.6619988
 114.6310012  18.4384997  80.7219988 116.2050012  18.7024997  82.0689988
 116.3220012  19.7204997  81.6389988 117.2820012  18.4314997  82.1049988
 115.6050012  18.6194997  83.5429988 114.5030012  18.6664997  83.4099988
 115.9840012  19.5174997  84.0759988 115.8740012  17.3714997  84.3199988
 116.9460012  17.4014997  84.6119988 115.5980012  16.4654997  83.7379988
 115.1810012  17.3304997  85.1859988 142.9670012  43.5984997  80.4739988
 143.2990012  44.6364997  80.2559988 143.5060012  43.2214997  81.3689988
 141.9160012  43.7814997  80.7839988 143.0430012  42.6964997  79.2599988
 144.0770012  42.8484997  78.8829988 142.8050012  41.6434997  79.5229988
 142.0550012  42.9874997  78.0779988 142.0410012  42.0454997  77.4899988
 140.9920012  43.1764997  78.3399988 142.5920012  44.1194997  77.3109988
 142.3500012  45.0564997  77.8579988 143.6890012  44.2454997  77.1969988
 141.9510012  44.1434997  75.9519988 142.2440012  43.2994997  75.2909988
 140.8610012  44.0014997  76.1159988 142.1610012  45.4064997  74.9839988
 141.9440012  46.2974997  75.6099988 143.2000012  45.3734997  74.5929988
 141.2430012  45.3034997  73.8119988 141.3860012  44.4564997  73.1079988
 140.2670012  45.0194997  74.2599988 141.0280012  46.5804997  72.9359988
 140.4460012  47.3214997  73.5249988 142.0270012  47.0024997  72.6929988
 140.3290012  46.2664997  71.5589988 139.7930012  45.3024997  71.6889988
 139.6960012  47.1764997  71.4849988 141.3550012  46.1474997  70.4509988
 140.7810012  46.3644997  69.5249988 142.0600012  47.0024997  70.5279988
 142.1980012  44.8554997  70.3539988 142.7680012  44.8124997  71.3059988
 141.5230012  43.9794997  70.2439988 143.2770012  44.8834997  69.2439988
 143.4850012  43.8514997  68.8899988 142.9960012  45.4134997  68.3089988
 144.6700012  45.4254997  69.6649988 144.5410012  46.5024997  69.9059988
 145.0640012  45.1824997  70.6749988 145.7490012  45.1634997  68.5819988
 145.1450012  45.3144997  67.6609988 146.5060012  45.9754997  68.6189988
 146.5100012  43.8624997  68.6779988 147.5650012  43.9584997  68.3429988
 146.6670012  43.5564997  69.7339988 145.7690012  42.7874997  67.9189988
 145.1810012  41.9334997  68.4929988 145.8840012  42.9754997  66.5979988
 145.5900012  41.8554997  65.8389988 146.1580012  42.0964997  64.9139988
 146.0500012  40.9214997  66.2279988 144.0790012  41.8324997  65.4819988
 143.9380012  41.0824997  64.6749988 143.4720012  43.2134997  65.0839988
 143.5910012  43.9454997  65.9109988 144.1380012  43.6194997  64.2929988
 142.1300012  43.1504997  64.6509988 141.2160012  44.4234997  64.6459988
 139.9130012  44.0304997  63.9229988 139.0770012  43.0844997  64.5639988
 139.7640012  42.3864997  65.0879988 138.3940012  43.4734997  65.3489988
 138.2260012  42.4494997  63.5019988 137.9980012  41.4444997  63.8269988
 137.3330012  43.0284997  63.3189988 138.7220012  42.2134997  62.0529988
 140.0970012  41.6014997  62.1889988 140.5160012  41.8974997  63.1389988
 140.0280012  40.5254997  62.2499988 140.7510012  41.8314997  61.3609988
 137.7950012  41.2194997  61.4279988 137.6460012  40.3184997  62.0049988
 136.8500012  41.6544997  61.1399988 138.3230012  40.8524997  60.5609988
 138.7610012  43.5374997  61.3569988 139.2510012  43.4734997  60.3959988
 139.3690012  44.2554997  61.8879988 137.7440012  43.8904997  61.2769988
 140.8190012  44.7684997  66.0149988 141.8950012  45.4584997  63.8539988
 143.3650012  41.3634997  66.6499988 142.1870012  40.6914997  66.6089988
 141.6340012  40.4694997  65.5379988 141.7830012  40.2824997  67.9969988
 142.6570012  39.9374997  68.5889988 141.0690012  39.4334997  67.9209988
 141.1320012  41.5294997  68.5569988 140.1430012  41.6314997  68.0609988
 141.7540012  42.4034997  68.2679988 140.8990012  41.4944997  70.1129988
 140.2960012  42.3754997  70.4199988 141.8720012  41.5444997  70.6479988
 140.0580012  40.2254997  70.6109988 140.7890012  39.4054997  70.4429988
 139.2010012  40.0294997  69.9319988 139.6370012  40.4234997  72.0849988
 139.0030012  39.5614997  72.3839988 139.0320012  41.3544997  72.1209988
 140.7490012  40.5414997  73.1359988 140.3120012  40.6204997  74.1549988
 141.3910012  41.4454997  73.0629988 141.6250012  39.2494997  73.1269988
 142.0260012  39.0304997  72.1149988 140.8750012  38.4714997  73.3859988
 142.7640012  39.3434997  74.0999988 143.3280012  40.2734997  73.9329988
 142.9970012  38.5854997  75.2199988 143.9770012  38.7004997  75.7059988
 142.1830012  37.3794997  75.6559988 142.8300012  36.4814997  75.7569988
 141.3970012  37.1454997  74.9069988 141.4140012  37.5164997  77.0289988
 140.7140012  36.6594997  77.1269988 140.8670012  38.4834997  77.0239988
 142.4040012  37.6704997  78.2239988 143.0060012  38.5764997  77.9959988
 143.0600012  36.7744997  78.1819988 141.6400012  37.6714997  79.5889988
 141.4010012  36.6034997  79.7799988 140.7460012  38.3204997  79.4709988
 142.3670012  38.1704997  80.8129988 142.8880012  39.0914997  80.4749988
 143.1410012  37.3934997  80.9919988 141.5600012  38.4174997  82.1089988
 141.4450012  37.4834997  82.6989988 140.5250012  38.7174997  81.8379988
 142.0270012  39.5814997  82.9849988 141.1680012  39.7544997  83.6679988
 142.2260012  40.4364997  82.3039988 143.1960012  39.2924997  83.8689988
 142.9530012  38.4504997  84.5519988 143.2900012  40.2114997  84.4859988
 144.1130012  39.1934997  83.2499988  -2.3239988  60.2744997  79.5609988
  -1.8809988  61.1074997  78.9739988  -2.0699988  60.4324997  80.6309988
  -3.4259988  60.3034997  79.4229988  -1.8609988  58.9464997  78.9739988
  -2.5279988  58.1164997  79.2899988  -2.0519988  59.1504997  77.8989988
  -0.3519988  58.6604997  78.9749988   0.0720012  59.6704997  78.7849988
   0.0430012  58.3904997  79.9769988  -0.0139988  57.6484997  77.9069988
   0.9480012  57.1664997  78.1839988  -0.6779988  56.7644997  78.0099988
  -0.0639988  58.1284997  76.3339988  -1.1249988  58.1514997  76.0049988
   0.3280012  59.1654997  76.2719988   0.8450012  57.2164997  75.3789988
   1.9130012  57.2294997  75.6829988   0.3480012  56.2224997  75.4079988
   0.5950012  57.5744997  73.9209988  -0.4929988  57.5584997  73.6929988
   0.9990012  58.5794997  73.6729988   1.1510012  56.5274997  72.8839988
   2.2580012  56.4274997  72.9009988   0.6950012  55.5424997  73.1209988
   0.9930012  56.8354997  71.3779988   1.3430012  57.8774997  71.2219988
   1.6360012  56.1664997  70.7669988  -0.4139988  56.5584997  70.9939988
  -0.6749988  55.4854997  71.1199988  -1.0969988  57.0354997  71.7299988
  -0.9259988  57.1614997  69.5979988  -0.6759988  58.2424997  69.5489988
  -0.4209988  56.6334997  68.7609988  -2.3869988  57.0494997  69.3979988
  -2.6419988  55.9734997  69.4989988  -3.2409988  57.5984997  69.8499988
  -2.6639988  57.0944997  67.8979988  -1.8239988  56.5664997  67.3959988
  -3.5929988  56.5164997  67.7069988  -2.9609988  58.5114997  67.4309988
  -3.8629988  58.8774997  67.9659988  -2.0699988  59.0874997  67.7629988
  -3.0319988  58.6574997  65.8879988  -2.3469988  57.9104997  65.4319988
  -4.0539988  58.4254997  65.5189988  -2.7349988  60.1484997  65.6089988
  -3.6289988  60.9824997  65.4719988  -1.4019988  60.3644997  65.2609988
  -1.1959988  61.7144997  64.9049988  -1.5569988  61.7324997  63.8539988
  -1.8669988  62.4484997  65.4009988   0.3170012  62.0384997  65.0839988
   0.4960012  62.9054997  64.4129988   1.1550012  60.7594997  64.5709988
   0.6190012  60.3354997  63.6949988   2.1940012  60.9964997  64.2549988
   1.3140012  59.7954997  65.6019988   1.6300012  58.2894997  65.4369988
   2.0390012  58.2494997  63.9199988   2.6200012  57.0584997  63.3789988
   3.3180012  57.4304997  62.5979988   3.1710012  56.5484997  64.1979988
   1.5210012  56.0374997  62.8759988   1.9030012  55.0384997  62.7249988
   0.7970012  56.0164997  63.6769988   0.9320012  56.4224997  61.5749988
  -0.2069988  55.4734997  61.2349988   0.0380012  54.4214997  61.2609988
  -0.9949988  55.5794997  61.9639988  -0.7139988  55.7854997  60.3339988
   0.4800012  57.8504997  61.4989988   1.2740012  58.5174997  61.8019988
   0.3950012  58.1364997  60.4609988  -0.4029988  57.9484997  62.1119988
   2.1360012  56.1454997  60.6229988   2.8220012  56.9574997  60.8149988
   1.8020012  56.3264997  59.6119988   2.6490012  55.2114997  60.7979988
   2.7270012  57.8154997  66.3539988   0.4020012  57.5214997  65.6809988
   0.5330012  62.3634997  66.5239988   1.7200012  62.8624997  66.7149988
   2.4790012  63.1724997  65.8169988   2.0790012  63.0644997  68.1809988
   1.2780012  63.4704997  68.8359988   2.9910012  63.6984997  68.2129988
   2.4580012  61.6684997  68.6349988   3.0310012  61.6074997  69.5849988
   3.0280012  61.1114997  67.8609988   1.2660012  60.7184997  68.8899988
   1.6600012  59.7504997  69.2689988   0.8930012  60.4664997  67.8739988
   0.1080012  61.1504997  69.7089988  -0.7249988  60.4354997  69.5379988
  -0.3739988  62.1124997  69.4359988   0.5140012  61.0544997  71.2439988
   1.5010012  61.5424997  71.3889988   0.6820012  60.0094997  71.5809988
  -0.4319988  61.7054997  72.2599988  -1.4619988  61.2994997  72.1679988
  -0.5549988  62.8064997  72.1709988   0.2230012  61.6364997  73.6299988
   0.3630012  60.5634997  73.8799988  -0.5639988  61.9554997  74.3459988
   1.4230012  62.5304997  73.7059988   1.2690012  63.5654997  73.3659988
   2.6690012  62.2044997  74.0419988   3.5040012  62.9134997  74.1399988
   3.0780012  60.7984997  74.3759988   4.0200012  60.6074997  73.8199988
   2.3540012  60.0204997  74.0539988   3.3150012  60.6524997  75.8579988
   3.6350012  59.6264997  76.1409988   2.3680012  60.9024997  76.3829988
   4.5920012  61.4354997  76.1909988   4.4210012  62.5314997  76.1309988
   5.4340012  61.2884997  75.4799988   5.0240012  61.0464997  77.6259988
   6.0440012  61.4784997  77.7239988   5.1270012  59.9414997  77.6699988
   4.0170012  61.3254997  78.7599988   4.4830012  60.9204997  79.6839988
   3.1070012  60.7184997  78.5689988   3.7870012  62.8724997  79.1189988
   3.7660012  63.4614997  78.1769988   4.6050012  63.2684997  79.7569988
   2.4620012  62.9934997  79.8839988   2.5200012  63.8754997  80.5579988
   2.4250012  62.1344997  80.5879988   1.1880012  63.1534997  79.0949988
   1.2150012  64.1154997  78.5389988   0.2760012  63.1674997  79.7289988
   1.0670012  62.3344997  78.3539988  88.8080012   2.4944997  82.5959988
  88.7250012   1.8214997  83.4759988  89.8380012   2.9104997  82.5689988
  88.7160012   1.7844997  81.7469988  87.7770012   3.5124997  82.5859988
  86.8250012   2.9444997  82.6609988  87.9940012   4.0844997  83.5129988
  87.5590012   4.3944997  81.3119988  86.9780012   3.8374997  80.5459988
  86.8400012   5.1984997  81.5789988  88.8470012   5.0974997  80.7959988
  89.2280012   5.7504997  81.6109988  89.7020012   4.4714997  80.4609988
  88.5110012   6.0824997  79.6259988  87.8900012   6.8694997  80.1059988
  89.4770012   6.5044997  79.2749988  87.6590012   5.5034997  78.4349988
  88.2080012   4.6414997  78.0009988  86.6820012   5.2144997  78.8779988
  87.3450012   6.3984997  77.2959988  86.7820012   5.7474997  76.5929988
  86.6780012   7.2084997  77.6599988  88.4390012   6.9784997  76.6309988
  88.0380012   7.6204997  75.8169988  88.8950012   7.6724997  77.3689988
  89.4680012   6.0184997  75.9739988  90.2630012   5.7954997  76.7179988
  88.8240012   5.1304997  75.7949988  90.0900012   6.4814997  74.6219988
  89.3430012   6.3454997  73.8109988  90.2060012   7.5854997  74.5689988
  91.3870012   5.9454997  74.2379988  91.9210012   6.7114997  73.6349988
  92.1340012   5.8094997  75.0489988  91.3680012   4.7014997  73.4829988
  92.4150012   4.3354997  73.4139988  90.8520012   3.9204997  74.0809988
  90.6410012   4.5874997  72.1359988  89.6030012   4.9724997  72.2219988
  91.2020012   5.2224997  71.4179988  90.5880012   3.0734997  71.7849988
  91.5790012   2.6354997  72.0299988  89.8360012   2.7184997  72.5229988
  90.1820012   2.8034997  70.3079988  90.9010012   3.3544997  69.6649988
  90.2370012   1.7004997  70.1869988  88.7160012   3.1764997  70.0079988
  87.7850012   3.1524997  70.7899988  88.7470012   3.6334997  68.7869988
  87.7080012   4.5174997  68.2559988  87.1440012   3.9574997  67.4789988
  87.0270012   4.9484997  69.0209988  88.2280012   5.8104997  67.5919988
  87.3190012   6.3544997  67.2579988  89.0230012   5.4544997  66.3549988
  90.0460012   5.0654997  66.5449988  88.4160012   4.7234997  65.7789988
  89.0420012   6.6084997  65.4559988  90.3160012   7.4084997  65.1459988
  91.3860012   6.3844997  64.5469988  90.9020012   5.2984997  63.7829988
  90.6460012   4.5184997  64.5319988  90.0160012   5.4994997  63.1439988
  91.9960012   4.6884997  62.8399988  92.7730012   4.3434997  63.5059988
  91.5750012   3.8174997  62.3589988  92.5390012   5.4894997  61.7769988
  93.4640012   6.5724997  62.2249988  94.1560012   6.1174997  62.9179988
  93.9180012   6.9924997  61.3389988  92.9640012   7.3384997  62.7989988
  93.3130012   4.5854997  60.9109988  93.8900012   5.1784997  60.2169988
  93.9550012   3.9414997  61.4939988  92.6660012   3.8844997  60.4039988
  91.3980012   6.1344997  60.9639988  90.7460012   5.3324997  60.6509988
  91.8700012   6.6544997  60.1439988  90.8520012   6.8504997  61.5599988
  89.9100012   8.3404997  64.1069988  90.8030012   7.9604997  66.4259988
  89.0370012   6.5974997  68.5289988  88.4120012   7.2584997  69.5339988
  87.2430012   7.2154997  69.8269988  89.4440012   7.9024997  70.4019988
  90.2710012   7.2194997  70.6899988  89.0450012   8.3094997  71.3559988
  89.9610012   9.0814997  69.5749988  89.1050012   9.7454997  69.3269988
  90.4450012   8.8664997  68.5979988  90.9140012   9.8604997  70.3269988
  90.3990012  10.1454997  71.2699988  91.1660012  10.8104997  69.8099988
  92.1380012   9.1754997  70.8979988  91.7810012   8.3864997  71.5949988
  92.8150012   9.8654997  71.4459988  92.9560012   8.4434997  69.8379988
  93.1910012   9.1334997  68.9999988  92.2450012   7.7344997  69.3629988
  94.0680012   7.5344997  70.4579988  94.5340012   6.8674997  69.7019988
  93.4910012   6.8384997  71.1049988  95.1300012   8.2234997  71.3179988
  94.7040012   8.8334997  72.1439988  95.6080012   8.9644997  70.6429988
  96.1770012   7.2744997  71.8659988  96.8710012   6.8374997  71.1329988
  96.1470012   6.7774997  73.1169988  96.9920012   6.0904997  73.2719988
  95.1190012   7.0344997  74.2209988  94.7700012   6.0654997  74.6369988
  94.1920012   7.4514997  73.7729988  95.5880012   7.8634997  75.3239988
  95.8280012   8.8694997  74.9169988  96.4560012   7.4624997  75.8879988
  94.4920012   8.2614997  76.3689988  93.4990012   8.4684997  75.9159988
  94.8340012   9.1824997  76.8879988  94.1590012   7.1354997  77.3269988
  95.0010012   6.9414997  78.0249988  93.9750012   6.2084997  76.7429988
  92.9270012   7.3004997  78.2889988  92.6600012   6.4604997  78.9649988
  92.0980012   7.3474997  77.5509988  92.8810012   8.5894997  79.1979988
  92.9360012   9.4574997  78.5069988  93.6440012   8.5954997  80.0059988
  91.6090012   8.5844997  80.0589988  91.5520012   7.5944997  80.5609988
  90.6950012   8.6144997  79.4279988  91.5270012   9.5914997  81.2429988
  90.4730012   9.7364997  81.5639988  92.0050012  10.5404997  80.9229988
  91.8600012   9.1324997  82.1989988 125.6430012 117.6874997  84.1139988
 125.3140012 117.6604997  85.1749988 126.7520012 117.6414997  84.1579988
 125.3100012 116.8324997  83.4879988 125.0780012 118.9834997  83.4539988
 123.9690012 118.9214997  83.5059988 125.4050012 119.9464997  83.8999988
 125.4050012 119.0984997  81.9119988 126.4580012 119.4214997  81.7659988
 125.3100012 118.0854997  81.4659988 124.4860012 119.9984997  81.0239988
 124.7990012 121.0454997  81.2229988 124.8200012 119.6954997  80.0089988
 122.9940012 119.8114997  81.1039988 122.7750012 118.7304997  80.9689988
 122.7750012 120.0774997  82.1599988 122.1470012 120.7224997  80.2539988
 122.3410012 121.7424997  80.6499988 122.5870012 120.5964997  79.2419988
 120.6330012 120.4474997  80.2759988 120.1720012 120.7474997  81.2409988
 120.2420012 121.2204997  79.5799988 120.2590012 119.0504997  79.7779988
 120.7370012 118.2924997  80.4349988 119.1740012 118.9544997  79.9969988
 120.6450012 118.6734997  78.3169988 120.1380012 119.2784997  77.5359988
 121.7150012 118.7234997  78.0239988 120.0190012 117.2774997  77.8979988
 120.5010012 116.4174997  78.4089988 118.9440012 117.2534997  78.1769988
 120.0310012 116.9144997  76.3759988 119.5130012 115.9314997  76.3479988
 119.5400012 117.7474997  75.8279988 121.4650012 116.7834997  75.7999988
 122.0880012 117.6804997  76.0049988 122.0080012 115.8974997  76.1929988
 121.4930012 116.7244997  74.3069988 121.0600012 115.7494997  73.9969988
 120.7300012 117.4554997  73.9649988 122.7960012 116.9224997  73.6299988
 123.2860012 117.9134997  73.7449988 123.5400012 116.1774997  73.9859988
 122.5860012 116.6944997  72.0929988 122.3910012 115.6034997  72.0129988
 121.6680012 117.1724997  71.6909988 123.7640012 117.1434997  71.2409988
 124.5990012 117.9684997  71.5239988 123.5630012 116.5054997  70.0859988
 124.2970012 116.9814997  68.9189988 125.3380012 117.2704997  69.1759988
 124.5850012 116.1794997  68.2059988 123.4790012 118.0414997  68.1929988
 122.4490012 117.6444997  68.0619988 124.0010012 118.5054997  66.7529988
 124.9930012 118.9584997  66.9659988 124.1280012 117.5674997  66.1719988
 123.1220012 119.3384997  66.0279988 123.3070012 119.8324997  64.5059988
 123.7920012 118.5234997  63.8069988 124.2680012 118.7174997  62.4289988
 123.4930012 119.1224997  61.7429988 125.0740012 119.4824997  62.4199988
 124.6430012 117.2924997  61.8509988 123.7190012 116.7434997  61.7489988
 124.8990012 117.4824997  60.8189988 125.7590012 116.5004997  62.6169988
 126.9000012 117.4344997  62.5529988 127.4060012 117.4384997  61.5989988
 126.4800012 118.4084997  62.7559988 127.5920012 117.2584997  63.3629988
 125.3890012 116.0504997  63.9799988 126.1110012 115.3844997  64.4279988
 125.1880012 116.9054997  64.6089988 124.3880012 115.6574997  63.8769988
 126.0440012 115.2874997  61.8179988 126.7220012 114.7104997  62.4279988
 126.4850012 115.5774997  60.8749988 125.1440012 114.7294997  61.6049988
 121.9520012 120.2024997  64.0849988 124.3210012 120.8494997  64.5069988
 123.4050012 119.2164997  69.0569988 122.2060012 119.6534997  69.4519988
 121.0930012 119.1264997  69.3839988 122.3920012 121.0534997  69.8779988
 121.4040012 121.5374997  69.7289988 123.2470012 121.5324997  69.3539988
 122.5490012 121.0534997  71.3989988 122.9850012 122.0104997  71.7569988
 123.3450012 120.3084997  71.6109988 121.3010012 120.6154997  72.2279988
 121.2610012 119.5084997  72.1429988 120.3740012 121.0974997  71.8509988
 121.3700012 120.7864997  73.6989988 122.3390012 120.2524997  73.8039988
 120.5730012 120.1594997  74.1519988 121.3170012 122.2784997  74.2089988
 120.3210012 122.6834997  73.9299988 122.0800012 122.8134997  73.6039988
 121.4640012 122.5324997  75.7099988 120.6260012 122.1154997  76.3079988
 121.4560012 123.5894997  76.0519988 122.8110012 121.9424997  76.3269988
 122.6720012 120.8404997  76.2899988 123.0010012 121.9674997  77.4209988
 124.0490012 122.4994997  75.6459988 124.0020012 123.5964997  75.7119988
 125.0990012 121.8534997  75.0589988 125.9910012 122.3694997  74.6749988
 125.1290012 120.3414997  75.0469988 125.7250012 120.0444997  74.1579988
 124.1820012 119.8094997  74.8129988 125.6430012 119.7384997  76.3709988
 125.0860012 120.3044997  77.1479988 126.7030012 120.0724997  76.3779988
 125.5180012 118.1754997  76.4549988 125.8670012 117.6604997  75.5349988
 124.4380012 117.9364997  76.5579988 126.1560012 117.4824997  77.6899988
 126.0040012 118.2404997  78.4879988 127.1760012 117.1504997  77.4019988
 125.3660012 116.1964997  78.1709988 125.2990012 115.4584997  77.3429988
 124.3820012 116.5514997  78.5449988 125.9800012 115.4154997  79.3389988
 126.1930012 115.9854997  80.2689988 126.9550012 115.0334997  78.9689988
 125.1790012 114.2294997  79.8429988 125.7810012 113.3774997  80.2249988
 124.5590012 113.8484997  79.0029988 124.3150012 114.7074997  80.9919988
 123.6150012 115.4814997  80.6119988 124.8190012 115.1034997  81.8989988
 123.6770012 113.9274997  81.4589988  61.0280012 142.2344997  81.2919988
  61.5390012 141.4944997  81.9439988  60.0460012 141.8584997  80.9349988
  60.7910012 143.2334997  81.7159988  61.9730012 142.4144997  80.1299988
  61.5890012 143.1094997  79.3529988  62.8510012 142.9664997  80.5279988
  62.3870012 141.1504997  79.3929988  63.1180012 141.5064997  78.6349988
  62.9280012 140.4674997  80.0819988  61.2250012 140.2474997  78.8849988
  60.7930012 139.6564997  79.7209988  60.4260012 140.9134997  78.4939988
  61.7910012 139.3354997  77.6949988  62.6600012 138.7704997  78.0939988
  60.8970012 138.7294997  77.4349988  62.0960012 139.9784997  76.3529988
  61.2230012 140.6454997  76.1889988  63.0660012 140.5204997  76.3349988
  62.0520012 138.8454997  75.2229988  63.1030012 138.4914997  75.2939988
  61.3510012 138.0154997  75.4539988  61.6370012 139.3454997  73.8249988
  61.6560012 138.3974997  73.2449988  60.5740012 139.6524997  73.9249988
  62.4660012 140.3774997  73.1249988  62.5200012 141.3614997  73.6389988
  63.5300012 140.0644997  73.1929988  62.0990012 140.5824997  71.6659988
  62.1790012 139.7464997  70.9389988  61.0220012 140.8524997  71.6849988
  62.7770012 141.7854997  70.9779988  62.6190012 142.6944997  71.5959988
  63.8800012 141.6714997  71.0569988  62.2930012 142.0004997  69.5749988
  62.6510012 143.0034997  69.2579988  62.8170012 141.3594997  68.8339988
  60.7690012 141.8094997  69.3349988  60.4690012 140.8124997  69.7219988
  60.2130012 142.5664997  69.9289988  60.3810012 141.9214997  67.7809988
  61.0250012 141.1634997  67.2849988  59.3710012 141.4594997  67.7839988
  60.3740012 143.3524997  67.1509988  59.7600012 143.4154997  66.2279988
  59.8000012 143.9994997  67.8479988  61.7560012 143.9004997  66.7539988
  62.2050012 144.9924997  67.1579988  62.4000012 143.0394997  65.9719988
  63.7630012 143.3904997  65.5829988  63.8060012 143.7644997  64.5379988
  64.1830012 144.1774997  66.2439988  64.7050012 142.1374997  65.6769988
  65.6610012 142.4254997  65.1889988  64.0570012 140.8854997  64.9089988
  63.4050012 141.4114997  64.1799988  64.9230012 140.3444997  64.4709988
  63.3810012 140.1244997  65.8799988  62.4700012 138.8694997  65.5689988
  61.9920012 139.1384997  64.0779988  61.0780012 140.2694997  63.8959988
  60.0170012 140.1134997  64.1829988  61.2850012 141.1644997  64.5209988
  61.1450012 140.8814997  62.5119988  60.8580012 141.9194997  62.5949988
  62.1610012 140.8224997  62.1529988  60.5710012 140.0454997  61.3999988
  59.1040012 139.6114997  61.5369988  59.0480012 139.3944997  62.5939988
  58.5270012 140.4864997  61.2759988  58.8810012 138.7824997  60.8819988
  60.6710012 140.8444997  60.1049988  60.1650012 141.7934997  60.2049988
  61.7230012 141.0324997  59.9519988  60.4330012 140.2494997  59.2349988
  61.4660012 138.8294997  61.2039988  61.1470012 138.1954997  60.3899988
  61.4050012 138.2204997  62.0939988  62.4880012 139.1714997  61.1259988
  63.3460012 137.7074997  65.7229988  61.2400012 138.8904997  66.2759988
  64.9920012 141.8714997  67.0429988  66.1640012 141.1844997  67.2099988
  66.8400012 140.7224997  66.3149988  66.4700012 141.0284997  68.7189988
  67.4990012 140.6104997  68.7269988  65.7190012 140.3054997  69.1049988
  66.3780012 142.3284997  69.5879988  65.3270012 142.6254997  69.3849988
  67.1440012 142.9954997  69.1389988  66.6940012 142.0674997  71.0869988
  67.7210012 141.6484997  71.0159988  66.0790012 141.2414997  71.5029988
  66.8580012 143.3204997  71.9669988  65.9060012 143.8294997  72.2309988
  67.3660012 144.0884997  71.3449988  67.7490012 143.2064997  73.2379988
  67.7010012 144.1734997  73.7829988  68.7570012 142.9454997  72.8499988
  67.4520012 142.1294997  74.2599988  68.3270012 142.2794997  74.9289988
  67.5210012 141.1624997  73.7189988  66.1960012 142.2684997  75.0419988
  65.3160012 142.3904997  74.3739988  66.2870012 143.2094997  75.6259988
  65.7200012 141.1384997  75.9259988  65.0610012 140.4474997  75.3799988
  66.0050012 140.8964997  77.2349988  65.5910012 140.0314997  77.7729988
  66.8850012 141.8274997  78.0969988  66.3720012 142.8094997  78.1699988
  67.7790012 142.0714997  77.4829988  67.2970012 141.3714997  79.5819988
  68.0230012 142.1394997  79.9239988  67.7910012 140.3804997  79.4889988
  66.1820012 141.3884997  80.6369988  66.6520012 140.9334997  81.5349988
  65.3060012 140.8344997  80.2369988  65.7560012 142.7644997  81.1149988
  65.4340012 143.2624997  80.1749988  66.6910012 143.2754997  81.4299988
  64.7800012 142.7244997  82.2959988  65.2370012 142.1594997  83.1359988
  63.8580012 142.2004997  81.9639988  64.4540012 144.1944997  82.6459988
  64.0440012 144.7454997  81.7719988  65.4500012 144.6454997  82.8399988
  63.4520012 144.3594997  83.7519988  63.9290012 143.9864997  84.6829988
  62.5190012 143.7614997  83.6729988  63.0190012 145.8174997  84.0969988
  62.3160012 146.2794997  83.3709988  63.9540012 146.4004997  84.2439988
  62.4590012 145.8634997  85.0549988  73.4750012   0.6584997  82.8029988
  73.1190012  -0.0405003  83.5899988  74.3490012   0.1144997  82.3849988
  72.7420012   0.7114997  81.9689988  73.8090012   2.0374997  83.3359988
  72.8870012   2.4654997  83.7849988  74.5600012   2.1104997  84.1509988
  74.1380012   3.0434997  82.2339988  75.2250012   3.0064997  82.0079988
  73.6190012   2.8934997  81.2629988  73.7850012   4.5054997  82.8779988
  72.7030012   4.5654997  83.1229988  74.3040012   4.6724997  83.8469988
  74.3090012   5.6844997  82.0809988  74.0760012   6.6134997  82.6449988
  75.4110012   5.5474997  82.0409988  73.6470012   5.8194997  80.7379988
  73.6900012   4.8424997  80.2109988  72.6100012   6.2144997  80.7869988
  74.4840012   6.6194997  79.7939988  74.2930012   7.6574997  80.1419988
  75.5490012   6.3604997  79.9719988  74.0900012   6.7594997  78.3599988
  72.9820012   6.7024997  78.3049988  74.3800012   7.7724997  78.0049988
  74.7320012   5.7144997  77.4539988  75.7800012   5.9554997  77.1759988
  74.8340012   4.7204997  77.9409988  73.8940012   5.6124997  76.0639988
  72.8130012   5.4994997  76.2939988  74.0840012   6.5214997  75.4549988
  74.3680012   4.4584997  75.2649988  75.4790012   4.4624997  75.2719988
  73.9360012   3.5524997  75.7419988  73.8040012   4.4634997  73.8119988
  73.1580012   5.3644997  73.7559988  74.6130012   4.6944997  73.0859988
  73.1640012   3.1024997  73.3329988  73.8780012   2.3234997  73.6749988
  72.2210012   2.9044997  73.8859988  72.9630012   2.9434997  71.8509988
  72.2600012   2.1214997  71.5959988  72.4650012   3.8244997  71.3929988
  74.2370012   2.8364997  70.9979988  74.6740012   3.8564997  71.0459988
  74.8120012   2.0664997  71.5559988  73.8790012   2.4204997  69.5859988
  72.9080012   2.7344997  68.9479988  75.0060012   1.8774997  69.1109988
  75.0570012   1.4454997  67.7399988  75.5600012   0.4554997  67.6899988
  74.0380012   1.3864997  67.3009988  75.8620012   2.4084997  66.8769988
  75.2400012   3.2414997  66.4849988  76.5420012   1.6644997  65.7189988
  77.0320012   0.7164997  66.0279988  75.7350012   1.4464997  64.9859988
  77.5870012   2.4354997  65.1879988  77.6490012   3.3234997  63.9109988
  76.2600012   4.0974997  64.0739988  76.1140012   5.4164997  63.4689988
  76.0360012   6.1364997  64.3119988  77.0300012   5.7624997  62.9449988
  74.8630012   5.6124997  62.4899988  74.7570012   6.6434997  62.1869988
  75.1880012   5.0044997  61.6579988  73.5190012   5.0784997  62.9389988
  73.2540012   5.6324997  64.3219988  73.7570012   6.5864997  64.2609988
  72.2250012   5.5954997  64.6479988  73.7140012   5.0194997  65.0829988
  72.4340012   5.6304997  61.9869988  72.3680012   6.7064997  62.0389988
  72.6240012   5.2214997  61.0049988  71.4750012   5.2374997  62.2909988
  73.4760012   3.5444997  62.9259988  73.2930012   3.2264997  61.9109988
  72.6480012   3.1304997  63.4819988  74.3650012   3.1784997  63.4189988
  78.7700012   4.2764997  64.1439988  77.6480012   2.3884997  62.7309988
  76.8440012   2.9774997  67.7549988  77.1140012   4.2554997  67.8389988
  76.5940012   5.1144997  67.1139988  78.2640012   4.5284997  68.8999988
  77.7720012   5.0374997  69.7569988  79.0080012   5.2274997  68.4609988
  78.9240012   3.2214997  69.4029988  79.4780012   2.7864997  68.5439988
  78.2120012   2.4504997  69.7689988  79.8650012   3.4444997  70.5739988
  79.3540012   4.1154997  71.2959988  80.8120012   3.8744997  70.1839988
  80.4480012   2.2314997  71.2269988  81.4800012   2.3894997  71.6049988
  80.4570012   1.4564997  70.4309988  79.5750012   1.6874997  72.3569988
  79.7410012   0.5984997  72.5039988  78.5230012   1.5624997  72.0209988
  79.5980012   2.5194997  73.5919988  79.2000012   3.5464997  73.4459988
  80.6410012   2.6504997  73.9509988  78.7740012   1.8554997  74.7799988
  78.9650012   2.5684997  75.6109988  79.2190012   0.9024997  75.1379988
  77.2960012   1.8614997  74.6559988  77.0070012   2.4654997  73.7829988
  76.4150012   1.3174997  75.4219988  75.3700012   1.5334997  75.1539988
  76.5880012   0.4944997  76.6789988  77.2070012  -0.4115003  76.5069988
  75.5690012   0.0814997  76.8399988  77.0300012   1.1694997  77.9489988
  78.0640012   1.5384997  77.7799988  77.0030012   0.4804997  78.8199988
  76.2010012   2.4064997  78.3949988  75.1730012   2.1144997  78.6999988
  76.1050012   2.9854997  77.4519988  76.7450012   3.2704997  79.5429988
  76.7530012   2.6644997  80.4739988  75.9100012   3.9404997  79.8399988
  78.0120012   3.9844997  79.2329988  77.8700012   4.7974997  78.4899988
  78.8090012   3.3264997  78.8259988  78.6630012   4.6934997  80.4269988
  79.4140012   3.9134997  80.6779988  77.9200012   4.6164997  81.2499988
  79.3930012   6.0644997  80.3629988  80.2180012   6.0034997  79.6209988
  80.0590012   6.0724997  81.2529988  78.5660012   7.3274997  80.2029988
  77.7280012   7.4224997  80.9269988  77.8790012   7.3634997  79.3309988
  79.1150012   8.2924997  80.1899988  19.9210012  24.8544997  80.8519988
  20.7310012  25.4174997  81.3619988  19.8060012  23.8884997  81.3889988
  19.0460012  25.5324997  80.9299988  20.3170012  24.6894997  79.3209988
  19.4250012  24.5494997  78.6729988  20.8150012  25.6644997  79.1319988
  21.4090012  23.6634997  78.9319988  22.3710012  23.8854997  79.4409988
  20.9760012  22.7134997  79.3119988  21.7200012  23.6434997  77.4539988
  20.7820012  23.5004997  76.8769988  22.1660012  24.6024997  77.1129988
  22.6850012  22.4764997  77.1169988  23.5260012  22.5404997  77.8399988
  22.1890012  21.5134997  77.3629988  23.3130012  22.3594997  75.6939988
  23.9260012  23.2444997  75.4189988  24.0910012  21.5694997  75.7769988
  22.3520012  21.9134997  74.5979988  21.7420012  21.0454997  74.9289988
  21.7140012  22.8104997  74.4479988  23.1280012  21.7124997  73.1929988
  23.3550012  22.7074997  72.7529988  24.1310012  21.2544997  73.3319988
  22.3500012  20.8774997  72.1679988  23.0150012  20.6744997  71.3019988
  22.1470012  19.9084997  72.6739988  21.0970012  21.6194997  71.5739988
  20.4100012  21.8574997  72.4149988  21.4590012  22.6274997  71.2769988
  20.4310012  20.6964997  70.5059988  21.1160012  20.2764997  69.7389988
  19.9130012  19.8214997  70.9549988  19.3180012  21.4544997  69.7419988
  18.5870012  21.6744997  70.5499988  19.5470012  22.4984997  69.4379988
  18.6050012  20.8164997  68.5369988  19.4720012  20.6904997  67.8539988
  18.2940012  19.7884997  68.8209988  17.3680012  21.5524997  68.0379988
  16.4860012  20.8774997  68.0139988  17.0750012  22.2904997  68.8159988
  17.5590012  22.2444997  66.6459988  18.6140012  22.0374997  66.3679988
  16.9750012  21.6384997  65.9199988  17.2890012  23.7704997  66.6969988
  17.1090012  24.4214997  67.7099988  17.4950012  24.2434997  65.4609988
  17.4860012  25.7084997  65.4459988  17.1610012  26.0784997  64.4509988
  16.6670012  26.0804997  66.0979988  18.8820012  26.4134997  65.7879988
  18.7520012  27.5004997  65.9789988  19.9300012  26.3414997  64.5609988
  19.4560012  26.3564997  63.5569988  20.4990012  27.2874997  64.6849988
  20.7350012  25.1984997  64.8299988  22.1660012  25.2554997  64.3929988
  22.3370012  23.7334997  63.9259988  21.6880012  22.6074997  64.4939988
  22.5180012  22.1124997  65.0429988  21.0240012  22.9084997  65.3329988
  21.0560012  21.6104997  63.4979988  21.8860012  21.1184997  63.0139988
  20.4940012  20.8734997  64.0519988  20.1560012  22.2024997  62.3269988
  19.0740012  22.9284997  63.0249988  18.3770012  23.5104997  62.4399988
  18.3970012  22.2124997  63.4679988  19.5730012  23.4864997  63.8029988
  20.9410012  23.1944997  61.5149988  21.8430012  22.7634997  61.1059988
  20.2660012  23.5614997  60.7559988  21.1010012  24.0714997  62.1249988
  19.6030012  21.1314997  61.4319988  20.4040012  20.5294997  61.0299988
  19.1240012  21.5594997  60.5629988  18.9590012  20.5034997  62.0299988
  22.3600012  26.0634997  63.1559988  22.9990012  25.6444997  65.5849988
  19.4830012  25.8254997  67.0089988  20.3860012  26.5444997  67.5929988
  20.6520012  27.7494997  67.3899988  20.9860012  25.7314997  68.6899988
  21.9810012  26.2134997  68.7989988  21.1650012  24.7364997  68.2289988
  20.0590012  25.6494997  69.9039988  20.4000012  24.6954997  70.3589988
  18.9680012  25.5204997  69.7399988  20.4230012  26.7204997  70.9489988
  20.2670012  27.6954997  70.4389988  21.4920012  26.4644997  71.1099988
  19.7110012  26.5914997  72.2919988  18.7880012  27.2084997  72.2559988
  20.4070012  26.9624997  73.0749988  19.4260012  25.1444997  72.7619988
  20.2190012  24.3704997  72.6859988  18.6370012  24.8614997  72.0309988
  18.8670012  25.1684997  74.1759988  18.6130012  26.1984997  74.5029988
  19.6600012  24.7314997  74.8199988  17.6610012  24.2904997  74.3539988
  17.0370012  24.4884997  73.4559988  17.1080012  24.7144997  75.2189988
  17.9790012  22.8664997  74.4259988  18.1420012  22.3654997  73.4599988
  18.1000012  22.0844997  75.5499988  18.4950012  21.0844997  75.3139988
  17.9780012  22.5454997  76.9939988  18.6540012  23.3914997  77.2409988
  18.3140012  21.7034997  77.6359988  16.5840012  22.9304997  77.2599988
  15.9800012  22.0164997  77.0769988  16.1440012  23.7574997  76.6619988
  16.3720012  23.4914997  78.7009988  15.3000012  23.7584997  78.8129988
  16.9370012  24.4444997  78.7829988  16.8760012  22.5054997  79.7269988
  17.9770012  22.4344997  79.6029988  16.4110012  21.5404997  79.4289988
  16.7010012  22.9464997  81.2419988  15.6620012  23.2974997  81.4179988
  17.3330012  23.8544997  81.3329988  17.0770012  21.8564997  82.2429988
  17.8640012  21.3094997  81.6799988  16.2400012  21.1354997  82.3569988
  17.6230012  22.3464997  83.5849988  16.8080012  22.7894997  84.1959988
  18.4020012  23.1314997  83.4719988  18.2890012  21.1084997  84.3339988
  18.5490012  21.3704997  85.3819988  19.2190012  20.8114997  83.8049988
  17.5500012  20.2834997  84.4149988  74.0680012 140.6064997  82.6799988
  73.2710012 141.1324997  83.2479988  75.0010012 141.1764997  82.8779988
  74.1270012 139.5544997  83.0339988  73.7730012 140.7414997  81.2269988
  74.4090012 140.0704997  80.6109988  72.8000012 140.3214997  80.8939988
  73.8690012 142.1634997  80.6629988  73.4410012 142.2624997  79.6419988
  73.2960012 142.9274997  81.2299988  75.3230012 142.5524997  80.4719988
  75.7840012 142.3174997  81.4549988  75.7340012 141.9564997  79.6299988
  75.5150012 144.0094997  80.2059988  75.0470012 144.2954997  79.2399988
  74.9530012 144.4834997  81.0399988  77.0390012 144.4004997  80.2009988
  76.9760012 145.4924997  80.0049988  77.4960012 144.2094997  81.1949988
  78.0440012 143.7884997  79.1929988  78.3090012 142.8004997  79.6279988
  77.4410012 143.5184997  78.2989988  79.2860012 144.5814997  78.8019988
  79.0160012 145.6154997  78.4989988  80.0220012 144.5844997  79.6349988
  79.9860012 144.0364997  77.4939988  79.2700012 144.1184997  76.6479988
  80.7240012 144.8324997  77.2569988  80.4700012 142.5354997  77.5469988
  81.4790012 142.4344997  78.0009988  79.7700012 142.0424997  78.2559988
  80.4110012 141.9274997  76.1389988  80.8130012 140.8934997  76.1959988
  79.3240012 141.8584997  75.9209988  81.2190012 142.6324997  75.0149988
  80.7050012 143.6054997  74.8649988  82.2640012 142.7024997  75.3889988
  81.1440012 141.9914997  73.6409988  81.3140012 142.7724997  72.8689988
  81.8990012 141.1994997  73.4489988  79.6960012 141.5474997  73.3199988
  79.4840012 140.5584997  73.7789988  78.9120012 142.2794997  73.6079988
  79.5220012 141.3234997  71.7939988  79.5510012 142.3844997  71.4659988
  80.4160012 140.9524997  71.2479988  78.2850012 140.4764997  71.4589988
  77.6320012 139.7304997  72.1939988  78.0460012 140.6424997  70.1669988
  76.9190012 139.9174997  69.5819988  77.3200012 139.0954997  68.9509988
  76.2890012 139.4664997  70.3789988  76.1600012 140.8444997  68.6209988
  75.2810012 140.2784997  68.2459988  77.1090012 141.1754997  67.4119988
  78.1060012 141.4684997  67.8049988  77.2820012 140.2614997  66.8039988
  76.6140012 142.1834997  66.4839988  75.6440012 141.7504997  65.2829988
  76.5110012 140.7874997  64.3719988  77.6930012 141.4094997  63.7679988
  77.9700012 142.4114997  64.1589988  78.6020012 140.7994997  63.9579988
  77.6840012 141.3914997  62.2459988  76.8530012 142.0044997  61.9289988
  78.5580012 141.8794997  61.8399988  77.5770012 140.0524997  61.5949988
  78.8060012 139.1964997  61.8749988  78.8540012 138.2704997  61.3219988
  79.6880012 139.6534997  61.4519988  78.8580012 139.1044997  62.9499988
  76.3580012 139.2544997  62.0219988  76.1680012 139.2534997  63.0849988
  75.6350012 139.8524997  61.4879988  76.3760012 138.2384997  61.6569988
  77.4560012 140.2474997  60.1239988  77.3350012 139.3534997  59.5309988
  78.3530012 140.6414997  59.6679988  76.6080012 140.8864997  59.9259988
  74.4870012 140.9794997  65.8809988  75.3720012 142.9894997  64.5309988
  75.8270012 142.0754997  69.2409988  74.8270012 142.0044997  70.0899988
  74.1150012 141.0614997  70.2919988  74.8100012 143.2804997  70.9749988
  73.8390012 143.3904997  71.5029988  74.9830012 144.2554997  70.4699988
  75.8770012 143.0534997  72.0979988  76.8560012 143.3954997  71.7009988
  75.8990012 141.9674997  72.3339988  75.4530012 143.6984997  73.4729988
  74.9840012 144.6914997  73.3049988  76.2960012 143.9064997  74.1669988
  74.4320012 142.8064997  74.2689988  73.5740012 142.4424997  73.6639988
  73.9750012 143.4724997  75.0319988  75.0970012 141.6994997  74.9889988
  75.7760012 142.1064997  75.7679988  75.7730012 141.1064997  74.3369988
  74.1740012 140.7074997  75.7109988  73.6000012 140.1364997  74.9499988
  73.3550012 141.1364997  76.3269988  74.9410012 139.7914997  76.6889988
  74.1940012 139.0964997  77.1279988  75.4100012 140.3914997  77.4979988
  75.9700012 138.9754997  75.9289988  75.5500012 138.2834997  75.1829988
  77.2630012 138.7544997  76.2739988  77.8750012 138.2174997  75.5339988
  78.0910012 139.2454997  77.4389988  77.6680012 140.2034997  77.8119988
  79.1530012 139.4024997  77.1549988  78.0680012 138.4024997  78.6529988
  78.5380012 137.4154997  78.4579988  77.0470012 138.1134997  78.9839988
  78.9900012 138.8704997  79.8329988  79.9710012 139.2204997  79.4469988
  79.2380012 137.9784997  80.4469988  78.1570012 139.8274997  80.6579988
  77.2630012 139.2834997  81.0289988  77.9070012 140.7604997  80.1069988
  78.9810012 140.1804997  81.8959988  80.0480012 140.3544997  81.6399988
  78.9130012 139.3324997  82.6109988  78.3500012 141.3834997  82.5169988
  77.2860012 141.1924997  82.7739988  78.4260012 142.2494997  81.8249988
  79.0390012 141.8394997  83.7829988  80.1000012 141.8124997  83.4539988
  78.7710012 141.2734997  84.7009988  78.7520012 143.3034997  84.1569988
  79.4260012 143.6244997  84.9799988  77.6790012 143.4964997  84.3709988
  79.0630012 143.9234997  83.2889988 131.4500012  31.3544997  81.9939988
 130.7960012  32.0884997  82.5099988 132.4490012  31.8404997  81.9959988
 131.4300012  30.4024997  82.5669988 130.9680012  31.0194997  80.5319988
 129.9370012  30.6214997  80.6439988 130.8890012  31.9554997  79.9389988
 131.7520012  29.8974997  79.7719988 131.6860012  28.9894997  80.4089988
 131.3120012  29.7914997  78.7569988 133.2090012  30.2994997  79.5879988
 133.2040012  31.4044997  79.7069988 133.7630012  29.6764997  80.3219988
 133.7960012  30.0204997  78.2609988 133.6230012  28.9494997  78.0239988
 133.1660012  30.6324997  77.5799988 135.3060012  30.3434997  78.0809988
 135.4600012  31.3234997  78.5809988 135.7760012  29.5284997  78.6719988
 135.8090012  30.3494997  76.7209988 136.9190012  30.3164997  76.7199988
 135.4830012  29.4444997  76.1649988 135.3840012  31.5774997  76.0089988
 134.3420012  31.8314997  76.2999988 135.9360012  32.4774997  76.3559988
 135.6500012  31.5954997  74.5819988 136.5930012  31.0764997  74.3079988
 134.8140012  31.0674997  74.0749988 135.4700012  32.9484997  74.0039988
 134.4540012  33.3124997  74.2659988 136.2280012  33.6244997  74.4549988
 135.6640012  33.0254997  72.4179988 135.4500012  34.0594997  72.0719988
 136.7490012  32.9364997  72.1949988 134.7660012  32.0234997  71.5569988
 134.9800012  30.9684997  71.8329988 133.6760012  32.2324997  71.5049988
 135.1980012  32.1624997  70.0889988 134.4560012  31.9014997  69.3039988
 135.5340012  33.2094997  69.9329988 136.3850012  31.1934997  69.8409988
 137.2000012  31.4104997  70.5639988 135.9720012  30.1754997  70.0079988
 136.9370012  31.4234997  68.4379988 136.0750012  31.5734997  67.7539988
 137.4680012  32.3974997  68.3919988 137.8810012  30.3324997  68.0219988
 138.4110012  29.5874997  68.8269988 137.9710012  30.3024997  66.7739988
 138.8280012  29.3654997  66.1529988 139.5690012  29.8504997  65.4829988
 139.3180012  28.6914997  66.8879988 137.9830012  28.3554997  65.3529988
 138.5990012  27.5094997  64.9779988 137.4420012  28.9604997  64.0039988
 138.3800012  29.0204997  63.4109988 136.6990012  28.2964997  63.5129988
 137.0670012  30.3104997  64.2169988 135.6000012  30.8424997  64.0329988
 134.6900012  29.6344997  64.1519988 133.2720012  29.6284997  64.2999988
 132.9900012  29.1494997  65.2619988 132.9000012  30.6584997  64.4859988
 132.4100012  29.0844997  63.1149988 131.4140012  29.3854997  63.4019988
 132.5810012  29.7704997  62.2989988 132.5030012  27.6224997  62.7209988
 132.3460012  26.7854997  63.9829988 132.4090012  25.7354997  63.7399988
 132.9600012  27.0854997  64.8179988 131.3520012  26.9264997  64.3809988
 131.4060012  27.3024997  61.6849988 130.4600012  27.7024997  62.0199988
 131.6230012  27.8424997  60.7749988 131.4110012  26.2264997  61.5849988
 133.8480012  27.4464997  62.1689988 134.0850012  26.4034997  62.0159988
 134.5740012  27.7704997  62.8989988 133.8030012  27.9774997  61.2289988
 135.1510012  31.7734997  65.1419988 135.4030012  31.4194997  62.6649988
 136.9710012  27.8394997  66.2349988 135.8960012  27.0954997  65.8579988
 135.7900012  26.5514997  64.7829988 134.9160012  26.9924997  67.0159988
 133.9840012  26.5294997  66.6269988 134.5760012  27.9724997  67.4149988
 135.4040012  26.0494997  68.1529988 135.9960012  25.1864997  67.7799988
 134.5090012  25.6294997  68.6589988 136.2500012  26.8124997  69.2399988
 135.7120012  27.6704997  69.6959988 137.1580012  27.2584997  68.7809988
 136.9240012  25.9334997  70.3349988 137.6690012  26.5344997  70.8999988
 137.4850012  25.1434997  69.7899988 135.9470012  25.2074997  71.2789988
 136.6270012  24.4324997  71.6949988 135.1270012  24.6904997  70.7359988
 135.4900012  26.1414997  72.4739988 135.0230012  26.9614997  71.8859988
 136.2340012  26.5244997  73.2039988 134.4410012  25.4194997  73.3219988
 133.7030012  24.9304997  72.6509988 133.9020012  26.2664997  73.7979988
 135.0790012  24.4604997  74.2879988 135.0060012  23.3904997  74.0409988
 135.7630012  24.7234997  75.4819988 136.1070012  23.8554997  76.0629988
 135.9920012  26.1504997  76.0879988 135.2090012  26.8464997  75.7179988
 136.9390012  26.6584997  75.8049988 135.7290012  26.0334997  77.6039988
 134.7710012  25.4924997  77.7589988 135.5670012  27.0114997  78.1059988
 136.8890012  25.3464997  78.4359988 137.0890012  24.2874997  78.1679988
 136.4990012  25.2994997  79.4759988 138.2740012  25.9984997  78.3429988
 138.5110012  26.3014997  77.3009988 139.0760012  25.2994997  78.6639988
 138.3080012  27.2914997  79.2489988 138.1520012  26.9584997  80.2969988
 137.5690012  28.0504997  78.9149988 139.6770012  28.0624997  79.0769988
 139.9080012  28.1314997  77.9929988 140.4260012  27.4124997  79.5779988
 139.7440012  29.4164997  79.7509988 138.9350012  30.0874997  79.3909988
 140.7780012  29.7454997  79.5109988 139.6610012  29.6074997  81.2829988
 140.6170012  29.1634997  81.6359988 138.7400012  29.2334997  81.7809988
 139.5740012  30.6694997  81.5979988 102.3320012 134.9754997  81.6079988
 102.5040012 135.8034997  80.8879988 102.3790012 134.0794997  80.9529988
 103.1910012 134.9134997  82.3099988 101.0060012 135.0854997  82.3279988
 101.0770012 134.4214997  83.2159988 100.9500012 136.1324997  82.6929988
  99.6840012 134.6754997  81.5929988  99.8680012 133.6914997  81.1119988
  98.9520012 134.3834997  82.3759988  99.0380012 135.7914997  80.7899988
  98.2880012 136.2434997  81.4729988  99.6890012 136.6444997  80.5019988
  98.2420012 135.2354997  79.5529988  97.6390012 134.3554997  79.8629988
  97.4920012 135.9364997  79.1289988  99.2840012 134.9104997  78.3869988
 100.2000012 135.5384997  78.3969988  99.5330012 133.8364997  78.5239988
  98.5530012 135.1934997  77.1029988  99.2150012 134.6444997  76.3989988
  97.5360012 134.7684997  76.9609988  98.6610012 136.7124997  76.6499988
  98.4610012 137.3624997  77.5289988  99.7400012 136.8744997  76.4409988
  97.8100012 137.2064997  75.4739988  97.7940012 136.5064997  74.6109988
  96.7470012 137.2654997  75.7909988  98.2110012 138.5924997  74.8679988
  98.1500012 139.2814997  75.7369988  99.3020012 138.5774997  74.6579988
  97.5130012 138.9574997  73.5689988  97.8240012 138.1184997  72.9099988
  96.4250012 138.9104997  73.7859988  97.8420012 140.2984997  72.9609988
  96.9950012 141.0134997  72.8859988  98.6230012 140.8584997  73.5189988
  98.4660012 140.2174997  71.5299988  98.8120012 141.2434997  71.2789988
  99.3520012 139.5464997  71.5219988  97.5030012 139.7974997  70.3729988
  97.6150012 138.7414997  70.0479988  96.4790012 139.8934997  70.7929988
  97.7010012 140.6294997  69.1049988  96.8570012 140.3894997  68.4229988
  97.5160012 141.7024997  69.3269988  99.0670012 140.2644997  68.4749988
  99.8500012 141.1324997  68.1159988  99.2950012 138.9914997  68.4439988
 100.6160012 138.6844997  68.1629988 100.9960012 139.3334997  67.3449988
 101.1570012 138.7954997  69.1269988 100.5560012 137.2894997  67.5599988
 101.6190012 136.9654997  67.5679988  99.7770012 137.1874997  66.2309988
  98.7090012 137.3014997  66.5129988 100.1360012 138.0724997  65.6629988
  99.9190012 135.9914997  65.5069988 101.0570012 135.7894997  64.4689988
 100.7750012 136.9794997  63.4889988  99.4750012 137.2054997  62.8459988
  99.7280012 137.1974997  61.7649988  98.7950012 136.4024997  63.2009988
  98.9680012 138.5994997  63.3579988  97.8910012 138.6434997  63.3009988
  99.4480012 138.7094997  64.3189988  99.4600012 139.8824997  62.6099988
 100.9710012 139.8614997  62.5409988 101.1890012 140.6714997  61.8609988
 101.3790012 139.9674997  63.5349988 101.3730012 138.9804997  62.0619988
  98.8100012 139.8514997  61.2969988  97.7670012 139.6104997  61.4399988
  98.8280012 140.8614997  60.9139988  99.4540012 139.2204997  60.7039988
  98.8740012 141.0824997  63.3249988  99.2120012 141.9794997  62.8279988
  99.2430012 141.0734997  64.3399988  97.7990012 140.9874997  63.3569988
 102.4480012 135.9984997  65.0089988 100.8310012 134.5674997  63.7309988
  99.8840012 136.4984997  68.6199988 100.5040012 135.4284997  69.1799988
 101.6760012 135.1304997  69.0279988  99.5710012 134.6804997  70.1059988
 100.0060012 133.6604997  70.1719988  98.5230012 134.7164997  69.7399988
  99.6450012 135.3674997  71.5099988  98.8150012 134.9484997  72.1179988
  99.4140012 136.4454997  71.3749988 100.9540012 135.0914997  72.3249988
 101.6600012 134.6204997  71.6069988 100.7270012 134.3084997  73.0799988
 101.5850012 136.3114997  73.0289988 100.7490012 136.7374997  73.6239988
 101.7050012 137.0274997  72.1869988 102.9370012 136.0044997  73.7139988
 103.4580012 135.4074997  72.9349988 102.8070012 135.3444997  74.5979988
 103.8580012 137.1944997  74.1319988 103.8850012 137.9554997  73.3219988
 104.8850012 136.7924997  74.2689988 103.4330012 137.8794997  75.4499988
 104.3080012 138.5004997  75.7349988 103.3040012 137.1254997  76.2549988
 102.2860012 138.8314997  75.3119988 102.0790012 139.0534997  74.2549988
 101.4410012 139.2174997  76.3029988 100.6400012 139.9574997  76.1619988
 101.4310012 138.7694997  77.7629988 102.3770012 139.1294997  78.2199988
 101.2960012 137.6684997  77.8249988 100.2930012 139.3964997  78.6079988
 100.4850012 139.0674997  79.6519988  99.3040012 138.9494997  78.3699988
 100.1270012 140.9124997  78.5599988  99.5230012 141.1924997  77.6699988
 101.1690012 141.2974997  78.5539988  99.2610012 141.6174997  79.6979988
  98.5120012 142.3114997  79.2599988  99.8980012 142.0854997  80.4789988
  98.3060012 140.5274997  80.4269988  98.9540012 139.7944997  80.9539988
  97.7200012 139.9784997  79.6589988  97.3630012 141.1324997  81.4029988
  96.6960012 141.7604997  80.7739988  97.9580012 141.8224997  82.0389988
  96.6300012 140.0184997  82.2659988  96.2210012 140.6714997  83.0669988
  97.4890012 139.4134997  82.6259988  95.4500012 139.3464997  81.5639988
  94.8180012 138.7024997  82.2109988  95.8100012 138.6934997  80.7399988
  94.6080012 139.9894997  81.2299988 103.0470012 133.1524997  80.8059988
 103.3580012 134.0644997  80.2529988 102.9120012 133.3214997  81.8959988
 102.0520012 132.9014997  80.3829988 104.0720012 132.0824997  80.5389988
 104.9280012 132.6244997  80.9959988 103.8430012 131.2594997  81.2489988
 104.3230012 131.5244997  79.1629988 103.4100012 130.9394997  78.9189988
 104.4000012 132.2444997  78.3199988 105.6100012 130.6974997  79.2239988
 106.5160012 131.2664997  79.5239988 105.5900012 129.9254997  80.0229988
 105.8750012 129.8644997  77.9619988 106.7600012 129.2204997  78.1559988
 104.9340012 129.2984997  77.7939988 106.4360012 130.6434997  76.7819988
 106.4950012 129.9964997  75.8809988 105.7350012 131.4134997  76.3939988
 107.9790012 131.0344997  76.8629988 108.1090012 131.7514997  77.7019988
 108.5120012 130.0934997  77.1189988 108.5950012 131.6174997  75.5349988
 109.6580012 131.8484997  75.7629988 108.5440012 130.8844997  74.7009988
 107.9730012 132.9724997  75.2229988 106.8880012 132.9444997  75.4629988
 108.4340012 133.6784997  75.9459988 108.3230012 133.4804997  73.8499988
 107.7520012 134.4294997  73.7589988 109.4070012 133.6854997  73.7249988
 107.8960012 132.5674997  72.6789988 108.5800012 131.6954997  72.5999988
 106.8660012 132.1864997  72.8479988 107.8790012 133.3154997  71.2729988
 107.3300012 134.2794997  71.3419988 108.9590012 133.5064997  71.0949988
 107.4200012 132.5754997  69.9939988 106.3940012 132.8514997  69.6699988
 108.1660012 132.8174997  69.2069988 107.2490012 131.0214997  69.9139988
 108.1800012 130.5944997  70.3449988 106.4710012 130.6514997  70.6149988
 107.0670012 130.5514997  68.4189988 107.8020012 131.0894997  67.7839988
 107.3950012 129.4954997  68.3129988 105.6280012 130.7454997  67.9459988
 104.6880012 131.0434997  68.6329988 105.6070012 130.6394997  66.6079988
 104.3580012 131.1674997  66.0889988 104.1020012 130.7334997  65.0979988
 103.4770012 130.8544997  66.6889988 104.4030012 132.7174997  65.7959988
 103.5000012 132.9304997  65.1849988 105.6680012 133.0804997  64.8969988
 106.0330012 132.2954997  64.1999988 105.3930012 133.8674997  64.1619988
 106.7510012 133.5544997  65.8049988 108.2040012 133.2604997  65.4649988
 108.3900012 134.4114997  64.4029988 109.3150012 134.3384997  63.3049988
 110.3380012 134.6094997  63.6429988 109.3900012 133.2814997  62.9709988
 109.0330012 135.1064997  61.9519988 109.2990012 136.1314997  62.1609988
 109.6040012 134.5984997  61.1889988 107.6010012 135.2544997  61.5689988
 107.0340012 136.2144997  62.4959988 107.3700012 137.2244997  62.3159988
 106.0170012 136.3934997  62.1799988 107.2190012 136.0024997  63.5389988
 107.6050012 135.8924997  60.1759988 108.3110012 135.2984997  59.6139988
 106.6030012 135.8624997  59.7749988 108.0340012 136.8814997  60.2409988
 106.9520012 133.9094997  61.4939988 107.5020012 133.4424997  60.6899988
 105.9020012 134.0744997  61.2989988 107.0430012 133.4524997  62.4679988
 109.0100012 133.5024997  66.6959988 108.4740012 131.9304997  64.8199988
 104.3480012 133.3424997  67.0519988 104.2240012 134.6734997  67.1579988
 104.2170012 135.4404997  66.2199988 104.3330012 135.0814997  68.6229988
 105.2680012 134.6574997  69.0479988 103.4330012 134.6914997  69.1449988
 104.6250012 136.5434997  68.7599988 104.5550012 136.8404997  69.8279988
 103.9400012 137.2124997  68.1949988 106.0070012 137.0714997  68.3559988
 105.9440012 138.1154997  68.7319988 106.1240012 137.0894997  67.2509988
 107.2940012 136.4024997  68.9559988 107.5850012 135.4234997  68.5199988
 107.1570012 136.2384997  70.0459988 108.5870012 137.2904997  68.8059988
 108.2260012 138.3364997  68.8999988 109.0120012 137.1214997  67.7929988
 109.7000012 137.1664997  69.8959988 110.5010012 137.8954997  69.6489988
 110.2280012 136.1894997  69.8539988 109.3870012 137.5164997  71.3509988
 110.2930012 137.4014997  71.9829988 108.6330012 136.7604997  71.6569988
 108.7610012 138.8524997  71.6279988 109.4000012 139.7384997  71.4949988
 107.6160012 139.0504997  72.2369988 107.3910012 140.1184997  72.3739988
 106.5530012 138.1374997  72.7489988 106.4710012 137.1804997  72.1899988
 105.5340012 138.5744997  72.6649988 106.6480012 137.8414997  74.1839988
 106.0190012 136.9634997  74.4449988 106.1480012 138.6604997  74.7429988
 108.0650012 137.5424997  74.7499988 108.6380012 138.4944997  74.7749988
 108.4640012 136.8734997  73.9579988 108.0840012 136.7994997  76.0939988
 109.0300012 136.2174997  76.1019988 107.2190012 136.1204997  76.2499988
 108.0970012 137.8134997  77.2769988 107.2640012 138.5184997  77.0719988
 108.9640012 138.5074997  77.3159988 108.1550012 137.1344997  78.6889988
 108.9550012 136.3654997  78.6249988 107.2300012 136.5204997  78.7309988
 108.2880012 137.9794997  79.9119988 107.7680012 137.4604997  80.7459988
 107.6970012 138.9124997  79.7899988 109.7070012 138.3054997  80.4279988
 110.2870012 138.6714997  79.5539988 110.2650012 137.4004997  80.7499988
 109.6890012 139.0994997  81.2049988 132.8440012 105.4394997  84.2069988
 133.0850012 104.3794997  83.9769988 131.7860012 105.6354997  83.9299988
 132.8540012 105.5634997  85.3109988 133.5840012 106.4714997  83.4919988
 133.4070012 106.5774997  82.3999988 133.3440012 107.4624997  83.9319988
 135.0760012 106.4444997  83.5579988 135.4560012 107.2494997  82.8939988
 135.3140012 106.7324997  84.6039988 135.6880012 105.0334997  83.2799988
 136.7810012 105.2334997  83.2519988 135.6000012 104.3474997  84.1489988
 135.3010012 104.3874997  81.9089988 134.3220012 103.9954997  82.2589988
 135.1900012 105.2274997  81.1899988 136.3100012 103.3754997  81.4439988
 137.4050012 103.5524997  81.5029988 136.1810012 102.5264997  82.1489988
 136.0090012 102.7084997  80.0379988 136.6340012 101.7904997  80.0069988
 134.9700012 102.3154997  80.0209988 136.2260012 103.5364997  78.7919988
 135.4110012 104.2904997  78.8239988 137.2190012 104.0264997  78.8799988
 136.1870012 102.8474997  77.4299988 137.0960012 102.2124997  77.3689988
 135.2640012 102.2284997  77.4339988 136.1970012 103.7534997  76.2409988
 135.4660012 104.5404997  76.5289988 137.1830012 104.2614997  76.3019988
 135.9830012 103.0924997  74.9159988 136.7020012 102.2614997  74.7519988
 134.9380012 102.7444997  75.0589988 136.2280012 104.1324997  73.8569988
 135.7400012 105.1274997  73.9399988 137.3200012 104.2404997  74.0309988
 136.0250012 103.6264997  72.4019988 136.5150012 102.6514997  72.1939988
 134.9330012 103.4304997  72.3419988 136.4610012 104.7264997  71.2999988
 136.2410012 105.7514997  71.6649988 137.5710012 104.7294997  71.2689988
 135.8320012 104.6524997  69.9899988 134.8100012 104.2434997  70.1359988
 135.5270012 105.5684997  69.4389988 136.6650012 103.7724997  69.1059988
 137.7240012 103.2314997  69.3479988 135.9450012 103.5164997  67.9779988
 136.5440012 102.5614997  67.1379988 137.3320012 102.9804997  66.4769988
 136.8250012 101.6654997  67.7319988 135.4350012 102.1094997  66.0659988
 135.9680012 101.3774997  65.4219988 134.9470012 103.3314997  65.2259988
 135.7300012 103.8844997  64.6639988 134.1850012 102.8554997  64.5719988
 134.2630012 104.3164997  66.0869988 133.7410012 105.6604997  65.4909988
 134.0630012 105.5264997  63.8829988 134.1380012 106.6694997  63.0109988
 133.6000012 107.5934997  63.3129988 135.1890012 106.7964997  62.6749988
 133.4880012 106.3004997  61.6669988 133.5040012 107.2224997  61.1059988
 134.1090012 105.6104997  61.1159988 132.0250012 105.7474997  61.6079988
 131.0990012 106.7234997  62.2789988 131.0260012 107.6234997  61.6879988
 130.1070012 106.3454997  62.4779988 131.5260012 106.9264997  63.2499988
 131.6730012 105.6264997  60.1889988 130.6040012 105.4714997  60.1739988
 131.8800012 106.5574997  59.6809988 132.1250012 104.7954997  59.6679988
 131.9200012 104.3884997  62.3389988 132.6130012 103.6264997  62.0139988
 130.9140012 104.0074997  62.2519988 132.0580012 104.6084997  63.3879988
 132.2620012 105.7024997  65.6229988 134.5720012 106.7204997  66.0039988
 134.3040012 101.5564997  66.8389988 133.4060012 100.7794997  66.1899988
 133.3900012 100.5074997  64.9989988 132.3900012 100.4344997  67.2939988
 132.7320012 100.8784997  68.2529988 132.4450012  99.3274997  67.3679988
 130.9290012 100.9924997  66.9609988 130.2020012 100.7354997  67.7609988
 130.5960012 100.5604997  65.9929988 130.8540012 102.5144997  66.9059988
 129.7580012 102.6894997  66.8939988 131.1910012 102.9624997  65.9469988
 131.4120012 103.2304997  68.1889988 132.5230012 103.2314997  68.1719988
 130.9430012 102.6854997  69.0349988 130.7810012 104.6174997  68.2509988
 129.6990012 104.3844997  68.3469988 130.8480012 105.2104997  67.3149988
 131.1570012 105.4164997  69.5489988 130.6280012 106.3864997  69.6569988
 132.2390012 105.6664997  69.5639988 130.7580012 104.5404997  70.7709988
 131.6180012 103.8874997  71.0329988 129.9490012 103.8374997  70.4779988
 130.2650012 105.3694997  71.9489988 129.1720012 105.4554997  71.8629988
 131.0070012 105.8624997  72.9469988 130.5600012 106.0624997  73.9319988
 132.5310012 105.7014997  73.1359988 132.9840012 106.6714997  72.8379988
 132.9180012 104.8934997  72.4799988 132.7730012 105.2844997  74.6499988
 132.5310012 106.1924997  75.2429988 133.8650012 105.1084997  74.7439988
 132.0960012 103.8954997  75.1029988 132.7780012 103.1254997  74.6839988
 131.1050012 103.7774997  74.6149988 131.9660012 103.8784997  76.7009988
 131.6860012 104.8524997  77.1559988 133.0080012 103.8024997  77.0789988
 131.0740012 102.7244997  77.3439988 131.3660012 101.7344997  76.9309988
 130.0330012 102.6904997  76.9579988 130.9110012 102.7584997  78.9429988
 131.6690012 102.1014997  79.4209988 130.0050012 102.1264997  79.0619988
 130.7390012 104.1404997  79.6399988 129.8440012 104.7324997  79.3529988
 131.6770012 104.7244997  79.5219988 130.7530012 103.8384997  81.2089988
 129.8410012 103.2624997  81.4769988 130.8030012 104.7674997  81.8159988
 131.6710012 103.3494997  81.5979988 139.9030012  81.8134997  83.4369988
 139.0420012  82.4174997  83.7939988 140.7850012  81.8524997  84.1119988
 139.6000012  80.7464997  83.3799988 140.1640012  82.2504997  81.9229988
 139.2830012  81.9164997  81.3339988 140.3400012  83.3474997  81.9269988
 141.2890012  81.5424997  81.3159988 142.2360012  81.9964997  81.6769988
 141.1770012  80.4994997  81.6819988 141.3180012  81.4084997  79.7579988
 140.6550012  80.6174997  79.3469988 141.0990012  82.4134997  79.3369988
 142.7410012  81.0664997  79.2129988 143.5120012  81.6624997  79.7469988
 142.8290012  79.9774997  79.4149988 142.7680012  81.2144997  77.6429988
 142.2320012  80.3414997  77.2139988 142.2960012  82.1794997  77.3599988
 144.2240012  81.1974997  77.1699988 144.7910012  81.9014997  77.8159988
 144.5970012  80.1724997  77.3799988 144.2450012  81.5874997  75.6679988
 144.1170012  80.7384997  74.9629988 143.4460012  82.3354997  75.4769988
 145.6150012  81.9994997  75.2049988 145.7930012  82.9384997  75.7709988
 146.3780012  81.2484997  75.5019988 145.6140012  82.4934997  73.7169988
 144.9670012  81.7704997  73.1759988 145.1280012  83.4924997  73.6949988
 146.9550012  82.4944997  72.9899988 147.5000012  83.4134997  73.2939988
 147.6350012  81.7024997  73.3709988 146.7600012  82.3904997  71.4359988
 145.8770012  82.9744997  71.0989988 147.6680012  82.6244997  70.8399988
 146.4750012  80.9154997  71.0839988 147.4510012  80.4254997  70.8829988
 146.1140012  80.4384997  72.0209988 145.5150012  80.7844997  69.8919988
 144.5050012  81.0914997  70.2389988 145.9170012  81.4234997  69.0769988
 145.3430012  79.3064997  69.4129988 146.3260012  78.9504997  69.0359988
 145.2590012  78.5844997  70.2539988 144.2390012  79.0474997  68.3489988
 143.0640012  78.8654997  68.6429988 144.7090012  79.1964997  67.1169988
 143.7470012  79.1664997  66.0399988 144.0810012  78.3394997  65.3779988
 142.7780012  78.7484997  66.3889988 143.6630012  80.5894997  65.3939988
 142.8360012  80.4584997  64.6629988 144.9660012  81.0024997  64.7749988
 145.7080012  81.1744997  65.5829988 145.3270012  80.1964997  64.0999988
 144.9300012  82.1934997  64.0489988 144.4570012  82.3364997  62.5169988
 143.5990012  83.6504997  62.5199988 144.0990012  84.7684997  63.2529988
 145.2030012  84.7564997  63.3709988 143.9460012  85.6654997  62.6159988
 143.2680012  84.9874997  64.5259988 143.3450012  84.1334997  65.1829988
 143.6040012  85.9304997  64.9309988 141.7310012  85.3444997  64.4369988
 141.6210012  86.4074997  63.3879988 141.9790012  85.9174997  62.4949988
 140.6370012  86.8484997  63.3229988 142.3570012  87.1354997  63.6959988
 140.9570012  84.1354997  64.0079988 139.9510012  84.3534997  64.3339988
 141.1920012  83.6904997  63.0519988 141.3360012  83.3904997  64.6919988
 141.1700012  85.7374997  65.7569988 141.6400012  86.6514997  66.0879988
 141.2430012  84.9954997  66.5379988 140.1060012  85.9074997  65.6699988
 145.6010012  82.5794997  61.6139988 143.5630012  81.2394997  62.1109988
 143.2800012  81.5364997  66.3099988 142.0170012  81.5924997  66.7759988
 141.0840012  81.0104997  66.2519988 141.9020012  82.4854997  68.0099988
 140.9500012  83.0424997  67.8769988 142.7730012  83.1684997  68.1039988
 141.6530012  81.7124997  69.3059988 142.3860012  80.9974997  69.7369988
 140.8130012  81.0034997  69.1499988 141.4890012  82.5254997  70.5689988
 141.1030012  81.8164997  71.3319988 140.5340012  83.0784997  70.4379988
 142.6710012  83.3724997  70.9979988 143.0970012  84.0204997  70.2029988
 143.4780012  82.6964997  71.3529988 142.2840012  84.3584997  72.1409988
 141.5090012  85.0314997  71.7169988 143.2150012  84.9404997  72.3109988
 141.8030012  83.6184997  73.4459988 142.6200012  82.8724997  73.5449988
 140.8160012  83.2244997  73.1219988 141.6970012  84.5164997  74.6749988
 141.1720012  85.4134997  74.2819988 142.7050012  84.8124997  75.0339988
 140.9510012  83.9474997  75.8029988 141.0480012  82.8524997  75.7809988
 140.3590012  84.5204997  76.9089988 139.9440012  83.7554997  77.5819988
 140.2580012  85.9474997  77.3659988 139.1870012  86.2444997  77.3709988
 140.8300012  86.6274997  76.6999988 140.9220012  86.1844997  78.7879988
 140.3660012  85.5244997  79.4879988 140.5630012  87.2154997  78.9949988
 142.4160012  86.1464997  78.7629988 142.8020012  86.5694997  77.8119988
 142.5060012  85.0574997  78.5629988 143.1150012  86.4774997  80.1289988
 142.8480012  85.7184997  80.8949988 143.0530012  87.5014997  80.5569988
 144.5700012  86.1774997  80.0559988 144.9680012  86.7574997  79.1959988
 144.6020012  85.0944997  79.8109988 145.4340012  86.3984997  81.2739988
 145.1320012  85.6624997  82.0489988 145.2350012  87.3814997  81.7509988
 146.9700012  86.1524997  81.0909988 147.4950012  86.1074997  82.0699988
 147.4530012  86.9774997  80.5239988 147.4280012  84.8914997  80.3209988
 146.6840012  84.6634997  79.5279988 147.5020012  83.9174997  80.8489988
 148.4010012  85.0764997  79.8169988 148.9810012  65.2744997  80.3789988
 149.6250012  65.5394997  81.2449988 148.8320012  64.1824997  80.5249988
 147.9790012  65.7464997  80.4679988 149.5380012  65.4834997  78.9399988
 150.1450012  66.4144997  78.9349988 150.2660012  64.6664997  78.7499988
 148.5050012  65.5974997  77.8059988 149.1450012  65.7994997  76.9209988
 148.0310012  64.6154997  77.5909988 147.2980012  66.5704997  77.9759988
 146.6530012  66.2444997  78.8199988 147.7640012  67.5754997  78.0559988
 146.3510012  66.5764997  76.6839988 145.5650012  65.7914997  76.7029988
 145.7670012  67.5214997  76.7159988 147.0600012  66.3914997  75.4009988
 147.9580012  67.0314997  75.2639988 147.2900012  65.3084997  75.3159988
 146.1880012  66.9464997  74.2569988 146.2230012  68.0554997  74.3149988
 146.6050012  66.6414997  73.2729988 144.7650012  66.5104997  74.2899988
 144.6160012  65.4164997  74.4209988 144.2190012  66.9924997  75.1289988
 144.0890012  66.8674997  72.9649988 144.4130012  67.8984997  72.7059988
 144.4830012  66.1794997  72.1869988 142.5810012  66.8164997  73.0189988
 142.4250012  65.7264997  73.1619988 142.1920012  67.2324997  73.9729988
 141.8420012  67.2964997  71.7639988 140.7670012  67.0294997  71.8459988
 141.8970012  68.4054997  71.7599988 142.3430012  66.5904997  70.4499988
 143.4230012  66.8494997  70.4149988 142.2180012  65.4874997  70.5009988
 141.7510012  67.1614997  69.1869988 140.6640012  66.9364997  69.1519988
 141.8890012  68.2624997  69.2409988 142.4450012  66.6594997  67.8549988
 143.4070012  66.1964997  68.1599988 141.7900012  65.8424997  67.4839988
 142.4750012  67.8744997  66.8289988 142.6260012  67.3714997  65.8499988
 141.4960012  68.3994997  66.8569988 143.7620012  68.7934997  66.9799988
 143.6490012  69.9684997  67.0149988 144.8160012  67.9744997  67.1539988
 145.9770012  68.7394997  67.5759988 146.1230012  69.6814997  67.0059988
 145.7130012  68.9954997  68.6249988 147.2490012  68.0034997  67.3259988
 147.9290012  68.5214997  68.0359988 147.7730012  68.0554997  65.8519988
 148.2550012  69.0484997  65.7229988 148.5350012  67.2554997  65.7379988
 146.6560012  67.9474997  65.0059988 146.8960012  67.3794997  63.5399988
 146.7730012  65.7384997  63.7349988 145.8180012  65.3654997  64.6839988
 145.8000012  64.2554997  64.7059988 145.8430012  65.6584997  65.7559988
 144.4000012  65.8674997  64.2069988 143.8350012  65.9274997  65.1249988
 144.5950012  66.9004997  63.9579988 143.6150012  65.2274997  63.0829988
 144.3410012  65.3384997  61.7209988 145.3250012  64.8944997  61.7319988
 143.7470012  64.7754997  61.0169988 144.4610012  66.3844997  61.4779988
 143.3670012  63.7254997  63.3399988 142.9490012  63.3004997  62.4389988
 144.3130012  63.2284997  63.4949988 142.7270012  63.5324997  64.1879988
 142.3080012  65.9514997  63.0409988 141.8810012  65.8594997  62.0529988
 142.2730012  66.9984997  63.3049988 141.6800012  65.5304997  63.8119988
 145.8550012  67.9944997  62.6989988 148.3190012  67.5544997  63.1239988
 147.1840012  66.5914997  67.7029988 146.6820012  66.3264997  68.8869988
 146.2980012  67.1624997  69.7369988 147.0400012  64.9214997  69.1409988
 148.0990012  64.7714997  68.8419988 146.3810012  64.2244997  68.5809988
 146.8880012  64.6744997  70.6589988 145.9980012  65.1534997  71.1209988
 147.8890012  64.9064997  71.0809988 146.8890012  63.1514997  70.8829988
 147.7910012  62.7244997  70.3959988 146.0570012  62.7034997  70.2999988
 146.8920012  62.5844997  72.3549988 146.7400012  63.4704997  73.0079988
 147.9300012  62.2784997  72.6099988 145.7950012  61.5444997  72.6279988
 146.0640012  61.0604997  73.5899988 145.7450012  60.6144997  72.0219988
 144.4070012  62.1384997  72.8999988 143.9430012  62.2654997  71.8989988
 144.4140012  63.1264997  73.4079988 143.4410012  61.2184997  73.6829988
 143.8620012  60.9044997  74.6619988 143.4010012  60.2774997  73.0939988
 142.0830012  61.9274997  73.6449988 141.4920012  62.0754997  72.7289988
 141.4150012  62.2734997  74.7619988 140.4960012  62.8724997  74.6789988
 141.9430012  62.0824997  76.0759988 142.4370012  61.0894997  76.1349988
 141.1620012  62.1114997  76.8659988 143.0020012  63.1604997  76.5589988
 142.8290012  64.1304997  76.0469988 143.9550012  62.6814997  76.2479988
 142.8840012  63.2834997  78.0759988 143.2070012  62.3204997  78.5269988
 141.8240012  63.4614997  78.3589988 143.6320012  64.5064997  78.6599988
 143.0860012  65.4074997  78.3089988 144.7090012  64.6404997  78.4199988
 143.6130012  64.3824997  80.2259988 144.0220012  63.3904997  80.5159988
 142.5230012  64.4824997  80.4169988 144.4130012  65.4884997  80.9649988
 145.4820012  65.2654997  80.7589988 144.2380012  65.3754997  82.0559988
 144.1780012  66.9784997  80.4269988 143.1170012  67.2674997  80.5909988
 144.3540012  66.9294997  79.3319988 145.1330012  67.8534997  81.1619988
 146.1510012  67.4084997  81.1539988 144.9290012  68.0694997  82.2319988
 145.2050012  68.8644997  80.7079988 144.1880012  73.7974997  82.6859988
 143.9370012  74.8704997  82.5429988 145.2570012  73.6724997  82.4109988
 144.0150012  73.5224997  83.7479988 143.3560012  72.9854997  81.6409988
 143.8520012  72.0074997  81.4599988 142.3300012  72.9344997  82.0639988
 143.4130012  73.6844997  80.2109988 143.0090012  74.7154997  80.2899988
 144.4880012  73.7434997  79.9369988 142.7150012  72.8794997  79.1129988
 143.0810012  71.8384997  78.9829988 141.7290012  72.6124997  79.5489988
 142.5680012  73.5774997  77.7069988 141.9020012  72.9284997  77.0979988
 142.1980012  74.6224997  77.7769988 143.8940012  73.6384997  76.8799988
 144.7150012  74.1374997  77.4369988 144.1620012  72.5714997  76.7259988
 143.7720012  74.2294997  75.4189988 143.2920012  73.4944997  74.7369988
 142.9910012  75.0194997  75.4399988 145.0680012  74.6384997  74.8339988
 144.8730012  74.8584997  73.7619988 145.4550012  75.5924997  75.2509988
 146.1790012  73.5724997  74.8379988 147.0390012  74.0994997  74.3729988
 146.5130012  73.3654997  75.8769988 145.9400012  72.3344997  73.9429988
 145.2190012  71.6904997  74.4889988 145.5030012  72.5584997  72.9459988
 147.2910012  71.6104997  73.7079988 147.8660012  71.8244997  74.6339988
 147.1260012  70.5124997  73.7089988 147.9530012  71.8564997  72.2929988
 147.9530012  72.9534997  72.1169988 149.0080012  71.5094997  72.3279988
 147.3210012  71.2264997  70.9969988 146.4070012  71.7994997  70.7319988
 148.1370012  71.0634997  70.2599988 146.9010012  69.7034997  71.1669988
 147.7840012  69.1774997  71.5889988 146.1230012  69.7954997  71.9539988
 146.3630012  69.2924997  69.7719988 147.1220012  69.5024997  68.9889988
 146.0600012  68.2234997  69.7969988 145.1030012  70.1494997  69.4459988
 144.0770012  70.2604997  70.1189988 145.4030012  70.9914997  68.4289988
 144.4880012  72.0984997  68.4639988 143.4470012  71.7404997  68.3109988
 144.5700012  72.6964997  69.3959988 144.6790012  73.0684997  67.3139988
 144.0810012  73.9684997  67.5719988 144.1190012  72.3884997  66.0239988
 144.6650012  71.4484997  65.7929988 143.0660012  72.0654997  66.1689988
 144.2750012  73.3454997  65.0139988 143.0940012  73.7914997  64.0449988
 143.9060012  74.9024997  63.1459988 144.9300012  74.3594997  62.2559988
 145.3950012  73.3964997  62.5579988 144.3660012  74.1044997  61.3339988
 145.9060012  75.4284997  61.9609988 146.7080012  75.1424997  61.2969988
 145.3610012  76.3004997  61.6319988 146.7480012  75.9384997  63.1149988
 148.0280012  76.6214997  62.5729988 148.5740012  75.9094997  61.9729988
 147.8680012  77.5624997  62.0679988 148.6870012  76.7644997  63.4169988
 146.1590012  77.0564997  64.0409988 146.8090012  77.2964997  64.8689988
 146.1590012  77.9764997  63.4759988 145.1530012  76.8864997  64.3939988
 147.1420012  74.7494997  63.9959988 147.8640012  75.0694997  64.7319988
 147.6630012  73.9734997  63.4549988 146.2310012  74.3664997  64.4319988
 142.7990012  72.5914997  63.2019988 142.0060012  74.4114997  64.8329988
 146.0540012  73.3624997  67.1149988 146.6650012  73.9824997  68.0859988
 146.1490012  74.3014997  69.1999988 148.1910012  74.1594997  67.7899988
 148.3760012  75.2184997  67.5079988 148.4060012  73.5354997  66.8969988
 149.1910012  73.5844997  68.7689988 150.1030012  73.4334997  68.1539988
 148.8970012  72.5844997  69.1529988 149.3720012  74.6284997  69.8739988
 148.4330012  74.7854997  70.4469988 149.7840012  75.5564997  69.4229988
 150.5150012  74.1824997  70.8379988 151.4740012  74.3464997  70.2999988
 150.4450012  73.1134997  71.1339988 150.5710012  75.1024997  72.1109988
 150.4470012  76.1564997  71.7819988 151.5710012  74.9794997  72.5789988
 149.4410012  74.8274997  73.1539988 149.3750012  73.7634997  73.4649988
 148.5950012  75.1744997  72.5229988 149.5740012  75.5594997  74.5109988
 148.5390012  75.9024997  74.7239988 150.1900012  76.4794997  74.4149988
 150.3220012  74.8664997  75.5989988 151.0460012  74.0984997  75.2899988
 149.9790012  75.0274997  76.9229988 150.5350012  74.3784997  77.6149988
 148.8750012  75.9204997  77.5329988 148.2690012  76.3314997  76.6969988
 149.2670012  76.8164997  78.0589988 147.8880012  75.1734997  78.5709988
 147.4430012  74.3134997  78.0259988 147.0710012  75.9144997  78.6999988
 148.5840012  74.7744997  79.8159988 149.5850012  74.4574997  79.4539988
 148.1620012  73.8334997  80.2299988 148.7520012  75.8854997  80.9239988
 147.7020012  75.9904997  81.2719988 149.1500012  76.8794997  80.6309988
 149.4130012  75.4624997  82.2179988 150.1400012  74.6974997  81.8729988
 148.6360012  75.0224997  82.8779988 150.0420012  76.6364997  83.0149988
 150.7030012  77.3374997  82.4619988 150.7300012  76.3654997  83.8439988
 148.8470012  77.4524997  83.5559988 148.1400012  76.6644997  83.8929988
 148.4380012  78.0884997  82.7429988 149.0790012  78.4514997  84.6459988
 149.5570012  77.9644997  85.5229988 148.1100012  78.8284997  85.0389988
 149.5110012  79.4434997  84.3959988   2.5570012  47.0854997  82.4119988
   2.4150012  48.1854997  82.4799988   2.7680012  46.6544997  83.4139988
   1.6500012  46.5724997  82.0269988   3.7100012  46.8144997  81.4889988
   4.6760012  47.2754997  81.7859988   3.8460012  45.7124997  81.5359988
   3.2970012  47.0024997  80.0319988   2.4330012  46.3234997  79.8659988
   2.8060012  47.9644997  79.7689988   4.2980012  46.5224997  78.9519988
   4.9200012  47.3904997  78.6459988   4.9920012  45.7464997  79.3409988
   3.6690012  45.9844997  77.6169988   4.5490012  45.7694997  76.9729988
   3.0910012  45.0474997  77.7689988   2.8240012  47.0774997  76.7849988
   3.2710012  48.0894997  76.6759988   2.7790012  46.7204997  75.7339988
   1.3100012  47.3074997  77.1699988   0.8520012  46.2974997  77.1059988
   1.0150012  47.6124997  78.1969988   0.6030012  48.3304997  76.2939988
  -0.4409988  48.4314997  76.6599988   0.9570012  49.3814997  76.3659988
   0.6660012  47.8434997  74.8219988   1.6440012  48.0484997  74.3369988
   0.5770012  46.7374997  74.7699988  -0.5279988  48.4034997  74.0059988
  -1.5129988  47.9354997  74.2179988  -0.6519988  49.4904997  74.1989988
  -0.3179988  48.0634997  72.5139988   0.2420012  47.1034997  72.5029988
  -1.3019988  48.0204997  72.0009988   0.5300012  49.1314997  71.7849988
  -0.0399988  50.0814997  71.6969988   1.3840012  49.4234997  72.4339988
   1.0030012  48.5754997  70.4449988   1.4700012  47.6134997  70.7449988
   0.1000012  48.3814997  69.8269988   2.1410012  49.3704997  69.7469988
   3.0230012  49.2164997  70.4049988   2.5130012  48.9194997  68.8029988
   1.9050012  50.9044997  69.6469988   0.9030012  51.0854997  69.2029988
   1.8160012  51.4344997  70.6189988   3.0930012  51.4114997  68.8689988
   4.0890012  51.8174997  69.4399988   2.9150012  51.4434997  67.5629988
   3.7910012  52.1924997  66.6909988   3.1360012  52.8024997  66.0339988
   4.3620012  52.8634997  67.3679988   4.7960012  51.3344997  65.8909988
   5.3390012  51.9724997  65.1609988   4.1180012  50.2704997  64.9539988
   3.2220012  50.7984997  64.5619988   4.7130012  50.0294997  64.0469988
   3.7270012  49.1264997  65.7439988   2.2540012  48.5034997  65.7769988
   2.0570012  48.1254997  64.2449988   2.8590012  47.4454997  63.3879988
   3.6670012  46.9044997  63.9259988   2.2240012  46.6974997  62.8679988
   3.6430012  48.2824997  62.3189988   4.1970012  49.0174997  62.8839988
   4.1980012  47.5244997  61.7859988   2.7930012  49.0144997  61.2669988
   1.7500012  48.0784997  60.7459988   1.1060012  47.6224997  61.4839988
   1.2050012  48.4774997  59.9039988   2.2690012  47.1924997  60.4119988
   2.1460012  50.2804997  61.8589988   2.9430012  50.8284997  62.3389988
   1.7420012  50.7624997  60.9809988   1.4880012  49.9564997  62.6519988
   3.7900012  49.4854997  60.2409988   4.3360012  48.7374997  59.6849988
   4.4840012  50.1924997  60.6719988   3.2720012  50.0644997  59.4899988
   2.3490012  47.2414997  66.4959988   1.1460012  49.4594997  66.0989988
   5.6330012  50.7544997  66.8959988   6.6580012  50.0104997  66.5079988
   7.1060012  49.9274997  65.4059988   7.1940012  49.2874997  67.7379988
   7.1730012  50.0824997  68.5139988   8.2550012  48.9694997  67.6439988
   6.2810012  48.0744997  68.0729988   6.0460012  47.3784997  67.2399988
   5.3380012  48.6094997  68.3149988   6.9030012  47.2764997  69.2799988
   7.3540012  48.1394997  69.8149988   7.6440012  46.5484997  68.8869988
   5.7910012  46.6794997  70.1449988   5.1960012  45.8104997  69.7899988
   5.0400012  47.4954997  70.0849988   6.1020012  46.4304997  71.6549988
   6.7970012  45.5694997  71.7589988   5.1720012  46.0284997  72.1119988
   6.7450012  47.5594997  72.4859988   7.6180012  47.9274997  71.9049988
   7.2790012  47.0774997  73.3319988   5.6520012  48.6244997  72.7919988
   4.7170012  48.0624997  73.0049988   5.5060012  49.2584997  71.8919988
   6.0020012  49.4354997  73.9929988   6.6710012  48.9374997  74.7109988
   5.5890012  50.7064997  74.2149988   5.8330012  51.2514997  75.1389988
   4.6390012  51.4234997  73.2919988   4.7130012  51.0564997  72.2459988
   4.8970012  52.5034997  73.2429988   3.1790012  51.5204997  73.7689988
   2.7650012  50.4894997  73.7689988   2.4610012  52.0784997  73.1299988
   3.0850012  52.1644997  75.2059988   3.5830012  53.1394997  75.0179988
   3.5760012  51.5694997  76.0069988   1.6500012  52.3504997  75.7249988
   1.1960012  51.4404997  76.1709988   1.0760012  52.6504997  74.8219988
   1.5580012  53.4134997  76.7929988   0.4870012  53.6954997  76.8759988
   2.0580012  54.3424997  76.4469988   2.2000012  52.9744997  78.1259988
   3.2270012  52.6424997  77.8629988   1.6700012  52.0924997  78.5449988
   2.2220012  54.1834997  79.1359988   1.1790012  54.2024997  79.5169988
   2.5840012  55.0584997  78.5549988   3.0870012  53.8944997  80.3589988
   4.1250012  53.7624997  79.9859988   2.7600012  53.0374997  80.9849988
   2.9200012  54.7004997  81.1049988   5.7920012 108.1854997  82.8619988
   5.5350012 107.7294997  83.8419988   5.6320012 109.2794997  82.9699988
   6.8270012 108.0954997  82.4669988   4.8690012 107.7114997  81.8339988
   4.7550012 106.6064997  81.8629988   3.8690012 108.1764997  81.9669988
   5.1420012 108.3164997  80.3599988   5.2820012 109.4074997  80.5149988
   6.0710012 107.9784997  79.8529988   3.9000012 108.1214997  79.4829988
   3.6170012 107.0514997  79.3959988   3.0280012 108.7304997  79.8039988
   4.2480012 108.4304997  78.0169988   4.4510012 109.5184997  77.9239988
   5.1520012 107.9294997  77.6089988   3.0780012 108.3094997  77.0069988
   3.1320012 107.2304997  76.7479988   2.0220012 108.4084997  77.3359988
   3.1990012 109.2114997  75.7219988   2.7090012 110.1774997  75.9659988
   4.2390012 109.4944997  75.4519988   2.4990012 108.6134997  74.5149988
   1.8470012 107.7674997  74.8229988   1.7440012 109.3444997  74.1519988
   3.2790012 108.2034997  73.2749988   2.5930012 107.8064997  72.4959988
   3.8220012 109.1134997  72.9429988   4.3330012 107.1724997  73.6039988
   5.1290012 107.5864997  74.2599988   3.8180012 106.4344997  74.2549988
   4.9260012 106.4344997  72.4849988   5.6680012 105.6794997  72.8229988
   4.0860012 105.9344997  71.9559988   5.6700012 107.3804997  71.4969988
   5.0980012 108.2614997  71.1349988   6.6080012 107.7774997  71.9409988
   6.1000012 106.7574997  70.1809988   5.2660012 106.5514997  69.4759988
   6.8900012 107.3074997  69.6269988   6.8850012 105.3974997  70.4829988
   7.7520012 105.7034997  71.1059988   6.2510012 104.6984997  71.0699988
   7.4860012 104.7204997  69.1709988   7.5880012 105.5934997  68.4899988
   8.4950012 104.2674997  69.2719988   6.4980012 103.6654997  68.7659988
   6.2630012 102.7564997  69.5739988   6.0620012 103.8394997  67.5539988
   4.9940012 103.0134997  67.0519988   5.3170012 102.4924997  66.1259988
   4.7200012 102.1504997  67.6969988   3.6910012 103.8544997  66.8439988
   2.9010012 103.1614997  66.4829988   3.8180012 104.9514997  65.8129988
   4.5630012 105.6784997  66.2009988   4.0490012 104.6034997  64.7829988
   2.5230012 105.6734997  65.7439988   2.2070012 106.3434997  64.2789988
   3.4890012 107.0824997  63.8469988   3.6440012 107.2694997  62.4489988
   3.6340012 106.2614997  61.9809988   2.8560012 107.9474997  62.0569988
   4.9540012 108.0404997  62.1889988   5.0690012 108.0854997  61.1159988
   4.8970012 109.0744997  62.4959988   6.2460012 107.4964997  62.7859988
   6.3520012 107.9354997  64.2599988   7.2410012 107.5434997  64.7309988
   6.3510012 109.0144997  64.3169988   5.4640012 107.6284997  64.7929988
   6.1890012 106.0154997  62.6569988   5.5580012 105.5944997  63.4259988
   5.7400012 105.8994997  61.6809988   7.1960012 105.6524997  62.7999988
   7.4060012 108.1664997  62.1049988   7.7610012 107.8444997  61.1369988
   8.2830012 107.9304997  62.6889988   7.2290012 109.2314997  62.1309988
   2.0130012 105.2124997  63.3499988   1.0600012 107.2724997  64.5139988
   3.2280012 104.5394997  68.0529988   2.6400012 103.9244997  68.9369988
   2.4510012 102.7334997  69.0719988   2.1550012 104.9624997  69.9679988
   1.5940012 105.7674997  69.4489988   2.9640012 105.4814997  70.5249988
   1.3800012 104.1384997  71.0439988   2.0870012 103.4484997  71.5519988
   0.7380012 103.4114997  70.5029988   0.5400012 105.0024997  71.9649988
  -0.2679988 105.5444997  71.4279988   1.2250012 105.7724997  72.3789988
  -0.1219988 104.3364997  73.1509988  -0.8889988 103.6754997  72.6929988
  -0.4509988 105.1724997  73.8039988   0.8190012 103.4714997  74.0279988
   1.2230012 102.5974997  73.4729988   0.3340012 102.9814997  74.8989988
   1.9680012 104.2214997  74.7329988   1.5530012 105.2104997  75.0229988
   2.7330012 104.4714997  73.9669988   2.5080012 103.4324997  75.8819988
   2.9070012 102.4304997  75.6129988   1.6730012 103.1514997  76.5579988
   3.5280012 104.3894997  76.6149988   3.1320012 105.0454997  77.4039988
   4.8890012 104.4924997  76.3949988   5.4850012 105.1644997  77.0299988
   5.7360012 103.7834997  75.4519988   6.6620012 104.3174997  75.1519988
   5.1480012 103.4584997  74.5659988   6.1130012 102.3864997  75.9609988
   6.5700012 101.6654997  75.2499988   5.1670012 101.8794997  76.2479988
   7.0310012 102.5354997  77.2599988   7.5890012 103.4944997  77.1959988
   7.6200012 101.5944997  77.2139988   6.1550012 102.4294997  78.5419988
   5.5050012 101.5364997  78.4199988   5.6110012 103.3914997  78.6569988
   6.8840012 102.2984997  79.8509988   7.6270012 101.4724997  79.8689988
   6.2030012 101.9254997  80.6459988   7.4670012 103.5994997  80.2499988
   6.7260012 104.4244997  80.1809988   8.3410012 103.9144997  79.6409988
   7.9890012 103.7124997  81.6949988   8.5640012 104.6494997  81.8569988
   8.7130012 102.9264997  81.9999988   6.8460012 103.7564997  82.7779988
   6.5600012 102.6894997  82.8929988   6.0440012 104.4234997  82.3949988
   7.1640012 103.9814997  83.8189988 116.0370012 129.9434997  83.8589988
 115.4150012 130.6954997  83.3279988 116.3060012 130.3644997  84.8509988
 115.4730012 128.9884997  83.9119988 117.3480012 129.7584997  83.1129988
 117.9030012 130.7204997  83.1369988 117.9830012 129.0714997  83.7119988
 117.1880012 129.1024997  81.6299988 116.6300012 128.1414997  81.6369988
 116.4910012 129.8714997  81.2319988 118.5330012 128.8924997  80.9569988
 119.0570012 128.1784997  81.6279988 118.2400012 128.5214997  79.9519988
 119.5890012 130.0734997  80.9359988 119.0490012 130.8644997  80.3729988
 119.8470012 130.5274997  81.9169988 120.8650012 129.8134997  80.2099988
 121.5740012 129.2864997  80.8829988 120.5440012 129.2014997  79.3409988
 121.5780012 131.0844997  79.7019988 121.5560012 131.8034997  80.5489988
 122.6200012 130.7274997  79.5499988 120.9520012 131.8354997  78.4599988
 119.8430012 131.8064997  78.5259988 121.3210012 132.8764997  78.5719988
 121.3940012 131.4294997  77.0249988 122.3740012 131.8914997  76.7819988
 121.6500012 130.3584997  77.1709988 120.3940012 131.8444997  75.8549988
 120.0270012 132.8504997  76.1529988 120.8540012 131.8764997  74.8449988
 119.3090012 130.7794997  75.7979988 119.6050012 129.9124997  75.1699988
 119.2490012 130.3624997  76.8259988 117.9570012 131.3404997  75.3429988
 117.2080012 130.5574997  75.5859988 117.6460012 132.2594997  75.8839988
 117.7290012 131.7354997  73.7709988 116.7250012 132.1724997  73.5839988
 118.4410012 132.5764997  73.6289988 117.9000012 130.6454997  72.8529988
 119.0050012 130.5344997  72.8239988 117.5130012 129.6584997  73.1859988
 117.4720012 130.9004997  71.4539988 116.3630012 130.9014997  71.3829988
 117.8220012 131.8924997  71.0969988 118.0370012 129.7934997  70.5529988
 118.5360012 128.7984997  71.0949988 117.8800012 130.0544997  69.2869988
 118.3640012 128.9774997  68.4779988 119.4540012 128.9284997  68.6829988
 117.9650012 127.9524997  68.6339988 118.0790012 129.1584997  67.0049988
 118.5220012 128.3844997  66.3429988 118.7010012 130.4614997  66.5029988
 118.4970012 131.3574997  67.1279988 119.7860012 130.2254997  66.4689988
 118.1880012 130.7414997  65.1819988 117.3560012 132.0784997  64.8739988
 116.7150012 131.8874997  63.4769988 117.3690012 131.0404997  62.5489988
 117.2160012 131.4524997  61.5289988 118.4600012 130.8554997  62.6479988
 116.7230012 129.6564997  62.4919988 117.2010012 129.1674997  61.6559988
 116.9240012 129.1004997  63.3959988 115.2370012 129.5794997  62.2939988
 114.8790012 130.1374997  60.9269988 115.3340012 129.4644997  60.2159988
 113.8030012 130.1654997  60.8439988 115.2920012 131.1314997  60.8279988
 114.8320012 128.1564997  62.3039988 115.6050012 127.6024997  61.7929988
 114.7200012 127.8364997  63.3299988 113.8760012 128.0534997  61.8129988
 114.5020012 130.3104997  63.3799988 114.7190012 129.9154997  64.3619988
 113.4300012 130.2164997  63.2889988 114.8890012 131.3154997  63.3029988
 116.2600012 132.1634997  65.8399988 118.3250012 133.1804997  64.8609988
 116.6290012 129.1054997  66.7909988 116.0860012 127.9844997  66.4759988
 116.5670012 126.9484997  66.1629988 114.5380012 128.1604997  66.5909988
 114.0280012 127.4434997  65.9129988 114.0960012 129.1534997  66.3619988
 114.1140012 127.8964997  68.0139988 114.8140012 127.1704997  68.4809988
 113.0930012 127.4894997  68.1749988 114.0220012 129.0794997  68.9949988
 115.0430012 129.5004997  69.1149988 113.6800012 128.6894997  69.9779988
 113.1460012 130.3404997  68.5649988 112.1880012 129.9254997  68.1859988
 113.7690012 130.8964997  67.8319988 112.7770012 131.2004997  69.7799988
 112.1330012 132.0584997  69.4909988 113.7470012 131.4814997  70.2439988
 111.9370012 130.4484997  70.8289988 112.3150012 129.5154997  71.2989988
 111.0920012 130.1574997  70.1689988 111.3710012 131.2934997  71.9279988
 110.6480012 130.7224997  72.5479988 110.7890012 132.0964997  71.4269988
 112.3090012 132.0374997  72.8269988 112.6910012 133.0084997  72.4769988
 112.8330012 131.5224997  73.9639988 113.4100012 132.1464997  74.6639988
 112.4900012 130.1574997  74.4819988 111.5750012 129.7004997  74.0479988
 112.1230012 130.2324997  75.5279988 113.4740012 129.0264997  74.3109988
 113.8510012 128.9094997  73.2719988 112.9060012 128.1054997  74.5649988
 114.6470012 129.1894997  75.3309988 115.0660012 130.2144997  75.2349988
 115.5210012 128.6204997  74.9479988 114.2340012 128.6264997  76.7309988
 113.9820012 127.5524997  76.6009988 113.2900012 129.1424997  77.0089988
 115.3850012 128.8194997  77.7389988 116.3340012 128.3884997  77.3549988
 114.9960012 128.2884997  78.6349988 115.6230012 130.2494997  78.3159988
 115.7860012 130.8454997  77.3919988 116.5350012 130.2504997  78.9509988
 114.5180012 130.7804997  79.2619988 114.5120012 130.2094997  80.2149988
 113.5380012 130.6404997  78.7579988 114.7000012 132.2984997  79.4969988
 114.0810012 132.6224997  80.3609988 114.5220012 132.8604997  78.5539988
 115.7860012 132.4134997  79.6979988 106.4330012   6.6014997  79.8169988
 106.7370012   5.7884997  79.1229988 105.4630012   6.3394997  80.2919988
 107.2670012   6.6584997  80.5489988 106.5460012   7.9094997  78.9789988
 106.7890012   8.7684997  79.6389988 107.4440012   7.8574997  78.3269988
 105.3160012   8.0784997  78.0869988 105.1330012   7.1224997  77.5509988
 104.4710012   8.1734997  78.8019988 105.3660012   9.2674997  77.1209988
 104.3260012   9.4384997  76.7719988 105.6340012  10.1084997  77.7959988
 106.2780012   9.0534997  75.8749988 106.4020012   9.9464997  75.2259988
 107.2990012   8.9314997  76.2949988 105.7740012   7.9104997  75.0239988
 105.9680012   6.9524997  75.5529988 104.6640012   7.9384997  75.0229988
 106.2720012   7.9444997  73.5859988 105.7580012   7.1844997  72.9609988
 105.8250012   8.8224997  73.0719988 107.8120012   7.6264997  73.4529988
 108.1320012   7.8514997  72.4129988 108.5190012   8.3624997  73.8919988
 108.3320012   6.2204997  73.7929988 109.2980012   6.3754997  74.3209988
 107.6780012   5.7484997  74.5569988 108.6000012   5.1694997  72.6729988
 109.1480012   4.3024997  73.0989988 107.6190012   4.8564997  72.2549988
 109.5110012   5.5794997  71.3989988 108.7870012   6.1394997  70.7699988
 110.3190012   6.2914997  71.6709988 110.0780012   4.3734997  70.6699988
 110.7080012   4.7284997  69.8269988 110.7820012   3.7584997  71.2699988
 109.0980012   3.3254997  70.0539988 109.7570012   2.4974997  69.7159988
 108.3370012   2.8824997  70.7309988 108.4120012   3.8234997  68.7429988
 107.9750012   4.8284997  68.9249988 109.2100012   3.8624997  67.9709988
 107.2670012   3.0094997  68.1429988 107.6720012   1.9764997  68.1989988
 106.3590012   3.2094997  68.7509988 107.0410012   3.4134997  66.7179988
 107.9200012   3.4494997  65.8879988 105.7220012   3.5124997  66.4569988
 105.4600012   3.8814997  65.0939988 106.1810012   4.6714997  64.7939988
 105.7080012   3.0624997  64.3859988 104.0040012   4.4004997  64.9889988
 103.3370012   3.5684997  64.6769988 103.8630012   5.5284997  63.9479988
 104.2480012   5.1754997  62.9669988 102.7720012   5.7214997  63.8639988
 104.4920012   6.7424997  64.3049988 103.9380012   8.1534997  63.7209988
 105.3340012   8.9584997  63.7159988 106.3760012   8.6424997  64.6009988
 106.8970012   9.6154997  64.7259988 105.9780012   8.5134997  65.6299988
 107.2530012   7.4354997  64.2169988 108.0100012   7.4944997  64.9849988
 106.6900012   6.5254997  64.3599988 108.0910012   7.2844997  62.9439988
 108.8100012   8.5804997  62.7199988 109.2880012   8.7144997  61.7609988
 108.2510012   9.4694997  62.9749988 109.6710012   8.5944997  63.3719988
 109.1970012   6.1644997  63.1469988 109.8230012   6.3444997  64.0089988
 108.7870012   5.1704997  63.2509988 109.8990012   6.0934997  62.3299988
 107.1860012   7.0024997  61.8309988 106.4200012   6.2894997  62.0969988
 107.7220012   6.5214997  61.0259988 106.6190012   7.8474997  61.4689988
 103.4460012   7.9564997  62.3199988 102.9640012   8.7544997  64.6579988
 103.5710012   4.8394997  66.2629988 102.3520012   4.7704997  66.6239988
 101.4480012   4.4434997  65.9259988 102.2270012   5.0104997  68.1009988
 102.5900012   4.1314997  68.6739988 101.1220012   4.9984997  68.2149988
 102.7950012   6.3614997  68.5789988 102.3880012   7.1484997  67.9089988
 103.9000012   6.4574997  68.5129988 102.3680012   6.7354997  69.9809988
 101.2680012   6.8234997  70.1109988 102.7120012   7.7784997  70.1489988
 102.8320012   5.7744997  71.1089988 103.9270012   5.7624997  70.9179988
 102.4480012   4.7524997  70.8999988 102.4630012   6.1394997  72.6049988
 101.3950012   6.4164997  72.7379988 103.0380012   7.0704997  72.7989988
 102.9160012   5.1124997  73.5609988 102.3690012   4.1954997  73.2549988
 102.6880012   5.5304997  74.5639988 104.4310012   4.8274997  73.7219988
 104.9120012   5.7114997  74.1919988 104.8700012   4.8664997  72.7019988
 104.8410012   3.4474997  74.2499988 105.3680012   2.9014997  73.4539988
 104.7580012   2.9814997  75.4639988 105.2630012   2.0404997  75.7239988
 104.2290012   3.6014997  76.6569988 103.1690012   3.8864997  76.4839988
 104.7270012   4.5444997  76.9709988 104.1430012   2.5624997  77.8039988
 105.1290012   2.2214997  78.1879988 103.4500012   1.7564997  77.4809988
 103.4120012   3.1434997  79.0129988 102.4640012   3.4904997  78.5499988
 103.9490012   4.0574997  79.3449988 103.2290012   2.2944997  80.2829988
 104.2360012   1.9444997  80.5949988 102.6240012   1.4314997  79.9319988
 102.6520012   3.0064997  81.3899988 101.5440012   2.9594997  81.3229988
 102.9220012   4.0824997  81.3409988 102.8690012   2.3724997  82.7419988
 103.9370012   2.2034997  82.9959988 102.5780012   1.3014997  82.7989988
 102.3060012   3.2004997  83.9669988 102.4370012   4.2274997  83.5649988
 102.9060012   3.0964997  84.8969988 100.8440012   2.9294997  84.2849988
 100.8280012   1.9674997  84.8399988 100.3100012   2.9794997  83.3119988
 100.4610012   3.6704997  85.0189988  86.2270012 141.1174997  79.4069988
  86.4270012 142.1874997  79.1839988  85.9930012 140.8844997  80.4679988
  85.3000012 140.9384997  78.8219988  87.3150012 140.1594997  78.9259988
  86.9390012 139.1204997  79.0299988  87.4570012 140.4404997  77.8599988
  88.7120012 140.3034997  79.5819988  88.8620012 141.3984997  79.4659988
  88.6950012 140.1024997  80.6749988  89.7470012 139.4314997  78.8909988
  90.5640012 139.2924997  79.6299988  89.2790012 138.4984997  78.5099988
  90.4650012 140.1564997  77.7619988  89.7360012 140.5074997  77.0009988
  90.9650012 141.0674997  78.1539988  91.4470012 139.2194997  76.9459988
  92.3640012 139.8074997  76.7309988  91.7190012 138.2684997  77.4539988
  90.8610012 138.8224997  75.5239988  90.1380012 137.9844997  75.6179988
  90.4110012 139.7094997  75.0289988  91.9760012 138.2104997  74.6349988
  92.7320012 138.9854997  74.3859988  92.4910012 137.3634997  75.1369988
  91.3740012 137.8374997  73.3189988  90.7370012 136.9274997  73.3409988
  90.8380012 138.7584997  73.0069988  92.5010012 137.6714997  72.1949988
  93.2900012 138.4534997  72.2189988  93.0220012 136.6954997  72.2949988
  92.0080012 137.6474997  70.7649988  91.2860012 138.4604997  70.5359988
  92.9070012 137.6054997  70.1139988  91.0940012 136.5564997  70.4159988
  91.5690012 135.6014997  70.7279988  90.0990012 136.6454997  70.9029988
  90.8450012 136.5524997  68.9119988  91.8780012 136.7044997  68.5319988
  90.3890012 135.5634997  68.6899988  89.7960012 137.5804997  68.3469988
  88.8220012 137.1164997  68.6099988  89.7970012 138.6274997  68.7199988
  89.7630012 137.6854997  66.7759988  90.6830012 138.0964997  66.3079988
  89.6160012 136.7034997  66.2769988  88.5900012 138.5364997  66.1819988
  87.6710012 138.9074997  66.8539988  88.8070012 138.7304997  64.8739988
  87.7150012 139.3064997  64.1139988  87.4930012 138.6084997  63.2779988
  86.7710012 139.4244997  64.6869988  88.2240012 140.6914997  63.5049988
  87.4010012 141.1844997  62.9449988  89.4800012 140.5254997  62.5989988
  90.2670012 139.9134997  63.0889988  89.0640012 139.9704997  61.7309988
  89.9980012 141.7574997  62.2159988  91.3350012 141.6794997  61.2729988
  92.5490012 141.5754997  62.2639988  92.8410012 142.5584997  63.3089988
  93.9230012 142.6424997  63.5459988  92.5920012 143.5994997  63.0119988
  92.0200012 142.2484997  64.6319988  91.9070012 143.2044997  65.1229988
  90.9720012 142.0354997  64.4839988  92.5690012 141.2584997  65.6589988
  92.7190012 139.8704997  64.9139988  91.7360012 139.4864997  64.6829988
  93.4020012 139.9274997  64.0789988  93.1030012 139.1324997  65.6029988
  93.9330012 141.7134997  66.1629988  94.6220012 141.6234997  65.3369988
  93.9060012 142.7034997  66.5949988  94.3040012 141.0014997  66.8859988
  91.5900012 141.0944997  66.7809988  92.0060012 140.3654997  67.4609988
  90.6020012 140.8114997  66.4499988  91.4590012 141.9354997  67.4449988
  91.3160012 140.3994997  60.5549988  91.4080012 142.8784997  60.4139988
  88.5280012 141.5704997  64.5449988  87.5090012 141.9244997  65.3739988
  86.3530012 141.6454997  65.1909988  88.1000012 142.7424997  66.4919988
  88.2650012 143.7764997  66.1189988  89.0930012 142.3264997  66.7659988
  87.1880012 142.8104997  67.7209988  86.1280012 142.7674997  67.3939988
  87.3960012 143.7224997  68.3209988  87.5350012 141.7174997  68.7029988
  88.6410012 141.7914997  68.7809988  87.2020012 140.8214997  68.1379988
  86.8290012 141.9814997  70.0099988  85.7340012 142.1684997  70.0169988
  87.3350012 142.8554997  70.4719988  87.0170012 140.7704997  70.9609988
  86.4650012 139.9464997  70.4609988  86.5330012 140.8154997  71.9599988
  88.4230012 140.3524997  71.2349988  88.8600012 139.9044997  70.3169988
  88.3630012 139.4864997  71.9279988  89.3680012 141.3554997  71.9399988
  89.4760012 142.2454997  71.2829988  90.4090012 140.9694997  71.9099988
  88.8930012 141.7534997  73.3059988  88.1640012 141.0854997  73.7879988
  89.4350012 142.8174997  73.9819988  89.1620012 143.0484997  75.0219988
  90.5900012 143.6704997  73.4569988  90.2060012 144.7104997  73.3799988
  90.9360012 143.3394997  72.4539988  91.7470012 143.6574997  74.4619988
  92.5510012 144.3754997  74.1939988  92.1910012 142.6444997  74.5649988
  91.1940012 144.2334997  75.8329988  90.5880012 143.4354997  76.3119988
  90.4540012 145.0044997  75.5299988  92.3650012 144.8474997  76.7469988
  92.7940012 145.7734997  76.3079988  93.2550012 144.2124997  76.9449988
  92.0190012 145.2054997  78.1899988  91.0590012 145.7634997  78.2139988
  92.6900012 146.0014997  78.5789988  91.9970012 144.0254997  79.1129988
  92.9290012 143.4234997  79.0569988  91.1560012 143.3404997  78.8739988
  91.9900012 144.4364997  80.5989988  92.9360012 144.9834997  80.8009988
  91.9630012 143.5814997  81.3089988  90.9210012 145.3984997  81.0689988
  90.9140012 145.6844997  82.1429988  89.9220012 144.9464997  80.8899988
  91.0260012 146.4294997  80.6669988  46.4530012 141.4064997  80.8649988
  45.8260012 140.8044997  81.5569988  46.5250012 142.4524997  81.2329988
  47.5020012 141.0424997  80.8089988  45.8480012 141.5544997  79.4319988
  44.9710012 142.2334997  79.3729988  46.6630012 142.0224997  78.8399988
  45.6290012 140.2284997  78.7599988  46.6250012 139.7714997  78.5749988
  45.0590012 139.5174997  79.3959988  44.9760012 140.3734997  77.3129988
  44.1120012 141.0654997  77.4019988  45.6390012 140.8694997  76.5719988
  44.6660012 139.0424997  76.7289988  45.6320012 138.5204997  76.5559988
  44.0490012 138.3994997  77.3919988  43.9810012 139.1324997  75.3669988
  42.9930012 139.6104997  75.5389988  44.5420012 139.8134997  74.6919988
  43.8910012 137.7154997  74.7109988  43.5440012 136.9154997  75.3999988
  43.1120012 137.6074997  73.9269988  45.1530012 137.3504997  73.8959988
  45.0300012 137.6514997  72.8339988  46.1020012 137.8134997  74.2429988
  45.4760012 135.8794997  73.8999988  46.0900012 135.6794997  74.8039988
  44.6070012 135.1874997  73.9299988  46.4660012 135.5004997  72.8039988
  46.1470012 134.4674997  72.5489988  46.4090012 136.0804997  71.8579988
  47.9130012 135.5864997  73.1729988  48.3800012 136.5274997  73.5329988
  47.9710012 134.9234997  74.0639988  48.9340012 134.9764997  72.0949988
  50.0010012 135.1454997  72.3519988  48.7700012 133.8844997  71.9699988
  48.8020012 135.6514997  70.7189988  47.8870012 135.3064997  70.1909988
  48.8730012 136.7394997  70.9289988  49.9260012 135.3224997  69.7149988
  50.8520012 135.7944997  70.1079988  50.1380012 134.2324997  69.6799988
  49.7240012 135.7754997  68.2559988  49.4190012 136.8434997  68.2439988
  50.5460012 135.5894997  67.5329988  48.5420012 134.9744997  67.7089988
  48.5480012 133.8284997  67.3639988  47.4160012 135.7594997  67.5689988
  46.2440012 134.9854997  67.0809988  46.3830012 134.6314997  66.0379988
  45.9040012 134.3054997  67.8919988  45.0630012 136.0164997  67.0199988
  44.1660012 135.4874997  66.6329988  45.4220012 137.0634997  65.9579988
  45.8200012 136.5054997  65.0829988  44.5420012 137.6904997  65.7009988
  46.3980012 137.9644997  66.5179988  47.4750012 138.6644997  65.5889988
  46.7050012 138.6834997  64.1849988  45.8670012 139.8054997  63.8669988
  44.8370012 139.4344997  64.0549988  45.9440012 140.7234997  64.4889988
  45.9420012 140.2694997  62.4019988  45.1380012 140.9764997  62.2539988
  46.8630012 140.8294997  62.3469988  45.8040012 139.1594997  61.2919988
  47.0150012 138.2184997  61.2249988  47.2000012 137.5474997  62.0499988
  46.9850012 137.5494997  60.3779988  47.8490012 138.9044997  61.1779988
  44.4950012 138.3704997  61.4809988  44.3680012 138.1894997  62.5379988
  43.6980012 138.9924997  61.0989988  44.6120012 137.4994997  60.8519988
  45.7450012 140.0024997  60.0139988  46.6540012 140.5824997  59.9469988
  44.8990012 140.6654997  59.9119988  45.8960012 139.3614997  59.1579988
  47.6680012 139.9784997  66.1309988  48.6750012 137.8094997  65.4779988
  44.9050012 136.5194997  68.3379988  44.2090012 137.5674997  68.6729988
  43.3760012 138.1164997  67.9529988  44.6630012 137.9804997  70.1019988
  45.7410012 137.7434997  70.2289988  43.9830012 137.4184997  70.7779988
  44.5280012 139.4914997  70.3779988  44.3170012 139.5904997  71.4639988
  43.5680012 139.8094997  69.9189988  45.6640012 140.4314997  69.7569988
  45.1700012 141.4264997  69.7299988  45.8570012 140.1694997  68.6949988
  46.9510012 140.6914997  70.6309988  46.6750012 140.7384997  71.7069988
  47.3510012 141.7074997  70.4249988  48.0180012 139.6314997  70.3599988
  47.9830012 139.4214997  69.2699988  47.8060012 138.6804997  70.8949988
  49.4830012 140.0914997  70.7649988  49.4400012 141.2014997  70.7969988
  50.1950012 139.9164997  69.9299988  49.7500012 139.4754997  72.1429988
  50.1330012 138.4324997  72.1169988  48.7910012 139.4054997  72.6989988
  50.8350012 140.3584997  72.8359988  51.7910012 140.4334997  72.2989988
  50.6420012 141.0374997  73.9889988  51.5460012 141.5344997  74.3729988
  49.4390012 141.0314997  74.8339988  48.6610012 141.5994997  74.2799988
  49.7300012 141.7034997  75.6689988  49.0640012 139.7004997  75.4709988
  49.0290012 138.8494997  74.7569988  48.0530012 139.8384997  75.9089988
  49.9970012 139.3014997  76.5909988  49.8120012 140.0634997  77.3779988
  51.0520012 139.4124997  76.2629988  49.8750012 137.8454997  77.0519988
  50.7240012 137.6704997  77.7459988  50.1760012 137.2174997  76.1859988
  48.5240012 137.6994997  77.7199988  47.7490012 137.7734997  76.9279988
  48.2470012 138.4484997  78.4929988  48.4380012 136.3254997  78.4059988
  49.2650012 136.1714997  79.1309988  48.7410012 135.6874997  77.5489988
  47.1060012 135.8134997  78.8439988  47.1920012 134.7124997  78.9619988
  46.3900012 135.6844997  78.0039988  46.3720012 136.5004997  79.9729988
  47.0030012 136.2584997  80.8539988  45.4270012 135.9534997  80.1799988
  45.9940012 137.5324997  79.8059988  59.3630012   3.5824997  81.1929988
  58.3820012   3.1484997  81.4829988  59.3450012   4.6404997  81.5309988
  60.1900012   3.0674997  81.7269988  59.5180012   3.5024997  79.7069988
  59.5270012   2.4554997  79.3359988  58.6420012   3.9264997  79.1699988
  60.8540012   4.2274997  79.2219988  60.6650012   5.2724997  79.5489988
  61.8200012   3.9834997  79.7159988  61.1340012   4.3094997  77.7899988
  61.2990012   3.2724997  77.4269988  60.2000012   4.5724997  77.2489988
  62.2840012   5.2234997  77.3359988  62.1020012   6.2014997  77.8309988
  63.2680012   4.8864997  77.7269988  62.2890012   5.3364997  75.7989988
  61.3000012   5.5514997  75.3409988  62.9980012   6.1634997  75.5799988
  62.9840012   4.1324997  75.0129988  64.0580012   4.1624997  75.2959988
  62.4410012   3.2204997  75.3419988  62.6050012   4.3394997  73.5599988
  62.7710012   3.4514997  72.9139988  61.5120012   4.5354997  73.5199988
  63.3180012   5.4664997  72.8199988  63.5860012   6.3264997  73.4699988
  64.2940012   5.1304997  72.4099988  62.6210012   6.0054997  71.5559988
  61.5390012   6.2324997  71.6679988  63.1760012   6.9274997  71.2819988
  62.7530012   5.0394997  70.3839988  62.1530012   4.1524997  70.6799988
  62.2340012   5.4624997  69.4969988  64.1010012   4.7304997  69.8209988
  64.7060012   5.6454997  69.6479988  64.7450012   4.0864997  70.4579988
  64.0530012   3.8874997  68.4399988  63.4380012   4.2834997  67.6039988
  65.0860012   3.8374997  68.0339988  63.3600012   2.5544997  68.5409988
  63.6840012   2.0034997  69.4489988  62.2740012   2.7594997  68.6529988
  63.5510012   1.5384997  67.4309988  63.3660012   2.0684997  66.4719988
  64.6160012   1.2354997  67.5189988  62.5510012   0.3914997  67.5439988
  62.5510012  -0.5155003  68.3569988  61.5780012   0.6224997  66.7209988
  60.7490012  -0.5185003  66.5329988  61.3120012  -1.2875003  65.9609988
  60.2830012  -0.9835003  67.4269988  59.5520012  -0.0345003  65.6149988
  58.8160012  -0.8665003  65.6119988  59.9600012   0.2384997  64.1279988
  60.7250012  -0.4905003  63.7829988  59.1820012   0.0394997  63.3599988
  60.3660012   1.5714997  63.8769988  61.5810012   1.9704997  62.9659988
  61.4150012   3.5224997  62.8409988  60.0930012   4.1314997  62.7309988
  59.9310012   4.4404997  61.6759988  59.2690012   3.3864997  62.7449988
  59.8090012   5.2374997  63.7559988  58.9160012   5.7624997  63.4489988
  59.6180012   4.6614997  64.6489988  60.8190012   6.1904997  64.1039988
  61.9720012   5.5054997  64.8339988  62.5630012   4.7954997  64.2749988
  62.7210012   6.2234997  65.1319988  61.4850012   5.1344997  65.7239988
  61.3780012   6.7574997  62.8269988  61.9460012   5.9894997  62.3229988
  60.5490012   7.0664997  62.2079988  62.0880012   7.5334997  63.0739988
  60.2930012   7.2734997  65.0139988  60.0190012   6.8444997  65.9669988
  59.4840012   7.8324997  64.5679988  61.0060012   8.0194997  65.3319988
  62.9150012   1.6084997  63.5379988  61.3910012   1.3314997  61.6939988
  59.0060012   1.1724997  66.1809988  57.9240012   1.5744997  65.6019988
  57.2950012   1.0924997  64.6739988  57.3550012   2.8474997  66.2129988
  56.2650012   2.9084997  66.0119988  57.7030012   3.7844997  65.7279988
  57.5790012   3.0144997  67.7399988  57.5460012   1.9634997  68.0999988
  56.7070012   3.6234997  68.0579988  58.8630012   3.7014997  68.0619988
  58.8050012   4.7964997  67.8779988  59.6900012   3.2924997  67.4429988
  59.2230012   3.5164997  69.5439988  58.3960012   3.9884997  70.1159988
  60.2080012   3.9794997  69.7659988  59.6140012   2.0564997  69.8249988
  60.1940012   1.6754997  68.9579988  58.6820012   1.4614997  69.9349988
  60.4400012   1.7614997  71.0989988  61.5180012   1.8734997  70.8559988
  60.3470012   0.6624997  71.2279988  59.9820012   2.5934997  72.3869988
  59.9510012   3.6784997  72.1499988  60.7970012   2.2784997  73.0719988
  58.6330012   2.1704997  72.8549988  57.8180012   2.2614997  72.1209988
  58.3480012   1.7084997  74.0879988  57.3430012   1.4514997  74.4549988
  59.2400012   1.4744997  75.2879988  59.0860012   2.3734997  75.9219988
  60.2810012   1.4044997  74.9059988  58.9140012   0.2934997  76.2199988
  58.8950012  -0.6765003  75.6799988  57.8740012   0.3864997  76.5989988
  59.7820012   0.1834997  77.4469988  59.2110012  -0.2425003  78.2999988
  60.2950012   1.1414997  77.6789988  61.1100012  -0.6625003  77.3469988
  61.7040012  -0.1515003  76.5599988  60.9120012  -1.7145003  77.0509988
  61.8000012  -0.6615003  78.6659988  62.7120012  -1.2645003  78.4719988
  61.2210012  -1.1685003  79.4669988  62.3890012   0.7324997  79.0429988
  61.4960012   1.3354997  79.3159988  62.8080012   1.0064997  78.0509988
  63.5570012   0.8014997  79.8939988  64.0500012   1.7614997  79.6329988
  64.3040012   0.0094997  79.6729988  63.3670012   0.6814997  81.3849988
  64.2400012   1.1004997  81.9309988  63.2450012  -0.4195003  81.4719988
  62.4390012   1.1114997  81.8189988 141.0070012  89.1234997  81.7029988
 140.0900012  88.6734997  82.1409988 141.7860012  88.6684997  82.3509988
 141.0430012  88.9784997  80.6019988 141.0150012  90.6284997  81.9859988
 139.9580012  90.8994997  81.7799988 141.0650012  90.6954997  83.0939988
 142.0740012  91.5734997  81.2969988 141.9560012  92.6484997  81.5529988
 143.0490012  91.3224997  81.7679988 142.0260012  91.4374997  79.7779988
 142.1650012  90.3724997  79.4939988 141.0560012  91.8644997  79.4439988
 143.0550012  92.3364997  79.0459988 142.9360012  93.3434997  79.4999988
 144.0940012  92.0424997  79.3059988 142.8090012  92.4024997  77.5009988
 141.9970012  93.1414997  77.3319988 143.7510012  92.8354997  77.1009988
 142.5390012  91.0864997  76.7579988 143.3930012  90.3874997  76.8809988
 141.6810012  90.6794997  77.3349988 142.2420012  91.3454997  75.2299988
 141.4550012  90.6234997  74.9249988 141.8800012  92.3954997  75.1899988
 143.4440012  91.2604997  74.2179988 144.2240012  92.0074997  74.4789988
 143.9190012  90.2644997  74.3429988 143.0650012  91.5014997  72.7649988
 142.0100012  91.2684997  72.5059988 143.1480012  92.6014997  72.6339988
 143.9650012  90.8764997  71.7709988 144.9770012  91.2454997  72.0439988
 143.9910012  89.7714997  71.8829988 143.5950012  91.0714997  70.3009988
 143.2390012  92.0964997  70.0639988 144.5860012  90.9934997  69.8049988
 142.7100012  89.9954997  69.7429988 143.0140012  88.9554997  69.9889988
 141.7580012  89.9854997  70.3149988 142.2240012  90.3764997  68.3249988
 142.1270012  91.4754997  68.1969988 142.9730012  90.1004997  67.5529988
 140.9880012  89.6364997  67.8889988 140.9130012  89.6804997  66.7809988
 140.8540012  88.6074997  68.2859988 139.7680012  90.4954997  68.1569988
 139.5200012  90.8684997  69.2779988 139.0940012  90.8114997  66.9969988
 138.0750012  91.8224997  67.0389988 137.2350012  91.4774997  66.3989988
 137.6690012  91.9294997  68.0679988 138.5890012  93.2364997  66.6629988
 137.7840012  94.0024997  66.6689988 139.1340012  93.3694997  65.1719988
 139.8700012  92.5754997  64.9249988 138.3680012  93.1694997  64.3919988
 139.6470012  94.7304997  64.8999988 141.1460012  94.9184997  64.7349988
 141.4790012  94.1334997  63.3249988 142.5420012  94.5254997  62.4419988
 142.1630012  94.4664997  61.3999988 142.8510012  95.5644997  62.6869988
 143.7400012  93.5904997  62.6589988 144.4250012  93.8224997  61.8569988
 144.2350012  93.6944997  63.6139988 143.4620012  92.0834997  62.4389988
 142.7040012  91.5594997  63.6819988 142.6380012  90.4844997  63.7509988
 143.1640012  91.8364997  64.6189988 141.7230012  92.0124997  63.6559988
 142.7830012  91.7084997  61.1559988 141.9470012  92.3734997  60.9969988
 143.3620012  91.8354997  60.2529988 142.2940012  90.7464997  61.1389988
 144.8380012  91.3904997  62.3759988 145.4370012  91.6224997  63.2449988
 145.3920012  91.9354997  61.6249988 144.9490012  90.3344997  62.1819988
 141.4500012  96.3594997  64.5959988 141.8150012  94.2414997  65.8699988
 139.5940012  93.5834997  67.6549988 139.1240012  94.2514997  68.7659988
 138.0110012  94.6644997  68.8449988 140.2940012  94.6574997  69.7389988
 140.8120012  93.8444997  70.2919988 139.9920012  95.4534997  70.4529988
 141.6320012  95.1074997  68.9449988 141.2450012  95.7774997  68.1479988
 142.0490012  94.1734997  68.5109988 142.5620012  95.8584997  69.9389988
 142.0030012  96.6904997  70.4179988 143.4070012  96.3774997  69.4369988
 143.3270012  95.0024997  70.9369988 143.9620012  94.3034997  70.3519988
 142.5590012  94.4164997  71.4849988 144.2400012  95.7054997  72.0359988
 144.9840012  96.3874997  71.5719988 144.7420012  94.8824997  72.5879988
 143.6330012  96.5364997  73.1849988 143.1080012  97.3544997  72.6469988
 144.4860012  96.9754997  73.7459988 142.7130012  95.8244997  74.1549988
 143.0610012  94.7944997  74.3829988 141.8400012  95.6064997  73.5029988
 142.5550012  96.5684997  75.4899988 143.3320012  96.4764997  76.2639988
 141.4120012  97.2814997  75.6809988 141.3490012  97.7574997  76.6699988
 140.2600012  97.4714997  74.8049988 140.3310012  96.7704997  73.9449988
 140.1810012  98.5194997  74.4469988 138.9050012  97.2944997  75.5309988
 138.1480012  97.4624997  74.7359988 138.8130012  98.1114997  76.2779988
 138.7880012  95.9384997  76.3389988 139.3530012  95.8654997  77.2929988
 139.1640012  95.0874997  75.7319988 137.3580012  95.5324997  76.7109988
 136.7290012  95.3984997  75.8049988 136.8590012  96.3884997  77.2139988
 137.3250012  94.1734997  77.4269988 137.5610012  93.4544997  76.6129988
 136.2400012  94.1384997  77.6629988 138.1920012  94.0474997  78.6969988
 139.2670012  94.1174997  78.4259988 138.0870012  93.0194997  79.1049988
 137.9180012  95.0154997  79.9099988 138.1500012  94.5734997  80.9019988
 136.8260012  95.2174997  79.9069988 138.7010012  96.3844997  79.9019988
 138.3870012  96.7754997  80.8929988 138.3560012  97.1254997  79.1489988
 139.8020012  96.2504997  79.9659988  14.8940012 129.7224997  82.4979988
  15.9960012 129.8644997  82.4849988  14.7310012 128.8624997  83.1829988
  14.4090012 130.6774997  82.7919988  14.3770012 129.2784997  81.1769988
  13.3140012 129.0744997  81.4259988  14.4320012 130.1164997  80.4499988
  14.9330012 128.0444997  80.4049988  16.0310012 128.2104997  80.4409988
  14.7290012 127.1344997  81.0089988  14.2610012 127.9194997  79.0339988
  13.1580012 127.8124997  79.1009988  14.4160012 128.8484997  78.4439988
  14.8070012 126.5934997  78.3809988  14.3670012 126.6424997  77.3619988
  15.9150012 126.6214997  78.4579988  14.2590012 125.3294997  78.9989988
  15.0530012 124.8584997  79.6169988  13.3850012 125.6104997  79.6229988
  13.7010012 124.2244997  78.1199988  13.3680012 123.4384997  78.8309988
  12.8650012 124.5664997  77.4729988  14.7220012 123.6224997  77.1129988
  15.5860012 123.2884997  77.7259988  14.3300012 122.6614997  76.7159988
  15.2050012 124.3514997  75.8549988  15.7090012 125.3094997  76.1079988
  15.9380012 123.6424997  75.4129988  14.2410012 124.6384997  74.6949988
  13.8830012 123.6644997  74.2989988  13.4270012 125.1814997  75.2209988
  14.7470012 125.4544997  73.5229988  14.3710012 126.4994997  73.5459988
  15.8440012 125.4154997  73.6949988  14.4630012 124.8264997  72.1309988
  14.7220012 123.7514997  72.2379988  13.3760012 124.9854997  71.9619988
  15.3260012 125.2854997  70.9289988  16.3620012 124.9414997  71.1369988
  14.9350012 124.7624997  70.0309988  15.2880012 126.7384997  70.6209988
  15.7040012 127.2604997  71.5089988  15.9960012 126.8304997  69.7699988
  13.8030012 127.2594997  70.5229988  13.0680012 126.6374997  69.9689988
  13.5120012 127.3274997  71.5929988  13.8690012 128.6104997  69.9219988
  14.1760012 129.5294997  70.6389988  13.4810012 128.6854997  68.5769988
  13.4100012 130.0124997  67.9429988  12.4410012 130.1414997  67.4149988
  13.3510012 130.8614997  68.6569988  14.6080012 130.1054997  67.0249988
  14.4560012 131.0294997  66.4259988  14.5800012 128.8954997  65.9749988
  14.6580012 127.9914997  66.6159988  13.5590012 128.9484997  65.5389988
  15.5940012 129.1134997  64.9739988  15.7310012 128.1954997  63.6549988
  16.4040012 126.9014997  64.1859988  17.6500012 126.9194997  64.8099988
  18.1810012 127.8554997  64.5329988  17.5470012 126.9824997  65.9139988
  18.5370012 125.7564997  64.3909988  19.4720012 125.9564997  64.8939988
  18.0260012 124.8594997  64.7049988  18.9160012 125.5334997  62.9419988
  17.7060012 125.0554997  62.1439988  17.3180012 124.1624997  62.6109988
  16.9550012 125.8294997  62.0919988  18.0060012 124.7774997  61.1439988
  19.4130012 126.8664997  62.3799988  18.7260012 127.6924997  62.4929988
  20.3360012 127.1504997  62.8619988  19.5160012 126.7464997  61.3119988
  20.0010012 124.4974997  62.8029988  19.9580012 124.1914997  61.7689988
  19.8540012 123.7464997  63.5649988  20.9530012 124.9524997  63.0339988
  14.3310012 127.7904997  63.2289988  16.5670012 128.8814997  62.6659988
  15.8180012 130.1064997  67.7519988  16.1900012 131.3634997  68.1479988
  15.6480012 132.3624997  67.7799988  17.3560012 131.2534997  69.1869988
  17.0110012 130.7174997  70.0969988  17.4940012 132.2394997  69.6799988
  18.5800012 130.8334997  68.4319988  18.9030012 131.6184997  67.7149988
  18.3220012 129.8744997  67.9329988  19.8140012 130.6694997  69.3599988
  19.8240012 131.5544997  70.0319988  20.7200012 130.6474997  68.7179988
  19.8650012 129.3074997  70.1319988  19.0530012 129.3694997  70.8869988
  20.7860012 129.3514997  70.7519988  19.8290012 128.0744997  69.2349988
  20.4020012 128.4204997  68.3479988  18.7610012 127.9134997  68.9739988
  20.5340012 126.8104997  69.7849988  21.6310012 126.9544997  69.6759988
  20.3420012 125.8454997  69.2699988  20.3640012 126.5804997  71.3419988
  20.7590012 127.5274997  71.7659988  21.1220012 125.7884997  71.5229988
  19.0660012 125.9554997  71.8799988  18.8440012 124.8774997  71.8789988
  18.1670012 126.6214997  72.6369988  17.3010012 125.9544997  72.7609988
  18.2190012 128.0864997  73.1109988  17.3680012 128.6164997  72.6309988
  19.1720012 128.5934997  72.8489988  18.2130012 128.0844997  74.6439988
  19.2210012 127.7764997  74.9929988  17.4810012 127.4604997  75.1999988
  18.0850012 129.5564997  75.1389988  17.0470012 129.8404997  75.4159988
  18.3760012 130.2284997  74.3029988  18.9970012 130.0244997  76.2999988
  18.7420012 131.1004997  76.4059988  20.0720012 129.8904997  76.0539988
  18.8310012 129.0844997  77.5049988  18.9750012 128.0744997  77.0639988
  17.8210012 129.1374997  77.9659988  19.7830012 129.3694997  78.6659988
  20.7600012 129.5714997  78.1749988  19.8340012 128.4404997  79.2729988
  19.4440012 130.4884997  79.6349988  18.5100012 130.3604997  80.2229988
  19.4230012 131.5084997  79.1969988  20.5620012 130.6094997  80.7439988
  21.4790012 130.9914997  80.2469988  20.7870012 129.6184997  81.1929988
  20.3050012 131.3664997  81.5149988  10.7500012  25.7304997  80.7879988
  11.0530012  25.0414997  79.9709988   9.6590012  25.9394997  80.7449988
  10.8830012  25.1894997  81.7489988  11.5440012  27.0344997  80.7939988
  11.4550012  27.5994997  81.7459988  12.5790012  26.6644997  80.6349988
  11.2690012  27.9694997  79.6069988  11.5410012  27.4064997  78.6889988
  10.1750012  28.1584997  79.6409988  12.0460012  29.2624997  79.6409988
  11.5990012  30.0304997  78.9739988  12.0200012  29.5244997  80.7209988
  13.6000012  28.9734997  79.4059988  13.9830012  28.3524997  80.2439988
  13.7450012  28.3764997  78.4799988  14.4190012  30.2434997  79.3729988
  14.1710012  30.7044997  78.3929988  14.0410012  30.9424997  80.1499988
  15.9540012  30.0984997  79.6429988  16.4230012  31.0574997  79.9489988
  16.0230012  29.3504997  80.4609988  16.6460012  29.5734997  78.2989988
  17.6850012  29.2684997  78.5479988  16.0880012  28.6714997  77.9659988
  16.7580012  30.6234997  77.1639988  15.7310012  31.0154997  77.0039988
  17.5010012  31.3944997  77.4609988  16.9960012  30.0104997  75.7959988
  16.0770012  29.5624997  75.3609988  17.1840012  30.8184997  75.0579988
  18.0860012  29.0244997  75.7269988  18.9670012  29.4984997  76.2119988
  17.8760012  28.0824997  76.2779988  18.4170012  28.7434997  74.2679988
  18.7170012  29.5094997  73.5219988  19.2810012  28.0474997  74.3369988
  17.2030012  28.1144997  73.5549988  16.8110012  27.3424997  74.2519988
  16.3250012  28.7794997  73.4099988  17.5170012  27.4864997  72.1729988
  17.9080012  28.2554997  71.4719988  18.3600012  26.8054997  72.4199988
  16.3380012  26.8684997  71.5529988  15.8130012  26.1644997  72.2329988
  15.6790012  27.6604997  71.1369988  16.7650012  26.1194997  70.2559988
  17.9220012  26.1924997  69.8029988  15.7670012  25.4144997  69.8389988
  15.9690012  24.4174997  68.8349988  16.9500012  24.5184997  68.3239988
  15.8490012  23.3964997  69.2579988  15.0150012  24.7044997  67.6509988
  15.4070012  24.0034997  66.8829988  15.1710012  26.1684997  67.1219988
  15.0470012  26.8714997  67.9739988  16.1630012  26.4024997  66.6809988
  14.1580012  26.4454997  66.1379988  13.9010012  27.9704997  65.6689988
  13.2670012  27.9364997  64.1829988  12.2600012  26.9744997  63.8439988
  12.6230012  25.9284997  63.9329988  11.3180012  27.0944997  64.4209988
  11.8300012  27.1314997  62.3289988  11.1570012  26.3144997  62.1159988
  11.3200012  28.0814997  62.2709988  12.9360012  27.2454997  61.2359988
  13.7060012  25.8814997  61.2939988  13.0020012  25.1244997  60.9819988
  14.5670012  25.9144997  60.6439988  14.1700012  25.7384997  62.2589988
  12.2240012  27.3834997  59.8999988  12.9380012  27.6944997  59.1519988
  11.7790012  26.4204997  59.6949988  11.3770012  28.0434997  60.0199988
  13.8260012  28.4994997  61.3929988  13.2240012  29.3404997  61.0819988
  14.6020012  28.3224997  60.6639988  14.2740012  28.5174997  62.3759988
  12.7490012  28.4074997  66.5489988  15.1610012  28.6914997  65.6449988
  13.6840012  24.4274997  68.1229988  12.8510012  23.6444997  67.3719988
  13.1980012  23.1164997  66.3519988  11.3720012  23.6334997  67.9169988
  11.3690012  23.8524997  69.0059988  10.8040012  22.7744997  67.4989988
  10.6990012  24.9284997  67.3909988   9.6380012  24.6404997  67.2289988
  10.9310012  25.2534997  66.3539988  10.6770012  26.0634997  68.4139988
  10.2740012  27.0024997  67.9779988  11.7390012  26.1924997  68.7139988
   9.6990012  25.8704997  69.6189988  10.2200012  25.0834997  70.2049988
   8.7140012  25.4844997  69.2809988   9.3630012  27.1604997  70.4039988
   8.7060012  26.8724997  71.2529988   8.5630012  27.6484997  69.8069988
  10.4780012  28.1754997  70.5779988  10.1930012  29.2024997  70.8939988
  11.1170012  28.3744997  69.6909988  11.5010012  27.7014997  71.7129988
  11.9860012  26.7424997  71.4299988  10.7910012  27.4244997  72.5209988
  12.5260012  28.6794997  72.2109988  12.5150012  29.6464997  71.6869988
  13.3920012  28.2974997  73.2059988  14.0380012  29.0634997  73.6609988
  13.3500012  26.9134997  73.7749988  13.9700012  26.2444997  73.1409988
  12.3210012  26.5004997  73.8529988  13.9470012  26.9324997  75.1529988
  13.2080012  27.3694997  75.8569988  14.7890012  27.6504997  75.2519988
  14.2700012  25.4604997  75.4739988  14.8800012  25.0754997  74.6289988
  13.2900012  24.9424997  75.5459988  15.0460012  25.2944997  76.7659988
  14.3780012  25.8714997  77.4409988  16.0580012  25.7104997  76.5729988
  15.0430012  23.8254997  77.1839988  15.5400012  23.2604997  76.3669988
  14.0120012  23.4164997  77.2539988  15.8440012  23.7754997  78.4709988
  16.6070012  24.5824997  78.5049988  16.2050012  22.7294997  78.5749988
  15.0550012  24.0424997  79.8099988  14.6090012  25.0584997  79.8609988
  15.8510012  23.9544997  80.5799988  13.9920012  23.0334997  80.2259988
  14.0550012  22.0184997  79.7779988  12.9440012  23.3294997  80.0009988
  14.0690012  22.9024997  81.3259988  22.2890012 133.0804997  80.1549988
  22.0450012 132.6224997  81.1369988  21.5690012 133.9074997  79.9759988
  23.3050012 133.5294997  80.1559988  22.0980012 132.0054997  79.0509988
  22.7200012 131.1234997  79.3149988  21.0540012 131.6384997  78.9479988
  22.5850012 132.4574997  77.6549988  23.6600012 132.7364997  77.6939988
  22.5080012 131.7224997  76.8249988  21.7950012 133.7164997  77.2199988
  20.7070012 133.4994997  77.1619988  21.9270012 134.5264997  77.9689988
  22.3550012 134.1444997  75.8819988  21.8820012 135.1144997  75.6219988
  23.4280012 134.4334997  75.9059988  22.1920012 133.1764997  74.7189988
  21.4130012 132.4264997  74.9729988  21.8000012 133.7344997  73.8419988
  23.4890012 132.5184997  74.2799988  24.3760012 133.1794997  74.1749988
  23.7580012 131.7334997  75.0189988  23.3400012 131.6914997  73.0309988
  22.4450012 131.0594997  73.2109988  23.1700012 132.4264997  72.2149988
  24.5390012 130.8204997  72.6799988  25.4300012 131.4634997  72.5119988
  24.7420012 130.1884997  73.5709988  24.2680012 130.0604997  71.3509988
  24.6940012 129.0344997  71.3439988  23.1680012 130.0404997  71.2019988
  24.9130012 130.8574997  70.2039988  24.8140012 131.9594997  70.3009988
  26.0020012 130.6384997  70.2119988  24.5510012 130.5324997  68.7709988
  25.1940012 131.0354997  68.0189988  24.8260012 129.4564997  68.7259988
  23.0530012 130.7234997  68.4619988  22.8950012 130.1204997  67.5419988
  22.3780012 130.2834997  69.2259988  22.6790012 132.1964997  68.1589988
  22.7740012 132.8924997  69.0199988  23.4080012 132.5364997  67.3929988
  21.2680012 132.3104997  67.5189988  21.1270012 131.6834997  66.6129988
  20.5120012 131.8844997  68.2119988  20.8900012 133.8454997  67.2649988
  19.9410012 134.4214997  67.7089988  21.8780012 134.3944997  66.6479988
  21.7180012 135.8034997  66.4189988  20.8300012 135.9374997  65.7649988
  21.5860012 136.3894997  67.3539988  22.8740012 136.3514997  65.5619988
  22.7670012 137.4574997  65.5419988  22.7810012 135.8864997  64.0219988
  21.8100012 136.2804997  63.6509988  23.7250012 136.3194997  63.6289988
  22.7360012 134.4324997  63.9549988  23.0670012 133.8234997  62.5739988
  23.6510012 132.4514997  62.9919988  23.3900012 131.6994997  64.1499988
  22.6640012 132.1214997  64.8769988  22.9860012 130.7084997  63.8509988
  24.7030012 131.3014997  64.9109988  25.2480012 132.2064997  65.1349988
  24.3550012 130.8264997  65.8159988  25.7360012 130.5894997  64.1559988
  26.2610012 131.3134997  62.9009988  26.6000012 132.2744997  63.2579988
  27.0810012 130.7764997  62.4489988  25.4790012 131.4084997  62.1619988
  26.8780012 130.2464997  65.0629988  26.4670012 129.6014997  65.8259988
  27.5960012 129.6814997  64.4879988  27.3510012 131.1124997  65.5009988
  25.0690012 129.2994997  63.7349988  24.3530012 129.5384997  62.9629988
  24.5500012 128.7464997  64.5049988  25.9000012 128.7734997  63.2899988
  21.7210012 133.6964997  61.8879988  24.1560012 134.5164997  61.8559988
  24.1760012 135.9084997  66.0739988  24.4970012 136.2614997  67.3069988
  24.0870012 137.1794997  67.9779988  25.4320012 135.1084997  67.8839988
  26.4320012 135.3264997  67.4519988  25.0840012 134.0794997  67.6519988
  25.6900012 135.2864997  69.3469988  24.7770012 135.1514997  69.9649988
  26.1010012 136.3064997  69.5049988  26.7160012 134.3784997  70.0219988
  27.6500012 134.4564997  69.4259988  26.2810012 133.3564997  70.0429988
  27.1800012 134.7574997  71.4179988  27.7920012 135.6744997  71.5479988
  27.9540012 134.0254997  71.7319988  26.0620012 134.7404997  72.4959988
  25.6580012 133.7054997  72.4899988  25.2140012 135.3794997  72.1699988
  26.4950012 135.1814997  73.9209988  25.5860012 135.2854997  74.5519988
  26.7070012 136.2584997  73.7509988  27.6640012 134.4274997  74.5579988
  28.0540012 135.0164997  75.4159988  28.5110012 134.4634997  73.8389988
  27.3710012 132.9774997  75.0079988  27.1060012 132.2524997  74.2239988
  27.4420012 132.4834997  76.2379988  27.4480012 131.3934997  76.3809988
  27.8240012 133.2324997  77.5889988  28.8730012 133.5904997  77.6539988
  27.6920012 132.4014997  78.3149988  26.8180012 134.3804997  77.9569988
  25.8170012 134.0884997  77.5729988  27.1910012 135.3404997  77.5409988
  26.7080012 134.5784997  79.4499988  27.6930012 134.9824997  79.7699988
  26.5950012 133.5884997  79.9409988  25.5920012 135.5674997  79.9759988
  24.9270012 134.9234997  80.5909988  25.0140012 136.0004997  79.1319988
  26.2220012 136.6734997  80.8589988  26.9250012 137.3274997  80.2999988
  26.8120012 136.2334997  81.6919988  25.2260012 137.5994997  81.3709988
  25.6660012 138.1824997  82.2079988  24.4660012 137.0214997  81.9389988
  24.5750012 138.5004997  80.3569988  24.0650012 137.9674997  79.5249988
  25.4100012 139.1144997  79.9579988  23.6500012 139.4994997  81.0249988
  22.9930012 139.0004997  81.7699988  22.9440012 140.0414997  80.3599988
  24.2980012 140.2284997  81.5559988  10.7080012 120.9064997  84.3719988
  11.6970012 121.1624997  83.9339988  10.6380012 119.8164997  84.5769988
  10.4820012 121.4004997  85.3399988   9.6040012 121.1864997  83.3129988
   8.7350012 120.5624997  83.6109988   9.4330012 122.2834997  83.3079988
   9.9560012 120.8654997  81.8489988  10.6760012 121.6494997  81.5319988
  10.4230012 119.8664997  81.7129988   8.7900012 121.0304997  80.8989988
   7.8960012 120.3994997  81.0879988   8.5400012 122.1034997  80.7569988
   9.2170012 120.7494997  79.3889988  10.1090012 121.3804997  79.1859988
   9.6640012 119.7394997  79.2629988   8.0140012 120.7584997  78.4709988
   7.4280012 119.8584997  78.7559988   7.3960012 121.6684997  78.6229988
   8.3470012 120.5114997  76.9849988   9.2540012 121.0794997  76.6869988
   8.6960012 119.4634997  76.8649988   7.1140012 120.6864997  76.0459988
   6.2550012 120.1054997  76.4419988   6.7560012 121.7234997  76.2239988
   7.2430012 120.3374997  74.5639988   6.3180012 120.7084997  74.0739988
   8.1490012 120.9254997  74.3039988   7.3720012 118.8334997  74.3189988
   8.3100012 118.4574997  74.7789988   6.6970012 118.1694997  74.8999988
   7.1460012 118.4004997  72.8579988   8.0070012 118.7584997  72.2529988
   7.0510012 117.2954997  72.7989988   5.8790012 118.9314997  72.1779988
   5.0240012 118.5584997  72.7809988   5.8480012 120.0394997  72.2579988
   5.4290012 118.3424997  70.8369988   5.3650012 117.2354997  70.9009988
   4.4510012 118.8054997  70.5849988   6.2850012 118.7274997  69.6379988
   7.3410012 118.4404997  69.8309988   5.9280012 118.2324997  68.7099988
   6.3590012 120.2244997  69.4419988   5.2800012 120.4804997  69.3779988
   6.7570012 120.8154997  70.2939988   6.9800012 120.6184997  68.1139988
   7.6950012 119.9254997  67.4249988   6.8400012 121.8914997  67.9689988
   7.4230012 122.6544997  66.8759988   7.6990012 121.9704997  66.0449988
   6.6240012 123.3094997  66.4679988   8.6920012 123.3614997  67.2189988
   8.3560012 124.0274997  68.0429988   9.1730012 124.2184997  66.0419988
   8.3910012 124.9474997  65.7419988  10.0860012 124.8204997  66.2399988
   9.2950012 123.3914997  64.9559988  10.7830012 123.0334997  64.4159988
  10.5310012 122.0514997  63.2419988   9.4050012 122.3394997  62.3039988
   9.1110012 123.4064997  62.2019988   9.7710012 122.0304997  61.3009988
   8.0600012 121.6424997  62.5909988   7.6300012 122.1814997  63.4209988
   7.5200012 121.8134997  61.6709988   8.0480012 120.0854997  62.8039988
   8.9570012 119.4934997  61.7219988   8.5180012 119.7104997  60.7589988
   9.8930012 120.0274997  61.7839988   9.2310012 118.4794997  61.9749988
   8.6540012 119.7464997  64.0809988   8.2400012 120.3074997  64.9059988
   8.5170012 118.7254997  64.4059988   9.7280012 119.8624997  64.1029988
   6.6640012 119.5014997  62.7049988   6.7400012 118.4694997  63.0119988
   6.2490012 119.3984997  61.7129988   5.9210012 119.9244997  63.3649988
  11.4750012 124.2284997  63.9119988  11.4370012 122.2344997  65.4489988
   9.6330012 122.3604997  67.6339988  10.4490012 122.8384997  68.5149988
  10.5010012 124.0044997  68.9249988  11.4220012 121.7694997  69.0339988
  12.0440012 122.3054997  69.7829988  12.0050012 121.4314997  68.1509988
  10.6870012 120.6554997  69.8029988  10.4060012 119.8014997  69.1509988
   9.8220012 121.0614997  70.3689988  11.4700012 120.0124997  70.9309988
  12.3240012 119.5034997  70.4329988  10.8120012 119.3144997  71.4919988
  12.1240012 120.9024997  71.9679988  12.7830012 121.6644997  71.5009988
  12.8200012 120.1434997  72.3859988  11.0070012 121.4064997  72.8759988
  10.1130012 120.7504997  72.8019988  10.5480012 122.3094997  72.4199988
  11.3160012 121.5924997  74.3419988  11.7830012 120.6284997  74.6369988
  10.3990012 121.7034997  74.9599988  12.3460012 122.6394997  74.6749988
  13.3010012 122.4874997  74.1279988  12.5320012 122.3624997  75.7349988
  11.8150012 123.9654997  74.3349988  12.0340012 124.3254997  73.3189988
  11.2540012 124.7764997  75.1969988  10.7510012 125.6684997  74.7949988
  11.0480012 124.5424997  76.6549988  11.9300012 124.9974997  77.1549988
  10.9960012 123.4674997  76.9289988   9.7410012 125.1714997  77.2199988
   8.9660012 124.9044997  76.4699988  10.0110012 126.2484997  77.2099988
   9.4300012 124.7814997  78.6939988   9.3140012 123.6814997  78.5889988
   8.4050012 125.1434997  78.9229988  10.4440012 125.1824997  79.7269988
  10.4420012 126.2934997  79.7199988  11.4070012 124.8004997  79.3249988
  10.2230012 124.6394997  81.1739988  10.7950012 125.2624997  81.8949988
  10.5760012 123.6094997  81.3939988   8.7500012 124.7314997  81.7629988
   8.7700012 124.4424997  82.8349988   8.1700012 123.9264997  81.2629988
   8.1600012 126.1354997  81.6039988   7.7370012 126.1724997  80.5769988
   9.0280012 126.8084997  81.7669988   7.0860012 126.2214997  82.6499988
   6.2870012 125.5074997  82.3549988   6.7720012 127.2844997  82.5679988
   7.4900012 125.8144997  83.6009988  85.4020012   4.2404997  83.4829988
  85.3360012   3.3054997  84.0789988  84.4390012   4.3764997  82.9469988
  85.5180012   5.1224997  84.1479988  86.5750012   4.0624997  82.5289988
  86.7410012   4.9964997  81.9499988  87.4140012   3.8544997  83.2269988
  86.3410012   3.0834997  81.3539988  86.4780012   2.0674997  81.7819988
  85.3630012   3.1514997  80.8319988  87.4080012   3.2794997  80.2349988
  87.0520012   4.2734997  79.8889988  88.4210012   3.2434997  80.6889988
  87.3710012   2.2364997  79.1009988  88.2140012   2.3724997  78.3899988
  87.5340012   1.2004997  79.4679988  85.9830012   2.2084997  78.3089988
  86.0360012   1.3304997  77.6299988  85.1600012   2.0864997  79.0449988
  85.8070012   3.4824997  77.4659988  85.3990012   4.2874997  78.1129988
  86.7120012   3.8284997  76.9229988  84.8550012   3.3134997  76.2679988
  85.2430012   2.4674997  75.6629988  83.9680012   2.8094997  76.7079988
  84.5130012   4.6684997  75.5149988  83.8520012   5.3244997  76.1209988
  85.4590012   5.2074997  75.2929988  83.6330012   4.6044997  74.1569988
  83.5190012   5.6324997  73.7509988  84.1800012   3.9244997  73.4699988
  82.1850012   4.0744997  74.3959988  82.2000012   3.0274997  74.7699988
  81.7710012   4.7244997  75.1969988  81.2660012   4.1594997  73.1489988
  80.2370012   3.8924997  73.4729988  81.3680012   5.2524997  72.9789988
  81.7940012   3.3624997  71.9959988  82.7010012   3.9184997  71.6749988
  82.0690012   2.3454997  72.3509988  80.7430012   3.4714997  70.8589988
  79.8240012   2.9244997  71.1619988  80.3780012   4.5204997  70.8229988
  81.1810012   2.9844997  69.4679988  81.5320012   1.9354997  69.3639988
  80.2800012   3.1124997  68.8309988  82.2200012   3.9344997  68.8139988
  82.0210012   4.9044997  68.0929988  83.3790012   3.4144997  69.1069988
  84.5410012   4.0724997  68.7879988  84.3510012   4.8184997  67.9859988
  84.9250012   4.6114997  69.6809988  85.6580012   3.1634997  68.2019988
  86.6060012   3.7274997  68.3349988  85.3990012   2.8044997  66.7689988
  84.7540012   3.5854997  66.3149988  86.3500012   2.8214997  66.1939988
  84.8040012   1.5364997  66.5739988  83.5150012   1.2314997  65.6629988
  84.1450012   1.2054997  64.2169988  83.4680012   0.4424997  63.2989988
  83.4210012  -0.6135003  63.6409988  82.4390012   0.8374997  63.1579988
  84.0940012   0.4734997  61.8719988  84.7430012  -0.3855003  61.7899988
  83.2750012   0.3174997  61.1849988  84.8110012   1.7394997  61.3069988
  86.1480012   1.9574997  62.0329988  86.8330012   1.1474997  61.8299988
  86.6160012   2.8794997  61.7209988  85.9640012   1.9654997  63.0969988
  85.0320012   1.4404997  59.8839988  84.0870012   1.3464997  59.3699988
  85.5610012   2.2304997  59.3719988  85.5470012   0.4904997  59.8819988
  84.0010012   3.0064997  61.3929988  83.1350012   2.8074997  60.7779988
  84.5000012   3.7814997  60.8299988  83.8250012   3.2164997  62.4369988
  83.1070012  -0.1345003  66.1319988  82.5320012   2.2694997  65.8079988
  85.8850012   2.0424997  69.0519988  86.8810012   1.2124997  68.8089988
  87.7650012   1.2754997  67.9689988  86.6890012   0.1184997  69.9379988
  85.6940012   0.2694997  70.4089988  87.4210012   0.4854997  70.6879988
  86.9630012  -1.2515003  69.2689988  87.1860012  -1.9335003  70.1169988
  87.8850012  -1.1665003  68.6549988  85.8120012  -1.7425003  68.3889988
  85.8760012  -2.7815003  68.0009988  85.9790012  -1.0795003  67.5139988
  84.3290012  -1.4845003  68.8429988  83.5800012  -1.8385003  68.1019988
  84.1990012  -0.4035003  69.0639988  83.9000012  -2.2245003  70.1149988
  84.7500012  -2.2605003  70.8289988  83.6990012  -3.3055003  69.9539988
  82.6330012  -1.6105003  70.7229988  81.9810012  -1.3785003  69.8529988
  82.9070012  -0.6085003  71.1179988  81.8000012  -2.3885003  71.7389988
  81.3010012  -3.2125003  71.1869988  81.0100012  -1.7455003  72.1839988
  82.5950012  -3.0115003  72.8819988  82.9160012  -4.0375003  72.6479988
  83.0440012  -2.4715003  74.0549988  83.4970012  -3.0725003  74.8579988
  82.8920012  -1.0355003  74.5259988  81.8460012  -0.7455003  74.2889988
  83.5820012  -0.4465003  73.8849988  83.0450012  -0.7435003  76.0339988
  83.0980012   0.3664997  76.0189988  83.9720012  -1.2245003  76.4129988
  81.7910012  -1.1895003  76.8519988  81.5710012  -2.2615003  76.6579988
  80.9340012  -0.5045003  76.6779988  82.0560012  -1.1375003  78.3589988
  81.0410012  -1.3105003  78.7759988  82.5420012  -0.1805003  78.6469988
  82.9940012  -2.2195003  79.0109988  83.9710012  -2.1925003  78.4839988
  82.5720012  -3.2175003  78.7689988  83.2520012  -1.9635003  80.5259988
  83.7650012  -0.9885003  80.6709988  84.0420012  -2.7075003  80.7689988
  82.0540012  -2.1485003  81.3809988  81.4810012  -3.0755003  81.1609988
  81.2600012  -1.3925003  81.2009988  82.4260012  -2.1575003  82.9199988
  82.9620012  -1.2225003  83.1879988  83.0740012  -3.0035003  83.2339988
  81.5410012  -2.2725003  83.5819988 140.8650012  34.9224997  84.1159988
 140.2340012  35.8174997  84.3039988 141.8490012  35.1464997  83.6519988
 140.9280012  34.4024997  85.0959988 139.9990012  34.1014997  83.1639988
 140.6140012  33.2204997  82.8819988 139.1270012  33.7584997  83.7619988
 139.5570012  34.8294997  81.8909988 138.7590012  34.2454997  81.3849988
 139.0190012  35.7414997  82.2289988 140.6460012  35.2494997  80.8519988
 141.2890012  36.0504997  81.2749988 141.2660012  34.3684997  80.5829988
 140.0460012  35.8634997  79.5589988 139.3850012  35.0654997  79.1579988
 139.3910012  36.6494997  79.9919988 141.0680012  36.3184997  78.5489988
 140.4640012  36.6624997  77.6809988 141.6440012  37.1984997  78.9069988
 141.9980012  35.1584997  78.1359988 142.5230012  34.9014997  79.0809988
 141.3340012  34.2924997  77.9279988 143.1030012  35.5374997  77.1139988
 143.8000012  36.2384997  77.6199988 143.7370012  34.6394997  76.9559988
 142.4830012  36.0344997  75.7629988 141.8270012  35.3434997  75.1919988
 141.9240012  36.9624997  76.0089988 143.5940012  36.3554997  74.7429988
 144.4840012  36.7164997  75.3019988 143.8670012  35.4754997  74.1219988
 143.0810012  37.2724997  73.6169988 142.9100012  38.2374997  74.1409988
 143.8290012  37.5244997  72.8359988 141.8200012  36.7534997  72.9289988
 141.0570012  36.7834997  73.7359988 141.3760012  37.5354997  72.2759988
 141.9950012  35.4744997  72.2019988 142.7900012  35.5184997  71.4269988
 142.4140012  34.7144997  72.8959988 140.6480012  34.9554997  71.6149988
 139.9630012  34.7724997  72.4699988 140.3240012  35.8094997  70.9829988
 140.8670012  33.5574997  71.0269988 141.8740012  33.6594997  70.5679988
 140.6170012  32.8014997  71.8019988 139.8750012  33.3124997  69.7929988
 139.0760012  34.1144997  69.3869988 140.2660012  32.2044997  69.1829988
 139.6820012  31.7884997  67.9829988 139.3820012  30.7384997  68.1839988
 138.8050012  32.4134997  67.7099988 140.5850012  31.8054997  66.7299988
 140.7840012  32.8744997  66.5029988 140.0110012  31.1864997  65.4749988
 139.9910012  30.0764997  65.5079988 138.9080012  31.3204997  65.4779988
 140.6120012  31.6814997  64.2649988 139.9340012  32.7714997  63.3459988
 141.2220012  33.3804997  62.5729988 142.3550012  33.6174997  63.4649988
 142.4420012  32.8564997  64.2689988 143.2600012  33.6544997  62.8219988
 142.2200012  34.9324997  64.3179988 141.3550012  34.8444997  64.9579988
 142.9900012  34.9044997  65.0749988 142.3470012  36.2724997  63.5719988
 143.3860012  36.2984997  62.5359988 143.2630012  35.4274997  61.9099988
 143.3530012  37.2404997  62.0079988 144.3520012  36.2314997  63.0139988
 141.0970012  36.6204997  62.9239988 141.2230012  37.5604997  62.4089988
 140.8980012  35.8164997  62.2309988 140.3420012  36.8154997  63.6709988
 142.6410012  37.3534997  64.5839988 143.5690012  37.1024997  65.0749988
 141.8880012  37.4564997  65.3509988 142.6250012  38.3124997  64.0879988
 139.0460012  32.2204997  62.3049988 139.3290012  33.7504997  64.2919988
 141.7050012  31.0314997  66.9879988 142.6340012  31.6124997  67.7029988
 142.7980012  32.8294997  67.7599988 143.6600012  30.6464997  68.2309988
 144.7160012  30.9894997  68.2129988 143.4150012  29.6914997  67.7179988
 143.4720012  30.5994997  69.7649988 142.6480012  31.2634997  70.1049988
 144.3930012  31.0254997  70.2159988 143.2580012  29.2164997  70.3849988
 144.0070012  28.5094997  69.9679988 142.2280012  28.9864997  70.0369988
 143.1800012  29.3554997  71.9359988 142.4630012  30.1834997  72.1209988
 144.1620012  29.8124997  72.1839988 142.8980012  28.1334997  72.7149988
 143.3960012  27.2334997  72.2929988 141.8300012  27.8594997  72.5789988
 142.9270012  28.2744997  74.2209988 143.9860012  28.5404997  74.4249988
 142.8370012  27.2734997  74.6949988 141.8910012  29.2704997  74.8949988
 141.5890012  28.9474997  75.9139988 140.9280012  29.1334997  74.3569988
 142.4380012  30.6704997  74.9429988 142.6940012  31.0544997  73.9439988
 142.8240012  31.4144997  76.0229988 143.0130012  32.4784997  75.8139988
 142.7570012  31.0024997  77.5109988 143.5750012  31.4154997  78.1389988
 142.7280012  29.8954997  77.6039988 141.4270012  31.4414997  78.1739988
 140.6600012  30.6844997  77.9049988 141.0960012  32.3684997  77.6579988
 141.3770012  31.6084997  79.7139988 140.5010012  32.1494997  80.1319988
 142.2030012  32.2934997  79.9999988 141.7170012  30.3724997  80.4569988
 142.7540012  30.0504997  80.2229988 141.0070012  29.5804997  80.1339988
 141.5880012  30.3784997  81.9639988 141.9250012  31.3704997  82.3329988
 142.2670012  29.6444997  82.4469988 140.2040012  30.2414997  82.6129988
 139.6350012  29.3264997  82.3429988 139.6530012  31.1514997  82.2919988
 140.3800012  30.1934997  84.1429988 139.3580012  30.1274997  84.5739988
 140.7920012  31.1694997  84.4749988 141.2780012  29.0954997  84.7649988
 140.6880012  28.1534997  84.7429988 141.4990012  29.3424997  85.8249988
 142.2580012  29.0164997  84.2469988   4.6760012  35.9884997  84.1429988
   5.2320012  35.5804997  83.2719988   4.1840012  35.1694997  84.7089988
   5.2910012  36.5674997  84.8639988   3.7480012  37.0144997  83.5289988
   3.1210012  37.5154997  84.2969988   4.3980012  37.7504997  83.0109988
   2.7080012  36.3154997  82.5049988   2.0130012  35.6374997  83.0439988
   2.0520012  37.1574997  82.1959988   3.3030012  35.7684997  81.1689988
   4.2350012  36.3474997  80.9929988   3.5440012  34.6874997  81.2559988
   2.3050012  35.9374997  79.9819988   1.4580012  35.2564997  80.2109988
   2.0520012  37.0134997  79.8759988   2.8220012  35.4394997  78.5999988
   3.4030012  34.5014997  78.7339988   1.9460012  35.1734997  77.9699988
   3.8020012  36.3834997  77.9689988   3.4480012  37.4234997  78.1359988
   4.7850012  36.1564997  78.4339988   3.9140012  36.3144997  76.4439988
   2.9050012  36.4724997  76.0069988   4.4860012  37.1924997  76.0759988
   4.2850012  34.8504997  75.9809988   5.3580012  34.6504997  76.1899988
   3.6820012  34.0584997  76.4749988   4.1030012  34.7354997  74.4829988
   4.2740012  33.6834997  74.1709988   3.0630012  34.8694997  74.1169988
   5.1310012  35.6934997  73.6539988   4.7840012  36.7394997  73.7939988
   6.0560012  35.7124997  74.2699988   5.3370012  35.3664997  72.1799988
   5.9420012  34.4384997  72.1029988   4.3800012  35.1934997  71.6439988
   6.0760012  36.4364997  71.4289988   5.8640012  37.4164997  71.9069988
   7.1350012  36.2054997  71.6709988   5.7550012  36.4344997  69.9409988
   6.0460012  35.4374997  69.5459988   4.6640012  36.4864997  69.7349988
   6.4770012  37.6464997  69.2459988   6.0720012  38.5884997  69.6749988
   7.5500012  37.4504997  69.4609988   6.2910012  37.6364997  67.7099988
   6.0100012  38.6444997  67.0609988   6.4630012  36.4144997  67.2659988
   6.6050012  36.3054997  65.8469988   6.6930012  37.2744997  65.3109988
   7.5140012  35.6914997  65.6699988   5.4530012  35.5504997  65.1689988
   5.5920012  34.4534997  65.2749988   5.3590012  35.9264997  63.6959988
   6.3610012  35.7584997  63.2459988   4.6460012  35.3484997  63.0689988
   4.9490012  37.2834997  63.5629988   5.4850012  38.2004997  62.3699988
   4.4220012  39.4314997  62.3219988   4.4870012  40.4154997  63.3149988
   5.0840012  40.1264997  64.2059988   5.0090012  41.3134997  62.9209988
   3.1100012  40.9304997  63.9259988   3.2960012  41.6724997  64.6879988
   2.6220012  41.4704997  63.1279988   2.2940012  39.8134997  64.5549988
   1.9400012  38.6504997  63.6129988   1.4220012  39.0714997  62.7639988
   2.8120012  38.1734997  63.1899988   1.2820012  38.0664997  64.2399988
   2.7830012  39.3674997  65.8599988   2.0570012  38.7354997  66.3499988
   3.7500012  38.8944997  65.7729988   2.8710012  40.2304997  66.5029988
   1.0090012  40.4814997  64.8369988   0.6260012  40.9604997  63.9479988
   1.1620012  41.2534997  65.5759988   0.3330012  39.7974997  65.3279988
   6.8510012  38.6984997  62.6939988   5.3590012  37.4264997  61.1269988
   4.1720012  35.8374997  65.8549988   3.1290012  35.0134997  65.3469988
   3.2970012  33.9934997  64.6679988   1.7880012  35.6884997  65.7199988
   1.0070012  35.1594997  65.1329988   1.8020012  36.7504997  65.3939988
   1.4960012  35.5164997  67.2559988   1.9060012  34.5464997  67.6069988
   0.3990012  35.4884997  67.4329988   2.0660012  36.6854997  68.0709988
   1.7200012  37.6614997  67.6669988   3.1670012  36.7934997  67.9729988
   1.6500012  36.6494997  69.5679988   2.0740012  35.6854997  69.9219988
   0.5650012  36.4144997  69.6249988   1.8440012  37.8564997  70.3909988
   1.5340012  38.7324997  69.7829988   2.9470012  37.9174997  70.5109988
   1.0310012  37.9704997  71.7469988   1.4960012  37.1844997  72.3799988
  -0.0529988  37.7844997  71.5889988   1.0730012  39.3374997  72.4589988
   0.9450012  39.1534997  73.5469988   0.2290012  40.0004997  72.1739988
   2.3170012  40.1794997  72.2879988   2.5370012  40.6474997  71.3169988
   3.2240012  40.3314997  73.2749988   4.0770012  40.9974997  73.0789988
   3.2440012  39.7444997  74.6459988   4.3270012  39.5734997  74.8219988
   2.7230012  38.7634997  74.6359988   2.5450012  40.5114997  75.7459988
   2.7130012  39.8144997  76.5949988   1.4510012  40.6494997  75.6109988
   3.2530012  41.8744997  76.0249988   3.0490012  42.5444997  75.1629988
   4.3610012  41.7994997  76.0509988   2.6460012  42.4814997  77.2889988
   1.6430012  42.0714997  77.5309988   2.3730012  43.5394997  77.0919988
   3.6720012  42.2974997  78.4669988   3.2300012  42.8544997  79.3209988
   4.6110012  42.8684997  78.3039988   3.7530012  40.8384997  78.9069988
   3.9510012  40.1484997  78.0579988   2.7770012  40.4294997  79.2449988
   4.7940012  40.5894997  79.9359988   4.5150012  41.2984997  80.7449988
   5.7420012  40.8374997  79.4119988   4.6900012  39.1344997  80.3909988
   5.0770012  38.5304997  79.5419988   3.6390012  38.8024997  80.5299988
   5.1250012  39.0554997  81.4099988  72.4880012 143.8974997  80.2219988
  73.0850012 144.8254997  80.3459988  72.9600012 143.1744997  79.5229988
  72.5280012 143.2664997  81.1359988  70.9930012 144.1834997  79.7939988
  70.3900012 143.2504997  79.7959988  70.5000012 144.7974997  80.5779988
  70.7090012 144.9704997  78.4819988  69.6130012 145.1514997  78.4839988
  71.4070012 145.8334997  78.5209988  71.0430012 144.2294997  77.1519988
  72.1370012 144.3114997  76.9759988  70.8650012 143.1424997  77.2959988
  70.1810012 144.7154997  75.9279988  69.1230012 144.5024997  76.1929988
  70.3000012 145.8204997  75.9189988  70.4960012 144.1284997  74.5949988
  71.4500012 144.3624997  74.0749988  70.3740012 143.0304997  74.7039988
  69.4530012 144.6574997  73.4719988  69.6610012 144.0914997  72.5389988
  68.4650012 144.3194997  73.8509988  69.4170012 146.2214997  73.2969988
  69.0790012 146.7284997  74.2259988  70.4800012 146.5054997  73.1379988
  68.4060012 146.6074997  72.1799988  67.4050012 146.3864997  72.6089988
  68.4130012 147.6764997  71.8779988  68.4100012 145.7674997  70.9389988
  68.1060012 144.7064997  71.0689988  67.6470012 146.2034997  70.2579988
  69.7420012 145.8134997  70.1929988  69.8130012 146.9134997  70.0519988
  70.5200012 145.4114997  70.8769988  69.8100012 145.1764997  68.8199988
  70.0460012 144.1094997  69.0209988  68.8420012 145.2374997  68.2779988
  70.9210012 145.7464997  67.9649988  70.4120012 146.6714997  67.6189988
  71.8590012 146.0364997  68.4849988  71.2270012 144.5944997  66.9139988
  71.6000012 143.6914997  67.4419988  70.3950012 144.3444997  66.2219988
  72.3350012 145.0034997  65.9309988  71.9260012 145.7564997  65.2239988
  73.1620012 145.4744997  66.5039988  72.7990012 143.7614997  65.2159988
  73.6730012 143.0684997  65.6809988  72.0210012 143.4244997  64.0939988
  72.0770012 142.0984997  63.6039988  71.9360012 142.0884997  62.5019988
  72.9830012 141.5204997  63.8839988  70.7650012 141.1204997  64.0389988
  70.9290012 140.1604997  63.5039988  69.4040012 141.7094997  63.6779988
  69.4330012 142.0724997  62.6279988  68.6800012 140.8754997  63.5629988
  69.0760012 142.7104997  64.6009988  67.6440012 143.3794997  64.5699988
  67.8040012 144.5634997  63.5169988  68.3610012 145.9104997  64.0159988
  67.7750012 146.7634997  63.6119988  68.2130012 146.0174997  65.1119988
  69.8290012 146.0354997  63.6839988  70.2050012 146.9644997  64.0879988
  70.4110012 145.2024997  64.0509988  70.3080012 146.1104997  62.2219988
  71.7640012 146.5084997  62.3549988  72.2250012 146.6244997  61.3849988
  71.9220012 147.4224997  62.9079988  72.2660012 145.6954997  62.8569988
  70.1860012 144.6704997  61.7749988  70.3100012 144.6104997  60.7039988
  71.0200012 144.1614997  62.2359988  69.2750012 144.1714997  62.0699988
  69.5720012 147.1044997  61.3839988  69.4960012 147.9744997  62.0199988
  68.5640012 146.7724997  61.1849988  70.0020012 147.3234997  60.4169988
  66.4880012 142.5664997  64.1469988  67.4790012 143.9274997  65.9099988
  70.9120012 140.8734997  65.4649988  69.9990012 140.1224997  66.1579988
  69.2050012 139.3704997  65.7099988  70.2370012 140.3624997  67.6579988
  69.8870012 141.3754997  67.9499988  71.3410012 140.2974997  67.7599988
  69.4140012 139.3524997  68.4549988  69.6670012 138.3254997  68.1149988
  68.3490012 139.5534997  68.2089988  69.3670012 139.3434997  69.9909988
  70.4180012 139.2354997  70.3359988  68.6990012 138.5414997  70.3689988
  68.7860012 140.6514997  70.5139988  67.7780012 140.6924997  70.0479988
  69.3950012 141.5064997  70.1489988  68.8210012 140.9334997  72.0179988
  68.2950012 141.9024997  72.1489988  69.8610012 140.8844997  72.4069988
  68.0380012 139.8924997  72.7859988  68.3600012 139.9204997  73.8489988
  68.1930012 138.8244997  72.5239988  66.5090012 140.0634997  72.7539988
  66.2190012 139.2104997  73.4029988  66.1560012 139.7794997  71.7389988
  65.9340012 141.3864997  73.1209988  65.6830012 141.9574997  72.2159988
  65.8230012 141.9554997  74.3409988  65.3760012 142.9454997  74.5179988
  66.1860012 141.3534997  75.6469988  66.5010012 140.2884997  75.6219988
  65.3540012 141.5314997  76.3619988  67.3330012 142.1204997  76.3179988
  66.9190012 143.0484997  76.7659988  68.2050012 142.3604997  75.6729988
  67.9600012 141.3494997  77.5179988  67.1340012 140.8864997  78.0989988
  68.3290012 142.1824997  78.1539988  69.0880012 140.3714997  77.1799988
  70.0180012 140.8514997  76.8069988  68.8770012 139.7184997  76.3069988
  69.2930012 139.3594997  78.2909988  69.8740012 138.4934997  77.9069988
  68.2810012 138.9584997  78.5099988  69.8420012 139.8984997  79.6049988
  69.6010012 139.2574997  80.4789988  69.4460012 140.8644997  79.9849988
  71.4370012 140.1114997  79.7199988  71.5550012 140.6464997  80.6869988
  71.7290012 140.7734997  78.8769988  72.2210012 138.8504997  79.5919988
  73.3230012 138.9884997  79.5959988  71.7950012 138.2824997  78.7369988
  72.1120012 138.2224997  80.5019988  36.6390012   8.9764997  81.1639988
  37.7350012   8.8814997  81.3149988  36.3940012   9.8564997  81.7969988
  36.3510012   9.1824997  80.1109988  35.9890012   7.6934997  81.7669988
  36.5110012   6.8954997  81.1969988  36.3040012   7.7404997  82.8319988
  34.4390012   7.5914997  81.6379988  34.1510012   6.6814997  82.2059988
  34.0300012   8.4824997  82.1619988  33.8160012   7.5964997  80.2289988
  32.7130012   7.6664997  80.3459988  34.0760012   8.4284997  79.5409988
  34.0910012   6.2994997  79.4699988  35.1860012   6.1744997  79.3289988
  33.6240012   5.4594997  80.0269988  33.3490012   6.2534997  78.1799988
  32.8590012   5.2674997  78.0279988  32.4900012   6.9524997  78.2679988
  34.3290012   6.4954997  77.0409988  33.8440012   6.9734997  76.1629988
  34.9880012   7.2954997  77.4409988  35.2460012   5.2444997  76.7169988
  35.9000012   5.0194997  77.5869988  34.6070012   4.3384997  76.6469988
  35.9400012   5.3074997  75.4029988  35.2730012   5.7484997  74.6319988
  36.8030012   5.9974997  75.5219988  36.4480012   3.9104997  74.9809988
  37.4160012   3.7104997  75.4899988  35.7100012   3.1364997  75.2819988
  36.5510012   3.7194997  73.4549988  36.4280012   2.6884997  73.0589988
  35.6050012   4.1904997  73.1099988  37.7670012   4.5024997  72.9179988
  37.8590012   5.4864997  73.4249988  38.6690012   3.8874997  73.1239988
  37.7000012   4.7714997  71.4229988  38.6980012   5.0764997  71.0409988
  37.3330012   3.8614997  70.9009988  36.7090012   5.9484997  71.1099988
  35.8000012   5.7214997  71.7069988  37.1520012   6.9554997  71.2619988
  36.3990012   5.8324997  69.6349988  37.3880012   6.0344997  69.1709988
  36.0230012   4.8174997  69.3859988  35.2660012   6.8244997  69.2869988
  34.6740012   7.5034997  70.1309988  35.1490012   6.9684997  67.9699988
  34.3250012   8.0394997  67.4879988  33.2630012   7.7224997  67.5699988
  34.5190012   8.9264997  68.1269988  34.6920012   8.3384997  65.9889988
  33.9010012   9.0554997  65.6819988  34.6240012   7.0824997  65.0409988
  33.5730012   6.7364997  65.1469988  34.7930012   7.5544997  64.0499988
  35.4070012   5.9114997  65.3729988  36.6650012   5.5714997  64.4549988
  37.6420012   6.8284997  64.6569988  38.9370012   6.6604997  64.1019988
  39.6330012   7.2404997  64.7439988  39.3110012   5.6144997  64.1319988
  39.0620012   7.1204997  62.5569988  40.0540012   6.8314997  62.2429988
  38.3150012   6.5344997  62.0439988  38.7270012   8.5454997  62.3039988
  39.6230012   9.3744997  63.1959988  40.6730012   9.2194997  62.9939988
  39.4750012  10.4234997  62.9859988  39.3510012   9.2464997  64.2329988
  39.0790012   8.9404997  60.8789988  38.4270012   8.4224997  60.1919988
  38.9520012   9.9984997  60.6979988  40.0760012   8.5334997  60.7919988
  37.2900012   8.8874997  62.6739988  36.9470012   8.2604997  63.4839988
  36.6840012   8.7754997  61.7869988  37.2960012   9.9464997  62.8849988
  37.3100012   4.3334997  64.9299988  36.2160012   5.6184997  63.0529988
  36.0120012   8.8704997  65.8629988  36.3660012  10.0064997  66.4839988
  35.6170012  10.6644997  67.1819988  37.8110012  10.3444997  66.2009988
  37.8030012  11.0314997  65.3279988  38.3130012   9.4094997  65.8719988
  38.4900012  10.9914997  67.4699988  37.9860012  11.8484997  67.9659988
  39.4590012  11.3504997  67.0619988  38.8600012   9.9774997  68.5909988
  39.6650012   9.3434997  68.1639988  38.0180012   9.2654997  68.7309988
  39.4160012  10.6854997  69.8099988  38.5970012  11.3494997  70.1599988
  40.2870012  11.3004997  69.4959988  39.9430012   9.7344997  70.8459988
  40.8560012   9.1824997  70.5359988  39.0460012   9.0954997  70.9889988
  40.3050012  10.3504997  72.1959988  39.6170012  11.1704997  72.4929988
  41.3530012  10.6934997  72.0679988  40.4390012   9.2574997  73.2179988
  40.8360012   9.7714997  74.1189988  41.1860012   8.5714997  72.7649988
  39.0850012   8.6364997  73.6189988  38.7700012   7.9224997  72.8429988
  38.2430012   8.9294997  74.6309988  37.3680012   8.3034997  74.8609988
  38.3260012   9.9894997  75.7529988  37.3990012  10.4724997  76.1299988
  39.0050012  10.8344997  75.5079988  39.0560012   9.3844997  76.9699988
  38.5270012   8.4794997  77.3369988  38.8970012  10.1154997  77.7919988
  40.5810012   9.1734997  76.8519988  41.0210012  10.1384997  76.5189988
  40.7480012   8.3674997  76.1059988  41.2980012   8.6314997  78.1289988
  42.3430012   8.3244997  77.9109988  40.7170012   7.7644997  78.5089988
  41.4350012   9.7144997  79.1579988  40.4660012  10.1704997  79.4509988
  42.0310012  10.5884997  78.8179988  42.0610012   9.1584997  80.5089988
  42.4350012  10.0264997  81.0929988  42.9120012   8.4654997  80.3319988
  41.0000012   8.5224997  81.4059988  40.6660012   7.5474997  80.9919988
  40.1830012   9.2754997  81.3799988  41.4740012   8.4014997  82.8619988
  41.7520012   9.3814997  83.3049988  42.4090012   7.8094997  82.7599988
  40.8250012   7.8364997  83.5649988 137.1240012 115.7034997  82.5959988
 137.6270012 116.1584997  83.4759988 136.0730012 116.0634997  82.5689988
 137.6580012 116.1804997  81.7469988 137.2380012 114.2594997  82.5859988
 138.3300012 114.0664997  82.6609988 136.7000012 113.9694997  83.5129988
 136.8260012 113.4494997  81.3119988 137.6300012 113.4904997  80.5459988
 136.8440012 112.3714997  81.5789988 135.3920012 113.7604997  80.7959988
 134.6770012 113.5164997  81.6109988 135.1550012 114.7934997  80.4609988
 135.0020012 112.7954997  79.6259988 134.9570012 111.7944997  80.1059988
 133.9950012 113.1084997  79.2749988 136.0250012 112.6764997  78.4349988
 136.1730012 113.6884997  78.0009988 136.9530012 112.2564997  78.8779988
 135.6770012 111.7944997  77.2959988 136.5280012 111.9184997  76.5929988
 135.6510012 110.7454997  77.6599988 134.4700012 112.0714997  76.6309988
 134.3530012 111.3234997  75.8169988 133.6710012 111.8454997  77.3689988
 134.3200012 113.4714997  75.9739988 133.8650012 114.1584997  76.7179988
 135.3880012 113.7204997  75.7949988 133.5460012 113.5274997  74.6219988
 134.2010012 113.1414997  73.8109988 132.7370012 112.7684997  74.5689988
 132.9160012 114.7814997  74.2379988 132.0110012 114.5504997  73.6349988
 132.4400012 115.3724997  75.0489988 133.7450012 115.7094997  73.4829988
 133.1920012 116.6714997  73.4139988 134.6460012 115.9634997  74.0809988
 134.3690012 115.3204997  72.1359988 134.9020012 114.3494997  72.2219988
 133.5290012 115.2074997  71.4179988 135.4000012 116.4304997  71.7849988
 134.9360012 117.4104997  72.0299988 136.2010012 116.2074997  72.5229988
 135.8840012 116.3694997  70.3079988 134.9790012 116.4234997  69.6649988
 136.5640012 117.2394997  70.1869988 136.7480012 115.1284997  70.0079988
 137.4670012 114.5374997  70.7899988 136.4250012 114.8024997  68.7869988
 136.6330012 113.4544997  68.2559988 137.4260012 113.5084997  67.4789988
 136.8660012 112.6834997  69.0209988 135.3940012 112.8164997  67.5919988
 135.7260012 111.8104997  67.2579988 135.0250012 113.6064997  66.3549988
 134.5060012 114.5694997  66.5449988 135.9630012 113.7614997  65.7789988
 134.2560012 112.7454997  65.4559988 132.7690012 112.9734997  65.1459988
 132.6300012 114.4484997  64.5469988 133.7070012 114.9534997  63.7829988
 134.4100012 115.3764997  64.5319988 134.2450012 114.2214997  63.1439988
 133.2780012 116.1304997  62.8399988 132.9160012 116.8994997  63.5059988
 134.1660012 116.5134997  62.3589988 132.3430012 115.8794997  61.7769988
 130.9360012 115.6654997  62.2249988 130.7100012 116.4624997  62.9179988
 130.3170012 115.6444997  61.3389988 130.8120012 114.7594997  62.7989988
 132.3490012 117.0704997  60.9109988 131.5250012 116.9994997  60.2169988
 132.2860012 117.9764997  61.4939988 133.2970012 117.1764997  60.4039988
 132.7850012 114.6464997  60.9639988 133.8020012 114.8264997  60.6509988
 132.0870012 114.5604997  60.1439988 132.7290012 113.7464997  61.5599988
 132.4660012 112.0034997  64.1069988 132.0400012 112.8754997  66.4259988
 134.2680012 112.7504997  68.5289988 134.3070012 111.8414997  69.5339988
 135.2190012 111.1094997  69.8269988 133.1050012 112.0304997  70.4019988
 132.9270012 113.0884997  70.6899988 133.1410012 111.4614997  71.3559988
 131.9430012 111.4764997  69.5749988 132.1560012 110.4154997  69.3269988
 131.7170012 111.9554997  68.5979988 130.7130012 111.5114997  70.3269988
 130.9160012 110.9584997  71.2699988 129.9010012 110.9574997  69.8099988
 130.2350012 112.8304997  70.8979988 131.0210012 113.1934997  71.5949988
 129.2710012 112.7504997  71.4459988 130.0960012 113.9184997  69.8379988
 129.4660012 113.5504997  68.9999988 131.0970012 113.9894997  69.3629988
 129.8490012 115.3334997  70.4579988 129.9330012 116.1434997  69.7019988
 130.7410012 115.4824997  71.1049988 128.5950012 115.5074997  71.3179988
 128.5180012 114.7674997  72.1439988 127.7490012 115.2594997  70.6429988
 128.4250012 116.9104997  71.8659988 128.1850012 117.6944997  71.1329988
 128.7720012 117.2664997  73.1169988 128.5820012 118.3384997  73.2719988
 129.3810012 116.3994997  74.2209988 130.2790012 116.9034997  74.6369988
 129.8100012 115.4774997  73.7729988 128.4840012 116.0784997  75.3239988
 127.6450012 115.4754997  74.9169988 128.0900012 116.9504997  75.8879988
 129.0520012 115.0614997  76.3689988 129.6690012 114.2544997  75.9159988
 128.1920012 114.5884997  76.8879988 130.0410012 115.6944997  77.3269988
 129.5310012 116.3924997  78.0249988 130.7870012 116.2754997  76.7429988
 130.8660012 114.7644997  78.2889988 131.6170012 115.2244997  78.9649988
 131.4610012 114.1854997  77.5509988 130.0560012 113.7594997  79.1979988
 129.4470012 113.1384997  78.5069988 129.4760012 114.2534997  80.0059988
 131.0220012 112.9304997  80.0589988 131.7130012 113.6424997  80.5609988
 131.6940012 112.3104997  79.4279988 130.4260012 112.1154997  81.2429988
 131.1270012 111.3154997  81.5639988 129.4420012 111.7104997  80.9229988
 130.4740012 112.6804997  82.1989988 124.1790012 130.2814997  80.9439988
 123.7660012 129.4474997  81.5499988 123.5220012 131.1714997  81.0469988
 125.1930012 130.6134997  81.2549988 124.3460012 129.7744997  79.5239988
 123.3530012 129.6704997  79.0359988 124.8430012 130.5664997  78.9229988
 125.3070012 128.5824997  79.4089988 126.2180012 129.0924997  79.7889988
 124.9930012 127.8284997  80.1629988 125.5880012 128.0394997  78.0309988
 126.1810012 128.7834997  77.4559988 126.0830012 127.0544997  78.1689988
 124.2690012 127.8544997  77.2419988 123.5600012 127.4724997  78.0069988
 123.8370012 128.7684997  76.7789988 124.3260012 126.7474997  76.0899988
 124.6760012 125.7944997  76.5399988 123.2400012 126.7424997  75.8559988
 125.1310012 127.1694997  74.8799988 126.1250012 127.4684997  75.2769988
 125.2430012 126.3714997  74.1149988 124.4960012 128.2814997  74.0329988
 123.5400012 127.8544997  73.6639988 124.2250012 129.1514997  74.6699988
 125.3020012 128.8654997  72.8379988 124.6510012 129.6074997  72.3259988
 126.1390012 129.4314997  73.2999988 125.8450012 127.8074997  71.8719988
 126.5800012 127.2264997  72.4679988 124.9970012 127.1394997  71.6059988
 126.4180012 128.1644997  70.4819988 125.7180012 128.8424997  69.9499988
 127.3940012 128.6844997  70.5969988 126.4490012 126.9084997  69.5709988
 126.9960012 126.1884997  70.2169988 125.4110012 126.5564997  69.3879988
 127.1000012 127.3974997  68.2349988 126.5970012 128.2834997  67.7919988
 128.1360012 127.6924997  68.5089988 127.0480012 126.3384997  67.0429988
 125.9790012 126.1204997  66.8309988 127.4310012 126.8294997  66.1239988
 127.7160012 124.9704997  67.3879988 128.8050012 125.1254997  67.5479988
 127.2380012 124.5224997  68.2859988 127.4850012 124.0524997  66.2999988
 127.1020012 122.8814997  66.4669988 127.7460012 124.5694997  65.1329988
 127.9650012 123.7084997  63.9999988 128.9280012 123.9104997  63.4849988
 128.0170012 122.6414997  64.3029988 126.7090012 123.7534997  63.0919988
 126.9640012 123.0674997  62.2559988 126.3890012 125.1394997  62.5389988
 127.3570012 125.5354997  62.1639988 125.6080012 124.9884997  61.7629988
 125.9370012 126.0804997  63.5369988 125.8970012 127.6304997  63.1529988
 124.4240012 128.0474997  63.2989988 123.3560012 127.9374997  62.3529988
 122.8080012 128.9024997  62.3059988 123.7640012 127.8724997  61.3209988
 122.4790012 126.6694997  62.6029988 121.6880012 126.6444997  61.8679988
 123.0740012 125.8074997  62.3399988 121.9650012 126.4104997  63.9899988
 123.1040012 126.0974997  64.9529988 123.7290012 125.3034997  64.5719988
 123.6640012 127.0204997  64.9099988 122.6740012 125.9074997  65.9249988
 121.2710012 127.6374997  64.5529988 121.0970012 127.4934997  65.6089988
 121.8610012 128.5344997  64.4339988 120.2630012 127.5894997  64.1669988
 121.0750012 125.2234997  63.8909988 120.5830012 125.2684997  64.8509988
 121.6420012 124.3244997  63.6999988 120.2630012 125.3874997  63.1969988
 126.6330012 128.4744997  64.1079988 126.2590012 127.8094997  61.7419988
 125.5630012 123.2804997  63.8379988 124.7170012 122.6324997  63.1559988
 124.6430012 122.6004997  61.9139988 123.7010012 121.9684997  64.1429988
 123.5260012 121.0444997  63.5519988 122.7460012 122.5354997  64.1589988
 124.0990012 121.6344997  65.6249988 125.1110012 121.1904997  65.7399988
 123.3030012 120.9024997  65.8809988 123.9270012 122.8624997  66.5029988
 122.8600012 123.1714997  66.5199988 124.6010012 123.6624997  66.1269988
 124.3820012 122.5314997  67.9869988 125.4930012 122.5474997  68.0209988
 123.9580012 121.5704997  68.3479988 123.8200012 123.5734997  69.0449988
 122.7340012 123.7444997  69.2119988 124.2380012 124.5704997  68.7899988
 124.3810012 123.1684997  70.3709988 125.4800012 123.3094997  70.2829988
 124.0620012 122.1474997  70.6709988 123.9440012 123.9574997  71.5289988
 124.1040012 125.0244997  71.2659988 124.5550012 123.7844997  72.4399988
 122.4460012 123.7744997  71.7729988 121.7730012 124.1144997  70.9719988
 121.9300012 123.1164997  72.8459988 120.8490012 122.9364997  72.9369988
 122.8240012 122.5334997  73.9539988 123.8940012 122.4814997  73.6589988
 122.4620012 121.5054997  74.1709988 122.7230012 123.3884997  75.3249988
 121.6330012 123.2794997  75.5109988 123.0280012 124.4444997  75.1619988
 123.4430012 122.8374997  76.5129988 123.2070012 121.7524997  76.4589988
 123.1680012 123.2264997  77.5169988 124.9980012 122.9844997  76.3989988
 125.3430012 124.0404997  76.4469988 125.3230012 122.5824997  75.4149988
 125.6150012 122.2234997  77.5529988 125.2750012 121.1734997  77.4339988
 125.2240012 122.5784997  78.5309988 127.1730012 122.0994997  77.6249988
 127.5490012 121.6134997  76.6999988 127.4040012 121.4134997  78.4669988
 127.9400012 123.4774997  77.6759988 127.9000012 124.0084997  76.7009988
 128.9810012 123.1304997  77.8489988 127.6280012 124.3984997  78.8199988
 127.7390012 123.8634997  79.7879988 126.5650012 124.7184997  78.8109988
 128.2980012 125.2814997  78.7459988 141.1990012 102.7824997  84.2369988
 141.5550012 101.7484997  84.0419988 140.0920012 102.7474997  84.1469988
 141.7390012 103.2844997  85.0679988 141.6870012 103.6564997  83.0309988
 141.2460012 104.6724997  82.9459988 142.7670012 103.8814997  83.1619988
 141.5160012 102.8744997  81.7179988 142.3710012 102.1664997  81.7729988
 140.5910012 102.2604997  81.6809988 141.6910012 103.6514997  80.4149988
 142.4900012 104.4014997  80.5979988 142.1870012 102.8844997  79.7829988
 140.4870012 104.2104997  79.8649988 139.9100012 103.2894997  79.6369988
 139.9250012 104.7834997  80.6329988 140.5540012 105.1124997  78.6169988
 139.5740012 105.0724997  78.0929988 140.6360012 106.1804997  78.9119988
 141.5930012 104.6794997  77.5949988 141.4660012 105.4184997  76.7759988
 142.6290012 104.9064997  77.9259988 141.4160012 103.2094997  77.0209988
 141.9260012 102.4014997  77.5879988 140.3240012 103.0074997  77.0359988
 141.8500012 103.0034997  75.5589988 142.9580012 103.0484997  75.6299988
 141.5100012 102.0074997  75.2049988 141.2820012 103.9574997  74.4439988
 140.4690012 103.3894997  73.9429988 140.8500012 104.9074997  74.8259988
 142.3720012 104.2204997  73.3759988 142.0290012 104.7874997  72.4849988
 143.2440012 104.7914997  73.7609988 142.9940012 102.9954997  72.6349988
 143.6780012 103.2314997  71.7919988 143.6780012 102.5224997  73.3719988
 141.9550012 102.0524997  72.0159988 141.3620012 101.5804997  72.8289988
 141.2050012 102.6324997  71.4369988 142.4800012 100.9414997  70.9769988
 141.6720012 100.1934997  70.8289988 142.7100012 101.4144997  69.9979988
 143.7880012 100.3554997  71.5159988 144.5540012 101.1344997  71.7229988
 143.6770012  99.7614997  72.4479988 144.3830012  99.2724997  70.4479988
 144.6500012  98.1014997  70.6509988 144.4670012  99.8674997  69.2449988
 144.7150012  99.1014997  68.0999988 145.6520012  99.5144997  67.6679988
 144.8050012  98.0184997  68.3289988 143.5680012  99.2734997  67.0919988
 144.1500012  98.8464997  66.2469988 143.2660012 100.7994997  66.8489988
 143.1490012 101.1384997  67.9009988 144.1350012 101.2834997  66.3539988
 141.9930012 101.0094997  66.2069988 141.7330012 102.3774997  65.4719988
 142.2730012 101.9444997  64.0379988 141.9380012 102.7704997  62.8979988
 141.7340012 103.7984997  63.2669988 142.7940012 102.8674997  62.1959988
 140.6280012 102.2504997  62.2209988 139.8590012 102.3094997  62.9779988
 140.3300012 102.9104997  61.4199988 140.7110012 100.8164997  61.6339988
 140.7110012  99.7194997  62.7429988 141.5170012  99.9424997  63.4259988
 139.8010012  99.4654997  63.2669988 141.0630012  98.8104997  62.2789988
 139.4530012 100.6224997  60.6479988 139.3550012 101.4864997  60.0079988
 139.6840012  99.7634997  60.0359988 138.5530012 100.4324997  61.2139988
 141.8730012 100.6554997  60.7639988 142.7040012 101.0094997  61.3559988
 141.7670012 101.1464997  59.8079988 141.9610012  99.5954997  60.5769988
 140.3320012 102.7424997  65.5049988 142.6000012 103.4184997  66.0499988
 142.4020012  98.5284997  67.5229988 141.7660012  97.9034997  66.5749988
 141.9140012  97.7464997  65.3869988 140.4740012  97.3844997  67.2619988
 140.8060012  96.5854997  67.9589988 139.9300012  96.9164997  66.4139988
 139.8090012  98.5944997  67.9899988 139.5850012  99.2564997  67.1259988
 140.4470012  99.0514997  68.7759988 138.3650012  98.3194997  68.5679988
 138.3760012  97.5004997  69.3179988 137.8710012  97.9114997  67.6599988
 137.6690012  99.5164997  69.2419988 136.5910012  99.3054997  69.4049988
 137.7670012 100.3424997  68.5059988 138.1790012  99.9084997  70.6079988
 138.1830012 101.0054997  70.7799988 139.2150012  99.5144997  70.6929988
 137.3230012  99.2934997  71.8019988 136.5710012  98.5484997  71.4639988
 136.8580012 100.2534997  72.1139988 138.1560012  98.7104997  72.9889988
 137.4290012  98.6654997  73.8269988 138.9200012  99.4784997  73.2369988
 138.7300012  97.3594997  72.6989988 137.9880012  96.6224997  72.3589988
 140.0560012  97.0324997  72.6769988 140.3220012  95.9924997  72.4379988
 141.2420012  97.9074997  73.0639988 141.0220012  98.9554997  72.7659988
 142.1890012  97.5634997  72.5969988 141.4660012  97.6764997  74.5479988
 141.7380012  96.6444997  74.8579988 140.5120012  98.0084997  75.0099988
 142.4670012  98.5734997  75.3309988 142.0260012  99.5564997  75.6049988
 143.3160012  98.8514997  74.6719988 143.0030012  97.8784997  76.6409988
 142.1390012  97.2984997  77.0309988 143.1220012  98.6994997  77.3799988
 144.3370012  97.1464997  76.6789988 145.1710012  97.8714997  76.5619988
 144.4170012  96.4214997  75.8419988 144.3890012  96.2344997  77.8689988
 145.2970012  95.5964997  77.8169988 143.4850012  95.5904997  77.9119988
 144.7240012  97.0354997  79.2479988 143.8720012  97.7394997  79.3599988
 145.7080012  97.5414997  79.1439988 144.9450012  96.1434997  80.4799988
 145.0030012  96.6644997  81.4599988 145.8450012  95.5084997  80.3369988
 144.0330012  95.5094997  80.4939988  44.0330012   5.7474997  80.6009988
  43.5960012   4.7284997  80.5199988  43.5800012   6.6134997  80.0729988
  43.8910012   5.9724997  81.6799988  45.4920012   5.8384997  80.3339988
  45.8870012   6.8434997  80.0729988  46.1030012   5.5434997  81.2139988
  45.8330012   4.8864997  79.1969988  46.9210012   4.9214997  78.9699988
  45.4960012   3.8724997  79.4999988  45.1060012   5.1614997  77.8349988
  44.0710012   5.5504997  77.9469988  45.6350012   6.0214997  77.3729988
  45.1700012   3.9934997  76.8869988  44.7340012   3.0834997  77.3529988
  44.4920012   4.2344997  76.0409988  46.4910012   3.7514997  76.2889988
  47.0300012   4.7224997  76.3149988  47.0910012   3.0524997  76.9099988
  46.4640012   3.3904997  74.7549988  45.6720012   2.6454997  74.5279988
  46.1090012   4.3104997  74.2419988  47.7990012   3.0264997  74.1929988
  48.4810012   3.8874997  74.3549988  48.2390012   2.2324997  74.8329988
  47.7730012   2.6274997  72.6899988  48.7620012   2.1704997  72.4719988
  47.0690012   1.7854997  72.5159988  47.4410012   3.8434997  71.7829988
  46.3410012   3.9864997  71.8459988  47.9580012   4.7334997  72.2009988
  47.9260012   3.7414997  70.3209988  47.7560012   4.7564997  69.9009988
  48.9610012   3.3664997  70.1729988  47.0330012   2.7404997  69.4479988
  46.1300012   2.5204997  70.0579988  46.6370012   3.2934997  68.5699988
  47.7300012   1.4004997  69.0109988  48.5170012   1.8094997  68.3419988
  48.2290012   1.0504997  69.9399988  46.8770012   0.2954997  68.4139988
  47.4690012  -0.6335003  68.2659988  46.0650012   0.0174997  69.1189988
  46.1010012   0.7974997  67.1859988  45.4620012   1.5934997  67.6249988
  46.7420012   1.2514997  66.4009988  45.3830012  -0.4665003  66.5629988
  45.3870012  -1.6195003  66.9979988  44.5910012  -0.0055003  65.6239988
  43.8330012  -0.9425003  64.8889988  44.4780012  -1.7995003  64.5989988
  43.0760012  -1.5145003  65.4669988  43.1100012  -0.3345003  63.6649988
  42.5410012  -1.1175003  63.1179988  44.1110012   0.2764997  62.5809988
  44.8960012  -0.4715003  62.3399988  43.5280012   0.3414997  61.6369988
  44.7530012   1.4814997  62.9549988  45.8800012   1.9974997  61.9079988
  46.6060012   3.0834997  62.7869988  46.6890012   2.9304997  64.2259988
  46.8270012   1.8824997  64.5689988  47.5970012   3.5104997  64.4949988
  45.5120012   3.5284997  65.0749988  44.5990012   2.9764997  64.9059988
  45.8510012   3.5294997  66.0999988  45.0320012   4.9944997  64.7489988
  44.2720012   5.1754997  63.4519988  43.2520012   4.8314997  63.5379988
  44.2640012   6.2334997  63.2339988  44.8160012   4.6834997  62.6589988
  44.2670012   5.4544997  65.9269988  44.9140012   5.4434997  66.7909988
  43.8700012   6.4414997  65.7369988  43.4720012   4.7454997  66.1049988
  46.2420012   5.8924997  64.8239988  46.9630012   5.9504997  64.0219988
  46.8040012   5.7374997  65.7329988  45.8300012   6.8884997  64.8909988
  46.7690012   0.8464997  61.5809988  45.2870012   2.6494997  60.6979988
  42.1590012   0.6684997  64.1559988  41.1860012   1.1214997  63.3339988
  40.8910012   0.7364997  62.2219988  40.3980012   2.3204997  64.0899988
  39.4560012   2.0354997  64.6069988  40.0410012   2.9234997  63.2279988
  41.3100012   3.2174997  64.8879988  41.0230012   4.2364997  64.5509988
  42.3770012   3.1904997  64.5799988  41.1350012   3.1394997  66.4059988
  40.0810012   2.9354997  66.6919988  41.4030012   4.1614997  66.7489988
  42.0150012   2.1774997  67.1429988  42.9500012   2.7034997  67.4309988
  42.1950012   1.2734997  66.5229988  41.4910012   1.4874997  68.4309988
  42.2700012   0.8024997  68.8269988  40.7380012   0.7454997  68.0869988
  40.9800012   2.3304997  69.6569988  40.4600012   1.6814997  70.3929988
  40.1970012   2.9084997  69.1219988  42.0120012   3.3434997  70.2569988
  41.5060012   4.0874997  70.9079988  42.3990012   3.9154997  69.3869988
  43.2290012   2.6984997  70.8999988  43.9980012   2.6294997  70.1159988
  43.4860012   2.2554997  72.0909988  44.4130012   1.6964997  72.2859988
  42.4600012   2.2774997  73.2749988  41.5640012   2.8414997  72.9389988
  42.9560012   2.6554997  74.1949988  42.0170012   0.8854997  73.7159988
  41.6340012   0.3204997  72.8389988  41.1960012   0.9024997  74.4639988
  43.2730012   0.0814997  74.2389988  44.0710012   0.0554997  73.4669988
  42.9010012  -0.9575003  74.3699988  43.7800012   0.4414997  75.6319988
  42.8770012   0.3704997  76.2749988  44.2290012   1.4574997  75.6439988
  44.9630012  -0.3865003  76.1739988  45.9410012  -0.3125003  75.6539988
  44.5730012  -1.4035003  75.9569988  45.4140012  -0.1645003  77.6779988
  44.7270012  -0.5755003  78.4469988  45.5290012   0.9134997  77.9219988
  46.9040012  -0.7475003  78.0139988  47.5940012  -0.3385003  77.2459988
  46.7650012  -1.8485003  77.9589988  47.4230012  -0.5365003  79.4619988
  47.5380012   0.5454997  79.6829988  48.3760012  -1.0605003  79.6909988
  46.7520012  -0.9045003  80.2679988  34.7760012   9.7314997  81.7029988
  34.5310012   9.9334997  82.7679988  35.8100012  10.1354997  81.6539988
  34.6940012   8.6354997  81.5409988  33.7860012  10.4304997  80.8259988
  33.9290012  10.0644997  79.7869988  32.7950012  10.0234997  81.1219988
  33.7600012  12.0114997  80.8489988  33.5150012  12.4534997  81.8379988
  34.7880012  12.3064997  80.5449988  32.8330012  12.7224997  79.8249988
  32.9070012  13.8124997  80.0289988  33.2510012  12.5144997  78.8169988
  31.4190012  12.1924997  79.9339988  31.4590012  11.0874997  79.8209988
  31.0310012  12.3954997  80.9549988  30.4400012  12.7114997  78.8299988
  29.5450012  12.0684997  78.9669988  30.3760012  13.8074997  78.9999988
  30.8810012  12.3824997  77.3889988  31.7340012  13.0324997  77.0999988
  31.2840012  11.3494997  77.3119988  29.7190012  12.4274997  76.4119988
  28.9590012  11.6654997  76.6889988  29.1390012  13.3734997  76.4669988
  30.1620012  12.4194997  74.8649988  30.7720012  13.3174997  74.6309988
  30.8140012  11.5224997  74.7959988  29.0190012  12.3474997  73.8719988
  28.3190012  11.5434997  74.1829988  28.5310012  13.3454997  73.8889988
  29.2780012  12.0944997  72.3539988  29.8560012  11.1644997  72.1659988
  28.2620012  11.8454997  71.9799988  29.8900012  13.4254997  71.7899988
  29.3850012  14.2864997  72.2779988  30.9630012  13.5514997  72.0479988
  29.7850012  13.4364997  70.2269988  28.7280012  13.5804997  69.9189988
  30.3590012  14.3414997  69.9349988  30.4370012  12.1974997  69.4999988
  31.0080012  11.6414997  70.2739988  29.6620012  11.6674997  68.9059988
  31.4880012  12.6094997  68.4499988  30.9300012  13.0334997  67.5879988
  32.1030012  13.4224997  68.8919988  32.2770012  11.3664997  67.9819988
  32.3120012  10.3734997  68.6919988  33.0040012  11.6294997  66.9269988
  33.9470012  10.7014997  66.4859988  34.9150012  11.2344997  66.3739988
  34.0970012   9.8854997  67.2259988  33.4060012  10.0554997  65.1769988
  34.1430012   9.3794997  64.6929988  33.0390012  11.0914997  64.0369988
  32.3150012  11.8384997  64.4279988  33.9360012  11.6944997  63.7839988
  32.7120012  10.4994997  62.8649988  31.5140012  10.8564997  61.9179988
  30.2690012  11.0144997  62.8819988  29.4720012   9.9134997  63.3239988
  28.7470012   9.4514997  62.6199988  30.1010012   9.0004997  63.3859988
  28.9340012  10.2514997  64.7989988  28.5320012   9.3184997  65.1659988
  29.8400012  10.6034997  65.2699988  27.8700012  11.3024997  64.9639988
  28.4430012  12.6814997  64.7339988  29.3490012  12.7964997  65.3099988
  28.7680012  12.8204997  63.7129988  27.6930012  13.4214997  64.9739988
  26.7780012  10.9914997  63.9299988  27.0990012  10.9684997  62.8989988
  26.3980012  10.0134997  64.1829988  26.0250012  11.7544997  64.0679988
  27.4020012  11.2144997  66.4269988  26.5770012  11.9034997  66.5299988
  28.2760012  11.5364997  66.9749988  27.1450012  10.2054997  66.7139988
  31.7220012  12.1204997  61.2879988  31.2400012   9.7004997  61.0499988
  32.2430012   9.3074997  65.4989988  32.3280012   8.1704997  66.2509988
  33.3120012   7.6804997  66.7799988  30.9290012   7.6184997  66.5199988
  30.6500012   7.0424997  65.6119988  30.2240012   8.4584997  66.6979988
  30.9690012   6.6104997  67.6809988  31.9120012   6.0324997  67.7839988
  30.0810012   5.9484997  67.7689988  31.0370012   7.3034997  69.0739988
  30.0500012   7.7394997  69.3409988  31.7510012   8.1344997  68.8919988
  31.4220012   6.4004997  70.2369988  32.3400012   5.9494997  69.8019988
  30.6020012   5.6864997  70.4649988  31.8180012   7.1914997  71.5279988
  32.6010012   7.9144997  71.2139988  32.2830012   6.4574997  72.2209988
  30.8680012   8.1084997  72.2199988  30.3430012   8.7154997  71.4509988
  31.4260012   8.8434997  72.8389988  29.6980012   7.5194997  72.9959988
  29.0540012   7.0174997  72.2419988  29.0760012   8.3774997  73.3309988
  30.0730012   6.4704997  73.9609988  30.9970012   5.9084997  73.7579988
  29.4530012   6.2474997  75.1209988  29.8170012   5.4334997  75.7649988
  28.2240012   7.0954997  75.6539988  27.5100012   6.4804997  76.2419988
  27.5560012   7.4224997  74.8289988  28.6370012   8.4134997  76.3389988
  27.7230012   9.0284997  76.4859988  29.3310012   9.0264997  75.7259988
  29.1560012   8.3404997  77.7739988  29.4030012   9.4104997  77.9429988
  30.1390012   7.8264997  77.8429988  28.1820012   7.7544997  78.7639988
  27.9600012   6.7094997  78.4589988  27.1370012   8.1304997  78.8109988
  28.7170012   7.5464997  80.1599988  29.7230012   7.0924997  80.0289988
  27.9120012   6.9444997  80.6309988  28.7920012   8.8344997  80.9759988
  27.9110012   9.4994997  81.1039988  29.6160012   9.4204997  80.5149988
  29.3870012   8.5944997  82.3659988  30.4210012   8.1904997  82.4129988
  28.7320012   7.8564997  82.8759988  29.3670012   9.8694997  83.2649988
  29.9540012   9.5764997  84.1619988  28.3210012  10.2014997  83.4339988
  29.8170012  10.7124997  82.6979988 100.4990012  -0.9275003  83.6109988
 101.5030012  -0.9225003  83.1339988  99.8400012  -1.6125003  83.0349988
 100.5920012  -1.3155003  84.6469988 100.0830012   0.5414997  83.5689988
  99.0180012   0.5444997  83.8849988 100.8040012   1.0304997  84.2579988
 100.1690012   1.1294997  82.1519988 100.0850012   2.2374997  82.1899988
 101.2260012   0.8554997  81.9439988  99.2310012   0.3544997  81.1999988
  99.5740012  -0.6995003  81.1149988  98.1620012   0.1494997  81.4199988
  99.1600012   0.9924997  79.7439988  98.9490012   2.0814997  79.8129988
 100.2400012   0.9134997  79.4969988  98.3050012   0.1454997  78.7289988
  98.5030012  -0.9395003  78.8609988  97.2440012   0.3424997  78.9939988
  98.5150012   0.5274997  77.2169988  97.7170012  -0.0185003  76.6699988
  98.1460012   1.5654997  77.0709988  99.9170012   0.3244997  76.6039988
 100.6970012   0.9344997  77.1079988  99.9880012  -0.7725003  76.7669988
  99.9900012   0.6524997  75.1789988  99.0830012   0.3744997  74.6009988
  99.9830012   1.7634997  75.1439988 101.2420012   0.2274997  74.4379988
 102.1400012   0.5284997  75.0199988 101.3220012  -0.8685003  74.2779988
 101.4730012   0.8664997  73.0479988 101.4570012   1.9744997  73.1149988
 102.4180012   0.4984997  72.5939988 100.4240012   0.4194997  72.0139988
 100.5330012  -0.6865003  72.0139988  99.4070012   0.8244997  72.2029988
 100.7920012   0.8624997  70.5649988 100.7470012   1.9724997  70.6069988
 101.8430012   0.6234997  70.2939988  99.7610012   0.3004997  69.5939988
  99.6310012  -0.7685003  69.8699988  98.7990012   0.8454997  69.6959988
 100.2790012   0.2614997  68.1159988 100.2970012   1.2294997  67.5699988
 101.3120012  -0.1465003  68.1009988  99.2820012  -0.6925003  67.3329988
  99.5580012  -1.6705003  66.6869988  98.0210012  -0.1165003  67.4669988
  96.8410012  -0.7395003  66.9399988  96.9520012  -1.8295003  66.7589988
  96.0590012  -0.5885003  67.7149988  96.5630012  -0.1005003  65.5539988
  95.6140012  -0.5615003  65.2059988  97.6200012  -0.3765003  64.5349988
  98.5960012   0.0824997  64.8009988  97.7020012  -1.4615003  64.3109988
  97.2490012   0.2354997  63.2789988  98.3600012   0.6424997  62.1969988
  98.9870012   1.9404997  62.7099988  98.1050012   3.0124997  62.9409988
  98.3590012   3.8334997  62.2359988  97.0290012   2.7494997  63.0309988
  98.2960012   3.5764997  64.3949988  97.5530012   4.3534997  64.5029988
  98.0310012   2.7364997  65.0199988  99.6510012   4.1504997  64.7499988
 100.1140012   5.1964997  63.7459988 100.3130012   4.7274997  62.7929988
  99.3550012   5.9644997  63.7149988 100.9760012   5.7074997  64.1479988
  99.5510012   4.7824997  66.1479988  99.1640012   4.1034997  66.8929988
 100.3950012   5.3874997  66.4439988  98.7590012   5.5104997  66.0449988
 100.6640012   3.0364997  64.8449988 101.1620012   2.9844997  63.8879988
 100.3870012   2.0194997  65.0799988 101.4170012   3.1404997  65.6119988
  99.4180012  -0.3485003  62.2589988  97.6130012   0.8174997  60.9119988
  96.4880012   1.3474997  65.6359988  95.8180012   1.8664997  66.5489988
  94.7880012   1.4414997  67.0689988  96.3860012   3.2164997  66.8509988
  96.2230012   3.9724997  66.0529988  97.4830012   3.1294997  66.9979988
  95.8340012   3.7824997  68.1459988  94.7590012   4.0484997  68.0569988
  96.2990012   4.7844997  68.2639988  96.2170012   2.7894997  69.3159988
  97.3280012   2.7764997  69.3239988  95.5690012   1.8874997  69.3229988
  95.7460012   3.3294997  70.6949988  94.7220012   3.7384997  70.5569988
  96.3810012   4.2344997  70.8059988  96.0590012   2.3994997  71.8579988
  97.0590012   1.9294997  71.7359988  95.2830012   1.6284997  71.6679988
  96.0770012   3.2104997  73.2049988  95.0440012   3.5594997  73.4149988
  96.8390012   4.0174997  73.1499988  96.4380012   2.2854997  74.4189988
  96.2730012   2.9114997  75.3219988  97.5300012   2.0854997  74.4639988
  95.8500012   0.9044997  74.6659988  96.2790012   0.0614997  74.1029988
  94.8320012   0.5834997  75.5309988  94.7070012  -0.4965003  75.6999988
  94.1380012   1.5564997  76.3899988  93.1440012   1.6414997  75.9009988
  94.5410012   2.5914997  76.3869988  94.0340012   1.0744997  77.8779988
  94.9680012   0.5214997  78.1109988  93.1060012   0.4644997  77.9129988
  93.9540012   2.1924997  78.9689988  93.7490012   1.5614997  79.8589988
  93.0900012   2.8844997  78.8719988  95.2530012   2.9244997  79.1519988
  95.5370012   3.5054997  78.2489988  96.1220012   2.2414997  79.2589988
  95.2290012   3.9524997  80.3809988  94.4360012   3.6214997  81.0849988
  94.7700012   4.8764997  79.9689988  96.6710012   4.1974997  80.9509988
  96.7660012   5.2094997  81.3999988  97.4640012   4.1324997  80.1759988
  96.9530012   3.1854997  82.0399988  98.0140012   2.9774997  82.2959988
  96.5620012   2.2264997  81.6389988  96.2830012   3.3124997  83.4349988
  96.8210012   4.1254997  83.9669988  96.4480012   2.3564997  83.9769988
  95.1790012   3.4304997  83.3959988  31.6900012 138.0644997  83.5939988
  31.7760012 137.2574997  84.3529988  31.2870012 139.0264997  83.9769988
  32.7400012 138.1934997  83.2539988  30.8390012 137.4584997  82.4649988
  31.3260012 136.5084997  82.1569988  29.8430012 137.2534997  82.9119988
  30.7510012 138.4384997  81.2749988  30.1610012 139.3114997  81.6259988
  31.7390012 138.8024997  80.9189988  30.0900012 137.9224997  80.0239988
  30.5820012 136.9684997  79.7379988  28.9980012 137.7944997  80.1859988
  30.2810012 138.8514997  78.8309988  30.1460012 139.8954997  79.1869988
  31.2550012 138.6344997  78.3419988  29.1650012 138.7414997  77.7749988
  28.2350012 138.9684997  78.3369988  29.3800012 139.4304997  76.9309988
  28.8530012 137.3754997  77.1039988  29.6950012 136.9044997  76.5539988
  28.4920012 136.7294997  77.9339988  27.9340012 137.5024997  75.8309988
  27.8430012 136.4774997  75.4119988  26.8910012 137.7894997  76.0839988
  28.4460012 138.4324997  74.6779988  28.3880012 139.4964997  74.9909988
  29.5130012 138.1344997  74.5919988  27.6700012 138.2564997  73.3819988
  27.8330012 137.1874997  73.1249988  26.6520012 138.4744997  73.7689988
  28.1310012 139.2014997  72.2629988  27.6560012 139.0204997  71.2749988
  27.8150012 140.2104997  72.6019988  29.6470012 139.2314997  72.1779988
  30.1560012 139.6234997  73.0839988  29.9790012 138.1764997  72.0699988
  30.1550012 139.8454997  70.9159988  29.3860012 139.6954997  70.1279988
  30.1750012 140.9554997  70.9609988  31.5290012 139.3884997  70.4679988
  32.2100012 139.6624997  71.3019988  31.4600012 138.2824997  70.5409988
  31.9320012 139.8094997  69.0129988  31.1770012 139.5364997  68.2449988
  32.1800012 140.8924997  69.0269988  33.3180012 139.2644997  68.6559988
  34.1440012 138.9904997  69.5579988  33.4340012 139.0474997  67.3959988
  34.7330012 138.5734997  66.9129988  35.1020012 139.3514997  66.2119988
  35.4860012 138.4184997  67.7159988  34.4930012 137.2914997  66.0529988
  35.4960012 136.8844997  65.8029988  33.8390012 137.5504997  64.7119988
  32.8390012 137.9384997  65.0019988  34.4810012 138.2254997  64.1059988
  33.9210012 136.3054997  63.9789988  32.5370012 135.6284997  63.4279988
  31.7470012 137.0144997  62.9519988  30.3670012 137.0954997  63.3179988
  29.7980012 136.3294997  62.7469988  30.3080012 136.8474997  64.3999988
  29.8220012 138.5074997  62.9929988  29.7990012 138.6104997  61.9179988
  28.7680012 138.5844997  63.2179988  30.4530012 139.7634997  63.5319988
  30.6250012 139.5504997  65.0169988  31.3480012 140.2894997  65.3289988
  29.7170012 139.7514997  65.5649988  31.0760012 138.5854997  65.1949988
  31.8980012 139.8674997  62.9129988  32.4370012 138.9514997  63.1029988
  31.8450012 139.8384997  61.8339988  32.4310012 140.7124997  63.3229988
  29.6640012 141.0254997  63.2879988  29.9700012 141.8744997  63.8809988
  28.6240012 140.8934997  63.5469988  29.7200012 141.3374997  62.2549988
  32.8880012 134.9154997  62.2039988  31.8740012 134.9414997  64.5579988
  33.6310012 136.4054997  66.8089988  34.1020012 136.0084997  68.0059988
  35.2790012 135.9844997  68.3739988  32.8700012 135.5134997  68.8599988
  32.6170012 134.4554997  68.6339988  31.9140012 136.0454997  68.6649988
  33.2030012 135.6064997  70.3959988  33.7830012 136.5404997  70.5609988
  33.8400012 134.7354997  70.6589988  31.9340012 135.4694997  71.2819988
  31.2390012 134.6604997  70.9719988  31.3730012 136.3944997  71.0319988
  32.2260012 135.4624997  72.8309988  32.8780012 134.6154997  73.1359988
  31.2070012 135.3514997  73.2589988  32.7800012 136.7244997  73.3549988
  32.2890012 137.5534997  72.8009988  33.8040012 136.6564997  72.9299988
  32.6400012 136.8994997  74.8829988  32.9760012 135.9124997  75.2689988
  31.6270012 137.1994997  75.2289988  33.5010012 138.0544997  75.2889988
  33.4080012 138.2834997  76.3729988  33.0480012 138.9674997  74.8479988
  34.9510012 137.9274997  74.7849988  35.1450012 138.1354997  73.7219988
  35.9960012 137.6344997  75.6489988  36.8940012 137.2014997  75.1839988
  35.9770012 137.4654997  77.2119988  36.4890012 136.5224997  77.4999988
  34.9360012 137.4344997  77.5989988  36.6610012 138.6454997  77.9259988
  36.3150012 139.5674997  77.4119988  37.7660012 138.5514997  77.8569988
  36.3910012 138.6704997  79.4669988  36.8290012 137.6984997  79.7799988
  35.2850012 138.7574997  79.5259988  37.1480012 139.7814997  80.2629988
  37.0680012 140.7924997  79.8099988  38.1790012 139.3804997  80.3719988
  36.6740012 139.9704997  81.7179988  35.6590012 140.4124997  81.6179988
  37.2730012 140.7924997  82.1649988  36.5170012 138.7184997  82.5769988
  35.9330012 137.9574997  82.0159988  36.0940012 138.9214997  83.5839988
  37.8110012 137.9394997  82.8969988  38.5310012 138.4494997  83.5719988
  38.3740012 137.5784997  82.0099988  37.5650012 136.6784997  83.6459988
  37.0000012 136.9944997  84.5489988  38.4500012 136.1354997  84.0419988
  36.9460012 136.0014997  83.0189988 125.2360012  16.9294997  80.9109988
 125.2430012  16.2074997  81.7549988 124.1850012  16.8064997  80.5739988
 125.5700012  17.8974997  81.3419988 126.1690012  16.5664997  79.7379988
 127.2290012  16.8014997  79.9729988 126.2500012  15.5004997  79.4369988
 125.6770012  17.2254997  78.4899988 124.6650012  16.7904997  78.3499988
 125.5700012  18.2514997  78.9029988 126.5920012  17.1834997  77.2319988
 126.1140012  17.6764997  76.3589988 127.5680012  17.7064997  77.3229988
 126.8360012  15.7004997  76.7209988 127.2980012  15.1364997  77.5589988
 125.8970012  15.1504997  76.5009988 127.8890012  15.5164997  75.5849988
 127.8610012  14.4514997  75.2699988 127.5040012  16.1214997  74.7359988
 129.3290012  15.9404997  75.9269988 129.2430012  16.9644997  76.3489988
 129.8910012  15.3304997  76.6659988 130.3660012  15.9724997  74.7739988
 130.2560012  16.9764997  74.3119988 131.4190012  16.0004997  75.1279988
 130.3780012  14.9264997  73.6909988 129.4000012  14.8394997  73.1719988
 131.0050012  15.2164997  72.8199988 131.0920012  13.5244997  74.0429988
 132.1200012  13.7034997  74.4239988 130.5850012  12.9794997  74.8669988
 131.0440012  12.5344997  72.8149988 131.5470012  13.0214997  71.9519988
 131.6570012  11.6094997  72.8749988 129.7080012  12.1144997  72.2049988
 129.2890012  11.2954997  72.8289988 128.9350012  12.8814997  72.4249988
 129.8910012  11.7904997  70.7549988 130.2730012  12.7004997  70.2449988
 130.6870012  11.0204997  70.8339988 128.5460012  11.2794997  70.1189988
 128.1020012  10.5454997  70.8249988 127.7630012  12.0634997  70.0429988
 128.6940012  10.4374997  68.8279988 129.2380012  11.0214997  68.0549988
 129.3060012   9.5204997  68.9589988 127.3260012   9.9404997  68.3099988
 126.5710012   9.2564997  68.9839988 127.1010012  10.4064997  67.1829988
 125.8950012  10.2494997  66.5349988 126.1780012   9.6374997  65.6519988
 125.1510012   9.6314997  67.0809988 125.1780012  11.6594997  66.1469988
 124.1790012  11.3674997  65.7579988 125.9140012  12.4264997  65.0079988
 126.0270012  11.6134997  64.2599988 125.3090012  13.0744997  64.3379988
 127.1400012  12.9484997  65.5049988 128.4330012  13.1544997  64.6809988
 127.8860012  14.2304997  63.5679988 127.4030012  15.4514997  64.0489988
 126.4020012  15.2494997  64.4859988 128.1040012  15.9344997  64.7629988
 127.0480012  16.3094997  62.8719988 126.4720012  15.7634997  62.1389988
 126.3910012  17.1144997  63.1659988 128.1670012  17.0574997  62.1739988
 129.2080012  16.1054997  61.4829988 130.0320012  16.6804997  61.0869988
 129.6530012  15.4514997  62.2189988 128.7140012  15.5764997  60.6819988
 127.4440012  17.9074997  61.1229988 128.0750012  18.4524997  60.4369988
 126.6650012  17.2304997  60.8059988 127.0710012  18.7314997  61.7129988
 128.8690012  17.9264997  63.1849988 129.5320012  18.6114997  62.6789988
 129.4400012  17.2804997  63.8349988 128.0370012  18.4644997  63.6139988
 129.4750012  13.6864997  65.6179988 128.7090012  11.9334997  63.9219988
 125.1230012  12.5094997  67.3989988 124.2920012  13.5174997  67.3359988
 123.5900012  13.8174997  66.4079988 124.2600012  14.1584997  68.7079988
 124.7360012  13.4424997  69.4119988 123.2470012  14.4154997  69.0849988
 125.2220012  15.3374997  68.6519988 124.8230012  16.1764997  68.0419988
 126.1960012  15.1524997  68.1499988 125.5640012  15.9404997  70.0419988
 124.5790012  16.2214997  70.4729988 126.2920012  16.7424997  69.7929988
 126.2320012  14.9214997  71.0159988 127.3350012  15.0574997  71.0269988
 126.0690012  13.8764997  70.6749988 125.8820012  15.0094997  72.5109988
 125.8580012  16.1064997  72.6799988 126.7310012  14.6024997  73.1009988
 124.5570012  14.3024997  73.0489988 123.7170012  14.7754997  72.4969988
 124.3550012  14.6404997  74.0879988 124.5510012  12.7704997  72.9219988
 125.5960012  12.4494997  72.7229988 123.9590012  12.4634997  72.0339988
 124.0990012  12.0914997  74.2019988 123.0190012  12.2044997  74.3769988
 124.8890012  11.6794997  75.2149988 124.4290012  11.4964997  76.1969988
 126.4260012  11.7454997  75.3229988 126.7350012  12.5524997  76.0209988
 126.9750012  11.9014997  74.3699988 126.9890012  10.4094997  75.8159988
 126.7340012   9.6134997  75.0839988 126.5540012  10.2234997  76.8209988
 128.5140012  10.4274997  76.0049988 128.9550012  10.9894997  75.1539988
 129.0290012   9.4444997  76.0599988 128.9390012  11.1924997  77.3649988
 128.2280012  10.8304997  78.1389988 128.6100012  12.2484997  77.2569988
 130.3590012  11.1074997  77.8599988 131.0090012  10.9764997  76.9679988
 130.4120012  10.2564997  78.5719988 130.9330012  12.2794997  78.6459988
 130.8120012  13.2184997  78.0649988 132.0000012  12.1174997  78.9119988
 130.3410012  12.4644997  80.0509988 129.2650012  12.7074997  79.9179988
 130.8370012  13.3574997  80.4879988 130.3850012  11.3074997  81.0389988
 130.0620012  11.6704997  82.0379988 131.3550012  10.7734997  81.1309988
 129.5730012  10.5814997  80.8179988  51.0950012 146.1904997  80.7179988
  51.3490012 146.6664997  79.7469988  51.6280012 146.6834997  81.5579988
  50.0460012 146.4444997  80.9789988  51.2940012 144.6904997  80.6359988
  52.3430012 144.3774997  80.8229988  50.8190012 144.2214997  81.5249988
  50.7950012 144.0394997  79.2979988  49.7520012 144.3754997  79.1159988
  51.4350012 144.3964997  78.4629988  50.7790012 142.4804997  79.2789988
  50.0000012 142.2364997  80.0329988  50.4960012 142.1654997  78.2519988
  52.1700012 141.8534997  79.6209988  52.6150012 142.3854997  80.4879988
  52.1120012 140.7874997  79.9299988  53.1210012 141.9484997  78.4859988
  53.0680012 142.9264997  77.9609988  54.1330012 141.8424997  78.9319988
  52.9580012 140.7994997  77.3979988  53.0930012 139.8054997  77.8759988
  51.9120012 140.8214997  77.0259988  53.7480012 141.1474997  76.1489988
  53.8090012 140.3024997  75.4319988  53.2010012 141.9254997  75.5739988
  55.2210012 141.5254997  76.4609988  55.2880012 142.5694997  76.8369988
  55.4790012 140.8504997  77.3049988  56.2220012 141.1384997  75.2969988
  57.2530012 141.2694997  75.6909988  56.1040012 140.1274997  74.8499988
  56.1560012 142.0744997  74.0389988  55.2680012 142.7384997  74.0979988
  57.1020012 142.6574997  74.0409988  56.1340012 141.3184997  72.6839988
  57.0130012 140.6394997  72.7159988  55.2120012 140.7134997  72.8129988
  55.9920012 142.1454997  71.3559988  55.4070012 141.6244997  70.5689988
  55.5010012 143.0704997  71.7279988  57.4410012 142.5994997  70.8749988
  57.9390012 143.2644997  71.6129988  58.0030012 141.6494997  70.7449988
  57.4930012 143.3484997  69.5609988  56.9330012 144.2654997  69.8399988
  58.4980012 143.7284997  69.2779988  56.7040012 142.5444997  68.5549988
  57.0970012 141.5404997  68.0289988  55.4590012 143.1004997  68.4039988
  54.7520012 142.5224997  67.2599988  55.3580012 142.6294997  66.3349988
  54.6550012 141.4334997  67.4549988  53.3670012 143.1784997  67.2749988
  52.9320012 143.0224997  68.2849988  52.4900012 142.4514997  66.1809988
  52.5640012 141.3474997  66.2809988  51.4270012 142.6684997  66.4219988
  52.8080012 142.7664997  64.8429988  51.6540012 143.0844997  63.7549988
  52.5700012 144.0254997  62.7749988  53.0340012 145.2414997  63.2889988
  53.2320012 145.8694997  62.3939988  52.2360012 145.6314997  63.9559988
  54.4040012 145.2134997  64.0099988  54.5740012 146.1854997  64.4469988
  54.2910012 144.5604997  64.8619988  55.6650012 144.7414997  63.2589988
  55.4850012 143.2714997  63.0769988  54.6650012 143.0124997  62.4239988
  56.3670012 142.7954997  62.6759988  55.2540012 142.7364997  63.9859988
  55.8680012 145.3954997  61.9569988  56.7780012 144.9564997  61.5759988
  55.0700012 145.1344997  61.2779988  56.0140012 146.4494997  62.1439988
  56.9430012 144.9294997  64.0239988  56.9270012 145.9144997  64.4669988
  57.8830012 144.8504997  63.4989988  57.0180012 144.2034997  64.8199988
  51.4420012 141.8294997  62.9779988  50.3950012 143.7814997  64.2139988
  53.4750012 144.5854997  66.9029988  52.3130012 145.3444997  67.1419988
  51.3160012 144.8764997  67.6619988  52.3920012 146.8474997  66.7059988
  51.5670012 147.0534997  65.9909988  53.4090012 147.0744997  66.3219988
  51.9720012 147.7534997  67.8509988  50.8920012 147.5484997  68.0119988
  52.0450012 148.8214997  67.5559988  52.5840012 147.4994997  69.2749988
  52.3230012 146.5194997  69.7289988  52.2260012 148.3004997  69.9559988
  54.1580012 147.4824997  69.4069988  54.6370012 148.3774997  68.9549988
  54.6290012 146.6784997  68.8029988  54.6520012 147.3704997  70.8259988
  54.2750012 146.4064997  71.2289988  54.1820012 148.1784997  71.4289988
  56.1470012 147.4594997  70.8399988  56.4090012 148.4814997  70.4899988
  56.6440012 146.7834997  70.1119988  56.8930012 147.3424997  72.2429988
  56.5990012 148.2904997  72.7429988  57.9850012 147.2834997  72.0449988
  56.4700012 146.0134997  72.9629988  56.9850012 145.0984997  72.6359988
  55.5850012 145.9484997  73.9829988  55.5050012 145.0134997  74.5569988
  54.8470012 147.1154997  74.6039988  54.1180012 147.5734997  73.9009988
  55.6030012 147.9124997  74.7729988  54.1710012 146.7354997  75.9489988
  53.6930012 145.7404997  75.8179988  53.2520012 147.3284997  76.1409988
  55.0870012 146.7414997  77.2319988  55.5330012 147.7594997  77.2299988
  55.9420012 146.0394997  77.1289988  54.2690012 146.4764997  78.5029988
  53.8140012 145.4634997  78.4569988  53.5490012 147.3134997  78.6239988
  55.0230012 146.5944997  79.8889988  54.2300012 146.3334997  80.6219988
  55.2690012 147.6734997  79.9899988  56.1910012 145.5864997  79.8909988
  56.9480012 145.7944997  79.1049988  55.6680012 144.6344997  79.6559988
  56.9310012 145.4824997  81.2219988  56.2360012 145.2894997  82.0659988
  57.4790012 146.3814997  81.5759988  57.9000012 144.2624997  81.1789988
  58.5390012 144.2914997  82.0869988  58.4350012 144.3324997  80.2079988
  57.4100012 143.2654997  81.1889988 122.5490012   9.3374997  83.3149988
 121.5270012   9.6344997  83.6329988 123.1040012  10.1564997  82.8089988
 123.1170012   9.0314997  84.2189988 122.5320012   8.1724997  82.3539988
 122.1300012   7.2684997  82.8609988 121.8570012   8.3694997  81.4939988
 123.8430012   7.6744997  81.8059988 124.5250012   7.5094997  82.6669988
 123.6500012   6.6814997  81.3449988 124.4280012   8.6484997  80.7549988
 124.3900012   9.7144997  81.0659988 125.4630012   8.4014997  80.4349988
 123.6760012   8.5004997  79.3919988 123.5170012   7.4134997  79.2319988
 122.6790012   8.9904997  79.4049988 124.4610012   9.0504997  78.2479988
 124.9150012  10.0144997  78.5599988 125.2770012   8.3334997  78.0129988
 123.6690012   9.1554997  76.8729988 122.8610012   9.8924997  77.0639988
 124.3080012   9.6714997  76.1239988 123.1350012   7.8514997  76.2669988
 124.0040012   7.4684997  75.6909988 122.8670012   7.2004997  77.1269988
 121.8710012   8.0144997  75.4339988 121.2650012   7.1104997  75.6579988
 121.3050012   8.9144997  75.7559988 122.0990012   8.0264997  73.9579988
 121.1900012   8.3874997  73.4319988 122.9980012   8.6334997  73.7169988
 122.2560012   6.5474997  73.5479988 123.2100012   6.1774997  73.9809988
 121.3750012   5.9274997  73.8189988 122.3440012   6.4014997  72.0099988
 123.1680012   7.0754997  71.6899988 122.7220012   5.3804997  71.7879988
 121.1270012   6.7294997  71.2299988 120.2650012   6.0584997  71.4329988
 120.8320012   7.7864997  71.4049988 121.4010012   6.5354997  69.7009988
 121.5780012   7.5124997  69.2029988 122.3600012   5.9754997  69.7319988
 120.2250012   5.8674997  68.9979988 120.0010012   4.9364997  69.5599988
 119.3460012   6.5474997  68.9639988 120.4690012   5.3834997  67.5519988
 121.6080012   5.3614997  67.0929988 119.3360012   5.1854997  66.9839988
 119.3520012   4.9374997  65.5669988 120.3990012   5.0654997  65.2169988
 118.9810012   3.9124997  65.3539988 118.4340012   5.9264997  64.8729988
 117.3560012   5.6654997  64.9469988 118.7370012   5.9534997  63.3439988
 118.6650012   4.8974997  63.0049988 117.7730012   6.3464997  62.9569988
 119.9610012   6.5294997  62.9919988 120.1540012   7.9524997  62.2699988
 121.2620012   8.6554997  63.1819988 121.6040012   9.9524997  62.7019988
 122.4930012   9.9754997  62.0359988 120.8200012  10.4994997  62.1359988
 121.7180012  10.9414997  63.8839988 121.7830012  11.9454997  63.4929988
 120.8450012  10.9024997  64.5189988 122.9940012  10.7764997  64.7149988
 122.8470012   9.4054997  65.3869988 122.0640012   9.5004997  66.1239988
 122.6570012   8.6324997  64.6569988 123.8240012   9.1624997  65.7789988
 124.2700012  10.7544997  63.9179988 124.0860012  10.0294997  63.1389988
 124.5850012  11.6384997  63.3839988 125.0540012  10.4394997  64.5899988
 123.0830012  11.9884997  65.6899988 122.2580012  11.9464997  66.3859988
 123.0480012  12.8894997  65.0959988 124.0380012  11.9934997  66.1959988
 120.6840012   7.8064997  60.8859988 118.8970012   8.7154997  62.5559988
 118.6470012   7.2434997  65.4019988 117.7850012   7.8314997  66.2239988
 116.7520012   7.3144997  66.7349988 118.1990012   9.3294997  66.5009988
 117.8510012   9.9954997  65.6819988 119.2980012   9.4804997  66.4409988
 117.5850012   9.8794997  67.7529988 116.5000012   9.6934997  67.6049988
 117.9490012  10.9144997  67.9239988 118.1620012   9.2374997  68.9639988
 119.2670012   9.2454997  69.0809988 117.8320012   8.1884997  69.1239988
 117.5590012   9.9954997  70.1239988 116.4940012  10.1884997  69.8759988
 117.9420012  11.0354997  70.1959988 117.7380012   9.4504997  71.5569988
 117.5570012  10.3434997  72.1919988 118.8310012   9.2654997  71.6339988
 116.7710012   8.3194997  71.9109988 116.8920012   7.4534997  71.2249988
 115.7280012   8.6164997  71.6719988 116.9220012   7.8674997  73.3939988
 116.0520012   7.2304997  73.6619988 116.8890012   8.8524997  73.9069988
 118.1770012   7.1954997  73.9379988 119.1360012   7.5014997  73.4949988
 118.2920012   6.2894997  74.8619988 119.3340012   5.9584997  74.9819988
 117.2440012   5.5604997  75.6919988 117.2090012   4.5074997  75.3399988
 116.2980012   6.1284997  75.8249988 117.7340012   5.4584997  77.1129988
 118.7320012   4.9704997  77.0779988 117.1240012   4.7254997  77.6829988
 117.8880012   6.8054997  77.8579988 116.9140012   7.3204997  78.0039988
 118.5530012   7.4944997  77.2939988 118.6490012   6.7094997  79.1699988
 119.5940012   6.2334997  78.8299988 118.1580012   5.9234997  79.7829988
 118.9460012   7.9264997  79.9159988 119.5610012   7.6024997  80.7819988
 118.0260012   8.3274997  80.3929988 119.7400012   8.9934997  79.0729988
 119.1230012   9.3514997  78.2209988 120.7570012   8.6504997  78.7859988
 120.1160012  10.3634997  79.8249988 120.6170012  11.1194997  79.1839988
 120.9090012  10.0724997  80.5469988 119.1160012  11.1184997  80.7139988
 118.3250012  11.6974997  80.1889988 119.5790012  11.7954997  81.4629988
 118.5180012  10.3484997  81.2449988   0.9250012 115.9194997  81.4779988
   1.4370012 115.1914997  82.1419988  -0.0039988 115.3424997  81.2849988
   0.8530012 116.9024997  81.9909988   1.7890012 115.9944997  80.1719988
   1.3680012 116.8844997  79.6569988   2.8380012 116.1984997  80.4769988
   1.7670012 114.7564997  79.2599988   1.9340012 113.8904997  79.9349988
   0.8160012 114.5854997  78.7109988   2.9610012 114.7614997  78.3699988
   3.9260012 114.8524997  78.9129988   2.7780012 113.8674997  77.7359988
   3.0120012 115.9314997  77.3229988   2.0580012 115.8424997  76.7609988
   3.1400012 116.8834997  77.8809988   4.1920012 115.8794997  76.3639988
   5.0450012 115.9424997  77.0739988   4.1690012 114.8934997  75.8519988
   4.0770012 116.9944997  75.3039988   2.9820012 117.0004997  75.1179988
   4.2650012 117.9364997  75.8619988   5.0660012 116.7274997  74.0739988
   6.1040012 116.6444997  74.4619988   4.8170012 115.7354997  73.6419988
   5.1610012 117.8514997  73.0619988   5.9590012 118.5014997  73.4809988
   5.4730012 117.4294997  72.0829988   3.8570012 118.7024997  72.7679988
   3.0790012 118.0744997  72.2839988   3.5320012 119.0304997  73.7789988
   4.0760012 119.8874997  71.8109988   3.0920012 120.3974997  71.7379988
   4.7710012 120.5654997  72.3509988   4.6690012 119.5364997  70.4699988
   4.9370012 120.4424997  69.8849988   5.5580012 118.8864997  70.6139988
   3.7780012 118.7484997  69.5899988   3.4870012 117.8014997  70.0929988
   2.8740012 119.3694997  69.4139988   4.3800012 118.2884997  68.1849988
   3.6350012 118.0704997  67.3909988   4.9910012 119.1294997  67.7939988
   5.1820012 116.9724997  68.4379988   5.8710012 117.3064997  69.2429988
   4.4980012 116.1694997  68.7869988   5.9600012 116.5034997  67.2509988
   6.2750012 117.2114997  66.2979988   6.3300012 115.2454997  67.4229988
   7.1310012 114.7744997  66.3079988   7.4300012 115.5374997  65.5589988
   8.1270012 114.4844997  66.7049988   6.3130012 113.6374997  65.5319988
   6.9700012 113.2724997  64.7139988   5.0460012 114.2234997  64.8559988
   5.4300012 115.1884997  64.4619988   4.6830012 113.6054997  64.0079988
   4.0830012 114.5824997  65.7479988   2.5340012 114.8814997  65.2209988
   2.5680012 115.8994997  64.0309988   3.1120012 117.2384997  64.1869988
   2.5070012 117.7114997  64.9899988   4.2150012 117.2154997  64.3189988
   3.0260012 118.1394997  62.9499988   2.0210012 118.5064997  62.8069988
   3.6330012 119.0164997  63.1189988   3.3600012 117.5464997  61.5879988
   4.7220012 116.8764997  61.5649988   5.4730012 117.6034997  61.8379988
   4.6330012 115.9654997  62.1379988   4.9260012 116.4714997  60.5849988
   2.4020012 116.4204997  61.2069988   2.6500012 116.0644997  60.2179988
   2.6260012 115.5734997  61.8379988   1.3550012 116.6734997  61.2939988
   3.3820012 118.6704997  60.5679988   3.7610012 118.3044997  59.6239988
   3.8080012 119.5834997  60.9559988   2.3770012 119.0254997  60.3979988
   1.9740012 113.6314997  64.6669988   1.9100012 115.4424997  66.4489988
   5.9590012 112.6254997  66.5029988   5.0350012 111.7064997  66.1409988
   4.9480012 111.1944997  65.0379988   4.2690012 111.3714997  67.3769988
   4.8380012 110.5814997  67.9109988   3.3440012 110.8354997  67.0749988
   3.9960012 112.6094997  68.2979988   3.2720012 113.3294997  67.8609988
   4.8390012 113.3064997  68.4899988   3.5380012 112.3404997  69.7329988
   2.6160012 111.7204997  69.6989988   3.1850012 113.2874997  70.1929988
   4.5360012 111.6454997  70.6319988   4.7990012 110.6944997  70.1199988
   4.0800012 111.4134997  71.6179988   5.8970012 112.4134997  70.8139988
   5.6860012 113.4824997  71.0349988   6.4150012 112.2874997  69.8399988
   6.7990012 111.6964997  71.7869988   7.8270012 111.8474997  71.3939988
   6.5420012 110.6154997  71.7729988   6.8200012 112.1164997  73.2459988
   7.4890012 113.0004997  73.1709988   7.4750012 111.3584997  73.7259988
   5.5630012 112.3364997  74.0649988   4.6650012 112.6264997  73.4989988
   5.3720012 112.1034997  75.3959988   4.3930012 112.2864997  75.8629988
   6.4940012 111.5604997  76.2869988   7.3730012 111.2434997  75.6859988
   6.1280012 110.6884997  76.8689988   6.9880012 112.6154997  77.2629988
   6.0540012 112.9424997  77.7689988   7.4480012 113.4924997  76.7589988
   7.8460012 111.9664997  78.4099988   8.8180012 111.6374997  77.9849988
   7.3090012 111.0904997  78.8329988   8.2300012 112.8124997  79.7069988
   8.6760012 113.7414997  79.2919988   8.9620012 112.1624997  80.2329988
   7.0860012 113.1374997  80.7179988   6.6470012 112.1484997  80.9729988
   6.2950012 113.7614997  80.2499988   7.6410012 113.6794997  82.0629988
   8.3600012 112.9164997  82.4309988   6.7900012 113.6954997  82.7769988
   8.1810012 115.0964997  81.9169988   9.1030012 115.1354997  81.2989988
   8.4940012 115.4594997  82.9189988   7.1620012 116.1384997  81.4969988
   6.2180012 115.9834997  82.0619988   7.0440012 115.9924997  80.4019988
   7.4920012 117.1754997  81.7209988 137.3050012  22.1764997  85.0429988
 138.3610012  22.0884997  84.7099988 137.1670012  21.7484997  86.0579988
 137.0870012  23.2654997  85.0749988 136.4960012  21.4334997  84.0159988
 137.0100012  21.7554997  83.0859988 136.7090012  20.3464997  84.1049988
 135.0010012  21.6294997  84.0349988 134.4580012  21.0714997  84.8279988
 134.7820012  22.6794997  84.3249988 134.3980012  21.2624997  82.7059988
 135.0910012  21.7774997  82.0069988 134.6090012  20.1844997  82.5429988
 132.9680012  21.7344997  82.5009988 132.3960012  21.2334997  83.3099988
 132.8690012  22.8314997  82.6519988 132.3210012  21.3384997  81.0809988
 132.5920012  20.3054997  80.7739988 131.2230012  21.3974997  81.2369988
 132.7230012  22.3704997  79.9549988 132.4170012  23.3924997  80.2649988
 133.8190012  22.2294997  80.0689988 132.2570012  22.0424997  78.5429988
 132.4650012  20.9654997  78.3649988 131.1540012  22.1524997  78.4649988
 132.8890012  22.7034997  77.3509988 132.3540012  22.4794997  76.4039988
 132.9510012  23.8094997  77.4319988 134.4170012  22.3244997  77.1689988
 135.0440012  22.4894997  78.0709988 134.4970012  21.2384997  76.9509988
 135.1860012  23.0114997  76.0149988 134.5200012  23.2834997  75.1679988
 135.6780012  23.9294997  76.4019988 136.3400012  22.1864997  75.3689988
 137.0170012  21.7464997  76.1319988 136.1300012  21.3424997  74.6779988
 137.1640012  23.2344997  74.5249988 137.2560012  24.1774997  75.1059988
 138.1900012  22.8524997  74.3349988 136.6120012  23.6554997  73.1479988
 135.5130012  23.7834997  73.2499988 137.0240012  24.6534997  72.8879988
 136.9950012  22.6774997  72.0379988 138.0950012  22.5394997  72.1159988
 136.4610012  21.7534997  72.3479988 136.5060012  23.1544997  70.6959988
 135.3570012  23.2794997  70.2949988 137.5360012  23.1054997  69.8769988
 137.4350012  22.9784997  68.4369988 136.5920012  23.5544997  67.9979988
 138.4040012  23.2644997  67.9749988 137.2000012  21.4894997  68.0409988
 137.9800012  20.7734997  68.3749988 137.3010012  21.3714997  66.4489988
 138.3740012  21.2324997  66.1949988 136.8630012  20.3694997  66.2569988
 136.5790012  22.3844997  65.6799988 135.0570012  22.1914997  65.2219988
 135.2890012  21.0304997  64.1279988 134.6520012  19.7754997  64.1829988
 134.7970012  19.2304997  65.1399988 133.5600012  19.9664997  64.1219988
 135.3330012  18.9374997  63.1289988 136.4030012  19.0534997  63.2229988
 135.2100012  17.8784997  63.2959988 134.9500012  19.2024997  61.6719988
 135.2390012  20.5694997  61.1009988 135.0040012  20.5634997  60.0469988
 134.6780012  21.3144997  61.6459988 136.2840012  20.8334997  61.1719988
 135.7530012  18.2714997  60.7979988 136.7720012  18.2414997  61.1549988
 135.4610012  17.2354997  60.8869988 135.6650012  18.5704997  59.7639988
 133.4530012  18.8634997  61.4739988 133.1870012  17.8574997  61.7629988
 133.1590012  19.0084997  60.4449988 132.8720012  19.4984997  62.1269988
 134.1120012  21.6824997  66.2919988 134.6910012  23.4414997  64.5029988
 135.8430012  21.1854997  68.5379988 135.6830012  19.8384997  68.9439988
 136.5100012  19.0074997  69.0789988 134.2070012  19.6614997  69.2249988
 133.8440012  19.0464997  68.3739988 133.6490012  20.6224997  69.2369988
 133.9570012  18.8314997  70.5029988 134.5510012  17.8994997  70.6179988
 132.9270012  18.4154997  70.5279988 134.0260012  19.7344997  71.8049988
 133.6560012  20.7004997  71.3999988 135.1090012  19.7104997  72.0549988
 133.2120012  19.1414997  72.9369988 133.7290012  18.1914997  73.1919988
 132.2170012  18.8714997  72.5239988 133.2260012  20.1624997  74.1379988
 132.8980012  21.1554997  73.7629988 134.2490012  20.4454997  74.4659988
 132.4110012  19.6734997  75.3129988 131.3460012  19.7794997  75.0139988
 132.6350012  20.3794997  76.1409988 132.7650012  18.1764997  75.7449988
 133.8710012  18.1944997  75.8489988 132.5020012  17.4934997  74.9089988
 132.0050012  17.6844997  76.9419988 130.9580012  17.3624997  76.8409988
 132.5450012  17.7574997  78.1559988 131.9500012  17.3464997  78.9849988
 133.9100012  18.2254997  78.6199988 133.5960012  18.7154997  79.5659988
 134.1790012  19.0254997  77.8969988 135.1040012  17.2134997  78.8709988
 134.8360012  16.2124997  78.4709988 135.2050012  16.9524997  79.9459988
 136.5130012  17.7344997  78.2699988 136.3770012  18.0434997  77.2119988
 137.1920012  16.8824997  78.4889988 136.9380012  19.0264997  78.9339988
 136.9700012  18.9074997  80.0379988 136.2450012  19.7794997  78.5009988
 138.3030012  19.5814997  78.4039988 138.2190012  19.4164997  77.3079988
 139.1440012  19.0064997  78.8469988 138.5570012  21.0264997  78.5799988
 137.8050012  21.5474997  77.9499988 139.5390012  21.2994997  78.1379988
 138.5030012  21.5664997  80.0499988 137.4500012  21.4834997  80.3929988
 138.6870012  22.6614997  80.0699988 139.2990012  20.7474997  81.0539988
 139.1500012  19.6554997  80.9099988 139.0370012  21.0154997  82.0999988
 140.3580012  21.0464997  80.8989988  22.3640012  17.6284997  79.7669988
  21.7600012  18.4224997  80.2559988  23.2110012  18.0254997  79.1669988
  22.6600012  17.0104997  80.6419988  21.4960012  16.7974997  78.7849988
  20.6530012  16.3234997  79.3319988  20.9080012  17.4294997  78.0849988
  22.1520012  15.7594997  77.9249988  22.4260012  14.9214997  78.6009988
  21.5410012  15.4054997  77.0669988  23.3960012  16.3054997  77.1779988
  24.2350012  16.6334997  77.8279988  23.8020012  15.4874997  76.5439988
  23.1390012  17.5034997  76.2179988  23.0620012  18.4684997  76.7639988
  24.0750012  17.5624997  75.6229988  22.0310012  17.3074997  75.2499988
  21.8680012  16.2184997  75.1039988  21.1000012  17.7594997  75.6549988
  22.2560012  17.9294997  73.8979988  22.7200012  18.9274997  74.0489988
  23.0270012  17.3244997  73.3749988  21.1270012  17.9624997  72.9099988
  20.8830012  16.8804997  72.8479988  20.2730012  18.4004997  73.4699988
  21.2770012  18.6294997  71.5139988  21.6440012  19.6674997  71.6679988
  22.0930012  18.1014997  70.9749988  19.9520012  18.5504997  70.7199988
  19.1700012  18.8804997  71.4379988  19.9470012  19.3014997  69.9019988
  19.5850012  17.1904997  70.0659988  20.3660012  16.8924997  69.3349988
  19.5850012  16.4094997  70.8559988  18.1740012  17.2664997  69.4089988
  17.6360012  16.2964997  69.4599988  17.5820012  17.9324997  70.0729988
  18.2990012  17.8244997  68.0409988  17.2220012  17.9874997  67.8239988
  18.7850012  18.8134997  67.9009988  18.9330012  16.8044997  66.9949988
  20.0170012  16.8724997  67.2309988  18.5760012  15.7834997  67.2529988
  18.4760012  17.0834997  65.5829988  18.8650012  16.2604997  64.9459988
  17.3690012  17.0084997  65.5229988  18.8200012  18.4744997  65.0969988
  18.0480012  19.3264997  64.7449988  20.1700012  18.6304997  65.1999988
  20.6530012  19.9834997  65.1399988  20.3640012  20.6134997  64.2719988
  20.3410012  20.4764997  66.0859988  22.2380012  19.8114997  65.1869988
  22.5360012  20.8754997  65.3029988  22.7890012  19.1614997  63.9089988
  22.2190012  19.6024997  63.0639988  23.8650012  19.4384997  63.9219988
  22.7320012  17.7254997  63.9529988  21.9840012  16.8864997  62.8619988
  21.4840012  15.4984997  63.5449988  22.2900012  14.9544997  64.5999988
  23.3370012  14.8954997  64.2329988  22.2110012  15.5984997  65.5019988
  21.6980012  13.5004997  65.0239988  22.4280012  12.8894997  65.5329988
  20.8650012  13.7264997  65.6729988  21.2170012  12.5944997  63.8129988
  22.1600012  12.5274997  62.6789988  21.7790012  11.7294997  62.0579988
  22.1260012  13.4574997  62.1309988  23.1430012  12.1824997  62.9639988
  21.1180012  11.1914997  64.3309988  20.9580012  10.5084997  63.5099988
  22.0320012  10.8284997  64.7789988  20.2890012  11.2014997  65.0229988
  19.8250012  12.9544997  63.2069988  19.0170012  12.6554997  63.8579988
  19.8080012  12.4154997  62.2709988  19.7640012  14.0094997  62.9849988
  20.8190012  17.6544997  62.3979988  22.8910012  16.5364997  61.7689988
  22.6490012  19.0044997  66.3029988  23.9580012  18.9304997  66.6089988
  24.8290012  19.6074997  66.1149988  24.1070012  17.8844997  67.7549988
  24.7710012  17.0854997  67.3619988  23.1470012  17.3514997  67.9259988
  24.8270012  18.5074997  68.9989988  24.0990012  19.1444997  69.5459988
  25.6500012  19.1934997  68.7029988  25.4540012  17.3594997  69.8039988
  26.1410012  17.8324997  70.5379988  26.1670012  16.7374997  69.2209988
  24.4130012  16.4104997  70.4539988  23.7330012  16.0204997  69.6669988
  23.9320012  16.9844997  71.2749988  25.0390012  15.1314997  71.0959988
  25.6080012  15.4974997  71.9769988  25.7290012  14.7514997  70.3119988
  24.0060012  14.0244997  71.4909988  24.6470012  13.1174997  71.5109988
  23.1600012  13.8994997  70.7809988  23.4650012  14.1184997  72.9199988
  22.7080012  14.9314997  72.9039988  24.3870012  14.4434997  73.4479988
  22.9310012  12.8584997  73.6129988  21.8530012  12.7134997  73.4499988
  23.5730012  11.8904997  74.3539988  22.9450012  11.1434997  74.8639988
  25.0420012  11.8914997  74.7079988  25.5520012  12.7824997  74.2829988
  25.4310012  10.9874997  74.1929988  25.1810012  11.8014997  76.2539988
  26.2170012  11.8634997  76.6499988  24.8220012  10.7844997  76.5219988
  24.3750012  12.8604997  76.9549988  23.3190012  12.8534997  76.6089988
  24.8790012  13.8164997  76.6969988  24.3950012  12.7884997  78.5069988
  24.3940012  13.7684997  79.0309988  25.2330012  12.1844997  78.9149988
  23.2030012  12.0344997  79.0029988  23.0920012  10.9764997  78.6809988
  22.2920012  12.3064997  78.4279988  22.9960012  11.9514997  80.5809988
  23.9750012  11.5914997  80.9629988  22.2790012  11.1054997  80.6469988
  22.5420012  13.2164997  81.2469988  21.7830012  13.6344997  80.5509988
  23.4240012  13.8894997  81.3059988  21.9110012  13.0624997  82.6309988
  21.2740012  12.1534997  82.5779988  21.2880012  13.9494997  82.8739988
  22.7500012  12.8844997  83.3369988  39.2580012 144.8344997  81.9359988
  39.4150012 145.6994997  81.2569988  40.2150012 144.5364997  82.4149988
  38.4900012 144.9904997  82.7229988  38.8370012 143.6884997  80.9859988
  39.6630012 143.6174997  80.2469988  38.7300012 142.7914997  81.6329988
  37.5560012 144.0724997  80.1449988  36.7970012 144.4364997  80.8699988
  37.7980012 145.0224997  79.6229988  37.2220012 142.9204997  79.1389988
  38.1310012 142.7344997  78.5279988  36.9690012 142.0094997  79.7229988
  36.1980012 143.4574997  78.1289988  35.1690012 143.6654997  78.4919988
  36.6530012 144.4204997  77.8159988  36.0450012 142.5794997  76.8859988
  35.4270012 143.1074997  76.1289988  37.0510012 142.4664997  76.4269988
  35.5580012 141.1404997  77.1739988  36.3530012 140.6094997  77.7399988
  34.6160012 141.1224997  77.7619988  35.2960012 140.3334997  75.9229988
  34.7930012 139.4454997  76.3609988  34.6040012 140.9614997  75.3219988
  36.5440012 140.2114997  75.0369988  36.8060012 141.2464997  74.7309988
  37.3580012 139.7794997  75.6579988  36.4230012 139.2684997  73.7989988
  36.3760012 138.2474997  74.2339988  35.4810012 139.4354997  73.2339988
  37.5840012 139.4044997  72.8419988  37.5180012 140.3014997  72.1899988
  38.4930012 139.5684997  73.4579988  37.7720012 138.1934997  71.9529988
  37.6400012 137.3094997  72.6129988  36.9510012 138.1954997  71.2029988
  39.2270012 138.3074997  71.4169988  39.3380012 139.1114997  70.6589988
  39.9600012 138.6024997  72.1979988  39.6530012 136.9734997  70.6739988
  40.7410012 136.8344997  70.8529988  39.1580012 136.0594997  71.0669988
  39.4290012 137.1144997  69.1379988  39.9930012 137.9634997  68.6959988
  39.8620012 136.1624997  68.7639988  37.9350012 137.0154997  68.7109988
  36.9550012 136.5814997  69.3649988  37.8690012 137.5784997  67.5239988
  36.6190012 137.8114997  66.8449988  36.6230012 137.1784997  65.9309988
  35.7680012 137.4854997  67.4799988  36.4370012 139.2644997  66.4159988
  35.4440012 139.1804997  65.9259988  37.3920012 139.6354997  65.2879988
  37.5600012 138.7414997  64.6509988  36.9260012 140.4814997  64.7389988
  38.6960012 140.0304997  65.8059988  39.7910012 140.6164997  64.9019988
  38.9470012 141.5334997  63.9059988  39.6170012 142.2084997  62.8689988
  40.2430012 143.0044997  63.3239988  40.3280012 141.5124997  62.3729988
  38.5560012 142.6374997  61.8519988  39.1240012 143.1104997  61.0639988
  38.0960012 141.7804997  61.3819988  37.4680012 143.6274997  62.2439988
  36.6490012 143.0244997  63.2859988  37.2660012 143.1424997  64.1649988
  35.6940012 143.4564997  63.5479988  36.3940012 141.9824997  63.1609988
  38.1540012 144.9744997  62.5219988  38.8550012 144.8424997  63.3339988
  38.6550012 145.2124997  61.5949988  37.4430012 145.7514997  62.7599988
  36.6690012 143.7504997  60.8999988  37.3020012 143.4084997  60.0949988
  36.6390012 144.7994997  60.6459988  35.7380012 143.2024997  60.9049988
  40.6010012 141.5654997  65.6929988  40.4620012 139.5004997  64.2009988
  36.5590012 140.0394997  67.6569988  36.1400012 141.3264997  67.5409988
  35.6290012 141.8144997  66.5779988  36.4780012 142.1304997  68.8539988
  36.9100012 141.4154997  69.5849988  35.6010012 142.6294997  69.3209988
  37.4210012 143.3194997  68.5269988  37.4330012 143.9034997  69.4719988
  37.0920012 144.0324997  67.7409988  38.8640012 142.9734997  68.2149988
  39.4120012 143.8354997  67.7789988  38.9470012 142.0884997  67.5479988
  39.6630012 142.6664997  69.5229988  39.0600012 141.9564997  70.1299988
  39.7350012 143.6454997  70.0439988  41.0980012 142.2934997  69.4459988
  41.7430012 142.7284997  68.6529988  41.1940012 141.2464997  69.0879988
  41.9940012 142.3744997  70.7749988  41.9970012 143.3814997  71.2429988
  43.0750012 142.2154997  70.5739988  41.5920012 141.2064997  71.7879988
  41.5700012 140.2454997  71.2309988  40.5150012 141.4254997  71.9489988
  42.5490012 141.3724997  72.9999988  43.6190012 141.4054997  72.7469988
  42.2590012 141.8004997  74.2649988  43.0840012 141.8704997  74.9889988
  40.8520012 142.2424997  74.6769988  40.1770012 142.4134997  73.8119988
  40.8720012 143.2264997  75.1909988  40.1690012 141.1214997  75.5399988
  40.0090012 140.2104997  74.9249988  39.1830012 141.4114997  75.9609988
  40.9240012 140.5894997  76.6479988  41.1190012 141.4034997  77.3789988
  41.8910012 140.2054997  76.2579988  40.4550012 139.3514997  77.3809988
  41.2230012 138.9214997  78.0579988  40.1670012 138.5834997  76.6299988
  39.0920012 139.4414997  78.1519988  38.2850012 139.1584997  77.4419988
  38.8600012 140.4914997  78.4329988  38.9310012 138.4914997  79.3579988
  38.9760012 137.4724997  78.9189988  37.9270012 138.6224997  79.8139988
  40.0050012 138.6104997  80.4989988  40.9220012 138.1064997  80.1249988
  39.5940012 138.0224997  81.3469988  40.2700012 140.0104997  80.8999988
  40.6020012 140.7124997  80.1059988  40.9840012 140.0194997  81.7509988
  39.2950012 140.3504997  81.3099988   3.0710012  33.3084997  82.2149988
   1.9670012  33.1864997  82.2009988   3.3010012  33.9874997  81.3669988
   3.3350012  33.8484997  83.1489988   3.7670012  31.9474997  82.1139988
   4.8660012  32.0724997  82.0149988   3.5650012  31.4414997  83.0819988
   3.4670012  31.1144997  80.8659988   4.0920012  30.2024997  80.9719988
   2.3930012  30.8564997  80.9809988   3.6580012  31.7864997  79.4949988
   3.0930012  32.7424997  79.5069988   4.7610012  31.9194997  79.5229988
   3.1500012  30.9444997  78.3189988   3.4870012  29.9004997  78.4959988
   2.0430012  30.9954997  78.3889988   3.6300012  31.4804997  77.0349988
   4.6810012  31.1924997  76.8189988   3.0380012  31.0364997  76.2059988
   3.6770012  33.0174997  76.8209988   2.6550012  33.4114997  77.0069988
   4.3650012  33.3274997  77.6359988   4.1670012  33.5174997  75.5089988
   3.4280012  33.2194997  74.7339988   4.2280012  34.6254997  75.5539988
   5.6040012  33.1174997  75.0699988   6.2650012  33.3484997  75.9319988
   5.5450012  32.0084997  75.0229988   6.2130012  33.8014997  73.7469988
   6.2360012  34.9074997  73.8479988   7.2890012  33.5294997  73.7879988
   5.5710012  33.5954997  72.3849988   5.7130012  32.5194997  72.1459988
   4.4840012  33.8174997  72.4359988   6.2820012  34.3054997  71.2099988
   6.3840012  35.3704997  71.5099988   7.3030012  33.8784997  71.1109988
   5.5710012  34.2414997  69.8669988   5.3350012  33.1574997  69.8069988
   4.5630012  34.6954997  69.9789988   6.4260012  34.6814997  68.6699988
   5.8060012  34.7894997  67.7549988   6.8030012  35.6384997  69.0899988
   7.7580012  33.9904997  68.3579988   8.4410012  34.1364997  69.2219988
   7.4930012  32.9484997  68.0779988   8.4260012  34.6004997  67.1379988
   8.2520012  35.7284997  66.7749988   9.1600012  33.6404997  66.5429988
   9.6400012  33.9724997  65.2209988   9.6210012  35.0374997  64.9039988
  10.7300012  33.8614997  65.4019988   9.2370012  33.0384997  64.0879988
   9.7700012  33.3744997  63.1729988   7.6800012  33.2414997  63.8429988
   7.5630012  34.3124997  63.5709988   7.4460012  32.6884997  62.9079988
   6.8720012  32.8904997  64.9359988   5.2620012  32.6834997  64.8419988
   5.1580012  31.4904997  63.9469988   4.5890012  31.4324997  62.6029988
   3.8170012  32.2254997  62.5129988   5.2820012  31.8254997  61.8289988
   3.8920012  30.1514997  62.3119988   3.0930012  30.0774997  63.0349988
   3.4760012  30.3884997  61.3439988   4.6520012  28.8204997  62.3059988
   5.0060012  28.3794997  63.7069988   4.1820012  28.2054997  64.3829988
   5.6370012  27.5214997  63.5259988   5.7140012  29.1024997  64.0829988
   3.7700012  27.8024997  61.6749988   4.1930012  26.8234997  61.8449988
   2.8490012  27.6794997  62.2259988   3.6440012  28.0184997  60.6249988
   5.7750012  28.9404997  61.4339988   6.4240012  28.0814997  61.5169988
   6.5270012  29.6744997  61.6859988   5.4110012  29.0144997  60.4199988
   4.7370012  32.3874997  66.1809988   4.5590012  33.8814997  64.2369988
   9.5380012  31.6504997  64.3959988   9.5010012  30.8084997  63.3939988
   9.4090012  31.0794997  62.2019988   9.2930012  29.4214997  63.9619988
  10.1820012  29.1024997  64.5469988   9.0710012  28.7104997  63.1379988
   8.0470012  29.4024997  64.9179988   7.5970012  28.3934997  64.7989988
   7.3410012  30.1394997  64.4789988   8.4080012  29.5994997  66.3749988
   7.5690012  29.9254997  67.0259988   9.1960012  30.3814997  66.4189988
   8.9480012  28.2174997  66.9329988   9.9990012  28.5144997  67.1389988
   8.9930012  27.4734997  66.1099988   8.4780012  27.6704997  68.2429988
   8.6640012  26.5854997  68.0979988   7.3920012  27.8834997  68.3429988
   9.2150012  28.1374997  69.4509988  10.3220012  28.0914997  69.3689988
   8.8740012  27.3994997  70.2079988   8.7080012  29.4714997  69.8569988
   8.6370012  30.1864997  69.0099988   9.4350012  29.8454997  70.6089988
   7.3080012  29.5054997  70.5379988   6.5120012  29.3934997  69.7869988
   7.0560012  29.7944997  71.8259988   5.9950012  29.8044997  72.1189988
   7.9830012  30.1564997  72.9489988   7.7170012  31.0324997  73.5779988
   9.0440012  30.2424997  72.6299988   8.1390012  28.9954997  74.0279988
   8.6340012  28.1494997  73.5049988   7.1090012  28.7064997  74.3269988
   8.8530012  29.4124997  75.3469988   9.8750012  29.8164997  75.1809988
   8.9760012  28.4634997  75.9109988   8.0900012  30.4584997  76.1509988
   7.0320012  30.1734997  76.3369988   8.1050012  31.3824997  75.5349988
   8.8140012  30.7884997  77.4909988   9.8370012  30.3574997  77.5449988
   8.2810012  30.2124997  78.2779988   8.9370012  32.3024997  77.8329988
   9.0680012  32.9004997  76.9059988   9.8130012  32.3884997  78.5109988
   7.6630012  32.7084997  78.5379988   6.8450012  32.0864997  78.1149988
   7.4100012  33.7764997  78.3679988   7.7720012  32.4554997  80.0419988
   8.2110012  31.4614997  80.2709988   6.7450012  32.3734997  80.4569988
   8.4570012  33.1274997  80.6009988 115.2520012   0.2284997  84.7089988
 116.0580012  -0.3785003  85.1739988 114.3320012  -0.3935003  84.6919988
 115.0610012   1.1034997  85.3659988 115.6670012   0.6424997  83.2739988
 116.6350012   1.1894997  83.2849988 116.0190012  -0.2825003  82.7699988
 114.6120012   1.3824997  82.3759988 113.7840012   0.6604997  82.2059988
 114.1970012   2.2844997  82.8749988 115.0270012   1.8514997  81.0159988
 115.3970012   0.9424997  80.4939988 114.1390012   2.2334997  80.4679988
 116.1230012   2.8254997  81.0029988 115.7830012   3.6624997  81.6489988
 117.0260012   2.4094997  81.4979988 116.5210012   3.4334997  79.6129988
 115.6320012   3.9004997  79.1359988 117.2870012   4.1584997  79.9619988
 117.2270012   2.4954997  78.6619988 117.9940012   3.0514997  78.0809988
 117.8000012   1.7514997  79.2559988 116.4190012   1.6054997  77.6789988
 117.0900012   0.9804997  77.0509988 115.8230012   0.8744997  78.2659988
 115.4120012   2.3314997  76.7269988 114.7380012   1.5434997  76.3299988
 114.8280012   3.1484997  77.2029988 116.2410012   2.9364997  75.5239988
 115.5530012   3.5324997  74.8879988 117.0430012   3.5674997  75.9649988
 117.0190012   1.8954997  74.6509988 118.1030012   1.9654997  74.8839988
 116.6960012   0.8804997  74.9679988 116.6650012   2.1274997  73.1479988
 116.8240012   1.1614997  72.6239988 115.5680012   2.2734997  73.0479988
 117.4460012   3.3254997  72.5439988 117.4690012   4.1194997  73.3209988
 118.5320012   3.0934997  72.5419988 117.1330012   3.7554997  71.1129988
 116.0900012   4.1324997  71.0449988 117.6770012   4.6914997  70.8629988
 117.4490012   2.5964997  70.1629988 118.5420012   2.4364997  70.0379988
 117.0600012   1.6514997  70.5989988 116.8980012   2.7344997  68.7689988
 116.0440012   3.5784997  68.4579988 117.3820012   1.7824997  68.0339988
 117.2470012   1.6654997  66.6259988 116.7290012   2.5534997  66.2049988
 118.2690012   1.7284997  66.1959988 116.3740012   0.4384997  66.2489988
 116.9490012  -0.4355003  66.6229988 115.9510012   0.3994997  64.7119988
 116.9410012   0.6174997  64.2569988 115.6510012  -0.5775003  64.2749988
 115.0020012   1.3954997  64.3649988 115.1310012   2.4574997  63.2149988
 114.0340012   3.5544997  63.5559988 114.0150012   4.3534997  64.7059988
 112.9920012   4.4454997  65.1309988 114.6300012   3.8374997  65.4739988
 114.6000012   5.7204997  64.3839988 114.7230012   6.2404997  65.3229988
 115.5920012   5.5704997  63.9859988 113.7820012   6.6054997  63.4379988
 113.7120012   6.1204997  62.0359988 113.2230012   6.9084997  61.4819988
 114.7140012   5.9154997  61.6879988 113.1170012   5.2214997  62.1049988
 112.3260012   6.6504997  63.9329988 111.8520012   5.7954997  63.4749988
 112.2650012   6.5254997  65.0039988 111.9260012   7.6034997  63.6229988
 114.4320012   7.9644997  63.3439988 114.3880012   8.4904997  64.2859988
 114.0960012   8.5244997  62.4829988 115.4770012   7.6924997  63.3039988
 116.4230012   3.1094997  63.2679988 114.7840012   1.8224997  61.9349988
 115.1790012   0.4804997  67.1559988 114.5060012  -0.7225003  67.3369988
 114.7300012  -1.7645003  66.7299988 113.4080012  -0.6325003  68.3999988
 113.0230012  -1.6525003  68.6129988 112.5220012  -0.1635003  67.9199988
 113.8530012   0.2004997  69.6299988 114.0310012   1.1674997  69.1139988
 114.7910012  -0.1195003  70.1319988 112.7640012   0.4904997  70.6989988
 112.5100012  -0.5085003  71.1139988 111.8760012   0.9634997  70.2269988
 113.0760012   1.5544997  71.7769988 113.4210012   2.5544997  71.4389988
 114.0550012   1.1724997  72.1349988 112.2050012   1.5684997  73.0369988
 112.1260012   0.5284997  73.4199988 111.2240012   1.9904997  72.7299988
 112.9280012   2.4854997  74.1279988 112.8920012   3.5154997  73.7139988
 113.9780012   2.1594997  74.2839988 112.1010012   2.2604997  75.4719988
 112.7040012   2.7484997  76.2679988 111.9490012   1.1884997  75.7199988
 110.7780012   2.9274997  75.3599988 110.0190012   2.2304997  74.9769988
 110.5970012   4.2564997  75.5739988 109.6170012   4.7424997  75.4589988
 111.6490012   5.2614997  75.9419988 111.2980012   6.2694997  75.6309988
 112.6600012   5.0904997  75.5139988 111.6370012   5.4094997  77.4209988
 111.9230012   4.3984997  77.7819988 110.6340012   5.5564997  77.8769988
 112.6200012   6.3014997  78.2979988 112.8400012   7.3514997  78.0089988
 113.6130012   5.8044997  78.3189988 112.0080012   6.5454997  79.6979988
 110.9020012   6.6084997  79.6149988 112.3560012   7.4364997  80.2629988
 112.3520012   5.4494997  80.7479988 113.4610012   5.4584997  80.6849988
 111.9120012   4.4854997  80.4119988 111.7420012   5.6004997  82.1099988
 111.6560012   4.6064997  82.5989988 110.7460012   6.0864997  82.1809988
 112.6260012   6.3164997  83.1549988 112.3550012   6.0014997  84.1849988
 112.4760012   7.3974997  82.9499988 114.1480012   5.9324997  83.1969988
 114.6390012   6.2014997  82.2369988 114.5060012   4.9494997  83.5699988
 114.5490012   6.6674997  83.9269988 104.9620012 141.2994997  81.4779988
 105.4370012 141.7114997  82.3939988 105.1850012 140.2174997  81.3689988
 103.8590012 141.4364997  81.4939988 105.4610012 142.0494997  80.1529988
 106.5680012 142.0004997  80.0699988 104.8660012 141.6864997  79.2879988
 105.0110012 143.5294997  80.0139988 103.9390012 143.6784997  80.2619988
 105.6140012 144.1254997  80.7319988 105.2560012 144.0614997  78.5609988
 106.3370012 144.3164997  78.5309988 104.8850012 143.2734997  77.8709988
 104.5520012 145.3264997  78.2689988 103.4720012 145.0824997  78.1809988
 104.6110012 146.0344997  79.1229988 104.9830012 146.0874997  77.0059988
 104.8470012 145.4404997  76.1129988 104.2730012 146.9034997  76.7509988
 106.4040012 146.6094997  77.0099988 106.4420012 147.5354997  76.3969988
 106.7700012 146.9364997  78.0069988 107.4270012 145.6514997  76.3699988
 107.5100012 144.6614997  76.8659988 107.0300012 145.4424997  75.3529988
 108.8240012 146.3104997  76.3579988 108.6960012 147.4084997  76.2519988
 109.2950012 146.1444997  77.3509988 109.5730012 145.9304997  74.9939988
 108.8470012 146.1854997  74.1929988 110.4060012 146.6644997  74.9489988
 110.1580012 144.6084997  74.7289988 110.7600012 144.3744997  75.6339988
 109.3730012 143.8224997  74.7169988 111.2700012 144.6234997  73.6009988
 112.0510012 145.3624997  73.8809988 111.7060012 143.6034997  73.6619988
 110.7110012 144.8544997  72.1439988 110.2700012 145.8744997  72.1389988
 111.6670012 144.8584997  71.5779988 109.8040012 143.6754997  71.7199988
 109.8180012 142.8464997  72.4599988 108.7610012 144.0604997  71.7369988
 110.0210012 143.2134997  70.2329988 109.8940012 144.1384997  69.6309988
 111.0950012 142.9544997  70.1119988 109.0630012 142.1884997  69.7179988
 108.0540012 141.7874997  70.2919988 109.4050012 141.6874997  68.4439988
 108.6390012 140.5114997  68.0139988 109.3460012 139.8284997  67.4949988
 108.1770012 139.9174997  68.8319988 107.3970012 140.7544997  67.0019988
 106.8300012 139.8054997  66.8909988 107.7240012 141.2074997  65.5429988
 108.3900012 140.3814997  65.2119988 106.8810012 141.1324997  64.8239988
 108.2370012 142.4764997  65.5759988 108.9520012 143.0994997  64.3319988
 107.8590012 143.8654997  63.4739988 106.7270012 144.2344997  64.2209988
 106.8640012 144.3194997  65.3199988 106.4370012 145.2604997  63.9099988
 105.5590012 143.3894997  63.8719988 105.8260012 142.3664997  64.0959988
 104.7970012 143.7984997  64.5179988 105.0920012 143.4484997  62.4589988
 106.1320012 142.8044997  61.5089988 106.0720012 141.7344997  61.6429988
 105.9410012 142.9894997  60.4619988 107.0870012 143.2754997  61.6889988
 103.7700012 142.6604997  62.3759988 103.0710012 142.9964997  63.1279988
 103.2360012 142.7184997  61.4379988 104.0110012 141.6154997  62.4989988
 104.9700012 144.8994997  62.0539988 106.0080012 145.1814997  62.1439988
 104.4340012 145.5144997  62.7609988 104.5020012 145.0784997  61.0969988
 109.9540012 144.0714997  64.8469988 109.4330012 142.0224997  63.4629988
 106.5370012 141.7014997  67.7169988 105.3030012 142.0034997  67.2089988
 104.7010012 141.4044997  66.3169988 104.8140012 143.3294997  67.8659988
 105.1880012 144.2064997  67.2959988 105.3060012 143.4014997  68.8599988
 103.3430012 143.4994997  68.1789988 102.6880012 143.5064997  67.2819988
 103.3040012 144.4694997  68.7189988 102.7820012 142.3824997  69.0909988
 102.7190012 141.3964997  68.5839988 101.7730012 142.5924997  69.5049988
 103.6600012 142.2694997  70.3839988 104.6100012 141.7544997  70.1239988
 102.9760012 141.5254997  70.8459988 103.8140012 143.5864997  71.2899988
 102.8270012 144.0944997  71.2379988 104.5160012 144.2294997  70.7179988
 104.6470012 143.2454997  72.5229988 105.0470012 144.1414997  73.0449988
 105.5390012 142.6674997  72.1999988 103.7680012 142.4464997  73.6259988
 103.2980012 141.5844997  73.1049988 102.8920012 143.1054997  73.8089988
 104.4290012 141.9314997  74.9159988 104.2600012 142.4734997  75.8579988
 105.3920012 141.0024997  75.1099988 105.7640012 140.8294997  76.1309988
 106.0890012 140.1854997  74.1009988 105.3660012 140.1404997  73.2579988
 106.3710012 139.2304997  74.5929988 107.3980012 140.8904997  73.6429988
 107.1920012 141.9814997  73.5919988 107.5410012 140.4734997  72.6229988
 108.6770012 140.6134997  74.4429988 109.4580012 141.1974997  73.9109988
 108.9870012 139.5484997  74.3679988 108.5540012 140.9854997  75.9229988
 107.8680012 140.2654997  76.4179988 108.1190012 141.9894997  76.1149988
 109.9500012 141.1534997  76.4589988 110.3180012 142.1054997  76.0179988
 110.7080012 140.4504997  76.0519988 110.0430012 141.2434997  77.9029988
 111.0310012 141.6384997  78.2229988 110.1150012 140.1884997  78.2429988
 108.9810012 142.1614997  78.6259988 108.0130012 141.6644997  78.3979988
 108.8660012 143.1984997  78.2439988 109.2600012 142.2364997  80.1089988
 110.3460012 142.3224997  80.3259988 108.9160012 141.2354997  80.4479988
 108.7360012 143.1534997  80.4519988 135.2100012 120.3604997  81.4059988
 134.7270012 120.6134997  82.3739988 136.2500012 120.6084997  81.7099988
 135.0380012 119.2694997  81.2869988 134.7900012 121.2084997  80.1359988
 135.3710012 120.7634997  79.2999988 133.7380012 121.0154997  79.8369988
 135.0470012 122.7324997  80.2549988 134.3280012 123.1824997  80.9729988
 136.0610012 122.9124997  80.6709988 134.9470012 123.5294997  78.9539988
 134.8680012 124.6184997  79.1579988 135.9260012 123.3524997  78.4579988
 133.7240012 123.1634997  78.2489988 134.0660012 122.1634997  77.9069988
 132.9630012 123.0754997  79.0529988 133.3530012 124.0624997  77.0059988
 133.2020012 125.0694997  77.4489988 134.2460012 124.0834997  76.3459988
 132.1610012 123.5944997  76.2279988 132.2550012 122.5224997  75.9509988
 131.2720012 123.6344997  76.8929988 131.7810012 124.3994997  74.9559988
 131.0690012 123.8214997  74.3289988 131.3230012 125.3414997  75.3269988
 132.9700012 124.8194997  74.1139988 133.6200012 125.5194997  74.6809988
 133.5970012 123.9344997  73.8709988 132.3880012 125.5174997  72.8529988
 131.5220012 126.1834997  73.0519988 133.2640012 126.1004997  72.4949988
 131.9450012 124.6064997  71.6879988 132.7060012 123.8214997  71.4939988
 130.9510012 124.1984997  71.9729988 131.7670012 125.3014997  70.3629988
 130.9090012 126.0074997  70.3819988 132.6610012 125.8224997  69.9569988
 131.5680012 124.2774997  69.1249988 130.5940012 123.7414997  69.1439988
 131.6070012 124.9944997  68.2769988 132.5200012 123.1324997  68.9579988
 132.6040012 122.5954997  69.9269988 132.0880012 122.4214997  68.2219988
 133.9400012 123.5644997  68.4999988 133.8330012 124.1284997  67.5489988
 134.3580012 124.3834997  69.1239988 134.8490012 122.3694997  68.3509988
 135.8420012 122.0744997  69.0739988 134.4260012 121.5774997  67.3619988
 134.9720012 120.2384997  67.2779988 136.0630012 120.3934997  67.1379988
 134.8370012 119.7944997  68.2879988 134.2360012 119.4144997  66.1859988
 134.5650012 118.3534997  66.1819988 134.3820012 120.0704997  64.8009988
 135.4720012 120.0734997  64.5889988 133.8260012 119.5814997  63.9729988
 134.0110012 121.4834997  64.7909988 133.5860012 122.2904997  63.4979988
 132.0700012 122.0054997  63.3019988 131.2340012 122.3924997  64.3659988
 130.1950012 122.0014997  64.4229988 131.5760012 122.1984997  65.4049988
 130.8940012 123.8974997  64.2869988 130.6020012 124.2474997  65.2659988
 131.8130012 124.4244997  64.0779988 129.9740012 124.3664997  63.1989988
 129.9910012 125.8254997  63.3619988 129.6740012 126.0444997  64.3709988
 131.0230012 126.1354997  63.4189988 129.4560012 126.2074997  62.5049988
 130.3900012 123.8384997  61.8359988 130.2490012 122.7674997  61.8339988
 129.7050012 124.3074997  61.1449988 131.4230012 124.1114997  61.6779988
 128.5100012 123.9254997  63.4219988 128.1790012 124.2954997  64.3819988
 128.4470012 122.8474997  63.4389988 127.9240012 124.3094997  62.5999988
 133.7880012 123.7304997  63.8489988 134.3120012 121.7514997  62.2679988
 132.8300012 119.3074997  66.3639988 132.3290012 118.6634997  67.4199988
 132.9380012 118.1524997  68.3579988 130.7570012 118.9324997  67.5389988
 130.1410012 118.0674997  67.2119988 130.5830012 119.8034997  66.8719988
 130.3880012 119.3044997  68.9619988 129.4460012 119.8794997  68.8359988
 131.1420012 119.9934997  69.3999988 130.2260012 118.0484997  69.7949988
 131.2000012 117.5304997  69.9269988 129.5380012 117.4214997  69.1879988
 129.6870012 118.2114997  71.2519988 129.7050012 117.1974997  71.7049988
 128.6190012 118.5184997  71.2419988 130.3340012 119.2834997  72.0319988
 130.1190012 120.2674997  71.5639988 131.4060012 118.9934997  72.0269988
 129.8400012 119.3884997  73.4969988 130.1840012 118.4794997  74.0359988
 128.7350012 119.3134997  73.5799988 130.4020012 120.6184997  74.2149988
 130.2390012 121.5364997  73.6109988 131.5070012 120.5114997  74.2699988
 129.7250012 120.7254997  75.5309988 128.6890012 121.0924997  75.5799988
 130.2810012 120.1844997  76.7019988 129.7120012 120.3984997  77.6189988
 131.5270012 119.4344997  76.9569988 132.1420012 120.0404997  77.6569988
 132.0650012 119.4124997  75.9849988 131.2660012 117.9864997  77.3299988
 132.2170012 117.4504997  77.1239988 130.5560012 117.4974997  76.6279988
 130.8860012 117.7734997  78.7899988 131.2300012 116.7614997  79.0939988
 129.7970012 117.7174997  79.0049988 131.5520012 118.7324997  79.8189988
 131.1220012 119.7464997  79.6709988 132.6140012 118.8344997  79.5089988
 131.4910012 118.4154997  81.3309988 132.2420012 118.9424997  81.9569988
 131.8350012 117.3774997  81.5269988 130.0820012 118.7114997  81.9189988
 130.0320012 118.1834997  82.8949988 129.3150012 118.3004997  81.2269988
 130.0050012 120.2164997  82.2229988 129.9320012 120.8484997  81.3119988
 130.9290012 120.5434997  82.7449988 128.8280012 120.5964997  83.1429988
 127.9380012 120.0674997  82.7389988 128.6680012 121.6704997  83.3749988
 129.0450012 120.1754997  84.1479988  14.7690012  16.3694997  83.3739988
  14.4470012  17.3424997  83.8019988  15.3490012  15.9154997  84.2059988
  13.8840012  15.7234997  83.1889988  15.7230012  16.5234997  82.1909988
  16.6260012  16.9744997  82.6559988  16.0410012  15.6574997  81.5729988
  15.2630012  17.6324997  81.2139988  14.7060012  17.3034997  80.3109988
  14.5640012  18.3434997  81.7039988  16.4350012  18.4864997  80.7599988
  17.0590012  18.7444997  81.6429988  17.0970012  17.8744997  80.1109988
  16.1160012  19.7014997  79.8029988  15.7080012  20.6104997  80.2939988
  16.9940012  20.1994997  79.3399988  15.2940012  19.4344997  78.4889988
  15.4710012  18.3804997  78.1849988  14.2250012  19.4064997  78.7909988
  15.5510012  20.4194997  77.3519988  15.1670012  21.4134997  77.6689988
  16.6370012  20.6384997  77.2689988  14.9600012  20.0664997  75.9949988
  13.8670012  19.9984997  76.1859988  15.2620012  20.8424997  75.2599988
  15.5170012  18.7014997  75.4529988  15.2960012  17.9234997  76.2149988
  15.0280012  18.4314997  74.4919988  17.0790012  18.6694997  75.2369988
  17.4470012  19.6704997  74.9259988  17.7580012  18.3324997  76.0489988
  17.4870012  17.8154997  73.9599988  18.5950012  17.7434997  73.9759988
  17.0970012  16.7754997  73.9919988  17.0700012  18.5504997  72.6919988
  15.9800012  18.7664997  72.7209988  17.5800012  19.5364997  72.6589988
  17.2530012  17.6514997  71.3989988  17.2450012  18.3094997  70.5039988
  18.2510012  17.1634997  71.3779988  16.2680012  16.4394997  71.2979988
  16.5060012  15.6954997  72.0879988  15.2520012  16.8664997  71.4359988
  16.3920012  15.9674997  69.7729988  16.3900012  16.8164997  69.0559988
  17.4000012  15.5164997  69.6539988  15.3420012  14.9154997  69.4449988
  14.6560012  14.3644997  70.3439988  15.0960012  14.7814997  68.1749988
  14.1270012  13.8434997  67.7309988  14.5930012  12.8444997  67.5869988
  13.2450012  13.8574997  68.4059988  13.3670012  14.2604997  66.3619988
  12.8200012  13.3264997  66.1099988  14.3720012  14.6544997  65.2639988
  15.0520012  13.8264997  64.9689988  13.7890012  14.7604997  64.3239988
  15.1640012  15.8194997  65.4379988  14.7150012  17.3314997  65.3579988
  13.7440012  17.4034997  64.0979988  14.3010012  17.0544997  62.8099988
  15.1100012  16.3084997  62.9579988  13.5160012  16.4784997  62.2749988
  14.9570012  18.2674997  62.0799988  15.6990012  18.7004997  62.7349988
  15.4040012  18.0604997  61.1189988  14.0160012  19.4294997  61.7409988
  12.6670012  19.0824997  61.1449988  12.8790012  18.5094997  60.2539988
  12.0800012  18.3804997  61.7179988  12.0230012  19.9154997  60.9069988
  13.7470012  20.1654997  63.0579988  13.1000012  21.0094997  62.8719988
  13.3620012  19.4794997  63.7979988  14.6740012  20.5774997  63.4289988
  14.7130012  20.3824997  60.7699988  14.2480012  21.3564997  60.7389988
  14.7910012  20.0084997  59.7589988  15.7390012  20.3624997  61.1079988
  13.9370012  17.5744997  66.6009988  15.8210012  18.2044997  65.0829988
  12.5060012  15.3684997  66.7519988  11.1690012  15.1674997  66.7499988
  10.5820012  14.1654997  66.4019988  10.3600012  16.3214997  67.2719988
   9.2580012  16.2434997  67.1489988  10.6850012  17.2184997  66.7039988
  10.8540012  16.5964997  68.7279988  10.4880012  17.5944997  69.0489988
  11.9610012  16.6964997  68.7349988  10.5160012  15.4894997  69.7419988
  10.6430012  14.5324997  69.1919988   9.4660012  15.6484997  70.0689988
  11.4140012  15.6434997  70.9809988  12.4300012  15.3404997  70.6489988
  10.9670012  14.9194997  71.6959988  11.4480012  17.0484997  71.6199988
  10.4480012  17.2764997  72.0469988  11.6420012  17.7934997  70.8189988
  12.5350012  17.3014997  72.6399988  12.7040012  18.3984997  72.5889988
  13.4630012  16.7464997  72.3859988  12.3280012  16.9274997  74.1479988
  11.5030012  17.5534997  74.5519988  13.1680012  17.3024997  74.7709988
  11.9700012  15.4484997  74.3679988  11.1700012  15.0484997  73.7269988
  12.3440012  14.7044997  75.4149988  12.1060012  13.6304997  75.4229988
  13.1710012  15.1804997  76.5839988  13.5830012  16.2064997  76.4709988
  13.9350012  14.3844997  76.7089988  12.2970012  15.1794997  77.8889988
  11.4520012  15.8744997  77.6969988  12.8770012  15.4674997  78.7919988
  11.7790012  13.7484997  78.2699988  12.5160012  13.0404997  77.8339988
  10.8130012  13.5654997  77.7519988  11.6160012  13.5254997  79.8149988
  12.6390012  13.7394997  80.1939988  11.3770012  12.4514997  79.9669988
  10.5500012  14.4414997  80.4129988   9.5090012  14.1344997  80.1749988
  10.6280012  15.4934997  80.0649988  10.5790012  14.4674997  81.9749988
   9.9880012  15.2784997  82.4529988  11.6380012  14.5594997  82.2979988
   9.9990012  13.1354997  82.5189988  10.4770012  12.2664997  82.0189988
   8.9520012  13.3094997  82.1889988  10.0650012  12.9354997  84.0129988
   9.4550012  12.0514997  84.2959988   9.6100012  13.8074997  84.5299988
  11.0760012  12.6634997  84.3839988 142.4350012 111.5404997  81.8479988
 141.3490012 111.7164997  81.6919988 142.7930012 112.5124997  82.2489988
 142.4980012 110.7384997  82.6149988 143.3010012 111.2624997  80.5549988
 144.2890012 111.7434997  80.7179988 143.4610012 110.1634997  80.5349988
 142.8630012 111.9144997  79.2939988 141.7680012 111.8314997  79.1309988
 143.1030012 112.9924997  79.4139988 143.6760012 111.4974997  78.0699988
 143.5560012 112.1984997  77.2159988 144.7250012 111.6414997  78.4059988
 143.5660012 110.0494997  77.5309988 144.5470012 109.9514997  77.0199988
 143.4360012 109.2774997  78.3189988 142.4750012 109.9044997  76.4759988
 141.5160012 110.1044997  76.9999988 142.5960012 110.6524997  75.6639988
 142.4710012 108.4994997  75.7509988 142.3710012 108.6464997  74.6539988
 143.4680012 108.0304997  75.8969988 141.2770012 107.6354997  76.2149988
 141.5480012 106.5624997  76.1099988 141.0790012 107.8334997  77.2899988
 139.8600012 107.9914997  75.5569988 139.0440012 107.6144997  76.2099988
 139.8040012 109.1004997  75.5869988 139.7670012 107.3504997  74.1899988
 140.6010012 107.7364997  73.5659988 139.9420012 106.2714997  74.3889988
 138.3740012 107.4534997  73.4619988 138.4770012 107.1624997  72.3949988
 137.6060012 106.8954997  74.0389988 137.8730012 108.8914997  73.4569988
 136.8590012 108.8844997  73.0049988 137.6290012 109.1704997  74.5049988
 138.7490012 109.9484997  72.8199988 138.2130012 110.8604997  73.1599988
 139.7270012 109.8734997  73.3419988 138.8040012 109.7864997  71.3019988
 139.5460012 108.9894997  71.0829988 137.8370012 109.4124997  70.9009988
 139.3110012 111.0284997  70.4689988 138.5680012 111.8454997  70.5899988
 140.3110012 111.3374997  70.8439988 139.4990012 110.7294997  68.9529988
 140.5610012 110.5464997  68.4079988 138.2670012 110.6134997  68.2819988
 138.4260012 110.5634997  66.8499988 139.3020012 109.9814997  66.4919988
 137.5700012 110.0464997  66.3649988 138.4350012 112.0254997  66.3439988
 137.6260012 112.5824997  66.8639988 138.0130012 112.0784997  64.9179988
 137.0710012 111.5564997  64.6449988 137.8930012 113.1334997  64.5919988
 139.1170012 111.6534997  64.1219988 138.9130012 111.1794997  62.6519988
 140.3140012 110.6504997  62.2139988 141.5040012 111.4004997  62.4509988
 142.2630012 110.9494997  61.7769988 141.2990012 112.4714997  62.2379988
 142.0290012 111.3434997  63.9509988 142.9260012 111.9434997  63.9999988
 141.3340012 111.7804997  64.6529988 142.5030012 109.9784997  64.4689988
 143.6920012 109.5284997  63.6119988 144.2120012 108.7054997  64.0789988
 143.4250012 109.2904997  62.5929988 144.4250012 110.3214997  63.5909988
 142.7840012 110.0254997  65.9319988 143.6600012 110.6104997  66.1749988
 141.9060012 110.3724997  66.4559988 143.0300012 109.0504997  66.3269988
 141.3650012 108.9734997  64.2529988 140.3770012 109.2344997  64.6029988
 141.6550012 107.9884997  64.5859988 141.3520012 108.8034997  63.1859988
 137.8770012 110.1254997  62.7479988 138.5200012 112.2904997  61.7769988
 139.7460012 112.5944997  66.5149988 139.8690012 113.9274997  66.6409988
 138.9960012 114.7254997  66.8359988 141.3540012 114.3234997  66.5479988
 141.3110012 115.4334997  66.5559988 141.7580012 114.0894997  65.5409988
 142.2490012 113.7884997  67.6809988 143.2730012 113.6014997  67.2919988
 141.7600012 112.8204997  67.9199988 142.3240012 114.7214997  68.8309988
 142.5010012 115.7934997  68.5979988 143.2530012 114.4984997  69.3979988
 141.1760012 114.5764997  69.8699988 141.2240012 113.5564997  70.3079988
 140.2350012 114.7384997  69.3019988 141.2830012 115.6604997  70.9989988
 141.5090012 116.6794997  70.6189988 141.9940012 115.3484997  71.7939988
 139.8480012 115.7964997  71.5339988 139.0930012 116.1494997  70.7989988
 139.7980012 116.6104997  72.2889988 139.4000012 114.4954997  72.2989988
 140.0170012 114.4734997  73.2229988 139.6460012 113.5274997  71.8129988
 137.8750012 114.5494997  72.4699988 137.4470012 114.5354997  71.4569988
 137.0800012 114.3464997  73.4619988 135.9860012 114.3474997  73.3439988
 137.4620012 113.9874997  74.9129988 136.9910012 114.7444997  75.5759988
 138.5560012 114.0804997  75.0829988 137.0230012 112.5724997  75.4239988
 137.6840012 111.8364997  74.9199988 136.0200012 112.1954997  75.1289988
 137.0440012 112.6234997  77.0039988 136.3790012 113.4654997  77.2909988
 138.0890012 112.8954997  77.2639988 136.8980012 111.2714997  77.6199988
 137.3640012 110.5164997  76.9529988 135.8170012 111.0314997  77.7149988
 137.5100012 111.1614997  79.0259988 136.9000012 111.7194997  79.7679988
 138.5410012 111.5374997  79.2039988 137.3890012 109.8184997  79.7629988
 137.7900012 109.0294997  79.0919988 136.3910012 109.4514997  80.0849988
 138.1370012 109.7294997  81.0869988 139.2370012 109.7564997  80.9309988
 137.7110012 108.7404997  81.3569988 137.7130012 110.6994997  82.2379988
 136.6110012 110.8414997  82.2249988 138.1270012 111.6994997  81.9829988
 138.0420012 110.3554997  83.2409988 116.2060012 137.8044997  83.6299988
 116.1700012 138.8324997  83.2099988 117.2420012 137.7504997  84.0279988
 115.4740012 137.5624997  84.4299988 115.9190012 136.8364997  82.4509988
 116.3280012 135.8324997  82.6929988 114.8090012 136.7984997  82.4579988
 116.3300012 137.1834997  81.0399988 116.1650012 136.2734997  80.4249988
 115.6130012 137.9394997  80.6549988 117.7350012 137.7554997  80.8819988
 117.8980012 138.7474997  81.3549988 118.5330012 137.1404997  81.3499988
 118.1760012 137.7884997  79.3949988 119.2010012 138.2094997  79.4729988
 118.1920012 136.7824997  78.9229988 117.4130012 138.7954997  78.4739988
 116.6560012 138.2844997  77.8409988 116.9310012 139.6194997  79.0419988
 118.4280012 139.5104997  77.4689988 119.2130012 139.9494997  78.1209988
 118.9380012 138.8034997  76.7799988 117.7330012 140.6054997  76.7249988
 117.1810012 140.1054997  75.9009988 116.9700012 141.1354997  77.3349988
 118.6540012 141.5604997  76.0269988 119.2330012 142.0804997  76.8209988
 119.3630012 141.0434997  75.3449988 117.9480012 142.7164997  75.2609988
 117.5430012 143.3224997  76.0999988 118.6580012 143.3444997  74.6809988
 116.7150012 142.2504997  74.3489988 115.9680012 141.7644997  75.0129988
 116.1430012 143.1514997  74.0399988 117.1240012 141.3254997  73.1939988
 117.3690012 140.3134997  73.5819988 116.2180012 141.1544997  72.5739988
 118.3190012 141.7894997  72.3529988 118.1830012 142.8894997  72.2759988
 119.2220012 141.5414997  72.9499988 118.5340012 141.1064997  70.9799988
 117.6960012 141.3124997  70.2799988 119.3740012 141.6664997  70.5169988
 118.8630012 139.5954997  71.1029988 119.7830012 139.5754997  71.7259988
 117.9650012 139.2374997  71.6499988 119.0540012 139.0024997  69.7339988
 120.1740012 138.8244997  69.2409988 117.9380012 138.6194997  69.1589988
 117.9330012 138.4764997  67.7099988 118.7010012 139.0494997  67.1479988
 118.0290012 137.3724997  67.6279988 116.4850012 138.7724997  67.2209988
 115.8120012 138.2894997  67.9609988 116.2190012 138.3044997  65.7729988
 116.3880012 137.2064997  65.7639988 115.1950012 138.5334997  65.4089988
 117.3040012 138.8184997  64.9649988 117.0230012 140.0304997  63.9249988
 115.6350012 140.6884997  64.4839988 114.9380012 141.5134997  63.6479988
 114.2830012 142.1514997  64.2789988 115.6650012 142.1124997  63.0599988
 114.0900012 140.7484997  62.5239988 113.6960012 141.4944997  61.8499988
 114.8070012 140.1824997  61.9479988 112.8790012 139.9474997  62.9199988
 113.1930012 138.6724997  63.6929988 113.8400012 138.1434997  63.0089988
 113.6520012 139.0024997  64.6139988 112.2280012 138.2054997  63.8269988
 111.9560012 140.7584997  63.7949988 110.9900012 140.2834997  63.8829988
 112.5270012 140.8724997  64.7049988 111.9130012 141.6784997  63.2299988
 112.1680012 139.6424997  61.6589988 112.7250012 139.0844997  60.9199988
 111.9390012 140.5704997  61.1549988 111.2040012 139.1994997  61.8579988
 118.1500012 140.9544997  63.9739988 116.6950012 139.4304997  62.5939988
 116.1910012 140.2014997  67.3649988 114.9000012 140.4524997  67.5829988
 113.9920012 139.6664997  67.6349988 114.7530012 141.8634997  67.5309988
 115.1260012 142.3404997  66.5999988 115.3610012 142.3014997  68.3509988
 113.2650012 142.2724997  67.7579988 112.7740012 141.5874997  68.4819988
 112.8010012 142.1264997  66.7589988 112.9750012 143.7044997  68.2319988
 112.3730012 144.2414997  67.4679988 113.9370012 144.2584997  68.2709988
 112.2390012 143.6854997  69.5159988 111.3370012 143.0604997  69.3439988
 111.9460012 144.6904997  69.8889988 113.0550012 143.1374997  70.7039988
 114.1440012 143.1824997  70.4879988 112.7010012 142.0864997  70.7659988
 112.7170012 143.7904997  72.0729988 112.8780012 144.8754997  71.8919988
 113.3680012 143.3964997  72.8819988 111.1640012 143.6864997  72.3849988
 110.5630012 144.0234997  71.5139988 110.9660012 144.4554997  73.1619988
 110.8360012 142.2754997  72.7739988 110.6050012 141.5654997  71.9659988
 110.8680012 141.7634997  74.0139988 110.5300012 140.7294997  74.1759988
 111.3160012 142.5894997  75.2439988 110.6220012 142.7244997  76.1019988
 111.5770012 143.5924997  74.8439988 112.6710012 141.9844997  75.7869988
 113.1450012 142.6754997  76.5169988 113.4220012 141.8244997  74.9839988
 112.4130012 140.5804997  76.3839988 112.3080012 139.8014997  75.5989988
 111.5250012 140.4994997  77.0469988 113.5930012 140.1044997  77.2319988
 114.5760012 140.3184997  76.7589988 113.5950012 139.0354997  77.5349988
 113.7200012 140.9404997  78.5039988 113.4490012 141.9814997  78.2259988
 114.7230012 140.8824997  78.9789988 112.7510012 140.4834997  79.5779988
 113.4240012 139.9114997  80.2519988 112.0440012 139.6944997  79.2439988
 111.9400012 141.6414997  80.2719988 111.2890012 141.2944997  81.1019988
 111.2800012 142.1204997  79.5169988 112.8380012 142.6904997  81.0319988
 113.3940012 142.2354997  81.8799988 112.2000012 143.4804997  81.4839988
 113.5940012 143.1384997  80.3519988 146.9790012  23.5254997  80.8209988
 147.6190012  23.1984997  81.6689988 146.9690012  22.7254997  80.0499988
 145.9470012  23.6804997  81.2009988 147.4860012  24.8374997  80.2099988
 147.7900012  25.5584997  80.9989988 148.3880012  24.5634997  79.6219988
 146.3420012  25.5764997  79.4799988 145.7520012  24.8684997  78.8589988
 145.5490012  25.7684997  80.2339988 146.7450012  26.6674997  78.5369988
 147.3420012  27.4424997  79.0639988 147.3690012  26.3524997  77.6739988
 145.6000012  27.4984997  77.8019988 144.8360012  27.7694997  78.5619988
 145.8950012  28.4984997  77.4179988 144.9300012  26.8164997  76.6549988
 145.6190012  26.7604997  75.7839988 144.5920012  25.8114997  76.9869988
 143.6590012  27.6744997  76.2309988 142.8030012  27.4524997  76.9039988
 143.9820012  28.7284997  76.3699988 143.2860012  27.6844997  74.7659988
 142.8410012  26.7084997  74.4749988 142.4880012  28.4334997  74.5739988
 144.4710012  28.0524997  73.8699988 144.8470012  29.0404997  74.2139988
 145.2570012  27.2704997  73.7909988 144.1510012  28.3464997  72.3809988
 143.4740012  27.5084997  72.1079988 143.5080012  29.2534997  72.3919988
 145.2670012  28.5474997  71.3449988 144.7130012  28.7244997  70.3979988
 145.9660012  29.3754997  71.5859988 146.0520012  27.2384997  70.9899988
 146.5170012  26.7924997  71.8949988 145.1790012  26.6124997  70.7049988
 146.9520012  27.2044997  69.7289988 147.8280012  27.8514997  69.9519988
 147.3180012  26.1614997  69.6149988 146.3830012  27.9664997  68.5009988
 145.4400012  27.4784997  68.1749988 146.1590012  29.0204997  68.7729988
 147.2920012  28.2324997  67.3079988 146.8190012  28.9014997  66.5579988
 148.2650012  28.5384997  67.7489988 147.5100012  26.9934997  66.3809988
 147.6940012  27.1144997  65.1949988 147.3810012  25.9134997  67.1049988
 147.6820012  24.6384997  66.5079988 147.4900012  24.6614997  65.4139988
 148.7630012  24.4834997  66.7089988 146.7820012  23.4494997  66.9979988
 147.2440012  22.5344997  66.5709988 145.3410012  23.5304997  66.3649988
 145.4320012  23.0804997  65.3529988 144.6230012  22.9834997  67.0119988
 144.9890012  24.8694997  66.1879988 143.6000012  25.1584997  65.4419988
 143.9900012  24.5794997  64.0789988 145.0130012  25.1784997  63.1819988
 145.5160012  26.1074997  63.5239988 145.8670012  24.4694997  63.1339988
 144.4170012  25.4054997  61.7559988 145.2080012  25.5784997  61.0409988
 144.0750012  24.4644997  61.3529988 143.3380012  26.4334997  61.5509988
 143.0430012  26.7274997  60.1459988 142.1870012  27.3824997  60.0859988
 143.9160012  27.0994997  59.6289988 142.7240012  25.8414997  59.6169988
 142.0380012  26.0334997  62.1789988 141.3350012  26.8534997  62.1789988
 141.5040012  25.3404997  61.5459988 142.1990012  25.6754997  63.1849988
 143.8470012  27.6934997  62.2319988 143.8260012  27.4564997  63.2859988
 143.2290012  28.5644997  62.0729988 144.8090012  27.9474997  61.8139988
 142.5260012  24.3304997  66.0079988 143.4130012  26.6464997  65.4179988
 146.6100012  23.4844997  68.4289988 146.1470012  22.3774997  69.0349988
 145.8950012  21.2884997  68.4719988 146.0020012  22.7864997  70.4909988
 145.3050012  22.1054997  71.0249988 145.5870012  23.8094997  70.6219988
 147.3680012  22.6704997  71.1529988 147.9370012  23.4854997  70.6579988
 147.8560012  21.6824997  71.0099988 147.3830012  23.0284997  72.7009988
 147.0940012  24.0994997  72.6489988 148.4330012  22.9764997  73.0609988
 146.3690012  22.2314997  73.5699988 146.5550012  21.1384997  73.6279988
 145.4140012  22.2474997  73.0009988 146.2420012  22.7524997  75.0599988
 145.5840012  23.6374997  74.9259988 147.3060012  22.9394997  75.3179988
 145.6820012  21.6974997  76.0279988 145.8730012  21.9764997  77.0859988
 146.3580012  20.8164997  76.0579988 144.2470012  21.1104997  75.8919988
 144.2000012  20.3064997  76.6569988 144.1660012  20.6714997  74.8739988
 143.1340012  22.1464997  76.0239988 143.3750012  23.1434997  75.6269988
 141.8560012  21.9044997  76.4549988 141.1720012  22.7664997  76.4779988
 141.2940012  20.5644997  76.8849988 141.5130012  19.8924997  76.0279988
 140.1950012  20.7054997  76.8069988 141.7480012  20.1004997  78.2489988
 142.8590012  20.1294997  78.2739988 141.5010012  19.0174997  78.2089988
 140.9000012  20.8274997  79.3299988 139.9760012  20.2344997  79.4979988
 140.4720012  21.7354997  78.8539988 141.6500012  21.1794997  80.5689988
 141.0370012  21.8324997  81.2269988 142.5250012  21.8024997  80.2889988
 142.0880012  19.8864997  81.3539988 142.8480012  19.2534997  80.8479988
 141.1730012  19.2604997  81.4289988 142.5220012  20.0454997  82.7669988
 142.5270012  19.0754997  83.3089988 141.8590012  20.6814997  83.3909988
 143.9530012  20.5754997  82.7829988 143.9150012  21.5674997  82.2849988
 144.7110012  20.0324997  82.1779988 144.6420012  20.9624997  84.1029988
 144.7770012  20.0584997  84.7339988 144.2490012  21.8474997  84.6469988
 145.6850012  21.2594997  83.8599988  17.3490012 136.9014997  80.0169988
  16.6640012 137.0134997  80.8839988  17.7350012 137.9224997  79.8099988
  18.1820012 136.2424997  80.3429988  16.6460012 136.2044997  78.7999988
  16.1530012 135.2564997  79.1039988  15.7470012 136.8354997  78.6349988
  17.4950012 135.9604997  77.5049988  18.0600012 136.8314997  77.1099988
  18.3310012 135.2934997  77.8039988  16.7210012 135.4224997  76.3599988
  15.9230012 136.1514997  76.1009988  17.2860012 135.3714997  75.4049988
  16.0490012 134.0504997  76.5899988  15.7870012 133.9654997  77.6669988
  15.1340012 134.0674997  75.9599988  16.8690012 132.8854997  76.2849988
  17.7770012 132.8924997  76.9249988  16.2910012 131.9764997  76.5579988
  17.3480012 132.8224997  74.7499988  18.0040012 133.6924997  74.5339988
  17.9600012 131.8964997  74.6979988  16.3610012 132.6304997  73.6379988
  17.0390012 132.5444997  72.7619988  15.8530012 131.6484997  73.7449988
  15.4510012 133.7824997  73.3039988  14.6010012 133.8024997  74.0189988
  16.1110012 134.6664997  73.4359988  14.8050012 133.7844997  71.8739988
  15.5890012 133.4624997  71.1559988  13.9590012 133.0634997  71.8979988
  14.3160012 135.1514997  71.4039988  13.5920012 135.5784997  72.1309988
  15.1670012 135.8614997  71.3259988  13.6460012 134.9584997  70.0059988
  14.2830012 134.4174997  69.2739988  12.7570012 134.3054997  70.1379988
  13.2300012 136.2924997  69.3179988  12.8550012 135.9084997  68.3449988
  12.4210012 136.6674997  69.9809988  14.2750012 137.3414997  69.0129988
  14.4580012 137.9234997  69.9409988  15.1850012 136.7484997  68.7789988
  13.7910012 138.1674997  67.8689988  13.4610012 137.4924997  67.0499988
  12.8370012 138.7204997  68.0049988  14.9290012 139.0284997  67.3549988
  15.9630012 139.1464997  67.9529988  14.7040012 139.6044997  66.1139988
  15.6790012 140.6414997  65.6299988  15.0550012 141.3774997  65.0779988
  16.1270012 141.2804997  66.4199988  16.7760012 140.0424997  64.6159988
  17.4520012 140.8684997  64.3049988  16.0180012 139.3974997  63.3629988
  15.2270012 138.6794997  63.6659988  15.3860012 140.1094997  62.7899988
  16.8880012 138.9374997  62.3069988  17.7000012 137.5314997  62.4239988
  16.8720012 136.5674997  63.4019988  15.7220012 136.0384997  62.7849988
  15.0330012 136.7604997  62.2969988  16.0470012 135.4194997  61.9219988
  14.7880012 135.2734997  63.7389988  14.4650012 136.0124997  64.4579988
  13.9420012 134.8324997  63.2319988  15.4470012 134.1594997  64.5469988
  16.3350012 133.2184997  63.8089988  17.2420012 133.6334997  63.3959988
  16.5220012 132.3984997  64.4859988  15.6960012 132.9104997  62.9949988
  16.2800012 134.8174997  65.6799988  17.1730012 135.3224997  65.3419988
  15.6870012 135.4634997  66.3109988  16.5730012 133.9644997  66.2749988
  14.3460012 133.3944997  65.2879988  13.6610012 133.0994997  64.5069988
  13.8230012 134.0624997  65.9559988  14.6750012 132.4294997  65.6449988
  17.8690012 137.0444997  61.0459988  18.8860012 137.9184997  63.1539988
  17.5750012 139.0834997  65.2899988  18.4000012 139.4644997  66.2459988
  18.6290012 140.6014997  66.6279988  19.0380012 138.2404997  66.7409988
  19.9030012 138.0564997  66.0689988  18.4340012 137.3214997  66.8949988
  19.7810012 138.6014997  68.0759988  19.0640012 139.0374997  68.8029988
  20.6170012 139.3214997  67.9439988  20.4190012 137.4084997  68.7619988
  20.9130012 137.8674997  69.6439988  21.1970012 137.0314997  68.0649988
  19.5400012 136.2064997  69.1759988  20.1840012 135.3944997  69.5759988
  18.9740012 135.7304997  68.3469988  18.6010012 136.5244997  70.3059988
  17.8810012 135.7194997  70.5679988  17.9680012 137.3644997  69.9469988
  19.3500012 136.8434997  71.5979988  19.8460012 137.8374997  71.6329988
  20.1570012 136.0844997  71.6829988  18.4590012 136.5244997  72.7119988
  19.0250012 136.4874997  73.6669988  18.0890012 135.4814997  72.6189988
  17.3190012 137.5474997  72.8689988  16.5000012 137.4424997  72.1419988
  17.2730012 138.5534997  73.8079988  16.4200012 139.2424997  73.7209988
  18.3380012 138.8224997  74.8229988  19.3470012 139.0134997  74.3999988
  18.4250012 137.8974997  75.4309988  18.0280012 140.0494997  75.7359988
  17.8900012 140.8564997  74.9849988  18.9100012 140.3454997  76.3429988
  16.8650012 139.7784997  76.7949988  17.2870012 138.9364997  77.3839988
  15.9150012 139.4864997  76.2989988  16.5620012 140.8844997  77.7329988
  16.4210012 141.7864997  77.0999988  17.4640012 141.0354997  78.3639988
  15.4370012 140.7144997  78.7359988  15.5600012 141.4364997  79.5729988
  15.3800012 139.6644997  79.0939988  14.1490012 140.8904997  77.9729988
  14.0120012 140.2234997  77.0949988  14.1560012 141.8284997  77.3779988
  12.9190012 140.6874997  78.7909988  12.9220012 139.6274997  79.1239988
  12.0210012 140.8354997  78.1539988  12.8240012 141.4794997  80.1239988
  11.8020012 141.4874997  80.5589988  13.3310012 142.4624997  80.0249988
  13.3720012 140.9444997  80.9289988   6.7780012 130.3254997  82.6619988
   7.5780012 129.6214997  82.3449988   6.3540012 130.5934997  81.6699988
   6.0730012 129.6594997  83.2019988   7.2630012 131.5614997  83.3909988
   6.3940012 131.9854997  83.9389988   8.0200012 131.2134997  84.1259988
   8.0140012 132.5614997  82.5529988   7.4310012 132.8724997  81.6599988
   7.9800012 133.5024997  83.1419988   9.4730012 132.2814997  82.2609988
   9.9900012 132.2524997  83.2439988   9.5210012 131.3544997  81.6509988
  10.1580012 133.3414997  81.3729988   9.8540012 134.3834997  81.6069988
  11.2350012 133.2634997  81.6369988   9.8290012 133.1334997  79.8819988
  10.2030012 132.1464997  79.5359988   8.7460012 133.0274997  79.6589988
  10.5620012 134.1114997  78.9589988  10.3380012 133.7904997  77.9199988
  10.1900012 135.1134997  79.2599988  12.0980012 134.2604997  79.2179988
  12.4140012 135.0174997  78.4689988  12.2920012 134.7424997  80.1999988
  12.8540012 132.9864997  78.8129988  13.8590012 133.1494997  79.2559988
  12.4550012 132.1154997  79.3759988  12.8870012 132.6314997  77.2999988
  11.8880012 132.1944997  77.0859988  13.1270012 133.5734997  76.7599988
  14.0280012 131.7044997  76.9709988  14.9580012 132.1534997  77.3799988
  13.8090012 130.6964997  77.3829988  14.1730012 131.6264997  75.4159988
  14.4090012 132.6464997  75.0439988  15.1300012 131.0614997  75.3829988
  13.1590012 130.9394997  74.5489988  12.7240012 130.0294997  75.0139988
  12.2260012 131.5424997  74.5069988  13.7380012 130.7854997  73.1479988
  14.8200012 130.5534997  73.2439988  13.1200012 129.9934997  72.6729988
  13.3760012 132.0064997  72.2179988  12.3620012 132.4434997  72.3429988
  14.0000012 132.8734997  72.5209988  13.5530012 131.6094997  70.6789988
  14.0580012 130.5344997  70.3179988  12.8910012 132.4814997  69.8609988
  12.6120012 132.0414997  68.5399988  12.1730012 132.9454997  68.0659988
  13.6060012 131.9064997  68.0629988  11.5970012 130.8844997  68.4659988
  12.0030012 129.9744997  68.9569988  11.2830012 130.4414997  66.9889988
  12.1590012 130.2424997  66.3349988  10.7470012 129.4754997  67.1089988
  10.4140012 131.3904997  66.3459988   9.1650012 130.8934997  65.4979988
   9.9890012 129.9994997  64.3909988  10.8870012 130.6034997  63.4899988
  11.4830012 131.3984997  63.9869988  11.5510012 129.7934997  63.1179988
  10.1820012 131.3454997  62.3659988   9.7230012 132.2654997  62.6969988
  10.9190012 131.6154997  61.6229988   9.1480012 130.6434997  61.4829988
   7.7150012 130.6844997  61.9139988   7.1190012 130.1074997  61.2219988
   7.5520012 130.3634997  62.9329988   7.5040012 131.7364997  61.7979988
   9.3090012 131.2224997  60.0989988  10.3510012 131.0324997  59.8919988
   8.6520012 130.9184997  59.2969988   9.3870012 132.2984997  60.1479988
   9.5470012 129.1664997  61.3659988   9.4750012 128.7284997  62.3509988
  10.5090012 128.9854997  60.9089988   8.7390012 128.6594997  60.8579988
   8.3680012 129.9974997  66.3219988   8.4580012 132.0724997  64.9069988
  10.4730012 131.3704997  69.1409988   9.8100012 130.4904997  69.8669988
   9.9470012 129.2724997  70.0209988   8.7890012 131.3354997  70.5409988
   8.1270012 130.6194997  71.0739988   8.2330012 131.9184997  69.7749988
   9.4240012 132.4134997  71.5259988  10.3660012 132.7934997  71.0749988
   9.7650012 131.9444997  72.4729988   8.6650012 133.6974997  71.9429988
   8.5250012 134.4124997  71.1049988   9.0800012 134.2864997  72.7889988
   7.1790012 133.5114997  72.2829988   6.7040012 132.8204997  71.5529988
   6.7830012 134.5404997  72.1489988   6.7960012 133.1164997  73.7579988
   5.7830012 133.4634997  74.0559988   7.5300012 133.5224997  74.4869988
   6.6250012 131.6044997  73.9549988   7.6390012 131.1714997  74.0869988
   6.1560012 131.0564997  73.1099988   5.9750012 131.1994997  75.2699988
   5.8120012 130.1014997  75.2419988   5.0060012 131.7444997  75.2719988
   6.6710012 131.6054997  76.5489988   5.9940012 132.1644997  77.2119988
   7.9100012 131.3364997  76.9589988   8.2210012 131.7004997  77.9499988
   8.9020012 130.5784997  76.0719988   9.5130012 131.3424997  75.5449988
   8.5130012 129.9114997  75.2729988  10.0460012 129.7724997  76.7599988
  10.7330012 130.5374997  77.1809988  10.5310012 129.1354997  75.9899988
   9.5500012 128.6594997  77.7249988   8.7170012 128.0734997  77.2809988
   9.1250012 129.1724997  78.6149988  10.6630012 127.6974997  78.1999988
  11.2250012 127.2634997  77.3459988  10.1770012 126.9064997  78.8109988
  11.8060012 128.3054997  79.0639988  12.4260012 129.0464997  78.5139988
  12.4900012 127.4634997  79.3029988  11.2990012 129.0134997  80.3189988
  10.4570012 128.4764997  80.8059988  10.9440012 130.0504997  80.1369988
  12.4080012 129.0484997  81.4009988  13.0130012 128.1484997  81.1569988
  12.0770012 128.9494997  82.4569988  13.4170012 130.1934997  81.3799988
  14.0750012 130.0854997  82.2689988  12.8200012 131.1214997  81.5089988
  13.9570012 130.1044997  80.4129988 123.9020012 136.7694997  85.3299988
 123.9360012 137.5154997  84.5079988 124.8280012 136.9584997  85.9129988
 123.1080012 137.0744997  86.0449988 123.8390012 135.4324997  84.6299988
 123.7860012 134.6214997  85.3879988 122.8600012 135.4414997  84.1049988
 124.8890012 135.1224997  83.5159988 125.8980012 135.1774997  83.9779988
 124.7700012 134.0844997  83.1389988 124.9020012 136.0664997  82.3499988
 123.8880012 136.0774997  81.8959988 125.0570012 137.1074997  82.7039988
 126.0820012 135.7864997  81.3919988 126.4520012 136.7234997  80.9239988
 126.9350012 135.4224997  82.0029988 125.6470012 134.6724997  80.3579988
 125.0310012 133.8474997  80.7749988 125.0690012 135.3384997  79.6819988
 126.7500012 134.0794997  79.4609988 127.3200012 134.9794997  79.1469988
 127.3860012 133.3744997  80.0369988 126.1580012 133.3714997  78.2809988
 125.6720012 134.1274997  77.6279988 126.9480012 132.8424997  77.7069988
 125.0840012 132.2604997  78.6929988 125.5220012 131.6594997  79.5179988
 124.0950012 132.7144997  78.9169988 124.8980012 131.1644997  77.5999988
 125.9180012 130.7254997  77.5549988 124.1900012 130.4354997  78.0489988
 124.4700012 131.5254997  76.2139988 123.4240012 131.8884997  76.3049988
 125.0060012 132.4084997  75.8059988 124.5740012 130.2474997  75.2569988
 125.5600012 129.7964997  75.5019988 123.7670012 129.5274997  75.5109988
 124.5240012 130.6434997  73.6809988 125.3190012 131.4084997  73.5459988
 124.7750012 129.7114997  73.1309988 123.2710012 131.3004997  73.1689988
 122.3510012 130.6984997  73.3309988 123.0050012 132.1544997  73.8279988
 123.3370012 131.7594997  71.6929988 124.2270012 132.3804997  71.4549988
 123.4180012 130.8784997  71.0209988 122.1500012 132.5564997  71.2689988
 121.1260012 132.6634997  71.9319988 122.3020012 133.0174997  70.0919988
 121.1930012 133.8264997  69.4809988 120.6150012 133.1374997  68.8289988
 120.5380012 134.3054997  70.2399988 121.6550012 134.9494997  68.5919988
 120.7510012 135.5574997  68.3749988 122.2970012 134.4134997  67.3549988
 123.0680012 133.6714997  67.6509988 121.4270012 133.8984997  66.8939988
 122.7810012 135.4744997  66.5089988 123.7360012 135.1274997  65.3329988
 122.6700012 134.7184997  64.2579988 121.5720012 135.5234997  63.9269988
 120.8580012 134.8304997  63.4329988 121.0560012 135.9704997  64.8039988
 121.9660012 136.7114997  62.9759988 121.1120012 137.3724997  62.9939988
 122.7360012 137.3364997  63.4049988 122.2990012 136.4534997  61.5169988
 122.4560012 137.7464997  60.7649988 121.5650012 138.3524997  60.6919988
 122.9590012 138.3534997  61.5029988 122.9730012 137.5974997  59.8289988
 123.6610012 135.7624997  61.5439988 123.6680012 134.9794997  62.2879988
 124.0040012 135.4324997  60.5749988 124.3820012 136.5154997  61.8259988
 121.1940012 135.5844997  60.8709988 121.4940012 135.4434997  59.8439988
 120.2660012 136.1384997  60.8729988 120.8890012 134.7294997  61.4549988
 124.3160012 136.3794997  64.7819988 124.7220012 134.1144997  65.6999988
 122.6690012 135.8254997  69.1729988 122.3530012 136.4424997  70.2729988
 121.2720012 136.5564997  70.7599988 123.7470012 136.6344997  70.9549988
 124.3740012 137.3044997  70.3289988 124.2090012 135.6484997  71.1789988
 123.6860012 137.3904997  72.2639988 122.8250012 136.9844997  72.8359988
 123.5470012 138.4244997  71.8819988 125.0160012 137.4044997  72.9939988
 124.8410012 138.1244997  73.8219988 125.8230012 137.8524997  72.3759988
 125.4310012 136.0284997  73.5589988 126.3200012 136.3644997  74.1339988
 125.7440012 135.3604997  72.7279988 124.4620012 135.2454997  74.3879988
 125.0170012 134.3954997  74.8389988 123.5910012 134.8154997  73.8489988
 123.8250012 136.0154997  75.5619988 123.3400012 136.9474997  75.2019988
 124.6720012 136.2914997  76.2259988 122.7240012 135.1574997  76.3119988
 122.4890012 135.7774997  77.2029988 123.1600012 134.2654997  76.8099988
 121.3720012 134.9904997  75.6339988 121.1840012 135.4654997  74.6589988
 120.3040012 134.3524997  76.1029988 119.4060012 134.1964997  75.4869988
 120.2230012 133.6814997  77.4289988 121.2210012 133.6334997  77.9149988
 119.8280012 132.6464997  77.3379988 119.3710012 134.5074997  78.3869988
 118.3520012 134.4574997  77.9469988 119.6990012 135.5674997  78.4449988
 119.1860012 133.7874997  79.7929988 118.8040012 132.7524997  79.6659988
 118.3920012 134.3994997  80.2719988 120.4440012 133.7354997  80.6879988
 121.2210012 133.0894997  80.2249988 119.9900012 133.2904997  81.5989988
 121.1750012 135.0404997  80.9599988 121.9980012 135.1004997  80.2159988
 121.8000012 134.8524997  81.8589988 120.3030012 136.2524997  81.3479988
 119.6770012 136.0824997  82.2499988 119.6180012 136.6604997  80.5729988
 121.2760012 137.3404997  81.6959988 121.9670012 137.5964997  80.8649988
 121.9920012 137.1614997  82.5269988 120.5970012 138.7344997  81.9429988
 121.3190012 139.5264997  82.2369988 119.9620012 138.5324997  82.8319988
 119.9640012 139.1504997  81.1299988  24.3770012 139.1504997  82.4989988
  23.9440012 138.8964997  83.4899988  23.5580012 139.2774997  81.7579988
  24.8410012 140.1424997  82.6809988  25.3590012 138.1094997  81.9299988
  26.2270012 138.1204997  82.6229988  24.8440012 137.1254997  81.8979988
  25.9810012 138.5254997  80.5399988  26.6530012 139.3914997  80.7209988
  26.4830012 137.6834997  80.0179988  24.9680012 138.9884997  79.3909988
  25.5120012 138.7334997  78.4559988  23.9640012 138.5324997  79.5299988
  24.7290012 140.4994997  79.3469988  23.7440012 140.6264997  78.8489988
  24.4510012 140.9364997  80.3309988  25.8050012 141.3854997  78.7149988
  25.5590012 142.4214997  79.0319988  26.8030012 141.0034997  79.0209988
  25.7820012 141.4064997  77.1749988  26.5680012 142.0964997  76.7989988
  25.9220012 140.4244997  76.6749988  24.5370012 142.1984997  76.7499988
  23.6650012 141.5174997  76.8469988  24.4640012 143.0774997  77.4249988
  24.4800012 142.5814997  75.2009988  25.4840012 143.0114997  74.9989988
  24.2970012 141.6644997  74.6009988  23.3650012 143.5734997  74.8129988
  23.2610012 144.1844997  75.7349988  23.5310012 144.1254997  73.8629988
  22.0940012 142.9404997  74.3209988  22.4410012 142.0834997  73.7059988
  21.5890012 142.7014997  75.2819988  21.0690012 143.7584997  73.5269988
  20.2480012 143.1254997  73.1279988  20.6490012 144.5014997  74.2379988
  21.7520012 144.5674997  72.3019988  20.8930012 144.9314997  71.6979988
  22.3680012 145.4104997  72.6819988  22.6350012 143.6464997  71.3669988
  23.5340012 143.2784997  71.9069988  22.1420012 142.7274997  70.9869988
  22.9140012 144.5104997  70.1639988  21.9290012 144.4594997  69.6509988
  23.0320012 145.5934997  70.3789988  23.9320012 143.9704997  69.2089988
  25.0590012 144.4234997  69.0279988  23.4770012 142.8304997  68.6169988
  24.4930012 142.1694997  67.7859988  24.9080012 142.6734997  66.8869988
  25.3900012 142.0674997  68.4339988  23.9240012 140.8334997  67.2279988
  24.7620012 140.2584997  66.7799988  22.8550012 141.0624997  66.1679988
  22.0050012 141.6514997  66.5729988  23.2670012 141.7264997  65.3779988
  22.3830012 139.8864997  65.5789988  22.8030012 139.1994997  64.2559988
  23.5140012 140.3324997  63.3739988  22.6650012 141.3254997  62.8379988
  22.6430012 141.0784997  61.7549988  21.6110012 141.3044997  63.1879988
  23.1670012 142.8294997  63.0939988  22.5560012 143.6134997  62.6709988
  23.0670012 142.8904997  64.1669988  24.6650012 143.0884997  62.7999988
  25.5580012 142.2764997  63.6909988  25.3150012 141.2304997  63.5789988
  26.5620012 142.4974997  63.3599988  25.4690012 142.5134997  64.7409988
  24.9270012 142.7574997  61.2949988  24.5440012 141.7544997  61.1789988
  24.5980012 143.4024997  60.4929988  26.0000012 142.6834997  61.1969988
  25.0210012 144.5244997  63.0319988  26.0660012 144.6024997  62.7689988
  24.8910012 144.8794997  64.0439988  24.3780012 145.1214997  62.4029988
  23.7820012 138.1444997  64.5849988  21.5250012 138.7624997  63.6369988
  23.4330012 140.0244997  68.3409988  24.3070012 139.3924997  69.1749988
  25.5000012 139.5454997  69.0769988  23.5070012 138.4014997  70.0129988
  24.0580012 137.6744997  70.6469988  22.8030012 137.7374997  69.4679988
  22.5430012 139.1944997  71.0249988  21.6860012 139.6924997  70.5249988
  23.0430012 140.0614997  71.5059988  21.9160012 138.2814997  72.0559988
  22.5680012 138.2874997  72.9549988  21.8550012 137.2144997  71.7529988
  20.5280012 138.6044997  72.5669988  19.8150012 138.2954997  71.7729988
  20.3150012 139.6944997  72.5909988  20.2120012 137.8344997  73.8519988
  20.7110012 136.8484997  73.7359988  19.1030012 137.7744997  73.8819988
  20.7640012 138.4774997  75.1009988  20.1900012 139.4284997  75.0869988
  21.7440012 138.9404997  74.8579988  20.5930012 137.6974997  76.4039988
  20.9820012 136.6924997  76.1329988  19.5150012 137.7474997  76.6659988
  21.5340012 138.1554997  77.5169988  22.5900012 138.0294997  77.2379988
  21.2470012 138.7514997  78.6889988  22.0890012 138.7724997  79.3959988
  19.8850012 139.1814997  79.2109988  19.9570012 139.5604997  80.2529988
  19.2350012 138.2814997  79.1779988  19.2590012 140.3014997  78.3419988
  18.1980012 140.1234997  78.6169988  19.3590012 140.3284997  77.2349988
  19.5580012 141.7264997  78.8889988  19.4750012 141.6244997  79.9919988
  18.9810012 142.5394997  78.3969988  21.0580012 142.0154997  78.8669988
  21.3130012 141.9114997  77.7909988  21.7220012 141.3244997  79.4289988
  21.3340012 143.4674997  79.2799988  20.4510012 144.1104997  79.4849988
  21.9440012 144.0574997  78.5629988  22.2440012 143.5104997  80.5299988
  22.1810012 144.5374997  80.9509988  23.2620012 143.4444997  80.0879988
  21.8230012 142.6694997  81.6859988  22.0190012 141.5844997  81.5489988
  20.7430012 142.8664997  81.8559988  22.5080012 143.0804997  82.9389988
  22.0420012 142.4744997  83.7449988  22.3510012 144.1524997  83.1859988
  23.5930012 142.9314997  82.7529988   4.7870012 124.5814997  82.4209988
   5.3390012 125.4124997  81.9339988   5.4480012 124.2044997  83.2309988
   3.8530012 124.9614997  82.8879988   4.2360012 123.5704997  81.5119988
   4.9680012 123.3314997  80.7109988   4.1390012 122.6154997  82.0719988
   2.8300012 123.9374997  80.9799988   2.4060012 122.9954997  80.5729988
   2.1050012 124.2974997  81.7399988   2.8420012 124.9754997  79.7639988
   2.0260012 125.6924997  79.9969988   3.8310012 125.4794997  79.8179988
   2.5940012 124.3734997  78.3609988   3.5800012 124.1024997  77.9259988
   2.0480012 123.4074997  78.4149988   1.9150012 125.3084997  77.3479988
   2.3410012 126.3304997  77.4369988   2.2760012 124.9554997  76.3589988
   0.4030012 125.3214997  77.4069988  -0.0359988 124.3594997  77.0659988
   0.0400012 125.4404997  78.4499988  -0.2429988 126.5944997  76.8659988
  -1.3029988 126.6174997  77.1999988   0.2850012 127.4514997  77.3359988
  -0.1429988 126.7044997  75.3609988  -0.4059988 127.7464997  75.0799988
   0.8710012 126.3894997  75.0349988  -1.1079988 125.7904997  74.5699988
  -1.2029988 124.8014997  75.0669988  -2.0839988 126.3094997  74.6779988
  -0.7269988 125.5434997  73.1149988  -1.5579988 124.9284997  72.7099988
  -0.8519988 126.4694997  72.5129988   0.5300012 124.7184997  72.9779988
   1.3980012 125.0094997  73.6069988   0.2890012 123.6464997  73.1409988
   0.9600012 124.6954997  71.4759988   1.6420012 123.8464997  71.2559988
   0.0140012 124.4404997  70.9519988   1.4950012 125.9944997  70.9769988
   0.8070012 126.8424997  71.1819988   2.3800012 126.2064997  71.6149988
   1.9390012 125.8104997  69.5769988   2.7340012 125.0354997  69.5569988
   1.2160012 125.4194997  68.8289988   2.3850012 127.1174997  69.0539988
   2.9270012 127.9544997  69.7469988   2.1260012 127.3474997  67.7369988
   2.5220012 128.6024997  67.1559988   1.7460012 128.8554997  66.4029988
   2.5370012 129.4404997  67.8859988   3.8700012 128.4284997  66.4339988
   4.2150012 129.3454997  65.9099988   3.7450012 127.3054997  65.3969988
   2.7980012 127.4384997  64.8309988   4.4650012 127.4374997  64.5619988
   3.8350012 125.9694997  65.9959988   3.8190012 124.7364997  64.9029988
   2.7910012 125.3134997  63.8469988   1.3500012 125.3794997  64.2369988
   0.9970012 124.5534997  64.8909988   1.1220012 126.3664997  64.6929988
   0.3460012 125.3534997  63.0869988   0.2820012 124.3664997  62.6549988
  -0.6129988 125.4934997  63.5629988   0.5770012 126.2724997  61.8989988
   0.7980012 127.7424997  62.1909988   0.7670012 128.3984997  61.3339988
   0.0880012 128.0894997  62.9269988   1.6940012 127.8774997  62.7789988
   1.8040012 125.6104997  61.1969988   2.5400012 125.5684997  61.9869988
   1.6490012 124.6154997  60.8059988   1.9660012 126.2724997  60.3589988
  -0.6689988 126.0684997  61.0079988  -0.3859988 126.6174997  60.1219988
  -1.5919988 126.4494997  61.4199988  -0.7279988 125.0434997  60.6719988
   5.1230012 124.6364997  64.2509988   3.2730012 123.5874997  65.5649988
   4.8700012 128.0524997  67.3899988   6.0780012 127.9844997  67.0649988
   6.5440012 128.3604997  65.9969988   6.8210012 127.1614997  68.1179988
   7.0750012 127.7384997  69.0329988   7.8480012 127.0094997  67.7209988
   6.0880012 125.8434997  68.5679988   5.8750012 125.2264997  67.6689988
   5.0950012 126.0624997  69.0149988   6.8610012 124.9434997  69.4969988
   7.8690012 124.7304997  69.0809988   6.2620012 124.0224997  69.6639988
   6.9910012 125.5254997  70.9079988   7.6710012 126.4024997  70.9509988
   7.4470012 124.6474997  71.4139988   5.6990012 125.8234997  71.6369988
   5.1340012 124.8674997  71.6339988   5.1230012 126.6104997  71.1059988
   5.9580012 126.3664997  73.0989988   6.7140012 127.1784997  73.1599988
   6.3650012 125.4504997  73.5769988   4.5890012 126.8324997  73.8239988
   4.6400012 126.7344997  74.9299988   3.8940012 125.9754997  73.6939988
   3.9690012 128.0724997  73.2549988   3.9960012 128.0794997  72.1549988
   3.2350012 128.9184997  73.9349988   2.8540012 129.7804997  73.3669988
   2.8280012 128.7794997  75.3889988   2.8730012 127.7444997  75.7909988
   1.8110012 129.1954997  75.5569988   3.6860012 129.6624997  76.2769988
   3.4260012 130.7214997  76.0649988   4.7750012 129.4484997  76.3129988
   3.2610012 129.4154997  77.7629988   3.5900012 128.3854997  78.0189988
   2.1770012 129.2274997  77.9229988   4.0800012 130.2594997  78.6999988
   3.7950012 131.3284997  78.5989988   5.1560012 130.1334997  78.4509988
   4.0250012 129.9404997  80.1449988   4.7920012 130.5544997  80.6639988
   4.1870012 128.8614997  80.3529988   2.6780012 130.1544997  80.9299988
   2.0220012 129.2734997  80.7669988   2.1430012 131.0084997  80.4599988
   2.8160012 130.5474997  82.4449988   1.8400012 130.6414997  82.9679988
   3.0570012 131.6304997  82.3759988   3.8150012 129.7474997  83.3299988
   4.0140012 128.6954997  83.0309988   3.3520012 129.7114997  84.3389988
   4.7760012 130.2984997  83.4059988  31.7960012   4.4814997  85.4709988
  30.9250012   5.0564997  85.8519988  32.5250012   5.1954997  85.0309988
  32.2580012   4.1364997  86.4199988  31.5750012   3.3244997  84.5339988
  32.4860012   2.6894997  84.5559988  30.7780012   2.6614997  84.9349988
  31.3470012   3.6894997  83.0509988  30.5080012   4.4174997  83.0849988
  32.1970012   4.1724997  82.5239988  30.8130012   2.4614997  82.3059988
  31.6980012   1.7904997  82.3329988  29.8980012   1.9384997  82.6569988
  30.4800012   2.6004997  80.7349988  29.5980012   3.2754997  80.7359988
  31.3510012   2.9764997  80.1569988  30.0180012   1.2764997  80.0859988
  30.7360012   0.4584997  80.3119988  29.0410012   1.0824997  80.5779988
  29.9520012   1.2924997  78.5659988  30.8590012   1.4184997  77.9369988
  29.3810012   0.4144997  78.1929988  29.0460012   2.5234997  78.1319988
  28.1660012   2.5934997  78.8059988  29.7000012   3.4204997  78.1619988
  28.4420012   2.3944997  76.7439988  27.9070012   1.4254997  76.6449988
  27.6930012   3.2154997  76.7429988  29.4120012   2.4614997  75.5689988
  29.8320012   3.4894997  75.5609988  30.2480012   1.7524997  75.7529988
  28.6570012   2.1434997  74.2349988  28.2170012   1.1234997  74.2409988
  27.8360012   2.8524997  73.9929988  29.5430012   2.1454997  73.0019988
  30.2520012   1.3084997  73.1819988  28.8920012   1.9914997  72.1159988
  30.3570012   3.4994997  72.8459988  29.6100012   4.3064997  73.0029988
  31.0800012   3.4894997  73.6889988  31.1050012   3.6594997  71.4989988
  30.3370012   3.7774997  70.7039988  31.7740012   4.5384997  71.6119988
  31.9320012   2.3264997  71.2739988  32.4020012   2.1054997  72.2559988
  31.3770012   1.3794997  71.0989988  33.1390012   2.3924997  70.2759988
  34.0110012   3.2614997  70.2809988  33.0270012   1.4844997  69.4409988
  34.1440012   1.5244997  68.5779988  34.2580012   2.5294997  68.1189988
  35.0220012   1.2424997  69.1969988  34.0140012   0.5214997  67.4199988
  34.9790012   0.4134997  66.8799988  32.9050012   1.1924997  66.5179988
  31.9330012   1.2484997  67.0529988  33.1300012   2.2494997  66.2619988
  32.8120012   0.5344997  65.2909988  31.3800012   0.2694997  64.6709988
  31.1930012   1.5024997  63.6689988  30.0650012   1.7474997  62.8929988
  30.4080012   1.5044997  61.8649988  29.2640012   1.0034997  63.0909988
  29.3790012   3.2004997  63.0399988  28.4470012   3.2784997  62.4989988
  29.2400012   3.3304997  64.1029988  30.2380012   4.3494997  62.4859988
  31.4990012   4.4414997  63.1279988  32.0220012   5.3674997  62.9379988
  31.4930012   4.2654997  64.1939988  32.1600012   3.7234997  62.6649988
  30.4150012   4.2024997  60.9639988  31.1190012   3.4534997  60.6299988
  29.4280012   4.0774997  60.5439988  30.8340012   5.1364997  60.6199988
  29.3580012   5.5504997  62.6269988  28.7860012   5.4314997  63.5349988
  28.5060012   5.5724997  61.9629988  30.0120012   6.4074997  62.5559988
  31.3830012  -0.8795003  63.7419988  30.3090012   0.3474997  65.6679988
  33.4490012  -0.7005003  67.8339988  34.2190012  -1.5665003  68.5409988
  35.3990012  -1.4495003  68.7459988  33.3640012  -2.8035003  68.9499988
  34.0180012  -3.6965003  69.0439988  32.6440012  -2.9695003  68.1199988
  32.6010012  -2.6565003  70.2679988  32.1350012  -3.6445003  70.4709988
  31.9490012  -1.8065003  69.9729988  33.3700012  -2.3455003  71.6099988
  34.1600012  -3.1205003  71.7079988  32.6210012  -2.5945003  72.3919988
  33.8450012  -0.9155003  71.7599988  32.9210012  -0.2975003  71.7579988
  34.3270012  -0.5965003  70.8109988  34.6960012  -0.6775003  73.0259988
  35.7770012  -0.8745003  72.8659988  34.3190012  -1.3155003  73.8539988
  34.6420012   0.8274997  73.4499988  33.5730012   0.9744997  73.7139988
  34.6950012   1.4154997  72.5089988  35.7490012   1.2074997  74.4939988
  36.6980012   1.0144997  73.9489988  35.6580012   0.5874997  75.4109988
  35.6930012   2.7194997  74.8499988  36.2420012   3.3394997  74.1259988
  34.8790012   3.2884997  75.6979988  35.0480012   4.3724997  75.7789988
  33.8180012   2.5854997  76.4829988  33.5160012   1.5984997  76.0709988
  32.9800012   3.3144997  76.4939988  34.1120012   2.2294997  77.9519988
  33.1660012   1.9764997  78.4759988  34.6150012   3.1504997  78.3179988
  34.9830012   0.9864997  78.2189988  36.0590012   1.1874997  78.0279988
  34.5660012   0.2694997  77.4789988  34.9030012   0.5264997  79.7049988
  35.4190012   1.2744997  80.3439988  35.6190012  -0.3145003  79.8269988
  33.5730012   0.0374997  80.3249988  33.1970012  -0.5635003  79.4699988
  32.7890012   0.8204997  80.4109988  33.4990012  -0.9245003  81.5689988
  34.0680012  -1.8465003  81.3229988  32.4280012  -1.1175003  81.7959988
  34.0080012  -0.1795003  82.7799988  33.6860012   0.8804997  82.6989988
  35.1140012  -0.2705003  82.7169988  33.3700012  -0.6955003  84.0819988
  33.3840012  -1.8015003  84.1849988  32.2920012  -0.4295003  84.0599988
  33.8300012  -0.2955003  85.0109988   6.5410012  21.5254997  84.4259988
   5.6850012  22.1084997  84.8279988   7.4030012  22.2274997  84.4189988
   6.6420012  20.6624997  85.1179988   6.3210012  21.1714997  82.9669988
   7.1530012  20.6404997  82.4559988   5.5810012  20.3434997  82.9919988
   5.6910012  22.3434997  82.0639988   5.1550012  23.0644997  82.7169988
   6.5900012  22.8094997  81.6049988   4.7350012  21.8284997  80.9839988
   5.2980012  21.0454997  80.4329988   3.9060012  21.2264997  81.4139988
   4.0710012  22.6934997  79.9099988   3.0290012  22.4384997  79.6189988
   3.8930012  23.6574997  80.4329988   4.9070012  22.8734997  78.6829988
   5.9540012  23.0134997  79.0249988   4.8070012  22.0874997  77.9049988
   4.6360012  24.1784997  77.8289988   3.5900012  24.4754997  77.5989988
   5.0030012  24.9824997  78.5019988   5.3280012  24.2914997  76.4779988
   6.4070012  24.3474997  76.7359988   5.0650012  23.4234997  75.8359988
   4.9030012  25.5254997  75.6229988   3.8900012  25.2494997  75.2619988
   4.9180012  26.4054997  76.3009988   5.8430012  25.8164997  74.4799988
   5.4630012  26.6404997  73.8389988   6.8070012  26.2124997  74.8649988
   6.1560012  24.6404997  73.5369988   6.6490012  23.8104997  74.0859988
   5.1990012  24.1724997  73.2199988   7.0260012  24.8994997  72.2489988
   6.5720012  25.6484997  71.5659988   7.9400012  25.4414997  72.5749988
   7.2980012  23.6284997  71.4969988   7.6790012  22.7854997  72.1119988
   6.3480012  23.2834997  71.0359988   8.4810012  23.6304997  70.3779988
   9.3460012  23.7414997  71.0669988   8.3350012  22.7104997  69.7729988
   8.5060012  24.7174997  69.3219988   7.5070012  24.7454997  68.8389988
   8.7440012  25.6914997  69.8009988   9.6310012  24.4654997  68.2889988
  10.6670012  25.1054997  68.2169988   9.3500012  23.4424997  67.5159988
  10.3100012  23.1194997  66.5099988  10.0790012  23.7034997  65.5939988
  11.3740012  23.2944997  66.7749988  10.1960012  21.5984997  66.3429988
  11.0750012  21.3034997  65.7309988   8.9100012  21.3094997  65.4069988
   8.8930012  22.0254997  64.5579988   9.1240012  20.3334997  64.9209988
   7.6400012  21.5354997  66.1349988   6.3160012  21.0854997  65.4389988
   6.3050012  21.8604997  64.0809988   5.4860012  23.0554997  63.9509988
   4.4260012  22.8474997  63.6889988   5.5470012  23.7684997  64.8009988
   6.1290012  23.8214997  62.8189988   5.6310012  24.7774997  62.7539988
   7.1890012  23.9664997  62.9639988   6.1000012  23.1584997  61.3879988
   6.6970012  21.7314997  61.2889988   6.3070012  21.2044997  62.1469988
   6.3800012  21.3764997  60.3199988   7.7720012  21.8354997  61.2629988
   4.6550012  23.1914997  61.0849988   4.1880012  24.1204997  60.7919988
   4.4530012  22.6894997  60.1499988   4.1160012  22.7004997  61.8819988
   6.8620012  24.1504997  60.5279988   7.8770012  23.7904997  60.4509988
   6.6970012  25.1754997  60.8269988   6.4260012  23.9524997  59.5599988
   6.3720012  19.6354997  65.1949988   5.1940012  21.5684997  66.2719988
  10.1460012  21.0154997  67.6519988  10.4250012  19.6844997  67.6999988
  10.4020012  18.9194997  66.8179988  10.7380012  19.2124997  69.1229988
  10.5720012  20.1104997  69.7559988  11.8010012  18.8914997  69.1649988
   9.7040012  18.0614997  69.4029988  10.2230012  17.0984997  69.2079988
   8.7790012  18.2024997  68.8049988   9.1570012  17.9374997  70.8319988
  10.0270012  17.9254997  71.5229988   8.6160012  16.9774997  70.9679988
   8.2230012  19.1124997  71.2169988   7.2920012  18.9244997  70.6399988
   8.6470012  20.1054997  70.9539988   7.9750012  19.2034997  72.7679988
   7.6040012  18.2054997  73.0849988   7.1200012  19.8664997  73.0219988
   9.2120012  19.5274997  73.6399988   9.9780012  18.7494997  73.4349988
   8.9450012  19.6264997  74.7139988   9.9010012  20.8584997  73.1449988
   9.1760012  21.6994997  73.1379988  10.1030012  20.7384997  72.0589988
  11.0970012  21.2404997  73.9839988  11.9660012  20.5654997  73.9609988
  11.1590012  22.1874997  74.8529988  12.1350012  22.3844997  75.3199988
  10.1330012  23.2284997  75.3179988   9.2650012  23.2444997  74.6249988
  10.6570012  24.1974997  75.4629988   9.5890012  22.6604997  76.7159988
   9.4790012  21.5594997  76.6169988   8.5600012  23.0784997  76.7249988
  10.5050012  23.0344997  77.9879988  10.5120012  24.1324997  78.1559988
  11.5790012  22.7544997  77.9439988   9.9870012  22.2664997  79.2889988
   9.7900012  21.2014997  79.0439988   8.9950012  22.6744997  79.5769988
  10.8420012  22.1014997  80.5789988  11.9190012  22.3134997  80.4069988
  10.7620012  21.1204997  81.0939988  10.3090012  23.0764997  81.7159988
  11.0170012  23.0014997  82.5689988   9.3170012  22.6924997  82.0349988
  10.1740012  24.5904997  81.4049988   9.5390012  24.6844997  80.4979988
  11.2050012  24.9504997  81.1999988   9.6520012  25.4644997  82.5559988
   9.7260012  26.4944997  82.1449988  10.3510012  25.2234997  83.3849988
   8.6070012  25.3244997  82.9059988 144.2960012 118.8394997  84.6729988
 144.1010012 118.0204997  85.3969988 143.4450012 119.5324997  84.8479988
 145.2410012 119.3134997  85.0149988 144.3180012 118.5444997  83.1669988
 145.2930012 118.0574997  82.9489988 143.5590012 117.7854997  82.8799988
 144.0430012 119.7334997  82.2909988 142.9780012 120.0464997  82.3269988
 144.7330012 120.5344997  82.6329988 144.3770012 119.4114997  80.7959988
 144.0950012 120.3204997  80.2239988 145.4750012 119.3314997  80.6429988
 143.8060012 118.1934997  80.1239988 144.3670012 118.0314997  79.1779988
 144.0700012 117.2914997  80.7159988 142.2700012 118.3144997  79.9379988
 141.9140012 118.1624997  80.9799988 142.0820012 119.3444997  79.5659988
 141.6140012 117.2264997  79.0219988 141.5590012 116.2454997  79.5409988
 140.5700012 117.5804997  78.8869988 142.2330012 117.0124997  77.5919988
 143.2590012 116.6294997  77.7809988 141.6070012 116.2404997  77.0959988
 142.2610012 118.1804997  76.6889988 141.2500012 118.5974997  76.4939988
 142.8700012 118.9694997  77.1799988 143.0760012 117.8784997  75.3759988
 143.5730012 118.7904997  74.9799988 144.0470012 117.4764997  75.7339988
 142.2680012 117.0624997  74.3999988 141.8040012 116.1884997  74.9059988
 141.4490012 117.6934997  73.9949988 143.0760012 116.6084997  73.2019988
 143.8170012 117.3934997  72.9389988 143.6340012 115.6844997  73.4679988
 142.3210012 116.4084997  71.8589988 141.4700012 115.7014997  71.9569988
 141.9730012 117.3614997  71.4079988 143.1440012 115.8194997  70.7229988
 143.6100012 114.8144997  70.8039988 142.4260012 115.7094997  69.8819988
 144.3040012 116.8764997  70.3239988 144.8390012 117.2244997  71.2329988
 144.9830012 116.4334997  69.5639988 143.7690012 118.2294997  69.7139988
 143.6350012 119.2744997  70.3399988 143.5390012 117.9294997  68.5279988
 143.2670012 119.0674997  67.7689988 142.3840012 119.7134997  67.9649988
 144.1090012 119.7884997  67.8499988 143.1560012 118.7204997  66.2269988
 144.0130012 118.1824997  65.7679988 143.0700012 119.9884997  65.3259988
 142.2250012 120.5914997  65.7219988 143.9570012 120.6364997  65.4909988
 142.9890012 119.7224997  63.9589988 141.6220012 119.5984997  63.2289988
 140.5680012 120.1354997  64.2939988 139.8150012 121.3154997  63.9339988
 139.4410012 121.8574997  64.8289988 140.4410012 122.1254997  63.5029988
 138.7250012 120.9104997  62.9699988 138.3960012 121.8564997  62.5649988
 139.1350012 120.4234997  62.0979988 137.5740012 119.9794997  63.5539988
 138.1450012 118.6254997  63.8909988 138.4800012 118.1374997  62.9879988
 138.9620012 118.7544997  64.5849988 137.3510012 117.9894997  64.2539988
 136.9340012 120.6684997  64.7479988 136.0480012 120.2364997  65.1889988
 137.6850012 120.9334997  65.4759988 136.5980012 121.6484997  64.4409988
 136.4170012 119.7764997  62.5389988 136.7420012 119.1024997  61.7609988
 136.0860012 120.7654997  62.2579988 135.5920012 119.2574997  63.0049988
 141.7290012 120.4794997  62.0719988 141.3700012 118.1574997  62.9899988
 141.8980012 117.9154997  66.0029988 141.8490012 116.6854997  66.3149988
 142.7430012 116.0204997  66.7789988 140.4930012 116.2064997  65.8999988
 140.5950012 115.4744997  65.0699988 139.8760012 117.0424997  65.5089988
 139.6060012 115.6004997  67.0359988 140.0950012 114.6974997  67.4579988
 138.6380012 115.3614997  66.5459988 139.2260012 116.6184997  68.0989988
 138.6900012 117.4814997  67.6489988 140.1450012 117.0124997  68.5819988
 138.4320012 116.0324997  69.2669988 138.8720012 115.0984997  69.6759988
 137.4490012 115.7284997  68.8469988 138.1990012 117.1704997  70.2539988
 137.6190012 117.9124997  69.6649988 139.1810012 117.5614997  70.5989988
 137.3940012 116.7064997  71.4639988 138.0580012 115.9544997  71.9399988
 136.4320012 116.2684997  71.1219988 137.0030012 117.8414997  72.5099988
 136.8620012 117.4254997  73.5309988 136.0630012 118.1534997  72.0059988
 137.8900012 119.0734997  72.6379988 137.9220012 119.6164997  71.6819988
 138.5680012 119.5794997  73.6689988 139.3130012 120.3704997  73.4979988
 138.6070012 119.0334997  75.0299988 139.3880012 119.4744997  75.6849988
 138.8580012 117.9514997  75.0099988 137.2640012 119.1344997  75.7649988
 137.0360012 118.1284997  76.1779988 136.4680012 119.3524997  75.0209988
 137.2540012 120.2834997  76.7929988 137.3430012 121.1934997  76.1619988
 138.1550012 120.2024997  77.4379988 135.8680012 120.4354997  77.4299988
 135.4350012 119.4424997  77.6769988 135.2120012 120.7594997  76.5939988
 135.6640012 121.6094997  78.4919988 134.5840012 121.8454997  78.6049988
 136.2090012 122.5274997  78.1839988 136.1160012 121.3024997  79.9169988
 135.5060012 121.9484997  80.5839988 137.1910012 121.4794997  80.1379988
 135.7170012 119.8684997  80.3419988 136.5140012 119.2024997  79.9469988
 134.7780012 119.5134997  79.8659988 135.4260012 119.6774997  81.8919988
 135.3340012 118.5864997  82.0829988 134.4610012 120.1874997  82.0969988
 136.3380012 119.9704997  82.4539988 127.5970012   1.3014997  80.8059988
 126.9750012   2.0364997  80.2529988 127.3830012   1.2724997  81.8959988
 127.3000012   0.3184997  80.3829988 129.0420012   1.6294997  80.5389988
 129.0180012   2.6424997  80.9959988 129.6300012   1.0094997  81.2489988
 129.6490012   1.5574997  79.1629988 129.6820012   0.4734997  78.9189988
 129.0720012   1.9934997  78.3199988 131.0200012   2.2354997  79.2239988
 130.9990012   3.3054997  79.5239988 131.6720012   1.8214997  80.0229988
 131.8710012   2.0344997  77.9619988 132.8780012   2.4624997  78.1559988
 131.8720012   0.9364997  77.7939988 131.4920012   2.9154997  76.7819988
 132.0770012   2.6334997  75.8809988 130.4710012   2.7114997  76.3939988
 131.9510012   4.4404997  76.8629988 131.4030012   4.9204997  77.7019988
 133.0320012   4.4144997  77.1189988 131.7670012   5.2694997  75.5349988
 132.1160012   6.2994997  75.7629988 132.3690012   4.8474997  74.7009988
 130.2850012   5.4324997  75.2229988 129.7510012   4.4874997  75.4629988
 129.9170012   6.1914997  75.9459988 130.0300012   5.9934997  73.8499988
 128.9220012   5.9924997  73.7589988 130.4120012   7.0294997  73.7249988
 130.5930012   5.1584997  72.6789988 131.6920012   5.2964997  72.5999988
 130.3900012   4.0794997  72.8479988 129.9430012   5.5284997  71.2729988
 128.8340012   5.5534997  71.3419988 130.3350012   6.5524997  71.0949988
 130.3410012   4.7544997  69.9939988 129.5770012   4.0154997  69.6699988
 130.5170012   5.5184997  69.2069988 131.5860012   3.8084997  69.9139988
 132.4310012   4.3864997  70.3449988 131.5030012   2.9504997  70.6149988
 131.8960012   3.4094997  68.4189988 131.8120012   4.3174997  67.7839988
 132.9700012   3.1484997  68.3129988 130.9890012   2.2754997  67.9459988
 130.2490012   1.6224997  68.6329988 131.0690012   2.2034997  66.6079988
 129.9730012   1.4034997  66.0889988 130.2140012   0.9614997  65.0979988
 129.7890012   0.4874997  66.6889988 128.6680012   2.2394997  65.7959988
 128.0200012   1.5744997  65.1849988 129.0070012   3.5114997  64.8969988
 129.8680012   3.4214997  64.1999988 128.1910012   3.6804997  64.1619988
 129.1580012   4.6844997  65.8049988 130.1570012   5.7784997  65.4649988
 129.2660012   6.5304997  64.4029988 129.8040012   7.2854997  63.3049988
 130.0980012   8.3024997  63.6429988 130.7490012   6.8064997  62.9709988
 129.0010012   7.4384997  61.9519988 128.2580012   8.1954997  62.1609988
 129.7300012   7.6674997  61.1889988 128.1370012   6.2874997  61.5689988
 127.0220012   6.2944997  62.4959988 126.3280012   7.1024997  62.3159988
 126.3460012   5.5144997  62.1799988 127.2990012   6.3444997  63.5389988
 127.5920012   6.6184997  60.1759988 128.4640012   6.9184997  59.6139988
 127.1020012   5.7434997  59.7749988 126.9640012   7.4954997  60.2409988
 128.9560012   5.0384997  61.4939988 129.6400012   5.2704997  60.6899988
 128.2750012   4.2234997  61.2989988 129.3950012   4.8814997  62.4679988
 130.3640012   6.5944997  66.6959988 131.4370012   5.3264997  64.8199988
 128.1040012   2.5134997  67.0519988 126.8990012   3.0924997  67.1579988
 126.2370012   3.4804997  66.2199988 126.6040012   3.3954997  68.6229988
 127.4490012   3.9794997  69.0479988 126.4760012   2.4234997  69.1449988
 125.5010012   4.3984997  68.7599988 125.2100012   4.4904997  69.8279988
 124.5750012   4.1544997  68.1949988 125.7590012   5.8554997  68.3559988
 124.8310012   6.3374997  68.7319988 125.8030012   5.9644997  67.2509988
 126.9940012   6.6154997  68.9559988 127.9840012   6.3604997  68.5199988
 127.0650012   6.4124997  70.0459988 126.8990012   8.1794997  68.8059988
 125.8160012   8.4084997  68.8999988 127.2620012   8.4574997  67.7929988
 127.5770012   9.0704997  69.8959988 127.3640012  10.1324997  69.6489988
 128.6870012   9.0214997  69.8539988 127.1160012   8.9824997  71.3509988
 127.6810012   9.7004997  71.9829988 127.3770012   7.9464997  71.6569988
 125.6480012   9.1334997  71.6279988 125.2180012  10.1364997  71.4949988
 124.8900012   8.2524997  72.2369988 123.8580012   8.6084997  72.3739988
 125.1260012   6.8714997  72.7489988 125.9040012   6.3094997  72.1899988
 124.2270012   6.2224997  72.6649988 125.4280012   6.8014997  74.1839988
 125.8570012   5.8104997  74.4449988 124.4690012   6.7934997  74.7429988
 126.4130012   7.8624997  74.7499988 125.8920012   8.8424997  74.7749988
 127.1920012   7.8604997  73.9579988 127.0600012   7.4964997  76.0939988
 128.0460012   8.0084997  76.1019988 127.1980012   6.4054997  76.2499988
 126.1980012   8.0294997  77.2769988 125.1650012   7.6764997  77.0719988
 126.0480012   9.1294997  77.3159988 126.8100012   7.7284997  78.6889988
 127.8800012   8.0194997  78.6249988 126.8610012   6.6194997  78.7309988
 126.1540012   8.2774997  79.9119988 126.3310012   7.5654997  80.7459988
 125.0500012   8.2514997  79.7899988 126.6040012   9.6634997  80.4279988
 126.5880012  10.3484997  79.5539988 127.6670012   9.6754997  80.7499988
 125.9140012  10.0554997  81.2049988  21.8490012   8.8004997  81.3679988
  20.8320012   8.7454997  80.9239988  21.8100012   9.7114997  82.0029988
  22.0420012   7.9704997  82.0819988  22.9060012   8.8154997  80.2289988
  22.3820012   9.2134997  79.3339988  23.7340012   9.4644997  80.5859988
  23.3830012   7.3364997  79.9319988  24.1160012   7.0104997  80.6999988
  22.5520012   6.5984997  79.9579988  24.2230012   7.2364997  78.6179988
  23.5390012   7.4104997  77.7599988  25.0620012   7.9594997  78.7019988
  24.7730012   5.8374997  78.3009988  25.7700012   5.7644997  78.7859988
  24.1500012   5.0844997  78.8279988  24.7720012   5.5104997  76.7659988
  23.9020012   5.9264997  76.2139988  25.7360012   5.9164997  76.3919988
  24.7300012   3.9844997  76.5849988  25.5720012   3.4174997  77.0349988
  23.7120012   3.7194997  76.9439988  24.7010012   3.4984997  75.1679988
  25.6980012   3.6484997  74.7019988  24.4290012   2.4234997  75.1079988
  23.5800012   4.2544997  74.3829988  22.5920012   4.1604997  74.8829988
  23.8630012   5.3044997  74.1539988  23.3870012   3.6724997  72.9049988
  23.3150012   2.5654997  72.9649988  22.3560012   4.0034997  72.6599988
  24.3740012   4.2394997  71.8649988  23.9800012   5.2744997  71.7819988
  25.4430012   4.2354997  72.1699988  24.3100012   3.4614997  70.4719988
  25.3030012   3.7084997  70.0389988  24.3180012   2.3784997  70.7199988
  23.0530012   3.6874997  69.6549988  22.7570012   4.7534997  69.7529988
  23.3010012   3.3154997  68.6379988  21.7520012   2.9394997  69.9949988
  21.9480012   1.8554997  69.8529988  21.6110012   3.1174997  71.0819988
  20.4570012   3.2294997  69.1379988  20.6480012   3.1434997  68.0469988
  19.7300012   2.4504997  69.4519988  19.8650012   4.6214997  69.4829988
  19.5860012   4.9924997  70.6319988  19.7190012   5.2634997  68.3649988
  19.3200012   6.6224997  68.5369988  18.4250012   6.8224997  67.9099988
  19.0970012   6.9354997  69.5789988  20.4730012   7.5244997  68.0459988
  20.1690012   8.5864997  68.1639988  21.1000012   7.2724997  66.5829988
  20.1650012   7.0324997  66.0329988  21.4890012   8.2654997  66.2729988
  22.0570012   6.2294997  66.7159988  22.1380012   5.3084997  65.4499988
  22.3590012   6.3744997  64.3789988  23.6570012   6.6784997  63.8059988
  24.1370012   7.5564997  64.2889988  24.4240012   5.9354997  64.1129988
  23.6390012   6.9144997  62.3009988  23.3020012   7.9204997  62.1019988
  24.6750012   7.0484997  62.0269988  23.0810012   5.8524997  61.4109988
  21.5380012   5.9404997  61.4179988  21.3460012   6.8774997  60.9159988
  21.1160012   5.1864997  60.7709988  21.0850012   5.9534997  62.3979988
  23.6560012   5.9674997  60.0499988  24.7240012   6.1014997  60.1409988
  23.5240012   5.0284997  59.5319988  23.2890012   6.8444997  59.5379988
  23.4470012   4.4704997  61.9409988  23.1320012   4.4264997  62.9729988
  24.5080012   4.2904997  61.8499988  22.8680012   3.7074997  61.4409988
  23.3480012   4.4184997  65.6179988  20.8260012   4.6414997  65.0899988
  21.4760012   7.3814997  69.0799988  22.5230012   8.1904997  68.9879988
  22.6050012   9.2074997  68.3079988  23.5670012   7.4634997  69.8729988
  24.2690012   6.9094997  69.2139988  23.1110012   6.6944997  70.5329988
  24.3350012   8.4304997  70.6569988  24.8410012   9.0964997  69.9259988
  25.1460012   7.9104997  71.2099988  23.4880012   9.2414997  71.5859988
  22.4780012   9.4984997  71.1999988  24.1420012  10.0884997  71.8829988
  23.1160012   8.4894997  72.9309988  23.1140012   9.2564997  73.7349988
  23.7940012   7.6124997  73.0009988  21.7940012   7.7544997  72.7739988
  22.0100012   6.7894997  72.2679988  21.0280012   8.2954997  72.1779988
  21.0670012   7.5714997  74.0959988  21.1230012   8.5874997  74.5419988
  21.6100012   6.8474997  74.7399988  19.5100012   7.2324997  73.8989988
  19.2740012   6.1784997  73.6389988  19.1530012   7.8334997  73.0359988
  18.6510012   7.5764997  75.0939988  18.5600012   8.6524997  75.3029988
  18.1270012   6.6304997  75.9399988  17.5700012   6.9354997  76.8389988
  18.3950012   5.1104997  75.7519988  18.5660012   4.7864997  74.7029988
  17.5500012   4.4754997  76.0959988  19.5040012   4.5494997  76.6509988
  19.2360012   4.6134997  77.7279988  20.5000012   5.0254997  76.5269988
  19.7760012   3.1154997  76.2239988  20.0960012   3.0684997  75.1609988
  18.7960012   2.5934997  76.2579988  20.7680012   2.4614997  77.1629988
  21.6050012   3.1914997  77.1829988  21.1410012   1.5304997  76.6869988
  20.3100012   2.0814997  78.5799988  19.6950012   1.1574997  78.5429988
  19.7540012   2.9514997  78.9899988  21.3750012   1.8514997  79.6009988
  22.2420012   1.3584997  79.1109988  21.0640012   1.1214997  80.3789988
  21.8620012   3.1684997  80.1999988  20.9400012   3.5914997  80.6529988
  22.1730012   3.9794997  79.5079988  22.9570012   2.8994997  81.2589988
  23.0910012   3.8024997  81.8919988  23.9410012   2.6384997  80.8149988
  22.6410012   2.0014997  81.8329988 130.1480012 131.7704997  81.8649988
 129.8070012 131.5894997  82.9069988 129.2500012 132.2304997  81.3999988
 130.9540012 132.5264997  81.7519988 130.6710012 130.4764997  81.2419988
 131.4680012 130.1644997  81.9509988 129.7560012 129.8524997  81.1559988
 131.3480012 130.8354997  79.8729988 132.1810012 131.5034997  80.1779988
 131.7820012 129.9864997  79.3029988 130.4680012 131.6574997  78.9499988
 130.3090012 132.6964997  79.3089988 130.8120012 131.8594997  77.9139988
 129.0820012 131.2184997  78.7729988 128.7000012 130.8074997  79.7319988
 128.4180012 132.0964997  78.6269988 128.9150012 130.2644997  77.6019988
 129.7320012 129.5124997  77.5709988 127.9570012 129.7544997  77.8419988
 128.6130012 130.9314997  76.2339988 128.1910012 130.1324997  75.5859988
 127.7920012 131.6624997  76.3939988 129.7450012 131.6434997  75.5059988
 129.4540012 132.1314997  74.5519988 130.1680012 132.4954997  76.0799988
 130.9910012 130.7254997  75.1149988 131.4340012 130.1674997  75.9669988
 130.5870012 130.0374997  74.3419988 132.1510012 131.4524997  74.4779988
 131.9300012 131.6864997  73.4139988 132.4830012 132.3924997  74.9669988
 133.4120012 130.6364997  74.5589988 133.5260012 130.3184997  75.6169988
 133.2340012 129.7204997  73.9559988 134.6910012 131.2884997  74.0389988
 135.0120012 132.1774997  74.6209988 135.5290012 130.5714997  74.1769988
 134.6660012 131.7034997  72.5409988 133.9040012 131.0554997  72.0589988
 134.2370012 132.7254997  72.4629988 136.0110012 131.5754997  71.8449988
 136.6090012 132.3274997  72.4029988 136.3680012 130.5464997  72.0649988
 135.9570012 131.9424997  70.4159988 135.4180012 132.8884997  70.1949988
 136.9600012 132.0824997  69.9599988 135.2370012 130.8534997  69.5789988
 135.0000012 129.6964997  69.9969988 135.0020012 131.3314997  68.3379988
 134.2920012 130.6534997  67.3609988 134.7510012 131.0264997  66.4199988
 134.5660012 129.5764997  67.3669988 132.7440012 131.0834997  67.3549988
 132.1670012 130.4684997  68.0789988 132.0410012 130.8514997  65.9799988
 132.0340012 129.7504997  65.8249988 131.0200012 131.2814997  65.8979988
 132.8060012 131.4854997  64.9369988 132.4770012 131.0794997  63.4569988
 130.9240012 131.4134997  63.3589988 130.4440012 132.2124997  62.2999988
 131.1030012 132.1794997  61.4069988 129.4160012 131.8854997  62.0329988
 130.3620012 133.6274997  62.7599988 131.2950012 133.8784997  63.2429988
 130.1830012 134.2244997  61.8779988 129.2020012 134.0104997  63.6849988
 129.1870012 133.1514997  64.9479988 128.3920012 133.4344997  65.6219988
 129.1210012 132.1354997  64.5879988 130.1660012 133.2104997  65.4009988
 129.3640012 135.4764997  63.9919988 130.3990012 135.6834997  64.2219988
 129.1210012 135.9784997  63.0669988 128.7960012 135.7084997  64.8799988
 127.9340012 133.9774997  62.8879988 127.8190012 133.0864997  62.2879988
 127.8300012 134.8714997  62.2909988 127.0440012 134.1204997  63.4829988
 133.2150012 131.8704997  62.4429988 132.7410012 129.6544997  63.4129988
 132.7470012 132.4904997  67.6899988 131.6060012 133.0384997  67.9769988
 130.4960012 132.4974997  68.1759988 131.8100012 134.5574997  67.9079988
 130.8480012 135.0764997  67.7139988 132.5440012 134.8134997  67.1139988
 132.2740012 134.9664997  69.3059988 133.3260012 134.6344997  69.4429988
 131.5620012 134.4914997  70.0139988 132.2810012 136.4564997  69.4779988
 131.2330012 136.8154997  69.5579988 132.7850012 136.9664997  68.6289988
 133.0260012 136.9754997  70.7159988 133.4270012 138.0094997  70.6459988
 133.9810012 136.4214997  70.8399988 132.2370012 136.8794997  72.0359988
 132.8730012 137.3144997  72.8359988 132.1640012 135.8464997  72.4399988
 130.9030012 137.5324997  71.9929988 130.1930012 136.9234997  71.3939988
 130.9920012 138.5694997  71.6049988 130.2510012 137.5474997  73.4419988
 129.3780012 138.2304997  73.5179988 131.1260012 137.8504997  74.0559988
 129.8320012 136.1424997  73.8619988 129.6720012 135.5014997  72.9829988
 129.6830012 135.7344997  75.0979988 129.4530012 134.6874997  75.3429988
 129.8890012 136.6004997  76.3479988 129.1550012 136.3604997  77.1459988
 129.7210012 137.6634997  76.0719988 131.2530012 136.5384997  76.9649988
 131.2730012 137.3424997  77.7309988 131.9520012 136.9034997  76.1829988
 131.7360012 135.1794997  77.5359988 132.1740012 134.5654997  76.7199988
 130.8910012 134.5744997  77.9289988 132.8870012 135.3494997  78.4399988
 132.7280012 135.9324997  79.3719988 133.8100012 135.7694997  77.9859988
 133.4560012 134.0174997  79.0109988 133.7000012 133.2984997  78.1999988
 132.7220012 133.4004997  79.5719988 134.8020012 134.1564997  79.8239988
 134.7980012 135.0004997  80.5459988 135.5560012 134.4654997  79.0689988
 135.2170012 132.8464997  80.3839988 135.1590012 132.0464997  79.6149988
 134.6380012 132.6084997  81.3009988 136.6820012 132.8044997  80.9569988
 137.0120012 131.7614997  80.7649988 136.8140012 133.0684997  82.0279988
 137.3370012 133.3884997  80.2749988 131.4260012  13.7904997  81.7029988
 131.6160012  13.5364997  82.7679988 130.3260012  13.6414997  81.6539988
 131.7640012  14.8364997  81.5409988 132.2230012  12.8774997  80.8259988
 132.1700012  13.2674997  79.7869988 133.2810012  13.0384997  81.1219988
 131.8740012  11.3344997  80.8489988 132.0080012  10.8464997  81.8379988
 130.8060012  11.2914997  80.5449988 132.6070012  10.4244997  79.8249988
 132.2770012   9.3834997  80.0289988 132.2500012  10.7254997  78.8169988
 134.1060012  10.6054997  79.9339988 134.3280012  11.6884997  79.8209988
 134.4350012  10.3164997  80.9549988 134.9340012   9.8694997  78.8299988
 135.9560012  10.2834997  78.9669988 134.7370012   8.7894997  78.9999988
 134.5830012  10.2944997  77.3889988 133.6010012   9.8634997  77.0999988
 134.4370012  11.3924997  77.3119988 135.7020012   9.9754997  76.4119988
 136.6200012  10.5354997  76.6889988 136.0420012   8.9194997  76.4669988
 135.2740012  10.0874997  74.8649988 134.4690012   9.3594997  74.6309988
 134.8520012  11.1134997  74.7959988 136.4010012   9.8874997  73.8719988
 137.2710012  10.5034997  74.1829988 136.6390012   8.8024997  73.8889988
 136.2090012  10.1944997  72.3539988 135.8670012  11.2344997  72.1659988
 137.2550012  10.1964997  71.9799988 135.3000012   9.0464997  71.7899988
 135.5870012   8.0894997  72.2779988 134.2270012   9.1774997  72.0479988
 135.3990012   9.0104997  70.2269988 136.3920012   8.6204997  69.9189988
 134.6270012   8.2664997  69.9349988 135.0590012  10.3684997  69.4999988
 134.6360012  11.0444997  70.2739988 135.9370012  10.6994997  68.9059988
 133.9400012  10.2164997  68.4499988 134.3820012   9.6734997  67.5879988
 133.1500012   9.5724997  68.8919988 133.4670012  11.6104997  67.9819988
 133.6680012  12.5834997  68.6919988 132.6990012  11.5274997  66.9269988
 132.0020012  12.6524997  66.4859988 130.9350012  12.3634997  66.3739988
 132.0490012  13.4804997  67.2259988 132.6810012  13.1514997  65.1769988
 132.1240012  13.9824997  64.6929988 132.7920012  12.0584997  64.0369988
 133.3180012  11.1614997  64.4279988 131.7770012  11.6844997  63.7839988
 133.2500012  12.5564997  62.8649988 134.3290012  11.9264997  61.9179988
 135.5010012  11.4784997  62.8819988 136.5360012  12.3594997  63.3239988
 137.3500012  12.6364997  62.6199988 136.1410012  13.3954997  63.3859988
 136.9790012  11.9044997  64.7989988 137.5900012  12.7154997  65.1659988
 136.0160012  11.7764997  65.2699988 137.7650012  10.6314997  64.9639988
 136.8820012   9.4264997  64.7339988 135.9740012   9.5284997  65.3099988
 136.5330012   9.3684997  63.7129988 137.4350012   8.5304997  64.9739988
 138.8990012  10.6744997  63.9299988 138.5930012  10.7734997  62.8989988
 139.4990012  11.5364997  64.1829988 139.4500012   9.7564997  64.0679988
 138.2400012  10.6054997  66.4269988 138.8790012   9.7414997  66.5299988
 137.3150012  10.5004997  66.9749988 138.7290012  11.5254997  66.7139988
 133.8280012  10.7474997  61.2879988 134.8690012  12.9844997  61.0499988
 133.9870012  13.6034997  65.4989988 134.1740012  14.7284997  66.2509988
 133.3330012  15.4364997  66.7799988 135.6630012  14.9334997  66.5199988
 136.0700012  15.4274997  65.6119988 136.1500012  13.9514997  66.6979988
 135.8630012  15.9224997  67.6809988 135.0830012  16.7074997  67.7839988
 136.8820012  16.3564997  67.7689988 135.6330012  15.2654997  69.0739988
 136.4890012  14.6094997  69.3409988 134.7420012  14.6264997  68.8919988
 135.4720012  16.2344997  70.2369988 134.6870012  16.8894997  69.8019988
 136.4380012  16.7334997  70.4649988 134.9000012  15.5594997  71.5279988
 133.9690012  15.0414997  71.2139988 134.6210012  16.3824997  72.2209988
 135.6070012  14.4434997  72.2199988 135.9730012  13.7304997  71.4509988
 134.8910012  13.8614997  72.8389988 136.8830012  14.7384997  72.9959988
 137.6270012  15.0744997  72.2419988 137.2840012  13.7584997  73.3309988
 136.7660012  15.8474997  73.9609988 136.0020012  16.6114997  73.7579988
 137.4220012  15.9174997  75.1209988 137.2600012  16.7944997  75.7649988
 138.4150012  14.8024997  75.6539988 139.2540012  15.2314997  76.2419988
 138.9870012  14.3274997  74.8289988 137.7030012  13.6194997  76.3389988
 138.4450012  12.8054997  76.4859988 136.8830012  13.1874997  75.7259988
 137.2150012  13.8134997  77.7739988 136.7220012  12.8314997  77.9429988
 136.3820012  14.5454997  77.8429988 138.3000012  14.1524997  78.7639988
 138.7620012  15.1154997  78.4589988 139.2260012  13.5394997  78.8109988
 137.8290012  14.4804997  80.1599988 136.9600012  15.1594997  80.0289988
 138.7540012  14.8754997  80.6309988 137.4520012  13.2464997  80.9759988
 138.1510012  12.3934997  81.1039988 136.5130012  12.8724997  80.5149988
 136.9300012  13.6214997  82.3659988 136.0210012  14.2584997  82.4129988
 137.7420012  14.1834997  82.8759988 136.6480012  12.3774997  83.2649988
 136.1470012  12.8014997  84.1619988 137.5870012  11.8074997  83.4339988
 136.0120012  11.6644997  82.6979988 120.7840012  -1.1115003  81.8319988
 120.0170012  -0.3105003  81.8989988 121.1640012  -1.3315003  82.8529988
 120.2860012  -2.0165003  81.4239988 121.8620012  -0.7135003  80.9309988
 122.3310012   0.1794997  81.3969988 122.6070012  -1.5345003  80.9959988
 121.6350012  -0.5765003  79.4369988 122.6600012  -0.6545003  79.0169988
 120.9590012  -1.3745003  79.0609988 120.9920012   0.7824997  78.9989988
 120.2050012   1.2374997  79.6389988 121.8540012   1.4814997  78.9399988
 120.4340012   0.8094997  77.5079988 119.5750012   0.1194997  77.3679988
 120.1430012   1.8454997  77.2349988 121.5090012   0.4024997  76.5359988
 122.4600012   0.9434997  76.7289988 121.7520012  -0.6645003  76.7279988
 121.1130012   0.5994997  75.0889988 120.0590012   0.2954997  74.9119988
 121.2880012   1.6344997  74.7259988 121.9780012  -0.1835003  74.0669988
 122.1000012  -1.2235003  74.4389988 121.5640012  -0.1955003  73.0359988
 123.4320012   0.3034997  74.0409988 123.5210012   1.3274997  73.6179988
 123.8990012   0.3944997  75.0449988 124.3210012  -0.7165003  73.2799988
 124.3690012  -1.5475003  74.0159988 123.7060012  -1.0085003  72.4019988
 125.5550012   0.0164997  72.8399988 125.2810012   0.7834997  72.0849988
 125.9920012   0.6604997  73.6329988 126.7050012  -0.9185003  72.4949988
 126.8720012  -1.6685003  73.2969988 126.4800012  -1.4245003  71.5319988
 128.0600012  -0.1685003  72.4279988 128.2330012   0.2044997  73.4599988
 128.8520012  -0.9085003  72.1829988 128.0030012   0.9314997  71.2679988
 127.2610012   1.6954997  71.5859988 128.9680012   1.4734997  71.3629988
 127.9480012   0.3104997  69.8659988 128.8210012  -0.3325003  69.6249988
 127.0180012  -0.2915003  69.9429988 127.9240012   1.3944997  68.7809988
 128.4460012   2.5054997  68.8139988 127.3600012   0.8694997  67.7219988
 127.4340012   1.6114997  66.4689988 127.4910012   2.7074997  66.6409988
 128.2850012   1.2704997  65.8419988 126.2360012   1.2864997  65.5839988
 126.2370012   0.1814997  65.6989988 126.4170012   1.6344997  64.0809988
 126.7540012   2.6724997  63.8759988 127.2550012   1.0264997  63.6779988
 125.3710012   1.1914997  63.3019988 124.0900012   2.1374997  63.0639988
 122.9420012   1.2034997  63.5679988 123.0850012  -0.2145003  63.3449988
 123.8010012  -0.4175003  62.5199988 123.4440012  -0.6445003  64.3049988
 121.7120012  -0.8605003  63.0859988 121.5120012  -0.7105003  62.0349988
 121.8650012  -1.9195003  63.2349988 120.4130012  -0.3995003  63.8839988
 120.0530012   0.9954997  63.4999988 120.7720012   1.7684997  63.7249988
 119.7990012   1.1154997  62.4569988 119.0840012   1.1664997  63.9449988
 119.2770012  -1.3365003  63.5459988 118.3850012  -0.9955003  64.0519988
 119.1410012  -1.4905003  62.4859988 119.3850012  -2.3555003  63.8869988
 120.5910012  -0.5745003  65.3449988 120.7490012  -1.6195003  65.5679988
 119.7170012  -0.2765003  65.9059988 121.4990012  -0.1405003  65.7359988
 124.1550012   3.3424997  63.9099988 123.9450012   2.3934997  61.6309988
 125.0770012   1.8714997  66.2549988 124.2220012   1.0564997  66.9039988
 124.2950012  -0.1595003  66.8769988 123.3650012   1.9054997  67.8509988
 122.4740012   1.3234997  68.1709988 123.0330012   2.7744997  67.2439988
 124.3320012   2.3764997  68.9909988 125.0290012   3.1664997  68.6379988
 124.8930012   1.5154997  69.4099988 123.6400012   2.7734997  70.2959988
 124.4320012   2.9184997  71.0619988 122.9760012   1.9504997  70.6379988
 122.7900012   4.0084997  70.2199988 121.9090012   4.0254997  69.5429988
 123.4050012   4.9304997  70.1369988 122.0620012   4.1954997  71.6399988
 121.5850012   3.2654997  72.0189988 121.3250012   4.9954997  71.4119988
 122.9220012   4.7164997  72.7969988 123.3690012   5.7064997  72.5639988
 123.7970012   4.0314997  72.8249988 122.1040012   4.7274997  74.1229988
 122.4710012   3.9764997  74.8549988 121.1480012   4.2664997  73.7949988
 121.8840012   6.0204997  74.8189988 121.3710012   6.7594997  74.1849988
 122.3730012   6.3854997  76.0349988 122.1960012   7.3754997  76.4799988
 123.3050012   5.5154997  76.8649988 123.0500012   4.4374997  76.7789988
 123.0570012   5.8984997  77.8779988 124.7980012   5.6544997  76.5109988
 125.1990012   6.6474997  76.8079988 124.8280012   5.5964997  75.4019988
 125.7450012   4.6334997  77.1709988 125.4640012   4.3624997  78.2109988
 126.8110012   4.9424997  77.2019988 125.8400012   3.3024997  76.3959988
 126.4180012   3.4214997  75.4539988 124.8210012   2.9344997  76.1509988
 126.4470012   2.1624997  77.2119988 127.3070012   2.5464997  77.7999988
 126.8280012   1.4314997  76.4669988 125.3600012   1.4384997  78.0569988
 124.5110012   1.2014997  77.3799988 124.9570012   2.1444997  78.8139988
 125.8280012   0.1124997  78.6749988 126.5800012  -0.3275003  77.9859988
 125.0030012  -0.6145003  78.5159988 126.3590012   0.3674997  80.0759988
 127.3090012   0.9344997  79.9729988 126.5290012  -0.5775003  80.6349988
 125.7260012   1.0774997  80.6499988  10.8290012  10.9614997  80.4419988
  10.4370012  10.0284997  80.8999988   9.9200012  11.5464997  80.1839988
  11.3750012  11.5144997  81.2359988  11.7210012  10.8064997  79.2399988
  11.2350012  10.3194997  78.3669988  12.0930012  11.8024997  78.9189988
  12.8860012   9.8734997  79.4899988  13.3060012  10.0454997  80.5029988
  12.4110012   8.8834997  79.6619988  13.9570012   9.7204997  78.3239988
  14.5320012   8.7704997  78.2719988  13.3260012   9.8714997  77.4229988
  15.0410012  10.8374997  78.4029988  14.5250012  11.8164997  78.5039988
  15.6680012  10.7604997  79.3169988  15.9760012  10.9134997  77.2239988
  16.9620012  11.3474997  77.4979988  16.2000012   9.8394997  77.0489988
  15.3700012  11.5564997  76.0569988  14.4330012  11.0974997  75.6729988
  15.2130012  12.6024997  76.3969988  16.2570012  11.5214997  74.7589988
  15.7540012  12.0984997  73.9529988  17.2430012  11.9934997  74.9589988
  16.4920012  10.0514997  74.3559988  17.0720012   9.5614997  75.1669988
  15.4700012   9.6154997  74.3489988  17.2780012   9.7634997  73.0969988
  18.1760012  10.3884997  72.9049988  17.6280012   8.7114997  73.1619988
  16.3020012   9.8544997  71.8009988  15.4280012   9.1984997  71.9979988
  16.0500012  10.9364997  71.7659988  17.0030012   9.4104997  70.5689988
  16.5990012   9.9524997  69.6869988  18.0160012   9.8194997  70.7709988
  17.1130012   7.8494997  70.3419988  17.8390012   7.5964997  69.5399988
  17.5240012   7.4804997  71.3059988  15.7910012   7.0884997  69.9049988
  16.0520012   6.0234997  70.0849988  14.9200012   7.4524997  70.4899988
  15.4630012   7.1284997  68.4219988  15.0010012   8.0924997  68.1199988
  16.2930012   6.9674997  67.7009988  14.3330012   6.0644997  68.1729988
  14.3520012   4.9174997  68.7009988  13.5550012   6.6004997  67.2459988
  12.3860012   5.8264997  66.8529988  12.7310012   5.1644997  66.0299988
  12.0610012   5.2694997  67.7579988  11.2560012   6.7474997  66.4339988
  10.3770012   6.1224997  66.1669988  11.7030012   7.5394997  65.1989988
  12.3760012   6.8524997  64.6429988  10.9090012   7.8734997  64.4969988
  12.3190012   8.6944997  65.7299988  13.5910012   9.5074997  65.1649988
  14.1490012   8.4214997  64.1969988  13.9090012   8.6474997  62.8509988
  14.1070012   7.6614997  62.3769988  12.8580012   8.9174997  62.6109988
  14.7940012   9.7094997  62.0659988  14.3930012   9.7564997  61.0639988
  14.6760012  10.6004997  62.6649988  16.2730012   9.3074997  61.8899988
  16.5260012   7.8484997  61.5119988  15.8910012   7.2274997  62.1279988
  16.3550012   7.7224997  60.4529988  17.5710012   7.6384997  61.6849988
  16.9650012  10.2344997  60.9469988  18.0350012  10.1824997  61.0819988
  16.6010012   9.9634997  59.9669988  16.6060012  11.2364997  61.1269988
  16.9800012   9.5014997  63.1749988  16.8000012  10.5524997  63.3499988
  18.0300012   9.2494997  63.1599988  16.4750012   8.9834997  63.9769988
  13.1170012  10.6474997  64.3359988  14.4830012   9.7854997  66.3119988
  10.8450012   7.5044997  67.5869988   9.8400012   8.2824997  67.4749988
   9.2930012   8.6454997  66.4369988   9.4200012   8.8834997  68.8359988
   8.3390012   8.6424997  68.9209988   9.4360012   9.9934997  68.7999988
  10.3280012   8.4744997  70.0119988  11.1320012   9.2404997  69.9669988
  10.8930012   7.5394997  69.8109988   9.4950012   8.2764997  71.3129988
   8.9420012   7.3124997  71.3079988   8.7620012   9.1104997  71.3439988
  10.4830012   8.2374997  72.4509988  10.0610012   8.9854997  73.1549988
  11.4130012   8.7574997  72.1349988  10.7620012   6.9334997  73.1729988
  11.2090012   6.1554997  72.5179988   9.7970012   6.4234997  73.3799988
  11.6140012   6.9454997  74.4609988  11.0020012   7.4254997  75.2539988
  12.5830012   7.3894997  74.1479988  12.0030012   5.5424997  75.0259988
  10.9920012   5.1274997  75.2259988  12.5840012   5.7994997  75.9379988
  12.8210012   4.8304997  73.9879988  12.2860012   4.1544997  73.3049988
  14.1390012   4.8664997  73.9069988  14.6220012   4.3684997  73.0539988
  15.1130012   5.6064997  74.8069988  14.6110012   6.3874997  75.4169988
  15.9200012   6.1104997  74.2329988  15.9280012   4.7124997  75.7249988
  16.4280012   3.8704997  75.1999988  15.2330012   4.2084997  76.4299988
  16.9320012   5.4834997  76.5469988  17.1380012   6.4544997  76.0469988
  17.8650012   4.8794997  76.5259988  16.5560012   5.8874997  77.9869988
  16.2720012   4.9244997  78.4619988  15.6830012   6.5744997  77.9629988
  17.7230012   6.5794997  78.7269988  17.8360012   7.6154997  78.3439988
  18.6440012   5.9964997  78.5159988  17.6250012   6.5734997  80.2859988
  18.6050012   6.9134997  80.6829988  17.3880012   5.5494997  80.6459988
  16.3400012   7.3254997  80.7909988  15.5250012   6.6194997  80.5239988
  16.3290012   8.2614997  80.1929988  16.2450012   7.6484997  82.2919988
  16.6920012   6.9044997  82.9859988  15.1930012   7.8784997  82.5659988
  16.7530012   8.6294997  82.4029988 144.8190012  14.9214997  82.5369988
 144.1170012  15.7394997  82.8069988 145.5130012  14.5534997  83.3229988
 144.1550012  14.0744997  82.2599988 145.5840012  15.5064997  81.3369988
 146.0460012  16.4844997  81.5929988 146.3970012  14.8254997  81.0049988
 144.6200012  15.8304997  80.2019988 144.2270012  14.9364997  79.6719988
 143.7130012  16.2994997  80.6399988 145.2880012  16.6904997  79.2029988
 144.5550012  17.3564997  78.6989988 146.0310012  17.3284997  79.7279988
 145.9960012  15.8344997  78.1259988 146.3200012  14.8174997  78.4349988
 145.2050012  15.6124997  77.3779988 147.2060012  16.5334997  77.5279988
 147.9530012  16.6504997  78.3419988 147.6810012  15.9214997  76.7319988
 147.1060012  17.8884997  76.9249988 146.9660012  18.6404997  77.7299988
 148.0230012  18.0434997  76.3169988 145.8780012  18.0254997  75.9119988
 146.1410012  17.5554997  74.9399988 144.9950012  17.5354997  76.3759988
 145.4900012  19.4954997  75.5379988 145.2980012  20.1984997  76.3769988
 146.3190012  19.9914997  74.9899988 144.2630012  19.4334997  74.5869988
 143.3600012  19.2714997  75.2119988 144.2760012  20.4734997  74.1949988
 144.2960012  18.5024997  73.3779988 144.2370012  17.4944997  73.8409988
 143.3900012  18.6844997  72.7619988 145.5520012  18.5084997  72.5179988
 145.8820012  19.5684997  72.5739988 146.2960012  17.8434997  73.0079988
 145.3570012  17.9434997  71.0599988 145.2770012  16.8374997  71.1149988
 144.3560012  18.2494997  70.6889988 146.5220012  18.2464997  70.1109988
 146.5560012  19.3444997  70.2739988 147.3920012  17.7774997  70.6189988
 146.5440012  18.0464997  68.5819988 145.6780012  18.5604997  68.1129988
 147.4950012  18.5024997  68.2329988 146.6200012  16.5144997  68.1929988
 146.2430012  15.6254997  68.8969988 147.2500012  16.4504997  67.0099988
 147.2910012  15.1534997  66.3709988 148.1410012  15.2704997  65.6639988
 147.5730012  14.3234997  67.0539988 145.9760012  14.8094997  65.5899988
 146.2270012  13.8354997  65.1179988 145.6110012  15.7214997  64.4839988
 146.3610012  15.6024997  63.6729988 144.6510012  15.3444997  64.0689988
 145.4340012  17.0524997  64.9789988 145.2100012  18.1684997  63.8129988
 143.9000012  17.6864997  63.0219988 142.6960012  17.6964997  63.7739988
 142.6740012  18.4704997  64.5699988 141.9050012  18.1074997  63.1109988
 142.2200012  16.2434997  64.1779988 143.0810012  15.8444997  64.6939988
 141.3770012  16.2644997  64.8529988 141.8050012  15.3264997  63.0259988
 142.9660012  15.0064997  62.1509988 142.6690012  14.5074997  61.2399988
 143.4550012  15.9274997  61.8729988 143.7290012  14.4924997  62.7179988
 141.2250012  14.0564997  63.6799988 140.2080012  14.2294997  63.9999988
 141.2880012  13.1844997  63.0459988 141.6440012  13.7074997  64.6119988
 140.6480012  15.9414997  62.2289988 141.1000012  16.7204997  61.6339988
 139.8930012  16.3264997  62.8979988 140.3500012  15.1614997  61.5429988
 144.9350012  19.4924997  64.4399988 146.4060012  18.0924997  62.8899988
 145.0340012  14.7004997  66.6409988 143.9120012  14.0174997  66.6219988
 143.5230012  13.4124997  65.6579988 143.1380012  14.3224997  67.9159988
 143.8390012  14.1224997  68.7539988 142.1810012  13.7614997  67.9799988
 142.8330012  15.8154997  67.8439988 142.4760012  16.1244997  66.8379988
 143.7510012  16.4384997  67.9169988 141.7210012  16.1674997  68.8389988
 140.7600012  15.6454997  68.6439988 141.6240012  17.2714997  68.7689988
 142.0520012  15.8274997  70.2459988 143.0400012  16.2874997  70.4619988
 142.2090012  14.7344997  70.3669988 141.2030012  16.4694997  71.2719988
 140.4020012  17.0854997  70.8109988 141.7690012  17.0934997  71.9959988
 140.5200012  15.4054997  72.0959988 139.9170012  14.7184997  71.4649988
 139.8130012  15.8074997  72.8529988 141.5550012  14.4874997  72.7499988
 142.3850012  15.1154997  73.1389988 142.0630012  13.7564997  72.0849988
 141.1000012  13.6964997  73.9989988 140.7250012  12.7264997  73.6409988
 140.8720012  14.1854997  75.2169988 140.3280012  13.4824997  75.8649988
 141.0030012  15.6134997  75.6469988 140.0080012  16.0254997  75.3719988
 141.7180012  16.2724997  75.1089988 141.3590012  15.7514997  77.1969988
 141.4290012  16.8564997  77.2869988 142.3480012  15.3144997  77.4499988
 140.3280012  15.1924997  78.1979988 140.3730012  14.0834997  78.2619988
 139.3340012  15.4124997  77.7539988 140.3970012  15.7174997  79.5839988
 140.4450012  16.8264997  79.6169988 141.2840012  15.2864997  80.0949988
 139.2520012  15.2454997  80.5069988 138.8760012  14.3114997  80.0369988
 138.4630012  16.0114997  80.3489988 139.7880012  15.1644997  81.9979988
 138.8930012  15.4354997  82.5989988 140.5200012  15.9904997  82.1189988
 140.3540012  13.8724997  82.4529988 141.0740012  13.3844997  81.7619988
 139.5200012  13.1414997  82.5099988 141.1620012  14.0974997  83.7279988
 140.3880012  14.5324997  84.3959988 141.9910012  14.8374997  83.7029988
 141.4980012  13.0874997  84.0449988   8.8390012 138.7094997  81.5159988
   8.7380012 137.7034997  81.9769988   8.3070012 139.2904997  82.2989988
   9.8850012 139.0394997  81.6959988   8.1190012 138.8194997  80.1579988
   7.1090012 138.3674997  80.2599988   8.0510012 139.9114997  79.9639988
   8.9070012 138.2374997  78.9509988   9.8550012 138.8104997  78.8699988
   9.1450012 137.1644997  79.1179988   8.2020012 138.3524997  77.6409988
   7.4150012 137.5684997  77.6759988   7.7120012 139.3034997  77.3429988
   9.1570012 137.9814997  76.4749988   9.5980012 136.9744997  76.6309988
   8.6610012 137.9304997  75.4819988  10.3920012 138.9054997  76.2549988
  11.1520012 138.8564997  77.0639988  10.9710012 138.3724997  75.4719988
   9.9410012 140.2724997  75.7689988   9.3070012 140.1094997  74.8709988
   9.3830012 140.8074997  76.5659988  11.1860012 141.0484997  75.2129988
  11.7340012 141.2724997  76.1529988  11.8240012 140.4054997  74.5699988
  10.9190012 142.3754997  74.6949988   9.8430012 142.4974997  74.9409988
  11.4680012 143.1584997  75.2619988  11.2690012 142.5064997  73.1979988
  11.0800012 143.5294997  72.8089988  12.3510012 142.2954997  73.0589988
  10.4050012 141.7324997  72.2039988  10.8450012 141.7414997  71.1839988
  10.2880012 140.7094997  72.6209988   8.9410012 142.3854997  72.2039988
   8.2620012 141.6514997  71.7199988   8.4420012 142.7224997  73.1379988
   8.8110012 143.6264997  71.2519988   9.5570012 144.3444997  71.6529988
   9.0760012 143.3314997  70.2139988   7.4560012 144.2384997  71.0849988
   6.8750012 143.3424997  70.7779988   7.0440012 144.5544997  72.0669988
   7.4320012 145.4814997  70.1299988   7.0190012 146.2934997  70.7669988
   8.4610012 145.7614997  69.8169988   6.5540012 145.2034997  68.9659988
   5.3970012 144.8034997  68.9529988   7.3220012 145.3384997  67.9369988
   6.8100012 145.0694997  66.6379988   5.7300012 145.3264997  66.5809988
   7.4120012 145.7984997  66.0539988   7.1670012 143.6464997  66.1899988
   8.1890012 143.3974997  66.5479988   7.1830012 143.5084997  64.7229988
   6.1580012 143.8614997  64.4799988   7.9350012 144.0964997  64.1549988
   7.1240012 142.1984997  64.2549988   8.4170012 141.2974997  64.3939988
   8.4680012 140.6764997  62.9509988   7.5310012 139.7344997  62.5479988
   6.5570012 140.0054997  63.0089988   7.3700012 139.8404997  61.4539988
   7.8220012 138.2404997  62.8769988   7.5500012 138.1794997  63.9199988
   7.2370012 137.5574997  62.2789988   9.3130012 137.7624997  62.8509988
  10.2720012 138.4784997  63.6629988  10.4800012 139.4284997  63.1939988
   9.8720012 138.6484997  64.6519988  11.1930012 137.9584997  63.8819988
   9.3060012 136.3074997  63.1849988   8.3750012 135.8664997  62.8599988
  10.1940012 135.8434997  62.7829988   9.3860012 136.3084997  64.2619988
   9.9610012 137.7624997  61.3849988  10.2060012 138.7464997  61.0139988
   9.4420012 137.2364997  60.5969988  10.9550012 137.3854997  61.5759988
   9.6740012 142.0614997  64.6959988   8.1480012 140.2144997  65.3759988
   6.1500012 142.8404997  66.7019988   6.5200012 141.8364997  67.5729988
   7.6140012 141.6784997  68.0419988   5.2920012 140.9834997  67.8629988
   4.9370012 140.4994997  66.9289988   4.4310012 141.5884997  68.2209988
   5.6770012 139.8264997  68.7709988   6.4810012 139.3264997  68.1899988
   4.7830012 139.1674997  68.8069988   6.0360012 140.1944997  70.2119988
   6.8310012 140.9704997  70.2119988   6.3910012 139.3814997  70.8799988
   4.8190012 140.6894997  70.9929988   4.1230012 139.8284997  71.0919988
   4.3570012 141.5284997  70.4299988   5.0860012 141.3234997  72.4019988
   5.6450012 142.2764997  72.2799988   5.6130012 140.5334997  72.9799988
   3.7210012 141.6504997  73.0239988   3.2300012 140.6584997  73.1109988
   3.1300012 142.3914997  72.4439988   3.7740012 142.0574997  74.5399988
   4.0560012 141.2264997  75.2209988   2.6930012 142.2554997  74.7009988
   4.7170012 143.1964997  74.7499988   4.5100012 144.0824997  74.1319988
   5.8490012 143.2034997  75.4829988   6.3980012 144.1544997  75.5459988
   6.5230012 142.0794997  76.2439988   7.5920012 142.2304997  75.9839988
   6.3020012 141.1054997  75.7569988   6.2290012 141.9134997  77.7139988
   6.2330012 142.9174997  78.1909988   7.0110012 141.2594997  78.1569988
   4.8310012 141.4334997  77.9629988   4.5630012 140.4594997  77.4999988
   4.1430012 142.1684997  77.4949988   4.4380012 141.2544997  79.4209988
   5.0700012 140.4134997  79.7809988   3.4080012 140.8884997  79.6169988
   4.7360012 142.2834997  80.4359988   4.3270012 143.2714997  80.1359988
   5.8190012 142.3914997  80.6609988   4.0370012 141.9724997  81.7909988
   4.6420012 141.1934997  82.3019988   3.0210012 141.5364997  81.6789988
   4.0340012 143.1194997  82.8929988   5.0730012 143.4604997  83.0899988
   3.6190012 142.6914997  83.8299988   3.0970012 144.2334997  82.4899988
   3.0790012 144.5224997  81.4179988   3.2190012 145.1114997  83.1599988
   2.0880012 143.7984997  82.6539988  12.0070012 143.5774997  80.2419988
  11.8720012 143.2274997  81.2879988  11.0550012 143.9584997  79.8139988
  12.6580012 144.4464997  80.4759988  12.5870012 142.4514997  79.4639988
  13.3840012 141.9174997  80.0239988  11.7700012 141.7204997  79.2799988
  13.1390012 142.9864997  78.1509988  13.6570012 143.9164997  78.4689988
  13.8670012 142.3094997  77.6559988  12.1530012 143.1614997  76.9809988
  11.7800012 142.1294997  76.8099988  11.1860012 143.6244997  77.2739988
  12.7540012 143.7954997  75.6939988  11.9190012 143.7444997  74.9619988
  13.0010012 144.8474997  75.9489988  14.0610012 143.1704997  75.1159988
  14.9550012 143.2114997  75.7749988  13.8820012 142.1104997  74.8359988
  14.3730012 143.7614997  73.6839988  13.5630012 143.3574997  73.0399988
  14.2810012 144.8674997  73.7249988  15.6260012 143.2944997  72.9499988
  16.5820012 143.3474997  73.5139988  15.5830012 142.2084997  72.7219988
  15.7810012 144.1744997  71.7019988  14.8280012 144.7184997  71.5329988
  16.5660012 144.9294997  71.9249988  16.1710012 143.4644997  70.3819988
  16.1460012 144.3254997  69.6799988  17.2310012 143.1674997  70.5259988
  15.1020012 142.5314997  69.7999988  15.1990012 141.6944997  70.5239988
  14.1440012 142.9974997  70.1149988  15.0660012 142.2224997  68.3389988
  15.4220012 143.0894997  67.7429988  15.8860012 141.4924997  68.1679988
  13.6520012 141.6824997  67.9329988  13.5610012 140.6824997  68.4089988
  12.8480012 142.2864997  68.4049988  13.5470012 141.3024997  66.4989988
  13.8840012 142.1574997  65.8749988  14.3960012 140.5854997  66.4959988
  12.2230012 140.6184997  66.0539988  12.3580012 140.2544997  65.0129988
  11.8840012 139.7904997  66.7119988  11.0860012 141.6114997  66.0899988
  10.0840012 141.5044997  66.7199988  11.4820012 142.6564997  65.3529988
  10.6390012 143.8444997  65.4099988   9.8730012 143.8844997  64.6059988
  10.2400012 143.9684997  66.4389988  11.4270012 145.0814997  64.9279988
  10.8000012 145.9884997  64.7909988  12.0970012 144.7844997  63.5549988
  11.3750012 144.5224997  62.7519988  12.5170012 145.7654997  63.2459988
  13.1620012 143.8344997  63.5619988  13.6880012 143.4594997  62.0999988
  15.2040012 143.8814997  62.2909988  16.0590012 143.2424997  63.1929988
  15.8270012 142.1604997  63.2939988  17.0860012 143.3604997  62.7869988
  16.0280012 143.8714997  64.6229988  15.0180012 143.9154997  65.0019988
  16.4380012 143.1644997  65.3289988  16.7550012 145.2014997  64.8529988
  16.1290012 146.3044997  64.0319988  15.1310012 146.2994997  64.4439988
  16.6830012 147.2294997  64.1049988  15.9370012 146.0334997  63.0039988
  16.6660012 145.6364997  66.2709988  17.1200012 144.8414997  66.8429988
  17.4010012 146.4234997  66.3439988  15.6690012 145.9744997  66.5129988
  18.1370012 145.0944997  64.3089988  18.1540012 144.8034997  63.2689988
  18.7060012 144.3494997  64.8429988  18.6110012 146.0584997  64.4169988
  13.5080012 141.9694997  61.9579988  13.1260012 144.2574997  60.9899988
  12.4500012 145.4684997  65.8329988  12.0630012 146.1644997  66.9069988
  10.9090012 146.3874997  67.2009988  13.3520012 146.6754997  67.6589988
  13.9140012 147.3014997  66.9339988  13.8510012 145.7504997  68.0179988
  13.0230012 147.5944997  68.8489988  12.6250012 146.8934997  69.6139988
  12.5080012 148.5694997  68.7089988  14.3250012 148.0704997  69.5239988
  14.6170012 148.9384997  68.8949988  15.1780012 147.3644997  69.4439988
  14.1960012 148.6754997  70.9599988  13.2840012 149.2954997  70.8229988
  15.1160012 149.2444997  71.2119988  14.0610012 147.5424997  72.0219988
  14.8620012 146.7784997  71.9249988  13.2130012 146.9244997  71.6599988
  13.7630012 148.0874997  73.4159988  13.3650012 147.2674997  74.0509988
  12.9050012 148.7544997  73.1849988  14.8570012 148.8084997  74.1259988
  14.5550012 148.8504997  75.1949988  14.9520012 149.8514997  73.7579988
  16.2100012 148.1314997  73.9859988  16.5910012 148.0234997  72.9599988
  17.0880012 147.5364997  74.9129988  18.0330012 147.1074997  74.5469988
  16.8970012 147.4414997  76.4019988  16.5850012 148.3954997  76.8759988
  17.8610012 147.1774997  76.8879988  15.8860012 146.3444997  76.7759988
  16.5070012 145.4844997  77.1089988  15.2390012 146.0294997  75.9299988
  15.1150012 146.5804997  78.0819988  15.8870012 146.6924997  78.8729988
  14.4480012 145.7074997  78.2499988  14.1440012 147.7824997  77.8999988
  13.6240012 147.4724997  76.9679988  14.5430012 148.8074997  77.7509988
  13.1430012 147.9504997  79.0649988  12.7450012 146.9254997  79.2239988
  12.3770012 148.6514997  78.6699988  13.7130012 148.5624997  80.3369988
  14.4730012 149.3684997  80.2559988  14.1830012 147.7294997  80.9039988
  12.6880012 149.2174997  81.2509988  12.0530012 148.3684997  81.5809988
  12.1380012 149.8414997  80.5139988  13.2250012 150.0324997  82.4259988
  13.8140012 149.4284997  83.1489988  12.4480012 150.4784997  83.0829988
  13.8390012 150.9254997  82.1829988   5.7580012 134.9234997  81.9589988
   6.0470012 133.8864997  82.2339988   5.8140012 135.5514997  82.8739988
   6.4940012 135.4654997  81.3269988   4.4520012 135.0914997  81.2469988
   4.3190012 134.2774997  80.5029988   3.6400012 134.8014997  81.9479988
   4.0900012 136.5004997  80.8179988   4.4050012 137.2914997  81.5319988
   4.5890012 136.6404997  79.8359988   2.6350012 136.7354997  80.5369988
   2.1200012 136.7894997  81.5199988   2.5120012 137.7514997  80.1049988
   2.0130012 135.8004997  79.4719988   1.7820012 134.8364997  79.9739988
   1.0080012 136.1634997  79.1649988   2.7080012 135.7354997  78.1309988
   2.5910012 136.7994997  77.8339988   3.7930012 135.5474997  78.2779988
   1.9320012 134.8774997  77.0599988   2.2990012 133.8294997  77.0289988
   0.8270012 134.8294997  77.1679988   2.2680012 135.4014997  75.6389988
   1.7220012 136.3684997  75.6079988   3.3730012 135.4694997  75.5439988
   1.6050012 134.5064997  74.5729988   1.6530012 133.4624997  74.9499988
   0.5190012 134.7394997  74.5679988   2.0960012 134.7154997  73.1119988
   3.1460012 134.3734997  72.9989988   1.4220012 134.1814997  72.4089988
   2.1440012 136.1614997  72.6719988   1.1820012 136.6814997  72.8709988
   2.8360012 136.6554997  73.3869988   2.5880012 136.4004997  71.2149988
   1.8630012 135.7624997  70.6669988   2.3790012 137.4594997  70.9499988
   4.1200012 136.0584997  70.9229988   4.6490012 136.8704997  71.4649988
   4.4090012 135.0904997  71.3859988   4.4970012 136.0234997  69.4319988
   3.8400012 135.3474997  68.8439988   4.1910012 136.9744997  68.9469988
   5.9870012 135.7214997  69.2069988   6.4700012 136.1554997  68.3049988
   6.4660012 136.1394997  70.1179988   6.2040012 134.2044997  69.0509988
   6.5400012 133.3824997  69.9149988   5.8070012 133.9504997  67.8359988
   5.8700012 132.5614997  67.4059988   6.6610012 132.4694997  66.6309988
   5.9500012 131.8584997  68.2619988   4.5570012 131.9994997  66.7319988
   4.6540012 130.9114997  66.5269988   4.3180012 132.5934997  65.3879988
   5.2920012 132.5154997  64.8589988   3.6020012 132.0204997  64.7609988
   3.8160012 133.9184997  65.5649988   3.4630012 134.6164997  64.1729988
   2.1190012 133.8264997  63.7319988   0.9790012 134.1414997  64.5089988
   1.0500012 133.6934997  65.5229988   0.8410012 135.2384997  64.6179988
  -0.2809988 133.5404997  63.9249988  -0.0499988 132.4964997  63.7649988
  -1.0069988 133.6254997  64.7189988  -0.7969988 134.1554997  62.5289988
   0.1450012 133.9864997  61.3299988   1.0850012 134.1944997  61.8189988
   0.1040012 133.0054997  60.8809988  -0.0169988 134.6734997  60.5119988
  -2.0439988 133.5024997  62.1659988  -2.2919988 133.7194997  61.1369988
  -1.9389988 132.4284997  62.1219988  -2.8359988 133.6694997  62.8809988
  -1.0439988 135.6264997  62.7859988  -1.6919988 135.7714997  63.6379988
  -1.4179988 136.1594997  61.9239988  -0.1889988 136.1494997  63.1879988
   2.9830012 135.9904997  64.2699988   4.5640012 134.4034997  63.1969988
   3.4530012 132.2814997  67.6449988   2.2030012 131.9134997  67.3529988
   1.7880012 131.1044997  66.4949988   1.1910012 132.6744997  68.2079988
   0.2370012 132.8254997  67.6579988   1.5590012 133.6154997  68.6709988
   0.8520012 131.8354997  69.4669988   0.5590012 132.5434997  70.2719988
   1.6810012 131.1744997  69.7979988  -0.4029988 130.9694997  69.2549988
  -0.2669988 130.2934997  68.3829988  -1.2899988 131.5634997  68.9479988
  -0.8009988 129.9424997  70.4319988   0.0530012 129.8954997  71.1419988
  -0.9279988 129.0374997  69.7999988  -2.0069988 130.3664997  71.2449988
  -2.3149988 129.3934997  71.6849988  -2.7999988 130.7764997  70.5839988
  -1.7189988 131.3624997  72.3759988  -2.4859988 132.1644997  72.3209988
  -0.6589988 131.6964997  72.3919988  -1.8429988 130.6434997  73.8079988
  -2.8149988 130.1064997  73.7759988  -1.8859988 131.4594997  74.5609988
  -0.8319988 129.5354997  73.9809988  -0.7639988 128.7134997  73.2519988
   0.0570012 129.4474997  74.9819988   0.8340012 128.6714997  74.9199988
   0.1610012 130.3904997  76.1939988  -0.8539988 130.4924997  76.6339988
   0.4890012 131.3884997  75.8309988   1.1910012 129.7624997  77.2159988
   2.0330012 129.2804997  76.6749988   0.7340012 128.8214997  77.5909988
   1.6280012 130.6294997  78.3939988   0.7390012 131.2304997  78.6799988
   2.5070012 131.2384997  78.0909988   2.0330012 129.8124997  79.6199988
   2.7940012 129.0184997  79.4679988   1.0840012 129.3154997  79.9149988
   2.5810012 130.4594997  80.8539988   1.7170012 130.8134997  81.4559988
   3.2930012 131.2674997  80.5819988   3.2700012 129.5174997  81.8359988
   4.2410012 129.2574997  81.3619988   2.7190012 128.5574997  81.9239988
   3.4630012 130.1454997  83.2799988   3.7390012 129.4124997  84.0679988
   2.4400012 130.4824997  83.5519988   4.4500012 131.2994997  83.3329988
   4.6170012 131.4284997  84.4239988   3.9230012 132.1394997  82.8319988
   5.3990012 130.9244997  82.8939988 135.7950012 131.2454997  81.5359988
 136.1660012 130.8034997  82.4859988 134.7900012 130.7734997  81.5019988
 135.6790012 132.3454997  81.6419988 136.6640012 130.7394997  80.4109988
 136.0280012 130.7174997  79.5009988 137.4790012 131.4654997  80.2029988
 137.2970012 129.3604997  80.5419988 137.5670012 129.0444997  79.5109988
 138.2330012 129.5854997  81.0959988 136.6010012 128.2724997  81.3099988
 136.2100012 128.5974997  82.2969988 135.6800012 127.9154997  80.8019988
 137.4690012 127.0404997  81.5229988 138.2580012 127.2344997  82.2799988
 136.9140012 126.1694997  81.9329988 138.1050012 126.3284997  80.2229988
 138.9240012 126.9084997  79.7449988 138.7690012 125.4974997  80.5439988
 137.1370012 125.9084997  79.1249988 136.2380012 125.5824997  79.6909988
 136.8880012 126.7084997  78.3959988 137.5100012 124.7204997  78.3129988
 137.5530012 123.7854997  78.9109988 136.7490012 124.5624997  77.5189988
 138.9310012 124.9384997  77.6419988 139.6960012 124.7994997  78.4359988
 139.0520012 124.1514997  76.8679988 139.0840012 126.2684997  76.8539988
 138.9660012 127.0804997  77.6029988 140.1220012 126.2534997  76.4579988
 137.9910012 126.4724997  75.8129988 138.0800012 125.5354997  75.2219988
 137.0260012 126.3874997  76.3579988 138.0500012 127.8114997  74.9789988
 137.1500012 127.8794997  74.3309988 137.9610012 128.6644997  75.6849988
 139.3240012 127.9484997  74.2039988 140.1780012 128.2314997  74.8569988
 139.5220012 127.0154997  73.6349988 139.2200012 129.0624997  73.1419988
 139.1840012 130.0354997  73.6759988 140.1980012 128.9284997  72.6309988
 138.0950012 128.9514997  72.0819988 138.1050012 127.9744997  71.5529988
 137.1290012 129.0234997  72.6269988 138.2060012 130.0844997  71.0729988
 137.3680012 130.9704997  70.9309988 139.3700012 130.0734997  70.3999988
 139.5420012 131.0554997  69.3679988 138.5530012 131.3614997  68.9649988
 140.1750012 131.8924997  69.7339988 140.2990012 130.4504997  68.1319988
 140.6460012 131.2314997  67.4229988 139.3760012 129.4294997  67.3429988
 139.0520012 128.6134997  68.0239988 138.5220012 130.1014997  67.1139988
 139.8760012 128.9714997  66.1489988 138.9110012 127.9644997  65.3439988
 139.4240012 128.0174997  63.8299988 139.8550012 129.3094997  63.3589988
 140.6390012 129.7364997  64.0219988 140.4540012 128.9824997  62.4829988
 138.6790012 130.2484997  62.9369988 137.9870012 130.2804997  63.7649988
 139.1520012 131.1974997  62.7329988 137.8440012 129.9484997  61.6309988
 137.0730012 128.6974997  61.7859988 136.3830012 128.6184997  60.9589988
 137.8040012 127.9064997  61.8629988 136.5990012 128.7474997  62.7549988
 136.9180012 131.1404997  61.3699988 136.4670012 130.8704997  60.4259988
 136.1040012 131.1354997  62.0809988 137.5340012 132.0254997  61.3149988
 138.7950012 129.8194997  60.5129988 138.2730012 130.1244997  59.6179988
 139.2970012 128.8744997  60.3669988 139.6360012 130.4744997  60.6879988
 139.1890012 126.6444997  65.8049988 137.5150012 128.4104997  65.4579988
 141.5140012 129.8104997  68.5669988 142.4310012 129.5974997  67.5579988
 142.4070012 130.1934997  66.4969988 143.4620012 128.5654997  68.0959988
 144.1400012 129.1264997  68.7759988 144.1110012 128.2794997  67.2409988
 142.8960012 127.3184997  68.8469988 143.7380012 126.5994997  68.9349988
 142.1450012 126.9374997  68.1219988 142.2750012 127.5424997  70.2519988
 141.7860012 126.5504997  70.3599988 141.5900012 128.4154997  70.2959988
 143.3740012 127.7884997  71.3729988 143.4850012 128.8914997  71.4409988
 144.3060012 127.2184997  71.1669988 142.8240012 127.3754997  72.7279988
 142.6990012 126.2724997  72.6879988 141.7810012 127.7304997  72.8649988
 143.6730012 127.7724997  73.9549988 143.3350012 128.8064997  74.1789988
 144.7220012 127.9374997  73.6289988 143.3560012 126.7654997  75.0409988
 143.6500012 125.7264997  74.7769988 142.2800012 126.8044997  75.3149988
 144.2350012 127.0584997  76.2109988 145.1520012 126.4664997  76.3509988
 144.0010012 128.0634997  77.0679988 144.7300012 128.2064997  77.8789988
 142.8310012 128.9884997  77.0969988 142.4060012 129.0194997  78.1229988
 141.9530012 128.7214997  76.4709988 143.0510012 130.4954997  76.8159988
 142.1210012 131.0874997  76.9549988 143.3970012 130.5854997  75.7649988
 144.1510012 131.2064997  77.6699988 144.2510012 132.2654997  77.3479988
 145.1300012 130.7094997  77.4999988 143.8990012 131.2454997  79.1819988
 144.6520012 131.8014997  79.7799988 143.8410012 130.2194997  79.6049988
 142.5190012 131.8984997  79.4659988 141.8460012 131.1654997  78.9709988
 142.5050012 132.9164997  79.0209988 142.0900012 132.0254997  80.9329988
 142.5820012 132.8454997  81.4989988 142.3380012 131.0214997  81.3399988
 140.5720012 132.3904997  81.1929988 140.4300012 132.1754997  82.2729988
 139.9160012 131.6464997  80.6929988 140.1470012 133.7854997  80.8159988
 140.6200012 134.6004997  81.4029988 139.0560012 133.9804997  80.8939988
 140.4250012 133.9604997  79.7539988   9.1540012  13.6984997  82.7469988
   9.0710012  14.6974997  83.2259988  10.1600012  13.5674997  82.2939988
   9.0840012  12.9074997  83.5239988   8.0780012  13.4184997  81.6569988
   8.5690012  12.7504997  80.9169988   7.1580012  12.9284997  82.0409988
   7.6620012  14.6754997  80.9629988   6.7000012  14.4724997  80.4459988
   7.3970012  15.3564997  81.7999988   8.6050012  15.1554997  79.8869988
   9.5860012  15.0724997  80.4019988   8.7410012  14.4364997  79.0509988
   8.2180012  16.5254997  79.3139988   7.1120012  16.4854997  79.2209988
   8.4140012  17.3544997  80.0269988   8.6900012  16.8224997  77.8019988
   9.1640012  17.8264997  77.7479988   9.4720012  16.0844997  77.5199988
   7.6690012  16.6974997  76.7049988   6.8530012  17.4474997  76.7719988
   8.1330012  16.7104997  75.6959988   6.9300012  15.3364997  76.5939988
   7.6190012  14.4894997  76.3909988   6.5110012  15.1934997  77.6129988
   5.7760012  15.2454997  75.5099988   5.0680012  16.0944997  75.6159988
   6.3130012  15.3394997  74.5419988   5.0470012  13.9154997  75.6389988
   5.8310012  13.1674997  75.8809988   4.3860012  14.0814997  76.5169988
   4.2340012  13.5344997  74.4539988   3.3570012  14.2154997  74.4179988
   4.8650012  13.7104997  73.5559988   3.6570012  12.1604997  74.6059988
   4.5030012  11.4494997  74.7239988   3.2950012  12.0834997  75.6539988
   2.7020012  11.6514997  73.4679988   2.5970012  10.5654997  73.6779988
   1.7740012  12.2284997  73.6689988   3.0920012  11.9064997  71.9949988
   2.1640012  12.0654997  71.4049988   3.5950012  12.8954997  71.9449988
   4.0040012  10.7694997  71.6569988   4.7830012  10.6334997  72.4379988
   3.4180012   9.8254997  71.6339988   4.6570012  11.0454997  70.3209988
   4.0310012  11.0054997  69.2389988   5.9400012  11.2484997  70.4309988
   6.5940012  11.5724997  69.1589988   7.6520012  11.3444997  69.4099988
   6.2960012  10.8134997  68.4039988   6.4020012  13.0184997  68.6109988
   5.4250012  13.4264997  68.9459988   6.3050012  12.8194997  67.0609988
   5.4340012  12.1824997  66.7939988   6.2060012  13.8444997  66.6449988
   7.4930012  12.3204997  66.5059988   7.7650012  12.0134997  64.9879988
   7.0980012  13.0714997  64.1119988   7.8250012  14.2664997  63.8559988
   7.4600012  14.9804997  64.6249988   8.9280012  14.2264997  63.9819988
   7.6870012  14.7394997  62.3849988   8.2500012  15.6104997  62.0829988
   8.1350012  13.9004997  61.8749988   6.2980012  14.9894997  61.8349988
   6.4720012  15.8894997  60.6579988   5.4650012  16.2064997  60.4289988
   7.0930012  16.7134997  60.9769988   6.9730012  15.5174997  59.7759988
   5.5470012  13.7574997  61.3899988   6.2010012  13.2404997  60.7029988
   5.4090012  13.1424997  62.2669988   4.6840012  14.0984997  60.8379988
   5.3990012  15.7724997  62.8379988   6.0110012  16.3574997  63.5089988
   4.7910012  15.1734997  63.4989988   4.8500012  16.4874997  62.2439988
   9.2190012  11.9624997  64.8359988   7.0560012  10.6704997  64.7789988
   7.4900012  13.7974997  69.0149988   7.3260012  14.6264997  70.0739988
   6.3130012  14.8594997  70.7029988   8.6260012  15.4304997  70.1059988
   8.4390012  16.4344997  69.6669988   9.3500012  14.9184997  69.4369988
   9.3520012  15.5024997  71.4649988   8.6600012  15.9954997  72.1809988
  10.2730012  16.1124997  71.3519988   9.7330012  14.1044997  72.0389988
  10.7790012  13.9274997  71.7089988   9.0920012  13.3544997  71.5279988
   9.5550012  13.9994997  73.5489988   8.6920012  14.5754997  73.9459988
  10.3870012  14.5994997  73.9749988   9.5370012  12.6564997  74.2249988
   9.6140012  12.8334997  75.3189988  10.4790012  12.0994997  74.0379988
   8.2790012  11.7744997  73.8539988   8.1430012  11.5744997  72.7689988
   7.4470012  12.4604997  74.1219988   8.1060012  10.4074997  74.6449988
   8.4590012  10.6264997  75.6759988   8.8590012   9.7634997  74.1429988
   6.7150012   9.8884997  74.5089988   6.3450012   9.8664997  73.4739988
   5.9430012   9.4374997  75.4729988   4.8780012   9.3284997  75.2179988
   6.3410012   9.4134997  76.9579988   7.3800012   9.2324997  77.3079988
   5.7440012   8.5864997  77.4009988   5.9180012  10.7324997  77.5499988
   4.8160012  10.8174997  77.4359988   6.5120012  11.4694997  76.9679988
   6.2810012  10.8334997  79.0069988   6.2480012  11.9204997  79.2319988
   7.3330012  10.5074997  79.1479988   5.2820012   9.9794997  79.8669988
   5.3730012   8.9184997  79.5499988   4.2640012  10.3704997  79.6499988
   5.4080012  10.1924997  81.3419988   4.4160012  10.1774997  81.8409988
   5.9290012  11.1704997  81.4309988   6.3090012   9.0994997  81.9749988
   7.3200012   9.0884997  81.5149988   5.8460012   8.1144997  81.7509988
   6.4320012   9.2234997  83.4869988   6.9330012   8.3094997  83.8709988
   5.4050012   9.2824997  83.9059988   7.3640012  10.3654997  83.9729988
   7.3120012  11.3384997  83.4389988   8.4320012  10.0614997  83.9479988
   7.1530012  10.4804997  85.0579988 130.1020012 140.0524997  83.0319988
 130.1930012 139.0004997  82.6889988 129.1670012 140.1724997  83.6199988
 131.0200012 140.2724997  83.6189988 130.2310012 140.8674997  81.6989988
 131.1900012 140.6374997  81.1869988 129.4420012 140.4014997  81.0709988
 130.1060012 142.3994997  81.8489988 129.0930012 142.6004997  82.2609988
 130.9070012 142.7294997  82.5449988 130.4580012 143.2854997  80.6369988
 130.0010012 144.2964997  80.7019988 131.5440012 143.4144997  80.4399988
 130.0850012 142.6954997  79.2099988 130.4280012 141.6384997  79.2099988
 128.9750012 142.6864997  79.1559988 130.6310012 143.4114997  78.0189988
 130.0680012 144.3564997  77.8639988 131.7070012 143.6664997  77.9089988
 130.5590012 142.5504997  76.7579988 131.4070012 141.8344997  76.8229988
 129.5570012 142.0754997  76.6939988 130.6470012 143.3514997  75.4259988
 129.8620012 144.1374997  75.4339988 131.6610012 143.8054997  75.4209988
 130.6550012 142.5074997  74.1359988 131.4880012 141.7954997  74.3209988
 129.7080012 141.9274997  74.1009988 130.8480012 143.3034997  72.8449988
 131.6880012 143.9894997  73.0879988 131.0220012 142.7584997  71.8919988
 129.6830012 144.1214997  72.4659988 128.8160012 143.5314997  72.1009988
 129.3050012 144.6794997  73.3499988 129.9920012 145.1824997  71.4199988
 129.1430012 145.8884997  71.3039988 130.8160012 145.8294997  71.7879988
 130.3050012 144.5444997  70.1149988 131.2270012 143.9354997  70.2319988
 129.5490012 143.7894997  69.8089988 130.5060012 145.5264997  68.9879988
 129.6260012 146.0624997  68.5719988 131.1190012 146.3534997  69.4069988
 131.0260012 144.8934997  67.6849988 130.5560012 143.8874997  67.6469988
 130.7850012 145.5034997  66.7879988 132.5500012 144.6104997  67.6859988
 133.3700012 144.8314997  68.5459988 132.7890012 144.2374997  66.4769988
 134.1860012 144.3214997  65.9529988 134.1390012 144.6634997  64.8969988
 134.7920012 145.0514997  66.5319988 134.7410012 142.9274997  65.8859988
 135.7220012 143.0844997  65.3889988 133.9630012 142.0024997  64.9099988
 133.9630012 142.5984997  63.9719988 134.4980012 141.0594997  64.6669988
 132.5830012 141.7334997  65.3529988 131.6880012 140.7314997  64.5519988
 131.0860012 141.5714997  63.3549988 130.5860012 142.8734997  63.5869988
 129.8940012 142.9604997  64.4519988 131.4790012 143.5264997  63.6859988
 129.4850012 143.2034997  62.5819988 128.9790012 144.1154997  62.8649988
 129.8610012 143.3934997  61.5869988 128.3800012 142.1624997  62.3969988
 128.8120012 141.0214997  61.5599988 129.5850012 140.5554997  62.1529988
 127.9790012 140.3534997  61.3999988 129.2390012 141.4404997  60.6609988
 127.8970012 141.6214997  63.7069988 128.6740012 140.9104997  63.9469988
 127.8560012 142.4284997  64.4239988 126.9680012 141.0914997  63.5609988
 127.2590012 142.9554997  61.6319988 127.7050012 143.3334997  60.7249988
 127.0480012 143.8894997  62.1309988 126.4560012 142.2374997  61.5479988
 132.6070012 139.7144997  63.8989988 130.6330012 140.2364997  65.5579988
 134.8760012 142.4374997  67.2359988 135.7230012 141.3934997  67.3919988
 136.0820012 140.6464997  66.4709988 136.0730012 141.1884997  68.9189988
 136.4950012 142.0704997  69.4489988 136.7770012 140.3314997  68.9669988
 134.6700012 140.7304997  69.4949988 134.2890012 139.7914997  69.0409988
 133.8000012 141.4184997  69.4209988 134.7790012 140.4114997  70.9799988
 135.7430012 139.8664997  71.0679988 133.9120012 139.7754997  71.2609988
 134.8010012 141.6944997  71.7979988 133.9620012 142.2994997  71.3919988
 135.6220012 142.3974997  71.5439988 134.7080012 141.5264997  73.4149988
 133.8600012 140.8164997  73.5149988 134.2770012 142.4654997  73.8229988
 135.9820012 141.0394997  74.1199988 136.8790012 141.6424997  73.8629988
 136.2540012 140.0094997  73.8049988 135.8830012 140.9924997  75.6869988
 135.5130012 141.9424997  76.1289988 136.9440012 140.7984997  75.9549988
 135.0690012 139.8564997  76.2449988 135.1950012 138.9764997  75.5959988
 134.3320012 139.9334997  77.2969988 133.8060012 138.9994997  77.5439988
 133.9910012 141.0954997  78.2169988 133.0360012 140.9824997  78.7729988
 133.9820012 142.0544997  77.6569988 135.0620012 141.2474997  79.3429988
 136.0820012 141.3764997  78.9229988 135.0500012 140.3144997  79.9469988
 134.8350012 142.4194997  80.2149988 135.5790012 142.3534997  81.0369988
 133.8260012 142.2934997  80.6619988 134.7560012 143.7764997  79.5489988
 133.7550012 143.8234997  79.0699988 135.5790012 143.9434997  78.8219988
 134.7730012 144.9884997  80.5059988 134.6650012 145.7914997  79.7459988
 135.7860012 145.0474997  80.9569988 133.6190012 145.2534997  81.4949988
 132.6900012 145.0864997  80.9089988 133.6530012 146.3214997  81.7969988
 133.6970012 144.4414997  82.8259988 133.9770012 143.3824997  82.6439988
 132.6680012 144.3884997  83.2429988 134.6270012 145.0174997  83.9099988
 134.6880012 144.3254997  84.7769988 134.3730012 146.0124997  84.3329988
 135.6240012 145.2324997  83.4679988 137.1260012  -1.7285003  83.7149988
 136.6270012  -2.4955003  83.0849988 136.4450012  -1.1975003  84.4149988
 137.9280012  -2.2955003  84.2349988 137.7690012  -0.8415003  82.5989988
 138.5730012  -0.2815003  83.1229988 138.2000012  -1.5195003  81.8319988
 136.8080012   0.0664997  81.7989988 135.9200012  -0.4555003  81.3809988
 136.2960012   0.7674997  82.4929988 137.4990012   0.8714997  80.7239988
 136.6870012   1.4844997  80.2779988 138.3460012   1.5214997  81.0319988
 138.0750012   0.0204997  79.5399988 138.7080012   0.6684997  78.8979988
 138.7620012  -0.7915003  79.8609988 136.9550012  -0.7455003  78.6939988
 136.3010012  -1.2945003  79.4029988 136.5670012   0.0524997  78.0249988
 137.6230012  -1.9515003  77.9979988 138.1110012  -2.5795003  78.7739988
 136.9350012  -2.6845003  77.5249988 138.7360012  -1.5525003  77.0709988
 139.6560012  -1.2945003  77.6379988 138.9270012  -2.4985003  76.5199988
 138.4620012  -0.5775003  76.0589988 137.5220012  -0.7235003  75.4849988
 138.3680012   0.4284997  76.5219988 139.5520012  -0.3605003  74.9459988
 140.4980012  -0.1315003  75.4819988 139.6880012  -1.2375003  74.2779988
 139.2190012   0.7724997  73.9899988 138.3650012   0.6144997  73.2969988
 138.8630012   1.6424997  74.5809988 140.4490012   1.2184997  73.2299988
 140.1900012   2.0194997  72.5059988 141.1850012   1.7104997  73.9009988
 141.2250012   0.1284997  72.4739988 142.0050012   0.5184997  71.7849988
 141.7460012  -0.5795003  73.1539988 140.3000012  -0.7135003  71.6129988
 140.9470012  -1.5565003  71.2899988 139.5600012  -1.2285003  72.2629988
 139.7280012  -0.2195003  70.3269988 138.8590012   0.4624997  70.4429988
 140.5580012   0.3224997  69.8249988 139.1470012  -1.3895003  69.4799988
 138.7100012  -2.4145003  69.9549988 139.1260012  -1.0775003  68.1849988
 138.8420012  -2.2015003  67.3219988 139.8200012  -2.6675003  67.0749988
 138.1320012  -2.9445003  67.7419988 138.2960012  -1.7525003  65.9729988
 138.1740012  -2.6235003  65.2949988 139.1080012  -0.6805003  65.2549988
 139.4000012  -0.0025003  66.0849988 140.0270012  -1.0685003  64.7659988
 138.3690012  -0.0105003  64.1609988 138.9200012   1.2354997  63.5129988
 137.8380012   2.3244997  63.9709988 136.5370012   1.8484997  64.1039988
 136.1930012   1.4574997  63.1229988 136.3630012   1.0414997  64.8489988
 135.5050012   2.9664997  64.3419988 134.5760012   2.4724997  64.5859988
 135.8950012   3.5924997  65.1309988 135.1790012   3.9664997  63.2459988
 134.2610012   3.3134997  62.2229988 133.4330012   2.9414997  62.8079988
 133.8990012   4.0474997  61.5189988 134.8470012   2.6744997  61.5799988
 134.4350012   5.1394997  63.9439988 133.4460012   4.7834997  64.1919988
 135.0810012   5.5204997  64.7209988 134.4680012   5.8084997  63.0959988
 136.4070012   4.5174997  62.5099988 136.9300012   5.1794997  63.1839988
 136.0210012   4.9004997  61.5769988 137.0670012   3.6734997  62.3739988
 140.2160012   1.5694997  64.1089988 138.7660012   1.0564997  62.0589988
 137.0290012  -1.1595003  66.2109988 135.9820012  -1.9905003  66.2289988
 136.0200012  -3.1695003  65.9009988 134.8040012  -1.1695003  66.6999988
 133.9330012  -1.4065003  66.0529988 134.9650012  -0.0715003  66.7349988
 134.5010012  -1.6525003  68.1519988 134.5890012  -2.7595003  68.1699988
 133.4110012  -1.5935003  68.3549988 135.2490012  -0.9845003  69.2939988
 136.3090012  -0.7655003  69.0399988 135.3540012  -1.7215003  70.1189988
 134.7110012   0.3964997  69.6549988 133.6150012   0.2834997  69.7969988
 134.9420012   1.0904997  68.8179988 135.2090012   1.0044997  70.9699988
 134.8380012   2.0504997  70.9139988 136.3160012   1.0054997  71.0589988
 134.5300012   0.4514997  72.1599988 134.7470012  -0.6385003  72.1709988
 133.4440012   0.6414997  72.0229988 135.0490012   1.1804997  73.4089988
 134.9040012   2.2714997  73.2609988 136.1500012   1.0884997  73.5249988
 134.4260012   0.5864997  74.6459988 134.8440012  -0.3645003  75.0069988
 133.4080012   1.0844997  75.3839988 133.0010012   0.5324997  76.2439988
 132.6380012   2.3804997  75.1219988 131.5550012   2.1364997  75.0799988
 132.9120012   2.7204997  74.1009988 132.9560012   3.4814997  76.1579988
 132.5840012   3.2554997  77.1799988 132.4240012   4.3504997  75.7159988
 134.4830012   3.9654997  76.1139988 134.3580012   5.0564997  75.9459988
 134.9670012   3.6024997  75.1819988 135.2030012   3.4574997  77.4049988
 135.0430012   2.3704997  77.5729988 134.6140012   4.0484997  78.1379988
 136.6260012   3.8854997  77.3119988 136.6780012   4.9644997  77.0519988
 137.2820012   3.3344997  76.6049988 137.2960012   3.6654997  78.6799988
 137.6860012   2.6294997  78.5909988 136.5380012   3.5544997  79.4839988
 138.3700012   4.7354997  79.0549988 139.0230012   4.8854997  78.1679988
 138.9880012   4.3544997  79.8959988 137.6650012   6.0454997  79.4759988
 138.4210012   6.6184997  80.0559988 136.8060012   5.8034997  80.1369988
 137.2300012   6.4744997  78.5479988 142.4660012   7.8694997  79.8319988
 143.0520012   8.6694997  80.3339988 143.0390012   6.9264997  79.9629988
 141.6080012   7.7804997  80.5319988 142.1070012   8.2254997  78.3639988
 142.8900012   7.8254997  77.6849988 141.1680012   7.7084997  78.0709988
 141.8440012   9.7694997  78.1379988 141.4390012   9.9714997  77.1239988
 141.0490012   9.9784997  78.8859988 143.1340012  10.6004997  78.3019988
 142.9040012  11.6434997  77.9969988 143.4470012  10.6684997  79.3659988
 144.4040012  10.0804997  77.5639988 145.3000012  10.7334997  77.6249988
 144.8760012   9.1904997  78.0339988 144.2060012   9.9274997  76.0589988
 143.5790012   9.0114997  76.0779988 143.6560012  10.7664997  75.5819988
 145.6170012   9.6934997  75.3709988 146.2270012  10.6164997  75.4679988
 146.1470012   8.8654997  75.8899988 145.4990012   9.3724997  73.8849988
 144.8770012   8.4664997  73.7199988 144.8490012  10.1834997  73.4919988
 146.8550012   9.4694997  73.1659988 147.4510012  10.3584997  73.4639988
 147.5460012   8.6784997  73.5279988 146.6820012   9.4504997  71.6139988
 146.0410012  10.2844997  71.2559988 147.6710012   9.5344997  71.1159988
 145.9940012   8.2014997  71.0949988 146.3920012   7.2744997  71.5609988
 144.9240012   8.2694997  71.3839988 146.0620012   8.0254997  69.5829988
 145.7620012   9.0034997  69.1499988 147.1200012   7.9994997  69.2439988
 145.2690012   6.8014997  68.9669988 144.1870012   6.8054997  69.2179988
 145.4900012   6.8624997  67.8789988 145.9820012   5.4144997  69.4029988
 147.0360012   5.7504997  69.5049988 145.7620012   5.2094997  70.4729988
 145.6880012   4.3834997  68.4019988 146.0750012   4.7514997  67.4279988
 146.2770012   3.4754997  68.6509988 144.2280012   4.0984997  68.3449988
 143.4710012   4.1594997  69.3459988 143.8810012   3.8384997  67.0229988
 142.5720012   3.3424997  66.7789988 142.5630012   2.5884997  65.9629988
 142.0420012   2.8644997  67.6299988 141.7330012   4.5474997  66.2769988
 140.7650012   4.1324997  65.9249988 142.2590012   5.1334997  64.9629988
 142.6670012   4.2504997  64.4269988 141.4460012   5.5664997  64.3419988
 143.2620012   6.1314997  65.2209988 144.5680012   6.3234997  64.3489988
 144.0050012   7.1224997  63.0929988 142.9890012   8.1414997  63.3749988
 142.0150012   7.8344997  62.9379988 142.8420012   8.3164997  64.4619988
 143.3120012   9.4604997  62.5019988 143.0840012   9.3024997  61.4579988
 142.5830012  10.1954997  62.8109988 144.6550012  10.1554997  62.6249988
 145.0410012  10.2574997  64.1399988 145.3310012   9.2544997  64.4159988
 145.9640012  10.8184997  64.1099988 144.3130012  10.6744997  64.8199988
 145.7690012   9.5274997  61.9209988 145.5610012   9.4584997  60.8629988
 146.6990012  10.0624997  62.0479988 145.9080012   8.5694997  62.3999988
 144.4290012  11.5104997  62.0089988 145.3500012  12.0614997  61.8879988
 143.9080012  12.1514997  62.7049988 143.8500012  11.4274997  61.1009988
 145.5050012   7.1674997  65.0589988 145.0130012   4.9604997  63.8879988
 141.5870012   5.5364997  67.3309988 140.8480012   6.6434997  67.1229988
 140.0640012   6.8394997  66.2229988 141.2670012   7.5664997  68.2109988
 140.5930012   8.4504997  68.2179988 142.2570012   8.0204997  67.9889988
 141.2660012   6.9414997  69.5489988 141.8100012   7.7704997  70.0519988
 141.9110012   6.0374997  69.5369988 139.9230012   6.7844997  70.2819988
 139.2820012   5.9914997  69.8419988 139.2710012   7.6554997  70.0549988
 140.1760012   6.4384997  71.7659988 139.1550012   6.3674997  72.1959988
 140.6700012   7.2824997  72.2919988 140.7820012   5.0004997  71.9409988
 141.7350012   5.0354997  71.3719988 140.0390012   4.2794997  71.5409988
 140.9230012   4.5044997  73.3669988 141.5660012   3.6054997  73.2509988
 139.9170012   4.2704997  73.7749988 141.6620012   5.5454997  74.2489988
 141.1460012   6.5184997  74.1079988 142.6350012   5.7094997  73.7389988
 141.7870012   5.2524997  75.7759988 140.9860012   5.6244997  76.4309988
 142.8890012   4.7144997  76.4149988 142.7620012   4.5344997  77.4919988
 144.2160012   4.3114997  75.8229988 144.0780012   3.9124997  74.7959988
 144.5820012   3.3834997  76.3099988 145.3310012   5.4104997  75.7359988
 145.0520012   6.1054997  74.9149988 146.1730012   4.7464997  75.4429988
 145.7420012   6.1274997  77.0589988 144.8800012   6.7994997  77.2589988
 146.6370012   6.7784997  76.9609988 145.9030012   5.2954997  78.3599988
 144.9360012   4.8494997  78.6759988 146.3020012   6.0454997  79.0759988
 147.1000012   4.3064997  78.1869988 147.8490012   5.0704997  77.8889988
 146.9000012   3.6324997  77.3269988 147.5460012   3.6214997  79.5179988
 147.9860012   4.3894997  80.1899988 148.3850012   3.0234997  79.1019988
 146.4100012   2.7394997  80.1659988 145.6460012   3.3834997  80.6499988
 146.8560012   2.0664997  80.9289988 145.7700012   1.7244997  79.2229988
 144.9800012   1.0764997  79.6599988 146.5640012   1.0534997  78.8319988
 145.3010012   2.4324997  78.5069988 138.1540012 136.8904997  79.9439988
 138.4660012 135.9824997  79.3849988 137.1640012 136.6554997  80.3879988
 138.9300012 136.9904997  80.7329988 137.7370012 138.0514997  79.1259988
 137.2250012 138.7114997  79.8579988 138.6670012 138.5954997  78.8529988
 136.7870012 137.7074997  77.9859988 136.5020012 136.6454997  78.1419988
 135.8460012 138.2814997  78.1239988 137.3510012 137.8304997  76.5849988
 137.6620012 138.8884997  76.4469988 138.2840012 137.2544997  76.4049988
 136.4130012 137.4094997  75.3739988 136.2630012 136.3234997  75.5549988
 135.5060012 137.9804997  75.6679988 136.8610012 137.7364997  73.9679988
 137.7040012 137.1204997  73.5879988 136.0990012 137.3884997  73.2379988
 137.1990012 139.2454997  73.6569988 136.5450012 139.9254997  74.2439988
 138.1700012 139.3414997  74.1879988 137.4150012 139.6384997  72.2069988
 138.1630012 138.8694997  71.9169988 136.5340012 139.4624997  71.5529988
 138.0030012 141.0264997  72.0409988 137.2780012 141.7284997  72.5049988
 138.9110012 141.1514997  72.6679988 138.1350012 141.4654997  70.6319988
 137.1360012 141.2684997  70.1879988 138.3310012 142.5534997  70.5279988
 139.0860012 140.7064997  69.7819988 140.1120012 140.6134997  70.1989988
 138.7120012 139.6634997  69.7049988 139.2930012 141.2734997  68.3059988
 138.4590012 141.1514997  67.5829988 139.3590012 142.3794997  68.2249988
 140.6170012 140.6974997  67.5969988 140.5720012 140.8414997  66.4959988
 141.4230012 141.3464997  68.0019988 140.8640012 139.2404997  67.8869988
 141.2270012 138.9714997  68.9019988 139.9000012 138.6934997  67.8219988
 141.9210012 138.5064997  67.1119988 141.6580012 138.5884997  66.0349988
 142.8720012 139.0334997  67.3379988 141.8240012 137.0744997  67.4729988
 142.1670012 136.5354997  68.5569988 141.2240012 136.3584997  66.5319988
 141.1900012 134.9314997  66.7659988 141.9040012 134.3954997  66.1039988
 141.2550012 134.5864997  67.8199988 139.8010012 134.5064997  66.1939988
 139.5090012 133.4414997  66.3149988 139.6670012 134.5744997  64.6889988
 140.5640012 134.0644997  64.2769988 138.8030012 133.9734997  64.3339988
 139.4900012 135.9534997  64.4119988 139.8170012 136.7784997  63.1379988
 138.7550012 137.9334997  63.1779988 138.1250012 138.2664997  64.3569988
 138.7330012 138.2634997  65.2869988 137.7010012 139.2854997  64.2229988
 136.8150012 137.4064997  64.6759988 137.0820012 136.4354997  65.0649988
 136.3760012 137.9334997  65.5089988 135.7670012 137.2494997  63.5209988
 134.4940012 136.7114997  64.1579988 134.7810012 135.8484997  64.7399988
 134.0350012 137.5104997  64.7199988 133.8260012 136.5714997  63.3209988
 135.2930012 138.6064997  62.9679988 135.2010012 139.3184997  63.7749988
 136.0760012 138.9354997  62.2999988 134.4090012 138.3324997  62.4099988
 136.2350012 136.2894997  62.4689988 135.4800012 136.2274997  61.6989988
 136.3680012 135.3644997  63.0119988 137.1470012 136.6564997  62.0209988
 141.1330012 137.3934997  63.3589988 139.5910012 135.9544997  61.9459988
 138.7970012 135.4064997  66.8369988 137.4940012 135.0064997  66.8329988
 137.0440012 134.0154997  66.2789988 136.6970012 135.7734997  67.8939988
 135.6900012 135.8134997  67.4259988 137.0800012 136.7544997  68.2489988
 136.7090012 134.9134997  69.2169988 136.2940012 133.8984997  69.0419988
 136.0170012 135.3414997  69.9739988 138.0820012 134.7714997  69.9859988
 138.7080012 134.2704997  69.2169988 137.9580012 134.0474997  70.8189988
 138.4980012 136.1294997  70.6669988 137.9040012 136.2764997  71.5949988
 138.3620012 136.9804997  69.9669988 139.9260012 136.0964997  71.1439988
 140.5420012 135.9024997  70.2389988 140.1640012 135.2704997  71.8469988
 140.5110012 137.2794997  71.9349988 139.8300012 137.5294997  72.7769988
 140.5720012 138.0884997  71.1759988 141.9570012 137.0844997  72.3479988
 142.6100012 137.0514997  71.4499988 142.0540012 136.0564997  72.7569988
 142.3900012 138.1814997  73.2409988 142.4090012 139.2454997  72.9649988
 142.6030012 137.9014997  74.5739988 142.8940012 138.7564997  75.2009988
 142.4320012 136.5994997  75.3379988 143.1530012 136.5984997  76.1829988
 142.8810012 135.7504997  74.7789988 141.0090012 136.1324997  75.7529988
 140.5600012 136.0094997  74.7439988 140.4620012 136.9244997  76.3079988
 141.0250012 134.8014997  76.4469988 141.7260012 134.1014997  75.9439988
 140.0030012 134.3974997  76.2869988 141.3450012 134.7984997  77.8969988
 140.5200012 135.3564997  78.3889988 142.3690012 135.1844997  78.0859988
 141.3840012 133.4364997  78.5059988 142.3870012 132.9714997  78.4009988
 140.5960012 132.7134997  78.2029988 141.1900012 133.4674997  80.0079988
 141.4680012 132.4844997  80.4439988 140.1120012 133.6084997  80.2389988
 141.9230012 134.6174997  80.7759988 141.4900012 135.6044997  80.5069988
 142.9840012 134.5564997  80.4509988 141.9260012 134.4394997  82.3009988
 142.5030012 135.2004997  82.8699988 142.3690012 133.4404997  82.5009988
 140.8920012 134.5174997  82.6989988   3.9280012 139.4544997  82.0179988
   4.1510012 138.7934997  82.8819988   4.7450012 139.4894997  81.2659988
   2.9840012 139.0904997  81.5579988   3.7420012 140.8434997  82.6769988
   2.7040012 141.0274997  83.0299988   4.3740012 140.8544997  83.5909988
   3.9770012 142.0874997  81.8289988   3.9480012 142.9144997  82.5689988
   4.9920012 142.0394997  81.3799988   3.0140012 142.3234997  80.6859988
   3.1000012 141.5334997  79.9099988   1.9520012 142.3574997  81.0119988
   3.2030012 143.7394997  79.9469988   2.4490012 143.7344997  79.1299988
   2.8780012 144.5634997  80.6179988   4.6160012 144.0334997  79.3759988
   4.6560012 145.1434997  79.3419988   5.4010012 143.7364997  80.1039988
   4.8480012 143.3854997  78.0319988   5.9580012 143.3554997  77.9809988
   4.4680012 142.3474997  77.9249988   4.3770012 144.3294997  76.9129988
   3.4860012 144.9074997  77.2409988   5.2270012 145.0434997  76.8769988
   4.2160012 143.7404997  75.5189988   5.2320012 143.3704997  75.2649988
   3.4300012 142.9664997  75.6479988   3.8060012 144.7834997  74.4329988
   2.7620012 145.1374997  74.5669988   4.4510012 145.6794997  74.5549988
   3.8630012 144.1994997  73.0249988   3.4070012 143.1894997  73.1039988
   3.2720012 144.7474997  72.2589988   5.2440012 143.9534997  72.3599988
   5.6120012 144.9834997  72.1639988   5.8880012 143.2084997  72.8729988
   5.1280012 143.5124997  70.8839988   4.5520012 144.2634997  70.3029988
   6.1590012 143.5194997  70.4699988   4.5070012 142.1564997  70.7169988
   5.0450012 141.4154997  71.3469988   3.4040012 142.1794997  70.8479988
   4.7940012 141.6354997  69.2459988   4.2850012 142.4124997  68.6369988
   5.8800012 141.5304997  69.0329988   4.1080012 140.3134997  69.0059988
   3.3780012 139.7074997  69.7739988   4.3890012 139.8944997  67.8019988
   3.7860012 138.6674997  67.3949988   4.5240012 137.8654997  67.1779988
   3.0480012 138.2324997  68.1019988   2.9460012 138.8504997  66.0289988
   2.3550012 137.9114997  65.9749988   3.9290012 139.3034997  64.8809988
   4.6760012 140.0644997  65.1939988   4.5980012 138.4194997  64.8089988
   3.1510012 139.6004997  63.6999988   3.1390012 140.9424997  62.9829988
   1.9860012 141.7104997  63.8749988   0.6750012 141.7604997  63.2989988
   0.6920012 141.9424997  62.2029988   0.1690012 140.7884997  63.4789988
  -0.1539988 142.9214997  63.8849988  -1.0799988 143.1144997  63.3629988
  -0.4759988 142.6854997  64.8879988   0.6200012 144.2524997  63.9259988
   0.9660012 144.6864997  62.4429988   1.6630012 143.9734997  62.0289988
   0.0240012 144.7904997  61.9239988   1.3540012 145.6814997  62.5999988
  -0.3389988 145.2844997  64.4769988  -0.8119988 144.8924997  65.3659988
   0.1710012 146.1354997  64.9049988  -1.0189988 145.6734997  63.7339988
   1.8770012 144.2634997  64.8979988   2.6330012 143.5164997  64.7019988
   1.5310012 144.0784997  65.9039988   2.2270012 145.2844997  64.8639988
   4.4010012 141.6214997  63.1089988   2.7000012 140.7164997  61.5859988
   1.9630012 139.9374997  66.1219988   1.0520012 139.8234997  67.0399988
   0.7860012 138.7954997  67.6569988   0.3840012 141.2174997  67.2679988
  -0.2289988 141.4644997  66.3749988   1.2040012 141.9484997  67.4349988
  -0.4129988 141.2744997  68.5979988  -0.9719988 140.3144997  68.6219988
  -1.0289988 142.1954997  68.6789988   0.4910012 141.3264997  69.8829988
   1.2420012 142.1414997  69.8109988   1.0650012 140.3764997  69.9379988
  -0.2429988 141.6304997  71.2049988  -1.1449988 141.0054997  71.3779988
  -0.5799988 142.6614997  70.9649988   0.6740012 141.4814997  72.4529988
   1.4980012 142.1994997  72.2569988   1.1310012 140.4714997  72.5139988
   0.0410012 141.5614997  73.8009988  -0.7129988 140.7834997  74.0439988
  -0.6319988 142.4404997  73.8889988   0.9670012 141.7394997  75.0389988
   0.2040012 142.0874997  75.7679988   1.6560012 142.6104997  75.0039988
   1.7040012 140.5474997  75.4499988   2.2840012 139.9894997  74.7009988
   1.6200012 139.9354997  76.6599988   2.0200012 138.9104997  76.6649988
   0.7340012 140.3774997  77.7609988   0.8730012 141.4554997  77.9919988
   1.2020012 139.8854997  78.6399988  -0.7209988 139.9094997  77.5179988
  -0.7969988 138.8134997  77.3479988  -1.0559988 140.4674997  76.6179988
  -1.6179988 140.2904997  78.7529988  -2.5879988 139.7494997  78.7049988
  -1.8859988 141.3684997  78.7619988  -0.9959988 139.8344997  80.1089988
  -0.2089988 140.5614997  80.4029988  -0.6289988 138.7894997  80.0319988
  -2.0509988 139.9864997  81.2509988  -2.9419988 139.3684997  81.0079988
  -2.3389988 141.0574997  81.1899988  -1.4569988 139.7404997  82.6639988
  -2.0929988 140.1064997  83.4979988  -0.6289988 140.4804997  82.6989988
  -0.9549988 138.2994997  82.9929988  -0.2969988 138.4164997  83.8799988
  -0.2839988 137.8984997  82.2039988  -2.0769988 137.2704997  83.1419988
  -2.7539988 137.5054997  83.9909988  -1.5829988 136.3054997  83.3859988
  -2.5329988 137.0634997  82.1509988   6.5510012   0.8274997  82.7949988
   6.5090012   0.0964997  83.6299988   7.2510012   1.6344997  83.0999988
   6.9520012   0.3044997  81.8999988   5.1620012   1.4354997  82.6879988
   4.4490012   0.5864997  82.6369988   4.9840012   2.0894997  83.5689988
   4.8670012   2.3264997  81.4979988   5.5820012   3.1764997  81.4869988
   5.0910012   1.7924997  80.5499988   3.4130012   2.9824997  81.4889988
   3.4160012   3.7494997  82.2919988   3.3030012   3.4384997  80.4819988
   2.2980012   1.9404997  81.6259988   2.3900012   1.3844997  82.5839988
   1.2940012   2.4024997  81.7419988   2.0230012   0.9674997  80.5019988
   2.8690012   0.2844997  80.2749988   1.2130012   0.2704997  80.8039988
   1.8230012   1.6414997  79.1499988   1.1370012   2.5134997  79.2049988
   2.8380012   2.0134997  78.8939988   1.3770012   0.7154997  77.9929988
   2.1240012  -0.1055003  78.0129988   0.4030012   0.1904997  78.0899988
   1.4080012   1.3144997  76.5839988   0.5760012   1.9314997  76.1809988
   2.2420012   2.0484997  76.5669988   1.6070012   0.1784997  75.5759988
   2.5430012  -0.3985003  75.7419988   0.7530012  -0.5055003  75.7689988
   1.6730012   0.6724997  74.0859988   1.8030012  -0.1195003  73.3179988
   0.7500012   1.2624997  73.9009988   2.7670012   1.7044997  73.7699988
   2.5960012   2.5654997  74.4509988   3.7520012   1.2454997  74.0009988
   2.8340012   2.2894997  72.4269988   1.8410012   2.7024997  72.1449988
   3.5480012   3.1384997  72.4769988   3.3920012   1.4464997  71.3489988
   4.5010012   1.4974997  71.3259988   3.1470012   0.3774997  71.5249988
   2.8660012   1.9474997  69.9559988   1.7700012   1.7684997  69.9489988
   3.1200012   3.0094997  69.7519988   3.3840012   1.0064997  68.8459988
   4.0080012   0.0064997  68.9869988   3.1010012   1.5884997  67.6929988
   3.6620012   1.1504997  66.4979988   4.7570012   0.9714997  66.5519988
   3.2900012   0.1424997  66.2139988   3.5210012   2.2704997  65.4359988
   2.4900012   2.2654997  65.0219988   4.5700012   2.1324997  64.2819988
   5.5610012   2.0084997  64.7699988   4.2520012   1.2074997  63.7549988
   4.5000012   3.2894997  63.4379988   5.4680012   3.2444997  62.1699988
   6.3230012   4.5704997  62.1729988   6.4960012   5.4144997  63.2669988
   7.0670012   6.3194997  62.9669988   5.4770012   5.7904997  63.4999988
   6.9860012   4.7474997  64.5379988   6.6220012   5.2744997  65.4069988
   6.6450012   3.7254997  64.6089988   8.4740012   4.6354997  64.7539988
   9.1060012   3.9114997  63.5839988   8.6300012   2.9714997  63.3509988
   9.0360012   4.6294997  62.7809988  10.1350012   3.7804997  63.8849988
   9.1980012   5.8634997  65.0919988  10.2010012   5.6594997  65.4359988
   9.1980012   6.4294997  64.1719988   8.6620012   6.4244997  65.8429988
   8.6480012   3.6484997  65.9339988   8.0970012   2.7324997  65.7829988
   8.2560012   4.0884997  66.8389988   9.6550012   3.4634997  66.2789988
   6.3410012   2.0594997  62.2219988   4.5780012   3.3604997  61.0079988
   3.7370012   3.5014997  66.0949988   3.0060012   4.5364997  65.5389988
   2.0170012   4.3974997  64.8309988   3.6170012   5.9054997  65.9259988
   3.5040012   6.5114997  65.0009988   4.7030012   5.8314997  66.1489988
   2.8230012   6.5184997  67.1659988   1.7550012   6.6424997  66.8849988
   3.3570012   7.4784997  67.3269988   2.9700012   5.7044997  68.5669988
   2.2950012   4.8234997  68.6199988   2.5710012   6.4824997  69.2529988
   4.4120012   5.3604997  68.9839988   4.9880012   6.0374997  68.3169988
   4.6210012   4.2874997  68.7869988   4.6180012   5.6154997  70.4479988
   4.1500012   4.8344997  71.0839988   4.1100012   6.5764997  70.6819988
   6.1350012   5.5594997  70.6809988   6.6160012   6.1384997  69.8639988
   6.4910012   4.5404997  70.4149988   6.6420012   6.2654997  71.9669988
   6.1500012   7.2374997  72.1819988   7.6630012   6.5554997  71.6379988
   6.6190012   5.3804997  73.2009988   5.6160012   5.0664997  73.5249988
   7.5680012   4.8534997  73.8939988   7.3780012   4.2854997  74.8169988
   9.0960012   5.0124997  73.6949988   9.2530012   5.9794997  73.1709988
   9.5350012   4.2154997  73.0569988   9.8460012   4.9754997  75.0959988
  10.8440012   4.5284997  74.8989988   9.3020012   4.3994997  75.8749988
  10.1020012   6.3564997  75.7279988  10.6880012   6.9424997  74.9889988
  10.6350012   6.1944997  76.6889988   8.8290012   7.1974997  76.0189988
   8.2330012   7.5374997  75.1449988   9.1840012   8.2074997  76.3139988
   7.8920012   6.6244997  77.1149988   8.6600012   6.3964997  77.8849988
   7.4240012   5.6834997  76.7549988   6.9260012   7.5414997  77.8519988
   6.3370012   8.1264997  77.1139988   7.3300012   8.3644997  78.4799988
   6.0160012   6.7764997  78.8639988   5.7480012   5.8344997  78.3389988
   5.0620012   7.3024997  79.0829988   6.6850012   6.5164997  80.2099988
   6.0660012   5.7644997  80.7439988   6.8470012   7.4474997  80.7939988
   7.7000012   6.0894997  80.0569988  81.3470012  44.5434997   0.3829988
  73.8430012  22.3544997  28.3459988 127.7050012 135.6934997 108.7829988
  89.4670012 141.8984997  13.1899988  58.0170012 123.6444997 140.8199988
  47.1210012  65.8664997  27.3739988  49.2850012  17.1784997 143.3899988
  92.9540012  47.7844997 121.2309988 134.8210012 142.1224997  41.6249988
 114.8910012 128.6964997 133.2869988  16.6310012  79.9424997 115.6059988
 105.1460012  98.1094997 -11.5860012 121.5230012  95.4104997  39.3369988
 111.5930012  11.8744997  50.7139988  16.0770012 137.3084997  -5.6400012
  17.3970012  38.3624997  -7.9410012  68.3310012  21.4884997 105.9789988
  23.2580012  67.8184997  -4.6600012  90.6370012 126.7244997  49.1889988
  13.5660012  69.0364997   5.8669988 113.7250012  84.9764997  52.2709988
  80.8900012  45.6814997  27.4819988  42.8700012 124.6284997  50.6579988
 110.2210012 100.2614997   1.6629988  36.5950012  93.6004997  15.6379988
  66.4870012 109.2634997  38.2249988 110.9400012  53.2534997  -5.8120012
 134.6030012 105.4884997 127.1489988  25.2030012 100.0434997  39.4729988
  78.3870012   9.0024997  29.1409988  86.6610012 104.2084997  -5.5640012
   7.0970012 111.2364997 133.4349988  28.0480012 125.3554997  22.4579988
  79.0800012 115.5084997   4.1679988 123.6260012  75.9554997   5.3649988
  49.6510012  21.8654997  25.9449988 114.6430012 143.4584997   7.2029988
  61.0190012  42.5044997  44.4449988  92.5500012  35.1324997  -3.4040012
  27.4020012  19.9964997 -19.2890012 131.5890012  45.7554997 -12.7880012
  46.6170012 133.0144997  31.1779988  72.5400012  94.9734997 -12.0940012
  33.4140012  88.0154997   1.3479988  71.4150012   8.8734997 119.8759988
  33.4510012  82.9104997  -3.8580012  57.6470012  16.9354997 122.8939988
  72.5070012  87.1764997 -15.9580012 108.5810012 138.6184997 113.3559988
  10.2700012 100.2764997   5.8649988   9.4500012 125.3984997 143.3639988
 136.9680012 107.6194997  46.5129988  34.9270012  68.2364997  16.0649988
  81.6690012 101.5544997 133.0199988 135.4160012  16.4164997  28.4579988
 115.6370012  95.5654997 130.1759988  22.9140012  43.3104997  24.3809988
 123.6820012  44.2854997 -14.4920012  32.0350012  93.3984997 136.1979988
 143.6300012 122.2944997 117.6189988  58.0280012  97.6284997  37.4319988
  33.0270012 138.2944997  44.2429988  31.2870012  87.1084997 129.8369988
  86.1340012  43.7474997 130.9739988  48.3370012  97.8844997 -11.8420012
 137.4500012  90.1554997  -9.5040012  56.9960012 110.7084997 141.5839988
  84.7400012  71.9394997  -1.8390012 105.3810012  24.2394997 116.7939988
 142.0180012  10.2274997   0.3939988  68.9240012 127.0014997  -5.3190012
 103.5610012   8.8744997   9.4889988  27.6070012 138.2784997 123.8799988
  81.2980012  13.5284997  -0.4980012  76.3780012 141.3924997 -15.4690012
  17.2820012  85.6654997  14.2889988  58.8190012   4.2474997  35.7129988
  79.9870012 132.7404997 -15.6200012  29.2650012  69.3554997  52.5559988
  81.7040012  16.5734997  -8.3150012  75.4900012  34.5634997 122.4679988
 144.5170012  18.2574997 127.4629988  24.5240012 106.9574997 133.8839988
 133.3210012  22.4294997   7.9029988 106.2680012 129.1534997  46.7989988
 118.0280012  40.6804997 134.7609988 113.1110012  41.7554997  30.1609988
  61.6820012 129.8214997 132.8879988  78.1550012  19.3564997 123.2429988
  50.4910012 125.7354997  -1.5940012 138.3250012  65.7304997 142.9239988
  55.8460012   9.7284997 -16.2410012  79.7770012  66.1594997 117.7499988
  33.1930012  87.2304997  48.8579988  90.3650012   5.2154997  11.1759988
   4.4470012 144.4744997  55.8499988 115.7070012  15.2444997 135.4849988
  47.1750012  64.0284997   7.0649988  36.8450012   5.9674997   0.7329988
 141.7380012  84.0514997  39.4749988 111.3180012  88.4584997 118.1259988
  79.1950012  95.4664997  24.0019988  90.5680012  21.6974997 -17.5100012
  94.4530012  24.8184997  40.1309988  15.9300012  91.0274997   2.7829988
  14.4850012  99.8314997  51.4719988 111.2190012  65.9234997  34.8339988
 127.8180012 117.3934997   8.9409988  22.6600012 109.9004997   0.2879988
 118.8140012  14.9864997  41.9689988  55.1070012 101.9444997 -12.4900012
   6.5050012 143.2274997 136.3769988 129.6450012  53.0414997  24.3019988
 106.6000012  57.6454997  22.1739988  73.7920012  24.9674997  11.7539988
  92.6770012   5.6634997   0.5309988 117.9130012 121.5104997 122.7929988
  37.9590012 142.3704997  30.5479988 119.3630012 103.0314997 124.2999988
 134.3250012  67.8334997 -15.1330012  23.3120012  84.6204997  51.0539988
  61.2970012 118.9794997  -1.3570012  43.8710012  20.1864997   5.2699988
  70.6830012 112.7814997  30.4889988 133.8510012   9.7454997   6.0999988
  33.5200012 126.9294997 109.2079988  40.1230012  73.9644997 -18.9850012
  25.6680012 114.5084997 113.8689988  84.0230012 142.3694997  -7.7500012
 125.9210012  57.7344997  18.3229988  82.7990012 139.6374997 138.7319988
  33.2760012  29.8044997 122.0449988  84.1090012 135.6764997   4.7249988
 120.9990012  64.0684997  23.5829988  12.5590012  10.9274997  52.6609988
 109.1860012  22.8404997  34.9689988  28.5060012 110.2744997  41.1109988
  38.3340012  42.4584997  38.9919988  28.2510012 123.5584997 122.5469988
  67.7890012  48.6204997 124.1049988  88.1040012  19.7764997 137.7939988
  75.3670012 143.9634997  11.3409988 103.3830012  68.2424997  -2.2040012
  50.2510012  24.0324997 120.4469988  36.4060012  99.3564997   5.1339988
  80.5450012  48.8614997 -10.7060012   8.1950012 111.9074997   2.4299988
  79.5970012 120.0314997 -17.5940012 133.5290012  59.0074997  30.7819988
  75.8910012 127.4254997 118.8619988  68.0170012 107.8984997  -4.8270012
 133.6020012  97.3634997  37.8589988  34.3470012 113.3264997  -5.4790012
  43.1710012  26.3884997  41.4829988  39.7100012 141.0414997  16.0759988
  35.7280012  91.0144997  33.5399988  73.8400012  40.2314997  49.5699988
  26.5170012 144.3714997  44.6529988  43.9490012  79.2384997  37.3119988
 138.1980012 123.2574997  58.8669988   7.0580012  34.2174997 123.3859988
 113.2200012  29.2354997  15.6579988  36.1220012  52.4684997  28.1029988
 122.0190012  36.1384997 113.3449988   0.8420012  37.8284997  44.6279988
 115.9070012  19.2404997  42.5709988  52.3230012  81.3514997  23.8889988
 112.1110012  71.8894997 116.7169988  94.1620012  64.5964997 -12.6670012
 103.4910012  90.6234997 138.9089988   5.7490012  27.4524997  -1.6750012
  21.0460012  73.3104997  32.3229988   3.4810012 137.7114997  -9.8820012
  86.5550012 145.0604997  34.5459988 122.2760012   2.6684997  14.4379988
  78.1930012  18.9364997  57.2169988   4.1600012  44.3854997  -1.3760012
  72.8640012 109.4014997 132.1949988   2.4260012 133.3034997 127.1219988
  62.7240012 126.8024997  46.0269988  73.9900012  54.8154997  -1.5180012
 121.2350012   9.6164997 125.7529988 112.2880012 103.5384997  15.2809988
  66.4600012 141.1244997  15.4879988  28.7630012  14.2104997  46.7359988
  14.6540012  99.3394997 118.1249988  69.0580012 135.4224997   0.8049988
 127.5560012  57.5234997   9.6709988 109.2370012 144.8464997   3.3709988
  26.8990012  69.9504997 112.7319988 125.0340012 118.9694997  38.7149988
  30.4160012  18.8024997  22.5849988  26.1690012 101.2274997 121.8589988
  91.3710012 119.0414997 140.2479988 144.1720012  35.2654997 106.5479988
  17.6130012  37.8484997  21.7679988  45.8830012 145.0834997  60.0249988
  61.1540012 119.7984997 131.3879988 123.8500012 105.3434997 -16.0030012
  15.7390012   6.1034997  -9.6970012 134.7510012  14.2574997  45.1799988
  77.7780012  29.7044997 -12.6180012  26.6030012 130.2744997  38.9399988
  71.1740012 122.1454997  38.9539988 127.5650012  94.3384997  47.8369988
  71.4900012 134.1954997  39.4619988  68.6810012  66.8104997   5.2919988
  46.1960012  85.3924997 119.9449988 113.5550012  55.8484997 137.5239988
 120.9610012 142.7984997  -4.0470012  45.5030012  25.9804997  20.7869988
 106.1580012 141.3174997 125.1369988  35.5890012 126.9444997  32.9679988
  57.4620012  47.0654997  -7.2660012  25.2510012  95.7914997 119.3899988
 106.7090012  72.3704997 143.8179988  40.0570012 117.1684997  54.1019988
  77.4920012  88.7984997  35.8119988 117.5980012  37.7264997 -14.8520012
 115.5400012 104.4884997 129.4799988  90.7050012  57.1974997 -10.7020012
  46.8720012  74.9744997  27.6909988  68.2820012 124.4894997 108.2629988
 124.2040012  33.2594997 -19.3170012  73.7070012  12.6594997  49.5279988
  21.7460012 108.7274997  55.0659988 113.0520012  59.4504997  -0.8670012
  80.4480012  94.5254997  -5.1560012   5.0480012  12.0094997   6.3379988
 132.3670012  76.9034997  20.4229988 130.8920012 126.9814997  38.3389988
  82.1900012 113.3544997  42.3869988  18.8830012  41.3654997  31.2719988
 117.1080012 120.7724997 141.7189988  20.0790012 111.5404997 142.9709988
  19.1730012  45.5774997 134.4869988 110.4340012  71.3304997  41.6739988
 118.0250012  71.5574997 139.7089988  73.1320012 109.0764997  44.4129988
  71.2940012 132.0914997 120.9669988  55.6440012  70.8484997 137.7689988
  55.4520012   4.4584997 -13.2100012  12.4040012  60.1244997 133.2659988
 138.6310012  18.8254997  48.1899988  51.7740012 117.6544997 134.2939988
  93.0320012   7.1254997  20.2869988 132.3590012   1.4994997  -7.0840012
 115.3410012   6.5614997 128.0609988  52.1340012 133.6594997 117.1019988
 130.0420012 111.0604997 109.1749988  36.8310012  62.4684997  20.9129988
 133.9590012  16.5884997   0.7199988  38.7390012 138.8154997 -10.0030012
 139.8280012  22.9004997  37.0469988  72.6660012 122.6914997  33.5949988
  18.2420012  62.3584997 111.6819988  42.2580012  18.9514997  58.1649988
  59.3270012  53.4894997 123.9769988 110.6310012  76.0984997  56.1809988
 119.4550012   2.5444997  50.1309988  78.4140012  13.8264997  37.7099988
 123.7210012  11.2904997 110.2809988 118.4880012  19.0904997  51.4339988
  18.5030012 105.5694997   2.8519988 138.3750012  99.9714997  40.7199988
 108.6110012  86.2694997 111.1329988 109.3630012  45.8584997   1.0519988
   5.9380012 118.4404997 110.6799988 136.8380012  22.4104997 106.4319988
 112.6670012 110.9054997  50.9619988  48.8860012  57.3414997  38.7139988
  26.0310012  56.6454997  15.3439988  64.0380012  22.5484997 139.3379988
  14.8480012  85.9014997  25.6979988  52.3120012  19.7054997 119.2039988
  90.6570012  23.5144997 123.8929988 128.4470012   3.5824997  55.4699988
  26.1830012 106.9914997 117.5009988  23.2720012  34.0454997  -2.3260012
  69.9110012  57.6814997  15.0529988   5.7100012 136.9344997 110.1329988
   8.7140012 130.8424997  -7.4370012 122.1350012 101.7194997  34.6759988
  77.9170012 130.8394997   4.7139988  14.0770012 106.8314997  56.5689988
  12.6710012  89.4624997  18.0359988 105.6630012 135.6984997  48.6539988
  81.9960012 143.3304997 -17.6340012 104.9070012  25.3604997  15.7089988
  74.2080012  31.9734997 -10.7080012 119.1250012   9.7234997  -0.1340012
 139.4040012  12.9904997 -10.3240012   1.4920012 103.9154997 126.7099988
  53.9000012  98.9524997  49.7459988  87.3570012 137.3184997  39.0169988
  60.8230012  52.3414997  25.3489988 116.8560012  16.1204997  37.1499988
  10.6910012  43.3634997  56.0949988 115.1060012 109.1894997  16.4189988
  71.5720012 101.9124997 132.8199988 139.0240012 117.8434997 -16.1430012
   9.5840012   1.3594997   8.1409988  65.0730012 115.2374997 132.4639988
  17.1370012 109.9594997  -9.4740012   5.5560012 142.8544997 -17.6690012
  20.2820012  71.3604997  -3.3840012  23.6620012  26.9864997 128.4709988
  84.5260012  37.5404997  -1.0800012  40.6090012  90.5764997  56.1309988
  68.0530012 127.5934997 126.0719988  88.4280012 123.9484997 111.2899988
  62.9150012 102.9964997  43.6419988  99.0780012  64.1204997  -7.1620012
  45.2720012 119.7934997   9.3779988 118.2000012  62.1714997  56.3399988
 128.8760012 139.2534997 105.6779988 118.6070012 116.1064997 129.5619988
   6.5070012 106.6374997   9.3859988  15.6370012  66.0334997  56.1149988
   2.5690012  21.0424997 109.3329988 125.5060012 120.6494997 119.9249988
 114.3210012  69.7454997 113.2999988  36.0600012  76.3904997  32.0459988
  33.4000012  20.9904997  58.2129988  85.7690012 123.6354997 137.0679988
  51.2690012  81.5774997  13.0969988  68.1250012 107.4914997  34.2269988
  27.5300012  60.8344997  56.0629988  67.8590012 115.7034997  -0.9830012
  29.3640012  91.8764997  35.0919988  61.4750012  86.2464997  39.9569988
  64.0810012 117.4934997 112.3679988  38.2720012 101.7054997 140.3669988
 137.7070012   6.6854997  23.1779988  27.8980012 127.8064997 115.5119988
 125.5940012 108.4324997 122.7519988 112.8250012  54.6844997 -15.4790012
   9.8650012 136.1374997 139.7679988 109.2390012 127.5344997 126.7729988
 133.0210012 137.5414997  59.2159988  76.5530012  10.2604997  -7.7330012
  38.4230012 115.4644997  -7.4090012 111.5040012 143.8934997  57.1719988
  79.3210012 105.9584997 108.0549988  41.0770012  15.9864997 109.5219988
  89.0690012 143.0654997   6.7959988  59.3350012 116.7854997 140.9329988
  21.7030012 119.6404997  26.5969988 109.2160012  21.9654997  45.7059988
  34.5590012  15.5914997  21.1859988 126.8770012 112.5604997  14.2999988
  54.6840012   1.3844997 125.5569988  65.5650012  14.1444997  56.6589988
   2.0240012  20.8344997  -5.7970012  70.8250012 116.2764997  -5.2090012
 105.2920012  45.0314997 -10.6430012  25.8220012  89.0944997  42.9699988
  53.4900012  40.8174997  -3.3050012  66.5800012  83.5894997 -13.0730012
  76.8310012  92.6824997 112.8219988 130.2780012  78.9504997 138.8039988
  50.1210012  14.4754997 -18.0230012  32.9990012  10.6094997  46.6719988
 141.9390012  81.3464997 -13.1880012  14.1250012 142.2464997 113.7749988
  65.1000012  26.8174997 113.2409988  66.4520012 140.3744997   0.4199988
  76.8220012  16.8574997  29.1149988   5.8940012  47.2554997  -8.5590012
 123.5800012  89.5184997  44.3519988 114.2490012  92.2304997  -5.7630012
  84.8670012  97.2954997  15.8829988 105.9270012  26.7054997 111.2799988
  53.5360012  58.5734997 106.8979988  89.0560012  24.6254997 135.3689988
  62.8060012 130.9944997  -0.4360012  31.0930012  39.1484997  21.4809988
 106.2480012  51.9224997  26.0749988  38.4100012 130.0504997  27.7429988
  80.1060012  52.7864997  45.5609988 122.2520012 129.7824997 134.1369988
  26.3840012  85.5864997  21.4129988 128.8020012  10.7194997 125.9299988
  81.7620012  29.2504997 118.0179988  42.0980012 139.2744997  37.2689988
  36.3040012  13.2904997 119.7179988   2.7250012   1.7184997 107.3029988
 107.7850012  41.8464997  29.3119988 135.5730012  55.1354997  25.0039988
   8.9640012  50.2184997 -10.1590012  50.2550012  93.6414997 -17.0550012
  60.3140012  49.2664997  -4.3140012  46.9660012 125.3084997 109.5549988
 121.2940012  52.7014997  11.9149988  61.5050012  85.2534997  11.3139988
 122.7340012  50.7834997 -12.0240012 135.6180012  83.0084997  39.2149988
 100.6400012  12.4514997  14.9369988 141.2750012  61.9134997 142.4019988
 100.2170012  19.1294997  57.9419988  37.5620012  73.6314997  17.8839988
  20.9940012  95.5724997 121.0209988  22.5960012  87.9224997   2.5579988
 114.2260012  26.5014997 111.3299988  31.0780012 113.4274997 -18.1930012
  28.5080012 118.3264997  48.8449988  13.2050012  10.4414997 124.9089988
  90.3810012 106.8584997 138.3219988  14.0080012  24.0474997 143.6569988
  95.3760012  41.4794997  57.6719988  28.5870012  88.4634997  -7.1080012
 130.4080012  72.2234997 114.6009988  50.1410012  30.5234997 114.4949988
  17.5520012  20.6074997  13.5499988   6.8730012  84.6934997 107.4349988
  11.7670012 111.4284997 127.9809988 111.4520012 134.5134997  40.5029988
  79.3220012  56.3294997  -8.3690012  72.4260012  79.1874997  -1.7660012
  78.0890012  87.3814997 -17.8030012 113.7650012  97.9504997 -16.4560012
  75.2320012  33.6874997  44.2019988 136.0340012  86.0364997  54.4069988
 131.4860012 109.0294997  53.2039988  29.9440012 127.1794997   2.9619988
   3.1490012   8.2434997  34.5189988 102.5860012 133.9514997 114.9129988
  12.0730012  40.2104997  -0.5830012  53.2400012  45.1334997 114.3129988
  73.7980012 142.9354997 113.8669988 112.7890012 142.8804997 128.9619988
 143.4190012  82.1894997 139.4409988 129.5510012  97.2804997 119.0069988
 137.8230012 131.7364997 109.7429988   6.2640012  75.8404997 129.8449988
 119.1920012 109.0944997   8.3909988  98.1810012  55.8664997  44.1249988
 123.3510012  53.6974997  24.5159988  24.4260012  27.4134997 110.1299988
  49.3390012  69.8064997   3.3419988 112.6651372 143.7680803   3.6574344
  12.4390012  10.7114997 109.3889988  12.5280012  11.6554997 109.2569988
  11.8010012  10.4364997 108.7309988  12.3649081  10.8034830 109.2819614
  11.3720012   9.9664997 112.8079988  11.3340012   9.3204997 113.5129988
  11.0500012   9.5004997 112.0369988  11.3232333   9.8149408 112.8002978
   3.7410012   9.5814997 114.4009988   3.7820012   8.9554997 115.1239988
   4.4440012  10.2054997 114.5829988   3.8416363   9.5801196 114.5246044
  15.0780012  12.9054997 111.1089988  14.6380012  12.1854997 111.5599988
  15.0650012  13.6264997 111.7389988  15.0160226  12.9043731 111.2558494
   4.6640012  14.0314997 112.9359988   4.2950012  13.2294997 112.5659988
   5.6050012  13.8624997 112.9819988   4.7407289  13.8990153 112.8916316
   1.2740012   7.6914997 108.3289988   0.8270012   8.5374997 108.3099988
   0.7130012   7.1114997 107.8129988   1.1369900   7.7289916 108.2566801
   1.9850012   9.8534997 110.4539988   2.1980012   9.0834997 110.9819988
   2.7230012   9.9424997 109.8509988   2.1139044   9.7601968 110.4447123
  12.1900012  18.0104997 111.3209988  12.8100012  17.3334997 111.0479988
  11.9820012  17.7924997 112.2299988  12.2466726  17.8884800 111.4064812
   9.7620012  12.3994997 113.2139988  10.0660012  11.7134997 112.6189988
  10.4830012  12.5174997 113.8319988   9.9010671  12.3216304 113.2161816
  18.4250012   4.0004997 114.0749988  18.4740012   4.6104997 114.8099988
  18.8500012   4.4614997 113.3519988  18.4891746   4.1463796 114.0779175
  12.9030012   6.7934997 113.5409988  13.0450012   5.8474997 113.5619988
  12.7960012   7.0004997 112.6129988  12.9079919   6.6918246 113.4183408
   6.0570012   4.8944997 110.8139988   6.1010012   5.7544997 110.3949988
   5.6000012   4.3424997 110.1799988   6.0012240   4.9374422 110.6709864
  13.7800012   5.0254997 109.2149988  14.4260012   4.6964997 109.8389988
  14.2900012   5.5434997 108.5919988  13.9374299   5.0504450 109.2162731
   2.6780012   7.2914997 111.5759988   3.3310012   6.7414997 112.0079988
   2.7020012   7.0174997 110.6589988   2.7706683   7.1791466 111.5112123
   7.8340012   8.8414997 110.7909988   8.4500012   8.3154997 111.3009988
   7.2480012   8.2014997 110.3879988   7.8390810   8.6829208 110.8063173
  18.8160012   5.4784997 116.3099988  18.1280012   6.1364997 116.2149988
  18.8320012   5.2814997 117.2469988  18.7239540   5.5419819 116.4235990
   4.8680012   3.8124997 114.8879988   4.6490012   4.3424997 114.1219988
   4.2000012   4.0394997 115.5349988   4.7477600   3.9156906 114.8706379
  12.2370012  13.3124997 108.4319988  11.9410012  12.9904997 107.5809988
  11.9120012  14.2124997 108.4729988  12.1526371  13.3900215 108.3211801
   7.4370012  11.4884997 115.1749988   6.6970012  12.0864997 115.2789988
   8.1510012  12.0424997 114.8599988   7.4322237  11.6452831 115.1466465
  15.5440012   4.3164997 111.1949988  15.3280012   3.5504997 111.7279988
  16.1990012   4.7884997 111.7079988  15.6030632   4.2755889 111.3372861
   4.4610012   5.7044997 112.8399988   5.0750012   6.3374997 113.2129988
   4.9730012   5.2324997 112.1839988   4.6141981   5.7272267 112.8022908
   5.8440012  13.4524997 115.9619988   5.8390012  14.3324997 115.5839988
   4.9910012  13.3694997 116.3869988   5.7279464  13.5616117 115.9677907
   1.9650012  13.1234997 106.7439988   1.6930012  13.3524997 105.8559988
   2.0110012  13.9614997 107.2049988   1.9339482  13.2681318 106.6846273
  15.5900012  14.7454997 113.4569988  14.6490012  14.8034997 113.6189988
  15.8670012  15.6514997 113.3199988  15.4984679  14.8759443 113.4606815
  15.8910012   3.0314997 114.8749988  15.1550012   3.6424997 114.8369988
  16.5740012   3.4464997 114.3479988  15.8826541   3.1711374 114.7985832
   8.8940012   1.1184997 112.3399988   8.7770012   0.1694997 112.2859988
   8.0390012   1.4504997 112.6139988   8.7624212   1.0335571 112.3696497
  13.8420012  16.5264997 110.0819988  14.2680012  15.8194997 109.5969988
  14.1590012  17.3274997 109.6659988  13.9431683  16.5381017 109.9593680
  15.0020012  14.4274997 108.5909988  14.7440012  13.7374997 107.9799988
  15.0730012  13.9844997 109.4369988  14.9762856  14.2732124 108.6216885
  16.6880012  12.9934997 117.0679988  16.8280012  12.4024997 116.3289988
  16.8550012  13.8664997 116.7119988  16.7297411  13.0305428 116.9186894
  11.1610012   9.9554997 106.8409988  10.4490012  10.4904997 106.4889988
  11.8520012  10.0114997 106.1809988  11.1570132  10.0362543 106.7036289
  18.5300012   9.3334997 115.1339988  17.8770012  10.0284997 115.2239988
  18.9950012   9.5434997 114.3249988  18.5035274   9.4570643 115.0368462
  14.5660012  10.1654997 107.7929988  13.8340012  10.3934997 108.3659988
  15.0140012   9.4514997 108.2469988  14.5262725  10.1002145 107.9328816
  14.4640012   8.3394997 116.8599988  14.5440012   9.1024997 117.4319988
  13.8620012   8.6184997 116.1699988  14.3935756   8.4817134 116.8450589
   6.2120012  10.7954997 109.6749988   5.8810012  10.4254997 108.8569988
   6.8000012  10.1254997 110.0219988   6.2461873  10.6541156 109.6098102
   7.5780012  14.2234997 112.3559988   7.4840012  13.6454997 111.5999988
   8.3080012  13.8524997 112.8529988   7.6637387  14.0941663 112.3195342
   6.5780012   9.5644997 113.3089988   7.1440012   9.6854997 112.5459988
   6.8970012  10.2014997 113.9469988   6.6985474   9.6672219 113.2909862
  12.8870012  15.0674997 114.0429988  12.6470012  15.7294997 114.6909988
  12.6890012  14.2334997 114.4679988  12.8273808  15.0453134 114.1891524
   7.4580012  13.9634997 118.0259988   7.1470012  14.7454997 118.4809988
   6.8080012  13.8104997 117.3399988   7.3275558  14.0499105 117.9955871
  13.4370012   9.3274997 105.4779988  14.0170012   9.4774997 106.2249988
  13.8510012   9.7984997 104.7539988  13.5722997   9.4116578 105.4824058
   4.3780012  10.1614997 117.2539988   4.4490012  10.8124997 117.9529988
   3.4880012  10.2644997 116.9189988   4.2673005  10.2645427 117.3043495
  11.1640012  16.0644997 108.9129988  11.6380012  16.3594997 109.6899988
  10.6010012  16.8024997 108.6799988  11.1528184  16.2047247 108.9879628
   5.6980012  16.0354997 118.7889988   5.7050012  15.8994997 117.8419988
   4.7820012  15.9174997 119.0409988   5.5751714  16.0009430 118.6934666
   5.2020012   9.8654997 107.2639988   4.9100012  10.6334997 106.7739988
   4.5280012   9.2054997 107.1019988   5.0708111   9.8815587 107.1748978
   1.2950012  12.2284997 116.0789988   0.7940012  12.2004997 115.2639988
   1.3000012  11.3224997 116.3889988   1.2270944  12.1022396 116.0093226
   1.0450012  15.0084997 112.9629988   1.9910012  14.8644997 112.9439988
   0.9330012  15.7924997 113.4999988   1.1592727  15.0948046 113.0330072
  19.2430012  15.6744997 118.6459988  19.1940012  14.7194997 118.6089988
  18.4160012  15.9424997 119.0469988  19.1244940  15.5798998 118.6951375
  10.2220012  15.2484997 117.5219988  10.3090012  16.0744997 117.9969988
   9.3580012  14.9184997 117.7709988  10.1171964  15.3169878 117.6206549
  10.6360012  19.0204997 107.3279988  10.5610012  18.8994997 106.3809988
  10.6690012  19.9704997 107.4459988  10.6302068  19.1322646 107.2144967
   4.2890012  17.8094997 109.1089988   4.4420012  17.4614997 109.9869988
   3.4390012  17.4534997 108.8539988   4.1949166  17.7136216 109.1948079
  13.4070012  18.1004997 107.0789988  12.4710012  18.2004997 107.2579988
  13.6870012  17.3914997 107.6579988  13.3169553  18.0183406 107.1817087
  16.3950012   7.1674997 119.1259988  15.9880012   7.6484997 118.4049988
  16.4360012   6.2624997 118.8179988  16.3448437   7.1109374 118.9856683
   3.5440012  13.5514997 117.1229988   3.7600012  13.1904997 117.9819988
   2.6890012  13.1774997 116.9129988   3.4579292  13.4514111 117.2123386
   6.1630012   2.0214997 113.1179988   5.3010012   1.9344997 112.7099988
   6.1400012   2.8774997 113.5459988   6.0420409   2.1252883 113.1200589
  10.8260012   1.7434997 116.4929988  11.2460012   1.3284997 117.2459988
   9.8930012   1.5654997 116.6099988  10.7573644   1.6625900 116.6119539
  14.1520012   5.4994997 117.3459988  13.6380012   5.3734997 118.1439988
  13.9970012   6.4114997 117.1019988  14.0606852   5.6056132 117.4222158
  14.9150012  10.3604997 103.1079988  14.9570012  10.1374997 102.1779988
  15.7640012  10.7594997 103.2969988  15.0355280  10.3839438 103.0063554
   6.2540012   6.9874997 114.2129988   5.6120012   6.9464997 114.9219988
   6.2910012   7.9134997 113.9749988   6.1710664   7.1071430 114.2779219
   6.2510012   7.2084997 109.1249988   5.3580012   6.8674997 109.0659988
   6.7010012   6.8314997 108.3689988   6.1898130   7.1109631 109.0147702
  11.7860012   7.6244997 107.9419988  11.3770012   8.4394997 107.6509988
  12.5070012   7.4844997 107.3279988  11.8274537   7.7172018 107.8191342
  10.8880012   7.7994997 119.4299988  10.3260012   7.0954997 119.7509988
  11.7150012   7.6794997 119.8979988  10.9227095   7.6867883 119.5372330
  12.7910012   7.0704997 110.7559988  12.5960012   7.6754997 110.0409988
  12.9720012   6.2364997 110.3219988  12.7887614   7.0406300 110.5994405
   4.0040012   7.3074997 116.0799988   3.9660012   7.7074997 116.9489988
   3.5130012   6.4904997 116.1709988   3.9324684   7.2518069 116.2111059
   0.6120012   4.4234997 109.9309988   1.2430012   4.3944997 110.6499988
   1.0610012   3.9984997 109.1999988   0.7590918   4.3620836 109.9306441
   1.8860012   5.1694997 105.3549988   2.3600012   5.7604997 104.7699988
   1.1690012   5.7004997 105.7019988   1.8539341   5.3220867 105.3218836
  12.0550012   8.7084997 115.4269988  12.3780012   8.0774997 114.7839988
  11.6150012   8.1734997 116.0879988  12.0397484   8.5498387 115.4283198
   8.8320012   4.6354997 110.2109988   7.9210012   4.6924997 110.4999988
   9.3380012   4.5754997 111.0219988   8.7756899   4.6351941 110.3601184
   3.6610012   6.2644997 109.0379988   2.7710012   6.3644997 108.6979988
   3.9570012   5.4224997 108.6919988   3.5792823   6.1643546 108.9447213
   7.3140012   6.2644997 106.6949988   8.2450012   6.3934997 106.8729988
   7.0990012   6.9344997 106.0449988   7.4124247   6.3726565 106.6315747
  13.2370012   3.8704997 113.4759988  12.5610012   4.0014997 114.1399988
  12.7520012   3.7154997 112.6649988  13.0787146   3.8675157 113.4574469
   5.9880012   7.4594997 104.2609988   5.4450012   7.0794997 103.5699988
   6.8210012   7.6534997 103.8329988   6.0263631   7.4337125 104.1084501
  16.5250012  19.5424997 119.7519988  16.7250012  19.9664997 118.9179988
  17.1800012  19.8854997 120.3589988  16.6410072  19.6469857 119.7198592
   4.1230012  12.0164997 119.3599988   4.8550012  12.2704997 119.9219988
   3.3430012  12.2204997 119.8759988   4.1177073  12.0788160 119.5066151
  10.1520012   7.4234997 112.0979988  10.7170012   6.8764997 111.5509988
  10.0050012   6.9014997 112.8869988  10.2093380   7.2782259 112.1298695
   5.1540012   3.5594997 108.5169988   4.8370012   2.6574997 108.4809988
   5.9360012   3.5614997 107.9639988   5.2162408   3.4362474 108.4373569
   8.7790012   5.8114997 114.5119988   7.9430012   6.2654997 114.6229988
   9.3030012   6.0874997 115.2639988   8.7355416   5.9108660 114.6288119
   9.3230012  12.0244997 106.1969988   8.5780012  11.5174997 105.8749988
   9.1890012  12.0734997 107.1439988   9.2028776  11.9616940 106.2808647
  16.4730012  11.1574997 114.9839988  17.1150012  11.6144997 114.4399988
  15.6430012  11.2704997 114.5209988  16.4485963  11.2352704 114.8470177
  10.8420012  12.2084997 117.4339988  10.4970012  11.8274997 118.2409988
  10.6420012  13.1424997 117.5049988  10.7677527  12.2825135 117.5540689
  13.9390012   6.7054997 106.0569988  14.8310012   6.5684997 106.3759988
  13.9960012   7.4964997 105.5199988  14.0686504   6.7936052 106.0280818
   4.4480012  11.3194997 111.9669988   5.1930012  11.3174997 111.3659988
   4.5260012  10.4964997 112.4479988   4.5604995  11.2078887 111.9498282
   1.4560012   9.7804997 117.2819988   1.6790012   9.3624997 118.1139988
   0.8540012   9.1674997 116.8589988   1.4051759   9.6404668 117.3387022
   8.4720012   9.2974997 119.4949988   8.1760012   9.1314997 118.5999988
   9.4040012   9.0774997 119.4839988   8.5574166   9.2450640 119.3710536
  13.0930012  14.6704997 117.3849988  12.1920012  14.8534997 117.1169988
  13.1270012  14.9294997 118.3049988  12.9743139  14.7305849 117.4728099
  18.8240012   6.9154997 105.7519988  18.2700012   6.5194997 105.0799988
  18.9240012   7.8254997 105.4739988  18.7617059   6.9843586 105.6224401
  18.7870012  12.7154997 118.5889988  17.9360012  12.9534997 118.2219988
  19.3780012  12.6984997 117.8359988  18.7502487  12.7458258 118.4368893
  17.1190012  15.7014997 106.2169988  16.7460012  14.8754997 106.5259988
  17.3970012  15.5184997 105.3189988  17.1055222  15.5637430 106.1379473
  14.2800012  10.5094997 113.2379988  13.3510012  10.2774997 113.2109988
  14.7310012   9.7324997 112.9079988  14.2139216  10.3727238 113.1896917
   6.8230012  14.8374997 109.3709988   7.3500012  15.6104997 109.1709988
   5.9430012  15.0624997 109.0689988   6.7762031  14.9737545 109.3027912
   8.2500012  12.5004997 108.9469988   8.0090012  13.4254997 108.9889988
   7.5090012  12.0414997 109.3439988   8.1169225  12.5650933 109.0063742
   8.7650012  16.6494997 115.2629988   9.1270012  17.5044997 115.0289988
   9.2960012  16.3574997 116.0029988   8.8864473  16.7271060 115.3310855
   6.9330012  17.5224997 108.4929988   5.9830012  17.6274997 108.5439988
   7.2850012  18.3424997 108.8369988   6.8504195  17.6478800 108.5465502
  12.3090012  12.7484997 114.9629988  11.8830012  12.5214997 115.7899988
  12.8890012  12.0104997 114.7809988  12.3291868  12.6175299 115.0515830
  14.9670012  17.3004997 117.4329988  14.3660012  16.7454997 116.9369988
  15.2490012  17.9674997 116.8059988  14.9228804  17.3146625 117.2804849
   3.0900012   4.5334997 116.8399988   2.1970012   4.8724997 116.7719988
   2.9910012   3.6784997 117.2579988   2.9544164   4.4642588 116.8872235
  15.3780012  12.3504997 106.2639988  15.1000012  11.6224997 106.8199988
  16.3050012  12.4694997 106.4689988  15.4653124  12.2668802 106.3678845
   2.7410012  16.3384997 115.2749988   2.9580012  15.4064997 115.2439988
   2.9870012  16.6124997 116.1579988   2.8039549  16.2480636 115.3901763
   7.5400012  14.3594997 104.9399988   7.6860012  13.8394997 105.7299988
   7.5370012  15.2664997 105.2469988   7.5595792  14.4108842 105.0896117
  11.8240012   4.2744997 115.7299988  12.5230012   4.3484997 116.3799988
  11.4430012   3.4104997 115.8839988  11.8681767   4.1677624 115.8398322
  12.6090012   3.9264997 106.8269988  12.8290012   4.3984997 106.0239988
  13.1670012   4.3214997 107.4969988  12.7144968   4.0444285 106.8077331
   9.8090012   5.6544997 107.6619988  10.6210012   6.1594997 107.7079988
   9.5640012   5.5094997 108.5759988   9.8870520   5.7040375 107.7918517
  10.3440012   6.6404997 116.8459988  10.4630012   7.2144997 117.6039988
  11.0000012   5.9524997 116.9609988  10.4489025   6.6259858 116.9651321
  10.6920012   2.7354997 108.5999988  10.3460012   3.3534997 109.2439988
  11.3510012   3.2364997 108.1179988  10.7336968   2.8876278 108.6229383
   7.6160012  17.1014997 105.6709988   7.7760012  17.9004997 105.1709988
   7.4180012  17.4074997 106.5559988   7.6111637  17.2524020 105.7221144
   6.3500012   3.7984997 105.2869988   6.2670012   4.6874997 105.6339988
   7.2400012   3.5334997 105.5189988   6.4589469   3.8841430 105.3657626
  16.5490012   4.5474997 117.6809988  15.6320012   4.8104997 117.5939988
  16.8840012   4.5444997 116.7849988  16.4688613   4.5830761 117.5478837
  15.1510012   8.2984997 111.7769988  14.3530012   7.8834997 111.4489988
  15.5960012   7.6074997 112.2679988  15.1019885   8.1483543 111.7984889
   4.6090012  14.2264997 104.3479988   5.2010012  14.9254997 104.6239988
   5.0680012  13.7934997 103.6279988   4.7521142  14.2637049 104.2884830
  16.2370012  17.5544997 113.3999988  16.0820012  18.2324997 112.7419988
  17.1700012  17.6264997 113.6029988  16.3418657  17.6569546 113.3374360
   3.7330012   1.6724997 112.1369988   3.5040012   1.7314997 111.2089988
   3.2900012   0.8804997 112.4429988   3.6418530   1.5735753 112.0514786
   2.6630012  15.6124997 108.2969988   1.8310012  16.0854997 108.3239988
   3.2090012  16.1224997 107.6989988   2.6230352  15.7461332 108.2198463
   1.9510012  18.2254997 119.6269988   2.4920012  18.0084997 120.3869988
   1.4700012  17.4194997 119.4369988   1.9599951  18.0869270 119.7052576
   6.5490012  17.1444997 121.2469988   7.3160012  16.6854997 121.5879988
   6.5270012  16.9184997 120.3179988   6.6511275  17.0510186 121.1680101
  13.1260012  15.5244997 119.9769988  12.7750012  14.6684997 120.2199988
  13.8520012  15.6674997 120.5839988  13.1760769  15.4265636 120.0923619
   1.8580012  12.0354997 120.5809988   2.0020012  11.1334997 120.2949988
   1.0860012  12.3214997 120.0939988   1.7732753  11.9506816 120.4759505
   8.5140012  12.0054997 120.0139988   8.1850012  12.2764997 119.1569988
   8.6660012  11.0644997 119.9269988   8.4894809  11.9153862 119.8848244
  14.2480012  11.9214997 117.3969988  14.9940012  12.5094997 117.2779988
  13.4910012  12.5034997 117.4609988  14.2477820  12.0807143 117.3893590
   2.6910012   9.2354997 120.0009988   3.0990012   8.3784997 119.8799988
   2.4310012   9.2504997 120.9219988   2.7117568   9.1200807 120.1089588
   7.3490012  10.3514997 105.0199988   6.8890012   9.8674997 105.7059988
   7.6040012   9.6834997 104.3839988   7.3204902  10.1948731 105.0279334
   6.6380012   8.2444997 117.3759988   6.0200012   8.9194997 117.6559988
   6.9820012   8.5654997 116.5419988   6.5999132   8.3802411 117.3016262
   8.4200012   8.5944997 103.2819988   8.2400012   8.4404997 102.3549988
   9.3700012   8.7024997 103.3269988   8.5237776   8.5880175 103.1611843
  11.6580012  10.7164997 120.6529988  12.6110012  10.7994997 120.6259988
  11.4970012  10.0044997 121.2729988  11.7666426  10.6316746 120.7330579
   6.9770012   5.5994997 118.4579988   7.1270012   4.8704997 117.8559988
   6.9800012   6.3764997 117.8989988   6.9979302   5.6047851 118.3000692
   7.3900012   3.9694997 115.9509988   7.9260012   4.4204997 115.2989988
   6.5380012   3.8614997 115.5279988   7.3482178   4.0166390 115.8045756
   8.9720012   9.4084997 116.1899988   9.7220012   9.2524997 115.6169988
   8.6330012  10.2604997 115.9149988   9.0288921   9.5022968 116.0743561
  13.3870012   7.2234997 121.2189988  13.5800012   6.2924997 121.1069988
  14.2450012   7.6484997 121.2079988  13.5292934   7.1536531 121.2022031
  14.7040012  10.0124997 119.2959988  14.4230012  10.7214997 118.7179988
  15.6470012   9.9394997 119.1449988  14.7929291  10.0996711 119.1964967
   5.4560012   6.7974997 120.3699988   4.6890012   6.2654997 120.1589988
   6.1350012   6.4874997 119.7699988   5.4427877   6.6828300 120.2600716
   8.1960012   1.4254997 116.3819988   8.0970012   2.3724997 116.2769988
   7.4530012   1.0534997 115.9059988   8.0821184   1.5045863 116.3033621
   9.4600012   5.7474997 119.9459988   9.2240012   5.5274997 120.8469988
   8.6760012   5.5404997 119.4359988   9.3218504   5.6894586 120.0003431
  12.1750012   4.8744997 119.0209988  11.2280012   4.9064997 119.1539988
  12.4880012   4.2494997 119.6749988  12.0876707   4.7943998 119.1276060
  13.8090012   3.5084997 121.0269988  13.7130012   2.5564997 121.0209988
  13.4880012   3.7774997 121.8869988  13.7524070   3.4144035 121.1425441
   3.6360012   4.7184997 120.0739988   3.8480012   4.0114997 119.4639988
   3.5250012   4.2804997 120.9179988   3.6499721   4.5627084 120.1046843
   8.4170012   0.7194997 119.0529988   9.1290012   0.0794997 119.0389988
   8.3160012   0.9864997 118.1399988   8.5008066   0.6680079 118.9275677
   8.7710012   2.4024997 121.1069988   8.6390012   1.9264997 120.2869988
   8.1720012   3.1464997 121.0519988   8.6719071   2.4379618 120.9872886
   0.5350012  19.3144997 108.8439988  -0.1119988  18.8524997 108.3109988
   0.8890012  18.6424997 109.4259988   0.4943849  19.1604723 108.8497959
   1.4050012  17.3954997 110.6479988   1.0700012  16.5154997 110.8199988
   1.6270012  17.7404997 111.5129988   1.3891783  17.3217501 110.7884208
  18.9530012  18.2044997 113.6289988  18.9320012  18.3894997 114.5679988
  19.6440012  18.7734997 113.2879988  19.0434618  18.3066606 113.7113864
  18.5170012  17.7724997 116.5509988  18.0290012  17.0364997 116.1789988
  19.0660012  17.3784997 117.2289988  18.5244820  17.6185889 116.5917813
  16.9670012  13.5614997 121.1889988  16.1010012  13.4564997 121.5829988
  17.3440012  14.3204997 121.6349988  16.8993308  13.6496900 121.3032393
  18.2680012  11.8184997 106.7029988  19.1180012  12.2394997 106.8299988
  18.2740012  11.0784997 107.3099988  18.3851372  11.7760803 106.8024344
  18.6630012   9.8714997 108.5259988  17.9360012   9.3924997 108.9239988
  19.2440012  10.0774997 109.2589988  18.6420473   9.8338103 108.6794528
  18.4220012  12.6564997 113.4739988  19.2550012  12.2784997 113.1939988
  18.5340012  13.5994997 113.3549988  18.5512647  12.7322218 113.4195487
  16.9080012  15.5344997 115.7809988  16.2610012  15.8594997 116.4069988
  16.3910012  15.0944997 115.1069988  16.7494029  15.5195004 115.7755827
  17.2800012   7.0124997 103.4679988  17.3760012   7.6794997 102.7879988
  17.1400012   6.1964997 102.9869988  17.2742272   6.9935655 103.3098347
  16.4490012   8.3924997 109.0889988  16.2990012   7.4474997 109.0689988
  16.0960012   8.6734997 109.9329988  16.3807448   8.3011481 109.2003705
   1.4850012  10.4704997 113.0999988   1.6690012  10.3884997 112.1639988
   2.3340012  10.3464997 113.5229988   1.6250151  10.4425073 113.0291451
  17.3060012  10.3624997 118.7279988  17.8890012   9.6284997 118.9199988
  17.8700012  11.1344997 118.7749988  17.4619769  10.3664227 118.7606159
  18.8020012   8.2654997 119.4129988  17.9390012   7.8864997 119.2469988
  19.4070012   7.5264997 119.3379988  18.7656119   8.1138268 119.3801528
  16.1600012   5.9754997 107.5519988  16.4400012   5.0684997 107.6759988
  16.9190012   6.4094997 107.1629988  16.3009277   5.9100942 107.5163682
  16.7720012   6.5564997 112.9879988  17.7050012   6.7684997 112.9529988
  16.5370012   6.6584997 113.9099988  16.8679244   6.5993100 113.1078892
  16.8010012   7.2934997 115.7639988  15.9580012   7.5614997 116.1299988
  17.2430012   8.1154997 115.5529988  16.7454158   7.4413291 115.7855491
   1.0820012   5.7414997 119.2409988   2.0020012   5.6194997 119.4769988
   0.6330012   4.9914997 119.6299988   1.1471580   5.6233727 119.3259006
  19.0840012   1.2734997 121.1169988  19.4340012   0.6194997 120.5119988
  19.2310012   2.1104997 120.6769988  19.1517887   1.2971548 120.9746858
  16.7730012   3.2384997 107.5999988  16.9560012   2.7894997 108.4259988
  16.1740012   2.6534997 107.1369988  16.7170202   3.0979975 107.6503275
   2.3030012   4.0534997 112.1319988   2.7490012   3.2614997 112.4339988
   2.7700012   4.7694997 112.5619988   2.4270831   4.0420685 112.2314006
   0.6070012   7.0524997 113.2009988   1.0990012   6.8314997 112.4099988
   0.9700012   7.8934997 113.4819988   0.7233126   7.1358357 113.1307531
  18.6040012   3.3824997 119.4659988  17.6860012   3.6534997 119.4309988
  18.7270012   2.8474997 118.6819988  18.4949729   3.3472508 119.3551923
   0.9210012   3.3104997 107.2549988  -0.0039988   3.5194997 107.1259988
   1.3750012   3.7944997 106.5649988   0.8557292   3.4045343 107.1440720
  15.6920012  18.2944997 109.2009988  16.3440012  17.9474997 108.5929988
  16.2020012  18.7834997 109.8469988  15.8502637  18.3130597 109.2050236
   0.8850012   2.0484997 115.5989988   0.2200012   1.8024997 116.2429988
   0.4420012   2.6704997 115.0219988   0.7341318   2.0989410 115.6090898
   3.0770012  15.2234997 119.7439988   2.2560012  15.3984997 119.2829988
   2.8240012  15.1504997 120.6639988   2.9305585  15.2375544 119.8053561
   6.0310012  16.1984997 116.0019988   5.6060012  17.0074997 115.7199988
   6.9350012  16.2834997 115.6999988   6.0949975  16.3209300 115.9224816
  10.3420012  17.5974997 118.9619988  10.5270012  17.2634997 119.8399988
  11.1880012  17.9064997 118.6399988  10.4817539  17.5936047 119.0385605
  12.6870012  18.8834997 118.2059988  13.3640012  18.2504997 117.9659988
  13.0090012  19.2844997 119.0129988  12.8231637  18.8511154 118.2822793
  17.6040012   1.4724997 117.2849988  16.7920012   1.7974997 116.8979988
  17.8370012   0.7124997 116.7519988  17.5242203   1.4142758 117.1598880
   3.4330012  19.4544997 116.0499988   2.7120012  19.8944997 115.5989988
   3.0670012  19.2034997 116.8979988   3.2849651  19.4807242 116.1029640
   5.9000012  19.0544997 115.0799988   5.0350012  19.1264997 115.4839988
   5.8450012  19.6014997 114.2959988   5.7742085  19.1382685 115.0293362
  10.6100012  18.9424997 114.2549988  10.1540012  19.4714997 113.6009988
  10.7730012  19.5454997 114.9799988  10.5696068  19.0964607 114.2634838
  12.9380012  17.8204997 115.1999988  12.0330012  17.9854997 114.9339988
  13.3670012  18.6734997 115.1349988  12.8721324  17.9584339 115.1547976
  15.5420012  19.3904997 115.4949988  15.3600012  20.3064997 115.2849988
  15.7190012  18.9804997 114.6489988  15.5410210  19.4604822 115.3517885
   2.8470012  18.0774997 112.9599988   2.8290012  17.6524997 113.8169988
   3.6520012  17.7594997 112.5509988   2.9533529  17.9763013 113.0220946
   4.9890012  16.7874997 111.6149988   4.7700012  15.8714997 111.7849988
   5.8130012  16.9274997 112.0809988   5.0704420  16.6810520 111.7012774
   7.5260012  17.2574997 112.4639988   7.7390012  16.3694997 112.1769988
   7.5900012  17.2234997 113.4179988   7.5638232  17.1313102 112.5537397
  11.0340012   2.9214997 111.6079988  10.3600012   2.2924997 111.8639988
  11.5980012   2.4374997 111.0049988  11.0179230   2.7698744 111.5615340
  16.1770012   1.0294997 111.7209988  16.7810012   1.5764997 111.2189988
  15.3070012   1.3484997 111.4799988  16.1421208   1.1475137 111.6196886
  17.9040012   2.1674997 110.0539988  18.5160012   1.6534997 109.5269988
  18.2860012   3.0454997 110.0769988  18.0393371   2.2157866 109.9850041
   3.3610012   1.5554997 109.4299988   2.5840012   1.3214997 108.9229988
   3.8910012   0.7584997 109.4389988   3.3262330   1.4156988 109.3617742
   2.1970012   1.3534997 105.2339988   2.6360012   1.9644997 104.6419988
   1.5640012   1.8914997 105.7079988   2.1714514   1.5099257 105.2170930
   7.9400012   1.4824997 109.2439988   8.8150012   1.8704997 109.2139988
   7.8040012   1.2674997 110.1659988   8.0413695   1.5065184 109.3646440
  13.4970012   1.5124997 110.8929988  13.5730012   1.6074997 109.9429988
  13.2220012   0.6044997 111.0219988  13.4702321   1.4027867 110.7805079
  14.8500012   1.5384997 106.5849988  14.1480012   2.1534997 106.3749988
  14.4060012   0.7004997 106.7159988  14.6936450   1.5095639 106.5739000
   2.0980012  17.3014997 106.1309988   1.4130012  17.2634997 105.4639988
   2.1020012  18.2144997 106.4199988   2.0046998  17.4196733 106.0786771
   4.0580012   3.2694997 103.6759988   4.5500012   2.6394997 103.1489988
   4.6820012   3.5654997 104.3389988   4.2095688   3.2233804 103.6935482
   9.0840012   3.5624997 106.1329988   9.2620012   2.9164997 106.8159988
   9.0310012   4.3964997 106.5999988   9.1011999   3.5868009 106.2895917
  17.6720012  18.0744997 107.2079988  17.4770012  17.3264997 106.6429988
  17.6330012  18.8324997 106.6249988  17.6400380  18.0746099 107.0518384
   3.3190012   2.0694997 118.9479988   2.9530012   1.3044997 119.3899988
   4.2320012   2.0984997 119.2339988   3.3922736   1.9685640 119.0472502
   5.2920012   1.4204997 120.4839988   6.1900012   1.1464997 120.2989988
   4.9050012   0.6774997 120.9479988   5.3626612   1.2825914 120.5213643
  13.7130012   0.7524997 120.6659988  13.7900012   0.3264997 121.5199988
  14.6070012   0.7664997 120.3229988  13.8443428   0.6960879 120.7365310
  16.8890012  16.8254997 119.3579988  16.1070012  16.6394997 118.8379988
  16.8170012  17.7544997 119.5759988  16.7722274  16.9256643 119.3163018
  31.2950012  10.7114997 109.3889988  31.3840012  11.6554997 109.2569988
  30.6570012  10.4364997 108.7309988  31.2209081  10.8034830 109.2819614
  30.2280012   9.9664997 112.8079988  30.1900012   9.3204997 113.5129988
  29.9060012   9.5004997 112.0369988  30.1792333   9.8149408 112.8002978
  22.5970012   9.5814997 114.4009988  22.6380012   8.9554997 115.1239988
  23.3000012  10.2054997 114.5829988  22.6976363   9.5801196 114.5246044
  33.9340012  12.9054997 111.1089988  33.4940012  12.1854997 111.5599988
  33.9210012  13.6264997 111.7389988  33.8720226  12.9043731 111.2558494
  23.5200012  14.0314997 112.9359988  23.1510012  13.2294997 112.5659988
  24.4610012  13.8624997 112.9819988  23.5967289  13.8990153 112.8916316
  20.1300012   7.6914997 108.3289988  19.6830012   8.5374997 108.3099988
  19.5690012   7.1114997 107.8129988  19.9929900   7.7289916 108.2566801
  20.8410012   9.8534997 110.4539988  21.0540012   9.0834997 110.9819988
  21.5790012   9.9424997 109.8509988  20.9699044   9.7601968 110.4447123
  31.0460012  18.0104997 111.3209988  31.6660012  17.3334997 111.0479988
  30.8380012  17.7924997 112.2299988  31.1026726  17.8884800 111.4064812
  28.6180012  12.3994997 113.2139988  28.9220012  11.7134997 112.6189988
  29.3390012  12.5174997 113.8319988  28.7570671  12.3216305 113.2161816
  37.2810012   4.0004997 114.0749988  37.3300012   4.6104997 114.8099988
  37.7060012   4.4614997 113.3519988  37.3451746   4.1463796 114.0779175
  31.7590012   6.7934997 113.5409988  31.9010012   5.8474997 113.5619988
  31.6520012   7.0004997 112.6129988  31.7639919   6.6918246 113.4183408
  24.9130012   4.8944997 110.8139988  24.9570012   5.7544997 110.3949988
  24.4560012   4.3424997 110.1799988  24.8572240   4.9374422 110.6709864
  32.6360012   5.0254997 109.2149988  33.2820012   4.6964997 109.8389988
  33.1460012   5.5434997 108.5919988  32.7934299   5.0504450 109.2162731
  21.5340012   7.2914997 111.5759988  22.1870012   6.7414997 112.0079988
  21.5580012   7.0174997 110.6589988  21.6266683   7.1791466 111.5112123
  26.6900012   8.8414997 110.7909988  27.3060012   8.3154997 111.3009988
  26.1040012   8.2014997 110.3879988  26.6950810   8.6829208 110.8063173
  37.6720012   5.4784997 116.3099988  36.9840012   6.1364997 116.2149988
  37.6880012   5.2814997 117.2469988  37.5799540   5.5419819 116.4235990
  23.7240012   3.8124997 114.8879988  23.5050012   4.3424997 114.1219988
  23.0560012   4.0394997 115.5349988  23.6037600   3.9156906 114.8706379
  31.0930012  13.3124997 108.4319988  30.7970012  12.9904997 107.5809988
  30.7680012  14.2124997 108.4729988  31.0086371  13.3900215 108.3211801
  26.2930012  11.4884997 115.1749988  25.5530012  12.0864997 115.2789988
  27.0070012  12.0424997 114.8599988  26.2882237  11.6452831 115.1466465
  34.4000012   4.3164997 111.1949988  34.1840012   3.5504997 111.7279988
  35.0550012   4.7884997 111.7079988  34.4590632   4.2755889 111.3372861
  23.3170012   5.7044997 112.8399988  23.9310012   6.3374997 113.2129988
  23.8290012   5.2324997 112.1839988  23.4701981   5.7272267 112.8022908
  24.7000012  13.4524997 115.9619988  24.6950012  14.3324997 115.5839988
  23.8470012  13.3694997 116.3869988  24.5839464  13.5616117 115.9677907
  20.8210012  13.1234997 106.7439988  20.5490012  13.3524997 105.8559988
  20.8670012  13.9614997 107.2049988  20.7899482  13.2681318 106.6846273
  34.4460012  14.7454997 113.4569988  33.5050012  14.8034997 113.6189988
  34.7230012  15.6514997 113.3199988  34.3544679  14.8759443 113.4606815
  34.7470012   3.0314997 114.8749988  34.0110012   3.6424997 114.8369988
  35.4300012   3.4464997 114.3479988  34.7386541   3.1711374 114.7985832
  27.7500012   1.1184997 112.3399988  27.6330012   0.1694997 112.2859988
  26.8950012   1.4504997 112.6139988  27.6184212   1.0335571 112.3696497
  32.6980012  16.5264997 110.0819988  33.1240012  15.8194997 109.5969988
  33.0150012  17.3274997 109.6659988  32.7991683  16.5381017 109.9593680
  33.8580012  14.4274997 108.5909988  33.6000012  13.7374997 107.9799988
  33.9290012  13.9844997 109.4369988  33.8322856  14.2732124 108.6216885
  35.5440012  12.9934997 117.0679988  35.6840012  12.4024997 116.3289988
  35.7110012  13.8664997 116.7119988  35.5857411  13.0305428 116.9186894
  30.0170012   9.9554997 106.8409988  29.3050012  10.4904997 106.4889988
  30.7080012  10.0114997 106.1809988  30.0130132  10.0362543 106.7036289
  37.3860012   9.3334997 115.1339988  36.7330012  10.0284997 115.2239988
  37.8510012   9.5434997 114.3249988  37.3595274   9.4570643 115.0368462
  33.4220012  10.1654997 107.7929988  32.6900012  10.3934997 108.3659988
  33.8700012   9.4514997 108.2469988  33.3822725  10.1002145 107.9328816
  33.3200012   8.3394997 116.8599988  33.4000012   9.1024997 117.4319988
  32.7180012   8.6184997 116.1699988  33.2495756   8.4817134 116.8450589
  25.0680012  10.7954997 109.6749988  24.7370012  10.4254997 108.8569988
  25.6560012  10.1254997 110.0219988  25.1021873  10.6541156 109.6098102
  26.4340012  14.2234997 112.3559988  26.3400012  13.6454997 111.5999988
  27.1640012  13.8524997 112.8529988  26.5197387  14.0941663 112.3195342
  25.4340012   9.5644997 113.3089988  26.0000012   9.6854997 112.5459988
  25.7530012  10.2014997 113.9469988  25.5545474   9.6672219 113.2909862
  31.7430012  15.0674997 114.0429988  31.5030012  15.7294997 114.6909988
  31.5450012  14.2334997 114.4679988  31.6833808  15.0453134 114.1891524
  26.3140012  13.9634997 118.0259988  26.0030012  14.7454997 118.4809988
  25.6640012  13.8104997 117.3399988  26.1835558  14.0499105 117.9955871
  32.2930012   9.3274997 105.4779988  32.8730012   9.4774997 106.2249988
  32.7070012   9.7984997 104.7539988  32.4282997   9.4116578 105.4824058
  23.2340012  10.1614997 117.2539988  23.3050012  10.8124997 117.9529988
  22.3440012  10.2644997 116.9189988  23.1233005  10.2645427 117.3043495
  30.0200012  16.0644997 108.9129988  30.4940012  16.3594997 109.6899988
  29.4570012  16.8024997 108.6799988  30.0088184  16.2047247 108.9879628
  24.5540012  16.0354997 118.7889988  24.5610012  15.8994997 117.8419988
  23.6380012  15.9174997 119.0409988  24.4311714  16.0009430 118.6934666
  35.9920012   1.0774997 105.2909988  35.0920012   1.2164997 105.5859988
  36.2440012   1.9084997 104.8889988  35.9028702   1.2089074 105.2770205
  24.0580012   9.8654997 107.2639988  23.7660012  10.6334997 106.7739988
  23.3840012   9.2054997 107.1019988  23.9268111   9.8815587 107.1748978
  37.1810012  15.4434997 103.6669988  37.2550012  16.3824997 103.8379988
  38.0870012  15.1384997 103.6109988  37.3135100  15.5306722 103.6828119
  20.1510012  12.2284997 116.0789988  19.6500012  12.2004997 115.2639988
  20.1560012  11.3224997 116.3889988  20.0830944  12.1022396 116.0093226
  19.9010012  15.0084997 112.9629988  20.8470012  14.8644997 112.9439988
  19.7890012  15.7924997 113.4999988  20.0152727  15.0948046 113.0330072
  38.0990012  15.6744997 118.6459988  38.0500012  14.7194997 118.6089988
  37.2720012  15.9424997 119.0469988  37.9804940  15.5798998 118.6951375
  29.0780012  15.2484997 117.5219988  29.1650012  16.0744997 117.9969988
  28.2140012  14.9184997 117.7709988  28.9731964  15.3169878 117.6206549
  29.4920012  19.0204997 107.3279988  29.4170012  18.8994997 106.3809988
  29.5250012  19.9704997 107.4459988  29.4862068  19.1322646 107.2144967
  23.1450012  17.8094997 109.1089988  23.2980012  17.4614997 109.9869988
  22.2950012  17.4534997 108.8539988  23.0509166  17.7136216 109.1948079
  32.5940012  18.1744997 104.3299988  32.9690012  17.4304997 103.8589988
  32.5980012  17.9044997 105.2489988  32.6459125  18.0360986 104.3896483
  32.2630012  18.1004997 107.0789988  31.3270012  18.2004997 107.2579988
  32.5430012  17.3914997 107.6579988  32.1729553  18.0183406 107.1817087
  35.2510012   7.1674997 119.1259988  34.8440012   7.6484997 118.4049988
  35.2920012   6.2624997 118.8179988  35.2008437   7.1109374 118.9856683
  22.4000012  13.5514997 117.1229988  22.6160012  13.1904997 117.9819988
  21.5450012  13.1774997 116.9129988  22.3139292  13.4514111 117.2123386
  25.0190012   2.0214997 113.1179988  24.1570012   1.9344997 112.7099988
  24.9960012   2.8774997 113.5459988  24.8980409   2.1252883 113.1200589
  29.6820012   1.7434997 116.4929988  30.1020012   1.3284997 117.2459988
  28.7490012   1.5654997 116.6099988  29.6133644   1.6625900 116.6119539
  33.0080012   5.4994997 117.3459988  32.4940012   5.3734997 118.1439988
  32.8530012   6.4114997 117.1019988  32.9166852   5.6056132 117.4222158
  25.1100012   6.9874997 114.2129988  24.4680012   6.9464997 114.9219988
  25.1470012   7.9134997 113.9749988  25.0270664   7.1071430 114.2779219
  25.1070012   7.2084997 109.1249988  24.2140012   6.8674997 109.0659988
  25.5570012   6.8314997 108.3689988  25.0458130   7.1109631 109.0147702
  30.6420012   7.6244997 107.9419988  30.2330012   8.4394997 107.6509988
  31.3630012   7.4844997 107.3279988  30.6834537   7.7172018 107.8191342
  29.7440012   7.7994997 119.4299988  29.1820012   7.0954997 119.7509988
  30.5710012   7.6794997 119.8979988  29.7787095   7.6867883 119.5372330
  31.6470012   7.0704997 110.7559988  31.4520012   7.6754997 110.0409988
  31.8280012   6.2364997 110.3219988  31.6447614   7.0406300 110.5994405
  22.8600012   7.3074997 116.0799988  22.8220012   7.7074997 116.9489988
  22.3690012   6.4904997 116.1709988  22.7884684   7.2518069 116.2111059
  19.4680012   4.4234997 109.9309988  20.0990012   4.3944997 110.6499988
  19.9170012   3.9984997 109.1999988  19.6150918   4.3620836 109.9306441
  20.7420012   5.1694997 105.3549988  21.2160012   5.7604997 104.7699988
  20.0250012   5.7004997 105.7019988  20.7099341   5.3220867 105.3218836
  30.9110012   8.7084997 115.4269988  31.2340012   8.0774997 114.7839988
  30.4710012   8.1734997 116.0879988  30.8957484   8.5498387 115.4283198
  27.6880012   4.6354997 110.2109988  26.7770012   4.6924997 110.4999988
  28.1940012   4.5754997 111.0219988  27.6316899   4.6351941 110.3601184
  22.5170012   6.2644997 109.0379988  21.6270012   6.3644997 108.6979988
  22.8130012   5.4224997 108.6919988  22.4352823   6.1643545 108.9447213
  26.1700012   6.2644997 106.6949988  27.1010012   6.3934997 106.8729988
  25.9550012   6.9344997 106.0449988  26.2684247   6.3726565 106.6315747
  32.0930012   3.8704997 113.4759988  31.4170012   4.0014997 114.1399988
  31.6080012   3.7154997 112.6649988  31.9347146   3.8675157 113.4574469
  35.3810012  19.5424997 119.7519988  35.5810012  19.9664997 118.9179988
  36.0360012  19.8854997 120.3589988  35.4970072  19.6469857 119.7198592
  22.9790012  12.0164997 119.3599988  23.7110012  12.2704997 119.9219988
  22.1990012  12.2204997 119.8759988  22.9737073  12.0788160 119.5066151
  29.0080012   7.4234997 112.0979988  29.5730012   6.8764997 111.5509988
  28.8610012   6.9014997 112.8869988  29.0653380   7.2782259 112.1298695
  24.0100012   3.5594997 108.5169988  23.6930012   2.6574997 108.4809988
  24.7920012   3.5614997 107.9639988  24.0722408   3.4362474 108.4373569
  27.6350012   5.8114997 114.5119988  26.7990012   6.2654997 114.6229988
  28.1590012   6.0874997 115.2639988  27.5915416   5.9108660 114.6288119
  28.1790012  12.0244997 106.1969988  27.4340012  11.5174997 105.8749988
  28.0450012  12.0734997 107.1439988  28.0588776  11.9616940 106.2808647
  35.3290012  11.1574997 114.9839988  35.9710012  11.6144997 114.4399988
  34.4990012  11.2704997 114.5209988  35.3045963  11.2352704 114.8470177
  29.6980012  12.2084997 117.4339988  29.3530012  11.8274997 118.2409988
  29.4980012  13.1424997 117.5049988  29.6237527  12.2825135 117.5540689
  32.7950012   6.7054997 106.0569988  33.6870012   6.5684997 106.3759988
  32.8520012   7.4964997 105.5199988  32.9246504   6.7936052 106.0280818
  23.3040012  11.3194997 111.9669988  24.0490012  11.3174997 111.3659988
  23.3820012  10.4964997 112.4479988  23.4164995  11.2078887 111.9498282
  30.3050012  13.4834997 105.2229988  30.0090012  14.3094997 105.6039988
  29.6020012  12.8634997 105.4189988  30.1694914  13.5128199 105.3016443
  20.3120012   9.7804997 117.2819988  20.5350012   9.3624997 118.1139988
  19.7100012   9.1674997 116.8589988  20.2611759   9.6404668 117.3387022
  27.3280012   9.2974997 119.4949988  27.0320012   9.1314997 118.5999988
  28.2600012   9.0774997 119.4839988  27.4134166   9.2450640 119.3710536
  31.9490012  14.6704997 117.3849988  31.0480012  14.8534997 117.1169988
  31.9830012  14.9294997 118.3049988  31.8303139  14.7305849 117.4728099
  37.6800012   6.9154997 105.7519988  37.1260012   6.5194997 105.0799988
  37.7800012   7.8254997 105.4739988  37.6177059   6.9843586 105.6224401
  37.6430012  12.7154997 118.5889988  36.7920012  12.9534997 118.2219988
  38.2340012  12.6984997 117.8359988  37.6062487  12.7458258 118.4368893
  35.9750012  15.7014997 106.2169988  35.6020012  14.8754997 106.5259988
  36.2530012  15.5184997 105.3189988  35.9615222  15.5637430 106.1379473
  33.1360012  10.5094997 113.2379988  32.2070012  10.2774997 113.2109988
  33.5870012   9.7324997 112.9079988  33.0699216  10.3727238 113.1896917
  25.6790012  14.8374997 109.3709988  26.2060012  15.6104997 109.1709988
  24.7990012  15.0624997 109.0689988  25.6322031  14.9737545 109.3027912
  27.1060012  12.5004997 108.9469988  26.8650012  13.4254997 108.9889988
  26.3650012  12.0414997 109.3439988  26.9729225  12.5650933 109.0063742
  27.6210012  16.6494997 115.2629988  27.9830012  17.5044997 115.0289988
  28.1520012  16.3574997 116.0029988  27.7424473  16.7271060 115.3310855
  25.7890012  17.5224997 108.4929988  24.8390012  17.6274997 108.5439988
  26.1410012  18.3424997 108.8369988  25.7064195  17.6478800 108.5465502
  31.1650012  12.7484997 114.9629988  30.7390012  12.5214997 115.7899988
  31.7450012  12.0104997 114.7809988  31.1851868  12.6175299 115.0515830
  33.8230012  17.3004997 117.4329988  33.2220012  16.7454997 116.9369988
  34.1050012  17.9674997 116.8059988  33.7788804  17.3146625 117.2804849
  37.8710012  18.1574997 104.2379988  38.6150012  18.7434997 104.0979988
  37.1770012  18.7254997 104.5709988  37.8789899  18.3145798 104.2638778
  21.9460012   4.5334997 116.8399988  21.0530012   4.8724997 116.7719988
  21.8470012   3.6784997 117.2579988  21.8104164   4.4642588 116.8872235
  34.2340012  12.3504997 106.2639988  33.9560012  11.6224997 106.8199988
  35.1610012  12.4694997 106.4689988  34.3213124  12.2668802 106.3678845
  21.5970012  16.3384997 115.2749988  21.8140012  15.4064997 115.2439988
  21.8430012  16.6124997 116.1579988  21.6599549  16.2480636 115.3901763
  22.8490012  11.6124997 105.4509988  22.1630012  11.9644997 106.0179988
  23.3710012  12.3754997 105.2039988  22.8256852  11.7638578 105.4952118
  30.6800012   4.2744997 115.7299988  31.3790012   4.3484997 116.3799988
  30.2990012   3.4104997 115.8839988  30.7241767   4.1677624 115.8398322
  31.4650012   3.9264997 106.8269988  31.6850012   4.3984997 106.0239988
  32.0230012   4.3214997 107.4969988  31.5704968   4.0444285 106.8077331
  29.1330012  16.0574997 105.6899988  28.3170012  16.5544997 105.7419988
  29.6630012  16.5324997 105.0499988  29.0929161  16.1897722 105.6105956
  28.6650012   5.6544997 107.6619988  29.4770012   6.1594997 107.7079988
  28.4200012   5.5094997 108.5759988  28.7430520   5.7040375 107.7918517
  29.2000012   6.6404997 116.8459988  29.3190012   7.2144997 117.6039988
  29.8560012   5.9524997 116.9609988  29.3049025   6.6259858 116.9651321
  29.5480012   2.7354997 108.5999988  29.2020012   3.3534997 109.2439988
  30.2070012   3.2364997 108.1179988  29.5896968   2.8876278 108.6229383
  25.2060012   3.7984997 105.2869988  25.1230012   4.6874997 105.6339988
  26.0960012   3.5334997 105.5189988  25.3149469   3.8841430 105.3657626
  35.4050012   4.5474997 117.6809988  34.4880012   4.8104997 117.5939988
  35.7400012   4.5444997 116.7849988  35.3248613   4.5830761 117.5478837
  34.0070012   8.2984997 111.7769988  33.2090012   7.8834997 111.4489988
  34.4520012   7.6074997 112.2679988  33.9579885   8.1483543 111.7984889
  21.7810012   6.8904997 103.4639988  21.7360012   7.8294997 103.6419988
  20.8930012   6.6544997 103.1939988  21.6548574   6.9871892 103.4518912
  35.0930012  17.5544997 113.3999988  34.9380012  18.2324997 112.7419988
  36.0260012  17.6264997 113.6029988  35.1978657  17.6569546 113.3374360
  22.5890012   1.6724997 112.1369988  22.3600012   1.7314997 111.2089988
  22.1460012   0.8804997 112.4429988  22.4978530   1.5735753 112.0514786
  21.5190012  15.6124997 108.2969988  20.6870012  16.0854997 108.3239988
  22.0650012  16.1224997 107.6989988  21.4790352  15.7461332 108.2198463
  20.8070012  18.2254997 119.6269988  21.3480012  18.0084997 120.3869988
  20.3260012  17.4194997 119.4369988  20.8159951  18.0869270 119.7052576
  25.4050012  17.1444997 121.2469988  26.1720012  16.6854997 121.5879988
  25.3830012  16.9184997 120.3179988  25.5071275  17.0510186 121.1680101
  31.9820012  15.5244997 119.9769988  31.6310012  14.6684997 120.2199988
  32.7080012  15.6674997 120.5839988  32.0320769  15.4265636 120.0923619
  34.1010012  16.4694997 102.8559988  34.3840012  15.6754997 103.3089988
  34.8410012  16.7024997 102.2959988  34.2398006  16.3923376 102.8422715
  20.7140012  12.0354997 120.5809988  20.8580012  11.1334997 120.2949988
  19.9420012  12.3214997 120.0939988  20.6292753  11.9506816 120.4759505
  27.3700012  12.0054997 120.0139988  27.0410012  12.2764997 119.1569988
  27.5220012  11.0644997 119.9269988  27.3454809  11.9153862 119.8848244
  33.1040012  11.9214997 117.3969988  33.8500012  12.5094997 117.2779988
  32.3470012  12.5034997 117.4609988  33.1037820  12.0807143 117.3893590
  21.5470012   9.2354997 120.0009988  21.9550012   8.3784997 119.8799988
  21.2870012   9.2504997 120.9219988  21.5677568   9.1200807 120.1089588
  25.4940012   8.2444997 117.3759988  24.8760012   8.9194997 117.6559988
  25.8380012   8.5654997 116.5419988  25.4559132   8.3802411 117.3016262
  30.5140012  10.7164997 120.6529988  31.4670012  10.7994997 120.6259988
  30.3530012  10.0044997 121.2729988  30.6226426  10.6316746 120.7330579
  25.8330012   5.5994997 118.4579988  25.9830012   4.8704997 117.8559988
  25.8360012   6.3764997 117.8989988  25.8539302   5.6047851 118.3000692
  26.2460012   3.9694997 115.9509988  26.7820012   4.4204997 115.2989988
  25.3940012   3.8614997 115.5279988  26.2042178   4.0166390 115.8045756
  27.8280012   9.4084997 116.1899988  28.5780012   9.2524997 115.6169988
  27.4890012  10.2604997 115.9149988  27.8848921   9.5022968 116.0743561
  32.2430012   7.2234997 121.2189988  32.4360012   6.2924997 121.1069988
  33.1010012   7.6484997 121.2079988  32.3852934   7.1536531 121.2022031
  33.5600012  10.0124997 119.2959988  33.2790012  10.7214997 118.7179988
  34.5030012   9.9394997 119.1449988  33.6489291  10.0996711 119.1964967
  24.3120012   6.7974997 120.3699988  23.5450012   6.2654997 120.1589988
  24.9910012   6.4874997 119.7699988  24.2987877   6.6828300 120.2600716
  27.0520012   1.4254997 116.3819988  26.9530012   2.3724997 116.2769988
  26.3090012   1.0534997 115.9059988  26.9381184   1.5045863 116.3033621
  28.3160012   5.7474997 119.9459988  28.0800012   5.5274997 120.8469988
  27.5320012   5.5404997 119.4359988  28.1778504   5.6894586 120.0003431
  31.0310012   4.8744997 119.0209988  30.0840012   4.9064997 119.1539988
  31.3440012   4.2494997 119.6749988  30.9436707   4.7943998 119.1276060
  32.6650012   3.5084997 121.0269988  32.5690012   2.5564997 121.0209988
  32.3440012   3.7774997 121.8869988  32.6084070   3.4144035 121.1425441
  22.4920012   4.7184997 120.0739988  22.7040012   4.0114997 119.4639988
  22.3810012   4.2804997 120.9179988  22.5059721   4.5627084 120.1046843
  27.2730012   0.7194997 119.0529988  27.9850012   0.0794997 119.0389988
  27.1720012   0.9864997 118.1399988  27.3568066   0.6680079 118.9275677
  27.6270012   2.4024997 121.1069988  27.4950012   1.9264997 120.2869988
  27.0280012   3.1464997 121.0519988  27.5279071   2.4379618 120.9872886
  27.1730012  19.2854997 104.2829988  28.1060012  19.4434997 104.4269988
  26.9090012  19.9604997 103.6589988  27.2649888  19.3984510 104.2182842
  19.3910012  19.3144997 108.8439988  18.7440012  18.8524997 108.3109988
  19.7450012  18.6424997 109.4259988  19.3503849  19.1604723 108.8497959
  20.2610012  17.3954997 110.6479988  19.9260012  16.5154997 110.8199988
  20.4830012  17.7404997 111.5129988  20.2451783  17.3217500 110.7884208
  37.8090012  18.2044997 113.6289988  37.7880012  18.3894997 114.5679988
  38.5000012  18.7734997 113.2879988  37.8994618  18.3066606 113.7113864
  37.3730012  17.7724997 116.5509988  36.8850012  17.0364997 116.1789988
  37.9220012  17.3784997 117.2289988  37.3804820  17.6185889 116.5917813
  35.8230012  13.5614997 121.1889988  34.9570012  13.4564997 121.5829988
  36.2000012  14.3204997 121.6349988  35.7553308  13.6496900 121.3032393
  37.1240012  11.8184997 106.7029988  37.9740012  12.2394997 106.8299988
  37.1300012  11.0784997 107.3099988  37.2411372  11.7760803 106.8024344
  37.5190012   9.8714997 108.5259988  36.7920012   9.3924997 108.9239988
  38.1000012  10.0774997 109.2589988  37.4980473   9.8338103 108.6794528
  37.2780012  12.6564997 113.4739988  38.1110012  12.2784997 113.1939988
  37.3900012  13.5994997 113.3549988  37.4072647  12.7322218 113.4195487
  35.7640012  15.5344997 115.7809988  35.1170012  15.8594997 116.4069988
  35.2470012  15.0944997 115.1069988  35.6054029  15.5195004 115.7755827
  37.7870012   9.7724997 104.9179988  37.2650012  10.1294997 104.1989988
  37.7540012  10.4474997 105.5959988  37.7111634   9.9125413 104.9113145
  36.1360012   7.0124997 103.4679988  36.2320012   7.6794997 102.7879988
  35.9960012   6.1964997 102.9869988  36.1302272   6.9935655 103.3098347
  35.3050012   8.3924997 109.0889988  35.1550012   7.4474997 109.0689988
  34.9520012   8.6734997 109.9329988  35.2367448   8.3011481 109.2003705
  20.3410012  10.4704997 113.0999988  20.5250012  10.3884997 112.1639988
  21.1900012  10.3464997 113.5229988  20.4810151  10.4425073 113.0291451
  36.1620012  10.3624997 118.7279988  36.7450012   9.6284997 118.9199988
  36.7260012  11.1344997 118.7749988  36.3179769  10.3664227 118.7606159
  37.6580012   8.2654997 119.4129988  36.7950012   7.8864997 119.2469988
  38.2630012   7.5264997 119.3379988  37.6216119   8.1138268 119.3801528
  35.0160012   5.9754997 107.5519988  35.2960012   5.0684997 107.6759988
  35.7750012   6.4094997 107.1629988  35.1569277   5.9100942 107.5163682
  35.6280012   6.5564997 112.9879988  36.5610012   6.7684997 112.9529988
  35.3930012   6.6584997 113.9099988  35.7239244   6.5993100 113.1078892
  35.6570012   7.2934997 115.7639988  34.8140012   7.5614997 116.1299988
  36.0990012   8.1154997 115.5529988  35.6014158   7.4413291 115.7855491
  19.9380012   5.7414997 119.2409988  20.8580012   5.6194997 119.4769988
  19.4890012   4.9914997 119.6299988  20.0031580   5.6233727 119.3259006
  37.9400012   1.2734997 121.1169988  38.2900012   0.6194997 120.5119988
  38.0870012   2.1104997 120.6769988  38.0077887   1.2971548 120.9746858
  35.6290012   3.2384997 107.5999988  35.8120012   2.7894997 108.4259988
  35.0300012   2.6534997 107.1369988  35.5730202   3.0979975 107.6503275
  21.1590012   4.0534997 112.1319988  21.6050012   3.2614997 112.4339988
  21.6260012   4.7694997 112.5619988  21.2830831   4.0420685 112.2314006
  19.4630012   7.0524997 113.2009988  19.9550012   6.8314997 112.4099988
  19.8260012   7.8934997 113.4819988  19.5793126   7.1358357 113.1307531
  37.4600012   3.3824997 119.4659988  36.5420012   3.6534997 119.4309988
  37.5830012   2.8474997 118.6819988  37.3509729   3.3472508 119.3551923
  37.4960012   3.3054997 104.1279988  37.9080012   2.5844997 103.6529988
  38.1780012   3.9754997 104.1869988  37.6445885   3.2972368 104.0708915
  19.7770012   3.3104997 107.2549988  18.8520012   3.5194997 107.1259988
  20.2310012   3.7944997 106.5649988  19.7117292   3.4045343 107.1440720
  34.5480012  18.2944997 109.2009988  35.2000012  17.9474997 108.5929988
  35.0580012  18.7834997 109.8469988  34.7062637  18.3130597 109.2050236
  19.7410012   2.0484997 115.5989988  19.0760012   1.8024997 116.2429988
  19.2980012   2.6704997 115.0219988  19.5901318   2.0989410 115.6090898
  21.9330012  15.2234997 119.7439988  21.1120012  15.3984997 119.2829988
  21.6800012  15.1504997 120.6639988  21.7865585  15.2375544 119.8053561
  24.8870012  16.1984997 116.0019988  24.4620012  17.0074997 115.7199988
  25.7910012  16.2834997 115.6999988  24.9509975  16.3209300 115.9224816
  29.1980012  17.5974997 118.9619988  29.3830012  17.2634997 119.8399988
  30.0440012  17.9064997 118.6399988  29.3377539  17.5936047 119.0385605
  31.5430012  18.8834997 118.2059988  32.2200012  18.2504997 117.9659988
  31.8650012  19.2844997 119.0129988  31.6791637  18.8511154 118.2822793
  36.4600012   1.4724997 117.2849988  35.6480012   1.7974997 116.8979988
  36.6930012   0.7124997 116.7519988  36.3802203   1.4142758 117.1598880
  22.2890012  19.4544997 116.0499988  21.5680012  19.8944997 115.5989988
  21.9230012  19.2034997 116.8979988  22.1409651  19.4807242 116.1029640
  24.7560012  19.0544997 115.0799988  23.8910012  19.1264997 115.4839988
  24.7010012  19.6014997 114.2959988  24.6302085  19.1382685 115.0293362
  29.4660012  18.9424997 114.2549988  29.0100012  19.4714997 113.6009988
  29.6290012  19.5454997 114.9799988  29.4256068  19.0964607 114.2634838
  31.7940012  17.8204997 115.1999988  30.8890012  17.9854997 114.9339988
  32.2230012  18.6734997 115.1349988  31.7281324  17.9584339 115.1547976
  34.3980012  19.3904997 115.4949988  34.2160012  20.3064997 115.2849988
  34.5750012  18.9804997 114.6489988  34.3970210  19.4604822 115.3517885
  21.7030012  18.0774997 112.9599988  21.6850012  17.6524997 113.8169988
  22.5080012  17.7594997 112.5509988  21.8093529  17.9763013 113.0220946
  23.8450012  16.7874997 111.6149988  23.6260012  15.8714997 111.7849988
  24.6690012  16.9274997 112.0809988  23.9264420  16.6810520 111.7012774
  26.3820012  17.2574997 112.4639988  26.5950012  16.3694997 112.1769988
  26.4460012  17.2234997 113.4179988  26.4198232  17.1313102 112.5537397
  29.8900012   2.9214997 111.6079988  29.2160012   2.2924997 111.8639988
  30.4540012   2.4374997 111.0049988  29.8739230   2.7698744 111.5615340
  35.0330012   1.0294997 111.7209988  35.6370012   1.5764997 111.2189988
  34.1630012   1.3484997 111.4799988  34.9981208   1.1475137 111.6196886
  36.7600012   2.1674997 110.0539988  37.3720012   1.6534997 109.5269988
  37.1420012   3.0454997 110.0769988  36.8953371   2.2157866 109.9850041
  22.2170012   1.5554997 109.4299988  21.4400012   1.3214997 108.9229988
  22.7470012   0.7584997 109.4389988  22.1822330   1.4156988 109.3617742
  21.0530012   1.3534997 105.2339988  21.4920012   1.9644997 104.6419988
  20.4200012   1.8914997 105.7079988  21.0274514   1.5099257 105.2170930
  26.7960012   1.4824997 109.2439988  27.6710012   1.8704997 109.2139988
  26.6600012   1.2674997 110.1659988  26.8973695   1.5065184 109.3646440
  32.3530012   1.5124997 110.8929988  32.4290012   1.6074997 109.9429988
  32.0780012   0.6044997 111.0219988  32.3262321   1.4027867 110.7805079
  33.7060012   1.5384997 106.5849988  33.0040012   2.1534997 106.3749988
  33.2620012   0.7004997 106.7159988  33.5496450   1.5095639 106.5739000
  20.9540012  17.3014997 106.1309988  20.2690012  17.2634997 105.4639988
  20.9580012  18.2144997 106.4199988  20.8606998  17.4196733 106.0786771
  27.9400012   3.5624997 106.1329988  28.1180012   2.9164997 106.8159988
  27.8870012   4.3964997 106.5999988  27.9571999   3.5868009 106.2895917
  29.8190012  18.5114997 104.5289988  30.6850012  18.8774997 104.3509988
  29.5720012  18.0714997 103.7149988  29.9042392  18.5021756 104.3946289
  36.5280012  18.0744997 107.2079988  36.3330012  17.3264997 106.6429988
  36.4890012  18.8324997 106.6249988  36.4960380  18.0746099 107.0518384
  22.1750012   2.0694997 118.9479988  21.8090012   1.3044997 119.3899988
  23.0880012   2.0984997 119.2339988  22.2482736   1.9685640 119.0472502
  24.1480012   1.4204997 120.4839988  25.0460012   1.1464997 120.2989988
  23.7610012   0.6774997 120.9479988  24.2186612   1.2825914 120.5213643
  22.7720012  18.2214997 103.1569988  22.5050012  18.5084997 104.0299988
  23.5440012  17.6754997 103.3089988  22.8397488  18.1870294 103.2971050
  32.5690012   0.7524997 120.6659988  32.6460012   0.3264997 121.5199988
  33.4630012   0.7664997 120.3229988  32.7003428   0.6960879 120.7365310
  35.7450012  16.8254997 119.3579988  34.9630012  16.6394997 118.8379988
  35.6730012  17.7544997 119.5759988  35.6282274  16.9256643 119.3163018
  50.1510012  10.7114997 109.3889988  50.2400012  11.6554997 109.2569988
  49.5130012  10.4364997 108.7309988  50.0769081  10.8034830 109.2819614
  49.0840012   9.9664997 112.8079988  49.0460012   9.3204997 113.5129988
  48.7620012   9.5004997 112.0369988  49.0352333   9.8149408 112.8002978
  41.4530012   9.5814997 114.4009988  41.4940012   8.9554997 115.1239988
  42.1560012  10.2054997 114.5829988  41.5536363   9.5801196 114.5246044
  52.7900012  12.9054997 111.1089988  52.3500012  12.1854997 111.5599988
  52.7770012  13.6264997 111.7389988  52.7280226  12.9043731 111.2558494
  42.3760012  14.0314997 112.9359988  42.0070012  13.2294997 112.5659988
  43.3170012  13.8624997 112.9819988  42.4527289  13.8990153 112.8916316
  38.9860012   7.6914997 108.3289988  38.5390012   8.5374997 108.3099988
  38.4250012   7.1114997 107.8129988  38.8489900   7.7289916 108.2566801
  39.6970012   9.8534997 110.4539988  39.9100012   9.0834997 110.9819988
  40.4350012   9.9424997 109.8509988  39.8259044   9.7601968 110.4447123
  49.9020012  18.0104997 111.3209988  50.5220012  17.3334997 111.0479988
  49.6940012  17.7924997 112.2299988  49.9586726  17.8884800 111.4064812
  47.4740012  12.3994997 113.2139988  47.7780012  11.7134997 112.6189988
  48.1950012  12.5174997 113.8319988  47.6130671  12.3216304 113.2161816
  56.1370012   4.0004997 114.0749988  56.1860012   4.6104997 114.8099988
  56.5620012   4.4614997 113.3519988  56.2011746   4.1463796 114.0779175
  50.6150012   6.7934997 113.5409988  50.7570012   5.8474997 113.5619988
  50.5080012   7.0004997 112.6129988  50.6199919   6.6918246 113.4183408
  43.7690012   4.8944997 110.8139988  43.8130012   5.7544997 110.3949988
  43.3120012   4.3424997 110.1799988  43.7132240   4.9374422 110.6709864
  51.4920012   5.0254997 109.2149988  52.1380012   4.6964997 109.8389988
  52.0020012   5.5434997 108.5919988  51.6494299   5.0504450 109.2162731
  40.3900012   7.2914997 111.5759988  41.0430012   6.7414997 112.0079988
  40.4140012   7.0174997 110.6589988  40.4826683   7.1791466 111.5112123
  45.5460012   8.8414997 110.7909988  46.1620012   8.3154997 111.3009988
  44.9600012   8.2014997 110.3879988  45.5510810   8.6829208 110.8063173
  56.5280012   5.4784997 116.3099988  55.8400012   6.1364997 116.2149988
  56.5440012   5.2814997 117.2469988  56.4359540   5.5419819 116.4235990
  42.5800012   3.8124997 114.8879988  42.3610012   4.3424997 114.1219988
  41.9120012   4.0394997 115.5349988  42.4597600   3.9156906 114.8706379
  49.9490012  13.3124997 108.4319988  49.6530012  12.9904997 107.5809988
  49.6240012  14.2124997 108.4729988  49.8646371  13.3900215 108.3211801
  45.1490012  11.4884997 115.1749988  44.4090012  12.0864997 115.2789988
  45.8630012  12.0424997 114.8599988  45.1442237  11.6452831 115.1466465
  53.2560012   4.3164997 111.1949988  53.0400012   3.5504997 111.7279988
  53.9110012   4.7884997 111.7079988  53.3150632   4.2755889 111.3372861
  42.1730012   5.7044997 112.8399988  42.7870012   6.3374997 113.2129988
  42.6850012   5.2324997 112.1839988  42.3261981   5.7272267 112.8022908
  43.5560012  13.4524997 115.9619988  43.5510012  14.3324997 115.5839988
  42.7030012  13.3694997 116.3869988  43.4399464  13.5616117 115.9677907
  39.6770012  13.1234997 106.7439988  39.4050012  13.3524997 105.8559988
  39.7230012  13.9614997 107.2049988  39.6459482  13.2681318 106.6846273
  53.3020012  14.7454997 113.4569988  52.3610012  14.8034997 113.6189988
  53.5790012  15.6514997 113.3199988  53.2104679  14.8759443 113.4606815
  53.6030012   3.0314997 114.8749988  52.8670012   3.6424997 114.8369988
  54.2860012   3.4464997 114.3479988  53.5946541   3.1711374 114.7985832
  46.6060012   1.1184997 112.3399988  46.4890012   0.1694997 112.2859988
  45.7510012   1.4504997 112.6139988  46.4744212   1.0335571 112.3696497
  51.5540012  16.5264997 110.0819988  51.9800012  15.8194997 109.5969988
  51.8710012  17.3274997 109.6659988  51.6551683  16.5381017 109.9593680
  52.7140012  14.4274997 108.5909988  52.4560012  13.7374997 107.9799988
  52.7850012  13.9844997 109.4369988  52.6882856  14.2732124 108.6216885
  54.4000012  12.9934997 117.0679988  54.5400012  12.4024997 116.3289988
  54.5670012  13.8664997 116.7119988  54.4417411  13.0305428 116.9186894
  48.8730012   9.9554997 106.8409988  48.1610012  10.4904997 106.4889988
  49.5640012  10.0114997 106.1809988  48.8690132  10.0362543 106.7036289
  56.2420012   9.3334997 115.1339988  55.5890012  10.0284997 115.2239988
  56.7070012   9.5434997 114.3249988  56.2155274   9.4570643 115.0368462
  52.2780012  10.1654997 107.7929988  51.5460012  10.3934997 108.3659988
  52.7260012   9.4514997 108.2469988  52.2382725  10.1002145 107.9328816
  52.1760012   8.3394997 116.8599988  52.2560012   9.1024997 117.4319988
  51.5740012   8.6184997 116.1699988  52.1055756   8.4817134 116.8450589
  43.9240012  10.7954997 109.6749988  43.5930012  10.4254997 108.8569988
  44.5120012  10.1254997 110.0219988  43.9581873  10.6541156 109.6098102
  45.2900012  14.2234997 112.3559988  45.1960012  13.6454997 111.5999988
  46.0200012  13.8524997 112.8529988  45.3757387  14.0941663 112.3195342
  44.2900012   9.5644997 113.3089988  44.8560012   9.6854997 112.5459988
  44.6090012  10.2014997 113.9469988  44.4105474   9.6672219 113.2909862
  50.5990012  15.0674997 114.0429988  50.3590012  15.7294997 114.6909988
  50.4010012  14.2334997 114.4679988  50.5393808  15.0453134 114.1891524
  45.1700012  13.9634997 118.0259988  44.8590012  14.7454997 118.4809988
  44.5200012  13.8104997 117.3399988  45.0395558  14.0499105 117.9955871
  51.1490012   9.3274997 105.4779988  51.7290012   9.4774997 106.2249988
  51.5630012   9.7984997 104.7539988  51.2842997   9.4116578 105.4824058
  42.0900012  10.1614997 117.2539988  42.1610012  10.8124997 117.9529988
  41.2000012  10.2644997 116.9189988  41.9793005  10.2645427 117.3043495
  48.8760012  16.0644997 108.9129988  49.3500012  16.3594997 109.6899988
  48.3130012  16.8024997 108.6799988  48.8648184  16.2047247 108.9879628
  43.4100012  16.0354997 118.7889988  43.4170012  15.8994997 117.8419988
  42.4940012  15.9174997 119.0409988  43.2871714  16.0009430 118.6934666
  54.8480012   1.0774997 105.2909988  53.9480012   1.2164997 105.5859988
  55.1000012   1.9084997 104.8889988  54.7588702   1.2089074 105.2770205
  42.9140012   9.8654997 107.2639988  42.6220012  10.6334997 106.7739988
  42.2400012   9.2054997 107.1019988  42.7828111   9.8815587 107.1748978
  39.0070012  12.2284997 116.0789988  38.5060012  12.2004997 115.2639988
  39.0120012  11.3224997 116.3889988  38.9390944  12.1022396 116.0093226
  38.7570012  15.0084997 112.9629988  39.7030012  14.8644997 112.9439988
  38.6450012  15.7924997 113.4999988  38.8712727  15.0948046 113.0330072
  56.9550012  15.6744997 118.6459988  56.9060012  14.7194997 118.6089988
  56.1280012  15.9424997 119.0469988  56.8364940  15.5798998 118.6951375
  47.9340012  15.2484997 117.5219988  48.0210012  16.0744997 117.9969988
  47.0700012  14.9184997 117.7709988  47.8291964  15.3169878 117.6206549
  48.3480012  19.0204997 107.3279988  48.2730012  18.8994997 106.3809988
  48.3810012  19.9704997 107.4459988  48.3422068  19.1322646 107.2144967
  42.0010012  17.8094997 109.1089988  42.1540012  17.4614997 109.9869988
  41.1510012  17.4534997 108.8539988  41.9069166  17.7136216 109.1948079
  51.1190012  18.1004997 107.0789988  50.1830012  18.2004997 107.2579988
  51.3990012  17.3914997 107.6579988  51.0289553  18.0183406 107.1817087
  54.1070012   7.1674997 119.1259988  53.7000012   7.6484997 118.4049988
  54.1480012   6.2624997 118.8179988  54.0568437   7.1109374 118.9856683
  41.2560012  13.5514997 117.1229988  41.4720012  13.1904997 117.9819988
  40.4010012  13.1774997 116.9129988  41.1699292  13.4514111 117.2123386
  43.8750012   2.0214997 113.1179988  43.0130012   1.9344997 112.7099988
  43.8520012   2.8774997 113.5459988  43.7540409   2.1252883 113.1200589
  48.5380012   1.7434997 116.4929988  48.9580012   1.3284997 117.2459988
  47.6050012   1.5654997 116.6099988  48.4693644   1.6625900 116.6119539
  51.8640012   5.4994997 117.3459988  51.3500012   5.3734997 118.1439988
  51.7090012   6.4114997 117.1019988  51.7726852   5.6056132 117.4222158
  43.9660012   6.9874997 114.2129988  43.3240012   6.9464997 114.9219988
  44.0030012   7.9134997 113.9749988  43.8830664   7.1071430 114.2779219
  43.9630012   7.2084997 109.1249988  43.0700012   6.8674997 109.0659988
  44.4130012   6.8314997 108.3689988  43.9018130   7.1109631 109.0147702
  49.4980012   7.6244997 107.9419988  49.0890012   8.4394997 107.6509988
  50.2190012   7.4844997 107.3279988  49.5394537   7.7172018 107.8191342
  48.6000012   7.7994997 119.4299988  48.0380012   7.0954997 119.7509988
  49.4270012   7.6794997 119.8979988  48.6347095   7.6867883 119.5372330
  50.5030012   7.0704997 110.7559988  50.3080012   7.6754997 110.0409988
  50.6840012   6.2364997 110.3219988  50.5007614   7.0406300 110.5994405
  41.7160012   7.3074997 116.0799988  41.6780012   7.7074997 116.9489988
  41.2250012   6.4904997 116.1709988  41.6444684   7.2518069 116.2111059
  38.3240012   4.4234997 109.9309988  38.9550012   4.3944997 110.6499988
  38.7730012   3.9984997 109.1999988  38.4710918   4.3620836 109.9306441
  39.5980012   5.1694997 105.3549988  40.0720012   5.7604997 104.7699988
  38.8810012   5.7004997 105.7019988  39.5659341   5.3220867 105.3218836
  49.7670012   8.7084997 115.4269988  50.0900012   8.0774997 114.7839988
  49.3270012   8.1734997 116.0879988  49.7517484   8.5498387 115.4283198
  46.5440012   4.6354997 110.2109988  45.6330012   4.6924997 110.4999988
  47.0500012   4.5754997 111.0219988  46.4876899   4.6351941 110.3601184
  41.3730012   6.2644997 109.0379988  40.4830012   6.3644997 108.6979988
  41.6690012   5.4224997 108.6919988  41.2912823   6.1643546 108.9447213
  45.0260012   6.2644997 106.6949988  45.9570012   6.3934997 106.8729988
  44.8110012   6.9344997 106.0449988  45.1244247   6.3726565 106.6315747
  50.9490012   3.8704997 113.4759988  50.2730012   4.0014997 114.1399988
  50.4640012   3.7154997 112.6649988  50.7907146   3.8675157 113.4574469
  43.7000012   7.4594997 104.2609988  43.1570012   7.0794997 103.5699988
  44.5330012   7.6534997 103.8329988  43.7383631   7.4337125 104.1084501
  54.2370012  19.5424997 119.7519988  54.4370012  19.9664997 118.9179988
  54.8920012  19.8854997 120.3589988  54.3530072  19.6469857 119.7198592
  41.8350012  12.0164997 119.3599988  42.5670012  12.2704997 119.9219988
  41.0550012  12.2204997 119.8759988  41.8297073  12.0788160 119.5066151
  47.8640012   7.4234997 112.0979988  48.4290012   6.8764997 111.5509988
  47.7170012   6.9014997 112.8869988  47.9213380   7.2782259 112.1298695
  42.8660012   3.5594997 108.5169988  42.5490012   2.6574997 108.4809988
  43.6480012   3.5614997 107.9639988  42.9282408   3.4362474 108.4373569
  46.4910012   5.8114997 114.5119988  45.6550012   6.2654997 114.6229988
  47.0150012   6.0874997 115.2639988  46.4475416   5.9108660 114.6288119
  54.1850012  11.1574997 114.9839988  54.8270012  11.6144997 114.4399988
  53.3550012  11.2704997 114.5209988  54.1605963  11.2352704 114.8470177
  48.5540012  12.2084997 117.4339988  48.2090012  11.8274997 118.2409988
  48.3540012  13.1424997 117.5049988  48.4797527  12.2825135 117.5540689
  51.6510012   6.7054997 106.0569988  52.5430012   6.5684997 106.3759988
  51.7080012   7.4964997 105.5199988  51.7806504   6.7936052 106.0280818
  42.1600012  11.3194997 111.9669988  42.9050012  11.3174997 111.3659988
  42.2380012  10.4964997 112.4479988  42.2724995  11.2078887 111.9498282
  39.1680012   9.7804997 117.2819988  39.3910012   9.3624997 118.1139988
  38.5660012   9.1674997 116.8589988  39.1171759   9.6404668 117.3387022
  46.1840012   9.2974997 119.4949988  45.8880012   9.1314997 118.5999988
  47.1160012   9.0774997 119.4839988  46.2694166   9.2450640 119.3710536
  50.8050012  14.6704997 117.3849988  49.9040012  14.8534997 117.1169988
  50.8390012  14.9294997 118.3049988  50.6863139  14.7305849 117.4728099
  56.5360012   6.9154997 105.7519988  55.9820012   6.5194997 105.0799988
  56.6360012   7.8254997 105.4739988  56.4737059   6.9843586 105.6224401
  56.4990012  12.7154997 118.5889988  55.6480012  12.9534997 118.2219988
  57.0900012  12.6984997 117.8359988  56.4622487  12.7458258 118.4368893
  54.8310012  15.7014997 106.2169988  54.4580012  14.8754997 106.5259988
  55.1090012  15.5184997 105.3189988  54.8175222  15.5637430 106.1379473
  51.9920012  10.5094997 113.2379988  51.0630012  10.2774997 113.2109988
  52.4430012   9.7324997 112.9079988  51.9259216  10.3727238 113.1896917
  44.5350012  14.8374997 109.3709988  45.0620012  15.6104997 109.1709988
  43.6550012  15.0624997 109.0689988  44.4882031  14.9737545 109.3027912
  45.9620012  12.5004997 108.9469988  45.7210012  13.4254997 108.9889988
  45.2210012  12.0414997 109.3439988  45.8289225  12.5650933 109.0063742
  46.4770012  16.6494997 115.2629988  46.8390012  17.5044997 115.0289988
  47.0080012  16.3574997 116.0029988  46.5984473  16.7271060 115.3310855
  44.6450012  17.5224997 108.4929988  43.6950012  17.6274997 108.5439988
  44.9970012  18.3424997 108.8369988  44.5624195  17.6478800 108.5465502
  50.0210012  12.7484997 114.9629988  49.5950012  12.5214997 115.7899988
  50.6010012  12.0104997 114.7809988  50.0411868  12.6175299 115.0515830
  52.2240012  13.6774997 104.0369988  52.5770012  13.2974997 104.8409988
  51.2750012  13.5844997 104.1239988  52.1440918  13.6128956 104.1588532
  52.6790012  17.3004997 117.4329988  52.0780012  16.7454997 116.9369988
  52.9610012  17.9674997 116.8059988  52.6348804  17.3146625 117.2804849
  56.7270012  18.1574997 104.2379988  57.4710012  18.7434997 104.0979988
  56.0330012  18.7254997 104.5709988  56.7349899  18.3145798 104.2638778
  40.8020012   4.5334997 116.8399988  39.9090012   4.8724997 116.7719988
  40.7030012   3.6784997 117.2579988  40.6664164   4.4642588 116.8872235
  53.0900012  12.3504997 106.2639988  52.8120012  11.6224997 106.8199988
  54.0170012  12.4694997 106.4689988  53.1773124  12.2668802 106.3678845
  40.4530012  16.3384997 115.2749988  40.6700012  15.4064997 115.2439988
  40.6990012  16.6124997 116.1579988  40.5159549  16.2480636 115.3901763
  46.3150012  14.7894997 102.4839988  46.5540012  14.0414997 101.9369988
  46.0460012  14.4014997 103.3169988  46.3113675  14.6346638 102.5216865
  45.2520012  14.3594997 104.9399988  45.3980012  13.8394997 105.7299988
  45.2490012  15.2664997 105.2469988  45.2715792  14.4108842 105.0896117
  41.7050012  11.6124997 105.4509988  41.0190012  11.9644997 106.0179988
  42.2270012  12.3754997 105.2039988  41.6816852  11.7638578 105.4952118
  49.5360012   4.2744997 115.7299988  50.2350012   4.3484997 116.3799988
  49.1550012   3.4104997 115.8839988  49.5801767   4.1677624 115.8398322
  50.3210012   3.9264997 106.8269988  50.5410012   4.3984997 106.0239988
  50.8790012   4.3214997 107.4969988  50.4264968   4.0444285 106.8077331
  47.9890012  16.0574997 105.6899988  47.1730012  16.5544997 105.7419988
  48.5190012  16.5324997 105.0499988  47.9489161  16.1897722 105.6105956
  47.5210012   5.6544997 107.6619988  48.3330012   6.1594997 107.7079988
  47.2760012   5.5094997 108.5759988  47.5990520   5.7040375 107.7918517
  48.0560012   6.6404997 116.8459988  48.1750012   7.2144997 117.6039988
  48.7120012   5.9524997 116.9609988  48.1609025   6.6259858 116.9651321
  48.4040012   2.7354997 108.5999988  48.0580012   3.3534997 109.2439988
  49.0630012   3.2364997 108.1179988  48.4456968   2.8876278 108.6229383
  45.3280012  17.1014997 105.6709988  45.4880012  17.9004997 105.1709988
  45.1300012  17.4074997 106.5559988  45.3231637  17.2524020 105.7221144
  44.0620012   3.7984997 105.2869988  43.9790012   4.6874997 105.6339988
  44.9520012   3.5334997 105.5189988  44.1709469   3.8841430 105.3657626
  54.2610012   4.5474997 117.6809988  53.3440012   4.8104997 117.5939988
  54.5960012   4.5444997 116.7849988  54.1808613   4.5830761 117.5478837
  52.8630012   8.2984997 111.7769988  52.0650012   7.8834997 111.4489988
  53.3080012   7.6074997 112.2679988  52.8139885   8.1483543 111.7984889
  53.9490012  17.5544997 113.3999988  53.7940012  18.2324997 112.7419988
  54.8820012  17.6264997 113.6029988  54.0538657  17.6569546 113.3374360
  41.4450012   1.6724997 112.1369988  41.2160012   1.7314997 111.2089988
  41.0020012   0.8804997 112.4429988  41.3538530   1.5735753 112.0514786
  40.3750012  15.6124997 108.2969988  39.5430012  16.0854997 108.3239988
  40.9210012  16.1224997 107.6989988  40.3350352  15.7461332 108.2198463
  39.6630012  18.2254997 119.6269988  40.2040012  18.0084997 120.3869988
  39.1820012  17.4194997 119.4369988  39.6719951  18.0869270 119.7052576
  44.2610012  17.1444997 121.2469988  45.0280012  16.6854997 121.5879988
  44.2390012  16.9184997 120.3179988  44.3631275  17.0510186 121.1680101
  50.8380012  15.5244997 119.9769988  50.4870012  14.6684997 120.2199988
  51.5640012  15.6674997 120.5839988  50.8880769  15.4265636 120.0923619
  39.5700012  12.0354997 120.5809988  39.7140012  11.1334997 120.2949988
  38.7980012  12.3214997 120.0939988  39.4852753  11.9506816 120.4759505
  46.2260012  12.0054997 120.0139988  45.8970012  12.2764997 119.1569988
  46.3780012  11.0644997 119.9269988  46.2014809  11.9153862 119.8848244
  51.9600012  11.9214997 117.3969988  52.7060012  12.5094997 117.2779988
  51.2030012  12.5034997 117.4609988  51.9597820  12.0807143 117.3893590
  40.4030012   9.2354997 120.0009988  40.8110012   8.3784997 119.8799988
  40.1430012   9.2504997 120.9219988  40.4237568   9.1200807 120.1089588
  44.3500012   8.2444997 117.3759988  43.7320012   8.9194997 117.6559988
  44.6940012   8.5654997 116.5419988  44.3119132   8.3802411 117.3016262
  46.1320012   8.5944997 103.2819988  45.9520012   8.4404997 102.3549988
  47.0820012   8.7024997 103.3269988  46.2357776   8.5880175 103.1611843
  49.3700012  10.7164997 120.6529988  50.3230012  10.7994997 120.6259988
  49.2090012  10.0044997 121.2729988  49.4786426  10.6316746 120.7330579
  44.6890012   5.5994997 118.4579988  44.8390012   4.8704997 117.8559988
  44.6920012   6.3764997 117.8989988  44.7099302   5.6047851 118.3000692
  45.1020012   3.9694997 115.9509988  45.6380012   4.4204997 115.2989988
  44.2500012   3.8614997 115.5279988  45.0602178   4.0166390 115.8045756
  46.6840012   9.4084997 116.1899988  47.4340012   9.2524997 115.6169988
  46.3450012  10.2604997 115.9149988  46.7408921   9.5022968 116.0743561
  51.0990012   7.2234997 121.2189988  51.2920012   6.2924997 121.1069988
  51.9570012   7.6484997 121.2079988  51.2412934   7.1536531 121.2022031
  52.4160012  10.0124997 119.2959988  52.1350012  10.7214997 118.7179988
  53.3590012   9.9394997 119.1449988  52.5049291  10.0996711 119.1964967
  43.1680012   6.7974997 120.3699988  42.4010012   6.2654997 120.1589988
  43.8470012   6.4874997 119.7699988  43.1547877   6.6828300 120.2600716
  45.9080012   1.4254997 116.3819988  45.8090012   2.3724997 116.2769988
  45.1650012   1.0534997 115.9059988  45.7941184   1.5045863 116.3033621
  47.1720012   5.7474997 119.9459988  46.9360012   5.5274997 120.8469988
  46.3880012   5.5404997 119.4359988  47.0338504   5.6894586 120.0003431
  49.8870012   4.8744997 119.0209988  48.9400012   4.9064997 119.1539988
  50.2000012   4.2494997 119.6749988  49.7996707   4.7943998 119.1276060
  51.5210012   3.5084997 121.0269988  51.4250012   2.5564997 121.0209988
  51.2000012   3.7774997 121.8869988  51.4644070   3.4144035 121.1425441
  41.3480012   4.7184997 120.0739988  41.5600012   4.0114997 119.4639988
  41.2370012   4.2804997 120.9179988  41.3619721   4.5627084 120.1046843
  46.1290012   0.7194997 119.0529988  46.8410012   0.0794997 119.0389988
  46.0280012   0.9864997 118.1399988  46.2128066   0.6680079 118.9275677
  46.4830012   2.4024997 121.1069988  46.3510012   1.9264997 120.2869988
  45.8840012   3.1464997 121.0519988  46.3839071   2.4379618 120.9872886
  46.0290012  19.2854997 104.2829988  46.9620012  19.4434997 104.4269988
  45.7650012  19.9604997 103.6589988  46.1209888  19.3984510 104.2182842
  39.5980012  13.9214997 103.7659988  40.5120012  14.0004997 104.0399988
  39.6050012  13.2344997 103.0999988  39.7241131  13.8393961 103.7134393
  38.2470012  19.3144997 108.8439988  37.6000012  18.8524997 108.3109988
  38.6010012  18.6424997 109.4259988  38.2063849  19.1604723 108.8497959
  39.1170012  17.3954997 110.6479988  38.7820012  16.5154997 110.8199988
  39.3390012  17.7404997 111.5129988  39.1011783  17.3217500 110.7884208
  56.6650012  18.2044997 113.6289988  56.6440012  18.3894997 114.5679988
  57.3560012  18.7734997 113.2879988  56.7554618  18.3066606 113.7113864
  56.2290012  17.7724997 116.5509988  55.7410012  17.0364997 116.1789988
  56.7780012  17.3784997 117.2289988  56.2364820  17.6185889 116.5917813
  54.6790012  13.5614997 121.1889988  53.8130012  13.4564997 121.5829988
  55.0560012  14.3204997 121.6349988  54.6113308  13.6496900 121.3032393
  55.9800012  11.8184997 106.7029988  56.8300012  12.2394997 106.8299988
  55.9860012  11.0784997 107.3099988  56.0971372  11.7760803 106.8024344
  56.3750012   9.8714997 108.5259988  55.6480012   9.3924997 108.9239988
  56.9560012  10.0774997 109.2589988  56.3540473   9.8338103 108.6794528
  56.1340012  12.6564997 113.4739988  56.9670012  12.2784997 113.1939988
  56.2460012  13.5994997 113.3549988  56.2632647  12.7322218 113.4195487
  54.6200012  15.5344997 115.7809988  53.9730012  15.8594997 116.4069988
  54.1030012  15.0944997 115.1069988  54.4614029  15.5195004 115.7755827
  56.6430012   9.7724997 104.9179988  56.1210012  10.1294997 104.1989988
  56.6100012  10.4474997 105.5959988  56.5671634   9.9125413 104.9113145
  54.1610012   8.3924997 109.0889988  54.0110012   7.4474997 109.0689988
  53.8080012   8.6734997 109.9329988  54.0927448   8.3011481 109.2003705
  39.1970012  10.4704997 113.0999988  39.3810012  10.3884997 112.1639988
  40.0460012  10.3464997 113.5229988  39.3370151  10.4425073 113.0291451
  55.0180012  10.3624997 118.7279988  55.6010012   9.6284997 118.9199988
  55.5820012  11.1344997 118.7749988  55.1739769  10.3664227 118.7606159
  56.5140012   8.2654997 119.4129988  55.6510012   7.8864997 119.2469988
  57.1190012   7.5264997 119.3379988  56.4776119   8.1138268 119.3801528
  54.2390012   4.4204997 102.5859988  54.8500012   4.0494997 103.2229988
  53.4030012   3.9994997 102.7819988  54.2095032   4.3127554 102.6997035
  53.8720012   5.9754997 107.5519988  54.1520012   5.0684997 107.6759988
  54.6310012   6.4094997 107.1629988  54.0129277   5.9100942 107.5163682
  54.4840012   6.5564997 112.9879988  55.4170012   6.7684997 112.9529988
  54.2490012   6.6584997 113.9099988  54.5799244   6.5993100 113.1078892
  54.5130012   7.2934997 115.7639988  53.6700012   7.5614997 116.1299988
  54.9550012   8.1154997 115.5529988  54.4574158   7.4413291 115.7855491
  38.7940012   5.7414997 119.2409988  39.7140012   5.6194997 119.4769988
  38.3450012   4.9914997 119.6299988  38.8591580   5.6233727 119.3259006
  56.7960012   1.2734997 121.1169988  57.1460012   0.6194997 120.5119988
  56.9430012   2.1104997 120.6769988  56.8637887   1.2971548 120.9746858
  54.4850012   3.2384997 107.5999988  54.6680012   2.7894997 108.4259988
  53.8860012   2.6534997 107.1369988  54.4290202   3.0979975 107.6503275
  40.0150012   4.0534997 112.1319988  40.4610012   3.2614997 112.4339988
  40.4820012   4.7694997 112.5619988  40.1390831   4.0420685 112.2314006
  38.3190012   7.0524997 113.2009988  38.8110012   6.8314997 112.4099988
  38.6820012   7.8934997 113.4819988  38.4353126   7.1358357 113.1307531
  56.3160012   3.3824997 119.4659988  55.3980012   3.6534997 119.4309988
  56.4390012   2.8474997 118.6819988  56.2069729   3.3472508 119.3551923
  56.3520012   3.3054997 104.1279988  56.7640012   2.5844997 103.6529988
  57.0340012   3.9754997 104.1869988  56.5005885   3.2972368 104.0708915
  38.6330012   3.3104997 107.2549988  37.7080012   3.5194997 107.1259988
  39.0870012   3.7944997 106.5649988  38.5677292   3.4045343 107.1440720
  53.4040012  18.2944997 109.2009988  54.0560012  17.9474997 108.5929988
  53.9140012  18.7834997 109.8469988  53.5622637  18.3130597 109.2050236
  38.5970012   2.0484997 115.5989988  37.9320012   1.8024997 116.2429988
  38.1540012   2.6704997 115.0219988  38.4461318   2.0989410 115.6090898
  40.7890012  15.2234997 119.7439988  39.9680012  15.3984997 119.2829988
  40.5360012  15.1504997 120.6639988  40.6425585  15.2375544 119.8053561
  43.7430012  16.1984997 116.0019988  43.3180012  17.0074997 115.7199988
  44.6470012  16.2834997 115.6999988  43.8069975  16.3209300 115.9224816
  48.0540012  17.5974997 118.9619988  48.2390012  17.2634997 119.8399988
  48.9000012  17.9064997 118.6399988  48.1937539  17.5936047 119.0385605
  50.3990012  18.8834997 118.2059988  51.0760012  18.2504997 117.9659988
  50.7210012  19.2844997 119.0129988  50.5351637  18.8511154 118.2822793
  55.3160012   1.4724997 117.2849988  54.5040012   1.7974997 116.8979988
  55.5490012   0.7124997 116.7519988  55.2362203   1.4142758 117.1598880
  41.1450012  19.4544997 116.0499988  40.4240012  19.8944997 115.5989988
  40.7790012  19.2034997 116.8979988  40.9969651  19.4807242 116.1029640
  43.6120012  19.0544997 115.0799988  42.7470012  19.1264997 115.4839988
  43.5570012  19.6014997 114.2959988  43.4862085  19.1382685 115.0293362
  48.3220012  18.9424997 114.2549988  47.8660012  19.4714997 113.6009988
  48.4850012  19.5454997 114.9799988  48.2816068  19.0964607 114.2634838
  50.6500012  17.8204997 115.1999988  49.7450012  17.9854997 114.9339988
  51.0790012  18.6734997 115.1349988  50.5841324  17.9584339 115.1547976
  53.2540012  19.3904997 115.4949988  53.0720012  20.3064997 115.2849988
  53.4310012  18.9804997 114.6489988  53.2530210  19.4604822 115.3517885
  40.5590012  18.0774997 112.9599988  40.5410012  17.6524997 113.8169988
  41.3640012  17.7594997 112.5509988  40.6653529  17.9763013 113.0220946
  42.7010012  16.7874997 111.6149988  42.4820012  15.8714997 111.7849988
  43.5250012  16.9274997 112.0809988  42.7824420  16.6810520 111.7012774
  45.2380012  17.2574997 112.4639988  45.4510012  16.3694997 112.1769988
  45.3020012  17.2234997 113.4179988  45.2758232  17.1313102 112.5537397
  48.7460012   2.9214997 111.6079988  48.0720012   2.2924997 111.8639988
  49.3100012   2.4374997 111.0049988  48.7299230   2.7698744 111.5615340
  53.8890012   1.0294997 111.7209988  54.4930012   1.5764997 111.2189988
  53.0190012   1.3484997 111.4799988  53.8541208   1.1475137 111.6196886
  55.6160012   2.1674997 110.0539988  56.2280012   1.6534997 109.5269988
  55.9980012   3.0454997 110.0769988  55.7513371   2.2157866 109.9850041
  41.0730012   1.5554997 109.4299988  40.2960012   1.3214997 108.9229988
  41.6030012   0.7584997 109.4389988  41.0382330   1.4156988 109.3617742
  39.9090012   1.3534997 105.2339988  40.3480012   1.9644997 104.6419988
  39.2760012   1.8914997 105.7079988  39.8834514   1.5099257 105.2170930
  45.6520012   1.4824997 109.2439988  46.5270012   1.8704997 109.2139988
  45.5160012   1.2674997 110.1659988  45.7533695   1.5065184 109.3646440
  51.2090012   1.5124997 110.8929988  51.2850012   1.6074997 109.9429988
  50.9340012   0.6044997 111.0219988  51.1822321   1.4027867 110.7805079
  52.5620012   1.5384997 106.5849988  51.8600012   2.1534997 106.3749988
  52.1180012   0.7004997 106.7159988  52.4056450   1.5095639 106.5739000
  39.8100012  17.3014997 106.1309988  39.1250012  17.2634997 105.4639988
  39.8140012  18.2144997 106.4199988  39.7166998  17.4196733 106.0786771
  46.7960012   3.5624997 106.1329988  46.9740012   2.9164997 106.8159988
  46.7430012   4.3964997 106.5999988  46.8131999   3.5868009 106.2895917
  55.3840012  18.0744997 107.2079988  55.1890012  17.3264997 106.6429988
  55.3450012  18.8324997 106.6249988  55.3520380  18.0746099 107.0518384
  41.0310012   2.0694997 118.9479988  40.6650012   1.3044997 119.3899988
  41.9440012   2.0984997 119.2339988  41.1042736   1.9685640 119.0472502
  43.0040012   1.4204997 120.4839988  43.9020012   1.1464997 120.2989988
  42.6170012   0.6774997 120.9479988  43.0746612   1.2825914 120.5213643
  51.4250012   0.7524997 120.6659988  51.5020012   0.3264997 121.5199988
  52.3190012   0.7664997 120.3229988  51.5563428   0.6960879 120.7365310
  54.6010012  16.8254997 119.3579988  53.8190012  16.6394997 118.8379988
  54.5290012  17.7544997 119.5759988  54.4842274  16.9256643 119.3163018
  69.0070012  10.7114997 109.3889988  69.0960012  11.6554997 109.2569988
  68.3690012  10.4364997 108.7309988  68.9329081  10.8034830 109.2819614
  67.9400012   9.9664997 112.8079988  67.9020012   9.3204997 113.5129988
  67.6180012   9.5004997 112.0369988  67.8912333   9.8149408 112.8002978
  60.3090012   9.5814997 114.4009988  60.3500012   8.9554997 115.1239988
  61.0120012  10.2054997 114.5829988  60.4096363   9.5801196 114.5246044
  71.6460012  12.9054997 111.1089988  71.2060012  12.1854997 111.5599988
  71.6330012  13.6264997 111.7389988  71.5840226  12.9043731 111.2558494
  61.2320012  14.0314997 112.9359988  60.8630012  13.2294997 112.5659988
  62.1730012  13.8624997 112.9819988  61.3087289  13.8990153 112.8916316
  57.8420012   7.6914997 108.3289988  57.3950012   8.5374997 108.3099988
  57.2810012   7.1114997 107.8129988  57.7049900   7.7289916 108.2566801
  58.5530012   9.8534997 110.4539988  58.7660012   9.0834997 110.9819988
  59.2910012   9.9424997 109.8509988  58.6819044   9.7601968 110.4447123
  68.7580012  18.0104997 111.3209988  69.3780012  17.3334997 111.0479988
  68.5500012  17.7924997 112.2299988  68.8146726  17.8884800 111.4064812
  66.3300012  12.3994997 113.2139988  66.6340012  11.7134997 112.6189988
  67.0510012  12.5174997 113.8319988  66.4690671  12.3216305 113.2161816
  74.9930012   4.0004997 114.0749988  75.0420012   4.6104997 114.8099988
  75.4180012   4.4614997 113.3519988  75.0571746   4.1463796 114.0779175
  69.4710012   6.7934997 113.5409988  69.6130012   5.8474997 113.5619988
  69.3640012   7.0004997 112.6129988  69.4759919   6.6918246 113.4183408
  62.6250012   4.8944997 110.8139988  62.6690012   5.7544997 110.3949988
  62.1680012   4.3424997 110.1799988  62.5692240   4.9374422 110.6709864
  70.3480012   5.0254997 109.2149988  70.9940012   4.6964997 109.8389988
  70.8580012   5.5434997 108.5919988  70.5054299   5.0504450 109.2162731
  59.2460012   7.2914997 111.5759988  59.8990012   6.7414997 112.0079988
  59.2700012   7.0174997 110.6589988  59.3386683   7.1791466 111.5112123
  64.4020012   8.8414997 110.7909988  65.0180012   8.3154997 111.3009988
  63.8160012   8.2014997 110.3879988  64.4070810   8.6829208 110.8063173
  75.3840012   5.4784997 116.3099988  74.6960012   6.1364997 116.2149988
  75.4000012   5.2814997 117.2469988  75.2919540   5.5419819 116.4235990
  61.4360012   3.8124997 114.8879988  61.2170012   4.3424997 114.1219988
  60.7680012   4.0394997 115.5349988  61.3157600   3.9156906 114.8706379
  68.8050012  13.3124997 108.4319988  68.5090012  12.9904997 107.5809988
  68.4800012  14.2124997 108.4729988  68.7206371  13.3900215 108.3211801
  64.0050012  11.4884997 115.1749988  63.2650012  12.0864997 115.2789988
  64.7190012  12.0424997 114.8599988  64.0002237  11.6452831 115.1466465
  72.1120012   4.3164997 111.1949988  71.8960012   3.5504997 111.7279988
  72.7670012   4.7884997 111.7079988  72.1710632   4.2755889 111.3372861
  61.0290012   5.7044997 112.8399988  61.6430012   6.3374997 113.2129988
  61.5410012   5.2324997 112.1839988  61.1821981   5.7272267 112.8022908
  62.4120012  13.4524997 115.9619988  62.4070012  14.3324997 115.5839988
  61.5590012  13.3694997 116.3869988  62.2959464  13.5616117 115.9677907
  58.5330012  13.1234997 106.7439988  58.2610012  13.3524997 105.8559988
  58.5790012  13.9614997 107.2049988  58.5019482  13.2681318 106.6846273
  72.1580012  14.7454997 113.4569988  71.2170012  14.8034997 113.6189988
  72.4350012  15.6514997 113.3199988  72.0664679  14.8759443 113.4606815
  72.4590012   3.0314997 114.8749988  71.7230012   3.6424997 114.8369988
  73.1420012   3.4464997 114.3479988  72.4506541   3.1711374 114.7985832
  65.4620012   1.1184997 112.3399988  65.3450012   0.1694997 112.2859988
  64.6070012   1.4504997 112.6139988  65.3304212   1.0335571 112.3696497
  70.4100012  16.5264997 110.0819988  70.8360012  15.8194997 109.5969988
  70.7270012  17.3274997 109.6659988  70.5111683  16.5381017 109.9593680
  71.5700012  14.4274997 108.5909988  71.3120012  13.7374997 107.9799988
  71.6410012  13.9844997 109.4369988  71.5442856  14.2732124 108.6216885
  73.2560012  12.9934997 117.0679988  73.3960012  12.4024997 116.3289988
  73.4230012  13.8664997 116.7119988  73.2977411  13.0305428 116.9186894
  67.7290012   9.9554997 106.8409988  67.0170012  10.4904997 106.4889988
  68.4200012  10.0114997 106.1809988  67.7250132  10.0362543 106.7036289
  75.0980012   9.3334997 115.1339988  74.4450012  10.0284997 115.2239988
  75.5630012   9.5434997 114.3249988  75.0715274   9.4570643 115.0368462
  71.1340012  10.1654997 107.7929988  70.4020012  10.3934997 108.3659988
  71.5820012   9.4514997 108.2469988  71.0942725  10.1002145 107.9328816
  71.0320012   8.3394997 116.8599988  71.1120012   9.1024997 117.4319988
  70.4300012   8.6184997 116.1699988  70.9615756   8.4817134 116.8450589
  62.7800012  10.7954997 109.6749988  62.4490012  10.4254997 108.8569988
  63.3680012  10.1254997 110.0219988  62.8141873  10.6541156 109.6098102
  64.1460012  14.2234997 112.3559988  64.0520012  13.6454997 111.5999988
  64.8760012  13.8524997 112.8529988  64.2317387  14.0941663 112.3195342
  63.1460012   9.5644997 113.3089988  63.7120012   9.6854997 112.5459988
  63.4650012  10.2014997 113.9469988  63.2665474   9.6672219 113.2909862
  69.4550012  15.0674997 114.0429988  69.2150012  15.7294997 114.6909988
  69.2570012  14.2334997 114.4679988  69.3953808  15.0453134 114.1891524
  64.0260012  13.9634997 118.0259988  63.7150012  14.7454997 118.4809988
  63.3760012  13.8104997 117.3399988  63.8955558  14.0499105 117.9955871
  60.9460012  10.1614997 117.2539988  61.0170012  10.8124997 117.9529988
  60.0560012  10.2644997 116.9189988  60.8353005  10.2645427 117.3043495
  67.7320012  16.0644997 108.9129988  68.2060012  16.3594997 109.6899988
  67.1690012  16.8024997 108.6799988  67.7208184  16.2047247 108.9879628
  62.2660012  16.0354997 118.7889988  62.2730012  15.8994997 117.8419988
  61.3500012  15.9174997 119.0409988  62.1431714  16.0009430 118.6934666
  73.7040012   1.0774997 105.2909988  72.8040012   1.2164997 105.5859988
  73.9560012   1.9084997 104.8889988  73.6148702   1.2089074 105.2770205
  61.7700012   9.8654997 107.2639988  61.4780012  10.6334997 106.7739988
  61.0960012   9.2054997 107.1019988  61.6388111   9.8815587 107.1748978
  74.8930012  15.4434997 103.6669988  74.9670012  16.3824997 103.8379988
  75.7990012  15.1384997 103.6109988  75.0255100  15.5306722 103.6828119
  57.8630012  12.2284997 116.0789988  57.3620012  12.2004997 115.2639988
  57.8680012  11.3224997 116.3889988  57.7950944  12.1022396 116.0093226
  57.6130012  15.0084997 112.9629988  58.5590012  14.8644997 112.9439988
  57.5010012  15.7924997 113.4999988  57.7272727  15.0948046 113.0330072
  75.8110012  15.6744997 118.6459988  75.7620012  14.7194997 118.6089988
  74.9840012  15.9424997 119.0469988  75.6924940  15.5798998 118.6951375
  66.7900012  15.2484997 117.5219988  66.8770012  16.0744997 117.9969988
  65.9260012  14.9184997 117.7709988  66.6851964  15.3169878 117.6206549
  67.2040012  19.0204997 107.3279988  67.1290012  18.8994997 106.3809988
  67.2370012  19.9704997 107.4459988  67.1982068  19.1322646 107.2144967
  60.8570012  17.8094997 109.1089988  61.0100012  17.4614997 109.9869988
  60.0070012  17.4534997 108.8539988  60.7629166  17.7136216 109.1948079
  69.9750012  18.1004997 107.0789988  69.0390012  18.2004997 107.2579988
  70.2550012  17.3914997 107.6579988  69.8849553  18.0183406 107.1817087
  72.9630012   7.1674997 119.1259988  72.5560012   7.6484997 118.4049988
  73.0040012   6.2624997 118.8179988  72.9128437   7.1109374 118.9856683
  60.1120012  13.5514997 117.1229988  60.3280012  13.1904997 117.9819988
  59.2570012  13.1774997 116.9129988  60.0259292  13.4514111 117.2123386
  62.7310012   2.0214997 113.1179988  61.8690012   1.9344997 112.7099988
  62.7080012   2.8774997 113.5459988  62.6100409   2.1252883 113.1200589
  67.3940012   1.7434997 116.4929988  67.8140012   1.3284997 117.2459988
  66.4610012   1.5654997 116.6099988  67.3253644   1.6625900 116.6119539
  70.7200012   5.4994997 117.3459988  70.2060012   5.3734997 118.1439988
  70.5650012   6.4114997 117.1019988  70.6286852   5.6056132 117.4222158
  71.4830012  10.3604997 103.1079988  71.5250012  10.1374997 102.1779988
  72.3320012  10.7594997 103.2969988  71.6035280  10.3839438 103.0063554
  62.8220012   6.9874997 114.2129988  62.1800012   6.9464997 114.9219988
  62.8590012   7.9134997 113.9749988  62.7390664   7.1071430 114.2779219
  62.8190012   7.2084997 109.1249988  61.9260012   6.8674997 109.0659988
  63.2690012   6.8314997 108.3689988  62.7578130   7.1109631 109.0147702
  68.3540012   7.6244997 107.9419988  67.9450012   8.4394997 107.6509988
  69.0750012   7.4844997 107.3279988  68.3954537   7.7172018 107.8191342
  67.4560012   7.7994997 119.4299988  66.8940012   7.0954997 119.7509988
  68.2830012   7.6794997 119.8979988  67.4907095   7.6867883 119.5372330
  69.3590012   7.0704997 110.7559988  69.1640012   7.6754997 110.0409988
  69.5400012   6.2364997 110.3219988  69.3567614   7.0406300 110.5994405
  60.5720012   7.3074997 116.0799988  60.5340012   7.7074997 116.9489988
  60.0810012   6.4904997 116.1709988  60.5004684   7.2518069 116.2111059
  57.1800012   4.4234997 109.9309988  57.8110012   4.3944997 110.6499988
  57.6290012   3.9984997 109.1999988  57.3270918   4.3620836 109.9306441
  58.4540012   5.1694997 105.3549988  58.9280012   5.7604997 104.7699988
  57.7370012   5.7004997 105.7019988  58.4219341   5.3220867 105.3218836
  68.6230012   8.7084997 115.4269988  68.9460012   8.0774997 114.7839988
  68.1830012   8.1734997 116.0879988  68.6077484   8.5498387 115.4283198
  65.4000012   4.6354997 110.2109988  64.4890012   4.6924997 110.4999988
  65.9060012   4.5754997 111.0219988  65.3436899   4.6351941 110.3601184
  60.2290012   6.2644997 109.0379988  59.3390012   6.3644997 108.6979988
  60.5250012   5.4224997 108.6919988  60.1472823   6.1643545 108.9447213
  63.8820012   6.2644997 106.6949988  64.8130012   6.3934997 106.8729988
  63.6670012   6.9344997 106.0449988  63.9804247   6.3726565 106.6315747
  69.8050012   3.8704997 113.4759988  69.1290012   4.0014997 114.1399988
  69.3200012   3.7154997 112.6649988  69.6467146   3.8675157 113.4574469
  62.5560012   7.4594997 104.2609988  62.0130012   7.0794997 103.5699988
  63.3890012   7.6534997 103.8329988  62.5943631   7.4337125 104.1084501
  73.0930012  19.5424997 119.7519988  73.2930012  19.9664997 118.9179988
  73.7480012  19.8854997 120.3589988  73.2090072  19.6469857 119.7198592
  60.6910012  12.0164997 119.3599988  61.4230012  12.2704997 119.9219988
  59.9110012  12.2204997 119.8759988  60.6857073  12.0788160 119.5066151
  66.7200012   7.4234997 112.0979988  67.2850012   6.8764997 111.5509988
  66.5730012   6.9014997 112.8869988  66.7773380   7.2782259 112.1298695
  61.7220012   3.5594997 108.5169988  61.4050012   2.6574997 108.4809988
  62.5040012   3.5614997 107.9639988  61.7842408   3.4362474 108.4373569
  65.3470012   5.8114997 114.5119988  64.5110012   6.2654997 114.6229988
  65.8710012   6.0874997 115.2639988  65.3035416   5.9108660 114.6288119
  65.8910012  12.0244997 106.1969988  65.1460012  11.5174997 105.8749988
  65.7570012  12.0734997 107.1439988  65.7708776  11.9616940 106.2808647
  73.0410012  11.1574997 114.9839988  73.6830012  11.6144997 114.4399988
  72.2110012  11.2704997 114.5209988  73.0165963  11.2352704 114.8470177
  69.7890012   4.8384997 104.3959988  68.8500012   4.9504997 104.2449988
  70.0860012   5.6954997 104.7029988  69.7007583   4.9695981 104.4168337
  67.4100012  12.2084997 117.4339988  67.0650012  11.8274997 118.2409988
  67.2100012  13.1424997 117.5049988  67.3357527  12.2825135 117.5540689
  61.0160012  11.3194997 111.9669988  61.7610012  11.3174997 111.3659988
  61.0940012  10.4964997 112.4479988  61.1284995  11.2078887 111.9498282
  68.0170012  13.4834997 105.2229988  67.7210012  14.3094997 105.6039988
  67.3140012  12.8634997 105.4189988  67.8814914  13.5128199 105.3016443
  58.0240012   9.7804997 117.2819988  58.2470012   9.3624997 118.1139988
  57.4220012   9.1674997 116.8589988  57.9731759   9.6404668 117.3387022
  65.0400012   9.2974997 119.4949988  64.7440012   9.1314997 118.5999988
  65.9720012   9.0774997 119.4839988  65.1254166   9.2450640 119.3710536
  69.6610012  14.6704997 117.3849988  68.7600012  14.8534997 117.1169988
  69.6950012  14.9294997 118.3049988  69.5423139  14.7305849 117.4728099
  75.3920012   6.9154997 105.7519988  74.8380012   6.5194997 105.0799988
  75.4920012   7.8254997 105.4739988  75.3297059   6.9843586 105.6224401
  75.3550012  12.7154997 118.5889988  74.5040012  12.9534997 118.2219988
  75.9460012  12.6984997 117.8359988  75.3182487  12.7458258 118.4368893
  73.6870012  15.7014997 106.2169988  73.3140012  14.8754997 106.5259988
  73.9650012  15.5184997 105.3189988  73.6735222  15.5637430 106.1379473
  70.8480012  10.5094997 113.2379988  69.9190012  10.2774997 113.2109988
  71.2990012   9.7324997 112.9079988  70.7819216  10.3727238 113.1896917
  63.3910012  14.8374997 109.3709988  63.9180012  15.6104997 109.1709988
  62.5110012  15.0624997 109.0689988  63.3442031  14.9737545 109.3027912
  64.8180012  12.5004997 108.9469988  64.5770012  13.4254997 108.9889988
  64.0770012  12.0414997 109.3439988  64.6849225  12.5650933 109.0063742
  65.3330012  16.6494997 115.2629988  65.6950012  17.5044997 115.0289988
  65.8640012  16.3574997 116.0029988  65.4544473  16.7271060 115.3310855
  63.5010012  17.5224997 108.4929988  62.5510012  17.6274997 108.5439988
  63.8530012  18.3424997 108.8369988  63.4184195  17.6478800 108.5465502
  68.8770012  12.7484997 114.9629988  68.4510012  12.5214997 115.7899988
  69.4570012  12.0104997 114.7809988  68.8971868  12.6175299 115.0515830
  71.5350012  17.3004997 117.4329988  70.9340012  16.7454997 116.9369988
  71.8170012  17.9674997 116.8059988  71.4908804  17.3146625 117.2804849
  75.5830012  18.1574997 104.2379988  76.3270012  18.7434997 104.0979988
  74.8890012  18.7254997 104.5709988  75.5909899  18.3145798 104.2638778
  59.6580012   4.5334997 116.8399988  58.7650012   4.8724997 116.7719988
  59.5590012   3.6784997 117.2579988  59.5224164   4.4642588 116.8872235
  71.9460012  12.3504997 106.2639988  71.6680012  11.6224997 106.8199988
  72.8730012  12.4694997 106.4689988  72.0333124  12.2668802 106.3678845
  59.3090012  16.3384997 115.2749988  59.5260012  15.4064997 115.2439988
  59.5550012  16.6124997 116.1579988  59.3719549  16.2480636 115.3901763
  64.1080012  14.3594997 104.9399988  64.2540012  13.8394997 105.7299988
  64.1050012  15.2664997 105.2469988  64.1275792  14.4108842 105.0896117
  60.5610012  11.6124997 105.4509988  59.8750012  11.9644997 106.0179988
  61.0830012  12.3754997 105.2039988  60.5376852  11.7638578 105.4952118
  68.3920012   4.2744997 115.7299988  69.0910012   4.3484997 116.3799988
  68.0110012   3.4104997 115.8839988  68.4361767   4.1677624 115.8398322
  69.1770012   3.9264997 106.8269988  69.3970012   4.3984997 106.0239988
  69.7350012   4.3214997 107.4969988  69.2824968   4.0444285 106.8077331
  66.8450012  16.0574997 105.6899988  66.0290012  16.5544997 105.7419988
  67.3750012  16.5324997 105.0499988  66.8049161  16.1897722 105.6105956
  66.3770012   5.6544997 107.6619988  67.1890012   6.1594997 107.7079988
  66.1320012   5.5094997 108.5759988  66.4550520   5.7040375 107.7918517
  66.9120012   6.6404997 116.8459988  67.0310012   7.2144997 117.6039988
  67.5680012   5.9524997 116.9609988  67.0169025   6.6259858 116.9651321
  67.2600012   2.7354997 108.5999988  66.9140012   3.3534997 109.2439988
  67.9190012   3.2364997 108.1179988  67.3016968   2.8876278 108.6229383
  64.1840012  17.1014997 105.6709988  64.3440012  17.9004997 105.1709988
  63.9860012  17.4074997 106.5559988  64.1791637  17.2524020 105.7221144
  62.9180012   3.7984997 105.2869988  62.8350012   4.6874997 105.6339988
  63.8080012   3.5334997 105.5189988  63.0269469   3.8841430 105.3657626
  73.1170012   4.5474997 117.6809988  72.2000012   4.8104997 117.5939988
  73.4520012   4.5444997 116.7849988  73.0368613   4.5830761 117.5478837
  71.7190012   8.2984997 111.7769988  70.9210012   7.8834997 111.4489988
  72.1640012   7.6074997 112.2679988  71.6699885   8.1483543 111.7984889
  61.1770012  14.2264997 104.3479988  61.7690012  14.9254997 104.6239988
  61.6360012  13.7934997 103.6279988  61.3201142  14.2637049 104.2884830
  72.8050012  17.5544997 113.3999988  72.6500012  18.2324997 112.7419988
  73.7380012  17.6264997 113.6029988  72.9098657  17.6569546 113.3374360
  60.3010012   1.6724997 112.1369988  60.0720012   1.7314997 111.2089988
  59.8580012   0.8804997 112.4429988  60.2098530   1.5735753 112.0514786
  59.2310012  15.6124997 108.2969988  58.3990012  16.0854997 108.3239988
  59.7770012  16.1224997 107.6989988  59.1910352  15.7461332 108.2198463
  58.5190012  18.2254997 119.6269988  59.0600012  18.0084997 120.3869988
  58.0380012  17.4194997 119.4369988  58.5279951  18.0869270 119.7052576
  63.1170012  17.1444997 121.2469988  63.8840012  16.6854997 121.5879988
  63.0950012  16.9184997 120.3179988  63.2191275  17.0510186 121.1680101
  69.6940012  15.5244997 119.9769988  69.3430012  14.6684997 120.2199988
  70.4200012  15.6674997 120.5839988  69.7440769  15.4265636 120.0923619
  58.4260012  12.0354997 120.5809988  58.5700012  11.1334997 120.2949988
  57.6540012  12.3214997 120.0939988  58.3412753  11.9506816 120.4759505
  65.0820012  12.0054997 120.0139988  64.7530012  12.2764997 119.1569988
  65.2340012  11.0644997 119.9269988  65.0574809  11.9153862 119.8848244
  70.8160012  11.9214997 117.3969988  71.5620012  12.5094997 117.2779988
  70.0590012  12.5034997 117.4609988  70.8157820  12.0807143 117.3893590
  59.2590012   9.2354997 120.0009988  59.6670012   8.3784997 119.8799988
  58.9990012   9.2504997 120.9219988  59.2797568   9.1200807 120.1089588
  63.2060012   8.2444997 117.3759988  62.5880012   8.9194997 117.6559988
  63.5500012   8.5654997 116.5419988  63.1679132   8.3802411 117.3016262
  68.2260012  10.7164997 120.6529988  69.1790012  10.7994997 120.6259988
  68.0650012  10.0044997 121.2729988  68.3346426  10.6316746 120.7330579
  63.5450012   5.5994997 118.4579988  63.6950012   4.8704997 117.8559988
  63.5480012   6.3764997 117.8989988  63.5659302   5.6047851 118.3000692
  63.9580012   3.9694997 115.9509988  64.4940012   4.4204997 115.2989988
  63.1060012   3.8614997 115.5279988  63.9162178   4.0166390 115.8045756
  65.5400012   9.4084997 116.1899988  66.2900012   9.2524997 115.6169988
  65.2010012  10.2604997 115.9149988  65.5968921   9.5022968 116.0743561
  69.9550012   7.2234997 121.2189988  70.1480012   6.2924997 121.1069988
  70.8130012   7.6484997 121.2079988  70.0972934   7.1536531 121.2022031
  71.2720012  10.0124997 119.2959988  70.9910012  10.7214997 118.7179988
  72.2150012   9.9394997 119.1449988  71.3609291  10.0996711 119.1964967
  62.0240012   6.7974997 120.3699988  61.2570012   6.2654997 120.1589988
  62.7030012   6.4874997 119.7699988  62.0107877   6.6828300 120.2600716
  64.7640012   1.4254997 116.3819988  64.6650012   2.3724997 116.2769988
  64.0210012   1.0534997 115.9059988  64.6501184   1.5045863 116.3033621
  66.0280012   5.7474997 119.9459988  65.7920012   5.5274997 120.8469988
  65.2440012   5.5404997 119.4359988  65.8898504   5.6894586 120.0003431
  68.7430012   4.8744997 119.0209988  67.7960012   4.9064997 119.1539988
  69.0560012   4.2494997 119.6749988  68.6556707   4.7943998 119.1276060
  70.3770012   3.5084997 121.0269988  70.2810012   2.5564997 121.0209988
  70.0560012   3.7774997 121.8869988  70.3204070   3.4144035 121.1425441
  60.2040012   4.7184997 120.0739988  60.4160012   4.0114997 119.4639988
  60.0930012   4.2804997 120.9179988  60.2179721   4.5627084 120.1046843
  64.9850012   0.7194997 119.0529988  65.6970012   0.0794997 119.0389988
  64.8840012   0.9864997 118.1399988  65.0688066   0.6680079 118.9275677
  65.3390012   2.4024997 121.1069988  65.2070012   1.9264997 120.2869988
  64.7400012   3.1464997 121.0519988  65.2399071   2.4379618 120.9872886
  58.4540012  13.9214997 103.7659988  59.3680012  14.0004997 104.0399988
  58.4610012  13.2344997 103.0999988  58.5801131  13.8393961 103.7134393
  57.1030012  19.3144997 108.8439988  56.4560012  18.8524997 108.3109988
  57.4570012  18.6424997 109.4259988  57.0623849  19.1604723 108.8497959
  57.9730012  17.3954997 110.6479988  57.6380012  16.5154997 110.8199988
  58.1950012  17.7404997 111.5129988  57.9571783  17.3217500 110.7884208
  75.5210012  18.2044997 113.6289988  75.5000012  18.3894997 114.5679988
  76.2120012  18.7734997 113.2879988  75.6114618  18.3066606 113.7113864
  75.0850012  17.7724997 116.5509988  74.5970012  17.0364997 116.1789988
  75.6340012  17.3784997 117.2289988  75.0924820  17.6185889 116.5917813
  73.5350012  13.5614997 121.1889988  72.6690012  13.4564997 121.5829988
  73.9120012  14.3204997 121.6349988  73.4673308  13.6496900 121.3032393
  74.8360012  11.8184997 106.7029988  75.6860012  12.2394997 106.8299988
  74.8420012  11.0784997 107.3099988  74.9531372  11.7760803 106.8024344
  75.2310012   9.8714997 108.5259988  74.5040012   9.3924997 108.9239988
  75.8120012  10.0774997 109.2589988  75.2100473   9.8338103 108.6794528
  74.9900012  12.6564997 113.4739988  75.8230012  12.2784997 113.1939988
  75.1020012  13.5994997 113.3549988  75.1192647  12.7322218 113.4195487
  73.4760012  15.5344997 115.7809988  72.8290012  15.8594997 116.4069988
  72.9590012  15.0944997 115.1069988  73.3174029  15.5195004 115.7755827
  75.4990012   9.7724997 104.9179988  74.9770012  10.1294997 104.1989988
  75.4660012  10.4474997 105.5959988  75.4231634   9.9125413 104.9113145
  73.0170012   8.3924997 109.0889988  72.8670012   7.4474997 109.0689988
  72.6640012   8.6734997 109.9329988  72.9487448   8.3011481 109.2003705
  58.0530012  10.4704997 113.0999988  58.2370012  10.3884997 112.1639988
  58.9020012  10.3464997 113.5229988  58.1930151  10.4425073 113.0291451
  73.8740012  10.3624997 118.7279988  74.4570012   9.6284997 118.9199988
  74.4380012  11.1344997 118.7749988  74.0299769  10.3664227 118.7606159
  75.3700012   8.2654997 119.4129988  74.5070012   7.8864997 119.2469988
  75.9750012   7.5264997 119.3379988  75.3336119   8.1138268 119.3801528
  72.7280012   5.9754997 107.5519988  73.0080012   5.0684997 107.6759988
  73.4870012   6.4094997 107.1629988  72.8689277   5.9100942 107.5163682
  73.3400012   6.5564997 112.9879988  74.2730012   6.7684997 112.9529988
  73.1050012   6.6584997 113.9099988  73.4359244   6.5993100 113.1078892
  73.3690012   7.2934997 115.7639988  72.5260012   7.5614997 116.1299988
  73.8110012   8.1154997 115.5529988  73.3134158   7.4413291 115.7855491
  57.6500012   5.7414997 119.2409988  58.5700012   5.6194997 119.4769988
  57.2010012   4.9914997 119.6299988  57.7151580   5.6233727 119.3259006
  75.6520012   1.2734997 121.1169988  76.0020012   0.6194997 120.5119988
  75.7990012   2.1104997 120.6769988  75.7197887   1.2971548 120.9746858
  73.3410012   3.2384997 107.5999988  73.5240012   2.7894997 108.4259988
  72.7420012   2.6534997 107.1369988  73.2850202   3.0979975 107.6503275
  58.8710012   4.0534997 112.1319988  59.3170012   3.2614997 112.4339988
  59.3380012   4.7694997 112.5619988  58.9950831   4.0420685 112.2314006
  57.1750012   7.0524997 113.2009988  57.6670012   6.8314997 112.4099988
  57.5380012   7.8934997 113.4819988  57.2913126   7.1358357 113.1307531
  75.1720012   3.3824997 119.4659988  74.2540012   3.6534997 119.4309988
  75.2950012   2.8474997 118.6819988  75.0629729   3.3472508 119.3551923
  75.2080012   3.3054997 104.1279988  75.6200012   2.5844997 103.6529988
  75.8900012   3.9754997 104.1869988  75.3565885   3.2972368 104.0708915
  57.4890012   3.3104997 107.2549988  56.5640012   3.5194997 107.1259988
  57.9430012   3.7944997 106.5649988  57.4237292   3.4045343 107.1440720
  72.2600012  18.2944997 109.2009988  72.9120012  17.9474997 108.5929988
  72.7700012  18.7834997 109.8469988  72.4182637  18.3130597 109.2050236
  57.4530012   2.0484997 115.5989988  56.7880012   1.8024997 116.2429988
  57.0100012   2.6704997 115.0219988  57.3021318   2.0989410 115.6090898
  59.6450012  15.2234997 119.7439988  58.8240012  15.3984997 119.2829988
  59.3920012  15.1504997 120.6639988  59.4985585  15.2375544 119.8053561
  62.5990012  16.1984997 116.0019988  62.1740012  17.0074997 115.7199988
  63.5030012  16.2834997 115.6999988  62.6629975  16.3209300 115.9224816
  66.9100012  17.5974997 118.9619988  67.0950012  17.2634997 119.8399988
  67.7560012  17.9064997 118.6399988  67.0497539  17.5936047 119.0385605
  69.2550012  18.8834997 118.2059988  69.9320012  18.2504997 117.9659988
  69.5770012  19.2844997 119.0129988  69.3911637  18.8511154 118.2822793
  74.1720012   1.4724997 117.2849988  73.3600012   1.7974997 116.8979988
  74.4050012   0.7124997 116.7519988  74.0922203   1.4142758 117.1598880
  60.0010012  19.4544997 116.0499988  59.2800012  19.8944997 115.5989988
  59.6350012  19.2034997 116.8979988  59.8529651  19.4807242 116.1029640
  62.4680012  19.0544997 115.0799988  61.6030012  19.1264997 115.4839988
  62.4130012  19.6014997 114.2959988  62.3422085  19.1382685 115.0293362
  67.1780012  18.9424997 114.2549988  66.7220012  19.4714997 113.6009988
  67.3410012  19.5454997 114.9799988  67.1376068  19.0964607 114.2634838
  69.5060012  17.8204997 115.1999988  68.6010012  17.9854997 114.9339988
  69.9350012  18.6734997 115.1349988  69.4401324  17.9584339 115.1547976
  72.1100012  19.3904997 115.4949988  71.9280012  20.3064997 115.2849988
  72.2870012  18.9804997 114.6489988  72.1090210  19.4604822 115.3517885
  59.4150012  18.0774997 112.9599988  59.3970012  17.6524997 113.8169988
  60.2200012  17.7594997 112.5509988  59.5213529  17.9763013 113.0220946
  61.5570012  16.7874997 111.6149988  61.3380012  15.8714997 111.7849988
  62.3810012  16.9274997 112.0809988  61.6384420  16.6810520 111.7012774
  64.0940012  17.2574997 112.4639988  64.3070012  16.3694997 112.1769988
  64.1580012  17.2234997 113.4179988  64.1318232  17.1313102 112.5537397
  67.6020012   2.9214997 111.6079988  66.9280012   2.2924997 111.8639988
  68.1660012   2.4374997 111.0049988  67.5859230   2.7698744 111.5615340
  72.7450012   1.0294997 111.7209988  73.3490012   1.5764997 111.2189988
  71.8750012   1.3484997 111.4799988  72.7101208   1.1475137 111.6196886
  74.4720012   2.1674997 110.0539988  75.0840012   1.6534997 109.5269988
  74.8540012   3.0454997 110.0769988  74.6073371   2.2157866 109.9850041
  59.9290012   1.5554997 109.4299988  59.1520012   1.3214997 108.9229988
  60.4590012   0.7584997 109.4389988  59.8942330   1.4156988 109.3617742
  58.7650012   1.3534997 105.2339988  59.2040012   1.9644997 104.6419988
  58.1320012   1.8914997 105.7079988  58.7394514   1.5099257 105.2170930
  64.5080012   1.4824997 109.2439988  65.3830012   1.8704997 109.2139988
  64.3720012   1.2674997 110.1659988  64.6093695   1.5065184 109.3646440
  70.0650012   1.5124997 110.8929988  70.1410012   1.6074997 109.9429988
  69.7900012   0.6044997 111.0219988  70.0382321   1.4027867 110.7805079
  71.4180012   1.5384997 106.5849988  70.7160012   2.1534997 106.3749988
  70.9740012   0.7004997 106.7159988  71.2616450   1.5095639 106.5739000
  58.6660012  17.3014997 106.1309988  57.9810012  17.2634997 105.4639988
  58.6700012  18.2144997 106.4199988  58.5726998  17.4196733 106.0786771
  60.6260012   3.2694997 103.6759988  61.1180012   2.6394997 103.1489988
  61.2500012   3.5654997 104.3389988  60.7775688   3.2233804 103.6935482
  65.6520012   3.5624997 106.1329988  65.8300012   2.9164997 106.8159988
  65.5990012   4.3964997 106.5999988  65.6691999   3.5868009 106.2895917
  67.5310012  18.5114997 104.5289988  68.3970012  18.8774997 104.3509988
  67.2840012  18.0714997 103.7149988  67.6162392  18.5021756 104.3946289
  74.2400012  18.0744997 107.2079988  74.0450012  17.3264997 106.6429988
  74.2010012  18.8324997 106.6249988  74.2080380  18.0746099 107.0518384
  59.8870012   2.0694997 118.9479988  59.5210012   1.3044997 119.3899988
  60.8000012   2.0984997 119.2339988  59.9602736   1.9685640 119.0472502
  61.8600012   1.4204997 120.4839988  62.7580012   1.1464997 120.2989988
  61.4730012   0.6774997 120.9479988  61.9306612   1.2825914 120.5213643
  70.2810012   0.7524997 120.6659988  70.3580012   0.3264997 121.5199988
  71.1750012   0.7664997 120.3229988  70.4123428   0.6960879 120.7365310
  73.4570012  16.8254997 119.3579988  72.6750012  16.6394997 118.8379988
  73.3850012  17.7544997 119.5759988  73.3402274  16.9256643 119.3163018
  87.8630012  10.7114997 109.3889988  87.9520012  11.6554997 109.2569988
  87.2250012  10.4364997 108.7309988  87.7889081  10.8034830 109.2819614
  86.7960012   9.9664997 112.8079988  86.7580012   9.3204997 113.5129988
  86.4740012   9.5004997 112.0369988  86.7472333   9.8149408 112.8002978
  79.1650012   9.5814997 114.4009988  79.2060012   8.9554997 115.1239988
  79.8680012  10.2054997 114.5829988  79.2656363   9.5801196 114.5246044
  90.5020012  12.9054997 111.1089988  90.0620012  12.1854997 111.5599988
  90.4890012  13.6264997 111.7389988  90.4400226  12.9043731 111.2558494
  80.0880012  14.0314997 112.9359988  79.7190012  13.2294997 112.5659988
  81.0290012  13.8624997 112.9819988  80.1647289  13.8990153 112.8916316
  76.6980012   7.6914997 108.3289988  76.2510012   8.5374997 108.3099988
  76.1370012   7.1114997 107.8129988  76.5609900   7.7289916 108.2566801
  77.4090012   9.8534997 110.4539988  77.6220012   9.0834997 110.9819988
  78.1470012   9.9424997 109.8509988  77.5379044   9.7601968 110.4447123
  87.6140012  18.0104997 111.3209988  88.2340012  17.3334997 111.0479988
  87.4060012  17.7924997 112.2299988  87.6706726  17.8884800 111.4064812
  85.1860012  12.3994997 113.2139988  85.4900012  11.7134997 112.6189988
  85.9070012  12.5174997 113.8319988  85.3250671  12.3216305 113.2161816
  93.8490012   4.0004997 114.0749988  93.8980012   4.6104997 114.8099988
  94.2740012   4.4614997 113.3519988  93.9131746   4.1463796 114.0779175
  88.3270012   6.7934997 113.5409988  88.4690012   5.8474997 113.5619988
  88.2200012   7.0004997 112.6129988  88.3319919   6.6918246 113.4183408
  81.4810012   4.8944997 110.8139988  81.5250012   5.7544997 110.3949988
  81.0240012   4.3424997 110.1799988  81.4252240   4.9374422 110.6709864
  89.2040012   5.0254997 109.2149988  89.8500012   4.6964997 109.8389988
  89.7140012   5.5434997 108.5919988  89.3614299   5.0504450 109.2162731
  78.1020012   7.2914997 111.5759988  78.7550012   6.7414997 112.0079988
  78.1260012   7.0174997 110.6589988  78.1946683   7.1791466 111.5112123
  83.2580012   8.8414997 110.7909988  83.8740012   8.3154997 111.3009988
  82.6720012   8.2014997 110.3879988  83.2630810   8.6829208 110.8063173
  94.2400012   5.4784997 116.3099988  93.5520012   6.1364997 116.2149988
  94.2560012   5.2814997 117.2469988  94.1479540   5.5419819 116.4235990
  80.2920012   3.8124997 114.8879988  80.0730012   4.3424997 114.1219988
  79.6240012   4.0394997 115.5349988  80.1717600   3.9156906 114.8706379
  87.6610012  13.3124997 108.4319988  87.3650012  12.9904997 107.5809988
  87.3360012  14.2124997 108.4729988  87.5766371  13.3900215 108.3211801
  82.8610012  11.4884997 115.1749988  82.1210012  12.0864997 115.2789988
  83.5750012  12.0424997 114.8599988  82.8562237  11.6452831 115.1466465
  90.9680012   4.3164997 111.1949988  90.7520012   3.5504997 111.7279988
  91.6230012   4.7884997 111.7079988  91.0270632   4.2755889 111.3372861
  79.8850012   5.7044997 112.8399988  80.4990012   6.3374997 113.2129988
  80.3970012   5.2324997 112.1839988  80.0381981   5.7272267 112.8022908
  81.2680012  13.4524997 115.9619988  81.2630012  14.3324997 115.5839988
  80.4150012  13.3694997 116.3869988  81.1519464  13.5616117 115.9677907
  77.3890012  13.1234997 106.7439988  77.1170012  13.3524997 105.8559988
  77.4350012  13.9614997 107.2049988  77.3579482  13.2681318 106.6846273
  91.0140012  14.7454997 113.4569988  90.0730012  14.8034997 113.6189988
  91.2910012  15.6514997 113.3199988  90.9224679  14.8759443 113.4606815
  91.3150012   3.0314997 114.8749988  90.5790012   3.6424997 114.8369988
  91.9980012   3.4464997 114.3479988  91.3066541   3.1711374 114.7985832
  84.3180012   1.1184997 112.3399988  84.2010012   0.1694997 112.2859988
  83.4630012   1.4504997 112.6139988  84.1864212   1.0335571 112.3696497
  89.2660012  16.5264997 110.0819988  89.6920012  15.8194997 109.5969988
  89.5830012  17.3274997 109.6659988  89.3671683  16.5381017 109.9593680
  90.4260012  14.4274997 108.5909988  90.1680012  13.7374997 107.9799988
  90.4970012  13.9844997 109.4369988  90.4002856  14.2732124 108.6216885
  92.1120012  12.9934997 117.0679988  92.2520012  12.4024997 116.3289988
  92.2790012  13.8664997 116.7119988  92.1537411  13.0305428 116.9186894
  86.5850012   9.9554997 106.8409988  85.8730012  10.4904997 106.4889988
  87.2760012  10.0114997 106.1809988  86.5810132  10.0362543 106.7036289
  93.9540012   9.3334997 115.1339988  93.3010012  10.0284997 115.2239988
  94.4190012   9.5434997 114.3249988  93.9275274   9.4570643 115.0368462
  89.9900012  10.1654997 107.7929988  89.2580012  10.3934997 108.3659988
  90.4380012   9.4514997 108.2469988  89.9502725  10.1002145 107.9328816
  89.8880012   8.3394997 116.8599988  89.9680012   9.1024997 117.4319988
  89.2860012   8.6184997 116.1699988  89.8175756   8.4817134 116.8450589
  81.6360012  10.7954997 109.6749988  81.3050012  10.4254997 108.8569988
  82.2240012  10.1254997 110.0219988  81.6701873  10.6541156 109.6098102
  83.0020012  14.2234997 112.3559988  82.9080012  13.6454997 111.5999988
  83.7320012  13.8524997 112.8529988  83.0877387  14.0941663 112.3195342
  82.0020012   9.5644997 113.3089988  82.5680012   9.6854997 112.5459988
  82.3210012  10.2014997 113.9469988  82.1225474   9.6672219 113.2909862
  88.3110012  15.0674997 114.0429988  88.0710012  15.7294997 114.6909988
  88.1130012  14.2334997 114.4679988  88.2513808  15.0453134 114.1891524
  82.8820012  13.9634997 118.0259988  82.5710012  14.7454997 118.4809988
  82.2320012  13.8104997 117.3399988  82.7515558  14.0499105 117.9955871
  88.8610012   9.3274997 105.4779988  89.4410012   9.4774997 106.2249988
  89.2750012   9.7984997 104.7539988  88.9962997   9.4116578 105.4824058
  79.8020012  10.1614997 117.2539988  79.8730012  10.8124997 117.9529988
  78.9120012  10.2644997 116.9189988  79.6913005  10.2645427 117.3043495
  86.5880012  16.0644997 108.9129988  87.0620012  16.3594997 109.6899988
  86.0250012  16.8024997 108.6799988  86.5768184  16.2047247 108.9879628
  81.1220012  16.0354997 118.7889988  81.1290012  15.8994997 117.8419988
  80.2060012  15.9174997 119.0409988  80.9991714  16.0009430 118.6934666
  92.5600012   1.0774997 105.2909988  91.6600012   1.2164997 105.5859988
  92.8120012   1.9084997 104.8889988  92.4708702   1.2089074 105.2770205
  80.6260012   9.8654997 107.2639988  80.3340012  10.6334997 106.7739988
  79.9520012   9.2054997 107.1019988  80.4948111   9.8815587 107.1748978
  76.7190012  12.2284997 116.0789988  76.2180012  12.2004997 115.2639988
  76.7240012  11.3224997 116.3889988  76.6510944  12.1022396 116.0093226
  76.4690012  15.0084997 112.9629988  77.4150012  14.8644997 112.9439988
  76.3570012  15.7924997 113.4999988  76.5832727  15.0948046 113.0330072
  94.6670012  15.6744997 118.6459988  94.6180012  14.7194997 118.6089988
  93.8400012  15.9424997 119.0469988  94.5484940  15.5798998 118.6951375
  85.6460012  15.2484997 117.5219988  85.7330012  16.0744997 117.9969988
  84.7820012  14.9184997 117.7709988  85.5411964  15.3169878 117.6206549
  86.0600012  19.0204997 107.3279988  85.9850012  18.8994997 106.3809988
  86.0930012  19.9704997 107.4459988  86.0542068  19.1322646 107.2144967
  79.7130012  17.8094997 109.1089988  79.8660012  17.4614997 109.9869988
  78.8630012  17.4534997 108.8539988  79.6189166  17.7136216 109.1948079
  89.1620012  18.1744997 104.3299988  89.5370012  17.4304997 103.8589988
  89.1660012  17.9044997 105.2489988  89.2139125  18.0360986 104.3896483
  88.8310012  18.1004997 107.0789988  87.8950012  18.2004997 107.2579988
  89.1110012  17.3914997 107.6579988  88.7409553  18.0183406 107.1817087
  91.8190012   7.1674997 119.1259988  91.4120012   7.6484997 118.4049988
  91.8600012   6.2624997 118.8179988  91.7688437   7.1109374 118.9856683
  78.9680012  13.5514997 117.1229988  79.1840012  13.1904997 117.9819988
  78.1130012  13.1774997 116.9129988  78.8819292  13.4514111 117.2123386
  81.5870012   2.0214997 113.1179988  80.7250012   1.9344997 112.7099988
  81.5640012   2.8774997 113.5459988  81.4660409   2.1252883 113.1200589
  86.2500012   1.7434997 116.4929988  86.6700012   1.3284997 117.2459988
  85.3170012   1.5654997 116.6099988  86.1813644   1.6625900 116.6119539
  89.5760012   5.4994997 117.3459988  89.0620012   5.3734997 118.1439988
  89.4210012   6.4114997 117.1019988  89.4846852   5.6056132 117.4222158
  85.9110012   4.2364997 103.7779988  85.6580012   4.2554997 104.7009988
  85.6550012   3.3644997 103.4759988  85.8417481   4.1212558 103.8636175
  81.6780012   6.9874997 114.2129988  81.0360012   6.9464997 114.9219988
  81.7150012   7.9134997 113.9749988  81.5950664   7.1071430 114.2779219
  81.6750012   7.2084997 109.1249988  80.7820012   6.8674997 109.0659988
  82.1250012   6.8314997 108.3689988  81.6138130   7.1109631 109.0147702
  87.2100012   7.6244997 107.9419988  86.8010012   8.4394997 107.6509988
  87.9310012   7.4844997 107.3279988  87.2514537   7.7172018 107.8191342
  86.3120012   7.7994997 119.4299988  85.7500012   7.0954997 119.7509988
  87.1390012   7.6794997 119.8979988  86.3467095   7.6867883 119.5372330
  88.2150012   7.0704997 110.7559988  88.0200012   7.6754997 110.0409988
  88.3960012   6.2364997 110.3219988  88.2127614   7.0406300 110.5994405
  79.4280012   7.3074997 116.0799988  79.3900012   7.7074997 116.9489988
  78.9370012   6.4904997 116.1709988  79.3564684   7.2518069 116.2111059
  82.7940012   4.6814997 102.8789988  82.3630012   4.2364997 103.6089988
  82.0760012   5.0534997 102.3669988  82.6379438   4.6708940 102.9096799
  76.0360012   4.4234997 109.9309988  76.6670012   4.3944997 110.6499988
  76.4850012   3.9984997 109.1999988  76.1830918   4.3620836 109.9306441
  77.3100012   5.1694997 105.3549988  77.7840012   5.7604997 104.7699988
  76.5930012   5.7004997 105.7019988  77.2779341   5.3220867 105.3218836
  87.4790012   8.7084997 115.4269988  87.8020012   8.0774997 114.7839988
  87.0390012   8.1734997 116.0879988  87.4637484   8.5498387 115.4283198
  84.2560012   4.6354997 110.2109988  83.3450012   4.6924997 110.4999988
  84.7620012   4.5754997 111.0219988  84.1996899   4.6351941 110.3601184
  79.0850012   6.2644997 109.0379988  78.1950012   6.3644997 108.6979988
  79.3810012   5.4224997 108.6919988  79.0032823   6.1643545 108.9447213
  82.7380012   6.2644997 106.6949988  83.6690012   6.3934997 106.8729988
  82.5230012   6.9344997 106.0449988  82.8364247   6.3726565 106.6315747
  88.6610012   3.8704997 113.4759988  87.9850012   4.0014997 114.1399988
  88.1760012   3.7154997 112.6649988  88.5027146   3.8675157 113.4574469
  81.4120012   7.4594997 104.2609988  80.8690012   7.0794997 103.5699988
  82.2450012   7.6534997 103.8329988  81.4503631   7.4337125 104.1084501
  91.9490012  19.5424997 119.7519988  92.1490012  19.9664997 118.9179988
  92.6040012  19.8854997 120.3589988  92.0650072  19.6469857 119.7198592
  79.5470012  12.0164997 119.3599988  80.2790012  12.2704997 119.9219988
  78.7670012  12.2204997 119.8759988  79.5417073  12.0788160 119.5066151
  85.5760012   7.4234997 112.0979988  86.1410012   6.8764997 111.5509988
  85.4290012   6.9014997 112.8869988  85.6333380   7.2782259 112.1298695
  80.5780012   3.5594997 108.5169988  80.2610012   2.6574997 108.4809988
  81.3600012   3.5614997 107.9639988  80.6402408   3.4362474 108.4373569
  84.2030012   5.8114997 114.5119988  83.3670012   6.2654997 114.6229988
  84.7270012   6.0874997 115.2639988  84.1595416   5.9108660 114.6288119
  84.7470012  12.0244997 106.1969988  84.0020012  11.5174997 105.8749988
  84.6130012  12.0734997 107.1439988  84.6268776  11.9616940 106.2808647
  91.8970012  11.1574997 114.9839988  92.5390012  11.6144997 114.4399988
  91.0670012  11.2704997 114.5209988  91.8725963  11.2352704 114.8470177
  88.6450012   4.8384997 104.3959988  87.7060012   4.9504997 104.2449988
  88.9420012   5.6954997 104.7029988  88.5567583   4.9695981 104.4168337
  86.2660012  12.2084997 117.4339988  85.9210012  11.8274997 118.2409988
  86.0660012  13.1424997 117.5049988  86.1917527  12.2825135 117.5540689
  89.3630012   6.7054997 106.0569988  90.2550012   6.5684997 106.3759988
  89.4200012   7.4964997 105.5199988  89.4926504   6.7936052 106.0280818
  79.8720012  11.3194997 111.9669988  80.6170012  11.3174997 111.3659988
  79.9500012  10.4964997 112.4479988  79.9844995  11.2078887 111.9498282
  86.8730012  13.4834997 105.2229988  86.5770012  14.3094997 105.6039988
  86.1700012  12.8634997 105.4189988  86.7374914  13.5128199 105.3016443
  76.8800012   9.7804997 117.2819988  77.1030012   9.3624997 118.1139988
  76.2780012   9.1674997 116.8589988  76.8291759   9.6404668 117.3387022
  83.8960012   9.2974997 119.4949988  83.6000012   9.1314997 118.5999988
  84.8280012   9.0774997 119.4839988  83.9814166   9.2450640 119.3710536
  88.5170012  14.6704997 117.3849988  87.6160012  14.8534997 117.1169988
  88.5510012  14.9294997 118.3049988  88.3983139  14.7305849 117.4728099
  94.2480012   6.9154997 105.7519988  93.6940012   6.5194997 105.0799988
  94.3480012   7.8254997 105.4739988  94.1857059   6.9843586 105.6224401
  94.2110012  12.7154997 118.5889988  93.3600012  12.9534997 118.2219988
  94.8020012  12.6984997 117.8359988  94.1742487  12.7458258 118.4368893
  92.5430012  15.7014997 106.2169988  92.1700012  14.8754997 106.5259988
  92.8210012  15.5184997 105.3189988  92.5295222  15.5637430 106.1379473
  89.7040012  10.5094997 113.2379988  88.7750012  10.2774997 113.2109988
  90.1550012   9.7324997 112.9079988  89.6379216  10.3727238 113.1896917
  82.2470012  14.8374997 109.3709988  82.7740012  15.6104997 109.1709988
  81.3670012  15.0624997 109.0689988  82.2002031  14.9737545 109.3027912
  78.0020012   9.6994997 103.9579988  78.6180012  10.3264997 104.3379988
  77.1400012  10.0154997 104.2299988  77.9697698   9.8279430 104.0467183
  83.6740012  12.5004997 108.9469988  83.4330012  13.4254997 108.9889988
  82.9330012  12.0414997 109.3439988  83.5409225  12.5650933 109.0063742
  84.1890012  16.6494997 115.2629988  84.5510012  17.5044997 115.0289988
  84.7200012  16.3574997 116.0029988  84.3104473  16.7271060 115.3310855
  82.3570012  17.5224997 108.4929988  81.4070012  17.6274997 108.5439988
  82.7090012  18.3424997 108.8369988  82.2744195  17.6478800 108.5465502
  87.7330012  12.7484997 114.9629988  87.3070012  12.5214997 115.7899988
  88.3130012  12.0104997 114.7809988  87.7531868  12.6175299 115.0515830
  90.3910012  17.3004997 117.4329988  89.7900012  16.7454997 116.9369988
  90.6730012  17.9674997 116.8059988  90.3468804  17.3146625 117.2804849
  78.5140012   4.5334997 116.8399988  77.6210012   4.8724997 116.7719988
  78.4150012   3.6784997 117.2579988  78.3784164   4.4642588 116.8872235
  90.8020012  12.3504997 106.2639988  90.5240012  11.6224997 106.8199988
  91.7290012  12.4694997 106.4689988  90.8893124  12.2668802 106.3678845
  78.1650012  16.3384997 115.2749988  78.3820012  15.4064997 115.2439988
  78.4110012  16.6124997 116.1579988  78.2279549  16.2480636 115.3901763
  79.4170012  11.6124997 105.4509988  78.7310012  11.9644997 106.0179988
  79.9390012  12.3754997 105.2039988  79.3936852  11.7638578 105.4952118
  87.2480012   4.2744997 115.7299988  87.9470012   4.3484997 116.3799988
  86.8670012   3.4104997 115.8839988  87.2921767   4.1677624 115.8398322
  88.0330012   3.9264997 106.8269988  88.2530012   4.3984997 106.0239988
  88.5910012   4.3214997 107.4969988  88.1384968   4.0444285 106.8077331
  85.7010012  16.0574997 105.6899988  84.8850012  16.5544997 105.7419988
  86.2310012  16.5324997 105.0499988  85.6609161  16.1897722 105.6105956
  85.2330012   5.6544997 107.6619988  86.0450012   6.1594997 107.7079988
  84.9880012   5.5094997 108.5759988  85.3110520   5.7040375 107.7918517
  85.7680012   6.6404997 116.8459988  85.8870012   7.2144997 117.6039988
  86.4240012   5.9524997 116.9609988  85.8729025   6.6259858 116.9651321
  86.1160012   2.7354997 108.5999988  85.7700012   3.3534997 109.2439988
  86.7750012   3.2364997 108.1179988  86.1576968   2.8876278 108.6229383
  91.9730012   4.5474997 117.6809988  91.0560012   4.8104997 117.5939988
  92.3080012   4.5444997 116.7849988  91.8928613   4.5830761 117.5478837
  90.5750012   8.2984997 111.7769988  89.7770012   7.8834997 111.4489988
  91.0200012   7.6074997 112.2679988  90.5259885   8.1483543 111.7984889
  91.6610012  17.5544997 113.3999988  91.5060012  18.2324997 112.7419988
  92.5940012  17.6264997 113.6029988  91.7658657  17.6569546 113.3374360
  79.1570012   1.6724997 112.1369988  78.9280012   1.7314997 111.2089988
  78.7140012   0.8804997 112.4429988  79.0658530   1.5735753 112.0514786
  78.0870012  15.6124997 108.2969988  77.2550012  16.0854997 108.3239988
  78.6330012  16.1224997 107.6989988  78.0470352  15.7461332 108.2198463
  77.3750012  18.2254997 119.6269988  77.9160012  18.0084997 120.3869988
  76.8940012  17.4194997 119.4369988  77.3839951  18.0869270 119.7052576
  81.9730012  17.1444997 121.2469988  82.7400012  16.6854997 121.5879988
  81.9510012  16.9184997 120.3179988  82.0751275  17.0510186 121.1680101
  88.5500012  15.5244997 119.9769988  88.1990012  14.6684997 120.2199988
  89.2760012  15.6674997 120.5839988  88.6000769  15.4265636 120.0923619
  77.2820012  12.0354997 120.5809988  77.4260012  11.1334997 120.2949988
  76.5100012  12.3214997 120.0939988  77.1972753  11.9506816 120.4759505
  83.9380012  12.0054997 120.0139988  83.6090012  12.2764997 119.1569988
  84.0900012  11.0644997 119.9269988  83.9134809  11.9153862 119.8848244
  86.9760012  13.4264997 102.4499988  86.7070012  13.6064997 103.3509988
  86.7700012  12.5004997 102.3179988  86.9113427  13.3260261 102.5555073
  89.6720012  11.9214997 117.3969988  90.4180012  12.5094997 117.2779988
  88.9150012  12.5034997 117.4609988  89.6717820  12.0807143 117.3893590
  78.1150012   9.2354997 120.0009988  78.5230012   8.3784997 119.8799988
  77.8550012   9.2504997 120.9219988  78.1357568   9.1200807 120.1089588
  82.0620012   8.2444997 117.3759988  81.4440012   8.9194997 117.6559988
  82.4060012   8.5654997 116.5419988  82.0239132   8.3802411 117.3016262
  87.0820012  10.7164997 120.6529988  88.0350012  10.7994997 120.6259988
  86.9210012  10.0044997 121.2729988  87.1906426  10.6316746 120.7330579
  82.4010012   5.5994997 118.4579988  82.5510012   4.8704997 117.8559988
  82.4040012   6.3764997 117.8989988  82.4219302   5.6047851 118.3000692
  82.8140012   3.9694997 115.9509988  83.3500012   4.4204997 115.2989988
  81.9620012   3.8614997 115.5279988  82.7722178   4.0166390 115.8045756
  84.3960012   9.4084997 116.1899988  85.1460012   9.2524997 115.6169988
  84.0570012  10.2604997 115.9149988  84.4528921   9.5022968 116.0743561
  88.8110012   7.2234997 121.2189988  89.0040012   6.2924997 121.1069988
  89.6690012   7.6484997 121.2079988  88.9532934   7.1536531 121.2022031
  90.1280012  10.0124997 119.2959988  89.8470012  10.7214997 118.7179988
  91.0710012   9.9394997 119.1449988  90.2169291  10.0996711 119.1964967
  80.8800012   6.7974997 120.3699988  80.1130012   6.2654997 120.1589988
  81.5590012   6.4874997 119.7699988  80.8667877   6.6828300 120.2600716
  83.6200012   1.4254997 116.3819988  83.5210012   2.3724997 116.2769988
  82.8770012   1.0534997 115.9059988  83.5061184   1.5045863 116.3033621
  84.8840012   5.7474997 119.9459988  84.6480012   5.5274997 120.8469988
  84.1000012   5.5404997 119.4359988  84.7458504   5.6894586 120.0003431
  87.5990012   4.8744997 119.0209988  86.6520012   4.9064997 119.1539988
  87.9120012   4.2494997 119.6749988  87.5116707   4.7943998 119.1276060
  89.2330012   3.5084997 121.0269988  89.1370012   2.5564997 121.0209988
  88.9120012   3.7774997 121.8869988  89.1764070   3.4144035 121.1425441
  79.0600012   4.7184997 120.0739988  79.2720012   4.0114997 119.4639988
  78.9490012   4.2804997 120.9179988  79.0739721   4.5627084 120.1046843
  83.8410012   0.7194997 119.0529988  84.5530012   0.0794997 119.0389988
  83.7400012   0.9864997 118.1399988  83.9248066   0.6680079 118.9275677
  84.1950012   2.4024997 121.1069988  84.0630012   1.9264997 120.2869988
  83.5960012   3.1464997 121.0519988  84.0959071   2.4379618 120.9872886
  75.9590012  19.3144997 108.8439988  75.3120012  18.8524997 108.3109988
  76.3130012  18.6424997 109.4259988  75.9183849  19.1604723 108.8497959
  76.8290012  17.3954997 110.6479988  76.4940012  16.5154997 110.8199988
  77.0510012  17.7404997 111.5129988  76.8131783  17.3217500 110.7884208
  94.3770012  18.2044997 113.6289988  94.3560012  18.3894997 114.5679988
  95.0680012  18.7734997 113.2879988  94.4674618  18.3066606 113.7113864
  93.9410012  17.7724997 116.5509988  93.4530012  17.0364997 116.1789988
  94.4900012  17.3784997 117.2289988  93.9484820  17.6185889 116.5917813
  92.3910012  13.5614997 121.1889988  91.5250012  13.4564997 121.5829988
  92.7680012  14.3204997 121.6349988  92.3233308  13.6496900 121.3032393
  93.6920012  11.8184997 106.7029988  94.5420012  12.2394997 106.8299988
  93.6980012  11.0784997 107.3099988  93.8091372  11.7760803 106.8024344
  94.0870012   9.8714997 108.5259988  93.3600012   9.3924997 108.9239988
  94.6680012  10.0774997 109.2589988  94.0660473   9.8338103 108.6794528
  93.8460012  12.6564997 113.4739988  94.6790012  12.2784997 113.1939988
  93.9580012  13.5994997 113.3549988  93.9752647  12.7322218 113.4195487
  92.3320012  15.5344997 115.7809988  91.6850012  15.8594997 116.4069988
  91.8150012  15.0944997 115.1069988  92.1734029  15.5195004 115.7755827
  94.3550012   9.7724997 104.9179988  93.8330012  10.1294997 104.1989988
  94.3220012  10.4474997 105.5959988  94.2791634   9.9125413 104.9113145
  91.8730012   8.3924997 109.0889988  91.7230012   7.4474997 109.0689988
  91.5200012   8.6734997 109.9329988  91.8047448   8.3011481 109.2003705
  76.9090012  10.4704997 113.0999988  77.0930012  10.3884997 112.1639988
  77.7580012  10.3464997 113.5229988  77.0490151  10.4425073 113.0291451
  92.7300012  10.3624997 118.7279988  93.3130012   9.6284997 118.9199988
  93.2940012  11.1344997 118.7749988  92.8859769  10.3664227 118.7606159
  94.2260012   8.2654997 119.4129988  93.3630012   7.8864997 119.2469988
  94.8310012   7.5264997 119.3379988  94.1896119   8.1138268 119.3801528
  91.5840012   5.9754997 107.5519988  91.8640012   5.0684997 107.6759988
  92.3430012   6.4094997 107.1629988  91.7249277   5.9100942 107.5163682
  92.1960012   6.5564997 112.9879988  93.1290012   6.7684997 112.9529988
  91.9610012   6.6584997 113.9099988  92.2919244   6.5993100 113.1078892
  92.2250012   7.2934997 115.7639988  91.3820012   7.5614997 116.1299988
  92.6670012   8.1154997 115.5529988  92.1694158   7.4413291 115.7855491
  76.5060012   5.7414997 119.2409988  77.4260012   5.6194997 119.4769988
  76.0570012   4.9914997 119.6299988  76.5711580   5.6233727 119.3259006
  94.5080012   1.2734997 121.1169988  94.8580012   0.6194997 120.5119988
  94.6550012   2.1104997 120.6769988  94.5757887   1.2971548 120.9746858
  92.1970012   3.2384997 107.5999988  92.3800012   2.7894997 108.4259988
  91.5980012   2.6534997 107.1369988  92.1410202   3.0979975 107.6503275
  77.7270012   4.0534997 112.1319988  78.1730012   3.2614997 112.4339988
  78.1940012   4.7694997 112.5619988  77.8510831   4.0420685 112.2314006
  76.0310012   7.0524997 113.2009988  76.5230012   6.8314997 112.4099988
  76.3940012   7.8934997 113.4819988  76.1473126   7.1358357 113.1307531
  94.0280012   3.3824997 119.4659988  93.1100012   3.6534997 119.4309988
  94.1510012   2.8474997 118.6819988  93.9189729   3.3472508 119.3551923
  94.0640012   3.3054997 104.1279988  94.4760012   2.5844997 103.6529988
  94.7460012   3.9754997 104.1869988  94.2125885   3.2972368 104.0708915
  76.3450012   3.3104997 107.2549988  75.4200012   3.5194997 107.1259988
  76.7990012   3.7944997 106.5649988  76.2797292   3.4045343 107.1440720
  91.1160012  18.2944997 109.2009988  91.7680012  17.9474997 108.5929988
  91.6260012  18.7834997 109.8469988  91.2742637  18.3130597 109.2050236
  76.3090012   2.0484997 115.5989988  75.6440012   1.8024997 116.2429988
  75.8660012   2.6704997 115.0219988  76.1581318   2.0989410 115.6090898
  78.5010012  15.2234997 119.7439988  77.6800012  15.3984997 119.2829988
  78.2480012  15.1504997 120.6639988  78.3545585  15.2375544 119.8053561
  81.4550012  16.1984997 116.0019988  81.0300012  17.0074997 115.7199988
  82.3590012  16.2834997 115.6999988  81.5189975  16.3209300 115.9224816
  85.7660012  17.5974997 118.9619988  85.9510012  17.2634997 119.8399988
  86.6120012  17.9064997 118.6399988  85.9057539  17.5936047 119.0385605
  88.1110012  18.8834997 118.2059988  88.7880012  18.2504997 117.9659988
  88.4330012  19.2844997 119.0129988  88.2471637  18.8511154 118.2822793
  93.0280012   1.4724997 117.2849988  92.2160012   1.7974997 116.8979988
  93.2610012   0.7124997 116.7519988  92.9482203   1.4142758 117.1598880
  78.8570012  19.4544997 116.0499988  78.1360012  19.8944997 115.5989988
  78.4910012  19.2034997 116.8979988  78.7089651  19.4807242 116.1029640
  81.3240012  19.0544997 115.0799988  80.4590012  19.1264997 115.4839988
  81.2690012  19.6014997 114.2959988  81.1982085  19.1382685 115.0293362
  86.0340012  18.9424997 114.2549988  85.5780012  19.4714997 113.6009988
  86.1970012  19.5454997 114.9799988  85.9936068  19.0964607 114.2634838
  88.3620012  17.8204997 115.1999988  87.4570012  17.9854997 114.9339988
  88.7910012  18.6734997 115.1349988  88.2961324  17.9584339 115.1547976
  90.9660012  19.3904997 115.4949988  90.7840012  20.3064997 115.2849988
  91.1430012  18.9804997 114.6489988  90.9650210  19.4604822 115.3517885
  78.2710012  18.0774997 112.9599988  78.2530012  17.6524997 113.8169988
  79.0760012  17.7594997 112.5509988  78.3773529  17.9763013 113.0220946
  80.4130012  16.7874997 111.6149988  80.1940012  15.8714997 111.7849988
  81.2370012  16.9274997 112.0809988  80.4944420  16.6810520 111.7012774
  82.9500012  17.2574997 112.4639988  83.1630012  16.3694997 112.1769988
  83.0140012  17.2234997 113.4179988  82.9878232  17.1313102 112.5537397
  86.4580012   2.9214997 111.6079988  85.7840012   2.2924997 111.8639988
  87.0220012   2.4374997 111.0049988  86.4419230   2.7698744 111.5615340
  91.6010012   1.0294997 111.7209988  92.2050012   1.5764997 111.2189988
  90.7310012   1.3484997 111.4799988  91.5661208   1.1475137 111.6196886
  93.3280012   2.1674997 110.0539988  93.9400012   1.6534997 109.5269988
  93.7100012   3.0454997 110.0769988  93.4633371   2.2157866 109.9850041
  78.7850012   1.5554997 109.4299988  78.0080012   1.3214997 108.9229988
  79.3150012   0.7584997 109.4389988  78.7502330   1.4156988 109.3617742
  83.3640012   1.4824997 109.2439988  84.2390012   1.8704997 109.2139988
  83.2280012   1.2674997 110.1659988  83.4653695   1.5065184 109.3646440
  88.9210012   1.5124997 110.8929988  88.9970012   1.6074997 109.9429988
  88.6460012   0.6044997 111.0219988  88.8942321   1.4027867 110.7805079
  90.2740012   1.5384997 106.5849988  89.5720012   2.1534997 106.3749988
  89.8300012   0.7004997 106.7159988  90.1176450   1.5095639 106.5739000
  77.5220012  17.3014997 106.1309988  76.8370012  17.2634997 105.4639988
  77.5260012  18.2144997 106.4199988  77.4286998  17.4196733 106.0786771
  84.5080012   3.5624997 106.1329988  84.6860012   2.9164997 106.8159988
  84.4550012   4.3964997 106.5999988  84.5251999   3.5868009 106.2895917
  93.0960012  18.0744997 107.2079988  92.9010012  17.3264997 106.6429988
  93.0570012  18.8324997 106.6249988  93.0640380  18.0746099 107.0518384
  78.7430012   2.0694997 118.9479988  78.3770012   1.3044997 119.3899988
  79.6560012   2.0984997 119.2339988  78.8162736   1.9685640 119.0472502
  80.7160012   1.4204997 120.4839988  81.6140012   1.1464997 120.2989988
  80.3290012   0.6774997 120.9479988  80.7866612   1.2825914 120.5213643
  79.3400012  18.2214997 103.1569988  79.0730012  18.5084997 104.0299988
  80.1120012  17.6754997 103.3089988  79.4077488  18.1870294 103.2971050
  89.1370012   0.7524997 120.6659988  89.2140012   0.3264997 121.5199988
  90.0310012   0.7664997 120.3229988  89.2683428   0.6960879 120.7365310
  92.3130012  16.8254997 119.3579988  91.5310012  16.6394997 118.8379988
  92.2410012  17.7544997 119.5759988  92.1962274  16.9256643 119.3163018
 106.7190012  10.7114997 109.3889988 106.8080012  11.6554997 109.2569988
 106.0810012  10.4364997 108.7309988 106.6449081  10.8034830 109.2819614
 105.6520012   9.9664997 112.8079988 105.6140012   9.3204997 113.5129988
 105.3300012   9.5004997 112.0369988 105.6032333   9.8149408 112.8002978
  98.0210012   9.5814997 114.4009988  98.0620012   8.9554997 115.1239988
  98.7240012  10.2054997 114.5829988  98.1216363   9.5801196 114.5246044
 109.3580012  12.9054997 111.1089988 108.9180012  12.1854997 111.5599988
 109.3450012  13.6264997 111.7389988 109.2960226  12.9043731 111.2558494
  98.9440012  14.0314997 112.9359988  98.5750012  13.2294997 112.5659988
  99.8850012  13.8624997 112.9819988  99.0207289  13.8990153 112.8916316
  95.5540012   7.6914997 108.3289988  95.1070012   8.5374997 108.3099988
  94.9930012   7.1114997 107.8129988  95.4169900   7.7289916 108.2566801
  96.2650012   9.8534997 110.4539988  96.4780012   9.0834997 110.9819988
  97.0030012   9.9424997 109.8509988  96.3939044   9.7601968 110.4447123
 106.4700012  18.0104997 111.3209988 107.0900012  17.3334997 111.0479988
 106.2620012  17.7924997 112.2299988 106.5266726  17.8884800 111.4064812
 104.0420012  12.3994997 113.2139988 104.3460012  11.7134997 112.6189988
 104.7630012  12.5174997 113.8319988 104.1810671  12.3216305 113.2161816
 112.7050012   4.0004997 114.0749988 112.7540012   4.6104997 114.8099988
 113.1300012   4.4614997 113.3519988 112.7691746   4.1463796 114.0779175
 107.1830012   6.7934997 113.5409988 107.3250012   5.8474997 113.5619988
 107.0760012   7.0004997 112.6129988 107.1879919   6.6918246 113.4183408
 100.3370012   4.8944997 110.8139988 100.3810012   5.7544997 110.3949988
  99.8800012   4.3424997 110.1799988 100.2812240   4.9374422 110.6709864
 108.0600012   5.0254997 109.2149988 108.7060012   4.6964997 109.8389988
 108.5700012   5.5434997 108.5919988 108.2174299   5.0504450 109.2162731
  96.9580012   7.2914997 111.5759988  97.6110012   6.7414997 112.0079988
  96.9820012   7.0174997 110.6589988  97.0506683   7.1791466 111.5112123
 102.1140012   8.8414997 110.7909988 102.7300012   8.3154997 111.3009988
 101.5280012   8.2014997 110.3879988 102.1190810   8.6829208 110.8063173
 113.0960012   5.4784997 116.3099988 112.4080012   6.1364997 116.2149988
 113.1120012   5.2814997 117.2469988 113.0039540   5.5419819 116.4235990
  99.1480012   3.8124997 114.8879988  98.9290012   4.3424997 114.1219988
  98.4800012   4.0394997 115.5349988  99.0277600   3.9156906 114.8706379
 106.5170012  13.3124997 108.4319988 106.2210012  12.9904997 107.5809988
 106.1920012  14.2124997 108.4729988 106.4326371  13.3900215 108.3211801
 101.7170012  11.4884997 115.1749988 100.9770012  12.0864997 115.2789988
 102.4310012  12.0424997 114.8599988 101.7122237  11.6452831 115.1466465
 109.8240012   4.3164997 111.1949988 109.6080012   3.5504997 111.7279988
 110.4790012   4.7884997 111.7079988 109.8830632   4.2755889 111.3372861
  98.7410012   5.7044997 112.8399988  99.3550012   6.3374997 113.2129988
  99.2530012   5.2324997 112.1839988  98.8941981   5.7272267 112.8022908
 100.1240012  13.4524997 115.9619988 100.1190012  14.3324997 115.5839988
  99.2710012  13.3694997 116.3869988 100.0079464  13.5616117 115.9677907
  96.2450012  13.1234997 106.7439988  95.9730012  13.3524997 105.8559988
  96.2910012  13.9614997 107.2049988  96.2139482  13.2681318 106.6846273
 109.8700012  14.7454997 113.4569988 108.9290012  14.8034997 113.6189988
 110.1470012  15.6514997 113.3199988 109.7784679  14.8759443 113.4606815
 110.1710012   3.0314997 114.8749988 109.4350012   3.6424997 114.8369988
 110.8540012   3.4464997 114.3479988 110.1626541   3.1711374 114.7985832
 103.1740012   1.1184997 112.3399988 103.0570012   0.1694997 112.2859988
 102.3190012   1.4504997 112.6139988 103.0424212   1.0335571 112.3696497
 108.1220012  16.5264997 110.0819988 108.5480012  15.8194997 109.5969988
 108.4390012  17.3274997 109.6659988 108.2231683  16.5381017 109.9593680
 109.2820012  14.4274997 108.5909988 109.0240012  13.7374997 107.9799988
 109.3530012  13.9844997 109.4369988 109.2562856  14.2732124 108.6216885
 110.9680012  12.9934997 117.0679988 111.1080012  12.4024997 116.3289988
 111.1350012  13.8664997 116.7119988 111.0097411  13.0305428 116.9186894
 105.4410012   9.9554997 106.8409988 104.7290012  10.4904997 106.4889988
 106.1320012  10.0114997 106.1809988 105.4370132  10.0362543 106.7036289
 105.4940012   8.4134997 103.8799988 106.1950012   8.4354997 104.5309988
 105.7970012   7.7854997 103.2229988 105.6308133   8.3317070 103.8803369
 112.8100012   9.3334997 115.1339988 112.1570012  10.0284997 115.2239988
 113.2750012   9.5434997 114.3249988 112.7835274   9.4570643 115.0368462
 108.8460012  10.1654997 107.7929988 108.1140012  10.3934997 108.3659988
 109.2940012   9.4514997 108.2469988 108.8062725  10.1002145 107.9328816
 108.7440012   8.3394997 116.8599988 108.8240012   9.1024997 117.4319988
 108.1420012   8.6184997 116.1699988 108.6735756   8.4817134 116.8450589
 100.4920012  10.7954997 109.6749988 100.1610012  10.4254997 108.8569988
 101.0800012  10.1254997 110.0219988 100.5261873  10.6541156 109.6098102
 101.8580012  14.2234997 112.3559988 101.7640012  13.6454997 111.5999988
 102.5880012  13.8524997 112.8529988 101.9437387  14.0941663 112.3195342
 100.8580012   9.5644997 113.3089988 101.4240012   9.6854997 112.5459988
 101.1770012  10.2014997 113.9469988 100.9785474   9.6672219 113.2909862
 107.1670012  15.0674997 114.0429988 106.9270012  15.7294997 114.6909988
 106.9690012  14.2334997 114.4679988 107.1073808  15.0453134 114.1891524
 101.7380012  13.9634997 118.0259988 101.4270012  14.7454997 118.4809988
 101.0880012  13.8104997 117.3399988 101.6075558  14.0499105 117.9955871
 107.7170012   9.3274997 105.4779988 108.2970012   9.4774997 106.2249988
 108.1310012   9.7984997 104.7539988 107.8522997   9.4116578 105.4824058
  98.6580012  10.1614997 117.2539988  98.7290012  10.8124997 117.9529988
  97.7680012  10.2644997 116.9189988  98.5473005  10.2645427 117.3043495
 105.4440012  16.0644997 108.9129988 105.9180012  16.3594997 109.6899988
 104.8810012  16.8024997 108.6799988 105.4328184  16.2047247 108.9879628
  99.9780012  16.0354997 118.7889988  99.9850012  15.8994997 117.8419988
  99.0620012  15.9174997 119.0409988  99.8551714  16.0009430 118.6934666
  99.4820012   9.8654997 107.2639988  99.1900012  10.6334997 106.7739988
  98.8080012   9.2054997 107.1019988  99.3508111   9.8815587 107.1748978
  95.5750012  12.2284997 116.0789988  95.0740012  12.2004997 115.2639988
  95.5800012  11.3224997 116.3889988  95.5070944  12.1022396 116.0093226
  95.3250012  15.0084997 112.9629988  96.2710012  14.8644997 112.9439988
  95.2130012  15.7924997 113.4999988  95.4392727  15.0948046 113.0330072
 113.5230012  15.6744997 118.6459988 113.4740012  14.7194997 118.6089988
 112.6960012  15.9424997 119.0469988 113.4044940  15.5798998 118.6951375
 104.5020012  15.2484997 117.5219988 104.5890012  16.0744997 117.9969988
 103.6380012  14.9184997 117.7709988 104.3971964  15.3169878 117.6206549
 104.9160012  19.0204997 107.3279988 104.8410012  18.8994997 106.3809988
 104.9490012  19.9704997 107.4459988 104.9102068  19.1322646 107.2144967
  98.5690012  17.8094997 109.1089988  98.7220012  17.4614997 109.9869988
  97.7190012  17.4534997 108.8539988  98.4749166  17.7136216 109.1948079
 108.0180012  18.1744997 104.3299988 108.3930012  17.4304997 103.8589988
 108.0220012  17.9044997 105.2489988 108.0699125  18.0360986 104.3896483
 107.6870012  18.1004997 107.0789988 106.7510012  18.2004997 107.2579988
 107.9670012  17.3914997 107.6579988 107.5969553  18.0183406 107.1817087
 110.6750012   7.1674997 119.1259988 110.2680012   7.6484997 118.4049988
 110.7160012   6.2624997 118.8179988 110.6248437   7.1109374 118.9856683
  97.8240012  13.5514997 117.1229988  98.0400012  13.1904997 117.9819988
  96.9690012  13.1774997 116.9129988  97.7379292  13.4514111 117.2123386
 100.4430012   2.0214997 113.1179988  99.5810012   1.9344997 112.7099988
 100.4200012   2.8774997 113.5459988 100.3220409   2.1252883 113.1200589
 105.1060012   1.7434997 116.4929988 105.5260012   1.3284997 117.2459988
 104.1730012   1.5654997 116.6099988 105.0373644   1.6625900 116.6119539
 108.4320012   5.4994997 117.3459988 107.9180012   5.3734997 118.1439988
 108.2770012   6.4114997 117.1019988 108.3406852   5.6056132 117.4222158
 104.7670012   4.2364997 103.7779988 104.5140012   4.2554997 104.7009988
 104.5110012   3.3644997 103.4759988 104.6977481   4.1212558 103.8636175
 100.5340012   6.9874997 114.2129988  99.8920012   6.9464997 114.9219988
 100.5710012   7.9134997 113.9749988 100.4510664   7.1071430 114.2779219
 100.5310012   7.2084997 109.1249988  99.6380012   6.8674997 109.0659988
 100.9810012   6.8314997 108.3689988 100.4698130   7.1109631 109.0147702
 106.0660012   7.6244997 107.9419988 105.6570012   8.4394997 107.6509988
 106.7870012   7.4844997 107.3279988 106.1074537   7.7172018 107.8191342
 105.1680012   7.7994997 119.4299988 104.6060012   7.0954997 119.7509988
 105.9950012   7.6794997 119.8979988 105.2027095   7.6867883 119.5372330
 107.0710012   7.0704997 110.7559988 106.8760012   7.6754997 110.0409988
 107.2520012   6.2364997 110.3219988 107.0687614   7.0406300 110.5994405
  98.2840012   7.3074997 116.0799988  98.2460012   7.7074997 116.9489988
  97.7930012   6.4904997 116.1709988  98.2124684   7.2518069 116.2111059
  94.8920012   4.4234997 109.9309988  95.5230012   4.3944997 110.6499988
  95.3410012   3.9984997 109.1999988  95.0390918   4.3620836 109.9306441
  96.1660012   5.1694997 105.3549988  96.6400012   5.7604997 104.7699988
  95.4490012   5.7004997 105.7019988  96.1339341   5.3220867 105.3218836
 106.3350012   8.7084997 115.4269988 106.6580012   8.0774997 114.7839988
 105.8950012   8.1734997 116.0879988 106.3197484   8.5498387 115.4283198
 103.1120012   4.6354997 110.2109988 102.2010012   4.6924997 110.4999988
 103.6180012   4.5754997 111.0219988 103.0556899   4.6351941 110.3601184
  97.9410012   6.2644997 109.0379988  97.0510012   6.3644997 108.6979988
  98.2370012   5.4224997 108.6919988  97.8592823   6.1643545 108.9447213
 101.5940012   6.2644997 106.6949988 102.5250012   6.3934997 106.8729988
 101.3790012   6.9344997 106.0449988 101.6924247   6.3726565 106.6315747
 107.5170012   3.8704997 113.4759988 106.8410012   4.0014997 114.1399988
 107.0320012   3.7154997 112.6649988 107.3587146   3.8675157 113.4574469
 110.8050012  19.5424997 119.7519988 111.0050012  19.9664997 118.9179988
 111.4600012  19.8854997 120.3589988 110.9210072  19.6469857 119.7198592
  98.4030012  12.0164997 119.3599988  99.1350012  12.2704997 119.9219988
  97.6230012  12.2204997 119.8759988  98.3977073  12.0788160 119.5066151
 104.4320012   7.4234997 112.0979988 104.9970012   6.8764997 111.5509988
 104.2850012   6.9014997 112.8869988 104.4893380   7.2782259 112.1298695
  99.4340012   3.5594997 108.5169988  99.1170012   2.6574997 108.4809988
 100.2160012   3.5614997 107.9639988  99.4962408   3.4362474 108.4373569
 103.0590012   5.8114997 114.5119988 102.2230012   6.2654997 114.6229988
 103.5830012   6.0874997 115.2639988 103.0155416   5.9108660 114.6288119
 103.6030012  12.0244997 106.1969988 102.8580012  11.5174997 105.8749988
 103.4690012  12.0734997 107.1439988 103.4828776  11.9616940 106.2808647
 110.7530012  11.1574997 114.9839988 111.3950012  11.6144997 114.4399988
 109.9230012  11.2704997 114.5209988 110.7285963  11.2352704 114.8470177
 105.1220012  12.2084997 117.4339988 104.7770012  11.8274997 118.2409988
 104.9220012  13.1424997 117.5049988 105.0477527  12.2825135 117.5540689
 108.2190012   6.7054997 106.0569988 109.1110012   6.5684997 106.3759988
 108.2760012   7.4964997 105.5199988 108.3486504   6.7936052 106.0280818
  98.7280012  11.3194997 111.9669988  99.4730012  11.3174997 111.3659988
  98.8060012  10.4964997 112.4479988  98.8404995  11.2078887 111.9498282
 105.7290012  13.4834997 105.2229988 105.4330012  14.3094997 105.6039988
 105.0260012  12.8634997 105.4189988 105.5934914  13.5128199 105.3016443
  95.7360012   9.7804997 117.2819988  95.9590012   9.3624997 118.1139988
  95.1340012   9.1674997 116.8589988  95.6851759   9.6404668 117.3387022
 102.7520012   9.2974997 119.4949988 102.4560012   9.1314997 118.5999988
 103.6840012   9.0774997 119.4839988 102.8374166   9.2450640 119.3710536
 107.3730012  14.6704997 117.3849988 106.4720012  14.8534997 117.1169988
 107.4070012  14.9294997 118.3049988 107.2543139  14.7305849 117.4728099
 113.1040012   6.9154997 105.7519988 112.5500012   6.5194997 105.0799988
 113.2040012   7.8254997 105.4739988 113.0417059   6.9843586 105.6224401
 113.0670012  12.7154997 118.5889988 112.2160012  12.9534997 118.2219988
 113.6580012  12.6984997 117.8359988 113.0302487  12.7458258 118.4368893
 111.3990012  15.7014997 106.2169988 111.0260012  14.8754997 106.5259988
 111.6770012  15.5184997 105.3189988 111.3855222  15.5637430 106.1379473
 108.5600012  10.5094997 113.2379988 107.6310012  10.2774997 113.2109988
 109.0110012   9.7324997 112.9079988 108.4939216  10.3727238 113.1896917
 101.1030012  14.8374997 109.3709988 101.6300012  15.6104997 109.1709988
 100.2230012  15.0624997 109.0689988 101.0562031  14.9737545 109.3027912
  96.8580012   9.6994997 103.9579988  97.4740012  10.3264997 104.3379988
  95.9960012  10.0154997 104.2299988  96.8257698   9.8279430 104.0467183
 102.5300012  12.5004997 108.9469988 102.2890012  13.4254997 108.9889988
 101.7890012  12.0414997 109.3439988 102.3969225  12.5650933 109.0063742
 103.0450012  16.6494997 115.2629988 103.4070012  17.5044997 115.0289988
 103.5760012  16.3574997 116.0029988 103.1664473  16.7271060 115.3310855
 101.2130012  17.5224997 108.4929988 100.2630012  17.6274997 108.5439988
 101.5650012  18.3424997 108.8369988 101.1304195  17.6478800 108.5465502
 106.5890012  12.7484997 114.9629988 106.1630012  12.5214997 115.7899988
 107.1690012  12.0104997 114.7809988 106.6091868  12.6175299 115.0515830
 109.2470012  17.3004997 117.4329988 108.6460012  16.7454997 116.9369988
 109.5290012  17.9674997 116.8059988 109.2028804  17.3146625 117.2804849
  97.3700012   4.5334997 116.8399988  96.4770012   4.8724997 116.7719988
  97.2710012   3.6784997 117.2579988  97.2344164   4.4642588 116.8872235
 109.6580012  12.3504997 106.2639988 109.3800012  11.6224997 106.8199988
 110.5850012  12.4694997 106.4689988 109.7453124  12.2668802 106.3678845
  97.0210012  16.3384997 115.2749988  97.2380012  15.4064997 115.2439988
  97.2670012  16.6124997 116.1579988  97.0839549  16.2480636 115.3901763
  98.2730012  11.6124997 105.4509988  97.5870012  11.9644997 106.0179988
  98.7950012  12.3754997 105.2039988  98.2496852  11.7638578 105.4952118
 106.1040012   4.2744997 115.7299988 106.8030012   4.3484997 116.3799988
 105.7230012   3.4104997 115.8839988 106.1481767   4.1677624 115.8398322
 106.8890012   3.9264997 106.8269988 107.1090012   4.3984997 106.0239988
 107.4470012   4.3214997 107.4969988 106.9944968   4.0444285 106.8077331
 104.0890012   5.6544997 107.6619988 104.9010012   6.1594997 107.7079988
 103.8440012   5.5094997 108.5759988 104.1670520   5.7040375 107.7918517
 104.6240012   6.6404997 116.8459988 104.7430012   7.2144997 117.6039988
 105.2800012   5.9524997 116.9609988 104.7289025   6.6259858 116.9651321
 104.9720012   2.7354997 108.5999988 104.6260012   3.3534997 109.2439988
 105.6310012   3.2364997 108.1179988 105.0136968   2.8876278 108.6229383
 100.6300012   3.7984997 105.2869988 100.5470012   4.6874997 105.6339988
 101.5200012   3.5334997 105.5189988 100.7389469   3.8841430 105.3657626
 110.8290012   4.5474997 117.6809988 109.9120012   4.8104997 117.5939988
 111.1640012   4.5444997 116.7849988 110.7488613   4.5830761 117.5478837
 109.4310012   8.2984997 111.7769988 108.6330012   7.8834997 111.4489988
 109.8760012   7.6074997 112.2679988 109.3819885   8.1483543 111.7984889
  97.2050012   6.8904997 103.4639988  97.1600012   7.8294997 103.6419988
  96.3170012   6.6544997 103.1939988  97.0788574   6.9871892 103.4518912
 110.5170012  17.5544997 113.3999988 110.3620012  18.2324997 112.7419988
 111.4500012  17.6264997 113.6029988 110.6218657  17.6569546 113.3374360
  98.0130012   1.6724997 112.1369988  97.7840012   1.7314997 111.2089988
  97.5700012   0.8804997 112.4429988  97.9218530   1.5735753 112.0514786
  96.9430012  15.6124997 108.2969988  96.1110012  16.0854997 108.3239988
  97.4890012  16.1224997 107.6989988  96.9030352  15.7461332 108.2198463
  96.2310012  18.2254997 119.6269988  96.7720012  18.0084997 120.3869988
  95.7500012  17.4194997 119.4369988  96.2399951  18.0869270 119.7052576
 100.8290012  17.1444997 121.2469988 101.5960012  16.6854997 121.5879988
 100.8070012  16.9184997 120.3179988 100.9311275  17.0510186 121.1680101
 107.4060012  15.5244997 119.9769988 107.0550012  14.6684997 120.2199988
 108.1320012  15.6674997 120.5839988 107.4560769  15.4265636 120.0923619
 109.5250012  16.4694997 102.8559988 109.8080012  15.6754997 103.3089988
 110.2650012  16.7024997 102.2959988 109.6638006  16.3923376 102.8422715
  96.1380012  12.0354997 120.5809988  96.2820012  11.1334997 120.2949988
  95.3660012  12.3214997 120.0939988  96.0532753  11.9506816 120.4759505
 102.7940012  12.0054997 120.0139988 102.4650012  12.2764997 119.1569988
 102.9460012  11.0644997 119.9269988 102.7694809  11.9153862 119.8848244
 108.5280012  11.9214997 117.3969988 109.2740012  12.5094997 117.2779988
 107.7710012  12.5034997 117.4609988 108.5277820  12.0807143 117.3893590
  96.9710012   9.2354997 120.0009988  97.3790012   8.3784997 119.8799988
  96.7110012   9.2504997 120.9219988  96.9917568   9.1200807 120.1089588
 100.9180012   8.2444997 117.3759988 100.3000012   8.9194997 117.6559988
 101.2620012   8.5654997 116.5419988 100.8799132   8.3802411 117.3016262
 105.9380012  10.7164997 120.6529988 106.8910012  10.7994997 120.6259988
 105.7770012  10.0044997 121.2729988 106.0466426  10.6316746 120.7330579
 101.2570012   5.5994997 118.4579988 101.4070012   4.8704997 117.8559988
 101.2600012   6.3764997 117.8989988 101.2779302   5.6047851 118.3000692
 101.6700012   3.9694997 115.9509988 102.2060012   4.4204997 115.2989988
 100.8180012   3.8614997 115.5279988 101.6282178   4.0166390 115.8045756
 103.2520012   9.4084997 116.1899988 104.0020012   9.2524997 115.6169988
 102.9130012  10.2604997 115.9149988 103.3088921   9.5022968 116.0743561
 107.6670012   7.2234997 121.2189988 107.8600012   6.2924997 121.1069988
 108.5250012   7.6484997 121.2079988 107.8092934   7.1536531 121.2022031
 108.9840012  10.0124997 119.2959988 108.7030012  10.7214997 118.7179988
 109.9270012   9.9394997 119.1449988 109.0729291  10.0996711 119.1964967
  99.7360012   6.7974997 120.3699988  98.9690012   6.2654997 120.1589988
 100.4150012   6.4874997 119.7699988  99.7227877   6.6828300 120.2600716
 102.4760012   1.4254997 116.3819988 102.3770012   2.3724997 116.2769988
 101.7330012   1.0534997 115.9059988 102.3621184   1.5045863 116.3033621
 103.7400012   5.7474997 119.9459988 103.5040012   5.5274997 120.8469988
 102.9560012   5.5404997 119.4359988 103.6018504   5.6894586 120.0003431
 106.4550012   4.8744997 119.0209988 105.5080012   4.9064997 119.1539988
 106.7680012   4.2494997 119.6749988 106.3676707   4.7943998 119.1276060
 108.0890012   3.5084997 121.0269988 107.9930012   2.5564997 121.0209988
 107.7680012   3.7774997 121.8869988 108.0324070   3.4144035 121.1425441
  97.9160012   4.7184997 120.0739988  98.1280012   4.0114997 119.4639988
  97.8050012   4.2804997 120.9179988  97.9299721   4.5627084 120.1046843
 102.6970012   0.7194997 119.0529988 103.4090012   0.0794997 119.0389988
 102.5960012   0.9864997 118.1399988 102.7808066   0.6680079 118.9275677
 103.0510012   2.4024997 121.1069988 102.9190012   1.9264997 120.2869988
 102.4520012   3.1464997 121.0519988 102.9519071   2.4379618 120.9872886
  94.8150012  19.3144997 108.8439988  94.1680012  18.8524997 108.3109988
  95.1690012  18.6424997 109.4259988  94.7743849  19.1604723 108.8497959
  95.6850012  17.3954997 110.6479988  95.3500012  16.5154997 110.8199988
  95.9070012  17.7404997 111.5129988  95.6691783  17.3217500 110.7884208
 113.2330012  18.2044997 113.6289988 113.2120012  18.3894997 114.5679988
 113.9240012  18.7734997 113.2879988 113.3234618  18.3066606 113.7113864
 112.7970012  17.7724997 116.5509988 112.3090012  17.0364997 116.1789988
 113.3460012  17.3784997 117.2289988 112.8044820  17.6185889 116.5917813
 111.2470012  13.5614997 121.1889988 110.3810012  13.4564997 121.5829988
 111.6240012  14.3204997 121.6349988 111.1793308  13.6496900 121.3032393
 112.5480012  11.8184997 106.7029988 113.3980012  12.2394997 106.8299988
 112.5540012  11.0784997 107.3099988 112.6651372  11.7760803 106.8024344
 112.9430012   9.8714997 108.5259988 112.2160012   9.3924997 108.9239988
 113.5240012  10.0774997 109.2589988 112.9220473   9.8338103 108.6794528
 112.7020012  12.6564997 113.4739988 113.5350012  12.2784997 113.1939988
 112.8140012  13.5994997 113.3549988 112.8312647  12.7322218 113.4195487
 111.1880012  15.5344997 115.7809988 110.5410012  15.8594997 116.4069988
 110.6710012  15.0944997 115.1069988 111.0294029  15.5195004 115.7755827
 110.7290012   8.3924997 109.0889988 110.5790012   7.4474997 109.0689988
 110.3760012   8.6734997 109.9329988 110.6607448   8.3011481 109.2003705
  95.7650012  10.4704997 113.0999988  95.9490012  10.3884997 112.1639988
  96.6140012  10.3464997 113.5229988  95.9050151  10.4425073 113.0291451
 111.5860012  10.3624997 118.7279988 112.1690012   9.6284997 118.9199988
 112.1500012  11.1344997 118.7749988 111.7419769  10.3664227 118.7606159
 113.0820012   8.2654997 119.4129988 112.2190012   7.8864997 119.2469988
 113.6870012   7.5264997 119.3379988 113.0456119   8.1138268 119.3801528
 110.4400012   5.9754997 107.5519988 110.7200012   5.0684997 107.6759988
 111.1990012   6.4094997 107.1629988 110.5809277   5.9100942 107.5163682
 111.0520012   6.5564997 112.9879988 111.9850012   6.7684997 112.9529988
 110.8170012   6.6584997 113.9099988 111.1479244   6.5993100 113.1078892
 111.0810012   7.2934997 115.7639988 110.2380012   7.5614997 116.1299988
 111.5230012   8.1154997 115.5529988 111.0254158   7.4413291 115.7855491
  95.3620012   5.7414997 119.2409988  96.2820012   5.6194997 119.4769988
  94.9130012   4.9914997 119.6299988  95.4271580   5.6233727 119.3259006
 113.3640012   1.2734997 121.1169988 113.7140012   0.6194997 120.5119988
 113.5110012   2.1104997 120.6769988 113.4317887   1.2971548 120.9746858
 111.0530012   3.2384997 107.5999988 111.2360012   2.7894997 108.4259988
 110.4540012   2.6534997 107.1369988 110.9970202   3.0979975 107.6503275
  96.5830012   4.0534997 112.1319988  97.0290012   3.2614997 112.4339988
  97.0500012   4.7694997 112.5619988  96.7070831   4.0420685 112.2314006
  94.8870012   7.0524997 113.2009988  95.3790012   6.8314997 112.4099988
  95.2500012   7.8934997 113.4819988  95.0033126   7.1358357 113.1307531
 112.8840012   3.3824997 119.4659988 111.9660012   3.6534997 119.4309988
 113.0070012   2.8474997 118.6819988 112.7749729   3.3472508 119.3551923
  95.2010012   3.3104997 107.2549988  94.2760012   3.5194997 107.1259988
  95.6550012   3.7944997 106.5649988  95.1357292   3.4045343 107.1440720
 109.9720012  18.2944997 109.2009988 110.6240012  17.9474997 108.5929988
 110.4820012  18.7834997 109.8469988 110.1302637  18.3130597 109.2050236
  95.1650012   2.0484997 115.5989988  94.5000012   1.8024997 116.2429988
  94.7220012   2.6704997 115.0219988  95.0141318   2.0989410 115.6090898
  97.3570012  15.2234997 119.7439988  96.5360012  15.3984997 119.2829988
  97.1040012  15.1504997 120.6639988  97.2105585  15.2375544 119.8053561
 100.3110012  16.1984997 116.0019988  99.8860012  17.0074997 115.7199988
 101.2150012  16.2834997 115.6999988 100.3749975  16.3209300 115.9224816
 104.6220012  17.5974997 118.9619988 104.8070012  17.2634997 119.8399988
 105.4680012  17.9064997 118.6399988 104.7617539  17.5936047 119.0385605
 106.9670012  18.8834997 118.2059988 107.6440012  18.2504997 117.9659988
 107.2890012  19.2844997 119.0129988 107.1031637  18.8511154 118.2822793
 111.8840012   1.4724997 117.2849988 111.0720012   1.7974997 116.8979988
 112.1170012   0.7124997 116.7519988 111.8042203   1.4142758 117.1598880
  97.7130012  19.4544997 116.0499988  96.9920012  19.8944997 115.5989988
  97.3470012  19.2034997 116.8979988  97.5649651  19.4807242 116.1029640
 100.1800012  19.0544997 115.0799988  99.3150012  19.1264997 115.4839988
 100.1250012  19.6014997 114.2959988 100.0542085  19.1382685 115.0293362
 104.8900012  18.9424997 114.2549988 104.4340012  19.4714997 113.6009988
 105.0530012  19.5454997 114.9799988 104.8496068  19.0964607 114.2634838
 107.2180012  17.8204997 115.1999988 106.3130012  17.9854997 114.9339988
 107.6470012  18.6734997 115.1349988 107.1521324  17.9584339 115.1547976
 109.8220012  19.3904997 115.4949988 109.6400012  20.3064997 115.2849988
 109.9990012  18.9804997 114.6489988 109.8210210  19.4604822 115.3517885
  97.1270012  18.0774997 112.9599988  97.1090012  17.6524997 113.8169988
  97.9320012  17.7594997 112.5509988  97.2333529  17.9763013 113.0220946
  99.2690012  16.7874997 111.6149988  99.0500012  15.8714997 111.7849988
 100.0930012  16.9274997 112.0809988  99.3504420  16.6810520 111.7012774
 101.8060012  17.2574997 112.4639988 102.0190012  16.3694997 112.1769988
 101.8700012  17.2234997 113.4179988 101.8438232  17.1313102 112.5537397
 105.3140012   2.9214997 111.6079988 104.6400012   2.2924997 111.8639988
 105.8780012   2.4374997 111.0049988 105.2979230   2.7698744 111.5615340
 110.4570012   1.0294997 111.7209988 111.0610012   1.5764997 111.2189988
 109.5870012   1.3484997 111.4799988 110.4221208   1.1475137 111.6196886
 112.1840012   2.1674997 110.0539988 112.7960012   1.6534997 109.5269988
 112.5660012   3.0454997 110.0769988 112.3193371   2.2157866 109.9850041
  97.6410012   1.5554997 109.4299988  96.8640012   1.3214997 108.9229988
  98.1710012   0.7584997 109.4389988  97.6062330   1.4156988 109.3617742
  96.4770012   1.3534997 105.2339988  96.9160012   1.9644997 104.6419988
  95.8440012   1.8914997 105.7079988  96.4514514   1.5099257 105.2170930
 102.2200012   1.4824997 109.2439988 103.0950012   1.8704997 109.2139988
 102.0840012   1.2674997 110.1659988 102.3213695   1.5065184 109.3646440
 107.7770012   1.5124997 110.8929988 107.8530012   1.6074997 109.9429988
 107.5020012   0.6044997 111.0219988 107.7502321   1.4027867 110.7805079
  96.3780012  17.3014997 106.1309988  95.6930012  17.2634997 105.4639988
  96.3820012  18.2144997 106.4199988  96.2846998  17.4196733 106.0786771
 103.3640012   3.5624997 106.1329988 103.5420012   2.9164997 106.8159988
 103.3110012   4.3964997 106.5999988 103.3811999   3.5868009 106.2895917
 105.2430012  18.5114997 104.5289988 106.1090012  18.8774997 104.3509988
 104.9960012  18.0714997 103.7149988 105.3282392  18.5021756 104.3946289
 111.9520012  18.0744997 107.2079988 111.7570012  17.3264997 106.6429988
 111.9130012  18.8324997 106.6249988 111.9200380  18.0746099 107.0518384
  97.5990012   2.0694997 118.9479988  97.2330012   1.3044997 119.3899988
  98.5120012   2.0984997 119.2339988  97.6722736   1.9685640 119.0472502
  99.5720012   1.4204997 120.4839988 100.4700012   1.1464997 120.2989988
  99.1850012   0.6774997 120.9479988  99.6426612   1.2825914 120.5213643
  98.1960012  18.2214997 103.1569988  97.9290012  18.5084997 104.0299988
  98.9680012  17.6754997 103.3089988  98.2637488  18.1870294 103.2971050
 107.9930012   0.7524997 120.6659988 108.0700012   0.3264997 121.5199988
 108.8870012   0.7664997 120.3229988 108.1243428   0.6960879 120.7365310
 111.1690012  16.8254997 119.3579988 110.3870012  16.6394997 118.8379988
 111.0970012  17.7544997 119.5759988 111.0522274  16.9256643 119.3163018
 125.5750012  10.7114997 109.3889988 125.6640012  11.6554997 109.2569988
 124.9370012  10.4364997 108.7309988 125.5009081  10.8034830 109.2819614
 124.5080012   9.9664997 112.8079988 124.4700012   9.3204997 113.5129988
 124.1860012   9.5004997 112.0369988 124.4592333   9.8149408 112.8002978
 116.8770012   9.5814997 114.4009988 116.9180012   8.9554997 115.1239988
 117.5800012  10.2054997 114.5829988 116.9776363   9.5801196 114.5246044
 128.2140012  12.9054997 111.1089988 127.7740012  12.1854997 111.5599988
 128.2010012  13.6264997 111.7389988 128.1520226  12.9043731 111.2558494
 117.8000012  14.0314997 112.9359988 117.4310012  13.2294997 112.5659988
 118.7410012  13.8624997 112.9819988 117.8767289  13.8990153 112.8916316
 114.4100012   7.6914997 108.3289988 113.9630012   8.5374997 108.3099988
 113.8490012   7.1114997 107.8129988 114.2729900   7.7289916 108.2566801
 115.1210012   9.8534997 110.4539988 115.3340012   9.0834997 110.9819988
 115.8590012   9.9424997 109.8509988 115.2499044   9.7601968 110.4447123
 125.3260012  18.0104997 111.3209988 125.9460012  17.3334997 111.0479988
 125.1180012  17.7924997 112.2299988 125.3826726  17.8884800 111.4064812
 122.8980012  12.3994997 113.2139988 123.2020012  11.7134997 112.6189988
 123.6190012  12.5174997 113.8319988 123.0370671  12.3216305 113.2161816
 131.5610012   4.0004997 114.0749988 131.6100012   4.6104997 114.8099988
 131.9860012   4.4614997 113.3519988 131.6251746   4.1463796 114.0779175
 126.0390012   6.7934997 113.5409988 126.1810012   5.8474997 113.5619988
 125.9320012   7.0004997 112.6129988 126.0439919   6.6918246 113.4183408
 119.1930012   4.8944997 110.8139988 119.2370012   5.7544997 110.3949988
 118.7360012   4.3424997 110.1799988 119.1372240   4.9374422 110.6709864
 126.9160012   5.0254997 109.2149988 127.5620012   4.6964997 109.8389988
 127.4260012   5.5434997 108.5919988 127.0734299   5.0504450 109.2162731
 115.8140012   7.2914997 111.5759988 116.4670012   6.7414997 112.0079988
 115.8380012   7.0174997 110.6589988 115.9066683   7.1791466 111.5112123
 120.9700012   8.8414997 110.7909988 121.5860012   8.3154997 111.3009988
 120.3840012   8.2014997 110.3879988 120.9750810   8.6829208 110.8063173
 131.9520012   5.4784997 116.3099988 131.2640012   6.1364997 116.2149988
 131.9680012   5.2814997 117.2469988 131.8599540   5.5419819 116.4235990
 118.0040012   3.8124997 114.8879988 117.7850012   4.3424997 114.1219988
 117.3360012   4.0394997 115.5349988 117.8837600   3.9156906 114.8706379
 125.3730012  13.3124997 108.4319988 125.0770012  12.9904997 107.5809988
 125.0480012  14.2124997 108.4729988 125.2886371  13.3900215 108.3211801
 120.5730012  11.4884997 115.1749988 119.8330012  12.0864997 115.2789988
 121.2870012  12.0424997 114.8599988 120.5682237  11.6452831 115.1466465
 128.6800012   4.3164997 111.1949988 128.4640012   3.5504997 111.7279988
 129.3350012   4.7884997 111.7079988 128.7390632   4.2755889 111.3372861
 117.5970012   5.7044997 112.8399988 118.2110012   6.3374997 113.2129988
 118.1090012   5.2324997 112.1839988 117.7501981   5.7272267 112.8022908
 118.9800012  13.4524997 115.9619988 118.9750012  14.3324997 115.5839988
 118.1270012  13.3694997 116.3869988 118.8639464  13.5616117 115.9677907
 115.1010012  13.1234997 106.7439988 114.8290012  13.3524997 105.8559988
 115.1470012  13.9614997 107.2049988 115.0699482  13.2681318 106.6846273
 128.7260012  14.7454997 113.4569988 127.7850012  14.8034997 113.6189988
 129.0030012  15.6514997 113.3199988 128.6344679  14.8759443 113.4606815
 129.0270012   3.0314997 114.8749988 128.2910012   3.6424997 114.8369988
 129.7100012   3.4464997 114.3479988 129.0186541   3.1711374 114.7985832
 122.0300012   1.1184997 112.3399988 121.9130012   0.1694997 112.2859988
 121.1750012   1.4504997 112.6139988 121.8984212   1.0335571 112.3696497
 126.9780012  16.5264997 110.0819988 127.4040012  15.8194997 109.5969988
 127.2950012  17.3274997 109.6659988 127.0791683  16.5381017 109.9593680
 128.1380012  14.4274997 108.5909988 127.8800012  13.7374997 107.9799988
 128.2090012  13.9844997 109.4369988 128.1122856  14.2732124 108.6216885
 129.8240012  12.9934997 117.0679988 129.9640012  12.4024997 116.3289988
 129.9910012  13.8664997 116.7119988 129.8657411  13.0305428 116.9186894
 124.2970012   9.9554997 106.8409988 123.5850012  10.4904997 106.4889988
 124.9880012  10.0114997 106.1809988 124.2930132  10.0362543 106.7036289
 124.3500012   8.4134997 103.8799988 125.0510012   8.4354997 104.5309988
 124.6530012   7.7854997 103.2229988 124.4868133   8.3317070 103.8803369
 131.6660012   9.3334997 115.1339988 131.0130012  10.0284997 115.2239988
 132.1310012   9.5434997 114.3249988 131.6395274   9.4570643 115.0368462
 127.7020012  10.1654997 107.7929988 126.9700012  10.3934997 108.3659988
 128.1500012   9.4514997 108.2469988 127.6622725  10.1002145 107.9328816
 127.6000012   8.3394997 116.8599988 127.6800012   9.1024997 117.4319988
 126.9980012   8.6184997 116.1699988 127.5295756   8.4817134 116.8450589
 119.3480012  10.7954997 109.6749988 119.0170012  10.4254997 108.8569988
 119.9360012  10.1254997 110.0219988 119.3821873  10.6541156 109.6098102
 120.7140012  14.2234997 112.3559988 120.6200012  13.6454997 111.5999988
 121.4440012  13.8524997 112.8529988 120.7997387  14.0941663 112.3195342
 119.7140012   9.5644997 113.3089988 120.2800012   9.6854997 112.5459988
 120.0330012  10.2014997 113.9469988 119.8345474   9.6672219 113.2909862
 126.0230012  15.0674997 114.0429988 125.7830012  15.7294997 114.6909988
 125.8250012  14.2334997 114.4679988 125.9633808  15.0453134 114.1891524
 120.5940012  13.9634997 118.0259988 120.2830012  14.7454997 118.4809988
 119.9440012  13.8104997 117.3399988 120.4635558  14.0499105 117.9955871
 126.5730012   9.3274997 105.4779988 127.1530012   9.4774997 106.2249988
 126.9870012   9.7984997 104.7539988 126.7082997   9.4116578 105.4824058
 117.5140012  10.1614997 117.2539988 117.5850012  10.8124997 117.9529988
 116.6240012  10.2644997 116.9189988 117.4033005  10.2645427 117.3043495
 124.3000012  16.0644997 108.9129988 124.7740012  16.3594997 109.6899988
 123.7370012  16.8024997 108.6799988 124.2888184  16.2047247 108.9879628
 118.8340012  16.0354997 118.7889988 118.8410012  15.8994997 117.8419988
 117.9180012  15.9174997 119.0409988 118.7111714  16.0009430 118.6934666
 130.2720012   1.0774997 105.2909988 129.3720012   1.2164997 105.5859988
 130.5240012   1.9084997 104.8889988 130.1828702   1.2089074 105.2770205
 118.3380012   9.8654997 107.2639988 118.0460012  10.6334997 106.7739988
 117.6640012   9.2054997 107.1019988 118.2068111   9.8815587 107.1748978
 114.4310012  12.2284997 116.0789988 113.9300012  12.2004997 115.2639988
 114.4360012  11.3224997 116.3889988 114.3630944  12.1022396 116.0093226
 114.1810012  15.0084997 112.9629988 115.1270012  14.8644997 112.9439988
 114.0690012  15.7924997 113.4999988 114.2952727  15.0948046 113.0330072
 132.3790012  15.6744997 118.6459988 132.3300012  14.7194997 118.6089988
 131.5520012  15.9424997 119.0469988 132.2604940  15.5798998 118.6951375
 123.3580012  15.2484997 117.5219988 123.4450012  16.0744997 117.9969988
 122.4940012  14.9184997 117.7709988 123.2531964  15.3169878 117.6206549
 123.7720012  19.0204997 107.3279988 123.6970012  18.8994997 106.3809988
 123.8050012  19.9704997 107.4459988 123.7662068  19.1322646 107.2144967
 117.4250012  17.8094997 109.1089988 117.5780012  17.4614997 109.9869988
 116.5750012  17.4534997 108.8539988 117.3309166  17.7136216 109.1948079
 126.5430012  18.1004997 107.0789988 125.6070012  18.2004997 107.2579988
 126.8230012  17.3914997 107.6579988 126.4529553  18.0183406 107.1817087
 129.5310012   7.1674997 119.1259988 129.1240012   7.6484997 118.4049988
 129.5720012   6.2624997 118.8179988 129.4808437   7.1109374 118.9856683
 116.6800012  13.5514997 117.1229988 116.8960012  13.1904997 117.9819988
 115.8250012  13.1774997 116.9129988 116.5939292  13.4514111 117.2123386
 119.2990012   2.0214997 113.1179988 118.4370012   1.9344997 112.7099988
 119.2760012   2.8774997 113.5459988 119.1780409   2.1252883 113.1200589
 123.9620012   1.7434997 116.4929988 124.3820012   1.3284997 117.2459988
 123.0290012   1.5654997 116.6099988 123.8933644   1.6625900 116.6119539
 127.2880012   5.4994997 117.3459988 126.7740012   5.3734997 118.1439988
 127.1330012   6.4114997 117.1019988 127.1966852   5.6056132 117.4222158
 119.3900012   6.9874997 114.2129988 118.7480012   6.9464997 114.9219988
 119.4270012   7.9134997 113.9749988 119.3070664   7.1071430 114.2779219
 119.3870012   7.2084997 109.1249988 118.4940012   6.8674997 109.0659988
 119.8370012   6.8314997 108.3689988 119.3258130   7.1109631 109.0147702
 124.9220012   7.6244997 107.9419988 124.5130012   8.4394997 107.6509988
 125.6430012   7.4844997 107.3279988 124.9634537   7.7172018 107.8191342
 124.0240012   7.7994997 119.4299988 123.4620012   7.0954997 119.7509988
 124.8510012   7.6794997 119.8979988 124.0587095   7.6867883 119.5372330
 125.9270012   7.0704997 110.7559988 125.7320012   7.6754997 110.0409988
 126.1080012   6.2364997 110.3219988 125.9247614   7.0406300 110.5994405
 117.1400012   7.3074997 116.0799988 117.1020012   7.7074997 116.9489988
 116.6490012   6.4904997 116.1709988 117.0684684   7.2518069 116.2111059
 120.5060012   4.6814997 102.8789988 120.0750012   4.2364997 103.6089988
 119.7880012   5.0534997 102.3669988 120.3499438   4.6708940 102.9096799
 113.7480012   4.4234997 109.9309988 114.3790012   4.3944997 110.6499988
 114.1970012   3.9984997 109.1999988 113.8950918   4.3620836 109.9306441
 115.0220012   5.1694997 105.3549988 115.4960012   5.7604997 104.7699988
 114.3050012   5.7004997 105.7019988 114.9899341   5.3220867 105.3218836
 125.1910012   8.7084997 115.4269988 125.5140012   8.0774997 114.7839988
 124.7510012   8.1734997 116.0879988 125.1757484   8.5498387 115.4283198
 121.9680012   4.6354997 110.2109988 121.0570012   4.6924997 110.4999988
 122.4740012   4.5754997 111.0219988 121.9116899   4.6351941 110.3601184
 116.7970012   6.2644997 109.0379988 115.9070012   6.3644997 108.6979988
 117.0930012   5.4224997 108.6919988 116.7152823   6.1643545 108.9447213
 120.4500012   6.2644997 106.6949988 121.3810012   6.3934997 106.8729988
 120.2350012   6.9344997 106.0449988 120.5484247   6.3726565 106.6315747
 126.3730012   3.8704997 113.4759988 125.6970012   4.0014997 114.1399988
 125.8880012   3.7154997 112.6649988 126.2147146   3.8675157 113.4574469
 129.6610012  19.5424997 119.7519988 129.8610012  19.9664997 118.9179988
 130.3160012  19.8854997 120.3589988 129.7770072  19.6469857 119.7198592
 117.2590012  12.0164997 119.3599988 117.9910012  12.2704997 119.9219988
 116.4790012  12.2204997 119.8759988 117.2537073  12.0788160 119.5066151
 123.2880012   7.4234997 112.0979988 123.8530012   6.8764997 111.5509988
 123.1410012   6.9014997 112.8869988 123.3453380   7.2782259 112.1298695
 118.2900012   3.5594997 108.5169988 117.9730012   2.6574997 108.4809988
 119.0720012   3.5614997 107.9639988 118.3522408   3.4362474 108.4373569
 121.9150012   5.8114997 114.5119988 121.0790012   6.2654997 114.6229988
 122.4390012   6.0874997 115.2639988 121.8715416   5.9108660 114.6288119
 129.6090012  11.1574997 114.9839988 130.2510012  11.6144997 114.4399988
 128.7790012  11.2704997 114.5209988 129.5845963  11.2352704 114.8470177
 123.9780012  12.2084997 117.4339988 123.6330012  11.8274997 118.2409988
 123.7780012  13.1424997 117.5049988 123.9037527  12.2825135 117.5540689
 127.0750012   6.7054997 106.0569988 127.9670012   6.5684997 106.3759988
 127.1320012   7.4964997 105.5199988 127.2046504   6.7936052 106.0280818
 117.5840012  11.3194997 111.9669988 118.3290012  11.3174997 111.3659988
 117.6620012  10.4964997 112.4479988 117.6964995  11.2078887 111.9498282
 114.5920012   9.7804997 117.2819988 114.8150012   9.3624997 118.1139988
 113.9900012   9.1674997 116.8589988 114.5411759   9.6404668 117.3387022
 121.6080012   9.2974997 119.4949988 121.3120012   9.1314997 118.5999988
 122.5400012   9.0774997 119.4839988 121.6934166   9.2450640 119.3710536
 126.2290012  14.6704997 117.3849988 125.3280012  14.8534997 117.1169988
 126.2630012  14.9294997 118.3049988 126.1103139  14.7305849 117.4728099
 131.9600012   6.9154997 105.7519988 131.4060012   6.5194997 105.0799988
 132.0600012   7.8254997 105.4739988 131.8977059   6.9843586 105.6224401
 131.9230012  12.7154997 118.5889988 131.0720012  12.9534997 118.2219988
 132.5140012  12.6984997 117.8359988 131.8862487  12.7458258 118.4368893
 130.2550012  15.7014997 106.2169988 129.8820012  14.8754997 106.5259988
 130.5330012  15.5184997 105.3189988 130.2415222  15.5637430 106.1379473
 127.4160012  10.5094997 113.2379988 126.4870012  10.2774997 113.2109988
 127.8670012   9.7324997 112.9079988 127.3499216  10.3727238 113.1896917
 119.9590012  14.8374997 109.3709988 120.4860012  15.6104997 109.1709988
 119.0790012  15.0624997 109.0689988 119.9122031  14.9737545 109.3027912
 121.3860012  12.5004997 108.9469988 121.1450012  13.4254997 108.9889988
 120.6450012  12.0414997 109.3439988 121.2529225  12.5650933 109.0063742
 121.9010012  16.6494997 115.2629988 122.2630012  17.5044997 115.0289988
 122.4320012  16.3574997 116.0029988 122.0224473  16.7271060 115.3310855
 120.0690012  17.5224997 108.4929988 119.1190012  17.6274997 108.5439988
 120.4210012  18.3424997 108.8369988 119.9864195  17.6478800 108.5465502
 125.4450012  12.7484997 114.9629988 125.0190012  12.5214997 115.7899988
 126.0250012  12.0104997 114.7809988 125.4651868  12.6175299 115.0515830
 127.6480012  13.6774997 104.0369988 128.0010012  13.2974997 104.8409988
 126.6990012  13.5844997 104.1239988 127.5680918  13.6128956 104.1588532
 128.1030012  17.3004997 117.4329988 127.5020012  16.7454997 116.9369988
 128.3850012  17.9674997 116.8059988 128.0588804  17.3146625 117.2804849
 116.2260012   4.5334997 116.8399988 115.3330012   4.8724997 116.7719988
 116.1270012   3.6784997 117.2579988 116.0904164   4.4642588 116.8872235
 128.5140012  12.3504997 106.2639988 128.2360012  11.6224997 106.8199988
 129.4410012  12.4694997 106.4689988 128.6013124  12.2668802 106.3678845
 115.8770012  16.3384997 115.2749988 116.0940012  15.4064997 115.2439988
 116.1230012  16.6124997 116.1579988 115.9399549  16.2480636 115.3901763
 117.1290012  11.6124997 105.4509988 116.4430012  11.9644997 106.0179988
 117.6510012  12.3754997 105.2039988 117.1056852  11.7638578 105.4952118
 124.9600012   4.2744997 115.7299988 125.6590012   4.3484997 116.3799988
 124.5790012   3.4104997 115.8839988 125.0041767   4.1677624 115.8398322
 123.4130012  16.0574997 105.6899988 122.5970012  16.5544997 105.7419988
 123.9430012  16.5324997 105.0499988 123.3729161  16.1897722 105.6105956
 122.9450012   5.6544997 107.6619988 123.7570012   6.1594997 107.7079988
 122.7000012   5.5094997 108.5759988 123.0230520   5.7040375 107.7918517
 123.4800012   6.6404997 116.8459988 123.5990012   7.2144997 117.6039988
 124.1360012   5.9524997 116.9609988 123.5849025   6.6259858 116.9651321
 123.8280012   2.7354997 108.5999988 123.4820012   3.3534997 109.2439988
 124.4870012   3.2364997 108.1179988 123.8696968   2.8876278 108.6229383
 120.7520012  17.1014997 105.6709988 120.9120012  17.9004997 105.1709988
 120.5540012  17.4074997 106.5559988 120.7471637  17.2524020 105.7221144
 119.4860012   3.7984997 105.2869988 119.4030012   4.6874997 105.6339988
 120.3760012   3.5334997 105.5189988 119.5949469   3.8841430 105.3657626
 129.6850012   4.5474997 117.6809988 128.7680012   4.8104997 117.5939988
 130.0200012   4.5444997 116.7849988 129.6048613   4.5830761 117.5478837
 128.2870012   8.2984997 111.7769988 127.4890012   7.8834997 111.4489988
 128.7320012   7.6074997 112.2679988 128.2379885   8.1483543 111.7984889
 129.3730012  17.5544997 113.3999988 129.2180012  18.2324997 112.7419988
 130.3060012  17.6264997 113.6029988 129.4778657  17.6569546 113.3374360
 116.8690012   1.6724997 112.1369988 116.6400012   1.7314997 111.2089988
 116.4260012   0.8804997 112.4429988 116.7778530   1.5735753 112.0514786
 115.7990012  15.6124997 108.2969988 114.9670012  16.0854997 108.3239988
 116.3450012  16.1224997 107.6989988 115.7590352  15.7461332 108.2198463
 115.0870012  18.2254997 119.6269988 115.6280012  18.0084997 120.3869988
 114.6060012  17.4194997 119.4369988 115.0959951  18.0869270 119.7052576
 119.6850012  17.1444997 121.2469988 120.4520012  16.6854997 121.5879988
 119.6630012  16.9184997 120.3179988 119.7871275  17.0510186 121.1680101
 126.2620012  15.5244997 119.9769988 125.9110012  14.6684997 120.2199988
 126.9880012  15.6674997 120.5839988 126.3120769  15.4265636 120.0923619
 128.3810012  16.4694997 102.8559988 128.6640012  15.6754997 103.3089988
 129.1210012  16.7024997 102.2959988 128.5198006  16.3923376 102.8422715
 114.9940012  12.0354997 120.5809988 115.1380012  11.1334997 120.2949988
 114.2220012  12.3214997 120.0939988 114.9092753  11.9506816 120.4759505
 119.3360012  12.3794997 102.7139988 119.4000012  11.5854997 103.2449988
 119.9890012  12.2604997 102.0239988 119.4330241  12.2547148 102.6934317
 121.6500012  12.0054997 120.0139988 121.3210012  12.2764997 119.1569988
 121.8020012  11.0644997 119.9269988 121.6254809  11.9153862 119.8848244
 127.3840012  11.9214997 117.3969988 128.1300012  12.5094997 117.2779988
 126.6270012  12.5034997 117.4609988 127.3837820  12.0807143 117.3893590
 115.8270012   9.2354997 120.0009988 116.2350012   8.3784997 119.8799988
 115.5670012   9.2504997 120.9219988 115.8477568   9.1200807 120.1089588
 119.7740012   8.2444997 117.3759988 119.1560012   8.9194997 117.6559988
 120.1180012   8.5654997 116.5419988 119.7359132   8.3802411 117.3016262
 124.7940012  10.7164997 120.6529988 125.7470012  10.7994997 120.6259988
 124.6330012  10.0044997 121.2729988 124.9026426  10.6316746 120.7330579
 120.1130012   5.5994997 118.4579988 120.2630012   4.8704997 117.8559988
 120.1160012   6.3764997 117.8989988 120.1339302   5.6047851 118.3000692
 120.5260012   3.9694997 115.9509988 121.0620012   4.4204997 115.2989988
 119.6740012   3.8614997 115.5279988 120.4842178   4.0166390 115.8045756
 122.1080012   9.4084997 116.1899988 122.8580012   9.2524997 115.6169988
 121.7690012  10.2604997 115.9149988 122.1648921   9.5022968 116.0743561
 126.5230012   7.2234997 121.2189988 126.7160012   6.2924997 121.1069988
 127.3810012   7.6484997 121.2079988 126.6652934   7.1536531 121.2022031
 127.8400012  10.0124997 119.2959988 127.5590012  10.7214997 118.7179988
 128.7830012   9.9394997 119.1449988 127.9289291  10.0996711 119.1964967
 118.5920012   6.7974997 120.3699988 117.8250012   6.2654997 120.1589988
 119.2710012   6.4874997 119.7699988 118.5787877   6.6828300 120.2600716
 121.3320012   1.4254997 116.3819988 121.2330012   2.3724997 116.2769988
 120.5890012   1.0534997 115.9059988 121.2181184   1.5045863 116.3033621
 122.5960012   5.7474997 119.9459988 122.3600012   5.5274997 120.8469988
 121.8120012   5.5404997 119.4359988 122.4578504   5.6894586 120.0003431
 125.3110012   4.8744997 119.0209988 124.3640012   4.9064997 119.1539988
 125.6240012   4.2494997 119.6749988 125.2236707   4.7943998 119.1276060
 126.9450012   3.5084997 121.0269988 126.8490012   2.5564997 121.0209988
 126.6240012   3.7774997 121.8869988 126.8884070   3.4144035 121.1425441
 116.7720012   4.7184997 120.0739988 116.9840012   4.0114997 119.4639988
 116.6610012   4.2804997 120.9179988 116.7859721   4.5627084 120.1046843
 121.5530012   0.7194997 119.0529988 122.2650012   0.0794997 119.0389988
 121.4520012   0.9864997 118.1399988 121.6368066   0.6680079 118.9275677
 121.9070012   2.4024997 121.1069988 121.7750012   1.9264997 120.2869988
 121.3080012   3.1464997 121.0519988 121.8079071   2.4379618 120.9872886
 121.4530012  19.2854997 104.2829988 122.3860012  19.4434997 104.4269988
 121.1890012  19.9604997 103.6589988 121.5449888  19.3984510 104.2182842
 113.6710012  19.3144997 108.8439988 113.0240012  18.8524997 108.3109988
 114.0250012  18.6424997 109.4259988 113.6303849  19.1604723 108.8497959
 114.5410012  17.3954997 110.6479988 114.2060012  16.5154997 110.8199988
 114.7630012  17.7404997 111.5129988 114.5251783  17.3217500 110.7884208
 132.0890012  18.2044997 113.6289988 132.0680012  18.3894997 114.5679988
 132.7800012  18.7734997 113.2879988 132.1794618  18.3066606 113.7113864
 131.6530012  17.7724997 116.5509988 131.1650012  17.0364997 116.1789988
 132.2020012  17.3784997 117.2289988 131.6604820  17.6185889 116.5917813
 130.1030012  13.5614997 121.1889988 129.2370012  13.4564997 121.5829988
 130.4800012  14.3204997 121.6349988 130.0353308  13.6496900 121.3032393
 131.4040012  11.8184997 106.7029988 132.2540012  12.2394997 106.8299988
 131.4100012  11.0784997 107.3099988 131.5211372  11.7760803 106.8024344
 131.7990012   9.8714997 108.5259988 131.0720012   9.3924997 108.9239988
 132.3800012  10.0774997 109.2589988 131.7780473   9.8338103 108.6794528
 131.5580012  12.6564997 113.4739988 132.3910012  12.2784997 113.1939988
 131.6700012  13.5994997 113.3549988 131.6872647  12.7322218 113.4195487
 130.0440012  15.5344997 115.7809988 129.3970012  15.8594997 116.4069988
 129.5270012  15.0944997 115.1069988 129.8854029  15.5195004 115.7755827
 132.0670012   9.7724997 104.9179988 131.5450012  10.1294997 104.1989988
 132.0340012  10.4474997 105.5959988 131.9911634   9.9125413 104.9113145
 129.5850012   8.3924997 109.0889988 129.4350012   7.4474997 109.0689988
 129.2320012   8.6734997 109.9329988 129.5167448   8.3011481 109.2003705
 114.6210012  10.4704997 113.0999988 114.8050012  10.3884997 112.1639988
 115.4700012  10.3464997 113.5229988 114.7610151  10.4425073 113.0291451
 130.4420012  10.3624997 118.7279988 131.0250012   9.6284997 118.9199988
 131.0060012  11.1344997 118.7749988 130.5979769  10.3664227 118.7606159
 131.9380012   8.2654997 119.4129988 131.0750012   7.8864997 119.2469988
 132.5430012   7.5264997 119.3379988 131.9016119   8.1138268 119.3801528
 129.6630012   4.4204997 102.5859988 130.2740012   4.0494997 103.2229988
 128.8270012   3.9994997 102.7819988 129.6335032   4.3127554 102.6997035
 129.2960012   5.9754997 107.5519988 129.5760012   5.0684997 107.6759988
 130.0550012   6.4094997 107.1629988 129.4369277   5.9100942 107.5163682
 129.9080012   6.5564997 112.9879988 130.8410012   6.7684997 112.9529988
 129.6730012   6.6584997 113.9099988 130.0039244   6.5993100 113.1078892
 129.9370012   7.2934997 115.7639988 129.0940012   7.5614997 116.1299988
 130.3790012   8.1154997 115.5529988 129.8814158   7.4413291 115.7855491
 114.2180012   5.7414997 119.2409988 115.1380012   5.6194997 119.4769988
 113.7690012   4.9914997 119.6299988 114.2831580   5.6233727 119.3259006
 132.2200012   1.2734997 121.1169988 132.5700012   0.6194997 120.5119988
 132.3670012   2.1104997 120.6769988 132.2877887   1.2971548 120.9746858
 129.9090012   3.2384997 107.5999988 130.0920012   2.7894997 108.4259988
 129.3100012   2.6534997 107.1369988 129.8530202   3.0979975 107.6503275
 115.4390012   4.0534997 112.1319988 115.8850012   3.2614997 112.4339988
 115.9060012   4.7694997 112.5619988 115.5630831   4.0420685 112.2314006
 113.7430012   7.0524997 113.2009988 114.2350012   6.8314997 112.4099988
 114.1060012   7.8934997 113.4819988 113.8593126   7.1358357 113.1307531
 131.7400012   3.3824997 119.4659988 130.8220012   3.6534997 119.4309988
 131.8630012   2.8474997 118.6819988 131.6309729   3.3472508 119.3551923
 131.7760012   3.3054997 104.1279988 132.1880012   2.5844997 103.6529988
 132.4580012   3.9754997 104.1869988 131.9245885   3.2972368 104.0708915
 114.0570012   3.3104997 107.2549988 113.1320012   3.5194997 107.1259988
 114.5110012   3.7944997 106.5649988 113.9917292   3.4045343 107.1440720
 128.8280012  18.2944997 109.2009988 129.4800012  17.9474997 108.5929988
 129.3380012  18.7834997 109.8469988 128.9862637  18.3130597 109.2050236
 114.0210012   2.0484997 115.5989988 113.3560012   1.8024997 116.2429988
 113.5780012   2.6704997 115.0219988 113.8701318   2.0989410 115.6090898
 116.2130012  15.2234997 119.7439988 115.3920012  15.3984997 119.2829988
 115.9600012  15.1504997 120.6639988 116.0665585  15.2375544 119.8053561
 119.1670012  16.1984997 116.0019988 118.7420012  17.0074997 115.7199988
 120.0710012  16.2834997 115.6999988 119.2309975  16.3209300 115.9224816
 123.4780012  17.5974997 118.9619988 123.6630012  17.2634997 119.8399988
 124.3240012  17.9064997 118.6399988 123.6177539  17.5936047 119.0385605
 125.8230012  18.8834997 118.2059988 126.5000012  18.2504997 117.9659988
 126.1450012  19.2844997 119.0129988 125.9591637  18.8511154 118.2822793
 130.7400012   1.4724997 117.2849988 129.9280012   1.7974997 116.8979988
 130.9730012   0.7124997 116.7519988 130.6602203   1.4142758 117.1598880
 116.5690012  19.4544997 116.0499988 115.8480012  19.8944997 115.5989988
 116.2030012  19.2034997 116.8979988 116.4209651  19.4807242 116.1029640
 119.0360012  19.0544997 115.0799988 118.1710012  19.1264997 115.4839988
 118.9810012  19.6014997 114.2959988 118.9102085  19.1382685 115.0293362
 123.7460012  18.9424997 114.2549988 123.2900012  19.4714997 113.6009988
 123.9090012  19.5454997 114.9799988 123.7056068  19.0964607 114.2634838
 126.0740012  17.8204997 115.1999988 125.1690012  17.9854997 114.9339988
 126.5030012  18.6734997 115.1349988 126.0081324  17.9584339 115.1547976
 128.6780012  19.3904997 115.4949988 128.4960012  20.3064997 115.2849988
 128.8550012  18.9804997 114.6489988 128.6770210  19.4604822 115.3517885
 115.9830012  18.0774997 112.9599988 115.9650012  17.6524997 113.8169988
 116.7880012  17.7594997 112.5509988 116.0893529  17.9763013 113.0220946
 118.1250012  16.7874997 111.6149988 117.9060012  15.8714997 111.7849988
 118.9490012  16.9274997 112.0809988 118.2064420  16.6810520 111.7012774
 120.6620012  17.2574997 112.4639988 120.8750012  16.3694997 112.1769988
 120.7260012  17.2234997 113.4179988 120.6998232  17.1313102 112.5537397
 124.1700012   2.9214997 111.6079988 123.4960012   2.2924997 111.8639988
 124.7340012   2.4374997 111.0049988 124.1539230   2.7698744 111.5615340
 129.3130012   1.0294997 111.7209988 129.9170012   1.5764997 111.2189988
 128.4430012   1.3484997 111.4799988 129.2781208   1.1475137 111.6196886
 131.0400012   2.1674997 110.0539988 131.6520012   1.6534997 109.5269988
 131.4220012   3.0454997 110.0769988 131.1753371   2.2157866 109.9850041
 116.4970012   1.5554997 109.4299988 115.7200012   1.3214997 108.9229988
 117.0270012   0.7584997 109.4389988 116.4622330   1.4156988 109.3617742
 115.3330012   1.3534997 105.2339988 115.7720012   1.9644997 104.6419988
 114.7000012   1.8914997 105.7079988 115.3074514   1.5099257 105.2170930
 121.0760012   1.4824997 109.2439988 121.9510012   1.8704997 109.2139988
 120.9400012   1.2674997 110.1659988 121.1773695   1.5065184 109.3646440
 126.6330012   1.5124997 110.8929988 126.7090012   1.6074997 109.9429988
 126.3580012   0.6044997 111.0219988 126.6062321   1.4027867 110.7805079
 127.9860012   1.5384997 106.5849988 127.2840012   2.1534997 106.3749988
 127.5420012   0.7004997 106.7159988 127.8296450   1.5095639 106.5739000
 117.1940012   3.2694997 103.6759988 117.6860012   2.6394997 103.1489988
 117.8180012   3.5654997 104.3389988 117.3455688   3.2233804 103.6935482
 122.2200012   3.5624997 106.1329988 122.3980012   2.9164997 106.8159988
 122.1670012   4.3964997 106.5999988 122.2371999   3.5868009 106.2895917
 130.8080012  18.0744997 107.2079988 130.6130012  17.3264997 106.6429988
 130.7690012  18.8324997 106.6249988 130.7760380  18.0746099 107.0518384
 116.4550012   2.0694997 118.9479988 116.0890012   1.3044997 119.3899988
 117.3680012   2.0984997 119.2339988 116.5282736   1.9685640 119.0472502
 118.4280012   1.4204997 120.4839988 119.3260012   1.1464997 120.2989988
 118.0410012   0.6774997 120.9479988 118.4986612   1.2825914 120.5213643
 126.8490012   0.7524997 120.6659988 126.9260012   0.3264997 121.5199988
 127.7430012   0.7664997 120.3229988 126.9803428   0.6960879 120.7365310
 130.0250012  16.8254997 119.3579988 129.2430012  16.6394997 118.8379988
 129.9530012  17.7544997 119.5759988 129.9082274  16.9256643 119.3163018
 144.4310012  10.7114997 109.3889988 144.5200012  11.6554997 109.2569988
 143.7930012  10.4364997 108.7309988 144.3569081  10.8034830 109.2819614
 143.3640012   9.9664997 112.8079988 143.3260012   9.3204997 113.5129988
 143.0420012   9.5004997 112.0369988 143.3152333   9.8149408 112.8002978
 135.7330012   9.5814997 114.4009988 135.7740012   8.9554997 115.1239988
 136.4360012  10.2054997 114.5829988 135.8336363   9.5801196 114.5246044
 136.6560012  14.0314997 112.9359988 136.2870012  13.2294997 112.5659988
 137.5970012  13.8624997 112.9819988 136.7327289  13.8990153 112.8916316
 133.2660012   7.6914997 108.3289988 132.8190012   8.5374997 108.3099988
 132.7050012   7.1114997 107.8129988 133.1289900   7.7289916 108.2566801
 133.9770012   9.8534997 110.4539988 134.1900012   9.0834997 110.9819988
 134.7150012   9.9424997 109.8509988 134.1059044   9.7601968 110.4447123
 144.1820012  18.0104997 111.3209988 144.8020012  17.3334997 111.0479988
 143.9740012  17.7924997 112.2299988 144.2386726  17.8884800 111.4064812
 141.7540012  12.3994997 113.2139988 142.0580012  11.7134997 112.6189988
 142.4750012  12.5174997 113.8319988 141.8930671  12.3216304 113.2161816
 144.8950012   6.7934997 113.5409988 145.0370012   5.8474997 113.5619988
 144.7880012   7.0004997 112.6129988 144.8999919   6.6918246 113.4183408
 138.0490012   4.8944997 110.8139988 138.0930012   5.7544997 110.3949988
 137.5920012   4.3424997 110.1799988 137.9932240   4.9374422 110.6709864
 134.6700012   7.2914997 111.5759988 135.3230012   6.7414997 112.0079988
 134.6940012   7.0174997 110.6589988 134.7626683   7.1791466 111.5112123
 139.8260012   8.8414997 110.7909988 140.4420012   8.3154997 111.3009988
 139.2400012   8.2014997 110.3879988 139.8310810   8.6829208 110.8063173
 136.8600012   3.8124997 114.8879988 136.6410012   4.3424997 114.1219988
 136.1920012   4.0394997 115.5349988 136.7397600   3.9156906 114.8706379
 144.2290012  13.3124997 108.4319988 143.9330012  12.9904997 107.5809988
 143.9040012  14.2124997 108.4729988 144.1446371  13.3900215 108.3211801
 139.4290012  11.4884997 115.1749988 138.6890012  12.0864997 115.2789988
 140.1430012  12.0424997 114.8599988 139.4242237  11.6452831 115.1466465
 136.4530012   5.7044997 112.8399988 137.0670012   6.3374997 113.2129988
 136.9650012   5.2324997 112.1839988 136.6061981   5.7272267 112.8022908
 137.8360012  13.4524997 115.9619988 137.8310012  14.3324997 115.5839988
 136.9830012  13.3694997 116.3869988 137.7199464  13.5616117 115.9677907
 133.9570012  13.1234997 106.7439988 133.6850012  13.3524997 105.8559988
 134.0030012  13.9614997 107.2049988 133.9259482  13.2681318 106.6846273
 140.8860012   1.1184997 112.3399988 140.7690012   0.1694997 112.2859988
 140.0310012   1.4504997 112.6139988 140.7544212   1.0335571 112.3696497
 143.1530012   9.9554997 106.8409988 142.4410012  10.4904997 106.4889988
 143.8440012  10.0114997 106.1809988 143.1490132  10.0362543 106.7036289
 138.2040012  10.7954997 109.6749988 137.8730012  10.4254997 108.8569988
 138.7920012  10.1254997 110.0219988 138.2381873  10.6541156 109.6098102
 139.5700012  14.2234997 112.3559988 139.4760012  13.6454997 111.5999988
 140.3000012  13.8524997 112.8529988 139.6557387  14.0941663 112.3195342
 138.5700012   9.5644997 113.3089988 139.1360012   9.6854997 112.5459988
 138.8890012  10.2014997 113.9469988 138.6905474   9.6672219 113.2909862
 144.8790012  15.0674997 114.0429988 144.6390012  15.7294997 114.6909988
 144.6810012  14.2334997 114.4679988 144.8193808  15.0453134 114.1891524
 139.4500012  13.9634997 118.0259988 139.1390012  14.7454997 118.4809988
 138.8000012  13.8104997 117.3399988 139.3195558  14.0499105 117.9955871
 136.3700012  10.1614997 117.2539988 136.4410012  10.8124997 117.9529988
 135.4800012  10.2644997 116.9189988 136.2593005  10.2645427 117.3043495
 143.1560012  16.0644997 108.9129988 143.6300012  16.3594997 109.6899988
 142.5930012  16.8024997 108.6799988 143.1448184  16.2047247 108.9879628
 137.6900012  16.0354997 118.7889988 137.6970012  15.8994997 117.8419988
 136.7740012  15.9174997 119.0409988 137.5671714  16.0009430 118.6934666
 137.1940012   9.8654997 107.2639988 136.9020012  10.6334997 106.7739988
 136.5200012   9.2054997 107.1019988 137.0628111   9.8815587 107.1748978
 133.2870012  12.2284997 116.0789988 132.7860012  12.2004997 115.2639988
 133.2920012  11.3224997 116.3889988 133.2190944  12.1022396 116.0093226
 133.0370012  15.0084997 112.9629988 133.9830012  14.8644997 112.9439988
 132.9250012  15.7924997 113.4999988 133.1512727  15.0948046 113.0330072
 142.2140012  15.2484997 117.5219988 142.3010012  16.0744997 117.9969988
 141.3500012  14.9184997 117.7709988 142.1091964  15.3169878 117.6206549
 142.6280012  19.0204997 107.3279988 142.5530012  18.8994997 106.3809988
 142.6610012  19.9704997 107.4459988 142.6222068  19.1322646 107.2144967
 136.2810012  17.8094997 109.1089988 136.4340012  17.4614997 109.9869988
 135.4310012  17.4534997 108.8539988 136.1869166  17.7136216 109.1948079
 135.5360012  13.5514997 117.1229988 135.7520012  13.1904997 117.9819988
 134.6810012  13.1774997 116.9129988 135.4499292  13.4514111 117.2123386
 138.1550012   2.0214997 113.1179988 137.2930012   1.9344997 112.7099988
 138.1320012   2.8774997 113.5459988 138.0340409   2.1252883 113.1200589
 142.8180012   1.7434997 116.4929988 143.2380012   1.3284997 117.2459988
 141.8850012   1.5654997 116.6099988 142.7493644   1.6625900 116.6119539
 138.2460012   6.9874997 114.2129988 137.6040012   6.9464997 114.9219988
 138.2830012   7.9134997 113.9749988 138.1630664   7.1071430 114.2779219
 138.2430012   7.2084997 109.1249988 137.3500012   6.8674997 109.0659988
 138.6930012   6.8314997 108.3689988 138.1818130   7.1109631 109.0147702
 143.7780012   7.6244997 107.9419988 143.3690012   8.4394997 107.6509988
 144.4990012   7.4844997 107.3279988 143.8194537   7.7172018 107.8191342
 142.8800012   7.7994997 119.4299988 142.3180012   7.0954997 119.7509988
 143.7070012   7.6794997 119.8979988 142.9147095   7.6867883 119.5372330
 144.7830012   7.0704997 110.7559988 144.5880012   7.6754997 110.0409988
 144.9640012   6.2364997 110.3219988 144.7807614   7.0406300 110.5994405
 135.9960012   7.3074997 116.0799988 135.9580012   7.7074997 116.9489988
 135.5050012   6.4904997 116.1709988 135.9244684   7.2518069 116.2111059
 132.6040012   4.4234997 109.9309988 133.2350012   4.3944997 110.6499988
 133.0530012   3.9984997 109.1999988 132.7510918   4.3620836 109.9306441
 133.8780012   5.1694997 105.3549988 134.3520012   5.7604997 104.7699988
 133.1610012   5.7004997 105.7019988 133.8459341   5.3220867 105.3218836
 144.0470012   8.7084997 115.4269988 144.3700012   8.0774997 114.7839988
 143.6070012   8.1734997 116.0879988 144.0317484   8.5498387 115.4283198
 140.8240012   4.6354997 110.2109988 139.9130012   4.6924997 110.4999988
 141.3300012   4.5754997 111.0219988 140.7676899   4.6351941 110.3601184
 135.6530012   6.2644997 109.0379988 134.7630012   6.3644997 108.6979988
 135.9490012   5.4224997 108.6919988 135.5712823   6.1643546 108.9447213
 139.3060012   6.2644997 106.6949988 140.2370012   6.3934997 106.8729988
 139.0910012   6.9344997 106.0449988 139.4044247   6.3726565 106.6315747
 136.1150012  12.0164997 119.3599988 136.8470012  12.2704997 119.9219988
 135.3350012  12.2204997 119.8759988 136.1097073  12.0788160 119.5066151
 142.1440012   7.4234997 112.0979988 142.7090012   6.8764997 111.5509988
 141.9970012   6.9014997 112.8869988 142.2013380   7.2782259 112.1298695
 137.1460012   3.5594997 108.5169988 136.8290012   2.6574997 108.4809988
 137.9280012   3.5614997 107.9639988 137.2082408   3.4362474 108.4373569
 140.7710012   5.8114997 114.5119988 139.9350012   6.2654997 114.6229988
 141.2950012   6.0874997 115.2639988 140.7275416   5.9108660 114.6288119
 141.3150012  12.0244997 106.1969988 140.5700012  11.5174997 105.8749988
 141.1810012  12.0734997 107.1439988 141.1948776  11.9616940 106.2808647
 142.8340012  12.2084997 117.4339988 142.4890012  11.8274997 118.2409988
 142.6340012  13.1424997 117.5049988 142.7597527  12.2825135 117.5540689
 136.4400012  11.3194997 111.9669988 137.1850012  11.3174997 111.3659988
 136.5180012  10.4964997 112.4479988 136.5524995  11.2078887 111.9498282
 143.4410012  13.4834997 105.2229988 143.1450012  14.3094997 105.6039988
 142.7380012  12.8634997 105.4189988 143.3054914  13.5128199 105.3016443
 133.4480012   9.7804997 117.2819988 133.6710012   9.3624997 118.1139988
 132.8460012   9.1674997 116.8589988 133.3971759   9.6404668 117.3387022
 140.4640012   9.2974997 119.4949988 140.1680012   9.1314997 118.5999988
 141.3960012   9.0774997 119.4839988 140.5494166   9.2450640 119.3710536
 138.8150012  14.8374997 109.3709988 139.3420012  15.6104997 109.1709988
 137.9350012  15.0624997 109.0689988 138.7682031  14.9737545 109.3027912
 140.2420012  12.5004997 108.9469988 140.0010012  13.4254997 108.9889988
 139.5010012  12.0414997 109.3439988 140.1089225  12.5650933 109.0063742
 140.7570012  16.6494997 115.2629988 141.1190012  17.5044997 115.0289988
 141.2880012  16.3574997 116.0029988 140.8784473  16.7271060 115.3310855
 138.9250012  17.5224997 108.4929988 137.9750012  17.6274997 108.5439988
 139.2770012  18.3424997 108.8369988 138.8424195  17.6478800 108.5465502
 144.3010012  12.7484997 114.9629988 143.8750012  12.5214997 115.7899988
 144.8810012  12.0104997 114.7809988 144.3211868  12.6175299 115.0515830
 135.0820012   4.5334997 116.8399988 134.1890012   4.8724997 116.7719988
 134.9830012   3.6784997 117.2579988 134.9464164   4.4642588 116.8872235
 134.7330012  16.3384997 115.2749988 134.9500012  15.4064997 115.2439988
 134.9790012  16.6124997 116.1579988 134.7959549  16.2480636 115.3901763
 135.9850012  11.6124997 105.4509988 135.2990012  11.9644997 106.0179988
 136.5070012  12.3754997 105.2039988 135.9616852  11.7638578 105.4952118
 143.8160012   4.2744997 115.7299988 144.5150012   4.3484997 116.3799988
 143.4350012   3.4104997 115.8839988 143.8601767   4.1677624 115.8398322
 144.6010012   3.9264997 106.8269988 144.8210012   4.3984997 106.0239988
 145.1590012   4.3214997 107.4969988 144.7064968   4.0444285 106.8077331
 142.2690012  16.0574997 105.6899988 141.4530012  16.5544997 105.7419988
 142.7990012  16.5324997 105.0499988 142.2289161  16.1897722 105.6105956
 141.8010012   5.6544997 107.6619988 142.6130012   6.1594997 107.7079988
 141.5560012   5.5094997 108.5759988 141.8790520   5.7040375 107.7918517
 142.3360012   6.6404997 116.8459988 142.4550012   7.2144997 117.6039988
 142.9920012   5.9524997 116.9609988 142.4409025   6.6259858 116.9651321
 142.6840012   2.7354997 108.5999988 142.3380012   3.3534997 109.2439988
 143.3430012   3.2364997 108.1179988 142.7256968   2.8876278 108.6229383
 139.6080012  17.1014997 105.6709988 139.7680012  17.9004997 105.1709988
 139.4100012  17.4074997 106.5559988 139.6031637  17.2524020 105.7221144
 138.3420012   3.7984997 105.2869988 138.2590012   4.6874997 105.6339988
 139.2320012   3.5334997 105.5189988 138.4509469   3.8841430 105.3657626
 136.6010012  14.2264997 104.3479988 137.1930012  14.9254997 104.6239988
 137.0600012  13.7934997 103.6279988 136.7441142  14.2637049 104.2884830
 135.7250012   1.6724997 112.1369988 135.4960012   1.7314997 111.2089988
 135.2820012   0.8804997 112.4429988 135.6338530   1.5735753 112.0514786
 134.6550012  15.6124997 108.2969988 133.8230012  16.0854997 108.3239988
 135.2010012  16.1224997 107.6989988 134.6150352  15.7461332 108.2198463
 133.9430012  18.2254997 119.6269988 134.4840012  18.0084997 120.3869988
 133.4620012  17.4194997 119.4369988 133.9519951  18.0869270 119.7052576
 138.5410012  17.1444997 121.2469988 139.3080012  16.6854997 121.5879988
 138.5190012  16.9184997 120.3179988 138.6431275  17.0510186 121.1680101
 133.8500012  12.0354997 120.5809988 133.9940012  11.1334997 120.2949988
 133.0780012  12.3214997 120.0939988 133.7652753  11.9506816 120.4759505
 140.5060012  12.0054997 120.0139988 140.1770012  12.2764997 119.1569988
 140.6580012  11.0644997 119.9269988 140.4814809  11.9153862 119.8848244
 134.6830012   9.2354997 120.0009988 135.0910012   8.3784997 119.8799988
 134.4230012   9.2504997 120.9219988 134.7037568   9.1200807 120.1089588
 139.3410012  10.3514997 105.0199988 138.8810012   9.8674997 105.7059988
 139.5960012   9.6834997 104.3839988 139.3124902  10.1948731 105.0279334
 138.6300012   8.2444997 117.3759988 138.0120012   8.9194997 117.6559988
 138.9740012   8.5654997 116.5419988 138.5919132   8.3802411 117.3016262
 143.6500012  10.7164997 120.6529988 144.6030012  10.7994997 120.6259988
 143.4890012  10.0044997 121.2729988 143.7586426  10.6316746 120.7330579
 138.9690012   5.5994997 118.4579988 139.1190012   4.8704997 117.8559988
 138.9720012   6.3764997 117.8989988 138.9899302   5.6047851 118.3000692
 139.3820012   3.9694997 115.9509988 139.9180012   4.4204997 115.2989988
 138.5300012   3.8614997 115.5279988 139.3402178   4.0166390 115.8045756
 140.9640012   9.4084997 116.1899988 141.7140012   9.2524997 115.6169988
 140.6250012  10.2604997 115.9149988 141.0208921   9.5022968 116.0743561
 137.4480012   6.7974997 120.3699988 136.6810012   6.2654997 120.1589988
 138.1270012   6.4874997 119.7699988 137.4347877   6.6828300 120.2600716
 140.1880012   1.4254997 116.3819988 140.0890012   2.3724997 116.2769988
 139.4450012   1.0534997 115.9059988 140.0741184   1.5045863 116.3033621
 141.4520012   5.7474997 119.9459988 141.2160012   5.5274997 120.8469988
 140.6680012   5.5404997 119.4359988 141.3138504   5.6894586 120.0003431
 144.1670012   4.8744997 119.0209988 143.2200012   4.9064997 119.1539988
 144.4800012   4.2494997 119.6749988 144.0796707   4.7943998 119.1276060
 135.6280012   4.7184997 120.0739988 135.8400012   4.0114997 119.4639988
 135.5170012   4.2804997 120.9179988 135.6419721   4.5627084 120.1046843
 140.4090012   0.7194997 119.0529988 141.1210012   0.0794997 119.0389988
 140.3080012   0.9864997 118.1399988 140.4928066   0.6680079 118.9275677
 140.7630012   2.4024997 121.1069988 140.6310012   1.9264997 120.2869988
 140.1640012   3.1464997 121.0519988 140.6639071   2.4379618 120.9872886
 132.5270012  19.3144997 108.8439988 131.8800012  18.8524997 108.3109988
 132.8810012  18.6424997 109.4259988 132.4863849  19.1604723 108.8497959
 133.3970012  17.3954997 110.6479988 133.0620012  16.5154997 110.8199988
 133.6190012  17.7404997 111.5129988 133.3811783  17.3217500 110.7884208
 133.4770012  10.4704997 113.0999988 133.6610012  10.3884997 112.1639988
 134.3260012  10.3464997 113.5229988 133.6170151  10.4425073 113.0291451
 133.0740012   5.7414997 119.2409988 133.9940012   5.6194997 119.4769988
 132.6250012   4.9914997 119.6299988 133.1391580   5.6233727 119.3259006
 134.2950012   4.0534997 112.1319988 134.7410012   3.2614997 112.4339988
 134.7620012   4.7694997 112.5619988 134.4190831   4.0420685 112.2314006
 132.5990012   7.0524997 113.2009988 133.0910012   6.8314997 112.4099988
 132.9620012   7.8934997 113.4819988 132.7153126   7.1358357 113.1307531
 132.9130012   3.3104997 107.2549988 131.9880012   3.5194997 107.1259988
 133.3670012   3.7944997 106.5649988 132.8477292   3.4045343 107.1440720
 132.8770012   2.0484997 115.5989988 132.2120012   1.8024997 116.2429988
 132.4340012   2.6704997 115.0219988 132.7261318   2.0989410 115.6090898
 135.0690012  15.2234997 119.7439988 134.2480012  15.3984997 119.2829988
 134.8160012  15.1504997 120.6639988 134.9225585  15.2375544 119.8053561
 138.0230012  16.1984997 116.0019988 137.5980012  17.0074997 115.7199988
 138.9270012  16.2834997 115.6999988 138.0869975  16.3209300 115.9224816
 142.3340012  17.5974997 118.9619988 142.5190012  17.2634997 119.8399988
 143.1800012  17.9064997 118.6399988 142.4737539  17.5936047 119.0385605
 144.6790012  18.8834997 118.2059988 145.3560012  18.2504997 117.9659988
 145.0010012  19.2844997 119.0129988 144.8151637  18.8511154 118.2822793
 135.4250012  19.4544997 116.0499988 134.7040012  19.8944997 115.5989988
 135.0590012  19.2034997 116.8979988 135.2769651  19.4807242 116.1029640
 137.8920012  19.0544997 115.0799988 137.0270012  19.1264997 115.4839988
 137.8370012  19.6014997 114.2959988 137.7662085  19.1382685 115.0293362
 142.6020012  18.9424997 114.2549988 142.1460012  19.4714997 113.6009988
 142.7650012  19.5454997 114.9799988 142.5616068  19.0964607 114.2634838
 134.8390012  18.0774997 112.9599988 134.8210012  17.6524997 113.8169988
 135.6440012  17.7594997 112.5509988 134.9453529  17.9763013 113.0220946
 136.9810012  16.7874997 111.6149988 136.7620012  15.8714997 111.7849988
 137.8050012  16.9274997 112.0809988 137.0624420  16.6810520 111.7012774
 139.5180012  17.2574997 112.4639988 139.7310012  16.3694997 112.1769988
 139.5820012  17.2234997 113.4179988 139.5558232  17.1313102 112.5537397
 143.0260012   2.9214997 111.6079988 142.3520012   2.2924997 111.8639988
 143.5900012   2.4374997 111.0049988 143.0099230   2.7698744 111.5615340
 135.3530012   1.5554997 109.4299988 134.5760012   1.3214997 108.9229988
 135.8830012   0.7584997 109.4389988 135.3182330   1.4156988 109.3617742
 134.1890012   1.3534997 105.2339988 134.6280012   1.9644997 104.6419988
 133.5560012   1.8914997 105.7079988 134.1634514   1.5099257 105.2170930
 139.9320012   1.4824997 109.2439988 140.8070012   1.8704997 109.2139988
 139.7960012   1.2674997 110.1659988 140.0333695   1.5065184 109.3646440
 134.0900012  17.3014997 106.1309988 133.4050012  17.2634997 105.4639988
 134.0940012  18.2144997 106.4199988 133.9966998  17.4196733 106.0786771
 141.0760012   3.5624997 106.1329988 141.2540012   2.9164997 106.8159988
 141.0230012   4.3964997 106.5999988 141.0931999   3.5868009 106.2895917
 142.9550012  18.5114997 104.5289988 143.8210012  18.8774997 104.3509988
 142.7080012  18.0714997 103.7149988 143.0402392  18.5021756 104.3946289
 135.3110012   2.0694997 118.9479988 134.9450012   1.3044997 119.3899988
 136.2240012   2.0984997 119.2339988 135.3842736   1.9685640 119.0472502
 137.2840012   1.4204997 120.4839988 138.1820012   1.1464997 120.2989988
 136.8970012   0.6774997 120.9479988 137.3546612   1.2825914 120.5213643
  12.4390012  29.5674997 109.3889988  12.5280012  30.5114997 109.2569988
  11.8010012  29.2924997 108.7309988  12.3649081  29.6594830 109.2819614
  11.3720012  28.8224997 112.8079988  11.3340012  28.1764997 113.5129988
  11.0500012  28.3564997 112.0369988  11.3232333  28.6709408 112.8002978
   3.7410012  28.4374997 114.4009988   3.7820012  27.8114997 115.1239988
   4.4440012  29.0614997 114.5829988   3.8416363  28.4361196 114.5246044
  15.0780012  31.7614997 111.1089988  14.6380012  31.0414997 111.5599988
  15.0650012  32.4824997 111.7389988  15.0160226  31.7603731 111.2558494
   4.6640012  32.8874997 112.9359988   4.2950012  32.0854997 112.5659988
   5.6050012  32.7184997 112.9819988   4.7407289  32.7550153 112.8916316
   1.2740012  26.5474997 108.3289988   0.8270012  27.3934997 108.3099988
   0.7130012  25.9674997 107.8129988   1.1369900  26.5849916 108.2566801
   1.9850012  28.7094997 110.4539988   2.1980012  27.9394997 110.9819988
   2.7230012  28.7984997 109.8509988   2.1139044  28.6161968 110.4447123
  12.1900012  36.8664997 111.3209988  12.8100012  36.1894997 111.0479988
  11.9820012  36.6484997 112.2299988  12.2466726  36.7444800 111.4064812
   9.7620012  31.2554997 113.2139988  10.0660012  30.5694997 112.6189988
  10.4830012  31.3734997 113.8319988   9.9010671  31.1776304 113.2161816
  18.4250012  22.8564997 114.0749988  18.4740012  23.4664997 114.8099988
  18.8500012  23.3174997 113.3519988  18.4891746  23.0023796 114.0779175
  12.9030012  25.6494997 113.5409988  13.0450012  24.7034997 113.5619988
  12.7960012  25.8564997 112.6129988  12.9079919  25.5478246 113.4183408
   6.0570012  23.7504997 110.8139988   6.1010012  24.6104997 110.3949988
   5.6000012  23.1984997 110.1799988   6.0012240  23.7934422 110.6709864
  13.7800012  23.8814997 109.2149988  14.4260012  23.5524997 109.8389988
  14.2900012  24.3994997 108.5919988  13.9374299  23.9064450 109.2162731
   2.6780012  26.1474997 111.5759988   3.3310012  25.5974997 112.0079988
   2.7020012  25.8734997 110.6589988   2.7706683  26.0351466 111.5112123
   7.8340012  27.6974997 110.7909988   8.4500012  27.1714997 111.3009988
   7.2480012  27.0574997 110.3879988   7.8390810  27.5389208 110.8063173
  18.8160012  24.3344997 116.3099988  18.1280012  24.9924997 116.2149988
  18.8320012  24.1374997 117.2469988  18.7239540  24.3979819 116.4235990
   4.8680012  22.6684997 114.8879988   4.6490012  23.1984997 114.1219988
   4.2000012  22.8954997 115.5349988   4.7477600  22.7716906 114.8706379
  12.2370012  32.1684997 108.4319988  11.9410012  31.8464997 107.5809988
  11.9120012  33.0684997 108.4729988  12.1526371  32.2460215 108.3211801
   7.4370012  30.3444997 115.1749988   6.6970012  30.9424997 115.2789988
   8.1510012  30.8984997 114.8599988   7.4322237  30.5012831 115.1466465
  15.5440012  23.1724997 111.1949988  15.3280012  22.4064997 111.7279988
  16.1990012  23.6444997 111.7079988  15.6030632  23.1315889 111.3372861
   4.4610012  24.5604997 112.8399988   5.0750012  25.1934997 113.2129988
   4.9730012  24.0884997 112.1839988   4.6141981  24.5832267 112.8022908
   5.8440012  32.3084997 115.9619988   5.8390012  33.1884997 115.5839988
   4.9910012  32.2254997 116.3869988   5.7279464  32.4176117 115.9677907
   1.9650012  31.9794997 106.7439988   1.6930012  32.2084997 105.8559988
   2.0110012  32.8174997 107.2049988   1.9339482  32.1241318 106.6846273
  15.5900012  33.6014997 113.4569988  14.6490012  33.6594997 113.6189988
  15.8670012  34.5074997 113.3199988  15.4984679  33.7319443 113.4606815
  15.8910012  21.8874997 114.8749988  15.1550012  22.4984997 114.8369988
  16.5740012  22.3024997 114.3479988  15.8826541  22.0271374 114.7985832
   8.8940012  19.9744997 112.3399988   8.7770012  19.0254997 112.2859988
   8.0390012  20.3064997 112.6139988   8.7624212  19.8895571 112.3696497
  13.8420012  35.3824997 110.0819988  14.2680012  34.6754997 109.5969988
  14.1590012  36.1834997 109.6659988  13.9431683  35.3941017 109.9593680
  15.0020012  33.2834997 108.5909988  14.7440012  32.5934997 107.9799988
  15.0730012  32.8404997 109.4369988  14.9762856  33.1292124 108.6216885
  16.6880012  31.8494997 117.0679988  16.8280012  31.2584997 116.3289988
  16.8550012  32.7224997 116.7119988  16.7297411  31.8865428 116.9186894
  11.1610012  28.8114997 106.8409988  10.4490012  29.3464997 106.4889988
  11.8520012  28.8674997 106.1809988  11.1570132  28.8922543 106.7036289
  11.2140012  27.2694997 103.8799988  11.9150012  27.2914997 104.5309988
  11.5170012  26.6414997 103.2229988  11.3508133  27.1877070 103.8803369
  18.5300012  28.1894997 115.1339988  17.8770012  28.8844997 115.2239988
  18.9950012  28.3994997 114.3249988  18.5035274  28.3130643 115.0368462
  14.5660012  29.0214997 107.7929988  13.8340012  29.2494997 108.3659988
  15.0140012  28.3074997 108.2469988  14.5262725  28.9562145 107.9328816
  14.4640012  27.1954997 116.8599988  14.5440012  27.9584997 117.4319988
  13.8620012  27.4744997 116.1699988  14.3935756  27.3377134 116.8450589
   6.2120012  29.6514997 109.6749988   5.8810012  29.2814997 108.8569988
   6.8000012  28.9814997 110.0219988   6.2461873  29.5101156 109.6098102
   7.5780012  33.0794997 112.3559988   7.4840012  32.5014997 111.5999988
   8.3080012  32.7084997 112.8529988   7.6637387  32.9501663 112.3195342
   6.5780012  28.4204997 113.3089988   7.1440012  28.5414997 112.5459988
   6.8970012  29.0574997 113.9469988   6.6985474  28.5232219 113.2909862
  12.8870012  33.9234997 114.0429988  12.6470012  34.5854997 114.6909988
  12.6890012  33.0894997 114.4679988  12.8273808  33.9013134 114.1891524
   7.4580012  32.8194997 118.0259988   7.1470012  33.6014997 118.4809988
   6.8080012  32.6664997 117.3399988   7.3275558  32.9059105 117.9955871
  13.4370012  28.1834997 105.4779988  14.0170012  28.3334997 106.2249988
  13.8510012  28.6544997 104.7539988  13.5722997  28.2676578 105.4824058
   4.3780012  29.0174997 117.2539988   4.4490012  29.6684997 117.9529988
   3.4880012  29.1204997 116.9189988   4.2673005  29.1205427 117.3043495
  11.1640012  34.9204997 108.9129988  11.6380012  35.2154997 109.6899988
  10.6010012  35.6584997 108.6799988  11.1528184  35.0607247 108.9879628
   5.6980012  34.8914997 118.7889988   5.7050012  34.7554997 117.8419988
   4.7820012  34.7734997 119.0409988   5.5751714  34.8569430 118.6934666
   5.2020012  28.7214997 107.2639988   4.9100012  29.4894997 106.7739988
   4.5280012  28.0614997 107.1019988   5.0708111  28.7375587 107.1748978
   1.2950012  31.0844997 116.0789988   0.7940012  31.0564997 115.2639988
   1.3000012  30.1784997 116.3889988   1.2270944  30.9582396 116.0093226
   1.0450012  33.8644997 112.9629988   1.9910012  33.7204997 112.9439988
   0.9330012  34.6484997 113.4999988   1.1592727  33.9508046 113.0330072
  19.2430012  34.5304997 118.6459988  19.1940012  33.5754997 118.6089988
  18.4160012  34.7984997 119.0469988  19.1244940  34.4358998 118.6951375
  10.2220012  34.1044997 117.5219988  10.3090012  34.9304997 117.9969988
   9.3580012  33.7744997 117.7709988  10.1171964  34.1729878 117.6206549
  10.6360012  37.8764997 107.3279988  10.5610012  37.7554997 106.3809988
  10.6690012  38.8264997 107.4459988  10.6302068  37.9882646 107.2144967
   4.2890012  36.6654997 109.1089988   4.4420012  36.3174997 109.9869988
   3.4390012  36.3094997 108.8539988   4.1949166  36.5696216 109.1948079
  13.4070012  36.9564997 107.0789988  12.4710012  37.0564997 107.2579988
  13.6870012  36.2474997 107.6579988  13.3169553  36.8743406 107.1817087
  16.3950012  26.0234997 119.1259988  15.9880012  26.5044997 118.4049988
  16.4360012  25.1184997 118.8179988  16.3448437  25.9669374 118.9856683
   3.5440012  32.4074997 117.1229988   3.7600012  32.0464997 117.9819988
   2.6890012  32.0334997 116.9129988   3.4579292  32.3074111 117.2123386
   6.1630012  20.8774997 113.1179988   5.3010012  20.7904997 112.7099988
   6.1400012  21.7334997 113.5459988   6.0420409  20.9812883 113.1200589
  10.8260012  20.5994997 116.4929988  11.2460012  20.1844997 117.2459988
   9.8930012  20.4214997 116.6099988  10.7573644  20.5185900 116.6119539
  14.1520012  24.3554997 117.3459988  13.6380012  24.2294997 118.1439988
  13.9970012  25.2674997 117.1019988  14.0606852  24.4616132 117.4222158
   6.2540012  25.8434997 114.2129988   5.6120012  25.8024997 114.9219988
   6.2910012  26.7694997 113.9749988   6.1710664  25.9631430 114.2779219
   6.2510012  26.0644997 109.1249988   5.3580012  25.7234997 109.0659988
   6.7010012  25.6874997 108.3689988   6.1898130  25.9669631 109.0147702
  11.7860012  26.4804997 107.9419988  11.3770012  27.2954997 107.6509988
  12.5070012  26.3404997 107.3279988  11.8274537  26.5732018 107.8191342
  10.8880012  26.6554997 119.4299988  10.3260012  25.9514997 119.7509988
  11.7150012  26.5354997 119.8979988  10.9227095  26.5427883 119.5372330
  12.7910012  25.9264997 110.7559988  12.5960012  26.5314997 110.0409988
  12.9720012  25.0924997 110.3219988  12.7887614  25.8966300 110.5994405
   4.0040012  26.1634997 116.0799988   3.9660012  26.5634997 116.9489988
   3.5130012  25.3464997 116.1709988   3.9324684  26.1078069 116.2111059
   0.6120012  23.2794997 109.9309988   1.2430012  23.2504997 110.6499988
   1.0610012  22.8544997 109.1999988   0.7590918  23.2180836 109.9306441
   1.8860012  24.0254997 105.3549988   2.3600012  24.6164997 104.7699988
   1.1690012  24.5564997 105.7019988   1.8539341  24.1780867 105.3218836
  12.0550012  27.5644997 115.4269988  12.3780012  26.9334997 114.7839988
  11.6150012  27.0294997 116.0879988  12.0397484  27.4058387 115.4283198
   8.8320012  23.4914997 110.2109988   7.9210012  23.5484997 110.4999988
   9.3380012  23.4314997 111.0219988   8.7756899  23.4911941 110.3601184
   3.6610012  25.1204997 109.0379988   2.7710012  25.2204997 108.6979988
   3.9570012  24.2784997 108.6919988   3.5792823  25.0203545 108.9447213
   7.3140012  25.1204997 106.6949988   8.2450012  25.2494997 106.8729988
   7.0990012  25.7904997 106.0449988   7.4124247  25.2286565 106.6315747
  13.2370012  22.7264997 113.4759988  12.5610012  22.8574997 114.1399988
  12.7520012  22.5714997 112.6649988  13.0787146  22.7235157 113.4574469
  16.5250012  38.3984997 119.7519988  16.7250012  38.8224997 118.9179988
  17.1800012  38.7414997 120.3589988  16.6410072  38.5029857 119.7198592
   4.1230012  30.8724997 119.3599988   4.8550012  31.1264997 119.9219988
   3.3430012  31.0764997 119.8759988   4.1177073  30.9348160 119.5066151
  10.1520012  26.2794997 112.0979988  10.7170012  25.7324997 111.5509988
  10.0050012  25.7574997 112.8869988  10.2093380  26.1342259 112.1298695
   5.1540012  22.4154997 108.5169988   4.8370012  21.5134997 108.4809988
   5.9360012  22.4174997 107.9639988   5.2162408  22.2922474 108.4373569
   8.7790012  24.6674997 114.5119988   7.9430012  25.1214997 114.6229988
   9.3030012  24.9434997 115.2639988   8.7355416  24.7668660 114.6288119
   9.3230012  30.8804997 106.1969988   8.5780012  30.3734997 105.8749988
   9.1890012  30.9294997 107.1439988   9.2028776  30.8176940 106.2808647
  16.4730012  30.0134997 114.9839988  17.1150012  30.4704997 114.4399988
  15.6430012  30.1264997 114.5209988  16.4485963  30.0912704 114.8470177
  13.2210012  23.6944997 104.3959988  12.2820012  23.8064997 104.2449988
  13.5180012  24.5514997 104.7029988  13.1327583  23.8255981 104.4168337
  10.8420012  31.0644997 117.4339988  10.4970012  30.6834997 118.2409988
  10.6420012  31.9984997 117.5049988  10.7677527  31.1385135 117.5540689
  13.9390012  25.5614997 106.0569988  14.8310012  25.4244997 106.3759988
  13.9960012  26.3524997 105.5199988  14.0686504  25.6496052 106.0280818
   4.4480012  30.1754997 111.9669988   5.1930012  30.1734997 111.3659988
   4.5260012  29.3524997 112.4479988   4.5604995  30.0638887 111.9498282
   1.4560012  28.6364997 117.2819988   1.6790012  28.2184997 118.1139988
   0.8540012  28.0234997 116.8589988   1.4051759  28.4964668 117.3387022
   8.4720012  28.1534997 119.4949988   8.1760012  27.9874997 118.5999988
   9.4040012  27.9334997 119.4839988   8.5574166  28.1010640 119.3710536
  13.0930012  33.5264997 117.3849988  12.1920012  33.7094997 117.1169988
  13.1270012  33.7854997 118.3049988  12.9743139  33.5865849 117.4728099
  18.8240012  25.7714997 105.7519988  18.2700012  25.3754997 105.0799988
  18.9240012  26.6814997 105.4739988  18.7617059  25.8403586 105.6224401
  18.7870012  31.5714997 118.5889988  17.9360012  31.8094997 118.2219988
  19.3780012  31.5544997 117.8359988  18.7502487  31.6018258 118.4368893
  17.1190012  34.5574997 106.2169988  16.7460012  33.7314997 106.5259988
  17.3970012  34.3744997 105.3189988  17.1055222  34.4197430 106.1379473
  14.2800012  29.3654997 113.2379988  13.3510012  29.1334997 113.2109988
  14.7310012  28.5884997 112.9079988  14.2139216  29.2287238 113.1896917
   6.8230012  33.6934997 109.3709988   7.3500012  34.4664997 109.1709988
   5.9430012  33.9184997 109.0689988   6.7762031  33.8297545 109.3027912
   8.2500012  31.3564997 108.9469988   8.0090012  32.2814997 108.9889988
   7.5090012  30.8974997 109.3439988   8.1169225  31.4210933 109.0063742
   8.7650012  35.5054997 115.2629988   9.1270012  36.3604997 115.0289988
   9.2960012  35.2134997 116.0029988   8.8864473  35.5831060 115.3310855
   6.9330012  36.3784997 108.4929988   5.9830012  36.4834997 108.5439988
   7.2850012  37.1984997 108.8369988   6.8504195  36.5038800 108.5465502
  12.3090012  31.6044997 114.9629988  11.8830012  31.3774997 115.7899988
  12.8890012  30.8664997 114.7809988  12.3291868  31.4735299 115.0515830
  14.9670012  36.1564997 117.4329988  14.3660012  35.6014997 116.9369988
  15.2490012  36.8234997 116.8059988  14.9228804  36.1706625 117.2804849
   3.0900012  23.3894997 116.8399988   2.1970012  23.7284997 116.7719988
   2.9910012  22.5344997 117.2579988   2.9544164  23.3202588 116.8872235
  15.3780012  31.2064997 106.2639988  15.1000012  30.4784997 106.8199988
  16.3050012  31.3254997 106.4689988  15.4653124  31.1228802 106.3678845
   2.7410012  35.1944997 115.2749988   2.9580012  34.2624997 115.2439988
   2.9870012  35.4684997 116.1579988   2.8039549  35.1040636 115.3901763
   7.5400012  33.2154997 104.9399988   7.6860012  32.6954997 105.7299988
   7.5370012  34.1224997 105.2469988   7.5595792  33.2668842 105.0896117
   3.9930012  30.4684997 105.4509988   3.3070012  30.8204997 106.0179988
   4.5150012  31.2314997 105.2039988   3.9696852  30.6198578 105.4952118
  11.8240012  23.1304997 115.7299988  12.5230012  23.2044997 116.3799988
  11.4430012  22.2664997 115.8839988  11.8681767  23.0237624 115.8398322
  12.6090012  22.7824997 106.8269988  12.8290012  23.2544997 106.0239988
  13.1670012  23.1774997 107.4969988  12.7144968  22.9004285 106.8077331
   9.8090012  24.5104997 107.6619988  10.6210012  25.0154997 107.7079988
   9.5640012  24.3654997 108.5759988   9.8870520  24.5600375 107.7918517
  10.3440012  25.4964997 116.8459988  10.4630012  26.0704997 117.6039988
  11.0000012  24.8084997 116.9609988  10.4489025  25.4819858 116.9651321
  10.6920012  21.5914997 108.5999988  10.3460012  22.2094997 109.2439988
  11.3510012  22.0924997 108.1179988  10.7336968  21.7436278 108.6229383
   7.6160012  35.9574997 105.6709988   7.7760012  36.7564997 105.1709988
   7.4180012  36.2634997 106.5559988   7.6111637  36.1084020 105.7221144
   6.3500012  22.6544997 105.2869988   6.2670012  23.5434997 105.6339988
   7.2400012  22.3894997 105.5189988   6.4589469  22.7401430 105.3657626
  16.5490012  23.4034997 117.6809988  15.6320012  23.6664997 117.5939988
  16.8840012  23.4004997 116.7849988  16.4688613  23.4390761 117.5478837
  15.1510012  27.1544997 111.7769988  14.3530012  26.7394997 111.4489988
  15.5960012  26.4634997 112.2679988  15.1019885  27.0043543 111.7984889
   4.6090012  33.0824997 104.3479988   5.2010012  33.7814997 104.6239988
   5.0680012  32.6494997 103.6279988   4.7521142  33.1197049 104.2884830
  16.2370012  36.4104997 113.3999988  16.0820012  37.0884997 112.7419988
  17.1700012  36.4824997 113.6029988  16.3418657  36.5129546 113.3374360
   3.7330012  20.5284997 112.1369988   3.5040012  20.5874997 111.2089988
   3.2900012  19.7364997 112.4429988   3.6418530  20.4295753 112.0514786
   2.6630012  34.4684997 108.2969988   1.8310012  34.9414997 108.3239988
   3.2090012  34.9784997 107.6989988   2.6230352  34.6021332 108.2198463
   1.9510012  37.0814997 119.6269988   2.4920012  36.8644997 120.3869988
   1.4700012  36.2754997 119.4369988   1.9599951  36.9429270 119.7052576
   6.5490012  36.0004997 121.2469988   7.3160012  35.5414997 121.5879988
   6.5270012  35.7744997 120.3179988   6.6511275  35.9070186 121.1680101
  13.1260012  34.3804997 119.9769988  12.7750012  33.5244997 120.2199988
  13.8520012  34.5234997 120.5839988  13.1760769  34.2825636 120.0923619
   1.8580012  30.8914997 120.5809988   2.0020012  29.9894997 120.2949988
   1.0860012  31.1774997 120.0939988   1.7732753  30.8066816 120.4759505
   6.2000012  31.2354997 102.7139988   6.2640012  30.4414997 103.2449988
   6.8530012  31.1164997 102.0239988   6.2970241  31.1107148 102.6934317
   8.5140012  30.8614997 120.0139988   8.1850012  31.1324997 119.1569988
   8.6660012  29.9204997 119.9269988   8.4894809  30.7713862 119.8848244
  14.2480012  30.7774997 117.3969988  14.9940012  31.3654997 117.2779988
  13.4910012  31.3594997 117.4609988  14.2477820  30.9367143 117.3893590
   2.6910012  28.0914997 120.0009988   3.0990012  27.2344997 119.8799988
   2.4310012  28.1064997 120.9219988   2.7117568  27.9760807 120.1089588
   7.3490012  29.2074997 105.0199988   6.8890012  28.7234997 105.7059988
   7.6040012  28.5394997 104.3839988   7.3204902  29.0508731 105.0279334
   6.6380012  27.1004997 117.3759988   6.0200012  27.7754997 117.6559988
   6.9820012  27.4214997 116.5419988   6.5999132  27.2362411 117.3016262
   8.4200012  27.4504997 103.2819988   8.2400012  27.2964997 102.3549988
   9.3700012  27.5584997 103.3269988   8.5237776  27.4440175 103.1611843
  11.6580012  29.5724997 120.6529988  12.6110012  29.6554997 120.6259988
  11.4970012  28.8604997 121.2729988  11.7666426  29.4876746 120.7330579
   6.9770012  24.4554997 118.4579988   7.1270012  23.7264997 117.8559988
   6.9800012  25.2324997 117.8989988   6.9979302  24.4607851 118.3000692
   7.3900012  22.8254997 115.9509988   7.9260012  23.2764997 115.2989988
   6.5380012  22.7174997 115.5279988   7.3482178  22.8726390 115.8045756
   8.9720012  28.2644997 116.1899988   9.7220012  28.1084997 115.6169988
   8.6330012  29.1164997 115.9149988   9.0288921  28.3582968 116.0743561
  13.3870012  26.0794997 121.2189988  13.5800012  25.1484997 121.1069988
  14.2450012  26.5044997 121.2079988  13.5292934  26.0096531 121.2022031
  14.7040012  28.8684997 119.2959988  14.4230012  29.5774997 118.7179988
  15.6470012  28.7954997 119.1449988  14.7929291  28.9556711 119.1964967
   5.4560012  25.6534997 120.3699988   4.6890012  25.1214997 120.1589988
   6.1350012  25.3434997 119.7699988   5.4427877  25.5388300 120.2600716
   8.1960012  20.2814997 116.3819988   8.0970012  21.2284997 116.2769988
   7.4530012  19.9094997 115.9059988   8.0821184  20.3605863 116.3033621
   9.4600012  24.6034997 119.9459988   9.2240012  24.3834997 120.8469988
   8.6760012  24.3964997 119.4359988   9.3218504  24.5454586 120.0003431
  12.1750012  23.7304997 119.0209988  11.2280012  23.7624997 119.1539988
  12.4880012  23.1054997 119.6749988  12.0876707  23.6503998 119.1276060
  13.8090012  22.3644997 121.0269988  13.7130012  21.4124997 121.0209988
  13.4880012  22.6334997 121.8869988  13.7524070  22.2704035 121.1425441
   3.6360012  23.5744997 120.0739988   3.8480012  22.8674997 119.4639988
   3.5250012  23.1364997 120.9179988   3.6499721  23.4187084 120.1046843
   8.4170012  19.5754997 119.0529988   9.1290012  18.9354997 119.0389988
   8.3160012  19.8424997 118.1399988   8.5008066  19.5240079 118.9275677
   8.7710012  21.2584997 121.1069988   8.6390012  20.7824997 120.2869988
   8.1720012  22.0024997 121.0519988   8.6719071  21.2939618 120.9872886
   8.3170012  38.1414997 104.2829988   9.2500012  38.2994997 104.4269988
   8.0530012  38.8164997 103.6589988   8.4089888  38.2544510 104.2182842
   0.5350012  38.1704997 108.8439988  -0.1119988  37.7084997 108.3109988
   0.8890012  37.4984997 109.4259988   0.4943849  38.0164723 108.8497959
   1.4050012  36.2514997 110.6479988   1.0700012  35.3714997 110.8199988
   1.6270012  36.5964997 111.5129988   1.3891783  36.1777501 110.7884208
  18.9530012  37.0604997 113.6289988  18.9320012  37.2454997 114.5679988
  19.6440012  37.6294997 113.2879988  19.0434618  37.1626606 113.7113864
  18.5170012  36.6284997 116.5509988  18.0290012  35.8924997 116.1789988
  19.0660012  36.2344997 117.2289988  18.5244820  36.4745889 116.5917813
  16.9670012  32.4174997 121.1889988  16.1010012  32.3124997 121.5829988
  17.3440012  33.1764997 121.6349988  16.8993308  32.5056900 121.3032393
  18.2680012  30.6744997 106.7029988  19.1180012  31.0954997 106.8299988
  18.2740012  29.9344997 107.3099988  18.3851372  30.6320803 106.8024344
  18.6630012  28.7274997 108.5259988  17.9360012  28.2484997 108.9239988
  19.2440012  28.9334997 109.2589988  18.6420473  28.6898103 108.6794528
  18.4220012  31.5124997 113.4739988  19.2550012  31.1344997 113.1939988
  18.5340012  32.4554997 113.3549988  18.5512647  31.5882218 113.4195487
  16.9080012  34.3904997 115.7809988  16.2610012  34.7154997 116.4069988
  16.3910012  33.9504997 115.1069988  16.7494029  34.3755004 115.7755827
  18.9310012  28.6284997 104.9179988  18.4090012  28.9854997 104.1989988
  18.8980012  29.3034997 105.5959988  18.8551634  28.7685413 104.9113145
  16.4490012  27.2484997 109.0889988  16.2990012  26.3034997 109.0689988
  16.0960012  27.5294997 109.9329988  16.3807448  27.1571481 109.2003705
   1.4850012  29.3264997 113.0999988   1.6690012  29.2444997 112.1639988
   2.3340012  29.2024997 113.5229988   1.6250151  29.2985073 113.0291451
  17.3060012  29.2184997 118.7279988  17.8890012  28.4844997 118.9199988
  17.8700012  29.9904997 118.7749988  17.4619769  29.2224227 118.7606159
  18.8020012  27.1214997 119.4129988  17.9390012  26.7424997 119.2469988
  19.4070012  26.3824997 119.3379988  18.7656119  26.9698268 119.3801528
  16.1600012  24.8314997 107.5519988  16.4400012  23.9244997 107.6759988
  16.9190012  25.2654997 107.1629988  16.3009277  24.7660942 107.5163682
  16.7720012  25.4124997 112.9879988  17.7050012  25.6244997 112.9529988
  16.5370012  25.5144997 113.9099988  16.8679244  25.4553100 113.1078892
  16.8010012  26.1494997 115.7639988  15.9580012  26.4174997 116.1299988
  17.2430012  26.9714997 115.5529988  16.7454158  26.2973291 115.7855491
   1.0820012  24.5974997 119.2409988   2.0020012  24.4754997 119.4769988
   0.6330012  23.8474997 119.6299988   1.1471580  24.4793727 119.3259006
  19.0840012  20.1294997 121.1169988  19.4340012  19.4754997 120.5119988
  19.2310012  20.9664997 120.6769988  19.1517887  20.1531548 120.9746858
  16.7730012  22.0944997 107.5999988  16.9560012  21.6454997 108.4259988
  16.1740012  21.5094997 107.1369988  16.7170202  21.9539975 107.6503275
   2.3030012  22.9094997 112.1319988   2.7490012  22.1174997 112.4339988
   2.7700012  23.6254997 112.5619988   2.4270831  22.8980685 112.2314006
   0.6070012  25.9084997 113.2009988   1.0990012  25.6874997 112.4099988
   0.9700012  26.7494997 113.4819988   0.7233126  25.9918357 113.1307531
  18.6040012  22.2384997 119.4659988  17.6860012  22.5094997 119.4309988
  18.7270012  21.7034997 118.6819988  18.4949729  22.2032508 119.3551923
   0.9210012  22.1664997 107.2549988  -0.0039988  22.3754997 107.1259988
   1.3750012  22.6504997 106.5649988   0.8557292  22.2605343 107.1440720
  15.6920012  37.1504997 109.2009988  16.3440012  36.8034997 108.5929988
  16.2020012  37.6394997 109.8469988  15.8502637  37.1690597 109.2050236
   0.8850012  20.9044997 115.5989988   0.2200012  20.6584997 116.2429988
   0.4420012  21.5264997 115.0219988   0.7341318  20.9549410 115.6090898
   3.0770012  34.0794997 119.7439988   2.2560012  34.2544997 119.2829988
   2.8240012  34.0064997 120.6639988   2.9305585  34.0935544 119.8053561
   6.0310012  35.0544997 116.0019988   5.6060012  35.8634997 115.7199988
   6.9350012  35.1394997 115.6999988   6.0949975  35.1769300 115.9224816
  10.3420012  36.4534997 118.9619988  10.5270012  36.1194997 119.8399988
  11.1880012  36.7624997 118.6399988  10.4817539  36.4496047 119.0385605
  12.6870012  37.7394997 118.2059988  13.3640012  37.1064997 117.9659988
  13.0090012  38.1404997 119.0129988  12.8231637  37.7071154 118.2822793
  17.6040012  20.3284997 117.2849988  16.7920012  20.6534997 116.8979988
  17.8370012  19.5684997 116.7519988  17.5242203  20.2702758 117.1598880
   3.4330012  38.3104997 116.0499988   2.7120012  38.7504997 115.5989988
   3.0670012  38.0594997 116.8979988   3.2849651  38.3367242 116.1029640
   5.9000012  37.9104997 115.0799988   5.0350012  37.9824997 115.4839988
   5.8450012  38.4574997 114.2959988   5.7742085  37.9942685 115.0293362
  10.6100012  37.7984997 114.2549988  10.1540012  38.3274997 113.6009988
  10.7730012  38.4014997 114.9799988  10.5696068  37.9524607 114.2634838
  12.9380012  36.6764997 115.1999988  12.0330012  36.8414997 114.9339988
  13.3670012  37.5294997 115.1349988  12.8721324  36.8144339 115.1547976
  15.5420012  38.2464997 115.4949988  15.3600012  39.1624997 115.2849988
  15.7190012  37.8364997 114.6489988  15.5410210  38.3164822 115.3517885
   2.8470012  36.9334997 112.9599988   2.8290012  36.5084997 113.8169988
   3.6520012  36.6154997 112.5509988   2.9533529  36.8323013 113.0220946
   4.9890012  35.6434997 111.6149988   4.7700012  34.7274997 111.7849988
   5.8130012  35.7834997 112.0809988   5.0704420  35.5370520 111.7012774
   7.5260012  36.1134997 112.4639988   7.7390012  35.2254997 112.1769988
   7.5900012  36.0794997 113.4179988   7.5638231  35.9873102 112.5537397
  11.0340012  21.7774997 111.6079988  10.3600012  21.1484997 111.8639988
  11.5980012  21.2934997 111.0049988  11.0179230  21.6258744 111.5615340
  16.1770012  19.8854997 111.7209988  16.7810012  20.4324997 111.2189988
  15.3070012  20.2044997 111.4799988  16.1421208  20.0035137 111.6196886
  17.9040012  21.0234997 110.0539988  18.5160012  20.5094997 109.5269988
  18.2860012  21.9014997 110.0769988  18.0393371  21.0717866 109.9850041
   3.3610012  20.4114997 109.4299988   2.5840012  20.1774997 108.9229988
   3.8910012  19.6144997 109.4389988   3.3262330  20.2716988 109.3617742
   7.9400012  20.3384997 109.2439988   8.8150012  20.7264997 109.2139988
   7.8040012  20.1234997 110.1659988   8.0413695  20.3625184 109.3646440
  13.4970012  20.3684997 110.8929988  13.5730012  20.4634997 109.9429988
  13.2220012  19.4604997 111.0219988  13.4702321  20.2587867 110.7805079
  14.8500012  20.3944997 106.5849988  14.1480012  21.0094997 106.3749988
  14.4060012  19.5564997 106.7159988  14.6936450  20.3655639 106.5739000
   2.0980012  36.1574997 106.1309988   1.4130012  36.1194997 105.4639988
   2.1020012  37.0704997 106.4199988   2.0046998  36.2756733 106.0786771
  10.9630012  37.3674997 104.5289988  11.8290012  37.7334997 104.3509988
  10.7160012  36.9274997 103.7149988  11.0482392  37.3581756 104.3946289
  17.6720012  36.9304997 107.2079988  17.4770012  36.1824997 106.6429988
  17.6330012  37.6884997 106.6249988  17.6400380  36.9306099 107.0518384
   3.3190012  20.9254997 118.9479988   2.9530012  20.1604997 119.3899988
   4.2320012  20.9544997 119.2339988   3.3922736  20.8245640 119.0472502
   5.2920012  20.2764997 120.4839988   6.1900012  20.0024997 120.2989988
   4.9050012  19.5334997 120.9479988   5.3626612  20.1385914 120.5213643
  13.7130012  19.6084997 120.6659988  13.7900012  19.1824997 121.5199988
  14.6070012  19.6224997 120.3229988  13.8443428  19.5520879 120.7365310
  16.8890012  35.6814997 119.3579988  16.1070012  35.4954997 118.8379988
  16.8170012  36.6104997 119.5759988  16.7722274  35.7816643 119.3163018
  31.2950012  29.5674997 109.3889988  31.3840012  30.5114997 109.2569988
  30.6570012  29.2924997 108.7309988  31.2209081  29.6594830 109.2819614
  30.2280012  28.8224997 112.8079988  30.1900012  28.1764997 113.5129988
  29.9060012  28.3564997 112.0369988  30.1792333  28.6709408 112.8002978
  22.5970012  28.4374997 114.4009988  22.6380012  27.8114997 115.1239988
  23.3000012  29.0614997 114.5829988  22.6976363  28.4361196 114.5246044
  33.9340012  31.7614997 111.1089988  33.4940012  31.0414997 111.5599988
  33.9210012  32.4824997 111.7389988  33.8720226  31.7603731 111.2558494
  23.5200012  32.8874997 112.9359988  23.1510012  32.0854997 112.5659988
  24.4610012  32.7184997 112.9819988  23.5967289  32.7550153 112.8916316
  20.1300012  26.5474997 108.3289988  19.6830012  27.3934997 108.3099988
  19.5690012  25.9674997 107.8129988  19.9929900  26.5849916 108.2566801
  20.8410012  28.7094997 110.4539988  21.0540012  27.9394997 110.9819988
  21.5790012  28.7984997 109.8509988  20.9699044  28.6161968 110.4447123
  31.0460012  36.8664997 111.3209988  31.6660012  36.1894997 111.0479988
  30.8380012  36.6484997 112.2299988  31.1026726  36.7444800 111.4064812
  28.6180012  31.2554997 113.2139988  28.9220012  30.5694997 112.6189988
  29.3390012  31.3734997 113.8319988  28.7570671  31.1776305 113.2161816
  37.2810012  22.8564997 114.0749988  37.3300012  23.4664997 114.8099988
  37.7060012  23.3174997 113.3519988  37.3451746  23.0023796 114.0779175
  31.7590012  25.6494997 113.5409988  31.9010012  24.7034997 113.5619988
  31.6520012  25.8564997 112.6129988  31.7639919  25.5478246 113.4183408
  24.9130012  23.7504997 110.8139988  24.9570012  24.6104997 110.3949988
  24.4560012  23.1984997 110.1799988  24.8572240  23.7934422 110.6709864
  32.6360012  23.8814997 109.2149988  33.2820012  23.5524997 109.8389988
  33.1460012  24.3994997 108.5919988  32.7934299  23.9064450 109.2162731
  21.5340012  26.1474997 111.5759988  22.1870012  25.5974997 112.0079988
  21.5580012  25.8734997 110.6589988  21.6266683  26.0351466 111.5112123
  26.6900012  27.6974997 110.7909988  27.3060012  27.1714997 111.3009988
  26.1040012  27.0574997 110.3879988  26.6950810  27.5389208 110.8063173
  37.6720012  24.3344997 116.3099988  36.9840012  24.9924997 116.2149988
  37.6880012  24.1374997 117.2469988  37.5799540  24.3979819 116.4235990
  23.7240012  22.6684997 114.8879988  23.5050012  23.1984997 114.1219988
  23.0560012  22.8954997 115.5349988  23.6037600  22.7716906 114.8706379
  31.0930012  32.1684997 108.4319988  30.7970012  31.8464997 107.5809988
  30.7680012  33.0684997 108.4729988  31.0086371  32.2460215 108.3211801
  26.2930012  30.3444997 115.1749988  25.5530012  30.9424997 115.2789988
  27.0070012  30.8984997 114.8599988  26.2882237  30.5012831 115.1466465
  34.4000012  23.1724997 111.1949988  34.1840012  22.4064997 111.7279988
  35.0550012  23.6444997 111.7079988  34.4590632  23.1315889 111.3372861
  23.3170012  24.5604997 112.8399988  23.9310012  25.1934997 113.2129988
  23.8290012  24.0884997 112.1839988  23.4701981  24.5832267 112.8022908
  24.7000012  32.3084997 115.9619988  24.6950012  33.1884997 115.5839988
  23.8470012  32.2254997 116.3869988  24.5839464  32.4176117 115.9677907
  20.8210012  31.9794997 106.7439988  20.5490012  32.2084997 105.8559988
  20.8670012  32.8174997 107.2049988  20.7899482  32.1241318 106.6846273
  34.4460012  33.6014997 113.4569988  33.5050012  33.6594997 113.6189988
  34.7230012  34.5074997 113.3199988  34.3544679  33.7319443 113.4606815
  34.7470012  21.8874997 114.8749988  34.0110012  22.4984997 114.8369988
  35.4300012  22.3024997 114.3479988  34.7386541  22.0271374 114.7985832
  27.7500012  19.9744997 112.3399988  27.6330012  19.0254997 112.2859988
  26.8950012  20.3064997 112.6139988  27.6184212  19.8895571 112.3696497
  32.6980012  35.3824997 110.0819988  33.1240012  34.6754997 109.5969988
  33.0150012  36.1834997 109.6659988  32.7991683  35.3941017 109.9593680
  33.8580012  33.2834997 108.5909988  33.6000012  32.5934997 107.9799988
  33.9290012  32.8404997 109.4369988  33.8322856  33.1292124 108.6216885
  35.5440012  31.8494997 117.0679988  35.6840012  31.2584997 116.3289988
  35.7110012  32.7224997 116.7119988  35.5857411  31.8865428 116.9186894
  30.0170012  28.8114997 106.8409988  29.3050012  29.3464997 106.4889988
  30.7080012  28.8674997 106.1809988  30.0130132  28.8922543 106.7036289
  30.0700012  27.2694997 103.8799988  30.7710012  27.2914997 104.5309988
  30.3730012  26.6414997 103.2229988  30.2068133  27.1877070 103.8803369
  37.3860012  28.1894997 115.1339988  36.7330012  28.8844997 115.2239988
  37.8510012  28.3994997 114.3249988  37.3595274  28.3130643 115.0368462
  33.4220012  29.0214997 107.7929988  32.6900012  29.2494997 108.3659988
  33.8700012  28.3074997 108.2469988  33.3822725  28.9562145 107.9328816
  33.3200012  27.1954997 116.8599988  33.4000012  27.9584997 117.4319988
  32.7180012  27.4744997 116.1699988  33.2495756  27.3377134 116.8450589
  25.0680012  29.6514997 109.6749988  24.7370012  29.2814997 108.8569988
  25.6560012  28.9814997 110.0219988  25.1021873  29.5101156 109.6098102
  26.4340012  33.0794997 112.3559988  26.3400012  32.5014997 111.5999988
  27.1640012  32.7084997 112.8529988  26.5197387  32.9501663 112.3195342
  25.4340012  28.4204997 113.3089988  26.0000012  28.5414997 112.5459988
  25.7530012  29.0574997 113.9469988  25.5545474  28.5232219 113.2909862
  31.7430012  33.9234997 114.0429988  31.5030012  34.5854997 114.6909988
  31.5450012  33.0894997 114.4679988  31.6833808  33.9013134 114.1891524
  26.3140012  32.8194997 118.0259988  26.0030012  33.6014997 118.4809988
  25.6640012  32.6664997 117.3399988  26.1835558  32.9059105 117.9955871
  32.2930012  28.1834997 105.4779988  32.8730012  28.3334997 106.2249988
  32.7070012  28.6544997 104.7539988  32.4282997  28.2676578 105.4824058
  23.2340012  29.0174997 117.2539988  23.3050012  29.6684997 117.9529988
  22.3440012  29.1204997 116.9189988  23.1233005  29.1205427 117.3043495
  30.0200012  34.9204997 108.9129988  30.4940012  35.2154997 109.6899988
  29.4570012  35.6584997 108.6799988  30.0088184  35.0607247 108.9879628
  24.5540012  34.8914997 118.7889988  24.5610012  34.7554997 117.8419988
  23.6380012  34.7734997 119.0409988  24.4311714  34.8569430 118.6934666
  24.0580012  28.7214997 107.2639988  23.7660012  29.4894997 106.7739988
  23.3840012  28.0614997 107.1019988  23.9268111  28.7375587 107.1748978
  20.1510012  31.0844997 116.0789988  19.6500012  31.0564997 115.2639988
  20.1560012  30.1784997 116.3889988  20.0830944  30.9582396 116.0093226
  19.9010012  33.8644997 112.9629988  20.8470012  33.7204997 112.9439988
  19.7890012  34.6484997 113.4999988  20.0152727  33.9508046 113.0330072
  38.0990012  34.5304997 118.6459988  38.0500012  33.5754997 118.6089988
  37.2720012  34.7984997 119.0469988  37.9804940  34.4358998 118.6951375
  29.0780012  34.1044997 117.5219988  29.1650012  34.9304997 117.9969988
  28.2140012  33.7744997 117.7709988  28.9731964  34.1729878 117.6206549
  29.4920012  37.8764997 107.3279988  29.4170012  37.7554997 106.3809988
  29.5250012  38.8264997 107.4459988  29.4862068  37.9882646 107.2144967
  23.1450012  36.6654997 109.1089988  23.2980012  36.3174997 109.9869988
  22.2950012  36.3094997 108.8539988  23.0509166  36.5696217 109.1948079
  32.2630012  36.9564997 107.0789988  31.3270012  37.0564997 107.2579988
  32.5430012  36.2474997 107.6579988  32.1729553  36.8743406 107.1817087
  35.2510012  26.0234997 119.1259988  34.8440012  26.5044997 118.4049988
  35.2920012  25.1184997 118.8179988  35.2008437  25.9669374 118.9856683
  22.4000012  32.4074997 117.1229988  22.6160012  32.0464997 117.9819988
  21.5450012  32.0334997 116.9129988  22.3139292  32.3074111 117.2123386
  25.0190012  20.8774997 113.1179988  24.1570012  20.7904997 112.7099988
  24.9960012  21.7334997 113.5459988  24.8980409  20.9812883 113.1200589
  29.6820012  20.5994997 116.4929988  30.1020012  20.1844997 117.2459988
  28.7490012  20.4214997 116.6099988  29.6133644  20.5185900 116.6119539
  33.0080012  24.3554997 117.3459988  32.4940012  24.2294997 118.1439988
  32.8530012  25.2674997 117.1019988  32.9166852  24.4616132 117.4222158
  25.1100012  25.8434997 114.2129988  24.4680012  25.8024997 114.9219988
  25.1470012  26.7694997 113.9749988  25.0270664  25.9631430 114.2779219
  25.1070012  26.0644997 109.1249988  24.2140012  25.7234997 109.0659988
  25.5570012  25.6874997 108.3689988  25.0458130  25.9669631 109.0147702
  30.6420012  26.4804997 107.9419988  30.2330012  27.2954997 107.6509988
  31.3630012  26.3404997 107.3279988  30.6834537  26.5732018 107.8191342
  29.7440012  26.6554997 119.4299988  29.1820012  25.9514997 119.7509988
  30.5710012  26.5354997 119.8979988  29.7787095  26.5427883 119.5372330
  31.6470012  25.9264997 110.7559988  31.4520012  26.5314997 110.0409988
  31.8280012  25.0924997 110.3219988  31.6447614  25.8966300 110.5994405
  22.8600012  26.1634997 116.0799988  22.8220012  26.5634997 116.9489988
  22.3690012  25.3464997 116.1709988  22.7884684  26.1078069 116.2111059
  19.4680012  23.2794997 109.9309988  20.0990012  23.2504997 110.6499988
  19.9170012  22.8544997 109.1999988  19.6150918  23.2180836 109.9306441
  20.7420012  24.0254997 105.3549988  21.2160012  24.6164997 104.7699988
  20.0250012  24.5564997 105.7019988  20.7099341  24.1780867 105.3218836
  30.9110012  27.5644997 115.4269988  31.2340012  26.9334997 114.7839988
  30.4710012  27.0294997 116.0879988  30.8957484  27.4058387 115.4283198
  27.6880012  23.4914997 110.2109988  26.7770012  23.5484997 110.4999988
  28.1940012  23.4314997 111.0219988  27.6316899  23.4911941 110.3601184
  22.5170012  25.1204997 109.0379988  21.6270012  25.2204997 108.6979988
  22.8130012  24.2784997 108.6919988  22.4352823  25.0203545 108.9447213
  26.1700012  25.1204997 106.6949988  27.1010012  25.2494997 106.8729988
  25.9550012  25.7904997 106.0449988  26.2684247  25.2286565 106.6315747
  32.0930012  22.7264997 113.4759988  31.4170012  22.8574997 114.1399988
  31.6080012  22.5714997 112.6649988  31.9347146  22.7235157 113.4574469
  24.8440012  26.3154997 104.2609988  24.3010012  25.9354997 103.5699988
  25.6770012  26.5094997 103.8329988  24.8823631  26.2897125 104.1084501
  35.3810012  38.3984997 119.7519988  35.5810012  38.8224997 118.9179988
  36.0360012  38.7414997 120.3589988  35.4970072  38.5029857 119.7198592
  22.9790012  30.8724997 119.3599988  23.7110012  31.1264997 119.9219988
  22.1990012  31.0764997 119.8759988  22.9737073  30.9348160 119.5066151
  29.0080012  26.2794997 112.0979988  29.5730012  25.7324997 111.5509988
  28.8610012  25.7574997 112.8869988  29.0653380  26.1342259 112.1298695
  24.0100012  22.4154997 108.5169988  23.6930012  21.5134997 108.4809988
  24.7920012  22.4174997 107.9639988  24.0722408  22.2922474 108.4373569
  27.6350012  24.6674997 114.5119988  26.7990012  25.1214997 114.6229988
  28.1590012  24.9434997 115.2639988  27.5915416  24.7668660 114.6288119
  28.1790012  30.8804997 106.1969988  27.4340012  30.3734997 105.8749988
  28.0450012  30.9294997 107.1439988  28.0588776  30.8176940 106.2808647
  35.3290012  30.0134997 114.9839988  35.9710012  30.4704997 114.4399988
  34.4990012  30.1264997 114.5209988  35.3045963  30.0912704 114.8470177
  32.0770012  23.6944997 104.3959988  31.1380012  23.8064997 104.2449988
  32.3740012  24.5514997 104.7029988  31.9887583  23.8255981 104.4168337
  29.6980012  31.0644997 117.4339988  29.3530012  30.6834997 118.2409988
  29.4980012  31.9984997 117.5049988  29.6237527  31.1385135 117.5540689
  32.7950012  25.5614997 106.0569988  33.6870012  25.4244997 106.3759988
  32.8520012  26.3524997 105.5199988  32.9246504  25.6496052 106.0280818
  23.3040012  30.1754997 111.9669988  24.0490012  30.1734997 111.3659988
  23.3820012  29.3524997 112.4479988  23.4164995  30.0638887 111.9498282
  30.3050012  32.3394997 105.2229988  30.0090012  33.1654997 105.6039988
  29.6020012  31.7194997 105.4189988  30.1694914  32.3688199 105.3016443
  20.3120012  28.6364997 117.2819988  20.5350012  28.2184997 118.1139988
  19.7100012  28.0234997 116.8589988  20.2611759  28.4964668 117.3387022
  27.3280012  28.1534997 119.4949988  27.0320012  27.9874997 118.5999988
  28.2600012  27.9334997 119.4839988  27.4134166  28.1010640 119.3710536
  31.9490012  33.5264997 117.3849988  31.0480012  33.7094997 117.1169988
  31.9830012  33.7854997 118.3049988  31.8303139  33.5865849 117.4728099
  37.6430012  31.5714997 118.5889988  36.7920012  31.8094997 118.2219988
  38.2340012  31.5544997 117.8359988  37.6062487  31.6018258 118.4368893
  35.9750012  34.5574997 106.2169988  35.6020012  33.7314997 106.5259988
  36.2530012  34.3744997 105.3189988  35.9615222  34.4197430 106.1379473
  33.1360012  29.3654997 113.2379988  32.2070012  29.1334997 113.2109988
  33.5870012  28.5884997 112.9079988  33.0699216  29.2287238 113.1896917
  25.6790012  33.6934997 109.3709988  26.2060012  34.4664997 109.1709988
  24.7990012  33.9184997 109.0689988  25.6322031  33.8297545 109.3027912
  27.1060012  31.3564997 108.9469988  26.8650012  32.2814997 108.9889988
  26.3650012  30.8974997 109.3439988  26.9729225  31.4210933 109.0063742
  27.6210012  35.5054997 115.2629988  27.9830012  36.3604997 115.0289988
  28.1520012  35.2134997 116.0029988  27.7424473  35.5831060 115.3310855
  25.7890012  36.3784997 108.4929988  24.8390012  36.4834997 108.5439988
  26.1410012  37.1984997 108.8369988  25.7064195  36.5038800 108.5465502
  31.1650012  31.6044997 114.9629988  30.7390012  31.3774997 115.7899988
  31.7450012  30.8664997 114.7809988  31.1851868  31.4735299 115.0515830
  33.8230012  36.1564997 117.4329988  33.2220012  35.6014997 116.9369988
  34.1050012  36.8234997 116.8059988  33.7788804  36.1706625 117.2804849
  21.9460012  23.3894997 116.8399988  21.0530012  23.7284997 116.7719988
  21.8470012  22.5344997 117.2579988  21.8104164  23.3202588 116.8872235
  34.2340012  31.2064997 106.2639988  33.9560012  30.4784997 106.8199988
  35.1610012  31.3254997 106.4689988  34.3213124  31.1228802 106.3678845
  21.5970012  35.1944997 115.2749988  21.8140012  34.2624997 115.2439988
  21.8430012  35.4684997 116.1579988  21.6599549  35.1040636 115.3901763
  22.8490012  30.4684997 105.4509988  22.1630012  30.8204997 106.0179988
  23.3710012  31.2314997 105.2039988  22.8256852  30.6198578 105.4952118
  30.6800012  23.1304997 115.7299988  31.3790012  23.2044997 116.3799988
  30.2990012  22.2664997 115.8839988  30.7241767  23.0237624 115.8398322
  31.4650012  22.7824997 106.8269988  31.6850012  23.2544997 106.0239988
  32.0230012  23.1774997 107.4969988  31.5704968  22.9004285 106.8077331
  29.1330012  34.9134997 105.6899988  28.3170012  35.4104997 105.7419988
  29.6630012  35.3884997 105.0499988  29.0929161  35.0457722 105.6105956
  28.6650012  24.5104997 107.6619988  29.4770012  25.0154997 107.7079988
  28.4200012  24.3654997 108.5759988  28.7430520  24.5600375 107.7918517
  29.2000012  25.4964997 116.8459988  29.3190012  26.0704997 117.6039988
  29.8560012  24.8084997 116.9609988  29.3049025  25.4819858 116.9651321
  29.5480012  21.5914997 108.5999988  29.2020012  22.2094997 109.2439988
  30.2070012  22.0924997 108.1179988  29.5896968  21.7436278 108.6229383
  25.2060012  22.6544997 105.2869988  25.1230012  23.5434997 105.6339988
  26.0960012  22.3894997 105.5189988  25.3149469  22.7401430 105.3657626
  35.4050012  23.4034997 117.6809988  34.4880012  23.6664997 117.5939988
  35.7400012  23.4004997 116.7849988  35.3248613  23.4390761 117.5478837
  34.0070012  27.1544997 111.7769988  33.2090012  26.7394997 111.4489988
  34.4520012  26.4634997 112.2679988  33.9579885  27.0043543 111.7984889
  35.0930012  36.4104997 113.3999988  34.9380012  37.0884997 112.7419988
  36.0260012  36.4824997 113.6029988  35.1978657  36.5129546 113.3374360
  22.5890012  20.5284997 112.1369988  22.3600012  20.5874997 111.2089988
  22.1460012  19.7364997 112.4429988  22.4978530  20.4295753 112.0514786
  21.5190012  34.4684997 108.2969988  20.6870012  34.9414997 108.3239988
  22.0650012  34.9784997 107.6989988  21.4790352  34.6021332 108.2198463
  20.8070012  37.0814997 119.6269988  21.3480012  36.8644997 120.3869988
  20.3260012  36.2754997 119.4369988  20.8159951  36.9429270 119.7052576
  25.4050012  36.0004997 121.2469988  26.1720012  35.5414997 121.5879988
  25.3830012  35.7744997 120.3179988  25.5071275  35.9070186 121.1680101
  29.4970012  35.5084997 102.6229988  28.8530012  34.8774997 102.9439988
  30.2590012  34.9774997 102.3909988  29.5118077  35.3502920 102.6356011
  31.9820012  34.3804997 119.9769988  31.6310012  33.5244997 120.2199988
  32.7080012  34.5234997 120.5839988  32.0320769  34.2825636 120.0923619
  20.7140012  30.8914997 120.5809988  20.8580012  29.9894997 120.2949988
  19.9420012  31.1774997 120.0939988  20.6292753  30.8066816 120.4759505
  27.3700012  30.8614997 120.0139988  27.0410012  31.1324997 119.1569988
  27.5220012  29.9204997 119.9269988  27.3454809  30.7713862 119.8848244
  30.4080012  32.2824997 102.4499988  30.1390012  32.4624997 103.3509988
  30.2020012  31.3564997 102.3179988  30.3433427  32.1820261 102.5555073
  33.1040012  30.7774997 117.3969988  33.8500012  31.3654997 117.2779988
  32.3470012  31.3594997 117.4609988  33.1037820  30.9367143 117.3893590
  21.5470012  28.0914997 120.0009988  21.9550012  27.2344997 119.8799988
  21.2870012  28.1064997 120.9219988  21.5677568  27.9760807 120.1089588
  26.2050012  29.2074997 105.0199988  25.7450012  28.7234997 105.7059988
  26.4600012  28.5394997 104.3839988  26.1764902  29.0508731 105.0279334
  25.4940012  27.1004997 117.3759988  24.8760012  27.7754997 117.6559988
  25.8380012  27.4214997 116.5419988  25.4559132  27.2362411 117.3016262
  27.2760012  27.4504997 103.2819988  27.0960012  27.2964997 102.3549988
  28.2260012  27.5584997 103.3269988  27.3797776  27.4440175 103.1611843
  30.5140012  29.5724997 120.6529988  31.4670012  29.6554997 120.6259988
  30.3530012  28.8604997 121.2729988  30.6226426  29.4876746 120.7330579
  25.8330012  24.4554997 118.4579988  25.9830012  23.7264997 117.8559988
  25.8360012  25.2324997 117.8989988  25.8539302  24.4607851 118.3000692
  26.2460012  22.8254997 115.9509988  26.7820012  23.2764997 115.2989988
  25.3940012  22.7174997 115.5279988  26.2042178  22.8726390 115.8045756
  27.8280012  28.2644997 116.1899988  28.5780012  28.1084997 115.6169988
  27.4890012  29.1164997 115.9149988  27.8848921  28.3582968 116.0743561
  32.2430012  26.0794997 121.2189988  32.4360012  25.1484997 121.1069988
  33.1010012  26.5044997 121.2079988  32.3852934  26.0096531 121.2022031
  33.5600012  28.8684997 119.2959988  33.2790012  29.5774997 118.7179988
  34.5030012  28.7954997 119.1449988  33.6489291  28.9556711 119.1964967
  24.3120012  25.6534997 120.3699988  23.5450012  25.1214997 120.1589988
  24.9910012  25.3434997 119.7699988  24.2987877  25.5388300 120.2600716
  27.0520012  20.2814997 116.3819988  26.9530012  21.2284997 116.2769988
  26.3090012  19.9094997 115.9059988  26.9381184  20.3605863 116.3033621
  28.3160012  24.6034997 119.9459988  28.0800012  24.3834997 120.8469988
  27.5320012  24.3964997 119.4359988  28.1778504  24.5454586 120.0003431
  31.0310012  23.7304997 119.0209988  30.0840012  23.7624997 119.1539988
  31.3440012  23.1054997 119.6749988  30.9436707  23.6503998 119.1276060
  32.6650012  22.3644997 121.0269988  32.5690012  21.4124997 121.0209988
  32.3440012  22.6334997 121.8869988  32.6084070  22.2704035 121.1425441
  22.4920012  23.5744997 120.0739988  22.7040012  22.8674997 119.4639988
  22.3810012  23.1364997 120.9179988  22.5059721  23.4187084 120.1046843
  27.2730012  19.5754997 119.0529988  27.9850012  18.9354997 119.0389988
  27.1720012  19.8424997 118.1399988  27.3568066  19.5240079 118.9275677
  27.6270012  21.2584997 121.1069988  27.4950012  20.7824997 120.2869988
  27.0280012  22.0024997 121.0519988  27.5279071  21.2939618 120.9872886
  27.1730012  38.1414997 104.2829988  28.1060012  38.2994997 104.4269988
  26.9090012  38.8164997 103.6589988  27.2649888  38.2544510 104.2182842
  20.7420012  32.7774997 103.7659988  21.6560012  32.8564997 104.0399988
  20.7490012  32.0904997 103.0999988  20.8681131  32.6953961 103.7134393
  19.3910012  38.1704997 108.8439988  18.7440012  37.7084997 108.3109988
  19.7450012  37.4984997 109.4259988  19.3503849  38.0164723 108.8497959
  20.2610012  36.2514997 110.6479988  19.9260012  35.3714997 110.8199988
  20.4830012  36.5964997 111.5129988  20.2451783  36.1777500 110.7884208
  37.8090012  37.0604997 113.6289988  37.7880012  37.2454997 114.5679988
  38.5000012  37.6294997 113.2879988  37.8994618  37.1626606 113.7113864
  37.3730012  36.6284997 116.5509988  36.8850012  35.8924997 116.1789988
  37.9220012  36.2344997 117.2289988  37.3804820  36.4745889 116.5917813
  35.8230012  32.4174997 121.1889988  34.9570012  32.3124997 121.5829988
  36.2000012  33.1764997 121.6349988  35.7553308  32.5056900 121.3032393
  37.1240012  30.6744997 106.7029988  37.9740012  31.0954997 106.8299988
  37.1300012  29.9344997 107.3099988  37.2411372  30.6320803 106.8024344
  37.5190012  28.7274997 108.5259988  36.7920012  28.2484997 108.9239988
  38.1000012  28.9334997 109.2589988  37.4980473  28.6898103 108.6794528
  37.2780012  31.5124997 113.4739988  38.1110012  31.1344997 113.1939988
  37.3900012  32.4554997 113.3549988  37.4072647  31.5882218 113.4195487
  35.7640012  34.3904997 115.7809988  35.1170012  34.7154997 116.4069988
  35.2470012  33.9504997 115.1069988  35.6054029  34.3755004 115.7755827
  37.7870012  28.6284997 104.9179988  37.2650012  28.9854997 104.1989988
  37.7540012  29.3034997 105.5959988  37.7111634  28.7685413 104.9113145
  35.3050012  27.2484997 109.0889988  35.1550012  26.3034997 109.0689988
  34.9520012  27.5294997 109.9329988  35.2367448  27.1571481 109.2003705
  20.3410012  29.3264997 113.0999988  20.5250012  29.2444997 112.1639988
  21.1900012  29.2024997 113.5229988  20.4810151  29.2985073 113.0291451
  36.1620012  29.2184997 118.7279988  36.7450012  28.4844997 118.9199988
  36.7260012  29.9904997 118.7749988  36.3179769  29.2224227 118.7606159
  37.6580012  27.1214997 119.4129988  36.7950012  26.7424997 119.2469988
  38.2630012  26.3824997 119.3379988  37.6216119  26.9698268 119.3801528
  35.0160012  24.8314997 107.5519988  35.2960012  23.9244997 107.6759988
  35.7750012  25.2654997 107.1629988  35.1569277  24.7660942 107.5163682
  35.6280012  25.4124997 112.9879988  36.5610012  25.6244997 112.9529988
  35.3930012  25.5144997 113.9099988  35.7239244  25.4553100 113.1078892
  35.6570012  26.1494997 115.7639988  34.8140012  26.4174997 116.1299988
  36.0990012  26.9714997 115.5529988  35.6014158  26.2973291 115.7855491
  19.9380012  24.5974997 119.2409988  20.8580012  24.4754997 119.4769988
  19.4890012  23.8474997 119.6299988  20.0031580  24.4793727 119.3259006
  37.9400012  20.1294997 121.1169988  38.2900012  19.4754997 120.5119988
  38.0870012  20.9664997 120.6769988  38.0077887  20.1531548 120.9746858
  35.6290012  22.0944997 107.5999988  35.8120012  21.6454997 108.4259988
  35.0300012  21.5094997 107.1369988  35.5730202  21.9539975 107.6503275
  21.1590012  22.9094997 112.1319988  21.6050012  22.1174997 112.4339988
  21.6260012  23.6254997 112.5619988  21.2830831  22.8980685 112.2314006
  19.4630012  25.9084997 113.2009988  19.9550012  25.6874997 112.4099988
  19.8260012  26.7494997 113.4819988  19.5793126  25.9918357 113.1307531
  37.4600012  22.2384997 119.4659988  36.5420012  22.5094997 119.4309988
  37.5830012  21.7034997 118.6819988  37.3509729  22.2032508 119.3551923
  19.7770012  22.1664997 107.2549988  18.8520012  22.3754997 107.1259988
  20.2310012  22.6504997 106.5649988  19.7117292  22.2605343 107.1440720
  34.5480012  37.1504997 109.2009988  35.2000012  36.8034997 108.5929988
  35.0580012  37.6394997 109.8469988  34.7062637  37.1690597 109.2050236
  19.7410012  20.9044997 115.5989988  19.0760012  20.6584997 116.2429988
  19.2980012  21.5264997 115.0219988  19.5901318  20.9549410 115.6090898
  21.9330012  34.0794997 119.7439988  21.1120012  34.2544997 119.2829988
  21.6800012  34.0064997 120.6639988  21.7865585  34.0935544 119.8053561
  24.8870012  35.0544997 116.0019988  24.4620012  35.8634997 115.7199988
  25.7910012  35.1394997 115.6999988  24.9509975  35.1769300 115.9224816
  29.1980012  36.4534997 118.9619988  29.3830012  36.1194997 119.8399988
  30.0440012  36.7624997 118.6399988  29.3377539  36.4496047 119.0385605
  31.5430012  37.7394997 118.2059988  32.2200012  37.1064997 117.9659988
  31.8650012  38.1404997 119.0129988  31.6791637  37.7071154 118.2822793
  36.4600012  20.3284997 117.2849988  35.6480012  20.6534997 116.8979988
  36.6930012  19.5684997 116.7519988  36.3802203  20.2702758 117.1598880
  22.2890012  38.3104997 116.0499988  21.5680012  38.7504997 115.5989988
  21.9230012  38.0594997 116.8979988  22.1409651  38.3367242 116.1029640
  24.7560012  37.9104997 115.0799988  23.8910012  37.9824997 115.4839988
  24.7010012  38.4574997 114.2959988  24.6302085  37.9942685 115.0293362
  29.4660012  37.7984997 114.2549988  29.0100012  38.3274997 113.6009988
  29.6290012  38.4014997 114.9799988  29.4256068  37.9524607 114.2634838
  31.7940012  36.6764997 115.1999988  30.8890012  36.8414997 114.9339988
  32.2230012  37.5294997 115.1349988  31.7281324  36.8144339 115.1547976
  34.3980012  38.2464997 115.4949988  34.2160012  39.1624997 115.2849988
  34.5750012  37.8364997 114.6489988  34.3970210  38.3164822 115.3517885
  21.7030012  36.9334997 112.9599988  21.6850012  36.5084997 113.8169988
  22.5080012  36.6154997 112.5509988  21.8093529  36.8323013 113.0220946
  23.8450012  35.6434997 111.6149988  23.6260012  34.7274997 111.7849988
  24.6690012  35.7834997 112.0809988  23.9264420  35.5370520 111.7012773
  26.3820012  36.1134997 112.4639988  26.5950012  35.2254997 112.1769988
  26.4460012  36.0794997 113.4179988  26.4198231  35.9873102 112.5537397
  29.8900012  21.7774997 111.6079988  29.2160012  21.1484997 111.8639988
  30.4540012  21.2934997 111.0049988  29.8739230  21.6258744 111.5615340
  35.0330012  19.8854997 111.7209988  35.6370012  20.4324997 111.2189988
  34.1630012  20.2044997 111.4799988  34.9981208  20.0035137 111.6196886
  36.7600012  21.0234997 110.0539988  37.3720012  20.5094997 109.5269988
  37.1420012  21.9014997 110.0769988  36.8953371  21.0717866 109.9850041
  22.2170012  20.4114997 109.4299988  21.4400012  20.1774997 108.9229988
  22.7470012  19.6144997 109.4389988  22.1822330  20.2716988 109.3617742
  21.0530012  20.2094997 105.2339988  21.4920012  20.8204997 104.6419988
  20.4200012  20.7474997 105.7079988  21.0274514  20.3659257 105.2170930
  26.7960012  20.3384997 109.2439988  27.6710012  20.7264997 109.2139988
  26.6600012  20.1234997 110.1659988  26.8973695  20.3625184 109.3646440
  32.3530012  20.3684997 110.8929988  32.4290012  20.4634997 109.9429988
  32.0780012  19.4604997 111.0219988  32.3262321  20.2587867 110.7805079
  33.7060012  20.3944997 106.5849988  33.0040012  21.0094997 106.3749988
  33.2620012  19.5564997 106.7159988  33.5496450  20.3655639 106.5739000
  20.9540012  36.1574997 106.1309988  20.2690012  36.1194997 105.4639988
  20.9580012  37.0704997 106.4199988  20.8606998  36.2756733 106.0786771
  22.9140012  22.1254997 103.6759988  23.4060012  21.4954997 103.1489988
  23.5380012  22.4214997 104.3389988  23.0655688  22.0793804 103.6935482
  27.9400012  22.4184997 106.1329988  28.1180012  21.7724997 106.8159988
  27.8870012  23.2524997 106.5999988  27.9571999  22.4428009 106.2895917
  29.8190012  37.3674997 104.5289988  30.6850012  37.7334997 104.3509988
  29.5720012  36.9274997 103.7149988  29.9042392  37.3581756 104.3946289
  36.5280012  36.9304997 107.2079988  36.3330012  36.1824997 106.6429988
  36.4890012  37.6884997 106.6249988  36.4960380  36.9306099 107.0518384
  22.1750012  20.9254997 118.9479988  21.8090012  20.1604997 119.3899988
  23.0880012  20.9544997 119.2339988  22.2482736  20.8245640 119.0472502
  24.1480012  20.2764997 120.4839988  25.0460012  20.0024997 120.2989988
  23.7610012  19.5334997 120.9479988  24.2186612  20.1385914 120.5213643
  22.7720012  37.0774997 103.1569988  22.5050012  37.3644997 104.0299988
  23.5440012  36.5314997 103.3089988  22.8397488  37.0430294 103.2971050
  32.5690012  19.6084997 120.6659988  32.6460012  19.1824997 121.5199988
  33.4630012  19.6224997 120.3229988  32.7003428  19.5520879 120.7365310
  35.7450012  35.6814997 119.3579988  34.9630012  35.4954997 118.8379988
  35.6730012  36.6104997 119.5759988  35.6282274  35.7816643 119.3163018
  50.1510012  29.5674997 109.3889988  50.2400012  30.5114997 109.2569988
  49.5130012  29.2924997 108.7309988  50.0769081  29.6594830 109.2819614
  49.0840012  28.8224997 112.8079988  49.0460012  28.1764997 113.5129988
  48.7620012  28.3564997 112.0369988  49.0352333  28.6709408 112.8002978
  41.4530012  28.4374997 114.4009988  41.4940012  27.8114997 115.1239988
  42.1560012  29.0614997 114.5829988  41.5536363  28.4361196 114.5246044
  52.7900012  31.7614997 111.1089988  52.3500012  31.0414997 111.5599988
  52.7770012  32.4824997 111.7389988  52.7280226  31.7603731 111.2558494
  42.3760012  32.8874997 112.9359988  42.0070012  32.0854997 112.5659988
  43.3170012  32.7184997 112.9819988  42.4527289  32.7550153 112.8916316
  38.9860012  26.5474997 108.3289988  38.5390012  27.3934997 108.3099988
  38.4250012  25.9674997 107.8129988  38.8489900  26.5849916 108.2566801
  39.6970012  28.7094997 110.4539988  39.9100012  27.9394997 110.9819988
  40.4350012  28.7984997 109.8509988  39.8259044  28.6161968 110.4447123
  49.9020012  36.8664997 111.3209988  50.5220012  36.1894997 111.0479988
  49.6940012  36.6484997 112.2299988  49.9586726  36.7444800 111.4064812
  47.4740012  31.2554997 113.2139988  47.7780012  30.5694997 112.6189988
  48.1950012  31.3734997 113.8319988  47.6130671  31.1776304 113.2161816
  56.1370012  22.8564997 114.0749988  56.1860012  23.4664997 114.8099988
  56.5620012  23.3174997 113.3519988  56.2011746  23.0023796 114.0779175
  50.6150012  25.6494997 113.5409988  50.7570012  24.7034997 113.5619988
  50.5080012  25.8564997 112.6129988  50.6199919  25.5478246 113.4183408
  43.7690012  23.7504997 110.8139988  43.8130012  24.6104997 110.3949988
  43.3120012  23.1984997 110.1799988  43.7132240  23.7934422 110.6709864
  51.4920012  23.8814997 109.2149988  52.1380012  23.5524997 109.8389988
  52.0020012  24.3994997 108.5919988  51.6494299  23.9064450 109.2162731
  40.3900012  26.1474997 111.5759988  41.0430012  25.5974997 112.0079988
  40.4140012  25.8734997 110.6589988  40.4826683  26.0351466 111.5112123
  45.5460012  27.6974997 110.7909988  46.1620012  27.1714997 111.3009988
  44.9600012  27.0574997 110.3879988  45.5510810  27.5389208 110.8063173
  56.5280012  24.3344997 116.3099988  55.8400012  24.9924997 116.2149988
  56.5440012  24.1374997 117.2469988  56.4359540  24.3979819 116.4235990
  42.5800012  22.6684997 114.8879988  42.3610012  23.1984997 114.1219988
  41.9120012  22.8954997 115.5349988  42.4597600  22.7716906 114.8706379
  49.9490012  32.1684997 108.4319988  49.6530012  31.8464997 107.5809988
  49.6240012  33.0684997 108.4729988  49.8646371  32.2460215 108.3211801
  45.1490012  30.3444997 115.1749988  44.4090012  30.9424997 115.2789988
  45.8630012  30.8984997 114.8599988  45.1442237  30.5012831 115.1466465
  53.2560012  23.1724997 111.1949988  53.0400012  22.4064997 111.7279988
  53.9110012  23.6444997 111.7079988  53.3150632  23.1315889 111.3372861
  42.1730012  24.5604997 112.8399988  42.7870012  25.1934997 113.2129988
  42.6850012  24.0884997 112.1839988  42.3261981  24.5832267 112.8022908
  43.5560012  32.3084997 115.9619988  43.5510012  33.1884997 115.5839988
  42.7030012  32.2254997 116.3869988  43.4399464  32.4176117 115.9677907
  39.6770012  31.9794997 106.7439988  39.4050012  32.2084997 105.8559988
  39.7230012  32.8174997 107.2049988  39.6459482  32.1241318 106.6846273
  53.3020012  33.6014997 113.4569988  52.3610012  33.6594997 113.6189988
  53.5790012  34.5074997 113.3199988  53.2104679  33.7319443 113.4606815
  53.6030012  21.8874997 114.8749988  52.8670012  22.4984997 114.8369988
  54.2860012  22.3024997 114.3479988  53.5946541  22.0271374 114.7985832
  46.6060012  19.9744997 112.3399988  46.4890012  19.0254997 112.2859988
  45.7510012  20.3064997 112.6139988  46.4744212  19.8895571 112.3696497
  51.5540012  35.3824997 110.0819988  51.9800012  34.6754997 109.5969988
  51.8710012  36.1834997 109.6659988  51.6551683  35.3941017 109.9593680
  52.7140012  33.2834997 108.5909988  52.4560012  32.5934997 107.9799988
  52.7850012  32.8404997 109.4369988  52.6882856  33.1292124 108.6216885
  54.4000012  31.8494997 117.0679988  54.5400012  31.2584997 116.3289988
  54.5670012  32.7224997 116.7119988  54.4417411  31.8865428 116.9186894
  48.8730012  28.8114997 106.8409988  48.1610012  29.3464997 106.4889988
  49.5640012  28.8674997 106.1809988  48.8690132  28.8922543 106.7036289
  56.2420012  28.1894997 115.1339988  55.5890012  28.8844997 115.2239988
  56.7070012  28.3994997 114.3249988  56.2155274  28.3130643 115.0368462
  52.2780012  29.0214997 107.7929988  51.5460012  29.2494997 108.3659988
  52.7260012  28.3074997 108.2469988  52.2382725  28.9562145 107.9328816
  52.1760012  27.1954997 116.8599988  52.2560012  27.9584997 117.4319988
  51.5740012  27.4744997 116.1699988  52.1055756  27.3377134 116.8450589
  43.9240012  29.6514997 109.6749988  43.5930012  29.2814997 108.8569988
  44.5120012  28.9814997 110.0219988  43.9581873  29.5101156 109.6098102
  45.2900012  33.0794997 112.3559988  45.1960012  32.5014997 111.5999988
  46.0200012  32.7084997 112.8529988  45.3757387  32.9501663 112.3195342
  44.2900012  28.4204997 113.3089988  44.8560012  28.5414997 112.5459988
  44.6090012  29.0574997 113.9469988  44.4105474  28.5232219 113.2909862
  50.5990012  33.9234997 114.0429988  50.3590012  34.5854997 114.6909988
  50.4010012  33.0894997 114.4679988  50.5393808  33.9013134 114.1891524
  45.1700012  32.8194997 118.0259988  44.8590012  33.6014997 118.4809988
  44.5200012  32.6664997 117.3399988  45.0395558  32.9059105 117.9955871
  51.1490012  28.1834997 105.4779988  51.7290012  28.3334997 106.2249988
  51.5630012  28.6544997 104.7539988  51.2842997  28.2676578 105.4824058
  42.0900012  29.0174997 117.2539988  42.1610012  29.6684997 117.9529988
  41.2000012  29.1204997 116.9189988  41.9793005  29.1205427 117.3043495
  48.8760012  34.9204997 108.9129988  49.3500012  35.2154997 109.6899988
  48.3130012  35.6584997 108.6799988  48.8648184  35.0607247 108.9879628
  43.4100012  34.8914997 118.7889988  43.4170012  34.7554997 117.8419988
  42.4940012  34.7734997 119.0409988  43.2871714  34.8569430 118.6934666
  54.8480012  19.9334997 105.2909988  53.9480012  20.0724997 105.5859988
  55.1000012  20.7644997 104.8889988  54.7588702  20.0649074 105.2770205
  42.9140012  28.7214997 107.2639988  42.6220012  29.4894997 106.7739988
  42.2400012  28.0614997 107.1019988  42.7828111  28.7375587 107.1748978
  39.0070012  31.0844997 116.0789988  38.5060012  31.0564997 115.2639988
  39.0120012  30.1784997 116.3889988  38.9390944  30.9582396 116.0093226
  38.7570012  33.8644997 112.9629988  39.7030012  33.7204997 112.9439988
  38.6450012  34.6484997 113.4999988  38.8712727  33.9508046 113.0330072
  56.9550012  34.5304997 118.6459988  56.9060012  33.5754997 118.6089988
  56.1280012  34.7984997 119.0469988  56.8364940  34.4358998 118.6951375
  47.9340012  34.1044997 117.5219988  48.0210012  34.9304997 117.9969988
  47.0700012  33.7744997 117.7709988  47.8291964  34.1729878 117.6206549
  48.3480012  37.8764997 107.3279988  48.2730012  37.7554997 106.3809988
  48.3810012  38.8264997 107.4459988  48.3422068  37.9882646 107.2144967
  42.0010012  36.6654997 109.1089988  42.1540012  36.3174997 109.9869988
  41.1510012  36.3094997 108.8539988  41.9069166  36.5696216 109.1948079
  51.4500012  37.0304997 104.3299988  51.8250012  36.2864997 103.8589988
  51.4540012  36.7604997 105.2489988  51.5019125  36.8920986 104.3896483
  51.1190012  36.9564997 107.0789988  50.1830012  37.0564997 107.2579988
  51.3990012  36.2474997 107.6579988  51.0289553  36.8743406 107.1817087
  54.1070012  26.0234997 119.1259988  53.7000012  26.5044997 118.4049988
  54.1480012  25.1184997 118.8179988  54.0568437  25.9669374 118.9856683
  41.2560012  32.4074997 117.1229988  41.4720012  32.0464997 117.9819988
  40.4010012  32.0334997 116.9129988  41.1699292  32.3074111 117.2123386
  43.8750012  20.8774997 113.1179988  43.0130012  20.7904997 112.7099988
  43.8520012  21.7334997 113.5459988  43.7540409  20.9812883 113.1200589
  48.5380012  20.5994997 116.4929988  48.9580012  20.1844997 117.2459988
  47.6050012  20.4214997 116.6099988  48.4693644  20.5185900 116.6119539
  51.8640012  24.3554997 117.3459988  51.3500012  24.2294997 118.1439988
  51.7090012  25.2674997 117.1019988  51.7726852  24.4616132 117.4222158
  52.6270012  29.2164997 103.1079988  52.6690012  28.9934997 102.1779988
  53.4760012  29.6154997 103.2969988  52.7475280  29.2399438 103.0063554
  43.9660012  25.8434997 114.2129988  43.3240012  25.8024997 114.9219988
  44.0030012  26.7694997 113.9749988  43.8830664  25.9631430 114.2779219
  43.9630012  26.0644997 109.1249988  43.0700012  25.7234997 109.0659988
  44.4130012  25.6874997 108.3689988  43.9018130  25.9669631 109.0147702
  49.4980012  26.4804997 107.9419988  49.0890012  27.2954997 107.6509988
  50.2190012  26.3404997 107.3279988  49.5394537  26.5732018 107.8191342
  48.6000012  26.6554997 119.4299988  48.0380012  25.9514997 119.7509988
  49.4270012  26.5354997 119.8979988  48.6347095  26.5427883 119.5372330
  50.5030012  25.9264997 110.7559988  50.3080012  26.5314997 110.0409988
  50.6840012  25.0924997 110.3219988  50.5007614  25.8966300 110.5994405
  41.7160012  26.1634997 116.0799988  41.6780012  26.5634997 116.9489988
  41.2250012  25.3464997 116.1709988  41.6444684  26.1078069 116.2111059
  38.3240012  23.2794997 109.9309988  38.9550012  23.2504997 110.6499988
  38.7730012  22.8544997 109.1999988  38.4710918  23.2180836 109.9306441
  49.7670012  27.5644997 115.4269988  50.0900012  26.9334997 114.7839988
  49.3270012  27.0294997 116.0879988  49.7517484  27.4058387 115.4283198
  46.5440012  23.4914997 110.2109988  45.6330012  23.5484997 110.4999988
  47.0500012  23.4314997 111.0219988  46.4876899  23.4911941 110.3601184
  41.3730012  25.1204997 109.0379988  40.4830012  25.2204997 108.6979988
  41.6690012  24.2784997 108.6919988  41.2912823  25.0203545 108.9447213
  45.0260012  25.1204997 106.6949988  45.9570012  25.2494997 106.8729988
  44.8110012  25.7904997 106.0449988  45.1244247  25.2286565 106.6315747
  50.9490012  22.7264997 113.4759988  50.2730012  22.8574997 114.1399988
  50.4640012  22.5714997 112.6649988  50.7907146  22.7235157 113.4574469
  43.7000012  26.3154997 104.2609988  43.1570012  25.9354997 103.5699988
  44.5330012  26.5094997 103.8329988  43.7383631  26.2897125 104.1084501
  54.2370012  38.3984997 119.7519988  54.4370012  38.8224997 118.9179988
  54.8920012  38.7414997 120.3589988  54.3530072  38.5029857 119.7198592
  41.8350012  30.8724997 119.3599988  42.5670012  31.1264997 119.9219988
  41.0550012  31.0764997 119.8759988  41.8297073  30.9348160 119.5066151
  47.8640012  26.2794997 112.0979988  48.4290012  25.7324997 111.5509988
  47.7170012  25.7574997 112.8869988  47.9213380  26.1342259 112.1298695
  42.8660012  22.4154997 108.5169988  42.5490012  21.5134997 108.4809988
  43.6480012  22.4174997 107.9639988  42.9282408  22.2922474 108.4373569
  46.4910012  24.6674997 114.5119988  45.6550012  25.1214997 114.6229988
  47.0150012  24.9434997 115.2639988  46.4475416  24.7668660 114.6288119
  47.0350012  30.8804997 106.1969988  46.2900012  30.3734997 105.8749988
  46.9010012  30.9294997 107.1439988  46.9148776  30.8176940 106.2808647
  54.1850012  30.0134997 114.9839988  54.8270012  30.4704997 114.4399988
  53.3550012  30.1264997 114.5209988  54.1605963  30.0912704 114.8470177
  50.9330012  23.6944997 104.3959988  49.9940012  23.8064997 104.2449988
  51.2300012  24.5514997 104.7029988  50.8447583  23.8255981 104.4168337
  48.5540012  31.0644997 117.4339988  48.2090012  30.6834997 118.2409988
  48.3540012  31.9984997 117.5049988  48.4797527  31.1385135 117.5540689
  51.6510012  25.5614997 106.0569988  52.5430012  25.4244997 106.3759988
  51.7080012  26.3524997 105.5199988  51.7806504  25.6496052 106.0280818
  42.1600012  30.1754997 111.9669988  42.9050012  30.1734997 111.3659988
  42.2380012  29.3524997 112.4479988  42.2724995  30.0638887 111.9498282
  49.1610012  32.3394997 105.2229988  48.8650012  33.1654997 105.6039988
  48.4580012  31.7194997 105.4189988  49.0254914  32.3688199 105.3016443
  39.1680012  28.6364997 117.2819988  39.3910012  28.2184997 118.1139988
  38.5660012  28.0234997 116.8589988  39.1171759  28.4964668 117.3387022
  46.1840012  28.1534997 119.4949988  45.8880012  27.9874997 118.5999988
  47.1160012  27.9334997 119.4839988  46.2694166  28.1010640 119.3710536
  50.8050012  33.5264997 117.3849988  49.9040012  33.7094997 117.1169988
  50.8390012  33.7854997 118.3049988  50.6863139  33.5865849 117.4728099
  56.4990012  31.5714997 118.5889988  55.6480012  31.8094997 118.2219988
  57.0900012  31.5544997 117.8359988  56.4622487  31.6018258 118.4368893
  54.8310012  34.5574997 106.2169988  54.4580012  33.7314997 106.5259988
  55.1090012  34.3744997 105.3189988  54.8175222  34.4197430 106.1379473
  51.9920012  29.3654997 113.2379988  51.0630012  29.1334997 113.2109988
  52.4430012  28.5884997 112.9079988  51.9259216  29.2287238 113.1896917
  44.5350012  33.6934997 109.3709988  45.0620012  34.4664997 109.1709988
  43.6550012  33.9184997 109.0689988  44.4882031  33.8297545 109.3027912
  45.9620012  31.3564997 108.9469988  45.7210012  32.2814997 108.9889988
  45.2210012  30.8974997 109.3439988  45.8289225  31.4210933 109.0063742
  46.4770012  35.5054997 115.2629988  46.8390012  36.3604997 115.0289988
  47.0080012  35.2134997 116.0029988  46.5984473  35.5831060 115.3310855
  44.6450012  36.3784997 108.4929988  43.6950012  36.4834997 108.5439988
  44.9970012  37.1984997 108.8369988  44.5624195  36.5038800 108.5465502
  50.0210012  31.6044997 114.9629988  49.5950012  31.3774997 115.7899988
  50.6010012  30.8664997 114.7809988  50.0411868  31.4735299 115.0515830
  52.2240012  32.5334997 104.0369988  52.5770012  32.1534997 104.8409988
  51.2750012  32.4404997 104.1239988  52.1440918  32.4688956 104.1588532
  52.6790012  36.1564997 117.4329988  52.0780012  35.6014997 116.9369988
  52.9610012  36.8234997 116.8059988  52.6348804  36.1706625 117.2804849
  40.8020012  23.3894997 116.8399988  39.9090012  23.7284997 116.7719988
  40.7030012  22.5344997 117.2579988  40.6664164  23.3202588 116.8872235
  53.0900012  31.2064997 106.2639988  52.8120012  30.4784997 106.8199988
  54.0170012  31.3254997 106.4689988  53.1773124  31.1228802 106.3678845
  40.4530012  35.1944997 115.2749988  40.6700012  34.2624997 115.2439988
  40.6990012  35.4684997 116.1579988  40.5159549  35.1040636 115.3901763
  45.2520012  33.2154997 104.9399988  45.3980012  32.6954997 105.7299988
  45.2490012  34.1224997 105.2469988  45.2715792  33.2668842 105.0896117
  41.7050012  30.4684997 105.4509988  41.0190012  30.8204997 106.0179988
  42.2270012  31.2314997 105.2039988  41.6816852  30.6198578 105.4952118
  49.5360012  23.1304997 115.7299988  50.2350012  23.2044997 116.3799988
  49.1550012  22.2664997 115.8839988  49.5801767  23.0237624 115.8398322
  50.3210012  22.7824997 106.8269988  50.5410012  23.2544997 106.0239988
  50.8790012  23.1774997 107.4969988  50.4264968  22.9004285 106.8077331
  47.9890012  34.9134997 105.6899988  47.1730012  35.4104997 105.7419988
  48.5190012  35.3884997 105.0499988  47.9489161  35.0457722 105.6105956
  47.5210012  24.5104997 107.6619988  48.3330012  25.0154997 107.7079988
  47.2760012  24.3654997 108.5759988  47.5990520  24.5600375 107.7918517
  48.0560012  25.4964997 116.8459988  48.1750012  26.0704997 117.6039988
  48.7120012  24.8084997 116.9609988  48.1609025  25.4819858 116.9651321
  48.4040012  21.5914997 108.5999988  48.0580012  22.2094997 109.2439988
  49.0630012  22.0924997 108.1179988  48.4456968  21.7436278 108.6229383
  45.3280012  35.9574997 105.6709988  45.4880012  36.7564997 105.1709988
  45.1300012  36.2634997 106.5559988  45.3231637  36.1084020 105.7221144
  44.0620012  22.6544997 105.2869988  43.9790012  23.5434997 105.6339988
  44.9520012  22.3894997 105.5189988  44.1709469  22.7401430 105.3657626
  54.2610012  23.4034997 117.6809988  53.3440012  23.6664997 117.5939988
  54.5960012  23.4004997 116.7849988  54.1808613  23.4390761 117.5478837
  52.8630012  27.1544997 111.7769988  52.0650012  26.7394997 111.4489988
  53.3080012  26.4634997 112.2679988  52.8139885  27.0043543 111.7984889
  53.9490012  36.4104997 113.3999988  53.7940012  37.0884997 112.7419988
  54.8820012  36.4824997 113.6029988  54.0538657  36.5129546 113.3374360
  41.4450012  20.5284997 112.1369988  41.2160012  20.5874997 111.2089988
  41.0020012  19.7364997 112.4429988  41.3538530  20.4295753 112.0514786
  40.3750012  34.4684997 108.2969988  39.5430012  34.9414997 108.3239988
  40.9210012  34.9784997 107.6989988  40.3350352  34.6021332 108.2198463
  39.6630012  37.0814997 119.6269988  40.2040012  36.8644997 120.3869988
  39.1820012  36.2754997 119.4369988  39.6719951  36.9429270 119.7052576
  44.2610012  36.0004997 121.2469988  45.0280012  35.5414997 121.5879988
  44.2390012  35.7744997 120.3179988  44.3631275  35.9070186 121.1680101
  50.8380012  34.3804997 119.9769988  50.4870012  33.5244997 120.2199988
  51.5640012  34.5234997 120.5839988  50.8880769  34.2825636 120.0923619
  39.5700012  30.8914997 120.5809988  39.7140012  29.9894997 120.2949988
  38.7980012  31.1774997 120.0939988  39.4852753  30.8066816 120.4759505
  46.2260012  30.8614997 120.0139988  45.8970012  31.1324997 119.1569988
  46.3780012  29.9204997 119.9269988  46.2014809  30.7713862 119.8848244
  51.9600012  30.7774997 117.3969988  52.7060012  31.3654997 117.2779988
  51.2030012  31.3594997 117.4609988  51.9597820  30.9367143 117.3893590
  40.4030012  28.0914997 120.0009988  40.8110012  27.2344997 119.8799988
  40.1430012  28.1064997 120.9219988  40.4237568  27.9760807 120.1089588
  44.3500012  27.1004997 117.3759988  43.7320012  27.7754997 117.6559988
  44.6940012  27.4214997 116.5419988  44.3119132  27.2362411 117.3016262
  49.3700012  29.5724997 120.6529988  50.3230012  29.6554997 120.6259988
  49.2090012  28.8604997 121.2729988  49.4786426  29.4876746 120.7330579
  55.5220012  29.8054997 102.7279988  55.2480012  29.3804997 101.9149988
  55.5610012  30.7364997 102.5109988  55.4897699  29.8732484 102.5873610
  44.6890012  24.4554997 118.4579988  44.8390012  23.7264997 117.8559988
  44.6920012  25.2324997 117.8989988  44.7099302  24.4607851 118.3000692
  45.1020012  22.8254997 115.9509988  45.6380012  23.2764997 115.2989988
  44.2500012  22.7174997 115.5279988  45.0602178  22.8726390 115.8045756
  46.6840012  28.2644997 116.1899988  47.4340012  28.1084997 115.6169988
  46.3450012  29.1164997 115.9149988  46.7408921  28.3582968 116.0743561
  51.0990012  26.0794997 121.2189988  51.2920012  25.1484997 121.1069988
  51.9570012  26.5044997 121.2079988  51.2412934  26.0096531 121.2022031
  52.4160012  28.8684997 119.2959988  52.1350012  29.5774997 118.7179988
  53.3590012  28.7954997 119.1449988  52.5049291  28.9556711 119.1964967
  43.1680012  25.6534997 120.3699988  42.4010012  25.1214997 120.1589988
  43.8470012  25.3434997 119.7699988  43.1547877  25.5388300 120.2600716
  45.9080012  20.2814997 116.3819988  45.8090012  21.2284997 116.2769988
  45.1650012  19.9094997 115.9059988  45.7941184  20.3605863 116.3033621
  47.1720012  24.6034997 119.9459988  46.9360012  24.3834997 120.8469988
  46.3880012  24.3964997 119.4359988  47.0338504  24.5454586 120.0003431
  49.8870012  23.7304997 119.0209988  48.9400012  23.7624997 119.1539988
  50.2000012  23.1054997 119.6749988  49.7996707  23.6503998 119.1276060
  51.5210012  22.3644997 121.0269988  51.4250012  21.4124997 121.0209988
  51.2000012  22.6334997 121.8869988  51.4644070  22.2704035 121.1425441
  41.3480012  23.5744997 120.0739988  41.5600012  22.8674997 119.4639988
  41.2370012  23.1364997 120.9179988  41.3619721  23.4187084 120.1046843
  46.1290012  19.5754997 119.0529988  46.8410012  18.9354997 119.0389988
  46.0280012  19.8424997 118.1399988  46.2128066  19.5240079 118.9275677
  46.4830012  21.2584997 121.1069988  46.3510012  20.7824997 120.2869988
  45.8840012  22.0024997 121.0519988  46.3839071  21.2939618 120.9872886
  38.2470012  38.1704997 108.8439988  37.6000012  37.7084997 108.3109988
  38.6010012  37.4984997 109.4259988  38.2063849  38.0164723 108.8497959
  39.1170012  36.2514997 110.6479988  38.7820012  35.3714997 110.8199988
  39.3390012  36.5964997 111.5129988  39.1011783  36.1777500 110.7884208
  56.6650012  37.0604997 113.6289988  56.6440012  37.2454997 114.5679988
  57.3560012  37.6294997 113.2879988  56.7554618  37.1626606 113.7113864
  56.2290012  36.6284997 116.5509988  55.7410012  35.8924997 116.1789988
  56.7780012  36.2344997 117.2289988  56.2364820  36.4745889 116.5917813
  54.6790012  32.4174997 121.1889988  53.8130012  32.3124997 121.5829988
  55.0560012  33.1764997 121.6349988  54.6113308  32.5056900 121.3032393
  55.9800012  30.6744997 106.7029988  56.8300012  31.0954997 106.8299988
  55.9860012  29.9344997 107.3099988  56.0971372  30.6320803 106.8024344
  56.3750012  28.7274997 108.5259988  55.6480012  28.2484997 108.9239988
  56.9560012  28.9334997 109.2589988  56.3540473  28.6898103 108.6794528
  56.1340012  31.5124997 113.4739988  56.9670012  31.1344997 113.1939988
  56.2460012  32.4554997 113.3549988  56.2632647  31.5882218 113.4195487
  54.6200012  34.3904997 115.7809988  53.9730012  34.7154997 116.4069988
  54.1030012  33.9504997 115.1069988  54.4614029  34.3755004 115.7755827
  54.1610012  27.2484997 109.0889988  54.0110012  26.3034997 109.0689988
  53.8080012  27.5294997 109.9329988  54.0927448  27.1571481 109.2003705
  39.1970012  29.3264997 113.0999988  39.3810012  29.2444997 112.1639988
  40.0460012  29.2024997 113.5229988  39.3370151  29.2985073 113.0291451
  55.0180012  29.2184997 118.7279988  55.6010012  28.4844997 118.9199988
  55.5820012  29.9904997 118.7749988  55.1739769  29.2224227 118.7606159
  56.5140012  27.1214997 119.4129988  55.6510012  26.7424997 119.2469988
  57.1190012  26.3824997 119.3379988  56.4776119  26.9698268 119.3801528
  53.8720012  24.8314997 107.5519988  54.1520012  23.9244997 107.6759988
  54.6310012  25.2654997 107.1629988  54.0129277  24.7660942 107.5163682
  54.4840012  25.4124997 112.9879988  55.4170012  25.6244997 112.9529988
  54.2490012  25.5144997 113.9099988  54.5799244  25.4553100 113.1078892
  54.5130012  26.1494997 115.7639988  53.6700012  26.4174997 116.1299988
  54.9550012  26.9714997 115.5529988  54.4574158  26.2973291 115.7855491
  38.7940012  24.5974997 119.2409988  39.7140012  24.4754997 119.4769988
  38.3450012  23.8474997 119.6299988  38.8591580  24.4793727 119.3259006
  56.7960012  20.1294997 121.1169988  57.1460012  19.4754997 120.5119988
  56.9430012  20.9664997 120.6769988  56.8637887  20.1531548 120.9746858
  54.4850012  22.0944997 107.5999988  54.6680012  21.6454997 108.4259988
  53.8860012  21.5094997 107.1369988  54.4290202  21.9539975 107.6503275
  40.0150012  22.9094997 112.1319988  40.4610012  22.1174997 112.4339988
  40.4820012  23.6254997 112.5619988  40.1390831  22.8980685 112.2314006
  38.3190012  25.9084997 113.2009988  38.8110012  25.6874997 112.4099988
  38.6820012  26.7494997 113.4819988  38.4353126  25.9918357 113.1307531
  56.3160012  22.2384997 119.4659988  55.3980012  22.5094997 119.4309988
  56.4390012  21.7034997 118.6819988  56.2069729  22.2032508 119.3551923
  38.6330012  22.1664997 107.2549988  37.7080012  22.3754997 107.1259988
  39.0870012  22.6504997 106.5649988  38.5677292  22.2605343 107.1440720
  53.4040012  37.1504997 109.2009988  54.0560012  36.8034997 108.5929988
  53.9140012  37.6394997 109.8469988  53.5622637  37.1690597 109.2050236
  38.5970012  20.9044997 115.5989988  37.9320012  20.6584997 116.2429988
  38.1540012  21.5264997 115.0219988  38.4461318  20.9549410 115.6090898
  40.7890012  34.0794997 119.7439988  39.9680012  34.2544997 119.2829988
  40.5360012  34.0064997 120.6639988  40.6425585  34.0935544 119.8053561
  43.7430012  35.0544997 116.0019988  43.3180012  35.8634997 115.7199988
  44.6470012  35.1394997 115.6999988  43.8069975  35.1769300 115.9224816
  48.0540012  36.4534997 118.9619988  48.2390012  36.1194997 119.8399988
  48.9000012  36.7624997 118.6399988  48.1937539  36.4496047 119.0385605
  50.3990012  37.7394997 118.2059988  51.0760012  37.1064997 117.9659988
  50.7210012  38.1404997 119.0129988  50.5351637  37.7071154 118.2822793
  55.3160012  20.3284997 117.2849988  54.5040012  20.6534997 116.8979988
  55.5490012  19.5684997 116.7519988  55.2362203  20.2702758 117.1598880
  41.1450012  38.3104997 116.0499988  40.4240012  38.7504997 115.5989988
  40.7790012  38.0594997 116.8979988  40.9969651  38.3367242 116.1029640
  43.6120012  37.9104997 115.0799988  42.7470012  37.9824997 115.4839988
  43.5570012  38.4574997 114.2959988  43.4862085  37.9942685 115.0293362
  48.3220012  37.7984997 114.2549988  47.8660012  38.3274997 113.6009988
  48.4850012  38.4014997 114.9799988  48.2816068  37.9524607 114.2634838
  50.6500012  36.6764997 115.1999988  49.7450012  36.8414997 114.9339988
  51.0790012  37.5294997 115.1349988  50.5841324  36.8144339 115.1547976
  53.2540012  38.2464997 115.4949988  53.0720012  39.1624997 115.2849988
  53.4310012  37.8364997 114.6489988  53.2530210  38.3164822 115.3517885
  40.5590012  36.9334997 112.9599988  40.5410012  36.5084997 113.8169988
  41.3640012  36.6154997 112.5509988  40.6653529  36.8323013 113.0220946
  42.7010012  35.6434997 111.6149988  42.4820012  34.7274997 111.7849988
  43.5250012  35.7834997 112.0809988  42.7824420  35.5370520 111.7012774
  45.2380012  36.1134997 112.4639988  45.4510012  35.2254997 112.1769988
  45.3020012  36.0794997 113.4179988  45.2758232  35.9873102 112.5537397
  48.7460012  21.7774997 111.6079988  48.0720012  21.1484997 111.8639988
  49.3100012  21.2934997 111.0049988  48.7299230  21.6258744 111.5615340
  53.8890012  19.8854997 111.7209988  54.4930012  20.4324997 111.2189988
  53.0190012  20.2044997 111.4799988  53.8541208  20.0035137 111.6196886
  55.6160012  21.0234997 110.0539988  56.2280012  20.5094997 109.5269988
  55.9980012  21.9014997 110.0769988  55.7513371  21.0717866 109.9850041
  41.0730012  20.4114997 109.4299988  40.2960012  20.1774997 108.9229988
  41.6030012  19.6144997 109.4389988  41.0382330  20.2716988 109.3617742
  45.6520012  20.3384997 109.2439988  46.5270012  20.7264997 109.2139988
  45.5160012  20.1234997 110.1659988  45.7533695  20.3625184 109.3646440
  51.2090012  20.3684997 110.8929988  51.2850012  20.4634997 109.9429988
  50.9340012  19.4604997 111.0219988  51.1822321  20.2587867 110.7805079
  52.5620012  20.3944997 106.5849988  51.8600012  21.0094997 106.3749988
  52.1180012  19.5564997 106.7159988  52.4056450  20.3655639 106.5739000
  39.8100012  36.1574997 106.1309988  39.1250012  36.1194997 105.4639988
  39.8140012  37.0704997 106.4199988  39.7166998  36.2756733 106.0786771
  41.7700012  22.1254997 103.6759988  42.2620012  21.4954997 103.1489988
  42.3940012  22.4214997 104.3389988  41.9215688  22.0793804 103.6935482
  46.7960012  22.4184997 106.1329988  46.9740012  21.7724997 106.8159988
  46.7430012  23.2524997 106.5999988  46.8131999  22.4428009 106.2895917
  48.6750012  37.3674997 104.5289988  49.5410012  37.7334997 104.3509988
  48.4280012  36.9274997 103.7149988  48.7602392  37.3581756 104.3946289
  55.3840012  36.9304997 107.2079988  55.1890012  36.1824997 106.6429988
  55.3450012  37.6884997 106.6249988  55.3520380  36.9306099 107.0518384
  41.0310012  20.9254997 118.9479988  40.6650012  20.1604997 119.3899988
  41.9440012  20.9544997 119.2339988  41.1042736  20.8245640 119.0472502
  43.0040012  20.2764997 120.4839988  43.9020012  20.0024997 120.2989988
  42.6170012  19.5334997 120.9479988  43.0746612  20.1385914 120.5213643
  51.4250012  19.6084997 120.6659988  51.5020012  19.1824997 121.5199988
  52.3190012  19.6224997 120.3229988  51.5563428  19.5520879 120.7365310
  54.6010012  35.6814997 119.3579988  53.8190012  35.4954997 118.8379988
  54.5290012  36.6104997 119.5759988  54.4842274  35.7816643 119.3163018
  69.0070012  29.5674997 109.3889988  69.0960012  30.5114997 109.2569988
  68.3690012  29.2924997 108.7309988  68.9329081  29.6594830 109.2819614
  67.9400012  28.8224997 112.8079988  67.9020012  28.1764997 113.5129988
  67.6180012  28.3564997 112.0369988  67.8912333  28.6709408 112.8002978
  60.3090012  28.4374997 114.4009988  60.3500012  27.8114997 115.1239988
  61.0120012  29.0614997 114.5829988  60.4096363  28.4361196 114.5246044
  71.6460012  31.7614997 111.1089988  71.2060012  31.0414997 111.5599988
  71.6330012  32.4824997 111.7389988  71.5840226  31.7603731 111.2558494
  61.2320012  32.8874997 112.9359988  60.8630012  32.0854997 112.5659988
  62.1730012  32.7184997 112.9819988  61.3087289  32.7550153 112.8916316
  57.8420012  26.5474997 108.3289988  57.3950012  27.3934997 108.3099988
  57.2810012  25.9674997 107.8129988  57.7049900  26.5849916 108.2566801
  58.5530012  28.7094997 110.4539988  58.7660012  27.9394997 110.9819988
  59.2910012  28.7984997 109.8509988  58.6819044  28.6161968 110.4447123
  68.7580012  36.8664997 111.3209988  69.3780012  36.1894997 111.0479988
  68.5500012  36.6484997 112.2299988  68.8146726  36.7444800 111.4064812
  66.3300012  31.2554997 113.2139988  66.6340012  30.5694997 112.6189988
  67.0510012  31.3734997 113.8319988  66.4690671  31.1776305 113.2161816
  74.9930012  22.8564997 114.0749988  75.0420012  23.4664997 114.8099988
  75.4180012  23.3174997 113.3519988  75.0571746  23.0023796 114.0779175
  69.4710012  25.6494997 113.5409988  69.6130012  24.7034997 113.5619988
  69.3640012  25.8564997 112.6129988  69.4759919  25.5478246 113.4183408
  62.6250012  23.7504997 110.8139988  62.6690012  24.6104997 110.3949988
  62.1680012  23.1984997 110.1799988  62.5692240  23.7934422 110.6709864
  70.3480012  23.8814997 109.2149988  70.9940012  23.5524997 109.8389988
  70.8580012  24.3994997 108.5919988  70.5054299  23.9064450 109.2162731
  59.2460012  26.1474997 111.5759988  59.8990012  25.5974997 112.0079988
  59.2700012  25.8734997 110.6589988  59.3386683  26.0351466 111.5112123
  64.4020012  27.6974997 110.7909988  65.0180012  27.1714997 111.3009988
  63.8160012  27.0574997 110.3879988  64.4070810  27.5389208 110.8063173
  75.3840012  24.3344997 116.3099988  74.6960012  24.9924997 116.2149988
  75.4000012  24.1374997 117.2469988  75.2919540  24.3979819 116.4235990
  61.4360012  22.6684997 114.8879988  61.2170012  23.1984997 114.1219988
  60.7680012  22.8954997 115.5349988  61.3157600  22.7716906 114.8706379
  68.8050012  32.1684997 108.4319988  68.5090012  31.8464997 107.5809988
  68.4800012  33.0684997 108.4729988  68.7206371  32.2460215 108.3211801
  64.0050012  30.3444997 115.1749988  63.2650012  30.9424997 115.2789988
  64.7190012  30.8984997 114.8599988  64.0002237  30.5012831 115.1466465
  72.1120012  23.1724997 111.1949988  71.8960012  22.4064997 111.7279988
  72.7670012  23.6444997 111.7079988  72.1710632  23.1315889 111.3372861
  61.0290012  24.5604997 112.8399988  61.6430012  25.1934997 113.2129988
  61.5410012  24.0884997 112.1839988  61.1821981  24.5832267 112.8022908
  62.4120012  32.3084997 115.9619988  62.4070012  33.1884997 115.5839988
  61.5590012  32.2254997 116.3869988  62.2959464  32.4176117 115.9677907
  58.5330012  31.9794997 106.7439988  58.2610012  32.2084997 105.8559988
  58.5790012  32.8174997 107.2049988  58.5019482  32.1241318 106.6846273
  72.1580012  33.6014997 113.4569988  71.2170012  33.6594997 113.6189988
  72.4350012  34.5074997 113.3199988  72.0664679  33.7319443 113.4606815
  72.4590012  21.8874997 114.8749988  71.7230012  22.4984997 114.8369988
  73.1420012  22.3024997 114.3479988  72.4506541  22.0271374 114.7985832
  65.4620012  19.9744997 112.3399988  65.3450012  19.0254997 112.2859988
  64.6070012  20.3064997 112.6139988  65.3304212  19.8895571 112.3696497
  70.4100012  35.3824997 110.0819988  70.8360012  34.6754997 109.5969988
  70.7270012  36.1834997 109.6659988  70.5111683  35.3941017 109.9593680
  71.5700012  33.2834997 108.5909988  71.3120012  32.5934997 107.9799988
  71.6410012  32.8404997 109.4369988  71.5442856  33.1292124 108.6216885
  73.2560012  31.8494997 117.0679988  73.3960012  31.2584997 116.3289988
  73.4230012  32.7224997 116.7119988  73.2977411  31.8865428 116.9186894
  67.7290012  28.8114997 106.8409988  67.0170012  29.3464997 106.4889988
  68.4200012  28.8674997 106.1809988  67.7250132  28.8922543 106.7036289
  75.0980012  28.1894997 115.1339988  74.4450012  28.8844997 115.2239988
  75.5630012  28.3994997 114.3249988  75.0715274  28.3130643 115.0368462
  71.1340012  29.0214997 107.7929988  70.4020012  29.2494997 108.3659988
  71.5820012  28.3074997 108.2469988  71.0942725  28.9562145 107.9328816
  71.0320012  27.1954997 116.8599988  71.1120012  27.9584997 117.4319988
  70.4300012  27.4744997 116.1699988  70.9615756  27.3377134 116.8450589
  62.7800012  29.6514997 109.6749988  62.4490012  29.2814997 108.8569988
  63.3680012  28.9814997 110.0219988  62.8141873  29.5101156 109.6098102
  64.1460012  33.0794997 112.3559988  64.0520012  32.5014997 111.5999988
  64.8760012  32.7084997 112.8529988  64.2317387  32.9501663 112.3195342
  63.1460012  28.4204997 113.3089988  63.7120012  28.5414997 112.5459988
  63.4650012  29.0574997 113.9469988  63.2665474  28.5232219 113.2909862
  69.4550012  33.9234997 114.0429988  69.2150012  34.5854997 114.6909988
  69.2570012  33.0894997 114.4679988  69.3953808  33.9013134 114.1891524
  64.0260012  32.8194997 118.0259988  63.7150012  33.6014997 118.4809988
  63.3760012  32.6664997 117.3399988  63.8955558  32.9059105 117.9955871
  60.9460012  29.0174997 117.2539988  61.0170012  29.6684997 117.9529988
  60.0560012  29.1204997 116.9189988  60.8353005  29.1205427 117.3043495
  67.7320012  34.9204997 108.9129988  68.2060012  35.2154997 109.6899988
  67.1690012  35.6584997 108.6799988  67.7208184  35.0607247 108.9879628
  62.2660012  34.8914997 118.7889988  62.2730012  34.7554997 117.8419988
  61.3500012  34.7734997 119.0409988  62.1431714  34.8569430 118.6934666
  73.7040012  19.9334997 105.2909988  72.8040012  20.0724997 105.5859988
  73.9560012  20.7644997 104.8889988  73.6148702  20.0649074 105.2770205
  61.7700012  28.7214997 107.2639988  61.4780012  29.4894997 106.7739988
  61.0960012  28.0614997 107.1019988  61.6388111  28.7375587 107.1748978
  74.8930012  34.2994997 103.6669988  74.9670012  35.2384997 103.8379988
  75.7990012  33.9944997 103.6109988  75.0255100  34.3866722 103.6828119
  57.8630012  31.0844997 116.0789988  57.3620012  31.0564997 115.2639988
  57.8680012  30.1784997 116.3889988  57.7950944  30.9582396 116.0093226
  57.6130012  33.8644997 112.9629988  58.5590012  33.7204997 112.9439988
  57.5010012  34.6484997 113.4999988  57.7272727  33.9508046 113.0330072
  75.8110012  34.5304997 118.6459988  75.7620012  33.5754997 118.6089988
  74.9840012  34.7984997 119.0469988  75.6924940  34.4358998 118.6951375
  66.7900012  34.1044997 117.5219988  66.8770012  34.9304997 117.9969988
  65.9260012  33.7744997 117.7709988  66.6851964  34.1729878 117.6206549
  67.2040012  37.8764997 107.3279988  67.1290012  37.7554997 106.3809988
  67.2370012  38.8264997 107.4459988  67.1982068  37.9882646 107.2144967
  60.8570012  36.6654997 109.1089988  61.0100012  36.3174997 109.9869988
  60.0070012  36.3094997 108.8539988  60.7629166  36.5696216 109.1948079
  69.9750012  36.9564997 107.0789988  69.0390012  37.0564997 107.2579988
  70.2550012  36.2474997 107.6579988  69.8849553  36.8743406 107.1817087
  72.9630012  26.0234997 119.1259988  72.5560012  26.5044997 118.4049988
  73.0040012  25.1184997 118.8179988  72.9128437  25.9669374 118.9856683
  60.1120012  32.4074997 117.1229988  60.3280012  32.0464997 117.9819988
  59.2570012  32.0334997 116.9129988  60.0259292  32.3074111 117.2123386
  62.7310012  20.8774997 113.1179988  61.8690012  20.7904997 112.7099988
  62.7080012  21.7334997 113.5459988  62.6100409  20.9812883 113.1200589
  67.3940012  20.5994997 116.4929988  67.8140012  20.1844997 117.2459988
  66.4610012  20.4214997 116.6099988  67.3253644  20.5185900 116.6119539
  70.7200012  24.3554997 117.3459988  70.2060012  24.2294997 118.1439988
  70.5650012  25.2674997 117.1019988  70.6286852  24.4616132 117.4222158
  62.8220012  25.8434997 114.2129988  62.1800012  25.8024997 114.9219988
  62.8590012  26.7694997 113.9749988  62.7390664  25.9631430 114.2779219
  62.8190012  26.0644997 109.1249988  61.9260012  25.7234997 109.0659988
  63.2690012  25.6874997 108.3689988  62.7578130  25.9669631 109.0147702
  68.3540012  26.4804997 107.9419988  67.9450012  27.2954997 107.6509988
  69.0750012  26.3404997 107.3279988  68.3954537  26.5732018 107.8191342
  67.4560012  26.6554997 119.4299988  66.8940012  25.9514997 119.7509988
  68.2830012  26.5354997 119.8979988  67.4907095  26.5427883 119.5372330
  69.3590012  25.9264997 110.7559988  69.1640012  26.5314997 110.0409988
  69.5400012  25.0924997 110.3219988  69.3567614  25.8966300 110.5994405
  60.5720012  26.1634997 116.0799988  60.5340012  26.5634997 116.9489988
  60.0810012  25.3464997 116.1709988  60.5004684  26.1078069 116.2111059
  57.1800012  23.2794997 109.9309988  57.8110012  23.2504997 110.6499988
  57.6290012  22.8544997 109.1999988  57.3270918  23.2180836 109.9306441
  58.4540012  24.0254997 105.3549988  58.9280012  24.6164997 104.7699988
  57.7370012  24.5564997 105.7019988  58.4219341  24.1780867 105.3218836
  68.6230012  27.5644997 115.4269988  68.9460012  26.9334997 114.7839988
  68.1830012  27.0294997 116.0879988  68.6077484  27.4058387 115.4283198
  65.4000012  23.4914997 110.2109988  64.4890012  23.5484997 110.4999988
  65.9060012  23.4314997 111.0219988  65.3436899  23.4911941 110.3601184
  60.2290012  25.1204997 109.0379988  59.3390012  25.2204997 108.6979988
  60.5250012  24.2784997 108.6919988  60.1472823  25.0203545 108.9447213
  63.8820012  25.1204997 106.6949988  64.8130012  25.2494997 106.8729988
  63.6670012  25.7904997 106.0449988  63.9804247  25.2286565 106.6315747
  69.8050012  22.7264997 113.4759988  69.1290012  22.8574997 114.1399988
  69.3200012  22.5714997 112.6649988  69.6467146  22.7235157 113.4574469
  73.0930012  38.3984997 119.7519988  73.2930012  38.8224997 118.9179988
  73.7480012  38.7414997 120.3589988  73.2090073  38.5029857 119.7198592
  60.6910012  30.8724997 119.3599988  61.4230012  31.1264997 119.9219988
  59.9110012  31.0764997 119.8759988  60.6857073  30.9348160 119.5066151
  66.7200012  26.2794997 112.0979988  67.2850012  25.7324997 111.5509988
  66.5730012  25.7574997 112.8869988  66.7773380  26.1342259 112.1298695
  61.7220012  22.4154997 108.5169988  61.4050012  21.5134997 108.4809988
  62.5040012  22.4174997 107.9639988  61.7842408  22.2922474 108.4373569
  65.3470012  24.6674997 114.5119988  64.5110012  25.1214997 114.6229988
  65.8710012  24.9434997 115.2639988  65.3035416  24.7668660 114.6288119
  65.8910012  30.8804997 106.1969988  65.1460012  30.3734997 105.8749988
  65.7570012  30.9294997 107.1439988  65.7708776  30.8176940 106.2808647
  73.0410012  30.0134997 114.9839988  73.6830012  30.4704997 114.4399988
  72.2110012  30.1264997 114.5209988  73.0165963  30.0912704 114.8470177
  69.7890012  23.6944997 104.3959988  68.8500012  23.8064997 104.2449988
  70.0860012  24.5514997 104.7029988  69.7007583  23.8255981 104.4168337
  67.4100012  31.0644997 117.4339988  67.0650012  30.6834997 118.2409988
  67.2100012  31.9984997 117.5049988  67.3357527  31.1385135 117.5540689
  61.0160012  30.1754997 111.9669988  61.7610012  30.1734997 111.3659988
  61.0940012  29.3524997 112.4479988  61.1284995  30.0638887 111.9498282
  68.0170012  32.3394997 105.2229988  67.7210012  33.1654997 105.6039988
  67.3140012  31.7194997 105.4189988  67.8814914  32.3688199 105.3016443
  58.0240012  28.6364997 117.2819988  58.2470012  28.2184997 118.1139988
  57.4220012  28.0234997 116.8589988  57.9731759  28.4964668 117.3387022
  65.0400012  28.1534997 119.4949988  64.7440012  27.9874997 118.5999988
  65.9720012  27.9334997 119.4839988  65.1254166  28.1010640 119.3710536
  69.6610012  33.5264997 117.3849988  68.7600012  33.7094997 117.1169988
  69.6950012  33.7854997 118.3049988  69.5423139  33.5865849 117.4728099
  75.3920012  25.7714997 105.7519988  74.8380012  25.3754997 105.0799988
  75.4920012  26.6814997 105.4739988  75.3297059  25.8403586 105.6224401
  75.3550012  31.5714997 118.5889988  74.5040012  31.8094997 118.2219988
  75.9460012  31.5544997 117.8359988  75.3182487  31.6018258 118.4368893
  73.6870012  34.5574997 106.2169988  73.3140012  33.7314997 106.5259988
  73.9650012  34.3744997 105.3189988  73.6735222  34.4197430 106.1379473
  70.8480012  29.3654997 113.2379988  69.9190012  29.1334997 113.2109988
  71.2990012  28.5884997 112.9079988  70.7819216  29.2287238 113.1896917
  63.3910012  33.6934997 109.3709988  63.9180012  34.4664997 109.1709988
  62.5110012  33.9184997 109.0689988  63.3442031  33.8297545 109.3027912
  59.1460012  28.5554997 103.9579988  59.7620012  29.1824997 104.3379988
  58.2840012  28.8714997 104.2299988  59.1137698  28.6839430 104.0467183
  64.8180012  31.3564997 108.9469988  64.5770012  32.2814997 108.9889988
  64.0770012  30.8974997 109.3439988  64.6849225  31.4210933 109.0063742
  65.3330012  35.5054997 115.2629988  65.6950012  36.3604997 115.0289988
  65.8640012  35.2134997 116.0029988  65.4544473  35.5831060 115.3310855
  63.5010012  36.3784997 108.4929988  62.5510012  36.4834997 108.5439988
  63.8530012  37.1984997 108.8369988  63.4184195  36.5038800 108.5465502
  68.8770012  31.6044997 114.9629988  68.4510012  31.3774997 115.7899988
  69.4570012  30.8664997 114.7809988  68.8971868  31.4735299 115.0515830
  71.5350012  36.1564997 117.4329988  70.9340012  35.6014997 116.9369988
  71.8170012  36.8234997 116.8059988  71.4908804  36.1706625 117.2804849
  75.5830012  37.0134997 104.2379988  76.3270012  37.5994997 104.0979988
  74.8890012  37.5814997 104.5709988  75.5909899  37.1705798 104.2638778
  59.6580012  23.3894997 116.8399988  58.7650012  23.7284997 116.7719988
  59.5590012  22.5344997 117.2579988  59.5224164  23.3202588 116.8872235
  71.9460012  31.2064997 106.2639988  71.6680012  30.4784997 106.8199988
  72.8730012  31.3254997 106.4689988  72.0333124  31.1228802 106.3678845
  59.3090012  35.1944997 115.2749988  59.5260012  34.2624997 115.2439988
  59.5550012  35.4684997 116.1579988  59.3719549  35.1040636 115.3901763
  64.1080012  33.2154997 104.9399988  64.2540012  32.6954997 105.7299988
  64.1050012  34.1224997 105.2469988  64.1275792  33.2668842 105.0896117
  68.3920012  23.1304997 115.7299988  69.0910012  23.2044997 116.3799988
  68.0110012  22.2664997 115.8839988  68.4361767  23.0237624 115.8398322
  69.1770012  22.7824997 106.8269988  69.3970012  23.2544997 106.0239988
  69.7350012  23.1774997 107.4969988  69.2824968  22.9004285 106.8077331
  66.8450012  34.9134997 105.6899988  66.0290012  35.4104997 105.7419988
  67.3750012  35.3884997 105.0499988  66.8049161  35.0457722 105.6105956
  66.3770012  24.5104997 107.6619988  67.1890012  25.0154997 107.7079988
  66.1320012  24.3654997 108.5759988  66.4550520  24.5600375 107.7918517
  66.9120012  25.4964997 116.8459988  67.0310012  26.0704997 117.6039988
  67.5680012  24.8084997 116.9609988  67.0169025  25.4819858 116.9651321
  67.2600012  21.5914997 108.5999988  66.9140012  22.2094997 109.2439988
  67.9190012  22.0924997 108.1179988  67.3016968  21.7436278 108.6229383
  64.1840012  35.9574997 105.6709988  64.3440012  36.7564997 105.1709988
  63.9860012  36.2634997 106.5559988  64.1791637  36.1084020 105.7221144
  73.1170012  23.4034997 117.6809988  72.2000012  23.6664997 117.5939988
  73.4520012  23.4004997 116.7849988  73.0368613  23.4390761 117.5478837
  71.7190012  27.1544997 111.7769988  70.9210012  26.7394997 111.4489988
  72.1640012  26.4634997 112.2679988  71.6699885  27.0043543 111.7984889
  61.1770012  33.0824997 104.3479988  61.7690012  33.7814997 104.6239988
  61.6360012  32.6494997 103.6279988  61.3201142  33.1197049 104.2884830
  59.4930012  25.7464997 103.4639988  59.4480012  26.6854997 103.6419988
  58.6050012  25.5104997 103.1939988  59.3668574  25.8431892 103.4518912
  72.8050012  36.4104997 113.3999988  72.6500012  37.0884997 112.7419988
  73.7380012  36.4824997 113.6029988  72.9098657  36.5129546 113.3374360
  60.3010012  20.5284997 112.1369988  60.0720012  20.5874997 111.2089988
  59.8580012  19.7364997 112.4429988  60.2098530  20.4295753 112.0514786
  59.2310012  34.4684997 108.2969988  58.3990012  34.9414997 108.3239988
  59.7770012  34.9784997 107.6989988  59.1910352  34.6021332 108.2198463
  58.5190012  37.0814997 119.6269988  59.0600012  36.8644997 120.3869988
  58.0380012  36.2754997 119.4369988  58.5279951  36.9429270 119.7052576
  63.1170012  36.0004997 121.2469988  63.8840012  35.5414997 121.5879988
  63.0950012  35.7744997 120.3179988  63.2191275  35.9070186 121.1680101
  69.6940012  34.3804997 119.9769988  69.3430012  33.5244997 120.2199988
  70.4200012  34.5234997 120.5839988  69.7440769  34.2825636 120.0923619
  58.4260012  30.8914997 120.5809988  58.5700012  29.9894997 120.2949988
  57.6540012  31.1774997 120.0939988  58.3412753  30.8066816 120.4759505
  65.0820012  30.8614997 120.0139988  64.7530012  31.1324997 119.1569988
  65.2340012  29.9204997 119.9269988  65.0574809  30.7713862 119.8848244
  70.8160012  30.7774997 117.3969988  71.5620012  31.3654997 117.2779988
  70.0590012  31.3594997 117.4609988  70.8157820  30.9367143 117.3893590
  59.2590012  28.0914997 120.0009988  59.6670012  27.2344997 119.8799988
  58.9990012  28.1064997 120.9219988  59.2797568  27.9760807 120.1089588
  63.2060012  27.1004997 117.3759988  62.5880012  27.7754997 117.6559988
  63.5500012  27.4214997 116.5419988  63.1679132  27.2362411 117.3016262
  68.2260012  29.5724997 120.6529988  69.1790012  29.6554997 120.6259988
  68.0650012  28.8604997 121.2729988  68.3346426  29.4876746 120.7330579
  63.5450012  24.4554997 118.4579988  63.6950012  23.7264997 117.8559988
  63.5480012  25.2324997 117.8989988  63.5659302  24.4607851 118.3000692
  63.9580012  22.8254997 115.9509988  64.4940012  23.2764997 115.2989988
  63.1060012  22.7174997 115.5279988  63.9162178  22.8726390 115.8045756
  65.5400012  28.2644997 116.1899988  66.2900012  28.1084997 115.6169988
  65.2010012  29.1164997 115.9149988  65.5968921  28.3582968 116.0743561
  69.9550012  26.0794997 121.2189988  70.1480012  25.1484997 121.1069988
  70.8130012  26.5044997 121.2079988  70.0972934  26.0096531 121.2022031
  71.2720012  28.8684997 119.2959988  70.9910012  29.5774997 118.7179988
  72.2150012  28.7954997 119.1449988  71.3609291  28.9556711 119.1964967
  62.0240012  25.6534997 120.3699988  61.2570012  25.1214997 120.1589988
  62.7030012  25.3434997 119.7699988  62.0107877  25.5388300 120.2600716
  64.7640012  20.2814997 116.3819988  64.6650012  21.2284997 116.2769988
  64.0210012  19.9094997 115.9059988  64.6501184  20.3605863 116.3033621
  66.0280012  24.6034997 119.9459988  65.7920012  24.3834997 120.8469988
  65.2440012  24.3964997 119.4359988  65.8898504  24.5454586 120.0003431
  68.7430012  23.7304997 119.0209988  67.7960012  23.7624997 119.1539988
  69.0560012  23.1054997 119.6749988  68.6556707  23.6503998 119.1276060
  70.3770012  22.3644997 121.0269988  70.2810012  21.4124997 121.0209988
  70.0560012  22.6334997 121.8869988  70.3204070  22.2704035 121.1425441
  60.2040012  23.5744997 120.0739988  60.4160012  22.8674997 119.4639988
  60.0930012  23.1364997 120.9179988  60.2179721  23.4187084 120.1046843
  64.9850012  19.5754997 119.0529988  65.6970012  18.9354997 119.0389988
  64.8840012  19.8424997 118.1399988  65.0688066  19.5240079 118.9275677
  65.3390012  21.2584997 121.1069988  65.2070012  20.7824997 120.2869988
  64.7400012  22.0024997 121.0519988  65.2399071  21.2939618 120.9872886
  57.1030012  38.1704997 108.8439988  56.4560012  37.7084997 108.3109988
  57.4570012  37.4984997 109.4259988  57.0623849  38.0164723 108.8497959
  57.9730012  36.2514997 110.6479988  57.6380012  35.3714997 110.8199988
  58.1950012  36.5964997 111.5129988  57.9571783  36.1777500 110.7884208
  75.5210012  37.0604997 113.6289988  75.5000012  37.2454997 114.5679988
  76.2120012  37.6294997 113.2879988  75.6114618  37.1626606 113.7113864
  75.0850012  36.6284997 116.5509988  74.5970012  35.8924997 116.1789988
  75.6340012  36.2344997 117.2289988  75.0924820  36.4745889 116.5917813
  73.5350012  32.4174997 121.1889988  72.6690012  32.3124997 121.5829988
  73.9120012  33.1764997 121.6349988  73.4673308  32.5056900 121.3032393
  74.8360012  30.6744997 106.7029988  75.6860012  31.0954997 106.8299988
  74.8420012  29.9344997 107.3099988  74.9531372  30.6320803 106.8024344
  75.2310012  28.7274997 108.5259988  74.5040012  28.2484997 108.9239988
  75.8120012  28.9334997 109.2589988  75.2100473  28.6898103 108.6794528
  74.9900012  31.5124997 113.4739988  75.8230012  31.1344997 113.1939988
  75.1020012  32.4554997 113.3549988  75.1192647  31.5882218 113.4195487
  73.4760012  34.3904997 115.7809988  72.8290012  34.7154997 116.4069988
  72.9590012  33.9504997 115.1069988  73.3174029  34.3755004 115.7755827
  75.4990012  28.6284997 104.9179988  74.9770012  28.9854997 104.1989988
  75.4660012  29.3034997 105.5959988  75.4231634  28.7685413 104.9113145
  73.8480012  25.8684997 103.4679988  73.9440012  26.5354997 102.7879988
  73.7080012  25.0524997 102.9869988  73.8422272  25.8495655 103.3098347
  73.0170012  27.2484997 109.0889988  72.8670012  26.3034997 109.0689988
  72.6640012  27.5294997 109.9329988  72.9487448  27.1571481 109.2003705
  58.0530012  29.3264997 113.0999988  58.2370012  29.2444997 112.1639988
  58.9020012  29.2024997 113.5229988  58.1930151  29.2985073 113.0291451
  73.8740012  29.2184997 118.7279988  74.4570012  28.4844997 118.9199988
  74.4380012  29.9904997 118.7749988  74.0299769  29.2224227 118.7606159
  75.3700012  27.1214997 119.4129988  74.5070012  26.7424997 119.2469988
  75.9750012  26.3824997 119.3379988  75.3336119  26.9698268 119.3801528
  73.0950012  23.2764997 102.5859988  73.7060012  22.9054997 103.2229988
  72.2590012  22.8554997 102.7819988  73.0655032  23.1687554 102.6997035
  72.7280012  24.8314997 107.5519988  73.0080012  23.9244997 107.6759988
  73.4870012  25.2654997 107.1629988  72.8689277  24.7660942 107.5163682
  73.3400012  25.4124997 112.9879988  74.2730012  25.6244997 112.9529988
  73.1050012  25.5144997 113.9099988  73.4359244  25.4553100 113.1078892
  73.3690012  26.1494997 115.7639988  72.5260012  26.4174997 116.1299988
  73.8110012  26.9714997 115.5529988  73.3134158  26.2973291 115.7855491
  57.6500012  24.5974997 119.2409988  58.5700012  24.4754997 119.4769988
  57.2010012  23.8474997 119.6299988  57.7151580  24.4793727 119.3259006
  75.6520012  20.1294997 121.1169988  76.0020012  19.4754997 120.5119988
  75.7990012  20.9664997 120.6769988  75.7197887  20.1531548 120.9746858
  73.3410012  22.0944997 107.5999988  73.5240012  21.6454997 108.4259988
  72.7420012  21.5094997 107.1369988  73.2850202  21.9539975 107.6503275
  58.8710012  22.9094997 112.1319988  59.3170012  22.1174997 112.4339988
  59.3380012  23.6254997 112.5619988  58.9950831  22.8980685 112.2314006
  57.1750012  25.9084997 113.2009988  57.6670012  25.6874997 112.4099988
  57.5380012  26.7494997 113.4819988  57.2913126  25.9918357 113.1307531
  75.1720012  22.2384997 119.4659988  74.2540012  22.5094997 119.4309988
  75.2950012  21.7034997 118.6819988  75.0629729  22.2032508 119.3551923
  75.2080012  22.1614997 104.1279988  75.6200012  21.4404997 103.6529988
  75.8900012  22.8314997 104.1869988  75.3565885  22.1532368 104.0708915
  57.4890012  22.1664997 107.2549988  56.5640012  22.3754997 107.1259988
  57.9430012  22.6504997 106.5649988  57.4237292  22.2605343 107.1440720
  72.2600012  37.1504997 109.2009988  72.9120012  36.8034997 108.5929988
  72.7700012  37.6394997 109.8469988  72.4182637  37.1690597 109.2050236
  57.4530012  20.9044997 115.5989988  56.7880012  20.6584997 116.2429988
  57.0100012  21.5264997 115.0219988  57.3021318  20.9549410 115.6090898
  59.6450012  34.0794997 119.7439988  58.8240012  34.2544997 119.2829988
  59.3920012  34.0064997 120.6639988  59.4985585  34.0935544 119.8053561
  62.5990012  35.0544997 116.0019988  62.1740012  35.8634997 115.7199988
  63.5030012  35.1394997 115.6999988  62.6629975  35.1769300 115.9224816
  66.9100012  36.4534997 118.9619988  67.0950012  36.1194997 119.8399988
  67.7560012  36.7624997 118.6399988  67.0497539  36.4496047 119.0385605
  69.2550012  37.7394997 118.2059988  69.9320012  37.1064997 117.9659988
  69.5770012  38.1404997 119.0129988  69.3911637  37.7071154 118.2822793
  74.1720012  20.3284997 117.2849988  73.3600012  20.6534997 116.8979988
  74.4050012  19.5684997 116.7519988  74.0922203  20.2702758 117.1598880
  60.0010012  38.3104997 116.0499988  59.2800012  38.7504997 115.5989988
  59.6350012  38.0594997 116.8979988  59.8529651  38.3367242 116.1029640
  62.4680012  37.9104997 115.0799988  61.6030012  37.9824997 115.4839988
  62.4130012  38.4574997 114.2959988  62.3422085  37.9942685 115.0293362
  67.1780012  37.7984997 114.2549988  66.7220012  38.3274997 113.6009988
  67.3410012  38.4014997 114.9799988  67.1376068  37.9524607 114.2634838
  69.5060012  36.6764997 115.1999988  68.6010012  36.8414997 114.9339988
  69.9350012  37.5294997 115.1349988  69.4401324  36.8144339 115.1547976
  72.1100012  38.2464997 115.4949988  71.9280012  39.1624997 115.2849988
  72.2870012  37.8364997 114.6489988  72.1090210  38.3164822 115.3517885
  59.4150012  36.9334997 112.9599988  59.3970012  36.5084997 113.8169988
  60.2200012  36.6154997 112.5509988  59.5213529  36.8323013 113.0220946
  61.5570012  35.6434997 111.6149988  61.3380012  34.7274997 111.7849988
  62.3810012  35.7834997 112.0809988  61.6384420  35.5370520 111.7012774
  64.0940012  36.1134997 112.4639988  64.3070012  35.2254997 112.1769988
  64.1580012  36.0794997 113.4179988  64.1318232  35.9873102 112.5537397
  67.6020012  21.7774997 111.6079988  66.9280012  21.1484997 111.8639988
  68.1660012  21.2934997 111.0049988  67.5859230  21.6258744 111.5615340
  72.7450012  19.8854997 111.7209988  73.3490012  20.4324997 111.2189988
  71.8750012  20.2044997 111.4799988  72.7101208  20.0035137 111.6196886
  74.4720012  21.0234997 110.0539988  75.0840012  20.5094997 109.5269988
  74.8540012  21.9014997 110.0769988  74.6073371  21.0717866 109.9850041
  59.9290012  20.4114997 109.4299988  59.1520012  20.1774997 108.9229988
  60.4590012  19.6144997 109.4389988  59.8942330  20.2716988 109.3617742
  58.7650012  20.2094997 105.2339988  59.2040012  20.8204997 104.6419988
  58.1320012  20.7474997 105.7079988  58.7394514  20.3659257 105.2170930
  64.5080012  20.3384997 109.2439988  65.3830012  20.7264997 109.2139988
  64.3720012  20.1234997 110.1659988  64.6093695  20.3625184 109.3646440
  70.0650012  20.3684997 110.8929988  70.1410012  20.4634997 109.9429988
  69.7900012  19.4604997 111.0219988  70.0382321  20.2587867 110.7805079
  71.4180012  20.3944997 106.5849988  70.7160012  21.0094997 106.3749988
  70.9740012  19.5564997 106.7159988  71.2616450  20.3655639 106.5739000
  58.6660012  36.1574997 106.1309988  57.9810012  36.1194997 105.4639988
  58.6700012  37.0704997 106.4199988  58.5726998  36.2756733 106.0786771
  65.6520012  22.4184997 106.1329988  65.8300012  21.7724997 106.8159988
  65.5990012  23.2524997 106.5999988  65.6691999  22.4428009 106.2895917
  67.5310012  37.3674997 104.5289988  68.3970012  37.7334997 104.3509988
  67.2840012  36.9274997 103.7149988  67.6162392  37.3581756 104.3946289
  74.2400012  36.9304997 107.2079988  74.0450012  36.1824997 106.6429988
  74.2010012  37.6884997 106.6249988  74.2080380  36.9306099 107.0518384
  59.8870012  20.9254997 118.9479988  59.5210012  20.1604997 119.3899988
  60.8000012  20.9544997 119.2339988  59.9602736  20.8245640 119.0472502
  61.8600012  20.2764997 120.4839988  62.7580012  20.0024997 120.2989988
  61.4730012  19.5334997 120.9479988  61.9306612  20.1385914 120.5213643
  60.4840012  37.0774997 103.1569988  60.2170012  37.3644997 104.0299988
  61.2560012  36.5314997 103.3089988  60.5517488  37.0430294 103.2971050
  70.2810012  19.6084997 120.6659988  70.3580012  19.1824997 121.5199988
  71.1750012  19.6224997 120.3229988  70.4123428  19.5520879 120.7365310
  73.4570012  35.6814997 119.3579988  72.6750012  35.4954997 118.8379988
  73.3850012  36.6104997 119.5759988  73.3402274  35.7816643 119.3163018
  87.8630012  29.5674997 109.3889988  87.9520012  30.5114997 109.2569988
  87.2250012  29.2924997 108.7309988  87.7889081  29.6594830 109.2819614
  86.7960012  28.8224997 112.8079988  86.7580012  28.1764997 113.5129988
  86.4740012  28.3564997 112.0369988  86.7472333  28.6709408 112.8002978
  79.1650012  28.4374997 114.4009988  79.2060012  27.8114997 115.1239988
  79.8680012  29.0614997 114.5829988  79.2656363  28.4361196 114.5246044
  90.5020012  31.7614997 111.1089988  90.0620012  31.0414997 111.5599988
  90.4890012  32.4824997 111.7389988  90.4400226  31.7603731 111.2558494
  80.0880012  32.8874997 112.9359988  79.7190012  32.0854997 112.5659988
  81.0290012  32.7184997 112.9819988  80.1647289  32.7550153 112.8916316
  76.6980012  26.5474997 108.3289988  76.2510012  27.3934997 108.3099988
  76.1370012  25.9674997 107.8129988  76.5609900  26.5849916 108.2566801
  77.4090012  28.7094997 110.4539988  77.6220012  27.9394997 110.9819988
  78.1470012  28.7984997 109.8509988  77.5379044  28.6161968 110.4447123
  87.6140012  36.8664997 111.3209988  88.2340012  36.1894997 111.0479988
  87.4060012  36.6484997 112.2299988  87.6706726  36.7444800 111.4064812
  85.1860012  31.2554997 113.2139988  85.4900012  30.5694997 112.6189988
  85.9070012  31.3734997 113.8319988  85.3250671  31.1776305 113.2161816
  93.8490012  22.8564997 114.0749988  93.8980012  23.4664997 114.8099988
  94.2740012  23.3174997 113.3519988  93.9131746  23.0023796 114.0779175
  88.3270012  25.6494997 113.5409988  88.4690012  24.7034997 113.5619988
  88.2200012  25.8564997 112.6129988  88.3319919  25.5478246 113.4183408
  81.4810012  23.7504997 110.8139988  81.5250012  24.6104997 110.3949988
  81.0240012  23.1984997 110.1799988  81.4252240  23.7934422 110.6709864
  89.2040012  23.8814997 109.2149988  89.8500012  23.5524997 109.8389988
  89.7140012  24.3994997 108.5919988  89.3614299  23.9064450 109.2162731
  78.1020012  26.1474997 111.5759988  78.7550012  25.5974997 112.0079988
  78.1260012  25.8734997 110.6589988  78.1946683  26.0351466 111.5112123
  83.2580012  27.6974997 110.7909988  83.8740012  27.1714997 111.3009988
  82.6720012  27.0574997 110.3879988  83.2630810  27.5389208 110.8063173
  94.2400012  24.3344997 116.3099988  93.5520012  24.9924997 116.2149988
  94.2560012  24.1374997 117.2469988  94.1479540  24.3979819 116.4235990
  80.2920012  22.6684997 114.8879988  80.0730012  23.1984997 114.1219988
  79.6240012  22.8954997 115.5349988  80.1717600  22.7716906 114.8706379
  87.6610012  32.1684997 108.4319988  87.3650012  31.8464997 107.5809988
  87.3360012  33.0684997 108.4729988  87.5766371  32.2460215 108.3211801
  82.8610012  30.3444997 115.1749988  82.1210012  30.9424997 115.2789988
  83.5750012  30.8984997 114.8599988  82.8562237  30.5012831 115.1466465
  90.9680012  23.1724997 111.1949988  90.7520012  22.4064997 111.7279988
  91.6230012  23.6444997 111.7079988  91.0270633  23.1315889 111.3372861
  79.8850012  24.5604997 112.8399988  80.4990012  25.1934997 113.2129988
  80.3970012  24.0884997 112.1839988  80.0381981  24.5832267 112.8022908
  81.2680012  32.3084997 115.9619988  81.2630012  33.1884997 115.5839988
  80.4150012  32.2254997 116.3869988  81.1519464  32.4176117 115.9677907
  77.3890012  31.9794997 106.7439988  77.1170012  32.2084997 105.8559988
  77.4350012  32.8174997 107.2049988  77.3579482  32.1241318 106.6846273
  91.0140012  33.6014997 113.4569988  90.0730012  33.6594997 113.6189988
  91.2910012  34.5074997 113.3199988  90.9224679  33.7319443 113.4606815
  91.3150012  21.8874997 114.8749988  90.5790012  22.4984997 114.8369988
  91.9980012  22.3024997 114.3479988  91.3066541  22.0271374 114.7985832
  84.3180012  19.9744997 112.3399988  84.2010012  19.0254997 112.2859988
  83.4630012  20.3064997 112.6139988  84.1864212  19.8895571 112.3696497
  89.2660012  35.3824997 110.0819988  89.6920012  34.6754997 109.5969988
  89.5830012  36.1834997 109.6659988  89.3671683  35.3941017 109.9593680
  90.4260012  33.2834997 108.5909988  90.1680012  32.5934997 107.9799988
  90.4970012  32.8404997 109.4369988  90.4002856  33.1292124 108.6216885
  92.1120012  31.8494997 117.0679988  92.2520012  31.2584997 116.3289988
  92.2790012  32.7224997 116.7119988  92.1537411  31.8865428 116.9186894
  93.9540012  28.1894997 115.1339988  93.3010012  28.8844997 115.2239988
  94.4190012  28.3994997 114.3249988  93.9275274  28.3130643 115.0368462
  89.9900012  29.0214997 107.7929988  89.2580012  29.2494997 108.3659988
  90.4380012  28.3074997 108.2469988  89.9502725  28.9562145 107.9328816
  89.8880012  27.1954997 116.8599988  89.9680012  27.9584997 117.4319988
  89.2860012  27.4744997 116.1699988  89.8175756  27.3377134 116.8450589
  81.6360012  29.6514997 109.6749988  81.3050012  29.2814997 108.8569988
  82.2240012  28.9814997 110.0219988  81.6701873  29.5101156 109.6098102
  83.0020012  33.0794997 112.3559988  82.9080012  32.5014997 111.5999988
  83.7320012  32.7084997 112.8529988  83.0877387  32.9501663 112.3195342
  82.0020012  28.4204997 113.3089988  82.5680012  28.5414997 112.5459988
  82.3210012  29.0574997 113.9469988  82.1225474  28.5232219 113.2909862
  88.3110012  33.9234997 114.0429988  88.0710012  34.5854997 114.6909988
  88.1130012  33.0894997 114.4679988  88.2513808  33.9013134 114.1891524
  82.8820012  32.8194997 118.0259988  82.5710012  33.6014997 118.4809988
  82.2320012  32.6664997 117.3399988  82.7515558  32.9059105 117.9955871
  79.8020012  29.0174997 117.2539988  79.8730012  29.6684997 117.9529988
  78.9120012  29.1204997 116.9189988  79.6913005  29.1205427 117.3043495
  86.5880012  34.9204997 108.9129988  87.0620012  35.2154997 109.6899988
  86.0250012  35.6584997 108.6799988  86.5768184  35.0607247 108.9879628
  81.1220012  34.8914997 118.7889988  81.1290012  34.7554997 117.8419988
  80.2060012  34.7734997 119.0409988  80.9991714  34.8569430 118.6934666
  80.6260012  28.7214997 107.2639988  80.3340012  29.4894997 106.7739988
  79.9520012  28.0614997 107.1019988  80.4948111  28.7375587 107.1748978
  93.7490012  34.2994997 103.6669988  93.8230012  35.2384997 103.8379988
  94.6550012  33.9944997 103.6109988  93.8815100  34.3866722 103.6828119
  76.7190012  31.0844997 116.0789988  76.2180012  31.0564997 115.2639988
  76.7240012  30.1784997 116.3889988  76.6510944  30.9582396 116.0093226
  76.4690012  33.8644997 112.9629988  77.4150012  33.7204997 112.9439988
  76.3570012  34.6484997 113.4999988  76.5832727  33.9508046 113.0330072
  94.6670012  34.5304997 118.6459988  94.6180012  33.5754997 118.6089988
  93.8400012  34.7984997 119.0469988  94.5484940  34.4358998 118.6951375
  85.6460012  34.1044997 117.5219988  85.7330012  34.9304997 117.9969988
  84.7820012  33.7744997 117.7709988  85.5411964  34.1729878 117.6206549
  86.0600012  37.8764997 107.3279988  85.9850012  37.7554997 106.3809988
  86.0930012  38.8264997 107.4459988  86.0542068  37.9882646 107.2144967
  79.7130012  36.6654997 109.1089988  79.8660012  36.3174997 109.9869988
  78.8630012  36.3094997 108.8539988  79.6189166  36.5696217 109.1948079
  88.8310012  36.9564997 107.0789988  87.8950012  37.0564997 107.2579988
  89.1110012  36.2474997 107.6579988  88.7409553  36.8743406 107.1817087
  91.8190012  26.0234997 119.1259988  91.4120012  26.5044997 118.4049988
  91.8600012  25.1184997 118.8179988  91.7688437  25.9669374 118.9856683
  78.9680012  32.4074997 117.1229988  79.1840012  32.0464997 117.9819988
  78.1130012  32.0334997 116.9129988  78.8819292  32.3074111 117.2123386
  81.5870012  20.8774997 113.1179988  80.7250012  20.7904997 112.7099988
  81.5640012  21.7334997 113.5459988  81.4660409  20.9812883 113.1200589
  86.2500012  20.5994997 116.4929988  86.6700012  20.1844997 117.2459988
  85.3170012  20.4214997 116.6099988  86.1813644  20.5185900 116.6119539
  89.5760012  24.3554997 117.3459988  89.0620012  24.2294997 118.1439988
  89.4210012  25.2674997 117.1019988  89.4846852  24.4616132 117.4222158
  85.9110012  23.0924997 103.7779988  85.6580012  23.1114997 104.7009988
  85.6550012  22.2204997 103.4759988  85.8417481  22.9772558 103.8636175
  81.6780012  25.8434997 114.2129988  81.0360012  25.8024997 114.9219988
  81.7150012  26.7694997 113.9749988  81.5950664  25.9631430 114.2779219
  81.6750012  26.0644997 109.1249988  80.7820012  25.7234997 109.0659988
  82.1250012  25.6874997 108.3689988  81.6138130  25.9669631 109.0147702
  87.2100012  26.4804997 107.9419988  86.8010012  27.2954997 107.6509988
  87.9310012  26.3404997 107.3279988  87.2514537  26.5732018 107.8191342
  86.3120012  26.6554997 119.4299988  85.7500012  25.9514997 119.7509988
  87.1390012  26.5354997 119.8979988  86.3467095  26.5427883 119.5372330
  88.2150012  25.9264997 110.7559988  88.0200012  26.5314997 110.0409988
  88.3960012  25.0924997 110.3219988  88.2127614  25.8966300 110.5994405
  79.4280012  26.1634997 116.0799988  79.3900012  26.5634997 116.9489988
  78.9370012  25.3464997 116.1709988  79.3564684  26.1078069 116.2111059
  82.7940012  23.5374997 102.8789988  82.3630012  23.0924997 103.6089988
  82.0760012  23.9094997 102.3669988  82.6379438  23.5268940 102.9096799
  76.0360012  23.2794997 109.9309988  76.6670012  23.2504997 110.6499988
  76.4850012  22.8544997 109.1999988  76.1830918  23.2180836 109.9306441
  87.4790012  27.5644997 115.4269988  87.8020012  26.9334997 114.7839988
  87.0390012  27.0294997 116.0879988  87.4637484  27.4058387 115.4283198
  84.2560012  23.4914997 110.2109988  83.3450012  23.5484997 110.4999988
  84.7620012  23.4314997 111.0219988  84.1996899  23.4911941 110.3601184
  79.0850012  25.1204997 109.0379988  78.1950012  25.2204997 108.6979988
  79.3810012  24.2784997 108.6919988  79.0032823  25.0203545 108.9447213
  82.7380012  25.1204997 106.6949988  83.6690012  25.2494997 106.8729988
  82.5230012  25.7904997 106.0449988  82.8364247  25.2286565 106.6315747
  88.6610012  22.7264997 113.4759988  87.9850012  22.8574997 114.1399988
  88.1760012  22.5714997 112.6649988  88.5027146  22.7235157 113.4574469
  81.4120012  26.3154997 104.2609988  80.8690012  25.9354997 103.5699988
  82.2450012  26.5094997 103.8329988  81.4503631  26.2897125 104.1084501
  91.9490012  38.3984997 119.7519988  92.1490012  38.8224997 118.9179988
  92.6040012  38.7414997 120.3589988  92.0650072  38.5029857 119.7198592
  79.5470012  30.8724997 119.3599988  80.2790012  31.1264997 119.9219988
  78.7670012  31.0764997 119.8759988  79.5417073  30.9348160 119.5066151
  85.5760012  26.2794997 112.0979988  86.1410012  25.7324997 111.5509988
  85.4290012  25.7574997 112.8869988  85.6333380  26.1342259 112.1298695
  80.5780012  22.4154997 108.5169988  80.2610012  21.5134997 108.4809988
  81.3600012  22.4174997 107.9639988  80.6402408  22.2922474 108.4373569
  84.2030012  24.6674997 114.5119988  83.3670012  25.1214997 114.6229988
  84.7270012  24.9434997 115.2639988  84.1595416  24.7668660 114.6288119
  84.7470012  30.8804997 106.1969988  84.0020012  30.3734997 105.8749988
  84.6130012  30.9294997 107.1439988  84.6268776  30.8176940 106.2808647
  91.8970012  30.0134997 114.9839988  92.5390012  30.4704997 114.4399988
  91.0670012  30.1264997 114.5209988  91.8725963  30.0912704 114.8470177
  88.6450012  23.6944997 104.3959988  87.7060012  23.8064997 104.2449988
  88.9420012  24.5514997 104.7029988  88.5567583  23.8255981 104.4168337
  86.2660012  31.0644997 117.4339988  85.9210012  30.6834997 118.2409988
  86.0660012  31.9984997 117.5049988  86.1917527  31.1385135 117.5540689
  89.3630012  25.5614997 106.0569988  90.2550012  25.4244997 106.3759988
  89.4200012  26.3524997 105.5199988  89.4926504  25.6496052 106.0280818
  79.8720012  30.1754997 111.9669988  80.6170012  30.1734997 111.3659988
  79.9500012  29.3524997 112.4479988  79.9844995  30.0638887 111.9498282
  86.8730012  32.3394997 105.2229988  86.5770012  33.1654997 105.6039988
  86.1700012  31.7194997 105.4189988  86.7374914  32.3688199 105.3016443
  76.8800012  28.6364997 117.2819988  77.1030012  28.2184997 118.1139988
  76.2780012  28.0234997 116.8589988  76.8291759  28.4964668 117.3387022
  83.8960012  28.1534997 119.4949988  83.6000012  27.9874997 118.5999988
  84.8280012  27.9334997 119.4839988  83.9814166  28.1010640 119.3710536
  88.5170012  33.5264997 117.3849988  87.6160012  33.7094997 117.1169988
  88.5510012  33.7854997 118.3049988  88.3983139  33.5865849 117.4728099
  94.2480012  25.7714997 105.7519988  93.6940012  25.3754997 105.0799988
  94.3480012  26.6814997 105.4739988  94.1857059  25.8403586 105.6224401
  94.2110012  31.5714997 118.5889988  93.3600012  31.8094997 118.2219988
  94.8020012  31.5544997 117.8359988  94.1742487  31.6018258 118.4368893
  92.5430012  34.5574997 106.2169988  92.1700012  33.7314997 106.5259988
  92.8210012  34.3744997 105.3189988  92.5295222  34.4197430 106.1379473
  89.7040012  29.3654997 113.2379988  88.7750012  29.1334997 113.2109988
  90.1550012  28.5884997 112.9079988  89.6379216  29.2287238 113.1896917
  82.2470012  33.6934997 109.3709988  82.7740012  34.4664997 109.1709988
  81.3670012  33.9184997 109.0689988  82.2002031  33.8297545 109.3027912
  78.0020012  28.5554997 103.9579988  78.6180012  29.1824997 104.3379988
  77.1400012  28.8714997 104.2299988  77.9697698  28.6839430 104.0467183
  83.6740012  31.3564997 108.9469988  83.4330012  32.2814997 108.9889988
  82.9330012  30.8974997 109.3439988  83.5409225  31.4210933 109.0063742
  84.1890012  35.5054997 115.2629988  84.5510012  36.3604997 115.0289988
  84.7200012  35.2134997 116.0029988  84.3104473  35.5831060 115.3310855
  82.3570012  36.3784997 108.4929988  81.4070012  36.4834997 108.5439988
  82.7090012  37.1984997 108.8369988  82.2744195  36.5038800 108.5465502
  87.7330012  31.6044997 114.9629988  87.3070012  31.3774997 115.7899988
  88.3130012  30.8664997 114.7809988  87.7531868  31.4735299 115.0515830
  89.9360012  32.5334997 104.0369988  90.2890012  32.1534997 104.8409988
  88.9870012  32.4404997 104.1239988  89.8560918  32.4688956 104.1588532
  90.3910012  36.1564997 117.4329988  89.7900012  35.6014997 116.9369988
  90.6730012  36.8234997 116.8059988  90.3468804  36.1706625 117.2804849
  94.4390012  37.0134997 104.2379988  95.1830012  37.5994997 104.0979988
  93.7450012  37.5814997 104.5709988  94.4469899  37.1705798 104.2638778
  78.5140012  23.3894997 116.8399988  77.6210012  23.7284997 116.7719988
  78.4150012  22.5344997 117.2579988  78.3784164  23.3202588 116.8872235
  90.8020012  31.2064997 106.2639988  90.5240012  30.4784997 106.8199988
  91.7290012  31.3254997 106.4689988  90.8893124  31.1228802 106.3678845
  78.1650012  35.1944997 115.2749988  78.3820012  34.2624997 115.2439988
  78.4110012  35.4684997 116.1579988  78.2279549  35.1040636 115.3901763
  79.4170012  30.4684997 105.4509988  78.7310012  30.8204997 106.0179988
  79.9390012  31.2314997 105.2039988  79.3936852  30.6198578 105.4952118
  87.2480012  23.1304997 115.7299988  87.9470012  23.2044997 116.3799988
  86.8670012  22.2664997 115.8839988  87.2921767  23.0237624 115.8398322
  88.0330012  22.7824997 106.8269988  88.2530012  23.2544997 106.0239988
  88.5910012  23.1774997 107.4969988  88.1384968  22.9004285 106.8077331
  85.7010012  34.9134997 105.6899988  84.8850012  35.4104997 105.7419988
  86.2310012  35.3884997 105.0499988  85.6609161  35.0457722 105.6105956
  85.2330012  24.5104997 107.6619988  86.0450012  25.0154997 107.7079988
  84.9880012  24.3654997 108.5759988  85.3110520  24.5600375 107.7918517
  85.7680012  25.4964997 116.8459988  85.8870012  26.0704997 117.6039988
  86.4240012  24.8084997 116.9609988  85.8729025  25.4819858 116.9651321
  86.1160012  21.5914997 108.5999988  85.7700012  22.2094997 109.2439988
  86.7750012  22.0924997 108.1179988  86.1576968  21.7436278 108.6229383
  83.0400012  35.9574997 105.6709988  83.2000012  36.7564997 105.1709988
  82.8420012  36.2634997 106.5559988  83.0351637  36.1084020 105.7221144
  91.9730012  23.4034997 117.6809988  91.0560012  23.6664997 117.5939988
  92.3080012  23.4004997 116.7849988  91.8928613  23.4390761 117.5478837
  90.5750012  27.1544997 111.7769988  89.7770012  26.7394997 111.4489988
  91.0200012  26.4634997 112.2679988  90.5259885  27.0043543 111.7984889
  78.3490012  25.7464997 103.4639988  78.3040012  26.6854997 103.6419988
  77.4610012  25.5104997 103.1939988  78.2228574  25.8431892 103.4518912
  91.6610012  36.4104997 113.3999988  91.5060012  37.0884997 112.7419988
  92.5940012  36.4824997 113.6029988  91.7658657  36.5129546 113.3374360
  79.1570012  20.5284997 112.1369988  78.9280012  20.5874997 111.2089988
  78.7140012  19.7364997 112.4429988  79.0658530  20.4295753 112.0514786
  78.0870012  34.4684997 108.2969988  77.2550012  34.9414997 108.3239988
  78.6330012  34.9784997 107.6989988  78.0470352  34.6021332 108.2198463
  77.3750012  37.0814997 119.6269988  77.9160012  36.8644997 120.3869988
  76.8940012  36.2754997 119.4369988  77.3839951  36.9429270 119.7052576
  81.9730012  36.0004997 121.2469988  82.7400012  35.5414997 121.5879988
  81.9510012  35.7744997 120.3179988  82.0751275  35.9070186 121.1680101
  88.5500012  34.3804997 119.9769988  88.1990012  33.5244997 120.2199988
  89.2760012  34.5234997 120.5839988  88.6000769  34.2825636 120.0923619
  90.6690012  35.3254997 102.8559988  90.9520012  34.5314997 103.3089988
  91.4090012  35.5584997 102.2959988  90.8078006  35.2483376 102.8422715
  77.2820012  30.8914997 120.5809988  77.4260012  29.9894997 120.2949988
  76.5100012  31.1774997 120.0939988  77.1972753  30.8066816 120.4759505
  83.9380012  30.8614997 120.0139988  83.6090012  31.1324997 119.1569988
  84.0900012  29.9204997 119.9269988  83.9134809  30.7713862 119.8848244
  89.6720012  30.7774997 117.3969988  90.4180012  31.3654997 117.2779988
  88.9150012  31.3594997 117.4609988  89.6717820  30.9367143 117.3893590
  78.1150012  28.0914997 120.0009988  78.5230012  27.2344997 119.8799988
  77.8550012  28.1064997 120.9219988  78.1357568  27.9760807 120.1089588
  82.7730012  29.2074997 105.0199988  82.3130012  28.7234997 105.7059988
  83.0280012  28.5394997 104.3839988  82.7444902  29.0508731 105.0279334
  82.0620012  27.1004997 117.3759988  81.4440012  27.7754997 117.6559988
  82.4060012  27.4214997 116.5419988  82.0239132  27.2362411 117.3016262
  87.0820012  29.5724997 120.6529988  88.0350012  29.6554997 120.6259988
  86.9210012  28.8604997 121.2729988  87.1906426  29.4876746 120.7330579
  82.4010012  24.4554997 118.4579988  82.5510012  23.7264997 117.8559988
  82.4040012  25.2324997 117.8989988  82.4219302  24.4607851 118.3000692
  82.8140012  22.8254997 115.9509988  83.3500012  23.2764997 115.2989988
  81.9620012  22.7174997 115.5279988  82.7722178  22.8726390 115.8045756
  84.3960012  28.2644997 116.1899988  85.1460012  28.1084997 115.6169988
  84.0570012  29.1164997 115.9149988  84.4528921  28.3582968 116.0743561
  88.8110012  26.0794997 121.2189988  89.0040012  25.1484997 121.1069988
  89.6690012  26.5044997 121.2079988  88.9532934  26.0096531 121.2022031
  90.1280012  28.8684997 119.2959988  89.8470012  29.5774997 118.7179988
  91.0710012  28.7954997 119.1449988  90.2169291  28.9556711 119.1964967
  80.8800012  25.6534997 120.3699988  80.1130012  25.1214997 120.1589988
  81.5590012  25.3434997 119.7699988  80.8667877  25.5388300 120.2600716
  83.6200012  20.2814997 116.3819988  83.5210012  21.2284997 116.2769988
  82.8770012  19.9094997 115.9059988  83.5061184  20.3605863 116.3033621
  84.8840012  24.6034997 119.9459988  84.6480012  24.3834997 120.8469988
  84.1000012  24.3964997 119.4359988  84.7458504  24.5454586 120.0003431
  87.5990012  23.7304997 119.0209988  86.6520012  23.7624997 119.1539988
  87.9120012  23.1054997 119.6749988  87.5116707  23.6503998 119.1276060
  89.2330012  22.3644997 121.0269988  89.1370012  21.4124997 121.0209988
  88.9120012  22.6334997 121.8869988  89.1764070  22.2704035 121.1425441
  79.0600012  23.5744997 120.0739988  79.2720012  22.8674997 119.4639988
  78.9490012  23.1364997 120.9179988  79.0739721  23.4187084 120.1046843
  83.8410012  19.5754997 119.0529988  84.5530012  18.9354997 119.0389988
  83.7400012  19.8424997 118.1399988  83.9248066  19.5240079 118.9275677
  84.1950012  21.2584997 121.1069988  84.0630012  20.7824997 120.2869988
  83.5960012  22.0024997 121.0519988  84.0959071  21.2939618 120.9872886
  83.7410012  38.1414997 104.2829988  84.6740012  38.2994997 104.4269988
  83.4770012  38.8164997 103.6589988  83.8329888  38.2544510 104.2182842
  75.9590012  38.1704997 108.8439988  75.3120012  37.7084997 108.3109988
  76.3130012  37.4984997 109.4259988  75.9183849  38.0164723 108.8497959
  76.8290012  36.2514997 110.6479988  76.4940012  35.3714997 110.8199988
  77.0510012  36.5964997 111.5129988  76.8131783  36.1777500 110.7884208
  94.3770012  37.0604997 113.6289988  94.3560012  37.2454997 114.5679988
  95.0680012  37.6294997 113.2879988  94.4674618  37.1626606 113.7113864
  93.9410012  36.6284997 116.5509988  93.4530012  35.8924997 116.1789988
  94.4900012  36.2344997 117.2289988  93.9484820  36.4745889 116.5917813
  92.3910012  32.4174997 121.1889988  91.5250012  32.3124997 121.5829988
  92.7680012  33.1764997 121.6349988  92.3233308  32.5056900 121.3032393
  94.0870012  28.7274997 108.5259988  93.3600012  28.2484997 108.9239988
  94.6680012  28.9334997 109.2589988  94.0660473  28.6898103 108.6794528
  93.8460012  31.5124997 113.4739988  94.6790012  31.1344997 113.1939988
  93.9580012  32.4554997 113.3549988  93.9752647  31.5882218 113.4195487
  92.3320012  34.3904997 115.7809988  91.6850012  34.7154997 116.4069988
  91.8150012  33.9504997 115.1069988  92.1734029  34.3755004 115.7755827
  92.7040012  25.8684997 103.4679988  92.8000012  26.5354997 102.7879988
  92.5640012  25.0524997 102.9869988  92.6982272  25.8495655 103.3098347
  91.8730012  27.2484997 109.0889988  91.7230012  26.3034997 109.0689988
  91.5200012  27.5294997 109.9329988  91.8047448  27.1571481 109.2003705
  76.9090012  29.3264997 113.0999988  77.0930012  29.2444997 112.1639988
  77.7580012  29.2024997 113.5229988  77.0490151  29.2985073 113.0291451
  92.7300012  29.2184997 118.7279988  93.3130012  28.4844997 118.9199988
  93.2940012  29.9904997 118.7749988  92.8859769  29.2224227 118.7606159
  94.2260012  27.1214997 119.4129988  93.3630012  26.7424997 119.2469988
  94.8310012  26.3824997 119.3379988  94.1896119  26.9698268 119.3801528
  91.5840012  24.8314997 107.5519988  91.8640012  23.9244997 107.6759988
  92.3430012  25.2654997 107.1629988  91.7249277  24.7660942 107.5163682
  92.1960012  25.4124997 112.9879988  93.1290012  25.6244997 112.9529988
  91.9610012  25.5144997 113.9099988  92.2919244  25.4553100 113.1078892
  92.2250012  26.1494997 115.7639988  91.3820012  26.4174997 116.1299988
  92.6670012  26.9714997 115.5529988  92.1694158  26.2973291 115.7855491
  76.5060012  24.5974997 119.2409988  77.4260012  24.4754997 119.4769988
  76.0570012  23.8474997 119.6299988  76.5711580  24.4793727 119.3259006
  94.5080012  20.1294997 121.1169988  94.8580012  19.4754997 120.5119988
  94.6550012  20.9664997 120.6769988  94.5757887  20.1531548 120.9746858
  92.1970012  22.0944997 107.5999988  92.3800012  21.6454997 108.4259988
  91.5980012  21.5094997 107.1369988  92.1410202  21.9539975 107.6503275
  77.7270012  22.9094997 112.1319988  78.1730012  22.1174997 112.4339988
  78.1940012  23.6254997 112.5619988  77.8510831  22.8980685 112.2314006
  76.0310012  25.9084997 113.2009988  76.5230012  25.6874997 112.4099988
  76.3940012  26.7494997 113.4819988  76.1473126  25.9918357 113.1307531
  94.0280012  22.2384997 119.4659988  93.1100012  22.5094997 119.4309988
  94.1510012  21.7034997 118.6819988  93.9189729  22.2032508 119.3551923
  76.3450012  22.1664997 107.2549988  75.4200012  22.3754997 107.1259988
  76.7990012  22.6504997 106.5649988  76.2797292  22.2605343 107.1440720
  91.1160012  37.1504997 109.2009988  91.7680012  36.8034997 108.5929988
  91.6260012  37.6394997 109.8469988  91.2742637  37.1690597 109.2050236
  76.3090012  20.9044997 115.5989988  75.6440012  20.6584997 116.2429988
  75.8660012  21.5264997 115.0219988  76.1581318  20.9549410 115.6090898
  78.5010012  34.0794997 119.7439988  77.6800012  34.2544997 119.2829988
  78.2480012  34.0064997 120.6639988  78.3545585  34.0935544 119.8053561
  81.4550012  35.0544997 116.0019988  81.0300012  35.8634997 115.7199988
  82.3590012  35.1394997 115.6999988  81.5189975  35.1769300 115.9224816
  85.7660012  36.4534997 118.9619988  85.9510012  36.1194997 119.8399988
  86.6120012  36.7624997 118.6399988  85.9057539  36.4496047 119.0385605
  88.1110012  37.7394997 118.2059988  88.7880012  37.1064997 117.9659988
  88.4330012  38.1404997 119.0129988  88.2471637  37.7071154 118.2822793
  93.0280012  20.3284997 117.2849988  92.2160012  20.6534997 116.8979988
  93.2610012  19.5684997 116.7519988  92.9482203  20.2702758 117.1598880
  78.8570012  38.3104997 116.0499988  78.1360012  38.7504997 115.5989988
  78.4910012  38.0594997 116.8979988  78.7089651  38.3367242 116.1029640
  81.3240012  37.9104997 115.0799988  80.4590012  37.9824997 115.4839988
  81.2690012  38.4574997 114.2959988  81.1982085  37.9942685 115.0293362
  86.0340012  37.7984997 114.2549988  85.5780012  38.3274997 113.6009988
  86.1970012  38.4014997 114.9799988  85.9936068  37.9524607 114.2634838
  88.3620012  36.6764997 115.1999988  87.4570012  36.8414997 114.9339988
  88.7910012  37.5294997 115.1349988  88.2961324  36.8144339 115.1547976
  90.9660012  38.2464997 115.4949988  90.7840012  39.1624997 115.2849988
  91.1430012  37.8364997 114.6489988  90.9650210  38.3164822 115.3517885
  78.2710012  36.9334997 112.9599988  78.2530012  36.5084997 113.8169988
  79.0760012  36.6154997 112.5509988  78.3773529  36.8323013 113.0220946
  80.4130012  35.6434997 111.6149988  80.1940012  34.7274997 111.7849988
  81.2370012  35.7834997 112.0809988  80.4944420  35.5370520 111.7012774
  82.9500012  36.1134997 112.4639988  83.1630012  35.2254997 112.1769988
  83.0140012  36.0794997 113.4179988  82.9878232  35.9873102 112.5537397
  86.4580012  21.7774997 111.6079988  85.7840012  21.1484997 111.8639988
  87.0220012  21.2934997 111.0049988  86.4419230  21.6258744 111.5615340
  91.6010012  19.8854997 111.7209988  92.2050012  20.4324997 111.2189988
  90.7310012  20.2044997 111.4799988  91.5661208  20.0035137 111.6196886
  93.3280012  21.0234997 110.0539988  93.9400012  20.5094997 109.5269988
  93.7100012  21.9014997 110.0769988  93.4633371  21.0717866 109.9850041
  78.7850012  20.4114997 109.4299988  78.0080012  20.1774997 108.9229988
  79.3150012  19.6144997 109.4389988  78.7502330  20.2716988 109.3617742
  83.3640012  20.3384997 109.2439988  84.2390012  20.7264997 109.2139988
  83.2280012  20.1234997 110.1659988  83.4653695  20.3625184 109.3646440
  88.9210012  20.3684997 110.8929988  88.9970012  20.4634997 109.9429988
  88.6460012  19.4604997 111.0219988  88.8942321  20.2587867 110.7805079
  90.2740012  20.3944997 106.5849988  89.5720012  21.0094997 106.3749988
  89.8300012  19.5564997 106.7159988  90.1176450  20.3655639 106.5739000
  77.5220012  36.1574997 106.1309988  76.8370012  36.1194997 105.4639988
  77.5260012  37.0704997 106.4199988  77.4286998  36.2756733 106.0786771
  84.5080012  22.4184997 106.1329988  84.6860012  21.7724997 106.8159988
  84.4550012  23.2524997 106.5999988  84.5251999  22.4428009 106.2895917
  93.0960012  36.9304997 107.2079988  92.9010012  36.1824997 106.6429988
  93.0570012  37.6884997 106.6249988  93.0640380  36.9306099 107.0518384
  78.7430012  20.9254997 118.9479988  78.3770012  20.1604997 119.3899988
  79.6560012  20.9544997 119.2339988  78.8162736  20.8245640 119.0472502
  80.7160012  20.2764997 120.4839988  81.6140012  20.0024997 120.2989988
  80.3290012  19.5334997 120.9479988  80.7866612  20.1385914 120.5213643
  79.3400012  37.0774997 103.1569988  79.0730012  37.3644997 104.0299988
  80.1120012  36.5314997 103.3089988  79.4077488  37.0430294 103.2971050
  89.1370012  19.6084997 120.6659988  89.2140012  19.1824997 121.5199988
  90.0310012  19.6224997 120.3229988  89.2683428  19.5520879 120.7365310
  92.3130012  35.6814997 119.3579988  91.5310012  35.4954997 118.8379988
  92.2410012  36.6104997 119.5759988  92.1962274  35.7816643 119.3163018
 106.7190012  29.5674997 109.3889988 106.8080012  30.5114997 109.2569988
 106.0810012  29.2924997 108.7309988 106.6449081  29.6594830 109.2819614
 105.6520012  28.8224997 112.8079988 105.6140012  28.1764997 113.5129988
 105.3300012  28.3564997 112.0369988 105.6032333  28.6709408 112.8002978
  98.0210012  28.4374997 114.4009988  98.0620012  27.8114997 115.1239988
  98.7240012  29.0614997 114.5829988  98.1216363  28.4361196 114.5246044
 109.3580012  31.7614997 111.1089988 108.9180012  31.0414997 111.5599988
 109.3450012  32.4824997 111.7389988 109.2960226  31.7603731 111.2558494
  98.9440012  32.8874997 112.9359988  98.5750012  32.0854997 112.5659988
  99.8850012  32.7184997 112.9819988  99.0207289  32.7550153 112.8916316
  95.5540012  26.5474997 108.3289988  95.1070012  27.3934997 108.3099988
  94.9930012  25.9674997 107.8129988  95.4169900  26.5849916 108.2566801
  96.2650012  28.7094997 110.4539988  96.4780012  27.9394997 110.9819988
  97.0030012  28.7984997 109.8509988  96.3939044  28.6161968 110.4447123
 106.4700012  36.8664997 111.3209988 107.0900012  36.1894997 111.0479988
 106.2620012  36.6484997 112.2299988 106.5266726  36.7444800 111.4064812
 104.0420012  31.2554997 113.2139988 104.3460012  30.5694997 112.6189988
 104.7630012  31.3734997 113.8319988 104.1810671  31.1776305 113.2161816
 112.7050012  22.8564997 114.0749988 112.7540012  23.4664997 114.8099988
 113.1300012  23.3174997 113.3519988 112.7691746  23.0023796 114.0779175
 107.1830012  25.6494997 113.5409988 107.3250012  24.7034997 113.5619988
 107.0760012  25.8564997 112.6129988 107.1879919  25.5478246 113.4183408
 100.3370012  23.7504997 110.8139988 100.3810012  24.6104997 110.3949988
  99.8800012  23.1984997 110.1799988 100.2812240  23.7934422 110.6709864
 108.0600012  23.8814997 109.2149988 108.7060012  23.5524997 109.8389988
 108.5700012  24.3994997 108.5919988 108.2174299  23.9064450 109.2162731
  96.9580012  26.1474997 111.5759988  97.6110012  25.5974997 112.0079988
  96.9820012  25.8734997 110.6589988  97.0506683  26.0351466 111.5112123
 102.1140012  27.6974997 110.7909988 102.7300012  27.1714997 111.3009988
 101.5280012  27.0574997 110.3879988 102.1190810  27.5389208 110.8063173
 113.0960012  24.3344997 116.3099988 112.4080012  24.9924997 116.2149988
 113.1120012  24.1374997 117.2469988 113.0039540  24.3979819 116.4235990
  99.1480012  22.6684997 114.8879988  98.9290012  23.1984997 114.1219988
  98.4800012  22.8954997 115.5349988  99.0277600  22.7716906 114.8706379
 106.5170012  32.1684997 108.4319988 106.2210012  31.8464997 107.5809988
 106.1920012  33.0684997 108.4729988 106.4326371  32.2460215 108.3211801
 101.7170012  30.3444997 115.1749988 100.9770012  30.9424997 115.2789988
 102.4310012  30.8984997 114.8599988 101.7122237  30.5012831 115.1466465
 109.8240012  23.1724997 111.1949988 109.6080012  22.4064997 111.7279988
 110.4790012  23.6444997 111.7079988 109.8830632  23.1315889 111.3372861
  98.7410012  24.5604997 112.8399988  99.3550012  25.1934997 113.2129988
  99.2530012  24.0884997 112.1839988  98.8941981  24.5832267 112.8022908
 100.1240012  32.3084997 115.9619988 100.1190012  33.1884997 115.5839988
  99.2710012  32.2254997 116.3869988 100.0079464  32.4176117 115.9677907
  96.2450012  31.9794997 106.7439988  95.9730012  32.2084997 105.8559988
  96.2910012  32.8174997 107.2049988  96.2139482  32.1241318 106.6846273
 109.8700012  33.6014997 113.4569988 108.9290012  33.6594997 113.6189988
 110.1470012  34.5074997 113.3199988 109.7784679  33.7319443 113.4606815
 110.1710012  21.8874997 114.8749988 109.4350012  22.4984997 114.8369988
 110.8540012  22.3024997 114.3479988 110.1626541  22.0271374 114.7985832
 103.1740012  19.9744997 112.3399988 103.0570012  19.0254997 112.2859988
 102.3190012  20.3064997 112.6139988 103.0424212  19.8895571 112.3696497
 108.1220012  35.3824997 110.0819988 108.5480012  34.6754997 109.5969988
 108.4390012  36.1834997 109.6659988 108.2231683  35.3941017 109.9593680
 109.2820012  33.2834997 108.5909988 109.0240012  32.5934997 107.9799988
 109.3530012  32.8404997 109.4369988 109.2562856  33.1292124 108.6216885
 110.9680012  31.8494997 117.0679988 111.1080012  31.2584997 116.3289988
 111.1350012  32.7224997 116.7119988 111.0097411  31.8865428 116.9186894
 105.4410012  28.8114997 106.8409988 104.7290012  29.3464997 106.4889988
 106.1320012  28.8674997 106.1809988 105.4370132  28.8922543 106.7036289
 112.8100012  28.1894997 115.1339988 112.1570012  28.8844997 115.2239988
 113.2750012  28.3994997 114.3249988 112.7835274  28.3130643 115.0368462
 108.8460012  29.0214997 107.7929988 108.1140012  29.2494997 108.3659988
 109.2940012  28.3074997 108.2469988 108.8062725  28.9562145 107.9328816
 108.7440012  27.1954997 116.8599988 108.8240012  27.9584997 117.4319988
 108.1420012  27.4744997 116.1699988 108.6735756  27.3377134 116.8450589
 100.4920012  29.6514997 109.6749988 100.1610012  29.2814997 108.8569988
 101.0800012  28.9814997 110.0219988 100.5261873  29.5101156 109.6098102
 101.8580012  33.0794997 112.3559988 101.7640012  32.5014997 111.5999988
 102.5880012  32.7084997 112.8529988 101.9437387  32.9501663 112.3195342
 100.8580012  28.4204997 113.3089988 101.4240012  28.5414997 112.5459988
 101.1770012  29.0574997 113.9469988 100.9785474  28.5232219 113.2909862
 107.1670012  33.9234997 114.0429988 106.9270012  34.5854997 114.6909988
 106.9690012  33.0894997 114.4679988 107.1073808  33.9013134 114.1891524
 101.7380012  32.8194997 118.0259988 101.4270012  33.6014997 118.4809988
 101.0880012  32.6664997 117.3399988 101.6075558  32.9059105 117.9955871
 107.7170012  28.1834997 105.4779988 108.2970012  28.3334997 106.2249988
 108.1310012  28.6544997 104.7539988 107.8522997  28.2676578 105.4824058
  98.6580012  29.0174997 117.2539988  98.7290012  29.6684997 117.9529988
  97.7680012  29.1204997 116.9189988  98.5473005  29.1205427 117.3043495
 105.4440012  34.9204997 108.9129988 105.9180012  35.2154997 109.6899988
 104.8810012  35.6584997 108.6799988 105.4328184  35.0607247 108.9879628
  99.9780012  34.8914997 118.7889988  99.9850012  34.7554997 117.8419988
  99.0620012  34.7734997 119.0409988  99.8551714  34.8569430 118.6934666
 111.4160012  19.9334997 105.2909988 110.5160012  20.0724997 105.5859988
 111.6680012  20.7644997 104.8889988 111.3268702  20.0649074 105.2770205
  99.4820012  28.7214997 107.2639988  99.1900012  29.4894997 106.7739988
  98.8080012  28.0614997 107.1019988  99.3508111  28.7375587 107.1748978
 112.6050012  34.2994997 103.6669988 112.6790012  35.2384997 103.8379988
 113.5110012  33.9944997 103.6109988 112.7375100  34.3866722 103.6828119
  95.5750012  31.0844997 116.0789988  95.0740012  31.0564997 115.2639988
  95.5800012  30.1784997 116.3889988  95.5070944  30.9582396 116.0093226
  95.3250012  33.8644997 112.9629988  96.2710012  33.7204997 112.9439988
  95.2130012  34.6484997 113.4999988  95.4392727  33.9508046 113.0330072
 113.5230012  34.5304997 118.6459988 113.4740012  33.5754997 118.6089988
 112.6960012  34.7984997 119.0469988 113.4044940  34.4358998 118.6951375
 104.5020012  34.1044997 117.5219988 104.5890012  34.9304997 117.9969988
 103.6380012  33.7744997 117.7709988 104.3971964  34.1729878 117.6206549
 104.9160012  37.8764997 107.3279988 104.8410012  37.7554997 106.3809988
 104.9490012  38.8264997 107.4459988 104.9102068  37.9882646 107.2144967
  98.5690012  36.6654997 109.1089988  98.7220012  36.3174997 109.9869988
  97.7190012  36.3094997 108.8539988  98.4749166  36.5696217 109.1948079
 107.6870012  36.9564997 107.0789988 106.7510012  37.0564997 107.2579988
 107.9670012  36.2474997 107.6579988 107.5969553  36.8743406 107.1817087
 110.6750012  26.0234997 119.1259988 110.2680012  26.5044997 118.4049988
 110.7160012  25.1184997 118.8179988 110.6248437  25.9669374 118.9856683
  97.8240012  32.4074997 117.1229988  98.0400012  32.0464997 117.9819988
  96.9690012  32.0334997 116.9129988  97.7379292  32.3074111 117.2123386
 100.4430012  20.8774997 113.1179988  99.5810012  20.7904997 112.7099988
 100.4200012  21.7334997 113.5459988 100.3220409  20.9812883 113.1200589
 105.1060012  20.5994997 116.4929988 105.5260012  20.1844997 117.2459988
 104.1730012  20.4214997 116.6099988 105.0373644  20.5185900 116.6119539
 108.4320012  24.3554997 117.3459988 107.9180012  24.2294997 118.1439988
 108.2770012  25.2674997 117.1019988 108.3406852  24.4616132 117.4222158
 100.5340012  25.8434997 114.2129988  99.8920012  25.8024997 114.9219988
 100.5710012  26.7694997 113.9749988 100.4510664  25.9631430 114.2779219
 100.5310012  26.0644997 109.1249988  99.6380012  25.7234997 109.0659988
 100.9810012  25.6874997 108.3689988 100.4698130  25.9669631 109.0147702
 106.0660012  26.4804997 107.9419988 105.6570012  27.2954997 107.6509988
 106.7870012  26.3404997 107.3279988 106.1074537  26.5732018 107.8191342
 105.1680012  26.6554997 119.4299988 104.6060012  25.9514997 119.7509988
 105.9950012  26.5354997 119.8979988 105.2027095  26.5427883 119.5372330
 107.0710012  25.9264997 110.7559988 106.8760012  26.5314997 110.0409988
 107.2520012  25.0924997 110.3219988 107.0687614  25.8966300 110.5994405
  98.2840012  26.1634997 116.0799988  98.2460012  26.5634997 116.9489988
  97.7930012  25.3464997 116.1709988  98.2124684  26.1078069 116.2111059
  94.8920012  23.2794997 109.9309988  95.5230012  23.2504997 110.6499988
  95.3410012  22.8544997 109.1999988  95.0390918  23.2180836 109.9306441
  96.1660012  24.0254997 105.3549988  96.6400012  24.6164997 104.7699988
  95.4490012  24.5564997 105.7019988  96.1339341  24.1780867 105.3218836
 106.3350012  27.5644997 115.4269988 106.6580012  26.9334997 114.7839988
 105.8950012  27.0294997 116.0879988 106.3197484  27.4058387 115.4283198
 103.1120012  23.4914997 110.2109988 102.2010012  23.5484997 110.4999988
 103.6180012  23.4314997 111.0219988 103.0556899  23.4911941 110.3601184
  97.9410012  25.1204997 109.0379988  97.0510012  25.2204997 108.6979988
  98.2370012  24.2784997 108.6919988  97.8592823  25.0203545 108.9447213
 101.5940012  25.1204997 106.6949988 102.5250012  25.2494997 106.8729988
 101.3790012  25.7904997 106.0449988 101.6924247  25.2286565 106.6315747
 107.5170012  22.7264997 113.4759988 106.8410012  22.8574997 114.1399988
 107.0320012  22.5714997 112.6649988 107.3587146  22.7235157 113.4574469
 110.8050012  38.3984997 119.7519988 111.0050012  38.8224997 118.9179988
 111.4600012  38.7414997 120.3589988 110.9210072  38.5029857 119.7198592
  98.4030012  30.8724997 119.3599988  99.1350012  31.1264997 119.9219988
  97.6230012  31.0764997 119.8759988  98.3977073  30.9348160 119.5066151
 104.4320012  26.2794997 112.0979988 104.9970012  25.7324997 111.5509988
 104.2850012  25.7574997 112.8869988 104.4893380  26.1342259 112.1298695
  99.4340012  22.4154997 108.5169988  99.1170012  21.5134997 108.4809988
 100.2160012  22.4174997 107.9639988  99.4962408  22.2922474 108.4373569
 103.0590012  24.6674997 114.5119988 102.2230012  25.1214997 114.6229988
 103.5830012  24.9434997 115.2639988 103.0155416  24.7668660 114.6288119
 103.6030012  30.8804997 106.1969988 102.8580012  30.3734997 105.8749988
 103.4690012  30.9294997 107.1439988 103.4828776  30.8176940 106.2808647
 110.7530012  30.0134997 114.9839988 111.3950012  30.4704997 114.4399988
 109.9230012  30.1264997 114.5209988 110.7285963  30.0912704 114.8470177
 105.1220012  31.0644997 117.4339988 104.7770012  30.6834997 118.2409988
 104.9220012  31.9984997 117.5049988 105.0477527  31.1385135 117.5540689
 108.2190012  25.5614997 106.0569988 109.1110012  25.4244997 106.3759988
 108.2760012  26.3524997 105.5199988 108.3486504  25.6496052 106.0280818
  98.7280012  30.1754997 111.9669988  99.4730012  30.1734997 111.3659988
  98.8060012  29.3524997 112.4479988  98.8404995  30.0638887 111.9498282
  95.7360012  28.6364997 117.2819988  95.9590012  28.2184997 118.1139988
  95.1340012  28.0234997 116.8589988  95.6851759  28.4964668 117.3387022
 102.7520012  28.1534997 119.4949988 102.4560012  27.9874997 118.5999988
 103.6840012  27.9334997 119.4839988 102.8374166  28.1010640 119.3710536
 107.3730012  33.5264997 117.3849988 106.4720012  33.7094997 117.1169988
 107.4070012  33.7854997 118.3049988 107.2543139  33.5865849 117.4728099
 113.0670012  31.5714997 118.5889988 112.2160012  31.8094997 118.2219988
 113.6580012  31.5544997 117.8359988 113.0302487  31.6018258 118.4368893
 111.3990012  34.5574997 106.2169988 111.0260012  33.7314997 106.5259988
 111.6770012  34.3744997 105.3189988 111.3855222  34.4197430 106.1379473
 108.5600012  29.3654997 113.2379988 107.6310012  29.1334997 113.2109988
 109.0110012  28.5884997 112.9079988 108.4939216  29.2287238 113.1896917
 101.1030012  33.6934997 109.3709988 101.6300012  34.4664997 109.1709988
 100.2230012  33.9184997 109.0689988 101.0562031  33.8297545 109.3027912
 102.5300012  31.3564997 108.9469988 102.2890012  32.2814997 108.9889988
 101.7890012  30.8974997 109.3439988 102.3969225  31.4210933 109.0063742
 103.0450012  35.5054997 115.2629988 103.4070012  36.3604997 115.0289988
 103.5760012  35.2134997 116.0029988 103.1664473  35.5831060 115.3310855
 101.2130012  36.3784997 108.4929988 100.2630012  36.4834997 108.5439988
 101.5650012  37.1984997 108.8369988 101.1304195  36.5038800 108.5465502
 106.5890012  31.6044997 114.9629988 106.1630012  31.3774997 115.7899988
 107.1690012  30.8664997 114.7809988 106.6091868  31.4735299 115.0515830
 109.2470012  36.1564997 117.4329988 108.6460012  35.6014997 116.9369988
 109.5290012  36.8234997 116.8059988 109.2028804  36.1706625 117.2804849
 113.2950012  37.0134997 104.2379988 114.0390012  37.5994997 104.0979988
 112.6010012  37.5814997 104.5709988 113.3029899  37.1705798 104.2638778
  97.3700012  23.3894997 116.8399988  96.4770012  23.7284997 116.7719988
  97.2710012  22.5344997 117.2579988  97.2344164  23.3202588 116.8872235
 109.6580012  31.2064997 106.2639988 109.3800012  30.4784997 106.8199988
 110.5850012  31.3254997 106.4689988 109.7453124  31.1228802 106.3678845
  97.0210012  35.1944997 115.2749988  97.2380012  34.2624997 115.2439988
  97.2670012  35.4684997 116.1579988  97.0839549  35.1040636 115.3901763
  98.2730012  30.4684997 105.4509988  97.5870012  30.8204997 106.0179988
  98.7950012  31.2314997 105.2039988  98.2496852  30.6198578 105.4952118
 106.1040012  23.1304997 115.7299988 106.8030012  23.2044997 116.3799988
 105.7230012  22.2664997 115.8839988 106.1481767  23.0237624 115.8398322
 106.8890012  22.7824997 106.8269988 107.1090012  23.2544997 106.0239988
 107.4470012  23.1774997 107.4969988 106.9944968  22.9004285 106.8077331
 104.5570012  34.9134997 105.6899988 103.7410012  35.4104997 105.7419988
 105.0870012  35.3884997 105.0499988 104.5169161  35.0457722 105.6105956
 104.0890012  24.5104997 107.6619988 104.9010012  25.0154997 107.7079988
 103.8440012  24.3654997 108.5759988 104.1670520  24.5600375 107.7918517
 104.6240012  25.4964997 116.8459988 104.7430012  26.0704997 117.6039988
 105.2800012  24.8084997 116.9609988 104.7289025  25.4819858 116.9651321
 104.9720012  21.5914997 108.5999988 104.6260012  22.2094997 109.2439988
 105.6310012  22.0924997 108.1179988 105.0136968  21.7436278 108.6229383
 101.8960012  35.9574997 105.6709988 102.0560012  36.7564997 105.1709988
 101.6980012  36.2634997 106.5559988 101.8911637  36.1084020 105.7221144
 100.6300012  22.6544997 105.2869988 100.5470012  23.5434997 105.6339988
 101.5200012  22.3894997 105.5189988 100.7389469  22.7401430 105.3657626
 110.8290012  23.4034997 117.6809988 109.9120012  23.6664997 117.5939988
 111.1640012  23.4004997 116.7849988 110.7488613  23.4390761 117.5478837
 109.4310012  27.1544997 111.7769988 108.6330012  26.7394997 111.4489988
 109.8760012  26.4634997 112.2679988 109.3819885  27.0043543 111.7984889
  97.2050012  25.7464997 103.4639988  97.1600012  26.6854997 103.6419988
  96.3170012  25.5104997 103.1939988  97.0788574  25.8431892 103.4518912
 110.5170012  36.4104997 113.3999988 110.3620012  37.0884997 112.7419988
 111.4500012  36.4824997 113.6029988 110.6218657  36.5129546 113.3374360
  98.0130012  20.5284997 112.1369988  97.7840012  20.5874997 111.2089988
  97.5700012  19.7364997 112.4429988  97.9218530  20.4295753 112.0514786
  96.9430012  34.4684997 108.2969988  96.1110012  34.9414997 108.3239988
  97.4890012  34.9784997 107.6989988  96.9030352  34.6021332 108.2198463
  96.2310012  37.0814997 119.6269988  96.7720012  36.8644997 120.3869988
  95.7500012  36.2754997 119.4369988  96.2399951  36.9429270 119.7052576
 100.8290012  36.0004997 121.2469988 101.5960012  35.5414997 121.5879988
 100.8070012  35.7744997 120.3179988 100.9311275  35.9070186 121.1680101
 104.9210012  35.5084997 102.6229988 104.2770012  34.8774997 102.9439988
 105.6830012  34.9774997 102.3909988 104.9358077  35.3502920 102.6356011
 107.4060012  34.3804997 119.9769988 107.0550012  33.5244997 120.2199988
 108.1320012  34.5234997 120.5839988 107.4560769  34.2825636 120.0923619
 109.5250012  35.3254997 102.8559988 109.8080012  34.5314997 103.3089988
 110.2650012  35.5584997 102.2959988 109.6638006  35.2483376 102.8422715
  96.1380012  30.8914997 120.5809988  96.2820012  29.9894997 120.2949988
  95.3660012  31.1774997 120.0939988  96.0532753  30.8066816 120.4759505
 102.7940012  30.8614997 120.0139988 102.4650012  31.1324997 119.1569988
 102.9460012  29.9204997 119.9269988 102.7694809  30.7713862 119.8848244
 108.5280012  30.7774997 117.3969988 109.2740012  31.3654997 117.2779988
 107.7710012  31.3594997 117.4609988 108.5277820  30.9367143 117.3893590
  96.9710012  28.0914997 120.0009988  97.3790012  27.2344997 119.8799988
  96.7110012  28.1064997 120.9219988  96.9917568  27.9760807 120.1089588
 101.6290012  29.2074997 105.0199988 101.1690012  28.7234997 105.7059988
 101.8840012  28.5394997 104.3839988 101.6004902  29.0508731 105.0279334
 100.9180012  27.1004997 117.3759988 100.3000012  27.7754997 117.6559988
 101.2620012  27.4214997 116.5419988 100.8799132  27.2362411 117.3016262
 105.9380012  29.5724997 120.6529988 106.8910012  29.6554997 120.6259988
 105.7770012  28.8604997 121.2729988 106.0466426  29.4876746 120.7330579
 101.2570012  24.4554997 118.4579988 101.4070012  23.7264997 117.8559988
 101.2600012  25.2324997 117.8989988 101.2779302  24.4607851 118.3000692
 101.6700012  22.8254997 115.9509988 102.2060012  23.2764997 115.2989988
 100.8180012  22.7174997 115.5279988 101.6282178  22.8726390 115.8045756
 103.2520012  28.2644997 116.1899988 104.0020012  28.1084997 115.6169988
 102.9130012  29.1164997 115.9149988 103.3088921  28.3582968 116.0743561
 107.6670012  26.0794997 121.2189988 107.8600012  25.1484997 121.1069988
 108.5250012  26.5044997 121.2079988 107.8092934  26.0096531 121.2022031
 108.9840012  28.8684997 119.2959988 108.7030012  29.5774997 118.7179988
 109.9270012  28.7954997 119.1449988 109.0729291  28.9556711 119.1964967
  99.7360012  25.6534997 120.3699988  98.9690012  25.1214997 120.1589988
 100.4150012  25.3434997 119.7699988  99.7227877  25.5388300 120.2600716
 102.4760012  20.2814997 116.3819988 102.3770012  21.2284997 116.2769988
 101.7330012  19.9094997 115.9059988 102.3621184  20.3605863 116.3033621
 103.7400012  24.6034997 119.9459988 103.5040012  24.3834997 120.8469988
 102.9560012  24.3964997 119.4359988 103.6018504  24.5454586 120.0003431
 106.4550012  23.7304997 119.0209988 105.5080012  23.7624997 119.1539988
 106.7680012  23.1054997 119.6749988 106.3676707  23.6503998 119.1276060
 108.0890012  22.3644997 121.0269988 107.9930012  21.4124997 121.0209988
 107.7680012  22.6334997 121.8869988 108.0324070  22.2704035 121.1425441
  97.9160012  23.5744997 120.0739988  98.1280012  22.8674997 119.4639988
  97.8050012  23.1364997 120.9179988  97.9299721  23.4187084 120.1046843
 102.6970012  19.5754997 119.0529988 103.4090012  18.9354997 119.0389988
 102.5960012  19.8424997 118.1399988 102.7808066  19.5240079 118.9275677
 103.0510012  21.2584997 121.1069988 102.9190012  20.7824997 120.2869988
 102.4520012  22.0024997 121.0519988 102.9519071  21.2939618 120.9872886
 102.5970012  38.1414997 104.2829988 103.5300012  38.2994997 104.4269988
 102.3330012  38.8164997 103.6589988 102.6889888  38.2544510 104.2182842
  96.1660012  32.7774997 103.7659988  97.0800012  32.8564997 104.0399988
  96.1730012  32.0904997 103.0999988  96.2921131  32.6953961 103.7134393
  94.8150012  38.1704997 108.8439988  94.1680012  37.7084997 108.3109988
  95.1690012  37.4984997 109.4259988  94.7743849  38.0164723 108.8497959
  95.6850012  36.2514997 110.6479988  95.3500012  35.3714997 110.8199988
  95.9070012  36.5964997 111.5129988  95.6691783  36.1777500 110.7884208
 113.2330012  37.0604997 113.6289988 113.2120012  37.2454997 114.5679988
 113.9240012  37.6294997 113.2879988 113.3234618  37.1626606 113.7113864
 112.7970012  36.6284997 116.5509988 112.3090012  35.8924997 116.1789988
 113.3460012  36.2344997 117.2289988 112.8044820  36.4745889 116.5917813
 111.2470012  32.4174997 121.1889988 110.3810012  32.3124997 121.5829988
 111.6240012  33.1764997 121.6349988 111.1793308  32.5056900 121.3032393
 112.5480012  30.6744997 106.7029988 113.3980012  31.0954997 106.8299988
 112.5540012  29.9344997 107.3099988 112.6651372  30.6320803 106.8024344
 112.9430012  28.7274997 108.5259988 112.2160012  28.2484997 108.9239988
 113.5240012  28.9334997 109.2589988 112.9220473  28.6898103 108.6794528
 112.7020012  31.5124997 113.4739988 113.5350012  31.1344997 113.1939988
 112.8140012  32.4554997 113.3549988 112.8312647  31.5882218 113.4195487
 111.1880012  34.3904997 115.7809988 110.5410012  34.7154997 116.4069988
 110.6710012  33.9504997 115.1069988 111.0294029  34.3755004 115.7755827
 113.2110012  28.6284997 104.9179988 112.6890012  28.9854997 104.1989988
 113.1780012  29.3034997 105.5959988 113.1351634  28.7685413 104.9113145
 110.7290012  27.2484997 109.0889988 110.5790012  26.3034997 109.0689988
 110.3760012  27.5294997 109.9329988 110.6607448  27.1571481 109.2003705
  95.7650012  29.3264997 113.0999988  95.9490012  29.2444997 112.1639988
  96.6140012  29.2024997 113.5229988  95.9050151  29.2985073 113.0291451
 111.5860012  29.2184997 118.7279988 112.1690012  28.4844997 118.9199988
 112.1500012  29.9904997 118.7749988 111.7419769  29.2224227 118.7606159
 113.0820012  27.1214997 119.4129988 112.2190012  26.7424997 119.2469988
 113.6870012  26.3824997 119.3379988 113.0456119  26.9698268 119.3801528
 110.4400012  24.8314997 107.5519988 110.7200012  23.9244997 107.6759988
 111.1990012  25.2654997 107.1629988 110.5809277  24.7660942 107.5163682
 111.0520012  25.4124997 112.9879988 111.9850012  25.6244997 112.9529988
 110.8170012  25.5144997 113.9099988 111.1479244  25.4553100 113.1078892
 111.0810012  26.1494997 115.7639988 110.2380012  26.4174997 116.1299988
 111.5230012  26.9714997 115.5529988 111.0254158  26.2973291 115.7855491
  95.3620012  24.5974997 119.2409988  96.2820012  24.4754997 119.4769988
  94.9130012  23.8474997 119.6299988  95.4271580  24.4793727 119.3259006
 113.3640012  20.1294997 121.1169988 113.7140012  19.4754997 120.5119988
 113.5110012  20.9664997 120.6769988 113.4317887  20.1531548 120.9746858
 111.0530012  22.0944997 107.5999988 111.2360012  21.6454997 108.4259988
 110.4540012  21.5094997 107.1369988 110.9970202  21.9539975 107.6503275
  96.5830012  22.9094997 112.1319988  97.0290012  22.1174997 112.4339988
  97.0500012  23.6254997 112.5619988  96.7070831  22.8980685 112.2314006
  94.8870012  25.9084997 113.2009988  95.3790012  25.6874997 112.4099988
  95.2500012  26.7494997 113.4819988  95.0033126  25.9918357 113.1307531
 112.8840012  22.2384997 119.4659988 111.9660012  22.5094997 119.4309988
 113.0070012  21.7034997 118.6819988 112.7749729  22.2032508 119.3551923
 112.9200012  22.1614997 104.1279988 113.3320012  21.4404997 103.6529988
 113.6020012  22.8314997 104.1869988 113.0685885  22.1532368 104.0708915
  95.2010012  22.1664997 107.2549988  94.2760012  22.3754997 107.1259988
  95.6550012  22.6504997 106.5649988  95.1357292  22.2605343 107.1440720
 109.9720012  37.1504997 109.2009988 110.6240012  36.8034997 108.5929988
 110.4820012  37.6394997 109.8469988 110.1302637  37.1690597 109.2050236
  95.1650012  20.9044997 115.5989988  94.5000012  20.6584997 116.2429988
  94.7220012  21.5264997 115.0219988  95.0141318  20.9549410 115.6090898
  97.3570012  34.0794997 119.7439988  96.5360012  34.2544997 119.2829988
  97.1040012  34.0064997 120.6639988  97.2105585  34.0935544 119.8053561
 100.3110012  35.0544997 116.0019988  99.8860012  35.8634997 115.7199988
 101.2150012  35.1394997 115.6999988 100.3749975  35.1769300 115.9224816
 104.6220012  36.4534997 118.9619988 104.8070012  36.1194997 119.8399988
 105.4680012  36.7624997 118.6399988 104.7617539  36.4496047 119.0385605
 106.9670012  37.7394997 118.2059988 107.6440012  37.1064997 117.9659988
 107.2890012  38.1404997 119.0129988 107.1031637  37.7071154 118.2822793
 111.8840012  20.3284997 117.2849988 111.0720012  20.6534997 116.8979988
 112.1170012  19.5684997 116.7519988 111.8042203  20.2702758 117.1598880
  97.7130012  38.3104997 116.0499988  96.9920012  38.7504997 115.5989988
  97.3470012  38.0594997 116.8979988  97.5649651  38.3367242 116.1029640
 100.1800012  37.9104997 115.0799988  99.3150012  37.9824997 115.4839988
 100.1250012  38.4574997 114.2959988 100.0542085  37.9942685 115.0293362
 104.8900012  37.7984997 114.2549988 104.4340012  38.3274997 113.6009988
 105.0530012  38.4014997 114.9799988 104.8496068  37.9524607 114.2634838
 107.2180012  36.6764997 115.1999988 106.3130012  36.8414997 114.9339988
 107.6470012  37.5294997 115.1349988 107.1521324  36.8144339 115.1547976
 109.8220012  38.2464997 115.4949988 109.6400012  39.1624997 115.2849988
 109.9990012  37.8364997 114.6489988 109.8210210  38.3164822 115.3517885
  97.1270012  36.9334997 112.9599988  97.1090012  36.5084997 113.8169988
  97.9320012  36.6154997 112.5509988  97.2333529  36.8323013 113.0220946
  99.2690012  35.6434997 111.6149988  99.0500012  34.7274997 111.7849988
 100.0930012  35.7834997 112.0809988  99.3504420  35.5370520 111.7012774
 101.8060012  36.1134997 112.4639988 102.0190012  35.2254997 112.1769988
 101.8700012  36.0794997 113.4179988 101.8438232  35.9873102 112.5537397
 105.3140012  21.7774997 111.6079988 104.6400012  21.1484997 111.8639988
 105.8780012  21.2934997 111.0049988 105.2979230  21.6258744 111.5615340
 110.4570012  19.8854997 111.7209988 111.0610012  20.4324997 111.2189988
 109.5870012  20.2044997 111.4799988 110.4221208  20.0035137 111.6196886
 112.1840012  21.0234997 110.0539988 112.7960012  20.5094997 109.5269988
 112.5660012  21.9014997 110.0769988 112.3193371  21.0717866 109.9850041
  97.6410012  20.4114997 109.4299988  96.8640012  20.1774997 108.9229988
  98.1710012  19.6144997 109.4389988  97.6062330  20.2716988 109.3617742
 102.2200012  20.3384997 109.2439988 103.0950012  20.7264997 109.2139988
 102.0840012  20.1234997 110.1659988 102.3213695  20.3625184 109.3646440
 107.7770012  20.3684997 110.8929988 107.8530012  20.4634997 109.9429988
 107.5020012  19.4604997 111.0219988 107.7502321  20.2587867 110.7805079
 109.1300012  20.3944997 106.5849988 108.4280012  21.0094997 106.3749988
 108.6860012  19.5564997 106.7159988 108.9736450  20.3655639 106.5739000
  96.3780012  36.1574997 106.1309988  95.6930012  36.1194997 105.4639988
  96.3820012  37.0704997 106.4199988  96.2846998  36.2756733 106.0786771
  98.3380012  22.1254997 103.6759988  98.8300012  21.4954997 103.1489988
  98.9620012  22.4214997 104.3389988  98.4895688  22.0793804 103.6935482
 103.3640012  22.4184997 106.1329988 103.5420012  21.7724997 106.8159988
 103.3110012  23.2524997 106.5999988 103.3811999  22.4428009 106.2895917
 105.2430012  37.3674997 104.5289988 106.1090012  37.7334997 104.3509988
 104.9960012  36.9274997 103.7149988 105.3282392  37.3581756 104.3946289
 111.9520012  36.9304997 107.2079988 111.7570012  36.1824997 106.6429988
 111.9130012  37.6884997 106.6249988 111.9200380  36.9306099 107.0518384
  97.5990012  20.9254997 118.9479988  97.2330012  20.1604997 119.3899988
  98.5120012  20.9544997 119.2339988  97.6722736  20.8245640 119.0472502
  99.5720012  20.2764997 120.4839988 100.4700012  20.0024997 120.2989988
  99.1850012  19.5334997 120.9479988  99.6426612  20.1385914 120.5213643
  98.1960012  37.0774997 103.1569988  97.9290012  37.3644997 104.0299988
  98.9680012  36.5314997 103.3089988  98.2637488  37.0430294 103.2971050
 107.9930012  19.6084997 120.6659988 108.0700012  19.1824997 121.5199988
 108.8870012  19.6224997 120.3229988 108.1243428  19.5520879 120.7365310
 111.1690012  35.6814997 119.3579988 110.3870012  35.4954997 118.8379988
 111.0970012  36.6104997 119.5759988 111.0522274  35.7816643 119.3163018
 125.5750012  29.5674997 109.3889988 125.6640012  30.5114997 109.2569988
 124.9370012  29.2924997 108.7309988 125.5009081  29.6594830 109.2819614
 124.5080012  28.8224997 112.8079988 124.4700012  28.1764997 113.5129988
 124.1860012  28.3564997 112.0369988 124.4592333  28.6709408 112.8002978
 116.8770012  28.4374997 114.4009988 116.9180012  27.8114997 115.1239988
 117.5800012  29.0614997 114.5829988 116.9776363  28.4361196 114.5246044
 128.2140012  31.7614997 111.1089988 127.7740012  31.0414997 111.5599988
 128.2010012  32.4824997 111.7389988 128.1520226  31.7603731 111.2558494
 117.8000012  32.8874997 112.9359988 117.4310012  32.0854997 112.5659988
 118.7410012  32.7184997 112.9819988 117.8767289  32.7550153 112.8916316
 114.4100012  26.5474997 108.3289988 113.9630012  27.3934997 108.3099988
 113.8490012  25.9674997 107.8129988 114.2729900  26.5849916 108.2566801
 115.1210012  28.7094997 110.4539988 115.3340012  27.9394997 110.9819988
 115.8590012  28.7984997 109.8509988 115.2499044  28.6161968 110.4447123
 125.3260012  36.8664997 111.3209988 125.9460012  36.1894997 111.0479988
 125.1180012  36.6484997 112.2299988 125.3826726  36.7444800 111.4064812
 122.8980012  31.2554997 113.2139988 123.2020012  30.5694997 112.6189988
 123.6190012  31.3734997 113.8319988 123.0370671  31.1776305 113.2161816
 131.5610012  22.8564997 114.0749988 131.6100012  23.4664997 114.8099988
 131.9860012  23.3174997 113.3519988 131.6251746  23.0023796 114.0779175
 126.0390012  25.6494997 113.5409988 126.1810012  24.7034997 113.5619988
 125.9320012  25.8564997 112.6129988 126.0439919  25.5478246 113.4183408
 119.1930012  23.7504997 110.8139988 119.2370012  24.6104997 110.3949988
 118.7360012  23.1984997 110.1799988 119.1372240  23.7934422 110.6709864
 126.9160012  23.8814997 109.2149988 127.5620012  23.5524997 109.8389988
 127.4260012  24.3994997 108.5919988 127.0734299  23.9064450 109.2162731
 115.8140012  26.1474997 111.5759988 116.4670012  25.5974997 112.0079988
 115.8380012  25.8734997 110.6589988 115.9066683  26.0351466 111.5112123
 120.9700012  27.6974997 110.7909988 121.5860012  27.1714997 111.3009988
 120.3840012  27.0574997 110.3879988 120.9750810  27.5389208 110.8063173
 131.9520012  24.3344997 116.3099988 131.2640012  24.9924997 116.2149988
 131.9680012  24.1374997 117.2469988 131.8599540  24.3979819 116.4235990
 118.0040012  22.6684997 114.8879988 117.7850012  23.1984997 114.1219988
 117.3360012  22.8954997 115.5349988 117.8837600  22.7716906 114.8706379
 125.3730012  32.1684997 108.4319988 125.0770012  31.8464997 107.5809988
 125.0480012  33.0684997 108.4729988 125.2886371  32.2460215 108.3211801
 120.5730012  30.3444997 115.1749988 119.8330012  30.9424997 115.2789988
 121.2870012  30.8984997 114.8599988 120.5682237  30.5012831 115.1466465
 128.6800012  23.1724997 111.1949988 128.4640012  22.4064997 111.7279988
 129.3350012  23.6444997 111.7079988 128.7390632  23.1315889 111.3372861
 117.5970012  24.5604997 112.8399988 118.2110012  25.1934997 113.2129988
 118.1090012  24.0884997 112.1839988 117.7501981  24.5832267 112.8022908
 118.9800012  32.3084997 115.9619988 118.9750012  33.1884997 115.5839988
 118.1270012  32.2254997 116.3869988 118.8639464  32.4176117 115.9677907
 115.1010012  31.9794997 106.7439988 114.8290012  32.2084997 105.8559988
 115.1470012  32.8174997 107.2049988 115.0699482  32.1241318 106.6846273
 128.7260012  33.6014997 113.4569988 127.7850012  33.6594997 113.6189988
 129.0030012  34.5074997 113.3199988 128.6344679  33.7319443 113.4606815
 129.0270012  21.8874997 114.8749988 128.2910012  22.4984997 114.8369988
 129.7100012  22.3024997 114.3479988 129.0186541  22.0271374 114.7985832
 122.0300012  19.9744997 112.3399988 121.9130012  19.0254997 112.2859988
 121.1750012  20.3064997 112.6139988 121.8984212  19.8895571 112.3696497
 126.9780012  35.3824997 110.0819988 127.4040012  34.6754997 109.5969988
 127.2950012  36.1834997 109.6659988 127.0791683  35.3941017 109.9593680
 128.1380012  33.2834997 108.5909988 127.8800012  32.5934997 107.9799988
 128.2090012  32.8404997 109.4369988 128.1122856  33.1292124 108.6216885
 129.8240012  31.8494997 117.0679988 129.9640012  31.2584997 116.3289988
 129.9910012  32.7224997 116.7119988 129.8657411  31.8865428 116.9186894
 124.2970012  28.8114997 106.8409988 123.5850012  29.3464997 106.4889988
 124.9880012  28.8674997 106.1809988 124.2930132  28.8922543 106.7036289
 131.6660012  28.1894997 115.1339988 131.0130012  28.8844997 115.2239988
 132.1310012  28.3994997 114.3249988 131.6395274  28.3130643 115.0368462
 127.7020012  29.0214997 107.7929988 126.9700012  29.2494997 108.3659988
 128.1500012  28.3074997 108.2469988 127.6622725  28.9562145 107.9328816
 127.6000012  27.1954997 116.8599988 127.6800012  27.9584997 117.4319988
 126.9980012  27.4744997 116.1699988 127.5295756  27.3377134 116.8450589
 119.3480012  29.6514997 109.6749988 119.0170012  29.2814997 108.8569988
 119.9360012  28.9814997 110.0219988 119.3821873  29.5101156 109.6098102
 120.7140012  33.0794997 112.3559988 120.6200012  32.5014997 111.5999988
 121.4440012  32.7084997 112.8529988 120.7997387  32.9501663 112.3195342
 119.7140012  28.4204997 113.3089988 120.2800012  28.5414997 112.5459988
 120.0330012  29.0574997 113.9469988 119.8345474  28.5232219 113.2909862
 126.0230012  33.9234997 114.0429988 125.7830012  34.5854997 114.6909988
 125.8250012  33.0894997 114.4679988 125.9633808  33.9013134 114.1891524
 120.5940012  32.8194997 118.0259988 120.2830012  33.6014997 118.4809988
 119.9440012  32.6664997 117.3399988 120.4635558  32.9059105 117.9955871
 126.5730012  28.1834997 105.4779988 127.1530012  28.3334997 106.2249988
 126.9870012  28.6544997 104.7539988 126.7082997  28.2676578 105.4824058
 117.5140012  29.0174997 117.2539988 117.5850012  29.6684997 117.9529988
 116.6240012  29.1204997 116.9189988 117.4033005  29.1205427 117.3043495
 124.3000012  34.9204997 108.9129988 124.7740012  35.2154997 109.6899988
 123.7370012  35.6584997 108.6799988 124.2888184  35.0607247 108.9879628
 118.8340012  34.8914997 118.7889988 118.8410012  34.7554997 117.8419988
 117.9180012  34.7734997 119.0409988 118.7111714  34.8569430 118.6934666
 118.3380012  28.7214997 107.2639988 118.0460012  29.4894997 106.7739988
 117.6640012  28.0614997 107.1019988 118.2068111  28.7375587 107.1748978
 114.4310012  31.0844997 116.0789988 113.9300012  31.0564997 115.2639988
 114.4360012  30.1784997 116.3889988 114.3630944  30.9582396 116.0093226
 114.1810012  33.8644997 112.9629988 115.1270012  33.7204997 112.9439988
 114.0690012  34.6484997 113.4999988 114.2952727  33.9508046 113.0330072
 132.3790012  34.5304997 118.6459988 132.3300012  33.5754997 118.6089988
 131.5520012  34.7984997 119.0469988 132.2604940  34.4358998 118.6951375
 123.3580012  34.1044997 117.5219988 123.4450012  34.9304997 117.9969988
 122.4940012  33.7744997 117.7709988 123.2531964  34.1729878 117.6206549
 123.7720012  37.8764997 107.3279988 123.6970012  37.7554997 106.3809988
 123.8050012  38.8264997 107.4459988 123.7662068  37.9882646 107.2144967
 117.4250012  36.6654997 109.1089988 117.5780012  36.3174997 109.9869988
 116.5750012  36.3094997 108.8539988 117.3309166  36.5696217 109.1948079
 126.8740012  37.0304997 104.3299988 127.2490012  36.2864997 103.8589988
 126.8780012  36.7604997 105.2489988 126.9259125  36.8920986 104.3896483
 126.5430012  36.9564997 107.0789988 125.6070012  37.0564997 107.2579988
 126.8230012  36.2474997 107.6579988 126.4529553  36.8743406 107.1817087
 129.5310012  26.0234997 119.1259988 129.1240012  26.5044997 118.4049988
 129.5720012  25.1184997 118.8179988 129.4808437  25.9669374 118.9856683
 116.6800012  32.4074997 117.1229988 116.8960012  32.0464997 117.9819988
 115.8250012  32.0334997 116.9129988 116.5939292  32.3074111 117.2123386
 119.2990012  20.8774997 113.1179988 118.4370012  20.7904997 112.7099988
 119.2760012  21.7334997 113.5459988 119.1780409  20.9812883 113.1200589
 123.9620012  20.5994997 116.4929988 124.3820012  20.1844997 117.2459988
 123.0290012  20.4214997 116.6099988 123.8933644  20.5185900 116.6119539
 127.2880012  24.3554997 117.3459988 126.7740012  24.2294997 118.1439988
 127.1330012  25.2674997 117.1019988 127.1966852  24.4616132 117.4222158
 119.3900012  25.8434997 114.2129988 118.7480012  25.8024997 114.9219988
 119.4270012  26.7694997 113.9749988 119.3070664  25.9631430 114.2779219
 119.3870012  26.0644997 109.1249988 118.4940012  25.7234997 109.0659988
 119.8370012  25.6874997 108.3689988 119.3258130  25.9669631 109.0147702
 124.9220012  26.4804997 107.9419988 124.5130012  27.2954997 107.6509988
 125.6430012  26.3404997 107.3279988 124.9634537  26.5732018 107.8191342
 124.0240012  26.6554997 119.4299988 123.4620012  25.9514997 119.7509988
 124.8510012  26.5354997 119.8979988 124.0587095  26.5427883 119.5372330
 125.9270012  25.9264997 110.7559988 125.7320012  26.5314997 110.0409988
 126.1080012  25.0924997 110.3219988 125.9247614  25.8966300 110.5994405
 117.1400012  26.1634997 116.0799988 117.1020012  26.5634997 116.9489988
 116.6490012  25.3464997 116.1709988 117.0684684  26.1078069 116.2111059
 120.5060012  23.5374997 102.8789988 120.0750012  23.0924997 103.6089988
 119.7880012  23.9094997 102.3669988 120.3499438  23.5268940 102.9096799
 113.7480012  23.2794997 109.9309988 114.3790012  23.2504997 110.6499988
 114.1970012  22.8544997 109.1999988 113.8950918  23.2180836 109.9306441
 125.1910012  27.5644997 115.4269988 125.5140012  26.9334997 114.7839988
 124.7510012  27.0294997 116.0879988 125.1757484  27.4058387 115.4283198
 121.9680012  23.4914997 110.2109988 121.0570012  23.5484997 110.4999988
 122.4740012  23.4314997 111.0219988 121.9116899  23.4911941 110.3601184
 116.7970012  25.1204997 109.0379988 115.9070012  25.2204997 108.6979988
 117.0930012  24.2784997 108.6919988 116.7152823  25.0203545 108.9447213
 120.4500012  25.1204997 106.6949988 121.3810012  25.2494997 106.8729988
 120.2350012  25.7904997 106.0449988 120.5484247  25.2286565 106.6315747
 126.3730012  22.7264997 113.4759988 125.6970012  22.8574997 114.1399988
 125.8880012  22.5714997 112.6649988 126.2147146  22.7235157 113.4574469
 119.1240012  26.3154997 104.2609988 118.5810012  25.9354997 103.5699988
 119.9570012  26.5094997 103.8329988 119.1623631  26.2897125 104.1084501
 129.6610012  38.3984997 119.7519988 129.8610012  38.8224997 118.9179988
 130.3160012  38.7414997 120.3589988 129.7770072  38.5029857 119.7198592
 117.2590012  30.8724997 119.3599988 117.9910012  31.1264997 119.9219988
 116.4790012  31.0764997 119.8759988 117.2537073  30.9348160 119.5066151
 123.2880012  26.2794997 112.0979988 123.8530012  25.7324997 111.5509988
 123.1410012  25.7574997 112.8869988 123.3453380  26.1342259 112.1298695
 118.2900012  22.4154997 108.5169988 117.9730012  21.5134997 108.4809988
 119.0720012  22.4174997 107.9639988 118.3522408  22.2922474 108.4373569
 121.9150012  24.6674997 114.5119988 121.0790012  25.1214997 114.6229988
 122.4390012  24.9434997 115.2639988 121.8715416  24.7668660 114.6288119
 122.4590012  30.8804997 106.1969988 121.7140012  30.3734997 105.8749988
 122.3250012  30.9294997 107.1439988 122.3388776  30.8176940 106.2808647
 129.6090012  30.0134997 114.9839988 130.2510012  30.4704997 114.4399988
 128.7790012  30.1264997 114.5209988 129.5845963  30.0912704 114.8470177
 126.3570012  23.6944997 104.3959988 125.4180012  23.8064997 104.2449988
 126.6540012  24.5514997 104.7029988 126.2687583  23.8255981 104.4168337
 123.9780012  31.0644997 117.4339988 123.6330012  30.6834997 118.2409988
 123.7780012  31.9984997 117.5049988 123.9037527  31.1385135 117.5540689
 127.0750012  25.5614997 106.0569988 127.9670012  25.4244997 106.3759988
 127.1320012  26.3524997 105.5199988 127.2046504  25.6496052 106.0280818
 117.5840012  30.1754997 111.9669988 118.3290012  30.1734997 111.3659988
 117.6620012  29.3524997 112.4479988 117.6964995  30.0638887 111.9498282
 124.5850012  32.3394997 105.2229988 124.2890012  33.1654997 105.6039988
 123.8820012  31.7194997 105.4189988 124.4494914  32.3688199 105.3016443
 114.5920012  28.6364997 117.2819988 114.8150012  28.2184997 118.1139988
 113.9900012  28.0234997 116.8589988 114.5411759  28.4964668 117.3387022
 121.6080012  28.1534997 119.4949988 121.3120012  27.9874997 118.5999988
 122.5400012  27.9334997 119.4839988 121.6934166  28.1010640 119.3710536
 126.2290012  33.5264997 117.3849988 125.3280012  33.7094997 117.1169988
 126.2630012  33.7854997 118.3049988 126.1103139  33.5865849 117.4728099
 131.9230012  31.5714997 118.5889988 131.0720012  31.8094997 118.2219988
 132.5140012  31.5544997 117.8359988 131.8862487  31.6018258 118.4368893
 130.2550012  34.5574997 106.2169988 129.8820012  33.7314997 106.5259988
 130.5330012  34.3744997 105.3189988 130.2415222  34.4197430 106.1379473
 127.4160012  29.3654997 113.2379988 126.4870012  29.1334997 113.2109988
 127.8670012  28.5884997 112.9079988 127.3499216  29.2287238 113.1896917
 119.9590012  33.6934997 109.3709988 120.4860012  34.4664997 109.1709988
 119.0790012  33.9184997 109.0689988 119.9122031  33.8297545 109.3027912
 121.3860012  31.3564997 108.9469988 121.1450012  32.2814997 108.9889988
 120.6450012  30.8974997 109.3439988 121.2529225  31.4210933 109.0063742
 121.9010012  35.5054997 115.2629988 122.2630012  36.3604997 115.0289988
 122.4320012  35.2134997 116.0029988 122.0224473  35.5831060 115.3310855
 120.0690012  36.3784997 108.4929988 119.1190012  36.4834997 108.5439988
 120.4210012  37.1984997 108.8369988 119.9864195  36.5038800 108.5465502
 125.4450012  31.6044997 114.9629988 125.0190012  31.3774997 115.7899988
 126.0250012  30.8664997 114.7809988 125.4651868  31.4735299 115.0515830
 128.1030012  36.1564997 117.4329988 127.5020012  35.6014997 116.9369988
 128.3850012  36.8234997 116.8059988 128.0588804  36.1706625 117.2804849
 116.2260012  23.3894997 116.8399988 115.3330012  23.7284997 116.7719988
 116.1270012  22.5344997 117.2579988 116.0904164  23.3202588 116.8872235
 128.5140012  31.2064997 106.2639988 128.2360012  30.4784997 106.8199988
 129.4410012  31.3254997 106.4689988 128.6013124  31.1228802 106.3678845
 115.8770012  35.1944997 115.2749988 116.0940012  34.2624997 115.2439988
 116.1230012  35.4684997 116.1579988 115.9399549  35.1040636 115.3901763
 120.6760012  33.2154997 104.9399988 120.8220012  32.6954997 105.7299988
 120.6730012  34.1224997 105.2469988 120.6955792  33.2668842 105.0896117
 117.1290012  30.4684997 105.4509988 116.4430012  30.8204997 106.0179988
 117.6510012  31.2314997 105.2039988 117.1056852  30.6198578 105.4952118
 124.9600012  23.1304997 115.7299988 125.6590012  23.2044997 116.3799988
 124.5790012  22.2664997 115.8839988 125.0041767  23.0237624 115.8398322
 125.7450012  22.7824997 106.8269988 125.9650012  23.2544997 106.0239988
 126.3030012  23.1774997 107.4969988 125.8504968  22.9004285 106.8077331
 123.4130012  34.9134997 105.6899988 122.5970012  35.4104997 105.7419988
 123.9430012  35.3884997 105.0499988 123.3729161  35.0457722 105.6105956
 122.9450012  24.5104997 107.6619988 123.7570012  25.0154997 107.7079988
 122.7000012  24.3654997 108.5759988 123.0230520  24.5600375 107.7918517
 123.4800012  25.4964997 116.8459988 123.5990012  26.0704997 117.6039988
 124.1360012  24.8084997 116.9609988 123.5849025  25.4819858 116.9651321
 123.8280012  21.5914997 108.5999988 123.4820012  22.2094997 109.2439988
 124.4870012  22.0924997 108.1179988 123.8696968  21.7436278 108.6229383
 120.7520012  35.9574997 105.6709988 120.9120012  36.7564997 105.1709988
 120.5540012  36.2634997 106.5559988 120.7471637  36.1084020 105.7221144
 119.4860012  22.6544997 105.2869988 119.4030012  23.5434997 105.6339988
 120.3760012  22.3894997 105.5189988 119.5949469  22.7401430 105.3657626
 129.6850012  23.4034997 117.6809988 128.7680012  23.6664997 117.5939988
 130.0200012  23.4004997 116.7849988 129.6048613  23.4390761 117.5478837
 128.2870012  27.1544997 111.7769988 127.4890012  26.7394997 111.4489988
 128.7320012  26.4634997 112.2679988 128.2379885  27.0043543 111.7984889
 117.7450012  33.0824997 104.3479988 118.3370012  33.7814997 104.6239988
 118.2040012  32.6494997 103.6279988 117.8881142  33.1197049 104.2884830
 129.3730012  36.4104997 113.3999988 129.2180012  37.0884997 112.7419988
 130.3060012  36.4824997 113.6029988 129.4778657  36.5129546 113.3374360
 116.8690012  20.5284997 112.1369988 116.6400012  20.5874997 111.2089988
 116.4260012  19.7364997 112.4429988 116.7778530  20.4295753 112.0514786
 115.7990012  34.4684997 108.2969988 114.9670012  34.9414997 108.3239988
 116.3450012  34.9784997 107.6989988 115.7590352  34.6021332 108.2198463
 115.0870012  37.0814997 119.6269988 115.6280012  36.8644997 120.3869988
 114.6060012  36.2754997 119.4369988 115.0959951  36.9429270 119.7052576
 119.6850012  36.0004997 121.2469988 120.4520012  35.5414997 121.5879988
 119.6630012  35.7744997 120.3179988 119.7871275  35.9070186 121.1680101
 126.2620012  34.3804997 119.9769988 125.9110012  33.5244997 120.2199988
 126.9880012  34.5234997 120.5839988 126.3120769  34.2825636 120.0923619
 114.9940012  30.8914997 120.5809988 115.1380012  29.9894997 120.2949988
 114.2220012  31.1774997 120.0939988 114.9092753  30.8066816 120.4759505
 121.6500012  30.8614997 120.0139988 121.3210012  31.1324997 119.1569988
 121.8020012  29.9204997 119.9269988 121.6254809  30.7713862 119.8848244
 127.3840012  30.7774997 117.3969988 128.1300012  31.3654997 117.2779988
 126.6270012  31.3594997 117.4609988 127.3837820  30.9367143 117.3893590
 115.8270012  28.0914997 120.0009988 116.2350012  27.2344997 119.8799988
 115.5670012  28.1064997 120.9219988 115.8477568  27.9760807 120.1089588
 120.4850012  29.2074997 105.0199988 120.0250012  28.7234997 105.7059988
 120.7400012  28.5394997 104.3839988 120.4564902  29.0508731 105.0279334
 119.7740012  27.1004997 117.3759988 119.1560012  27.7754997 117.6559988
 120.1180012  27.4214997 116.5419988 119.7359132  27.2362411 117.3016262
 121.5560012  27.4504997 103.2819988 121.3760012  27.2964997 102.3549988
 122.5060012  27.5584997 103.3269988 121.6597776  27.4440175 103.1611843
 124.7940012  29.5724997 120.6529988 125.7470012  29.6554997 120.6259988
 124.6330012  28.8604997 121.2729988 124.9026426  29.4876746 120.7330579
 120.1130012  24.4554997 118.4579988 120.2630012  23.7264997 117.8559988
 120.1160012  25.2324997 117.8989988 120.1339302  24.4607851 118.3000692
 120.5260012  22.8254997 115.9509988 121.0620012  23.2764997 115.2989988
 119.6740012  22.7174997 115.5279988 120.4842178  22.8726390 115.8045756
 122.1080012  28.2644997 116.1899988 122.8580012  28.1084997 115.6169988
 121.7690012  29.1164997 115.9149988 122.1648921  28.3582968 116.0743561
 126.5230012  26.0794997 121.2189988 126.7160012  25.1484997 121.1069988
 127.3810012  26.5044997 121.2079988 126.6652934  26.0096531 121.2022031
 127.8400012  28.8684997 119.2959988 127.5590012  29.5774997 118.7179988
 128.7830012  28.7954997 119.1449988 127.9289291  28.9556711 119.1964967
 118.5920012  25.6534997 120.3699988 117.8250012  25.1214997 120.1589988
 119.2710012  25.3434997 119.7699988 118.5787877  25.5388300 120.2600716
 121.3320012  20.2814997 116.3819988 121.2330012  21.2284997 116.2769988
 120.5890012  19.9094997 115.9059988 121.2181184  20.3605863 116.3033621
 122.5960012  24.6034997 119.9459988 122.3600012  24.3834997 120.8469988
 121.8120012  24.3964997 119.4359988 122.4578504  24.5454586 120.0003431
 125.3110012  23.7304997 119.0209988 124.3640012  23.7624997 119.1539988
 125.6240012  23.1054997 119.6749988 125.2236707  23.6503998 119.1276060
 126.9450012  22.3644997 121.0269988 126.8490012  21.4124997 121.0209988
 126.6240012  22.6334997 121.8869988 126.8884070  22.2704035 121.1425441
 116.7720012  23.5744997 120.0739988 116.9840012  22.8674997 119.4639988
 116.6610012  23.1364997 120.9179988 116.7859721  23.4187084 120.1046843
 121.5530012  19.5754997 119.0529988 122.2650012  18.9354997 119.0389988
 121.4520012  19.8424997 118.1399988 121.6368066  19.5240079 118.9275677
 121.9070012  21.2584997 121.1069988 121.7750012  20.7824997 120.2869988
 121.3080012  22.0024997 121.0519988 121.8079071  21.2939618 120.9872886
 113.6710012  38.1704997 108.8439988 113.0240012  37.7084997 108.3109988
 114.0250012  37.4984997 109.4259988 113.6303849  38.0164723 108.8497959
 114.5410012  36.2514997 110.6479988 114.2060012  35.3714997 110.8199988
 114.7630012  36.5964997 111.5129988 114.5251783  36.1777500 110.7884208
 132.0890012  37.0604997 113.6289988 132.0680012  37.2454997 114.5679988
 132.7800012  37.6294997 113.2879988 132.1794618  37.1626606 113.7113864
 131.6530012  36.6284997 116.5509988 131.1650012  35.8924997 116.1789988
 132.2020012  36.2344997 117.2289988 131.6604820  36.4745889 116.5917813
 130.1030012  32.4174997 121.1889988 129.2370012  32.3124997 121.5829988
 130.4800012  33.1764997 121.6349988 130.0353308  32.5056900 121.3032393
 131.4040012  30.6744997 106.7029988 132.2540012  31.0954997 106.8299988
 131.4100012  29.9344997 107.3099988 131.5211372  30.6320803 106.8024344
 131.7990012  28.7274997 108.5259988 131.0720012  28.2484997 108.9239988
 132.3800012  28.9334997 109.2589988 131.7780473  28.6898103 108.6794528
 131.5580012  31.5124997 113.4739988 132.3910012  31.1344997 113.1939988
 131.6700012  32.4554997 113.3549988 131.6872647  31.5882218 113.4195487
 130.0440012  34.3904997 115.7809988 129.3970012  34.7154997 116.4069988
 129.5270012  33.9504997 115.1069988 129.8854029  34.3755004 115.7755827
 129.5850012  27.2484997 109.0889988 129.4350012  26.3034997 109.0689988
 129.2320012  27.5294997 109.9329988 129.5167448  27.1571481 109.2003705
 114.6210012  29.3264997 113.0999988 114.8050012  29.2444997 112.1639988
 115.4700012  29.2024997 113.5229988 114.7610151  29.2985073 113.0291451
 130.4420012  29.2184997 118.7279988 131.0250012  28.4844997 118.9199988
 131.0060012  29.9904997 118.7749988 130.5979769  29.2224227 118.7606159
 131.9380012  27.1214997 119.4129988 131.0750012  26.7424997 119.2469988
 132.5430012  26.3824997 119.3379988 131.9016119  26.9698268 119.3801528
 129.2960012  24.8314997 107.5519988 129.5760012  23.9244997 107.6759988
 130.0550012  25.2654997 107.1629988 129.4369277  24.7660942 107.5163682
 129.9080012  25.4124997 112.9879988 130.8410012  25.6244997 112.9529988
 129.6730012  25.5144997 113.9099988 130.0039244  25.4553100 113.1078892
 129.9370012  26.1494997 115.7639988 129.0940012  26.4174997 116.1299988
 130.3790012  26.9714997 115.5529988 129.8814158  26.2973291 115.7855491
 114.2180012  24.5974997 119.2409988 115.1380012  24.4754997 119.4769988
 113.7690012  23.8474997 119.6299988 114.2831580  24.4793727 119.3259006
 132.2200012  20.1294997 121.1169988 132.5700012  19.4754997 120.5119988
 132.3670012  20.9664997 120.6769988 132.2877887  20.1531548 120.9746858
 129.9090012  22.0944997 107.5999988 130.0920012  21.6454997 108.4259988
 129.3100012  21.5094997 107.1369988 129.8530202  21.9539975 107.6503275
 115.4390012  22.9094997 112.1319988 115.8850012  22.1174997 112.4339988
 115.9060012  23.6254997 112.5619988 115.5630831  22.8980685 112.2314006
 113.7430012  25.9084997 113.2009988 114.2350012  25.6874997 112.4099988
 114.1060012  26.7494997 113.4819988 113.8593126  25.9918357 113.1307531
 131.7400012  22.2384997 119.4659988 130.8220012  22.5094997 119.4309988
 131.8630012  21.7034997 118.6819988 131.6309729  22.2032508 119.3551923
 114.0570012  22.1664997 107.2549988 113.1320012  22.3754997 107.1259988
 114.5110012  22.6504997 106.5649988 113.9917292  22.2605343 107.1440720
 128.8280012  37.1504997 109.2009988 129.4800012  36.8034997 108.5929988
 129.3380012  37.6394997 109.8469988 128.9862637  37.1690597 109.2050236
 114.0210012  20.9044997 115.5989988 113.3560012  20.6584997 116.2429988
 113.5780012  21.5264997 115.0219988 113.8701318  20.9549410 115.6090898
 116.2130012  34.0794997 119.7439988 115.3920012  34.2544997 119.2829988
 115.9600012  34.0064997 120.6639988 116.0665585  34.0935544 119.8053561
 119.1670012  35.0544997 116.0019988 118.7420012  35.8634997 115.7199988
 120.0710012  35.1394997 115.6999988 119.2309975  35.1769300 115.9224816
 123.4780012  36.4534997 118.9619988 123.6630012  36.1194997 119.8399988
 124.3240012  36.7624997 118.6399988 123.6177539  36.4496047 119.0385605
 125.8230012  37.7394997 118.2059988 126.5000012  37.1064997 117.9659988
 126.1450012  38.1404997 119.0129988 125.9591637  37.7071154 118.2822793
 130.7400012  20.3284997 117.2849988 129.9280012  20.6534997 116.8979988
 130.9730012  19.5684997 116.7519988 130.6602203  20.2702758 117.1598880
 116.5690012  38.3104997 116.0499988 115.8480012  38.7504997 115.5989988
 116.2030012  38.0594997 116.8979988 116.4209651  38.3367242 116.1029640
 119.0360012  37.9104997 115.0799988 118.1710012  37.9824997 115.4839988
 118.9810012  38.4574997 114.2959988 118.9102085  37.9942685 115.0293362
 123.7460012  37.7984997 114.2549988 123.2900012  38.3274997 113.6009988
 123.9090012  38.4014997 114.9799988 123.7056068  37.9524607 114.2634838
 126.0740012  36.6764997 115.1999988 125.1690012  36.8414997 114.9339988
 126.5030012  37.5294997 115.1349988 126.0081324  36.8144339 115.1547976
 128.6780012  38.2464997 115.4949988 128.4960012  39.1624997 115.2849988
 128.8550012  37.8364997 114.6489988 128.6770210  38.3164822 115.3517885
 115.9830012  36.9334997 112.9599988 115.9650012  36.5084997 113.8169988
 116.7880012  36.6154997 112.5509988 116.0893529  36.8323013 113.0220946
 118.1250012  35.6434997 111.6149988 117.9060012  34.7274997 111.7849988
 118.9490012  35.7834997 112.0809988 118.2064420  35.5370520 111.7012774
 120.6620012  36.1134997 112.4639988 120.8750012  35.2254997 112.1769988
 120.7260012  36.0794997 113.4179988 120.6998232  35.9873102 112.5537397
 124.1700012  21.7774997 111.6079988 123.4960012  21.1484997 111.8639988
 124.7340012  21.2934997 111.0049988 124.1539230  21.6258744 111.5615340
 129.3130012  19.8854997 111.7209988 129.9170012  20.4324997 111.2189988
 128.4430012  20.2044997 111.4799988 129.2781208  20.0035137 111.6196886
 131.0400012  21.0234997 110.0539988 131.6520012  20.5094997 109.5269988
 131.4220012  21.9014997 110.0769988 131.1753371  21.0717866 109.9850041
 116.4970012  20.4114997 109.4299988 115.7200012  20.1774997 108.9229988
 117.0270012  19.6144997 109.4389988 116.4622330  20.2716988 109.3617742
 115.3330012  20.2094997 105.2339988 115.7720012  20.8204997 104.6419988
 114.7000012  20.7474997 105.7079988 115.3074514  20.3659257 105.2170930
 121.0760012  20.3384997 109.2439988 121.9510012  20.7264997 109.2139988
 120.9400012  20.1234997 110.1659988 121.1773695  20.3625184 109.3646440
 126.6330012  20.3684997 110.8929988 126.7090012  20.4634997 109.9429988
 126.3580012  19.4604997 111.0219988 126.6062321  20.2587867 110.7805079
 127.9860012  20.3944997 106.5849988 127.2840012  21.0094997 106.3749988
 127.5420012  19.5564997 106.7159988 127.8296450  20.3655639 106.5739000
 115.2340012  36.1574997 106.1309988 114.5490012  36.1194997 105.4639988
 115.2380012  37.0704997 106.4199988 115.1406998  36.2756733 106.0786771
 117.1940012  22.1254997 103.6759988 117.6860012  21.4954997 103.1489988
 117.8180012  22.4214997 104.3389988 117.3455688  22.0793804 103.6935482
 122.2200012  22.4184997 106.1329988 122.3980012  21.7724997 106.8159988
 122.1670012  23.2524997 106.5999988 122.2371999  22.4428009 106.2895917
 124.0990012  37.3674997 104.5289988 124.9650012  37.7334997 104.3509988
 123.8520012  36.9274997 103.7149988 124.1842392  37.3581756 104.3946289
 130.8080012  36.9304997 107.2079988 130.6130012  36.1824997 106.6429988
 130.7690012  37.6884997 106.6249988 130.7760380  36.9306099 107.0518384
 116.4550012  20.9254997 118.9479988 116.0890012  20.1604997 119.3899988
 117.3680012  20.9544997 119.2339988 116.5282736  20.8245640 119.0472502
 118.4280012  20.2764997 120.4839988 119.3260012  20.0024997 120.2989988
 118.0410012  19.5334997 120.9479988 118.4986612  20.1385914 120.5213643
 126.8490012  19.6084997 120.6659988 126.9260012  19.1824997 121.5199988
 127.7430012  19.6224997 120.3229988 126.9803428  19.5520879 120.7365310
 130.0250012  35.6814997 119.3579988 129.2430012  35.4954997 118.8379988
 129.9530012  36.6104997 119.5759988 129.9082274  35.7816643 119.3163018
 144.4310012  29.5674997 109.3889988 144.5200012  30.5114997 109.2569988
 143.7930012  29.2924997 108.7309988 144.3569081  29.6594830 109.2819614
 143.3640012  28.8224997 112.8079988 143.3260012  28.1764997 113.5129988
 143.0420012  28.3564997 112.0369988 143.3152333  28.6709408 112.8002978
 135.7330012  28.4374997 114.4009988 135.7740012  27.8114997 115.1239988
 136.4360012  29.0614997 114.5829988 135.8336363  28.4361196 114.5246044
 136.6560012  32.8874997 112.9359988 136.2870012  32.0854997 112.5659988
 137.5970012  32.7184997 112.9819988 136.7327289  32.7550153 112.8916316
 133.2660012  26.5474997 108.3289988 132.8190012  27.3934997 108.3099988
 132.7050012  25.9674997 107.8129988 133.1289900  26.5849916 108.2566801
 133.9770012  28.7094997 110.4539988 134.1900012  27.9394997 110.9819988
 134.7150012  28.7984997 109.8509988 134.1059044  28.6161968 110.4447123
 144.1820012  36.8664997 111.3209988 144.8020012  36.1894997 111.0479988
 143.9740012  36.6484997 112.2299988 144.2386726  36.7444800 111.4064812
 141.7540012  31.2554997 113.2139988 142.0580012  30.5694997 112.6189988
 142.4750012  31.3734997 113.8319988 141.8930671  31.1776304 113.2161816
 144.8950012  25.6494997 113.5409988 145.0370012  24.7034997 113.5619988
 144.7880012  25.8564997 112.6129988 144.8999919  25.5478246 113.4183408
 138.0490012  23.7504997 110.8139988 138.0930012  24.6104997 110.3949988
 137.5920012  23.1984997 110.1799988 137.9932240  23.7934422 110.6709864
 134.6700012  26.1474997 111.5759988 135.3230012  25.5974997 112.0079988
 134.6940012  25.8734997 110.6589988 134.7626683  26.0351466 111.5112123
 139.8260012  27.6974997 110.7909988 140.4420012  27.1714997 111.3009988
 139.2400012  27.0574997 110.3879988 139.8310810  27.5389208 110.8063173
 136.8600012  22.6684997 114.8879988 136.6410012  23.1984997 114.1219988
 136.1920012  22.8954997 115.5349988 136.7397600  22.7716906 114.8706379
 144.2290012  32.1684997 108.4319988 143.9330012  31.8464997 107.5809988
 143.9040012  33.0684997 108.4729988 144.1446371  32.2460215 108.3211801
 139.4290012  30.3444997 115.1749988 138.6890012  30.9424997 115.2789988
 140.1430012  30.8984997 114.8599988 139.4242237  30.5012831 115.1466465
 136.4530012  24.5604997 112.8399988 137.0670012  25.1934997 113.2129988
 136.9650012  24.0884997 112.1839988 136.6061981  24.5832267 112.8022908
 137.8360012  32.3084997 115.9619988 137.8310012  33.1884997 115.5839988
 136.9830012  32.2254997 116.3869988 137.7199464  32.4176117 115.9677907
 133.9570012  31.9794997 106.7439988 133.6850012  32.2084997 105.8559988
 134.0030012  32.8174997 107.2049988 133.9259482  32.1241318 106.6846273
 140.8860012  19.9744997 112.3399988 140.7690012  19.0254997 112.2859988
 140.0310012  20.3064997 112.6139988 140.7544212  19.8895571 112.3696497
 143.1530012  28.8114997 106.8409988 142.4410012  29.3464997 106.4889988
 143.8440012  28.8674997 106.1809988 143.1490132  28.8922543 106.7036289
 143.2060012  27.2694997 103.8799988 143.9070012  27.2914997 104.5309988
 143.5090012  26.6414997 103.2229988 143.3428133  27.1877070 103.8803369
 138.2040012  29.6514997 109.6749988 137.8730012  29.2814997 108.8569988
 138.7920012  28.9814997 110.0219988 138.2381873  29.5101156 109.6098102
 139.5700012  33.0794997 112.3559988 139.4760012  32.5014997 111.5999988
 140.3000012  32.7084997 112.8529988 139.6557387  32.9501663 112.3195342
 138.5700012  28.4204997 113.3089988 139.1360012  28.5414997 112.5459988
 138.8890012  29.0574997 113.9469988 138.6905474  28.5232219 113.2909862
 144.8790012  33.9234997 114.0429988 144.6390012  34.5854997 114.6909988
 144.6810012  33.0894997 114.4679988 144.8193808  33.9013134 114.1891524
 139.4500012  32.8194997 118.0259988 139.1390012  33.6014997 118.4809988
 138.8000012  32.6664997 117.3399988 139.3195558  32.9059105 117.9955871
 136.3700012  29.0174997 117.2539988 136.4410012  29.6684997 117.9529988
 135.4800012  29.1204997 116.9189988 136.2593005  29.1205427 117.3043495
 143.1560012  34.9204997 108.9129988 143.6300012  35.2154997 109.6899988
 142.5930012  35.6584997 108.6799988 143.1448184  35.0607247 108.9879628
 137.6900012  34.8914997 118.7889988 137.6970012  34.7554997 117.8419988
 136.7740012  34.7734997 119.0409988 137.5671714  34.8569430 118.6934666
 137.1940012  28.7214997 107.2639988 136.9020012  29.4894997 106.7739988
 136.5200012  28.0614997 107.1019988 137.0628111  28.7375587 107.1748978
 133.2870012  31.0844997 116.0789988 132.7860012  31.0564997 115.2639988
 133.2920012  30.1784997 116.3889988 133.2190944  30.9582396 116.0093226
 133.0370012  33.8644997 112.9629988 133.9830012  33.7204997 112.9439988
 132.9250012  34.6484997 113.4999988 133.1512727  33.9508046 113.0330072
 142.2140012  34.1044997 117.5219988 142.3010012  34.9304997 117.9969988
 141.3500012  33.7744997 117.7709988 142.1091964  34.1729878 117.6206549
 142.6280012  37.8764997 107.3279988 142.5530012  37.7554997 106.3809988
 142.6610012  38.8264997 107.4459988 142.6222068  37.9882646 107.2144967
 136.2810012  36.6654997 109.1089988 136.4340012  36.3174997 109.9869988
 135.4310012  36.3094997 108.8539988 136.1869166  36.5696216 109.1948079
 135.5360012  32.4074997 117.1229988 135.7520012  32.0464997 117.9819988
 134.6810012  32.0334997 116.9129988 135.4499292  32.3074111 117.2123386
 138.1550012  20.8774997 113.1179988 137.2930012  20.7904997 112.7099988
 138.1320012  21.7334997 113.5459988 138.0340409  20.9812883 113.1200589
 142.8180012  20.5994997 116.4929988 143.2380012  20.1844997 117.2459988
 141.8850012  20.4214997 116.6099988 142.7493644  20.5185900 116.6119539
 142.4790012  23.0924997 103.7779988 142.2260012  23.1114997 104.7009988
 142.2230012  22.2204997 103.4759988 142.4097481  22.9772558 103.8636175
 138.2460012  25.8434997 114.2129988 137.6040012  25.8024997 114.9219988
 138.2830012  26.7694997 113.9749988 138.1630664  25.9631430 114.2779219
 138.2430012  26.0644997 109.1249988 137.3500012  25.7234997 109.0659988
 138.6930012  25.6874997 108.3689988 138.1818130  25.9669631 109.0147702
 143.7780012  26.4804997 107.9419988 143.3690012  27.2954997 107.6509988
 144.4990012  26.3404997 107.3279988 143.8194537  26.5732018 107.8191342
 142.8800012  26.6554997 119.4299988 142.3180012  25.9514997 119.7509988
 143.7070012  26.5354997 119.8979988 142.9147095  26.5427883 119.5372330
 144.7830012  25.9264997 110.7559988 144.5880012  26.5314997 110.0409988
 144.9640012  25.0924997 110.3219988 144.7807614  25.8966300 110.5994405
 135.9960012  26.1634997 116.0799988 135.9580012  26.5634997 116.9489988
 135.5050012  25.3464997 116.1709988 135.9244684  26.1078069 116.2111059
 132.6040012  23.2794997 109.9309988 133.2350012  23.2504997 110.6499988
 133.0530012  22.8544997 109.1999988 132.7510918  23.2180836 109.9306441
 133.8780012  24.0254997 105.3549988 134.3520012  24.6164997 104.7699988
 133.1610012  24.5564997 105.7019988 133.8459341  24.1780867 105.3218836
 144.0470012  27.5644997 115.4269988 144.3700012  26.9334997 114.7839988
 143.6070012  27.0294997 116.0879988 144.0317484  27.4058387 115.4283198
 140.8240012  23.4914997 110.2109988 139.9130012  23.5484997 110.4999988
 141.3300012  23.4314997 111.0219988 140.7676899  23.4911941 110.3601184
 135.6530012  25.1204997 109.0379988 134.7630012  25.2204997 108.6979988
 135.9490012  24.2784997 108.6919988 135.5712823  25.0203545 108.9447213
 139.3060012  25.1204997 106.6949988 140.2370012  25.2494997 106.8729988
 139.0910012  25.7904997 106.0449988 139.4044247  25.2286565 106.6315747
 136.1150012  30.8724997 119.3599988 136.8470012  31.1264997 119.9219988
 135.3350012  31.0764997 119.8759988 136.1097073  30.9348160 119.5066151
 142.1440012  26.2794997 112.0979988 142.7090012  25.7324997 111.5509988
 141.9970012  25.7574997 112.8869988 142.2013380  26.1342259 112.1298695
 137.1460012  22.4154997 108.5169988 136.8290012  21.5134997 108.4809988
 137.9280012  22.4174997 107.9639988 137.2082408  22.2922474 108.4373569
 140.7710012  24.6674997 114.5119988 139.9350012  25.1214997 114.6229988
 141.2950012  24.9434997 115.2639988 140.7275416  24.7668660 114.6288119
 141.3150012  30.8804997 106.1969988 140.5700012  30.3734997 105.8749988
 141.1810012  30.9294997 107.1439988 141.1948776  30.8176940 106.2808647
 142.8340012  31.0644997 117.4339988 142.4890012  30.6834997 118.2409988
 142.6340012  31.9984997 117.5049988 142.7597527  31.1385135 117.5540689
 136.4400012  30.1754997 111.9669988 137.1850012  30.1734997 111.3659988
 136.5180012  29.3524997 112.4479988 136.5524995  30.0638887 111.9498282
 143.4410012  32.3394997 105.2229988 143.1450012  33.1654997 105.6039988
 142.7380012  31.7194997 105.4189988 143.3054914  32.3688199 105.3016443
 133.4480012  28.6364997 117.2819988 133.6710012  28.2184997 118.1139988
 132.8460012  28.0234997 116.8589988 133.3971759  28.4964668 117.3387022
 140.4640012  28.1534997 119.4949988 140.1680012  27.9874997 118.5999988
 141.3960012  27.9334997 119.4839988 140.5494166  28.1010640 119.3710536
 138.8150012  33.6934997 109.3709988 139.3420012  34.4664997 109.1709988
 137.9350012  33.9184997 109.0689988 138.7682031  33.8297545 109.3027912
 140.2420012  31.3564997 108.9469988 140.0010012  32.2814997 108.9889988
 139.5010012  30.8974997 109.3439988 140.1089225  31.4210933 109.0063742
 140.7570012  35.5054997 115.2629988 141.1190012  36.3604997 115.0289988
 141.2880012  35.2134997 116.0029988 140.8784473  35.5831060 115.3310855
 138.9250012  36.3784997 108.4929988 137.9750012  36.4834997 108.5439988
 139.2770012  37.1984997 108.8369988 138.8424195  36.5038800 108.5465502
 144.3010012  31.6044997 114.9629988 143.8750012  31.3774997 115.7899988
 144.8810012  30.8664997 114.7809988 144.3211868  31.4735299 115.0515830
 135.0820012  23.3894997 116.8399988 134.1890012  23.7284997 116.7719988
 134.9830012  22.5344997 117.2579988 134.9464164  23.3202588 116.8872235
 134.7330012  35.1944997 115.2749988 134.9500012  34.2624997 115.2439988
 134.9790012  35.4684997 116.1579988 134.7959549  35.1040636 115.3901763
 135.9850012  30.4684997 105.4509988 135.2990012  30.8204997 106.0179988
 136.5070012  31.2314997 105.2039988 135.9616852  30.6198578 105.4952118
 143.8160012  23.1304997 115.7299988 144.5150012  23.2044997 116.3799988
 143.4350012  22.2664997 115.8839988 143.8601767  23.0237624 115.8398322
 144.6010012  22.7824997 106.8269988 144.8210012  23.2544997 106.0239988
 145.1590012  23.1774997 107.4969988 144.7064968  22.9004285 106.8077331
 142.2690012  34.9134997 105.6899988 141.4530012  35.4104997 105.7419988
 142.7990012  35.3884997 105.0499988 142.2289161  35.0457722 105.6105956
 141.8010012  24.5104997 107.6619988 142.6130012  25.0154997 107.7079988
 141.5560012  24.3654997 108.5759988 141.8790520  24.5600375 107.7918517
 142.3360012  25.4964997 116.8459988 142.4550012  26.0704997 117.6039988
 142.9920012  24.8084997 116.9609988 142.4409025  25.4819858 116.9651321
 142.6840012  21.5914997 108.5999988 142.3380012  22.2094997 109.2439988
 143.3430012  22.0924997 108.1179988 142.7256968  21.7436278 108.6229383
 139.6080012  35.9574997 105.6709988 139.7680012  36.7564997 105.1709988
 139.4100012  36.2634997 106.5559988 139.6031637  36.1084020 105.7221144
 138.3420012  22.6544997 105.2869988 138.2590012  23.5434997 105.6339988
 139.2320012  22.3894997 105.5189988 138.4509469  22.7401430 105.3657626
 136.6010012  33.0824997 104.3479988 137.1930012  33.7814997 104.6239988
 137.0600012  32.6494997 103.6279988 136.7441142  33.1197049 104.2884830
 134.9170012  25.7464997 103.4639988 134.8720012  26.6854997 103.6419988
 134.0290012  25.5104997 103.1939988 134.7908574  25.8431892 103.4518912
 135.7250012  20.5284997 112.1369988 135.4960012  20.5874997 111.2089988
 135.2820012  19.7364997 112.4429988 135.6338530  20.4295753 112.0514786
 134.6550012  34.4684997 108.2969988 133.8230012  34.9414997 108.3239988
 135.2010012  34.9784997 107.6989988 134.6150352  34.6021332 108.2198463
 133.9430012  37.0814997 119.6269988 134.4840012  36.8644997 120.3869988
 133.4620012  36.2754997 119.4369988 133.9519951  36.9429270 119.7052576
 138.5410012  36.0004997 121.2469988 139.3080012  35.5414997 121.5879988
 138.5190012  35.7744997 120.3179988 138.6431275  35.9070186 121.1680101
 142.6330012  35.5084997 102.6229988 141.9890012  34.8774997 102.9439988
 143.3950012  34.9774997 102.3909988 142.6478077  35.3502920 102.6356011
 133.8500012  30.8914997 120.5809988 133.9940012  29.9894997 120.2949988
 133.0780012  31.1774997 120.0939988 133.7652753  30.8066816 120.4759505
 140.5060012  30.8614997 120.0139988 140.1770012  31.1324997 119.1569988
 140.6580012  29.9204997 119.9269988 140.4814809  30.7713862 119.8848244
 134.6830012  28.0914997 120.0009988 135.0910012  27.2344997 119.8799988
 134.4230012  28.1064997 120.9219988 134.7037568  27.9760807 120.1089588
 138.6300012  27.1004997 117.3759988 138.0120012  27.7754997 117.6559988
 138.9740012  27.4214997 116.5419988 138.5919132  27.2362411 117.3016262
 143.6500012  29.5724997 120.6529988 144.6030012  29.6554997 120.6259988
 143.4890012  28.8604997 121.2729988 143.7586426  29.4876746 120.7330579
 138.9690012  24.4554997 118.4579988 139.1190012  23.7264997 117.8559988
 138.9720012  25.2324997 117.8989988 138.9899302  24.4607851 118.3000692
 139.3820012  22.8254997 115.9509988 139.9180012  23.2764997 115.2989988
 138.5300012  22.7174997 115.5279988 139.3402178  22.8726390 115.8045756
 140.9640012  28.2644997 116.1899988 141.7140012  28.1084997 115.6169988
 140.6250012  29.1164997 115.9149988 141.0208921  28.3582968 116.0743561
 137.4480012  25.6534997 120.3699988 136.6810012  25.1214997 120.1589988
 138.1270012  25.3434997 119.7699988 137.4347877  25.5388300 120.2600716
 140.1880012  20.2814997 116.3819988 140.0890012  21.2284997 116.2769988
 139.4450012  19.9094997 115.9059988 140.0741184  20.3605863 116.3033621
 141.4520012  24.6034997 119.9459988 141.2160012  24.3834997 120.8469988
 140.6680012  24.3964997 119.4359988 141.3138504  24.5454586 120.0003431
 144.1670012  23.7304997 119.0209988 143.2200012  23.7624997 119.1539988
 144.4800012  23.1054997 119.6749988 144.0796707  23.6503998 119.1276060
 135.6280012  23.5744997 120.0739988 135.8400012  22.8674997 119.4639988
 135.5170012  23.1364997 120.9179988 135.6419721  23.4187084 120.1046843
 140.4090012  19.5754997 119.0529988 141.1210012  18.9354997 119.0389988
 140.3080012  19.8424997 118.1399988 140.4928066  19.5240079 118.9275677
 140.7630012  21.2584997 121.1069988 140.6310012  20.7824997 120.2869988
 140.1640012  22.0024997 121.0519988 140.6639071  21.2939618 120.9872886
 132.5270012  38.1704997 108.8439988 131.8800012  37.7084997 108.3109988
 132.8810012  37.4984997 109.4259988 132.4863849  38.0164723 108.8497959
 133.3970012  36.2514997 110.6479988 133.0620012  35.3714997 110.8199988
 133.6190012  36.5964997 111.5129988 133.3811783  36.1777500 110.7884208
 133.4770012  29.3264997 113.0999988 133.6610012  29.2444997 112.1639988
 134.3260012  29.2024997 113.5229988 133.6170151  29.2985073 113.0291451
 133.0740012  24.5974997 119.2409988 133.9940012  24.4754997 119.4769988
 132.6250012  23.8474997 119.6299988 133.1391580  24.4793727 119.3259006
 134.2950012  22.9094997 112.1319988 134.7410012  22.1174997 112.4339988
 134.7620012  23.6254997 112.5619988 134.4190831  22.8980685 112.2314006
 132.5990012  25.9084997 113.2009988 133.0910012  25.6874997 112.4099988
 132.9620012  26.7494997 113.4819988 132.7153126  25.9918357 113.1307531
 132.9130012  22.1664997 107.2549988 131.9880012  22.3754997 107.1259988
 133.3670012  22.6504997 106.5649988 132.8477292  22.2605343 107.1440720
 132.8770012  20.9044997 115.5989988 132.2120012  20.6584997 116.2429988
 132.4340012  21.5264997 115.0219988 132.7261318  20.9549410 115.6090898
 135.0690012  34.0794997 119.7439988 134.2480012  34.2544997 119.2829988
 134.8160012  34.0064997 120.6639988 134.9225585  34.0935544 119.8053561
 138.0230012  35.0544997 116.0019988 137.5980012  35.8634997 115.7199988
 138.9270012  35.1394997 115.6999988 138.0869975  35.1769300 115.9224816
 142.3340012  36.4534997 118.9619988 142.5190012  36.1194997 119.8399988
 143.1800012  36.7624997 118.6399988 142.4737539  36.4496047 119.0385605
 144.6790012  37.7394997 118.2059988 145.3560012  37.1064997 117.9659988
 145.0010012  38.1404997 119.0129988 144.8151637  37.7071154 118.2822793
 135.4250012  38.3104997 116.0499988 134.7040012  38.7504997 115.5989988
 135.0590012  38.0594997 116.8979988 135.2769651  38.3367242 116.1029640
 137.8920012  37.9104997 115.0799988 137.0270012  37.9824997 115.4839988
 137.8370012  38.4574997 114.2959988 137.7662085  37.9942685 115.0293362
 142.6020012  37.7984997 114.2549988 142.1460012  38.3274997 113.6009988
 142.7650012  38.4014997 114.9799988 142.5616068  37.9524607 114.2634838
 134.8390012  36.9334997 112.9599988 134.8210012  36.5084997 113.8169988
 135.6440012  36.6154997 112.5509988 134.9453529  36.8323013 113.0220946
 136.9810012  35.6434997 111.6149988 136.7620012  34.7274997 111.7849988
 137.8050012  35.7834997 112.0809988 137.0624420  35.5370520 111.7012774
 139.5180012  36.1134997 112.4639988 139.7310012  35.2254997 112.1769988
 139.5820012  36.0794997 113.4179988 139.5558231  35.9873102 112.5537397
 143.0260012  21.7774997 111.6079988 142.3520012  21.1484997 111.8639988
 143.5900012  21.2934997 111.0049988 143.0099230  21.6258744 111.5615340
 135.3530012  20.4114997 109.4299988 134.5760012  20.1774997 108.9229988
 135.8830012  19.6144997 109.4389988 135.3182330  20.2716988 109.3617742
 134.1890012  20.2094997 105.2339988 134.6280012  20.8204997 104.6419988
 133.5560012  20.7474997 105.7079988 134.1634514  20.3659257 105.2170930
 139.9320012  20.3384997 109.2439988 140.8070012  20.7264997 109.2139988
 139.7960012  20.1234997 110.1659988 140.0333695  20.3625184 109.3646440
 134.0900012  36.1574997 106.1309988 133.4050012  36.1194997 105.4639988
 134.0940012  37.0704997 106.4199988 133.9966998  36.2756733 106.0786771
 136.0500012  22.1254997 103.6759988 136.5420012  21.4954997 103.1489988
 136.6740012  22.4214997 104.3389988 136.2015688  22.0793804 103.6935482
 141.0760012  22.4184997 106.1329988 141.2540012  21.7724997 106.8159988
 141.0230012  23.2524997 106.5999988 141.0931999  22.4428009 106.2895917
 142.9550012  37.3674997 104.5289988 143.8210012  37.7334997 104.3509988
 142.7080012  36.9274997 103.7149988 143.0402392  37.3581756 104.3946289
 135.3110012  20.9254997 118.9479988 134.9450012  20.1604997 119.3899988
 136.2240012  20.9544997 119.2339988 135.3842736  20.8245640 119.0472502
 137.2840012  20.2764997 120.4839988 138.1820012  20.0024997 120.2989988
 136.8970012  19.5334997 120.9479988 137.3546612  20.1385914 120.5213643
 135.9080012  37.0774997 103.1569988 135.6410012  37.3644997 104.0299988
 136.6800012  36.5314997 103.3089988 135.9757488  37.0430294 103.2971050
  12.4390012  48.4234997 109.3889988  12.5280012  49.3674997 109.2569988
  11.8010012  48.1484997 108.7309988  12.3649081  48.5154830 109.2819614
  11.3720012  47.6784997 112.8079988  11.3340012  47.0324997 113.5129988
  11.0500012  47.2124997 112.0369988  11.3232333  47.5269408 112.8002978
   3.7410012  47.2934997 114.4009988   3.7820012  46.6674997 115.1239988
   4.4440012  47.9174997 114.5829988   3.8416363  47.2921196 114.5246044
  15.0780012  50.6174997 111.1089988  14.6380012  49.8974997 111.5599988
  15.0650012  51.3384997 111.7389988  15.0160226  50.6163731 111.2558494
   4.6640012  51.7434997 112.9359988   4.2950012  50.9414997 112.5659988
   5.6050012  51.5744997 112.9819988   4.7407289  51.6110153 112.8916316
   1.2740012  45.4034997 108.3289988   0.8270012  46.2494997 108.3099988
   0.7130012  44.8234997 107.8129988   1.1369900  45.4409916 108.2566801
   1.9850012  47.5654997 110.4539988   2.1980012  46.7954997 110.9819988
   2.7230012  47.6544997 109.8509988   2.1139044  47.4721968 110.4447123
  12.1900012  55.7224997 111.3209988  12.8100012  55.0454997 111.0479988
  11.9820012  55.5044997 112.2299988  12.2466726  55.6004800 111.4064812
   9.7620012  50.1114997 113.2139988  10.0660012  49.4254997 112.6189988
  10.4830012  50.2294997 113.8319988   9.9010671  50.0336305 113.2161816
  18.4250012  41.7124997 114.0749988  18.4740012  42.3224997 114.8099988
  18.8500012  42.1734997 113.3519988  18.4891746  41.8583796 114.0779175
  12.9030012  44.5054997 113.5409988  13.0450012  43.5594997 113.5619988
  12.7960012  44.7124997 112.6129988  12.9079919  44.4038246 113.4183408
   6.0570012  42.6064997 110.8139988   6.1010012  43.4664997 110.3949988
   5.6000012  42.0544997 110.1799988   6.0012240  42.6494422 110.6709864
  13.7800012  42.7374997 109.2149988  14.4260012  42.4084997 109.8389988
  14.2900012  43.2554997 108.5919988  13.9374299  42.7624450 109.2162731
   2.6780012  45.0034997 111.5759988   3.3310012  44.4534997 112.0079988
   2.7020012  44.7294997 110.6589988   2.7706683  44.8911466 111.5112123
   7.8340012  46.5534997 110.7909988   8.4500012  46.0274997 111.3009988
   7.2480012  45.9134997 110.3879988   7.8390810  46.3949208 110.8063173
  18.8160012  43.1904997 116.3099988  18.1280012  43.8484997 116.2149988
  18.8320012  42.9934997 117.2469988  18.7239540  43.2539819 116.4235990
   4.8680012  41.5244997 114.8879988   4.6490012  42.0544997 114.1219988
   4.2000012  41.7514997 115.5349988   4.7477600  41.6276906 114.8706379
  12.2370012  51.0244997 108.4319988  11.9410012  50.7024997 107.5809988
  11.9120012  51.9244997 108.4729988  12.1526371  51.1020215 108.3211801
   7.4370012  49.2004997 115.1749988   6.6970012  49.7984997 115.2789988
   8.1510012  49.7544997 114.8599988   7.4322237  49.3572831 115.1466465
  15.5440012  42.0284997 111.1949988  15.3280012  41.2624997 111.7279988
  16.1990012  42.5004997 111.7079988  15.6030632  41.9875889 111.3372861
   4.4610012  43.4164997 112.8399988   5.0750012  44.0494997 113.2129988
   4.9730012  42.9444997 112.1839988   4.6141981  43.4392267 112.8022908
   5.8440012  51.1644997 115.9619988   5.8390012  52.0444997 115.5839988
   4.9910012  51.0814997 116.3869988   5.7279464  51.2736117 115.9677907
   1.9650012  50.8354997 106.7439988   1.6930012  51.0644997 105.8559988
   2.0110012  51.6734997 107.2049988   1.9339482  50.9801318 106.6846273
  15.5900012  52.4574997 113.4569988  14.6490012  52.5154997 113.6189988
  15.8670012  53.3634997 113.3199988  15.4984679  52.5879443 113.4606815
  15.8910012  40.7434997 114.8749988  15.1550012  41.3544997 114.8369988
  16.5740012  41.1584997 114.3479988  15.8826541  40.8831374 114.7985832
   8.8940012  38.8304997 112.3399988   8.7770012  37.8814997 112.2859988
   8.0390012  39.1624997 112.6139988   8.7624212  38.7455571 112.3696497
  13.8420012  54.2384997 110.0819988  14.2680012  53.5314997 109.5969988
  14.1590012  55.0394997 109.6659988  13.9431683  54.2501017 109.9593680
  15.0020012  52.1394997 108.5909988  14.7440012  51.4494997 107.9799988
  15.0730012  51.6964997 109.4369988  14.9762856  51.9852124 108.6216885
  16.6880012  50.7054997 117.0679988  16.8280012  50.1144997 116.3289988
  16.8550012  51.5784997 116.7119988  16.7297411  50.7425428 116.9186894
  11.1610012  47.6674997 106.8409988  10.4490012  48.2024997 106.4889988
  11.8520012  47.7234997 106.1809988  11.1570132  47.7482543 106.7036289
  11.2140012  46.1254997 103.8799988  11.9150012  46.1474997 104.5309988
  11.5170012  45.4974997 103.2229988  11.3508133  46.0437070 103.8803369
  18.5300012  47.0454997 115.1339988  17.8770012  47.7404997 115.2239988
  18.9950012  47.2554997 114.3249988  18.5035274  47.1690643 115.0368462
  14.5660012  47.8774997 107.7929988  13.8340012  48.1054997 108.3659988
  15.0140012  47.1634997 108.2469988  14.5262725  47.8122145 107.9328816
  14.4640012  46.0514997 116.8599988  14.5440012  46.8144997 117.4319988
  13.8620012  46.3304997 116.1699988  14.3935756  46.1937134 116.8450589
   6.2120012  48.5074997 109.6749988   5.8810012  48.1374997 108.8569988
   6.8000012  47.8374997 110.0219988   6.2461873  48.3661156 109.6098102
   7.5780012  51.9354997 112.3559988   7.4840012  51.3574997 111.5999988
   8.3080012  51.5644997 112.8529988   7.6637387  51.8061663 112.3195342
   6.5780012  47.2764997 113.3089988   7.1440012  47.3974997 112.5459988
   6.8970012  47.9134997 113.9469988   6.6985474  47.3792219 113.2909862
  12.8870012  52.7794997 114.0429988  12.6470012  53.4414997 114.6909988
  12.6890012  51.9454997 114.4679988  12.8273808  52.7573134 114.1891524
   7.4580012  51.6754997 118.0259988   7.1470012  52.4574997 118.4809988
   6.8080012  51.5224997 117.3399988   7.3275558  51.7619105 117.9955871
  13.4370012  47.0394997 105.4779988  14.0170012  47.1894997 106.2249988
  13.8510012  47.5104997 104.7539988  13.5722997  47.1236578 105.4824058
   4.3780012  47.8734997 117.2539988   4.4490012  48.5244997 117.9529988
   3.4880012  47.9764997 116.9189988   4.2673005  47.9765427 117.3043495
  11.1640012  53.7764997 108.9129988  11.6380012  54.0714997 109.6899988
  10.6010012  54.5144997 108.6799988  11.1528184  53.9167247 108.9879628
   5.6980012  53.7474997 118.7889988   5.7050012  53.6114997 117.8419988
   4.7820012  53.6294997 119.0409988   5.5751714  53.7129430 118.6934666
   5.2020012  47.5774997 107.2639988   4.9100012  48.3454997 106.7739988
   4.5280012  46.9174997 107.1019988   5.0708111  47.5935587 107.1748978
   1.2950012  49.9404997 116.0789988   0.7940012  49.9124997 115.2639988
   1.3000012  49.0344997 116.3889988   1.2270944  49.8142396 116.0093226
   1.0450012  52.7204997 112.9629988   1.9910012  52.5764997 112.9439988
   0.9330012  53.5044997 113.4999988   1.1592727  52.8068046 113.0330072
  19.2430012  53.3864997 118.6459988  19.1940012  52.4314997 118.6089988
  18.4160012  53.6544997 119.0469988  19.1244940  53.2918998 118.6951375
  10.2220012  52.9604997 117.5219988  10.3090012  53.7864997 117.9969988
   9.3580012  52.6304997 117.7709988  10.1171964  53.0289878 117.6206549
  10.6360012  56.7324997 107.3279988  10.5610012  56.6114997 106.3809988
  10.6690012  57.6824997 107.4459988  10.6302068  56.8442646 107.2144967
   4.2890012  55.5214997 109.1089988   4.4420012  55.1734997 109.9869988
   3.4390012  55.1654997 108.8539988   4.1949166  55.4256216 109.1948079
  13.4070012  55.8124997 107.0789988  12.4710012  55.9124997 107.2579988
  13.6870012  55.1034997 107.6579988  13.3169553  55.7303406 107.1817087
  16.3950012  44.8794997 119.1259988  15.9880012  45.3604997 118.4049988
  16.4360012  43.9744997 118.8179988  16.3448437  44.8229374 118.9856683
   3.5440012  51.2634997 117.1229988   3.7600012  50.9024997 117.9819988
   2.6890012  50.8894997 116.9129988   3.4579292  51.1634111 117.2123386
   6.1630012  39.7334997 113.1179988   5.3010012  39.6464997 112.7099988
   6.1400012  40.5894997 113.5459988   6.0420409  39.8372883 113.1200589
  10.8260012  39.4554997 116.4929988  11.2460012  39.0404997 117.2459988
   9.8930012  39.2774997 116.6099988  10.7573644  39.3745900 116.6119539
  14.1520012  43.2114997 117.3459988  13.6380012  43.0854997 118.1439988
  13.9970012  44.1234997 117.1019988  14.0606852  43.3176132 117.4222158
   6.2540012  44.6994997 114.2129988   5.6120012  44.6584997 114.9219988
   6.2910012  45.6254997 113.9749988   6.1710664  44.8191430 114.2779219
   6.2510012  44.9204997 109.1249988   5.3580012  44.5794997 109.0659988
   6.7010012  44.5434997 108.3689988   6.1898130  44.8229631 109.0147702
  11.7860012  45.3364997 107.9419988  11.3770012  46.1514997 107.6509988
  12.5070012  45.1964997 107.3279988  11.8274537  45.4292018 107.8191342
  10.8880012  45.5114997 119.4299988  10.3260012  44.8074997 119.7509988
  11.7150012  45.3914997 119.8979988  10.9227095  45.3987883 119.5372330
  12.7910012  44.7824997 110.7559988  12.5960012  45.3874997 110.0409988
  12.9720012  43.9484997 110.3219988  12.7887614  44.7526300 110.5994405
   4.0040012  45.0194997 116.0799988   3.9660012  45.4194997 116.9489988
   3.5130012  44.2024997 116.1709988   3.9324684  44.9638069 116.2111059
   0.6120012  42.1354997 109.9309988   1.2430012  42.1064997 110.6499988
   1.0610012  41.7104997 109.1999988   0.7590918  42.0740836 109.9306441
  12.0550012  46.4204997 115.4269988  12.3780012  45.7894997 114.7839988
  11.6150012  45.8854997 116.0879988  12.0397484  46.2618387 115.4283198
   8.8320012  42.3474997 110.2109988   7.9210012  42.4044997 110.4999988
   9.3380012  42.2874997 111.0219988   8.7756899  42.3471941 110.3601184
   3.6610012  43.9764997 109.0379988   2.7710012  44.0764997 108.6979988
   3.9570012  43.1344997 108.6919988   3.5792823  43.8763545 108.9447213
   7.3140012  43.9764997 106.6949988   8.2450012  44.1054997 106.8729988
   7.0990012  44.6464997 106.0449988   7.4124247  44.0846565 106.6315747
  13.2370012  41.5824997 113.4759988  12.5610012  41.7134997 114.1399988
  12.7520012  41.4274997 112.6649988  13.0787146  41.5795157 113.4574469
   5.9880012  45.1714997 104.2609988   5.4450012  44.7914997 103.5699988
   6.8210012  45.3654997 103.8329988   6.0263631  45.1457125 104.1084501
  16.5250012  57.2544997 119.7519988  16.7250012  57.6784997 118.9179988
  17.1800012  57.5974997 120.3589988  16.6410072  57.3589857 119.7198592
   4.1230012  49.7284997 119.3599988   4.8550012  49.9824997 119.9219988
   3.3430012  49.9324997 119.8759988   4.1177073  49.7908160 119.5066151
  10.1520012  45.1354997 112.0979988  10.7170012  44.5884997 111.5509988
  10.0050012  44.6134997 112.8869988  10.2093380  44.9902259 112.1298695
   5.1540012  41.2714997 108.5169988   4.8370012  40.3694997 108.4809988
   5.9360012  41.2734997 107.9639988   5.2162408  41.1482474 108.4373569
   8.7790012  43.5234997 114.5119988   7.9430012  43.9774997 114.6229988
   9.3030012  43.7994997 115.2639988   8.7355416  43.6228660 114.6288119
   9.3230012  49.7364997 106.1969988   8.5780012  49.2294997 105.8749988
   9.1890012  49.7854997 107.1439988   9.2028776  49.6736940 106.2808647
  16.4730012  48.8694997 114.9839988  17.1150012  49.3264997 114.4399988
  15.6430012  48.9824997 114.5209988  16.4485963  48.9472704 114.8470177
  10.8420012  49.9204997 117.4339988  10.4970012  49.5394997 118.2409988
  10.6420012  50.8544997 117.5049988  10.7677527  49.9945135 117.5540689
  13.9390012  44.4174997 106.0569988  14.8310012  44.2804997 106.3759988
  13.9960012  45.2084997 105.5199988  14.0686504  44.5056052 106.0280818
   4.4480012  49.0314997 111.9669988   5.1930012  49.0294997 111.3659988
   4.5260012  48.2084997 112.4479988   4.5604995  48.9198887 111.9498282
   1.4560012  47.4924997 117.2819988   1.6790012  47.0744997 118.1139988
   0.8540012  46.8794997 116.8589988   1.4051759  47.3524668 117.3387022
   8.4720012  47.0094997 119.4949988   8.1760012  46.8434997 118.5999988
   9.4040012  46.7894997 119.4839988   8.5574166  46.9570640 119.3710536
  13.0930012  52.3824997 117.3849988  12.1920012  52.5654997 117.1169988
  13.1270012  52.6414997 118.3049988  12.9743139  52.4425849 117.4728099
  18.8240012  44.6274997 105.7519988  18.2700012  44.2314997 105.0799988
  18.9240012  45.5374997 105.4739988  18.7617059  44.6963586 105.6224401
  18.7870012  50.4274997 118.5889988  17.9360012  50.6654997 118.2219988
  19.3780012  50.4104997 117.8359988  18.7502487  50.4578258 118.4368893
  17.1190012  53.4134997 106.2169988  16.7460012  52.5874997 106.5259988
  17.3970012  53.2304997 105.3189988  17.1055222  53.2757430 106.1379473
  14.2800012  48.2214997 113.2379988  13.3510012  47.9894997 113.2109988
  14.7310012  47.4444997 112.9079988  14.2139216  48.0847238 113.1896917
   6.8230012  52.5494997 109.3709988   7.3500012  53.3224997 109.1709988
   5.9430012  52.7744997 109.0689988   6.7762031  52.6857545 109.3027912
   8.2500012  50.2124997 108.9469988   8.0090012  51.1374997 108.9889988
   7.5090012  49.7534997 109.3439988   8.1169225  50.2770933 109.0063742
   8.7650012  54.3614997 115.2629988   9.1270012  55.2164997 115.0289988
   9.2960012  54.0694997 116.0029988   8.8864473  54.4391060 115.3310855
   6.9330012  55.2344997 108.4929988   5.9830012  55.3394997 108.5439988
   7.2850012  56.0544997 108.8369988   6.8504195  55.3598800 108.5465502
  12.3090012  50.4604997 114.9629988  11.8830012  50.2334997 115.7899988
  12.8890012  49.7224997 114.7809988  12.3291868  50.3295299 115.0515830
  14.5120012  51.3894997 104.0369988  14.8650012  51.0094997 104.8409988
  13.5630012  51.2964997 104.1239988  14.4320918  51.3248956 104.1588532
  14.9670012  55.0124997 117.4329988  14.3660012  54.4574997 116.9369988
  15.2490012  55.6794997 116.8059988  14.9228804  55.0266625 117.2804849
   3.0900012  42.2454997 116.8399988   2.1970012  42.5844997 116.7719988
   2.9910012  41.3904997 117.2579988   2.9544164  42.1762588 116.8872235
  15.3780012  50.0624997 106.2639988  15.1000012  49.3344997 106.8199988
  16.3050012  50.1814997 106.4689988  15.4653124  49.9788802 106.3678845
   2.7410012  54.0504997 115.2749988   2.9580012  53.1184997 115.2439988
   2.9870012  54.3244997 116.1579988   2.8039549  53.9600636 115.3901763
   3.9930012  49.3244997 105.4509988   3.3070012  49.6764997 106.0179988
   4.5150012  50.0874997 105.2039988   3.9696852  49.4758578 105.4952118
  11.8240012  41.9864997 115.7299988  12.5230012  42.0604997 116.3799988
  11.4430012  41.1224997 115.8839988  11.8681767  41.8797624 115.8398322
  12.6090012  41.6384997 106.8269988  12.8290012  42.1104997 106.0239988
  13.1670012  42.0334997 107.4969988  12.7144968  41.7564285 106.8077331
   9.8090012  43.3664997 107.6619988  10.6210012  43.8714997 107.7079988
   9.5640012  43.2214997 108.5759988   9.8870520  43.4160375 107.7918517
  10.3440012  44.3524997 116.8459988  10.4630012  44.9264997 117.6039988
  11.0000012  43.6644997 116.9609988  10.4489025  44.3379858 116.9651321
  10.6920012  40.4474997 108.5999988  10.3460012  41.0654997 109.2439988
  11.3510012  40.9484997 108.1179988  10.7336968  40.5996278 108.6229383
   7.6160012  54.8134997 105.6709988   7.7760012  55.6124997 105.1709988
   7.4180012  55.1194997 106.5559988   7.6111637  54.9644020 105.7221144
   6.3500012  41.5104997 105.2869988   6.2670012  42.3994997 105.6339988
   7.2400012  41.2454997 105.5189988   6.4589469  41.5961430 105.3657626
  16.5490012  42.2594997 117.6809988  15.6320012  42.5224997 117.5939988
  16.8840012  42.2564997 116.7849988  16.4688613  42.2950761 117.5478837
  15.1510012  46.0104997 111.7769988  14.3530012  45.5954997 111.4489988
  15.5960012  45.3194997 112.2679988  15.1019885  45.8603543 111.7984889
  16.2370012  55.2664997 113.3999988  16.0820012  55.9444997 112.7419988
  17.1700012  55.3384997 113.6029988  16.3418657  55.3689546 113.3374360
   3.7330012  39.3844997 112.1369988   3.5040012  39.4434997 111.2089988
   3.2900012  38.5924997 112.4429988   3.6418530  39.2855753 112.0514786
   2.6630012  53.3244997 108.2969988   1.8310012  53.7974997 108.3239988
   3.2090012  53.8344997 107.6989988   2.6230352  53.4581332 108.2198463
   1.9510012  55.9374997 119.6269988   2.4920012  55.7204997 120.3869988
   1.4700012  55.1314997 119.4369988   1.9599951  55.7989270 119.7052576
   6.5490012  54.8564997 121.2469988   7.3160012  54.3974997 121.5879988
   6.5270012  54.6304997 120.3179988   6.6511275  54.7630186 121.1680101
  13.1260012  53.2364997 119.9769988  12.7750012  52.3804997 120.2199988
  13.8520012  53.3794997 120.5839988  13.1760769  53.1385636 120.0923619
   1.8580012  49.7474997 120.5809988   2.0020012  48.8454997 120.2949988
   1.0860012  50.0334997 120.0939988   1.7732753  49.6626816 120.4759505
   8.5140012  49.7174997 120.0139988   8.1850012  49.9884997 119.1569988
   8.6660012  48.7764997 119.9269988   8.4894809  49.6273862 119.8848244
  14.2480012  49.6334997 117.3969988  14.9940012  50.2214997 117.2779988
  13.4910012  50.2154997 117.4609988  14.2477820  49.7927143 117.3893590
   2.6910012  46.9474997 120.0009988   3.0990012  46.0904997 119.8799988
   2.4310012  46.9624997 120.9219988   2.7117568  46.8320807 120.1089588
   7.3490012  48.0634997 105.0199988   6.8890012  47.5794997 105.7059988
   7.6040012  47.3954997 104.3839988   7.3204902  47.9068731 105.0279334
   6.6380012  45.9564997 117.3759988   6.0200012  46.6314997 117.6559988
   6.9820012  46.2774997 116.5419988   6.5999132  46.0922411 117.3016262
  11.6580012  48.4284997 120.6529988  12.6110012  48.5114997 120.6259988
  11.4970012  47.7164997 121.2729988  11.7666426  48.3436746 120.7330579
   6.9770012  43.3114997 118.4579988   7.1270012  42.5824997 117.8559988
   6.9800012  44.0884997 117.8989988   6.9979302  43.3167851 118.3000692
   7.3900012  41.6814997 115.9509988   7.9260012  42.1324997 115.2989988
   6.5380012  41.5734997 115.5279988   7.3482178  41.7286390 115.8045756
   8.9720012  47.1204997 116.1899988   9.7220012  46.9644997 115.6169988
   8.6330012  47.9724997 115.9149988   9.0288921  47.2142968 116.0743561
  13.3870012  44.9354997 121.2189988  13.5800012  44.0044997 121.1069988
  14.2450012  45.3604997 121.2079988  13.5292934  44.8656531 121.2022031
  14.7040012  47.7244997 119.2959988  14.4230012  48.4334997 118.7179988
  15.6470012  47.6514997 119.1449988  14.7929291  47.8116711 119.1964967
   5.4560012  44.5094997 120.3699988   4.6890012  43.9774997 120.1589988
   6.1350012  44.1994997 119.7699988   5.4427877  44.3948300 120.2600716
   8.1960012  39.1374997 116.3819988   8.0970012  40.0844997 116.2769988
   7.4530012  38.7654997 115.9059988   8.0821184  39.2165863 116.3033621
   9.4600012  43.4594997 119.9459988   9.2240012  43.2394997 120.8469988
   8.6760012  43.2524997 119.4359988   9.3218504  43.4014586 120.0003431
  12.1750012  42.5864997 119.0209988  11.2280012  42.6184997 119.1539988
  12.4880012  41.9614997 119.6749988  12.0876707  42.5063998 119.1276060
  13.8090012  41.2204997 121.0269988  13.7130012  40.2684997 121.0209988
  13.4880012  41.4894997 121.8869988  13.7524070  41.1264035 121.1425441
   3.6360012  42.4304997 120.0739988   3.8480012  41.7234997 119.4639988
   3.5250012  41.9924997 120.9179988   3.6499721  42.2747084 120.1046843
   8.4170012  38.4314997 119.0529988   9.1290012  37.7914997 119.0389988
   8.3160012  38.6984997 118.1399988   8.5008066  38.3800079 118.9275677
   8.7710012  40.1144997 121.1069988   8.6390012  39.6384997 120.2869988
   8.1720012  40.8584997 121.0519988   8.6719071  40.1499618 120.9872886
   0.5350012  57.0264997 108.8439988  -0.1119988  56.5644997 108.3109988
   0.8890012  56.3544997 109.4259988   0.4943849  56.8724723 108.8497959
   1.4050012  55.1074997 110.6479988   1.0700012  54.2274997 110.8199988
   1.6270012  55.4524997 111.5129988   1.3891783  55.0337501 110.7884208
  18.9530012  55.9164997 113.6289988  18.9320012  56.1014997 114.5679988
  19.6440012  56.4854997 113.2879988  19.0434618  56.0186606 113.7113864
  18.5170012  55.4844997 116.5509988  18.0290012  54.7484997 116.1789988
  19.0660012  55.0904997 117.2289988  18.5244820  55.3305889 116.5917813
  16.9670012  51.2734997 121.1889988  16.1010012  51.1684997 121.5829988
  17.3440012  52.0324997 121.6349988  16.8993308  51.3616900 121.3032393
  18.2680012  49.5304997 106.7029988  19.1180012  49.9514997 106.8299988
  18.2740012  48.7904997 107.3099988  18.3851372  49.4880803 106.8024344
  18.6630012  47.5834997 108.5259988  17.9360012  47.1044997 108.9239988
  19.2440012  47.7894997 109.2589988  18.6420473  47.5458103 108.6794528
  18.4220012  50.3684997 113.4739988  19.2550012  49.9904997 113.1939988
  18.5340012  51.3114997 113.3549988  18.5512647  50.4442218 113.4195487
  16.9080012  53.2464997 115.7809988  16.2610012  53.5714997 116.4069988
  16.3910012  52.8064997 115.1069988  16.7494029  53.2315004 115.7755827
  16.4490012  46.1044997 109.0889988  16.2990012  45.1594997 109.0689988
  16.0960012  46.3854997 109.9329988  16.3807448  46.0131481 109.2003705
   1.4850012  48.1824997 113.0999988   1.6690012  48.1004997 112.1639988
   2.3340012  48.0584997 113.5229988   1.6250151  48.1545073 113.0291451
  17.3060012  48.0744997 118.7279988  17.8890012  47.3404997 118.9199988
  17.8700012  48.8464997 118.7749988  17.4619769  48.0784227 118.7606159
  18.8020012  45.9774997 119.4129988  17.9390012  45.5984997 119.2469988
  19.4070012  45.2384997 119.3379988  18.7656119  45.8258268 119.3801528
  16.1600012  43.6874997 107.5519988  16.4400012  42.7804997 107.6759988
  16.9190012  44.1214997 107.1629988  16.3009277  43.6220942 107.5163682
  16.7720012  44.2684997 112.9879988  17.7050012  44.4804997 112.9529988
  16.5370012  44.3704997 113.9099988  16.8679244  44.3113100 113.1078892
  16.8010012  45.0054997 115.7639988  15.9580012  45.2734997 116.1299988
  17.2430012  45.8274997 115.5529988  16.7454158  45.1533291 115.7855491
   1.0820012  43.4534997 119.2409988   2.0020012  43.3314997 119.4769988
   0.6330012  42.7034997 119.6299988   1.1471580  43.3353727 119.3259006
  19.0840012  38.9854997 121.1169988  19.4340012  38.3314997 120.5119988
  19.2310012  39.8224997 120.6769988  19.1517887  39.0091548 120.9746858
  16.7730012  40.9504997 107.5999988  16.9560012  40.5014997 108.4259988
  16.1740012  40.3654997 107.1369988  16.7170202  40.8099975 107.6503275
   2.3030012  41.7654997 112.1319988   2.7490012  40.9734997 112.4339988
   2.7700012  42.4814997 112.5619988   2.4270831  41.7540685 112.2314006
   0.6070012  44.7644997 113.2009988   1.0990012  44.5434997 112.4099988
   0.9700012  45.6054997 113.4819988   0.7233126  44.8478357 113.1307531
  18.6040012  41.0944997 119.4659988  17.6860012  41.3654997 119.4309988
  18.7270012  40.5594997 118.6819988  18.4949729  41.0592508 119.3551923
  18.6400012  41.0174997 104.1279988  19.0520012  40.2964997 103.6529988
  19.3220012  41.6874997 104.1869988  18.7885885  41.0092368 104.0708915
   0.9210012  41.0224997 107.2549988  -0.0039988  41.2314997 107.1259988
   1.3750012  41.5064997 106.5649988   0.8557292  41.1165343 107.1440720
  15.6920012  56.0064997 109.2009988  16.3440012  55.6594997 108.5929988
  16.2020012  56.4954997 109.8469988  15.8502637  56.0250597 109.2050236
   0.8850012  39.7604997 115.5989988   0.2200012  39.5144997 116.2429988
   0.4420012  40.3824997 115.0219988   0.7341318  39.8109410 115.6090898
   3.0770012  52.9354997 119.7439988   2.2560012  53.1104997 119.2829988
   2.8240012  52.8624997 120.6639988   2.9305585  52.9495544 119.8053561
   6.0310012  53.9104997 116.0019988   5.6060012  54.7194997 115.7199988
   6.9350012  53.9954997 115.6999988   6.0949975  54.0329300 115.9224816
  10.3420012  55.3094997 118.9619988  10.5270012  54.9754997 119.8399988
  11.1880012  55.6184997 118.6399988  10.4817539  55.3056047 119.0385605
  12.6870012  56.5954997 118.2059988  13.3640012  55.9624997 117.9659988
  13.0090012  56.9964997 119.0129988  12.8231637  56.5631154 118.2822793
  17.6040012  39.1844997 117.2849988  16.7920012  39.5094997 116.8979988
  17.8370012  38.4244997 116.7519988  17.5242203  39.1262758 117.1598880
   3.4330012  57.1664997 116.0499988   2.7120012  57.6064997 115.5989988
   3.0670012  56.9154997 116.8979988   3.2849651  57.1927242 116.1029640
   5.9000012  56.7664997 115.0799988   5.0350012  56.8384997 115.4839988
   5.8450012  57.3134997 114.2959988   5.7742085  56.8502685 115.0293362
  10.6100012  56.6544997 114.2549988  10.1540012  57.1834997 113.6009988
  10.7730012  57.2574997 114.9799988  10.5696068  56.8084607 114.2634838
  12.9380012  55.5324997 115.1999988  12.0330012  55.6974997 114.9339988
  13.3670012  56.3854997 115.1349988  12.8721324  55.6704339 115.1547976
  15.5420012  57.1024997 115.4949988  15.3600012  58.0184997 115.2849988
  15.7190012  56.6924997 114.6489988  15.5410210  57.1724822 115.3517885
   2.8470012  55.7894997 112.9599988   2.8290012  55.3644997 113.8169988
   3.6520012  55.4714997 112.5509988   2.9533529  55.6883013 113.0220946
   4.9890012  54.4994997 111.6149988   4.7700012  53.5834997 111.7849988
   5.8130012  54.6394997 112.0809988   5.0704420  54.3930520 111.7012774
   7.5260012  54.9694997 112.4639988   7.7390012  54.0814997 112.1769988
   7.5900012  54.9354997 113.4179988   7.5638231  54.8433102 112.5537397
  11.0340012  40.6334997 111.6079988  10.3600012  40.0044997 111.8639988
  11.5980012  40.1494997 111.0049988  11.0179230  40.4818744 111.5615340
  16.1770012  38.7414997 111.7209988  16.7810012  39.2884997 111.2189988
  15.3070012  39.0604997 111.4799988  16.1421208  38.8595137 111.6196886
  17.9040012  39.8794997 110.0539988  18.5160012  39.3654997 109.5269988
  18.2860012  40.7574997 110.0769988  18.0393371  39.9277866 109.9850041
   3.3610012  39.2674997 109.4299988   2.5840012  39.0334997 108.9229988
   3.8910012  38.4704997 109.4389988   3.3262330  39.1276988 109.3617742
   7.9400012  39.1944997 109.2439988   8.8150012  39.5824997 109.2139988
   7.8040012  38.9794997 110.1659988   8.0413695  39.2185184 109.3646440
  13.4970012  39.2244997 110.8929988  13.5730012  39.3194997 109.9429988
  13.2220012  38.3164997 111.0219988  13.4702321  39.1147867 110.7805079
  14.8500012  39.2504997 106.5849988  14.1480012  39.8654997 106.3749988
  14.4060012  38.4124997 106.7159988  14.6936450  39.2215639 106.5739000
   2.0980012  55.0134997 106.1309988   1.4130012  54.9754997 105.4639988
   2.1020012  55.9264997 106.4199988   2.0046998  55.1316733 106.0786771
   4.0580012  40.9814997 103.6759988   4.5500012  40.3514997 103.1489988
   4.6820012  41.2774997 104.3389988   4.2095688  40.9353804 103.6935482
   9.0840012  41.2744997 106.1329988   9.2620012  40.6284997 106.8159988
   9.0310012  42.1084997 106.5999988   9.1011999  41.2988009 106.2895917
  10.9630012  56.2234997 104.5289988  11.8290012  56.5894997 104.3509988
  10.7160012  55.7834997 103.7149988  11.0482392  56.2141756 104.3946289
  17.6720012  55.7864997 107.2079988  17.4770012  55.0384997 106.6429988
  17.6330012  56.5444997 106.6249988  17.6400380  55.7866099 107.0518384
   3.3190012  39.7814997 118.9479988   2.9530012  39.0164997 119.3899988
   4.2320012  39.8104997 119.2339988   3.3922736  39.6805640 119.0472502
   5.2920012  39.1324997 120.4839988   6.1900012  38.8584997 120.2989988
   4.9050012  38.3894997 120.9479988   5.3626612  38.9945914 120.5213643
  13.7130012  38.4644997 120.6659988  13.7900012  38.0384997 121.5199988
  14.6070012  38.4784997 120.3229988  13.8443428  38.4080879 120.7365310
  16.8890012  54.5374997 119.3579988  16.1070012  54.3514997 118.8379988
  16.8170012  55.4664997 119.5759988  16.7722274  54.6376643 119.3163018
  31.2950012  48.4234997 109.3889988  31.3840012  49.3674997 109.2569988
  30.6570012  48.1484997 108.7309988  31.2209081  48.5154830 109.2819614
  30.2280012  47.6784997 112.8079988  30.1900012  47.0324997 113.5129988
  29.9060012  47.2124997 112.0369988  30.1792333  47.5269408 112.8002978
  22.5970012  47.2934997 114.4009988  22.6380012  46.6674997 115.1239988
  23.3000012  47.9174997 114.5829988  22.6976363  47.2921196 114.5246044
  33.9340012  50.6174997 111.1089988  33.4940012  49.8974997 111.5599988
  33.9210012  51.3384997 111.7389988  33.8720226  50.6163731 111.2558494
  23.5200012  51.7434997 112.9359988  23.1510012  50.9414997 112.5659988
  24.4610012  51.5744997 112.9819988  23.5967289  51.6110153 112.8916316
  20.1300012  45.4034997 108.3289988  19.6830012  46.2494997 108.3099988
  19.5690012  44.8234997 107.8129988  19.9929900  45.4409916 108.2566801
  20.8410012  47.5654997 110.4539988  21.0540012  46.7954997 110.9819988
  21.5790012  47.6544997 109.8509988  20.9699044  47.4721968 110.4447123
  31.0460012  55.7224997 111.3209988  31.6660012  55.0454997 111.0479988
  30.8380012  55.5044997 112.2299988  31.1026726  55.6004800 111.4064812
  28.6180012  50.1114997 113.2139988  28.9220012  49.4254997 112.6189988
  29.3390012  50.2294997 113.8319988  28.7570671  50.0336305 113.2161816
  37.2810012  41.7124997 114.0749988  37.3300012  42.3224997 114.8099988
  37.7060012  42.1734997 113.3519988  37.3451746  41.8583796 114.0779175
  31.7590012  44.5054997 113.5409988  31.9010012  43.5594997 113.5619988
  31.6520012  44.7124997 112.6129988  31.7639919  44.4038246 113.4183408
  24.9130012  42.6064997 110.8139988  24.9570012  43.4664997 110.3949988
  24.4560012  42.0544997 110.1799988  24.8572240  42.6494422 110.6709864
  32.6360012  42.7374997 109.2149988  33.2820012  42.4084997 109.8389988
  33.1460012  43.2554997 108.5919988  32.7934299  42.7624450 109.2162731
  21.5340012  45.0034997 111.5759988  22.1870012  44.4534997 112.0079988
  21.5580012  44.7294997 110.6589988  21.6266683  44.8911466 111.5112123
  26.6900012  46.5534997 110.7909988  27.3060012  46.0274997 111.3009988
  26.1040012  45.9134997 110.3879988  26.6950810  46.3949208 110.8063173
  37.6720012  43.1904997 116.3099988  36.9840012  43.8484997 116.2149988
  37.6880012  42.9934997 117.2469988  37.5799540  43.2539819 116.4235990
  23.7240012  41.5244997 114.8879988  23.5050012  42.0544997 114.1219988
  23.0560012  41.7514997 115.5349988  23.6037600  41.6276906 114.8706379
  31.0930012  51.0244997 108.4319988  30.7970012  50.7024997 107.5809988
  30.7680012  51.9244997 108.4729988  31.0086371  51.1020215 108.3211801
  26.2930012  49.2004997 115.1749988  25.5530012  49.7984997 115.2789988
  27.0070012  49.7544997 114.8599988  26.2882237  49.3572831 115.1466465
  34.4000012  42.0284997 111.1949988  34.1840012  41.2624997 111.7279988
  35.0550012  42.5004997 111.7079988  34.4590632  41.9875889 111.3372861
  23.3170012  43.4164997 112.8399988  23.9310012  44.0494997 113.2129988
  23.8290012  42.9444997 112.1839988  23.4701981  43.4392267 112.8022908
  24.7000012  51.1644997 115.9619988  24.6950012  52.0444997 115.5839988
  23.8470012  51.0814997 116.3869988  24.5839464  51.2736117 115.9677907
  20.8210012  50.8354997 106.7439988  20.5490012  51.0644997 105.8559988
  20.8670012  51.6734997 107.2049988  20.7899482  50.9801318 106.6846273
  34.4460012  52.4574997 113.4569988  33.5050012  52.5154997 113.6189988
  34.7230012  53.3634997 113.3199988  34.3544679  52.5879443 113.4606815
  34.7470012  40.7434997 114.8749988  34.0110012  41.3544997 114.8369988
  35.4300012  41.1584997 114.3479988  34.7386541  40.8831374 114.7985832
  27.7500012  38.8304997 112.3399988  27.6330012  37.8814997 112.2859988
  26.8950012  39.1624997 112.6139988  27.6184212  38.7455571 112.3696497
  32.6980012  54.2384997 110.0819988  33.1240012  53.5314997 109.5969988
  33.0150012  55.0394997 109.6659988  32.7991683  54.2501017 109.9593680
  33.8580012  52.1394997 108.5909988  33.6000012  51.4494997 107.9799988
  33.9290012  51.6964997 109.4369988  33.8322856  51.9852124 108.6216885
  35.5440012  50.7054997 117.0679988  35.6840012  50.1144997 116.3289988
  35.7110012  51.5784997 116.7119988  35.5857411  50.7425428 116.9186894
  37.3860012  47.0454997 115.1339988  36.7330012  47.7404997 115.2239988
  37.8510012  47.2554997 114.3249988  37.3595274  47.1690643 115.0368462
  33.4220012  47.8774997 107.7929988  32.6900012  48.1054997 108.3659988
  33.8700012  47.1634997 108.2469988  33.3822725  47.8122145 107.9328816
  33.3200012  46.0514997 116.8599988  33.4000012  46.8144997 117.4319988
  32.7180012  46.3304997 116.1699988  33.2495756  46.1937134 116.8450589
  25.0680012  48.5074997 109.6749988  24.7370012  48.1374997 108.8569988
  25.6560012  47.8374997 110.0219988  25.1021873  48.3661156 109.6098102
  26.4340012  51.9354997 112.3559988  26.3400012  51.3574997 111.5999988
  27.1640012  51.5644997 112.8529988  26.5197386  51.8061663 112.3195342
  25.4340012  47.2764997 113.3089988  26.0000012  47.3974997 112.5459988
  25.7530012  47.9134997 113.9469988  25.5545474  47.3792219 113.2909862
  31.7430012  52.7794997 114.0429988  31.5030012  53.4414997 114.6909988
  31.5450012  51.9454997 114.4679988  31.6833808  52.7573134 114.1891524
  26.3140012  51.6754997 118.0259988  26.0030012  52.4574997 118.4809988
  25.6640012  51.5224997 117.3399988  26.1835558  51.7619105 117.9955871
  23.2340012  47.8734997 117.2539988  23.3050012  48.5244997 117.9529988
  22.3440012  47.9764997 116.9189988  23.1233005  47.9765427 117.3043495
  30.0200012  53.7764997 108.9129988  30.4940012  54.0714997 109.6899988
  29.4570012  54.5144997 108.6799988  30.0088184  53.9167247 108.9879628
  24.5540012  53.7474997 118.7889988  24.5610012  53.6114997 117.8419988
  23.6380012  53.6294997 119.0409988  24.4311714  53.7129430 118.6934666
  35.9920012  38.7894997 105.2909988  35.0920012  38.9284997 105.5859988
  36.2440012  39.6204997 104.8889988  35.9028702  38.9209074 105.2770205
  24.0580012  47.5774997 107.2639988  23.7660012  48.3454997 106.7739988
  23.3840012  46.9174997 107.1019988  23.9268111  47.5935587 107.1748978
  20.1510012  49.9404997 116.0789988  19.6500012  49.9124997 115.2639988
  20.1560012  49.0344997 116.3889988  20.0830944  49.8142396 116.0093226
  19.9010012  52.7204997 112.9629988  20.8470012  52.5764997 112.9439988
  19.7890012  53.5044997 113.4999988  20.0152727  52.8068046 113.0330072
  38.0990012  53.3864997 118.6459988  38.0500012  52.4314997 118.6089988
  37.2720012  53.6544997 119.0469988  37.9804940  53.2918998 118.6951375
  29.0780012  52.9604997 117.5219988  29.1650012  53.7864997 117.9969988
  28.2140012  52.6304997 117.7709988  28.9731964  53.0289878 117.6206549
  29.4920012  56.7324997 107.3279988  29.4170012  56.6114997 106.3809988
  29.5250012  57.6824997 107.4459988  29.4862068  56.8442646 107.2144967
  23.1450012  55.5214997 109.1089988  23.2980012  55.1734997 109.9869988
  22.2950012  55.1654997 108.8539988  23.0509166  55.4256216 109.1948079
  32.2630012  55.8124997 107.0789988  31.3270012  55.9124997 107.2579988
  32.5430012  55.1034997 107.6579988  32.1729553  55.7303406 107.1817087
  35.2510012  44.8794997 119.1259988  34.8440012  45.3604997 118.4049988
  35.2920012  43.9744997 118.8179988  35.2008437  44.8229374 118.9856683
  22.4000012  51.2634997 117.1229988  22.6160012  50.9024997 117.9819988
  21.5450012  50.8894997 116.9129988  22.3139292  51.1634111 117.2123386
  25.0190012  39.7334997 113.1179988  24.1570012  39.6464997 112.7099988
  24.9960012  40.5894997 113.5459988  24.8980409  39.8372883 113.1200589
  29.6820012  39.4554997 116.4929988  30.1020012  39.0404997 117.2459988
  28.7490012  39.2774997 116.6099988  29.6133644  39.3745900 116.6119539
  33.0080012  43.2114997 117.3459988  32.4940012  43.0854997 118.1439988
  32.8530012  44.1234997 117.1019988  32.9166852  43.3176132 117.4222158
  25.1100012  44.6994997 114.2129988  24.4680012  44.6584997 114.9219988
  25.1470012  45.6254997 113.9749988  25.0270664  44.8191430 114.2779219
  25.1070012  44.9204997 109.1249988  24.2140012  44.5794997 109.0659988
  25.5570012  44.5434997 108.3689988  25.0458130  44.8229631 109.0147702
  30.6420012  45.3364997 107.9419988  30.2330012  46.1514997 107.6509988
  31.3630012  45.1964997 107.3279988  30.6834537  45.4292018 107.8191342
  29.7440012  45.5114997 119.4299988  29.1820012  44.8074997 119.7509988
  30.5710012  45.3914997 119.8979988  29.7787095  45.3987883 119.5372330
  31.6470012  44.7824997 110.7559988  31.4520012  45.3874997 110.0409988
  31.8280012  43.9484997 110.3219988  31.6447614  44.7526300 110.5994405
  22.8600012  45.0194997 116.0799988  22.8220012  45.4194997 116.9489988
  22.3690012  44.2024997 116.1709988  22.7884684  44.9638069 116.2111059
  19.4680012  42.1354997 109.9309988  20.0990012  42.1064997 110.6499988
  19.9170012  41.7104997 109.1999988  19.6150918  42.0740836 109.9306441
  20.7420012  42.8814997 105.3549988  21.2160012  43.4724997 104.7699988
  20.0250012  43.4124997 105.7019988  20.7099341  43.0340867 105.3218836
  30.9110012  46.4204997 115.4269988  31.2340012  45.7894997 114.7839988
  30.4710012  45.8854997 116.0879988  30.8957484  46.2618387 115.4283198
  27.6880012  42.3474997 110.2109988  26.7770012  42.4044997 110.4999988
  28.1940012  42.2874997 111.0219988  27.6316899  42.3471941 110.3601184
  22.5170012  43.9764997 109.0379988  21.6270012  44.0764997 108.6979988
  22.8130012  43.1344997 108.6919988  22.4352823  43.8763545 108.9447213
  26.1700012  43.9764997 106.6949988  27.1010012  44.1054997 106.8729988
  25.9550012  44.6464997 106.0449988  26.2684247  44.0846565 106.6315747
  32.0930012  41.5824997 113.4759988  31.4170012  41.7134997 114.1399988
  31.6080012  41.4274997 112.6649988  31.9347146  41.5795157 113.4574469
  35.3810012  57.2544997 119.7519988  35.5810012  57.6784997 118.9179988
  36.0360012  57.5974997 120.3589988  35.4970072  57.3589857 119.7198592
  22.9790012  49.7284997 119.3599988  23.7110012  49.9824997 119.9219988
  22.1990012  49.9324997 119.8759988  22.9737073  49.7908160 119.5066151
  29.0080012  45.1354997 112.0979988  29.5730012  44.5884997 111.5509988
  28.8610012  44.6134997 112.8869988  29.0653380  44.9902259 112.1298695
  24.0100012  41.2714997 108.5169988  23.6930012  40.3694997 108.4809988
  24.7920012  41.2734997 107.9639988  24.0722408  41.1482474 108.4373569
  27.6350012  43.5234997 114.5119988  26.7990012  43.9774997 114.6229988
  28.1590012  43.7994997 115.2639988  27.5915416  43.6228660 114.6288119
  28.1790012  49.7364997 106.1969988  27.4340012  49.2294997 105.8749988
  28.0450012  49.7854997 107.1439988  28.0588776  49.6736940 106.2808647
  35.3290012  48.8694997 114.9839988  35.9710012  49.3264997 114.4399988
  34.4990012  48.9824997 114.5209988  35.3045963  48.9472704 114.8470177
  32.0770012  42.5504997 104.3959988  31.1380012  42.6624997 104.2449988
  32.3740012  43.4074997 104.7029988  31.9887583  42.6815981 104.4168337
  29.6980012  49.9204997 117.4339988  29.3530012  49.5394997 118.2409988
  29.4980012  50.8544997 117.5049988  29.6237527  49.9945135 117.5540689
  32.7950012  44.4174997 106.0569988  33.6870012  44.2804997 106.3759988
  32.8520012  45.2084997 105.5199988  32.9246504  44.5056052 106.0280818
  23.3040012  49.0314997 111.9669988  24.0490012  49.0294997 111.3659988
  23.3820012  48.2084997 112.4479988  23.4164995  48.9198887 111.9498282
  30.3050012  51.1954997 105.2229988  30.0090012  52.0214997 105.6039988
  29.6020012  50.5754997 105.4189988  30.1694914  51.2248199 105.3016443
  20.3120012  47.4924997 117.2819988  20.5350012  47.0744997 118.1139988
  19.7100012  46.8794997 116.8589988  20.2611759  47.3524668 117.3387022
  27.3280012  47.0094997 119.4949988  27.0320012  46.8434997 118.5999988
  28.2600012  46.7894997 119.4839988  27.4134166  46.9570640 119.3710536
  31.9490012  52.3824997 117.3849988  31.0480012  52.5654997 117.1169988
  31.9830012  52.6414997 118.3049988  31.8303139  52.4425849 117.4728099
  37.6800012  44.6274997 105.7519988  37.1260012  44.2314997 105.0799988
  37.7800012  45.5374997 105.4739988  37.6177059  44.6963586 105.6224401
  37.6430012  50.4274997 118.5889988  36.7920012  50.6654997 118.2219988
  38.2340012  50.4104997 117.8359988  37.6062487  50.4578258 118.4368893
  35.9750012  53.4134997 106.2169988  35.6020012  52.5874997 106.5259988
  36.2530012  53.2304997 105.3189988  35.9615222  53.2757430 106.1379473
  33.1360012  48.2214997 113.2379988  32.2070012  47.9894997 113.2109988
  33.5870012  47.4444997 112.9079988  33.0699216  48.0847238 113.1896917
  25.6790012  52.5494997 109.3709988  26.2060012  53.3224997 109.1709988
  24.7990012  52.7744997 109.0689988  25.6322031  52.6857545 109.3027912
  21.4340012  47.4114997 103.9579988  22.0500012  48.0384997 104.3379988
  20.5720012  47.7274997 104.2299988  21.4017698  47.5399430 104.0467183
  27.1060012  50.2124997 108.9469988  26.8650012  51.1374997 108.9889988
  26.3650012  49.7534997 109.3439988  26.9729225  50.2770933 109.0063742
  27.6210012  54.3614997 115.2629988  27.9830012  55.2164997 115.0289988
  28.1520012  54.0694997 116.0029988  27.7424473  54.4391060 115.3310855
  25.7890012  55.2344997 108.4929988  24.8390012  55.3394997 108.5439988
  26.1410012  56.0544997 108.8369988  25.7064195  55.3598800 108.5465502
  31.1650012  50.4604997 114.9629988  30.7390012  50.2334997 115.7899988
  31.7450012  49.7224997 114.7809988  31.1851868  50.3295299 115.0515830
  33.3680012  51.3894997 104.0369988  33.7210012  51.0094997 104.8409988
  32.4190012  51.2964997 104.1239988  33.2880918  51.3248956 104.1588532
  33.8230012  55.0124997 117.4329988  33.2220012  54.4574997 116.9369988
  34.1050012  55.6794997 116.8059988  33.7788804  55.0266625 117.2804849
  21.9460012  42.2454997 116.8399988  21.0530012  42.5844997 116.7719988
  21.8470012  41.3904997 117.2579988  21.8104164  42.1762588 116.8872235
  34.2340012  50.0624997 106.2639988  33.9560012  49.3344997 106.8199988
  35.1610012  50.1814997 106.4689988  34.3213124  49.9788802 106.3678845
  21.5970012  54.0504997 115.2749988  21.8140012  53.1184997 115.2439988
  21.8430012  54.3244997 116.1579988  21.6599549  53.9600636 115.3901763
  22.8490012  49.3244997 105.4509988  22.1630012  49.6764997 106.0179988
  23.3710012  50.0874997 105.2039988  22.8256852  49.4758578 105.4952118
  30.6800012  41.9864997 115.7299988  31.3790012  42.0604997 116.3799988
  30.2990012  41.1224997 115.8839988  30.7241767  41.8797624 115.8398322
  31.4650012  41.6384997 106.8269988  31.6850012  42.1104997 106.0239988
  32.0230012  42.0334997 107.4969988  31.5704968  41.7564285 106.8077331
  29.1330012  53.7694997 105.6899988  28.3170012  54.2664997 105.7419988
  29.6630012  54.2444997 105.0499988  29.0929161  53.9017722 105.6105956
  28.6650012  43.3664997 107.6619988  29.4770012  43.8714997 107.7079988
  28.4200012  43.2214997 108.5759988  28.7430520  43.4160375 107.7918517
  29.2000012  44.3524997 116.8459988  29.3190012  44.9264997 117.6039988
  29.8560012  43.6644997 116.9609988  29.3049025  44.3379858 116.9651321
  29.5480012  40.4474997 108.5999988  29.2020012  41.0654997 109.2439988
  30.2070012  40.9484997 108.1179988  29.5896968  40.5996278 108.6229383
  26.4720012  54.8134997 105.6709988  26.6320012  55.6124997 105.1709988
  26.2740012  55.1194997 106.5559988  26.4671637  54.9644020 105.7221144
  35.4050012  42.2594997 117.6809988  34.4880012  42.5224997 117.5939988
  35.7400012  42.2564997 116.7849988  35.3248613  42.2950761 117.5478837
  34.0070012  46.0104997 111.7769988  33.2090012  45.5954997 111.4489988
  34.4520012  45.3194997 112.2679988  33.9579885  45.8603543 111.7984889
  21.7810012  44.6024997 103.4639988  21.7360012  45.5414997 103.6419988
  20.8930012  44.3664997 103.1939988  21.6548574  44.6991892 103.4518912
  35.0930012  55.2664997 113.3999988  34.9380012  55.9444997 112.7419988
  36.0260012  55.3384997 113.6029988  35.1978657  55.3689546 113.3374360
  22.5890012  39.3844997 112.1369988  22.3600012  39.4434997 111.2089988
  22.1460012  38.5924997 112.4429988  22.4978530  39.2855753 112.0514786
  21.5190012  53.3244997 108.2969988  20.6870012  53.7974997 108.3239988
  22.0650012  53.8344997 107.6989988  21.4790352  53.4581332 108.2198463
  20.8070012  55.9374997 119.6269988  21.3480012  55.7204997 120.3869988
  20.3260012  55.1314997 119.4369988  20.8159951  55.7989270 119.7052576
  25.4050012  54.8564997 121.2469988  26.1720012  54.3974997 121.5879988
  25.3830012  54.6304997 120.3179988  25.5071275  54.7630186 121.1680101
  31.9820012  53.2364997 119.9769988  31.6310012  52.3804997 120.2199988
  32.7080012  53.3794997 120.5839988  32.0320769  53.1385636 120.0923619
  20.7140012  49.7474997 120.5809988  20.8580012  48.8454997 120.2949988
  19.9420012  50.0334997 120.0939988  20.6292753  49.6626816 120.4759505
  27.3700012  49.7174997 120.0139988  27.0410012  49.9884997 119.1569988
  27.5220012  48.7764997 119.9269988  27.3454809  49.6273862 119.8848244
  30.4080012  51.1384997 102.4499988  30.1390012  51.3184997 103.3509988
  30.2020012  50.2124997 102.3179988  30.3433427  51.0380261 102.5555073
  33.1040012  49.6334997 117.3969988  33.8500012  50.2214997 117.2779988
  32.3470012  50.2154997 117.4609988  33.1037820  49.7927143 117.3893590
  21.5470012  46.9474997 120.0009988  21.9550012  46.0904997 119.8799988
  21.2870012  46.9624997 120.9219988  21.5677568  46.8320807 120.1089588
  26.2050012  48.0634997 105.0199988  25.7450012  47.5794997 105.7059988
  26.4600012  47.3954997 104.3839988  26.1764902  47.9068731 105.0279334
  25.4940012  45.9564997 117.3759988  24.8760012  46.6314997 117.6559988
  25.8380012  46.2774997 116.5419988  25.4559132  46.0922411 117.3016262
  27.2760012  46.3064997 103.2819988  27.0960012  46.1524997 102.3549988
  28.2260012  46.4144997 103.3269988  27.3797776  46.3000175 103.1611843
  30.5140012  48.4284997 120.6529988  31.4670012  48.5114997 120.6259988
  30.3530012  47.7164997 121.2729988  30.6226426  48.3436746 120.7330579
  36.6660012  48.6614997 102.7279988  36.3920012  48.2364997 101.9149988
  36.7050012  49.5924997 102.5109988  36.6337699  48.7292484 102.5873610
  25.8330012  43.3114997 118.4579988  25.9830012  42.5824997 117.8559988
  25.8360012  44.0884997 117.8989988  25.8539302  43.3167851 118.3000692
  26.2460012  41.6814997 115.9509988  26.7820012  42.1324997 115.2989988
  25.3940012  41.5734997 115.5279988  26.2042178  41.7286390 115.8045756
  27.8280012  47.1204997 116.1899988  28.5780012  46.9644997 115.6169988
  27.4890012  47.9724997 115.9149988  27.8848921  47.2142968 116.0743561
  32.2430012  44.9354997 121.2189988  32.4360012  44.0044997 121.1069988
  33.1010012  45.3604997 121.2079988  32.3852934  44.8656531 121.2022031
  33.5600012  47.7244997 119.2959988  33.2790012  48.4334997 118.7179988
  34.5030012  47.6514997 119.1449988  33.6489291  47.8116711 119.1964967
  24.3120012  44.5094997 120.3699988  23.5450012  43.9774997 120.1589988
  24.9910012  44.1994997 119.7699988  24.2987877  44.3948300 120.2600716
  27.0520012  39.1374997 116.3819988  26.9530012  40.0844997 116.2769988
  26.3090012  38.7654997 115.9059988  26.9381184  39.2165863 116.3033621
  28.3160012  43.4594997 119.9459988  28.0800012  43.2394997 120.8469988
  27.5320012  43.2524997 119.4359988  28.1778504  43.4014586 120.0003431
  31.0310012  42.5864997 119.0209988  30.0840012  42.6184997 119.1539988
  31.3440012  41.9614997 119.6749988  30.9436707  42.5063998 119.1276060
  32.6650012  41.2204997 121.0269988  32.5690012  40.2684997 121.0209988
  32.3440012  41.4894997 121.8869988  32.6084070  41.1264035 121.1425441
  22.4920012  42.4304997 120.0739988  22.7040012  41.7234997 119.4639988
  22.3810012  41.9924997 120.9179988  22.5059721  42.2747084 120.1046843
  27.2730012  38.4314997 119.0529988  27.9850012  37.7914997 119.0389988
  27.1720012  38.6984997 118.1399988  27.3568066  38.3800079 118.9275677
  27.6270012  40.1144997 121.1069988  27.4950012  39.6384997 120.2869988
  27.0280012  40.8584997 121.0519988  27.5279071  40.1499618 120.9872886
  20.7420012  51.6334997 103.7659988  21.6560012  51.7124997 104.0399988
  20.7490012  50.9464997 103.0999988  20.8681131  51.5513961 103.7134393
  19.3910012  57.0264997 108.8439988  18.7440012  56.5644997 108.3109988
  19.7450012  56.3544997 109.4259988  19.3503849  56.8724723 108.8497959
  20.2610012  55.1074997 110.6479988  19.9260012  54.2274997 110.8199988
  20.4830012  55.4524997 111.5129988  20.2451783  55.0337500 110.7884208
  37.8090012  55.9164997 113.6289988  37.7880012  56.1014997 114.5679988
  38.5000012  56.4854997 113.2879988  37.8994618  56.0186606 113.7113864
  37.3730012  55.4844997 116.5509988  36.8850012  54.7484997 116.1789988
  37.9220012  55.0904997 117.2289988  37.3804820  55.3305889 116.5917813
  35.8230012  51.2734997 121.1889988  34.9570012  51.1684997 121.5829988
  36.2000012  52.0324997 121.6349988  35.7553308  51.3616900 121.3032393
  37.1240012  49.5304997 106.7029988  37.9740012  49.9514997 106.8299988
  37.1300012  48.7904997 107.3099988  37.2411372  49.4880803 106.8024344
  37.5190012  47.5834997 108.5259988  36.7920012  47.1044997 108.9239988
  38.1000012  47.7894997 109.2589988  37.4980473  47.5458103 108.6794528
  37.2780012  50.3684997 113.4739988  38.1110012  49.9904997 113.1939988
  37.3900012  51.3114997 113.3549988  37.4072647  50.4442218 113.4195487
  35.7640012  53.2464997 115.7809988  35.1170012  53.5714997 116.4069988
  35.2470012  52.8064997 115.1069988  35.6054029  53.2315004 115.7755827
  37.7870012  47.4844997 104.9179988  37.2650012  47.8414997 104.1989988
  37.7540012  48.1594997 105.5959988  37.7111634  47.6245413 104.9113145
  36.1360012  44.7244997 103.4679988  36.2320012  45.3914997 102.7879988
  35.9960012  43.9084997 102.9869988  36.1302272  44.7055655 103.3098347
  35.3050012  46.1044997 109.0889988  35.1550012  45.1594997 109.0689988
  34.9520012  46.3854997 109.9329988  35.2367448  46.0131481 109.2003705
  20.3410012  48.1824997 113.0999988  20.5250012  48.1004997 112.1639988
  21.1900012  48.0584997 113.5229988  20.4810151  48.1545073 113.0291451
  36.1620012  48.0744997 118.7279988  36.7450012  47.3404997 118.9199988
  36.7260012  48.8464997 118.7749988  36.3179769  48.0784227 118.7606159
  37.6580012  45.9774997 119.4129988  36.7950012  45.5984997 119.2469988
  38.2630012  45.2384997 119.3379988  37.6216119  45.8258268 119.3801528
  35.3830012  42.1324997 102.5859988  35.9940012  41.7614997 103.2229988
  34.5470012  41.7114997 102.7819988  35.3535032  42.0247554 102.6997035
  35.0160012  43.6874997 107.5519988  35.2960012  42.7804997 107.6759988
  35.7750012  44.1214997 107.1629988  35.1569277  43.6220942 107.5163682
  35.6280012  44.2684997 112.9879988  36.5610012  44.4804997 112.9529988
  35.3930012  44.3704997 113.9099988  35.7239244  44.3113100 113.1078892
  35.6570012  45.0054997 115.7639988  34.8140012  45.2734997 116.1299988
  36.0990012  45.8274997 115.5529988  35.6014158  45.1533291 115.7855491
  19.9380012  43.4534997 119.2409988  20.8580012  43.3314997 119.4769988
  19.4890012  42.7034997 119.6299988  20.0031580  43.3353727 119.3259006
  37.9400012  38.9854997 121.1169988  38.2900012  38.3314997 120.5119988
  38.0870012  39.8224997 120.6769988  38.0077887  39.0091548 120.9746858
  35.6290012  40.9504997 107.5999988  35.8120012  40.5014997 108.4259988
  35.0300012  40.3654997 107.1369988  35.5730202  40.8099975 107.6503275
  21.1590012  41.7654997 112.1319988  21.6050012  40.9734997 112.4339988
  21.6260012  42.4814997 112.5619988  21.2830831  41.7540685 112.2314006
  19.4630012  44.7644997 113.2009988  19.9550012  44.5434997 112.4099988
  19.8260012  45.6054997 113.4819988  19.5793126  44.8478357 113.1307531
  37.4600012  41.0944997 119.4659988  36.5420012  41.3654997 119.4309988
  37.5830012  40.5594997 118.6819988  37.3509729  41.0592508 119.3551923
  37.4960012  41.0174997 104.1279988  37.9080012  40.2964997 103.6529988
  38.1780012  41.6874997 104.1869988  37.6445885  41.0092368 104.0708915
  19.7770012  41.0224997 107.2549988  18.8520012  41.2314997 107.1259988
  20.2310012  41.5064997 106.5649988  19.7117292  41.1165343 107.1440720
  34.5480012  56.0064997 109.2009988  35.2000012  55.6594997 108.5929988
  35.0580012  56.4954997 109.8469988  34.7062637  56.0250597 109.2050236
  19.7410012  39.7604997 115.5989988  19.0760012  39.5144997 116.2429988
  19.2980012  40.3824997 115.0219988  19.5901318  39.8109410 115.6090898
  21.9330012  52.9354997 119.7439988  21.1120012  53.1104997 119.2829988
  21.6800012  52.8624997 120.6639988  21.7865585  52.9495544 119.8053561
  24.8870012  53.9104997 116.0019988  24.4620012  54.7194997 115.7199988
  25.7910012  53.9954997 115.6999988  24.9509975  54.0329300 115.9224816
  29.1980012  55.3094997 118.9619988  29.3830012  54.9754997 119.8399988
  30.0440012  55.6184997 118.6399988  29.3377539  55.3056047 119.0385605
  31.5430012  56.5954997 118.2059988  32.2200012  55.9624997 117.9659988
  31.8650012  56.9964997 119.0129988  31.6791637  56.5631154 118.2822793
  36.4600012  39.1844997 117.2849988  35.6480012  39.5094997 116.8979988
  36.6930012  38.4244997 116.7519988  36.3802203  39.1262758 117.1598880
  22.2890012  57.1664997 116.0499988  21.5680012  57.6064997 115.5989988
  21.9230012  56.9154997 116.8979988  22.1409651  57.1927242 116.1029640
  24.7560012  56.7664997 115.0799988  23.8910012  56.8384997 115.4839988
  24.7010012  57.3134997 114.2959988  24.6302085  56.8502685 115.0293362
  29.4660012  56.6544997 114.2549988  29.0100012  57.1834997 113.6009988
  29.6290012  57.2574997 114.9799988  29.4256068  56.8084607 114.2634838
  31.7940012  55.5324997 115.1999988  30.8890012  55.6974997 114.9339988
  32.2230012  56.3854997 115.1349988  31.7281324  55.6704339 115.1547976
  34.3980012  57.1024997 115.4949988  34.2160012  58.0184997 115.2849988
  34.5750012  56.6924997 114.6489988  34.3970210  57.1724822 115.3517885
  21.7030012  55.7894997 112.9599988  21.6850012  55.3644997 113.8169988
  22.5080012  55.4714997 112.5509988  21.8093529  55.6883013 113.0220946
  23.8450012  54.4994997 111.6149988  23.6260012  53.5834997 111.7849988
  24.6690012  54.6394997 112.0809988  23.9264420  54.3930520 111.7012774
  26.3820012  54.9694997 112.4639988  26.5950012  54.0814997 112.1769988
  26.4460012  54.9354997 113.4179988  26.4198231  54.8433102 112.5537397
  29.8900012  40.6334997 111.6079988  29.2160012  40.0044997 111.8639988
  30.4540012  40.1494997 111.0049988  29.8739230  40.4818744 111.5615340
  35.0330012  38.7414997 111.7209988  35.6370012  39.2884997 111.2189988
  34.1630012  39.0604997 111.4799988  34.9981208  38.8595137 111.6196886
  36.7600012  39.8794997 110.0539988  37.3720012  39.3654997 109.5269988
  37.1420012  40.7574997 110.0769988  36.8953371  39.9277866 109.9850041
  22.2170012  39.2674997 109.4299988  21.4400012  39.0334997 108.9229988
  22.7470012  38.4704997 109.4389988  22.1822330  39.1276988 109.3617742
  21.0530012  39.0654997 105.2339988  21.4920012  39.6764997 104.6419988
  20.4200012  39.6034997 105.7079988  21.0274514  39.2219257 105.2170930
  26.7960012  39.1944997 109.2439988  27.6710012  39.5824997 109.2139988
  26.6600012  38.9794997 110.1659988  26.8973695  39.2185184 109.3646440
  32.3530012  39.2244997 110.8929988  32.4290012  39.3194997 109.9429988
  32.0780012  38.3164997 111.0219988  32.3262321  39.1147867 110.7805079
  33.7060012  39.2504997 106.5849988  33.0040012  39.8654997 106.3749988
  33.2620012  38.4124997 106.7159988  33.5496450  39.2215639 106.5739000
  20.9540012  55.0134997 106.1309988  20.2690012  54.9754997 105.4639988
  20.9580012  55.9264997 106.4199988  20.8606998  55.1316733 106.0786771
  22.9140012  40.9814997 103.6759988  23.4060012  40.3514997 103.1489988
  23.5380012  41.2774997 104.3389988  23.0655688  40.9353804 103.6935482
  36.5280012  55.7864997 107.2079988  36.3330012  55.0384997 106.6429988
  36.4890012  56.5444997 106.6249988  36.4960380  55.7866099 107.0518384
  22.1750012  39.7814997 118.9479988  21.8090012  39.0164997 119.3899988
  23.0880012  39.8104997 119.2339988  22.2482736  39.6805640 119.0472502
  24.1480012  39.1324997 120.4839988  25.0460012  38.8584997 120.2989988
  23.7610012  38.3894997 120.9479988  24.2186612  38.9945914 120.5213643
  32.5690012  38.4644997 120.6659988  32.6460012  38.0384997 121.5199988
  33.4630012  38.4784997 120.3229988  32.7003428  38.4080879 120.7365310
  35.7450012  54.5374997 119.3579988  34.9630012  54.3514997 118.8379988
  35.6730012  55.4664997 119.5759988  35.6282274  54.6376643 119.3163018
  50.1510012  48.4234997 109.3889988  50.2400012  49.3674997 109.2569988
  49.5130012  48.1484997 108.7309988  50.0769081  48.5154830 109.2819614
  49.0840012  47.6784997 112.8079988  49.0460012  47.0324997 113.5129988
  48.7620012  47.2124997 112.0369988  49.0352333  47.5269408 112.8002978
  41.4530012  47.2934997 114.4009988  41.4940012  46.6674997 115.1239988
  42.1560012  47.9174997 114.5829988  41.5536363  47.2921196 114.5246044
  52.7900012  50.6174997 111.1089988  52.3500012  49.8974997 111.5599988
  52.7770012  51.3384997 111.7389988  52.7280226  50.6163731 111.2558494
  42.3760012  51.7434997 112.9359988  42.0070012  50.9414997 112.5659988
  43.3170012  51.5744997 112.9819988  42.4527289  51.6110153 112.8916316
  38.9860012  45.4034997 108.3289988  38.5390012  46.2494997 108.3099988
  38.4250012  44.8234997 107.8129988  38.8489900  45.4409916 108.2566801
  39.6970012  47.5654997 110.4539988  39.9100012  46.7954997 110.9819988
  40.4350012  47.6544997 109.8509988  39.8259044  47.4721968 110.4447123
  49.9020012  55.7224997 111.3209988  50.5220012  55.0454997 111.0479988
  49.6940012  55.5044997 112.2299988  49.9586726  55.6004800 111.4064812
  47.4740012  50.1114997 113.2139988  47.7780012  49.4254997 112.6189988
  48.1950012  50.2294997 113.8319988  47.6130671  50.0336304 113.2161816
  56.1370012  41.7124997 114.0749988  56.1860012  42.3224997 114.8099988
  56.5620012  42.1734997 113.3519988  56.2011746  41.8583796 114.0779175
  50.6150012  44.5054997 113.5409988  50.7570012  43.5594997 113.5619988
  50.5080012  44.7124997 112.6129988  50.6199919  44.4038246 113.4183408
  43.7690012  42.6064997 110.8139988  43.8130012  43.4664997 110.3949988
  43.3120012  42.0544997 110.1799988  43.7132240  42.6494422 110.6709864
  51.4920012  42.7374997 109.2149988  52.1380012  42.4084997 109.8389988
  52.0020012  43.2554997 108.5919988  51.6494299  42.7624450 109.2162731
  40.3900012  45.0034997 111.5759988  41.0430012  44.4534997 112.0079988
  40.4140012  44.7294997 110.6589988  40.4826683  44.8911466 111.5112123
  45.5460012  46.5534997 110.7909988  46.1620012  46.0274997 111.3009988
  44.9600012  45.9134997 110.3879988  45.5510810  46.3949208 110.8063173
  56.5280012  43.1904997 116.3099988  55.8400012  43.8484997 116.2149988
  56.5440012  42.9934997 117.2469988  56.4359540  43.2539819 116.4235990
  42.5800012  41.5244997 114.8879988  42.3610012  42.0544997 114.1219988
  41.9120012  41.7514997 115.5349988  42.4597600  41.6276906 114.8706379
  49.9490012  51.0244997 108.4319988  49.6530012  50.7024997 107.5809988
  49.6240012  51.9244997 108.4729988  49.8646371  51.1020215 108.3211801
  45.1490012  49.2004997 115.1749988  44.4090012  49.7984997 115.2789988
  45.8630012  49.7544997 114.8599988  45.1442237  49.3572831 115.1466465
  53.2560012  42.0284997 111.1949988  53.0400012  41.2624997 111.7279988
  53.9110012  42.5004997 111.7079988  53.3150632  41.9875889 111.3372861
  42.1730012  43.4164997 112.8399988  42.7870012  44.0494997 113.2129988
  42.6850012  42.9444997 112.1839988  42.3261981  43.4392267 112.8022908
  43.5560012  51.1644997 115.9619988  43.5510012  52.0444997 115.5839988
  42.7030012  51.0814997 116.3869988  43.4399464  51.2736117 115.9677907
  39.6770012  50.8354997 106.7439988  39.4050012  51.0644997 105.8559988
  39.7230012  51.6734997 107.2049988  39.6459482  50.9801318 106.6846273
  53.3020012  52.4574997 113.4569988  52.3610012  52.5154997 113.6189988
  53.5790012  53.3634997 113.3199988  53.2104679  52.5879443 113.4606815
  53.6030012  40.7434997 114.8749988  52.8670012  41.3544997 114.8369988
  54.2860012  41.1584997 114.3479988  53.5946541  40.8831374 114.7985832
  46.6060012  38.8304997 112.3399988  46.4890012  37.8814997 112.2859988
  45.7510012  39.1624997 112.6139988  46.4744212  38.7455571 112.3696497
  51.5540012  54.2384997 110.0819988  51.9800012  53.5314997 109.5969988
  51.8710012  55.0394997 109.6659988  51.6551683  54.2501017 109.9593680
  52.7140012  52.1394997 108.5909988  52.4560012  51.4494997 107.9799988
  52.7850012  51.6964997 109.4369988  52.6882856  51.9852124 108.6216885
  54.4000012  50.7054997 117.0679988  54.5400012  50.1144997 116.3289988
  54.5670012  51.5784997 116.7119988  54.4417411  50.7425428 116.9186894
  48.8730012  47.6674997 106.8409988  48.1610012  48.2024997 106.4889988
  49.5640012  47.7234997 106.1809988  48.8690132  47.7482543 106.7036289
  56.2420012  47.0454997 115.1339988  55.5890012  47.7404997 115.2239988
  56.7070012  47.2554997 114.3249988  56.2155274  47.1690643 115.0368462
  52.2780012  47.8774997 107.7929988  51.5460012  48.1054997 108.3659988
  52.7260012  47.1634997 108.2469988  52.2382725  47.8122145 107.9328816
  52.1760012  46.0514997 116.8599988  52.2560012  46.8144997 117.4319988
  51.5740012  46.3304997 116.1699988  52.1055756  46.1937134 116.8450589
  43.9240012  48.5074997 109.6749988  43.5930012  48.1374997 108.8569988
  44.5120012  47.8374997 110.0219988  43.9581873  48.3661156 109.6098102
  45.2900012  51.9354997 112.3559988  45.1960012  51.3574997 111.5999988
  46.0200012  51.5644997 112.8529988  45.3757387  51.8061663 112.3195342
  44.2900012  47.2764997 113.3089988  44.8560012  47.3974997 112.5459988
  44.6090012  47.9134997 113.9469988  44.4105474  47.3792219 113.2909862
  50.5990012  52.7794997 114.0429988  50.3590012  53.4414997 114.6909988
  50.4010012  51.9454997 114.4679988  50.5393808  52.7573134 114.1891524
  45.1700012  51.6754997 118.0259988  44.8590012  52.4574997 118.4809988
  44.5200012  51.5224997 117.3399988  45.0395558  51.7619105 117.9955871
  51.1490012  47.0394997 105.4779988  51.7290012  47.1894997 106.2249988
  51.5630012  47.5104997 104.7539988  51.2842997  47.1236578 105.4824058
  42.0900012  47.8734997 117.2539988  42.1610012  48.5244997 117.9529988
  41.2000012  47.9764997 116.9189988  41.9793005  47.9765427 117.3043495
  48.8760012  53.7764997 108.9129988  49.3500012  54.0714997 109.6899988
  48.3130012  54.5144997 108.6799988  48.8648184  53.9167247 108.9879628
  43.4100012  53.7474997 118.7889988  43.4170012  53.6114997 117.8419988
  42.4940012  53.6294997 119.0409988  43.2871714  53.7129430 118.6934666
  42.9140012  47.5774997 107.2639988  42.6220012  48.3454997 106.7739988
  42.2400012  46.9174997 107.1019988  42.7828111  47.5935587 107.1748978
  39.0070012  49.9404997 116.0789988  38.5060012  49.9124997 115.2639988
  39.0120012  49.0344997 116.3889988  38.9390944  49.8142396 116.0093226
  38.7570012  52.7204997 112.9629988  39.7030012  52.5764997 112.9439988
  38.6450012  53.5044997 113.4999988  38.8712727  52.8068046 113.0330072
  56.9550012  53.3864997 118.6459988  56.9060012  52.4314997 118.6089988
  56.1280012  53.6544997 119.0469988  56.8364940  53.2918998 118.6951375
  47.9340012  52.9604997 117.5219988  48.0210012  53.7864997 117.9969988
  47.0700012  52.6304997 117.7709988  47.8291964  53.0289878 117.6206549
  48.3480012  56.7324997 107.3279988  48.2730012  56.6114997 106.3809988
  48.3810012  57.6824997 107.4459988  48.3422068  56.8442646 107.2144967
  42.0010012  55.5214997 109.1089988  42.1540012  55.1734997 109.9869988
  41.1510012  55.1654997 108.8539988  41.9069166  55.4256216 109.1948079
  51.1190012  55.8124997 107.0789988  50.1830012  55.9124997 107.2579988
  51.3990012  55.1034997 107.6579988  51.0289553  55.7303406 107.1817087
  54.1070012  44.8794997 119.1259988  53.7000012  45.3604997 118.4049988
  54.1480012  43.9744997 118.8179988  54.0568437  44.8229374 118.9856683
  41.2560012  51.2634997 117.1229988  41.4720012  50.9024997 117.9819988
  40.4010012  50.8894997 116.9129988  41.1699292  51.1634111 117.2123386
  43.8750012  39.7334997 113.1179988  43.0130012  39.6464997 112.7099988
  43.8520012  40.5894997 113.5459988  43.7540409  39.8372883 113.1200589
  48.5380012  39.4554997 116.4929988  48.9580012  39.0404997 117.2459988
  47.6050012  39.2774997 116.6099988  48.4693644  39.3745900 116.6119539
  51.8640012  43.2114997 117.3459988  51.3500012  43.0854997 118.1439988
  51.7090012  44.1234997 117.1019988  51.7726852  43.3176132 117.4222158
  52.6270012  48.0724997 103.1079988  52.6690012  47.8494997 102.1779988
  53.4760012  48.4714997 103.2969988  52.7475280  48.0959438 103.0063554
  43.9660012  44.6994997 114.2129988  43.3240012  44.6584997 114.9219988
  44.0030012  45.6254997 113.9749988  43.8830664  44.8191430 114.2779219
  43.9630012  44.9204997 109.1249988  43.0700012  44.5794997 109.0659988
  44.4130012  44.5434997 108.3689988  43.9018130  44.8229631 109.0147702
  49.4980012  45.3364997 107.9419988  49.0890012  46.1514997 107.6509988
  50.2190012  45.1964997 107.3279988  49.5394537  45.4292018 107.8191342
  48.6000012  45.5114997 119.4299988  48.0380012  44.8074997 119.7509988
  49.4270012  45.3914997 119.8979988  48.6347095  45.3987883 119.5372330
  50.5030012  44.7824997 110.7559988  50.3080012  45.3874997 110.0409988
  50.6840012  43.9484997 110.3219988  50.5007614  44.7526300 110.5994405
  41.7160012  45.0194997 116.0799988  41.6780012  45.4194997 116.9489988
  41.2250012  44.2024997 116.1709988  41.6444684  44.9638069 116.2111059
  45.0820012  42.3934997 102.8789988  44.6510012  41.9484997 103.6089988
  44.3640012  42.7654997 102.3669988  44.9259438  42.3828940 102.9096799
  38.3240012  42.1354997 109.9309988  38.9550012  42.1064997 110.6499988
  38.7730012  41.7104997 109.1999988  38.4710918  42.0740836 109.9306441
  39.5980012  42.8814997 105.3549988  40.0720012  43.4724997 104.7699988
  38.8810012  43.4124997 105.7019988  39.5659341  43.0340867 105.3218836
  49.7670012  46.4204997 115.4269988  50.0900012  45.7894997 114.7839988
  49.3270012  45.8854997 116.0879988  49.7517484  46.2618387 115.4283198
  46.5440012  42.3474997 110.2109988  45.6330012  42.4044997 110.4999988
  47.0500012  42.2874997 111.0219988  46.4876899  42.3471941 110.3601184
  41.3730012  43.9764997 109.0379988  40.4830012  44.0764997 108.6979988
  41.6690012  43.1344997 108.6919988  41.2912823  43.8763545 108.9447213
  45.0260012  43.9764997 106.6949988  45.9570012  44.1054997 106.8729988
  44.8110012  44.6464997 106.0449988  45.1244247  44.0846565 106.6315747
  50.9490012  41.5824997 113.4759988  50.2730012  41.7134997 114.1399988
  50.4640012  41.4274997 112.6649988  50.7907146  41.5795157 113.4574469
  54.2370012  57.2544997 119.7519988  54.4370012  57.6784997 118.9179988
  54.8920012  57.5974997 120.3589988  54.3530072  57.3589857 119.7198592
  41.8350012  49.7284997 119.3599988  42.5670012  49.9824997 119.9219988
  41.0550012  49.9324997 119.8759988  41.8297073  49.7908160 119.5066151
  47.8640012  45.1354997 112.0979988  48.4290012  44.5884997 111.5509988
  47.7170012  44.6134997 112.8869988  47.9213380  44.9902259 112.1298695
  42.8660012  41.2714997 108.5169988  42.5490012  40.3694997 108.4809988
  43.6480012  41.2734997 107.9639988  42.9282408  41.1482474 108.4373569
  46.4910012  43.5234997 114.5119988  45.6550012  43.9774997 114.6229988
  47.0150012  43.7994997 115.2639988  46.4475416  43.6228660 114.6288119
  47.0350012  49.7364997 106.1969988  46.2900012  49.2294997 105.8749988
  46.9010012  49.7854997 107.1439988  46.9148776  49.6736940 106.2808647
  54.1850012  48.8694997 114.9839988  54.8270012  49.3264997 114.4399988
  53.3550012  48.9824997 114.5209988  54.1605963  48.9472704 114.8470177
  48.5540012  49.9204997 117.4339988  48.2090012  49.5394997 118.2409988
  48.3540012  50.8544997 117.5049988  48.4797527  49.9945135 117.5540689
  51.6510012  44.4174997 106.0569988  52.5430012  44.2804997 106.3759988
  51.7080012  45.2084997 105.5199988  51.7806504  44.5056052 106.0280818
  42.1600012  49.0314997 111.9669988  42.9050012  49.0294997 111.3659988
  42.2380012  48.2084997 112.4479988  42.2724995  48.9198887 111.9498282
  49.1610012  51.1954997 105.2229988  48.8650012  52.0214997 105.6039988
  48.4580012  50.5754997 105.4189988  49.0254914  51.2248199 105.3016443
  39.1680012  47.4924997 117.2819988  39.3910012  47.0744997 118.1139988
  38.5660012  46.8794997 116.8589988  39.1171759  47.3524668 117.3387022
  46.1840012  47.0094997 119.4949988  45.8880012  46.8434997 118.5999988
  47.1160012  46.7894997 119.4839988  46.2694166  46.9570640 119.3710536
  50.8050012  52.3824997 117.3849988  49.9040012  52.5654997 117.1169988
  50.8390012  52.6414997 118.3049988  50.6863139  52.4425849 117.4728099
  56.5360012  44.6274997 105.7519988  55.9820012  44.2314997 105.0799988
  56.6360012  45.5374997 105.4739988  56.4737059  44.6963586 105.6224401
  56.4990012  50.4274997 118.5889988  55.6480012  50.6654997 118.2219988
  57.0900012  50.4104997 117.8359988  56.4622487  50.4578258 118.4368893
  51.9920012  48.2214997 113.2379988  51.0630012  47.9894997 113.2109988
  52.4430012  47.4444997 112.9079988  51.9259216  48.0847238 113.1896917
  44.5350012  52.5494997 109.3709988  45.0620012  53.3224997 109.1709988
  43.6550012  52.7744997 109.0689988  44.4882031  52.6857545 109.3027912
  45.9620012  50.2124997 108.9469988  45.7210012  51.1374997 108.9889988
  45.2210012  49.7534997 109.3439988  45.8289225  50.2770933 109.0063742
  46.4770012  54.3614997 115.2629988  46.8390012  55.2164997 115.0289988
  47.0080012  54.0694997 116.0029988  46.5984473  54.4391060 115.3310855
  44.6450012  55.2344997 108.4929988  43.6950012  55.3394997 108.5439988
  44.9970012  56.0544997 108.8369988  44.5624195  55.3598800 108.5465502
  50.0210012  50.4604997 114.9629988  49.5950012  50.2334997 115.7899988
  50.6010012  49.7224997 114.7809988  50.0411868  50.3295299 115.0515830
  52.6790012  55.0124997 117.4329988  52.0780012  54.4574997 116.9369988
  52.9610012  55.6794997 116.8059988  52.6348804  55.0266625 117.2804849
  56.7270012  55.8694997 104.2379988  57.4710012  56.4554997 104.0979988
  56.0330012  56.4374997 104.5709988  56.7349899  56.0265798 104.2638778
  40.8020012  42.2454997 116.8399988  39.9090012  42.5844997 116.7719988
  40.7030012  41.3904997 117.2579988  40.6664164  42.1762588 116.8872235
  53.0900012  50.0624997 106.2639988  52.8120012  49.3344997 106.8199988
  54.0170012  50.1814997 106.4689988  53.1773124  49.9788802 106.3678845
  40.4530012  54.0504997 115.2749988  40.6700012  53.1184997 115.2439988
  40.6990012  54.3244997 116.1579988  40.5159549  53.9600636 115.3901763
  46.3150012  52.5014997 102.4839988  46.5540012  51.7534997 101.9369988
  46.0460012  52.1134997 103.3169988  46.3113675  52.3466638 102.5216865
  45.2520012  52.0714997 104.9399988  45.3980012  51.5514997 105.7299988
  45.2490012  52.9784997 105.2469988  45.2715792  52.1228842 105.0896117
  41.7050012  49.3244997 105.4509988  41.0190012  49.6764997 106.0179988
  42.2270012  50.0874997 105.2039988  41.6816852  49.4758578 105.4952118
  49.5360012  41.9864997 115.7299988  50.2350012  42.0604997 116.3799988
  49.1550012  41.1224997 115.8839988  49.5801767  41.8797624 115.8398322
  50.3210012  41.6384997 106.8269988  50.5410012  42.1104997 106.0239988
  50.8790012  42.0334997 107.4969988  50.4264968  41.7564285 106.8077331
  47.9890012  53.7694997 105.6899988  47.1730012  54.2664997 105.7419988
  48.5190012  54.2444997 105.0499988  47.9489161  53.9017722 105.6105956
  47.5210012  43.3664997 107.6619988  48.3330012  43.8714997 107.7079988
  47.2760012  43.2214997 108.5759988  47.5990520  43.4160375 107.7918517
  48.0560012  44.3524997 116.8459988  48.1750012  44.9264997 117.6039988
  48.7120012  43.6644997 116.9609988  48.1609025  44.3379858 116.9651321
  48.4040012  40.4474997 108.5999988  48.0580012  41.0654997 109.2439988
  49.0630012  40.9484997 108.1179988  48.4456968  40.5996278 108.6229383
  45.3280012  54.8134997 105.6709988  45.4880012  55.6124997 105.1709988
  45.1300012  55.1194997 106.5559988  45.3231637  54.9644020 105.7221144
  44.0620012  41.5104997 105.2869988  43.9790012  42.3994997 105.6339988
  44.9520012  41.2454997 105.5189988  44.1709469  41.5961430 105.3657626
  54.2610012  42.2594997 117.6809988  53.3440012  42.5224997 117.5939988
  54.5960012  42.2564997 116.7849988  54.1808613  42.2950761 117.5478837
  52.8630012  46.0104997 111.7769988  52.0650012  45.5954997 111.4489988
  53.3080012  45.3194997 112.2679988  52.8139885  45.8603543 111.7984889
  53.9490012  55.2664997 113.3999988  53.7940012  55.9444997 112.7419988
  54.8820012  55.3384997 113.6029988  54.0538657  55.3689546 113.3374360
  41.4450012  39.3844997 112.1369988  41.2160012  39.4434997 111.2089988
  41.0020012  38.5924997 112.4429988  41.3538530  39.2855753 112.0514786
  40.3750012  53.3244997 108.2969988  39.5430012  53.7974997 108.3239988
  40.9210012  53.8344997 107.6989988  40.3350352  53.4581332 108.2198463
  39.6630012  55.9374997 119.6269988  40.2040012  55.7204997 120.3869988
  39.1820012  55.1314997 119.4369988  39.6719951  55.7989270 119.7052576
  44.2610012  54.8564997 121.2469988  45.0280012  54.3974997 121.5879988
  44.2390012  54.6304997 120.3179988  44.3631275  54.7630186 121.1680101
  48.3530012  54.3644997 102.6229988  47.7090012  53.7334997 102.9439988
  49.1150012  53.8334997 102.3909988  48.3678077  54.2062920 102.6356011
  50.8380012  53.2364997 119.9769988  50.4870012  52.3804997 120.2199988
  51.5640012  53.3794997 120.5839988  50.8880769  53.1385636 120.0923619
  39.5700012  49.7474997 120.5809988  39.7140012  48.8454997 120.2949988
  38.7980012  50.0334997 120.0939988  39.4852753  49.6626816 120.4759505
  43.9120012  50.0914997 102.7139988  43.9760012  49.2974997 103.2449988
  44.5650012  49.9724997 102.0239988  44.0090241  49.9667148 102.6934317
  46.2260012  49.7174997 120.0139988  45.8970012  49.9884997 119.1569988
  46.3780012  48.7764997 119.9269988  46.2014809  49.6273862 119.8848244
  51.9600012  49.6334997 117.3969988  52.7060012  50.2214997 117.2779988
  51.2030012  50.2154997 117.4609988  51.9597820  49.7927143 117.3893590
  40.4030012  46.9474997 120.0009988  40.8110012  46.0904997 119.8799988
  40.1430012  46.9624997 120.9219988  40.4237568  46.8320807 120.1089588
  45.0610012  48.0634997 105.0199988  44.6010012  47.5794997 105.7059988
  45.3160012  47.3954997 104.3839988  45.0324902  47.9068731 105.0279334
  44.3500012  45.9564997 117.3759988  43.7320012  46.6314997 117.6559988
  44.6940012  46.2774997 116.5419988  44.3119132  46.0922411 117.3016262
  49.3700012  48.4284997 120.6529988  50.3230012  48.5114997 120.6259988
  49.2090012  47.7164997 121.2729988  49.4786426  48.3436746 120.7330579
  44.6890012  43.3114997 118.4579988  44.8390012  42.5824997 117.8559988
  44.6920012  44.0884997 117.8989988  44.7099302  43.3167851 118.3000692
  45.1020012  41.6814997 115.9509988  45.6380012  42.1324997 115.2989988
  44.2500012  41.5734997 115.5279988  45.0602178  41.7286390 115.8045756
  46.6840012  47.1204997 116.1899988  47.4340012  46.9644997 115.6169988
  46.3450012  47.9724997 115.9149988  46.7408921  47.2142968 116.0743561
  51.0990012  44.9354997 121.2189988  51.2920012  44.0044997 121.1069988
  51.9570012  45.3604997 121.2079988  51.2412934  44.8656531 121.2022031
  52.4160012  47.7244997 119.2959988  52.1350012  48.4334997 118.7179988
  53.3590012  47.6514997 119.1449988  52.5049291  47.8116711 119.1964967
  43.1680012  44.5094997 120.3699988  42.4010012  43.9774997 120.1589988
  43.8470012  44.1994997 119.7699988  43.1547877  44.3948300 120.2600716
  45.9080012  39.1374997 116.3819988  45.8090012  40.0844997 116.2769988
  45.1650012  38.7654997 115.9059988  45.7941184  39.2165863 116.3033621
  47.1720012  43.4594997 119.9459988  46.9360012  43.2394997 120.8469988
  46.3880012  43.2524997 119.4359988  47.0338504  43.4014586 120.0003431
  49.8870012  42.5864997 119.0209988  48.9400012  42.6184997 119.1539988
  50.2000012  41.9614997 119.6749988  49.7996707  42.5063998 119.1276060
  51.5210012  41.2204997 121.0269988  51.4250012  40.2684997 121.0209988
  51.2000012  41.4894997 121.8869988  51.4644070  41.1264035 121.1425441
  41.3480012  42.4304997 120.0739988  41.5600012  41.7234997 119.4639988
  41.2370012  41.9924997 120.9179988  41.3619721  42.2747084 120.1046843
  46.1290012  38.4314997 119.0529988  46.8410012  37.7914997 119.0389988
  46.0280012  38.6984997 118.1399988  46.2128066  38.3800079 118.9275677
  46.4830012  40.1144997 121.1069988  46.3510012  39.6384997 120.2869988
  45.8840012  40.8584997 121.0519988  46.3839071  40.1499618 120.9872886
  38.2470012  57.0264997 108.8439988  37.6000012  56.5644997 108.3109988
  38.6010012  56.3544997 109.4259988  38.2063849  56.8724723 108.8497959
  39.1170012  55.1074997 110.6479988  38.7820012  54.2274997 110.8199988
  39.3390012  55.4524997 111.5129988  39.1011783  55.0337500 110.7884208
  56.6650012  55.9164997 113.6289988  56.6440012  56.1014997 114.5679988
  57.3560012  56.4854997 113.2879988  56.7554618  56.0186606 113.7113864
  56.2290012  55.4844997 116.5509988  55.7410012  54.7484997 116.1789988
  56.7780012  55.0904997 117.2289988  56.2364820  55.3305889 116.5917813
  54.6790012  51.2734997 121.1889988  53.8130012  51.1684997 121.5829988
  55.0560012  52.0324997 121.6349988  54.6113308  51.3616900 121.3032393
  55.9800012  49.5304997 106.7029988  56.8300012  49.9514997 106.8299988
  55.9860012  48.7904997 107.3099988  56.0971372  49.4880803 106.8024344
  56.3750012  47.5834997 108.5259988  55.6480012  47.1044997 108.9239988
  56.9560012  47.7894997 109.2589988  56.3540473  47.5458103 108.6794528
  56.1340012  50.3684997 113.4739988  56.9670012  49.9904997 113.1939988
  56.2460012  51.3114997 113.3549988  56.2632647  50.4442218 113.4195487
  54.6200012  53.2464997 115.7809988  53.9730012  53.5714997 116.4069988
  54.1030012  52.8064997 115.1069988  54.4614029  53.2315004 115.7755827
  54.1610012  46.1044997 109.0889988  54.0110012  45.1594997 109.0689988
  53.8080012  46.3854997 109.9329988  54.0927448  46.0131481 109.2003705
  39.1970012  48.1824997 113.0999988  39.3810012  48.1004997 112.1639988
  40.0460012  48.0584997 113.5229988  39.3370151  48.1545073 113.0291451
  55.0180012  48.0744997 118.7279988  55.6010012  47.3404997 118.9199988
  55.5820012  48.8464997 118.7749988  55.1739769  48.0784227 118.7606159
  56.5140012  45.9774997 119.4129988  55.6510012  45.5984997 119.2469988
  57.1190012  45.2384997 119.3379988  56.4776119  45.8258268 119.3801528
  53.8720012  43.6874997 107.5519988  54.1520012  42.7804997 107.6759988
  54.6310012  44.1214997 107.1629988  54.0129277  43.6220942 107.5163682
  54.4840012  44.2684997 112.9879988  55.4170012  44.4804997 112.9529988
  54.2490012  44.3704997 113.9099988  54.5799244  44.3113100 113.1078892
  54.5130012  45.0054997 115.7639988  53.6700012  45.2734997 116.1299988
  54.9550012  45.8274997 115.5529988  54.4574158  45.1533291 115.7855491
  38.7940012  43.4534997 119.2409988  39.7140012  43.3314997 119.4769988
  38.3450012  42.7034997 119.6299988  38.8591580  43.3353727 119.3259006
  56.7960012  38.9854997 121.1169988  57.1460012  38.3314997 120.5119988
  56.9430012  39.8224997 120.6769988  56.8637887  39.0091548 120.9746858
  54.4850012  40.9504997 107.5999988  54.6680012  40.5014997 108.4259988
  53.8860012  40.3654997 107.1369988  54.4290202  40.8099975 107.6503275
  40.0150012  41.7654997 112.1319988  40.4610012  40.9734997 112.4339988
  40.4820012  42.4814997 112.5619988  40.1390831  41.7540685 112.2314006
  38.3190012  44.7644997 113.2009988  38.8110012  44.5434997 112.4099988
  38.6820012  45.6054997 113.4819988  38.4353126  44.8478357 113.1307531
  56.3160012  41.0944997 119.4659988  55.3980012  41.3654997 119.4309988
  56.4390012  40.5594997 118.6819988  56.2069729  41.0592508 119.3551923
  56.3520012  41.0174997 104.1279988  56.7640012  40.2964997 103.6529988
  57.0340012  41.6874997 104.1869988  56.5005885  41.0092368 104.0708915
  38.6330012  41.0224997 107.2549988  37.7080012  41.2314997 107.1259988
  39.0870012  41.5064997 106.5649988  38.5677292  41.1165343 107.1440720
  53.4040012  56.0064997 109.2009988  54.0560012  55.6594997 108.5929988
  53.9140012  56.4954997 109.8469988  53.5622637  56.0250597 109.2050236
  38.5970012  39.7604997 115.5989988  37.9320012  39.5144997 116.2429988
  38.1540012  40.3824997 115.0219988  38.4461318  39.8109410 115.6090898
  40.7890012  52.9354997 119.7439988  39.9680012  53.1104997 119.2829988
  40.5360012  52.8624997 120.6639988  40.6425585  52.9495544 119.8053561
  43.7430012  53.9104997 116.0019988  43.3180012  54.7194997 115.7199988
  44.6470012  53.9954997 115.6999988  43.8069975  54.0329300 115.9224816
  48.0540012  55.3094997 118.9619988  48.2390012  54.9754997 119.8399988
  48.9000012  55.6184997 118.6399988  48.1937539  55.3056047 119.0385605
  50.3990012  56.5954997 118.2059988  51.0760012  55.9624997 117.9659988
  50.7210012  56.9964997 119.0129988  50.5351637  56.5631154 118.2822793
  55.3160012  39.1844997 117.2849988  54.5040012  39.5094997 116.8979988
  55.5490012  38.4244997 116.7519988  55.2362203  39.1262758 117.1598880
  41.1450012  57.1664997 116.0499988  40.4240012  57.6064997 115.5989988
  40.7790012  56.9154997 116.8979988  40.9969651  57.1927242 116.1029640
  43.6120012  56.7664997 115.0799988  42.7470012  56.8384997 115.4839988
  43.5570012  57.3134997 114.2959988  43.4862085  56.8502685 115.0293362
  48.3220012  56.6544997 114.2549988  47.8660012  57.1834997 113.6009988
  48.4850012  57.2574997 114.9799988  48.2816068  56.8084607 114.2634838
  50.6500012  55.5324997 115.1999988  49.7450012  55.6974997 114.9339988
  51.0790012  56.3854997 115.1349988  50.5841324  55.6704339 115.1547976
  53.2540012  57.1024997 115.4949988  53.0720012  58.0184997 115.2849988
  53.4310012  56.6924997 114.6489988  53.2530210  57.1724822 115.3517885
  40.5590012  55.7894997 112.9599988  40.5410012  55.3644997 113.8169988
  41.3640012  55.4714997 112.5509988  40.6653529  55.6883013 113.0220946
  42.7010012  54.4994997 111.6149988  42.4820012  53.5834997 111.7849988
  43.5250012  54.6394997 112.0809988  42.7824420  54.3930520 111.7012774
  45.2380012  54.9694997 112.4639988  45.4510012  54.0814997 112.1769988
  45.3020012  54.9354997 113.4179988  45.2758232  54.8433102 112.5537397
  48.7460012  40.6334997 111.6079988  48.0720012  40.0044997 111.8639988
  49.3100012  40.1494997 111.0049988  48.7299230  40.4818744 111.5615340
  53.8890012  38.7414997 111.7209988  54.4930012  39.2884997 111.2189988
  53.0190012  39.0604997 111.4799988  53.8541208  38.8595137 111.6196886
  55.6160012  39.8794997 110.0539988  56.2280012  39.3654997 109.5269988
  55.9980012  40.7574997 110.0769988  55.7513371  39.9277866 109.9850041
  41.0730012  39.2674997 109.4299988  40.2960012  39.0334997 108.9229988
  41.6030012  38.4704997 109.4389988  41.0382330  39.1276988 109.3617742
  39.9090012  39.0654997 105.2339988  40.3480012  39.6764997 104.6419988
  39.2760012  39.6034997 105.7079988  39.8834514  39.2219257 105.2170930
  45.6520012  39.1944997 109.2439988  46.5270012  39.5824997 109.2139988
  45.5160012  38.9794997 110.1659988  45.7533695  39.2185184 109.3646440
  51.2090012  39.2244997 110.8929988  51.2850012  39.3194997 109.9429988
  50.9340012  38.3164997 111.0219988  51.1822321  39.1147867 110.7805079
  52.5620012  39.2504997 106.5849988  51.8600012  39.8654997 106.3749988
  52.1180012  38.4124997 106.7159988  52.4056450  39.2215639 106.5739000
  46.7960012  41.2744997 106.1329988  46.9740012  40.6284997 106.8159988
  46.7430012  42.1084997 106.5999988  46.8131999  41.2988009 106.2895917
  48.6750012  56.2234997 104.5289988  49.5410012  56.5894997 104.3509988
  48.4280012  55.7834997 103.7149988  48.7602392  56.2141756 104.3946289
  55.3840012  55.7864997 107.2079988  55.1890012  55.0384997 106.6429988
  55.3450012  56.5444997 106.6249988  55.3520380  55.7866099 107.0518384
  41.0310012  39.7814997 118.9479988  40.6650012  39.0164997 119.3899988
  41.9440012  39.8104997 119.2339988  41.1042736  39.6805640 119.0472502
  43.0040012  39.1324997 120.4839988  43.9020012  38.8584997 120.2989988
  42.6170012  38.3894997 120.9479988  43.0746612  38.9945914 120.5213643
  51.4250012  38.4644997 120.6659988  51.5020012  38.0384997 121.5199988
  52.3190012  38.4784997 120.3229988  51.5563428  38.4080879 120.7365310
  54.6010012  54.5374997 119.3579988  53.8190012  54.3514997 118.8379988
  54.5290012  55.4664997 119.5759988  54.4842274  54.6376643 119.3163018
  69.0070012  48.4234997 109.3889988  69.0960012  49.3674997 109.2569988
  68.3690012  48.1484997 108.7309988  68.9329081  48.5154830 109.2819614
  67.9400012  47.6784997 112.8079988  67.9020012  47.0324997 113.5129988
  67.6180012  47.2124997 112.0369988  67.8912333  47.5269408 112.8002978
  60.3090012  47.2934997 114.4009988  60.3500012  46.6674997 115.1239988
  61.0120012  47.9174997 114.5829988  60.4096363  47.2921196 114.5246044
  71.6460012  50.6174997 111.1089988  71.2060012  49.8974997 111.5599988
  71.6330012  51.3384997 111.7389988  71.5840226  50.6163731 111.2558494
  61.2320012  51.7434997 112.9359988  60.8630012  50.9414997 112.5659988
  62.1730012  51.5744997 112.9819988  61.3087289  51.6110153 112.8916316
  57.8420012  45.4034997 108.3289988  57.3950012  46.2494997 108.3099988
  57.2810012  44.8234997 107.8129988  57.7049900  45.4409916 108.2566801
  58.5530012  47.5654997 110.4539988  58.7660012  46.7954997 110.9819988
  59.2910012  47.6544997 109.8509988  58.6819044  47.4721968 110.4447123
  66.3300012  50.1114997 113.2139988  66.6340012  49.4254997 112.6189988
  67.0510012  50.2294997 113.8319988  66.4690671  50.0336304 113.2161816
  74.9930012  41.7124997 114.0749988  75.0420012  42.3224997 114.8099988
  75.4180012  42.1734997 113.3519988  75.0571746  41.8583796 114.0779175
  69.4710012  44.5054997 113.5409988  69.6130012  43.5594997 113.5619988
  69.3640012  44.7124997 112.6129988  69.4759919  44.4038246 113.4183408
  62.6250012  42.6064997 110.8139988  62.6690012  43.4664997 110.3949988
  62.1680012  42.0544997 110.1799988  62.5692240  42.6494422 110.6709864
  70.3480012  42.7374997 109.2149988  70.9940012  42.4084997 109.8389988
  70.8580012  43.2554997 108.5919988  70.5054299  42.7624450 109.2162731
  59.2460012  45.0034997 111.5759988  59.8990012  44.4534997 112.0079988
  59.2700012  44.7294997 110.6589988  59.3386683  44.8911466 111.5112123
  64.4020012  46.5534997 110.7909988  65.0180012  46.0274997 111.3009988
  63.8160012  45.9134997 110.3879988  64.4070810  46.3949208 110.8063173
  75.3840012  43.1904997 116.3099988  74.6960012  43.8484997 116.2149988
  75.4000012  42.9934997 117.2469988  75.2919540  43.2539819 116.4235990
  61.4360012  41.5244997 114.8879988  61.2170012  42.0544997 114.1219988
  60.7680012  41.7514997 115.5349988  61.3157600  41.6276906 114.8706379
  64.0050012  49.2004997 115.1749988  63.2650012  49.7984997 115.2789988
  64.7190012  49.7544997 114.8599988  64.0002237  49.3572831 115.1466465
  72.1120012  42.0284997 111.1949988  71.8960012  41.2624997 111.7279988
  72.7670012  42.5004997 111.7079988  72.1710632  41.9875889 111.3372861
  61.0290012  43.4164997 112.8399988  61.6430012  44.0494997 113.2129988
  61.5410012  42.9444997 112.1839988  61.1821981  43.4392267 112.8022908
  62.4120012  51.1644997 115.9619988  62.4070012  52.0444997 115.5839988
  61.5590012  51.0814997 116.3869988  62.2959464  51.2736117 115.9677907
  58.5330012  50.8354997 106.7439988  58.2610012  51.0644997 105.8559988
  58.5790012  51.6734997 107.2049988  58.5019482  50.9801318 106.6846273
  72.1580012  52.4574997 113.4569988  71.2170012  52.5154997 113.6189988
  72.4350012  53.3634997 113.3199988  72.0664679  52.5879443 113.4606815
  72.4590012  40.7434997 114.8749988  71.7230012  41.3544997 114.8369988
  73.1420012  41.1584997 114.3479988  72.4506541  40.8831374 114.7985832
  65.4620012  38.8304997 112.3399988  65.3450012  37.8814997 112.2859988
  64.6070012  39.1624997 112.6139988  65.3304212  38.7455571 112.3696497
  73.2560012  50.7054997 117.0679988  73.3960012  50.1144997 116.3289988
  73.4230012  51.5784997 116.7119988  73.2977411  50.7425428 116.9186894
  67.7290012  47.6674997 106.8409988  67.0170012  48.2024997 106.4889988
  68.4200012  47.7234997 106.1809988  67.7250132  47.7482543 106.7036289
  75.0980012  47.0454997 115.1339988  74.4450012  47.7404997 115.2239988
  75.5630012  47.2554997 114.3249988  75.0715274  47.1690643 115.0368462
  71.1340012  47.8774997 107.7929988  70.4020012  48.1054997 108.3659988
  71.5820012  47.1634997 108.2469988  71.0942725  47.8122145 107.9328816
  71.0320012  46.0514997 116.8599988  71.1120012  46.8144997 117.4319988
  70.4300012  46.3304997 116.1699988  70.9615756  46.1937134 116.8450589
  62.7800012  48.5074997 109.6749988  62.4490012  48.1374997 108.8569988
  63.3680012  47.8374997 110.0219988  62.8141873  48.3661156 109.6098102
  64.1460012  51.9354997 112.3559988  64.0520012  51.3574997 111.5999988
  64.8760012  51.5644997 112.8529988  64.2317387  51.8061663 112.3195342
  63.1460012  47.2764997 113.3089988  63.7120012  47.3974997 112.5459988
  63.4650012  47.9134997 113.9469988  63.2665474  47.3792219 113.2909862
  69.4550012  52.7794997 114.0429988  69.2150012  53.4414997 114.6909988
  69.2570012  51.9454997 114.4679988  69.3953808  52.7573134 114.1891524
  64.0260012  51.6754997 118.0259988  63.7150012  52.4574997 118.4809988
  63.3760012  51.5224997 117.3399988  63.8955558  51.7619105 117.9955871
  60.9460012  47.8734997 117.2539988  61.0170012  48.5244997 117.9529988
  60.0560012  47.9764997 116.9189988  60.8353005  47.9765427 117.3043495
  62.2660012  53.7474997 118.7889988  62.2730012  53.6114997 117.8419988
  61.3500012  53.6294997 119.0409988  62.1431714  53.7129430 118.6934666
  73.7040012  38.7894997 105.2909988  72.8040012  38.9284997 105.5859988
  73.9560012  39.6204997 104.8889988  73.6148702  38.9209074 105.2770205
  61.7700012  47.5774997 107.2639988  61.4780012  48.3454997 106.7739988
  61.0960012  46.9174997 107.1019988  61.6388111  47.5935587 107.1748978
  74.8930012  53.1554997 103.6669988  74.9670012  54.0944997 103.8379988
  75.7990012  52.8504997 103.6109988  75.0255100  53.2426722 103.6828119
  57.8630012  49.9404997 116.0789988  57.3620012  49.9124997 115.2639988
  57.8680012  49.0344997 116.3889988  57.7950944  49.8142396 116.0093226
  57.6130012  52.7204997 112.9629988  58.5590012  52.5764997 112.9439988
  57.5010012  53.5044997 113.4999988  57.7272727  52.8068046 113.0330072
  75.8110012  53.3864997 118.6459988  75.7620012  52.4314997 118.6089988
  74.9840012  53.6544997 119.0469988  75.6924940  53.2918998 118.6951375
  66.7900012  52.9604997 117.5219988  66.8770012  53.7864997 117.9969988
  65.9260012  52.6304997 117.7709988  66.6851964  53.0289878 117.6206549
  60.8570012  55.5214997 109.1089988  61.0100012  55.1734997 109.9869988
  60.0070012  55.1654997 108.8539988  60.7629166  55.4256216 109.1948079
  72.9630012  44.8794997 119.1259988  72.5560012  45.3604997 118.4049988
  73.0040012  43.9744997 118.8179988  72.9128437  44.8229374 118.9856683
  60.1120012  51.2634997 117.1229988  60.3280012  50.9024997 117.9819988
  59.2570012  50.8894997 116.9129988  60.0259292  51.1634111 117.2123386
  62.7310012  39.7334997 113.1179988  61.8690012  39.6464997 112.7099988
  62.7080012  40.5894997 113.5459988  62.6100409  39.8372883 113.1200589
  67.3940012  39.4554997 116.4929988  67.8140012  39.0404997 117.2459988
  66.4610012  39.2774997 116.6099988  67.3253644  39.3745900 116.6119539
  70.7200012  43.2114997 117.3459988  70.2060012  43.0854997 118.1439988
  70.5650012  44.1234997 117.1019988  70.6286852  43.3176132 117.4222158
  67.0550012  41.9484997 103.7779988  66.8020012  41.9674997 104.7009988
  66.7990012  41.0764997 103.4759988  66.9857481  41.8332558 103.8636175
  62.8220012  44.6994997 114.2129988  62.1800012  44.6584997 114.9219988
  62.8590012  45.6254997 113.9749988  62.7390664  44.8191430 114.2779219
  62.8190012  44.9204997 109.1249988  61.9260012  44.5794997 109.0659988
  63.2690012  44.5434997 108.3689988  62.7578130  44.8229631 109.0147702
  68.3540012  45.3364997 107.9419988  67.9450012  46.1514997 107.6509988
  69.0750012  45.1964997 107.3279988  68.3954537  45.4292018 107.8191342
  67.4560012  45.5114997 119.4299988  66.8940012  44.8074997 119.7509988
  68.2830012  45.3914997 119.8979988  67.4907095  45.3987883 119.5372330
  69.3590012  44.7824997 110.7559988  69.1640012  45.3874997 110.0409988
  69.5400012  43.9484997 110.3219988  69.3567614  44.7526300 110.5994405
  60.5720012  45.0194997 116.0799988  60.5340012  45.4194997 116.9489988
  60.0810012  44.2024997 116.1709988  60.5004684  44.9638069 116.2111059
  57.1800012  42.1354997 109.9309988  57.8110012  42.1064997 110.6499988
  57.6290012  41.7104997 109.1999988  57.3270918  42.0740836 109.9306441
  58.4540012  42.8814997 105.3549988  58.9280012  43.4724997 104.7699988
  57.7370012  43.4124997 105.7019988  58.4219341  43.0340867 105.3218836
  68.6230012  46.4204997 115.4269988  68.9460012  45.7894997 114.7839988
  68.1830012  45.8854997 116.0879988  68.6077484  46.2618387 115.4283198
  65.4000012  42.3474997 110.2109988  64.4890012  42.4044997 110.4999988
  65.9060012  42.2874997 111.0219988  65.3436899  42.3471941 110.3601184
  60.2290012  43.9764997 109.0379988  59.3390012  44.0764997 108.6979988
  60.5250012  43.1344997 108.6919988  60.1472823  43.8763545 108.9447213
  63.8820012  43.9764997 106.6949988  64.8130012  44.1054997 106.8729988
  63.6670012  44.6464997 106.0449988  63.9804247  44.0846565 106.6315747
  69.8050012  41.5824997 113.4759988  69.1290012  41.7134997 114.1399988
  69.3200012  41.4274997 112.6649988  69.6467146  41.5795157 113.4574469
  62.5560012  45.1714997 104.2609988  62.0130012  44.7914997 103.5699988
  63.3890012  45.3654997 103.8329988  62.5943631  45.1457125 104.1084501
  73.0930012  57.2544997 119.7519988  73.2930012  57.6784997 118.9179988
  73.7480012  57.5974997 120.3589988  73.2090072  57.3589857 119.7198592
  60.6910012  49.7284997 119.3599988  61.4230012  49.9824997 119.9219988
  59.9110012  49.9324997 119.8759988  60.6857073  49.7908160 119.5066151
  66.7200012  45.1354997 112.0979988  67.2850012  44.5884997 111.5509988
  66.5730012  44.6134997 112.8869988  66.7773380  44.9902259 112.1298695
  61.7220012  41.2714997 108.5169988  61.4050012  40.3694997 108.4809988
  62.5040012  41.2734997 107.9639988  61.7842408  41.1482474 108.4373569
  65.3470012  43.5234997 114.5119988  64.5110012  43.9774997 114.6229988
  65.8710012  43.7994997 115.2639988  65.3035416  43.6228660 114.6288119
  73.0410012  48.8694997 114.9839988  73.6830012  49.3264997 114.4399988
  72.2110012  48.9824997 114.5209988  73.0165963  48.9472704 114.8470177
  67.4100012  49.9204997 117.4339988  67.0650012  49.5394997 118.2409988
  67.2100012  50.8544997 117.5049988  67.3357527  49.9945135 117.5540689
  61.0160012  49.0314997 111.9669988  61.7610012  49.0294997 111.3659988
  61.0940012  48.2084997 112.4479988  61.1284995  48.9198887 111.9498282
  58.0240012  47.4924997 117.2819988  58.2470012  47.0744997 118.1139988
  57.4220012  46.8794997 116.8589988  57.9731759  47.3524668 117.3387022
  65.0400012  47.0094997 119.4949988  64.7440012  46.8434997 118.5999988
  65.9720012  46.7894997 119.4839988  65.1254166  46.9570640 119.3710536
  69.6610012  52.3824997 117.3849988  68.7600012  52.5654997 117.1169988
  69.6950012  52.6414997 118.3049988  69.5423139  52.4425849 117.4728099
  75.3920012  44.6274997 105.7519988  74.8380012  44.2314997 105.0799988
  75.4920012  45.5374997 105.4739988  75.3297059  44.6963586 105.6224401
  75.3550012  50.4274997 118.5889988  74.5040012  50.6654997 118.2219988
  75.9460012  50.4104997 117.8359988  75.3182487  50.4578258 118.4368893
  70.8480012  48.2214997 113.2379988  69.9190012  47.9894997 113.2109988
  71.2990012  47.4444997 112.9079988  70.7819216  48.0847238 113.1896917
  63.3910012  52.5494997 109.3709988  63.9180012  53.3224997 109.1709988
  62.5110012  52.7744997 109.0689988  63.3442031  52.6857545 109.3027912
  64.8180012  50.2124997 108.9469988  64.5770012  51.1374997 108.9889988
  64.0770012  49.7534997 109.3439988  64.6849225  50.2770933 109.0063742
  65.3330012  54.3614997 115.2629988  65.6950012  55.2164997 115.0289988
  65.8640012  54.0694997 116.0029988  65.4544473  54.4391060 115.3310855
  63.5010012  55.2344997 108.4929988  62.5510012  55.3394997 108.5439988
  63.8530012  56.0544997 108.8369988  63.4184195  55.3598800 108.5465502
  68.8770012  50.4604997 114.9629988  68.4510012  50.2334997 115.7899988
  69.4570012  49.7224997 114.7809988  68.8971868  50.3295299 115.0515830
  71.5350012  55.0124997 117.4329988  70.9340012  54.4574997 116.9369988
  71.8170012  55.6794997 116.8059988  71.4908804  55.0266625 117.2804849
  59.6580012  42.2454997 116.8399988  58.7650012  42.5844997 116.7719988
  59.5590012  41.3904997 117.2579988  59.5224164  42.1762588 116.8872235
  59.3090012  54.0504997 115.2749988  59.5260012  53.1184997 115.2439988
  59.5550012  54.3244997 116.1579988  59.3719549  53.9600636 115.3901763
  64.1080012  52.0714997 104.9399988  64.2540012  51.5514997 105.7299988
  64.1050012  52.9784997 105.2469988  64.1275792  52.1228842 105.0896117
  60.5610012  49.3244997 105.4509988  59.8750012  49.6764997 106.0179988
  61.0830012  50.0874997 105.2039988  60.5376852  49.4758578 105.4952118
  68.3920012  41.9864997 115.7299988  69.0910012  42.0604997 116.3799988
  68.0110012  41.1224997 115.8839988  68.4361767  41.8797624 115.8398322
  69.1770012  41.6384997 106.8269988  69.3970012  42.1104997 106.0239988
  69.7350012  42.0334997 107.4969988  69.2824968  41.7564285 106.8077331
  66.3770012  43.3664997 107.6619988  67.1890012  43.8714997 107.7079988
  66.1320012  43.2214997 108.5759988  66.4550520  43.4160375 107.7918517
  66.9120012  44.3524997 116.8459988  67.0310012  44.9264997 117.6039988
  67.5680012  43.6644997 116.9609988  67.0169025  44.3379858 116.9651321
  67.2600012  40.4474997 108.5999988  66.9140012  41.0654997 109.2439988
  67.9190012  40.9484997 108.1179988  67.3016968  40.5996278 108.6229383
  64.1840012  54.8134997 105.6709988  64.3440012  55.6124997 105.1709988
  63.9860012  55.1194997 106.5559988  64.1791637  54.9644020 105.7221144
  73.1170012  42.2594997 117.6809988  72.2000012  42.5224997 117.5939988
  73.4520012  42.2564997 116.7849988  73.0368613  42.2950761 117.5478837
  71.7190012  46.0104997 111.7769988  70.9210012  45.5954997 111.4489988
  72.1640012  45.3194997 112.2679988  71.6699885  45.8603543 111.7984889
  61.1770012  51.9384997 104.3479988  61.7690012  52.6374997 104.6239988
  61.6360012  51.5054997 103.6279988  61.3201142  51.9757049 104.2884830
  59.4930012  44.6024997 103.4639988  59.4480012  45.5414997 103.6419988
  58.6050012  44.3664997 103.1939988  59.3668574  44.6991892 103.4518912
  72.8050012  55.2664997 113.3999988  72.6500012  55.9444997 112.7419988
  73.7380012  55.3384997 113.6029988  72.9098657  55.3689546 113.3374360
  60.3010012  39.3844997 112.1369988  60.0720012  39.4434997 111.2089988
  59.8580012  38.5924997 112.4429988  60.2098530  39.2855753 112.0514786
  59.2310012  53.3244997 108.2969988  58.3990012  53.7974997 108.3239988
  59.7770012  53.8344997 107.6989988  59.1910352  53.4581332 108.2198463
  58.5190012  55.9374997 119.6269988  59.0600012  55.7204997 120.3869988
  58.0380012  55.1314997 119.4369988  58.5279951  55.7989270 119.7052576
  63.1170012  54.8564997 121.2469988  63.8840012  54.3974997 121.5879988
  63.0950012  54.6304997 120.3179988  63.2191275  54.7630186 121.1680101
  69.6940012  53.2364997 119.9769988  69.3430012  52.3804997 120.2199988
  70.4200012  53.3794997 120.5839988  69.7440769  53.1385636 120.0923619
  58.4260012  49.7474997 120.5809988  58.5700012  48.8454997 120.2949988
  57.6540012  50.0334997 120.0939988  58.3412753  49.6626816 120.4759505
  65.0820012  49.7174997 120.0139988  64.7530012  49.9884997 119.1569988
  65.2340012  48.7764997 119.9269988  65.0574809  49.6273862 119.8848244
  70.8160012  49.6334997 117.3969988  71.5620012  50.2214997 117.2779988
  70.0590012  50.2154997 117.4609988  70.8157820  49.7927143 117.3893590
  59.2590012  46.9474997 120.0009988  59.6670012  46.0904997 119.8799988
  58.9990012  46.9624997 120.9219988  59.2797568  46.8320807 120.1089588
  63.2060012  45.9564997 117.3759988  62.5880012  46.6314997 117.6559988
  63.5500012  46.2774997 116.5419988  63.1679132  46.0922411 117.3016262
  68.2260012  48.4284997 120.6529988  69.1790012  48.5114997 120.6259988
  68.0650012  47.7164997 121.2729988  68.3346426  48.3436746 120.7330579
  63.5450012  43.3114997 118.4579988  63.6950012  42.5824997 117.8559988
  63.5480012  44.0884997 117.8989988  63.5659302  43.3167851 118.3000692
  63.9580012  41.6814997 115.9509988  64.4940012  42.1324997 115.2989988
  63.1060012  41.5734997 115.5279988  63.9162178  41.7286390 115.8045756
  65.5400012  47.1204997 116.1899988  66.2900012  46.9644997 115.6169988
  65.2010012  47.9724997 115.9149988  65.5968921  47.2142968 116.0743561
  69.9550012  44.9354997 121.2189988  70.1480012  44.0044997 121.1069988
  70.8130012  45.3604997 121.2079988  70.0972934  44.8656531 121.2022031
  71.2720012  47.7244997 119.2959988  70.9910012  48.4334997 118.7179988
  72.2150012  47.6514997 119.1449988  71.3609291  47.8116711 119.1964967
  62.0240012  44.5094997 120.3699988  61.2570012  43.9774997 120.1589988
  62.7030012  44.1994997 119.7699988  62.0107877  44.3948300 120.2600716
  64.7640012  39.1374997 116.3819988  64.6650012  40.0844997 116.2769988
  64.0210012  38.7654997 115.9059988  64.6501184  39.2165863 116.3033621
  66.0280012  43.4594997 119.9459988  65.7920012  43.2394997 120.8469988
  65.2440012  43.2524997 119.4359988  65.8898504  43.4014586 120.0003431
  68.7430012  42.5864997 119.0209988  67.7960012  42.6184997 119.1539988
  69.0560012  41.9614997 119.6749988  68.6556707  42.5063998 119.1276060
  70.3770012  41.2204997 121.0269988  70.2810012  40.2684997 121.0209988
  70.0560012  41.4894997 121.8869988  70.3204070  41.1264035 121.1425441
  60.2040012  42.4304997 120.0739988  60.4160012  41.7234997 119.4639988
  60.0930012  41.9924997 120.9179988  60.2179721  42.2747084 120.1046843
  64.9850012  38.4314997 119.0529988  65.6970012  37.7914997 119.0389988
  64.8840012  38.6984997 118.1399988  65.0688066  38.3800079 118.9275677
  65.3390012  40.1144997 121.1069988  65.2070012  39.6384997 120.2869988
  64.7400012  40.8584997 121.0519988  65.2399071  40.1499618 120.9872886
  58.4540012  51.6334997 103.7659988  59.3680012  51.7124997 104.0399988
  58.4610012  50.9464997 103.0999988  58.5801131  51.5513961 103.7134393
  57.1030012  57.0264997 108.8439988  56.4560012  56.5644997 108.3109988
  57.4570012  56.3544997 109.4259988  57.0623849  56.8724723 108.8497959
  57.9730012  55.1074997 110.6479988  57.6380012  54.2274997 110.8199988
  58.1950012  55.4524997 111.5129988  57.9571783  55.0337500 110.7884208
  75.5210012  55.9164997 113.6289988  75.5000012  56.1014997 114.5679988
  76.2120012  56.4854997 113.2879988  75.6114618  56.0186606 113.7113864
  75.0850012  55.4844997 116.5509988  74.5970012  54.7484997 116.1789988
  75.6340012  55.0904997 117.2289988  75.0924820  55.3305889 116.5917813
  73.5350012  51.2734997 121.1889988  72.6690012  51.1684997 121.5829988
  73.9120012  52.0324997 121.6349988  73.4673308  51.3616900 121.3032393
  74.8360012  49.5304997 106.7029988  75.6860012  49.9514997 106.8299988
  74.8420012  48.7904997 107.3099988  74.9531372  49.4880803 106.8024344
  75.2310012  47.5834997 108.5259988  74.5040012  47.1044997 108.9239988
  75.8120012  47.7894997 109.2589988  75.2100473  47.5458103 108.6794528
  74.9900012  50.3684997 113.4739988  75.8230012  49.9904997 113.1939988
  75.1020012  51.3114997 113.3549988  75.1192647  50.4442218 113.4195487
  73.4760012  53.2464997 115.7809988  72.8290012  53.5714997 116.4069988
  72.9590012  52.8064997 115.1069988  73.3174029  53.2315004 115.7755827
  73.0170012  46.1044997 109.0889988  72.8670012  45.1594997 109.0689988
  72.6640012  46.3854997 109.9329988  72.9487448  46.0131481 109.2003705
  58.0530012  48.1824997 113.0999988  58.2370012  48.1004997 112.1639988
  58.9020012  48.0584997 113.5229988  58.1930151  48.1545073 113.0291451
  73.8740012  48.0744997 118.7279988  74.4570012  47.3404997 118.9199988
  74.4380012  48.8464997 118.7749988  74.0299769  48.0784227 118.7606159
  75.3700012  45.9774997 119.4129988  74.5070012  45.5984997 119.2469988
  75.9750012  45.2384997 119.3379988  75.3336119  45.8258268 119.3801528
  72.7280012  43.6874997 107.5519988  73.0080012  42.7804997 107.6759988
  73.4870012  44.1214997 107.1629988  72.8689277  43.6220942 107.5163682
  73.3400012  44.2684997 112.9879988  74.2730012  44.4804997 112.9529988
  73.1050012  44.3704997 113.9099988  73.4359244  44.3113100 113.1078892
  73.3690012  45.0054997 115.7639988  72.5260012  45.2734997 116.1299988
  73.8110012  45.8274997 115.5529988  73.3134158  45.1533291 115.7855491
  57.6500012  43.4534997 119.2409988  58.5700012  43.3314997 119.4769988
  57.2010012  42.7034997 119.6299988  57.7151580  43.3353727 119.3259006
  75.6520012  38.9854997 121.1169988  76.0020012  38.3314997 120.5119988
  75.7990012  39.8224997 120.6769988  75.7197887  39.0091548 120.9746858
  73.3410012  40.9504997 107.5999988  73.5240012  40.5014997 108.4259988
  72.7420012  40.3654997 107.1369988  73.2850202  40.8099975 107.6503275
  58.8710012  41.7654997 112.1319988  59.3170012  40.9734997 112.4339988
  59.3380012  42.4814997 112.5619988  58.9950831  41.7540685 112.2314006
  57.1750012  44.7644997 113.2009988  57.6670012  44.5434997 112.4099988
  57.5380012  45.6054997 113.4819988  57.2913126  44.8478357 113.1307531
  75.1720012  41.0944997 119.4659988  74.2540012  41.3654997 119.4309988
  75.2950012  40.5594997 118.6819988  75.0629729  41.0592508 119.3551923
  75.2080012  41.0174997 104.1279988  75.6200012  40.2964997 103.6529988
  75.8900012  41.6874997 104.1869988  75.3565885  41.0092368 104.0708915
  57.4890012  41.0224997 107.2549988  56.5640012  41.2314997 107.1259988
  57.9430012  41.5064997 106.5649988  57.4237292  41.1165343 107.1440720
  57.4530012  39.7604997 115.5989988  56.7880012  39.5144997 116.2429988
  57.0100012  40.3824997 115.0219988  57.3021318  39.8109410 115.6090898
  59.6450012  52.9354997 119.7439988  58.8240012  53.1104997 119.2829988
  59.3920012  52.8624997 120.6639988  59.4985585  52.9495544 119.8053561
  62.5990012  53.9104997 116.0019988  62.1740012  54.7194997 115.7199988
  63.5030012  53.9954997 115.6999988  62.6629975  54.0329300 115.9224816
  66.9100012  55.3094997 118.9619988  67.0950012  54.9754997 119.8399988
  67.7560012  55.6184997 118.6399988  67.0497539  55.3056047 119.0385605
  69.2550012  56.5954997 118.2059988  69.9320012  55.9624997 117.9659988
  69.5770012  56.9964997 119.0129988  69.3911637  56.5631154 118.2822793
  74.1720012  39.1844997 117.2849988  73.3600012  39.5094997 116.8979988
  74.4050012  38.4244997 116.7519988  74.0922203  39.1262758 117.1598880
  60.0010012  57.1664997 116.0499988  59.2800012  57.6064997 115.5989988
  59.6350012  56.9154997 116.8979988  59.8529651  57.1927242 116.1029640
  62.4680012  56.7664997 115.0799988  61.6030012  56.8384997 115.4839988
  62.4130012  57.3134997 114.2959988  62.3422085  56.8502685 115.0293362
  67.1780012  56.6544997 114.2549988  66.7220012  57.1834997 113.6009988
  67.3410012  57.2574997 114.9799988  67.1376068  56.8084607 114.2634838
  69.5060012  55.5324997 115.1999988  68.6010012  55.6974997 114.9339988
  69.9350012  56.3854997 115.1349988  69.4401324  55.6704339 115.1547976
  72.1100012  57.1024997 115.4949988  71.9280012  58.0184997 115.2849988
  72.2870012  56.6924997 114.6489988  72.1090210  57.1724822 115.3517885
  59.4150012  55.7894997 112.9599988  59.3970012  55.3644997 113.8169988
  60.2200012  55.4714997 112.5509988  59.5213529  55.6883013 113.0220946
  61.5570012  54.4994997 111.6149988  61.3380012  53.5834997 111.7849988
  62.3810012  54.6394997 112.0809988  61.6384420  54.3930520 111.7012774
  64.0940012  54.9694997 112.4639988  64.3070012  54.0814997 112.1769988
  64.1580012  54.9354997 113.4179988  64.1318232  54.8433102 112.5537397
  67.6020012  40.6334997 111.6079988  66.9280012  40.0044997 111.8639988
  68.1660012  40.1494997 111.0049988  67.5859230  40.4818744 111.5615340
  72.7450012  38.7414997 111.7209988  73.3490012  39.2884997 111.2189988
  71.8750012  39.0604997 111.4799988  72.7101208  38.8595137 111.6196886
  74.4720012  39.8794997 110.0539988  75.0840012  39.3654997 109.5269988
  74.8540012  40.7574997 110.0769988  74.6073371  39.9277866 109.9850041
  59.9290012  39.2674997 109.4299988  59.1520012  39.0334997 108.9229988
  60.4590012  38.4704997 109.4389988  59.8942330  39.1276988 109.3617742
  58.7650012  39.0654997 105.2339988  59.2040012  39.6764997 104.6419988
  58.1320012  39.6034997 105.7079988  58.7394514  39.2219257 105.2170930
  64.5080012  39.1944997 109.2439988  65.3830012  39.5824997 109.2139988
  64.3720012  38.9794997 110.1659988  64.6093695  39.2185184 109.3646440
  70.0650012  39.2244997 110.8929988  70.1410012  39.3194997 109.9429988
  69.7900012  38.3164997 111.0219988  70.0382321  39.1147867 110.7805079
  71.4180012  39.2504997 106.5849988  70.7160012  39.8654997 106.3749988
  70.9740012  38.4124997 106.7159988  71.2616450  39.2215639 106.5739000
  58.6660012  55.0134997 106.1309988  57.9810012  54.9754997 105.4639988
  58.6700012  55.9264997 106.4199988  58.5726998  55.1316733 106.0786771
  65.6520012  41.2744997 106.1329988  65.8300012  40.6284997 106.8159988
  65.5990012  42.1084997 106.5999988  65.6691999  41.2988009 106.2895917
  59.8870012  39.7814997 118.9479988  59.5210012  39.0164997 119.3899988
  60.8000012  39.8104997 119.2339988  59.9602736  39.6805640 119.0472502
  61.8600012  39.1324997 120.4839988  62.7580012  38.8584997 120.2989988
  61.4730012  38.3894997 120.9479988  61.9306612  38.9945914 120.5213643
  70.2810012  38.4644997 120.6659988  70.3580012  38.0384997 121.5199988
  71.1750012  38.4784997 120.3229988  70.4123428  38.4080879 120.7365310
  73.4570012  54.5374997 119.3579988  72.6750012  54.3514997 118.8379988
  73.3850012  55.4664997 119.5759988  73.3402274  54.6376643 119.3163018
  87.8630012  48.4234997 109.3889988  87.9520012  49.3674997 109.2569988
  87.2250012  48.1484997 108.7309988  87.7889081  48.5154830 109.2819614
  86.7960012  47.6784997 112.8079988  86.7580012  47.0324997 113.5129988
  86.4740012  47.2124997 112.0369988  86.7472333  47.5269408 112.8002978
  79.1650012  47.2934997 114.4009988  79.2060012  46.6674997 115.1239988
  79.8680012  47.9174997 114.5829988  79.2656363  47.2921196 114.5246044
  90.5020012  50.6174997 111.1089988  90.0620012  49.8974997 111.5599988
  90.4890012  51.3384997 111.7389988  90.4400226  50.6163731 111.2558494
  80.0880012  51.7434997 112.9359988  79.7190012  50.9414997 112.5659988
  81.0290012  51.5744997 112.9819988  80.1647289  51.6110153 112.8916316
  76.6980012  45.4034997 108.3289988  76.2510012  46.2494997 108.3099988
  76.1370012  44.8234997 107.8129988  76.5609900  45.4409916 108.2566801
  77.4090012  47.5654997 110.4539988  77.6220012  46.7954997 110.9819988
  78.1470012  47.6544997 109.8509988  77.5379044  47.4721968 110.4447123
  87.6140012  55.7224997 111.3209988  88.2340012  55.0454997 111.0479988
  87.4060012  55.5044997 112.2299988  87.6706726  55.6004800 111.4064812
  85.1860012  50.1114997 113.2139988  85.4900012  49.4254997 112.6189988
  85.9070012  50.2294997 113.8319988  85.3250671  50.0336304 113.2161816
  93.8490012  41.7124997 114.0749988  93.8980012  42.3224997 114.8099988
  94.2740012  42.1734997 113.3519988  93.9131746  41.8583796 114.0779175
  88.3270012  44.5054997 113.5409988  88.4690012  43.5594997 113.5619988
  88.2200012  44.7124997 112.6129988  88.3319919  44.4038246 113.4183408
  81.4810012  42.6064997 110.8139988  81.5250012  43.4664997 110.3949988
  81.0240012  42.0544997 110.1799988  81.4252240  42.6494422 110.6709864
  89.2040012  42.7374997 109.2149988  89.8500012  42.4084997 109.8389988
  89.7140012  43.2554997 108.5919988  89.3614299  42.7624450 109.2162731
  78.1020012  45.0034997 111.5759988  78.7550012  44.4534997 112.0079988
  78.1260012  44.7294997 110.6589988  78.1946683  44.8911466 111.5112123
  83.2580012  46.5534997 110.7909988  83.8740012  46.0274997 111.3009988
  82.6720012  45.9134997 110.3879988  83.2630810  46.3949208 110.8063173
  94.2400012  43.1904997 116.3099988  93.5520012  43.8484997 116.2149988
  94.2560012  42.9934997 117.2469988  94.1479540  43.2539819 116.4235990
  80.2920012  41.5244997 114.8879988  80.0730012  42.0544997 114.1219988
  79.6240012  41.7514997 115.5349988  80.1717600  41.6276906 114.8706379
  87.6610012  51.0244997 108.4319988  87.3650012  50.7024997 107.5809988
  87.3360012  51.9244997 108.4729988  87.5766371  51.1020215 108.3211801
  82.8610012  49.2004997 115.1749988  82.1210012  49.7984997 115.2789988
  83.5750012  49.7544997 114.8599988  82.8562237  49.3572831 115.1466465
  90.9680012  42.0284997 111.1949988  90.7520012  41.2624997 111.7279988
  91.6230012  42.5004997 111.7079988  91.0270633  41.9875889 111.3372861
  79.8850012  43.4164997 112.8399988  80.4990012  44.0494997 113.2129988
  80.3970012  42.9444997 112.1839988  80.0381981  43.4392267 112.8022908
  81.2680012  51.1644997 115.9619988  81.2630012  52.0444997 115.5839988
  80.4150012  51.0814997 116.3869988  81.1519464  51.2736117 115.9677907
  77.3890012  50.8354997 106.7439988  77.1170012  51.0644997 105.8559988
  77.4350012  51.6734997 107.2049988  77.3579482  50.9801318 106.6846273
  91.0140012  52.4574997 113.4569988  90.0730012  52.5154997 113.6189988
  91.2910012  53.3634997 113.3199988  90.9224679  52.5879443 113.4606815
  91.3150012  40.7434997 114.8749988  90.5790012  41.3544997 114.8369988
  91.9980012  41.1584997 114.3479988  91.3066541  40.8831374 114.7985832
  84.3180012  38.8304997 112.3399988  84.2010012  37.8814997 112.2859988
  83.4630012  39.1624997 112.6139988  84.1864212  38.7455571 112.3696497
  89.2660012  54.2384997 110.0819988  89.6920012  53.5314997 109.5969988
  89.5830012  55.0394997 109.6659988  89.3671683  54.2501017 109.9593680
  90.4260012  52.1394997 108.5909988  90.1680012  51.4494997 107.9799988
  90.4970012  51.6964997 109.4369988  90.4002856  51.9852124 108.6216885
  92.1120012  50.7054997 117.0679988  92.2520012  50.1144997 116.3289988
  92.2790012  51.5784997 116.7119988  92.1537411  50.7425428 116.9186894
  86.5850012  47.6674997 106.8409988  85.8730012  48.2024997 106.4889988
  87.2760012  47.7234997 106.1809988  86.5810132  47.7482543 106.7036289
  93.9540012  47.0454997 115.1339988  93.3010012  47.7404997 115.2239988
  94.4190012  47.2554997 114.3249988  93.9275274  47.1690643 115.0368462
  89.9900012  47.8774997 107.7929988  89.2580012  48.1054997 108.3659988
  90.4380012  47.1634997 108.2469988  89.9502725  47.8122145 107.9328816
  89.8880012  46.0514997 116.8599988  89.9680012  46.8144997 117.4319988
  89.2860012  46.3304997 116.1699988  89.8175756  46.1937134 116.8450589
  81.6360012  48.5074997 109.6749988  81.3050012  48.1374997 108.8569988
  82.2240012  47.8374997 110.0219988  81.6701873  48.3661156 109.6098102
  83.0020012  51.9354997 112.3559988  82.9080012  51.3574997 111.5999988
  83.7320012  51.5644997 112.8529988  83.0877387  51.8061663 112.3195342
  82.0020012  47.2764997 113.3089988  82.5680012  47.3974997 112.5459988
  82.3210012  47.9134997 113.9469988  82.1225474  47.3792219 113.2909862
  88.3110012  52.7794997 114.0429988  88.0710012  53.4414997 114.6909988
  88.1130012  51.9454997 114.4679988  88.2513808  52.7573134 114.1891524
  82.8820012  51.6754997 118.0259988  82.5710012  52.4574997 118.4809988
  82.2320012  51.5224997 117.3399988  82.7515558  51.7619105 117.9955871
  79.8020012  47.8734997 117.2539988  79.8730012  48.5244997 117.9529988
  78.9120012  47.9764997 116.9189988  79.6913005  47.9765427 117.3043495
  86.5880012  53.7764997 108.9129988  87.0620012  54.0714997 109.6899988
  86.0250012  54.5144997 108.6799988  86.5768184  53.9167247 108.9879628
  81.1220012  53.7474997 118.7889988  81.1290012  53.6114997 117.8419988
  80.2060012  53.6294997 119.0409988  80.9991714  53.7129430 118.6934666
  92.5600012  38.7894997 105.2909988  91.6600012  38.9284997 105.5859988
  92.8120012  39.6204997 104.8889988  92.4708702  38.9209074 105.2770205
  80.6260012  47.5774997 107.2639988  80.3340012  48.3454997 106.7739988
  79.9520012  46.9174997 107.1019988  80.4948111  47.5935587 107.1748978
  76.7190012  49.9404997 116.0789988  76.2180012  49.9124997 115.2639988
  76.7240012  49.0344997 116.3889988  76.6510944  49.8142396 116.0093226
  76.4690012  52.7204997 112.9629988  77.4150012  52.5764997 112.9439988
  76.3570012  53.5044997 113.4999988  76.5832727  52.8068046 113.0330072
  94.6670012  53.3864997 118.6459988  94.6180012  52.4314997 118.6089988
  93.8400012  53.6544997 119.0469988  94.5484940  53.2918998 118.6951375
  85.6460012  52.9604997 117.5219988  85.7330012  53.7864997 117.9969988
  84.7820012  52.6304997 117.7709988  85.5411964  53.0289878 117.6206549
  86.0600012  56.7324997 107.3279988  85.9850012  56.6114997 106.3809988
  86.0930012  57.6824997 107.4459988  86.0542068  56.8442646 107.2144967
  79.7130012  55.5214997 109.1089988  79.8660012  55.1734997 109.9869988
  78.8630012  55.1654997 108.8539988  79.6189166  55.4256216 109.1948079
  88.8310012  55.8124997 107.0789988  87.8950012  55.9124997 107.2579988
  89.1110012  55.1034997 107.6579988  88.7409553  55.7303406 107.1817087
  91.8190012  44.8794997 119.1259988  91.4120012  45.3604997 118.4049988
  91.8600012  43.9744997 118.8179988  91.7688437  44.8229374 118.9856683
  78.9680012  51.2634997 117.1229988  79.1840012  50.9024997 117.9819988
  78.1130012  50.8894997 116.9129988  78.8819292  51.1634111 117.2123386
  81.5870012  39.7334997 113.1179988  80.7250012  39.6464997 112.7099988
  81.5640012  40.5894997 113.5459988  81.4660409  39.8372883 113.1200589
  86.2500012  39.4554997 116.4929988  86.6700012  39.0404997 117.2459988
  85.3170012  39.2774997 116.6099988  86.1813644  39.3745900 116.6119539
  89.5760012  43.2114997 117.3459988  89.0620012  43.0854997 118.1439988
  89.4210012  44.1234997 117.1019988  89.4846852  43.3176132 117.4222158
  85.9110012  41.9484997 103.7779988  85.6580012  41.9674997 104.7009988
  85.6550012  41.0764997 103.4759988  85.8417481  41.8332558 103.8636175
  81.6780012  44.6994997 114.2129988  81.0360012  44.6584997 114.9219988
  81.7150012  45.6254997 113.9749988  81.5950664  44.8191430 114.2779219
  81.6750012  44.9204997 109.1249988  80.7820012  44.5794997 109.0659988
  82.1250012  44.5434997 108.3689988  81.6138130  44.8229631 109.0147702
  87.2100012  45.3364997 107.9419988  86.8010012  46.1514997 107.6509988
  87.9310012  45.1964997 107.3279988  87.2514537  45.4292018 107.8191342
  86.3120012  45.5114997 119.4299988  85.7500012  44.8074997 119.7509988
  87.1390012  45.3914997 119.8979988  86.3467095  45.3987883 119.5372330
  88.2150012  44.7824997 110.7559988  88.0200012  45.3874997 110.0409988
  88.3960012  43.9484997 110.3219988  88.2127614  44.7526300 110.5994405
  79.4280012  45.0194997 116.0799988  79.3900012  45.4194997 116.9489988
  78.9370012  44.2024997 116.1709988  79.3564684  44.9638069 116.2111059
  76.0360012  42.1354997 109.9309988  76.6670012  42.1064997 110.6499988
  76.4850012  41.7104997 109.1999988  76.1830918  42.0740836 109.9306441
  87.4790012  46.4204997 115.4269988  87.8020012  45.7894997 114.7839988
  87.0390012  45.8854997 116.0879988  87.4637484  46.2618387 115.4283198
  84.2560012  42.3474997 110.2109988  83.3450012  42.4044997 110.4999988
  84.7620012  42.2874997 111.0219988  84.1996899  42.3471941 110.3601184
  79.0850012  43.9764997 109.0379988  78.1950012  44.0764997 108.6979988
  79.3810012  43.1344997 108.6919988  79.0032823  43.8763545 108.9447213
  82.7380012  43.9764997 106.6949988  83.6690012  44.1054997 106.8729988
  82.5230012  44.6464997 106.0449988  82.8364247  44.0846565 106.6315747
  88.6610012  41.5824997 113.4759988  87.9850012  41.7134997 114.1399988
  88.1760012  41.4274997 112.6649988  88.5027146  41.5795157 113.4574469
  81.4120012  45.1714997 104.2609988  80.8690012  44.7914997 103.5699988
  82.2450012  45.3654997 103.8329988  81.4503631  45.1457125 104.1084501
  91.9490012  57.2544997 119.7519988  92.1490012  57.6784997 118.9179988
  92.6040012  57.5974997 120.3589988  92.0650072  57.3589857 119.7198592
  79.5470012  49.7284997 119.3599988  80.2790012  49.9824997 119.9219988
  78.7670012  49.9324997 119.8759988  79.5417073  49.7908160 119.5066151
  85.5760012  45.1354997 112.0979988  86.1410012  44.5884997 111.5509988
  85.4290012  44.6134997 112.8869988  85.6333380  44.9902259 112.1298695
  80.5780012  41.2714997 108.5169988  80.2610012  40.3694997 108.4809988
  81.3600012  41.2734997 107.9639988  80.6402408  41.1482474 108.4373569
  84.2030012  43.5234997 114.5119988  83.3670012  43.9774997 114.6229988
  84.7270012  43.7994997 115.2639988  84.1595416  43.6228660 114.6288119
  84.7470012  49.7364997 106.1969988  84.0020012  49.2294997 105.8749988
  84.6130012  49.7854997 107.1439988  84.6268776  49.6736940 106.2808647
  91.8970012  48.8694997 114.9839988  92.5390012  49.3264997 114.4399988
  91.0670012  48.9824997 114.5209988  91.8725963  48.9472704 114.8470177
  88.6450012  42.5504997 104.3959988  87.7060012  42.6624997 104.2449988
  88.9420012  43.4074997 104.7029988  88.5567583  42.6815981 104.4168337
  86.2660012  49.9204997 117.4339988  85.9210012  49.5394997 118.2409988
  86.0660012  50.8544997 117.5049988  86.1917527  49.9945135 117.5540689
  89.3630012  44.4174997 106.0569988  90.2550012  44.2804997 106.3759988
  89.4200012  45.2084997 105.5199988  89.4926504  44.5056052 106.0280818
  79.8720012  49.0314997 111.9669988  80.6170012  49.0294997 111.3659988
  79.9500012  48.2084997 112.4479988  79.9844995  48.9198887 111.9498282
  86.8730012  51.1954997 105.2229988  86.5770012  52.0214997 105.6039988
  86.1700012  50.5754997 105.4189988  86.7374914  51.2248199 105.3016443
  76.8800012  47.4924997 117.2819988  77.1030012  47.0744997 118.1139988
  76.2780012  46.8794997 116.8589988  76.8291759  47.3524668 117.3387022
  83.8960012  47.0094997 119.4949988  83.6000012  46.8434997 118.5999988
  84.8280012  46.7894997 119.4839988  83.9814166  46.9570640 119.3710536
  88.5170012  52.3824997 117.3849988  87.6160012  52.5654997 117.1169988
  88.5510012  52.6414997 118.3049988  88.3983139  52.4425849 117.4728099
  94.2480012  44.6274997 105.7519988  93.6940012  44.2314997 105.0799988
  94.3480012  45.5374997 105.4739988  94.1857059  44.6963586 105.6224401
  94.2110012  50.4274997 118.5889988  93.3600012  50.6654997 118.2219988
  94.8020012  50.4104997 117.8359988  94.1742487  50.4578258 118.4368893
  92.5430012  53.4134997 106.2169988  92.1700012  52.5874997 106.5259988
  92.8210012  53.2304997 105.3189988  92.5295222  53.2757430 106.1379473
  89.7040012  48.2214997 113.2379988  88.7750012  47.9894997 113.2109988
  90.1550012  47.4444997 112.9079988  89.6379216  48.0847238 113.1896917
  82.2470012  52.5494997 109.3709988  82.7740012  53.3224997 109.1709988
  81.3670012  52.7744997 109.0689988  82.2002031  52.6857545 109.3027912
  83.6740012  50.2124997 108.9469988  83.4330012  51.1374997 108.9889988
  82.9330012  49.7534997 109.3439988  83.5409225  50.2770933 109.0063742
  84.1890012  54.3614997 115.2629988  84.5510012  55.2164997 115.0289988
  84.7200012  54.0694997 116.0029988  84.3104473  54.4391060 115.3310855
  82.3570012  55.2344997 108.4929988  81.4070012  55.3394997 108.5439988
  82.7090012  56.0544997 108.8369988  82.2744195  55.3598800 108.5465502
  87.7330012  50.4604997 114.9629988  87.3070012  50.2334997 115.7899988
  88.3130012  49.7224997 114.7809988  87.7531868  50.3295299 115.0515830
  89.9360012  51.3894997 104.0369988  90.2890012  51.0094997 104.8409988
  88.9870012  51.2964997 104.1239988  89.8560918  51.3248956 104.1588532
  90.3910012  55.0124997 117.4329988  89.7900012  54.4574997 116.9369988
  90.6730012  55.6794997 116.8059988  90.3468804  55.0266625 117.2804849
  78.5140012  42.2454997 116.8399988  77.6210012  42.5844997 116.7719988
  78.4150012  41.3904997 117.2579988  78.3784164  42.1762588 116.8872235
  90.8020012  50.0624997 106.2639988  90.5240012  49.3344997 106.8199988
  91.7290012  50.1814997 106.4689988  90.8893124  49.9788802 106.3678845
  78.1650012  54.0504997 115.2749988  78.3820012  53.1184997 115.2439988
  78.4110012  54.3244997 116.1579988  78.2279549  53.9600636 115.3901763
  82.9640012  52.0714997 104.9399988  83.1100012  51.5514997 105.7299988
  82.9610012  52.9784997 105.2469988  82.9835792  52.1228842 105.0896117
  79.4170012  49.3244997 105.4509988  78.7310012  49.6764997 106.0179988
  79.9390012  50.0874997 105.2039988  79.3936852  49.4758578 105.4952118
  87.2480012  41.9864997 115.7299988  87.9470012  42.0604997 116.3799988
  86.8670012  41.1224997 115.8839988  87.2921767  41.8797624 115.8398322
  88.0330012  41.6384997 106.8269988  88.2530012  42.1104997 106.0239988
  88.5910012  42.0334997 107.4969988  88.1384968  41.7564285 106.8077331
  85.7010012  53.7694997 105.6899988  84.8850012  54.2664997 105.7419988
  86.2310012  54.2444997 105.0499988  85.6609161  53.9017722 105.6105956
  85.2330012  43.3664997 107.6619988  86.0450012  43.8714997 107.7079988
  84.9880012  43.2214997 108.5759988  85.3110520  43.4160375 107.7918517
  85.7680012  44.3524997 116.8459988  85.8870012  44.9264997 117.6039988
  86.4240012  43.6644997 116.9609988  85.8729025  44.3379858 116.9651321
  86.1160012  40.4474997 108.5999988  85.7700012  41.0654997 109.2439988
  86.7750012  40.9484997 108.1179988  86.1576968  40.5996278 108.6229383
  83.0400012  54.8134997 105.6709988  83.2000012  55.6124997 105.1709988
  82.8420012  55.1194997 106.5559988  83.0351637  54.9644020 105.7221144
  91.9730012  42.2594997 117.6809988  91.0560012  42.5224997 117.5939988
  92.3080012  42.2564997 116.7849988  91.8928613  42.2950761 117.5478837
  90.5750012  46.0104997 111.7769988  89.7770012  45.5954997 111.4489988
  91.0200012  45.3194997 112.2679988  90.5259885  45.8603543 111.7984889
  80.0330012  51.9384997 104.3479988  80.6250012  52.6374997 104.6239988
  80.4920012  51.5054997 103.6279988  80.1761142  51.9757049 104.2884830
  78.3490012  44.6024997 103.4639988  78.3040012  45.5414997 103.6419988
  77.4610012  44.3664997 103.1939988  78.2228574  44.6991892 103.4518912
  91.6610012  55.2664997 113.3999988  91.5060012  55.9444997 112.7419988
  92.5940012  55.3384997 113.6029988  91.7658657  55.3689546 113.3374360
  79.1570012  39.3844997 112.1369988  78.9280012  39.4434997 111.2089988
  78.7140012  38.5924997 112.4429988  79.0658530  39.2855753 112.0514786
  78.0870012  53.3244997 108.2969988  77.2550012  53.7974997 108.3239988
  78.6330012  53.8344997 107.6989988  78.0470352  53.4581332 108.2198463
  77.3750012  55.9374997 119.6269988  77.9160012  55.7204997 120.3869988
  76.8940012  55.1314997 119.4369988  77.3839951  55.7989270 119.7052576
  81.9730012  54.8564997 121.2469988  82.7400012  54.3974997 121.5879988
  81.9510012  54.6304997 120.3179988  82.0751275  54.7630186 121.1680101
  88.5500012  53.2364997 119.9769988  88.1990012  52.3804997 120.2199988
  89.2760012  53.3794997 120.5839988  88.6000769  53.1385636 120.0923619
  77.2820012  49.7474997 120.5809988  77.4260012  48.8454997 120.2949988
  76.5100012  50.0334997 120.0939988  77.1972753  49.6626816 120.4759505
  83.9380012  49.7174997 120.0139988  83.6090012  49.9884997 119.1569988
  84.0900012  48.7764997 119.9269988  83.9134809  49.6273862 119.8848244
  86.9760012  51.1384997 102.4499988  86.7070012  51.3184997 103.3509988
  86.7700012  50.2124997 102.3179988  86.9113427  51.0380261 102.5555073
  89.6720012  49.6334997 117.3969988  90.4180012  50.2214997 117.2779988
  88.9150012  50.2154997 117.4609988  89.6717820  49.7927143 117.3893590
  78.1150012  46.9474997 120.0009988  78.5230012  46.0904997 119.8799988
  77.8550012  46.9624997 120.9219988  78.1357568  46.8320807 120.1089588
  82.7730012  48.0634997 105.0199988  82.3130012  47.5794997 105.7059988
  83.0280012  47.3954997 104.3839988  82.7444902  47.9068731 105.0279334
  82.0620012  45.9564997 117.3759988  81.4440012  46.6314997 117.6559988
  82.4060012  46.2774997 116.5419988  82.0239132  46.0922411 117.3016262
  87.0820012  48.4284997 120.6529988  88.0350012  48.5114997 120.6259988
  86.9210012  47.7164997 121.2729988  87.1906426  48.3436746 120.7330579
  82.4010012  43.3114997 118.4579988  82.5510012  42.5824997 117.8559988
  82.4040012  44.0884997 117.8989988  82.4219302  43.3167851 118.3000692
  82.8140012  41.6814997 115.9509988  83.3500012  42.1324997 115.2989988
  81.9620012  41.5734997 115.5279988  82.7722178  41.7286390 115.8045756
  84.3960012  47.1204997 116.1899988  85.1460012  46.9644997 115.6169988
  84.0570012  47.9724997 115.9149988  84.4528921  47.2142968 116.0743561
  88.8110012  44.9354997 121.2189988  89.0040012  44.0044997 121.1069988
  89.6690012  45.3604997 121.2079988  88.9532934  44.8656531 121.2022031
  90.1280012  47.7244997 119.2959988  89.8470012  48.4334997 118.7179988
  91.0710012  47.6514997 119.1449988  90.2169291  47.8116711 119.1964967
  80.8800012  44.5094997 120.3699988  80.1130012  43.9774997 120.1589988
  81.5590012  44.1994997 119.7699988  80.8667877  44.3948300 120.2600716
  83.6200012  39.1374997 116.3819988  83.5210012  40.0844997 116.2769988
  82.8770012  38.7654997 115.9059988  83.5061184  39.2165863 116.3033621
  84.8840012  43.4594997 119.9459988  84.6480012  43.2394997 120.8469988
  84.1000012  43.2524997 119.4359988  84.7458504  43.4014586 120.0003431
  87.5990012  42.5864997 119.0209988  86.6520012  42.6184997 119.1539988
  87.9120012  41.9614997 119.6749988  87.5116707  42.5063998 119.1276060
  89.2330012  41.2204997 121.0269988  89.1370012  40.2684997 121.0209988
  88.9120012  41.4894997 121.8869988  89.1764070  41.1264035 121.1425441
  79.0600012  42.4304997 120.0739988  79.2720012  41.7234997 119.4639988
  78.9490012  41.9924997 120.9179988  79.0739721  42.2747084 120.1046843
  83.8410012  38.4314997 119.0529988  84.5530012  37.7914997 119.0389988
  83.7400012  38.6984997 118.1399988  83.9248066  38.3800079 118.9275677
  84.1950012  40.1144997 121.1069988  84.0630012  39.6384997 120.2869988
  83.5960012  40.8584997 121.0519988  84.0959071  40.1499618 120.9872886
  75.9590012  57.0264997 108.8439988  75.3120012  56.5644997 108.3109988
  76.3130012  56.3544997 109.4259988  75.9183849  56.8724723 108.8497959
  76.8290012  55.1074997 110.6479988  76.4940012  54.2274997 110.8199988
  77.0510012  55.4524997 111.5129988  76.8131783  55.0337500 110.7884208
  94.3770012  55.9164997 113.6289988  94.3560012  56.1014997 114.5679988
  95.0680012  56.4854997 113.2879988  94.4674618  56.0186606 113.7113864
  93.9410012  55.4844997 116.5509988  93.4530012  54.7484997 116.1789988
  94.4900012  55.0904997 117.2289988  93.9484820  55.3305889 116.5917813
  92.3910012  51.2734997 121.1889988  91.5250012  51.1684997 121.5829988
  92.7680012  52.0324997 121.6349988  92.3233308  51.3616900 121.3032393
  93.6920012  49.5304997 106.7029988  94.5420012  49.9514997 106.8299988
  93.6980012  48.7904997 107.3099988  93.8091372  49.4880803 106.8024344
  94.0870012  47.5834997 108.5259988  93.3600012  47.1044997 108.9239988
  94.6680012  47.7894997 109.2589988  94.0660473  47.5458103 108.6794528
  93.8460012  50.3684997 113.4739988  94.6790012  49.9904997 113.1939988
  93.9580012  51.3114997 113.3549988  93.9752647  50.4442218 113.4195487
  92.3320012  53.2464997 115.7809988  91.6850012  53.5714997 116.4069988
  91.8150012  52.8064997 115.1069988  92.1734029  53.2315004 115.7755827
  94.3550012  47.4844997 104.9179988  93.8330012  47.8414997 104.1989988
  94.3220012  48.1594997 105.5959988  94.2791634  47.6245413 104.9113145
  91.8730012  46.1044997 109.0889988  91.7230012  45.1594997 109.0689988
  91.5200012  46.3854997 109.9329988  91.8047448  46.0131481 109.2003705
  76.9090012  48.1824997 113.0999988  77.0930012  48.1004997 112.1639988
  77.7580012  48.0584997 113.5229988  77.0490151  48.1545073 113.0291451
  92.7300012  48.0744997 118.7279988  93.3130012  47.3404997 118.9199988
  93.2940012  48.8464997 118.7749988  92.8859769  48.0784227 118.7606159
  94.2260012  45.9774997 119.4129988  93.3630012  45.5984997 119.2469988
  94.8310012  45.2384997 119.3379988  94.1896119  45.8258268 119.3801528
  91.5840012  43.6874997 107.5519988  91.8640012  42.7804997 107.6759988
  92.3430012  44.1214997 107.1629988  91.7249277  43.6220942 107.5163682
  92.1960012  44.2684997 112.9879988  93.1290012  44.4804997 112.9529988
  91.9610012  44.3704997 113.9099988  92.2919244  44.3113100 113.1078892
  92.2250012  45.0054997 115.7639988  91.3820012  45.2734997 116.1299988
  92.6670012  45.8274997 115.5529988  92.1694158  45.1533291 115.7855491
  76.5060012  43.4534997 119.2409988  77.4260012  43.3314997 119.4769988
  76.0570012  42.7034997 119.6299988  76.5711580  43.3353727 119.3259006
  94.5080012  38.9854997 121.1169988  94.8580012  38.3314997 120.5119988
  94.6550012  39.8224997 120.6769988  94.5757887  39.0091548 120.9746858
  92.1970012  40.9504997 107.5999988  92.3800012  40.5014997 108.4259988
  91.5980012  40.3654997 107.1369988  92.1410202  40.8099975 107.6503275
  77.7270012  41.7654997 112.1319988  78.1730012  40.9734997 112.4339988
  78.1940012  42.4814997 112.5619988  77.8510831  41.7540685 112.2314006
  76.0310012  44.7644997 113.2009988  76.5230012  44.5434997 112.4099988
  76.3940012  45.6054997 113.4819988  76.1473126  44.8478357 113.1307531
  94.0280012  41.0944997 119.4659988  93.1100012  41.3654997 119.4309988
  94.1510012  40.5594997 118.6819988  93.9189729  41.0592508 119.3551923
  76.3450012  41.0224997 107.2549988  75.4200012  41.2314997 107.1259988
  76.7990012  41.5064997 106.5649988  76.2797292  41.1165343 107.1440720
  91.1160012  56.0064997 109.2009988  91.7680012  55.6594997 108.5929988
  91.6260012  56.4954997 109.8469988  91.2742637  56.0250597 109.2050236
  76.3090012  39.7604997 115.5989988  75.6440012  39.5144997 116.2429988
  75.8660012  40.3824997 115.0219988  76.1581318  39.8109410 115.6090898
  78.5010012  52.9354997 119.7439988  77.6800012  53.1104997 119.2829988
  78.2480012  52.8624997 120.6639988  78.3545585  52.9495544 119.8053561
  81.4550012  53.9104997 116.0019988  81.0300012  54.7194997 115.7199988
  82.3590012  53.9954997 115.6999988  81.5189975  54.0329300 115.9224816
  85.7660012  55.3094997 118.9619988  85.9510012  54.9754997 119.8399988
  86.6120012  55.6184997 118.6399988  85.9057539  55.3056047 119.0385605
  88.1110012  56.5954997 118.2059988  88.7880012  55.9624997 117.9659988
  88.4330012  56.9964997 119.0129988  88.2471637  56.5631154 118.2822793
  93.0280012  39.1844997 117.2849988  92.2160012  39.5094997 116.8979988
  93.2610012  38.4244997 116.7519988  92.9482203  39.1262758 117.1598880
  78.8570012  57.1664997 116.0499988  78.1360012  57.6064997 115.5989988
  78.4910012  56.9154997 116.8979988  78.7089651  57.1927242 116.1029640
  81.3240012  56.7664997 115.0799988  80.4590012  56.8384997 115.4839988
  81.2690012  57.3134997 114.2959988  81.1982085  56.8502685 115.0293362
  86.0340012  56.6544997 114.2549988  85.5780012  57.1834997 113.6009988
  86.1970012  57.2574997 114.9799988  85.9936068  56.8084607 114.2634838
  88.3620012  55.5324997 115.1999988  87.4570012  55.6974997 114.9339988
  88.7910012  56.3854997 115.1349988  88.2961324  55.6704339 115.1547976
  90.9660012  57.1024997 115.4949988  90.7840012  58.0184997 115.2849988
  91.1430012  56.6924997 114.6489988  90.9650210  57.1724822 115.3517885
  78.2710012  55.7894997 112.9599988  78.2530012  55.3644997 113.8169988
  79.0760012  55.4714997 112.5509988  78.3773529  55.6883013 113.0220946
  80.4130012  54.4994997 111.6149988  80.1940012  53.5834997 111.7849988
  81.2370012  54.6394997 112.0809988  80.4944420  54.3930520 111.7012774
  82.9500012  54.9694997 112.4639988  83.1630012  54.0814997 112.1769988
  83.0140012  54.9354997 113.4179988  82.9878232  54.8433102 112.5537397
  86.4580012  40.6334997 111.6079988  85.7840012  40.0044997 111.8639988
  87.0220012  40.1494997 111.0049988  86.4419230  40.4818744 111.5615340
  91.6010012  38.7414997 111.7209988  92.2050012  39.2884997 111.2189988
  90.7310012  39.0604997 111.4799988  91.5661208  38.8595137 111.6196886
  93.3280012  39.8794997 110.0539988  93.9400012  39.3654997 109.5269988
  93.7100012  40.7574997 110.0769988  93.4633371  39.9277866 109.9850041
  78.7850012  39.2674997 109.4299988  78.0080012  39.0334997 108.9229988
  79.3150012  38.4704997 109.4389988  78.7502330  39.1276988 109.3617742
  77.6210012  39.0654997 105.2339988  78.0600012  39.6764997 104.6419988
  76.9880012  39.6034997 105.7079988  77.5954514  39.2219257 105.2170930
  83.3640012  39.1944997 109.2439988  84.2390012  39.5824997 109.2139988
  83.2280012  38.9794997 110.1659988  83.4653695  39.2185184 109.3646440
  88.9210012  39.2244997 110.8929988  88.9970012  39.3194997 109.9429988
  88.6460012  38.3164997 111.0219988  88.8942321  39.1147867 110.7805079
  90.2740012  39.2504997 106.5849988  89.5720012  39.8654997 106.3749988
  89.8300012  38.4124997 106.7159988  90.1176450  39.2215639 106.5739000
  77.5220012  55.0134997 106.1309988  76.8370012  54.9754997 105.4639988
  77.5260012  55.9264997 106.4199988  77.4286998  55.1316733 106.0786771
  84.5080012  41.2744997 106.1329988  84.6860012  40.6284997 106.8159988
  84.4550012  42.1084997 106.5999988  84.5251999  41.2988009 106.2895917
  93.0960012  55.7864997 107.2079988  92.9010012  55.0384997 106.6429988
  93.0570012  56.5444997 106.6249988  93.0640380  55.7866099 107.0518384
  78.7430012  39.7814997 118.9479988  78.3770012  39.0164997 119.3899988
  79.6560012  39.8104997 119.2339988  78.8162736  39.6805640 119.0472502
  80.7160012  39.1324997 120.4839988  81.6140012  38.8584997 120.2989988
  80.3290012  38.3894997 120.9479988  80.7866612  38.9945914 120.5213643
  79.3400012  55.9334997 103.1569988  79.0730012  56.2204997 104.0299988
  80.1120012  55.3874997 103.3089988  79.4077488  55.8990294 103.2971050
  89.1370012  38.4644997 120.6659988  89.2140012  38.0384997 121.5199988
  90.0310012  38.4784997 120.3229988  89.2683428  38.4080879 120.7365310
  92.3130012  54.5374997 119.3579988  91.5310012  54.3514997 118.8379988
  92.2410012  55.4664997 119.5759988  92.1962274  54.6376643 119.3163018
 106.7190012  48.4234997 109.3889988 106.8080012  49.3674997 109.2569988
 106.0810012  48.1484997 108.7309988 106.6449081  48.5154830 109.2819614
 105.6520012  47.6784997 112.8079988 105.6140012  47.0324997 113.5129988
 105.3300012  47.2124997 112.0369988 105.6032333  47.5269408 112.8002978
  98.0210012  47.2934997 114.4009988  98.0620012  46.6674997 115.1239988
  98.7240012  47.9174997 114.5829988  98.1216363  47.2921196 114.5246044
 109.3580012  50.6174997 111.1089988 108.9180012  49.8974997 111.5599988
 109.3450012  51.3384997 111.7389988 109.2960226  50.6163731 111.2558494
  98.9440012  51.7434997 112.9359988  98.5750012  50.9414997 112.5659988
  99.8850012  51.5744997 112.9819988  99.0207289  51.6110153 112.8916316
  95.5540012  45.4034997 108.3289988  95.1070012  46.2494997 108.3099988
  94.9930012  44.8234997 107.8129988  95.4169900  45.4409916 108.2566801
  96.2650012  47.5654997 110.4539988  96.4780012  46.7954997 110.9819988
  97.0030012  47.6544997 109.8509988  96.3939044  47.4721968 110.4447123
 106.4700012  55.7224997 111.3209988 107.0900012  55.0454997 111.0479988
 106.2620012  55.5044997 112.2299988 106.5266726  55.6004800 111.4064812
 104.0420012  50.1114997 113.2139988 104.3460012  49.4254997 112.6189988
 104.7630012  50.2294997 113.8319988 104.1810671  50.0336305 113.2161816
 112.7050012  41.7124997 114.0749988 112.7540012  42.3224997 114.8099988
 113.1300012  42.1734997 113.3519988 112.7691746  41.8583796 114.0779175
 107.1830012  44.5054997 113.5409988 107.3250012  43.5594997 113.5619988
 107.0760012  44.7124997 112.6129988 107.1879919  44.4038246 113.4183408
 100.3370012  42.6064997 110.8139988 100.3810012  43.4664997 110.3949988
  99.8800012  42.0544997 110.1799988 100.2812240  42.6494422 110.6709864
 108.0600012  42.7374997 109.2149988 108.7060012  42.4084997 109.8389988
 108.5700012  43.2554997 108.5919988 108.2174299  42.7624450 109.2162731
  96.9580012  45.0034997 111.5759988  97.6110012  44.4534997 112.0079988
  96.9820012  44.7294997 110.6589988  97.0506683  44.8911466 111.5112123
 102.1140012  46.5534997 110.7909988 102.7300012  46.0274997 111.3009988
 101.5280012  45.9134997 110.3879988 102.1190810  46.3949208 110.8063173
 113.0960012  43.1904997 116.3099988 112.4080012  43.8484997 116.2149988
 113.1120012  42.9934997 117.2469988 113.0039540  43.2539819 116.4235990
  99.1480012  41.5244997 114.8879988  98.9290012  42.0544997 114.1219988
  98.4800012  41.7514997 115.5349988  99.0277600  41.6276906 114.8706379
 106.5170012  51.0244997 108.4319988 106.2210012  50.7024997 107.5809988
 106.1920012  51.9244997 108.4729988 106.4326371  51.1020215 108.3211801
 101.7170012  49.2004997 115.1749988 100.9770012  49.7984997 115.2789988
 102.4310012  49.7544997 114.8599988 101.7122237  49.3572831 115.1466465
 109.8240012  42.0284997 111.1949988 109.6080012  41.2624997 111.7279988
 110.4790012  42.5004997 111.7079988 109.8830632  41.9875889 111.3372861
  98.7410012  43.4164997 112.8399988  99.3550012  44.0494997 113.2129988
  99.2530012  42.9444997 112.1839988  98.8941981  43.4392267 112.8022908
 100.1240012  51.1644997 115.9619988 100.1190012  52.0444997 115.5839988
  99.2710012  51.0814997 116.3869988 100.0079464  51.2736117 115.9677907
  96.2450012  50.8354997 106.7439988  95.9730012  51.0644997 105.8559988
  96.2910012  51.6734997 107.2049988  96.2139482  50.9801318 106.6846273
 109.8700012  52.4574997 113.4569988 108.9290012  52.5154997 113.6189988
 110.1470012  53.3634997 113.3199988 109.7784679  52.5879443 113.4606815
 110.1710012  40.7434997 114.8749988 109.4350012  41.3544997 114.8369988
 110.8540012  41.1584997 114.3479988 110.1626541  40.8831374 114.7985832
 103.1740012  38.8304997 112.3399988 103.0570012  37.8814997 112.2859988
 102.3190012  39.1624997 112.6139988 103.0424212  38.7455571 112.3696497
 108.1220012  54.2384997 110.0819988 108.5480012  53.5314997 109.5969988
 108.4390012  55.0394997 109.6659988 108.2231683  54.2501017 109.9593680
 109.2820012  52.1394997 108.5909988 109.0240012  51.4494997 107.9799988
 109.3530012  51.6964997 109.4369988 109.2562856  51.9852124 108.6216885
 110.9680012  50.7054997 117.0679988 111.1080012  50.1144997 116.3289988
 111.1350012  51.5784997 116.7119988 111.0097411  50.7425428 116.9186894
 105.4410012  47.6674997 106.8409988 104.7290012  48.2024997 106.4889988
 106.1320012  47.7234997 106.1809988 105.4370132  47.7482543 106.7036289
 112.8100012  47.0454997 115.1339988 112.1570012  47.7404997 115.2239988
 113.2750012  47.2554997 114.3249988 112.7835274  47.1690643 115.0368462
 108.8460012  47.8774997 107.7929988 108.1140012  48.1054997 108.3659988
 109.2940012  47.1634997 108.2469988 108.8062725  47.8122145 107.9328816
 108.7440012  46.0514997 116.8599988 108.8240012  46.8144997 117.4319988
 108.1420012  46.3304997 116.1699988 108.6735756  46.1937134 116.8450589
 100.4920012  48.5074997 109.6749988 100.1610012  48.1374997 108.8569988
 101.0800012  47.8374997 110.0219988 100.5261873  48.3661156 109.6098102
 101.8580012  51.9354997 112.3559988 101.7640012  51.3574997 111.5999988
 102.5880012  51.5644997 112.8529988 101.9437387  51.8061663 112.3195342
 100.8580012  47.2764997 113.3089988 101.4240012  47.3974997 112.5459988
 101.1770012  47.9134997 113.9469988 100.9785474  47.3792219 113.2909862
 107.1670012  52.7794997 114.0429988 106.9270012  53.4414997 114.6909988
 106.9690012  51.9454997 114.4679988 107.1073808  52.7573134 114.1891524
 101.7380012  51.6754997 118.0259988 101.4270012  52.4574997 118.4809988
 101.0880012  51.5224997 117.3399988 101.6075558  51.7619105 117.9955871
  98.6580012  47.8734997 117.2539988  98.7290012  48.5244997 117.9529988
  97.7680012  47.9764997 116.9189988  98.5473005  47.9765427 117.3043495
 105.4440012  53.7764997 108.9129988 105.9180012  54.0714997 109.6899988
 104.8810012  54.5144997 108.6799988 105.4328184  53.9167247 108.9879628
  99.9780012  53.7474997 118.7889988  99.9850012  53.6114997 117.8419988
  99.0620012  53.6294997 119.0409988  99.8551714  53.7129430 118.6934666
  99.4820012  47.5774997 107.2639988  99.1900012  48.3454997 106.7739988
  98.8080012  46.9174997 107.1019988  99.3508111  47.5935587 107.1748978
 112.6050012  53.1554997 103.6669988 112.6790012  54.0944997 103.8379988
 113.5110012  52.8504997 103.6109988 112.7375100  53.2426722 103.6828119
  95.5750012  49.9404997 116.0789988  95.0740012  49.9124997 115.2639988
  95.5800012  49.0344997 116.3889988  95.5070944  49.8142396 116.0093226
  95.3250012  52.7204997 112.9629988  96.2710012  52.5764997 112.9439988
  95.2130012  53.5044997 113.4999988  95.4392727  52.8068046 113.0330072
 113.5230012  53.3864997 118.6459988 113.4740012  52.4314997 118.6089988
 112.6960012  53.6544997 119.0469988 113.4044940  53.2918998 118.6951375
 104.5020012  52.9604997 117.5219988 104.5890012  53.7864997 117.9969988
 103.6380012  52.6304997 117.7709988 104.3971964  53.0289878 117.6206549
 104.9160012  56.7324997 107.3279988 104.8410012  56.6114997 106.3809988
 104.9490012  57.6824997 107.4459988 104.9102068  56.8442646 107.2144967
  98.5690012  55.5214997 109.1089988  98.7220012  55.1734997 109.9869988
  97.7190012  55.1654997 108.8539988  98.4749166  55.4256216 109.1948079
 108.0180012  55.8864997 104.3299988 108.3930012  55.1424997 103.8589988
 108.0220012  55.6164997 105.2489988 108.0699125  55.7480986 104.3896483
 107.6870012  55.8124997 107.0789988 106.7510012  55.9124997 107.2579988
 107.9670012  55.1034997 107.6579988 107.5969553  55.7303406 107.1817087
 110.6750012  44.8794997 119.1259988 110.2680012  45.3604997 118.4049988
 110.7160012  43.9744997 118.8179988 110.6248437  44.8229374 118.9856683
  97.8240012  51.2634997 117.1229988  98.0400012  50.9024997 117.9819988
  96.9690012  50.8894997 116.9129988  97.7379292  51.1634111 117.2123386
 100.4430012  39.7334997 113.1179988  99.5810012  39.6464997 112.7099988
 100.4200012  40.5894997 113.5459988 100.3220409  39.8372883 113.1200589
 105.1060012  39.4554997 116.4929988 105.5260012  39.0404997 117.2459988
 104.1730012  39.2774997 116.6099988 105.0373644  39.3745900 116.6119539
 108.4320012  43.2114997 117.3459988 107.9180012  43.0854997 118.1439988
 108.2770012  44.1234997 117.1019988 108.3406852  43.3176132 117.4222158
 100.5340012  44.6994997 114.2129988  99.8920012  44.6584997 114.9219988
 100.5710012  45.6254997 113.9749988 100.4510664  44.8191430 114.2779219
 100.5310012  44.9204997 109.1249988  99.6380012  44.5794997 109.0659988
 100.9810012  44.5434997 108.3689988 100.4698130  44.8229631 109.0147702
 106.0660012  45.3364997 107.9419988 105.6570012  46.1514997 107.6509988
 106.7870012  45.1964997 107.3279988 106.1074537  45.4292018 107.8191342
 105.1680012  45.5114997 119.4299988 104.6060012  44.8074997 119.7509988
 105.9950012  45.3914997 119.8979988 105.2027095  45.3987883 119.5372330
 107.0710012  44.7824997 110.7559988 106.8760012  45.3874997 110.0409988
 107.2520012  43.9484997 110.3219988 107.0687614  44.7526300 110.5994405
  98.2840012  45.0194997 116.0799988  98.2460012  45.4194997 116.9489988
  97.7930012  44.2024997 116.1709988  98.2124684  44.9638069 116.2111059
  94.8920012  42.1354997 109.9309988  95.5230012  42.1064997 110.6499988
  95.3410012  41.7104997 109.1999988  95.0390918  42.0740836 109.9306441
 106.3350012  46.4204997 115.4269988 106.6580012  45.7894997 114.7839988
 105.8950012  45.8854997 116.0879988 106.3197484  46.2618387 115.4283198
 103.1120012  42.3474997 110.2109988 102.2010012  42.4044997 110.4999988
 103.6180012  42.2874997 111.0219988 103.0556899  42.3471941 110.3601184
  97.9410012  43.9764997 109.0379988  97.0510012  44.0764997 108.6979988
  98.2370012  43.1344997 108.6919988  97.8592823  43.8763545 108.9447213
 101.5940012  43.9764997 106.6949988 102.5250012  44.1054997 106.8729988
 101.3790012  44.6464997 106.0449988 101.6924247  44.0846565 106.6315747
 107.5170012  41.5824997 113.4759988 106.8410012  41.7134997 114.1399988
 107.0320012  41.4274997 112.6649988 107.3587146  41.5795157 113.4574469
 110.8050012  57.2544997 119.7519988 111.0050012  57.6784997 118.9179988
 111.4600012  57.5974997 120.3589988 110.9210072  57.3589857 119.7198592
  98.4030012  49.7284997 119.3599988  99.1350012  49.9824997 119.9219988
  97.6230012  49.9324997 119.8759988  98.3977073  49.7908160 119.5066151
 104.4320012  45.1354997 112.0979988 104.9970012  44.5884997 111.5509988
 104.2850012  44.6134997 112.8869988 104.4893380  44.9902259 112.1298695
  99.4340012  41.2714997 108.5169988  99.1170012  40.3694997 108.4809988
 100.2160012  41.2734997 107.9639988  99.4962408  41.1482474 108.4373569
 103.0590012  43.5234997 114.5119988 102.2230012  43.9774997 114.6229988
 103.5830012  43.7994997 115.2639988 103.0155416  43.6228660 114.6288119
 103.6030012  49.7364997 106.1969988 102.8580012  49.2294997 105.8749988
 103.4690012  49.7854997 107.1439988 103.4828776  49.6736940 106.2808647
 110.7530012  48.8694997 114.9839988 111.3950012  49.3264997 114.4399988
 109.9230012  48.9824997 114.5209988 110.7285963  48.9472704 114.8470177
 107.5010012  42.5504997 104.3959988 106.5620012  42.6624997 104.2449988
 107.7980012  43.4074997 104.7029988 107.4127583  42.6815981 104.4168337
 105.1220012  49.9204997 117.4339988 104.7770012  49.5394997 118.2409988
 104.9220012  50.8544997 117.5049988 105.0477527  49.9945135 117.5540689
 108.2190012  44.4174997 106.0569988 109.1110012  44.2804997 106.3759988
 108.2760012  45.2084997 105.5199988 108.3486504  44.5056052 106.0280818
  98.7280012  49.0314997 111.9669988  99.4730012  49.0294997 111.3659988
  98.8060012  48.2084997 112.4479988  98.8404995  48.9198887 111.9498282
 105.7290012  51.1954997 105.2229988 105.4330012  52.0214997 105.6039988
 105.0260012  50.5754997 105.4189988 105.5934914  51.2248199 105.3016443
  95.7360012  47.4924997 117.2819988  95.9590012  47.0744997 118.1139988
  95.1340012  46.8794997 116.8589988  95.6851759  47.3524668 117.3387022
 102.7520012  47.0094997 119.4949988 102.4560012  46.8434997 118.5999988
 103.6840012  46.7894997 119.4839988 102.8374166  46.9570640 119.3710536
 107.3730012  52.3824997 117.3849988 106.4720012  52.5654997 117.1169988
 107.4070012  52.6414997 118.3049988 107.2543139  52.4425849 117.4728099
 113.1040012  44.6274997 105.7519988 112.5500012  44.2314997 105.0799988
 113.2040012  45.5374997 105.4739988 113.0417059  44.6963586 105.6224401
 113.0670012  50.4274997 118.5889988 112.2160012  50.6654997 118.2219988
 113.6580012  50.4104997 117.8359988 113.0302487  50.4578258 118.4368893
 111.3990012  53.4134997 106.2169988 111.0260012  52.5874997 106.5259988
 111.6770012  53.2304997 105.3189988 111.3855222  53.2757430 106.1379473
 108.5600012  48.2214997 113.2379988 107.6310012  47.9894997 113.2109988
 109.0110012  47.4444997 112.9079988 108.4939216  48.0847238 113.1896917
 101.1030012  52.5494997 109.3709988 101.6300012  53.3224997 109.1709988
 100.2230012  52.7744997 109.0689988 101.0562031  52.6857545 109.3027912
  96.8580012  47.4114997 103.9579988  97.4740012  48.0384997 104.3379988
  95.9960012  47.7274997 104.2299988  96.8257698  47.5399430 104.0467183
 102.5300012  50.2124997 108.9469988 102.2890012  51.1374997 108.9889988
 101.7890012  49.7534997 109.3439988 102.3969225  50.2770933 109.0063742
 103.0450012  54.3614997 115.2629988 103.4070012  55.2164997 115.0289988
 103.5760012  54.0694997 116.0029988 103.1664473  54.4391060 115.3310855
 101.2130012  55.2344997 108.4929988 100.2630012  55.3394997 108.5439988
 101.5650012  56.0544997 108.8369988 101.1304195  55.3598800 108.5465502
 106.5890012  50.4604997 114.9629988 106.1630012  50.2334997 115.7899988
 107.1690012  49.7224997 114.7809988 106.6091868  50.3295299 115.0515830
 108.7920012  51.3894997 104.0369988 109.1450012  51.0094997 104.8409988
 107.8430012  51.2964997 104.1239988 108.7120918  51.3248956 104.1588532
 109.2470012  55.0124997 117.4329988 108.6460012  54.4574997 116.9369988
 109.5290012  55.6794997 116.8059988 109.2028804  55.0266625 117.2804849
  97.3700012  42.2454997 116.8399988  96.4770012  42.5844997 116.7719988
  97.2710012  41.3904997 117.2579988  97.2344164  42.1762588 116.8872235
  97.0210012  54.0504997 115.2749988  97.2380012  53.1184997 115.2439988
  97.2670012  54.3244997 116.1579988  97.0839549  53.9600636 115.3901763
  98.2730012  49.3244997 105.4509988  97.5870012  49.6764997 106.0179988
  98.7950012  50.0874997 105.2039988  98.2496852  49.4758578 105.4952118
 106.1040012  41.9864997 115.7299988 106.8030012  42.0604997 116.3799988
 105.7230012  41.1224997 115.8839988 106.1481767  41.8797624 115.8398322
 106.8890012  41.6384997 106.8269988 107.1090012  42.1104997 106.0239988
 107.4470012  42.0334997 107.4969988 106.9944968  41.7564285 106.8077331
 104.5570012  53.7694997 105.6899988 103.7410012  54.2664997 105.7419988
 105.0870012  54.2444997 105.0499988 104.5169161  53.9017722 105.6105956
 104.0890012  43.3664997 107.6619988 104.9010012  43.8714997 107.7079988
 103.8440012  43.2214997 108.5759988 104.1670520  43.4160375 107.7918517
 104.6240012  44.3524997 116.8459988 104.7430012  44.9264997 117.6039988
 105.2800012  43.6644997 116.9609988 104.7289025  44.3379858 116.9651321
 104.9720012  40.4474997 108.5999988 104.6260012  41.0654997 109.2439988
 105.6310012  40.9484997 108.1179988 105.0136968  40.5996278 108.6229383
 101.8960012  54.8134997 105.6709988 102.0560012  55.6124997 105.1709988
 101.6980012  55.1194997 106.5559988 101.8911637  54.9644020 105.7221144
 100.6300012  41.5104997 105.2869988 100.5470012  42.3994997 105.6339988
 101.5200012  41.2454997 105.5189988 100.7389469  41.5961430 105.3657626
 110.8290012  42.2594997 117.6809988 109.9120012  42.5224997 117.5939988
 111.1640012  42.2564997 116.7849988 110.7488613  42.2950761 117.5478837
 109.4310012  46.0104997 111.7769988 108.6330012  45.5954997 111.4489988
 109.8760012  45.3194997 112.2679988 109.3819885  45.8603543 111.7984889
  98.8890012  51.9384997 104.3479988  99.4810012  52.6374997 104.6239988
  99.3480012  51.5054997 103.6279988  99.0321142  51.9757049 104.2884830
  97.2050012  44.6024997 103.4639988  97.1600012  45.5414997 103.6419988
  96.3170012  44.3664997 103.1939988  97.0788574  44.6991892 103.4518912
 110.5170012  55.2664997 113.3999988 110.3620012  55.9444997 112.7419988
 111.4500012  55.3384997 113.6029988 110.6218657  55.3689546 113.3374360
  98.0130012  39.3844997 112.1369988  97.7840012  39.4434997 111.2089988
  97.5700012  38.5924997 112.4429988  97.9218530  39.2855753 112.0514786
  96.9430012  53.3244997 108.2969988  96.1110012  53.7974997 108.3239988
  97.4890012  53.8344997 107.6989988  96.9030352  53.4581332 108.2198463
  96.2310012  55.9374997 119.6269988  96.7720012  55.7204997 120.3869988
  95.7500012  55.1314997 119.4369988  96.2399951  55.7989270 119.7052576
 100.8290012  54.8564997 121.2469988 101.5960012  54.3974997 121.5879988
 100.8070012  54.6304997 120.3179988 100.9311275  54.7630186 121.1680101
 107.4060012  53.2364997 119.9769988 107.0550012  52.3804997 120.2199988
 108.1320012  53.3794997 120.5839988 107.4560769  53.1385636 120.0923619
 109.5250012  54.1814997 102.8559988 109.8080012  53.3874997 103.3089988
 110.2650012  54.4144997 102.2959988 109.6638006  54.1043376 102.8422715
  96.1380012  49.7474997 120.5809988  96.2820012  48.8454997 120.2949988
  95.3660012  50.0334997 120.0939988  96.0532753  49.6626816 120.4759505
 102.7940012  49.7174997 120.0139988 102.4650012  49.9884997 119.1569988
 102.9460012  48.7764997 119.9269988 102.7694809  49.6273862 119.8848244
 105.8320012  51.1384997 102.4499988 105.5630012  51.3184997 103.3509988
 105.6260012  50.2124997 102.3179988 105.7673427  51.0380261 102.5555073
 108.5280012  49.6334997 117.3969988 109.2740012  50.2214997 117.2779988
 107.7710012  50.2154997 117.4609988 108.5277820  49.7927143 117.3893590
  96.9710012  46.9474997 120.0009988  97.3790012  46.0904997 119.8799988
  96.7110012  46.9624997 120.9219988  96.9917568  46.8320807 120.1089588
 100.9180012  45.9564997 117.3759988 100.3000012  46.6314997 117.6559988
 101.2620012  46.2774997 116.5419988 100.8799132  46.0922411 117.3016262
 105.9380012  48.4284997 120.6529988 106.8910012  48.5114997 120.6259988
 105.7770012  47.7164997 121.2729988 106.0466426  48.3436746 120.7330579
 101.2570012  43.3114997 118.4579988 101.4070012  42.5824997 117.8559988
 101.2600012  44.0884997 117.8989988 101.2779302  43.3167851 118.3000692
 101.6700012  41.6814997 115.9509988 102.2060012  42.1324997 115.2989988
 100.8180012  41.5734997 115.5279988 101.6282178  41.7286390 115.8045756
 103.2520012  47.1204997 116.1899988 104.0020012  46.9644997 115.6169988
 102.9130012  47.9724997 115.9149988 103.3088921  47.2142968 116.0743561
 107.6670012  44.9354997 121.2189988 107.8600012  44.0044997 121.1069988
 108.5250012  45.3604997 121.2079988 107.8092934  44.8656531 121.2022031
 108.9840012  47.7244997 119.2959988 108.7030012  48.4334997 118.7179988
 109.9270012  47.6514997 119.1449988 109.0729291  47.8116711 119.1964967
  99.7360012  44.5094997 120.3699988  98.9690012  43.9774997 120.1589988
 100.4150012  44.1994997 119.7699988  99.7227877  44.3948300 120.2600716
 102.4760012  39.1374997 116.3819988 102.3770012  40.0844997 116.2769988
 101.7330012  38.7654997 115.9059988 102.3621184  39.2165863 116.3033621
 103.7400012  43.4594997 119.9459988 103.5040012  43.2394997 120.8469988
 102.9560012  43.2524997 119.4359988 103.6018504  43.4014586 120.0003431
 106.4550012  42.5864997 119.0209988 105.5080012  42.6184997 119.1539988
 106.7680012  41.9614997 119.6749988 106.3676707  42.5063998 119.1276060
 108.0890012  41.2204997 121.0269988 107.9930012  40.2684997 121.0209988
 107.7680012  41.4894997 121.8869988 108.0324070  41.1264035 121.1425441
  97.9160012  42.4304997 120.0739988  98.1280012  41.7234997 119.4639988
  97.8050012  41.9924997 120.9179988  97.9299721  42.2747084 120.1046843
 102.6970012  38.4314997 119.0529988 103.4090012  37.7914997 119.0389988
 102.5960012  38.6984997 118.1399988 102.7808066  38.3800079 118.9275677
 103.0510012  40.1144997 121.1069988 102.9190012  39.6384997 120.2869988
 102.4520012  40.8584997 121.0519988 102.9519071  40.1499618 120.9872886
  94.8150012  57.0264997 108.8439988  94.1680012  56.5644997 108.3109988
  95.1690012  56.3544997 109.4259988  94.7743849  56.8724723 108.8497959
  95.6850012  55.1074997 110.6479988  95.3500012  54.2274997 110.8199988
  95.9070012  55.4524997 111.5129988  95.6691783  55.0337501 110.7884208
 113.2330012  55.9164997 113.6289988 113.2120012  56.1014997 114.5679988
 113.9240012  56.4854997 113.2879988 113.3234618  56.0186606 113.7113864
 112.7970012  55.4844997 116.5509988 112.3090012  54.7484997 116.1789988
 113.3460012  55.0904997 117.2289988 112.8044820  55.3305889 116.5917813
 111.2470012  51.2734997 121.1889988 110.3810012  51.1684997 121.5829988
 111.6240012  52.0324997 121.6349988 111.1793308  51.3616900 121.3032393
 112.5480012  49.5304997 106.7029988 113.3980012  49.9514997 106.8299988
 112.5540012  48.7904997 107.3099988 112.6651372  49.4880803 106.8024344
 112.9430012  47.5834997 108.5259988 112.2160012  47.1044997 108.9239988
 113.5240012  47.7894997 109.2589988 112.9220473  47.5458103 108.6794528
 112.7020012  50.3684997 113.4739988 113.5350012  49.9904997 113.1939988
 112.8140012  51.3114997 113.3549988 112.8312647  50.4442218 113.4195487
 111.1880012  53.2464997 115.7809988 110.5410012  53.5714997 116.4069988
 110.6710012  52.8064997 115.1069988 111.0294029  53.2315004 115.7755827
 113.2110012  47.4844997 104.9179988 112.6890012  47.8414997 104.1989988
 113.1780012  48.1594997 105.5959988 113.1351634  47.6245413 104.9113145
 110.7290012  46.1044997 109.0889988 110.5790012  45.1594997 109.0689988
 110.3760012  46.3854997 109.9329988 110.6607448  46.0131481 109.2003705
  95.7650012  48.1824997 113.0999988  95.9490012  48.1004997 112.1639988
  96.6140012  48.0584997 113.5229988  95.9050151  48.1545073 113.0291451
 111.5860012  48.0744997 118.7279988 112.1690012  47.3404997 118.9199988
 112.1500012  48.8464997 118.7749988 111.7419769  48.0784227 118.7606159
 113.0820012  45.9774997 119.4129988 112.2190012  45.5984997 119.2469988
 113.6870012  45.2384997 119.3379988 113.0456119  45.8258268 119.3801528
 110.4400012  43.6874997 107.5519988 110.7200012  42.7804997 107.6759988
 111.1990012  44.1214997 107.1629988 110.5809277  43.6220942 107.5163682
 111.0520012  44.2684997 112.9879988 111.9850012  44.4804997 112.9529988
 110.8170012  44.3704997 113.9099988 111.1479244  44.3113100 113.1078892
 111.0810012  45.0054997 115.7639988 110.2380012  45.2734997 116.1299988
 111.5230012  45.8274997 115.5529988 111.0254158  45.1533291 115.7855491
  95.3620012  43.4534997 119.2409988  96.2820012  43.3314997 119.4769988
  94.9130012  42.7034997 119.6299988  95.4271580  43.3353727 119.3259006
 113.3640012  38.9854997 121.1169988 113.7140012  38.3314997 120.5119988
 113.5110012  39.8224997 120.6769988 113.4317887  39.0091548 120.9746858
 111.0530012  40.9504997 107.5999988 111.2360012  40.5014997 108.4259988
 110.4540012  40.3654997 107.1369988 110.9970202  40.8099975 107.6503275
  96.5830012  41.7654997 112.1319988  97.0290012  40.9734997 112.4339988
  97.0500012  42.4814997 112.5619988  96.7070831  41.7540685 112.2314006
  94.8870012  44.7644997 113.2009988  95.3790012  44.5434997 112.4099988
  95.2500012  45.6054997 113.4819988  95.0033126  44.8478357 113.1307531
 112.8840012  41.0944997 119.4659988 111.9660012  41.3654997 119.4309988
 113.0070012  40.5594997 118.6819988 112.7749729  41.0592508 119.3551923
  95.2010012  41.0224997 107.2549988  94.2760012  41.2314997 107.1259988
  95.6550012  41.5064997 106.5649988  95.1357292  41.1165343 107.1440720
 109.9720012  56.0064997 109.2009988 110.6240012  55.6594997 108.5929988
 110.4820012  56.4954997 109.8469988 110.1302637  56.0250597 109.2050236
  95.1650012  39.7604997 115.5989988  94.5000012  39.5144997 116.2429988
  94.7220012  40.3824997 115.0219988  95.0141318  39.8109410 115.6090898
  97.3570012  52.9354997 119.7439988  96.5360012  53.1104997 119.2829988
  97.1040012  52.8624997 120.6639988  97.2105585  52.9495544 119.8053561
 100.3110012  53.9104997 116.0019988  99.8860012  54.7194997 115.7199988
 101.2150012  53.9954997 115.6999988 100.3749975  54.0329300 115.9224816
 104.6220012  55.3094997 118.9619988 104.8070012  54.9754997 119.8399988
 105.4680012  55.6184997 118.6399988 104.7617539  55.3056047 119.0385605
 106.9670012  56.5954997 118.2059988 107.6440012  55.9624997 117.9659988
 107.2890012  56.9964997 119.0129988 107.1031637  56.5631154 118.2822793
 111.8840012  39.1844997 117.2849988 111.0720012  39.5094997 116.8979988
 112.1170012  38.4244997 116.7519988 111.8042203  39.1262758 117.1598880
  97.7130012  57.1664997 116.0499988  96.9920012  57.6064997 115.5989988
  97.3470012  56.9154997 116.8979988  97.5649651  57.1927242 116.1029640
 100.1800012  56.7664997 115.0799988  99.3150012  56.8384997 115.4839988
 100.1250012  57.3134997 114.2959988 100.0542085  56.8502685 115.0293362
 104.8900012  56.6544997 114.2549988 104.4340012  57.1834997 113.6009988
 105.0530012  57.2574997 114.9799988 104.8496068  56.8084607 114.2634838
 107.2180012  55.5324997 115.1999988 106.3130012  55.6974997 114.9339988
 107.6470012  56.3854997 115.1349988 107.1521324  55.6704339 115.1547976
 109.8220012  57.1024997 115.4949988 109.6400012  58.0184997 115.2849988
 109.9990012  56.6924997 114.6489988 109.8210210  57.1724822 115.3517885
  97.1270012  55.7894997 112.9599988  97.1090012  55.3644997 113.8169988
  97.9320012  55.4714997 112.5509988  97.2333529  55.6883013 113.0220946
  99.2690012  54.4994997 111.6149988  99.0500012  53.5834997 111.7849988
 100.0930012  54.6394997 112.0809988  99.3504420  54.3930520 111.7012774
 101.8060012  54.9694997 112.4639988 102.0190012  54.0814997 112.1769988
 101.8700012  54.9354997 113.4179988 101.8438232  54.8433102 112.5537397
 105.3140012  40.6334997 111.6079988 104.6400012  40.0044997 111.8639988
 105.8780012  40.1494997 111.0049988 105.2979230  40.4818744 111.5615340
 110.4570012  38.7414997 111.7209988 111.0610012  39.2884997 111.2189988
 109.5870012  39.0604997 111.4799988 110.4221208  38.8595137 111.6196886
 112.1840012  39.8794997 110.0539988 112.7960012  39.3654997 109.5269988
 112.5660012  40.7574997 110.0769988 112.3193371  39.9277866 109.9850041
  97.6410012  39.2674997 109.4299988  96.8640012  39.0334997 108.9229988
  98.1710012  38.4704997 109.4389988  97.6062330  39.1276988 109.3617742
  96.4770012  39.0654997 105.2339988  96.9160012  39.6764997 104.6419988
  95.8440012  39.6034997 105.7079988  96.4514514  39.2219257 105.2170930
 102.2200012  39.1944997 109.2439988 103.0950012  39.5824997 109.2139988
 102.0840012  38.9794997 110.1659988 102.3213695  39.2185184 109.3646440
 107.7770012  39.2244997 110.8929988 107.8530012  39.3194997 109.9429988
 107.5020012  38.3164997 111.0219988 107.7502321  39.1147867 110.7805079
 109.1300012  39.2504997 106.5849988 108.4280012  39.8654997 106.3749988
 108.6860012  38.4124997 106.7159988 108.9736450  39.2215639 106.5739000
  96.3780012  55.0134997 106.1309988  95.6930012  54.9754997 105.4639988
  96.3820012  55.9264997 106.4199988  96.2846998  55.1316733 106.0786771
  98.3380012  40.9814997 103.6759988  98.8300012  40.3514997 103.1489988
  98.9620012  41.2774997 104.3389988  98.4895688  40.9353804 103.6935482
 103.3640012  41.2744997 106.1329988 103.5420012  40.6284997 106.8159988
 103.3110012  42.1084997 106.5999988 103.3811999  41.2988009 106.2895917
 105.2430012  56.2234997 104.5289988 106.1090012  56.5894997 104.3509988
 104.9960012  55.7834997 103.7149988 105.3282392  56.2141756 104.3946289
 111.9520012  55.7864997 107.2079988 111.7570012  55.0384997 106.6429988
 111.9130012  56.5444997 106.6249988 111.9200380  55.7866099 107.0518384
  97.5990012  39.7814997 118.9479988  97.2330012  39.0164997 119.3899988
  98.5120012  39.8104997 119.2339988  97.6722736  39.6805640 119.0472502
  99.5720012  39.1324997 120.4839988 100.4700012  38.8584997 120.2989988
  99.1850012  38.3894997 120.9479988  99.6426612  38.9945914 120.5213643
 107.9930012  38.4644997 120.6659988 108.0700012  38.0384997 121.5199988
 108.8870012  38.4784997 120.3229988 108.1243428  38.4080879 120.7365310
 111.1690012  54.5374997 119.3579988 110.3870012  54.3514997 118.8379988
 111.0970012  55.4664997 119.5759988 111.0522274  54.6376643 119.3163018
 125.5750012  48.4234997 109.3889988 125.6640012  49.3674997 109.2569988
 124.9370012  48.1484997 108.7309988 125.5009081  48.5154830 109.2819614
 124.5080012  47.6784997 112.8079988 124.4700012  47.0324997 113.5129988
 124.1860012  47.2124997 112.0369988 124.4592333  47.5269408 112.8002978
 116.8770012  47.2934997 114.4009988 116.9180012  46.6674997 115.1239988
 117.5800012  47.9174997 114.5829988 116.9776363  47.2921196 114.5246044
 128.2140012  50.6174997 111.1089988 127.7740012  49.8974997 111.5599988
 128.2010012  51.3384997 111.7389988 128.1520226  50.6163731 111.2558494
 117.8000012  51.7434997 112.9359988 117.4310012  50.9414997 112.5659988
 118.7410012  51.5744997 112.9819988 117.8767289  51.6110153 112.8916316
 114.4100012  45.4034997 108.3289988 113.9630012  46.2494997 108.3099988
 113.8490012  44.8234997 107.8129988 114.2729900  45.4409916 108.2566801
 115.1210012  47.5654997 110.4539988 115.3340012  46.7954997 110.9819988
 115.8590012  47.6544997 109.8509988 115.2499044  47.4721968 110.4447123
 125.3260012  55.7224997 111.3209988 125.9460012  55.0454997 111.0479988
 125.1180012  55.5044997 112.2299988 125.3826726  55.6004800 111.4064812
 122.8980012  50.1114997 113.2139988 123.2020012  49.4254997 112.6189988
 123.6190012  50.2294997 113.8319988 123.0370671  50.0336305 113.2161816
 131.5610012  41.7124997 114.0749988 131.6100012  42.3224997 114.8099988
 131.9860012  42.1734997 113.3519988 131.6251746  41.8583796 114.0779175
 126.0390012  44.5054997 113.5409988 126.1810012  43.5594997 113.5619988
 125.9320012  44.7124997 112.6129988 126.0439919  44.4038246 113.4183408
 119.1930012  42.6064997 110.8139988 119.2370012  43.4664997 110.3949988
 118.7360012  42.0544997 110.1799988 119.1372240  42.6494422 110.6709864
 126.9160012  42.7374997 109.2149988 127.5620012  42.4084997 109.8389988
 127.4260012  43.2554997 108.5919988 127.0734299  42.7624450 109.2162731
 115.8140012  45.0034997 111.5759988 116.4670012  44.4534997 112.0079988
 115.8380012  44.7294997 110.6589988 115.9066683  44.8911466 111.5112123
 120.9700012  46.5534997 110.7909988 121.5860012  46.0274997 111.3009988
 120.3840012  45.9134997 110.3879988 120.9750810  46.3949208 110.8063173
 131.9520012  43.1904997 116.3099988 131.2640012  43.8484997 116.2149988
 131.9680012  42.9934997 117.2469988 131.8599540  43.2539819 116.4235990
 118.0040012  41.5244997 114.8879988 117.7850012  42.0544997 114.1219988
 117.3360012  41.7514997 115.5349988 117.8837600  41.6276906 114.8706379
 125.3730012  51.0244997 108.4319988 125.0770012  50.7024997 107.5809988
 125.0480012  51.9244997 108.4729988 125.2886371  51.1020215 108.3211801
 120.5730012  49.2004997 115.1749988 119.8330012  49.7984997 115.2789988
 121.2870012  49.7544997 114.8599988 120.5682237  49.3572831 115.1466465
 128.6800012  42.0284997 111.1949988 128.4640012  41.2624997 111.7279988
 129.3350012  42.5004997 111.7079988 128.7390632  41.9875889 111.3372861
 117.5970012  43.4164997 112.8399988 118.2110012  44.0494997 113.2129988
 118.1090012  42.9444997 112.1839988 117.7501981  43.4392267 112.8022908
 118.9800012  51.1644997 115.9619988 118.9750012  52.0444997 115.5839988
 118.1270012  51.0814997 116.3869988 118.8639464  51.2736117 115.9677907
 115.1010012  50.8354997 106.7439988 114.8290012  51.0644997 105.8559988
 115.1470012  51.6734997 107.2049988 115.0699482  50.9801318 106.6846273
 128.7260012  52.4574997 113.4569988 127.7850012  52.5154997 113.6189988
 129.0030012  53.3634997 113.3199988 128.6344679  52.5879443 113.4606815
 129.0270012  40.7434997 114.8749988 128.2910012  41.3544997 114.8369988
 129.7100012  41.1584997 114.3479988 129.0186541  40.8831374 114.7985832
 122.0300012  38.8304997 112.3399988 121.9130012  37.8814997 112.2859988
 121.1750012  39.1624997 112.6139988 121.8984212  38.7455571 112.3696497
 126.9780012  54.2384997 110.0819988 127.4040012  53.5314997 109.5969988
 127.2950012  55.0394997 109.6659988 127.0791683  54.2501017 109.9593680
 128.1380012  52.1394997 108.5909988 127.8800012  51.4494997 107.9799988
 128.2090012  51.6964997 109.4369988 128.1122856  51.9852124 108.6216885
 129.8240012  50.7054997 117.0679988 129.9640012  50.1144997 116.3289988
 129.9910012  51.5784997 116.7119988 129.8657411  50.7425428 116.9186894
 124.2970012  47.6674997 106.8409988 123.5850012  48.2024997 106.4889988
 124.9880012  47.7234997 106.1809988 124.2930132  47.7482543 106.7036289
 131.6660012  47.0454997 115.1339988 131.0130012  47.7404997 115.2239988
 132.1310012  47.2554997 114.3249988 131.6395274  47.1690643 115.0368462
 127.7020012  47.8774997 107.7929988 126.9700012  48.1054997 108.3659988
 128.1500012  47.1634997 108.2469988 127.6622725  47.8122145 107.9328816
 127.6000012  46.0514997 116.8599988 127.6800012  46.8144997 117.4319988
 126.9980012  46.3304997 116.1699988 127.5295756  46.1937134 116.8450589
 119.3480012  48.5074997 109.6749988 119.0170012  48.1374997 108.8569988
 119.9360012  47.8374997 110.0219988 119.3821873  48.3661156 109.6098102
 120.7140012  51.9354997 112.3559988 120.6200012  51.3574997 111.5999988
 121.4440012  51.5644997 112.8529988 120.7997387  51.8061663 112.3195342
 119.7140012  47.2764997 113.3089988 120.2800012  47.3974997 112.5459988
 120.0330012  47.9134997 113.9469988 119.8345474  47.3792219 113.2909862
 126.0230012  52.7794997 114.0429988 125.7830012  53.4414997 114.6909988
 125.8250012  51.9454997 114.4679988 125.9633808  52.7573134 114.1891524
 120.5940012  51.6754997 118.0259988 120.2830012  52.4574997 118.4809988
 119.9440012  51.5224997 117.3399988 120.4635558  51.7619105 117.9955871
 126.5730012  47.0394997 105.4779988 127.1530012  47.1894997 106.2249988
 126.9870012  47.5104997 104.7539988 126.7082997  47.1236578 105.4824058
 117.5140012  47.8734997 117.2539988 117.5850012  48.5244997 117.9529988
 116.6240012  47.9764997 116.9189988 117.4033005  47.9765427 117.3043495
 124.3000012  53.7764997 108.9129988 124.7740012  54.0714997 109.6899988
 123.7370012  54.5144997 108.6799988 124.2888184  53.9167247 108.9879628
 118.8340012  53.7474997 118.7889988 118.8410012  53.6114997 117.8419988
 117.9180012  53.6294997 119.0409988 118.7111714  53.7129430 118.6934666
 130.2720012  38.7894997 105.2909988 129.3720012  38.9284997 105.5859988
 130.5240012  39.6204997 104.8889988 130.1828702  38.9209074 105.2770205
 118.3380012  47.5774997 107.2639988 118.0460012  48.3454997 106.7739988
 117.6640012  46.9174997 107.1019988 118.2068111  47.5935587 107.1748978
 114.4310012  49.9404997 116.0789988 113.9300012  49.9124997 115.2639988
 114.4360012  49.0344997 116.3889988 114.3630944  49.8142396 116.0093226
 114.1810012  52.7204997 112.9629988 115.1270012  52.5764997 112.9439988
 114.0690012  53.5044997 113.4999988 114.2952727  52.8068046 113.0330072
 132.3790012  53.3864997 118.6459988 132.3300012  52.4314997 118.6089988
 131.5520012  53.6544997 119.0469988 132.2604940  53.2918998 118.6951375
 123.3580012  52.9604997 117.5219988 123.4450012  53.7864997 117.9969988
 122.4940012  52.6304997 117.7709988 123.2531964  53.0289878 117.6206549
 123.7720012  56.7324997 107.3279988 123.6970012  56.6114997 106.3809988
 123.8050012  57.6824997 107.4459988 123.7662068  56.8442646 107.2144967
 117.4250012  55.5214997 109.1089988 117.5780012  55.1734997 109.9869988
 116.5750012  55.1654997 108.8539988 117.3309166  55.4256216 109.1948079
 126.8740012  55.8864997 104.3299988 127.2490012  55.1424997 103.8589988
 126.8780012  55.6164997 105.2489988 126.9259125  55.7480986 104.3896483
 126.5430012  55.8124997 107.0789988 125.6070012  55.9124997 107.2579988
 126.8230012  55.1034997 107.6579988 126.4529553  55.7303406 107.1817087
 129.5310012  44.8794997 119.1259988 129.1240012  45.3604997 118.4049988
 129.5720012  43.9744997 118.8179988 129.4808437  44.8229374 118.9856683
 116.6800012  51.2634997 117.1229988 116.8960012  50.9024997 117.9819988
 115.8250012  50.8894997 116.9129988 116.5939292  51.1634111 117.2123386
 119.2990012  39.7334997 113.1179988 118.4370012  39.6464997 112.7099988
 119.2760012  40.5894997 113.5459988 119.1780409  39.8372883 113.1200589
 123.9620012  39.4554997 116.4929988 124.3820012  39.0404997 117.2459988
 123.0290012  39.2774997 116.6099988 123.8933644  39.3745900 116.6119539
 127.2880012  43.2114997 117.3459988 126.7740012  43.0854997 118.1439988
 127.1330012  44.1234997 117.1019988 127.1966852  43.3176132 117.4222158
 123.6230012  41.9484997 103.7779988 123.3700012  41.9674997 104.7009988
 123.3670012  41.0764997 103.4759988 123.5537481  41.8332558 103.8636175
 119.3900012  44.6994997 114.2129988 118.7480012  44.6584997 114.9219988
 119.4270012  45.6254997 113.9749988 119.3070664  44.8191430 114.2779219
 119.3870012  44.9204997 109.1249988 118.4940012  44.5794997 109.0659988
 119.8370012  44.5434997 108.3689988 119.3258130  44.8229631 109.0147702
 124.9220012  45.3364997 107.9419988 124.5130012  46.1514997 107.6509988
 125.6430012  45.1964997 107.3279988 124.9634537  45.4292018 107.8191342
 124.0240012  45.5114997 119.4299988 123.4620012  44.8074997 119.7509988
 124.8510012  45.3914997 119.8979988 124.0587095  45.3987883 119.5372330
 125.9270012  44.7824997 110.7559988 125.7320012  45.3874997 110.0409988
 126.1080012  43.9484997 110.3219988 125.9247614  44.7526300 110.5994405
 117.1400012  45.0194997 116.0799988 117.1020012  45.4194997 116.9489988
 116.6490012  44.2024997 116.1709988 117.0684684  44.9638069 116.2111059
 120.5060012  42.3934997 102.8789988 120.0750012  41.9484997 103.6089988
 119.7880012  42.7654997 102.3669988 120.3499438  42.3828940 102.9096799
 113.7480012  42.1354997 109.9309988 114.3790012  42.1064997 110.6499988
 114.1970012  41.7104997 109.1999988 113.8950918  42.0740836 109.9306441
 125.1910012  46.4204997 115.4269988 125.5140012  45.7894997 114.7839988
 124.7510012  45.8854997 116.0879988 125.1757484  46.2618387 115.4283198
 121.9680012  42.3474997 110.2109988 121.0570012  42.4044997 110.4999988
 122.4740012  42.2874997 111.0219988 121.9116899  42.3471941 110.3601184
 116.7970012  43.9764997 109.0379988 115.9070012  44.0764997 108.6979988
 117.0930012  43.1344997 108.6919988 116.7152823  43.8763545 108.9447213
 120.4500012  43.9764997 106.6949988 121.3810012  44.1054997 106.8729988
 120.2350012  44.6464997 106.0449988 120.5484247  44.0846565 106.6315747
 126.3730012  41.5824997 113.4759988 125.6970012  41.7134997 114.1399988
 125.8880012  41.4274997 112.6649988 126.2147146  41.5795157 113.4574469
 119.1240012  45.1714997 104.2609988 118.5810012  44.7914997 103.5699988
 119.9570012  45.3654997 103.8329988 119.1623631  45.1457125 104.1084501
 129.6610012  57.2544997 119.7519988 129.8610012  57.6784997 118.9179988
 130.3160012  57.5974997 120.3589988 129.7770072  57.3589857 119.7198592
 117.2590012  49.7284997 119.3599988 117.9910012  49.9824997 119.9219988
 116.4790012  49.9324997 119.8759988 117.2537073  49.7908160 119.5066151
 123.2880012  45.1354997 112.0979988 123.8530012  44.5884997 111.5509988
 123.1410012  44.6134997 112.8869988 123.3453380  44.9902259 112.1298695
 118.2900012  41.2714997 108.5169988 117.9730012  40.3694997 108.4809988
 119.0720012  41.2734997 107.9639988 118.3522408  41.1482474 108.4373569
 121.9150012  43.5234997 114.5119988 121.0790012  43.9774997 114.6229988
 122.4390012  43.7994997 115.2639988 121.8715416  43.6228660 114.6288119
 122.4590012  49.7364997 106.1969988 121.7140012  49.2294997 105.8749988
 122.3250012  49.7854997 107.1439988 122.3388776  49.6736940 106.2808647
 129.6090012  48.8694997 114.9839988 130.2510012  49.3264997 114.4399988
 128.7790012  48.9824997 114.5209988 129.5845963  48.9472704 114.8470177
 123.9780012  49.9204997 117.4339988 123.6330012  49.5394997 118.2409988
 123.7780012  50.8544997 117.5049988 123.9037527  49.9945135 117.5540689
 127.0750012  44.4174997 106.0569988 127.9670012  44.2804997 106.3759988
 127.1320012  45.2084997 105.5199988 127.2046504  44.5056052 106.0280818
 117.5840012  49.0314997 111.9669988 118.3290012  49.0294997 111.3659988
 117.6620012  48.2084997 112.4479988 117.6964995  48.9198887 111.9498282
 124.5850012  51.1954997 105.2229988 124.2890012  52.0214997 105.6039988
 123.8820012  50.5754997 105.4189988 124.4494914  51.2248199 105.3016443
 114.5920012  47.4924997 117.2819988 114.8150012  47.0744997 118.1139988
 113.9900012  46.8794997 116.8589988 114.5411759  47.3524668 117.3387022
 121.6080012  47.0094997 119.4949988 121.3120012  46.8434997 118.5999988
 122.5400012  46.7894997 119.4839988 121.6934166  46.9570640 119.3710536
 126.2290012  52.3824997 117.3849988 125.3280012  52.5654997 117.1169988
 126.2630012  52.6414997 118.3049988 126.1103139  52.4425849 117.4728099
 131.9230012  50.4274997 118.5889988 131.0720012  50.6654997 118.2219988
 132.5140012  50.4104997 117.8359988 131.8862487  50.4578258 118.4368893
 130.2550012  53.4134997 106.2169988 129.8820012  52.5874997 106.5259988
 130.5330012  53.2304997 105.3189988 130.2415222  53.2757430 106.1379473
 127.4160012  48.2214997 113.2379988 126.4870012  47.9894997 113.2109988
 127.8670012  47.4444997 112.9079988 127.3499216  48.0847238 113.1896917
 119.9590012  52.5494997 109.3709988 120.4860012  53.3224997 109.1709988
 119.0790012  52.7744997 109.0689988 119.9122031  52.6857545 109.3027912
 115.7140012  47.4114997 103.9579988 116.3300012  48.0384997 104.3379988
 114.8520012  47.7274997 104.2299988 115.6817698  47.5399430 104.0467183
 121.3860012  50.2124997 108.9469988 121.1450012  51.1374997 108.9889988
 120.6450012  49.7534997 109.3439988 121.2529225  50.2770933 109.0063742
 121.9010012  54.3614997 115.2629988 122.2630012  55.2164997 115.0289988
 122.4320012  54.0694997 116.0029988 122.0224473  54.4391060 115.3310855
 120.0690012  55.2344997 108.4929988 119.1190012  55.3394997 108.5439988
 120.4210012  56.0544997 108.8369988 119.9864195  55.3598800 108.5465502
 125.4450012  50.4604997 114.9629988 125.0190012  50.2334997 115.7899988
 126.0250012  49.7224997 114.7809988 125.4651868  50.3295299 115.0515830
 128.1030012  55.0124997 117.4329988 127.5020012  54.4574997 116.9369988
 128.3850012  55.6794997 116.8059988 128.0588804  55.0266625 117.2804849
 116.2260012  42.2454997 116.8399988 115.3330012  42.5844997 116.7719988
 116.1270012  41.3904997 117.2579988 116.0904164  42.1762588 116.8872235
 128.5140012  50.0624997 106.2639988 128.2360012  49.3344997 106.8199988
 129.4410012  50.1814997 106.4689988 128.6013124  49.9788802 106.3678845
 115.8770012  54.0504997 115.2749988 116.0940012  53.1184997 115.2439988
 116.1230012  54.3244997 116.1579988 115.9399549  53.9600636 115.3901763
 120.6760012  52.0714997 104.9399988 120.8220012  51.5514997 105.7299988
 120.6730012  52.9784997 105.2469988 120.6955792  52.1228842 105.0896117
 117.1290012  49.3244997 105.4509988 116.4430012  49.6764997 106.0179988
 117.6510012  50.0874997 105.2039988 117.1056852  49.4758578 105.4952118
 124.9600012  41.9864997 115.7299988 125.6590012  42.0604997 116.3799988
 124.5790012  41.1224997 115.8839988 125.0041767  41.8797624 115.8398322
 125.7450012  41.6384997 106.8269988 125.9650012  42.1104997 106.0239988
 126.3030012  42.0334997 107.4969988 125.8504968  41.7564285 106.8077331
 123.4130012  53.7694997 105.6899988 122.5970012  54.2664997 105.7419988
 123.9430012  54.2444997 105.0499988 123.3729161  53.9017722 105.6105956
 122.9450012  43.3664997 107.6619988 123.7570012  43.8714997 107.7079988
 122.7000012  43.2214997 108.5759988 123.0230520  43.4160375 107.7918517
 123.4800012  44.3524997 116.8459988 123.5990012  44.9264997 117.6039988
 124.1360012  43.6644997 116.9609988 123.5849025  44.3379858 116.9651321
 123.8280012  40.4474997 108.5999988 123.4820012  41.0654997 109.2439988
 124.4870012  40.9484997 108.1179988 123.8696968  40.5996278 108.6229383
 120.7520012  54.8134997 105.6709988 120.9120012  55.6124997 105.1709988
 120.5540012  55.1194997 106.5559988 120.7471637  54.9644020 105.7221144
 129.6850012  42.2594997 117.6809988 128.7680012  42.5224997 117.5939988
 130.0200012  42.2564997 116.7849988 129.6048613  42.2950761 117.5478837
 128.2870012  46.0104997 111.7769988 127.4890012  45.5954997 111.4489988
 128.7320012  45.3194997 112.2679988 128.2379885  45.8603543 111.7984889
 117.7450012  51.9384997 104.3479988 118.3370012  52.6374997 104.6239988
 118.2040012  51.5054997 103.6279988 117.8881142  51.9757049 104.2884830
 129.3730012  55.2664997 113.3999988 129.2180012  55.9444997 112.7419988
 130.3060012  55.3384997 113.6029988 129.4778657  55.3689546 113.3374360
 116.8690012  39.3844997 112.1369988 116.6400012  39.4434997 111.2089988
 116.4260012  38.5924997 112.4429988 116.7778530  39.2855753 112.0514786
 115.7990012  53.3244997 108.2969988 114.9670012  53.7974997 108.3239988
 116.3450012  53.8344997 107.6989988 115.7590352  53.4581332 108.2198463
 115.0870012  55.9374997 119.6269988 115.6280012  55.7204997 120.3869988
 114.6060012  55.1314997 119.4369988 115.0959951  55.7989270 119.7052576
 119.6850012  54.8564997 121.2469988 120.4520012  54.3974997 121.5879988
 119.6630012  54.6304997 120.3179988 119.7871275  54.7630186 121.1680101
 126.2620012  53.2364997 119.9769988 125.9110012  52.3804997 120.2199988
 126.9880012  53.3794997 120.5839988 126.3120769  53.1385636 120.0923619
 114.9940012  49.7474997 120.5809988 115.1380012  48.8454997 120.2949988
 114.2220012  50.0334997 120.0939988 114.9092753  49.6626816 120.4759505
 119.3360012  50.0914997 102.7139988 119.4000012  49.2974997 103.2449988
 119.9890012  49.9724997 102.0239988 119.4330241  49.9667148 102.6934317
 121.6500012  49.7174997 120.0139988 121.3210012  49.9884997 119.1569988
 121.8020012  48.7764997 119.9269988 121.6254809  49.6273862 119.8848244
 127.3840012  49.6334997 117.3969988 128.1300012  50.2214997 117.2779988
 126.6270012  50.2154997 117.4609988 127.3837820  49.7927143 117.3893590
 115.8270012  46.9474997 120.0009988 116.2350012  46.0904997 119.8799988
 115.5670012  46.9624997 120.9219988 115.8477568  46.8320807 120.1089588
 120.4850012  48.0634997 105.0199988 120.0250012  47.5794997 105.7059988
 120.7400012  47.3954997 104.3839988 120.4564902  47.9068731 105.0279334
 119.7740012  45.9564997 117.3759988 119.1560012  46.6314997 117.6559988
 120.1180012  46.2774997 116.5419988 119.7359132  46.0922411 117.3016262
 124.7940012  48.4284997 120.6529988 125.7470012  48.5114997 120.6259988
 124.6330012  47.7164997 121.2729988 124.9026426  48.3436746 120.7330579
 120.1130012  43.3114997 118.4579988 120.2630012  42.5824997 117.8559988
 120.1160012  44.0884997 117.8989988 120.1339302  43.3167851 118.3000692
 120.5260012  41.6814997 115.9509988 121.0620012  42.1324997 115.2989988
 119.6740012  41.5734997 115.5279988 120.4842178  41.7286390 115.8045756
 122.1080012  47.1204997 116.1899988 122.8580012  46.9644997 115.6169988
 121.7690012  47.9724997 115.9149988 122.1648921  47.2142968 116.0743561
 126.5230012  44.9354997 121.2189988 126.7160012  44.0044997 121.1069988
 127.3810012  45.3604997 121.2079988 126.6652934  44.8656531 121.2022031
 127.8400012  47.7244997 119.2959988 127.5590012  48.4334997 118.7179988
 128.7830012  47.6514997 119.1449988 127.9289291  47.8116711 119.1964967
 118.5920012  44.5094997 120.3699988 117.8250012  43.9774997 120.1589988
 119.2710012  44.1994997 119.7699988 118.5787877  44.3948300 120.2600716
 121.3320012  39.1374997 116.3819988 121.2330012  40.0844997 116.2769988
 120.5890012  38.7654997 115.9059988 121.2181184  39.2165863 116.3033621
 122.5960012  43.4594997 119.9459988 122.3600012  43.2394997 120.8469988
 121.8120012  43.2524997 119.4359988 122.4578504  43.4014586 120.0003431
 125.3110012  42.5864997 119.0209988 124.3640012  42.6184997 119.1539988
 125.6240012  41.9614997 119.6749988 125.2236707  42.5063998 119.1276060
 126.9450012  41.2204997 121.0269988 126.8490012  40.2684997 121.0209988
 126.6240012  41.4894997 121.8869988 126.8884070  41.1264035 121.1425441
 116.7720012  42.4304997 120.0739988 116.9840012  41.7234997 119.4639988
 116.6610012  41.9924997 120.9179988 116.7859721  42.2747084 120.1046843
 121.5530012  38.4314997 119.0529988 122.2650012  37.7914997 119.0389988
 121.4520012  38.6984997 118.1399988 121.6368066  38.3800079 118.9275677
 121.9070012  40.1144997 121.1069988 121.7750012  39.6384997 120.2869988
 121.3080012  40.8584997 121.0519988 121.8079071  40.1499618 120.9872886
 115.0220012  51.6334997 103.7659988 115.9360012  51.7124997 104.0399988
 115.0290012  50.9464997 103.0999988 115.1481131  51.5513961 103.7134393
 113.6710012  57.0264997 108.8439988 113.0240012  56.5644997 108.3109988
 114.0250012  56.3544997 109.4259988 113.6303849  56.8724723 108.8497959
 114.5410012  55.1074997 110.6479988 114.2060012  54.2274997 110.8199988
 114.7630012  55.4524997 111.5129988 114.5251783  55.0337500 110.7884208
 132.0890012  55.9164997 113.6289988 132.0680012  56.1014997 114.5679988
 132.7800012  56.4854997 113.2879988 132.1794618  56.0186606 113.7113864
 131.6530012  55.4844997 116.5509988 131.1650012  54.7484997 116.1789988
 132.2020012  55.0904997 117.2289988 131.6604820  55.3305889 116.5917813
 130.1030012  51.2734997 121.1889988 129.2370012  51.1684997 121.5829988
 130.4800012  52.0324997 121.6349988 130.0353308  51.3616900 121.3032393
 131.4040012  49.5304997 106.7029988 132.2540012  49.9514997 106.8299988
 131.4100012  48.7904997 107.3099988 131.5211372  49.4880803 106.8024344
 131.7990012  47.5834997 108.5259988 131.0720012  47.1044997 108.9239988
 132.3800012  47.7894997 109.2589988 131.7780473  47.5458103 108.6794528
 131.5580012  50.3684997 113.4739988 132.3910012  49.9904997 113.1939988
 131.6700012  51.3114997 113.3549988 131.6872647  50.4442218 113.4195487
 130.0440012  53.2464997 115.7809988 129.3970012  53.5714997 116.4069988
 129.5270012  52.8064997 115.1069988 129.8854029  53.2315004 115.7755827
 132.0670012  47.4844997 104.9179988 131.5450012  47.8414997 104.1989988
 132.0340012  48.1594997 105.5959988 131.9911634  47.6245413 104.9113145
 129.5850012  46.1044997 109.0889988 129.4350012  45.1594997 109.0689988
 129.2320012  46.3854997 109.9329988 129.5167448  46.0131481 109.2003705
 114.6210012  48.1824997 113.0999988 114.8050012  48.1004997 112.1639988
 115.4700012  48.0584997 113.5229988 114.7610151  48.1545073 113.0291451
 130.4420012  48.0744997 118.7279988 131.0250012  47.3404997 118.9199988
 131.0060012  48.8464997 118.7749988 130.5979769  48.0784227 118.7606159
 131.9380012  45.9774997 119.4129988 131.0750012  45.5984997 119.2469988
 132.5430012  45.2384997 119.3379988 131.9016119  45.8258268 119.3801528
 129.2960012  43.6874997 107.5519988 129.5760012  42.7804997 107.6759988
 130.0550012  44.1214997 107.1629988 129.4369277  43.6220942 107.5163682
 129.9080012  44.2684997 112.9879988 130.8410012  44.4804997 112.9529988
 129.6730012  44.3704997 113.9099988 130.0039244  44.3113100 113.1078892
 129.9370012  45.0054997 115.7639988 129.0940012  45.2734997 116.1299988
 130.3790012  45.8274997 115.5529988 129.8814158  45.1533291 115.7855491
 114.2180012  43.4534997 119.2409988 115.1380012  43.3314997 119.4769988
 113.7690012  42.7034997 119.6299988 114.2831580  43.3353727 119.3259006
 132.2200012  38.9854997 121.1169988 132.5700012  38.3314997 120.5119988
 132.3670012  39.8224997 120.6769988 132.2877887  39.0091548 120.9746858
 129.9090012  40.9504997 107.5999988 130.0920012  40.5014997 108.4259988
 129.3100012  40.3654997 107.1369988 129.8530202  40.8099975 107.6503275
 115.4390012  41.7654997 112.1319988 115.8850012  40.9734997 112.4339988
 115.9060012  42.4814997 112.5619988 115.5630831  41.7540685 112.2314006
 113.7430012  44.7644997 113.2009988 114.2350012  44.5434997 112.4099988
 114.1060012  45.6054997 113.4819988 113.8593126  44.8478357 113.1307531
 131.7400012  41.0944997 119.4659988 130.8220012  41.3654997 119.4309988
 131.8630012  40.5594997 118.6819988 131.6309729  41.0592508 119.3551923
 114.0570012  41.0224997 107.2549988 113.1320012  41.2314997 107.1259988
 114.5110012  41.5064997 106.5649988 113.9917292  41.1165343 107.1440720
 128.8280012  56.0064997 109.2009988 129.4800012  55.6594997 108.5929988
 129.3380012  56.4954997 109.8469988 128.9862637  56.0250597 109.2050236
 114.0210012  39.7604997 115.5989988 113.3560012  39.5144997 116.2429988
 113.5780012  40.3824997 115.0219988 113.8701318  39.8109410 115.6090898
 116.2130012  52.9354997 119.7439988 115.3920012  53.1104997 119.2829988
 115.9600012  52.8624997 120.6639988 116.0665585  52.9495544 119.8053561
 119.1670012  53.9104997 116.0019988 118.7420012  54.7194997 115.7199988
 120.0710012  53.9954997 115.6999988 119.2309975  54.0329300 115.9224816
 123.4780012  55.3094997 118.9619988 123.6630012  54.9754997 119.8399988
 124.3240012  55.6184997 118.6399988 123.6177539  55.3056047 119.0385605
 125.8230012  56.5954997 118.2059988 126.5000012  55.9624997 117.9659988
 126.1450012  56.9964997 119.0129988 125.9591637  56.5631154 118.2822793
 130.7400012  39.1844997 117.2849988 129.9280012  39.5094997 116.8979988
 130.9730012  38.4244997 116.7519988 130.6602203  39.1262758 117.1598880
 116.5690012  57.1664997 116.0499988 115.8480012  57.6064997 115.5989988
 116.2030012  56.9154997 116.8979988 116.4209651  57.1927242 116.1029640
 119.0360012  56.7664997 115.0799988 118.1710012  56.8384997 115.4839988
 118.9810012  57.3134997 114.2959988 118.9102085  56.8502685 115.0293362
 123.7460012  56.6544997 114.2549988 123.2900012  57.1834997 113.6009988
 123.9090012  57.2574997 114.9799988 123.7056068  56.8084607 114.2634838
 126.0740012  55.5324997 115.1999988 125.1690012  55.6974997 114.9339988
 126.5030012  56.3854997 115.1349988 126.0081324  55.6704339 115.1547976
 128.6780012  57.1024997 115.4949988 128.4960012  58.0184997 115.2849988
 128.8550012  56.6924997 114.6489988 128.6770210  57.1724822 115.3517885
 115.9830012  55.7894997 112.9599988 115.9650012  55.3644997 113.8169988
 116.7880012  55.4714997 112.5509988 116.0893529  55.6883013 113.0220946
 118.1250012  54.4994997 111.6149988 117.9060012  53.5834997 111.7849988
 118.9490012  54.6394997 112.0809988 118.2064420  54.3930520 111.7012774
 120.6620012  54.9694997 112.4639988 120.8750012  54.0814997 112.1769988
 120.7260012  54.9354997 113.4179988 120.6998232  54.8433102 112.5537397
 124.1700012  40.6334997 111.6079988 123.4960012  40.0044997 111.8639988
 124.7340012  40.1494997 111.0049988 124.1539230  40.4818744 111.5615340
 129.3130012  38.7414997 111.7209988 129.9170012  39.2884997 111.2189988
 128.4430012  39.0604997 111.4799988 129.2781208  38.8595137 111.6196886
 131.0400012  39.8794997 110.0539988 131.6520012  39.3654997 109.5269988
 131.4220012  40.7574997 110.0769988 131.1753371  39.9277866 109.9850041
 116.4970012  39.2674997 109.4299988 115.7200012  39.0334997 108.9229988
 117.0270012  38.4704997 109.4389988 116.4622330  39.1276988 109.3617742
 115.3330012  39.0654997 105.2339988 115.7720012  39.6764997 104.6419988
 114.7000012  39.6034997 105.7079988 115.3074514  39.2219257 105.2170930
 121.0760012  39.1944997 109.2439988 121.9510012  39.5824997 109.2139988
 120.9400012  38.9794997 110.1659988 121.1773695  39.2185184 109.3646440
 126.6330012  39.2244997 110.8929988 126.7090012  39.3194997 109.9429988
 126.3580012  38.3164997 111.0219988 126.6062321  39.1147867 110.7805079
 127.9860012  39.2504997 106.5849988 127.2840012  39.8654997 106.3749988
 127.5420012  38.4124997 106.7159988 127.8296450  39.2215639 106.5739000
 122.2200012  41.2744997 106.1329988 122.3980012  40.6284997 106.8159988
 122.1670012  42.1084997 106.5999988 122.2371999  41.2988009 106.2895917
 124.0990012  56.2234997 104.5289988 124.9650012  56.5894997 104.3509988
 123.8520012  55.7834997 103.7149988 124.1842392  56.2141756 104.3946289
 130.8080012  55.7864997 107.2079988 130.6130012  55.0384997 106.6429988
 130.7690012  56.5444997 106.6249988 130.7760380  55.7866099 107.0518384
 116.4550012  39.7814997 118.9479988 116.0890012  39.0164997 119.3899988
 117.3680012  39.8104997 119.2339988 116.5282736  39.6805640 119.0472502
 118.4280012  39.1324997 120.4839988 119.3260012  38.8584997 120.2989988
 118.0410012  38.3894997 120.9479988 118.4986612  38.9945914 120.5213643
 126.8490012  38.4644997 120.6659988 126.9260012  38.0384997 121.5199988
 127.7430012  38.4784997 120.3229988 126.9803428  38.4080879 120.7365310
 130.0250012  54.5374997 119.3579988 129.2430012  54.3514997 118.8379988
 129.9530012  55.4664997 119.5759988 129.9082274  54.6376643 119.3163018
 144.4310012  48.4234997 109.3889988 144.5200012  49.3674997 109.2569988
 143.7930012  48.1484997 108.7309988 144.3569081  48.5154830 109.2819614
 143.3640012  47.6784997 112.8079988 143.3260012  47.0324997 113.5129988
 143.0420012  47.2124997 112.0369988 143.3152333  47.5269408 112.8002978
 135.7330012  47.2934997 114.4009988 135.7740012  46.6674997 115.1239988
 136.4360012  47.9174997 114.5829988 135.8336363  47.2921196 114.5246044
 136.6560012  51.7434997 112.9359988 136.2870012  50.9414997 112.5659988
 137.5970012  51.5744997 112.9819988 136.7327289  51.6110153 112.8916316
 133.2660012  45.4034997 108.3289988 132.8190012  46.2494997 108.3099988
 132.7050012  44.8234997 107.8129988 133.1289900  45.4409916 108.2566801
 133.9770012  47.5654997 110.4539988 134.1900012  46.7954997 110.9819988
 134.7150012  47.6544997 109.8509988 134.1059044  47.4721968 110.4447123
 144.1820012  55.7224997 111.3209988 144.8020012  55.0454997 111.0479988
 143.9740012  55.5044997 112.2299988 144.2386726  55.6004800 111.4064812
 141.7540012  50.1114997 113.2139988 142.0580012  49.4254997 112.6189988
 142.4750012  50.2294997 113.8319988 141.8930671  50.0336305 113.2161816
 144.8950012  44.5054997 113.5409988 145.0370012  43.5594997 113.5619988
 144.7880012  44.7124997 112.6129988 144.8999919  44.4038246 113.4183408
 138.0490012  42.6064997 110.8139988 138.0930012  43.4664997 110.3949988
 137.5920012  42.0544997 110.1799988 137.9932240  42.6494422 110.6709864
 134.6700012  45.0034997 111.5759988 135.3230012  44.4534997 112.0079988
 134.6940012  44.7294997 110.6589988 134.7626683  44.8911466 111.5112123
 139.8260012  46.5534997 110.7909988 140.4420012  46.0274997 111.3009988
 139.2400012  45.9134997 110.3879988 139.8310810  46.3949208 110.8063173
 136.8600012  41.5244997 114.8879988 136.6410012  42.0544997 114.1219988
 136.1920012  41.7514997 115.5349988 136.7397600  41.6276906 114.8706379
 144.2290012  51.0244997 108.4319988 143.9330012  50.7024997 107.5809988
 143.9040012  51.9244997 108.4729988 144.1446371  51.1020215 108.3211801
 139.4290012  49.2004997 115.1749988 138.6890012  49.7984997 115.2789988
 140.1430012  49.7544997 114.8599988 139.4242237  49.3572831 115.1466465
 136.4530012  43.4164997 112.8399988 137.0670012  44.0494997 113.2129988
 136.9650012  42.9444997 112.1839988 136.6061981  43.4392267 112.8022908
 137.8360012  51.1644997 115.9619988 137.8310012  52.0444997 115.5839988
 136.9830012  51.0814997 116.3869988 137.7199464  51.2736117 115.9677907
 133.9570012  50.8354997 106.7439988 133.6850012  51.0644997 105.8559988
 134.0030012  51.6734997 107.2049988 133.9259482  50.9801318 106.6846273
 140.8860012  38.8304997 112.3399988 140.7690012  37.8814997 112.2859988
 140.0310012  39.1624997 112.6139988 140.7544212  38.7455571 112.3696497
 143.1530012  47.6674997 106.8409988 142.4410012  48.2024997 106.4889988
 143.8440012  47.7234997 106.1809988 143.1490132  47.7482543 106.7036289
 143.2060012  46.1254997 103.8799988 143.9070012  46.1474997 104.5309988
 143.5090012  45.4974997 103.2229988 143.3428133  46.0437070 103.8803369
 138.2040012  48.5074997 109.6749988 137.8730012  48.1374997 108.8569988
 138.7920012  47.8374997 110.0219988 138.2381873  48.3661156 109.6098102
 139.5700012  51.9354997 112.3559988 139.4760012  51.3574997 111.5999988
 140.3000012  51.5644997 112.8529988 139.6557387  51.8061663 112.3195342
 138.5700012  47.2764997 113.3089988 139.1360012  47.3974997 112.5459988
 138.8890012  47.9134997 113.9469988 138.6905474  47.3792219 113.2909862
 144.8790012  52.7794997 114.0429988 144.6390012  53.4414997 114.6909988
 144.6810012  51.9454997 114.4679988 144.8193808  52.7573134 114.1891524
 139.4500012  51.6754997 118.0259988 139.1390012  52.4574997 118.4809988
 138.8000012  51.5224997 117.3399988 139.3195558  51.7619105 117.9955871
 136.3700012  47.8734997 117.2539988 136.4410012  48.5244997 117.9529988
 135.4800012  47.9764997 116.9189988 136.2593005  47.9765427 117.3043495
 143.1560012  53.7764997 108.9129988 143.6300012  54.0714997 109.6899988
 142.5930012  54.5144997 108.6799988 143.1448184  53.9167247 108.9879628
 137.6900012  53.7474997 118.7889988 137.6970012  53.6114997 117.8419988
 136.7740012  53.6294997 119.0409988 137.5671714  53.7129430 118.6934666
 133.2870012  49.9404997 116.0789988 132.7860012  49.9124997 115.2639988
 133.2920012  49.0344997 116.3889988 133.2190944  49.8142396 116.0093226
 133.0370012  52.7204997 112.9629988 133.9830012  52.5764997 112.9439988
 132.9250012  53.5044997 113.4999988 133.1512727  52.8068046 113.0330072
 142.2140012  52.9604997 117.5219988 142.3010012  53.7864997 117.9969988
 141.3500012  52.6304997 117.7709988 142.1091964  53.0289878 117.6206549
 142.6280012  56.7324997 107.3279988 142.5530012  56.6114997 106.3809988
 142.6610012  57.6824997 107.4459988 142.6222068  56.8442646 107.2144967
 136.2810012  55.5214997 109.1089988 136.4340012  55.1734997 109.9869988
 135.4310012  55.1654997 108.8539988 136.1869166  55.4256216 109.1948079
 135.5360012  51.2634997 117.1229988 135.7520012  50.9024997 117.9819988
 134.6810012  50.8894997 116.9129988 135.4499292  51.1634111 117.2123386
 138.1550012  39.7334997 113.1179988 137.2930012  39.6464997 112.7099988
 138.1320012  40.5894997 113.5459988 138.0340409  39.8372883 113.1200589
 142.8180012  39.4554997 116.4929988 143.2380012  39.0404997 117.2459988
 141.8850012  39.2774997 116.6099988 142.7493644  39.3745900 116.6119539
 142.4790012  41.9484997 103.7779988 142.2260012  41.9674997 104.7009988
 142.2230012  41.0764997 103.4759988 142.4097481  41.8332558 103.8636175
 138.2460012  44.6994997 114.2129988 137.6040012  44.6584997 114.9219988
 138.2830012  45.6254997 113.9749988 138.1630664  44.8191430 114.2779219
 138.2430012  44.9204997 109.1249988 137.3500012  44.5794997 109.0659988
 138.6930012  44.5434997 108.3689988 138.1818130  44.8229631 109.0147702
 143.7780012  45.3364997 107.9419988 143.3690012  46.1514997 107.6509988
 144.4990012  45.1964997 107.3279988 143.8194537  45.4292018 107.8191342
 142.8800012  45.5114997 119.4299988 142.3180012  44.8074997 119.7509988
 143.7070012  45.3914997 119.8979988 142.9147095  45.3987883 119.5372330
 144.7830012  44.7824997 110.7559988 144.5880012  45.3874997 110.0409988
 144.9640012  43.9484997 110.3219988 144.7807614  44.7526300 110.5994405
 135.9960012  45.0194997 116.0799988 135.9580012  45.4194997 116.9489988
 135.5050012  44.2024997 116.1709988 135.9244684  44.9638069 116.2111059
 132.6040012  42.1354997 109.9309988 133.2350012  42.1064997 110.6499988
 133.0530012  41.7104997 109.1999988 132.7510918  42.0740836 109.9306441
 144.0470012  46.4204997 115.4269988 144.3700012  45.7894997 114.7839988
 143.6070012  45.8854997 116.0879988 144.0317484  46.2618387 115.4283198
 140.8240012  42.3474997 110.2109988 139.9130012  42.4044997 110.4999988
 141.3300012  42.2874997 111.0219988 140.7676899  42.3471941 110.3601184
 135.6530012  43.9764997 109.0379988 134.7630012  44.0764997 108.6979988
 135.9490012  43.1344997 108.6919988 135.5712823  43.8763545 108.9447213
 139.3060012  43.9764997 106.6949988 140.2370012  44.1054997 106.8729988
 139.0910012  44.6464997 106.0449988 139.4044247  44.0846565 106.6315747
 136.1150012  49.7284997 119.3599988 136.8470012  49.9824997 119.9219988
 135.3350012  49.9324997 119.8759988 136.1097073  49.7908160 119.5066151
 142.1440012  45.1354997 112.0979988 142.7090012  44.5884997 111.5509988
 141.9970012  44.6134997 112.8869988 142.2013380  44.9902259 112.1298695
 137.1460012  41.2714997 108.5169988 136.8290012  40.3694997 108.4809988
 137.9280012  41.2734997 107.9639988 137.2082408  41.1482474 108.4373569
 140.7710012  43.5234997 114.5119988 139.9350012  43.9774997 114.6229988
 141.2950012  43.7994997 115.2639988 140.7275416  43.6228660 114.6288119
 141.3150012  49.7364997 106.1969988 140.5700012  49.2294997 105.8749988
 141.1810012  49.7854997 107.1439988 141.1948776  49.6736940 106.2808647
 142.8340012  49.9204997 117.4339988 142.4890012  49.5394997 118.2409988
 142.6340012  50.8544997 117.5049988 142.7597527  49.9945135 117.5540689
 136.4400012  49.0314997 111.9669988 137.1850012  49.0294997 111.3659988
 136.5180012  48.2084997 112.4479988 136.5524995  48.9198887 111.9498282
 143.4410012  51.1954997 105.2229988 143.1450012  52.0214997 105.6039988
 142.7380012  50.5754997 105.4189988 143.3054914  51.2248199 105.3016443
 133.4480012  47.4924997 117.2819988 133.6710012  47.0744997 118.1139988
 132.8460012  46.8794997 116.8589988 133.3971759  47.3524668 117.3387022
 140.4640012  47.0094997 119.4949988 140.1680012  46.8434997 118.5999988
 141.3960012  46.7894997 119.4839988 140.5494166  46.9570640 119.3710536
 138.8150012  52.5494997 109.3709988 139.3420012  53.3224997 109.1709988
 137.9350012  52.7744997 109.0689988 138.7682031  52.6857545 109.3027912
 140.2420012  50.2124997 108.9469988 140.0010012  51.1374997 108.9889988
 139.5010012  49.7534997 109.3439988 140.1089225  50.2770933 109.0063742
 140.7570012  54.3614997 115.2629988 141.1190012  55.2164997 115.0289988
 141.2880012  54.0694997 116.0029988 140.8784473  54.4391060 115.3310855
 138.9250012  55.2344997 108.4929988 137.9750012  55.3394997 108.5439988
 139.2770012  56.0544997 108.8369988 138.8424195  55.3598800 108.5465502
 144.3010012  50.4604997 114.9629988 143.8750012  50.2334997 115.7899988
 144.8810012  49.7224997 114.7809988 144.3211868  50.3295299 115.0515830
 135.0820012  42.2454997 116.8399988 134.1890012  42.5844997 116.7719988
 134.9830012  41.3904997 117.2579988 134.9464164  42.1762588 116.8872235
 134.7330012  54.0504997 115.2749988 134.9500012  53.1184997 115.2439988
 134.9790012  54.3244997 116.1579988 134.7959549  53.9600636 115.3901763
 140.5950012  52.5014997 102.4839988 140.8340012  51.7534997 101.9369988
 140.3260012  52.1134997 103.3169988 140.5913675  52.3466638 102.5216865
 139.5320012  52.0714997 104.9399988 139.6780012  51.5514997 105.7299988
 139.5290012  52.9784997 105.2469988 139.5515792  52.1228842 105.0896117
 143.8160012  41.9864997 115.7299988 144.5150012  42.0604997 116.3799988
 143.4350012  41.1224997 115.8839988 143.8601767  41.8797624 115.8398322
 144.6010012  41.6384997 106.8269988 144.8210012  42.1104997 106.0239988
 145.1590012  42.0334997 107.4969988 144.7064968  41.7564285 106.8077331
 142.2690012  53.7694997 105.6899988 141.4530012  54.2664997 105.7419988
 142.7990012  54.2444997 105.0499988 142.2289161  53.9017722 105.6105956
 141.8010012  43.3664997 107.6619988 142.6130012  43.8714997 107.7079988
 141.5560012  43.2214997 108.5759988 141.8790520  43.4160375 107.7918517
 142.3360012  44.3524997 116.8459988 142.4550012  44.9264997 117.6039988
 142.9920012  43.6644997 116.9609988 142.4409025  44.3379858 116.9651321
 142.6840012  40.4474997 108.5999988 142.3380012  41.0654997 109.2439988
 143.3430012  40.9484997 108.1179988 142.7256968  40.5996278 108.6229383
 139.6080012  54.8134997 105.6709988 139.7680012  55.6124997 105.1709988
 139.4100012  55.1194997 106.5559988 139.6031637  54.9644020 105.7221144
 136.6010012  51.9384997 104.3479988 137.1930012  52.6374997 104.6239988
 137.0600012  51.5054997 103.6279988 136.7441142  51.9757049 104.2884830
 135.7250012  39.3844997 112.1369988 135.4960012  39.4434997 111.2089988
 135.2820012  38.5924997 112.4429988 135.6338530  39.2855753 112.0514786
 134.6550012  53.3244997 108.2969988 133.8230012  53.7974997 108.3239988
 135.2010012  53.8344997 107.6989988 134.6150352  53.4581332 108.2198463
 133.9430012  55.9374997 119.6269988 134.4840012  55.7204997 120.3869988
 133.4620012  55.1314997 119.4369988 133.9519951  55.7989270 119.7052576
 138.5410012  54.8564997 121.2469988 139.3080012  54.3974997 121.5879988
 138.5190012  54.6304997 120.3179988 138.6431275  54.7630186 121.1680101
 142.6330012  54.3644997 102.6229988 141.9890012  53.7334997 102.9439988
 143.3950012  53.8334997 102.3909988 142.6478077  54.2062920 102.6356011
 133.8500012  49.7474997 120.5809988 133.9940012  48.8454997 120.2949988
 133.0780012  50.0334997 120.0939988 133.7652753  49.6626816 120.4759505
 140.5060012  49.7174997 120.0139988 140.1770012  49.9884997 119.1569988
 140.6580012  48.7764997 119.9269988 140.4814809  49.6273862 119.8848244
 143.5440012  51.1384997 102.4499988 143.2750012  51.3184997 103.3509988
 143.3380012  50.2124997 102.3179988 143.4793427  51.0380261 102.5555073
 134.6830012  46.9474997 120.0009988 135.0910012  46.0904997 119.8799988
 134.4230012  46.9624997 120.9219988 134.7037568  46.8320807 120.1089588
 138.6300012  45.9564997 117.3759988 138.0120012  46.6314997 117.6559988
 138.9740012  46.2774997 116.5419988 138.5919132  46.0922411 117.3016262
 143.6500012  48.4284997 120.6529988 144.6030012  48.5114997 120.6259988
 143.4890012  47.7164997 121.2729988 143.7586426  48.3436746 120.7330579
 138.9690012  43.3114997 118.4579988 139.1190012  42.5824997 117.8559988
 138.9720012  44.0884997 117.8989988 138.9899302  43.3167851 118.3000692
 139.3820012  41.6814997 115.9509988 139.9180012  42.1324997 115.2989988
 138.5300012  41.5734997 115.5279988 139.3402178  41.7286390 115.8045756
 140.9640012  47.1204997 116.1899988 141.7140012  46.9644997 115.6169988
 140.6250012  47.9724997 115.9149988 141.0208921  47.2142968 116.0743561
 137.4480012  44.5094997 120.3699988 136.6810012  43.9774997 120.1589988
 138.1270012  44.1994997 119.7699988 137.4347877  44.3948300 120.2600716
 140.1880012  39.1374997 116.3819988 140.0890012  40.0844997 116.2769988
 139.4450012  38.7654997 115.9059988 140.0741184  39.2165863 116.3033621
 141.4520012  43.4594997 119.9459988 141.2160012  43.2394997 120.8469988
 140.6680012  43.2524997 119.4359988 141.3138504  43.4014586 120.0003431
 144.1670012  42.5864997 119.0209988 143.2200012  42.6184997 119.1539988
 144.4800012  41.9614997 119.6749988 144.0796707  42.5063998 119.1276060
 135.6280012  42.4304997 120.0739988 135.8400012  41.7234997 119.4639988
 135.5170012  41.9924997 120.9179988 135.6419721  42.2747084 120.1046843
 140.4090012  38.4314997 119.0529988 141.1210012  37.7914997 119.0389988
 140.3080012  38.6984997 118.1399988 140.4928066  38.3800079 118.9275677
 140.7630012  40.1144997 121.1069988 140.6310012  39.6384997 120.2869988
 140.1640012  40.8584997 121.0519988 140.6639071  40.1499618 120.9872886
 140.3090012  56.9974997 104.2829988 141.2420012  57.1554997 104.4269988
 140.0450012  57.6724997 103.6589988 140.4009888  57.1104510 104.2182842
 133.8780012  51.6334997 103.7659988 134.7920012  51.7124997 104.0399988
 133.8850012  50.9464997 103.0999988 134.0041131  51.5513961 103.7134393
 132.5270012  57.0264997 108.8439988 131.8800012  56.5644997 108.3109988
 132.8810012  56.3544997 109.4259988 132.4863849  56.8724723 108.8497959
 133.3970012  55.1074997 110.6479988 133.0620012  54.2274997 110.8199988
 133.6190012  55.4524997 111.5129988 133.3811783  55.0337500 110.7884208
 133.4770012  48.1824997 113.0999988 133.6610012  48.1004997 112.1639988
 134.3260012  48.0584997 113.5229988 133.6170151  48.1545073 113.0291451
 133.0740012  43.4534997 119.2409988 133.9940012  43.3314997 119.4769988
 132.6250012  42.7034997 119.6299988 133.1391580  43.3353727 119.3259006
 134.2950012  41.7654997 112.1319988 134.7410012  40.9734997 112.4339988
 134.7620012  42.4814997 112.5619988 134.4190831  41.7540685 112.2314006
 132.5990012  44.7644997 113.2009988 133.0910012  44.5434997 112.4099988
 132.9620012  45.6054997 113.4819988 132.7153126  44.8478357 113.1307531
 132.9130012  41.0224997 107.2549988 131.9880012  41.2314997 107.1259988
 133.3670012  41.5064997 106.5649988 132.8477292  41.1165343 107.1440720
 132.8770012  39.7604997 115.5989988 132.2120012  39.5144997 116.2429988
 132.4340012  40.3824997 115.0219988 132.7261318  39.8109410 115.6090898
 135.0690012  52.9354997 119.7439988 134.2480012  53.1104997 119.2829988
 134.8160012  52.8624997 120.6639988 134.9225585  52.9495544 119.8053561
 138.0230012  53.9104997 116.0019988 137.5980012  54.7194997 115.7199988
 138.9270012  53.9954997 115.6999988 138.0869975  54.0329300 115.9224816
 142.3340012  55.3094997 118.9619988 142.5190012  54.9754997 119.8399988
 143.1800012  55.6184997 118.6399988 142.4737539  55.3056047 119.0385605
 144.6790012  56.5954997 118.2059988 145.3560012  55.9624997 117.9659988
 145.0010012  56.9964997 119.0129988 144.8151637  56.5631154 118.2822793
 135.4250012  57.1664997 116.0499988 134.7040012  57.6064997 115.5989988
 135.0590012  56.9154997 116.8979988 135.2769651  57.1927242 116.1029640
 137.8920012  56.7664997 115.0799988 137.0270012  56.8384997 115.4839988
 137.8370012  57.3134997 114.2959988 137.7662085  56.8502685 115.0293362
 142.6020012  56.6544997 114.2549988 142.1460012  57.1834997 113.6009988
 142.7650012  57.2574997 114.9799988 142.5616068  56.8084607 114.2634838
 134.8390012  55.7894997 112.9599988 134.8210012  55.3644997 113.8169988
 135.6440012  55.4714997 112.5509988 134.9453529  55.6883013 113.0220946
 136.9810012  54.4994997 111.6149988 136.7620012  53.5834997 111.7849988
 137.8050012  54.6394997 112.0809988 137.0624420  54.3930520 111.7012774
 139.5180012  54.9694997 112.4639988 139.7310012  54.0814997 112.1769988
 139.5820012  54.9354997 113.4179988 139.5558231  54.8433102 112.5537397
 143.0260012  40.6334997 111.6079988 142.3520012  40.0044997 111.8639988
 143.5900012  40.1494997 111.0049988 143.0099230  40.4818744 111.5615340
 135.3530012  39.2674997 109.4299988 134.5760012  39.0334997 108.9229988
 135.8830012  38.4704997 109.4389988 135.3182330  39.1276988 109.3617742
 134.1890012  39.0654997 105.2339988 134.6280012  39.6764997 104.6419988
 133.5560012  39.6034997 105.7079988 134.1634514  39.2219257 105.2170930
 139.9320012  39.1944997 109.2439988 140.8070012  39.5824997 109.2139988
 139.7960012  38.9794997 110.1659988 140.0333695  39.2185184 109.3646440
 134.0900012  55.0134997 106.1309988 133.4050012  54.9754997 105.4639988
 134.0940012  55.9264997 106.4199988 133.9966998  55.1316733 106.0786771
 141.0760012  41.2744997 106.1329988 141.2540012  40.6284997 106.8159988
 141.0230012  42.1084997 106.5999988 141.0931999  41.2988009 106.2895917
 142.9550012  56.2234997 104.5289988 143.8210012  56.5894997 104.3509988
 142.7080012  55.7834997 103.7149988 143.0402392  56.2141756 104.3946289
 135.3110012  39.7814997 118.9479988 134.9450012  39.0164997 119.3899988
 136.2240012  39.8104997 119.2339988 135.3842736  39.6805640 119.0472502
 137.2840012  39.1324997 120.4839988 138.1820012  38.8584997 120.2989988
 136.8970012  38.3894997 120.9479988 137.3546612  38.9945914 120.5213643
  12.4390012  67.2794997 109.3889988  12.5280012  68.2234997 109.2569988
  11.8010012  67.0044997 108.7309988  12.3649081  67.3714830 109.2819614
  11.3720012  66.5344997 112.8079988  11.3340012  65.8884997 113.5129988
  11.0500012  66.0684997 112.0369988  11.3232333  66.3829408 112.8002978
   3.7410012  66.1494997 114.4009988   3.7820012  65.5234997 115.1239988
   4.4440012  66.7734997 114.5829988   3.8416363  66.1481196 114.5246044
  15.0780012  69.4734997 111.1089988  14.6380012  68.7534997 111.5599988
  15.0650012  70.1944997 111.7389988  15.0160226  69.4723731 111.2558494
   4.6640012  70.5994997 112.9359988   4.2950012  69.7974997 112.5659988
   5.6050012  70.4304997 112.9819988   4.7407289  70.4670153 112.8916316
   1.2740012  64.2594997 108.3289988   0.8270012  65.1054997 108.3099988
   0.7130012  63.6794997 107.8129988   1.1369900  64.2969916 108.2566801
   1.9850012  66.4214997 110.4539988   2.1980012  65.6514997 110.9819988
   2.7230012  66.5104997 109.8509988   2.1139044  66.3281968 110.4447123
  12.1900012  74.5784997 111.3209988  12.8100012  73.9014997 111.0479988
  11.9820012  74.3604997 112.2299988  12.2466726  74.4564800 111.4064812
   9.7620012  68.9674997 113.2139988  10.0660012  68.2814997 112.6189988
  10.4830012  69.0854997 113.8319988   9.9010671  68.8896305 113.2161816
  18.4250012  60.5684997 114.0749988  18.4740012  61.1784997 114.8099988
  18.8500012  61.0294997 113.3519988  18.4891746  60.7143796 114.0779175
  12.9030012  63.3614997 113.5409988  13.0450012  62.4154997 113.5619988
  12.7960012  63.5684997 112.6129988  12.9079919  63.2598246 113.4183408
   6.0570012  61.4624997 110.8139988   6.1010012  62.3224997 110.3949988
   5.6000012  60.9104997 110.1799988   6.0012240  61.5054422 110.6709864
  13.7800012  61.5934997 109.2149988  14.4260012  61.2644997 109.8389988
  14.2900012  62.1114997 108.5919988  13.9374299  61.6184450 109.2162731
   2.6780012  63.8594997 111.5759988   3.3310012  63.3094997 112.0079988
   2.7020012  63.5854997 110.6589988   2.7706683  63.7471466 111.5112123
   7.8340012  65.4094997 110.7909988   8.4500012  64.8834997 111.3009988
   7.2480012  64.7694997 110.3879988   7.8390810  65.2509208 110.8063173
  18.8160012  62.0464997 116.3099988  18.1280012  62.7044997 116.2149988
  18.8320012  61.8494997 117.2469988  18.7239540  62.1099819 116.4235990
   4.8680012  60.3804997 114.8879988   4.6490012  60.9104997 114.1219988
   4.2000012  60.6074997 115.5349988   4.7477600  60.4836906 114.8706379
  12.2370012  69.8804997 108.4319988  11.9410012  69.5584997 107.5809988
  11.9120012  70.7804997 108.4729988  12.1526371  69.9580215 108.3211801
   7.4370012  68.0564997 115.1749988   6.6970012  68.6544997 115.2789988
   8.1510012  68.6104997 114.8599988   7.4322237  68.2132831 115.1466465
  15.5440012  60.8844997 111.1949988  15.3280012  60.1184997 111.7279988
  16.1990012  61.3564997 111.7079988  15.6030632  60.8435889 111.3372861
   4.4610012  62.2724997 112.8399988   5.0750012  62.9054997 113.2129988
   4.9730012  61.8004997 112.1839988   4.6141981  62.2952267 112.8022908
   5.8440012  70.0204997 115.9619988   5.8390012  70.9004997 115.5839988
   4.9910012  69.9374997 116.3869988   5.7279464  70.1296117 115.9677907
   1.9650012  69.6914997 106.7439988   1.6930012  69.9204997 105.8559988
   2.0110012  70.5294997 107.2049988   1.9339482  69.8361318 106.6846273
  15.5900012  71.3134997 113.4569988  14.6490012  71.3714997 113.6189988
  15.8670012  72.2194997 113.3199988  15.4984679  71.4439443 113.4606815
  15.8910012  59.5994997 114.8749988  15.1550012  60.2104997 114.8369988
  16.5740012  60.0144997 114.3479988  15.8826541  59.7391374 114.7985832
   8.8940012  57.6864997 112.3399988   8.7770012  56.7374997 112.2859988
   8.0390012  58.0184997 112.6139988   8.7624212  57.6015571 112.3696497
  13.8420012  73.0944997 110.0819988  14.2680012  72.3874997 109.5969988
  14.1590012  73.8954997 109.6659988  13.9431683  73.1061017 109.9593680
  15.0020012  70.9954997 108.5909988  14.7440012  70.3054997 107.9799988
  15.0730012  70.5524997 109.4369988  14.9762856  70.8412124 108.6216885
  16.6880012  69.5614997 117.0679988  16.8280012  68.9704997 116.3289988
  16.8550012  70.4344997 116.7119988  16.7297411  69.5985428 116.9186894
  11.1610012  66.5234997 106.8409988  10.4490012  67.0584997 106.4889988
  11.8520012  66.5794997 106.1809988  11.1570132  66.6042543 106.7036289
  11.2140012  64.9814997 103.8799988  11.9150012  65.0034997 104.5309988
  11.5170012  64.3534997 103.2229988  11.3508133  64.8997070 103.8803369
  18.5300012  65.9014997 115.1339988  17.8770012  66.5964997 115.2239988
  18.9950012  66.1114997 114.3249988  18.5035274  66.0250643 115.0368462
  14.5660012  66.7334997 107.7929988  13.8340012  66.9614997 108.3659988
  15.0140012  66.0194997 108.2469988  14.5262725  66.6682145 107.9328816
  14.4640012  64.9074997 116.8599988  14.5440012  65.6704997 117.4319988
  13.8620012  65.1864997 116.1699988  14.3935756  65.0497134 116.8450589
   6.2120012  67.3634997 109.6749988   5.8810012  66.9934997 108.8569988
   6.8000012  66.6934997 110.0219988   6.2461873  67.2221156 109.6098102
   7.5780012  70.7914997 112.3559988   7.4840012  70.2134997 111.5999988
   8.3080012  70.4204997 112.8529988   7.6637386  70.6621663 112.3195342
   6.5780012  66.1324997 113.3089988   7.1440012  66.2534997 112.5459988
   6.8970012  66.7694997 113.9469988   6.6985474  66.2352219 113.2909862
  12.8870012  71.6354997 114.0429988  12.6470012  72.2974997 114.6909988
  12.6890012  70.8014997 114.4679988  12.8273808  71.6133134 114.1891524
   7.4580012  70.5314997 118.0259988   7.1470012  71.3134997 118.4809988
   6.8080012  70.3784997 117.3399988   7.3275558  70.6179105 117.9955871
  13.4370012  65.8954997 105.4779988  14.0170012  66.0454997 106.2249988
  13.8510012  66.3664997 104.7539988  13.5722997  65.9796578 105.4824058
   4.3780012  66.7294997 117.2539988   4.4490012  67.3804997 117.9529988
   3.4880012  66.8324997 116.9189988   4.2673005  66.8325427 117.3043495
  11.1640012  72.6324997 108.9129988  11.6380012  72.9274997 109.6899988
  10.6010012  73.3704997 108.6799988  11.1528184  72.7727247 108.9879628
   5.6980012  72.6034997 118.7889988   5.7050012  72.4674997 117.8419988
   4.7820012  72.4854997 119.0409988   5.5751714  72.5689430 118.6934666
  17.1360012  57.6454997 105.2909988  16.2360012  57.7844997 105.5859988
  17.3880012  58.4764997 104.8889988  17.0468702  57.7769074 105.2770205
   5.2020012  66.4334997 107.2639988   4.9100012  67.2014997 106.7739988
   4.5280012  65.7734997 107.1019988   5.0708111  66.4495587 107.1748978
  18.3250012  72.0114997 103.6669988  18.3990012  72.9504997 103.8379988
  19.2310012  71.7064997 103.6109988  18.4575100  72.0986722 103.6828119
   1.2950012  68.7964997 116.0789988   0.7940012  68.7684997 115.2639988
   1.3000012  67.8904997 116.3889988   1.2270944  68.6702396 116.0093226
   1.0450012  71.5764997 112.9629988   1.9910012  71.4324997 112.9439988
   0.9330012  72.3604997 113.4999988   1.1592727  71.6628046 113.0330072
  19.2430012  72.2424997 118.6459988  19.1940012  71.2874997 118.6089988
  18.4160012  72.5104997 119.0469988  19.1244940  72.1478998 118.6951375
  10.2220012  71.8164997 117.5219988  10.3090012  72.6424997 117.9969988
   9.3580012  71.4864997 117.7709988  10.1171964  71.8849878 117.6206549
  10.6360012  75.5884997 107.3279988  10.5610012  75.4674997 106.3809988
  10.6690012  76.5384997 107.4459988  10.6302068  75.7002646 107.2144967
   4.2890012  74.3774997 109.1089988   4.4420012  74.0294997 109.9869988
   3.4390012  74.0214997 108.8539988   4.1949166  74.2816216 109.1948079
  13.4070012  74.6684997 107.0789988  12.4710012  74.7684997 107.2579988
  13.6870012  73.9594997 107.6579988  13.3169553  74.5863406 107.1817087
  16.3950012  63.7354997 119.1259988  15.9880012  64.2164997 118.4049988
  16.4360012  62.8304997 118.8179988  16.3448437  63.6789374 118.9856683
   3.5440012  70.1194997 117.1229988   3.7600012  69.7584997 117.9819988
   2.6890012  69.7454997 116.9129988   3.4579292  70.0194111 117.2123386
   6.1630012  58.5894997 113.1179988   5.3010012  58.5024997 112.7099988
   6.1400012  59.4454997 113.5459988   6.0420409  58.6932883 113.1200589
  10.8260012  58.3114997 116.4929988  11.2460012  57.8964997 117.2459988
   9.8930012  58.1334997 116.6099988  10.7573644  58.2305900 116.6119539
  14.1520012  62.0674997 117.3459988  13.6380012  61.9414997 118.1439988
  13.9970012  62.9794997 117.1019988  14.0606852  62.1736132 117.4222158
   6.2540012  63.5554997 114.2129988   5.6120012  63.5144997 114.9219988
   6.2910012  64.4814997 113.9749988   6.1710664  63.6751430 114.2779219
   6.2510012  63.7764997 109.1249988   5.3580012  63.4354997 109.0659988
   6.7010012  63.3994997 108.3689988   6.1898130  63.6789631 109.0147702
  11.7860012  64.1924997 107.9419988  11.3770012  65.0074997 107.6509988
  12.5070012  64.0524997 107.3279988  11.8274537  64.2852018 107.8191342
  10.8880012  64.3674997 119.4299988  10.3260012  63.6634997 119.7509988
  11.7150012  64.2474997 119.8979988  10.9227095  64.2547883 119.5372330
  12.7910012  63.6384997 110.7559988  12.5960012  64.2434997 110.0409988
  12.9720012  62.8044997 110.3219988  12.7887614  63.6086300 110.5994405
   4.0040012  63.8754997 116.0799988   3.9660012  64.2754997 116.9489988
   3.5130012  63.0584997 116.1709988   3.9324684  63.8198069 116.2111059
   0.6120012  60.9914997 109.9309988   1.2430012  60.9624997 110.6499988
   1.0610012  60.5664997 109.1999988   0.7590918  60.9300836 109.9306441
   1.8860012  61.7374997 105.3549988   2.3600012  62.3284997 104.7699988
   1.1690012  62.2684997 105.7019988   1.8539341  61.8900867 105.3218836
  12.0550012  65.2764997 115.4269988  12.3780012  64.6454997 114.7839988
  11.6150012  64.7414997 116.0879988  12.0397484  65.1178387 115.4283198
   8.8320012  61.2034997 110.2109988   7.9210012  61.2604997 110.4999988
   9.3380012  61.1434997 111.0219988   8.7756899  61.2031941 110.3601184
   3.6610012  62.8324997 109.0379988   2.7710012  62.9324997 108.6979988
   3.9570012  61.9904997 108.6919988   3.5792823  62.7323545 108.9447213
   7.3140012  62.8324997 106.6949988   8.2450012  62.9614997 106.8729988
   7.0990012  63.5024997 106.0449988   7.4124247  62.9406565 106.6315747
  13.2370012  60.4384997 113.4759988  12.5610012  60.5694997 114.1399988
  12.7520012  60.2834997 112.6649988  13.0787146  60.4355157 113.4574469
   5.9880012  64.0274997 104.2609988   5.4450012  63.6474997 103.5699988
   6.8210012  64.2214997 103.8329988   6.0263631  64.0017125 104.1084501
  16.5250012  76.1104997 119.7519988  16.7250012  76.5344997 118.9179988
  17.1800012  76.4534997 120.3589988  16.6410072  76.2149857 119.7198592
   4.1230012  68.5844997 119.3599988   4.8550012  68.8384997 119.9219988
   3.3430012  68.7884997 119.8759988   4.1177073  68.6468160 119.5066151
  10.1520012  63.9914997 112.0979988  10.7170012  63.4444997 111.5509988
  10.0050012  63.4694997 112.8869988  10.2093380  63.8462259 112.1298695
   5.1540012  60.1274997 108.5169988   4.8370012  59.2254997 108.4809988
   5.9360012  60.1294997 107.9639988   5.2162408  60.0042474 108.4373569
   8.7790012  62.3794997 114.5119988   7.9430012  62.8334997 114.6229988
   9.3030012  62.6554997 115.2639988   8.7355416  62.4788660 114.6288119
   9.3230012  68.5924997 106.1969988   8.5780012  68.0854997 105.8749988
   9.1890012  68.6414997 107.1439988   9.2028776  68.5296940 106.2808647
  16.4730012  67.7254997 114.9839988  17.1150012  68.1824997 114.4399988
  15.6430012  67.8384997 114.5209988  16.4485963  67.8032704 114.8470177
  13.2210012  61.4064997 104.3959988  12.2820012  61.5184997 104.2449988
  13.5180012  62.2634997 104.7029988  13.1327583  61.5375981 104.4168337
  10.8420012  68.7764997 117.4339988  10.4970012  68.3954997 118.2409988
  10.6420012  69.7104997 117.5049988  10.7677527  68.8505135 117.5540689
  13.9390012  63.2734997 106.0569988  14.8310012  63.1364997 106.3759988
  13.9960012  64.0644997 105.5199988  14.0686504  63.3616052 106.0280818
   4.4480012  67.8874997 111.9669988   5.1930012  67.8854997 111.3659988
   4.5260012  67.0644997 112.4479988   4.5604995  67.7758887 111.9498282
  11.4490012  70.0514997 105.2229988  11.1530012  70.8774997 105.6039988
  10.7460012  69.4314997 105.4189988  11.3134914  70.0808199 105.3016443
   1.4560012  66.3484997 117.2819988   1.6790012  65.9304997 118.1139988
   0.8540012  65.7354997 116.8589988   1.4051759  66.2084668 117.3387022
   8.4720012  65.8654997 119.4949988   8.1760012  65.6994997 118.5999988
   9.4040012  65.6454997 119.4839988   8.5574166  65.8130640 119.3710536
  13.0930012  71.2384997 117.3849988  12.1920012  71.4214997 117.1169988
  13.1270012  71.4974997 118.3049988  12.9743139  71.2985849 117.4728099
  18.7870012  69.2834997 118.5889988  17.9360012  69.5214997 118.2219988
  19.3780012  69.2664997 117.8359988  18.7502487  69.3138258 118.4368893
  17.1190012  72.2694997 106.2169988  16.7460012  71.4434997 106.5259988
  17.3970012  72.0864997 105.3189988  17.1055222  72.1317430 106.1379473
  14.2800012  67.0774997 113.2379988  13.3510012  66.8454997 113.2109988
  14.7310012  66.3004997 112.9079988  14.2139216  66.9407238 113.1896917
   6.8230012  71.4054997 109.3709988   7.3500012  72.1784997 109.1709988
   5.9430012  71.6304997 109.0689988   6.7762031  71.5417545 109.3027912
   2.5780012  66.2674997 103.9579988   3.1940012  66.8944997 104.3379988
   1.7160012  66.5834997 104.2299988   2.5457698  66.3959430 104.0467183
   8.2500012  69.0684997 108.9469988   8.0090012  69.9934997 108.9889988
   7.5090012  68.6094997 109.3439988   8.1169225  69.1330933 109.0063742
   8.7650012  73.2174997 115.2629988   9.1270012  74.0724997 115.0289988
   9.2960012  72.9254997 116.0029988   8.8864473  73.2951060 115.3310855
   6.9330012  74.0904997 108.4929988   5.9830012  74.1954997 108.5439988
   7.2850012  74.9104997 108.8369988   6.8504195  74.2158800 108.5465502
  12.3090012  69.3164997 114.9629988  11.8830012  69.0894997 115.7899988
  12.8890012  68.5784997 114.7809988  12.3291868  69.1855299 115.0515830
  14.9670012  73.8684997 117.4329988  14.3660012  73.3134997 116.9369988
  15.2490012  74.5354997 116.8059988  14.9228804  73.8826625 117.2804849
   3.0900012  61.1014997 116.8399988   2.1970012  61.4404997 116.7719988
   2.9910012  60.2464997 117.2579988   2.9544164  61.0322588 116.8872235
  15.3780012  68.9184997 106.2639988  15.1000012  68.1904997 106.8199988
  16.3050012  69.0374997 106.4689988  15.4653124  68.8348802 106.3678845
   2.7410012  72.9064997 115.2749988   2.9580012  71.9744997 115.2439988
   2.9870012  73.1804997 116.1579988   2.8039549  72.8160636 115.3901763
   7.5400012  70.9274997 104.9399988   7.6860012  70.4074997 105.7299988
   7.5370012  71.8344997 105.2469988   7.5595792  70.9788842 105.0896117
   3.9930012  68.1804997 105.4509988   3.3070012  68.5324997 106.0179988
   4.5150012  68.9434997 105.2039988   3.9696852  68.3318578 105.4952118
  11.8240012  60.8424997 115.7299988  12.5230012  60.9164997 116.3799988
  11.4430012  59.9784997 115.8839988  11.8681767  60.7357624 115.8398322
  12.6090012  60.4944997 106.8269988  12.8290012  60.9664997 106.0239988
  13.1670012  60.8894997 107.4969988  12.7144968  60.6124285 106.8077331
  10.2770012  72.6254997 105.6899988   9.4610012  73.1224997 105.7419988
  10.8070012  73.1004997 105.0499988  10.2369161  72.7577722 105.6105956
   9.8090012  62.2224997 107.6619988  10.6210012  62.7274997 107.7079988
   9.5640012  62.0774997 108.5759988   9.8870520  62.2720375 107.7918517
  10.3440012  63.2084997 116.8459988  10.4630012  63.7824997 117.6039988
  11.0000012  62.5204997 116.9609988  10.4489025  63.1939858 116.9651321
  10.6920012  59.3034997 108.5999988  10.3460012  59.9214997 109.2439988
  11.3510012  59.8044997 108.1179988  10.7336968  59.4556278 108.6229383
   7.6160012  73.6694997 105.6709988   7.7760012  74.4684997 105.1709988
   7.4180012  73.9754997 106.5559988   7.6111637  73.8204020 105.7221144
  16.5490012  61.1154997 117.6809988  15.6320012  61.3784997 117.5939988
  16.8840012  61.1124997 116.7849988  16.4688613  61.1510761 117.5478837
  15.1510012  64.8664997 111.7769988  14.3530012  64.4514997 111.4489988
  15.5960012  64.1754997 112.2679988  15.1019885  64.7163543 111.7984889
   2.9250012  63.4584997 103.4639988   2.8800012  64.3974997 103.6419988
   2.0370012  63.2224997 103.1939988   2.7988574  63.5551892 103.4518912
  16.2370012  74.1224997 113.3999988  16.0820012  74.8004997 112.7419988
  17.1700012  74.1944997 113.6029988  16.3418657  74.2249546 113.3374360
   3.7330012  58.2404997 112.1369988   3.5040012  58.2994997 111.2089988
   3.2900012  57.4484997 112.4429988   3.6418530  58.1415753 112.0514786
   2.6630012  72.1804997 108.2969988   1.8310012  72.6534997 108.3239988
   3.2090012  72.6904997 107.6989988   2.6230352  72.3141332 108.2198463
   1.9510012  74.7934997 119.6269988   2.4920012  74.5764997 120.3869988
   1.4700012  73.9874997 119.4369988   1.9599951  74.6549270 119.7052576
   6.5490012  73.7124997 121.2469988   7.3160012  73.2534997 121.5879988
   6.5270012  73.4864997 120.3179988   6.6511275  73.6190186 121.1680101
  13.1260012  72.0924997 119.9769988  12.7750012  71.2364997 120.2199988
  13.8520012  72.2354997 120.5839988  13.1760769  71.9945636 120.0923619
   1.8580012  68.6034997 120.5809988   2.0020012  67.7014997 120.2949988
   1.0860012  68.8894997 120.0939988   1.7732753  68.5186816 120.4759505
   8.5140012  68.5734997 120.0139988   8.1850012  68.8444997 119.1569988
   8.6660012  67.6324997 119.9269988   8.4894809  68.4833862 119.8848244
  14.2480012  68.4894997 117.3969988  14.9940012  69.0774997 117.2779988
  13.4910012  69.0714997 117.4609988  14.2477820  68.6487143 117.3893590
   2.6910012  65.8034997 120.0009988   3.0990012  64.9464997 119.8799988
   2.4310012  65.8184997 120.9219988   2.7117568  65.6880807 120.1089588
   6.6380012  64.8124997 117.3759988   6.0200012  65.4874997 117.6559988
   6.9820012  65.1334997 116.5419988   6.5999132  64.9482411 117.3016262
  11.6580012  67.2844997 120.6529988  12.6110012  67.3674997 120.6259988
  11.4970012  66.5724997 121.2729988  11.7666426  67.1996746 120.7330579
   6.9770012  62.1674997 118.4579988   7.1270012  61.4384997 117.8559988
   6.9800012  62.9444997 117.8989988   6.9979302  62.1727851 118.3000692
   7.3900012  60.5374997 115.9509988   7.9260012  60.9884997 115.2989988
   6.5380012  60.4294997 115.5279988   7.3482178  60.5846390 115.8045756
   8.9720012  65.9764997 116.1899988   9.7220012  65.8204997 115.6169988
   8.6330012  66.8284997 115.9149988   9.0288921  66.0702968 116.0743561
  13.3870012  63.7914997 121.2189988  13.5800012  62.8604997 121.1069988
  14.2450012  64.2164997 121.2079988  13.5292934  63.7216531 121.2022031
  14.7040012  66.5804997 119.2959988  14.4230012  67.2894997 118.7179988
  15.6470012  66.5074997 119.1449988  14.7929291  66.6676711 119.1964967
   5.4560012  63.3654997 120.3699988   4.6890012  62.8334997 120.1589988
   6.1350012  63.0554997 119.7699988   5.4427877  63.2508300 120.2600716
   8.1960012  57.9934997 116.3819988   8.0970012  58.9404997 116.2769988
   7.4530012  57.6214997 115.9059988   8.0821184  58.0725863 116.3033621
   9.4600012  62.3154997 119.9459988   9.2240012  62.0954997 120.8469988
   8.6760012  62.1084997 119.4359988   9.3218504  62.2574586 120.0003431
  12.1750012  61.4424997 119.0209988  11.2280012  61.4744997 119.1539988
  12.4880012  60.8174997 119.6749988  12.0876707  61.3623998 119.1276060
  13.8090012  60.0764997 121.0269988  13.7130012  59.1244997 121.0209988
  13.4880012  60.3454997 121.8869988  13.7524070  59.9824035 121.1425441
   3.6360012  61.2864997 120.0739988   3.8480012  60.5794997 119.4639988
   3.5250012  60.8484997 120.9179988   3.6499721  61.1307084 120.1046843
   8.4170012  57.2874997 119.0529988   9.1290012  56.6474997 119.0389988
   8.3160012  57.5544997 118.1399988   8.5008066  57.2360079 118.9275677
   8.7710012  58.9704997 121.1069988   8.6390012  58.4944997 120.2869988
   8.1720012  59.7144997 121.0519988   8.6719071  59.0059618 120.9872886
   1.8860012  70.4894997 103.7659988   2.8000012  70.5684997 104.0399988
   1.8930012  69.8024997 103.0999988   2.0121131  70.4073961 103.7134393
   0.5350012  75.8824997 108.8439988  -0.1119988  75.4204997 108.3109988
   0.8890012  75.2104997 109.4259988   0.4943849  75.7284723 108.8497959
   1.4050012  73.9634997 110.6479988   1.0700012  73.0834997 110.8199988
   1.6270012  74.3084997 111.5129988   1.3891783  73.8897501 110.7884208
  18.9530012  74.7724997 113.6289988  18.9320012  74.9574997 114.5679988
  19.6440012  75.3414997 113.2879988  19.0434618  74.8746606 113.7113864
  18.5170012  74.3404997 116.5509988  18.0290012  73.6044997 116.1789988
  19.0660012  73.9464997 117.2289988  18.5244820  74.1865889 116.5917813
  16.9670012  70.1294997 121.1889988  16.1010012  70.0244997 121.5829988
  17.3440012  70.8884997 121.6349988  16.8993308  70.2176900 121.3032393
  18.2680012  68.3864997 106.7029988  19.1180012  68.8074997 106.8299988
  18.2740012  67.6464997 107.3099988  18.3851372  68.3440803 106.8024344
  18.6630012  66.4394997 108.5259988  17.9360012  65.9604997 108.9239988
  19.2440012  66.6454997 109.2589988  18.6420473  66.4018103 108.6794528
  18.4220012  69.2244997 113.4739988  19.2550012  68.8464997 113.1939988
  18.5340012  70.1674997 113.3549988  18.5512647  69.3002218 113.4195487
  16.9080012  72.1024997 115.7809988  16.2610012  72.4274997 116.4069988
  16.3910012  71.6624997 115.1069988  16.7494029  72.0875004 115.7755827
  16.4490012  64.9604997 109.0889988  16.2990012  64.0154997 109.0689988
  16.0960012  65.2414997 109.9329988  16.3807448  64.8691481 109.2003705
   1.4850012  67.0384997 113.0999988   1.6690012  66.9564997 112.1639988
   2.3340012  66.9144997 113.5229988   1.6250151  67.0105073 113.0291451
  17.3060012  66.9304997 118.7279988  17.8890012  66.1964997 118.9199988
  17.8700012  67.7024997 118.7749988  17.4619769  66.9344227 118.7606159
  18.8020012  64.8334997 119.4129988  17.9390012  64.4544997 119.2469988
  19.4070012  64.0944997 119.3379988  18.7656119  64.6818268 119.3801528
  16.1600012  62.5434997 107.5519988  16.4400012  61.6364997 107.6759988
  16.9190012  62.9774997 107.1629988  16.3009277  62.4780942 107.5163682
  16.7720012  63.1244997 112.9879988  17.7050012  63.3364997 112.9529988
  16.5370012  63.2264997 113.9099988  16.8679244  63.1673100 113.1078892
  16.8010012  63.8614997 115.7639988  15.9580012  64.1294997 116.1299988
  17.2430012  64.6834997 115.5529988  16.7454158  64.0093291 115.7855491
   1.0820012  62.3094997 119.2409988   2.0020012  62.1874997 119.4769988
   0.6330012  61.5594997 119.6299988   1.1471580  62.1913727 119.3259006
  19.0840012  57.8414997 121.1169988  19.4340012  57.1874997 120.5119988
  19.2310012  58.6784997 120.6769988  19.1517887  57.8651548 120.9746858
  16.7730012  59.8064997 107.5999988  16.9560012  59.3574997 108.4259988
  16.1740012  59.2214997 107.1369988  16.7170202  59.6659975 107.6503275
   2.3030012  60.6214997 112.1319988   2.7490012  59.8294997 112.4339988
   2.7700012  61.3374997 112.5619988   2.4270831  60.6100685 112.2314006
   0.6070012  63.6204997 113.2009988   1.0990012  63.3994997 112.4099988
   0.9700012  64.4614997 113.4819988   0.7233126  63.7038357 113.1307531
  18.6040012  59.9504997 119.4659988  17.6860012  60.2214997 119.4309988
  18.7270012  59.4154997 118.6819988  18.4949729  59.9152508 119.3551923
  18.6400012  59.8734997 104.1279988  19.0520012  59.1524997 103.6529988
  19.3220012  60.5434997 104.1869988  18.7885885  59.8652368 104.0708915
   0.9210012  59.8784997 107.2549988  -0.0039988  60.0874997 107.1259988
   1.3750012  60.3624997 106.5649988   0.8557292  59.9725343 107.1440720
  15.6920012  74.8624997 109.2009988  16.3440012  74.5154997 108.5929988
  16.2020012  75.3514997 109.8469988  15.8502637  74.8810597 109.2050236
   0.8850012  58.6164997 115.5989988   0.2200012  58.3704997 116.2429988
   0.4420012  59.2384997 115.0219988   0.7341318  58.6669410 115.6090898
   3.0770012  71.7914997 119.7439988   2.2560012  71.9664997 119.2829988
   2.8240012  71.7184997 120.6639988   2.9305585  71.8055544 119.8053561
   6.0310012  72.7664997 116.0019988   5.6060012  73.5754997 115.7199988
   6.9350012  72.8514997 115.6999988   6.0949975  72.8889300 115.9224816
  10.3420012  74.1654997 118.9619988  10.5270012  73.8314997 119.8399988
  11.1880012  74.4744997 118.6399988  10.4817539  74.1616047 119.0385605
  12.6870012  75.4514997 118.2059988  13.3640012  74.8184997 117.9659988
  13.0090012  75.8524997 119.0129988  12.8231637  75.4191154 118.2822793
  17.6040012  58.0404997 117.2849988  16.7920012  58.3654997 116.8979988
  17.8370012  57.2804997 116.7519988  17.5242203  57.9822758 117.1598880
   3.4330012  76.0224997 116.0499988   2.7120012  76.4624997 115.5989988
   3.0670012  75.7714997 116.8979988   3.2849651  76.0487242 116.1029640
   5.9000012  75.6224997 115.0799988   5.0350012  75.6944997 115.4839988
   5.8450012  76.1694997 114.2959988   5.7742085  75.7062685 115.0293362
  10.6100012  75.5104997 114.2549988  10.1540012  76.0394997 113.6009988
  10.7730012  76.1134997 114.9799988  10.5696068  75.6644607 114.2634838
  12.9380012  74.3884997 115.1999988  12.0330012  74.5534997 114.9339988
  13.3670012  75.2414997 115.1349988  12.8721324  74.5264339 115.1547976
  15.5420012  75.9584997 115.4949988  15.3600012  76.8744997 115.2849988
  15.7190012  75.5484997 114.6489988  15.5410210  76.0284822 115.3517885
   2.8470012  74.6454997 112.9599988   2.8290012  74.2204997 113.8169988
   3.6520012  74.3274997 112.5509988   2.9533529  74.5443013 113.0220946
   4.9890012  73.3554997 111.6149988   4.7700012  72.4394997 111.7849988
   5.8130012  73.4954997 112.0809988   5.0704420  73.2490520 111.7012774
   7.5260012  73.8254997 112.4639988   7.7390012  72.9374997 112.1769988
   7.5900012  73.7914997 113.4179988   7.5638232  73.6993102 112.5537397
  11.0340012  59.4894997 111.6079988  10.3600012  58.8604997 111.8639988
  11.5980012  59.0054997 111.0049988  11.0179230  59.3378744 111.5615340
  16.1770012  57.5974997 111.7209988  16.7810012  58.1444997 111.2189988
  15.3070012  57.9164997 111.4799988  16.1421208  57.7155137 111.6196886
  17.9040012  58.7354997 110.0539988  18.5160012  58.2214997 109.5269988
  18.2860012  59.6134997 110.0769988  18.0393371  58.7837866 109.9850041
   3.3610012  58.1234997 109.4299988   2.5840012  57.8894997 108.9229988
   3.8910012  57.3264997 109.4389988   3.3262330  57.9836988 109.3617742
   2.1970012  57.9214997 105.2339988   2.6360012  58.5324997 104.6419988
   1.5640012  58.4594997 105.7079988   2.1714514  58.0779257 105.2170930
   7.9400012  58.0504997 109.2439988   8.8150012  58.4384997 109.2139988
   7.8040012  57.8354997 110.1659988   8.0413695  58.0745184 109.3646440
  13.4970012  58.0804997 110.8929988  13.5730012  58.1754997 109.9429988
  13.2220012  57.1724997 111.0219988  13.4702321  57.9707867 110.7805079
  14.8500012  58.1064997 106.5849988  14.1480012  58.7214997 106.3749988
  14.4060012  57.2684997 106.7159988  14.6936450  58.0775639 106.5739000
   2.0980012  73.8694997 106.1309988   1.4130012  73.8314997 105.4639988
   2.1020012  74.7824997 106.4199988   2.0046998  73.9876733 106.0786771
   9.0840012  60.1304997 106.1329988   9.2620012  59.4844997 106.8159988
   9.0310012  60.9644997 106.5999988   9.1011999  60.1548009 106.2895917
  10.9630012  75.0794997 104.5289988  11.8290012  75.4454997 104.3509988
  10.7160012  74.6394997 103.7149988  11.0482392  75.0701756 104.3946289
  17.6720012  74.6424997 107.2079988  17.4770012  73.8944997 106.6429988
  17.6330012  75.4004997 106.6249988  17.6400380  74.6426099 107.0518384
   3.3190012  58.6374997 118.9479988   2.9530012  57.8724997 119.3899988
   4.2320012  58.6664997 119.2339988   3.3922736  58.5365640 119.0472502
   5.2920012  57.9884997 120.4839988   6.1900012  57.7144997 120.2989988
   4.9050012  57.2454997 120.9479988   5.3626612  57.8505914 120.5213643
  13.7130012  57.3204997 120.6659988  13.7900012  56.8944997 121.5199988
  14.6070012  57.3344997 120.3229988  13.8443428  57.2640879 120.7365310
  16.8890012  73.3934997 119.3579988  16.1070012  73.2074997 118.8379988
  16.8170012  74.3224997 119.5759988  16.7722274  73.4936643 119.3163018
  31.2950012  67.2794997 109.3889988  31.3840012  68.2234997 109.2569988
  30.6570012  67.0044997 108.7309988  31.2209081  67.3714830 109.2819614
  30.2280012  66.5344997 112.8079988  30.1900012  65.8884997 113.5129988
  29.9060012  66.0684997 112.0369988  30.1792333  66.3829408 112.8002978
  22.5970012  66.1494997 114.4009988  22.6380012  65.5234997 115.1239988
  23.3000012  66.7734997 114.5829988  22.6976363  66.1481196 114.5246044
  33.9340012  69.4734997 111.1089988  33.4940012  68.7534997 111.5599988
  33.9210012  70.1944997 111.7389988  33.8720226  69.4723731 111.2558494
  23.5200012  70.5994997 112.9359988  23.1510012  69.7974997 112.5659988
  24.4610012  70.4304997 112.9819988  23.5967289  70.4670153 112.8916316
  20.1300012  64.2594997 108.3289988  19.6830012  65.1054997 108.3099988
  19.5690012  63.6794997 107.8129988  19.9929900  64.2969916 108.2566801
  20.8410012  66.4214997 110.4539988  21.0540012  65.6514997 110.9819988
  21.5790012  66.5104997 109.8509988  20.9699044  66.3281968 110.4447123
  31.0460012  74.5784997 111.3209988  31.6660012  73.9014997 111.0479988
  30.8380012  74.3604997 112.2299988  31.1026726  74.4564800 111.4064812
  28.6180012  68.9674997 113.2139988  28.9220012  68.2814997 112.6189988
  29.3390012  69.0854997 113.8319988  28.7570671  68.8896304 113.2161816
  37.2810012  60.5684997 114.0749988  37.3300012  61.1784997 114.8099988
  37.7060012  61.0294997 113.3519988  37.3451746  60.7143796 114.0779175
  31.7590012  63.3614997 113.5409988  31.9010012  62.4154997 113.5619988
  31.6520012  63.5684997 112.6129988  31.7639919  63.2598246 113.4183408
  24.9130012  61.4624997 110.8139988  24.9570012  62.3224997 110.3949988
  24.4560012  60.9104997 110.1799988  24.8572240  61.5054422 110.6709864
  32.6360012  61.5934997 109.2149988  33.2820012  61.2644997 109.8389988
  33.1460012  62.1114997 108.5919988  32.7934299  61.6184450 109.2162731
  21.5340012  63.8594997 111.5759988  22.1870012  63.3094997 112.0079988
  21.5580012  63.5854997 110.6589988  21.6266683  63.7471466 111.5112123
  26.6900012  65.4094997 110.7909988  27.3060012  64.8834997 111.3009988
  26.1040012  64.7694997 110.3879988  26.6950810  65.2509208 110.8063173
  37.6720012  62.0464997 116.3099988  36.9840012  62.7044997 116.2149988
  37.6880012  61.8494997 117.2469988  37.5799540  62.1099819 116.4235990
  23.7240012  60.3804997 114.8879988  23.5050012  60.9104997 114.1219988
  23.0560012  60.6074997 115.5349988  23.6037600  60.4836906 114.8706379
  31.0930012  69.8804997 108.4319988  30.7970012  69.5584997 107.5809988
  30.7680012  70.7804997 108.4729988  31.0086371  69.9580215 108.3211801
  26.2930012  68.0564997 115.1749988  25.5530012  68.6544997 115.2789988
  27.0070012  68.6104997 114.8599988  26.2882237  68.2132831 115.1466465
  34.4000012  60.8844997 111.1949988  34.1840012  60.1184997 111.7279988
  35.0550012  61.3564997 111.7079988  34.4590632  60.8435889 111.3372861
  23.3170012  62.2724997 112.8399988  23.9310012  62.9054997 113.2129988
  23.8290012  61.8004997 112.1839988  23.4701981  62.2952267 112.8022908
  24.7000012  70.0204997 115.9619988  24.6950012  70.9004997 115.5839988
  23.8470012  69.9374997 116.3869988  24.5839464  70.1296117 115.9677907
  20.8210012  69.6914997 106.7439988  20.5490012  69.9204997 105.8559988
  20.8670012  70.5294997 107.2049988  20.7899482  69.8361318 106.6846273
  34.4460012  71.3134997 113.4569988  33.5050012  71.3714997 113.6189988
  34.7230012  72.2194997 113.3199988  34.3544679  71.4439443 113.4606815
  34.7470012  59.5994997 114.8749988  34.0110012  60.2104997 114.8369988
  35.4300012  60.0144997 114.3479988  34.7386541  59.7391374 114.7985832
  27.7500012  57.6864997 112.3399988  27.6330012  56.7374997 112.2859988
  26.8950012  58.0184997 112.6139988  27.6184212  57.6015571 112.3696497
  32.6980012  73.0944997 110.0819988  33.1240012  72.3874997 109.5969988
  33.0150012  73.8954997 109.6659988  32.7991683  73.1061017 109.9593680
  33.8580012  70.9954997 108.5909988  33.6000012  70.3054997 107.9799988
  33.9290012  70.5524997 109.4369988  33.8322856  70.8412124 108.6216885
  35.5440012  69.5614997 117.0679988  35.6840012  68.9704997 116.3289988
  35.7110012  70.4344997 116.7119988  35.5857411  69.5985428 116.9186894
  30.0170012  66.5234997 106.8409988  29.3050012  67.0584997 106.4889988
  30.7080012  66.5794997 106.1809988  30.0130132  66.6042543 106.7036289
  37.3860012  65.9014997 115.1339988  36.7330012  66.5964997 115.2239988
  37.8510012  66.1114997 114.3249988  37.3595274  66.0250643 115.0368462
  33.4220012  66.7334997 107.7929988  32.6900012  66.9614997 108.3659988
  33.8700012  66.0194997 108.2469988  33.3822725  66.6682145 107.9328816
  33.3200012  64.9074997 116.8599988  33.4000012  65.6704997 117.4319988
  32.7180012  65.1864997 116.1699988  33.2495756  65.0497134 116.8450589
  25.0680012  67.3634997 109.6749988  24.7370012  66.9934997 108.8569988
  25.6560012  66.6934997 110.0219988  25.1021873  67.2221156 109.6098102
  26.4340012  70.7914997 112.3559988  26.3400012  70.2134997 111.5999988
  27.1640012  70.4204997 112.8529988  26.5197387  70.6621663 112.3195342
  25.4340012  66.1324997 113.3089988  26.0000012  66.2534997 112.5459988
  25.7530012  66.7694997 113.9469988  25.5545474  66.2352219 113.2909862
  31.7430012  71.6354997 114.0429988  31.5030012  72.2974997 114.6909988
  31.5450012  70.8014997 114.4679988  31.6833808  71.6133134 114.1891524
  26.3140012  70.5314997 118.0259988  26.0030012  71.3134997 118.4809988
  25.6640012  70.3784997 117.3399988  26.1835558  70.6179105 117.9955871
  23.2340012  66.7294997 117.2539988  23.3050012  67.3804997 117.9529988
  22.3440012  66.8324997 116.9189988  23.1233005  66.8325427 117.3043495
  30.0200012  72.6324997 108.9129988  30.4940012  72.9274997 109.6899988
  29.4570012  73.3704997 108.6799988  30.0088184  72.7727247 108.9879628
  24.5540012  72.6034997 118.7889988  24.5610012  72.4674997 117.8419988
  23.6380012  72.4854997 119.0409988  24.4311714  72.5689430 118.6934666
  35.9920012  57.6454997 105.2909988  35.0920012  57.7844997 105.5859988
  36.2440012  58.4764997 104.8889988  35.9028702  57.7769074 105.2770205
  24.0580012  66.4334997 107.2639988  23.7660012  67.2014997 106.7739988
  23.3840012  65.7734997 107.1019988  23.9268111  66.4495587 107.1748978
  20.1510012  68.7964997 116.0789988  19.6500012  68.7684997 115.2639988
  20.1560012  67.8904997 116.3889988  20.0830944  68.6702396 116.0093226
  19.9010012  71.5764997 112.9629988  20.8470012  71.4324997 112.9439988
  19.7890012  72.3604997 113.4999988  20.0152727  71.6628046 113.0330072
  38.0990012  72.2424997 118.6459988  38.0500012  71.2874997 118.6089988
  37.2720012  72.5104997 119.0469988  37.9804940  72.1478998 118.6951375
  29.0780012  71.8164997 117.5219988  29.1650012  72.6424997 117.9969988
  28.2140012  71.4864997 117.7709988  28.9731964  71.8849878 117.6206549
  29.4920012  75.5884997 107.3279988  29.4170012  75.4674997 106.3809988
  29.5250012  76.5384997 107.4459988  29.4862068  75.7002646 107.2144967
  23.1450012  74.3774997 109.1089988  23.2980012  74.0294997 109.9869988
  22.2950012  74.0214997 108.8539988  23.0509166  74.2816217 109.1948079
  32.5940012  74.7424997 104.3299988  32.9690012  73.9984997 103.8589988
  32.5980012  74.4724997 105.2489988  32.6459125  74.6040986 104.3896483
  32.2630012  74.6684997 107.0789988  31.3270012  74.7684997 107.2579988
  32.5430012  73.9594997 107.6579988  32.1729553  74.5863406 107.1817087
  35.2510012  63.7354997 119.1259988  34.8440012  64.2164997 118.4049988
  35.2920012  62.8304997 118.8179988  35.2008437  63.6789374 118.9856683
  22.4000012  70.1194997 117.1229988  22.6160012  69.7584997 117.9819988
  21.5450012  69.7454997 116.9129988  22.3139292  70.0194111 117.2123386
  25.0190012  58.5894997 113.1179988  24.1570012  58.5024997 112.7099988
  24.9960012  59.4454997 113.5459988  24.8980409  58.6932883 113.1200589
  29.6820012  58.3114997 116.4929988  30.1020012  57.8964997 117.2459988
  28.7490012  58.1334997 116.6099988  29.6133644  58.2305900 116.6119539
  33.0080012  62.0674997 117.3459988  32.4940012  61.9414997 118.1439988
  32.8530012  62.9794997 117.1019988  32.9166852  62.1736132 117.4222158
  29.3430012  60.8044997 103.7779988  29.0900012  60.8234997 104.7009988
  29.0870012  59.9324997 103.4759988  29.2737481  60.6892558 103.8636175
  25.1100012  63.5554997 114.2129988  24.4680012  63.5144997 114.9219988
  25.1470012  64.4814997 113.9749988  25.0270664  63.6751430 114.2779219
  25.1070012  63.7764997 109.1249988  24.2140012  63.4354997 109.0659988
  25.5570012  63.3994997 108.3689988  25.0458130  63.6789631 109.0147702
  30.6420012  64.1924997 107.9419988  30.2330012  65.0074997 107.6509988
  31.3630012  64.0524997 107.3279988  30.6834537  64.2852018 107.8191342
  29.7440012  64.3674997 119.4299988  29.1820012  63.6634997 119.7509988
  30.5710012  64.2474997 119.8979988  29.7787095  64.2547883 119.5372330
  31.6470012  63.6384997 110.7559988  31.4520012  64.2434997 110.0409988
  31.8280012  62.8044997 110.3219988  31.6447614  63.6086300 110.5994405
  22.8600012  63.8754997 116.0799988  22.8220012  64.2754997 116.9489988
  22.3690012  63.0584997 116.1709988  22.7884684  63.8198069 116.2111059
  19.4680012  60.9914997 109.9309988  20.0990012  60.9624997 110.6499988
  19.9170012  60.5664997 109.1999988  19.6150918  60.9300836 109.9306441
  30.9110012  65.2764997 115.4269988  31.2340012  64.6454997 114.7839988
  30.4710012  64.7414997 116.0879988  30.8957484  65.1178387 115.4283198
  27.6880012  61.2034997 110.2109988  26.7770012  61.2604997 110.4999988
  28.1940012  61.1434997 111.0219988  27.6316899  61.2031941 110.3601184
  22.5170012  62.8324997 109.0379988  21.6270012  62.9324997 108.6979988
  22.8130012  61.9904997 108.6919988  22.4352823  62.7323545 108.9447213
  26.1700012  62.8324997 106.6949988  27.1010012  62.9614997 106.8729988
  25.9550012  63.5024997 106.0449988  26.2684247  62.9406565 106.6315747
  32.0930012  60.4384997 113.4759988  31.4170012  60.5694997 114.1399988
  31.6080012  60.2834997 112.6649988  31.9347146  60.4355157 113.4574469
  35.3810012  76.1104997 119.7519988  35.5810012  76.5344997 118.9179988
  36.0360012  76.4534997 120.3589988  35.4970072  76.2149857 119.7198592
  22.9790012  68.5844997 119.3599988  23.7110012  68.8384997 119.9219988
  22.1990012  68.7884997 119.8759988  22.9737073  68.6468160 119.5066151
  29.0080012  63.9914997 112.0979988  29.5730012  63.4444997 111.5509988
  28.8610012  63.4694997 112.8869988  29.0653380  63.8462259 112.1298695
  24.0100012  60.1274997 108.5169988  23.6930012  59.2254997 108.4809988
  24.7920012  60.1294997 107.9639988  24.0722408  60.0042474 108.4373569
  27.6350012  62.3794997 114.5119988  26.7990012  62.8334997 114.6229988
  28.1590012  62.6554997 115.2639988  27.5915416  62.4788660 114.6288119
  28.1790012  68.5924997 106.1969988  27.4340012  68.0854997 105.8749988
  28.0450012  68.6414997 107.1439988  28.0588776  68.5296940 106.2808647
  35.3290012  67.7254997 114.9839988  35.9710012  68.1824997 114.4399988
  34.4990012  67.8384997 114.5209988  35.3045963  67.8032704 114.8470177
  32.0770012  61.4064997 104.3959988  31.1380012  61.5184997 104.2449988
  32.3740012  62.2634997 104.7029988  31.9887583  61.5375981 104.4168337
  29.6980012  68.7764997 117.4339988  29.3530012  68.3954997 118.2409988
  29.4980012  69.7104997 117.5049988  29.6237527  68.8505135 117.5540689
  32.7950012  63.2734997 106.0569988  33.6870012  63.1364997 106.3759988
  32.8520012  64.0644997 105.5199988  32.9246504  63.3616052 106.0280818
  23.3040012  67.8874997 111.9669988  24.0490012  67.8854997 111.3659988
  23.3820012  67.0644997 112.4479988  23.4164995  67.7758887 111.9498282
  30.3050012  70.0514997 105.2229988  30.0090012  70.8774997 105.6039988
  29.6020012  69.4314997 105.4189988  30.1694914  70.0808199 105.3016443
  20.3120012  66.3484997 117.2819988  20.5350012  65.9304997 118.1139988
  19.7100012  65.7354997 116.8589988  20.2611759  66.2084668 117.3387022
  27.3280012  65.8654997 119.4949988  27.0320012  65.6994997 118.5999988
  28.2600012  65.6454997 119.4839988  27.4134166  65.8130640 119.3710536
  31.9490012  71.2384997 117.3849988  31.0480012  71.4214997 117.1169988
  31.9830012  71.4974997 118.3049988  31.8303139  71.2985849 117.4728099
  37.6430012  69.2834997 118.5889988  36.7920012  69.5214997 118.2219988
  38.2340012  69.2664997 117.8359988  37.6062487  69.3138258 118.4368893
  35.9750012  72.2694997 106.2169988  35.6020012  71.4434997 106.5259988
  36.2530012  72.0864997 105.3189988  35.9615222  72.1317430 106.1379473
  33.1360012  67.0774997 113.2379988  32.2070012  66.8454997 113.2109988
  33.5870012  66.3004997 112.9079988  33.0699216  66.9407238 113.1896917
  25.6790012  71.4054997 109.3709988  26.2060012  72.1784997 109.1709988
  24.7990012  71.6304997 109.0689988  25.6322031  71.5417545 109.3027912
  27.1060012  69.0684997 108.9469988  26.8650012  69.9934997 108.9889988
  26.3650012  68.6094997 109.3439988  26.9729225  69.1330933 109.0063742
  27.6210012  73.2174997 115.2629988  27.9830012  74.0724997 115.0289988
  28.1520012  72.9254997 116.0029988  27.7424473  73.2951060 115.3310855
  25.7890012  74.0904997 108.4929988  24.8390012  74.1954997 108.5439988
  26.1410012  74.9104997 108.8369988  25.7064195  74.2158800 108.5465502
  31.1650012  69.3164997 114.9629988  30.7390012  69.0894997 115.7899988
  31.7450012  68.5784997 114.7809988  31.1851868  69.1855299 115.0515830
  33.3680012  70.2454997 104.0369988  33.7210012  69.8654997 104.8409988
  32.4190012  70.1524997 104.1239988  33.2880918  70.1808956 104.1588532
  33.8230012  73.8684997 117.4329988  33.2220012  73.3134997 116.9369988
  34.1050012  74.5354997 116.8059988  33.7788804  73.8826625 117.2804849
  21.9460012  61.1014997 116.8399988  21.0530012  61.4404997 116.7719988
  21.8470012  60.2464997 117.2579988  21.8104164  61.0322588 116.8872235
  34.2340012  68.9184997 106.2639988  33.9560012  68.1904997 106.8199988
  35.1610012  69.0374997 106.4689988  34.3213124  68.8348802 106.3678845
  21.5970012  72.9064997 115.2749988  21.8140012  71.9744997 115.2439988
  21.8430012  73.1804997 116.1579988  21.6599549  72.8160636 115.3901763
  26.3960012  70.9274997 104.9399988  26.5420012  70.4074997 105.7299988
  26.3930012  71.8344997 105.2469988  26.4155792  70.9788842 105.0896117
  30.6800012  60.8424997 115.7299988  31.3790012  60.9164997 116.3799988
  30.2990012  59.9784997 115.8839988  30.7241767  60.7357624 115.8398322
  31.4650012  60.4944997 106.8269988  31.6850012  60.9664997 106.0239988
  32.0230012  60.8894997 107.4969988  31.5704968  60.6124285 106.8077331
  29.1330012  72.6254997 105.6899988  28.3170012  73.1224997 105.7419988
  29.6630012  73.1004997 105.0499988  29.0929161  72.7577722 105.6105956
  28.6650012  62.2224997 107.6619988  29.4770012  62.7274997 107.7079988
  28.4200012  62.0774997 108.5759988  28.7430520  62.2720375 107.7918517
  29.2000012  63.2084997 116.8459988  29.3190012  63.7824997 117.6039988
  29.8560012  62.5204997 116.9609988  29.3049025  63.1939858 116.9651321
  29.5480012  59.3034997 108.5999988  29.2020012  59.9214997 109.2439988
  30.2070012  59.8044997 108.1179988  29.5896968  59.4556278 108.6229383
  26.4720012  73.6694997 105.6709988  26.6320012  74.4684997 105.1709988
  26.2740012  73.9754997 106.5559988  26.4671637  73.8204020 105.7221144
  35.4050012  61.1154997 117.6809988  34.4880012  61.3784997 117.5939988
  35.7400012  61.1124997 116.7849988  35.3248613  61.1510761 117.5478837
  34.0070012  64.8664997 111.7769988  33.2090012  64.4514997 111.4489988
  34.4520012  64.1754997 112.2679988  33.9579885  64.7163543 111.7984889
  35.0930012  74.1224997 113.3999988  34.9380012  74.8004997 112.7419988
  36.0260012  74.1944997 113.6029988  35.1978657  74.2249546 113.3374360
  22.5890012  58.2404997 112.1369988  22.3600012  58.2994997 111.2089988
  22.1460012  57.4484997 112.4429988  22.4978530  58.1415753 112.0514786
  21.5190012  72.1804997 108.2969988  20.6870012  72.6534997 108.3239988
  22.0650012  72.6904997 107.6989988  21.4790352  72.3141332 108.2198463
  20.8070012  74.7934997 119.6269988  21.3480012  74.5764997 120.3869988
  20.3260012  73.9874997 119.4369988  20.8159951  74.6549270 119.7052576
  25.4050012  73.7124997 121.2469988  26.1720012  73.2534997 121.5879988
  25.3830012  73.4864997 120.3179988  25.5071275  73.6190186 121.1680101
  31.9820012  72.0924997 119.9769988  31.6310012  71.2364997 120.2199988
  32.7080012  72.2354997 120.5839988  32.0320769  71.9945636 120.0923619
  20.7140012  68.6034997 120.5809988  20.8580012  67.7014997 120.2949988
  19.9420012  68.8894997 120.0939988  20.6292753  68.5186816 120.4759505
  27.3700012  68.5734997 120.0139988  27.0410012  68.8444997 119.1569988
  27.5220012  67.6324997 119.9269988  27.3454809  68.4833862 119.8848244
  33.1040012  68.4894997 117.3969988  33.8500012  69.0774997 117.2779988
  32.3470012  69.0714997 117.4609988  33.1037820  68.6487143 117.3893590
  21.5470012  65.8034997 120.0009988  21.9550012  64.9464997 119.8799988
  21.2870012  65.8184997 120.9219988  21.5677568  65.6880807 120.1089588
  26.2050012  66.9194997 105.0199988  25.7450012  66.4354997 105.7059988
  26.4600012  66.2514997 104.3839988  26.1764902  66.7628731 105.0279334
  25.4940012  64.8124997 117.3759988  24.8760012  65.4874997 117.6559988
  25.8380012  65.1334997 116.5419988  25.4559132  64.9482411 117.3016262
  30.5140012  67.2844997 120.6529988  31.4670012  67.3674997 120.6259988
  30.3530012  66.5724997 121.2729988  30.6226426  67.1996746 120.7330579
  25.8330012  62.1674997 118.4579988  25.9830012  61.4384997 117.8559988
  25.8360012  62.9444997 117.8989988  25.8539302  62.1727851 118.3000692
  26.2460012  60.5374997 115.9509988  26.7820012  60.9884997 115.2989988
  25.3940012  60.4294997 115.5279988  26.2042178  60.5846390 115.8045756
  27.8280012  65.9764997 116.1899988  28.5780012  65.8204997 115.6169988
  27.4890012  66.8284997 115.9149988  27.8848921  66.0702968 116.0743561
  32.2430012  63.7914997 121.2189988  32.4360012  62.8604997 121.1069988
  33.1010012  64.2164997 121.2079988  32.3852934  63.7216531 121.2022031
  33.5600012  66.5804997 119.2959988  33.2790012  67.2894997 118.7179988
  34.5030012  66.5074997 119.1449988  33.6489291  66.6676711 119.1964967
  24.3120012  63.3654997 120.3699988  23.5450012  62.8334997 120.1589988
  24.9910012  63.0554997 119.7699988  24.2987877  63.2508300 120.2600716
  27.0520012  57.9934997 116.3819988  26.9530012  58.9404997 116.2769988
  26.3090012  57.6214997 115.9059988  26.9381184  58.0725863 116.3033621
  28.3160012  62.3154997 119.9459988  28.0800012  62.0954997 120.8469988
  27.5320012  62.1084997 119.4359988  28.1778504  62.2574586 120.0003431
  31.0310012  61.4424997 119.0209988  30.0840012  61.4744997 119.1539988
  31.3440012  60.8174997 119.6749988  30.9436707  61.3623998 119.1276060
  32.6650012  60.0764997 121.0269988  32.5690012  59.1244997 121.0209988
  32.3440012  60.3454997 121.8869988  32.6084070  59.9824035 121.1425441
  22.4920012  61.2864997 120.0739988  22.7040012  60.5794997 119.4639988
  22.3810012  60.8484997 120.9179988  22.5059721  61.1307084 120.1046843
  27.2730012  57.2874997 119.0529988  27.9850012  56.6474997 119.0389988
  27.1720012  57.5544997 118.1399988  27.3568066  57.2360079 118.9275677
  27.6270012  58.9704997 121.1069988  27.4950012  58.4944997 120.2869988
  27.0280012  59.7144997 121.0519988  27.5279071  59.0059618 120.9872886
  20.7420012  70.4894997 103.7659988  21.6560012  70.5684997 104.0399988
  20.7490012  69.8024997 103.0999988  20.8681131  70.4073961 103.7134393
  19.3910012  75.8824997 108.8439988  18.7440012  75.4204997 108.3109988
  19.7450012  75.2104997 109.4259988  19.3503849  75.7284723 108.8497959
  20.2610012  73.9634997 110.6479988  19.9260012  73.0834997 110.8199988
  20.4830012  74.3084997 111.5129988  20.2451783  73.8897500 110.7884208
  37.8090012  74.7724997 113.6289988  37.7880012  74.9574997 114.5679988
  38.5000012  75.3414997 113.2879988  37.8994618  74.8746606 113.7113864
  37.3730012  74.3404997 116.5509988  36.8850012  73.6044997 116.1789988
  37.9220012  73.9464997 117.2289988  37.3804820  74.1865889 116.5917813
  35.8230012  70.1294997 121.1889988  34.9570012  70.0244997 121.5829988
  36.2000012  70.8884997 121.6349988  35.7553308  70.2176900 121.3032393
  37.1240012  68.3864997 106.7029988  37.9740012  68.8074997 106.8299988
  37.1300012  67.6464997 107.3099988  37.2411372  68.3440803 106.8024344
  37.5190012  66.4394997 108.5259988  36.7920012  65.9604997 108.9239988
  38.1000012  66.6454997 109.2589988  37.4980473  66.4018103 108.6794528
  37.2780012  69.2244997 113.4739988  38.1110012  68.8464997 113.1939988
  37.3900012  70.1674997 113.3549988  37.4072647  69.3002218 113.4195487
  35.7640012  72.1024997 115.7809988  35.1170012  72.4274997 116.4069988
  35.2470012  71.6624997 115.1069988  35.6054029  72.0875004 115.7755827
  35.3050012  64.9604997 109.0889988  35.1550012  64.0154997 109.0689988
  34.9520012  65.2414997 109.9329988  35.2367448  64.8691481 109.2003705
  20.3410012  67.0384997 113.0999988  20.5250012  66.9564997 112.1639988
  21.1900012  66.9144997 113.5229988  20.4810151  67.0105073 113.0291451
  36.1620012  66.9304997 118.7279988  36.7450012  66.1964997 118.9199988
  36.7260012  67.7024997 118.7749988  36.3179769  66.9344227 118.7606159
  37.6580012  64.8334997 119.4129988  36.7950012  64.4544997 119.2469988
  38.2630012  64.0944997 119.3379988  37.6216119  64.6818268 119.3801528
  35.3830012  60.9884997 102.5859988  35.9940012  60.6174997 103.2229988
  34.5470012  60.5674997 102.7819988  35.3535032  60.8807554 102.6997035
  35.0160012  62.5434997 107.5519988  35.2960012  61.6364997 107.6759988
  35.7750012  62.9774997 107.1629988  35.1569277  62.4780942 107.5163682
  35.6280012  63.1244997 112.9879988  36.5610012  63.3364997 112.9529988
  35.3930012  63.2264997 113.9099988  35.7239244  63.1673100 113.1078892
  35.6570012  63.8614997 115.7639988  34.8140012  64.1294997 116.1299988
  36.0990012  64.6834997 115.5529988  35.6014158  64.0093291 115.7855491
  19.9380012  62.3094997 119.2409988  20.8580012  62.1874997 119.4769988
  19.4890012  61.5594997 119.6299988  20.0031580  62.1913727 119.3259006
  37.9400012  57.8414997 121.1169988  38.2900012  57.1874997 120.5119988
  38.0870012  58.6784997 120.6769988  38.0077887  57.8651548 120.9746858
  35.6290012  59.8064997 107.5999988  35.8120012  59.3574997 108.4259988
  35.0300012  59.2214997 107.1369988  35.5730202  59.6659975 107.6503275
  21.1590012  60.6214997 112.1319988  21.6050012  59.8294997 112.4339988
  21.6260012  61.3374997 112.5619988  21.2830831  60.6100685 112.2314006
  19.4630012  63.6204997 113.2009988  19.9550012  63.3994997 112.4099988
  19.8260012  64.4614997 113.4819988  19.5793126  63.7038357 113.1307531
  37.4600012  59.9504997 119.4659988  36.5420012  60.2214997 119.4309988
  37.5830012  59.4154997 118.6819988  37.3509729  59.9152508 119.3551923
  37.4960012  59.8734997 104.1279988  37.9080012  59.1524997 103.6529988
  38.1780012  60.5434997 104.1869988  37.6445885  59.8652368 104.0708915
  19.7770012  59.8784997 107.2549988  18.8520012  60.0874997 107.1259988
  20.2310012  60.3624997 106.5649988  19.7117292  59.9725343 107.1440720
  34.5480012  74.8624997 109.2009988  35.2000012  74.5154997 108.5929988
  35.0580012  75.3514997 109.8469988  34.7062637  74.8810597 109.2050236
  19.7410012  58.6164997 115.5989988  19.0760012  58.3704997 116.2429988
  19.2980012  59.2384997 115.0219988  19.5901318  58.6669410 115.6090898
  21.9330012  71.7914997 119.7439988  21.1120012  71.9664997 119.2829988
  21.6800012  71.7184997 120.6639988  21.7865585  71.8055544 119.8053561
  24.8870012  72.7664997 116.0019988  24.4620012  73.5754997 115.7199988
  25.7910012  72.8514997 115.6999988  24.9509975  72.8889300 115.9224816
  29.1980012  74.1654997 118.9619988  29.3830012  73.8314997 119.8399988
  30.0440012  74.4744997 118.6399988  29.3377539  74.1616047 119.0385605
  31.5430012  75.4514997 118.2059988  32.2200012  74.8184997 117.9659988
  31.8650012  75.8524997 119.0129988  31.6791637  75.4191154 118.2822793
  36.4600012  58.0404997 117.2849988  35.6480012  58.3654997 116.8979988
  36.6930012  57.2804997 116.7519988  36.3802203  57.9822758 117.1598880
  22.2890012  76.0224997 116.0499988  21.5680012  76.4624997 115.5989988
  21.9230012  75.7714997 116.8979988  22.1409651  76.0487242 116.1029640
  24.7560012  75.6224997 115.0799988  23.8910012  75.6944997 115.4839988
  24.7010012  76.1694997 114.2959988  24.6302085  75.7062685 115.0293362
  29.4660012  75.5104997 114.2549988  29.0100012  76.0394997 113.6009988
  29.6290012  76.1134997 114.9799988  29.4256068  75.6644607 114.2634838
  31.7940012  74.3884997 115.1999988  30.8890012  74.5534997 114.9339988
  32.2230012  75.2414997 115.1349988  31.7281324  74.5264339 115.1547976
  34.3980012  75.9584997 115.4949988  34.2160012  76.8744997 115.2849988
  34.5750012  75.5484997 114.6489988  34.3970210  76.0284822 115.3517885
  21.7030012  74.6454997 112.9599988  21.6850012  74.2204997 113.8169988
  22.5080012  74.3274997 112.5509988  21.8093529  74.5443013 113.0220946
  23.8450012  73.3554997 111.6149988  23.6260012  72.4394997 111.7849988
  24.6690012  73.4954997 112.0809988  23.9264420  73.2490520 111.7012774
  26.3820012  73.8254997 112.4639988  26.5950012  72.9374997 112.1769988
  26.4460012  73.7914997 113.4179988  26.4198231  73.6993102 112.5537397
  29.8900012  59.4894997 111.6079988  29.2160012  58.8604997 111.8639988
  30.4540012  59.0054997 111.0049988  29.8739230  59.3378744 111.5615340
  35.0330012  57.5974997 111.7209988  35.6370012  58.1444997 111.2189988
  34.1630012  57.9164997 111.4799988  34.9981208  57.7155137 111.6196886
  36.7600012  58.7354997 110.0539988  37.3720012  58.2214997 109.5269988
  37.1420012  59.6134997 110.0769988  36.8953371  58.7837866 109.9850041
  22.2170012  58.1234997 109.4299988  21.4400012  57.8894997 108.9229988
  22.7470012  57.3264997 109.4389988  22.1822330  57.9836988 109.3617742
  21.0530012  57.9214997 105.2339988  21.4920012  58.5324997 104.6419988
  20.4200012  58.4594997 105.7079988  21.0274514  58.0779257 105.2170930
  26.7960012  58.0504997 109.2439988  27.6710012  58.4384997 109.2139988
  26.6600012  57.8354997 110.1659988  26.8973695  58.0745184 109.3646440
  32.3530012  58.0804997 110.8929988  32.4290012  58.1754997 109.9429988
  32.0780012  57.1724997 111.0219988  32.3262321  57.9707867 110.7805079
  33.7060012  58.1064997 106.5849988  33.0040012  58.7214997 106.3749988
  33.2620012  57.2684997 106.7159988  33.5496450  58.0775639 106.5739000
  20.9540012  73.8694997 106.1309988  20.2690012  73.8314997 105.4639988
  20.9580012  74.7824997 106.4199988  20.8606998  73.9876733 106.0786771
  27.9400012  60.1304997 106.1329988  28.1180012  59.4844997 106.8159988
  27.8870012  60.9644997 106.5999988  27.9571999  60.1548009 106.2895917
  36.5280012  74.6424997 107.2079988  36.3330012  73.8944997 106.6429988
  36.4890012  75.4004997 106.6249988  36.4960380  74.6426099 107.0518384
  22.1750012  58.6374997 118.9479988  21.8090012  57.8724997 119.3899988
  23.0880012  58.6664997 119.2339988  22.2482736  58.5365640 119.0472502
  24.1480012  57.9884997 120.4839988  25.0460012  57.7144997 120.2989988
  23.7610012  57.2454997 120.9479988  24.2186612  57.8505914 120.5213643
  32.5690012  57.3204997 120.6659988  32.6460012  56.8944997 121.5199988
  33.4630012  57.3344997 120.3229988  32.7003428  57.2640879 120.7365310
  35.7450012  73.3934997 119.3579988  34.9630012  73.2074997 118.8379988
  35.6730012  74.3224997 119.5759988  35.6282274  73.4936643 119.3163018
  50.1510012  67.2794997 109.3889988  50.2400012  68.2234997 109.2569988
  49.5130012  67.0044997 108.7309988  50.0769081  67.3714830 109.2819614
  49.0840012  66.5344997 112.8079988  49.0460012  65.8884997 113.5129988
  48.7620012  66.0684997 112.0369988  49.0352333  66.3829408 112.8002978
  41.4530012  66.1494997 114.4009988  41.4940012  65.5234997 115.1239988
  42.1560012  66.7734997 114.5829988  41.5536363  66.1481196 114.5246044
  52.7900012  69.4734997 111.1089988  52.3500012  68.7534997 111.5599988
  52.7770012  70.1944997 111.7389988  52.7280226  69.4723731 111.2558494
  42.3760012  70.5994997 112.9359988  42.0070012  69.7974997 112.5659988
  43.3170012  70.4304997 112.9819988  42.4527289  70.4670153 112.8916316
  38.9860012  64.2594997 108.3289988  38.5390012  65.1054997 108.3099988
  38.4250012  63.6794997 107.8129988  38.8489900  64.2969916 108.2566801
  39.6970012  66.4214997 110.4539988  39.9100012  65.6514997 110.9819988
  40.4350012  66.5104997 109.8509988  39.8259044  66.3281968 110.4447123
  49.9020012  74.5784997 111.3209988  50.5220012  73.9014997 111.0479988
  49.6940012  74.3604997 112.2299988  49.9586726  74.4564800 111.4064812
  47.4740012  68.9674997 113.2139988  47.7780012  68.2814997 112.6189988
  48.1950012  69.0854997 113.8319988  47.6130671  68.8896305 113.2161816
  56.1370012  60.5684997 114.0749988  56.1860012  61.1784997 114.8099988
  56.5620012  61.0294997 113.3519988  56.2011746  60.7143796 114.0779175
  50.6150012  63.3614997 113.5409988  50.7570012  62.4154997 113.5619988
  50.5080012  63.5684997 112.6129988  50.6199919  63.2598246 113.4183408
  43.7690012  61.4624997 110.8139988  43.8130012  62.3224997 110.3949988
  43.3120012  60.9104997 110.1799988  43.7132240  61.5054422 110.6709864
  51.4920012  61.5934997 109.2149988  52.1380012  61.2644997 109.8389988
  52.0020012  62.1114997 108.5919988  51.6494299  61.6184450 109.2162731
  40.3900012  63.8594997 111.5759988  41.0430012  63.3094997 112.0079988
  40.4140012  63.5854997 110.6589988  40.4826683  63.7471466 111.5112123
  45.5460012  65.4094997 110.7909988  46.1620012  64.8834997 111.3009988
  44.9600012  64.7694997 110.3879988  45.5510810  65.2509208 110.8063173
  56.5280012  62.0464997 116.3099988  55.8400012  62.7044997 116.2149988
  56.5440012  61.8494997 117.2469988  56.4359540  62.1099819 116.4235990
  42.5800012  60.3804997 114.8879988  42.3610012  60.9104997 114.1219988
  41.9120012  60.6074997 115.5349988  42.4597600  60.4836906 114.8706379
  49.9490012  69.8804997 108.4319988  49.6530012  69.5584997 107.5809988
  49.6240012  70.7804997 108.4729988  49.8646371  69.9580215 108.3211801
  45.1490012  68.0564997 115.1749988  44.4090012  68.6544997 115.2789988
  45.8630012  68.6104997 114.8599988  45.1442237  68.2132831 115.1466465
  53.2560012  60.8844997 111.1949988  53.0400012  60.1184997 111.7279988
  53.9110012  61.3564997 111.7079988  53.3150632  60.8435889 111.3372861
  42.1730012  62.2724997 112.8399988  42.7870012  62.9054997 113.2129988
  42.6850012  61.8004997 112.1839988  42.3261981  62.2952267 112.8022908
  43.5560012  70.0204997 115.9619988  43.5510012  70.9004997 115.5839988
  42.7030012  69.9374997 116.3869988  43.4399464  70.1296117 115.9677907
  39.6770012  69.6914997 106.7439988  39.4050012  69.9204997 105.8559988
  39.7230012  70.5294997 107.2049988  39.6459482  69.8361318 106.6846273
  53.3020012  71.3134997 113.4569988  52.3610012  71.3714997 113.6189988
  53.5790012  72.2194997 113.3199988  53.2104679  71.4439443 113.4606815
  53.6030012  59.5994997 114.8749988  52.8670012  60.2104997 114.8369988
  54.2860012  60.0144997 114.3479988  53.5946541  59.7391374 114.7985832
  46.6060012  57.6864997 112.3399988  46.4890012  56.7374997 112.2859988
  45.7510012  58.0184997 112.6139988  46.4744212  57.6015571 112.3696497
  51.5540012  73.0944997 110.0819988  51.9800012  72.3874997 109.5969988
  51.8710012  73.8954997 109.6659988  51.6551683  73.1061017 109.9593680
  52.7140012  70.9954997 108.5909988  52.4560012  70.3054997 107.9799988
  52.7850012  70.5524997 109.4369988  52.6882856  70.8412124 108.6216885
  54.4000012  69.5614997 117.0679988  54.5400012  68.9704997 116.3289988
  54.5670012  70.4344997 116.7119988  54.4417411  69.5985428 116.9186894
  48.8730012  66.5234997 106.8409988  48.1610012  67.0584997 106.4889988
  49.5640012  66.5794997 106.1809988  48.8690132  66.6042543 106.7036289
  48.9260012  64.9814997 103.8799988  49.6270012  65.0034997 104.5309988
  49.2290012  64.3534997 103.2229988  49.0628133  64.8997070 103.8803369
  56.2420012  65.9014997 115.1339988  55.5890012  66.5964997 115.2239988
  56.7070012  66.1114997 114.3249988  56.2155274  66.0250643 115.0368462
  52.2780012  66.7334997 107.7929988  51.5460012  66.9614997 108.3659988
  52.7260012  66.0194997 108.2469988  52.2382725  66.6682145 107.9328816
  52.1760012  64.9074997 116.8599988  52.2560012  65.6704997 117.4319988
  51.5740012  65.1864997 116.1699988  52.1055756  65.0497134 116.8450589
  43.9240012  67.3634997 109.6749988  43.5930012  66.9934997 108.8569988
  44.5120012  66.6934997 110.0219988  43.9581873  67.2221156 109.6098102
  45.2900012  70.7914997 112.3559988  45.1960012  70.2134997 111.5999988
  46.0200012  70.4204997 112.8529988  45.3757387  70.6621663 112.3195342
  44.2900012  66.1324997 113.3089988  44.8560012  66.2534997 112.5459988
  44.6090012  66.7694997 113.9469988  44.4105474  66.2352219 113.2909862
  50.5990012  71.6354997 114.0429988  50.3590012  72.2974997 114.6909988
  50.4010012  70.8014997 114.4679988  50.5393808  71.6133134 114.1891524
  45.1700012  70.5314997 118.0259988  44.8590012  71.3134997 118.4809988
  44.5200012  70.3784997 117.3399988  45.0395558  70.6179105 117.9955871
  51.1490012  65.8954997 105.4779988  51.7290012  66.0454997 106.2249988
  51.5630012  66.3664997 104.7539988  51.2842997  65.9796578 105.4824058
  42.0900012  66.7294997 117.2539988  42.1610012  67.3804997 117.9529988
  41.2000012  66.8324997 116.9189988  41.9793005  66.8325427 117.3043495
  48.8760012  72.6324997 108.9129988  49.3500012  72.9274997 109.6899988
  48.3130012  73.3704997 108.6799988  48.8648184  72.7727247 108.9879628
  43.4100012  72.6034997 118.7889988  43.4170012  72.4674997 117.8419988
  42.4940012  72.4854997 119.0409988  43.2871714  72.5689430 118.6934666
  54.8480012  57.6454997 105.2909988  53.9480012  57.7844997 105.5859988
  55.1000012  58.4764997 104.8889988  54.7588702  57.7769074 105.2770205
  42.9140012  66.4334997 107.2639988  42.6220012  67.2014997 106.7739988
  42.2400012  65.7734997 107.1019988  42.7828111  66.4495587 107.1748978
  56.0370012  72.0114997 103.6669988  56.1110012  72.9504997 103.8379988
  56.9430012  71.7064997 103.6109988  56.1695100  72.0986722 103.6828119
  39.0070012  68.7964997 116.0789988  38.5060012  68.7684997 115.2639988
  39.0120012  67.8904997 116.3889988  38.9390944  68.6702396 116.0093226
  38.7570012  71.5764997 112.9629988  39.7030012  71.4324997 112.9439988
  38.6450012  72.3604997 113.4999988  38.8712727  71.6628046 113.0330072
  56.9550012  72.2424997 118.6459988  56.9060012  71.2874997 118.6089988
  56.1280012  72.5104997 119.0469988  56.8364940  72.1478998 118.6951375
  47.9340012  71.8164997 117.5219988  48.0210012  72.6424997 117.9969988
  47.0700012  71.4864997 117.7709988  47.8291964  71.8849878 117.6206549
  48.3480012  75.5884997 107.3279988  48.2730012  75.4674997 106.3809988
  48.3810012  76.5384997 107.4459988  48.3422068  75.7002646 107.2144967
  42.0010012  74.3774997 109.1089988  42.1540012  74.0294997 109.9869988
  41.1510012  74.0214997 108.8539988  41.9069166  74.2816216 109.1948079
  51.1190012  74.6684997 107.0789988  50.1830012  74.7684997 107.2579988
  51.3990012  73.9594997 107.6579988  51.0289553  74.5863406 107.1817087
  54.1070012  63.7354997 119.1259988  53.7000012  64.2164997 118.4049988
  54.1480012  62.8304997 118.8179988  54.0568437  63.6789374 118.9856683
  41.2560012  70.1194997 117.1229988  41.4720012  69.7584997 117.9819988
  40.4010012  69.7454997 116.9129988  41.1699292  70.0194111 117.2123386
  43.8750012  58.5894997 113.1179988  43.0130012  58.5024997 112.7099988
  43.8520012  59.4454997 113.5459988  43.7540409  58.6932883 113.1200589
  48.5380012  58.3114997 116.4929988  48.9580012  57.8964997 117.2459988
  47.6050012  58.1334997 116.6099988  48.4693644  58.2305900 116.6119539
  51.8640012  62.0674997 117.3459988  51.3500012  61.9414997 118.1439988
  51.7090012  62.9794997 117.1019988  51.7726852  62.1736132 117.4222158
  43.9660012  63.5554997 114.2129988  43.3240012  63.5144997 114.9219988
  44.0030012  64.4814997 113.9749988  43.8830664  63.6751430 114.2779219
  43.9630012  63.7764997 109.1249988  43.0700012  63.4354997 109.0659988
  44.4130012  63.3994997 108.3689988  43.9018130  63.6789631 109.0147702
  49.4980012  64.1924997 107.9419988  49.0890012  65.0074997 107.6509988
  50.2190012  64.0524997 107.3279988  49.5394537  64.2852018 107.8191342
  48.6000012  64.3674997 119.4299988  48.0380012  63.6634997 119.7509988
  49.4270012  64.2474997 119.8979988  48.6347095  64.2547883 119.5372330
  50.5030012  63.6384997 110.7559988  50.3080012  64.2434997 110.0409988
  50.6840012  62.8044997 110.3219988  50.5007614  63.6086300 110.5994405
  41.7160012  63.8754997 116.0799988  41.6780012  64.2754997 116.9489988
  41.2250012  63.0584997 116.1709988  41.6444684  63.8198069 116.2111059
  38.3240012  60.9914997 109.9309988  38.9550012  60.9624997 110.6499988
  38.7730012  60.5664997 109.1999988  38.4710918  60.9300836 109.9306441
  49.7670012  65.2764997 115.4269988  50.0900012  64.6454997 114.7839988
  49.3270012  64.7414997 116.0879988  49.7517484  65.1178387 115.4283198
  46.5440012  61.2034997 110.2109988  45.6330012  61.2604997 110.4999988
  47.0500012  61.1434997 111.0219988  46.4876899  61.2031941 110.3601184
  41.3730012  62.8324997 109.0379988  40.4830012  62.9324997 108.6979988
  41.6690012  61.9904997 108.6919988  41.2912823  62.7323545 108.9447213
  45.0260012  62.8324997 106.6949988  45.9570012  62.9614997 106.8729988
  44.8110012  63.5024997 106.0449988  45.1244247  62.9406565 106.6315747
  50.9490012  60.4384997 113.4759988  50.2730012  60.5694997 114.1399988
  50.4640012  60.2834997 112.6649988  50.7907146  60.4355157 113.4574469
  43.7000012  64.0274997 104.2609988  43.1570012  63.6474997 103.5699988
  44.5330012  64.2214997 103.8329988  43.7383631  64.0017125 104.1084501
  54.2370012  76.1104997 119.7519988  54.4370012  76.5344997 118.9179988
  54.8920012  76.4534997 120.3589988  54.3530072  76.2149857 119.7198592
  41.8350012  68.5844997 119.3599988  42.5670012  68.8384997 119.9219988
  41.0550012  68.7884997 119.8759988  41.8297073  68.6468160 119.5066151
  47.8640012  63.9914997 112.0979988  48.4290012  63.4444997 111.5509988
  47.7170012  63.4694997 112.8869988  47.9213380  63.8462259 112.1298695
  42.8660012  60.1274997 108.5169988  42.5490012  59.2254997 108.4809988
  43.6480012  60.1294997 107.9639988  42.9282408  60.0042474 108.4373569
  46.4910012  62.3794997 114.5119988  45.6550012  62.8334997 114.6229988
  47.0150012  62.6554997 115.2639988  46.4475416  62.4788660 114.6288119
  47.0350012  68.5924997 106.1969988  46.2900012  68.0854997 105.8749988
  46.9010012  68.6414997 107.1439988  46.9148776  68.5296940 106.2808647
  54.1850012  67.7254997 114.9839988  54.8270012  68.1824997 114.4399988
  53.3550012  67.8384997 114.5209988  54.1605963  67.8032704 114.8470177
  50.9330012  61.4064997 104.3959988  49.9940012  61.5184997 104.2449988
  51.2300012  62.2634997 104.7029988  50.8447583  61.5375981 104.4168337
  48.5540012  68.7764997 117.4339988  48.2090012  68.3954997 118.2409988
  48.3540012  69.7104997 117.5049988  48.4797527  68.8505135 117.5540689
  51.6510012  63.2734997 106.0569988  52.5430012  63.1364997 106.3759988
  51.7080012  64.0644997 105.5199988  51.7806504  63.3616052 106.0280818
  42.1600012  67.8874997 111.9669988  42.9050012  67.8854997 111.3659988
  42.2380012  67.0644997 112.4479988  42.2724995  67.7758887 111.9498282
  49.1610012  70.0514997 105.2229988  48.8650012  70.8774997 105.6039988
  48.4580012  69.4314997 105.4189988  49.0254914  70.0808199 105.3016443
  39.1680012  66.3484997 117.2819988  39.3910012  65.9304997 118.1139988
  38.5660012  65.7354997 116.8589988  39.1171759  66.2084668 117.3387022
  46.1840012  65.8654997 119.4949988  45.8880012  65.6994997 118.5999988
  47.1160012  65.6454997 119.4839988  46.2694166  65.8130640 119.3710536
  50.8050012  71.2384997 117.3849988  49.9040012  71.4214997 117.1169988
  50.8390012  71.4974997 118.3049988  50.6863139  71.2985849 117.4728099
  56.5360012  63.4834997 105.7519988  55.9820012  63.0874997 105.0799988
  56.6360012  64.3934997 105.4739988  56.4737059  63.5523586 105.6224401
  56.4990012  69.2834997 118.5889988  55.6480012  69.5214997 118.2219988
  57.0900012  69.2664997 117.8359988  56.4622487  69.3138258 118.4368893
  54.8310012  72.2694997 106.2169988  54.4580012  71.4434997 106.5259988
  55.1090012  72.0864997 105.3189988  54.8175222  72.1317430 106.1379473
  51.9920012  67.0774997 113.2379988  51.0630012  66.8454997 113.2109988
  52.4430012  66.3004997 112.9079988  51.9259216  66.9407238 113.1896917
  44.5350012  71.4054997 109.3709988  45.0620012  72.1784997 109.1709988
  43.6550012  71.6304997 109.0689988  44.4882031  71.5417545 109.3027912
  45.9620012  69.0684997 108.9469988  45.7210012  69.9934997 108.9889988
  45.2210012  68.6094997 109.3439988  45.8289225  69.1330933 109.0063742
  46.4770012  73.2174997 115.2629988  46.8390012  74.0724997 115.0289988
  47.0080012  72.9254997 116.0029988  46.5984473  73.2951060 115.3310855
  44.6450012  74.0904997 108.4929988  43.6950012  74.1954997 108.5439988
  44.9970012  74.9104997 108.8369988  44.5624195  74.2158800 108.5465502
  50.0210012  69.3164997 114.9629988  49.5950012  69.0894997 115.7899988
  50.6010012  68.5784997 114.7809988  50.0411868  69.1855299 115.0515830
  52.2240012  70.2454997 104.0369988  52.5770012  69.8654997 104.8409988
  51.2750012  70.1524997 104.1239988  52.1440918  70.1808956 104.1588532
  52.6790012  73.8684997 117.4329988  52.0780012  73.3134997 116.9369988
  52.9610012  74.5354997 116.8059988  52.6348804  73.8826625 117.2804849
  40.8020012  61.1014997 116.8399988  39.9090012  61.4404997 116.7719988
  40.7030012  60.2464997 117.2579988  40.6664164  61.0322588 116.8872235
  53.0900012  68.9184997 106.2639988  52.8120012  68.1904997 106.8199988
  54.0170012  69.0374997 106.4689988  53.1773124  68.8348802 106.3678845
  40.4530012  72.9064997 115.2749988  40.6700012  71.9744997 115.2439988
  40.6990012  73.1804997 116.1579988  40.5159549  72.8160636 115.3901763
  45.2520012  70.9274997 104.9399988  45.3980012  70.4074997 105.7299988
  45.2490012  71.8344997 105.2469988  45.2715792  70.9788842 105.0896117
  41.7050012  68.1804997 105.4509988  41.0190012  68.5324997 106.0179988
  42.2270012  68.9434997 105.2039988  41.6816852  68.3318578 105.4952118
  49.5360012  60.8424997 115.7299988  50.2350012  60.9164997 116.3799988
  49.1550012  59.9784997 115.8839988  49.5801767  60.7357624 115.8398322
  50.3210012  60.4944997 106.8269988  50.5410012  60.9664997 106.0239988
  50.8790012  60.8894997 107.4969988  50.4264968  60.6124285 106.8077331
  47.9890012  72.6254997 105.6899988  47.1730012  73.1224997 105.7419988
  48.5190012  73.1004997 105.0499988  47.9489161  72.7577722 105.6105956
  47.5210012  62.2224997 107.6619988  48.3330012  62.7274997 107.7079988
  47.2760012  62.0774997 108.5759988  47.5990520  62.2720375 107.7918517
  48.0560012  63.2084997 116.8459988  48.1750012  63.7824997 117.6039988
  48.7120012  62.5204997 116.9609988  48.1609025  63.1939858 116.9651321
  48.4040012  59.3034997 108.5999988  48.0580012  59.9214997 109.2439988
  49.0630012  59.8044997 108.1179988  48.4456968  59.4556278 108.6229383
  45.3280012  73.6694997 105.6709988  45.4880012  74.4684997 105.1709988
  45.1300012  73.9754997 106.5559988  45.3231637  73.8204020 105.7221144
  54.2610012  61.1154997 117.6809988  53.3440012  61.3784997 117.5939988
  54.5960012  61.1124997 116.7849988  54.1808613  61.1510761 117.5478837
  52.8630012  64.8664997 111.7769988  52.0650012  64.4514997 111.4489988
  53.3080012  64.1754997 112.2679988  52.8139885  64.7163543 111.7984889
  42.3210012  70.7944997 104.3479988  42.9130012  71.4934997 104.6239988
  42.7800012  70.3614997 103.6279988  42.4641142  70.8317049 104.2884830
  53.9490012  74.1224997 113.3999988  53.7940012  74.8004997 112.7419988
  54.8820012  74.1944997 113.6029988  54.0538657  74.2249546 113.3374360
  41.4450012  58.2404997 112.1369988  41.2160012  58.2994997 111.2089988
  41.0020012  57.4484997 112.4429988  41.3538530  58.1415753 112.0514786
  40.3750012  72.1804997 108.2969988  39.5430012  72.6534997 108.3239988
  40.9210012  72.6904997 107.6989988  40.3350352  72.3141332 108.2198463
  39.6630012  74.7934997 119.6269988  40.2040012  74.5764997 120.3869988
  39.1820012  73.9874997 119.4369988  39.6719951  74.6549270 119.7052576
  44.2610012  73.7124997 121.2469988  45.0280012  73.2534997 121.5879988
  44.2390012  73.4864997 120.3179988  44.3631275  73.6190186 121.1680101
  50.8380012  72.0924997 119.9769988  50.4870012  71.2364997 120.2199988
  51.5640012  72.2354997 120.5839988  50.8880769  71.9945636 120.0923619
  39.5700012  68.6034997 120.5809988  39.7140012  67.7014997 120.2949988
  38.7980012  68.8894997 120.0939988  39.4852753  68.5186816 120.4759505
  46.2260012  68.5734997 120.0139988  45.8970012  68.8444997 119.1569988
  46.3780012  67.6324997 119.9269988  46.2014809  68.4833862 119.8848244
  51.9600012  68.4894997 117.3969988  52.7060012  69.0774997 117.2779988
  51.2030012  69.0714997 117.4609988  51.9597820  68.6487143 117.3893590
  40.4030012  65.8034997 120.0009988  40.8110012  64.9464997 119.8799988
  40.1430012  65.8184997 120.9219988  40.4237568  65.6880807 120.1089588
  45.0610012  66.9194997 105.0199988  44.6010012  66.4354997 105.7059988
  45.3160012  66.2514997 104.3839988  45.0324902  66.7628731 105.0279334
  44.3500012  64.8124997 117.3759988  43.7320012  65.4874997 117.6559988
  44.6940012  65.1334997 116.5419988  44.3119132  64.9482411 117.3016262
  49.3700012  67.2844997 120.6529988  50.3230012  67.3674997 120.6259988
  49.2090012  66.5724997 121.2729988  49.4786426  67.1996746 120.7330579
  44.6890012  62.1674997 118.4579988  44.8390012  61.4384997 117.8559988
  44.6920012  62.9444997 117.8989988  44.7099302  62.1727851 118.3000692
  45.1020012  60.5374997 115.9509988  45.6380012  60.9884997 115.2989988
  44.2500012  60.4294997 115.5279988  45.0602178  60.5846390 115.8045756
  46.6840012  65.9764997 116.1899988  47.4340012  65.8204997 115.6169988
  46.3450012  66.8284997 115.9149988  46.7408921  66.0702968 116.0743561
  51.0990012  63.7914997 121.2189988  51.2920012  62.8604997 121.1069988
  51.9570012  64.2164997 121.2079988  51.2412934  63.7216531 121.2022031
  52.4160012  66.5804997 119.2959988  52.1350012  67.2894997 118.7179988
  53.3590012  66.5074997 119.1449988  52.5049291  66.6676711 119.1964967
  43.1680012  63.3654997 120.3699988  42.4010012  62.8334997 120.1589988
  43.8470012  63.0554997 119.7699988  43.1547877  63.2508300 120.2600716
  45.9080012  57.9934997 116.3819988  45.8090012  58.9404997 116.2769988
  45.1650012  57.6214997 115.9059988  45.7941184  58.0725863 116.3033621
  47.1720012  62.3154997 119.9459988  46.9360012  62.0954997 120.8469988
  46.3880012  62.1084997 119.4359988  47.0338504  62.2574586 120.0003431
  49.8870012  61.4424997 119.0209988  48.9400012  61.4744997 119.1539988
  50.2000012  60.8174997 119.6749988  49.7996707  61.3623998 119.1276060
  51.5210012  60.0764997 121.0269988  51.4250012  59.1244997 121.0209988
  51.2000012  60.3454997 121.8869988  51.4644070  59.9824035 121.1425441
  41.3480012  61.2864997 120.0739988  41.5600012  60.5794997 119.4639988
  41.2370012  60.8484997 120.9179988  41.3619721  61.1307084 120.1046843
  46.1290012  57.2874997 119.0529988  46.8410012  56.6474997 119.0389988
  46.0280012  57.5544997 118.1399988  46.2128066  57.2360079 118.9275677
  46.4830012  58.9704997 121.1069988  46.3510012  58.4944997 120.2869988
  45.8840012  59.7144997 121.0519988  46.3839071  59.0059618 120.9872886
  46.0290012  75.8534997 104.2829988  46.9620012  76.0114997 104.4269988
  45.7650012  76.5284997 103.6589988  46.1209888  75.9664510 104.2182842
  38.2470012  75.8824997 108.8439988  37.6000012  75.4204997 108.3109988
  38.6010012  75.2104997 109.4259988  38.2063849  75.7284723 108.8497959
  39.1170012  73.9634997 110.6479988  38.7820012  73.0834997 110.8199988
  39.3390012  74.3084997 111.5129988  39.1011783  73.8897500 110.7884208
  56.6650012  74.7724997 113.6289988  56.6440012  74.9574997 114.5679988
  57.3560012  75.3414997 113.2879988  56.7554618  74.8746606 113.7113864
  56.2290012  74.3404997 116.5509988  55.7410012  73.6044997 116.1789988
  56.7780012  73.9464997 117.2289988  56.2364820  74.1865889 116.5917813
  54.6790012  70.1294997 121.1889988  53.8130012  70.0244997 121.5829988
  55.0560012  70.8884997 121.6349988  54.6113308  70.2176900 121.3032393
  55.9800012  68.3864997 106.7029988  56.8300012  68.8074997 106.8299988
  55.9860012  67.6464997 107.3099988  56.0971372  68.3440803 106.8024344
  56.3750012  66.4394997 108.5259988  55.6480012  65.9604997 108.9239988
  56.9560012  66.6454997 109.2589988  56.3540473  66.4018103 108.6794528
  56.1340012  69.2244997 113.4739988  56.9670012  68.8464997 113.1939988
  56.2460012  70.1674997 113.3549988  56.2632647  69.3002218 113.4195487
  54.6200012  72.1024997 115.7809988  53.9730012  72.4274997 116.4069988
  54.1030012  71.6624997 115.1069988  54.4614029  72.0875004 115.7755827
  54.1610012  64.9604997 109.0889988  54.0110012  64.0154997 109.0689988
  53.8080012  65.2414997 109.9329988  54.0927448  64.8691481 109.2003705
  39.1970012  67.0384997 113.0999988  39.3810012  66.9564997 112.1639988
  40.0460012  66.9144997 113.5229988  39.3370151  67.0105073 113.0291451
  55.0180012  66.9304997 118.7279988  55.6010012  66.1964997 118.9199988
  55.5820012  67.7024997 118.7749988  55.1739769  66.9344227 118.7606159
  56.5140012  64.8334997 119.4129988  55.6510012  64.4544997 119.2469988
  57.1190012  64.0944997 119.3379988  56.4776119  64.6818268 119.3801528
  53.8720012  62.5434997 107.5519988  54.1520012  61.6364997 107.6759988
  54.6310012  62.9774997 107.1629988  54.0129277  62.4780942 107.5163682
  54.4840012  63.1244997 112.9879988  55.4170012  63.3364997 112.9529988
  54.2490012  63.2264997 113.9099988  54.5799244  63.1673100 113.1078892
  54.5130012  63.8614997 115.7639988  53.6700012  64.1294997 116.1299988
  54.9550012  64.6834997 115.5529988  54.4574158  64.0093291 115.7855491
  38.7940012  62.3094997 119.2409988  39.7140012  62.1874997 119.4769988
  38.3450012  61.5594997 119.6299988  38.8591580  62.1913727 119.3259006
  56.7960012  57.8414997 121.1169988  57.1460012  57.1874997 120.5119988
  56.9430012  58.6784997 120.6769988  56.8637887  57.8651548 120.9746858
  54.4850012  59.8064997 107.5999988  54.6680012  59.3574997 108.4259988
  53.8860012  59.2214997 107.1369988  54.4290202  59.6659975 107.6503275
  40.0150012  60.6214997 112.1319988  40.4610012  59.8294997 112.4339988
  40.4820012  61.3374997 112.5619988  40.1390831  60.6100685 112.2314006
  38.3190012  63.6204997 113.2009988  38.8110012  63.3994997 112.4099988
  38.6820012  64.4614997 113.4819988  38.4353126  63.7038357 113.1307531
  56.3160012  59.9504997 119.4659988  55.3980012  60.2214997 119.4309988
  56.4390012  59.4154997 118.6819988  56.2069729  59.9152508 119.3551923
  56.3520012  59.8734997 104.1279988  56.7640012  59.1524997 103.6529988
  57.0340012  60.5434997 104.1869988  56.5005885  59.8652368 104.0708915
  38.6330012  59.8784997 107.2549988  37.7080012  60.0874997 107.1259988
  39.0870012  60.3624997 106.5649988  38.5677292  59.9725343 107.1440720
  53.4040012  74.8624997 109.2009988  54.0560012  74.5154997 108.5929988
  53.9140012  75.3514997 109.8469988  53.5622637  74.8810597 109.2050236
  38.5970012  58.6164997 115.5989988  37.9320012  58.3704997 116.2429988
  38.1540012  59.2384997 115.0219988  38.4461318  58.6669410 115.6090898
  40.7890012  71.7914997 119.7439988  39.9680012  71.9664997 119.2829988
  40.5360012  71.7184997 120.6639988  40.6425585  71.8055544 119.8053561
  43.7430012  72.7664997 116.0019988  43.3180012  73.5754997 115.7199988
  44.6470012  72.8514997 115.6999988  43.8069975  72.8889300 115.9224816
  48.0540012  74.1654997 118.9619988  48.2390012  73.8314997 119.8399988
  48.9000012  74.4744997 118.6399988  48.1937539  74.1616047 119.0385605
  50.3990012  75.4514997 118.2059988  51.0760012  74.8184997 117.9659988
  50.7210012  75.8524997 119.0129988  50.5351637  75.4191154 118.2822793
  55.3160012  58.0404997 117.2849988  54.5040012  58.3654997 116.8979988
  55.5490012  57.2804997 116.7519988  55.2362203  57.9822758 117.1598880
  41.1450012  76.0224997 116.0499988  40.4240012  76.4624997 115.5989988
  40.7790012  75.7714997 116.8979988  40.9969651  76.0487242 116.1029640
  43.6120012  75.6224997 115.0799988  42.7470012  75.6944997 115.4839988
  43.5570012  76.1694997 114.2959988  43.4862085  75.7062685 115.0293362
  48.3220012  75.5104997 114.2549988  47.8660012  76.0394997 113.6009988
  48.4850012  76.1134997 114.9799988  48.2816068  75.6644607 114.2634838
  50.6500012  74.3884997 115.1999988  49.7450012  74.5534997 114.9339988
  51.0790012  75.2414997 115.1349988  50.5841324  74.5264339 115.1547976
  53.2540012  75.9584997 115.4949988  53.0720012  76.8744997 115.2849988
  53.4310012  75.5484997 114.6489988  53.2530210  76.0284822 115.3517885
  40.5590012  74.6454997 112.9599988  40.5410012  74.2204997 113.8169988
  41.3640012  74.3274997 112.5509988  40.6653529  74.5443013 113.0220946
  42.7010012  73.3554997 111.6149988  42.4820012  72.4394997 111.7849988
  43.5250012  73.4954997 112.0809988  42.7824420  73.2490520 111.7012774
  45.2380012  73.8254997 112.4639988  45.4510012  72.9374997 112.1769988
  45.3020012  73.7914997 113.4179988  45.2758232  73.6993102 112.5537397
  48.7460012  59.4894997 111.6079988  48.0720012  58.8604997 111.8639988
  49.3100012  59.0054997 111.0049988  48.7299230  59.3378744 111.5615340
  53.8890012  57.5974997 111.7209988  54.4930012  58.1444997 111.2189988
  53.0190012  57.9164997 111.4799988  53.8541208  57.7155137 111.6196886
  55.6160012  58.7354997 110.0539988  56.2280012  58.2214997 109.5269988
  55.9980012  59.6134997 110.0769988  55.7513371  58.7837866 109.9850041
  41.0730012  58.1234997 109.4299988  40.2960012  57.8894997 108.9229988
  41.6030012  57.3264997 109.4389988  41.0382330  57.9836988 109.3617742
  39.9090012  57.9214997 105.2339988  40.3480012  58.5324997 104.6419988
  39.2760012  58.4594997 105.7079988  39.8834514  58.0779257 105.2170930
  45.6520012  58.0504997 109.2439988  46.5270012  58.4384997 109.2139988
  45.5160012  57.8354997 110.1659988  45.7533695  58.0745184 109.3646440
  51.2090012  58.0804997 110.8929988  51.2850012  58.1754997 109.9429988
  50.9340012  57.1724997 111.0219988  51.1822321  57.9707867 110.7805079
  52.5620012  58.1064997 106.5849988  51.8600012  58.7214997 106.3749988
  52.1180012  57.2684997 106.7159988  52.4056450  58.0775639 106.5739000
  39.8100012  73.8694997 106.1309988  39.1250012  73.8314997 105.4639988
  39.8140012  74.7824997 106.4199988  39.7166998  73.9876733 106.0786771
  41.7700012  59.8374997 103.6759988  42.2620012  59.2074997 103.1489988
  42.3940012  60.1334997 104.3389988  41.9215688  59.7913804 103.6935482
  55.3840012  74.6424997 107.2079988  55.1890012  73.8944997 106.6429988
  55.3450012  75.4004997 106.6249988  55.3520380  74.6426099 107.0518384
  41.0310012  58.6374997 118.9479988  40.6650012  57.8724997 119.3899988
  41.9440012  58.6664997 119.2339988  41.1042736  58.5365640 119.0472502
  43.0040012  57.9884997 120.4839988  43.9020012  57.7144997 120.2989988
  42.6170012  57.2454997 120.9479988  43.0746612  57.8505914 120.5213643
  51.4250012  57.3204997 120.6659988  51.5020012  56.8944997 121.5199988
  52.3190012  57.3344997 120.3229988  51.5563428  57.2640879 120.7365310
  54.6010012  73.3934997 119.3579988  53.8190012  73.2074997 118.8379988
  54.5290012  74.3224997 119.5759988  54.4842274  73.4936643 119.3163018
  60.3090012  66.1494997 114.4009988  60.3500012  65.5234997 115.1239988
  61.0120012  66.7734997 114.5829988  60.4096363  66.1481196 114.5246044
  71.6460012  69.4734997 111.1089988  71.2060012  68.7534997 111.5599988
  71.6330012  70.1944997 111.7389988  71.5840226  69.4723731 111.2558494
  61.2320012  70.5994997 112.9359988  60.8630012  69.7974997 112.5659988
  62.1730012  70.4304997 112.9819988  61.3087289  70.4670153 112.8916316
  57.8420012  64.2594997 108.3289988  57.3950012  65.1054997 108.3099988
  57.2810012  63.6794997 107.8129988  57.7049900  64.2969916 108.2566801
  58.5530012  66.4214997 110.4539988  58.7660012  65.6514997 110.9819988
  59.2910012  66.5104997 109.8509988  58.6819044  66.3281968 110.4447123
  68.7580012  74.5784997 111.3209988  69.3780012  73.9014997 111.0479988
  68.5500012  74.3604997 112.2299988  68.8146726  74.4564800 111.4064812
  66.3300012  68.9674997 113.2139988  66.6340012  68.2814997 112.6189988
  67.0510012  69.0854997 113.8319988  66.4690671  68.8896305 113.2161816
  74.9930012  60.5684997 114.0749988  75.0420012  61.1784997 114.8099988
  75.4180012  61.0294997 113.3519988  75.0571746  60.7143796 114.0779175
  69.4710012  63.3614997 113.5409988  69.6130012  62.4154997 113.5619988
  69.3640012  63.5684997 112.6129988  69.4759919  63.2598246 113.4183408
  62.6250012  61.4624997 110.8139988  62.6690012  62.3224997 110.3949988
  62.1680012  60.9104997 110.1799988  62.5692240  61.5054422 110.6709864
  70.3480012  61.5934997 109.2149988  70.9940012  61.2644997 109.8389988
  70.8580012  62.1114997 108.5919988  70.5054299  61.6184450 109.2162731
  59.2460012  63.8594997 111.5759988  59.8990012  63.3094997 112.0079988
  59.2700012  63.5854997 110.6589988  59.3386683  63.7471466 111.5112123
  75.3840012  62.0464997 116.3099988  74.6960012  62.7044997 116.2149988
  75.4000012  61.8494997 117.2469988  75.2919540  62.1099819 116.4235990
  61.4360012  60.3804997 114.8879988  61.2170012  60.9104997 114.1219988
  60.7680012  60.6074997 115.5349988  61.3157600  60.4836906 114.8706379
  64.0050012  68.0564997 115.1749988  63.2650012  68.6544997 115.2789988
  64.7190012  68.6104997 114.8599988  64.0002237  68.2132831 115.1466465
  72.1120012  60.8844997 111.1949988  71.8960012  60.1184997 111.7279988
  72.7670012  61.3564997 111.7079988  72.1710632  60.8435889 111.3372861
  61.0290012  62.2724997 112.8399988  61.6430012  62.9054997 113.2129988
  61.5410012  61.8004997 112.1839988  61.1821981  62.2952267 112.8022908
  62.4120012  70.0204997 115.9619988  62.4070012  70.9004997 115.5839988
  61.5590012  69.9374997 116.3869988  62.2959464  70.1296117 115.9677907
  58.5330012  69.6914997 106.7439988  58.2610012  69.9204997 105.8559988
  58.5790012  70.5294997 107.2049988  58.5019482  69.8361318 106.6846273
  72.1580012  71.3134997 113.4569988  71.2170012  71.3714997 113.6189988
  72.4350012  72.2194997 113.3199988  72.0664679  71.4439443 113.4606815
  72.4590012  59.5994997 114.8749988  71.7230012  60.2104997 114.8369988
  73.1420012  60.0144997 114.3479988  72.4506541  59.7391374 114.7985832
  65.4620012  57.6864997 112.3399988  65.3450012  56.7374997 112.2859988
  64.6070012  58.0184997 112.6139988  65.3304212  57.6015571 112.3696497
  70.4100012  73.0944997 110.0819988  70.8360012  72.3874997 109.5969988
  70.7270012  73.8954997 109.6659988  70.5111683  73.1061017 109.9593680
  71.5700012  70.9954997 108.5909988  71.3120012  70.3054997 107.9799988
  71.6410012  70.5524997 109.4369988  71.5442856  70.8412124 108.6216885
  73.2560012  69.5614997 117.0679988  73.3960012  68.9704997 116.3289988
  73.4230012  70.4344997 116.7119988  73.2977411  69.5985428 116.9186894
  75.0980012  65.9014997 115.1339988  74.4450012  66.5964997 115.2239988
  75.5630012  66.1114997 114.3249988  75.0715274  66.0250643 115.0368462
  71.0320012  64.9074997 116.8599988  71.1120012  65.6704997 117.4319988
  70.4300012  65.1864997 116.1699988  70.9615756  65.0497134 116.8450589
  64.1460012  70.7914997 112.3559988  64.0520012  70.2134997 111.5999988
  64.8760012  70.4204997 112.8529988  64.2317387  70.6621663 112.3195342
  63.1460012  66.1324997 113.3089988  63.7120012  66.2534997 112.5459988
  63.4650012  66.7694997 113.9469988  63.2665474  66.2352219 113.2909862
  69.4550012  71.6354997 114.0429988  69.2150012  72.2974997 114.6909988
  69.2570012  70.8014997 114.4679988  69.3953808  71.6133134 114.1891524
  64.0260012  70.5314997 118.0259988  63.7150012  71.3134997 118.4809988
  63.3760012  70.3784997 117.3399988  63.8955558  70.6179105 117.9955871
  60.9460012  66.7294997 117.2539988  61.0170012  67.3804997 117.9529988
  60.0560012  66.8324997 116.9189988  60.8353005  66.8325427 117.3043495
  67.7320012  72.6324997 108.9129988  68.2060012  72.9274997 109.6899988
  67.1690012  73.3704997 108.6799988  67.7208184  72.7727247 108.9879628
  62.2660012  72.6034997 118.7889988  62.2730012  72.4674997 117.8419988
  61.3500012  72.4854997 119.0409988  62.1431714  72.5689430 118.6934666
  57.8630012  68.7964997 116.0789988  57.3620012  68.7684997 115.2639988
  57.8680012  67.8904997 116.3889988  57.7950944  68.6702396 116.0093226
  57.6130012  71.5764997 112.9629988  58.5590012  71.4324997 112.9439988
  57.5010012  72.3604997 113.4999988  57.7272727  71.6628046 113.0330072
  75.8110012  72.2424997 118.6459988  75.7620012  71.2874997 118.6089988
  74.9840012  72.5104997 119.0469988  75.6924940  72.1478998 118.6951375
  66.7900012  71.8164997 117.5219988  66.8770012  72.6424997 117.9969988
  65.9260012  71.4864997 117.7709988  66.6851964  71.8849878 117.6206549
  67.2040012  75.5884997 107.3279988  67.1290012  75.4674997 106.3809988
  67.2370012  76.5384997 107.4459988  67.1982068  75.7002646 107.2144967
  60.8570012  74.3774997 109.1089988  61.0100012  74.0294997 109.9869988
  60.0070012  74.0214997 108.8539988  60.7629166  74.2816216 109.1948079
  72.9630012  63.7354997 119.1259988  72.5560012  64.2164997 118.4049988
  73.0040012  62.8304997 118.8179988  72.9128437  63.6789374 118.9856683
  60.1120012  70.1194997 117.1229988  60.3280012  69.7584997 117.9819988
  59.2570012  69.7454997 116.9129988  60.0259292  70.0194111 117.2123386
  62.7310012  58.5894997 113.1179988  61.8690012  58.5024997 112.7099988
  62.7080012  59.4454997 113.5459988  62.6100409  58.6932883 113.1200589
  67.3940012  58.3114997 116.4929988  67.8140012  57.8964997 117.2459988
  66.4610012  58.1334997 116.6099988  67.3253644  58.2305900 116.6119539
  70.7200012  62.0674997 117.3459988  70.2060012  61.9414997 118.1439988
  70.5650012  62.9794997 117.1019988  70.6286852  62.1736132 117.4222158
  71.4830012  66.9284997 103.1079988  71.5250012  66.7054997 102.1779988
  72.3320012  67.3274997 103.2969988  71.6035280  66.9519438 103.0063554
  62.8220012  63.5554997 114.2129988  62.1800012  63.5144997 114.9219988
  62.8590012  64.4814997 113.9749988  62.7390664  63.6751430 114.2779219
  67.4560012  64.3674997 119.4299988  66.8940012  63.6634997 119.7509988
  68.2830012  64.2474997 119.8979988  67.4907095  64.2547883 119.5372330
  60.5720012  63.8754997 116.0799988  60.5340012  64.2754997 116.9489988
  60.0810012  63.0584997 116.1709988  60.5004684  63.8198069 116.2111059
  57.1800012  60.9914997 109.9309988  57.8110012  60.9624997 110.6499988
  57.6290012  60.5664997 109.1999988  57.3270918  60.9300836 109.9306441
  58.4540012  61.7374997 105.3549988  58.9280012  62.3284997 104.7699988
  57.7370012  62.2684997 105.7019988  58.4219341  61.8900867 105.3218836
  68.6230012  65.2764997 115.4269988  68.9460012  64.6454997 114.7839988
  68.1830012  64.7414997 116.0879988  68.6077484  65.1178387 115.4283198
  60.2290012  62.8324997 109.0379988  59.3390012  62.9324997 108.6979988
  60.5250012  61.9904997 108.6919988  60.1472823  62.7323546 108.9447213
  69.8050012  60.4384997 113.4759988  69.1290012  60.5694997 114.1399988
  69.3200012  60.2834997 112.6649988  69.6467146  60.4355157 113.4574469
  73.0930012  76.1104997 119.7519988  73.2930012  76.5344997 118.9179988
  73.7480012  76.4534997 120.3589988  73.2090072  76.2149857 119.7198592
  60.6910012  68.5844997 119.3599988  61.4230012  68.8384997 119.9219988
  59.9110012  68.7884997 119.8759988  60.6857073  68.6468160 119.5066151
  66.7200012  63.9914997 112.0979988  67.2850012  63.4444997 111.5509988
  66.5730012  63.4694997 112.8869988  66.7773380  63.8462259 112.1298695
  61.7220012  60.1274997 108.5169988  61.4050012  59.2254997 108.4809988
  62.5040012  60.1294997 107.9639988  61.7842408  60.0042474 108.4373569
  65.3470012  62.3794997 114.5119988  64.5110012  62.8334997 114.6229988
  65.8710012  62.6554997 115.2639988  65.3035416  62.4788660 114.6288119
  73.0410012  67.7254997 114.9839988  73.6830012  68.1824997 114.4399988
  72.2110012  67.8384997 114.5209988  73.0165963  67.8032704 114.8470177
  67.4100012  68.7764997 117.4339988  67.0650012  68.3954997 118.2409988
  67.2100012  69.7104997 117.5049988  67.3357527  68.8505135 117.5540689
  61.0160012  67.8874997 111.9669988  61.7610012  67.8854997 111.3659988
  61.0940012  67.0644997 112.4479988  61.1284995  67.7758887 111.9498282
  68.0170012  70.0514997 105.2229988  67.7210012  70.8774997 105.6039988
  67.3140012  69.4314997 105.4189988  67.8814914  70.0808199 105.3016443
  58.0240012  66.3484997 117.2819988  58.2470012  65.9304997 118.1139988
  57.4220012  65.7354997 116.8589988  57.9731759  66.2084668 117.3387022
  65.0400012  65.8654997 119.4949988  64.7440012  65.6994997 118.5999988
  65.9720012  65.6454997 119.4839988  65.1254166  65.8130640 119.3710536
  69.6610012  71.2384997 117.3849988  68.7600012  71.4214997 117.1169988
  69.6950012  71.4974997 118.3049988  69.5423139  71.2985849 117.4728099
  75.3550012  69.2834997 118.5889988  74.5040012  69.5214997 118.2219988
  75.9460012  69.2664997 117.8359988  75.3182487  69.3138258 118.4368893
  70.8480012  67.0774997 113.2379988  69.9190012  66.8454997 113.2109988
  71.2990012  66.3004997 112.9079988  70.7819216  66.9407238 113.1896917
  65.3330012  73.2174997 115.2629988  65.6950012  74.0724997 115.0289988
  65.8640012  72.9254997 116.0029988  65.4544473  73.2951060 115.3310855
  68.8770012  69.3164997 114.9629988  68.4510012  69.0894997 115.7899988
  69.4570012  68.5784997 114.7809988  68.8971868  69.1855299 115.0515830
  71.0800012  70.2454997 104.0369988  71.4330012  69.8654997 104.8409988
  70.1310012  70.1524997 104.1239988  71.0000918  70.1808956 104.1588532
  71.5350012  73.8684997 117.4329988  70.9340012  73.3134997 116.9369988
  71.8170012  74.5354997 116.8059988  71.4908804  73.8826625 117.2804849
  59.6580012  61.1014997 116.8399988  58.7650012  61.4404997 116.7719988
  59.5590012  60.2464997 117.2579988  59.5224164  61.0322588 116.8872235
  71.9460012  68.9184997 106.2639988  71.6680012  68.1904997 106.8199988
  72.8730012  69.0374997 106.4689988  72.0333124  68.8348802 106.3678845
  59.3090012  72.9064997 115.2749988  59.5260012  71.9744997 115.2439988
  59.5550012  73.1804997 116.1579988  59.3719549  72.8160636 115.3901763
  65.1710012  71.3574997 102.4839988  65.4100012  70.6094997 101.9369988
  64.9020012  70.9694997 103.3169988  65.1673675  71.2026638 102.5216865
  68.3920012  60.8424997 115.7299988  69.0910012  60.9164997 116.3799988
  68.0110012  59.9784997 115.8839988  68.4361767  60.7357624 115.8398322
  66.8450012  72.6254997 105.6899988  66.0290012  73.1224997 105.7419988
  67.3750012  73.1004997 105.0499988  66.8049161  72.7577722 105.6105956
  66.9120012  63.2084997 116.8459988  67.0310012  63.7824997 117.6039988
  67.5680012  62.5204997 116.9609988  67.0169025  63.1939858 116.9651321
  67.2600012  59.3034997 108.5999988  66.9140012  59.9214997 109.2439988
  67.9190012  59.8044997 108.1179988  67.3016968  59.4556278 108.6229383
  73.1170012  61.1154997 117.6809988  72.2000012  61.3784997 117.5939988
  73.4520012  61.1124997 116.7849988  73.0368613  61.1510761 117.5478837
  72.8050012  74.1224997 113.3999988  72.6500012  74.8004997 112.7419988
  73.7380012  74.1944997 113.6029988  72.9098657  74.2249546 113.3374360
  60.3010012  58.2404997 112.1369988  60.0720012  58.2994997 111.2089988
  59.8580012  57.4484997 112.4429988  60.2098530  58.1415753 112.0514786
  59.2310012  72.1804997 108.2969988  58.3990012  72.6534997 108.3239988
  59.7770012  72.6904997 107.6989988  59.1910352  72.3141332 108.2198463
  58.5190012  74.7934997 119.6269988  59.0600012  74.5764997 120.3869988
  58.0380012  73.9874997 119.4369988  58.5279951  74.6549270 119.7052576
  63.1170012  73.7124997 121.2469988  63.8840012  73.2534997 121.5879988
  63.0950012  73.4864997 120.3179988  63.2191275  73.6190186 121.1680101
  67.2090012  73.2204997 102.6229988  66.5650012  72.5894997 102.9439988
  67.9710012  72.6894997 102.3909988  67.2238077  73.0622920 102.6356011
  69.6940012  72.0924997 119.9769988  69.3430012  71.2364997 120.2199988
  70.4200012  72.2354997 120.5839988  69.7440769  71.9945636 120.0923619
  58.4260012  68.6034997 120.5809988  58.5700012  67.7014997 120.2949988
  57.6540012  68.8894997 120.0939988  58.3412753  68.5186816 120.4759505
  65.0820012  68.5734997 120.0139988  64.7530012  68.8444997 119.1569988
  65.2340012  67.6324997 119.9269988  65.0574809  68.4833862 119.8848244
  70.8160012  68.4894997 117.3969988  71.5620012  69.0774997 117.2779988
  70.0590012  69.0714997 117.4609988  70.8157820  68.6487143 117.3893590
  59.2590012  65.8034997 120.0009988  59.6670012  64.9464997 119.8799988
  58.9990012  65.8184997 120.9219988  59.2797568  65.6880807 120.1089588
  63.2060012  64.8124997 117.3759988  62.5880012  65.4874997 117.6559988
  63.5500012  65.1334997 116.5419988  63.1679132  64.9482411 117.3016262
  68.2260012  67.2844997 120.6529988  69.1790012  67.3674997 120.6259988
  68.0650012  66.5724997 121.2729988  68.3346426  67.1996746 120.7330579
  63.5450012  62.1674997 118.4579988  63.6950012  61.4384997 117.8559988
  63.5480012  62.9444997 117.8989988  63.5659302  62.1727851 118.3000692
  63.9580012  60.5374997 115.9509988  64.4940012  60.9884997 115.2989988
  63.1060012  60.4294997 115.5279988  63.9162178  60.5846390 115.8045756
  65.5400012  65.9764997 116.1899988  66.2900012  65.8204997 115.6169988
  65.2010012  66.8284997 115.9149988  65.5968921  66.0702968 116.0743561
  69.9550012  63.7914997 121.2189988  70.1480012  62.8604997 121.1069988
  70.8130012  64.2164997 121.2079988  70.0972934  63.7216531 121.2022031
  71.2720012  66.5804997 119.2959988  70.9910012  67.2894997 118.7179988
  72.2150012  66.5074997 119.1449988  71.3609291  66.6676711 119.1964967
  62.0240012  63.3654997 120.3699988  61.2570012  62.8334997 120.1589988
  62.7030012  63.0554997 119.7699988  62.0107877  63.2508300 120.2600716
  64.7640012  57.9934997 116.3819988  64.6650012  58.9404997 116.2769988
  64.0210012  57.6214997 115.9059988  64.6501184  58.0725863 116.3033621
  66.0280012  62.3154997 119.9459988  65.7920012  62.0954997 120.8469988
  65.2440012  62.1084997 119.4359988  65.8898504  62.2574586 120.0003431
  68.7430012  61.4424997 119.0209988  67.7960012  61.4744997 119.1539988
  69.0560012  60.8174997 119.6749988  68.6556707  61.3623998 119.1276060
  70.3770012  60.0764997 121.0269988  70.2810012  59.1244997 121.0209988
  70.0560012  60.3454997 121.8869988  70.3204070  59.9824035 121.1425441
  60.2040012  61.2864997 120.0739988  60.4160012  60.5794997 119.4639988
  60.0930012  60.8484997 120.9179988  60.2179721  61.1307084 120.1046843
  64.9850012  57.2874997 119.0529988  65.6970012  56.6474997 119.0389988
  64.8840012  57.5544997 118.1399988  65.0688066  57.2360079 118.9275677
  65.3390012  58.9704997 121.1069988  65.2070012  58.4944997 120.2869988
  64.7400012  59.7144997 121.0519988  65.2399071  59.0059618 120.9872886
  57.9730012  73.9634997 110.6479988  57.6380012  73.0834997 110.8199988
  58.1950012  74.3084997 111.5129988  57.9571783  73.8897500 110.7884208
  75.5210012  74.7724997 113.6289988  75.5000012  74.9574997 114.5679988
  76.2120012  75.3414997 113.2879988  75.6114618  74.8746606 113.7113864
  75.0850012  74.3404997 116.5509988  74.5970012  73.6044997 116.1789988
  75.6340012  73.9464997 117.2289988  75.0924820  74.1865889 116.5917813
  73.5350012  70.1294997 121.1889988  72.6690012  70.0244997 121.5829988
  73.9120012  70.8884997 121.6349988  73.4673308  70.2176900 121.3032393
  74.9900012  69.2244997 113.4739988  75.8230012  68.8464997 113.1939988
  75.1020012  70.1674997 113.3549988  75.1192647  69.3002218 113.4195487
  73.4760012  72.1024997 115.7809988  72.8290012  72.4274997 116.4069988
  72.9590012  71.6624997 115.1069988  73.3174029  72.0875004 115.7755827
  58.0530012  67.0384997 113.0999988  58.2370012  66.9564997 112.1639988
  58.9020012  66.9144997 113.5229988  58.1930151  67.0105073 113.0291451
  73.8740012  66.9304997 118.7279988  74.4570012  66.1964997 118.9199988
  74.4380012  67.7024997 118.7749988  74.0299769  66.9344227 118.7606159
  75.3700012  64.8334997 119.4129988  74.5070012  64.4544997 119.2469988
  75.9750012  64.0944997 119.3379988  75.3336119  64.6818268 119.3801528
  73.3690012  63.8614997 115.7639988  72.5260012  64.1294997 116.1299988
  73.8110012  64.6834997 115.5529988  73.3134158  64.0093291 115.7855491
  57.6500012  62.3094997 119.2409988  58.5700012  62.1874997 119.4769988
  57.2010012  61.5594997 119.6299988  57.7151580  62.1913727 119.3259006
  75.6520012  57.8414997 121.1169988  76.0020012  57.1874997 120.5119988
  75.7990012  58.6784997 120.6769988  75.7197887  57.8651548 120.9746858
  58.8710012  60.6214997 112.1319988  59.3170012  59.8294997 112.4339988
  59.3380012  61.3374997 112.5619988  58.9950831  60.6100685 112.2314006
  57.1750012  63.6204997 113.2009988  57.6670012  63.3994997 112.4099988
  57.5380012  64.4614997 113.4819988  57.2913126  63.7038357 113.1307531
  75.1720012  59.9504997 119.4659988  74.2540012  60.2214997 119.4309988
  75.2950012  59.4154997 118.6819988  75.0629729  59.9152508 119.3551923
  57.4890012  59.8784997 107.2549988  56.5640012  60.0874997 107.1259988
  57.9430012  60.3624997 106.5649988  57.4237292  59.9725343 107.1440720
  72.2600012  74.8624997 109.2009988  72.9120012  74.5154997 108.5929988
  72.7700012  75.3514997 109.8469988  72.4182637  74.8810597 109.2050236
  57.4530012  58.6164997 115.5989988  56.7880012  58.3704997 116.2429988
  57.0100012  59.2384997 115.0219988  57.3021318  58.6669410 115.6090898
  59.6450012  71.7914997 119.7439988  58.8240012  71.9664997 119.2829988
  59.3920012  71.7184997 120.6639988  59.4985585  71.8055544 119.8053561
  62.5990012  72.7664997 116.0019988  62.1740012  73.5754997 115.7199988
  63.5030012  72.8514997 115.6999988  62.6629975  72.8889300 115.9224816
  66.9100012  74.1654997 118.9619988  67.0950012  73.8314997 119.8399988
  67.7560012  74.4744997 118.6399988  67.0497539  74.1616047 119.0385605
  69.2550012  75.4514997 118.2059988  69.9320012  74.8184997 117.9659988
  69.5770012  75.8524997 119.0129988  69.3911637  75.4191154 118.2822793
  74.1720012  58.0404997 117.2849988  73.3600012  58.3654997 116.8979988
  74.4050012  57.2804997 116.7519988  74.0922203  57.9822758 117.1598880
  60.0010012  76.0224997 116.0499988  59.2800012  76.4624997 115.5989988
  59.6350012  75.7714997 116.8979988  59.8529651  76.0487242 116.1029640
  62.4680012  75.6224997 115.0799988  61.6030012  75.6944997 115.4839988
  62.4130012  76.1694997 114.2959988  62.3422085  75.7062685 115.0293362
  67.1780012  75.5104997 114.2549988  66.7220012  76.0394997 113.6009988
  67.3410012  76.1134997 114.9799988  67.1376068  75.6644607 114.2634838
  69.5060012  74.3884997 115.1999988  68.6010012  74.5534997 114.9339988
  69.9350012  75.2414997 115.1349988  69.4401324  74.5264339 115.1547976
  72.1100012  75.9584997 115.4949988  71.9280012  76.8744997 115.2849988
  72.2870012  75.5484997 114.6489988  72.1090210  76.0284822 115.3517885
  59.4150012  74.6454997 112.9599988  59.3970012  74.2204997 113.8169988
  60.2200012  74.3274997 112.5509988  59.5213529  74.5443013 113.0220946
  61.5570012  73.3554997 111.6149988  61.3380012  72.4394997 111.7849988
  62.3810012  73.4954997 112.0809988  61.6384420  73.2490520 111.7012774
  64.0940012  73.8254997 112.4639988  64.3070012  72.9374997 112.1769988
  64.1580012  73.7914997 113.4179988  64.1318232  73.6993102 112.5537397
  67.6020012  59.4894997 111.6079988  66.9280012  58.8604997 111.8639988
  68.1660012  59.0054997 111.0049988  67.5859230  59.3378744 111.5615340
  72.7450012  57.5974997 111.7209988  73.3490012  58.1444997 111.2189988
  71.8750012  57.9164997 111.4799988  72.7101208  57.7155137 111.6196886
  59.9290012  58.1234997 109.4299988  59.1520012  57.8894997 108.9229988
  60.4590012  57.3264997 109.4389988  59.8942330  57.9836988 109.3617742
  64.5080012  58.0504997 109.2439988  65.3830012  58.4384997 109.2139988
  64.3720012  57.8354997 110.1659988  64.6093695  58.0745184 109.3646440
  65.6520012  60.1304997 106.1329988  65.8300012  59.4844997 106.8159988
  65.5990012  60.9644997 106.5999988  65.6691999  60.1548009 106.2895917
  67.5310012  75.0794997 104.5289988  68.3970012  75.4454997 104.3509988
  67.2840012  74.6394997 103.7149988  67.6162392  75.0701756 104.3946289
  59.8870012  58.6374997 118.9479988  59.5210012  57.8724997 119.3899988
  60.8000012  58.6664997 119.2339988  59.9602736  58.5365640 119.0472502
  61.8600012  57.9884997 120.4839988  62.7580012  57.7144997 120.2989988
  61.4730012  57.2454997 120.9479988  61.9306612  57.8505914 120.5213643
  70.2810012  57.3204997 120.6659988  70.3580012  56.8944997 121.5199988
  71.1750012  57.3344997 120.3229988  70.4123428  57.2640879 120.7365310
  73.4570012  73.3934997 119.3579988  72.6750012  73.2074997 118.8379988
  73.3850012  74.3224997 119.5759988  73.3402274  73.4936643 119.3163018
  87.8630012  67.2794997 109.3889988  87.9520012  68.2234997 109.2569988
  87.2250012  67.0044997 108.7309988  87.7889081  67.3714830 109.2819614
  86.7960012  66.5344997 112.8079988  86.7580012  65.8884997 113.5129988
  86.4740012  66.0684997 112.0369988  86.7472333  66.3829408 112.8002978
  79.1650012  66.1494997 114.4009988  79.2060012  65.5234997 115.1239988
  79.8680012  66.7734997 114.5829988  79.2656363  66.1481196 114.5246044
  90.5020012  69.4734997 111.1089988  90.0620012  68.7534997 111.5599988
  90.4890012  70.1944997 111.7389988  90.4400226  69.4723731 111.2558494
  80.0880012  70.5994997 112.9359988  79.7190012  69.7974997 112.5659988
  81.0290012  70.4304997 112.9819988  80.1647289  70.4670153 112.8916316
  87.6140012  74.5784997 111.3209988  88.2340012  73.9014997 111.0479988
  87.4060012  74.3604997 112.2299988  87.6706726  74.4564800 111.4064812
  85.1860012  68.9674997 113.2139988  85.4900012  68.2814997 112.6189988
  85.9070012  69.0854997 113.8319988  85.3250671  68.8896305 113.2161816
  93.8490012  60.5684997 114.0749988  93.8980012  61.1784997 114.8099988
  94.2740012  61.0294997 113.3519988  93.9131746  60.7143796 114.0779175
  88.3270012  63.3614997 113.5409988  88.4690012  62.4154997 113.5619988
  88.2200012  63.5684997 112.6129988  88.3319919  63.2598246 113.4183408
  81.4810012  61.4624997 110.8139988  81.5250012  62.3224997 110.3949988
  81.0240012  60.9104997 110.1799988  81.4252240  61.5054422 110.6709864
  89.2040012  61.5934997 109.2149988  89.8500012  61.2644997 109.8389988
  89.7140012  62.1114997 108.5919988  89.3614299  61.6184450 109.2162731
  83.2580012  65.4094997 110.7909988  83.8740012  64.8834997 111.3009988
  82.6720012  64.7694997 110.3879988  83.2630810  65.2509208 110.8063173
  94.2400012  62.0464997 116.3099988  93.5520012  62.7044997 116.2149988
  94.2560012  61.8494997 117.2469988  94.1479540  62.1099819 116.4235990
  80.2920012  60.3804997 114.8879988  80.0730012  60.9104997 114.1219988
  79.6240012  60.6074997 115.5349988  80.1717600  60.4836906 114.8706379
  87.6610012  69.8804997 108.4319988  87.3650012  69.5584997 107.5809988
  87.3360012  70.7804997 108.4729988  87.5766371  69.9580215 108.3211801
  82.8610012  68.0564997 115.1749988  82.1210012  68.6544997 115.2789988
  83.5750012  68.6104997 114.8599988  82.8562237  68.2132831 115.1466465
  90.9680012  60.8844997 111.1949988  90.7520012  60.1184997 111.7279988
  91.6230012  61.3564997 111.7079988  91.0270632  60.8435889 111.3372861
  79.8850012  62.2724997 112.8399988  80.4990012  62.9054997 113.2129988
  80.3970012  61.8004997 112.1839988  80.0381981  62.2952267 112.8022908
  81.2680012  70.0204997 115.9619988  81.2630012  70.9004997 115.5839988
  80.4150012  69.9374997 116.3869988  81.1519464  70.1296117 115.9677907
  91.0140012  71.3134997 113.4569988  90.0730012  71.3714997 113.6189988
  91.2910012  72.2194997 113.3199988  90.9224679  71.4439443 113.4606815
  91.3150012  59.5994997 114.8749988  90.5790012  60.2104997 114.8369988
  91.9980012  60.0144997 114.3479988  91.3066541  59.7391374 114.7985832
  84.3180012  57.6864997 112.3399988  84.2010012  56.7374997 112.2859988
  83.4630012  58.0184997 112.6139988  84.1864212  57.6015571 112.3696497
  89.2660012  73.0944997 110.0819988  89.6920012  72.3874997 109.5969988
  89.5830012  73.8954997 109.6659988  89.3671683  73.1061017 109.9593680
  90.4260012  70.9954997 108.5909988  90.1680012  70.3054997 107.9799988
  90.4970012  70.5524997 109.4369988  90.4002856  70.8412124 108.6216885
  92.1120012  69.5614997 117.0679988  92.2520012  68.9704997 116.3289988
  92.2790012  70.4344997 116.7119988  92.1537411  69.5985428 116.9186894
  86.5850012  66.5234997 106.8409988  85.8730012  67.0584997 106.4889988
  87.2760012  66.5794997 106.1809988  86.5810132  66.6042543 106.7036289
  93.9540012  65.9014997 115.1339988  93.3010012  66.5964997 115.2239988
  94.4190012  66.1114997 114.3249988  93.9275274  66.0250643 115.0368462
  89.9900012  66.7334997 107.7929988  89.2580012  66.9614997 108.3659988
  90.4380012  66.0194997 108.2469988  89.9502725  66.6682145 107.9328816
  89.8880012  64.9074997 116.8599988  89.9680012  65.6704997 117.4319988
  89.2860012  65.1864997 116.1699988  89.8175756  65.0497134 116.8450589
  83.0020012  70.7914997 112.3559988  82.9080012  70.2134997 111.5999988
  83.7320012  70.4204997 112.8529988  83.0877386  70.6621663 112.3195342
  82.0020012  66.1324997 113.3089988  82.5680012  66.2534997 112.5459988
  82.3210012  66.7694997 113.9469988  82.1225474  66.2352219 113.2909862
  88.3110012  71.6354997 114.0429988  88.0710012  72.2974997 114.6909988
  88.1130012  70.8014997 114.4679988  88.2513808  71.6133134 114.1891524
  82.8820012  70.5314997 118.0259988  82.5710012  71.3134997 118.4809988
  82.2320012  70.3784997 117.3399988  82.7515558  70.6179105 117.9955871
  79.8020012  66.7294997 117.2539988  79.8730012  67.3804997 117.9529988
  78.9120012  66.8324997 116.9189988  79.6913005  66.8325427 117.3043495
  86.5880012  72.6324997 108.9129988  87.0620012  72.9274997 109.6899988
  86.0250012  73.3704997 108.6799988  86.5768184  72.7727247 108.9879628
  81.1220012  72.6034997 118.7889988  81.1290012  72.4674997 117.8419988
  80.2060012  72.4854997 119.0409988  80.9991714  72.5689430 118.6934666
  76.7190012  68.7964997 116.0789988  76.2180012  68.7684997 115.2639988
  76.7240012  67.8904997 116.3889988  76.6510944  68.6702396 116.0093226
  76.4690012  71.5764997 112.9629988  77.4150012  71.4324997 112.9439988
  76.3570012  72.3604997 113.4999988  76.5832727  71.6628046 113.0330072
  94.6670012  72.2424997 118.6459988  94.6180012  71.2874997 118.6089988
  93.8400012  72.5104997 119.0469988  94.5484940  72.1478998 118.6951375
  85.6460012  71.8164997 117.5219988  85.7330012  72.6424997 117.9969988
  84.7820012  71.4864997 117.7709988  85.5411964  71.8849878 117.6206549
  86.0600012  75.5884997 107.3279988  85.9850012  75.4674997 106.3809988
  86.0930012  76.5384997 107.4459988  86.0542068  75.7002646 107.2144967
  89.1620012  74.7424997 104.3299988  89.5370012  73.9984997 103.8589988
  89.1660012  74.4724997 105.2489988  89.2139125  74.6040986 104.3896483
  88.8310012  74.6684997 107.0789988  87.8950012  74.7684997 107.2579988
  89.1110012  73.9594997 107.6579988  88.7409553  74.5863406 107.1817087
  91.8190012  63.7354997 119.1259988  91.4120012  64.2164997 118.4049988
  91.8600012  62.8304997 118.8179988  91.7688437  63.6789374 118.9856683
  78.9680012  70.1194997 117.1229988  79.1840012  69.7584997 117.9819988
  78.1130012  69.7454997 116.9129988  78.8819292  70.0194111 117.2123386
  81.5870012  58.5894997 113.1179988  80.7250012  58.5024997 112.7099988
  81.5640012  59.4454997 113.5459988  81.4660409  58.6932883 113.1200589
  86.2500012  58.3114997 116.4929988  86.6700012  57.8964997 117.2459988
  85.3170012  58.1334997 116.6099988  86.1813644  58.2305900 116.6119539
  89.5760012  62.0674997 117.3459988  89.0620012  61.9414997 118.1439988
  89.4210012  62.9794997 117.1019988  89.4846852  62.1736132 117.4222158
  85.9110012  60.8044997 103.7779988  85.6580012  60.8234997 104.7009988
  85.6550012  59.9324997 103.4759988  85.8417481  60.6892558 103.8636175
  81.6780012  63.5554997 114.2129988  81.0360012  63.5144997 114.9219988
  81.7150012  64.4814997 113.9749988  81.5950664  63.6751430 114.2779219
  87.2100012  64.1924997 107.9419988  86.8010012  65.0074997 107.6509988
  87.9310012  64.0524997 107.3279988  87.2514537  64.2852018 107.8191342
  86.3120012  64.3674997 119.4299988  85.7500012  63.6634997 119.7509988
  87.1390012  64.2474997 119.8979988  86.3467095  64.2547883 119.5372330
  88.2150012  63.6384997 110.7559988  88.0200012  64.2434997 110.0409988
  88.3960012  62.8044997 110.3219988  88.2127614  63.6086300 110.5994405
  79.4280012  63.8754997 116.0799988  79.3900012  64.2754997 116.9489988
  78.9370012  63.0584997 116.1709988  79.3564684  63.8198069 116.2111059
  87.4790012  65.2764997 115.4269988  87.8020012  64.6454997 114.7839988
  87.0390012  64.7414997 116.0879988  87.4637484  65.1178387 115.4283198
  84.2560012  61.2034997 110.2109988  83.3450012  61.2604997 110.4999988
  84.7620012  61.1434997 111.0219988  84.1996899  61.2031941 110.3601184
  88.6610012  60.4384997 113.4759988  87.9850012  60.5694997 114.1399988
  88.1760012  60.2834997 112.6649988  88.5027146  60.4355157 113.4574469
  91.9490012  76.1104997 119.7519988  92.1490012  76.5344997 118.9179988
  92.6040012  76.4534997 120.3589988  92.0650072  76.2149857 119.7198592
  79.5470012  68.5844997 119.3599988  80.2790012  68.8384997 119.9219988
  78.7670012  68.7884997 119.8759988  79.5417073  68.6468160 119.5066151
  85.5760012  63.9914997 112.0979988  86.1410012  63.4444997 111.5509988
  85.4290012  63.4694997 112.8869988  85.6333380  63.8462259 112.1298695
  84.2030012  62.3794997 114.5119988  83.3670012  62.8334997 114.6229988
  84.7270012  62.6554997 115.2639988  84.1595416  62.4788660 114.6288119
  84.7470012  68.5924997 106.1969988  84.0020012  68.0854997 105.8749988
  84.6130012  68.6414997 107.1439988  84.6268776  68.5296940 106.2808647
  91.8970012  67.7254997 114.9839988  92.5390012  68.1824997 114.4399988
  91.0670012  67.8384997 114.5209988  91.8725963  67.8032704 114.8470177
  88.6450012  61.4064997 104.3959988  87.7060012  61.5184997 104.2449988
  88.9420012  62.2634997 104.7029988  88.5567583  61.5375981 104.4168337
  86.2660012  68.7764997 117.4339988  85.9210012  68.3954997 118.2409988
  86.0660012  69.7104997 117.5049988  86.1917527  68.8505135 117.5540689
  89.3630012  63.2734997 106.0569988  90.2550012  63.1364997 106.3759988
  89.4200012  64.0644997 105.5199988  89.4926504  63.3616052 106.0280818
  79.8720012  67.8874997 111.9669988  80.6170012  67.8854997 111.3659988
  79.9500012  67.0644997 112.4479988  79.9844995  67.7758887 111.9498282
  76.8800012  66.3484997 117.2819988  77.1030012  65.9304997 118.1139988
  76.2780012  65.7354997 116.8589988  76.8291759  66.2084668 117.3387022
  83.8960012  65.8654997 119.4949988  83.6000012  65.6994997 118.5999988
  84.8280012  65.6454997 119.4839988  83.9814166  65.8130640 119.3710536
  88.5170012  71.2384997 117.3849988  87.6160012  71.4214997 117.1169988
  88.5510012  71.4974997 118.3049988  88.3983139  71.2985849 117.4728099
  94.2480012  63.4834997 105.7519988  93.6940012  63.0874997 105.0799988
  94.3480012  64.3934997 105.4739988  94.1857059  63.5523586 105.6224401
  94.2110012  69.2834997 118.5889988  93.3600012  69.5214997 118.2219988
  94.8020012  69.2664997 117.8359988  94.1742487  69.3138258 118.4368893
  92.5430012  72.2694997 106.2169988  92.1700012  71.4434997 106.5259988
  92.8210012  72.0864997 105.3189988  92.5295222  72.1317430 106.1379473
  89.7040012  67.0774997 113.2379988  88.7750012  66.8454997 113.2109988
  90.1550012  66.3004997 112.9079988  89.6379216  66.9407238 113.1896917
  84.1890012  73.2174997 115.2629988  84.5510012  74.0724997 115.0289988
  84.7200012  72.9254997 116.0029988  84.3104473  73.2951060 115.3310855
  87.7330012  69.3164997 114.9629988  87.3070012  69.0894997 115.7899988
  88.3130012  68.5784997 114.7809988  87.7531868  69.1855299 115.0515830
  90.3910012  73.8684997 117.4329988  89.7900012  73.3134997 116.9369988
  90.6730012  74.5354997 116.8059988  90.3468804  73.8826625 117.2804849
  78.5140012  61.1014997 116.8399988  77.6210012  61.4404997 116.7719988
  78.4150012  60.2464997 117.2579988  78.3784164  61.0322588 116.8872235
  78.1650012  72.9064997 115.2749988  78.3820012  71.9744997 115.2439988
  78.4110012  73.1804997 116.1579988  78.2279549  72.8160636 115.3901763
  87.2480012  60.8424997 115.7299988  87.9470012  60.9164997 116.3799988
  86.8670012  59.9784997 115.8839988  87.2921767  60.7357624 115.8398322
  88.0330012  60.4944997 106.8269988  88.2530012  60.9664997 106.0239988
  88.5910012  60.8894997 107.4969988  88.1384968  60.6124285 106.8077331
  85.7680012  63.2084997 116.8459988  85.8870012  63.7824997 117.6039988
  86.4240012  62.5204997 116.9609988  85.8729025  63.1939858 116.9651321
  86.1160012  59.3034997 108.5999988  85.7700012  59.9214997 109.2439988
  86.7750012  59.8044997 108.1179988  86.1576968  59.4556278 108.6229383
  91.9730012  61.1154997 117.6809988  91.0560012  61.3784997 117.5939988
  92.3080012  61.1124997 116.7849988  91.8928613  61.1510761 117.5478837
  90.5750012  64.8664997 111.7769988  89.7770012  64.4514997 111.4489988
  91.0200012  64.1754997 112.2679988  90.5259885  64.7163543 111.7984889
  91.6610012  74.1224997 113.3999988  91.5060012  74.8004997 112.7419988
  92.5940012  74.1944997 113.6029988  91.7658657  74.2249546 113.3374360
  79.1570012  58.2404997 112.1369988  78.9280012  58.2994997 111.2089988
  78.7140012  57.4484997 112.4429988  79.0658530  58.1415753 112.0514786
  77.3750012  74.7934997 119.6269988  77.9160012  74.5764997 120.3869988
  76.8940012  73.9874997 119.4369988  77.3839951  74.6549270 119.7052576
  81.9730012  73.7124997 121.2469988  82.7400012  73.2534997 121.5879988
  81.9510012  73.4864997 120.3179988  82.0751275  73.6190186 121.1680101
  88.5500012  72.0924997 119.9769988  88.1990012  71.2364997 120.2199988
  89.2760012  72.2354997 120.5839988  88.6000769  71.9945636 120.0923619
  90.6690012  73.0374997 102.8559988  90.9520012  72.2434997 103.3089988
  91.4090012  73.2704997 102.2959988  90.8078006  72.9603376 102.8422715
  77.2820012  68.6034997 120.5809988  77.4260012  67.7014997 120.2949988
  76.5100012  68.8894997 120.0939988  77.1972753  68.5186816 120.4759505
  83.9380012  68.5734997 120.0139988  83.6090012  68.8444997 119.1569988
  84.0900012  67.6324997 119.9269988  83.9134809  68.4833862 119.8848244
  89.6720012  68.4894997 117.3969988  90.4180012  69.0774997 117.2779988
  88.9150012  69.0714997 117.4609988  89.6717820  68.6487143 117.3893590
  78.1150012  65.8034997 120.0009988  78.5230012  64.9464997 119.8799988
  77.8550012  65.8184997 120.9219988  78.1357568  65.6880807 120.1089588
  82.0620012  64.8124997 117.3759988  81.4440012  65.4874997 117.6559988
  82.4060012  65.1334997 116.5419988  82.0239132  64.9482411 117.3016262
  87.0820012  67.2844997 120.6529988  88.0350012  67.3674997 120.6259988
  86.9210012  66.5724997 121.2729988  87.1906426  67.1996746 120.7330579
  82.4010012  62.1674997 118.4579988  82.5510012  61.4384997 117.8559988
  82.4040012  62.9444997 117.8989988  82.4219302  62.1727851 118.3000692
  82.8140012  60.5374997 115.9509988  83.3500012  60.9884997 115.2989988
  81.9620012  60.4294997 115.5279988  82.7722178  60.5846390 115.8045756
  84.3960012  65.9764997 116.1899988  85.1460012  65.8204997 115.6169988
  84.0570012  66.8284997 115.9149988  84.4528921  66.0702968 116.0743561
  88.8110012  63.7914997 121.2189988  89.0040012  62.8604997 121.1069988
  89.6690012  64.2164997 121.2079988  88.9532934  63.7216531 121.2022031
  90.1280012  66.5804997 119.2959988  89.8470012  67.2894997 118.7179988
  91.0710012  66.5074997 119.1449988  90.2169291  66.6676711 119.1964967
  80.8800012  63.3654997 120.3699988  80.1130012  62.8334997 120.1589988
  81.5590012  63.0554997 119.7699988  80.8667877  63.2508300 120.2600716
  83.6200012  57.9934997 116.3819988  83.5210012  58.9404997 116.2769988
  82.8770012  57.6214997 115.9059988  83.5061184  58.0725863 116.3033621
  84.8840012  62.3154997 119.9459988  84.6480012  62.0954997 120.8469988
  84.1000012  62.1084997 119.4359988  84.7458504  62.2574586 120.0003431
  87.5990012  61.4424997 119.0209988  86.6520012  61.4744997 119.1539988
  87.9120012  60.8174997 119.6749988  87.5116707  61.3623998 119.1276060
  89.2330012  60.0764997 121.0269988  89.1370012  59.1244997 121.0209988
  88.9120012  60.3454997 121.8869988  89.1764070  59.9824035 121.1425441
  79.0600012  61.2864997 120.0739988  79.2720012  60.5794997 119.4639988
  78.9490012  60.8484997 120.9179988  79.0739721  61.1307084 120.1046843
  83.8410012  57.2874997 119.0529988  84.5530012  56.6474997 119.0389988
  83.7400012  57.5544997 118.1399988  83.9248066  57.2360079 118.9275677
  84.1950012  58.9704997 121.1069988  84.0630012  58.4944997 120.2869988
  83.5960012  59.7144997 121.0519988  84.0959071  59.0059618 120.9872886
  94.3770012  74.7724997 113.6289988  94.3560012  74.9574997 114.5679988
  95.0680012  75.3414997 113.2879988  94.4674618  74.8746606 113.7113864
  93.9410012  74.3404997 116.5509988  93.4530012  73.6044997 116.1789988
  94.4900012  73.9464997 117.2289988  93.9484820  74.1865889 116.5917813
  92.3910012  70.1294997 121.1889988  91.5250012  70.0244997 121.5829988
  92.7680012  70.8884997 121.6349988  92.3233308  70.2176900 121.3032393
  93.6920012  68.3864997 106.7029988  94.5420012  68.8074997 106.8299988
  93.6980012  67.6464997 107.3099988  93.8091372  68.3440803 106.8024344
  94.0870012  66.4394997 108.5259988  93.3600012  65.9604997 108.9239988
  94.6680012  66.6454997 109.2589988  94.0660473  66.4018103 108.6794528
  93.8460012  69.2244997 113.4739988  94.6790012  68.8464997 113.1939988
  93.9580012  70.1674997 113.3549988  93.9752647  69.3002218 113.4195487
  92.3320012  72.1024997 115.7809988  91.6850012  72.4274997 116.4069988
  91.8150012  71.6624997 115.1069988  92.1734029  72.0875004 115.7755827
  94.3550012  66.3404997 104.9179988  93.8330012  66.6974997 104.1989988
  94.3220012  67.0154997 105.5959988  94.2791634  66.4805413 104.9113145
  91.8730012  64.9604997 109.0889988  91.7230012  64.0154997 109.0689988
  91.5200012  65.2414997 109.9329988  91.8047448  64.8691481 109.2003705
  76.9090012  67.0384997 113.0999988  77.0930012  66.9564997 112.1639988
  77.7580012  66.9144997 113.5229988  77.0490151  67.0105073 113.0291451
  92.7300012  66.9304997 118.7279988  93.3130012  66.1964997 118.9199988
  93.2940012  67.7024997 118.7749988  92.8859769  66.9344227 118.7606159
  94.2260012  64.8334997 119.4129988  93.3630012  64.4544997 119.2469988
  94.8310012  64.0944997 119.3379988  94.1896119  64.6818268 119.3801528
  91.5840012  62.5434997 107.5519988  91.8640012  61.6364997 107.6759988
  92.3430012  62.9774997 107.1629988  91.7249277  62.4780942 107.5163682
  92.1960012  63.1244997 112.9879988  93.1290012  63.3364997 112.9529988
  91.9610012  63.2264997 113.9099988  92.2919244  63.1673100 113.1078892
  92.2250012  63.8614997 115.7639988  91.3820012  64.1294997 116.1299988
  92.6670012  64.6834997 115.5529988  92.1694158  64.0093291 115.7855491
  76.5060012  62.3094997 119.2409988  77.4260012  62.1874997 119.4769988
  76.0570012  61.5594997 119.6299988  76.5711580  62.1913727 119.3259006
  94.5080012  57.8414997 121.1169988  94.8580012  57.1874997 120.5119988
  94.6550012  58.6784997 120.6769988  94.5757887  57.8651548 120.9746858
  92.1970012  59.8064997 107.5999988  92.3800012  59.3574997 108.4259988
  91.5980012  59.2214997 107.1369988  92.1410202  59.6659975 107.6503275
  77.7270012  60.6214997 112.1319988  78.1730012  59.8294997 112.4339988
  78.1940012  61.3374997 112.5619988  77.8510831  60.6100685 112.2314006
  76.0310012  63.6204997 113.2009988  76.5230012  63.3994997 112.4099988
  76.3940012  64.4614997 113.4819988  76.1473126  63.7038357 113.1307531
  94.0280012  59.9504997 119.4659988  93.1100012  60.2214997 119.4309988
  94.1510012  59.4154997 118.6819988  93.9189729  59.9152508 119.3551923
  91.1160012  74.8624997 109.2009988  91.7680012  74.5154997 108.5929988
  91.6260012  75.3514997 109.8469988  91.2742637  74.8810597 109.2050236
  76.3090012  58.6164997 115.5989988  75.6440012  58.3704997 116.2429988
  75.8660012  59.2384997 115.0219988  76.1581318  58.6669410 115.6090898
  78.5010012  71.7914997 119.7439988  77.6800012  71.9664997 119.2829988
  78.2480012  71.7184997 120.6639988  78.3545585  71.8055544 119.8053561
  81.4550012  72.7664997 116.0019988  81.0300012  73.5754997 115.7199988
  82.3590012  72.8514997 115.6999988  81.5189975  72.8889300 115.9224816
  85.7660012  74.1654997 118.9619988  85.9510012  73.8314997 119.8399988
  86.6120012  74.4744997 118.6399988  85.9057539  74.1616047 119.0385605
  88.1110012  75.4514997 118.2059988  88.7880012  74.8184997 117.9659988
  88.4330012  75.8524997 119.0129988  88.2471637  75.4191154 118.2822793
  93.0280012  58.0404997 117.2849988  92.2160012  58.3654997 116.8979988
  93.2610012  57.2804997 116.7519988  92.9482203  57.9822758 117.1598880
  78.8570012  76.0224997 116.0499988  78.1360012  76.4624997 115.5989988
  78.4910012  75.7714997 116.8979988  78.7089651  76.0487242 116.1029640
  81.3240012  75.6224997 115.0799988  80.4590012  75.6944997 115.4839988
  81.2690012  76.1694997 114.2959988  81.1982085  75.7062685 115.0293362
  86.0340012  75.5104997 114.2549988  85.5780012  76.0394997 113.6009988
  86.1970012  76.1134997 114.9799988  85.9936068  75.6644607 114.2634838
  88.3620012  74.3884997 115.1999988  87.4570012  74.5534997 114.9339988
  88.7910012  75.2414997 115.1349988  88.2961324  74.5264339 115.1547976
  90.9660012  75.9584997 115.4949988  90.7840012  76.8744997 115.2849988
  91.1430012  75.5484997 114.6489988  90.9650210  76.0284822 115.3517885
  78.2710012  74.6454997 112.9599988  78.2530012  74.2204997 113.8169988
  79.0760012  74.3274997 112.5509988  78.3773529  74.5443013 113.0220946
  80.4130012  73.3554997 111.6149988  80.1940012  72.4394997 111.7849988
  81.2370012  73.4954997 112.0809988  80.4944420  73.2490520 111.7012774
  82.9500012  73.8254997 112.4639988  83.1630012  72.9374997 112.1769988
  83.0140012  73.7914997 113.4179988  82.9878232  73.6993102 112.5537397
  86.4580012  59.4894997 111.6079988  85.7840012  58.8604997 111.8639988
  87.0220012  59.0054997 111.0049988  86.4419230  59.3378744 111.5615340
  91.6010012  57.5974997 111.7209988  92.2050012  58.1444997 111.2189988
  90.7310012  57.9164997 111.4799988  91.5661208  57.7155137 111.6196886
  93.3280012  58.7354997 110.0539988  93.9400012  58.2214997 109.5269988
  93.7100012  59.6134997 110.0769988  93.4633371  58.7837866 109.9850041
  78.7850012  58.1234997 109.4299988  78.0080012  57.8894997 108.9229988
  79.3150012  57.3264997 109.4389988  78.7502330  57.9836988 109.3617742
  77.6210012  57.9214997 105.2339988  78.0600012  58.5324997 104.6419988
  76.9880012  58.4594997 105.7079988  77.5954514  58.0779257 105.2170930
  83.3640012  58.0504997 109.2439988  84.2390012  58.4384997 109.2139988
  83.2280012  57.8354997 110.1659988  83.4653695  58.0745184 109.3646440
  88.9210012  58.0804997 110.8929988  88.9970012  58.1754997 109.9429988
  88.6460012  57.1724997 111.0219988  88.8942321  57.9707867 110.7805079
  90.2740012  58.1064997 106.5849988  89.5720012  58.7214997 106.3749988
  89.8300012  57.2684997 106.7159988  90.1176450  58.0775639 106.5739000
  93.0960012  74.6424997 107.2079988  92.9010012  73.8944997 106.6429988
  93.0570012  75.4004997 106.6249988  93.0640380  74.6426099 107.0518384
  78.7430012  58.6374997 118.9479988  78.3770012  57.8724997 119.3899988
  79.6560012  58.6664997 119.2339988  78.8162736  58.5365640 119.0472502
  80.7160012  57.9884997 120.4839988  81.6140012  57.7144997 120.2989988
  80.3290012  57.2454997 120.9479988  80.7866612  57.8505914 120.5213643
  89.1370012  57.3204997 120.6659988  89.2140012  56.8944997 121.5199988
  90.0310012  57.3344997 120.3229988  89.2683428  57.2640879 120.7365310
  92.3130012  73.3934997 119.3579988  91.5310012  73.2074997 118.8379988
  92.2410012  74.3224997 119.5759988  92.1962274  73.4936643 119.3163018
 106.7190012  67.2794997 109.3889988 106.8080012  68.2234997 109.2569988
 106.0810012  67.0044997 108.7309988 106.6449081  67.3714830 109.2819614
 105.6520012  66.5344997 112.8079988 105.6140012  65.8884997 113.5129988
 105.3300012  66.0684997 112.0369988 105.6032333  66.3829408 112.8002978
  98.0210012  66.1494997 114.4009988  98.0620012  65.5234997 115.1239988
  98.7240012  66.7734997 114.5829988  98.1216363  66.1481196 114.5246044
 109.3580012  69.4734997 111.1089988 108.9180012  68.7534997 111.5599988
 109.3450012  70.1944997 111.7389988 109.2960226  69.4723731 111.2558494
  98.9440012  70.5994997 112.9359988  98.5750012  69.7974997 112.5659988
  99.8850012  70.4304997 112.9819988  99.0207289  70.4670153 112.8916316
  95.5540012  64.2594997 108.3289988  95.1070012  65.1054997 108.3099988
  94.9930012  63.6794997 107.8129988  95.4169900  64.2969916 108.2566801
  96.2650012  66.4214997 110.4539988  96.4780012  65.6514997 110.9819988
  97.0030012  66.5104997 109.8509988  96.3939044  66.3281968 110.4447123
 106.4700012  74.5784997 111.3209988 107.0900012  73.9014997 111.0479988
 106.2620012  74.3604997 112.2299988 106.5266726  74.4564800 111.4064812
 104.0420012  68.9674997 113.2139988 104.3460012  68.2814997 112.6189988
 104.7630012  69.0854997 113.8319988 104.1810671  68.8896305 113.2161816
 112.7050012  60.5684997 114.0749988 112.7540012  61.1784997 114.8099988
 113.1300012  61.0294997 113.3519988 112.7691746  60.7143796 114.0779175
 107.1830012  63.3614997 113.5409988 107.3250012  62.4154997 113.5619988
 107.0760012  63.5684997 112.6129988 107.1879919  63.2598246 113.4183408
 100.3370012  61.4624997 110.8139988 100.3810012  62.3224997 110.3949988
  99.8800012  60.9104997 110.1799988 100.2812240  61.5054422 110.6709864
 108.0600012  61.5934997 109.2149988 108.7060012  61.2644997 109.8389988
 108.5700012  62.1114997 108.5919988 108.2174299  61.6184450 109.2162731
  96.9580012  63.8594997 111.5759988  97.6110012  63.3094997 112.0079988
  96.9820012  63.5854997 110.6589988  97.0506683  63.7471466 111.5112123
 102.1140012  65.4094997 110.7909988 102.7300012  64.8834997 111.3009988
 101.5280012  64.7694997 110.3879988 102.1190810  65.2509208 110.8063173
 113.0960012  62.0464997 116.3099988 112.4080012  62.7044997 116.2149988
 113.1120012  61.8494997 117.2469988 113.0039540  62.1099819 116.4235990
  99.1480012  60.3804997 114.8879988  98.9290012  60.9104997 114.1219988
  98.4800012  60.6074997 115.5349988  99.0277600  60.4836906 114.8706379
 106.5170012  69.8804997 108.4319988 106.2210012  69.5584997 107.5809988
 106.1920012  70.7804997 108.4729988 106.4326371  69.9580215 108.3211801
 101.7170012  68.0564997 115.1749988 100.9770012  68.6544997 115.2789988
 102.4310012  68.6104997 114.8599988 101.7122237  68.2132831 115.1466465
 109.8240012  60.8844997 111.1949988 109.6080012  60.1184997 111.7279988
 110.4790012  61.3564997 111.7079988 109.8830632  60.8435889 111.3372861
  98.7410012  62.2724997 112.8399988  99.3550012  62.9054997 113.2129988
  99.2530012  61.8004997 112.1839988  98.8941981  62.2952267 112.8022908
 100.1240012  70.0204997 115.9619988 100.1190012  70.9004997 115.5839988
  99.2710012  69.9374997 116.3869988 100.0079464  70.1296117 115.9677907
  96.2450012  69.6914997 106.7439988  95.9730012  69.9204997 105.8559988
  96.2910012  70.5294997 107.2049988  96.2139482  69.8361318 106.6846273
 109.8700012  71.3134997 113.4569988 108.9290012  71.3714997 113.6189988
 110.1470012  72.2194997 113.3199988 109.7784679  71.4439443 113.4606815
 110.1710012  59.5994997 114.8749988 109.4350012  60.2104997 114.8369988
 110.8540012  60.0144997 114.3479988 110.1626541  59.7391374 114.7985832
 103.1740012  57.6864997 112.3399988 103.0570012  56.7374997 112.2859988
 102.3190012  58.0184997 112.6139988 103.0424212  57.6015571 112.3696497
 108.1220012  73.0944997 110.0819988 108.5480012  72.3874997 109.5969988
 108.4390012  73.8954997 109.6659988 108.2231683  73.1061017 109.9593680
 109.2820012  70.9954997 108.5909988 109.0240012  70.3054997 107.9799988
 109.3530012  70.5524997 109.4369988 109.2562856  70.8412124 108.6216885
 110.9680012  69.5614997 117.0679988 111.1080012  68.9704997 116.3289988
 111.1350012  70.4344997 116.7119988 111.0097411  69.5985428 116.9186894
 105.4410012  66.5234997 106.8409988 104.7290012  67.0584997 106.4889988
 106.1320012  66.5794997 106.1809988 105.4370132  66.6042543 106.7036289
 112.8100012  65.9014997 115.1339988 112.1570012  66.5964997 115.2239988
 113.2750012  66.1114997 114.3249988 112.7835274  66.0250643 115.0368462
 108.8460012  66.7334997 107.7929988 108.1140012  66.9614997 108.3659988
 109.2940012  66.0194997 108.2469988 108.8062725  66.6682145 107.9328816
 108.7440012  64.9074997 116.8599988 108.8240012  65.6704997 117.4319988
 108.1420012  65.1864997 116.1699988 108.6735756  65.0497134 116.8450589
 100.4920012  67.3634997 109.6749988 100.1610012  66.9934997 108.8569988
 101.0800012  66.6934997 110.0219988 100.5261873  67.2221156 109.6098102
 101.8580012  70.7914997 112.3559988 101.7640012  70.2134997 111.5999988
 102.5880012  70.4204997 112.8529988 101.9437387  70.6621663 112.3195342
 100.8580012  66.1324997 113.3089988 101.4240012  66.2534997 112.5459988
 101.1770012  66.7694997 113.9469988 100.9785474  66.2352219 113.2909862
 107.1670012  71.6354997 114.0429988 106.9270012  72.2974997 114.6909988
 106.9690012  70.8014997 114.4679988 107.1073808  71.6133134 114.1891524
 101.7380012  70.5314997 118.0259988 101.4270012  71.3134997 118.4809988
 101.0880012  70.3784997 117.3399988 101.6075558  70.6179105 117.9955871
 107.7170012  65.8954997 105.4779988 108.2970012  66.0454997 106.2249988
 108.1310012  66.3664997 104.7539988 107.8522997  65.9796578 105.4824058
  98.6580012  66.7294997 117.2539988  98.7290012  67.3804997 117.9529988
  97.7680012  66.8324997 116.9189988  98.5473005  66.8325427 117.3043495
 105.4440012  72.6324997 108.9129988 105.9180012  72.9274997 109.6899988
 104.8810012  73.3704997 108.6799988 105.4328184  72.7727247 108.9879628
  99.9780012  72.6034997 118.7889988  99.9850012  72.4674997 117.8419988
  99.0620012  72.4854997 119.0409988  99.8551714  72.5689430 118.6934666
 111.4160012  57.6454997 105.2909988 110.5160012  57.7844997 105.5859988
 111.6680012  58.4764997 104.8889988 111.3268702  57.7769074 105.2770205
  99.4820012  66.4334997 107.2639988  99.1900012  67.2014997 106.7739988
  98.8080012  65.7734997 107.1019988  99.3508111  66.4495587 107.1748978
  95.5750012  68.7964997 116.0789988  95.0740012  68.7684997 115.2639988
  95.5800012  67.8904997 116.3889988  95.5070944  68.6702396 116.0093226
  95.3250012  71.5764997 112.9629988  96.2710012  71.4324997 112.9439988
  95.2130012  72.3604997 113.4999988  95.4392727  71.6628046 113.0330072
 113.5230012  72.2424997 118.6459988 113.4740012  71.2874997 118.6089988
 112.6960012  72.5104997 119.0469988 113.4044940  72.1478998 118.6951375
 104.5020012  71.8164997 117.5219988 104.5890012  72.6424997 117.9969988
 103.6380012  71.4864997 117.7709988 104.3971964  71.8849878 117.6206549
 104.9160012  75.5884997 107.3279988 104.8410012  75.4674997 106.3809988
 104.9490012  76.5384997 107.4459988 104.9102068  75.7002646 107.2144967
  98.5690012  74.3774997 109.1089988  98.7220012  74.0294997 109.9869988
  97.7190012  74.0214997 108.8539988  98.4749166  74.2816217 109.1948079
 108.0180012  74.7424997 104.3299988 108.3930012  73.9984997 103.8589988
 108.0220012  74.4724997 105.2489988 108.0699125  74.6040986 104.3896483
 107.6870012  74.6684997 107.0789988 106.7510012  74.7684997 107.2579988
 107.9670012  73.9594997 107.6579988 107.5969553  74.5863406 107.1817087
 110.6750012  63.7354997 119.1259988 110.2680012  64.2164997 118.4049988
 110.7160012  62.8304997 118.8179988 110.6248437  63.6789374 118.9856683
  97.8240012  70.1194997 117.1229988  98.0400012  69.7584997 117.9819988
  96.9690012  69.7454997 116.9129988  97.7379292  70.0194111 117.2123386
 100.4430012  58.5894997 113.1179988  99.5810012  58.5024997 112.7099988
 100.4200012  59.4454997 113.5459988 100.3220409  58.6932883 113.1200589
 105.1060012  58.3114997 116.4929988 105.5260012  57.8964997 117.2459988
 104.1730012  58.1334997 116.6099988 105.0373644  58.2305900 116.6119539
 108.4320012  62.0674997 117.3459988 107.9180012  61.9414997 118.1439988
 108.2770012  62.9794997 117.1019988 108.3406852  62.1736132 117.4222158
 100.5340012  63.5554997 114.2129988  99.8920012  63.5144997 114.9219988
 100.5710012  64.4814997 113.9749988 100.4510664  63.6751430 114.2779219
 100.5310012  63.7764997 109.1249988  99.6380012  63.4354997 109.0659988
 100.9810012  63.3994997 108.3689988 100.4698130  63.6789631 109.0147702
 106.0660012  64.1924997 107.9419988 105.6570012  65.0074997 107.6509988
 106.7870012  64.0524997 107.3279988 106.1074537  64.2852018 107.8191342
 105.1680012  64.3674997 119.4299988 104.6060012  63.6634997 119.7509988
 105.9950012  64.2474997 119.8979988 105.2027095  64.2547883 119.5372330
 107.0710012  63.6384997 110.7559988 106.8760012  64.2434997 110.0409988
 107.2520012  62.8044997 110.3219988 107.0687614  63.6086300 110.5994405
  98.2840012  63.8754997 116.0799988  98.2460012  64.2754997 116.9489988
  97.7930012  63.0584997 116.1709988  98.2124684  63.8198069 116.2111059
 101.6500012  61.2494997 102.8789988 101.2190012  60.8044997 103.6089988
 100.9320012  61.6214997 102.3669988 101.4939438  61.2388940 102.9096799
  94.8920012  60.9914997 109.9309988  95.5230012  60.9624997 110.6499988
  95.3410012  60.5664997 109.1999988  95.0390918  60.9300836 109.9306441
 106.3350012  65.2764997 115.4269988 106.6580012  64.6454997 114.7839988
 105.8950012  64.7414997 116.0879988 106.3197484  65.1178387 115.4283198
 103.1120012  61.2034997 110.2109988 102.2010012  61.2604997 110.4999988
 103.6180012  61.1434997 111.0219988 103.0556899  61.2031941 110.3601184
  97.9410012  62.8324997 109.0379988  97.0510012  62.9324997 108.6979988
  98.2370012  61.9904997 108.6919988  97.8592823  62.7323545 108.9447213
 101.5940012  62.8324997 106.6949988 102.5250012  62.9614997 106.8729988
 101.3790012  63.5024997 106.0449988 101.6924247  62.9406565 106.6315747
 107.5170012  60.4384997 113.4759988 106.8410012  60.5694997 114.1399988
 107.0320012  60.2834997 112.6649988 107.3587146  60.4355157 113.4574469
 110.8050012  76.1104997 119.7519988 111.0050012  76.5344997 118.9179988
 111.4600012  76.4534997 120.3589988 110.9210072  76.2149857 119.7198592
  98.4030012  68.5844997 119.3599988  99.1350012  68.8384997 119.9219988
  97.6230012  68.7884997 119.8759988  98.3977073  68.6468160 119.5066151
 104.4320012  63.9914997 112.0979988 104.9970012  63.4444997 111.5509988
 104.2850012  63.4694997 112.8869988 104.4893380  63.8462259 112.1298695
  99.4340012  60.1274997 108.5169988  99.1170012  59.2254997 108.4809988
 100.2160012  60.1294997 107.9639988  99.4962408  60.0042474 108.4373569
 103.0590012  62.3794997 114.5119988 102.2230012  62.8334997 114.6229988
 103.5830012  62.6554997 115.2639988 103.0155416  62.4788660 114.6288119
 103.6030012  68.5924997 106.1969988 102.8580012  68.0854997 105.8749988
 103.4690012  68.6414997 107.1439988 103.4828776  68.5296940 106.2808647
 110.7530012  67.7254997 114.9839988 111.3950012  68.1824997 114.4399988
 109.9230012  67.8384997 114.5209988 110.7285963  67.8032704 114.8470177
 107.5010012  61.4064997 104.3959988 106.5620012  61.5184997 104.2449988
 107.7980012  62.2634997 104.7029988 107.4127583  61.5375981 104.4168337
 105.1220012  68.7764997 117.4339988 104.7770012  68.3954997 118.2409988
 104.9220012  69.7104997 117.5049988 105.0477527  68.8505135 117.5540689
 108.2190012  63.2734997 106.0569988 109.1110012  63.1364997 106.3759988
 108.2760012  64.0644997 105.5199988 108.3486504  63.3616052 106.0280818
  98.7280012  67.8874997 111.9669988  99.4730012  67.8854997 111.3659988
  98.8060012  67.0644997 112.4479988  98.8404995  67.7758887 111.9498282
 105.7290012  70.0514997 105.2229988 105.4330012  70.8774997 105.6039988
 105.0260012  69.4314997 105.4189988 105.5934914  70.0808199 105.3016443
  95.7360012  66.3484997 117.2819988  95.9590012  65.9304997 118.1139988
  95.1340012  65.7354997 116.8589988  95.6851759  66.2084668 117.3387022
 102.7520012  65.8654997 119.4949988 102.4560012  65.6994997 118.5999988
 103.6840012  65.6454997 119.4839988 102.8374166  65.8130640 119.3710536
 107.3730012  71.2384997 117.3849988 106.4720012  71.4214997 117.1169988
 107.4070012  71.4974997 118.3049988 107.2543139  71.2985849 117.4728099
 113.1040012  63.4834997 105.7519988 112.5500012  63.0874997 105.0799988
 113.2040012  64.3934997 105.4739988 113.0417059  63.5523586 105.6224401
 113.0670012  69.2834997 118.5889988 112.2160012  69.5214997 118.2219988
 113.6580012  69.2664997 117.8359988 113.0302487  69.3138258 118.4368893
 111.3990012  72.2694997 106.2169988 111.0260012  71.4434997 106.5259988
 111.6770012  72.0864997 105.3189988 111.3855222  72.1317430 106.1379473
 108.5600012  67.0774997 113.2379988 107.6310012  66.8454997 113.2109988
 109.0110012  66.3004997 112.9079988 108.4939216  66.9407238 113.1896917
 101.1030012  71.4054997 109.3709988 101.6300012  72.1784997 109.1709988
 100.2230012  71.6304997 109.0689988 101.0562031  71.5417545 109.3027912
 102.5300012  69.0684997 108.9469988 102.2890012  69.9934997 108.9889988
 101.7890012  68.6094997 109.3439988 102.3969225  69.1330933 109.0063742
 103.0450012  73.2174997 115.2629988 103.4070012  74.0724997 115.0289988
 103.5760012  72.9254997 116.0029988 103.1664473  73.2951060 115.3310855
 101.2130012  74.0904997 108.4929988 100.2630012  74.1954997 108.5439988
 101.5650012  74.9104997 108.8369988 101.1304195  74.2158800 108.5465502
 106.5890012  69.3164997 114.9629988 106.1630012  69.0894997 115.7899988
 107.1690012  68.5784997 114.7809988 106.6091868  69.1855299 115.0515830
 109.2470012  73.8684997 117.4329988 108.6460012  73.3134997 116.9369988
 109.5290012  74.5354997 116.8059988 109.2028804  73.8826625 117.2804849
  97.3700012  61.1014997 116.8399988  96.4770012  61.4404997 116.7719988
  97.2710012  60.2464997 117.2579988  97.2344164  61.0322588 116.8872235
 109.6580012  68.9184997 106.2639988 109.3800012  68.1904997 106.8199988
 110.5850012  69.0374997 106.4689988 109.7453124  68.8348802 106.3678845
  97.0210012  72.9064997 115.2749988  97.2380012  71.9744997 115.2439988
  97.2670012  73.1804997 116.1579988  97.0839549  72.8160636 115.3901763
 101.8200012  70.9274997 104.9399988 101.9660012  70.4074997 105.7299988
 101.8170012  71.8344997 105.2469988 101.8395792  70.9788842 105.0896117
  98.2730012  68.1804997 105.4509988  97.5870012  68.5324997 106.0179988
  98.7950012  68.9434997 105.2039988  98.2496852  68.3318578 105.4952118
 106.1040012  60.8424997 115.7299988 106.8030012  60.9164997 116.3799988
 105.7230012  59.9784997 115.8839988 106.1481767  60.7357624 115.8398322
 106.8890012  60.4944997 106.8269988 107.1090012  60.9664997 106.0239988
 107.4470012  60.8894997 107.4969988 106.9944968  60.6124285 106.8077331
 104.5570012  72.6254997 105.6899988 103.7410012  73.1224997 105.7419988
 105.0870012  73.1004997 105.0499988 104.5169161  72.7577722 105.6105956
 104.0890012  62.2224997 107.6619988 104.9010012  62.7274997 107.7079988
 103.8440012  62.0774997 108.5759988 104.1670520  62.2720375 107.7918517
 104.6240012  63.2084997 116.8459988 104.7430012  63.7824997 117.6039988
 105.2800012  62.5204997 116.9609988 104.7289025  63.1939858 116.9651321
 104.9720012  59.3034997 108.5999988 104.6260012  59.9214997 109.2439988
 105.6310012  59.8044997 108.1179988 105.0136968  59.4556278 108.6229383
 101.8960012  73.6694997 105.6709988 102.0560012  74.4684997 105.1709988
 101.6980012  73.9754997 106.5559988 101.8911637  73.8204020 105.7221144
 100.6300012  60.3664997 105.2869988 100.5470012  61.2554997 105.6339988
 101.5200012  60.1014997 105.5189988 100.7389469  60.4521430 105.3657626
 110.8290012  61.1154997 117.6809988 109.9120012  61.3784997 117.5939988
 111.1640012  61.1124997 116.7849988 110.7488613  61.1510761 117.5478837
 109.4310012  64.8664997 111.7769988 108.6330012  64.4514997 111.4489988
 109.8760012  64.1754997 112.2679988 109.3819885  64.7163543 111.7984889
  98.8890012  70.7944997 104.3479988  99.4810012  71.4934997 104.6239988
  99.3480012  70.3614997 103.6279988  99.0321142  70.8317049 104.2884830
 110.5170012  74.1224997 113.3999988 110.3620012  74.8004997 112.7419988
 111.4500012  74.1944997 113.6029988 110.6218657  74.2249546 113.3374360
  98.0130012  58.2404997 112.1369988  97.7840012  58.2994997 111.2089988
  97.5700012  57.4484997 112.4429988  97.9218530  58.1415753 112.0514786
  96.9430012  72.1804997 108.2969988  96.1110012  72.6534997 108.3239988
  97.4890012  72.6904997 107.6989988  96.9030352  72.3141332 108.2198463
  96.2310012  74.7934997 119.6269988  96.7720012  74.5764997 120.3869988
  95.7500012  73.9874997 119.4369988  96.2399951  74.6549270 119.7052576
 100.8290012  73.7124997 121.2469988 101.5960012  73.2534997 121.5879988
 100.8070012  73.4864997 120.3179988 100.9311275  73.6190186 121.1680101
 107.4060012  72.0924997 119.9769988 107.0550012  71.2364997 120.2199988
 108.1320012  72.2354997 120.5839988 107.4560769  71.9945636 120.0923619
  96.1380012  68.6034997 120.5809988  96.2820012  67.7014997 120.2949988
  95.3660012  68.8894997 120.0939988  96.0532753  68.5186816 120.4759505
 102.7940012  68.5734997 120.0139988 102.4650012  68.8444997 119.1569988
 102.9460012  67.6324997 119.9269988 102.7694809  68.4833862 119.8848244
 108.5280012  68.4894997 117.3969988 109.2740012  69.0774997 117.2779988
 107.7710012  69.0714997 117.4609988 108.5277820  68.6487143 117.3893590
  96.9710012  65.8034997 120.0009988  97.3790012  64.9464997 119.8799988
  96.7110012  65.8184997 120.9219988  96.9917568  65.6880807 120.1089588
 100.9180012  64.8124997 117.3759988 100.3000012  65.4874997 117.6559988
 101.2620012  65.1334997 116.5419988 100.8799132  64.9482411 117.3016262
 105.9380012  67.2844997 120.6529988 106.8910012  67.3674997 120.6259988
 105.7770012  66.5724997 121.2729988 106.0466426  67.1996746 120.7330579
 101.2570012  62.1674997 118.4579988 101.4070012  61.4384997 117.8559988
 101.2600012  62.9444997 117.8989988 101.2779302  62.1727851 118.3000692
 101.6700012  60.5374997 115.9509988 102.2060012  60.9884997 115.2989988
 100.8180012  60.4294997 115.5279988 101.6282178  60.5846390 115.8045756
 103.2520012  65.9764997 116.1899988 104.0020012  65.8204997 115.6169988
 102.9130012  66.8284997 115.9149988 103.3088921  66.0702968 116.0743561
 107.6670012  63.7914997 121.2189988 107.8600012  62.8604997 121.1069988
 108.5250012  64.2164997 121.2079988 107.8092934  63.7216531 121.2022031
 108.9840012  66.5804997 119.2959988 108.7030012  67.2894997 118.7179988
 109.9270012  66.5074997 119.1449988 109.0729291  66.6676711 119.1964967
  99.7360012  63.3654997 120.3699988  98.9690012  62.8334997 120.1589988
 100.4150012  63.0554997 119.7699988  99.7227877  63.2508300 120.2600716
 102.4760012  57.9934997 116.3819988 102.3770012  58.9404997 116.2769988
 101.7330012  57.6214997 115.9059988 102.3621184  58.0725863 116.3033621
 103.7400012  62.3154997 119.9459988 103.5040012  62.0954997 120.8469988
 102.9560012  62.1084997 119.4359988 103.6018504  62.2574586 120.0003431
 106.4550012  61.4424997 119.0209988 105.5080012  61.4744997 119.1539988
 106.7680012  60.8174997 119.6749988 106.3676707  61.3623998 119.1276060
 108.0890012  60.0764997 121.0269988 107.9930012  59.1244997 121.0209988
 107.7680012  60.3454997 121.8869988 108.0324070  59.9824035 121.1425441
  97.9160012  61.2864997 120.0739988  98.1280012  60.5794997 119.4639988
  97.8050012  60.8484997 120.9179988  97.9299721  61.1307084 120.1046843
 102.6970012  57.2874997 119.0529988 103.4090012  56.6474997 119.0389988
 102.5960012  57.5544997 118.1399988 102.7808066  57.2360079 118.9275677
 103.0510012  58.9704997 121.1069988 102.9190012  58.4944997 120.2869988
 102.4520012  59.7144997 121.0519988 102.9519071  59.0059618 120.9872886
 102.5970012  75.8534997 104.2829988 103.5300012  76.0114997 104.4269988
 102.3330012  76.5284997 103.6589988 102.6889888  75.9664510 104.2182842
  94.8150012  75.8824997 108.8439988  94.1680012  75.4204997 108.3109988
  95.1690012  75.2104997 109.4259988  94.7743849  75.7284723 108.8497959
  95.6850012  73.9634997 110.6479988  95.3500012  73.0834997 110.8199988
  95.9070012  74.3084997 111.5129988  95.6691783  73.8897500 110.7884208
 113.2330012  74.7724997 113.6289988 113.2120012  74.9574997 114.5679988
 113.9240012  75.3414997 113.2879988 113.3234618  74.8746606 113.7113864
 112.7970012  74.3404997 116.5509988 112.3090012  73.6044997 116.1789988
 113.3460012  73.9464997 117.2289988 112.8044820  74.1865889 116.5917813
 111.2470012  70.1294997 121.1889988 110.3810012  70.0244997 121.5829988
 111.6240012  70.8884997 121.6349988 111.1793308  70.2176900 121.3032393
 112.5480012  68.3864997 106.7029988 113.3980012  68.8074997 106.8299988
 112.5540012  67.6464997 107.3099988 112.6651372  68.3440803 106.8024344
 112.9430012  66.4394997 108.5259988 112.2160012  65.9604997 108.9239988
 113.5240012  66.6454997 109.2589988 112.9220473  66.4018103 108.6794528
 112.7020012  69.2244997 113.4739988 113.5350012  68.8464997 113.1939988
 112.8140012  70.1674997 113.3549988 112.8312647  69.3002218 113.4195487
 111.1880012  72.1024997 115.7809988 110.5410012  72.4274997 116.4069988
 110.6710012  71.6624997 115.1069988 111.0294029  72.0875004 115.7755827
 113.2110012  66.3404997 104.9179988 112.6890012  66.6974997 104.1989988
 113.1780012  67.0154997 105.5959988 113.1351634  66.4805413 104.9113145
 110.7290012  64.9604997 109.0889988 110.5790012  64.0154997 109.0689988
 110.3760012  65.2414997 109.9329988 110.6607448  64.8691481 109.2003705
  95.7650012  67.0384997 113.0999988  95.9490012  66.9564997 112.1639988
  96.6140012  66.9144997 113.5229988  95.9050151  67.0105073 113.0291451
 111.5860012  66.9304997 118.7279988 112.1690012  66.1964997 118.9199988
 112.1500012  67.7024997 118.7749988 111.7419769  66.9344227 118.7606159
 113.0820012  64.8334997 119.4129988 112.2190012  64.4544997 119.2469988
 113.6870012  64.0944997 119.3379988 113.0456119  64.6818268 119.3801528
 110.8070012  60.9884997 102.5859988 111.4180012  60.6174997 103.2229988
 109.9710012  60.5674997 102.7819988 110.7775032  60.8807554 102.6997035
 110.4400012  62.5434997 107.5519988 110.7200012  61.6364997 107.6759988
 111.1990012  62.9774997 107.1629988 110.5809277  62.4780942 107.5163682
 111.0520012  63.1244997 112.9879988 111.9850012  63.3364997 112.9529988
 110.8170012  63.2264997 113.9099988 111.1479244  63.1673100 113.1078892
 111.0810012  63.8614997 115.7639988 110.2380012  64.1294997 116.1299988
 111.5230012  64.6834997 115.5529988 111.0254158  64.0093291 115.7855491
  95.3620012  62.3094997 119.2409988  96.2820012  62.1874997 119.4769988
  94.9130012  61.5594997 119.6299988  95.4271580  62.1913727 119.3259006
 113.3640012  57.8414997 121.1169988 113.7140012  57.1874997 120.5119988
 113.5110012  58.6784997 120.6769988 113.4317887  57.8651548 120.9746858
 111.0530012  59.8064997 107.5999988 111.2360012  59.3574997 108.4259988
 110.4540012  59.2214997 107.1369988 110.9970202  59.6659975 107.6503275
  96.5830012  60.6214997 112.1319988  97.0290012  59.8294997 112.4339988
  97.0500012  61.3374997 112.5619988  96.7070831  60.6100685 112.2314006
  94.8870012  63.6204997 113.2009988  95.3790012  63.3994997 112.4099988
  95.2500012  64.4614997 113.4819988  95.0033126  63.7038357 113.1307531
 112.8840012  59.9504997 119.4659988 111.9660012  60.2214997 119.4309988
 113.0070012  59.4154997 118.6819988 112.7749729  59.9152508 119.3551923
  95.2010012  59.8784997 107.2549988  94.2760012  60.0874997 107.1259988
  95.6550012  60.3624997 106.5649988  95.1357292  59.9725343 107.1440720
 109.9720012  74.8624997 109.2009988 110.6240012  74.5154997 108.5929988
 110.4820012  75.3514997 109.8469988 110.1302637  74.8810597 109.2050236
  95.1650012  58.6164997 115.5989988  94.5000012  58.3704997 116.2429988
  94.7220012  59.2384997 115.0219988  95.0141318  58.6669410 115.6090898
  97.3570012  71.7914997 119.7439988  96.5360012  71.9664997 119.2829988
  97.1040012  71.7184997 120.6639988  97.2105585  71.8055544 119.8053561
 100.3110012  72.7664997 116.0019988  99.8860012  73.5754997 115.7199988
 101.2150012  72.8514997 115.6999988 100.3749975  72.8889300 115.9224816
 104.6220012  74.1654997 118.9619988 104.8070012  73.8314997 119.8399988
 105.4680012  74.4744997 118.6399988 104.7617539  74.1616047 119.0385605
 106.9670012  75.4514997 118.2059988 107.6440012  74.8184997 117.9659988
 107.2890012  75.8524997 119.0129988 107.1031637  75.4191154 118.2822793
 111.8840012  58.0404997 117.2849988 111.0720012  58.3654997 116.8979988
 112.1170012  57.2804997 116.7519988 111.8042203  57.9822758 117.1598880
  97.7130012  76.0224997 116.0499988  96.9920012  76.4624997 115.5989988
  97.3470012  75.7714997 116.8979988  97.5649651  76.0487242 116.1029640
 100.1800012  75.6224997 115.0799988  99.3150012  75.6944997 115.4839988
 100.1250012  76.1694997 114.2959988 100.0542085  75.7062685 115.0293362
 104.8900012  75.5104997 114.2549988 104.4340012  76.0394997 113.6009988
 105.0530012  76.1134997 114.9799988 104.8496068  75.6644607 114.2634838
 107.2180012  74.3884997 115.1999988 106.3130012  74.5534997 114.9339988
 107.6470012  75.2414997 115.1349988 107.1521324  74.5264339 115.1547976
 109.8220012  75.9584997 115.4949988 109.6400012  76.8744997 115.2849988
 109.9990012  75.5484997 114.6489988 109.8210210  76.0284822 115.3517885
  97.1270012  74.6454997 112.9599988  97.1090012  74.2204997 113.8169988
  97.9320012  74.3274997 112.5509988  97.2333529  74.5443013 113.0220946
  99.2690012  73.3554997 111.6149988  99.0500012  72.4394997 111.7849988
 100.0930012  73.4954997 112.0809988  99.3504420  73.2490520 111.7012774
 101.8060012  73.8254997 112.4639988 102.0190012  72.9374997 112.1769988
 101.8700012  73.7914997 113.4179988 101.8438232  73.6993102 112.5537397
 105.3140012  59.4894997 111.6079988 104.6400012  58.8604997 111.8639988
 105.8780012  59.0054997 111.0049988 105.2979230  59.3378744 111.5615340
 110.4570012  57.5974997 111.7209988 111.0610012  58.1444997 111.2189988
 109.5870012  57.9164997 111.4799988 110.4221208  57.7155137 111.6196886
 112.1840012  58.7354997 110.0539988 112.7960012  58.2214997 109.5269988
 112.5660012  59.6134997 110.0769988 112.3193371  58.7837866 109.9850041
  97.6410012  58.1234997 109.4299988  96.8640012  57.8894997 108.9229988
  98.1710012  57.3264997 109.4389988  97.6062330  57.9836988 109.3617742
  96.4770012  57.9214997 105.2339988  96.9160012  58.5324997 104.6419988
  95.8440012  58.4594997 105.7079988  96.4514514  58.0779257 105.2170930
 102.2200012  58.0504997 109.2439988 103.0950012  58.4384997 109.2139988
 102.0840012  57.8354997 110.1659988 102.3213695  58.0745184 109.3646440
 107.7770012  58.0804997 110.8929988 107.8530012  58.1754997 109.9429988
 107.5020012  57.1724997 111.0219988 107.7502321  57.9707867 110.7805079
 109.1300012  58.1064997 106.5849988 108.4280012  58.7214997 106.3749988
 108.6860012  57.2684997 106.7159988 108.9736450  58.0775639 106.5739000
  98.3380012  59.8374997 103.6759988  98.8300012  59.2074997 103.1489988
  98.9620012  60.1334997 104.3389988  98.4895688  59.7913804 103.6935482
 103.3640012  60.1304997 106.1329988 103.5420012  59.4844997 106.8159988
 103.3110012  60.9644997 106.5999988 103.3811999  60.1548009 106.2895917
 111.9520012  74.6424997 107.2079988 111.7570012  73.8944997 106.6429988
 111.9130012  75.4004997 106.6249988 111.9200380  74.6426099 107.0518384
  97.5990012  58.6374997 118.9479988  97.2330012  57.8724997 119.3899988
  98.5120012  58.6664997 119.2339988  97.6722736  58.5365640 119.0472502
  99.5720012  57.9884997 120.4839988 100.4700012  57.7144997 120.2989988
  99.1850012  57.2454997 120.9479988  99.6426612  57.8505914 120.5213643
 107.9930012  57.3204997 120.6659988 108.0700012  56.8944997 121.5199988
 108.8870012  57.3344997 120.3229988 108.1243428  57.2640879 120.7365310
 111.1690012  73.3934997 119.3579988 110.3870012  73.2074997 118.8379988
 111.0970012  74.3224997 119.5759988 111.0522274  73.4936643 119.3163018
 125.5750012  67.2794997 109.3889988 125.6640012  68.2234997 109.2569988
 124.9370012  67.0044997 108.7309988 125.5009081  67.3714830 109.2819614
 124.5080012  66.5344997 112.8079988 124.4700012  65.8884997 113.5129988
 124.1860012  66.0684997 112.0369988 124.4592333  66.3829408 112.8002978
 116.8770012  66.1494997 114.4009988 116.9180012  65.5234997 115.1239988
 117.5800012  66.7734997 114.5829988 116.9776363  66.1481196 114.5246044
 128.2140012  69.4734997 111.1089988 127.7740012  68.7534997 111.5599988
 128.2010012  70.1944997 111.7389988 128.1520226  69.4723731 111.2558494
 117.8000012  70.5994997 112.9359988 117.4310012  69.7974997 112.5659988
 118.7410012  70.4304997 112.9819988 117.8767289  70.4670153 112.8916316
 114.4100012  64.2594997 108.3289988 113.9630012  65.1054997 108.3099988
 113.8490012  63.6794997 107.8129988 114.2729900  64.2969916 108.2566801
 115.1210012  66.4214997 110.4539988 115.3340012  65.6514997 110.9819988
 115.8590012  66.5104997 109.8509988 115.2499044  66.3281968 110.4447123
 125.3260012  74.5784997 111.3209988 125.9460012  73.9014997 111.0479988
 125.1180012  74.3604997 112.2299988 125.3826726  74.4564800 111.4064812
 122.8980012  68.9674997 113.2139988 123.2020012  68.2814997 112.6189988
 123.6190012  69.0854997 113.8319988 123.0370671  68.8896304 113.2161816
 131.5610012  60.5684997 114.0749988 131.6100012  61.1784997 114.8099988
 131.9860012  61.0294997 113.3519988 131.6251746  60.7143796 114.0779175
 126.0390012  63.3614997 113.5409988 126.1810012  62.4154997 113.5619988
 125.9320012  63.5684997 112.6129988 126.0439919  63.2598246 113.4183408
 119.1930012  61.4624997 110.8139988 119.2370012  62.3224997 110.3949988
 118.7360012  60.9104997 110.1799988 119.1372240  61.5054422 110.6709864
 126.9160012  61.5934997 109.2149988 127.5620012  61.2644997 109.8389988
 127.4260012  62.1114997 108.5919988 127.0734299  61.6184450 109.2162731
 115.8140012  63.8594997 111.5759988 116.4670012  63.3094997 112.0079988
 115.8380012  63.5854997 110.6589988 115.9066683  63.7471466 111.5112123
 120.9700012  65.4094997 110.7909988 121.5860012  64.8834997 111.3009988
 120.3840012  64.7694997 110.3879988 120.9750810  65.2509208 110.8063173
 131.9520012  62.0464997 116.3099988 131.2640012  62.7044997 116.2149988
 131.9680012  61.8494997 117.2469988 131.8599540  62.1099819 116.4235990
 118.0040012  60.3804997 114.8879988 117.7850012  60.9104997 114.1219988
 117.3360012  60.6074997 115.5349988 117.8837600  60.4836906 114.8706379
 125.3730012  69.8804997 108.4319988 125.0770012  69.5584997 107.5809988
 125.0480012  70.7804997 108.4729988 125.2886371  69.9580215 108.3211801
 120.5730012  68.0564997 115.1749988 119.8330012  68.6544997 115.2789988
 121.2870012  68.6104997 114.8599988 120.5682237  68.2132831 115.1466465
 128.6800012  60.8844997 111.1949988 128.4640012  60.1184997 111.7279988
 129.3350012  61.3564997 111.7079988 128.7390632  60.8435889 111.3372861
 117.5970012  62.2724997 112.8399988 118.2110012  62.9054997 113.2129988
 118.1090012  61.8004997 112.1839988 117.7501981  62.2952267 112.8022908
 118.9800012  70.0204997 115.9619988 118.9750012  70.9004997 115.5839988
 118.1270012  69.9374997 116.3869988 118.8639464  70.1296117 115.9677907
 115.1010012  69.6914997 106.7439988 114.8290012  69.9204997 105.8559988
 115.1470012  70.5294997 107.2049988 115.0699482  69.8361318 106.6846273
 128.7260012  71.3134997 113.4569988 127.7850012  71.3714997 113.6189988
 129.0030012  72.2194997 113.3199988 128.6344679  71.4439443 113.4606815
 129.0270012  59.5994997 114.8749988 128.2910012  60.2104997 114.8369988
 129.7100012  60.0144997 114.3479988 129.0186541  59.7391374 114.7985832
 122.0300012  57.6864997 112.3399988 121.9130012  56.7374997 112.2859988
 121.1750012  58.0184997 112.6139988 121.8984212  57.6015571 112.3696497
 126.9780012  73.0944997 110.0819988 127.4040012  72.3874997 109.5969988
 127.2950012  73.8954997 109.6659988 127.0791683  73.1061017 109.9593680
 128.1380012  70.9954997 108.5909988 127.8800012  70.3054997 107.9799988
 128.2090012  70.5524997 109.4369988 128.1122856  70.8412124 108.6216885
 129.8240012  69.5614997 117.0679988 129.9640012  68.9704997 116.3289988
 129.9910012  70.4344997 116.7119988 129.8657411  69.5985428 116.9186894
 124.2970012  66.5234997 106.8409988 123.5850012  67.0584997 106.4889988
 124.9880012  66.5794997 106.1809988 124.2930132  66.6042543 106.7036289
 124.3500012  64.9814997 103.8799988 125.0510012  65.0034997 104.5309988
 124.6530012  64.3534997 103.2229988 124.4868133  64.8997070 103.8803369
 131.6660012  65.9014997 115.1339988 131.0130012  66.5964997 115.2239988
 132.1310012  66.1114997 114.3249988 131.6395274  66.0250643 115.0368462
 127.7020012  66.7334997 107.7929988 126.9700012  66.9614997 108.3659988
 128.1500012  66.0194997 108.2469988 127.6622725  66.6682145 107.9328816
 127.6000012  64.9074997 116.8599988 127.6800012  65.6704997 117.4319988
 126.9980012  65.1864997 116.1699988 127.5295756  65.0497134 116.8450589
 119.3480012  67.3634997 109.6749988 119.0170012  66.9934997 108.8569988
 119.9360012  66.6934997 110.0219988 119.3821873  67.2221156 109.6098102
 120.7140012  70.7914997 112.3559988 120.6200012  70.2134997 111.5999988
 121.4440012  70.4204997 112.8529988 120.7997386  70.6621663 112.3195342
 119.7140012  66.1324997 113.3089988 120.2800012  66.2534997 112.5459988
 120.0330012  66.7694997 113.9469988 119.8345474  66.2352219 113.2909862
 126.0230012  71.6354997 114.0429988 125.7830012  72.2974997 114.6909988
 125.8250012  70.8014997 114.4679988 125.9633808  71.6133134 114.1891524
 120.5940012  70.5314997 118.0259988 120.2830012  71.3134997 118.4809988
 119.9440012  70.3784997 117.3399988 120.4635558  70.6179105 117.9955871
 126.5730012  65.8954997 105.4779988 127.1530012  66.0454997 106.2249988
 126.9870012  66.3664997 104.7539988 126.7082997  65.9796578 105.4824058
 117.5140012  66.7294997 117.2539988 117.5850012  67.3804997 117.9529988
 116.6240012  66.8324997 116.9189988 117.4033005  66.8325427 117.3043495
 124.3000012  72.6324997 108.9129988 124.7740012  72.9274997 109.6899988
 123.7370012  73.3704997 108.6799988 124.2888184  72.7727247 108.9879628
 118.8340012  72.6034997 118.7889988 118.8410012  72.4674997 117.8419988
 117.9180012  72.4854997 119.0409988 118.7111714  72.5689430 118.6934666
 130.2720012  57.6454997 105.2909988 129.3720012  57.7844997 105.5859988
 130.5240012  58.4764997 104.8889988 130.1828702  57.7769074 105.2770205
 118.3380012  66.4334997 107.2639988 118.0460012  67.2014997 106.7739988
 117.6640012  65.7734997 107.1019988 118.2068111  66.4495587 107.1748978
 114.4310012  68.7964997 116.0789988 113.9300012  68.7684997 115.2639988
 114.4360012  67.8904997 116.3889988 114.3630944  68.6702396 116.0093226
 114.1810012  71.5764997 112.9629988 115.1270012  71.4324997 112.9439988
 114.0690012  72.3604997 113.4999988 114.2952727  71.6628046 113.0330072
 132.3790012  72.2424997 118.6459988 132.3300012  71.2874997 118.6089988
 131.5520012  72.5104997 119.0469988 132.2604940  72.1478998 118.6951375
 123.3580012  71.8164997 117.5219988 123.4450012  72.6424997 117.9969988
 122.4940012  71.4864997 117.7709988 123.2531964  71.8849878 117.6206549
 123.7720012  75.5884997 107.3279988 123.6970012  75.4674997 106.3809988
 123.8050012  76.5384997 107.4459988 123.7662068  75.7002646 107.2144967
 117.4250012  74.3774997 109.1089988 117.5780012  74.0294997 109.9869988
 116.5750012  74.0214997 108.8539988 117.3309166  74.2816217 109.1948079
 126.5430012  74.6684997 107.0789988 125.6070012  74.7684997 107.2579988
 126.8230012  73.9594997 107.6579988 126.4529553  74.5863406 107.1817087
 129.5310012  63.7354997 119.1259988 129.1240012  64.2164997 118.4049988
 129.5720012  62.8304997 118.8179988 129.4808437  63.6789374 118.9856683
 116.6800012  70.1194997 117.1229988 116.8960012  69.7584997 117.9819988
 115.8250012  69.7454997 116.9129988 116.5939292  70.0194111 117.2123386
 119.2990012  58.5894997 113.1179988 118.4370012  58.5024997 112.7099988
 119.2760012  59.4454997 113.5459988 119.1780409  58.6932883 113.1200589
 123.9620012  58.3114997 116.4929988 124.3820012  57.8964997 117.2459988
 123.0290012  58.1334997 116.6099988 123.8933644  58.2305900 116.6119539
 127.2880012  62.0674997 117.3459988 126.7740012  61.9414997 118.1439988
 127.1330012  62.9794997 117.1019988 127.1966852  62.1736132 117.4222158
 123.6230012  60.8044997 103.7779988 123.3700012  60.8234997 104.7009988
 123.3670012  59.9324997 103.4759988 123.5537481  60.6892558 103.8636175
 119.3900012  63.5554997 114.2129988 118.7480012  63.5144997 114.9219988
 119.4270012  64.4814997 113.9749988 119.3070664  63.6751430 114.2779219
 119.3870012  63.7764997 109.1249988 118.4940012  63.4354997 109.0659988
 119.8370012  63.3994997 108.3689988 119.3258130  63.6789631 109.0147702
 124.9220012  64.1924997 107.9419988 124.5130012  65.0074997 107.6509988
 125.6430012  64.0524997 107.3279988 124.9634537  64.2852018 107.8191342
 124.0240012  64.3674997 119.4299988 123.4620012  63.6634997 119.7509988
 124.8510012  64.2474997 119.8979988 124.0587095  64.2547883 119.5372330
 125.9270012  63.6384997 110.7559988 125.7320012  64.2434997 110.0409988
 126.1080012  62.8044997 110.3219988 125.9247614  63.6086300 110.5994405
 117.1400012  63.8754997 116.0799988 117.1020012  64.2754997 116.9489988
 116.6490012  63.0584997 116.1709988 117.0684684  63.8198069 116.2111059
 113.7480012  60.9914997 109.9309988 114.3790012  60.9624997 110.6499988
 114.1970012  60.5664997 109.1999988 113.8950918  60.9300836 109.9306441
 115.0220012  61.7374997 105.3549988 115.4960012  62.3284997 104.7699988
 114.3050012  62.2684997 105.7019988 114.9899341  61.8900867 105.3218836
 125.1910012  65.2764997 115.4269988 125.5140012  64.6454997 114.7839988
 124.7510012  64.7414997 116.0879988 125.1757484  65.1178387 115.4283198
 121.9680012  61.2034997 110.2109988 121.0570012  61.2604997 110.4999988
 122.4740012  61.1434997 111.0219988 121.9116899  61.2031941 110.3601184
 116.7970012  62.8324997 109.0379988 115.9070012  62.9324997 108.6979988
 117.0930012  61.9904997 108.6919988 116.7152823  62.7323545 108.9447213
 126.3730012  60.4384997 113.4759988 125.6970012  60.5694997 114.1399988
 125.8880012  60.2834997 112.6649988 126.2147146  60.4355157 113.4574469
 129.6610012  76.1104997 119.7519988 129.8610012  76.5344997 118.9179988
 130.3160012  76.4534997 120.3589988 129.7770072  76.2149857 119.7198592
 117.2590012  68.5844997 119.3599988 117.9910012  68.8384997 119.9219988
 116.4790012  68.7884997 119.8759988 117.2537073  68.6468160 119.5066151
 123.2880012  63.9914997 112.0979988 123.8530012  63.4444997 111.5509988
 123.1410012  63.4694997 112.8869988 123.3453380  63.8462259 112.1298695
 118.2900012  60.1274997 108.5169988 117.9730012  59.2254997 108.4809988
 119.0720012  60.1294997 107.9639988 118.3522408  60.0042474 108.4373569
 121.9150012  62.3794997 114.5119988 121.0790012  62.8334997 114.6229988
 122.4390012  62.6554997 115.2639988 121.8715416  62.4788660 114.6288119
 122.4590012  68.5924997 106.1969988 121.7140012  68.0854997 105.8749988
 122.3250012  68.6414997 107.1439988 122.3388776  68.5296940 106.2808647
 129.6090012  67.7254997 114.9839988 130.2510012  68.1824997 114.4399988
 128.7790012  67.8384997 114.5209988 129.5845963  67.8032704 114.8470177
 123.9780012  68.7764997 117.4339988 123.6330012  68.3954997 118.2409988
 123.7780012  69.7104997 117.5049988 123.9037527  68.8505135 117.5540689
 127.0750012  63.2734997 106.0569988 127.9670012  63.1364997 106.3759988
 127.1320012  64.0644997 105.5199988 127.2046504  63.3616052 106.0280818
 117.5840012  67.8874997 111.9669988 118.3290012  67.8854997 111.3659988
 117.6620012  67.0644997 112.4479988 117.6964995  67.7758887 111.9498282
 124.5850012  70.0514997 105.2229988 124.2890012  70.8774997 105.6039988
 123.8820012  69.4314997 105.4189988 124.4494914  70.0808199 105.3016443
 114.5920012  66.3484997 117.2819988 114.8150012  65.9304997 118.1139988
 113.9900012  65.7354997 116.8589988 114.5411759  66.2084668 117.3387022
 121.6080012  65.8654997 119.4949988 121.3120012  65.6994997 118.5999988
 122.5400012  65.6454997 119.4839988 121.6934166  65.8130640 119.3710536
 126.2290012  71.2384997 117.3849988 125.3280012  71.4214997 117.1169988
 126.2630012  71.4974997 118.3049988 126.1103139  71.2985849 117.4728099
 131.9600012  63.4834997 105.7519988 131.4060012  63.0874997 105.0799988
 132.0600012  64.3934997 105.4739988 131.8977059  63.5523586 105.6224401
 131.9230012  69.2834997 118.5889988 131.0720012  69.5214997 118.2219988
 132.5140012  69.2664997 117.8359988 131.8862487  69.3138258 118.4368893
 130.2550012  72.2694997 106.2169988 129.8820012  71.4434997 106.5259988
 130.5330012  72.0864997 105.3189988 130.2415222  72.1317430 106.1379473
 127.4160012  67.0774997 113.2379988 126.4870012  66.8454997 113.2109988
 127.8670012  66.3004997 112.9079988 127.3499216  66.9407238 113.1896917
 119.9590012  71.4054997 109.3709988 120.4860012  72.1784997 109.1709988
 119.0790012  71.6304997 109.0689988 119.9122031  71.5417545 109.3027912
 115.7140012  66.2674997 103.9579988 116.3300012  66.8944997 104.3379988
 114.8520012  66.5834997 104.2299988 115.6817698  66.3959430 104.0467183
 121.3860012  69.0684997 108.9469988 121.1450012  69.9934997 108.9889988
 120.6450012  68.6094997 109.3439988 121.2529225  69.1330933 109.0063742
 121.9010012  73.2174997 115.2629988 122.2630012  74.0724997 115.0289988
 122.4320012  72.9254997 116.0029988 122.0224473  73.2951060 115.3310855
 120.0690012  74.0904997 108.4929988 119.1190012  74.1954997 108.5439988
 120.4210012  74.9104997 108.8369988 119.9864195  74.2158800 108.5465502
 125.4450012  69.3164997 114.9629988 125.0190012  69.0894997 115.7899988
 126.0250012  68.5784997 114.7809988 125.4651868  69.1855299 115.0515830
 128.1030012  73.8684997 117.4329988 127.5020012  73.3134997 116.9369988
 128.3850012  74.5354997 116.8059988 128.0588804  73.8826625 117.2804849
 116.2260012  61.1014997 116.8399988 115.3330012  61.4404997 116.7719988
 116.1270012  60.2464997 117.2579988 116.0904164  61.0322588 116.8872235
 115.8770012  72.9064997 115.2749988 116.0940012  71.9744997 115.2439988
 116.1230012  73.1804997 116.1579988 115.9399549  72.8160636 115.3901763
 121.7390012  71.3574997 102.4839988 121.9780012  70.6094997 101.9369988
 121.4700012  70.9694997 103.3169988 121.7353675  71.2026638 102.5216865
 120.6760012  70.9274997 104.9399988 120.8220012  70.4074997 105.7299988
 120.6730012  71.8344997 105.2469988 120.6955792  70.9788842 105.0896117
 117.1290012  68.1804997 105.4509988 116.4430012  68.5324997 106.0179988
 117.6510012  68.9434997 105.2039988 117.1056852  68.3318578 105.4952118
 124.9600012  60.8424997 115.7299988 125.6590012  60.9164997 116.3799988
 124.5790012  59.9784997 115.8839988 125.0041767  60.7357624 115.8398322
 125.7450012  60.4944997 106.8269988 125.9650012  60.9664997 106.0239988
 126.3030012  60.8894997 107.4969988 125.8504968  60.6124285 106.8077331
 123.4130012  72.6254997 105.6899988 122.5970012  73.1224997 105.7419988
 123.9430012  73.1004997 105.0499988 123.3729161  72.7577722 105.6105956
 122.9450012  62.2224997 107.6619988 123.7570012  62.7274997 107.7079988
 122.7000012  62.0774997 108.5759988 123.0230520  62.2720375 107.7918517
 123.4800012  63.2084997 116.8459988 123.5990012  63.7824997 117.6039988
 124.1360012  62.5204997 116.9609988 123.5849025  63.1939858 116.9651321
 123.8280012  59.3034997 108.5999988 123.4820012  59.9214997 109.2439988
 124.4870012  59.8044997 108.1179988 123.8696968  59.4556278 108.6229383
 120.7520012  73.6694997 105.6709988 120.9120012  74.4684997 105.1709988
 120.5540012  73.9754997 106.5559988 120.7471637  73.8204020 105.7221144
 129.6850012  61.1154997 117.6809988 128.7680012  61.3784997 117.5939988
 130.0200012  61.1124997 116.7849988 129.6048613  61.1510761 117.5478837
 128.2870012  64.8664997 111.7769988 127.4890012  64.4514997 111.4489988
 128.7320012  64.1754997 112.2679988 128.2379885  64.7163543 111.7984889
 116.0610012  63.4584997 103.4639988 116.0160012  64.3974997 103.6419988
 115.1730012  63.2224997 103.1939988 115.9348574  63.5551892 103.4518912
 129.3730012  74.1224997 113.3999988 129.2180012  74.8004997 112.7419988
 130.3060012  74.1944997 113.6029988 129.4778657  74.2249546 113.3374360
 116.8690012  58.2404997 112.1369988 116.6400012  58.2994997 111.2089988
 116.4260012  57.4484997 112.4429988 116.7778530  58.1415753 112.0514786
 115.7990012  72.1804997 108.2969988 114.9670012  72.6534997 108.3239988
 116.3450012  72.6904997 107.6989988 115.7590352  72.3141332 108.2198463
 115.0870012  74.7934997 119.6269988 115.6280012  74.5764997 120.3869988
 114.6060012  73.9874997 119.4369988 115.0959951  74.6549270 119.7052576
 119.6850012  73.7124997 121.2469988 120.4520012  73.2534997 121.5879988
 119.6630012  73.4864997 120.3179988 119.7871275  73.6190186 121.1680101
 126.2620012  72.0924997 119.9769988 125.9110012  71.2364997 120.2199988
 126.9880012  72.2354997 120.5839988 126.3120769  71.9945636 120.0923619
 114.9940012  68.6034997 120.5809988 115.1380012  67.7014997 120.2949988
 114.2220012  68.8894997 120.0939988 114.9092753  68.5186816 120.4759505
 121.6500012  68.5734997 120.0139988 121.3210012  68.8444997 119.1569988
 121.8020012  67.6324997 119.9269988 121.6254809  68.4833862 119.8848244
 124.6880012  69.9944997 102.4499988 124.4190012  70.1744997 103.3509988
 124.4820012  69.0684997 102.3179988 124.6233427  69.8940261 102.5555073
 127.3840012  68.4894997 117.3969988 128.1300012  69.0774997 117.2779988
 126.6270012  69.0714997 117.4609988 127.3837820  68.6487143 117.3893590
 115.8270012  65.8034997 120.0009988 116.2350012  64.9464997 119.8799988
 115.5670012  65.8184997 120.9219988 115.8477568  65.6880807 120.1089588
 120.4850012  66.9194997 105.0199988 120.0250012  66.4354997 105.7059988
 120.7400012  66.2514997 104.3839988 120.4564902  66.7628731 105.0279334
 119.7740012  64.8124997 117.3759988 119.1560012  65.4874997 117.6559988
 120.1180012  65.1334997 116.5419988 119.7359132  64.9482411 117.3016262
 124.7940012  67.2844997 120.6529988 125.7470012  67.3674997 120.6259988
 124.6330012  66.5724997 121.2729988 124.9026426  67.1996746 120.7330579
 120.1130012  62.1674997 118.4579988 120.2630012  61.4384997 117.8559988
 120.1160012  62.9444997 117.8989988 120.1339302  62.1727851 118.3000692
 120.5260012  60.5374997 115.9509988 121.0620012  60.9884997 115.2989988
 119.6740012  60.4294997 115.5279988 120.4842178  60.5846390 115.8045756
 122.1080012  65.9764997 116.1899988 122.8580012  65.8204997 115.6169988
 121.7690012  66.8284997 115.9149988 122.1648921  66.0702968 116.0743561
 126.5230012  63.7914997 121.2189988 126.7160012  62.8604997 121.1069988
 127.3810012  64.2164997 121.2079988 126.6652934  63.7216531 121.2022031
 127.8400012  66.5804997 119.2959988 127.5590012  67.2894997 118.7179988
 128.7830012  66.5074997 119.1449988 127.9289291  66.6676711 119.1964967
 118.5920012  63.3654997 120.3699988 117.8250012  62.8334997 120.1589988
 119.2710012  63.0554997 119.7699988 118.5787877  63.2508300 120.2600716
 121.3320012  57.9934997 116.3819988 121.2330012  58.9404997 116.2769988
 120.5890012  57.6214997 115.9059988 121.2181184  58.0725863 116.3033621
 122.5960012  62.3154997 119.9459988 122.3600012  62.0954997 120.8469988
 121.8120012  62.1084997 119.4359988 122.4578504  62.2574586 120.0003431
 125.3110012  61.4424997 119.0209988 124.3640012  61.4744997 119.1539988
 125.6240012  60.8174997 119.6749988 125.2236707  61.3623998 119.1276060
 126.9450012  60.0764997 121.0269988 126.8490012  59.1244997 121.0209988
 126.6240012  60.3454997 121.8869988 126.8884070  59.9824035 121.1425441
 116.7720012  61.2864997 120.0739988 116.9840012  60.5794997 119.4639988
 116.6610012  60.8484997 120.9179988 116.7859721  61.1307084 120.1046843
 121.5530012  57.2874997 119.0529988 122.2650012  56.6474997 119.0389988
 121.4520012  57.5544997 118.1399988 121.6368066  57.2360079 118.9275677
 121.9070012  58.9704997 121.1069988 121.7750012  58.4944997 120.2869988
 121.3080012  59.7144997 121.0519988 121.8079071  59.0059618 120.9872886
 121.4530012  75.8534997 104.2829988 122.3860012  76.0114997 104.4269988
 121.1890012  76.5284997 103.6589988 121.5449888  75.9664510 104.2182842
 113.6710012  75.8824997 108.8439988 113.0240012  75.4204997 108.3109988
 114.0250012  75.2104997 109.4259988 113.6303849  75.7284723 108.8497959
 114.5410012  73.9634997 110.6479988 114.2060012  73.0834997 110.8199988
 114.7630012  74.3084997 111.5129988 114.5251783  73.8897500 110.7884208
 132.0890012  74.7724997 113.6289988 132.0680012  74.9574997 114.5679988
 132.7800012  75.3414997 113.2879988 132.1794618  74.8746606 113.7113864
 131.6530012  74.3404997 116.5509988 131.1650012  73.6044997 116.1789988
 132.2020012  73.9464997 117.2289988 131.6604820  74.1865889 116.5917813
 130.1030012  70.1294997 121.1889988 129.2370012  70.0244997 121.5829988
 130.4800012  70.8884997 121.6349988 130.0353308  70.2176900 121.3032393
 131.4040012  68.3864997 106.7029988 132.2540012  68.8074997 106.8299988
 131.4100012  67.6464997 107.3099988 131.5211372  68.3440803 106.8024344
 131.7990012  66.4394997 108.5259988 131.0720012  65.9604997 108.9239988
 132.3800012  66.6454997 109.2589988 131.7780473  66.4018103 108.6794528
 131.5580012  69.2244997 113.4739988 132.3910012  68.8464997 113.1939988
 131.6700012  70.1674997 113.3549988 131.6872647  69.3002218 113.4195487
 130.0440012  72.1024997 115.7809988 129.3970012  72.4274997 116.4069988
 129.5270012  71.6624997 115.1069988 129.8854029  72.0875004 115.7755827
 129.5850012  64.9604997 109.0889988 129.4350012  64.0154997 109.0689988
 129.2320012  65.2414997 109.9329988 129.5167448  64.8691481 109.2003705
 114.6210012  67.0384997 113.0999988 114.8050012  66.9564997 112.1639988
 115.4700012  66.9144997 113.5229988 114.7610151  67.0105073 113.0291451
 130.4420012  66.9304997 118.7279988 131.0250012  66.1964997 118.9199988
 131.0060012  67.7024997 118.7749988 130.5979769  66.9344227 118.7606159
 131.9380012  64.8334997 119.4129988 131.0750012  64.4544997 119.2469988
 132.5430012  64.0944997 119.3379988 131.9016119  64.6818268 119.3801528
 129.2960012  62.5434997 107.5519988 129.5760012  61.6364997 107.6759988
 130.0550012  62.9774997 107.1629988 129.4369277  62.4780942 107.5163682
 129.9080012  63.1244997 112.9879988 130.8410012  63.3364997 112.9529988
 129.6730012  63.2264997 113.9099988 130.0039244  63.1673100 113.1078892
 129.9370012  63.8614997 115.7639988 129.0940012  64.1294997 116.1299988
 130.3790012  64.6834997 115.5529988 129.8814158  64.0093291 115.7855491
 114.2180012  62.3094997 119.2409988 115.1380012  62.1874997 119.4769988
 113.7690012  61.5594997 119.6299988 114.2831580  62.1913727 119.3259006
 132.2200012  57.8414997 121.1169988 132.5700012  57.1874997 120.5119988
 132.3670012  58.6784997 120.6769988 132.2877887  57.8651548 120.9746858
 129.9090012  59.8064997 107.5999988 130.0920012  59.3574997 108.4259988
 129.3100012  59.2214997 107.1369988 129.8530202  59.6659975 107.6503275
 115.4390012  60.6214997 112.1319988 115.8850012  59.8294997 112.4339988
 115.9060012  61.3374997 112.5619988 115.5630831  60.6100685 112.2314006
 113.7430012  63.6204997 113.2009988 114.2350012  63.3994997 112.4099988
 114.1060012  64.4614997 113.4819988 113.8593126  63.7038357 113.1307531
 131.7400012  59.9504997 119.4659988 130.8220012  60.2214997 119.4309988
 131.8630012  59.4154997 118.6819988 131.6309729  59.9152508 119.3551923
 114.0570012  59.8784997 107.2549988 113.1320012  60.0874997 107.1259988
 114.5110012  60.3624997 106.5649988 113.9917292  59.9725343 107.1440720
 128.8280012  74.8624997 109.2009988 129.4800012  74.5154997 108.5929988
 129.3380012  75.3514997 109.8469988 128.9862637  74.8810597 109.2050236
 114.0210012  58.6164997 115.5989988 113.3560012  58.3704997 116.2429988
 113.5780012  59.2384997 115.0219988 113.8701318  58.6669410 115.6090898
 116.2130012  71.7914997 119.7439988 115.3920012  71.9664997 119.2829988
 115.9600012  71.7184997 120.6639988 116.0665585  71.8055544 119.8053561
 119.1670012  72.7664997 116.0019988 118.7420012  73.5754997 115.7199988
 120.0710012  72.8514997 115.6999988 119.2309975  72.8889300 115.9224816
 123.4780012  74.1654997 118.9619988 123.6630012  73.8314997 119.8399988
 124.3240012  74.4744997 118.6399988 123.6177539  74.1616047 119.0385605
 125.8230012  75.4514997 118.2059988 126.5000012  74.8184997 117.9659988
 126.1450012  75.8524997 119.0129988 125.9591637  75.4191154 118.2822793
 130.7400012  58.0404997 117.2849988 129.9280012  58.3654997 116.8979988
 130.9730012  57.2804997 116.7519988 130.6602203  57.9822758 117.1598880
 116.5690012  76.0224997 116.0499988 115.8480012  76.4624997 115.5989988
 116.2030012  75.7714997 116.8979988 116.4209651  76.0487242 116.1029640
 119.0360012  75.6224997 115.0799988 118.1710012  75.6944997 115.4839988
 118.9810012  76.1694997 114.2959988 118.9102085  75.7062685 115.0293362
 123.7460012  75.5104997 114.2549988 123.2900012  76.0394997 113.6009988
 123.9090012  76.1134997 114.9799988 123.7056068  75.6644607 114.2634838
 126.0740012  74.3884997 115.1999988 125.1690012  74.5534997 114.9339988
 126.5030012  75.2414997 115.1349988 126.0081324  74.5264339 115.1547976
 128.6780012  75.9584997 115.4949988 128.4960012  76.8744997 115.2849988
 128.8550012  75.5484997 114.6489988 128.6770210  76.0284822 115.3517885
 115.9830012  74.6454997 112.9599988 115.9650012  74.2204997 113.8169988
 116.7880012  74.3274997 112.5509988 116.0893529  74.5443013 113.0220946
 118.1250012  73.3554997 111.6149988 117.9060012  72.4394997 111.7849988
 118.9490012  73.4954997 112.0809988 118.2064420  73.2490520 111.7012774
 120.6620012  73.8254997 112.4639988 120.8750012  72.9374997 112.1769988
 120.7260012  73.7914997 113.4179988 120.6998232  73.6993102 112.5537397
 124.1700012  59.4894997 111.6079988 123.4960012  58.8604997 111.8639988
 124.7340012  59.0054997 111.0049988 124.1539230  59.3378744 111.5615340
 129.3130012  57.5974997 111.7209988 129.9170012  58.1444997 111.2189988
 128.4430012  57.9164997 111.4799988 129.2781208  57.7155137 111.6196886
 131.0400012  58.7354997 110.0539988 131.6520012  58.2214997 109.5269988
 131.4220012  59.6134997 110.0769988 131.1753371  58.7837866 109.9850041
 116.4970012  58.1234997 109.4299988 115.7200012  57.8894997 108.9229988
 117.0270012  57.3264997 109.4389988 116.4622330  57.9836988 109.3617742
 121.0760012  58.0504997 109.2439988 121.9510012  58.4384997 109.2139988
 120.9400012  57.8354997 110.1659988 121.1773695  58.0745184 109.3646440
 126.6330012  58.0804997 110.8929988 126.7090012  58.1754997 109.9429988
 126.3580012  57.1724997 111.0219988 126.6062321  57.9707867 110.7805079
 127.9860012  58.1064997 106.5849988 127.2840012  58.7214997 106.3749988
 127.5420012  57.2684997 106.7159988 127.8296450  58.0775639 106.5739000
 115.2340012  73.8694997 106.1309988 114.5490012  73.8314997 105.4639988
 115.2380012  74.7824997 106.4199988 115.1406998  73.9876733 106.0786771
 117.1940012  59.8374997 103.6759988 117.6860012  59.2074997 103.1489988
 117.8180012  60.1334997 104.3389988 117.3455688  59.7913804 103.6935482
 122.2200012  60.1304997 106.1329988 122.3980012  59.4844997 106.8159988
 122.1670012  60.9644997 106.5999988 122.2371999  60.1548009 106.2895917
 130.8080012  74.6424997 107.2079988 130.6130012  73.8944997 106.6429988
 130.7690012  75.4004997 106.6249988 130.7760380  74.6426099 107.0518384
 116.4550012  58.6374997 118.9479988 116.0890012  57.8724997 119.3899988
 117.3680012  58.6664997 119.2339988 116.5282736  58.5365640 119.0472502
 118.4280012  57.9884997 120.4839988 119.3260012  57.7144997 120.2989988
 118.0410012  57.2454997 120.9479988 118.4986612  57.8505914 120.5213643
 126.8490012  57.3204997 120.6659988 126.9260012  56.8944997 121.5199988
 127.7430012  57.3344997 120.3229988 126.9803428  57.2640879 120.7365310
 130.0250012  73.3934997 119.3579988 129.2430012  73.2074997 118.8379988
 129.9530012  74.3224997 119.5759988 129.9082274  73.4936643 119.3163018
 144.4310012  67.2794997 109.3889988 144.5200012  68.2234997 109.2569988
 143.7930012  67.0044997 108.7309988 144.3569081  67.3714830 109.2819614
 143.3640012  66.5344997 112.8079988 143.3260012  65.8884997 113.5129988
 143.0420012  66.0684997 112.0369988 143.3152333  66.3829408 112.8002978
 135.7330012  66.1494997 114.4009988 135.7740012  65.5234997 115.1239988
 136.4360012  66.7734997 114.5829988 135.8336363  66.1481196 114.5246044
 136.6560012  70.5994997 112.9359988 136.2870012  69.7974997 112.5659988
 137.5970012  70.4304997 112.9819988 136.7327289  70.4670153 112.8916316
 133.2660012  64.2594997 108.3289988 132.8190012  65.1054997 108.3099988
 132.7050012  63.6794997 107.8129988 133.1289900  64.2969916 108.2566801
 133.9770012  66.4214997 110.4539988 134.1900012  65.6514997 110.9819988
 134.7150012  66.5104997 109.8509988 134.1059044  66.3281968 110.4447123
 144.1820012  74.5784997 111.3209988 144.8020012  73.9014997 111.0479988
 143.9740012  74.3604997 112.2299988 144.2386726  74.4564800 111.4064812
 141.7540012  68.9674997 113.2139988 142.0580012  68.2814997 112.6189988
 142.4750012  69.0854997 113.8319988 141.8930671  68.8896305 113.2161816
 144.8950012  63.3614997 113.5409988 145.0370012  62.4154997 113.5619988
 144.7880012  63.5684997 112.6129988 144.8999919  63.2598246 113.4183408
 138.0490012  61.4624997 110.8139988 138.0930012  62.3224997 110.3949988
 137.5920012  60.9104997 110.1799988 137.9932240  61.5054422 110.6709864
 134.6700012  63.8594997 111.5759988 135.3230012  63.3094997 112.0079988
 134.6940012  63.5854997 110.6589988 134.7626683  63.7471466 111.5112123
 139.8260012  65.4094997 110.7909988 140.4420012  64.8834997 111.3009988
 139.2400012  64.7694997 110.3879988 139.8310810  65.2509208 110.8063173
 136.8600012  60.3804997 114.8879988 136.6410012  60.9104997 114.1219988
 136.1920012  60.6074997 115.5349988 136.7397600  60.4836906 114.8706379
 144.2290012  69.8804997 108.4319988 143.9330012  69.5584997 107.5809988
 143.9040012  70.7804997 108.4729988 144.1446371  69.9580215 108.3211801
 139.4290012  68.0564997 115.1749988 138.6890012  68.6544997 115.2789988
 140.1430012  68.6104997 114.8599988 139.4242237  68.2132831 115.1466465
 136.4530012  62.2724997 112.8399988 137.0670012  62.9054997 113.2129988
 136.9650012  61.8004997 112.1839988 136.6061981  62.2952267 112.8022908
 137.8360012  70.0204997 115.9619988 137.8310012  70.9004997 115.5839988
 136.9830012  69.9374997 116.3869988 137.7199464  70.1296117 115.9677907
 133.9570012  69.6914997 106.7439988 133.6850012  69.9204997 105.8559988
 134.0030012  70.5294997 107.2049988 133.9259482  69.8361318 106.6846273
 140.8860012  57.6864997 112.3399988 140.7690012  56.7374997 112.2859988
 140.0310012  58.0184997 112.6139988 140.7544212  57.6015571 112.3696497
 143.1530012  66.5234997 106.8409988 142.4410012  67.0584997 106.4889988
 143.8440012  66.5794997 106.1809988 143.1490132  66.6042543 106.7036289
 138.2040012  67.3634997 109.6749988 137.8730012  66.9934997 108.8569988
 138.7920012  66.6934997 110.0219988 138.2381873  67.2221156 109.6098102
 139.5700012  70.7914997 112.3559988 139.4760012  70.2134997 111.5999988
 140.3000012  70.4204997 112.8529988 139.6557386  70.6621663 112.3195342
 138.5700012  66.1324997 113.3089988 139.1360012  66.2534997 112.5459988
 138.8890012  66.7694997 113.9469988 138.6905474  66.2352219 113.2909862
 144.8790012  71.6354997 114.0429988 144.6390012  72.2974997 114.6909988
 144.6810012  70.8014997 114.4679988 144.8193808  71.6133134 114.1891524
 139.4500012  70.5314997 118.0259988 139.1390012  71.3134997 118.4809988
 138.8000012  70.3784997 117.3399988 139.3195558  70.6179105 117.9955871
 136.3700012  66.7294997 117.2539988 136.4410012  67.3804997 117.9529988
 135.4800012  66.8324997 116.9189988 136.2593005  66.8325427 117.3043495
 143.1560012  72.6324997 108.9129988 143.6300012  72.9274997 109.6899988
 142.5930012  73.3704997 108.6799988 143.1448184  72.7727247 108.9879628
 137.6900012  72.6034997 118.7889988 137.6970012  72.4674997 117.8419988
 136.7740012  72.4854997 119.0409988 137.5671714  72.5689430 118.6934666
 137.1940012  66.4334997 107.2639988 136.9020012  67.2014997 106.7739988
 136.5200012  65.7734997 107.1019988 137.0628111  66.4495587 107.1748978
 133.2870012  68.7964997 116.0789988 132.7860012  68.7684997 115.2639988
 133.2920012  67.8904997 116.3889988 133.2190944  68.6702396 116.0093226
 133.0370012  71.5764997 112.9629988 133.9830012  71.4324997 112.9439988
 132.9250012  72.3604997 113.4999988 133.1512727  71.6628046 113.0330072
 142.2140012  71.8164997 117.5219988 142.3010012  72.6424997 117.9969988
 141.3500012  71.4864997 117.7709988 142.1091964  71.8849878 117.6206549
 142.6280012  75.5884997 107.3279988 142.5530012  75.4674997 106.3809988
 142.6610012  76.5384997 107.4459988 142.6222068  75.7002646 107.2144967
 136.2810012  74.3774997 109.1089988 136.4340012  74.0294997 109.9869988
 135.4310012  74.0214997 108.8539988 136.1869166  74.2816216 109.1948079
 135.5360012  70.1194997 117.1229988 135.7520012  69.7584997 117.9819988
 134.6810012  69.7454997 116.9129988 135.4499292  70.0194111 117.2123386
 138.1550012  58.5894997 113.1179988 137.2930012  58.5024997 112.7099988
 138.1320012  59.4454997 113.5459988 138.0340409  58.6932883 113.1200589
 142.8180012  58.3114997 116.4929988 143.2380012  57.8964997 117.2459988
 141.8850012  58.1334997 116.6099988 142.7493644  58.2305900 116.6119539
 138.2460012  63.5554997 114.2129988 137.6040012  63.5144997 114.9219988
 138.2830012  64.4814997 113.9749988 138.1630664  63.6751430 114.2779219
 138.2430012  63.7764997 109.1249988 137.3500012  63.4354997 109.0659988
 138.6930012  63.3994997 108.3689988 138.1818130  63.6789631 109.0147702
 143.7780012  64.1924997 107.9419988 143.3690012  65.0074997 107.6509988
 144.4990012  64.0524997 107.3279988 143.8194537  64.2852018 107.8191342
 142.8800012  64.3674997 119.4299988 142.3180012  63.6634997 119.7509988
 143.7070012  64.2474997 119.8979988 142.9147095  64.2547883 119.5372330
 144.7830012  63.6384997 110.7559988 144.5880012  64.2434997 110.0409988
 144.9640012  62.8044997 110.3219988 144.7807614  63.6086300 110.5994405
 135.9960012  63.8754997 116.0799988 135.9580012  64.2754997 116.9489988
 135.5050012  63.0584997 116.1709988 135.9244684  63.8198069 116.2111059
 139.3620012  61.2494997 102.8789988 138.9310012  60.8044997 103.6089988
 138.6440012  61.6214997 102.3669988 139.2059438  61.2388940 102.9096799
 132.6040012  60.9914997 109.9309988 133.2350012  60.9624997 110.6499988
 133.0530012  60.5664997 109.1999988 132.7510918  60.9300836 109.9306441
 133.8780012  61.7374997 105.3549988 134.3520012  62.3284997 104.7699988
 133.1610012  62.2684997 105.7019988 133.8459341  61.8900867 105.3218836
 144.0470012  65.2764997 115.4269988 144.3700012  64.6454997 114.7839988
 143.6070012  64.7414997 116.0879988 144.0317484  65.1178387 115.4283198
 140.8240012  61.2034997 110.2109988 139.9130012  61.2604997 110.4999988
 141.3300012  61.1434997 111.0219988 140.7676899  61.2031941 110.3601184
 135.6530012  62.8324997 109.0379988 134.7630012  62.9324997 108.6979988
 135.9490012  61.9904997 108.6919988 135.5712823  62.7323545 108.9447213
 139.3060012  62.8324997 106.6949988 140.2370012  62.9614997 106.8729988
 139.0910012  63.5024997 106.0449988 139.4044247  62.9406565 106.6315747
 137.9800012  64.0274997 104.2609988 137.4370012  63.6474997 103.5699988
 138.8130012  64.2214997 103.8329988 138.0183631  64.0017125 104.1084501
 136.1150012  68.5844997 119.3599988 136.8470012  68.8384997 119.9219988
 135.3350012  68.7884997 119.8759988 136.1097073  68.6468160 119.5066151
 142.1440012  63.9914997 112.0979988 142.7090012  63.4444997 111.5509988
 141.9970012  63.4694997 112.8869988 142.2013380  63.8462259 112.1298695
 137.1460012  60.1274997 108.5169988 136.8290012  59.2254997 108.4809988
 137.9280012  60.1294997 107.9639988 137.2082408  60.0042474 108.4373569
 140.7710012  62.3794997 114.5119988 139.9350012  62.8334997 114.6229988
 141.2950012  62.6554997 115.2639988 140.7275416  62.4788660 114.6288119
 141.3150012  68.5924997 106.1969988 140.5700012  68.0854997 105.8749988
 141.1810012  68.6414997 107.1439988 141.1948776  68.5296940 106.2808647
 142.8340012  68.7764997 117.4339988 142.4890012  68.3954997 118.2409988
 142.6340012  69.7104997 117.5049988 142.7597527  68.8505135 117.5540689
 136.4400012  67.8874997 111.9669988 137.1850012  67.8854997 111.3659988
 136.5180012  67.0644997 112.4479988 136.5524995  67.7758887 111.9498282
 133.4480012  66.3484997 117.2819988 133.6710012  65.9304997 118.1139988
 132.8460012  65.7354997 116.8589988 133.3971759  66.2084668 117.3387022
 140.4640012  65.8654997 119.4949988 140.1680012  65.6994997 118.5999988
 141.3960012  65.6454997 119.4839988 140.5494166  65.8130640 119.3710536
 138.8150012  71.4054997 109.3709988 139.3420012  72.1784997 109.1709988
 137.9350012  71.6304997 109.0689988 138.7682031  71.5417545 109.3027912
 140.2420012  69.0684997 108.9469988 140.0010012  69.9934997 108.9889988
 139.5010012  68.6094997 109.3439988 140.1089225  69.1330933 109.0063742
 140.7570012  73.2174997 115.2629988 141.1190012  74.0724997 115.0289988
 141.2880012  72.9254997 116.0029988 140.8784473  73.2951060 115.3310855
 138.9250012  74.0904997 108.4929988 137.9750012  74.1954997 108.5439988
 139.2770012  74.9104997 108.8369988 138.8424195  74.2158800 108.5465502
 144.3010012  69.3164997 114.9629988 143.8750012  69.0894997 115.7899988
 144.8810012  68.5784997 114.7809988 144.3211868  69.1855299 115.0515830
 135.0820012  61.1014997 116.8399988 134.1890012  61.4404997 116.7719988
 134.9830012  60.2464997 117.2579988 134.9464164  61.0322588 116.8872235
 134.7330012  72.9064997 115.2749988 134.9500012  71.9744997 115.2439988
 134.9790012  73.1804997 116.1579988 134.7959549  72.8160636 115.3901763
 135.9850012  68.1804997 105.4509988 135.2990012  68.5324997 106.0179988
 136.5070012  68.9434997 105.2039988 135.9616852  68.3318578 105.4952118
 143.8160012  60.8424997 115.7299988 144.5150012  60.9164997 116.3799988
 143.4350012  59.9784997 115.8839988 143.8601767  60.7357624 115.8398322
 144.6010012  60.4944997 106.8269988 144.8210012  60.9664997 106.0239988
 145.1590012  60.8894997 107.4969988 144.7064968  60.6124285 106.8077331
 141.8010012  62.2224997 107.6619988 142.6130012  62.7274997 107.7079988
 141.5560012  62.0774997 108.5759988 141.8790520  62.2720375 107.7918517
 142.3360012  63.2084997 116.8459988 142.4550012  63.7824997 117.6039988
 142.9920012  62.5204997 116.9609988 142.4409025  63.1939858 116.9651321
 142.6840012  59.3034997 108.5999988 142.3380012  59.9214997 109.2439988
 143.3430012  59.8044997 108.1179988 142.7256968  59.4556278 108.6229383
 139.6080012  73.6694997 105.6709988 139.7680012  74.4684997 105.1709988
 139.4100012  73.9754997 106.5559988 139.6031637  73.8204020 105.7221144
 136.6010012  70.7944997 104.3479988 137.1930012  71.4934997 104.6239988
 137.0600012  70.3614997 103.6279988 136.7441142  70.8317049 104.2884830
 135.7250012  58.2404997 112.1369988 135.4960012  58.2994997 111.2089988
 135.2820012  57.4484997 112.4429988 135.6338530  58.1415753 112.0514786
 134.6550012  72.1804997 108.2969988 133.8230012  72.6534997 108.3239988
 135.2010012  72.6904997 107.6989988 134.6150352  72.3141332 108.2198463
 133.9430012  74.7934997 119.6269988 134.4840012  74.5764997 120.3869988
 133.4620012  73.9874997 119.4369988 133.9519951  74.6549270 119.7052576
 138.5410012  73.7124997 121.2469988 139.3080012  73.2534997 121.5879988
 138.5190012  73.4864997 120.3179988 138.6431275  73.6190186 121.1680101
 133.8500012  68.6034997 120.5809988 133.9940012  67.7014997 120.2949988
 133.0780012  68.8894997 120.0939988 133.7652753  68.5186816 120.4759505
 138.1920012  68.9474997 102.7139988 138.2560012  68.1534997 103.2449988
 138.8450012  68.8284997 102.0239988 138.2890241  68.8227148 102.6934317
 140.5060012  68.5734997 120.0139988 140.1770012  68.8444997 119.1569988
 140.6580012  67.6324997 119.9269988 140.4814809  68.4833862 119.8848244
 134.6830012  65.8034997 120.0009988 135.0910012  64.9464997 119.8799988
 134.4230012  65.8184997 120.9219988 134.7037568  65.6880807 120.1089588
 139.3410012  66.9194997 105.0199988 138.8810012  66.4354997 105.7059988
 139.5960012  66.2514997 104.3839988 139.3124902  66.7628731 105.0279334
 138.6300012  64.8124997 117.3759988 138.0120012  65.4874997 117.6559988
 138.9740012  65.1334997 116.5419988 138.5919132  64.9482411 117.3016262
 140.4120012  65.1624997 103.2819988 140.2320012  65.0084997 102.3549988
 141.3620012  65.2704997 103.3269988 140.5157776  65.1560175 103.1611843
 143.6500012  67.2844997 120.6529988 144.6030012  67.3674997 120.6259988
 143.4890012  66.5724997 121.2729988 143.7586426  67.1996746 120.7330579
 138.9690012  62.1674997 118.4579988 139.1190012  61.4384997 117.8559988
 138.9720012  62.9444997 117.8989988 138.9899302  62.1727851 118.3000692
 139.3820012  60.5374997 115.9509988 139.9180012  60.9884997 115.2989988
 138.5300012  60.4294997 115.5279988 139.3402178  60.5846390 115.8045756
 140.9640012  65.9764997 116.1899988 141.7140012  65.8204997 115.6169988
 140.6250012  66.8284997 115.9149988 141.0208921  66.0702968 116.0743561
 137.4480012  63.3654997 120.3699988 136.6810012  62.8334997 120.1589988
 138.1270012  63.0554997 119.7699988 137.4347877  63.2508300 120.2600716
 140.1880012  57.9934997 116.3819988 140.0890012  58.9404997 116.2769988
 139.4450012  57.6214997 115.9059988 140.0741184  58.0725863 116.3033621
 141.4520012  62.3154997 119.9459988 141.2160012  62.0954997 120.8469988
 140.6680012  62.1084997 119.4359988 141.3138504  62.2574586 120.0003431
 144.1670012  61.4424997 119.0209988 143.2200012  61.4744997 119.1539988
 144.4800012  60.8174997 119.6749988 144.0796707  61.3623998 119.1276060
 135.6280012  61.2864997 120.0739988 135.8400012  60.5794997 119.4639988
 135.5170012  60.8484997 120.9179988 135.6419721  61.1307084 120.1046843
 140.4090012  57.2874997 119.0529988 141.1210012  56.6474997 119.0389988
 140.3080012  57.5544997 118.1399988 140.4928066  57.2360079 118.9275677
 140.7630012  58.9704997 121.1069988 140.6310012  58.4944997 120.2869988
 140.1640012  59.7144997 121.0519988 140.6639071  59.0059618 120.9872886
 132.5270012  75.8824997 108.8439988 131.8800012  75.4204997 108.3109988
 132.8810012  75.2104997 109.4259988 132.4863849  75.7284723 108.8497959
 133.3970012  73.9634997 110.6479988 133.0620012  73.0834997 110.8199988
 133.6190012  74.3084997 111.5129988 133.3811783  73.8897500 110.7884208
 133.4770012  67.0384997 113.0999988 133.6610012  66.9564997 112.1639988
 134.3260012  66.9144997 113.5229988 133.6170151  67.0105073 113.0291451
 133.0740012  62.3094997 119.2409988 133.9940012  62.1874997 119.4769988
 132.6250012  61.5594997 119.6299988 133.1391580  62.1913727 119.3259006
 134.2950012  60.6214997 112.1319988 134.7410012  59.8294997 112.4339988
 134.7620012  61.3374997 112.5619988 134.4190831  60.6100685 112.2314006
 132.5990012  63.6204997 113.2009988 133.0910012  63.3994997 112.4099988
 132.9620012  64.4614997 113.4819988 132.7153126  63.7038357 113.1307531
 132.9130012  59.8784997 107.2549988 131.9880012  60.0874997 107.1259988
 133.3670012  60.3624997 106.5649988 132.8477292  59.9725343 107.1440720
 132.8770012  58.6164997 115.5989988 132.2120012  58.3704997 116.2429988
 132.4340012  59.2384997 115.0219988 132.7261318  58.6669410 115.6090898
 135.0690012  71.7914997 119.7439988 134.2480012  71.9664997 119.2829988
 134.8160012  71.7184997 120.6639988 134.9225585  71.8055544 119.8053561
 138.0230012  72.7664997 116.0019988 137.5980012  73.5754997 115.7199988
 138.9270012  72.8514997 115.6999988 138.0869975  72.8889300 115.9224816
 142.3340012  74.1654997 118.9619988 142.5190012  73.8314997 119.8399988
 143.1800012  74.4744997 118.6399988 142.4737539  74.1616047 119.0385605
 144.6790012  75.4514997 118.2059988 145.3560012  74.8184997 117.9659988
 145.0010012  75.8524997 119.0129988 144.8151637  75.4191154 118.2822793
 135.4250012  76.0224997 116.0499988 134.7040012  76.4624997 115.5989988
 135.0590012  75.7714997 116.8979988 135.2769651  76.0487242 116.1029640
 137.8920012  75.6224997 115.0799988 137.0270012  75.6944997 115.4839988
 137.8370012  76.1694997 114.2959988 137.7662085  75.7062685 115.0293362
 142.6020012  75.5104997 114.2549988 142.1460012  76.0394997 113.6009988
 142.7650012  76.1134997 114.9799988 142.5616068  75.6644607 114.2634838
 134.8390012  74.6454997 112.9599988 134.8210012  74.2204997 113.8169988
 135.6440012  74.3274997 112.5509988 134.9453529  74.5443013 113.0220946
 136.9810012  73.3554997 111.6149988 136.7620012  72.4394997 111.7849988
 137.8050012  73.4954997 112.0809988 137.0624420  73.2490520 111.7012774
 139.5180012  73.8254997 112.4639988 139.7310012  72.9374997 112.1769988
 139.5820012  73.7914997 113.4179988 139.5558232  73.6993102 112.5537397
 143.0260012  59.4894997 111.6079988 142.3520012  58.8604997 111.8639988
 143.5900012  59.0054997 111.0049988 143.0099230  59.3378744 111.5615340
 135.3530012  58.1234997 109.4299988 134.5760012  57.8894997 108.9229988
 135.8830012  57.3264997 109.4389988 135.3182330  57.9836988 109.3617742
 139.9320012  58.0504997 109.2439988 140.8070012  58.4384997 109.2139988
 139.7960012  57.8354997 110.1659988 140.0333695  58.0745184 109.3646440
 141.0760012  60.1304997 106.1329988 141.2540012  59.4844997 106.8159988
 141.0230012  60.9644997 106.5999988 141.0931999  60.1548009 106.2895917
 142.9550012  75.0794997 104.5289988 143.8210012  75.4454997 104.3509988
 142.7080012  74.6394997 103.7149988 143.0402392  75.0701756 104.3946289
 135.3110012  58.6374997 118.9479988 134.9450012  57.8724997 119.3899988
 136.2240012  58.6664997 119.2339988 135.3842736  58.5365640 119.0472502
 137.2840012  57.9884997 120.4839988 138.1820012  57.7144997 120.2989988
 136.8970012  57.2454997 120.9479988 137.3546612  57.8505914 120.5213643
  12.4390012  86.1354997 109.3889988  12.5280012  87.0794997 109.2569988
  11.8010012  85.8604997 108.7309988  12.3649081  86.2274830 109.2819614
  11.3720012  85.3904997 112.8079988  11.3340012  84.7444997 113.5129988
  11.0500012  84.9244997 112.0369988  11.3232333  85.2389408 112.8002978
   3.7410012  85.0054997 114.4009988   3.7820012  84.3794997 115.1239988
   4.4440012  85.6294997 114.5829988   3.8416363  85.0041196 114.5246044
  15.0780012  88.3294997 111.1089988  14.6380012  87.6094997 111.5599988
  15.0650012  89.0504997 111.7389988  15.0160226  88.3283731 111.2558494
   4.6640012  89.4554997 112.9359988   4.2950012  88.6534997 112.5659988
   5.6050012  89.2864997 112.9819988   4.7407289  89.3230153 112.8916316
   1.2740012  83.1154997 108.3289988   0.8270012  83.9614997 108.3099988
   0.7130012  82.5354997 107.8129988   1.1369900  83.1529916 108.2566801
   1.9850012  85.2774997 110.4539988   2.1980012  84.5074997 110.9819988
   2.7230012  85.3664997 109.8509988   2.1139044  85.1841968 110.4447123
  12.1900012  93.4344997 111.3209988  12.8100012  92.7574997 111.0479988
  11.9820012  93.2164997 112.2299988  12.2466726  93.3124800 111.4064812
   9.7620012  87.8234997 113.2139988  10.0660012  87.1374997 112.6189988
  10.4830012  87.9414997 113.8319988   9.9010671  87.7456305 113.2161816
  18.4250012  79.4244997 114.0749988  18.4740012  80.0344997 114.8099988
  18.8500012  79.8854997 113.3519988  18.4891746  79.5703796 114.0779175
  12.9030012  82.2174997 113.5409988  13.0450012  81.2714997 113.5619988
  12.7960012  82.4244997 112.6129988  12.9079919  82.1158246 113.4183408
   6.0570012  80.3184997 110.8139988   6.1010012  81.1784997 110.3949988
   5.6000012  79.7664997 110.1799988   6.0012240  80.3614422 110.6709864
  13.7800012  80.4494997 109.2149988  14.4260012  80.1204997 109.8389988
  14.2900012  80.9674997 108.5919988  13.9374299  80.4744450 109.2162731
   2.6780012  82.7154997 111.5759988   3.3310012  82.1654997 112.0079988
   2.7020012  82.4414997 110.6589988   2.7706683  82.6031466 111.5112123
   7.8340012  84.2654997 110.7909988   8.4500012  83.7394997 111.3009988
   7.2480012  83.6254997 110.3879988   7.8390810  84.1069208 110.8063173
  18.8160012  80.9024997 116.3099988  18.1280012  81.5604997 116.2149988
  18.8320012  80.7054997 117.2469988  18.7239540  80.9659819 116.4235990
   4.8680012  79.2364997 114.8879988   4.6490012  79.7664997 114.1219988
   4.2000012  79.4634997 115.5349988   4.7477600  79.3396906 114.8706379
  12.2370012  88.7364997 108.4319988  11.9410012  88.4144997 107.5809988
  11.9120012  89.6364997 108.4729988  12.1526371  88.8140215 108.3211801
   7.4370012  86.9124997 115.1749988   6.6970012  87.5104997 115.2789988
   8.1510012  87.4664997 114.8599988   7.4322237  87.0692831 115.1466465
  15.5440012  79.7404997 111.1949988  15.3280012  78.9744997 111.7279988
  16.1990012  80.2124997 111.7079988  15.6030632  79.6995889 111.3372861
   4.4610012  81.1284997 112.8399988   5.0750012  81.7614997 113.2129988
   4.9730012  80.6564997 112.1839988   4.6141981  81.1512267 112.8022908
   5.8440012  88.8764997 115.9619988   5.8390012  89.7564997 115.5839988
   4.9910012  88.7934997 116.3869988   5.7279464  88.9856117 115.9677907
   1.9650012  88.5474997 106.7439988   1.6930012  88.7764997 105.8559988
   2.0110012  89.3854997 107.2049988   1.9339482  88.6921318 106.6846273
  15.5900012  90.1694997 113.4569988  14.6490012  90.2274997 113.6189988
  15.8670012  91.0754997 113.3199988  15.4984679  90.2999443 113.4606815
  15.8910012  78.4554997 114.8749988  15.1550012  79.0664997 114.8369988
  16.5740012  78.8704997 114.3479988  15.8826541  78.5951374 114.7985832
   8.8940012  76.5424997 112.3399988   8.7770012  75.5934997 112.2859988
   8.0390012  76.8744997 112.6139988   8.7624212  76.4575571 112.3696497
  13.8420012  91.9504997 110.0819988  14.2680012  91.2434997 109.5969988
  14.1590012  92.7514997 109.6659988  13.9431683  91.9621017 109.9593680
  15.0020012  89.8514997 108.5909988  14.7440012  89.1614997 107.9799988
  15.0730012  89.4084997 109.4369988  14.9762856  89.6972124 108.6216885
  16.6880012  88.4174997 117.0679988  16.8280012  87.8264997 116.3289988
  16.8550012  89.2904997 116.7119988  16.7297411  88.4545428 116.9186894
  11.1610012  85.3794997 106.8409988  10.4490012  85.9144997 106.4889988
  11.8520012  85.4354997 106.1809988  11.1570132  85.4602543 106.7036289
  18.5300012  84.7574997 115.1339988  17.8770012  85.4524997 115.2239988
  18.9950012  84.9674997 114.3249988  18.5035274  84.8810643 115.0368462
  14.5660012  85.5894997 107.7929988  13.8340012  85.8174997 108.3659988
  15.0140012  84.8754997 108.2469988  14.5262725  85.5242145 107.9328816
  14.4640012  83.7634997 116.8599988  14.5440012  84.5264997 117.4319988
  13.8620012  84.0424997 116.1699988  14.3935756  83.9057134 116.8450589
   6.2120012  86.2194997 109.6749988   5.8810012  85.8494997 108.8569988
   6.8000012  85.5494997 110.0219988   6.2461873  86.0781156 109.6098102
   7.5780012  89.6474997 112.3559988   7.4840012  89.0694997 111.5999988
   8.3080012  89.2764997 112.8529988   7.6637387  89.5181663 112.3195342
   6.5780012  84.9884997 113.3089988   7.1440012  85.1094997 112.5459988
   6.8970012  85.6254997 113.9469988   6.6985474  85.0912219 113.2909862
  12.8870012  90.4914997 114.0429988  12.6470012  91.1534997 114.6909988
  12.6890012  89.6574997 114.4679988  12.8273808  90.4693134 114.1891524
   7.4580012  89.3874997 118.0259988   7.1470012  90.1694997 118.4809988
   6.8080012  89.2344997 117.3399988   7.3275558  89.4739105 117.9955871
  13.4370012  84.7514997 105.4779988  14.0170012  84.9014997 106.2249988
  13.8510012  85.2224997 104.7539988  13.5722997  84.8356578 105.4824058
   4.3780012  85.5854997 117.2539988   4.4490012  86.2364997 117.9529988
   3.4880012  85.6884997 116.9189988   4.2673005  85.6885427 117.3043495
  11.1640012  91.4884997 108.9129988  11.6380012  91.7834997 109.6899988
  10.6010012  92.2264997 108.6799988  11.1528184  91.6287247 108.9879628
   5.6980012  91.4594997 118.7889988   5.7050012  91.3234997 117.8419988
   4.7820012  91.3414997 119.0409988   5.5751714  91.4249430 118.6934666
   5.2020012  85.2894997 107.2639988   4.9100012  86.0574997 106.7739988
   4.5280012  84.6294997 107.1019988   5.0708111  85.3055587 107.1748978
  18.3250012  90.8674997 103.6669988  18.3990012  91.8064997 103.8379988
  19.2310012  90.5624997 103.6109988  18.4575100  90.9546722 103.6828119
   1.2950012  87.6524997 116.0789988   0.7940012  87.6244997 115.2639988
   1.3000012  86.7464997 116.3889988   1.2270944  87.5262396 116.0093226
   1.0450012  90.4324997 112.9629988   1.9910012  90.2884997 112.9439988
   0.9330012  91.2164997 113.4999988   1.1592727  90.5188046 113.0330072
  19.2430012  91.0984997 118.6459988  19.1940012  90.1434997 118.6089988
  18.4160012  91.3664997 119.0469988  19.1244940  91.0038998 118.6951375
  10.2220012  90.6724997 117.5219988  10.3090012  91.4984997 117.9969988
   9.3580012  90.3424997 117.7709988  10.1171964  90.7409878 117.6206549
  10.6360012  94.4444997 107.3279988  10.5610012  94.3234997 106.3809988
  10.6690012  95.3944997 107.4459988  10.6302068  94.5562646 107.2144967
   4.2890012  93.2334997 109.1089988   4.4420012  92.8854997 109.9869988
   3.4390012  92.8774997 108.8539988   4.1949166  93.1376216 109.1948079
  13.7380012  93.5984997 104.3299988  14.1130012  92.8544997 103.8589988
  13.7420012  93.3284997 105.2489988  13.7899125  93.4600986 104.3896483
  13.4070012  93.5244997 107.0789988  12.4710012  93.6244997 107.2579988
  13.6870012  92.8154997 107.6579988  13.3169553  93.4423406 107.1817087
  16.3950012  82.5914997 119.1259988  15.9880012  83.0724997 118.4049988
  16.4360012  81.6864997 118.8179988  16.3448437  82.5349374 118.9856683
   3.5440012  88.9754997 117.1229988   3.7600012  88.6144997 117.9819988
   2.6890012  88.6014997 116.9129988   3.4579292  88.8754111 117.2123386
   6.1630012  77.4454997 113.1179988   5.3010012  77.3584997 112.7099988
   6.1400012  78.3014997 113.5459988   6.0420409  77.5492883 113.1200589
  10.8260012  77.1674997 116.4929988  11.2460012  76.7524997 117.2459988
   9.8930012  76.9894997 116.6099988  10.7573644  77.0865900 116.6119539
  14.1520012  80.9234997 117.3459988  13.6380012  80.7974997 118.1439988
  13.9970012  81.8354997 117.1019988  14.0606852  81.0296132 117.4222158
   6.2540012  82.4114997 114.2129988   5.6120012  82.3704997 114.9219988
   6.2910012  83.3374997 113.9749988   6.1710664  82.5311430 114.2779219
   6.2510012  82.6324997 109.1249988   5.3580012  82.2914997 109.0659988
   6.7010012  82.2554997 108.3689988   6.1898130  82.5349631 109.0147702
  11.7860012  83.0484997 107.9419988  11.3770012  83.8634997 107.6509988
  12.5070012  82.9084997 107.3279988  11.8274537  83.1412018 107.8191342
  10.8880012  83.2234997 119.4299988  10.3260012  82.5194997 119.7509988
  11.7150012  83.1034997 119.8979988  10.9227095  83.1107883 119.5372330
  12.7910012  82.4944997 110.7559988  12.5960012  83.0994997 110.0409988
  12.9720012  81.6604997 110.3219988  12.7887614  82.4646300 110.5994405
   4.0040012  82.7314997 116.0799988   3.9660012  83.1314997 116.9489988
   3.5130012  81.9144997 116.1709988   3.9324684  82.6758069 116.2111059
   0.6120012  79.8474997 109.9309988   1.2430012  79.8184997 110.6499988
   1.0610012  79.4224997 109.1999988   0.7590918  79.7860836 109.9306441
   1.8860012  80.5934997 105.3549988   2.3600012  81.1844997 104.7699988
   1.1690012  81.1244997 105.7019988   1.8539341  80.7460867 105.3218836
  12.0550012  84.1324997 115.4269988  12.3780012  83.5014997 114.7839988
  11.6150012  83.5974997 116.0879988  12.0397484  83.9738387 115.4283198
   8.8320012  80.0594997 110.2109988   7.9210012  80.1164997 110.4999988
   9.3380012  79.9994997 111.0219988   8.7756899  80.0591941 110.3601184
   3.6610012  81.6884997 109.0379988   2.7710012  81.7884997 108.6979988
   3.9570012  80.8464997 108.6919988   3.5792823  81.5883545 108.9447213
   7.3140012  81.6884997 106.6949988   8.2450012  81.8174997 106.8729988
   7.0990012  82.3584997 106.0449988   7.4124247  81.7966565 106.6315747
  13.2370012  79.2944997 113.4759988  12.5610012  79.4254997 114.1399988
  12.7520012  79.1394997 112.6649988  13.0787146  79.2915157 113.4574469
  16.5250012  94.9664997 119.7519988  16.7250012  95.3904997 118.9179988
  17.1800012  95.3094997 120.3589988  16.6410072  95.0709857 119.7198592
   4.1230012  87.4404997 119.3599988   4.8550012  87.6944997 119.9219988
   3.3430012  87.6444997 119.8759988   4.1177073  87.5028160 119.5066151
  10.1520012  82.8474997 112.0979988  10.7170012  82.3004997 111.5509988
  10.0050012  82.3254997 112.8869988  10.2093380  82.7022259 112.1298695
   5.1540012  78.9834997 108.5169988   4.8370012  78.0814997 108.4809988
   5.9360012  78.9854997 107.9639988   5.2162408  78.8602474 108.4373569
   8.7790012  81.2354997 114.5119988   7.9430012  81.6894997 114.6229988
   9.3030012  81.5114997 115.2639988   8.7355416  81.3348660 114.6288119
   9.3230012  87.4484997 106.1969988   8.5780012  86.9414997 105.8749988
   9.1890012  87.4974997 107.1439988   9.2028776  87.3856940 106.2808647
  16.4730012  86.5814997 114.9839988  17.1150012  87.0384997 114.4399988
  15.6430012  86.6944997 114.5209988  16.4485963  86.6592704 114.8470177
  10.8420012  87.6324997 117.4339988  10.4970012  87.2514997 118.2409988
  10.6420012  88.5664997 117.5049988  10.7677527  87.7065135 117.5540689
  13.9390012  82.1294997 106.0569988  14.8310012  81.9924997 106.3759988
  13.9960012  82.9204997 105.5199988  14.0686504  82.2176052 106.0280818
   4.4480012  86.7434997 111.9669988   5.1930012  86.7414997 111.3659988
   4.5260012  85.9204997 112.4479988   4.5604995  86.6318887 111.9498282
  11.4490012  88.9074997 105.2229988  11.1530012  89.7334997 105.6039988
  10.7460012  88.2874997 105.4189988  11.3134914  88.9368199 105.3016443
   1.4560012  85.2044997 117.2819988   1.6790012  84.7864997 118.1139988
   0.8540012  84.5914997 116.8589988   1.4051759  85.0644668 117.3387022
   8.4720012  84.7214997 119.4949988   8.1760012  84.5554997 118.5999988
   9.4040012  84.5014997 119.4839988   8.5574166  84.6690640 119.3710536
  13.0930012  90.0944997 117.3849988  12.1920012  90.2774997 117.1169988
  13.1270012  90.3534997 118.3049988  12.9743139  90.1545849 117.4728099
  18.8240012  82.3394997 105.7519988  18.2700012  81.9434997 105.0799988
  18.9240012  83.2494997 105.4739988  18.7617059  82.4083586 105.6224401
  18.7870012  88.1394997 118.5889988  17.9360012  88.3774997 118.2219988
  19.3780012  88.1224997 117.8359988  18.7502487  88.1698258 118.4368893
  17.1190012  91.1254997 106.2169988  16.7460012  90.2994997 106.5259988
  17.3970012  90.9424997 105.3189988  17.1055222  90.9877430 106.1379473
  14.2800012  85.9334997 113.2379988  13.3510012  85.7014997 113.2109988
  14.7310012  85.1564997 112.9079988  14.2139216  85.7967238 113.1896917
   6.8230012  90.2614997 109.3709988   7.3500012  91.0344997 109.1709988
   5.9430012  90.4864997 109.0689988   6.7762031  90.3977545 109.3027912
   8.2500012  87.9244997 108.9469988   8.0090012  88.8494997 108.9889988
   7.5090012  87.4654997 109.3439988   8.1169225  87.9890933 109.0063742
   8.7650012  92.0734997 115.2629988   9.1270012  92.9284997 115.0289988
   9.2960012  91.7814997 116.0029988   8.8864473  92.1511060 115.3310855
   6.9330012  92.9464997 108.4929988   5.9830012  93.0514997 108.5439988
   7.2850012  93.7664997 108.8369988   6.8504195  93.0718800 108.5465502
  12.3090012  88.1724997 114.9629988  11.8830012  87.9454997 115.7899988
  12.8890012  87.4344997 114.7809988  12.3291868  88.0415299 115.0515830
  14.9670012  92.7244997 117.4329988  14.3660012  92.1694997 116.9369988
  15.2490012  93.3914997 116.8059988  14.9228804  92.7386625 117.2804849
   3.0900012  79.9574997 116.8399988   2.1970012  80.2964997 116.7719988
   2.9910012  79.1024997 117.2579988   2.9544164  79.8882588 116.8872235
  15.3780012  87.7744997 106.2639988  15.1000012  87.0464997 106.8199988
  16.3050012  87.8934997 106.4689988  15.4653124  87.6908802 106.3678845
   2.7410012  91.7624997 115.2749988   2.9580012  90.8304997 115.2439988
   2.9870012  92.0364997 116.1579988   2.8039549  91.6720636 115.3901763
   7.5400012  89.7834997 104.9399988   7.6860012  89.2634997 105.7299988
   7.5370012  90.6904997 105.2469988   7.5595792  89.8348842 105.0896117
   3.9930012  87.0364997 105.4509988   3.3070012  87.3884997 106.0179988
   4.5150012  87.7994997 105.2039988   3.9696852  87.1878578 105.4952118
  11.8240012  79.6984997 115.7299988  12.5230012  79.7724997 116.3799988
  11.4430012  78.8344997 115.8839988  11.8681767  79.5917624 115.8398322
  12.6090012  79.3504997 106.8269988  12.8290012  79.8224997 106.0239988
  13.1670012  79.7454997 107.4969988  12.7144968  79.4684285 106.8077331
  10.2770012  91.4814997 105.6899988   9.4610012  91.9784997 105.7419988
  10.8070012  91.9564997 105.0499988  10.2369161  91.6137722 105.6105956
   9.8090012  81.0784997 107.6619988  10.6210012  81.5834997 107.7079988
   9.5640012  80.9334997 108.5759988   9.8870520  81.1280375 107.7918517
  10.3440012  82.0644997 116.8459988  10.4630012  82.6384997 117.6039988
  11.0000012  81.3764997 116.9609988  10.4489025  82.0499858 116.9651321
  10.6920012  78.1594997 108.5999988  10.3460012  78.7774997 109.2439988
  11.3510012  78.6604997 108.1179988  10.7336968  78.3116278 108.6229383
   7.6160012  92.5254997 105.6709988   7.7760012  93.3244997 105.1709988
   7.4180012  92.8314997 106.5559988   7.6111637  92.6764020 105.7221144
   6.3500012  79.2224997 105.2869988   6.2670012  80.1114997 105.6339988
   7.2400012  78.9574997 105.5189988   6.4589469  79.3081430 105.3657626
  16.5490012  79.9714997 117.6809988  15.6320012  80.2344997 117.5939988
  16.8840012  79.9684997 116.7849988  16.4688613  80.0070761 117.5478837
  15.1510012  83.7224997 111.7769988  14.3530012  83.3074997 111.4489988
  15.5960012  83.0314997 112.2679988  15.1019885  83.5723543 111.7984889
   4.6090012  89.6504997 104.3479988   5.2010012  90.3494997 104.6239988
   5.0680012  89.2174997 103.6279988   4.7521142  89.6877049 104.2884830
   2.9250012  82.3144997 103.4639988   2.8800012  83.2534997 103.6419988
   2.0370012  82.0784997 103.1939988   2.7988574  82.4111892 103.4518912
  16.2370012  92.9784997 113.3999988  16.0820012  93.6564997 112.7419988
  17.1700012  93.0504997 113.6029988  16.3418657  93.0809546 113.3374360
   3.7330012  77.0964997 112.1369988   3.5040012  77.1554997 111.2089988
   3.2900012  76.3044997 112.4429988   3.6418530  76.9975753 112.0514786
   2.6630012  91.0364997 108.2969988   1.8310012  91.5094997 108.3239988
   3.2090012  91.5464997 107.6989988   2.6230352  91.1701332 108.2198463
   1.9510012  93.6494997 119.6269988   2.4920012  93.4324997 120.3869988
   1.4700012  92.8434997 119.4369988   1.9599951  93.5109270 119.7052576
   6.5490012  92.5684997 121.2469988   7.3160012  92.1094997 121.5879988
   6.5270012  92.3424997 120.3179988   6.6511275  92.4750186 121.1680101
  13.1260012  90.9484997 119.9769988  12.7750012  90.0924997 120.2199988
  13.8520012  91.0914997 120.5839988  13.1760769  90.8505636 120.0923619
  15.2450012  91.8934997 102.8559988  15.5280012  91.0994997 103.3089988
  15.9850012  92.1264997 102.2959988  15.3838006  91.8163376 102.8422715
   1.8580012  87.4594997 120.5809988   2.0020012  86.5574997 120.2949988
   1.0860012  87.7454997 120.0939988   1.7732753  87.3746816 120.4759505
   8.5140012  87.4294997 120.0139988   8.1850012  87.7004997 119.1569988
   8.6660012  86.4884997 119.9269988   8.4894809  87.3393862 119.8848244
  14.2480012  87.3454997 117.3969988  14.9940012  87.9334997 117.2779988
  13.4910012  87.9274997 117.4609988  14.2477820  87.5047143 117.3893590
   2.6910012  84.6594997 120.0009988   3.0990012  83.8024997 119.8799988
   2.4310012  84.6744997 120.9219988   2.7117568  84.5440807 120.1089588
   7.3490012  85.7754997 105.0199988   6.8890012  85.2914997 105.7059988
   7.6040012  85.1074997 104.3839988   7.3204902  85.6188731 105.0279334
   6.6380012  83.6684997 117.3759988   6.0200012  84.3434997 117.6559988
   6.9820012  83.9894997 116.5419988   6.5999132  83.8042411 117.3016262
  11.6580012  86.1404997 120.6529988  12.6110012  86.2234997 120.6259988
  11.4970012  85.4284997 121.2729988  11.7666426  86.0556746 120.7330579
   6.9770012  81.0234997 118.4579988   7.1270012  80.2944997 117.8559988
   6.9800012  81.8004997 117.8989988   6.9979302  81.0287851 118.3000692
   7.3900012  79.3934997 115.9509988   7.9260012  79.8444997 115.2989988
   6.5380012  79.2854997 115.5279988   7.3482178  79.4406390 115.8045756
   8.9720012  84.8324997 116.1899988   9.7220012  84.6764997 115.6169988
   8.6330012  85.6844997 115.9149988   9.0288921  84.9262968 116.0743561
  13.3870012  82.6474997 121.2189988  13.5800012  81.7164997 121.1069988
  14.2450012  83.0724997 121.2079988  13.5292934  82.5776531 121.2022031
  14.7040012  85.4364997 119.2959988  14.4230012  86.1454997 118.7179988
  15.6470012  85.3634997 119.1449988  14.7929291  85.5236711 119.1964967
   5.4560012  82.2214997 120.3699988   4.6890012  81.6894997 120.1589988
   6.1350012  81.9114997 119.7699988   5.4427877  82.1068300 120.2600716
   8.1960012  76.8494997 116.3819988   8.0970012  77.7964997 116.2769988
   7.4530012  76.4774997 115.9059988   8.0821184  76.9285863 116.3033621
   9.4600012  81.1714997 119.9459988   9.2240012  80.9514997 120.8469988
   8.6760012  80.9644997 119.4359988   9.3218504  81.1134586 120.0003431
  12.1750012  80.2984997 119.0209988  11.2280012  80.3304997 119.1539988
  12.4880012  79.6734997 119.6749988  12.0876707  80.2183998 119.1276060
  13.8090012  78.9324997 121.0269988  13.7130012  77.9804997 121.0209988
  13.4880012  79.2014997 121.8869988  13.7524070  78.8384035 121.1425441
   3.6360012  80.1424997 120.0739988   3.8480012  79.4354997 119.4639988
   3.5250012  79.7044997 120.9179988   3.6499721  79.9867084 120.1046843
   8.4170012  76.1434997 119.0529988   9.1290012  75.5034997 119.0389988
   8.3160012  76.4104997 118.1399988   8.5008066  76.0920079 118.9275677
   8.7710012  77.8264997 121.1069988   8.6390012  77.3504997 120.2869988
   8.1720012  78.5704997 121.0519988   8.6719071  77.8619618 120.9872886
   8.3170012  94.7094997 104.2829988   9.2500012  94.8674997 104.4269988
   8.0530012  95.3844997 103.6589988   8.4089888  94.8224510 104.2182842
   0.5350012  94.7384997 108.8439988  -0.1119988  94.2764997 108.3109988
   0.8890012  94.0664997 109.4259988   0.4943849  94.5844723 108.8497959
   1.4050012  92.8194997 110.6479988   1.0700012  91.9394997 110.8199988
   1.6270012  93.1644997 111.5129988   1.3891783  92.7457501 110.7884208
  18.9530012  93.6284997 113.6289988  18.9320012  93.8134997 114.5679988
  19.6440012  94.1974997 113.2879988  19.0434618  93.7306606 113.7113864
  18.5170012  93.1964997 116.5509988  18.0290012  92.4604997 116.1789988
  19.0660012  92.8024997 117.2289988  18.5244820  93.0425889 116.5917813
  16.9670012  88.9854997 121.1889988  16.1010012  88.8804997 121.5829988
  17.3440012  89.7444997 121.6349988  16.8993308  89.0736900 121.3032393
  18.2680012  87.2424997 106.7029988  19.1180012  87.6634997 106.8299988
  18.2740012  86.5024997 107.3099988  18.3851372  87.2000803 106.8024344
  18.6630012  85.2954997 108.5259988  17.9360012  84.8164997 108.9239988
  19.2440012  85.5014997 109.2589988  18.6420473  85.2578103 108.6794528
  18.4220012  88.0804997 113.4739988  19.2550012  87.7024997 113.1939988
  18.5340012  89.0234997 113.3549988  18.5512647  88.1562218 113.4195487
  16.9080012  90.9584997 115.7809988  16.2610012  91.2834997 116.4069988
  16.3910012  90.5184997 115.1069988  16.7494029  90.9435004 115.7755827
  16.4490012  83.8164997 109.0889988  16.2990012  82.8714997 109.0689988
  16.0960012  84.0974997 109.9329988  16.3807448  83.7251481 109.2003705
   1.4850012  85.8944997 113.0999988   1.6690012  85.8124997 112.1639988
   2.3340012  85.7704997 113.5229988   1.6250151  85.8665073 113.0291451
  17.3060012  85.7864997 118.7279988  17.8890012  85.0524997 118.9199988
  17.8700012  86.5584997 118.7749988  17.4619769  85.7904227 118.7606159
  18.8020012  83.6894997 119.4129988  17.9390012  83.3104997 119.2469988
  19.4070012  82.9504997 119.3379988  18.7656119  83.5378268 119.3801528
  16.1600012  81.3994997 107.5519988  16.4400012  80.4924997 107.6759988
  16.9190012  81.8334997 107.1629988  16.3009277  81.3340942 107.5163682
  16.7720012  81.9804997 112.9879988  17.7050012  82.1924997 112.9529988
  16.5370012  82.0824997 113.9099988  16.8679244  82.0233100 113.1078892
  16.8010012  82.7174997 115.7639988  15.9580012  82.9854997 116.1299988
  17.2430012  83.5394997 115.5529988  16.7454158  82.8653291 115.7855491
   1.0820012  81.1654997 119.2409988   2.0020012  81.0434997 119.4769988
   0.6330012  80.4154997 119.6299988   1.1471580  81.0473727 119.3259006
  19.0840012  76.6974997 121.1169988  19.4340012  76.0434997 120.5119988
  19.2310012  77.5344997 120.6769988  19.1517887  76.7211548 120.9746858
  16.7730012  78.6624997 107.5999988  16.9560012  78.2134997 108.4259988
  16.1740012  78.0774997 107.1369988  16.7170202  78.5219975 107.6503275
   2.3030012  79.4774997 112.1319988   2.7490012  78.6854997 112.4339988
   2.7700012  80.1934997 112.5619988   2.4270831  79.4660685 112.2314006
   0.6070012  82.4764997 113.2009988   1.0990012  82.2554997 112.4099988
   0.9700012  83.3174997 113.4819988   0.7233126  82.5598357 113.1307531
  18.6040012  78.8064997 119.4659988  17.6860012  79.0774997 119.4309988
  18.7270012  78.2714997 118.6819988  18.4949730  78.7712508 119.3551923
   0.9210012  78.7344997 107.2549988  -0.0039988  78.9434997 107.1259988
   1.3750012  79.2184997 106.5649988   0.8557292  78.8285343 107.1440720
  15.6920012  93.7184997 109.2009988  16.3440012  93.3714997 108.5929988
  16.2020012  94.2074997 109.8469988  15.8502637  93.7370597 109.2050236
   0.8850012  77.4724997 115.5989988   0.2200012  77.2264997 116.2429988
   0.4420012  78.0944997 115.0219988   0.7341318  77.5229410 115.6090898
   3.0770012  90.6474997 119.7439988   2.2560012  90.8224997 119.2829988
   2.8240012  90.5744997 120.6639988   2.9305585  90.6615544 119.8053561
   6.0310012  91.6224997 116.0019988   5.6060012  92.4314997 115.7199988
   6.9350012  91.7074997 115.6999988   6.0949975  91.7449300 115.9224816
  10.3420012  93.0214997 118.9619988  10.5270012  92.6874997 119.8399988
  11.1880012  93.3304997 118.6399988  10.4817539  93.0176047 119.0385605
  12.6870012  94.3074997 118.2059988  13.3640012  93.6744997 117.9659988
  13.0090012  94.7084997 119.0129988  12.8231637  94.2751154 118.2822793
  17.6040012  76.8964997 117.2849988  16.7920012  77.2214997 116.8979988
  17.8370012  76.1364997 116.7519988  17.5242203  76.8382758 117.1598880
   3.4330012  94.8784997 116.0499988   2.7120012  95.3184997 115.5989988
   3.0670012  94.6274997 116.8979988   3.2849651  94.9047242 116.1029640
   5.9000012  94.4784997 115.0799988   5.0350012  94.5504997 115.4839988
   5.8450012  95.0254997 114.2959988   5.7742085  94.5622685 115.0293362
  10.6100012  94.3664997 114.2549988  10.1540012  94.8954997 113.6009988
  10.7730012  94.9694997 114.9799988  10.5696068  94.5204607 114.2634838
  12.9380012  93.2444997 115.1999988  12.0330012  93.4094997 114.9339988
  13.3670012  94.0974997 115.1349988  12.8721324  93.3824339 115.1547976
  15.5420012  94.8144997 115.4949988  15.3600012  95.7304997 115.2849988
  15.7190012  94.4044997 114.6489988  15.5410210  94.8844822 115.3517885
   2.8470012  93.5014997 112.9599988   2.8290012  93.0764997 113.8169988
   3.6520012  93.1834997 112.5509988   2.9533529  93.4003013 113.0220946
   4.9890012  92.2114997 111.6149988   4.7700012  91.2954997 111.7849988
   5.8130012  92.3514997 112.0809988   5.0704420  92.1050520 111.7012774
   7.5260012  92.6814997 112.4639988   7.7390012  91.7934997 112.1769988
   7.5900012  92.6474997 113.4179988   7.5638232  92.5553102 112.5537397
  11.0340012  78.3454997 111.6079988  10.3600012  77.7164997 111.8639988
  11.5980012  77.8614997 111.0049988  11.0179230  78.1938744 111.5615340
  16.1770012  76.4534997 111.7209988  16.7810012  77.0004997 111.2189988
  15.3070012  76.7724997 111.4799988  16.1421208  76.5715137 111.6196886
  17.9040012  77.5914997 110.0539988  18.5160012  77.0774997 109.5269988
  18.2860012  78.4694997 110.0769988  18.0393371  77.6397866 109.9850041
   3.3610012  76.9794997 109.4299988   2.5840012  76.7454997 108.9229988
   3.8910012  76.1824997 109.4389988   3.3262330  76.8396988 109.3617742
   2.1970012  76.7774997 105.2339988   2.6360012  77.3884997 104.6419988
   1.5640012  77.3154997 105.7079988   2.1714514  76.9339257 105.2170930
   7.9400012  76.9064997 109.2439988   8.8150012  77.2944997 109.2139988
   7.8040012  76.6914997 110.1659988   8.0413695  76.9305184 109.3646440
  13.4970012  76.9364997 110.8929988  13.5730012  77.0314997 109.9429988
  13.2220012  76.0284997 111.0219988  13.4702321  76.8267867 110.7805079
  14.8500012  76.9624997 106.5849988  14.1480012  77.5774997 106.3749988
  14.4060012  76.1244997 106.7159988  14.6936450  76.9335639 106.5739000
   2.0980012  92.7254997 106.1309988   1.4130012  92.6874997 105.4639988
   2.1020012  93.6384997 106.4199988   2.0046998  92.8436733 106.0786771
   9.0840012  78.9864997 106.1329988   9.2620012  78.3404997 106.8159988
   9.0310012  79.8204997 106.5999988   9.1011999  79.0108009 106.2895917
  10.9630012  93.9354997 104.5289988  11.8290012  94.3014997 104.3509988
  10.7160012  93.4954997 103.7149988  11.0482392  93.9261756 104.3946289
  17.6720012  93.4984997 107.2079988  17.4770012  92.7504997 106.6429988
  17.6330012  94.2564997 106.6249988  17.6400380  93.4986099 107.0518384
   3.3190012  77.4934997 118.9479988   2.9530012  76.7284997 119.3899988
   4.2320012  77.5224997 119.2339988   3.3922736  77.3925640 119.0472502
   5.2920012  76.8444997 120.4839988   6.1900012  76.5704997 120.2989988
   4.9050012  76.1014997 120.9479988   5.3626612  76.7065914 120.5213643
  13.7130012  76.1764997 120.6659988  13.7900012  75.7504997 121.5199988
  14.6070012  76.1904997 120.3229988  13.8443428  76.1200879 120.7365310
  16.8890012  92.2494997 119.3579988  16.1070012  92.0634997 118.8379988
  16.8170012  93.1784997 119.5759988  16.7722274  92.3496643 119.3163018
  31.2950012  86.1354997 109.3889988  31.3840012  87.0794997 109.2569988
  30.6570012  85.8604997 108.7309988  31.2209081  86.2274830 109.2819614
  30.2280012  85.3904997 112.8079988  30.1900012  84.7444997 113.5129988
  29.9060012  84.9244997 112.0369988  30.1792333  85.2389408 112.8002978
  22.5970012  85.0054997 114.4009988  22.6380012  84.3794997 115.1239988
  23.3000012  85.6294997 114.5829988  22.6976363  85.0041196 114.5246044
  33.9340012  88.3294997 111.1089988  33.4940012  87.6094997 111.5599988
  33.9210012  89.0504997 111.7389988  33.8720226  88.3283731 111.2558494
  23.5200012  89.4554997 112.9359988  23.1510012  88.6534997 112.5659988
  24.4610012  89.2864997 112.9819988  23.5967289  89.3230153 112.8916316
  20.1300012  83.1154997 108.3289988  19.6830012  83.9614997 108.3099988
  19.5690012  82.5354997 107.8129988  19.9929900  83.1529916 108.2566801
  20.8410012  85.2774997 110.4539988  21.0540012  84.5074997 110.9819988
  21.5790012  85.3664997 109.8509988  20.9699044  85.1841968 110.4447123
  31.0460012  93.4344997 111.3209988  31.6660012  92.7574997 111.0479988
  30.8380012  93.2164997 112.2299988  31.1026726  93.3124800 111.4064812
  28.6180012  87.8234997 113.2139988  28.9220012  87.1374997 112.6189988
  29.3390012  87.9414997 113.8319988  28.7570671  87.7456304 113.2161816
  37.2810012  79.4244997 114.0749988  37.3300012  80.0344997 114.8099988
  37.7060012  79.8854997 113.3519988  37.3451746  79.5703796 114.0779175
  31.7590012  82.2174997 113.5409988  31.9010012  81.2714997 113.5619988
  31.6520012  82.4244997 112.6129988  31.7639919  82.1158246 113.4183408
  24.9130012  80.3184997 110.8139988  24.9570012  81.1784997 110.3949988
  24.4560012  79.7664997 110.1799988  24.8572240  80.3614422 110.6709864
  32.6360012  80.4494997 109.2149988  33.2820012  80.1204997 109.8389988
  33.1460012  80.9674997 108.5919988  32.7934299  80.4744450 109.2162731
  21.5340012  82.7154997 111.5759988  22.1870012  82.1654997 112.0079988
  21.5580012  82.4414997 110.6589988  21.6266683  82.6031466 111.5112123
  26.6900012  84.2654997 110.7909988  27.3060012  83.7394997 111.3009988
  26.1040012  83.6254997 110.3879988  26.6950810  84.1069208 110.8063173
  37.6720012  80.9024997 116.3099988  36.9840012  81.5604997 116.2149988
  37.6880012  80.7054997 117.2469988  37.5799540  80.9659819 116.4235990
  23.7240012  79.2364997 114.8879988  23.5050012  79.7664997 114.1219988
  23.0560012  79.4634997 115.5349988  23.6037600  79.3396906 114.8706379
  31.0930012  88.7364997 108.4319988  30.7970012  88.4144997 107.5809988
  30.7680012  89.6364997 108.4729988  31.0086371  88.8140215 108.3211801
  26.2930012  86.9124997 115.1749988  25.5530012  87.5104997 115.2789988
  27.0070012  87.4664997 114.8599988  26.2882237  87.0692831 115.1466465
  34.4000012  79.7404997 111.1949988  34.1840012  78.9744997 111.7279988
  35.0550012  80.2124997 111.7079988  34.4590632  79.6995889 111.3372861
  23.3170012  81.1284997 112.8399988  23.9310012  81.7614997 113.2129988
  23.8290012  80.6564997 112.1839988  23.4701981  81.1512267 112.8022908
  24.7000012  88.8764997 115.9619988  24.6950012  89.7564997 115.5839988
  23.8470012  88.7934997 116.3869988  24.5839464  88.9856117 115.9677907
  20.8210012  88.5474997 106.7439988  20.5490012  88.7764997 105.8559988
  20.8670012  89.3854997 107.2049988  20.7899482  88.6921318 106.6846273
  34.4460012  90.1694997 113.4569988  33.5050012  90.2274997 113.6189988
  34.7230012  91.0754997 113.3199988  34.3544679  90.2999443 113.4606815
  34.7470012  78.4554997 114.8749988  34.0110012  79.0664997 114.8369988
  35.4300012  78.8704997 114.3479988  34.7386541  78.5951374 114.7985832
  27.7500012  76.5424997 112.3399988  27.6330012  75.5934997 112.2859988
  26.8950012  76.8744997 112.6139988  27.6184212  76.4575571 112.3696497
  32.6980012  91.9504997 110.0819988  33.1240012  91.2434997 109.5969988
  33.0150012  92.7514997 109.6659988  32.7991683  91.9621017 109.9593680
  33.8580012  89.8514997 108.5909988  33.6000012  89.1614997 107.9799988
  33.9290012  89.4084997 109.4369988  33.8322856  89.6972124 108.6216885
  35.5440012  88.4174997 117.0679988  35.6840012  87.8264997 116.3289988
  35.7110012  89.2904997 116.7119988  35.5857411  88.4545428 116.9186894
  30.0170012  85.3794997 106.8409988  29.3050012  85.9144997 106.4889988
  30.7080012  85.4354997 106.1809988  30.0130132  85.4602543 106.7036289
  30.0700012  83.8374997 103.8799988  30.7710012  83.8594997 104.5309988
  30.3730012  83.2094997 103.2229988  30.2068133  83.7557070 103.8803369
  37.3860012  84.7574997 115.1339988  36.7330012  85.4524997 115.2239988
  37.8510012  84.9674997 114.3249988  37.3595274  84.8810643 115.0368462
  33.4220012  85.5894997 107.7929988  32.6900012  85.8174997 108.3659988
  33.8700012  84.8754997 108.2469988  33.3822725  85.5242145 107.9328816
  33.3200012  83.7634997 116.8599988  33.4000012  84.5264997 117.4319988
  32.7180012  84.0424997 116.1699988  33.2495756  83.9057134 116.8450589
  25.0680012  86.2194997 109.6749988  24.7370012  85.8494997 108.8569988
  25.6560012  85.5494997 110.0219988  25.1021873  86.0781156 109.6098102
  26.4340012  89.6474997 112.3559988  26.3400012  89.0694997 111.5999988
  27.1640012  89.2764997 112.8529988  26.5197386  89.5181663 112.3195342
  25.4340012  84.9884997 113.3089988  26.0000012  85.1094997 112.5459988
  25.7530012  85.6254997 113.9469988  25.5545474  85.0912219 113.2909862
  31.7430012  90.4914997 114.0429988  31.5030012  91.1534997 114.6909988
  31.5450012  89.6574997 114.4679988  31.6833808  90.4693134 114.1891524
  26.3140012  89.3874997 118.0259988  26.0030012  90.1694997 118.4809988
  25.6640012  89.2344997 117.3399988  26.1835558  89.4739105 117.9955871
  32.2930012  84.7514997 105.4779988  32.8730012  84.9014997 106.2249988
  32.7070012  85.2224997 104.7539988  32.4282997  84.8356578 105.4824058
  23.2340012  85.5854997 117.2539988  23.3050012  86.2364997 117.9529988
  22.3440012  85.6884997 116.9189988  23.1233005  85.6885427 117.3043495
  30.0200012  91.4884997 108.9129988  30.4940012  91.7834997 109.6899988
  29.4570012  92.2264997 108.6799988  30.0088184  91.6287247 108.9879628
  24.5540012  91.4594997 118.7889988  24.5610012  91.3234997 117.8419988
  23.6380012  91.3414997 119.0409988  24.4311714  91.4249430 118.6934666
  35.9920012  76.5014997 105.2909988  35.0920012  76.6404997 105.5859988
  36.2440012  77.3324997 104.8889988  35.9028702  76.6329074 105.2770205
  24.0580012  85.2894997 107.2639988  23.7660012  86.0574997 106.7739988
  23.3840012  84.6294997 107.1019988  23.9268111  85.3055587 107.1748978
  20.1510012  87.6524997 116.0789988  19.6500012  87.6244997 115.2639988
  20.1560012  86.7464997 116.3889988  20.0830944  87.5262396 116.0093226
  19.9010012  90.4324997 112.9629988  20.8470012  90.2884997 112.9439988
  19.7890012  91.2164997 113.4999988  20.0152727  90.5188046 113.0330072
  38.0990012  91.0984997 118.6459988  38.0500012  90.1434997 118.6089988
  37.2720012  91.3664997 119.0469988  37.9804940  91.0038998 118.6951375
  29.0780012  90.6724997 117.5219988  29.1650012  91.4984997 117.9969988
  28.2140012  90.3424997 117.7709988  28.9731964  90.7409878 117.6206549
  29.4920012  94.4444997 107.3279988  29.4170012  94.3234997 106.3809988
  29.5250012  95.3944997 107.4459988  29.4862068  94.5562646 107.2144967
  23.1450012  93.2334997 109.1089988  23.2980012  92.8854997 109.9869988
  22.2950012  92.8774997 108.8539988  23.0509166  93.1376216 109.1948079
  32.5940012  93.5984997 104.3299988  32.9690012  92.8544997 103.8589988
  32.5980012  93.3284997 105.2489988  32.6459125  93.4600986 104.3896483
  32.2630012  93.5244997 107.0789988  31.3270012  93.6244997 107.2579988
  32.5430012  92.8154997 107.6579988  32.1729553  93.4423406 107.1817087
  35.2510012  82.5914997 119.1259988  34.8440012  83.0724997 118.4049988
  35.2920012  81.6864997 118.8179988  35.2008437  82.5349374 118.9856683
  22.4000012  88.9754997 117.1229988  22.6160012  88.6144997 117.9819988
  21.5450012  88.6014997 116.9129988  22.3139292  88.8754111 117.2123386
  25.0190012  77.4454997 113.1179988  24.1570012  77.3584997 112.7099988
  24.9960012  78.3014997 113.5459988  24.8980409  77.5492883 113.1200589
  29.6820012  77.1674997 116.4929988  30.1020012  76.7524997 117.2459988
  28.7490012  76.9894997 116.6099988  29.6133644  77.0865900 116.6119539
  33.0080012  80.9234997 117.3459988  32.4940012  80.7974997 118.1439988
  32.8530012  81.8354997 117.1019988  32.9166852  81.0296132 117.4222158
  25.1100012  82.4114997 114.2129988  24.4680012  82.3704997 114.9219988
  25.1470012  83.3374997 113.9749988  25.0270664  82.5311430 114.2779219
  25.1070012  82.6324997 109.1249988  24.2140012  82.2914997 109.0659988
  25.5570012  82.2554997 108.3689988  25.0458130  82.5349631 109.0147702
  30.6420012  83.0484997 107.9419988  30.2330012  83.8634997 107.6509988
  31.3630012  82.9084997 107.3279988  30.6834537  83.1412018 107.8191342
  29.7440012  83.2234997 119.4299988  29.1820012  82.5194997 119.7509988
  30.5710012  83.1034997 119.8979988  29.7787095  83.1107883 119.5372330
  31.6470012  82.4944997 110.7559988  31.4520012  83.0994997 110.0409988
  31.8280012  81.6604997 110.3219988  31.6447614  82.4646300 110.5994405
  22.8600012  82.7314997 116.0799988  22.8220012  83.1314997 116.9489988
  22.3690012  81.9144997 116.1709988  22.7884684  82.6758069 116.2111059
  19.4680012  79.8474997 109.9309988  20.0990012  79.8184997 110.6499988
  19.9170012  79.4224997 109.1999988  19.6150918  79.7860836 109.9306441
  20.7420012  80.5934997 105.3549988  21.2160012  81.1844997 104.7699988
  20.0250012  81.1244997 105.7019988  20.7099341  80.7460867 105.3218836
  30.9110012  84.1324997 115.4269988  31.2340012  83.5014997 114.7839988
  30.4710012  83.5974997 116.0879988  30.8957484  83.9738387 115.4283198
  27.6880012  80.0594997 110.2109988  26.7770012  80.1164997 110.4999988
  28.1940012  79.9994997 111.0219988  27.6316899  80.0591941 110.3601184
  22.5170012  81.6884997 109.0379988  21.6270012  81.7884997 108.6979988
  22.8130012  80.8464997 108.6919988  22.4352823  81.5883545 108.9447213
  26.1700012  81.6884997 106.6949988  27.1010012  81.8174997 106.8729988
  25.9550012  82.3584997 106.0449988  26.2684247  81.7966565 106.6315747
  32.0930012  79.2944997 113.4759988  31.4170012  79.4254997 114.1399988
  31.6080012  79.1394997 112.6649988  31.9347146  79.2915157 113.4574469
  24.8440012  82.8834997 104.2609988  24.3010012  82.5034997 103.5699988
  25.6770012  83.0774997 103.8329988  24.8823631  82.8577125 104.1084501
  35.3810012  94.9664997 119.7519988  35.5810012  95.3904997 118.9179988
  36.0360012  95.3094997 120.3589988  35.4970072  95.0709857 119.7198592
  22.9790012  87.4404997 119.3599988  23.7110012  87.6944997 119.9219988
  22.1990012  87.6444997 119.8759988  22.9737073  87.5028160 119.5066151
  29.0080012  82.8474997 112.0979988  29.5730012  82.3004997 111.5509988
  28.8610012  82.3254997 112.8869988  29.0653380  82.7022259 112.1298695
  24.0100012  78.9834997 108.5169988  23.6930012  78.0814997 108.4809988
  24.7920012  78.9854997 107.9639988  24.0722408  78.8602474 108.4373569
  27.6350012  81.2354997 114.5119988  26.7990012  81.6894997 114.6229988
  28.1590012  81.5114997 115.2639988  27.5915416  81.3348660 114.6288119
  28.1790012  87.4484997 106.1969988  27.4340012  86.9414997 105.8749988
  28.0450012  87.4974997 107.1439988  28.0588776  87.3856940 106.2808647
  35.3290012  86.5814997 114.9839988  35.9710012  87.0384997 114.4399988
  34.4990012  86.6944997 114.5209988  35.3045963  86.6592704 114.8470177
  32.0770012  80.2624997 104.3959988  31.1380012  80.3744997 104.2449988
  32.3740012  81.1194997 104.7029988  31.9887583  80.3935981 104.4168337
  29.6980012  87.6324997 117.4339988  29.3530012  87.2514997 118.2409988
  29.4980012  88.5664997 117.5049988  29.6237527  87.7065135 117.5540689
  32.7950012  82.1294997 106.0569988  33.6870012  81.9924997 106.3759988
  32.8520012  82.9204997 105.5199988  32.9246504  82.2176052 106.0280818
  23.3040012  86.7434997 111.9669988  24.0490012  86.7414997 111.3659988
  23.3820012  85.9204997 112.4479988  23.4164995  86.6318887 111.9498282
  30.3050012  88.9074997 105.2229988  30.0090012  89.7334997 105.6039988
  29.6020012  88.2874997 105.4189988  30.1694914  88.9368199 105.3016443
  20.3120012  85.2044997 117.2819988  20.5350012  84.7864997 118.1139988
  19.7100012  84.5914997 116.8589988  20.2611759  85.0644668 117.3387022
  27.3280012  84.7214997 119.4949988  27.0320012  84.5554997 118.5999988
  28.2600012  84.5014997 119.4839988  27.4134166  84.6690640 119.3710536
  31.9490012  90.0944997 117.3849988  31.0480012  90.2774997 117.1169988
  31.9830012  90.3534997 118.3049988  31.8303139  90.1545849 117.4728099
  37.6800012  82.3394997 105.7519988  37.1260012  81.9434997 105.0799988
  37.7800012  83.2494997 105.4739988  37.6177059  82.4083586 105.6224401
  37.6430012  88.1394997 118.5889988  36.7920012  88.3774997 118.2219988
  38.2340012  88.1224997 117.8359988  37.6062487  88.1698258 118.4368893
  35.9750012  91.1254997 106.2169988  35.6020012  90.2994997 106.5259988
  36.2530012  90.9424997 105.3189988  35.9615222  90.9877430 106.1379473
  33.1360012  85.9334997 113.2379988  32.2070012  85.7014997 113.2109988
  33.5870012  85.1564997 112.9079988  33.0699216  85.7967238 113.1896917
  25.6790012  90.2614997 109.3709988  26.2060012  91.0344997 109.1709988
  24.7990012  90.4864997 109.0689988  25.6322031  90.3977545 109.3027912
  27.1060012  87.9244997 108.9469988  26.8650012  88.8494997 108.9889988
  26.3650012  87.4654997 109.3439988  26.9729225  87.9890933 109.0063742
  27.6210012  92.0734997 115.2629988  27.9830012  92.9284997 115.0289988
  28.1520012  91.7814997 116.0029988  27.7424473  92.1511060 115.3310855
  25.7890012  92.9464997 108.4929988  24.8390012  93.0514997 108.5439988
  26.1410012  93.7664997 108.8369988  25.7064195  93.0718800 108.5465502
  31.1650012  88.1724997 114.9629988  30.7390012  87.9454997 115.7899988
  31.7450012  87.4344997 114.7809988  31.1851868  88.0415299 115.0515830
  33.3680012  89.1014997 104.0369988  33.7210012  88.7214997 104.8409988
  32.4190012  89.0084997 104.1239988  33.2880918  89.0368956 104.1588532
  33.8230012  92.7244997 117.4329988  33.2220012  92.1694997 116.9369988
  34.1050012  93.3914997 116.8059988  33.7788804  92.7386625 117.2804849
  21.9460012  79.9574997 116.8399988  21.0530012  80.2964997 116.7719988
  21.8470012  79.1024997 117.2579988  21.8104164  79.8882588 116.8872235
  21.5970012  91.7624997 115.2749988  21.8140012  90.8304997 115.2439988
  21.8430012  92.0364997 116.1579988  21.6599549  91.6720636 115.3901763
  30.6800012  79.6984997 115.7299988  31.3790012  79.7724997 116.3799988
  30.2990012  78.8344997 115.8839988  30.7241767  79.5917624 115.8398322
  31.4650012  79.3504997 106.8269988  31.6850012  79.8224997 106.0239988
  32.0230012  79.7454997 107.4969988  31.5704968  79.4684285 106.8077331
  29.1330012  91.4814997 105.6899988  28.3170012  91.9784997 105.7419988
  29.6630012  91.9564997 105.0499988  29.0929161  91.6137722 105.6105956
  28.6650012  81.0784997 107.6619988  29.4770012  81.5834997 107.7079988
  28.4200012  80.9334997 108.5759988  28.7430520  81.1280375 107.7918517
  29.2000012  82.0644997 116.8459988  29.3190012  82.6384997 117.6039988
  29.8560012  81.3764997 116.9609988  29.3049025  82.0499858 116.9651321
  29.5480012  78.1594997 108.5999988  29.2020012  78.7774997 109.2439988
  30.2070012  78.6604997 108.1179988  29.5896968  78.3116278 108.6229383
  26.4720012  92.5254997 105.6709988  26.6320012  93.3244997 105.1709988
  26.2740012  92.8314997 106.5559988  26.4671637  92.6764020 105.7221144
  25.2060012  79.2224997 105.2869988  25.1230012  80.1114997 105.6339988
  26.0960012  78.9574997 105.5189988  25.3149469  79.3081430 105.3657626
  35.4050012  79.9714997 117.6809988  34.4880012  80.2344997 117.5939988
  35.7400012  79.9684997 116.7849988  35.3248613  80.0070761 117.5478837
  34.0070012  83.7224997 111.7769988  33.2090012  83.3074997 111.4489988
  34.4520012  83.0314997 112.2679988  33.9579885  83.5723543 111.7984889
  23.4650012  89.6504997 104.3479988  24.0570012  90.3494997 104.6239988
  23.9240012  89.2174997 103.6279988  23.6081142  89.6877049 104.2884830
  21.7810012  82.3144997 103.4639988  21.7360012  83.2534997 103.6419988
  20.8930012  82.0784997 103.1939988  21.6548574  82.4111892 103.4518912
  35.0930012  92.9784997 113.3999988  34.9380012  93.6564997 112.7419988
  36.0260012  93.0504997 113.6029988  35.1978657  93.0809546 113.3374360
  22.5890012  77.0964997 112.1369988  22.3600012  77.1554997 111.2089988
  22.1460012  76.3044997 112.4429988  22.4978530  76.9975753 112.0514786
  21.5190012  91.0364997 108.2969988  20.6870012  91.5094997 108.3239988
  22.0650012  91.5464997 107.6989988  21.4790352  91.1701332 108.2198463
  20.8070012  93.6494997 119.6269988  21.3480012  93.4324997 120.3869988
  20.3260012  92.8434997 119.4369988  20.8159951  93.5109270 119.7052576
  25.4050012  92.5684997 121.2469988  26.1720012  92.1094997 121.5879988
  25.3830012  92.3424997 120.3179988  25.5071275  92.4750186 121.1680101
  31.9820012  90.9484997 119.9769988  31.6310012  90.0924997 120.2199988
  32.7080012  91.0914997 120.5839988  32.0320769  90.8505636 120.0923619
  20.7140012  87.4594997 120.5809988  20.8580012  86.5574997 120.2949988
  19.9420012  87.7454997 120.0939988  20.6292753  87.3746816 120.4759505
  27.3700012  87.4294997 120.0139988  27.0410012  87.7004997 119.1569988
  27.5220012  86.4884997 119.9269988  27.3454809  87.3393862 119.8848244
  33.1040012  87.3454997 117.3969988  33.8500012  87.9334997 117.2779988
  32.3470012  87.9274997 117.4609988  33.1037820  87.5047143 117.3893590
  21.5470012  84.6594997 120.0009988  21.9550012  83.8024997 119.8799988
  21.2870012  84.6744997 120.9219988  21.5677568  84.5440807 120.1089588
  25.4940012  83.6684997 117.3759988  24.8760012  84.3434997 117.6559988
  25.8380012  83.9894997 116.5419988  25.4559132  83.8042411 117.3016262
  30.5140012  86.1404997 120.6529988  31.4670012  86.2234997 120.6259988
  30.3530012  85.4284997 121.2729988  30.6226426  86.0556746 120.7330579
  25.8330012  81.0234997 118.4579988  25.9830012  80.2944997 117.8559988
  25.8360012  81.8004997 117.8989988  25.8539302  81.0287851 118.3000692
  26.2460012  79.3934997 115.9509988  26.7820012  79.8444997 115.2989988
  25.3940012  79.2854997 115.5279988  26.2042178  79.4406390 115.8045756
  27.8280012  84.8324997 116.1899988  28.5780012  84.6764997 115.6169988
  27.4890012  85.6844997 115.9149988  27.8848921  84.9262968 116.0743561
  32.2430012  82.6474997 121.2189988  32.4360012  81.7164997 121.1069988
  33.1010012  83.0724997 121.2079988  32.3852934  82.5776531 121.2022031
  33.5600012  85.4364997 119.2959988  33.2790012  86.1454997 118.7179988
  34.5030012  85.3634997 119.1449988  33.6489291  85.5236711 119.1964967
  24.3120012  82.2214997 120.3699988  23.5450012  81.6894997 120.1589988
  24.9910012  81.9114997 119.7699988  24.2987877  82.1068300 120.2600716
  27.0520012  76.8494997 116.3819988  26.9530012  77.7964997 116.2769988
  26.3090012  76.4774997 115.9059988  26.9381184  76.9285863 116.3033621
  28.3160012  81.1714997 119.9459988  28.0800012  80.9514997 120.8469988
  27.5320012  80.9644997 119.4359988  28.1778504  81.1134586 120.0003431
  31.0310012  80.2984997 119.0209988  30.0840012  80.3304997 119.1539988
  31.3440012  79.6734997 119.6749988  30.9436707  80.2183998 119.1276060
  32.6650012  78.9324997 121.0269988  32.5690012  77.9804997 121.0209988
  32.3440012  79.2014997 121.8869988  32.6084070  78.8384035 121.1425441
  22.4920012  80.1424997 120.0739988  22.7040012  79.4354997 119.4639988
  22.3810012  79.7044997 120.9179988  22.5059721  79.9867084 120.1046843
  27.2730012  76.1434997 119.0529988  27.9850012  75.5034997 119.0389988
  27.1720012  76.4104997 118.1399988  27.3568066  76.0920079 118.9275677
  27.6270012  77.8264997 121.1069988  27.4950012  77.3504997 120.2869988
  27.0280012  78.5704997 121.0519988  27.5279071  77.8619618 120.9872886
  19.3910012  94.7384997 108.8439988  18.7440012  94.2764997 108.3109988
  19.7450012  94.0664997 109.4259988  19.3503849  94.5844723 108.8497959
  20.2610012  92.8194997 110.6479988  19.9260012  91.9394997 110.8199988
  20.4830012  93.1644997 111.5129988  20.2451783  92.7457500 110.7884208
  37.8090012  93.6284997 113.6289988  37.7880012  93.8134997 114.5679988
  38.5000012  94.1974997 113.2879988  37.8994618  93.7306606 113.7113864
  37.3730012  93.1964997 116.5509988  36.8850012  92.4604997 116.1789988
  37.9220012  92.8024997 117.2289988  37.3804820  93.0425889 116.5917813
  35.8230012  88.9854997 121.1889988  34.9570012  88.8804997 121.5829988
  36.2000012  89.7444997 121.6349988  35.7553308  89.0736900 121.3032393
  37.1240012  87.2424997 106.7029988  37.9740012  87.6634997 106.8299988
  37.1300012  86.5024997 107.3099988  37.2411372  87.2000803 106.8024344
  37.5190012  85.2954997 108.5259988  36.7920012  84.8164997 108.9239988
  38.1000012  85.5014997 109.2589988  37.4980473  85.2578103 108.6794528
  37.2780012  88.0804997 113.4739988  38.1110012  87.7024997 113.1939988
  37.3900012  89.0234997 113.3549988  37.4072647  88.1562218 113.4195487
  35.7640012  90.9584997 115.7809988  35.1170012  91.2834997 116.4069988
  35.2470012  90.5184997 115.1069988  35.6054029  90.9435004 115.7755827
  35.3050012  83.8164997 109.0889988  35.1550012  82.8714997 109.0689988
  34.9520012  84.0974997 109.9329988  35.2367448  83.7251481 109.2003705
  20.3410012  85.8944997 113.0999988  20.5250012  85.8124997 112.1639988
  21.1900012  85.7704997 113.5229988  20.4810151  85.8665073 113.0291451
  36.1620012  85.7864997 118.7279988  36.7450012  85.0524997 118.9199988
  36.7260012  86.5584997 118.7749988  36.3179769  85.7904227 118.7606159
  37.6580012  83.6894997 119.4129988  36.7950012  83.3104997 119.2469988
  38.2630012  82.9504997 119.3379988  37.6216119  83.5378268 119.3801528
  35.3830012  79.8444997 102.5859988  35.9940012  79.4734997 103.2229988
  34.5470012  79.4234997 102.7819988  35.3535032  79.7367554 102.6997035
  35.0160012  81.3994997 107.5519988  35.2960012  80.4924997 107.6759988
  35.7750012  81.8334997 107.1629988  35.1569277  81.3340942 107.5163682
  35.6280012  81.9804997 112.9879988  36.5610012  82.1924997 112.9529988
  35.3930012  82.0824997 113.9099988  35.7239244  82.0233100 113.1078892
  35.6570012  82.7174997 115.7639988  34.8140012  82.9854997 116.1299988
  36.0990012  83.5394997 115.5529988  35.6014158  82.8653291 115.7855491
  19.9380012  81.1654997 119.2409988  20.8580012  81.0434997 119.4769988
  19.4890012  80.4154997 119.6299988  20.0031580  81.0473727 119.3259006
  37.9400012  76.6974997 121.1169988  38.2900012  76.0434997 120.5119988
  38.0870012  77.5344997 120.6769988  38.0077887  76.7211548 120.9746858
  35.6290012  78.6624997 107.5999988  35.8120012  78.2134997 108.4259988
  35.0300012  78.0774997 107.1369988  35.5730202  78.5219975 107.6503275
  21.1590012  79.4774997 112.1319988  21.6050012  78.6854997 112.4339988
  21.6260012  80.1934997 112.5619988  21.2830831  79.4660685 112.2314006
  19.4630012  82.4764997 113.2009988  19.9550012  82.2554997 112.4099988
  19.8260012  83.3174997 113.4819988  19.5793126  82.5598357 113.1307531
  37.4600012  78.8064997 119.4659988  36.5420012  79.0774997 119.4309988
  37.5830012  78.2714997 118.6819988  37.3509729  78.7712508 119.3551923
  37.4960012  78.7294997 104.1279988  37.9080012  78.0084997 103.6529988
  38.1780012  79.3994997 104.1869988  37.6445885  78.7212368 104.0708915
  19.7770012  78.7344997 107.2549988  18.8520012  78.9434997 107.1259988
  20.2310012  79.2184997 106.5649988  19.7117292  78.8285343 107.1440720
  34.5480012  93.7184997 109.2009988  35.2000012  93.3714997 108.5929988
  35.0580012  94.2074997 109.8469988  34.7062637  93.7370597 109.2050236
  19.7410012  77.4724997 115.5989988  19.0760012  77.2264997 116.2429988
  19.2980012  78.0944997 115.0219988  19.5901318  77.5229410 115.6090898
  21.9330012  90.6474997 119.7439988  21.1120012  90.8224997 119.2829988
  21.6800012  90.5744997 120.6639988  21.7865585  90.6615544 119.8053561
  24.8870012  91.6224997 116.0019988  24.4620012  92.4314997 115.7199988
  25.7910012  91.7074997 115.6999988  24.9509975  91.7449300 115.9224816
  29.1980012  93.0214997 118.9619988  29.3830012  92.6874997 119.8399988
  30.0440012  93.3304997 118.6399988  29.3377539  93.0176047 119.0385605
  31.5430012  94.3074997 118.2059988  32.2200012  93.6744997 117.9659988
  31.8650012  94.7084997 119.0129988  31.6791637  94.2751154 118.2822793
  36.4600012  76.8964997 117.2849988  35.6480012  77.2214997 116.8979988
  36.6930012  76.1364997 116.7519988  36.3802203  76.8382758 117.1598880
  22.2890012  94.8784997 116.0499988  21.5680012  95.3184997 115.5989988
  21.9230012  94.6274997 116.8979988  22.1409651  94.9047242 116.1029640
  24.7560012  94.4784997 115.0799988  23.8910012  94.5504997 115.4839988
  24.7010012  95.0254997 114.2959988  24.6302085  94.5622685 115.0293362
  29.4660012  94.3664997 114.2549988  29.0100012  94.8954997 113.6009988
  29.6290012  94.9694997 114.9799988  29.4256068  94.5204607 114.2634838
  31.7940012  93.2444997 115.1999988  30.8890012  93.4094997 114.9339988
  32.2230012  94.0974997 115.1349988  31.7281324  93.3824339 115.1547976
  34.3980012  94.8144997 115.4949988  34.2160012  95.7304997 115.2849988
  34.5750012  94.4044997 114.6489988  34.3970210  94.8844822 115.3517885
  21.7030012  93.5014997 112.9599988  21.6850012  93.0764997 113.8169988
  22.5080012  93.1834997 112.5509988  21.8093529  93.4003013 113.0220946
  23.8450012  92.2114997 111.6149988  23.6260012  91.2954997 111.7849988
  24.6690012  92.3514997 112.0809988  23.9264420  92.1050520 111.7012774
  26.3820012  92.6814997 112.4639988  26.5950012  91.7934997 112.1769988
  26.4460012  92.6474997 113.4179988  26.4198231  92.5553102 112.5537397
  29.8900012  78.3454997 111.6079988  29.2160012  77.7164997 111.8639988
  30.4540012  77.8614997 111.0049988  29.8739230  78.1938744 111.5615340
  35.0330012  76.4534997 111.7209988  35.6370012  77.0004997 111.2189988
  34.1630012  76.7724997 111.4799988  34.9981208  76.5715137 111.6196886
  36.7600012  77.5914997 110.0539988  37.3720012  77.0774997 109.5269988
  37.1420012  78.4694997 110.0769988  36.8953371  77.6397866 109.9850041
  22.2170012  76.9794997 109.4299988  21.4400012  76.7454997 108.9229988
  22.7470012  76.1824997 109.4389988  22.1822330  76.8396988 109.3617742
  26.7960012  76.9064997 109.2439988  27.6710012  77.2944997 109.2139988
  26.6600012  76.6914997 110.1659988  26.8973695  76.9305184 109.3646440
  32.3530012  76.9364997 110.8929988  32.4290012  77.0314997 109.9429988
  32.0780012  76.0284997 111.0219988  32.3262321  76.8267867 110.7805079
  33.7060012  76.9624997 106.5849988  33.0040012  77.5774997 106.3749988
  33.2620012  76.1244997 106.7159988  33.5496450  76.9335639 106.5739000
  20.9540012  92.7254997 106.1309988  20.2690012  92.6874997 105.4639988
  20.9580012  93.6384997 106.4199988  20.8606998  92.8436733 106.0786771
  22.9140012  78.6934997 103.6759988  23.4060012  78.0634997 103.1489988
  23.5380012  78.9894997 104.3389988  23.0655688  78.6473804 103.6935482
  27.9400012  78.9864997 106.1329988  28.1180012  78.3404997 106.8159988
  27.8870012  79.8204997 106.5999988  27.9571999  79.0108009 106.2895917
  36.5280012  93.4984997 107.2079988  36.3330012  92.7504997 106.6429988
  36.4890012  94.2564997 106.6249988  36.4960380  93.4986099 107.0518384
  22.1750012  77.4934997 118.9479988  21.8090012  76.7284997 119.3899988
  23.0880012  77.5224997 119.2339988  22.2482736  77.3925640 119.0472502
  24.1480012  76.8444997 120.4839988  25.0460012  76.5704997 120.2989988
  23.7610012  76.1014997 120.9479988  24.2186612  76.7065914 120.5213643
  32.5690012  76.1764997 120.6659988  32.6460012  75.7504997 121.5199988
  33.4630012  76.1904997 120.3229988  32.7003428  76.1200879 120.7365310
  35.7450012  92.2494997 119.3579988  34.9630012  92.0634997 118.8379988
  35.6730012  93.1784997 119.5759988  35.6282274  92.3496643 119.3163018
  49.0840012  85.3904997 112.8079988  49.0460012  84.7444997 113.5129988
  48.7620012  84.9244997 112.0369988  49.0352333  85.2389408 112.8002978
  41.4530012  85.0054997 114.4009988  41.4940012  84.3794997 115.1239988
  42.1560012  85.6294997 114.5829988  41.5536363  85.0041196 114.5246044
  52.7900012  88.3294997 111.1089988  52.3500012  87.6094997 111.5599988
  52.7770012  89.0504997 111.7389988  52.7280226  88.3283731 111.2558494
  42.3760012  89.4554997 112.9359988  42.0070012  88.6534997 112.5659988
  43.3170012  89.2864997 112.9819988  42.4527289  89.3230153 112.8916316
  38.9860012  83.1154997 108.3289988  38.5390012  83.9614997 108.3099988
  38.4250012  82.5354997 107.8129988  38.8489900  83.1529916 108.2566801
  39.6970012  85.2774997 110.4539988  39.9100012  84.5074997 110.9819988
  40.4350012  85.3664997 109.8509988  39.8259044  85.1841968 110.4447123
  49.9020012  93.4344997 111.3209988  50.5220012  92.7574997 111.0479988
  49.6940012  93.2164997 112.2299988  49.9586726  93.3124800 111.4064812
  47.4740012  87.8234997 113.2139988  47.7780012  87.1374997 112.6189988
  48.1950012  87.9414997 113.8319988  47.6130671  87.7456305 113.2161816
  56.1370012  79.4244997 114.0749988  56.1860012  80.0344997 114.8099988
  56.5620012  79.8854997 113.3519988  56.2011746  79.5703796 114.0779175
  50.6150012  82.2174997 113.5409988  50.7570012  81.2714997 113.5619988
  50.5080012  82.4244997 112.6129988  50.6199919  82.1158246 113.4183408
  43.7690012  80.3184997 110.8139988  43.8130012  81.1784997 110.3949988
  43.3120012  79.7664997 110.1799988  43.7132240  80.3614422 110.6709864
  40.3900012  82.7154997 111.5759988  41.0430012  82.1654997 112.0079988
  40.4140012  82.4414997 110.6589988  40.4826683  82.6031466 111.5112123
  45.5460012  84.2654997 110.7909988  46.1620012  83.7394997 111.3009988
  44.9600012  83.6254997 110.3879988  45.5510810  84.1069208 110.8063173
  56.5280012  80.9024997 116.3099988  55.8400012  81.5604997 116.2149988
  56.5440012  80.7054997 117.2469988  56.4359540  80.9659819 116.4235990
  42.5800012  79.2364997 114.8879988  42.3610012  79.7664997 114.1219988
  41.9120012  79.4634997 115.5349988  42.4597600  79.3396906 114.8706379
  45.1490012  86.9124997 115.1749988  44.4090012  87.5104997 115.2789988
  45.8630012  87.4664997 114.8599988  45.1442237  87.0692831 115.1466465
  42.1730012  81.1284997 112.8399988  42.7870012  81.7614997 113.2129988
  42.6850012  80.6564997 112.1839988  42.3261981  81.1512267 112.8022908
  43.5560012  88.8764997 115.9619988  43.5510012  89.7564997 115.5839988
  42.7030012  88.7934997 116.3869988  43.4399464  88.9856117 115.9677907
  39.6770012  88.5474997 106.7439988  39.4050012  88.7764997 105.8559988
  39.7230012  89.3854997 107.2049988  39.6459482  88.6921318 106.6846273
  53.3020012  90.1694997 113.4569988  52.3610012  90.2274997 113.6189988
  53.5790012  91.0754997 113.3199988  53.2104679  90.2999443 113.4606815
  53.6030012  78.4554997 114.8749988  52.8670012  79.0664997 114.8369988
  54.2860012  78.8704997 114.3479988  53.5946541  78.5951374 114.7985832
  46.6060012  76.5424997 112.3399988  46.4890012  75.5934997 112.2859988
  45.7510012  76.8744997 112.6139988  46.4744212  76.4575571 112.3696497
  51.5540012  91.9504997 110.0819988  51.9800012  91.2434997 109.5969988
  51.8710012  92.7514997 109.6659988  51.6551683  91.9621017 109.9593680
  54.4000012  88.4174997 117.0679988  54.5400012  87.8264997 116.3289988
  54.5670012  89.2904997 116.7119988  54.4417411  88.4545428 116.9186894
  56.2420012  84.7574997 115.1339988  55.5890012  85.4524997 115.2239988
  56.7070012  84.9674997 114.3249988  56.2155274  84.8810643 115.0368462
  52.1760012  83.7634997 116.8599988  52.2560012  84.5264997 117.4319988
  51.5740012  84.0424997 116.1699988  52.1055756  83.9057134 116.8450589
  43.9240012  86.2194997 109.6749988  43.5930012  85.8494997 108.8569988
  44.5120012  85.5494997 110.0219988  43.9581873  86.0781156 109.6098102
  45.2900012  89.6474997 112.3559988  45.1960012  89.0694997 111.5999988
  46.0200012  89.2764997 112.8529988  45.3757387  89.5181663 112.3195342
  44.2900012  84.9884997 113.3089988  44.8560012  85.1094997 112.5459988
  44.6090012  85.6254997 113.9469988  44.4105474  85.0912219 113.2909862
  50.5990012  90.4914997 114.0429988  50.3590012  91.1534997 114.6909988
  50.4010012  89.6574997 114.4679988  50.5393808  90.4693134 114.1891524
  45.1700012  89.3874997 118.0259988  44.8590012  90.1694997 118.4809988
  44.5200012  89.2344997 117.3399988  45.0395558  89.4739105 117.9955871
  42.0900012  85.5854997 117.2539988  42.1610012  86.2364997 117.9529988
  41.2000012  85.6884997 116.9189988  41.9793005  85.6885427 117.3043495
  43.4100012  91.4594997 118.7889988  43.4170012  91.3234997 117.8419988
  42.4940012  91.3414997 119.0409988  43.2871714  91.4249430 118.6934666
  42.9140012  85.2894997 107.2639988  42.6220012  86.0574997 106.7739988
  42.2400012  84.6294997 107.1019988  42.7828111  85.3055587 107.1748978
  39.0070012  87.6524997 116.0789988  38.5060012  87.6244997 115.2639988
  39.0120012  86.7464997 116.3889988  38.9390944  87.5262396 116.0093226
  38.7570012  90.4324997 112.9629988  39.7030012  90.2884997 112.9439988
  38.6450012  91.2164997 113.4999988  38.8712727  90.5188046 113.0330072
  56.9550012  91.0984997 118.6459988  56.9060012  90.1434997 118.6089988
  56.1280012  91.3664997 119.0469988  56.8364940  91.0038998 118.6951375
  47.9340012  90.6724997 117.5219988  48.0210012  91.4984997 117.9969988
  47.0700012  90.3424997 117.7709988  47.8291964  90.7409878 117.6206549
  48.3480012  94.4444997 107.3279988  48.2730012  94.3234997 106.3809988
  48.3810012  95.3944997 107.4459988  48.3422068  94.5562646 107.2144967
  42.0010012  93.2334997 109.1089988  42.1540012  92.8854997 109.9869988
  41.1510012  92.8774997 108.8539988  41.9069166  93.1376216 109.1948079
  54.1070012  82.5914997 119.1259988  53.7000012  83.0724997 118.4049988
  54.1480012  81.6864997 118.8179988  54.0568437  82.5349374 118.9856683
  41.2560012  88.9754997 117.1229988  41.4720012  88.6144997 117.9819988
  40.4010012  88.6014997 116.9129988  41.1699292  88.8754111 117.2123386
  43.8750012  77.4454997 113.1179988  43.0130012  77.3584997 112.7099988
  43.8520012  78.3014997 113.5459988  43.7540409  77.5492883 113.1200589
  48.5380012  77.1674997 116.4929988  48.9580012  76.7524997 117.2459988
  47.6050012  76.9894997 116.6099988  48.4693644  77.0865900 116.6119539
  51.8640012  80.9234997 117.3459988  51.3500012  80.7974997 118.1439988
  51.7090012  81.8354997 117.1019988  51.7726852  81.0296132 117.4222158
  43.9660012  82.4114997 114.2129988  43.3240012  82.3704997 114.9219988
  44.0030012  83.3374997 113.9749988  43.8830664  82.5311430 114.2779219
  43.9630012  82.6324997 109.1249988  43.0700012  82.2914997 109.0659988
  44.4130012  82.2554997 108.3689988  43.9018130  82.5349631 109.0147702
  48.6000012  83.2234997 119.4299988  48.0380012  82.5194997 119.7509988
  49.4270012  83.1034997 119.8979988  48.6347095  83.1107883 119.5372330
  50.5030012  82.4944997 110.7559988  50.3080012  83.0994997 110.0409988
  50.6840012  81.6604997 110.3219988  50.5007614  82.4646300 110.5994405
  41.7160012  82.7314997 116.0799988  41.6780012  83.1314997 116.9489988
  41.2250012  81.9144997 116.1709988  41.6444684  82.6758069 116.2111059
  38.3240012  79.8474997 109.9309988  38.9550012  79.8184997 110.6499988
  38.7730012  79.4224997 109.1999988  38.4710918  79.7860836 109.9306441
  39.5980012  80.5934997 105.3549988  40.0720012  81.1844997 104.7699988
  38.8810012  81.1244997 105.7019988  39.5659341  80.7460867 105.3218836
  49.7670012  84.1324997 115.4269988  50.0900012  83.5014997 114.7839988
  49.3270012  83.5974997 116.0879988  49.7517484  83.9738387 115.4283198
  46.5440012  80.0594997 110.2109988  45.6330012  80.1164997 110.4999988
  47.0500012  79.9994997 111.0219988  46.4876899  80.0591941 110.3601184
  41.3730012  81.6884997 109.0379988  40.4830012  81.7884997 108.6979988
  41.6690012  80.8464997 108.6919988  41.2912823  81.5883545 108.9447213
  50.9490012  79.2944997 113.4759988  50.2730012  79.4254997 114.1399988
  50.4640012  79.1394997 112.6649988  50.7907146  79.2915157 113.4574469
  54.2370012  94.9664997 119.7519988  54.4370012  95.3904997 118.9179988
  54.8920012  95.3094997 120.3589988  54.3530072  95.0709857 119.7198592
  41.8350012  87.4404997 119.3599988  42.5670012  87.6944997 119.9219988
  41.0550012  87.6444997 119.8759988  41.8297073  87.5028160 119.5066151
  47.8640012  82.8474997 112.0979988  48.4290012  82.3004997 111.5509988
  47.7170012  82.3254997 112.8869988  47.9213380  82.7022259 112.1298695
  42.8660012  78.9834997 108.5169988  42.5490012  78.0814997 108.4809988
  43.6480012  78.9854997 107.9639988  42.9282408  78.8602474 108.4373569
  46.4910012  81.2354997 114.5119988  45.6550012  81.6894997 114.6229988
  47.0150012  81.5114997 115.2639988  46.4475416  81.3348660 114.6288119
  54.1850012  86.5814997 114.9839988  54.8270012  87.0384997 114.4399988
  53.3550012  86.6944997 114.5209988  54.1605963  86.6592704 114.8470177
  48.5540012  87.6324997 117.4339988  48.2090012  87.2514997 118.2409988
  48.3540012  88.5664997 117.5049988  48.4797527  87.7065135 117.5540689
  42.1600012  86.7434997 111.9669988  42.9050012  86.7414997 111.3659988
  42.2380012  85.9204997 112.4479988  42.2724995  86.6318887 111.9498282
  39.1680012  85.2044997 117.2819988  39.3910012  84.7864997 118.1139988
  38.5660012  84.5914997 116.8589988  39.1171759  85.0644668 117.3387022
  46.1840012  84.7214997 119.4949988  45.8880012  84.5554997 118.5999988
  47.1160012  84.5014997 119.4839988  46.2694166  84.6690640 119.3710536
  50.8050012  90.0944997 117.3849988  49.9040012  90.2774997 117.1169988
  50.8390012  90.3534997 118.3049988  50.6863139  90.1545849 117.4728099
  56.4990012  88.1394997 118.5889988  55.6480012  88.3774997 118.2219988
  57.0900012  88.1224997 117.8359988  56.4622487  88.1698258 118.4368893
  54.8310012  91.1254997 106.2169988  54.4580012  90.2994997 106.5259988
  55.1090012  90.9424997 105.3189988  54.8175222  90.9877430 106.1379473
  51.9920012  85.9334997 113.2379988  51.0630012  85.7014997 113.2109988
  52.4430012  85.1564997 112.9079988  51.9259216  85.7967238 113.1896917
  44.5350012  90.2614997 109.3709988  45.0620012  91.0344997 109.1709988
  43.6550012  90.4864997 109.0689988  44.4882031  90.3977545 109.3027912
  40.2900012  85.1234997 103.9579988  40.9060012  85.7504997 104.3379988
  39.4280012  85.4394997 104.2299988  40.2577698  85.2519430 104.0467183
  46.4770012  92.0734997 115.2629988  46.8390012  92.9284997 115.0289988
  47.0080012  91.7814997 116.0029988  46.5984473  92.1511060 115.3310855
  44.6450012  92.9464997 108.4929988  43.6950012  93.0514997 108.5439988
  44.9970012  93.7664997 108.8369988  44.5624195  93.0718800 108.5465502
  50.0210012  88.1724997 114.9629988  49.5950012  87.9454997 115.7899988
  50.6010012  87.4344997 114.7809988  50.0411868  88.0415299 115.0515830
  52.6790012  92.7244997 117.4329988  52.0780012  92.1694997 116.9369988
  52.9610012  93.3914997 116.8059988  52.6348804  92.7386625 117.2804849
  40.8020012  79.9574997 116.8399988  39.9090012  80.2964997 116.7719988
  40.7030012  79.1024997 117.2579988  40.6664164  79.8882588 116.8872235
  40.4530012  91.7624997 115.2749988  40.6700012  90.8304997 115.2439988
  40.6990012  92.0364997 116.1579988  40.5159549  91.6720636 115.3901763
  41.7050012  87.0364997 105.4509988  41.0190012  87.3884997 106.0179988
  42.2270012  87.7994997 105.2039988  41.6816852  87.1878578 105.4952118
  49.5360012  79.6984997 115.7299988  50.2350012  79.7724997 116.3799988
  49.1550012  78.8344997 115.8839988  49.5801767  79.5917624 115.8398322
  48.0560012  82.0644997 116.8459988  48.1750012  82.6384997 117.6039988
  48.7120012  81.3764997 116.9609988  48.1609025  82.0499858 116.9651321
  48.4040012  78.1594997 108.5999988  48.0580012  78.7774997 109.2439988
  49.0630012  78.6604997 108.1179988  48.4456968  78.3116278 108.6229383
  45.3280012  92.5254997 105.6709988  45.4880012  93.3244997 105.1709988
  45.1300012  92.8314997 106.5559988  45.3231637  92.6764020 105.7221144
  54.2610012  79.9714997 117.6809988  53.3440012  80.2344997 117.5939988
  54.5960012  79.9684997 116.7849988  54.1808613  80.0070761 117.5478837
  52.8630012  83.7224997 111.7769988  52.0650012  83.3074997 111.4489988
  53.3080012  83.0314997 112.2679988  52.8139885  83.5723543 111.7984889
  40.6370012  82.3144997 103.4639988  40.5920012  83.2534997 103.6419988
  39.7490012  82.0784997 103.1939988  40.5108574  82.4111892 103.4518912
  53.9490012  92.9784997 113.3999988  53.7940012  93.6564997 112.7419988
  54.8820012  93.0504997 113.6029988  54.0538657  93.0809546 113.3374360
  41.4450012  77.0964997 112.1369988  41.2160012  77.1554997 111.2089988
  41.0020012  76.3044997 112.4429988  41.3538530  76.9975753 112.0514786
  40.3750012  91.0364997 108.2969988  39.5430012  91.5094997 108.3239988
  40.9210012  91.5464997 107.6989988  40.3350352  91.1701332 108.2198463
  39.6630012  93.6494997 119.6269988  40.2040012  93.4324997 120.3869988
  39.1820012  92.8434997 119.4369988  39.6719951  93.5109270 119.7052576
  44.2610012  92.5684997 121.2469988  45.0280012  92.1094997 121.5879988
  44.2390012  92.3424997 120.3179988  44.3631275  92.4750186 121.1680101
  50.8380012  90.9484997 119.9769988  50.4870012  90.0924997 120.2199988
  51.5640012  91.0914997 120.5839988  50.8880769  90.8505636 120.0923619
  39.5700012  87.4594997 120.5809988  39.7140012  86.5574997 120.2949988
  38.7980012  87.7454997 120.0939988  39.4852753  87.3746816 120.4759505
  46.2260012  87.4294997 120.0139988  45.8970012  87.7004997 119.1569988
  46.3780012  86.4884997 119.9269988  46.2014809  87.3393862 119.8848244
  51.9600012  87.3454997 117.3969988  52.7060012  87.9334997 117.2779988
  51.2030012  87.9274997 117.4609988  51.9597820  87.5047143 117.3893590
  40.4030012  84.6594997 120.0009988  40.8110012  83.8024997 119.8799988
  40.1430012  84.6744997 120.9219988  40.4237568  84.5440807 120.1089588
  44.3500012  83.6684997 117.3759988  43.7320012  84.3434997 117.6559988
  44.6940012  83.9894997 116.5419988  44.3119132  83.8042411 117.3016262
  49.3700012  86.1404997 120.6529988  50.3230012  86.2234997 120.6259988
  49.2090012  85.4284997 121.2729988  49.4786426  86.0556746 120.7330579
  44.6890012  81.0234997 118.4579988  44.8390012  80.2944997 117.8559988
  44.6920012  81.8004997 117.8989988  44.7099302  81.0287851 118.3000692
  45.1020012  79.3934997 115.9509988  45.6380012  79.8444997 115.2989988
  44.2500012  79.2854997 115.5279988  45.0602178  79.4406390 115.8045756
  46.6840012  84.8324997 116.1899988  47.4340012  84.6764997 115.6169988
  46.3450012  85.6844997 115.9149988  46.7408921  84.9262968 116.0743561
  51.0990012  82.6474997 121.2189988  51.2920012  81.7164997 121.1069988
  51.9570012  83.0724997 121.2079988  51.2412934  82.5776531 121.2022031
  52.4160012  85.4364997 119.2959988  52.1350012  86.1454997 118.7179988
  53.3590012  85.3634997 119.1449988  52.5049291  85.5236711 119.1964967
  43.1680012  82.2214997 120.3699988  42.4010012  81.6894997 120.1589988
  43.8470012  81.9114997 119.7699988  43.1547877  82.1068300 120.2600716
  45.9080012  76.8494997 116.3819988  45.8090012  77.7964997 116.2769988
  45.1650012  76.4774997 115.9059988  45.7941184  76.9285863 116.3033621
  47.1720012  81.1714997 119.9459988  46.9360012  80.9514997 120.8469988
  46.3880012  80.9644997 119.4359988  47.0338504  81.1134586 120.0003431
  49.8870012  80.2984997 119.0209988  48.9400012  80.3304997 119.1539988
  50.2000012  79.6734997 119.6749988  49.7996707  80.2183998 119.1276060
  51.5210012  78.9324997 121.0269988  51.4250012  77.9804997 121.0209988
  51.2000012  79.2014997 121.8869988  51.4644070  78.8384035 121.1425441
  41.3480012  80.1424997 120.0739988  41.5600012  79.4354997 119.4639988
  41.2370012  79.7044997 120.9179988  41.3619721  79.9867084 120.1046843
  46.1290012  76.1434997 119.0529988  46.8410012  75.5034997 119.0389988
  46.0280012  76.4104997 118.1399988  46.2128066  76.0920079 118.9275677
  46.4830012  77.8264997 121.1069988  46.3510012  77.3504997 120.2869988
  45.8840012  78.5704997 121.0519988  46.3839071  77.8619618 120.9872886
  46.0290012  94.7094997 104.2829988  46.9620012  94.8674997 104.4269988
  45.7650012  95.3844997 103.6589988  46.1209888  94.8224510 104.2182842
  38.2470012  94.7384997 108.8439988  37.6000012  94.2764997 108.3109988
  38.6010012  94.0664997 109.4259988  38.2063849  94.5844723 108.8497959
  39.1170012  92.8194997 110.6479988  38.7820012  91.9394997 110.8199988
  39.3390012  93.1644997 111.5129988  39.1011783  92.7457500 110.7884208
  56.6650012  93.6284997 113.6289988  56.6440012  93.8134997 114.5679988
  57.3560012  94.1974997 113.2879988  56.7554618  93.7306606 113.7113864
  56.2290012  93.1964997 116.5509988  55.7410012  92.4604997 116.1789988
  56.7780012  92.8024997 117.2289988  56.2364820  93.0425889 116.5917813
  54.6790012  88.9854997 121.1889988  53.8130012  88.8804997 121.5829988
  55.0560012  89.7444997 121.6349988  54.6113308  89.0736900 121.3032393
  56.3750012  85.2954997 108.5259988  55.6480012  84.8164997 108.9239988
  56.9560012  85.5014997 109.2589988  56.3540473  85.2578103 108.6794528
  56.1340012  88.0804997 113.4739988  56.9670012  87.7024997 113.1939988
  56.2460012  89.0234997 113.3549988  56.2632647  88.1562218 113.4195487
  54.6200012  90.9584997 115.7809988  53.9730012  91.2834997 116.4069988
  54.1030012  90.5184997 115.1069988  54.4614029  90.9435004 115.7755827
  39.1970012  85.8944997 113.0999988  39.3810012  85.8124997 112.1639988
  40.0460012  85.7704997 113.5229988  39.3370151  85.8665073 113.0291451
  55.0180012  85.7864997 118.7279988  55.6010012  85.0524997 118.9199988
  55.5820012  86.5584997 118.7749988  55.1739769  85.7904227 118.7606159
  56.5140012  83.6894997 119.4129988  55.6510012  83.3104997 119.2469988
  57.1190012  82.9504997 119.3379988  56.4776119  83.5378268 119.3801528
  54.4840012  81.9804997 112.9879988  55.4170012  82.1924997 112.9529988
  54.2490012  82.0824997 113.9099988  54.5799244  82.0233100 113.1078892
  54.5130012  82.7174997 115.7639988  53.6700012  82.9854997 116.1299988
  54.9550012  83.5394997 115.5529988  54.4574158  82.8653291 115.7855491
  38.7940012  81.1654997 119.2409988  39.7140012  81.0434997 119.4769988
  38.3450012  80.4154997 119.6299988  38.8591580  81.0473727 119.3259006
  56.7960012  76.6974997 121.1169988  57.1460012  76.0434997 120.5119988
  56.9430012  77.5344997 120.6769988  56.8637887  76.7211548 120.9746858
  40.0150012  79.4774997 112.1319988  40.4610012  78.6854997 112.4339988
  40.4820012  80.1934997 112.5619988  40.1390831  79.4660685 112.2314006
  38.3190012  82.4764997 113.2009988  38.8110012  82.2554997 112.4099988
  38.6820012  83.3174997 113.4819988  38.4353126  82.5598357 113.1307531
  56.3160012  78.8064997 119.4659988  55.3980012  79.0774997 119.4309988
  56.4390012  78.2714997 118.6819988  56.2069729  78.7712508 119.3551923
  38.6330012  78.7344997 107.2549988  37.7080012  78.9434997 107.1259988
  39.0870012  79.2184997 106.5649988  38.5677292  78.8285343 107.1440720
  53.4040012  93.7184997 109.2009988  54.0560012  93.3714997 108.5929988
  53.9140012  94.2074997 109.8469988  53.5622637  93.7370597 109.2050236
  38.5970012  77.4724997 115.5989988  37.9320012  77.2264997 116.2429988
  38.1540012  78.0944997 115.0219988  38.4461318  77.5229410 115.6090898
  40.7890012  90.6474997 119.7439988  39.9680012  90.8224997 119.2829988
  40.5360012  90.5744997 120.6639988  40.6425585  90.6615544 119.8053561
  43.7430012  91.6224997 116.0019988  43.3180012  92.4314997 115.7199988
  44.6470012  91.7074997 115.6999988  43.8069975  91.7449300 115.9224816
  48.0540012  93.0214997 118.9619988  48.2390012  92.6874997 119.8399988
  48.9000012  93.3304997 118.6399988  48.1937539  93.0176047 119.0385605
  50.3990012  94.3074997 118.2059988  51.0760012  93.6744997 117.9659988
  50.7210012  94.7084997 119.0129988  50.5351637  94.2751154 118.2822793
  55.3160012  76.8964997 117.2849988  54.5040012  77.2214997 116.8979988
  55.5490012  76.1364997 116.7519988  55.2362203  76.8382758 117.1598880
  41.1450012  94.8784997 116.0499988  40.4240012  95.3184997 115.5989988
  40.7790012  94.6274997 116.8979988  40.9969651  94.9047242 116.1029640
  43.6120012  94.4784997 115.0799988  42.7470012  94.5504997 115.4839988
  43.5570012  95.0254997 114.2959988  43.4862085  94.5622685 115.0293362
  48.3220012  94.3664997 114.2549988  47.8660012  94.8954997 113.6009988
  48.4850012  94.9694997 114.9799988  48.2816068  94.5204607 114.2634838
  50.6500012  93.2444997 115.1999988  49.7450012  93.4094997 114.9339988
  51.0790012  94.0974997 115.1349988  50.5841324  93.3824339 115.1547976
  53.2540012  94.8144997 115.4949988  53.0720012  95.7304997 115.2849988
  53.4310012  94.4044997 114.6489988  53.2530210  94.8844822 115.3517885
  40.5590012  93.5014997 112.9599988  40.5410012  93.0764997 113.8169988
  41.3640012  93.1834997 112.5509988  40.6653529  93.4003013 113.0220946
  42.7010012  92.2114997 111.6149988  42.4820012  91.2954997 111.7849988
  43.5250012  92.3514997 112.0809988  42.7824420  92.1050520 111.7012774
  45.2380012  92.6814997 112.4639988  45.4510012  91.7934997 112.1769988
  45.3020012  92.6474997 113.4179988  45.2758232  92.5553102 112.5537397
  48.7460012  78.3454997 111.6079988  48.0720012  77.7164997 111.8639988
  49.3100012  77.8614997 111.0049988  48.7299230  78.1938744 111.5615340
  53.8890012  76.4534997 111.7209988  54.4930012  77.0004997 111.2189988
  53.0190012  76.7724997 111.4799988  53.8541208  76.5715137 111.6196886
  41.0730012  76.9794997 109.4299988  40.2960012  76.7454997 108.9229988
  41.6030012  76.1824997 109.4389988  41.0382330  76.8396988 109.3617742
  39.9090012  76.7774997 105.2339988  40.3480012  77.3884997 104.6419988
  39.2760012  77.3154997 105.7079988  39.8834514  76.9339257 105.2170930
  45.6520012  76.9064997 109.2439988  46.5270012  77.2944997 109.2139988
  45.5160012  76.6914997 110.1659988  45.7533695  76.9305184 109.3646440
  39.8100012  92.7254997 106.1309988  39.1250012  92.6874997 105.4639988
  39.8140012  93.6384997 106.4199988  39.7166998  92.8436733 106.0786771
  55.3840012  93.4984997 107.2079988  55.1890012  92.7504997 106.6429988
  55.3450012  94.2564997 106.6249988  55.3520380  93.4986099 107.0518384
  41.0310012  77.4934997 118.9479988  40.6650012  76.7284997 119.3899988
  41.9440012  77.5224997 119.2339988  41.1042736  77.3925640 119.0472502
  43.0040012  76.8444997 120.4839988  43.9020012  76.5704997 120.2989988
  42.6170012  76.1014997 120.9479988  43.0746612  76.7065914 120.5213643
  51.4250012  76.1764997 120.6659988  51.5020012  75.7504997 121.5199988
  52.3190012  76.1904997 120.3229988  51.5563428  76.1200879 120.7365310
  54.6010012  92.2494997 119.3579988  53.8190012  92.0634997 118.8379988
  54.5290012  93.1784997 119.5759988  54.4842274  92.3496643 119.3163018
  67.9400012  85.3904997 112.8079988  67.9020012  84.7444997 113.5129988
  67.6180012  84.9244997 112.0369988  67.8912333  85.2389408 112.8002978
  60.3090012  85.0054997 114.4009988  60.3500012  84.3794997 115.1239988
  61.0120012  85.6294997 114.5829988  60.4096363  85.0041196 114.5246044
  71.6460012  88.3294997 111.1089988  71.2060012  87.6094997 111.5599988
  71.6330012  89.0504997 111.7389988  71.5840226  88.3283731 111.2558494
  61.2320012  89.4554997 112.9359988  60.8630012  88.6534997 112.5659988
  62.1730012  89.2864997 112.9819988  61.3087289  89.3230153 112.8916316
  57.8420012  83.1154997 108.3289988  57.3950012  83.9614997 108.3099988
  57.2810012  82.5354997 107.8129988  57.7049900  83.1529916 108.2566801
  58.5530012  85.2774997 110.4539988  58.7660012  84.5074997 110.9819988
  59.2910012  85.3664997 109.8509988  58.6819044  85.1841968 110.4447123
  68.7580012  93.4344997 111.3209988  69.3780012  92.7574997 111.0479988
  68.5500012  93.2164997 112.2299988  68.8146726  93.3124800 111.4064812
  66.3300012  87.8234997 113.2139988  66.6340012  87.1374997 112.6189988
  67.0510012  87.9414997 113.8319988  66.4690671  87.7456305 113.2161816
  74.9930012  79.4244997 114.0749988  75.0420012  80.0344997 114.8099988
  75.4180012  79.8854997 113.3519988  75.0571746  79.5703796 114.0779175
  69.4710012  82.2174997 113.5409988  69.6130012  81.2714997 113.5619988
  69.3640012  82.4244997 112.6129988  69.4759919  82.1158246 113.4183408
  62.6250012  80.3184997 110.8139988  62.6690012  81.1784997 110.3949988
  62.1680012  79.7664997 110.1799988  62.5692240  80.3614422 110.6709864
  70.3480012  80.4494997 109.2149988  70.9940012  80.1204997 109.8389988
  70.8580012  80.9674997 108.5919988  70.5054299  80.4744450 109.2162731
  59.2460012  82.7154997 111.5759988  59.8990012  82.1654997 112.0079988
  59.2700012  82.4414997 110.6589988  59.3386683  82.6031466 111.5112123
  75.3840012  80.9024997 116.3099988  74.6960012  81.5604997 116.2149988
  75.4000012  80.7054997 117.2469988  75.2919540  80.9659819 116.4235990
  61.4360012  79.2364997 114.8879988  61.2170012  79.7664997 114.1219988
  60.7680012  79.4634997 115.5349988  61.3157600  79.3396906 114.8706379
  68.8050012  88.7364997 108.4319988  68.5090012  88.4144997 107.5809988
  68.4800012  89.6364997 108.4729988  68.7206371  88.8140215 108.3211801
  64.0050012  86.9124997 115.1749988  63.2650012  87.5104997 115.2789988
  64.7190012  87.4664997 114.8599988  64.0002237  87.0692831 115.1466465
  72.1120012  79.7404997 111.1949988  71.8960012  78.9744997 111.7279988
  72.7670012  80.2124997 111.7079988  72.1710632  79.6995889 111.3372861
  61.0290012  81.1284997 112.8399988  61.6430012  81.7614997 113.2129988
  61.5410012  80.6564997 112.1839988  61.1821981  81.1512267 112.8022908
  62.4120012  88.8764997 115.9619988  62.4070012  89.7564997 115.5839988
  61.5590012  88.7934997 116.3869988  62.2959464  88.9856117 115.9677907
  58.5330012  88.5474997 106.7439988  58.2610012  88.7764997 105.8559988
  58.5790012  89.3854997 107.2049988  58.5019482  88.6921318 106.6846273
  72.1580012  90.1694997 113.4569988  71.2170012  90.2274997 113.6189988
  72.4350012  91.0754997 113.3199988  72.0664679  90.2999443 113.4606815
  72.4590012  78.4554997 114.8749988  71.7230012  79.0664997 114.8369988
  73.1420012  78.8704997 114.3479988  72.4506541  78.5951374 114.7985832
  65.4620012  76.5424997 112.3399988  65.3450012  75.5934997 112.2859988
  64.6070012  76.8744997 112.6139988  65.3304212  76.4575571 112.3696497
  70.4100012  91.9504997 110.0819988  70.8360012  91.2434997 109.5969988
  70.7270012  92.7514997 109.6659988  70.5111683  91.9621017 109.9593680
  71.5700012  89.8514997 108.5909988  71.3120012  89.1614997 107.9799988
  71.6410012  89.4084997 109.4369988  71.5442856  89.6972124 108.6216885
  73.2560012  88.4174997 117.0679988  73.3960012  87.8264997 116.3289988
  73.4230012  89.2904997 116.7119988  73.2977411  88.4545428 116.9186894
  75.0980012  84.7574997 115.1339988  74.4450012  85.4524997 115.2239988
  75.5630012  84.9674997 114.3249988  75.0715274  84.8810643 115.0368462
  71.0320012  83.7634997 116.8599988  71.1120012  84.5264997 117.4319988
  70.4300012  84.0424997 116.1699988  70.9615756  83.9057134 116.8450589
  62.7800012  86.2194997 109.6749988  62.4490012  85.8494997 108.8569988
  63.3680012  85.5494997 110.0219988  62.8141873  86.0781156 109.6098102
  64.1460012  89.6474997 112.3559988  64.0520012  89.0694997 111.5999988
  64.8760012  89.2764997 112.8529988  64.2317387  89.5181663 112.3195342
  63.1460012  84.9884997 113.3089988  63.7120012  85.1094997 112.5459988
  63.4650012  85.6254997 113.9469988  63.2665474  85.0912219 113.2909862
  69.4550012  90.4914997 114.0429988  69.2150012  91.1534997 114.6909988
  69.2570012  89.6574997 114.4679988  69.3953808  90.4693134 114.1891524
  64.0260012  89.3874997 118.0259988  63.7150012  90.1694997 118.4809988
  63.3760012  89.2344997 117.3399988  63.8955558  89.4739105 117.9955871
  60.9460012  85.5854997 117.2539988  61.0170012  86.2364997 117.9529988
  60.0560012  85.6884997 116.9189988  60.8353005  85.6885427 117.3043495
  67.7320012  91.4884997 108.9129988  68.2060012  91.7834997 109.6899988
  67.1690012  92.2264997 108.6799988  67.7208184  91.6287247 108.9879628
  62.2660012  91.4594997 118.7889988  62.2730012  91.3234997 117.8419988
  61.3500012  91.3414997 119.0409988  62.1431714  91.4249430 118.6934666
  61.7700012  85.2894997 107.2639988  61.4780012  86.0574997 106.7739988
  61.0960012  84.6294997 107.1019988  61.6388111  85.3055587 107.1748978
  74.8930012  90.8674997 103.6669988  74.9670012  91.8064997 103.8379988
  75.7990012  90.5624997 103.6109988  75.0255100  90.9546722 103.6828119
  57.8630012  87.6524997 116.0789988  57.3620012  87.6244997 115.2639988
  57.8680012  86.7464997 116.3889988  57.7950944  87.5262396 116.0093226
  57.6130012  90.4324997 112.9629988  58.5590012  90.2884997 112.9439988
  57.5010012  91.2164997 113.4999988  57.7272727  90.5188046 113.0330072
  75.8110012  91.0984997 118.6459988  75.7620012  90.1434997 118.6089988
  74.9840012  91.3664997 119.0469988  75.6924940  91.0038998 118.6951375
  66.7900012  90.6724997 117.5219988  66.8770012  91.4984997 117.9969988
  65.9260012  90.3424997 117.7709988  66.6851964  90.7409878 117.6206549
  67.2040012  94.4444997 107.3279988  67.1290012  94.3234997 106.3809988
  67.2370012  95.3944997 107.4459988  67.1982068  94.5562646 107.2144967
  60.8570012  93.2334997 109.1089988  61.0100012  92.8854997 109.9869988
  60.0070012  92.8774997 108.8539988  60.7629166  93.1376216 109.1948079
  70.3060012  93.5984997 104.3299988  70.6810012  92.8544997 103.8589988
  70.3100012  93.3284997 105.2489988  70.3579125  93.4600986 104.3896483
  69.9750012  93.5244997 107.0789988  69.0390012  93.6244997 107.2579988
  70.2550012  92.8154997 107.6579988  69.8849553  93.4423406 107.1817087
  72.9630012  82.5914997 119.1259988  72.5560012  83.0724997 118.4049988
  73.0040012  81.6864997 118.8179988  72.9128437  82.5349374 118.9856683
  60.1120012  88.9754997 117.1229988  60.3280012  88.6144997 117.9819988
  59.2570012  88.6014997 116.9129988  60.0259292  88.8754111 117.2123386
  62.7310012  77.4454997 113.1179988  61.8690012  77.3584997 112.7099988
  62.7080012  78.3014997 113.5459988  62.6100409  77.5492883 113.1200589
  67.3940012  77.1674997 116.4929988  67.8140012  76.7524997 117.2459988
  66.4610012  76.9894997 116.6099988  67.3253644  77.0865900 116.6119539
  70.7200012  80.9234997 117.3459988  70.2060012  80.7974997 118.1439988
  70.5650012  81.8354997 117.1019988  70.6286852  81.0296132 117.4222158
  62.8220012  82.4114997 114.2129988  62.1800012  82.3704997 114.9219988
  62.8590012  83.3374997 113.9749988  62.7390664  82.5311430 114.2779219
  67.4560012  83.2234997 119.4299988  66.8940012  82.5194997 119.7509988
  68.2830012  83.1034997 119.8979988  67.4907095  83.1107883 119.5372330
  69.3590012  82.4944997 110.7559988  69.1640012  83.0994997 110.0409988
  69.5400012  81.6604997 110.3219988  69.3567614  82.4646300 110.5994405
  60.5720012  82.7314997 116.0799988  60.5340012  83.1314997 116.9489988
  60.0810012  81.9144997 116.1709988  60.5004684  82.6758069 116.2111059
  68.6230012  84.1324997 115.4269988  68.9460012  83.5014997 114.7839988
  68.1830012  83.5974997 116.0879988  68.6077484  83.9738387 115.4283198
  65.4000012  80.0594997 110.2109988  64.4890012  80.1164997 110.4999988
  65.9060012  79.9994997 111.0219988  65.3436899  80.0591941 110.3601184
  60.2290012  81.6884997 109.0379988  59.3390012  81.7884997 108.6979988
  60.5250012  80.8464997 108.6919988  60.1472823  81.5883545 108.9447213
  69.8050012  79.2944997 113.4759988  69.1290012  79.4254997 114.1399988
  69.3200012  79.1394997 112.6649988  69.6467146  79.2915157 113.4574469
  73.0930012  94.9664997 119.7519988  73.2930012  95.3904997 118.9179988
  73.7480012  95.3094997 120.3589988  73.2090072  95.0709857 119.7198592
  60.6910012  87.4404997 119.3599988  61.4230012  87.6944997 119.9219988
  59.9110012  87.6444997 119.8759988  60.6857073  87.5028160 119.5066151
  66.7200012  82.8474997 112.0979988  67.2850012  82.3004997 111.5509988
  66.5730012  82.3254997 112.8869988  66.7773380  82.7022259 112.1298695
  61.7220012  78.9834997 108.5169988  61.4050012  78.0814997 108.4809988
  62.5040012  78.9854997 107.9639988  61.7842408  78.8602474 108.4373569
  65.3470012  81.2354997 114.5119988  64.5110012  81.6894997 114.6229988
  65.8710012  81.5114997 115.2639988  65.3035416  81.3348660 114.6288119
  73.0410012  86.5814997 114.9839988  73.6830012  87.0384997 114.4399988
  72.2110012  86.6944997 114.5209988  73.0165963  86.6592704 114.8470177
  67.4100012  87.6324997 117.4339988  67.0650012  87.2514997 118.2409988
  67.2100012  88.5664997 117.5049988  67.3357527  87.7065135 117.5540689
  61.0160012  86.7434997 111.9669988  61.7610012  86.7414997 111.3659988
  61.0940012  85.9204997 112.4479988  61.1284995  86.6318887 111.9498282
  58.0240012  85.2044997 117.2819988  58.2470012  84.7864997 118.1139988
  57.4220012  84.5914997 116.8589988  57.9731759  85.0644668 117.3387022
  65.0400012  84.7214997 119.4949988  64.7440012  84.5554997 118.5999988
  65.9720012  84.5014997 119.4839988  65.1254166  84.6690640 119.3710536
  69.6610012  90.0944997 117.3849988  68.7600012  90.2774997 117.1169988
  69.6950012  90.3534997 118.3049988  69.5423139  90.1545849 117.4728099
  75.3550012  88.1394997 118.5889988  74.5040012  88.3774997 118.2219988
  75.9460012  88.1224997 117.8359988  75.3182487  88.1698258 118.4368893
  73.6870012  91.1254997 106.2169988  73.3140012  90.2994997 106.5259988
  73.9650012  90.9424997 105.3189988  73.6735222  90.9877430 106.1379473
  70.8480012  85.9334997 113.2379988  69.9190012  85.7014997 113.2109988
  71.2990012  85.1564997 112.9079988  70.7819216  85.7967238 113.1896917
  63.3910012  90.2614997 109.3709988  63.9180012  91.0344997 109.1709988
  62.5110012  90.4864997 109.0689988  63.3442031  90.3977545 109.3027912
  64.8180012  87.9244997 108.9469988  64.5770012  88.8494997 108.9889988
  64.0770012  87.4654997 109.3439988  64.6849225  87.9890933 109.0063742
  65.3330012  92.0734997 115.2629988  65.6950012  92.9284997 115.0289988
  65.8640012  91.7814997 116.0029988  65.4544473  92.1511060 115.3310855
  63.5010012  92.9464997 108.4929988  62.5510012  93.0514997 108.5439988
  63.8530012  93.7664997 108.8369988  63.4184195  93.0718800 108.5465502
  68.8770012  88.1724997 114.9629988  68.4510012  87.9454997 115.7899988
  69.4570012  87.4344997 114.7809988  68.8971868  88.0415299 115.0515830
  71.5350012  92.7244997 117.4329988  70.9340012  92.1694997 116.9369988
  71.8170012  93.3914997 116.8059988  71.4908804  92.7386625 117.2804849
  59.6580012  79.9574997 116.8399988  58.7650012  80.2964997 116.7719988
  59.5590012  79.1024997 117.2579988  59.5224164  79.8882588 116.8872235
  59.3090012  91.7624997 115.2749988  59.5260012  90.8304997 115.2439988
  59.5550012  92.0364997 116.1579988  59.3719549  91.6720636 115.3901763
  64.1080012  89.7834997 104.9399988  64.2540012  89.2634997 105.7299988
  64.1050012  90.6904997 105.2469988  64.1275792  89.8348842 105.0896117
  60.5610012  87.0364997 105.4509988  59.8750012  87.3884997 106.0179988
  61.0830012  87.7994997 105.2039988  60.5376852  87.1878578 105.4952118
  68.3920012  79.6984997 115.7299988  69.0910012  79.7724997 116.3799988
  68.0110012  78.8344997 115.8839988  68.4361767  79.5917624 115.8398322
  66.8450012  91.4814997 105.6899988  66.0290012  91.9784997 105.7419988
  67.3750012  91.9564997 105.0499988  66.8049161  91.6137722 105.6105956
  66.9120012  82.0644997 116.8459988  67.0310012  82.6384997 117.6039988
  67.5680012  81.3764997 116.9609988  67.0169025  82.0499858 116.9651321
  67.2600012  78.1594997 108.5999988  66.9140012  78.7774997 109.2439988
  67.9190012  78.6604997 108.1179988  67.3016968  78.3116278 108.6229383
  64.1840012  92.5254997 105.6709988  64.3440012  93.3244997 105.1709988
  63.9860012  92.8314997 106.5559988  64.1791637  92.6764020 105.7221144
  73.1170012  79.9714997 117.6809988  72.2000012  80.2344997 117.5939988
  73.4520012  79.9684997 116.7849988  73.0368613  80.0070761 117.5478837
  71.7190012  83.7224997 111.7769988  70.9210012  83.3074997 111.4489988
  72.1640012  83.0314997 112.2679988  71.6699885  83.5723543 111.7984889
  61.1770012  89.6504997 104.3479988  61.7690012  90.3494997 104.6239988
  61.6360012  89.2174997 103.6279988  61.3201142  89.6877049 104.2884830
  72.8050012  92.9784997 113.3999988  72.6500012  93.6564997 112.7419988
  73.7380012  93.0504997 113.6029988  72.9098657  93.0809546 113.3374360
  60.3010012  77.0964997 112.1369988  60.0720012  77.1554997 111.2089988
  59.8580012  76.3044997 112.4429988  60.2098530  76.9975753 112.0514786
  59.2310012  91.0364997 108.2969988  58.3990012  91.5094997 108.3239988
  59.7770012  91.5464997 107.6989988  59.1910352  91.1701332 108.2198463
  58.5190012  93.6494997 119.6269988  59.0600012  93.4324997 120.3869988
  58.0380012  92.8434997 119.4369988  58.5279951  93.5109270 119.7052576
  63.1170012  92.5684997 121.2469988  63.8840012  92.1094997 121.5879988
  63.0950012  92.3424997 120.3179988  63.2191275  92.4750186 121.1680101
  69.6940012  90.9484997 119.9769988  69.3430012  90.0924997 120.2199988
  70.4200012  91.0914997 120.5839988  69.7440769  90.8505636 120.0923619
  71.8130012  91.8934997 102.8559988  72.0960012  91.0994997 103.3089988
  72.5530012  92.1264997 102.2959988  71.9518006  91.8163376 102.8422715
  58.4260012  87.4594997 120.5809988  58.5700012  86.5574997 120.2949988
  57.6540012  87.7454997 120.0939988  58.3412753  87.3746816 120.4759505
  65.0820012  87.4294997 120.0139988  64.7530012  87.7004997 119.1569988
  65.2340012  86.4884997 119.9269988  65.0574809  87.3393862 119.8848244
  70.8160012  87.3454997 117.3969988  71.5620012  87.9334997 117.2779988
  70.0590012  87.9274997 117.4609988  70.8157820  87.5047143 117.3893590
  59.2590012  84.6594997 120.0009988  59.6670012  83.8024997 119.8799988
  58.9990012  84.6744997 120.9219988  59.2797568  84.5440807 120.1089588
  63.2060012  83.6684997 117.3759988  62.5880012  84.3434997 117.6559988
  63.5500012  83.9894997 116.5419988  63.1679132  83.8042411 117.3016262
  68.2260012  86.1404997 120.6529988  69.1790012  86.2234997 120.6259988
  68.0650012  85.4284997 121.2729988  68.3346426  86.0556746 120.7330579
  63.5450012  81.0234997 118.4579988  63.6950012  80.2944997 117.8559988
  63.5480012  81.8004997 117.8989988  63.5659302  81.0287851 118.3000692
  63.9580012  79.3934997 115.9509988  64.4940012  79.8444997 115.2989988
  63.1060012  79.2854997 115.5279988  63.9162178  79.4406390 115.8045756
  65.5400012  84.8324997 116.1899988  66.2900012  84.6764997 115.6169988
  65.2010012  85.6844997 115.9149988  65.5968921  84.9262968 116.0743561
  69.9550012  82.6474997 121.2189988  70.1480012  81.7164997 121.1069988
  70.8130012  83.0724997 121.2079988  70.0972934  82.5776531 121.2022031
  71.2720012  85.4364997 119.2959988  70.9910012  86.1454997 118.7179988
  72.2150012  85.3634997 119.1449988  71.3609291  85.5236711 119.1964967
  62.0240012  82.2214997 120.3699988  61.2570012  81.6894997 120.1589988
  62.7030012  81.9114997 119.7699988  62.0107877  82.1068300 120.2600716
  64.7640012  76.8494997 116.3819988  64.6650012  77.7964997 116.2769988
  64.0210012  76.4774997 115.9059988  64.6501184  76.9285863 116.3033621
  66.0280012  81.1714997 119.9459988  65.7920012  80.9514997 120.8469988
  65.2440012  80.9644997 119.4359988  65.8898504  81.1134586 120.0003431
  68.7430012  80.2984997 119.0209988  67.7960012  80.3304997 119.1539988
  69.0560012  79.6734997 119.6749988  68.6556707  80.2183998 119.1276060
  70.3770012  78.9324997 121.0269988  70.2810012  77.9804997 121.0209988
  70.0560012  79.2014997 121.8869988  70.3204070  78.8384035 121.1425441
  60.2040012  80.1424997 120.0739988  60.4160012  79.4354997 119.4639988
  60.0930012  79.7044997 120.9179988  60.2179721  79.9867084 120.1046843
  64.9850012  76.1434997 119.0529988  65.6970012  75.5034997 119.0389988
  64.8840012  76.4104997 118.1399988  65.0688066  76.0920079 118.9275677
  65.3390012  77.8264997 121.1069988  65.2070012  77.3504997 120.2869988
  64.7400012  78.5704997 121.0519988  65.2399071  77.8619618 120.9872886
  64.8850012  94.7094997 104.2829988  65.8180012  94.8674997 104.4269988
  64.6210012  95.3844997 103.6589988  64.9769888  94.8224510 104.2182842
  57.1030012  94.7384997 108.8439988  56.4560012  94.2764997 108.3109988
  57.4570012  94.0664997 109.4259988  57.0623849  94.5844723 108.8497959
  57.9730012  92.8194997 110.6479988  57.6380012  91.9394997 110.8199988
  58.1950012  93.1644997 111.5129988  57.9571783  92.7457500 110.7884208
  75.5210012  93.6284997 113.6289988  75.5000012  93.8134997 114.5679988
  76.2120012  94.1974997 113.2879988  75.6114618  93.7306606 113.7113864
  75.0850012  93.1964997 116.5509988  74.5970012  92.4604997 116.1789988
  75.6340012  92.8024997 117.2289988  75.0924820  93.0425889 116.5917813
  73.5350012  88.9854997 121.1889988  72.6690012  88.8804997 121.5829988
  73.9120012  89.7444997 121.6349988  73.4673308  89.0736900 121.3032393
  74.8360012  87.2424997 106.7029988  75.6860012  87.6634997 106.8299988
  74.8420012  86.5024997 107.3099988  74.9531372  87.2000803 106.8024344
  75.2310012  85.2954997 108.5259988  74.5040012  84.8164997 108.9239988
  75.8120012  85.5014997 109.2589988  75.2100473  85.2578103 108.6794528
  74.9900012  88.0804997 113.4739988  75.8230012  87.7024997 113.1939988
  75.1020012  89.0234997 113.3549988  75.1192647  88.1562218 113.4195487
  73.4760012  90.9584997 115.7809988  72.8290012  91.2834997 116.4069988
  72.9590012  90.5184997 115.1069988  73.3174029  90.9435004 115.7755827
  75.4990012  85.1964997 104.9179988  74.9770012  85.5534997 104.1989988
  75.4660012  85.8714997 105.5959988  75.4231634  85.3365413 104.9113145
  73.0170012  83.8164997 109.0889988  72.8670012  82.8714997 109.0689988
  72.6640012  84.0974997 109.9329988  72.9487448  83.7251481 109.2003705
  58.0530012  85.8944997 113.0999988  58.2370012  85.8124997 112.1639988
  58.9020012  85.7704997 113.5229988  58.1930151  85.8665073 113.0291451
  73.8740012  85.7864997 118.7279988  74.4570012  85.0524997 118.9199988
  74.4380012  86.5584997 118.7749988  74.0299769  85.7904227 118.7606159
  75.3700012  83.6894997 119.4129988  74.5070012  83.3104997 119.2469988
  75.9750012  82.9504997 119.3379988  75.3336119  83.5378268 119.3801528
  73.3400012  81.9804997 112.9879988  74.2730012  82.1924997 112.9529988
  73.1050012  82.0824997 113.9099988  73.4359244  82.0233100 113.1078892
  73.3690012  82.7174997 115.7639988  72.5260012  82.9854997 116.1299988
  73.8110012  83.5394997 115.5529988  73.3134158  82.8653291 115.7855491
  57.6500012  81.1654997 119.2409988  58.5700012  81.0434997 119.4769988
  57.2010012  80.4154997 119.6299988  57.7151580  81.0473727 119.3259006
  75.6520012  76.6974997 121.1169988  76.0020012  76.0434997 120.5119988
  75.7990012  77.5344997 120.6769988  75.7197887  76.7211548 120.9746858
  58.8710012  79.4774997 112.1319988  59.3170012  78.6854997 112.4339988
  59.3380012  80.1934997 112.5619988  58.9950831  79.4660685 112.2314006
  57.1750012  82.4764997 113.2009988  57.6670012  82.2554997 112.4099988
  57.5380012  83.3174997 113.4819988  57.2913126  82.5598357 113.1307531
  75.1720012  78.8064997 119.4659988  74.2540012  79.0774997 119.4309988
  75.2950012  78.2714997 118.6819988  75.0629729  78.7712508 119.3551923
  72.2600012  93.7184997 109.2009988  72.9120012  93.3714997 108.5929988
  72.7700012  94.2074997 109.8469988  72.4182637  93.7370597 109.2050236
  57.4530012  77.4724997 115.5989988  56.7880012  77.2264997 116.2429988
  57.0100012  78.0944997 115.0219988  57.3021318  77.5229410 115.6090898
  59.6450012  90.6474997 119.7439988  58.8240012  90.8224997 119.2829988
  59.3920012  90.5744997 120.6639988  59.4985585  90.6615544 119.8053561
  62.5990012  91.6224997 116.0019988  62.1740012  92.4314997 115.7199988
  63.5030012  91.7074997 115.6999988  62.6629975  91.7449300 115.9224816
  66.9100012  93.0214997 118.9619988  67.0950012  92.6874997 119.8399988
  67.7560012  93.3304997 118.6399988  67.0497539  93.0176047 119.0385605
  69.2550012  94.3074997 118.2059988  69.9320012  93.6744997 117.9659988
  69.5770012  94.7084997 119.0129988  69.3911637  94.2751154 118.2822793
  74.1720012  76.8964997 117.2849988  73.3600012  77.2214997 116.8979988
  74.4050012  76.1364997 116.7519988  74.0922203  76.8382758 117.1598880
  60.0010012  94.8784997 116.0499988  59.2800012  95.3184997 115.5989988
  59.6350012  94.6274997 116.8979988  59.8529651  94.9047242 116.1029640
  62.4680012  94.4784997 115.0799988  61.6030012  94.5504997 115.4839988
  62.4130012  95.0254997 114.2959988  62.3422085  94.5622685 115.0293362
  67.1780012  94.3664997 114.2549988  66.7220012  94.8954997 113.6009988
  67.3410012  94.9694997 114.9799988  67.1376068  94.5204607 114.2634838
  69.5060012  93.2444997 115.1999988  68.6010012  93.4094997 114.9339988
  69.9350012  94.0974997 115.1349988  69.4401324  93.3824339 115.1547976
  72.1100012  94.8144997 115.4949988  71.9280012  95.7304997 115.2849988
  72.2870012  94.4044997 114.6489988  72.1090210  94.8844822 115.3517885
  59.4150012  93.5014997 112.9599988  59.3970012  93.0764997 113.8169988
  60.2200012  93.1834997 112.5509988  59.5213529  93.4003013 113.0220946
  61.5570012  92.2114997 111.6149988  61.3380012  91.2954997 111.7849988
  62.3810012  92.3514997 112.0809988  61.6384420  92.1050520 111.7012774
  64.0940012  92.6814997 112.4639988  64.3070012  91.7934997 112.1769988
  64.1580012  92.6474997 113.4179988  64.1318232  92.5553102 112.5537397
  67.6020012  78.3454997 111.6079988  66.9280012  77.7164997 111.8639988
  68.1660012  77.8614997 111.0049988  67.5859230  78.1938744 111.5615340
  72.7450012  76.4534997 111.7209988  73.3490012  77.0004997 111.2189988
  71.8750012  76.7724997 111.4799988  72.7101208  76.5715137 111.6196886
  74.4720012  77.5914997 110.0539988  75.0840012  77.0774997 109.5269988
  74.8540012  78.4694997 110.0769988  74.6073371  77.6397866 109.9850041
  59.9290012  76.9794997 109.4299988  59.1520012  76.7454997 108.9229988
  60.4590012  76.1824997 109.4389988  59.8942330  76.8396988 109.3617742
  64.5080012  76.9064997 109.2439988  65.3830012  77.2944997 109.2139988
  64.3720012  76.6914997 110.1659988  64.6093695  76.9305184 109.3646440
  70.0650012  76.9364997 110.8929988  70.1410012  77.0314997 109.9429988
  69.7900012  76.0284997 111.0219988  70.0382321  76.8267867 110.7805079
  74.2400012  93.4984997 107.2079988  74.0450012  92.7504997 106.6429988
  74.2010012  94.2564997 106.6249988  74.2080380  93.4986099 107.0518384
  59.8870012  77.4934997 118.9479988  59.5210012  76.7284997 119.3899988
  60.8000012  77.5224997 119.2339988  59.9602736  77.3925640 119.0472502
  61.8600012  76.8444997 120.4839988  62.7580012  76.5704997 120.2989988
  61.4730012  76.1014997 120.9479988  61.9306612  76.7065914 120.5213643
  70.2810012  76.1764997 120.6659988  70.3580012  75.7504997 121.5199988
  71.1750012  76.1904997 120.3229988  70.4123428  76.1200879 120.7365310
  73.4570012  92.2494997 119.3579988  72.6750012  92.0634997 118.8379988
  73.3850012  93.1784997 119.5759988  73.3402274  92.3496643 119.3163018
  87.8630012  86.1354997 109.3889988  87.9520012  87.0794997 109.2569988
  87.2250012  85.8604997 108.7309988  87.7889081  86.2274830 109.2819614
  86.7960012  85.3904997 112.8079988  86.7580012  84.7444997 113.5129988
  86.4740012  84.9244997 112.0369988  86.7472333  85.2389408 112.8002978
  79.1650012  85.0054997 114.4009988  79.2060012  84.3794997 115.1239988
  79.8680012  85.6294997 114.5829988  79.2656363  85.0041196 114.5246044
  90.5020012  88.3294997 111.1089988  90.0620012  87.6094997 111.5599988
  90.4890012  89.0504997 111.7389988  90.4400226  88.3283731 111.2558494
  80.0880012  89.4554997 112.9359988  79.7190012  88.6534997 112.5659988
  81.0290012  89.2864997 112.9819988  80.1647289  89.3230153 112.8916316
  76.6980012  83.1154997 108.3289988  76.2510012  83.9614997 108.3099988
  76.1370012  82.5354997 107.8129988  76.5609900  83.1529916 108.2566801
  77.4090012  85.2774997 110.4539988  77.6220012  84.5074997 110.9819988
  78.1470012  85.3664997 109.8509988  77.5379044  85.1841968 110.4447123
  87.6140012  93.4344997 111.3209988  88.2340012  92.7574997 111.0479988
  87.4060012  93.2164997 112.2299988  87.6706726  93.3124800 111.4064812
  85.1860012  87.8234997 113.2139988  85.4900012  87.1374997 112.6189988
  85.9070012  87.9414997 113.8319988  85.3250671  87.7456305 113.2161816
  93.8490012  79.4244997 114.0749988  93.8980012  80.0344997 114.8099988
  94.2740012  79.8854997 113.3519988  93.9131746  79.5703796 114.0779175
  88.3270012  82.2174997 113.5409988  88.4690012  81.2714997 113.5619988
  88.2200012  82.4244997 112.6129988  88.3319919  82.1158246 113.4183408
  81.4810012  80.3184997 110.8139988  81.5250012  81.1784997 110.3949988
  81.0240012  79.7664997 110.1799988  81.4252240  80.3614422 110.6709864
  89.2040012  80.4494997 109.2149988  89.8500012  80.1204997 109.8389988
  89.7140012  80.9674997 108.5919988  89.3614299  80.4744450 109.2162731
  78.1020012  82.7154997 111.5759988  78.7550012  82.1654997 112.0079988
  78.1260012  82.4414997 110.6589988  78.1946683  82.6031466 111.5112123
  83.2580012  84.2654997 110.7909988  83.8740012  83.7394997 111.3009988
  82.6720012  83.6254997 110.3879988  83.2630810  84.1069208 110.8063173
  94.2400012  80.9024997 116.3099988  93.5520012  81.5604997 116.2149988
  94.2560012  80.7054997 117.2469988  94.1479540  80.9659819 116.4235990
  80.2920012  79.2364997 114.8879988  80.0730012  79.7664997 114.1219988
  79.6240012  79.4634997 115.5349988  80.1717600  79.3396906 114.8706379
  87.6610012  88.7364997 108.4319988  87.3650012  88.4144997 107.5809988
  87.3360012  89.6364997 108.4729988  87.5766371  88.8140215 108.3211801
  82.8610012  86.9124997 115.1749988  82.1210012  87.5104997 115.2789988
  83.5750012  87.4664997 114.8599988  82.8562237  87.0692831 115.1466465
  90.9680012  79.7404997 111.1949988  90.7520012  78.9744997 111.7279988
  91.6230012  80.2124997 111.7079988  91.0270632  79.6995889 111.3372861
  79.8850012  81.1284997 112.8399988  80.4990012  81.7614997 113.2129988
  80.3970012  80.6564997 112.1839988  80.0381981  81.1512267 112.8022908
  81.2680012  88.8764997 115.9619988  81.2630012  89.7564997 115.5839988
  80.4150012  88.7934997 116.3869988  81.1519464  88.9856117 115.9677907
  77.3890012  88.5474997 106.7439988  77.1170012  88.7764997 105.8559988
  77.4350012  89.3854997 107.2049988  77.3579482  88.6921318 106.6846273
  91.0140012  90.1694997 113.4569988  90.0730012  90.2274997 113.6189988
  91.2910012  91.0754997 113.3199988  90.9224679  90.2999443 113.4606815
  91.3150012  78.4554997 114.8749988  90.5790012  79.0664997 114.8369988
  91.9980012  78.8704997 114.3479988  91.3066541  78.5951374 114.7985832
  84.3180012  76.5424997 112.3399988  84.2010012  75.5934997 112.2859988
  83.4630012  76.8744997 112.6139988  84.1864212  76.4575571 112.3696497
  89.2660012  91.9504997 110.0819988  89.6920012  91.2434997 109.5969988
  89.5830012  92.7514997 109.6659988  89.3671683  91.9621017 109.9593680
  90.4260012  89.8514997 108.5909988  90.1680012  89.1614997 107.9799988
  90.4970012  89.4084997 109.4369988  90.4002856  89.6972124 108.6216885
  92.1120012  88.4174997 117.0679988  92.2520012  87.8264997 116.3289988
  92.2790012  89.2904997 116.7119988  92.1537411  88.4545428 116.9186894
  86.5850012  85.3794997 106.8409988  85.8730012  85.9144997 106.4889988
  87.2760012  85.4354997 106.1809988  86.5810132  85.4602543 106.7036289
  93.9540012  84.7574997 115.1339988  93.3010012  85.4524997 115.2239988
  94.4190012  84.9674997 114.3249988  93.9275274  84.8810643 115.0368462
  89.9900012  85.5894997 107.7929988  89.2580012  85.8174997 108.3659988
  90.4380012  84.8754997 108.2469988  89.9502725  85.5242145 107.9328816
  89.8880012  83.7634997 116.8599988  89.9680012  84.5264997 117.4319988
  89.2860012  84.0424997 116.1699988  89.8175756  83.9057134 116.8450589
  81.6360012  86.2194997 109.6749988  81.3050012  85.8494997 108.8569988
  82.2240012  85.5494997 110.0219988  81.6701873  86.0781156 109.6098102
  83.0020012  89.6474997 112.3559988  82.9080012  89.0694997 111.5999988
  83.7320012  89.2764997 112.8529988  83.0877387  89.5181663 112.3195342
  82.0020012  84.9884997 113.3089988  82.5680012  85.1094997 112.5459988
  82.3210012  85.6254997 113.9469988  82.1225474  85.0912219 113.2909862
  88.3110012  90.4914997 114.0429988  88.0710012  91.1534997 114.6909988
  88.1130012  89.6574997 114.4679988  88.2513808  90.4693134 114.1891524
  82.8820012  89.3874997 118.0259988  82.5710012  90.1694997 118.4809988
  82.2320012  89.2344997 117.3399988  82.7515558  89.4739105 117.9955871
  88.8610012  84.7514997 105.4779988  89.4410012  84.9014997 106.2249988
  89.2750012  85.2224997 104.7539988  88.9962997  84.8356578 105.4824058
  79.8020012  85.5854997 117.2539988  79.8730012  86.2364997 117.9529988
  78.9120012  85.6884997 116.9189988  79.6913005  85.6885427 117.3043495
  86.5880012  91.4884997 108.9129988  87.0620012  91.7834997 109.6899988
  86.0250012  92.2264997 108.6799988  86.5768184  91.6287247 108.9879628
  81.1220012  91.4594997 118.7889988  81.1290012  91.3234997 117.8419988
  80.2060012  91.3414997 119.0409988  80.9991714  91.4249430 118.6934666
  92.5600012  76.5014997 105.2909988  91.6600012  76.6404997 105.5859988
  92.8120012  77.3324997 104.8889988  92.4708702  76.6329074 105.2770205
  80.6260012  85.2894997 107.2639988  80.3340012  86.0574997 106.7739988
  79.9520012  84.6294997 107.1019988  80.4948111  85.3055587 107.1748978
  76.7190012  87.6524997 116.0789988  76.2180012  87.6244997 115.2639988
  76.7240012  86.7464997 116.3889988  76.6510944  87.5262396 116.0093226
  76.4690012  90.4324997 112.9629988  77.4150012  90.2884997 112.9439988
  76.3570012  91.2164997 113.4999988  76.5832727  90.5188046 113.0330072
  94.6670012  91.0984997 118.6459988  94.6180012  90.1434997 118.6089988
  93.8400012  91.3664997 119.0469988  94.5484940  91.0038998 118.6951375
  85.6460012  90.6724997 117.5219988  85.7330012  91.4984997 117.9969988
  84.7820012  90.3424997 117.7709988  85.5411964  90.7409878 117.6206549
  86.0600012  94.4444997 107.3279988  85.9850012  94.3234997 106.3809988
  86.0930012  95.3944997 107.4459988  86.0542068  94.5562646 107.2144967
  79.7130012  93.2334997 109.1089988  79.8660012  92.8854997 109.9869988
  78.8630012  92.8774997 108.8539988  79.6189166  93.1376216 109.1948079
  89.1620012  93.5984997 104.3299988  89.5370012  92.8544997 103.8589988
  89.1660012  93.3284997 105.2489988  89.2139125  93.4600986 104.3896483
  88.8310012  93.5244997 107.0789988  87.8950012  93.6244997 107.2579988
  89.1110012  92.8154997 107.6579988  88.7409553  93.4423406 107.1817087
  91.8190012  82.5914997 119.1259988  91.4120012  83.0724997 118.4049988
  91.8600012  81.6864997 118.8179988  91.7688437  82.5349374 118.9856683
  78.9680012  88.9754997 117.1229988  79.1840012  88.6144997 117.9819988
  78.1130012  88.6014997 116.9129988  78.8819292  88.8754111 117.2123386
  81.5870012  77.4454997 113.1179988  80.7250012  77.3584997 112.7099988
  81.5640012  78.3014997 113.5459988  81.4660409  77.5492883 113.1200589
  86.2500012  77.1674997 116.4929988  86.6700012  76.7524997 117.2459988
  85.3170012  76.9894997 116.6099988  86.1813644  77.0865900 116.6119539
  89.5760012  80.9234997 117.3459988  89.0620012  80.7974997 118.1439988
  89.4210012  81.8354997 117.1019988  89.4846852  81.0296132 117.4222158
  85.9110012  79.6604997 103.7779988  85.6580012  79.6794997 104.7009988
  85.6550012  78.7884997 103.4759988  85.8417481  79.5452558 103.8636175
  81.6780012  82.4114997 114.2129988  81.0360012  82.3704997 114.9219988
  81.7150012  83.3374997 113.9749988  81.5950664  82.5311430 114.2779219
  81.6750012  82.6324997 109.1249988  80.7820012  82.2914997 109.0659988
  82.1250012  82.2554997 108.3689988  81.6138130  82.5349631 109.0147702
  87.2100012  83.0484997 107.9419988  86.8010012  83.8634997 107.6509988
  87.9310012  82.9084997 107.3279988  87.2514537  83.1412018 107.8191342
  86.3120012  83.2234997 119.4299988  85.7500012  82.5194997 119.7509988
  87.1390012  83.1034997 119.8979988  86.3467095  83.1107883 119.5372330
  88.2150012  82.4944997 110.7559988  88.0200012  83.0994997 110.0409988
  88.3960012  81.6604997 110.3219988  88.2127614  82.4646300 110.5994405
  79.4280012  82.7314997 116.0799988  79.3900012  83.1314997 116.9489988
  78.9370012  81.9144997 116.1709988  79.3564684  82.6758069 116.2111059
  82.7940012  80.1054997 102.8789988  82.3630012  79.6604997 103.6089988
  82.0760012  80.4774997 102.3669988  82.6379438  80.0948940 102.9096799
  76.0360012  79.8474997 109.9309988  76.6670012  79.8184997 110.6499988
  76.4850012  79.4224997 109.1999988  76.1830918  79.7860836 109.9306441
  77.3100012  80.5934997 105.3549988  77.7840012  81.1844997 104.7699988
  76.5930012  81.1244997 105.7019988  77.2779341  80.7460867 105.3218836
  87.4790012  84.1324997 115.4269988  87.8020012  83.5014997 114.7839988
  87.0390012  83.5974997 116.0879988  87.4637484  83.9738387 115.4283198
  84.2560012  80.0594997 110.2109988  83.3450012  80.1164997 110.4999988
  84.7620012  79.9994997 111.0219988  84.1996899  80.0591941 110.3601184
  79.0850012  81.6884997 109.0379988  78.1950012  81.7884997 108.6979988
  79.3810012  80.8464997 108.6919988  79.0032823  81.5883546 108.9447213
  82.7380012  81.6884997 106.6949988  83.6690012  81.8174997 106.8729988
  82.5230012  82.3584997 106.0449988  82.8364247  81.7966565 106.6315747
  88.6610012  79.2944997 113.4759988  87.9850012  79.4254997 114.1399988
  88.1760012  79.1394997 112.6649988  88.5027146  79.2915157 113.4574469
  81.4120012  82.8834997 104.2609988  80.8690012  82.5034997 103.5699988
  82.2450012  83.0774997 103.8329988  81.4503631  82.8577125 104.1084501
  91.9490012  94.9664997 119.7519988  92.1490012  95.3904997 118.9179988
  92.6040012  95.3094997 120.3589988  92.0650072  95.0709857 119.7198592
  79.5470012  87.4404997 119.3599988  80.2790012  87.6944997 119.9219988
  78.7670012  87.6444997 119.8759988  79.5417073  87.5028160 119.5066151
  85.5760012  82.8474997 112.0979988  86.1410012  82.3004997 111.5509988
  85.4290012  82.3254997 112.8869988  85.6333380  82.7022259 112.1298695
  80.5780012  78.9834997 108.5169988  80.2610012  78.0814997 108.4809988
  81.3600012  78.9854997 107.9639988  80.6402408  78.8602474 108.4373569
  84.2030012  81.2354997 114.5119988  83.3670012  81.6894997 114.6229988
  84.7270012  81.5114997 115.2639988  84.1595416  81.3348660 114.6288119
  84.7470012  87.4484997 106.1969988  84.0020012  86.9414997 105.8749988
  84.6130012  87.4974997 107.1439988  84.6268776  87.3856940 106.2808647
  91.8970012  86.5814997 114.9839988  92.5390012  87.0384997 114.4399988
  91.0670012  86.6944997 114.5209988  91.8725963  86.6592704 114.8470177
  88.6450012  80.2624997 104.3959988  87.7060012  80.3744997 104.2449988
  88.9420012  81.1194997 104.7029988  88.5567583  80.3935981 104.4168337
  86.2660012  87.6324997 117.4339988  85.9210012  87.2514997 118.2409988
  86.0660012  88.5664997 117.5049988  86.1917527  87.7065135 117.5540689
  89.3630012  82.1294997 106.0569988  90.2550012  81.9924997 106.3759988
  89.4200012  82.9204997 105.5199988  89.4926504  82.2176052 106.0280818
  79.8720012  86.7434997 111.9669988  80.6170012  86.7414997 111.3659988
  79.9500012  85.9204997 112.4479988  79.9844995  86.6318887 111.9498282
  76.8800012  85.2044997 117.2819988  77.1030012  84.7864997 118.1139988
  76.2780012  84.5914997 116.8589988  76.8291759  85.0644668 117.3387022
  83.8960012  84.7214997 119.4949988  83.6000012  84.5554997 118.5999988
  84.8280012  84.5014997 119.4839988  83.9814166  84.6690640 119.3710536
  88.5170012  90.0944997 117.3849988  87.6160012  90.2774997 117.1169988
  88.5510012  90.3534997 118.3049988  88.3983139  90.1545849 117.4728099
  94.2480012  82.3394997 105.7519988  93.6940012  81.9434997 105.0799988
  94.3480012  83.2494997 105.4739988  94.1857059  82.4083586 105.6224401
  94.2110012  88.1394997 118.5889988  93.3600012  88.3774997 118.2219988
  94.8020012  88.1224997 117.8359988  94.1742487  88.1698258 118.4368893
  92.5430012  91.1254997 106.2169988  92.1700012  90.2994997 106.5259988
  92.8210012  90.9424997 105.3189988  92.5295222  90.9877430 106.1379473
  89.7040012  85.9334997 113.2379988  88.7750012  85.7014997 113.2109988
  90.1550012  85.1564997 112.9079988  89.6379216  85.7967238 113.1896917
  82.2470012  90.2614997 109.3709988  82.7740012  91.0344997 109.1709988
  81.3670012  90.4864997 109.0689988  82.2002031  90.3977545 109.3027912
  83.6740012  87.9244997 108.9469988  83.4330012  88.8494997 108.9889988
  82.9330012  87.4654997 109.3439988  83.5409225  87.9890933 109.0063742
  84.1890012  92.0734997 115.2629988  84.5510012  92.9284997 115.0289988
  84.7200012  91.7814997 116.0029988  84.3104473  92.1511060 115.3310855
  82.3570012  92.9464997 108.4929988  81.4070012  93.0514997 108.5439988
  82.7090012  93.7664997 108.8369988  82.2744195  93.0718800 108.5465502
  87.7330012  88.1724997 114.9629988  87.3070012  87.9454997 115.7899988
  88.3130012  87.4344997 114.7809988  87.7531868  88.0415299 115.0515830
  90.3910012  92.7244997 117.4329988  89.7900012  92.1694997 116.9369988
  90.6730012  93.3914997 116.8059988  90.3468804  92.7386625 117.2804849
  78.5140012  79.9574997 116.8399988  77.6210012  80.2964997 116.7719988
  78.4150012  79.1024997 117.2579988  78.3784164  79.8882588 116.8872235
  90.8020012  87.7744997 106.2639988  90.5240012  87.0464997 106.8199988
  91.7290012  87.8934997 106.4689988  90.8893124  87.6908802 106.3678845
  78.1650012  91.7624997 115.2749988  78.3820012  90.8304997 115.2439988
  78.4110012  92.0364997 116.1579988  78.2279549  91.6720636 115.3901763
  84.0270012  90.2134997 102.4839988  84.2660012  89.4654997 101.9369988
  83.7580012  89.8254997 103.3169988  84.0233675  90.0586638 102.5216865
  82.9640012  89.7834997 104.9399988  83.1100012  89.2634997 105.7299988
  82.9610012  90.6904997 105.2469988  82.9835792  89.8348842 105.0896117
  87.2480012  79.6984997 115.7299988  87.9470012  79.7724997 116.3799988
  86.8670012  78.8344997 115.8839988  87.2921767  79.5917624 115.8398322
  88.0330012  79.3504997 106.8269988  88.2530012  79.8224997 106.0239988
  88.5910012  79.7454997 107.4969988  88.1384968  79.4684285 106.8077331
  85.7010012  91.4814997 105.6899988  84.8850012  91.9784997 105.7419988
  86.2310012  91.9564997 105.0499988  85.6609161  91.6137722 105.6105956
  85.2330012  81.0784997 107.6619988  86.0450012  81.5834997 107.7079988
  84.9880012  80.9334997 108.5759988  85.3110520  81.1280375 107.7918517
  85.7680012  82.0644997 116.8459988  85.8870012  82.6384997 117.6039988
  86.4240012  81.3764997 116.9609988  85.8729025  82.0499858 116.9651321
  86.1160012  78.1594997 108.5999988  85.7700012  78.7774997 109.2439988
  86.7750012  78.6604997 108.1179988  86.1576968  78.3116278 108.6229383
  91.9730012  79.9714997 117.6809988  91.0560012  80.2344997 117.5939988
  92.3080012  79.9684997 116.7849988  91.8928613  80.0070761 117.5478837
  90.5750012  83.7224997 111.7769988  89.7770012  83.3074997 111.4489988
  91.0200012  83.0314997 112.2679988  90.5259885  83.5723543 111.7984889
  80.0330012  89.6504997 104.3479988  80.6250012  90.3494997 104.6239988
  80.4920012  89.2174997 103.6279988  80.1761142  89.6877049 104.2884830
  78.3490012  82.3144997 103.4639988  78.3040012  83.2534997 103.6419988
  77.4610012  82.0784997 103.1939988  78.2228574  82.4111892 103.4518912
  91.6610012  92.9784997 113.3999988  91.5060012  93.6564997 112.7419988
  92.5940012  93.0504997 113.6029988  91.7658657  93.0809546 113.3374360
  79.1570012  77.0964997 112.1369988  78.9280012  77.1554997 111.2089988
  78.7140012  76.3044997 112.4429988  79.0658530  76.9975753 112.0514786
  78.0870012  91.0364997 108.2969988  77.2550012  91.5094997 108.3239988
  78.6330012  91.5464997 107.6989988  78.0470352  91.1701332 108.2198463
  77.3750012  93.6494997 119.6269988  77.9160012  93.4324997 120.3869988
  76.8940012  92.8434997 119.4369988  77.3839951  93.5109270 119.7052576
  81.9730012  92.5684997 121.2469988  82.7400012  92.1094997 121.5879988
  81.9510012  92.3424997 120.3179988  82.0751275  92.4750186 121.1680101
  88.5500012  90.9484997 119.9769988  88.1990012  90.0924997 120.2199988
  89.2760012  91.0914997 120.5839988  88.6000769  90.8505636 120.0923619
  77.2820012  87.4594997 120.5809988  77.4260012  86.5574997 120.2949988
  76.5100012  87.7454997 120.0939988  77.1972753  87.3746816 120.4759505
  83.9380012  87.4294997 120.0139988  83.6090012  87.7004997 119.1569988
  84.0900012  86.4884997 119.9269988  83.9134809  87.3393862 119.8848244
  89.6720012  87.3454997 117.3969988  90.4180012  87.9334997 117.2779988
  88.9150012  87.9274997 117.4609988  89.6717820  87.5047143 117.3893590
  78.1150012  84.6594997 120.0009988  78.5230012  83.8024997 119.8799988
  77.8550012  84.6744997 120.9219988  78.1357568  84.5440807 120.1089588
  82.7730012  85.7754997 105.0199988  82.3130012  85.2914997 105.7059988
  83.0280012  85.1074997 104.3839988  82.7444902  85.6188731 105.0279334
  82.0620012  83.6684997 117.3759988  81.4440012  84.3434997 117.6559988
  82.4060012  83.9894997 116.5419988  82.0239132  83.8042411 117.3016262
  83.8440012  84.0184997 103.2819988  83.6640012  83.8644997 102.3549988
  84.7940012  84.1264997 103.3269988  83.9477776  84.0120175 103.1611843
  87.0820012  86.1404997 120.6529988  88.0350012  86.2234997 120.6259988
  86.9210012  85.4284997 121.2729988  87.1906426  86.0556746 120.7330579
  82.4010012  81.0234997 118.4579988  82.5510012  80.2944997 117.8559988
  82.4040012  81.8004997 117.8989988  82.4219302  81.0287851 118.3000692
  82.8140012  79.3934997 115.9509988  83.3500012  79.8444997 115.2989988
  81.9620012  79.2854997 115.5279988  82.7722178  79.4406390 115.8045756
  84.3960012  84.8324997 116.1899988  85.1460012  84.6764997 115.6169988
  84.0570012  85.6844997 115.9149988  84.4528921  84.9262968 116.0743561
  88.8110012  82.6474997 121.2189988  89.0040012  81.7164997 121.1069988
  89.6690012  83.0724997 121.2079988  88.9532934  82.5776531 121.2022031
  90.1280012  85.4364997 119.2959988  89.8470012  86.1454997 118.7179988
  91.0710012  85.3634997 119.1449988  90.2169291  85.5236711 119.1964967
  80.8800012  82.2214997 120.3699988  80.1130012  81.6894997 120.1589988
  81.5590012  81.9114997 119.7699988  80.8667877  82.1068300 120.2600716
  83.6200012  76.8494997 116.3819988  83.5210012  77.7964997 116.2769988
  82.8770012  76.4774997 115.9059988  83.5061184  76.9285863 116.3033621
  84.8840012  81.1714997 119.9459988  84.6480012  80.9514997 120.8469988
  84.1000012  80.9644997 119.4359988  84.7458504  81.1134586 120.0003431
  87.5990012  80.2984997 119.0209988  86.6520012  80.3304997 119.1539988
  87.9120012  79.6734997 119.6749988  87.5116707  80.2183998 119.1276060
  89.2330012  78.9324997 121.0269988  89.1370012  77.9804997 121.0209988
  88.9120012  79.2014997 121.8869988  89.1764070  78.8384035 121.1425441
  79.0600012  80.1424997 120.0739988  79.2720012  79.4354997 119.4639988
  78.9490012  79.7044997 120.9179988  79.0739721  79.9867084 120.1046843
  83.8410012  76.1434997 119.0529988  84.5530012  75.5034997 119.0389988
  83.7400012  76.4104997 118.1399988  83.9248066  76.0920079 118.9275677
  84.1950012  77.8264997 121.1069988  84.0630012  77.3504997 120.2869988
  83.5960012  78.5704997 121.0519988  84.0959071  77.8619618 120.9872886
  75.9590012  94.7384997 108.8439988  75.3120012  94.2764997 108.3109988
  76.3130012  94.0664997 109.4259988  75.9183849  94.5844723 108.8497959
  76.8290012  92.8194997 110.6479988  76.4940012  91.9394997 110.8199988
  77.0510012  93.1644997 111.5129988  76.8131783  92.7457500 110.7884208
  94.3770012  93.6284997 113.6289988  94.3560012  93.8134997 114.5679988
  95.0680012  94.1974997 113.2879988  94.4674618  93.7306606 113.7113864
  93.9410012  93.1964997 116.5509988  93.4530012  92.4604997 116.1789988
  94.4900012  92.8024997 117.2289988  93.9484820  93.0425889 116.5917813
  92.3910012  88.9854997 121.1889988  91.5250012  88.8804997 121.5829988
  92.7680012  89.7444997 121.6349988  92.3233308  89.0736900 121.3032393
  93.6920012  87.2424997 106.7029988  94.5420012  87.6634997 106.8299988
  93.6980012  86.5024997 107.3099988  93.8091372  87.2000803 106.8024344
  94.0870012  85.2954997 108.5259988  93.3600012  84.8164997 108.9239988
  94.6680012  85.5014997 109.2589988  94.0660473  85.2578103 108.6794528
  93.8460012  88.0804997 113.4739988  94.6790012  87.7024997 113.1939988
  93.9580012  89.0234997 113.3549988  93.9752647  88.1562218 113.4195487
  92.3320012  90.9584997 115.7809988  91.6850012  91.2834997 116.4069988
  91.8150012  90.5184997 115.1069988  92.1734029  90.9435004 115.7755827
  94.3550012  85.1964997 104.9179988  93.8330012  85.5534997 104.1989988
  94.3220012  85.8714997 105.5959988  94.2791634  85.3365413 104.9113145
  91.8730012  83.8164997 109.0889988  91.7230012  82.8714997 109.0689988
  91.5200012  84.0974997 109.9329988  91.8047448  83.7251481 109.2003705
  76.9090012  85.8944997 113.0999988  77.0930012  85.8124997 112.1639988
  77.7580012  85.7704997 113.5229988  77.0490151  85.8665073 113.0291451
  92.7300012  85.7864997 118.7279988  93.3130012  85.0524997 118.9199988
  93.2940012  86.5584997 118.7749988  92.8859769  85.7904227 118.7606159
  94.2260012  83.6894997 119.4129988  93.3630012  83.3104997 119.2469988
  94.8310012  82.9504997 119.3379988  94.1896119  83.5378268 119.3801528
  91.9510012  79.8444997 102.5859988  92.5620012  79.4734997 103.2229988
  91.1150012  79.4234997 102.7819988  91.9215032  79.7367554 102.6997035
  91.5840012  81.3994997 107.5519988  91.8640012  80.4924997 107.6759988
  92.3430012  81.8334997 107.1629988  91.7249277  81.3340942 107.5163682
  92.1960012  81.9804997 112.9879988  93.1290012  82.1924997 112.9529988
  91.9610012  82.0824997 113.9099988  92.2919244  82.0233100 113.1078892
  92.2250012  82.7174997 115.7639988  91.3820012  82.9854997 116.1299988
  92.6670012  83.5394997 115.5529988  92.1694158  82.8653291 115.7855491
  76.5060012  81.1654997 119.2409988  77.4260012  81.0434997 119.4769988
  76.0570012  80.4154997 119.6299988  76.5711580  81.0473727 119.3259006
  94.5080012  76.6974997 121.1169988  94.8580012  76.0434997 120.5119988
  94.6550012  77.5344997 120.6769988  94.5757887  76.7211548 120.9746858
  92.1970012  78.6624997 107.5999988  92.3800012  78.2134997 108.4259988
  91.5980012  78.0774997 107.1369988  92.1410202  78.5219975 107.6503275
  77.7270012  79.4774997 112.1319988  78.1730012  78.6854997 112.4339988
  78.1940012  80.1934997 112.5619988  77.8510831  79.4660685 112.2314006
  76.0310012  82.4764997 113.2009988  76.5230012  82.2554997 112.4099988
  76.3940012  83.3174997 113.4819988  76.1473126  82.5598357 113.1307531
  94.0280012  78.8064997 119.4659988  93.1100012  79.0774997 119.4309988
  94.1510012  78.2714997 118.6819988  93.9189730  78.7712508 119.3551923
  94.0640012  78.7294997 104.1279988  94.4760012  78.0084997 103.6529988
  94.7460012  79.3994997 104.1869988  94.2125885  78.7212368 104.0708915
  76.3450012  78.7344997 107.2549988  75.4200012  78.9434997 107.1259988
  76.7990012  79.2184997 106.5649988  76.2797292  78.8285343 107.1440720
  91.1160012  93.7184997 109.2009988  91.7680012  93.3714997 108.5929988
  91.6260012  94.2074997 109.8469988  91.2742637  93.7370597 109.2050236
  76.3090012  77.4724997 115.5989988  75.6440012  77.2264997 116.2429988
  75.8660012  78.0944997 115.0219988  76.1581318  77.5229410 115.6090898
  78.5010012  90.6474997 119.7439988  77.6800012  90.8224997 119.2829988
  78.2480012  90.5744997 120.6639988  78.3545585  90.6615544 119.8053561
  81.4550012  91.6224997 116.0019988  81.0300012  92.4314997 115.7199988
  82.3590012  91.7074997 115.6999988  81.5189975  91.7449300 115.9224816
  85.7660012  93.0214997 118.9619988  85.9510012  92.6874997 119.8399988
  86.6120012  93.3304997 118.6399988  85.9057539  93.0176047 119.0385605
  88.1110012  94.3074997 118.2059988  88.7880012  93.6744997 117.9659988
  88.4330012  94.7084997 119.0129988  88.2471637  94.2751154 118.2822793
  93.0280012  76.8964997 117.2849988  92.2160012  77.2214997 116.8979988
  93.2610012  76.1364997 116.7519988  92.9482203  76.8382758 117.1598880
  78.8570012  94.8784997 116.0499988  78.1360012  95.3184997 115.5989988
  78.4910012  94.6274997 116.8979988  78.7089651  94.9047242 116.1029640
  81.3240012  94.4784997 115.0799988  80.4590012  94.5504997 115.4839988
  81.2690012  95.0254997 114.2959988  81.1982085  94.5622685 115.0293362
  86.0340012  94.3664997 114.2549988  85.5780012  94.8954997 113.6009988
  86.1970012  94.9694997 114.9799988  85.9936068  94.5204607 114.2634838
  88.3620012  93.2444997 115.1999988  87.4570012  93.4094997 114.9339988
  88.7910012  94.0974997 115.1349988  88.2961324  93.3824339 115.1547976
  90.9660012  94.8144997 115.4949988  90.7840012  95.7304997 115.2849988
  91.1430012  94.4044997 114.6489988  90.9650210  94.8844822 115.3517885
  78.2710012  93.5014997 112.9599988  78.2530012  93.0764997 113.8169988
  79.0760012  93.1834997 112.5509988  78.3773529  93.4003013 113.0220946
  80.4130012  92.2114997 111.6149988  80.1940012  91.2954997 111.7849988
  81.2370012  92.3514997 112.0809988  80.4944420  92.1050520 111.7012774
  82.9500012  92.6814997 112.4639988  83.1630012  91.7934997 112.1769988
  83.0140012  92.6474997 113.4179988  82.9878232  92.5553102 112.5537397
  86.4580012  78.3454997 111.6079988  85.7840012  77.7164997 111.8639988
  87.0220012  77.8614997 111.0049988  86.4419230  78.1938744 111.5615340
  91.6010012  76.4534997 111.7209988  92.2050012  77.0004997 111.2189988
  90.7310012  76.7724997 111.4799988  91.5661208  76.5715137 111.6196886
  93.3280012  77.5914997 110.0539988  93.9400012  77.0774997 109.5269988
  93.7100012  78.4694997 110.0769988  93.4633371  77.6397866 109.9850041
  78.7850012  76.9794997 109.4299988  78.0080012  76.7454997 108.9229988
  79.3150012  76.1824997 109.4389988  78.7502330  76.8396988 109.3617742
  88.9210012  76.9364997 110.8929988  88.9970012  77.0314997 109.9429988
  88.6460012  76.0284997 111.0219988  88.8942321  76.8267867 110.7805079
  90.2740012  76.9624997 106.5849988  89.5720012  77.5774997 106.3749988
  89.8300012  76.1244997 106.7159988  90.1176450  76.9335639 106.5739000
  77.5220012  92.7254997 106.1309988  76.8370012  92.6874997 105.4639988
  77.5260012  93.6384997 106.4199988  77.4286998  92.8436733 106.0786771
  79.4820012  78.6934997 103.6759988  79.9740012  78.0634997 103.1489988
  80.1060012  78.9894997 104.3389988  79.6335688  78.6473804 103.6935482
  93.0960012  93.4984997 107.2079988  92.9010012  92.7504997 106.6429988
  93.0570012  94.2564997 106.6249988  93.0640380  93.4986099 107.0518384
  78.7430012  77.4934997 118.9479988  78.3770012  76.7284997 119.3899988
  79.6560012  77.5224997 119.2339988  78.8162736  77.3925640 119.0472502
  80.7160012  76.8444997 120.4839988  81.6140012  76.5704997 120.2989988
  80.3290012  76.1014997 120.9479988  80.7866612  76.7065914 120.5213643
  79.3400012  93.6454997 103.1569988  79.0730012  93.9324997 104.0299988
  80.1120012  93.0994997 103.3089988  79.4077488  93.6110294 103.2971050
  89.1370012  76.1764997 120.6659988  89.2140012  75.7504997 121.5199988
  90.0310012  76.1904997 120.3229988  89.2683428  76.1200879 120.7365310
  92.3130012  92.2494997 119.3579988  91.5310012  92.0634997 118.8379988
  92.2410012  93.1784997 119.5759988  92.1962274  92.3496643 119.3163018
 106.7190012  86.1354997 109.3889988 106.8080012  87.0794997 109.2569988
 106.0810012  85.8604997 108.7309988 106.6449081  86.2274830 109.2819614
 105.6520012  85.3904997 112.8079988 105.6140012  84.7444997 113.5129988
 105.3300012  84.9244997 112.0369988 105.6032333  85.2389408 112.8002978
  98.0210012  85.0054997 114.4009988  98.0620012  84.3794997 115.1239988
  98.7240012  85.6294997 114.5829988  98.1216363  85.0041196 114.5246044
 109.3580012  88.3294997 111.1089988 108.9180012  87.6094997 111.5599988
 109.3450012  89.0504997 111.7389988 109.2960226  88.3283731 111.2558494
  98.9440012  89.4554997 112.9359988  98.5750012  88.6534997 112.5659988
  99.8850012  89.2864997 112.9819988  99.0207289  89.3230153 112.8916316
  95.5540012  83.1154997 108.3289988  95.1070012  83.9614997 108.3099988
  94.9930012  82.5354997 107.8129988  95.4169900  83.1529916 108.2566801
  96.2650012  85.2774997 110.4539988  96.4780012  84.5074997 110.9819988
  97.0030012  85.3664997 109.8509988  96.3939044  85.1841968 110.4447123
 106.4700012  93.4344997 111.3209988 107.0900012  92.7574997 111.0479988
 106.2620012  93.2164997 112.2299988 106.5266726  93.3124800 111.4064812
 104.0420012  87.8234997 113.2139988 104.3460012  87.1374997 112.6189988
 104.7630012  87.9414997 113.8319988 104.1810671  87.7456305 113.2161816
 112.7050012  79.4244997 114.0749988 112.7540012  80.0344997 114.8099988
 113.1300012  79.8854997 113.3519988 112.7691746  79.5703796 114.0779175
 107.1830012  82.2174997 113.5409988 107.3250012  81.2714997 113.5619988
 107.0760012  82.4244997 112.6129988 107.1879919  82.1158246 113.4183408
 100.3370012  80.3184997 110.8139988 100.3810012  81.1784997 110.3949988
  99.8800012  79.7664997 110.1799988 100.2812240  80.3614422 110.6709864
 108.0600012  80.4494997 109.2149988 108.7060012  80.1204997 109.8389988
 108.5700012  80.9674997 108.5919988 108.2174299  80.4744450 109.2162731
  96.9580012  82.7154997 111.5759988  97.6110012  82.1654997 112.0079988
  96.9820012  82.4414997 110.6589988  97.0506683  82.6031466 111.5112123
 102.1140012  84.2654997 110.7909988 102.7300012  83.7394997 111.3009988
 101.5280012  83.6254997 110.3879988 102.1190810  84.1069208 110.8063173
 113.0960012  80.9024997 116.3099988 112.4080012  81.5604997 116.2149988
 113.1120012  80.7054997 117.2469988 113.0039540  80.9659819 116.4235990
  99.1480012  79.2364997 114.8879988  98.9290012  79.7664997 114.1219988
  98.4800012  79.4634997 115.5349988  99.0277600  79.3396906 114.8706379
 106.5170012  88.7364997 108.4319988 106.2210012  88.4144997 107.5809988
 106.1920012  89.6364997 108.4729988 106.4326371  88.8140215 108.3211801
 101.7170012  86.9124997 115.1749988 100.9770012  87.5104997 115.2789988
 102.4310012  87.4664997 114.8599988 101.7122237  87.0692831 115.1466465
 109.8240012  79.7404997 111.1949988 109.6080012  78.9744997 111.7279988
 110.4790012  80.2124997 111.7079988 109.8830632  79.6995889 111.3372861
  98.7410012  81.1284997 112.8399988  99.3550012  81.7614997 113.2129988
  99.2530012  80.6564997 112.1839988  98.8941981  81.1512267 112.8022908
 100.1240012  88.8764997 115.9619988 100.1190012  89.7564997 115.5839988
  99.2710012  88.7934997 116.3869988 100.0079464  88.9856117 115.9677907
  96.2450012  88.5474997 106.7439988  95.9730012  88.7764997 105.8559988
  96.2910012  89.3854997 107.2049988  96.2139482  88.6921318 106.6846273
 109.8700012  90.1694997 113.4569988 108.9290012  90.2274997 113.6189988
 110.1470012  91.0754997 113.3199988 109.7784679  90.2999443 113.4606815
 110.1710012  78.4554997 114.8749988 109.4350012  79.0664997 114.8369988
 110.8540012  78.8704997 114.3479988 110.1626541  78.5951374 114.7985832
 103.1740012  76.5424997 112.3399988 103.0570012  75.5934997 112.2859988
 102.3190012  76.8744997 112.6139988 103.0424212  76.4575571 112.3696497
 108.1220012  91.9504997 110.0819988 108.5480012  91.2434997 109.5969988
 108.4390012  92.7514997 109.6659988 108.2231683  91.9621017 109.9593680
 109.2820012  89.8514997 108.5909988 109.0240012  89.1614997 107.9799988
 109.3530012  89.4084997 109.4369988 109.2562856  89.6972124 108.6216885
 110.9680012  88.4174997 117.0679988 111.1080012  87.8264997 116.3289988
 111.1350012  89.2904997 116.7119988 111.0097411  88.4545428 116.9186894
 105.4410012  85.3794997 106.8409988 104.7290012  85.9144997 106.4889988
 106.1320012  85.4354997 106.1809988 105.4370132  85.4602543 106.7036289
 105.4940012  83.8374997 103.8799988 106.1950012  83.8594997 104.5309988
 105.7970012  83.2094997 103.2229988 105.6308133  83.7557070 103.8803369
 112.8100012  84.7574997 115.1339988 112.1570012  85.4524997 115.2239988
 113.2750012  84.9674997 114.3249988 112.7835274  84.8810643 115.0368462
 108.8460012  85.5894997 107.7929988 108.1140012  85.8174997 108.3659988
 109.2940012  84.8754997 108.2469988 108.8062725  85.5242145 107.9328816
 108.7440012  83.7634997 116.8599988 108.8240012  84.5264997 117.4319988
 108.1420012  84.0424997 116.1699988 108.6735756  83.9057134 116.8450589
 100.4920012  86.2194997 109.6749988 100.1610012  85.8494997 108.8569988
 101.0800012  85.5494997 110.0219988 100.5261873  86.0781156 109.6098102
 101.8580012  89.6474997 112.3559988 101.7640012  89.0694997 111.5999988
 102.5880012  89.2764997 112.8529988 101.9437387  89.5181663 112.3195342
 100.8580012  84.9884997 113.3089988 101.4240012  85.1094997 112.5459988
 101.1770012  85.6254997 113.9469988 100.9785474  85.0912219 113.2909862
 107.1670012  90.4914997 114.0429988 106.9270012  91.1534997 114.6909988
 106.9690012  89.6574997 114.4679988 107.1073808  90.4693134 114.1891524
 101.7380012  89.3874997 118.0259988 101.4270012  90.1694997 118.4809988
 101.0880012  89.2344997 117.3399988 101.6075558  89.4739105 117.9955871
 107.7170012  84.7514997 105.4779988 108.2970012  84.9014997 106.2249988
 108.1310012  85.2224997 104.7539988 107.8522997  84.8356578 105.4824058
  98.6580012  85.5854997 117.2539988  98.7290012  86.2364997 117.9529988
  97.7680012  85.6884997 116.9189988  98.5473005  85.6885427 117.3043495
 105.4440012  91.4884997 108.9129988 105.9180012  91.7834997 109.6899988
 104.8810012  92.2264997 108.6799988 105.4328184  91.6287247 108.9879628
  99.9780012  91.4594997 118.7889988  99.9850012  91.3234997 117.8419988
  99.0620012  91.3414997 119.0409988  99.8551714  91.4249430 118.6934666
  99.4820012  85.2894997 107.2639988  99.1900012  86.0574997 106.7739988
  98.8080012  84.6294997 107.1019988  99.3508111  85.3055587 107.1748978
  95.5750012  87.6524997 116.0789988  95.0740012  87.6244997 115.2639988
  95.5800012  86.7464997 116.3889988  95.5070944  87.5262396 116.0093226
  95.3250012  90.4324997 112.9629988  96.2710012  90.2884997 112.9439988
  95.2130012  91.2164997 113.4999988  95.4392727  90.5188046 113.0330072
 113.5230012  91.0984997 118.6459988 113.4740012  90.1434997 118.6089988
 112.6960012  91.3664997 119.0469988 113.4044940  91.0038998 118.6951375
 104.5020012  90.6724997 117.5219988 104.5890012  91.4984997 117.9969988
 103.6380012  90.3424997 117.7709988 104.3971964  90.7409878 117.6206549
 104.9160012  94.4444997 107.3279988 104.8410012  94.3234997 106.3809988
 104.9490012  95.3944997 107.4459988 104.9102068  94.5562646 107.2144967
  98.5690012  93.2334997 109.1089988  98.7220012  92.8854997 109.9869988
  97.7190012  92.8774997 108.8539988  98.4749166  93.1376216 109.1948079
 107.6870012  93.5244997 107.0789988 106.7510012  93.6244997 107.2579988
 107.9670012  92.8154997 107.6579988 107.5969553  93.4423406 107.1817087
 110.6750012  82.5914997 119.1259988 110.2680012  83.0724997 118.4049988
 110.7160012  81.6864997 118.8179988 110.6248437  82.5349374 118.9856683
  97.8240012  88.9754997 117.1229988  98.0400012  88.6144997 117.9819988
  96.9690012  88.6014997 116.9129988  97.7379292  88.8754111 117.2123386
 100.4430012  77.4454997 113.1179988  99.5810012  77.3584997 112.7099988
 100.4200012  78.3014997 113.5459988 100.3220409  77.5492883 113.1200589
 105.1060012  77.1674997 116.4929988 105.5260012  76.7524997 117.2459988
 104.1730012  76.9894997 116.6099988 105.0373644  77.0865900 116.6119539
 108.4320012  80.9234997 117.3459988 107.9180012  80.7974997 118.1439988
 108.2770012  81.8354997 117.1019988 108.3406852  81.0296132 117.4222158
 100.5340012  82.4114997 114.2129988  99.8920012  82.3704997 114.9219988
 100.5710012  83.3374997 113.9749988 100.4510664  82.5311430 114.2779219
 100.5310012  82.6324997 109.1249988  99.6380012  82.2914997 109.0659988
 100.9810012  82.2554997 108.3689988 100.4698130  82.5349631 109.0147702
 106.0660012  83.0484997 107.9419988 105.6570012  83.8634997 107.6509988
 106.7870012  82.9084997 107.3279988 106.1074537  83.1412018 107.8191342
 105.1680012  83.2234997 119.4299988 104.6060012  82.5194997 119.7509988
 105.9950012  83.1034997 119.8979988 105.2027095  83.1107883 119.5372330
 107.0710012  82.4944997 110.7559988 106.8760012  83.0994997 110.0409988
 107.2520012  81.6604997 110.3219988 107.0687614  82.4646300 110.5994405
  98.2840012  82.7314997 116.0799988  98.2460012  83.1314997 116.9489988
  97.7930012  81.9144997 116.1709988  98.2124684  82.6758069 116.2111059
  94.8920012  79.8474997 109.9309988  95.5230012  79.8184997 110.6499988
  95.3410012  79.4224997 109.1999988  95.0390918  79.7860836 109.9306441
 106.3350012  84.1324997 115.4269988 106.6580012  83.5014997 114.7839988
 105.8950012  83.5974997 116.0879988 106.3197484  83.9738387 115.4283198
 103.1120012  80.0594997 110.2109988 102.2010012  80.1164997 110.4999988
 103.6180012  79.9994997 111.0219988 103.0556899  80.0591941 110.3601184
  97.9410012  81.6884997 109.0379988  97.0510012  81.7884997 108.6979988
  98.2370012  80.8464997 108.6919988  97.8592823  81.5883545 108.9447213
 101.5940012  81.6884997 106.6949988 102.5250012  81.8174997 106.8729988
 101.3790012  82.3584997 106.0449988 101.6924247  81.7966565 106.6315747
 107.5170012  79.2944997 113.4759988 106.8410012  79.4254997 114.1399988
 107.0320012  79.1394997 112.6649988 107.3587146  79.2915157 113.4574469
 110.8050012  94.9664997 119.7519988 111.0050012  95.3904997 118.9179988
 111.4600012  95.3094997 120.3589988 110.9210072  95.0709857 119.7198592
  98.4030012  87.4404997 119.3599988  99.1350012  87.6944997 119.9219988
  97.6230012  87.6444997 119.8759988  98.3977073  87.5028160 119.5066151
 104.4320012  82.8474997 112.0979988 104.9970012  82.3004997 111.5509988
 104.2850012  82.3254997 112.8869988 104.4893380  82.7022259 112.1298695
  99.4340012  78.9834997 108.5169988  99.1170012  78.0814997 108.4809988
 100.2160012  78.9854997 107.9639988  99.4962408  78.8602474 108.4373569
 103.0590012  81.2354997 114.5119988 102.2230012  81.6894997 114.6229988
 103.5830012  81.5114997 115.2639988 103.0155416  81.3348660 114.6288119
 110.7530012  86.5814997 114.9839988 111.3950012  87.0384997 114.4399988
 109.9230012  86.6944997 114.5209988 110.7285963  86.6592704 114.8470177
 107.5010012  80.2624997 104.3959988 106.5620012  80.3744997 104.2449988
 107.7980012  81.1194997 104.7029988 107.4127583  80.3935981 104.4168337
 105.1220012  87.6324997 117.4339988 104.7770012  87.2514997 118.2409988
 104.9220012  88.5664997 117.5049988 105.0477527  87.7065135 117.5540689
 108.2190012  82.1294997 106.0569988 109.1110012  81.9924997 106.3759988
 108.2760012  82.9204997 105.5199988 108.3486504  82.2176052 106.0280818
  98.7280012  86.7434997 111.9669988  99.4730012  86.7414997 111.3659988
  98.8060012  85.9204997 112.4479988  98.8404995  86.6318887 111.9498282
 105.7290012  88.9074997 105.2229988 105.4330012  89.7334997 105.6039988
 105.0260012  88.2874997 105.4189988 105.5934914  88.9368199 105.3016443
  95.7360012  85.2044997 117.2819988  95.9590012  84.7864997 118.1139988
  95.1340012  84.5914997 116.8589988  95.6851759  85.0644668 117.3387022
 102.7520012  84.7214997 119.4949988 102.4560012  84.5554997 118.5999988
 103.6840012  84.5014997 119.4839988 102.8374166  84.6690640 119.3710536
 107.3730012  90.0944997 117.3849988 106.4720012  90.2774997 117.1169988
 107.4070012  90.3534997 118.3049988 107.2543139  90.1545849 117.4728099
 113.1040012  82.3394997 105.7519988 112.5500012  81.9434997 105.0799988
 113.2040012  83.2494997 105.4739988 113.0417059  82.4083586 105.6224401
 113.0670012  88.1394997 118.5889988 112.2160012  88.3774997 118.2219988
 113.6580012  88.1224997 117.8359988 113.0302487  88.1698258 118.4368893
 111.3990012  91.1254997 106.2169988 111.0260012  90.2994997 106.5259988
 111.6770012  90.9424997 105.3189988 111.3855222  90.9877430 106.1379473
 108.5600012  85.9334997 113.2379988 107.6310012  85.7014997 113.2109988
 109.0110012  85.1564997 112.9079988 108.4939216  85.7967238 113.1896917
 101.1030012  90.2614997 109.3709988 101.6300012  91.0344997 109.1709988
 100.2230012  90.4864997 109.0689988 101.0562031  90.3977545 109.3027912
  96.8580012  85.1234997 103.9579988  97.4740012  85.7504997 104.3379988
  95.9960012  85.4394997 104.2299988  96.8257698  85.2519430 104.0467183
 102.5300012  87.9244997 108.9469988 102.2890012  88.8494997 108.9889988
 101.7890012  87.4654997 109.3439988 102.3969225  87.9890933 109.0063742
 103.0450012  92.0734997 115.2629988 103.4070012  92.9284997 115.0289988
 103.5760012  91.7814997 116.0029988 103.1664473  92.1511060 115.3310855
 101.2130012  92.9464997 108.4929988 100.2630012  93.0514997 108.5439988
 101.5650012  93.7664997 108.8369988 101.1304195  93.0718800 108.5465502
 106.5890012  88.1724997 114.9629988 106.1630012  87.9454997 115.7899988
 107.1690012  87.4344997 114.7809988 106.6091868  88.0415299 115.0515830
 108.7920012  89.1014997 104.0369988 109.1450012  88.7214997 104.8409988
 107.8430012  89.0084997 104.1239988 108.7120918  89.0368956 104.1588532
 109.2470012  92.7244997 117.4329988 108.6460012  92.1694997 116.9369988
 109.5290012  93.3914997 116.8059988 109.2028804  92.7386625 117.2804849
  97.3700012  79.9574997 116.8399988  96.4770012  80.2964997 116.7719988
  97.2710012  79.1024997 117.2579988  97.2344164  79.8882588 116.8872235
 109.6580012  87.7744997 106.2639988 109.3800012  87.0464997 106.8199988
 110.5850012  87.8934997 106.4689988 109.7453124  87.6908802 106.3678845
  97.0210012  91.7624997 115.2749988  97.2380012  90.8304997 115.2439988
  97.2670012  92.0364997 116.1579988  97.0839549  91.6720636 115.3901763
  98.2730012  87.0364997 105.4509988  97.5870012  87.3884997 106.0179988
  98.7950012  87.7994997 105.2039988  98.2496852  87.1878578 105.4952118
 106.1040012  79.6984997 115.7299988 106.8030012  79.7724997 116.3799988
 105.7230012  78.8344997 115.8839988 106.1481767  79.5917624 115.8398322
 106.8890012  79.3504997 106.8269988 107.1090012  79.8224997 106.0239988
 107.4470012  79.7454997 107.4969988 106.9944968  79.4684285 106.8077331
 104.5570012  91.4814997 105.6899988 103.7410012  91.9784997 105.7419988
 105.0870012  91.9564997 105.0499988 104.5169161  91.6137722 105.6105956
 104.0890012  81.0784997 107.6619988 104.9010012  81.5834997 107.7079988
 103.8440012  80.9334997 108.5759988 104.1670520  81.1280375 107.7918517
 104.6240012  82.0644997 116.8459988 104.7430012  82.6384997 117.6039988
 105.2800012  81.3764997 116.9609988 104.7289025  82.0499858 116.9651321
 104.9720012  78.1594997 108.5999988 104.6260012  78.7774997 109.2439988
 105.6310012  78.6604997 108.1179988 105.0136968  78.3116278 108.6229383
 101.8960012  92.5254997 105.6709988 102.0560012  93.3244997 105.1709988
 101.6980012  92.8314997 106.5559988 101.8911637  92.6764020 105.7221144
 100.6300012  79.2224997 105.2869988 100.5470012  80.1114997 105.6339988
 101.5200012  78.9574997 105.5189988 100.7389469  79.3081430 105.3657626
 110.8290012  79.9714997 117.6809988 109.9120012  80.2344997 117.5939988
 111.1640012  79.9684997 116.7849988 110.7488613  80.0070761 117.5478837
 109.4310012  83.7224997 111.7769988 108.6330012  83.3074997 111.4489988
 109.8760012  83.0314997 112.2679988 109.3819885  83.5723543 111.7984889
 110.5170012  92.9784997 113.3999988 110.3620012  93.6564997 112.7419988
 111.4500012  93.0504997 113.6029988 110.6218657  93.0809546 113.3374360
  98.0130012  77.0964997 112.1369988  97.7840012  77.1554997 111.2089988
  97.5700012  76.3044997 112.4429988  97.9218530  76.9975753 112.0514786
  96.9430012  91.0364997 108.2969988  96.1110012  91.5094997 108.3239988
  97.4890012  91.5464997 107.6989988  96.9030352  91.1701332 108.2198463
  96.2310012  93.6494997 119.6269988  96.7720012  93.4324997 120.3869988
  95.7500012  92.8434997 119.4369988  96.2399951  93.5109270 119.7052576
 100.8290012  92.5684997 121.2469988 101.5960012  92.1094997 121.5879988
 100.8070012  92.3424997 120.3179988 100.9311275  92.4750186 121.1680101
 104.9210012  92.0764997 102.6229988 104.2770012  91.4454997 102.9439988
 105.6830012  91.5454997 102.3909988 104.9358077  91.9182920 102.6356011
 107.4060012  90.9484997 119.9769988 107.0550012  90.0924997 120.2199988
 108.1320012  91.0914997 120.5839988 107.4560769  90.8505636 120.0923619
  96.1380012  87.4594997 120.5809988  96.2820012  86.5574997 120.2949988
  95.3660012  87.7454997 120.0939988  96.0532753  87.3746816 120.4759505
 102.7940012  87.4294997 120.0139988 102.4650012  87.7004997 119.1569988
 102.9460012  86.4884997 119.9269988 102.7694809  87.3393862 119.8848244
 105.8320012  88.8504997 102.4499988 105.5630012  89.0304997 103.3509988
 105.6260012  87.9244997 102.3179988 105.7673427  88.7500261 102.5555073
 108.5280012  87.3454997 117.3969988 109.2740012  87.9334997 117.2779988
 107.7710012  87.9274997 117.4609988 108.5277820  87.5047143 117.3893590
  96.9710012  84.6594997 120.0009988  97.3790012  83.8024997 119.8799988
  96.7110012  84.6744997 120.9219988  96.9917568  84.5440807 120.1089588
 100.9180012  83.6684997 117.3759988 100.3000012  84.3434997 117.6559988
 101.2620012  83.9894997 116.5419988 100.8799132  83.8042411 117.3016262
 105.9380012  86.1404997 120.6529988 106.8910012  86.2234997 120.6259988
 105.7770012  85.4284997 121.2729988 106.0466426  86.0556746 120.7330579
 101.2570012  81.0234997 118.4579988 101.4070012  80.2944997 117.8559988
 101.2600012  81.8004997 117.8989988 101.2779302  81.0287851 118.3000692
 101.6700012  79.3934997 115.9509988 102.2060012  79.8444997 115.2989988
 100.8180012  79.2854997 115.5279988 101.6282178  79.4406390 115.8045756
 103.2520012  84.8324997 116.1899988 104.0020012  84.6764997 115.6169988
 102.9130012  85.6844997 115.9149988 103.3088921  84.9262968 116.0743561
 107.6670012  82.6474997 121.2189988 107.8600012  81.7164997 121.1069988
 108.5250012  83.0724997 121.2079988 107.8092934  82.5776531 121.2022031
 108.9840012  85.4364997 119.2959988 108.7030012  86.1454997 118.7179988
 109.9270012  85.3634997 119.1449988 109.0729291  85.5236711 119.1964967
  99.7360012  82.2214997 120.3699988  98.9690012  81.6894997 120.1589988
 100.4150012  81.9114997 119.7699988  99.7227877  82.1068300 120.2600716
 102.4760012  76.8494997 116.3819988 102.3770012  77.7964997 116.2769988
 101.7330012  76.4774997 115.9059988 102.3621184  76.9285863 116.3033621
 103.7400012  81.1714997 119.9459988 103.5040012  80.9514997 120.8469988
 102.9560012  80.9644997 119.4359988 103.6018504  81.1134586 120.0003431
 106.4550012  80.2984997 119.0209988 105.5080012  80.3304997 119.1539988
 106.7680012  79.6734997 119.6749988 106.3676707  80.2183998 119.1276060
 108.0890012  78.9324997 121.0269988 107.9930012  77.9804997 121.0209988
 107.7680012  79.2014997 121.8869988 108.0324070  78.8384035 121.1425441
  97.9160012  80.1424997 120.0739988  98.1280012  79.4354997 119.4639988
  97.8050012  79.7044997 120.9179988  97.9299721  79.9867084 120.1046843
 102.6970012  76.1434997 119.0529988 103.4090012  75.5034997 119.0389988
 102.5960012  76.4104997 118.1399988 102.7808066  76.0920079 118.9275677
 103.0510012  77.8264997 121.1069988 102.9190012  77.3504997 120.2869988
 102.4520012  78.5704997 121.0519988 102.9519071  77.8619618 120.9872886
  94.8150012  94.7384997 108.8439988  94.1680012  94.2764997 108.3109988
  95.1690012  94.0664997 109.4259988  94.7743849  94.5844723 108.8497959
  95.6850012  92.8194997 110.6479988  95.3500012  91.9394997 110.8199988
  95.9070012  93.1644997 111.5129988  95.6691783  92.7457501 110.7884208
 113.2330012  93.6284997 113.6289988 113.2120012  93.8134997 114.5679988
 113.9240012  94.1974997 113.2879988 113.3234618  93.7306606 113.7113864
 112.7970012  93.1964997 116.5509988 112.3090012  92.4604997 116.1789988
 113.3460012  92.8024997 117.2289988 112.8044820  93.0425889 116.5917813
 111.2470012  88.9854997 121.1889988 110.3810012  88.8804997 121.5829988
 111.6240012  89.7444997 121.6349988 111.1793308  89.0736900 121.3032393
 112.5480012  87.2424997 106.7029988 113.3980012  87.6634997 106.8299988
 112.5540012  86.5024997 107.3099988 112.6651372  87.2000803 106.8024344
 112.9430012  85.2954997 108.5259988 112.2160012  84.8164997 108.9239988
 113.5240012  85.5014997 109.2589988 112.9220473  85.2578103 108.6794528
 112.7020012  88.0804997 113.4739988 113.5350012  87.7024997 113.1939988
 112.8140012  89.0234997 113.3549988 112.8312647  88.1562218 113.4195487
 111.1880012  90.9584997 115.7809988 110.5410012  91.2834997 116.4069988
 110.6710012  90.5184997 115.1069988 111.0294029  90.9435004 115.7755827
 113.2110012  85.1964997 104.9179988 112.6890012  85.5534997 104.1989988
 113.1780012  85.8714997 105.5959988 113.1351634  85.3365413 104.9113145
 111.5600012  82.4364997 103.4679988 111.6560012  83.1034997 102.7879988
 111.4200012  81.6204997 102.9869988 111.5542272  82.4175655 103.3098347
 110.7290012  83.8164997 109.0889988 110.5790012  82.8714997 109.0689988
 110.3760012  84.0974997 109.9329988 110.6607448  83.7251481 109.2003705
  95.7650012  85.8944997 113.0999988  95.9490012  85.8124997 112.1639988
  96.6140012  85.7704997 113.5229988  95.9050151  85.8665073 113.0291451
 111.5860012  85.7864997 118.7279988 112.1690012  85.0524997 118.9199988
 112.1500012  86.5584997 118.7749988 111.7419769  85.7904227 118.7606159
 113.0820012  83.6894997 119.4129988 112.2190012  83.3104997 119.2469988
 113.6870012  82.9504997 119.3379988 113.0456119  83.5378268 119.3801528
 110.4400012  81.3994997 107.5519988 110.7200012  80.4924997 107.6759988
 111.1990012  81.8334997 107.1629988 110.5809277  81.3340942 107.5163682
 111.0520012  81.9804997 112.9879988 111.9850012  82.1924997 112.9529988
 110.8170012  82.0824997 113.9099988 111.1479244  82.0233100 113.1078892
 111.0810012  82.7174997 115.7639988 110.2380012  82.9854997 116.1299988
 111.5230012  83.5394997 115.5529988 111.0254158  82.8653291 115.7855491
  95.3620012  81.1654997 119.2409988  96.2820012  81.0434997 119.4769988
  94.9130012  80.4154997 119.6299988  95.4271580  81.0473727 119.3259006
 113.3640012  76.6974997 121.1169988 113.7140012  76.0434997 120.5119988
 113.5110012  77.5344997 120.6769988 113.4317887  76.7211548 120.9746858
 111.0530012  78.6624997 107.5999988 111.2360012  78.2134997 108.4259988
 110.4540012  78.0774997 107.1369988 110.9970202  78.5219975 107.6503275
  96.5830012  79.4774997 112.1319988  97.0290012  78.6854997 112.4339988
  97.0500012  80.1934997 112.5619988  96.7070831  79.4660685 112.2314006
  94.8870012  82.4764997 113.2009988  95.3790012  82.2554997 112.4099988
  95.2500012  83.3174997 113.4819988  95.0033126  82.5598357 113.1307531
 112.8840012  78.8064997 119.4659988 111.9660012  79.0774997 119.4309988
 113.0070012  78.2714997 118.6819988 112.7749730  78.7712508 119.3551923
 112.9200012  78.7294997 104.1279988 113.3320012  78.0084997 103.6529988
 113.6020012  79.3994997 104.1869988 113.0685885  78.7212368 104.0708915
  95.2010012  78.7344997 107.2549988  94.2760012  78.9434997 107.1259988
  95.6550012  79.2184997 106.5649988  95.1357292  78.8285343 107.1440720
 109.9720012  93.7184997 109.2009988 110.6240012  93.3714997 108.5929988
 110.4820012  94.2074997 109.8469988 110.1302637  93.7370597 109.2050236
  95.1650012  77.4724997 115.5989988  94.5000012  77.2264997 116.2429988
  94.7220012  78.0944997 115.0219988  95.0141318  77.5229410 115.6090898
  97.3570012  90.6474997 119.7439988  96.5360012  90.8224997 119.2829988
  97.1040012  90.5744997 120.6639988  97.2105585  90.6615544 119.8053561
 100.3110012  91.6224997 116.0019988  99.8860012  92.4314997 115.7199988
 101.2150012  91.7074997 115.6999988 100.3749975  91.7449300 115.9224816
 104.6220012  93.0214997 118.9619988 104.8070012  92.6874997 119.8399988
 105.4680012  93.3304997 118.6399988 104.7617539  93.0176047 119.0385605
 106.9670012  94.3074997 118.2059988 107.6440012  93.6744997 117.9659988
 107.2890012  94.7084997 119.0129988 107.1031637  94.2751154 118.2822793
 111.8840012  76.8964997 117.2849988 111.0720012  77.2214997 116.8979988
 112.1170012  76.1364997 116.7519988 111.8042203  76.8382758 117.1598880
  97.7130012  94.8784997 116.0499988  96.9920012  95.3184997 115.5989988
  97.3470012  94.6274997 116.8979988  97.5649651  94.9047242 116.1029640
 100.1800012  94.4784997 115.0799988  99.3150012  94.5504997 115.4839988
 100.1250012  95.0254997 114.2959988 100.0542085  94.5622685 115.0293362
 104.8900012  94.3664997 114.2549988 104.4340012  94.8954997 113.6009988
 105.0530012  94.9694997 114.9799988 104.8496068  94.5204607 114.2634838
 107.2180012  93.2444997 115.1999988 106.3130012  93.4094997 114.9339988
 107.6470012  94.0974997 115.1349988 107.1521324  93.3824339 115.1547976
 109.8220012  94.8144997 115.4949988 109.6400012  95.7304997 115.2849988
 109.9990012  94.4044997 114.6489988 109.8210210  94.8844822 115.3517885
  97.1270012  93.5014997 112.9599988  97.1090012  93.0764997 113.8169988
  97.9320012  93.1834997 112.5509988  97.2333529  93.4003013 113.0220946
  99.2690012  92.2114997 111.6149988  99.0500012  91.2954997 111.7849988
 100.0930012  92.3514997 112.0809988  99.3504420  92.1050520 111.7012774
 101.8060012  92.6814997 112.4639988 102.0190012  91.7934997 112.1769988
 101.8700012  92.6474997 113.4179988 101.8438232  92.5553102 112.5537397
 105.3140012  78.3454997 111.6079988 104.6400012  77.7164997 111.8639988
 105.8780012  77.8614997 111.0049988 105.2979230  78.1938744 111.5615340
 110.4570012  76.4534997 111.7209988 111.0610012  77.0004997 111.2189988
 109.5870012  76.7724997 111.4799988 110.4221208  76.5715137 111.6196886
 112.1840012  77.5914997 110.0539988 112.7960012  77.0774997 109.5269988
 112.5660012  78.4694997 110.0769988 112.3193371  77.6397866 109.9850041
  97.6410012  76.9794997 109.4299988  96.8640012  76.7454997 108.9229988
  98.1710012  76.1824997 109.4389988  97.6062330  76.8396988 109.3617742
 102.2200012  76.9064997 109.2439988 103.0950012  77.2944997 109.2139988
 102.0840012  76.6914997 110.1659988 102.3213695  76.9305184 109.3646440
 107.7770012  76.9364997 110.8929988 107.8530012  77.0314997 109.9429988
 107.5020012  76.0284997 111.0219988 107.7502321  76.8267867 110.7805079
 109.1300012  76.9624997 106.5849988 108.4280012  77.5774997 106.3749988
 108.6860012  76.1244997 106.7159988 108.9736450  76.9335639 106.5739000
  96.3780012  92.7254997 106.1309988  95.6930012  92.6874997 105.4639988
  96.3820012  93.6384997 106.4199988  96.2846998  92.8436733 106.0786771
 103.3640012  78.9864997 106.1329988 103.5420012  78.3404997 106.8159988
 103.3110012  79.8204997 106.5999988 103.3811999  79.0108009 106.2895917
 105.2430012  93.9354997 104.5289988 106.1090012  94.3014997 104.3509988
 104.9960012  93.4954997 103.7149988 105.3282392  93.9261756 104.3946289
 111.9520012  93.4984997 107.2079988 111.7570012  92.7504997 106.6429988
 111.9130012  94.2564997 106.6249988 111.9200380  93.4986099 107.0518384
  97.5990012  77.4934997 118.9479988  97.2330012  76.7284997 119.3899988
  98.5120012  77.5224997 119.2339988  97.6722736  77.3925640 119.0472502
  99.5720012  76.8444997 120.4839988 100.4700012  76.5704997 120.2989988
  99.1850012  76.1014997 120.9479988  99.6426612  76.7065914 120.5213643
  98.1960012  93.6454997 103.1569988  97.9290012  93.9324997 104.0299988
  98.9680012  93.0994997 103.3089988  98.2637488  93.6110294 103.2971050
 107.9930012  76.1764997 120.6659988 108.0700012  75.7504997 121.5199988
 108.8870012  76.1904997 120.3229988 108.1243428  76.1200879 120.7365310
 111.1690012  92.2494997 119.3579988 110.3870012  92.0634997 118.8379988
 111.0970012  93.1784997 119.5759988 111.0522274  92.3496643 119.3163018
 125.5750012  86.1354997 109.3889988 125.6640012  87.0794997 109.2569988
 124.9370012  85.8604997 108.7309988 125.5009081  86.2274830 109.2819614
 124.5080012  85.3904997 112.8079988 124.4700012  84.7444997 113.5129988
 124.1860012  84.9244997 112.0369988 124.4592333  85.2389408 112.8002978
 116.8770012  85.0054997 114.4009988 116.9180012  84.3794997 115.1239988
 117.5800012  85.6294997 114.5829988 116.9776363  85.0041196 114.5246044
 128.2140012  88.3294997 111.1089988 127.7740012  87.6094997 111.5599988
 128.2010012  89.0504997 111.7389988 128.1520226  88.3283731 111.2558494
 117.8000012  89.4554997 112.9359988 117.4310012  88.6534997 112.5659988
 118.7410012  89.2864997 112.9819988 117.8767289  89.3230153 112.8916316
 114.4100012  83.1154997 108.3289988 113.9630012  83.9614997 108.3099988
 113.8490012  82.5354997 107.8129988 114.2729900  83.1529916 108.2566801
 115.1210012  85.2774997 110.4539988 115.3340012  84.5074997 110.9819988
 115.8590012  85.3664997 109.8509988 115.2499044  85.1841968 110.4447123
 125.3260012  93.4344997 111.3209988 125.9460012  92.7574997 111.0479988
 125.1180012  93.2164997 112.2299988 125.3826726  93.3124800 111.4064812
 122.8980012  87.8234997 113.2139988 123.2020012  87.1374997 112.6189988
 123.6190012  87.9414997 113.8319988 123.0370671  87.7456304 113.2161816
 131.5610012  79.4244997 114.0749988 131.6100012  80.0344997 114.8099988
 131.9860012  79.8854997 113.3519988 131.6251746  79.5703796 114.0779175
 126.0390012  82.2174997 113.5409988 126.1810012  81.2714997 113.5619988
 125.9320012  82.4244997 112.6129988 126.0439919  82.1158246 113.4183408
 119.1930012  80.3184997 110.8139988 119.2370012  81.1784997 110.3949988
 118.7360012  79.7664997 110.1799988 119.1372240  80.3614422 110.6709864
 126.9160012  80.4494997 109.2149988 127.5620012  80.1204997 109.8389988
 127.4260012  80.9674997 108.5919988 127.0734299  80.4744450 109.2162731
 115.8140012  82.7154997 111.5759988 116.4670012  82.1654997 112.0079988
 115.8380012  82.4414997 110.6589988 115.9066683  82.6031466 111.5112123
 120.9700012  84.2654997 110.7909988 121.5860012  83.7394997 111.3009988
 120.3840012  83.6254997 110.3879988 120.9750810  84.1069208 110.8063173
 131.9520012  80.9024997 116.3099988 131.2640012  81.5604997 116.2149988
 131.9680012  80.7054997 117.2469988 131.8599540  80.9659819 116.4235990
 118.0040012  79.2364997 114.8879988 117.7850012  79.7664997 114.1219988
 117.3360012  79.4634997 115.5349988 117.8837600  79.3396906 114.8706379
 125.3730012  88.7364997 108.4319988 125.0770012  88.4144997 107.5809988
 125.0480012  89.6364997 108.4729988 125.2886371  88.8140215 108.3211801
 120.5730012  86.9124997 115.1749988 119.8330012  87.5104997 115.2789988
 121.2870012  87.4664997 114.8599988 120.5682237  87.0692831 115.1466465
 128.6800012  79.7404997 111.1949988 128.4640012  78.9744997 111.7279988
 129.3350012  80.2124997 111.7079988 128.7390632  79.6995889 111.3372861
 117.5970012  81.1284997 112.8399988 118.2110012  81.7614997 113.2129988
 118.1090012  80.6564997 112.1839988 117.7501981  81.1512267 112.8022908
 118.9800012  88.8764997 115.9619988 118.9750012  89.7564997 115.5839988
 118.1270012  88.7934997 116.3869988 118.8639464  88.9856117 115.9677907
 115.1010012  88.5474997 106.7439988 114.8290012  88.7764997 105.8559988
 115.1470012  89.3854997 107.2049988 115.0699482  88.6921318 106.6846273
 128.7260012  90.1694997 113.4569988 127.7850012  90.2274997 113.6189988
 129.0030012  91.0754997 113.3199988 128.6344679  90.2999443 113.4606815
 129.0270012  78.4554997 114.8749988 128.2910012  79.0664997 114.8369988
 129.7100012  78.8704997 114.3479988 129.0186541  78.5951374 114.7985832
 122.0300012  76.5424997 112.3399988 121.9130012  75.5934997 112.2859988
 121.1750012  76.8744997 112.6139988 121.8984212  76.4575571 112.3696497
 126.9780012  91.9504997 110.0819988 127.4040012  91.2434997 109.5969988
 127.2950012  92.7514997 109.6659988 127.0791683  91.9621017 109.9593680
 128.1380012  89.8514997 108.5909988 127.8800012  89.1614997 107.9799988
 128.2090012  89.4084997 109.4369988 128.1122856  89.6972124 108.6216885
 129.8240012  88.4174997 117.0679988 129.9640012  87.8264997 116.3289988
 129.9910012  89.2904997 116.7119988 129.8657411  88.4545428 116.9186894
 124.2970012  85.3794997 106.8409988 123.5850012  85.9144997 106.4889988
 124.9880012  85.4354997 106.1809988 124.2930132  85.4602543 106.7036289
 131.6660012  84.7574997 115.1339988 131.0130012  85.4524997 115.2239988
 132.1310012  84.9674997 114.3249988 131.6395274  84.8810643 115.0368462
 127.7020012  85.5894997 107.7929988 126.9700012  85.8174997 108.3659988
 128.1500012  84.8754997 108.2469988 127.6622725  85.5242145 107.9328816
 127.6000012  83.7634997 116.8599988 127.6800012  84.5264997 117.4319988
 126.9980012  84.0424997 116.1699988 127.5295756  83.9057134 116.8450589
 119.3480012  86.2194997 109.6749988 119.0170012  85.8494997 108.8569988
 119.9360012  85.5494997 110.0219988 119.3821873  86.0781156 109.6098102
 120.7140012  89.6474997 112.3559988 120.6200012  89.0694997 111.5999988
 121.4440012  89.2764997 112.8529988 120.7997387  89.5181663 112.3195342
 119.7140012  84.9884997 113.3089988 120.2800012  85.1094997 112.5459988
 120.0330012  85.6254997 113.9469988 119.8345474  85.0912219 113.2909862
 126.0230012  90.4914997 114.0429988 125.7830012  91.1534997 114.6909988
 125.8250012  89.6574997 114.4679988 125.9633808  90.4693134 114.1891524
 120.5940012  89.3874997 118.0259988 120.2830012  90.1694997 118.4809988
 119.9440012  89.2344997 117.3399988 120.4635558  89.4739105 117.9955871
 126.5730012  84.7514997 105.4779988 127.1530012  84.9014997 106.2249988
 126.9870012  85.2224997 104.7539988 126.7082997  84.8356578 105.4824058
 117.5140012  85.5854997 117.2539988 117.5850012  86.2364997 117.9529988
 116.6240012  85.6884997 116.9189988 117.4033005  85.6885427 117.3043495
 124.3000012  91.4884997 108.9129988 124.7740012  91.7834997 109.6899988
 123.7370012  92.2264997 108.6799988 124.2888184  91.6287247 108.9879628
 118.8340012  91.4594997 118.7889988 118.8410012  91.3234997 117.8419988
 117.9180012  91.3414997 119.0409988 118.7111714  91.4249430 118.6934666
 130.2720012  76.5014997 105.2909988 129.3720012  76.6404997 105.5859988
 130.5240012  77.3324997 104.8889988 130.1828702  76.6329074 105.2770205
 118.3380012  85.2894997 107.2639988 118.0460012  86.0574997 106.7739988
 117.6640012  84.6294997 107.1019988 118.2068111  85.3055587 107.1748978
 114.4310012  87.6524997 116.0789988 113.9300012  87.6244997 115.2639988
 114.4360012  86.7464997 116.3889988 114.3630944  87.5262396 116.0093226
 114.1810012  90.4324997 112.9629988 115.1270012  90.2884997 112.9439988
 114.0690012  91.2164997 113.4999988 114.2952727  90.5188046 113.0330072
 132.3790012  91.0984997 118.6459988 132.3300012  90.1434997 118.6089988
 131.5520012  91.3664997 119.0469988 132.2604940  91.0038998 118.6951375
 123.3580012  90.6724997 117.5219988 123.4450012  91.4984997 117.9969988
 122.4940012  90.3424997 117.7709988 123.2531964  90.7409878 117.6206549
 123.7720012  94.4444997 107.3279988 123.6970012  94.3234997 106.3809988
 123.8050012  95.3944997 107.4459988 123.7662068  94.5562646 107.2144967
 117.4250012  93.2334997 109.1089988 117.5780012  92.8854997 109.9869988
 116.5750012  92.8774997 108.8539988 117.3309166  93.1376216 109.1948079
 126.5430012  93.5244997 107.0789988 125.6070012  93.6244997 107.2579988
 126.8230012  92.8154997 107.6579988 126.4529553  93.4423406 107.1817087
 129.5310012  82.5914997 119.1259988 129.1240012  83.0724997 118.4049988
 129.5720012  81.6864997 118.8179988 129.4808437  82.5349374 118.9856683
 116.6800012  88.9754997 117.1229988 116.8960012  88.6144997 117.9819988
 115.8250012  88.6014997 116.9129988 116.5939292  88.8754111 117.2123386
 119.2990012  77.4454997 113.1179988 118.4370012  77.3584997 112.7099988
 119.2760012  78.3014997 113.5459988 119.1780409  77.5492883 113.1200589
 123.9620012  77.1674997 116.4929988 124.3820012  76.7524997 117.2459988
 123.0290012  76.9894997 116.6099988 123.8933644  77.0865900 116.6119539
 127.2880012  80.9234997 117.3459988 126.7740012  80.7974997 118.1439988
 127.1330012  81.8354997 117.1019988 127.1966852  81.0296132 117.4222158
 119.3900012  82.4114997 114.2129988 118.7480012  82.3704997 114.9219988
 119.4270012  83.3374997 113.9749988 119.3070664  82.5311430 114.2779219
 119.3870012  82.6324997 109.1249988 118.4940012  82.2914997 109.0659988
 119.8370012  82.2554997 108.3689988 119.3258130  82.5349631 109.0147702
 124.9220012  83.0484997 107.9419988 124.5130012  83.8634997 107.6509988
 125.6430012  82.9084997 107.3279988 124.9634537  83.1412018 107.8191342
 124.0240012  83.2234997 119.4299988 123.4620012  82.5194997 119.7509988
 124.8510012  83.1034997 119.8979988 124.0587095  83.1107883 119.5372330
 125.9270012  82.4944997 110.7559988 125.7320012  83.0994997 110.0409988
 126.1080012  81.6604997 110.3219988 125.9247614  82.4646300 110.5994405
 117.1400012  82.7314997 116.0799988 117.1020012  83.1314997 116.9489988
 116.6490012  81.9144997 116.1709988 117.0684684  82.6758069 116.2111059
 113.7480012  79.8474997 109.9309988 114.3790012  79.8184997 110.6499988
 114.1970012  79.4224997 109.1999988 113.8950918  79.7860836 109.9306441
 125.1910012  84.1324997 115.4269988 125.5140012  83.5014997 114.7839988
 124.7510012  83.5974997 116.0879988 125.1757484  83.9738387 115.4283198
 121.9680012  80.0594997 110.2109988 121.0570012  80.1164997 110.4999988
 122.4740012  79.9994997 111.0219988 121.9116899  80.0591941 110.3601184
 116.7970012  81.6884997 109.0379988 115.9070012  81.7884997 108.6979988
 117.0930012  80.8464997 108.6919988 116.7152823  81.5883545 108.9447213
 120.4500012  81.6884997 106.6949988 121.3810012  81.8174997 106.8729988
 120.2350012  82.3584997 106.0449988 120.5484247  81.7966565 106.6315747
 126.3730012  79.2944997 113.4759988 125.6970012  79.4254997 114.1399988
 125.8880012  79.1394997 112.6649988 126.2147146  79.2915157 113.4574469
 129.6610012  94.9664997 119.7519988 129.8610012  95.3904997 118.9179988
 130.3160012  95.3094997 120.3589988 129.7770072  95.0709857 119.7198592
 117.2590012  87.4404997 119.3599988 117.9910012  87.6944997 119.9219988
 116.4790012  87.6444997 119.8759988 117.2537073  87.5028160 119.5066151
 123.2880012  82.8474997 112.0979988 123.8530012  82.3004997 111.5509988
 123.1410012  82.3254997 112.8869988 123.3453380  82.7022259 112.1298695
 118.2900012  78.9834997 108.5169988 117.9730012  78.0814997 108.4809988
 119.0720012  78.9854997 107.9639988 118.3522408  78.8602474 108.4373569
 121.9150012  81.2354997 114.5119988 121.0790012  81.6894997 114.6229988
 122.4390012  81.5114997 115.2639988 121.8715416  81.3348660 114.6288119
 122.4590012  87.4484997 106.1969988 121.7140012  86.9414997 105.8749988
 122.3250012  87.4974997 107.1439988 122.3388776  87.3856940 106.2808647
 129.6090012  86.5814997 114.9839988 130.2510012  87.0384997 114.4399988
 128.7790012  86.6944997 114.5209988 129.5845963  86.6592704 114.8470177
 123.9780012  87.6324997 117.4339988 123.6330012  87.2514997 118.2409988
 123.7780012  88.5664997 117.5049988 123.9037527  87.7065135 117.5540689
 127.0750012  82.1294997 106.0569988 127.9670012  81.9924997 106.3759988
 127.1320012  82.9204997 105.5199988 127.2046504  82.2176052 106.0280818
 117.5840012  86.7434997 111.9669988 118.3290012  86.7414997 111.3659988
 117.6620012  85.9204997 112.4479988 117.6964995  86.6318887 111.9498282
 124.5850012  88.9074997 105.2229988 124.2890012  89.7334997 105.6039988
 123.8820012  88.2874997 105.4189988 124.4494914  88.9368199 105.3016443
 114.5920012  85.2044997 117.2819988 114.8150012  84.7864997 118.1139988
 113.9900012  84.5914997 116.8589988 114.5411759  85.0644668 117.3387022
 121.6080012  84.7214997 119.4949988 121.3120012  84.5554997 118.5999988
 122.5400012  84.5014997 119.4839988 121.6934166  84.6690640 119.3710536
 126.2290012  90.0944997 117.3849988 125.3280012  90.2774997 117.1169988
 126.2630012  90.3534997 118.3049988 126.1103139  90.1545849 117.4728099
 131.9230012  88.1394997 118.5889988 131.0720012  88.3774997 118.2219988
 132.5140012  88.1224997 117.8359988 131.8862487  88.1698258 118.4368893
 127.4160012  85.9334997 113.2379988 126.4870012  85.7014997 113.2109988
 127.8670012  85.1564997 112.9079988 127.3499216  85.7967238 113.1896917
 119.9590012  90.2614997 109.3709988 120.4860012  91.0344997 109.1709988
 119.0790012  90.4864997 109.0689988 119.9122031  90.3977545 109.3027912
 115.7140012  85.1234997 103.9579988 116.3300012  85.7504997 104.3379988
 114.8520012  85.4394997 104.2299988 115.6817698  85.2519430 104.0467183
 121.3860012  87.9244997 108.9469988 121.1450012  88.8494997 108.9889988
 120.6450012  87.4654997 109.3439988 121.2529225  87.9890933 109.0063742
 121.9010012  92.0734997 115.2629988 122.2630012  92.9284997 115.0289988
 122.4320012  91.7814997 116.0029988 122.0224473  92.1511060 115.3310855
 120.0690012  92.9464997 108.4929988 119.1190012  93.0514997 108.5439988
 120.4210012  93.7664997 108.8369988 119.9864195  93.0718800 108.5465502
 125.4450012  88.1724997 114.9629988 125.0190012  87.9454997 115.7899988
 126.0250012  87.4344997 114.7809988 125.4651868  88.0415299 115.0515830
 128.1030012  92.7244997 117.4329988 127.5020012  92.1694997 116.9369988
 128.3850012  93.3914997 116.8059988 128.0588804  92.7386625 117.2804849
 116.2260012  79.9574997 116.8399988 115.3330012  80.2964997 116.7719988
 116.1270012  79.1024997 117.2579988 116.0904164  79.8882588 116.8872235
 128.5140012  87.7744997 106.2639988 128.2360012  87.0464997 106.8199988
 129.4410012  87.8934997 106.4689988 128.6013124  87.6908802 106.3678845
 115.8770012  91.7624997 115.2749988 116.0940012  90.8304997 115.2439988
 116.1230012  92.0364997 116.1579988 115.9399549  91.6720636 115.3901763
 120.6760012  89.7834997 104.9399988 120.8220012  89.2634997 105.7299988
 120.6730012  90.6904997 105.2469988 120.6955792  89.8348842 105.0896117
 117.1290012  87.0364997 105.4509988 116.4430012  87.3884997 106.0179988
 117.6510012  87.7994997 105.2039988 117.1056852  87.1878578 105.4952118
 124.9600012  79.6984997 115.7299988 125.6590012  79.7724997 116.3799988
 124.5790012  78.8344997 115.8839988 125.0041767  79.5917624 115.8398322
 125.7450012  79.3504997 106.8269988 125.9650012  79.8224997 106.0239988
 126.3030012  79.7454997 107.4969988 125.8504968  79.4684285 106.8077331
 123.4130012  91.4814997 105.6899988 122.5970012  91.9784997 105.7419988
 123.9430012  91.9564997 105.0499988 123.3729161  91.6137722 105.6105956
 122.9450012  81.0784997 107.6619988 123.7570012  81.5834997 107.7079988
 122.7000012  80.9334997 108.5759988 123.0230520  81.1280375 107.7918517
 123.4800012  82.0644997 116.8459988 123.5990012  82.6384997 117.6039988
 124.1360012  81.3764997 116.9609988 123.5849025  82.0499858 116.9651321
 123.8280012  78.1594997 108.5999988 123.4820012  78.7774997 109.2439988
 124.4870012  78.6604997 108.1179988 123.8696968  78.3116278 108.6229383
 120.7520012  92.5254997 105.6709988 120.9120012  93.3244997 105.1709988
 120.5540012  92.8314997 106.5559988 120.7471637  92.6764020 105.7221144
 119.4860012  79.2224997 105.2869988 119.4030012  80.1114997 105.6339988
 120.3760012  78.9574997 105.5189988 119.5949469  79.3081430 105.3657626
 129.6850012  79.9714997 117.6809988 128.7680012  80.2344997 117.5939988
 130.0200012  79.9684997 116.7849988 129.6048613  80.0070761 117.5478837
 128.2870012  83.7224997 111.7769988 127.4890012  83.3074997 111.4489988
 128.7320012  83.0314997 112.2679988 128.2379885  83.5723543 111.7984889
 129.3730012  92.9784997 113.3999988 129.2180012  93.6564997 112.7419988
 130.3060012  93.0504997 113.6029988 129.4778657  93.0809546 113.3374360
 116.8690012  77.0964997 112.1369988 116.6400012  77.1554997 111.2089988
 116.4260012  76.3044997 112.4429988 116.7778530  76.9975753 112.0514786
 115.7990012  91.0364997 108.2969988 114.9670012  91.5094997 108.3239988
 116.3450012  91.5464997 107.6989988 115.7590352  91.1701332 108.2198463
 115.0870012  93.6494997 119.6269988 115.6280012  93.4324997 120.3869988
 114.6060012  92.8434997 119.4369988 115.0959951  93.5109270 119.7052576
 119.6850012  92.5684997 121.2469988 120.4520012  92.1094997 121.5879988
 119.6630012  92.3424997 120.3179988 119.7871275  92.4750186 121.1680101
 126.2620012  90.9484997 119.9769988 125.9110012  90.0924997 120.2199988
 126.9880012  91.0914997 120.5839988 126.3120769  90.8505636 120.0923619
 114.9940012  87.4594997 120.5809988 115.1380012  86.5574997 120.2949988
 114.2220012  87.7454997 120.0939988 114.9092753  87.3746816 120.4759505
 121.6500012  87.4294997 120.0139988 121.3210012  87.7004997 119.1569988
 121.8020012  86.4884997 119.9269988 121.6254809  87.3393862 119.8848244
 127.3840012  87.3454997 117.3969988 128.1300012  87.9334997 117.2779988
 126.6270012  87.9274997 117.4609988 127.3837820  87.5047143 117.3893590
 115.8270012  84.6594997 120.0009988 116.2350012  83.8024997 119.8799988
 115.5670012  84.6744997 120.9219988 115.8477568  84.5440807 120.1089588
 120.4850012  85.7754997 105.0199988 120.0250012  85.2914997 105.7059988
 120.7400012  85.1074997 104.3839988 120.4564902  85.6188731 105.0279334
 119.7740012  83.6684997 117.3759988 119.1560012  84.3434997 117.6559988
 120.1180012  83.9894997 116.5419988 119.7359132  83.8042411 117.3016262
 124.7940012  86.1404997 120.6529988 125.7470012  86.2234997 120.6259988
 124.6330012  85.4284997 121.2729988 124.9026426  86.0556746 120.7330579
 120.1130012  81.0234997 118.4579988 120.2630012  80.2944997 117.8559988
 120.1160012  81.8004997 117.8989988 120.1339302  81.0287851 118.3000692
 120.5260012  79.3934997 115.9509988 121.0620012  79.8444997 115.2989988
 119.6740012  79.2854997 115.5279988 120.4842178  79.4406390 115.8045756
 122.1080012  84.8324997 116.1899988 122.8580012  84.6764997 115.6169988
 121.7690012  85.6844997 115.9149988 122.1648921  84.9262968 116.0743561
 126.5230012  82.6474997 121.2189988 126.7160012  81.7164997 121.1069988
 127.3810012  83.0724997 121.2079988 126.6652934  82.5776531 121.2022031
 127.8400012  85.4364997 119.2959988 127.5590012  86.1454997 118.7179988
 128.7830012  85.3634997 119.1449988 127.9289291  85.5236711 119.1964967
 118.5920012  82.2214997 120.3699988 117.8250012  81.6894997 120.1589988
 119.2710012  81.9114997 119.7699988 118.5787877  82.1068300 120.2600716
 121.3320012  76.8494997 116.3819988 121.2330012  77.7964997 116.2769988
 120.5890012  76.4774997 115.9059988 121.2181184  76.9285863 116.3033621
 122.5960012  81.1714997 119.9459988 122.3600012  80.9514997 120.8469988
 121.8120012  80.9644997 119.4359988 122.4578504  81.1134586 120.0003431
 125.3110012  80.2984997 119.0209988 124.3640012  80.3304997 119.1539988
 125.6240012  79.6734997 119.6749988 125.2236707  80.2183998 119.1276060
 126.9450012  78.9324997 121.0269988 126.8490012  77.9804997 121.0209988
 126.6240012  79.2014997 121.8869988 126.8884070  78.8384035 121.1425441
 116.7720012  80.1424997 120.0739988 116.9840012  79.4354997 119.4639988
 116.6610012  79.7044997 120.9179988 116.7859721  79.9867084 120.1046843
 121.5530012  76.1434997 119.0529988 122.2650012  75.5034997 119.0389988
 121.4520012  76.4104997 118.1399988 121.6368066  76.0920079 118.9275677
 121.9070012  77.8264997 121.1069988 121.7750012  77.3504997 120.2869988
 121.3080012  78.5704997 121.0519988 121.8079071  77.8619618 120.9872886
 113.6710012  94.7384997 108.8439988 113.0240012  94.2764997 108.3109988
 114.0250012  94.0664997 109.4259988 113.6303849  94.5844723 108.8497959
 114.5410012  92.8194997 110.6479988 114.2060012  91.9394997 110.8199988
 114.7630012  93.1644997 111.5129988 114.5251783  92.7457500 110.7884208
 132.0890012  93.6284997 113.6289988 132.0680012  93.8134997 114.5679988
 132.7800012  94.1974997 113.2879988 132.1794618  93.7306606 113.7113864
 131.6530012  93.1964997 116.5509988 131.1650012  92.4604997 116.1789988
 132.2020012  92.8024997 117.2289988 131.6604820  93.0425889 116.5917813
 130.1030012  88.9854997 121.1889988 129.2370012  88.8804997 121.5829988
 130.4800012  89.7444997 121.6349988 130.0353308  89.0736900 121.3032393
 131.4040012  87.2424997 106.7029988 132.2540012  87.6634997 106.8299988
 131.4100012  86.5024997 107.3099988 131.5211372  87.2000803 106.8024344
 131.7990012  85.2954997 108.5259988 131.0720012  84.8164997 108.9239988
 132.3800012  85.5014997 109.2589988 131.7780473  85.2578103 108.6794528
 131.5580012  88.0804997 113.4739988 132.3910012  87.7024997 113.1939988
 131.6700012  89.0234997 113.3549988 131.6872647  88.1562218 113.4195487
 130.0440012  90.9584997 115.7809988 129.3970012  91.2834997 116.4069988
 129.5270012  90.5184997 115.1069988 129.8854029  90.9435004 115.7755827
 132.0670012  85.1964997 104.9179988 131.5450012  85.5534997 104.1989988
 132.0340012  85.8714997 105.5959988 131.9911634  85.3365413 104.9113145
 129.5850012  83.8164997 109.0889988 129.4350012  82.8714997 109.0689988
 129.2320012  84.0974997 109.9329988 129.5167448  83.7251481 109.2003705
 114.6210012  85.8944997 113.0999988 114.8050012  85.8124997 112.1639988
 115.4700012  85.7704997 113.5229988 114.7610151  85.8665073 113.0291451
 130.4420012  85.7864997 118.7279988 131.0250012  85.0524997 118.9199988
 131.0060012  86.5584997 118.7749988 130.5979769  85.7904227 118.7606159
 131.9380012  83.6894997 119.4129988 131.0750012  83.3104997 119.2469988
 132.5430012  82.9504997 119.3379988 131.9016119  83.5378268 119.3801528
 129.2960012  81.3994997 107.5519988 129.5760012  80.4924997 107.6759988
 130.0550012  81.8334997 107.1629988 129.4369277  81.3340942 107.5163682
 129.9080012  81.9804997 112.9879988 130.8410012  82.1924997 112.9529988
 129.6730012  82.0824997 113.9099988 130.0039244  82.0233100 113.1078892
 129.9370012  82.7174997 115.7639988 129.0940012  82.9854997 116.1299988
 130.3790012  83.5394997 115.5529988 129.8814158  82.8653291 115.7855491
 114.2180012  81.1654997 119.2409988 115.1380012  81.0434997 119.4769988
 113.7690012  80.4154997 119.6299988 114.2831580  81.0473727 119.3259006
 132.2200012  76.6974997 121.1169988 132.5700012  76.0434997 120.5119988
 132.3670012  77.5344997 120.6769988 132.2877887  76.7211548 120.9746858
 129.9090012  78.6624997 107.5999988 130.0920012  78.2134997 108.4259988
 129.3100012  78.0774997 107.1369988 129.8530202  78.5219975 107.6503275
 115.4390012  79.4774997 112.1319988 115.8850012  78.6854997 112.4339988
 115.9060012  80.1934997 112.5619988 115.5630831  79.4660685 112.2314006
 113.7430012  82.4764997 113.2009988 114.2350012  82.2554997 112.4099988
 114.1060012  83.3174997 113.4819988 113.8593126  82.5598357 113.1307531
 131.7400012  78.8064997 119.4659988 130.8220012  79.0774997 119.4309988
 131.8630012  78.2714997 118.6819988 131.6309729  78.7712508 119.3551923
 114.0570012  78.7344997 107.2549988 113.1320012  78.9434997 107.1259988
 114.5110012  79.2184997 106.5649988 113.9917292  78.8285343 107.1440720
 128.8280012  93.7184997 109.2009988 129.4800012  93.3714997 108.5929988
 129.3380012  94.2074997 109.8469988 128.9862637  93.7370597 109.2050236
 114.0210012  77.4724997 115.5989988 113.3560012  77.2264997 116.2429988
 113.5780012  78.0944997 115.0219988 113.8701318  77.5229410 115.6090898
 116.2130012  90.6474997 119.7439988 115.3920012  90.8224997 119.2829988
 115.9600012  90.5744997 120.6639988 116.0665585  90.6615544 119.8053561
 119.1670012  91.6224997 116.0019988 118.7420012  92.4314997 115.7199988
 120.0710012  91.7074997 115.6999988 119.2309975  91.7449300 115.9224816
 123.4780012  93.0214997 118.9619988 123.6630012  92.6874997 119.8399988
 124.3240012  93.3304997 118.6399988 123.6177539  93.0176047 119.0385605
 125.8230012  94.3074997 118.2059988 126.5000012  93.6744997 117.9659988
 126.1450012  94.7084997 119.0129988 125.9591637  94.2751154 118.2822793
 130.7400012  76.8964997 117.2849988 129.9280012  77.2214997 116.8979988
 130.9730012  76.1364997 116.7519988 130.6602203  76.8382758 117.1598880
 116.5690012  94.8784997 116.0499988 115.8480012  95.3184997 115.5989988
 116.2030012  94.6274997 116.8979988 116.4209651  94.9047242 116.1029640
 119.0360012  94.4784997 115.0799988 118.1710012  94.5504997 115.4839988
 118.9810012  95.0254997 114.2959988 118.9102085  94.5622685 115.0293362
 123.7460012  94.3664997 114.2549988 123.2900012  94.8954997 113.6009988
 123.9090012  94.9694997 114.9799988 123.7056068  94.5204607 114.2634838
 126.0740012  93.2444997 115.1999988 125.1690012  93.4094997 114.9339988
 126.5030012  94.0974997 115.1349988 126.0081324  93.3824339 115.1547976
 128.6780012  94.8144997 115.4949988 128.4960012  95.7304997 115.2849988
 128.8550012  94.4044997 114.6489988 128.6770210  94.8844822 115.3517885
 115.9830012  93.5014997 112.9599988 115.9650012  93.0764997 113.8169988
 116.7880012  93.1834997 112.5509988 116.0893529  93.4003013 113.0220946
 118.1250012  92.2114997 111.6149988 117.9060012  91.2954997 111.7849988
 118.9490012  92.3514997 112.0809988 118.2064420  92.1050520 111.7012774
 120.6620012  92.6814997 112.4639988 120.8750012  91.7934997 112.1769988
 120.7260012  92.6474997 113.4179988 120.6998232  92.5553102 112.5537397
 124.1700012  78.3454997 111.6079988 123.4960012  77.7164997 111.8639988
 124.7340012  77.8614997 111.0049988 124.1539230  78.1938744 111.5615340
 129.3130012  76.4534997 111.7209988 129.9170012  77.0004997 111.2189988
 128.4430012  76.7724997 111.4799988 129.2781208  76.5715137 111.6196886
 131.0400012  77.5914997 110.0539988 131.6520012  77.0774997 109.5269988
 131.4220012  78.4694997 110.0769988 131.1753371  77.6397866 109.9850041
 116.4970012  76.9794997 109.4299988 115.7200012  76.7454997 108.9229988
 117.0270012  76.1824997 109.4389988 116.4622330  76.8396988 109.3617742
 115.3330012  76.7774997 105.2339988 115.7720012  77.3884997 104.6419988
 114.7000012  77.3154997 105.7079988 115.3074514  76.9339257 105.2170930
 121.0760012  76.9064997 109.2439988 121.9510012  77.2944997 109.2139988
 120.9400012  76.6914997 110.1659988 121.1773695  76.9305184 109.3646440
 126.6330012  76.9364997 110.8929988 126.7090012  77.0314997 109.9429988
 126.3580012  76.0284997 111.0219988 126.6062321  76.8267867 110.7805079
 127.9860012  76.9624997 106.5849988 127.2840012  77.5774997 106.3749988
 127.5420012  76.1244997 106.7159988 127.8296450  76.9335639 106.5739000
 115.2340012  92.7254997 106.1309988 114.5490012  92.6874997 105.4639988
 115.2380012  93.6384997 106.4199988 115.1406998  92.8436733 106.0786771
 122.2200012  78.9864997 106.1329988 122.3980012  78.3404997 106.8159988
 122.1670012  79.8204997 106.5999988 122.2371999  79.0108009 106.2895917
 130.8080012  93.4984997 107.2079988 130.6130012  92.7504997 106.6429988
 130.7690012  94.2564997 106.6249988 130.7760380  93.4986099 107.0518384
 116.4550012  77.4934997 118.9479988 116.0890012  76.7284997 119.3899988
 117.3680012  77.5224997 119.2339988 116.5282736  77.3925640 119.0472502
 118.4280012  76.8444997 120.4839988 119.3260012  76.5704997 120.2989988
 118.0410012  76.1014997 120.9479988 118.4986612  76.7065914 120.5213643
 126.8490012  76.1764997 120.6659988 126.9260012  75.7504997 121.5199988
 127.7430012  76.1904997 120.3229988 126.9803428  76.1200879 120.7365310
 130.0250012  92.2494997 119.3579988 129.2430012  92.0634997 118.8379988
 129.9530012  93.1784997 119.5759988 129.9082274  92.3496643 119.3163018
 144.4310012  86.1354997 109.3889988 144.5200012  87.0794997 109.2569988
 143.7930012  85.8604997 108.7309988 144.3569081  86.2274830 109.2819614
 143.3640012  85.3904997 112.8079988 143.3260012  84.7444997 113.5129988
 143.0420012  84.9244997 112.0369988 143.3152333  85.2389408 112.8002978
 135.7330012  85.0054997 114.4009988 135.7740012  84.3794997 115.1239988
 136.4360012  85.6294997 114.5829988 135.8336363  85.0041196 114.5246044
 136.6560012  89.4554997 112.9359988 136.2870012  88.6534997 112.5659988
 137.5970012  89.2864997 112.9819988 136.7327289  89.3230153 112.8916316
 133.2660012  83.1154997 108.3289988 132.8190012  83.9614997 108.3099988
 132.7050012  82.5354997 107.8129988 133.1289900  83.1529916 108.2566801
 133.9770012  85.2774997 110.4539988 134.1900012  84.5074997 110.9819988
 134.7150012  85.3664997 109.8509988 134.1059044  85.1841968 110.4447123
 144.1820012  93.4344997 111.3209988 144.8020012  92.7574997 111.0479988
 143.9740012  93.2164997 112.2299988 144.2386726  93.3124800 111.4064812
 141.7540012  87.8234997 113.2139988 142.0580012  87.1374997 112.6189988
 142.4750012  87.9414997 113.8319988 141.8930671  87.7456305 113.2161816
 144.8950012  82.2174997 113.5409988 145.0370012  81.2714997 113.5619988
 144.7880012  82.4244997 112.6129988 144.8999919  82.1158246 113.4183408
 138.0490012  80.3184997 110.8139988 138.0930012  81.1784997 110.3949988
 137.5920012  79.7664997 110.1799988 137.9932240  80.3614422 110.6709864
 134.6700012  82.7154997 111.5759988 135.3230012  82.1654997 112.0079988
 134.6940012  82.4414997 110.6589988 134.7626683  82.6031466 111.5112123
 139.8260012  84.2654997 110.7909988 140.4420012  83.7394997 111.3009988
 139.2400012  83.6254997 110.3879988 139.8310810  84.1069208 110.8063173
 136.8600012  79.2364997 114.8879988 136.6410012  79.7664997 114.1219988
 136.1920012  79.4634997 115.5349988 136.7397600  79.3396906 114.8706379
 144.2290012  88.7364997 108.4319988 143.9330012  88.4144997 107.5809988
 143.9040012  89.6364997 108.4729988 144.1446371  88.8140215 108.3211801
 139.4290012  86.9124997 115.1749988 138.6890012  87.5104997 115.2789988
 140.1430012  87.4664997 114.8599988 139.4242237  87.0692831 115.1466465
 136.4530012  81.1284997 112.8399988 137.0670012  81.7614997 113.2129988
 136.9650012  80.6564997 112.1839988 136.6061981  81.1512267 112.8022908
 137.8360012  88.8764997 115.9619988 137.8310012  89.7564997 115.5839988
 136.9830012  88.7934997 116.3869988 137.7199464  88.9856117 115.9677907
 133.9570012  88.5474997 106.7439988 133.6850012  88.7764997 105.8559988
 134.0030012  89.3854997 107.2049988 133.9259482  88.6921318 106.6846273
 140.8860012  76.5424997 112.3399988 140.7690012  75.5934997 112.2859988
 140.0310012  76.8744997 112.6139988 140.7544212  76.4575571 112.3696497
 143.1530012  85.3794997 106.8409988 142.4410012  85.9144997 106.4889988
 143.8440012  85.4354997 106.1809988 143.1490132  85.4602543 106.7036289
 143.2060012  83.8374997 103.8799988 143.9070012  83.8594997 104.5309988
 143.5090012  83.2094997 103.2229988 143.3428133  83.7557070 103.8803369
 138.2040012  86.2194997 109.6749988 137.8730012  85.8494997 108.8569988
 138.7920012  85.5494997 110.0219988 138.2381873  86.0781156 109.6098102
 139.5700012  89.6474997 112.3559988 139.4760012  89.0694997 111.5999988
 140.3000012  89.2764997 112.8529988 139.6557387  89.5181663 112.3195342
 138.5700012  84.9884997 113.3089988 139.1360012  85.1094997 112.5459988
 138.8890012  85.6254997 113.9469988 138.6905474  85.0912219 113.2909862
 144.8790012  90.4914997 114.0429988 144.6390012  91.1534997 114.6909988
 144.6810012  89.6574997 114.4679988 144.8193808  90.4693134 114.1891524
 139.4500012  89.3874997 118.0259988 139.1390012  90.1694997 118.4809988
 138.8000012  89.2344997 117.3399988 139.3195558  89.4739105 117.9955871
 136.3700012  85.5854997 117.2539988 136.4410012  86.2364997 117.9529988
 135.4800012  85.6884997 116.9189988 136.2593005  85.6885427 117.3043495
 143.1560012  91.4884997 108.9129988 143.6300012  91.7834997 109.6899988
 142.5930012  92.2264997 108.6799988 143.1448184  91.6287247 108.9879628
 137.6900012  91.4594997 118.7889988 137.6970012  91.3234997 117.8419988
 136.7740012  91.3414997 119.0409988 137.5671714  91.4249430 118.6934666
 137.1940012  85.2894997 107.2639988 136.9020012  86.0574997 106.7739988
 136.5200012  84.6294997 107.1019988 137.0628111  85.3055587 107.1748978
 133.2870012  87.6524997 116.0789988 132.7860012  87.6244997 115.2639988
 133.2920012  86.7464997 116.3889988 133.2190944  87.5262396 116.0093226
 133.0370012  90.4324997 112.9629988 133.9830012  90.2884997 112.9439988
 132.9250012  91.2164997 113.4999988 133.1512727  90.5188046 113.0330072
 142.2140012  90.6724997 117.5219988 142.3010012  91.4984997 117.9969988
 141.3500012  90.3424997 117.7709988 142.1091964  90.7409878 117.6206549
 142.6280012  94.4444997 107.3279988 142.5530012  94.3234997 106.3809988
 142.6610012  95.3944997 107.4459988 142.6222068  94.5562646 107.2144967
 136.2810012  93.2334997 109.1089988 136.4340012  92.8854997 109.9869988
 135.4310012  92.8774997 108.8539988 136.1869166  93.1376216 109.1948079
 135.5360012  88.9754997 117.1229988 135.7520012  88.6144997 117.9819988
 134.6810012  88.6014997 116.9129988 135.4499292  88.8754111 117.2123386
 138.1550012  77.4454997 113.1179988 137.2930012  77.3584997 112.7099988
 138.1320012  78.3014997 113.5459988 138.0340409  77.5492883 113.1200589
 142.8180012  77.1674997 116.4929988 143.2380012  76.7524997 117.2459988
 141.8850012  76.9894997 116.6099988 142.7493644  77.0865900 116.6119539
 138.2460012  82.4114997 114.2129988 137.6040012  82.3704997 114.9219988
 138.2830012  83.3374997 113.9749988 138.1630664  82.5311430 114.2779219
 138.2430012  82.6324997 109.1249988 137.3500012  82.2914997 109.0659988
 138.6930012  82.2554997 108.3689988 138.1818130  82.5349631 109.0147702
 143.7780012  83.0484997 107.9419988 143.3690012  83.8634997 107.6509988
 144.4990012  82.9084997 107.3279988 143.8194537  83.1412018 107.8191342
 142.8800012  83.2234997 119.4299988 142.3180012  82.5194997 119.7509988
 143.7070012  83.1034997 119.8979988 142.9147095  83.1107883 119.5372330
 144.7830012  82.4944997 110.7559988 144.5880012  83.0994997 110.0409988
 144.9640012  81.6604997 110.3219988 144.7807614  82.4646300 110.5994405
 135.9960012  82.7314997 116.0799988 135.9580012  83.1314997 116.9489988
 135.5050012  81.9144997 116.1709988 135.9244684  82.6758069 116.2111059
 132.6040012  79.8474997 109.9309988 133.2350012  79.8184997 110.6499988
 133.0530012  79.4224997 109.1999988 132.7510918  79.7860836 109.9306441
 144.0470012  84.1324997 115.4269988 144.3700012  83.5014997 114.7839988
 143.6070012  83.5974997 116.0879988 144.0317484  83.9738387 115.4283198
 140.8240012  80.0594997 110.2109988 139.9130012  80.1164997 110.4999988
 141.3300012  79.9994997 111.0219988 140.7676899  80.0591941 110.3601184
 135.6530012  81.6884997 109.0379988 134.7630012  81.7884997 108.6979988
 135.9490012  80.8464997 108.6919988 135.5712823  81.5883545 108.9447213
 139.3060012  81.6884997 106.6949988 140.2370012  81.8174997 106.8729988
 139.0910012  82.3584997 106.0449988 139.4044247  81.7966565 106.6315747
 137.9800012  82.8834997 104.2609988 137.4370012  82.5034997 103.5699988
 138.8130012  83.0774997 103.8329988 138.0183631  82.8577125 104.1084501
 136.1150012  87.4404997 119.3599988 136.8470012  87.6944997 119.9219988
 135.3350012  87.6444997 119.8759988 136.1097073  87.5028160 119.5066151
 142.1440012  82.8474997 112.0979988 142.7090012  82.3004997 111.5509988
 141.9970012  82.3254997 112.8869988 142.2013380  82.7022259 112.1298695
 137.1460012  78.9834997 108.5169988 136.8290012  78.0814997 108.4809988
 137.9280012  78.9854997 107.9639988 137.2082408  78.8602474 108.4373569
 140.7710012  81.2354997 114.5119988 139.9350012  81.6894997 114.6229988
 141.2950012  81.5114997 115.2639988 140.7275416  81.3348660 114.6288119
 142.8340012  87.6324997 117.4339988 142.4890012  87.2514997 118.2409988
 142.6340012  88.5664997 117.5049988 142.7597527  87.7065135 117.5540689
 136.4400012  86.7434997 111.9669988 137.1850012  86.7414997 111.3659988
 136.5180012  85.9204997 112.4479988 136.5524995  86.6318887 111.9498282
 133.4480012  85.2044997 117.2819988 133.6710012  84.7864997 118.1139988
 132.8460012  84.5914997 116.8589988 133.3971759  85.0644668 117.3387022
 140.4640012  84.7214997 119.4949988 140.1680012  84.5554997 118.5999988
 141.3960012  84.5014997 119.4839988 140.5494166  84.6690640 119.3710536
 138.8150012  90.2614997 109.3709988 139.3420012  91.0344997 109.1709988
 137.9350012  90.4864997 109.0689988 138.7682031  90.3977545 109.3027912
 134.5700012  85.1234997 103.9579988 135.1860012  85.7504997 104.3379988
 133.7080012  85.4394997 104.2299988 134.5377698  85.2519430 104.0467183
 140.2420012  87.9244997 108.9469988 140.0010012  88.8494997 108.9889988
 139.5010012  87.4654997 109.3439988 140.1089225  87.9890933 109.0063742
 140.7570012  92.0734997 115.2629988 141.1190012  92.9284997 115.0289988
 141.2880012  91.7814997 116.0029988 140.8784473  92.1511060 115.3310855
 138.9250012  92.9464997 108.4929988 137.9750012  93.0514997 108.5439988
 139.2770012  93.7664997 108.8369988 138.8424195  93.0718800 108.5465502
 144.3010012  88.1724997 114.9629988 143.8750012  87.9454997 115.7899988
 144.8810012  87.4344997 114.7809988 144.3211868  88.0415299 115.0515830
 135.0820012  79.9574997 116.8399988 134.1890012  80.2964997 116.7719988
 134.9830012  79.1024997 117.2579988 134.9464164  79.8882588 116.8872235
 134.7330012  91.7624997 115.2749988 134.9500012  90.8304997 115.2439988
 134.9790012  92.0364997 116.1579988 134.7959549  91.6720636 115.3901763
 135.9850012  87.0364997 105.4509988 135.2990012  87.3884997 106.0179988
 136.5070012  87.7994997 105.2039988 135.9616852  87.1878578 105.4952118
 143.8160012  79.6984997 115.7299988 144.5150012  79.7724997 116.3799988
 143.4350012  78.8344997 115.8839988 143.8601767  79.5917624 115.8398322
 144.6010012  79.3504997 106.8269988 144.8210012  79.8224997 106.0239988
 145.1590012  79.7454997 107.4969988 144.7064968  79.4684285 106.8077331
 141.8010012  81.0784997 107.6619988 142.6130012  81.5834997 107.7079988
 141.5560012  80.9334997 108.5759988 141.8790520  81.1280375 107.7918517
 142.3360012  82.0644997 116.8459988 142.4550012  82.6384997 117.6039988
 142.9920012  81.3764997 116.9609988 142.4409025  82.0499858 116.9651321
 142.6840012  78.1594997 108.5999988 142.3380012  78.7774997 109.2439988
 143.3430012  78.6604997 108.1179988 142.7256968  78.3116278 108.6229383
 139.6080012  92.5254997 105.6709988 139.7680012  93.3244997 105.1709988
 139.4100012  92.8314997 106.5559988 139.6031637  92.6764020 105.7221144
 136.6010012  89.6504997 104.3479988 137.1930012  90.3494997 104.6239988
 137.0600012  89.2174997 103.6279988 136.7441142  89.6877049 104.2884830
 135.7250012  77.0964997 112.1369988 135.4960012  77.1554997 111.2089988
 135.2820012  76.3044997 112.4429988 135.6338530  76.9975753 112.0514786
 134.6550012  91.0364997 108.2969988 133.8230012  91.5094997 108.3239988
 135.2010012  91.5464997 107.6989988 134.6150352  91.1701332 108.2198463
 133.9430012  93.6494997 119.6269988 134.4840012  93.4324997 120.3869988
 133.4620012  92.8434997 119.4369988 133.9519951  93.5109270 119.7052576
 138.5410012  92.5684997 121.2469988 139.3080012  92.1094997 121.5879988
 138.5190012  92.3424997 120.3179988 138.6431275  92.4750186 121.1680101
 133.8500012  87.4594997 120.5809988 133.9940012  86.5574997 120.2949988
 133.0780012  87.7454997 120.0939988 133.7652753  87.3746816 120.4759505
 140.5060012  87.4294997 120.0139988 140.1770012  87.7004997 119.1569988
 140.6580012  86.4884997 119.9269988 140.4814809  87.3393862 119.8848244
 134.6830012  84.6594997 120.0009988 135.0910012  83.8024997 119.8799988
 134.4230012  84.6744997 120.9219988 134.7037568  84.5440807 120.1089588
 139.3410012  85.7754997 105.0199988 138.8810012  85.2914997 105.7059988
 139.5960012  85.1074997 104.3839988 139.3124902  85.6188731 105.0279334
 138.6300012  83.6684997 117.3759988 138.0120012  84.3434997 117.6559988
 138.9740012  83.9894997 116.5419988 138.5919132  83.8042411 117.3016262
 140.4120012  84.0184997 103.2819988 140.2320012  83.8644997 102.3549988
 141.3620012  84.1264997 103.3269988 140.5157776  84.0120175 103.1611843
 143.6500012  86.1404997 120.6529988 144.6030012  86.2234997 120.6259988
 143.4890012  85.4284997 121.2729988 143.7586426  86.0556746 120.7330579
 138.9690012  81.0234997 118.4579988 139.1190012  80.2944997 117.8559988
 138.9720012  81.8004997 117.8989988 138.9899302  81.0287851 118.3000692
 139.3820012  79.3934997 115.9509988 139.9180012  79.8444997 115.2989988
 138.5300012  79.2854997 115.5279988 139.3402178  79.4406390 115.8045756
 140.9640012  84.8324997 116.1899988 141.7140012  84.6764997 115.6169988
 140.6250012  85.6844997 115.9149988 141.0208921  84.9262968 116.0743561
 137.4480012  82.2214997 120.3699988 136.6810012  81.6894997 120.1589988
 138.1270012  81.9114997 119.7699988 137.4347877  82.1068300 120.2600716
 140.1880012  76.8494997 116.3819988 140.0890012  77.7964997 116.2769988
 139.4450012  76.4774997 115.9059988 140.0741184  76.9285863 116.3033621
 141.4520012  81.1714997 119.9459988 141.2160012  80.9514997 120.8469988
 140.6680012  80.9644997 119.4359988 141.3138504  81.1134586 120.0003431
 144.1670012  80.2984997 119.0209988 143.2200012  80.3304997 119.1539988
 144.4800012  79.6734997 119.6749988 144.0796707  80.2183998 119.1276060
 135.6280012  80.1424997 120.0739988 135.8400012  79.4354997 119.4639988
 135.5170012  79.7044997 120.9179988 135.6419721  79.9867084 120.1046843
 140.4090012  76.1434997 119.0529988 141.1210012  75.5034997 119.0389988
 140.3080012  76.4104997 118.1399988 140.4928066  76.0920079 118.9275677
 140.7630012  77.8264997 121.1069988 140.6310012  77.3504997 120.2869988
 140.1640012  78.5704997 121.0519988 140.6639071  77.8619618 120.9872886
 132.5270012  94.7384997 108.8439988 131.8800012  94.2764997 108.3109988
 132.8810012  94.0664997 109.4259988 132.4863849  94.5844723 108.8497959
 133.3970012  92.8194997 110.6479988 133.0620012  91.9394997 110.8199988
 133.6190012  93.1644997 111.5129988 133.3811783  92.7457500 110.7884208
 133.4770012  85.8944997 113.0999988 133.6610012  85.8124997 112.1639988
 134.3260012  85.7704997 113.5229988 133.6170151  85.8665073 113.0291451
 133.0740012  81.1654997 119.2409988 133.9940012  81.0434997 119.4769988
 132.6250012  80.4154997 119.6299988 133.1391580  81.0473727 119.3259006
 134.2950012  79.4774997 112.1319988 134.7410012  78.6854997 112.4339988
 134.7620012  80.1934997 112.5619988 134.4190831  79.4660685 112.2314006
 132.5990012  82.4764997 113.2009988 133.0910012  82.2554997 112.4099988
 132.9620012  83.3174997 113.4819988 132.7153126  82.5598357 113.1307531
 132.9130012  78.7344997 107.2549988 131.9880012  78.9434997 107.1259988
 133.3670012  79.2184997 106.5649988 132.8477292  78.8285343 107.1440720
 132.8770012  77.4724997 115.5989988 132.2120012  77.2264997 116.2429988
 132.4340012  78.0944997 115.0219988 132.7261318  77.5229410 115.6090898
 135.0690012  90.6474997 119.7439988 134.2480012  90.8224997 119.2829988
 134.8160012  90.5744997 120.6639988 134.9225585  90.6615544 119.8053561
 138.0230012  91.6224997 116.0019988 137.5980012  92.4314997 115.7199988
 138.9270012  91.7074997 115.6999988 138.0869975  91.7449300 115.9224816
 142.3340012  93.0214997 118.9619988 142.5190012  92.6874997 119.8399988
 143.1800012  93.3304997 118.6399988 142.4737539  93.0176047 119.0385605
 144.6790012  94.3074997 118.2059988 145.3560012  93.6744997 117.9659988
 145.0010012  94.7084997 119.0129988 144.8151637  94.2751154 118.2822793
 135.4250012  94.8784997 116.0499988 134.7040012  95.3184997 115.5989988
 135.0590012  94.6274997 116.8979988 135.2769651  94.9047242 116.1029640
 137.8920012  94.4784997 115.0799988 137.0270012  94.5504997 115.4839988
 137.8370012  95.0254997 114.2959988 137.7662085  94.5622685 115.0293362
 142.6020012  94.3664997 114.2549988 142.1460012  94.8954997 113.6009988
 142.7650012  94.9694997 114.9799988 142.5616068  94.5204607 114.2634838
 134.8390012  93.5014997 112.9599988 134.8210012  93.0764997 113.8169988
 135.6440012  93.1834997 112.5509988 134.9453529  93.4003013 113.0220946
 136.9810012  92.2114997 111.6149988 136.7620012  91.2954997 111.7849988
 137.8050012  92.3514997 112.0809988 137.0624420  92.1050520 111.7012774
 139.5180012  92.6814997 112.4639988 139.7310012  91.7934997 112.1769988
 139.5820012  92.6474997 113.4179988 139.5558232  92.5553102 112.5537397
 143.0260012  78.3454997 111.6079988 142.3520012  77.7164997 111.8639988
 143.5900012  77.8614997 111.0049988 143.0099230  78.1938744 111.5615340
 135.3530012  76.9794997 109.4299988 134.5760012  76.7454997 108.9229988
 135.8830012  76.1824997 109.4389988 135.3182330  76.8396988 109.3617742
 139.9320012  76.9064997 109.2439988 140.8070012  77.2944997 109.2139988
 139.7960012  76.6914997 110.1659988 140.0333695  76.9305184 109.3646440
 135.3110012  77.4934997 118.9479988 134.9450012  76.7284997 119.3899988
 136.2240012  77.5224997 119.2339988 135.3842736  77.3925640 119.0472502
 137.2840012  76.8444997 120.4839988 138.1820012  76.5704997 120.2989988
 136.8970012  76.1014997 120.9479988 137.3546612  76.7065914 120.5213643
  12.4390012 104.9914997 109.3889988  12.5280012 105.9354997 109.2569988
  11.8010012 104.7164997 108.7309988  12.3649081 105.0834830 109.2819614
  11.3720012 104.2464997 112.8079988  11.3340012 103.6004997 113.5129988
  11.0500012 103.7804997 112.0369988  11.3232333 104.0949408 112.8002978
   3.7410012 103.8614997 114.4009988   3.7820012 103.2354997 115.1239988
   4.4440012 104.4854997 114.5829988   3.8416363 103.8601196 114.5246044
  15.0780012 107.1854997 111.1089988  14.6380012 106.4654997 111.5599988
  15.0650012 107.9064997 111.7389988  15.0160226 107.1843731 111.2558494
   4.6640012 108.3114997 112.9359988   4.2950012 107.5094997 112.5659988
   5.6050012 108.1424997 112.9819988   4.7407289 108.1790153 112.8916316
   1.2740012 101.9714997 108.3289988   0.8270012 102.8174997 108.3099988
   0.7130012 101.3914997 107.8129988   1.1369900 102.0089916 108.2566801
   1.9850012 104.1334997 110.4539988   2.1980012 103.3634997 110.9819988
   2.7230012 104.2224997 109.8509988   2.1139044 104.0401968 110.4447123
  12.1900012 112.2904997 111.3209988  12.8100012 111.6134997 111.0479988
  11.9820012 112.0724997 112.2299988  12.2466726 112.1684800 111.4064812
   9.7620012 106.6794997 113.2139988  10.0660012 105.9934997 112.6189988
  10.4830012 106.7974997 113.8319988   9.9010671 106.6016304 113.2161816
  18.4250012  98.2804997 114.0749988  18.4740012  98.8904997 114.8099988
  18.8500012  98.7414997 113.3519988  18.4891746  98.4263796 114.0779175
  12.9030012 101.0734997 113.5409988  13.0450012 100.1274997 113.5619988
  12.7960012 101.2804997 112.6129988  12.9079919 100.9718246 113.4183408
   6.0570012  99.1744997 110.8139988   6.1010012 100.0344997 110.3949988
   5.6000012  98.6224997 110.1799988   6.0012240  99.2174422 110.6709864
  13.7800012  99.3054997 109.2149988  14.4260012  98.9764997 109.8389988
  14.2900012  99.8234997 108.5919988  13.9374299  99.3304450 109.2162731
   2.6780012 101.5714997 111.5759988   3.3310012 101.0214997 112.0079988
   2.7020012 101.2974997 110.6589988   2.7706683 101.4591466 111.5112123
   7.8340012 103.1214997 110.7909988   8.4500012 102.5954997 111.3009988
   7.2480012 102.4814997 110.3879988   7.8390810 102.9629208 110.8063173
  18.8160012  99.7584997 116.3099988  18.1280012 100.4164997 116.2149988
  18.8320012  99.5614997 117.2469988  18.7239540  99.8219819 116.4235990
   4.8680012  98.0924997 114.8879988   4.6490012  98.6224997 114.1219988
   4.2000012  98.3194997 115.5349988   4.7477600  98.1956906 114.8706379
  12.2370012 107.5924997 108.4319988  11.9410012 107.2704997 107.5809988
  11.9120012 108.4924997 108.4729988  12.1526371 107.6700215 108.3211801
   7.4370012 105.7684997 115.1749988   6.6970012 106.3664997 115.2789988
   8.1510012 106.3224997 114.8599988   7.4322237 105.9252831 115.1466465
  15.5440012  98.5964997 111.1949988  15.3280012  97.8304997 111.7279988
  16.1990012  99.0684997 111.7079988  15.6030632  98.5555889 111.3372861
   4.4610012  99.9844997 112.8399988   5.0750012 100.6174997 113.2129988
   4.9730012  99.5124997 112.1839988   4.6141981 100.0072267 112.8022908
   5.8440012 107.7324997 115.9619988   5.8390012 108.6124997 115.5839988
   4.9910012 107.6494997 116.3869988   5.7279464 107.8416117 115.9677907
   1.9650012 107.4034997 106.7439988   1.6930012 107.6324997 105.8559988
   2.0110012 108.2414997 107.2049988   1.9339482 107.5481318 106.6846273
  15.5900012 109.0254997 113.4569988  14.6490012 109.0834997 113.6189988
  15.8670012 109.9314997 113.3199988  15.4984679 109.1559443 113.4606815
  15.8910012  97.3114997 114.8749988  15.1550012  97.9224997 114.8369988
  16.5740012  97.7264997 114.3479988  15.8826541  97.4511374 114.7985832
   8.8940012  95.3984997 112.3399988   8.7770012  94.4494997 112.2859988
   8.0390012  95.7304997 112.6139988   8.7624212  95.3135571 112.3696497
  13.8420012 110.8064997 110.0819988  14.2680012 110.0994997 109.5969988
  14.1590012 111.6074997 109.6659988  13.9431683 110.8181017 109.9593680
  15.0020012 108.7074997 108.5909988  14.7440012 108.0174997 107.9799988
  15.0730012 108.2644997 109.4369988  14.9762856 108.5532124 108.6216885
  16.6880012 107.2734997 117.0679988  16.8280012 106.6824997 116.3289988
  16.8550012 108.1464997 116.7119988  16.7297411 107.3105428 116.9186894
  11.1610012 104.2354997 106.8409988  10.4490012 104.7704997 106.4889988
  11.8520012 104.2914997 106.1809988  11.1570132 104.3162543 106.7036289
  11.2140012 102.6934997 103.8799988  11.9150012 102.7154997 104.5309988
  11.5170012 102.0654997 103.2229988  11.3508133 102.6117070 103.8803369
  18.5300012 103.6134997 115.1339988  17.8770012 104.3084997 115.2239988
  18.9950012 103.8234997 114.3249988  18.5035274 103.7370643 115.0368462
  14.5660012 104.4454997 107.7929988  13.8340012 104.6734997 108.3659988
  15.0140012 103.7314997 108.2469988  14.5262725 104.3802145 107.9328816
  14.4640012 102.6194997 116.8599988  14.5440012 103.3824997 117.4319988
  13.8620012 102.8984997 116.1699988  14.3935756 102.7617134 116.8450589
   6.2120012 105.0754997 109.6749988   5.8810012 104.7054997 108.8569988
   6.8000012 104.4054997 110.0219988   6.2461873 104.9341156 109.6098102
   7.5780012 108.5034997 112.3559988   7.4840012 107.9254997 111.5999988
   8.3080012 108.1324997 112.8529988   7.6637387 108.3741663 112.3195342
   6.5780012 103.8444997 113.3089988   7.1440012 103.9654997 112.5459988
   6.8970012 104.4814997 113.9469988   6.6985474 103.9472219 113.2909862
  12.8870012 109.3474997 114.0429988  12.6470012 110.0094997 114.6909988
  12.6890012 108.5134997 114.4679988  12.8273808 109.3253134 114.1891524
   7.4580012 108.2434997 118.0259988   7.1470012 109.0254997 118.4809988
   6.8080012 108.0904997 117.3399988   7.3275558 108.3299105 117.9955871
  13.4370012 103.6074997 105.4779988  14.0170012 103.7574997 106.2249988
  13.8510012 104.0784997 104.7539988  13.5722997 103.6916578 105.4824058
   4.3780012 104.4414997 117.2539988   4.4490012 105.0924997 117.9529988
   3.4880012 104.5444997 116.9189988   4.2673005 104.5445427 117.3043495
  11.1640012 110.3444997 108.9129988  11.6380012 110.6394997 109.6899988
  10.6010012 111.0824997 108.6799988  11.1528184 110.4847247 108.9879628
   5.6980012 110.3154997 118.7889988   5.7050012 110.1794997 117.8419988
   4.7820012 110.1974997 119.0409988   5.5751714 110.2809430 118.6934666
  17.1360012  95.3574997 105.2909988  16.2360012  95.4964997 105.5859988
  17.3880012  96.1884997 104.8889988  17.0468702  95.4889074 105.2770205
   5.2020012 104.1454997 107.2639988   4.9100012 104.9134997 106.7739988
   4.5280012 103.4854997 107.1019988   5.0708111 104.1615587 107.1748978
   1.2950012 106.5084997 116.0789988   0.7940012 106.4804997 115.2639988
   1.3000012 105.6024997 116.3889988   1.2270944 106.3822396 116.0093226
   1.0450012 109.2884997 112.9629988   1.9910012 109.1444997 112.9439988
   0.9330012 110.0724997 113.4999988   1.1592727 109.3748046 113.0330072
  19.2430012 109.9544997 118.6459988  19.1940012 108.9994997 118.6089988
  18.4160012 110.2224997 119.0469988  19.1244940 109.8598998 118.6951375
  10.2220012 109.5284997 117.5219988  10.3090012 110.3544997 117.9969988
   9.3580012 109.1984997 117.7709988  10.1171964 109.5969878 117.6206549
  10.6360012 113.3004997 107.3279988  10.5610012 113.1794997 106.3809988
  10.6690012 114.2504997 107.4459988  10.6302068 113.4122646 107.2144967
   4.2890012 112.0894997 109.1089988   4.4420012 111.7414997 109.9869988
   3.4390012 111.7334997 108.8539988   4.1949166 111.9936216 109.1948079
  13.4070012 112.3804997 107.0789988  12.4710012 112.4804997 107.2579988
  13.6870012 111.6714997 107.6579988  13.3169553 112.2983406 107.1817087
  16.3950012 101.4474997 119.1259988  15.9880012 101.9284997 118.4049988
  16.4360012 100.5424997 118.8179988  16.3448437 101.3909374 118.9856683
   3.5440012 107.8314997 117.1229988   3.7600012 107.4704997 117.9819988
   2.6890012 107.4574997 116.9129988   3.4579292 107.7314111 117.2123386
   6.1630012  96.3014997 113.1179988   5.3010012  96.2144997 112.7099988
   6.1400012  97.1574997 113.5459988   6.0420409  96.4052883 113.1200589
  10.8260012  96.0234997 116.4929988  11.2460012  95.6084997 117.2459988
   9.8930012  95.8454997 116.6099988  10.7573644  95.9425900 116.6119539
  14.1520012  99.7794997 117.3459988  13.6380012  99.6534997 118.1439988
  13.9970012 100.6914997 117.1019988  14.0606852  99.8856132 117.4222158
   6.2540012 101.2674997 114.2129988   5.6120012 101.2264997 114.9219988
   6.2910012 102.1934997 113.9749988   6.1710664 101.3871430 114.2779219
   6.2510012 101.4884997 109.1249988   5.3580012 101.1474997 109.0659988
   6.7010012 101.1114997 108.3689988   6.1898130 101.3909631 109.0147702
  11.7860012 101.9044997 107.9419988  11.3770012 102.7194997 107.6509988
  12.5070012 101.7644997 107.3279988  11.8274537 101.9972018 107.8191342
  10.8880012 102.0794997 119.4299988  10.3260012 101.3754997 119.7509988
  11.7150012 101.9594997 119.8979988  10.9227095 101.9667883 119.5372330
  12.7910012 101.3504997 110.7559988  12.5960012 101.9554997 110.0409988
  12.9720012 100.5164997 110.3219988  12.7887614 101.3206300 110.5994405
   4.0040012 101.5874997 116.0799988   3.9660012 101.9874997 116.9489988
   3.5130012 100.7704997 116.1709988   3.9324684 101.5318069 116.2111059
   0.6120012  98.7034997 109.9309988   1.2430012  98.6744997 110.6499988
   1.0610012  98.2784997 109.1999988   0.7590918  98.6420836 109.9306441
  12.0550012 102.9884997 115.4269988  12.3780012 102.3574997 114.7839988
  11.6150012 102.4534997 116.0879988  12.0397484 102.8298387 115.4283198
   8.8320012  98.9154997 110.2109988   7.9210012  98.9724997 110.4999988
   9.3380012  98.8554997 111.0219988   8.7756899  98.9151941 110.3601184
   3.6610012 100.5444997 109.0379988   2.7710012 100.6444997 108.6979988
   3.9570012  99.7024997 108.6919988   3.5792823 100.4443545 108.9447213
   7.3140012 100.5444997 106.6949988   8.2450012 100.6734997 106.8729988
   7.0990012 101.2144997 106.0449988   7.4124247 100.6526565 106.6315747
  13.2370012  98.1504997 113.4759988  12.5610012  98.2814997 114.1399988
  12.7520012  97.9954997 112.6649988  13.0787146  98.1475157 113.4574469
  16.5250012 113.8224997 119.7519988  16.7250012 114.2464997 118.9179988
  17.1800012 114.1654997 120.3589988  16.6410072 113.9269857 119.7198592
   4.1230012 106.2964997 119.3599988   4.8550012 106.5504997 119.9219988
   3.3430012 106.5004997 119.8759988   4.1177073 106.3588160 119.5066151
  10.1520012 101.7034997 112.0979988  10.7170012 101.1564997 111.5509988
  10.0050012 101.1814997 112.8869988  10.2093380 101.5582259 112.1298695
   5.1540012  97.8394997 108.5169988   4.8370012  96.9374997 108.4809988
   5.9360012  97.8414997 107.9639988   5.2162408  97.7162474 108.4373569
   8.7790012 100.0914997 114.5119988   7.9430012 100.5454997 114.6229988
   9.3030012 100.3674997 115.2639988   8.7355416 100.1908660 114.6288119
   9.3230012 106.3044997 106.1969988   8.5780012 105.7974997 105.8749988
   9.1890012 106.3534997 107.1439988   9.2028776 106.2416940 106.2808647
  16.4730012 105.4374997 114.9839988  17.1150012 105.8944997 114.4399988
  15.6430012 105.5504997 114.5209988  16.4485963 105.5152704 114.8470177
  10.8420012 106.4884997 117.4339988  10.4970012 106.1074997 118.2409988
  10.6420012 107.4224997 117.5049988  10.7677527 106.5625135 117.5540689
  13.9390012 100.9854997 106.0569988  14.8310012 100.8484997 106.3759988
  13.9960012 101.7764997 105.5199988  14.0686504 101.0736052 106.0280818
   4.4480012 105.5994997 111.9669988   5.1930012 105.5974997 111.3659988
   4.5260012 104.7764997 112.4479988   4.5604995 105.4878887 111.9498282
   1.4560012 104.0604997 117.2819988   1.6790012 103.6424997 118.1139988
   0.8540012 103.4474997 116.8589988   1.4051759 103.9204668 117.3387022
   8.4720012 103.5774997 119.4949988   8.1760012 103.4114997 118.5999988
   9.4040012 103.3574997 119.4839988   8.5574166 103.5250640 119.3710536
  13.0930012 108.9504997 117.3849988  12.1920012 109.1334997 117.1169988
  13.1270012 109.2094997 118.3049988  12.9743139 109.0105849 117.4728099
  18.8240012 101.1954997 105.7519988  18.2700012 100.7994997 105.0799988
  18.9240012 102.1054997 105.4739988  18.7617059 101.2643586 105.6224401
  18.7870012 106.9954997 118.5889988  17.9360012 107.2334997 118.2219988
  19.3780012 106.9784997 117.8359988  18.7502487 107.0258258 118.4368893
  17.1190012 109.9814997 106.2169988  16.7460012 109.1554997 106.5259988
  17.3970012 109.7984997 105.3189988  17.1055222 109.8437430 106.1379473
  14.2800012 104.7894997 113.2379988  13.3510012 104.5574997 113.2109988
  14.7310012 104.0124997 112.9079988  14.2139216 104.6527238 113.1896917
   6.8230012 109.1174997 109.3709988   7.3500012 109.8904997 109.1709988
   5.9430012 109.3424997 109.0689988   6.7762031 109.2537545 109.3027912
   8.2500012 106.7804997 108.9469988   8.0090012 107.7054997 108.9889988
   7.5090012 106.3214997 109.3439988   8.1169225 106.8450933 109.0063742
   8.7650012 110.9294997 115.2629988   9.1270012 111.7844997 115.0289988
   9.2960012 110.6374997 116.0029988   8.8864473 111.0071060 115.3310855
   6.9330012 111.8024997 108.4929988   5.9830012 111.9074997 108.5439988
   7.2850012 112.6224997 108.8369988   6.8504195 111.9278800 108.5465502
  12.3090012 107.0284997 114.9629988  11.8830012 106.8014997 115.7899988
  12.8890012 106.2904997 114.7809988  12.3291868 106.8975299 115.0515830
  14.9670012 111.5804997 117.4329988  14.3660012 111.0254997 116.9369988
  15.2490012 112.2474997 116.8059988  14.9228804 111.5946625 117.2804849
   3.0900012  98.8134997 116.8399988   2.1970012  99.1524997 116.7719988
   2.9910012  97.9584997 117.2579988   2.9544164  98.7442588 116.8872235
  15.3780012 106.6304997 106.2639988  15.1000012 105.9024997 106.8199988
  16.3050012 106.7494997 106.4689988  15.4653124 106.5468802 106.3678845
   2.7410012 110.6184997 115.2749988   2.9580012 109.6864997 115.2439988
   2.9870012 110.8924997 116.1579988   2.8039549 110.5280636 115.3901763
   8.6030012 109.0694997 102.4839988   8.8420012 108.3214997 101.9369988
   8.3340012 108.6814997 103.3169988   8.5993675 108.9146638 102.5216865
   7.5400012 108.6394997 104.9399988   7.6860012 108.1194997 105.7299988
   7.5370012 109.5464997 105.2469988   7.5595792 108.6908842 105.0896117
   3.9930012 105.8924997 105.4509988   3.3070012 106.2444997 106.0179988
   4.5150012 106.6554997 105.2039988   3.9696852 106.0438578 105.4952118
  11.8240012  98.5544997 115.7299988  12.5230012  98.6284997 116.3799988
  11.4430012  97.6904997 115.8839988  11.8681767  98.4477624 115.8398322
  12.6090012  98.2064997 106.8269988  12.8290012  98.6784997 106.0239988
  13.1670012  98.6014997 107.4969988  12.7144968  98.3244285 106.8077331
  10.2770012 110.3374997 105.6899988   9.4610012 110.8344997 105.7419988
  10.8070012 110.8124997 105.0499988  10.2369161 110.4697722 105.6105956
   9.8090012  99.9344997 107.6619988  10.6210012 100.4394997 107.7079988
   9.5640012  99.7894997 108.5759988   9.8870520  99.9840375 107.7918517
  10.3440012 100.9204997 116.8459988  10.4630012 101.4944997 117.6039988
  11.0000012 100.2324997 116.9609988  10.4489025 100.9059858 116.9651321
  10.6920012  97.0154997 108.5999988  10.3460012  97.6334997 109.2439988
  11.3510012  97.5164997 108.1179988  10.7336968  97.1676278 108.6229383
   7.6160012 111.3814997 105.6709988   7.7760012 112.1804997 105.1709988
   7.4180012 111.6874997 106.5559988   7.6111637 111.5324020 105.7221144
   6.3500012  98.0784997 105.2869988   6.2670012  98.9674997 105.6339988
   7.2400012  97.8134997 105.5189988   6.4589469  98.1641430 105.3657626
  16.5490012  98.8274997 117.6809988  15.6320012  99.0904997 117.5939988
  16.8840012  98.8244997 116.7849988  16.4688613  98.8630761 117.5478837
  15.1510012 102.5784997 111.7769988  14.3530012 102.1634997 111.4489988
  15.5960012 101.8874997 112.2679988  15.1019885 102.4283543 111.7984889
   4.6090012 108.5064997 104.3479988   5.2010012 109.2054997 104.6239988
   5.0680012 108.0734997 103.6279988   4.7521142 108.5437049 104.2884830
  16.2370012 111.8344997 113.3999988  16.0820012 112.5124997 112.7419988
  17.1700012 111.9064997 113.6029988  16.3418657 111.9369546 113.3374360
   3.7330012  95.9524997 112.1369988   3.5040012  96.0114997 111.2089988
   3.2900012  95.1604997 112.4429988   3.6418530  95.8535753 112.0514786
   2.6630012 109.8924997 108.2969988   1.8310012 110.3654997 108.3239988
   3.2090012 110.4024997 107.6989988   2.6230352 110.0261332 108.2198463
   1.9510012 112.5054997 119.6269988   2.4920012 112.2884997 120.3869988
   1.4700012 111.6994997 119.4369988   1.9599951 112.3669270 119.7052576
   6.5490012 111.4244997 121.2469988   7.3160012 110.9654997 121.5879988
   6.5270012 111.1984997 120.3179988   6.6511275 111.3310186 121.1680101
  10.6410012 110.9324997 102.6229988   9.9970012 110.3014997 102.9439988
  11.4030012 110.4014997 102.3909988  10.6558077 110.7742920 102.6356011
  13.1260012 109.8044997 119.9769988  12.7750012 108.9484997 120.2199988
  13.8520012 109.9474997 120.5839988  13.1760769 109.7065636 120.0923619
  15.2450012 110.7494997 102.8559988  15.5280012 109.9554997 103.3089988
  15.9850012 110.9824997 102.2959988  15.3838006 110.6723376 102.8422715
   1.8580012 106.3154997 120.5809988   2.0020012 105.4134997 120.2949988
   1.0860012 106.6014997 120.0939988   1.7732753 106.2306816 120.4759505
   8.5140012 106.2854997 120.0139988   8.1850012 106.5564997 119.1569988
   8.6660012 105.3444997 119.9269988   8.4894809 106.1953862 119.8848244
  14.2480012 106.2014997 117.3969988  14.9940012 106.7894997 117.2779988
  13.4910012 106.7834997 117.4609988  14.2477820 106.3607143 117.3893590
   2.6910012 103.5154997 120.0009988   3.0990012 102.6584997 119.8799988
   2.4310012 103.5304997 120.9219988   2.7117568 103.4000807 120.1089588
   7.3490012 104.6314997 105.0199988   6.8890012 104.1474997 105.7059988
   7.6040012 103.9634997 104.3839988   7.3204902 104.4748731 105.0279334
   6.6380012 102.5244997 117.3759988   6.0200012 103.1994997 117.6559988
   6.9820012 102.8454997 116.5419988   6.5999132 102.6602411 117.3016262
   8.4200012 102.8744997 103.2819988   8.2400012 102.7204997 102.3549988
   9.3700012 102.9824997 103.3269988   8.5237776 102.8680175 103.1611843
  11.6580012 104.9964997 120.6529988  12.6110012 105.0794997 120.6259988
  11.4970012 104.2844997 121.2729988  11.7666426 104.9116746 120.7330579
   6.9770012  99.8794997 118.4579988   7.1270012  99.1504997 117.8559988
   6.9800012 100.6564997 117.8989988   6.9979302  99.8847851 118.3000692
   7.3900012  98.2494997 115.9509988   7.9260012  98.7004997 115.2989988
   6.5380012  98.1414997 115.5279988   7.3482178  98.2966390 115.8045756
   8.9720012 103.6884997 116.1899988   9.7220012 103.5324997 115.6169988
   8.6330012 104.5404997 115.9149988   9.0288921 103.7822968 116.0743561
  13.3870012 101.5034997 121.2189988  13.5800012 100.5724997 121.1069988
  14.2450012 101.9284997 121.2079988  13.5292934 101.4336531 121.2022031
  14.7040012 104.2924997 119.2959988  14.4230012 105.0014997 118.7179988
  15.6470012 104.2194997 119.1449988  14.7929291 104.3796711 119.1964967
   5.4560012 101.0774997 120.3699988   4.6890012 100.5454997 120.1589988
   6.1350012 100.7674997 119.7699988   5.4427877 100.9628300 120.2600716
   8.1960012  95.7054997 116.3819988   8.0970012  96.6524997 116.2769988
   7.4530012  95.3334997 115.9059988   8.0821184  95.7845863 116.3033621
   9.4600012 100.0274997 119.9459988   9.2240012  99.8074997 120.8469988
   8.6760012  99.8204997 119.4359988   9.3218504  99.9694586 120.0003431
  12.1750012  99.1544997 119.0209988  11.2280012  99.1864997 119.1539988
  12.4880012  98.5294997 119.6749988  12.0876707  99.0743998 119.1276060
  13.8090012  97.7884997 121.0269988  13.7130012  96.8364997 121.0209988
  13.4880012  98.0574997 121.8869988  13.7524070  97.6944035 121.1425441
   3.6360012  98.9984997 120.0739988   3.8480012  98.2914997 119.4639988
   3.5250012  98.5604997 120.9179988   3.6499721  98.8427084 120.1046843
   8.4170012  94.9994997 119.0529988   9.1290012  94.3594997 119.0389988
   8.3160012  95.2664997 118.1399988   8.5008066  94.9480079 118.9275677
   8.7710012  96.6824997 121.1069988   8.6390012  96.2064997 120.2869988
   8.1720012  97.4264997 121.0519988   8.6719071  96.7179618 120.9872886
   1.8860012 108.2014997 103.7659988   2.8000012 108.2804997 104.0399988
   1.8930012 107.5144997 103.0999988   2.0121131 108.1193961 103.7134393
   0.5350012 113.5944997 108.8439988  -0.1119988 113.1324997 108.3109988
   0.8890012 112.9224997 109.4259988   0.4943849 113.4404723 108.8497959
   1.4050012 111.6754997 110.6479988   1.0700012 110.7954997 110.8199988
   1.6270012 112.0204997 111.5129988   1.3891783 111.6017501 110.7884208
  18.9530012 112.4844997 113.6289988  18.9320012 112.6694997 114.5679988
  19.6440012 113.0534997 113.2879988  19.0434618 112.5866606 113.7113864
  18.5170012 112.0524997 116.5509988  18.0290012 111.3164997 116.1789988
  19.0660012 111.6584997 117.2289988  18.5244820 111.8985889 116.5917813
  16.9670012 107.8414997 121.1889988  16.1010012 107.7364997 121.5829988
  17.3440012 108.6004997 121.6349988  16.8993308 107.9296900 121.3032393
  18.2680012 106.0984997 106.7029988  19.1180012 106.5194997 106.8299988
  18.2740012 105.3584997 107.3099988  18.3851372 106.0560803 106.8024344
  18.6630012 104.1514997 108.5259988  17.9360012 103.6724997 108.9239988
  19.2440012 104.3574997 109.2589988  18.6420473 104.1138103 108.6794528
  18.4220012 106.9364997 113.4739988  19.2550012 106.5584997 113.1939988
  18.5340012 107.8794997 113.3549988  18.5512647 107.0122218 113.4195487
  16.9080012 109.8144997 115.7809988  16.2610012 110.1394997 116.4069988
  16.3910012 109.3744997 115.1069988  16.7494029 109.7995004 115.7755827
  16.4490012 102.6724997 109.0889988  16.2990012 101.7274997 109.0689988
  16.0960012 102.9534997 109.9329988  16.3807448 102.5811481 109.2003705
   1.4850012 104.7504997 113.0999988   1.6690012 104.6684997 112.1639988
   2.3340012 104.6264997 113.5229988   1.6250151 104.7225073 113.0291451
  17.3060012 104.6424997 118.7279988  17.8890012 103.9084997 118.9199988
  17.8700012 105.4144997 118.7749988  17.4619769 104.6464227 118.7606159
  18.8020012 102.5454997 119.4129988  17.9390012 102.1664997 119.2469988
  19.4070012 101.8064997 119.3379988  18.7656119 102.3938268 119.3801528
  16.1600012 100.2554997 107.5519988  16.4400012  99.3484997 107.6759988
  16.9190012 100.6894997 107.1629988  16.3009277 100.1900942 107.5163682
  16.7720012 100.8364997 112.9879988  17.7050012 101.0484997 112.9529988
  16.5370012 100.9384997 113.9099988  16.8679244 100.8793100 113.1078892
  16.8010012 101.5734997 115.7639988  15.9580012 101.8414997 116.1299988
  17.2430012 102.3954997 115.5529988  16.7454158 101.7213291 115.7855491
   1.0820012 100.0214997 119.2409988   2.0020012  99.8994997 119.4769988
   0.6330012  99.2714997 119.6299988   1.1471580  99.9033727 119.3259006
  19.0840012  95.5534997 121.1169988  19.4340012  94.8994997 120.5119988
  19.2310012  96.3904997 120.6769988  19.1517887  95.5771548 120.9746858
  16.7730012  97.5184997 107.5999988  16.9560012  97.0694997 108.4259988
  16.1740012  96.9334997 107.1369988  16.7170202  97.3779975 107.6503275
   2.3030012  98.3334997 112.1319988   2.7490012  97.5414997 112.4339988
   2.7700012  99.0494997 112.5619988   2.4270831  98.3220685 112.2314006
   0.6070012 101.3324997 113.2009988   1.0990012 101.1114997 112.4099988
   0.9700012 102.1734997 113.4819988   0.7233126 101.4158357 113.1307531
  18.6040012  97.6624997 119.4659988  17.6860012  97.9334997 119.4309988
  18.7270012  97.1274997 118.6819988  18.4949729  97.6272508 119.3551923
   0.9210012  97.5904997 107.2549988  -0.0039988  97.7994997 107.1259988
   1.3750012  98.0744997 106.5649988   0.8557292  97.6845343 107.1440720
  15.6920012 112.5744997 109.2009988  16.3440012 112.2274997 108.5929988
  16.2020012 113.0634997 109.8469988  15.8502637 112.5930597 109.2050236
   0.8850012  96.3284997 115.5989988   0.2200012  96.0824997 116.2429988
   0.4420012  96.9504997 115.0219988   0.7341318  96.3789410 115.6090898
   3.0770012 109.5034997 119.7439988   2.2560012 109.6784997 119.2829988
   2.8240012 109.4304997 120.6639988   2.9305585 109.5175544 119.8053561
   6.0310012 110.4784997 116.0019988   5.6060012 111.2874997 115.7199988
   6.9350012 110.5634997 115.6999988   6.0949975 110.6009300 115.9224816
  10.3420012 111.8774997 118.9619988  10.5270012 111.5434997 119.8399988
  11.1880012 112.1864997 118.6399988  10.4817539 111.8736047 119.0385605
  12.6870012 113.1634997 118.2059988  13.3640012 112.5304997 117.9659988
  13.0090012 113.5644997 119.0129988  12.8231637 113.1311154 118.2822793
  17.6040012  95.7524997 117.2849988  16.7920012  96.0774997 116.8979988
  17.8370012  94.9924997 116.7519988  17.5242203  95.6942758 117.1598880
   3.4330012 113.7344997 116.0499988   2.7120012 114.1744997 115.5989988
   3.0670012 113.4834997 116.8979988   3.2849651 113.7607242 116.1029640
   5.9000012 113.3344997 115.0799988   5.0350012 113.4064997 115.4839988
   5.8450012 113.8814997 114.2959988   5.7742085 113.4182685 115.0293362
  10.6100012 113.2224997 114.2549988  10.1540012 113.7514997 113.6009988
  10.7730012 113.8254997 114.9799988  10.5696068 113.3764607 114.2634838
  12.9380012 112.1004997 115.1999988  12.0330012 112.2654997 114.9339988
  13.3670012 112.9534997 115.1349988  12.8721324 112.2384339 115.1547976
  15.5420012 113.6704997 115.4949988  15.3600012 114.5864997 115.2849988
  15.7190012 113.2604997 114.6489988  15.5410210 113.7404822 115.3517885
   2.8470012 112.3574997 112.9599988   2.8290012 111.9324997 113.8169988
   3.6520012 112.0394997 112.5509988   2.9533529 112.2563013 113.0220946
   4.9890012 111.0674997 111.6149988   4.7700012 110.1514997 111.7849988
   5.8130012 111.2074997 112.0809988   5.0704420 110.9610520 111.7012774
   7.5260012 111.5374997 112.4639988   7.7390012 110.6494997 112.1769988
   7.5900012 111.5034997 113.4179988   7.5638232 111.4113102 112.5537397
  11.0340012  97.2014997 111.6079988  10.3600012  96.5724997 111.8639988
  11.5980012  96.7174997 111.0049988  11.0179230  97.0498744 111.5615340
  16.1770012  95.3094997 111.7209988  16.7810012  95.8564997 111.2189988
  15.3070012  95.6284997 111.4799988  16.1421208  95.4275137 111.6196886
  17.9040012  96.4474997 110.0539988  18.5160012  95.9334997 109.5269988
  18.2860012  97.3254997 110.0769988  18.0393371  96.4957866 109.9850041
   3.3610012  95.8354997 109.4299988   2.5840012  95.6014997 108.9229988
   3.8910012  95.0384997 109.4389988   3.3262330  95.6956988 109.3617742
   2.1970012  95.6334997 105.2339988   2.6360012  96.2444997 104.6419988
   1.5640012  96.1714997 105.7079988   2.1714514  95.7899257 105.2170930
   7.9400012  95.7624997 109.2439988   8.8150012  96.1504997 109.2139988
   7.8040012  95.5474997 110.1659988   8.0413695  95.7865184 109.3646440
  13.4970012  95.7924997 110.8929988  13.5730012  95.8874997 109.9429988
  13.2220012  94.8844997 111.0219988  13.4702321  95.6827867 110.7805079
  14.8500012  95.8184997 106.5849988  14.1480012  96.4334997 106.3749988
  14.4060012  94.9804997 106.7159988  14.6936450  95.7895639 106.5739000
   2.0980012 111.5814997 106.1309988   1.4130012 111.5434997 105.4639988
   2.1020012 112.4944997 106.4199988   2.0046998 111.6996733 106.0786771
   9.0840012  97.8424997 106.1329988   9.2620012  97.1964997 106.8159988
   9.0310012  98.6764997 106.5999988   9.1011999  97.8668009 106.2895917
  17.6720012 112.3544997 107.2079988  17.4770012 111.6064997 106.6429988
  17.6330012 113.1124997 106.6249988  17.6400380 112.3546099 107.0518384
   3.3190012  96.3494997 118.9479988   2.9530012  95.5844997 119.3899988
   4.2320012  96.3784997 119.2339988   3.3922736  96.2485640 119.0472502
   5.2920012  95.7004997 120.4839988   6.1900012  95.4264997 120.2989988
   4.9050012  94.9574997 120.9479988   5.3626612  95.5625914 120.5213643
  13.7130012  95.0324997 120.6659988  13.7900012  94.6064997 121.5199988
  14.6070012  95.0464997 120.3229988  13.8443428  94.9760879 120.7365310
  16.8890012 111.1054997 119.3579988  16.1070012 110.9194997 118.8379988
  16.8170012 112.0344997 119.5759988  16.7722274 111.2056643 119.3163018
  31.2950012 104.9914997 109.3889988  31.3840012 105.9354997 109.2569988
  30.6570012 104.7164997 108.7309988  31.2209081 105.0834830 109.2819614
  30.2280012 104.2464997 112.8079988  30.1900012 103.6004997 113.5129988
  29.9060012 103.7804997 112.0369988  30.1792333 104.0949408 112.8002978
  22.5970012 103.8614997 114.4009988  22.6380012 103.2354997 115.1239988
  23.3000012 104.4854997 114.5829988  22.6976363 103.8601196 114.5246044
  33.9340012 107.1854997 111.1089988  33.4940012 106.4654997 111.5599988
  33.9210012 107.9064997 111.7389988  33.8720226 107.1843731 111.2558494
  23.5200012 108.3114997 112.9359988  23.1510012 107.5094997 112.5659988
  24.4610012 108.1424997 112.9819988  23.5967289 108.1790153 112.8916316
  20.1300012 101.9714997 108.3289988  19.6830012 102.8174997 108.3099988
  19.5690012 101.3914997 107.8129988  19.9929900 102.0089916 108.2566801
  20.8410012 104.1334997 110.4539988  21.0540012 103.3634997 110.9819988
  21.5790012 104.2224997 109.8509988  20.9699044 104.0401968 110.4447123
  31.0460012 112.2904997 111.3209988  31.6660012 111.6134997 111.0479988
  30.8380012 112.0724997 112.2299988  31.1026726 112.1684800 111.4064812
  28.6180012 106.6794997 113.2139988  28.9220012 105.9934997 112.6189988
  29.3390012 106.7974997 113.8319988  28.7570671 106.6016305 113.2161816
  37.2810012  98.2804997 114.0749988  37.3300012  98.8904997 114.8099988
  37.7060012  98.7414997 113.3519988  37.3451746  98.4263796 114.0779175
  31.7590012 101.0734997 113.5409988  31.9010012 100.1274997 113.5619988
  31.6520012 101.2804997 112.6129988  31.7639919 100.9718246 113.4183408
  24.9130012  99.1744997 110.8139988  24.9570012 100.0344997 110.3949988
  24.4560012  98.6224997 110.1799988  24.8572240  99.2174422 110.6709864
  32.6360012  99.3054997 109.2149988  33.2820012  98.9764997 109.8389988
  33.1460012  99.8234997 108.5919988  32.7934299  99.3304450 109.2162731
  21.5340012 101.5714997 111.5759988  22.1870012 101.0214997 112.0079988
  21.5580012 101.2974997 110.6589988  21.6266683 101.4591466 111.5112123
  26.6900012 103.1214997 110.7909988  27.3060012 102.5954997 111.3009988
  26.1040012 102.4814997 110.3879988  26.6950810 102.9629208 110.8063173
  37.6720012  99.7584997 116.3099988  36.9840012 100.4164997 116.2149988
  37.6880012  99.5614997 117.2469988  37.5799540  99.8219819 116.4235990
  23.7240012  98.0924997 114.8879988  23.5050012  98.6224997 114.1219988
  23.0560012  98.3194997 115.5349988  23.6037600  98.1956906 114.8706379
  31.0930012 107.5924997 108.4319988  30.7970012 107.2704997 107.5809988
  30.7680012 108.4924997 108.4729988  31.0086371 107.6700215 108.3211801
  26.2930012 105.7684997 115.1749988  25.5530012 106.3664997 115.2789988
  27.0070012 106.3224997 114.8599988  26.2882237 105.9252831 115.1466465
  34.4000012  98.5964997 111.1949988  34.1840012  97.8304997 111.7279988
  35.0550012  99.0684997 111.7079988  34.4590632  98.5555889 111.3372861
  23.3170012  99.9844997 112.8399988  23.9310012 100.6174997 113.2129988
  23.8290012  99.5124997 112.1839988  23.4701981 100.0072267 112.8022908
  24.7000012 107.7324997 115.9619988  24.6950012 108.6124997 115.5839988
  23.8470012 107.6494997 116.3869988  24.5839464 107.8416117 115.9677907
  20.8210012 107.4034997 106.7439988  20.5490012 107.6324997 105.8559988
  20.8670012 108.2414997 107.2049988  20.7899482 107.5481318 106.6846273
  34.4460012 109.0254997 113.4569988  33.5050012 109.0834997 113.6189988
  34.7230012 109.9314997 113.3199988  34.3544679 109.1559443 113.4606815
  34.7470012  97.3114997 114.8749988  34.0110012  97.9224997 114.8369988
  35.4300012  97.7264997 114.3479988  34.7386541  97.4511374 114.7985832
  27.7500012  95.3984997 112.3399988  27.6330012  94.4494997 112.2859988
  26.8950012  95.7304997 112.6139988  27.6184212  95.3135571 112.3696497
  32.6980012 110.8064997 110.0819988  33.1240012 110.0994997 109.5969988
  33.0150012 111.6074997 109.6659988  32.7991683 110.8181017 109.9593680
  33.8580012 108.7074997 108.5909988  33.6000012 108.0174997 107.9799988
  33.9290012 108.2644997 109.4369988  33.8322856 108.5532124 108.6216885
  35.5440012 107.2734997 117.0679988  35.6840012 106.6824997 116.3289988
  35.7110012 108.1464997 116.7119988  35.5857411 107.3105428 116.9186894
  30.0170012 104.2354997 106.8409988  29.3050012 104.7704997 106.4889988
  30.7080012 104.2914997 106.1809988  30.0130132 104.3162543 106.7036289
  37.3860012 103.6134997 115.1339988  36.7330012 104.3084997 115.2239988
  37.8510012 103.8234997 114.3249988  37.3595274 103.7370643 115.0368462
  33.4220012 104.4454997 107.7929988  32.6900012 104.6734997 108.3659988
  33.8700012 103.7314997 108.2469988  33.3822725 104.3802145 107.9328816
  33.3200012 102.6194997 116.8599988  33.4000012 103.3824997 117.4319988
  32.7180012 102.8984997 116.1699988  33.2495756 102.7617134 116.8450589
  25.0680012 105.0754997 109.6749988  24.7370012 104.7054997 108.8569988
  25.6560012 104.4054997 110.0219988  25.1021873 104.9341156 109.6098102
  26.4340012 108.5034997 112.3559988  26.3400012 107.9254997 111.5999988
  27.1640012 108.1324997 112.8529988  26.5197387 108.3741663 112.3195342
  25.4340012 103.8444997 113.3089988  26.0000012 103.9654997 112.5459988
  25.7530012 104.4814997 113.9469988  25.5545474 103.9472219 113.2909862
  31.7430012 109.3474997 114.0429988  31.5030012 110.0094997 114.6909988
  31.5450012 108.5134997 114.4679988  31.6833808 109.3253134 114.1891524
  26.3140012 108.2434997 118.0259988  26.0030012 109.0254997 118.4809988
  25.6640012 108.0904997 117.3399988  26.1835558 108.3299105 117.9955871
  32.2930012 103.6074997 105.4779988  32.8730012 103.7574997 106.2249988
  32.7070012 104.0784997 104.7539988  32.4282997 103.6916578 105.4824058
  23.2340012 104.4414997 117.2539988  23.3050012 105.0924997 117.9529988
  22.3440012 104.5444997 116.9189988  23.1233005 104.5445427 117.3043495
  30.0200012 110.3444997 108.9129988  30.4940012 110.6394997 109.6899988
  29.4570012 111.0824997 108.6799988  30.0088184 110.4847247 108.9879628
  24.5540012 110.3154997 118.7889988  24.5610012 110.1794997 117.8419988
  23.6380012 110.1974997 119.0409988  24.4311714 110.2809430 118.6934666
  35.9920012  95.3574997 105.2909988  35.0920012  95.4964997 105.5859988
  36.2440012  96.1884997 104.8889988  35.9028702  95.4889074 105.2770205
  24.0580012 104.1454997 107.2639988  23.7660012 104.9134997 106.7739988
  23.3840012 103.4854997 107.1019988  23.9268111 104.1615587 107.1748978
  20.1510012 106.5084997 116.0789988  19.6500012 106.4804997 115.2639988
  20.1560012 105.6024997 116.3889988  20.0830944 106.3822396 116.0093226
  19.9010012 109.2884997 112.9629988  20.8470012 109.1444997 112.9439988
  19.7890012 110.0724997 113.4999988  20.0152727 109.3748046 113.0330072
  38.0990012 109.9544997 118.6459988  38.0500012 108.9994997 118.6089988
  37.2720012 110.2224997 119.0469988  37.9804940 109.8598998 118.6951375
  29.0780012 109.5284997 117.5219988  29.1650012 110.3544997 117.9969988
  28.2140012 109.1984997 117.7709988  28.9731964 109.5969878 117.6206549
  29.4920012 113.3004997 107.3279988  29.4170012 113.1794997 106.3809988
  29.5250012 114.2504997 107.4459988  29.4862068 113.4122646 107.2144967
  23.1450012 112.0894997 109.1089988  23.2980012 111.7414997 109.9869988
  22.2950012 111.7334997 108.8539988  23.0509166 111.9936217 109.1948079
  32.2630012 112.3804997 107.0789988  31.3270012 112.4804997 107.2579988
  32.5430012 111.6714997 107.6579988  32.1729553 112.2983406 107.1817087
  35.2510012 101.4474997 119.1259988  34.8440012 101.9284997 118.4049988
  35.2920012 100.5424997 118.8179988  35.2008437 101.3909374 118.9856683
  22.4000012 107.8314997 117.1229988  22.6160012 107.4704997 117.9819988
  21.5450012 107.4574997 116.9129988  22.3139292 107.7314111 117.2123386
  25.0190012  96.3014997 113.1179988  24.1570012  96.2144997 112.7099988
  24.9960012  97.1574997 113.5459988  24.8980409  96.4052883 113.1200589
  29.6820012  96.0234997 116.4929988  30.1020012  95.6084997 117.2459988
  28.7490012  95.8454997 116.6099988  29.6133644  95.9425900 116.6119539
  33.0080012  99.7794997 117.3459988  32.4940012  99.6534997 118.1439988
  32.8530012 100.6914997 117.1019988  32.9166852  99.8856132 117.4222158
  33.7710012 104.6404997 103.1079988  33.8130012 104.4174997 102.1779988
  34.6200012 105.0394997 103.2969988  33.8915280 104.6639438 103.0063554
  25.1100012 101.2674997 114.2129988  24.4680012 101.2264997 114.9219988
  25.1470012 102.1934997 113.9749988  25.0270664 101.3871430 114.2779219
  25.1070012 101.4884997 109.1249988  24.2140012 101.1474997 109.0659988
  25.5570012 101.1114997 108.3689988  25.0458130 101.3909631 109.0147702
  30.6420012 101.9044997 107.9419988  30.2330012 102.7194997 107.6509988
  31.3630012 101.7644997 107.3279988  30.6834537 101.9972018 107.8191342
  29.7440012 102.0794997 119.4299988  29.1820012 101.3754997 119.7509988
  30.5710012 101.9594997 119.8979988  29.7787095 101.9667883 119.5372330
  31.6470012 101.3504997 110.7559988  31.4520012 101.9554997 110.0409988
  31.8280012 100.5164997 110.3219988  31.6447614 101.3206300 110.5994405
  22.8600012 101.5874997 116.0799988  22.8220012 101.9874997 116.9489988
  22.3690012 100.7704997 116.1709988  22.7884684 101.5318069 116.2111059
  19.4680012  98.7034997 109.9309988  20.0990012  98.6744997 110.6499988
  19.9170012  98.2784997 109.1999988  19.6150918  98.6420836 109.9306441
  20.7420012  99.4494997 105.3549988  21.2160012 100.0404997 104.7699988
  20.0250012  99.9804997 105.7019988  20.7099341  99.6020867 105.3218836
  30.9110012 102.9884997 115.4269988  31.2340012 102.3574997 114.7839988
  30.4710012 102.4534997 116.0879988  30.8957484 102.8298387 115.4283198
  27.6880012  98.9154997 110.2109988  26.7770012  98.9724997 110.4999988
  28.1940012  98.8554997 111.0219988  27.6316899  98.9151941 110.3601184
  22.5170012 100.5444997 109.0379988  21.6270012 100.6444997 108.6979988
  22.8130012  99.7024997 108.6919988  22.4352823 100.4443545 108.9447213
  26.1700012 100.5444997 106.6949988  27.1010012 100.6734997 106.8729988
  25.9550012 101.2144997 106.0449988  26.2684247 100.6526565 106.6315747
  32.0930012  98.1504997 113.4759988  31.4170012  98.2814997 114.1399988
  31.6080012  97.9954997 112.6649988  31.9347146  98.1475157 113.4574469
  24.8440012 101.7394997 104.2609988  24.3010012 101.3594997 103.5699988
  25.6770012 101.9334997 103.8329988  24.8823631 101.7137125 104.1084501
  35.3810012 113.8224997 119.7519988  35.5810012 114.2464997 118.9179988
  36.0360012 114.1654997 120.3589988  35.4970072 113.9269857 119.7198592
  22.9790012 106.2964997 119.3599988  23.7110012 106.5504997 119.9219988
  22.1990012 106.5004997 119.8759988  22.9737073 106.3588160 119.5066151
  29.0080012 101.7034997 112.0979988  29.5730012 101.1564997 111.5509988
  28.8610012 101.1814997 112.8869988  29.0653380 101.5582259 112.1298695
  24.0100012  97.8394997 108.5169988  23.6930012  96.9374997 108.4809988
  24.7920012  97.8414997 107.9639988  24.0722408  97.7162474 108.4373569
  27.6350012 100.0914997 114.5119988  26.7990012 100.5454997 114.6229988
  28.1590012 100.3674997 115.2639988  27.5915416 100.1908660 114.6288119
  28.1790012 106.3044997 106.1969988  27.4340012 105.7974997 105.8749988
  28.0450012 106.3534997 107.1439988  28.0588776 106.2416940 106.2808647
  35.3290012 105.4374997 114.9839988  35.9710012 105.8944997 114.4399988
  34.4990012 105.5504997 114.5209988  35.3045963 105.5152704 114.8470177
  32.0770012  99.1184997 104.3959988  31.1380012  99.2304997 104.2449988
  32.3740012  99.9754997 104.7029988  31.9887583  99.2495981 104.4168337
  29.6980012 106.4884997 117.4339988  29.3530012 106.1074997 118.2409988
  29.4980012 107.4224997 117.5049988  29.6237527 106.5625135 117.5540689
  32.7950012 100.9854997 106.0569988  33.6870012 100.8484997 106.3759988
  32.8520012 101.7764997 105.5199988  32.9246504 101.0736052 106.0280818
  23.3040012 105.5994997 111.9669988  24.0490012 105.5974997 111.3659988
  23.3820012 104.7764997 112.4479988  23.4164995 105.4878887 111.9498282
  30.3050012 107.7634997 105.2229988  30.0090012 108.5894997 105.6039988
  29.6020012 107.1434997 105.4189988  30.1694914 107.7928199 105.3016443
  20.3120012 104.0604997 117.2819988  20.5350012 103.6424997 118.1139988
  19.7100012 103.4474997 116.8589988  20.2611759 103.9204668 117.3387022
  27.3280012 103.5774997 119.4949988  27.0320012 103.4114997 118.5999988
  28.2600012 103.3574997 119.4839988  27.4134166 103.5250640 119.3710536
  31.9490012 108.9504997 117.3849988  31.0480012 109.1334997 117.1169988
  31.9830012 109.2094997 118.3049988  31.8303139 109.0105849 117.4728099
  37.6430012 106.9954997 118.5889988  36.7920012 107.2334997 118.2219988
  38.2340012 106.9784997 117.8359988  37.6062487 107.0258258 118.4368893
  35.9750012 109.9814997 106.2169988  35.6020012 109.1554997 106.5259988
  36.2530012 109.7984997 105.3189988  35.9615222 109.8437430 106.1379473
  33.1360012 104.7894997 113.2379988  32.2070012 104.5574997 113.2109988
  33.5870012 104.0124997 112.9079988  33.0699216 104.6527238 113.1896917
  25.6790012 109.1174997 109.3709988  26.2060012 109.8904997 109.1709988
  24.7990012 109.3424997 109.0689988  25.6322031 109.2537545 109.3027912
  27.1060012 106.7804997 108.9469988  26.8650012 107.7054997 108.9889988
  26.3650012 106.3214997 109.3439988  26.9729225 106.8450933 109.0063742
  27.6210012 110.9294997 115.2629988  27.9830012 111.7844997 115.0289988
  28.1520012 110.6374997 116.0029988  27.7424473 111.0071060 115.3310855
  25.7890012 111.8024997 108.4929988  24.8390012 111.9074997 108.5439988
  26.1410012 112.6224997 108.8369988  25.7064195 111.9278800 108.5465502
  31.1650012 107.0284997 114.9629988  30.7390012 106.8014997 115.7899988
  31.7450012 106.2904997 114.7809988  31.1851868 106.8975299 115.0515830
  33.8230012 111.5804997 117.4329988  33.2220012 111.0254997 116.9369988
  34.1050012 112.2474997 116.8059988  33.7788804 111.5946625 117.2804849
  37.8710012 112.4374997 104.2379988  38.6150012 113.0234997 104.0979988
  37.1770012 113.0054997 104.5709988  37.8789899 112.5945798 104.2638778
  21.9460012  98.8134997 116.8399988  21.0530012  99.1524997 116.7719988
  21.8470012  97.9584997 117.2579988  21.8104164  98.7442588 116.8872235
  34.2340012 106.6304997 106.2639988  33.9560012 105.9024997 106.8199988
  35.1610012 106.7494997 106.4689988  34.3213124 106.5468802 106.3678845
  21.5970012 110.6184997 115.2749988  21.8140012 109.6864997 115.2439988
  21.8430012 110.8924997 116.1579988  21.6599549 110.5280636 115.3901763
  22.8490012 105.8924997 105.4509988  22.1630012 106.2444997 106.0179988
  23.3710012 106.6554997 105.2039988  22.8256852 106.0438578 105.4952118
  30.6800012  98.5544997 115.7299988  31.3790012  98.6284997 116.3799988
  30.2990012  97.6904997 115.8839988  30.7241767  98.4477624 115.8398322
  31.4650012  98.2064997 106.8269988  31.6850012  98.6784997 106.0239988
  32.0230012  98.6014997 107.4969988  31.5704968  98.3244285 106.8077331
  29.1330012 110.3374997 105.6899988  28.3170012 110.8344997 105.7419988
  29.6630012 110.8124997 105.0499988  29.0929161 110.4697722 105.6105956
  28.6650012  99.9344997 107.6619988  29.4770012 100.4394997 107.7079988
  28.4200012  99.7894997 108.5759988  28.7430520  99.9840375 107.7918517
  29.2000012 100.9204997 116.8459988  29.3190012 101.4944997 117.6039988
  29.8560012 100.2324997 116.9609988  29.3049025 100.9059858 116.9651321
  29.5480012  97.0154997 108.5999988  29.2020012  97.6334997 109.2439988
  30.2070012  97.5164997 108.1179988  29.5896968  97.1676278 108.6229383
  26.4720012 111.3814997 105.6709988  26.6320012 112.1804997 105.1709988
  26.2740012 111.6874997 106.5559988  26.4671637 111.5324020 105.7221144
  25.2060012  98.0784997 105.2869988  25.1230012  98.9674997 105.6339988
  26.0960012  97.8134997 105.5189988  25.3149469  98.1641430 105.3657626
  35.4050012  98.8274997 117.6809988  34.4880012  99.0904997 117.5939988
  35.7400012  98.8244997 116.7849988  35.3248613  98.8630761 117.5478837
  34.0070012 102.5784997 111.7769988  33.2090012 102.1634997 111.4489988
  34.4520012 101.8874997 112.2679988  33.9579885 102.4283543 111.7984889
  23.4650012 108.5064997 104.3479988  24.0570012 109.2054997 104.6239988
  23.9240012 108.0734997 103.6279988  23.6081142 108.5437049 104.2884830
  35.0930012 111.8344997 113.3999988  34.9380012 112.5124997 112.7419988
  36.0260012 111.9064997 113.6029988  35.1978657 111.9369546 113.3374360
  22.5890012  95.9524997 112.1369988  22.3600012  96.0114997 111.2089988
  22.1460012  95.1604997 112.4429988  22.4978530  95.8535753 112.0514786
  21.5190012 109.8924997 108.2969988  20.6870012 110.3654997 108.3239988
  22.0650012 110.4024997 107.6989988  21.4790352 110.0261332 108.2198463
  20.8070012 112.5054997 119.6269988  21.3480012 112.2884997 120.3869988
  20.3260012 111.6994997 119.4369988  20.8159951 112.3669270 119.7052576
  25.4050012 111.4244997 121.2469988  26.1720012 110.9654997 121.5879988
  25.3830012 111.1984997 120.3179988  25.5071275 111.3310186 121.1680101
  29.4970012 110.9324997 102.6229988  28.8530012 110.3014997 102.9439988
  30.2590012 110.4014997 102.3909988  29.5118077 110.7742920 102.6356011
  31.9820012 109.8044997 119.9769988  31.6310012 108.9484997 120.2199988
  32.7080012 109.9474997 120.5839988  32.0320769 109.7065636 120.0923619
  20.7140012 106.3154997 120.5809988  20.8580012 105.4134997 120.2949988
  19.9420012 106.6014997 120.0939988  20.6292753 106.2306816 120.4759505
  27.3700012 106.2854997 120.0139988  27.0410012 106.5564997 119.1569988
  27.5220012 105.3444997 119.9269988  27.3454809 106.1953862 119.8848244
  33.1040012 106.2014997 117.3969988  33.8500012 106.7894997 117.2779988
  32.3470012 106.7834997 117.4609988  33.1037820 106.3607143 117.3893590
  21.5470012 103.5154997 120.0009988  21.9550012 102.6584997 119.8799988
  21.2870012 103.5304997 120.9219988  21.5677568 103.4000807 120.1089588
  25.4940012 102.5244997 117.3759988  24.8760012 103.1994997 117.6559988
  25.8380012 102.8454997 116.5419988  25.4559132 102.6602411 117.3016262
  30.5140012 104.9964997 120.6529988  31.4670012 105.0794997 120.6259988
  30.3530012 104.2844997 121.2729988  30.6226426 104.9116746 120.7330579
  36.6660012 105.2294997 102.7279988  36.3920012 104.8044997 101.9149988
  36.7050012 106.1604997 102.5109988  36.6337699 105.2972484 102.5873610
  25.8330012  99.8794997 118.4579988  25.9830012  99.1504997 117.8559988
  25.8360012 100.6564997 117.8989988  25.8539302  99.8847851 118.3000692
  26.2460012  98.2494997 115.9509988  26.7820012  98.7004997 115.2989988
  25.3940012  98.1414997 115.5279988  26.2042178  98.2966390 115.8045756
  27.8280012 103.6884997 116.1899988  28.5780012 103.5324997 115.6169988
  27.4890012 104.5404997 115.9149988  27.8848921 103.7822968 116.0743561
  32.2430012 101.5034997 121.2189988  32.4360012 100.5724997 121.1069988
  33.1010012 101.9284997 121.2079988  32.3852934 101.4336531 121.2022031
  33.5600012 104.2924997 119.2959988  33.2790012 105.0014997 118.7179988
  34.5030012 104.2194997 119.1449988  33.6489291 104.3796711 119.1964967
  24.3120012 101.0774997 120.3699988  23.5450012 100.5454997 120.1589988
  24.9910012 100.7674997 119.7699988  24.2987877 100.9628300 120.2600716
  27.0520012  95.7054997 116.3819988  26.9530012  96.6524997 116.2769988
  26.3090012  95.3334997 115.9059988  26.9381184  95.7845863 116.3033621
  28.3160012 100.0274997 119.9459988  28.0800012  99.8074997 120.8469988
  27.5320012  99.8204997 119.4359988  28.1778504  99.9694586 120.0003431
  31.0310012  99.1544997 119.0209988  30.0840012  99.1864997 119.1539988
  31.3440012  98.5294997 119.6749988  30.9436707  99.0743998 119.1276060
  32.6650012  97.7884997 121.0269988  32.5690012  96.8364997 121.0209988
  32.3440012  98.0574997 121.8869988  32.6084070  97.6944035 121.1425441
  22.4920012  98.9984997 120.0739988  22.7040012  98.2914997 119.4639988
  22.3810012  98.5604997 120.9179988  22.5059721  98.8427084 120.1046843
  27.2730012  94.9994997 119.0529988  27.9850012  94.3594997 119.0389988
  27.1720012  95.2664997 118.1399988  27.3568066  94.9480079 118.9275677
  27.6270012  96.6824997 121.1069988  27.4950012  96.2064997 120.2869988
  27.0280012  97.4264997 121.0519988  27.5279071  96.7179618 120.9872886
  20.7420012 108.2014997 103.7659988  21.6560012 108.2804997 104.0399988
  20.7490012 107.5144997 103.0999988  20.8681131 108.1193961 103.7134393
  19.3910012 113.5944997 108.8439988  18.7440012 113.1324997 108.3109988
  19.7450012 112.9224997 109.4259988  19.3503849 113.4404723 108.8497959
  20.2610012 111.6754997 110.6479988  19.9260012 110.7954997 110.8199988
  20.4830012 112.0204997 111.5129988  20.2451783 111.6017500 110.7884208
  37.8090012 112.4844997 113.6289988  37.7880012 112.6694997 114.5679988
  38.5000012 113.0534997 113.2879988  37.8994618 112.5866606 113.7113864
  37.3730012 112.0524997 116.5509988  36.8850012 111.3164997 116.1789988
  37.9220012 111.6584997 117.2289988  37.3804820 111.8985889 116.5917813
  35.8230012 107.8414997 121.1889988  34.9570012 107.7364997 121.5829988
  36.2000012 108.6004997 121.6349988  35.7553308 107.9296900 121.3032393
  37.1240012 106.0984997 106.7029988  37.9740012 106.5194997 106.8299988
  37.1300012 105.3584997 107.3099988  37.2411372 106.0560803 106.8024344
  37.5190012 104.1514997 108.5259988  36.7920012 103.6724997 108.9239988
  38.1000012 104.3574997 109.2589988  37.4980473 104.1138103 108.6794528
  37.2780012 106.9364997 113.4739988  38.1110012 106.5584997 113.1939988
  37.3900012 107.8794997 113.3549988  37.4072647 107.0122218 113.4195487
  35.7640012 109.8144997 115.7809988  35.1170012 110.1394997 116.4069988
  35.2470012 109.3744997 115.1069988  35.6054029 109.7995004 115.7755827
  37.7870012 104.0524997 104.9179988  37.2650012 104.4094997 104.1989988
  37.7540012 104.7274997 105.5959988  37.7111634 104.1925413 104.9113145
  35.3050012 102.6724997 109.0889988  35.1550012 101.7274997 109.0689988
  34.9520012 102.9534997 109.9329988  35.2367448 102.5811481 109.2003705
  20.3410012 104.7504997 113.0999988  20.5250012 104.6684997 112.1639988
  21.1900012 104.6264997 113.5229988  20.4810151 104.7225073 113.0291451
  36.1620012 104.6424997 118.7279988  36.7450012 103.9084997 118.9199988
  36.7260012 105.4144997 118.7749988  36.3179769 104.6464227 118.7606159
  37.6580012 102.5454997 119.4129988  36.7950012 102.1664997 119.2469988
  38.2630012 101.8064997 119.3379988  37.6216119 102.3938268 119.3801528
  35.0160012 100.2554997 107.5519988  35.2960012  99.3484997 107.6759988
  35.7750012 100.6894997 107.1629988  35.1569277 100.1900942 107.5163682
  35.6280012 100.8364997 112.9879988  36.5610012 101.0484997 112.9529988
  35.3930012 100.9384997 113.9099988  35.7239244 100.8793100 113.1078892
  35.6570012 101.5734997 115.7639988  34.8140012 101.8414997 116.1299988
  36.0990012 102.3954997 115.5529988  35.6014158 101.7213291 115.7855491
  19.9380012 100.0214997 119.2409988  20.8580012  99.8994997 119.4769988
  19.4890012  99.2714997 119.6299988  20.0031580  99.9033727 119.3259006
  37.9400012  95.5534997 121.1169988  38.2900012  94.8994997 120.5119988
  38.0870012  96.3904997 120.6769988  38.0077887  95.5771548 120.9746858
  35.6290012  97.5184997 107.5999988  35.8120012  97.0694997 108.4259988
  35.0300012  96.9334997 107.1369988  35.5730202  97.3779975 107.6503275
  21.1590012  98.3334997 112.1319988  21.6050012  97.5414997 112.4339988
  21.6260012  99.0494997 112.5619988  21.2830831  98.3220685 112.2314006
  19.4630012 101.3324997 113.2009988  19.9550012 101.1114997 112.4099988
  19.8260012 102.1734997 113.4819988  19.5793126 101.4158357 113.1307531
  37.4600012  97.6624997 119.4659988  36.5420012  97.9334997 119.4309988
  37.5830012  97.1274997 118.6819988  37.3509729  97.6272508 119.3551923
  37.4960012  97.5854997 104.1279988  37.9080012  96.8644997 103.6529988
  38.1780012  98.2554997 104.1869988  37.6445885  97.5772368 104.0708915
  19.7770012  97.5904997 107.2549988  18.8520012  97.7994997 107.1259988
  20.2310012  98.0744997 106.5649988  19.7117292  97.6845343 107.1440720
  34.5480012 112.5744997 109.2009988  35.2000012 112.2274997 108.5929988
  35.0580012 113.0634997 109.8469988  34.7062637 112.5930597 109.2050236
  19.7410012  96.3284997 115.5989988  19.0760012  96.0824997 116.2429988
  19.2980012  96.9504997 115.0219988  19.5901318  96.3789410 115.6090898
  21.9330012 109.5034997 119.7439988  21.1120012 109.6784997 119.2829988
  21.6800012 109.4304997 120.6639988  21.7865585 109.5175544 119.8053561
  24.8870012 110.4784997 116.0019988  24.4620012 111.2874997 115.7199988
  25.7910012 110.5634997 115.6999988  24.9509975 110.6009300 115.9224816
  29.1980012 111.8774997 118.9619988  29.3830012 111.5434997 119.8399988
  30.0440012 112.1864997 118.6399988  29.3377539 111.8736047 119.0385605
  31.5430012 113.1634997 118.2059988  32.2200012 112.5304997 117.9659988
  31.8650012 113.5644997 119.0129988  31.6791637 113.1311154 118.2822793
  36.4600012  95.7524997 117.2849988  35.6480012  96.0774997 116.8979988
  36.6930012  94.9924997 116.7519988  36.3802203  95.6942758 117.1598880
  22.2890012 113.7344997 116.0499988  21.5680012 114.1744997 115.5989988
  21.9230012 113.4834997 116.8979988  22.1409651 113.7607242 116.1029640
  24.7560012 113.3344997 115.0799988  23.8910012 113.4064997 115.4839988
  24.7010012 113.8814997 114.2959988  24.6302085 113.4182685 115.0293362
  29.4660012 113.2224997 114.2549988  29.0100012 113.7514997 113.6009988
  29.6290012 113.8254997 114.9799988  29.4256068 113.3764607 114.2634838
  31.7940012 112.1004997 115.1999988  30.8890012 112.2654997 114.9339988
  32.2230012 112.9534997 115.1349988  31.7281324 112.2384339 115.1547976
  34.3980012 113.6704997 115.4949988  34.2160012 114.5864997 115.2849988
  34.5750012 113.2604997 114.6489988  34.3970210 113.7404822 115.3517885
  21.7030012 112.3574997 112.9599988  21.6850012 111.9324997 113.8169988
  22.5080012 112.0394997 112.5509988  21.8093529 112.2563013 113.0220946
  23.8450012 111.0674997 111.6149988  23.6260012 110.1514997 111.7849988
  24.6690012 111.2074997 112.0809988  23.9264420 110.9610520 111.7012773
  26.3820012 111.5374997 112.4639988  26.5950012 110.6494997 112.1769988
  26.4460012 111.5034997 113.4179988  26.4198231 111.4113102 112.5537397
  29.8900012  97.2014997 111.6079988  29.2160012  96.5724997 111.8639988
  30.4540012  96.7174997 111.0049988  29.8739230  97.0498744 111.5615340
  35.0330012  95.3094997 111.7209988  35.6370012  95.8564997 111.2189988
  34.1630012  95.6284997 111.4799988  34.9981208  95.4275137 111.6196886
  36.7600012  96.4474997 110.0539988  37.3720012  95.9334997 109.5269988
  37.1420012  97.3254997 110.0769988  36.8953371  96.4957866 109.9850041
  22.2170012  95.8354997 109.4299988  21.4400012  95.6014997 108.9229988
  22.7470012  95.0384997 109.4389988  22.1822330  95.6956988 109.3617742
  21.0530012  95.6334997 105.2339988  21.4920012  96.2444997 104.6419988
  20.4200012  96.1714997 105.7079988  21.0274514  95.7899257 105.2170930
  26.7960012  95.7624997 109.2439988  27.6710012  96.1504997 109.2139988
  26.6600012  95.5474997 110.1659988  26.8973695  95.7865184 109.3646440
  32.3530012  95.7924997 110.8929988  32.4290012  95.8874997 109.9429988
  32.0780012  94.8844997 111.0219988  32.3262321  95.6827867 110.7805079
  33.7060012  95.8184997 106.5849988  33.0040012  96.4334997 106.3749988
  33.2620012  94.9804997 106.7159988  33.5496450  95.7895639 106.5739000
  22.9140012  97.5494997 103.6759988  23.4060012  96.9194997 103.1489988
  23.5380012  97.8454997 104.3389988  23.0655688  97.5033804 103.6935482
  27.9400012  97.8424997 106.1329988  28.1180012  97.1964997 106.8159988
  27.8870012  98.6764997 106.5999988  27.9571999  97.8668009 106.2895917
  36.5280012 112.3544997 107.2079988  36.3330012 111.6064997 106.6429988
  36.4890012 113.1124997 106.6249988  36.4960380 112.3546099 107.0518384
  22.1750012  96.3494997 118.9479988  21.8090012  95.5844997 119.3899988
  23.0880012  96.3784997 119.2339988  22.2482736  96.2485640 119.0472502
  24.1480012  95.7004997 120.4839988  25.0460012  95.4264997 120.2989988
  23.7610012  94.9574997 120.9479988  24.2186612  95.5625914 120.5213643
  32.5690012  95.0324997 120.6659988  32.6460012  94.6064997 121.5199988
  33.4630012  95.0464997 120.3229988  32.7003428  94.9760879 120.7365310
  35.7450012 111.1054997 119.3579988  34.9630012 110.9194997 118.8379988
  35.6730012 112.0344997 119.5759988  35.6282274 111.2056643 119.3163018
  50.1510012 104.9914997 109.3889988  50.2400012 105.9354997 109.2569988
  49.5130012 104.7164997 108.7309988  50.0769081 105.0834830 109.2819614
  49.0840012 104.2464997 112.8079988  49.0460012 103.6004997 113.5129988
  48.7620012 103.7804997 112.0369988  49.0352333 104.0949408 112.8002978
  41.4530012 103.8614997 114.4009988  41.4940012 103.2354997 115.1239988
  42.1560012 104.4854997 114.5829988  41.5536363 103.8601196 114.5246044
  52.7900012 107.1854997 111.1089988  52.3500012 106.4654997 111.5599988
  52.7770012 107.9064997 111.7389988  52.7280226 107.1843731 111.2558494
  42.3760012 108.3114997 112.9359988  42.0070012 107.5094997 112.5659988
  43.3170012 108.1424997 112.9819988  42.4527289 108.1790153 112.8916316
  38.9860012 101.9714997 108.3289988  38.5390012 102.8174997 108.3099988
  38.4250012 101.3914997 107.8129988  38.8489900 102.0089916 108.2566801
  39.6970012 104.1334997 110.4539988  39.9100012 103.3634997 110.9819988
  40.4350012 104.2224997 109.8509988  39.8259044 104.0401968 110.4447123
  49.9020012 112.2904997 111.3209988  50.5220012 111.6134997 111.0479988
  49.6940012 112.0724997 112.2299988  49.9586726 112.1684800 111.4064812
  47.4740012 106.6794997 113.2139988  47.7780012 105.9934997 112.6189988
  48.1950012 106.7974997 113.8319988  47.6130671 106.6016304 113.2161816
  56.1370012  98.2804997 114.0749988  56.1860012  98.8904997 114.8099988
  56.5620012  98.7414997 113.3519988  56.2011746  98.4263796 114.0779175
  50.6150012 101.0734997 113.5409988  50.7570012 100.1274997 113.5619988
  50.5080012 101.2804997 112.6129988  50.6199919 100.9718246 113.4183408
  43.7690012  99.1744997 110.8139988  43.8130012 100.0344997 110.3949988
  43.3120012  98.6224997 110.1799988  43.7132240  99.2174422 110.6709864
  51.4920012  99.3054997 109.2149988  52.1380012  98.9764997 109.8389988
  52.0020012  99.8234997 108.5919988  51.6494299  99.3304450 109.2162731
  40.3900012 101.5714997 111.5759988  41.0430012 101.0214997 112.0079988
  40.4140012 101.2974997 110.6589988  40.4826683 101.4591466 111.5112123
  45.5460012 103.1214997 110.7909988  46.1620012 102.5954997 111.3009988
  44.9600012 102.4814997 110.3879988  45.5510810 102.9629208 110.8063173
  56.5280012  99.7584997 116.3099988  55.8400012 100.4164997 116.2149988
  56.5440012  99.5614997 117.2469988  56.4359540  99.8219819 116.4235990
  42.5800012  98.0924997 114.8879988  42.3610012  98.6224997 114.1219988
  41.9120012  98.3194997 115.5349988  42.4597600  98.1956906 114.8706379
  49.9490012 107.5924997 108.4319988  49.6530012 107.2704997 107.5809988
  49.6240012 108.4924997 108.4729988  49.8646371 107.6700215 108.3211801
  45.1490012 105.7684997 115.1749988  44.4090012 106.3664997 115.2789988
  45.8630012 106.3224997 114.8599988  45.1442237 105.9252831 115.1466465
  53.2560012  98.5964997 111.1949988  53.0400012  97.8304997 111.7279988
  53.9110012  99.0684997 111.7079988  53.3150632  98.5555889 111.3372861
  42.1730012  99.9844997 112.8399988  42.7870012 100.6174997 113.2129988
  42.6850012  99.5124997 112.1839988  42.3261981 100.0072267 112.8022908
  43.5560012 107.7324997 115.9619988  43.5510012 108.6124997 115.5839988
  42.7030012 107.6494997 116.3869988  43.4399464 107.8416117 115.9677907
  39.6770012 107.4034997 106.7439988  39.4050012 107.6324997 105.8559988
  39.7230012 108.2414997 107.2049988  39.6459482 107.5481318 106.6846273
  53.3020012 109.0254997 113.4569988  52.3610012 109.0834997 113.6189988
  53.5790012 109.9314997 113.3199988  53.2104679 109.1559443 113.4606815
  53.6030012  97.3114997 114.8749988  52.8670012  97.9224997 114.8369988
  54.2860012  97.7264997 114.3479988  53.5946541  97.4511374 114.7985832
  46.6060012  95.3984997 112.3399988  46.4890012  94.4494997 112.2859988
  45.7510012  95.7304997 112.6139988  46.4744212  95.3135571 112.3696497
  51.5540012 110.8064997 110.0819988  51.9800012 110.0994997 109.5969988
  51.8710012 111.6074997 109.6659988  51.6551683 110.8181017 109.9593680
  52.7140012 108.7074997 108.5909988  52.4560012 108.0174997 107.9799988
  52.7850012 108.2644997 109.4369988  52.6882856 108.5532124 108.6216885
  54.4000012 107.2734997 117.0679988  54.5400012 106.6824997 116.3289988
  54.5670012 108.1464997 116.7119988  54.4417411 107.3105428 116.9186894
  48.8730012 104.2354997 106.8409988  48.1610012 104.7704997 106.4889988
  49.5640012 104.2914997 106.1809988  48.8690132 104.3162543 106.7036289
  48.9260012 102.6934997 103.8799988  49.6270012 102.7154997 104.5309988
  49.2290012 102.0654997 103.2229988  49.0628133 102.6117070 103.8803369
  56.2420012 103.6134997 115.1339988  55.5890012 104.3084997 115.2239988
  56.7070012 103.8234997 114.3249988  56.2155274 103.7370643 115.0368462
  52.2780012 104.4454997 107.7929988  51.5460012 104.6734997 108.3659988
  52.7260012 103.7314997 108.2469988  52.2382725 104.3802145 107.9328816
  52.1760012 102.6194997 116.8599988  52.2560012 103.3824997 117.4319988
  51.5740012 102.8984997 116.1699988  52.1055756 102.7617134 116.8450589
  43.9240012 105.0754997 109.6749988  43.5930012 104.7054997 108.8569988
  44.5120012 104.4054997 110.0219988  43.9581873 104.9341156 109.6098102
  45.2900012 108.5034997 112.3559988  45.1960012 107.9254997 111.5999988
  46.0200012 108.1324997 112.8529988  45.3757387 108.3741663 112.3195342
  44.2900012 103.8444997 113.3089988  44.8560012 103.9654997 112.5459988
  44.6090012 104.4814997 113.9469988  44.4105474 103.9472219 113.2909862
  50.5990012 109.3474997 114.0429988  50.3590012 110.0094997 114.6909988
  50.4010012 108.5134997 114.4679988  50.5393808 109.3253134 114.1891524
  45.1700012 108.2434997 118.0259988  44.8590012 109.0254997 118.4809988
  44.5200012 108.0904997 117.3399988  45.0395558 108.3299105 117.9955871
  51.1490012 103.6074997 105.4779988  51.7290012 103.7574997 106.2249988
  51.5630012 104.0784997 104.7539988  51.2842997 103.6916578 105.4824058
  42.0900012 104.4414997 117.2539988  42.1610012 105.0924997 117.9529988
  41.2000012 104.5444997 116.9189988  41.9793005 104.5445427 117.3043495
  48.8760012 110.3444997 108.9129988  49.3500012 110.6394997 109.6899988
  48.3130012 111.0824997 108.6799988  48.8648184 110.4847247 108.9879628
  43.4100012 110.3154997 118.7889988  43.4170012 110.1794997 117.8419988
  42.4940012 110.1974997 119.0409988  43.2871714 110.2809430 118.6934666
  54.8480012  95.3574997 105.2909988  53.9480012  95.4964997 105.5859988
  55.1000012  96.1884997 104.8889988  54.7588702  95.4889074 105.2770205
  42.9140012 104.1454997 107.2639988  42.6220012 104.9134997 106.7739988
  42.2400012 103.4854997 107.1019988  42.7828111 104.1615587 107.1748978
  39.0070012 106.5084997 116.0789988  38.5060012 106.4804997 115.2639988
  39.0120012 105.6024997 116.3889988  38.9390944 106.3822396 116.0093226
  38.7570012 109.2884997 112.9629988  39.7030012 109.1444997 112.9439988
  38.6450012 110.0724997 113.4999988  38.8712727 109.3748046 113.0330072
  56.9550012 109.9544997 118.6459988  56.9060012 108.9994997 118.6089988
  56.1280012 110.2224997 119.0469988  56.8364940 109.8598998 118.6951375
  47.9340012 109.5284997 117.5219988  48.0210012 110.3544997 117.9969988
  47.0700012 109.1984997 117.7709988  47.8291964 109.5969878 117.6206549
  48.3480012 113.3004997 107.3279988  48.2730012 113.1794997 106.3809988
  48.3810012 114.2504997 107.4459988  48.3422068 113.4122646 107.2144967
  42.0010012 112.0894997 109.1089988  42.1540012 111.7414997 109.9869988
  41.1510012 111.7334997 108.8539988  41.9069166 111.9936216 109.1948079
  51.1190012 112.3804997 107.0789988  50.1830012 112.4804997 107.2579988
  51.3990012 111.6714997 107.6579988  51.0289553 112.2983406 107.1817087
  54.1070012 101.4474997 119.1259988  53.7000012 101.9284997 118.4049988
  54.1480012 100.5424997 118.8179988  54.0568437 101.3909374 118.9856683
  41.2560012 107.8314997 117.1229988  41.4720012 107.4704997 117.9819988
  40.4010012 107.4574997 116.9129988  41.1699292 107.7314111 117.2123386
  43.8750012  96.3014997 113.1179988  43.0130012  96.2144997 112.7099988
  43.8520012  97.1574997 113.5459988  43.7540409  96.4052883 113.1200589
  48.5380012  96.0234997 116.4929988  48.9580012  95.6084997 117.2459988
  47.6050012  95.8454997 116.6099988  48.4693644  95.9425900 116.6119539
  51.8640012  99.7794997 117.3459988  51.3500012  99.6534997 118.1439988
  51.7090012 100.6914997 117.1019988  51.7726852  99.8856132 117.4222158
  43.9660012 101.2674997 114.2129988  43.3240012 101.2264997 114.9219988
  44.0030012 102.1934997 113.9749988  43.8830664 101.3871430 114.2779219
  43.9630012 101.4884997 109.1249988  43.0700012 101.1474997 109.0659988
  44.4130012 101.1114997 108.3689988  43.9018130 101.3909631 109.0147702
  49.4980012 101.9044997 107.9419988  49.0890012 102.7194997 107.6509988
  50.2190012 101.7644997 107.3279988  49.5394537 101.9972018 107.8191342
  48.6000012 102.0794997 119.4299988  48.0380012 101.3754997 119.7509988
  49.4270012 101.9594997 119.8979988  48.6347095 101.9667883 119.5372330
  50.5030012 101.3504997 110.7559988  50.3080012 101.9554997 110.0409988
  50.6840012 100.5164997 110.3219988  50.5007614 101.3206300 110.5994405
  41.7160012 101.5874997 116.0799988  41.6780012 101.9874997 116.9489988
  41.2250012 100.7704997 116.1709988  41.6444684 101.5318069 116.2111059
  38.3240012  98.7034997 109.9309988  38.9550012  98.6744997 110.6499988
  38.7730012  98.2784997 109.1999988  38.4710918  98.6420836 109.9306441
  39.5980012  99.4494997 105.3549988  40.0720012 100.0404997 104.7699988
  38.8810012  99.9804997 105.7019988  39.5659341  99.6020867 105.3218836
  49.7670012 102.9884997 115.4269988  50.0900012 102.3574997 114.7839988
  49.3270012 102.4534997 116.0879988  49.7517484 102.8298387 115.4283198
  46.5440012  98.9154997 110.2109988  45.6330012  98.9724997 110.4999988
  47.0500012  98.8554997 111.0219988  46.4876899  98.9151941 110.3601184
  41.3730012 100.5444997 109.0379988  40.4830012 100.6444997 108.6979988
  41.6690012  99.7024997 108.6919988  41.2912823 100.4443545 108.9447213
  45.0260012 100.5444997 106.6949988  45.9570012 100.6734997 106.8729988
  44.8110012 101.2144997 106.0449988  45.1244247 100.6526565 106.6315747
  50.9490012  98.1504997 113.4759988  50.2730012  98.2814997 114.1399988
  50.4640012  97.9954997 112.6649988  50.7907146  98.1475157 113.4574469
  43.7000012 101.7394997 104.2609988  43.1570012 101.3594997 103.5699988
  44.5330012 101.9334997 103.8329988  43.7383631 101.7137125 104.1084501
  54.2370012 113.8224997 119.7519988  54.4370012 114.2464997 118.9179988
  54.8920012 114.1654997 120.3589988  54.3530072 113.9269857 119.7198592
  41.8350012 106.2964997 119.3599988  42.5670012 106.5504997 119.9219988
  41.0550012 106.5004997 119.8759988  41.8297073 106.3588160 119.5066151
  47.8640012 101.7034997 112.0979988  48.4290012 101.1564997 111.5509988
  47.7170012 101.1814997 112.8869988  47.9213380 101.5582259 112.1298695
  42.8660012  97.8394997 108.5169988  42.5490012  96.9374997 108.4809988
  43.6480012  97.8414997 107.9639988  42.9282408  97.7162474 108.4373569
  46.4910012 100.0914997 114.5119988  45.6550012 100.5454997 114.6229988
  47.0150012 100.3674997 115.2639988  46.4475416 100.1908660 114.6288119
  47.0350012 106.3044997 106.1969988  46.2900012 105.7974997 105.8749988
  46.9010012 106.3534997 107.1439988  46.9148776 106.2416940 106.2808647
  54.1850012 105.4374997 114.9839988  54.8270012 105.8944997 114.4399988
  53.3550012 105.5504997 114.5209988  54.1605963 105.5152704 114.8470177
  48.5540012 106.4884997 117.4339988  48.2090012 106.1074997 118.2409988
  48.3540012 107.4224997 117.5049988  48.4797527 106.5625135 117.5540689
  51.6510012 100.9854997 106.0569988  52.5430012 100.8484997 106.3759988
  51.7080012 101.7764997 105.5199988  51.7806504 101.0736052 106.0280818
  42.1600012 105.5994997 111.9669988  42.9050012 105.5974997 111.3659988
  42.2380012 104.7764997 112.4479988  42.2724995 105.4878887 111.9498282
  49.1610012 107.7634997 105.2229988  48.8650012 108.5894997 105.6039988
  48.4580012 107.1434997 105.4189988  49.0254914 107.7928199 105.3016443
  39.1680012 104.0604997 117.2819988  39.3910012 103.6424997 118.1139988
  38.5660012 103.4474997 116.8589988  39.1171759 103.9204668 117.3387022
  46.1840012 103.5774997 119.4949988  45.8880012 103.4114997 118.5999988
  47.1160012 103.3574997 119.4839988  46.2694166 103.5250640 119.3710536
  50.8050012 108.9504997 117.3849988  49.9040012 109.1334997 117.1169988
  50.8390012 109.2094997 118.3049988  50.6863139 109.0105849 117.4728099
  56.5360012 101.1954997 105.7519988  55.9820012 100.7994997 105.0799988
  56.6360012 102.1054997 105.4739988  56.4737059 101.2643586 105.6224401
  56.4990012 106.9954997 118.5889988  55.6480012 107.2334997 118.2219988
  57.0900012 106.9784997 117.8359988  56.4622487 107.0258258 118.4368893
  54.8310012 109.9814997 106.2169988  54.4580012 109.1554997 106.5259988
  55.1090012 109.7984997 105.3189988  54.8175222 109.8437430 106.1379473
  51.9920012 104.7894997 113.2379988  51.0630012 104.5574997 113.2109988
  52.4430012 104.0124997 112.9079988  51.9259216 104.6527238 113.1896917
  44.5350012 109.1174997 109.3709988  45.0620012 109.8904997 109.1709988
  43.6550012 109.3424997 109.0689988  44.4882031 109.2537545 109.3027912
  45.9620012 106.7804997 108.9469988  45.7210012 107.7054997 108.9889988
  45.2210012 106.3214997 109.3439988  45.8289225 106.8450933 109.0063742
  46.4770012 110.9294997 115.2629988  46.8390012 111.7844997 115.0289988
  47.0080012 110.6374997 116.0029988  46.5984473 111.0071060 115.3310855
  44.6450012 111.8024997 108.4929988  43.6950012 111.9074997 108.5439988
  44.9970012 112.6224997 108.8369988  44.5624195 111.9278800 108.5465502
  50.0210012 107.0284997 114.9629988  49.5950012 106.8014997 115.7899988
  50.6010012 106.2904997 114.7809988  50.0411868 106.8975299 115.0515830
  52.2240012 107.9574997 104.0369988  52.5770012 107.5774997 104.8409988
  51.2750012 107.8644997 104.1239988  52.1440918 107.8928956 104.1588532
  52.6790012 111.5804997 117.4329988  52.0780012 111.0254997 116.9369988
  52.9610012 112.2474997 116.8059988  52.6348804 111.5946625 117.2804849
  56.7270012 112.4374997 104.2379988  57.4710012 113.0234997 104.0979988
  56.0330012 113.0054997 104.5709988  56.7349899 112.5945798 104.2638778
  40.8020012  98.8134997 116.8399988  39.9090012  99.1524997 116.7719988
  40.7030012  97.9584997 117.2579988  40.6664164  98.7442588 116.8872235
  53.0900012 106.6304997 106.2639988  52.8120012 105.9024997 106.8199988
  54.0170012 106.7494997 106.4689988  53.1773124 106.5468802 106.3678845
  40.4530012 110.6184997 115.2749988  40.6700012 109.6864997 115.2439988
  40.6990012 110.8924997 116.1579988  40.5159549 110.5280636 115.3901763
  46.3150012 109.0694997 102.4839988  46.5540012 108.3214997 101.9369988
  46.0460012 108.6814997 103.3169988  46.3113675 108.9146638 102.5216865
  49.5360012  98.5544997 115.7299988  50.2350012  98.6284997 116.3799988
  49.1550012  97.6904997 115.8839988  49.5801767  98.4477624 115.8398322
  50.3210012  98.2064997 106.8269988  50.5410012  98.6784997 106.0239988
  50.8790012  98.6014997 107.4969988  50.4264968  98.3244285 106.8077331
  47.9890012 110.3374997 105.6899988  47.1730012 110.8344997 105.7419988
  48.5190012 110.8124997 105.0499988  47.9489161 110.4697722 105.6105956
  47.5210012  99.9344997 107.6619988  48.3330012 100.4394997 107.7079988
  47.2760012  99.7894997 108.5759988  47.5990520  99.9840375 107.7918517
  48.0560012 100.9204997 116.8459988  48.1750012 101.4944997 117.6039988
  48.7120012 100.2324997 116.9609988  48.1609025 100.9059858 116.9651321
  48.4040012  97.0154997 108.5999988  48.0580012  97.6334997 109.2439988
  49.0630012  97.5164997 108.1179988  48.4456968  97.1676278 108.6229383
  45.3280012 111.3814997 105.6709988  45.4880012 112.1804997 105.1709988
  45.1300012 111.6874997 106.5559988  45.3231637 111.5324020 105.7221144
  44.0620012  98.0784997 105.2869988  43.9790012  98.9674997 105.6339988
  44.9520012  97.8134997 105.5189988  44.1709469  98.1641430 105.3657626
  54.2610012  98.8274997 117.6809988  53.3440012  99.0904997 117.5939988
  54.5960012  98.8244997 116.7849988  54.1808613  98.8630761 117.5478837
  52.8630012 102.5784997 111.7769988  52.0650012 102.1634997 111.4489988
  53.3080012 101.8874997 112.2679988  52.8139885 102.4283543 111.7984889
  40.6370012 101.1704997 103.4639988  40.5920012 102.1094997 103.6419988
  39.7490012 100.9344997 103.1939988  40.5108574 101.2671892 103.4518912
  53.9490012 111.8344997 113.3999988  53.7940012 112.5124997 112.7419988
  54.8820012 111.9064997 113.6029988  54.0538657 111.9369546 113.3374360
  41.4450012  95.9524997 112.1369988  41.2160012  96.0114997 111.2089988
  41.0020012  95.1604997 112.4429988  41.3538530  95.8535753 112.0514786
  40.3750012 109.8924997 108.2969988  39.5430012 110.3654997 108.3239988
  40.9210012 110.4024997 107.6989988  40.3350352 110.0261332 108.2198463
  39.6630012 112.5054997 119.6269988  40.2040012 112.2884997 120.3869988
  39.1820012 111.6994997 119.4369988  39.6719951 112.3669270 119.7052576
  44.2610012 111.4244997 121.2469988  45.0280012 110.9654997 121.5879988
  44.2390012 111.1984997 120.3179988  44.3631275 111.3310186 121.1680101
  50.8380012 109.8044997 119.9769988  50.4870012 108.9484997 120.2199988
  51.5640012 109.9474997 120.5839988  50.8880769 109.7065636 120.0923619
  39.5700012 106.3154997 120.5809988  39.7140012 105.4134997 120.2949988
  38.7980012 106.6014997 120.0939988  39.4852753 106.2306816 120.4759505
  46.2260012 106.2854997 120.0139988  45.8970012 106.5564997 119.1569988
  46.3780012 105.3444997 119.9269988  46.2014809 106.1953862 119.8848244
  49.2640012 107.7064997 102.4499988  48.9950012 107.8864997 103.3509988
  49.0580012 106.7804997 102.3179988  49.1993427 107.6060261 102.5555073
  51.9600012 106.2014997 117.3969988  52.7060012 106.7894997 117.2779988
  51.2030012 106.7834997 117.4609988  51.9597820 106.3607143 117.3893590
  40.4030012 103.5154997 120.0009988  40.8110012 102.6584997 119.8799988
  40.1430012 103.5304997 120.9219988  40.4237568 103.4000807 120.1089588
  45.0610012 104.6314997 105.0199988  44.6010012 104.1474997 105.7059988
  45.3160012 103.9634997 104.3839988  45.0324902 104.4748731 105.0279334
  44.3500012 102.5244997 117.3759988  43.7320012 103.1994997 117.6559988
  44.6940012 102.8454997 116.5419988  44.3119132 102.6602411 117.3016262
  46.1320012 102.8744997 103.2819988  45.9520012 102.7204997 102.3549988
  47.0820012 102.9824997 103.3269988  46.2357776 102.8680175 103.1611843
  49.3700012 104.9964997 120.6529988  50.3230012 105.0794997 120.6259988
  49.2090012 104.2844997 121.2729988  49.4786426 104.9116746 120.7330579
  44.6890012  99.8794997 118.4579988  44.8390012  99.1504997 117.8559988
  44.6920012 100.6564997 117.8989988  44.7099302  99.8847851 118.3000692
  45.1020012  98.2494997 115.9509988  45.6380012  98.7004997 115.2989988
  44.2500012  98.1414997 115.5279988  45.0602178  98.2966390 115.8045756
  46.6840012 103.6884997 116.1899988  47.4340012 103.5324997 115.6169988
  46.3450012 104.5404997 115.9149988  46.7408921 103.7822968 116.0743561
  51.0990012 101.5034997 121.2189988  51.2920012 100.5724997 121.1069988
  51.9570012 101.9284997 121.2079988  51.2412934 101.4336531 121.2022031
  52.4160012 104.2924997 119.2959988  52.1350012 105.0014997 118.7179988
  53.3590012 104.2194997 119.1449988  52.5049291 104.3796711 119.1964967
  43.1680012 101.0774997 120.3699988  42.4010012 100.5454997 120.1589988
  43.8470012 100.7674997 119.7699988  43.1547877 100.9628300 120.2600716
  45.9080012  95.7054997 116.3819988  45.8090012  96.6524997 116.2769988
  45.1650012  95.3334997 115.9059988  45.7941184  95.7845863 116.3033621
  47.1720012 100.0274997 119.9459988  46.9360012  99.8074997 120.8469988
  46.3880012  99.8204997 119.4359988  47.0338504  99.9694586 120.0003431
  49.8870012  99.1544997 119.0209988  48.9400012  99.1864997 119.1539988
  50.2000012  98.5294997 119.6749988  49.7996707  99.0743998 119.1276060
  51.5210012  97.7884997 121.0269988  51.4250012  96.8364997 121.0209988
  51.2000012  98.0574997 121.8869988  51.4644070  97.6944035 121.1425441
  41.3480012  98.9984997 120.0739988  41.5600012  98.2914997 119.4639988
  41.2370012  98.5604997 120.9179988  41.3619721  98.8427084 120.1046843
  46.1290012  94.9994997 119.0529988  46.8410012  94.3594997 119.0389988
  46.0280012  95.2664997 118.1399988  46.2128066  94.9480079 118.9275677
  46.4830012  96.6824997 121.1069988  46.3510012  96.2064997 120.2869988
  45.8840012  97.4264997 121.0519988  46.3839071  96.7179618 120.9872886
  46.0290012 113.5654997 104.2829988  46.9620012 113.7234997 104.4269988
  45.7650012 114.2404997 103.6589988  46.1209888 113.6784510 104.2182842
  38.2470012 113.5944997 108.8439988  37.6000012 113.1324997 108.3109988
  38.6010012 112.9224997 109.4259988  38.2063849 113.4404723 108.8497959
  39.1170012 111.6754997 110.6479988  38.7820012 110.7954997 110.8199988
  39.3390012 112.0204997 111.5129988  39.1011783 111.6017500 110.7884208
  56.6650012 112.4844997 113.6289988  56.6440012 112.6694997 114.5679988
  57.3560012 113.0534997 113.2879988  56.7554618 112.5866606 113.7113864
  56.2290012 112.0524997 116.5509988  55.7410012 111.3164997 116.1789988
  56.7780012 111.6584997 117.2289988  56.2364820 111.8985889 116.5917813
  54.6790012 107.8414997 121.1889988  53.8130012 107.7364997 121.5829988
  55.0560012 108.6004997 121.6349988  54.6113308 107.9296900 121.3032393
  55.9800012 106.0984997 106.7029988  56.8300012 106.5194997 106.8299988
  55.9860012 105.3584997 107.3099988  56.0971372 106.0560803 106.8024344
  56.3750012 104.1514997 108.5259988  55.6480012 103.6724997 108.9239988
  56.9560012 104.3574997 109.2589988  56.3540473 104.1138103 108.6794528
  56.1340012 106.9364997 113.4739988  56.9670012 106.5584997 113.1939988
  56.2460012 107.8794997 113.3549988  56.2632647 107.0122218 113.4195487
  54.6200012 109.8144997 115.7809988  53.9730012 110.1394997 116.4069988
  54.1030012 109.3744997 115.1069988  54.4614029 109.7995004 115.7755827
  56.6430012 104.0524997 104.9179988  56.1210012 104.4094997 104.1989988
  56.6100012 104.7274997 105.5959988  56.5671634 104.1925413 104.9113145
  54.9920012 101.2924997 103.4679988  55.0880012 101.9594997 102.7879988
  54.8520012 100.4764997 102.9869988  54.9862272 101.2735655 103.3098347
  54.1610012 102.6724997 109.0889988  54.0110012 101.7274997 109.0689988
  53.8080012 102.9534997 109.9329988  54.0927448 102.5811481 109.2003705
  39.1970012 104.7504997 113.0999988  39.3810012 104.6684997 112.1639988
  40.0460012 104.6264997 113.5229988  39.3370151 104.7225073 113.0291451
  55.0180012 104.6424997 118.7279988  55.6010012 103.9084997 118.9199988
  55.5820012 105.4144997 118.7749988  55.1739769 104.6464227 118.7606159
  56.5140012 102.5454997 119.4129988  55.6510012 102.1664997 119.2469988
  57.1190012 101.8064997 119.3379988  56.4776119 102.3938268 119.3801528
  53.8720012 100.2554997 107.5519988  54.1520012  99.3484997 107.6759988
  54.6310012 100.6894997 107.1629988  54.0129277 100.1900942 107.5163682
  54.4840012 100.8364997 112.9879988  55.4170012 101.0484997 112.9529988
  54.2490012 100.9384997 113.9099988  54.5799244 100.8793100 113.1078892
  54.5130012 101.5734997 115.7639988  53.6700012 101.8414997 116.1299988
  54.9550012 102.3954997 115.5529988  54.4574158 101.7213291 115.7855491
  38.7940012 100.0214997 119.2409988  39.7140012  99.8994997 119.4769988
  38.3450012  99.2714997 119.6299988  38.8591580  99.9033727 119.3259006
  56.7960012  95.5534997 121.1169988  57.1460012  94.8994997 120.5119988
  56.9430012  96.3904997 120.6769988  56.8637887  95.5771548 120.9746858
  54.4850012  97.5184997 107.5999988  54.6680012  97.0694997 108.4259988
  53.8860012  96.9334997 107.1369988  54.4290202  97.3779975 107.6503275
  40.0150012  98.3334997 112.1319988  40.4610012  97.5414997 112.4339988
  40.4820012  99.0494997 112.5619988  40.1390831  98.3220685 112.2314006
  38.3190012 101.3324997 113.2009988  38.8110012 101.1114997 112.4099988
  38.6820012 102.1734997 113.4819988  38.4353126 101.4158357 113.1307531
  56.3160012  97.6624997 119.4659988  55.3980012  97.9334997 119.4309988
  56.4390012  97.1274997 118.6819988  56.2069729  97.6272508 119.3551923
  56.3520012  97.5854997 104.1279988  56.7640012  96.8644997 103.6529988
  57.0340012  98.2554997 104.1869988  56.5005885  97.5772368 104.0708915
  38.6330012  97.5904997 107.2549988  37.7080012  97.7994997 107.1259988
  39.0870012  98.0744997 106.5649988  38.5677292  97.6845343 107.1440720
  53.4040012 112.5744997 109.2009988  54.0560012 112.2274997 108.5929988
  53.9140012 113.0634997 109.8469988  53.5622637 112.5930597 109.2050236
  38.5970012  96.3284997 115.5989988  37.9320012  96.0824997 116.2429988
  38.1540012  96.9504997 115.0219988  38.4461318  96.3789410 115.6090898
  40.7890012 109.5034997 119.7439988  39.9680012 109.6784997 119.2829988
  40.5360012 109.4304997 120.6639988  40.6425585 109.5175544 119.8053561
  43.7430012 110.4784997 116.0019988  43.3180012 111.2874997 115.7199988
  44.6470012 110.5634997 115.6999988  43.8069975 110.6009300 115.9224816
  48.0540012 111.8774997 118.9619988  48.2390012 111.5434997 119.8399988
  48.9000012 112.1864997 118.6399988  48.1937539 111.8736047 119.0385605
  50.3990012 113.1634997 118.2059988  51.0760012 112.5304997 117.9659988
  50.7210012 113.5644997 119.0129988  50.5351637 113.1311154 118.2822793
  55.3160012  95.7524997 117.2849988  54.5040012  96.0774997 116.8979988
  55.5490012  94.9924997 116.7519988  55.2362203  95.6942758 117.1598880
  41.1450012 113.7344997 116.0499988  40.4240012 114.1744997 115.5989988
  40.7790012 113.4834997 116.8979988  40.9969651 113.7607242 116.1029640
  43.6120012 113.3344997 115.0799988  42.7470012 113.4064997 115.4839988
  43.5570012 113.8814997 114.2959988  43.4862085 113.4182685 115.0293362
  48.3220012 113.2224997 114.2549988  47.8660012 113.7514997 113.6009988
  48.4850012 113.8254997 114.9799988  48.2816068 113.3764607 114.2634838
  50.6500012 112.1004997 115.1999988  49.7450012 112.2654997 114.9339988
  51.0790012 112.9534997 115.1349988  50.5841324 112.2384339 115.1547976
  53.2540012 113.6704997 115.4949988  53.0720012 114.5864997 115.2849988
  53.4310012 113.2604997 114.6489988  53.2530210 113.7404822 115.3517885
  40.5590012 112.3574997 112.9599988  40.5410012 111.9324997 113.8169988
  41.3640012 112.0394997 112.5509988  40.6653529 112.2563013 113.0220946
  42.7010012 111.0674997 111.6149988  42.4820012 110.1514997 111.7849988
  43.5250012 111.2074997 112.0809988  42.7824420 110.9610520 111.7012774
  45.2380012 111.5374997 112.4639988  45.4510012 110.6494997 112.1769988
  45.3020012 111.5034997 113.4179988  45.2758231 111.4113102 112.5537397
  48.7460012  97.2014997 111.6079988  48.0720012  96.5724997 111.8639988
  49.3100012  96.7174997 111.0049988  48.7299230  97.0498744 111.5615340
  53.8890012  95.3094997 111.7209988  54.4930012  95.8564997 111.2189988
  53.0190012  95.6284997 111.4799988  53.8541208  95.4275137 111.6196886
  55.6160012  96.4474997 110.0539988  56.2280012  95.9334997 109.5269988
  55.9980012  97.3254997 110.0769988  55.7513371  96.4957866 109.9850041
  41.0730012  95.8354997 109.4299988  40.2960012  95.6014997 108.9229988
  41.6030012  95.0384997 109.4389988  41.0382330  95.6956988 109.3617742
  39.9090012  95.6334997 105.2339988  40.3480012  96.2444997 104.6419988
  39.2760012  96.1714997 105.7079988  39.8834514  95.7899257 105.2170930
  45.6520012  95.7624997 109.2439988  46.5270012  96.1504997 109.2139988
  45.5160012  95.5474997 110.1659988  45.7533695  95.7865184 109.3646440
  51.2090012  95.7924997 110.8929988  51.2850012  95.8874997 109.9429988
  50.9340012  94.8844997 111.0219988  51.1822321  95.6827867 110.7805079
  52.5620012  95.8184997 106.5849988  51.8600012  96.4334997 106.3749988
  52.1180012  94.9804997 106.7159988  52.4056450  95.7895639 106.5739000
  39.8100012 111.5814997 106.1309988  39.1250012 111.5434997 105.4639988
  39.8140012 112.4944997 106.4199988  39.7166998 111.6996733 106.0786771
  46.7960012  97.8424997 106.1329988  46.9740012  97.1964997 106.8159988
  46.7430012  98.6764997 106.5999988  46.8131999  97.8668009 106.2895917
  55.3840012 112.3544997 107.2079988  55.1890012 111.6064997 106.6429988
  55.3450012 113.1124997 106.6249988  55.3520380 112.3546099 107.0518384
  41.0310012  96.3494997 118.9479988  40.6650012  95.5844997 119.3899988
  41.9440012  96.3784997 119.2339988  41.1042736  96.2485640 119.0472502
  43.0040012  95.7004997 120.4839988  43.9020012  95.4264997 120.2989988
  42.6170012  94.9574997 120.9479988  43.0746612  95.5625914 120.5213643
  51.4250012  95.0324997 120.6659988  51.5020012  94.6064997 121.5199988
  52.3190012  95.0464997 120.3229988  51.5563428  94.9760879 120.7365310
  54.6010012 111.1054997 119.3579988  53.8190012 110.9194997 118.8379988
  54.5290012 112.0344997 119.5759988  54.4842274 111.2056643 119.3163018
  69.0070012 104.9914997 109.3889988  69.0960012 105.9354997 109.2569988
  68.3690012 104.7164997 108.7309988  68.9329081 105.0834830 109.2819614
  67.9400012 104.2464997 112.8079988  67.9020012 103.6004997 113.5129988
  67.6180012 103.7804997 112.0369988  67.8912333 104.0949408 112.8002978
  60.3090012 103.8614997 114.4009988  60.3500012 103.2354997 115.1239988
  61.0120012 104.4854997 114.5829988  60.4096363 103.8601196 114.5246044
  71.6460012 107.1854997 111.1089988  71.2060012 106.4654997 111.5599988
  71.6330012 107.9064997 111.7389988  71.5840226 107.1843731 111.2558494
  61.2320012 108.3114997 112.9359988  60.8630012 107.5094997 112.5659988
  62.1730012 108.1424997 112.9819988  61.3087289 108.1790153 112.8916316
  57.8420012 101.9714997 108.3289988  57.3950012 102.8174997 108.3099988
  57.2810012 101.3914997 107.8129988  57.7049900 102.0089916 108.2566801
  58.5530012 104.1334997 110.4539988  58.7660012 103.3634997 110.9819988
  59.2910012 104.2224997 109.8509988  58.6819044 104.0401968 110.4447123
  68.7580012 112.2904997 111.3209988  69.3780012 111.6134997 111.0479988
  68.5500012 112.0724997 112.2299988  68.8146726 112.1684800 111.4064812
  66.3300012 106.6794997 113.2139988  66.6340012 105.9934997 112.6189988
  67.0510012 106.7974997 113.8319988  66.4690671 106.6016305 113.2161816
  74.9930012  98.2804997 114.0749988  75.0420012  98.8904997 114.8099988
  75.4180012  98.7414997 113.3519988  75.0571746  98.4263796 114.0779175
  69.4710012 101.0734997 113.5409988  69.6130012 100.1274997 113.5619988
  69.3640012 101.2804997 112.6129988  69.4759919 100.9718246 113.4183408
  62.6250012  99.1744997 110.8139988  62.6690012 100.0344997 110.3949988
  62.1680012  98.6224997 110.1799988  62.5692240  99.2174422 110.6709864
  70.3480012  99.3054997 109.2149988  70.9940012  98.9764997 109.8389988
  70.8580012  99.8234997 108.5919988  70.5054299  99.3304450 109.2162731
  59.2460012 101.5714997 111.5759988  59.8990012 101.0214997 112.0079988
  59.2700012 101.2974997 110.6589988  59.3386683 101.4591466 111.5112123
  64.4020012 103.1214997 110.7909988  65.0180012 102.5954997 111.3009988
  63.8160012 102.4814997 110.3879988  64.4070810 102.9629208 110.8063173
  75.3840012  99.7584997 116.3099988  74.6960012 100.4164997 116.2149988
  75.4000012  99.5614997 117.2469988  75.2919540  99.8219819 116.4235990
  61.4360012  98.0924997 114.8879988  61.2170012  98.6224997 114.1219988
  60.7680012  98.3194997 115.5349988  61.3157600  98.1956906 114.8706379
  68.8050012 107.5924997 108.4319988  68.5090012 107.2704997 107.5809988
  68.4800012 108.4924997 108.4729988  68.7206371 107.6700215 108.3211801
  64.0050012 105.7684997 115.1749988  63.2650012 106.3664997 115.2789988
  64.7190012 106.3224997 114.8599988  64.0002237 105.9252831 115.1466465
  72.1120012  98.5964997 111.1949988  71.8960012  97.8304997 111.7279988
  72.7670012  99.0684997 111.7079988  72.1710632  98.5555889 111.3372861
  61.0290012  99.9844997 112.8399988  61.6430012 100.6174997 113.2129988
  61.5410012  99.5124997 112.1839988  61.1821981 100.0072267 112.8022908
  62.4120012 107.7324997 115.9619988  62.4070012 108.6124997 115.5839988
  61.5590012 107.6494997 116.3869988  62.2959464 107.8416117 115.9677907
  58.5330012 107.4034997 106.7439988  58.2610012 107.6324997 105.8559988
  58.5790012 108.2414997 107.2049988  58.5019482 107.5481318 106.6846273
  72.1580012 109.0254997 113.4569988  71.2170012 109.0834997 113.6189988
  72.4350012 109.9314997 113.3199988  72.0664679 109.1559443 113.4606815
  72.4590012  97.3114997 114.8749988  71.7230012  97.9224997 114.8369988
  73.1420012  97.7264997 114.3479988  72.4506541  97.4511374 114.7985832
  65.4620012  95.3984997 112.3399988  65.3450012  94.4494997 112.2859988
  64.6070012  95.7304997 112.6139988  65.3304212  95.3135571 112.3696497
  70.4100012 110.8064997 110.0819988  70.8360012 110.0994997 109.5969988
  70.7270012 111.6074997 109.6659988  70.5111683 110.8181017 109.9593680
  71.5700012 108.7074997 108.5909988  71.3120012 108.0174997 107.9799988
  71.6410012 108.2644997 109.4369988  71.5442856 108.5532124 108.6216885
  73.2560012 107.2734997 117.0679988  73.3960012 106.6824997 116.3289988
  73.4230012 108.1464997 116.7119988  73.2977411 107.3105428 116.9186894
  67.7290012 104.2354997 106.8409988  67.0170012 104.7704997 106.4889988
  68.4200012 104.2914997 106.1809988  67.7250132 104.3162543 106.7036289
  75.0980012 103.6134997 115.1339988  74.4450012 104.3084997 115.2239988
  75.5630012 103.8234997 114.3249988  75.0715274 103.7370643 115.0368462
  71.1340012 104.4454997 107.7929988  70.4020012 104.6734997 108.3659988
  71.5820012 103.7314997 108.2469988  71.0942725 104.3802145 107.9328816
  71.0320012 102.6194997 116.8599988  71.1120012 103.3824997 117.4319988
  70.4300012 102.8984997 116.1699988  70.9615756 102.7617134 116.8450589
  62.7800012 105.0754997 109.6749988  62.4490012 104.7054997 108.8569988
  63.3680012 104.4054997 110.0219988  62.8141873 104.9341156 109.6098102
  64.1460012 108.5034997 112.3559988  64.0520012 107.9254997 111.5999988
  64.8760012 108.1324997 112.8529988  64.2317387 108.3741663 112.3195342
  63.1460012 103.8444997 113.3089988  63.7120012 103.9654997 112.5459988
  63.4650012 104.4814997 113.9469988  63.2665474 103.9472219 113.2909862
  69.4550012 109.3474997 114.0429988  69.2150012 110.0094997 114.6909988
  69.2570012 108.5134997 114.4679988  69.3953808 109.3253134 114.1891524
  64.0260012 108.2434997 118.0259988  63.7150012 109.0254997 118.4809988
  63.3760012 108.0904997 117.3399988  63.8955558 108.3299105 117.9955871
  70.0050012 103.6074997 105.4779988  70.5850012 103.7574997 106.2249988
  70.4190012 104.0784997 104.7539988  70.1402997 103.6916578 105.4824058
  60.9460012 104.4414997 117.2539988  61.0170012 105.0924997 117.9529988
  60.0560012 104.5444997 116.9189988  60.8353005 104.5445427 117.3043495
  67.7320012 110.3444997 108.9129988  68.2060012 110.6394997 109.6899988
  67.1690012 111.0824997 108.6799988  67.7208184 110.4847247 108.9879628
  62.2660012 110.3154997 118.7889988  62.2730012 110.1794997 117.8419988
  61.3500012 110.1974997 119.0409988  62.1431714 110.2809430 118.6934666
  73.7040012  95.3574997 105.2909988  72.8040012  95.4964997 105.5859988
  73.9560012  96.1884997 104.8889988  73.6148702  95.4889074 105.2770205
  61.7700012 104.1454997 107.2639988  61.4780012 104.9134997 106.7739988
  61.0960012 103.4854997 107.1019988  61.6388111 104.1615587 107.1748978
  57.8630012 106.5084997 116.0789988  57.3620012 106.4804997 115.2639988
  57.8680012 105.6024997 116.3889988  57.7950944 106.3822396 116.0093226
  57.6130012 109.2884997 112.9629988  58.5590012 109.1444997 112.9439988
  57.5010012 110.0724997 113.4999988  57.7272727 109.3748046 113.0330072
  75.8110012 109.9544997 118.6459988  75.7620012 108.9994997 118.6089988
  74.9840012 110.2224997 119.0469988  75.6924940 109.8598998 118.6951375
  66.7900012 109.5284997 117.5219988  66.8770012 110.3544997 117.9969988
  65.9260012 109.1984997 117.7709988  66.6851964 109.5969878 117.6206549
  67.2040012 113.3004997 107.3279988  67.1290012 113.1794997 106.3809988
  67.2370012 114.2504997 107.4459988  67.1982068 113.4122646 107.2144967
  60.8570012 112.0894997 109.1089988  61.0100012 111.7414997 109.9869988
  60.0070012 111.7334997 108.8539988  60.7629166 111.9936216 109.1948079
  69.9750012 112.3804997 107.0789988  69.0390012 112.4804997 107.2579988
  70.2550012 111.6714997 107.6579988  69.8849553 112.2983406 107.1817087
  72.9630012 101.4474997 119.1259988  72.5560012 101.9284997 118.4049988
  73.0040012 100.5424997 118.8179988  72.9128437 101.3909374 118.9856683
  60.1120012 107.8314997 117.1229988  60.3280012 107.4704997 117.9819988
  59.2570012 107.4574997 116.9129988  60.0259292 107.7314111 117.2123386
  62.7310012  96.3014997 113.1179988  61.8690012  96.2144997 112.7099988
  62.7080012  97.1574997 113.5459988  62.6100409  96.4052883 113.1200589
  67.3940012  96.0234997 116.4929988  67.8140012  95.6084997 117.2459988
  66.4610012  95.8454997 116.6099988  67.3253644  95.9425900 116.6119539
  70.7200012  99.7794997 117.3459988  70.2060012  99.6534997 118.1439988
  70.5650012 100.6914997 117.1019988  70.6286852  99.8856132 117.4222158
  62.8220012 101.2674997 114.2129988  62.1800012 101.2264997 114.9219988
  62.8590012 102.1934997 113.9749988  62.7390664 101.3871430 114.2779219
  62.8190012 101.4884997 109.1249988  61.9260012 101.1474997 109.0659988
  63.2690012 101.1114997 108.3689988  62.7578130 101.3909631 109.0147702
  68.3540012 101.9044997 107.9419988  67.9450012 102.7194997 107.6509988
  69.0750012 101.7644997 107.3279988  68.3954537 101.9972018 107.8191342
  67.4560012 102.0794997 119.4299988  66.8940012 101.3754997 119.7509988
  68.2830012 101.9594997 119.8979988  67.4907095 101.9667883 119.5372330
  69.3590012 101.3504997 110.7559988  69.1640012 101.9554997 110.0409988
  69.5400012 100.5164997 110.3219988  69.3567614 101.3206300 110.5994405
  60.5720012 101.5874997 116.0799988  60.5340012 101.9874997 116.9489988
  60.0810012 100.7704997 116.1709988  60.5004684 101.5318069 116.2111059
  57.1800012  98.7034997 109.9309988  57.8110012  98.6744997 110.6499988
  57.6290012  98.2784997 109.1999988  57.3270918  98.6420836 109.9306441
  58.4540012  99.4494997 105.3549988  58.9280012 100.0404997 104.7699988
  57.7370012  99.9804997 105.7019988  58.4219341  99.6020867 105.3218836
  68.6230012 102.9884997 115.4269988  68.9460012 102.3574997 114.7839988
  68.1830012 102.4534997 116.0879988  68.6077484 102.8298387 115.4283198
  65.4000012  98.9154997 110.2109988  64.4890012  98.9724997 110.4999988
  65.9060012  98.8554997 111.0219988  65.3436899  98.9151941 110.3601184
  60.2290012 100.5444997 109.0379988  59.3390012 100.6444997 108.6979988
  60.5250012  99.7024997 108.6919988  60.1472823 100.4443545 108.9447213
  63.8820012 100.5444997 106.6949988  64.8130012 100.6734997 106.8729988
  63.6670012 101.2144997 106.0449988  63.9804247 100.6526565 106.6315747
  69.8050012  98.1504997 113.4759988  69.1290012  98.2814997 114.1399988
  69.3200012  97.9954997 112.6649988  69.6467146  98.1475157 113.4574469
  62.5560012 101.7394997 104.2609988  62.0130012 101.3594997 103.5699988
  63.3890012 101.9334997 103.8329988  62.5943631 101.7137125 104.1084501
  73.0930012 113.8224997 119.7519988  73.2930012 114.2464997 118.9179988
  73.7480012 114.1654997 120.3589988  73.2090072 113.9269857 119.7198592
  60.6910012 106.2964997 119.3599988  61.4230012 106.5504997 119.9219988
  59.9110012 106.5004997 119.8759988  60.6857073 106.3588160 119.5066151
  66.7200012 101.7034997 112.0979988  67.2850012 101.1564997 111.5509988
  66.5730012 101.1814997 112.8869988  66.7773380 101.5582259 112.1298695
  61.7220012  97.8394997 108.5169988  61.4050012  96.9374997 108.4809988
  62.5040012  97.8414997 107.9639988  61.7842408  97.7162474 108.4373569
  65.3470012 100.0914997 114.5119988  64.5110012 100.5454997 114.6229988
  65.8710012 100.3674997 115.2639988  65.3035416 100.1908660 114.6288119
  65.8910012 106.3044997 106.1969988  65.1460012 105.7974997 105.8749988
  65.7570012 106.3534997 107.1439988  65.7708776 106.2416940 106.2808647
  73.0410012 105.4374997 114.9839988  73.6830012 105.8944997 114.4399988
  72.2110012 105.5504997 114.5209988  73.0165963 105.5152704 114.8470177
  69.7890012  99.1184997 104.3959988  68.8500012  99.2304997 104.2449988
  70.0860012  99.9754997 104.7029988  69.7007583  99.2495981 104.4168337
  67.4100012 106.4884997 117.4339988  67.0650012 106.1074997 118.2409988
  67.2100012 107.4224997 117.5049988  67.3357527 106.5625135 117.5540689
  70.5070012 100.9854997 106.0569988  71.3990012 100.8484997 106.3759988
  70.5640012 101.7764997 105.5199988  70.6366504 101.0736052 106.0280818
  61.0160012 105.5994997 111.9669988  61.7610012 105.5974997 111.3659988
  61.0940012 104.7764997 112.4479988  61.1284995 105.4878887 111.9498282
  68.0170012 107.7634997 105.2229988  67.7210012 108.5894997 105.6039988
  67.3140012 107.1434997 105.4189988  67.8814914 107.7928199 105.3016443
  58.0240012 104.0604997 117.2819988  58.2470012 103.6424997 118.1139988
  57.4220012 103.4474997 116.8589988  57.9731759 103.9204668 117.3387022
  65.0400012 103.5774997 119.4949988  64.7440012 103.4114997 118.5999988
  65.9720012 103.3574997 119.4839988  65.1254166 103.5250640 119.3710536
  69.6610012 108.9504997 117.3849988  68.7600012 109.1334997 117.1169988
  69.6950012 109.2094997 118.3049988  69.5423139 109.0105849 117.4728099
  75.3920012 101.1954997 105.7519988  74.8380012 100.7994997 105.0799988
  75.4920012 102.1054997 105.4739988  75.3297059 101.2643586 105.6224401
  75.3550012 106.9954997 118.5889988  74.5040012 107.2334997 118.2219988
  75.9460012 106.9784997 117.8359988  75.3182487 107.0258258 118.4368893
  73.6870012 109.9814997 106.2169988  73.3140012 109.1554997 106.5259988
  73.9650012 109.7984997 105.3189988  73.6735222 109.8437430 106.1379473
  70.8480012 104.7894997 113.2379988  69.9190012 104.5574997 113.2109988
  71.2990012 104.0124997 112.9079988  70.7819216 104.6527238 113.1896917
  63.3910012 109.1174997 109.3709988  63.9180012 109.8904997 109.1709988
  62.5110012 109.3424997 109.0689988  63.3442031 109.2537545 109.3027912
  59.1460012 103.9794997 103.9579988  59.7620012 104.6064997 104.3379988
  58.2840012 104.2954997 104.2299988  59.1137698 104.1079430 104.0467183
  64.8180012 106.7804997 108.9469988  64.5770012 107.7054997 108.9889988
  64.0770012 106.3214997 109.3439988  64.6849225 106.8450933 109.0063742
  65.3330012 110.9294997 115.2629988  65.6950012 111.7844997 115.0289988
  65.8640012 110.6374997 116.0029988  65.4544473 111.0071060 115.3310855
  63.5010012 111.8024997 108.4929988  62.5510012 111.9074997 108.5439988
  63.8530012 112.6224997 108.8369988  63.4184195 111.9278800 108.5465502
  68.8770012 107.0284997 114.9629988  68.4510012 106.8014997 115.7899988
  69.4570012 106.2904997 114.7809988  68.8971868 106.8975299 115.0515830
  71.5350012 111.5804997 117.4329988  70.9340012 111.0254997 116.9369988
  71.8170012 112.2474997 116.8059988  71.4908804 111.5946625 117.2804849
  59.6580012  98.8134997 116.8399988  58.7650012  99.1524997 116.7719988
  59.5590012  97.9584997 117.2579988  59.5224164  98.7442588 116.8872235
  71.9460012 106.6304997 106.2639988  71.6680012 105.9024997 106.8199988
  72.8730012 106.7494997 106.4689988  72.0333124 106.5468802 106.3678845
  59.3090012 110.6184997 115.2749988  59.5260012 109.6864997 115.2439988
  59.5550012 110.8924997 116.1579988  59.3719549 110.5280636 115.3901763
  64.1080012 108.6394997 104.9399988  64.2540012 108.1194997 105.7299988
  64.1050012 109.5464997 105.2469988  64.1275792 108.6908842 105.0896117
  60.5610012 105.8924997 105.4509988  59.8750012 106.2444997 106.0179988
  61.0830012 106.6554997 105.2039988  60.5376852 106.0438578 105.4952118
  68.3920012  98.5544997 115.7299988  69.0910012  98.6284997 116.3799988
  68.0110012  97.6904997 115.8839988  68.4361767  98.4477624 115.8398322
  69.1770012  98.2064997 106.8269988  69.3970012  98.6784997 106.0239988
  69.7350012  98.6014997 107.4969988  69.2824968  98.3244285 106.8077331
  66.3770012  99.9344997 107.6619988  67.1890012 100.4394997 107.7079988
  66.1320012  99.7894997 108.5759988  66.4550520  99.9840375 107.7918517
  66.9120012 100.9204997 116.8459988  67.0310012 101.4944997 117.6039988
  67.5680012 100.2324997 116.9609988  67.0169025 100.9059858 116.9651321
  67.2600012  97.0154997 108.5999988  66.9140012  97.6334997 109.2439988
  67.9190012  97.5164997 108.1179988  67.3016968  97.1676278 108.6229383
  73.1170012  98.8274997 117.6809988  72.2000012  99.0904997 117.5939988
  73.4520012  98.8244997 116.7849988  73.0368613  98.8630761 117.5478837
  71.7190012 102.5784997 111.7769988  70.9210012 102.1634997 111.4489988
  72.1640012 101.8874997 112.2679988  71.6699885 102.4283543 111.7984889
  72.8050012 111.8344997 113.3999988  72.6500012 112.5124997 112.7419988
  73.7380012 111.9064997 113.6029988  72.9098657 111.9369546 113.3374360
  60.3010012  95.9524997 112.1369988  60.0720012  96.0114997 111.2089988
  59.8580012  95.1604997 112.4429988  60.2098530  95.8535753 112.0514786
  59.2310012 109.8924997 108.2969988  58.3990012 110.3654997 108.3239988
  59.7770012 110.4024997 107.6989988  59.1910352 110.0261332 108.2198463
  58.5190012 112.5054997 119.6269988  59.0600012 112.2884997 120.3869988
  58.0380012 111.6994997 119.4369988  58.5279951 112.3669270 119.7052576
  63.1170012 111.4244997 121.2469988  63.8840012 110.9654997 121.5879988
  63.0950012 111.1984997 120.3179988  63.2191275 111.3310186 121.1680101
  69.6940012 109.8044997 119.9769988  69.3430012 108.9484997 120.2199988
  70.4200012 109.9474997 120.5839988  69.7440769 109.7065636 120.0923619
  58.4260012 106.3154997 120.5809988  58.5700012 105.4134997 120.2949988
  57.6540012 106.6014997 120.0939988  58.3412753 106.2306816 120.4759505
  65.0820012 106.2854997 120.0139988  64.7530012 106.5564997 119.1569988
  65.2340012 105.3444997 119.9269988  65.0574809 106.1953862 119.8848244
  70.8160012 106.2014997 117.3969988  71.5620012 106.7894997 117.2779988
  70.0590012 106.7834997 117.4609988  70.8157820 106.3607143 117.3893590
  59.2590012 103.5154997 120.0009988  59.6670012 102.6584997 119.8799988
  58.9990012 103.5304997 120.9219988  59.2797568 103.4000807 120.1089588
  63.9170012 104.6314997 105.0199988  63.4570012 104.1474997 105.7059988
  64.1720012 103.9634997 104.3839988  63.8884902 104.4748731 105.0279334
  63.2060012 102.5244997 117.3759988  62.5880012 103.1994997 117.6559988
  63.5500012 102.8454997 116.5419988  63.1679132 102.6602411 117.3016262
  68.2260012 104.9964997 120.6529988  69.1790012 105.0794997 120.6259988
  68.0650012 104.2844997 121.2729988  68.3346426 104.9116746 120.7330579
  63.5450012  99.8794997 118.4579988  63.6950012  99.1504997 117.8559988
  63.5480012 100.6564997 117.8989988  63.5659302  99.8847851 118.3000692
  63.9580012  98.2494997 115.9509988  64.4940012  98.7004997 115.2989988
  63.1060012  98.1414997 115.5279988  63.9162178  98.2966390 115.8045756
  65.5400012 103.6884997 116.1899988  66.2900012 103.5324997 115.6169988
  65.2010012 104.5404997 115.9149988  65.5968921 103.7822968 116.0743561
  69.9550012 101.5034997 121.2189988  70.1480012 100.5724997 121.1069988
  70.8130012 101.9284997 121.2079988  70.0972934 101.4336531 121.2022031
  71.2720012 104.2924997 119.2959988  70.9910012 105.0014997 118.7179988
  72.2150012 104.2194997 119.1449988  71.3609291 104.3796711 119.1964967
  62.0240012 101.0774997 120.3699988  61.2570012 100.5454997 120.1589988
  62.7030012 100.7674997 119.7699988  62.0107877 100.9628300 120.2600716
  64.7640012  95.7054997 116.3819988  64.6650012  96.6524997 116.2769988
  64.0210012  95.3334997 115.9059988  64.6501184  95.7845863 116.3033621
  66.0280012 100.0274997 119.9459988  65.7920012  99.8074997 120.8469988
  65.2440012  99.8204997 119.4359988  65.8898504  99.9694586 120.0003431
  68.7430012  99.1544997 119.0209988  67.7960012  99.1864997 119.1539988
  69.0560012  98.5294997 119.6749988  68.6556707  99.0743998 119.1276060
  70.3770012  97.7884997 121.0269988  70.2810012  96.8364997 121.0209988
  70.0560012  98.0574997 121.8869988  70.3204070  97.6944035 121.1425441
  60.2040012  98.9984997 120.0739988  60.4160012  98.2914997 119.4639988
  60.0930012  98.5604997 120.9179988  60.2179721  98.8427084 120.1046843
  64.9850012  94.9994997 119.0529988  65.6970012  94.3594997 119.0389988
  64.8840012  95.2664997 118.1399988  65.0688066  94.9480079 118.9275677
  65.3390012  96.6824997 121.1069988  65.2070012  96.2064997 120.2869988
  64.7400012  97.4264997 121.0519988  65.2399071  96.7179618 120.9872886
  57.1030012 113.5944997 108.8439988  56.4560012 113.1324997 108.3109988
  57.4570012 112.9224997 109.4259988  57.0623849 113.4404723 108.8497959
  57.9730012 111.6754997 110.6479988  57.6380012 110.7954997 110.8199988
  58.1950012 112.0204997 111.5129988  57.9571783 111.6017500 110.7884208
  75.5210012 112.4844997 113.6289988  75.5000012 112.6694997 114.5679988
  76.2120012 113.0534997 113.2879988  75.6114618 112.5866606 113.7113864
  75.0850012 112.0524997 116.5509988  74.5970012 111.3164997 116.1789988
  75.6340012 111.6584997 117.2289988  75.0924820 111.8985889 116.5917813
  73.5350012 107.8414997 121.1889988  72.6690012 107.7364997 121.5829988
  73.9120012 108.6004997 121.6349988  73.4673308 107.9296900 121.3032393
  74.8360012 106.0984997 106.7029988  75.6860012 106.5194997 106.8299988
  74.8420012 105.3584997 107.3099988  74.9531372 106.0560803 106.8024344
  75.2310012 104.1514997 108.5259988  74.5040012 103.6724997 108.9239988
  75.8120012 104.3574997 109.2589988  75.2100473 104.1138103 108.6794528
  74.9900012 106.9364997 113.4739988  75.8230012 106.5584997 113.1939988
  75.1020012 107.8794997 113.3549988  75.1192647 107.0122218 113.4195487
  73.4760012 109.8144997 115.7809988  72.8290012 110.1394997 116.4069988
  72.9590012 109.3744997 115.1069988  73.3174029 109.7995004 115.7755827
  75.4990012 104.0524997 104.9179988  74.9770012 104.4094997 104.1989988
  75.4660012 104.7274997 105.5959988  75.4231634 104.1925413 104.9113145
  73.8480012 101.2924997 103.4679988  73.9440012 101.9594997 102.7879988
  73.7080012 100.4764997 102.9869988  73.8422272 101.2735655 103.3098347
  73.0170012 102.6724997 109.0889988  72.8670012 101.7274997 109.0689988
  72.6640012 102.9534997 109.9329988  72.9487448 102.5811481 109.2003705
  58.0530012 104.7504997 113.0999988  58.2370012 104.6684997 112.1639988
  58.9020012 104.6264997 113.5229988  58.1930151 104.7225073 113.0291451
  73.8740012 104.6424997 118.7279988  74.4570012 103.9084997 118.9199988
  74.4380012 105.4144997 118.7749988  74.0299769 104.6464227 118.7606159
  75.3700012 102.5454997 119.4129988  74.5070012 102.1664997 119.2469988
  75.9750012 101.8064997 119.3379988  75.3336119 102.3938268 119.3801528
  72.7280012 100.2554997 107.5519988  73.0080012  99.3484997 107.6759988
  73.4870012 100.6894997 107.1629988  72.8689277 100.1900942 107.5163682
  73.3400012 100.8364997 112.9879988  74.2730012 101.0484997 112.9529988
  73.1050012 100.9384997 113.9099988  73.4359244 100.8793100 113.1078892
  73.3690012 101.5734997 115.7639988  72.5260012 101.8414997 116.1299988
  73.8110012 102.3954997 115.5529988  73.3134158 101.7213291 115.7855491
  57.6500012 100.0214997 119.2409988  58.5700012  99.8994997 119.4769988
  57.2010012  99.2714997 119.6299988  57.7151580  99.9033727 119.3259006
  75.6520012  95.5534997 121.1169988  76.0020012  94.8994997 120.5119988
  75.7990012  96.3904997 120.6769988  75.7197887  95.5771548 120.9746858
  73.3410012  97.5184997 107.5999988  73.5240012  97.0694997 108.4259988
  72.7420012  96.9334997 107.1369988  73.2850202  97.3779975 107.6503275
  58.8710012  98.3334997 112.1319988  59.3170012  97.5414997 112.4339988
  59.3380012  99.0494997 112.5619988  58.9950831  98.3220685 112.2314006
  57.1750012 101.3324997 113.2009988  57.6670012 101.1114997 112.4099988
  57.5380012 102.1734997 113.4819988  57.2913126 101.4158357 113.1307531
  75.1720012  97.6624997 119.4659988  74.2540012  97.9334997 119.4309988
  75.2950012  97.1274997 118.6819988  75.0629729  97.6272508 119.3551923
  57.4890012  97.5904997 107.2549988  56.5640012  97.7994997 107.1259988
  57.9430012  98.0744997 106.5649988  57.4237292  97.6845343 107.1440720
  72.2600012 112.5744997 109.2009988  72.9120012 112.2274997 108.5929988
  72.7700012 113.0634997 109.8469988  72.4182637 112.5930597 109.2050236
  57.4530012  96.3284997 115.5989988  56.7880012  96.0824997 116.2429988
  57.0100012  96.9504997 115.0219988  57.3021318  96.3789410 115.6090898
  59.6450012 109.5034997 119.7439988  58.8240012 109.6784997 119.2829988
  59.3920012 109.4304997 120.6639988  59.4985585 109.5175544 119.8053561
  62.5990012 110.4784997 116.0019988  62.1740012 111.2874997 115.7199988
  63.5030012 110.5634997 115.6999988  62.6629975 110.6009300 115.9224816
  66.9100012 111.8774997 118.9619988  67.0950012 111.5434997 119.8399988
  67.7560012 112.1864997 118.6399988  67.0497539 111.8736047 119.0385605
  69.2550012 113.1634997 118.2059988  69.9320012 112.5304997 117.9659988
  69.5770012 113.5644997 119.0129988  69.3911637 113.1311154 118.2822793
  74.1720012  95.7524997 117.2849988  73.3600012  96.0774997 116.8979988
  74.4050012  94.9924997 116.7519988  74.0922203  95.6942758 117.1598880
  60.0010012 113.7344997 116.0499988  59.2800012 114.1744997 115.5989988
  59.6350012 113.4834997 116.8979988  59.8529651 113.7607242 116.1029640
  62.4680012 113.3344997 115.0799988  61.6030012 113.4064997 115.4839988
  62.4130012 113.8814997 114.2959988  62.3422085 113.4182685 115.0293362
  67.1780012 113.2224997 114.2549988  66.7220012 113.7514997 113.6009988
  67.3410012 113.8254997 114.9799988  67.1376068 113.3764607 114.2634838
  69.5060012 112.1004997 115.1999988  68.6010012 112.2654997 114.9339988
  69.9350012 112.9534997 115.1349988  69.4401324 112.2384339 115.1547976
  72.1100012 113.6704997 115.4949988  71.9280012 114.5864997 115.2849988
  72.2870012 113.2604997 114.6489988  72.1090210 113.7404822 115.3517885
  59.4150012 112.3574997 112.9599988  59.3970012 111.9324997 113.8169988
  60.2200012 112.0394997 112.5509988  59.5213529 112.2563013 113.0220946
  61.5570012 111.0674997 111.6149988  61.3380012 110.1514997 111.7849988
  62.3810012 111.2074997 112.0809988  61.6384420 110.9610520 111.7012774
  64.0940012 111.5374997 112.4639988  64.3070012 110.6494997 112.1769988
  64.1580012 111.5034997 113.4179988  64.1318231 111.4113102 112.5537397
  67.6020012  97.2014997 111.6079988  66.9280012  96.5724997 111.8639988
  68.1660012  96.7174997 111.0049988  67.5859230  97.0498744 111.5615340
  72.7450012  95.3094997 111.7209988  73.3490012  95.8564997 111.2189988
  71.8750012  95.6284997 111.4799988  72.7101208  95.4275137 111.6196886
  74.4720012  96.4474997 110.0539988  75.0840012  95.9334997 109.5269988
  74.8540012  97.3254997 110.0769988  74.6073371  96.4957866 109.9850041
  59.9290012  95.8354997 109.4299988  59.1520012  95.6014997 108.9229988
  60.4590012  95.0384997 109.4389988  59.8942330  95.6956988 109.3617742
  58.7650012  95.6334997 105.2339988  59.2040012  96.2444997 104.6419988
  58.1320012  96.1714997 105.7079988  58.7394514  95.7899257 105.2170930
  64.5080012  95.7624997 109.2439988  65.3830012  96.1504997 109.2139988
  64.3720012  95.5474997 110.1659988  64.6093695  95.7865184 109.3646440
  70.0650012  95.7924997 110.8929988  70.1410012  95.8874997 109.9429988
  69.7900012  94.8844997 111.0219988  70.0382321  95.6827867 110.7805079
  71.4180012  95.8184997 106.5849988  70.7160012  96.4334997 106.3749988
  70.9740012  94.9804997 106.7159988  71.2616450  95.7895639 106.5739000
  58.6660012 111.5814997 106.1309988  57.9810012 111.5434997 105.4639988
  58.6700012 112.4944997 106.4199988  58.5726998 111.6996733 106.0786771
  65.6520012  97.8424997 106.1329988  65.8300012  97.1964997 106.8159988
  65.5990012  98.6764997 106.5999988  65.6691999  97.8668009 106.2895917
  74.2400012 112.3544997 107.2079988  74.0450012 111.6064997 106.6429988
  74.2010012 113.1124997 106.6249988  74.2080380 112.3546099 107.0518384
  59.8870012  96.3494997 118.9479988  59.5210012  95.5844997 119.3899988
  60.8000012  96.3784997 119.2339988  59.9602736  96.2485640 119.0472502
  61.8600012  95.7004997 120.4839988  62.7580012  95.4264997 120.2989988
  61.4730012  94.9574997 120.9479988  61.9306612  95.5625914 120.5213643
  60.4840012 112.5014997 103.1569988  60.2170012 112.7884997 104.0299988
  61.2560012 111.9554997 103.3089988  60.5517488 112.4670294 103.2971050
  70.2810012  95.0324997 120.6659988  70.3580012  94.6064997 121.5199988
  71.1750012  95.0464997 120.3229988  70.4123428  94.9760879 120.7365310
  73.4570012 111.1054997 119.3579988  72.6750012 110.9194997 118.8379988
  73.3850012 112.0344997 119.5759988  73.3402274 111.2056643 119.3163018
  87.8630012 104.9914997 109.3889988  87.9520012 105.9354997 109.2569988
  87.2250012 104.7164997 108.7309988  87.7889081 105.0834830 109.2819614
  86.7960012 104.2464997 112.8079988  86.7580012 103.6004997 113.5129988
  86.4740012 103.7804997 112.0369988  86.7472333 104.0949408 112.8002978
  79.1650012 103.8614997 114.4009988  79.2060012 103.2354997 115.1239988
  79.8680012 104.4854997 114.5829988  79.2656363 103.8601196 114.5246044
  90.5020012 107.1854997 111.1089988  90.0620012 106.4654997 111.5599988
  90.4890012 107.9064997 111.7389988  90.4400226 107.1843731 111.2558494
  80.0880012 108.3114997 112.9359988  79.7190012 107.5094997 112.5659988
  81.0290012 108.1424997 112.9819988  80.1647289 108.1790153 112.8916316
  76.6980012 101.9714997 108.3289988  76.2510012 102.8174997 108.3099988
  76.1370012 101.3914997 107.8129988  76.5609900 102.0089916 108.2566801
  77.4090012 104.1334997 110.4539988  77.6220012 103.3634997 110.9819988
  78.1470012 104.2224997 109.8509988  77.5379044 104.0401968 110.4447123
  87.6140012 112.2904997 111.3209988  88.2340012 111.6134997 111.0479988
  87.4060012 112.0724997 112.2299988  87.6706726 112.1684800 111.4064812
  85.1860012 106.6794997 113.2139988  85.4900012 105.9934997 112.6189988
  85.9070012 106.7974997 113.8319988  85.3250671 106.6016305 113.2161816
  93.8490012  98.2804997 114.0749988  93.8980012  98.8904997 114.8099988
  94.2740012  98.7414997 113.3519988  93.9131746  98.4263796 114.0779175
  88.3270012 101.0734997 113.5409988  88.4690012 100.1274997 113.5619988
  88.2200012 101.2804997 112.6129988  88.3319919 100.9718246 113.4183408
  81.4810012  99.1744997 110.8139988  81.5250012 100.0344997 110.3949988
  81.0240012  98.6224997 110.1799988  81.4252240  99.2174422 110.6709864
  89.2040012  99.3054997 109.2149988  89.8500012  98.9764997 109.8389988
  89.7140012  99.8234997 108.5919988  89.3614299  99.3304450 109.2162731
  78.1020012 101.5714997 111.5759988  78.7550012 101.0214997 112.0079988
  78.1260012 101.2974997 110.6589988  78.1946683 101.4591466 111.5112123
  83.2580012 103.1214997 110.7909988  83.8740012 102.5954997 111.3009988
  82.6720012 102.4814997 110.3879988  83.2630810 102.9629208 110.8063173
  94.2400012  99.7584997 116.3099988  93.5520012 100.4164997 116.2149988
  94.2560012  99.5614997 117.2469988  94.1479540  99.8219819 116.4235990
  80.2920012  98.0924997 114.8879988  80.0730012  98.6224997 114.1219988
  79.6240012  98.3194997 115.5349988  80.1717600  98.1956906 114.8706379
  87.6610012 107.5924997 108.4319988  87.3650012 107.2704997 107.5809988
  87.3360012 108.4924997 108.4729988  87.5766371 107.6700215 108.3211801
  82.8610012 105.7684997 115.1749988  82.1210012 106.3664997 115.2789988
  83.5750012 106.3224997 114.8599988  82.8562237 105.9252831 115.1466465
  90.9680012  98.5964997 111.1949988  90.7520012  97.8304997 111.7279988
  91.6230012  99.0684997 111.7079988  91.0270632  98.5555889 111.3372861
  79.8850012  99.9844997 112.8399988  80.4990012 100.6174997 113.2129988
  80.3970012  99.5124997 112.1839988  80.0381981 100.0072267 112.8022908
  81.2680012 107.7324997 115.9619988  81.2630012 108.6124997 115.5839988
  80.4150012 107.6494997 116.3869988  81.1519464 107.8416117 115.9677907
  77.3890012 107.4034997 106.7439988  77.1170012 107.6324997 105.8559988
  77.4350012 108.2414997 107.2049988  77.3579482 107.5481318 106.6846273
  91.0140012 109.0254997 113.4569988  90.0730012 109.0834997 113.6189988
  91.2910012 109.9314997 113.3199988  90.9224679 109.1559443 113.4606815
  91.3150012  97.3114997 114.8749988  90.5790012  97.9224997 114.8369988
  91.9980012  97.7264997 114.3479988  91.3066541  97.4511374 114.7985832
  84.3180012  95.3984997 112.3399988  84.2010012  94.4494997 112.2859988
  83.4630012  95.7304997 112.6139988  84.1864212  95.3135571 112.3696497
  89.2660012 110.8064997 110.0819988  89.6920012 110.0994997 109.5969988
  89.5830012 111.6074997 109.6659988  89.3671683 110.8181017 109.9593680
  90.4260012 108.7074997 108.5909988  90.1680012 108.0174997 107.9799988
  90.4970012 108.2644997 109.4369988  90.4002856 108.5532124 108.6216885
  92.1120012 107.2734997 117.0679988  92.2520012 106.6824997 116.3289988
  92.2790012 108.1464997 116.7119988  92.1537411 107.3105428 116.9186894
  86.5850012 104.2354997 106.8409988  85.8730012 104.7704997 106.4889988
  87.2760012 104.2914997 106.1809988  86.5810132 104.3162543 106.7036289
  86.6380012 102.6934997 103.8799988  87.3390012 102.7154997 104.5309988
  86.9410012 102.0654997 103.2229988  86.7748133 102.6117070 103.8803369
  93.9540012 103.6134997 115.1339988  93.3010012 104.3084997 115.2239988
  94.4190012 103.8234997 114.3249988  93.9275274 103.7370643 115.0368462
  89.9900012 104.4454997 107.7929988  89.2580012 104.6734997 108.3659988
  90.4380012 103.7314997 108.2469988  89.9502725 104.3802145 107.9328816
  89.8880012 102.6194997 116.8599988  89.9680012 103.3824997 117.4319988
  89.2860012 102.8984997 116.1699988  89.8175756 102.7617134 116.8450589
  81.6360012 105.0754997 109.6749988  81.3050012 104.7054997 108.8569988
  82.2240012 104.4054997 110.0219988  81.6701873 104.9341156 109.6098102
  83.0020012 108.5034997 112.3559988  82.9080012 107.9254997 111.5999988
  83.7320012 108.1324997 112.8529988  83.0877387 108.3741663 112.3195342
  82.0020012 103.8444997 113.3089988  82.5680012 103.9654997 112.5459988
  82.3210012 104.4814997 113.9469988  82.1225474 103.9472219 113.2909862
  88.3110012 109.3474997 114.0429988  88.0710012 110.0094997 114.6909988
  88.1130012 108.5134997 114.4679988  88.2513808 109.3253134 114.1891524
  82.8820012 108.2434997 118.0259988  82.5710012 109.0254997 118.4809988
  82.2320012 108.0904997 117.3399988  82.7515558 108.3299105 117.9955871
  88.8610012 103.6074997 105.4779988  89.4410012 103.7574997 106.2249988
  89.2750012 104.0784997 104.7539988  88.9962997 103.6916578 105.4824058
  79.8020012 104.4414997 117.2539988  79.8730012 105.0924997 117.9529988
  78.9120012 104.5444997 116.9189988  79.6913005 104.5445427 117.3043495
  86.5880012 110.3444997 108.9129988  87.0620012 110.6394997 109.6899988
  86.0250012 111.0824997 108.6799988  86.5768184 110.4847247 108.9879628
  81.1220012 110.3154997 118.7889988  81.1290012 110.1794997 117.8419988
  80.2060012 110.1974997 119.0409988  80.9991714 110.2809430 118.6934666
  80.6260012 104.1454997 107.2639988  80.3340012 104.9134997 106.7739988
  79.9520012 103.4854997 107.1019988  80.4948111 104.1615587 107.1748978
  76.7190012 106.5084997 116.0789988  76.2180012 106.4804997 115.2639988
  76.7240012 105.6024997 116.3889988  76.6510944 106.3822396 116.0093226
  76.4690012 109.2884997 112.9629988  77.4150012 109.1444997 112.9439988
  76.3570012 110.0724997 113.4999988  76.5832727 109.3748046 113.0330072
  94.6670012 109.9544997 118.6459988  94.6180012 108.9994997 118.6089988
  93.8400012 110.2224997 119.0469988  94.5484940 109.8598998 118.6951375
  85.6460012 109.5284997 117.5219988  85.7330012 110.3544997 117.9969988
  84.7820012 109.1984997 117.7709988  85.5411964 109.5969878 117.6206549
  86.0600012 113.3004997 107.3279988  85.9850012 113.1794997 106.3809988
  86.0930012 114.2504997 107.4459988  86.0542068 113.4122646 107.2144967
  79.7130012 112.0894997 109.1089988  79.8660012 111.7414997 109.9869988
  78.8630012 111.7334997 108.8539988  79.6189166 111.9936217 109.1948079
  88.8310012 112.3804997 107.0789988  87.8950012 112.4804997 107.2579988
  89.1110012 111.6714997 107.6579988  88.7409553 112.2983406 107.1817087
  91.8190012 101.4474997 119.1259988  91.4120012 101.9284997 118.4049988
  91.8600012 100.5424997 118.8179988  91.7688437 101.3909374 118.9856683
  78.9680012 107.8314997 117.1229988  79.1840012 107.4704997 117.9819988
  78.1130012 107.4574997 116.9129988  78.8819292 107.7314111 117.2123386
  81.5870012  96.3014997 113.1179988  80.7250012  96.2144997 112.7099988
  81.5640012  97.1574997 113.5459988  81.4660409  96.4052883 113.1200589
  86.2500012  96.0234997 116.4929988  86.6700012  95.6084997 117.2459988
  85.3170012  95.8454997 116.6099988  86.1813644  95.9425900 116.6119539
  89.5760012  99.7794997 117.3459988  89.0620012  99.6534997 118.1439988
  89.4210012 100.6914997 117.1019988  89.4846852  99.8856132 117.4222158
  90.3390012 104.6404997 103.1079988  90.3810012 104.4174997 102.1779988
  91.1880012 105.0394997 103.2969988  90.4595280 104.6639438 103.0063554
  85.9110012  98.5164997 103.7779988  85.6580012  98.5354997 104.7009988
  85.6550012  97.6444997 103.4759988  85.8417481  98.4012558 103.8636175
  81.6780012 101.2674997 114.2129988  81.0360012 101.2264997 114.9219988
  81.7150012 102.1934997 113.9749988  81.5950664 101.3871430 114.2779219
  81.6750012 101.4884997 109.1249988  80.7820012 101.1474997 109.0659988
  82.1250012 101.1114997 108.3689988  81.6138130 101.3909631 109.0147702
  87.2100012 101.9044997 107.9419988  86.8010012 102.7194997 107.6509988
  87.9310012 101.7644997 107.3279988  87.2514537 101.9972018 107.8191342
  86.3120012 102.0794997 119.4299988  85.7500012 101.3754997 119.7509988
  87.1390012 101.9594997 119.8979988  86.3467095 101.9667883 119.5372330
  88.2150012 101.3504997 110.7559988  88.0200012 101.9554997 110.0409988
  88.3960012 100.5164997 110.3219988  88.2127614 101.3206300 110.5994405
  79.4280012 101.5874997 116.0799988  79.3900012 101.9874997 116.9489988
  78.9370012 100.7704997 116.1709988  79.3564684 101.5318069 116.2111059
  76.0360012  98.7034997 109.9309988  76.6670012  98.6744997 110.6499988
  76.4850012  98.2784997 109.1999988  76.1830918  98.6420836 109.9306441
  87.4790012 102.9884997 115.4269988  87.8020012 102.3574997 114.7839988
  87.0390012 102.4534997 116.0879988  87.4637484 102.8298387 115.4283198
  84.2560012  98.9154997 110.2109988  83.3450012  98.9724997 110.4999988
  84.7620012  98.8554997 111.0219988  84.1996899  98.9151941 110.3601184
  79.0850012 100.5444997 109.0379988  78.1950012 100.6444997 108.6979988
  79.3810012  99.7024997 108.6919988  79.0032823 100.4443545 108.9447213
  82.7380012 100.5444997 106.6949988  83.6690012 100.6734997 106.8729988
  82.5230012 101.2144997 106.0449988  82.8364247 100.6526565 106.6315747
  88.6610012  98.1504997 113.4759988  87.9850012  98.2814997 114.1399988
  88.1760012  97.9954997 112.6649988  88.5027146  98.1475157 113.4574469
  91.9490012 113.8224997 119.7519988  92.1490012 114.2464997 118.9179988
  92.6040012 114.1654997 120.3589988  92.0650072 113.9269857 119.7198592
  79.5470012 106.2964997 119.3599988  80.2790012 106.5504997 119.9219988
  78.7670012 106.5004997 119.8759988  79.5417073 106.3588160 119.5066151
  85.5760012 101.7034997 112.0979988  86.1410012 101.1564997 111.5509988
  85.4290012 101.1814997 112.8869988  85.6333380 101.5582259 112.1298695
  80.5780012  97.8394997 108.5169988  80.2610012  96.9374997 108.4809988
  81.3600012  97.8414997 107.9639988  80.6402408  97.7162474 108.4373569
  84.2030012 100.0914997 114.5119988  83.3670012 100.5454997 114.6229988
  84.7270012 100.3674997 115.2639988  84.1595416 100.1908660 114.6288119
  84.7470012 106.3044997 106.1969988  84.0020012 105.7974997 105.8749988
  84.6130012 106.3534997 107.1439988  84.6268776 106.2416940 106.2808647
  91.8970012 105.4374997 114.9839988  92.5390012 105.8944997 114.4399988
  91.0670012 105.5504997 114.5209988  91.8725963 105.5152704 114.8470177
  86.2660012 106.4884997 117.4339988  85.9210012 106.1074997 118.2409988
  86.0660012 107.4224997 117.5049988  86.1917527 106.5625135 117.5540689
  79.8720012 105.5994997 111.9669988  80.6170012 105.5974997 111.3659988
  79.9500012 104.7764997 112.4479988  79.9844995 105.4878887 111.9498282
  86.8730012 107.7634997 105.2229988  86.5770012 108.5894997 105.6039988
  86.1700012 107.1434997 105.4189988  86.7374914 107.7928199 105.3016443
  76.8800012 104.0604997 117.2819988  77.1030012 103.6424997 118.1139988
  76.2780012 103.4474997 116.8589988  76.8291759 103.9204668 117.3387022
  83.8960012 103.5774997 119.4949988  83.6000012 103.4114997 118.5999988
  84.8280012 103.3574997 119.4839988  83.9814166 103.5250640 119.3710536
  88.5170012 108.9504997 117.3849988  87.6160012 109.1334997 117.1169988
  88.5510012 109.2094997 118.3049988  88.3983139 109.0105849 117.4728099
  94.2480012 101.1954997 105.7519988  93.6940012 100.7994997 105.0799988
  94.3480012 102.1054997 105.4739988  94.1857059 101.2643586 105.6224401
  94.2110012 106.9954997 118.5889988  93.3600012 107.2334997 118.2219988
  94.8020012 106.9784997 117.8359988  94.1742487 107.0258258 118.4368893
  92.5430012 109.9814997 106.2169988  92.1700012 109.1554997 106.5259988
  92.8210012 109.7984997 105.3189988  92.5295222 109.8437430 106.1379473
  89.7040012 104.7894997 113.2379988  88.7750012 104.5574997 113.2109988
  90.1550012 104.0124997 112.9079988  89.6379216 104.6527238 113.1896917
  82.2470012 109.1174997 109.3709988  82.7740012 109.8904997 109.1709988
  81.3670012 109.3424997 109.0689988  82.2002031 109.2537545 109.3027912
  78.0020012 103.9794997 103.9579988  78.6180012 104.6064997 104.3379988
  77.1400012 104.2954997 104.2299988  77.9697698 104.1079430 104.0467183
  83.6740012 106.7804997 108.9469988  83.4330012 107.7054997 108.9889988
  82.9330012 106.3214997 109.3439988  83.5409225 106.8450933 109.0063742
  84.1890012 110.9294997 115.2629988  84.5510012 111.7844997 115.0289988
  84.7200012 110.6374997 116.0029988  84.3104473 111.0071060 115.3310855
  82.3570012 111.8024997 108.4929988  81.4070012 111.9074997 108.5439988
  82.7090012 112.6224997 108.8369988  82.2744195 111.9278800 108.5465502
  87.7330012 107.0284997 114.9629988  87.3070012 106.8014997 115.7899988
  88.3130012 106.2904997 114.7809988  87.7531868 106.8975299 115.0515830
  90.3910012 111.5804997 117.4329988  89.7900012 111.0254997 116.9369988
  90.6730012 112.2474997 116.8059988  90.3468804 111.5946625 117.2804849
  94.4390012 112.4374997 104.2379988  95.1830012 113.0234997 104.0979988
  93.7450012 113.0054997 104.5709988  94.4469899 112.5945798 104.2638778
  78.5140012  98.8134997 116.8399988  77.6210012  99.1524997 116.7719988
  78.4150012  97.9584997 117.2579988  78.3784164  98.7442588 116.8872235
  90.8020012 106.6304997 106.2639988  90.5240012 105.9024997 106.8199988
  91.7290012 106.7494997 106.4689988  90.8893124 106.5468802 106.3678845
  78.1650012 110.6184997 115.2749988  78.3820012 109.6864997 115.2439988
  78.4110012 110.8924997 116.1579988  78.2279549 110.5280636 115.3901763
  82.9640012 108.6394997 104.9399988  83.1100012 108.1194997 105.7299988
  82.9610012 109.5464997 105.2469988  82.9835792 108.6908842 105.0896117
  79.4170012 105.8924997 105.4509988  78.7310012 106.2444997 106.0179988
  79.9390012 106.6554997 105.2039988  79.3936852 106.0438578 105.4952118
  87.2480012  98.5544997 115.7299988  87.9470012  98.6284997 116.3799988
  86.8670012  97.6904997 115.8839988  87.2921767  98.4477624 115.8398322
  88.0330012  98.2064997 106.8269988  88.2530012  98.6784997 106.0239988
  88.5910012  98.6014997 107.4969988  88.1384968  98.3244285 106.8077331
  85.7010012 110.3374997 105.6899988  84.8850012 110.8344997 105.7419988
  86.2310012 110.8124997 105.0499988  85.6609161 110.4697722 105.6105956
  85.2330012  99.9344997 107.6619988  86.0450012 100.4394997 107.7079988
  84.9880012  99.7894997 108.5759988  85.3110520  99.9840375 107.7918517
  85.7680012 100.9204997 116.8459988  85.8870012 101.4944997 117.6039988
  86.4240012 100.2324997 116.9609988  85.8729025 100.9059858 116.9651321
  86.1160012  97.0154997 108.5999988  85.7700012  97.6334997 109.2439988
  86.7750012  97.5164997 108.1179988  86.1576968  97.1676278 108.6229383
  83.0400012 111.3814997 105.6709988  83.2000012 112.1804997 105.1709988
  82.8420012 111.6874997 106.5559988  83.0351637 111.5324020 105.7221144
  91.9730012  98.8274997 117.6809988  91.0560012  99.0904997 117.5939988
  92.3080012  98.8244997 116.7849988  91.8928613  98.8630761 117.5478837
  90.5750012 102.5784997 111.7769988  89.7770012 102.1634997 111.4489988
  91.0200012 101.8874997 112.2679988  90.5259885 102.4283543 111.7984889
  80.0330012 108.5064997 104.3479988  80.6250012 109.2054997 104.6239988
  80.4920012 108.0734997 103.6279988  80.1761142 108.5437049 104.2884830
  78.3490012 101.1704997 103.4639988  78.3040012 102.1094997 103.6419988
  77.4610012 100.9344997 103.1939988  78.2228574 101.2671892 103.4518912
  91.6610012 111.8344997 113.3999988  91.5060012 112.5124997 112.7419988
  92.5940012 111.9064997 113.6029988  91.7658657 111.9369546 113.3374360
  79.1570012  95.9524997 112.1369988  78.9280012  96.0114997 111.2089988
  78.7140012  95.1604997 112.4429988  79.0658530  95.8535753 112.0514786
  78.0870012 109.8924997 108.2969988  77.2550012 110.3654997 108.3239988
  78.6330012 110.4024997 107.6989988  78.0470352 110.0261332 108.2198463
  77.3750012 112.5054997 119.6269988  77.9160012 112.2884997 120.3869988
  76.8940012 111.6994997 119.4369988  77.3839951 112.3669270 119.7052576
  81.9730012 111.4244997 121.2469988  82.7400012 110.9654997 121.5879988
  81.9510012 111.1984997 120.3179988  82.0751275 111.3310186 121.1680101
  88.5500012 109.8044997 119.9769988  88.1990012 108.9484997 120.2199988
  89.2760012 109.9474997 120.5839988  88.6000769 109.7065636 120.0923619
  77.2820012 106.3154997 120.5809988  77.4260012 105.4134997 120.2949988
  76.5100012 106.6014997 120.0939988  77.1972753 106.2306816 120.4759505
  83.9380012 106.2854997 120.0139988  83.6090012 106.5564997 119.1569988
  84.0900012 105.3444997 119.9269988  83.9134809 106.1953862 119.8848244
  89.6720012 106.2014997 117.3969988  90.4180012 106.7894997 117.2779988
  88.9150012 106.7834997 117.4609988  89.6717820 106.3607143 117.3893590
  78.1150012 103.5154997 120.0009988  78.5230012 102.6584997 119.8799988
  77.8550012 103.5304997 120.9219988  78.1357568 103.4000807 120.1089588
  82.0620012 102.5244997 117.3759988  81.4440012 103.1994997 117.6559988
  82.4060012 102.8454997 116.5419988  82.0239132 102.6602411 117.3016262
  87.0820012 104.9964997 120.6529988  88.0350012 105.0794997 120.6259988
  86.9210012 104.2844997 121.2729988  87.1906426 104.9116746 120.7330579
  82.4010012  99.8794997 118.4579988  82.5510012  99.1504997 117.8559988
  82.4040012 100.6564997 117.8989988  82.4219302  99.8847851 118.3000692
  82.8140012  98.2494997 115.9509988  83.3500012  98.7004997 115.2989988
  81.9620012  98.1414997 115.5279988  82.7722178  98.2966390 115.8045756
  84.3960012 103.6884997 116.1899988  85.1460012 103.5324997 115.6169988
  84.0570012 104.5404997 115.9149988  84.4528921 103.7822968 116.0743561
  88.8110012 101.5034997 121.2189988  89.0040012 100.5724997 121.1069988
  89.6690012 101.9284997 121.2079988  88.9532934 101.4336531 121.2022031
  90.1280012 104.2924997 119.2959988  89.8470012 105.0014997 118.7179988
  91.0710012 104.2194997 119.1449988  90.2169291 104.3796711 119.1964967
  80.8800012 101.0774997 120.3699988  80.1130012 100.5454997 120.1589988
  81.5590012 100.7674997 119.7699988  80.8667877 100.9628300 120.2600716
  83.6200012  95.7054997 116.3819988  83.5210012  96.6524997 116.2769988
  82.8770012  95.3334997 115.9059988  83.5061184  95.7845863 116.3033621
  84.8840012 100.0274997 119.9459988  84.6480012  99.8074997 120.8469988
  84.1000012  99.8204997 119.4359988  84.7458504  99.9694586 120.0003431
  87.5990012  99.1544997 119.0209988  86.6520012  99.1864997 119.1539988
  87.9120012  98.5294997 119.6749988  87.5116707  99.0743998 119.1276060
  89.2330012  97.7884997 121.0269988  89.1370012  96.8364997 121.0209988
  88.9120012  98.0574997 121.8869988  89.1764070  97.6944035 121.1425441
  79.0600012  98.9984997 120.0739988  79.2720012  98.2914997 119.4639988
  78.9490012  98.5604997 120.9179988  79.0739721  98.8427084 120.1046843
  83.8410012  94.9994997 119.0529988  84.5530012  94.3594997 119.0389988
  83.7400012  95.2664997 118.1399988  83.9248066  94.9480079 118.9275677
  84.1950012  96.6824997 121.1069988  84.0630012  96.2064997 120.2869988
  83.5960012  97.4264997 121.0519988  84.0959071  96.7179618 120.9872886
  75.9590012 113.5944997 108.8439988  75.3120012 113.1324997 108.3109988
  76.3130012 112.9224997 109.4259988  75.9183849 113.4404723 108.8497959
  76.8290012 111.6754997 110.6479988  76.4940012 110.7954997 110.8199988
  77.0510012 112.0204997 111.5129988  76.8131783 111.6017500 110.7884208
  94.3770012 112.4844997 113.6289988  94.3560012 112.6694997 114.5679988
  95.0680012 113.0534997 113.2879988  94.4674618 112.5866606 113.7113864
  93.9410012 112.0524997 116.5509988  93.4530012 111.3164997 116.1789988
  94.4900012 111.6584997 117.2289988  93.9484820 111.8985889 116.5917813
  92.3910012 107.8414997 121.1889988  91.5250012 107.7364997 121.5829988
  92.7680012 108.6004997 121.6349988  92.3233308 107.9296900 121.3032393
  93.6920012 106.0984997 106.7029988  94.5420012 106.5194997 106.8299988
  93.6980012 105.3584997 107.3099988  93.8091372 106.0560803 106.8024344
  94.0870012 104.1514997 108.5259988  93.3600012 103.6724997 108.9239988
  94.6680012 104.3574997 109.2589988  94.0660473 104.1138103 108.6794528
  93.8460012 106.9364997 113.4739988  94.6790012 106.5584997 113.1939988
  93.9580012 107.8794997 113.3549988  93.9752647 107.0122218 113.4195487
  92.3320012 109.8144997 115.7809988  91.6850012 110.1394997 116.4069988
  91.8150012 109.3744997 115.1069988  92.1734029 109.7995004 115.7755827
  94.3550012 104.0524997 104.9179988  93.8330012 104.4094997 104.1989988
  94.3220012 104.7274997 105.5959988  94.2791634 104.1925413 104.9113145
  91.8730012 102.6724997 109.0889988  91.7230012 101.7274997 109.0689988
  91.5200012 102.9534997 109.9329988  91.8047448 102.5811481 109.2003705
  76.9090012 104.7504997 113.0999988  77.0930012 104.6684997 112.1639988
  77.7580012 104.6264997 113.5229988  77.0490151 104.7225073 113.0291451
  92.7300012 104.6424997 118.7279988  93.3130012 103.9084997 118.9199988
  93.2940012 105.4144997 118.7749988  92.8859769 104.6464227 118.7606159
  94.2260012 102.5454997 119.4129988  93.3630012 102.1664997 119.2469988
  94.8310012 101.8064997 119.3379988  94.1896119 102.3938268 119.3801528
  91.5840012 100.2554997 107.5519988  91.8640012  99.3484997 107.6759988
  92.3430012 100.6894997 107.1629988  91.7249277 100.1900942 107.5163682
  92.1960012 100.8364997 112.9879988  93.1290012 101.0484997 112.9529988
  91.9610012 100.9384997 113.9099988  92.2919244 100.8793100 113.1078892
  92.2250012 101.5734997 115.7639988  91.3820012 101.8414997 116.1299988
  92.6670012 102.3954997 115.5529988  92.1694158 101.7213291 115.7855491
  76.5060012 100.0214997 119.2409988  77.4260012  99.8994997 119.4769988
  76.0570012  99.2714997 119.6299988  76.5711580  99.9033727 119.3259006
  94.5080012  95.5534997 121.1169988  94.8580012  94.8994997 120.5119988
  94.6550012  96.3904997 120.6769988  94.5757887  95.5771548 120.9746858
  92.1970012  97.5184997 107.5999988  92.3800012  97.0694997 108.4259988
  91.5980012  96.9334997 107.1369988  92.1410202  97.3779975 107.6503275
  77.7270012  98.3334997 112.1319988  78.1730012  97.5414997 112.4339988
  78.1940012  99.0494997 112.5619988  77.8510831  98.3220685 112.2314006
  76.0310012 101.3324997 113.2009988  76.5230012 101.1114997 112.4099988
  76.3940012 102.1734997 113.4819988  76.1473126 101.4158357 113.1307531
  94.0280012  97.6624997 119.4659988  93.1100012  97.9334997 119.4309988
  94.1510012  97.1274997 118.6819988  93.9189729  97.6272508 119.3551923
  94.0640012  97.5854997 104.1279988  94.4760012  96.8644997 103.6529988
  94.7460012  98.2554997 104.1869988  94.2125885  97.5772368 104.0708915
  76.3450012  97.5904997 107.2549988  75.4200012  97.7994997 107.1259988
  76.7990012  98.0744997 106.5649988  76.2797292  97.6845343 107.1440720
  91.1160012 112.5744997 109.2009988  91.7680012 112.2274997 108.5929988
  91.6260012 113.0634997 109.8469988  91.2742637 112.5930597 109.2050236
  76.3090012  96.3284997 115.5989988  75.6440012  96.0824997 116.2429988
  75.8660012  96.9504997 115.0219988  76.1581318  96.3789410 115.6090898
  78.5010012 109.5034997 119.7439988  77.6800012 109.6784997 119.2829988
  78.2480012 109.4304997 120.6639988  78.3545585 109.5175544 119.8053561
  81.4550012 110.4784997 116.0019988  81.0300012 111.2874997 115.7199988
  82.3590012 110.5634997 115.6999988  81.5189975 110.6009300 115.9224816
  85.7660012 111.8774997 118.9619988  85.9510012 111.5434997 119.8399988
  86.6120012 112.1864997 118.6399988  85.9057539 111.8736047 119.0385605
  88.1110012 113.1634997 118.2059988  88.7880012 112.5304997 117.9659988
  88.4330012 113.5644997 119.0129988  88.2471637 113.1311154 118.2822793
  93.0280012  95.7524997 117.2849988  92.2160012  96.0774997 116.8979988
  93.2610012  94.9924997 116.7519988  92.9482203  95.6942758 117.1598880
  78.8570012 113.7344997 116.0499988  78.1360012 114.1744997 115.5989988
  78.4910012 113.4834997 116.8979988  78.7089651 113.7607242 116.1029640
  81.3240012 113.3344997 115.0799988  80.4590012 113.4064997 115.4839988
  81.2690012 113.8814997 114.2959988  81.1982085 113.4182685 115.0293362
  86.0340012 113.2224997 114.2549988  85.5780012 113.7514997 113.6009988
  86.1970012 113.8254997 114.9799988  85.9936068 113.3764607 114.2634838
  88.3620012 112.1004997 115.1999988  87.4570012 112.2654997 114.9339988
  88.7910012 112.9534997 115.1349988  88.2961324 112.2384339 115.1547976
  90.9660012 113.6704997 115.4949988  90.7840012 114.5864997 115.2849988
  91.1430012 113.2604997 114.6489988  90.9650210 113.7404822 115.3517885
  78.2710012 112.3574997 112.9599988  78.2530012 111.9324997 113.8169988
  79.0760012 112.0394997 112.5509988  78.3773529 112.2563013 113.0220946
  80.4130012 111.0674997 111.6149988  80.1940012 110.1514997 111.7849988
  81.2370012 111.2074997 112.0809988  80.4944420 110.9610520 111.7012774
  82.9500012 111.5374997 112.4639988  83.1630012 110.6494997 112.1769988
  83.0140012 111.5034997 113.4179988  82.9878231 111.4113102 112.5537397
  86.4580012  97.2014997 111.6079988  85.7840012  96.5724997 111.8639988
  87.0220012  96.7174997 111.0049988  86.4419230  97.0498744 111.5615340
  91.6010012  95.3094997 111.7209988  92.2050012  95.8564997 111.2189988
  90.7310012  95.6284997 111.4799988  91.5661208  95.4275137 111.6196886
  93.3280012  96.4474997 110.0539988  93.9400012  95.9334997 109.5269988
  93.7100012  97.3254997 110.0769988  93.4633371  96.4957866 109.9850041
  78.7850012  95.8354997 109.4299988  78.0080012  95.6014997 108.9229988
  79.3150012  95.0384997 109.4389988  78.7502330  95.6956988 109.3617742
  83.3640012  95.7624997 109.2439988  84.2390012  96.1504997 109.2139988
  83.2280012  95.5474997 110.1659988  83.4653695  95.7865184 109.3646440
  88.9210012  95.7924997 110.8929988  88.9970012  95.8874997 109.9429988
  88.6460012  94.8844997 111.0219988  88.8942321  95.6827867 110.7805079
  90.2740012  95.8184997 106.5849988  89.5720012  96.4334997 106.3749988
  89.8300012  94.9804997 106.7159988  90.1176450  95.7895639 106.5739000
  77.5220012 111.5814997 106.1309988  76.8370012 111.5434997 105.4639988
  77.5260012 112.4944997 106.4199988  77.4286998 111.6996733 106.0786771
  84.5080012  97.8424997 106.1329988  84.6860012  97.1964997 106.8159988
  84.4550012  98.6764997 106.5999988  84.5251999  97.8668009 106.2895917
  86.3870012 112.7914997 104.5289988  87.2530012 113.1574997 104.3509988
  86.1400012 112.3514997 103.7149988  86.4722392 112.7821756 104.3946289
  93.0960012 112.3544997 107.2079988  92.9010012 111.6064997 106.6429988
  93.0570012 113.1124997 106.6249988  93.0640380 112.3546099 107.0518384
  78.7430012  96.3494997 118.9479988  78.3770012  95.5844997 119.3899988
  79.6560012  96.3784997 119.2339988  78.8162736  96.2485640 119.0472502
  80.7160012  95.7004997 120.4839988  81.6140012  95.4264997 120.2989988
  80.3290012  94.9574997 120.9479988  80.7866612  95.5625914 120.5213643
  79.3400012 112.5014997 103.1569988  79.0730012 112.7884997 104.0299988
  80.1120012 111.9554997 103.3089988  79.4077488 112.4670294 103.2971050
  89.1370012  95.0324997 120.6659988  89.2140012  94.6064997 121.5199988
  90.0310012  95.0464997 120.3229988  89.2683428  94.9760879 120.7365310
  92.3130012 111.1054997 119.3579988  91.5310012 110.9194997 118.8379988
  92.2410012 112.0344997 119.5759988  92.1962274 111.2056643 119.3163018
 106.7190012 104.9914997 109.3889988 106.8080012 105.9354997 109.2569988
 106.0810012 104.7164997 108.7309988 106.6449081 105.0834830 109.2819614
 105.6520012 104.2464997 112.8079988 105.6140012 103.6004997 113.5129988
 105.3300012 103.7804997 112.0369988 105.6032333 104.0949408 112.8002978
  98.0210012 103.8614997 114.4009988  98.0620012 103.2354997 115.1239988
  98.7240012 104.4854997 114.5829988  98.1216363 103.8601196 114.5246044
 109.3580012 107.1854997 111.1089988 108.9180012 106.4654997 111.5599988
 109.3450012 107.9064997 111.7389988 109.2960226 107.1843731 111.2558494
  98.9440012 108.3114997 112.9359988  98.5750012 107.5094997 112.5659988
  99.8850012 108.1424997 112.9819988  99.0207289 108.1790153 112.8916316
  95.5540012 101.9714997 108.3289988  95.1070012 102.8174997 108.3099988
  94.9930012 101.3914997 107.8129988  95.4169900 102.0089916 108.2566801
  96.2650012 104.1334997 110.4539988  96.4780012 103.3634997 110.9819988
  97.0030012 104.2224997 109.8509988  96.3939044 104.0401968 110.4447123
 106.4700012 112.2904997 111.3209988 107.0900012 111.6134997 111.0479988
 106.2620012 112.0724997 112.2299988 106.5266726 112.1684800 111.4064812
 104.0420012 106.6794997 113.2139988 104.3460012 105.9934997 112.6189988
 104.7630012 106.7974997 113.8319988 104.1810671 106.6016305 113.2161816
 112.7050012  98.2804997 114.0749988 112.7540012  98.8904997 114.8099988
 113.1300012  98.7414997 113.3519988 112.7691746  98.4263796 114.0779175
 107.1830012 101.0734997 113.5409988 107.3250012 100.1274997 113.5619988
 107.0760012 101.2804997 112.6129988 107.1879919 100.9718246 113.4183408
 100.3370012  99.1744997 110.8139988 100.3810012 100.0344997 110.3949988
  99.8800012  98.6224997 110.1799988 100.2812240  99.2174422 110.6709864
 108.0600012  99.3054997 109.2149988 108.7060012  98.9764997 109.8389988
 108.5700012  99.8234997 108.5919988 108.2174299  99.3304450 109.2162731
  96.9580012 101.5714997 111.5759988  97.6110012 101.0214997 112.0079988
  96.9820012 101.2974997 110.6589988  97.0506683 101.4591466 111.5112123
 102.1140012 103.1214997 110.7909988 102.7300012 102.5954997 111.3009988
 101.5280012 102.4814997 110.3879988 102.1190810 102.9629208 110.8063173
 113.0960012  99.7584997 116.3099988 112.4080012 100.4164997 116.2149988
 113.1120012  99.5614997 117.2469988 113.0039540  99.8219819 116.4235990
  99.1480012  98.0924997 114.8879988  98.9290012  98.6224997 114.1219988
  98.4800012  98.3194997 115.5349988  99.0277600  98.1956906 114.8706379
 106.5170012 107.5924997 108.4319988 106.2210012 107.2704997 107.5809988
 106.1920012 108.4924997 108.4729988 106.4326371 107.6700215 108.3211801
 101.7170012 105.7684997 115.1749988 100.9770012 106.3664997 115.2789988
 102.4310012 106.3224997 114.8599988 101.7122237 105.9252831 115.1466465
 109.8240012  98.5964997 111.1949988 109.6080012  97.8304997 111.7279988
 110.4790012  99.0684997 111.7079988 109.8830632  98.5555889 111.3372861
  98.7410012  99.9844997 112.8399988  99.3550012 100.6174997 113.2129988
  99.2530012  99.5124997 112.1839988  98.8941981 100.0072267 112.8022908
 100.1240012 107.7324997 115.9619988 100.1190012 108.6124997 115.5839988
  99.2710012 107.6494997 116.3869988 100.0079464 107.8416117 115.9677907
  96.2450012 107.4034997 106.7439988  95.9730012 107.6324997 105.8559988
  96.2910012 108.2414997 107.2049988  96.2139482 107.5481318 106.6846273
 109.8700012 109.0254997 113.4569988 108.9290012 109.0834997 113.6189988
 110.1470012 109.9314997 113.3199988 109.7784679 109.1559443 113.4606815
 110.1710012  97.3114997 114.8749988 109.4350012  97.9224997 114.8369988
 110.8540012  97.7264997 114.3479988 110.1626541  97.4511374 114.7985832
 103.1740012  95.3984997 112.3399988 103.0570012  94.4494997 112.2859988
 102.3190012  95.7304997 112.6139988 103.0424212  95.3135571 112.3696497
 108.1220012 110.8064997 110.0819988 108.5480012 110.0994997 109.5969988
 108.4390012 111.6074997 109.6659988 108.2231683 110.8181017 109.9593680
 109.2820012 108.7074997 108.5909988 109.0240012 108.0174997 107.9799988
 109.3530012 108.2644997 109.4369988 109.2562856 108.5532124 108.6216885
 110.9680012 107.2734997 117.0679988 111.1080012 106.6824997 116.3289988
 111.1350012 108.1464997 116.7119988 111.0097411 107.3105428 116.9186894
 105.4410012 104.2354997 106.8409988 104.7290012 104.7704997 106.4889988
 106.1320012 104.2914997 106.1809988 105.4370132 104.3162543 106.7036289
 112.8100012 103.6134997 115.1339988 112.1570012 104.3084997 115.2239988
 113.2750012 103.8234997 114.3249988 112.7835274 103.7370643 115.0368462
 108.8460012 104.4454997 107.7929988 108.1140012 104.6734997 108.3659988
 109.2940012 103.7314997 108.2469988 108.8062725 104.3802145 107.9328816
 108.7440012 102.6194997 116.8599988 108.8240012 103.3824997 117.4319988
 108.1420012 102.8984997 116.1699988 108.6735756 102.7617134 116.8450589
 100.4920012 105.0754997 109.6749988 100.1610012 104.7054997 108.8569988
 101.0800012 104.4054997 110.0219988 100.5261873 104.9341156 109.6098102
 101.8580012 108.5034997 112.3559988 101.7640012 107.9254997 111.5999988
 102.5880012 108.1324997 112.8529988 101.9437387 108.3741663 112.3195342
 100.8580012 103.8444997 113.3089988 101.4240012 103.9654997 112.5459988
 101.1770012 104.4814997 113.9469988 100.9785474 103.9472219 113.2909862
 107.1670012 109.3474997 114.0429988 106.9270012 110.0094997 114.6909988
 106.9690012 108.5134997 114.4679988 107.1073808 109.3253134 114.1891524
 101.7380012 108.2434997 118.0259988 101.4270012 109.0254997 118.4809988
 101.0880012 108.0904997 117.3399988 101.6075558 108.3299105 117.9955871
  98.6580012 104.4414997 117.2539988  98.7290012 105.0924997 117.9529988
  97.7680012 104.5444997 116.9189988  98.5473005 104.5445427 117.3043495
 105.4440012 110.3444997 108.9129988 105.9180012 110.6394997 109.6899988
 104.8810012 111.0824997 108.6799988 105.4328184 110.4847247 108.9879628
  99.9780012 110.3154997 118.7889988  99.9850012 110.1794997 117.8419988
  99.0620012 110.1974997 119.0409988  99.8551714 110.2809430 118.6934666
  99.4820012 104.1454997 107.2639988  99.1900012 104.9134997 106.7739988
  98.8080012 103.4854997 107.1019988  99.3508111 104.1615587 107.1748978
 112.6050012 109.7234997 103.6669988 112.6790012 110.6624997 103.8379988
 113.5110012 109.4184997 103.6109988 112.7375100 109.8106722 103.6828119
  95.5750012 106.5084997 116.0789988  95.0740012 106.4804997 115.2639988
  95.5800012 105.6024997 116.3889988  95.5070944 106.3822396 116.0093226
  95.3250012 109.2884997 112.9629988  96.2710012 109.1444997 112.9439988
  95.2130012 110.0724997 113.4999988  95.4392727 109.3748046 113.0330072
 113.5230012 109.9544997 118.6459988 113.4740012 108.9994997 118.6089988
 112.6960012 110.2224997 119.0469988 113.4044940 109.8598998 118.6951375
 104.5020012 109.5284997 117.5219988 104.5890012 110.3544997 117.9969988
 103.6380012 109.1984997 117.7709988 104.3971964 109.5969878 117.6206549
 104.9160012 113.3004997 107.3279988 104.8410012 113.1794997 106.3809988
 104.9490012 114.2504997 107.4459988 104.9102068 113.4122646 107.2144967
  98.5690012 112.0894997 109.1089988  98.7220012 111.7414997 109.9869988
  97.7190012 111.7334997 108.8539988  98.4749166 111.9936217 109.1948079
 107.6870012 112.3804997 107.0789988 106.7510012 112.4804997 107.2579988
 107.9670012 111.6714997 107.6579988 107.5969553 112.2983406 107.1817087
 110.6750012 101.4474997 119.1259988 110.2680012 101.9284997 118.4049988
 110.7160012 100.5424997 118.8179988 110.6248437 101.3909374 118.9856683
  97.8240012 107.8314997 117.1229988  98.0400012 107.4704997 117.9819988
  96.9690012 107.4574997 116.9129988  97.7379292 107.7314111 117.2123386
 100.4430012  96.3014997 113.1179988  99.5810012  96.2144997 112.7099988
 100.4200012  97.1574997 113.5459988 100.3220409  96.4052883 113.1200589
 105.1060012  96.0234997 116.4929988 105.5260012  95.6084997 117.2459988
 104.1730012  95.8454997 116.6099988 105.0373644  95.9425900 116.6119539
 108.4320012  99.7794997 117.3459988 107.9180012  99.6534997 118.1439988
 108.2770012 100.6914997 117.1019988 108.3406852  99.8856132 117.4222158
 100.5340012 101.2674997 114.2129988  99.8920012 101.2264997 114.9219988
 100.5710012 102.1934997 113.9749988 100.4510664 101.3871430 114.2779219
 100.5310012 101.4884997 109.1249988  99.6380012 101.1474997 109.0659988
 100.9810012 101.1114997 108.3689988 100.4698130 101.3909631 109.0147702
 106.0660012 101.9044997 107.9419988 105.6570012 102.7194997 107.6509988
 106.7870012 101.7644997 107.3279988 106.1074537 101.9972018 107.8191342
 105.1680012 102.0794997 119.4299988 104.6060012 101.3754997 119.7509988
 105.9950012 101.9594997 119.8979988 105.2027095 101.9667883 119.5372330
 107.0710012 101.3504997 110.7559988 106.8760012 101.9554997 110.0409988
 107.2520012 100.5164997 110.3219988 107.0687614 101.3206300 110.5994405
  98.2840012 101.5874997 116.0799988  98.2460012 101.9874997 116.9489988
  97.7930012 100.7704997 116.1709988  98.2124684 101.5318069 116.2111059
  94.8920012  98.7034997 109.9309988  95.5230012  98.6744997 110.6499988
  95.3410012  98.2784997 109.1999988  95.0390918  98.6420836 109.9306441
  96.1660012  99.4494997 105.3549988  96.6400012 100.0404997 104.7699988
  95.4490012  99.9804997 105.7019988  96.1339341  99.6020867 105.3218836
 106.3350012 102.9884997 115.4269988 106.6580012 102.3574997 114.7839988
 105.8950012 102.4534997 116.0879988 106.3197484 102.8298387 115.4283198
 103.1120012  98.9154997 110.2109988 102.2010012  98.9724997 110.4999988
 103.6180012  98.8554997 111.0219988 103.0556899  98.9151941 110.3601184
  97.9410012 100.5444997 109.0379988  97.0510012 100.6444997 108.6979988
  98.2370012  99.7024997 108.6919988  97.8592823 100.4443545 108.9447213
 101.5940012 100.5444997 106.6949988 102.5250012 100.6734997 106.8729988
 101.3790012 101.2144997 106.0449988 101.6924247 100.6526565 106.6315747
 107.5170012  98.1504997 113.4759988 106.8410012  98.2814997 114.1399988
 107.0320012  97.9954997 112.6649988 107.3587146  98.1475157 113.4574469
 110.8050012 113.8224997 119.7519988 111.0050012 114.2464997 118.9179988
 111.4600012 114.1654997 120.3589988 110.9210072 113.9269857 119.7198592
  98.4030012 106.2964997 119.3599988  99.1350012 106.5504997 119.9219988
  97.6230012 106.5004997 119.8759988  98.3977073 106.3588160 119.5066151
 104.4320012 101.7034997 112.0979988 104.9970012 101.1564997 111.5509988
 104.2850012 101.1814997 112.8869988 104.4893380 101.5582259 112.1298695
  99.4340012  97.8394997 108.5169988  99.1170012  96.9374997 108.4809988
 100.2160012  97.8414997 107.9639988  99.4962408  97.7162474 108.4373569
 103.0590012 100.0914997 114.5119988 102.2230012 100.5454997 114.6229988
 103.5830012 100.3674997 115.2639988 103.0155416 100.1908660 114.6288119
 103.6030012 106.3044997 106.1969988 102.8580012 105.7974997 105.8749988
 103.4690012 106.3534997 107.1439988 103.4828776 106.2416940 106.2808647
 110.7530012 105.4374997 114.9839988 111.3950012 105.8944997 114.4399988
 109.9230012 105.5504997 114.5209988 110.7285963 105.5152704 114.8470177
 107.5010012  99.1184997 104.3959988 106.5620012  99.2304997 104.2449988
 107.7980012  99.9754997 104.7029988 107.4127583  99.2495981 104.4168337
 105.1220012 106.4884997 117.4339988 104.7770012 106.1074997 118.2409988
 104.9220012 107.4224997 117.5049988 105.0477527 106.5625135 117.5540689
 108.2190012 100.9854997 106.0569988 109.1110012 100.8484997 106.3759988
 108.2760012 101.7764997 105.5199988 108.3486504 101.0736052 106.0280818
  98.7280012 105.5994997 111.9669988  99.4730012 105.5974997 111.3659988
  98.8060012 104.7764997 112.4479988  98.8404995 105.4878887 111.9498282
 105.7290012 107.7634997 105.2229988 105.4330012 108.5894997 105.6039988
 105.0260012 107.1434997 105.4189988 105.5934914 107.7928199 105.3016443
  95.7360012 104.0604997 117.2819988  95.9590012 103.6424997 118.1139988
  95.1340012 103.4474997 116.8589988  95.6851759 103.9204668 117.3387022
 102.7520012 103.5774997 119.4949988 102.4560012 103.4114997 118.5999988
 103.6840012 103.3574997 119.4839988 102.8374166 103.5250640 119.3710536
 107.3730012 108.9504997 117.3849988 106.4720012 109.1334997 117.1169988
 107.4070012 109.2094997 118.3049988 107.2543139 109.0105849 117.4728099
 113.1040012 101.1954997 105.7519988 112.5500012 100.7994997 105.0799988
 113.2040012 102.1054997 105.4739988 113.0417059 101.2643586 105.6224401
 113.0670012 106.9954997 118.5889988 112.2160012 107.2334997 118.2219988
 113.6580012 106.9784997 117.8359988 113.0302487 107.0258258 118.4368893
 111.3990012 109.9814997 106.2169988 111.0260012 109.1554997 106.5259988
 111.6770012 109.7984997 105.3189988 111.3855222 109.8437430 106.1379473
 108.5600012 104.7894997 113.2379988 107.6310012 104.5574997 113.2109988
 109.0110012 104.0124997 112.9079988 108.4939216 104.6527238 113.1896917
 101.1030012 109.1174997 109.3709988 101.6300012 109.8904997 109.1709988
 100.2230012 109.3424997 109.0689988 101.0562031 109.2537545 109.3027912
  96.8580012 103.9794997 103.9579988  97.4740012 104.6064997 104.3379988
  95.9960012 104.2954997 104.2299988  96.8257698 104.1079430 104.0467183
 102.5300012 106.7804997 108.9469988 102.2890012 107.7054997 108.9889988
 101.7890012 106.3214997 109.3439988 102.3969225 106.8450933 109.0063742
 103.0450012 110.9294997 115.2629988 103.4070012 111.7844997 115.0289988
 103.5760012 110.6374997 116.0029988 103.1664473 111.0071060 115.3310855
 101.2130012 111.8024997 108.4929988 100.2630012 111.9074997 108.5439988
 101.5650012 112.6224997 108.8369988 101.1304195 111.9278800 108.5465502
 106.5890012 107.0284997 114.9629988 106.1630012 106.8014997 115.7899988
 107.1690012 106.2904997 114.7809988 106.6091868 106.8975299 115.0515830
 108.7920012 107.9574997 104.0369988 109.1450012 107.5774997 104.8409988
 107.8430012 107.8644997 104.1239988 108.7120918 107.8928956 104.1588532
 109.2470012 111.5804997 117.4329988 108.6460012 111.0254997 116.9369988
 109.5290012 112.2474997 116.8059988 109.2028804 111.5946625 117.2804849
 113.2950012 112.4374997 104.2379988 114.0390012 113.0234997 104.0979988
 112.6010012 113.0054997 104.5709988 113.3029899 112.5945798 104.2638778
  97.3700012  98.8134997 116.8399988  96.4770012  99.1524997 116.7719988
  97.2710012  97.9584997 117.2579988  97.2344164  98.7442588 116.8872235
 109.6580012 106.6304997 106.2639988 109.3800012 105.9024997 106.8199988
 110.5850012 106.7494997 106.4689988 109.7453124 106.5468802 106.3678845
  97.0210012 110.6184997 115.2749988  97.2380012 109.6864997 115.2439988
  97.2670012 110.8924997 116.1579988  97.0839549 110.5280636 115.3901763
 102.8830012 109.0694997 102.4839988 103.1220012 108.3214997 101.9369988
 102.6140012 108.6814997 103.3169988 102.8793675 108.9146638 102.5216865
 101.8200012 108.6394997 104.9399988 101.9660012 108.1194997 105.7299988
 101.8170012 109.5464997 105.2469988 101.8395792 108.6908842 105.0896117
  98.2730012 105.8924997 105.4509988  97.5870012 106.2444997 106.0179988
  98.7950012 106.6554997 105.2039988  98.2496852 106.0438578 105.4952118
 106.1040012  98.5544997 115.7299988 106.8030012  98.6284997 116.3799988
 105.7230012  97.6904997 115.8839988 106.1481767  98.4477624 115.8398322
 106.8890012  98.2064997 106.8269988 107.1090012  98.6784997 106.0239988
 107.4470012  98.6014997 107.4969988 106.9944968  98.3244285 106.8077331
 104.5570012 110.3374997 105.6899988 103.7410012 110.8344997 105.7419988
 105.0870012 110.8124997 105.0499988 104.5169161 110.4697722 105.6105956
 104.0890012  99.9344997 107.6619988 104.9010012 100.4394997 107.7079988
 103.8440012  99.7894997 108.5759988 104.1670520  99.9840375 107.7918517
 104.6240012 100.9204997 116.8459988 104.7430012 101.4944997 117.6039988
 105.2800012 100.2324997 116.9609988 104.7289025 100.9059858 116.9651321
 104.9720012  97.0154997 108.5999988 104.6260012  97.6334997 109.2439988
 105.6310012  97.5164997 108.1179988 105.0136968  97.1676278 108.6229383
 101.8960012 111.3814997 105.6709988 102.0560012 112.1804997 105.1709988
 101.6980012 111.6874997 106.5559988 101.8911637 111.5324020 105.7221144
 110.8290012  98.8274997 117.6809988 109.9120012  99.0904997 117.5939988
 111.1640012  98.8244997 116.7849988 110.7488613  98.8630761 117.5478837
 109.4310012 102.5784997 111.7769988 108.6330012 102.1634997 111.4489988
 109.8760012 101.8874997 112.2679988 109.3819885 102.4283543 111.7984889
  97.2050012 101.1704997 103.4639988  97.1600012 102.1094997 103.6419988
  96.3170012 100.9344997 103.1939988  97.0788574 101.2671892 103.4518912
 110.5170012 111.8344997 113.3999988 110.3620012 112.5124997 112.7419988
 111.4500012 111.9064997 113.6029988 110.6218657 111.9369546 113.3374360
  98.0130012  95.9524997 112.1369988  97.7840012  96.0114997 111.2089988
  97.5700012  95.1604997 112.4429988  97.9218530  95.8535753 112.0514786
  96.9430012 109.8924997 108.2969988  96.1110012 110.3654997 108.3239988
  97.4890012 110.4024997 107.6989988  96.9030352 110.0261332 108.2198463
  96.2310012 112.5054997 119.6269988  96.7720012 112.2884997 120.3869988
  95.7500012 111.6994997 119.4369988  96.2399951 112.3669270 119.7052576
 100.8290012 111.4244997 121.2469988 101.5960012 110.9654997 121.5879988
 100.8070012 111.1984997 120.3179988 100.9311275 111.3310186 121.1680101
 107.4060012 109.8044997 119.9769988 107.0550012 108.9484997 120.2199988
 108.1320012 109.9474997 120.5839988 107.4560769 109.7065636 120.0923619
  96.1380012 106.3154997 120.5809988  96.2820012 105.4134997 120.2949988
  95.3660012 106.6014997 120.0939988  96.0532753 106.2306816 120.4759505
 102.7940012 106.2854997 120.0139988 102.4650012 106.5564997 119.1569988
 102.9460012 105.3444997 119.9269988 102.7694809 106.1953862 119.8848244
 108.5280012 106.2014997 117.3969988 109.2740012 106.7894997 117.2779988
 107.7710012 106.7834997 117.4609988 108.5277820 106.3607143 117.3893590
  96.9710012 103.5154997 120.0009988  97.3790012 102.6584997 119.8799988
  96.7110012 103.5304997 120.9219988  96.9917568 103.4000807 120.1089588
 101.6290012 104.6314997 105.0199988 101.1690012 104.1474997 105.7059988
 101.8840012 103.9634997 104.3839988 101.6004902 104.4748731 105.0279334
 100.9180012 102.5244997 117.3759988 100.3000012 103.1994997 117.6559988
 101.2620012 102.8454997 116.5419988 100.8799132 102.6602411 117.3016262
 105.9380012 104.9964997 120.6529988 106.8910012 105.0794997 120.6259988
 105.7770012 104.2844997 121.2729988 106.0466426 104.9116746 120.7330579
 112.0900012 105.2294997 102.7279988 111.8160012 104.8044997 101.9149988
 112.1290012 106.1604997 102.5109988 112.0577699 105.2972484 102.5873610
 101.2570012  99.8794997 118.4579988 101.4070012  99.1504997 117.8559988
 101.2600012 100.6564997 117.8989988 101.2779302  99.8847851 118.3000692
 101.6700012  98.2494997 115.9509988 102.2060012  98.7004997 115.2989988
 100.8180012  98.1414997 115.5279988 101.6282178  98.2966390 115.8045756
 103.2520012 103.6884997 116.1899988 104.0020012 103.5324997 115.6169988
 102.9130012 104.5404997 115.9149988 103.3088921 103.7822968 116.0743561
 107.6670012 101.5034997 121.2189988 107.8600012 100.5724997 121.1069988
 108.5250012 101.9284997 121.2079988 107.8092934 101.4336531 121.2022031
 108.9840012 104.2924997 119.2959988 108.7030012 105.0014997 118.7179988
 109.9270012 104.2194997 119.1449988 109.0729291 104.3796711 119.1964967
  99.7360012 101.0774997 120.3699988  98.9690012 100.5454997 120.1589988
 100.4150012 100.7674997 119.7699988  99.7227877 100.9628300 120.2600716
 102.4760012  95.7054997 116.3819988 102.3770012  96.6524997 116.2769988
 101.7330012  95.3334997 115.9059988 102.3621184  95.7845863 116.3033621
 103.7400012 100.0274997 119.9459988 103.5040012  99.8074997 120.8469988
 102.9560012  99.8204997 119.4359988 103.6018504  99.9694586 120.0003431
 106.4550012  99.1544997 119.0209988 105.5080012  99.1864997 119.1539988
 106.7680012  98.5294997 119.6749988 106.3676707  99.0743998 119.1276060
 108.0890012  97.7884997 121.0269988 107.9930012  96.8364997 121.0209988
 107.7680012  98.0574997 121.8869988 108.0324070  97.6944035 121.1425441
  97.9160012  98.9984997 120.0739988  98.1280012  98.2914997 119.4639988
  97.8050012  98.5604997 120.9179988  97.9299721  98.8427084 120.1046843
 102.6970012  94.9994997 119.0529988 103.4090012  94.3594997 119.0389988
 102.5960012  95.2664997 118.1399988 102.7808066  94.9480079 118.9275677
 103.0510012  96.6824997 121.1069988 102.9190012  96.2064997 120.2869988
 102.4520012  97.4264997 121.0519988 102.9519071  96.7179618 120.9872886
  94.8150012 113.5944997 108.8439988  94.1680012 113.1324997 108.3109988
  95.1690012 112.9224997 109.4259988  94.7743849 113.4404723 108.8497959
  95.6850012 111.6754997 110.6479988  95.3500012 110.7954997 110.8199988
  95.9070012 112.0204997 111.5129988  95.6691783 111.6017500 110.7884208
 113.2330012 112.4844997 113.6289988 113.2120012 112.6694997 114.5679988
 113.9240012 113.0534997 113.2879988 113.3234618 112.5866606 113.7113864
 112.7970012 112.0524997 116.5509988 112.3090012 111.3164997 116.1789988
 113.3460012 111.6584997 117.2289988 112.8044820 111.8985889 116.5917813
 111.2470012 107.8414997 121.1889988 110.3810012 107.7364997 121.5829988
 111.6240012 108.6004997 121.6349988 111.1793308 107.9296900 121.3032393
 112.5480012 106.0984997 106.7029988 113.3980012 106.5194997 106.8299988
 112.5540012 105.3584997 107.3099988 112.6651372 106.0560803 106.8024344
 112.9430012 104.1514997 108.5259988 112.2160012 103.6724997 108.9239988
 113.5240012 104.3574997 109.2589988 112.9220473 104.1138103 108.6794528
 112.7020012 106.9364997 113.4739988 113.5350012 106.5584997 113.1939988
 112.8140012 107.8794997 113.3549988 112.8312647 107.0122218 113.4195487
 111.1880012 109.8144997 115.7809988 110.5410012 110.1394997 116.4069988
 110.6710012 109.3744997 115.1069988 111.0294029 109.7995004 115.7755827
 113.2110012 104.0524997 104.9179988 112.6890012 104.4094997 104.1989988
 113.1780012 104.7274997 105.5959988 113.1351634 104.1925413 104.9113145
 111.5600012 101.2924997 103.4679988 111.6560012 101.9594997 102.7879988
 111.4200012 100.4764997 102.9869988 111.5542272 101.2735655 103.3098347
 110.7290012 102.6724997 109.0889988 110.5790012 101.7274997 109.0689988
 110.3760012 102.9534997 109.9329988 110.6607448 102.5811481 109.2003705
  95.7650012 104.7504997 113.0999988  95.9490012 104.6684997 112.1639988
  96.6140012 104.6264997 113.5229988  95.9050151 104.7225073 113.0291451
 111.5860012 104.6424997 118.7279988 112.1690012 103.9084997 118.9199988
 112.1500012 105.4144997 118.7749988 111.7419769 104.6464227 118.7606159
 113.0820012 102.5454997 119.4129988 112.2190012 102.1664997 119.2469988
 113.6870012 101.8064997 119.3379988 113.0456119 102.3938268 119.3801528
 110.8070012  98.7004997 102.5859988 111.4180012  98.3294997 103.2229988
 109.9710012  98.2794997 102.7819988 110.7775032  98.5927554 102.6997035
 110.4400012 100.2554997 107.5519988 110.7200012  99.3484997 107.6759988
 111.1990012 100.6894997 107.1629988 110.5809277 100.1900942 107.5163682
 111.0520012 100.8364997 112.9879988 111.9850012 101.0484997 112.9529988
 110.8170012 100.9384997 113.9099988 111.1479244 100.8793100 113.1078892
 111.0810012 101.5734997 115.7639988 110.2380012 101.8414997 116.1299988
 111.5230012 102.3954997 115.5529988 111.0254158 101.7213291 115.7855491
  95.3620012 100.0214997 119.2409988  96.2820012  99.8994997 119.4769988
  94.9130012  99.2714997 119.6299988  95.4271580  99.9033727 119.3259006
 113.3640012  95.5534997 121.1169988 113.7140012  94.8994997 120.5119988
 113.5110012  96.3904997 120.6769988 113.4317887  95.5771548 120.9746858
 111.0530012  97.5184997 107.5999988 111.2360012  97.0694997 108.4259988
 110.4540012  96.9334997 107.1369988 110.9970202  97.3779975 107.6503275
  96.5830012  98.3334997 112.1319988  97.0290012  97.5414997 112.4339988
  97.0500012  99.0494997 112.5619988  96.7070831  98.3220685 112.2314006
  94.8870012 101.3324997 113.2009988  95.3790012 101.1114997 112.4099988
  95.2500012 102.1734997 113.4819988  95.0033126 101.4158357 113.1307531
 112.8840012  97.6624997 119.4659988 111.9660012  97.9334997 119.4309988
 113.0070012  97.1274997 118.6819988 112.7749729  97.6272508 119.3551923
  95.2010012  97.5904997 107.2549988  94.2760012  97.7994997 107.1259988
  95.6550012  98.0744997 106.5649988  95.1357292  97.6845343 107.1440720
 109.9720012 112.5744997 109.2009988 110.6240012 112.2274997 108.5929988
 110.4820012 113.0634997 109.8469988 110.1302637 112.5930597 109.2050236
  95.1650012  96.3284997 115.5989988  94.5000012  96.0824997 116.2429988
  94.7220012  96.9504997 115.0219988  95.0141318  96.3789410 115.6090898
  97.3570012 109.5034997 119.7439988  96.5360012 109.6784997 119.2829988
  97.1040012 109.4304997 120.6639988  97.2105585 109.5175544 119.8053561
 100.3110012 110.4784997 116.0019988  99.8860012 111.2874997 115.7199988
 101.2150012 110.5634997 115.6999988 100.3749975 110.6009300 115.9224816
 104.6220012 111.8774997 118.9619988 104.8070012 111.5434997 119.8399988
 105.4680012 112.1864997 118.6399988 104.7617539 111.8736047 119.0385605
 106.9670012 113.1634997 118.2059988 107.6440012 112.5304997 117.9659988
 107.2890012 113.5644997 119.0129988 107.1031637 113.1311154 118.2822793
 111.8840012  95.7524997 117.2849988 111.0720012  96.0774997 116.8979988
 112.1170012  94.9924997 116.7519988 111.8042203  95.6942758 117.1598880
  97.7130012 113.7344997 116.0499988  96.9920012 114.1744997 115.5989988
  97.3470012 113.4834997 116.8979988  97.5649651 113.7607242 116.1029640
 100.1800012 113.3344997 115.0799988  99.3150012 113.4064997 115.4839988
 100.1250012 113.8814997 114.2959988 100.0542085 113.4182685 115.0293362
 104.8900012 113.2224997 114.2549988 104.4340012 113.7514997 113.6009988
 105.0530012 113.8254997 114.9799988 104.8496068 113.3764607 114.2634838
 107.2180012 112.1004997 115.1999988 106.3130012 112.2654997 114.9339988
 107.6470012 112.9534997 115.1349988 107.1521324 112.2384339 115.1547976
 109.8220012 113.6704997 115.4949988 109.6400012 114.5864997 115.2849988
 109.9990012 113.2604997 114.6489988 109.8210210 113.7404822 115.3517885
  97.1270012 112.3574997 112.9599988  97.1090012 111.9324997 113.8169988
  97.9320012 112.0394997 112.5509988  97.2333529 112.2563013 113.0220946
  99.2690012 111.0674997 111.6149988  99.0500012 110.1514997 111.7849988
 100.0930012 111.2074997 112.0809988  99.3504420 110.9610520 111.7012774
 101.8060012 111.5374997 112.4639988 102.0190012 110.6494997 112.1769988
 101.8700012 111.5034997 113.4179988 101.8438231 111.4113102 112.5537397
 105.3140012  97.2014997 111.6079988 104.6400012  96.5724997 111.8639988
 105.8780012  96.7174997 111.0049988 105.2979230  97.0498744 111.5615340
 110.4570012  95.3094997 111.7209988 111.0610012  95.8564997 111.2189988
 109.5870012  95.6284997 111.4799988 110.4221208  95.4275137 111.6196886
 112.1840012  96.4474997 110.0539988 112.7960012  95.9334997 109.5269988
 112.5660012  97.3254997 110.0769988 112.3193371  96.4957866 109.9850041
  97.6410012  95.8354997 109.4299988  96.8640012  95.6014997 108.9229988
  98.1710012  95.0384997 109.4389988  97.6062330  95.6956988 109.3617742
  96.4770012  95.6334997 105.2339988  96.9160012  96.2444997 104.6419988
  95.8440012  96.1714997 105.7079988  96.4514514  95.7899257 105.2170930
 102.2200012  95.7624997 109.2439988 103.0950012  96.1504997 109.2139988
 102.0840012  95.5474997 110.1659988 102.3213695  95.7865184 109.3646440
 107.7770012  95.7924997 110.8929988 107.8530012  95.8874997 109.9429988
 107.5020012  94.8844997 111.0219988 107.7502321  95.6827867 110.7805079
 109.1300012  95.8184997 106.5849988 108.4280012  96.4334997 106.3749988
 108.6860012  94.9804997 106.7159988 108.9736450  95.7895639 106.5739000
  96.3780012 111.5814997 106.1309988  95.6930012 111.5434997 105.4639988
  96.3820012 112.4944997 106.4199988  96.2846998 111.6996733 106.0786771
  98.3380012  97.5494997 103.6759988  98.8300012  96.9194997 103.1489988
  98.9620012  97.8454997 104.3389988  98.4895688  97.5033804 103.6935482
 111.9520012 112.3544997 107.2079988 111.7570012 111.6064997 106.6429988
 111.9130012 113.1124997 106.6249988 111.9200380 112.3546099 107.0518384
  97.5990012  96.3494997 118.9479988  97.2330012  95.5844997 119.3899988
  98.5120012  96.3784997 119.2339988  97.6722736  96.2485640 119.0472502
  99.5720012  95.7004997 120.4839988 100.4700012  95.4264997 120.2989988
  99.1850012  94.9574997 120.9479988  99.6426612  95.5625914 120.5213643
 107.9930012  95.0324997 120.6659988 108.0700012  94.6064997 121.5199988
 108.8870012  95.0464997 120.3229988 108.1243428  94.9760879 120.7365310
 111.1690012 111.1054997 119.3579988 110.3870012 110.9194997 118.8379988
 111.0970012 112.0344997 119.5759988 111.0522274 111.2056643 119.3163018
 125.5750012 104.9914997 109.3889988 125.6640012 105.9354997 109.2569988
 124.9370012 104.7164997 108.7309988 125.5009081 105.0834830 109.2819614
 124.5080012 104.2464997 112.8079988 124.4700012 103.6004997 113.5129988
 124.1860012 103.7804997 112.0369988 124.4592333 104.0949408 112.8002978
 116.8770012 103.8614997 114.4009988 116.9180012 103.2354997 115.1239988
 117.5800012 104.4854997 114.5829988 116.9776363 103.8601196 114.5246044
 128.2140012 107.1854997 111.1089988 127.7740012 106.4654997 111.5599988
 128.2010012 107.9064997 111.7389988 128.1520226 107.1843731 111.2558494
 117.8000012 108.3114997 112.9359988 117.4310012 107.5094997 112.5659988
 118.7410012 108.1424997 112.9819988 117.8767289 108.1790153 112.8916316
 114.4100012 101.9714997 108.3289988 113.9630012 102.8174997 108.3099988
 113.8490012 101.3914997 107.8129988 114.2729900 102.0089916 108.2566801
 115.1210012 104.1334997 110.4539988 115.3340012 103.3634997 110.9819988
 115.8590012 104.2224997 109.8509988 115.2499044 104.0401968 110.4447123
 125.3260012 112.2904997 111.3209988 125.9460012 111.6134997 111.0479988
 125.1180012 112.0724997 112.2299988 125.3826726 112.1684800 111.4064812
 122.8980012 106.6794997 113.2139988 123.2020012 105.9934997 112.6189988
 123.6190012 106.7974997 113.8319988 123.0370671 106.6016305 113.2161816
 131.5610012  98.2804997 114.0749988 131.6100012  98.8904997 114.8099988
 131.9860012  98.7414997 113.3519988 131.6251746  98.4263796 114.0779175
 126.0390012 101.0734997 113.5409988 126.1810012 100.1274997 113.5619988
 125.9320012 101.2804997 112.6129988 126.0439919 100.9718246 113.4183408
 119.1930012  99.1744997 110.8139988 119.2370012 100.0344997 110.3949988
 118.7360012  98.6224997 110.1799988 119.1372240  99.2174422 110.6709864
 126.9160012  99.3054997 109.2149988 127.5620012  98.9764997 109.8389988
 127.4260012  99.8234997 108.5919988 127.0734299  99.3304450 109.2162731
 115.8140012 101.5714997 111.5759988 116.4670012 101.0214997 112.0079988
 115.8380012 101.2974997 110.6589988 115.9066683 101.4591466 111.5112123
 120.9700012 103.1214997 110.7909988 121.5860012 102.5954997 111.3009988
 120.3840012 102.4814997 110.3879988 120.9750810 102.9629208 110.8063173
 131.9520012  99.7584997 116.3099988 131.2640012 100.4164997 116.2149988
 131.9680012  99.5614997 117.2469988 131.8599540  99.8219819 116.4235990
 118.0040012  98.0924997 114.8879988 117.7850012  98.6224997 114.1219988
 117.3360012  98.3194997 115.5349988 117.8837600  98.1956906 114.8706379
 125.3730012 107.5924997 108.4319988 125.0770012 107.2704997 107.5809988
 125.0480012 108.4924997 108.4729988 125.2886371 107.6700215 108.3211801
 120.5730012 105.7684997 115.1749988 119.8330012 106.3664997 115.2789988
 121.2870012 106.3224997 114.8599988 120.5682237 105.9252831 115.1466465
 128.6800012  98.5964997 111.1949988 128.4640012  97.8304997 111.7279988
 129.3350012  99.0684997 111.7079988 128.7390632  98.5555889 111.3372861
 117.5970012  99.9844997 112.8399988 118.2110012 100.6174997 113.2129988
 118.1090012  99.5124997 112.1839988 117.7501981 100.0072267 112.8022908
 118.9800012 107.7324997 115.9619988 118.9750012 108.6124997 115.5839988
 118.1270012 107.6494997 116.3869988 118.8639464 107.8416117 115.9677907
 115.1010012 107.4034997 106.7439988 114.8290012 107.6324997 105.8559988
 115.1470012 108.2414997 107.2049988 115.0699482 107.5481318 106.6846273
 128.7260012 109.0254997 113.4569988 127.7850012 109.0834997 113.6189988
 129.0030012 109.9314997 113.3199988 128.6344679 109.1559443 113.4606815
 129.0270012  97.3114997 114.8749988 128.2910012  97.9224997 114.8369988
 129.7100012  97.7264997 114.3479988 129.0186541  97.4511374 114.7985832
 122.0300012  95.3984997 112.3399988 121.9130012  94.4494997 112.2859988
 121.1750012  95.7304997 112.6139988 121.8984212  95.3135571 112.3696497
 126.9780012 110.8064997 110.0819988 127.4040012 110.0994997 109.5969988
 127.2950012 111.6074997 109.6659988 127.0791683 110.8181017 109.9593680
 128.1380012 108.7074997 108.5909988 127.8800012 108.0174997 107.9799988
 128.2090012 108.2644997 109.4369988 128.1122856 108.5532124 108.6216885
 129.8240012 107.2734997 117.0679988 129.9640012 106.6824997 116.3289988
 129.9910012 108.1464997 116.7119988 129.8657411 107.3105428 116.9186894
 124.2970012 104.2354997 106.8409988 123.5850012 104.7704997 106.4889988
 124.9880012 104.2914997 106.1809988 124.2930132 104.3162543 106.7036289
 131.6660012 103.6134997 115.1339988 131.0130012 104.3084997 115.2239988
 132.1310012 103.8234997 114.3249988 131.6395274 103.7370643 115.0368462
 127.7020012 104.4454997 107.7929988 126.9700012 104.6734997 108.3659988
 128.1500012 103.7314997 108.2469988 127.6622725 104.3802145 107.9328816
 127.6000012 102.6194997 116.8599988 127.6800012 103.3824997 117.4319988
 126.9980012 102.8984997 116.1699988 127.5295756 102.7617134 116.8450589
 119.3480012 105.0754997 109.6749988 119.0170012 104.7054997 108.8569988
 119.9360012 104.4054997 110.0219988 119.3821873 104.9341156 109.6098102
 120.7140012 108.5034997 112.3559988 120.6200012 107.9254997 111.5999988
 121.4440012 108.1324997 112.8529988 120.7997387 108.3741663 112.3195342
 119.7140012 103.8444997 113.3089988 120.2800012 103.9654997 112.5459988
 120.0330012 104.4814997 113.9469988 119.8345474 103.9472219 113.2909862
 126.0230012 109.3474997 114.0429988 125.7830012 110.0094997 114.6909988
 125.8250012 108.5134997 114.4679988 125.9633808 109.3253134 114.1891524
 120.5940012 108.2434997 118.0259988 120.2830012 109.0254997 118.4809988
 119.9440012 108.0904997 117.3399988 120.4635558 108.3299105 117.9955871
 126.5730012 103.6074997 105.4779988 127.1530012 103.7574997 106.2249988
 126.9870012 104.0784997 104.7539988 126.7082997 103.6916578 105.4824058
 117.5140012 104.4414997 117.2539988 117.5850012 105.0924997 117.9529988
 116.6240012 104.5444997 116.9189988 117.4033005 104.5445427 117.3043495
 124.3000012 110.3444997 108.9129988 124.7740012 110.6394997 109.6899988
 123.7370012 111.0824997 108.6799988 124.2888184 110.4847247 108.9879628
 118.8340012 110.3154997 118.7889988 118.8410012 110.1794997 117.8419988
 117.9180012 110.1974997 119.0409988 118.7111714 110.2809430 118.6934666
 130.2720012  95.3574997 105.2909988 129.3720012  95.4964997 105.5859988
 130.5240012  96.1884997 104.8889988 130.1828702  95.4889074 105.2770205
 118.3380012 104.1454997 107.2639988 118.0460012 104.9134997 106.7739988
 117.6640012 103.4854997 107.1019988 118.2068111 104.1615587 107.1748978
 114.4310012 106.5084997 116.0789988 113.9300012 106.4804997 115.2639988
 114.4360012 105.6024997 116.3889988 114.3630944 106.3822396 116.0093226
 114.1810012 109.2884997 112.9629988 115.1270012 109.1444997 112.9439988
 114.0690012 110.0724997 113.4999988 114.2952727 109.3748046 113.0330072
 132.3790012 109.9544997 118.6459988 132.3300012 108.9994997 118.6089988
 131.5520012 110.2224997 119.0469988 132.2604940 109.8598998 118.6951375
 123.3580012 109.5284997 117.5219988 123.4450012 110.3544997 117.9969988
 122.4940012 109.1984997 117.7709988 123.2531964 109.5969878 117.6206549
 123.7720012 113.3004997 107.3279988 123.6970012 113.1794997 106.3809988
 123.8050012 114.2504997 107.4459988 123.7662068 113.4122646 107.2144967
 117.4250012 112.0894997 109.1089988 117.5780012 111.7414997 109.9869988
 116.5750012 111.7334997 108.8539988 117.3309166 111.9936217 109.1948079
 126.5430012 112.3804997 107.0789988 125.6070012 112.4804997 107.2579988
 126.8230012 111.6714997 107.6579988 126.4529553 112.2983406 107.1817087
 129.5310012 101.4474997 119.1259988 129.1240012 101.9284997 118.4049988
 129.5720012 100.5424997 118.8179988 129.4808437 101.3909374 118.9856683
 116.6800012 107.8314997 117.1229988 116.8960012 107.4704997 117.9819988
 115.8250012 107.4574997 116.9129988 116.5939292 107.7314111 117.2123386
 119.2990012  96.3014997 113.1179988 118.4370012  96.2144997 112.7099988
 119.2760012  97.1574997 113.5459988 119.1780409  96.4052883 113.1200589
 123.9620012  96.0234997 116.4929988 124.3820012  95.6084997 117.2459988
 123.0290012  95.8454997 116.6099988 123.8933644  95.9425900 116.6119539
 127.2880012  99.7794997 117.3459988 126.7740012  99.6534997 118.1439988
 127.1330012 100.6914997 117.1019988 127.1966852  99.8856132 117.4222158
 119.3900012 101.2674997 114.2129988 118.7480012 101.2264997 114.9219988
 119.4270012 102.1934997 113.9749988 119.3070664 101.3871430 114.2779219
 119.3870012 101.4884997 109.1249988 118.4940012 101.1474997 109.0659988
 119.8370012 101.1114997 108.3689988 119.3258130 101.3909631 109.0147702
 124.9220012 101.9044997 107.9419988 124.5130012 102.7194997 107.6509988
 125.6430012 101.7644997 107.3279988 124.9634537 101.9972018 107.8191342
 124.0240012 102.0794997 119.4299988 123.4620012 101.3754997 119.7509988
 124.8510012 101.9594997 119.8979988 124.0587095 101.9667883 119.5372330
 125.9270012 101.3504997 110.7559988 125.7320012 101.9554997 110.0409988
 126.1080012 100.5164997 110.3219988 125.9247614 101.3206300 110.5994405
 117.1400012 101.5874997 116.0799988 117.1020012 101.9874997 116.9489988
 116.6490012 100.7704997 116.1709988 117.0684684 101.5318069 116.2111059
 113.7480012  98.7034997 109.9309988 114.3790012  98.6744997 110.6499988
 114.1970012  98.2784997 109.1999988 113.8950918  98.6420836 109.9306441
 125.1910012 102.9884997 115.4269988 125.5140012 102.3574997 114.7839988
 124.7510012 102.4534997 116.0879988 125.1757484 102.8298387 115.4283198
 121.9680012  98.9154997 110.2109988 121.0570012  98.9724997 110.4999988
 122.4740012  98.8554997 111.0219988 121.9116899  98.9151941 110.3601184
 116.7970012 100.5444997 109.0379988 115.9070012 100.6444997 108.6979988
 117.0930012  99.7024997 108.6919988 116.7152823 100.4443545 108.9447213
 120.4500012 100.5444997 106.6949988 121.3810012 100.6734997 106.8729988
 120.2350012 101.2144997 106.0449988 120.5484247 100.6526565 106.6315747
 126.3730012  98.1504997 113.4759988 125.6970012  98.2814997 114.1399988
 125.8880012  97.9954997 112.6649988 126.2147146  98.1475157 113.4574469
 119.1240012 101.7394997 104.2609988 118.5810012 101.3594997 103.5699988
 119.9570012 101.9334997 103.8329988 119.1623631 101.7137125 104.1084501
 129.6610012 113.8224997 119.7519988 129.8610012 114.2464997 118.9179988
 130.3160012 114.1654997 120.3589988 129.7770072 113.9269857 119.7198592
 117.2590012 106.2964997 119.3599988 117.9910012 106.5504997 119.9219988
 116.4790012 106.5004997 119.8759988 117.2537073 106.3588160 119.5066151
 123.2880012 101.7034997 112.0979988 123.8530012 101.1564997 111.5509988
 123.1410012 101.1814997 112.8869988 123.3453380 101.5582259 112.1298695
 118.2900012  97.8394997 108.5169988 117.9730012  96.9374997 108.4809988
 119.0720012  97.8414997 107.9639988 118.3522408  97.7162474 108.4373569
 121.9150012 100.0914997 114.5119988 121.0790012 100.5454997 114.6229988
 122.4390012 100.3674997 115.2639988 121.8715416 100.1908660 114.6288119
 122.4590012 106.3044997 106.1969988 121.7140012 105.7974997 105.8749988
 122.3250012 106.3534997 107.1439988 122.3388776 106.2416940 106.2808647
 129.6090012 105.4374997 114.9839988 130.2510012 105.8944997 114.4399988
 128.7790012 105.5504997 114.5209988 129.5845963 105.5152704 114.8470177
 126.3570012  99.1184997 104.3959988 125.4180012  99.2304997 104.2449988
 126.6540012  99.9754997 104.7029988 126.2687583  99.2495981 104.4168337
 123.9780012 106.4884997 117.4339988 123.6330012 106.1074997 118.2409988
 123.7780012 107.4224997 117.5049988 123.9037527 106.5625135 117.5540689
 127.0750012 100.9854997 106.0569988 127.9670012 100.8484997 106.3759988
 127.1320012 101.7764997 105.5199988 127.2046504 101.0736052 106.0280818
 117.5840012 105.5994997 111.9669988 118.3290012 105.5974997 111.3659988
 117.6620012 104.7764997 112.4479988 117.6964995 105.4878887 111.9498282
 124.5850012 107.7634997 105.2229988 124.2890012 108.5894997 105.6039988
 123.8820012 107.1434997 105.4189988 124.4494914 107.7928199 105.3016443
 114.5920012 104.0604997 117.2819988 114.8150012 103.6424997 118.1139988
 113.9900012 103.4474997 116.8589988 114.5411759 103.9204668 117.3387022
 121.6080012 103.5774997 119.4949988 121.3120012 103.4114997 118.5999988
 122.5400012 103.3574997 119.4839988 121.6934166 103.5250640 119.3710536
 126.2290012 108.9504997 117.3849988 125.3280012 109.1334997 117.1169988
 126.2630012 109.2094997 118.3049988 126.1103139 109.0105849 117.4728099
 131.9600012 101.1954997 105.7519988 131.4060012 100.7994997 105.0799988
 132.0600012 102.1054997 105.4739988 131.8977059 101.2643586 105.6224401
 131.9230012 106.9954997 118.5889988 131.0720012 107.2334997 118.2219988
 132.5140012 106.9784997 117.8359988 131.8862487 107.0258258 118.4368893
 130.2550012 109.9814997 106.2169988 129.8820012 109.1554997 106.5259988
 130.5330012 109.7984997 105.3189988 130.2415222 109.8437430 106.1379473
 127.4160012 104.7894997 113.2379988 126.4870012 104.5574997 113.2109988
 127.8670012 104.0124997 112.9079988 127.3499216 104.6527238 113.1896917
 119.9590012 109.1174997 109.3709988 120.4860012 109.8904997 109.1709988
 119.0790012 109.3424997 109.0689988 119.9122031 109.2537545 109.3027912
 121.3860012 106.7804997 108.9469988 121.1450012 107.7054997 108.9889988
 120.6450012 106.3214997 109.3439988 121.2529225 106.8450933 109.0063742
 121.9010012 110.9294997 115.2629988 122.2630012 111.7844997 115.0289988
 122.4320012 110.6374997 116.0029988 122.0224473 111.0071060 115.3310855
 120.0690012 111.8024997 108.4929988 119.1190012 111.9074997 108.5439988
 120.4210012 112.6224997 108.8369988 119.9864195 111.9278800 108.5465502
 125.4450012 107.0284997 114.9629988 125.0190012 106.8014997 115.7899988
 126.0250012 106.2904997 114.7809988 125.4651868 106.8975299 115.0515830
 127.6480012 107.9574997 104.0369988 128.0010012 107.5774997 104.8409988
 126.6990012 107.8644997 104.1239988 127.5680918 107.8928956 104.1588532
 128.1030012 111.5804997 117.4329988 127.5020012 111.0254997 116.9369988
 128.3850012 112.2474997 116.8059988 128.0588804 111.5946625 117.2804849
 116.2260012  98.8134997 116.8399988 115.3330012  99.1524997 116.7719988
 116.1270012  97.9584997 117.2579988 116.0904164  98.7442588 116.8872235
 128.5140012 106.6304997 106.2639988 128.2360012 105.9024997 106.8199988
 129.4410012 106.7494997 106.4689988 128.6013124 106.5468802 106.3678845
 115.8770012 110.6184997 115.2749988 116.0940012 109.6864997 115.2439988
 116.1230012 110.8924997 116.1579988 115.9399549 110.5280636 115.3901763
 121.7390012 109.0694997 102.4839988 121.9780012 108.3214997 101.9369988
 121.4700012 108.6814997 103.3169988 121.7353675 108.9146638 102.5216865
 120.6760012 108.6394997 104.9399988 120.8220012 108.1194997 105.7299988
 120.6730012 109.5464997 105.2469988 120.6955792 108.6908842 105.0896117
 117.1290012 105.8924997 105.4509988 116.4430012 106.2444997 106.0179988
 117.6510012 106.6554997 105.2039988 117.1056852 106.0438578 105.4952118
 124.9600012  98.5544997 115.7299988 125.6590012  98.6284997 116.3799988
 124.5790012  97.6904997 115.8839988 125.0041767  98.4477624 115.8398322
 125.7450012  98.2064997 106.8269988 125.9650012  98.6784997 106.0239988
 126.3030012  98.6014997 107.4969988 125.8504968  98.3244285 106.8077331
 123.4130012 110.3374997 105.6899988 122.5970012 110.8344997 105.7419988
 123.9430012 110.8124997 105.0499988 123.3729161 110.4697722 105.6105956
 122.9450012  99.9344997 107.6619988 123.7570012 100.4394997 107.7079988
 122.7000012  99.7894997 108.5759988 123.0230520  99.9840375 107.7918517
 123.4800012 100.9204997 116.8459988 123.5990012 101.4944997 117.6039988
 124.1360012 100.2324997 116.9609988 123.5849025 100.9059858 116.9651321
 123.8280012  97.0154997 108.5999988 123.4820012  97.6334997 109.2439988
 124.4870012  97.5164997 108.1179988 123.8696968  97.1676278 108.6229383
 120.7520012 111.3814997 105.6709988 120.9120012 112.1804997 105.1709988
 120.5540012 111.6874997 106.5559988 120.7471637 111.5324020 105.7221144
 119.4860012  98.0784997 105.2869988 119.4030012  98.9674997 105.6339988
 120.3760012  97.8134997 105.5189988 119.5949469  98.1641430 105.3657626
 129.6850012  98.8274997 117.6809988 128.7680012  99.0904997 117.5939988
 130.0200012  98.8244997 116.7849988 129.6048613  98.8630761 117.5478837
 128.2870012 102.5784997 111.7769988 127.4890012 102.1634997 111.4489988
 128.7320012 101.8874997 112.2679988 128.2379885 102.4283543 111.7984889
 117.7450012 108.5064997 104.3479988 118.3370012 109.2054997 104.6239988
 118.2040012 108.0734997 103.6279988 117.8881142 108.5437049 104.2884830
 129.3730012 111.8344997 113.3999988 129.2180012 112.5124997 112.7419988
 130.3060012 111.9064997 113.6029988 129.4778657 111.9369546 113.3374360
 116.8690012  95.9524997 112.1369988 116.6400012  96.0114997 111.2089988
 116.4260012  95.1604997 112.4429988 116.7778530  95.8535753 112.0514786
 115.7990012 109.8924997 108.2969988 114.9670012 110.3654997 108.3239988
 116.3450012 110.4024997 107.6989988 115.7590352 110.0261332 108.2198463
 115.0870012 112.5054997 119.6269988 115.6280012 112.2884997 120.3869988
 114.6060012 111.6994997 119.4369988 115.0959951 112.3669270 119.7052576
 119.6850012 111.4244997 121.2469988 120.4520012 110.9654997 121.5879988
 119.6630012 111.1984997 120.3179988 119.7871275 111.3310186 121.1680101
 126.2620012 109.8044997 119.9769988 125.9110012 108.9484997 120.2199988
 126.9880012 109.9474997 120.5839988 126.3120769 109.7065636 120.0923619
 128.3810012 110.7494997 102.8559988 128.6640012 109.9554997 103.3089988
 129.1210012 110.9824997 102.2959988 128.5198006 110.6723376 102.8422715
 114.9940012 106.3154997 120.5809988 115.1380012 105.4134997 120.2949988
 114.2220012 106.6014997 120.0939988 114.9092753 106.2306816 120.4759505
 121.6500012 106.2854997 120.0139988 121.3210012 106.5564997 119.1569988
 121.8020012 105.3444997 119.9269988 121.6254809 106.1953862 119.8848244
 127.3840012 106.2014997 117.3969988 128.1300012 106.7894997 117.2779988
 126.6270012 106.7834997 117.4609988 127.3837820 106.3607143 117.3893590
 115.8270012 103.5154997 120.0009988 116.2350012 102.6584997 119.8799988
 115.5670012 103.5304997 120.9219988 115.8477568 103.4000807 120.1089588
 120.4850012 104.6314997 105.0199988 120.0250012 104.1474997 105.7059988
 120.7400012 103.9634997 104.3839988 120.4564902 104.4748731 105.0279334
 119.7740012 102.5244997 117.3759988 119.1560012 103.1994997 117.6559988
 120.1180012 102.8454997 116.5419988 119.7359132 102.6602411 117.3016262
 124.7940012 104.9964997 120.6529988 125.7470012 105.0794997 120.6259988
 124.6330012 104.2844997 121.2729988 124.9026426 104.9116746 120.7330579
 120.1130012  99.8794997 118.4579988 120.2630012  99.1504997 117.8559988
 120.1160012 100.6564997 117.8989988 120.1339302  99.8847851 118.3000692
 120.5260012  98.2494997 115.9509988 121.0620012  98.7004997 115.2989988
 119.6740012  98.1414997 115.5279988 120.4842178  98.2966390 115.8045756
 122.1080012 103.6884997 116.1899988 122.8580012 103.5324997 115.6169988
 121.7690012 104.5404997 115.9149988 122.1648921 103.7822968 116.0743561
 126.5230012 101.5034997 121.2189988 126.7160012 100.5724997 121.1069988
 127.3810012 101.9284997 121.2079988 126.6652934 101.4336531 121.2022031
 127.8400012 104.2924997 119.2959988 127.5590012 105.0014997 118.7179988
 128.7830012 104.2194997 119.1449988 127.9289291 104.3796711 119.1964967
 118.5920012 101.0774997 120.3699988 117.8250012 100.5454997 120.1589988
 119.2710012 100.7674997 119.7699988 118.5787877 100.9628300 120.2600716
 121.3320012  95.7054997 116.3819988 121.2330012  96.6524997 116.2769988
 120.5890012  95.3334997 115.9059988 121.2181184  95.7845863 116.3033621
 122.5960012 100.0274997 119.9459988 122.3600012  99.8074997 120.8469988
 121.8120012  99.8204997 119.4359988 122.4578504  99.9694586 120.0003431
 125.3110012  99.1544997 119.0209988 124.3640012  99.1864997 119.1539988
 125.6240012  98.5294997 119.6749988 125.2236707  99.0743998 119.1276060
 126.9450012  97.7884997 121.0269988 126.8490012  96.8364997 121.0209988
 126.6240012  98.0574997 121.8869988 126.8884070  97.6944035 121.1425441
 116.7720012  98.9984997 120.0739988 116.9840012  98.2914997 119.4639988
 116.6610012  98.5604997 120.9179988 116.7859721  98.8427084 120.1046843
 121.5530012  94.9994997 119.0529988 122.2650012  94.3594997 119.0389988
 121.4520012  95.2664997 118.1399988 121.6368066  94.9480079 118.9275677
 121.9070012  96.6824997 121.1069988 121.7750012  96.2064997 120.2869988
 121.3080012  97.4264997 121.0519988 121.8079071  96.7179618 120.9872886
 113.6710012 113.5944997 108.8439988 113.0240012 113.1324997 108.3109988
 114.0250012 112.9224997 109.4259988 113.6303849 113.4404723 108.8497959
 114.5410012 111.6754997 110.6479988 114.2060012 110.7954997 110.8199988
 114.7630012 112.0204997 111.5129988 114.5251783 111.6017500 110.7884208
 132.0890012 112.4844997 113.6289988 132.0680012 112.6694997 114.5679988
 132.7800012 113.0534997 113.2879988 132.1794618 112.5866606 113.7113864
 131.6530012 112.0524997 116.5509988 131.1650012 111.3164997 116.1789988
 132.2020012 111.6584997 117.2289988 131.6604820 111.8985889 116.5917813
 130.1030012 107.8414997 121.1889988 129.2370012 107.7364997 121.5829988
 130.4800012 108.6004997 121.6349988 130.0353308 107.9296900 121.3032393
 131.4040012 106.0984997 106.7029988 132.2540012 106.5194997 106.8299988
 131.4100012 105.3584997 107.3099988 131.5211372 106.0560803 106.8024344
 131.7990012 104.1514997 108.5259988 131.0720012 103.6724997 108.9239988
 132.3800012 104.3574997 109.2589988 131.7780473 104.1138103 108.6794528
 131.5580012 106.9364997 113.4739988 132.3910012 106.5584997 113.1939988
 131.6700012 107.8794997 113.3549988 131.6872647 107.0122218 113.4195487
 130.0440012 109.8144997 115.7809988 129.3970012 110.1394997 116.4069988
 129.5270012 109.3744997 115.1069988 129.8854029 109.7995004 115.7755827
 132.0670012 104.0524997 104.9179988 131.5450012 104.4094997 104.1989988
 132.0340012 104.7274997 105.5959988 131.9911634 104.1925413 104.9113145
 129.5850012 102.6724997 109.0889988 129.4350012 101.7274997 109.0689988
 129.2320012 102.9534997 109.9329988 129.5167448 102.5811481 109.2003705
 114.6210012 104.7504997 113.0999988 114.8050012 104.6684997 112.1639988
 115.4700012 104.6264997 113.5229988 114.7610151 104.7225073 113.0291451
 130.4420012 104.6424997 118.7279988 131.0250012 103.9084997 118.9199988
 131.0060012 105.4144997 118.7749988 130.5979769 104.6464227 118.7606159
 131.9380012 102.5454997 119.4129988 131.0750012 102.1664997 119.2469988
 132.5430012 101.8064997 119.3379988 131.9016119 102.3938268 119.3801528
 129.2960012 100.2554997 107.5519988 129.5760012  99.3484997 107.6759988
 130.0550012 100.6894997 107.1629988 129.4369277 100.1900942 107.5163682
 129.9080012 100.8364997 112.9879988 130.8410012 101.0484997 112.9529988
 129.6730012 100.9384997 113.9099988 130.0039244 100.8793100 113.1078892
 129.9370012 101.5734997 115.7639988 129.0940012 101.8414997 116.1299988
 130.3790012 102.3954997 115.5529988 129.8814158 101.7213291 115.7855491
 114.2180012 100.0214997 119.2409988 115.1380012  99.8994997 119.4769988
 113.7690012  99.2714997 119.6299988 114.2831580  99.9033727 119.3259006
 132.2200012  95.5534997 121.1169988 132.5700012  94.8994997 120.5119988
 132.3670012  96.3904997 120.6769988 132.2877887  95.5771548 120.9746858
 129.9090012  97.5184997 107.5999988 130.0920012  97.0694997 108.4259988
 129.3100012  96.9334997 107.1369988 129.8530202  97.3779975 107.6503275
 115.4390012  98.3334997 112.1319988 115.8850012  97.5414997 112.4339988
 115.9060012  99.0494997 112.5619988 115.5630831  98.3220685 112.2314006
 113.7430012 101.3324997 113.2009988 114.2350012 101.1114997 112.4099988
 114.1060012 102.1734997 113.4819988 113.8593126 101.4158357 113.1307531
 131.7400012  97.6624997 119.4659988 130.8220012  97.9334997 119.4309988
 131.8630012  97.1274997 118.6819988 131.6309729  97.6272508 119.3551923
 131.7760012  97.5854997 104.1279988 132.1880012  96.8644997 103.6529988
 132.4580012  98.2554997 104.1869988 131.9245885  97.5772368 104.0708915
 114.0570012  97.5904997 107.2549988 113.1320012  97.7994997 107.1259988
 114.5110012  98.0744997 106.5649988 113.9917292  97.6845343 107.1440720
 128.8280012 112.5744997 109.2009988 129.4800012 112.2274997 108.5929988
 129.3380012 113.0634997 109.8469988 128.9862637 112.5930597 109.2050236
 114.0210012  96.3284997 115.5989988 113.3560012  96.0824997 116.2429988
 113.5780012  96.9504997 115.0219988 113.8701318  96.3789410 115.6090898
 116.2130012 109.5034997 119.7439988 115.3920012 109.6784997 119.2829988
 115.9600012 109.4304997 120.6639988 116.0665585 109.5175544 119.8053561
 119.1670012 110.4784997 116.0019988 118.7420012 111.2874997 115.7199988
 120.0710012 110.5634997 115.6999988 119.2309975 110.6009300 115.9224816
 123.4780012 111.8774997 118.9619988 123.6630012 111.5434997 119.8399988
 124.3240012 112.1864997 118.6399988 123.6177539 111.8736047 119.0385605
 125.8230012 113.1634997 118.2059988 126.5000012 112.5304997 117.9659988
 126.1450012 113.5644997 119.0129988 125.9591637 113.1311154 118.2822793
 130.7400012  95.7524997 117.2849988 129.9280012  96.0774997 116.8979988
 130.9730012  94.9924997 116.7519988 130.6602203  95.6942758 117.1598880
 116.5690012 113.7344997 116.0499988 115.8480012 114.1744997 115.5989988
 116.2030012 113.4834997 116.8979988 116.4209651 113.7607242 116.1029640
 119.0360012 113.3344997 115.0799988 118.1710012 113.4064997 115.4839988
 118.9810012 113.8814997 114.2959988 118.9102085 113.4182685 115.0293362
 123.7460012 113.2224997 114.2549988 123.2900012 113.7514997 113.6009988
 123.9090012 113.8254997 114.9799988 123.7056068 113.3764607 114.2634838
 126.0740012 112.1004997 115.1999988 125.1690012 112.2654997 114.9339988
 126.5030012 112.9534997 115.1349988 126.0081324 112.2384339 115.1547976
 128.6780012 113.6704997 115.4949988 128.4960012 114.5864997 115.2849988
 128.8550012 113.2604997 114.6489988 128.6770210 113.7404822 115.3517885
 115.9830012 112.3574997 112.9599988 115.9650012 111.9324997 113.8169988
 116.7880012 112.0394997 112.5509988 116.0893529 112.2563013 113.0220946
 118.1250012 111.0674997 111.6149988 117.9060012 110.1514997 111.7849988
 118.9490012 111.2074997 112.0809988 118.2064420 110.9610520 111.7012774
 120.6620012 111.5374997 112.4639988 120.8750012 110.6494997 112.1769988
 120.7260012 111.5034997 113.4179988 120.6998231 111.4113102 112.5537397
 124.1700012  97.2014997 111.6079988 123.4960012  96.5724997 111.8639988
 124.7340012  96.7174997 111.0049988 124.1539230  97.0498744 111.5615340
 129.3130012  95.3094997 111.7209988 129.9170012  95.8564997 111.2189988
 128.4430012  95.6284997 111.4799988 129.2781208  95.4275137 111.6196886
 131.0400012  96.4474997 110.0539988 131.6520012  95.9334997 109.5269988
 131.4220012  97.3254997 110.0769988 131.1753371  96.4957866 109.9850041
 116.4970012  95.8354997 109.4299988 115.7200012  95.6014997 108.9229988
 117.0270012  95.0384997 109.4389988 116.4622330  95.6956988 109.3617742
 115.3330012  95.6334997 105.2339988 115.7720012  96.2444997 104.6419988
 114.7000012  96.1714997 105.7079988 115.3074514  95.7899257 105.2170930
 121.0760012  95.7624997 109.2439988 121.9510012  96.1504997 109.2139988
 120.9400012  95.5474997 110.1659988 121.1773695  95.7865184 109.3646440
 126.6330012  95.7924997 110.8929988 126.7090012  95.8874997 109.9429988
 126.3580012  94.8844997 111.0219988 126.6062321  95.6827867 110.7805079
 127.9860012  95.8184997 106.5849988 127.2840012  96.4334997 106.3749988
 127.5420012  94.9804997 106.7159988 127.8296450  95.7895639 106.5739000
 115.2340012 111.5814997 106.1309988 114.5490012 111.5434997 105.4639988
 115.2380012 112.4944997 106.4199988 115.1406998 111.6996733 106.0786771
 122.2200012  97.8424997 106.1329988 122.3980012  97.1964997 106.8159988
 122.1670012  98.6764997 106.5999988 122.2371999  97.8668009 106.2895917
 130.8080012 112.3544997 107.2079988 130.6130012 111.6064997 106.6429988
 130.7690012 113.1124997 106.6249988 130.7760380 112.3546099 107.0518384
 116.4550012  96.3494997 118.9479988 116.0890012  95.5844997 119.3899988
 117.3680012  96.3784997 119.2339988 116.5282736  96.2485640 119.0472502
 118.4280012  95.7004997 120.4839988 119.3260012  95.4264997 120.2989988
 118.0410012  94.9574997 120.9479988 118.4986612  95.5625914 120.5213643
 126.8490012  95.0324997 120.6659988 126.9260012  94.6064997 121.5199988
 127.7430012  95.0464997 120.3229988 126.9803428  94.9760879 120.7365310
 130.0250012 111.1054997 119.3579988 129.2430012 110.9194997 118.8379988
 129.9530012 112.0344997 119.5759988 129.9082274 111.2056643 119.3163018
 144.4310012 104.9914997 109.3889988 144.5200012 105.9354997 109.2569988
 143.7930012 104.7164997 108.7309988 144.3569081 105.0834830 109.2819614
 143.3640012 104.2464997 112.8079988 143.3260012 103.6004997 113.5129988
 143.0420012 103.7804997 112.0369988 143.3152333 104.0949408 112.8002978
 135.7330012 103.8614997 114.4009988 135.7740012 103.2354997 115.1239988
 136.4360012 104.4854997 114.5829988 135.8336363 103.8601196 114.5246044
 136.6560012 108.3114997 112.9359988 136.2870012 107.5094997 112.5659988
 137.5970012 108.1424997 112.9819988 136.7327289 108.1790153 112.8916316
 133.2660012 101.9714997 108.3289988 132.8190012 102.8174997 108.3099988
 132.7050012 101.3914997 107.8129988 133.1289900 102.0089916 108.2566801
 133.9770012 104.1334997 110.4539988 134.1900012 103.3634997 110.9819988
 134.7150012 104.2224997 109.8509988 134.1059044 104.0401968 110.4447123
 144.1820012 112.2904997 111.3209988 144.8020012 111.6134997 111.0479988
 143.9740012 112.0724997 112.2299988 144.2386726 112.1684800 111.4064812
 141.7540012 106.6794997 113.2139988 142.0580012 105.9934997 112.6189988
 142.4750012 106.7974997 113.8319988 141.8930671 106.6016304 113.2161816
 144.8950012 101.0734997 113.5409988 145.0370012 100.1274997 113.5619988
 144.7880012 101.2804997 112.6129988 144.8999919 100.9718246 113.4183408
 138.0490012  99.1744997 110.8139988 138.0930012 100.0344997 110.3949988
 137.5920012  98.6224997 110.1799988 137.9932240  99.2174422 110.6709864
 134.6700012 101.5714997 111.5759988 135.3230012 101.0214997 112.0079988
 134.6940012 101.2974997 110.6589988 134.7626683 101.4591466 111.5112123
 139.8260012 103.1214997 110.7909988 140.4420012 102.5954997 111.3009988
 139.2400012 102.4814997 110.3879988 139.8310810 102.9629208 110.8063173
 136.8600012  98.0924997 114.8879988 136.6410012  98.6224997 114.1219988
 136.1920012  98.3194997 115.5349988 136.7397600  98.1956906 114.8706379
 144.2290012 107.5924997 108.4319988 143.9330012 107.2704997 107.5809988
 143.9040012 108.4924997 108.4729988 144.1446371 107.6700215 108.3211801
 139.4290012 105.7684997 115.1749988 138.6890012 106.3664997 115.2789988
 140.1430012 106.3224997 114.8599988 139.4242237 105.9252831 115.1466465
 136.4530012  99.9844997 112.8399988 137.0670012 100.6174997 113.2129988
 136.9650012  99.5124997 112.1839988 136.6061981 100.0072267 112.8022908
 137.8360012 107.7324997 115.9619988 137.8310012 108.6124997 115.5839988
 136.9830012 107.6494997 116.3869988 137.7199464 107.8416117 115.9677907
 133.9570012 107.4034997 106.7439988 133.6850012 107.6324997 105.8559988
 134.0030012 108.2414997 107.2049988 133.9259482 107.5481318 106.6846273
 140.8860012  95.3984997 112.3399988 140.7690012  94.4494997 112.2859988
 140.0310012  95.7304997 112.6139988 140.7544212  95.3135571 112.3696497
 143.1530012 104.2354997 106.8409988 142.4410012 104.7704997 106.4889988
 143.8440012 104.2914997 106.1809988 143.1490132 104.3162543 106.7036289
 143.2060012 102.6934997 103.8799988 143.9070012 102.7154997 104.5309988
 143.5090012 102.0654997 103.2229988 143.3428133 102.6117070 103.8803369
 138.2040012 105.0754997 109.6749988 137.8730012 104.7054997 108.8569988
 138.7920012 104.4054997 110.0219988 138.2381873 104.9341156 109.6098102
 139.5700012 108.5034997 112.3559988 139.4760012 107.9254997 111.5999988
 140.3000012 108.1324997 112.8529988 139.6557387 108.3741663 112.3195342
 138.5700012 103.8444997 113.3089988 139.1360012 103.9654997 112.5459988
 138.8890012 104.4814997 113.9469988 138.6905474 103.9472219 113.2909862
 144.8790012 109.3474997 114.0429988 144.6390012 110.0094997 114.6909988
 144.6810012 108.5134997 114.4679988 144.8193808 109.3253134 114.1891524
 139.4500012 108.2434997 118.0259988 139.1390012 109.0254997 118.4809988
 138.8000012 108.0904997 117.3399988 139.3195558 108.3299105 117.9955871
 136.3700012 104.4414997 117.2539988 136.4410012 105.0924997 117.9529988
 135.4800012 104.5444997 116.9189988 136.2593005 104.5445427 117.3043495
 143.1560012 110.3444997 108.9129988 143.6300012 110.6394997 109.6899988
 142.5930012 111.0824997 108.6799988 143.1448184 110.4847247 108.9879628
 137.6900012 110.3154997 118.7889988 137.6970012 110.1794997 117.8419988
 136.7740012 110.1974997 119.0409988 137.5671714 110.2809430 118.6934666
 137.1940012 104.1454997 107.2639988 136.9020012 104.9134997 106.7739988
 136.5200012 103.4854997 107.1019988 137.0628111 104.1615587 107.1748978
 133.2870012 106.5084997 116.0789988 132.7860012 106.4804997 115.2639988
 133.2920012 105.6024997 116.3889988 133.2190944 106.3822396 116.0093226
 133.0370012 109.2884997 112.9629988 133.9830012 109.1444997 112.9439988
 132.9250012 110.0724997 113.4999988 133.1512727 109.3748046 113.0330072
 142.2140012 109.5284997 117.5219988 142.3010012 110.3544997 117.9969988
 141.3500012 109.1984997 117.7709988 142.1091964 109.5969878 117.6206549
 142.6280012 113.3004997 107.3279988 142.5530012 113.1794997 106.3809988
 142.6610012 114.2504997 107.4459988 142.6222068 113.4122646 107.2144967
 136.2810012 112.0894997 109.1089988 136.4340012 111.7414997 109.9869988
 135.4310012 111.7334997 108.8539988 136.1869166 111.9936216 109.1948079
 135.5360012 107.8314997 117.1229988 135.7520012 107.4704997 117.9819988
 134.6810012 107.4574997 116.9129988 135.4499292 107.7314111 117.2123386
 138.1550012  96.3014997 113.1179988 137.2930012  96.2144997 112.7099988
 138.1320012  97.1574997 113.5459988 138.0340409  96.4052883 113.1200589
 142.8180012  96.0234997 116.4929988 143.2380012  95.6084997 117.2459988
 141.8850012  95.8454997 116.6099988 142.7493644  95.9425900 116.6119539
 138.2460012 101.2674997 114.2129988 137.6040012 101.2264997 114.9219988
 138.2830012 102.1934997 113.9749988 138.1630664 101.3871430 114.2779219
 138.2430012 101.4884997 109.1249988 137.3500012 101.1474997 109.0659988
 138.6930012 101.1114997 108.3689988 138.1818130 101.3909631 109.0147702
 143.7780012 101.9044997 107.9419988 143.3690012 102.7194997 107.6509988
 144.4990012 101.7644997 107.3279988 143.8194537 101.9972018 107.8191342
 142.8800012 102.0794997 119.4299988 142.3180012 101.3754997 119.7509988
 143.7070012 101.9594997 119.8979988 142.9147095 101.9667883 119.5372330
 144.7830012 101.3504997 110.7559988 144.5880012 101.9554997 110.0409988
 144.9640012 100.5164997 110.3219988 144.7807614 101.3206300 110.5994405
 135.9960012 101.5874997 116.0799988 135.9580012 101.9874997 116.9489988
 135.5050012 100.7704997 116.1709988 135.9244684 101.5318069 116.2111059
 132.6040012  98.7034997 109.9309988 133.2350012  98.6744997 110.6499988
 133.0530012  98.2784997 109.1999988 132.7510918  98.6420836 109.9306441
 144.0470012 102.9884997 115.4269988 144.3700012 102.3574997 114.7839988
 143.6070012 102.4534997 116.0879988 144.0317484 102.8298387 115.4283198
 140.8240012  98.9154997 110.2109988 139.9130012  98.9724997 110.4999988
 141.3300012  98.8554997 111.0219988 140.7676899  98.9151941 110.3601184
 135.6530012 100.5444997 109.0379988 134.7630012 100.6444997 108.6979988
 135.9490012  99.7024997 108.6919988 135.5712823 100.4443545 108.9447213
 139.3060012 100.5444997 106.6949988 140.2370012 100.6734997 106.8729988
 139.0910012 101.2144997 106.0449988 139.4044247 100.6526565 106.6315747
 137.9800012 101.7394997 104.2609988 137.4370012 101.3594997 103.5699988
 138.8130012 101.9334997 103.8329988 138.0183631 101.7137125 104.1084501
 136.1150012 106.2964997 119.3599988 136.8470012 106.5504997 119.9219988
 135.3350012 106.5004997 119.8759988 136.1097073 106.3588160 119.5066151
 142.1440012 101.7034997 112.0979988 142.7090012 101.1564997 111.5509988
 141.9970012 101.1814997 112.8869988 142.2013380 101.5582259 112.1298695
 137.1460012  97.8394997 108.5169988 136.8290012  96.9374997 108.4809988
 137.9280012  97.8414997 107.9639988 137.2082408  97.7162474 108.4373569
 140.7710012 100.0914997 114.5119988 139.9350012 100.5454997 114.6229988
 141.2950012 100.3674997 115.2639988 140.7275416 100.1908660 114.6288119
 142.8340012 106.4884997 117.4339988 142.4890012 106.1074997 118.2409988
 142.6340012 107.4224997 117.5049988 142.7597527 106.5625135 117.5540689
 136.4400012 105.5994997 111.9669988 137.1850012 105.5974997 111.3659988
 136.5180012 104.7764997 112.4479988 136.5524995 105.4878887 111.9498282
 143.4410012 107.7634997 105.2229988 143.1450012 108.5894997 105.6039988
 142.7380012 107.1434997 105.4189988 143.3054914 107.7928199 105.3016443
 133.4480012 104.0604997 117.2819988 133.6710012 103.6424997 118.1139988
 132.8460012 103.4474997 116.8589988 133.3971759 103.9204668 117.3387022
 140.4640012 103.5774997 119.4949988 140.1680012 103.4114997 118.5999988
 141.3960012 103.3574997 119.4839988 140.5494166 103.5250640 119.3710536
 138.8150012 109.1174997 109.3709988 139.3420012 109.8904997 109.1709988
 137.9350012 109.3424997 109.0689988 138.7682031 109.2537545 109.3027912
 134.5700012 103.9794997 103.9579988 135.1860012 104.6064997 104.3379988
 133.7080012 104.2954997 104.2299988 134.5377698 104.1079430 104.0467183
 140.2420012 106.7804997 108.9469988 140.0010012 107.7054997 108.9889988
 139.5010012 106.3214997 109.3439988 140.1089225 106.8450933 109.0063742
 140.7570012 110.9294997 115.2629988 141.1190012 111.7844997 115.0289988
 141.2880012 110.6374997 116.0029988 140.8784473 111.0071060 115.3310855
 138.9250012 111.8024997 108.4929988 137.9750012 111.9074997 108.5439988
 139.2770012 112.6224997 108.8369988 138.8424195 111.9278800 108.5465502
 144.3010012 107.0284997 114.9629988 143.8750012 106.8014997 115.7899988
 144.8810012 106.2904997 114.7809988 144.3211868 106.8975299 115.0515830
 135.0820012  98.8134997 116.8399988 134.1890012  99.1524997 116.7719988
 134.9830012  97.9584997 117.2579988 134.9464164  98.7442588 116.8872235
 134.7330012 110.6184997 115.2749988 134.9500012 109.6864997 115.2439988
 134.9790012 110.8924997 116.1579988 134.7959549 110.5280636 115.3901763
 135.9850012 105.8924997 105.4509988 135.2990012 106.2444997 106.0179988
 136.5070012 106.6554997 105.2039988 135.9616852 106.0438578 105.4952118
 143.8160012  98.5544997 115.7299988 144.5150012  98.6284997 116.3799988
 143.4350012  97.6904997 115.8839988 143.8601767  98.4477624 115.8398322
 144.6010012  98.2064997 106.8269988 144.8210012  98.6784997 106.0239988
 145.1590012  98.6014997 107.4969988 144.7064968  98.3244285 106.8077331
 142.2690012 110.3374997 105.6899988 141.4530012 110.8344997 105.7419988
 142.7990012 110.8124997 105.0499988 142.2289161 110.4697722 105.6105956
 141.8010012  99.9344997 107.6619988 142.6130012 100.4394997 107.7079988
 141.5560012  99.7894997 108.5759988 141.8790520  99.9840375 107.7918517
 142.3360012 100.9204997 116.8459988 142.4550012 101.4944997 117.6039988
 142.9920012 100.2324997 116.9609988 142.4409025 100.9059858 116.9651321
 142.6840012  97.0154997 108.5999988 142.3380012  97.6334997 109.2439988
 143.3430012  97.5164997 108.1179988 142.7256968  97.1676278 108.6229383
 138.3420012  98.0784997 105.2869988 138.2590012  98.9674997 105.6339988
 139.2320012  97.8134997 105.5189988 138.4509469  98.1641430 105.3657626
 136.6010012 108.5064997 104.3479988 137.1930012 109.2054997 104.6239988
 137.0600012 108.0734997 103.6279988 136.7441142 108.5437049 104.2884830
 135.7250012  95.9524997 112.1369988 135.4960012  96.0114997 111.2089988
 135.2820012  95.1604997 112.4429988 135.6338530  95.8535753 112.0514786
 134.6550012 109.8924997 108.2969988 133.8230012 110.3654997 108.3239988
 135.2010012 110.4024997 107.6989988 134.6150352 110.0261332 108.2198463
 133.9430012 112.5054997 119.6269988 134.4840012 112.2884997 120.3869988
 133.4620012 111.6994997 119.4369988 133.9519951 112.3669270 119.7052576
 138.5410012 111.4244997 121.2469988 139.3080012 110.9654997 121.5879988
 138.5190012 111.1984997 120.3179988 138.6431275 111.3310186 121.1680101
 133.8500012 106.3154997 120.5809988 133.9940012 105.4134997 120.2949988
 133.0780012 106.6014997 120.0939988 133.7652753 106.2306816 120.4759505
 140.5060012 106.2854997 120.0139988 140.1770012 106.5564997 119.1569988
 140.6580012 105.3444997 119.9269988 140.4814809 106.1953862 119.8848244
 143.5440012 107.7064997 102.4499988 143.2750012 107.8864997 103.3509988
 143.3380012 106.7804997 102.3179988 143.4793427 107.6060261 102.5555073
 134.6830012 103.5154997 120.0009988 135.0910012 102.6584997 119.8799988
 134.4230012 103.5304997 120.9219988 134.7037568 103.4000807 120.1089588
 138.6300012 102.5244997 117.3759988 138.0120012 103.1994997 117.6559988
 138.9740012 102.8454997 116.5419988 138.5919132 102.6602411 117.3016262
 140.4120012 102.8744997 103.2819988 140.2320012 102.7204997 102.3549988
 141.3620012 102.9824997 103.3269988 140.5157776 102.8680175 103.1611843
 143.6500012 104.9964997 120.6529988 144.6030012 105.0794997 120.6259988
 143.4890012 104.2844997 121.2729988 143.7586426 104.9116746 120.7330579
 138.9690012  99.8794997 118.4579988 139.1190012  99.1504997 117.8559988
 138.9720012 100.6564997 117.8989988 138.9899302  99.8847851 118.3000692
 139.3820012  98.2494997 115.9509988 139.9180012  98.7004997 115.2989988
 138.5300012  98.1414997 115.5279988 139.3402178  98.2966390 115.8045756
 140.9640012 103.6884997 116.1899988 141.7140012 103.5324997 115.6169988
 140.6250012 104.5404997 115.9149988 141.0208921 103.7822968 116.0743561
 137.4480012 101.0774997 120.3699988 136.6810012 100.5454997 120.1589988
 138.1270012 100.7674997 119.7699988 137.4347877 100.9628300 120.2600716
 140.1880012  95.7054997 116.3819988 140.0890012  96.6524997 116.2769988
 139.4450012  95.3334997 115.9059988 140.0741184  95.7845863 116.3033621
 141.4520012 100.0274997 119.9459988 141.2160012  99.8074997 120.8469988
 140.6680012  99.8204997 119.4359988 141.3138504  99.9694586 120.0003431
 144.1670012  99.1544997 119.0209988 143.2200012  99.1864997 119.1539988
 144.4800012  98.5294997 119.6749988 144.0796707  99.0743998 119.1276060
 135.6280012  98.9984997 120.0739988 135.8400012  98.2914997 119.4639988
 135.5170012  98.5604997 120.9179988 135.6419721  98.8427084 120.1046843
 140.4090012  94.9994997 119.0529988 141.1210012  94.3594997 119.0389988
 140.3080012  95.2664997 118.1399988 140.4928066  94.9480079 118.9275677
 140.7630012  96.6824997 121.1069988 140.6310012  96.2064997 120.2869988
 140.1640012  97.4264997 121.0519988 140.6639071  96.7179618 120.9872886
 132.5270012 113.5944997 108.8439988 131.8800012 113.1324997 108.3109988
 132.8810012 112.9224997 109.4259988 132.4863849 113.4404723 108.8497959
 133.3970012 111.6754997 110.6479988 133.0620012 110.7954997 110.8199988
 133.6190012 112.0204997 111.5129988 133.3811783 111.6017500 110.7884208
 133.4770012 104.7504997 113.0999988 133.6610012 104.6684997 112.1639988
 134.3260012 104.6264997 113.5229988 133.6170151 104.7225073 113.0291451
 133.0740012 100.0214997 119.2409988 133.9940012  99.8994997 119.4769988
 132.6250012  99.2714997 119.6299988 133.1391580  99.9033727 119.3259006
 134.2950012  98.3334997 112.1319988 134.7410012  97.5414997 112.4339988
 134.7620012  99.0494997 112.5619988 134.4190831  98.3220685 112.2314006
 132.5990012 101.3324997 113.2009988 133.0910012 101.1114997 112.4099988
 132.9620012 102.1734997 113.4819988 132.7153126 101.4158357 113.1307531
 132.9130012  97.5904997 107.2549988 131.9880012  97.7994997 107.1259988
 133.3670012  98.0744997 106.5649988 132.8477292  97.6845343 107.1440720
 132.8770012  96.3284997 115.5989988 132.2120012  96.0824997 116.2429988
 132.4340012  96.9504997 115.0219988 132.7261318  96.3789410 115.6090898
 135.0690012 109.5034997 119.7439988 134.2480012 109.6784997 119.2829988
 134.8160012 109.4304997 120.6639988 134.9225585 109.5175544 119.8053561
 138.0230012 110.4784997 116.0019988 137.5980012 111.2874997 115.7199988
 138.9270012 110.5634997 115.6999988 138.0869975 110.6009300 115.9224816
 142.3340012 111.8774997 118.9619988 142.5190012 111.5434997 119.8399988
 143.1800012 112.1864997 118.6399988 142.4737539 111.8736047 119.0385605
 144.6790012 113.1634997 118.2059988 145.3560012 112.5304997 117.9659988
 145.0010012 113.5644997 119.0129988 144.8151637 113.1311154 118.2822793
 135.4250012 113.7344997 116.0499988 134.7040012 114.1744997 115.5989988
 135.0590012 113.4834997 116.8979988 135.2769651 113.7607242 116.1029640
 137.8920012 113.3344997 115.0799988 137.0270012 113.4064997 115.4839988
 137.8370012 113.8814997 114.2959988 137.7662085 113.4182685 115.0293362
 142.6020012 113.2224997 114.2549988 142.1460012 113.7514997 113.6009988
 142.7650012 113.8254997 114.9799988 142.5616068 113.3764607 114.2634838
 134.8390012 112.3574997 112.9599988 134.8210012 111.9324997 113.8169988
 135.6440012 112.0394997 112.5509988 134.9453529 112.2563013 113.0220946
 136.9810012 111.0674997 111.6149988 136.7620012 110.1514997 111.7849988
 137.8050012 111.2074997 112.0809988 137.0624420 110.9610520 111.7012774
 139.5180012 111.5374997 112.4639988 139.7310012 110.6494997 112.1769988
 139.5820012 111.5034997 113.4179988 139.5558232 111.4113102 112.5537397
 143.0260012  97.2014997 111.6079988 142.3520012  96.5724997 111.8639988
 143.5900012  96.7174997 111.0049988 143.0099230  97.0498744 111.5615340
 135.3530012  95.8354997 109.4299988 134.5760012  95.6014997 108.9229988
 135.8830012  95.0384997 109.4389988 135.3182330  95.6956988 109.3617742
 134.1890012  95.6334997 105.2339988 134.6280012  96.2444997 104.6419988
 133.5560012  96.1714997 105.7079988 134.1634514  95.7899257 105.2170930
 139.9320012  95.7624997 109.2439988 140.8070012  96.1504997 109.2139988
 139.7960012  95.5474997 110.1659988 140.0333695  95.7865184 109.3646440
 134.0900012 111.5814997 106.1309988 133.4050012 111.5434997 105.4639988
 134.0940012 112.4944997 106.4199988 133.9966998 111.6996733 106.0786771
 141.0760012  97.8424997 106.1329988 141.2540012  97.1964997 106.8159988
 141.0230012  98.6764997 106.5999988 141.0931999  97.8668009 106.2895917
 142.9550012 112.7914997 104.5289988 143.8210012 113.1574997 104.3509988
 142.7080012 112.3514997 103.7149988 143.0402392 112.7821756 104.3946289
 135.3110012  96.3494997 118.9479988 134.9450012  95.5844997 119.3899988
 136.2240012  96.3784997 119.2339988 135.3842736  96.2485640 119.0472502
 137.2840012  95.7004997 120.4839988 138.1820012  95.4264997 120.2989988
 136.8970012  94.9574997 120.9479988 137.3546612  95.5625914 120.5213643
  12.4390012 123.8474997 109.3889988  12.5280012 124.7914997 109.2569988
  11.8010012 123.5724997 108.7309988  12.3649081 123.9394830 109.2819614
  11.3720012 123.1024997 112.8079988  11.3340012 122.4564997 113.5129988
  11.0500012 122.6364997 112.0369988  11.3232333 122.9509408 112.8002978
   3.7410012 122.7174997 114.4009988   3.7820012 122.0914997 115.1239988
   4.4440012 123.3414997 114.5829988   3.8416363 122.7161196 114.5246044
  15.0780012 126.0414997 111.1089988  14.6380012 125.3214997 111.5599988
  15.0650012 126.7624997 111.7389988  15.0160226 126.0403731 111.2558494
   4.6640012 127.1674997 112.9359988   4.2950012 126.3654997 112.5659988
   5.6050012 126.9984997 112.9819988   4.7407289 127.0350153 112.8916316
   1.2740012 120.8274997 108.3289988   0.8270012 121.6734997 108.3099988
   0.7130012 120.2474997 107.8129988   1.1369900 120.8649916 108.2566801
   1.9850012 122.9894997 110.4539988   2.1980012 122.2194997 110.9819988
   2.7230012 123.0784997 109.8509988   2.1139044 122.8961968 110.4447123
  12.1900012 131.1464997 111.3209988  12.8100012 130.4694997 111.0479988
  11.9820012 130.9284997 112.2299988  12.2466726 131.0244800 111.4064812
   9.7620012 125.5354997 113.2139988  10.0660012 124.8494997 112.6189988
  10.4830012 125.6534997 113.8319988   9.9010671 125.4576304 113.2161816
  18.4250012 117.1364997 114.0749988  18.4740012 117.7464997 114.8099988
  18.8500012 117.5974997 113.3519988  18.4891746 117.2823796 114.0779175
  12.9030012 119.9294997 113.5409988  13.0450012 118.9834997 113.5619988
  12.7960012 120.1364997 112.6129988  12.9079919 119.8278246 113.4183408
   6.0570012 118.0304997 110.8139988   6.1010012 118.8904997 110.3949988
   5.6000012 117.4784997 110.1799988   6.0012240 118.0734422 110.6709864
  13.7800012 118.1614997 109.2149988  14.4260012 117.8324997 109.8389988
  14.2900012 118.6794997 108.5919988  13.9374299 118.1864450 109.2162731
   2.6780012 120.4274997 111.5759988   3.3310012 119.8774997 112.0079988
   2.7020012 120.1534997 110.6589988   2.7706683 120.3151466 111.5112123
   7.8340012 121.9774997 110.7909988   8.4500012 121.4514997 111.3009988
   7.2480012 121.3374997 110.3879988   7.8390810 121.8189208 110.8063173
  18.8160012 118.6144997 116.3099988  18.1280012 119.2724997 116.2149988
  18.8320012 118.4174997 117.2469988  18.7239540 118.6779819 116.4235990
   4.8680012 116.9484997 114.8879988   4.6490012 117.4784997 114.1219988
   4.2000012 117.1754997 115.5349988   4.7477600 117.0516906 114.8706379
  12.2370012 126.4484997 108.4319988  11.9410012 126.1264997 107.5809988
  11.9120012 127.3484997 108.4729988  12.1526371 126.5260215 108.3211801
   7.4370012 124.6244997 115.1749988   6.6970012 125.2224997 115.2789988
   8.1510012 125.1784997 114.8599988   7.4322237 124.7812831 115.1466465
  15.5440012 117.4524997 111.1949988  15.3280012 116.6864997 111.7279988
  16.1990012 117.9244997 111.7079988  15.6030632 117.4115889 111.3372861
   4.4610012 118.8404997 112.8399988   5.0750012 119.4734997 113.2129988
   4.9730012 118.3684997 112.1839988   4.6141981 118.8632267 112.8022908
   5.8440012 126.5884997 115.9619988   5.8390012 127.4684997 115.5839988
   4.9910012 126.5054997 116.3869988   5.7279464 126.6976117 115.9677907
   1.9650012 126.2594997 106.7439988   1.6930012 126.4884997 105.8559988
   2.0110012 127.0974997 107.2049988   1.9339482 126.4041318 106.6846273
  15.5900012 127.8814997 113.4569988  14.6490012 127.9394997 113.6189988
  15.8670012 128.7874997 113.3199988  15.4984679 128.0119443 113.4606815
  15.8910012 116.1674997 114.8749988  15.1550012 116.7784997 114.8369988
  16.5740012 116.5824997 114.3479988  15.8826541 116.3071374 114.7985832
   8.8940012 114.2544997 112.3399988   8.7770012 113.3054997 112.2859988
   8.0390012 114.5864997 112.6139988   8.7624212 114.1695571 112.3696497
  13.8420012 129.6624997 110.0819988  14.2680012 128.9554997 109.5969988
  14.1590012 130.4634997 109.6659988  13.9431683 129.6741017 109.9593680
  15.0020012 127.5634997 108.5909988  14.7440012 126.8734997 107.9799988
  15.0730012 127.1204997 109.4369988  14.9762856 127.4092124 108.6216885
  16.6880012 126.1294997 117.0679988  16.8280012 125.5384997 116.3289988
  16.8550012 127.0024997 116.7119988  16.7297411 126.1665428 116.9186894
  18.5300012 122.4694997 115.1339988  17.8770012 123.1644997 115.2239988
  18.9950012 122.6794997 114.3249988  18.5035274 122.5930643 115.0368462
  14.5660012 123.3014997 107.7929988  13.8340012 123.5294997 108.3659988
  15.0140012 122.5874997 108.2469988  14.5262725 123.2362145 107.9328816
  14.4640012 121.4754997 116.8599988  14.5440012 122.2384997 117.4319988
  13.8620012 121.7544997 116.1699988  14.3935756 121.6177134 116.8450589
   6.2120012 123.9314997 109.6749988   5.8810012 123.5614997 108.8569988
   6.8000012 123.2614997 110.0219988   6.2461873 123.7901156 109.6098102
   7.5780012 127.3594997 112.3559988   7.4840012 126.7814997 111.5999988
   8.3080012 126.9884997 112.8529988   7.6637387 127.2301663 112.3195342
   6.5780012 122.7004997 113.3089988   7.1440012 122.8214997 112.5459988
   6.8970012 123.3374997 113.9469988   6.6985474 122.8032219 113.2909862
  12.8870012 128.2034997 114.0429988  12.6470012 128.8654997 114.6909988
  12.6890012 127.3694997 114.4679988  12.8273808 128.1813134 114.1891524
   7.4580012 127.0994997 118.0259988   7.1470012 127.8814997 118.4809988
   6.8080012 126.9464997 117.3399988   7.3275558 127.1859105 117.9955871
   4.3780012 123.2974997 117.2539988   4.4490012 123.9484997 117.9529988
   3.4880012 123.4004997 116.9189988   4.2673005 123.4005427 117.3043495
  11.1640012 129.2004997 108.9129988  11.6380012 129.4954997 109.6899988
  10.6010012 129.9384997 108.6799988  11.1528184 129.3407247 108.9879628
   5.6980012 129.1714997 118.7889988   5.7050012 129.0354997 117.8419988
   4.7820012 129.0534997 119.0409988   5.5751714 129.1369430 118.6934666
  17.1360012 114.2134997 105.2909988  16.2360012 114.3524997 105.5859988
  17.3880012 115.0444997 104.8889988  17.0468702 114.3449074 105.2770205
   5.2020012 123.0014997 107.2639988   4.9100012 123.7694997 106.7739988
   4.5280012 122.3414997 107.1019988   5.0708111 123.0175587 107.1748978
   1.2950012 125.3644997 116.0789988   0.7940012 125.3364997 115.2639988
   1.3000012 124.4584997 116.3889988   1.2270944 125.2382396 116.0093226
   1.0450012 128.1444997 112.9629988   1.9910012 128.0004997 112.9439988
   0.9330012 128.9284997 113.4999988   1.1592727 128.2308046 113.0330072
  19.2430012 128.8104997 118.6459988  19.1940012 127.8554997 118.6089988
  18.4160012 129.0784997 119.0469988  19.1244940 128.7158998 118.6951375
  10.2220012 128.3844997 117.5219988  10.3090012 129.2104997 117.9969988
   9.3580012 128.0544997 117.7709988  10.1171964 128.4529878 117.6206549
  10.6360012 132.1564997 107.3279988  10.5610012 132.0354997 106.3809988
  10.6690012 133.1064997 107.4459988  10.6302068 132.2682646 107.2144967
   4.2890012 130.9454997 109.1089988   4.4420012 130.5974997 109.9869988
   3.4390012 130.5894997 108.8539988   4.1949166 130.8496216 109.1948079
  13.7380012 131.3104997 104.3299988  14.1130012 130.5664997 103.8589988
  13.7420012 131.0404997 105.2489988  13.7899125 131.1720986 104.3896483
  13.4070012 131.2364997 107.0789988  12.4710012 131.3364997 107.2579988
  13.6870012 130.5274997 107.6579988  13.3169553 131.1543406 107.1817087
  16.3950012 120.3034997 119.1259988  15.9880012 120.7844997 118.4049988
  16.4360012 119.3984997 118.8179988  16.3448437 120.2469374 118.9856683
   3.5440012 126.6874997 117.1229988   3.7600012 126.3264997 117.9819988
   2.6890012 126.3134997 116.9129988   3.4579292 126.5874111 117.2123386
   6.1630012 115.1574997 113.1179988   5.3010012 115.0704997 112.7099988
   6.1400012 116.0134997 113.5459988   6.0420409 115.2612883 113.1200589
  10.8260012 114.8794997 116.4929988  11.2460012 114.4644997 117.2459988
   9.8930012 114.7014997 116.6099988  10.7573644 114.7985900 116.6119539
  14.1520012 118.6354997 117.3459988  13.6380012 118.5094997 118.1439988
  13.9970012 119.5474997 117.1019988  14.0606852 118.7416132 117.4222158
  10.4870012 117.3724997 103.7779988  10.2340012 117.3914997 104.7009988
  10.2310012 116.5004997 103.4759988  10.4177481 117.2572558 103.8636175
   6.2540012 120.1234997 114.2129988   5.6120012 120.0824997 114.9219988
   6.2910012 121.0494997 113.9749988   6.1710664 120.2431430 114.2779219
   6.2510012 120.3444997 109.1249988   5.3580012 120.0034997 109.0659988
   6.7010012 119.9674997 108.3689988   6.1898130 120.2469631 109.0147702
  11.7860012 120.7604997 107.9419988  11.3770012 121.5754997 107.6509988
  12.5070012 120.6204997 107.3279988  11.8274537 120.8532018 107.8191342
  10.8880012 120.9354997 119.4299988  10.3260012 120.2314997 119.7509988
  11.7150012 120.8154997 119.8979988  10.9227095 120.8227883 119.5372330
  12.7910012 120.2064997 110.7559988  12.5960012 120.8114997 110.0409988
  12.9720012 119.3724997 110.3219988  12.7887614 120.1766300 110.5994405
   4.0040012 120.4434997 116.0799988   3.9660012 120.8434997 116.9489988
   3.5130012 119.6264997 116.1709988   3.9324684 120.3878069 116.2111059
   0.6120012 117.5594997 109.9309988   1.2430012 117.5304997 110.6499988
   1.0610012 117.1344997 109.1999988   0.7590918 117.4980836 109.9306441
  12.0550012 121.8444997 115.4269988  12.3780012 121.2134997 114.7839988
  11.6150012 121.3094997 116.0879988  12.0397484 121.6858387 115.4283198
   8.8320012 117.7714997 110.2109988   7.9210012 117.8284997 110.4999988
   9.3380012 117.7114997 111.0219988   8.7756899 117.7711941 110.3601184
   3.6610012 119.4004997 109.0379988   2.7710012 119.5004997 108.6979988
   3.9570012 118.5584997 108.6919988   3.5792823 119.3003545 108.9447213
   7.3140012 119.4004997 106.6949988   8.2450012 119.5294997 106.8729988
   7.0990012 120.0704997 106.0449988   7.4124247 119.5086565 106.6315747
  13.2370012 117.0064997 113.4759988  12.5610012 117.1374997 114.1399988
  12.7520012 116.8514997 112.6649988  13.0787146 117.0035157 113.4574469
  16.5250012 132.6784997 119.7519988  16.7250012 133.1024997 118.9179988
  17.1800012 133.0214997 120.3589988  16.6410072 132.7829857 119.7198592
   4.1230012 125.1524997 119.3599988   4.8550012 125.4064997 119.9219988
   3.3430012 125.3564997 119.8759988   4.1177073 125.2148160 119.5066151
  10.1520012 120.5594997 112.0979988  10.7170012 120.0124997 111.5509988
  10.0050012 120.0374997 112.8869988  10.2093380 120.4142259 112.1298695
   5.1540012 116.6954997 108.5169988   4.8370012 115.7934997 108.4809988
   5.9360012 116.6974997 107.9639988   5.2162408 116.5722474 108.4373569
   8.7790012 118.9474997 114.5119988   7.9430012 119.4014997 114.6229988
   9.3030012 119.2234997 115.2639988   8.7355416 119.0468660 114.6288119
   9.3230012 125.1604997 106.1969988   8.5780012 124.6534997 105.8749988
   9.1890012 125.2094997 107.1439988   9.2028776 125.0976940 106.2808647
  16.4730012 124.2934997 114.9839988  17.1150012 124.7504997 114.4399988
  15.6430012 124.4064997 114.5209988  16.4485963 124.3712704 114.8470177
  13.2210012 117.9744997 104.3959988  12.2820012 118.0864997 104.2449988
  13.5180012 118.8314997 104.7029988  13.1327583 118.1055981 104.4168337
  10.8420012 125.3444997 117.4339988  10.4970012 124.9634997 118.2409988
  10.6420012 126.2784997 117.5049988  10.7677527 125.4185135 117.5540689
  13.9390012 119.8414997 106.0569988  14.8310012 119.7044997 106.3759988
  13.9960012 120.6324997 105.5199988  14.0686504 119.9296052 106.0280818
   4.4480012 124.4554997 111.9669988   5.1930012 124.4534997 111.3659988
   4.5260012 123.6324997 112.4479988   4.5604995 124.3438887 111.9498282
   1.4560012 122.9164997 117.2819988   1.6790012 122.4984997 118.1139988
   0.8540012 122.3034997 116.8589988   1.4051759 122.7764668 117.3387022
   8.4720012 122.4334997 119.4949988   8.1760012 122.2674997 118.5999988
   9.4040012 122.2134997 119.4839988   8.5574166 122.3810640 119.3710536
  13.0930012 127.8064997 117.3849988  12.1920012 127.9894997 117.1169988
  13.1270012 128.0654997 118.3049988  12.9743139 127.8665849 117.4728099
  18.7870012 125.8514997 118.5889988  17.9360012 126.0894997 118.2219988
  19.3780012 125.8344997 117.8359988  18.7502487 125.8818258 118.4368893
  14.2800012 123.6454997 113.2379988  13.3510012 123.4134997 113.2109988
  14.7310012 122.8684997 112.9079988  14.2139216 123.5087238 113.1896917
   6.8230012 127.9734997 109.3709988   7.3500012 128.7464997 109.1709988
   5.9430012 128.1984997 109.0689988   6.7762031 128.1097545 109.3027912
   2.5780012 122.8354997 103.9579988   3.1940012 123.4624997 104.3379988
   1.7160012 123.1514997 104.2299988   2.5457698 122.9639430 104.0467183
   8.2500012 125.6364997 108.9469988   8.0090012 126.5614997 108.9889988
   7.5090012 125.1774997 109.3439988   8.1169225 125.7010933 109.0063742
   8.7650012 129.7854997 115.2629988   9.1270012 130.6404997 115.0289988
   9.2960012 129.4934997 116.0029988   8.8864473 129.8631060 115.3310855
   6.9330012 130.6584997 108.4929988   5.9830012 130.7634997 108.5439988
   7.2850012 131.4784997 108.8369988   6.8504195 130.7838800 108.5465502
  12.3090012 125.8844997 114.9629988  11.8830012 125.6574997 115.7899988
  12.8890012 125.1464997 114.7809988  12.3291868 125.7535299 115.0515830
  14.5120012 126.8134997 104.0369988  14.8650012 126.4334997 104.8409988
  13.5630012 126.7204997 104.1239988  14.4320918 126.7488956 104.1588532
  14.9670012 130.4364997 117.4329988  14.3660012 129.8814997 116.9369988
  15.2490012 131.1034997 116.8059988  14.9228804 130.4506625 117.2804849
   3.0900012 117.6694997 116.8399988   2.1970012 118.0084997 116.7719988
   2.9910012 116.8144997 117.2579988   2.9544164 117.6002588 116.8872235
  15.3780012 125.4864997 106.2639988  15.1000012 124.7584997 106.8199988
  16.3050012 125.6054997 106.4689988  15.4653124 125.4028802 106.3678845
   2.7410012 129.4744997 115.2749988   2.9580012 128.5424997 115.2439988
   2.9870012 129.7484997 116.1579988   2.8039549 129.3840636 115.3901763
   8.6030012 127.9254997 102.4839988   8.8420012 127.1774997 101.9369988
   8.3340012 127.5374997 103.3169988   8.5993675 127.7706638 102.5216865
   3.9930012 124.7484997 105.4509988   3.3070012 125.1004997 106.0179988
   4.5150012 125.5114997 105.2039988   3.9696852 124.8998578 105.4952118
  11.8240012 117.4104997 115.7299988  12.5230012 117.4844997 116.3799988
  11.4430012 116.5464997 115.8839988  11.8681767 117.3037624 115.8398322
  12.6090012 117.0624997 106.8269988  12.8290012 117.5344997 106.0239988
  13.1670012 117.4574997 107.4969988  12.7144968 117.1804285 106.8077331
  10.2770012 129.1934997 105.6899988   9.4610012 129.6904997 105.7419988
  10.8070012 129.6684997 105.0499988  10.2369161 129.3257722 105.6105956
   9.8090012 118.7904997 107.6619988  10.6210012 119.2954997 107.7079988
   9.5640012 118.6454997 108.5759988   9.8870520 118.8400375 107.7918517
  10.3440012 119.7764997 116.8459988  10.4630012 120.3504997 117.6039988
  11.0000012 119.0884997 116.9609988  10.4489025 119.7619858 116.9651321
  10.6920012 115.8714997 108.5999988  10.3460012 116.4894997 109.2439988
  11.3510012 116.3724997 108.1179988  10.7336968 116.0236278 108.6229383
   7.6160012 130.2374997 105.6709988   7.7760012 131.0364997 105.1709988
   7.4180012 130.5434997 106.5559988   7.6111637 130.3884020 105.7221144
  16.5490012 117.6834997 117.6809988  15.6320012 117.9464997 117.5939988
  16.8840012 117.6804997 116.7849988  16.4688613 117.7190761 117.5478837
  15.1510012 121.4344997 111.7769988  14.3530012 121.0194997 111.4489988
  15.5960012 120.7434997 112.2679988  15.1019885 121.2843543 111.7984889
  16.2370012 130.6904997 113.3999988  16.0820012 131.3684997 112.7419988
  17.1700012 130.7624997 113.6029988  16.3418657 130.7929546 113.3374360
   3.7330012 114.8084997 112.1369988   3.5040012 114.8674997 111.2089988
   3.2900012 114.0164997 112.4429988   3.6418530 114.7095753 112.0514786
   2.6630012 128.7484997 108.2969988   1.8310012 129.2214997 108.3239988
   3.2090012 129.2584997 107.6989988   2.6230352 128.8821332 108.2198463
   1.9510012 131.3614997 119.6269988   2.4920012 131.1444997 120.3869988
   1.4700012 130.5554997 119.4369988   1.9599951 131.2229270 119.7052576
   6.5490012 130.2804997 121.2469988   7.3160012 129.8214997 121.5879988
   6.5270012 130.0544997 120.3179988   6.6511275 130.1870186 121.1680101
  13.1260012 128.6604997 119.9769988  12.7750012 127.8044997 120.2199988
  13.8520012 128.8034997 120.5839988  13.1760769 128.5625636 120.0923619
  15.2450012 129.6054997 102.8559988  15.5280012 128.8114997 103.3089988
  15.9850012 129.8384997 102.2959988  15.3838006 129.5283376 102.8422715
   1.8580012 125.1714997 120.5809988   2.0020012 124.2694997 120.2949988
   1.0860012 125.4574997 120.0939988   1.7732753 125.0866816 120.4759505
   8.5140012 125.1414997 120.0139988   8.1850012 125.4124997 119.1569988
   8.6660012 124.2004997 119.9269988   8.4894809 125.0513862 119.8848244
  14.2480012 125.0574997 117.3969988  14.9940012 125.6454997 117.2779988
  13.4910012 125.6394997 117.4609988  14.2477820 125.2167143 117.3893590
   2.6910012 122.3714997 120.0009988   3.0990012 121.5144997 119.8799988
   2.4310012 122.3864997 120.9219988   2.7117568 122.2560807 120.1089588
   7.3490012 123.4874997 105.0199988   6.8890012 123.0034997 105.7059988
   7.6040012 122.8194997 104.3839988   7.3204902 123.3308731 105.0279334
   6.6380012 121.3804997 117.3759988   6.0200012 122.0554997 117.6559988
   6.9820012 121.7014997 116.5419988   6.5999132 121.5162411 117.3016262
  11.6580012 123.8524997 120.6529988  12.6110012 123.9354997 120.6259988
  11.4970012 123.1404997 121.2729988  11.7666426 123.7676746 120.7330579
  17.8100012 124.0854997 102.7279988  17.5360012 123.6604997 101.9149988
  17.8490012 125.0164997 102.5109988  17.7777699 124.1532484 102.5873610
   6.9770012 118.7354997 118.4579988   7.1270012 118.0064997 117.8559988
   6.9800012 119.5124997 117.8989988   6.9979302 118.7407851 118.3000692
   7.3900012 117.1054997 115.9509988   7.9260012 117.5564997 115.2989988
   6.5380012 116.9974997 115.5279988   7.3482178 117.1526390 115.8045756
   8.9720012 122.5444997 116.1899988   9.7220012 122.3884997 115.6169988
   8.6330012 123.3964997 115.9149988   9.0288921 122.6382968 116.0743561
  13.3870012 120.3594997 121.2189988  13.5800012 119.4284997 121.1069988
  14.2450012 120.7844997 121.2079988  13.5292934 120.2896531 121.2022031
  14.7040012 123.1484997 119.2959988  14.4230012 123.8574997 118.7179988
  15.6470012 123.0754997 119.1449988  14.7929291 123.2356711 119.1964967
   5.4560012 119.9334997 120.3699988   4.6890012 119.4014997 120.1589988
   6.1350012 119.6234997 119.7699988   5.4427877 119.8188300 120.2600716
   8.1960012 114.5614997 116.3819988   8.0970012 115.5084997 116.2769988
   7.4530012 114.1894997 115.9059988   8.0821184 114.6405863 116.3033621
   9.4600012 118.8834997 119.9459988   9.2240012 118.6634997 120.8469988
   8.6760012 118.6764997 119.4359988   9.3218504 118.8254586 120.0003431
  12.1750012 118.0104997 119.0209988  11.2280012 118.0424997 119.1539988
  12.4880012 117.3854997 119.6749988  12.0876707 117.9303998 119.1276060
  13.8090012 116.6444997 121.0269988  13.7130012 115.6924997 121.0209988
  13.4880012 116.9134997 121.8869988  13.7524070 116.5504035 121.1425441
   3.6360012 117.8544997 120.0739988   3.8480012 117.1474997 119.4639988
   3.5250012 117.4164997 120.9179988   3.6499721 117.6987084 120.1046843
   8.4170012 113.8554997 119.0529988   9.1290012 113.2154997 119.0389988
   8.3160012 114.1224997 118.1399988   8.5008066 113.8040079 118.9275677
   8.7710012 115.5384997 121.1069988   8.6390012 115.0624997 120.2869988
   8.1720012 116.2824997 121.0519988   8.6719071 115.5739618 120.9872886
   0.5350012 132.4504997 108.8439988  -0.1119988 131.9884997 108.3109988
   0.8890012 131.7784997 109.4259988   0.4943849 132.2964723 108.8497959
   1.4050012 130.5314997 110.6479988   1.0700012 129.6514997 110.8199988
   1.6270012 130.8764997 111.5129988   1.3891783 130.4577501 110.7884208
  18.9530012 131.3404997 113.6289988  18.9320012 131.5254997 114.5679988
  19.6440012 131.9094997 113.2879988  19.0434618 131.4426606 113.7113864
  18.5170012 130.9084997 116.5509988  18.0290012 130.1724997 116.1789988
  19.0660012 130.5144997 117.2289988  18.5244820 130.7545889 116.5917813
  16.9670012 126.6974997 121.1889988  16.1010012 126.5924997 121.5829988
  17.3440012 127.4564997 121.6349988  16.8993308 126.7856900 121.3032393
  18.2680012 124.9544997 106.7029988  19.1180012 125.3754997 106.8299988
  18.2740012 124.2144997 107.3099988  18.3851372 124.9120803 106.8024344
  18.6630012 123.0074997 108.5259988  17.9360012 122.5284997 108.9239988
  19.2440012 123.2134997 109.2589988  18.6420473 122.9698103 108.6794528
  18.4220012 125.7924997 113.4739988  19.2550012 125.4144997 113.1939988
  18.5340012 126.7354997 113.3549988  18.5512647 125.8682218 113.4195487
  16.9080012 128.6704997 115.7809988  16.2610012 128.9954997 116.4069988
  16.3910012 128.2304997 115.1069988  16.7494029 128.6555004 115.7755827
  16.4490012 121.5284997 109.0889988  16.2990012 120.5834997 109.0689988
  16.0960012 121.8094997 109.9329988  16.3807448 121.4371481 109.2003705
   1.4850012 123.6064997 113.0999988   1.6690012 123.5244997 112.1639988
   2.3340012 123.4824997 113.5229988   1.6250151 123.5785073 113.0291451
  17.3060012 123.4984997 118.7279988  17.8890012 122.7644997 118.9199988
  17.8700012 124.2704997 118.7749988  17.4619769 123.5024227 118.7606159
  18.8020012 121.4014997 119.4129988  17.9390012 121.0224997 119.2469988
  19.4070012 120.6624997 119.3379988  18.7656119 121.2498268 119.3801528
  16.5270012 117.5564997 102.5859988  17.1380012 117.1854997 103.2229988
  15.6910012 117.1354997 102.7819988  16.4975032 117.4487554 102.6997035
  16.1600012 119.1114997 107.5519988  16.4400012 118.2044997 107.6759988
  16.9190012 119.5454997 107.1629988  16.3009277 119.0460942 107.5163682
  16.7720012 119.6924997 112.9879988  17.7050012 119.9044997 112.9529988
  16.5370012 119.7944997 113.9099988  16.8679244 119.7353100 113.1078892
  16.8010012 120.4294997 115.7639988  15.9580012 120.6974997 116.1299988
  17.2430012 121.2514997 115.5529988  16.7454158 120.5773291 115.7855491
   1.0820012 118.8774997 119.2409988   2.0020012 118.7554997 119.4769988
   0.6330012 118.1274997 119.6299988   1.1471580 118.7593727 119.3259006
  19.0840012 114.4094997 121.1169988  19.4340012 113.7554997 120.5119988
  19.2310012 115.2464997 120.6769988  19.1517887 114.4331548 120.9746858
  16.7730012 116.3744997 107.5999988  16.9560012 115.9254997 108.4259988
  16.1740012 115.7894997 107.1369988  16.7170202 116.2339975 107.6503275
   2.3030012 117.1894997 112.1319988   2.7490012 116.3974997 112.4339988
   2.7700012 117.9054997 112.5619988   2.4270831 117.1780685 112.2314006
   0.6070012 120.1884997 113.2009988   1.0990012 119.9674997 112.4099988
   0.9700012 121.0294997 113.4819988   0.7233126 120.2718357 113.1307531
  18.6040012 116.5184997 119.4659988  17.6860012 116.7894997 119.4309988
  18.7270012 115.9834997 118.6819988  18.4949729 116.4832508 119.3551923
   0.9210012 116.4464997 107.2549988  -0.0039988 116.6554997 107.1259988
   1.3750012 116.9304997 106.5649988   0.8557292 116.5405343 107.1440720
  15.6920012 131.4304997 109.2009988  16.3440012 131.0834997 108.5929988
  16.2020012 131.9194997 109.8469988  15.8502637 131.4490597 109.2050236
   0.8850012 115.1844997 115.5989988   0.2200012 114.9384997 116.2429988
   0.4420012 115.8064997 115.0219988   0.7341318 115.2349410 115.6090898
   3.0770012 128.3594997 119.7439988   2.2560012 128.5344997 119.2829988
   2.8240012 128.2864997 120.6639988   2.9305585 128.3735544 119.8053561
   6.0310012 129.3344997 116.0019988   5.6060012 130.1434997 115.7199988
   6.9350012 129.4194997 115.6999988   6.0949975 129.4569300 115.9224816
  10.3420012 130.7334997 118.9619988  10.5270012 130.3994997 119.8399988
  11.1880012 131.0424997 118.6399988  10.4817539 130.7296047 119.0385605
  12.6870012 132.0194997 118.2059988  13.3640012 131.3864997 117.9659988
  13.0090012 132.4204997 119.0129988  12.8231637 131.9871154 118.2822793
  17.6040012 114.6084997 117.2849988  16.7920012 114.9334997 116.8979988
  17.8370012 113.8484997 116.7519988  17.5242203 114.5502758 117.1598880
   3.4330012 132.5904997 116.0499988   2.7120012 133.0304997 115.5989988
   3.0670012 132.3394997 116.8979988   3.2849651 132.6167242 116.1029640
   5.9000012 132.1904997 115.0799988   5.0350012 132.2624997 115.4839988
   5.8450012 132.7374997 114.2959988   5.7742085 132.2742685 115.0293362
  10.6100012 132.0784997 114.2549988  10.1540012 132.6074997 113.6009988
  10.7730012 132.6814997 114.9799988  10.5696068 132.2324607 114.2634838
  12.9380012 130.9564997 115.1999988  12.0330012 131.1214997 114.9339988
  13.3670012 131.8094997 115.1349988  12.8721324 131.0944339 115.1547976
  15.5420012 132.5264997 115.4949988  15.3600012 133.4424997 115.2849988
  15.7190012 132.1164997 114.6489988  15.5410210 132.5964822 115.3517885
   2.8470012 131.2134997 112.9599988   2.8290012 130.7884997 113.8169988
   3.6520012 130.8954997 112.5509988   2.9533529 131.1123013 113.0220946
   4.9890012 129.9234997 111.6149988   4.7700012 129.0074997 111.7849988
   5.8130012 130.0634997 112.0809988   5.0704420 129.8170520 111.7012774
   7.5260012 130.3934997 112.4639988   7.7390012 129.5054997 112.1769988
   7.5900012 130.3594997 113.4179988   7.5638231 130.2673102 112.5537397
  11.0340012 116.0574997 111.6079988  10.3600012 115.4284997 111.8639988
  11.5980012 115.5734997 111.0049988  11.0179230 115.9058744 111.5615340
  16.1770012 114.1654997 111.7209988  16.7810012 114.7124997 111.2189988
  15.3070012 114.4844997 111.4799988  16.1421208 114.2835137 111.6196886
  17.9040012 115.3034997 110.0539988  18.5160012 114.7894997 109.5269988
  18.2860012 116.1814997 110.0769988  18.0393371 115.3517866 109.9850041
   3.3610012 114.6914997 109.4299988   2.5840012 114.4574997 108.9229988
   3.8910012 113.8944997 109.4389988   3.3262330 114.5516988 109.3617742
   7.9400012 114.6184997 109.2439988   8.8150012 115.0064997 109.2139988
   7.8040012 114.4034997 110.1659988   8.0413695 114.6425184 109.3646440
  13.4970012 114.6484997 110.8929988  13.5730012 114.7434997 109.9429988
  13.2220012 113.7404997 111.0219988  13.4702321 114.5387867 110.7805079
  14.8500012 114.6744997 106.5849988  14.1480012 115.2894997 106.3749988
  14.4060012 113.8364997 106.7159988  14.6936450 114.6455639 106.5739000
   2.0980012 130.4374997 106.1309988   1.4130012 130.3994997 105.4639988
   2.1020012 131.3504997 106.4199988   2.0046998 130.5556733 106.0786771
   9.0840012 116.6984997 106.1329988   9.2620012 116.0524997 106.8159988
   9.0310012 117.5324997 106.5999988   9.1011999 116.7228009 106.2895917
  17.6720012 131.2104997 107.2079988  17.4770012 130.4624997 106.6429988
  17.6330012 131.9684997 106.6249988  17.6400380 131.2106099 107.0518384
   3.3190012 115.2054997 118.9479988   2.9530012 114.4404997 119.3899988
   4.2320012 115.2344997 119.2339988   3.3922736 115.1045640 119.0472502
   5.2920012 114.5564997 120.4839988   6.1900012 114.2824997 120.2989988
   4.9050012 113.8134997 120.9479988   5.3626612 114.4185914 120.5213643
   3.9160012 131.3574997 103.1569988   3.6490012 131.6444997 104.0299988
   4.6880012 130.8114997 103.3089988   3.9837488 131.3230294 103.2971050
  13.7130012 113.8884997 120.6659988  13.7900012 113.4624997 121.5199988
  14.6070012 113.9024997 120.3229988  13.8443428 113.8320879 120.7365310
  16.8890012 129.9614997 119.3579988  16.1070012 129.7754997 118.8379988
  16.8170012 130.8904997 119.5759988  16.7722274 130.0616643 119.3163018
  31.2950012 123.8474997 109.3889988  31.3840012 124.7914997 109.2569988
  30.6570012 123.5724997 108.7309988  31.2209081 123.9394830 109.2819614
  30.2280012 123.1024997 112.8079988  30.1900012 122.4564997 113.5129988
  29.9060012 122.6364997 112.0369988  30.1792333 122.9509408 112.8002978
  22.5970012 122.7174997 114.4009988  22.6380012 122.0914997 115.1239988
  23.3000012 123.3414997 114.5829988  22.6976363 122.7161196 114.5246044
  33.9340012 126.0414997 111.1089988  33.4940012 125.3214997 111.5599988
  33.9210012 126.7624997 111.7389988  33.8720226 126.0403731 111.2558494
  23.5200012 127.1674997 112.9359988  23.1510012 126.3654997 112.5659988
  24.4610012 126.9984997 112.9819988  23.5967289 127.0350153 112.8916316
  20.1300012 120.8274997 108.3289988  19.6830012 121.6734997 108.3099988
  19.5690012 120.2474997 107.8129988  19.9929900 120.8649916 108.2566801
  20.8410012 122.9894997 110.4539988  21.0540012 122.2194997 110.9819988
  21.5790012 123.0784997 109.8509988  20.9699044 122.8961968 110.4447123
  31.0460012 131.1464997 111.3209988  31.6660012 130.4694997 111.0479988
  30.8380012 130.9284997 112.2299988  31.1026726 131.0244800 111.4064812
  28.6180012 125.5354997 113.2139988  28.9220012 124.8494997 112.6189988
  29.3390012 125.6534997 113.8319988  28.7570671 125.4576305 113.2161816
  37.2810012 117.1364997 114.0749988  37.3300012 117.7464997 114.8099988
  37.7060012 117.5974997 113.3519988  37.3451746 117.2823796 114.0779175
  31.7590012 119.9294997 113.5409988  31.9010012 118.9834997 113.5619988
  31.6520012 120.1364997 112.6129988  31.7639919 119.8278246 113.4183408
  24.9130012 118.0304997 110.8139988  24.9570012 118.8904997 110.3949988
  24.4560012 117.4784997 110.1799988  24.8572240 118.0734422 110.6709864
  32.6360012 118.1614997 109.2149988  33.2820012 117.8324997 109.8389988
  33.1460012 118.6794997 108.5919988  32.7934299 118.1864450 109.2162731
  21.5340012 120.4274997 111.5759988  22.1870012 119.8774997 112.0079988
  21.5580012 120.1534997 110.6589988  21.6266683 120.3151466 111.5112123
  26.6900012 121.9774997 110.7909988  27.3060012 121.4514997 111.3009988
  26.1040012 121.3374997 110.3879988  26.6950810 121.8189208 110.8063173
  37.6720012 118.6144997 116.3099988  36.9840012 119.2724997 116.2149988
  37.6880012 118.4174997 117.2469988  37.5799540 118.6779819 116.4235990
  23.7240012 116.9484997 114.8879988  23.5050012 117.4784997 114.1219988
  23.0560012 117.1754997 115.5349988  23.6037600 117.0516906 114.8706379
  31.0930012 126.4484997 108.4319988  30.7970012 126.1264997 107.5809988
  30.7680012 127.3484997 108.4729988  31.0086371 126.5260215 108.3211801
  26.2930012 124.6244997 115.1749988  25.5530012 125.2224997 115.2789988
  27.0070012 125.1784997 114.8599988  26.2882237 124.7812831 115.1466465
  34.4000012 117.4524997 111.1949988  34.1840012 116.6864997 111.7279988
  35.0550012 117.9244997 111.7079988  34.4590632 117.4115889 111.3372861
  23.3170012 118.8404997 112.8399988  23.9310012 119.4734997 113.2129988
  23.8290012 118.3684997 112.1839988  23.4701981 118.8632267 112.8022908
  24.7000012 126.5884997 115.9619988  24.6950012 127.4684997 115.5839988
  23.8470012 126.5054997 116.3869988  24.5839464 126.6976117 115.9677907
  20.8210012 126.2594997 106.7439988  20.5490012 126.4884997 105.8559988
  20.8670012 127.0974997 107.2049988  20.7899482 126.4041318 106.6846273
  34.4460012 127.8814997 113.4569988  33.5050012 127.9394997 113.6189988
  34.7230012 128.7874997 113.3199988  34.3544679 128.0119443 113.4606815
  34.7470012 116.1674997 114.8749988  34.0110012 116.7784997 114.8369988
  35.4300012 116.5824997 114.3479988  34.7386541 116.3071374 114.7985832
  27.7500012 114.2544997 112.3399988  27.6330012 113.3054997 112.2859988
  26.8950012 114.5864997 112.6139988  27.6184212 114.1695571 112.3696497
  32.6980012 129.6624997 110.0819988  33.1240012 128.9554997 109.5969988
  33.0150012 130.4634997 109.6659988  32.7991683 129.6741017 109.9593680
  33.8580012 127.5634997 108.5909988  33.6000012 126.8734997 107.9799988
  33.9290012 127.1204997 109.4369988  33.8322856 127.4092124 108.6216885
  35.5440012 126.1294997 117.0679988  35.6840012 125.5384997 116.3289988
  35.7110012 127.0024997 116.7119988  35.5857411 126.1665428 116.9186894
  30.0170012 123.0914997 106.8409988  29.3050012 123.6264997 106.4889988
  30.7080012 123.1474997 106.1809988  30.0130132 123.1722543 106.7036289
  30.0700012 121.5494997 103.8799988  30.7710012 121.5714997 104.5309988
  30.3730012 120.9214997 103.2229988  30.2068133 121.4677070 103.8803369
  37.3860012 122.4694997 115.1339988  36.7330012 123.1644997 115.2239988
  37.8510012 122.6794997 114.3249988  37.3595274 122.5930643 115.0368462
  33.4220012 123.3014997 107.7929988  32.6900012 123.5294997 108.3659988
  33.8700012 122.5874997 108.2469988  33.3822725 123.2362145 107.9328816
  33.3200012 121.4754997 116.8599988  33.4000012 122.2384997 117.4319988
  32.7180012 121.7544997 116.1699988  33.2495756 121.6177134 116.8450589
  25.0680012 123.9314997 109.6749988  24.7370012 123.5614997 108.8569988
  25.6560012 123.2614997 110.0219988  25.1021873 123.7901156 109.6098102
  26.4340012 127.3594997 112.3559988  26.3400012 126.7814997 111.5999988
  27.1640012 126.9884997 112.8529988  26.5197387 127.2301663 112.3195342
  25.4340012 122.7004997 113.3089988  26.0000012 122.8214997 112.5459988
  25.7530012 123.3374997 113.9469988  25.5545474 122.8032219 113.2909862
  31.7430012 128.2034997 114.0429988  31.5030012 128.8654997 114.6909988
  31.5450012 127.3694997 114.4679988  31.6833808 128.1813134 114.1891524
  26.3140012 127.0994997 118.0259988  26.0030012 127.8814997 118.4809988
  25.6640012 126.9464997 117.3399988  26.1835558 127.1859105 117.9955871
  32.2930012 122.4634997 105.4779988  32.8730012 122.6134997 106.2249988
  32.7070012 122.9344997 104.7539988  32.4282997 122.5476578 105.4824058
  23.2340012 123.2974997 117.2539988  23.3050012 123.9484997 117.9529988
  22.3440012 123.4004997 116.9189988  23.1233005 123.4005427 117.3043495
  30.0200012 129.2004997 108.9129988  30.4940012 129.4954997 109.6899988
  29.4570012 129.9384997 108.6799988  30.0088184 129.3407247 108.9879628
  24.5540012 129.1714997 118.7889988  24.5610012 129.0354997 117.8419988
  23.6380012 129.0534997 119.0409988  24.4311714 129.1369430 118.6934666
  35.9920012 114.2134997 105.2909988  35.0920012 114.3524997 105.5859988
  36.2440012 115.0444997 104.8889988  35.9028702 114.3449074 105.2770205
  24.0580012 123.0014997 107.2639988  23.7660012 123.7694997 106.7739988
  23.3840012 122.3414997 107.1019988  23.9268111 123.0175587 107.1748978
  20.1510012 125.3644997 116.0789988  19.6500012 125.3364997 115.2639988
  20.1560012 124.4584997 116.3889988  20.0830944 125.2382396 116.0093226
  19.9010012 128.1444997 112.9629988  20.8470012 128.0004997 112.9439988
  19.7890012 128.9284997 113.4999988  20.0152727 128.2308046 113.0330072
  38.0990012 128.8104997 118.6459988  38.0500012 127.8554997 118.6089988
  37.2720012 129.0784997 119.0469988  37.9804940 128.7158998 118.6951375
  29.0780012 128.3844997 117.5219988  29.1650012 129.2104997 117.9969988
  28.2140012 128.0544997 117.7709988  28.9731964 128.4529878 117.6206549
  29.4920012 132.1564997 107.3279988  29.4170012 132.0354997 106.3809988
  29.5250012 133.1064997 107.4459988  29.4862068 132.2682646 107.2144967
  23.1450012 130.9454997 109.1089988  23.2980012 130.5974997 109.9869988
  22.2950012 130.5894997 108.8539988  23.0509166 130.8496216 109.1948079
  32.2630012 131.2364997 107.0789988  31.3270012 131.3364997 107.2579988
  32.5430012 130.5274997 107.6579988  32.1729553 131.1543406 107.1817087
  35.2510012 120.3034997 119.1259988  34.8440012 120.7844997 118.4049988
  35.2920012 119.3984997 118.8179988  35.2008437 120.2469374 118.9856683
  22.4000012 126.6874997 117.1229988  22.6160012 126.3264997 117.9819988
  21.5450012 126.3134997 116.9129988  22.3139292 126.5874111 117.2123386
  25.0190012 115.1574997 113.1179988  24.1570012 115.0704997 112.7099988
  24.9960012 116.0134997 113.5459988  24.8980409 115.2612883 113.1200589
  29.6820012 114.8794997 116.4929988  30.1020012 114.4644997 117.2459988
  28.7490012 114.7014997 116.6099988  29.6133644 114.7985900 116.6119539
  33.0080012 118.6354997 117.3459988  32.4940012 118.5094997 118.1439988
  32.8530012 119.5474997 117.1019988  32.9166852 118.7416132 117.4222158
  25.1100012 120.1234997 114.2129988  24.4680012 120.0824997 114.9219988
  25.1470012 121.0494997 113.9749988  25.0270664 120.2431430 114.2779219
  25.1070012 120.3444997 109.1249988  24.2140012 120.0034997 109.0659988
  25.5570012 119.9674997 108.3689988  25.0458130 120.2469631 109.0147702
  30.6420012 120.7604997 107.9419988  30.2330012 121.5754997 107.6509988
  31.3630012 120.6204997 107.3279988  30.6834537 120.8532018 107.8191342
  29.7440012 120.9354997 119.4299988  29.1820012 120.2314997 119.7509988
  30.5710012 120.8154997 119.8979988  29.7787095 120.8227883 119.5372330
  31.6470012 120.2064997 110.7559988  31.4520012 120.8114997 110.0409988
  31.8280012 119.3724997 110.3219988  31.6447614 120.1766300 110.5994405
  22.8600012 120.4434997 116.0799988  22.8220012 120.8434997 116.9489988
  22.3690012 119.6264997 116.1709988  22.7884684 120.3878069 116.2111059
  19.4680012 117.5594997 109.9309988  20.0990012 117.5304997 110.6499988
  19.9170012 117.1344997 109.1999988  19.6150918 117.4980836 109.9306441
  30.9110012 121.8444997 115.4269988  31.2340012 121.2134997 114.7839988
  30.4710012 121.3094997 116.0879988  30.8957484 121.6858387 115.4283198
  27.6880012 117.7714997 110.2109988  26.7770012 117.8284997 110.4999988
  28.1940012 117.7114997 111.0219988  27.6316899 117.7711941 110.3601184
  22.5170012 119.4004997 109.0379988  21.6270012 119.5004997 108.6979988
  22.8130012 118.5584997 108.6919988  22.4352823 119.3003545 108.9447213
  26.1700012 119.4004997 106.6949988  27.1010012 119.5294997 106.8729988
  25.9550012 120.0704997 106.0449988  26.2684247 119.5086565 106.6315747
  32.0930012 117.0064997 113.4759988  31.4170012 117.1374997 114.1399988
  31.6080012 116.8514997 112.6649988  31.9347146 117.0035157 113.4574469
  35.3810012 132.6784997 119.7519988  35.5810012 133.1024997 118.9179988
  36.0360012 133.0214997 120.3589988  35.4970072 132.7829857 119.7198592
  22.9790012 125.1524997 119.3599988  23.7110012 125.4064997 119.9219988
  22.1990012 125.3564997 119.8759988  22.9737073 125.2148160 119.5066151
  29.0080012 120.5594997 112.0979988  29.5730012 120.0124997 111.5509988
  28.8610012 120.0374997 112.8869988  29.0653380 120.4142259 112.1298695
  24.0100012 116.6954997 108.5169988  23.6930012 115.7934997 108.4809988
  24.7920012 116.6974997 107.9639988  24.0722408 116.5722474 108.4373569
  27.6350012 118.9474997 114.5119988  26.7990012 119.4014997 114.6229988
  28.1590012 119.2234997 115.2639988  27.5915416 119.0468660 114.6288119
  28.1790012 125.1604997 106.1969988  27.4340012 124.6534997 105.8749988
  28.0450012 125.2094997 107.1439988  28.0588776 125.0976940 106.2808647
  35.3290012 124.2934997 114.9839988  35.9710012 124.7504997 114.4399988
  34.4990012 124.4064997 114.5209988  35.3045963 124.3712704 114.8470177
  32.0770012 117.9744997 104.3959988  31.1380012 118.0864997 104.2449988
  32.3740012 118.8314997 104.7029988  31.9887583 118.1055981 104.4168337
  29.6980012 125.3444997 117.4339988  29.3530012 124.9634997 118.2409988
  29.4980012 126.2784997 117.5049988  29.6237527 125.4185135 117.5540689
  32.7950012 119.8414997 106.0569988  33.6870012 119.7044997 106.3759988
  32.8520012 120.6324997 105.5199988  32.9246504 119.9296052 106.0280818
  23.3040012 124.4554997 111.9669988  24.0490012 124.4534997 111.3659988
  23.3820012 123.6324997 112.4479988  23.4164995 124.3438887 111.9498282
  30.3050012 126.6194997 105.2229988  30.0090012 127.4454997 105.6039988
  29.6020012 125.9994997 105.4189988  30.1694914 126.6488199 105.3016443
  20.3120012 122.9164997 117.2819988  20.5350012 122.4984997 118.1139988
  19.7100012 122.3034997 116.8589988  20.2611759 122.7764668 117.3387022
  27.3280012 122.4334997 119.4949988  27.0320012 122.2674997 118.5999988
  28.2600012 122.2134997 119.4839988  27.4134166 122.3810640 119.3710536
  31.9490012 127.8064997 117.3849988  31.0480012 127.9894997 117.1169988
  31.9830012 128.0654997 118.3049988  31.8303139 127.8665849 117.4728099
  37.6800012 120.0514997 105.7519988  37.1260012 119.6554997 105.0799988
  37.7800012 120.9614997 105.4739988  37.6177059 120.1203586 105.6224401
  37.6430012 125.8514997 118.5889988  36.7920012 126.0894997 118.2219988
  38.2340012 125.8344997 117.8359988  37.6062487 125.8818258 118.4368893
  35.9750012 128.8374997 106.2169988  35.6020012 128.0114997 106.5259988
  36.2530012 128.6544997 105.3189988  35.9615222 128.6997430 106.1379473
  33.1360012 123.6454997 113.2379988  32.2070012 123.4134997 113.2109988
  33.5870012 122.8684997 112.9079988  33.0699216 123.5087238 113.1896917
  25.6790012 127.9734997 109.3709988  26.2060012 128.7464997 109.1709988
  24.7990012 128.1984997 109.0689988  25.6322031 128.1097545 109.3027912
  27.1060012 125.6364997 108.9469988  26.8650012 126.5614997 108.9889988
  26.3650012 125.1774997 109.3439988  26.9729225 125.7010933 109.0063742
  27.6210012 129.7854997 115.2629988  27.9830012 130.6404997 115.0289988
  28.1520012 129.4934997 116.0029988  27.7424473 129.8631060 115.3310855
  25.7890012 130.6584997 108.4929988  24.8390012 130.7634997 108.5439988
  26.1410012 131.4784997 108.8369988  25.7064195 130.7838800 108.5465502
  31.1650012 125.8844997 114.9629988  30.7390012 125.6574997 115.7899988
  31.7450012 125.1464997 114.7809988  31.1851868 125.7535299 115.0515830
  33.8230012 130.4364997 117.4329988  33.2220012 129.8814997 116.9369988
  34.1050012 131.1034997 116.8059988  33.7788804 130.4506625 117.2804849
  21.9460012 117.6694997 116.8399988  21.0530012 118.0084997 116.7719988
  21.8470012 116.8144997 117.2579988  21.8104164 117.6002588 116.8872235
  34.2340012 125.4864997 106.2639988  33.9560012 124.7584997 106.8199988
  35.1610012 125.6054997 106.4689988  34.3213124 125.4028802 106.3678845
  21.5970012 129.4744997 115.2749988  21.8140012 128.5424997 115.2439988
  21.8430012 129.7484997 116.1579988  21.6599549 129.3840636 115.3901763
  26.3960012 127.4954997 104.9399988  26.5420012 126.9754997 105.7299988
  26.3930012 128.4024997 105.2469988  26.4155792 127.5468842 105.0896117
  22.8490012 124.7484997 105.4509988  22.1630012 125.1004997 106.0179988
  23.3710012 125.5114997 105.2039988  22.8256852 124.8998578 105.4952118
  30.6800012 117.4104997 115.7299988  31.3790012 117.4844997 116.3799988
  30.2990012 116.5464997 115.8839988  30.7241767 117.3037624 115.8398322
  31.4650012 117.0624997 106.8269988  31.6850012 117.5344997 106.0239988
  32.0230012 117.4574997 107.4969988  31.5704968 117.1804285 106.8077331
  29.1330012 129.1934997 105.6899988  28.3170012 129.6904997 105.7419988
  29.6630012 129.6684997 105.0499988  29.0929161 129.3257722 105.6105956
  28.6650012 118.7904997 107.6619988  29.4770012 119.2954997 107.7079988
  28.4200012 118.6454997 108.5759988  28.7430520 118.8400375 107.7918517
  29.2000012 119.7764997 116.8459988  29.3190012 120.3504997 117.6039988
  29.8560012 119.0884997 116.9609988  29.3049025 119.7619858 116.9651321
  29.5480012 115.8714997 108.5999988  29.2020012 116.4894997 109.2439988
  30.2070012 116.3724997 108.1179988  29.5896968 116.0236278 108.6229383
  26.4720012 130.2374997 105.6709988  26.6320012 131.0364997 105.1709988
  26.2740012 130.5434997 106.5559988  26.4671637 130.3884020 105.7221144
  25.2060012 116.9344997 105.2869988  25.1230012 117.8234997 105.6339988
  26.0960012 116.6694997 105.5189988  25.3149469 117.0201430 105.3657626
  35.4050012 117.6834997 117.6809988  34.4880012 117.9464997 117.5939988
  35.7400012 117.6804997 116.7849988  35.3248613 117.7190761 117.5478837
  34.0070012 121.4344997 111.7769988  33.2090012 121.0194997 111.4489988
  34.4520012 120.7434997 112.2679988  33.9579885 121.2843543 111.7984889
  23.4650012 127.3624997 104.3479988  24.0570012 128.0614997 104.6239988
  23.9240012 126.9294997 103.6279988  23.6081142 127.3997049 104.2884830
  35.0930012 130.6904997 113.3999988  34.9380012 131.3684997 112.7419988
  36.0260012 130.7624997 113.6029988  35.1978657 130.7929546 113.3374360
  22.5890012 114.8084997 112.1369988  22.3600012 114.8674997 111.2089988
  22.1460012 114.0164997 112.4429988  22.4978530 114.7095753 112.0514786
  21.5190012 128.7484997 108.2969988  20.6870012 129.2214997 108.3239988
  22.0650012 129.2584997 107.6989988  21.4790352 128.8821332 108.2198463
  20.8070012 131.3614997 119.6269988  21.3480012 131.1444997 120.3869988
  20.3260012 130.5554997 119.4369988  20.8159951 131.2229270 119.7052576
  25.4050012 130.2804997 121.2469988  26.1720012 129.8214997 121.5879988
  25.3830012 130.0544997 120.3179988  25.5071275 130.1870186 121.1680101
  31.9820012 128.6604997 119.9769988  31.6310012 127.8044997 120.2199988
  32.7080012 128.8034997 120.5839988  32.0320769 128.5625636 120.0923619
  20.7140012 125.1714997 120.5809988  20.8580012 124.2694997 120.2949988
  19.9420012 125.4574997 120.0939988  20.6292753 125.0866816 120.4759505
  27.3700012 125.1414997 120.0139988  27.0410012 125.4124997 119.1569988
  27.5220012 124.2004997 119.9269988  27.3454809 125.0513862 119.8848244
  33.1040012 125.0574997 117.3969988  33.8500012 125.6454997 117.2779988
  32.3470012 125.6394997 117.4609988  33.1037820 125.2167143 117.3893590
  21.5470012 122.3714997 120.0009988  21.9550012 121.5144997 119.8799988
  21.2870012 122.3864997 120.9219988  21.5677568 122.2560807 120.1089588
  25.4940012 121.3804997 117.3759988  24.8760012 122.0554997 117.6559988
  25.8380012 121.7014997 116.5419988  25.4559132 121.5162411 117.3016262
  30.5140012 123.8524997 120.6529988  31.4670012 123.9354997 120.6259988
  30.3530012 123.1404997 121.2729988  30.6226426 123.7676746 120.7330579
  25.8330012 118.7354997 118.4579988  25.9830012 118.0064997 117.8559988
  25.8360012 119.5124997 117.8989988  25.8539302 118.7407851 118.3000692
  26.2460012 117.1054997 115.9509988  26.7820012 117.5564997 115.2989988
  25.3940012 116.9974997 115.5279988  26.2042178 117.1526390 115.8045756
  27.8280012 122.5444997 116.1899988  28.5780012 122.3884997 115.6169988
  27.4890012 123.3964997 115.9149988  27.8848921 122.6382968 116.0743561
  32.2430012 120.3594997 121.2189988  32.4360012 119.4284997 121.1069988
  33.1010012 120.7844997 121.2079988  32.3852934 120.2896531 121.2022031
  33.5600012 123.1484997 119.2959988  33.2790012 123.8574997 118.7179988
  34.5030012 123.0754997 119.1449988  33.6489291 123.2356711 119.1964967
  24.3120012 119.9334997 120.3699988  23.5450012 119.4014997 120.1589988
  24.9910012 119.6234997 119.7699988  24.2987877 119.8188300 120.2600716
  27.0520012 114.5614997 116.3819988  26.9530012 115.5084997 116.2769988
  26.3090012 114.1894997 115.9059988  26.9381184 114.6405863 116.3033621
  28.3160012 118.8834997 119.9459988  28.0800012 118.6634997 120.8469988
  27.5320012 118.6764997 119.4359988  28.1778504 118.8254586 120.0003431
  31.0310012 118.0104997 119.0209988  30.0840012 118.0424997 119.1539988
  31.3440012 117.3854997 119.6749988  30.9436707 117.9303998 119.1276060
  32.6650012 116.6444997 121.0269988  32.5690012 115.6924997 121.0209988
  32.3440012 116.9134997 121.8869988  32.6084070 116.5504035 121.1425441
  22.4920012 117.8544997 120.0739988  22.7040012 117.1474997 119.4639988
  22.3810012 117.4164997 120.9179988  22.5059721 117.6987084 120.1046843
  27.2730012 113.8554997 119.0529988  27.9850012 113.2154997 119.0389988
  27.1720012 114.1224997 118.1399988  27.3568066 113.8040079 118.9275677
  27.6270012 115.5384997 121.1069988  27.4950012 115.0624997 120.2869988
  27.0280012 116.2824997 121.0519988  27.5279071 115.5739618 120.9872886
  19.3910012 132.4504997 108.8439988  18.7440012 131.9884997 108.3109988
  19.7450012 131.7784997 109.4259988  19.3503849 132.2964723 108.8497959
  20.2610012 130.5314997 110.6479988  19.9260012 129.6514997 110.8199988
  20.4830012 130.8764997 111.5129988  20.2451783 130.4577500 110.7884208
  37.8090012 131.3404997 113.6289988  37.7880012 131.5254997 114.5679988
  38.5000012 131.9094997 113.2879988  37.8994618 131.4426606 113.7113864
  37.3730012 130.9084997 116.5509988  36.8850012 130.1724997 116.1789988
  37.9220012 130.5144997 117.2289988  37.3804820 130.7545889 116.5917813
  35.8230012 126.6974997 121.1889988  34.9570012 126.5924997 121.5829988
  36.2000012 127.4564997 121.6349988  35.7553308 126.7856900 121.3032393
  37.1240012 124.9544997 106.7029988  37.9740012 125.3754997 106.8299988
  37.1300012 124.2144997 107.3099988  37.2411372 124.9120803 106.8024344
  37.5190012 123.0074997 108.5259988  36.7920012 122.5284997 108.9239988
  38.1000012 123.2134997 109.2589988  37.4980473 122.9698103 108.6794528
  37.2780012 125.7924997 113.4739988  38.1110012 125.4144997 113.1939988
  37.3900012 126.7354997 113.3549988  37.4072647 125.8682218 113.4195487
  35.7640012 128.6704997 115.7809988  35.1170012 128.9954997 116.4069988
  35.2470012 128.2304997 115.1069988  35.6054029 128.6555004 115.7755827
  37.7870012 122.9084997 104.9179988  37.2650012 123.2654997 104.1989988
  37.7540012 123.5834997 105.5959988  37.7111634 123.0485413 104.9113145
  35.3050012 121.5284997 109.0889988  35.1550012 120.5834997 109.0689988
  34.9520012 121.8094997 109.9329988  35.2367448 121.4371481 109.2003705
  20.3410012 123.6064997 113.0999988  20.5250012 123.5244997 112.1639988
  21.1900012 123.4824997 113.5229988  20.4810151 123.5785073 113.0291451
  36.1620012 123.4984997 118.7279988  36.7450012 122.7644997 118.9199988
  36.7260012 124.2704997 118.7749988  36.3179769 123.5024227 118.7606159
  37.6580012 121.4014997 119.4129988  36.7950012 121.0224997 119.2469988
  38.2630012 120.6624997 119.3379988  37.6216119 121.2498268 119.3801528
  35.0160012 119.1114997 107.5519988  35.2960012 118.2044997 107.6759988
  35.7750012 119.5454997 107.1629988  35.1569277 119.0460942 107.5163682
  35.6280012 119.6924997 112.9879988  36.5610012 119.9044997 112.9529988
  35.3930012 119.7944997 113.9099988  35.7239244 119.7353100 113.1078892
  35.6570012 120.4294997 115.7639988  34.8140012 120.6974997 116.1299988
  36.0990012 121.2514997 115.5529988  35.6014158 120.5773291 115.7855491
  19.9380012 118.8774997 119.2409988  20.8580012 118.7554997 119.4769988
  19.4890012 118.1274997 119.6299988  20.0031580 118.7593727 119.3259006
  37.9400012 114.4094997 121.1169988  38.2900012 113.7554997 120.5119988
  38.0870012 115.2464997 120.6769988  38.0077887 114.4331548 120.9746858
  35.6290012 116.3744997 107.5999988  35.8120012 115.9254997 108.4259988
  35.0300012 115.7894997 107.1369988  35.5730202 116.2339975 107.6503275
  21.1590012 117.1894997 112.1319988  21.6050012 116.3974997 112.4339988
  21.6260012 117.9054997 112.5619988  21.2830831 117.1780685 112.2314006
  19.4630012 120.1884997 113.2009988  19.9550012 119.9674997 112.4099988
  19.8260012 121.0294997 113.4819988  19.5793126 120.2718357 113.1307531
  37.4600012 116.5184997 119.4659988  36.5420012 116.7894997 119.4309988
  37.5830012 115.9834997 118.6819988  37.3509729 116.4832508 119.3551923
  19.7770012 116.4464997 107.2549988  18.8520012 116.6554997 107.1259988
  20.2310012 116.9304997 106.5649988  19.7117292 116.5405343 107.1440720
  34.5480012 131.4304997 109.2009988  35.2000012 131.0834997 108.5929988
  35.0580012 131.9194997 109.8469988  34.7062637 131.4490597 109.2050236
  19.7410012 115.1844997 115.5989988  19.0760012 114.9384997 116.2429988
  19.2980012 115.8064997 115.0219988  19.5901318 115.2349410 115.6090898
  21.9330012 128.3594997 119.7439988  21.1120012 128.5344997 119.2829988
  21.6800012 128.2864997 120.6639988  21.7865585 128.3735544 119.8053561
  24.8870012 129.3344997 116.0019988  24.4620012 130.1434997 115.7199988
  25.7910012 129.4194997 115.6999988  24.9509975 129.4569300 115.9224816
  29.1980012 130.7334997 118.9619988  29.3830012 130.3994997 119.8399988
  30.0440012 131.0424997 118.6399988  29.3377539 130.7296047 119.0385605
  31.5430012 132.0194997 118.2059988  32.2200012 131.3864997 117.9659988
  31.8650012 132.4204997 119.0129988  31.6791637 131.9871154 118.2822793
  36.4600012 114.6084997 117.2849988  35.6480012 114.9334997 116.8979988
  36.6930012 113.8484997 116.7519988  36.3802203 114.5502758 117.1598880
  22.2890012 132.5904997 116.0499988  21.5680012 133.0304997 115.5989988
  21.9230012 132.3394997 116.8979988  22.1409651 132.6167242 116.1029640
  24.7560012 132.1904997 115.0799988  23.8910012 132.2624997 115.4839988
  24.7010012 132.7374997 114.2959988  24.6302085 132.2742685 115.0293362
  29.4660012 132.0784997 114.2549988  29.0100012 132.6074997 113.6009988
  29.6290012 132.6814997 114.9799988  29.4256068 132.2324607 114.2634838
  31.7940012 130.9564997 115.1999988  30.8890012 131.1214997 114.9339988
  32.2230012 131.8094997 115.1349988  31.7281324 131.0944339 115.1547976
  34.3980012 132.5264997 115.4949988  34.2160012 133.4424997 115.2849988
  34.5750012 132.1164997 114.6489988  34.3970210 132.5964822 115.3517885
  21.7030012 131.2134997 112.9599988  21.6850012 130.7884997 113.8169988
  22.5080012 130.8954997 112.5509988  21.8093529 131.1123013 113.0220946
  23.8450012 129.9234997 111.6149988  23.6260012 129.0074997 111.7849988
  24.6690012 130.0634997 112.0809988  23.9264420 129.8170520 111.7012773
  26.3820012 130.3934997 112.4639988  26.5950012 129.5054997 112.1769988
  26.4460012 130.3594997 113.4179988  26.4198231 130.2673102 112.5537397
  29.8900012 116.0574997 111.6079988  29.2160012 115.4284997 111.8639988
  30.4540012 115.5734997 111.0049988  29.8739230 115.9058744 111.5615340
  35.0330012 114.1654997 111.7209988  35.6370012 114.7124997 111.2189988
  34.1630012 114.4844997 111.4799988  34.9981208 114.2835137 111.6196886
  36.7600012 115.3034997 110.0539988  37.3720012 114.7894997 109.5269988
  37.1420012 116.1814997 110.0769988  36.8953371 115.3517866 109.9850041
  22.2170012 114.6914997 109.4299988  21.4400012 114.4574997 108.9229988
  22.7470012 113.8944997 109.4389988  22.1822330 114.5516988 109.3617742
  26.7960012 114.6184997 109.2439988  27.6710012 115.0064997 109.2139988
  26.6600012 114.4034997 110.1659988  26.8973695 114.6425184 109.3646440
  32.3530012 114.6484997 110.8929988  32.4290012 114.7434997 109.9429988
  32.0780012 113.7404997 111.0219988  32.3262321 114.5387867 110.7805079
  33.7060012 114.6744997 106.5849988  33.0040012 115.2894997 106.3749988
  33.2620012 113.8364997 106.7159988  33.5496450 114.6455639 106.5739000
  20.9540012 130.4374997 106.1309988  20.2690012 130.3994997 105.4639988
  20.9580012 131.3504997 106.4199988  20.8606998 130.5556733 106.0786771
  27.9400012 116.6984997 106.1329988  28.1180012 116.0524997 106.8159988
  27.8870012 117.5324997 106.5999988  27.9571999 116.7228009 106.2895917
  36.5280012 131.2104997 107.2079988  36.3330012 130.4624997 106.6429988
  36.4890012 131.9684997 106.6249988  36.4960380 131.2106099 107.0518384
  22.1750012 115.2054997 118.9479988  21.8090012 114.4404997 119.3899988
  23.0880012 115.2344997 119.2339988  22.2482736 115.1045640 119.0472502
  24.1480012 114.5564997 120.4839988  25.0460012 114.2824997 120.2989988
  23.7610012 113.8134997 120.9479988  24.2186612 114.4185914 120.5213643
  22.7720012 131.3574997 103.1569988  22.5050012 131.6444997 104.0299988
  23.5440012 130.8114997 103.3089988  22.8397488 131.3230294 103.2971050
  32.5690012 113.8884997 120.6659988  32.6460012 113.4624997 121.5199988
  33.4630012 113.9024997 120.3229988  32.7003428 113.8320879 120.7365310
  35.7450012 129.9614997 119.3579988  34.9630012 129.7754997 118.8379988
  35.6730012 130.8904997 119.5759988  35.6282274 130.0616643 119.3163018
  50.1510012 123.8474997 109.3889988  50.2400012 124.7914997 109.2569988
  49.5130012 123.5724997 108.7309988  50.0769081 123.9394830 109.2819614
  49.0840012 123.1024997 112.8079988  49.0460012 122.4564997 113.5129988
  48.7620012 122.6364997 112.0369988  49.0352333 122.9509408 112.8002978
  41.4530012 122.7174997 114.4009988  41.4940012 122.0914997 115.1239988
  42.1560012 123.3414997 114.5829988  41.5536363 122.7161196 114.5246044
  52.7900012 126.0414997 111.1089988  52.3500012 125.3214997 111.5599988
  52.7770012 126.7624997 111.7389988  52.7280226 126.0403731 111.2558494
  42.3760012 127.1674997 112.9359988  42.0070012 126.3654997 112.5659988
  43.3170012 126.9984997 112.9819988  42.4527289 127.0350153 112.8916316
  38.9860012 120.8274997 108.3289988  38.5390012 121.6734997 108.3099988
  38.4250012 120.2474997 107.8129988  38.8489900 120.8649916 108.2566801
  39.6970012 122.9894997 110.4539988  39.9100012 122.2194997 110.9819988
  40.4350012 123.0784997 109.8509988  39.8259044 122.8961968 110.4447123
  49.9020012 131.1464997 111.3209988  50.5220012 130.4694997 111.0479988
  49.6940012 130.9284997 112.2299988  49.9586726 131.0244800 111.4064812
  47.4740012 125.5354997 113.2139988  47.7780012 124.8494997 112.6189988
  48.1950012 125.6534997 113.8319988  47.6130671 125.4576304 113.2161816
  56.1370012 117.1364997 114.0749988  56.1860012 117.7464997 114.8099988
  56.5620012 117.5974997 113.3519988  56.2011746 117.2823796 114.0779175
  50.6150012 119.9294997 113.5409988  50.7570012 118.9834997 113.5619988
  50.5080012 120.1364997 112.6129988  50.6199919 119.8278246 113.4183408
  43.7690012 118.0304997 110.8139988  43.8130012 118.8904997 110.3949988
  43.3120012 117.4784997 110.1799988  43.7132240 118.0734422 110.6709864
  51.4920012 118.1614997 109.2149988  52.1380012 117.8324997 109.8389988
  52.0020012 118.6794997 108.5919988  51.6494299 118.1864450 109.2162731
  40.3900012 120.4274997 111.5759988  41.0430012 119.8774997 112.0079988
  40.4140012 120.1534997 110.6589988  40.4826683 120.3151466 111.5112123
  45.5460012 121.9774997 110.7909988  46.1620012 121.4514997 111.3009988
  44.9600012 121.3374997 110.3879988  45.5510810 121.8189208 110.8063173
  56.5280012 118.6144997 116.3099988  55.8400012 119.2724997 116.2149988
  56.5440012 118.4174997 117.2469988  56.4359540 118.6779819 116.4235990
  42.5800012 116.9484997 114.8879988  42.3610012 117.4784997 114.1219988
  41.9120012 117.1754997 115.5349988  42.4597600 117.0516906 114.8706379
  49.9490012 126.4484997 108.4319988  49.6530012 126.1264997 107.5809988
  49.6240012 127.3484997 108.4729988  49.8646371 126.5260215 108.3211801
  45.1490012 124.6244997 115.1749988  44.4090012 125.2224997 115.2789988
  45.8630012 125.1784997 114.8599988  45.1442237 124.7812831 115.1466465
  53.2560012 117.4524997 111.1949988  53.0400012 116.6864997 111.7279988
  53.9110012 117.9244997 111.7079988  53.3150632 117.4115889 111.3372861
  42.1730012 118.8404997 112.8399988  42.7870012 119.4734997 113.2129988
  42.6850012 118.3684997 112.1839988  42.3261981 118.8632267 112.8022908
  43.5560012 126.5884997 115.9619988  43.5510012 127.4684997 115.5839988
  42.7030012 126.5054997 116.3869988  43.4399464 126.6976117 115.9677907
  39.6770012 126.2594997 106.7439988  39.4050012 126.4884997 105.8559988
  39.7230012 127.0974997 107.2049988  39.6459482 126.4041318 106.6846273
  53.3020012 127.8814997 113.4569988  52.3610012 127.9394997 113.6189988
  53.5790012 128.7874997 113.3199988  53.2104679 128.0119443 113.4606815
  53.6030012 116.1674997 114.8749988  52.8670012 116.7784997 114.8369988
  54.2860012 116.5824997 114.3479988  53.5946541 116.3071374 114.7985832
  46.6060012 114.2544997 112.3399988  46.4890012 113.3054997 112.2859988
  45.7510012 114.5864997 112.6139988  46.4744212 114.1695571 112.3696497
  51.5540012 129.6624997 110.0819988  51.9800012 128.9554997 109.5969988
  51.8710012 130.4634997 109.6659988  51.6551683 129.6741017 109.9593680
  52.7140012 127.5634997 108.5909988  52.4560012 126.8734997 107.9799988
  52.7850012 127.1204997 109.4369988  52.6882856 127.4092124 108.6216885
  54.4000012 126.1294997 117.0679988  54.5400012 125.5384997 116.3289988
  54.5670012 127.0024997 116.7119988  54.4417411 126.1665428 116.9186894
  48.8730012 123.0914997 106.8409988  48.1610012 123.6264997 106.4889988
  49.5640012 123.1474997 106.1809988  48.8690132 123.1722543 106.7036289
  56.2420012 122.4694997 115.1339988  55.5890012 123.1644997 115.2239988
  56.7070012 122.6794997 114.3249988  56.2155274 122.5930643 115.0368462
  52.2780012 123.3014997 107.7929988  51.5460012 123.5294997 108.3659988
  52.7260012 122.5874997 108.2469988  52.2382725 123.2362145 107.9328816
  52.1760012 121.4754997 116.8599988  52.2560012 122.2384997 117.4319988
  51.5740012 121.7544997 116.1699988  52.1055756 121.6177134 116.8450589
  43.9240012 123.9314997 109.6749988  43.5930012 123.5614997 108.8569988
  44.5120012 123.2614997 110.0219988  43.9581873 123.7901156 109.6098102
  45.2900012 127.3594997 112.3559988  45.1960012 126.7814997 111.5999988
  46.0200012 126.9884997 112.8529988  45.3757387 127.2301663 112.3195342
  44.2900012 122.7004997 113.3089988  44.8560012 122.8214997 112.5459988
  44.6090012 123.3374997 113.9469988  44.4105474 122.8032219 113.2909862
  50.5990012 128.2034997 114.0429988  50.3590012 128.8654997 114.6909988
  50.4010012 127.3694997 114.4679988  50.5393808 128.1813134 114.1891524
  45.1700012 127.0994997 118.0259988  44.8590012 127.8814997 118.4809988
  44.5200012 126.9464997 117.3399988  45.0395558 127.1859105 117.9955871
  42.0900012 123.2974997 117.2539988  42.1610012 123.9484997 117.9529988
  41.2000012 123.4004997 116.9189988  41.9793005 123.4005427 117.3043495
  48.8760012 129.2004997 108.9129988  49.3500012 129.4954997 109.6899988
  48.3130012 129.9384997 108.6799988  48.8648184 129.3407247 108.9879628
  43.4100012 129.1714997 118.7889988  43.4170012 129.0354997 117.8419988
  42.4940012 129.0534997 119.0409988  43.2871714 129.1369430 118.6934666
  54.8480012 114.2134997 105.2909988  53.9480012 114.3524997 105.5859988
  55.1000012 115.0444997 104.8889988  54.7588702 114.3449074 105.2770205
  42.9140012 123.0014997 107.2639988  42.6220012 123.7694997 106.7739988
  42.2400012 122.3414997 107.1019988  42.7828111 123.0175587 107.1748978
  56.0370012 128.5794997 103.6669988  56.1110012 129.5184997 103.8379988
  56.9430012 128.2744997 103.6109988  56.1695100 128.6666722 103.6828119
  39.0070012 125.3644997 116.0789988  38.5060012 125.3364997 115.2639988
  39.0120012 124.4584997 116.3889988  38.9390944 125.2382396 116.0093226
  38.7570012 128.1444997 112.9629988  39.7030012 128.0004997 112.9439988
  38.6450012 128.9284997 113.4999988  38.8712727 128.2308046 113.0330072
  56.9550012 128.8104997 118.6459988  56.9060012 127.8554997 118.6089988
  56.1280012 129.0784997 119.0469988  56.8364940 128.7158998 118.6951375
  47.9340012 128.3844997 117.5219988  48.0210012 129.2104997 117.9969988
  47.0700012 128.0544997 117.7709988  47.8291964 128.4529878 117.6206549
  48.3480012 132.1564997 107.3279988  48.2730012 132.0354997 106.3809988
  48.3810012 133.1064997 107.4459988  48.3422068 132.2682646 107.2144967
  42.0010012 130.9454997 109.1089988  42.1540012 130.5974997 109.9869988
  41.1510012 130.5894997 108.8539988  41.9069166 130.8496216 109.1948079
  51.1190012 131.2364997 107.0789988  50.1830012 131.3364997 107.2579988
  51.3990012 130.5274997 107.6579988  51.0289553 131.1543406 107.1817087
  54.1070012 120.3034997 119.1259988  53.7000012 120.7844997 118.4049988
  54.1480012 119.3984997 118.8179988  54.0568437 120.2469374 118.9856683
  41.2560012 126.6874997 117.1229988  41.4720012 126.3264997 117.9819988
  40.4010012 126.3134997 116.9129988  41.1699292 126.5874111 117.2123386
  43.8750012 115.1574997 113.1179988  43.0130012 115.0704997 112.7099988
  43.8520012 116.0134997 113.5459988  43.7540409 115.2612883 113.1200589
  48.5380012 114.8794997 116.4929988  48.9580012 114.4644997 117.2459988
  47.6050012 114.7014997 116.6099988  48.4693644 114.7985900 116.6119539
  51.8640012 118.6354997 117.3459988  51.3500012 118.5094997 118.1439988
  51.7090012 119.5474997 117.1019988  51.7726852 118.7416132 117.4222158
  48.1990012 117.3724997 103.7779988  47.9460012 117.3914997 104.7009988
  47.9430012 116.5004997 103.4759988  48.1297481 117.2572558 103.8636175
  43.9660012 120.1234997 114.2129988  43.3240012 120.0824997 114.9219988
  44.0030012 121.0494997 113.9749988  43.8830664 120.2431430 114.2779219
  43.9630012 120.3444997 109.1249988  43.0700012 120.0034997 109.0659988
  44.4130012 119.9674997 108.3689988  43.9018130 120.2469631 109.0147702
  49.4980012 120.7604997 107.9419988  49.0890012 121.5754997 107.6509988
  50.2190012 120.6204997 107.3279988  49.5394537 120.8532018 107.8191342
  48.6000012 120.9354997 119.4299988  48.0380012 120.2314997 119.7509988
  49.4270012 120.8154997 119.8979988  48.6347095 120.8227883 119.5372330
  50.5030012 120.2064997 110.7559988  50.3080012 120.8114997 110.0409988
  50.6840012 119.3724997 110.3219988  50.5007614 120.1766300 110.5994405
  41.7160012 120.4434997 116.0799988  41.6780012 120.8434997 116.9489988
  41.2250012 119.6264997 116.1709988  41.6444684 120.3878069 116.2111059
  38.3240012 117.5594997 109.9309988  38.9550012 117.5304997 110.6499988
  38.7730012 117.1344997 109.1999988  38.4710918 117.4980836 109.9306441
  39.5980012 118.3054997 105.3549988  40.0720012 118.8964997 104.7699988
  38.8810012 118.8364997 105.7019988  39.5659341 118.4580867 105.3218836
  49.7670012 121.8444997 115.4269988  50.0900012 121.2134997 114.7839988
  49.3270012 121.3094997 116.0879988  49.7517484 121.6858387 115.4283198
  46.5440012 117.7714997 110.2109988  45.6330012 117.8284997 110.4999988
  47.0500012 117.7114997 111.0219988  46.4876899 117.7711941 110.3601184
  41.3730012 119.4004997 109.0379988  40.4830012 119.5004997 108.6979988
  41.6690012 118.5584997 108.6919988  41.2912823 119.3003546 108.9447213
  45.0260012 119.4004997 106.6949988  45.9570012 119.5294997 106.8729988
  44.8110012 120.0704997 106.0449988  45.1244247 119.5086565 106.6315747
  50.9490012 117.0064997 113.4759988  50.2730012 117.1374997 114.1399988
  50.4640012 116.8514997 112.6649988  50.7907146 117.0035157 113.4574469
  54.2370012 132.6784997 119.7519988  54.4370012 133.1024997 118.9179988
  54.8920012 133.0214997 120.3589988  54.3530072 132.7829857 119.7198592
  41.8350012 125.1524997 119.3599988  42.5670012 125.4064997 119.9219988
  41.0550012 125.3564997 119.8759988  41.8297073 125.2148160 119.5066151
  47.8640012 120.5594997 112.0979988  48.4290012 120.0124997 111.5509988
  47.7170012 120.0374997 112.8869988  47.9213380 120.4142259 112.1298695
  42.8660012 116.6954997 108.5169988  42.5490012 115.7934997 108.4809988
  43.6480012 116.6974997 107.9639988  42.9282408 116.5722474 108.4373569
  46.4910012 118.9474997 114.5119988  45.6550012 119.4014997 114.6229988
  47.0150012 119.2234997 115.2639988  46.4475416 119.0468660 114.6288119
  47.0350012 125.1604997 106.1969988  46.2900012 124.6534997 105.8749988
  46.9010012 125.2094997 107.1439988  46.9148776 125.0976940 106.2808647
  54.1850012 124.2934997 114.9839988  54.8270012 124.7504997 114.4399988
  53.3550012 124.4064997 114.5209988  54.1605963 124.3712704 114.8470177
  48.5540012 125.3444997 117.4339988  48.2090012 124.9634997 118.2409988
  48.3540012 126.2784997 117.5049988  48.4797527 125.4185135 117.5540689
  42.1600012 124.4554997 111.9669988  42.9050012 124.4534997 111.3659988
  42.2380012 123.6324997 112.4479988  42.2724995 124.3438887 111.9498282
  49.1610012 126.6194997 105.2229988  48.8650012 127.4454997 105.6039988
  48.4580012 125.9994997 105.4189988  49.0254914 126.6488199 105.3016443
  39.1680012 122.9164997 117.2819988  39.3910012 122.4984997 118.1139988
  38.5660012 122.3034997 116.8589988  39.1171759 122.7764668 117.3387022
  46.1840012 122.4334997 119.4949988  45.8880012 122.2674997 118.5999988
  47.1160012 122.2134997 119.4839988  46.2694166 122.3810640 119.3710536
  50.8050012 127.8064997 117.3849988  49.9040012 127.9894997 117.1169988
  50.8390012 128.0654997 118.3049988  50.6863139 127.8665849 117.4728099
  56.5360012 120.0514997 105.7519988  55.9820012 119.6554997 105.0799988
  56.6360012 120.9614997 105.4739988  56.4737059 120.1203586 105.6224401
  56.4990012 125.8514997 118.5889988  55.6480012 126.0894997 118.2219988
  57.0900012 125.8344997 117.8359988  56.4622487 125.8818258 118.4368893
  54.8310012 128.8374997 106.2169988  54.4580012 128.0114997 106.5259988
  55.1090012 128.6544997 105.3189988  54.8175222 128.6997430 106.1379473
  51.9920012 123.6454997 113.2379988  51.0630012 123.4134997 113.2109988
  52.4430012 122.8684997 112.9079988  51.9259216 123.5087238 113.1896917
  44.5350012 127.9734997 109.3709988  45.0620012 128.7464997 109.1709988
  43.6550012 128.1984997 109.0689988  44.4882031 128.1097545 109.3027912
  40.2900012 122.8354997 103.9579988  40.9060012 123.4624997 104.3379988
  39.4280012 123.1514997 104.2299988  40.2577698 122.9639430 104.0467183
  45.9620012 125.6364997 108.9469988  45.7210012 126.5614997 108.9889988
  45.2210012 125.1774997 109.3439988  45.8289225 125.7010933 109.0063742
  46.4770012 129.7854997 115.2629988  46.8390012 130.6404997 115.0289988
  47.0080012 129.4934997 116.0029988  46.5984473 129.8631060 115.3310855
  44.6450012 130.6584997 108.4929988  43.6950012 130.7634997 108.5439988
  44.9970012 131.4784997 108.8369988  44.5624195 130.7838800 108.5465502
  50.0210012 125.8844997 114.9629988  49.5950012 125.6574997 115.7899988
  50.6010012 125.1464997 114.7809988  50.0411868 125.7535299 115.0515830
  52.2240012 126.8134997 104.0369988  52.5770012 126.4334997 104.8409988
  51.2750012 126.7204997 104.1239988  52.1440918 126.7488956 104.1588532
  52.6790012 130.4364997 117.4329988  52.0780012 129.8814997 116.9369988
  52.9610012 131.1034997 116.8059988  52.6348804 130.4506625 117.2804849
  40.8020012 117.6694997 116.8399988  39.9090012 118.0084997 116.7719988
  40.7030012 116.8144997 117.2579988  40.6664164 117.6002588 116.8872235
  53.0900012 125.4864997 106.2639988  52.8120012 124.7584997 106.8199988
  54.0170012 125.6054997 106.4689988  53.1773124 125.4028802 106.3678845
  40.4530012 129.4744997 115.2749988  40.6700012 128.5424997 115.2439988
  40.6990012 129.7484997 116.1579988  40.5159549 129.3840636 115.3901763
  46.3150012 127.9254997 102.4839988  46.5540012 127.1774997 101.9369988
  46.0460012 127.5374997 103.3169988  46.3113675 127.7706638 102.5216865
  45.2520012 127.4954997 104.9399988  45.3980012 126.9754997 105.7299988
  45.2490012 128.4024997 105.2469988  45.2715792 127.5468842 105.0896117
  49.5360012 117.4104997 115.7299988  50.2350012 117.4844997 116.3799988
  49.1550012 116.5464997 115.8839988  49.5801767 117.3037624 115.8398322
  50.3210012 117.0624997 106.8269988  50.5410012 117.5344997 106.0239988
  50.8790012 117.4574997 107.4969988  50.4264968 117.1804285 106.8077331
  47.5210012 118.7904997 107.6619988  48.3330012 119.2954997 107.7079988
  47.2760012 118.6454997 108.5759988  47.5990520 118.8400375 107.7918517
  48.0560012 119.7764997 116.8459988  48.1750012 120.3504997 117.6039988
  48.7120012 119.0884997 116.9609988  48.1609025 119.7619858 116.9651321
  48.4040012 115.8714997 108.5999988  48.0580012 116.4894997 109.2439988
  49.0630012 116.3724997 108.1179988  48.4456968 116.0236278 108.6229383
  45.3280012 130.2374997 105.6709988  45.4880012 131.0364997 105.1709988
  45.1300012 130.5434997 106.5559988  45.3231637 130.3884020 105.7221144
  54.2610012 117.6834997 117.6809988  53.3440012 117.9464997 117.5939988
  54.5960012 117.6804997 116.7849988  54.1808613 117.7190761 117.5478837
  52.8630012 121.4344997 111.7769988  52.0650012 121.0194997 111.4489988
  53.3080012 120.7434997 112.2679988  52.8139885 121.2843543 111.7984889
  42.3210012 127.3624997 104.3479988  42.9130012 128.0614997 104.6239988
  42.7800012 126.9294997 103.6279988  42.4641142 127.3997049 104.2884830
  40.6370012 120.0264997 103.4639988  40.5920012 120.9654997 103.6419988
  39.7490012 119.7904997 103.1939988  40.5108574 120.1231892 103.4518912
  53.9490012 130.6904997 113.3999988  53.7940012 131.3684997 112.7419988
  54.8820012 130.7624997 113.6029988  54.0538657 130.7929546 113.3374360
  41.4450012 114.8084997 112.1369988  41.2160012 114.8674997 111.2089988
  41.0020012 114.0164997 112.4429988  41.3538530 114.7095753 112.0514786
  40.3750012 128.7484997 108.2969988  39.5430012 129.2214997 108.3239988
  40.9210012 129.2584997 107.6989988  40.3350352 128.8821332 108.2198463
  39.6630012 131.3614997 119.6269988  40.2040012 131.1444997 120.3869988
  39.1820012 130.5554997 119.4369988  39.6719951 131.2229270 119.7052576
  44.2610012 130.2804997 121.2469988  45.0280012 129.8214997 121.5879988
  44.2390012 130.0544997 120.3179988  44.3631275 130.1870186 121.1680101
  50.8380012 128.6604997 119.9769988  50.4870012 127.8044997 120.2199988
  51.5640012 128.8034997 120.5839988  50.8880769 128.5625636 120.0923619
  39.5700012 125.1714997 120.5809988  39.7140012 124.2694997 120.2949988
  38.7980012 125.4574997 120.0939988  39.4852753 125.0866816 120.4759505
  46.2260012 125.1414997 120.0139988  45.8970012 125.4124997 119.1569988
  46.3780012 124.2004997 119.9269988  46.2014809 125.0513862 119.8848244
  51.9600012 125.0574997 117.3969988  52.7060012 125.6454997 117.2779988
  51.2030012 125.6394997 117.4609988  51.9597820 125.2167143 117.3893590
  40.4030012 122.3714997 120.0009988  40.8110012 121.5144997 119.8799988
  40.1430012 122.3864997 120.9219988  40.4237568 122.2560807 120.1089588
  44.3500012 121.3804997 117.3759988  43.7320012 122.0554997 117.6559988
  44.6940012 121.7014997 116.5419988  44.3119132 121.5162411 117.3016262
  49.3700012 123.8524997 120.6529988  50.3230012 123.9354997 120.6259988
  49.2090012 123.1404997 121.2729988  49.4786426 123.7676746 120.7330579
  44.6890012 118.7354997 118.4579988  44.8390012 118.0064997 117.8559988
  44.6920012 119.5124997 117.8989988  44.7099302 118.7407851 118.3000692
  45.1020012 117.1054997 115.9509988  45.6380012 117.5564997 115.2989988
  44.2500012 116.9974997 115.5279988  45.0602178 117.1526390 115.8045756
  46.6840012 122.5444997 116.1899988  47.4340012 122.3884997 115.6169988
  46.3450012 123.3964997 115.9149988  46.7408921 122.6382968 116.0743561
  51.0990012 120.3594997 121.2189988  51.2920012 119.4284997 121.1069988
  51.9570012 120.7844997 121.2079988  51.2412934 120.2896531 121.2022031
  52.4160012 123.1484997 119.2959988  52.1350012 123.8574997 118.7179988
  53.3590012 123.0754997 119.1449988  52.5049291 123.2356711 119.1964967
  43.1680012 119.9334997 120.3699988  42.4010012 119.4014997 120.1589988
  43.8470012 119.6234997 119.7699988  43.1547877 119.8188300 120.2600716
  45.9080012 114.5614997 116.3819988  45.8090012 115.5084997 116.2769988
  45.1650012 114.1894997 115.9059988  45.7941184 114.6405863 116.3033621
  47.1720012 118.8834997 119.9459988  46.9360012 118.6634997 120.8469988
  46.3880012 118.6764997 119.4359988  47.0338504 118.8254586 120.0003431
  49.8870012 118.0104997 119.0209988  48.9400012 118.0424997 119.1539988
  50.2000012 117.3854997 119.6749988  49.7996707 117.9303998 119.1276060
  51.5210012 116.6444997 121.0269988  51.4250012 115.6924997 121.0209988
  51.2000012 116.9134997 121.8869988  51.4644070 116.5504035 121.1425441
  41.3480012 117.8544997 120.0739988  41.5600012 117.1474997 119.4639988
  41.2370012 117.4164997 120.9179988  41.3619721 117.6987084 120.1046843
  46.1290012 113.8554997 119.0529988  46.8410012 113.2154997 119.0389988
  46.0280012 114.1224997 118.1399988  46.2128066 113.8040079 118.9275677
  46.4830012 115.5384997 121.1069988  46.3510012 115.0624997 120.2869988
  45.8840012 116.2824997 121.0519988  46.3839071 115.5739618 120.9872886
  38.2470012 132.4504997 108.8439988  37.6000012 131.9884997 108.3109988
  38.6010012 131.7784997 109.4259988  38.2063849 132.2964723 108.8497959
  39.1170012 130.5314997 110.6479988  38.7820012 129.6514997 110.8199988
  39.3390012 130.8764997 111.5129988  39.1011783 130.4577500 110.7884208
  56.6650012 131.3404997 113.6289988  56.6440012 131.5254997 114.5679988
  57.3560012 131.9094997 113.2879988  56.7554618 131.4426606 113.7113864
  56.2290012 130.9084997 116.5509988  55.7410012 130.1724997 116.1789988
  56.7780012 130.5144997 117.2289988  56.2364820 130.7545889 116.5917813
  54.6790012 126.6974997 121.1889988  53.8130012 126.5924997 121.5829988
  55.0560012 127.4564997 121.6349988  54.6113308 126.7856900 121.3032393
  55.9800012 124.9544997 106.7029988  56.8300012 125.3754997 106.8299988
  55.9860012 124.2144997 107.3099988  56.0971372 124.9120803 106.8024344
  56.3750012 123.0074997 108.5259988  55.6480012 122.5284997 108.9239988
  56.9560012 123.2134997 109.2589988  56.3540473 122.9698103 108.6794528
  56.1340012 125.7924997 113.4739988  56.9670012 125.4144997 113.1939988
  56.2460012 126.7354997 113.3549988  56.2632647 125.8682218 113.4195487
  54.6200012 128.6704997 115.7809988  53.9730012 128.9954997 116.4069988
  54.1030012 128.2304997 115.1069988  54.4614029 128.6555004 115.7755827
  54.1610012 121.5284997 109.0889988  54.0110012 120.5834997 109.0689988
  53.8080012 121.8094997 109.9329988  54.0927448 121.4371481 109.2003705
  39.1970012 123.6064997 113.0999988  39.3810012 123.5244997 112.1639988
  40.0460012 123.4824997 113.5229988  39.3370151 123.5785073 113.0291451
  55.0180012 123.4984997 118.7279988  55.6010012 122.7644997 118.9199988
  55.5820012 124.2704997 118.7749988  55.1739769 123.5024227 118.7606159
  56.5140012 121.4014997 119.4129988  55.6510012 121.0224997 119.2469988
  57.1190012 120.6624997 119.3379988  56.4776119 121.2498268 119.3801528
  53.8720012 119.1114997 107.5519988  54.1520012 118.2044997 107.6759988
  54.6310012 119.5454997 107.1629988  54.0129277 119.0460942 107.5163682
  54.4840012 119.6924997 112.9879988  55.4170012 119.9044997 112.9529988
  54.2490012 119.7944997 113.9099988  54.5799244 119.7353100 113.1078892
  54.5130012 120.4294997 115.7639988  53.6700012 120.6974997 116.1299988
  54.9550012 121.2514997 115.5529988  54.4574158 120.5773291 115.7855491
  38.7940012 118.8774997 119.2409988  39.7140012 118.7554997 119.4769988
  38.3450012 118.1274997 119.6299988  38.8591580 118.7593727 119.3259006
  56.7960012 114.4094997 121.1169988  57.1460012 113.7554997 120.5119988
  56.9430012 115.2464997 120.6769988  56.8637887 114.4331548 120.9746858
  54.4850012 116.3744997 107.5999988  54.6680012 115.9254997 108.4259988
  53.8860012 115.7894997 107.1369988  54.4290202 116.2339975 107.6503275
  40.0150012 117.1894997 112.1319988  40.4610012 116.3974997 112.4339988
  40.4820012 117.9054997 112.5619988  40.1390831 117.1780685 112.2314006
  38.3190012 120.1884997 113.2009988  38.8110012 119.9674997 112.4099988
  38.6820012 121.0294997 113.4819988  38.4353126 120.2718357 113.1307531
  56.3160012 116.5184997 119.4659988  55.3980012 116.7894997 119.4309988
  56.4390012 115.9834997 118.6819988  56.2069729 116.4832508 119.3551923
  38.6330012 116.4464997 107.2549988  37.7080012 116.6554997 107.1259988
  39.0870012 116.9304997 106.5649988  38.5677292 116.5405343 107.1440720
  53.4040012 131.4304997 109.2009988  54.0560012 131.0834997 108.5929988
  53.9140012 131.9194997 109.8469988  53.5622637 131.4490597 109.2050236
  38.5970012 115.1844997 115.5989988  37.9320012 114.9384997 116.2429988
  38.1540012 115.8064997 115.0219988  38.4461318 115.2349410 115.6090898
  40.7890012 128.3594997 119.7439988  39.9680012 128.5344997 119.2829988
  40.5360012 128.2864997 120.6639988  40.6425585 128.3735544 119.8053561
  43.7430012 129.3344997 116.0019988  43.3180012 130.1434997 115.7199988
  44.6470012 129.4194997 115.6999988  43.8069975 129.4569300 115.9224816
  48.0540012 130.7334997 118.9619988  48.2390012 130.3994997 119.8399988
  48.9000012 131.0424997 118.6399988  48.1937539 130.7296047 119.0385605
  50.3990012 132.0194997 118.2059988  51.0760012 131.3864997 117.9659988
  50.7210012 132.4204997 119.0129988  50.5351637 131.9871154 118.2822793
  55.3160012 114.6084997 117.2849988  54.5040012 114.9334997 116.8979988
  55.5490012 113.8484997 116.7519988  55.2362203 114.5502758 117.1598880
  41.1450012 132.5904997 116.0499988  40.4240012 133.0304997 115.5989988
  40.7790012 132.3394997 116.8979988  40.9969651 132.6167242 116.1029640
  43.6120012 132.1904997 115.0799988  42.7470012 132.2624997 115.4839988
  43.5570012 132.7374997 114.2959988  43.4862085 132.2742685 115.0293362
  48.3220012 132.0784997 114.2549988  47.8660012 132.6074997 113.6009988
  48.4850012 132.6814997 114.9799988  48.2816068 132.2324607 114.2634838
  50.6500012 130.9564997 115.1999988  49.7450012 131.1214997 114.9339988
  51.0790012 131.8094997 115.1349988  50.5841324 131.0944339 115.1547976
  53.2540012 132.5264997 115.4949988  53.0720012 133.4424997 115.2849988
  53.4310012 132.1164997 114.6489988  53.2530210 132.5964822 115.3517885
  40.5590012 131.2134997 112.9599988  40.5410012 130.7884997 113.8169988
  41.3640012 130.8954997 112.5509988  40.6653529 131.1123013 113.0220946
  42.7010012 129.9234997 111.6149988  42.4820012 129.0074997 111.7849988
  43.5250012 130.0634997 112.0809988  42.7824420 129.8170520 111.7012774
  45.2380012 130.3934997 112.4639988  45.4510012 129.5054997 112.1769988
  45.3020012 130.3594997 113.4179988  45.2758232 130.2673102 112.5537397
  48.7460012 116.0574997 111.6079988  48.0720012 115.4284997 111.8639988
  49.3100012 115.5734997 111.0049988  48.7299230 115.9058744 111.5615340
  53.8890012 114.1654997 111.7209988  54.4930012 114.7124997 111.2189988
  53.0190012 114.4844997 111.4799988  53.8541208 114.2835137 111.6196886
  55.6160012 115.3034997 110.0539988  56.2280012 114.7894997 109.5269988
  55.9980012 116.1814997 110.0769988  55.7513371 115.3517866 109.9850041
  41.0730012 114.6914997 109.4299988  40.2960012 114.4574997 108.9229988
  41.6030012 113.8944997 109.4389988  41.0382330 114.5516988 109.3617742
  39.9090012 114.4894997 105.2339988  40.3480012 115.1004997 104.6419988
  39.2760012 115.0274997 105.7079988  39.8834514 114.6459257 105.2170930
  45.6520012 114.6184997 109.2439988  46.5270012 115.0064997 109.2139988
  45.5160012 114.4034997 110.1659988  45.7533695 114.6425184 109.3646440
  51.2090012 114.6484997 110.8929988  51.2850012 114.7434997 109.9429988
  50.9340012 113.7404997 111.0219988  51.1822321 114.5387867 110.7805079
  52.5620012 114.6744997 106.5849988  51.8600012 115.2894997 106.3749988
  52.1180012 113.8364997 106.7159988  52.4056450 114.6455639 106.5739000
  39.8100012 130.4374997 106.1309988  39.1250012 130.3994997 105.4639988
  39.8140012 131.3504997 106.4199988  39.7166998 130.5556733 106.0786771
  46.7960012 116.6984997 106.1329988  46.9740012 116.0524997 106.8159988
  46.7430012 117.5324997 106.5999988  46.8131999 116.7228009 106.2895917
  55.3840012 131.2104997 107.2079988  55.1890012 130.4624997 106.6429988
  55.3450012 131.9684997 106.6249988  55.3520380 131.2106099 107.0518384
  41.0310012 115.2054997 118.9479988  40.6650012 114.4404997 119.3899988
  41.9440012 115.2344997 119.2339988  41.1042736 115.1045640 119.0472502
  43.0040012 114.5564997 120.4839988  43.9020012 114.2824997 120.2989988
  42.6170012 113.8134997 120.9479988  43.0746612 114.4185914 120.5213643
  51.4250012 113.8884997 120.6659988  51.5020012 113.4624997 121.5199988
  52.3190012 113.9024997 120.3229988  51.5563428 113.8320879 120.7365310
  54.6010012 129.9614997 119.3579988  53.8190012 129.7754997 118.8379988
  54.5290012 130.8904997 119.5759988  54.4842274 130.0616643 119.3163018
  69.0070012 123.8474997 109.3889988  69.0960012 124.7914997 109.2569988
  68.3690012 123.5724997 108.7309988  68.9329081 123.9394830 109.2819614
  67.9400012 123.1024997 112.8079988  67.9020012 122.4564997 113.5129988
  67.6180012 122.6364997 112.0369988  67.8912333 122.9509408 112.8002978
  60.3090012 122.7174997 114.4009988  60.3500012 122.0914997 115.1239988
  61.0120012 123.3414997 114.5829988  60.4096363 122.7161196 114.5246044
  71.6460012 126.0414997 111.1089988  71.2060012 125.3214997 111.5599988
  71.6330012 126.7624997 111.7389988  71.5840226 126.0403731 111.2558494
  61.2320012 127.1674997 112.9359988  60.8630012 126.3654997 112.5659988
  62.1730012 126.9984997 112.9819988  61.3087289 127.0350153 112.8916316
  57.8420012 120.8274997 108.3289988  57.3950012 121.6734997 108.3099988
  57.2810012 120.2474997 107.8129988  57.7049900 120.8649916 108.2566801
  58.5530012 122.9894997 110.4539988  58.7660012 122.2194997 110.9819988
  59.2910012 123.0784997 109.8509988  58.6819044 122.8961968 110.4447123
  68.7580012 131.1464997 111.3209988  69.3780012 130.4694997 111.0479988
  68.5500012 130.9284997 112.2299988  68.8146726 131.0244800 111.4064812
  66.3300012 125.5354997 113.2139988  66.6340012 124.8494997 112.6189988
  67.0510012 125.6534997 113.8319988  66.4690671 125.4576305 113.2161816
  74.9930012 117.1364997 114.0749988  75.0420012 117.7464997 114.8099988
  75.4180012 117.5974997 113.3519988  75.0571746 117.2823796 114.0779175
  69.4710012 119.9294997 113.5409988  69.6130012 118.9834997 113.5619988
  69.3640012 120.1364997 112.6129988  69.4759919 119.8278246 113.4183408
  62.6250012 118.0304997 110.8139988  62.6690012 118.8904997 110.3949988
  62.1680012 117.4784997 110.1799988  62.5692240 118.0734422 110.6709864
  70.3480012 118.1614997 109.2149988  70.9940012 117.8324997 109.8389988
  70.8580012 118.6794997 108.5919988  70.5054299 118.1864450 109.2162731
  59.2460012 120.4274997 111.5759988  59.8990012 119.8774997 112.0079988
  59.2700012 120.1534997 110.6589988  59.3386683 120.3151466 111.5112123
  64.4020012 121.9774997 110.7909988  65.0180012 121.4514997 111.3009988
  63.8160012 121.3374997 110.3879988  64.4070810 121.8189208 110.8063173
  75.3840012 118.6144997 116.3099988  74.6960012 119.2724997 116.2149988
  75.4000012 118.4174997 117.2469988  75.2919540 118.6779819 116.4235990
  61.4360012 116.9484997 114.8879988  61.2170012 117.4784997 114.1219988
  60.7680012 117.1754997 115.5349988  61.3157600 117.0516906 114.8706379
  68.8050012 126.4484997 108.4319988  68.5090012 126.1264997 107.5809988
  68.4800012 127.3484997 108.4729988  68.7206371 126.5260215 108.3211801
  64.0050012 124.6244997 115.1749988  63.2650012 125.2224997 115.2789988
  64.7190012 125.1784997 114.8599988  64.0002237 124.7812831 115.1466465
  72.1120012 117.4524997 111.1949988  71.8960012 116.6864997 111.7279988
  72.7670012 117.9244997 111.7079988  72.1710632 117.4115889 111.3372861
  61.0290012 118.8404997 112.8399988  61.6430012 119.4734997 113.2129988
  61.5410012 118.3684997 112.1839988  61.1821981 118.8632267 112.8022908
  62.4120012 126.5884997 115.9619988  62.4070012 127.4684997 115.5839988
  61.5590012 126.5054997 116.3869988  62.2959464 126.6976117 115.9677907
  58.5330012 126.2594997 106.7439988  58.2610012 126.4884997 105.8559988
  58.5790012 127.0974997 107.2049988  58.5019482 126.4041318 106.6846273
  72.1580012 127.8814997 113.4569988  71.2170012 127.9394997 113.6189988
  72.4350012 128.7874997 113.3199988  72.0664679 128.0119443 113.4606815
  72.4590012 116.1674997 114.8749988  71.7230012 116.7784997 114.8369988
  73.1420012 116.5824997 114.3479988  72.4506541 116.3071374 114.7985832
  65.4620012 114.2544997 112.3399988  65.3450012 113.3054997 112.2859988
  64.6070012 114.5864997 112.6139988  65.3304212 114.1695571 112.3696497
  70.4100012 129.6624997 110.0819988  70.8360012 128.9554997 109.5969988
  70.7270012 130.4634997 109.6659988  70.5111683 129.6741017 109.9593680
  71.5700012 127.5634997 108.5909988  71.3120012 126.8734997 107.9799988
  71.6410012 127.1204997 109.4369988  71.5442856 127.4092124 108.6216885
  73.2560012 126.1294997 117.0679988  73.3960012 125.5384997 116.3289988
  73.4230012 127.0024997 116.7119988  73.2977411 126.1665428 116.9186894
  67.7290012 123.0914997 106.8409988  67.0170012 123.6264997 106.4889988
  68.4200012 123.1474997 106.1809988  67.7250132 123.1722543 106.7036289
  75.0980012 122.4694997 115.1339988  74.4450012 123.1644997 115.2239988
  75.5630012 122.6794997 114.3249988  75.0715274 122.5930643 115.0368462
  71.1340012 123.3014997 107.7929988  70.4020012 123.5294997 108.3659988
  71.5820012 122.5874997 108.2469988  71.0942725 123.2362145 107.9328816
  71.0320012 121.4754997 116.8599988  71.1120012 122.2384997 117.4319988
  70.4300012 121.7544997 116.1699988  70.9615756 121.6177134 116.8450589
  62.7800012 123.9314997 109.6749988  62.4490012 123.5614997 108.8569988
  63.3680012 123.2614997 110.0219988  62.8141873 123.7901156 109.6098102
  64.1460012 127.3594997 112.3559988  64.0520012 126.7814997 111.5999988
  64.8760012 126.9884997 112.8529988  64.2317386 127.2301663 112.3195342
  63.1460012 122.7004997 113.3089988  63.7120012 122.8214997 112.5459988
  63.4650012 123.3374997 113.9469988  63.2665474 122.8032219 113.2909862
  69.4550012 128.2034997 114.0429988  69.2150012 128.8654997 114.6909988
  69.2570012 127.3694997 114.4679988  69.3953808 128.1813134 114.1891524
  64.0260012 127.0994997 118.0259988  63.7150012 127.8814997 118.4809988
  63.3760012 126.9464997 117.3399988  63.8955558 127.1859105 117.9955871
  70.0050012 122.4634997 105.4779988  70.5850012 122.6134997 106.2249988
  70.4190012 122.9344997 104.7539988  70.1402997 122.5476578 105.4824058
  60.9460012 123.2974997 117.2539988  61.0170012 123.9484997 117.9529988
  60.0560012 123.4004997 116.9189988  60.8353005 123.4005427 117.3043495
  67.7320012 129.2004997 108.9129988  68.2060012 129.4954997 109.6899988
  67.1690012 129.9384997 108.6799988  67.7208184 129.3407247 108.9879628
  62.2660012 129.1714997 118.7889988  62.2730012 129.0354997 117.8419988
  61.3500012 129.0534997 119.0409988  62.1431714 129.1369430 118.6934666
  61.7700012 123.0014997 107.2639988  61.4780012 123.7694997 106.7739988
  61.0960012 122.3414997 107.1019988  61.6388111 123.0175587 107.1748978
  74.8930012 128.5794997 103.6669988  74.9670012 129.5184997 103.8379988
  75.7990012 128.2744997 103.6109988  75.0255100 128.6666722 103.6828119
  57.8630012 125.3644997 116.0789988  57.3620012 125.3364997 115.2639988
  57.8680012 124.4584997 116.3889988  57.7950944 125.2382396 116.0093226
  57.6130012 128.1444997 112.9629988  58.5590012 128.0004997 112.9439988
  57.5010012 128.9284997 113.4999988  57.7272727 128.2308046 113.0330072
  75.8110012 128.8104997 118.6459988  75.7620012 127.8554997 118.6089988
  74.9840012 129.0784997 119.0469988  75.6924940 128.7158998 118.6951375
  66.7900012 128.3844997 117.5219988  66.8770012 129.2104997 117.9969988
  65.9260012 128.0544997 117.7709988  66.6851964 128.4529878 117.6206549
  67.2040012 132.1564997 107.3279988  67.1290012 132.0354997 106.3809988
  67.2370012 133.1064997 107.4459988  67.1982068 132.2682646 107.2144967
  60.8570012 130.9454997 109.1089988  61.0100012 130.5974997 109.9869988
  60.0070012 130.5894997 108.8539988  60.7629166 130.8496216 109.1948079
  70.3060012 131.3104997 104.3299988  70.6810012 130.5664997 103.8589988
  70.3100012 131.0404997 105.2489988  70.3579125 131.1720986 104.3896483
  69.9750012 131.2364997 107.0789988  69.0390012 131.3364997 107.2579988
  70.2550012 130.5274997 107.6579988  69.8849553 131.1543406 107.1817087
  72.9630012 120.3034997 119.1259988  72.5560012 120.7844997 118.4049988
  73.0040012 119.3984997 118.8179988  72.9128437 120.2469374 118.9856683
  60.1120012 126.6874997 117.1229988  60.3280012 126.3264997 117.9819988
  59.2570012 126.3134997 116.9129988  60.0259292 126.5874111 117.2123386
  62.7310012 115.1574997 113.1179988  61.8690012 115.0704997 112.7099988
  62.7080012 116.0134997 113.5459988  62.6100409 115.2612883 113.1200589
  67.3940012 114.8794997 116.4929988  67.8140012 114.4644997 117.2459988
  66.4610012 114.7014997 116.6099988  67.3253644 114.7985900 116.6119539
  70.7200012 118.6354997 117.3459988  70.2060012 118.5094997 118.1439988
  70.5650012 119.5474997 117.1019988  70.6286852 118.7416132 117.4222158
  62.8220012 120.1234997 114.2129988  62.1800012 120.0824997 114.9219988
  62.8590012 121.0494997 113.9749988  62.7390664 120.2431430 114.2779219
  62.8190012 120.3444997 109.1249988  61.9260012 120.0034997 109.0659988
  63.2690012 119.9674997 108.3689988  62.7578130 120.2469631 109.0147702
  68.3540012 120.7604997 107.9419988  67.9450012 121.5754997 107.6509988
  69.0750012 120.6204997 107.3279988  68.3954537 120.8532018 107.8191342
  67.4560012 120.9354997 119.4299988  66.8940012 120.2314997 119.7509988
  68.2830012 120.8154997 119.8979988  67.4907095 120.8227883 119.5372330
  69.3590012 120.2064997 110.7559988  69.1640012 120.8114997 110.0409988
  69.5400012 119.3724997 110.3219988  69.3567614 120.1766300 110.5994405
  60.5720012 120.4434997 116.0799988  60.5340012 120.8434997 116.9489988
  60.0810012 119.6264997 116.1709988  60.5004684 120.3878069 116.2111059
  63.9380012 117.8174997 102.8789988  63.5070012 117.3724997 103.6089988
  63.2200012 118.1894997 102.3669988  63.7819438 117.8068940 102.9096799
  57.1800012 117.5594997 109.9309988  57.8110012 117.5304997 110.6499988
  57.6290012 117.1344997 109.1999988  57.3270918 117.4980836 109.9306441
  68.6230012 121.8444997 115.4269988  68.9460012 121.2134997 114.7839988
  68.1830012 121.3094997 116.0879988  68.6077484 121.6858387 115.4283198
  65.4000012 117.7714997 110.2109988  64.4890012 117.8284997 110.4999988
  65.9060012 117.7114997 111.0219988  65.3436899 117.7711941 110.3601184
  60.2290012 119.4004997 109.0379988  59.3390012 119.5004997 108.6979988
  60.5250012 118.5584997 108.6919988  60.1472823 119.3003545 108.9447213
  63.8820012 119.4004997 106.6949988  64.8130012 119.5294997 106.8729988
  63.6670012 120.0704997 106.0449988  63.9804247 119.5086565 106.6315747
  69.8050012 117.0064997 113.4759988  69.1290012 117.1374997 114.1399988
  69.3200012 116.8514997 112.6649988  69.6467146 117.0035157 113.4574469
  73.0930012 132.6784997 119.7519988  73.2930012 133.1024997 118.9179988
  73.7480012 133.0214997 120.3589988  73.2090073 132.7829857 119.7198592
  60.6910012 125.1524997 119.3599988  61.4230012 125.4064997 119.9219988
  59.9110012 125.3564997 119.8759988  60.6857073 125.2148160 119.5066151
  66.7200012 120.5594997 112.0979988  67.2850012 120.0124997 111.5509988
  66.5730012 120.0374997 112.8869988  66.7773380 120.4142259 112.1298695
  61.7220012 116.6954997 108.5169988  61.4050012 115.7934997 108.4809988
  62.5040012 116.6974997 107.9639988  61.7842408 116.5722474 108.4373569
  65.3470012 118.9474997 114.5119988  64.5110012 119.4014997 114.6229988
  65.8710012 119.2234997 115.2639988  65.3035416 119.0468660 114.6288119
  65.8910012 125.1604997 106.1969988  65.1460012 124.6534997 105.8749988
  65.7570012 125.2094997 107.1439988  65.7708776 125.0976940 106.2808647
  73.0410012 124.2934997 114.9839988  73.6830012 124.7504997 114.4399988
  72.2110012 124.4064997 114.5209988  73.0165963 124.3712704 114.8470177
  69.7890012 117.9744997 104.3959988  68.8500012 118.0864997 104.2449988
  70.0860012 118.8314997 104.7029988  69.7007583 118.1055981 104.4168337
  67.4100012 125.3444997 117.4339988  67.0650012 124.9634997 118.2409988
  67.2100012 126.2784997 117.5049988  67.3357527 125.4185135 117.5540689
  70.5070012 119.8414997 106.0569988  71.3990012 119.7044997 106.3759988
  70.5640012 120.6324997 105.5199988  70.6366504 119.9296052 106.0280818
  61.0160012 124.4554997 111.9669988  61.7610012 124.4534997 111.3659988
  61.0940012 123.6324997 112.4479988  61.1284995 124.3438887 111.9498282
  68.0170012 126.6194997 105.2229988  67.7210012 127.4454997 105.6039988
  67.3140012 125.9994997 105.4189988  67.8814914 126.6488199 105.3016443
  58.0240012 122.9164997 117.2819988  58.2470012 122.4984997 118.1139988
  57.4220012 122.3034997 116.8589988  57.9731759 122.7764668 117.3387022
  65.0400012 122.4334997 119.4949988  64.7440012 122.2674997 118.5999988
  65.9720012 122.2134997 119.4839988  65.1254166 122.3810640 119.3710536
  69.6610012 127.8064997 117.3849988  68.7600012 127.9894997 117.1169988
  69.6950012 128.0654997 118.3049988  69.5423139 127.8665849 117.4728099
  75.3920012 120.0514997 105.7519988  74.8380012 119.6554997 105.0799988
  75.4920012 120.9614997 105.4739988  75.3297059 120.1203586 105.6224401
  75.3550012 125.8514997 118.5889988  74.5040012 126.0894997 118.2219988
  75.9460012 125.8344997 117.8359988  75.3182487 125.8818258 118.4368893
  73.6870012 128.8374997 106.2169988  73.3140012 128.0114997 106.5259988
  73.9650012 128.6544997 105.3189988  73.6735222 128.6997430 106.1379473
  70.8480012 123.6454997 113.2379988  69.9190012 123.4134997 113.2109988
  71.2990012 122.8684997 112.9079988  70.7819216 123.5087238 113.1896917
  63.3910012 127.9734997 109.3709988  63.9180012 128.7464997 109.1709988
  62.5110012 128.1984997 109.0689988  63.3442031 128.1097545 109.3027912
  64.8180012 125.6364997 108.9469988  64.5770012 126.5614997 108.9889988
  64.0770012 125.1774997 109.3439988  64.6849225 125.7010933 109.0063742
  65.3330012 129.7854997 115.2629988  65.6950012 130.6404997 115.0289988
  65.8640012 129.4934997 116.0029988  65.4544473 129.8631060 115.3310855
  63.5010012 130.6584997 108.4929988  62.5510012 130.7634997 108.5439988
  63.8530012 131.4784997 108.8369988  63.4184195 130.7838800 108.5465502
  68.8770012 125.8844997 114.9629988  68.4510012 125.6574997 115.7899988
  69.4570012 125.1464997 114.7809988  68.8971868 125.7535299 115.0515830
  71.5350012 130.4364997 117.4329988  70.9340012 129.8814997 116.9369988
  71.8170012 131.1034997 116.8059988  71.4908804 130.4506625 117.2804849
  75.5830012 131.2934997 104.2379988  76.3270012 131.8794997 104.0979988
  74.8890012 131.8614997 104.5709988  75.5909899 131.4505798 104.2638778
  59.6580012 117.6694997 116.8399988  58.7650012 118.0084997 116.7719988
  59.5590012 116.8144997 117.2579988  59.5224164 117.6002588 116.8872235
  71.9460012 125.4864997 106.2639988  71.6680012 124.7584997 106.8199988
  72.8730012 125.6054997 106.4689988  72.0333124 125.4028802 106.3678845
  59.3090012 129.4744997 115.2749988  59.5260012 128.5424997 115.2439988
  59.5550012 129.7484997 116.1579988  59.3719549 129.3840636 115.3901763
  68.3920012 117.4104997 115.7299988  69.0910012 117.4844997 116.3799988
  68.0110012 116.5464997 115.8839988  68.4361767 117.3037624 115.8398322
  69.1770012 117.0624997 106.8269988  69.3970012 117.5344997 106.0239988
  69.7350012 117.4574997 107.4969988  69.2824968 117.1804285 106.8077331
  66.8450012 129.1934997 105.6899988  66.0290012 129.6904997 105.7419988
  67.3750012 129.6684997 105.0499988  66.8049161 129.3257722 105.6105956
  66.3770012 118.7904997 107.6619988  67.1890012 119.2954997 107.7079988
  66.1320012 118.6454997 108.5759988  66.4550520 118.8400375 107.7918517
  66.9120012 119.7764997 116.8459988  67.0310012 120.3504997 117.6039988
  67.5680012 119.0884997 116.9609988  67.0169025 119.7619858 116.9651321
  67.2600012 115.8714997 108.5999988  66.9140012 116.4894997 109.2439988
  67.9190012 116.3724997 108.1179988  67.3016968 116.0236278 108.6229383
  62.9180012 116.9344997 105.2869988  62.8350012 117.8234997 105.6339988
  63.8080012 116.6694997 105.5189988  63.0269469 117.0201430 105.3657626
  73.1170012 117.6834997 117.6809988  72.2000012 117.9464997 117.5939988
  73.4520012 117.6804997 116.7849988  73.0368613 117.7190761 117.5478837
  71.7190012 121.4344997 111.7769988  70.9210012 121.0194997 111.4489988
  72.1640012 120.7434997 112.2679988  71.6699885 121.2843543 111.7984889
  59.4930012 120.0264997 103.4639988  59.4480012 120.9654997 103.6419988
  58.6050012 119.7904997 103.1939988  59.3668574 120.1231892 103.4518912
  72.8050012 130.6904997 113.3999988  72.6500012 131.3684997 112.7419988
  73.7380012 130.7624997 113.6029988  72.9098657 130.7929546 113.3374360
  60.3010012 114.8084997 112.1369988  60.0720012 114.8674997 111.2089988
  59.8580012 114.0164997 112.4429988  60.2098530 114.7095753 112.0514786
  59.2310012 128.7484997 108.2969988  58.3990012 129.2214997 108.3239988
  59.7770012 129.2584997 107.6989988  59.1910352 128.8821332 108.2198463
  58.5190012 131.3614997 119.6269988  59.0600012 131.1444997 120.3869988
  58.0380012 130.5554997 119.4369988  58.5279951 131.2229270 119.7052576
  63.1170012 130.2804997 121.2469988  63.8840012 129.8214997 121.5879988
  63.0950012 130.0544997 120.3179988  63.2191275 130.1870186 121.1680101
  69.6940012 128.6604997 119.9769988  69.3430012 127.8044997 120.2199988
  70.4200012 128.8034997 120.5839988  69.7440769 128.5625636 120.0923619
  58.4260012 125.1714997 120.5809988  58.5700012 124.2694997 120.2949988
  57.6540012 125.4574997 120.0939988  58.3412753 125.0866816 120.4759505
  65.0820012 125.1414997 120.0139988  64.7530012 125.4124997 119.1569988
  65.2340012 124.2004997 119.9269988  65.0574809 125.0513862 119.8848244
  70.8160012 125.0574997 117.3969988  71.5620012 125.6454997 117.2779988
  70.0590012 125.6394997 117.4609988  70.8157820 125.2167143 117.3893590
  59.2590012 122.3714997 120.0009988  59.6670012 121.5144997 119.8799988
  58.9990012 122.3864997 120.9219988  59.2797568 122.2560807 120.1089588
  63.9170012 123.4874997 105.0199988  63.4570012 123.0034997 105.7059988
  64.1720012 122.8194997 104.3839988  63.8884902 123.3308731 105.0279334
  63.2060012 121.3804997 117.3759988  62.5880012 122.0554997 117.6559988
  63.5500012 121.7014997 116.5419988  63.1679132 121.5162411 117.3016262
  68.2260012 123.8524997 120.6529988  69.1790012 123.9354997 120.6259988
  68.0650012 123.1404997 121.2729988  68.3346426 123.7676746 120.7330579
  63.5450012 118.7354997 118.4579988  63.6950012 118.0064997 117.8559988
  63.5480012 119.5124997 117.8989988  63.5659302 118.7407851 118.3000692
  63.9580012 117.1054997 115.9509988  64.4940012 117.5564997 115.2989988
  63.1060012 116.9974997 115.5279988  63.9162178 117.1526390 115.8045756
  65.5400012 122.5444997 116.1899988  66.2900012 122.3884997 115.6169988
  65.2010012 123.3964997 115.9149988  65.5968921 122.6382968 116.0743561
  69.9550012 120.3594997 121.2189988  70.1480012 119.4284997 121.1069988
  70.8130012 120.7844997 121.2079988  70.0972934 120.2896531 121.2022031
  71.2720012 123.1484997 119.2959988  70.9910012 123.8574997 118.7179988
  72.2150012 123.0754997 119.1449988  71.3609291 123.2356711 119.1964967
  62.0240012 119.9334997 120.3699988  61.2570012 119.4014997 120.1589988
  62.7030012 119.6234997 119.7699988  62.0107877 119.8188300 120.2600716
  64.7640012 114.5614997 116.3819988  64.6650012 115.5084997 116.2769988
  64.0210012 114.1894997 115.9059988  64.6501184 114.6405863 116.3033621
  66.0280012 118.8834997 119.9459988  65.7920012 118.6634997 120.8469988
  65.2440012 118.6764997 119.4359988  65.8898504 118.8254586 120.0003431
  68.7430012 118.0104997 119.0209988  67.7960012 118.0424997 119.1539988
  69.0560012 117.3854997 119.6749988  68.6556707 117.9303998 119.1276060
  70.3770012 116.6444997 121.0269988  70.2810012 115.6924997 121.0209988
  70.0560012 116.9134997 121.8869988  70.3204070 116.5504035 121.1425441
  60.2040012 117.8544997 120.0739988  60.4160012 117.1474997 119.4639988
  60.0930012 117.4164997 120.9179988  60.2179721 117.6987084 120.1046843
  64.9850012 113.8554997 119.0529988  65.6970012 113.2154997 119.0389988
  64.8840012 114.1224997 118.1399988  65.0688066 113.8040079 118.9275677
  65.3390012 115.5384997 121.1069988  65.2070012 115.0624997 120.2869988
  64.7400012 116.2824997 121.0519988  65.2399071 115.5739618 120.9872886
  64.8850012 132.4214997 104.2829988  65.8180012 132.5794997 104.4269988
  64.6210012 133.0964997 103.6589988  64.9769888 132.5344510 104.2182842
  57.1030012 132.4504997 108.8439988  56.4560012 131.9884997 108.3109988
  57.4570012 131.7784997 109.4259988  57.0623849 132.2964723 108.8497959
  57.9730012 130.5314997 110.6479988  57.6380012 129.6514997 110.8199988
  58.1950012 130.8764997 111.5129988  57.9571783 130.4577500 110.7884208
  75.5210012 131.3404997 113.6289988  75.5000012 131.5254997 114.5679988
  76.2120012 131.9094997 113.2879988  75.6114618 131.4426606 113.7113864
  75.0850012 130.9084997 116.5509988  74.5970012 130.1724997 116.1789988
  75.6340012 130.5144997 117.2289988  75.0924820 130.7545889 116.5917813
  73.5350012 126.6974997 121.1889988  72.6690012 126.5924997 121.5829988
  73.9120012 127.4564997 121.6349988  73.4673308 126.7856900 121.3032393
  74.8360012 124.9544997 106.7029988  75.6860012 125.3754997 106.8299988
  74.8420012 124.2144997 107.3099988  74.9531372 124.9120803 106.8024344
  75.2310012 123.0074997 108.5259988  74.5040012 122.5284997 108.9239988
  75.8120012 123.2134997 109.2589988  75.2100473 122.9698103 108.6794528
  74.9900012 125.7924997 113.4739988  75.8230012 125.4144997 113.1939988
  75.1020012 126.7354997 113.3549988  75.1192647 125.8682218 113.4195487
  73.4760012 128.6704997 115.7809988  72.8290012 128.9954997 116.4069988
  72.9590012 128.2304997 115.1069988  73.3174029 128.6555004 115.7755827
  73.8480012 120.1484997 103.4679988  73.9440012 120.8154997 102.7879988
  73.7080012 119.3324997 102.9869988  73.8422272 120.1295655 103.3098347
  73.0170012 121.5284997 109.0889988  72.8670012 120.5834997 109.0689988
  72.6640012 121.8094997 109.9329988  72.9487448 121.4371481 109.2003705
  58.0530012 123.6064997 113.0999988  58.2370012 123.5244997 112.1639988
  58.9020012 123.4824997 113.5229988  58.1930151 123.5785073 113.0291451
  73.8740012 123.4984997 118.7279988  74.4570012 122.7644997 118.9199988
  74.4380012 124.2704997 118.7749988  74.0299769 123.5024227 118.7606159
  75.3700012 121.4014997 119.4129988  74.5070012 121.0224997 119.2469988
  75.9750012 120.6624997 119.3379988  75.3336119 121.2498268 119.3801528
  72.7280012 119.1114997 107.5519988  73.0080012 118.2044997 107.6759988
  73.4870012 119.5454997 107.1629988  72.8689277 119.0460942 107.5163682
  73.3400012 119.6924997 112.9879988  74.2730012 119.9044997 112.9529988
  73.1050012 119.7944997 113.9099988  73.4359244 119.7353100 113.1078892
  73.3690012 120.4294997 115.7639988  72.5260012 120.6974997 116.1299988
  73.8110012 121.2514997 115.5529988  73.3134158 120.5773291 115.7855491
  57.6500012 118.8774997 119.2409988  58.5700012 118.7554997 119.4769988
  57.2010012 118.1274997 119.6299988  57.7151580 118.7593727 119.3259006
  75.6520012 114.4094997 121.1169988  76.0020012 113.7554997 120.5119988
  75.7990012 115.2464997 120.6769988  75.7197887 114.4331548 120.9746858
  73.3410012 116.3744997 107.5999988  73.5240012 115.9254997 108.4259988
  72.7420012 115.7894997 107.1369988  73.2850202 116.2339975 107.6503275
  58.8710012 117.1894997 112.1319988  59.3170012 116.3974997 112.4339988
  59.3380012 117.9054997 112.5619988  58.9950831 117.1780685 112.2314006
  57.1750012 120.1884997 113.2009988  57.6670012 119.9674997 112.4099988
  57.5380012 121.0294997 113.4819988  57.2913126 120.2718357 113.1307531
  75.1720012 116.5184997 119.4659988  74.2540012 116.7894997 119.4309988
  75.2950012 115.9834997 118.6819988  75.0629729 116.4832508 119.3551923
  57.4890012 116.4464997 107.2549988  56.5640012 116.6554997 107.1259988
  57.9430012 116.9304997 106.5649988  57.4237292 116.5405343 107.1440720
  72.2600012 131.4304997 109.2009988  72.9120012 131.0834997 108.5929988
  72.7700012 131.9194997 109.8469988  72.4182637 131.4490597 109.2050236
  57.4530012 115.1844997 115.5989988  56.7880012 114.9384997 116.2429988
  57.0100012 115.8064997 115.0219988  57.3021318 115.2349410 115.6090898
  59.6450012 128.3594997 119.7439988  58.8240012 128.5344997 119.2829988
  59.3920012 128.2864997 120.6639988  59.4985585 128.3735544 119.8053561
  62.5990012 129.3344997 116.0019988  62.1740012 130.1434997 115.7199988
  63.5030012 129.4194997 115.6999988  62.6629975 129.4569300 115.9224816
  66.9100012 130.7334997 118.9619988  67.0950012 130.3994997 119.8399988
  67.7560012 131.0424997 118.6399988  67.0497539 130.7296047 119.0385605
  69.2550012 132.0194997 118.2059988  69.9320012 131.3864997 117.9659988
  69.5770012 132.4204997 119.0129988  69.3911637 131.9871154 118.2822793
  74.1720012 114.6084997 117.2849988  73.3600012 114.9334997 116.8979988
  74.4050012 113.8484997 116.7519988  74.0922203 114.5502758 117.1598880
  60.0010012 132.5904997 116.0499988  59.2800012 133.0304997 115.5989988
  59.6350012 132.3394997 116.8979988  59.8529651 132.6167242 116.1029640
  62.4680012 132.1904997 115.0799988  61.6030012 132.2624997 115.4839988
  62.4130012 132.7374997 114.2959988  62.3422085 132.2742685 115.0293362
  67.1780012 132.0784997 114.2549988  66.7220012 132.6074997 113.6009988
  67.3410012 132.6814997 114.9799988  67.1376068 132.2324607 114.2634838
  69.5060012 130.9564997 115.1999988  68.6010012 131.1214997 114.9339988
  69.9350012 131.8094997 115.1349988  69.4401324 131.0944339 115.1547976
  72.1100012 132.5264997 115.4949988  71.9280012 133.4424997 115.2849988
  72.2870012 132.1164997 114.6489988  72.1090210 132.5964822 115.3517885
  59.4150012 131.2134997 112.9599988  59.3970012 130.7884997 113.8169988
  60.2200012 130.8954997 112.5509988  59.5213529 131.1123013 113.0220946
  61.5570012 129.9234997 111.6149988  61.3380012 129.0074997 111.7849988
  62.3810012 130.0634997 112.0809988  61.6384420 129.8170520 111.7012774
  64.0940012 130.3934997 112.4639988  64.3070012 129.5054997 112.1769988
  64.1580012 130.3594997 113.4179988  64.1318232 130.2673102 112.5537397
  67.6020012 116.0574997 111.6079988  66.9280012 115.4284997 111.8639988
  68.1660012 115.5734997 111.0049988  67.5859230 115.9058744 111.5615340
  72.7450012 114.1654997 111.7209988  73.3490012 114.7124997 111.2189988
  71.8750012 114.4844997 111.4799988  72.7101208 114.2835137 111.6196886
  74.4720012 115.3034997 110.0539988  75.0840012 114.7894997 109.5269988
  74.8540012 116.1814997 110.0769988  74.6073371 115.3517866 109.9850041
  59.9290012 114.6914997 109.4299988  59.1520012 114.4574997 108.9229988
  60.4590012 113.8944997 109.4389988  59.8942330 114.5516988 109.3617742
  58.7650012 114.4894997 105.2339988  59.2040012 115.1004997 104.6419988
  58.1320012 115.0274997 105.7079988  58.7394514 114.6459257 105.2170930
  64.5080012 114.6184997 109.2439988  65.3830012 115.0064997 109.2139988
  64.3720012 114.4034997 110.1659988  64.6093695 114.6425184 109.3646440
  70.0650012 114.6484997 110.8929988  70.1410012 114.7434997 109.9429988
  69.7900012 113.7404997 111.0219988  70.0382321 114.5387867 110.7805079
  71.4180012 114.6744997 106.5849988  70.7160012 115.2894997 106.3749988
  70.9740012 113.8364997 106.7159988  71.2616450 114.6455639 106.5739000
  58.6660012 130.4374997 106.1309988  57.9810012 130.3994997 105.4639988
  58.6700012 131.3504997 106.4199988  58.5726998 130.5556733 106.0786771
  65.6520012 116.6984997 106.1329988  65.8300012 116.0524997 106.8159988
  65.5990012 117.5324997 106.5999988  65.6691999 116.7228009 106.2895917
  67.5310012 131.6474997 104.5289988  68.3970012 132.0134997 104.3509988
  67.2840012 131.2074997 103.7149988  67.6162392 131.6381756 104.3946289
  74.2400012 131.2104997 107.2079988  74.0450012 130.4624997 106.6429988
  74.2010012 131.9684997 106.6249988  74.2080380 131.2106099 107.0518384
  59.8870012 115.2054997 118.9479988  59.5210012 114.4404997 119.3899988
  60.8000012 115.2344997 119.2339988  59.9602736 115.1045640 119.0472502
  61.8600012 114.5564997 120.4839988  62.7580012 114.2824997 120.2989988
  61.4730012 113.8134997 120.9479988  61.9306612 114.4185914 120.5213643
  60.4840012 131.3574997 103.1569988  60.2170012 131.6444997 104.0299988
  61.2560012 130.8114997 103.3089988  60.5517488 131.3230294 103.2971050
  70.2810012 113.8884997 120.6659988  70.3580012 113.4624997 121.5199988
  71.1750012 113.9024997 120.3229988  70.4123428 113.8320879 120.7365310
  73.4570012 129.9614997 119.3579988  72.6750012 129.7754997 118.8379988
  73.3850012 130.8904997 119.5759988  73.3402274 130.0616643 119.3163018
  87.8630012 123.8474997 109.3889988  87.9520012 124.7914997 109.2569988
  87.2250012 123.5724997 108.7309988  87.7889081 123.9394830 109.2819614
  86.7960012 123.1024997 112.8079988  86.7580012 122.4564997 113.5129988
  86.4740012 122.6364997 112.0369988  86.7472333 122.9509408 112.8002978
  79.1650012 122.7174997 114.4009988  79.2060012 122.0914997 115.1239988
  79.8680012 123.3414997 114.5829988  79.2656363 122.7161196 114.5246044
  90.5020012 126.0414997 111.1089988  90.0620012 125.3214997 111.5599988
  90.4890012 126.7624997 111.7389988  90.4400226 126.0403731 111.2558494
  80.0880012 127.1674997 112.9359988  79.7190012 126.3654997 112.5659988
  81.0290012 126.9984997 112.9819988  80.1647289 127.0350153 112.8916316
  76.6980012 120.8274997 108.3289988  76.2510012 121.6734997 108.3099988
  76.1370012 120.2474997 107.8129988  76.5609900 120.8649916 108.2566801
  77.4090012 122.9894997 110.4539988  77.6220012 122.2194997 110.9819988
  78.1470012 123.0784997 109.8509988  77.5379044 122.8961968 110.4447123
  87.6140012 131.1464997 111.3209988  88.2340012 130.4694997 111.0479988
  87.4060012 130.9284997 112.2299988  87.6706726 131.0244800 111.4064812
  85.1860012 125.5354997 113.2139988  85.4900012 124.8494997 112.6189988
  85.9070012 125.6534997 113.8319988  85.3250671 125.4576305 113.2161816
  93.8490012 117.1364997 114.0749988  93.8980012 117.7464997 114.8099988
  94.2740012 117.5974997 113.3519988  93.9131746 117.2823796 114.0779175
  88.3270012 119.9294997 113.5409988  88.4690012 118.9834997 113.5619988
  88.2200012 120.1364997 112.6129988  88.3319919 119.8278246 113.4183408
  81.4810012 118.0304997 110.8139988  81.5250012 118.8904997 110.3949988
  81.0240012 117.4784997 110.1799988  81.4252240 118.0734422 110.6709864
  89.2040012 118.1614997 109.2149988  89.8500012 117.8324997 109.8389988
  89.7140012 118.6794997 108.5919988  89.3614299 118.1864450 109.2162731
  78.1020012 120.4274997 111.5759988  78.7550012 119.8774997 112.0079988
  78.1260012 120.1534997 110.6589988  78.1946683 120.3151466 111.5112123
  83.2580012 121.9774997 110.7909988  83.8740012 121.4514997 111.3009988
  82.6720012 121.3374997 110.3879988  83.2630810 121.8189208 110.8063173
  94.2400012 118.6144997 116.3099988  93.5520012 119.2724997 116.2149988
  94.2560012 118.4174997 117.2469988  94.1479540 118.6779819 116.4235990
  80.2920012 116.9484997 114.8879988  80.0730012 117.4784997 114.1219988
  79.6240012 117.1754997 115.5349988  80.1717600 117.0516906 114.8706379
  87.6610012 126.4484997 108.4319988  87.3650012 126.1264997 107.5809988
  87.3360012 127.3484997 108.4729988  87.5766371 126.5260215 108.3211801
  82.8610012 124.6244997 115.1749988  82.1210012 125.2224997 115.2789988
  83.5750012 125.1784997 114.8599988  82.8562237 124.7812831 115.1466465
  90.9680012 117.4524997 111.1949988  90.7520012 116.6864997 111.7279988
  91.6230012 117.9244997 111.7079988  91.0270632 117.4115889 111.3372861
  79.8850012 118.8404997 112.8399988  80.4990012 119.4734997 113.2129988
  80.3970012 118.3684997 112.1839988  80.0381981 118.8632267 112.8022908
  81.2680012 126.5884997 115.9619988  81.2630012 127.4684997 115.5839988
  80.4150012 126.5054997 116.3869988  81.1519464 126.6976117 115.9677907
  77.3890012 126.2594997 106.7439988  77.1170012 126.4884997 105.8559988
  77.4350012 127.0974997 107.2049988  77.3579482 126.4041318 106.6846273
  91.0140012 127.8814997 113.4569988  90.0730012 127.9394997 113.6189988
  91.2910012 128.7874997 113.3199988  90.9224679 128.0119443 113.4606815
  91.3150012 116.1674997 114.8749988  90.5790012 116.7784997 114.8369988
  91.9980012 116.5824997 114.3479988  91.3066541 116.3071374 114.7985832
  84.3180012 114.2544997 112.3399988  84.2010012 113.3054997 112.2859988
  83.4630012 114.5864997 112.6139988  84.1864212 114.1695571 112.3696497
  89.2660012 129.6624997 110.0819988  89.6920012 128.9554997 109.5969988
  89.5830012 130.4634997 109.6659988  89.3671683 129.6741017 109.9593680
  90.4260012 127.5634997 108.5909988  90.1680012 126.8734997 107.9799988
  90.4970012 127.1204997 109.4369988  90.4002856 127.4092124 108.6216885
  92.1120012 126.1294997 117.0679988  92.2520012 125.5384997 116.3289988
  92.2790012 127.0024997 116.7119988  92.1537411 126.1665428 116.9186894
  86.5850012 123.0914997 106.8409988  85.8730012 123.6264997 106.4889988
  87.2760012 123.1474997 106.1809988  86.5810132 123.1722543 106.7036289
  86.6380012 121.5494997 103.8799988  87.3390012 121.5714997 104.5309988
  86.9410012 120.9214997 103.2229988  86.7748133 121.4677070 103.8803369
  93.9540012 122.4694997 115.1339988  93.3010012 123.1644997 115.2239988
  94.4190012 122.6794997 114.3249988  93.9275274 122.5930643 115.0368462
  89.9900012 123.3014997 107.7929988  89.2580012 123.5294997 108.3659988
  90.4380012 122.5874997 108.2469988  89.9502725 123.2362145 107.9328816
  89.8880012 121.4754997 116.8599988  89.9680012 122.2384997 117.4319988
  89.2860012 121.7544997 116.1699988  89.8175756 121.6177134 116.8450589
  81.6360012 123.9314997 109.6749988  81.3050012 123.5614997 108.8569988
  82.2240012 123.2614997 110.0219988  81.6701873 123.7901156 109.6098102
  83.0020012 127.3594997 112.3559988  82.9080012 126.7814997 111.5999988
  83.7320012 126.9884997 112.8529988  83.0877387 127.2301663 112.3195342
  82.0020012 122.7004997 113.3089988  82.5680012 122.8214997 112.5459988
  82.3210012 123.3374997 113.9469988  82.1225474 122.8032219 113.2909862
  88.3110012 128.2034997 114.0429988  88.0710012 128.8654997 114.6909988
  88.1130012 127.3694997 114.4679988  88.2513808 128.1813134 114.1891524
  82.8820012 127.0994997 118.0259988  82.5710012 127.8814997 118.4809988
  82.2320012 126.9464997 117.3399988  82.7515558 127.1859105 117.9955871
  88.8610012 122.4634997 105.4779988  89.4410012 122.6134997 106.2249988
  89.2750012 122.9344997 104.7539988  88.9962997 122.5476578 105.4824058
  79.8020012 123.2974997 117.2539988  79.8730012 123.9484997 117.9529988
  78.9120012 123.4004997 116.9189988  79.6913005 123.4005427 117.3043495
  86.5880012 129.2004997 108.9129988  87.0620012 129.4954997 109.6899988
  86.0250012 129.9384997 108.6799988  86.5768184 129.3407247 108.9879628
  81.1220012 129.1714997 118.7889988  81.1290012 129.0354997 117.8419988
  80.2060012 129.0534997 119.0409988  80.9991714 129.1369430 118.6934666
  92.5600012 114.2134997 105.2909988  91.6600012 114.3524997 105.5859988
  92.8120012 115.0444997 104.8889988  92.4708702 114.3449074 105.2770205
  80.6260012 123.0014997 107.2639988  80.3340012 123.7694997 106.7739988
  79.9520012 122.3414997 107.1019988  80.4948111 123.0175587 107.1748978
  76.7190012 125.3644997 116.0789988  76.2180012 125.3364997 115.2639988
  76.7240012 124.4584997 116.3889988  76.6510944 125.2382396 116.0093226
  76.4690012 128.1444997 112.9629988  77.4150012 128.0004997 112.9439988
  76.3570012 128.9284997 113.4999988  76.5832727 128.2308046 113.0330072
  94.6670012 128.8104997 118.6459988  94.6180012 127.8554997 118.6089988
  93.8400012 129.0784997 119.0469988  94.5484940 128.7158998 118.6951375
  85.6460012 128.3844997 117.5219988  85.7330012 129.2104997 117.9969988
  84.7820012 128.0544997 117.7709988  85.5411964 128.4529878 117.6206549
  86.0600012 132.1564997 107.3279988  85.9850012 132.0354997 106.3809988
  86.0930012 133.1064997 107.4459988  86.0542068 132.2682646 107.2144967
  79.7130012 130.9454997 109.1089988  79.8660012 130.5974997 109.9869988
  78.8630012 130.5894997 108.8539988  79.6189166 130.8496216 109.1948079
  89.1620012 131.3104997 104.3299988  89.5370012 130.5664997 103.8589988
  89.1660012 131.0404997 105.2489988  89.2139125 131.1720986 104.3896483
  88.8310012 131.2364997 107.0789988  87.8950012 131.3364997 107.2579988
  89.1110012 130.5274997 107.6579988  88.7409553 131.1543406 107.1817087
  91.8190012 120.3034997 119.1259988  91.4120012 120.7844997 118.4049988
  91.8600012 119.3984997 118.8179988  91.7688437 120.2469374 118.9856683
  78.9680012 126.6874997 117.1229988  79.1840012 126.3264997 117.9819988
  78.1130012 126.3134997 116.9129988  78.8819292 126.5874111 117.2123386
  81.5870012 115.1574997 113.1179988  80.7250012 115.0704997 112.7099988
  81.5640012 116.0134997 113.5459988  81.4660409 115.2612883 113.1200589
  86.2500012 114.8794997 116.4929988  86.6700012 114.4644997 117.2459988
  85.3170012 114.7014997 116.6099988  86.1813644 114.7985900 116.6119539
  89.5760012 118.6354997 117.3459988  89.0620012 118.5094997 118.1439988
  89.4210012 119.5474997 117.1019988  89.4846852 118.7416132 117.4222158
  85.9110012 117.3724997 103.7779988  85.6580012 117.3914997 104.7009988
  85.6550012 116.5004997 103.4759988  85.8417481 117.2572558 103.8636175
  81.6780012 120.1234997 114.2129988  81.0360012 120.0824997 114.9219988
  81.7150012 121.0494997 113.9749988  81.5950664 120.2431430 114.2779219
  81.6750012 120.3444997 109.1249988  80.7820012 120.0034997 109.0659988
  82.1250012 119.9674997 108.3689988  81.6138130 120.2469631 109.0147702
  87.2100012 120.7604997 107.9419988  86.8010012 121.5754997 107.6509988
  87.9310012 120.6204997 107.3279988  87.2514537 120.8532018 107.8191342
  86.3120012 120.9354997 119.4299988  85.7500012 120.2314997 119.7509988
  87.1390012 120.8154997 119.8979988  86.3467095 120.8227883 119.5372330
  88.2150012 120.2064997 110.7559988  88.0200012 120.8114997 110.0409988
  88.3960012 119.3724997 110.3219988  88.2127614 120.1766300 110.5994405
  79.4280012 120.4434997 116.0799988  79.3900012 120.8434997 116.9489988
  78.9370012 119.6264997 116.1709988  79.3564684 120.3878069 116.2111059
  76.0360012 117.5594997 109.9309988  76.6670012 117.5304997 110.6499988
  76.4850012 117.1344997 109.1999988  76.1830918 117.4980836 109.9306441
  77.3100012 118.3054997 105.3549988  77.7840012 118.8964997 104.7699988
  76.5930012 118.8364997 105.7019988  77.2779341 118.4580867 105.3218836
  87.4790012 121.8444997 115.4269988  87.8020012 121.2134997 114.7839988
  87.0390012 121.3094997 116.0879988  87.4637484 121.6858387 115.4283198
  84.2560012 117.7714997 110.2109988  83.3450012 117.8284997 110.4999988
  84.7620012 117.7114997 111.0219988  84.1996899 117.7711941 110.3601184
  79.0850012 119.4004997 109.0379988  78.1950012 119.5004997 108.6979988
  79.3810012 118.5584997 108.6919988  79.0032823 119.3003545 108.9447213
  82.7380012 119.4004997 106.6949988  83.6690012 119.5294997 106.8729988
  82.5230012 120.0704997 106.0449988  82.8364247 119.5086565 106.6315747
  88.6610012 117.0064997 113.4759988  87.9850012 117.1374997 114.1399988
  88.1760012 116.8514997 112.6649988  88.5027146 117.0035157 113.4574469
  91.9490012 132.6784997 119.7519988  92.1490012 133.1024997 118.9179988
  92.6040012 133.0214997 120.3589988  92.0650072 132.7829857 119.7198592
  79.5470012 125.1524997 119.3599988  80.2790012 125.4064997 119.9219988
  78.7670012 125.3564997 119.8759988  79.5417073 125.2148160 119.5066151
  85.5760012 120.5594997 112.0979988  86.1410012 120.0124997 111.5509988
  85.4290012 120.0374997 112.8869988  85.6333380 120.4142259 112.1298695
  80.5780012 116.6954997 108.5169988  80.2610012 115.7934997 108.4809988
  81.3600012 116.6974997 107.9639988  80.6402408 116.5722474 108.4373569
  84.2030012 118.9474997 114.5119988  83.3670012 119.4014997 114.6229988
  84.7270012 119.2234997 115.2639988  84.1595416 119.0468660 114.6288119
  84.7470012 125.1604997 106.1969988  84.0020012 124.6534997 105.8749988
  84.6130012 125.2094997 107.1439988  84.6268776 125.0976940 106.2808647
  91.8970012 124.2934997 114.9839988  92.5390012 124.7504997 114.4399988
  91.0670012 124.4064997 114.5209988  91.8725963 124.3712704 114.8470177
  86.2660012 125.3444997 117.4339988  85.9210012 124.9634997 118.2409988
  86.0660012 126.2784997 117.5049988  86.1917527 125.4185135 117.5540689
  89.3630012 119.8414997 106.0569988  90.2550012 119.7044997 106.3759988
  89.4200012 120.6324997 105.5199988  89.4926504 119.9296052 106.0280818
  79.8720012 124.4554997 111.9669988  80.6170012 124.4534997 111.3659988
  79.9500012 123.6324997 112.4479988  79.9844995 124.3438887 111.9498282
  76.8800012 122.9164997 117.2819988  77.1030012 122.4984997 118.1139988
  76.2780012 122.3034997 116.8589988  76.8291759 122.7764668 117.3387022
  83.8960012 122.4334997 119.4949988  83.6000012 122.2674997 118.5999988
  84.8280012 122.2134997 119.4839988  83.9814166 122.3810640 119.3710536
  88.5170012 127.8064997 117.3849988  87.6160012 127.9894997 117.1169988
  88.5510012 128.0654997 118.3049988  88.3983139 127.8665849 117.4728099
  94.2480012 120.0514997 105.7519988  93.6940012 119.6554997 105.0799988
  94.3480012 120.9614997 105.4739988  94.1857059 120.1203586 105.6224401
  94.2110012 125.8514997 118.5889988  93.3600012 126.0894997 118.2219988
  94.8020012 125.8344997 117.8359988  94.1742487 125.8818258 118.4368893
  92.5430012 128.8374997 106.2169988  92.1700012 128.0114997 106.5259988
  92.8210012 128.6544997 105.3189988  92.5295222 128.6997430 106.1379473
  89.7040012 123.6454997 113.2379988  88.7750012 123.4134997 113.2109988
  90.1550012 122.8684997 112.9079988  89.6379216 123.5087238 113.1896917
  82.2470012 127.9734997 109.3709988  82.7740012 128.7464997 109.1709988
  81.3670012 128.1984997 109.0689988  82.2002031 128.1097545 109.3027912
  83.6740012 125.6364997 108.9469988  83.4330012 126.5614997 108.9889988
  82.9330012 125.1774997 109.3439988  83.5409225 125.7010933 109.0063742
  84.1890012 129.7854997 115.2629988  84.5510012 130.6404997 115.0289988
  84.7200012 129.4934997 116.0029988  84.3104473 129.8631060 115.3310855
  82.3570012 130.6584997 108.4929988  81.4070012 130.7634997 108.5439988
  82.7090012 131.4784997 108.8369988  82.2744195 130.7838800 108.5465502
  87.7330012 125.8844997 114.9629988  87.3070012 125.6574997 115.7899988
  88.3130012 125.1464997 114.7809988  87.7531868 125.7535299 115.0515830
  90.3910012 130.4364997 117.4329988  89.7900012 129.8814997 116.9369988
  90.6730012 131.1034997 116.8059988  90.3468804 130.4506625 117.2804849
  78.5140012 117.6694997 116.8399988  77.6210012 118.0084997 116.7719988
  78.4150012 116.8144997 117.2579988  78.3784164 117.6002588 116.8872235
  90.8020012 125.4864997 106.2639988  90.5240012 124.7584997 106.8199988
  91.7290012 125.6054997 106.4689988  90.8893124 125.4028802 106.3678845
  78.1650012 129.4744997 115.2749988  78.3820012 128.5424997 115.2439988
  78.4110012 129.7484997 116.1579988  78.2279549 129.3840636 115.3901763
  79.4170012 124.7484997 105.4509988  78.7310012 125.1004997 106.0179988
  79.9390012 125.5114997 105.2039988  79.3936852 124.8998578 105.4952118
  87.2480012 117.4104997 115.7299988  87.9470012 117.4844997 116.3799988
  86.8670012 116.5464997 115.8839988  87.2921767 117.3037624 115.8398322
  88.0330012 117.0624997 106.8269988  88.2530012 117.5344997 106.0239988
  88.5910012 117.4574997 107.4969988  88.1384968 117.1804285 106.8077331
  85.2330012 118.7904997 107.6619988  86.0450012 119.2954997 107.7079988
  84.9880012 118.6454997 108.5759988  85.3110520 118.8400375 107.7918517
  85.7680012 119.7764997 116.8459988  85.8870012 120.3504997 117.6039988
  86.4240012 119.0884997 116.9609988  85.8729025 119.7619858 116.9651321
  86.1160012 115.8714997 108.5999988  85.7700012 116.4894997 109.2439988
  86.7750012 116.3724997 108.1179988  86.1576968 116.0236278 108.6229383
  81.7740012 116.9344997 105.2869988  81.6910012 117.8234997 105.6339988
  82.6640012 116.6694997 105.5189988  81.8829469 117.0201430 105.3657626
  91.9730012 117.6834997 117.6809988  91.0560012 117.9464997 117.5939988
  92.3080012 117.6804997 116.7849988  91.8928613 117.7190761 117.5478837
  90.5750012 121.4344997 111.7769988  89.7770012 121.0194997 111.4489988
  91.0200012 120.7434997 112.2679988  90.5259885 121.2843543 111.7984889
  80.0330012 127.3624997 104.3479988  80.6250012 128.0614997 104.6239988
  80.4920012 126.9294997 103.6279988  80.1761142 127.3997049 104.2884830
  91.6610012 130.6904997 113.3999988  91.5060012 131.3684997 112.7419988
  92.5940012 130.7624997 113.6029988  91.7658657 130.7929546 113.3374360
  79.1570012 114.8084997 112.1369988  78.9280012 114.8674997 111.2089988
  78.7140012 114.0164997 112.4429988  79.0658530 114.7095753 112.0514786
  78.0870012 128.7484997 108.2969988  77.2550012 129.2214997 108.3239988
  78.6330012 129.2584997 107.6989988  78.0470352 128.8821332 108.2198463
  77.3750012 131.3614997 119.6269988  77.9160012 131.1444997 120.3869988
  76.8940012 130.5554997 119.4369988  77.3839951 131.2229270 119.7052576
  81.9730012 130.2804997 121.2469988  82.7400012 129.8214997 121.5879988
  81.9510012 130.0544997 120.3179988  82.0751275 130.1870186 121.1680101
  88.5500012 128.6604997 119.9769988  88.1990012 127.8044997 120.2199988
  89.2760012 128.8034997 120.5839988  88.6000769 128.5625636 120.0923619
  77.2820012 125.1714997 120.5809988  77.4260012 124.2694997 120.2949988
  76.5100012 125.4574997 120.0939988  77.1972753 125.0866816 120.4759505
  81.6240012 125.5154997 102.7139988  81.6880012 124.7214997 103.2449988
  82.2770012 125.3964997 102.0239988  81.7210241 125.3907148 102.6934317
  83.9380012 125.1414997 120.0139988  83.6090012 125.4124997 119.1569988
  84.0900012 124.2004997 119.9269988  83.9134809 125.0513862 119.8848244
  89.6720012 125.0574997 117.3969988  90.4180012 125.6454997 117.2779988
  88.9150012 125.6394997 117.4609988  89.6717820 125.2167143 117.3893590
  78.1150012 122.3714997 120.0009988  78.5230012 121.5144997 119.8799988
  77.8550012 122.3864997 120.9219988  78.1357568 122.2560807 120.1089588
  82.7730012 123.4874997 105.0199988  82.3130012 123.0034997 105.7059988
  83.0280012 122.8194997 104.3839988  82.7444902 123.3308731 105.0279334
  82.0620012 121.3804997 117.3759988  81.4440012 122.0554997 117.6559988
  82.4060012 121.7014997 116.5419988  82.0239132 121.5162411 117.3016262
  87.0820012 123.8524997 120.6529988  88.0350012 123.9354997 120.6259988
  86.9210012 123.1404997 121.2729988  87.1906426 123.7676746 120.7330579
  82.4010012 118.7354997 118.4579988  82.5510012 118.0064997 117.8559988
  82.4040012 119.5124997 117.8989988  82.4219302 118.7407851 118.3000692
  82.8140012 117.1054997 115.9509988  83.3500012 117.5564997 115.2989988
  81.9620012 116.9974997 115.5279988  82.7722178 117.1526390 115.8045756
  84.3960012 122.5444997 116.1899988  85.1460012 122.3884997 115.6169988
  84.0570012 123.3964997 115.9149988  84.4528921 122.6382968 116.0743561
  88.8110012 120.3594997 121.2189988  89.0040012 119.4284997 121.1069988
  89.6690012 120.7844997 121.2079988  88.9532934 120.2896531 121.2022031
  90.1280012 123.1484997 119.2959988  89.8470012 123.8574997 118.7179988
  91.0710012 123.0754997 119.1449988  90.2169291 123.2356711 119.1964967
  80.8800012 119.9334997 120.3699988  80.1130012 119.4014997 120.1589988
  81.5590012 119.6234997 119.7699988  80.8667877 119.8188300 120.2600716
  83.6200012 114.5614997 116.3819988  83.5210012 115.5084997 116.2769988
  82.8770012 114.1894997 115.9059988  83.5061184 114.6405863 116.3033621
  84.8840012 118.8834997 119.9459988  84.6480012 118.6634997 120.8469988
  84.1000012 118.6764997 119.4359988  84.7458504 118.8254586 120.0003431
  87.5990012 118.0104997 119.0209988  86.6520012 118.0424997 119.1539988
  87.9120012 117.3854997 119.6749988  87.5116707 117.9303998 119.1276060
  89.2330012 116.6444997 121.0269988  89.1370012 115.6924997 121.0209988
  88.9120012 116.9134997 121.8869988  89.1764070 116.5504035 121.1425441
  79.0600012 117.8544997 120.0739988  79.2720012 117.1474997 119.4639988
  78.9490012 117.4164997 120.9179988  79.0739721 117.6987084 120.1046843
  83.8410012 113.8554997 119.0529988  84.5530012 113.2154997 119.0389988
  83.7400012 114.1224997 118.1399988  83.9248066 113.8040079 118.9275677
  84.1950012 115.5384997 121.1069988  84.0630012 115.0624997 120.2869988
  83.5960012 116.2824997 121.0519988  84.0959071 115.5739618 120.9872886
  77.3100012 127.0574997 103.7659988  78.2240012 127.1364997 104.0399988
  77.3170012 126.3704997 103.0999988  77.4361131 126.9753961 103.7134393
  75.9590012 132.4504997 108.8439988  75.3120012 131.9884997 108.3109988
  76.3130012 131.7784997 109.4259988  75.9183849 132.2964723 108.8497959
  76.8290012 130.5314997 110.6479988  76.4940012 129.6514997 110.8199988
  77.0510012 130.8764997 111.5129988  76.8131783 130.4577500 110.7884208
  94.3770012 131.3404997 113.6289988  94.3560012 131.5254997 114.5679988
  95.0680012 131.9094997 113.2879988  94.4674618 131.4426606 113.7113864
  93.9410012 130.9084997 116.5509988  93.4530012 130.1724997 116.1789988
  94.4900012 130.5144997 117.2289988  93.9484820 130.7545889 116.5917813
  92.3910012 126.6974997 121.1889988  91.5250012 126.5924997 121.5829988
  92.7680012 127.4564997 121.6349988  92.3233308 126.7856900 121.3032393
  93.6920012 124.9544997 106.7029988  94.5420012 125.3754997 106.8299988
  93.6980012 124.2144997 107.3099988  93.8091372 124.9120803 106.8024344
  94.0870012 123.0074997 108.5259988  93.3600012 122.5284997 108.9239988
  94.6680012 123.2134997 109.2589988  94.0660473 122.9698103 108.6794528
  93.8460012 125.7924997 113.4739988  94.6790012 125.4144997 113.1939988
  93.9580012 126.7354997 113.3549988  93.9752647 125.8682218 113.4195487
  92.3320012 128.6704997 115.7809988  91.6850012 128.9954997 116.4069988
  91.8150012 128.2304997 115.1069988  92.1734029 128.6555004 115.7755827
  91.8730012 121.5284997 109.0889988  91.7230012 120.5834997 109.0689988
  91.5200012 121.8094997 109.9329988  91.8047448 121.4371481 109.2003705
  76.9090012 123.6064997 113.0999988  77.0930012 123.5244997 112.1639988
  77.7580012 123.4824997 113.5229988  77.0490151 123.5785073 113.0291451
  92.7300012 123.4984997 118.7279988  93.3130012 122.7644997 118.9199988
  93.2940012 124.2704997 118.7749988  92.8859769 123.5024227 118.7606159
  94.2260012 121.4014997 119.4129988  93.3630012 121.0224997 119.2469988
  94.8310012 120.6624997 119.3379988  94.1896119 121.2498268 119.3801528
  91.5840012 119.1114997 107.5519988  91.8640012 118.2044997 107.6759988
  92.3430012 119.5454997 107.1629988  91.7249277 119.0460942 107.5163682
  92.1960012 119.6924997 112.9879988  93.1290012 119.9044997 112.9529988
  91.9610012 119.7944997 113.9099988  92.2919244 119.7353100 113.1078892
  92.2250012 120.4294997 115.7639988  91.3820012 120.6974997 116.1299988
  92.6670012 121.2514997 115.5529988  92.1694158 120.5773291 115.7855491
  76.5060012 118.8774997 119.2409988  77.4260012 118.7554997 119.4769988
  76.0570012 118.1274997 119.6299988  76.5711580 118.7593727 119.3259006
  94.5080012 114.4094997 121.1169988  94.8580012 113.7554997 120.5119988
  94.6550012 115.2464997 120.6769988  94.5757887 114.4331548 120.9746858
  92.1970012 116.3744997 107.5999988  92.3800012 115.9254997 108.4259988
  91.5980012 115.7894997 107.1369988  92.1410202 116.2339975 107.6503275
  77.7270012 117.1894997 112.1319988  78.1730012 116.3974997 112.4339988
  78.1940012 117.9054997 112.5619988  77.8510831 117.1780685 112.2314006
  76.0310012 120.1884997 113.2009988  76.5230012 119.9674997 112.4099988
  76.3940012 121.0294997 113.4819988  76.1473126 120.2718357 113.1307531
  94.0280012 116.5184997 119.4659988  93.1100012 116.7894997 119.4309988
  94.1510012 115.9834997 118.6819988  93.9189729 116.4832508 119.3551923
  76.3450012 116.4464997 107.2549988  75.4200012 116.6554997 107.1259988
  76.7990012 116.9304997 106.5649988  76.2797292 116.5405343 107.1440720
  91.1160012 131.4304997 109.2009988  91.7680012 131.0834997 108.5929988
  91.6260012 131.9194997 109.8469988  91.2742637 131.4490597 109.2050236
  76.3090012 115.1844997 115.5989988  75.6440012 114.9384997 116.2429988
  75.8660012 115.8064997 115.0219988  76.1581318 115.2349410 115.6090898
  78.5010012 128.3594997 119.7439988  77.6800012 128.5344997 119.2829988
  78.2480012 128.2864997 120.6639988  78.3545585 128.3735544 119.8053561
  81.4550012 129.3344997 116.0019988  81.0300012 130.1434997 115.7199988
  82.3590012 129.4194997 115.6999988  81.5189975 129.4569300 115.9224816
  85.7660012 130.7334997 118.9619988  85.9510012 130.3994997 119.8399988
  86.6120012 131.0424997 118.6399988  85.9057539 130.7296047 119.0385605
  88.1110012 132.0194997 118.2059988  88.7880012 131.3864997 117.9659988
  88.4330012 132.4204997 119.0129988  88.2471637 131.9871154 118.2822793
  93.0280012 114.6084997 117.2849988  92.2160012 114.9334997 116.8979988
  93.2610012 113.8484997 116.7519988  92.9482203 114.5502758 117.1598880
  78.8570012 132.5904997 116.0499988  78.1360012 133.0304997 115.5989988
  78.4910012 132.3394997 116.8979988  78.7089651 132.6167242 116.1029640
  81.3240012 132.1904997 115.0799988  80.4590012 132.2624997 115.4839988
  81.2690012 132.7374997 114.2959988  81.1982085 132.2742685 115.0293362
  86.0340012 132.0784997 114.2549988  85.5780012 132.6074997 113.6009988
  86.1970012 132.6814997 114.9799988  85.9936068 132.2324607 114.2634838
  88.3620012 130.9564997 115.1999988  87.4570012 131.1214997 114.9339988
  88.7910012 131.8094997 115.1349988  88.2961324 131.0944339 115.1547976
  90.9660012 132.5264997 115.4949988  90.7840012 133.4424997 115.2849988
  91.1430012 132.1164997 114.6489988  90.9650210 132.5964822 115.3517885
  78.2710012 131.2134997 112.9599988  78.2530012 130.7884997 113.8169988
  79.0760012 130.8954997 112.5509988  78.3773529 131.1123013 113.0220946
  80.4130012 129.9234997 111.6149988  80.1940012 129.0074997 111.7849988
  81.2370012 130.0634997 112.0809988  80.4944420 129.8170520 111.7012774
  82.9500012 130.3934997 112.4639988  83.1630012 129.5054997 112.1769988
  83.0140012 130.3594997 113.4179988  82.9878232 130.2673102 112.5537397
  86.4580012 116.0574997 111.6079988  85.7840012 115.4284997 111.8639988
  87.0220012 115.5734997 111.0049988  86.4419230 115.9058744 111.5615340
  91.6010012 114.1654997 111.7209988  92.2050012 114.7124997 111.2189988
  90.7310012 114.4844997 111.4799988  91.5661208 114.2835137 111.6196886
  93.3280012 115.3034997 110.0539988  93.9400012 114.7894997 109.5269988
  93.7100012 116.1814997 110.0769988  93.4633371 115.3517866 109.9850041
  78.7850012 114.6914997 109.4299988  78.0080012 114.4574997 108.9229988
  79.3150012 113.8944997 109.4389988  78.7502330 114.5516988 109.3617742
  83.3640012 114.6184997 109.2439988  84.2390012 115.0064997 109.2139988
  83.2280012 114.4034997 110.1659988  83.4653695 114.6425184 109.3646440
  88.9210012 114.6484997 110.8929988  88.9970012 114.7434997 109.9429988
  88.6460012 113.7404997 111.0219988  88.8942321 114.5387867 110.7805079
  90.2740012 114.6744997 106.5849988  89.5720012 115.2894997 106.3749988
  89.8300012 113.8364997 106.7159988  90.1176450 114.6455639 106.5739000
  77.5220012 130.4374997 106.1309988  76.8370012 130.3994997 105.4639988
  77.5260012 131.3504997 106.4199988  77.4286998 130.5556733 106.0786771
  79.4820012 116.4054997 103.6759988  79.9740012 115.7754997 103.1489988
  80.1060012 116.7014997 104.3389988  79.6335688 116.3593804 103.6935482
  84.5080012 116.6984997 106.1329988  84.6860012 116.0524997 106.8159988
  84.4550012 117.5324997 106.5999988  84.5251999 116.7228009 106.2895917
  93.0960012 131.2104997 107.2079988  92.9010012 130.4624997 106.6429988
  93.0570012 131.9684997 106.6249988  93.0640380 131.2106099 107.0518384
  78.7430012 115.2054997 118.9479988  78.3770012 114.4404997 119.3899988
  79.6560012 115.2344997 119.2339988  78.8162736 115.1045640 119.0472502
  80.7160012 114.5564997 120.4839988  81.6140012 114.2824997 120.2989988
  80.3290012 113.8134997 120.9479988  80.7866612 114.4185914 120.5213643
  89.1370012 113.8884997 120.6659988  89.2140012 113.4624997 121.5199988
  90.0310012 113.9024997 120.3229988  89.2683428 113.8320879 120.7365310
  92.3130012 129.9614997 119.3579988  91.5310012 129.7754997 118.8379988
  92.2410012 130.8904997 119.5759988  92.1962274 130.0616643 119.3163018
 106.7190012 123.8474997 109.3889988 106.8080012 124.7914997 109.2569988
 106.0810012 123.5724997 108.7309988 106.6449081 123.9394830 109.2819614
 105.6520012 123.1024997 112.8079988 105.6140012 122.4564997 113.5129988
 105.3300012 122.6364997 112.0369988 105.6032333 122.9509408 112.8002978
  98.0210012 122.7174997 114.4009988  98.0620012 122.0914997 115.1239988
  98.7240012 123.3414997 114.5829988  98.1216363 122.7161196 114.5246044
 109.3580012 126.0414997 111.1089988 108.9180012 125.3214997 111.5599988
 109.3450012 126.7624997 111.7389988 109.2960226 126.0403731 111.2558494
  98.9440012 127.1674997 112.9359988  98.5750012 126.3654997 112.5659988
  99.8850012 126.9984997 112.9819988  99.0207289 127.0350153 112.8916316
  95.5540012 120.8274997 108.3289988  95.1070012 121.6734997 108.3099988
  94.9930012 120.2474997 107.8129988  95.4169900 120.8649916 108.2566801
  96.2650012 122.9894997 110.4539988  96.4780012 122.2194997 110.9819988
  97.0030012 123.0784997 109.8509988  96.3939044 122.8961968 110.4447123
 106.4700012 131.1464997 111.3209988 107.0900012 130.4694997 111.0479988
 106.2620012 130.9284997 112.2299988 106.5266726 131.0244800 111.4064812
 104.0420012 125.5354997 113.2139988 104.3460012 124.8494997 112.6189988
 104.7630012 125.6534997 113.8319988 104.1810671 125.4576305 113.2161816
 112.7050012 117.1364997 114.0749988 112.7540012 117.7464997 114.8099988
 113.1300012 117.5974997 113.3519988 112.7691746 117.2823796 114.0779175
 107.1830012 119.9294997 113.5409988 107.3250012 118.9834997 113.5619988
 107.0760012 120.1364997 112.6129988 107.1879919 119.8278246 113.4183408
 100.3370012 118.0304997 110.8139988 100.3810012 118.8904997 110.3949988
  99.8800012 117.4784997 110.1799988 100.2812240 118.0734422 110.6709864
 108.0600012 118.1614997 109.2149988 108.7060012 117.8324997 109.8389988
 108.5700012 118.6794997 108.5919988 108.2174299 118.1864450 109.2162731
  96.9580012 120.4274997 111.5759988  97.6110012 119.8774997 112.0079988
  96.9820012 120.1534997 110.6589988  97.0506683 120.3151466 111.5112123
 102.1140012 121.9774997 110.7909988 102.7300012 121.4514997 111.3009988
 101.5280012 121.3374997 110.3879988 102.1190810 121.8189208 110.8063173
 113.0960012 118.6144997 116.3099988 112.4080012 119.2724997 116.2149988
 113.1120012 118.4174997 117.2469988 113.0039540 118.6779819 116.4235990
  99.1480012 116.9484997 114.8879988  98.9290012 117.4784997 114.1219988
  98.4800012 117.1754997 115.5349988  99.0277600 117.0516906 114.8706379
 106.5170012 126.4484997 108.4319988 106.2210012 126.1264997 107.5809988
 106.1920012 127.3484997 108.4729988 106.4326371 126.5260215 108.3211801
 101.7170012 124.6244997 115.1749988 100.9770012 125.2224997 115.2789988
 102.4310012 125.1784997 114.8599988 101.7122237 124.7812831 115.1466465
 109.8240012 117.4524997 111.1949988 109.6080012 116.6864997 111.7279988
 110.4790012 117.9244997 111.7079988 109.8830632 117.4115889 111.3372861
  98.7410012 118.8404997 112.8399988  99.3550012 119.4734997 113.2129988
  99.2530012 118.3684997 112.1839988  98.8941981 118.8632267 112.8022908
 100.1240012 126.5884997 115.9619988 100.1190012 127.4684997 115.5839988
  99.2710012 126.5054997 116.3869988 100.0079464 126.6976117 115.9677907
  96.2450012 126.2594997 106.7439988  95.9730012 126.4884997 105.8559988
  96.2910012 127.0974997 107.2049988  96.2139482 126.4041318 106.6846273
 109.8700012 127.8814997 113.4569988 108.9290012 127.9394997 113.6189988
 110.1470012 128.7874997 113.3199988 109.7784679 128.0119443 113.4606815
 110.1710012 116.1674997 114.8749988 109.4350012 116.7784997 114.8369988
 110.8540012 116.5824997 114.3479988 110.1626541 116.3071374 114.7985832
 103.1740012 114.2544997 112.3399988 103.0570012 113.3054997 112.2859988
 102.3190012 114.5864997 112.6139988 103.0424212 114.1695571 112.3696497
 108.1220012 129.6624997 110.0819988 108.5480012 128.9554997 109.5969988
 108.4390012 130.4634997 109.6659988 108.2231683 129.6741017 109.9593680
 109.2820012 127.5634997 108.5909988 109.0240012 126.8734997 107.9799988
 109.3530012 127.1204997 109.4369988 109.2562856 127.4092124 108.6216885
 110.9680012 126.1294997 117.0679988 111.1080012 125.5384997 116.3289988
 111.1350012 127.0024997 116.7119988 111.0097411 126.1665428 116.9186894
 105.4410012 123.0914997 106.8409988 104.7290012 123.6264997 106.4889988
 106.1320012 123.1474997 106.1809988 105.4370132 123.1722543 106.7036289
 112.8100012 122.4694997 115.1339988 112.1570012 123.1644997 115.2239988
 113.2750012 122.6794997 114.3249988 112.7835274 122.5930643 115.0368462
 108.8460012 123.3014997 107.7929988 108.1140012 123.5294997 108.3659988
 109.2940012 122.5874997 108.2469988 108.8062725 123.2362145 107.9328816
 108.7440012 121.4754997 116.8599988 108.8240012 122.2384997 117.4319988
 108.1420012 121.7544997 116.1699988 108.6735756 121.6177134 116.8450589
 100.4920012 123.9314997 109.6749988 100.1610012 123.5614997 108.8569988
 101.0800012 123.2614997 110.0219988 100.5261873 123.7901156 109.6098102
 101.8580012 127.3594997 112.3559988 101.7640012 126.7814997 111.5999988
 102.5880012 126.9884997 112.8529988 101.9437386 127.2301663 112.3195342
 100.8580012 122.7004997 113.3089988 101.4240012 122.8214997 112.5459988
 101.1770012 123.3374997 113.9469988 100.9785474 122.8032219 113.2909862
 107.1670012 128.2034997 114.0429988 106.9270012 128.8654997 114.6909988
 106.9690012 127.3694997 114.4679988 107.1073808 128.1813134 114.1891524
 101.7380012 127.0994997 118.0259988 101.4270012 127.8814997 118.4809988
 101.0880012 126.9464997 117.3399988 101.6075558 127.1859105 117.9955871
  98.6580012 123.2974997 117.2539988  98.7290012 123.9484997 117.9529988
  97.7680012 123.4004997 116.9189988  98.5473005 123.4005427 117.3043495
 105.4440012 129.2004997 108.9129988 105.9180012 129.4954997 109.6899988
 104.8810012 129.9384997 108.6799988 105.4328184 129.3407247 108.9879628
  99.9780012 129.1714997 118.7889988  99.9850012 129.0354997 117.8419988
  99.0620012 129.0534997 119.0409988  99.8551714 129.1369430 118.6934666
 111.4160012 114.2134997 105.2909988 110.5160012 114.3524997 105.5859988
 111.6680012 115.0444997 104.8889988 111.3268702 114.3449074 105.2770205
  99.4820012 123.0014997 107.2639988  99.1900012 123.7694997 106.7739988
  98.8080012 122.3414997 107.1019988  99.3508111 123.0175587 107.1748978
 112.6050012 128.5794997 103.6669988 112.6790012 129.5184997 103.8379988
 113.5110012 128.2744997 103.6109988 112.7375100 128.6666722 103.6828119
  95.5750012 125.3644997 116.0789988  95.0740012 125.3364997 115.2639988
  95.5800012 124.4584997 116.3889988  95.5070944 125.2382396 116.0093226
  95.3250012 128.1444997 112.9629988  96.2710012 128.0004997 112.9439988
  95.2130012 128.9284997 113.4999988  95.4392727 128.2308046 113.0330072
 113.5230012 128.8104997 118.6459988 113.4740012 127.8554997 118.6089988
 112.6960012 129.0784997 119.0469988 113.4044940 128.7158998 118.6951375
 104.5020012 128.3844997 117.5219988 104.5890012 129.2104997 117.9969988
 103.6380012 128.0544997 117.7709988 104.3971964 128.4529878 117.6206549
 104.9160012 132.1564997 107.3279988 104.8410012 132.0354997 106.3809988
 104.9490012 133.1064997 107.4459988 104.9102068 132.2682646 107.2144967
  98.5690012 130.9454997 109.1089988  98.7220012 130.5974997 109.9869988
  97.7190012 130.5894997 108.8539988  98.4749166 130.8496216 109.1948079
 107.6870012 131.2364997 107.0789988 106.7510012 131.3364997 107.2579988
 107.9670012 130.5274997 107.6579988 107.5969553 131.1543406 107.1817087
 110.6750012 120.3034997 119.1259988 110.2680012 120.7844997 118.4049988
 110.7160012 119.3984997 118.8179988 110.6248437 120.2469374 118.9856683
  97.8240012 126.6874997 117.1229988  98.0400012 126.3264997 117.9819988
  96.9690012 126.3134997 116.9129988  97.7379292 126.5874111 117.2123386
 100.4430012 115.1574997 113.1179988  99.5810012 115.0704997 112.7099988
 100.4200012 116.0134997 113.5459988 100.3220409 115.2612883 113.1200589
 105.1060012 114.8794997 116.4929988 105.5260012 114.4644997 117.2459988
 104.1730012 114.7014997 116.6099988 105.0373644 114.7985900 116.6119539
 108.4320012 118.6354997 117.3459988 107.9180012 118.5094997 118.1439988
 108.2770012 119.5474997 117.1019988 108.3406852 118.7416132 117.4222158
 104.7670012 117.3724997 103.7779988 104.5140012 117.3914997 104.7009988
 104.5110012 116.5004997 103.4759988 104.6977481 117.2572558 103.8636175
 100.5340012 120.1234997 114.2129988  99.8920012 120.0824997 114.9219988
 100.5710012 121.0494997 113.9749988 100.4510664 120.2431430 114.2779219
 100.5310012 120.3444997 109.1249988  99.6380012 120.0034997 109.0659988
 100.9810012 119.9674997 108.3689988 100.4698130 120.2469631 109.0147702
 106.0660012 120.7604997 107.9419988 105.6570012 121.5754997 107.6509988
 106.7870012 120.6204997 107.3279988 106.1074537 120.8532018 107.8191342
 105.1680012 120.9354997 119.4299988 104.6060012 120.2314997 119.7509988
 105.9950012 120.8154997 119.8979988 105.2027095 120.8227883 119.5372330
 107.0710012 120.2064997 110.7559988 106.8760012 120.8114997 110.0409988
 107.2520012 119.3724997 110.3219988 107.0687614 120.1766300 110.5994405
  98.2840012 120.4434997 116.0799988  98.2460012 120.8434997 116.9489988
  97.7930012 119.6264997 116.1709988  98.2124684 120.3878069 116.2111059
 101.6500012 117.8174997 102.8789988 101.2190012 117.3724997 103.6089988
 100.9320012 118.1894997 102.3669988 101.4939438 117.8068940 102.9096799
  94.8920012 117.5594997 109.9309988  95.5230012 117.5304997 110.6499988
  95.3410012 117.1344997 109.1999988  95.0390918 117.4980836 109.9306441
  96.1660012 118.3054997 105.3549988  96.6400012 118.8964997 104.7699988
  95.4490012 118.8364997 105.7019988  96.1339341 118.4580867 105.3218836
 106.3350012 121.8444997 115.4269988 106.6580012 121.2134997 114.7839988
 105.8950012 121.3094997 116.0879988 106.3197484 121.6858387 115.4283198
 103.1120012 117.7714997 110.2109988 102.2010012 117.8284997 110.4999988
 103.6180012 117.7114997 111.0219988 103.0556899 117.7711941 110.3601184
  97.9410012 119.4004997 109.0379988  97.0510012 119.5004997 108.6979988
  98.2370012 118.5584997 108.6919988  97.8592823 119.3003545 108.9447213
 101.5940012 119.4004997 106.6949988 102.5250012 119.5294997 106.8729988
 101.3790012 120.0704997 106.0449988 101.6924247 119.5086565 106.6315747
 107.5170012 117.0064997 113.4759988 106.8410012 117.1374997 114.1399988
 107.0320012 116.8514997 112.6649988 107.3587146 117.0035157 113.4574469
 100.2680012 120.5954997 104.2609988  99.7250012 120.2154997 103.5699988
 101.1010012 120.7894997 103.8329988 100.3063631 120.5697125 104.1084501
 110.8050012 132.6784997 119.7519988 111.0050012 133.1024997 118.9179988
 111.4600012 133.0214997 120.3589988 110.9210072 132.7829857 119.7198592
  98.4030012 125.1524997 119.3599988  99.1350012 125.4064997 119.9219988
  97.6230012 125.3564997 119.8759988  98.3977073 125.2148160 119.5066151
 104.4320012 120.5594997 112.0979988 104.9970012 120.0124997 111.5509988
 104.2850012 120.0374997 112.8869988 104.4893380 120.4142259 112.1298695
  99.4340012 116.6954997 108.5169988  99.1170012 115.7934997 108.4809988
 100.2160012 116.6974997 107.9639988  99.4962408 116.5722474 108.4373569
 103.0590012 118.9474997 114.5119988 102.2230012 119.4014997 114.6229988
 103.5830012 119.2234997 115.2639988 103.0155416 119.0468660 114.6288119
 103.6030012 125.1604997 106.1969988 102.8580012 124.6534997 105.8749988
 103.4690012 125.2094997 107.1439988 103.4828776 125.0976940 106.2808647
 110.7530012 124.2934997 114.9839988 111.3950012 124.7504997 114.4399988
 109.9230012 124.4064997 114.5209988 110.7285963 124.3712704 114.8470177
 107.5010012 117.9744997 104.3959988 106.5620012 118.0864997 104.2449988
 107.7980012 118.8314997 104.7029988 107.4127583 118.1055981 104.4168337
 105.1220012 125.3444997 117.4339988 104.7770012 124.9634997 118.2409988
 104.9220012 126.2784997 117.5049988 105.0477527 125.4185135 117.5540689
 108.2190012 119.8414997 106.0569988 109.1110012 119.7044997 106.3759988
 108.2760012 120.6324997 105.5199988 108.3486504 119.9296052 106.0280818
  98.7280012 124.4554997 111.9669988  99.4730012 124.4534997 111.3659988
  98.8060012 123.6324997 112.4479988  98.8404995 124.3438887 111.9498282
 105.7290012 126.6194997 105.2229988 105.4330012 127.4454997 105.6039988
 105.0260012 125.9994997 105.4189988 105.5934914 126.6488199 105.3016443
  95.7360012 122.9164997 117.2819988  95.9590012 122.4984997 118.1139988
  95.1340012 122.3034997 116.8589988  95.6851759 122.7764668 117.3387022
 102.7520012 122.4334997 119.4949988 102.4560012 122.2674997 118.5999988
 103.6840012 122.2134997 119.4839988 102.8374166 122.3810640 119.3710536
 107.3730012 127.8064997 117.3849988 106.4720012 127.9894997 117.1169988
 107.4070012 128.0654997 118.3049988 107.2543139 127.8665849 117.4728099
 113.1040012 120.0514997 105.7519988 112.5500012 119.6554997 105.0799988
 113.2040012 120.9614997 105.4739988 113.0417059 120.1203586 105.6224401
 113.0670012 125.8514997 118.5889988 112.2160012 126.0894997 118.2219988
 113.6580012 125.8344997 117.8359988 113.0302487 125.8818258 118.4368893
 111.3990012 128.8374997 106.2169988 111.0260012 128.0114997 106.5259988
 111.6770012 128.6544997 105.3189988 111.3855222 128.6997430 106.1379473
 108.5600012 123.6454997 113.2379988 107.6310012 123.4134997 113.2109988
 109.0110012 122.8684997 112.9079988 108.4939216 123.5087238 113.1896917
 101.1030012 127.9734997 109.3709988 101.6300012 128.7464997 109.1709988
 100.2230012 128.1984997 109.0689988 101.0562031 128.1097545 109.3027912
 102.5300012 125.6364997 108.9469988 102.2890012 126.5614997 108.9889988
 101.7890012 125.1774997 109.3439988 102.3969225 125.7010933 109.0063742
 103.0450012 129.7854997 115.2629988 103.4070012 130.6404997 115.0289988
 103.5760012 129.4934997 116.0029988 103.1664473 129.8631060 115.3310855
 101.2130012 130.6584997 108.4929988 100.2630012 130.7634997 108.5439988
 101.5650012 131.4784997 108.8369988 101.1304195 130.7838800 108.5465502
 106.5890012 125.8844997 114.9629988 106.1630012 125.6574997 115.7899988
 107.1690012 125.1464997 114.7809988 106.6091868 125.7535299 115.0515830
 108.7920012 126.8134997 104.0369988 109.1450012 126.4334997 104.8409988
 107.8430012 126.7204997 104.1239988 108.7120918 126.7488956 104.1588532
 109.2470012 130.4364997 117.4329988 108.6460012 129.8814997 116.9369988
 109.5290012 131.1034997 116.8059988 109.2028804 130.4506625 117.2804849
 113.2950012 131.2934997 104.2379988 114.0390012 131.8794997 104.0979988
 112.6010012 131.8614997 104.5709988 113.3029899 131.4505798 104.2638778
  97.3700012 117.6694997 116.8399988  96.4770012 118.0084997 116.7719988
  97.2710012 116.8144997 117.2579988  97.2344164 117.6002588 116.8872235
 109.6580012 125.4864997 106.2639988 109.3800012 124.7584997 106.8199988
 110.5850012 125.6054997 106.4689988 109.7453124 125.4028802 106.3678845
  97.0210012 129.4744997 115.2749988  97.2380012 128.5424997 115.2439988
  97.2670012 129.7484997 116.1579988  97.0839549 129.3840636 115.3901763
 102.8830012 127.9254997 102.4839988 103.1220012 127.1774997 101.9369988
 102.6140012 127.5374997 103.3169988 102.8793675 127.7706638 102.5216865
 101.8200012 127.4954997 104.9399988 101.9660012 126.9754997 105.7299988
 101.8170012 128.4024997 105.2469988 101.8395792 127.5468842 105.0896117
 106.1040012 117.4104997 115.7299988 106.8030012 117.4844997 116.3799988
 105.7230012 116.5464997 115.8839988 106.1481767 117.3037624 115.8398322
 106.8890012 117.0624997 106.8269988 107.1090012 117.5344997 106.0239988
 107.4470012 117.4574997 107.4969988 106.9944968 117.1804285 106.8077331
 104.5570012 129.1934997 105.6899988 103.7410012 129.6904997 105.7419988
 105.0870012 129.6684997 105.0499988 104.5169161 129.3257722 105.6105956
 104.0890012 118.7904997 107.6619988 104.9010012 119.2954997 107.7079988
 103.8440012 118.6454997 108.5759988 104.1670520 118.8400375 107.7918517
 104.6240012 119.7764997 116.8459988 104.7430012 120.3504997 117.6039988
 105.2800012 119.0884997 116.9609988 104.7289025 119.7619858 116.9651321
 104.9720012 115.8714997 108.5999988 104.6260012 116.4894997 109.2439988
 105.6310012 116.3724997 108.1179988 105.0136968 116.0236278 108.6229383
 101.8960012 130.2374997 105.6709988 102.0560012 131.0364997 105.1709988
 101.6980012 130.5434997 106.5559988 101.8911637 130.3884020 105.7221144
 100.6300012 116.9344997 105.2869988 100.5470012 117.8234997 105.6339988
 101.5200012 116.6694997 105.5189988 100.7389469 117.0201430 105.3657626
 110.8290012 117.6834997 117.6809988 109.9120012 117.9464997 117.5939988
 111.1640012 117.6804997 116.7849988 110.7488613 117.7190761 117.5478837
 109.4310012 121.4344997 111.7769988 108.6330012 121.0194997 111.4489988
 109.8760012 120.7434997 112.2679988 109.3819885 121.2843543 111.7984889
  98.8890012 127.3624997 104.3479988  99.4810012 128.0614997 104.6239988
  99.3480012 126.9294997 103.6279988  99.0321142 127.3997049 104.2884830
 110.5170012 130.6904997 113.3999988 110.3620012 131.3684997 112.7419988
 111.4500012 130.7624997 113.6029988 110.6218657 130.7929546 113.3374360
  98.0130012 114.8084997 112.1369988  97.7840012 114.8674997 111.2089988
  97.5700012 114.0164997 112.4429988  97.9218530 114.7095753 112.0514786
  96.9430012 128.7484997 108.2969988  96.1110012 129.2214997 108.3239988
  97.4890012 129.2584997 107.6989988  96.9030352 128.8821332 108.2198463
  96.2310012 131.3614997 119.6269988  96.7720012 131.1444997 120.3869988
  95.7500012 130.5554997 119.4369988  96.2399951 131.2229270 119.7052576
 100.8290012 130.2804997 121.2469988 101.5960012 129.8214997 121.5879988
 100.8070012 130.0544997 120.3179988 100.9311275 130.1870186 121.1680101
 104.9210012 129.7884997 102.6229988 104.2770012 129.1574997 102.9439988
 105.6830012 129.2574997 102.3909988 104.9358077 129.6302920 102.6356011
 107.4060012 128.6604997 119.9769988 107.0550012 127.8044997 120.2199988
 108.1320012 128.8034997 120.5839988 107.4560769 128.5625636 120.0923619
  96.1380012 125.1714997 120.5809988  96.2820012 124.2694997 120.2949988
  95.3660012 125.4574997 120.0939988  96.0532753 125.0866816 120.4759505
 102.7940012 125.1414997 120.0139988 102.4650012 125.4124997 119.1569988
 102.9460012 124.2004997 119.9269988 102.7694809 125.0513862 119.8848244
 105.8320012 126.5624997 102.4499988 105.5630012 126.7424997 103.3509988
 105.6260012 125.6364997 102.3179988 105.7673427 126.4620261 102.5555073
 108.5280012 125.0574997 117.3969988 109.2740012 125.6454997 117.2779988
 107.7710012 125.6394997 117.4609988 108.5277820 125.2167143 117.3893590
  96.9710012 122.3714997 120.0009988  97.3790012 121.5144997 119.8799988
  96.7110012 122.3864997 120.9219988  96.9917568 122.2560807 120.1089588
 101.6290012 123.4874997 105.0199988 101.1690012 123.0034997 105.7059988
 101.8840012 122.8194997 104.3839988 101.6004902 123.3308731 105.0279334
 100.9180012 121.3804997 117.3759988 100.3000012 122.0554997 117.6559988
 101.2620012 121.7014997 116.5419988 100.8799132 121.5162411 117.3016262
 102.7000012 121.7304997 103.2819988 102.5200012 121.5764997 102.3549988
 103.6500012 121.8384997 103.3269988 102.8037776 121.7240175 103.1611843
 105.9380012 123.8524997 120.6529988 106.8910012 123.9354997 120.6259988
 105.7770012 123.1404997 121.2729988 106.0466426 123.7676746 120.7330579
 112.0900012 124.0854997 102.7279988 111.8160012 123.6604997 101.9149988
 112.1290012 125.0164997 102.5109988 112.0577699 124.1532484 102.5873610
 101.2570012 118.7354997 118.4579988 101.4070012 118.0064997 117.8559988
 101.2600012 119.5124997 117.8989988 101.2779302 118.7407851 118.3000692
 101.6700012 117.1054997 115.9509988 102.2060012 117.5564997 115.2989988
 100.8180012 116.9974997 115.5279988 101.6282178 117.1526390 115.8045756
 103.2520012 122.5444997 116.1899988 104.0020012 122.3884997 115.6169988
 102.9130012 123.3964997 115.9149988 103.3088921 122.6382968 116.0743561
 107.6670012 120.3594997 121.2189988 107.8600012 119.4284997 121.1069988
 108.5250012 120.7844997 121.2079988 107.8092934 120.2896531 121.2022031
 108.9840012 123.1484997 119.2959988 108.7030012 123.8574997 118.7179988
 109.9270012 123.0754997 119.1449988 109.0729291 123.2356711 119.1964967
  99.7360012 119.9334997 120.3699988  98.9690012 119.4014997 120.1589988
 100.4150012 119.6234997 119.7699988  99.7227877 119.8188300 120.2600716
 102.4760012 114.5614997 116.3819988 102.3770012 115.5084997 116.2769988
 101.7330012 114.1894997 115.9059988 102.3621184 114.6405863 116.3033621
 103.7400012 118.8834997 119.9459988 103.5040012 118.6634997 120.8469988
 102.9560012 118.6764997 119.4359988 103.6018504 118.8254586 120.0003431
 106.4550012 118.0104997 119.0209988 105.5080012 118.0424997 119.1539988
 106.7680012 117.3854997 119.6749988 106.3676707 117.9303998 119.1276060
 108.0890012 116.6444997 121.0269988 107.9930012 115.6924997 121.0209988
 107.7680012 116.9134997 121.8869988 108.0324070 116.5504035 121.1425441
  97.9160012 117.8544997 120.0739988  98.1280012 117.1474997 119.4639988
  97.8050012 117.4164997 120.9179988  97.9299721 117.6987084 120.1046843
 102.6970012 113.8554997 119.0529988 103.4090012 113.2154997 119.0389988
 102.5960012 114.1224997 118.1399988 102.7808066 113.8040079 118.9275677
 103.0510012 115.5384997 121.1069988 102.9190012 115.0624997 120.2869988
 102.4520012 116.2824997 121.0519988 102.9519071 115.5739618 120.9872886
 102.5970012 132.4214997 104.2829988 103.5300012 132.5794997 104.4269988
 102.3330012 133.0964997 103.6589988 102.6889888 132.5344510 104.2182842
  96.1660012 127.0574997 103.7659988  97.0800012 127.1364997 104.0399988
  96.1730012 126.3704997 103.0999988  96.2921131 126.9753961 103.7134393
  94.8150012 132.4504997 108.8439988  94.1680012 131.9884997 108.3109988
  95.1690012 131.7784997 109.4259988  94.7743849 132.2964723 108.8497959
  95.6850012 130.5314997 110.6479988  95.3500012 129.6514997 110.8199988
  95.9070012 130.8764997 111.5129988  95.6691783 130.4577500 110.7884208
 113.2330012 131.3404997 113.6289988 113.2120012 131.5254997 114.5679988
 113.9240012 131.9094997 113.2879988 113.3234618 131.4426606 113.7113864
 112.7970012 130.9084997 116.5509988 112.3090012 130.1724997 116.1789988
 113.3460012 130.5144997 117.2289988 112.8044820 130.7545889 116.5917813
 111.2470012 126.6974997 121.1889988 110.3810012 126.5924997 121.5829988
 111.6240012 127.4564997 121.6349988 111.1793308 126.7856900 121.3032393
 112.5480012 124.9544997 106.7029988 113.3980012 125.3754997 106.8299988
 112.5540012 124.2144997 107.3099988 112.6651372 124.9120803 106.8024344
 112.9430012 123.0074997 108.5259988 112.2160012 122.5284997 108.9239988
 113.5240012 123.2134997 109.2589988 112.9220473 122.9698103 108.6794528
 112.7020012 125.7924997 113.4739988 113.5350012 125.4144997 113.1939988
 112.8140012 126.7354997 113.3549988 112.8312647 125.8682218 113.4195487
 111.1880012 128.6704997 115.7809988 110.5410012 128.9954997 116.4069988
 110.6710012 128.2304997 115.1069988 111.0294029 128.6555004 115.7755827
 113.2110012 122.9084997 104.9179988 112.6890012 123.2654997 104.1989988
 113.1780012 123.5834997 105.5959988 113.1351634 123.0485413 104.9113145
 110.7290012 121.5284997 109.0889988 110.5790012 120.5834997 109.0689988
 110.3760012 121.8094997 109.9329988 110.6607448 121.4371481 109.2003705
  95.7650012 123.6064997 113.0999988  95.9490012 123.5244997 112.1639988
  96.6140012 123.4824997 113.5229988  95.9050151 123.5785073 113.0291451
 111.5860012 123.4984997 118.7279988 112.1690012 122.7644997 118.9199988
 112.1500012 124.2704997 118.7749988 111.7419769 123.5024227 118.7606159
 113.0820012 121.4014997 119.4129988 112.2190012 121.0224997 119.2469988
 113.6870012 120.6624997 119.3379988 113.0456119 121.2498268 119.3801528
 110.4400012 119.1114997 107.5519988 110.7200012 118.2044997 107.6759988
 111.1990012 119.5454997 107.1629988 110.5809277 119.0460942 107.5163682
 111.0520012 119.6924997 112.9879988 111.9850012 119.9044997 112.9529988
 110.8170012 119.7944997 113.9099988 111.1479244 119.7353100 113.1078892
 111.0810012 120.4294997 115.7639988 110.2380012 120.6974997 116.1299988
 111.5230012 121.2514997 115.5529988 111.0254158 120.5773291 115.7855491
  95.3620012 118.8774997 119.2409988  96.2820012 118.7554997 119.4769988
  94.9130012 118.1274997 119.6299988  95.4271580 118.7593727 119.3259006
 113.3640012 114.4094997 121.1169988 113.7140012 113.7554997 120.5119988
 113.5110012 115.2464997 120.6769988 113.4317887 114.4331548 120.9746858
 111.0530012 116.3744997 107.5999988 111.2360012 115.9254997 108.4259988
 110.4540012 115.7894997 107.1369988 110.9970202 116.2339975 107.6503275
  96.5830012 117.1894997 112.1319988  97.0290012 116.3974997 112.4339988
  97.0500012 117.9054997 112.5619988  96.7070831 117.1780685 112.2314006
  94.8870012 120.1884997 113.2009988  95.3790012 119.9674997 112.4099988
  95.2500012 121.0294997 113.4819988  95.0033126 120.2718357 113.1307531
 112.8840012 116.5184997 119.4659988 111.9660012 116.7894997 119.4309988
 113.0070012 115.9834997 118.6819988 112.7749729 116.4832508 119.3551923
  95.2010012 116.4464997 107.2549988  94.2760012 116.6554997 107.1259988
  95.6550012 116.9304997 106.5649988  95.1357292 116.5405343 107.1440720
 109.9720012 131.4304997 109.2009988 110.6240012 131.0834997 108.5929988
 110.4820012 131.9194997 109.8469988 110.1302637 131.4490597 109.2050236
  95.1650012 115.1844997 115.5989988  94.5000012 114.9384997 116.2429988
  94.7220012 115.8064997 115.0219988  95.0141318 115.2349410 115.6090898
  97.3570012 128.3594997 119.7439988  96.5360012 128.5344997 119.2829988
  97.1040012 128.2864997 120.6639988  97.2105585 128.3735544 119.8053561
 100.3110012 129.3344997 116.0019988  99.8860012 130.1434997 115.7199988
 101.2150012 129.4194997 115.6999988 100.3749975 129.4569300 115.9224816
 104.6220012 130.7334997 118.9619988 104.8070012 130.3994997 119.8399988
 105.4680012 131.0424997 118.6399988 104.7617539 130.7296047 119.0385605
 106.9670012 132.0194997 118.2059988 107.6440012 131.3864997 117.9659988
 107.2890012 132.4204997 119.0129988 107.1031637 131.9871154 118.2822793
 111.8840012 114.6084997 117.2849988 111.0720012 114.9334997 116.8979988
 112.1170012 113.8484997 116.7519988 111.8042203 114.5502758 117.1598880
  97.7130012 132.5904997 116.0499988  96.9920012 133.0304997 115.5989988
  97.3470012 132.3394997 116.8979988  97.5649651 132.6167242 116.1029640
 100.1800012 132.1904997 115.0799988  99.3150012 132.2624997 115.4839988
 100.1250012 132.7374997 114.2959988 100.0542085 132.2742685 115.0293362
 104.8900012 132.0784997 114.2549988 104.4340012 132.6074997 113.6009988
 105.0530012 132.6814997 114.9799988 104.8496068 132.2324607 114.2634838
 107.2180012 130.9564997 115.1999988 106.3130012 131.1214997 114.9339988
 107.6470012 131.8094997 115.1349988 107.1521324 131.0944339 115.1547976
 109.8220012 132.5264997 115.4949988 109.6400012 133.4424997 115.2849988
 109.9990012 132.1164997 114.6489988 109.8210210 132.5964822 115.3517885
  97.1270012 131.2134997 112.9599988  97.1090012 130.7884997 113.8169988
  97.9320012 130.8954997 112.5509988  97.2333529 131.1123013 113.0220946
  99.2690012 129.9234997 111.6149988  99.0500012 129.0074997 111.7849988
 100.0930012 130.0634997 112.0809988  99.3504420 129.8170520 111.7012774
 101.8060012 130.3934997 112.4639988 102.0190012 129.5054997 112.1769988
 101.8700012 130.3594997 113.4179988 101.8438232 130.2673102 112.5537397
 105.3140012 116.0574997 111.6079988 104.6400012 115.4284997 111.8639988
 105.8780012 115.5734997 111.0049988 105.2979230 115.9058744 111.5615340
 110.4570012 114.1654997 111.7209988 111.0610012 114.7124997 111.2189988
 109.5870012 114.4844997 111.4799988 110.4221208 114.2835137 111.6196886
 112.1840012 115.3034997 110.0539988 112.7960012 114.7894997 109.5269988
 112.5660012 116.1814997 110.0769988 112.3193371 115.3517866 109.9850041
  97.6410012 114.6914997 109.4299988  96.8640012 114.4574997 108.9229988
  98.1710012 113.8944997 109.4389988  97.6062330 114.5516988 109.3617742
  96.4770012 114.4894997 105.2339988  96.9160012 115.1004997 104.6419988
  95.8440012 115.0274997 105.7079988  96.4514514 114.6459257 105.2170930
 102.2200012 114.6184997 109.2439988 103.0950012 115.0064997 109.2139988
 102.0840012 114.4034997 110.1659988 102.3213695 114.6425184 109.3646440
 107.7770012 114.6484997 110.8929988 107.8530012 114.7434997 109.9429988
 107.5020012 113.7404997 111.0219988 107.7502321 114.5387867 110.7805079
 109.1300012 114.6744997 106.5849988 108.4280012 115.2894997 106.3749988
 108.6860012 113.8364997 106.7159988 108.9736450 114.6455639 106.5739000
  96.3780012 130.4374997 106.1309988  95.6930012 130.3994997 105.4639988
  96.3820012 131.3504997 106.4199988  96.2846998 130.5556733 106.0786771
 103.3640012 116.6984997 106.1329988 103.5420012 116.0524997 106.8159988
 103.3110012 117.5324997 106.5999988 103.3811999 116.7228009 106.2895917
 111.9520012 131.2104997 107.2079988 111.7570012 130.4624997 106.6429988
 111.9130012 131.9684997 106.6249988 111.9200380 131.2106099 107.0518384
  97.5990012 115.2054997 118.9479988  97.2330012 114.4404997 119.3899988
  98.5120012 115.2344997 119.2339988  97.6722736 115.1045640 119.0472502
  99.5720012 114.5564997 120.4839988 100.4700012 114.2824997 120.2989988
  99.1850012 113.8134997 120.9479988  99.6426612 114.4185914 120.5213643
 107.9930012 113.8884997 120.6659988 108.0700012 113.4624997 121.5199988
 108.8870012 113.9024997 120.3229988 108.1243428 113.8320879 120.7365310
 111.1690012 129.9614997 119.3579988 110.3870012 129.7754997 118.8379988
 111.0970012 130.8904997 119.5759988 111.0522274 130.0616643 119.3163018
 125.5750012 123.8474997 109.3889988 125.6640012 124.7914997 109.2569988
 124.9370012 123.5724997 108.7309988 125.5009081 123.9394830 109.2819614
 124.5080012 123.1024997 112.8079988 124.4700012 122.4564997 113.5129988
 124.1860012 122.6364997 112.0369988 124.4592333 122.9509408 112.8002978
 116.8770012 122.7174997 114.4009988 116.9180012 122.0914997 115.1239988
 117.5800012 123.3414997 114.5829988 116.9776363 122.7161196 114.5246044
 128.2140012 126.0414997 111.1089988 127.7740012 125.3214997 111.5599988
 128.2010012 126.7624997 111.7389988 128.1520226 126.0403731 111.2558494
 117.8000012 127.1674997 112.9359988 117.4310012 126.3654997 112.5659988
 118.7410012 126.9984997 112.9819988 117.8767289 127.0350153 112.8916316
 114.4100012 120.8274997 108.3289988 113.9630012 121.6734997 108.3099988
 113.8490012 120.2474997 107.8129988 114.2729900 120.8649916 108.2566801
 115.1210012 122.9894997 110.4539988 115.3340012 122.2194997 110.9819988
 115.8590012 123.0784997 109.8509988 115.2499044 122.8961968 110.4447123
 125.3260012 131.1464997 111.3209988 125.9460012 130.4694997 111.0479988
 125.1180012 130.9284997 112.2299988 125.3826726 131.0244800 111.4064812
 122.8980012 125.5354997 113.2139988 123.2020012 124.8494997 112.6189988
 123.6190012 125.6534997 113.8319988 123.0370671 125.4576305 113.2161816
 131.5610012 117.1364997 114.0749988 131.6100012 117.7464997 114.8099988
 131.9860012 117.5974997 113.3519988 131.6251746 117.2823796 114.0779175
 126.0390012 119.9294997 113.5409988 126.1810012 118.9834997 113.5619988
 125.9320012 120.1364997 112.6129988 126.0439919 119.8278246 113.4183408
 119.1930012 118.0304997 110.8139988 119.2370012 118.8904997 110.3949988
 118.7360012 117.4784997 110.1799988 119.1372240 118.0734422 110.6709864
 126.9160012 118.1614997 109.2149988 127.5620012 117.8324997 109.8389988
 127.4260012 118.6794997 108.5919988 127.0734299 118.1864450 109.2162731
 115.8140012 120.4274997 111.5759988 116.4670012 119.8774997 112.0079988
 115.8380012 120.1534997 110.6589988 115.9066683 120.3151466 111.5112123
 120.9700012 121.9774997 110.7909988 121.5860012 121.4514997 111.3009988
 120.3840012 121.3374997 110.3879988 120.9750810 121.8189208 110.8063173
 131.9520012 118.6144997 116.3099988 131.2640012 119.2724997 116.2149988
 131.9680012 118.4174997 117.2469988 131.8599540 118.6779819 116.4235990
 118.0040012 116.9484997 114.8879988 117.7850012 117.4784997 114.1219988
 117.3360012 117.1754997 115.5349988 117.8837600 117.0516906 114.8706379
 125.3730012 126.4484997 108.4319988 125.0770012 126.1264997 107.5809988
 125.0480012 127.3484997 108.4729988 125.2886371 126.5260215 108.3211801
 120.5730012 124.6244997 115.1749988 119.8330012 125.2224997 115.2789988
 121.2870012 125.1784997 114.8599988 120.5682237 124.7812831 115.1466465
 128.6800012 117.4524997 111.1949988 128.4640012 116.6864997 111.7279988
 129.3350012 117.9244997 111.7079988 128.7390632 117.4115889 111.3372861
 117.5970012 118.8404997 112.8399988 118.2110012 119.4734997 113.2129988
 118.1090012 118.3684997 112.1839988 117.7501981 118.8632267 112.8022908
 118.9800012 126.5884997 115.9619988 118.9750012 127.4684997 115.5839988
 118.1270012 126.5054997 116.3869988 118.8639464 126.6976117 115.9677907
 115.1010012 126.2594997 106.7439988 114.8290012 126.4884997 105.8559988
 115.1470012 127.0974997 107.2049988 115.0699482 126.4041318 106.6846273
 128.7260012 127.8814997 113.4569988 127.7850012 127.9394997 113.6189988
 129.0030012 128.7874997 113.3199988 128.6344679 128.0119443 113.4606815
 129.0270012 116.1674997 114.8749988 128.2910012 116.7784997 114.8369988
 129.7100012 116.5824997 114.3479988 129.0186541 116.3071374 114.7985832
 122.0300012 114.2544997 112.3399988 121.9130012 113.3054997 112.2859988
 121.1750012 114.5864997 112.6139988 121.8984212 114.1695571 112.3696497
 126.9780012 129.6624997 110.0819988 127.4040012 128.9554997 109.5969988
 127.2950012 130.4634997 109.6659988 127.0791683 129.6741017 109.9593680
 128.1380012 127.5634997 108.5909988 127.8800012 126.8734997 107.9799988
 128.2090012 127.1204997 109.4369988 128.1122856 127.4092124 108.6216885
 129.8240012 126.1294997 117.0679988 129.9640012 125.5384997 116.3289988
 129.9910012 127.0024997 116.7119988 129.8657411 126.1665428 116.9186894
 124.2970012 123.0914997 106.8409988 123.5850012 123.6264997 106.4889988
 124.9880012 123.1474997 106.1809988 124.2930132 123.1722543 106.7036289
 131.6660012 122.4694997 115.1339988 131.0130012 123.1644997 115.2239988
 132.1310012 122.6794997 114.3249988 131.6395274 122.5930643 115.0368462
 127.7020012 123.3014997 107.7929988 126.9700012 123.5294997 108.3659988
 128.1500012 122.5874997 108.2469988 127.6622725 123.2362145 107.9328816
 127.6000012 121.4754997 116.8599988 127.6800012 122.2384997 117.4319988
 126.9980012 121.7544997 116.1699988 127.5295756 121.6177134 116.8450589
 119.3480012 123.9314997 109.6749988 119.0170012 123.5614997 108.8569988
 119.9360012 123.2614997 110.0219988 119.3821873 123.7901156 109.6098102
 120.7140012 127.3594997 112.3559988 120.6200012 126.7814997 111.5999988
 121.4440012 126.9884997 112.8529988 120.7997387 127.2301663 112.3195342
 119.7140012 122.7004997 113.3089988 120.2800012 122.8214997 112.5459988
 120.0330012 123.3374997 113.9469988 119.8345474 122.8032219 113.2909862
 126.0230012 128.2034997 114.0429988 125.7830012 128.8654997 114.6909988
 125.8250012 127.3694997 114.4679988 125.9633808 128.1813134 114.1891524
 120.5940012 127.0994997 118.0259988 120.2830012 127.8814997 118.4809988
 119.9440012 126.9464997 117.3399988 120.4635558 127.1859105 117.9955871
 126.5730012 122.4634997 105.4779988 127.1530012 122.6134997 106.2249988
 126.9870012 122.9344997 104.7539988 126.7082997 122.5476578 105.4824058
 117.5140012 123.2974997 117.2539988 117.5850012 123.9484997 117.9529988
 116.6240012 123.4004997 116.9189988 117.4033005 123.4005427 117.3043495
 124.3000012 129.2004997 108.9129988 124.7740012 129.4954997 109.6899988
 123.7370012 129.9384997 108.6799988 124.2888184 129.3407247 108.9879628
 118.8340012 129.1714997 118.7889988 118.8410012 129.0354997 117.8419988
 117.9180012 129.0534997 119.0409988 118.7111714 129.1369430 118.6934666
 130.2720012 114.2134997 105.2909988 129.3720012 114.3524997 105.5859988
 130.5240012 115.0444997 104.8889988 130.1828702 114.3449074 105.2770205
 118.3380012 123.0014997 107.2639988 118.0460012 123.7694997 106.7739988
 117.6640012 122.3414997 107.1019988 118.2068111 123.0175587 107.1748978
 114.4310012 125.3644997 116.0789988 113.9300012 125.3364997 115.2639988
 114.4360012 124.4584997 116.3889988 114.3630944 125.2382396 116.0093226
 114.1810012 128.1444997 112.9629988 115.1270012 128.0004997 112.9439988
 114.0690012 128.9284997 113.4999988 114.2952727 128.2308046 113.0330072
 132.3790012 128.8104997 118.6459988 132.3300012 127.8554997 118.6089988
 131.5520012 129.0784997 119.0469988 132.2604940 128.7158998 118.6951375
 123.3580012 128.3844997 117.5219988 123.4450012 129.2104997 117.9969988
 122.4940012 128.0544997 117.7709988 123.2531964 128.4529878 117.6206549
 123.7720012 132.1564997 107.3279988 123.6970012 132.0354997 106.3809988
 123.8050012 133.1064997 107.4459988 123.7662068 132.2682646 107.2144967
 117.4250012 130.9454997 109.1089988 117.5780012 130.5974997 109.9869988
 116.5750012 130.5894997 108.8539988 117.3309166 130.8496216 109.1948079
 126.8740012 131.3104997 104.3299988 127.2490012 130.5664997 103.8589988
 126.8780012 131.0404997 105.2489988 126.9259125 131.1720986 104.3896483
 126.5430012 131.2364997 107.0789988 125.6070012 131.3364997 107.2579988
 126.8230012 130.5274997 107.6579988 126.4529553 131.1543406 107.1817087
 129.5310012 120.3034997 119.1259988 129.1240012 120.7844997 118.4049988
 129.5720012 119.3984997 118.8179988 129.4808437 120.2469374 118.9856683
 116.6800012 126.6874997 117.1229988 116.8960012 126.3264997 117.9819988
 115.8250012 126.3134997 116.9129988 116.5939292 126.5874111 117.2123386
 119.2990012 115.1574997 113.1179988 118.4370012 115.0704997 112.7099988
 119.2760012 116.0134997 113.5459988 119.1780409 115.2612883 113.1200589
 123.9620012 114.8794997 116.4929988 124.3820012 114.4644997 117.2459988
 123.0290012 114.7014997 116.6099988 123.8933644 114.7985900 116.6119539
 127.2880012 118.6354997 117.3459988 126.7740012 118.5094997 118.1439988
 127.1330012 119.5474997 117.1019988 127.1966852 118.7416132 117.4222158
 119.3900012 120.1234997 114.2129988 118.7480012 120.0824997 114.9219988
 119.4270012 121.0494997 113.9749988 119.3070664 120.2431430 114.2779219
 119.3870012 120.3444997 109.1249988 118.4940012 120.0034997 109.0659988
 119.8370012 119.9674997 108.3689988 119.3258130 120.2469631 109.0147702
 124.9220012 120.7604997 107.9419988 124.5130012 121.5754997 107.6509988
 125.6430012 120.6204997 107.3279988 124.9634537 120.8532018 107.8191342
 124.0240012 120.9354997 119.4299988 123.4620012 120.2314997 119.7509988
 124.8510012 120.8154997 119.8979988 124.0587095 120.8227883 119.5372330
 125.9270012 120.2064997 110.7559988 125.7320012 120.8114997 110.0409988
 126.1080012 119.3724997 110.3219988 125.9247614 120.1766300 110.5994405
 117.1400012 120.4434997 116.0799988 117.1020012 120.8434997 116.9489988
 116.6490012 119.6264997 116.1709988 117.0684684 120.3878069 116.2111059
 113.7480012 117.5594997 109.9309988 114.3790012 117.5304997 110.6499988
 114.1970012 117.1344997 109.1999988 113.8950918 117.4980836 109.9306441
 115.0220012 118.3054997 105.3549988 115.4960012 118.8964997 104.7699988
 114.3050012 118.8364997 105.7019988 114.9899341 118.4580867 105.3218836
 125.1910012 121.8444997 115.4269988 125.5140012 121.2134997 114.7839988
 124.7510012 121.3094997 116.0879988 125.1757484 121.6858387 115.4283198
 121.9680012 117.7714997 110.2109988 121.0570012 117.8284997 110.4999988
 122.4740012 117.7114997 111.0219988 121.9116899 117.7711941 110.3601184
 116.7970012 119.4004997 109.0379988 115.9070012 119.5004997 108.6979988
 117.0930012 118.5584997 108.6919988 116.7152823 119.3003545 108.9447213
 120.4500012 119.4004997 106.6949988 121.3810012 119.5294997 106.8729988
 120.2350012 120.0704997 106.0449988 120.5484247 119.5086565 106.6315747
 126.3730012 117.0064997 113.4759988 125.6970012 117.1374997 114.1399988
 125.8880012 116.8514997 112.6649988 126.2147146 117.0035157 113.4574469
 119.1240012 120.5954997 104.2609988 118.5810012 120.2154997 103.5699988
 119.9570012 120.7894997 103.8329988 119.1623631 120.5697125 104.1084501
 129.6610012 132.6784997 119.7519988 129.8610012 133.1024997 118.9179988
 130.3160012 133.0214997 120.3589988 129.7770072 132.7829857 119.7198592
 117.2590012 125.1524997 119.3599988 117.9910012 125.4064997 119.9219988
 116.4790012 125.3564997 119.8759988 117.2537073 125.2148160 119.5066151
 123.2880012 120.5594997 112.0979988 123.8530012 120.0124997 111.5509988
 123.1410012 120.0374997 112.8869988 123.3453380 120.4142259 112.1298695
 118.2900012 116.6954997 108.5169988 117.9730012 115.7934997 108.4809988
 119.0720012 116.6974997 107.9639988 118.3522408 116.5722474 108.4373569
 121.9150012 118.9474997 114.5119988 121.0790012 119.4014997 114.6229988
 122.4390012 119.2234997 115.2639988 121.8715416 119.0468660 114.6288119
 122.4590012 125.1604997 106.1969988 121.7140012 124.6534997 105.8749988
 122.3250012 125.2094997 107.1439988 122.3388776 125.0976940 106.2808647
 129.6090012 124.2934997 114.9839988 130.2510012 124.7504997 114.4399988
 128.7790012 124.4064997 114.5209988 129.5845963 124.3712704 114.8470177
 123.9780012 125.3444997 117.4339988 123.6330012 124.9634997 118.2409988
 123.7780012 126.2784997 117.5049988 123.9037527 125.4185135 117.5540689
 127.0750012 119.8414997 106.0569988 127.9670012 119.7044997 106.3759988
 127.1320012 120.6324997 105.5199988 127.2046504 119.9296052 106.0280818
 117.5840012 124.4554997 111.9669988 118.3290012 124.4534997 111.3659988
 117.6620012 123.6324997 112.4479988 117.6964995 124.3438887 111.9498282
 124.5850012 126.6194997 105.2229988 124.2890012 127.4454997 105.6039988
 123.8820012 125.9994997 105.4189988 124.4494914 126.6488199 105.3016443
 114.5920012 122.9164997 117.2819988 114.8150012 122.4984997 118.1139988
 113.9900012 122.3034997 116.8589988 114.5411759 122.7764668 117.3387022
 121.6080012 122.4334997 119.4949988 121.3120012 122.2674997 118.5999988
 122.5400012 122.2134997 119.4839988 121.6934166 122.3810640 119.3710536
 126.2290012 127.8064997 117.3849988 125.3280012 127.9894997 117.1169988
 126.2630012 128.0654997 118.3049988 126.1103139 127.8665849 117.4728099
 131.9230012 125.8514997 118.5889988 131.0720012 126.0894997 118.2219988
 132.5140012 125.8344997 117.8359988 131.8862487 125.8818258 118.4368893
 130.2550012 128.8374997 106.2169988 129.8820012 128.0114997 106.5259988
 130.5330012 128.6544997 105.3189988 130.2415222 128.6997430 106.1379473
 127.4160012 123.6454997 113.2379988 126.4870012 123.4134997 113.2109988
 127.8670012 122.8684997 112.9079988 127.3499216 123.5087238 113.1896917
 119.9590012 127.9734997 109.3709988 120.4860012 128.7464997 109.1709988
 119.0790012 128.1984997 109.0689988 119.9122031 128.1097545 109.3027912
 115.7140012 122.8354997 103.9579988 116.3300012 123.4624997 104.3379988
 114.8520012 123.1514997 104.2299988 115.6817698 122.9639430 104.0467183
 121.3860012 125.6364997 108.9469988 121.1450012 126.5614997 108.9889988
 120.6450012 125.1774997 109.3439988 121.2529225 125.7010933 109.0063742
 121.9010012 129.7854997 115.2629988 122.2630012 130.6404997 115.0289988
 122.4320012 129.4934997 116.0029988 122.0224473 129.8631060 115.3310855
 120.0690012 130.6584997 108.4929988 119.1190012 130.7634997 108.5439988
 120.4210012 131.4784997 108.8369988 119.9864195 130.7838800 108.5465502
 125.4450012 125.8844997 114.9629988 125.0190012 125.6574997 115.7899988
 126.0250012 125.1464997 114.7809988 125.4651868 125.7535299 115.0515830
 128.1030012 130.4364997 117.4329988 127.5020012 129.8814997 116.9369988
 128.3850012 131.1034997 116.8059988 128.0588804 130.4506625 117.2804849
 116.2260012 117.6694997 116.8399988 115.3330012 118.0084997 116.7719988
 116.1270012 116.8144997 117.2579988 116.0904164 117.6002588 116.8872235
 128.5140012 125.4864997 106.2639988 128.2360012 124.7584997 106.8199988
 129.4410012 125.6054997 106.4689988 128.6013124 125.4028802 106.3678845
 115.8770012 129.4744997 115.2749988 116.0940012 128.5424997 115.2439988
 116.1230012 129.7484997 116.1579988 115.9399549 129.3840636 115.3901763
 121.7390012 127.9254997 102.4839988 121.9780012 127.1774997 101.9369988
 121.4700012 127.5374997 103.3169988 121.7353675 127.7706638 102.5216865
 120.6760012 127.4954997 104.9399988 120.8220012 126.9754997 105.7299988
 120.6730012 128.4024997 105.2469988 120.6955792 127.5468842 105.0896117
 124.9600012 117.4104997 115.7299988 125.6590012 117.4844997 116.3799988
 124.5790012 116.5464997 115.8839988 125.0041767 117.3037624 115.8398322
 125.7450012 117.0624997 106.8269988 125.9650012 117.5344997 106.0239988
 126.3030012 117.4574997 107.4969988 125.8504968 117.1804285 106.8077331
 123.4130012 129.1934997 105.6899988 122.5970012 129.6904997 105.7419988
 123.9430012 129.6684997 105.0499988 123.3729161 129.3257722 105.6105956
 122.9450012 118.7904997 107.6619988 123.7570012 119.2954997 107.7079988
 122.7000012 118.6454997 108.5759988 123.0230520 118.8400375 107.7918517
 123.4800012 119.7764997 116.8459988 123.5990012 120.3504997 117.6039988
 124.1360012 119.0884997 116.9609988 123.5849025 119.7619858 116.9651321
 123.8280012 115.8714997 108.5999988 123.4820012 116.4894997 109.2439988
 124.4870012 116.3724997 108.1179988 123.8696968 116.0236278 108.6229383
 120.7520012 130.2374997 105.6709988 120.9120012 131.0364997 105.1709988
 120.5540012 130.5434997 106.5559988 120.7471637 130.3884020 105.7221144
 129.6850012 117.6834997 117.6809988 128.7680012 117.9464997 117.5939988
 130.0200012 117.6804997 116.7849988 129.6048613 117.7190761 117.5478837
 128.2870012 121.4344997 111.7769988 127.4890012 121.0194997 111.4489988
 128.7320012 120.7434997 112.2679988 128.2379885 121.2843543 111.7984889
 129.3730012 130.6904997 113.3999988 129.2180012 131.3684997 112.7419988
 130.3060012 130.7624997 113.6029988 129.4778657 130.7929546 113.3374360
 116.8690012 114.8084997 112.1369988 116.6400012 114.8674997 111.2089988
 116.4260012 114.0164997 112.4429988 116.7778530 114.7095753 112.0514786
 115.7990012 128.7484997 108.2969988 114.9670012 129.2214997 108.3239988
 116.3450012 129.2584997 107.6989988 115.7590352 128.8821332 108.2198463
 115.0870012 131.3614997 119.6269988 115.6280012 131.1444997 120.3869988
 114.6060012 130.5554997 119.4369988 115.0959951 131.2229270 119.7052576
 119.6850012 130.2804997 121.2469988 120.4520012 129.8214997 121.5879988
 119.6630012 130.0544997 120.3179988 119.7871275 130.1870186 121.1680101
 126.2620012 128.6604997 119.9769988 125.9110012 127.8044997 120.2199988
 126.9880012 128.8034997 120.5839988 126.3120769 128.5625636 120.0923619
 114.9940012 125.1714997 120.5809988 115.1380012 124.2694997 120.2949988
 114.2220012 125.4574997 120.0939988 114.9092753 125.0866816 120.4759505
 121.6500012 125.1414997 120.0139988 121.3210012 125.4124997 119.1569988
 121.8020012 124.2004997 119.9269988 121.6254809 125.0513862 119.8848244
 127.3840012 125.0574997 117.3969988 128.1300012 125.6454997 117.2779988
 126.6270012 125.6394997 117.4609988 127.3837820 125.2167143 117.3893590
 115.8270012 122.3714997 120.0009988 116.2350012 121.5144997 119.8799988
 115.5670012 122.3864997 120.9219988 115.8477568 122.2560807 120.1089588
 120.4850012 123.4874997 105.0199988 120.0250012 123.0034997 105.7059988
 120.7400012 122.8194997 104.3839988 120.4564902 123.3308731 105.0279334
 119.7740012 121.3804997 117.3759988 119.1560012 122.0554997 117.6559988
 120.1180012 121.7014997 116.5419988 119.7359132 121.5162411 117.3016262
 124.7940012 123.8524997 120.6529988 125.7470012 123.9354997 120.6259988
 124.6330012 123.1404997 121.2729988 124.9026426 123.7676746 120.7330579
 120.1130012 118.7354997 118.4579988 120.2630012 118.0064997 117.8559988
 120.1160012 119.5124997 117.8989988 120.1339302 118.7407851 118.3000692
 120.5260012 117.1054997 115.9509988 121.0620012 117.5564997 115.2989988
 119.6740012 116.9974997 115.5279988 120.4842178 117.1526390 115.8045756
 122.1080012 122.5444997 116.1899988 122.8580012 122.3884997 115.6169988
 121.7690012 123.3964997 115.9149988 122.1648921 122.6382968 116.0743561
 126.5230012 120.3594997 121.2189988 126.7160012 119.4284997 121.1069988
 127.3810012 120.7844997 121.2079988 126.6652934 120.2896531 121.2022031
 127.8400012 123.1484997 119.2959988 127.5590012 123.8574997 118.7179988
 128.7830012 123.0754997 119.1449988 127.9289291 123.2356711 119.1964967
 118.5920012 119.9334997 120.3699988 117.8250012 119.4014997 120.1589988
 119.2710012 119.6234997 119.7699988 118.5787877 119.8188300 120.2600716
 121.3320012 114.5614997 116.3819988 121.2330012 115.5084997 116.2769988
 120.5890012 114.1894997 115.9059988 121.2181184 114.6405863 116.3033621
 122.5960012 118.8834997 119.9459988 122.3600012 118.6634997 120.8469988
 121.8120012 118.6764997 119.4359988 122.4578504 118.8254586 120.0003431
 125.3110012 118.0104997 119.0209988 124.3640012 118.0424997 119.1539988
 125.6240012 117.3854997 119.6749988 125.2236707 117.9303998 119.1276060
 126.9450012 116.6444997 121.0269988 126.8490012 115.6924997 121.0209988
 126.6240012 116.9134997 121.8869988 126.8884070 116.5504035 121.1425441
 116.7720012 117.8544997 120.0739988 116.9840012 117.1474997 119.4639988
 116.6610012 117.4164997 120.9179988 116.7859721 117.6987084 120.1046843
 121.5530012 113.8554997 119.0529988 122.2650012 113.2154997 119.0389988
 121.4520012 114.1224997 118.1399988 121.6368066 113.8040079 118.9275677
 121.9070012 115.5384997 121.1069988 121.7750012 115.0624997 120.2869988
 121.3080012 116.2824997 121.0519988 121.8079071 115.5739618 120.9872886
 121.4530012 132.4214997 104.2829988 122.3860012 132.5794997 104.4269988
 121.1890012 133.0964997 103.6589988 121.5449888 132.5344510 104.2182842
 113.6710012 132.4504997 108.8439988 113.0240012 131.9884997 108.3109988
 114.0250012 131.7784997 109.4259988 113.6303849 132.2964723 108.8497959
 114.5410012 130.5314997 110.6479988 114.2060012 129.6514997 110.8199988
 114.7630012 130.8764997 111.5129988 114.5251783 130.4577500 110.7884208
 132.0890012 131.3404997 113.6289988 132.0680012 131.5254997 114.5679988
 132.7800012 131.9094997 113.2879988 132.1794618 131.4426606 113.7113864
 131.6530012 130.9084997 116.5509988 131.1650012 130.1724997 116.1789988
 132.2020012 130.5144997 117.2289988 131.6604820 130.7545889 116.5917813
 130.1030012 126.6974997 121.1889988 129.2370012 126.5924997 121.5829988
 130.4800012 127.4564997 121.6349988 130.0353308 126.7856900 121.3032393
 131.4040012 124.9544997 106.7029988 132.2540012 125.3754997 106.8299988
 131.4100012 124.2144997 107.3099988 131.5211372 124.9120803 106.8024344
 131.7990012 123.0074997 108.5259988 131.0720012 122.5284997 108.9239988
 132.3800012 123.2134997 109.2589988 131.7780473 122.9698103 108.6794528
 131.5580012 125.7924997 113.4739988 132.3910012 125.4144997 113.1939988
 131.6700012 126.7354997 113.3549988 131.6872647 125.8682218 113.4195487
 130.0440012 128.6704997 115.7809988 129.3970012 128.9954997 116.4069988
 129.5270012 128.2304997 115.1069988 129.8854029 128.6555004 115.7755827
 132.0670012 122.9084997 104.9179988 131.5450012 123.2654997 104.1989988
 132.0340012 123.5834997 105.5959988 131.9911634 123.0485413 104.9113145
 129.5850012 121.5284997 109.0889988 129.4350012 120.5834997 109.0689988
 129.2320012 121.8094997 109.9329988 129.5167448 121.4371481 109.2003705
 114.6210012 123.6064997 113.0999988 114.8050012 123.5244997 112.1639988
 115.4700012 123.4824997 113.5229988 114.7610151 123.5785073 113.0291451
 130.4420012 123.4984997 118.7279988 131.0250012 122.7644997 118.9199988
 131.0060012 124.2704997 118.7749988 130.5979769 123.5024227 118.7606159
 131.9380012 121.4014997 119.4129988 131.0750012 121.0224997 119.2469988
 132.5430012 120.6624997 119.3379988 131.9016119 121.2498268 119.3801528
 129.2960012 119.1114997 107.5519988 129.5760012 118.2044997 107.6759988
 130.0550012 119.5454997 107.1629988 129.4369277 119.0460942 107.5163682
 129.9080012 119.6924997 112.9879988 130.8410012 119.9044997 112.9529988
 129.6730012 119.7944997 113.9099988 130.0039244 119.7353100 113.1078892
 129.9370012 120.4294997 115.7639988 129.0940012 120.6974997 116.1299988
 130.3790012 121.2514997 115.5529988 129.8814158 120.5773291 115.7855491
 114.2180012 118.8774997 119.2409988 115.1380012 118.7554997 119.4769988
 113.7690012 118.1274997 119.6299988 114.2831580 118.7593727 119.3259006
 132.2200012 114.4094997 121.1169988 132.5700012 113.7554997 120.5119988
 132.3670012 115.2464997 120.6769988 132.2877887 114.4331548 120.9746858
 129.9090012 116.3744997 107.5999988 130.0920012 115.9254997 108.4259988
 129.3100012 115.7894997 107.1369988 129.8530202 116.2339975 107.6503275
 115.4390012 117.1894997 112.1319988 115.8850012 116.3974997 112.4339988
 115.9060012 117.9054997 112.5619988 115.5630831 117.1780685 112.2314006
 113.7430012 120.1884997 113.2009988 114.2350012 119.9674997 112.4099988
 114.1060012 121.0294997 113.4819988 113.8593126 120.2718357 113.1307531
 131.7400012 116.5184997 119.4659988 130.8220012 116.7894997 119.4309988
 131.8630012 115.9834997 118.6819988 131.6309729 116.4832508 119.3551923
 114.0570012 116.4464997 107.2549988 113.1320012 116.6554997 107.1259988
 114.5110012 116.9304997 106.5649988 113.9917292 116.5405343 107.1440720
 128.8280012 131.4304997 109.2009988 129.4800012 131.0834997 108.5929988
 129.3380012 131.9194997 109.8469988 128.9862637 131.4490597 109.2050236
 114.0210012 115.1844997 115.5989988 113.3560012 114.9384997 116.2429988
 113.5780012 115.8064997 115.0219988 113.8701318 115.2349410 115.6090898
 116.2130012 128.3594997 119.7439988 115.3920012 128.5344997 119.2829988
 115.9600012 128.2864997 120.6639988 116.0665585 128.3735544 119.8053561
 119.1670012 129.3344997 116.0019988 118.7420012 130.1434997 115.7199988
 120.0710012 129.4194997 115.6999988 119.2309975 129.4569300 115.9224816
 123.4780012 130.7334997 118.9619988 123.6630012 130.3994997 119.8399988
 124.3240012 131.0424997 118.6399988 123.6177539 130.7296047 119.0385605
 125.8230012 132.0194997 118.2059988 126.5000012 131.3864997 117.9659988
 126.1450012 132.4204997 119.0129988 125.9591637 131.9871154 118.2822793
 130.7400012 114.6084997 117.2849988 129.9280012 114.9334997 116.8979988
 130.9730012 113.8484997 116.7519988 130.6602203 114.5502758 117.1598880
 116.5690012 132.5904997 116.0499988 115.8480012 133.0304997 115.5989988
 116.2030012 132.3394997 116.8979988 116.4209651 132.6167242 116.1029640
 119.0360012 132.1904997 115.0799988 118.1710012 132.2624997 115.4839988
 118.9810012 132.7374997 114.2959988 118.9102085 132.2742685 115.0293362
 123.7460012 132.0784997 114.2549988 123.2900012 132.6074997 113.6009988
 123.9090012 132.6814997 114.9799988 123.7056068 132.2324607 114.2634838
 126.0740012 130.9564997 115.1999988 125.1690012 131.1214997 114.9339988
 126.5030012 131.8094997 115.1349988 126.0081324 131.0944339 115.1547976
 128.6780012 132.5264997 115.4949988 128.4960012 133.4424997 115.2849988
 128.8550012 132.1164997 114.6489988 128.6770210 132.5964822 115.3517885
 115.9830012 131.2134997 112.9599988 115.9650012 130.7884997 113.8169988
 116.7880012 130.8954997 112.5509988 116.0893529 131.1123013 113.0220946
 118.1250012 129.9234997 111.6149988 117.9060012 129.0074997 111.7849988
 118.9490012 130.0634997 112.0809988 118.2064420 129.8170520 111.7012774
 120.6620012 130.3934997 112.4639988 120.8750012 129.5054997 112.1769988
 120.7260012 130.3594997 113.4179988 120.6998232 130.2673102 112.5537397
 124.1700012 116.0574997 111.6079988 123.4960012 115.4284997 111.8639988
 124.7340012 115.5734997 111.0049988 124.1539230 115.9058744 111.5615340
 129.3130012 114.1654997 111.7209988 129.9170012 114.7124997 111.2189988
 128.4430012 114.4844997 111.4799988 129.2781208 114.2835137 111.6196886
 131.0400012 115.3034997 110.0539988 131.6520012 114.7894997 109.5269988
 131.4220012 116.1814997 110.0769988 131.1753371 115.3517866 109.9850041
 116.4970012 114.6914997 109.4299988 115.7200012 114.4574997 108.9229988
 117.0270012 113.8944997 109.4389988 116.4622330 114.5516988 109.3617742
 115.3330012 114.4894997 105.2339988 115.7720012 115.1004997 104.6419988
 114.7000012 115.0274997 105.7079988 115.3074514 114.6459257 105.2170930
 121.0760012 114.6184997 109.2439988 121.9510012 115.0064997 109.2139988
 120.9400012 114.4034997 110.1659988 121.1773695 114.6425184 109.3646440
 126.6330012 114.6484997 110.8929988 126.7090012 114.7434997 109.9429988
 126.3580012 113.7404997 111.0219988 126.6062321 114.5387867 110.7805079
 127.9860012 114.6744997 106.5849988 127.2840012 115.2894997 106.3749988
 127.5420012 113.8364997 106.7159988 127.8296450 114.6455639 106.5739000
 115.2340012 130.4374997 106.1309988 114.5490012 130.3994997 105.4639988
 115.2380012 131.3504997 106.4199988 115.1406998 130.5556733 106.0786771
 122.2200012 116.6984997 106.1329988 122.3980012 116.0524997 106.8159988
 122.1670012 117.5324997 106.5999988 122.2371999 116.7228009 106.2895917
 124.0990012 131.6474997 104.5289988 124.9650012 132.0134997 104.3509988
 123.8520012 131.2074997 103.7149988 124.1842392 131.6381756 104.3946289
 130.8080012 131.2104997 107.2079988 130.6130012 130.4624997 106.6429988
 130.7690012 131.9684997 106.6249988 130.7760380 131.2106099 107.0518384
 116.4550012 115.2054997 118.9479988 116.0890012 114.4404997 119.3899988
 117.3680012 115.2344997 119.2339988 116.5282736 115.1045640 119.0472502
 118.4280012 114.5564997 120.4839988 119.3260012 114.2824997 120.2989988
 118.0410012 113.8134997 120.9479988 118.4986612 114.4185914 120.5213643
 126.8490012 113.8884997 120.6659988 126.9260012 113.4624997 121.5199988
 127.7430012 113.9024997 120.3229988 126.9803428 113.8320879 120.7365310
 130.0250012 129.9614997 119.3579988 129.2430012 129.7754997 118.8379988
 129.9530012 130.8904997 119.5759988 129.9082274 130.0616643 119.3163018
 144.4310012 123.8474997 109.3889988 144.5200012 124.7914997 109.2569988
 143.7930012 123.5724997 108.7309988 144.3569081 123.9394830 109.2819614
 143.3640012 123.1024997 112.8079988 143.3260012 122.4564997 113.5129988
 143.0420012 122.6364997 112.0369988 143.3152333 122.9509408 112.8002978
 135.7330012 122.7174997 114.4009988 135.7740012 122.0914997 115.1239988
 136.4360012 123.3414997 114.5829988 135.8336363 122.7161196 114.5246044
 136.6560012 127.1674997 112.9359988 136.2870012 126.3654997 112.5659988
 137.5970012 126.9984997 112.9819988 136.7327289 127.0350153 112.8916316
 133.2660012 120.8274997 108.3289988 132.8190012 121.6734997 108.3099988
 132.7050012 120.2474997 107.8129988 133.1289900 120.8649916 108.2566801
 133.9770012 122.9894997 110.4539988 134.1900012 122.2194997 110.9819988
 134.7150012 123.0784997 109.8509988 134.1059044 122.8961968 110.4447123
 144.1820012 131.1464997 111.3209988 144.8020012 130.4694997 111.0479988
 143.9740012 130.9284997 112.2299988 144.2386726 131.0244800 111.4064812
 141.7540012 125.5354997 113.2139988 142.0580012 124.8494997 112.6189988
 142.4750012 125.6534997 113.8319988 141.8930671 125.4576304 113.2161816
 144.8950012 119.9294997 113.5409988 145.0370012 118.9834997 113.5619988
 144.7880012 120.1364997 112.6129988 144.8999919 119.8278246 113.4183408
 138.0490012 118.0304997 110.8139988 138.0930012 118.8904997 110.3949988
 137.5920012 117.4784997 110.1799988 137.9932240 118.0734422 110.6709864
 134.6700012 120.4274997 111.5759988 135.3230012 119.8774997 112.0079988
 134.6940012 120.1534997 110.6589988 134.7626683 120.3151466 111.5112123
 139.8260012 121.9774997 110.7909988 140.4420012 121.4514997 111.3009988
 139.2400012 121.3374997 110.3879988 139.8310810 121.8189208 110.8063173
 136.8600012 116.9484997 114.8879988 136.6410012 117.4784997 114.1219988
 136.1920012 117.1754997 115.5349988 136.7397600 117.0516906 114.8706379
 144.2290012 126.4484997 108.4319988 143.9330012 126.1264997 107.5809988
 143.9040012 127.3484997 108.4729988 144.1446371 126.5260215 108.3211801
 139.4290012 124.6244997 115.1749988 138.6890012 125.2224997 115.2789988
 140.1430012 125.1784997 114.8599988 139.4242237 124.7812831 115.1466465
 136.4530012 118.8404997 112.8399988 137.0670012 119.4734997 113.2129988
 136.9650012 118.3684997 112.1839988 136.6061981 118.8632267 112.8022908
 137.8360012 126.5884997 115.9619988 137.8310012 127.4684997 115.5839988
 136.9830012 126.5054997 116.3869988 137.7199464 126.6976117 115.9677907
 133.9570012 126.2594997 106.7439988 133.6850012 126.4884997 105.8559988
 134.0030012 127.0974997 107.2049988 133.9259482 126.4041318 106.6846273
 140.8860012 114.2544997 112.3399988 140.7690012 113.3054997 112.2859988
 140.0310012 114.5864997 112.6139988 140.7544212 114.1695571 112.3696497
 143.1530012 123.0914997 106.8409988 142.4410012 123.6264997 106.4889988
 143.8440012 123.1474997 106.1809988 143.1490132 123.1722543 106.7036289
 138.2040012 123.9314997 109.6749988 137.8730012 123.5614997 108.8569988
 138.7920012 123.2614997 110.0219988 138.2381873 123.7901156 109.6098102
 139.5700012 127.3594997 112.3559988 139.4760012 126.7814997 111.5999988
 140.3000012 126.9884997 112.8529988 139.6557387 127.2301663 112.3195342
 138.5700012 122.7004997 113.3089988 139.1360012 122.8214997 112.5459988
 138.8890012 123.3374997 113.9469988 138.6905474 122.8032219 113.2909862
 144.8790012 128.2034997 114.0429988 144.6390012 128.8654997 114.6909988
 144.6810012 127.3694997 114.4679988 144.8193808 128.1813134 114.1891524
 139.4500012 127.0994997 118.0259988 139.1390012 127.8814997 118.4809988
 138.8000012 126.9464997 117.3399988 139.3195558 127.1859105 117.9955871
 136.3700012 123.2974997 117.2539988 136.4410012 123.9484997 117.9529988
 135.4800012 123.4004997 116.9189988 136.2593005 123.4005427 117.3043495
 143.1560012 129.2004997 108.9129988 143.6300012 129.4954997 109.6899988
 142.5930012 129.9384997 108.6799988 143.1448184 129.3407247 108.9879628
 137.6900012 129.1714997 118.7889988 137.6970012 129.0354997 117.8419988
 136.7740012 129.0534997 119.0409988 137.5671714 129.1369430 118.6934666
 137.1940012 123.0014997 107.2639988 136.9020012 123.7694997 106.7739988
 136.5200012 122.3414997 107.1019988 137.0628111 123.0175587 107.1748978
 133.2870012 125.3644997 116.0789988 132.7860012 125.3364997 115.2639988
 133.2920012 124.4584997 116.3889988 133.2190944 125.2382396 116.0093226
 133.0370012 128.1444997 112.9629988 133.9830012 128.0004997 112.9439988
 132.9250012 128.9284997 113.4999988 133.1512727 128.2308046 113.0330072
 142.2140012 128.3844997 117.5219988 142.3010012 129.2104997 117.9969988
 141.3500012 128.0544997 117.7709988 142.1091964 128.4529878 117.6206549
 142.6280012 132.1564997 107.3279988 142.5530012 132.0354997 106.3809988
 142.6610012 133.1064997 107.4459988 142.6222068 132.2682646 107.2144967
 136.2810012 130.9454997 109.1089988 136.4340012 130.5974997 109.9869988
 135.4310012 130.5894997 108.8539988 136.1869166 130.8496216 109.1948079
 135.5360012 126.6874997 117.1229988 135.7520012 126.3264997 117.9819988
 134.6810012 126.3134997 116.9129988 135.4499292 126.5874111 117.2123386
 138.1550012 115.1574997 113.1179988 137.2930012 115.0704997 112.7099988
 138.1320012 116.0134997 113.5459988 138.0340409 115.2612883 113.1200589
 142.8180012 114.8794997 116.4929988 143.2380012 114.4644997 117.2459988
 141.8850012 114.7014997 116.6099988 142.7493644 114.7985900 116.6119539
 142.4790012 117.3724997 103.7779988 142.2260012 117.3914997 104.7009988
 142.2230012 116.5004997 103.4759988 142.4097481 117.2572558 103.8636175
 138.2460012 120.1234997 114.2129988 137.6040012 120.0824997 114.9219988
 138.2830012 121.0494997 113.9749988 138.1630664 120.2431430 114.2779219
 138.2430012 120.3444997 109.1249988 137.3500012 120.0034997 109.0659988
 138.6930012 119.9674997 108.3689988 138.1818130 120.2469631 109.0147702
 143.7780012 120.7604997 107.9419988 143.3690012 121.5754997 107.6509988
 144.4990012 120.6204997 107.3279988 143.8194537 120.8532018 107.8191342
 142.8800012 120.9354997 119.4299988 142.3180012 120.2314997 119.7509988
 143.7070012 120.8154997 119.8979988 142.9147095 120.8227883 119.5372330
 144.7830012 120.2064997 110.7559988 144.5880012 120.8114997 110.0409988
 144.9640012 119.3724997 110.3219988 144.7807614 120.1766300 110.5994405
 135.9960012 120.4434997 116.0799988 135.9580012 120.8434997 116.9489988
 135.5050012 119.6264997 116.1709988 135.9244684 120.3878069 116.2111059
 132.6040012 117.5594997 109.9309988 133.2350012 117.5304997 110.6499988
 133.0530012 117.1344997 109.1999988 132.7510918 117.4980836 109.9306441
 133.8780012 118.3054997 105.3549988 134.3520012 118.8964997 104.7699988
 133.1610012 118.8364997 105.7019988 133.8459341 118.4580867 105.3218836
 144.0470012 121.8444997 115.4269988 144.3700012 121.2134997 114.7839988
 143.6070012 121.3094997 116.0879988 144.0317484 121.6858387 115.4283198
 140.8240012 117.7714997 110.2109988 139.9130012 117.8284997 110.4999988
 141.3300012 117.7114997 111.0219988 140.7676899 117.7711941 110.3601184
 135.6530012 119.4004997 109.0379988 134.7630012 119.5004997 108.6979988
 135.9490012 118.5584997 108.6919988 135.5712823 119.3003546 108.9447213
 139.3060012 119.4004997 106.6949988 140.2370012 119.5294997 106.8729988
 139.0910012 120.0704997 106.0449988 139.4044247 119.5086565 106.6315747
 136.1150012 125.1524997 119.3599988 136.8470012 125.4064997 119.9219988
 135.3350012 125.3564997 119.8759988 136.1097073 125.2148160 119.5066151
 142.1440012 120.5594997 112.0979988 142.7090012 120.0124997 111.5509988
 141.9970012 120.0374997 112.8869988 142.2013380 120.4142259 112.1298695
 137.1460012 116.6954997 108.5169988 136.8290012 115.7934997 108.4809988
 137.9280012 116.6974997 107.9639988 137.2082408 116.5722474 108.4373569
 140.7710012 118.9474997 114.5119988 139.9350012 119.4014997 114.6229988
 141.2950012 119.2234997 115.2639988 140.7275416 119.0468660 114.6288119
 141.3150012 125.1604997 106.1969988 140.5700012 124.6534997 105.8749988
 141.1810012 125.2094997 107.1439988 141.1948776 125.0976940 106.2808647
 142.8340012 125.3444997 117.4339988 142.4890012 124.9634997 118.2409988
 142.6340012 126.2784997 117.5049988 142.7597527 125.4185135 117.5540689
 136.4400012 124.4554997 111.9669988 137.1850012 124.4534997 111.3659988
 136.5180012 123.6324997 112.4479988 136.5524995 124.3438887 111.9498282
 143.4410012 126.6194997 105.2229988 143.1450012 127.4454997 105.6039988
 142.7380012 125.9994997 105.4189988 143.3054914 126.6488199 105.3016443
 133.4480012 122.9164997 117.2819988 133.6710012 122.4984997 118.1139988
 132.8460012 122.3034997 116.8589988 133.3971759 122.7764668 117.3387022
 140.4640012 122.4334997 119.4949988 140.1680012 122.2674997 118.5999988
 141.3960012 122.2134997 119.4839988 140.5494166 122.3810640 119.3710536
 138.8150012 127.9734997 109.3709988 139.3420012 128.7464997 109.1709988
 137.9350012 128.1984997 109.0689988 138.7682031 128.1097545 109.3027912
 134.5700012 122.8354997 103.9579988 135.1860012 123.4624997 104.3379988
 133.7080012 123.1514997 104.2299988 134.5377698 122.9639430 104.0467183
 140.2420012 125.6364997 108.9469988 140.0010012 126.5614997 108.9889988
 139.5010012 125.1774997 109.3439988 140.1089225 125.7010933 109.0063742
 140.7570012 129.7854997 115.2629988 141.1190012 130.6404997 115.0289988
 141.2880012 129.4934997 116.0029988 140.8784473 129.8631060 115.3310855
 138.9250012 130.6584997 108.4929988 137.9750012 130.7634997 108.5439988
 139.2770012 131.4784997 108.8369988 138.8424195 130.7838800 108.5465502
 144.3010012 125.8844997 114.9629988 143.8750012 125.6574997 115.7899988
 144.8810012 125.1464997 114.7809988 144.3211868 125.7535299 115.0515830
 135.0820012 117.6694997 116.8399988 134.1890012 118.0084997 116.7719988
 134.9830012 116.8144997 117.2579988 134.9464164 117.6002588 116.8872235
 134.7330012 129.4744997 115.2749988 134.9500012 128.5424997 115.2439988
 134.9790012 129.7484997 116.1579988 134.7959549 129.3840636 115.3901763
 140.5950012 127.9254997 102.4839988 140.8340012 127.1774997 101.9369988
 140.3260012 127.5374997 103.3169988 140.5913675 127.7706638 102.5216865
 139.5320012 127.4954997 104.9399988 139.6780012 126.9754997 105.7299988
 139.5290012 128.4024997 105.2469988 139.5515792 127.5468842 105.0896117
 135.9850012 124.7484997 105.4509988 135.2990012 125.1004997 106.0179988
 136.5070012 125.5114997 105.2039988 135.9616852 124.8998578 105.4952118
 143.8160012 117.4104997 115.7299988 144.5150012 117.4844997 116.3799988
 143.4350012 116.5464997 115.8839988 143.8601767 117.3037624 115.8398322
 144.6010012 117.0624997 106.8269988 144.8210012 117.5344997 106.0239988
 145.1590012 117.4574997 107.4969988 144.7064968 117.1804285 106.8077331
 142.2690012 129.1934997 105.6899988 141.4530012 129.6904997 105.7419988
 142.7990012 129.6684997 105.0499988 142.2289161 129.3257722 105.6105956
 141.8010012 118.7904997 107.6619988 142.6130012 119.2954997 107.7079988
 141.5560012 118.6454997 108.5759988 141.8790520 118.8400375 107.7918517
 142.3360012 119.7764997 116.8459988 142.4550012 120.3504997 117.6039988
 142.9920012 119.0884997 116.9609988 142.4409025 119.7619858 116.9651321
 142.6840012 115.8714997 108.5999988 142.3380012 116.4894997 109.2439988
 143.3430012 116.3724997 108.1179988 142.7256968 116.0236278 108.6229383
 138.3420012 116.9344997 105.2869988 138.2590012 117.8234997 105.6339988
 139.2320012 116.6694997 105.5189988 138.4509469 117.0201430 105.3657626
 136.6010012 127.3624997 104.3479988 137.1930012 128.0614997 104.6239988
 137.0600012 126.9294997 103.6279988 136.7441142 127.3997049 104.2884830
 134.9170012 120.0264997 103.4639988 134.8720012 120.9654997 103.6419988
 134.0290012 119.7904997 103.1939988 134.7908574 120.1231892 103.4518912
 135.7250012 114.8084997 112.1369988 135.4960012 114.8674997 111.2089988
 135.2820012 114.0164997 112.4429988 135.6338530 114.7095753 112.0514786
 134.6550012 128.7484997 108.2969988 133.8230012 129.2214997 108.3239988
 135.2010012 129.2584997 107.6989988 134.6150352 128.8821332 108.2198463
 133.9430012 131.3614997 119.6269988 134.4840012 131.1444997 120.3869988
 133.4620012 130.5554997 119.4369988 133.9519951 131.2229270 119.7052576
 138.5410012 130.2804997 121.2469988 139.3080012 129.8214997 121.5879988
 138.5190012 130.0544997 120.3179988 138.6431275 130.1870186 121.1680101
 133.8500012 125.1714997 120.5809988 133.9940012 124.2694997 120.2949988
 133.0780012 125.4574997 120.0939988 133.7652753 125.0866816 120.4759505
 140.5060012 125.1414997 120.0139988 140.1770012 125.4124997 119.1569988
 140.6580012 124.2004997 119.9269988 140.4814809 125.0513862 119.8848244
 143.5440012 126.5624997 102.4499988 143.2750012 126.7424997 103.3509988
 143.3380012 125.6364997 102.3179988 143.4793427 126.4620261 102.5555073
 134.6830012 122.3714997 120.0009988 135.0910012 121.5144997 119.8799988
 134.4230012 122.3864997 120.9219988 134.7037568 122.2560807 120.1089588
 138.6300012 121.3804997 117.3759988 138.0120012 122.0554997 117.6559988
 138.9740012 121.7014997 116.5419988 138.5919132 121.5162411 117.3016262
 143.6500012 123.8524997 120.6529988 144.6030012 123.9354997 120.6259988
 143.4890012 123.1404997 121.2729988 143.7586426 123.7676746 120.7330579
 138.9690012 118.7354997 118.4579988 139.1190012 118.0064997 117.8559988
 138.9720012 119.5124997 117.8989988 138.9899302 118.7407851 118.3000692
 139.3820012 117.1054997 115.9509988 139.9180012 117.5564997 115.2989988
 138.5300012 116.9974997 115.5279988 139.3402178 117.1526390 115.8045756
 140.9640012 122.5444997 116.1899988 141.7140012 122.3884997 115.6169988
 140.6250012 123.3964997 115.9149988 141.0208921 122.6382968 116.0743561
 137.4480012 119.9334997 120.3699988 136.6810012 119.4014997 120.1589988
 138.1270012 119.6234997 119.7699988 137.4347877 119.8188300 120.2600716
 140.1880012 114.5614997 116.3819988 140.0890012 115.5084997 116.2769988
 139.4450012 114.1894997 115.9059988 140.0741184 114.6405863 116.3033621
 141.4520012 118.8834997 119.9459988 141.2160012 118.6634997 120.8469988
 140.6680012 118.6764997 119.4359988 141.3138504 118.8254586 120.0003431
 144.1670012 118.0104997 119.0209988 143.2200012 118.0424997 119.1539988
 144.4800012 117.3854997 119.6749988 144.0796707 117.9303998 119.1276060
 135.6280012 117.8544997 120.0739988 135.8400012 117.1474997 119.4639988
 135.5170012 117.4164997 120.9179988 135.6419721 117.6987084 120.1046843
 140.4090012 113.8554997 119.0529988 141.1210012 113.2154997 119.0389988
 140.3080012 114.1224997 118.1399988 140.4928066 113.8040079 118.9275677
 140.7630012 115.5384997 121.1069988 140.6310012 115.0624997 120.2869988
 140.1640012 116.2824997 121.0519988 140.6639071 115.5739618 120.9872886
 132.5270012 132.4504997 108.8439988 131.8800012 131.9884997 108.3109988
 132.8810012 131.7784997 109.4259988 132.4863849 132.2964723 108.8497959
 133.3970012 130.5314997 110.6479988 133.0620012 129.6514997 110.8199988
 133.6190012 130.8764997 111.5129988 133.3811783 130.4577500 110.7884208
 133.4770012 123.6064997 113.0999988 133.6610012 123.5244997 112.1639988
 134.3260012 123.4824997 113.5229988 133.6170151 123.5785073 113.0291451
 133.0740012 118.8774997 119.2409988 133.9940012 118.7554997 119.4769988
 132.6250012 118.1274997 119.6299988 133.1391580 118.7593727 119.3259006
 134.2950012 117.1894997 112.1319988 134.7410012 116.3974997 112.4339988
 134.7620012 117.9054997 112.5619988 134.4190831 117.1780685 112.2314006
 132.5990012 120.1884997 113.2009988 133.0910012 119.9674997 112.4099988
 132.9620012 121.0294997 113.4819988 132.7153126 120.2718357 113.1307531
 132.9130012 116.4464997 107.2549988 131.9880012 116.6554997 107.1259988
 133.3670012 116.9304997 106.5649988 132.8477292 116.5405343 107.1440720
 132.8770012 115.1844997 115.5989988 132.2120012 114.9384997 116.2429988
 132.4340012 115.8064997 115.0219988 132.7261318 115.2349410 115.6090898
 135.0690012 128.3594997 119.7439988 134.2480012 128.5344997 119.2829988
 134.8160012 128.2864997 120.6639988 134.9225585 128.3735544 119.8053561
 138.0230012 129.3344997 116.0019988 137.5980012 130.1434997 115.7199988
 138.9270012 129.4194997 115.6999988 138.0869975 129.4569300 115.9224816
 142.3340012 130.7334997 118.9619988 142.5190012 130.3994997 119.8399988
 143.1800012 131.0424997 118.6399988 142.4737539 130.7296047 119.0385605
 144.6790012 132.0194997 118.2059988 145.3560012 131.3864997 117.9659988
 145.0010012 132.4204997 119.0129988 144.8151637 131.9871154 118.2822793
 135.4250012 132.5904997 116.0499988 134.7040012 133.0304997 115.5989988
 135.0590012 132.3394997 116.8979988 135.2769651 132.6167242 116.1029640
 137.8920012 132.1904997 115.0799988 137.0270012 132.2624997 115.4839988
 137.8370012 132.7374997 114.2959988 137.7662085 132.2742685 115.0293362
 142.6020012 132.0784997 114.2549988 142.1460012 132.6074997 113.6009988
 142.7650012 132.6814997 114.9799988 142.5616068 132.2324607 114.2634838
 134.8390012 131.2134997 112.9599988 134.8210012 130.7884997 113.8169988
 135.6440012 130.8954997 112.5509988 134.9453529 131.1123013 113.0220946
 136.9810012 129.9234997 111.6149988 136.7620012 129.0074997 111.7849988
 137.8050012 130.0634997 112.0809988 137.0624420 129.8170520 111.7012774
 139.5180012 130.3934997 112.4639988 139.7310012 129.5054997 112.1769988
 139.5820012 130.3594997 113.4179988 139.5558231 130.2673102 112.5537397
 143.0260012 116.0574997 111.6079988 142.3520012 115.4284997 111.8639988
 143.5900012 115.5734997 111.0049988 143.0099230 115.9058744 111.5615340
 135.3530012 114.6914997 109.4299988 134.5760012 114.4574997 108.9229988
 135.8830012 113.8944997 109.4389988 135.3182330 114.5516988 109.3617742
 134.1890012 114.4894997 105.2339988 134.6280012 115.1004997 104.6419988
 133.5560012 115.0274997 105.7079988 134.1634514 114.6459257 105.2170930
 139.9320012 114.6184997 109.2439988 140.8070012 115.0064997 109.2139988
 139.7960012 114.4034997 110.1659988 140.0333695 114.6425184 109.3646440
 136.0500012 116.4054997 103.6759988 136.5420012 115.7754997 103.1489988
 136.6740012 116.7014997 104.3389988 136.2015688 116.3593804 103.6935482
 141.0760012 116.6984997 106.1329988 141.2540012 116.0524997 106.8159988
 141.0230012 117.5324997 106.5999988 141.0931999 116.7228009 106.2895917
 135.3110012 115.2054997 118.9479988 134.9450012 114.4404997 119.3899988
 136.2240012 115.2344997 119.2339988 135.3842736 115.1045640 119.0472502
 137.2840012 114.5564997 120.4839988 138.1820012 114.2824997 120.2989988
 136.8970012 113.8134997 120.9479988 137.3546612 114.4185914 120.5213643
 135.9080012 131.3574997 103.1569988 135.6410012 131.6444997 104.0299988
 136.6800012 130.8114997 103.3089988 135.9757488 131.3230294 103.2971050
  12.4390012 142.7034997 109.3889988  12.5280012 143.6474997 109.2569988
  11.8010012 142.4284997 108.7309988  12.3649081 142.7954830 109.2819614
  11.3720012 141.9584997 112.8079988  11.3340012 141.3124997 113.5129988
  11.0500012 141.4924997 112.0369988  11.3232333 141.8069408 112.8002978
   3.7410012 141.5734997 114.4009988   3.7820012 140.9474997 115.1239988
   4.4440012 142.1974997 114.5829988   3.8416363 141.5721196 114.5246044
  15.0780012 144.8974997 111.1089988  14.6380012 144.1774997 111.5599988
  15.0650012 145.6184997 111.7389988  15.0160226 144.8963731 111.2558494
   1.2740012 139.6834997 108.3289988   0.8270012 140.5294997 108.3099988
   0.7130012 139.1034997 107.8129988   1.1369900 139.7209916 108.2566801
   1.9850012 141.8454997 110.4539988   2.1980012 141.0754997 110.9819988
   2.7230012 141.9344997 109.8509988   2.1139044 141.7521968 110.4447123
   9.7620012 144.3914997 113.2139988  10.0660012 143.7054997 112.6189988
  10.4830012 144.5094997 113.8319988   9.9010671 144.3136305 113.2161816
  18.4250012 135.9924997 114.0749988  18.4740012 136.6024997 114.8099988
  18.8500012 136.4534997 113.3519988  18.4891746 136.1383796 114.0779175
  12.9030012 138.7854997 113.5409988  13.0450012 137.8394997 113.5619988
  12.7960012 138.9924997 112.6129988  12.9079919 138.6838246 113.4183408
   6.0570012 136.8864997 110.8139988   6.1010012 137.7464997 110.3949988
   5.6000012 136.3344997 110.1799988   6.0012240 136.9294422 110.6709864
  13.7800012 137.0174997 109.2149988  14.4260012 136.6884997 109.8389988
  14.2900012 137.5354997 108.5919988  13.9374299 137.0424450 109.2162731
   2.6780012 139.2834997 111.5759988   3.3310012 138.7334997 112.0079988
   2.7020012 139.0094997 110.6589988   2.7706683 139.1711466 111.5112123
   7.8340012 140.8334997 110.7909988   8.4500012 140.3074997 111.3009988
   7.2480012 140.1934997 110.3879988   7.8390810 140.6749208 110.8063173
  18.8160012 137.4704997 116.3099988  18.1280012 138.1284997 116.2149988
  18.8320012 137.2734997 117.2469988  18.7239540 137.5339819 116.4235990
   4.8680012 135.8044997 114.8879988   4.6490012 136.3344997 114.1219988
   4.2000012 136.0314997 115.5349988   4.7477600 135.9076906 114.8706379
   7.4370012 143.4804997 115.1749988   6.6970012 144.0784997 115.2789988
   8.1510012 144.0344997 114.8599988   7.4322237 143.6372831 115.1466465
  15.5440012 136.3084997 111.1949988  15.3280012 135.5424997 111.7279988
  16.1990012 136.7804997 111.7079988  15.6030632 136.2675889 111.3372861
   4.4610012 137.6964997 112.8399988   5.0750012 138.3294997 113.2129988
   4.9730012 137.2244997 112.1839988   4.6141981 137.7192267 112.8022908
  15.8910012 135.0234997 114.8749988  15.1550012 135.6344997 114.8369988
  16.5740012 135.4384997 114.3479988  15.8826541 135.1631374 114.7985832
   8.8940012 133.1104997 112.3399988   8.7770012 132.1614997 112.2859988
   8.0390012 133.4424997 112.6139988   8.7624212 133.0255571 112.3696497
  16.6880012 144.9854997 117.0679988  16.8280012 144.3944997 116.3289988
  16.8550012 145.8584997 116.7119988  16.7297411 145.0225428 116.9186894
  18.5300012 141.3254997 115.1339988  17.8770012 142.0204997 115.2239988
  18.9950012 141.5354997 114.3249988  18.5035274 141.4490643 115.0368462
  14.5660012 142.1574997 107.7929988  13.8340012 142.3854997 108.3659988
  15.0140012 141.4434997 108.2469988  14.5262725 142.0922145 107.9328816
  14.4640012 140.3314997 116.8599988  14.5440012 141.0944997 117.4319988
  13.8620012 140.6104997 116.1699988  14.3935756 140.4737134 116.8450589
   6.2120012 142.7874997 109.6749988   5.8810012 142.4174997 108.8569988
   6.8000012 142.1174997 110.0219988   6.2461873 142.6461156 109.6098102
   6.5780012 141.5564997 113.3089988   7.1440012 141.6774997 112.5459988
   6.8970012 142.1934997 113.9469988   6.6985474 141.6592219 113.2909862
  13.4370012 141.3194997 105.4779988  14.0170012 141.4694997 106.2249988
  13.8510012 141.7904997 104.7539988  13.5722997 141.4036578 105.4824058
   4.3780012 142.1534997 117.2539988   4.4490012 142.8044997 117.9529988
   3.4880012 142.2564997 116.9189988   4.2673005 142.2565427 117.3043495
  17.1360012 133.0694997 105.2909988  16.2360012 133.2084997 105.5859988
  17.3880012 133.9004997 104.8889988  17.0468702 133.2009074 105.2770205
   5.2020012 141.8574997 107.2639988   4.9100012 142.6254997 106.7739988
   4.5280012 141.1974997 107.1019988   5.0708111 141.8735587 107.1748978
   1.2950012 144.2204997 116.0789988   0.7940012 144.1924997 115.2639988
   1.3000012 143.3144997 116.3889988   1.2270944 144.0942396 116.0093226
  16.3950012 139.1594997 119.1259988  15.9880012 139.6404997 118.4049988
  16.4360012 138.2544997 118.8179988  16.3448437 139.1029374 118.9856683
   6.1630012 134.0134997 113.1179988   5.3010012 133.9264997 112.7099988
   6.1400012 134.8694997 113.5459988   6.0420409 134.1172883 113.1200589
  10.8260012 133.7354997 116.4929988  11.2460012 133.3204997 117.2459988
   9.8930012 133.5574997 116.6099988  10.7573644 133.6545900 116.6119539
  14.1520012 137.4914997 117.3459988  13.6380012 137.3654997 118.1439988
  13.9970012 138.4034997 117.1019988  14.0606852 137.5976132 117.4222158
  14.9150012 142.3524997 103.1079988  14.9570012 142.1294997 102.1779988
  15.7640012 142.7514997 103.2969988  15.0355280 142.3759438 103.0063554
   6.2540012 138.9794997 114.2129988   5.6120012 138.9384997 114.9219988
   6.2910012 139.9054997 113.9749988   6.1710664 139.0991430 114.2779219
   6.2510012 139.2004997 109.1249988   5.3580012 138.8594997 109.0659988
   6.7010012 138.8234997 108.3689988   6.1898130 139.1029631 109.0147702
  11.7860012 139.6164997 107.9419988  11.3770012 140.4314997 107.6509988
  12.5070012 139.4764997 107.3279988  11.8274537 139.7092018 107.8191342
  10.8880012 139.7914997 119.4299988  10.3260012 139.0874997 119.7509988
  11.7150012 139.6714997 119.8979988  10.9227095 139.6787883 119.5372330
  12.7910012 139.0624997 110.7559988  12.5960012 139.6674997 110.0409988
  12.9720012 138.2284997 110.3219988  12.7887614 139.0326300 110.5994405
   4.0040012 139.2994997 116.0799988   3.9660012 139.6994997 116.9489988
   3.5130012 138.4824997 116.1709988   3.9324684 139.2438069 116.2111059
   0.6120012 136.4154997 109.9309988   1.2430012 136.3864997 110.6499988
   1.0610012 135.9904997 109.1999988   0.7590918 136.3540836 109.9306441
  12.0550012 140.7004997 115.4269988  12.3780012 140.0694997 114.7839988
  11.6150012 140.1654997 116.0879988  12.0397484 140.5418387 115.4283198
   8.8320012 136.6274997 110.2109988   7.9210012 136.6844997 110.4999988
   9.3380012 136.5674997 111.0219988   8.7756899 136.6271941 110.3601184
   3.6610012 138.2564997 109.0379988   2.7710012 138.3564997 108.6979988
   3.9570012 137.4144997 108.6919988   3.5792823 138.1563546 108.9447213
   7.3140012 138.2564997 106.6949988   8.2450012 138.3854997 106.8729988
   7.0990012 138.9264997 106.0449988   7.4124247 138.3646565 106.6315747
  13.2370012 135.8624997 113.4759988  12.5610012 135.9934997 114.1399988
  12.7520012 135.7074997 112.6649988  13.0787146 135.8595157 113.4574469
   5.9880012 139.4514997 104.2609988   5.4450012 139.0714997 103.5699988
   6.8210012 139.6454997 103.8329988   6.0263631 139.4257125 104.1084501
   4.1230012 144.0084997 119.3599988   4.8550012 144.2624997 119.9219988
   3.3430012 144.2124997 119.8759988   4.1177073 144.0708160 119.5066151
  10.1520012 139.4154997 112.0979988  10.7170012 138.8684997 111.5509988
  10.0050012 138.8934997 112.8869988  10.2093380 139.2702259 112.1298695
   5.1540012 135.5514997 108.5169988   4.8370012 134.6494997 108.4809988
   5.9360012 135.5534997 107.9639988   5.2162408 135.4282474 108.4373569
   8.7790012 137.8034997 114.5119988   7.9430012 138.2574997 114.6229988
   9.3030012 138.0794997 115.2639988   8.7355416 137.9028660 114.6288119
  16.4730012 143.1494997 114.9839988  17.1150012 143.6064997 114.4399988
  15.6430012 143.2624997 114.5209988  16.4485963 143.2272704 114.8470177
  13.2210012 136.8304997 104.3959988  12.2820012 136.9424997 104.2449988
  13.5180012 137.6874997 104.7029988  13.1327583 136.9615981 104.4168337
  10.8420012 144.2004997 117.4339988  10.4970012 143.8194997 118.2409988
  10.6420012 145.1344997 117.5049988  10.7677527 144.2745135 117.5540689
  13.9390012 138.6974997 106.0569988  14.8310012 138.5604997 106.3759988
  13.9960012 139.4884997 105.5199988  14.0686504 138.7856052 106.0280818
   4.4480012 143.3114997 111.9669988   5.1930012 143.3094997 111.3659988
   4.5260012 142.4884997 112.4479988   4.5604995 143.1998887 111.9498282
   1.4560012 141.7724997 117.2819988   1.6790012 141.3544997 118.1139988
   0.8540012 141.1594997 116.8589988   1.4051759 141.6324668 117.3387022
   8.4720012 141.2894997 119.4949988   8.1760012 141.1234997 118.5999988
   9.4040012 141.0694997 119.4839988   8.5574166 141.2370640 119.3710536
  18.8240012 138.9074997 105.7519988  18.2700012 138.5114997 105.0799988
  18.9240012 139.8174997 105.4739988  18.7617059 138.9763586 105.6224401
  18.7870012 144.7074997 118.5889988  17.9360012 144.9454997 118.2219988
  19.3780012 144.6904997 117.8359988  18.7502487 144.7378258 118.4368893
  14.2800012 142.5014997 113.2379988  13.3510012 142.2694997 113.2109988
  14.7310012 141.7244997 112.9079988  14.2139216 142.3647238 113.1896917
   2.5780012 141.6914997 103.9579988   3.1940012 142.3184997 104.3379988
   1.7160012 142.0074997 104.2299988   2.5457698 141.8199430 104.0467183
   8.2500012 144.4924997 108.9469988   8.0090012 145.4174997 108.9889988
   7.5090012 144.0334997 109.3439988   8.1169225 144.5570933 109.0063742
  12.3090012 144.7404997 114.9629988  11.8830012 144.5134997 115.7899988
  12.8890012 144.0024997 114.7809988  12.3291868 144.6095299 115.0515830
   3.0900012 136.5254997 116.8399988   2.1970012 136.8644997 116.7719988
   2.9910012 135.6704997 117.2579988   2.9544164 136.4562588 116.8872235
  15.3780012 144.3424997 106.2639988  15.1000012 143.6144997 106.8199988
  16.3050012 144.4614997 106.4689988  15.4653124 144.2588802 106.3678845
  11.8240012 136.2664997 115.7299988  12.5230012 136.3404997 116.3799988
  11.4430012 135.4024997 115.8839988  11.8681767 136.1597624 115.8398322
  12.6090012 135.9184997 106.8269988  12.8290012 136.3904997 106.0239988
  13.1670012 136.3134997 107.4969988  12.7144968 136.0364285 106.8077331
   9.8090012 137.6464997 107.6619988  10.6210012 138.1514997 107.7079988
   9.5640012 137.5014997 108.5759988   9.8870520 137.6960375 107.7918517
  10.3440012 138.6324997 116.8459988  10.4630012 139.2064997 117.6039988
  11.0000012 137.9444997 116.9609988  10.4489025 138.6179858 116.9651321
  10.6920012 134.7274997 108.5999988  10.3460012 135.3454997 109.2439988
  11.3510012 135.2284997 108.1179988  10.7336968 134.8796278 108.6229383
   6.3500012 135.7904997 105.2869988   6.2670012 136.6794997 105.6339988
   7.2400012 135.5254997 105.5189988   6.4589469 135.8761430 105.3657626
  16.5490012 136.5394997 117.6809988  15.6320012 136.8024997 117.5939988
  16.8840012 136.5364997 116.7849988  16.4688613 136.5750761 117.5478837
  15.1510012 140.2904997 111.7769988  14.3530012 139.8754997 111.4489988
  15.5960012 139.5994997 112.2679988  15.1019885 140.1403543 111.7984889
   3.7330012 133.6644997 112.1369988   3.5040012 133.7234997 111.2089988
   3.2900012 132.8724997 112.4429988   3.6418530 133.5655753 112.0514786
   1.8580012 144.0274997 120.5809988   2.0020012 143.1254997 120.2949988
   1.0860012 144.3134997 120.0939988   1.7732753 143.9426816 120.4759505
   8.5140012 143.9974997 120.0139988   8.1850012 144.2684997 119.1569988
   8.6660012 143.0564997 119.9269988   8.4894809 143.9073862 119.8848244
  14.2480012 143.9134997 117.3969988  14.9940012 144.5014997 117.2779988
  13.4910012 144.4954997 117.4609988  14.2477820 144.0727143 117.3893590
   2.6910012 141.2274997 120.0009988   3.0990012 140.3704997 119.8799988
   2.4310012 141.2424997 120.9219988   2.7117568 141.1120807 120.1089588
   6.6380012 140.2364997 117.3759988   6.0200012 140.9114997 117.6559988
   6.9820012 140.5574997 116.5419988   6.5999132 140.3722411 117.3016262
  11.6580012 142.7084997 120.6529988  12.6110012 142.7914997 120.6259988
  11.4970012 141.9964997 121.2729988  11.7666426 142.6236746 120.7330579
  17.8100012 142.9414997 102.7279988  17.5360012 142.5164997 101.9149988
  17.8490012 143.8724997 102.5109988  17.7777699 143.0092484 102.5873610
   6.9770012 137.5914997 118.4579988   7.1270012 136.8624997 117.8559988
   6.9800012 138.3684997 117.8989988   6.9979302 137.5967851 118.3000692
   7.3900012 135.9614997 115.9509988   7.9260012 136.4124997 115.2989988
   6.5380012 135.8534997 115.5279988   7.3482178 136.0086390 115.8045756
   8.9720012 141.4004997 116.1899988   9.7220012 141.2444997 115.6169988
   8.6330012 142.2524997 115.9149988   9.0288921 141.4942968 116.0743561
  13.3870012 139.2154997 121.2189988  13.5800012 138.2844997 121.1069988
  14.2450012 139.6404997 121.2079988  13.5292934 139.1456531 121.2022031
  14.7040012 142.0044997 119.2959988  14.4230012 142.7134997 118.7179988
  15.6470012 141.9314997 119.1449988  14.7929291 142.0916711 119.1964967
   5.4560012 138.7894997 120.3699988   4.6890012 138.2574997 120.1589988
   6.1350012 138.4794997 119.7699988   5.4427877 138.6748300 120.2600716
   8.1960012 133.4174997 116.3819988   8.0970012 134.3644997 116.2769988
   7.4530012 133.0454997 115.9059988   8.0821184 133.4965863 116.3033621
   9.4600012 137.7394997 119.9459988   9.2240012 137.5194997 120.8469988
   8.6760012 137.5324997 119.4359988   9.3218504 137.6814586 120.0003431
  12.1750012 136.8664997 119.0209988  11.2280012 136.8984997 119.1539988
  12.4880012 136.2414997 119.6749988  12.0876707 136.7863998 119.1276060
  13.8090012 135.5004997 121.0269988  13.7130012 134.5484997 121.0209988
  13.4880012 135.7694997 121.8869988  13.7524070 135.4064035 121.1425441
   3.6360012 136.7104997 120.0739988   3.8480012 136.0034997 119.4639988
   3.5250012 136.2724997 120.9179988   3.6499721 136.5547084 120.1046843
   8.4170012 132.7114997 119.0529988   9.1290012 132.0714997 119.0389988
   8.3160012 132.9784997 118.1399988   8.5008066 132.6600079 118.9275677
   8.7710012 134.3944997 121.1069988   8.6390012 133.9184997 120.2869988
   8.1720012 135.1384997 121.0519988   8.6719071 134.4299618 120.9872886
  18.2680012 143.8104997 106.7029988  19.1180012 144.2314997 106.8299988
  18.2740012 143.0704997 107.3099988  18.3851372 143.7680803 106.8024344
  18.6630012 141.8634997 108.5259988  17.9360012 141.3844997 108.9239988
  19.2440012 142.0694997 109.2589988  18.6420473 141.8258103 108.6794528
  18.4220012 144.6484997 113.4739988  19.2550012 144.2704997 113.1939988
  18.5340012 145.5914997 113.3549988  18.5512647 144.7242218 113.4195487
  18.9310012 141.7644997 104.9179988  18.4090012 142.1214997 104.1989988
  18.8980012 142.4394997 105.5959988  18.8551634 141.9045413 104.9113145
  16.4490012 140.3844997 109.0889988  16.2990012 139.4394997 109.0689988
  16.0960012 140.6654997 109.9329988  16.3807448 140.2931481 109.2003705
   1.4850012 142.4624997 113.0999988   1.6690012 142.3804997 112.1639988
   2.3340012 142.3384997 113.5229988   1.6250151 142.4345073 113.0291451
  17.3060012 142.3544997 118.7279988  17.8890012 141.6204997 118.9199988
  17.8700012 143.1264997 118.7749988  17.4619769 142.3584227 118.7606159
  18.8020012 140.2574997 119.4129988  17.9390012 139.8784997 119.2469988
  19.4070012 139.5184997 119.3379988  18.7656119 140.1058268 119.3801528
  16.1600012 137.9674997 107.5519988  16.4400012 137.0604997 107.6759988
  16.9190012 138.4014997 107.1629988  16.3009277 137.9020942 107.5163682
  16.7720012 138.5484997 112.9879988  17.7050012 138.7604997 112.9529988
  16.5370012 138.6504997 113.9099988  16.8679244 138.5913100 113.1078892
  16.8010012 139.2854997 115.7639988  15.9580012 139.5534997 116.1299988
  17.2430012 140.1074997 115.5529988  16.7454158 139.4333291 115.7855491
   1.0820012 137.7334997 119.2409988   2.0020012 137.6114997 119.4769988
   0.6330012 136.9834997 119.6299988   1.1471580 137.6153727 119.3259006
  19.0840012 133.2654997 121.1169988  19.4340012 132.6114997 120.5119988
  19.2310012 134.1024997 120.6769988  19.1517887 133.2891548 120.9746858
  16.7730012 135.2304997 107.5999988  16.9560012 134.7814997 108.4259988
  16.1740012 134.6454997 107.1369988  16.7170202 135.0899975 107.6503275
   2.3030012 136.0454997 112.1319988   2.7490012 135.2534997 112.4339988
   2.7700012 136.7614997 112.5619988   2.4270831 136.0340685 112.2314006
   0.6070012 139.0444997 113.2009988   1.0990012 138.8234997 112.4099988
   0.9700012 139.8854997 113.4819988   0.7233126 139.1278357 113.1307531
  18.6040012 135.3744997 119.4659988  17.6860012 135.6454997 119.4309988
  18.7270012 134.8394997 118.6819988  18.4949729 135.3392508 119.3551923
   0.9210012 135.3024997 107.2549988  -0.0039988 135.5114997 107.1259988
   1.3750012 135.7864997 106.5649988   0.8557292 135.3965343 107.1440720
   0.8850012 134.0404997 115.5989988   0.2200012 133.7944997 116.2429988
   0.4420012 134.6624997 115.0219988   0.7341318 134.0909410 115.6090898
  17.6040012 133.4644997 117.2849988  16.7920012 133.7894997 116.8979988
  17.8370012 132.7044997 116.7519988  17.5242203 133.4062758 117.1598880
  11.0340012 134.9134997 111.6079988  10.3600012 134.2844997 111.8639988
  11.5980012 134.4294997 111.0049988  11.0179230 134.7618744 111.5615340
  16.1770012 133.0214997 111.7209988  16.7810012 133.5684997 111.2189988
  15.3070012 133.3404997 111.4799988  16.1421208 133.1395137 111.6196886
  17.9040012 134.1594997 110.0539988  18.5160012 133.6454997 109.5269988
  18.2860012 135.0374997 110.0769988  18.0393371 134.2077866 109.9850041
   3.3610012 133.5474997 109.4299988   2.5840012 133.3134997 108.9229988
   3.8910012 132.7504997 109.4389988   3.3262330 133.4076988 109.3617742
   2.1970012 133.3454997 105.2339988   2.6360012 133.9564997 104.6419988
   1.5640012 133.8834997 105.7079988   2.1714514 133.5019257 105.2170930
   7.9400012 133.4744997 109.2439988   8.8150012 133.8624997 109.2139988
   7.8040012 133.2594997 110.1659988   8.0413695 133.4985184 109.3646440
  13.4970012 133.5044997 110.8929988  13.5730012 133.5994997 109.9429988
  13.2220012 132.5964997 111.0219988  13.4702321 133.3947867 110.7805079
  14.8500012 133.5304997 106.5849988  14.1480012 134.1454997 106.3749988
  14.4060012 132.6924997 106.7159988  14.6936450 133.5015639 106.5739000
   9.0840012 135.5544997 106.1329988   9.2620012 134.9084997 106.8159988
   9.0310012 136.3884997 106.5999988   9.1011999 135.5788009 106.2895917
   3.3190012 134.0614997 118.9479988   2.9530012 133.2964997 119.3899988
   4.2320012 134.0904997 119.2339988   3.3922736 133.9605640 119.0472502
   5.2920012 133.4124997 120.4839988   6.1900012 133.1384997 120.2989988
   4.9050012 132.6694997 120.9479988   5.3626612 133.2745914 120.5213643
  13.7130012 132.7444997 120.6659988  13.7900012 132.3184997 121.5199988
  14.6070012 132.7584997 120.3229988  13.8443428 132.6880880 120.7365310
  31.2950012 142.7034997 109.3889988  31.3840012 143.6474997 109.2569988
  30.6570012 142.4284997 108.7309988  31.2209081 142.7954830 109.2819614
  30.2280012 141.9584997 112.8079988  30.1900012 141.3124997 113.5129988
  29.9060012 141.4924997 112.0369988  30.1792333 141.8069408 112.8002978
  22.5970012 141.5734997 114.4009988  22.6380012 140.9474997 115.1239988
  23.3000012 142.1974997 114.5829988  22.6976363 141.5721196 114.5246044
  33.9340012 144.8974997 111.1089988  33.4940012 144.1774997 111.5599988
  33.9210012 145.6184997 111.7389988  33.8720226 144.8963731 111.2558494
  20.1300012 139.6834997 108.3289988  19.6830012 140.5294997 108.3099988
  19.5690012 139.1034997 107.8129988  19.9929900 139.7209916 108.2566801
  20.8410012 141.8454997 110.4539988  21.0540012 141.0754997 110.9819988
  21.5790012 141.9344997 109.8509988  20.9699044 141.7521968 110.4447123
  28.6180012 144.3914997 113.2139988  28.9220012 143.7054997 112.6189988
  29.3390012 144.5094997 113.8319988  28.7570671 144.3136305 113.2161816
  37.2810012 135.9924997 114.0749988  37.3300012 136.6024997 114.8099988
  37.7060012 136.4534997 113.3519988  37.3451746 136.1383796 114.0779175
  31.7590012 138.7854997 113.5409988  31.9010012 137.8394997 113.5619988
  31.6520012 138.9924997 112.6129988  31.7639919 138.6838246 113.4183408
  24.9130012 136.8864997 110.8139988  24.9570012 137.7464997 110.3949988
  24.4560012 136.3344997 110.1799988  24.8572240 136.9294422 110.6709864
  32.6360012 137.0174997 109.2149988  33.2820012 136.6884997 109.8389988
  33.1460012 137.5354997 108.5919988  32.7934299 137.0424450 109.2162731
  21.5340012 139.2834997 111.5759988  22.1870012 138.7334997 112.0079988
  21.5580012 139.0094997 110.6589988  21.6266683 139.1711466 111.5112123
  26.6900012 140.8334997 110.7909988  27.3060012 140.3074997 111.3009988
  26.1040012 140.1934997 110.3879988  26.6950810 140.6749208 110.8063173
  37.6720012 137.4704997 116.3099988  36.9840012 138.1284997 116.2149988
  37.6880012 137.2734997 117.2469988  37.5799540 137.5339819 116.4235990
  23.7240012 135.8044997 114.8879988  23.5050012 136.3344997 114.1219988
  23.0560012 136.0314997 115.5349988  23.6037600 135.9076906 114.8706379
  26.2930012 143.4804997 115.1749988  25.5530012 144.0784997 115.2789988
  27.0070012 144.0344997 114.8599988  26.2882237 143.6372831 115.1466465
  34.4000012 136.3084997 111.1949988  34.1840012 135.5424997 111.7279988
  35.0550012 136.7804997 111.7079988  34.4590632 136.2675889 111.3372861
  23.3170012 137.6964997 112.8399988  23.9310012 138.3294997 113.2129988
  23.8290012 137.2244997 112.1839988  23.4701981 137.7192267 112.8022908
  34.7470012 135.0234997 114.8749988  34.0110012 135.6344997 114.8369988
  35.4300012 135.4384997 114.3479988  34.7386541 135.1631374 114.7985832
  27.7500012 133.1104997 112.3399988  27.6330012 132.1614997 112.2859988
  26.8950012 133.4424997 112.6139988  27.6184212 133.0255571 112.3696497
  35.5440012 144.9854997 117.0679988  35.6840012 144.3944997 116.3289988
  35.7110012 145.8584997 116.7119988  35.5857411 145.0225428 116.9186894
  30.0170012 141.9474997 106.8409988  29.3050012 142.4824997 106.4889988
  30.7080012 142.0034997 106.1809988  30.0130132 142.0282543 106.7036289
  37.3860012 141.3254997 115.1339988  36.7330012 142.0204997 115.2239988
  37.8510012 141.5354997 114.3249988  37.3595274 141.4490643 115.0368462
  33.4220012 142.1574997 107.7929988  32.6900012 142.3854997 108.3659988
  33.8700012 141.4434997 108.2469988  33.3822725 142.0922145 107.9328816
  33.3200012 140.3314997 116.8599988  33.4000012 141.0944997 117.4319988
  32.7180012 140.6104997 116.1699988  33.2495756 140.4737134 116.8450589
  25.0680012 142.7874997 109.6749988  24.7370012 142.4174997 108.8569988
  25.6560012 142.1174997 110.0219988  25.1021873 142.6461156 109.6098102
  25.4340012 141.5564997 113.3089988  26.0000012 141.6774997 112.5459988
  25.7530012 142.1934997 113.9469988  25.5545474 141.6592219 113.2909862
  32.2930012 141.3194997 105.4779988  32.8730012 141.4694997 106.2249988
  32.7070012 141.7904997 104.7539988  32.4282997 141.4036578 105.4824058
  23.2340012 142.1534997 117.2539988  23.3050012 142.8044997 117.9529988
  22.3440012 142.2564997 116.9189988  23.1233005 142.2565427 117.3043495
  35.9920012 133.0694997 105.2909988  35.0920012 133.2084997 105.5859988
  36.2440012 133.9004997 104.8889988  35.9028702 133.2009074 105.2770205
  24.0580012 141.8574997 107.2639988  23.7660012 142.6254997 106.7739988
  23.3840012 141.1974997 107.1019988  23.9268111 141.8735587 107.1748978
  20.1510012 144.2204997 116.0789988  19.6500012 144.1924997 115.2639988
  20.1560012 143.3144997 116.3889988  20.0830944 144.0942396 116.0093226
  35.2510012 139.1594997 119.1259988  34.8440012 139.6404997 118.4049988
  35.2920012 138.2544997 118.8179988  35.2008437 139.1029374 118.9856683
  25.0190012 134.0134997 113.1179988  24.1570012 133.9264997 112.7099988
  24.9960012 134.8694997 113.5459988  24.8980409 134.1172883 113.1200589
  29.6820012 133.7354997 116.4929988  30.1020012 133.3204997 117.2459988
  28.7490012 133.5574997 116.6099988  29.6133644 133.6545900 116.6119539
  33.0080012 137.4914997 117.3459988  32.4940012 137.3654997 118.1439988
  32.8530012 138.4034997 117.1019988  32.9166852 137.5976132 117.4222158
  33.7710012 142.3524997 103.1079988  33.8130012 142.1294997 102.1779988
  34.6200012 142.7514997 103.2969988  33.8915280 142.3759438 103.0063554
  29.3430012 136.2284997 103.7779988  29.0900012 136.2474997 104.7009988
  29.0870012 135.3564997 103.4759988  29.2737481 136.1132558 103.8636175
  25.1100012 138.9794997 114.2129988  24.4680012 138.9384997 114.9219988
  25.1470012 139.9054997 113.9749988  25.0270664 139.0991430 114.2779219
  25.1070012 139.2004997 109.1249988  24.2140012 138.8594997 109.0659988
  25.5570012 138.8234997 108.3689988  25.0458130 139.1029631 109.0147702
  30.6420012 139.6164997 107.9419988  30.2330012 140.4314997 107.6509988
  31.3630012 139.4764997 107.3279988  30.6834537 139.7092018 107.8191342
  29.7440012 139.7914997 119.4299988  29.1820012 139.0874997 119.7509988
  30.5710012 139.6714997 119.8979988  29.7787095 139.6787883 119.5372330
  31.6470012 139.0624997 110.7559988  31.4520012 139.6674997 110.0409988
  31.8280012 138.2284997 110.3219988  31.6447614 139.0326300 110.5994405
  22.8600012 139.2994997 116.0799988  22.8220012 139.6994997 116.9489988
  22.3690012 138.4824997 116.1709988  22.7884684 139.2438069 116.2111059
  26.2260012 136.6734997 102.8789988  25.7950012 136.2284997 103.6089988
  25.5080012 137.0454997 102.3669988  26.0699438 136.6628940 102.9096799
  19.4680012 136.4154997 109.9309988  20.0990012 136.3864997 110.6499988
  19.9170012 135.9904997 109.1999988  19.6150918 136.3540836 109.9306441
  20.7420012 137.1614997 105.3549988  21.2160012 137.7524997 104.7699988
  20.0250012 137.6924997 105.7019988  20.7099341 137.3140867 105.3218836
  30.9110012 140.7004997 115.4269988  31.2340012 140.0694997 114.7839988
  30.4710012 140.1654997 116.0879988  30.8957484 140.5418387 115.4283198
  27.6880012 136.6274997 110.2109988  26.7770012 136.6844997 110.4999988
  28.1940012 136.5674997 111.0219988  27.6316899 136.6271941 110.3601184
  22.5170012 138.2564997 109.0379988  21.6270012 138.3564997 108.6979988
  22.8130012 137.4144997 108.6919988  22.4352823 138.1563545 108.9447213
  26.1700012 138.2564997 106.6949988  27.1010012 138.3854997 106.8729988
  25.9550012 138.9264997 106.0449988  26.2684247 138.3646565 106.6315747
  32.0930012 135.8624997 113.4759988  31.4170012 135.9934997 114.1399988
  31.6080012 135.7074997 112.6649988  31.9347146 135.8595157 113.4574469
  24.8440012 139.4514997 104.2609988  24.3010012 139.0714997 103.5699988
  25.6770012 139.6454997 103.8329988  24.8823631 139.4257125 104.1084501
  22.9790012 144.0084997 119.3599988  23.7110012 144.2624997 119.9219988
  22.1990012 144.2124997 119.8759988  22.9737073 144.0708160 119.5066151
  29.0080012 139.4154997 112.0979988  29.5730012 138.8684997 111.5509988
  28.8610012 138.8934997 112.8869988  29.0653380 139.2702259 112.1298695
  24.0100012 135.5514997 108.5169988  23.6930012 134.6494997 108.4809988
  24.7920012 135.5534997 107.9639988  24.0722408 135.4282474 108.4373569
  27.6350012 137.8034997 114.5119988  26.7990012 138.2574997 114.6229988
  28.1590012 138.0794997 115.2639988  27.5915416 137.9028660 114.6288119
  28.1790012 144.0164997 106.1969988  27.4340012 143.5094997 105.8749988
  28.0450012 144.0654997 107.1439988  28.0588776 143.9536940 106.2808647
  35.3290012 143.1494997 114.9839988  35.9710012 143.6064997 114.4399988
  34.4990012 143.2624997 114.5209988  35.3045963 143.2272704 114.8470177
  29.6980012 144.2004997 117.4339988  29.3530012 143.8194997 118.2409988
  29.4980012 145.1344997 117.5049988  29.6237527 144.2745135 117.5540689
  23.3040012 143.3114997 111.9669988  24.0490012 143.3094997 111.3659988
  23.3820012 142.4884997 112.4479988  23.4164995 143.1998887 111.9498282
  20.3120012 141.7724997 117.2819988  20.5350012 141.3544997 118.1139988
  19.7100012 141.1594997 116.8589988  20.2611759 141.6324668 117.3387022
  27.3280012 141.2894997 119.4949988  27.0320012 141.1234997 118.5999988
  28.2600012 141.0694997 119.4839988  27.4134166 141.2370640 119.3710536
  37.6800012 138.9074997 105.7519988  37.1260012 138.5114997 105.0799988
  37.7800012 139.8174997 105.4739988  37.6177059 138.9763586 105.6224401
  37.6430012 144.7074997 118.5889988  36.7920012 144.9454997 118.2219988
  38.2340012 144.6904997 117.8359988  37.6062487 144.7378258 118.4368893
  33.1360012 142.5014997 113.2379988  32.2070012 142.2694997 113.2109988
  33.5870012 141.7244997 112.9079988  33.0699216 142.3647238 113.1896917
  21.4340012 141.6914997 103.9579988  22.0500012 142.3184997 104.3379988
  20.5720012 142.0074997 104.2299988  21.4017698 141.8199430 104.0467183
  27.1060012 144.4924997 108.9469988  26.8650012 145.4174997 108.9889988
  26.3650012 144.0334997 109.3439988  26.9729225 144.5570933 109.0063742
  31.1650012 144.7404997 114.9629988  30.7390012 144.5134997 115.7899988
  31.7450012 144.0024997 114.7809988  31.1851868 144.6095299 115.0515830
  21.9460012 136.5254997 116.8399988  21.0530012 136.8644997 116.7719988
  21.8470012 135.6704997 117.2579988  21.8104164 136.4562588 116.8872235
  34.2340012 144.3424997 106.2639988  33.9560012 143.6144997 106.8199988
  35.1610012 144.4614997 106.4689988  34.3213124 144.2588802 106.3678845
  22.8490012 143.6044997 105.4509988  22.1630012 143.9564997 106.0179988
  23.3710012 144.3674997 105.2039988  22.8256852 143.7558578 105.4952118
  30.6800012 136.2664997 115.7299988  31.3790012 136.3404997 116.3799988
  30.2990012 135.4024997 115.8839988  30.7241767 136.1597624 115.8398322
  31.4650012 135.9184997 106.8269988  31.6850012 136.3904997 106.0239988
  32.0230012 136.3134997 107.4969988  31.5704968 136.0364285 106.8077331
  28.6650012 137.6464997 107.6619988  29.4770012 138.1514997 107.7079988
  28.4200012 137.5014997 108.5759988  28.7430520 137.6960375 107.7918517
  29.2000012 138.6324997 116.8459988  29.3190012 139.2064997 117.6039988
  29.8560012 137.9444997 116.9609988  29.3049025 138.6179858 116.9651321
  29.5480012 134.7274997 108.5999988  29.2020012 135.3454997 109.2439988
  30.2070012 135.2284997 108.1179988  29.5896968 134.8796278 108.6229383
  25.2060012 135.7904997 105.2869988  25.1230012 136.6794997 105.6339988
  26.0960012 135.5254997 105.5189988  25.3149469 135.8761430 105.3657626
  35.4050012 136.5394997 117.6809988  34.4880012 136.8024997 117.5939988
  35.7400012 136.5364997 116.7849988  35.3248613 136.5750761 117.5478837
  34.0070012 140.2904997 111.7769988  33.2090012 139.8754997 111.4489988
  34.4520012 139.5994997 112.2679988  33.9579885 140.1403543 111.7984889
  22.5890012 133.6644997 112.1369988  22.3600012 133.7234997 111.2089988
  22.1460012 132.8724997 112.4429988  22.4978530 133.5655753 112.0514786
  20.7140012 144.0274997 120.5809988  20.8580012 143.1254997 120.2949988
  19.9420012 144.3134997 120.0939988  20.6292753 143.9426816 120.4759505
  27.3700012 143.9974997 120.0139988  27.0410012 144.2684997 119.1569988
  27.5220012 143.0564997 119.9269988  27.3454809 143.9073862 119.8848244
  33.1040012 143.9134997 117.3969988  33.8500012 144.5014997 117.2779988
  32.3470012 144.4954997 117.4609988  33.1037820 144.0727143 117.3893590
  21.5470012 141.2274997 120.0009988  21.9550012 140.3704997 119.8799988
  21.2870012 141.2424997 120.9219988  21.5677568 141.1120807 120.1089588
  25.4940012 140.2364997 117.3759988  24.8760012 140.9114997 117.6559988
  25.8380012 140.5574997 116.5419988  25.4559132 140.3722411 117.3016262
  30.5140012 142.7084997 120.6529988  31.4670012 142.7914997 120.6259988
  30.3530012 141.9964997 121.2729988  30.6226426 142.6236746 120.7330579
  36.6660012 142.9414997 102.7279988  36.3920012 142.5164997 101.9149988
  36.7050012 143.8724997 102.5109988  36.6337699 143.0092484 102.5873610
  25.8330012 137.5914997 118.4579988  25.9830012 136.8624997 117.8559988
  25.8360012 138.3684997 117.8989988  25.8539302 137.5967851 118.3000692
  26.2460012 135.9614997 115.9509988  26.7820012 136.4124997 115.2989988
  25.3940012 135.8534997 115.5279988  26.2042178 136.0086390 115.8045756
  27.8280012 141.4004997 116.1899988  28.5780012 141.2444997 115.6169988
  27.4890012 142.2524997 115.9149988  27.8848921 141.4942968 116.0743561
  32.2430012 139.2154997 121.2189988  32.4360012 138.2844997 121.1069988
  33.1010012 139.6404997 121.2079988  32.3852934 139.1456531 121.2022031
  33.5600012 142.0044997 119.2959988  33.2790012 142.7134997 118.7179988
  34.5030012 141.9314997 119.1449988  33.6489291 142.0916711 119.1964967
  24.3120012 138.7894997 120.3699988  23.5450012 138.2574997 120.1589988
  24.9910012 138.4794997 119.7699988  24.2987877 138.6748300 120.2600716
  27.0520012 133.4174997 116.3819988  26.9530012 134.3644997 116.2769988
  26.3090012 133.0454997 115.9059988  26.9381184 133.4965863 116.3033621
  28.3160012 137.7394997 119.9459988  28.0800012 137.5194997 120.8469988
  27.5320012 137.5324997 119.4359988  28.1778504 137.6814586 120.0003431
  31.0310012 136.8664997 119.0209988  30.0840012 136.8984997 119.1539988
  31.3440012 136.2414997 119.6749988  30.9436707 136.7863998 119.1276060
  32.6650012 135.5004997 121.0269988  32.5690012 134.5484997 121.0209988
  32.3440012 135.7694997 121.8869988  32.6084070 135.4064035 121.1425441
  22.4920012 136.7104997 120.0739988  22.7040012 136.0034997 119.4639988
  22.3810012 136.2724997 120.9179988  22.5059721 136.5547084 120.1046843
  27.2730012 132.7114997 119.0529988  27.9850012 132.0714997 119.0389988
  27.1720012 132.9784997 118.1399988  27.3568066 132.6600079 118.9275677
  27.6270012 134.3944997 121.1069988  27.4950012 133.9184997 120.2869988
  27.0280012 135.1384997 121.0519988  27.5279071 134.4299618 120.9872886
  37.1240012 143.8104997 106.7029988  37.9740012 144.2314997 106.8299988
  37.1300012 143.0704997 107.3099988  37.2411372 143.7680803 106.8024344
  37.5190012 141.8634997 108.5259988  36.7920012 141.3844997 108.9239988
  38.1000012 142.0694997 109.2589988  37.4980473 141.8258103 108.6794528
  37.2780012 144.6484997 113.4739988  38.1110012 144.2704997 113.1939988
  37.3900012 145.5914997 113.3549988  37.4072647 144.7242218 113.4195487
  37.7870012 141.7644997 104.9179988  37.2650012 142.1214997 104.1989988
  37.7540012 142.4394997 105.5959988  37.7111634 141.9045413 104.9113145
  35.3050012 140.3844997 109.0889988  35.1550012 139.4394997 109.0689988
  34.9520012 140.6654997 109.9329988  35.2367448 140.2931481 109.2003705
  20.3410012 142.4624997 113.0999988  20.5250012 142.3804997 112.1639988
  21.1900012 142.3384997 113.5229988  20.4810151 142.4345073 113.0291451
  36.1620012 142.3544997 118.7279988  36.7450012 141.6204997 118.9199988
  36.7260012 143.1264997 118.7749988  36.3179769 142.3584227 118.7606159
  37.6580012 140.2574997 119.4129988  36.7950012 139.8784997 119.2469988
  38.2630012 139.5184997 119.3379988  37.6216119 140.1058268 119.3801528
  35.6280012 138.5484997 112.9879988  36.5610012 138.7604997 112.9529988
  35.3930012 138.6504997 113.9099988  35.7239244 138.5913100 113.1078892
  35.6570012 139.2854997 115.7639988  34.8140012 139.5534997 116.1299988
  36.0990012 140.1074997 115.5529988  35.6014158 139.4333291 115.7855491
  19.9380012 137.7334997 119.2409988  20.8580012 137.6114997 119.4769988
  19.4890012 136.9834997 119.6299988  20.0031580 137.6153727 119.3259006
  37.9400012 133.2654997 121.1169988  38.2900012 132.6114997 120.5119988
  38.0870012 134.1024997 120.6769988  38.0077887 133.2891548 120.9746858
  35.6290012 135.2304997 107.5999988  35.8120012 134.7814997 108.4259988
  35.0300012 134.6454997 107.1369988  35.5730202 135.0899975 107.6503275
  21.1590012 136.0454997 112.1319988  21.6050012 135.2534997 112.4339988
  21.6260012 136.7614997 112.5619988  21.2830831 136.0340685 112.2314006
  19.4630012 139.0444997 113.2009988  19.9550012 138.8234997 112.4099988
  19.8260012 139.8854997 113.4819988  19.5793126 139.1278357 113.1307531
  37.4600012 135.3744997 119.4659988  36.5420012 135.6454997 119.4309988
  37.5830012 134.8394997 118.6819988  37.3509729 135.3392508 119.3551923
  19.7770012 135.3024997 107.2549988  18.8520012 135.5114997 107.1259988
  20.2310012 135.7864997 106.5649988  19.7117292 135.3965343 107.1440720
  19.7410012 134.0404997 115.5989988  19.0760012 133.7944997 116.2429988
  19.2980012 134.6624997 115.0219988  19.5901318 134.0909410 115.6090898
  36.4600012 133.4644997 117.2849988  35.6480012 133.7894997 116.8979988
  36.6930012 132.7044997 116.7519988  36.3802203 133.4062758 117.1598880
  29.8900012 134.9134997 111.6079988  29.2160012 134.2844997 111.8639988
  30.4540012 134.4294997 111.0049988  29.8739230 134.7618744 111.5615340
  35.0330012 133.0214997 111.7209988  35.6370012 133.5684997 111.2189988
  34.1630012 133.3404997 111.4799988  34.9981208 133.1395137 111.6196886
  36.7600012 134.1594997 110.0539988  37.3720012 133.6454997 109.5269988
  37.1420012 135.0374997 110.0769988  36.8953371 134.2077866 109.9850041
  22.2170012 133.5474997 109.4299988  21.4400012 133.3134997 108.9229988
  22.7470012 132.7504997 109.4389988  22.1822330 133.4076988 109.3617742
  21.0530012 133.3454997 105.2339988  21.4920012 133.9564997 104.6419988
  20.4200012 133.8834997 105.7079988  21.0274514 133.5019257 105.2170930
  26.7960012 133.4744997 109.2439988  27.6710012 133.8624997 109.2139988
  26.6600012 133.2594997 110.1659988  26.8973695 133.4985184 109.3646440
  32.3530012 133.5044997 110.8929988  32.4290012 133.5994997 109.9429988
  32.0780012 132.5964997 111.0219988  32.3262321 133.3947867 110.7805079
  33.7060012 133.5304997 106.5849988  33.0040012 134.1454997 106.3749988
  33.2620012 132.6924997 106.7159988  33.5496450 133.5015639 106.5739000
  22.9140012 135.2614997 103.6759988  23.4060012 134.6314997 103.1489988
  23.5380012 135.5574997 104.3389988  23.0655688 135.2153804 103.6935482
  27.9400012 135.5544997 106.1329988  28.1180012 134.9084997 106.8159988
  27.8870012 136.3884997 106.5999988  27.9571999 135.5788009 106.2895917
  22.1750012 134.0614997 118.9479988  21.8090012 133.2964997 119.3899988
  23.0880012 134.0904997 119.2339988  22.2482736 133.9605640 119.0472502
  24.1480012 133.4124997 120.4839988  25.0460012 133.1384997 120.2989988
  23.7610012 132.6694997 120.9479988  24.2186612 133.2745914 120.5213643
  32.5690012 132.7444997 120.6659988  32.6460012 132.3184997 121.5199988
  33.4630012 132.7584997 120.3229988  32.7003428 132.6880880 120.7365310
  50.1510012 142.7034997 109.3889988  50.2400012 143.6474997 109.2569988
  49.5130012 142.4284997 108.7309988  50.0769081 142.7954830 109.2819614
  49.0840012 141.9584997 112.8079988  49.0460012 141.3124997 113.5129988
  48.7620012 141.4924997 112.0369988  49.0352333 141.8069408 112.8002978
  41.4530012 141.5734997 114.4009988  41.4940012 140.9474997 115.1239988
  42.1560012 142.1974997 114.5829988  41.5536363 141.5721196 114.5246044
  52.7900012 144.8974997 111.1089988  52.3500012 144.1774997 111.5599988
  52.7770012 145.6184997 111.7389988  52.7280226 144.8963731 111.2558494
  38.9860012 139.6834997 108.3289988  38.5390012 140.5294997 108.3099988
  38.4250012 139.1034997 107.8129988  38.8489900 139.7209916 108.2566801
  39.6970012 141.8454997 110.4539988  39.9100012 141.0754997 110.9819988
  40.4350012 141.9344997 109.8509988  39.8259044 141.7521968 110.4447123
  47.4740012 144.3914997 113.2139988  47.7780012 143.7054997 112.6189988
  48.1950012 144.5094997 113.8319988  47.6130671 144.3136305 113.2161816
  56.1370012 135.9924997 114.0749988  56.1860012 136.6024997 114.8099988
  56.5620012 136.4534997 113.3519988  56.2011746 136.1383796 114.0779175
  50.6150012 138.7854997 113.5409988  50.7570012 137.8394997 113.5619988
  50.5080012 138.9924997 112.6129988  50.6199919 138.6838246 113.4183408
  43.7690012 136.8864997 110.8139988  43.8130012 137.7464997 110.3949988
  43.3120012 136.3344997 110.1799988  43.7132240 136.9294422 110.6709864
  51.4920012 137.0174997 109.2149988  52.1380012 136.6884997 109.8389988
  52.0020012 137.5354997 108.5919988  51.6494299 137.0424450 109.2162731
  40.3900012 139.2834997 111.5759988  41.0430012 138.7334997 112.0079988
  40.4140012 139.0094997 110.6589988  40.4826683 139.1711466 111.5112123
  45.5460012 140.8334997 110.7909988  46.1620012 140.3074997 111.3009988
  44.9600012 140.1934997 110.3879988  45.5510810 140.6749208 110.8063173
  56.5280012 137.4704997 116.3099988  55.8400012 138.1284997 116.2149988
  56.5440012 137.2734997 117.2469988  56.4359540 137.5339819 116.4235990
  42.5800012 135.8044997 114.8879988  42.3610012 136.3344997 114.1219988
  41.9120012 136.0314997 115.5349988  42.4597600 135.9076906 114.8706379
  45.1490012 143.4804997 115.1749988  44.4090012 144.0784997 115.2789988
  45.8630012 144.0344997 114.8599988  45.1442237 143.6372831 115.1466465
  53.2560012 136.3084997 111.1949988  53.0400012 135.5424997 111.7279988
  53.9110012 136.7804997 111.7079988  53.3150632 136.2675889 111.3372861
  42.1730012 137.6964997 112.8399988  42.7870012 138.3294997 113.2129988
  42.6850012 137.2244997 112.1839988  42.3261981 137.7192267 112.8022908
  53.6030012 135.0234997 114.8749988  52.8670012 135.6344997 114.8369988
  54.2860012 135.4384997 114.3479988  53.5946541 135.1631374 114.7985832
  46.6060012 133.1104997 112.3399988  46.4890012 132.1614997 112.2859988
  45.7510012 133.4424997 112.6139988  46.4744212 133.0255571 112.3696497
  54.4000012 144.9854997 117.0679988  54.5400012 144.3944997 116.3289988
  54.5670012 145.8584997 116.7119988  54.4417411 145.0225428 116.9186894
  48.8730012 141.9474997 106.8409988  48.1610012 142.4824997 106.4889988
  49.5640012 142.0034997 106.1809988  48.8690132 142.0282543 106.7036289
  56.2420012 141.3254997 115.1339988  55.5890012 142.0204997 115.2239988
  56.7070012 141.5354997 114.3249988  56.2155274 141.4490643 115.0368462
  52.2780012 142.1574997 107.7929988  51.5460012 142.3854997 108.3659988
  52.7260012 141.4434997 108.2469988  52.2382725 142.0922145 107.9328816
  52.1760012 140.3314997 116.8599988  52.2560012 141.0944997 117.4319988
  51.5740012 140.6104997 116.1699988  52.1055756 140.4737134 116.8450589
  43.9240012 142.7874997 109.6749988  43.5930012 142.4174997 108.8569988
  44.5120012 142.1174997 110.0219988  43.9581873 142.6461156 109.6098102
  44.2900012 141.5564997 113.3089988  44.8560012 141.6774997 112.5459988
  44.6090012 142.1934997 113.9469988  44.4105474 141.6592219 113.2909862
  42.0900012 142.1534997 117.2539988  42.1610012 142.8044997 117.9529988
  41.2000012 142.2564997 116.9189988  41.9793005 142.2565427 117.3043495
  54.8480012 133.0694997 105.2909988  53.9480012 133.2084997 105.5859988
  55.1000012 133.9004997 104.8889988  54.7588702 133.2009074 105.2770205
  42.9140012 141.8574997 107.2639988  42.6220012 142.6254997 106.7739988
  42.2400012 141.1974997 107.1019988  42.7828111 141.8735587 107.1748978
  39.0070012 144.2204997 116.0789988  38.5060012 144.1924997 115.2639988
  39.0120012 143.3144997 116.3889988  38.9390944 144.0942396 116.0093226
  54.1070012 139.1594997 119.1259988  53.7000012 139.6404997 118.4049988
  54.1480012 138.2544997 118.8179988  54.0568437 139.1029374 118.9856683
  43.8750012 134.0134997 113.1179988  43.0130012 133.9264997 112.7099988
  43.8520012 134.8694997 113.5459988  43.7540409 134.1172883 113.1200589
  48.5380012 133.7354997 116.4929988  48.9580012 133.3204997 117.2459988
  47.6050012 133.5574997 116.6099988  48.4693644 133.6545900 116.6119539
  51.8640012 137.4914997 117.3459988  51.3500012 137.3654997 118.1439988
  51.7090012 138.4034997 117.1019988  51.7726852 137.5976132 117.4222158
  52.6270012 142.3524997 103.1079988  52.6690012 142.1294997 102.1779988
  53.4760012 142.7514997 103.2969988  52.7475280 142.3759438 103.0063554
  43.9660012 138.9794997 114.2129988  43.3240012 138.9384997 114.9219988
  44.0030012 139.9054997 113.9749988  43.8830664 139.0991430 114.2779219
  43.9630012 139.2004997 109.1249988  43.0700012 138.8594997 109.0659988
  44.4130012 138.8234997 108.3689988  43.9018130 139.1029631 109.0147702
  49.4980012 139.6164997 107.9419988  49.0890012 140.4314997 107.6509988
  50.2190012 139.4764997 107.3279988  49.5394537 139.7092018 107.8191342
  48.6000012 139.7914997 119.4299988  48.0380012 139.0874997 119.7509988
  49.4270012 139.6714997 119.8979988  48.6347095 139.6787883 119.5372330
  50.5030012 139.0624997 110.7559988  50.3080012 139.6674997 110.0409988
  50.6840012 138.2284997 110.3219988  50.5007614 139.0326300 110.5994405
  41.7160012 139.2994997 116.0799988  41.6780012 139.6994997 116.9489988
  41.2250012 138.4824997 116.1709988  41.6444684 139.2438069 116.2111059
  38.3240012 136.4154997 109.9309988  38.9550012 136.3864997 110.6499988
  38.7730012 135.9904997 109.1999988  38.4710918 136.3540836 109.9306441
  39.5980012 137.1614997 105.3549988  40.0720012 137.7524997 104.7699988
  38.8810012 137.6924997 105.7019988  39.5659341 137.3140867 105.3218836
  49.7670012 140.7004997 115.4269988  50.0900012 140.0694997 114.7839988
  49.3270012 140.1654997 116.0879988  49.7517484 140.5418387 115.4283198
  46.5440012 136.6274997 110.2109988  45.6330012 136.6844997 110.4999988
  47.0500012 136.5674997 111.0219988  46.4876899 136.6271941 110.3601184
  41.3730012 138.2564997 109.0379988  40.4830012 138.3564997 108.6979988
  41.6690012 137.4144997 108.6919988  41.2912823 138.1563546 108.9447213
  45.0260012 138.2564997 106.6949988  45.9570012 138.3854997 106.8729988
  44.8110012 138.9264997 106.0449988  45.1244247 138.3646565 106.6315747
  50.9490012 135.8624997 113.4759988  50.2730012 135.9934997 114.1399988
  50.4640012 135.7074997 112.6649988  50.7907146 135.8595157 113.4574469
  43.7000012 139.4514997 104.2609988  43.1570012 139.0714997 103.5699988
  44.5330012 139.6454997 103.8329988  43.7383631 139.4257125 104.1084501
  41.8350012 144.0084997 119.3599988  42.5670012 144.2624997 119.9219988
  41.0550012 144.2124997 119.8759988  41.8297073 144.0708160 119.5066151
  47.8640012 139.4154997 112.0979988  48.4290012 138.8684997 111.5509988
  47.7170012 138.8934997 112.8869988  47.9213380 139.2702259 112.1298695
  42.8660012 135.5514997 108.5169988  42.5490012 134.6494997 108.4809988
  43.6480012 135.5534997 107.9639988  42.9282408 135.4282474 108.4373569
  46.4910012 137.8034997 114.5119988  45.6550012 138.2574997 114.6229988
  47.0150012 138.0794997 115.2639988  46.4475416 137.9028660 114.6288119
  47.0350012 144.0164997 106.1969988  46.2900012 143.5094997 105.8749988
  46.9010012 144.0654997 107.1439988  46.9148776 143.9536940 106.2808647
  54.1850012 143.1494997 114.9839988  54.8270012 143.6064997 114.4399988
  53.3550012 143.2624997 114.5209988  54.1605963 143.2272704 114.8470177
  48.5540012 144.2004997 117.4339988  48.2090012 143.8194997 118.2409988
  48.3540012 145.1344997 117.5049988  48.4797527 144.2745135 117.5540689
  51.6510012 138.6974997 106.0569988  52.5430012 138.5604997 106.3759988
  51.7080012 139.4884997 105.5199988  51.7806504 138.7856052 106.0280818
  42.1600012 143.3114997 111.9669988  42.9050012 143.3094997 111.3659988
  42.2380012 142.4884997 112.4479988  42.2724995 143.1998887 111.9498282
  39.1680012 141.7724997 117.2819988  39.3910012 141.3544997 118.1139988
  38.5660012 141.1594997 116.8589988  39.1171759 141.6324668 117.3387022
  46.1840012 141.2894997 119.4949988  45.8880012 141.1234997 118.5999988
  47.1160012 141.0694997 119.4839988  46.2694166 141.2370640 119.3710536
  56.5360012 138.9074997 105.7519988  55.9820012 138.5114997 105.0799988
  56.6360012 139.8174997 105.4739988  56.4737059 138.9763586 105.6224401
  56.4990012 144.7074997 118.5889988  55.6480012 144.9454997 118.2219988
  57.0900012 144.6904997 117.8359988  56.4622487 144.7378258 118.4368893
  51.9920012 142.5014997 113.2379988  51.0630012 142.2694997 113.2109988
  52.4430012 141.7244997 112.9079988  51.9259216 142.3647238 113.1896917
  45.9620012 144.4924997 108.9469988  45.7210012 145.4174997 108.9889988
  45.2210012 144.0334997 109.3439988  45.8289225 144.5570933 109.0063742
  50.0210012 144.7404997 114.9629988  49.5950012 144.5134997 115.7899988
  50.6010012 144.0024997 114.7809988  50.0411868 144.6095299 115.0515830
  40.8020012 136.5254997 116.8399988  39.9090012 136.8644997 116.7719988
  40.7030012 135.6704997 117.2579988  40.6664164 136.4562588 116.8872235
  53.0900012 144.3424997 106.2639988  52.8120012 143.6144997 106.8199988
  54.0170012 144.4614997 106.4689988  53.1773124 144.2588802 106.3678845
  49.5360012 136.2664997 115.7299988  50.2350012 136.3404997 116.3799988
  49.1550012 135.4024997 115.8839988  49.5801767 136.1597624 115.8398322
  50.3210012 135.9184997 106.8269988  50.5410012 136.3904997 106.0239988
  50.8790012 136.3134997 107.4969988  50.4264968 136.0364285 106.8077331
  47.5210012 137.6464997 107.6619988  48.3330012 138.1514997 107.7079988
  47.2760012 137.5014997 108.5759988  47.5990520 137.6960375 107.7918517
  48.0560012 138.6324997 116.8459988  48.1750012 139.2064997 117.6039988
  48.7120012 137.9444997 116.9609988  48.1609025 138.6179858 116.9651321
  48.4040012 134.7274997 108.5999988  48.0580012 135.3454997 109.2439988
  49.0630012 135.2284997 108.1179988  48.4456968 134.8796278 108.6229383
  44.0620012 135.7904997 105.2869988  43.9790012 136.6794997 105.6339988
  44.9520012 135.5254997 105.5189988  44.1709469 135.8761430 105.3657626
  54.2610012 136.5394997 117.6809988  53.3440012 136.8024997 117.5939988
  54.5960012 136.5364997 116.7849988  54.1808613 136.5750761 117.5478837
  52.8630012 140.2904997 111.7769988  52.0650012 139.8754997 111.4489988
  53.3080012 139.5994997 112.2679988  52.8139885 140.1403543 111.7984889
  40.6370012 138.8824997 103.4639988  40.5920012 139.8214997 103.6419988
  39.7490012 138.6464997 103.1939988  40.5108574 138.9791892 103.4518912
  41.4450012 133.6644997 112.1369988  41.2160012 133.7234997 111.2089988
  41.0020012 132.8724997 112.4429988  41.3538530 133.5655753 112.0514786
  39.5700012 144.0274997 120.5809988  39.7140012 143.1254997 120.2949988
  38.7980012 144.3134997 120.0939988  39.4852753 143.9426816 120.4759505
  46.2260012 143.9974997 120.0139988  45.8970012 144.2684997 119.1569988
  46.3780012 143.0564997 119.9269988  46.2014809 143.9073862 119.8848244
  51.9600012 143.9134997 117.3969988  52.7060012 144.5014997 117.2779988
  51.2030012 144.4954997 117.4609988  51.9597820 144.0727143 117.3893590
  40.4030012 141.2274997 120.0009988  40.8110012 140.3704997 119.8799988
  40.1430012 141.2424997 120.9219988  40.4237568 141.1120807 120.1089588
  45.0610012 142.3434997 105.0199988  44.6010012 141.8594997 105.7059988
  45.3160012 141.6754997 104.3839988  45.0324902 142.1868731 105.0279334
  44.3500012 140.2364997 117.3759988  43.7320012 140.9114997 117.6559988
  44.6940012 140.5574997 116.5419988  44.3119132 140.3722411 117.3016262
  46.1320012 140.5864997 103.2819988  45.9520012 140.4324997 102.3549988
  47.0820012 140.6944997 103.3269988  46.2357776 140.5800175 103.1611843
  49.3700012 142.7084997 120.6529988  50.3230012 142.7914997 120.6259988
  49.2090012 141.9964997 121.2729988  49.4786426 142.6236746 120.7330579
  44.6890012 137.5914997 118.4579988  44.8390012 136.8624997 117.8559988
  44.6920012 138.3684997 117.8989988  44.7099302 137.5967851 118.3000692
  45.1020012 135.9614997 115.9509988  45.6380012 136.4124997 115.2989988
  44.2500012 135.8534997 115.5279988  45.0602178 136.0086390 115.8045756
  46.6840012 141.4004997 116.1899988  47.4340012 141.2444997 115.6169988
  46.3450012 142.2524997 115.9149988  46.7408921 141.4942968 116.0743561
  51.0990012 139.2154997 121.2189988  51.2920012 138.2844997 121.1069988
  51.9570012 139.6404997 121.2079988  51.2412934 139.1456531 121.2022031
  52.4160012 142.0044997 119.2959988  52.1350012 142.7134997 118.7179988
  53.3590012 141.9314997 119.1449988  52.5049291 142.0916711 119.1964967
  43.1680012 138.7894997 120.3699988  42.4010012 138.2574997 120.1589988
  43.8470012 138.4794997 119.7699988  43.1547877 138.6748300 120.2600716
  45.9080012 133.4174997 116.3819988  45.8090012 134.3644997 116.2769988
  45.1650012 133.0454997 115.9059988  45.7941184 133.4965863 116.3033621
  47.1720012 137.7394997 119.9459988  46.9360012 137.5194997 120.8469988
  46.3880012 137.5324997 119.4359988  47.0338504 137.6814586 120.0003431
  49.8870012 136.8664997 119.0209988  48.9400012 136.8984997 119.1539988
  50.2000012 136.2414997 119.6749988  49.7996707 136.7863998 119.1276060
  51.5210012 135.5004997 121.0269988  51.4250012 134.5484997 121.0209988
  51.2000012 135.7694997 121.8869988  51.4644070 135.4064035 121.1425441
  41.3480012 136.7104997 120.0739988  41.5600012 136.0034997 119.4639988
  41.2370012 136.2724997 120.9179988  41.3619721 136.5547084 120.1046843
  46.1290012 132.7114997 119.0529988  46.8410012 132.0714997 119.0389988
  46.0280012 132.9784997 118.1399988  46.2128066 132.6600079 118.9275677
  46.4830012 134.3944997 121.1069988  46.3510012 133.9184997 120.2869988
  45.8840012 135.1384997 121.0519988  46.3839071 134.4299618 120.9872886
  55.9800012 143.8104997 106.7029988  56.8300012 144.2314997 106.8299988
  55.9860012 143.0704997 107.3099988  56.0971372 143.7680803 106.8024344
  56.3750012 141.8634997 108.5259988  55.6480012 141.3844997 108.9239988
  56.9560012 142.0694997 109.2589988  56.3540473 141.8258103 108.6794528
  56.1340012 144.6484997 113.4739988  56.9670012 144.2704997 113.1939988
  56.2460012 145.5914997 113.3549988  56.2632647 144.7242218 113.4195487
  54.9920012 139.0044997 103.4679988  55.0880012 139.6714997 102.7879988
  54.8520012 138.1884997 102.9869988  54.9862272 138.9855655 103.3098347
  54.1610012 140.3844997 109.0889988  54.0110012 139.4394997 109.0689988
  53.8080012 140.6654997 109.9329988  54.0927448 140.2931481 109.2003705
  39.1970012 142.4624997 113.0999988  39.3810012 142.3804997 112.1639988
  40.0460012 142.3384997 113.5229988  39.3370151 142.4345073 113.0291451
  55.0180012 142.3544997 118.7279988  55.6010012 141.6204997 118.9199988
  55.5820012 143.1264997 118.7749988  55.1739769 142.3584227 118.7606159
  56.5140012 140.2574997 119.4129988  55.6510012 139.8784997 119.2469988
  57.1190012 139.5184997 119.3379988  56.4776119 140.1058268 119.3801528
  54.2390012 136.4124997 102.5859988  54.8500012 136.0414997 103.2229988
  53.4030012 135.9914997 102.7819988  54.2095032 136.3047554 102.6997035
  53.8720012 137.9674997 107.5519988  54.1520012 137.0604997 107.6759988
  54.6310012 138.4014997 107.1629988  54.0129277 137.9020942 107.5163682
  54.4840012 138.5484997 112.9879988  55.4170012 138.7604997 112.9529988
  54.2490012 138.6504997 113.9099988  54.5799244 138.5913100 113.1078892
  54.5130012 139.2854997 115.7639988  53.6700012 139.5534997 116.1299988
  54.9550012 140.1074997 115.5529988  54.4574158 139.4333291 115.7855491
  38.7940012 137.7334997 119.2409988  39.7140012 137.6114997 119.4769988
  38.3450012 136.9834997 119.6299988  38.8591580 137.6153727 119.3259006
  56.7960012 133.2654997 121.1169988  57.1460012 132.6114997 120.5119988
  56.9430012 134.1024997 120.6769988  56.8637887 133.2891548 120.9746858
  54.4850012 135.2304997 107.5999988  54.6680012 134.7814997 108.4259988
  53.8860012 134.6454997 107.1369988  54.4290202 135.0899975 107.6503275
  40.0150012 136.0454997 112.1319988  40.4610012 135.2534997 112.4339988
  40.4820012 136.7614997 112.5619988  40.1390831 136.0340685 112.2314006
  38.3190012 139.0444997 113.2009988  38.8110012 138.8234997 112.4099988
  38.6820012 139.8854997 113.4819988  38.4353126 139.1278357 113.1307531
  56.3160012 135.3744997 119.4659988  55.3980012 135.6454997 119.4309988
  56.4390012 134.8394997 118.6819988  56.2069729 135.3392508 119.3551923
  38.6330012 135.3024997 107.2549988  37.7080012 135.5114997 107.1259988
  39.0870012 135.7864997 106.5649988  38.5677292 135.3965343 107.1440720
  38.5970012 134.0404997 115.5989988  37.9320012 133.7944997 116.2429988
  38.1540012 134.6624997 115.0219988  38.4461318 134.0909410 115.6090898
  55.3160012 133.4644997 117.2849988  54.5040012 133.7894997 116.8979988
  55.5490012 132.7044997 116.7519988  55.2362203 133.4062758 117.1598880
  48.7460012 134.9134997 111.6079988  48.0720012 134.2844997 111.8639988
  49.3100012 134.4294997 111.0049988  48.7299230 134.7618744 111.5615340
  53.8890012 133.0214997 111.7209988  54.4930012 133.5684997 111.2189988
  53.0190012 133.3404997 111.4799988  53.8541208 133.1395137 111.6196886
  55.6160012 134.1594997 110.0539988  56.2280012 133.6454997 109.5269988
  55.9980012 135.0374997 110.0769988  55.7513371 134.2077866 109.9850041
  41.0730012 133.5474997 109.4299988  40.2960012 133.3134997 108.9229988
  41.6030012 132.7504997 109.4389988  41.0382330 133.4076988 109.3617742
  39.9090012 133.3454997 105.2339988  40.3480012 133.9564997 104.6419988
  39.2760012 133.8834997 105.7079988  39.8834514 133.5019257 105.2170930
  45.6520012 133.4744997 109.2439988  46.5270012 133.8624997 109.2139988
  45.5160012 133.2594997 110.1659988  45.7533695 133.4985184 109.3646440
  51.2090012 133.5044997 110.8929988  51.2850012 133.5994997 109.9429988
  50.9340012 132.5964997 111.0219988  51.1822321 133.3947867 110.7805079
  52.5620012 133.5304997 106.5849988  51.8600012 134.1454997 106.3749988
  52.1180012 132.6924997 106.7159988  52.4056450 133.5015639 106.5739000
  46.7960012 135.5544997 106.1329988  46.9740012 134.9084997 106.8159988
  46.7430012 136.3884997 106.5999988  46.8131999 135.5788009 106.2895917
  41.0310012 134.0614997 118.9479988  40.6650012 133.2964997 119.3899988
  41.9440012 134.0904997 119.2339988  41.1042736 133.9605640 119.0472502
  43.0040012 133.4124997 120.4839988  43.9020012 133.1384997 120.2989988
  42.6170012 132.6694997 120.9479988  43.0746612 133.2745914 120.5213643
  51.4250012 132.7444997 120.6659988  51.5020012 132.3184997 121.5199988
  52.3190012 132.7584997 120.3229988  51.5563428 132.6880880 120.7365310
  69.0070012 142.7034997 109.3889988  69.0960012 143.6474997 109.2569988
  68.3690012 142.4284997 108.7309988  68.9329081 142.7954830 109.2819614
  67.9400012 141.9584997 112.8079988  67.9020012 141.3124997 113.5129988
  67.6180012 141.4924997 112.0369988  67.8912333 141.8069408 112.8002978
  60.3090012 141.5734997 114.4009988  60.3500012 140.9474997 115.1239988
  61.0120012 142.1974997 114.5829988  60.4096363 141.5721196 114.5246044
  71.6460012 144.8974997 111.1089988  71.2060012 144.1774997 111.5599988
  71.6330012 145.6184997 111.7389988  71.5840226 144.8963731 111.2558494
  57.8420012 139.6834997 108.3289988  57.3950012 140.5294997 108.3099988
  57.2810012 139.1034997 107.8129988  57.7049900 139.7209916 108.2566801
  58.5530012 141.8454997 110.4539988  58.7660012 141.0754997 110.9819988
  59.2910012 141.9344997 109.8509988  58.6819044 141.7521968 110.4447123
  66.3300012 144.3914997 113.2139988  66.6340012 143.7054997 112.6189988
  67.0510012 144.5094997 113.8319988  66.4690671 144.3136305 113.2161816
  74.9930012 135.9924997 114.0749988  75.0420012 136.6024997 114.8099988
  75.4180012 136.4534997 113.3519988  75.0571746 136.1383796 114.0779175
  69.4710012 138.7854997 113.5409988  69.6130012 137.8394997 113.5619988
  69.3640012 138.9924997 112.6129988  69.4759919 138.6838246 113.4183408
  62.6250012 136.8864997 110.8139988  62.6690012 137.7464997 110.3949988
  62.1680012 136.3344997 110.1799988  62.5692240 136.9294422 110.6709864
  70.3480012 137.0174997 109.2149988  70.9940012 136.6884997 109.8389988
  70.8580012 137.5354997 108.5919988  70.5054299 137.0424450 109.2162731
  59.2460012 139.2834997 111.5759988  59.8990012 138.7334997 112.0079988
  59.2700012 139.0094997 110.6589988  59.3386683 139.1711466 111.5112123
  64.4020012 140.8334997 110.7909988  65.0180012 140.3074997 111.3009988
  63.8160012 140.1934997 110.3879988  64.4070810 140.6749208 110.8063173
  75.3840012 137.4704997 116.3099988  74.6960012 138.1284997 116.2149988
  75.4000012 137.2734997 117.2469988  75.2919540 137.5339819 116.4235990
  61.4360012 135.8044997 114.8879988  61.2170012 136.3344997 114.1219988
  60.7680012 136.0314997 115.5349988  61.3157600 135.9076906 114.8706379
  64.0050012 143.4804997 115.1749988  63.2650012 144.0784997 115.2789988
  64.7190012 144.0344997 114.8599988  64.0002237 143.6372831 115.1466465
  72.1120012 136.3084997 111.1949988  71.8960012 135.5424997 111.7279988
  72.7670012 136.7804997 111.7079988  72.1710632 136.2675889 111.3372861
  61.0290012 137.6964997 112.8399988  61.6430012 138.3294997 113.2129988
  61.5410012 137.2244997 112.1839988  61.1821981 137.7192267 112.8022908
  72.4590012 135.0234997 114.8749988  71.7230012 135.6344997 114.8369988
  73.1420012 135.4384997 114.3479988  72.4506541 135.1631374 114.7985832
  65.4620012 133.1104997 112.3399988  65.3450012 132.1614997 112.2859988
  64.6070012 133.4424997 112.6139988  65.3304212 133.0255571 112.3696497
  73.2560012 144.9854997 117.0679988  73.3960012 144.3944997 116.3289988
  73.4230012 145.8584997 116.7119988  73.2977411 145.0225428 116.9186894
  67.7290012 141.9474997 106.8409988  67.0170012 142.4824997 106.4889988
  68.4200012 142.0034997 106.1809988  67.7250132 142.0282543 106.7036289
  67.7820012 140.4054997 103.8799988  68.4830012 140.4274997 104.5309988
  68.0850012 139.7774997 103.2229988  67.9188133 140.3237070 103.8803369
  75.0980012 141.3254997 115.1339988  74.4450012 142.0204997 115.2239988
  75.5630012 141.5354997 114.3249988  75.0715274 141.4490643 115.0368462
  71.1340012 142.1574997 107.7929988  70.4020012 142.3854997 108.3659988
  71.5820012 141.4434997 108.2469988  71.0942725 142.0922145 107.9328816
  71.0320012 140.3314997 116.8599988  71.1120012 141.0944997 117.4319988
  70.4300012 140.6104997 116.1699988  70.9615756 140.4737134 116.8450589
  62.7800012 142.7874997 109.6749988  62.4490012 142.4174997 108.8569988
  63.3680012 142.1174997 110.0219988  62.8141873 142.6461156 109.6098102
  63.1460012 141.5564997 113.3089988  63.7120012 141.6774997 112.5459988
  63.4650012 142.1934997 113.9469988  63.2665474 141.6592219 113.2909862
  70.0050012 141.3194997 105.4779988  70.5850012 141.4694997 106.2249988
  70.4190012 141.7904997 104.7539988  70.1402997 141.4036578 105.4824058
  60.9460012 142.1534997 117.2539988  61.0170012 142.8044997 117.9529988
  60.0560012 142.2564997 116.9189988  60.8353005 142.2565427 117.3043495
  61.7700012 141.8574997 107.2639988  61.4780012 142.6254997 106.7739988
  61.0960012 141.1974997 107.1019988  61.6388111 141.8735587 107.1748978
  57.8630012 144.2204997 116.0789988  57.3620012 144.1924997 115.2639988
  57.8680012 143.3144997 116.3889988  57.7950944 144.0942396 116.0093226
  72.9630012 139.1594997 119.1259988  72.5560012 139.6404997 118.4049988
  73.0040012 138.2544997 118.8179988  72.9128437 139.1029374 118.9856683
  62.7310012 134.0134997 113.1179988  61.8690012 133.9264997 112.7099988
  62.7080012 134.8694997 113.5459988  62.6100409 134.1172883 113.1200589
  67.3940012 133.7354997 116.4929988  67.8140012 133.3204997 117.2459988
  66.4610012 133.5574997 116.6099988  67.3253644 133.6545900 116.6119539
  70.7200012 137.4914997 117.3459988  70.2060012 137.3654997 118.1439988
  70.5650012 138.4034997 117.1019988  70.6286852 137.5976132 117.4222158
  62.8220012 138.9794997 114.2129988  62.1800012 138.9384997 114.9219988
  62.8590012 139.9054997 113.9749988  62.7390664 139.0991430 114.2779219
  62.8190012 139.2004997 109.1249988  61.9260012 138.8594997 109.0659988
  63.2690012 138.8234997 108.3689988  62.7578130 139.1029631 109.0147702
  68.3540012 139.6164997 107.9419988  67.9450012 140.4314997 107.6509988
  69.0750012 139.4764997 107.3279988  68.3954537 139.7092018 107.8191342
  67.4560012 139.7914997 119.4299988  66.8940012 139.0874997 119.7509988
  68.2830012 139.6714997 119.8979988  67.4907095 139.6787883 119.5372330
  69.3590012 139.0624997 110.7559988  69.1640012 139.6674997 110.0409988
  69.5400012 138.2284997 110.3219988  69.3567614 139.0326300 110.5994405
  60.5720012 139.2994997 116.0799988  60.5340012 139.6994997 116.9489988
  60.0810012 138.4824997 116.1709988  60.5004684 139.2438069 116.2111059
  57.1800012 136.4154997 109.9309988  57.8110012 136.3864997 110.6499988
  57.6290012 135.9904997 109.1999988  57.3270918 136.3540836 109.9306441
  68.6230012 140.7004997 115.4269988  68.9460012 140.0694997 114.7839988
  68.1830012 140.1654997 116.0879988  68.6077484 140.5418387 115.4283198
  65.4000012 136.6274997 110.2109988  64.4890012 136.6844997 110.4999988
  65.9060012 136.5674997 111.0219988  65.3436899 136.6271941 110.3601184
  60.2290012 138.2564997 109.0379988  59.3390012 138.3564997 108.6979988
  60.5250012 137.4144997 108.6919988  60.1472823 138.1563545 108.9447213
  69.8050012 135.8624997 113.4759988  69.1290012 135.9934997 114.1399988
  69.3200012 135.7074997 112.6649988  69.6467146 135.8595157 113.4574469
  60.6910012 144.0084997 119.3599988  61.4230012 144.2624997 119.9219988
  59.9110012 144.2124997 119.8759988  60.6857073 144.0708160 119.5066151
  66.7200012 139.4154997 112.0979988  67.2850012 138.8684997 111.5509988
  66.5730012 138.8934997 112.8869988  66.7773380 139.2702259 112.1298695
  61.7220012 135.5514997 108.5169988  61.4050012 134.6494997 108.4809988
  62.5040012 135.5534997 107.9639988  61.7842408 135.4282474 108.4373569
  65.3470012 137.8034997 114.5119988  64.5110012 138.2574997 114.6229988
  65.8710012 138.0794997 115.2639988  65.3035416 137.9028660 114.6288119
  65.8910012 144.0164997 106.1969988  65.1460012 143.5094997 105.8749988
  65.7570012 144.0654997 107.1439988  65.7708776 143.9536940 106.2808647
  73.0410012 143.1494997 114.9839988  73.6830012 143.6064997 114.4399988
  72.2110012 143.2624997 114.5209988  73.0165963 143.2272704 114.8470177
  67.4100012 144.2004997 117.4339988  67.0650012 143.8194997 118.2409988
  67.2100012 145.1344997 117.5049988  67.3357527 144.2745135 117.5540689
  70.5070012 138.6974997 106.0569988  71.3990012 138.5604997 106.3759988
  70.5640012 139.4884997 105.5199988  70.6366504 138.7856052 106.0280818
  61.0160012 143.3114997 111.9669988  61.7610012 143.3094997 111.3659988
  61.0940012 142.4884997 112.4479988  61.1284995 143.1998887 111.9498282
  58.0240012 141.7724997 117.2819988  58.2470012 141.3544997 118.1139988
  57.4220012 141.1594997 116.8589988  57.9731759 141.6324668 117.3387022
  65.0400012 141.2894997 119.4949988  64.7440012 141.1234997 118.5999988
  65.9720012 141.0694997 119.4839988  65.1254166 141.2370640 119.3710536
  75.3920012 138.9074997 105.7519988  74.8380012 138.5114997 105.0799988
  75.4920012 139.8174997 105.4739988  75.3297059 138.9763586 105.6224401
  75.3550012 144.7074997 118.5889988  74.5040012 144.9454997 118.2219988
  75.9460012 144.6904997 117.8359988  75.3182487 144.7378258 118.4368893
  70.8480012 142.5014997 113.2379988  69.9190012 142.2694997 113.2109988
  71.2990012 141.7244997 112.9079988  70.7819216 142.3647238 113.1896917
  64.8180012 144.4924997 108.9469988  64.5770012 145.4174997 108.9889988
  64.0770012 144.0334997 109.3439988  64.6849225 144.5570933 109.0063742
  68.8770012 144.7404997 114.9629988  68.4510012 144.5134997 115.7899988
  69.4570012 144.0024997 114.7809988  68.8971868 144.6095299 115.0515830
  59.6580012 136.5254997 116.8399988  58.7650012 136.8644997 116.7719988
  59.5590012 135.6704997 117.2579988  59.5224164 136.4562588 116.8872235
  71.9460012 144.3424997 106.2639988  71.6680012 143.6144997 106.8199988
  72.8730012 144.4614997 106.4689988  72.0333124 144.2588802 106.3678845
  60.5610012 143.6044997 105.4509988  59.8750012 143.9564997 106.0179988
  61.0830012 144.3674997 105.2039988  60.5376852 143.7558578 105.4952118
  68.3920012 136.2664997 115.7299988  69.0910012 136.3404997 116.3799988
  68.0110012 135.4024997 115.8839988  68.4361767 136.1597624 115.8398322
  69.1770012 135.9184997 106.8269988  69.3970012 136.3904997 106.0239988
  69.7350012 136.3134997 107.4969988  69.2824968 136.0364285 106.8077331
  66.3770012 137.6464997 107.6619988  67.1890012 138.1514997 107.7079988
  66.1320012 137.5014997 108.5759988  66.4550520 137.6960375 107.7918517
  66.9120012 138.6324997 116.8459988  67.0310012 139.2064997 117.6039988
  67.5680012 137.9444997 116.9609988  67.0169025 138.6179858 116.9651321
  67.2600012 134.7274997 108.5999988  66.9140012 135.3454997 109.2439988
  67.9190012 135.2284997 108.1179988  67.3016968 134.8796278 108.6229383
  73.1170012 136.5394997 117.6809988  72.2000012 136.8024997 117.5939988
  73.4520012 136.5364997 116.7849988  73.0368613 136.5750761 117.5478837
  71.7190012 140.2904997 111.7769988  70.9210012 139.8754997 111.4489988
  72.1640012 139.5994997 112.2679988  71.6699885 140.1403543 111.7984889
  60.3010012 133.6644997 112.1369988  60.0720012 133.7234997 111.2089988
  59.8580012 132.8724997 112.4429988  60.2098530 133.5655753 112.0514786
  58.4260012 144.0274997 120.5809988  58.5700012 143.1254997 120.2949988
  57.6540012 144.3134997 120.0939988  58.3412753 143.9426816 120.4759505
  62.7680012 144.3714997 102.7139988  62.8320012 143.5774997 103.2449988
  63.4210012 144.2524997 102.0239988  62.8650241 144.2467148 102.6934317
  65.0820012 143.9974997 120.0139988  64.7530012 144.2684997 119.1569988
  65.2340012 143.0564997 119.9269988  65.0574809 143.9073862 119.8848244
  70.8160012 143.9134997 117.3969988  71.5620012 144.5014997 117.2779988
  70.0590012 144.4954997 117.4609988  70.8157820 144.0727143 117.3893590
  59.2590012 141.2274997 120.0009988  59.6670012 140.3704997 119.8799988
  58.9990012 141.2424997 120.9219988  59.2797568 141.1120807 120.1089588
  63.9170012 142.3434997 105.0199988  63.4570012 141.8594997 105.7059988
  64.1720012 141.6754997 104.3839988  63.8884902 142.1868731 105.0279334
  63.2060012 140.2364997 117.3759988  62.5880012 140.9114997 117.6559988
  63.5500012 140.5574997 116.5419988  63.1679132 140.3722411 117.3016262
  68.2260012 142.7084997 120.6529988  69.1790012 142.7914997 120.6259988
  68.0650012 141.9964997 121.2729988  68.3346426 142.6236746 120.7330579
  63.5450012 137.5914997 118.4579988  63.6950012 136.8624997 117.8559988
  63.5480012 138.3684997 117.8989988  63.5659302 137.5967851 118.3000692
  63.9580012 135.9614997 115.9509988  64.4940012 136.4124997 115.2989988
  63.1060012 135.8534997 115.5279988  63.9162178 136.0086390 115.8045756
  65.5400012 141.4004997 116.1899988  66.2900012 141.2444997 115.6169988
  65.2010012 142.2524997 115.9149988  65.5968921 141.4942968 116.0743561
  69.9550012 139.2154997 121.2189988  70.1480012 138.2844997 121.1069988
  70.8130012 139.6404997 121.2079988  70.0972934 139.1456531 121.2022031
  71.2720012 142.0044997 119.2959988  70.9910012 142.7134997 118.7179988
  72.2150012 141.9314997 119.1449988  71.3609291 142.0916711 119.1964967
  62.0240012 138.7894997 120.3699988  61.2570012 138.2574997 120.1589988
  62.7030012 138.4794997 119.7699988  62.0107877 138.6748300 120.2600716
  64.7640012 133.4174997 116.3819988  64.6650012 134.3644997 116.2769988
  64.0210012 133.0454997 115.9059988  64.6501184 133.4965863 116.3033621
  66.0280012 137.7394997 119.9459988  65.7920012 137.5194997 120.8469988
  65.2440012 137.5324997 119.4359988  65.8898504 137.6814586 120.0003431
  68.7430012 136.8664997 119.0209988  67.7960012 136.8984997 119.1539988
  69.0560012 136.2414997 119.6749988  68.6556707 136.7863998 119.1276060
  70.3770012 135.5004997 121.0269988  70.2810012 134.5484997 121.0209988
  70.0560012 135.7694997 121.8869988  70.3204070 135.4064035 121.1425441
  60.2040012 136.7104997 120.0739988  60.4160012 136.0034997 119.4639988
  60.0930012 136.2724997 120.9179988  60.2179721 136.5547084 120.1046843
  64.9850012 132.7114997 119.0529988  65.6970012 132.0714997 119.0389988
  64.8840012 132.9784997 118.1399988  65.0688066 132.6600079 118.9275677
  65.3390012 134.3944997 121.1069988  65.2070012 133.9184997 120.2869988
  64.7400012 135.1384997 121.0519988  65.2399071 134.4299618 120.9872886
  74.8360012 143.8104997 106.7029988  75.6860012 144.2314997 106.8299988
  74.8420012 143.0704997 107.3099988  74.9531372 143.7680803 106.8024344
  75.2310012 141.8634997 108.5259988  74.5040012 141.3844997 108.9239988
  75.8120012 142.0694997 109.2589988  75.2100473 141.8258103 108.6794528
  74.9900012 144.6484997 113.4739988  75.8230012 144.2704997 113.1939988
  75.1020012 145.5914997 113.3549988  75.1192647 144.7242218 113.4195487
  75.4990012 141.7644997 104.9179988  74.9770012 142.1214997 104.1989988
  75.4660012 142.4394997 105.5959988  75.4231634 141.9045413 104.9113145
  73.0170012 140.3844997 109.0889988  72.8670012 139.4394997 109.0689988
  72.6640012 140.6654997 109.9329988  72.9487448 140.2931481 109.2003705
  58.0530012 142.4624997 113.0999988  58.2370012 142.3804997 112.1639988
  58.9020012 142.3384997 113.5229988  58.1930151 142.4345073 113.0291451
  73.8740012 142.3544997 118.7279988  74.4570012 141.6204997 118.9199988
  74.4380012 143.1264997 118.7749988  74.0299769 142.3584227 118.7606159
  75.3700012 140.2574997 119.4129988  74.5070012 139.8784997 119.2469988
  75.9750012 139.5184997 119.3379988  75.3336119 140.1058268 119.3801528
  72.7280012 137.9674997 107.5519988  73.0080012 137.0604997 107.6759988
  73.4870012 138.4014997 107.1629988  72.8689277 137.9020942 107.5163682
  73.3400012 138.5484997 112.9879988  74.2730012 138.7604997 112.9529988
  73.1050012 138.6504997 113.9099988  73.4359244 138.5913100 113.1078892
  73.3690012 139.2854997 115.7639988  72.5260012 139.5534997 116.1299988
  73.8110012 140.1074997 115.5529988  73.3134158 139.4333291 115.7855491
  57.6500012 137.7334997 119.2409988  58.5700012 137.6114997 119.4769988
  57.2010012 136.9834997 119.6299988  57.7151580 137.6153727 119.3259006
  75.6520012 133.2654997 121.1169988  76.0020012 132.6114997 120.5119988
  75.7990012 134.1024997 120.6769988  75.7197887 133.2891548 120.9746858
  73.3410012 135.2304997 107.5999988  73.5240012 134.7814997 108.4259988
  72.7420012 134.6454997 107.1369988  73.2850202 135.0899975 107.6503275
  58.8710012 136.0454997 112.1319988  59.3170012 135.2534997 112.4339988
  59.3380012 136.7614997 112.5619988  58.9950831 136.0340685 112.2314006
  57.1750012 139.0444997 113.2009988  57.6670012 138.8234997 112.4099988
  57.5380012 139.8854997 113.4819988  57.2913126 139.1278357 113.1307531
  75.1720012 135.3744997 119.4659988  74.2540012 135.6454997 119.4309988
  75.2950012 134.8394997 118.6819988  75.0629729 135.3392508 119.3551923
  75.2080012 135.2974997 104.1279988  75.6200012 134.5764997 103.6529988
  75.8900012 135.9674997 104.1869988  75.3565885 135.2892368 104.0708915
  57.4890012 135.3024997 107.2549988  56.5640012 135.5114997 107.1259988
  57.9430012 135.7864997 106.5649988  57.4237292 135.3965343 107.1440720
  57.4530012 134.0404997 115.5989988  56.7880012 133.7944997 116.2429988
  57.0100012 134.6624997 115.0219988  57.3021318 134.0909410 115.6090898
  74.1720012 133.4644997 117.2849988  73.3600012 133.7894997 116.8979988
  74.4050012 132.7044997 116.7519988  74.0922203 133.4062758 117.1598880
  67.6020012 134.9134997 111.6079988  66.9280012 134.2844997 111.8639988
  68.1660012 134.4294997 111.0049988  67.5859230 134.7618744 111.5615340
  72.7450012 133.0214997 111.7209988  73.3490012 133.5684997 111.2189988
  71.8750012 133.3404997 111.4799988  72.7101208 133.1395137 111.6196886
  74.4720012 134.1594997 110.0539988  75.0840012 133.6454997 109.5269988
  74.8540012 135.0374997 110.0769988  74.6073371 134.2077866 109.9850041
  59.9290012 133.5474997 109.4299988  59.1520012 133.3134997 108.9229988
  60.4590012 132.7504997 109.4389988  59.8942330 133.4076988 109.3617742
  58.7650012 133.3454997 105.2339988  59.2040012 133.9564997 104.6419988
  58.1320012 133.8834997 105.7079988  58.7394514 133.5019257 105.2170930
  64.5080012 133.4744997 109.2439988  65.3830012 133.8624997 109.2139988
  64.3720012 133.2594997 110.1659988  64.6093695 133.4985184 109.3646440
  70.0650012 133.5044997 110.8929988  70.1410012 133.5994997 109.9429988
  69.7900012 132.5964997 111.0219988  70.0382321 133.3947867 110.7805079
  59.8870012 134.0614997 118.9479988  59.5210012 133.2964997 119.3899988
  60.8000012 134.0904997 119.2339988  59.9602736 133.9605640 119.0472502
  61.8600012 133.4124997 120.4839988  62.7580012 133.1384997 120.2989988
  61.4730012 132.6694997 120.9479988  61.9306612 133.2745914 120.5213643
  70.2810012 132.7444997 120.6659988  70.3580012 132.3184997 121.5199988
  71.1750012 132.7584997 120.3229988  70.4123428 132.6880879 120.7365310
  87.8630012 142.7034997 109.3889988  87.9520012 143.6474997 109.2569988
  87.2250012 142.4284997 108.7309988  87.7889081 142.7954830 109.2819614
  86.7960012 141.9584997 112.8079988  86.7580012 141.3124997 113.5129988
  86.4740012 141.4924997 112.0369988  86.7472333 141.8069408 112.8002978
  79.1650012 141.5734997 114.4009988  79.2060012 140.9474997 115.1239988
  79.8680012 142.1974997 114.5829988  79.2656363 141.5721196 114.5246044
  90.5020012 144.8974997 111.1089988  90.0620012 144.1774997 111.5599988
  90.4890012 145.6184997 111.7389988  90.4400226 144.8963731 111.2558494
  76.6980012 139.6834997 108.3289988  76.2510012 140.5294997 108.3099988
  76.1370012 139.1034997 107.8129988  76.5609900 139.7209916 108.2566801
  77.4090012 141.8454997 110.4539988  77.6220012 141.0754997 110.9819988
  78.1470012 141.9344997 109.8509988  77.5379044 141.7521968 110.4447123
  85.1860012 144.3914997 113.2139988  85.4900012 143.7054997 112.6189988
  85.9070012 144.5094997 113.8319988  85.3250671 144.3136305 113.2161816
  93.8490012 135.9924997 114.0749988  93.8980012 136.6024997 114.8099988
  94.2740012 136.4534997 113.3519988  93.9131746 136.1383796 114.0779175
  88.3270012 138.7854997 113.5409988  88.4690012 137.8394997 113.5619988
  88.2200012 138.9924997 112.6129988  88.3319919 138.6838246 113.4183408
  81.4810012 136.8864997 110.8139988  81.5250012 137.7464997 110.3949988
  81.0240012 136.3344997 110.1799988  81.4252240 136.9294422 110.6709864
  89.2040012 137.0174997 109.2149988  89.8500012 136.6884997 109.8389988
  89.7140012 137.5354997 108.5919988  89.3614299 137.0424450 109.2162731
  78.1020012 139.2834997 111.5759988  78.7550012 138.7334997 112.0079988
  78.1260012 139.0094997 110.6589988  78.1946683 139.1711466 111.5112123
  83.2580012 140.8334997 110.7909988  83.8740012 140.3074997 111.3009988
  82.6720012 140.1934997 110.3879988  83.2630810 140.6749208 110.8063173
  94.2400012 137.4704997 116.3099988  93.5520012 138.1284997 116.2149988
  94.2560012 137.2734997 117.2469988  94.1479540 137.5339819 116.4235990
  80.2920012 135.8044997 114.8879988  80.0730012 136.3344997 114.1219988
  79.6240012 136.0314997 115.5349988  80.1717600 135.9076906 114.8706379
  82.8610012 143.4804997 115.1749988  82.1210012 144.0784997 115.2789988
  83.5750012 144.0344997 114.8599988  82.8562237 143.6372831 115.1466465
  90.9680012 136.3084997 111.1949988  90.7520012 135.5424997 111.7279988
  91.6230012 136.7804997 111.7079988  91.0270633 136.2675889 111.3372861
  79.8850012 137.6964997 112.8399988  80.4990012 138.3294997 113.2129988
  80.3970012 137.2244997 112.1839988  80.0381981 137.7192267 112.8022908
  91.3150012 135.0234997 114.8749988  90.5790012 135.6344997 114.8369988
  91.9980012 135.4384997 114.3479988  91.3066541 135.1631374 114.7985832
  84.3180012 133.1104997 112.3399988  84.2010012 132.1614997 112.2859988
  83.4630012 133.4424997 112.6139988  84.1864212 133.0255571 112.3696497
  92.1120012 144.9854997 117.0679988  92.2520012 144.3944997 116.3289988
  92.2790012 145.8584997 116.7119988  92.1537411 145.0225428 116.9186894
  86.5850012 141.9474997 106.8409988  85.8730012 142.4824997 106.4889988
  87.2760012 142.0034997 106.1809988  86.5810132 142.0282543 106.7036289
  86.6380012 140.4054997 103.8799988  87.3390012 140.4274997 104.5309988
  86.9410012 139.7774997 103.2229988  86.7748133 140.3237070 103.8803369
  93.9540012 141.3254997 115.1339988  93.3010012 142.0204997 115.2239988
  94.4190012 141.5354997 114.3249988  93.9275274 141.4490643 115.0368462
  89.9900012 142.1574997 107.7929988  89.2580012 142.3854997 108.3659988
  90.4380012 141.4434997 108.2469988  89.9502725 142.0922145 107.9328816
  89.8880012 140.3314997 116.8599988  89.9680012 141.0944997 117.4319988
  89.2860012 140.6104997 116.1699988  89.8175756 140.4737134 116.8450589
  81.6360012 142.7874997 109.6749988  81.3050012 142.4174997 108.8569988
  82.2240012 142.1174997 110.0219988  81.6701873 142.6461156 109.6098102
  82.0020012 141.5564997 113.3089988  82.5680012 141.6774997 112.5459988
  82.3210012 142.1934997 113.9469988  82.1225474 141.6592219 113.2909862
  88.8610012 141.3194997 105.4779988  89.4410012 141.4694997 106.2249988
  89.2750012 141.7904997 104.7539988  88.9962997 141.4036578 105.4824058
  79.8020012 142.1534997 117.2539988  79.8730012 142.8044997 117.9529988
  78.9120012 142.2564997 116.9189988  79.6913005 142.2565427 117.3043495
  80.6260012 141.8574997 107.2639988  80.3340012 142.6254997 106.7739988
  79.9520012 141.1974997 107.1019988  80.4948111 141.8735587 107.1748978
  76.7190012 144.2204997 116.0789988  76.2180012 144.1924997 115.2639988
  76.7240012 143.3144997 116.3889988  76.6510944 144.0942396 116.0093226
  91.8190012 139.1594997 119.1259988  91.4120012 139.6404997 118.4049988
  91.8600012 138.2544997 118.8179988  91.7688437 139.1029374 118.9856683
  81.5870012 134.0134997 113.1179988  80.7250012 133.9264997 112.7099988
  81.5640012 134.8694997 113.5459988  81.4660409 134.1172883 113.1200589
  86.2500012 133.7354997 116.4929988  86.6700012 133.3204997 117.2459988
  85.3170012 133.5574997 116.6099988  86.1813644 133.6545900 116.6119539
  89.5760012 137.4914997 117.3459988  89.0620012 137.3654997 118.1439988
  89.4210012 138.4034997 117.1019988  89.4846852 137.5976132 117.4222158
  81.6780012 138.9794997 114.2129988  81.0360012 138.9384997 114.9219988
  81.7150012 139.9054997 113.9749988  81.5950664 139.0991430 114.2779219
  81.6750012 139.2004997 109.1249988  80.7820012 138.8594997 109.0659988
  82.1250012 138.8234997 108.3689988  81.6138130 139.1029631 109.0147702
  87.2100012 139.6164997 107.9419988  86.8010012 140.4314997 107.6509988
  87.9310012 139.4764997 107.3279988  87.2514537 139.7092018 107.8191342
  86.3120012 139.7914997 119.4299988  85.7500012 139.0874997 119.7509988
  87.1390012 139.6714997 119.8979988  86.3467095 139.6787883 119.5372330
  88.2150012 139.0624997 110.7559988  88.0200012 139.6674997 110.0409988
  88.3960012 138.2284997 110.3219988  88.2127614 139.0326300 110.5994405
  79.4280012 139.2994997 116.0799988  79.3900012 139.6994997 116.9489988
  78.9370012 138.4824997 116.1709988  79.3564684 139.2438069 116.2111059
  76.0360012 136.4154997 109.9309988  76.6670012 136.3864997 110.6499988
  76.4850012 135.9904997 109.1999988  76.1830918 136.3540836 109.9306441
  87.4790012 140.7004997 115.4269988  87.8020012 140.0694997 114.7839988
  87.0390012 140.1654997 116.0879988  87.4637484 140.5418387 115.4283198
  84.2560012 136.6274997 110.2109988  83.3450012 136.6844997 110.4999988
  84.7620012 136.5674997 111.0219988  84.1996899 136.6271941 110.3601184
  79.0850012 138.2564997 109.0379988  78.1950012 138.3564997 108.6979988
  79.3810012 137.4144997 108.6919988  79.0032823 138.1563545 108.9447213
  82.7380012 138.2564997 106.6949988  83.6690012 138.3854997 106.8729988
  82.5230012 138.9264997 106.0449988  82.8364247 138.3646565 106.6315747
  88.6610012 135.8624997 113.4759988  87.9850012 135.9934997 114.1399988
  88.1760012 135.7074997 112.6649988  88.5027146 135.8595157 113.4574469
  79.5470012 144.0084997 119.3599988  80.2790012 144.2624997 119.9219988
  78.7670012 144.2124997 119.8759988  79.5417073 144.0708160 119.5066151
  85.5760012 139.4154997 112.0979988  86.1410012 138.8684997 111.5509988
  85.4290012 138.8934997 112.8869988  85.6333380 139.2702259 112.1298695
  80.5780012 135.5514997 108.5169988  80.2610012 134.6494997 108.4809988
  81.3600012 135.5534997 107.9639988  80.6402408 135.4282474 108.4373569
  84.2030012 137.8034997 114.5119988  83.3670012 138.2574997 114.6229988
  84.7270012 138.0794997 115.2639988  84.1595416 137.9028660 114.6288119
  84.7470012 144.0164997 106.1969988  84.0020012 143.5094997 105.8749988
  84.6130012 144.0654997 107.1439988  84.6268776 143.9536940 106.2808647
  91.8970012 143.1494997 114.9839988  92.5390012 143.6064997 114.4399988
  91.0670012 143.2624997 114.5209988  91.8725963 143.2272704 114.8470177
  86.2660012 144.2004997 117.4339988  85.9210012 143.8194997 118.2409988
  86.0660012 145.1344997 117.5049988  86.1917527 144.2745135 117.5540689
  89.3630012 138.6974997 106.0569988  90.2550012 138.5604997 106.3759988
  89.4200012 139.4884997 105.5199988  89.4926504 138.7856052 106.0280818
  79.8720012 143.3114997 111.9669988  80.6170012 143.3094997 111.3659988
  79.9500012 142.4884997 112.4479988  79.9844995 143.1998887 111.9498282
  76.8800012 141.7724997 117.2819988  77.1030012 141.3544997 118.1139988
  76.2780012 141.1594997 116.8589988  76.8291759 141.6324668 117.3387022
  83.8960012 141.2894997 119.4949988  83.6000012 141.1234997 118.5999988
  84.8280012 141.0694997 119.4839988  83.9814166 141.2370640 119.3710536
  94.2110012 144.7074997 118.5889988  93.3600012 144.9454997 118.2219988
  94.8020012 144.6904997 117.8359988  94.1742487 144.7378258 118.4368893
  89.7040012 142.5014997 113.2379988  88.7750012 142.2694997 113.2109988
  90.1550012 141.7244997 112.9079988  89.6379216 142.3647238 113.1896917
  83.6740012 144.4924997 108.9469988  83.4330012 145.4174997 108.9889988
  82.9330012 144.0334997 109.3439988  83.5409225 144.5570933 109.0063742
  87.7330012 144.7404997 114.9629988  87.3070012 144.5134997 115.7899988
  88.3130012 144.0024997 114.7809988  87.7531868 144.6095299 115.0515830
  78.5140012 136.5254997 116.8399988  77.6210012 136.8644997 116.7719988
  78.4150012 135.6704997 117.2579988  78.3784164 136.4562588 116.8872235
  79.4170012 143.6044997 105.4509988  78.7310012 143.9564997 106.0179988
  79.9390012 144.3674997 105.2039988  79.3936852 143.7558578 105.4952118
  87.2480012 136.2664997 115.7299988  87.9470012 136.3404997 116.3799988
  86.8670012 135.4024997 115.8839988  87.2921767 136.1597624 115.8398322
  85.2330012 137.6464997 107.6619988  86.0450012 138.1514997 107.7079988
  84.9880012 137.5014997 108.5759988  85.3110520 137.6960375 107.7918517
  85.7680012 138.6324997 116.8459988  85.8870012 139.2064997 117.6039988
  86.4240012 137.9444997 116.9609988  85.8729025 138.6179858 116.9651321
  86.1160012 134.7274997 108.5999988  85.7700012 135.3454997 109.2439988
  86.7750012 135.2284997 108.1179988  86.1576968 134.8796278 108.6229383
  81.7740012 135.7904997 105.2869988  81.6910012 136.6794997 105.6339988
  82.6640012 135.5254997 105.5189988  81.8829469 135.8761430 105.3657626
  91.9730012 136.5394997 117.6809988  91.0560012 136.8024997 117.5939988
  92.3080012 136.5364997 116.7849988  91.8928613 136.5750761 117.5478837
  90.5750012 140.2904997 111.7769988  89.7770012 139.8754997 111.4489988
  91.0200012 139.5994997 112.2679988  90.5259885 140.1403543 111.7984889
  79.1570012 133.6644997 112.1369988  78.9280012 133.7234997 111.2089988
  78.7140012 132.8724997 112.4429988  79.0658530 133.5655753 112.0514786
  77.2820012 144.0274997 120.5809988  77.4260012 143.1254997 120.2949988
  76.5100012 144.3134997 120.0939988  77.1972753 143.9426816 120.4759505
  81.6240012 144.3714997 102.7139988  81.6880012 143.5774997 103.2449988
  82.2770012 144.2524997 102.0239988  81.7210241 144.2467148 102.6934317
  83.9380012 143.9974997 120.0139988  83.6090012 144.2684997 119.1569988
  84.0900012 143.0564997 119.9269988  83.9134809 143.9073862 119.8848244
  89.6720012 143.9134997 117.3969988  90.4180012 144.5014997 117.2779988
  88.9150012 144.4954997 117.4609988  89.6717820 144.0727143 117.3893590
  78.1150012 141.2274997 120.0009988  78.5230012 140.3704997 119.8799988
  77.8550012 141.2424997 120.9219988  78.1357568 141.1120807 120.1089588
  82.7730012 142.3434997 105.0199988  82.3130012 141.8594997 105.7059988
  83.0280012 141.6754997 104.3839988  82.7444902 142.1868731 105.0279334
  82.0620012 140.2364997 117.3759988  81.4440012 140.9114997 117.6559988
  82.4060012 140.5574997 116.5419988  82.0239132 140.3722411 117.3016262
  83.8440012 140.5864997 103.2819988  83.6640012 140.4324997 102.3549988
  84.7940012 140.6944997 103.3269988  83.9477776 140.5800175 103.1611843
  87.0820012 142.7084997 120.6529988  88.0350012 142.7914997 120.6259988
  86.9210012 141.9964997 121.2729988  87.1906426 142.6236746 120.7330579
  93.2340012 142.9414997 102.7279988  92.9600012 142.5164997 101.9149988
  93.2730012 143.8724997 102.5109988  93.2017699 143.0092484 102.5873610
  82.4010012 137.5914997 118.4579988  82.5510012 136.8624997 117.8559988
  82.4040012 138.3684997 117.8989988  82.4219302 137.5967851 118.3000692
  82.8140012 135.9614997 115.9509988  83.3500012 136.4124997 115.2989988
  81.9620012 135.8534997 115.5279988  82.7722178 136.0086390 115.8045756
  84.3960012 141.4004997 116.1899988  85.1460012 141.2444997 115.6169988
  84.0570012 142.2524997 115.9149988  84.4528921 141.4942968 116.0743561
  88.8110012 139.2154997 121.2189988  89.0040012 138.2844997 121.1069988
  89.6690012 139.6404997 121.2079988  88.9532934 139.1456531 121.2022031
  90.1280012 142.0044997 119.2959988  89.8470012 142.7134997 118.7179988
  91.0710012 141.9314997 119.1449988  90.2169291 142.0916711 119.1964967
  80.8800012 138.7894997 120.3699988  80.1130012 138.2574997 120.1589988
  81.5590012 138.4794997 119.7699988  80.8667877 138.6748300 120.2600716
  83.6200012 133.4174997 116.3819988  83.5210012 134.3644997 116.2769988
  82.8770012 133.0454997 115.9059988  83.5061184 133.4965863 116.3033621
  84.8840012 137.7394997 119.9459988  84.6480012 137.5194997 120.8469988
  84.1000012 137.5324997 119.4359988  84.7458504 137.6814586 120.0003431
  87.5990012 136.8664997 119.0209988  86.6520012 136.8984997 119.1539988
  87.9120012 136.2414997 119.6749988  87.5116707 136.7863998 119.1276060
  89.2330012 135.5004997 121.0269988  89.1370012 134.5484997 121.0209988
  88.9120012 135.7694997 121.8869988  89.1764070 135.4064035 121.1425441
  79.0600012 136.7104997 120.0739988  79.2720012 136.0034997 119.4639988
  78.9490012 136.2724997 120.9179988  79.0739721 136.5547084 120.1046843
  83.8410012 132.7114997 119.0529988  84.5530012 132.0714997 119.0389988
  83.7400012 132.9784997 118.1399988  83.9248066 132.6600079 118.9275677
  84.1950012 134.3944997 121.1069988  84.0630012 133.9184997 120.2869988
  83.5960012 135.1384997 121.0519988  84.0959071 134.4299618 120.9872886
  93.6920012 143.8104997 106.7029988  94.5420012 144.2314997 106.8299988
  93.6980012 143.0704997 107.3099988  93.8091372 143.7680803 106.8024344
  94.0870012 141.8634997 108.5259988  93.3600012 141.3844997 108.9239988
  94.6680012 142.0694997 109.2589988  94.0660473 141.8258103 108.6794528
  93.8460012 144.6484997 113.4739988  94.6790012 144.2704997 113.1939988
  93.9580012 145.5914997 113.3549988  93.9752647 144.7242218 113.4195487
  91.8730012 140.3844997 109.0889988  91.7230012 139.4394997 109.0689988
  91.5200012 140.6654997 109.9329988  91.8047448 140.2931481 109.2003705
  76.9090012 142.4624997 113.0999988  77.0930012 142.3804997 112.1639988
  77.7580012 142.3384997 113.5229988  77.0490151 142.4345073 113.0291451
  92.7300012 142.3544997 118.7279988  93.3130012 141.6204997 118.9199988
  93.2940012 143.1264997 118.7749988  92.8859769 142.3584227 118.7606159
  94.2260012 140.2574997 119.4129988  93.3630012 139.8784997 119.2469988
  94.8310012 139.5184997 119.3379988  94.1896119 140.1058268 119.3801528
  91.9510012 136.4124997 102.5859988  92.5620012 136.0414997 103.2229988
  91.1150012 135.9914997 102.7819988  91.9215032 136.3047554 102.6997035
  91.5840012 137.9674997 107.5519988  91.8640012 137.0604997 107.6759988
  92.3430012 138.4014997 107.1629988  91.7249277 137.9020942 107.5163682
  92.1960012 138.5484997 112.9879988  93.1290012 138.7604997 112.9529988
  91.9610012 138.6504997 113.9099988  92.2919244 138.5913100 113.1078892
  92.2250012 139.2854997 115.7639988  91.3820012 139.5534997 116.1299988
  92.6670012 140.1074997 115.5529988  92.1694158 139.4333291 115.7855491
  76.5060012 137.7334997 119.2409988  77.4260012 137.6114997 119.4769988
  76.0570012 136.9834997 119.6299988  76.5711580 137.6153727 119.3259006
  94.5080012 133.2654997 121.1169988  94.8580012 132.6114997 120.5119988
  94.6550012 134.1024997 120.6769988  94.5757887 133.2891548 120.9746858
  92.1970012 135.2304997 107.5999988  92.3800012 134.7814997 108.4259988
  91.5980012 134.6454997 107.1369988  92.1410202 135.0899975 107.6503275
  77.7270012 136.0454997 112.1319988  78.1730012 135.2534997 112.4339988
  78.1940012 136.7614997 112.5619988  77.8510831 136.0340685 112.2314006
  76.0310012 139.0444997 113.2009988  76.5230012 138.8234997 112.4099988
  76.3940012 139.8854997 113.4819988  76.1473126 139.1278357 113.1307531
  94.0280012 135.3744997 119.4659988  93.1100012 135.6454997 119.4309988
  94.1510012 134.8394997 118.6819988  93.9189729 135.3392508 119.3551923
  94.0640012 135.2974997 104.1279988  94.4760012 134.5764997 103.6529988
  94.7460012 135.9674997 104.1869988  94.2125885 135.2892368 104.0708915
  76.3450012 135.3024997 107.2549988  75.4200012 135.5114997 107.1259988
  76.7990012 135.7864997 106.5649988  76.2797292 135.3965343 107.1440720
  76.3090012 134.0404997 115.5989988  75.6440012 133.7944997 116.2429988
  75.8660012 134.6624997 115.0219988  76.1581318 134.0909410 115.6090898
  93.0280012 133.4644997 117.2849988  92.2160012 133.7894997 116.8979988
  93.2610012 132.7044997 116.7519988  92.9482203 133.4062758 117.1598880
  86.4580012 134.9134997 111.6079988  85.7840012 134.2844997 111.8639988
  87.0220012 134.4294997 111.0049988  86.4419230 134.7618744 111.5615340
  91.6010012 133.0214997 111.7209988  92.2050012 133.5684997 111.2189988
  90.7310012 133.3404997 111.4799988  91.5661208 133.1395137 111.6196886
  93.3280012 134.1594997 110.0539988  93.9400012 133.6454997 109.5269988
  93.7100012 135.0374997 110.0769988  93.4633371 134.2077866 109.9850041
  78.7850012 133.5474997 109.4299988  78.0080012 133.3134997 108.9229988
  79.3150012 132.7504997 109.4389988  78.7502330 133.4076988 109.3617742
  77.6210012 133.3454997 105.2339988  78.0600012 133.9564997 104.6419988
  76.9880012 133.8834997 105.7079988  77.5954514 133.5019257 105.2170930
  83.3640012 133.4744997 109.2439988  84.2390012 133.8624997 109.2139988
  83.2280012 133.2594997 110.1659988  83.4653695 133.4985184 109.3646440
  88.9210012 133.5044997 110.8929988  88.9970012 133.5994997 109.9429988
  88.6460012 132.5964997 111.0219988  88.8942321 133.3947867 110.7805079
  90.2740012 133.5304997 106.5849988  89.5720012 134.1454997 106.3749988
  89.8300012 132.6924997 106.7159988  90.1176450 133.5015639 106.5739000
  78.7430012 134.0614997 118.9479988  78.3770012 133.2964997 119.3899988
  79.6560012 134.0904997 119.2339988  78.8162736 133.9605640 119.0472502
  80.7160012 133.4124997 120.4839988  81.6140012 133.1384997 120.2989988
  80.3290012 132.6694997 120.9479988  80.7866612 133.2745914 120.5213643
  89.1370012 132.7444997 120.6659988  89.2140012 132.3184997 121.5199988
  90.0310012 132.7584997 120.3229988  89.2683428 132.6880880 120.7365310
 106.7190012 142.7034997 109.3889988 106.8080012 143.6474997 109.2569988
 106.0810012 142.4284997 108.7309988 106.6449081 142.7954830 109.2819614
 105.6520012 141.9584997 112.8079988 105.6140012 141.3124997 113.5129988
 105.3300012 141.4924997 112.0369988 105.6032333 141.8069408 112.8002978
  98.0210012 141.5734997 114.4009988  98.0620012 140.9474997 115.1239988
  98.7240012 142.1974997 114.5829988  98.1216363 141.5721196 114.5246044
 109.3580012 144.8974997 111.1089988 108.9180012 144.1774997 111.5599988
 109.3450012 145.6184997 111.7389988 109.2960226 144.8963731 111.2558494
  95.5540012 139.6834997 108.3289988  95.1070012 140.5294997 108.3099988
  94.9930012 139.1034997 107.8129988  95.4169900 139.7209916 108.2566801
  96.2650012 141.8454997 110.4539988  96.4780012 141.0754997 110.9819988
  97.0030012 141.9344997 109.8509988  96.3939044 141.7521968 110.4447123
 104.0420012 144.3914997 113.2139988 104.3460012 143.7054997 112.6189988
 104.7630012 144.5094997 113.8319988 104.1810671 144.3136305 113.2161816
 112.7050012 135.9924997 114.0749988 112.7540012 136.6024997 114.8099988
 113.1300012 136.4534997 113.3519988 112.7691746 136.1383796 114.0779175
 107.1830012 138.7854997 113.5409988 107.3250012 137.8394997 113.5619988
 107.0760012 138.9924997 112.6129988 107.1879919 138.6838246 113.4183408
 100.3370012 136.8864997 110.8139988 100.3810012 137.7464997 110.3949988
  99.8800012 136.3344997 110.1799988 100.2812240 136.9294422 110.6709864
 108.0600012 137.0174997 109.2149988 108.7060012 136.6884997 109.8389988
 108.5700012 137.5354997 108.5919988 108.2174299 137.0424450 109.2162731
  96.9580012 139.2834997 111.5759988  97.6110012 138.7334997 112.0079988
  96.9820012 139.0094997 110.6589988  97.0506683 139.1711466 111.5112123
 102.1140012 140.8334997 110.7909988 102.7300012 140.3074997 111.3009988
 101.5280012 140.1934997 110.3879988 102.1190810 140.6749208 110.8063173
 113.0960012 137.4704997 116.3099988 112.4080012 138.1284997 116.2149988
 113.1120012 137.2734997 117.2469988 113.0039540 137.5339819 116.4235990
  99.1480012 135.8044997 114.8879988  98.9290012 136.3344997 114.1219988
  98.4800012 136.0314997 115.5349988  99.0277600 135.9076906 114.8706379
 101.7170012 143.4804997 115.1749988 100.9770012 144.0784997 115.2789988
 102.4310012 144.0344997 114.8599988 101.7122237 143.6372831 115.1466465
 109.8240012 136.3084997 111.1949988 109.6080012 135.5424997 111.7279988
 110.4790012 136.7804997 111.7079988 109.8830632 136.2675889 111.3372861
  98.7410012 137.6964997 112.8399988  99.3550012 138.3294997 113.2129988
  99.2530012 137.2244997 112.1839988  98.8941981 137.7192267 112.8022908
 110.1710012 135.0234997 114.8749988 109.4350012 135.6344997 114.8369988
 110.8540012 135.4384997 114.3479988 110.1626541 135.1631374 114.7985832
 103.1740012 133.1104997 112.3399988 103.0570012 132.1614997 112.2859988
 102.3190012 133.4424997 112.6139988 103.0424212 133.0255571 112.3696497
 110.9680012 144.9854997 117.0679988 111.1080012 144.3944997 116.3289988
 111.1350012 145.8584997 116.7119988 111.0097411 145.0225428 116.9186894
 105.4410012 141.9474997 106.8409988 104.7290012 142.4824997 106.4889988
 106.1320012 142.0034997 106.1809988 105.4370132 142.0282543 106.7036289
 112.8100012 141.3254997 115.1339988 112.1570012 142.0204997 115.2239988
 113.2750012 141.5354997 114.3249988 112.7835274 141.4490643 115.0368462
 108.8460012 142.1574997 107.7929988 108.1140012 142.3854997 108.3659988
 109.2940012 141.4434997 108.2469988 108.8062725 142.0922145 107.9328816
 108.7440012 140.3314997 116.8599988 108.8240012 141.0944997 117.4319988
 108.1420012 140.6104997 116.1699988 108.6735756 140.4737134 116.8450589
 100.4920012 142.7874997 109.6749988 100.1610012 142.4174997 108.8569988
 101.0800012 142.1174997 110.0219988 100.5261873 142.6461156 109.6098102
 100.8580012 141.5564997 113.3089988 101.4240012 141.6774997 112.5459988
 101.1770012 142.1934997 113.9469988 100.9785474 141.6592219 113.2909862
  98.6580012 142.1534997 117.2539988  98.7290012 142.8044997 117.9529988
  97.7680012 142.2564997 116.9189988  98.5473005 142.2565427 117.3043495
  99.4820012 141.8574997 107.2639988  99.1900012 142.6254997 106.7739988
  98.8080012 141.1974997 107.1019988  99.3508111 141.8735587 107.1748978
  95.5750012 144.2204997 116.0789988  95.0740012 144.1924997 115.2639988
  95.5800012 143.3144997 116.3889988  95.5070944 144.0942396 116.0093226
 110.6750012 139.1594997 119.1259988 110.2680012 139.6404997 118.4049988
 110.7160012 138.2544997 118.8179988 110.6248437 139.1029374 118.9856683
 100.4430012 134.0134997 113.1179988  99.5810012 133.9264997 112.7099988
 100.4200012 134.8694997 113.5459988 100.3220409 134.1172883 113.1200589
 105.1060012 133.7354997 116.4929988 105.5260012 133.3204997 117.2459988
 104.1730012 133.5574997 116.6099988 105.0373644 133.6545900 116.6119539
 108.4320012 137.4914997 117.3459988 107.9180012 137.3654997 118.1439988
 108.2770012 138.4034997 117.1019988 108.3406852 137.5976132 117.4222158
 100.5340012 138.9794997 114.2129988  99.8920012 138.9384997 114.9219988
 100.5710012 139.9054997 113.9749988 100.4510664 139.0991430 114.2779219
 100.5310012 139.2004997 109.1249988  99.6380012 138.8594997 109.0659988
 100.9810012 138.8234997 108.3689988 100.4698130 139.1029631 109.0147702
 106.0660012 139.6164997 107.9419988 105.6570012 140.4314997 107.6509988
 106.7870012 139.4764997 107.3279988 106.1074537 139.7092018 107.8191342
 105.1680012 139.7914997 119.4299988 104.6060012 139.0874997 119.7509988
 105.9950012 139.6714997 119.8979988 105.2027095 139.6787883 119.5372330
 107.0710012 139.0624997 110.7559988 106.8760012 139.6674997 110.0409988
 107.2520012 138.2284997 110.3219988 107.0687614 139.0326300 110.5994405
  98.2840012 139.2994997 116.0799988  98.2460012 139.6994997 116.9489988
  97.7930012 138.4824997 116.1709988  98.2124684 139.2438069 116.2111059
  94.8920012 136.4154997 109.9309988  95.5230012 136.3864997 110.6499988
  95.3410012 135.9904997 109.1999988  95.0390918 136.3540836 109.9306441
 106.3350012 140.7004997 115.4269988 106.6580012 140.0694997 114.7839988
 105.8950012 140.1654997 116.0879988 106.3197484 140.5418387 115.4283198
 103.1120012 136.6274997 110.2109988 102.2010012 136.6844997 110.4999988
 103.6180012 136.5674997 111.0219988 103.0556899 136.6271941 110.3601184
  97.9410012 138.2564997 109.0379988  97.0510012 138.3564997 108.6979988
  98.2370012 137.4144997 108.6919988  97.8592823 138.1563545 108.9447213
 101.5940012 138.2564997 106.6949988 102.5250012 138.3854997 106.8729988
 101.3790012 138.9264997 106.0449988 101.6924247 138.3646565 106.6315747
 107.5170012 135.8624997 113.4759988 106.8410012 135.9934997 114.1399988
 107.0320012 135.7074997 112.6649988 107.3587146 135.8595157 113.4574469
 100.2680012 139.4514997 104.2609988  99.7250012 139.0714997 103.5699988
 101.1010012 139.6454997 103.8329988 100.3063631 139.4257125 104.1084501
  98.4030012 144.0084997 119.3599988  99.1350012 144.2624997 119.9219988
  97.6230012 144.2124997 119.8759988  98.3977073 144.0708160 119.5066151
 104.4320012 139.4154997 112.0979988 104.9970012 138.8684997 111.5509988
 104.2850012 138.8934997 112.8869988 104.4893380 139.2702259 112.1298695
  99.4340012 135.5514997 108.5169988  99.1170012 134.6494997 108.4809988
 100.2160012 135.5534997 107.9639988  99.4962408 135.4282474 108.4373569
 103.0590012 137.8034997 114.5119988 102.2230012 138.2574997 114.6229988
 103.5830012 138.0794997 115.2639988 103.0155416 137.9028660 114.6288119
 103.6030012 144.0164997 106.1969988 102.8580012 143.5094997 105.8749988
 103.4690012 144.0654997 107.1439988 103.4828776 143.9536940 106.2808647
 110.7530012 143.1494997 114.9839988 111.3950012 143.6064997 114.4399988
 109.9230012 143.2624997 114.5209988 110.7285963 143.2272704 114.8470177
 105.1220012 144.2004997 117.4339988 104.7770012 143.8194997 118.2409988
 104.9220012 145.1344997 117.5049988 105.0477527 144.2745135 117.5540689
  98.7280012 143.3114997 111.9669988  99.4730012 143.3094997 111.3659988
  98.8060012 142.4884997 112.4479988  98.8404995 143.1998887 111.9498282
  95.7360012 141.7724997 117.2819988  95.9590012 141.3544997 118.1139988
  95.1340012 141.1594997 116.8589988  95.6851759 141.6324668 117.3387022
 102.7520012 141.2894997 119.4949988 102.4560012 141.1234997 118.5999988
 103.6840012 141.0694997 119.4839988 102.8374166 141.2370640 119.3710536
 113.1040012 138.9074997 105.7519988 112.5500012 138.5114997 105.0799988
 113.2040012 139.8174997 105.4739988 113.0417059 138.9763586 105.6224401
 113.0670012 144.7074997 118.5889988 112.2160012 144.9454997 118.2219988
 113.6580012 144.6904997 117.8359988 113.0302487 144.7378258 118.4368893
 108.5600012 142.5014997 113.2379988 107.6310012 142.2694997 113.2109988
 109.0110012 141.7244997 112.9079988 108.4939216 142.3647238 113.1896917
 102.5300012 144.4924997 108.9469988 102.2890012 145.4174997 108.9889988
 101.7890012 144.0334997 109.3439988 102.3969225 144.5570933 109.0063742
 106.5890012 144.7404997 114.9629988 106.1630012 144.5134997 115.7899988
 107.1690012 144.0024997 114.7809988 106.6091868 144.6095299 115.0515830
  97.3700012 136.5254997 116.8399988  96.4770012 136.8644997 116.7719988
  97.2710012 135.6704997 117.2579988  97.2344164 136.4562588 116.8872235
 109.6580012 144.3424997 106.2639988 109.3800012 143.6144997 106.8199988
 110.5850012 144.4614997 106.4689988 109.7453124 144.2588802 106.3678845
  98.2730012 143.6044997 105.4509988  97.5870012 143.9564997 106.0179988
  98.7950012 144.3674997 105.2039988  98.2496852 143.7558578 105.4952118
 106.1040012 136.2664997 115.7299988 106.8030012 136.3404997 116.3799988
 105.7230012 135.4024997 115.8839988 106.1481767 136.1597624 115.8398322
 106.8890012 135.9184997 106.8269988 107.1090012 136.3904997 106.0239988
 107.4470012 136.3134997 107.4969988 106.9944968 136.0364285 106.8077331
 104.0890012 137.6464997 107.6619988 104.9010012 138.1514997 107.7079988
 103.8440012 137.5014997 108.5759988 104.1670520 137.6960375 107.7918517
 104.6240012 138.6324997 116.8459988 104.7430012 139.2064997 117.6039988
 105.2800012 137.9444997 116.9609988 104.7289025 138.6179858 116.9651321
 104.9720012 134.7274997 108.5999988 104.6260012 135.3454997 109.2439988
 105.6310012 135.2284997 108.1179988 105.0136968 134.8796278 108.6229383
 110.8290012 136.5394997 117.6809988 109.9120012 136.8024997 117.5939988
 111.1640012 136.5364997 116.7849988 110.7488613 136.5750761 117.5478837
 109.4310012 140.2904997 111.7769988 108.6330012 139.8754997 111.4489988
 109.8760012 139.5994997 112.2679988 109.3819885 140.1403543 111.7984889
  98.0130012 133.6644997 112.1369988  97.7840012 133.7234997 111.2089988
  97.5700012 132.8724997 112.4429988  97.9218530 133.5655753 112.0514786
  96.1380012 144.0274997 120.5809988  96.2820012 143.1254997 120.2949988
  95.3660012 144.3134997 120.0939988  96.0532753 143.9426816 120.4759505
 102.7940012 143.9974997 120.0139988 102.4650012 144.2684997 119.1569988
 102.9460012 143.0564997 119.9269988 102.7694809 143.9073862 119.8848244
 108.5280012 143.9134997 117.3969988 109.2740012 144.5014997 117.2779988
 107.7710012 144.4954997 117.4609988 108.5277820 144.0727143 117.3893590
  96.9710012 141.2274997 120.0009988  97.3790012 140.3704997 119.8799988
  96.7110012 141.2424997 120.9219988  96.9917568 141.1120807 120.1089588
 101.6290012 142.3434997 105.0199988 101.1690012 141.8594997 105.7059988
 101.8840012 141.6754997 104.3839988 101.6004902 142.1868731 105.0279334
 100.9180012 140.2364997 117.3759988 100.3000012 140.9114997 117.6559988
 101.2620012 140.5574997 116.5419988 100.8799132 140.3722411 117.3016262
 102.7000012 140.5864997 103.2819988 102.5200012 140.4324997 102.3549988
 103.6500012 140.6944997 103.3269988 102.8037776 140.5800175 103.1611843
 105.9380012 142.7084997 120.6529988 106.8910012 142.7914997 120.6259988
 105.7770012 141.9964997 121.2729988 106.0466426 142.6236746 120.7330579
 112.0900012 142.9414997 102.7279988 111.8160012 142.5164997 101.9149988
 112.1290012 143.8724997 102.5109988 112.0577699 143.0092484 102.5873610
 101.2570012 137.5914997 118.4579988 101.4070012 136.8624997 117.8559988
 101.2600012 138.3684997 117.8989988 101.2779302 137.5967851 118.3000692
 101.6700012 135.9614997 115.9509988 102.2060012 136.4124997 115.2989988
 100.8180012 135.8534997 115.5279988 101.6282178 136.0086390 115.8045756
 103.2520012 141.4004997 116.1899988 104.0020012 141.2444997 115.6169988
 102.9130012 142.2524997 115.9149988 103.3088921 141.4942968 116.0743561
 107.6670012 139.2154997 121.2189988 107.8600012 138.2844997 121.1069988
 108.5250012 139.6404997 121.2079988 107.8092934 139.1456531 121.2022031
 108.9840012 142.0044997 119.2959988 108.7030012 142.7134997 118.7179988
 109.9270012 141.9314997 119.1449988 109.0729291 142.0916711 119.1964967
  99.7360012 138.7894997 120.3699988  98.9690012 138.2574997 120.1589988
 100.4150012 138.4794997 119.7699988  99.7227877 138.6748300 120.2600716
 102.4760012 133.4174997 116.3819988 102.3770012 134.3644997 116.2769988
 101.7330012 133.0454997 115.9059988 102.3621184 133.4965863 116.3033621
 103.7400012 137.7394997 119.9459988 103.5040012 137.5194997 120.8469988
 102.9560012 137.5324997 119.4359988 103.6018504 137.6814586 120.0003431
 106.4550012 136.8664997 119.0209988 105.5080012 136.8984997 119.1539988
 106.7680012 136.2414997 119.6749988 106.3676707 136.7863998 119.1276060
 108.0890012 135.5004997 121.0269988 107.9930012 134.5484997 121.0209988
 107.7680012 135.7694997 121.8869988 108.0324070 135.4064035 121.1425441
  97.9160012 136.7104997 120.0739988  98.1280012 136.0034997 119.4639988
  97.8050012 136.2724997 120.9179988  97.9299721 136.5547084 120.1046843
 102.6970012 132.7114997 119.0529988 103.4090012 132.0714997 119.0389988
 102.5960012 132.9784997 118.1399988 102.7808066 132.6600079 118.9275677
 103.0510012 134.3944997 121.1069988 102.9190012 133.9184997 120.2869988
 102.4520012 135.1384997 121.0519988 102.9519071 134.4299618 120.9872886
 112.5480012 143.8104997 106.7029988 113.3980012 144.2314997 106.8299988
 112.5540012 143.0704997 107.3099988 112.6651372 143.7680803 106.8024344
 112.9430012 141.8634997 108.5259988 112.2160012 141.3844997 108.9239988
 113.5240012 142.0694997 109.2589988 112.9220473 141.8258103 108.6794528
 112.7020012 144.6484997 113.4739988 113.5350012 144.2704997 113.1939988
 112.8140012 145.5914997 113.3549988 112.8312647 144.7242218 113.4195487
 113.2110012 141.7644997 104.9179988 112.6890012 142.1214997 104.1989988
 113.1780012 142.4394997 105.5959988 113.1351634 141.9045413 104.9113145
 110.7290012 140.3844997 109.0889988 110.5790012 139.4394997 109.0689988
 110.3760012 140.6654997 109.9329988 110.6607448 140.2931481 109.2003705
  95.7650012 142.4624997 113.0999988  95.9490012 142.3804997 112.1639988
  96.6140012 142.3384997 113.5229988  95.9050151 142.4345073 113.0291451
 111.5860012 142.3544997 118.7279988 112.1690012 141.6204997 118.9199988
 112.1500012 143.1264997 118.7749988 111.7419769 142.3584227 118.7606159
 113.0820012 140.2574997 119.4129988 112.2190012 139.8784997 119.2469988
 113.6870012 139.5184997 119.3379988 113.0456119 140.1058268 119.3801528
 110.4400012 137.9674997 107.5519988 110.7200012 137.0604997 107.6759988
 111.1990012 138.4014997 107.1629988 110.5809277 137.9020942 107.5163682
 111.0520012 138.5484997 112.9879988 111.9850012 138.7604997 112.9529988
 110.8170012 138.6504997 113.9099988 111.1479244 138.5913100 113.1078892
 111.0810012 139.2854997 115.7639988 110.2380012 139.5534997 116.1299988
 111.5230012 140.1074997 115.5529988 111.0254158 139.4333291 115.7855491
  95.3620012 137.7334997 119.2409988  96.2820012 137.6114997 119.4769988
  94.9130012 136.9834997 119.6299988  95.4271580 137.6153727 119.3259006
 113.3640012 133.2654997 121.1169988 113.7140012 132.6114997 120.5119988
 113.5110012 134.1024997 120.6769988 113.4317887 133.2891548 120.9746858
 111.0530012 135.2304997 107.5999988 111.2360012 134.7814997 108.4259988
 110.4540012 134.6454997 107.1369988 110.9970202 135.0899975 107.6503275
  96.5830012 136.0454997 112.1319988  97.0290012 135.2534997 112.4339988
  97.0500012 136.7614997 112.5619988  96.7070831 136.0340685 112.2314006
  94.8870012 139.0444997 113.2009988  95.3790012 138.8234997 112.4099988
  95.2500012 139.8854997 113.4819988  95.0033126 139.1278357 113.1307531
 112.8840012 135.3744997 119.4659988 111.9660012 135.6454997 119.4309988
 113.0070012 134.8394997 118.6819988 112.7749729 135.3392508 119.3551923
  95.2010012 135.3024997 107.2549988  94.2760012 135.5114997 107.1259988
  95.6550012 135.7864997 106.5649988  95.1357292 135.3965343 107.1440720
  95.1650012 134.0404997 115.5989988  94.5000012 133.7944997 116.2429988
  94.7220012 134.6624997 115.0219988  95.0141318 134.0909410 115.6090898
 111.8840012 133.4644997 117.2849988 111.0720012 133.7894997 116.8979988
 112.1170012 132.7044997 116.7519988 111.8042203 133.4062758 117.1598880
 105.3140012 134.9134997 111.6079988 104.6400012 134.2844997 111.8639988
 105.8780012 134.4294997 111.0049988 105.2979230 134.7618744 111.5615340
 110.4570012 133.0214997 111.7209988 111.0610012 133.5684997 111.2189988
 109.5870012 133.3404997 111.4799988 110.4221208 133.1395137 111.6196886
 112.1840012 134.1594997 110.0539988 112.7960012 133.6454997 109.5269988
 112.5660012 135.0374997 110.0769988 112.3193371 134.2077866 109.9850041
  97.6410012 133.5474997 109.4299988  96.8640012 133.3134997 108.9229988
  98.1710012 132.7504997 109.4389988  97.6062330 133.4076988 109.3617742
  96.4770012 133.3454997 105.2339988  96.9160012 133.9564997 104.6419988
  95.8440012 133.8834997 105.7079988  96.4514514 133.5019257 105.2170930
 102.2200012 133.4744997 109.2439988 103.0950012 133.8624997 109.2139988
 102.0840012 133.2594997 110.1659988 102.3213695 133.4985184 109.3646440
 107.7770012 133.5044997 110.8929988 107.8530012 133.5994997 109.9429988
 107.5020012 132.5964997 111.0219988 107.7502321 133.3947867 110.7805079
 109.1300012 133.5304997 106.5849988 108.4280012 134.1454997 106.3749988
 108.6860012 132.6924997 106.7159988 108.9736450 133.5015639 106.5739000
  98.3380012 135.2614997 103.6759988  98.8300012 134.6314997 103.1489988
  98.9620012 135.5574997 104.3389988  98.4895688 135.2153804 103.6935482
  97.5990012 134.0614997 118.9479988  97.2330012 133.2964997 119.3899988
  98.5120012 134.0904997 119.2339988  97.6722736 133.9605640 119.0472502
  99.5720012 133.4124997 120.4839988 100.4700012 133.1384997 120.2989988
  99.1850012 132.6694997 120.9479988  99.6426612 133.2745914 120.5213643
 107.9930012 132.7444997 120.6659988 108.0700012 132.3184997 121.5199988
 108.8870012 132.7584997 120.3229988 108.1243428 132.6880880 120.7365310
 125.5750012 142.7034997 109.3889988 125.6640012 143.6474997 109.2569988
 124.9370012 142.4284997 108.7309988 125.5009081 142.7954830 109.2819614
 124.5080012 141.9584997 112.8079988 124.4700012 141.3124997 113.5129988
 124.1860012 141.4924997 112.0369988 124.4592333 141.8069408 112.8002978
 116.8770012 141.5734997 114.4009988 116.9180012 140.9474997 115.1239988
 117.5800012 142.1974997 114.5829988 116.9776363 141.5721196 114.5246044
 128.2140012 144.8974997 111.1089988 127.7740012 144.1774997 111.5599988
 128.2010012 145.6184997 111.7389988 128.1520226 144.8963731 111.2558494
 114.4100012 139.6834997 108.3289988 113.9630012 140.5294997 108.3099988
 113.8490012 139.1034997 107.8129988 114.2729900 139.7209916 108.2566801
 115.1210012 141.8454997 110.4539988 115.3340012 141.0754997 110.9819988
 115.8590012 141.9344997 109.8509988 115.2499044 141.7521968 110.4447123
 122.8980012 144.3914997 113.2139988 123.2020012 143.7054997 112.6189988
 123.6190012 144.5094997 113.8319988 123.0370671 144.3136305 113.2161816
 131.5610012 135.9924997 114.0749988 131.6100012 136.6024997 114.8099988
 131.9860012 136.4534997 113.3519988 131.6251746 136.1383796 114.0779175
 126.0390012 138.7854997 113.5409988 126.1810012 137.8394997 113.5619988
 125.9320012 138.9924997 112.6129988 126.0439919 138.6838246 113.4183408
 119.1930012 136.8864997 110.8139988 119.2370012 137.7464997 110.3949988
 118.7360012 136.3344997 110.1799988 119.1372240 136.9294422 110.6709864
 126.9160012 137.0174997 109.2149988 127.5620012 136.6884997 109.8389988
 127.4260012 137.5354997 108.5919988 127.0734299 137.0424450 109.2162731
 115.8140012 139.2834997 111.5759988 116.4670012 138.7334997 112.0079988
 115.8380012 139.0094997 110.6589988 115.9066683 139.1711466 111.5112123
 120.9700012 140.8334997 110.7909988 121.5860012 140.3074997 111.3009988
 120.3840012 140.1934997 110.3879988 120.9750810 140.6749208 110.8063173
 131.9520012 137.4704997 116.3099988 131.2640012 138.1284997 116.2149988
 131.9680012 137.2734997 117.2469988 131.8599540 137.5339819 116.4235990
 118.0040012 135.8044997 114.8879988 117.7850012 136.3344997 114.1219988
 117.3360012 136.0314997 115.5349988 117.8837600 135.9076906 114.8706379
 120.5730012 143.4804997 115.1749988 119.8330012 144.0784997 115.2789988
 121.2870012 144.0344997 114.8599988 120.5682237 143.6372831 115.1466465
 128.6800012 136.3084997 111.1949988 128.4640012 135.5424997 111.7279988
 129.3350012 136.7804997 111.7079988 128.7390632 136.2675889 111.3372861
 117.5970012 137.6964997 112.8399988 118.2110012 138.3294997 113.2129988
 118.1090012 137.2244997 112.1839988 117.7501981 137.7192267 112.8022908
 129.0270012 135.0234997 114.8749988 128.2910012 135.6344997 114.8369988
 129.7100012 135.4384997 114.3479988 129.0186541 135.1631374 114.7985832
 122.0300012 133.1104997 112.3399988 121.9130012 132.1614997 112.2859988
 121.1750012 133.4424997 112.6139988 121.8984212 133.0255571 112.3696497
 129.8240012 144.9854997 117.0679988 129.9640012 144.3944997 116.3289988
 129.9910012 145.8584997 116.7119988 129.8657411 145.0225428 116.9186894
 124.2970012 141.9474997 106.8409988 123.5850012 142.4824997 106.4889988
 124.9880012 142.0034997 106.1809988 124.2930132 142.0282543 106.7036289
 131.6660012 141.3254997 115.1339988 131.0130012 142.0204997 115.2239988
 132.1310012 141.5354997 114.3249988 131.6395274 141.4490643 115.0368462
 127.7020012 142.1574997 107.7929988 126.9700012 142.3854997 108.3659988
 128.1500012 141.4434997 108.2469988 127.6622725 142.0922145 107.9328816
 127.6000012 140.3314997 116.8599988 127.6800012 141.0944997 117.4319988
 126.9980012 140.6104997 116.1699988 127.5295756 140.4737134 116.8450589
 119.3480012 142.7874997 109.6749988 119.0170012 142.4174997 108.8569988
 119.9360012 142.1174997 110.0219988 119.3821873 142.6461156 109.6098102
 119.7140012 141.5564997 113.3089988 120.2800012 141.6774997 112.5459988
 120.0330012 142.1934997 113.9469988 119.8345474 141.6592219 113.2909862
 126.5730012 141.3194997 105.4779988 127.1530012 141.4694997 106.2249988
 126.9870012 141.7904997 104.7539988 126.7082997 141.4036578 105.4824058
 117.5140012 142.1534997 117.2539988 117.5850012 142.8044997 117.9529988
 116.6240012 142.2564997 116.9189988 117.4033005 142.2565427 117.3043495
 118.3380012 141.8574997 107.2639988 118.0460012 142.6254997 106.7739988
 117.6640012 141.1974997 107.1019988 118.2068111 141.8735587 107.1748978
 114.4310012 144.2204997 116.0789988 113.9300012 144.1924997 115.2639988
 114.4360012 143.3144997 116.3889988 114.3630944 144.0942396 116.0093226
 129.5310012 139.1594997 119.1259988 129.1240012 139.6404997 118.4049988
 129.5720012 138.2544997 118.8179988 129.4808437 139.1029374 118.9856683
 119.2990012 134.0134997 113.1179988 118.4370012 133.9264997 112.7099988
 119.2760012 134.8694997 113.5459988 119.1780409 134.1172883 113.1200589
 123.9620012 133.7354997 116.4929988 124.3820012 133.3204997 117.2459988
 123.0290012 133.5574997 116.6099988 123.8933644 133.6545900 116.6119539
 127.2880012 137.4914997 117.3459988 126.7740012 137.3654997 118.1439988
 127.1330012 138.4034997 117.1019988 127.1966852 137.5976132 117.4222158
 119.3900012 138.9794997 114.2129988 118.7480012 138.9384997 114.9219988
 119.4270012 139.9054997 113.9749988 119.3070664 139.0991430 114.2779219
 119.3870012 139.2004997 109.1249988 118.4940012 138.8594997 109.0659988
 119.8370012 138.8234997 108.3689988 119.3258130 139.1029631 109.0147702
 124.9220012 139.6164997 107.9419988 124.5130012 140.4314997 107.6509988
 125.6430012 139.4764997 107.3279988 124.9634537 139.7092018 107.8191342
 124.0240012 139.7914997 119.4299988 123.4620012 139.0874997 119.7509988
 124.8510012 139.6714997 119.8979988 124.0587095 139.6787883 119.5372330
 125.9270012 139.0624997 110.7559988 125.7320012 139.6674997 110.0409988
 126.1080012 138.2284997 110.3219988 125.9247614 139.0326300 110.5994405
 117.1400012 139.2994997 116.0799988 117.1020012 139.6994997 116.9489988
 116.6490012 138.4824997 116.1709988 117.0684684 139.2438069 116.2111059
 120.5060012 136.6734997 102.8789988 120.0750012 136.2284997 103.6089988
 119.7880012 137.0454997 102.3669988 120.3499438 136.6628940 102.9096799
 113.7480012 136.4154997 109.9309988 114.3790012 136.3864997 110.6499988
 114.1970012 135.9904997 109.1999988 113.8950918 136.3540836 109.9306441
 125.1910012 140.7004997 115.4269988 125.5140012 140.0694997 114.7839988
 124.7510012 140.1654997 116.0879988 125.1757484 140.5418387 115.4283198
 121.9680012 136.6274997 110.2109988 121.0570012 136.6844997 110.4999988
 122.4740012 136.5674997 111.0219988 121.9116899 136.6271941 110.3601184
 116.7970012 138.2564997 109.0379988 115.9070012 138.3564997 108.6979988
 117.0930012 137.4144997 108.6919988 116.7152823 138.1563545 108.9447213
 120.4500012 138.2564997 106.6949988 121.3810012 138.3854997 106.8729988
 120.2350012 138.9264997 106.0449988 120.5484247 138.3646565 106.6315747
 126.3730012 135.8624997 113.4759988 125.6970012 135.9934997 114.1399988
 125.8880012 135.7074997 112.6649988 126.2147146 135.8595157 113.4574469
 119.1240012 139.4514997 104.2609988 118.5810012 139.0714997 103.5699988
 119.9570012 139.6454997 103.8329988 119.1623631 139.4257125 104.1084501
 117.2590012 144.0084997 119.3599988 117.9910012 144.2624997 119.9219988
 116.4790012 144.2124997 119.8759988 117.2537073 144.0708160 119.5066151
 123.2880012 139.4154997 112.0979988 123.8530012 138.8684997 111.5509988
 123.1410012 138.8934997 112.8869988 123.3453380 139.2702259 112.1298695
 118.2900012 135.5514997 108.5169988 117.9730012 134.6494997 108.4809988
 119.0720012 135.5534997 107.9639988 118.3522408 135.4282474 108.4373569
 121.9150012 137.8034997 114.5119988 121.0790012 138.2574997 114.6229988
 122.4390012 138.0794997 115.2639988 121.8715416 137.9028660 114.6288119
 122.4590012 144.0164997 106.1969988 121.7140012 143.5094997 105.8749988
 122.3250012 144.0654997 107.1439988 122.3388776 143.9536940 106.2808647
 129.6090012 143.1494997 114.9839988 130.2510012 143.6064997 114.4399988
 128.7790012 143.2624997 114.5209988 129.5845963 143.2272704 114.8470177
 126.3570012 136.8304997 104.3959988 125.4180012 136.9424997 104.2449988
 126.6540012 137.6874997 104.7029988 126.2687583 136.9615981 104.4168337
 123.9780012 144.2004997 117.4339988 123.6330012 143.8194997 118.2409988
 123.7780012 145.1344997 117.5049988 123.9037527 144.2745135 117.5540689
 127.0750012 138.6974997 106.0569988 127.9670012 138.5604997 106.3759988
 127.1320012 139.4884997 105.5199988 127.2046504 138.7856052 106.0280818
 117.5840012 143.3114997 111.9669988 118.3290012 143.3094997 111.3659988
 117.6620012 142.4884997 112.4479988 117.6964995 143.1998887 111.9498282
 114.5920012 141.7724997 117.2819988 114.8150012 141.3544997 118.1139988
 113.9900012 141.1594997 116.8589988 114.5411759 141.6324668 117.3387022
 121.6080012 141.2894997 119.4949988 121.3120012 141.1234997 118.5999988
 122.5400012 141.0694997 119.4839988 121.6934166 141.2370640 119.3710536
 131.9600012 138.9074997 105.7519988 131.4060012 138.5114997 105.0799988
 132.0600012 139.8174997 105.4739988 131.8977059 138.9763586 105.6224401
 131.9230012 144.7074997 118.5889988 131.0720012 144.9454997 118.2219988
 132.5140012 144.6904997 117.8359988 131.8862487 144.7378258 118.4368893
 127.4160012 142.5014997 113.2379988 126.4870012 142.2694997 113.2109988
 127.8670012 141.7244997 112.9079988 127.3499216 142.3647238 113.1896917
 121.3860012 144.4924997 108.9469988 121.1450012 145.4174997 108.9889988
 120.6450012 144.0334997 109.3439988 121.2529225 144.5570933 109.0063742
 125.4450012 144.7404997 114.9629988 125.0190012 144.5134997 115.7899988
 126.0250012 144.0024997 114.7809988 125.4651868 144.6095299 115.0515830
 116.2260012 136.5254997 116.8399988 115.3330012 136.8644997 116.7719988
 116.1270012 135.6704997 117.2579988 116.0904164 136.4562588 116.8872235
 128.5140012 144.3424997 106.2639988 128.2360012 143.6144997 106.8199988
 129.4410012 144.4614997 106.4689988 128.6013124 144.2588802 106.3678845
 124.9600012 136.2664997 115.7299988 125.6590012 136.3404997 116.3799988
 124.5790012 135.4024997 115.8839988 125.0041767 136.1597624 115.8398322
 125.7450012 135.9184997 106.8269988 125.9650012 136.3904997 106.0239988
 126.3030012 136.3134997 107.4969988 125.8504968 136.0364285 106.8077331
 122.9450012 137.6464997 107.6619988 123.7570012 138.1514997 107.7079988
 122.7000012 137.5014997 108.5759988 123.0230520 137.6960375 107.7918517
 123.4800012 138.6324997 116.8459988 123.5990012 139.2064997 117.6039988
 124.1360012 137.9444997 116.9609988 123.5849025 138.6179858 116.9651321
 123.8280012 134.7274997 108.5999988 123.4820012 135.3454997 109.2439988
 124.4870012 135.2284997 108.1179988 123.8696968 134.8796278 108.6229383
 119.4860012 135.7904997 105.2869988 119.4030012 136.6794997 105.6339988
 120.3760012 135.5254997 105.5189988 119.5949469 135.8761430 105.3657626
 129.6850012 136.5394997 117.6809988 128.7680012 136.8024997 117.5939988
 130.0200012 136.5364997 116.7849988 129.6048613 136.5750761 117.5478837
 128.2870012 140.2904997 111.7769988 127.4890012 139.8754997 111.4489988
 128.7320012 139.5994997 112.2679988 128.2379885 140.1403543 111.7984889
 116.8690012 133.6644997 112.1369988 116.6400012 133.7234997 111.2089988
 116.4260012 132.8724997 112.4429988 116.7778530 133.5655753 112.0514786
 114.9940012 144.0274997 120.5809988 115.1380012 143.1254997 120.2949988
 114.2220012 144.3134997 120.0939988 114.9092753 143.9426816 120.4759505
 121.6500012 143.9974997 120.0139988 121.3210012 144.2684997 119.1569988
 121.8020012 143.0564997 119.9269988 121.6254809 143.9073862 119.8848244
 127.3840012 143.9134997 117.3969988 128.1300012 144.5014997 117.2779988
 126.6270012 144.4954997 117.4609988 127.3837820 144.0727143 117.3893590
 115.8270012 141.2274997 120.0009988 116.2350012 140.3704997 119.8799988
 115.5670012 141.2424997 120.9219988 115.8477568 141.1120807 120.1089588
 120.4850012 142.3434997 105.0199988 120.0250012 141.8594997 105.7059988
 120.7400012 141.6754997 104.3839988 120.4564902 142.1868731 105.0279334
 119.7740012 140.2364997 117.3759988 119.1560012 140.9114997 117.6559988
 120.1180012 140.5574997 116.5419988 119.7359132 140.3722411 117.3016262
 124.7940012 142.7084997 120.6529988 125.7470012 142.7914997 120.6259988
 124.6330012 141.9964997 121.2729988 124.9026426 142.6236746 120.7330579
 120.1130012 137.5914997 118.4579988 120.2630012 136.8624997 117.8559988
 120.1160012 138.3684997 117.8989988 120.1339302 137.5967851 118.3000692
 120.5260012 135.9614997 115.9509988 121.0620012 136.4124997 115.2989988
 119.6740012 135.8534997 115.5279988 120.4842178 136.0086390 115.8045756
 122.1080012 141.4004997 116.1899988 122.8580012 141.2444997 115.6169988
 121.7690012 142.2524997 115.9149988 122.1648921 141.4942968 116.0743561
 126.5230012 139.2154997 121.2189988 126.7160012 138.2844997 121.1069988
 127.3810012 139.6404997 121.2079988 126.6652934 139.1456531 121.2022031
 127.8400012 142.0044997 119.2959988 127.5590012 142.7134997 118.7179988
 128.7830012 141.9314997 119.1449988 127.9289291 142.0916711 119.1964967
 118.5920012 138.7894997 120.3699988 117.8250012 138.2574997 120.1589988
 119.2710012 138.4794997 119.7699988 118.5787877 138.6748300 120.2600716
 121.3320012 133.4174997 116.3819988 121.2330012 134.3644997 116.2769988
 120.5890012 133.0454997 115.9059988 121.2181184 133.4965863 116.3033621
 122.5960012 137.7394997 119.9459988 122.3600012 137.5194997 120.8469988
 121.8120012 137.5324997 119.4359988 122.4578504 137.6814586 120.0003431
 125.3110012 136.8664997 119.0209988 124.3640012 136.8984997 119.1539988
 125.6240012 136.2414997 119.6749988 125.2236707 136.7863998 119.1276060
 126.9450012 135.5004997 121.0269988 126.8490012 134.5484997 121.0209988
 126.6240012 135.7694997 121.8869988 126.8884070 135.4064035 121.1425441
 116.7720012 136.7104997 120.0739988 116.9840012 136.0034997 119.4639988
 116.6610012 136.2724997 120.9179988 116.7859721 136.5547084 120.1046843
 121.5530012 132.7114997 119.0529988 122.2650012 132.0714997 119.0389988
 121.4520012 132.9784997 118.1399988 121.6368066 132.6600079 118.9275677
 121.9070012 134.3944997 121.1069988 121.7750012 133.9184997 120.2869988
 121.3080012 135.1384997 121.0519988 121.8079071 134.4299618 120.9872886
 131.4040012 143.8104997 106.7029988 132.2540012 144.2314997 106.8299988
 131.4100012 143.0704997 107.3099988 131.5211372 143.7680803 106.8024344
 131.7990012 141.8634997 108.5259988 131.0720012 141.3844997 108.9239988
 132.3800012 142.0694997 109.2589988 131.7780473 141.8258103 108.6794528
 131.5580012 144.6484997 113.4739988 132.3910012 144.2704997 113.1939988
 131.6700012 145.5914997 113.3549988 131.6872647 144.7242218 113.4195487
 132.0670012 141.7644997 104.9179988 131.5450012 142.1214997 104.1989988
 132.0340012 142.4394997 105.5959988 131.9911634 141.9045413 104.9113145
 130.4160012 139.0044997 103.4679988 130.5120012 139.6714997 102.7879988
 130.2760012 138.1884997 102.9869988 130.4102272 138.9855655 103.3098347
 129.5850012 140.3844997 109.0889988 129.4350012 139.4394997 109.0689988
 129.2320012 140.6654997 109.9329988 129.5167448 140.2931481 109.2003705
 114.6210012 142.4624997 113.0999988 114.8050012 142.3804997 112.1639988
 115.4700012 142.3384997 113.5229988 114.7610151 142.4345073 113.0291451
 130.4420012 142.3544997 118.7279988 131.0250012 141.6204997 118.9199988
 131.0060012 143.1264997 118.7749988 130.5979769 142.3584227 118.7606159
 131.9380012 140.2574997 119.4129988 131.0750012 139.8784997 119.2469988
 132.5430012 139.5184997 119.3379988 131.9016119 140.1058268 119.3801528
 129.2960012 137.9674997 107.5519988 129.5760012 137.0604997 107.6759988
 130.0550012 138.4014997 107.1629988 129.4369277 137.9020942 107.5163682
 129.9080012 138.5484997 112.9879988 130.8410012 138.7604997 112.9529988
 129.6730012 138.6504997 113.9099988 130.0039244 138.5913100 113.1078892
 129.9370012 139.2854997 115.7639988 129.0940012 139.5534997 116.1299988
 130.3790012 140.1074997 115.5529988 129.8814158 139.4333291 115.7855491
 114.2180012 137.7334997 119.2409988 115.1380012 137.6114997 119.4769988
 113.7690012 136.9834997 119.6299988 114.2831580 137.6153727 119.3259006
 132.2200012 133.2654997 121.1169988 132.5700012 132.6114997 120.5119988
 132.3670012 134.1024997 120.6769988 132.2877887 133.2891548 120.9746858
 129.9090012 135.2304997 107.5999988 130.0920012 134.7814997 108.4259988
 129.3100012 134.6454997 107.1369988 129.8530202 135.0899975 107.6503275
 115.4390012 136.0454997 112.1319988 115.8850012 135.2534997 112.4339988
 115.9060012 136.7614997 112.5619988 115.5630831 136.0340685 112.2314006
 113.7430012 139.0444997 113.2009988 114.2350012 138.8234997 112.4099988
 114.1060012 139.8854997 113.4819988 113.8593126 139.1278357 113.1307531
 131.7400012 135.3744997 119.4659988 130.8220012 135.6454997 119.4309988
 131.8630012 134.8394997 118.6819988 131.6309729 135.3392508 119.3551923
 114.0570012 135.3024997 107.2549988 113.1320012 135.5114997 107.1259988
 114.5110012 135.7864997 106.5649988 113.9917292 135.3965343 107.1440720
 114.0210012 134.0404997 115.5989988 113.3560012 133.7944997 116.2429988
 113.5780012 134.6624997 115.0219988 113.8701318 134.0909410 115.6090898
 130.7400012 133.4644997 117.2849988 129.9280012 133.7894997 116.8979988
 130.9730012 132.7044997 116.7519988 130.6602203 133.4062758 117.1598880
 124.1700012 134.9134997 111.6079988 123.4960012 134.2844997 111.8639988
 124.7340012 134.4294997 111.0049988 124.1539230 134.7618744 111.5615340
 129.3130012 133.0214997 111.7209988 129.9170012 133.5684997 111.2189988
 128.4430012 133.3404997 111.4799988 129.2781208 133.1395137 111.6196886
 131.0400012 134.1594997 110.0539988 131.6520012 133.6454997 109.5269988
 131.4220012 135.0374997 110.0769988 131.1753371 134.2077866 109.9850041
 116.4970012 133.5474997 109.4299988 115.7200012 133.3134997 108.9229988
 117.0270012 132.7504997 109.4389988 116.4622330 133.4076988 109.3617742
 115.3330012 133.3454997 105.2339988 115.7720012 133.9564997 104.6419988
 114.7000012 133.8834997 105.7079988 115.3074514 133.5019257 105.2170930
 121.0760012 133.4744997 109.2439988 121.9510012 133.8624997 109.2139988
 120.9400012 133.2594997 110.1659988 121.1773695 133.4985184 109.3646440
 126.6330012 133.5044997 110.8929988 126.7090012 133.5994997 109.9429988
 126.3580012 132.5964997 111.0219988 126.6062321 133.3947867 110.7805079
 127.9860012 133.5304997 106.5849988 127.2840012 134.1454997 106.3749988
 127.5420012 132.6924997 106.7159988 127.8296450 133.5015639 106.5739000
 122.2200012 135.5544997 106.1329988 122.3980012 134.9084997 106.8159988
 122.1670012 136.3884997 106.5999988 122.2371999 135.5788009 106.2895917
 116.4550012 134.0614997 118.9479988 116.0890012 133.2964997 119.3899988
 117.3680012 134.0904997 119.2339988 116.5282736 133.9605640 119.0472502
 118.4280012 133.4124997 120.4839988 119.3260012 133.1384997 120.2989988
 118.0410012 132.6694997 120.9479988 118.4986612 133.2745914 120.5213643
 126.8490012 132.7444997 120.6659988 126.9260012 132.3184997 121.5199988
 127.7430012 132.7584997 120.3229988 126.9803428 132.6880880 120.7365310
 144.4310012 142.7034997 109.3889988 144.5200012 143.6474997 109.2569988
 143.7930012 142.4284997 108.7309988 144.3569081 142.7954830 109.2819614
 143.3640012 141.9584997 112.8079988 143.3260012 141.3124997 113.5129988
 143.0420012 141.4924997 112.0369988 143.3152333 141.8069408 112.8002978
 135.7330012 141.5734997 114.4009988 135.7740012 140.9474997 115.1239988
 136.4360012 142.1974997 114.5829988 135.8336363 141.5721196 114.5246044
 133.2660012 139.6834997 108.3289988 132.8190012 140.5294997 108.3099988
 132.7050012 139.1034997 107.8129988 133.1289900 139.7209916 108.2566801
 133.9770012 141.8454997 110.4539988 134.1900012 141.0754997 110.9819988
 134.7150012 141.9344997 109.8509988 134.1059044 141.7521968 110.4447123
 141.7540012 144.3914997 113.2139988 142.0580012 143.7054997 112.6189988
 142.4750012 144.5094997 113.8319988 141.8930671 144.3136305 113.2161816
 144.8950012 138.7854997 113.5409988 145.0370012 137.8394997 113.5619988
 144.7880012 138.9924997 112.6129988 144.8999919 138.6838246 113.4183408
 138.0490012 136.8864997 110.8139988 138.0930012 137.7464997 110.3949988
 137.5920012 136.3344997 110.1799988 137.9932240 136.9294422 110.6709864
 134.6700012 139.2834997 111.5759988 135.3230012 138.7334997 112.0079988
 134.6940012 139.0094997 110.6589988 134.7626683 139.1711466 111.5112123
 139.8260012 140.8334997 110.7909988 140.4420012 140.3074997 111.3009988
 139.2400012 140.1934997 110.3879988 139.8310810 140.6749208 110.8063173
 136.8600012 135.8044997 114.8879988 136.6410012 136.3344997 114.1219988
 136.1920012 136.0314997 115.5349988 136.7397600 135.9076906 114.8706379
 139.4290012 143.4804997 115.1749988 138.6890012 144.0784997 115.2789988
 140.1430012 144.0344997 114.8599988 139.4242237 143.6372831 115.1466465
 136.4530012 137.6964997 112.8399988 137.0670012 138.3294997 113.2129988
 136.9650012 137.2244997 112.1839988 136.6061981 137.7192267 112.8022908
 140.8860012 133.1104997 112.3399988 140.7690012 132.1614997 112.2859988
 140.0310012 133.4424997 112.6139988 140.7544212 133.0255571 112.3696497
 143.1530012 141.9474997 106.8409988 142.4410012 142.4824997 106.4889988
 143.8440012 142.0034997 106.1809988 143.1490132 142.0282543 106.7036289
 138.2040012 142.7874997 109.6749988 137.8730012 142.4174997 108.8569988
 138.7920012 142.1174997 110.0219988 138.2381873 142.6461156 109.6098102
 138.5700012 141.5564997 113.3089988 139.1360012 141.6774997 112.5459988
 138.8890012 142.1934997 113.9469988 138.6905474 141.6592219 113.2909862
 136.3700012 142.1534997 117.2539988 136.4410012 142.8044997 117.9529988
 135.4800012 142.2564997 116.9189988 136.2593005 142.2565427 117.3043495
 137.1940012 141.8574997 107.2639988 136.9020012 142.6254997 106.7739988
 136.5200012 141.1974997 107.1019988 137.0628111 141.8735587 107.1748978
 133.2870012 144.2204997 116.0789988 132.7860012 144.1924997 115.2639988
 133.2920012 143.3144997 116.3889988 133.2190944 144.0942396 116.0093226
 138.1550012 134.0134997 113.1179988 137.2930012 133.9264997 112.7099988
 138.1320012 134.8694997 113.5459988 138.0340409 134.1172883 113.1200589
 142.8180012 133.7354997 116.4929988 143.2380012 133.3204997 117.2459988
 141.8850012 133.5574997 116.6099988 142.7493644 133.6545900 116.6119539
 142.4790012 136.2284997 103.7779988 142.2260012 136.2474997 104.7009988
 142.2230012 135.3564997 103.4759988 142.4097481 136.1132558 103.8636175
 138.2460012 138.9794997 114.2129988 137.6040012 138.9384997 114.9219988
 138.2830012 139.9054997 113.9749988 138.1630664 139.0991430 114.2779219
 138.2430012 139.2004997 109.1249988 137.3500012 138.8594997 109.0659988
 138.6930012 138.8234997 108.3689988 138.1818130 139.1029631 109.0147702
 143.7780012 139.6164997 107.9419988 143.3690012 140.4314997 107.6509988
 144.4990012 139.4764997 107.3279988 143.8194537 139.7092018 107.8191342
 142.8800012 139.7914997 119.4299988 142.3180012 139.0874997 119.7509988
 143.7070012 139.6714997 119.8979988 142.9147095 139.6787883 119.5372330
 144.7830012 139.0624997 110.7559988 144.5880012 139.6674997 110.0409988
 144.9640012 138.2284997 110.3219988 144.7807614 139.0326300 110.5994405
 135.9960012 139.2994997 116.0799988 135.9580012 139.6994997 116.9489988
 135.5050012 138.4824997 116.1709988 135.9244684 139.2438069 116.2111059
 132.6040012 136.4154997 109.9309988 133.2350012 136.3864997 110.6499988
 133.0530012 135.9904997 109.1999988 132.7510918 136.3540836 109.9306441
 133.8780012 137.1614997 105.3549988 134.3520012 137.7524997 104.7699988
 133.1610012 137.6924997 105.7019988 133.8459341 137.3140867 105.3218836
 144.0470012 140.7004997 115.4269988 144.3700012 140.0694997 114.7839988
 143.6070012 140.1654997 116.0879988 144.0317484 140.5418387 115.4283198
 140.8240012 136.6274997 110.2109988 139.9130012 136.6844997 110.4999988
 141.3300012 136.5674997 111.0219988 140.7676899 136.6271941 110.3601184
 135.6530012 138.2564997 109.0379988 134.7630012 138.3564997 108.6979988
 135.9490012 137.4144997 108.6919988 135.5712823 138.1563546 108.9447213
 139.3060012 138.2564997 106.6949988 140.2370012 138.3854997 106.8729988
 139.0910012 138.9264997 106.0449988 139.4044247 138.3646565 106.6315747
 136.1150012 144.0084997 119.3599988 136.8470012 144.2624997 119.9219988
 135.3350012 144.2124997 119.8759988 136.1097073 144.0708160 119.5066151
 142.1440012 139.4154997 112.0979988 142.7090012 138.8684997 111.5509988
 141.9970012 138.8934997 112.8869988 142.2013380 139.2702259 112.1298695
 137.1460012 135.5514997 108.5169988 136.8290012 134.6494997 108.4809988
 137.9280012 135.5534997 107.9639988 137.2082408 135.4282474 108.4373569
 140.7710012 137.8034997 114.5119988 139.9350012 138.2574997 114.6229988
 141.2950012 138.0794997 115.2639988 140.7275416 137.9028660 114.6288119
 141.3150012 144.0164997 106.1969988 140.5700012 143.5094997 105.8749988
 141.1810012 144.0654997 107.1439988 141.1948776 143.9536940 106.2808647
 142.8340012 144.2004997 117.4339988 142.4890012 143.8194997 118.2409988
 142.6340012 145.1344997 117.5049988 142.7597527 144.2745135 117.5540689
 136.4400012 143.3114997 111.9669988 137.1850012 143.3094997 111.3659988
 136.5180012 142.4884997 112.4479988 136.5524995 143.1998887 111.9498282
 133.4480012 141.7724997 117.2819988 133.6710012 141.3544997 118.1139988
 132.8460012 141.1594997 116.8589988 133.3971759 141.6324668 117.3387022
 140.4640012 141.2894997 119.4949988 140.1680012 141.1234997 118.5999988
 141.3960012 141.0694997 119.4839988 140.5494166 141.2370640 119.3710536
 134.5700012 141.6914997 103.9579988 135.1860012 142.3184997 104.3379988
 133.7080012 142.0074997 104.2299988 134.5377698 141.8199430 104.0467183
 140.2420012 144.4924997 108.9469988 140.0010012 145.4174997 108.9889988
 139.5010012 144.0334997 109.3439988 140.1089225 144.5570933 109.0063742
 144.3010012 144.7404997 114.9629988 143.8750012 144.5134997 115.7899988
 144.8810012 144.0024997 114.7809988 144.3211868 144.6095299 115.0515830
 135.0820012 136.5254997 116.8399988 134.1890012 136.8644997 116.7719988
 134.9830012 135.6704997 117.2579988 134.9464164 136.4562588 116.8872235
 135.9850012 143.6044997 105.4509988 135.2990012 143.9564997 106.0179988
 136.5070012 144.3674997 105.2039988 135.9616852 143.7558578 105.4952118
 143.8160012 136.2664997 115.7299988 144.5150012 136.3404997 116.3799988
 143.4350012 135.4024997 115.8839988 143.8601767 136.1597624 115.8398322
 144.6010012 135.9184997 106.8269988 144.8210012 136.3904997 106.0239988
 145.1590012 136.3134997 107.4969988 144.7064968 136.0364285 106.8077331
 141.8010012 137.6464997 107.6619988 142.6130012 138.1514997 107.7079988
 141.5560012 137.5014997 108.5759988 141.8790520 137.6960375 107.7918517
 142.3360012 138.6324997 116.8459988 142.4550012 139.2064997 117.6039988
 142.9920012 137.9444997 116.9609988 142.4409025 138.6179858 116.9651321
 142.6840012 134.7274997 108.5999988 142.3380012 135.3454997 109.2439988
 143.3430012 135.2284997 108.1179988 142.7256968 134.8796278 108.6229383
 138.3420012 135.7904997 105.2869988 138.2590012 136.6794997 105.6339988
 139.2320012 135.5254997 105.5189988 138.4509469 135.8761430 105.3657626
 134.9170012 138.8824997 103.4639988 134.8720012 139.8214997 103.6419988
 134.0290012 138.6464997 103.1939988 134.7908574 138.9791892 103.4518912
 135.7250012 133.6644997 112.1369988 135.4960012 133.7234997 111.2089988
 135.2820012 132.8724997 112.4429988 135.6338530 133.5655753 112.0514786
 133.8500012 144.0274997 120.5809988 133.9940012 143.1254997 120.2949988
 133.0780012 144.3134997 120.0939988 133.7652753 143.9426816 120.4759505
 138.1920012 144.3714997 102.7139988 138.2560012 143.5774997 103.2449988
 138.8450012 144.2524997 102.0239988 138.2890241 144.2467148 102.6934317
 140.5060012 143.9974997 120.0139988 140.1770012 144.2684997 119.1569988
 140.6580012 143.0564997 119.9269988 140.4814809 143.9073862 119.8848244
 134.6830012 141.2274997 120.0009988 135.0910012 140.3704997 119.8799988
 134.4230012 141.2424997 120.9219988 134.7037568 141.1120807 120.1089588
 139.3410012 142.3434997 105.0199988 138.8810012 141.8594997 105.7059988
 139.5960012 141.6754997 104.3839988 139.3124902 142.1868731 105.0279334
 138.6300012 140.2364997 117.3759988 138.0120012 140.9114997 117.6559988
 138.9740012 140.5574997 116.5419988 138.5919132 140.3722411 117.3016262
 143.6500012 142.7084997 120.6529988 144.6030012 142.7914997 120.6259988
 143.4890012 141.9964997 121.2729988 143.7586426 142.6236746 120.7330579
 138.9690012 137.5914997 118.4579988 139.1190012 136.8624997 117.8559988
 138.9720012 138.3684997 117.8989988 138.9899302 137.5967851 118.3000692
 139.3820012 135.9614997 115.9509988 139.9180012 136.4124997 115.2989988
 138.5300012 135.8534997 115.5279988 139.3402178 136.0086390 115.8045756
 140.9640012 141.4004997 116.1899988 141.7140012 141.2444997 115.6169988
 140.6250012 142.2524997 115.9149988 141.0208921 141.4942968 116.0743561
 137.4480012 138.7894997 120.3699988 136.6810012 138.2574997 120.1589988
 138.1270012 138.4794997 119.7699988 137.4347877 138.6748300 120.2600716
 140.1880012 133.4174997 116.3819988 140.0890012 134.3644997 116.2769988
 139.4450012 133.0454997 115.9059988 140.0741184 133.4965863 116.3033621
 141.4520012 137.7394997 119.9459988 141.2160012 137.5194997 120.8469988
 140.6680012 137.5324997 119.4359988 141.3138504 137.6814586 120.0003431
 144.1670012 136.8664997 119.0209988 143.2200012 136.8984997 119.1539988
 144.4800012 136.2414997 119.6749988 144.0796707 136.7863998 119.1276060
 135.6280012 136.7104997 120.0739988 135.8400012 136.0034997 119.4639988
 135.5170012 136.2724997 120.9179988 135.6419721 136.5547084 120.1046843
 140.4090012 132.7114997 119.0529988 141.1210012 132.0714997 119.0389988
 140.3080012 132.9784997 118.1399988 140.4928066 132.6600079 118.9275677
 140.7630012 134.3944997 121.1069988 140.6310012 133.9184997 120.2869988
 140.1640012 135.1384997 121.0519988 140.6639071 134.4299618 120.9872886
 133.4770012 142.4624997 113.0999988 133.6610012 142.3804997 112.1639988
 134.3260012 142.3384997 113.5229988 133.6170151 142.4345073 113.0291451
 133.0740012 137.7334997 119.2409988 133.9940012 137.6114997 119.4769988
 132.6250012 136.9834997 119.6299988 133.1391580 137.6153727 119.3259006
 134.2950012 136.0454997 112.1319988 134.7410012 135.2534997 112.4339988
 134.7620012 136.7614997 112.5619988 134.4190831 136.0340685 112.2314006
 132.5990012 139.0444997 113.2009988 133.0910012 138.8234997 112.4099988
 132.9620012 139.8854997 113.4819988 132.7153126 139.1278357 113.1307531
 132.9130012 135.3024997 107.2549988 131.9880012 135.5114997 107.1259988
 133.3670012 135.7864997 106.5649988 132.8477292 135.3965343 107.1440720
 132.8770012 134.0404997 115.5989988 132.2120012 133.7944997 116.2429988
 132.4340012 134.6624997 115.0219988 132.7261318 134.0909410 115.6090898
 143.0260012 134.9134997 111.6079988 142.3520012 134.2844997 111.8639988
 143.5900012 134.4294997 111.0049988 143.0099230 134.7618744 111.5615340
 135.3530012 133.5474997 109.4299988 134.5760012 133.3134997 108.9229988
 135.8830012 132.7504997 109.4389988 135.3182330 133.4076988 109.3617742
 134.1890012 133.3454997 105.2339988 134.6280012 133.9564997 104.6419988
 133.5560012 133.8834997 105.7079988 134.1634514 133.5019257 105.2170930
 139.9320012 133.4744997 109.2439988 140.8070012 133.8624997 109.2139988
 139.7960012 133.2594997 110.1659988 140.0333695 133.4985184 109.3646440
 136.0500012 135.2614997 103.6759988 136.5420012 134.6314997 103.1489988
 136.6740012 135.5574997 104.3389988 136.2015688 135.2153804 103.6935482
 141.0760012 135.5544997 106.1329988 141.2540012 134.9084997 106.8159988
 141.0230012 136.3884997 106.5999988 141.0931999 135.5788009 106.2895917
 135.3110012 134.0614997 118.9479988 134.9450012 133.2964997 119.3899988
 136.2240012 134.0904997 119.2339988 135.3842736 133.9605640 119.0472502
 137.2840012 133.4124997 120.4839988 138.1820012 133.1384997 120.2989988
 136.8970012 132.6694997 120.9479988 137.3546612 133.2745914 120.5213643
  12.4390012  10.7114997 128.2449988  12.5280012  11.6554997 128.1129988
  11.8010012  10.4364997 127.5869988  12.3649081  10.8034830 128.1379614
  11.3720012   9.9664997 131.6639988  11.3340012   9.3204997 132.3689988
  11.0500012   9.5004997 130.8929988  11.3232333   9.8149408 131.6562978
   3.7410012   9.5814997 133.2569988   3.7820012   8.9554997 133.9799988
   4.4440012  10.2054997 133.4389988   3.8416363   9.5801196 133.3806044
  15.0780012  12.9054997 129.9649988  14.6380012  12.1854997 130.4159988
  15.0650012  13.6264997 130.5949988  15.0160226  12.9043731 130.1118494
   4.6640012  14.0314997 131.7919988   4.2950012  13.2294997 131.4219988
   5.6050012  13.8624997 131.8379988   4.7407289  13.8990153 131.7476316
   1.2740012   7.6914997 127.1849988   0.8270012   8.5374997 127.1659988
   0.7130012   7.1114997 126.6689988   1.1369900   7.7289916 127.1126801
   1.9850012   9.8534997 129.3099988   2.1980012   9.0834997 129.8379988
   2.7230012   9.9424997 128.7069988   2.1139044   9.7601968 129.3007123
  12.1900012  18.0104997 130.1769988  12.8100012  17.3334997 129.9039988
  11.9820012  17.7924997 131.0859988  12.2466726  17.8884800 130.2624812
   9.7620012  12.3994997 132.0699988  10.0660012  11.7134997 131.4749988
  10.4830012  12.5174997 132.6879988   9.9010671  12.3216304 132.0721816
  18.4250012   4.0004997 132.9309988  18.4740012   4.6104997 133.6659988
  18.8500012   4.4614997 132.2079988  18.4891746   4.1463796 132.9339175
  12.9030012   6.7934997 132.3969988  13.0450012   5.8474997 132.4179988
  12.7960012   7.0004997 131.4689988  12.9079919   6.6918246 132.2743408
   6.0570012   4.8944997 129.6699988   6.1010012   5.7544997 129.2509988
   5.6000012   4.3424997 129.0359988   6.0012240   4.9374422 129.5269864
  13.7800012   5.0254997 128.0709988  14.4260012   4.6964997 128.6949988
  14.2900012   5.5434997 127.4479988  13.9374299   5.0504450 128.0722731
   2.6780012   7.2914997 130.4319988   3.3310012   6.7414997 130.8639988
   2.7020012   7.0174997 129.5149988   2.7706683   7.1791466 130.3672123
   7.8340012   8.8414997 129.6469988   8.4500012   8.3154997 130.1569988
   7.2480012   8.2014997 129.2439988   7.8390810   8.6829208 129.6623173
  18.8160012   5.4784997 135.1659988  18.1280012   6.1364997 135.0709988
  18.8320012   5.2814997 136.1029988  18.7239540   5.5419819 135.2795990
   4.8680012   3.8124997 133.7439988   4.6490012   4.3424997 132.9779988
   4.2000012   4.0394997 134.3909988   4.7477600   3.9156906 133.7266379
  12.2370012  13.3124997 127.2879988  11.9410012  12.9904997 126.4369988
  11.9120012  14.2124997 127.3289988  12.1526371  13.3900215 127.1771801
   7.4370012  11.4884997 134.0309988   6.6970012  12.0864997 134.1349988
   8.1510012  12.0424997 133.7159988   7.4322237  11.6452831 134.0026465
  15.5440012   4.3164997 130.0509988  15.3280012   3.5504997 130.5839988
  16.1990012   4.7884997 130.5639988  15.6030632   4.2755889 130.1932861
   4.4610012   5.7044997 131.6959988   5.0750012   6.3374997 132.0689988
   4.9730012   5.2324997 131.0399988   4.6141981   5.7272267 131.6582908
   5.8440012  13.4524997 134.8179988   5.8390012  14.3324997 134.4399988
   4.9910012  13.3694997 135.2429988   5.7279464  13.5616117 134.8237907
   1.9650012  13.1234997 125.5999988   1.6930012  13.3524997 124.7119988
   2.0110012  13.9614997 126.0609988   1.9339482  13.2681318 125.5406273
  15.5900012  14.7454997 132.3129988  14.6490012  14.8034997 132.4749988
  15.8670012  15.6514997 132.1759988  15.4984679  14.8759443 132.3166815
  15.8910012   3.0314997 133.7309988  15.1550012   3.6424997 133.6929988
  16.5740012   3.4464997 133.2039988  15.8826541   3.1711374 133.6545832
   8.8940012   1.1184997 131.1959988   8.7770012   0.1694997 131.1419988
   8.0390012   1.4504997 131.4699988   8.7624212   1.0335571 131.2256497
  13.8420012  16.5264997 128.9379988  14.2680012  15.8194997 128.4529988
  14.1590012  17.3274997 128.5219988  13.9431683  16.5381017 128.8153680
  15.0020012  14.4274997 127.4469988  14.7440012  13.7374997 126.8359988
  15.0730012  13.9844997 128.2929988  14.9762856  14.2732124 127.4776885
  16.6880012  12.9934997 135.9239988  16.8280012  12.4024997 135.1849988
  16.8550012  13.8664997 135.5679988  16.7297411  13.0305428 135.7746894
  11.1610012   9.9554997 125.6969988  10.4490012  10.4904997 125.3449988
  11.8520012  10.0114997 125.0369988  11.1570132  10.0362543 125.5596289
  11.2140012   8.4134997 122.7359988  11.9150012   8.4354997 123.3869988
  11.5170012   7.7854997 122.0789988  11.3508133   8.3317070 122.7363369
  18.5300012   9.3334997 133.9899988  17.8770012  10.0284997 134.0799988
  18.9950012   9.5434997 133.1809988  18.5035274   9.4570643 133.8928462
  14.5660012  10.1654997 126.6489988  13.8340012  10.3934997 127.2219988
  15.0140012   9.4514997 127.1029988  14.5262725  10.1002145 126.7888816
  14.4640012   8.3394997 135.7159988  14.5440012   9.1024997 136.2879988
  13.8620012   8.6184997 135.0259988  14.3935756   8.4817134 135.7010589
   6.2120012  10.7954997 128.5309988   5.8810012  10.4254997 127.7129988
   6.8000012  10.1254997 128.8779988   6.2461873  10.6541156 128.4658102
   7.5780012  14.2234997 131.2119988   7.4840012  13.6454997 130.4559988
   8.3080012  13.8524997 131.7089988   7.6637387  14.0941663 131.1755342
   6.5780012   9.5644997 132.1649988   7.1440012   9.6854997 131.4019988
   6.8970012  10.2014997 132.8029988   6.6985474   9.6672219 132.1469862
  12.8870012  15.0674997 132.8989988  12.6470012  15.7294997 133.5469988
  12.6890012  14.2334997 133.3239988  12.8273808  15.0453134 133.0451524
   7.4580012  13.9634997 136.8819988   7.1470012  14.7454997 137.3369988
   6.8080012  13.8104997 136.1959988   7.3275558  14.0499105 136.8515871
  13.4370012   9.3274997 124.3339988  14.0170012   9.4774997 125.0809988
  13.8510012   9.7984997 123.6099988  13.5722997   9.4116578 124.3384058
   4.3780012  10.1614997 136.1099988   4.4490012  10.8124997 136.8089988
   3.4880012  10.2644997 135.7749988   4.2673005  10.2645427 136.1603495
  11.1640012  16.0644997 127.7689988  11.6380012  16.3594997 128.5459988
  10.6010012  16.8024997 127.5359988  11.1528184  16.2047247 127.8439628
   5.6980012  16.0354997 137.6449988   5.7050012  15.8994997 136.6979988
   4.7820012  15.9174997 137.8969988   5.5751714  16.0009430 137.5494666
  17.1360012   1.0774997 124.1469988  16.2360012   1.2164997 124.4419988
  17.3880012   1.9084997 123.7449988  17.0468702   1.2089074 124.1330205
   5.2020012   9.8654997 126.1199988   4.9100012  10.6334997 125.6299988
   4.5280012   9.2054997 125.9579988   5.0708111   9.8815587 126.0308978
  18.3250012  15.4434997 122.5229988  18.3990012  16.3824997 122.6939988
  19.2310012  15.1384997 122.4669988  18.4575100  15.5306722 122.5388119
   1.2950012  12.2284997 134.9349988   0.7940012  12.2004997 134.1199988
   1.3000012  11.3224997 135.2449988   1.2270944  12.1022396 134.8653226
   1.0450012  15.0084997 131.8189988   1.9910012  14.8644997 131.7999988
   0.9330012  15.7924997 132.3559988   1.1592727  15.0948046 131.8890072
  19.2430012  15.6744997 137.5019988  19.1940012  14.7194997 137.4649988
  18.4160012  15.9424997 137.9029988  19.1244940  15.5798998 137.5511375
  10.2220012  15.2484997 136.3779988  10.3090012  16.0744997 136.8529988
   9.3580012  14.9184997 136.6269988  10.1171964  15.3169878 136.4766549
  10.6360012  19.0204997 126.1839988  10.5610012  18.8994997 125.2369988
  10.6690012  19.9704997 126.3019988  10.6302068  19.1322646 126.0704967
   4.2890012  17.8094997 127.9649988   4.4420012  17.4614997 128.8429988
   3.4390012  17.4534997 127.7099988   4.1949166  17.7136216 128.0508079
  13.7380012  18.1744997 123.1859988  14.1130012  17.4304997 122.7149988
  13.7420012  17.9044997 124.1049988  13.7899125  18.0360986 123.2456483
  13.4070012  18.1004997 125.9349988  12.4710012  18.2004997 126.1139988
  13.6870012  17.3914997 126.5139988  13.3169553  18.0183406 126.0377087
  16.3950012   7.1674997 137.9819988  15.9880012   7.6484997 137.2609988
  16.4360012   6.2624997 137.6739988  16.3448437   7.1109374 137.8416683
   3.5440012  13.5514997 135.9789988   3.7600012  13.1904997 136.8379988
   2.6890012  13.1774997 135.7689988   3.4579292  13.4514111 136.0683386
   6.1630012   2.0214997 131.9739988   5.3010012   1.9344997 131.5659988
   6.1400012   2.8774997 132.4019988   6.0420409   2.1252883 131.9760589
  10.8260012   1.7434997 135.3489988  11.2460012   1.3284997 136.1019988
   9.8930012   1.5654997 135.4659988  10.7573644   1.6625900 135.4679539
  14.1520012   5.4994997 136.2019988  13.6380012   5.3734997 136.9999988
  13.9970012   6.4114997 135.9579988  14.0606852   5.6056132 136.2782158
  14.9150012  10.3604997 121.9639988  14.9570012  10.1374997 121.0339988
  15.7640012  10.7594997 122.1529988  15.0355280  10.3839438 121.8623554
  10.4870012   4.2364997 122.6339988  10.2340012   4.2554997 123.5569988
  10.2310012   3.3644997 122.3319988  10.4177481   4.1212558 122.7196175
   6.2540012   6.9874997 133.0689988   5.6120012   6.9464997 133.7779988
   6.2910012   7.9134997 132.8309988   6.1710664   7.1071430 133.1339219
   6.2510012   7.2084997 127.9809988   5.3580012   6.8674997 127.9219988
   6.7010012   6.8314997 127.2249988   6.1898130   7.1109631 127.8707702
  11.7860012   7.6244997 126.7979988  11.3770012   8.4394997 126.5069988
  12.5070012   7.4844997 126.1839988  11.8274537   7.7172018 126.6751342
  10.8880012   7.7994997 138.2859988  10.3260012   7.0954997 138.6069988
  11.7150012   7.6794997 138.7539988  10.9227095   7.6867883 138.3932330
  12.7910012   7.0704997 129.6119988  12.5960012   7.6754997 128.8969988
  12.9720012   6.2364997 129.1779988  12.7887614   7.0406300 129.4554405
   4.0040012   7.3074997 134.9359988   3.9660012   7.7074997 135.8049988
   3.5130012   6.4904997 135.0269988   3.9324684   7.2518069 135.0671059
   7.3700012   4.6814997 121.7349988   6.9390012   4.2364997 122.4649988
   6.6520012   5.0534997 121.2229988   7.2139438   4.6708940 121.7656799
   0.6120012   4.4234997 128.7869988   1.2430012   4.3944997 129.5059988
   1.0610012   3.9984997 128.0559988   0.7590918   4.3620836 128.7866441
   1.8860012   5.1694997 124.2109988   2.3600012   5.7604997 123.6259988
   1.1690012   5.7004997 124.5579988   1.8539341   5.3220867 124.1778836
  12.0550012   8.7084997 134.2829988  12.3780012   8.0774997 133.6399988
  11.6150012   8.1734997 134.9439988  12.0397484   8.5498387 134.2843198
   8.8320012   4.6354997 129.0669988   7.9210012   4.6924997 129.3559988
   9.3380012   4.5754997 129.8779988   8.7756899   4.6351941 129.2161184
   3.6610012   6.2644997 127.8939988   2.7710012   6.3644997 127.5539988
   3.9570012   5.4224997 127.5479988   3.5792823   6.1643545 127.8007213
   7.3140012   6.2644997 125.5509988   8.2450012   6.3934997 125.7289988
   7.0990012   6.9344997 124.9009988   7.4124247   6.3726565 125.4875747
  13.2370012   3.8704997 132.3319988  12.5610012   4.0014997 132.9959988
  12.7520012   3.7154997 131.5209988  13.0787146   3.8675157 132.3134469
   5.9880012   7.4594997 123.1169988   5.4450012   7.0794997 122.4259988
   6.8210012   7.6534997 122.6889988   6.0263631   7.4337125 122.9644501
  16.5250012  19.5424997 138.6079988  16.7250012  19.9664997 137.7739988
  17.1800012  19.8854997 139.2149988  16.6410072  19.6469857 138.5758592
   4.1230012  12.0164997 138.2159988   4.8550012  12.2704997 138.7779988
   3.3430012  12.2204997 138.7319988   4.1177073  12.0788160 138.3626151
  10.1520012   7.4234997 130.9539988  10.7170012   6.8764997 130.4069988
  10.0050012   6.9014997 131.7429988  10.2093380   7.2782259 130.9858695
   5.1540012   3.5594997 127.3729988   4.8370012   2.6574997 127.3369988
   5.9360012   3.5614997 126.8199988   5.2162408   3.4362474 127.2933569
   8.7790012   5.8114997 133.3679988   7.9430012   6.2654997 133.4789988
   9.3030012   6.0874997 134.1199988   8.7355416   5.9108660 133.4848119
   9.3230012  12.0244997 125.0529988   8.5780012  11.5174997 124.7309988
   9.1890012  12.0734997 125.9999988   9.2028776  11.9616940 125.1368647
  16.4730012  11.1574997 133.8399988  17.1150012  11.6144997 133.2959988
  15.6430012  11.2704997 133.3769988  16.4485963  11.2352704 133.7030177
  13.2210012   4.8384997 123.2519988  12.2820012   4.9504997 123.1009988
  13.5180012   5.6954997 123.5589988  13.1327583   4.9695981 123.2728337
  10.8420012  12.2084997 136.2899988  10.4970012  11.8274997 137.0969988
  10.6420012  13.1424997 136.3609988  10.7677527  12.2825135 136.4100689
  13.9390012   6.7054997 124.9129988  14.8310012   6.5684997 125.2319988
  13.9960012   7.4964997 124.3759988  14.0686504   6.7936052 124.8840818
   4.4480012  11.3194997 130.8229988   5.1930012  11.3174997 130.2219988
   4.5260012  10.4964997 131.3039988   4.5604995  11.2078887 130.8058282
  11.4490012  13.4834997 124.0789988  11.1530012  14.3094997 124.4599988
  10.7460012  12.8634997 124.2749988  11.3134914  13.5128199 124.1576443
   1.4560012   9.7804997 136.1379988   1.6790012   9.3624997 136.9699988
   0.8540012   9.1674997 135.7149988   1.4051759   9.6404668 136.1947022
   8.4720012   9.2974997 138.3509988   8.1760012   9.1314997 137.4559988
   9.4040012   9.0774997 138.3399988   8.5574166   9.2450640 138.2270536
  13.0930012  14.6704997 136.2409988  12.1920012  14.8534997 135.9729988
  13.1270012  14.9294997 137.1609988  12.9743139  14.7305849 136.3288099
  18.8240012   6.9154997 124.6079988  18.2700012   6.5194997 123.9359988
  18.9240012   7.8254997 124.3299988  18.7617059   6.9843586 124.4784401
  18.7870012  12.7154997 137.4449988  17.9360012  12.9534997 137.0779988
  19.3780012  12.6984997 136.6919988  18.7502487  12.7458258 137.2928893
  17.1190012  15.7014997 125.0729988  16.7460012  14.8754997 125.3819988
  17.3970012  15.5184997 124.1749988  17.1055222  15.5637430 124.9939473
  14.2800012  10.5094997 132.0939988  13.3510012  10.2774997 132.0669988
  14.7310012   9.7324997 131.7639988  14.2139216  10.3727238 132.0456917
   6.8230012  14.8374997 128.2269988   7.3500012  15.6104997 128.0269988
   5.9430012  15.0624997 127.9249988   6.7762031  14.9737545 128.1587912
   2.5780012   9.6994997 122.8139988   3.1940012  10.3264997 123.1939988
   1.7160012  10.0154997 123.0859988   2.5457698   9.8279430 122.9027183
   8.2500012  12.5004997 127.8029988   8.0090012  13.4254997 127.8449988
   7.5090012  12.0414997 128.1999988   8.1169225  12.5650933 127.8623742
   8.7650012  16.6494997 134.1189988   9.1270012  17.5044997 133.8849988
   9.2960012  16.3574997 134.8589988   8.8864473  16.7271060 134.1870855
   6.9330012  17.5224997 127.3489988   5.9830012  17.6274997 127.3999988
   7.2850012  18.3424997 127.6929988   6.8504195  17.6478800 127.4025502
  12.3090012  12.7484997 133.8189988  11.8830012  12.5214997 134.6459988
  12.8890012  12.0104997 133.6369988  12.3291868  12.6175299 133.9075830
  14.5120012  13.6774997 122.8929988  14.8650012  13.2974997 123.6969988
  13.5630012  13.5844997 122.9799988  14.4320918  13.6128956 123.0148532
  14.9670012  17.3004997 136.2889988  14.3660012  16.7454997 135.7929988
  15.2490012  17.9674997 135.6619988  14.9228804  17.3146625 136.1364849
  19.0150012  18.1574997 123.0939988  19.7590012  18.7434997 122.9539988
  18.3210012  18.7254997 123.4269988  19.0229899  18.3145798 123.1198778
   3.0900012   4.5334997 135.6959988   2.1970012   4.8724997 135.6279988
   2.9910012   3.6784997 136.1139988   2.9544164   4.4642588 135.7432235
  15.3780012  12.3504997 125.1199988  15.1000012  11.6224997 125.6759988
  16.3050012  12.4694997 125.3249988  15.4653124  12.2668802 125.2238845
   2.7410012  16.3384997 134.1309988   2.9580012  15.4064997 134.0999988
   2.9870012  16.6124997 135.0139988   2.8039549  16.2480636 134.2461763
   8.6030012  14.7894997 121.3399988   8.8420012  14.0414997 120.7929988
   8.3340012  14.4014997 122.1729988   8.5993675  14.6346638 121.3776865
   7.5400012  14.3594997 123.7959988   7.6860012  13.8394997 124.5859988
   7.5370012  15.2664997 124.1029988   7.5595792  14.4108842 123.9456117
   3.9930012  11.6124997 124.3069988   3.3070012  11.9644997 124.8739988
   4.5150012  12.3754997 124.0599988   3.9696852  11.7638578 124.3512118
  11.8240012   4.2744997 134.5859988  12.5230012   4.3484997 135.2359988
  11.4430012   3.4104997 134.7399988  11.8681767   4.1677624 134.6958322
  12.6090012   3.9264997 125.6829988  12.8290012   4.3984997 124.8799988
  13.1670012   4.3214997 126.3529988  12.7144968   4.0444285 125.6637331
  10.2770012  16.0574997 124.5459988   9.4610012  16.5544997 124.5979988
  10.8070012  16.5324997 123.9059988  10.2369161  16.1897722 124.4665956
   9.8090012   5.6544997 126.5179988  10.6210012   6.1594997 126.5639988
   9.5640012   5.5094997 127.4319988   9.8870520   5.7040375 126.6478517
  10.3440012   6.6404997 135.7019988  10.4630012   7.2144997 136.4599988
  11.0000012   5.9524997 135.8169988  10.4489025   6.6259858 135.8211321
  10.6920012   2.7354997 127.4559988  10.3460012   3.3534997 128.0999988
  11.3510012   3.2364997 126.9739988  10.7336968   2.8876278 127.4789383
   7.6160012  17.1014997 124.5269988   7.7760012  17.9004997 124.0269988
   7.4180012  17.4074997 125.4119988   7.6111637  17.2524020 124.5781144
   6.3500012   3.7984997 124.1429988   6.2670012   4.6874997 124.4899988
   7.2400012   3.5334997 124.3749988   6.4589469   3.8841430 124.2217626
  16.5490012   4.5474997 136.5369988  15.6320012   4.8104997 136.4499988
  16.8840012   4.5444997 135.6409988  16.4688613   4.5830761 136.4038837
  15.1510012   8.2984997 130.6329988  14.3530012   7.8834997 130.3049988
  15.5960012   7.6074997 131.1239988  15.1019885   8.1483543 130.6544889
   4.6090012  14.2264997 123.2039988   5.2010012  14.9254997 123.4799988
   5.0680012  13.7934997 122.4839988   4.7521142  14.2637049 123.1444830
   2.9250012   6.8904997 122.3199988   2.8800012   7.8294997 122.4979988
   2.0370012   6.6544997 122.0499988   2.7988574   6.9871892 122.3078912
  16.2370012  17.5544997 132.2559988  16.0820012  18.2324997 131.5979988
  17.1700012  17.6264997 132.4589988  16.3418657  17.6569546 132.1934360
   3.7330012   1.6724997 130.9929988   3.5040012   1.7314997 130.0649988
   3.2900012   0.8804997 131.2989988   3.6418530   1.5735753 130.9074786
   2.6630012  15.6124997 127.1529988   1.8310012  16.0854997 127.1799988
   3.2090012  16.1224997 126.5549988   2.6230352  15.7461332 127.0758463
   1.9510012  18.2254997 138.4829988   2.4920012  18.0084997 139.2429988
   1.4700012  17.4194997 138.2929988   1.9599951  18.0869270 138.5612576
   6.5490012  17.1444997 140.1029988   7.3160012  16.6854997 140.4439988
   6.5270012  16.9184997 139.1739988   6.6511275  17.0510186 140.0240101
  10.6410012  16.6524997 121.4789988   9.9970012  16.0214997 121.7999988
  11.4030012  16.1214997 121.2469988  10.6558077  16.4942920 121.4916011
  13.1260012  15.5244997 138.8329988  12.7750012  14.6684997 139.0759988
  13.8520012  15.6674997 139.4399988  13.1760769  15.4265636 138.9483619
  15.2450012  16.4694997 121.7119988  15.5280012  15.6754997 122.1649988
  15.9850012  16.7024997 121.1519988  15.3838006  16.3923376 121.6982715
   1.8580012  12.0354997 139.4369988   2.0020012  11.1334997 139.1509988
   1.0860012  12.3214997 138.9499988   1.7732753  11.9506816 139.3319505
   6.2000012  12.3794997 121.5699988   6.2640012  11.5854997 122.1009988
   6.8530012  12.2604997 120.8799988   6.2970241  12.2547148 121.5494317
   8.5140012  12.0054997 138.8699988   8.1850012  12.2764997 138.0129988
   8.6660012  11.0644997 138.7829988   8.4894809  11.9153862 138.7408244
  11.5520012  13.4264997 121.3059988  11.2830012  13.6064997 122.2069988
  11.3460012  12.5004997 121.1739988  11.4873427  13.3260261 121.4115073
  14.2480012  11.9214997 136.2529988  14.9940012  12.5094997 136.1339988
  13.4910012  12.5034997 136.3169988  14.2477820  12.0807143 136.2453590
   2.6910012   9.2354997 138.8569988   3.0990012   8.3784997 138.7359988
   2.4310012   9.2504997 139.7779988   2.7117568   9.1200807 138.9649588
   7.3490012  10.3514997 123.8759988   6.8890012   9.8674997 124.5619988
   7.6040012   9.6834997 123.2399988   7.3204902  10.1948731 123.8839334
   6.6380012   8.2444997 136.2319988   6.0200012   8.9194997 136.5119988
   6.9820012   8.5654997 135.3979988   6.5999132   8.3802411 136.1576262
   8.4200012   8.5944997 122.1379988   8.2400012   8.4404997 121.2109988
   9.3700012   8.7024997 122.1829988   8.5237776   8.5880175 122.0171843
  11.6580012  10.7164997 139.5089988  12.6110012  10.7994997 139.4819988
  11.4970012  10.0044997 140.1289988  11.7666426  10.6316746 139.5890579
  17.8100012  10.9494997 121.5839988  17.5360012  10.5244997 120.7709988
  17.8490012  11.8804997 121.3669988  17.7777699  11.0172484 121.4433610
   6.9770012   5.5994997 137.3139988   7.1270012   4.8704997 136.7119988
   6.9800012   6.3764997 136.7549988   6.9979302   5.6047851 137.1560692
   7.3900012   3.9694997 134.8069988   7.9260012   4.4204997 134.1549988
   6.5380012   3.8614997 134.3839988   7.3482178   4.0166390 134.6605756
   8.9720012   9.4084997 135.0459988   9.7220012   9.2524997 134.4729988
   8.6330012  10.2604997 134.7709988   9.0288921   9.5022968 134.9303561
  13.3870012   7.2234997 140.0749988  13.5800012   6.2924997 139.9629988
  14.2450012   7.6484997 140.0639988  13.5292934   7.1536531 140.0582031
  14.7040012  10.0124997 138.1519988  14.4230012  10.7214997 137.5739988
  15.6470012   9.9394997 138.0009988  14.7929291  10.0996711 138.0524967
   5.4560012   6.7974997 139.2259988   4.6890012   6.2654997 139.0149988
   6.1350012   6.4874997 138.6259988   5.4427877   6.6828300 139.1160716
   8.1960012   1.4254997 135.2379988   8.0970012   2.3724997 135.1329988
   7.4530012   1.0534997 134.7619988   8.0821184   1.5045863 135.1593621
   9.4600012   5.7474997 138.8019988   9.2240012   5.5274997 139.7029988
   8.6760012   5.5404997 138.2919988   9.3218504   5.6894586 138.8563431
  12.1750012   4.8744997 137.8769988  11.2280012   4.9064997 138.0099988
  12.4880012   4.2494997 138.5309988  12.0876707   4.7943998 137.9836060
  13.8090012   3.5084997 139.8829988  13.7130012   2.5564997 139.8769988
  13.4880012   3.7774997 140.7429988  13.7524070   3.4144035 139.9985441
   3.6360012   4.7184997 138.9299988   3.8480012   4.0114997 138.3199988
   3.5250012   4.2804997 139.7739988   3.6499721   4.5627084 138.9606843
   8.4170012   0.7194997 137.9089988   9.1290012   0.0794997 137.8949988
   8.3160012   0.9864997 136.9959988   8.5008066   0.6680079 137.7835677
   8.7710012   2.4024997 139.9629988   8.6390012   1.9264997 139.1429988
   8.1720012   3.1464997 139.9079988   8.6719071   2.4379618 139.8432886
   8.3170012  19.2854997 123.1389988   9.2500012  19.4434997 123.2829988
   8.0530012  19.9604997 122.5149988   8.4089888  19.3984510 123.0742842
   1.8860012  13.9214997 122.6219988   2.8000012  14.0004997 122.8959988
   1.8930012  13.2344997 121.9559988   2.0121131  13.8393961 122.5694393
   0.5350012  19.3144997 127.6999988  -0.1119988  18.8524997 127.1669988
   0.8890012  18.6424997 128.2819988   0.4943849  19.1604723 127.7057959
   1.4050012  17.3954997 129.5039988   1.0700012  16.5154997 129.6759988
   1.6270012  17.7404997 130.3689988   1.3891783  17.3217501 129.6444208
  18.9530012  18.2044997 132.4849988  18.9320012  18.3894997 133.4239988
  19.6440012  18.7734997 132.1439988  19.0434618  18.3066606 132.5673864
  18.5170012  17.7724997 135.4069988  18.0290012  17.0364997 135.0349988
  19.0660012  17.3784997 136.0849988  18.5244820  17.6185889 135.4477813
  16.9670012  13.5614997 140.0449988  16.1010012  13.4564997 140.4389988
  17.3440012  14.3204997 140.4909988  16.8993308  13.6496900 140.1592393
  18.2680012  11.8184997 125.5589988  19.1180012  12.2394997 125.6859988
  18.2740012  11.0784997 126.1659988  18.3851372  11.7760803 125.6584344
  18.6630012   9.8714997 127.3819988  17.9360012   9.3924997 127.7799988
  19.2440012  10.0774997 128.1149988  18.6420473   9.8338103 127.5354528
  18.4220012  12.6564997 132.3299988  19.2550012  12.2784997 132.0499988
  18.5340012  13.5994997 132.2109988  18.5512647  12.7322218 132.2755487
  16.9080012  15.5344997 134.6369988  16.2610012  15.8594997 135.2629988
  16.3910012  15.0944997 133.9629988  16.7494029  15.5195004 134.6315827
  18.9310012   9.7724997 123.7739988  18.4090012  10.1294997 123.0549988
  18.8980012  10.4474997 124.4519988  18.8551634   9.9125413 123.7673145
  17.2800012   7.0124997 122.3239988  17.3760012   7.6794997 121.6439988
  17.1400012   6.1964997 121.8429988  17.2742272   6.9935655 122.1658347
  16.4490012   8.3924997 127.9449988  16.2990012   7.4474997 127.9249988
  16.0960012   8.6734997 128.7889988  16.3807448   8.3011481 128.0563705
   1.4850012  10.4704997 131.9559988   1.6690012  10.3884997 131.0199988
   2.3340012  10.3464997 132.3789988   1.6250151  10.4425073 131.8851451
  17.3060012  10.3624997 137.5839988  17.8890012   9.6284997 137.7759988
  17.8700012  11.1344997 137.6309988  17.4619769  10.3664227 137.6166159
  18.8020012   8.2654997 138.2689988  17.9390012   7.8864997 138.1029988
  19.4070012   7.5264997 138.1939988  18.7656119   8.1138268 138.2361528
  16.5270012   4.4204997 121.4419988  17.1380012   4.0494997 122.0789988
  15.6910012   3.9994997 121.6379988  16.4975032   4.3127554 121.5557035
  16.1600012   5.9754997 126.4079988  16.4400012   5.0684997 126.5319988
  16.9190012   6.4094997 126.0189988  16.3009277   5.9100942 126.3723682
  16.7720012   6.5564997 131.8439988  17.7050012   6.7684997 131.8089988
  16.5370012   6.6584997 132.7659988  16.8679244   6.5993100 131.9638892
  16.8010012   7.2934997 134.6199988  15.9580012   7.5614997 134.9859988
  17.2430012   8.1154997 134.4089988  16.7454158   7.4413291 134.6415491
   1.0820012   5.7414997 138.0969988   2.0020012   5.6194997 138.3329988
   0.6330012   4.9914997 138.4859988   1.1471580   5.6233727 138.1819006
  19.0840012   1.2734997 139.9729988  19.4340012   0.6194997 139.3679988
  19.2310012   2.1104997 139.5329988  19.1517887   1.2971548 139.8306858
  16.7730012   3.2384997 126.4559988  16.9560012   2.7894997 127.2819988
  16.1740012   2.6534997 125.9929988  16.7170202   3.0979975 126.5063275
   2.3030012   4.0534997 130.9879988   2.7490012   3.2614997 131.2899988
   2.7700012   4.7694997 131.4179988   2.4270831   4.0420685 131.0874006
   0.6070012   7.0524997 132.0569988   1.0990012   6.8314997 131.2659988
   0.9700012   7.8934997 132.3379988   0.7233126   7.1358357 131.9867531
  18.6040012   3.3824997 138.3219988  17.6860012   3.6534997 138.2869988
  18.7270012   2.8474997 137.5379988  18.4949729   3.3472508 138.2111923
  18.6400012   3.3054997 122.9839988  19.0520012   2.5844997 122.5089988
  19.3220012   3.9754997 123.0429988  18.7885885   3.2972368 122.9268915
   0.9210012   3.3104997 126.1109988  -0.0039988   3.5194997 125.9819988
   1.3750012   3.7944997 125.4209988   0.8557292   3.4045343 126.0000720
  15.6920012  18.2944997 128.0569988  16.3440012  17.9474997 127.4489988
  16.2020012  18.7834997 128.7029988  15.8502637  18.3130597 128.0610236
   0.8850012   2.0484997 134.4549988   0.2200012   1.8024997 135.0989988
   0.4420012   2.6704997 133.8779988   0.7341318   2.0989410 134.4650898
   3.0770012  15.2234997 138.5999988   2.2560012  15.3984997 138.1389988
   2.8240012  15.1504997 139.5199988   2.9305585  15.2375544 138.6613561
   6.0310012  16.1984997 134.8579988   5.6060012  17.0074997 134.5759988
   6.9350012  16.2834997 134.5559988   6.0949975  16.3209300 134.7784816
  10.3420012  17.5974997 137.8179988  10.5270012  17.2634997 138.6959988
  11.1880012  17.9064997 137.4959988  10.4817539  17.5936047 137.8945605
  12.6870012  18.8834997 137.0619988  13.3640012  18.2504997 136.8219988
  13.0090012  19.2844997 137.8689988  12.8231637  18.8511154 137.1382793
  17.6040012   1.4724997 136.1409988  16.7920012   1.7974997 135.7539988
  17.8370012   0.7124997 135.6079988  17.5242203   1.4142758 136.0158880
   3.4330012  19.4544997 134.9059988   2.7120012  19.8944997 134.4549988
   3.0670012  19.2034997 135.7539988   3.2849651  19.4807242 134.9589640
   5.9000012  19.0544997 133.9359988   5.0350012  19.1264997 134.3399988
   5.8450012  19.6014997 133.1519988   5.7742085  19.1382685 133.8853362
  10.6100012  18.9424997 133.1109988  10.1540012  19.4714997 132.4569988
  10.7730012  19.5454997 133.8359988  10.5696068  19.0964607 133.1194838
  12.9380012  17.8204997 134.0559988  12.0330012  17.9854997 133.7899988
  13.3670012  18.6734997 133.9909988  12.8721324  17.9584339 134.0107976
  15.5420012  19.3904997 134.3509988  15.3600012  20.3064997 134.1409988
  15.7190012  18.9804997 133.5049988  15.5410210  19.4604822 134.2077885
   2.8470012  18.0774997 131.8159988   2.8290012  17.6524997 132.6729988
   3.6520012  17.7594997 131.4069988   2.9533529  17.9763013 131.8780946
   4.9890012  16.7874997 130.4709988   4.7700012  15.8714997 130.6409988
   5.8130012  16.9274997 130.9369988   5.0704420  16.6810520 130.5572774
   7.5260012  17.2574997 131.3199988   7.7390012  16.3694997 131.0329988
   7.5900012  17.2234997 132.2739988   7.5638232  17.1313102 131.4097397
  11.0340012   2.9214997 130.4639988  10.3600012   2.2924997 130.7199988
  11.5980012   2.4374997 129.8609988  11.0179230   2.7698744 130.4175340
  16.1770012   1.0294997 130.5769988  16.7810012   1.5764997 130.0749988
  15.3070012   1.3484997 130.3359988  16.1421208   1.1475137 130.4756886
  17.9040012   2.1674997 128.9099988  18.5160012   1.6534997 128.3829988
  18.2860012   3.0454997 128.9329988  18.0393371   2.2157866 128.8410041
   3.3610012   1.5554997 128.2859988   2.5840012   1.3214997 127.7789988
   3.8910012   0.7584997 128.2949988   3.3262330   1.4156988 128.2177742
   2.1970012   1.3534997 124.0899988   2.6360012   1.9644997 123.4979988
   1.5640012   1.8914997 124.5639988   2.1714514   1.5099257 124.0730930
   7.9400012   1.4824997 128.0999988   8.8150012   1.8704997 128.0699988
   7.8040012   1.2674997 129.0219988   8.0413695   1.5065184 128.2206440
  13.4970012   1.5124997 129.7489988  13.5730012   1.6074997 128.7989988
  13.2220012   0.6044997 129.8779988  13.4702321   1.4027867 129.6365079
  14.8500012   1.5384997 125.4409988  14.1480012   2.1534997 125.2309988
  14.4060012   0.7004997 125.5719988  14.6936450   1.5095639 125.4299000
   2.0980012  17.3014997 124.9869988   1.4130012  17.2634997 124.3199988
   2.1020012  18.2144997 125.2759988   2.0046998  17.4196733 124.9346771
   4.0580012   3.2694997 122.5319988   4.5500012   2.6394997 122.0049988
   4.6820012   3.5654997 123.1949988   4.2095688   3.2233804 122.5495482
   9.0840012   3.5624997 124.9889988   9.2620012   2.9164997 125.6719988
   9.0310012   4.3964997 125.4559988   9.1011999   3.5868009 125.1455917
  10.9630012  18.5114997 123.3849988  11.8290012  18.8774997 123.2069988
  10.7160012  18.0714997 122.5709988  11.0482392  18.5021756 123.2506289
  17.6720012  18.0744997 126.0639988  17.4770012  17.3264997 125.4989988
  17.6330012  18.8324997 125.4809988  17.6400380  18.0746099 125.9078384
   3.3190012   2.0694997 137.8039988   2.9530012   1.3044997 138.2459988
   4.2320012   2.0984997 138.0899988   3.3922736   1.9685640 137.9032502
   5.2920012   1.4204997 139.3399988   6.1900012   1.1464997 139.1549988
   4.9050012   0.6774997 139.8039988   5.3626612   1.2825914 139.3773643
   3.9160012  18.2214997 122.0129988   3.6490012  18.5084997 122.8859988
   4.6880012  17.6754997 122.1649988   3.9837488  18.1870294 122.1531050
  13.7130012   0.7524997 139.5219988  13.7900012   0.3264997 140.3759988
  14.6070012   0.7664997 139.1789988  13.8443428   0.6960879 139.5925310
  16.8890012  16.8254997 138.2139988  16.1070012  16.6394997 137.6939988
  16.8170012  17.7544997 138.4319988  16.7722274  16.9256643 138.1723018
  31.2950012  10.7114997 128.2449988  31.3840012  11.6554997 128.1129988
  30.6570012  10.4364997 127.5869988  31.2209081  10.8034830 128.1379614
  30.2280012   9.9664997 131.6639988  30.1900012   9.3204997 132.3689988
  29.9060012   9.5004997 130.8929988  30.1792333   9.8149408 131.6562978
  22.5970012   9.5814997 133.2569988  22.6380012   8.9554997 133.9799988
  23.3000012  10.2054997 133.4389988  22.6976363   9.5801196 133.3806044
  33.9340012  12.9054997 129.9649988  33.4940012  12.1854997 130.4159988
  33.9210012  13.6264997 130.5949988  33.8720226  12.9043731 130.1118494
  23.5200012  14.0314997 131.7919988  23.1510012  13.2294997 131.4219988
  24.4610012  13.8624997 131.8379988  23.5967289  13.8990153 131.7476316
  20.1300012   7.6914997 127.1849988  19.6830012   8.5374997 127.1659988
  19.5690012   7.1114997 126.6689988  19.9929900   7.7289916 127.1126801
  20.8410012   9.8534997 129.3099988  21.0540012   9.0834997 129.8379988
  21.5790012   9.9424997 128.7069988  20.9699044   9.7601968 129.3007123
  31.0460012  18.0104997 130.1769988  31.6660012  17.3334997 129.9039988
  30.8380012  17.7924997 131.0859988  31.1026726  17.8884800 130.2624812
  28.6180012  12.3994997 132.0699988  28.9220012  11.7134997 131.4749988
  29.3390012  12.5174997 132.6879988  28.7570671  12.3216305 132.0721816
  37.2810012   4.0004997 132.9309988  37.3300012   4.6104997 133.6659988
  37.7060012   4.4614997 132.2079988  37.3451746   4.1463796 132.9339175
  31.7590012   6.7934997 132.3969988  31.9010012   5.8474997 132.4179988
  31.6520012   7.0004997 131.4689988  31.7639919   6.6918246 132.2743408
  24.9130012   4.8944997 129.6699988  24.9570012   5.7544997 129.2509988
  24.4560012   4.3424997 129.0359988  24.8572240   4.9374422 129.5269864
  32.6360012   5.0254997 128.0709988  33.2820012   4.6964997 128.6949988
  33.1460012   5.5434997 127.4479988  32.7934299   5.0504450 128.0722731
  21.5340012   7.2914997 130.4319988  22.1870012   6.7414997 130.8639988
  21.5580012   7.0174997 129.5149988  21.6266683   7.1791466 130.3672123
  26.6900012   8.8414997 129.6469988  27.3060012   8.3154997 130.1569988
  26.1040012   8.2014997 129.2439988  26.6950810   8.6829208 129.6623173
  37.6720012   5.4784997 135.1659988  36.9840012   6.1364997 135.0709988
  37.6880012   5.2814997 136.1029988  37.5799540   5.5419819 135.2795990
  23.7240012   3.8124997 133.7439988  23.5050012   4.3424997 132.9779988
  23.0560012   4.0394997 134.3909988  23.6037600   3.9156906 133.7266379
  31.0930012  13.3124997 127.2879988  30.7970012  12.9904997 126.4369988
  30.7680012  14.2124997 127.3289988  31.0086371  13.3900215 127.1771801
  26.2930012  11.4884997 134.0309988  25.5530012  12.0864997 134.1349988
  27.0070012  12.0424997 133.7159988  26.2882237  11.6452831 134.0026465
  34.4000012   4.3164997 130.0509988  34.1840012   3.5504997 130.5839988
  35.0550012   4.7884997 130.5639988  34.4590632   4.2755889 130.1932861
  23.3170012   5.7044997 131.6959988  23.9310012   6.3374997 132.0689988
  23.8290012   5.2324997 131.0399988  23.4701981   5.7272267 131.6582908
  24.7000012  13.4524997 134.8179988  24.6950012  14.3324997 134.4399988
  23.8470012  13.3694997 135.2429988  24.5839464  13.5616117 134.8237907
  20.8210012  13.1234997 125.5999988  20.5490012  13.3524997 124.7119988
  20.8670012  13.9614997 126.0609988  20.7899482  13.2681318 125.5406273
  34.4460012  14.7454997 132.3129988  33.5050012  14.8034997 132.4749988
  34.7230012  15.6514997 132.1759988  34.3544679  14.8759443 132.3166815
  34.7470012   3.0314997 133.7309988  34.0110012   3.6424997 133.6929988
  35.4300012   3.4464997 133.2039988  34.7386541   3.1711374 133.6545832
  27.7500012   1.1184997 131.1959988  27.6330012   0.1694997 131.1419988
  26.8950012   1.4504997 131.4699988  27.6184212   1.0335571 131.2256497
  32.6980012  16.5264997 128.9379988  33.1240012  15.8194997 128.4529988
  33.0150012  17.3274997 128.5219988  32.7991683  16.5381017 128.8153680
  33.8580012  14.4274997 127.4469988  33.6000012  13.7374997 126.8359988
  33.9290012  13.9844997 128.2929988  33.8322856  14.2732124 127.4776885
  35.5440012  12.9934997 135.9239988  35.6840012  12.4024997 135.1849988
  35.7110012  13.8664997 135.5679988  35.5857411  13.0305428 135.7746894
  30.0170012   9.9554997 125.6969988  29.3050012  10.4904997 125.3449988
  30.7080012  10.0114997 125.0369988  30.0130132  10.0362543 125.5596289
  30.0700012   8.4134997 122.7359988  30.7710012   8.4354997 123.3869988
  30.3730012   7.7854997 122.0789988  30.2068133   8.3317070 122.7363369
  37.3860012   9.3334997 133.9899988  36.7330012  10.0284997 134.0799988
  37.8510012   9.5434997 133.1809988  37.3595274   9.4570643 133.8928462
  33.4220012  10.1654997 126.6489988  32.6900012  10.3934997 127.2219988
  33.8700012   9.4514997 127.1029988  33.3822725  10.1002145 126.7888816
  33.3200012   8.3394997 135.7159988  33.4000012   9.1024997 136.2879988
  32.7180012   8.6184997 135.0259988  33.2495756   8.4817134 135.7010589
  25.0680012  10.7954997 128.5309988  24.7370012  10.4254997 127.7129988
  25.6560012  10.1254997 128.8779988  25.1021873  10.6541156 128.4658102
  26.4340012  14.2234997 131.2119988  26.3400012  13.6454997 130.4559988
  27.1640012  13.8524997 131.7089988  26.5197387  14.0941663 131.1755342
  25.4340012   9.5644997 132.1649988  26.0000012   9.6854997 131.4019988
  25.7530012  10.2014997 132.8029988  25.5545474   9.6672219 132.1469862
  31.7430012  15.0674997 132.8989988  31.5030012  15.7294997 133.5469988
  31.5450012  14.2334997 133.3239988  31.6833808  15.0453134 133.0451524
  26.3140012  13.9634997 136.8819988  26.0030012  14.7454997 137.3369988
  25.6640012  13.8104997 136.1959988  26.1835558  14.0499105 136.8515871
  32.2930012   9.3274997 124.3339988  32.8730012   9.4774997 125.0809988
  32.7070012   9.7984997 123.6099988  32.4282997   9.4116578 124.3384058
  23.2340012  10.1614997 136.1099988  23.3050012  10.8124997 136.8089988
  22.3440012  10.2644997 135.7749988  23.1233005  10.2645427 136.1603495
  30.0200012  16.0644997 127.7689988  30.4940012  16.3594997 128.5459988
  29.4570012  16.8024997 127.5359988  30.0088184  16.2047247 127.8439628
  24.5540012  16.0354997 137.6449988  24.5610012  15.8994997 136.6979988
  23.6380012  15.9174997 137.8969988  24.4311714  16.0009430 137.5494666
  35.9920012   1.0774997 124.1469988  35.0920012   1.2164997 124.4419988
  36.2440012   1.9084997 123.7449988  35.9028702   1.2089074 124.1330205
  24.0580012   9.8654997 126.1199988  23.7660012  10.6334997 125.6299988
  23.3840012   9.2054997 125.9579988  23.9268111   9.8815587 126.0308978
  37.1810012  15.4434997 122.5229988  37.2550012  16.3824997 122.6939988
  38.0870012  15.1384997 122.4669988  37.3135100  15.5306722 122.5388119
  20.1510012  12.2284997 134.9349988  19.6500012  12.2004997 134.1199988
  20.1560012  11.3224997 135.2449988  20.0830944  12.1022396 134.8653226
  19.9010012  15.0084997 131.8189988  20.8470012  14.8644997 131.7999988
  19.7890012  15.7924997 132.3559988  20.0152727  15.0948046 131.8890072
  38.0990012  15.6744997 137.5019988  38.0500012  14.7194997 137.4649988
  37.2720012  15.9424997 137.9029988  37.9804940  15.5798998 137.5511375
  29.0780012  15.2484997 136.3779988  29.1650012  16.0744997 136.8529988
  28.2140012  14.9184997 136.6269988  28.9731964  15.3169878 136.4766549
  29.4920012  19.0204997 126.1839988  29.4170012  18.8994997 125.2369988
  29.5250012  19.9704997 126.3019988  29.4862068  19.1322646 126.0704967
  23.1450012  17.8094997 127.9649988  23.2980012  17.4614997 128.8429988
  22.2950012  17.4534997 127.7099988  23.0509166  17.7136217 128.0508079
  32.5940012  18.1744997 123.1859988  32.9690012  17.4304997 122.7149988
  32.5980012  17.9044997 124.1049988  32.6459125  18.0360986 123.2456483
  32.2630012  18.1004997 125.9349988  31.3270012  18.2004997 126.1139988
  32.5430012  17.3914997 126.5139988  32.1729553  18.0183406 126.0377087
  35.2510012   7.1674997 137.9819988  34.8440012   7.6484997 137.2609988
  35.2920012   6.2624997 137.6739988  35.2008437   7.1109374 137.8416683
  22.4000012  13.5514997 135.9789988  22.6160012  13.1904997 136.8379988
  21.5450012  13.1774997 135.7689988  22.3139292  13.4514111 136.0683386
  25.0190012   2.0214997 131.9739988  24.1570012   1.9344997 131.5659988
  24.9960012   2.8774997 132.4019988  24.8980409   2.1252883 131.9760589
  29.6820012   1.7434997 135.3489988  30.1020012   1.3284997 136.1019988
  28.7490012   1.5654997 135.4659988  29.6133644   1.6625900 135.4679539
  33.0080012   5.4994997 136.2019988  32.4940012   5.3734997 136.9999988
  32.8530012   6.4114997 135.9579988  32.9166852   5.6056132 136.2782158
  33.7710012  10.3604997 121.9639988  33.8130012  10.1374997 121.0339988
  34.6200012  10.7594997 122.1529988  33.8915280  10.3839438 121.8623554
  29.3430012   4.2364997 122.6339988  29.0900012   4.2554997 123.5569988
  29.0870012   3.3644997 122.3319988  29.2737481   4.1212558 122.7196175
  25.1100012   6.9874997 133.0689988  24.4680012   6.9464997 133.7779988
  25.1470012   7.9134997 132.8309988  25.0270664   7.1071430 133.1339219
  25.1070012   7.2084997 127.9809988  24.2140012   6.8674997 127.9219988
  25.5570012   6.8314997 127.2249988  25.0458130   7.1109631 127.8707702
  30.6420012   7.6244997 126.7979988  30.2330012   8.4394997 126.5069988
  31.3630012   7.4844997 126.1839988  30.6834537   7.7172018 126.6751342
  29.7440012   7.7994997 138.2859988  29.1820012   7.0954997 138.6069988
  30.5710012   7.6794997 138.7539988  29.7787095   7.6867883 138.3932330
  31.6470012   7.0704997 129.6119988  31.4520012   7.6754997 128.8969988
  31.8280012   6.2364997 129.1779988  31.6447614   7.0406300 129.4554405
  22.8600012   7.3074997 134.9359988  22.8220012   7.7074997 135.8049988
  22.3690012   6.4904997 135.0269988  22.7884684   7.2518069 135.0671059
  26.2260012   4.6814997 121.7349988  25.7950012   4.2364997 122.4649988
  25.5080012   5.0534997 121.2229988  26.0699438   4.6708940 121.7656799
  19.4680012   4.4234997 128.7869988  20.0990012   4.3944997 129.5059988
  19.9170012   3.9984997 128.0559988  19.6150918   4.3620836 128.7866441
  20.7420012   5.1694997 124.2109988  21.2160012   5.7604997 123.6259988
  20.0250012   5.7004997 124.5579988  20.7099341   5.3220867 124.1778836
  30.9110012   8.7084997 134.2829988  31.2340012   8.0774997 133.6399988
  30.4710012   8.1734997 134.9439988  30.8957484   8.5498387 134.2843198
  27.6880012   4.6354997 129.0669988  26.7770012   4.6924997 129.3559988
  28.1940012   4.5754997 129.8779988  27.6316899   4.6351941 129.2161184
  22.5170012   6.2644997 127.8939988  21.6270012   6.3644997 127.5539988
  22.8130012   5.4224997 127.5479988  22.4352823   6.1643545 127.8007213
  26.1700012   6.2644997 125.5509988  27.1010012   6.3934997 125.7289988
  25.9550012   6.9344997 124.9009988  26.2684247   6.3726565 125.4875747
  32.0930012   3.8704997 132.3319988  31.4170012   4.0014997 132.9959988
  31.6080012   3.7154997 131.5209988  31.9347146   3.8675157 132.3134469
  24.8440012   7.4594997 123.1169988  24.3010012   7.0794997 122.4259988
  25.6770012   7.6534997 122.6889988  24.8823631   7.4337125 122.9644501
  35.3810012  19.5424997 138.6079988  35.5810012  19.9664997 137.7739988
  36.0360012  19.8854997 139.2149988  35.4970072  19.6469857 138.5758592
  22.9790012  12.0164997 138.2159988  23.7110012  12.2704997 138.7779988
  22.1990012  12.2204997 138.7319988  22.9737073  12.0788160 138.3626151
  29.0080012   7.4234997 130.9539988  29.5730012   6.8764997 130.4069988
  28.8610012   6.9014997 131.7429988  29.0653380   7.2782259 130.9858695
  24.0100012   3.5594997 127.3729988  23.6930012   2.6574997 127.3369988
  24.7920012   3.5614997 126.8199988  24.0722408   3.4362474 127.2933569
  27.6350012   5.8114997 133.3679988  26.7990012   6.2654997 133.4789988
  28.1590012   6.0874997 134.1199988  27.5915416   5.9108660 133.4848119
  28.1790012  12.0244997 125.0529988  27.4340012  11.5174997 124.7309988
  28.0450012  12.0734997 125.9999988  28.0588776  11.9616940 125.1368647
  35.3290012  11.1574997 133.8399988  35.9710012  11.6144997 133.2959988
  34.4990012  11.2704997 133.3769988  35.3045963  11.2352704 133.7030177
  32.0770012   4.8384997 123.2519988  31.1380012   4.9504997 123.1009988
  32.3740012   5.6954997 123.5589988  31.9887583   4.9695981 123.2728337
  29.6980012  12.2084997 136.2899988  29.3530012  11.8274997 137.0969988
  29.4980012  13.1424997 136.3609988  29.6237527  12.2825135 136.4100689
  32.7950012   6.7054997 124.9129988  33.6870012   6.5684997 125.2319988
  32.8520012   7.4964997 124.3759988  32.9246504   6.7936052 124.8840818
  23.3040012  11.3194997 130.8229988  24.0490012  11.3174997 130.2219988
  23.3820012  10.4964997 131.3039988  23.4164995  11.2078887 130.8058282
  30.3050012  13.4834997 124.0789988  30.0090012  14.3094997 124.4599988
  29.6020012  12.8634997 124.2749988  30.1694914  13.5128199 124.1576443
  20.3120012   9.7804997 136.1379988  20.5350012   9.3624997 136.9699988
  19.7100012   9.1674997 135.7149988  20.2611759   9.6404668 136.1947022
  27.3280012   9.2974997 138.3509988  27.0320012   9.1314997 137.4559988
  28.2600012   9.0774997 138.3399988  27.4134166   9.2450640 138.2270536
  31.9490012  14.6704997 136.2409988  31.0480012  14.8534997 135.9729988
  31.9830012  14.9294997 137.1609988  31.8303139  14.7305849 136.3288099
  37.6800012   6.9154997 124.6079988  37.1260012   6.5194997 123.9359988
  37.7800012   7.8254997 124.3299988  37.6177059   6.9843586 124.4784401
  37.6430012  12.7154997 137.4449988  36.7920012  12.9534997 137.0779988
  38.2340012  12.6984997 136.6919988  37.6062487  12.7458258 137.2928893
  35.9750012  15.7014997 125.0729988  35.6020012  14.8754997 125.3819988
  36.2530012  15.5184997 124.1749988  35.9615222  15.5637430 124.9939473
  33.1360012  10.5094997 132.0939988  32.2070012  10.2774997 132.0669988
  33.5870012   9.7324997 131.7639988  33.0699216  10.3727238 132.0456917
  25.6790012  14.8374997 128.2269988  26.2060012  15.6104997 128.0269988
  24.7990012  15.0624997 127.9249988  25.6322031  14.9737545 128.1587912
  21.4340012   9.6994997 122.8139988  22.0500012  10.3264997 123.1939988
  20.5720012  10.0154997 123.0859988  21.4017698   9.8279430 122.9027183
  27.1060012  12.5004997 127.8029988  26.8650012  13.4254997 127.8449988
  26.3650012  12.0414997 128.1999988  26.9729225  12.5650933 127.8623742
  27.6210012  16.6494997 134.1189988  27.9830012  17.5044997 133.8849988
  28.1520012  16.3574997 134.8589988  27.7424473  16.7271060 134.1870855
  25.7890012  17.5224997 127.3489988  24.8390012  17.6274997 127.3999988
  26.1410012  18.3424997 127.6929988  25.7064195  17.6478800 127.4025502
  31.1650012  12.7484997 133.8189988  30.7390012  12.5214997 134.6459988
  31.7450012  12.0104997 133.6369988  31.1851868  12.6175299 133.9075830
  33.3680012  13.6774997 122.8929988  33.7210012  13.2974997 123.6969988
  32.4190012  13.5844997 122.9799988  33.2880918  13.6128956 123.0148532
  33.8230012  17.3004997 136.2889988  33.2220012  16.7454997 135.7929988
  34.1050012  17.9674997 135.6619988  33.7788804  17.3146625 136.1364849
  37.8710012  18.1574997 123.0939988  38.6150012  18.7434997 122.9539988
  37.1770012  18.7254997 123.4269988  37.8789899  18.3145798 123.1198778
  21.9460012   4.5334997 135.6959988  21.0530012   4.8724997 135.6279988
  21.8470012   3.6784997 136.1139988  21.8104164   4.4642588 135.7432235
  34.2340012  12.3504997 125.1199988  33.9560012  11.6224997 125.6759988
  35.1610012  12.4694997 125.3249988  34.3213124  12.2668802 125.2238845
  21.5970012  16.3384997 134.1309988  21.8140012  15.4064997 134.0999988
  21.8430012  16.6124997 135.0139988  21.6599549  16.2480636 134.2461763
  27.4590012  14.7894997 121.3399988  27.6980012  14.0414997 120.7929988
  27.1900012  14.4014997 122.1729988  27.4553675  14.6346638 121.3776865
  26.3960012  14.3594997 123.7959988  26.5420012  13.8394997 124.5859988
  26.3930012  15.2664997 124.1029988  26.4155792  14.4108842 123.9456117
  22.8490012  11.6124997 124.3069988  22.1630012  11.9644997 124.8739988
  23.3710012  12.3754997 124.0599988  22.8256852  11.7638578 124.3512118
  30.6800012   4.2744997 134.5859988  31.3790012   4.3484997 135.2359988
  30.2990012   3.4104997 134.7399988  30.7241767   4.1677624 134.6958322
  31.4650012   3.9264997 125.6829988  31.6850012   4.3984997 124.8799988
  32.0230012   4.3214997 126.3529988  31.5704968   4.0444285 125.6637331
  29.1330012  16.0574997 124.5459988  28.3170012  16.5544997 124.5979988
  29.6630012  16.5324997 123.9059988  29.0929161  16.1897722 124.4665956
  28.6650012   5.6544997 126.5179988  29.4770012   6.1594997 126.5639988
  28.4200012   5.5094997 127.4319988  28.7430520   5.7040375 126.6478517
  29.2000012   6.6404997 135.7019988  29.3190012   7.2144997 136.4599988
  29.8560012   5.9524997 135.8169988  29.3049025   6.6259858 135.8211321
  29.5480012   2.7354997 127.4559988  29.2020012   3.3534997 128.0999988
  30.2070012   3.2364997 126.9739988  29.5896968   2.8876278 127.4789383
  26.4720012  17.1014997 124.5269988  26.6320012  17.9004997 124.0269988
  26.2740012  17.4074997 125.4119988  26.4671637  17.2524020 124.5781144
  25.2060012   3.7984997 124.1429988  25.1230012   4.6874997 124.4899988
  26.0960012   3.5334997 124.3749988  25.3149469   3.8841430 124.2217626
  35.4050012   4.5474997 136.5369988  34.4880012   4.8104997 136.4499988
  35.7400012   4.5444997 135.6409988  35.3248613   4.5830761 136.4038837
  34.0070012   8.2984997 130.6329988  33.2090012   7.8834997 130.3049988
  34.4520012   7.6074997 131.1239988  33.9579885   8.1483543 130.6544889
  23.4650012  14.2264997 123.2039988  24.0570012  14.9254997 123.4799988
  23.9240012  13.7934997 122.4839988  23.6081142  14.2637049 123.1444830
  21.7810012   6.8904997 122.3199988  21.7360012   7.8294997 122.4979988
  20.8930012   6.6544997 122.0499988  21.6548574   6.9871892 122.3078912
  35.0930012  17.5544997 132.2559988  34.9380012  18.2324997 131.5979988
  36.0260012  17.6264997 132.4589988  35.1978657  17.6569546 132.1934360
  22.5890012   1.6724997 130.9929988  22.3600012   1.7314997 130.0649988
  22.1460012   0.8804997 131.2989988  22.4978530   1.5735753 130.9074786
  21.5190012  15.6124997 127.1529988  20.6870012  16.0854997 127.1799988
  22.0650012  16.1224997 126.5549988  21.4790352  15.7461332 127.0758463
  20.8070012  18.2254997 138.4829988  21.3480012  18.0084997 139.2429988
  20.3260012  17.4194997 138.2929988  20.8159951  18.0869270 138.5612576
  25.4050012  17.1444997 140.1029988  26.1720012  16.6854997 140.4439988
  25.3830012  16.9184997 139.1739988  25.5071275  17.0510186 140.0240101
  29.4970012  16.6524997 121.4789988  28.8530012  16.0214997 121.7999988
  30.2590012  16.1214997 121.2469988  29.5118077  16.4942920 121.4916011
  31.9820012  15.5244997 138.8329988  31.6310012  14.6684997 139.0759988
  32.7080012  15.6674997 139.4399988  32.0320769  15.4265636 138.9483619
  34.1010012  16.4694997 121.7119988  34.3840012  15.6754997 122.1649988
  34.8410012  16.7024997 121.1519988  34.2398006  16.3923376 121.6982715
  20.7140012  12.0354997 139.4369988  20.8580012  11.1334997 139.1509988
  19.9420012  12.3214997 138.9499988  20.6292753  11.9506816 139.3319505
  25.0560012  12.3794997 121.5699988  25.1200012  11.5854997 122.1009988
  25.7090012  12.2604997 120.8799988  25.1530241  12.2547148 121.5494317
  27.3700012  12.0054997 138.8699988  27.0410012  12.2764997 138.0129988
  27.5220012  11.0644997 138.7829988  27.3454809  11.9153862 138.7408244
  30.4080012  13.4264997 121.3059988  30.1390012  13.6064997 122.2069988
  30.2020012  12.5004997 121.1739988  30.3433427  13.3260261 121.4115073
  33.1040012  11.9214997 136.2529988  33.8500012  12.5094997 136.1339988
  32.3470012  12.5034997 136.3169988  33.1037820  12.0807143 136.2453590
  21.5470012   9.2354997 138.8569988  21.9550012   8.3784997 138.7359988
  21.2870012   9.2504997 139.7779988  21.5677568   9.1200807 138.9649588
  26.2050012  10.3514997 123.8759988  25.7450012   9.8674997 124.5619988
  26.4600012   9.6834997 123.2399988  26.1764902  10.1948731 123.8839334
  25.4940012   8.2444997 136.2319988  24.8760012   8.9194997 136.5119988
  25.8380012   8.5654997 135.3979988  25.4559132   8.3802411 136.1576262
  27.2760012   8.5944997 122.1379988  27.0960012   8.4404997 121.2109988
  28.2260012   8.7024997 122.1829988  27.3797776   8.5880175 122.0171843
  30.5140012  10.7164997 139.5089988  31.4670012  10.7994997 139.4819988
  30.3530012  10.0044997 140.1289988  30.6226426  10.6316746 139.5890579
  36.6660012  10.9494997 121.5839988  36.3920012  10.5244997 120.7709988
  36.7050012  11.8804997 121.3669988  36.6337699  11.0172484 121.4433610
  25.8330012   5.5994997 137.3139988  25.9830012   4.8704997 136.7119988
  25.8360012   6.3764997 136.7549988  25.8539302   5.6047851 137.1560692
  26.2460012   3.9694997 134.8069988  26.7820012   4.4204997 134.1549988
  25.3940012   3.8614997 134.3839988  26.2042178   4.0166390 134.6605756
  27.8280012   9.4084997 135.0459988  28.5780012   9.2524997 134.4729988
  27.4890012  10.2604997 134.7709988  27.8848921   9.5022968 134.9303561
  32.2430012   7.2234997 140.0749988  32.4360012   6.2924997 139.9629988
  33.1010012   7.6484997 140.0639988  32.3852934   7.1536531 140.0582031
  33.5600012  10.0124997 138.1519988  33.2790012  10.7214997 137.5739988
  34.5030012   9.9394997 138.0009988  33.6489291  10.0996711 138.0524967
  24.3120012   6.7974997 139.2259988  23.5450012   6.2654997 139.0149988
  24.9910012   6.4874997 138.6259988  24.2987877   6.6828300 139.1160716
  27.0520012   1.4254997 135.2379988  26.9530012   2.3724997 135.1329988
  26.3090012   1.0534997 134.7619988  26.9381184   1.5045863 135.1593621
  28.3160012   5.7474997 138.8019988  28.0800012   5.5274997 139.7029988
  27.5320012   5.5404997 138.2919988  28.1778504   5.6894586 138.8563431
  31.0310012   4.8744997 137.8769988  30.0840012   4.9064997 138.0099988
  31.3440012   4.2494997 138.5309988  30.9436707   4.7943998 137.9836060
  32.6650012   3.5084997 139.8829988  32.5690012   2.5564997 139.8769988
  32.3440012   3.7774997 140.7429988  32.6084070   3.4144035 139.9985441
  22.4920012   4.7184997 138.9299988  22.7040012   4.0114997 138.3199988
  22.3810012   4.2804997 139.7739988  22.5059721   4.5627084 138.9606843
  27.2730012   0.7194997 137.9089988  27.9850012   0.0794997 137.8949988
  27.1720012   0.9864997 136.9959988  27.3568066   0.6680079 137.7835677
  27.6270012   2.4024997 139.9629988  27.4950012   1.9264997 139.1429988
  27.0280012   3.1464997 139.9079988  27.5279071   2.4379618 139.8432886
  27.1730012  19.2854997 123.1389988  28.1060012  19.4434997 123.2829988
  26.9090012  19.9604997 122.5149988  27.2649888  19.3984510 123.0742842
  20.7420012  13.9214997 122.6219988  21.6560012  14.0004997 122.8959988
  20.7490012  13.2344997 121.9559988  20.8681131  13.8393961 122.5694393
  19.3910012  19.3144997 127.6999988  18.7440012  18.8524997 127.1669988
  19.7450012  18.6424997 128.2819988  19.3503849  19.1604723 127.7057959
  20.2610012  17.3954997 129.5039988  19.9260012  16.5154997 129.6759988
  20.4830012  17.7404997 130.3689988  20.2451783  17.3217500 129.6444208
  37.8090012  18.2044997 132.4849988  37.7880012  18.3894997 133.4239988
  38.5000012  18.7734997 132.1439988  37.8994618  18.3066606 132.5673864
  37.3730012  17.7724997 135.4069988  36.8850012  17.0364997 135.0349988
  37.9220012  17.3784997 136.0849988  37.3804820  17.6185889 135.4477813
  35.8230012  13.5614997 140.0449988  34.9570012  13.4564997 140.4389988
  36.2000012  14.3204997 140.4909988  35.7553308  13.6496900 140.1592393
  37.1240012  11.8184997 125.5589988  37.9740012  12.2394997 125.6859988
  37.1300012  11.0784997 126.1659988  37.2411372  11.7760803 125.6584344
  37.5190012   9.8714997 127.3819988  36.7920012   9.3924997 127.7799988
  38.1000012  10.0774997 128.1149988  37.4980473   9.8338103 127.5354528
  37.2780012  12.6564997 132.3299988  38.1110012  12.2784997 132.0499988
  37.3900012  13.5994997 132.2109988  37.4072647  12.7322218 132.2755487
  35.7640012  15.5344997 134.6369988  35.1170012  15.8594997 135.2629988
  35.2470012  15.0944997 133.9629988  35.6054029  15.5195004 134.6315827
  37.7870012   9.7724997 123.7739988  37.2650012  10.1294997 123.0549988
  37.7540012  10.4474997 124.4519988  37.7111634   9.9125413 123.7673145
  36.1360012   7.0124997 122.3239988  36.2320012   7.6794997 121.6439988
  35.9960012   6.1964997 121.8429988  36.1302272   6.9935655 122.1658347
  35.3050012   8.3924997 127.9449988  35.1550012   7.4474997 127.9249988
  34.9520012   8.6734997 128.7889988  35.2367448   8.3011481 128.0563705
  20.3410012  10.4704997 131.9559988  20.5250012  10.3884997 131.0199988
  21.1900012  10.3464997 132.3789988  20.4810151  10.4425073 131.8851451
  36.1620012  10.3624997 137.5839988  36.7450012   9.6284997 137.7759988
  36.7260012  11.1344997 137.6309988  36.3179769  10.3664227 137.6166159
  37.6580012   8.2654997 138.2689988  36.7950012   7.8864997 138.1029988
  38.2630012   7.5264997 138.1939988  37.6216119   8.1138268 138.2361528
  35.3830012   4.4204997 121.4419988  35.9940012   4.0494997 122.0789988
  34.5470012   3.9994997 121.6379988  35.3535032   4.3127554 121.5557035
  35.0160012   5.9754997 126.4079988  35.2960012   5.0684997 126.5319988
  35.7750012   6.4094997 126.0189988  35.1569277   5.9100942 126.3723682
  35.6280012   6.5564997 131.8439988  36.5610012   6.7684997 131.8089988
  35.3930012   6.6584997 132.7659988  35.7239244   6.5993100 131.9638892
  35.6570012   7.2934997 134.6199988  34.8140012   7.5614997 134.9859988
  36.0990012   8.1154997 134.4089988  35.6014158   7.4413291 134.6415491
  19.9380012   5.7414997 138.0969988  20.8580012   5.6194997 138.3329988
  19.4890012   4.9914997 138.4859988  20.0031580   5.6233727 138.1819006
  37.9400012   1.2734997 139.9729988  38.2900012   0.6194997 139.3679988
  38.0870012   2.1104997 139.5329988  38.0077887   1.2971548 139.8306858
  35.6290012   3.2384997 126.4559988  35.8120012   2.7894997 127.2819988
  35.0300012   2.6534997 125.9929988  35.5730202   3.0979975 126.5063275
  21.1590012   4.0534997 130.9879988  21.6050012   3.2614997 131.2899988
  21.6260012   4.7694997 131.4179988  21.2830831   4.0420685 131.0874006
  19.4630012   7.0524997 132.0569988  19.9550012   6.8314997 131.2659988
  19.8260012   7.8934997 132.3379988  19.5793126   7.1358357 131.9867531
  37.4600012   3.3824997 138.3219988  36.5420012   3.6534997 138.2869988
  37.5830012   2.8474997 137.5379988  37.3509729   3.3472508 138.2111923
  37.4960012   3.3054997 122.9839988  37.9080012   2.5844997 122.5089988
  38.1780012   3.9754997 123.0429988  37.6445885   3.2972368 122.9268915
  19.7770012   3.3104997 126.1109988  18.8520012   3.5194997 125.9819988
  20.2310012   3.7944997 125.4209988  19.7117292   3.4045343 126.0000720
  34.5480012  18.2944997 128.0569988  35.2000012  17.9474997 127.4489988
  35.0580012  18.7834997 128.7029988  34.7062637  18.3130597 128.0610236
  19.7410012   2.0484997 134.4549988  19.0760012   1.8024997 135.0989988
  19.2980012   2.6704997 133.8779988  19.5901318   2.0989410 134.4650898
  21.9330012  15.2234997 138.5999988  21.1120012  15.3984997 138.1389988
  21.6800012  15.1504997 139.5199988  21.7865585  15.2375544 138.6613561
  24.8870012  16.1984997 134.8579988  24.4620012  17.0074997 134.5759988
  25.7910012  16.2834997 134.5559988  24.9509975  16.3209300 134.7784816
  29.1980012  17.5974997 137.8179988  29.3830012  17.2634997 138.6959988
  30.0440012  17.9064997 137.4959988  29.3377539  17.5936047 137.8945605
  31.5430012  18.8834997 137.0619988  32.2200012  18.2504997 136.8219988
  31.8650012  19.2844997 137.8689988  31.6791637  18.8511154 137.1382793
  36.4600012   1.4724997 136.1409988  35.6480012   1.7974997 135.7539988
  36.6930012   0.7124997 135.6079988  36.3802203   1.4142758 136.0158880
  22.2890012  19.4544997 134.9059988  21.5680012  19.8944997 134.4549988
  21.9230012  19.2034997 135.7539988  22.1409651  19.4807242 134.9589640
  24.7560012  19.0544997 133.9359988  23.8910012  19.1264997 134.3399988
  24.7010012  19.6014997 133.1519988  24.6302085  19.1382685 133.8853362
  29.4660012  18.9424997 133.1109988  29.0100012  19.4714997 132.4569988
  29.6290012  19.5454997 133.8359988  29.4256068  19.0964607 133.1194838
  31.7940012  17.8204997 134.0559988  30.8890012  17.9854997 133.7899988
  32.2230012  18.6734997 133.9909988  31.7281324  17.9584339 134.0107976
  34.3980012  19.3904997 134.3509988  34.2160012  20.3064997 134.1409988
  34.5750012  18.9804997 133.5049988  34.3970210  19.4604822 134.2077885
  21.7030012  18.0774997 131.8159988  21.6850012  17.6524997 132.6729988
  22.5080012  17.7594997 131.4069988  21.8093529  17.9763013 131.8780946
  23.8450012  16.7874997 130.4709988  23.6260012  15.8714997 130.6409988
  24.6690012  16.9274997 130.9369988  23.9264420  16.6810520 130.5572774
  26.3820012  17.2574997 131.3199988  26.5950012  16.3694997 131.0329988
  26.4460012  17.2234997 132.2739988  26.4198232  17.1313102 131.4097397
  29.8900012   2.9214997 130.4639988  29.2160012   2.2924997 130.7199988
  30.4540012   2.4374997 129.8609988  29.8739230   2.7698744 130.4175340
  35.0330012   1.0294997 130.5769988  35.6370012   1.5764997 130.0749988
  34.1630012   1.3484997 130.3359988  34.9981208   1.1475137 130.4756886
  36.7600012   2.1674997 128.9099988  37.3720012   1.6534997 128.3829988
  37.1420012   3.0454997 128.9329988  36.8953371   2.2157866 128.8410041
  22.2170012   1.5554997 128.2859988  21.4400012   1.3214997 127.7789988
  22.7470012   0.7584997 128.2949988  22.1822330   1.4156988 128.2177742
  21.0530012   1.3534997 124.0899988  21.4920012   1.9644997 123.4979988
  20.4200012   1.8914997 124.5639988  21.0274514   1.5099257 124.0730930
  26.7960012   1.4824997 128.0999988  27.6710012   1.8704997 128.0699988
  26.6600012   1.2674997 129.0219988  26.8973695   1.5065184 128.2206440
  32.3530012   1.5124997 129.7489988  32.4290012   1.6074997 128.7989988
  32.0780012   0.6044997 129.8779988  32.3262321   1.4027867 129.6365079
  33.7060012   1.5384997 125.4409988  33.0040012   2.1534997 125.2309988
  33.2620012   0.7004997 125.5719988  33.5496450   1.5095639 125.4299000
  20.9540012  17.3014997 124.9869988  20.2690012  17.2634997 124.3199988
  20.9580012  18.2144997 125.2759988  20.8606998  17.4196733 124.9346771
  22.9140012   3.2694997 122.5319988  23.4060012   2.6394997 122.0049988
  23.5380012   3.5654997 123.1949988  23.0655688   3.2233804 122.5495482
  27.9400012   3.5624997 124.9889988  28.1180012   2.9164997 125.6719988
  27.8870012   4.3964997 125.4559988  27.9571999   3.5868009 125.1455917
  29.8190012  18.5114997 123.3849988  30.6850012  18.8774997 123.2069988
  29.5720012  18.0714997 122.5709988  29.9042392  18.5021756 123.2506289
  36.5280012  18.0744997 126.0639988  36.3330012  17.3264997 125.4989988
  36.4890012  18.8324997 125.4809988  36.4960380  18.0746099 125.9078384
  22.1750012   2.0694997 137.8039988  21.8090012   1.3044997 138.2459988
  23.0880012   2.0984997 138.0899988  22.2482736   1.9685640 137.9032502
  24.1480012   1.4204997 139.3399988  25.0460012   1.1464997 139.1549988
  23.7610012   0.6774997 139.8039988  24.2186612   1.2825914 139.3773643
  22.7720012  18.2214997 122.0129988  22.5050012  18.5084997 122.8859988
  23.5440012  17.6754997 122.1649988  22.8397488  18.1870294 122.1531050
  32.5690012   0.7524997 139.5219988  32.6460012   0.3264997 140.3759988
  33.4630012   0.7664997 139.1789988  32.7003428   0.6960879 139.5925310
  35.7450012  16.8254997 138.2139988  34.9630012  16.6394997 137.6939988
  35.6730012  17.7544997 138.4319988  35.6282274  16.9256643 138.1723018
  50.1510012  10.7114997 128.2449988  50.2400012  11.6554997 128.1129988
  49.5130012  10.4364997 127.5869988  50.0769081  10.8034830 128.1379614
  49.0840012   9.9664997 131.6639988  49.0460012   9.3204997 132.3689988
  48.7620012   9.5004997 130.8929988  49.0352333   9.8149408 131.6562978
  41.4530012   9.5814997 133.2569988  41.4940012   8.9554997 133.9799988
  42.1560012  10.2054997 133.4389988  41.5536363   9.5801196 133.3806044
  52.7900012  12.9054997 129.9649988  52.3500012  12.1854997 130.4159988
  52.7770012  13.6264997 130.5949988  52.7280226  12.9043731 130.1118494
  42.3760012  14.0314997 131.7919988  42.0070012  13.2294997 131.4219988
  43.3170012  13.8624997 131.8379988  42.4527289  13.8990153 131.7476316
  38.9860012   7.6914997 127.1849988  38.5390012   8.5374997 127.1659988
  38.4250012   7.1114997 126.6689988  38.8489900   7.7289916 127.1126801
  39.6970012   9.8534997 129.3099988  39.9100012   9.0834997 129.8379988
  40.4350012   9.9424997 128.7069988  39.8259044   9.7601968 129.3007123
  49.9020012  18.0104997 130.1769988  50.5220012  17.3334997 129.9039988
  49.6940012  17.7924997 131.0859988  49.9586726  17.8884800 130.2624812
  47.4740012  12.3994997 132.0699988  47.7780012  11.7134997 131.4749988
  48.1950012  12.5174997 132.6879988  47.6130671  12.3216304 132.0721816
  56.1370012   4.0004997 132.9309988  56.1860012   4.6104997 133.6659988
  56.5620012   4.4614997 132.2079988  56.2011746   4.1463796 132.9339175
  50.6150012   6.7934997 132.3969988  50.7570012   5.8474997 132.4179988
  50.5080012   7.0004997 131.4689988  50.6199919   6.6918246 132.2743408
  43.7690012   4.8944997 129.6699988  43.8130012   5.7544997 129.2509988
  43.3120012   4.3424997 129.0359988  43.7132240   4.9374422 129.5269864
  51.4920012   5.0254997 128.0709988  52.1380012   4.6964997 128.6949988
  52.0020012   5.5434997 127.4479988  51.6494299   5.0504450 128.0722731
  40.3900012   7.2914997 130.4319988  41.0430012   6.7414997 130.8639988
  40.4140012   7.0174997 129.5149988  40.4826683   7.1791466 130.3672123
  45.5460012   8.8414997 129.6469988  46.1620012   8.3154997 130.1569988
  44.9600012   8.2014997 129.2439988  45.5510810   8.6829208 129.6623173
  56.5280012   5.4784997 135.1659988  55.8400012   6.1364997 135.0709988
  56.5440012   5.2814997 136.1029988  56.4359540   5.5419819 135.2795990
  42.5800012   3.8124997 133.7439988  42.3610012   4.3424997 132.9779988
  41.9120012   4.0394997 134.3909988  42.4597600   3.9156906 133.7266379
  49.9490012  13.3124997 127.2879988  49.6530012  12.9904997 126.4369988
  49.6240012  14.2124997 127.3289988  49.8646371  13.3900215 127.1771801
  45.1490012  11.4884997 134.0309988  44.4090012  12.0864997 134.1349988
  45.8630012  12.0424997 133.7159988  45.1442237  11.6452831 134.0026465
  53.2560012   4.3164997 130.0509988  53.0400012   3.5504997 130.5839988
  53.9110012   4.7884997 130.5639988  53.3150632   4.2755889 130.1932861
  42.1730012   5.7044997 131.6959988  42.7870012   6.3374997 132.0689988
  42.6850012   5.2324997 131.0399988  42.3261981   5.7272267 131.6582908
  43.5560012  13.4524997 134.8179988  43.5510012  14.3324997 134.4399988
  42.7030012  13.3694997 135.2429988  43.4399464  13.5616117 134.8237907
  39.6770012  13.1234997 125.5999988  39.4050012  13.3524997 124.7119988
  39.7230012  13.9614997 126.0609988  39.6459482  13.2681318 125.5406273
  53.3020012  14.7454997 132.3129988  52.3610012  14.8034997 132.4749988
  53.5790012  15.6514997 132.1759988  53.2104679  14.8759443 132.3166815
  53.6030012   3.0314997 133.7309988  52.8670012   3.6424997 133.6929988
  54.2860012   3.4464997 133.2039988  53.5946541   3.1711374 133.6545832
  46.6060012   1.1184997 131.1959988  46.4890012   0.1694997 131.1419988
  45.7510012   1.4504997 131.4699988  46.4744212   1.0335571 131.2256497
  51.5540012  16.5264997 128.9379988  51.9800012  15.8194997 128.4529988
  51.8710012  17.3274997 128.5219988  51.6551683  16.5381017 128.8153680
  52.7140012  14.4274997 127.4469988  52.4560012  13.7374997 126.8359988
  52.7850012  13.9844997 128.2929988  52.6882856  14.2732124 127.4776885
  54.4000012  12.9934997 135.9239988  54.5400012  12.4024997 135.1849988
  54.5670012  13.8664997 135.5679988  54.4417411  13.0305428 135.7746894
  48.8730012   9.9554997 125.6969988  48.1610012  10.4904997 125.3449988
  49.5640012  10.0114997 125.0369988  48.8690132  10.0362543 125.5596289
  48.9260012   8.4134997 122.7359988  49.6270012   8.4354997 123.3869988
  49.2290012   7.7854997 122.0789988  49.0628133   8.3317070 122.7363369
  56.2420012   9.3334997 133.9899988  55.5890012  10.0284997 134.0799988
  56.7070012   9.5434997 133.1809988  56.2155274   9.4570643 133.8928462
  52.2780012  10.1654997 126.6489988  51.5460012  10.3934997 127.2219988
  52.7260012   9.4514997 127.1029988  52.2382725  10.1002145 126.7888816
  52.1760012   8.3394997 135.7159988  52.2560012   9.1024997 136.2879988
  51.5740012   8.6184997 135.0259988  52.1055756   8.4817134 135.7010589
  43.9240012  10.7954997 128.5309988  43.5930012  10.4254997 127.7129988
  44.5120012  10.1254997 128.8779988  43.9581873  10.6541156 128.4658102
  45.2900012  14.2234997 131.2119988  45.1960012  13.6454997 130.4559988
  46.0200012  13.8524997 131.7089988  45.3757387  14.0941663 131.1755342
  44.2900012   9.5644997 132.1649988  44.8560012   9.6854997 131.4019988
  44.6090012  10.2014997 132.8029988  44.4105474   9.6672219 132.1469862
  50.5990012  15.0674997 132.8989988  50.3590012  15.7294997 133.5469988
  50.4010012  14.2334997 133.3239988  50.5393808  15.0453134 133.0451524
  45.1700012  13.9634997 136.8819988  44.8590012  14.7454997 137.3369988
  44.5200012  13.8104997 136.1959988  45.0395558  14.0499105 136.8515871
  51.1490012   9.3274997 124.3339988  51.7290012   9.4774997 125.0809988
  51.5630012   9.7984997 123.6099988  51.2842997   9.4116578 124.3384058
  42.0900012  10.1614997 136.1099988  42.1610012  10.8124997 136.8089988
  41.2000012  10.2644997 135.7749988  41.9793005  10.2645427 136.1603495
  48.8760012  16.0644997 127.7689988  49.3500012  16.3594997 128.5459988
  48.3130012  16.8024997 127.5359988  48.8648184  16.2047247 127.8439628
  43.4100012  16.0354997 137.6449988  43.4170012  15.8994997 136.6979988
  42.4940012  15.9174997 137.8969988  43.2871714  16.0009430 137.5494666
  54.8480012   1.0774997 124.1469988  53.9480012   1.2164997 124.4419988
  55.1000012   1.9084997 123.7449988  54.7588702   1.2089074 124.1330205
  42.9140012   9.8654997 126.1199988  42.6220012  10.6334997 125.6299988
  42.2400012   9.2054997 125.9579988  42.7828111   9.8815587 126.0308978
  56.0370012  15.4434997 122.5229988  56.1110012  16.3824997 122.6939988
  56.9430012  15.1384997 122.4669988  56.1695100  15.5306722 122.5388119
  39.0070012  12.2284997 134.9349988  38.5060012  12.2004997 134.1199988
  39.0120012  11.3224997 135.2449988  38.9390944  12.1022396 134.8653226
  38.7570012  15.0084997 131.8189988  39.7030012  14.8644997 131.7999988
  38.6450012  15.7924997 132.3559988  38.8712727  15.0948046 131.8890072
  56.9550012  15.6744997 137.5019988  56.9060012  14.7194997 137.4649988
  56.1280012  15.9424997 137.9029988  56.8364940  15.5798998 137.5511375
  47.9340012  15.2484997 136.3779988  48.0210012  16.0744997 136.8529988
  47.0700012  14.9184997 136.6269988  47.8291964  15.3169878 136.4766549
  48.3480012  19.0204997 126.1839988  48.2730012  18.8994997 125.2369988
  48.3810012  19.9704997 126.3019988  48.3422068  19.1322646 126.0704967
  42.0010012  17.8094997 127.9649988  42.1540012  17.4614997 128.8429988
  41.1510012  17.4534997 127.7099988  41.9069166  17.7136217 128.0508079
  51.4500012  18.1744997 123.1859988  51.8250012  17.4304997 122.7149988
  51.4540012  17.9044997 124.1049988  51.5019125  18.0360986 123.2456483
  51.1190012  18.1004997 125.9349988  50.1830012  18.2004997 126.1139988
  51.3990012  17.3914997 126.5139988  51.0289553  18.0183406 126.0377087
  54.1070012   7.1674997 137.9819988  53.7000012   7.6484997 137.2609988
  54.1480012   6.2624997 137.6739988  54.0568437   7.1109374 137.8416683
  41.2560012  13.5514997 135.9789988  41.4720012  13.1904997 136.8379988
  40.4010012  13.1774997 135.7689988  41.1699292  13.4514111 136.0683386
  43.8750012   2.0214997 131.9739988  43.0130012   1.9344997 131.5659988
  43.8520012   2.8774997 132.4019988  43.7540409   2.1252883 131.9760589
  48.5380012   1.7434997 135.3489988  48.9580012   1.3284997 136.1019988
  47.6050012   1.5654997 135.4659988  48.4693644   1.6625900 135.4679539
  51.8640012   5.4994997 136.2019988  51.3500012   5.3734997 136.9999988
  51.7090012   6.4114997 135.9579988  51.7726852   5.6056132 136.2782158
  52.6270012  10.3604997 121.9639988  52.6690012  10.1374997 121.0339988
  53.4760012  10.7594997 122.1529988  52.7475280  10.3839438 121.8623554
  48.1990012   4.2364997 122.6339988  47.9460012   4.2554997 123.5569988
  47.9430012   3.3644997 122.3319988  48.1297481   4.1212558 122.7196175
  43.9660012   6.9874997 133.0689988  43.3240012   6.9464997 133.7779988
  44.0030012   7.9134997 132.8309988  43.8830664   7.1071430 133.1339219
  43.9630012   7.2084997 127.9809988  43.0700012   6.8674997 127.9219988
  44.4130012   6.8314997 127.2249988  43.9018130   7.1109631 127.8707702
  49.4980012   7.6244997 126.7979988  49.0890012   8.4394997 126.5069988
  50.2190012   7.4844997 126.1839988  49.5394537   7.7172018 126.6751342
  48.6000012   7.7994997 138.2859988  48.0380012   7.0954997 138.6069988
  49.4270012   7.6794997 138.7539988  48.6347095   7.6867883 138.3932330
  50.5030012   7.0704997 129.6119988  50.3080012   7.6754997 128.8969988
  50.6840012   6.2364997 129.1779988  50.5007614   7.0406300 129.4554405
  41.7160012   7.3074997 134.9359988  41.6780012   7.7074997 135.8049988
  41.2250012   6.4904997 135.0269988  41.6444684   7.2518069 135.0671059
  45.0820012   4.6814997 121.7349988  44.6510012   4.2364997 122.4649988
  44.3640012   5.0534997 121.2229988  44.9259438   4.6708940 121.7656799
  38.3240012   4.4234997 128.7869988  38.9550012   4.3944997 129.5059988
  38.7730012   3.9984997 128.0559988  38.4710918   4.3620836 128.7866441
  39.5980012   5.1694997 124.2109988  40.0720012   5.7604997 123.6259988
  38.8810012   5.7004997 124.5579988  39.5659341   5.3220867 124.1778836
  49.7670012   8.7084997 134.2829988  50.0900012   8.0774997 133.6399988
  49.3270012   8.1734997 134.9439988  49.7517484   8.5498387 134.2843198
  46.5440012   4.6354997 129.0669988  45.6330012   4.6924997 129.3559988
  47.0500012   4.5754997 129.8779988  46.4876899   4.6351941 129.2161184
  41.3730012   6.2644997 127.8939988  40.4830012   6.3644997 127.5539988
  41.6690012   5.4224997 127.5479988  41.2912823   6.1643545 127.8007213
  45.0260012   6.2644997 125.5509988  45.9570012   6.3934997 125.7289988
  44.8110012   6.9344997 124.9009988  45.1244247   6.3726565 125.4875747
  50.9490012   3.8704997 132.3319988  50.2730012   4.0014997 132.9959988
  50.4640012   3.7154997 131.5209988  50.7907146   3.8675157 132.3134469
  43.7000012   7.4594997 123.1169988  43.1570012   7.0794997 122.4259988
  44.5330012   7.6534997 122.6889988  43.7383631   7.4337125 122.9644501
  54.2370012  19.5424997 138.6079988  54.4370012  19.9664997 137.7739988
  54.8920012  19.8854997 139.2149988  54.3530072  19.6469857 138.5758592
  41.8350012  12.0164997 138.2159988  42.5670012  12.2704997 138.7779988
  41.0550012  12.2204997 138.7319988  41.8297073  12.0788160 138.3626151
  47.8640012   7.4234997 130.9539988  48.4290012   6.8764997 130.4069988
  47.7170012   6.9014997 131.7429988  47.9213380   7.2782259 130.9858695
  42.8660012   3.5594997 127.3729988  42.5490012   2.6574997 127.3369988
  43.6480012   3.5614997 126.8199988  42.9282408   3.4362474 127.2933569
  46.4910012   5.8114997 133.3679988  45.6550012   6.2654997 133.4789988
  47.0150012   6.0874997 134.1199988  46.4475416   5.9108660 133.4848119
  47.0350012  12.0244997 125.0529988  46.2900012  11.5174997 124.7309988
  46.9010012  12.0734997 125.9999988  46.9148776  11.9616940 125.1368647
  54.1850012  11.1574997 133.8399988  54.8270012  11.6144997 133.2959988
  53.3550012  11.2704997 133.3769988  54.1605963  11.2352704 133.7030177
  50.9330012   4.8384997 123.2519988  49.9940012   4.9504997 123.1009988
  51.2300012   5.6954997 123.5589988  50.8447583   4.9695981 123.2728337
  48.5540012  12.2084997 136.2899988  48.2090012  11.8274997 137.0969988
  48.3540012  13.1424997 136.3609988  48.4797527  12.2825135 136.4100689
  51.6510012   6.7054997 124.9129988  52.5430012   6.5684997 125.2319988
  51.7080012   7.4964997 124.3759988  51.7806504   6.7936052 124.8840818
  42.1600012  11.3194997 130.8229988  42.9050012  11.3174997 130.2219988
  42.2380012  10.4964997 131.3039988  42.2724995  11.2078887 130.8058282
  49.1610012  13.4834997 124.0789988  48.8650012  14.3094997 124.4599988
  48.4580012  12.8634997 124.2749988  49.0254914  13.5128199 124.1576443
  39.1680012   9.7804997 136.1379988  39.3910012   9.3624997 136.9699988
  38.5660012   9.1674997 135.7149988  39.1171759   9.6404668 136.1947022
  46.1840012   9.2974997 138.3509988  45.8880012   9.1314997 137.4559988
  47.1160012   9.0774997 138.3399988  46.2694166   9.2450640 138.2270536
  50.8050012  14.6704997 136.2409988  49.9040012  14.8534997 135.9729988
  50.8390012  14.9294997 137.1609988  50.6863139  14.7305849 136.3288099
  56.5360012   6.9154997 124.6079988  55.9820012   6.5194997 123.9359988
  56.6360012   7.8254997 124.3299988  56.4737059   6.9843586 124.4784401
  56.4990012  12.7154997 137.4449988  55.6480012  12.9534997 137.0779988
  57.0900012  12.6984997 136.6919988  56.4622487  12.7458258 137.2928893
  54.8310012  15.7014997 125.0729988  54.4580012  14.8754997 125.3819988
  55.1090012  15.5184997 124.1749988  54.8175222  15.5637430 124.9939473
  51.9920012  10.5094997 132.0939988  51.0630012  10.2774997 132.0669988
  52.4430012   9.7324997 131.7639988  51.9259216  10.3727238 132.0456917
  44.5350012  14.8374997 128.2269988  45.0620012  15.6104997 128.0269988
  43.6550012  15.0624997 127.9249988  44.4882031  14.9737545 128.1587912
  40.2900012   9.6994997 122.8139988  40.9060012  10.3264997 123.1939988
  39.4280012  10.0154997 123.0859988  40.2577698   9.8279430 122.9027183
  45.9620012  12.5004997 127.8029988  45.7210012  13.4254997 127.8449988
  45.2210012  12.0414997 128.1999988  45.8289225  12.5650933 127.8623742
  46.4770012  16.6494997 134.1189988  46.8390012  17.5044997 133.8849988
  47.0080012  16.3574997 134.8589988  46.5984473  16.7271060 134.1870855
  44.6450012  17.5224997 127.3489988  43.6950012  17.6274997 127.3999988
  44.9970012  18.3424997 127.6929988  44.5624195  17.6478800 127.4025502
  50.0210012  12.7484997 133.8189988  49.5950012  12.5214997 134.6459988
  50.6010012  12.0104997 133.6369988  50.0411868  12.6175299 133.9075830
  52.2240012  13.6774997 122.8929988  52.5770012  13.2974997 123.6969988
  51.2750012  13.5844997 122.9799988  52.1440918  13.6128956 123.0148532
  52.6790012  17.3004997 136.2889988  52.0780012  16.7454997 135.7929988
  52.9610012  17.9674997 135.6619988  52.6348804  17.3146625 136.1364849
  56.7270012  18.1574997 123.0939988  57.4710012  18.7434997 122.9539988
  56.0330012  18.7254997 123.4269988  56.7349899  18.3145798 123.1198778
  40.8020012   4.5334997 135.6959988  39.9090012   4.8724997 135.6279988
  40.7030012   3.6784997 136.1139988  40.6664164   4.4642588 135.7432235
  53.0900012  12.3504997 125.1199988  52.8120012  11.6224997 125.6759988
  54.0170012  12.4694997 125.3249988  53.1773124  12.2668802 125.2238845
  40.4530012  16.3384997 134.1309988  40.6700012  15.4064997 134.0999988
  40.6990012  16.6124997 135.0139988  40.5159549  16.2480636 134.2461763
  46.3150012  14.7894997 121.3399988  46.5540012  14.0414997 120.7929988
  46.0460012  14.4014997 122.1729988  46.3113675  14.6346638 121.3776865
  45.2520012  14.3594997 123.7959988  45.3980012  13.8394997 124.5859988
  45.2490012  15.2664997 124.1029988  45.2715792  14.4108842 123.9456117
  41.7050012  11.6124997 124.3069988  41.0190012  11.9644997 124.8739988
  42.2270012  12.3754997 124.0599988  41.6816852  11.7638578 124.3512118
  49.5360012   4.2744997 134.5859988  50.2350012   4.3484997 135.2359988
  49.1550012   3.4104997 134.7399988  49.5801767   4.1677624 134.6958322
  50.3210012   3.9264997 125.6829988  50.5410012   4.3984997 124.8799988
  50.8790012   4.3214997 126.3529988  50.4264968   4.0444285 125.6637331
  47.9890012  16.0574997 124.5459988  47.1730012  16.5544997 124.5979988
  48.5190012  16.5324997 123.9059988  47.9489161  16.1897722 124.4665956
  47.5210012   5.6544997 126.5179988  48.3330012   6.1594997 126.5639988
  47.2760012   5.5094997 127.4319988  47.5990520   5.7040375 126.6478517
  48.0560012   6.6404997 135.7019988  48.1750012   7.2144997 136.4599988
  48.7120012   5.9524997 135.8169988  48.1609025   6.6259858 135.8211321
  48.4040012   2.7354997 127.4559988  48.0580012   3.3534997 128.0999988
  49.0630012   3.2364997 126.9739988  48.4456968   2.8876278 127.4789383
  45.3280012  17.1014997 124.5269988  45.4880012  17.9004997 124.0269988
  45.1300012  17.4074997 125.4119988  45.3231637  17.2524020 124.5781144
  44.0620012   3.7984997 124.1429988  43.9790012   4.6874997 124.4899988
  44.9520012   3.5334997 124.3749988  44.1709469   3.8841430 124.2217626
  54.2610012   4.5474997 136.5369988  53.3440012   4.8104997 136.4499988
  54.5960012   4.5444997 135.6409988  54.1808613   4.5830761 136.4038837
  52.8630012   8.2984997 130.6329988  52.0650012   7.8834997 130.3049988
  53.3080012   7.6074997 131.1239988  52.8139885   8.1483543 130.6544889
  42.3210012  14.2264997 123.2039988  42.9130012  14.9254997 123.4799988
  42.7800012  13.7934997 122.4839988  42.4641142  14.2637049 123.1444830
  40.6370012   6.8904997 122.3199988  40.5920012   7.8294997 122.4979988
  39.7490012   6.6544997 122.0499988  40.5108574   6.9871892 122.3078912
  53.9490012  17.5544997 132.2559988  53.7940012  18.2324997 131.5979988
  54.8820012  17.6264997 132.4589988  54.0538657  17.6569546 132.1934360
  41.4450012   1.6724997 130.9929988  41.2160012   1.7314997 130.0649988
  41.0020012   0.8804997 131.2989988  41.3538530   1.5735753 130.9074786
  40.3750012  15.6124997 127.1529988  39.5430012  16.0854997 127.1799988
  40.9210012  16.1224997 126.5549988  40.3350352  15.7461332 127.0758463
  39.6630012  18.2254997 138.4829988  40.2040012  18.0084997 139.2429988
  39.1820012  17.4194997 138.2929988  39.6719951  18.0869270 138.5612576
  44.2610012  17.1444997 140.1029988  45.0280012  16.6854997 140.4439988
  44.2390012  16.9184997 139.1739988  44.3631275  17.0510186 140.0240101
  48.3530012  16.6524997 121.4789988  47.7090012  16.0214997 121.7999988
  49.1150012  16.1214997 121.2469988  48.3678077  16.4942920 121.4916011
  50.8380012  15.5244997 138.8329988  50.4870012  14.6684997 139.0759988
  51.5640012  15.6674997 139.4399988  50.8880769  15.4265636 138.9483619
  52.9570012  16.4694997 121.7119988  53.2400012  15.6754997 122.1649988
  53.6970012  16.7024997 121.1519988  53.0958006  16.3923376 121.6982715
  39.5700012  12.0354997 139.4369988  39.7140012  11.1334997 139.1509988
  38.7980012  12.3214997 138.9499988  39.4852753  11.9506816 139.3319505
  43.9120012  12.3794997 121.5699988  43.9760012  11.5854997 122.1009988
  44.5650012  12.2604997 120.8799988  44.0090241  12.2547148 121.5494317
  46.2260012  12.0054997 138.8699988  45.8970012  12.2764997 138.0129988
  46.3780012  11.0644997 138.7829988  46.2014809  11.9153862 138.7408244
  49.2640012  13.4264997 121.3059988  48.9950012  13.6064997 122.2069988
  49.0580012  12.5004997 121.1739988  49.1993427  13.3260261 121.4115073
  51.9600012  11.9214997 136.2529988  52.7060012  12.5094997 136.1339988
  51.2030012  12.5034997 136.3169988  51.9597820  12.0807143 136.2453590
  40.4030012   9.2354997 138.8569988  40.8110012   8.3784997 138.7359988
  40.1430012   9.2504997 139.7779988  40.4237568   9.1200807 138.9649588
  45.0610012  10.3514997 123.8759988  44.6010012   9.8674997 124.5619988
  45.3160012   9.6834997 123.2399988  45.0324902  10.1948731 123.8839334
  44.3500012   8.2444997 136.2319988  43.7320012   8.9194997 136.5119988
  44.6940012   8.5654997 135.3979988  44.3119132   8.3802411 136.1576262
  46.1320012   8.5944997 122.1379988  45.9520012   8.4404997 121.2109988
  47.0820012   8.7024997 122.1829988  46.2357776   8.5880175 122.0171843
  49.3700012  10.7164997 139.5089988  50.3230012  10.7994997 139.4819988
  49.2090012  10.0044997 140.1289988  49.4786426  10.6316746 139.5890579
  55.5220012  10.9494997 121.5839988  55.2480012  10.5244997 120.7709988
  55.5610012  11.8804997 121.3669988  55.4897699  11.0172484 121.4433610
  44.6890012   5.5994997 137.3139988  44.8390012   4.8704997 136.7119988
  44.6920012   6.3764997 136.7549988  44.7099302   5.6047851 137.1560692
  45.1020012   3.9694997 134.8069988  45.6380012   4.4204997 134.1549988
  44.2500012   3.8614997 134.3839988  45.0602178   4.0166390 134.6605756
  46.6840012   9.4084997 135.0459988  47.4340012   9.2524997 134.4729988
  46.3450012  10.2604997 134.7709988  46.7408921   9.5022968 134.9303561
  51.0990012   7.2234997 140.0749988  51.2920012   6.2924997 139.9629988
  51.9570012   7.6484997 140.0639988  51.2412934   7.1536531 140.0582031
  52.4160012  10.0124997 138.1519988  52.1350012  10.7214997 137.5739988
  53.3590012   9.9394997 138.0009988  52.5049291  10.0996711 138.0524967
  43.1680012   6.7974997 139.2259988  42.4010012   6.2654997 139.0149988
  43.8470012   6.4874997 138.6259988  43.1547877   6.6828300 139.1160716
  45.9080012   1.4254997 135.2379988  45.8090012   2.3724997 135.1329988
  45.1650012   1.0534997 134.7619988  45.7941184   1.5045863 135.1593621
  47.1720012   5.7474997 138.8019988  46.9360012   5.5274997 139.7029988
  46.3880012   5.5404997 138.2919988  47.0338504   5.6894586 138.8563431
  49.8870012   4.8744997 137.8769988  48.9400012   4.9064997 138.0099988
  50.2000012   4.2494997 138.5309988  49.7996707   4.7943998 137.9836060
  51.5210012   3.5084997 139.8829988  51.4250012   2.5564997 139.8769988
  51.2000012   3.7774997 140.7429988  51.4644070   3.4144035 139.9985441
  41.3480012   4.7184997 138.9299988  41.5600012   4.0114997 138.3199988
  41.2370012   4.2804997 139.7739988  41.3619721   4.5627084 138.9606843
  46.1290012   0.7194997 137.9089988  46.8410012   0.0794997 137.8949988
  46.0280012   0.9864997 136.9959988  46.2128066   0.6680079 137.7835677
  46.4830012   2.4024997 139.9629988  46.3510012   1.9264997 139.1429988
  45.8840012   3.1464997 139.9079988  46.3839071   2.4379618 139.8432886
  46.0290012  19.2854997 123.1389988  46.9620012  19.4434997 123.2829988
  45.7650012  19.9604997 122.5149988  46.1209888  19.3984510 123.0742842
  39.5980012  13.9214997 122.6219988  40.5120012  14.0004997 122.8959988
  39.6050012  13.2344997 121.9559988  39.7241131  13.8393961 122.5694393
  38.2470012  19.3144997 127.6999988  37.6000012  18.8524997 127.1669988
  38.6010012  18.6424997 128.2819988  38.2063849  19.1604723 127.7057959
  39.1170012  17.3954997 129.5039988  38.7820012  16.5154997 129.6759988
  39.3390012  17.7404997 130.3689988  39.1011783  17.3217500 129.6444208
  56.6650012  18.2044997 132.4849988  56.6440012  18.3894997 133.4239988
  57.3560012  18.7734997 132.1439988  56.7554618  18.3066606 132.5673864
  56.2290012  17.7724997 135.4069988  55.7410012  17.0364997 135.0349988
  56.7780012  17.3784997 136.0849988  56.2364820  17.6185889 135.4477813
  54.6790012  13.5614997 140.0449988  53.8130012  13.4564997 140.4389988
  55.0560012  14.3204997 140.4909988  54.6113308  13.6496900 140.1592393
  55.9800012  11.8184997 125.5589988  56.8300012  12.2394997 125.6859988
  55.9860012  11.0784997 126.1659988  56.0971372  11.7760803 125.6584344
  56.3750012   9.8714997 127.3819988  55.6480012   9.3924997 127.7799988
  56.9560012  10.0774997 128.1149988  56.3540473   9.8338103 127.5354528
  56.1340012  12.6564997 132.3299988  56.9670012  12.2784997 132.0499988
  56.2460012  13.5994997 132.2109988  56.2632647  12.7322218 132.2755487
  54.6200012  15.5344997 134.6369988  53.9730012  15.8594997 135.2629988
  54.1030012  15.0944997 133.9629988  54.4614029  15.5195004 134.6315827
  56.6430012   9.7724997 123.7739988  56.1210012  10.1294997 123.0549988
  56.6100012  10.4474997 124.4519988  56.5671634   9.9125413 123.7673145
  54.9920012   7.0124997 122.3239988  55.0880012   7.6794997 121.6439988
  54.8520012   6.1964997 121.8429988  54.9862272   6.9935655 122.1658347
  54.1610012   8.3924997 127.9449988  54.0110012   7.4474997 127.9249988
  53.8080012   8.6734997 128.7889988  54.0927448   8.3011481 128.0563705
  39.1970012  10.4704997 131.9559988  39.3810012  10.3884997 131.0199988
  40.0460012  10.3464997 132.3789988  39.3370151  10.4425073 131.8851451
  55.0180012  10.3624997 137.5839988  55.6010012   9.6284997 137.7759988
  55.5820012  11.1344997 137.6309988  55.1739769  10.3664227 137.6166159
  56.5140012   8.2654997 138.2689988  55.6510012   7.8864997 138.1029988
  57.1190012   7.5264997 138.1939988  56.4776119   8.1138268 138.2361528
  54.2390012   4.4204997 121.4419988  54.8500012   4.0494997 122.0789988
  53.4030012   3.9994997 121.6379988  54.2095032   4.3127554 121.5557035
  53.8720012   5.9754997 126.4079988  54.1520012   5.0684997 126.5319988
  54.6310012   6.4094997 126.0189988  54.0129277   5.9100942 126.3723682
  54.4840012   6.5564997 131.8439988  55.4170012   6.7684997 131.8089988
  54.2490012   6.6584997 132.7659988  54.5799244   6.5993100 131.9638892
  54.5130012   7.2934997 134.6199988  53.6700012   7.5614997 134.9859988
  54.9550012   8.1154997 134.4089988  54.4574158   7.4413291 134.6415491
  38.7940012   5.7414997 138.0969988  39.7140012   5.6194997 138.3329988
  38.3450012   4.9914997 138.4859988  38.8591580   5.6233727 138.1819006
  56.7960012   1.2734997 139.9729988  57.1460012   0.6194997 139.3679988
  56.9430012   2.1104997 139.5329988  56.8637887   1.2971548 139.8306858
  54.4850012   3.2384997 126.4559988  54.6680012   2.7894997 127.2819988
  53.8860012   2.6534997 125.9929988  54.4290202   3.0979975 126.5063275
  40.0150012   4.0534997 130.9879988  40.4610012   3.2614997 131.2899988
  40.4820012   4.7694997 131.4179988  40.1390831   4.0420685 131.0874006
  38.3190012   7.0524997 132.0569988  38.8110012   6.8314997 131.2659988
  38.6820012   7.8934997 132.3379988  38.4353126   7.1358357 131.9867531
  56.3160012   3.3824997 138.3219988  55.3980012   3.6534997 138.2869988
  56.4390012   2.8474997 137.5379988  56.2069729   3.3472508 138.2111923
  56.3520012   3.3054997 122.9839988  56.7640012   2.5844997 122.5089988
  57.0340012   3.9754997 123.0429988  56.5005885   3.2972368 122.9268915
  38.6330012   3.3104997 126.1109988  37.7080012   3.5194997 125.9819988
  39.0870012   3.7944997 125.4209988  38.5677292   3.4045343 126.0000720
  53.4040012  18.2944997 128.0569988  54.0560012  17.9474997 127.4489988
  53.9140012  18.7834997 128.7029988  53.5622637  18.3130597 128.0610236
  38.5970012   2.0484997 134.4549988  37.9320012   1.8024997 135.0989988
  38.1540012   2.6704997 133.8779988  38.4461318   2.0989410 134.4650898
  40.7890012  15.2234997 138.5999988  39.9680012  15.3984997 138.1389988
  40.5360012  15.1504997 139.5199988  40.6425585  15.2375544 138.6613561
  43.7430012  16.1984997 134.8579988  43.3180012  17.0074997 134.5759988
  44.6470012  16.2834997 134.5559988  43.8069975  16.3209300 134.7784816
  48.0540012  17.5974997 137.8179988  48.2390012  17.2634997 138.6959988
  48.9000012  17.9064997 137.4959988  48.1937539  17.5936047 137.8945605
  50.3990012  18.8834997 137.0619988  51.0760012  18.2504997 136.8219988
  50.7210012  19.2844997 137.8689988  50.5351637  18.8511154 137.1382793
  55.3160012   1.4724997 136.1409988  54.5040012   1.7974997 135.7539988
  55.5490012   0.7124997 135.6079988  55.2362203   1.4142758 136.0158880
  41.1450012  19.4544997 134.9059988  40.4240012  19.8944997 134.4549988
  40.7790012  19.2034997 135.7539988  40.9969651  19.4807242 134.9589640
  43.6120012  19.0544997 133.9359988  42.7470012  19.1264997 134.3399988
  43.5570012  19.6014997 133.1519988  43.4862085  19.1382685 133.8853362
  48.3220012  18.9424997 133.1109988  47.8660012  19.4714997 132.4569988
  48.4850012  19.5454997 133.8359988  48.2816068  19.0964607 133.1194838
  50.6500012  17.8204997 134.0559988  49.7450012  17.9854997 133.7899988
  51.0790012  18.6734997 133.9909988  50.5841324  17.9584339 134.0107976
  53.2540012  19.3904997 134.3509988  53.0720012  20.3064997 134.1409988
  53.4310012  18.9804997 133.5049988  53.2530210  19.4604822 134.2077885
  40.5590012  18.0774997 131.8159988  40.5410012  17.6524997 132.6729988
  41.3640012  17.7594997 131.4069988  40.6653529  17.9763013 131.8780946
  42.7010012  16.7874997 130.4709988  42.4820012  15.8714997 130.6409988
  43.5250012  16.9274997 130.9369988  42.7824420  16.6810520 130.5572774
  45.2380012  17.2574997 131.3199988  45.4510012  16.3694997 131.0329988
  45.3020012  17.2234997 132.2739988  45.2758232  17.1313102 131.4097397
  48.7460012   2.9214997 130.4639988  48.0720012   2.2924997 130.7199988
  49.3100012   2.4374997 129.8609988  48.7299230   2.7698744 130.4175340
  53.8890012   1.0294997 130.5769988  54.4930012   1.5764997 130.0749988
  53.0190012   1.3484997 130.3359988  53.8541208   1.1475137 130.4756886
  55.6160012   2.1674997 128.9099988  56.2280012   1.6534997 128.3829988
  55.9980012   3.0454997 128.9329988  55.7513371   2.2157866 128.8410041
  41.0730012   1.5554997 128.2859988  40.2960012   1.3214997 127.7789988
  41.6030012   0.7584997 128.2949988  41.0382330   1.4156988 128.2177742
  39.9090012   1.3534997 124.0899988  40.3480012   1.9644997 123.4979988
  39.2760012   1.8914997 124.5639988  39.8834514   1.5099257 124.0730930
  45.6520012   1.4824997 128.0999988  46.5270012   1.8704997 128.0699988
  45.5160012   1.2674997 129.0219988  45.7533695   1.5065184 128.2206440
  51.2090012   1.5124997 129.7489988  51.2850012   1.6074997 128.7989988
  50.9340012   0.6044997 129.8779988  51.1822321   1.4027867 129.6365079
  52.5620012   1.5384997 125.4409988  51.8600012   2.1534997 125.2309988
  52.1180012   0.7004997 125.5719988  52.4056450   1.5095639 125.4299000
  39.8100012  17.3014997 124.9869988  39.1250012  17.2634997 124.3199988
  39.8140012  18.2144997 125.2759988  39.7166998  17.4196733 124.9346771
  41.7700012   3.2694997 122.5319988  42.2620012   2.6394997 122.0049988
  42.3940012   3.5654997 123.1949988  41.9215688   3.2233804 122.5495482
  46.7960012   3.5624997 124.9889988  46.9740012   2.9164997 125.6719988
  46.7430012   4.3964997 125.4559988  46.8131999   3.5868009 125.1455917
  48.6750012  18.5114997 123.3849988  49.5410012  18.8774997 123.2069988
  48.4280012  18.0714997 122.5709988  48.7602392  18.5021756 123.2506289
  55.3840012  18.0744997 126.0639988  55.1890012  17.3264997 125.4989988
  55.3450012  18.8324997 125.4809988  55.3520380  18.0746099 125.9078384
  41.0310012   2.0694997 137.8039988  40.6650012   1.3044997 138.2459988
  41.9440012   2.0984997 138.0899988  41.1042736   1.9685640 137.9032502
  43.0040012   1.4204997 139.3399988  43.9020012   1.1464997 139.1549988
  42.6170012   0.6774997 139.8039988  43.0746612   1.2825914 139.3773643
  41.6280012  18.2214997 122.0129988  41.3610012  18.5084997 122.8859988
  42.4000012  17.6754997 122.1649988  41.6957488  18.1870294 122.1531050
  51.4250012   0.7524997 139.5219988  51.5020012   0.3264997 140.3759988
  52.3190012   0.7664997 139.1789988  51.5563428   0.6960879 139.5925310
  54.6010012  16.8254997 138.2139988  53.8190012  16.6394997 137.6939988
  54.5290012  17.7544997 138.4319988  54.4842274  16.9256643 138.1723018
  69.0070012  10.7114997 128.2449988  69.0960012  11.6554997 128.1129988
  68.3690012  10.4364997 127.5869988  68.9329081  10.8034830 128.1379614
  67.9400012   9.9664997 131.6639988  67.9020012   9.3204997 132.3689988
  67.6180012   9.5004997 130.8929988  67.8912333   9.8149408 131.6562978
  60.3090012   9.5814997 133.2569988  60.3500012   8.9554997 133.9799988
  61.0120012  10.2054997 133.4389988  60.4096363   9.5801196 133.3806044
  71.6460012  12.9054997 129.9649988  71.2060012  12.1854997 130.4159988
  71.6330012  13.6264997 130.5949988  71.5840226  12.9043731 130.1118494
  61.2320012  14.0314997 131.7919988  60.8630012  13.2294997 131.4219988
  62.1730012  13.8624997 131.8379988  61.3087289  13.8990153 131.7476316
  57.8420012   7.6914997 127.1849988  57.3950012   8.5374997 127.1659988
  57.2810012   7.1114997 126.6689988  57.7049900   7.7289916 127.1126801
  58.5530012   9.8534997 129.3099988  58.7660012   9.0834997 129.8379988
  59.2910012   9.9424997 128.7069988  58.6819044   9.7601968 129.3007123
  68.7580012  18.0104997 130.1769988  69.3780012  17.3334997 129.9039988
  68.5500012  17.7924997 131.0859988  68.8146726  17.8884800 130.2624812
  66.3300012  12.3994997 132.0699988  66.6340012  11.7134997 131.4749988
  67.0510012  12.5174997 132.6879988  66.4690671  12.3216305 132.0721816
  74.9930012   4.0004997 132.9309988  75.0420012   4.6104997 133.6659988
  75.4180012   4.4614997 132.2079988  75.0571746   4.1463796 132.9339175
  69.4710012   6.7934997 132.3969988  69.6130012   5.8474997 132.4179988
  69.3640012   7.0004997 131.4689988  69.4759919   6.6918246 132.2743408
  62.6250012   4.8944997 129.6699988  62.6690012   5.7544997 129.2509988
  62.1680012   4.3424997 129.0359988  62.5692240   4.9374422 129.5269864
  70.3480012   5.0254997 128.0709988  70.9940012   4.6964997 128.6949988
  70.8580012   5.5434997 127.4479988  70.5054299   5.0504450 128.0722731
  59.2460012   7.2914997 130.4319988  59.8990012   6.7414997 130.8639988
  59.2700012   7.0174997 129.5149988  59.3386683   7.1791466 130.3672123
  64.4020012   8.8414997 129.6469988  65.0180012   8.3154997 130.1569988
  63.8160012   8.2014997 129.2439988  64.4070810   8.6829208 129.6623173
  75.3840012   5.4784997 135.1659988  74.6960012   6.1364997 135.0709988
  75.4000012   5.2814997 136.1029988  75.2919540   5.5419819 135.2795990
  61.4360012   3.8124997 133.7439988  61.2170012   4.3424997 132.9779988
  60.7680012   4.0394997 134.3909988  61.3157600   3.9156906 133.7266379
  68.8050012  13.3124997 127.2879988  68.5090012  12.9904997 126.4369988
  68.4800012  14.2124997 127.3289988  68.7206371  13.3900215 127.1771801
  64.0050012  11.4884997 134.0309988  63.2650012  12.0864997 134.1349988
  64.7190012  12.0424997 133.7159988  64.0002237  11.6452831 134.0026465
  72.1120012   4.3164997 130.0509988  71.8960012   3.5504997 130.5839988
  72.7670012   4.7884997 130.5639988  72.1710632   4.2755889 130.1932861
  61.0290012   5.7044997 131.6959988  61.6430012   6.3374997 132.0689988
  61.5410012   5.2324997 131.0399988  61.1821981   5.7272267 131.6582908
  62.4120012  13.4524997 134.8179988  62.4070012  14.3324997 134.4399988
  61.5590012  13.3694997 135.2429988  62.2959464  13.5616117 134.8237907
  58.5330012  13.1234997 125.5999988  58.2610012  13.3524997 124.7119988
  58.5790012  13.9614997 126.0609988  58.5019482  13.2681318 125.5406273
  72.1580012  14.7454997 132.3129988  71.2170012  14.8034997 132.4749988
  72.4350012  15.6514997 132.1759988  72.0664679  14.8759443 132.3166815
  72.4590012   3.0314997 133.7309988  71.7230012   3.6424997 133.6929988
  73.1420012   3.4464997 133.2039988  72.4506541   3.1711374 133.6545832
  65.4620012   1.1184997 131.1959988  65.3450012   0.1694997 131.1419988
  64.6070012   1.4504997 131.4699988  65.3304212   1.0335571 131.2256497
  70.4100012  16.5264997 128.9379988  70.8360012  15.8194997 128.4529988
  70.7270012  17.3274997 128.5219988  70.5111683  16.5381017 128.8153680
  71.5700012  14.4274997 127.4469988  71.3120012  13.7374997 126.8359988
  71.6410012  13.9844997 128.2929988  71.5442856  14.2732124 127.4776885
  73.2560012  12.9934997 135.9239988  73.3960012  12.4024997 135.1849988
  73.4230012  13.8664997 135.5679988  73.2977411  13.0305428 135.7746894
  67.7290012   9.9554997 125.6969988  67.0170012  10.4904997 125.3449988
  68.4200012  10.0114997 125.0369988  67.7250132  10.0362543 125.5596289
  67.7820012   8.4134997 122.7359988  68.4830012   8.4354997 123.3869988
  68.0850012   7.7854997 122.0789988  67.9188133   8.3317070 122.7363369
  75.0980012   9.3334997 133.9899988  74.4450012  10.0284997 134.0799988
  75.5630012   9.5434997 133.1809988  75.0715274   9.4570643 133.8928462
  71.1340012  10.1654997 126.6489988  70.4020012  10.3934997 127.2219988
  71.5820012   9.4514997 127.1029988  71.0942725  10.1002145 126.7888816
  71.0320012   8.3394997 135.7159988  71.1120012   9.1024997 136.2879988
  70.4300012   8.6184997 135.0259988  70.9615756   8.4817134 135.7010589
  62.7800012  10.7954997 128.5309988  62.4490012  10.4254997 127.7129988
  63.3680012  10.1254997 128.8779988  62.8141873  10.6541156 128.4658102
  64.1460012  14.2234997 131.2119988  64.0520012  13.6454997 130.4559988
  64.8760012  13.8524997 131.7089988  64.2317387  14.0941663 131.1755342
  63.1460012   9.5644997 132.1649988  63.7120012   9.6854997 131.4019988
  63.4650012  10.2014997 132.8029988  63.2665474   9.6672219 132.1469862
  69.4550012  15.0674997 132.8989988  69.2150012  15.7294997 133.5469988
  69.2570012  14.2334997 133.3239988  69.3953808  15.0453134 133.0451524
  64.0260012  13.9634997 136.8819988  63.7150012  14.7454997 137.3369988
  63.3760012  13.8104997 136.1959988  63.8955558  14.0499105 136.8515871
  70.0050012   9.3274997 124.3339988  70.5850012   9.4774997 125.0809988
  70.4190012   9.7984997 123.6099988  70.1402997   9.4116578 124.3384058
  60.9460012  10.1614997 136.1099988  61.0170012  10.8124997 136.8089988
  60.0560012  10.2644997 135.7749988  60.8353005  10.2645427 136.1603495
  67.7320012  16.0644997 127.7689988  68.2060012  16.3594997 128.5459988
  67.1690012  16.8024997 127.5359988  67.7208184  16.2047247 127.8439628
  62.2660012  16.0354997 137.6449988  62.2730012  15.8994997 136.6979988
  61.3500012  15.9174997 137.8969988  62.1431714  16.0009430 137.5494666
  73.7040012   1.0774997 124.1469988  72.8040012   1.2164997 124.4419988
  73.9560012   1.9084997 123.7449988  73.6148702   1.2089074 124.1330205
  61.7700012   9.8654997 126.1199988  61.4780012  10.6334997 125.6299988
  61.0960012   9.2054997 125.9579988  61.6388111   9.8815587 126.0308978
  74.8930012  15.4434997 122.5229988  74.9670012  16.3824997 122.6939988
  75.7990012  15.1384997 122.4669988  75.0255100  15.5306722 122.5388119
  57.8630012  12.2284997 134.9349988  57.3620012  12.2004997 134.1199988
  57.8680012  11.3224997 135.2449988  57.7950944  12.1022396 134.8653226
  57.6130012  15.0084997 131.8189988  58.5590012  14.8644997 131.7999988
  57.5010012  15.7924997 132.3559988  57.7272727  15.0948046 131.8890072
  75.8110012  15.6744997 137.5019988  75.7620012  14.7194997 137.4649988
  74.9840012  15.9424997 137.9029988  75.6924940  15.5798998 137.5511375
  66.7900012  15.2484997 136.3779988  66.8770012  16.0744997 136.8529988
  65.9260012  14.9184997 136.6269988  66.6851964  15.3169878 136.4766549
  67.2040012  19.0204997 126.1839988  67.1290012  18.8994997 125.2369988
  67.2370012  19.9704997 126.3019988  67.1982068  19.1322646 126.0704967
  60.8570012  17.8094997 127.9649988  61.0100012  17.4614997 128.8429988
  60.0070012  17.4534997 127.7099988  60.7629166  17.7136217 128.0508079
  70.3060012  18.1744997 123.1859988  70.6810012  17.4304997 122.7149988
  70.3100012  17.9044997 124.1049988  70.3579125  18.0360986 123.2456483
  69.9750012  18.1004997 125.9349988  69.0390012  18.2004997 126.1139988
  70.2550012  17.3914997 126.5139988  69.8849553  18.0183406 126.0377087
  72.9630012   7.1674997 137.9819988  72.5560012   7.6484997 137.2609988
  73.0040012   6.2624997 137.6739988  72.9128437   7.1109374 137.8416683
  60.1120012  13.5514997 135.9789988  60.3280012  13.1904997 136.8379988
  59.2570012  13.1774997 135.7689988  60.0259292  13.4514111 136.0683386
  62.7310012   2.0214997 131.9739988  61.8690012   1.9344997 131.5659988
  62.7080012   2.8774997 132.4019988  62.6100409   2.1252883 131.9760589
  67.3940012   1.7434997 135.3489988  67.8140012   1.3284997 136.1019988
  66.4610012   1.5654997 135.4659988  67.3253644   1.6625900 135.4679539
  70.7200012   5.4994997 136.2019988  70.2060012   5.3734997 136.9999988
  70.5650012   6.4114997 135.9579988  70.6286852   5.6056132 136.2782158
  71.4830012  10.3604997 121.9639988  71.5250012  10.1374997 121.0339988
  72.3320012  10.7594997 122.1529988  71.6035280  10.3839438 121.8623554
  67.0550012   4.2364997 122.6339988  66.8020012   4.2554997 123.5569988
  66.7990012   3.3644997 122.3319988  66.9857481   4.1212558 122.7196175
  62.8220012   6.9874997 133.0689988  62.1800012   6.9464997 133.7779988
  62.8590012   7.9134997 132.8309988  62.7390664   7.1071430 133.1339219
  62.8190012   7.2084997 127.9809988  61.9260012   6.8674997 127.9219988
  63.2690012   6.8314997 127.2249988  62.7578130   7.1109631 127.8707702
  68.3540012   7.6244997 126.7979988  67.9450012   8.4394997 126.5069988
  69.0750012   7.4844997 126.1839988  68.3954537   7.7172018 126.6751342
  67.4560012   7.7994997 138.2859988  66.8940012   7.0954997 138.6069988
  68.2830012   7.6794997 138.7539988  67.4907095   7.6867883 138.3932330
  69.3590012   7.0704997 129.6119988  69.1640012   7.6754997 128.8969988
  69.5400012   6.2364997 129.1779988  69.3567614   7.0406300 129.4554405
  60.5720012   7.3074997 134.9359988  60.5340012   7.7074997 135.8049988
  60.0810012   6.4904997 135.0269988  60.5004684   7.2518069 135.0671059
  63.9380012   4.6814997 121.7349988  63.5070012   4.2364997 122.4649988
  63.2200012   5.0534997 121.2229988  63.7819438   4.6708940 121.7656799
  57.1800012   4.4234997 128.7869988  57.8110012   4.3944997 129.5059988
  57.6290012   3.9984997 128.0559988  57.3270918   4.3620836 128.7866441
  58.4540012   5.1694997 124.2109988  58.9280012   5.7604997 123.6259988
  57.7370012   5.7004997 124.5579988  58.4219341   5.3220867 124.1778836
  68.6230012   8.7084997 134.2829988  68.9460012   8.0774997 133.6399988
  68.1830012   8.1734997 134.9439988  68.6077484   8.5498387 134.2843198
  65.4000012   4.6354997 129.0669988  64.4890012   4.6924997 129.3559988
  65.9060012   4.5754997 129.8779988  65.3436899   4.6351941 129.2161184
  60.2290012   6.2644997 127.8939988  59.3390012   6.3644997 127.5539988
  60.5250012   5.4224997 127.5479988  60.1472823   6.1643545 127.8007213
  63.8820012   6.2644997 125.5509988  64.8130012   6.3934997 125.7289988
  63.6670012   6.9344997 124.9009988  63.9804247   6.3726565 125.4875747
  69.8050012   3.8704997 132.3319988  69.1290012   4.0014997 132.9959988
  69.3200012   3.7154997 131.5209988  69.6467146   3.8675157 132.3134469
  62.5560012   7.4594997 123.1169988  62.0130012   7.0794997 122.4259988
  63.3890012   7.6534997 122.6889988  62.5943631   7.4337125 122.9644501
  73.0930012  19.5424997 138.6079988  73.2930012  19.9664997 137.7739988
  73.7480012  19.8854997 139.2149988  73.2090072  19.6469857 138.5758592
  60.6910012  12.0164997 138.2159988  61.4230012  12.2704997 138.7779988
  59.9110012  12.2204997 138.7319988  60.6857073  12.0788160 138.3626151
  66.7200012   7.4234997 130.9539988  67.2850012   6.8764997 130.4069988
  66.5730012   6.9014997 131.7429988  66.7773380   7.2782259 130.9858695
  61.7220012   3.5594997 127.3729988  61.4050012   2.6574997 127.3369988
  62.5040012   3.5614997 126.8199988  61.7842408   3.4362474 127.2933569
  65.3470012   5.8114997 133.3679988  64.5110012   6.2654997 133.4789988
  65.8710012   6.0874997 134.1199988  65.3035416   5.9108660 133.4848119
  65.8910012  12.0244997 125.0529988  65.1460012  11.5174997 124.7309988
  65.7570012  12.0734997 125.9999988  65.7708776  11.9616940 125.1368647
  73.0410012  11.1574997 133.8399988  73.6830012  11.6144997 133.2959988
  72.2110012  11.2704997 133.3769988  73.0165963  11.2352704 133.7030177
  69.7890012   4.8384997 123.2519988  68.8500012   4.9504997 123.1009988
  70.0860012   5.6954997 123.5589988  69.7007583   4.9695981 123.2728337
  67.4100012  12.2084997 136.2899988  67.0650012  11.8274997 137.0969988
  67.2100012  13.1424997 136.3609988  67.3357527  12.2825135 136.4100689
  70.5070012   6.7054997 124.9129988  71.3990012   6.5684997 125.2319988
  70.5640012   7.4964997 124.3759988  70.6366504   6.7936052 124.8840818
  61.0160012  11.3194997 130.8229988  61.7610012  11.3174997 130.2219988
  61.0940012  10.4964997 131.3039988  61.1284995  11.2078887 130.8058282
  68.0170012  13.4834997 124.0789988  67.7210012  14.3094997 124.4599988
  67.3140012  12.8634997 124.2749988  67.8814914  13.5128199 124.1576443
  58.0240012   9.7804997 136.1379988  58.2470012   9.3624997 136.9699988
  57.4220012   9.1674997 135.7149988  57.9731759   9.6404668 136.1947022
  65.0400012   9.2974997 138.3509988  64.7440012   9.1314997 137.4559988
  65.9720012   9.0774997 138.3399988  65.1254166   9.2450640 138.2270536
  69.6610012  14.6704997 136.2409988  68.7600012  14.8534997 135.9729988
  69.6950012  14.9294997 137.1609988  69.5423139  14.7305849 136.3288099
  75.3920012   6.9154997 124.6079988  74.8380012   6.5194997 123.9359988
  75.4920012   7.8254997 124.3299988  75.3297059   6.9843586 124.4784401
  75.3550012  12.7154997 137.4449988  74.5040012  12.9534997 137.0779988
  75.9460012  12.6984997 136.6919988  75.3182487  12.7458258 137.2928893
  73.6870012  15.7014997 125.0729988  73.3140012  14.8754997 125.3819988
  73.9650012  15.5184997 124.1749988  73.6735222  15.5637430 124.9939473
  70.8480012  10.5094997 132.0939988  69.9190012  10.2774997 132.0669988
  71.2990012   9.7324997 131.7639988  70.7819216  10.3727238 132.0456917
  63.3910012  14.8374997 128.2269988  63.9180012  15.6104997 128.0269988
  62.5110012  15.0624997 127.9249988  63.3442031  14.9737545 128.1587912
  59.1460012   9.6994997 122.8139988  59.7620012  10.3264997 123.1939988
  58.2840012  10.0154997 123.0859988  59.1137698   9.8279430 122.9027183
  64.8180012  12.5004997 127.8029988  64.5770012  13.4254997 127.8449988
  64.0770012  12.0414997 128.1999988  64.6849225  12.5650933 127.8623742
  65.3330012  16.6494997 134.1189988  65.6950012  17.5044997 133.8849988
  65.8640012  16.3574997 134.8589988  65.4544473  16.7271060 134.1870855
  63.5010012  17.5224997 127.3489988  62.5510012  17.6274997 127.3999988
  63.8530012  18.3424997 127.6929988  63.4184195  17.6478800 127.4025502
  68.8770012  12.7484997 133.8189988  68.4510012  12.5214997 134.6459988
  69.4570012  12.0104997 133.6369988  68.8971868  12.6175299 133.9075830
  71.0800012  13.6774997 122.8929988  71.4330012  13.2974997 123.6969988
  70.1310012  13.5844997 122.9799988  71.0000918  13.6128956 123.0148532
  71.5350012  17.3004997 136.2889988  70.9340012  16.7454997 135.7929988
  71.8170012  17.9674997 135.6619988  71.4908804  17.3146625 136.1364849
  75.5830012  18.1574997 123.0939988  76.3270012  18.7434997 122.9539988
  74.8890012  18.7254997 123.4269988  75.5909899  18.3145798 123.1198778
  59.6580012   4.5334997 135.6959988  58.7650012   4.8724997 135.6279988
  59.5590012   3.6784997 136.1139988  59.5224164   4.4642588 135.7432235
  71.9460012  12.3504997 125.1199988  71.6680012  11.6224997 125.6759988
  72.8730012  12.4694997 125.3249988  72.0333124  12.2668802 125.2238845
  59.3090012  16.3384997 134.1309988  59.5260012  15.4064997 134.0999988
  59.5550012  16.6124997 135.0139988  59.3719549  16.2480636 134.2461763
  65.1710012  14.7894997 121.3399988  65.4100012  14.0414997 120.7929988
  64.9020012  14.4014997 122.1729988  65.1673675  14.6346638 121.3776865
  64.1080012  14.3594997 123.7959988  64.2540012  13.8394997 124.5859988
  64.1050012  15.2664997 124.1029988  64.1275792  14.4108842 123.9456117
  60.5610012  11.6124997 124.3069988  59.8750012  11.9644997 124.8739988
  61.0830012  12.3754997 124.0599988  60.5376852  11.7638578 124.3512118
  68.3920012   4.2744997 134.5859988  69.0910012   4.3484997 135.2359988
  68.0110012   3.4104997 134.7399988  68.4361767   4.1677624 134.6958322
  69.1770012   3.9264997 125.6829988  69.3970012   4.3984997 124.8799988
  69.7350012   4.3214997 126.3529988  69.2824968   4.0444285 125.6637331
  66.8450012  16.0574997 124.5459988  66.0290012  16.5544997 124.5979988
  67.3750012  16.5324997 123.9059988  66.8049161  16.1897722 124.4665956
  66.3770012   5.6544997 126.5179988  67.1890012   6.1594997 126.5639988
  66.1320012   5.5094997 127.4319988  66.4550520   5.7040375 126.6478517
  66.9120012   6.6404997 135.7019988  67.0310012   7.2144997 136.4599988
  67.5680012   5.9524997 135.8169988  67.0169025   6.6259858 135.8211321
  67.2600012   2.7354997 127.4559988  66.9140012   3.3534997 128.0999988
  67.9190012   3.2364997 126.9739988  67.3016968   2.8876278 127.4789383
  64.1840012  17.1014997 124.5269988  64.3440012  17.9004997 124.0269988
  63.9860012  17.4074997 125.4119988  64.1791637  17.2524020 124.5781144
  62.9180012   3.7984997 124.1429988  62.8350012   4.6874997 124.4899988
  63.8080012   3.5334997 124.3749988  63.0269469   3.8841430 124.2217626
  73.1170012   4.5474997 136.5369988  72.2000012   4.8104997 136.4499988
  73.4520012   4.5444997 135.6409988  73.0368613   4.5830761 136.4038837
  71.7190012   8.2984997 130.6329988  70.9210012   7.8834997 130.3049988
  72.1640012   7.6074997 131.1239988  71.6699885   8.1483543 130.6544889
  61.1770012  14.2264997 123.2039988  61.7690012  14.9254997 123.4799988
  61.6360012  13.7934997 122.4839988  61.3201142  14.2637049 123.1444830
  59.4930012   6.8904997 122.3199988  59.4480012   7.8294997 122.4979988
  58.6050012   6.6544997 122.0499988  59.3668574   6.9871892 122.3078912
  72.8050012  17.5544997 132.2559988  72.6500012  18.2324997 131.5979988
  73.7380012  17.6264997 132.4589988  72.9098657  17.6569546 132.1934360
  60.3010012   1.6724997 130.9929988  60.0720012   1.7314997 130.0649988
  59.8580012   0.8804997 131.2989988  60.2098530   1.5735753 130.9074786
  59.2310012  15.6124997 127.1529988  58.3990012  16.0854997 127.1799988
  59.7770012  16.1224997 126.5549988  59.1910352  15.7461332 127.0758463
  58.5190012  18.2254997 138.4829988  59.0600012  18.0084997 139.2429988
  58.0380012  17.4194997 138.2929988  58.5279951  18.0869270 138.5612576
  63.1170012  17.1444997 140.1029988  63.8840012  16.6854997 140.4439988
  63.0950012  16.9184997 139.1739988  63.2191275  17.0510186 140.0240101
  67.2090012  16.6524997 121.4789988  66.5650012  16.0214997 121.7999988
  67.9710012  16.1214997 121.2469988  67.2238077  16.4942920 121.4916011
  69.6940012  15.5244997 138.8329988  69.3430012  14.6684997 139.0759988
  70.4200012  15.6674997 139.4399988  69.7440769  15.4265636 138.9483619
  71.8130012  16.4694997 121.7119988  72.0960012  15.6754997 122.1649988
  72.5530012  16.7024997 121.1519988  71.9518006  16.3923376 121.6982715
  58.4260012  12.0354997 139.4369988  58.5700012  11.1334997 139.1509988
  57.6540012  12.3214997 138.9499988  58.3412753  11.9506816 139.3319505
  62.7680012  12.3794997 121.5699988  62.8320012  11.5854997 122.1009988
  63.4210012  12.2604997 120.8799988  62.8650241  12.2547148 121.5494317
  65.0820012  12.0054997 138.8699988  64.7530012  12.2764997 138.0129988
  65.2340012  11.0644997 138.7829988  65.0574809  11.9153862 138.7408244
  68.1200012  13.4264997 121.3059988  67.8510012  13.6064997 122.2069988
  67.9140012  12.5004997 121.1739988  68.0553427  13.3260261 121.4115073
  70.8160012  11.9214997 136.2529988  71.5620012  12.5094997 136.1339988
  70.0590012  12.5034997 136.3169988  70.8157820  12.0807143 136.2453590
  59.2590012   9.2354997 138.8569988  59.6670012   8.3784997 138.7359988
  58.9990012   9.2504997 139.7779988  59.2797568   9.1200807 138.9649588
  63.9170012  10.3514997 123.8759988  63.4570012   9.8674997 124.5619988
  64.1720012   9.6834997 123.2399988  63.8884902  10.1948731 123.8839334
  63.2060012   8.2444997 136.2319988  62.5880012   8.9194997 136.5119988
  63.5500012   8.5654997 135.3979988  63.1679132   8.3802411 136.1576262
  64.9880012   8.5944997 122.1379988  64.8080012   8.4404997 121.2109988
  65.9380012   8.7024997 122.1829988  65.0917776   8.5880175 122.0171843
  68.2260012  10.7164997 139.5089988  69.1790012  10.7994997 139.4819988
  68.0650012  10.0044997 140.1289988  68.3346426  10.6316746 139.5890579
  74.3780012  10.9494997 121.5839988  74.1040012  10.5244997 120.7709988
  74.4170012  11.8804997 121.3669988  74.3457699  11.0172484 121.4433610
  63.5450012   5.5994997 137.3139988  63.6950012   4.8704997 136.7119988
  63.5480012   6.3764997 136.7549988  63.5659302   5.6047851 137.1560692
  63.9580012   3.9694997 134.8069988  64.4940012   4.4204997 134.1549988
  63.1060012   3.8614997 134.3839988  63.9162178   4.0166390 134.6605756
  65.5400012   9.4084997 135.0459988  66.2900012   9.2524997 134.4729988
  65.2010012  10.2604997 134.7709988  65.5968921   9.5022968 134.9303561
  69.9550012   7.2234997 140.0749988  70.1480012   6.2924997 139.9629988
  70.8130012   7.6484997 140.0639988  70.0972934   7.1536531 140.0582031
  71.2720012  10.0124997 138.1519988  70.9910012  10.7214997 137.5739988
  72.2150012   9.9394997 138.0009988  71.3609291  10.0996711 138.0524967
  62.0240012   6.7974997 139.2259988  61.2570012   6.2654997 139.0149988
  62.7030012   6.4874997 138.6259988  62.0107877   6.6828300 139.1160716
  64.7640012   1.4254997 135.2379988  64.6650012   2.3724997 135.1329988
  64.0210012   1.0534997 134.7619988  64.6501184   1.5045863 135.1593621
  66.0280012   5.7474997 138.8019988  65.7920012   5.5274997 139.7029988
  65.2440012   5.5404997 138.2919988  65.8898504   5.6894586 138.8563431
  68.7430012   4.8744997 137.8769988  67.7960012   4.9064997 138.0099988
  69.0560012   4.2494997 138.5309988  68.6556707   4.7943998 137.9836060
  70.3770012   3.5084997 139.8829988  70.2810012   2.5564997 139.8769988
  70.0560012   3.7774997 140.7429988  70.3204070   3.4144035 139.9985441
  60.2040012   4.7184997 138.9299988  60.4160012   4.0114997 138.3199988
  60.0930012   4.2804997 139.7739988  60.2179721   4.5627084 138.9606843
  64.9850012   0.7194997 137.9089988  65.6970012   0.0794997 137.8949988
  64.8840012   0.9864997 136.9959988  65.0688066   0.6680079 137.7835677
  65.3390012   2.4024997 139.9629988  65.2070012   1.9264997 139.1429988
  64.7400012   3.1464997 139.9079988  65.2399071   2.4379618 139.8432886
  64.8850012  19.2854997 123.1389988  65.8180012  19.4434997 123.2829988
  64.6210012  19.9604997 122.5149988  64.9769888  19.3984510 123.0742842
  58.4540012  13.9214997 122.6219988  59.3680012  14.0004997 122.8959988
  58.4610012  13.2344997 121.9559988  58.5801131  13.8393961 122.5694393
  57.1030012  19.3144997 127.6999988  56.4560012  18.8524997 127.1669988
  57.4570012  18.6424997 128.2819988  57.0623849  19.1604723 127.7057959
  57.9730012  17.3954997 129.5039988  57.6380012  16.5154997 129.6759988
  58.1950012  17.7404997 130.3689988  57.9571783  17.3217500 129.6444208
  75.5210012  18.2044997 132.4849988  75.5000012  18.3894997 133.4239988
  76.2120012  18.7734997 132.1439988  75.6114618  18.3066606 132.5673864
  75.0850012  17.7724997 135.4069988  74.5970012  17.0364997 135.0349988
  75.6340012  17.3784997 136.0849988  75.0924820  17.6185889 135.4477813
  73.5350012  13.5614997 140.0449988  72.6690012  13.4564997 140.4389988
  73.9120012  14.3204997 140.4909988  73.4673308  13.6496900 140.1592393
  74.8360012  11.8184997 125.5589988  75.6860012  12.2394997 125.6859988
  74.8420012  11.0784997 126.1659988  74.9531372  11.7760803 125.6584344
  75.2310012   9.8714997 127.3819988  74.5040012   9.3924997 127.7799988
  75.8120012  10.0774997 128.1149988  75.2100473   9.8338103 127.5354528
  74.9900012  12.6564997 132.3299988  75.8230012  12.2784997 132.0499988
  75.1020012  13.5994997 132.2109988  75.1192647  12.7322218 132.2755487
  73.4760012  15.5344997 134.6369988  72.8290012  15.8594997 135.2629988
  72.9590012  15.0944997 133.9629988  73.3174029  15.5195004 134.6315827
  75.4990012   9.7724997 123.7739988  74.9770012  10.1294997 123.0549988
  75.4660012  10.4474997 124.4519988  75.4231634   9.9125413 123.7673145
  73.8480012   7.0124997 122.3239988  73.9440012   7.6794997 121.6439988
  73.7080012   6.1964997 121.8429988  73.8422272   6.9935655 122.1658347
  73.0170012   8.3924997 127.9449988  72.8670012   7.4474997 127.9249988
  72.6640012   8.6734997 128.7889988  72.9487448   8.3011481 128.0563705
  58.0530012  10.4704997 131.9559988  58.2370012  10.3884997 131.0199988
  58.9020012  10.3464997 132.3789988  58.1930151  10.4425073 131.8851451
  73.8740012  10.3624997 137.5839988  74.4570012   9.6284997 137.7759988
  74.4380012  11.1344997 137.6309988  74.0299769  10.3664227 137.6166159
  75.3700012   8.2654997 138.2689988  74.5070012   7.8864997 138.1029988
  75.9750012   7.5264997 138.1939988  75.3336119   8.1138268 138.2361528
  73.0950012   4.4204997 121.4419988  73.7060012   4.0494997 122.0789988
  72.2590012   3.9994997 121.6379988  73.0655032   4.3127554 121.5557035
  72.7280012   5.9754997 126.4079988  73.0080012   5.0684997 126.5319988
  73.4870012   6.4094997 126.0189988  72.8689277   5.9100942 126.3723682
  73.3400012   6.5564997 131.8439988  74.2730012   6.7684997 131.8089988
  73.1050012   6.6584997 132.7659988  73.4359244   6.5993100 131.9638892
  73.3690012   7.2934997 134.6199988  72.5260012   7.5614997 134.9859988
  73.8110012   8.1154997 134.4089988  73.3134158   7.4413291 134.6415491
  57.6500012   5.7414997 138.0969988  58.5700012   5.6194997 138.3329988
  57.2010012   4.9914997 138.4859988  57.7151580   5.6233727 138.1819006
  75.6520012   1.2734997 139.9729988  76.0020012   0.6194997 139.3679988
  75.7990012   2.1104997 139.5329988  75.7197887   1.2971548 139.8306858
  73.3410012   3.2384997 126.4559988  73.5240012   2.7894997 127.2819988
  72.7420012   2.6534997 125.9929988  73.2850202   3.0979975 126.5063275
  58.8710012   4.0534997 130.9879988  59.3170012   3.2614997 131.2899988
  59.3380012   4.7694997 131.4179988  58.9950831   4.0420685 131.0874006
  57.1750012   7.0524997 132.0569988  57.6670012   6.8314997 131.2659988
  57.5380012   7.8934997 132.3379988  57.2913126   7.1358357 131.9867531
  75.1720012   3.3824997 138.3219988  74.2540012   3.6534997 138.2869988
  75.2950012   2.8474997 137.5379988  75.0629729   3.3472508 138.2111923
  75.2080012   3.3054997 122.9839988  75.6200012   2.5844997 122.5089988
  75.8900012   3.9754997 123.0429988  75.3565885   3.2972368 122.9268915
  57.4890012   3.3104997 126.1109988  56.5640012   3.5194997 125.9819988
  57.9430012   3.7944997 125.4209988  57.4237292   3.4045343 126.0000720
  72.2600012  18.2944997 128.0569988  72.9120012  17.9474997 127.4489988
  72.7700012  18.7834997 128.7029988  72.4182637  18.3130597 128.0610236
  57.4530012   2.0484997 134.4549988  56.7880012   1.8024997 135.0989988
  57.0100012   2.6704997 133.8779988  57.3021318   2.0989410 134.4650898
  59.6450012  15.2234997 138.5999988  58.8240012  15.3984997 138.1389988
  59.3920012  15.1504997 139.5199988  59.4985585  15.2375544 138.6613561
  62.5990012  16.1984997 134.8579988  62.1740012  17.0074997 134.5759988
  63.5030012  16.2834997 134.5559988  62.6629975  16.3209300 134.7784816
  66.9100012  17.5974997 137.8179988  67.0950012  17.2634997 138.6959988
  67.7560012  17.9064997 137.4959988  67.0497539  17.5936047 137.8945605
  69.2550012  18.8834997 137.0619988  69.9320012  18.2504997 136.8219988
  69.5770012  19.2844997 137.8689988  69.3911637  18.8511154 137.1382793
  74.1720012   1.4724997 136.1409988  73.3600012   1.7974997 135.7539988
  74.4050012   0.7124997 135.6079988  74.0922203   1.4142758 136.0158880
  60.0010012  19.4544997 134.9059988  59.2800012  19.8944997 134.4549988
  59.6350012  19.2034997 135.7539988  59.8529651  19.4807242 134.9589640
  62.4680012  19.0544997 133.9359988  61.6030012  19.1264997 134.3399988
  62.4130012  19.6014997 133.1519988  62.3422085  19.1382685 133.8853362
  67.1780012  18.9424997 133.1109988  66.7220012  19.4714997 132.4569988
  67.3410012  19.5454997 133.8359988  67.1376068  19.0964607 133.1194838
  69.5060012  17.8204997 134.0559988  68.6010012  17.9854997 133.7899988
  69.9350012  18.6734997 133.9909988  69.4401324  17.9584339 134.0107976
  72.1100012  19.3904997 134.3509988  71.9280012  20.3064997 134.1409988
  72.2870012  18.9804997 133.5049988  72.1090210  19.4604822 134.2077885
  59.4150012  18.0774997 131.8159988  59.3970012  17.6524997 132.6729988
  60.2200012  17.7594997 131.4069988  59.5213529  17.9763013 131.8780946
  61.5570012  16.7874997 130.4709988  61.3380012  15.8714997 130.6409988
  62.3810012  16.9274997 130.9369988  61.6384420  16.6810520 130.5572774
  64.0940012  17.2574997 131.3199988  64.3070012  16.3694997 131.0329988
  64.1580012  17.2234997 132.2739988  64.1318232  17.1313102 131.4097397
  67.6020012   2.9214997 130.4639988  66.9280012   2.2924997 130.7199988
  68.1660012   2.4374997 129.8609988  67.5859230   2.7698744 130.4175340
  72.7450012   1.0294997 130.5769988  73.3490012   1.5764997 130.0749988
  71.8750012   1.3484997 130.3359988  72.7101208   1.1475137 130.4756886
  74.4720012   2.1674997 128.9099988  75.0840012   1.6534997 128.3829988
  74.8540012   3.0454997 128.9329988  74.6073371   2.2157866 128.8410041
  59.9290012   1.5554997 128.2859988  59.1520012   1.3214997 127.7789988
  60.4590012   0.7584997 128.2949988  59.8942330   1.4156988 128.2177742
  58.7650012   1.3534997 124.0899988  59.2040012   1.9644997 123.4979988
  58.1320012   1.8914997 124.5639988  58.7394514   1.5099257 124.0730930
  64.5080012   1.4824997 128.0999988  65.3830012   1.8704997 128.0699988
  64.3720012   1.2674997 129.0219988  64.6093695   1.5065184 128.2206440
  70.0650012   1.5124997 129.7489988  70.1410012   1.6074997 128.7989988
  69.7900012   0.6044997 129.8779988  70.0382321   1.4027867 129.6365079
  71.4180012   1.5384997 125.4409988  70.7160012   2.1534997 125.2309988
  70.9740012   0.7004997 125.5719988  71.2616450   1.5095639 125.4299000
  58.6660012  17.3014997 124.9869988  57.9810012  17.2634997 124.3199988
  58.6700012  18.2144997 125.2759988  58.5726998  17.4196733 124.9346771
  60.6260012   3.2694997 122.5319988  61.1180012   2.6394997 122.0049988
  61.2500012   3.5654997 123.1949988  60.7775688   3.2233804 122.5495482
  65.6520012   3.5624997 124.9889988  65.8300012   2.9164997 125.6719988
  65.5990012   4.3964997 125.4559988  65.6691999   3.5868009 125.1455917
  67.5310012  18.5114997 123.3849988  68.3970012  18.8774997 123.2069988
  67.2840012  18.0714997 122.5709988  67.6162392  18.5021756 123.2506289
  74.2400012  18.0744997 126.0639988  74.0450012  17.3264997 125.4989988
  74.2010012  18.8324997 125.4809988  74.2080380  18.0746099 125.9078384
  59.8870012   2.0694997 137.8039988  59.5210012   1.3044997 138.2459988
  60.8000012   2.0984997 138.0899988  59.9602736   1.9685640 137.9032502
  61.8600012   1.4204997 139.3399988  62.7580012   1.1464997 139.1549988
  61.4730012   0.6774997 139.8039988  61.9306612   1.2825914 139.3773643
  60.4840012  18.2214997 122.0129988  60.2170012  18.5084997 122.8859988
  61.2560012  17.6754997 122.1649988  60.5517488  18.1870294 122.1531050
  70.2810012   0.7524997 139.5219988  70.3580012   0.3264997 140.3759988
  71.1750012   0.7664997 139.1789988  70.4123428   0.6960879 139.5925310
  73.4570012  16.8254997 138.2139988  72.6750012  16.6394997 137.6939988
  73.3850012  17.7544997 138.4319988  73.3402274  16.9256643 138.1723018
  87.8630012  10.7114997 128.2449988  87.9520012  11.6554997 128.1129988
  87.2250012  10.4364997 127.5869988  87.7889081  10.8034830 128.1379614
  86.7960012   9.9664997 131.6639988  86.7580012   9.3204997 132.3689988
  86.4740012   9.5004997 130.8929988  86.7472333   9.8149408 131.6562978
  79.1650012   9.5814997 133.2569988  79.2060012   8.9554997 133.9799988
  79.8680012  10.2054997 133.4389988  79.2656363   9.5801196 133.3806044
  90.5020012  12.9054997 129.9649988  90.0620012  12.1854997 130.4159988
  90.4890012  13.6264997 130.5949988  90.4400226  12.9043731 130.1118494
  80.0880012  14.0314997 131.7919988  79.7190012  13.2294997 131.4219988
  81.0290012  13.8624997 131.8379988  80.1647289  13.8990153 131.7476316
  76.6980012   7.6914997 127.1849988  76.2510012   8.5374997 127.1659988
  76.1370012   7.1114997 126.6689988  76.5609900   7.7289916 127.1126801
  77.4090012   9.8534997 129.3099988  77.6220012   9.0834997 129.8379988
  78.1470012   9.9424997 128.7069988  77.5379044   9.7601968 129.3007123
  87.6140012  18.0104997 130.1769988  88.2340012  17.3334997 129.9039988
  87.4060012  17.7924997 131.0859988  87.6706726  17.8884800 130.2624812
  85.1860012  12.3994997 132.0699988  85.4900012  11.7134997 131.4749988
  85.9070012  12.5174997 132.6879988  85.3250671  12.3216305 132.0721816
  93.8490012   4.0004997 132.9309988  93.8980012   4.6104997 133.6659988
  94.2740012   4.4614997 132.2079988  93.9131746   4.1463796 132.9339175
  88.3270012   6.7934997 132.3969988  88.4690012   5.8474997 132.4179988
  88.2200012   7.0004997 131.4689988  88.3319919   6.6918246 132.2743408
  81.4810012   4.8944997 129.6699988  81.5250012   5.7544997 129.2509988
  81.0240012   4.3424997 129.0359988  81.4252240   4.9374422 129.5269864
  89.2040012   5.0254997 128.0709988  89.8500012   4.6964997 128.6949988
  89.7140012   5.5434997 127.4479988  89.3614299   5.0504450 128.0722731
  78.1020012   7.2914997 130.4319988  78.7550012   6.7414997 130.8639988
  78.1260012   7.0174997 129.5149988  78.1946683   7.1791466 130.3672123
  83.2580012   8.8414997 129.6469988  83.8740012   8.3154997 130.1569988
  82.6720012   8.2014997 129.2439988  83.2630810   8.6829208 129.6623173
  94.2400012   5.4784997 135.1659988  93.5520012   6.1364997 135.0709988
  94.2560012   5.2814997 136.1029988  94.1479540   5.5419819 135.2795990
  80.2920012   3.8124997 133.7439988  80.0730012   4.3424997 132.9779988
  79.6240012   4.0394997 134.3909988  80.1717600   3.9156906 133.7266379
  87.6610012  13.3124997 127.2879988  87.3650012  12.9904997 126.4369988
  87.3360012  14.2124997 127.3289988  87.5766371  13.3900215 127.1771801
  82.8610012  11.4884997 134.0309988  82.1210012  12.0864997 134.1349988
  83.5750012  12.0424997 133.7159988  82.8562237  11.6452831 134.0026465
  90.9680012   4.3164997 130.0509988  90.7520012   3.5504997 130.5839988
  91.6230012   4.7884997 130.5639988  91.0270632   4.2755889 130.1932861
  79.8850012   5.7044997 131.6959988  80.4990012   6.3374997 132.0689988
  80.3970012   5.2324997 131.0399988  80.0381981   5.7272267 131.6582908
  81.2680012  13.4524997 134.8179988  81.2630012  14.3324997 134.4399988
  80.4150012  13.3694997 135.2429988  81.1519464  13.5616117 134.8237907
  77.3890012  13.1234997 125.5999988  77.1170012  13.3524997 124.7119988
  77.4350012  13.9614997 126.0609988  77.3579482  13.2681318 125.5406273
  91.0140012  14.7454997 132.3129988  90.0730012  14.8034997 132.4749988
  91.2910012  15.6514997 132.1759988  90.9224679  14.8759443 132.3166815
  91.3150012   3.0314997 133.7309988  90.5790012   3.6424997 133.6929988
  91.9980012   3.4464997 133.2039988  91.3066541   3.1711374 133.6545832
  84.3180012   1.1184997 131.1959988  84.2010012   0.1694997 131.1419988
  83.4630012   1.4504997 131.4699988  84.1864212   1.0335571 131.2256497
  89.2660012  16.5264997 128.9379988  89.6920012  15.8194997 128.4529988
  89.5830012  17.3274997 128.5219988  89.3671683  16.5381017 128.8153680
  90.4260012  14.4274997 127.4469988  90.1680012  13.7374997 126.8359988
  90.4970012  13.9844997 128.2929988  90.4002856  14.2732124 127.4776885
  92.1120012  12.9934997 135.9239988  92.2520012  12.4024997 135.1849988
  92.2790012  13.8664997 135.5679988  92.1537411  13.0305428 135.7746894
  86.5850012   9.9554997 125.6969988  85.8730012  10.4904997 125.3449988
  87.2760012  10.0114997 125.0369988  86.5810132  10.0362543 125.5596289
  86.6380012   8.4134997 122.7359988  87.3390012   8.4354997 123.3869988
  86.9410012   7.7854997 122.0789988  86.7748133   8.3317070 122.7363369
  93.9540012   9.3334997 133.9899988  93.3010012  10.0284997 134.0799988
  94.4190012   9.5434997 133.1809988  93.9275274   9.4570643 133.8928462
  89.9900012  10.1654997 126.6489988  89.2580012  10.3934997 127.2219988
  90.4380012   9.4514997 127.1029988  89.9502725  10.1002145 126.7888816
  89.8880012   8.3394997 135.7159988  89.9680012   9.1024997 136.2879988
  89.2860012   8.6184997 135.0259988  89.8175756   8.4817134 135.7010589
  81.6360012  10.7954997 128.5309988  81.3050012  10.4254997 127.7129988
  82.2240012  10.1254997 128.8779988  81.6701873  10.6541156 128.4658102
  83.0020012  14.2234997 131.2119988  82.9080012  13.6454997 130.4559988
  83.7320012  13.8524997 131.7089988  83.0877387  14.0941663 131.1755342
  82.0020012   9.5644997 132.1649988  82.5680012   9.6854997 131.4019988
  82.3210012  10.2014997 132.8029988  82.1225474   9.6672219 132.1469862
  88.3110012  15.0674997 132.8989988  88.0710012  15.7294997 133.5469988
  88.1130012  14.2334997 133.3239988  88.2513808  15.0453134 133.0451524
  82.8820012  13.9634997 136.8819988  82.5710012  14.7454997 137.3369988
  82.2320012  13.8104997 136.1959988  82.7515558  14.0499105 136.8515871
  88.8610012   9.3274997 124.3339988  89.4410012   9.4774997 125.0809988
  89.2750012   9.7984997 123.6099988  88.9962997   9.4116578 124.3384058
  79.8020012  10.1614997 136.1099988  79.8730012  10.8124997 136.8089988
  78.9120012  10.2644997 135.7749988  79.6913005  10.2645427 136.1603495
  86.5880012  16.0644997 127.7689988  87.0620012  16.3594997 128.5459988
  86.0250012  16.8024997 127.5359988  86.5768184  16.2047247 127.8439628
  81.1220012  16.0354997 137.6449988  81.1290012  15.8994997 136.6979988
  80.2060012  15.9174997 137.8969988  80.9991714  16.0009430 137.5494666
  92.5600012   1.0774997 124.1469988  91.6600012   1.2164997 124.4419988
  92.8120012   1.9084997 123.7449988  92.4708702   1.2089074 124.1330205
  80.6260012   9.8654997 126.1199988  80.3340012  10.6334997 125.6299988
  79.9520012   9.2054997 125.9579988  80.4948111   9.8815587 126.0308978
  93.7490012  15.4434997 122.5229988  93.8230012  16.3824997 122.6939988
  94.6550012  15.1384997 122.4669988  93.8815100  15.5306722 122.5388119
  76.7190012  12.2284997 134.9349988  76.2180012  12.2004997 134.1199988
  76.7240012  11.3224997 135.2449988  76.6510944  12.1022396 134.8653226
  76.4690012  15.0084997 131.8189988  77.4150012  14.8644997 131.7999988
  76.3570012  15.7924997 132.3559988  76.5832727  15.0948046 131.8890072
  94.6670012  15.6744997 137.5019988  94.6180012  14.7194997 137.4649988
  93.8400012  15.9424997 137.9029988  94.5484940  15.5798998 137.5511375
  85.6460012  15.2484997 136.3779988  85.7330012  16.0744997 136.8529988
  84.7820012  14.9184997 136.6269988  85.5411964  15.3169878 136.4766549
  86.0600012  19.0204997 126.1839988  85.9850012  18.8994997 125.2369988
  86.0930012  19.9704997 126.3019988  86.0542068  19.1322646 126.0704967
  79.7130012  17.8094997 127.9649988  79.8660012  17.4614997 128.8429988
  78.8630012  17.4534997 127.7099988  79.6189166  17.7136216 128.0508079
  89.1620012  18.1744997 123.1859988  89.5370012  17.4304997 122.7149988
  89.1660012  17.9044997 124.1049988  89.2139125  18.0360986 123.2456483
  88.8310012  18.1004997 125.9349988  87.8950012  18.2004997 126.1139988
  89.1110012  17.3914997 126.5139988  88.7409553  18.0183406 126.0377087
  91.8190012   7.1674997 137.9819988  91.4120012   7.6484997 137.2609988
  91.8600012   6.2624997 137.6739988  91.7688437   7.1109374 137.8416683
  78.9680012  13.5514997 135.9789988  79.1840012  13.1904997 136.8379988
  78.1130012  13.1774997 135.7689988  78.8819292  13.4514111 136.0683386
  81.5870012   2.0214997 131.9739988  80.7250012   1.9344997 131.5659988
  81.5640012   2.8774997 132.4019988  81.4660409   2.1252883 131.9760589
  86.2500012   1.7434997 135.3489988  86.6700012   1.3284997 136.1019988
  85.3170012   1.5654997 135.4659988  86.1813644   1.6625900 135.4679539
  89.5760012   5.4994997 136.2019988  89.0620012   5.3734997 136.9999988
  89.4210012   6.4114997 135.9579988  89.4846852   5.6056132 136.2782158
  90.3390012  10.3604997 121.9639988  90.3810012  10.1374997 121.0339988
  91.1880012  10.7594997 122.1529988  90.4595280  10.3839438 121.8623554
  85.9110012   4.2364997 122.6339988  85.6580012   4.2554997 123.5569988
  85.6550012   3.3644997 122.3319988  85.8417481   4.1212558 122.7196175
  81.6780012   6.9874997 133.0689988  81.0360012   6.9464997 133.7779988
  81.7150012   7.9134997 132.8309988  81.5950664   7.1071430 133.1339219
  81.6750012   7.2084997 127.9809988  80.7820012   6.8674997 127.9219988
  82.1250012   6.8314997 127.2249988  81.6138130   7.1109631 127.8707702
  87.2100012   7.6244997 126.7979988  86.8010012   8.4394997 126.5069988
  87.9310012   7.4844997 126.1839988  87.2514537   7.7172018 126.6751342
  86.3120012   7.7994997 138.2859988  85.7500012   7.0954997 138.6069988
  87.1390012   7.6794997 138.7539988  86.3467095   7.6867883 138.3932330
  88.2150012   7.0704997 129.6119988  88.0200012   7.6754997 128.8969988
  88.3960012   6.2364997 129.1779988  88.2127614   7.0406300 129.4554405
  79.4280012   7.3074997 134.9359988  79.3900012   7.7074997 135.8049988
  78.9370012   6.4904997 135.0269988  79.3564684   7.2518069 135.0671059
  82.7940012   4.6814997 121.7349988  82.3630012   4.2364997 122.4649988
  82.0760012   5.0534997 121.2229988  82.6379438   4.6708940 121.7656799
  76.0360012   4.4234997 128.7869988  76.6670012   4.3944997 129.5059988
  76.4850012   3.9984997 128.0559988  76.1830918   4.3620836 128.7866441
  77.3100012   5.1694997 124.2109988  77.7840012   5.7604997 123.6259988
  76.5930012   5.7004997 124.5579988  77.2779341   5.3220867 124.1778836
  87.4790012   8.7084997 134.2829988  87.8020012   8.0774997 133.6399988
  87.0390012   8.1734997 134.9439988  87.4637484   8.5498387 134.2843198
  84.2560012   4.6354997 129.0669988  83.3450012   4.6924997 129.3559988
  84.7620012   4.5754997 129.8779988  84.1996899   4.6351941 129.2161184
  79.0850012   6.2644997 127.8939988  78.1950012   6.3644997 127.5539988
  79.3810012   5.4224997 127.5479988  79.0032823   6.1643545 127.8007213
  82.7380012   6.2644997 125.5509988  83.6690012   6.3934997 125.7289988
  82.5230012   6.9344997 124.9009988  82.8364247   6.3726565 125.4875747
  88.6610012   3.8704997 132.3319988  87.9850012   4.0014997 132.9959988
  88.1760012   3.7154997 131.5209988  88.5027146   3.8675157 132.3134469
  81.4120012   7.4594997 123.1169988  80.8690012   7.0794997 122.4259988
  82.2450012   7.6534997 122.6889988  81.4503631   7.4337125 122.9644501
  91.9490012  19.5424997 138.6079988  92.1490012  19.9664997 137.7739988
  92.6040012  19.8854997 139.2149988  92.0650072  19.6469857 138.5758592
  79.5470012  12.0164997 138.2159988  80.2790012  12.2704997 138.7779988
  78.7670012  12.2204997 138.7319988  79.5417073  12.0788160 138.3626151
  85.5760012   7.4234997 130.9539988  86.1410012   6.8764997 130.4069988
  85.4290012   6.9014997 131.7429988  85.6333380   7.2782259 130.9858695
  80.5780012   3.5594997 127.3729988  80.2610012   2.6574997 127.3369988
  81.3600012   3.5614997 126.8199988  80.6402408   3.4362474 127.2933569
  84.2030012   5.8114997 133.3679988  83.3670012   6.2654997 133.4789988
  84.7270012   6.0874997 134.1199988  84.1595416   5.9108660 133.4848119
  84.7470012  12.0244997 125.0529988  84.0020012  11.5174997 124.7309988
  84.6130012  12.0734997 125.9999988  84.6268776  11.9616940 125.1368647
  91.8970012  11.1574997 133.8399988  92.5390012  11.6144997 133.2959988
  91.0670012  11.2704997 133.3769988  91.8725963  11.2352704 133.7030177
  88.6450012   4.8384997 123.2519988  87.7060012   4.9504997 123.1009988
  88.9420012   5.6954997 123.5589988  88.5567583   4.9695981 123.2728337
  86.2660012  12.2084997 136.2899988  85.9210012  11.8274997 137.0969988
  86.0660012  13.1424997 136.3609988  86.1917527  12.2825135 136.4100689
  89.3630012   6.7054997 124.9129988  90.2550012   6.5684997 125.2319988
  89.4200012   7.4964997 124.3759988  89.4926504   6.7936052 124.8840818
  79.8720012  11.3194997 130.8229988  80.6170012  11.3174997 130.2219988
  79.9500012  10.4964997 131.3039988  79.9844995  11.2078887 130.8058282
  86.8730012  13.4834997 124.0789988  86.5770012  14.3094997 124.4599988
  86.1700012  12.8634997 124.2749988  86.7374914  13.5128199 124.1576443
  76.8800012   9.7804997 136.1379988  77.1030012   9.3624997 136.9699988
  76.2780012   9.1674997 135.7149988  76.8291759   9.6404668 136.1947022
  83.8960012   9.2974997 138.3509988  83.6000012   9.1314997 137.4559988
  84.8280012   9.0774997 138.3399988  83.9814166   9.2450640 138.2270536
  88.5170012  14.6704997 136.2409988  87.6160012  14.8534997 135.9729988
  88.5510012  14.9294997 137.1609988  88.3983139  14.7305849 136.3288099
  94.2480012   6.9154997 124.6079988  93.6940012   6.5194997 123.9359988
  94.3480012   7.8254997 124.3299988  94.1857059   6.9843586 124.4784401
  94.2110012  12.7154997 137.4449988  93.3600012  12.9534997 137.0779988
  94.8020012  12.6984997 136.6919988  94.1742487  12.7458258 137.2928893
  92.5430012  15.7014997 125.0729988  92.1700012  14.8754997 125.3819988
  92.8210012  15.5184997 124.1749988  92.5295222  15.5637430 124.9939473
  89.7040012  10.5094997 132.0939988  88.7750012  10.2774997 132.0669988
  90.1550012   9.7324997 131.7639988  89.6379216  10.3727238 132.0456917
  82.2470012  14.8374997 128.2269988  82.7740012  15.6104997 128.0269988
  81.3670012  15.0624997 127.9249988  82.2002031  14.9737545 128.1587912
  78.0020012   9.6994997 122.8139988  78.6180012  10.3264997 123.1939988
  77.1400012  10.0154997 123.0859988  77.9697698   9.8279430 122.9027183
  83.6740012  12.5004997 127.8029988  83.4330012  13.4254997 127.8449988
  82.9330012  12.0414997 128.1999988  83.5409225  12.5650933 127.8623742
  84.1890012  16.6494997 134.1189988  84.5510012  17.5044997 133.8849988
  84.7200012  16.3574997 134.8589988  84.3104473  16.7271060 134.1870855
  82.3570012  17.5224997 127.3489988  81.4070012  17.6274997 127.3999988
  82.7090012  18.3424997 127.6929988  82.2744195  17.6478800 127.4025502
  87.7330012  12.7484997 133.8189988  87.3070012  12.5214997 134.6459988
  88.3130012  12.0104997 133.6369988  87.7531868  12.6175299 133.9075830
  89.9360012  13.6774997 122.8929988  90.2890012  13.2974997 123.6969988
  88.9870012  13.5844997 122.9799988  89.8560918  13.6128956 123.0148532
  90.3910012  17.3004997 136.2889988  89.7900012  16.7454997 135.7929988
  90.6730012  17.9674997 135.6619988  90.3468804  17.3146625 136.1364849
  94.4390012  18.1574997 123.0939988  95.1830012  18.7434997 122.9539988
  93.7450012  18.7254997 123.4269988  94.4469899  18.3145798 123.1198778
  78.5140012   4.5334997 135.6959988  77.6210012   4.8724997 135.6279988
  78.4150012   3.6784997 136.1139988  78.3784164   4.4642588 135.7432235
  90.8020012  12.3504997 125.1199988  90.5240012  11.6224997 125.6759988
  91.7290012  12.4694997 125.3249988  90.8893124  12.2668802 125.2238845
  78.1650012  16.3384997 134.1309988  78.3820012  15.4064997 134.0999988
  78.4110012  16.6124997 135.0139988  78.2279549  16.2480636 134.2461763
  84.0270012  14.7894997 121.3399988  84.2660012  14.0414997 120.7929988
  83.7580012  14.4014997 122.1729988  84.0233675  14.6346638 121.3776865
  82.9640012  14.3594997 123.7959988  83.1100012  13.8394997 124.5859988
  82.9610012  15.2664997 124.1029988  82.9835792  14.4108842 123.9456117
  79.4170012  11.6124997 124.3069988  78.7310012  11.9644997 124.8739988
  79.9390012  12.3754997 124.0599988  79.3936852  11.7638578 124.3512118
  87.2480012   4.2744997 134.5859988  87.9470012   4.3484997 135.2359988
  86.8670012   3.4104997 134.7399988  87.2921767   4.1677624 134.6958322
  88.0330012   3.9264997 125.6829988  88.2530012   4.3984997 124.8799988
  88.5910012   4.3214997 126.3529988  88.1384968   4.0444285 125.6637331
  85.7010012  16.0574997 124.5459988  84.8850012  16.5544997 124.5979988
  86.2310012  16.5324997 123.9059988  85.6609161  16.1897722 124.4665956
  85.2330012   5.6544997 126.5179988  86.0450012   6.1594997 126.5639988
  84.9880012   5.5094997 127.4319988  85.3110520   5.7040375 126.6478517
  85.7680012   6.6404997 135.7019988  85.8870012   7.2144997 136.4599988
  86.4240012   5.9524997 135.8169988  85.8729025   6.6259858 135.8211321
  86.1160012   2.7354997 127.4559988  85.7700012   3.3534997 128.0999988
  86.7750012   3.2364997 126.9739988  86.1576968   2.8876278 127.4789383
  83.0400012  17.1014997 124.5269988  83.2000012  17.9004997 124.0269988
  82.8420012  17.4074997 125.4119988  83.0351637  17.2524020 124.5781144
  81.7740012   3.7984997 124.1429988  81.6910012   4.6874997 124.4899988
  82.6640012   3.5334997 124.3749988  81.8829469   3.8841430 124.2217626
  91.9730012   4.5474997 136.5369988  91.0560012   4.8104997 136.4499988
  92.3080012   4.5444997 135.6409988  91.8928613   4.5830761 136.4038837
  90.5750012   8.2984997 130.6329988  89.7770012   7.8834997 130.3049988
  91.0200012   7.6074997 131.1239988  90.5259885   8.1483543 130.6544889
  80.0330012  14.2264997 123.2039988  80.6250012  14.9254997 123.4799988
  80.4920012  13.7934997 122.4839988  80.1761142  14.2637049 123.1444830
  78.3490012   6.8904997 122.3199988  78.3040012   7.8294997 122.4979988
  77.4610012   6.6544997 122.0499988  78.2228574   6.9871892 122.3078912
  91.6610012  17.5544997 132.2559988  91.5060012  18.2324997 131.5979988
  92.5940012  17.6264997 132.4589988  91.7658657  17.6569546 132.1934360
  79.1570012   1.6724997 130.9929988  78.9280012   1.7314997 130.0649988
  78.7140012   0.8804997 131.2989988  79.0658530   1.5735753 130.9074786
  78.0870012  15.6124997 127.1529988  77.2550012  16.0854997 127.1799988
  78.6330012  16.1224997 126.5549988  78.0470352  15.7461332 127.0758463
  77.3750012  18.2254997 138.4829988  77.9160012  18.0084997 139.2429988
  76.8940012  17.4194997 138.2929988  77.3839951  18.0869270 138.5612576
  81.9730012  17.1444997 140.1029988  82.7400012  16.6854997 140.4439988
  81.9510012  16.9184997 139.1739988  82.0751275  17.0510186 140.0240101
  86.0650012  16.6524997 121.4789988  85.4210012  16.0214997 121.7999988
  86.8270012  16.1214997 121.2469988  86.0798077  16.4942920 121.4916011
  88.5500012  15.5244997 138.8329988  88.1990012  14.6684997 139.0759988
  89.2760012  15.6674997 139.4399988  88.6000769  15.4265636 138.9483619
  90.6690012  16.4694997 121.7119988  90.9520012  15.6754997 122.1649988
  91.4090012  16.7024997 121.1519988  90.8078006  16.3923376 121.6982715
  77.2820012  12.0354997 139.4369988  77.4260012  11.1334997 139.1509988
  76.5100012  12.3214997 138.9499988  77.1972753  11.9506816 139.3319505
  81.6240012  12.3794997 121.5699988  81.6880012  11.5854997 122.1009988
  82.2770012  12.2604997 120.8799988  81.7210241  12.2547148 121.5494317
  83.9380012  12.0054997 138.8699988  83.6090012  12.2764997 138.0129988
  84.0900012  11.0644997 138.7829988  83.9134809  11.9153862 138.7408244
  86.9760012  13.4264997 121.3059988  86.7070012  13.6064997 122.2069988
  86.7700012  12.5004997 121.1739988  86.9113427  13.3260261 121.4115073
  89.6720012  11.9214997 136.2529988  90.4180012  12.5094997 136.1339988
  88.9150012  12.5034997 136.3169988  89.6717820  12.0807143 136.2453590
  78.1150012   9.2354997 138.8569988  78.5230012   8.3784997 138.7359988
  77.8550012   9.2504997 139.7779988  78.1357568   9.1200807 138.9649588
  82.7730012  10.3514997 123.8759988  82.3130012   9.8674997 124.5619988
  83.0280012   9.6834997 123.2399988  82.7444902  10.1948731 123.8839334
  82.0620012   8.2444997 136.2319988  81.4440012   8.9194997 136.5119988
  82.4060012   8.5654997 135.3979988  82.0239132   8.3802411 136.1576262
  83.8440012   8.5944997 122.1379988  83.6640012   8.4404997 121.2109988
  84.7940012   8.7024997 122.1829988  83.9477776   8.5880175 122.0171843
  87.0820012  10.7164997 139.5089988  88.0350012  10.7994997 139.4819988
  86.9210012  10.0044997 140.1289988  87.1906426  10.6316746 139.5890579
  93.2340012  10.9494997 121.5839988  92.9600012  10.5244997 120.7709988
  93.2730012  11.8804997 121.3669988  93.2017699  11.0172484 121.4433610
  82.4010012   5.5994997 137.3139988  82.5510012   4.8704997 136.7119988
  82.4040012   6.3764997 136.7549988  82.4219302   5.6047851 137.1560692
  82.8140012   3.9694997 134.8069988  83.3500012   4.4204997 134.1549988
  81.9620012   3.8614997 134.3839988  82.7722178   4.0166390 134.6605756
  84.3960012   9.4084997 135.0459988  85.1460012   9.2524997 134.4729988
  84.0570012  10.2604997 134.7709988  84.4528921   9.5022968 134.9303561
  88.8110012   7.2234997 140.0749988  89.0040012   6.2924997 139.9629988
  89.6690012   7.6484997 140.0639988  88.9532934   7.1536531 140.0582031
  90.1280012  10.0124997 138.1519988  89.8470012  10.7214997 137.5739988
  91.0710012   9.9394997 138.0009988  90.2169291  10.0996711 138.0524967
  80.8800012   6.7974997 139.2259988  80.1130012   6.2654997 139.0149988
  81.5590012   6.4874997 138.6259988  80.8667877   6.6828300 139.1160716
  83.6200012   1.4254997 135.2379988  83.5210012   2.3724997 135.1329988
  82.8770012   1.0534997 134.7619988  83.5061184   1.5045863 135.1593621
  84.8840012   5.7474997 138.8019988  84.6480012   5.5274997 139.7029988
  84.1000012   5.5404997 138.2919988  84.7458504   5.6894586 138.8563431
  87.5990012   4.8744997 137.8769988  86.6520012   4.9064997 138.0099988
  87.9120012   4.2494997 138.5309988  87.5116707   4.7943998 137.9836060
  89.2330012   3.5084997 139.8829988  89.1370012   2.5564997 139.8769988
  88.9120012   3.7774997 140.7429988  89.1764070   3.4144035 139.9985441
  79.0600012   4.7184997 138.9299988  79.2720012   4.0114997 138.3199988
  78.9490012   4.2804997 139.7739988  79.0739721   4.5627084 138.9606843
  83.8410012   0.7194997 137.9089988  84.5530012   0.0794997 137.8949988
  83.7400012   0.9864997 136.9959988  83.9248066   0.6680079 137.7835677
  84.1950012   2.4024997 139.9629988  84.0630012   1.9264997 139.1429988
  83.5960012   3.1464997 139.9079988  84.0959071   2.4379618 139.8432886
  83.7410012  19.2854997 123.1389988  84.6740012  19.4434997 123.2829988
  83.4770012  19.9604997 122.5149988  83.8329888  19.3984510 123.0742842
  77.3100012  13.9214997 122.6219988  78.2240012  14.0004997 122.8959988
  77.3170012  13.2344997 121.9559988  77.4361131  13.8393961 122.5694393
  75.9590012  19.3144997 127.6999988  75.3120012  18.8524997 127.1669988
  76.3130012  18.6424997 128.2819988  75.9183849  19.1604723 127.7057959
  76.8290012  17.3954997 129.5039988  76.4940012  16.5154997 129.6759988
  77.0510012  17.7404997 130.3689988  76.8131783  17.3217500 129.6444208
  94.3770012  18.2044997 132.4849988  94.3560012  18.3894997 133.4239988
  95.0680012  18.7734997 132.1439988  94.4674618  18.3066606 132.5673864
  93.9410012  17.7724997 135.4069988  93.4530012  17.0364997 135.0349988
  94.4900012  17.3784997 136.0849988  93.9484820  17.6185889 135.4477813
  92.3910012  13.5614997 140.0449988  91.5250012  13.4564997 140.4389988
  92.7680012  14.3204997 140.4909988  92.3233308  13.6496900 140.1592393
  93.6920012  11.8184997 125.5589988  94.5420012  12.2394997 125.6859988
  93.6980012  11.0784997 126.1659988  93.8091372  11.7760803 125.6584344
  94.0870012   9.8714997 127.3819988  93.3600012   9.3924997 127.7799988
  94.6680012  10.0774997 128.1149988  94.0660473   9.8338103 127.5354528
  93.8460012  12.6564997 132.3299988  94.6790012  12.2784997 132.0499988
  93.9580012  13.5994997 132.2109988  93.9752647  12.7322218 132.2755487
  92.3320012  15.5344997 134.6369988  91.6850012  15.8594997 135.2629988
  91.8150012  15.0944997 133.9629988  92.1734029  15.5195004 134.6315827
  94.3550012   9.7724997 123.7739988  93.8330012  10.1294997 123.0549988
  94.3220012  10.4474997 124.4519988  94.2791634   9.9125413 123.7673145
  92.7040012   7.0124997 122.3239988  92.8000012   7.6794997 121.6439988
  92.5640012   6.1964997 121.8429988  92.6982272   6.9935655 122.1658347
  91.8730012   8.3924997 127.9449988  91.7230012   7.4474997 127.9249988
  91.5200012   8.6734997 128.7889988  91.8047448   8.3011481 128.0563705
  76.9090012  10.4704997 131.9559988  77.0930012  10.3884997 131.0199988
  77.7580012  10.3464997 132.3789988  77.0490151  10.4425073 131.8851451
  92.7300012  10.3624997 137.5839988  93.3130012   9.6284997 137.7759988
  93.2940012  11.1344997 137.6309988  92.8859769  10.3664227 137.6166159
  94.2260012   8.2654997 138.2689988  93.3630012   7.8864997 138.1029988
  94.8310012   7.5264997 138.1939988  94.1896119   8.1138268 138.2361528
  91.9510012   4.4204997 121.4419988  92.5620012   4.0494997 122.0789988
  91.1150012   3.9994997 121.6379988  91.9215032   4.3127554 121.5557035
  91.5840012   5.9754997 126.4079988  91.8640012   5.0684997 126.5319988
  92.3430012   6.4094997 126.0189988  91.7249277   5.9100942 126.3723682
  92.1960012   6.5564997 131.8439988  93.1290012   6.7684997 131.8089988
  91.9610012   6.6584997 132.7659988  92.2919244   6.5993100 131.9638892
  92.2250012   7.2934997 134.6199988  91.3820012   7.5614997 134.9859988
  92.6670012   8.1154997 134.4089988  92.1694158   7.4413291 134.6415491
  76.5060012   5.7414997 138.0969988  77.4260012   5.6194997 138.3329988
  76.0570012   4.9914997 138.4859988  76.5711580   5.6233727 138.1819006
  94.5080012   1.2734997 139.9729988  94.8580012   0.6194997 139.3679988
  94.6550012   2.1104997 139.5329988  94.5757887   1.2971548 139.8306858
  92.1970012   3.2384997 126.4559988  92.3800012   2.7894997 127.2819988
  91.5980012   2.6534997 125.9929988  92.1410202   3.0979975 126.5063275
  77.7270012   4.0534997 130.9879988  78.1730012   3.2614997 131.2899988
  78.1940012   4.7694997 131.4179988  77.8510831   4.0420685 131.0874006
  76.0310012   7.0524997 132.0569988  76.5230012   6.8314997 131.2659988
  76.3940012   7.8934997 132.3379988  76.1473126   7.1358357 131.9867531
  94.0280012   3.3824997 138.3219988  93.1100012   3.6534997 138.2869988
  94.1510012   2.8474997 137.5379988  93.9189729   3.3472508 138.2111923
  94.0640012   3.3054997 122.9839988  94.4760012   2.5844997 122.5089988
  94.7460012   3.9754997 123.0429988  94.2125885   3.2972368 122.9268915
  76.3450012   3.3104997 126.1109988  75.4200012   3.5194997 125.9819988
  76.7990012   3.7944997 125.4209988  76.2797292   3.4045343 126.0000720
  91.1160012  18.2944997 128.0569988  91.7680012  17.9474997 127.4489988
  91.6260012  18.7834997 128.7029988  91.2742637  18.3130597 128.0610236
  76.3090012   2.0484997 134.4549988  75.6440012   1.8024997 135.0989988
  75.8660012   2.6704997 133.8779988  76.1581318   2.0989410 134.4650898
  78.5010012  15.2234997 138.5999988  77.6800012  15.3984997 138.1389988
  78.2480012  15.1504997 139.5199988  78.3545585  15.2375544 138.6613561
  81.4550012  16.1984997 134.8579988  81.0300012  17.0074997 134.5759988
  82.3590012  16.2834997 134.5559988  81.5189975  16.3209300 134.7784816
  85.7660012  17.5974997 137.8179988  85.9510012  17.2634997 138.6959988
  86.6120012  17.9064997 137.4959988  85.9057539  17.5936047 137.8945605
  88.1110012  18.8834997 137.0619988  88.7880012  18.2504997 136.8219988
  88.4330012  19.2844997 137.8689988  88.2471637  18.8511154 137.1382793
  93.0280012   1.4724997 136.1409988  92.2160012   1.7974997 135.7539988
  93.2610012   0.7124997 135.6079988  92.9482203   1.4142758 136.0158880
  78.8570012  19.4544997 134.9059988  78.1360012  19.8944997 134.4549988
  78.4910012  19.2034997 135.7539988  78.7089651  19.4807242 134.9589640
  81.3240012  19.0544997 133.9359988  80.4590012  19.1264997 134.3399988
  81.2690012  19.6014997 133.1519988  81.1982085  19.1382685 133.8853362
  86.0340012  18.9424997 133.1109988  85.5780012  19.4714997 132.4569988
  86.1970012  19.5454997 133.8359988  85.9936068  19.0964607 133.1194838
  88.3620012  17.8204997 134.0559988  87.4570012  17.9854997 133.7899988
  88.7910012  18.6734997 133.9909988  88.2961324  17.9584339 134.0107976
  90.9660012  19.3904997 134.3509988  90.7840012  20.3064997 134.1409988
  91.1430012  18.9804997 133.5049988  90.9650210  19.4604822 134.2077885
  78.2710012  18.0774997 131.8159988  78.2530012  17.6524997 132.6729988
  79.0760012  17.7594997 131.4069988  78.3773529  17.9763013 131.8780946
  80.4130012  16.7874997 130.4709988  80.1940012  15.8714997 130.6409988
  81.2370012  16.9274997 130.9369988  80.4944420  16.6810520 130.5572774
  82.9500012  17.2574997 131.3199988  83.1630012  16.3694997 131.0329988
  83.0140012  17.2234997 132.2739988  82.9878232  17.1313102 131.4097397
  86.4580012   2.9214997 130.4639988  85.7840012   2.2924997 130.7199988
  87.0220012   2.4374997 129.8609988  86.4419230   2.7698744 130.4175340
  91.6010012   1.0294997 130.5769988  92.2050012   1.5764997 130.0749988
  90.7310012   1.3484997 130.3359988  91.5661208   1.1475137 130.4756886
  93.3280012   2.1674997 128.9099988  93.9400012   1.6534997 128.3829988
  93.7100012   3.0454997 128.9329988  93.4633371   2.2157866 128.8410041
  78.7850012   1.5554997 128.2859988  78.0080012   1.3214997 127.7789988
  79.3150012   0.7584997 128.2949988  78.7502330   1.4156988 128.2177742
  77.6210012   1.3534997 124.0899988  78.0600012   1.9644997 123.4979988
  76.9880012   1.8914997 124.5639988  77.5954514   1.5099257 124.0730930
  83.3640012   1.4824997 128.0999988  84.2390012   1.8704997 128.0699988
  83.2280012   1.2674997 129.0219988  83.4653695   1.5065184 128.2206440
  88.9210012   1.5124997 129.7489988  88.9970012   1.6074997 128.7989988
  88.6460012   0.6044997 129.8779988  88.8942321   1.4027867 129.6365079
  90.2740012   1.5384997 125.4409988  89.5720012   2.1534997 125.2309988
  89.8300012   0.7004997 125.5719988  90.1176450   1.5095639 125.4299000
  77.5220012  17.3014997 124.9869988  76.8370012  17.2634997 124.3199988
  77.5260012  18.2144997 125.2759988  77.4286998  17.4196733 124.9346771
  79.4820012   3.2694997 122.5319988  79.9740012   2.6394997 122.0049988
  80.1060012   3.5654997 123.1949988  79.6335688   3.2233804 122.5495482
  84.5080012   3.5624997 124.9889988  84.6860012   2.9164997 125.6719988
  84.4550012   4.3964997 125.4559988  84.5251999   3.5868009 125.1455917
  86.3870012  18.5114997 123.3849988  87.2530012  18.8774997 123.2069988
  86.1400012  18.0714997 122.5709988  86.4722392  18.5021756 123.2506289
  93.0960012  18.0744997 126.0639988  92.9010012  17.3264997 125.4989988
  93.0570012  18.8324997 125.4809988  93.0640380  18.0746099 125.9078384
  78.7430012   2.0694997 137.8039988  78.3770012   1.3044997 138.2459988
  79.6560012   2.0984997 138.0899988  78.8162736   1.9685640 137.9032502
  80.7160012   1.4204997 139.3399988  81.6140012   1.1464997 139.1549988
  80.3290012   0.6774997 139.8039988  80.7866612   1.2825914 139.3773643
  79.3400012  18.2214997 122.0129988  79.0730012  18.5084997 122.8859988
  80.1120012  17.6754997 122.1649988  79.4077488  18.1870294 122.1531050
  89.1370012   0.7524997 139.5219988  89.2140012   0.3264997 140.3759988
  90.0310012   0.7664997 139.1789988  89.2683428   0.6960879 139.5925310
  92.3130012  16.8254997 138.2139988  91.5310012  16.6394997 137.6939988
  92.2410012  17.7544997 138.4319988  92.1962274  16.9256643 138.1723018
 106.7190012  10.7114997 128.2449988 106.8080012  11.6554997 128.1129988
 106.0810012  10.4364997 127.5869988 106.6449081  10.8034830 128.1379614
 105.6520012   9.9664997 131.6639988 105.6140012   9.3204997 132.3689988
 105.3300012   9.5004997 130.8929988 105.6032333   9.8149408 131.6562978
  98.0210012   9.5814997 133.2569988  98.0620012   8.9554997 133.9799988
  98.7240012  10.2054997 133.4389988  98.1216363   9.5801196 133.3806044
 109.3580012  12.9054997 129.9649988 108.9180012  12.1854997 130.4159988
 109.3450012  13.6264997 130.5949988 109.2960226  12.9043731 130.1118494
  98.9440012  14.0314997 131.7919988  98.5750012  13.2294997 131.4219988
  99.8850012  13.8624997 131.8379988  99.0207289  13.8990153 131.7476316
  95.5540012   7.6914997 127.1849988  95.1070012   8.5374997 127.1659988
  94.9930012   7.1114997 126.6689988  95.4169900   7.7289916 127.1126801
  96.2650012   9.8534997 129.3099988  96.4780012   9.0834997 129.8379988
  97.0030012   9.9424997 128.7069988  96.3939044   9.7601968 129.3007123
 106.4700012  18.0104997 130.1769988 107.0900012  17.3334997 129.9039988
 106.2620012  17.7924997 131.0859988 106.5266726  17.8884800 130.2624812
 104.0420012  12.3994997 132.0699988 104.3460012  11.7134997 131.4749988
 104.7630012  12.5174997 132.6879988 104.1810671  12.3216305 132.0721816
 112.7050012   4.0004997 132.9309988 112.7540012   4.6104997 133.6659988
 113.1300012   4.4614997 132.2079988 112.7691746   4.1463796 132.9339175
 107.1830012   6.7934997 132.3969988 107.3250012   5.8474997 132.4179988
 107.0760012   7.0004997 131.4689988 107.1879919   6.6918246 132.2743408
 100.3370012   4.8944997 129.6699988 100.3810012   5.7544997 129.2509988
  99.8800012   4.3424997 129.0359988 100.2812240   4.9374422 129.5269864
 108.0600012   5.0254997 128.0709988 108.7060012   4.6964997 128.6949988
 108.5700012   5.5434997 127.4479988 108.2174299   5.0504450 128.0722731
  96.9580012   7.2914997 130.4319988  97.6110012   6.7414997 130.8639988
  96.9820012   7.0174997 129.5149988  97.0506683   7.1791466 130.3672123
 102.1140012   8.8414997 129.6469988 102.7300012   8.3154997 130.1569988
 101.5280012   8.2014997 129.2439988 102.1190810   8.6829208 129.6623173
 113.0960012   5.4784997 135.1659988 112.4080012   6.1364997 135.0709988
 113.1120012   5.2814997 136.1029988 113.0039540   5.5419819 135.2795990
  99.1480012   3.8124997 133.7439988  98.9290012   4.3424997 132.9779988
  98.4800012   4.0394997 134.3909988  99.0277600   3.9156906 133.7266379
 106.5170012  13.3124997 127.2879988 106.2210012  12.9904997 126.4369988
 106.1920012  14.2124997 127.3289988 106.4326371  13.3900215 127.1771801
 101.7170012  11.4884997 134.0309988 100.9770012  12.0864997 134.1349988
 102.4310012  12.0424997 133.7159988 101.7122237  11.6452831 134.0026465
 109.8240012   4.3164997 130.0509988 109.6080012   3.5504997 130.5839988
 110.4790012   4.7884997 130.5639988 109.8830632   4.2755889 130.1932861
  98.7410012   5.7044997 131.6959988  99.3550012   6.3374997 132.0689988
  99.2530012   5.2324997 131.0399988  98.8941981   5.7272267 131.6582908
 100.1240012  13.4524997 134.8179988 100.1190012  14.3324997 134.4399988
  99.2710012  13.3694997 135.2429988 100.0079464  13.5616117 134.8237907
  96.2450012  13.1234997 125.5999988  95.9730012  13.3524997 124.7119988
  96.2910012  13.9614997 126.0609988  96.2139482  13.2681318 125.5406273
 109.8700012  14.7454997 132.3129988 108.9290012  14.8034997 132.4749988
 110.1470012  15.6514997 132.1759988 109.7784679  14.8759443 132.3166815
 110.1710012   3.0314997 133.7309988 109.4350012   3.6424997 133.6929988
 110.8540012   3.4464997 133.2039988 110.1626541   3.1711374 133.6545832
 103.1740012   1.1184997 131.1959988 103.0570012   0.1694997 131.1419988
 102.3190012   1.4504997 131.4699988 103.0424212   1.0335571 131.2256497
 108.1220012  16.5264997 128.9379988 108.5480012  15.8194997 128.4529988
 108.4390012  17.3274997 128.5219988 108.2231683  16.5381017 128.8153680
 109.2820012  14.4274997 127.4469988 109.0240012  13.7374997 126.8359988
 109.3530012  13.9844997 128.2929988 109.2562856  14.2732124 127.4776885
 110.9680012  12.9934997 135.9239988 111.1080012  12.4024997 135.1849988
 111.1350012  13.8664997 135.5679988 111.0097411  13.0305428 135.7746894
 105.4410012   9.9554997 125.6969988 104.7290012  10.4904997 125.3449988
 106.1320012  10.0114997 125.0369988 105.4370132  10.0362543 125.5596289
 105.4940012   8.4134997 122.7359988 106.1950012   8.4354997 123.3869988
 105.7970012   7.7854997 122.0789988 105.6308133   8.3317070 122.7363369
 112.8100012   9.3334997 133.9899988 112.1570012  10.0284997 134.0799988
 113.2750012   9.5434997 133.1809988 112.7835274   9.4570643 133.8928462
 108.8460012  10.1654997 126.6489988 108.1140012  10.3934997 127.2219988
 109.2940012   9.4514997 127.1029988 108.8062725  10.1002145 126.7888816
 108.7440012   8.3394997 135.7159988 108.8240012   9.1024997 136.2879988
 108.1420012   8.6184997 135.0259988 108.6735756   8.4817134 135.7010589
 100.4920012  10.7954997 128.5309988 100.1610012  10.4254997 127.7129988
 101.0800012  10.1254997 128.8779988 100.5261873  10.6541156 128.4658102
 101.8580012  14.2234997 131.2119988 101.7640012  13.6454997 130.4559988
 102.5880012  13.8524997 131.7089988 101.9437387  14.0941663 131.1755342
 100.8580012   9.5644997 132.1649988 101.4240012   9.6854997 131.4019988
 101.1770012  10.2014997 132.8029988 100.9785474   9.6672219 132.1469862
 107.1670012  15.0674997 132.8989988 106.9270012  15.7294997 133.5469988
 106.9690012  14.2334997 133.3239988 107.1073808  15.0453134 133.0451524
 101.7380012  13.9634997 136.8819988 101.4270012  14.7454997 137.3369988
 101.0880012  13.8104997 136.1959988 101.6075558  14.0499105 136.8515871
 107.7170012   9.3274997 124.3339988 108.2970012   9.4774997 125.0809988
 108.1310012   9.7984997 123.6099988 107.8522997   9.4116578 124.3384058
  98.6580012  10.1614997 136.1099988  98.7290012  10.8124997 136.8089988
  97.7680012  10.2644997 135.7749988  98.5473005  10.2645427 136.1603495
 105.4440012  16.0644997 127.7689988 105.9180012  16.3594997 128.5459988
 104.8810012  16.8024997 127.5359988 105.4328184  16.2047247 127.8439628
  99.9780012  16.0354997 137.6449988  99.9850012  15.8994997 136.6979988
  99.0620012  15.9174997 137.8969988  99.8551714  16.0009430 137.5494666
 111.4160012   1.0774997 124.1469988 110.5160012   1.2164997 124.4419988
 111.6680012   1.9084997 123.7449988 111.3268702   1.2089074 124.1330205
  99.4820012   9.8654997 126.1199988  99.1900012  10.6334997 125.6299988
  98.8080012   9.2054997 125.9579988  99.3508111   9.8815587 126.0308978
 112.6050012  15.4434997 122.5229988 112.6790012  16.3824997 122.6939988
 113.5110012  15.1384997 122.4669988 112.7375100  15.5306722 122.5388119
  95.5750012  12.2284997 134.9349988  95.0740012  12.2004997 134.1199988
  95.5800012  11.3224997 135.2449988  95.5070944  12.1022396 134.8653226
  95.3250012  15.0084997 131.8189988  96.2710012  14.8644997 131.7999988
  95.2130012  15.7924997 132.3559988  95.4392727  15.0948046 131.8890072
 113.5230012  15.6744997 137.5019988 113.4740012  14.7194997 137.4649988
 112.6960012  15.9424997 137.9029988 113.4044940  15.5798998 137.5511375
 104.5020012  15.2484997 136.3779988 104.5890012  16.0744997 136.8529988
 103.6380012  14.9184997 136.6269988 104.3971964  15.3169878 136.4766549
 104.9160012  19.0204997 126.1839988 104.8410012  18.8994997 125.2369988
 104.9490012  19.9704997 126.3019988 104.9102068  19.1322646 126.0704967
  98.5690012  17.8094997 127.9649988  98.7220012  17.4614997 128.8429988
  97.7190012  17.4534997 127.7099988  98.4749166  17.7136217 128.0508079
 108.0180012  18.1744997 123.1859988 108.3930012  17.4304997 122.7149988
 108.0220012  17.9044997 124.1049988 108.0699125  18.0360986 123.2456483
 107.6870012  18.1004997 125.9349988 106.7510012  18.2004997 126.1139988
 107.9670012  17.3914997 126.5139988 107.5969553  18.0183406 126.0377087
 110.6750012   7.1674997 137.9819988 110.2680012   7.6484997 137.2609988
 110.7160012   6.2624997 137.6739988 110.6248437   7.1109374 137.8416683
  97.8240012  13.5514997 135.9789988  98.0400012  13.1904997 136.8379988
  96.9690012  13.1774997 135.7689988  97.7379292  13.4514111 136.0683386
 100.4430012   2.0214997 131.9739988  99.5810012   1.9344997 131.5659988
 100.4200012   2.8774997 132.4019988 100.3220409   2.1252883 131.9760589
 105.1060012   1.7434997 135.3489988 105.5260012   1.3284997 136.1019988
 104.1730012   1.5654997 135.4659988 105.0373644   1.6625900 135.4679539
 108.4320012   5.4994997 136.2019988 107.9180012   5.3734997 136.9999988
 108.2770012   6.4114997 135.9579988 108.3406852   5.6056132 136.2782158
 109.1950012  10.3604997 121.9639988 109.2370012  10.1374997 121.0339988
 110.0440012  10.7594997 122.1529988 109.3155280  10.3839438 121.8623554
 104.7670012   4.2364997 122.6339988 104.5140012   4.2554997 123.5569988
 104.5110012   3.3644997 122.3319988 104.6977481   4.1212558 122.7196175
 100.5340012   6.9874997 133.0689988  99.8920012   6.9464997 133.7779988
 100.5710012   7.9134997 132.8309988 100.4510664   7.1071430 133.1339219
 100.5310012   7.2084997 127.9809988  99.6380012   6.8674997 127.9219988
 100.9810012   6.8314997 127.2249988 100.4698130   7.1109631 127.8707702
 106.0660012   7.6244997 126.7979988 105.6570012   8.4394997 126.5069988
 106.7870012   7.4844997 126.1839988 106.1074537   7.7172018 126.6751342
 105.1680012   7.7994997 138.2859988 104.6060012   7.0954997 138.6069988
 105.9950012   7.6794997 138.7539988 105.2027095   7.6867883 138.3932330
 107.0710012   7.0704997 129.6119988 106.8760012   7.6754997 128.8969988
 107.2520012   6.2364997 129.1779988 107.0687614   7.0406300 129.4554405
  98.2840012   7.3074997 134.9359988  98.2460012   7.7074997 135.8049988
  97.7930012   6.4904997 135.0269988  98.2124684   7.2518069 135.0671059
 101.6500012   4.6814997 121.7349988 101.2190012   4.2364997 122.4649988
 100.9320012   5.0534997 121.2229988 101.4939438   4.6708940 121.7656799
  94.8920012   4.4234997 128.7869988  95.5230012   4.3944997 129.5059988
  95.3410012   3.9984997 128.0559988  95.0390918   4.3620836 128.7866441
  96.1660012   5.1694997 124.2109988  96.6400012   5.7604997 123.6259988
  95.4490012   5.7004997 124.5579988  96.1339341   5.3220867 124.1778836
 106.3350012   8.7084997 134.2829988 106.6580012   8.0774997 133.6399988
 105.8950012   8.1734997 134.9439988 106.3197484   8.5498387 134.2843198
 103.1120012   4.6354997 129.0669988 102.2010012   4.6924997 129.3559988
 103.6180012   4.5754997 129.8779988 103.0556899   4.6351941 129.2161184
  97.9410012   6.2644997 127.8939988  97.0510012   6.3644997 127.5539988
  98.2370012   5.4224997 127.5479988  97.8592823   6.1643545 127.8007213
 101.5940012   6.2644997 125.5509988 102.5250012   6.3934997 125.7289988
 101.3790012   6.9344997 124.9009988 101.6924247   6.3726565 125.4875747
 107.5170012   3.8704997 132.3319988 106.8410012   4.0014997 132.9959988
 107.0320012   3.7154997 131.5209988 107.3587146   3.8675157 132.3134469
 100.2680012   7.4594997 123.1169988  99.7250012   7.0794997 122.4259988
 101.1010012   7.6534997 122.6889988 100.3063631   7.4337125 122.9644501
 110.8050012  19.5424997 138.6079988 111.0050012  19.9664997 137.7739988
 111.4600012  19.8854997 139.2149988 110.9210072  19.6469857 138.5758592
  98.4030012  12.0164997 138.2159988  99.1350012  12.2704997 138.7779988
  97.6230012  12.2204997 138.7319988  98.3977073  12.0788160 138.3626151
 104.4320012   7.4234997 130.9539988 104.9970012   6.8764997 130.4069988
 104.2850012   6.9014997 131.7429988 104.4893380   7.2782259 130.9858695
  99.4340012   3.5594997 127.3729988  99.1170012   2.6574997 127.3369988
 100.2160012   3.5614997 126.8199988  99.4962408   3.4362474 127.2933569
 103.0590012   5.8114997 133.3679988 102.2230012   6.2654997 133.4789988
 103.5830012   6.0874997 134.1199988 103.0155416   5.9108660 133.4848119
 103.6030012  12.0244997 125.0529988 102.8580012  11.5174997 124.7309988
 103.4690012  12.0734997 125.9999988 103.4828776  11.9616940 125.1368647
 110.7530012  11.1574997 133.8399988 111.3950012  11.6144997 133.2959988
 109.9230012  11.2704997 133.3769988 110.7285963  11.2352704 133.7030177
 107.5010012   4.8384997 123.2519988 106.5620012   4.9504997 123.1009988
 107.7980012   5.6954997 123.5589988 107.4127583   4.9695981 123.2728337
 105.1220012  12.2084997 136.2899988 104.7770012  11.8274997 137.0969988
 104.9220012  13.1424997 136.3609988 105.0477527  12.2825135 136.4100689
 108.2190012   6.7054997 124.9129988 109.1110012   6.5684997 125.2319988
 108.2760012   7.4964997 124.3759988 108.3486504   6.7936052 124.8840818
  98.7280012  11.3194997 130.8229988  99.4730012  11.3174997 130.2219988
  98.8060012  10.4964997 131.3039988  98.8404995  11.2078887 130.8058282
 105.7290012  13.4834997 124.0789988 105.4330012  14.3094997 124.4599988
 105.0260012  12.8634997 124.2749988 105.5934914  13.5128199 124.1576443
  95.7360012   9.7804997 136.1379988  95.9590012   9.3624997 136.9699988
  95.1340012   9.1674997 135.7149988  95.6851759   9.6404668 136.1947022
 102.7520012   9.2974997 138.3509988 102.4560012   9.1314997 137.4559988
 103.6840012   9.0774997 138.3399988 102.8374166   9.2450640 138.2270536
 107.3730012  14.6704997 136.2409988 106.4720012  14.8534997 135.9729988
 107.4070012  14.9294997 137.1609988 107.2543139  14.7305849 136.3288099
 113.1040012   6.9154997 124.6079988 112.5500012   6.5194997 123.9359988
 113.2040012   7.8254997 124.3299988 113.0417059   6.9843586 124.4784401
 113.0670012  12.7154997 137.4449988 112.2160012  12.9534997 137.0779988
 113.6580012  12.6984997 136.6919988 113.0302487  12.7458258 137.2928893
 111.3990012  15.7014997 125.0729988 111.0260012  14.8754997 125.3819988
 111.6770012  15.5184997 124.1749988 111.3855222  15.5637430 124.9939473
 108.5600012  10.5094997 132.0939988 107.6310012  10.2774997 132.0669988
 109.0110012   9.7324997 131.7639988 108.4939216  10.3727238 132.0456917
 101.1030012  14.8374997 128.2269988 101.6300012  15.6104997 128.0269988
 100.2230012  15.0624997 127.9249988 101.0562031  14.9737545 128.1587912
  96.8580012   9.6994997 122.8139988  97.4740012  10.3264997 123.1939988
  95.9960012  10.0154997 123.0859988  96.8257698   9.8279430 122.9027183
 102.5300012  12.5004997 127.8029988 102.2890012  13.4254997 127.8449988
 101.7890012  12.0414997 128.1999988 102.3969225  12.5650933 127.8623742
 103.0450012  16.6494997 134.1189988 103.4070012  17.5044997 133.8849988
 103.5760012  16.3574997 134.8589988 103.1664473  16.7271060 134.1870855
 101.2130012  17.5224997 127.3489988 100.2630012  17.6274997 127.3999988
 101.5650012  18.3424997 127.6929988 101.1304195  17.6478800 127.4025502
 106.5890012  12.7484997 133.8189988 106.1630012  12.5214997 134.6459988
 107.1690012  12.0104997 133.6369988 106.6091868  12.6175299 133.9075830
 108.7920012  13.6774997 122.8929988 109.1450012  13.2974997 123.6969988
 107.8430012  13.5844997 122.9799988 108.7120918  13.6128956 123.0148532
 109.2470012  17.3004997 136.2889988 108.6460012  16.7454997 135.7929988
 109.5290012  17.9674997 135.6619988 109.2028804  17.3146625 136.1364849
 113.2950012  18.1574997 123.0939988 114.0390012  18.7434997 122.9539988
 112.6010012  18.7254997 123.4269988 113.3029899  18.3145798 123.1198778
  97.3700012   4.5334997 135.6959988  96.4770012   4.8724997 135.6279988
  97.2710012   3.6784997 136.1139988  97.2344164   4.4642588 135.7432235
 109.6580012  12.3504997 125.1199988 109.3800012  11.6224997 125.6759988
 110.5850012  12.4694997 125.3249988 109.7453124  12.2668802 125.2238845
  97.0210012  16.3384997 134.1309988  97.2380012  15.4064997 134.0999988
  97.2670012  16.6124997 135.0139988  97.0839549  16.2480636 134.2461763
 102.8830012  14.7894997 121.3399988 103.1220012  14.0414997 120.7929988
 102.6140012  14.4014997 122.1729988 102.8793675  14.6346638 121.3776865
 101.8200012  14.3594997 123.7959988 101.9660012  13.8394997 124.5859988
 101.8170012  15.2664997 124.1029988 101.8395792  14.4108842 123.9456117
  98.2730012  11.6124997 124.3069988  97.5870012  11.9644997 124.8739988
  98.7950012  12.3754997 124.0599988  98.2496852  11.7638578 124.3512118
 106.1040012   4.2744997 134.5859988 106.8030012   4.3484997 135.2359988
 105.7230012   3.4104997 134.7399988 106.1481767   4.1677624 134.6958322
 106.8890012   3.9264997 125.6829988 107.1090012   4.3984997 124.8799988
 107.4470012   4.3214997 126.3529988 106.9944968   4.0444285 125.6637331
 104.5570012  16.0574997 124.5459988 103.7410012  16.5544997 124.5979988
 105.0870012  16.5324997 123.9059988 104.5169161  16.1897722 124.4665956
 104.0890012   5.6544997 126.5179988 104.9010012   6.1594997 126.5639988
 103.8440012   5.5094997 127.4319988 104.1670520   5.7040375 126.6478517
 104.6240012   6.6404997 135.7019988 104.7430012   7.2144997 136.4599988
 105.2800012   5.9524997 135.8169988 104.7289025   6.6259858 135.8211321
 104.9720012   2.7354997 127.4559988 104.6260012   3.3534997 128.0999988
 105.6310012   3.2364997 126.9739988 105.0136968   2.8876278 127.4789383
 101.8960012  17.1014997 124.5269988 102.0560012  17.9004997 124.0269988
 101.6980012  17.4074997 125.4119988 101.8911637  17.2524020 124.5781144
 100.6300012   3.7984997 124.1429988 100.5470012   4.6874997 124.4899988
 101.5200012   3.5334997 124.3749988 100.7389469   3.8841430 124.2217626
 110.8290012   4.5474997 136.5369988 109.9120012   4.8104997 136.4499988
 111.1640012   4.5444997 135.6409988 110.7488613   4.5830761 136.4038837
 109.4310012   8.2984997 130.6329988 108.6330012   7.8834997 130.3049988
 109.8760012   7.6074997 131.1239988 109.3819885   8.1483543 130.6544889
  98.8890012  14.2264997 123.2039988  99.4810012  14.9254997 123.4799988
  99.3480012  13.7934997 122.4839988  99.0321142  14.2637049 123.1444830
  97.2050012   6.8904997 122.3199988  97.1600012   7.8294997 122.4979988
  96.3170012   6.6544997 122.0499988  97.0788574   6.9871892 122.3078912
 110.5170012  17.5544997 132.2559988 110.3620012  18.2324997 131.5979988
 111.4500012  17.6264997 132.4589988 110.6218657  17.6569546 132.1934360
  98.0130012   1.6724997 130.9929988  97.7840012   1.7314997 130.0649988
  97.5700012   0.8804997 131.2989988  97.9218530   1.5735753 130.9074786
  96.9430012  15.6124997 127.1529988  96.1110012  16.0854997 127.1799988
  97.4890012  16.1224997 126.5549988  96.9030352  15.7461332 127.0758463
  96.2310012  18.2254997 138.4829988  96.7720012  18.0084997 139.2429988
  95.7500012  17.4194997 138.2929988  96.2399951  18.0869270 138.5612576
 100.8290012  17.1444997 140.1029988 101.5960012  16.6854997 140.4439988
 100.8070012  16.9184997 139.1739988 100.9311275  17.0510186 140.0240101
 104.9210012  16.6524997 121.4789988 104.2770012  16.0214997 121.7999988
 105.6830012  16.1214997 121.2469988 104.9358077  16.4942920 121.4916011
 107.4060012  15.5244997 138.8329988 107.0550012  14.6684997 139.0759988
 108.1320012  15.6674997 139.4399988 107.4560769  15.4265636 138.9483619
 109.5250012  16.4694997 121.7119988 109.8080012  15.6754997 122.1649988
 110.2650012  16.7024997 121.1519988 109.6638006  16.3923376 121.6982715
  96.1380012  12.0354997 139.4369988  96.2820012  11.1334997 139.1509988
  95.3660012  12.3214997 138.9499988  96.0532753  11.9506816 139.3319505
 100.4800012  12.3794997 121.5699988 100.5440012  11.5854997 122.1009988
 101.1330012  12.2604997 120.8799988 100.5770241  12.2547148 121.5494317
 102.7940012  12.0054997 138.8699988 102.4650012  12.2764997 138.0129988
 102.9460012  11.0644997 138.7829988 102.7694809  11.9153862 138.7408244
 105.8320012  13.4264997 121.3059988 105.5630012  13.6064997 122.2069988
 105.6260012  12.5004997 121.1739988 105.7673427  13.3260261 121.4115073
 108.5280012  11.9214997 136.2529988 109.2740012  12.5094997 136.1339988
 107.7710012  12.5034997 136.3169988 108.5277820  12.0807143 136.2453590
  96.9710012   9.2354997 138.8569988  97.3790012   8.3784997 138.7359988
  96.7110012   9.2504997 139.7779988  96.9917568   9.1200807 138.9649588
 101.6290012  10.3514997 123.8759988 101.1690012   9.8674997 124.5619988
 101.8840012   9.6834997 123.2399988 101.6004902  10.1948731 123.8839334
 100.9180012   8.2444997 136.2319988 100.3000012   8.9194997 136.5119988
 101.2620012   8.5654997 135.3979988 100.8799132   8.3802411 136.1576262
 102.7000012   8.5944997 122.1379988 102.5200012   8.4404997 121.2109988
 103.6500012   8.7024997 122.1829988 102.8037776   8.5880175 122.0171843
 105.9380012  10.7164997 139.5089988 106.8910012  10.7994997 139.4819988
 105.7770012  10.0044997 140.1289988 106.0466426  10.6316746 139.5890579
 112.0900012  10.9494997 121.5839988 111.8160012  10.5244997 120.7709988
 112.1290012  11.8804997 121.3669988 112.0577699  11.0172484 121.4433610
 101.2570012   5.5994997 137.3139988 101.4070012   4.8704997 136.7119988
 101.2600012   6.3764997 136.7549988 101.2779302   5.6047851 137.1560692
 101.6700012   3.9694997 134.8069988 102.2060012   4.4204997 134.1549988
 100.8180012   3.8614997 134.3839988 101.6282178   4.0166390 134.6605756
 103.2520012   9.4084997 135.0459988 104.0020012   9.2524997 134.4729988
 102.9130012  10.2604997 134.7709988 103.3088921   9.5022968 134.9303561
 107.6670012   7.2234997 140.0749988 107.8600012   6.2924997 139.9629988
 108.5250012   7.6484997 140.0639988 107.8092934   7.1536531 140.0582031
 108.9840012  10.0124997 138.1519988 108.7030012  10.7214997 137.5739988
 109.9270012   9.9394997 138.0009988 109.0729291  10.0996711 138.0524967
  99.7360012   6.7974997 139.2259988  98.9690012   6.2654997 139.0149988
 100.4150012   6.4874997 138.6259988  99.7227877   6.6828300 139.1160716
 102.4760012   1.4254997 135.2379988 102.3770012   2.3724997 135.1329988
 101.7330012   1.0534997 134.7619988 102.3621184   1.5045863 135.1593621
 103.7400012   5.7474997 138.8019988 103.5040012   5.5274997 139.7029988
 102.9560012   5.5404997 138.2919988 103.6018504   5.6894586 138.8563431
 106.4550012   4.8744997 137.8769988 105.5080012   4.9064997 138.0099988
 106.7680012   4.2494997 138.5309988 106.3676707   4.7943998 137.9836060
 108.0890012   3.5084997 139.8829988 107.9930012   2.5564997 139.8769988
 107.7680012   3.7774997 140.7429988 108.0324070   3.4144035 139.9985441
  97.9160012   4.7184997 138.9299988  98.1280012   4.0114997 138.3199988
  97.8050012   4.2804997 139.7739988  97.9299721   4.5627084 138.9606843
 102.6970012   0.7194997 137.9089988 103.4090012   0.0794997 137.8949988
 102.5960012   0.9864997 136.9959988 102.7808066   0.6680079 137.7835677
 103.0510012   2.4024997 139.9629988 102.9190012   1.9264997 139.1429988
 102.4520012   3.1464997 139.9079988 102.9519071   2.4379618 139.8432886
 102.5970012  19.2854997 123.1389988 103.5300012  19.4434997 123.2829988
 102.3330012  19.9604997 122.5149988 102.6889888  19.3984510 123.0742842
  96.1660012  13.9214997 122.6219988  97.0800012  14.0004997 122.8959988
  96.1730012  13.2344997 121.9559988  96.2921131  13.8393961 122.5694393
  94.8150012  19.3144997 127.6999988  94.1680012  18.8524997 127.1669988
  95.1690012  18.6424997 128.2819988  94.7743849  19.1604723 127.7057959
  95.6850012  17.3954997 129.5039988  95.3500012  16.5154997 129.6759988
  95.9070012  17.7404997 130.3689988  95.6691783  17.3217500 129.6444208
 113.2330012  18.2044997 132.4849988 113.2120012  18.3894997 133.4239988
 113.9240012  18.7734997 132.1439988 113.3234618  18.3066606 132.5673864
 112.7970012  17.7724997 135.4069988 112.3090012  17.0364997 135.0349988
 113.3460012  17.3784997 136.0849988 112.8044820  17.6185889 135.4477813
 111.2470012  13.5614997 140.0449988 110.3810012  13.4564997 140.4389988
 111.6240012  14.3204997 140.4909988 111.1793308  13.6496900 140.1592393
 112.5480012  11.8184997 125.5589988 113.3980012  12.2394997 125.6859988
 112.5540012  11.0784997 126.1659988 112.6651372  11.7760803 125.6584344
 112.9430012   9.8714997 127.3819988 112.2160012   9.3924997 127.7799988
 113.5240012  10.0774997 128.1149988 112.9220473   9.8338103 127.5354528
 112.7020012  12.6564997 132.3299988 113.5350012  12.2784997 132.0499988
 112.8140012  13.5994997 132.2109988 112.8312647  12.7322218 132.2755487
 111.1880012  15.5344997 134.6369988 110.5410012  15.8594997 135.2629988
 110.6710012  15.0944997 133.9629988 111.0294029  15.5195004 134.6315827
 113.2110012   9.7724997 123.7739988 112.6890012  10.1294997 123.0549988
 113.1780012  10.4474997 124.4519988 113.1351634   9.9125413 123.7673145
 111.5600012   7.0124997 122.3239988 111.6560012   7.6794997 121.6439988
 111.4200012   6.1964997 121.8429988 111.5542272   6.9935655 122.1658347
 110.7290012   8.3924997 127.9449988 110.5790012   7.4474997 127.9249988
 110.3760012   8.6734997 128.7889988 110.6607448   8.3011481 128.0563705
  95.7650012  10.4704997 131.9559988  95.9490012  10.3884997 131.0199988
  96.6140012  10.3464997 132.3789988  95.9050151  10.4425073 131.8851451
 111.5860012  10.3624997 137.5839988 112.1690012   9.6284997 137.7759988
 112.1500012  11.1344997 137.6309988 111.7419769  10.3664227 137.6166159
 113.0820012   8.2654997 138.2689988 112.2190012   7.8864997 138.1029988
 113.6870012   7.5264997 138.1939988 113.0456119   8.1138268 138.2361528
 110.8070012   4.4204997 121.4419988 111.4180012   4.0494997 122.0789988
 109.9710012   3.9994997 121.6379988 110.7775032   4.3127554 121.5557035
 110.4400012   5.9754997 126.4079988 110.7200012   5.0684997 126.5319988
 111.1990012   6.4094997 126.0189988 110.5809277   5.9100942 126.3723682
 111.0520012   6.5564997 131.8439988 111.9850012   6.7684997 131.8089988
 110.8170012   6.6584997 132.7659988 111.1479244   6.5993100 131.9638892
 111.0810012   7.2934997 134.6199988 110.2380012   7.5614997 134.9859988
 111.5230012   8.1154997 134.4089988 111.0254158   7.4413291 134.6415491
  95.3620012   5.7414997 138.0969988  96.2820012   5.6194997 138.3329988
  94.9130012   4.9914997 138.4859988  95.4271580   5.6233727 138.1819006
 113.3640012   1.2734997 139.9729988 113.7140012   0.6194997 139.3679988
 113.5110012   2.1104997 139.5329988 113.4317887   1.2971548 139.8306858
 111.0530012   3.2384997 126.4559988 111.2360012   2.7894997 127.2819988
 110.4540012   2.6534997 125.9929988 110.9970202   3.0979975 126.5063275
  96.5830012   4.0534997 130.9879988  97.0290012   3.2614997 131.2899988
  97.0500012   4.7694997 131.4179988  96.7070831   4.0420685 131.0874006
  94.8870012   7.0524997 132.0569988  95.3790012   6.8314997 131.2659988
  95.2500012   7.8934997 132.3379988  95.0033126   7.1358357 131.9867531
 112.8840012   3.3824997 138.3219988 111.9660012   3.6534997 138.2869988
 113.0070012   2.8474997 137.5379988 112.7749729   3.3472508 138.2111923
 112.9200012   3.3054997 122.9839988 113.3320012   2.5844997 122.5089988
 113.6020012   3.9754997 123.0429988 113.0685885   3.2972368 122.9268915
  95.2010012   3.3104997 126.1109988  94.2760012   3.5194997 125.9819988
  95.6550012   3.7944997 125.4209988  95.1357292   3.4045343 126.0000720
 109.9720012  18.2944997 128.0569988 110.6240012  17.9474997 127.4489988
 110.4820012  18.7834997 128.7029988 110.1302637  18.3130597 128.0610236
  95.1650012   2.0484997 134.4549988  94.5000012   1.8024997 135.0989988
  94.7220012   2.6704997 133.8779988  95.0141318   2.0989410 134.4650898
  97.3570012  15.2234997 138.5999988  96.5360012  15.3984997 138.1389988
  97.1040012  15.1504997 139.5199988  97.2105585  15.2375544 138.6613561
 100.3110012  16.1984997 134.8579988  99.8860012  17.0074997 134.5759988
 101.2150012  16.2834997 134.5559988 100.3749975  16.3209300 134.7784816
 104.6220012  17.5974997 137.8179988 104.8070012  17.2634997 138.6959988
 105.4680012  17.9064997 137.4959988 104.7617539  17.5936047 137.8945605
 106.9670012  18.8834997 137.0619988 107.6440012  18.2504997 136.8219988
 107.2890012  19.2844997 137.8689988 107.1031637  18.8511154 137.1382793
 111.8840012   1.4724997 136.1409988 111.0720012   1.7974997 135.7539988
 112.1170012   0.7124997 135.6079988 111.8042203   1.4142758 136.0158880
  97.7130012  19.4544997 134.9059988  96.9920012  19.8944997 134.4549988
  97.3470012  19.2034997 135.7539988  97.5649651  19.4807242 134.9589640
 100.1800012  19.0544997 133.9359988  99.3150012  19.1264997 134.3399988
 100.1250012  19.6014997 133.1519988 100.0542085  19.1382685 133.8853362
 104.8900012  18.9424997 133.1109988 104.4340012  19.4714997 132.4569988
 105.0530012  19.5454997 133.8359988 104.8496068  19.0964607 133.1194838
 107.2180012  17.8204997 134.0559988 106.3130012  17.9854997 133.7899988
 107.6470012  18.6734997 133.9909988 107.1521324  17.9584339 134.0107976
 109.8220012  19.3904997 134.3509988 109.6400012  20.3064997 134.1409988
 109.9990012  18.9804997 133.5049988 109.8210210  19.4604822 134.2077885
  97.1270012  18.0774997 131.8159988  97.1090012  17.6524997 132.6729988
  97.9320012  17.7594997 131.4069988  97.2333529  17.9763013 131.8780946
  99.2690012  16.7874997 130.4709988  99.0500012  15.8714997 130.6409988
 100.0930012  16.9274997 130.9369988  99.3504420  16.6810520 130.5572774
 101.8060012  17.2574997 131.3199988 102.0190012  16.3694997 131.0329988
 101.8700012  17.2234997 132.2739988 101.8438232  17.1313102 131.4097397
 105.3140012   2.9214997 130.4639988 104.6400012   2.2924997 130.7199988
 105.8780012   2.4374997 129.8609988 105.2979230   2.7698744 130.4175340
 110.4570012   1.0294997 130.5769988 111.0610012   1.5764997 130.0749988
 109.5870012   1.3484997 130.3359988 110.4221208   1.1475137 130.4756886
 112.1840012   2.1674997 128.9099988 112.7960012   1.6534997 128.3829988
 112.5660012   3.0454997 128.9329988 112.3193371   2.2157866 128.8410041
  97.6410012   1.5554997 128.2859988  96.8640012   1.3214997 127.7789988
  98.1710012   0.7584997 128.2949988  97.6062330   1.4156988 128.2177742
  96.4770012   1.3534997 124.0899988  96.9160012   1.9644997 123.4979988
  95.8440012   1.8914997 124.5639988  96.4514514   1.5099257 124.0730930
 102.2200012   1.4824997 128.0999988 103.0950012   1.8704997 128.0699988
 102.0840012   1.2674997 129.0219988 102.3213695   1.5065184 128.2206440
 107.7770012   1.5124997 129.7489988 107.8530012   1.6074997 128.7989988
 107.5020012   0.6044997 129.8779988 107.7502321   1.4027867 129.6365079
 109.1300012   1.5384997 125.4409988 108.4280012   2.1534997 125.2309988
 108.6860012   0.7004997 125.5719988 108.9736450   1.5095639 125.4299000
  96.3780012  17.3014997 124.9869988  95.6930012  17.2634997 124.3199988
  96.3820012  18.2144997 125.2759988  96.2846998  17.4196733 124.9346771
  98.3380012   3.2694997 122.5319988  98.8300012   2.6394997 122.0049988
  98.9620012   3.5654997 123.1949988  98.4895688   3.2233804 122.5495482
 103.3640012   3.5624997 124.9889988 103.5420012   2.9164997 125.6719988
 103.3110012   4.3964997 125.4559988 103.3811999   3.5868009 125.1455917
 105.2430012  18.5114997 123.3849988 106.1090012  18.8774997 123.2069988
 104.9960012  18.0714997 122.5709988 105.3282392  18.5021756 123.2506289
 111.9520012  18.0744997 126.0639988 111.7570012  17.3264997 125.4989988
 111.9130012  18.8324997 125.4809988 111.9200380  18.0746099 125.9078384
  97.5990012   2.0694997 137.8039988  97.2330012   1.3044997 138.2459988
  98.5120012   2.0984997 138.0899988  97.6722736   1.9685640 137.9032502
  99.5720012   1.4204997 139.3399988 100.4700012   1.1464997 139.1549988
  99.1850012   0.6774997 139.8039988  99.6426612   1.2825914 139.3773643
  98.1960012  18.2214997 122.0129988  97.9290012  18.5084997 122.8859988
  98.9680012  17.6754997 122.1649988  98.2637488  18.1870294 122.1531050
 107.9930012   0.7524997 139.5219988 108.0700012   0.3264997 140.3759988
 108.8870012   0.7664997 139.1789988 108.1243428   0.6960879 139.5925310
 111.1690012  16.8254997 138.2139988 110.3870012  16.6394997 137.6939988
 111.0970012  17.7544997 138.4319988 111.0522274  16.9256643 138.1723018
 125.5750012  10.7114997 128.2449988 125.6640012  11.6554997 128.1129988
 124.9370012  10.4364997 127.5869988 125.5009081  10.8034830 128.1379614
 124.5080012   9.9664997 131.6639988 124.4700012   9.3204997 132.3689988
 124.1860012   9.5004997 130.8929988 124.4592333   9.8149408 131.6562978
 116.8770012   9.5814997 133.2569988 116.9180012   8.9554997 133.9799988
 117.5800012  10.2054997 133.4389988 116.9776363   9.5801196 133.3806044
 128.2140012  12.9054997 129.9649988 127.7740012  12.1854997 130.4159988
 128.2010012  13.6264997 130.5949988 128.1520226  12.9043731 130.1118494
 117.8000012  14.0314997 131.7919988 117.4310012  13.2294997 131.4219988
 118.7410012  13.8624997 131.8379988 117.8767289  13.8990153 131.7476316
 114.4100012   7.6914997 127.1849988 113.9630012   8.5374997 127.1659988
 113.8490012   7.1114997 126.6689988 114.2729900   7.7289916 127.1126801
 115.1210012   9.8534997 129.3099988 115.3340012   9.0834997 129.8379988
 115.8590012   9.9424997 128.7069988 115.2499044   9.7601968 129.3007123
 125.3260012  18.0104997 130.1769988 125.9460012  17.3334997 129.9039988
 125.1180012  17.7924997 131.0859988 125.3826726  17.8884800 130.2624812
 122.8980012  12.3994997 132.0699988 123.2020012  11.7134997 131.4749988
 123.6190012  12.5174997 132.6879988 123.0370671  12.3216305 132.0721816
 131.5610012   4.0004997 132.9309988 131.6100012   4.6104997 133.6659988
 131.9860012   4.4614997 132.2079988 131.6251746   4.1463796 132.9339175
 126.0390012   6.7934997 132.3969988 126.1810012   5.8474997 132.4179988
 125.9320012   7.0004997 131.4689988 126.0439919   6.6918246 132.2743408
 119.1930012   4.8944997 129.6699988 119.2370012   5.7544997 129.2509988
 118.7360012   4.3424997 129.0359988 119.1372240   4.9374422 129.5269864
 126.9160012   5.0254997 128.0709988 127.5620012   4.6964997 128.6949988
 127.4260012   5.5434997 127.4479988 127.0734299   5.0504450 128.0722731
 115.8140012   7.2914997 130.4319988 116.4670012   6.7414997 130.8639988
 115.8380012   7.0174997 129.5149988 115.9066683   7.1791466 130.3672123
 120.9700012   8.8414997 129.6469988 121.5860012   8.3154997 130.1569988
 120.3840012   8.2014997 129.2439988 120.9750810   8.6829208 129.6623173
 131.9520012   5.4784997 135.1659988 131.2640012   6.1364997 135.0709988
 131.9680012   5.2814997 136.1029988 131.8599540   5.5419819 135.2795990
 118.0040012   3.8124997 133.7439988 117.7850012   4.3424997 132.9779988
 117.3360012   4.0394997 134.3909988 117.8837600   3.9156906 133.7266379
 125.3730012  13.3124997 127.2879988 125.0770012  12.9904997 126.4369988
 125.0480012  14.2124997 127.3289988 125.2886371  13.3900215 127.1771801
 120.5730012  11.4884997 134.0309988 119.8330012  12.0864997 134.1349988
 121.2870012  12.0424997 133.7159988 120.5682237  11.6452831 134.0026465
 128.6800012   4.3164997 130.0509988 128.4640012   3.5504997 130.5839988
 129.3350012   4.7884997 130.5639988 128.7390632   4.2755889 130.1932861
 117.5970012   5.7044997 131.6959988 118.2110012   6.3374997 132.0689988
 118.1090012   5.2324997 131.0399988 117.7501981   5.7272267 131.6582908
 118.9800012  13.4524997 134.8179988 118.9750012  14.3324997 134.4399988
 118.1270012  13.3694997 135.2429988 118.8639464  13.5616117 134.8237907
 115.1010012  13.1234997 125.5999988 114.8290012  13.3524997 124.7119988
 115.1470012  13.9614997 126.0609988 115.0699482  13.2681318 125.5406273
 128.7260012  14.7454997 132.3129988 127.7850012  14.8034997 132.4749988
 129.0030012  15.6514997 132.1759988 128.6344679  14.8759443 132.3166815
 129.0270012   3.0314997 133.7309988 128.2910012   3.6424997 133.6929988
 129.7100012   3.4464997 133.2039988 129.0186541   3.1711374 133.6545832
 122.0300012   1.1184997 131.1959988 121.9130012   0.1694997 131.1419988
 121.1750012   1.4504997 131.4699988 121.8984212   1.0335571 131.2256497
 126.9780012  16.5264997 128.9379988 127.4040012  15.8194997 128.4529988
 127.2950012  17.3274997 128.5219988 127.0791683  16.5381017 128.8153680
 128.1380012  14.4274997 127.4469988 127.8800012  13.7374997 126.8359988
 128.2090012  13.9844997 128.2929988 128.1122856  14.2732124 127.4776885
 129.8240012  12.9934997 135.9239988 129.9640012  12.4024997 135.1849988
 129.9910012  13.8664997 135.5679988 129.8657411  13.0305428 135.7746894
 124.2970012   9.9554997 125.6969988 123.5850012  10.4904997 125.3449988
 124.9880012  10.0114997 125.0369988 124.2930132  10.0362543 125.5596289
 124.3500012   8.4134997 122.7359988 125.0510012   8.4354997 123.3869988
 124.6530012   7.7854997 122.0789988 124.4868133   8.3317070 122.7363369
 131.6660012   9.3334997 133.9899988 131.0130012  10.0284997 134.0799988
 132.1310012   9.5434997 133.1809988 131.6395274   9.4570643 133.8928462
 127.7020012  10.1654997 126.6489988 126.9700012  10.3934997 127.2219988
 128.1500012   9.4514997 127.1029988 127.6622725  10.1002145 126.7888816
 127.6000012   8.3394997 135.7159988 127.6800012   9.1024997 136.2879988
 126.9980012   8.6184997 135.0259988 127.5295756   8.4817134 135.7010589
 119.3480012  10.7954997 128.5309988 119.0170012  10.4254997 127.7129988
 119.9360012  10.1254997 128.8779988 119.3821873  10.6541156 128.4658102
 120.7140012  14.2234997 131.2119988 120.6200012  13.6454997 130.4559988
 121.4440012  13.8524997 131.7089988 120.7997387  14.0941663 131.1755342
 119.7140012   9.5644997 132.1649988 120.2800012   9.6854997 131.4019988
 120.0330012  10.2014997 132.8029988 119.8345474   9.6672219 132.1469862
 126.0230012  15.0674997 132.8989988 125.7830012  15.7294997 133.5469988
 125.8250012  14.2334997 133.3239988 125.9633808  15.0453134 133.0451524
 120.5940012  13.9634997 136.8819988 120.2830012  14.7454997 137.3369988
 119.9440012  13.8104997 136.1959988 120.4635558  14.0499105 136.8515871
 126.5730012   9.3274997 124.3339988 127.1530012   9.4774997 125.0809988
 126.9870012   9.7984997 123.6099988 126.7082997   9.4116578 124.3384058
 117.5140012  10.1614997 136.1099988 117.5850012  10.8124997 136.8089988
 116.6240012  10.2644997 135.7749988 117.4033005  10.2645427 136.1603495
 124.3000012  16.0644997 127.7689988 124.7740012  16.3594997 128.5459988
 123.7370012  16.8024997 127.5359988 124.2888184  16.2047247 127.8439628
 118.8340012  16.0354997 137.6449988 118.8410012  15.8994997 136.6979988
 117.9180012  15.9174997 137.8969988 118.7111714  16.0009430 137.5494666
 130.2720012   1.0774997 124.1469988 129.3720012   1.2164997 124.4419988
 130.5240012   1.9084997 123.7449988 130.1828702   1.2089074 124.1330205
 118.3380012   9.8654997 126.1199988 118.0460012  10.6334997 125.6299988
 117.6640012   9.2054997 125.9579988 118.2068111   9.8815587 126.0308978
 131.4610012  15.4434997 122.5229988 131.5350012  16.3824997 122.6939988
 132.3670012  15.1384997 122.4669988 131.5935100  15.5306722 122.5388119
 114.4310012  12.2284997 134.9349988 113.9300012  12.2004997 134.1199988
 114.4360012  11.3224997 135.2449988 114.3630944  12.1022396 134.8653226
 114.1810012  15.0084997 131.8189988 115.1270012  14.8644997 131.7999988
 114.0690012  15.7924997 132.3559988 114.2952727  15.0948046 131.8890072
 132.3790012  15.6744997 137.5019988 132.3300012  14.7194997 137.4649988
 131.5520012  15.9424997 137.9029988 132.2604940  15.5798998 137.5511375
 123.3580012  15.2484997 136.3779988 123.4450012  16.0744997 136.8529988
 122.4940012  14.9184997 136.6269988 123.2531964  15.3169878 136.4766549
 123.7720012  19.0204997 126.1839988 123.6970012  18.8994997 125.2369988
 123.8050012  19.9704997 126.3019988 123.7662068  19.1322646 126.0704967
 117.4250012  17.8094997 127.9649988 117.5780012  17.4614997 128.8429988
 116.5750012  17.4534997 127.7099988 117.3309166  17.7136217 128.0508079
 126.8740012  18.1744997 123.1859988 127.2490012  17.4304997 122.7149988
 126.8780012  17.9044997 124.1049988 126.9259125  18.0360986 123.2456483
 126.5430012  18.1004997 125.9349988 125.6070012  18.2004997 126.1139988
 126.8230012  17.3914997 126.5139988 126.4529553  18.0183406 126.0377087
 129.5310012   7.1674997 137.9819988 129.1240012   7.6484997 137.2609988
 129.5720012   6.2624997 137.6739988 129.4808437   7.1109374 137.8416683
 116.6800012  13.5514997 135.9789988 116.8960012  13.1904997 136.8379988
 115.8250012  13.1774997 135.7689988 116.5939292  13.4514111 136.0683386
 119.2990012   2.0214997 131.9739988 118.4370012   1.9344997 131.5659988
 119.2760012   2.8774997 132.4019988 119.1780409   2.1252883 131.9760589
 123.9620012   1.7434997 135.3489988 124.3820012   1.3284997 136.1019988
 123.0290012   1.5654997 135.4659988 123.8933644   1.6625900 135.4679539
 127.2880012   5.4994997 136.2019988 126.7740012   5.3734997 136.9999988
 127.1330012   6.4114997 135.9579988 127.1966852   5.6056132 136.2782158
 128.0510012  10.3604997 121.9639988 128.0930012  10.1374997 121.0339988
 128.9000012  10.7594997 122.1529988 128.1715280  10.3839438 121.8623554
 123.6230012   4.2364997 122.6339988 123.3700012   4.2554997 123.5569988
 123.3670012   3.3644997 122.3319988 123.5537481   4.1212558 122.7196175
 119.3900012   6.9874997 133.0689988 118.7480012   6.9464997 133.7779988
 119.4270012   7.9134997 132.8309988 119.3070664   7.1071430 133.1339219
 119.3870012   7.2084997 127.9809988 118.4940012   6.8674997 127.9219988
 119.8370012   6.8314997 127.2249988 119.3258130   7.1109631 127.8707702
 124.9220012   7.6244997 126.7979988 124.5130012   8.4394997 126.5069988
 125.6430012   7.4844997 126.1839988 124.9634537   7.7172018 126.6751342
 124.0240012   7.7994997 138.2859988 123.4620012   7.0954997 138.6069988
 124.8510012   7.6794997 138.7539988 124.0587095   7.6867883 138.3932330
 125.9270012   7.0704997 129.6119988 125.7320012   7.6754997 128.8969988
 126.1080012   6.2364997 129.1779988 125.9247614   7.0406300 129.4554405
 117.1400012   7.3074997 134.9359988 117.1020012   7.7074997 135.8049988
 116.6490012   6.4904997 135.0269988 117.0684684   7.2518069 135.0671059
 120.5060012   4.6814997 121.7349988 120.0750012   4.2364997 122.4649988
 119.7880012   5.0534997 121.2229988 120.3499438   4.6708940 121.7656799
 113.7480012   4.4234997 128.7869988 114.3790012   4.3944997 129.5059988
 114.1970012   3.9984997 128.0559988 113.8950918   4.3620836 128.7866441
 115.0220012   5.1694997 124.2109988 115.4960012   5.7604997 123.6259988
 114.3050012   5.7004997 124.5579988 114.9899341   5.3220867 124.1778836
 125.1910012   8.7084997 134.2829988 125.5140012   8.0774997 133.6399988
 124.7510012   8.1734997 134.9439988 125.1757484   8.5498387 134.2843198
 121.9680012   4.6354997 129.0669988 121.0570012   4.6924997 129.3559988
 122.4740012   4.5754997 129.8779988 121.9116899   4.6351941 129.2161184
 116.7970012   6.2644997 127.8939988 115.9070012   6.3644997 127.5539988
 117.0930012   5.4224997 127.5479988 116.7152823   6.1643545 127.8007213
 120.4500012   6.2644997 125.5509988 121.3810012   6.3934997 125.7289988
 120.2350012   6.9344997 124.9009988 120.5484247   6.3726565 125.4875747
 126.3730012   3.8704997 132.3319988 125.6970012   4.0014997 132.9959988
 125.8880012   3.7154997 131.5209988 126.2147146   3.8675157 132.3134469
 119.1240012   7.4594997 123.1169988 118.5810012   7.0794997 122.4259988
 119.9570012   7.6534997 122.6889988 119.1623631   7.4337125 122.9644501
 129.6610012  19.5424997 138.6079988 129.8610012  19.9664997 137.7739988
 130.3160012  19.8854997 139.2149988 129.7770072  19.6469857 138.5758592
 117.2590012  12.0164997 138.2159988 117.9910012  12.2704997 138.7779988
 116.4790012  12.2204997 138.7319988 117.2537073  12.0788160 138.3626151
 123.2880012   7.4234997 130.9539988 123.8530012   6.8764997 130.4069988
 123.1410012   6.9014997 131.7429988 123.3453380   7.2782259 130.9858695
 118.2900012   3.5594997 127.3729988 117.9730012   2.6574997 127.3369988
 119.0720012   3.5614997 126.8199988 118.3522408   3.4362474 127.2933569
 121.9150012   5.8114997 133.3679988 121.0790012   6.2654997 133.4789988
 122.4390012   6.0874997 134.1199988 121.8715416   5.9108660 133.4848119
 122.4590012  12.0244997 125.0529988 121.7140012  11.5174997 124.7309988
 122.3250012  12.0734997 125.9999988 122.3388776  11.9616940 125.1368647
 129.6090012  11.1574997 133.8399988 130.2510012  11.6144997 133.2959988
 128.7790012  11.2704997 133.3769988 129.5845963  11.2352704 133.7030177
 126.3570012   4.8384997 123.2519988 125.4180012   4.9504997 123.1009988
 126.6540012   5.6954997 123.5589988 126.2687583   4.9695981 123.2728337
 123.9780012  12.2084997 136.2899988 123.6330012  11.8274997 137.0969988
 123.7780012  13.1424997 136.3609988 123.9037527  12.2825135 136.4100689
 127.0750012   6.7054997 124.9129988 127.9670012   6.5684997 125.2319988
 127.1320012   7.4964997 124.3759988 127.2046504   6.7936052 124.8840818
 117.5840012  11.3194997 130.8229988 118.3290012  11.3174997 130.2219988
 117.6620012  10.4964997 131.3039988 117.6964995  11.2078887 130.8058282
 124.5850012  13.4834997 124.0789988 124.2890012  14.3094997 124.4599988
 123.8820012  12.8634997 124.2749988 124.4494914  13.5128199 124.1576443
 114.5920012   9.7804997 136.1379988 114.8150012   9.3624997 136.9699988
 113.9900012   9.1674997 135.7149988 114.5411759   9.6404668 136.1947022
 121.6080012   9.2974997 138.3509988 121.3120012   9.1314997 137.4559988
 122.5400012   9.0774997 138.3399988 121.6934166   9.2450640 138.2270536
 126.2290012  14.6704997 136.2409988 125.3280012  14.8534997 135.9729988
 126.2630012  14.9294997 137.1609988 126.1103139  14.7305849 136.3288099
 131.9600012   6.9154997 124.6079988 131.4060012   6.5194997 123.9359988
 132.0600012   7.8254997 124.3299988 131.8977059   6.9843586 124.4784401
 131.9230012  12.7154997 137.4449988 131.0720012  12.9534997 137.0779988
 132.5140012  12.6984997 136.6919988 131.8862487  12.7458258 137.2928893
 130.2550012  15.7014997 125.0729988 129.8820012  14.8754997 125.3819988
 130.5330012  15.5184997 124.1749988 130.2415222  15.5637430 124.9939473
 127.4160012  10.5094997 132.0939988 126.4870012  10.2774997 132.0669988
 127.8670012   9.7324997 131.7639988 127.3499216  10.3727238 132.0456917
 119.9590012  14.8374997 128.2269988 120.4860012  15.6104997 128.0269988
 119.0790012  15.0624997 127.9249988 119.9122031  14.9737545 128.1587912
 115.7140012   9.6994997 122.8139988 116.3300012  10.3264997 123.1939988
 114.8520012  10.0154997 123.0859988 115.6817698   9.8279430 122.9027183
 121.3860012  12.5004997 127.8029988 121.1450012  13.4254997 127.8449988
 120.6450012  12.0414997 128.1999988 121.2529225  12.5650933 127.8623742
 121.9010012  16.6494997 134.1189988 122.2630012  17.5044997 133.8849988
 122.4320012  16.3574997 134.8589988 122.0224473  16.7271060 134.1870855
 120.0690012  17.5224997 127.3489988 119.1190012  17.6274997 127.3999988
 120.4210012  18.3424997 127.6929988 119.9864195  17.6478800 127.4025502
 125.4450012  12.7484997 133.8189988 125.0190012  12.5214997 134.6459988
 126.0250012  12.0104997 133.6369988 125.4651868  12.6175299 133.9075830
 127.6480012  13.6774997 122.8929988 128.0010012  13.2974997 123.6969988
 126.6990012  13.5844997 122.9799988 127.5680918  13.6128956 123.0148532
 128.1030012  17.3004997 136.2889988 127.5020012  16.7454997 135.7929988
 128.3850012  17.9674997 135.6619988 128.0588804  17.3146625 136.1364849
 132.1510012  18.1574997 123.0939988 132.8950012  18.7434997 122.9539988
 131.4570012  18.7254997 123.4269988 132.1589899  18.3145798 123.1198778
 116.2260012   4.5334997 135.6959988 115.3330012   4.8724997 135.6279988
 116.1270012   3.6784997 136.1139988 116.0904164   4.4642588 135.7432235
 128.5140012  12.3504997 125.1199988 128.2360012  11.6224997 125.6759988
 129.4410012  12.4694997 125.3249988 128.6013124  12.2668802 125.2238845
 115.8770012  16.3384997 134.1309988 116.0940012  15.4064997 134.0999988
 116.1230012  16.6124997 135.0139988 115.9399549  16.2480636 134.2461763
 121.7390012  14.7894997 121.3399988 121.9780012  14.0414997 120.7929988
 121.4700012  14.4014997 122.1729988 121.7353675  14.6346638 121.3776865
 120.6760012  14.3594997 123.7959988 120.8220012  13.8394997 124.5859988
 120.6730012  15.2664997 124.1029988 120.6955792  14.4108842 123.9456117
 117.1290012  11.6124997 124.3069988 116.4430012  11.9644997 124.8739988
 117.6510012  12.3754997 124.0599988 117.1056852  11.7638578 124.3512118
 124.9600012   4.2744997 134.5859988 125.6590012   4.3484997 135.2359988
 124.5790012   3.4104997 134.7399988 125.0041767   4.1677624 134.6958322
 125.7450012   3.9264997 125.6829988 125.9650012   4.3984997 124.8799988
 126.3030012   4.3214997 126.3529988 125.8504968   4.0444285 125.6637331
 123.4130012  16.0574997 124.5459988 122.5970012  16.5544997 124.5979988
 123.9430012  16.5324997 123.9059988 123.3729161  16.1897722 124.4665956
 122.9450012   5.6544997 126.5179988 123.7570012   6.1594997 126.5639988
 122.7000012   5.5094997 127.4319988 123.0230520   5.7040375 126.6478517
 123.4800012   6.6404997 135.7019988 123.5990012   7.2144997 136.4599988
 124.1360012   5.9524997 135.8169988 123.5849025   6.6259858 135.8211321
 123.8280012   2.7354997 127.4559988 123.4820012   3.3534997 128.0999988
 124.4870012   3.2364997 126.9739988 123.8696968   2.8876278 127.4789383
 120.7520012  17.1014997 124.5269988 120.9120012  17.9004997 124.0269988
 120.5540012  17.4074997 125.4119988 120.7471637  17.2524020 124.5781144
 119.4860012   3.7984997 124.1429988 119.4030012   4.6874997 124.4899988
 120.3760012   3.5334997 124.3749988 119.5949469   3.8841430 124.2217626
 129.6850012   4.5474997 136.5369988 128.7680012   4.8104997 136.4499988
 130.0200012   4.5444997 135.6409988 129.6048613   4.5830761 136.4038837
 128.2870012   8.2984997 130.6329988 127.4890012   7.8834997 130.3049988
 128.7320012   7.6074997 131.1239988 128.2379885   8.1483543 130.6544889
 117.7450012  14.2264997 123.2039988 118.3370012  14.9254997 123.4799988
 118.2040012  13.7934997 122.4839988 117.8881142  14.2637049 123.1444830
 116.0610012   6.8904997 122.3199988 116.0160012   7.8294997 122.4979988
 115.1730012   6.6544997 122.0499988 115.9348574   6.9871892 122.3078912
 129.3730012  17.5544997 132.2559988 129.2180012  18.2324997 131.5979988
 130.3060012  17.6264997 132.4589988 129.4778657  17.6569546 132.1934360
 116.8690012   1.6724997 130.9929988 116.6400012   1.7314997 130.0649988
 116.4260012   0.8804997 131.2989988 116.7778530   1.5735753 130.9074786
 115.7990012  15.6124997 127.1529988 114.9670012  16.0854997 127.1799988
 116.3450012  16.1224997 126.5549988 115.7590352  15.7461332 127.0758463
 115.0870012  18.2254997 138.4829988 115.6280012  18.0084997 139.2429988
 114.6060012  17.4194997 138.2929988 115.0959951  18.0869270 138.5612576
 119.6850012  17.1444997 140.1029988 120.4520012  16.6854997 140.4439988
 119.6630012  16.9184997 139.1739988 119.7871275  17.0510186 140.0240101
 123.7770012  16.6524997 121.4789988 123.1330012  16.0214997 121.7999988
 124.5390012  16.1214997 121.2469988 123.7918077  16.4942920 121.4916011
 126.2620012  15.5244997 138.8329988 125.9110012  14.6684997 139.0759988
 126.9880012  15.6674997 139.4399988 126.3120769  15.4265636 138.9483619
 128.3810012  16.4694997 121.7119988 128.6640012  15.6754997 122.1649988
 129.1210012  16.7024997 121.1519988 128.5198006  16.3923376 121.6982715
 114.9940012  12.0354997 139.4369988 115.1380012  11.1334997 139.1509988
 114.2220012  12.3214997 138.9499988 114.9092753  11.9506816 139.3319505
 119.3360012  12.3794997 121.5699988 119.4000012  11.5854997 122.1009988
 119.9890012  12.2604997 120.8799988 119.4330241  12.2547148 121.5494317
 121.6500012  12.0054997 138.8699988 121.3210012  12.2764997 138.0129988
 121.8020012  11.0644997 138.7829988 121.6254809  11.9153862 138.7408244
 124.6880012  13.4264997 121.3059988 124.4190012  13.6064997 122.2069988
 124.4820012  12.5004997 121.1739988 124.6233427  13.3260261 121.4115073
 127.3840012  11.9214997 136.2529988 128.1300012  12.5094997 136.1339988
 126.6270012  12.5034997 136.3169988 127.3837820  12.0807143 136.2453590
 115.8270012   9.2354997 138.8569988 116.2350012   8.3784997 138.7359988
 115.5670012   9.2504997 139.7779988 115.8477568   9.1200807 138.9649588
 120.4850012  10.3514997 123.8759988 120.0250012   9.8674997 124.5619988
 120.7400012   9.6834997 123.2399988 120.4564902  10.1948731 123.8839334
 119.7740012   8.2444997 136.2319988 119.1560012   8.9194997 136.5119988
 120.1180012   8.5654997 135.3979988 119.7359132   8.3802411 136.1576262
 121.5560012   8.5944997 122.1379988 121.3760012   8.4404997 121.2109988
 122.5060012   8.7024997 122.1829988 121.6597776   8.5880175 122.0171843
 124.7940012  10.7164997 139.5089988 125.7470012  10.7994997 139.4819988
 124.6330012  10.0044997 140.1289988 124.9026426  10.6316746 139.5890579
 130.9460012  10.9494997 121.5839988 130.6720012  10.5244997 120.7709988
 130.9850012  11.8804997 121.3669988 130.9137699  11.0172484 121.4433610
 120.1130012   5.5994997 137.3139988 120.2630012   4.8704997 136.7119988
 120.1160012   6.3764997 136.7549988 120.1339302   5.6047851 137.1560692
 120.5260012   3.9694997 134.8069988 121.0620012   4.4204997 134.1549988
 119.6740012   3.8614997 134.3839988 120.4842178   4.0166390 134.6605756
 122.1080012   9.4084997 135.0459988 122.8580012   9.2524997 134.4729988
 121.7690012  10.2604997 134.7709988 122.1648921   9.5022968 134.9303561
 126.5230012   7.2234997 140.0749988 126.7160012   6.2924997 139.9629988
 127.3810012   7.6484997 140.0639988 126.6652934   7.1536531 140.0582031
 127.8400012  10.0124997 138.1519988 127.5590012  10.7214997 137.5739988
 128.7830012   9.9394997 138.0009988 127.9289291  10.0996711 138.0524967
 118.5920012   6.7974997 139.2259988 117.8250012   6.2654997 139.0149988
 119.2710012   6.4874997 138.6259988 118.5787877   6.6828300 139.1160716
 121.3320012   1.4254997 135.2379988 121.2330012   2.3724997 135.1329988
 120.5890012   1.0534997 134.7619988 121.2181184   1.5045863 135.1593621
 122.5960012   5.7474997 138.8019988 122.3600012   5.5274997 139.7029988
 121.8120012   5.5404997 138.2919988 122.4578504   5.6894586 138.8563431
 125.3110012   4.8744997 137.8769988 124.3640012   4.9064997 138.0099988
 125.6240012   4.2494997 138.5309988 125.2236707   4.7943998 137.9836060
 126.9450012   3.5084997 139.8829988 126.8490012   2.5564997 139.8769988
 126.6240012   3.7774997 140.7429988 126.8884070   3.4144035 139.9985441
 116.7720012   4.7184997 138.9299988 116.9840012   4.0114997 138.3199988
 116.6610012   4.2804997 139.7739988 116.7859721   4.5627084 138.9606843
 121.5530012   0.7194997 137.9089988 122.2650012   0.0794997 137.8949988
 121.4520012   0.9864997 136.9959988 121.6368066   0.6680079 137.7835677
 121.9070012   2.4024997 139.9629988 121.7750012   1.9264997 139.1429988
 121.3080012   3.1464997 139.9079988 121.8079071   2.4379618 139.8432886
 121.4530012  19.2854997 123.1389988 122.3860012  19.4434997 123.2829988
 121.1890012  19.9604997 122.5149988 121.5449888  19.3984510 123.0742842
 115.0220012  13.9214997 122.6219988 115.9360012  14.0004997 122.8959988
 115.0290012  13.2344997 121.9559988 115.1481131  13.8393961 122.5694393
 113.6710012  19.3144997 127.6999988 113.0240012  18.8524997 127.1669988
 114.0250012  18.6424997 128.2819988 113.6303849  19.1604723 127.7057959
 114.5410012  17.3954997 129.5039988 114.2060012  16.5154997 129.6759988
 114.7630012  17.7404997 130.3689988 114.5251783  17.3217500 129.6444208
 132.0890012  18.2044997 132.4849988 132.0680012  18.3894997 133.4239988
 132.7800012  18.7734997 132.1439988 132.1794618  18.3066606 132.5673864
 131.6530012  17.7724997 135.4069988 131.1650012  17.0364997 135.0349988
 132.2020012  17.3784997 136.0849988 131.6604820  17.6185889 135.4477813
 130.1030012  13.5614997 140.0449988 129.2370012  13.4564997 140.4389988
 130.4800012  14.3204997 140.4909988 130.0353308  13.6496900 140.1592393
 131.4040012  11.8184997 125.5589988 132.2540012  12.2394997 125.6859988
 131.4100012  11.0784997 126.1659988 131.5211372  11.7760803 125.6584344
 131.7990012   9.8714997 127.3819988 131.0720012   9.3924997 127.7799988
 132.3800012  10.0774997 128.1149988 131.7780473   9.8338103 127.5354528
 131.5580012  12.6564997 132.3299988 132.3910012  12.2784997 132.0499988
 131.6700012  13.5994997 132.2109988 131.6872647  12.7322218 132.2755487
 130.0440012  15.5344997 134.6369988 129.3970012  15.8594997 135.2629988
 129.5270012  15.0944997 133.9629988 129.8854029  15.5195004 134.6315827
 132.0670012   9.7724997 123.7739988 131.5450012  10.1294997 123.0549988
 132.0340012  10.4474997 124.4519988 131.9911634   9.9125413 123.7673145
 130.4160012   7.0124997 122.3239988 130.5120012   7.6794997 121.6439988
 130.2760012   6.1964997 121.8429988 130.4102272   6.9935655 122.1658347
 129.5850012   8.3924997 127.9449988 129.4350012   7.4474997 127.9249988
 129.2320012   8.6734997 128.7889988 129.5167448   8.3011481 128.0563705
 114.6210012  10.4704997 131.9559988 114.8050012  10.3884997 131.0199988
 115.4700012  10.3464997 132.3789988 114.7610151  10.4425073 131.8851451
 130.4420012  10.3624997 137.5839988 131.0250012   9.6284997 137.7759988
 131.0060012  11.1344997 137.6309988 130.5979769  10.3664227 137.6166159
 131.9380012   8.2654997 138.2689988 131.0750012   7.8864997 138.1029988
 132.5430012   7.5264997 138.1939988 131.9016119   8.1138268 138.2361528
 129.6630012   4.4204997 121.4419988 130.2740012   4.0494997 122.0789988
 128.8270012   3.9994997 121.6379988 129.6335032   4.3127554 121.5557035
 129.2960012   5.9754997 126.4079988 129.5760012   5.0684997 126.5319988
 130.0550012   6.4094997 126.0189988 129.4369277   5.9100942 126.3723682
 129.9080012   6.5564997 131.8439988 130.8410012   6.7684997 131.8089988
 129.6730012   6.6584997 132.7659988 130.0039244   6.5993100 131.9638892
 129.9370012   7.2934997 134.6199988 129.0940012   7.5614997 134.9859988
 130.3790012   8.1154997 134.4089988 129.8814158   7.4413291 134.6415491
 114.2180012   5.7414997 138.0969988 115.1380012   5.6194997 138.3329988
 113.7690012   4.9914997 138.4859988 114.2831580   5.6233727 138.1819006
 132.2200012   1.2734997 139.9729988 132.5700012   0.6194997 139.3679988
 132.3670012   2.1104997 139.5329988 132.2877887   1.2971548 139.8306858
 129.9090012   3.2384997 126.4559988 130.0920012   2.7894997 127.2819988
 129.3100012   2.6534997 125.9929988 129.8530202   3.0979975 126.5063275
 115.4390012   4.0534997 130.9879988 115.8850012   3.2614997 131.2899988
 115.9060012   4.7694997 131.4179988 115.5630831   4.0420685 131.0874006
 113.7430012   7.0524997 132.0569988 114.2350012   6.8314997 131.2659988
 114.1060012   7.8934997 132.3379988 113.8593126   7.1358357 131.9867531
 131.7400012   3.3824997 138.3219988 130.8220012   3.6534997 138.2869988
 131.8630012   2.8474997 137.5379988 131.6309729   3.3472508 138.2111923
 131.7760012   3.3054997 122.9839988 132.1880012   2.5844997 122.5089988
 132.4580012   3.9754997 123.0429988 131.9245885   3.2972368 122.9268915
 114.0570012   3.3104997 126.1109988 113.1320012   3.5194997 125.9819988
 114.5110012   3.7944997 125.4209988 113.9917292   3.4045343 126.0000720
 128.8280012  18.2944997 128.0569988 129.4800012  17.9474997 127.4489988
 129.3380012  18.7834997 128.7029988 128.9862637  18.3130597 128.0610236
 114.0210012   2.0484997 134.4549988 113.3560012   1.8024997 135.0989988
 113.5780012   2.6704997 133.8779988 113.8701318   2.0989410 134.4650898
 116.2130012  15.2234997 138.5999988 115.3920012  15.3984997 138.1389988
 115.9600012  15.1504997 139.5199988 116.0665585  15.2375544 138.6613561
 119.1670012  16.1984997 134.8579988 118.7420012  17.0074997 134.5759988
 120.0710012  16.2834997 134.5559988 119.2309975  16.3209300 134.7784816
 123.4780012  17.5974997 137.8179988 123.6630012  17.2634997 138.6959988
 124.3240012  17.9064997 137.4959988 123.6177539  17.5936047 137.8945605
 125.8230012  18.8834997 137.0619988 126.5000012  18.2504997 136.8219988
 126.1450012  19.2844997 137.8689988 125.9591637  18.8511154 137.1382793
 130.7400012   1.4724997 136.1409988 129.9280012   1.7974997 135.7539988
 130.9730012   0.7124997 135.6079988 130.6602203   1.4142758 136.0158880
 116.5690012  19.4544997 134.9059988 115.8480012  19.8944997 134.4549988
 116.2030012  19.2034997 135.7539988 116.4209651  19.4807242 134.9589640
 119.0360012  19.0544997 133.9359988 118.1710012  19.1264997 134.3399988
 118.9810012  19.6014997 133.1519988 118.9102085  19.1382685 133.8853362
 123.7460012  18.9424997 133.1109988 123.2900012  19.4714997 132.4569988
 123.9090012  19.5454997 133.8359988 123.7056068  19.0964607 133.1194838
 126.0740012  17.8204997 134.0559988 125.1690012  17.9854997 133.7899988
 126.5030012  18.6734997 133.9909988 126.0081324  17.9584339 134.0107976
 128.6780012  19.3904997 134.3509988 128.4960012  20.3064997 134.1409988
 128.8550012  18.9804997 133.5049988 128.6770210  19.4604822 134.2077885
 115.9830012  18.0774997 131.8159988 115.9650012  17.6524997 132.6729988
 116.7880012  17.7594997 131.4069988 116.0893529  17.9763013 131.8780946
 118.1250012  16.7874997 130.4709988 117.9060012  15.8714997 130.6409988
 118.9490012  16.9274997 130.9369988 118.2064420  16.6810520 130.5572774
 120.6620012  17.2574997 131.3199988 120.8750012  16.3694997 131.0329988
 120.7260012  17.2234997 132.2739988 120.6998232  17.1313102 131.4097397
 124.1700012   2.9214997 130.4639988 123.4960012   2.2924997 130.7199988
 124.7340012   2.4374997 129.8609988 124.1539230   2.7698744 130.4175340
 129.3130012   1.0294997 130.5769988 129.9170012   1.5764997 130.0749988
 128.4430012   1.3484997 130.3359988 129.2781208   1.1475137 130.4756886
 131.0400012   2.1674997 128.9099988 131.6520012   1.6534997 128.3829988
 131.4220012   3.0454997 128.9329988 131.1753371   2.2157866 128.8410041
 116.4970012   1.5554997 128.2859988 115.7200012   1.3214997 127.7789988
 117.0270012   0.7584997 128.2949988 116.4622330   1.4156988 128.2177742
 115.3330012   1.3534997 124.0899988 115.7720012   1.9644997 123.4979988
 114.7000012   1.8914997 124.5639988 115.3074514   1.5099257 124.0730930
 121.0760012   1.4824997 128.0999988 121.9510012   1.8704997 128.0699988
 120.9400012   1.2674997 129.0219988 121.1773695   1.5065184 128.2206440
 126.6330012   1.5124997 129.7489988 126.7090012   1.6074997 128.7989988
 126.3580012   0.6044997 129.8779988 126.6062321   1.4027867 129.6365079
 127.9860012   1.5384997 125.4409988 127.2840012   2.1534997 125.2309988
 127.5420012   0.7004997 125.5719988 127.8296450   1.5095639 125.4299000
 115.2340012  17.3014997 124.9869988 114.5490012  17.2634997 124.3199988
 115.2380012  18.2144997 125.2759988 115.1406998  17.4196733 124.9346771
 117.1940012   3.2694997 122.5319988 117.6860012   2.6394997 122.0049988
 117.8180012   3.5654997 123.1949988 117.3455688   3.2233804 122.5495482
 122.2200012   3.5624997 124.9889988 122.3980012   2.9164997 125.6719988
 122.1670012   4.3964997 125.4559988 122.2371999   3.5868009 125.1455917
 124.0990012  18.5114997 123.3849988 124.9650012  18.8774997 123.2069988
 123.8520012  18.0714997 122.5709988 124.1842392  18.5021756 123.2506289
 130.8080012  18.0744997 126.0639988 130.6130012  17.3264997 125.4989988
 130.7690012  18.8324997 125.4809988 130.7760380  18.0746099 125.9078384
 116.4550012   2.0694997 137.8039988 116.0890012   1.3044997 138.2459988
 117.3680012   2.0984997 138.0899988 116.5282736   1.9685640 137.9032502
 118.4280012   1.4204997 139.3399988 119.3260012   1.1464997 139.1549988
 118.0410012   0.6774997 139.8039988 118.4986612   1.2825914 139.3773643
 117.0520012  18.2214997 122.0129988 116.7850012  18.5084997 122.8859988
 117.8240012  17.6754997 122.1649988 117.1197488  18.1870294 122.1531050
 126.8490012   0.7524997 139.5219988 126.9260012   0.3264997 140.3759988
 127.7430012   0.7664997 139.1789988 126.9803428   0.6960879 139.5925310
 130.0250012  16.8254997 138.2139988 129.2430012  16.6394997 137.6939988
 129.9530012  17.7544997 138.4319988 129.9082274  16.9256643 138.1723018
 144.4310012  10.7114997 128.2449988 144.5200012  11.6554997 128.1129988
 143.7930012  10.4364997 127.5869988 144.3569081  10.8034830 128.1379614
 143.3640012   9.9664997 131.6639988 143.3260012   9.3204997 132.3689988
 143.0420012   9.5004997 130.8929988 143.3152333   9.8149408 131.6562978
 135.7330012   9.5814997 133.2569988 135.7740012   8.9554997 133.9799988
 136.4360012  10.2054997 133.4389988 135.8336363   9.5801196 133.3806044
 136.6560012  14.0314997 131.7919988 136.2870012  13.2294997 131.4219988
 137.5970012  13.8624997 131.8379988 136.7327289  13.8990153 131.7476316
 133.2660012   7.6914997 127.1849988 132.8190012   8.5374997 127.1659988
 132.7050012   7.1114997 126.6689988 133.1289900   7.7289916 127.1126801
 133.9770012   9.8534997 129.3099988 134.1900012   9.0834997 129.8379988
 134.7150012   9.9424997 128.7069988 134.1059044   9.7601968 129.3007123
 144.1820012  18.0104997 130.1769988 144.8020012  17.3334997 129.9039988
 143.9740012  17.7924997 131.0859988 144.2386726  17.8884800 130.2624812
 141.7540012  12.3994997 132.0699988 142.0580012  11.7134997 131.4749988
 142.4750012  12.5174997 132.6879988 141.8930671  12.3216304 132.0721816
 144.8950012   6.7934997 132.3969988 145.0370012   5.8474997 132.4179988
 144.7880012   7.0004997 131.4689988 144.8999919   6.6918246 132.2743408
 138.0490012   4.8944997 129.6699988 138.0930012   5.7544997 129.2509988
 137.5920012   4.3424997 129.0359988 137.9932240   4.9374422 129.5269864
 134.6700012   7.2914997 130.4319988 135.3230012   6.7414997 130.8639988
 134.6940012   7.0174997 129.5149988 134.7626683   7.1791466 130.3672123
 139.8260012   8.8414997 129.6469988 140.4420012   8.3154997 130.1569988
 139.2400012   8.2014997 129.2439988 139.8310810   8.6829208 129.6623173
 136.8600012   3.8124997 133.7439988 136.6410012   4.3424997 132.9779988
 136.1920012   4.0394997 134.3909988 136.7397600   3.9156906 133.7266379
 144.2290012  13.3124997 127.2879988 143.9330012  12.9904997 126.4369988
 143.9040012  14.2124997 127.3289988 144.1446371  13.3900215 127.1771801
 139.4290012  11.4884997 134.0309988 138.6890012  12.0864997 134.1349988
 140.1430012  12.0424997 133.7159988 139.4242237  11.6452831 134.0026465
 136.4530012   5.7044997 131.6959988 137.0670012   6.3374997 132.0689988
 136.9650012   5.2324997 131.0399988 136.6061981   5.7272267 131.6582908
 137.8360012  13.4524997 134.8179988 137.8310012  14.3324997 134.4399988
 136.9830012  13.3694997 135.2429988 137.7199464  13.5616117 134.8237907
 133.9570012  13.1234997 125.5999988 133.6850012  13.3524997 124.7119988
 134.0030012  13.9614997 126.0609988 133.9259482  13.2681318 125.5406273
 140.8860012   1.1184997 131.1959988 140.7690012   0.1694997 131.1419988
 140.0310012   1.4504997 131.4699988 140.7544212   1.0335571 131.2256497
 143.1530012   9.9554997 125.6969988 142.4410012  10.4904997 125.3449988
 143.8440012  10.0114997 125.0369988 143.1490132  10.0362543 125.5596289
 143.2060012   8.4134997 122.7359988 143.9070012   8.4354997 123.3869988
 143.5090012   7.7854997 122.0789988 143.3428133   8.3317070 122.7363369
 138.2040012  10.7954997 128.5309988 137.8730012  10.4254997 127.7129988
 138.7920012  10.1254997 128.8779988 138.2381873  10.6541156 128.4658102
 139.5700012  14.2234997 131.2119988 139.4760012  13.6454997 130.4559988
 140.3000012  13.8524997 131.7089988 139.6557387  14.0941663 131.1755342
 138.5700012   9.5644997 132.1649988 139.1360012   9.6854997 131.4019988
 138.8890012  10.2014997 132.8029988 138.6905474   9.6672219 132.1469862
 144.8790012  15.0674997 132.8989988 144.6390012  15.7294997 133.5469988
 144.6810012  14.2334997 133.3239988 144.8193808  15.0453134 133.0451524
 139.4500012  13.9634997 136.8819988 139.1390012  14.7454997 137.3369988
 138.8000012  13.8104997 136.1959988 139.3195558  14.0499105 136.8515871
 136.3700012  10.1614997 136.1099988 136.4410012  10.8124997 136.8089988
 135.4800012  10.2644997 135.7749988 136.2593005  10.2645427 136.1603495
 143.1560012  16.0644997 127.7689988 143.6300012  16.3594997 128.5459988
 142.5930012  16.8024997 127.5359988 143.1448184  16.2047247 127.8439628
 137.6900012  16.0354997 137.6449988 137.6970012  15.8994997 136.6979988
 136.7740012  15.9174997 137.8969988 137.5671714  16.0009430 137.5494666
 137.1940012   9.8654997 126.1199988 136.9020012  10.6334997 125.6299988
 136.5200012   9.2054997 125.9579988 137.0628111   9.8815587 126.0308978
 133.2870012  12.2284997 134.9349988 132.7860012  12.2004997 134.1199988
 133.2920012  11.3224997 135.2449988 133.2190944  12.1022396 134.8653226
 133.0370012  15.0084997 131.8189988 133.9830012  14.8644997 131.7999988
 132.9250012  15.7924997 132.3559988 133.1512727  15.0948046 131.8890072
 142.2140012  15.2484997 136.3779988 142.3010012  16.0744997 136.8529988
 141.3500012  14.9184997 136.6269988 142.1091964  15.3169878 136.4766549
 142.6280012  19.0204997 126.1839988 142.5530012  18.8994997 125.2369988
 142.6610012  19.9704997 126.3019988 142.6222068  19.1322646 126.0704967
 136.2810012  17.8094997 127.9649988 136.4340012  17.4614997 128.8429988
 135.4310012  17.4534997 127.7099988 136.1869166  17.7136216 128.0508079
 135.5360012  13.5514997 135.9789988 135.7520012  13.1904997 136.8379988
 134.6810012  13.1774997 135.7689988 135.4499292  13.4514111 136.0683386
 138.1550012   2.0214997 131.9739988 137.2930012   1.9344997 131.5659988
 138.1320012   2.8774997 132.4019988 138.0340409   2.1252883 131.9760589
 142.8180012   1.7434997 135.3489988 143.2380012   1.3284997 136.1019988
 141.8850012   1.5654997 135.4659988 142.7493644   1.6625900 135.4679539
 142.4790012   4.2364997 122.6339988 142.2260012   4.2554997 123.5569988
 142.2230012   3.3644997 122.3319988 142.4097481   4.1212558 122.7196175
 138.2460012   6.9874997 133.0689988 137.6040012   6.9464997 133.7779988
 138.2830012   7.9134997 132.8309988 138.1630664   7.1071430 133.1339219
 138.2430012   7.2084997 127.9809988 137.3500012   6.8674997 127.9219988
 138.6930012   6.8314997 127.2249988 138.1818130   7.1109631 127.8707702
 143.7780012   7.6244997 126.7979988 143.3690012   8.4394997 126.5069988
 144.4990012   7.4844997 126.1839988 143.8194537   7.7172018 126.6751342
 142.8800012   7.7994997 138.2859988 142.3180012   7.0954997 138.6069988
 143.7070012   7.6794997 138.7539988 142.9147095   7.6867883 138.3932330
 144.7830012   7.0704997 129.6119988 144.5880012   7.6754997 128.8969988
 144.9640012   6.2364997 129.1779988 144.7807614   7.0406300 129.4554405
 135.9960012   7.3074997 134.9359988 135.9580012   7.7074997 135.8049988
 135.5050012   6.4904997 135.0269988 135.9244684   7.2518069 135.0671059
 139.3620012   4.6814997 121.7349988 138.9310012   4.2364997 122.4649988
 138.6440012   5.0534997 121.2229988 139.2059438   4.6708940 121.7656799
 132.6040012   4.4234997 128.7869988 133.2350012   4.3944997 129.5059988
 133.0530012   3.9984997 128.0559988 132.7510918   4.3620836 128.7866441
 133.8780012   5.1694997 124.2109988 134.3520012   5.7604997 123.6259988
 133.1610012   5.7004997 124.5579988 133.8459341   5.3220867 124.1778836
 144.0470012   8.7084997 134.2829988 144.3700012   8.0774997 133.6399988
 143.6070012   8.1734997 134.9439988 144.0317484   8.5498387 134.2843198
 140.8240012   4.6354997 129.0669988 139.9130012   4.6924997 129.3559988
 141.3300012   4.5754997 129.8779988 140.7676899   4.6351941 129.2161184
 135.6530012   6.2644997 127.8939988 134.7630012   6.3644997 127.5539988
 135.9490012   5.4224997 127.5479988 135.5712823   6.1643545 127.8007213
 139.3060012   6.2644997 125.5509988 140.2370012   6.3934997 125.7289988
 139.0910012   6.9344997 124.9009988 139.4044247   6.3726565 125.4875747
 137.9800012   7.4594997 123.1169988 137.4370012   7.0794997 122.4259988
 138.8130012   7.6534997 122.6889988 138.0183631   7.4337125 122.9644501
 136.1150012  12.0164997 138.2159988 136.8470012  12.2704997 138.7779988
 135.3350012  12.2204997 138.7319988 136.1097073  12.0788160 138.3626151
 142.1440012   7.4234997 130.9539988 142.7090012   6.8764997 130.4069988
 141.9970012   6.9014997 131.7429988 142.2013380   7.2782259 130.9858695
 137.1460012   3.5594997 127.3729988 136.8290012   2.6574997 127.3369988
 137.9280012   3.5614997 126.8199988 137.2082408   3.4362474 127.2933569
 140.7710012   5.8114997 133.3679988 139.9350012   6.2654997 133.4789988
 141.2950012   6.0874997 134.1199988 140.7275416   5.9108660 133.4848119
 141.3150012  12.0244997 125.0529988 140.5700012  11.5174997 124.7309988
 141.1810012  12.0734997 125.9999988 141.1948776  11.9616940 125.1368647
 142.8340012  12.2084997 136.2899988 142.4890012  11.8274997 137.0969988
 142.6340012  13.1424997 136.3609988 142.7597527  12.2825135 136.4100689
 136.4400012  11.3194997 130.8229988 137.1850012  11.3174997 130.2219988
 136.5180012  10.4964997 131.3039988 136.5524995  11.2078887 130.8058282
 143.4410012  13.4834997 124.0789988 143.1450012  14.3094997 124.4599988
 142.7380012  12.8634997 124.2749988 143.3054914  13.5128199 124.1576443
 133.4480012   9.7804997 136.1379988 133.6710012   9.3624997 136.9699988
 132.8460012   9.1674997 135.7149988 133.3971759   9.6404668 136.1947022
 140.4640012   9.2974997 138.3509988 140.1680012   9.1314997 137.4559988
 141.3960012   9.0774997 138.3399988 140.5494166   9.2450640 138.2270536
 138.8150012  14.8374997 128.2269988 139.3420012  15.6104997 128.0269988
 137.9350012  15.0624997 127.9249988 138.7682031  14.9737545 128.1587912
 134.5700012   9.6994997 122.8139988 135.1860012  10.3264997 123.1939988
 133.7080012  10.0154997 123.0859988 134.5377698   9.8279430 122.9027183
 140.2420012  12.5004997 127.8029988 140.0010012  13.4254997 127.8449988
 139.5010012  12.0414997 128.1999988 140.1089225  12.5650933 127.8623742
 140.7570012  16.6494997 134.1189988 141.1190012  17.5044997 133.8849988
 141.2880012  16.3574997 134.8589988 140.8784473  16.7271060 134.1870855
 138.9250012  17.5224997 127.3489988 137.9750012  17.6274997 127.3999988
 139.2770012  18.3424997 127.6929988 138.8424195  17.6478800 127.4025502
 144.3010012  12.7484997 133.8189988 143.8750012  12.5214997 134.6459988
 144.8810012  12.0104997 133.6369988 144.3211868  12.6175299 133.9075830
 135.0820012   4.5334997 135.6959988 134.1890012   4.8724997 135.6279988
 134.9830012   3.6784997 136.1139988 134.9464164   4.4642588 135.7432235
 134.7330012  16.3384997 134.1309988 134.9500012  15.4064997 134.0999988
 134.9790012  16.6124997 135.0139988 134.7959549  16.2480636 134.2461763
 140.5950012  14.7894997 121.3399988 140.8340012  14.0414997 120.7929988
 140.3260012  14.4014997 122.1729988 140.5913675  14.6346638 121.3776865
 139.5320012  14.3594997 123.7959988 139.6780012  13.8394997 124.5859988
 139.5290012  15.2664997 124.1029988 139.5515792  14.4108842 123.9456117
 135.9850012  11.6124997 124.3069988 135.2990012  11.9644997 124.8739988
 136.5070012  12.3754997 124.0599988 135.9616852  11.7638578 124.3512118
 143.8160012   4.2744997 134.5859988 144.5150012   4.3484997 135.2359988
 143.4350012   3.4104997 134.7399988 143.8601767   4.1677624 134.6958322
 144.6010012   3.9264997 125.6829988 144.8210012   4.3984997 124.8799988
 145.1590012   4.3214997 126.3529988 144.7064968   4.0444285 125.6637331
 142.2690012  16.0574997 124.5459988 141.4530012  16.5544997 124.5979988
 142.7990012  16.5324997 123.9059988 142.2289161  16.1897722 124.4665956
 141.8010012   5.6544997 126.5179988 142.6130012   6.1594997 126.5639988
 141.5560012   5.5094997 127.4319988 141.8790520   5.7040375 126.6478517
 142.3360012   6.6404997 135.7019988 142.4550012   7.2144997 136.4599988
 142.9920012   5.9524997 135.8169988 142.4409025   6.6259858 135.8211321
 142.6840012   2.7354997 127.4559988 142.3380012   3.3534997 128.0999988
 143.3430012   3.2364997 126.9739988 142.7256968   2.8876278 127.4789383
 139.6080012  17.1014997 124.5269988 139.7680012  17.9004997 124.0269988
 139.4100012  17.4074997 125.4119988 139.6031637  17.2524020 124.5781144
 138.3420012   3.7984997 124.1429988 138.2590012   4.6874997 124.4899988
 139.2320012   3.5334997 124.3749988 138.4509469   3.8841430 124.2217626
 136.6010012  14.2264997 123.2039988 137.1930012  14.9254997 123.4799988
 137.0600012  13.7934997 122.4839988 136.7441142  14.2637049 123.1444830
 134.9170012   6.8904997 122.3199988 134.8720012   7.8294997 122.4979988
 134.0290012   6.6544997 122.0499988 134.7908574   6.9871892 122.3078912
 135.7250012   1.6724997 130.9929988 135.4960012   1.7314997 130.0649988
 135.2820012   0.8804997 131.2989988 135.6338530   1.5735753 130.9074786
 134.6550012  15.6124997 127.1529988 133.8230012  16.0854997 127.1799988
 135.2010012  16.1224997 126.5549988 134.6150352  15.7461332 127.0758463
 133.9430012  18.2254997 138.4829988 134.4840012  18.0084997 139.2429988
 133.4620012  17.4194997 138.2929988 133.9519951  18.0869270 138.5612576
 138.5410012  17.1444997 140.1029988 139.3080012  16.6854997 140.4439988
 138.5190012  16.9184997 139.1739988 138.6431275  17.0510186 140.0240101
 142.6330012  16.6524997 121.4789988 141.9890012  16.0214997 121.7999988
 143.3950012  16.1214997 121.2469988 142.6478077  16.4942920 121.4916011
 133.8500012  12.0354997 139.4369988 133.9940012  11.1334997 139.1509988
 133.0780012  12.3214997 138.9499988 133.7652753  11.9506816 139.3319505
 138.1920012  12.3794997 121.5699988 138.2560012  11.5854997 122.1009988
 138.8450012  12.2604997 120.8799988 138.2890241  12.2547148 121.5494317
 140.5060012  12.0054997 138.8699988 140.1770012  12.2764997 138.0129988
 140.6580012  11.0644997 138.7829988 140.4814809  11.9153862 138.7408244
 143.5440012  13.4264997 121.3059988 143.2750012  13.6064997 122.2069988
 143.3380012  12.5004997 121.1739988 143.4793427  13.3260261 121.4115073
 134.6830012   9.2354997 138.8569988 135.0910012   8.3784997 138.7359988
 134.4230012   9.2504997 139.7779988 134.7037568   9.1200807 138.9649588
 139.3410012  10.3514997 123.8759988 138.8810012   9.8674997 124.5619988
 139.5960012   9.6834997 123.2399988 139.3124902  10.1948731 123.8839334
 138.6300012   8.2444997 136.2319988 138.0120012   8.9194997 136.5119988
 138.9740012   8.5654997 135.3979988 138.5919132   8.3802411 136.1576262
 140.4120012   8.5944997 122.1379988 140.2320012   8.4404997 121.2109988
 141.3620012   8.7024997 122.1829988 140.5157776   8.5880175 122.0171843
 143.6500012  10.7164997 139.5089988 144.6030012  10.7994997 139.4819988
 143.4890012  10.0044997 140.1289988 143.7586426  10.6316746 139.5890579
 138.9690012   5.5994997 137.3139988 139.1190012   4.8704997 136.7119988
 138.9720012   6.3764997 136.7549988 138.9899302   5.6047851 137.1560692
 139.3820012   3.9694997 134.8069988 139.9180012   4.4204997 134.1549988
 138.5300012   3.8614997 134.3839988 139.3402178   4.0166390 134.6605756
 140.9640012   9.4084997 135.0459988 141.7140012   9.2524997 134.4729988
 140.6250012  10.2604997 134.7709988 141.0208921   9.5022968 134.9303561
 137.4480012   6.7974997 139.2259988 136.6810012   6.2654997 139.0149988
 138.1270012   6.4874997 138.6259988 137.4347877   6.6828300 139.1160716
 140.1880012   1.4254997 135.2379988 140.0890012   2.3724997 135.1329988
 139.4450012   1.0534997 134.7619988 140.0741184   1.5045863 135.1593621
 141.4520012   5.7474997 138.8019988 141.2160012   5.5274997 139.7029988
 140.6680012   5.5404997 138.2919988 141.3138504   5.6894586 138.8563431
 144.1670012   4.8744997 137.8769988 143.2200012   4.9064997 138.0099988
 144.4800012   4.2494997 138.5309988 144.0796707   4.7943998 137.9836060
 135.6280012   4.7184997 138.9299988 135.8400012   4.0114997 138.3199988
 135.5170012   4.2804997 139.7739988 135.6419721   4.5627084 138.9606843
 140.4090012   0.7194997 137.9089988 141.1210012   0.0794997 137.8949988
 140.3080012   0.9864997 136.9959988 140.4928066   0.6680079 137.7835677
 140.7630012   2.4024997 139.9629988 140.6310012   1.9264997 139.1429988
 140.1640012   3.1464997 139.9079988 140.6639071   2.4379618 139.8432886
 140.3090012  19.2854997 123.1389988 141.2420012  19.4434997 123.2829988
 140.0450012  19.9604997 122.5149988 140.4009888  19.3984510 123.0742842
 133.8780012  13.9214997 122.6219988 134.7920012  14.0004997 122.8959988
 133.8850012  13.2344997 121.9559988 134.0041131  13.8393961 122.5694393
 132.5270012  19.3144997 127.6999988 131.8800012  18.8524997 127.1669988
 132.8810012  18.6424997 128.2819988 132.4863849  19.1604723 127.7057959
 133.3970012  17.3954997 129.5039988 133.0620012  16.5154997 129.6759988
 133.6190012  17.7404997 130.3689988 133.3811783  17.3217500 129.6444208
 133.4770012  10.4704997 131.9559988 133.6610012  10.3884997 131.0199988
 134.3260012  10.3464997 132.3789988 133.6170151  10.4425073 131.8851451
 133.0740012   5.7414997 138.0969988 133.9940012   5.6194997 138.3329988
 132.6250012   4.9914997 138.4859988 133.1391580   5.6233727 138.1819006
 134.2950012   4.0534997 130.9879988 134.7410012   3.2614997 131.2899988
 134.7620012   4.7694997 131.4179988 134.4190831   4.0420685 131.0874006
 132.5990012   7.0524997 132.0569988 133.0910012   6.8314997 131.2659988
 132.9620012   7.8934997 132.3379988 132.7153126   7.1358357 131.9867531
 132.9130012   3.3104997 126.1109988 131.9880012   3.5194997 125.9819988
 133.3670012   3.7944997 125.4209988 132.8477292   3.4045343 126.0000720
 132.8770012   2.0484997 134.4549988 132.2120012   1.8024997 135.0989988
 132.4340012   2.6704997 133.8779988 132.7261318   2.0989410 134.4650898
 135.0690012  15.2234997 138.5999988 134.2480012  15.3984997 138.1389988
 134.8160012  15.1504997 139.5199988 134.9225585  15.2375544 138.6613561
 138.0230012  16.1984997 134.8579988 137.5980012  17.0074997 134.5759988
 138.9270012  16.2834997 134.5559988 138.0869975  16.3209300 134.7784816
 142.3340012  17.5974997 137.8179988 142.5190012  17.2634997 138.6959988
 143.1800012  17.9064997 137.4959988 142.4737539  17.5936047 137.8945605
 144.6790012  18.8834997 137.0619988 145.3560012  18.2504997 136.8219988
 145.0010012  19.2844997 137.8689988 144.8151637  18.8511154 137.1382793
 135.4250012  19.4544997 134.9059988 134.7040012  19.8944997 134.4549988
 135.0590012  19.2034997 135.7539988 135.2769651  19.4807242 134.9589640
 137.8920012  19.0544997 133.9359988 137.0270012  19.1264997 134.3399988
 137.8370012  19.6014997 133.1519988 137.7662085  19.1382685 133.8853362
 142.6020012  18.9424997 133.1109988 142.1460012  19.4714997 132.4569988
 142.7650012  19.5454997 133.8359988 142.5616068  19.0964607 133.1194838
 134.8390012  18.0774997 131.8159988 134.8210012  17.6524997 132.6729988
 135.6440012  17.7594997 131.4069988 134.9453529  17.9763013 131.8780946
 136.9810012  16.7874997 130.4709988 136.7620012  15.8714997 130.6409988
 137.8050012  16.9274997 130.9369988 137.0624420  16.6810520 130.5572774
 139.5180012  17.2574997 131.3199988 139.7310012  16.3694997 131.0329988
 139.5820012  17.2234997 132.2739988 139.5558232  17.1313102 131.4097397
 143.0260012   2.9214997 130.4639988 142.3520012   2.2924997 130.7199988
 143.5900012   2.4374997 129.8609988 143.0099230   2.7698744 130.4175340
 135.3530012   1.5554997 128.2859988 134.5760012   1.3214997 127.7789988
 135.8830012   0.7584997 128.2949988 135.3182330   1.4156988 128.2177742
 134.1890012   1.3534997 124.0899988 134.6280012   1.9644997 123.4979988
 133.5560012   1.8914997 124.5639988 134.1634514   1.5099257 124.0730930
 139.9320012   1.4824997 128.0999988 140.8070012   1.8704997 128.0699988
 139.7960012   1.2674997 129.0219988 140.0333695   1.5065184 128.2206440
 134.0900012  17.3014997 124.9869988 133.4050012  17.2634997 124.3199988
 134.0940012  18.2144997 125.2759988 133.9966998  17.4196733 124.9346771
 136.0500012   3.2694997 122.5319988 136.5420012   2.6394997 122.0049988
 136.6740012   3.5654997 123.1949988 136.2015688   3.2233804 122.5495482
 141.0760012   3.5624997 124.9889988 141.2540012   2.9164997 125.6719988
 141.0230012   4.3964997 125.4559988 141.0931999   3.5868009 125.1455917
 142.9550012  18.5114997 123.3849988 143.8210012  18.8774997 123.2069988
 142.7080012  18.0714997 122.5709988 143.0402392  18.5021756 123.2506289
 135.3110012   2.0694997 137.8039988 134.9450012   1.3044997 138.2459988
 136.2240012   2.0984997 138.0899988 135.3842736   1.9685640 137.9032502
 137.2840012   1.4204997 139.3399988 138.1820012   1.1464997 139.1549988
 136.8970012   0.6774997 139.8039988 137.3546612   1.2825914 139.3773643
 135.9080012  18.2214997 122.0129988 135.6410012  18.5084997 122.8859988
 136.6800012  17.6754997 122.1649988 135.9757488  18.1870294 122.1531050
  12.4390012  29.5674997 128.2449988  12.5280012  30.5114997 128.1129988
  11.8010012  29.2924997 127.5869988  12.3649081  29.6594830 128.1379614
  11.3720012  28.8224997 131.6639988  11.3340012  28.1764997 132.3689988
  11.0500012  28.3564997 130.8929988  11.3232333  28.6709408 131.6562978
   3.7410012  28.4374997 133.2569988   3.7820012  27.8114997 133.9799988
   4.4440012  29.0614997 133.4389988   3.8416363  28.4361196 133.3806044
  15.0780012  31.7614997 129.9649988  14.6380012  31.0414997 130.4159988
  15.0650012  32.4824997 130.5949988  15.0160226  31.7603731 130.1118494
   4.6640012  32.8874997 131.7919988   4.2950012  32.0854997 131.4219988
   5.6050012  32.7184997 131.8379988   4.7407289  32.7550153 131.7476316
   1.2740012  26.5474997 127.1849988   0.8270012  27.3934997 127.1659988
   0.7130012  25.9674997 126.6689988   1.1369900  26.5849916 127.1126801
   1.9850012  28.7094997 129.3099988   2.1980012  27.9394997 129.8379988
   2.7230012  28.7984997 128.7069988   2.1139044  28.6161968 129.3007123
  12.1900012  36.8664997 130.1769988  12.8100012  36.1894997 129.9039988
  11.9820012  36.6484997 131.0859988  12.2466726  36.7444800 130.2624812
   9.7620012  31.2554997 132.0699988  10.0660012  30.5694997 131.4749988
  10.4830012  31.3734997 132.6879988   9.9010671  31.1776304 132.0721816
  18.4250012  22.8564997 132.9309988  18.4740012  23.4664997 133.6659988
  18.8500012  23.3174997 132.2079988  18.4891746  23.0023796 132.9339175
  12.9030012  25.6494997 132.3969988  13.0450012  24.7034997 132.4179988
  12.7960012  25.8564997 131.4689988  12.9079919  25.5478246 132.2743408
   6.0570012  23.7504997 129.6699988   6.1010012  24.6104997 129.2509988
   5.6000012  23.1984997 129.0359988   6.0012240  23.7934422 129.5269864
  13.7800012  23.8814997 128.0709988  14.4260012  23.5524997 128.6949988
  14.2900012  24.3994997 127.4479988  13.9374299  23.9064450 128.0722731
   2.6780012  26.1474997 130.4319988   3.3310012  25.5974997 130.8639988
   2.7020012  25.8734997 129.5149988   2.7706683  26.0351466 130.3672123
   7.8340012  27.6974997 129.6469988   8.4500012  27.1714997 130.1569988
   7.2480012  27.0574997 129.2439988   7.8390810  27.5389208 129.6623173
  18.8160012  24.3344997 135.1659988  18.1280012  24.9924997 135.0709988
  18.8320012  24.1374997 136.1029988  18.7239540  24.3979819 135.2795990
   4.8680012  22.6684997 133.7439988   4.6490012  23.1984997 132.9779988
   4.2000012  22.8954997 134.3909988   4.7477600  22.7716906 133.7266379
  12.2370012  32.1684997 127.2879988  11.9410012  31.8464997 126.4369988
  11.9120012  33.0684997 127.3289988  12.1526371  32.2460215 127.1771801
   7.4370012  30.3444997 134.0309988   6.6970012  30.9424997 134.1349988
   8.1510012  30.8984997 133.7159988   7.4322237  30.5012831 134.0026465
  15.5440012  23.1724997 130.0509988  15.3280012  22.4064997 130.5839988
  16.1990012  23.6444997 130.5639988  15.6030632  23.1315889 130.1932861
   4.4610012  24.5604997 131.6959988   5.0750012  25.1934997 132.0689988
   4.9730012  24.0884997 131.0399988   4.6141981  24.5832267 131.6582908
   5.8440012  32.3084997 134.8179988   5.8390012  33.1884997 134.4399988
   4.9910012  32.2254997 135.2429988   5.7279464  32.4176117 134.8237907
   1.9650012  31.9794997 125.5999988   1.6930012  32.2084997 124.7119988
   2.0110012  32.8174997 126.0609988   1.9339482  32.1241318 125.5406273
  15.5900012  33.6014997 132.3129988  14.6490012  33.6594997 132.4749988
  15.8670012  34.5074997 132.1759988  15.4984679  33.7319443 132.3166815
  15.8910012  21.8874997 133.7309988  15.1550012  22.4984997 133.6929988
  16.5740012  22.3024997 133.2039988  15.8826541  22.0271374 133.6545832
   8.8940012  19.9744997 131.1959988   8.7770012  19.0254997 131.1419988
   8.0390012  20.3064997 131.4699988   8.7624212  19.8895571 131.2256497
  13.8420012  35.3824997 128.9379988  14.2680012  34.6754997 128.4529988
  14.1590012  36.1834997 128.5219988  13.9431683  35.3941017 128.8153680
  15.0020012  33.2834997 127.4469988  14.7440012  32.5934997 126.8359988
  15.0730012  32.8404997 128.2929988  14.9762856  33.1292124 127.4776885
  16.6880012  31.8494997 135.9239988  16.8280012  31.2584997 135.1849988
  16.8550012  32.7224997 135.5679988  16.7297411  31.8865428 135.7746894
  11.1610012  28.8114997 125.6969988  10.4490012  29.3464997 125.3449988
  11.8520012  28.8674997 125.0369988  11.1570132  28.8922543 125.5596289
  11.2140012  27.2694997 122.7359988  11.9150012  27.2914997 123.3869988
  11.5170012  26.6414997 122.0789988  11.3508133  27.1877070 122.7363369
  18.5300012  28.1894997 133.9899988  17.8770012  28.8844997 134.0799988
  18.9950012  28.3994997 133.1809988  18.5035274  28.3130643 133.8928462
  14.5660012  29.0214997 126.6489988  13.8340012  29.2494997 127.2219988
  15.0140012  28.3074997 127.1029988  14.5262725  28.9562145 126.7888816
  14.4640012  27.1954997 135.7159988  14.5440012  27.9584997 136.2879988
  13.8620012  27.4744997 135.0259988  14.3935756  27.3377134 135.7010589
   6.2120012  29.6514997 128.5309988   5.8810012  29.2814997 127.7129988
   6.8000012  28.9814997 128.8779988   6.2461873  29.5101156 128.4658102
   7.5780012  33.0794997 131.2119988   7.4840012  32.5014997 130.4559988
   8.3080012  32.7084997 131.7089988   7.6637387  32.9501663 131.1755342
   6.5780012  28.4204997 132.1649988   7.1440012  28.5414997 131.4019988
   6.8970012  29.0574997 132.8029988   6.6985474  28.5232219 132.1469862
  12.8870012  33.9234997 132.8989988  12.6470012  34.5854997 133.5469988
  12.6890012  33.0894997 133.3239988  12.8273808  33.9013134 133.0451524
   7.4580012  32.8194997 136.8819988   7.1470012  33.6014997 137.3369988
   6.8080012  32.6664997 136.1959988   7.3275558  32.9059105 136.8515871
  13.4370012  28.1834997 124.3339988  14.0170012  28.3334997 125.0809988
  13.8510012  28.6544997 123.6099988  13.5722997  28.2676578 124.3384058
   4.3780012  29.0174997 136.1099988   4.4490012  29.6684997 136.8089988
   3.4880012  29.1204997 135.7749988   4.2673005  29.1205427 136.1603495
  11.1640012  34.9204997 127.7689988  11.6380012  35.2154997 128.5459988
  10.6010012  35.6584997 127.5359988  11.1528184  35.0607247 127.8439628
   5.6980012  34.8914997 137.6449988   5.7050012  34.7554997 136.6979988
   4.7820012  34.7734997 137.8969988   5.5751714  34.8569430 137.5494666
  17.1360012  19.9334997 124.1469988  16.2360012  20.0724997 124.4419988
  17.3880012  20.7644997 123.7449988  17.0468702  20.0649074 124.1330205
   5.2020012  28.7214997 126.1199988   4.9100012  29.4894997 125.6299988
   4.5280012  28.0614997 125.9579988   5.0708111  28.7375587 126.0308978
  18.3250012  34.2994997 122.5229988  18.3990012  35.2384997 122.6939988
  19.2310012  33.9944997 122.4669988  18.4575100  34.3866722 122.5388119
   1.2950012  31.0844997 134.9349988   0.7940012  31.0564997 134.1199988
   1.3000012  30.1784997 135.2449988   1.2270944  30.9582396 134.8653226
   1.0450012  33.8644997 131.8189988   1.9910012  33.7204997 131.7999988
   0.9330012  34.6484997 132.3559988   1.1592727  33.9508046 131.8890072
  19.2430012  34.5304997 137.5019988  19.1940012  33.5754997 137.4649988
  18.4160012  34.7984997 137.9029988  19.1244940  34.4358998 137.5511375
  10.2220012  34.1044997 136.3779988  10.3090012  34.9304997 136.8529988
   9.3580012  33.7744997 136.6269988  10.1171964  34.1729878 136.4766549
  10.6360012  37.8764997 126.1839988  10.5610012  37.7554997 125.2369988
  10.6690012  38.8264997 126.3019988  10.6302068  37.9882646 126.0704967
   4.2890012  36.6654997 127.9649988   4.4420012  36.3174997 128.8429988
   3.4390012  36.3094997 127.7099988   4.1949166  36.5696216 128.0508079
  13.7380012  37.0304997 123.1859988  14.1130012  36.2864997 122.7149988
  13.7420012  36.7604997 124.1049988  13.7899125  36.8920986 123.2456483
  13.4070012  36.9564997 125.9349988  12.4710012  37.0564997 126.1139988
  13.6870012  36.2474997 126.5139988  13.3169553  36.8743406 126.0377087
  16.3950012  26.0234997 137.9819988  15.9880012  26.5044997 137.2609988
  16.4360012  25.1184997 137.6739988  16.3448437  25.9669374 137.8416683
   3.5440012  32.4074997 135.9789988   3.7600012  32.0464997 136.8379988
   2.6890012  32.0334997 135.7689988   3.4579292  32.3074111 136.0683386
   6.1630012  20.8774997 131.9739988   5.3010012  20.7904997 131.5659988
   6.1400012  21.7334997 132.4019988   6.0420409  20.9812883 131.9760589
  10.8260012  20.5994997 135.3489988  11.2460012  20.1844997 136.1019988
   9.8930012  20.4214997 135.4659988  10.7573644  20.5185900 135.4679539
  14.1520012  24.3554997 136.2019988  13.6380012  24.2294997 136.9999988
  13.9970012  25.2674997 135.9579988  14.0606852  24.4616132 136.2782158
  14.9150012  29.2164997 121.9639988  14.9570012  28.9934997 121.0339988
  15.7640012  29.6154997 122.1529988  15.0355280  29.2399438 121.8623554
  10.4870012  23.0924997 122.6339988  10.2340012  23.1114997 123.5569988
  10.2310012  22.2204997 122.3319988  10.4177481  22.9772558 122.7196175
   6.2540012  25.8434997 133.0689988   5.6120012  25.8024997 133.7779988
   6.2910012  26.7694997 132.8309988   6.1710664  25.9631430 133.1339219
   6.2510012  26.0644997 127.9809988   5.3580012  25.7234997 127.9219988
   6.7010012  25.6874997 127.2249988   6.1898130  25.9669631 127.8707702
  11.7860012  26.4804997 126.7979988  11.3770012  27.2954997 126.5069988
  12.5070012  26.3404997 126.1839988  11.8274537  26.5732018 126.6751342
  10.8880012  26.6554997 138.2859988  10.3260012  25.9514997 138.6069988
  11.7150012  26.5354997 138.7539988  10.9227095  26.5427883 138.3932330
  12.7910012  25.9264997 129.6119988  12.5960012  26.5314997 128.8969988
  12.9720012  25.0924997 129.1779988  12.7887614  25.8966300 129.4554405
   4.0040012  26.1634997 134.9359988   3.9660012  26.5634997 135.8049988
   3.5130012  25.3464997 135.0269988   3.9324684  26.1078069 135.0671059
   7.3700012  23.5374997 121.7349988   6.9390012  23.0924997 122.4649988
   6.6520012  23.9094997 121.2229988   7.2139438  23.5268940 121.7656799
   0.6120012  23.2794997 128.7869988   1.2430012  23.2504997 129.5059988
   1.0610012  22.8544997 128.0559988   0.7590918  23.2180836 128.7866441
   1.8860012  24.0254997 124.2109988   2.3600012  24.6164997 123.6259988
   1.1690012  24.5564997 124.5579988   1.8539341  24.1780867 124.1778836
  12.0550012  27.5644997 134.2829988  12.3780012  26.9334997 133.6399988
  11.6150012  27.0294997 134.9439988  12.0397484  27.4058387 134.2843198
   8.8320012  23.4914997 129.0669988   7.9210012  23.5484997 129.3559988
   9.3380012  23.4314997 129.8779988   8.7756899  23.4911941 129.2161184
   3.6610012  25.1204997 127.8939988   2.7710012  25.2204997 127.5539988
   3.9570012  24.2784997 127.5479988   3.5792823  25.0203545 127.8007213
   7.3140012  25.1204997 125.5509988   8.2450012  25.2494997 125.7289988
   7.0990012  25.7904997 124.9009988   7.4124247  25.2286565 125.4875747
  13.2370012  22.7264997 132.3319988  12.5610012  22.8574997 132.9959988
  12.7520012  22.5714997 131.5209988  13.0787146  22.7235157 132.3134469
   5.9880012  26.3154997 123.1169988   5.4450012  25.9354997 122.4259988
   6.8210012  26.5094997 122.6889988   6.0263631  26.2897125 122.9644501
  16.5250012  38.3984997 138.6079988  16.7250012  38.8224997 137.7739988
  17.1800012  38.7414997 139.2149988  16.6410073  38.5029857 138.5758592
   4.1230012  30.8724997 138.2159988   4.8550012  31.1264997 138.7779988
   3.3430012  31.0764997 138.7319988   4.1177073  30.9348160 138.3626151
  10.1520012  26.2794997 130.9539988  10.7170012  25.7324997 130.4069988
  10.0050012  25.7574997 131.7429988  10.2093380  26.1342259 130.9858695
   5.1540012  22.4154997 127.3729988   4.8370012  21.5134997 127.3369988
   5.9360012  22.4174997 126.8199988   5.2162408  22.2922474 127.2933569
   8.7790012  24.6674997 133.3679988   7.9430012  25.1214997 133.4789988
   9.3030012  24.9434997 134.1199988   8.7355416  24.7668660 133.4848119
   9.3230012  30.8804997 125.0529988   8.5780012  30.3734997 124.7309988
   9.1890012  30.9294997 125.9999988   9.2028776  30.8176940 125.1368647
  16.4730012  30.0134997 133.8399988  17.1150012  30.4704997 133.2959988
  15.6430012  30.1264997 133.3769988  16.4485963  30.0912704 133.7030177
  13.2210012  23.6944997 123.2519988  12.2820012  23.8064997 123.1009988
  13.5180012  24.5514997 123.5589988  13.1327583  23.8255981 123.2728337
  10.8420012  31.0644997 136.2899988  10.4970012  30.6834997 137.0969988
  10.6420012  31.9984997 136.3609988  10.7677527  31.1385135 136.4100689
  13.9390012  25.5614997 124.9129988  14.8310012  25.4244997 125.2319988
  13.9960012  26.3524997 124.3759988  14.0686504  25.6496052 124.8840818
   4.4480012  30.1754997 130.8229988   5.1930012  30.1734997 130.2219988
   4.5260012  29.3524997 131.3039988   4.5604995  30.0638887 130.8058282
  11.4490012  32.3394997 124.0789988  11.1530012  33.1654997 124.4599988
  10.7460012  31.7194997 124.2749988  11.3134914  32.3688199 124.1576443
   1.4560012  28.6364997 136.1379988   1.6790012  28.2184997 136.9699988
   0.8540012  28.0234997 135.7149988   1.4051759  28.4964668 136.1947022
   8.4720012  28.1534997 138.3509988   8.1760012  27.9874997 137.4559988
   9.4040012  27.9334997 138.3399988   8.5574166  28.1010640 138.2270536
  13.0930012  33.5264997 136.2409988  12.1920012  33.7094997 135.9729988
  13.1270012  33.7854997 137.1609988  12.9743139  33.5865849 136.3288099
  18.8240012  25.7714997 124.6079988  18.2700012  25.3754997 123.9359988
  18.9240012  26.6814997 124.3299988  18.7617059  25.8403586 124.4784401
  18.7870012  31.5714997 137.4449988  17.9360012  31.8094997 137.0779988
  19.3780012  31.5544997 136.6919988  18.7502487  31.6018258 137.2928893
  17.1190012  34.5574997 125.0729988  16.7460012  33.7314997 125.3819988
  17.3970012  34.3744997 124.1749988  17.1055222  34.4197430 124.9939473
  14.2800012  29.3654997 132.0939988  13.3510012  29.1334997 132.0669988
  14.7310012  28.5884997 131.7639988  14.2139216  29.2287238 132.0456917
   6.8230012  33.6934997 128.2269988   7.3500012  34.4664997 128.0269988
   5.9430012  33.9184997 127.9249988   6.7762031  33.8297545 128.1587912
   2.5780012  28.5554997 122.8139988   3.1940012  29.1824997 123.1939988
   1.7160012  28.8714997 123.0859988   2.5457698  28.6839430 122.9027183
   8.2500012  31.3564997 127.8029988   8.0090012  32.2814997 127.8449988
   7.5090012  30.8974997 128.1999988   8.1169225  31.4210933 127.8623742
   8.7650012  35.5054997 134.1189988   9.1270012  36.3604997 133.8849988
   9.2960012  35.2134997 134.8589988   8.8864473  35.5831060 134.1870855
   6.9330012  36.3784997 127.3489988   5.9830012  36.4834997 127.3999988
   7.2850012  37.1984997 127.6929988   6.8504195  36.5038800 127.4025502
  12.3090012  31.6044997 133.8189988  11.8830012  31.3774997 134.6459988
  12.8890012  30.8664997 133.6369988  12.3291868  31.4735299 133.9075830
  14.5120012  32.5334997 122.8929988  14.8650012  32.1534997 123.6969988
  13.5630012  32.4404997 122.9799988  14.4320918  32.4688956 123.0148532
  14.9670012  36.1564997 136.2889988  14.3660012  35.6014997 135.7929988
  15.2490012  36.8234997 135.6619988  14.9228804  36.1706625 136.1364849
  19.0150012  37.0134997 123.0939988  19.7590012  37.5994997 122.9539988
  18.3210012  37.5814997 123.4269988  19.0229899  37.1705798 123.1198778
   3.0900012  23.3894997 135.6959988   2.1970012  23.7284997 135.6279988
   2.9910012  22.5344997 136.1139988   2.9544164  23.3202588 135.7432235
  15.3780012  31.2064997 125.1199988  15.1000012  30.4784997 125.6759988
  16.3050012  31.3254997 125.3249988  15.4653124  31.1228802 125.2238845
   2.7410012  35.1944997 134.1309988   2.9580012  34.2624997 134.0999988
   2.9870012  35.4684997 135.0139988   2.8039549  35.1040636 134.2461763
   8.6030012  33.6454997 121.3399988   8.8420012  32.8974997 120.7929988
   8.3340012  33.2574997 122.1729988   8.5993675  33.4906638 121.3776865
   7.5400012  33.2154997 123.7959988   7.6860012  32.6954997 124.5859988
   7.5370012  34.1224997 124.1029988   7.5595792  33.2668842 123.9456117
   3.9930012  30.4684997 124.3069988   3.3070012  30.8204997 124.8739988
   4.5150012  31.2314997 124.0599988   3.9696852  30.6198578 124.3512118
  11.8240012  23.1304997 134.5859988  12.5230012  23.2044997 135.2359988
  11.4430012  22.2664997 134.7399988  11.8681767  23.0237624 134.6958322
  12.6090012  22.7824997 125.6829988  12.8290012  23.2544997 124.8799988
  13.1670012  23.1774997 126.3529988  12.7144968  22.9004285 125.6637331
  10.2770012  34.9134997 124.5459988   9.4610012  35.4104997 124.5979988
  10.8070012  35.3884997 123.9059988  10.2369161  35.0457722 124.4665956
   9.8090012  24.5104997 126.5179988  10.6210012  25.0154997 126.5639988
   9.5640012  24.3654997 127.4319988   9.8870520  24.5600375 126.6478517
  10.3440012  25.4964997 135.7019988  10.4630012  26.0704997 136.4599988
  11.0000012  24.8084997 135.8169988  10.4489025  25.4819858 135.8211321
  10.6920012  21.5914997 127.4559988  10.3460012  22.2094997 128.0999988
  11.3510012  22.0924997 126.9739988  10.7336968  21.7436278 127.4789383
   7.6160012  35.9574997 124.5269988   7.7760012  36.7564997 124.0269988
   7.4180012  36.2634997 125.4119988   7.6111637  36.1084020 124.5781144
   6.3500012  22.6544997 124.1429988   6.2670012  23.5434997 124.4899988
   7.2400012  22.3894997 124.3749988   6.4589469  22.7401430 124.2217626
  16.5490012  23.4034997 136.5369988  15.6320012  23.6664997 136.4499988
  16.8840012  23.4004997 135.6409988  16.4688613  23.4390761 136.4038837
  15.1510012  27.1544997 130.6329988  14.3530012  26.7394997 130.3049988
  15.5960012  26.4634997 131.1239988  15.1019885  27.0043543 130.6544889
   4.6090012  33.0824997 123.2039988   5.2010012  33.7814997 123.4799988
   5.0680012  32.6494997 122.4839988   4.7521142  33.1197049 123.1444830
   2.9250012  25.7464997 122.3199988   2.8800012  26.6854997 122.4979988
   2.0370012  25.5104997 122.0499988   2.7988574  25.8431892 122.3078912
  16.2370012  36.4104997 132.2559988  16.0820012  37.0884997 131.5979988
  17.1700012  36.4824997 132.4589988  16.3418657  36.5129546 132.1934360
   3.7330012  20.5284997 130.9929988   3.5040012  20.5874997 130.0649988
   3.2900012  19.7364997 131.2989988   3.6418530  20.4295753 130.9074786
   2.6630012  34.4684997 127.1529988   1.8310012  34.9414997 127.1799988
   3.2090012  34.9784997 126.5549988   2.6230352  34.6021332 127.0758463
   1.9510012  37.0814997 138.4829988   2.4920012  36.8644997 139.2429988
   1.4700012  36.2754997 138.2929988   1.9599951  36.9429270 138.5612576
   6.5490012  36.0004997 140.1029988   7.3160012  35.5414997 140.4439988
   6.5270012  35.7744997 139.1739988   6.6511275  35.9070186 140.0240101
  10.6410012  35.5084997 121.4789988   9.9970012  34.8774997 121.7999988
  11.4030012  34.9774997 121.2469988  10.6558077  35.3502920 121.4916011
  13.1260012  34.3804997 138.8329988  12.7750012  33.5244997 139.0759988
  13.8520012  34.5234997 139.4399988  13.1760769  34.2825636 138.9483619
  15.2450012  35.3254997 121.7119988  15.5280012  34.5314997 122.1649988
  15.9850012  35.5584997 121.1519988  15.3838006  35.2483376 121.6982715
   1.8580012  30.8914997 139.4369988   2.0020012  29.9894997 139.1509988
   1.0860012  31.1774997 138.9499988   1.7732753  30.8066816 139.3319505
   6.2000012  31.2354997 121.5699988   6.2640012  30.4414997 122.1009988
   6.8530012  31.1164997 120.8799988   6.2970241  31.1107148 121.5494317
   8.5140012  30.8614997 138.8699988   8.1850012  31.1324997 138.0129988
   8.6660012  29.9204997 138.7829988   8.4894809  30.7713862 138.7408244
  11.5520012  32.2824997 121.3059988  11.2830012  32.4624997 122.2069988
  11.3460012  31.3564997 121.1739988  11.4873427  32.1820261 121.4115073
  14.2480012  30.7774997 136.2529988  14.9940012  31.3654997 136.1339988
  13.4910012  31.3594997 136.3169988  14.2477820  30.9367143 136.2453590
   2.6910012  28.0914997 138.8569988   3.0990012  27.2344997 138.7359988
   2.4310012  28.1064997 139.7779988   2.7117568  27.9760807 138.9649588
   7.3490012  29.2074997 123.8759988   6.8890012  28.7234997 124.5619988
   7.6040012  28.5394997 123.2399988   7.3204902  29.0508731 123.8839334
   6.6380012  27.1004997 136.2319988   6.0200012  27.7754997 136.5119988
   6.9820012  27.4214997 135.3979988   6.5999132  27.2362411 136.1576262
   8.4200012  27.4504997 122.1379988   8.2400012  27.2964997 121.2109988
   9.3700012  27.5584997 122.1829988   8.5237776  27.4440175 122.0171843
  11.6580012  29.5724997 139.5089988  12.6110012  29.6554997 139.4819988
  11.4970012  28.8604997 140.1289988  11.7666426  29.4876746 139.5890579
  17.8100012  29.8054997 121.5839988  17.5360012  29.3804997 120.7709988
  17.8490012  30.7364997 121.3669988  17.7777699  29.8732484 121.4433610
   6.9770012  24.4554997 137.3139988   7.1270012  23.7264997 136.7119988
   6.9800012  25.2324997 136.7549988   6.9979302  24.4607851 137.1560692
   7.3900012  22.8254997 134.8069988   7.9260012  23.2764997 134.1549988
   6.5380012  22.7174997 134.3839988   7.3482178  22.8726390 134.6605756
   8.9720012  28.2644997 135.0459988   9.7220012  28.1084997 134.4729988
   8.6330012  29.1164997 134.7709988   9.0288921  28.3582968 134.9303561
  13.3870012  26.0794997 140.0749988  13.5800012  25.1484997 139.9629988
  14.2450012  26.5044997 140.0639988  13.5292934  26.0096531 140.0582031
  14.7040012  28.8684997 138.1519988  14.4230012  29.5774997 137.5739988
  15.6470012  28.7954997 138.0009988  14.7929291  28.9556711 138.0524967
   5.4560012  25.6534997 139.2259988   4.6890012  25.1214997 139.0149988
   6.1350012  25.3434997 138.6259988   5.4427877  25.5388300 139.1160716
   8.1960012  20.2814997 135.2379988   8.0970012  21.2284997 135.1329988
   7.4530012  19.9094997 134.7619988   8.0821184  20.3605863 135.1593621
   9.4600012  24.6034997 138.8019988   9.2240012  24.3834997 139.7029988
   8.6760012  24.3964997 138.2919988   9.3218504  24.5454586 138.8563431
  12.1750012  23.7304997 137.8769988  11.2280012  23.7624997 138.0099988
  12.4880012  23.1054997 138.5309988  12.0876707  23.6503998 137.9836060
  13.8090012  22.3644997 139.8829988  13.7130012  21.4124997 139.8769988
  13.4880012  22.6334997 140.7429988  13.7524070  22.2704035 139.9985441
   3.6360012  23.5744997 138.9299988   3.8480012  22.8674997 138.3199988
   3.5250012  23.1364997 139.7739988   3.6499721  23.4187084 138.9606843
   8.4170012  19.5754997 137.9089988   9.1290012  18.9354997 137.8949988
   8.3160012  19.8424997 136.9959988   8.5008066  19.5240079 137.7835677
   8.7710012  21.2584997 139.9629988   8.6390012  20.7824997 139.1429988
   8.1720012  22.0024997 139.9079988   8.6719071  21.2939618 139.8432886
   8.3170012  38.1414997 123.1389988   9.2500012  38.2994997 123.2829988
   8.0530012  38.8164997 122.5149988   8.4089888  38.2544510 123.0742842
   1.8860012  32.7774997 122.6219988   2.8000012  32.8564997 122.8959988
   1.8930012  32.0904997 121.9559988   2.0121131  32.6953961 122.5694393
   0.5350012  38.1704997 127.6999988  -0.1119988  37.7084997 127.1669988
   0.8890012  37.4984997 128.2819988   0.4943849  38.0164723 127.7057959
   1.4050012  36.2514997 129.5039988   1.0700012  35.3714997 129.6759988
   1.6270012  36.5964997 130.3689988   1.3891783  36.1777501 129.6444208
  18.9530012  37.0604997 132.4849988  18.9320012  37.2454997 133.4239988
  19.6440012  37.6294997 132.1439988  19.0434618  37.1626606 132.5673864
  18.5170012  36.6284997 135.4069988  18.0290012  35.8924997 135.0349988
  19.0660012  36.2344997 136.0849988  18.5244820  36.4745889 135.4477813
  16.9670012  32.4174997 140.0449988  16.1010012  32.3124997 140.4389988
  17.3440012  33.1764997 140.4909988  16.8993308  32.5056900 140.1592393
  18.2680012  30.6744997 125.5589988  19.1180012  31.0954997 125.6859988
  18.2740012  29.9344997 126.1659988  18.3851372  30.6320803 125.6584344
  18.6630012  28.7274997 127.3819988  17.9360012  28.2484997 127.7799988
  19.2440012  28.9334997 128.1149988  18.6420473  28.6898103 127.5354528
  18.4220012  31.5124997 132.3299988  19.2550012  31.1344997 132.0499988
  18.5340012  32.4554997 132.2109988  18.5512647  31.5882218 132.2755487
  16.9080012  34.3904997 134.6369988  16.2610012  34.7154997 135.2629988
  16.3910012  33.9504997 133.9629988  16.7494029  34.3755004 134.6315827
  18.9310012  28.6284997 123.7739988  18.4090012  28.9854997 123.0549988
  18.8980012  29.3034997 124.4519988  18.8551634  28.7685413 123.7673145
  17.2800012  25.8684997 122.3239988  17.3760012  26.5354997 121.6439988
  17.1400012  25.0524997 121.8429988  17.2742272  25.8495655 122.1658347
  16.4490012  27.2484997 127.9449988  16.2990012  26.3034997 127.9249988
  16.0960012  27.5294997 128.7889988  16.3807448  27.1571481 128.0563705
   1.4850012  29.3264997 131.9559988   1.6690012  29.2444997 131.0199988
   2.3340012  29.2024997 132.3789988   1.6250151  29.2985073 131.8851451
  17.3060012  29.2184997 137.5839988  17.8890012  28.4844997 137.7759988
  17.8700012  29.9904997 137.6309988  17.4619769  29.2224227 137.6166159
  18.8020012  27.1214997 138.2689988  17.9390012  26.7424997 138.1029988
  19.4070012  26.3824997 138.1939988  18.7656119  26.9698268 138.2361528
  16.5270012  23.2764997 121.4419988  17.1380012  22.9054997 122.0789988
  15.6910012  22.8554997 121.6379988  16.4975032  23.1687554 121.5557035
  16.1600012  24.8314997 126.4079988  16.4400012  23.9244997 126.5319988
  16.9190012  25.2654997 126.0189988  16.3009277  24.7660942 126.3723682
  16.7720012  25.4124997 131.8439988  17.7050012  25.6244997 131.8089988
  16.5370012  25.5144997 132.7659988  16.8679244  25.4553100 131.9638892
  16.8010012  26.1494997 134.6199988  15.9580012  26.4174997 134.9859988
  17.2430012  26.9714997 134.4089988  16.7454158  26.2973291 134.6415491
   1.0820012  24.5974997 138.0969988   2.0020012  24.4754997 138.3329988
   0.6330012  23.8474997 138.4859988   1.1471580  24.4793727 138.1819006
  19.0840012  20.1294997 139.9729988  19.4340012  19.4754997 139.3679988
  19.2310012  20.9664997 139.5329988  19.1517887  20.1531548 139.8306858
  16.7730012  22.0944997 126.4559988  16.9560012  21.6454997 127.2819988
  16.1740012  21.5094997 125.9929988  16.7170202  21.9539975 126.5063275
   2.3030012  22.9094997 130.9879988   2.7490012  22.1174997 131.2899988
   2.7700012  23.6254997 131.4179988   2.4270831  22.8980685 131.0874006
   0.6070012  25.9084997 132.0569988   1.0990012  25.6874997 131.2659988
   0.9700012  26.7494997 132.3379988   0.7233126  25.9918357 131.9867531
  18.6040012  22.2384997 138.3219988  17.6860012  22.5094997 138.2869988
  18.7270012  21.7034997 137.5379988  18.4949729  22.2032508 138.2111923
  18.6400012  22.1614997 122.9839988  19.0520012  21.4404997 122.5089988
  19.3220012  22.8314997 123.0429988  18.7885885  22.1532368 122.9268915
   0.9210012  22.1664997 126.1109988  -0.0039988  22.3754997 125.9819988
   1.3750012  22.6504997 125.4209988   0.8557292  22.2605343 126.0000720
  15.6920012  37.1504997 128.0569988  16.3440012  36.8034997 127.4489988
  16.2020012  37.6394997 128.7029988  15.8502637  37.1690597 128.0610236
   0.8850012  20.9044997 134.4549988   0.2200012  20.6584997 135.0989988
   0.4420012  21.5264997 133.8779988   0.7341318  20.9549410 134.4650898
   3.0770012  34.0794997 138.5999988   2.2560012  34.2544997 138.1389988
   2.8240012  34.0064997 139.5199988   2.9305585  34.0935544 138.6613561
   6.0310012  35.0544997 134.8579988   5.6060012  35.8634997 134.5759988
   6.9350012  35.1394997 134.5559988   6.0949975  35.1769300 134.7784816
  10.3420012  36.4534997 137.8179988  10.5270012  36.1194997 138.6959988
  11.1880012  36.7624997 137.4959988  10.4817539  36.4496047 137.8945605
  12.6870012  37.7394997 137.0619988  13.3640012  37.1064997 136.8219988
  13.0090012  38.1404997 137.8689988  12.8231637  37.7071154 137.1382793
  17.6040012  20.3284997 136.1409988  16.7920012  20.6534997 135.7539988
  17.8370012  19.5684997 135.6079988  17.5242203  20.2702758 136.0158880
   3.4330012  38.3104997 134.9059988   2.7120012  38.7504997 134.4549988
   3.0670012  38.0594997 135.7539988   3.2849651  38.3367242 134.9589640
   5.9000012  37.9104997 133.9359988   5.0350012  37.9824997 134.3399988
   5.8450012  38.4574997 133.1519988   5.7742085  37.9942685 133.8853362
  10.6100012  37.7984997 133.1109988  10.1540012  38.3274997 132.4569988
  10.7730012  38.4014997 133.8359988  10.5696068  37.9524607 133.1194838
  12.9380012  36.6764997 134.0559988  12.0330012  36.8414997 133.7899988
  13.3670012  37.5294997 133.9909988  12.8721324  36.8144339 134.0107976
  15.5420012  38.2464997 134.3509988  15.3600012  39.1624997 134.1409988
  15.7190012  37.8364997 133.5049988  15.5410210  38.3164822 134.2077885
   2.8470012  36.9334997 131.8159988   2.8290012  36.5084997 132.6729988
   3.6520012  36.6154997 131.4069988   2.9533529  36.8323013 131.8780946
   4.9890012  35.6434997 130.4709988   4.7700012  34.7274997 130.6409988
   5.8130012  35.7834997 130.9369988   5.0704420  35.5370520 130.5572774
   7.5260012  36.1134997 131.3199988   7.7390012  35.2254997 131.0329988
   7.5900012  36.0794997 132.2739988   7.5638231  35.9873102 131.4097397
  11.0340012  21.7774997 130.4639988  10.3600012  21.1484997 130.7199988
  11.5980012  21.2934997 129.8609988  11.0179230  21.6258744 130.4175340
  16.1770012  19.8854997 130.5769988  16.7810012  20.4324997 130.0749988
  15.3070012  20.2044997 130.3359988  16.1421208  20.0035137 130.4756886
  17.9040012  21.0234997 128.9099988  18.5160012  20.5094997 128.3829988
  18.2860012  21.9014997 128.9329988  18.0393371  21.0717866 128.8410041
   3.3610012  20.4114997 128.2859988   2.5840012  20.1774997 127.7789988
   3.8910012  19.6144997 128.2949988   3.3262330  20.2716988 128.2177742
   2.1970012  20.2094997 124.0899988   2.6360012  20.8204997 123.4979988
   1.5640012  20.7474997 124.5639988   2.1714514  20.3659257 124.0730930
   7.9400012  20.3384997 128.0999988   8.8150012  20.7264997 128.0699988
   7.8040012  20.1234997 129.0219988   8.0413695  20.3625184 128.2206440
  13.4970012  20.3684997 129.7489988  13.5730012  20.4634997 128.7989988
  13.2220012  19.4604997 129.8779988  13.4702321  20.2587867 129.6365079
  14.8500012  20.3944997 125.4409988  14.1480012  21.0094997 125.2309988
  14.4060012  19.5564997 125.5719988  14.6936450  20.3655639 125.4299000
   2.0980012  36.1574997 124.9869988   1.4130012  36.1194997 124.3199988
   2.1020012  37.0704997 125.2759988   2.0046998  36.2756733 124.9346771
   4.0580012  22.1254997 122.5319988   4.5500012  21.4954997 122.0049988
   4.6820012  22.4214997 123.1949988   4.2095688  22.0793804 122.5495482
   9.0840012  22.4184997 124.9889988   9.2620012  21.7724997 125.6719988
   9.0310012  23.2524997 125.4559988   9.1011999  22.4428009 125.1455917
  10.9630012  37.3674997 123.3849988  11.8290012  37.7334997 123.2069988
  10.7160012  36.9274997 122.5709988  11.0482392  37.3581756 123.2506289
  17.6720012  36.9304997 126.0639988  17.4770012  36.1824997 125.4989988
  17.6330012  37.6884997 125.4809988  17.6400380  36.9306099 125.9078384
   3.3190012  20.9254997 137.8039988   2.9530012  20.1604997 138.2459988
   4.2320012  20.9544997 138.0899988   3.3922736  20.8245640 137.9032502
   5.2920012  20.2764997 139.3399988   6.1900012  20.0024997 139.1549988
   4.9050012  19.5334997 139.8039988   5.3626612  20.1385914 139.3773643
   3.9160012  37.0774997 122.0129988   3.6490012  37.3644997 122.8859988
   4.6880012  36.5314997 122.1649988   3.9837488  37.0430294 122.1531050
  13.7130012  19.6084997 139.5219988  13.7900012  19.1824997 140.3759988
  14.6070012  19.6224997 139.1789988  13.8443428  19.5520879 139.5925310
  16.8890012  35.6814997 138.2139988  16.1070012  35.4954997 137.6939988
  16.8170012  36.6104997 138.4319988  16.7722274  35.7816643 138.1723018
  31.2950012  29.5674997 128.2449988  31.3840012  30.5114997 128.1129988
  30.6570012  29.2924997 127.5869988  31.2209081  29.6594830 128.1379614
  30.2280012  28.8224997 131.6639988  30.1900012  28.1764997 132.3689988
  29.9060012  28.3564997 130.8929988  30.1792333  28.6709408 131.6562978
  22.5970012  28.4374997 133.2569988  22.6380012  27.8114997 133.9799988
  23.3000012  29.0614997 133.4389988  22.6976363  28.4361196 133.3806044
  33.9340012  31.7614997 129.9649988  33.4940012  31.0414997 130.4159988
  33.9210012  32.4824997 130.5949988  33.8720226  31.7603731 130.1118494
  23.5200012  32.8874997 131.7919988  23.1510012  32.0854997 131.4219988
  24.4610012  32.7184997 131.8379988  23.5967289  32.7550153 131.7476316
  20.1300012  26.5474997 127.1849988  19.6830012  27.3934997 127.1659988
  19.5690012  25.9674997 126.6689988  19.9929900  26.5849916 127.1126801
  20.8410012  28.7094997 129.3099988  21.0540012  27.9394997 129.8379988
  21.5790012  28.7984997 128.7069988  20.9699044  28.6161968 129.3007123
  31.0460012  36.8664997 130.1769988  31.6660012  36.1894997 129.9039988
  30.8380012  36.6484997 131.0859988  31.1026726  36.7444800 130.2624812
  28.6180012  31.2554997 132.0699988  28.9220012  30.5694997 131.4749988
  29.3390012  31.3734997 132.6879988  28.7570671  31.1776305 132.0721816
  37.2810012  22.8564997 132.9309988  37.3300012  23.4664997 133.6659988
  37.7060012  23.3174997 132.2079988  37.3451746  23.0023796 132.9339175
  31.7590012  25.6494997 132.3969988  31.9010012  24.7034997 132.4179988
  31.6520012  25.8564997 131.4689988  31.7639919  25.5478246 132.2743408
  24.9130012  23.7504997 129.6699988  24.9570012  24.6104997 129.2509988
  24.4560012  23.1984997 129.0359988  24.8572240  23.7934422 129.5269864
  32.6360012  23.8814997 128.0709988  33.2820012  23.5524997 128.6949988
  33.1460012  24.3994997 127.4479988  32.7934299  23.9064450 128.0722731
  21.5340012  26.1474997 130.4319988  22.1870012  25.5974997 130.8639988
  21.5580012  25.8734997 129.5149988  21.6266683  26.0351466 130.3672123
  26.6900012  27.6974997 129.6469988  27.3060012  27.1714997 130.1569988
  26.1040012  27.0574997 129.2439988  26.6950810  27.5389208 129.6623173
  37.6720012  24.3344997 135.1659988  36.9840012  24.9924997 135.0709988
  37.6880012  24.1374997 136.1029988  37.5799540  24.3979819 135.2795990
  23.7240012  22.6684997 133.7439988  23.5050012  23.1984997 132.9779988
  23.0560012  22.8954997 134.3909988  23.6037600  22.7716906 133.7266379
  31.0930012  32.1684997 127.2879988  30.7970012  31.8464997 126.4369988
  30.7680012  33.0684997 127.3289988  31.0086371  32.2460215 127.1771801
  26.2930012  30.3444997 134.0309988  25.5530012  30.9424997 134.1349988
  27.0070012  30.8984997 133.7159988  26.2882237  30.5012831 134.0026465
  34.4000012  23.1724997 130.0509988  34.1840012  22.4064997 130.5839988
  35.0550012  23.6444997 130.5639988  34.4590632  23.1315889 130.1932861
  23.3170012  24.5604997 131.6959988  23.9310012  25.1934997 132.0689988
  23.8290012  24.0884997 131.0399988  23.4701981  24.5832267 131.6582908
  24.7000012  32.3084997 134.8179988  24.6950012  33.1884997 134.4399988
  23.8470012  32.2254997 135.2429988  24.5839464  32.4176117 134.8237907
  20.8210012  31.9794997 125.5999988  20.5490012  32.2084997 124.7119988
  20.8670012  32.8174997 126.0609988  20.7899482  32.1241318 125.5406273
  34.4460012  33.6014997 132.3129988  33.5050012  33.6594997 132.4749988
  34.7230012  34.5074997 132.1759988  34.3544679  33.7319443 132.3166815
  34.7470012  21.8874997 133.7309988  34.0110012  22.4984997 133.6929988
  35.4300012  22.3024997 133.2039988  34.7386541  22.0271374 133.6545832
  27.7500012  19.9744997 131.1959988  27.6330012  19.0254997 131.1419988
  26.8950012  20.3064997 131.4699988  27.6184212  19.8895571 131.2256497
  32.6980012  35.3824997 128.9379988  33.1240012  34.6754997 128.4529988
  33.0150012  36.1834997 128.5219988  32.7991683  35.3941017 128.8153680
  33.8580012  33.2834997 127.4469988  33.6000012  32.5934997 126.8359988
  33.9290012  32.8404997 128.2929988  33.8322856  33.1292124 127.4776885
  35.5440012  31.8494997 135.9239988  35.6840012  31.2584997 135.1849988
  35.7110012  32.7224997 135.5679988  35.5857411  31.8865428 135.7746894
  30.0170012  28.8114997 125.6969988  29.3050012  29.3464997 125.3449988
  30.7080012  28.8674997 125.0369988  30.0130132  28.8922543 125.5596289
  30.0700012  27.2694997 122.7359988  30.7710012  27.2914997 123.3869988
  30.3730012  26.6414997 122.0789988  30.2068133  27.1877070 122.7363369
  37.3860012  28.1894997 133.9899988  36.7330012  28.8844997 134.0799988
  37.8510012  28.3994997 133.1809988  37.3595274  28.3130643 133.8928462
  33.4220012  29.0214997 126.6489988  32.6900012  29.2494997 127.2219988
  33.8700012  28.3074997 127.1029988  33.3822725  28.9562145 126.7888816
  33.3200012  27.1954997 135.7159988  33.4000012  27.9584997 136.2879988
  32.7180012  27.4744997 135.0259988  33.2495756  27.3377134 135.7010589
  25.0680012  29.6514997 128.5309988  24.7370012  29.2814997 127.7129988
  25.6560012  28.9814997 128.8779988  25.1021873  29.5101156 128.4658102
  26.4340012  33.0794997 131.2119988  26.3400012  32.5014997 130.4559988
  27.1640012  32.7084997 131.7089988  26.5197387  32.9501663 131.1755342
  25.4340012  28.4204997 132.1649988  26.0000012  28.5414997 131.4019988
  25.7530012  29.0574997 132.8029988  25.5545474  28.5232219 132.1469862
  31.7430012  33.9234997 132.8989988  31.5030012  34.5854997 133.5469988
  31.5450012  33.0894997 133.3239988  31.6833808  33.9013134 133.0451524
  26.3140012  32.8194997 136.8819988  26.0030012  33.6014997 137.3369988
  25.6640012  32.6664997 136.1959988  26.1835558  32.9059105 136.8515871
  32.2930012  28.1834997 124.3339988  32.8730012  28.3334997 125.0809988
  32.7070012  28.6544997 123.6099988  32.4282997  28.2676578 124.3384058
  23.2340012  29.0174997 136.1099988  23.3050012  29.6684997 136.8089988
  22.3440012  29.1204997 135.7749988  23.1233005  29.1205427 136.1603495
  30.0200012  34.9204997 127.7689988  30.4940012  35.2154997 128.5459988
  29.4570012  35.6584997 127.5359988  30.0088184  35.0607247 127.8439628
  24.5540012  34.8914997 137.6449988  24.5610012  34.7554997 136.6979988
  23.6380012  34.7734997 137.8969988  24.4311714  34.8569430 137.5494666
  35.9920012  19.9334997 124.1469988  35.0920012  20.0724997 124.4419988
  36.2440012  20.7644997 123.7449988  35.9028702  20.0649074 124.1330205
  24.0580012  28.7214997 126.1199988  23.7660012  29.4894997 125.6299988
  23.3840012  28.0614997 125.9579988  23.9268111  28.7375587 126.0308978
  37.1810012  34.2994997 122.5229988  37.2550012  35.2384997 122.6939988
  38.0870012  33.9944997 122.4669988  37.3135100  34.3866722 122.5388119
  20.1510012  31.0844997 134.9349988  19.6500012  31.0564997 134.1199988
  20.1560012  30.1784997 135.2449988  20.0830944  30.9582396 134.8653226
  19.9010012  33.8644997 131.8189988  20.8470012  33.7204997 131.7999988
  19.7890012  34.6484997 132.3559988  20.0152727  33.9508046 131.8890072
  38.0990012  34.5304997 137.5019988  38.0500012  33.5754997 137.4649988
  37.2720012  34.7984997 137.9029988  37.9804940  34.4358998 137.5511375
  29.0780012  34.1044997 136.3779988  29.1650012  34.9304997 136.8529988
  28.2140012  33.7744997 136.6269988  28.9731964  34.1729878 136.4766549
  29.4920012  37.8764997 126.1839988  29.4170012  37.7554997 125.2369988
  29.5250012  38.8264997 126.3019988  29.4862068  37.9882646 126.0704967
  23.1450012  36.6654997 127.9649988  23.2980012  36.3174997 128.8429988
  22.2950012  36.3094997 127.7099988  23.0509166  36.5696216 128.0508079
  32.5940012  37.0304997 123.1859988  32.9690012  36.2864997 122.7149988
  32.5980012  36.7604997 124.1049988  32.6459125  36.8920986 123.2456483
  32.2630012  36.9564997 125.9349988  31.3270012  37.0564997 126.1139988
  32.5430012  36.2474997 126.5139988  32.1729553  36.8743406 126.0377087
  35.2510012  26.0234997 137.9819988  34.8440012  26.5044997 137.2609988
  35.2920012  25.1184997 137.6739988  35.2008437  25.9669374 137.8416683
  22.4000012  32.4074997 135.9789988  22.6160012  32.0464997 136.8379988
  21.5450012  32.0334997 135.7689988  22.3139292  32.3074111 136.0683386
  25.0190012  20.8774997 131.9739988  24.1570012  20.7904997 131.5659988
  24.9960012  21.7334997 132.4019988  24.8980409  20.9812883 131.9760589
  29.6820012  20.5994997 135.3489988  30.1020012  20.1844997 136.1019988
  28.7490012  20.4214997 135.4659988  29.6133644  20.5185900 135.4679539
  33.0080012  24.3554997 136.2019988  32.4940012  24.2294997 136.9999988
  32.8530012  25.2674997 135.9579988  32.9166852  24.4616132 136.2782158
  33.7710012  29.2164997 121.9639988  33.8130012  28.9934997 121.0339988
  34.6200012  29.6154997 122.1529988  33.8915280  29.2399438 121.8623554
  29.3430012  23.0924997 122.6339988  29.0900012  23.1114997 123.5569988
  29.0870012  22.2204997 122.3319988  29.2737481  22.9772558 122.7196175
  25.1100012  25.8434997 133.0689988  24.4680012  25.8024997 133.7779988
  25.1470012  26.7694997 132.8309988  25.0270664  25.9631430 133.1339219
  25.1070012  26.0644997 127.9809988  24.2140012  25.7234997 127.9219988
  25.5570012  25.6874997 127.2249988  25.0458130  25.9669631 127.8707702
  30.6420012  26.4804997 126.7979988  30.2330012  27.2954997 126.5069988
  31.3630012  26.3404997 126.1839988  30.6834537  26.5732018 126.6751342
  29.7440012  26.6554997 138.2859988  29.1820012  25.9514997 138.6069988
  30.5710012  26.5354997 138.7539988  29.7787095  26.5427883 138.3932330
  31.6470012  25.9264997 129.6119988  31.4520012  26.5314997 128.8969988
  31.8280012  25.0924997 129.1779988  31.6447614  25.8966300 129.4554405
  22.8600012  26.1634997 134.9359988  22.8220012  26.5634997 135.8049988
  22.3690012  25.3464997 135.0269988  22.7884684  26.1078069 135.0671059
  26.2260012  23.5374997 121.7349988  25.7950012  23.0924997 122.4649988
  25.5080012  23.9094997 121.2229988  26.0699438  23.5268940 121.7656799
  19.4680012  23.2794997 128.7869988  20.0990012  23.2504997 129.5059988
  19.9170012  22.8544997 128.0559988  19.6150918  23.2180836 128.7866441
  20.7420012  24.0254997 124.2109988  21.2160012  24.6164997 123.6259988
  20.0250012  24.5564997 124.5579988  20.7099341  24.1780867 124.1778836
  30.9110012  27.5644997 134.2829988  31.2340012  26.9334997 133.6399988
  30.4710012  27.0294997 134.9439988  30.8957484  27.4058387 134.2843198
  27.6880012  23.4914997 129.0669988  26.7770012  23.5484997 129.3559988
  28.1940012  23.4314997 129.8779988  27.6316899  23.4911941 129.2161184
  22.5170012  25.1204997 127.8939988  21.6270012  25.2204997 127.5539988
  22.8130012  24.2784997 127.5479988  22.4352823  25.0203545 127.8007213
  26.1700012  25.1204997 125.5509988  27.1010012  25.2494997 125.7289988
  25.9550012  25.7904997 124.9009988  26.2684247  25.2286565 125.4875747
  32.0930012  22.7264997 132.3319988  31.4170012  22.8574997 132.9959988
  31.6080012  22.5714997 131.5209988  31.9347146  22.7235157 132.3134469
  24.8440012  26.3154997 123.1169988  24.3010012  25.9354997 122.4259988
  25.6770012  26.5094997 122.6889988  24.8823631  26.2897125 122.9644501
  35.3810012  38.3984997 138.6079988  35.5810012  38.8224997 137.7739988
  36.0360012  38.7414997 139.2149988  35.4970073  38.5029857 138.5758592
  22.9790012  30.8724997 138.2159988  23.7110012  31.1264997 138.7779988
  22.1990012  31.0764997 138.7319988  22.9737073  30.9348160 138.3626151
  29.0080012  26.2794997 130.9539988  29.5730012  25.7324997 130.4069988
  28.8610012  25.7574997 131.7429988  29.0653380  26.1342259 130.9858695
  24.0100012  22.4154997 127.3729988  23.6930012  21.5134997 127.3369988
  24.7920012  22.4174997 126.8199988  24.0722408  22.2922474 127.2933569
  27.6350012  24.6674997 133.3679988  26.7990012  25.1214997 133.4789988
  28.1590012  24.9434997 134.1199988  27.5915416  24.7668660 133.4848119
  28.1790012  30.8804997 125.0529988  27.4340012  30.3734997 124.7309988
  28.0450012  30.9294997 125.9999988  28.0588776  30.8176940 125.1368647
  35.3290012  30.0134997 133.8399988  35.9710012  30.4704997 133.2959988
  34.4990012  30.1264997 133.3769988  35.3045963  30.0912704 133.7030177
  32.0770012  23.6944997 123.2519988  31.1380012  23.8064997 123.1009988
  32.3740012  24.5514997 123.5589988  31.9887583  23.8255981 123.2728337
  29.6980012  31.0644997 136.2899988  29.3530012  30.6834997 137.0969988
  29.4980012  31.9984997 136.3609988  29.6237527  31.1385135 136.4100689
  32.7950012  25.5614997 124.9129988  33.6870012  25.4244997 125.2319988
  32.8520012  26.3524997 124.3759988  32.9246504  25.6496052 124.8840818
  23.3040012  30.1754997 130.8229988  24.0490012  30.1734997 130.2219988
  23.3820012  29.3524997 131.3039988  23.4164995  30.0638887 130.8058282
  30.3050012  32.3394997 124.0789988  30.0090012  33.1654997 124.4599988
  29.6020012  31.7194997 124.2749988  30.1694914  32.3688199 124.1576443
  20.3120012  28.6364997 136.1379988  20.5350012  28.2184997 136.9699988
  19.7100012  28.0234997 135.7149988  20.2611759  28.4964668 136.1947022
  27.3280012  28.1534997 138.3509988  27.0320012  27.9874997 137.4559988
  28.2600012  27.9334997 138.3399988  27.4134166  28.1010640 138.2270536
  31.9490012  33.5264997 136.2409988  31.0480012  33.7094997 135.9729988
  31.9830012  33.7854997 137.1609988  31.8303139  33.5865849 136.3288099
  37.6800012  25.7714997 124.6079988  37.1260012  25.3754997 123.9359988
  37.7800012  26.6814997 124.3299988  37.6177059  25.8403586 124.4784401
  37.6430012  31.5714997 137.4449988  36.7920012  31.8094997 137.0779988
  38.2340012  31.5544997 136.6919988  37.6062487  31.6018258 137.2928893
  35.9750012  34.5574997 125.0729988  35.6020012  33.7314997 125.3819988
  36.2530012  34.3744997 124.1749988  35.9615222  34.4197430 124.9939473
  33.1360012  29.3654997 132.0939988  32.2070012  29.1334997 132.0669988
  33.5870012  28.5884997 131.7639988  33.0699216  29.2287238 132.0456917
  25.6790012  33.6934997 128.2269988  26.2060012  34.4664997 128.0269988
  24.7990012  33.9184997 127.9249988  25.6322031  33.8297545 128.1587912
  21.4340012  28.5554997 122.8139988  22.0500012  29.1824997 123.1939988
  20.5720012  28.8714997 123.0859988  21.4017698  28.6839430 122.9027183
  27.1060012  31.3564997 127.8029988  26.8650012  32.2814997 127.8449988
  26.3650012  30.8974997 128.1999988  26.9729225  31.4210933 127.8623742
  27.6210012  35.5054997 134.1189988  27.9830012  36.3604997 133.8849988
  28.1520012  35.2134997 134.8589988  27.7424473  35.5831060 134.1870855
  25.7890012  36.3784997 127.3489988  24.8390012  36.4834997 127.3999988
  26.1410012  37.1984997 127.6929988  25.7064195  36.5038800 127.4025502
  31.1650012  31.6044997 133.8189988  30.7390012  31.3774997 134.6459988
  31.7450012  30.8664997 133.6369988  31.1851868  31.4735299 133.9075830
  33.3680012  32.5334997 122.8929988  33.7210012  32.1534997 123.6969988
  32.4190012  32.4404997 122.9799988  33.2880918  32.4688956 123.0148532
  33.8230012  36.1564997 136.2889988  33.2220012  35.6014997 135.7929988
  34.1050012  36.8234997 135.6619988  33.7788804  36.1706625 136.1364849
  37.8710012  37.0134997 123.0939988  38.6150012  37.5994997 122.9539988
  37.1770012  37.5814997 123.4269988  37.8789899  37.1705798 123.1198778
  21.9460012  23.3894997 135.6959988  21.0530012  23.7284997 135.6279988
  21.8470012  22.5344997 136.1139988  21.8104164  23.3202588 135.7432235
  34.2340012  31.2064997 125.1199988  33.9560012  30.4784997 125.6759988
  35.1610012  31.3254997 125.3249988  34.3213124  31.1228802 125.2238845
  21.5970012  35.1944997 134.1309988  21.8140012  34.2624997 134.0999988
  21.8430012  35.4684997 135.0139988  21.6599549  35.1040636 134.2461763
  27.4590012  33.6454997 121.3399988  27.6980012  32.8974997 120.7929988
  27.1900012  33.2574997 122.1729988  27.4553675  33.4906638 121.3776865
  26.3960012  33.2154997 123.7959988  26.5420012  32.6954997 124.5859988
  26.3930012  34.1224997 124.1029988  26.4155792  33.2668842 123.9456117
  22.8490012  30.4684997 124.3069988  22.1630012  30.8204997 124.8739988
  23.3710012  31.2314997 124.0599988  22.8256852  30.6198578 124.3512118
  30.6800012  23.1304997 134.5859988  31.3790012  23.2044997 135.2359988
  30.2990012  22.2664997 134.7399988  30.7241767  23.0237624 134.6958322
  31.4650012  22.7824997 125.6829988  31.6850012  23.2544997 124.8799988
  32.0230012  23.1774997 126.3529988  31.5704968  22.9004285 125.6637331
  29.1330012  34.9134997 124.5459988  28.3170012  35.4104997 124.5979988
  29.6630012  35.3884997 123.9059988  29.0929161  35.0457722 124.4665956
  28.6650012  24.5104997 126.5179988  29.4770012  25.0154997 126.5639988
  28.4200012  24.3654997 127.4319988  28.7430520  24.5600375 126.6478517
  29.2000012  25.4964997 135.7019988  29.3190012  26.0704997 136.4599988
  29.8560012  24.8084997 135.8169988  29.3049025  25.4819858 135.8211321
  29.5480012  21.5914997 127.4559988  29.2020012  22.2094997 128.0999988
  30.2070012  22.0924997 126.9739988  29.5896968  21.7436278 127.4789383
  26.4720012  35.9574997 124.5269988  26.6320012  36.7564997 124.0269988
  26.2740012  36.2634997 125.4119988  26.4671637  36.1084020 124.5781144
  25.2060012  22.6544997 124.1429988  25.1230012  23.5434997 124.4899988
  26.0960012  22.3894997 124.3749988  25.3149469  22.7401430 124.2217626
  35.4050012  23.4034997 136.5369988  34.4880012  23.6664997 136.4499988
  35.7400012  23.4004997 135.6409988  35.3248613  23.4390761 136.4038837
  34.0070012  27.1544997 130.6329988  33.2090012  26.7394997 130.3049988
  34.4520012  26.4634997 131.1239988  33.9579885  27.0043543 130.6544889
  23.4650012  33.0824997 123.2039988  24.0570012  33.7814997 123.4799988
  23.9240012  32.6494997 122.4839988  23.6081142  33.1197049 123.1444830
  21.7810012  25.7464997 122.3199988  21.7360012  26.6854997 122.4979988
  20.8930012  25.5104997 122.0499988  21.6548574  25.8431892 122.3078912
  35.0930012  36.4104997 132.2559988  34.9380012  37.0884997 131.5979988
  36.0260012  36.4824997 132.4589988  35.1978657  36.5129546 132.1934360
  22.5890012  20.5284997 130.9929988  22.3600012  20.5874997 130.0649988
  22.1460012  19.7364997 131.2989988  22.4978530  20.4295753 130.9074786
  21.5190012  34.4684997 127.1529988  20.6870012  34.9414997 127.1799988
  22.0650012  34.9784997 126.5549988  21.4790352  34.6021332 127.0758463
  20.8070012  37.0814997 138.4829988  21.3480012  36.8644997 139.2429988
  20.3260012  36.2754997 138.2929988  20.8159951  36.9429270 138.5612576
  25.4050012  36.0004997 140.1029988  26.1720012  35.5414997 140.4439988
  25.3830012  35.7744997 139.1739988  25.5071275  35.9070186 140.0240101
  29.4970012  35.5084997 121.4789988  28.8530012  34.8774997 121.7999988
  30.2590012  34.9774997 121.2469988  29.5118077  35.3502920 121.4916011
  31.9820012  34.3804997 138.8329988  31.6310012  33.5244997 139.0759988
  32.7080012  34.5234997 139.4399988  32.0320769  34.2825636 138.9483619
  34.1010012  35.3254997 121.7119988  34.3840012  34.5314997 122.1649988
  34.8410012  35.5584997 121.1519988  34.2398006  35.2483376 121.6982715
  20.7140012  30.8914997 139.4369988  20.8580012  29.9894997 139.1509988
  19.9420012  31.1774997 138.9499988  20.6292753  30.8066816 139.3319505
  25.0560012  31.2354997 121.5699988  25.1200012  30.4414997 122.1009988
  25.7090012  31.1164997 120.8799988  25.1530241  31.1107148 121.5494317
  27.3700012  30.8614997 138.8699988  27.0410012  31.1324997 138.0129988
  27.5220012  29.9204997 138.7829988  27.3454809  30.7713862 138.7408244
  30.4080012  32.2824997 121.3059988  30.1390012  32.4624997 122.2069988
  30.2020012  31.3564997 121.1739988  30.3433427  32.1820261 121.4115073
  33.1040012  30.7774997 136.2529988  33.8500012  31.3654997 136.1339988
  32.3470012  31.3594997 136.3169988  33.1037820  30.9367143 136.2453590
  21.5470012  28.0914997 138.8569988  21.9550012  27.2344997 138.7359988
  21.2870012  28.1064997 139.7779988  21.5677568  27.9760807 138.9649588
  26.2050012  29.2074997 123.8759988  25.7450012  28.7234997 124.5619988
  26.4600012  28.5394997 123.2399988  26.1764902  29.0508731 123.8839334
  25.4940012  27.1004997 136.2319988  24.8760012  27.7754997 136.5119988
  25.8380012  27.4214997 135.3979988  25.4559132  27.2362411 136.1576262
  27.2760012  27.4504997 122.1379988  27.0960012  27.2964997 121.2109988
  28.2260012  27.5584997 122.1829988  27.3797776  27.4440175 122.0171843
  30.5140012  29.5724997 139.5089988  31.4670012  29.6554997 139.4819988
  30.3530012  28.8604997 140.1289988  30.6226426  29.4876746 139.5890578
  36.6660012  29.8054997 121.5839988  36.3920012  29.3804997 120.7709988
  36.7050012  30.7364997 121.3669988  36.6337699  29.8732484 121.4433610
  25.8330012  24.4554997 137.3139988  25.9830012  23.7264997 136.7119988
  25.8360012  25.2324997 136.7549988  25.8539302  24.4607851 137.1560692
  26.2460012  22.8254997 134.8069988  26.7820012  23.2764997 134.1549988
  25.3940012  22.7174997 134.3839988  26.2042178  22.8726390 134.6605756
  27.8280012  28.2644997 135.0459988  28.5780012  28.1084997 134.4729988
  27.4890012  29.1164997 134.7709988  27.8848921  28.3582968 134.9303561
  32.2430012  26.0794997 140.0749988  32.4360012  25.1484997 139.9629988
  33.1010012  26.5044997 140.0639988  32.3852934  26.0096531 140.0582031
  33.5600012  28.8684997 138.1519988  33.2790012  29.5774997 137.5739988
  34.5030012  28.7954997 138.0009988  33.6489291  28.9556711 138.0524967
  24.3120012  25.6534997 139.2259988  23.5450012  25.1214997 139.0149988
  24.9910012  25.3434997 138.6259988  24.2987877  25.5388300 139.1160716
  27.0520012  20.2814997 135.2379988  26.9530012  21.2284997 135.1329988
  26.3090012  19.9094997 134.7619988  26.9381184  20.3605863 135.1593621
  28.3160012  24.6034997 138.8019988  28.0800012  24.3834997 139.7029988
  27.5320012  24.3964997 138.2919988  28.1778504  24.5454586 138.8563431
  31.0310012  23.7304997 137.8769988  30.0840012  23.7624997 138.0099988
  31.3440012  23.1054997 138.5309988  30.9436707  23.6503998 137.9836060
  32.6650012  22.3644997 139.8829988  32.5690012  21.4124997 139.8769988
  32.3440012  22.6334997 140.7429988  32.6084070  22.2704035 139.9985441
  22.4920012  23.5744997 138.9299988  22.7040012  22.8674997 138.3199988
  22.3810012  23.1364997 139.7739988  22.5059721  23.4187084 138.9606843
  27.2730012  19.5754997 137.9089988  27.9850012  18.9354997 137.8949988
  27.1720012  19.8424997 136.9959988  27.3568066  19.5240079 137.7835677
  27.6270012  21.2584997 139.9629988  27.4950012  20.7824997 139.1429988
  27.0280012  22.0024997 139.9079988  27.5279071  21.2939618 139.8432886
  27.1730012  38.1414997 123.1389988  28.1060012  38.2994997 123.2829988
  26.9090012  38.8164997 122.5149988  27.2649888  38.2544510 123.0742842
  20.7420012  32.7774997 122.6219988  21.6560012  32.8564997 122.8959988
  20.7490012  32.0904997 121.9559988  20.8681131  32.6953961 122.5694393
  19.3910012  38.1704997 127.6999988  18.7440012  37.7084997 127.1669988
  19.7450012  37.4984997 128.2819988  19.3503849  38.0164723 127.7057959
  20.2610012  36.2514997 129.5039988  19.9260012  35.3714997 129.6759988
  20.4830012  36.5964997 130.3689988  20.2451783  36.1777500 129.6444208
  37.8090012  37.0604997 132.4849988  37.7880012  37.2454997 133.4239988
  38.5000012  37.6294997 132.1439988  37.8994618  37.1626606 132.5673864
  37.3730012  36.6284997 135.4069988  36.8850012  35.8924997 135.0349988
  37.9220012  36.2344997 136.0849988  37.3804820  36.4745889 135.4477813
  35.8230012  32.4174997 140.0449988  34.9570012  32.3124997 140.4389988
  36.2000012  33.1764997 140.4909988  35.7553308  32.5056900 140.1592393
  37.1240012  30.6744997 125.5589988  37.9740012  31.0954997 125.6859988
  37.1300012  29.9344997 126.1659988  37.2411372  30.6320803 125.6584344
  37.5190012  28.7274997 127.3819988  36.7920012  28.2484997 127.7799988
  38.1000012  28.9334997 128.1149988  37.4980473  28.6898103 127.5354528
  37.2780012  31.5124997 132.3299988  38.1110012  31.1344997 132.0499988
  37.3900012  32.4554997 132.2109988  37.4072647  31.5882218 132.2755487
  35.7640012  34.3904997 134.6369988  35.1170012  34.7154997 135.2629988
  35.2470012  33.9504997 133.9629988  35.6054029  34.3755004 134.6315827
  37.7870012  28.6284997 123.7739988  37.2650012  28.9854997 123.0549988
  37.7540012  29.3034997 124.4519988  37.7111634  28.7685413 123.7673145
  36.1360012  25.8684997 122.3239988  36.2320012  26.5354997 121.6439988
  35.9960012  25.0524997 121.8429988  36.1302272  25.8495655 122.1658347
  35.3050012  27.2484997 127.9449988  35.1550012  26.3034997 127.9249988
  34.9520012  27.5294997 128.7889988  35.2367448  27.1571481 128.0563705
  20.3410012  29.3264997 131.9559988  20.5250012  29.2444997 131.0199988
  21.1900012  29.2024997 132.3789988  20.4810151  29.2985073 131.8851451
  36.1620012  29.2184997 137.5839988  36.7450012  28.4844997 137.7759988
  36.7260012  29.9904997 137.6309988  36.3179769  29.2224227 137.6166159
  37.6580012  27.1214997 138.2689988  36.7950012  26.7424997 138.1029988
  38.2630012  26.3824997 138.1939988  37.6216119  26.9698268 138.2361528
  35.3830012  23.2764997 121.4419988  35.9940012  22.9054997 122.0789988
  34.5470012  22.8554997 121.6379988  35.3535032  23.1687554 121.5557035
  35.0160012  24.8314997 126.4079988  35.2960012  23.9244997 126.5319988
  35.7750012  25.2654997 126.0189988  35.1569277  24.7660942 126.3723682
  35.6280012  25.4124997 131.8439988  36.5610012  25.6244997 131.8089988
  35.3930012  25.5144997 132.7659988  35.7239244  25.4553100 131.9638892
  35.6570012  26.1494997 134.6199988  34.8140012  26.4174997 134.9859988
  36.0990012  26.9714997 134.4089988  35.6014158  26.2973291 134.6415491
  19.9380012  24.5974997 138.0969988  20.8580012  24.4754997 138.3329988
  19.4890012  23.8474997 138.4859988  20.0031580  24.4793727 138.1819006
  37.9400012  20.1294997 139.9729988  38.2900012  19.4754997 139.3679988
  38.0870012  20.9664997 139.5329988  38.0077887  20.1531548 139.8306858
  35.6290012  22.0944997 126.4559988  35.8120012  21.6454997 127.2819988
  35.0300012  21.5094997 125.9929988  35.5730202  21.9539975 126.5063275
  21.1590012  22.9094997 130.9879988  21.6050012  22.1174997 131.2899988
  21.6260012  23.6254997 131.4179988  21.2830831  22.8980685 131.0874006
  19.4630012  25.9084997 132.0569988  19.9550012  25.6874997 131.2659988
  19.8260012  26.7494997 132.3379988  19.5793126  25.9918357 131.9867531
  37.4600012  22.2384997 138.3219988  36.5420012  22.5094997 138.2869988
  37.5830012  21.7034997 137.5379988  37.3509729  22.2032508 138.2111923
  37.4960012  22.1614997 122.9839988  37.9080012  21.4404997 122.5089988
  38.1780012  22.8314997 123.0429988  37.6445885  22.1532368 122.9268915
  19.7770012  22.1664997 126.1109988  18.8520012  22.3754997 125.9819988
  20.2310012  22.6504997 125.4209988  19.7117292  22.2605343 126.0000720
  34.5480012  37.1504997 128.0569988  35.2000012  36.8034997 127.4489988
  35.0580012  37.6394997 128.7029988  34.7062637  37.1690597 128.0610236
  19.7410012  20.9044997 134.4549988  19.0760012  20.6584997 135.0989988
  19.2980012  21.5264997 133.8779988  19.5901318  20.9549410 134.4650898
  21.9330012  34.0794997 138.5999988  21.1120012  34.2544997 138.1389988
  21.6800012  34.0064997 139.5199988  21.7865585  34.0935544 138.6613561
  24.8870012  35.0544997 134.8579988  24.4620012  35.8634997 134.5759988
  25.7910012  35.1394997 134.5559988  24.9509975  35.1769300 134.7784816
  29.1980012  36.4534997 137.8179988  29.3830012  36.1194997 138.6959988
  30.0440012  36.7624997 137.4959988  29.3377539  36.4496047 137.8945605
  31.5430012  37.7394997 137.0619988  32.2200012  37.1064997 136.8219988
  31.8650012  38.1404997 137.8689988  31.6791637  37.7071154 137.1382793
  36.4600012  20.3284997 136.1409988  35.6480012  20.6534997 135.7539988
  36.6930012  19.5684997 135.6079988  36.3802203  20.2702758 136.0158880
  22.2890012  38.3104997 134.9059988  21.5680012  38.7504997 134.4549988
  21.9230012  38.0594997 135.7539988  22.1409651  38.3367242 134.9589640
  24.7560012  37.9104997 133.9359988  23.8910012  37.9824997 134.3399988
  24.7010012  38.4574997 133.1519988  24.6302085  37.9942685 133.8853362
  29.4660012  37.7984997 133.1109988  29.0100012  38.3274997 132.4569988
  29.6290012  38.4014997 133.8359988  29.4256068  37.9524607 133.1194838
  31.7940012  36.6764997 134.0559988  30.8890012  36.8414997 133.7899988
  32.2230012  37.5294997 133.9909988  31.7281324  36.8144339 134.0107976
  34.3980012  38.2464997 134.3509988  34.2160012  39.1624997 134.1409988
  34.5750012  37.8364997 133.5049988  34.3970210  38.3164822 134.2077885
  21.7030012  36.9334997 131.8159988  21.6850012  36.5084997 132.6729988
  22.5080012  36.6154997 131.4069988  21.8093529  36.8323013 131.8780946
  23.8450012  35.6434997 130.4709988  23.6260012  34.7274997 130.6409988
  24.6690012  35.7834997 130.9369988  23.9264420  35.5370520 130.5572773
  26.3820012  36.1134997 131.3199988  26.5950012  35.2254997 131.0329988
  26.4460012  36.0794997 132.2739988  26.4198231  35.9873102 131.4097397
  29.8900012  21.7774997 130.4639988  29.2160012  21.1484997 130.7199988
  30.4540012  21.2934997 129.8609988  29.8739230  21.6258744 130.4175340
  35.0330012  19.8854997 130.5769988  35.6370012  20.4324997 130.0749988
  34.1630012  20.2044997 130.3359988  34.9981208  20.0035137 130.4756886
  36.7600012  21.0234997 128.9099988  37.3720012  20.5094997 128.3829988
  37.1420012  21.9014997 128.9329988  36.8953371  21.0717866 128.8410041
  22.2170012  20.4114997 128.2859988  21.4400012  20.1774997 127.7789988
  22.7470012  19.6144997 128.2949988  22.1822330  20.2716988 128.2177742
  21.0530012  20.2094997 124.0899988  21.4920012  20.8204997 123.4979988
  20.4200012  20.7474997 124.5639988  21.0274514  20.3659257 124.0730930
  26.7960012  20.3384997 128.0999988  27.6710012  20.7264997 128.0699988
  26.6600012  20.1234997 129.0219988  26.8973695  20.3625184 128.2206440
  32.3530012  20.3684997 129.7489988  32.4290012  20.4634997 128.7989988
  32.0780012  19.4604997 129.8779988  32.3262321  20.2587867 129.6365079
  33.7060012  20.3944997 125.4409988  33.0040012  21.0094997 125.2309988
  33.2620012  19.5564997 125.5719988  33.5496450  20.3655639 125.4299000
  20.9540012  36.1574997 124.9869988  20.2690012  36.1194997 124.3199988
  20.9580012  37.0704997 125.2759988  20.8606998  36.2756733 124.9346771
  22.9140012  22.1254997 122.5319988  23.4060012  21.4954997 122.0049988
  23.5380012  22.4214997 123.1949988  23.0655688  22.0793804 122.5495482
  27.9400012  22.4184997 124.9889988  28.1180012  21.7724997 125.6719988
  27.8870012  23.2524997 125.4559988  27.9571999  22.4428009 125.1455917
  29.8190012  37.3674997 123.3849988  30.6850012  37.7334997 123.2069988
  29.5720012  36.9274997 122.5709988  29.9042392  37.3581756 123.2506289
  36.5280012  36.9304997 126.0639988  36.3330012  36.1824997 125.4989988
  36.4890012  37.6884997 125.4809988  36.4960380  36.9306099 125.9078384
  22.1750012  20.9254997 137.8039988  21.8090012  20.1604997 138.2459988
  23.0880012  20.9544997 138.0899988  22.2482736  20.8245640 137.9032502
  24.1480012  20.2764997 139.3399988  25.0460012  20.0024997 139.1549988
  23.7610012  19.5334997 139.8039988  24.2186612  20.1385914 139.3773643
  22.7720012  37.0774997 122.0129988  22.5050012  37.3644997 122.8859988
  23.5440012  36.5314997 122.1649988  22.8397488  37.0430294 122.1531050
  32.5690012  19.6084997 139.5219988  32.6460012  19.1824997 140.3759988
  33.4630012  19.6224997 139.1789988  32.7003428  19.5520879 139.5925310
  35.7450012  35.6814997 138.2139988  34.9630012  35.4954997 137.6939988
  35.6730012  36.6104997 138.4319988  35.6282274  35.7816643 138.1723018
  50.1510012  29.5674997 128.2449988  50.2400012  30.5114997 128.1129988
  49.5130012  29.2924997 127.5869988  50.0769081  29.6594830 128.1379614
  49.0840012  28.8224997 131.6639988  49.0460012  28.1764997 132.3689988
  48.7620012  28.3564997 130.8929988  49.0352333  28.6709408 131.6562978
  41.4530012  28.4374997 133.2569988  41.4940012  27.8114997 133.9799988
  42.1560012  29.0614997 133.4389988  41.5536363  28.4361196 133.3806044
  52.7900012  31.7614997 129.9649988  52.3500012  31.0414997 130.4159988
  52.7770012  32.4824997 130.5949988  52.7280226  31.7603731 130.1118494
  42.3760012  32.8874997 131.7919988  42.0070012  32.0854997 131.4219988
  43.3170012  32.7184997 131.8379988  42.4527289  32.7550153 131.7476316
  38.9860012  26.5474997 127.1849988  38.5390012  27.3934997 127.1659988
  38.4250012  25.9674997 126.6689988  38.8489900  26.5849916 127.1126801
  39.6970012  28.7094997 129.3099988  39.9100012  27.9394997 129.8379988
  40.4350012  28.7984997 128.7069988  39.8259044  28.6161968 129.3007123
  49.9020012  36.8664997 130.1769988  50.5220012  36.1894997 129.9039988
  49.6940012  36.6484997 131.0859988  49.9586726  36.7444800 130.2624812
  47.4740012  31.2554997 132.0699988  47.7780012  30.5694997 131.4749988
  48.1950012  31.3734997 132.6879988  47.6130671  31.1776304 132.0721816
  56.1370012  22.8564997 132.9309988  56.1860012  23.4664997 133.6659988
  56.5620012  23.3174997 132.2079988  56.2011746  23.0023796 132.9339175
  50.6150012  25.6494997 132.3969988  50.7570012  24.7034997 132.4179988
  50.5080012  25.8564997 131.4689988  50.6199919  25.5478246 132.2743408
  43.7690012  23.7504997 129.6699988  43.8130012  24.6104997 129.2509988
  43.3120012  23.1984997 129.0359988  43.7132240  23.7934422 129.5269864
  51.4920012  23.8814997 128.0709988  52.1380012  23.5524997 128.6949988
  52.0020012  24.3994997 127.4479988  51.6494299  23.9064450 128.0722731
  40.3900012  26.1474997 130.4319988  41.0430012  25.5974997 130.8639988
  40.4140012  25.8734997 129.5149988  40.4826683  26.0351466 130.3672123
  45.5460012  27.6974997 129.6469988  46.1620012  27.1714997 130.1569988
  44.9600012  27.0574997 129.2439988  45.5510810  27.5389208 129.6623173
  56.5280012  24.3344997 135.1659988  55.8400012  24.9924997 135.0709988
  56.5440012  24.1374997 136.1029988  56.4359540  24.3979819 135.2795990
  42.5800012  22.6684997 133.7439988  42.3610012  23.1984997 132.9779988
  41.9120012  22.8954997 134.3909988  42.4597600  22.7716906 133.7266379
  49.9490012  32.1684997 127.2879988  49.6530012  31.8464997 126.4369988
  49.6240012  33.0684997 127.3289988  49.8646371  32.2460215 127.1771801
  45.1490012  30.3444997 134.0309988  44.4090012  30.9424997 134.1349988
  45.8630012  30.8984997 133.7159988  45.1442237  30.5012831 134.0026465
  53.2560012  23.1724997 130.0509988  53.0400012  22.4064997 130.5839988
  53.9110012  23.6444997 130.5639988  53.3150632  23.1315889 130.1932861
  42.1730012  24.5604997 131.6959988  42.7870012  25.1934997 132.0689988
  42.6850012  24.0884997 131.0399988  42.3261981  24.5832267 131.6582908
  43.5560012  32.3084997 134.8179988  43.5510012  33.1884997 134.4399988
  42.7030012  32.2254997 135.2429988  43.4399464  32.4176117 134.8237907
  39.6770012  31.9794997 125.5999988  39.4050012  32.2084997 124.7119988
  39.7230012  32.8174997 126.0609988  39.6459482  32.1241318 125.5406273
  53.3020012  33.6014997 132.3129988  52.3610012  33.6594997 132.4749988
  53.5790012  34.5074997 132.1759988  53.2104679  33.7319443 132.3166815
  53.6030012  21.8874997 133.7309988  52.8670012  22.4984997 133.6929988
  54.2860012  22.3024997 133.2039988  53.5946541  22.0271374 133.6545832
  46.6060012  19.9744997 131.1959988  46.4890012  19.0254997 131.1419988
  45.7510012  20.3064997 131.4699988  46.4744212  19.8895571 131.2256497
  51.5540012  35.3824997 128.9379988  51.9800012  34.6754997 128.4529988
  51.8710012  36.1834997 128.5219988  51.6551683  35.3941017 128.8153680
  52.7140012  33.2834997 127.4469988  52.4560012  32.5934997 126.8359988
  52.7850012  32.8404997 128.2929988  52.6882856  33.1292124 127.4776885
  54.4000012  31.8494997 135.9239988  54.5400012  31.2584997 135.1849988
  54.5670012  32.7224997 135.5679988  54.4417411  31.8865428 135.7746894
  48.8730012  28.8114997 125.6969988  48.1610012  29.3464997 125.3449988
  49.5640012  28.8674997 125.0369988  48.8690132  28.8922543 125.5596289
  48.9260012  27.2694997 122.7359988  49.6270012  27.2914997 123.3869988
  49.2290012  26.6414997 122.0789988  49.0628133  27.1877070 122.7363369
  56.2420012  28.1894997 133.9899988  55.5890012  28.8844997 134.0799988
  56.7070012  28.3994997 133.1809988  56.2155274  28.3130643 133.8928462
  52.2780012  29.0214997 126.6489988  51.5460012  29.2494997 127.2219988
  52.7260012  28.3074997 127.1029988  52.2382725  28.9562145 126.7888816
  52.1760012  27.1954997 135.7159988  52.2560012  27.9584997 136.2879988
  51.5740012  27.4744997 135.0259988  52.1055756  27.3377134 135.7010589
  43.9240012  29.6514997 128.5309988  43.5930012  29.2814997 127.7129988
  44.5120012  28.9814997 128.8779988  43.9581873  29.5101156 128.4658102
  45.2900012  33.0794997 131.2119988  45.1960012  32.5014997 130.4559988
  46.0200012  32.7084997 131.7089988  45.3757387  32.9501663 131.1755342
  44.2900012  28.4204997 132.1649988  44.8560012  28.5414997 131.4019988
  44.6090012  29.0574997 132.8029988  44.4105474  28.5232219 132.1469862
  50.5990012  33.9234997 132.8989988  50.3590012  34.5854997 133.5469988
  50.4010012  33.0894997 133.3239988  50.5393808  33.9013134 133.0451524
  45.1700012  32.8194997 136.8819988  44.8590012  33.6014997 137.3369988
  44.5200012  32.6664997 136.1959988  45.0395558  32.9059105 136.8515871
  51.1490012  28.1834997 124.3339988  51.7290012  28.3334997 125.0809988
  51.5630012  28.6544997 123.6099988  51.2842997  28.2676578 124.3384058
  42.0900012  29.0174997 136.1099988  42.1610012  29.6684997 136.8089988
  41.2000012  29.1204997 135.7749988  41.9793005  29.1205427 136.1603495
  48.8760012  34.9204997 127.7689988  49.3500012  35.2154997 128.5459988
  48.3130012  35.6584997 127.5359988  48.8648184  35.0607247 127.8439628
  43.4100012  34.8914997 137.6449988  43.4170012  34.7554997 136.6979988
  42.4940012  34.7734997 137.8969988  43.2871714  34.8569430 137.5494666
  54.8480012  19.9334997 124.1469988  53.9480012  20.0724997 124.4419988
  55.1000012  20.7644997 123.7449988  54.7588702  20.0649074 124.1330205
  42.9140012  28.7214997 126.1199988  42.6220012  29.4894997 125.6299988
  42.2400012  28.0614997 125.9579988  42.7828111  28.7375587 126.0308978
  56.0370012  34.2994997 122.5229988  56.1110012  35.2384997 122.6939988
  56.9430012  33.9944997 122.4669988  56.1695100  34.3866722 122.5388119
  39.0070012  31.0844997 134.9349988  38.5060012  31.0564997 134.1199988
  39.0120012  30.1784997 135.2449988  38.9390944  30.9582396 134.8653226
  38.7570012  33.8644997 131.8189988  39.7030012  33.7204997 131.7999988
  38.6450012  34.6484997 132.3559988  38.8712727  33.9508046 131.8890072
  56.9550012  34.5304997 137.5019988  56.9060012  33.5754997 137.4649988
  56.1280012  34.7984997 137.9029988  56.8364940  34.4358998 137.5511375
  47.9340012  34.1044997 136.3779988  48.0210012  34.9304997 136.8529988
  47.0700012  33.7744997 136.6269988  47.8291964  34.1729878 136.4766549
  48.3480012  37.8764997 126.1839988  48.2730012  37.7554997 125.2369988
  48.3810012  38.8264997 126.3019988  48.3422068  37.9882646 126.0704967
  42.0010012  36.6654997 127.9649988  42.1540012  36.3174997 128.8429988
  41.1510012  36.3094997 127.7099988  41.9069166  36.5696216 128.0508079
  51.4500012  37.0304997 123.1859988  51.8250012  36.2864997 122.7149988
  51.4540012  36.7604997 124.1049988  51.5019125  36.8920986 123.2456483
  51.1190012  36.9564997 125.9349988  50.1830012  37.0564997 126.1139988
  51.3990012  36.2474997 126.5139988  51.0289553  36.8743406 126.0377087
  54.1070012  26.0234997 137.9819988  53.7000012  26.5044997 137.2609988
  54.1480012  25.1184997 137.6739988  54.0568437  25.9669374 137.8416683
  41.2560012  32.4074997 135.9789988  41.4720012  32.0464997 136.8379988
  40.4010012  32.0334997 135.7689988  41.1699292  32.3074111 136.0683386
  43.8750012  20.8774997 131.9739988  43.0130012  20.7904997 131.5659988
  43.8520012  21.7334997 132.4019988  43.7540409  20.9812883 131.9760589
  48.5380012  20.5994997 135.3489988  48.9580012  20.1844997 136.1019988
  47.6050012  20.4214997 135.4659988  48.4693644  20.5185900 135.4679539
  51.8640012  24.3554997 136.2019988  51.3500012  24.2294997 136.9999988
  51.7090012  25.2674997 135.9579988  51.7726852  24.4616132 136.2782158
  52.6270012  29.2164997 121.9639988  52.6690012  28.9934997 121.0339988
  53.4760012  29.6154997 122.1529988  52.7475280  29.2399438 121.8623554
  48.1990012  23.0924997 122.6339988  47.9460012  23.1114997 123.5569988
  47.9430012  22.2204997 122.3319988  48.1297481  22.9772558 122.7196175
  43.9660012  25.8434997 133.0689988  43.3240012  25.8024997 133.7779988
  44.0030012  26.7694997 132.8309988  43.8830664  25.9631430 133.1339219
  43.9630012  26.0644997 127.9809988  43.0700012  25.7234997 127.9219988
  44.4130012  25.6874997 127.2249988  43.9018130  25.9669631 127.8707702
  49.4980012  26.4804997 126.7979988  49.0890012  27.2954997 126.5069988
  50.2190012  26.3404997 126.1839988  49.5394537  26.5732018 126.6751342
  48.6000012  26.6554997 138.2859988  48.0380012  25.9514997 138.6069988
  49.4270012  26.5354997 138.7539988  48.6347095  26.5427883 138.3932330
  50.5030012  25.9264997 129.6119988  50.3080012  26.5314997 128.8969988
  50.6840012  25.0924997 129.1779988  50.5007614  25.8966300 129.4554405
  41.7160012  26.1634997 134.9359988  41.6780012  26.5634997 135.8049988
  41.2250012  25.3464997 135.0269988  41.6444684  26.1078069 135.0671059
  45.0820012  23.5374997 121.7349988  44.6510012  23.0924997 122.4649988
  44.3640012  23.9094997 121.2229988  44.9259438  23.5268940 121.7656799
  38.3240012  23.2794997 128.7869988  38.9550012  23.2504997 129.5059988
  38.7730012  22.8544997 128.0559988  38.4710918  23.2180836 128.7866441
  39.5980012  24.0254997 124.2109988  40.0720012  24.6164997 123.6259988
  38.8810012  24.5564997 124.5579988  39.5659341  24.1780867 124.1778836
  49.7670012  27.5644997 134.2829988  50.0900012  26.9334997 133.6399988
  49.3270012  27.0294997 134.9439988  49.7517484  27.4058387 134.2843198
  46.5440012  23.4914997 129.0669988  45.6330012  23.5484997 129.3559988
  47.0500012  23.4314997 129.8779988  46.4876899  23.4911941 129.2161184
  41.3730012  25.1204997 127.8939988  40.4830012  25.2204997 127.5539988
  41.6690012  24.2784997 127.5479988  41.2912823  25.0203545 127.8007213
  45.0260012  25.1204997 125.5509988  45.9570012  25.2494997 125.7289988
  44.8110012  25.7904997 124.9009988  45.1244247  25.2286565 125.4875747
  50.9490012  22.7264997 132.3319988  50.2730012  22.8574997 132.9959988
  50.4640012  22.5714997 131.5209988  50.7907146  22.7235157 132.3134469
  43.7000012  26.3154997 123.1169988  43.1570012  25.9354997 122.4259988
  44.5330012  26.5094997 122.6889988  43.7383631  26.2897125 122.9644501
  54.2370012  38.3984997 138.6079988  54.4370012  38.8224997 137.7739988
  54.8920012  38.7414997 139.2149988  54.3530072  38.5029857 138.5758592
  41.8350012  30.8724997 138.2159988  42.5670012  31.1264997 138.7779988
  41.0550012  31.0764997 138.7319988  41.8297073  30.9348160 138.3626151
  47.8640012  26.2794997 130.9539988  48.4290012  25.7324997 130.4069988
  47.7170012  25.7574997 131.7429988  47.9213380  26.1342259 130.9858695
  42.8660012  22.4154997 127.3729988  42.5490012  21.5134997 127.3369988
  43.6480012  22.4174997 126.8199988  42.9282408  22.2922474 127.2933569
  46.4910012  24.6674997 133.3679988  45.6550012  25.1214997 133.4789988
  47.0150012  24.9434997 134.1199988  46.4475416  24.7668660 133.4848119
  47.0350012  30.8804997 125.0529988  46.2900012  30.3734997 124.7309988
  46.9010012  30.9294997 125.9999988  46.9148776  30.8176940 125.1368647
  54.1850012  30.0134997 133.8399988  54.8270012  30.4704997 133.2959988
  53.3550012  30.1264997 133.3769988  54.1605963  30.0912704 133.7030177
  50.9330012  23.6944997 123.2519988  49.9940012  23.8064997 123.1009988
  51.2300012  24.5514997 123.5589988  50.8447583  23.8255981 123.2728337
  48.5540012  31.0644997 136.2899988  48.2090012  30.6834997 137.0969988
  48.3540012  31.9984997 136.3609988  48.4797527  31.1385135 136.4100689
  51.6510012  25.5614997 124.9129988  52.5430012  25.4244997 125.2319988
  51.7080012  26.3524997 124.3759988  51.7806504  25.6496052 124.8840818
  42.1600012  30.1754997 130.8229988  42.9050012  30.1734997 130.2219988
  42.2380012  29.3524997 131.3039988  42.2724995  30.0638887 130.8058282
  49.1610012  32.3394997 124.0789988  48.8650012  33.1654997 124.4599988
  48.4580012  31.7194997 124.2749988  49.0254914  32.3688199 124.1576443
  39.1680012  28.6364997 136.1379988  39.3910012  28.2184997 136.9699988
  38.5660012  28.0234997 135.7149988  39.1171759  28.4964668 136.1947022
  46.1840012  28.1534997 138.3509988  45.8880012  27.9874997 137.4559988
  47.1160012  27.9334997 138.3399988  46.2694166  28.1010640 138.2270536
  50.8050012  33.5264997 136.2409988  49.9040012  33.7094997 135.9729988
  50.8390012  33.7854997 137.1609988  50.6863139  33.5865849 136.3288099
  56.5360012  25.7714997 124.6079988  55.9820012  25.3754997 123.9359988
  56.6360012  26.6814997 124.3299988  56.4737059  25.8403586 124.4784401
  56.4990012  31.5714997 137.4449988  55.6480012  31.8094997 137.0779988
  57.0900012  31.5544997 136.6919988  56.4622487  31.6018258 137.2928893
  54.8310012  34.5574997 125.0729988  54.4580012  33.7314997 125.3819988
  55.1090012  34.3744997 124.1749988  54.8175222  34.4197430 124.9939473
  51.9920012  29.3654997 132.0939988  51.0630012  29.1334997 132.0669988
  52.4430012  28.5884997 131.7639988  51.9259216  29.2287238 132.0456917
  44.5350012  33.6934997 128.2269988  45.0620012  34.4664997 128.0269988
  43.6550012  33.9184997 127.9249988  44.4882031  33.8297545 128.1587912
  40.2900012  28.5554997 122.8139988  40.9060012  29.1824997 123.1939988
  39.4280012  28.8714997 123.0859988  40.2577698  28.6839430 122.9027183
  45.9620012  31.3564997 127.8029988  45.7210012  32.2814997 127.8449988
  45.2210012  30.8974997 128.1999988  45.8289225  31.4210933 127.8623742
  46.4770012  35.5054997 134.1189988  46.8390012  36.3604997 133.8849988
  47.0080012  35.2134997 134.8589988  46.5984473  35.5831060 134.1870855
  44.6450012  36.3784997 127.3489988  43.6950012  36.4834997 127.3999988
  44.9970012  37.1984997 127.6929988  44.5624195  36.5038800 127.4025502
  50.0210012  31.6044997 133.8189988  49.5950012  31.3774997 134.6459988
  50.6010012  30.8664997 133.6369988  50.0411868  31.4735299 133.9075830
  52.2240012  32.5334997 122.8929988  52.5770012  32.1534997 123.6969988
  51.2750012  32.4404997 122.9799988  52.1440918  32.4688956 123.0148532
  52.6790012  36.1564997 136.2889988  52.0780012  35.6014997 135.7929988
  52.9610012  36.8234997 135.6619988  52.6348804  36.1706625 136.1364849
  56.7270012  37.0134997 123.0939988  57.4710012  37.5994997 122.9539988
  56.0330012  37.5814997 123.4269988  56.7349899  37.1705798 123.1198778
  40.8020012  23.3894997 135.6959988  39.9090012  23.7284997 135.6279988
  40.7030012  22.5344997 136.1139988  40.6664164  23.3202588 135.7432235
  53.0900012  31.2064997 125.1199988  52.8120012  30.4784997 125.6759988
  54.0170012  31.3254997 125.3249988  53.1773124  31.1228802 125.2238845
  40.4530012  35.1944997 134.1309988  40.6700012  34.2624997 134.0999988
  40.6990012  35.4684997 135.0139988  40.5159549  35.1040636 134.2461763
  46.3150012  33.6454997 121.3399988  46.5540012  32.8974997 120.7929988
  46.0460012  33.2574997 122.1729988  46.3113675  33.4906638 121.3776865
  45.2520012  33.2154997 123.7959988  45.3980012  32.6954997 124.5859988
  45.2490012  34.1224997 124.1029988  45.2715792  33.2668842 123.9456117
  41.7050012  30.4684997 124.3069988  41.0190012  30.8204997 124.8739988
  42.2270012  31.2314997 124.0599988  41.6816852  30.6198578 124.3512118
  49.5360012  23.1304997 134.5859988  50.2350012  23.2044997 135.2359988
  49.1550012  22.2664997 134.7399988  49.5801767  23.0237624 134.6958322
  50.3210012  22.7824997 125.6829988  50.5410012  23.2544997 124.8799988
  50.8790012  23.1774997 126.3529988  50.4264968  22.9004285 125.6637331
  47.9890012  34.9134997 124.5459988  47.1730012  35.4104997 124.5979988
  48.5190012  35.3884997 123.9059988  47.9489161  35.0457722 124.4665956
  47.5210012  24.5104997 126.5179988  48.3330012  25.0154997 126.5639988
  47.2760012  24.3654997 127.4319988  47.5990520  24.5600375 126.6478517
  48.0560012  25.4964997 135.7019988  48.1750012  26.0704997 136.4599988
  48.7120012  24.8084997 135.8169988  48.1609025  25.4819858 135.8211321
  48.4040012  21.5914997 127.4559988  48.0580012  22.2094997 128.0999988
  49.0630012  22.0924997 126.9739988  48.4456968  21.7436278 127.4789383
  45.3280012  35.9574997 124.5269988  45.4880012  36.7564997 124.0269988
  45.1300012  36.2634997 125.4119988  45.3231637  36.1084020 124.5781144
  44.0620012  22.6544997 124.1429988  43.9790012  23.5434997 124.4899988
  44.9520012  22.3894997 124.3749988  44.1709469  22.7401430 124.2217626
  54.2610012  23.4034997 136.5369988  53.3440012  23.6664997 136.4499988
  54.5960012  23.4004997 135.6409988  54.1808613  23.4390761 136.4038837
  52.8630012  27.1544997 130.6329988  52.0650012  26.7394997 130.3049988
  53.3080012  26.4634997 131.1239988  52.8139885  27.0043543 130.6544889
  42.3210012  33.0824997 123.2039988  42.9130012  33.7814997 123.4799988
  42.7800012  32.6494997 122.4839988  42.4641142  33.1197049 123.1444830
  40.6370012  25.7464997 122.3199988  40.5920012  26.6854997 122.4979988
  39.7490012  25.5104997 122.0499988  40.5108574  25.8431892 122.3078912
  53.9490012  36.4104997 132.2559988  53.7940012  37.0884997 131.5979988
  54.8820012  36.4824997 132.4589988  54.0538657  36.5129546 132.1934360
  41.4450012  20.5284997 130.9929988  41.2160012  20.5874997 130.0649988
  41.0020012  19.7364997 131.2989988  41.3538530  20.4295753 130.9074786
  40.3750012  34.4684997 127.1529988  39.5430012  34.9414997 127.1799988
  40.9210012  34.9784997 126.5549988  40.3350352  34.6021332 127.0758463
  39.6630012  37.0814997 138.4829988  40.2040012  36.8644997 139.2429988
  39.1820012  36.2754997 138.2929988  39.6719951  36.9429270 138.5612576
  44.2610012  36.0004997 140.1029988  45.0280012  35.5414997 140.4439988
  44.2390012  35.7744997 139.1739988  44.3631275  35.9070186 140.0240101
  48.3530012  35.5084997 121.4789988  47.7090012  34.8774997 121.7999988
  49.1150012  34.9774997 121.2469988  48.3678077  35.3502920 121.4916011
  50.8380012  34.3804997 138.8329988  50.4870012  33.5244997 139.0759988
  51.5640012  34.5234997 139.4399988  50.8880769  34.2825636 138.9483619
  52.9570012  35.3254997 121.7119988  53.2400012  34.5314997 122.1649988
  53.6970012  35.5584997 121.1519988  53.0958006  35.2483376 121.6982715
  39.5700012  30.8914997 139.4369988  39.7140012  29.9894997 139.1509988
  38.7980012  31.1774997 138.9499988  39.4852753  30.8066816 139.3319505
  43.9120012  31.2354997 121.5699988  43.9760012  30.4414997 122.1009988
  44.5650012  31.1164997 120.8799988  44.0090241  31.1107148 121.5494317
  46.2260012  30.8614997 138.8699988  45.8970012  31.1324997 138.0129988
  46.3780012  29.9204997 138.7829988  46.2014809  30.7713862 138.7408244
  49.2640012  32.2824997 121.3059988  48.9950012  32.4624997 122.2069988
  49.0580012  31.3564997 121.1739988  49.1993427  32.1820261 121.4115073
  51.9600012  30.7774997 136.2529988  52.7060012  31.3654997 136.1339988
  51.2030012  31.3594997 136.3169988  51.9597820  30.9367143 136.2453590
  40.4030012  28.0914997 138.8569988  40.8110012  27.2344997 138.7359988
  40.1430012  28.1064997 139.7779988  40.4237568  27.9760807 138.9649588
  45.0610012  29.2074997 123.8759988  44.6010012  28.7234997 124.5619988
  45.3160012  28.5394997 123.2399988  45.0324902  29.0508731 123.8839334
  44.3500012  27.1004997 136.2319988  43.7320012  27.7754997 136.5119988
  44.6940012  27.4214997 135.3979988  44.3119132  27.2362411 136.1576262
  46.1320012  27.4504997 122.1379988  45.9520012  27.2964997 121.2109988
  47.0820012  27.5584997 122.1829988  46.2357776  27.4440175 122.0171843
  49.3700012  29.5724997 139.5089988  50.3230012  29.6554997 139.4819988
  49.2090012  28.8604997 140.1289988  49.4786426  29.4876746 139.5890579
  55.5220012  29.8054997 121.5839988  55.2480012  29.3804997 120.7709988
  55.5610012  30.7364997 121.3669988  55.4897699  29.8732484 121.4433610
  44.6890012  24.4554997 137.3139988  44.8390012  23.7264997 136.7119988
  44.6920012  25.2324997 136.7549988  44.7099302  24.4607851 137.1560692
  45.1020012  22.8254997 134.8069988  45.6380012  23.2764997 134.1549988
  44.2500012  22.7174997 134.3839988  45.0602178  22.8726390 134.6605756
  46.6840012  28.2644997 135.0459988  47.4340012  28.1084997 134.4729988
  46.3450012  29.1164997 134.7709988  46.7408921  28.3582968 134.9303561
  51.0990012  26.0794997 140.0749988  51.2920012  25.1484997 139.9629988
  51.9570012  26.5044997 140.0639988  51.2412934  26.0096531 140.0582031
  52.4160012  28.8684997 138.1519988  52.1350012  29.5774997 137.5739988
  53.3590012  28.7954997 138.0009988  52.5049291  28.9556711 138.0524967
  43.1680012  25.6534997 139.2259988  42.4010012  25.1214997 139.0149988
  43.8470012  25.3434997 138.6259988  43.1547877  25.5388300 139.1160716
  45.9080012  20.2814997 135.2379988  45.8090012  21.2284997 135.1329988
  45.1650012  19.9094997 134.7619988  45.7941184  20.3605863 135.1593621
  47.1720012  24.6034997 138.8019988  46.9360012  24.3834997 139.7029988
  46.3880012  24.3964997 138.2919988  47.0338504  24.5454586 138.8563431
  49.8870012  23.7304997 137.8769988  48.9400012  23.7624997 138.0099988
  50.2000012  23.1054997 138.5309988  49.7996707  23.6503998 137.9836060
  51.5210012  22.3644997 139.8829988  51.4250012  21.4124997 139.8769988
  51.2000012  22.6334997 140.7429988  51.4644070  22.2704035 139.9985441
  41.3480012  23.5744997 138.9299988  41.5600012  22.8674997 138.3199988
  41.2370012  23.1364997 139.7739988  41.3619721  23.4187084 138.9606843
  46.1290012  19.5754997 137.9089988  46.8410012  18.9354997 137.8949988
  46.0280012  19.8424997 136.9959988  46.2128066  19.5240079 137.7835677
  46.4830012  21.2584997 139.9629988  46.3510012  20.7824997 139.1429988
  45.8840012  22.0024997 139.9079988  46.3839071  21.2939618 139.8432886
  46.0290012  38.1414997 123.1389988  46.9620012  38.2994997 123.2829988
  45.7650012  38.8164997 122.5149988  46.1209888  38.2544510 123.0742842
  39.5980012  32.7774997 122.6219988  40.5120012  32.8564997 122.8959988
  39.6050012  32.0904997 121.9559988  39.7241131  32.6953961 122.5694393
  38.2470012  38.1704997 127.6999988  37.6000012  37.7084997 127.1669988
  38.6010012  37.4984997 128.2819988  38.2063849  38.0164723 127.7057959
  39.1170012  36.2514997 129.5039988  38.7820012  35.3714997 129.6759988
  39.3390012  36.5964997 130.3689988  39.1011783  36.1777500 129.6444208
  56.6650012  37.0604997 132.4849988  56.6440012  37.2454997 133.4239988
  57.3560012  37.6294997 132.1439988  56.7554618  37.1626606 132.5673864
  56.2290012  36.6284997 135.4069988  55.7410012  35.8924997 135.0349988
  56.7780012  36.2344997 136.0849988  56.2364820  36.4745889 135.4477813
  54.6790012  32.4174997 140.0449988  53.8130012  32.3124997 140.4389988
  55.0560012  33.1764997 140.4909988  54.6113308  32.5056900 140.1592393
  55.9800012  30.6744997 125.5589988  56.8300012  31.0954997 125.6859988
  55.9860012  29.9344997 126.1659988  56.0971372  30.6320803 125.6584344
  56.3750012  28.7274997 127.3819988  55.6480012  28.2484997 127.7799988
  56.9560012  28.9334997 128.1149988  56.3540473  28.6898103 127.5354528
  56.1340012  31.5124997 132.3299988  56.9670012  31.1344997 132.0499988
  56.2460012  32.4554997 132.2109988  56.2632647  31.5882218 132.2755487
  54.6200012  34.3904997 134.6369988  53.9730012  34.7154997 135.2629988
  54.1030012  33.9504997 133.9629988  54.4614029  34.3755004 134.6315827
  56.6430012  28.6284997 123.7739988  56.1210012  28.9854997 123.0549988
  56.6100012  29.3034997 124.4519988  56.5671634  28.7685413 123.7673145
  54.9920012  25.8684997 122.3239988  55.0880012  26.5354997 121.6439988
  54.8520012  25.0524997 121.8429988  54.9862272  25.8495655 122.1658347
  54.1610012  27.2484997 127.9449988  54.0110012  26.3034997 127.9249988
  53.8080012  27.5294997 128.7889988  54.0927448  27.1571481 128.0563705
  39.1970012  29.3264997 131.9559988  39.3810012  29.2444997 131.0199988
  40.0460012  29.2024997 132.3789988  39.3370151  29.2985073 131.8851451
  55.0180012  29.2184997 137.5839988  55.6010012  28.4844997 137.7759988
  55.5820012  29.9904997 137.6309988  55.1739769  29.2224227 137.6166159
  56.5140012  27.1214997 138.2689988  55.6510012  26.7424997 138.1029988
  57.1190012  26.3824997 138.1939988  56.4776119  26.9698268 138.2361528
  54.2390012  23.2764997 121.4419988  54.8500012  22.9054997 122.0789988
  53.4030012  22.8554997 121.6379988  54.2095032  23.1687554 121.5557035
  53.8720012  24.8314997 126.4079988  54.1520012  23.9244997 126.5319988
  54.6310012  25.2654997 126.0189988  54.0129277  24.7660942 126.3723682
  54.4840012  25.4124997 131.8439988  55.4170012  25.6244997 131.8089988
  54.2490012  25.5144997 132.7659988  54.5799244  25.4553100 131.9638892
  54.5130012  26.1494997 134.6199988  53.6700012  26.4174997 134.9859988
  54.9550012  26.9714997 134.4089988  54.4574158  26.2973291 134.6415491
  38.7940012  24.5974997 138.0969988  39.7140012  24.4754997 138.3329988
  38.3450012  23.8474997 138.4859988  38.8591580  24.4793727 138.1819006
  56.7960012  20.1294997 139.9729988  57.1460012  19.4754997 139.3679988
  56.9430012  20.9664997 139.5329988  56.8637887  20.1531548 139.8306858
  54.4850012  22.0944997 126.4559988  54.6680012  21.6454997 127.2819988
  53.8860012  21.5094997 125.9929988  54.4290202  21.9539975 126.5063275
  40.0150012  22.9094997 130.9879988  40.4610012  22.1174997 131.2899988
  40.4820012  23.6254997 131.4179988  40.1390831  22.8980685 131.0874006
  38.3190012  25.9084997 132.0569988  38.8110012  25.6874997 131.2659988
  38.6820012  26.7494997 132.3379988  38.4353126  25.9918357 131.9867531
  56.3160012  22.2384997 138.3219988  55.3980012  22.5094997 138.2869988
  56.4390012  21.7034997 137.5379988  56.2069729  22.2032508 138.2111923
  56.3520012  22.1614997 122.9839988  56.7640012  21.4404997 122.5089988
  57.0340012  22.8314997 123.0429988  56.5005885  22.1532368 122.9268915
  38.6330012  22.1664997 126.1109988  37.7080012  22.3754997 125.9819988
  39.0870012  22.6504997 125.4209988  38.5677292  22.2605343 126.0000720
  53.4040012  37.1504997 128.0569988  54.0560012  36.8034997 127.4489988
  53.9140012  37.6394997 128.7029988  53.5622637  37.1690597 128.0610236
  38.5970012  20.9044997 134.4549988  37.9320012  20.6584997 135.0989988
  38.1540012  21.5264997 133.8779988  38.4461318  20.9549410 134.4650898
  40.7890012  34.0794997 138.5999988  39.9680012  34.2544997 138.1389988
  40.5360012  34.0064997 139.5199988  40.6425585  34.0935544 138.6613561
  43.7430012  35.0544997 134.8579988  43.3180012  35.8634997 134.5759988
  44.6470012  35.1394997 134.5559988  43.8069975  35.1769300 134.7784816
  48.0540012  36.4534997 137.8179988  48.2390012  36.1194997 138.6959988
  48.9000012  36.7624997 137.4959988  48.1937539  36.4496047 137.8945605
  50.3990012  37.7394997 137.0619988  51.0760012  37.1064997 136.8219988
  50.7210012  38.1404997 137.8689988  50.5351637  37.7071154 137.1382793
  55.3160012  20.3284997 136.1409988  54.5040012  20.6534997 135.7539988
  55.5490012  19.5684997 135.6079988  55.2362203  20.2702758 136.0158880
  41.1450012  38.3104997 134.9059988  40.4240012  38.7504997 134.4549988
  40.7790012  38.0594997 135.7539988  40.9969651  38.3367242 134.9589640
  43.6120012  37.9104997 133.9359988  42.7470012  37.9824997 134.3399988
  43.5570012  38.4574997 133.1519988  43.4862085  37.9942685 133.8853362
  48.3220012  37.7984997 133.1109988  47.8660012  38.3274997 132.4569988
  48.4850012  38.4014997 133.8359988  48.2816068  37.9524607 133.1194838
  50.6500012  36.6764997 134.0559988  49.7450012  36.8414997 133.7899988
  51.0790012  37.5294997 133.9909988  50.5841324  36.8144339 134.0107976
  53.2540012  38.2464997 134.3509988  53.0720012  39.1624997 134.1409988
  53.4310012  37.8364997 133.5049988  53.2530210  38.3164822 134.2077885
  40.5590012  36.9334997 131.8159988  40.5410012  36.5084997 132.6729988
  41.3640012  36.6154997 131.4069988  40.6653529  36.8323013 131.8780946
  42.7010012  35.6434997 130.4709988  42.4820012  34.7274997 130.6409988
  43.5250012  35.7834997 130.9369988  42.7824420  35.5370520 130.5572774
  45.2380012  36.1134997 131.3199988  45.4510012  35.2254997 131.0329988
  45.3020012  36.0794997 132.2739988  45.2758232  35.9873102 131.4097397
  48.7460012  21.7774997 130.4639988  48.0720012  21.1484997 130.7199988
  49.3100012  21.2934997 129.8609988  48.7299230  21.6258744 130.4175340
  53.8890012  19.8854997 130.5769988  54.4930012  20.4324997 130.0749988
  53.0190012  20.2044997 130.3359988  53.8541208  20.0035137 130.4756886
  55.6160012  21.0234997 128.9099988  56.2280012  20.5094997 128.3829988
  55.9980012  21.9014997 128.9329988  55.7513371  21.0717866 128.8410041
  41.0730012  20.4114997 128.2859988  40.2960012  20.1774997 127.7789988
  41.6030012  19.6144997 128.2949988  41.0382330  20.2716988 128.2177742
  39.9090012  20.2094997 124.0899988  40.3480012  20.8204997 123.4979988
  39.2760012  20.7474997 124.5639988  39.8834514  20.3659257 124.0730930
  45.6520012  20.3384997 128.0999988  46.5270012  20.7264997 128.0699988
  45.5160012  20.1234997 129.0219988  45.7533695  20.3625184 128.2206440
  51.2090012  20.3684997 129.7489988  51.2850012  20.4634997 128.7989988
  50.9340012  19.4604997 129.8779988  51.1822321  20.2587867 129.6365079
  52.5620012  20.3944997 125.4409988  51.8600012  21.0094997 125.2309988
  52.1180012  19.5564997 125.5719988  52.4056450  20.3655639 125.4299000
  39.8100012  36.1574997 124.9869988  39.1250012  36.1194997 124.3199988
  39.8140012  37.0704997 125.2759988  39.7166998  36.2756733 124.9346771
  41.7700012  22.1254997 122.5319988  42.2620012  21.4954997 122.0049988
  42.3940012  22.4214997 123.1949988  41.9215688  22.0793804 122.5495482
  46.7960012  22.4184997 124.9889988  46.9740012  21.7724997 125.6719988
  46.7430012  23.2524997 125.4559988  46.8131999  22.4428009 125.1455917
  48.6750012  37.3674997 123.3849988  49.5410012  37.7334997 123.2069988
  48.4280012  36.9274997 122.5709988  48.7602392  37.3581756 123.2506289
  55.3840012  36.9304997 126.0639988  55.1890012  36.1824997 125.4989988
  55.3450012  37.6884997 125.4809988  55.3520380  36.9306099 125.9078384
  41.0310012  20.9254997 137.8039988  40.6650012  20.1604997 138.2459988
  41.9440012  20.9544997 138.0899988  41.1042736  20.8245640 137.9032502
  43.0040012  20.2764997 139.3399988  43.9020012  20.0024997 139.1549988
  42.6170012  19.5334997 139.8039988  43.0746612  20.1385914 139.3773643
  41.6280012  37.0774997 122.0129988  41.3610012  37.3644997 122.8859988
  42.4000012  36.5314997 122.1649988  41.6957488  37.0430294 122.1531050
  51.4250012  19.6084997 139.5219988  51.5020012  19.1824997 140.3759988
  52.3190012  19.6224997 139.1789988  51.5563428  19.5520879 139.5925310
  54.6010012  35.6814997 138.2139988  53.8190012  35.4954997 137.6939988
  54.5290012  36.6104997 138.4319988  54.4842274  35.7816643 138.1723018
  69.0070012  29.5674997 128.2449988  69.0960012  30.5114997 128.1129988
  68.3690012  29.2924997 127.5869988  68.9329081  29.6594830 128.1379614
  67.9400012  28.8224997 131.6639988  67.9020012  28.1764997 132.3689988
  67.6180012  28.3564997 130.8929988  67.8912333  28.6709408 131.6562978
  60.3090012  28.4374997 133.2569988  60.3500012  27.8114997 133.9799988
  61.0120012  29.0614997 133.4389988  60.4096363  28.4361196 133.3806044
  71.6460012  31.7614997 129.9649988  71.2060012  31.0414997 130.4159988
  71.6330012  32.4824997 130.5949988  71.5840226  31.7603731 130.1118494
  61.2320012  32.8874997 131.7919988  60.8630012  32.0854997 131.4219988
  62.1730012  32.7184997 131.8379988  61.3087289  32.7550153 131.7476316
  57.8420012  26.5474997 127.1849988  57.3950012  27.3934997 127.1659988
  57.2810012  25.9674997 126.6689988  57.7049900  26.5849916 127.1126801
  58.5530012  28.7094997 129.3099988  58.7660012  27.9394997 129.8379988
  59.2910012  28.7984997 128.7069988  58.6819044  28.6161968 129.3007123
  68.7580012  36.8664997 130.1769988  69.3780012  36.1894997 129.9039988
  68.5500012  36.6484997 131.0859988  68.8146726  36.7444800 130.2624812
  66.3300012  31.2554997 132.0699988  66.6340012  30.5694997 131.4749988
  67.0510012  31.3734997 132.6879988  66.4690671  31.1776305 132.0721816
  74.9930012  22.8564997 132.9309988  75.0420012  23.4664997 133.6659988
  75.4180012  23.3174997 132.2079988  75.0571746  23.0023796 132.9339175
  69.4710012  25.6494997 132.3969988  69.6130012  24.7034997 132.4179988
  69.3640012  25.8564997 131.4689988  69.4759919  25.5478246 132.2743408
  62.6250012  23.7504997 129.6699988  62.6690012  24.6104997 129.2509988
  62.1680012  23.1984997 129.0359988  62.5692240  23.7934422 129.5269864
  70.3480012  23.8814997 128.0709988  70.9940012  23.5524997 128.6949988
  70.8580012  24.3994997 127.4479988  70.5054299  23.9064450 128.0722731
  59.2460012  26.1474997 130.4319988  59.8990012  25.5974997 130.8639988
  59.2700012  25.8734997 129.5149988  59.3386683  26.0351466 130.3672123
  64.4020012  27.6974997 129.6469988  65.0180012  27.1714997 130.1569988
  63.8160012  27.0574997 129.2439988  64.4070810  27.5389208 129.6623173
  75.3840012  24.3344997 135.1659988  74.6960012  24.9924997 135.0709988
  75.4000012  24.1374997 136.1029988  75.2919540  24.3979819 135.2795990
  61.4360012  22.6684997 133.7439988  61.2170012  23.1984997 132.9779988
  60.7680012  22.8954997 134.3909988  61.3157600  22.7716906 133.7266379
  68.8050012  32.1684997 127.2879988  68.5090012  31.8464997 126.4369988
  68.4800012  33.0684997 127.3289988  68.7206371  32.2460215 127.1771801
  64.0050012  30.3444997 134.0309988  63.2650012  30.9424997 134.1349988
  64.7190012  30.8984997 133.7159988  64.0002237  30.5012831 134.0026465
  72.1120012  23.1724997 130.0509988  71.8960012  22.4064997 130.5839988
  72.7670012  23.6444997 130.5639988  72.1710632  23.1315889 130.1932861
  61.0290012  24.5604997 131.6959988  61.6430012  25.1934997 132.0689988
  61.5410012  24.0884997 131.0399988  61.1821981  24.5832267 131.6582908
  62.4120012  32.3084997 134.8179988  62.4070012  33.1884997 134.4399988
  61.5590012  32.2254997 135.2429988  62.2959464  32.4176117 134.8237907
  58.5330012  31.9794997 125.5999988  58.2610012  32.2084997 124.7119988
  58.5790012  32.8174997 126.0609988  58.5019482  32.1241318 125.5406273
  72.1580012  33.6014997 132.3129988  71.2170012  33.6594997 132.4749988
  72.4350012  34.5074997 132.1759988  72.0664679  33.7319443 132.3166815
  72.4590012  21.8874997 133.7309988  71.7230012  22.4984997 133.6929988
  73.1420012  22.3024997 133.2039988  72.4506541  22.0271374 133.6545832
  65.4620012  19.9744997 131.1959988  65.3450012  19.0254997 131.1419988
  64.6070012  20.3064997 131.4699988  65.3304212  19.8895571 131.2256497
  70.4100012  35.3824997 128.9379988  70.8360012  34.6754997 128.4529988
  70.7270012  36.1834997 128.5219988  70.5111683  35.3941017 128.8153680
  71.5700012  33.2834997 127.4469988  71.3120012  32.5934997 126.8359988
  71.6410012  32.8404997 128.2929988  71.5442856  33.1292124 127.4776885
  73.2560012  31.8494997 135.9239988  73.3960012  31.2584997 135.1849988
  73.4230012  32.7224997 135.5679988  73.2977411  31.8865428 135.7746894
  67.7290012  28.8114997 125.6969988  67.0170012  29.3464997 125.3449988
  68.4200012  28.8674997 125.0369988  67.7250132  28.8922543 125.5596289
  67.7820012  27.2694997 122.7359988  68.4830012  27.2914997 123.3869988
  68.0850012  26.6414997 122.0789988  67.9188133  27.1877070 122.7363369
  75.0980012  28.1894997 133.9899988  74.4450012  28.8844997 134.0799988
  75.5630012  28.3994997 133.1809988  75.0715274  28.3130643 133.8928462
  71.1340012  29.0214997 126.6489988  70.4020012  29.2494997 127.2219988
  71.5820012  28.3074997 127.1029988  71.0942725  28.9562145 126.7888816
  71.0320012  27.1954997 135.7159988  71.1120012  27.9584997 136.2879988
  70.4300012  27.4744997 135.0259988  70.9615756  27.3377134 135.7010589
  62.7800012  29.6514997 128.5309988  62.4490012  29.2814997 127.7129988
  63.3680012  28.9814997 128.8779988  62.8141873  29.5101156 128.4658102
  64.1460012  33.0794997 131.2119988  64.0520012  32.5014997 130.4559988
  64.8760012  32.7084997 131.7089988  64.2317387  32.9501663 131.1755342
  63.1460012  28.4204997 132.1649988  63.7120012  28.5414997 131.4019988
  63.4650012  29.0574997 132.8029988  63.2665474  28.5232219 132.1469862
  69.4550012  33.9234997 132.8989988  69.2150012  34.5854997 133.5469988
  69.2570012  33.0894997 133.3239988  69.3953808  33.9013134 133.0451524
  64.0260012  32.8194997 136.8819988  63.7150012  33.6014997 137.3369988
  63.3760012  32.6664997 136.1959988  63.8955558  32.9059105 136.8515871
  70.0050012  28.1834997 124.3339988  70.5850012  28.3334997 125.0809988
  70.4190012  28.6544997 123.6099988  70.1402997  28.2676578 124.3384058
  60.9460012  29.0174997 136.1099988  61.0170012  29.6684997 136.8089988
  60.0560012  29.1204997 135.7749988  60.8353005  29.1205427 136.1603495
  67.7320012  34.9204997 127.7689988  68.2060012  35.2154997 128.5459988
  67.1690012  35.6584997 127.5359988  67.7208184  35.0607247 127.8439628
  62.2660012  34.8914997 137.6449988  62.2730012  34.7554997 136.6979988
  61.3500012  34.7734997 137.8969988  62.1431714  34.8569430 137.5494666
  73.7040012  19.9334997 124.1469988  72.8040012  20.0724997 124.4419988
  73.9560012  20.7644997 123.7449988  73.6148702  20.0649074 124.1330205
  61.7700012  28.7214997 126.1199988  61.4780012  29.4894997 125.6299988
  61.0960012  28.0614997 125.9579988  61.6388111  28.7375587 126.0308978
  74.8930012  34.2994997 122.5229988  74.9670012  35.2384997 122.6939988
  75.7990012  33.9944997 122.4669988  75.0255100  34.3866722 122.5388119
  57.8630012  31.0844997 134.9349988  57.3620012  31.0564997 134.1199988
  57.8680012  30.1784997 135.2449988  57.7950944  30.9582396 134.8653226
  57.6130012  33.8644997 131.8189988  58.5590012  33.7204997 131.7999988
  57.5010012  34.6484997 132.3559988  57.7272727  33.9508046 131.8890072
  75.8110012  34.5304997 137.5019988  75.7620012  33.5754997 137.4649988
  74.9840012  34.7984997 137.9029988  75.6924940  34.4358998 137.5511375
  66.7900012  34.1044997 136.3779988  66.8770012  34.9304997 136.8529988
  65.9260012  33.7744997 136.6269988  66.6851964  34.1729878 136.4766549
  67.2040012  37.8764997 126.1839988  67.1290012  37.7554997 125.2369988
  67.2370012  38.8264997 126.3019988  67.1982068  37.9882646 126.0704967
  60.8570012  36.6654997 127.9649988  61.0100012  36.3174997 128.8429988
  60.0070012  36.3094997 127.7099988  60.7629166  36.5696216 128.0508079
  70.3060012  37.0304997 123.1859988  70.6810012  36.2864997 122.7149988
  70.3100012  36.7604997 124.1049988  70.3579125  36.8920986 123.2456483
  69.9750012  36.9564997 125.9349988  69.0390012  37.0564997 126.1139988
  70.2550012  36.2474997 126.5139988  69.8849553  36.8743406 126.0377087
  72.9630012  26.0234997 137.9819988  72.5560012  26.5044997 137.2609988
  73.0040012  25.1184997 137.6739988  72.9128437  25.9669374 137.8416683
  60.1120012  32.4074997 135.9789988  60.3280012  32.0464997 136.8379988
  59.2570012  32.0334997 135.7689988  60.0259292  32.3074111 136.0683386
  62.7310012  20.8774997 131.9739988  61.8690012  20.7904997 131.5659988
  62.7080012  21.7334997 132.4019988  62.6100409  20.9812883 131.9760589
  67.3940012  20.5994997 135.3489988  67.8140012  20.1844997 136.1019988
  66.4610012  20.4214997 135.4659988  67.3253644  20.5185900 135.4679539
  70.7200012  24.3554997 136.2019988  70.2060012  24.2294997 136.9999988
  70.5650012  25.2674997 135.9579988  70.6286852  24.4616132 136.2782158
  71.4830012  29.2164997 121.9639988  71.5250012  28.9934997 121.0339988
  72.3320012  29.6154997 122.1529988  71.6035280  29.2399438 121.8623554
  67.0550012  23.0924997 122.6339988  66.8020012  23.1114997 123.5569988
  66.7990012  22.2204997 122.3319988  66.9857481  22.9772558 122.7196175
  62.8220012  25.8434997 133.0689988  62.1800012  25.8024997 133.7779988
  62.8590012  26.7694997 132.8309988  62.7390664  25.9631430 133.1339219
  62.8190012  26.0644997 127.9809988  61.9260012  25.7234997 127.9219988
  63.2690012  25.6874997 127.2249988  62.7578130  25.9669631 127.8707702
  68.3540012  26.4804997 126.7979988  67.9450012  27.2954997 126.5069988
  69.0750012  26.3404997 126.1839988  68.3954537  26.5732018 126.6751342
  67.4560012  26.6554997 138.2859988  66.8940012  25.9514997 138.6069988
  68.2830012  26.5354997 138.7539988  67.4907095  26.5427883 138.3932330
  69.3590012  25.9264997 129.6119988  69.1640012  26.5314997 128.8969988
  69.5400012  25.0924997 129.1779988  69.3567614  25.8966300 129.4554405
  60.5720012  26.1634997 134.9359988  60.5340012  26.5634997 135.8049988
  60.0810012  25.3464997 135.0269988  60.5004684  26.1078069 135.0671059
  63.9380012  23.5374997 121.7349988  63.5070012  23.0924997 122.4649988
  63.2200012  23.9094997 121.2229988  63.7819438  23.5268940 121.7656799
  57.1800012  23.2794997 128.7869988  57.8110012  23.2504997 129.5059988
  57.6290012  22.8544997 128.0559988  57.3270918  23.2180836 128.7866441
  58.4540012  24.0254997 124.2109988  58.9280012  24.6164997 123.6259988
  57.7370012  24.5564997 124.5579988  58.4219341  24.1780867 124.1778836
  68.6230012  27.5644997 134.2829988  68.9460012  26.9334997 133.6399988
  68.1830012  27.0294997 134.9439988  68.6077484  27.4058387 134.2843198
  65.4000012  23.4914997 129.0669988  64.4890012  23.5484997 129.3559988
  65.9060012  23.4314997 129.8779988  65.3436899  23.4911941 129.2161184
  60.2290012  25.1204997 127.8939988  59.3390012  25.2204997 127.5539988
  60.5250012  24.2784997 127.5479988  60.1472823  25.0203545 127.8007213
  63.8820012  25.1204997 125.5509988  64.8130012  25.2494997 125.7289988
  63.6670012  25.7904997 124.9009988  63.9804247  25.2286565 125.4875747
  69.8050012  22.7264997 132.3319988  69.1290012  22.8574997 132.9959988
  69.3200012  22.5714997 131.5209988  69.6467146  22.7235157 132.3134469
  62.5560012  26.3154997 123.1169988  62.0130012  25.9354997 122.4259988
  63.3890012  26.5094997 122.6889988  62.5943631  26.2897125 122.9644501
  73.0930012  38.3984997 138.6079988  73.2930012  38.8224997 137.7739988
  73.7480012  38.7414997 139.2149988  73.2090072  38.5029857 138.5758592
  60.6910012  30.8724997 138.2159988  61.4230012  31.1264997 138.7779988
  59.9110012  31.0764997 138.7319988  60.6857073  30.9348160 138.3626151
  66.7200012  26.2794997 130.9539988  67.2850012  25.7324997 130.4069988
  66.5730012  25.7574997 131.7429988  66.7773380  26.1342259 130.9858695
  61.7220012  22.4154997 127.3729988  61.4050012  21.5134997 127.3369988
  62.5040012  22.4174997 126.8199988  61.7842408  22.2922474 127.2933569
  65.3470012  24.6674997 133.3679988  64.5110012  25.1214997 133.4789988
  65.8710012  24.9434997 134.1199988  65.3035416  24.7668660 133.4848119
  65.8910012  30.8804997 125.0529988  65.1460012  30.3734997 124.7309988
  65.7570012  30.9294997 125.9999988  65.7708776  30.8176940 125.1368647
  73.0410012  30.0134997 133.8399988  73.6830012  30.4704997 133.2959988
  72.2110012  30.1264997 133.3769988  73.0165963  30.0912704 133.7030177
  69.7890012  23.6944997 123.2519988  68.8500012  23.8064997 123.1009988
  70.0860012  24.5514997 123.5589988  69.7007583  23.8255981 123.2728337
  67.4100012  31.0644997 136.2899988  67.0650012  30.6834997 137.0969988
  67.2100012  31.9984997 136.3609988  67.3357527  31.1385135 136.4100689
  70.5070012  25.5614997 124.9129988  71.3990012  25.4244997 125.2319988
  70.5640012  26.3524997 124.3759988  70.6366504  25.6496052 124.8840818
  61.0160012  30.1754997 130.8229988  61.7610012  30.1734997 130.2219988
  61.0940012  29.3524997 131.3039988  61.1284995  30.0638887 130.8058282
  68.0170012  32.3394997 124.0789988  67.7210012  33.1654997 124.4599988
  67.3140012  31.7194997 124.2749988  67.8814914  32.3688199 124.1576443
  58.0240012  28.6364997 136.1379988  58.2470012  28.2184997 136.9699988
  57.4220012  28.0234997 135.7149988  57.9731759  28.4964668 136.1947022
  65.0400012  28.1534997 138.3509988  64.7440012  27.9874997 137.4559988
  65.9720012  27.9334997 138.3399988  65.1254166  28.1010640 138.2270536
  69.6610012  33.5264997 136.2409988  68.7600012  33.7094997 135.9729988
  69.6950012  33.7854997 137.1609988  69.5423139  33.5865849 136.3288099
  75.3920012  25.7714997 124.6079988  74.8380012  25.3754997 123.9359988
  75.4920012  26.6814997 124.3299988  75.3297059  25.8403586 124.4784401
  75.3550012  31.5714997 137.4449988  74.5040012  31.8094997 137.0779988
  75.9460012  31.5544997 136.6919988  75.3182487  31.6018258 137.2928893
  73.6870012  34.5574997 125.0729988  73.3140012  33.7314997 125.3819988
  73.9650012  34.3744997 124.1749988  73.6735222  34.4197430 124.9939473
  70.8480012  29.3654997 132.0939988  69.9190012  29.1334997 132.0669988
  71.2990012  28.5884997 131.7639988  70.7819216  29.2287238 132.0456917
  63.3910012  33.6934997 128.2269988  63.9180012  34.4664997 128.0269988
  62.5110012  33.9184997 127.9249988  63.3442031  33.8297545 128.1587912
  59.1460012  28.5554997 122.8139988  59.7620012  29.1824997 123.1939988
  58.2840012  28.8714997 123.0859988  59.1137698  28.6839430 122.9027183
  64.8180012  31.3564997 127.8029988  64.5770012  32.2814997 127.8449988
  64.0770012  30.8974997 128.1999988  64.6849225  31.4210933 127.8623742
  65.3330012  35.5054997 134.1189988  65.6950012  36.3604997 133.8849988
  65.8640012  35.2134997 134.8589988  65.4544473  35.5831060 134.1870855
  63.5010012  36.3784997 127.3489988  62.5510012  36.4834997 127.3999988
  63.8530012  37.1984997 127.6929988  63.4184195  36.5038800 127.4025502
  68.8770012  31.6044997 133.8189988  68.4510012  31.3774997 134.6459988
  69.4570012  30.8664997 133.6369988  68.8971868  31.4735299 133.9075830
  71.0800012  32.5334997 122.8929988  71.4330012  32.1534997 123.6969988
  70.1310012  32.4404997 122.9799988  71.0000918  32.4688956 123.0148532
  71.5350012  36.1564997 136.2889988  70.9340012  35.6014997 135.7929988
  71.8170012  36.8234997 135.6619988  71.4908804  36.1706625 136.1364849
  75.5830012  37.0134997 123.0939988  76.3270012  37.5994997 122.9539988
  74.8890012  37.5814997 123.4269988  75.5909899  37.1705798 123.1198778
  59.6580012  23.3894997 135.6959988  58.7650012  23.7284997 135.6279988
  59.5590012  22.5344997 136.1139988  59.5224164  23.3202588 135.7432235
  71.9460012  31.2064997 125.1199988  71.6680012  30.4784997 125.6759988
  72.8730012  31.3254997 125.3249988  72.0333124  31.1228802 125.2238845
  59.3090012  35.1944997 134.1309988  59.5260012  34.2624997 134.0999988
  59.5550012  35.4684997 135.0139988  59.3719549  35.1040636 134.2461763
  65.1710012  33.6454997 121.3399988  65.4100012  32.8974997 120.7929988
  64.9020012  33.2574997 122.1729988  65.1673675  33.4906638 121.3776865
  64.1080012  33.2154997 123.7959988  64.2540012  32.6954997 124.5859988
  64.1050012  34.1224997 124.1029988  64.1275792  33.2668842 123.9456117
  60.5610012  30.4684997 124.3069988  59.8750012  30.8204997 124.8739988
  61.0830012  31.2314997 124.0599988  60.5376852  30.6198578 124.3512118
  68.3920012  23.1304997 134.5859988  69.0910012  23.2044997 135.2359988
  68.0110012  22.2664997 134.7399988  68.4361767  23.0237624 134.6958322
  69.1770012  22.7824997 125.6829988  69.3970012  23.2544997 124.8799988
  69.7350012  23.1774997 126.3529988  69.2824968  22.9004285 125.6637331
  66.8450012  34.9134997 124.5459988  66.0290012  35.4104997 124.5979988
  67.3750012  35.3884997 123.9059988  66.8049161  35.0457722 124.4665956
  66.3770012  24.5104997 126.5179988  67.1890012  25.0154997 126.5639988
  66.1320012  24.3654997 127.4319988  66.4550520  24.5600375 126.6478517
  66.9120012  25.4964997 135.7019988  67.0310012  26.0704997 136.4599988
  67.5680012  24.8084997 135.8169988  67.0169025  25.4819858 135.8211321
  67.2600012  21.5914997 127.4559988  66.9140012  22.2094997 128.0999988
  67.9190012  22.0924997 126.9739988  67.3016968  21.7436278 127.4789383
  64.1840012  35.9574997 124.5269988  64.3440012  36.7564997 124.0269988
  63.9860012  36.2634997 125.4119988  64.1791637  36.1084020 124.5781144
  62.9180012  22.6544997 124.1429988  62.8350012  23.5434997 124.4899988
  63.8080012  22.3894997 124.3749988  63.0269469  22.7401430 124.2217626
  73.1170012  23.4034997 136.5369988  72.2000012  23.6664997 136.4499988
  73.4520012  23.4004997 135.6409988  73.0368613  23.4390761 136.4038837
  71.7190012  27.1544997 130.6329988  70.9210012  26.7394997 130.3049988
  72.1640012  26.4634997 131.1239988  71.6699885  27.0043543 130.6544889
  61.1770012  33.0824997 123.2039988  61.7690012  33.7814997 123.4799988
  61.6360012  32.6494997 122.4839988  61.3201142  33.1197049 123.1444830
  59.4930012  25.7464997 122.3199988  59.4480012  26.6854997 122.4979988
  58.6050012  25.5104997 122.0499988  59.3668574  25.8431892 122.3078912
  72.8050012  36.4104997 132.2559988  72.6500012  37.0884997 131.5979988
  73.7380012  36.4824997 132.4589988  72.9098657  36.5129546 132.1934360
  60.3010012  20.5284997 130.9929988  60.0720012  20.5874997 130.0649988
  59.8580012  19.7364997 131.2989988  60.2098530  20.4295753 130.9074786
  59.2310012  34.4684997 127.1529988  58.3990012  34.9414997 127.1799988
  59.7770012  34.9784997 126.5549988  59.1910352  34.6021332 127.0758463
  58.5190012  37.0814997 138.4829988  59.0600012  36.8644997 139.2429988
  58.0380012  36.2754997 138.2929988  58.5279951  36.9429270 138.5612576
  63.1170012  36.0004997 140.1029988  63.8840012  35.5414997 140.4439988
  63.0950012  35.7744997 139.1739988  63.2191275  35.9070186 140.0240101
  67.2090012  35.5084997 121.4789988  66.5650012  34.8774997 121.7999988
  67.9710012  34.9774997 121.2469988  67.2238077  35.3502920 121.4916011
  69.6940012  34.3804997 138.8329988  69.3430012  33.5244997 139.0759988
  70.4200012  34.5234997 139.4399988  69.7440769  34.2825636 138.9483619
  71.8130012  35.3254997 121.7119988  72.0960012  34.5314997 122.1649988
  72.5530012  35.5584997 121.1519988  71.9518006  35.2483376 121.6982715
  58.4260012  30.8914997 139.4369988  58.5700012  29.9894997 139.1509988
  57.6540012  31.1774997 138.9499988  58.3412753  30.8066816 139.3319505
  62.7680012  31.2354997 121.5699988  62.8320012  30.4414997 122.1009988
  63.4210012  31.1164997 120.8799988  62.8650241  31.1107148 121.5494317
  65.0820012  30.8614997 138.8699988  64.7530012  31.1324997 138.0129988
  65.2340012  29.9204997 138.7829988  65.0574809  30.7713862 138.7408244
  68.1200012  32.2824997 121.3059988  67.8510012  32.4624997 122.2069988
  67.9140012  31.3564997 121.1739988  68.0553427  32.1820261 121.4115073
  70.8160012  30.7774997 136.2529988  71.5620012  31.3654997 136.1339988
  70.0590012  31.3594997 136.3169988  70.8157820  30.9367143 136.2453590
  59.2590012  28.0914997 138.8569988  59.6670012  27.2344997 138.7359988
  58.9990012  28.1064997 139.7779988  59.2797568  27.9760807 138.9649588
  63.9170012  29.2074997 123.8759988  63.4570012  28.7234997 124.5619988
  64.1720012  28.5394997 123.2399988  63.8884902  29.0508731 123.8839334
  63.2060012  27.1004997 136.2319988  62.5880012  27.7754997 136.5119988
  63.5500012  27.4214997 135.3979988  63.1679132  27.2362411 136.1576262
  64.9880012  27.4504997 122.1379988  64.8080012  27.2964997 121.2109988
  65.9380012  27.5584997 122.1829988  65.0917776  27.4440175 122.0171843
  68.2260012  29.5724997 139.5089988  69.1790012  29.6554997 139.4819988
  68.0650012  28.8604997 140.1289988  68.3346426  29.4876746 139.5890579
  74.3780012  29.8054997 121.5839988  74.1040012  29.3804997 120.7709988
  74.4170012  30.7364997 121.3669988  74.3457699  29.8732484 121.4433610
  63.5450012  24.4554997 137.3139988  63.6950012  23.7264997 136.7119988
  63.5480012  25.2324997 136.7549988  63.5659302  24.4607851 137.1560692
  63.9580012  22.8254997 134.8069988  64.4940012  23.2764997 134.1549988
  63.1060012  22.7174997 134.3839988  63.9162178  22.8726390 134.6605756
  65.5400012  28.2644997 135.0459988  66.2900012  28.1084997 134.4729988
  65.2010012  29.1164997 134.7709988  65.5968921  28.3582968 134.9303561
  69.9550012  26.0794997 140.0749988  70.1480012  25.1484997 139.9629988
  70.8130012  26.5044997 140.0639988  70.0972934  26.0096531 140.0582031
  71.2720012  28.8684997 138.1519988  70.9910012  29.5774997 137.5739988
  72.2150012  28.7954997 138.0009988  71.3609291  28.9556711 138.0524967
  62.0240012  25.6534997 139.2259988  61.2570012  25.1214997 139.0149988
  62.7030012  25.3434997 138.6259988  62.0107877  25.5388300 139.1160716
  64.7640012  20.2814997 135.2379988  64.6650012  21.2284997 135.1329988
  64.0210012  19.9094997 134.7619988  64.6501184  20.3605863 135.1593621
  66.0280012  24.6034997 138.8019988  65.7920012  24.3834997 139.7029988
  65.2440012  24.3964997 138.2919988  65.8898504  24.5454586 138.8563431
  68.7430012  23.7304997 137.8769988  67.7960012  23.7624997 138.0099988
  69.0560012  23.1054997 138.5309988  68.6556707  23.6503998 137.9836060
  70.3770012  22.3644997 139.8829988  70.2810012  21.4124997 139.8769988
  70.0560012  22.6334997 140.7429988  70.3204070  22.2704035 139.9985441
  60.2040012  23.5744997 138.9299988  60.4160012  22.8674997 138.3199988
  60.0930012  23.1364997 139.7739988  60.2179721  23.4187084 138.9606843
  64.9850012  19.5754997 137.9089988  65.6970012  18.9354997 137.8949988
  64.8840012  19.8424997 136.9959988  65.0688066  19.5240079 137.7835677
  65.3390012  21.2584997 139.9629988  65.2070012  20.7824997 139.1429988
  64.7400012  22.0024997 139.9079988  65.2399071  21.2939618 139.8432886
  64.8850012  38.1414997 123.1389988  65.8180012  38.2994997 123.2829988
  64.6210012  38.8164997 122.5149988  64.9769888  38.2544510 123.0742842
  58.4540012  32.7774997 122.6219988  59.3680012  32.8564997 122.8959988
  58.4610012  32.0904997 121.9559988  58.5801131  32.6953961 122.5694393
  57.1030012  38.1704997 127.6999988  56.4560012  37.7084997 127.1669988
  57.4570012  37.4984997 128.2819988  57.0623849  38.0164723 127.7057959
  57.9730012  36.2514997 129.5039988  57.6380012  35.3714997 129.6759988
  58.1950012  36.5964997 130.3689988  57.9571783  36.1777500 129.6444208
  75.5210012  37.0604997 132.4849988  75.5000012  37.2454997 133.4239988
  76.2120012  37.6294997 132.1439988  75.6114618  37.1626606 132.5673864
  75.0850012  36.6284997 135.4069988  74.5970012  35.8924997 135.0349988
  75.6340012  36.2344997 136.0849988  75.0924820  36.4745889 135.4477813
  73.5350012  32.4174997 140.0449988  72.6690012  32.3124997 140.4389988
  73.9120012  33.1764997 140.4909988  73.4673308  32.5056900 140.1592393
  74.8360012  30.6744997 125.5589988  75.6860012  31.0954997 125.6859988
  74.8420012  29.9344997 126.1659988  74.9531372  30.6320803 125.6584344
  75.2310012  28.7274997 127.3819988  74.5040012  28.2484997 127.7799988
  75.8120012  28.9334997 128.1149988  75.2100473  28.6898103 127.5354528
  74.9900012  31.5124997 132.3299988  75.8230012  31.1344997 132.0499988
  75.1020012  32.4554997 132.2109988  75.1192647  31.5882218 132.2755487
  73.4760012  34.3904997 134.6369988  72.8290012  34.7154997 135.2629988
  72.9590012  33.9504997 133.9629988  73.3174029  34.3755004 134.6315827
  75.4990012  28.6284997 123.7739988  74.9770012  28.9854997 123.0549988
  75.4660012  29.3034997 124.4519988  75.4231634  28.7685413 123.7673145
  73.8480012  25.8684997 122.3239988  73.9440012  26.5354997 121.6439988
  73.7080012  25.0524997 121.8429988  73.8422272  25.8495655 122.1658347
  73.0170012  27.2484997 127.9449988  72.8670012  26.3034997 127.9249988
  72.6640012  27.5294997 128.7889988  72.9487448  27.1571481 128.0563705
  58.0530012  29.3264997 131.9559988  58.2370012  29.2444997 131.0199988
  58.9020012  29.2024997 132.3789988  58.1930151  29.2985073 131.8851451
  73.8740012  29.2184997 137.5839988  74.4570012  28.4844997 137.7759988
  74.4380012  29.9904997 137.6309988  74.0299769  29.2224227 137.6166159
  75.3700012  27.1214997 138.2689988  74.5070012  26.7424997 138.1029988
  75.9750012  26.3824997 138.1939988  75.3336119  26.9698268 138.2361528
  73.0950012  23.2764997 121.4419988  73.7060012  22.9054997 122.0789988
  72.2590012  22.8554997 121.6379988  73.0655032  23.1687554 121.5557035
  72.7280012  24.8314997 126.4079988  73.0080012  23.9244997 126.5319988
  73.4870012  25.2654997 126.0189988  72.8689277  24.7660942 126.3723682
  73.3400012  25.4124997 131.8439988  74.2730012  25.6244997 131.8089988
  73.1050012  25.5144997 132.7659988  73.4359244  25.4553100 131.9638892
  73.3690012  26.1494997 134.6199988  72.5260012  26.4174997 134.9859988
  73.8110012  26.9714997 134.4089988  73.3134158  26.2973291 134.6415491
  57.6500012  24.5974997 138.0969988  58.5700012  24.4754997 138.3329988
  57.2010012  23.8474997 138.4859988  57.7151580  24.4793727 138.1819006
  75.6520012  20.1294997 139.9729988  76.0020012  19.4754997 139.3679988
  75.7990012  20.9664997 139.5329988  75.7197887  20.1531548 139.8306858
  73.3410012  22.0944997 126.4559988  73.5240012  21.6454997 127.2819988
  72.7420012  21.5094997 125.9929988  73.2850202  21.9539975 126.5063275
  58.8710012  22.9094997 130.9879988  59.3170012  22.1174997 131.2899988
  59.3380012  23.6254997 131.4179988  58.9950831  22.8980685 131.0874006
  57.1750012  25.9084997 132.0569988  57.6670012  25.6874997 131.2659988
  57.5380012  26.7494997 132.3379988  57.2913126  25.9918357 131.9867531
  75.1720012  22.2384997 138.3219988  74.2540012  22.5094997 138.2869988
  75.2950012  21.7034997 137.5379988  75.0629729  22.2032508 138.2111923
  75.2080012  22.1614997 122.9839988  75.6200012  21.4404997 122.5089988
  75.8900012  22.8314997 123.0429988  75.3565885  22.1532368 122.9268915
  57.4890012  22.1664997 126.1109988  56.5640012  22.3754997 125.9819988
  57.9430012  22.6504997 125.4209988  57.4237292  22.2605343 126.0000720
  72.2600012  37.1504997 128.0569988  72.9120012  36.8034997 127.4489988
  72.7700012  37.6394997 128.7029988  72.4182637  37.1690597 128.0610236
  57.4530012  20.9044997 134.4549988  56.7880012  20.6584997 135.0989988
  57.0100012  21.5264997 133.8779988  57.3021318  20.9549410 134.4650898
  59.6450012  34.0794997 138.5999988  58.8240012  34.2544997 138.1389988
  59.3920012  34.0064997 139.5199988  59.4985585  34.0935544 138.6613561
  62.5990012  35.0544997 134.8579988  62.1740012  35.8634997 134.5759988
  63.5030012  35.1394997 134.5559988  62.6629975  35.1769300 134.7784816
  66.9100012  36.4534997 137.8179988  67.0950012  36.1194997 138.6959988
  67.7560012  36.7624997 137.4959988  67.0497539  36.4496047 137.8945605
  69.2550012  37.7394997 137.0619988  69.9320012  37.1064997 136.8219988
  69.5770012  38.1404997 137.8689988  69.3911637  37.7071154 137.1382793
  74.1720012  20.3284997 136.1409988  73.3600012  20.6534997 135.7539988
  74.4050012  19.5684997 135.6079988  74.0922203  20.2702758 136.0158880
  60.0010012  38.3104997 134.9059988  59.2800012  38.7504997 134.4549988
  59.6350012  38.0594997 135.7539988  59.8529651  38.3367242 134.9589640
  62.4680012  37.9104997 133.9359988  61.6030012  37.9824997 134.3399988
  62.4130012  38.4574997 133.1519988  62.3422085  37.9942685 133.8853362
  67.1780012  37.7984997 133.1109988  66.7220012  38.3274997 132.4569988
  67.3410012  38.4014997 133.8359988  67.1376068  37.9524607 133.1194838
  69.5060012  36.6764997 134.0559988  68.6010012  36.8414997 133.7899988
  69.9350012  37.5294997 133.9909988  69.4401324  36.8144339 134.0107976
  72.1100012  38.2464997 134.3509988  71.9280012  39.1624997 134.1409988
  72.2870012  37.8364997 133.5049988  72.1090210  38.3164822 134.2077885
  59.4150012  36.9334997 131.8159988  59.3970012  36.5084997 132.6729988
  60.2200012  36.6154997 131.4069988  59.5213529  36.8323013 131.8780946
  61.5570012  35.6434997 130.4709988  61.3380012  34.7274997 130.6409988
  62.3810012  35.7834997 130.9369988  61.6384420  35.5370520 130.5572774
  64.0940012  36.1134997 131.3199988  64.3070012  35.2254997 131.0329988
  64.1580012  36.0794997 132.2739988  64.1318232  35.9873102 131.4097397
  67.6020012  21.7774997 130.4639988  66.9280012  21.1484997 130.7199988
  68.1660012  21.2934997 129.8609988  67.5859230  21.6258744 130.4175340
  72.7450012  19.8854997 130.5769988  73.3490012  20.4324997 130.0749988
  71.8750012  20.2044997 130.3359988  72.7101208  20.0035137 130.4756886
  74.4720012  21.0234997 128.9099988  75.0840012  20.5094997 128.3829988
  74.8540012  21.9014997 128.9329988  74.6073371  21.0717866 128.8410041
  59.9290012  20.4114997 128.2859988  59.1520012  20.1774997 127.7789988
  60.4590012  19.6144997 128.2949988  59.8942330  20.2716988 128.2177742
  58.7650012  20.2094997 124.0899988  59.2040012  20.8204997 123.4979988
  58.1320012  20.7474997 124.5639988  58.7394514  20.3659257 124.0730930
  64.5080012  20.3384997 128.0999988  65.3830012  20.7264997 128.0699988
  64.3720012  20.1234997 129.0219988  64.6093695  20.3625184 128.2206440
  70.0650012  20.3684997 129.7489988  70.1410012  20.4634997 128.7989988
  69.7900012  19.4604997 129.8779988  70.0382321  20.2587867 129.6365079
  71.4180012  20.3944997 125.4409988  70.7160012  21.0094997 125.2309988
  70.9740012  19.5564997 125.5719988  71.2616450  20.3655639 125.4299000
  58.6660012  36.1574997 124.9869988  57.9810012  36.1194997 124.3199988
  58.6700012  37.0704997 125.2759988  58.5726998  36.2756733 124.9346771
  60.6260012  22.1254997 122.5319988  61.1180012  21.4954997 122.0049988
  61.2500012  22.4214997 123.1949988  60.7775688  22.0793804 122.5495482
  65.6520012  22.4184997 124.9889988  65.8300012  21.7724997 125.6719988
  65.5990012  23.2524997 125.4559988  65.6691999  22.4428009 125.1455917
  67.5310012  37.3674997 123.3849988  68.3970012  37.7334997 123.2069988
  67.2840012  36.9274997 122.5709988  67.6162392  37.3581756 123.2506289
  74.2400012  36.9304997 126.0639988  74.0450012  36.1824997 125.4989988
  74.2010012  37.6884997 125.4809988  74.2080380  36.9306099 125.9078384
  59.8870012  20.9254997 137.8039988  59.5210012  20.1604997 138.2459988
  60.8000012  20.9544997 138.0899988  59.9602736  20.8245640 137.9032502
  61.8600012  20.2764997 139.3399988  62.7580012  20.0024997 139.1549988
  61.4730012  19.5334997 139.8039988  61.9306612  20.1385914 139.3773643
  60.4840012  37.0774997 122.0129988  60.2170012  37.3644997 122.8859988
  61.2560012  36.5314997 122.1649988  60.5517488  37.0430294 122.1531050
  70.2810012  19.6084997 139.5219988  70.3580012  19.1824997 140.3759988
  71.1750012  19.6224997 139.1789988  70.4123428  19.5520879 139.5925310
  73.4570012  35.6814997 138.2139988  72.6750012  35.4954997 137.6939988
  73.3850012  36.6104997 138.4319988  73.3402274  35.7816643 138.1723018
  87.8630012  29.5674997 128.2449988  87.9520012  30.5114997 128.1129988
  87.2250012  29.2924997 127.5869988  87.7889081  29.6594830 128.1379614
  86.7960012  28.8224997 131.6639988  86.7580012  28.1764997 132.3689988
  86.4740012  28.3564997 130.8929988  86.7472333  28.6709408 131.6562978
  79.1650012  28.4374997 133.2569988  79.2060012  27.8114997 133.9799988
  79.8680012  29.0614997 133.4389988  79.2656363  28.4361196 133.3806044
  90.5020012  31.7614997 129.9649988  90.0620012  31.0414997 130.4159988
  90.4890012  32.4824997 130.5949988  90.4400226  31.7603731 130.1118494
  80.0880012  32.8874997 131.7919988  79.7190012  32.0854997 131.4219988
  81.0290012  32.7184997 131.8379988  80.1647289  32.7550153 131.7476316
  76.6980012  26.5474997 127.1849988  76.2510012  27.3934997 127.1659988
  76.1370012  25.9674997 126.6689988  76.5609900  26.5849916 127.1126801
  77.4090012  28.7094997 129.3099988  77.6220012  27.9394997 129.8379988
  78.1470012  28.7984997 128.7069988  77.5379044  28.6161968 129.3007123
  87.6140012  36.8664997 130.1769988  88.2340012  36.1894997 129.9039988
  87.4060012  36.6484997 131.0859988  87.6706726  36.7444800 130.2624812
  85.1860012  31.2554997 132.0699988  85.4900012  30.5694997 131.4749988
  85.9070012  31.3734997 132.6879988  85.3250671  31.1776305 132.0721816
  93.8490012  22.8564997 132.9309988  93.8980012  23.4664997 133.6659988
  94.2740012  23.3174997 132.2079988  93.9131746  23.0023796 132.9339175
  88.3270012  25.6494997 132.3969988  88.4690012  24.7034997 132.4179988
  88.2200012  25.8564997 131.4689988  88.3319919  25.5478246 132.2743408
  81.4810012  23.7504997 129.6699988  81.5250012  24.6104997 129.2509988
  81.0240012  23.1984997 129.0359988  81.4252240  23.7934422 129.5269864
  89.2040012  23.8814997 128.0709988  89.8500012  23.5524997 128.6949988
  89.7140012  24.3994997 127.4479988  89.3614299  23.9064450 128.0722731
  78.1020012  26.1474997 130.4319988  78.7550012  25.5974997 130.8639988
  78.1260012  25.8734997 129.5149988  78.1946683  26.0351466 130.3672123
  83.2580012  27.6974997 129.6469988  83.8740012  27.1714997 130.1569988
  82.6720012  27.0574997 129.2439988  83.2630810  27.5389208 129.6623173
  94.2400012  24.3344997 135.1659988  93.5520012  24.9924997 135.0709988
  94.2560012  24.1374997 136.1029988  94.1479540  24.3979819 135.2795990
  80.2920012  22.6684997 133.7439988  80.0730012  23.1984997 132.9779988
  79.6240012  22.8954997 134.3909988  80.1717600  22.7716906 133.7266379
  87.6610012  32.1684997 127.2879988  87.3650012  31.8464997 126.4369988
  87.3360012  33.0684997 127.3289988  87.5766371  32.2460215 127.1771801
  82.8610012  30.3444997 134.0309988  82.1210012  30.9424997 134.1349988
  83.5750012  30.8984997 133.7159988  82.8562237  30.5012831 134.0026465
  90.9680012  23.1724997 130.0509988  90.7520012  22.4064997 130.5839988
  91.6230012  23.6444997 130.5639988  91.0270632  23.1315889 130.1932861
  79.8850012  24.5604997 131.6959988  80.4990012  25.1934997 132.0689988
  80.3970012  24.0884997 131.0399988  80.0381981  24.5832267 131.6582908
  81.2680012  32.3084997 134.8179988  81.2630012  33.1884997 134.4399988
  80.4150012  32.2254997 135.2429988  81.1519464  32.4176117 134.8237907
  77.3890012  31.9794997 125.5999988  77.1170012  32.2084997 124.7119988
  77.4350012  32.8174997 126.0609988  77.3579482  32.1241318 125.5406273
  91.0140012  33.6014997 132.3129988  90.0730012  33.6594997 132.4749988
  91.2910012  34.5074997 132.1759988  90.9224679  33.7319443 132.3166815
  91.3150012  21.8874997 133.7309988  90.5790012  22.4984997 133.6929988
  91.9980012  22.3024997 133.2039988  91.3066541  22.0271374 133.6545832
  84.3180012  19.9744997 131.1959988  84.2010012  19.0254997 131.1419988
  83.4630012  20.3064997 131.4699988  84.1864212  19.8895571 131.2256497
  89.2660012  35.3824997 128.9379988  89.6920012  34.6754997 128.4529988
  89.5830012  36.1834997 128.5219988  89.3671683  35.3941017 128.8153680
  90.4260012  33.2834997 127.4469988  90.1680012  32.5934997 126.8359988
  90.4970012  32.8404997 128.2929988  90.4002856  33.1292124 127.4776885
  92.1120012  31.8494997 135.9239988  92.2520012  31.2584997 135.1849988
  92.2790012  32.7224997 135.5679988  92.1537411  31.8865428 135.7746894
  86.5850012  28.8114997 125.6969988  85.8730012  29.3464997 125.3449988
  87.2760012  28.8674997 125.0369988  86.5810132  28.8922543 125.5596289
  86.6380012  27.2694997 122.7359988  87.3390012  27.2914997 123.3869988
  86.9410012  26.6414997 122.0789988  86.7748133  27.1877070 122.7363369
  93.9540012  28.1894997 133.9899988  93.3010012  28.8844997 134.0799988
  94.4190012  28.3994997 133.1809988  93.9275274  28.3130643 133.8928462
  89.9900012  29.0214997 126.6489988  89.2580012  29.2494997 127.2219988
  90.4380012  28.3074997 127.1029988  89.9502725  28.9562145 126.7888816
  89.8880012  27.1954997 135.7159988  89.9680012  27.9584997 136.2879988
  89.2860012  27.4744997 135.0259988  89.8175756  27.3377134 135.7010589
  81.6360012  29.6514997 128.5309988  81.3050012  29.2814997 127.7129988
  82.2240012  28.9814997 128.8779988  81.6701873  29.5101156 128.4658102
  83.0020012  33.0794997 131.2119988  82.9080012  32.5014997 130.4559988
  83.7320012  32.7084997 131.7089988  83.0877387  32.9501663 131.1755342
  82.0020012  28.4204997 132.1649988  82.5680012  28.5414997 131.4019988
  82.3210012  29.0574997 132.8029988  82.1225474  28.5232219 132.1469862
  88.3110012  33.9234997 132.8989988  88.0710012  34.5854997 133.5469988
  88.1130012  33.0894997 133.3239988  88.2513808  33.9013134 133.0451524
  82.8820012  32.8194997 136.8819988  82.5710012  33.6014997 137.3369988
  82.2320012  32.6664997 136.1959988  82.7515558  32.9059105 136.8515871
  88.8610012  28.1834997 124.3339988  89.4410012  28.3334997 125.0809988
  89.2750012  28.6544997 123.6099988  88.9962997  28.2676578 124.3384058
  79.8020012  29.0174997 136.1099988  79.8730012  29.6684997 136.8089988
  78.9120012  29.1204997 135.7749988  79.6913005  29.1205427 136.1603495
  86.5880012  34.9204997 127.7689988  87.0620012  35.2154997 128.5459988
  86.0250012  35.6584997 127.5359988  86.5768184  35.0607247 127.8439628
  81.1220012  34.8914997 137.6449988  81.1290012  34.7554997 136.6979988
  80.2060012  34.7734997 137.8969988  80.9991714  34.8569430 137.5494666
  92.5600012  19.9334997 124.1469988  91.6600012  20.0724997 124.4419988
  92.8120012  20.7644997 123.7449988  92.4708702  20.0649074 124.1330205
  80.6260012  28.7214997 126.1199988  80.3340012  29.4894997 125.6299988
  79.9520012  28.0614997 125.9579988  80.4948111  28.7375587 126.0308978
  93.7490012  34.2994997 122.5229988  93.8230012  35.2384997 122.6939988
  94.6550012  33.9944997 122.4669988  93.8815100  34.3866722 122.5388119
  76.7190012  31.0844997 134.9349988  76.2180012  31.0564997 134.1199988
  76.7240012  30.1784997 135.2449988  76.6510944  30.9582396 134.8653226
  76.4690012  33.8644997 131.8189988  77.4150012  33.7204997 131.7999988
  76.3570012  34.6484997 132.3559988  76.5832727  33.9508046 131.8890072
  94.6670012  34.5304997 137.5019988  94.6180012  33.5754997 137.4649988
  93.8400012  34.7984997 137.9029988  94.5484940  34.4358998 137.5511375
  85.6460012  34.1044997 136.3779988  85.7330012  34.9304997 136.8529988
  84.7820012  33.7744997 136.6269988  85.5411964  34.1729878 136.4766549
  86.0600012  37.8764997 126.1839988  85.9850012  37.7554997 125.2369988
  86.0930012  38.8264997 126.3019988  86.0542068  37.9882646 126.0704967
  79.7130012  36.6654997 127.9649988  79.8660012  36.3174997 128.8429988
  78.8630012  36.3094997 127.7099988  79.6189166  36.5696216 128.0508079
  89.1620012  37.0304997 123.1859988  89.5370012  36.2864997 122.7149988
  89.1660012  36.7604997 124.1049988  89.2139125  36.8920986 123.2456483
  88.8310012  36.9564997 125.9349988  87.8950012  37.0564997 126.1139988
  89.1110012  36.2474997 126.5139988  88.7409553  36.8743406 126.0377087
  91.8190012  26.0234997 137.9819988  91.4120012  26.5044997 137.2609988
  91.8600012  25.1184997 137.6739988  91.7688437  25.9669374 137.8416683
  78.9680012  32.4074997 135.9789988  79.1840012  32.0464997 136.8379988
  78.1130012  32.0334997 135.7689988  78.8819292  32.3074111 136.0683386
  81.5870012  20.8774997 131.9739988  80.7250012  20.7904997 131.5659988
  81.5640012  21.7334997 132.4019988  81.4660409  20.9812883 131.9760589
  86.2500012  20.5994997 135.3489988  86.6700012  20.1844997 136.1019988
  85.3170012  20.4214997 135.4659988  86.1813644  20.5185900 135.4679539
  89.5760012  24.3554997 136.2019988  89.0620012  24.2294997 136.9999988
  89.4210012  25.2674997 135.9579988  89.4846852  24.4616132 136.2782158
  90.3390012  29.2164997 121.9639988  90.3810012  28.9934997 121.0339988
  91.1880012  29.6154997 122.1529988  90.4595280  29.2399438 121.8623554
  85.9110012  23.0924997 122.6339988  85.6580012  23.1114997 123.5569988
  85.6550012  22.2204997 122.3319988  85.8417481  22.9772558 122.7196175
  81.6780012  25.8434997 133.0689988  81.0360012  25.8024997 133.7779988
  81.7150012  26.7694997 132.8309988  81.5950664  25.9631430 133.1339219
  81.6750012  26.0644997 127.9809988  80.7820012  25.7234997 127.9219988
  82.1250012  25.6874997 127.2249988  81.6138130  25.9669631 127.8707702
  87.2100012  26.4804997 126.7979988  86.8010012  27.2954997 126.5069988
  87.9310012  26.3404997 126.1839988  87.2514537  26.5732018 126.6751342
  86.3120012  26.6554997 138.2859988  85.7500012  25.9514997 138.6069988
  87.1390012  26.5354997 138.7539988  86.3467095  26.5427883 138.3932330
  88.2150012  25.9264997 129.6119988  88.0200012  26.5314997 128.8969988
  88.3960012  25.0924997 129.1779988  88.2127614  25.8966300 129.4554405
  79.4280012  26.1634997 134.9359988  79.3900012  26.5634997 135.8049988
  78.9370012  25.3464997 135.0269988  79.3564684  26.1078069 135.0671059
  82.7940012  23.5374997 121.7349988  82.3630012  23.0924997 122.4649988
  82.0760012  23.9094997 121.2229988  82.6379438  23.5268940 121.7656799
  76.0360012  23.2794997 128.7869988  76.6670012  23.2504997 129.5059988
  76.4850012  22.8544997 128.0559988  76.1830918  23.2180836 128.7866441
  77.3100012  24.0254997 124.2109988  77.7840012  24.6164997 123.6259988
  76.5930012  24.5564997 124.5579988  77.2779341  24.1780867 124.1778836
  87.4790012  27.5644997 134.2829988  87.8020012  26.9334997 133.6399988
  87.0390012  27.0294997 134.9439988  87.4637484  27.4058387 134.2843198
  84.2560012  23.4914997 129.0669988  83.3450012  23.5484997 129.3559988
  84.7620012  23.4314997 129.8779988  84.1996899  23.4911941 129.2161184
  79.0850012  25.1204997 127.8939988  78.1950012  25.2204997 127.5539988
  79.3810012  24.2784997 127.5479988  79.0032823  25.0203545 127.8007213
  82.7380012  25.1204997 125.5509988  83.6690012  25.2494997 125.7289988
  82.5230012  25.7904997 124.9009988  82.8364247  25.2286565 125.4875747
  88.6610012  22.7264997 132.3319988  87.9850012  22.8574997 132.9959988
  88.1760012  22.5714997 131.5209988  88.5027146  22.7235157 132.3134469
  81.4120012  26.3154997 123.1169988  80.8690012  25.9354997 122.4259988
  82.2450012  26.5094997 122.6889988  81.4503631  26.2897125 122.9644501
  91.9490012  38.3984997 138.6079988  92.1490012  38.8224997 137.7739988
  92.6040012  38.7414997 139.2149988  92.0650072  38.5029857 138.5758592
  79.5470012  30.8724997 138.2159988  80.2790012  31.1264997 138.7779988
  78.7670012  31.0764997 138.7319988  79.5417073  30.9348160 138.3626151
  85.5760012  26.2794997 130.9539988  86.1410012  25.7324997 130.4069988
  85.4290012  25.7574997 131.7429988  85.6333380  26.1342259 130.9858695
  80.5780012  22.4154997 127.3729988  80.2610012  21.5134997 127.3369988
  81.3600012  22.4174997 126.8199988  80.6402408  22.2922474 127.2933569
  84.2030012  24.6674997 133.3679988  83.3670012  25.1214997 133.4789988
  84.7270012  24.9434997 134.1199988  84.1595416  24.7668660 133.4848119
  84.7470012  30.8804997 125.0529988  84.0020012  30.3734997 124.7309988
  84.6130012  30.9294997 125.9999988  84.6268776  30.8176940 125.1368647
  91.8970012  30.0134997 133.8399988  92.5390012  30.4704997 133.2959988
  91.0670012  30.1264997 133.3769988  91.8725963  30.0912704 133.7030177
  88.6450012  23.6944997 123.2519988  87.7060012  23.8064997 123.1009988
  88.9420012  24.5514997 123.5589988  88.5567583  23.8255981 123.2728337
  86.2660012  31.0644997 136.2899988  85.9210012  30.6834997 137.0969988
  86.0660012  31.9984997 136.3609988  86.1917527  31.1385135 136.4100689
  89.3630012  25.5614997 124.9129988  90.2550012  25.4244997 125.2319988
  89.4200012  26.3524997 124.3759988  89.4926504  25.6496052 124.8840818
  79.8720012  30.1754997 130.8229988  80.6170012  30.1734997 130.2219988
  79.9500012  29.3524997 131.3039988  79.9844995  30.0638887 130.8058282
  86.8730012  32.3394997 124.0789988  86.5770012  33.1654997 124.4599988
  86.1700012  31.7194997 124.2749988  86.7374914  32.3688199 124.1576443
  76.8800012  28.6364997 136.1379988  77.1030012  28.2184997 136.9699988
  76.2780012  28.0234997 135.7149988  76.8291759  28.4964668 136.1947022
  83.8960012  28.1534997 138.3509988  83.6000012  27.9874997 137.4559988
  84.8280012  27.9334997 138.3399988  83.9814166  28.1010640 138.2270536
  88.5170012  33.5264997 136.2409988  87.6160012  33.7094997 135.9729988
  88.5510012  33.7854997 137.1609988  88.3983139  33.5865849 136.3288099
  94.2480012  25.7714997 124.6079988  93.6940012  25.3754997 123.9359988
  94.3480012  26.6814997 124.3299988  94.1857059  25.8403586 124.4784401
  94.2110012  31.5714997 137.4449988  93.3600012  31.8094997 137.0779988
  94.8020012  31.5544997 136.6919988  94.1742487  31.6018258 137.2928893
  92.5430012  34.5574997 125.0729988  92.1700012  33.7314997 125.3819988
  92.8210012  34.3744997 124.1749988  92.5295222  34.4197430 124.9939473
  89.7040012  29.3654997 132.0939988  88.7750012  29.1334997 132.0669988
  90.1550012  28.5884997 131.7639988  89.6379216  29.2287238 132.0456917
  82.2470012  33.6934997 128.2269988  82.7740012  34.4664997 128.0269988
  81.3670012  33.9184997 127.9249988  82.2002031  33.8297545 128.1587912
  78.0020012  28.5554997 122.8139988  78.6180012  29.1824997 123.1939988
  77.1400012  28.8714997 123.0859988  77.9697698  28.6839430 122.9027183
  83.6740012  31.3564997 127.8029988  83.4330012  32.2814997 127.8449988
  82.9330012  30.8974997 128.1999988  83.5409225  31.4210933 127.8623742
  84.1890012  35.5054997 134.1189988  84.5510012  36.3604997 133.8849988
  84.7200012  35.2134997 134.8589988  84.3104473  35.5831060 134.1870855
  82.3570012  36.3784997 127.3489988  81.4070012  36.4834997 127.3999988
  82.7090012  37.1984997 127.6929988  82.2744195  36.5038800 127.4025502
  87.7330012  31.6044997 133.8189988  87.3070012  31.3774997 134.6459988
  88.3130012  30.8664997 133.6369988  87.7531868  31.4735299 133.9075830
  89.9360012  32.5334997 122.8929988  90.2890012  32.1534997 123.6969988
  88.9870012  32.4404997 122.9799988  89.8560918  32.4688956 123.0148532
  90.3910012  36.1564997 136.2889988  89.7900012  35.6014997 135.7929988
  90.6730012  36.8234997 135.6619988  90.3468804  36.1706625 136.1364849
  94.4390012  37.0134997 123.0939988  95.1830012  37.5994997 122.9539988
  93.7450012  37.5814997 123.4269988  94.4469899  37.1705798 123.1198778
  78.5140012  23.3894997 135.6959988  77.6210012  23.7284997 135.6279988
  78.4150012  22.5344997 136.1139988  78.3784164  23.3202588 135.7432235
  90.8020012  31.2064997 125.1199988  90.5240012  30.4784997 125.6759988
  91.7290012  31.3254997 125.3249988  90.8893124  31.1228802 125.2238845
  78.1650012  35.1944997 134.1309988  78.3820012  34.2624997 134.0999988
  78.4110012  35.4684997 135.0139988  78.2279549  35.1040636 134.2461763
  84.0270012  33.6454997 121.3399988  84.2660012  32.8974997 120.7929988
  83.7580012  33.2574997 122.1729988  84.0233675  33.4906638 121.3776865
  82.9640012  33.2154997 123.7959988  83.1100012  32.6954997 124.5859988
  82.9610012  34.1224997 124.1029988  82.9835792  33.2668842 123.9456117
  79.4170012  30.4684997 124.3069988  78.7310012  30.8204997 124.8739988
  79.9390012  31.2314997 124.0599988  79.3936852  30.6198578 124.3512118
  87.2480012  23.1304997 134.5859988  87.9470012  23.2044997 135.2359988
  86.8670012  22.2664997 134.7399988  87.2921767  23.0237624 134.6958322
  88.0330012  22.7824997 125.6829988  88.2530012  23.2544997 124.8799988
  88.5910012  23.1774997 126.3529988  88.1384968  22.9004285 125.6637331
  85.7010012  34.9134997 124.5459988  84.8850012  35.4104997 124.5979988
  86.2310012  35.3884997 123.9059988  85.6609161  35.0457722 124.4665956
  85.2330012  24.5104997 126.5179988  86.0450012  25.0154997 126.5639988
  84.9880012  24.3654997 127.4319988  85.3110520  24.5600375 126.6478517
  85.7680012  25.4964997 135.7019988  85.8870012  26.0704997 136.4599988
  86.4240012  24.8084997 135.8169988  85.8729025  25.4819858 135.8211321
  86.1160012  21.5914997 127.4559988  85.7700012  22.2094997 128.0999988
  86.7750012  22.0924997 126.9739988  86.1576968  21.7436278 127.4789383
  83.0400012  35.9574997 124.5269988  83.2000012  36.7564997 124.0269988
  82.8420012  36.2634997 125.4119988  83.0351637  36.1084020 124.5781144
  81.7740012  22.6544997 124.1429988  81.6910012  23.5434997 124.4899988
  82.6640012  22.3894997 124.3749988  81.8829469  22.7401430 124.2217626
  91.9730012  23.4034997 136.5369988  91.0560012  23.6664997 136.4499988
  92.3080012  23.4004997 135.6409988  91.8928613  23.4390761 136.4038837
  90.5750012  27.1544997 130.6329988  89.7770012  26.7394997 130.3049988
  91.0200012  26.4634997 131.1239988  90.5259885  27.0043543 130.6544889
  80.0330012  33.0824997 123.2039988  80.6250012  33.7814997 123.4799988
  80.4920012  32.6494997 122.4839988  80.1761142  33.1197049 123.1444830
  78.3490012  25.7464997 122.3199988  78.3040012  26.6854997 122.4979988
  77.4610012  25.5104997 122.0499988  78.2228574  25.8431892 122.3078912
  91.6610012  36.4104997 132.2559988  91.5060012  37.0884997 131.5979988
  92.5940012  36.4824997 132.4589988  91.7658657  36.5129546 132.1934360
  79.1570012  20.5284997 130.9929988  78.9280012  20.5874997 130.0649988
  78.7140012  19.7364997 131.2989988  79.0658530  20.4295753 130.9074786
  78.0870012  34.4684997 127.1529988  77.2550012  34.9414997 127.1799988
  78.6330012  34.9784997 126.5549988  78.0470352  34.6021332 127.0758463
  77.3750012  37.0814997 138.4829988  77.9160012  36.8644997 139.2429988
  76.8940012  36.2754997 138.2929988  77.3839951  36.9429270 138.5612576
  81.9730012  36.0004997 140.1029988  82.7400012  35.5414997 140.4439988
  81.9510012  35.7744997 139.1739988  82.0751275  35.9070186 140.0240101
  86.0650012  35.5084997 121.4789988  85.4210012  34.8774997 121.7999988
  86.8270012  34.9774997 121.2469988  86.0798077  35.3502920 121.4916011
  88.5500012  34.3804997 138.8329988  88.1990012  33.5244997 139.0759988
  89.2760012  34.5234997 139.4399988  88.6000769  34.2825636 138.9483619
  90.6690012  35.3254997 121.7119988  90.9520012  34.5314997 122.1649988
  91.4090012  35.5584997 121.1519988  90.8078006  35.2483376 121.6982715
  77.2820012  30.8914997 139.4369988  77.4260012  29.9894997 139.1509988
  76.5100012  31.1774997 138.9499988  77.1972753  30.8066816 139.3319505
  81.6240012  31.2354997 121.5699988  81.6880012  30.4414997 122.1009988
  82.2770012  31.1164997 120.8799988  81.7210241  31.1107148 121.5494317
  83.9380012  30.8614997 138.8699988  83.6090012  31.1324997 138.0129988
  84.0900012  29.9204997 138.7829988  83.9134809  30.7713862 138.7408244
  86.9760012  32.2824997 121.3059988  86.7070012  32.4624997 122.2069988
  86.7700012  31.3564997 121.1739988  86.9113427  32.1820261 121.4115073
  89.6720012  30.7774997 136.2529988  90.4180012  31.3654997 136.1339988
  88.9150012  31.3594997 136.3169988  89.6717820  30.9367143 136.2453590
  78.1150012  28.0914997 138.8569988  78.5230012  27.2344997 138.7359988
  77.8550012  28.1064997 139.7779988  78.1357568  27.9760807 138.9649588
  82.7730012  29.2074997 123.8759988  82.3130012  28.7234997 124.5619988
  83.0280012  28.5394997 123.2399988  82.7444902  29.0508731 123.8839334
  82.0620012  27.1004997 136.2319988  81.4440012  27.7754997 136.5119988
  82.4060012  27.4214997 135.3979988  82.0239132  27.2362411 136.1576262
  83.8440012  27.4504997 122.1379988  83.6640012  27.2964997 121.2109988
  84.7940012  27.5584997 122.1829988  83.9477776  27.4440175 122.0171843
  87.0820012  29.5724997 139.5089988  88.0350012  29.6554997 139.4819988
  86.9210012  28.8604997 140.1289988  87.1906426  29.4876746 139.5890579
  93.2340012  29.8054997 121.5839988  92.9600012  29.3804997 120.7709988
  93.2730012  30.7364997 121.3669988  93.2017699  29.8732484 121.4433610
  82.4010012  24.4554997 137.3139988  82.5510012  23.7264997 136.7119988
  82.4040012  25.2324997 136.7549988  82.4219302  24.4607851 137.1560692
  82.8140012  22.8254997 134.8069988  83.3500012  23.2764997 134.1549988
  81.9620012  22.7174997 134.3839988  82.7722178  22.8726390 134.6605756
  84.3960012  28.2644997 135.0459988  85.1460012  28.1084997 134.4729988
  84.0570012  29.1164997 134.7709988  84.4528921  28.3582968 134.9303561
  88.8110012  26.0794997 140.0749988  89.0040012  25.1484997 139.9629988
  89.6690012  26.5044997 140.0639988  88.9532934  26.0096531 140.0582031
  90.1280012  28.8684997 138.1519988  89.8470012  29.5774997 137.5739988
  91.0710012  28.7954997 138.0009988  90.2169291  28.9556711 138.0524967
  80.8800012  25.6534997 139.2259988  80.1130012  25.1214997 139.0149988
  81.5590012  25.3434997 138.6259988  80.8667877  25.5388300 139.1160716
  83.6200012  20.2814997 135.2379988  83.5210012  21.2284997 135.1329988
  82.8770012  19.9094997 134.7619988  83.5061184  20.3605863 135.1593621
  84.8840012  24.6034997 138.8019988  84.6480012  24.3834997 139.7029988
  84.1000012  24.3964997 138.2919988  84.7458504  24.5454586 138.8563431
  87.5990012  23.7304997 137.8769988  86.6520012  23.7624997 138.0099988
  87.9120012  23.1054997 138.5309988  87.5116707  23.6503998 137.9836060
  89.2330012  22.3644997 139.8829988  89.1370012  21.4124997 139.8769988
  88.9120012  22.6334997 140.7429988  89.1764070  22.2704035 139.9985441
  79.0600012  23.5744997 138.9299988  79.2720012  22.8674997 138.3199988
  78.9490012  23.1364997 139.7739988  79.0739721  23.4187084 138.9606843
  83.8410012  19.5754997 137.9089988  84.5530012  18.9354997 137.8949988
  83.7400012  19.8424997 136.9959988  83.9248066  19.5240079 137.7835677
  84.1950012  21.2584997 139.9629988  84.0630012  20.7824997 139.1429988
  83.5960012  22.0024997 139.9079988  84.0959071  21.2939618 139.8432886
  83.7410012  38.1414997 123.1389988  84.6740012  38.2994997 123.2829988
  83.4770012  38.8164997 122.5149988  83.8329888  38.2544510 123.0742842
  77.3100012  32.7774997 122.6219988  78.2240012  32.8564997 122.8959988
  77.3170012  32.0904997 121.9559988  77.4361131  32.6953961 122.5694393
  75.9590012  38.1704997 127.6999988  75.3120012  37.7084997 127.1669988
  76.3130012  37.4984997 128.2819988  75.9183849  38.0164723 127.7057959
  76.8290012  36.2514997 129.5039988  76.4940012  35.3714997 129.6759988
  77.0510012  36.5964997 130.3689988  76.8131783  36.1777500 129.6444208
  94.3770012  37.0604997 132.4849988  94.3560012  37.2454997 133.4239988
  95.0680012  37.6294997 132.1439988  94.4674618  37.1626606 132.5673864
  93.9410012  36.6284997 135.4069988  93.4530012  35.8924997 135.0349988
  94.4900012  36.2344997 136.0849988  93.9484820  36.4745889 135.4477813
  92.3910012  32.4174997 140.0449988  91.5250012  32.3124997 140.4389988
  92.7680012  33.1764997 140.4909988  92.3233308  32.5056900 140.1592393
  93.6920012  30.6744997 125.5589988  94.5420012  31.0954997 125.6859988
  93.6980012  29.9344997 126.1659988  93.8091372  30.6320803 125.6584344
  94.0870012  28.7274997 127.3819988  93.3600012  28.2484997 127.7799988
  94.6680012  28.9334997 128.1149988  94.0660473  28.6898103 127.5354528
  93.8460012  31.5124997 132.3299988  94.6790012  31.1344997 132.0499988
  93.9580012  32.4554997 132.2109988  93.9752647  31.5882218 132.2755487
  92.3320012  34.3904997 134.6369988  91.6850012  34.7154997 135.2629988
  91.8150012  33.9504997 133.9629988  92.1734029  34.3755004 134.6315827
  94.3550012  28.6284997 123.7739988  93.8330012  28.9854997 123.0549988
  94.3220012  29.3034997 124.4519988  94.2791634  28.7685413 123.7673145
  92.7040012  25.8684997 122.3239988  92.8000012  26.5354997 121.6439988
  92.5640012  25.0524997 121.8429988  92.6982272  25.8495655 122.1658347
  91.8730012  27.2484997 127.9449988  91.7230012  26.3034997 127.9249988
  91.5200012  27.5294997 128.7889988  91.8047448  27.1571481 128.0563705
  76.9090012  29.3264997 131.9559988  77.0930012  29.2444997 131.0199988
  77.7580012  29.2024997 132.3789988  77.0490151  29.2985073 131.8851451
  92.7300012  29.2184997 137.5839988  93.3130012  28.4844997 137.7759988
  93.2940012  29.9904997 137.6309988  92.8859769  29.2224227 137.6166159
  94.2260012  27.1214997 138.2689988  93.3630012  26.7424997 138.1029988
  94.8310012  26.3824997 138.1939988  94.1896119  26.9698268 138.2361528
  91.9510012  23.2764997 121.4419988  92.5620012  22.9054997 122.0789988
  91.1150012  22.8554997 121.6379988  91.9215032  23.1687554 121.5557035
  91.5840012  24.8314997 126.4079988  91.8640012  23.9244997 126.5319988
  92.3430012  25.2654997 126.0189988  91.7249277  24.7660942 126.3723682
  92.1960012  25.4124997 131.8439988  93.1290012  25.6244997 131.8089988
  91.9610012  25.5144997 132.7659988  92.2919244  25.4553100 131.9638892
  92.2250012  26.1494997 134.6199988  91.3820012  26.4174997 134.9859988
  92.6670012  26.9714997 134.4089988  92.1694158  26.2973291 134.6415491
  76.5060012  24.5974997 138.0969988  77.4260012  24.4754997 138.3329988
  76.0570012  23.8474997 138.4859988  76.5711580  24.4793727 138.1819006
  94.5080012  20.1294997 139.9729988  94.8580012  19.4754997 139.3679988
  94.6550012  20.9664997 139.5329988  94.5757887  20.1531548 139.8306858
  92.1970012  22.0944997 126.4559988  92.3800012  21.6454997 127.2819988
  91.5980012  21.5094997 125.9929988  92.1410202  21.9539975 126.5063275
  77.7270012  22.9094997 130.9879988  78.1730012  22.1174997 131.2899988
  78.1940012  23.6254997 131.4179988  77.8510831  22.8980685 131.0874006
  76.0310012  25.9084997 132.0569988  76.5230012  25.6874997 131.2659988
  76.3940012  26.7494997 132.3379988  76.1473126  25.9918357 131.9867531
  94.0280012  22.2384997 138.3219988  93.1100012  22.5094997 138.2869988
  94.1510012  21.7034997 137.5379988  93.9189729  22.2032508 138.2111923
  94.0640012  22.1614997 122.9839988  94.4760012  21.4404997 122.5089988
  94.7460012  22.8314997 123.0429988  94.2125885  22.1532368 122.9268915
  76.3450012  22.1664997 126.1109988  75.4200012  22.3754997 125.9819988
  76.7990012  22.6504997 125.4209988  76.2797292  22.2605343 126.0000720
  91.1160012  37.1504997 128.0569988  91.7680012  36.8034997 127.4489988
  91.6260012  37.6394997 128.7029988  91.2742637  37.1690597 128.0610236
  76.3090012  20.9044997 134.4549988  75.6440012  20.6584997 135.0989988
  75.8660012  21.5264997 133.8779988  76.1581318  20.9549410 134.4650898
  78.5010012  34.0794997 138.5999988  77.6800012  34.2544997 138.1389988
  78.2480012  34.0064997 139.5199988  78.3545585  34.0935544 138.6613561
  81.4550012  35.0544997 134.8579988  81.0300012  35.8634997 134.5759988
  82.3590012  35.1394997 134.5559988  81.5189975  35.1769300 134.7784816
  85.7660012  36.4534997 137.8179988  85.9510012  36.1194997 138.6959988
  86.6120012  36.7624997 137.4959988  85.9057539  36.4496047 137.8945605
  88.1110012  37.7394997 137.0619988  88.7880012  37.1064997 136.8219988
  88.4330012  38.1404997 137.8689988  88.2471637  37.7071154 137.1382793
  93.0280012  20.3284997 136.1409988  92.2160012  20.6534997 135.7539988
  93.2610012  19.5684997 135.6079988  92.9482203  20.2702758 136.0158880
  78.8570012  38.3104997 134.9059988  78.1360012  38.7504997 134.4549988
  78.4910012  38.0594997 135.7539988  78.7089651  38.3367242 134.9589640
  81.3240012  37.9104997 133.9359988  80.4590012  37.9824997 134.3399988
  81.2690012  38.4574997 133.1519988  81.1982085  37.9942685 133.8853362
  86.0340012  37.7984997 133.1109988  85.5780012  38.3274997 132.4569988
  86.1970012  38.4014997 133.8359988  85.9936068  37.9524607 133.1194838
  88.3620012  36.6764997 134.0559988  87.4570012  36.8414997 133.7899988
  88.7910012  37.5294997 133.9909988  88.2961324  36.8144339 134.0107976
  90.9660012  38.2464997 134.3509988  90.7840012  39.1624997 134.1409988
  91.1430012  37.8364997 133.5049988  90.9650210  38.3164822 134.2077885
  78.2710012  36.9334997 131.8159988  78.2530012  36.5084997 132.6729988
  79.0760012  36.6154997 131.4069988  78.3773529  36.8323013 131.8780946
  80.4130012  35.6434997 130.4709988  80.1940012  34.7274997 130.6409988
  81.2370012  35.7834997 130.9369988  80.4944420  35.5370520 130.5572774
  82.9500012  36.1134997 131.3199988  83.1630012  35.2254997 131.0329988
  83.0140012  36.0794997 132.2739988  82.9878232  35.9873102 131.4097397
  86.4580012  21.7774997 130.4639988  85.7840012  21.1484997 130.7199988
  87.0220012  21.2934997 129.8609988  86.4419230  21.6258744 130.4175340
  91.6010012  19.8854997 130.5769988  92.2050012  20.4324997 130.0749988
  90.7310012  20.2044997 130.3359988  91.5661208  20.0035137 130.4756886
  93.3280012  21.0234997 128.9099988  93.9400012  20.5094997 128.3829988
  93.7100012  21.9014997 128.9329988  93.4633371  21.0717866 128.8410041
  78.7850012  20.4114997 128.2859988  78.0080012  20.1774997 127.7789988
  79.3150012  19.6144997 128.2949988  78.7502330  20.2716988 128.2177742
  77.6210012  20.2094997 124.0899988  78.0600012  20.8204997 123.4979988
  76.9880012  20.7474997 124.5639988  77.5954514  20.3659257 124.0730930
  83.3640012  20.3384997 128.0999988  84.2390012  20.7264997 128.0699988
  83.2280012  20.1234997 129.0219988  83.4653695  20.3625184 128.2206440
  88.9210012  20.3684997 129.7489988  88.9970012  20.4634997 128.7989988
  88.6460012  19.4604997 129.8779988  88.8942321  20.2587867 129.6365079
  90.2740012  20.3944997 125.4409988  89.5720012  21.0094997 125.2309988
  89.8300012  19.5564997 125.5719988  90.1176450  20.3655639 125.4299000
  77.5220012  36.1574997 124.9869988  76.8370012  36.1194997 124.3199988
  77.5260012  37.0704997 125.2759988  77.4286998  36.2756733 124.9346771
  79.4820012  22.1254997 122.5319988  79.9740012  21.4954997 122.0049988
  80.1060012  22.4214997 123.1949988  79.6335688  22.0793804 122.5495482
  84.5080012  22.4184997 124.9889988  84.6860012  21.7724997 125.6719988
  84.4550012  23.2524997 125.4559988  84.5251999  22.4428009 125.1455917
  86.3870012  37.3674997 123.3849988  87.2530012  37.7334997 123.2069988
  86.1400012  36.9274997 122.5709988  86.4722392  37.3581756 123.2506289
  93.0960012  36.9304997 126.0639988  92.9010012  36.1824997 125.4989988
  93.0570012  37.6884997 125.4809988  93.0640380  36.9306099 125.9078384
  78.7430012  20.9254997 137.8039988  78.3770012  20.1604997 138.2459988
  79.6560012  20.9544997 138.0899988  78.8162736  20.8245640 137.9032502
  80.7160012  20.2764997 139.3399988  81.6140012  20.0024997 139.1549988
  80.3290012  19.5334997 139.8039988  80.7866612  20.1385914 139.3773643
  79.3400012  37.0774997 122.0129988  79.0730012  37.3644997 122.8859988
  80.1120012  36.5314997 122.1649988  79.4077488  37.0430294 122.1531050
  89.1370012  19.6084997 139.5219988  89.2140012  19.1824997 140.3759988
  90.0310012  19.6224997 139.1789988  89.2683428  19.5520879 139.5925310
  92.3130012  35.6814997 138.2139988  91.5310012  35.4954997 137.6939988
  92.2410012  36.6104997 138.4319988  92.1962274  35.7816643 138.1723018
 106.7190012  29.5674997 128.2449988 106.8080012  30.5114997 128.1129988
 106.0810012  29.2924997 127.5869988 106.6449081  29.6594830 128.1379614
 105.6520012  28.8224997 131.6639988 105.6140012  28.1764997 132.3689988
 105.3300012  28.3564997 130.8929988 105.6032333  28.6709408 131.6562978
  98.0210012  28.4374997 133.2569988  98.0620012  27.8114997 133.9799988
  98.7240012  29.0614997 133.4389988  98.1216363  28.4361196 133.3806044
 109.3580012  31.7614997 129.9649988 108.9180012  31.0414997 130.4159988
 109.3450012  32.4824997 130.5949988 109.2960226  31.7603731 130.1118494
  98.9440012  32.8874997 131.7919988  98.5750012  32.0854997 131.4219988
  99.8850012  32.7184997 131.8379988  99.0207289  32.7550153 131.7476316
  95.5540012  26.5474997 127.1849988  95.1070012  27.3934997 127.1659988
  94.9930012  25.9674997 126.6689988  95.4169900  26.5849916 127.1126801
  96.2650012  28.7094997 129.3099988  96.4780012  27.9394997 129.8379988
  97.0030012  28.7984997 128.7069988  96.3939044  28.6161968 129.3007123
 106.4700012  36.8664997 130.1769988 107.0900012  36.1894997 129.9039988
 106.2620012  36.6484997 131.0859988 106.5266726  36.7444800 130.2624812
 104.0420012  31.2554997 132.0699988 104.3460012  30.5694997 131.4749988
 104.7630012  31.3734997 132.6879988 104.1810671  31.1776305 132.0721816
 112.7050012  22.8564997 132.9309988 112.7540012  23.4664997 133.6659988
 113.1300012  23.3174997 132.2079988 112.7691746  23.0023796 132.9339175
 107.1830012  25.6494997 132.3969988 107.3250012  24.7034997 132.4179988
 107.0760012  25.8564997 131.4689988 107.1879919  25.5478246 132.2743408
 100.3370012  23.7504997 129.6699988 100.3810012  24.6104997 129.2509988
  99.8800012  23.1984997 129.0359988 100.2812240  23.7934422 129.5269864
 108.0600012  23.8814997 128.0709988 108.7060012  23.5524997 128.6949988
 108.5700012  24.3994997 127.4479988 108.2174299  23.9064450 128.0722731
  96.9580012  26.1474997 130.4319988  97.6110012  25.5974997 130.8639988
  96.9820012  25.8734997 129.5149988  97.0506683  26.0351466 130.3672123
 102.1140012  27.6974997 129.6469988 102.7300012  27.1714997 130.1569988
 101.5280012  27.0574997 129.2439988 102.1190810  27.5389208 129.6623173
 113.0960012  24.3344997 135.1659988 112.4080012  24.9924997 135.0709988
 113.1120012  24.1374997 136.1029988 113.0039540  24.3979819 135.2795990
  99.1480012  22.6684997 133.7439988  98.9290012  23.1984997 132.9779988
  98.4800012  22.8954997 134.3909988  99.0277600  22.7716906 133.7266379
 106.5170012  32.1684997 127.2879988 106.2210012  31.8464997 126.4369988
 106.1920012  33.0684997 127.3289988 106.4326371  32.2460215 127.1771801
 101.7170012  30.3444997 134.0309988 100.9770012  30.9424997 134.1349988
 102.4310012  30.8984997 133.7159988 101.7122237  30.5012831 134.0026465
 109.8240012  23.1724997 130.0509988 109.6080012  22.4064997 130.5839988
 110.4790012  23.6444997 130.5639988 109.8830632  23.1315889 130.1932861
  98.7410012  24.5604997 131.6959988  99.3550012  25.1934997 132.0689988
  99.2530012  24.0884997 131.0399988  98.8941981  24.5832267 131.6582908
 100.1240012  32.3084997 134.8179988 100.1190012  33.1884997 134.4399988
  99.2710012  32.2254997 135.2429988 100.0079464  32.4176117 134.8237907
  96.2450012  31.9794997 125.5999988  95.9730012  32.2084997 124.7119988
  96.2910012  32.8174997 126.0609988  96.2139482  32.1241318 125.5406273
 109.8700012  33.6014997 132.3129988 108.9290012  33.6594997 132.4749988
 110.1470012  34.5074997 132.1759988 109.7784679  33.7319443 132.3166815
 110.1710012  21.8874997 133.7309988 109.4350012  22.4984997 133.6929988
 110.8540012  22.3024997 133.2039988 110.1626541  22.0271374 133.6545832
 103.1740012  19.9744997 131.1959988 103.0570012  19.0254997 131.1419988
 102.3190012  20.3064997 131.4699988 103.0424212  19.8895571 131.2256497
 108.1220012  35.3824997 128.9379988 108.5480012  34.6754997 128.4529988
 108.4390012  36.1834997 128.5219988 108.2231683  35.3941017 128.8153680
 109.2820012  33.2834997 127.4469988 109.0240012  32.5934997 126.8359988
 109.3530012  32.8404997 128.2929988 109.2562856  33.1292124 127.4776885
 110.9680012  31.8494997 135.9239988 111.1080012  31.2584997 135.1849988
 111.1350012  32.7224997 135.5679988 111.0097411  31.8865428 135.7746894
 105.4410012  28.8114997 125.6969988 104.7290012  29.3464997 125.3449988
 106.1320012  28.8674997 125.0369988 105.4370132  28.8922543 125.5596289
 105.4940012  27.2694997 122.7359988 106.1950012  27.2914997 123.3869988
 105.7970012  26.6414997 122.0789988 105.6308133  27.1877070 122.7363369
 112.8100012  28.1894997 133.9899988 112.1570012  28.8844997 134.0799988
 113.2750012  28.3994997 133.1809988 112.7835274  28.3130643 133.8928462
 108.8460012  29.0214997 126.6489988 108.1140012  29.2494997 127.2219988
 109.2940012  28.3074997 127.1029988 108.8062725  28.9562145 126.7888816
 108.7440012  27.1954997 135.7159988 108.8240012  27.9584997 136.2879988
 108.1420012  27.4744997 135.0259988 108.6735756  27.3377134 135.7010589
 100.4920012  29.6514997 128.5309988 100.1610012  29.2814997 127.7129988
 101.0800012  28.9814997 128.8779988 100.5261873  29.5101156 128.4658102
 101.8580012  33.0794997 131.2119988 101.7640012  32.5014997 130.4559988
 102.5880012  32.7084997 131.7089988 101.9437387  32.9501663 131.1755342
 100.8580012  28.4204997 132.1649988 101.4240012  28.5414997 131.4019988
 101.1770012  29.0574997 132.8029988 100.9785474  28.5232219 132.1469862
 107.1670012  33.9234997 132.8989988 106.9270012  34.5854997 133.5469988
 106.9690012  33.0894997 133.3239988 107.1073808  33.9013134 133.0451524
 101.7380012  32.8194997 136.8819988 101.4270012  33.6014997 137.3369988
 101.0880012  32.6664997 136.1959988 101.6075558  32.9059105 136.8515871
 107.7170012  28.1834997 124.3339988 108.2970012  28.3334997 125.0809988
 108.1310012  28.6544997 123.6099988 107.8522997  28.2676578 124.3384058
  98.6580012  29.0174997 136.1099988  98.7290012  29.6684997 136.8089988
  97.7680012  29.1204997 135.7749988  98.5473005  29.1205427 136.1603495
 105.4440012  34.9204997 127.7689988 105.9180012  35.2154997 128.5459988
 104.8810012  35.6584997 127.5359988 105.4328184  35.0607247 127.8439628
  99.9780012  34.8914997 137.6449988  99.9850012  34.7554997 136.6979988
  99.0620012  34.7734997 137.8969988  99.8551714  34.8569430 137.5494666
 111.4160012  19.9334997 124.1469988 110.5160012  20.0724997 124.4419988
 111.6680012  20.7644997 123.7449988 111.3268702  20.0649074 124.1330205
  99.4820012  28.7214997 126.1199988  99.1900012  29.4894997 125.6299988
  98.8080012  28.0614997 125.9579988  99.3508111  28.7375587 126.0308978
 112.6050012  34.2994997 122.5229988 112.6790012  35.2384997 122.6939988
 113.5110012  33.9944997 122.4669988 112.7375100  34.3866722 122.5388119
  95.5750012  31.0844997 134.9349988  95.0740012  31.0564997 134.1199988
  95.5800012  30.1784997 135.2449988  95.5070944  30.9582396 134.8653226
  95.3250012  33.8644997 131.8189988  96.2710012  33.7204997 131.7999988
  95.2130012  34.6484997 132.3559988  95.4392727  33.9508046 131.8890072
 113.5230012  34.5304997 137.5019988 113.4740012  33.5754997 137.4649988
 112.6960012  34.7984997 137.9029988 113.4044940  34.4358998 137.5511375
 104.5020012  34.1044997 136.3779988 104.5890012  34.9304997 136.8529988
 103.6380012  33.7744997 136.6269988 104.3971964  34.1729878 136.4766549
 104.9160012  37.8764997 126.1839988 104.8410012  37.7554997 125.2369988
 104.9490012  38.8264997 126.3019988 104.9102068  37.9882646 126.0704967
  98.5690012  36.6654997 127.9649988  98.7220012  36.3174997 128.8429988
  97.7190012  36.3094997 127.7099988  98.4749166  36.5696216 128.0508079
 108.0180012  37.0304997 123.1859988 108.3930012  36.2864997 122.7149988
 108.0220012  36.7604997 124.1049988 108.0699125  36.8920986 123.2456483
 107.6870012  36.9564997 125.9349988 106.7510012  37.0564997 126.1139988
 107.9670012  36.2474997 126.5139988 107.5969553  36.8743406 126.0377087
 110.6750012  26.0234997 137.9819988 110.2680012  26.5044997 137.2609988
 110.7160012  25.1184997 137.6739988 110.6248437  25.9669374 137.8416683
  97.8240012  32.4074997 135.9789988  98.0400012  32.0464997 136.8379988
  96.9690012  32.0334997 135.7689988  97.7379292  32.3074111 136.0683386
 100.4430012  20.8774997 131.9739988  99.5810012  20.7904997 131.5659988
 100.4200012  21.7334997 132.4019988 100.3220409  20.9812883 131.9760589
 105.1060012  20.5994997 135.3489988 105.5260012  20.1844997 136.1019988
 104.1730012  20.4214997 135.4659988 105.0373644  20.5185900 135.4679539
 108.4320012  24.3554997 136.2019988 107.9180012  24.2294997 136.9999988
 108.2770012  25.2674997 135.9579988 108.3406852  24.4616132 136.2782158
 109.1950012  29.2164997 121.9639988 109.2370012  28.9934997 121.0339988
 110.0440012  29.6154997 122.1529988 109.3155280  29.2399438 121.8623554
 104.7670012  23.0924997 122.6339988 104.5140012  23.1114997 123.5569988
 104.5110012  22.2204997 122.3319988 104.6977481  22.9772558 122.7196175
 100.5340012  25.8434997 133.0689988  99.8920012  25.8024997 133.7779988
 100.5710012  26.7694997 132.8309988 100.4510664  25.9631430 133.1339219
 100.5310012  26.0644997 127.9809988  99.6380012  25.7234997 127.9219988
 100.9810012  25.6874997 127.2249988 100.4698130  25.9669631 127.8707702
 106.0660012  26.4804997 126.7979988 105.6570012  27.2954997 126.5069988
 106.7870012  26.3404997 126.1839988 106.1074537  26.5732018 126.6751342
 105.1680012  26.6554997 138.2859988 104.6060012  25.9514997 138.6069988
 105.9950012  26.5354997 138.7539988 105.2027095  26.5427883 138.3932330
 107.0710012  25.9264997 129.6119988 106.8760012  26.5314997 128.8969988
 107.2520012  25.0924997 129.1779988 107.0687614  25.8966300 129.4554405
  98.2840012  26.1634997 134.9359988  98.2460012  26.5634997 135.8049988
  97.7930012  25.3464997 135.0269988  98.2124684  26.1078069 135.0671059
 101.6500012  23.5374997 121.7349988 101.2190012  23.0924997 122.4649988
 100.9320012  23.9094997 121.2229988 101.4939438  23.5268940 121.7656799
  94.8920012  23.2794997 128.7869988  95.5230012  23.2504997 129.5059988
  95.3410012  22.8544997 128.0559988  95.0390918  23.2180836 128.7866441
  96.1660012  24.0254997 124.2109988  96.6400012  24.6164997 123.6259988
  95.4490012  24.5564997 124.5579988  96.1339341  24.1780867 124.1778836
 106.3350012  27.5644997 134.2829988 106.6580012  26.9334997 133.6399988
 105.8950012  27.0294997 134.9439988 106.3197484  27.4058387 134.2843198
 103.1120012  23.4914997 129.0669988 102.2010012  23.5484997 129.3559988
 103.6180012  23.4314997 129.8779988 103.0556899  23.4911941 129.2161184
  97.9410012  25.1204997 127.8939988  97.0510012  25.2204997 127.5539988
  98.2370012  24.2784997 127.5479988  97.8592823  25.0203545 127.8007213
 101.5940012  25.1204997 125.5509988 102.5250012  25.2494997 125.7289988
 101.3790012  25.7904997 124.9009988 101.6924247  25.2286565 125.4875747
 107.5170012  22.7264997 132.3319988 106.8410012  22.8574997 132.9959988
 107.0320012  22.5714997 131.5209988 107.3587146  22.7235157 132.3134469
 100.2680012  26.3154997 123.1169988  99.7250012  25.9354997 122.4259988
 101.1010012  26.5094997 122.6889988 100.3063631  26.2897125 122.9644501
 110.8050012  38.3984997 138.6079988 111.0050012  38.8224997 137.7739988
 111.4600012  38.7414997 139.2149988 110.9210073  38.5029857 138.5758592
  98.4030012  30.8724997 138.2159988  99.1350012  31.1264997 138.7779988
  97.6230012  31.0764997 138.7319988  98.3977073  30.9348160 138.3626151
 104.4320012  26.2794997 130.9539988 104.9970012  25.7324997 130.4069988
 104.2850012  25.7574997 131.7429988 104.4893380  26.1342259 130.9858695
  99.4340012  22.4154997 127.3729988  99.1170012  21.5134997 127.3369988
 100.2160012  22.4174997 126.8199988  99.4962408  22.2922474 127.2933569
 103.0590012  24.6674997 133.3679988 102.2230012  25.1214997 133.4789988
 103.5830012  24.9434997 134.1199988 103.0155416  24.7668660 133.4848119
 103.6030012  30.8804997 125.0529988 102.8580012  30.3734997 124.7309988
 103.4690012  30.9294997 125.9999988 103.4828776  30.8176940 125.1368647
 110.7530012  30.0134997 133.8399988 111.3950012  30.4704997 133.2959988
 109.9230012  30.1264997 133.3769988 110.7285963  30.0912704 133.7030177
 107.5010012  23.6944997 123.2519988 106.5620012  23.8064997 123.1009988
 107.7980012  24.5514997 123.5589988 107.4127583  23.8255981 123.2728337
 105.1220012  31.0644997 136.2899988 104.7770012  30.6834997 137.0969988
 104.9220012  31.9984997 136.3609988 105.0477527  31.1385135 136.4100689
 108.2190012  25.5614997 124.9129988 109.1110012  25.4244997 125.2319988
 108.2760012  26.3524997 124.3759988 108.3486504  25.6496052 124.8840818
  98.7280012  30.1754997 130.8229988  99.4730012  30.1734997 130.2219988
  98.8060012  29.3524997 131.3039988  98.8404995  30.0638887 130.8058282
 105.7290012  32.3394997 124.0789988 105.4330012  33.1654997 124.4599988
 105.0260012  31.7194997 124.2749988 105.5934914  32.3688199 124.1576443
  95.7360012  28.6364997 136.1379988  95.9590012  28.2184997 136.9699988
  95.1340012  28.0234997 135.7149988  95.6851759  28.4964668 136.1947022
 102.7520012  28.1534997 138.3509988 102.4560012  27.9874997 137.4559988
 103.6840012  27.9334997 138.3399988 102.8374166  28.1010640 138.2270536
 107.3730012  33.5264997 136.2409988 106.4720012  33.7094997 135.9729988
 107.4070012  33.7854997 137.1609988 107.2543139  33.5865849 136.3288099
 113.1040012  25.7714997 124.6079988 112.5500012  25.3754997 123.9359988
 113.2040012  26.6814997 124.3299988 113.0417059  25.8403586 124.4784401
 113.0670012  31.5714997 137.4449988 112.2160012  31.8094997 137.0779988
 113.6580012  31.5544997 136.6919988 113.0302487  31.6018258 137.2928893
 111.3990012  34.5574997 125.0729988 111.0260012  33.7314997 125.3819988
 111.6770012  34.3744997 124.1749988 111.3855222  34.4197430 124.9939473
 108.5600012  29.3654997 132.0939988 107.6310012  29.1334997 132.0669988
 109.0110012  28.5884997 131.7639988 108.4939216  29.2287238 132.0456917
 101.1030012  33.6934997 128.2269988 101.6300012  34.4664997 128.0269988
 100.2230012  33.9184997 127.9249988 101.0562031  33.8297545 128.1587912
  96.8580012  28.5554997 122.8139988  97.4740012  29.1824997 123.1939988
  95.9960012  28.8714997 123.0859988  96.8257698  28.6839430 122.9027183
 102.5300012  31.3564997 127.8029988 102.2890012  32.2814997 127.8449988
 101.7890012  30.8974997 128.1999988 102.3969225  31.4210933 127.8623742
 103.0450012  35.5054997 134.1189988 103.4070012  36.3604997 133.8849988
 103.5760012  35.2134997 134.8589988 103.1664473  35.5831060 134.1870855
 101.2130012  36.3784997 127.3489988 100.2630012  36.4834997 127.3999988
 101.5650012  37.1984997 127.6929988 101.1304195  36.5038800 127.4025502
 106.5890012  31.6044997 133.8189988 106.1630012  31.3774997 134.6459988
 107.1690012  30.8664997 133.6369988 106.6091868  31.4735299 133.9075830
 108.7920012  32.5334997 122.8929988 109.1450012  32.1534997 123.6969988
 107.8430012  32.4404997 122.9799988 108.7120918  32.4688956 123.0148532
 109.2470012  36.1564997 136.2889988 108.6460012  35.6014997 135.7929988
 109.5290012  36.8234997 135.6619988 109.2028804  36.1706625 136.1364849
 113.2950012  37.0134997 123.0939988 114.0390012  37.5994997 122.9539988
 112.6010012  37.5814997 123.4269988 113.3029899  37.1705798 123.1198778
  97.3700012  23.3894997 135.6959988  96.4770012  23.7284997 135.6279988
  97.2710012  22.5344997 136.1139988  97.2344164  23.3202588 135.7432235
 109.6580012  31.2064997 125.1199988 109.3800012  30.4784997 125.6759988
 110.5850012  31.3254997 125.3249988 109.7453124  31.1228802 125.2238845
  97.0210012  35.1944997 134.1309988  97.2380012  34.2624997 134.0999988
  97.2670012  35.4684997 135.0139988  97.0839549  35.1040636 134.2461763
 102.8830012  33.6454997 121.3399988 103.1220012  32.8974997 120.7929988
 102.6140012  33.2574997 122.1729988 102.8793675  33.4906638 121.3776865
 101.8200012  33.2154997 123.7959988 101.9660012  32.6954997 124.5859988
 101.8170012  34.1224997 124.1029988 101.8395792  33.2668842 123.9456117
  98.2730012  30.4684997 124.3069988  97.5870012  30.8204997 124.8739988
  98.7950012  31.2314997 124.0599988  98.2496852  30.6198578 124.3512118
 106.1040012  23.1304997 134.5859988 106.8030012  23.2044997 135.2359988
 105.7230012  22.2664997 134.7399988 106.1481767  23.0237624 134.6958322
 106.8890012  22.7824997 125.6829988 107.1090012  23.2544997 124.8799988
 107.4470012  23.1774997 126.3529988 106.9944968  22.9004285 125.6637331
 104.5570012  34.9134997 124.5459988 103.7410012  35.4104997 124.5979988
 105.0870012  35.3884997 123.9059988 104.5169161  35.0457722 124.4665956
 104.0890012  24.5104997 126.5179988 104.9010012  25.0154997 126.5639988
 103.8440012  24.3654997 127.4319988 104.1670520  24.5600375 126.6478517
 104.6240012  25.4964997 135.7019988 104.7430012  26.0704997 136.4599988
 105.2800012  24.8084997 135.8169988 104.7289025  25.4819858 135.8211321
 104.9720012  21.5914997 127.4559988 104.6260012  22.2094997 128.0999988
 105.6310012  22.0924997 126.9739988 105.0136968  21.7436278 127.4789383
 101.8960012  35.9574997 124.5269988 102.0560012  36.7564997 124.0269988
 101.6980012  36.2634997 125.4119988 101.8911637  36.1084020 124.5781144
 100.6300012  22.6544997 124.1429988 100.5470012  23.5434997 124.4899988
 101.5200012  22.3894997 124.3749988 100.7389469  22.7401430 124.2217626
 110.8290012  23.4034997 136.5369988 109.9120012  23.6664997 136.4499988
 111.1640012  23.4004997 135.6409988 110.7488613  23.4390761 136.4038837
 109.4310012  27.1544997 130.6329988 108.6330012  26.7394997 130.3049988
 109.8760012  26.4634997 131.1239988 109.3819885  27.0043543 130.6544889
  98.8890012  33.0824997 123.2039988  99.4810012  33.7814997 123.4799988
  99.3480012  32.6494997 122.4839988  99.0321142  33.1197049 123.1444830
  97.2050012  25.7464997 122.3199988  97.1600012  26.6854997 122.4979988
  96.3170012  25.5104997 122.0499988  97.0788574  25.8431892 122.3078912
 110.5170012  36.4104997 132.2559988 110.3620012  37.0884997 131.5979988
 111.4500012  36.4824997 132.4589988 110.6218657  36.5129546 132.1934360
  98.0130012  20.5284997 130.9929988  97.7840012  20.5874997 130.0649988
  97.5700012  19.7364997 131.2989988  97.9218530  20.4295753 130.9074786
  96.9430012  34.4684997 127.1529988  96.1110012  34.9414997 127.1799988
  97.4890012  34.9784997 126.5549988  96.9030352  34.6021332 127.0758463
  96.2310012  37.0814997 138.4829988  96.7720012  36.8644997 139.2429988
  95.7500012  36.2754997 138.2929988  96.2399951  36.9429270 138.5612576
 100.8290012  36.0004997 140.1029988 101.5960012  35.5414997 140.4439988
 100.8070012  35.7744997 139.1739988 100.9311275  35.9070186 140.0240101
 104.9210012  35.5084997 121.4789988 104.2770012  34.8774997 121.7999988
 105.6830012  34.9774997 121.2469988 104.9358077  35.3502920 121.4916011
 107.4060012  34.3804997 138.8329988 107.0550012  33.5244997 139.0759988
 108.1320012  34.5234997 139.4399988 107.4560769  34.2825636 138.9483619
 109.5250012  35.3254997 121.7119988 109.8080012  34.5314997 122.1649988
 110.2650012  35.5584997 121.1519988 109.6638006  35.2483376 121.6982715
  96.1380012  30.8914997 139.4369988  96.2820012  29.9894997 139.1509988
  95.3660012  31.1774997 138.9499988  96.0532753  30.8066816 139.3319505
 100.4800012  31.2354997 121.5699988 100.5440012  30.4414997 122.1009988
 101.1330012  31.1164997 120.8799988 100.5770241  31.1107148 121.5494317
 102.7940012  30.8614997 138.8699988 102.4650012  31.1324997 138.0129988
 102.9460012  29.9204997 138.7829988 102.7694809  30.7713862 138.7408244
 105.8320012  32.2824997 121.3059988 105.5630012  32.4624997 122.2069988
 105.6260012  31.3564997 121.1739988 105.7673427  32.1820261 121.4115073
 108.5280012  30.7774997 136.2529988 109.2740012  31.3654997 136.1339988
 107.7710012  31.3594997 136.3169988 108.5277820  30.9367143 136.2453590
  96.9710012  28.0914997 138.8569988  97.3790012  27.2344997 138.7359988
  96.7110012  28.1064997 139.7779988  96.9917568  27.9760807 138.9649588
 101.6290012  29.2074997 123.8759988 101.1690012  28.7234997 124.5619988
 101.8840012  28.5394997 123.2399988 101.6004902  29.0508731 123.8839334
 100.9180012  27.1004997 136.2319988 100.3000012  27.7754997 136.5119988
 101.2620012  27.4214997 135.3979988 100.8799132  27.2362411 136.1576262
 102.7000012  27.4504997 122.1379988 102.5200012  27.2964997 121.2109988
 103.6500012  27.5584997 122.1829988 102.8037776  27.4440175 122.0171843
 105.9380012  29.5724997 139.5089988 106.8910012  29.6554997 139.4819988
 105.7770012  28.8604997 140.1289988 106.0466426  29.4876746 139.5890578
 112.0900012  29.8054997 121.5839988 111.8160012  29.3804997 120.7709988
 112.1290012  30.7364997 121.3669988 112.0577699  29.8732484 121.4433610
 101.2570012  24.4554997 137.3139988 101.4070012  23.7264997 136.7119988
 101.2600012  25.2324997 136.7549988 101.2779302  24.4607851 137.1560692
 101.6700012  22.8254997 134.8069988 102.2060012  23.2764997 134.1549988
 100.8180012  22.7174997 134.3839988 101.6282178  22.8726390 134.6605756
 103.2520012  28.2644997 135.0459988 104.0020012  28.1084997 134.4729988
 102.9130012  29.1164997 134.7709988 103.3088921  28.3582968 134.9303561
 107.6670012  26.0794997 140.0749988 107.8600012  25.1484997 139.9629988
 108.5250012  26.5044997 140.0639988 107.8092934  26.0096531 140.0582031
 108.9840012  28.8684997 138.1519988 108.7030012  29.5774997 137.5739988
 109.9270012  28.7954997 138.0009988 109.0729291  28.9556711 138.0524967
  99.7360012  25.6534997 139.2259988  98.9690012  25.1214997 139.0149988
 100.4150012  25.3434997 138.6259988  99.7227877  25.5388300 139.1160716
 102.4760012  20.2814997 135.2379988 102.3770012  21.2284997 135.1329988
 101.7330012  19.9094997 134.7619988 102.3621184  20.3605863 135.1593621
 103.7400012  24.6034997 138.8019988 103.5040012  24.3834997 139.7029988
 102.9560012  24.3964997 138.2919988 103.6018504  24.5454586 138.8563431
 106.4550012  23.7304997 137.8769988 105.5080012  23.7624997 138.0099988
 106.7680012  23.1054997 138.5309988 106.3676707  23.6503998 137.9836060
 108.0890012  22.3644997 139.8829988 107.9930012  21.4124997 139.8769988
 107.7680012  22.6334997 140.7429988 108.0324070  22.2704035 139.9985441
  97.9160012  23.5744997 138.9299988  98.1280012  22.8674997 138.3199988
  97.8050012  23.1364997 139.7739988  97.9299721  23.4187084 138.9606843
 102.6970012  19.5754997 137.9089988 103.4090012  18.9354997 137.8949988
 102.5960012  19.8424997 136.9959988 102.7808066  19.5240079 137.7835677
 103.0510012  21.2584997 139.9629988 102.9190012  20.7824997 139.1429988
 102.4520012  22.0024997 139.9079988 102.9519071  21.2939618 139.8432886
 102.5970012  38.1414997 123.1389988 103.5300012  38.2994997 123.2829988
 102.3330012  38.8164997 122.5149988 102.6889888  38.2544510 123.0742842
  96.1660012  32.7774997 122.6219988  97.0800012  32.8564997 122.8959988
  96.1730012  32.0904997 121.9559988  96.2921131  32.6953961 122.5694393
  94.8150012  38.1704997 127.6999988  94.1680012  37.7084997 127.1669988
  95.1690012  37.4984997 128.2819988  94.7743849  38.0164723 127.7057959
  95.6850012  36.2514997 129.5039988  95.3500012  35.3714997 129.6759988
  95.9070012  36.5964997 130.3689988  95.6691783  36.1777500 129.6444208
 113.2330012  37.0604997 132.4849988 113.2120012  37.2454997 133.4239988
 113.9240012  37.6294997 132.1439988 113.3234618  37.1626606 132.5673864
 112.7970012  36.6284997 135.4069988 112.3090012  35.8924997 135.0349988
 113.3460012  36.2344997 136.0849988 112.8044820  36.4745889 135.4477813
 111.2470012  32.4174997 140.0449988 110.3810012  32.3124997 140.4389988
 111.6240012  33.1764997 140.4909988 111.1793308  32.5056900 140.1592393
 112.5480012  30.6744997 125.5589988 113.3980012  31.0954997 125.6859988
 112.5540012  29.9344997 126.1659988 112.6651372  30.6320803 125.6584344
 112.9430012  28.7274997 127.3819988 112.2160012  28.2484997 127.7799988
 113.5240012  28.9334997 128.1149988 112.9220473  28.6898103 127.5354528
 112.7020012  31.5124997 132.3299988 113.5350012  31.1344997 132.0499988
 112.8140012  32.4554997 132.2109988 112.8312647  31.5882218 132.2755487
 111.1880012  34.3904997 134.6369988 110.5410012  34.7154997 135.2629988
 110.6710012  33.9504997 133.9629988 111.0294029  34.3755004 134.6315827
 113.2110012  28.6284997 123.7739988 112.6890012  28.9854997 123.0549988
 113.1780012  29.3034997 124.4519988 113.1351634  28.7685413 123.7673145
 111.5600012  25.8684997 122.3239988 111.6560012  26.5354997 121.6439988
 111.4200012  25.0524997 121.8429988 111.5542272  25.8495655 122.1658347
 110.7290012  27.2484997 127.9449988 110.5790012  26.3034997 127.9249988
 110.3760012  27.5294997 128.7889988 110.6607448  27.1571481 128.0563705
  95.7650012  29.3264997 131.9559988  95.9490012  29.2444997 131.0199988
  96.6140012  29.2024997 132.3789988  95.9050151  29.2985073 131.8851451
 111.5860012  29.2184997 137.5839988 112.1690012  28.4844997 137.7759988
 112.1500012  29.9904997 137.6309988 111.7419769  29.2224227 137.6166159
 113.0820012  27.1214997 138.2689988 112.2190012  26.7424997 138.1029988
 113.6870012  26.3824997 138.1939988 113.0456119  26.9698268 138.2361528
 110.8070012  23.2764997 121.4419988 111.4180012  22.9054997 122.0789988
 109.9710012  22.8554997 121.6379988 110.7775032  23.1687554 121.5557035
 110.4400012  24.8314997 126.4079988 110.7200012  23.9244997 126.5319988
 111.1990012  25.2654997 126.0189988 110.5809277  24.7660942 126.3723682
 111.0520012  25.4124997 131.8439988 111.9850012  25.6244997 131.8089988
 110.8170012  25.5144997 132.7659988 111.1479244  25.4553100 131.9638892
 111.0810012  26.1494997 134.6199988 110.2380012  26.4174997 134.9859988
 111.5230012  26.9714997 134.4089988 111.0254158  26.2973291 134.6415491
  95.3620012  24.5974997 138.0969988  96.2820012  24.4754997 138.3329988
  94.9130012  23.8474997 138.4859988  95.4271580  24.4793727 138.1819006
 113.3640012  20.1294997 139.9729988 113.7140012  19.4754997 139.3679988
 113.5110012  20.9664997 139.5329988 113.4317887  20.1531548 139.8306858
 111.0530012  22.0944997 126.4559988 111.2360012  21.6454997 127.2819988
 110.4540012  21.5094997 125.9929988 110.9970202  21.9539975 126.5063275
  96.5830012  22.9094997 130.9879988  97.0290012  22.1174997 131.2899988
  97.0500012  23.6254997 131.4179988  96.7070831  22.8980685 131.0874006
  94.8870012  25.9084997 132.0569988  95.3790012  25.6874997 131.2659988
  95.2500012  26.7494997 132.3379988  95.0033126  25.9918357 131.9867531
 112.8840012  22.2384997 138.3219988 111.9660012  22.5094997 138.2869988
 113.0070012  21.7034997 137.5379988 112.7749729  22.2032508 138.2111923
 112.9200012  22.1614997 122.9839988 113.3320012  21.4404997 122.5089988
 113.6020012  22.8314997 123.0429988 113.0685885  22.1532368 122.9268915
  95.2010012  22.1664997 126.1109988  94.2760012  22.3754997 125.9819988
  95.6550012  22.6504997 125.4209988  95.1357292  22.2605343 126.0000720
 109.9720012  37.1504997 128.0569988 110.6240012  36.8034997 127.4489988
 110.4820012  37.6394997 128.7029988 110.1302637  37.1690597 128.0610236
  95.1650012  20.9044997 134.4549988  94.5000012  20.6584997 135.0989988
  94.7220012  21.5264997 133.8779988  95.0141318  20.9549410 134.4650898
  97.3570012  34.0794997 138.5999988  96.5360012  34.2544997 138.1389988
  97.1040012  34.0064997 139.5199988  97.2105585  34.0935544 138.6613561
 100.3110012  35.0544997 134.8579988  99.8860012  35.8634997 134.5759988
 101.2150012  35.1394997 134.5559988 100.3749975  35.1769300 134.7784816
 104.6220012  36.4534997 137.8179988 104.8070012  36.1194997 138.6959988
 105.4680012  36.7624997 137.4959988 104.7617539  36.4496047 137.8945605
 106.9670012  37.7394997 137.0619988 107.6440012  37.1064997 136.8219988
 107.2890012  38.1404997 137.8689988 107.1031637  37.7071154 137.1382793
 111.8840012  20.3284997 136.1409988 111.0720012  20.6534997 135.7539988
 112.1170012  19.5684997 135.6079988 111.8042203  20.2702758 136.0158880
  97.7130012  38.3104997 134.9059988  96.9920012  38.7504997 134.4549988
  97.3470012  38.0594997 135.7539988  97.5649651  38.3367242 134.9589640
 100.1800012  37.9104997 133.9359988  99.3150012  37.9824997 134.3399988
 100.1250012  38.4574997 133.1519988 100.0542085  37.9942685 133.8853362
 104.8900012  37.7984997 133.1109988 104.4340012  38.3274997 132.4569988
 105.0530012  38.4014997 133.8359988 104.8496068  37.9524607 133.1194838
 107.2180012  36.6764997 134.0559988 106.3130012  36.8414997 133.7899988
 107.6470012  37.5294997 133.9909988 107.1521324  36.8144339 134.0107976
 109.8220012  38.2464997 134.3509988 109.6400012  39.1624997 134.1409988
 109.9990012  37.8364997 133.5049988 109.8210210  38.3164822 134.2077885
  97.1270012  36.9334997 131.8159988  97.1090012  36.5084997 132.6729988
  97.9320012  36.6154997 131.4069988  97.2333529  36.8323013 131.8780946
  99.2690012  35.6434997 130.4709988  99.0500012  34.7274997 130.6409988
 100.0930012  35.7834997 130.9369988  99.3504420  35.5370520 130.5572774
 101.8060012  36.1134997 131.3199988 102.0190012  35.2254997 131.0329988
 101.8700012  36.0794997 132.2739988 101.8438232  35.9873102 131.4097397
 105.3140012  21.7774997 130.4639988 104.6400012  21.1484997 130.7199988
 105.8780012  21.2934997 129.8609988 105.2979230  21.6258744 130.4175340
 110.4570012  19.8854997 130.5769988 111.0610012  20.4324997 130.0749988
 109.5870012  20.2044997 130.3359988 110.4221208  20.0035137 130.4756886
 112.1840012  21.0234997 128.9099988 112.7960012  20.5094997 128.3829988
 112.5660012  21.9014997 128.9329988 112.3193371  21.0717866 128.8410041
  97.6410012  20.4114997 128.2859988  96.8640012  20.1774997 127.7789988
  98.1710012  19.6144997 128.2949988  97.6062330  20.2716988 128.2177742
  96.4770012  20.2094997 124.0899988  96.9160012  20.8204997 123.4979988
  95.8440012  20.7474997 124.5639988  96.4514514  20.3659257 124.0730930
 102.2200012  20.3384997 128.0999988 103.0950012  20.7264997 128.0699988
 102.0840012  20.1234997 129.0219988 102.3213695  20.3625184 128.2206440
 107.7770012  20.3684997 129.7489988 107.8530012  20.4634997 128.7989988
 107.5020012  19.4604997 129.8779988 107.7502321  20.2587867 129.6365079
 109.1300012  20.3944997 125.4409988 108.4280012  21.0094997 125.2309988
 108.6860012  19.5564997 125.5719988 108.9736450  20.3655639 125.4299000
  96.3780012  36.1574997 124.9869988  95.6930012  36.1194997 124.3199988
  96.3820012  37.0704997 125.2759988  96.2846998  36.2756733 124.9346771
  98.3380012  22.1254997 122.5319988  98.8300012  21.4954997 122.0049988
  98.9620012  22.4214997 123.1949988  98.4895688  22.0793804 122.5495482
 103.3640012  22.4184997 124.9889988 103.5420012  21.7724997 125.6719988
 103.3110012  23.2524997 125.4559988 103.3811999  22.4428009 125.1455917
 105.2430012  37.3674997 123.3849988 106.1090012  37.7334997 123.2069988
 104.9960012  36.9274997 122.5709988 105.3282392  37.3581756 123.2506289
 111.9520012  36.9304997 126.0639988 111.7570012  36.1824997 125.4989988
 111.9130012  37.6884997 125.4809988 111.9200380  36.9306099 125.9078384
  97.5990012  20.9254997 137.8039988  97.2330012  20.1604997 138.2459988
  98.5120012  20.9544997 138.0899988  97.6722736  20.8245640 137.9032502
  99.5720012  20.2764997 139.3399988 100.4700012  20.0024997 139.1549988
  99.1850012  19.5334997 139.8039988  99.6426612  20.1385914 139.3773643
  98.1960012  37.0774997 122.0129988  97.9290012  37.3644997 122.8859988
  98.9680012  36.5314997 122.1649988  98.2637488  37.0430294 122.1531050
 107.9930012  19.6084997 139.5219988 108.0700012  19.1824997 140.3759988
 108.8870012  19.6224997 139.1789988 108.1243428  19.5520879 139.5925310
 111.1690012  35.6814997 138.2139988 110.3870012  35.4954997 137.6939988
 111.0970012  36.6104997 138.4319988 111.0522274  35.7816643 138.1723018
 125.5750012  29.5674997 128.2449988 125.6640012  30.5114997 128.1129988
 124.9370012  29.2924997 127.5869988 125.5009081  29.6594830 128.1379614
 124.5080012  28.8224997 131.6639988 124.4700012  28.1764997 132.3689988
 124.1860012  28.3564997 130.8929988 124.4592333  28.6709408 131.6562978
 116.8770012  28.4374997 133.2569988 116.9180012  27.8114997 133.9799988
 117.5800012  29.0614997 133.4389988 116.9776363  28.4361196 133.3806044
 128.2140012  31.7614997 129.9649988 127.7740012  31.0414997 130.4159988
 128.2010012  32.4824997 130.5949988 128.1520226  31.7603731 130.1118494
 117.8000012  32.8874997 131.7919988 117.4310012  32.0854997 131.4219988
 118.7410012  32.7184997 131.8379988 117.8767289  32.7550153 131.7476316
 114.4100012  26.5474997 127.1849988 113.9630012  27.3934997 127.1659988
 113.8490012  25.9674997 126.6689988 114.2729900  26.5849916 127.1126801
 115.1210012  28.7094997 129.3099988 115.3340012  27.9394997 129.8379988
 115.8590012  28.7984997 128.7069988 115.2499044  28.6161968 129.3007123
 125.3260012  36.8664997 130.1769988 125.9460012  36.1894997 129.9039988
 125.1180012  36.6484997 131.0859988 125.3826726  36.7444800 130.2624812
 122.8980012  31.2554997 132.0699988 123.2020012  30.5694997 131.4749988
 123.6190012  31.3734997 132.6879988 123.0370671  31.1776305 132.0721816
 131.5610012  22.8564997 132.9309988 131.6100012  23.4664997 133.6659988
 131.9860012  23.3174997 132.2079988 131.6251746  23.0023796 132.9339175
 126.0390012  25.6494997 132.3969988 126.1810012  24.7034997 132.4179988
 125.9320012  25.8564997 131.4689988 126.0439919  25.5478246 132.2743408
 119.1930012  23.7504997 129.6699988 119.2370012  24.6104997 129.2509988
 118.7360012  23.1984997 129.0359988 119.1372240  23.7934422 129.5269864
 126.9160012  23.8814997 128.0709988 127.5620012  23.5524997 128.6949988
 127.4260012  24.3994997 127.4479988 127.0734299  23.9064450 128.0722731
 115.8140012  26.1474997 130.4319988 116.4670012  25.5974997 130.8639988
 115.8380012  25.8734997 129.5149988 115.9066683  26.0351466 130.3672123
 120.9700012  27.6974997 129.6469988 121.5860012  27.1714997 130.1569988
 120.3840012  27.0574997 129.2439988 120.9750810  27.5389208 129.6623173
 131.9520012  24.3344997 135.1659988 131.2640012  24.9924997 135.0709988
 131.9680012  24.1374997 136.1029988 131.8599540  24.3979819 135.2795990
 118.0040012  22.6684997 133.7439988 117.7850012  23.1984997 132.9779988
 117.3360012  22.8954997 134.3909988 117.8837600  22.7716906 133.7266379
 125.3730012  32.1684997 127.2879988 125.0770012  31.8464997 126.4369988
 125.0480012  33.0684997 127.3289988 125.2886371  32.2460215 127.1771801
 120.5730012  30.3444997 134.0309988 119.8330012  30.9424997 134.1349988
 121.2870012  30.8984997 133.7159988 120.5682237  30.5012831 134.0026465
 128.6800012  23.1724997 130.0509988 128.4640012  22.4064997 130.5839988
 129.3350012  23.6444997 130.5639988 128.7390632  23.1315889 130.1932861
 117.5970012  24.5604997 131.6959988 118.2110012  25.1934997 132.0689988
 118.1090012  24.0884997 131.0399988 117.7501981  24.5832267 131.6582908
 118.9800012  32.3084997 134.8179988 118.9750012  33.1884997 134.4399988
 118.1270012  32.2254997 135.2429988 118.8639464  32.4176117 134.8237907
 115.1010012  31.9794997 125.5999988 114.8290012  32.2084997 124.7119988
 115.1470012  32.8174997 126.0609988 115.0699482  32.1241318 125.5406273
 128.7260012  33.6014997 132.3129988 127.7850012  33.6594997 132.4749988
 129.0030012  34.5074997 132.1759988 128.6344679  33.7319443 132.3166815
 129.0270012  21.8874997 133.7309988 128.2910012  22.4984997 133.6929988
 129.7100012  22.3024997 133.2039988 129.0186541  22.0271374 133.6545832
 122.0300012  19.9744997 131.1959988 121.9130012  19.0254997 131.1419988
 121.1750012  20.3064997 131.4699988 121.8984212  19.8895571 131.2256497
 126.9780012  35.3824997 128.9379988 127.4040012  34.6754997 128.4529988
 127.2950012  36.1834997 128.5219988 127.0791683  35.3941017 128.8153680
 128.1380012  33.2834997 127.4469988 127.8800012  32.5934997 126.8359988
 128.2090012  32.8404997 128.2929988 128.1122856  33.1292124 127.4776885
 129.8240012  31.8494997 135.9239988 129.9640012  31.2584997 135.1849988
 129.9910012  32.7224997 135.5679988 129.8657411  31.8865428 135.7746894
 124.2970012  28.8114997 125.6969988 123.5850012  29.3464997 125.3449988
 124.9880012  28.8674997 125.0369988 124.2930132  28.8922543 125.5596289
 124.3500012  27.2694997 122.7359988 125.0510012  27.2914997 123.3869988
 124.6530012  26.6414997 122.0789988 124.4868133  27.1877070 122.7363369
 131.6660012  28.1894997 133.9899988 131.0130012  28.8844997 134.0799988
 132.1310012  28.3994997 133.1809988 131.6395274  28.3130643 133.8928462
 127.7020012  29.0214997 126.6489988 126.9700012  29.2494997 127.2219988
 128.1500012  28.3074997 127.1029988 127.6622725  28.9562145 126.7888816
 127.6000012  27.1954997 135.7159988 127.6800012  27.9584997 136.2879988
 126.9980012  27.4744997 135.0259988 127.5295756  27.3377134 135.7010589
 119.3480012  29.6514997 128.5309988 119.0170012  29.2814997 127.7129988
 119.9360012  28.9814997 128.8779988 119.3821873  29.5101156 128.4658102
 120.7140012  33.0794997 131.2119988 120.6200012  32.5014997 130.4559988
 121.4440012  32.7084997 131.7089988 120.7997387  32.9501663 131.1755342
 119.7140012  28.4204997 132.1649988 120.2800012  28.5414997 131.4019988
 120.0330012  29.0574997 132.8029988 119.8345474  28.5232219 132.1469862
 126.0230012  33.9234997 132.8989988 125.7830012  34.5854997 133.5469988
 125.8250012  33.0894997 133.3239988 125.9633808  33.9013134 133.0451524
 120.5940012  32.8194997 136.8819988 120.2830012  33.6014997 137.3369988
 119.9440012  32.6664997 136.1959988 120.4635558  32.9059105 136.8515871
 126.5730012  28.1834997 124.3339988 127.1530012  28.3334997 125.0809988
 126.9870012  28.6544997 123.6099988 126.7082997  28.2676578 124.3384058
 117.5140012  29.0174997 136.1099988 117.5850012  29.6684997 136.8089988
 116.6240012  29.1204997 135.7749988 117.4033005  29.1205427 136.1603495
 124.3000012  34.9204997 127.7689988 124.7740012  35.2154997 128.5459988
 123.7370012  35.6584997 127.5359988 124.2888184  35.0607247 127.8439628
 118.8340012  34.8914997 137.6449988 118.8410012  34.7554997 136.6979988
 117.9180012  34.7734997 137.8969988 118.7111714  34.8569430 137.5494666
 130.2720012  19.9334997 124.1469988 129.3720012  20.0724997 124.4419988
 130.5240012  20.7644997 123.7449988 130.1828702  20.0649074 124.1330205
 118.3380012  28.7214997 126.1199988 118.0460012  29.4894997 125.6299988
 117.6640012  28.0614997 125.9579988 118.2068111  28.7375587 126.0308978
 131.4610012  34.2994997 122.5229988 131.5350012  35.2384997 122.6939988
 132.3670012  33.9944997 122.4669988 131.5935100  34.3866722 122.5388119
 114.4310012  31.0844997 134.9349988 113.9300012  31.0564997 134.1199988
 114.4360012  30.1784997 135.2449988 114.3630944  30.9582396 134.8653226
 114.1810012  33.8644997 131.8189988 115.1270012  33.7204997 131.7999988
 114.0690012  34.6484997 132.3559988 114.2952727  33.9508046 131.8890072
 132.3790012  34.5304997 137.5019988 132.3300012  33.5754997 137.4649988
 131.5520012  34.7984997 137.9029988 132.2604940  34.4358998 137.5511375
 123.3580012  34.1044997 136.3779988 123.4450012  34.9304997 136.8529988
 122.4940012  33.7744997 136.6269988 123.2531964  34.1729878 136.4766549
 123.7720012  37.8764997 126.1839988 123.6970012  37.7554997 125.2369988
 123.8050012  38.8264997 126.3019988 123.7662068  37.9882646 126.0704967
 117.4250012  36.6654997 127.9649988 117.5780012  36.3174997 128.8429988
 116.5750012  36.3094997 127.7099988 117.3309166  36.5696216 128.0508079
 126.8740012  37.0304997 123.1859988 127.2490012  36.2864997 122.7149988
 126.8780012  36.7604997 124.1049988 126.9259125  36.8920986 123.2456483
 126.5430012  36.9564997 125.9349988 125.6070012  37.0564997 126.1139988
 126.8230012  36.2474997 126.5139988 126.4529553  36.8743406 126.0377087
 129.5310012  26.0234997 137.9819988 129.1240012  26.5044997 137.2609988
 129.5720012  25.1184997 137.6739988 129.4808437  25.9669374 137.8416683
 116.6800012  32.4074997 135.9789988 116.8960012  32.0464997 136.8379988
 115.8250012  32.0334997 135.7689988 116.5939292  32.3074111 136.0683386
 119.2990012  20.8774997 131.9739988 118.4370012  20.7904997 131.5659988
 119.2760012  21.7334997 132.4019988 119.1780409  20.9812883 131.9760589
 123.9620012  20.5994997 135.3489988 124.3820012  20.1844997 136.1019988
 123.0290012  20.4214997 135.4659988 123.8933644  20.5185900 135.4679539
 127.2880012  24.3554997 136.2019988 126.7740012  24.2294997 136.9999988
 127.1330012  25.2674997 135.9579988 127.1966852  24.4616132 136.2782158
 128.0510012  29.2164997 121.9639988 128.0930012  28.9934997 121.0339988
 128.9000012  29.6154997 122.1529988 128.1715280  29.2399438 121.8623554
 123.6230012  23.0924997 122.6339988 123.3700012  23.1114997 123.5569988
 123.3670012  22.2204997 122.3319988 123.5537481  22.9772558 122.7196175
 119.3900012  25.8434997 133.0689988 118.7480012  25.8024997 133.7779988
 119.4270012  26.7694997 132.8309988 119.3070664  25.9631430 133.1339219
 119.3870012  26.0644997 127.9809988 118.4940012  25.7234997 127.9219988
 119.8370012  25.6874997 127.2249988 119.3258130  25.9669631 127.8707702
 124.9220012  26.4804997 126.7979988 124.5130012  27.2954997 126.5069988
 125.6430012  26.3404997 126.1839988 124.9634537  26.5732018 126.6751342
 124.0240012  26.6554997 138.2859988 123.4620012  25.9514997 138.6069988
 124.8510012  26.5354997 138.7539988 124.0587095  26.5427883 138.3932330
 125.9270012  25.9264997 129.6119988 125.7320012  26.5314997 128.8969988
 126.1080012  25.0924997 129.1779988 125.9247614  25.8966300 129.4554405
 117.1400012  26.1634997 134.9359988 117.1020012  26.5634997 135.8049988
 116.6490012  25.3464997 135.0269988 117.0684684  26.1078069 135.0671059
 120.5060012  23.5374997 121.7349988 120.0750012  23.0924997 122.4649988
 119.7880012  23.9094997 121.2229988 120.3499438  23.5268940 121.7656799
 113.7480012  23.2794997 128.7869988 114.3790012  23.2504997 129.5059988
 114.1970012  22.8544997 128.0559988 113.8950918  23.2180836 128.7866441
 115.0220012  24.0254997 124.2109988 115.4960012  24.6164997 123.6259988
 114.3050012  24.5564997 124.5579988 114.9899341  24.1780867 124.1778836
 125.1910012  27.5644997 134.2829988 125.5140012  26.9334997 133.6399988
 124.7510012  27.0294997 134.9439988 125.1757484  27.4058387 134.2843198
 121.9680012  23.4914997 129.0669988 121.0570012  23.5484997 129.3559988
 122.4740012  23.4314997 129.8779988 121.9116899  23.4911941 129.2161184
 116.7970012  25.1204997 127.8939988 115.9070012  25.2204997 127.5539988
 117.0930012  24.2784997 127.5479988 116.7152823  25.0203545 127.8007213
 120.4500012  25.1204997 125.5509988 121.3810012  25.2494997 125.7289988
 120.2350012  25.7904997 124.9009988 120.5484247  25.2286565 125.4875747
 126.3730012  22.7264997 132.3319988 125.6970012  22.8574997 132.9959988
 125.8880012  22.5714997 131.5209988 126.2147146  22.7235157 132.3134469
 119.1240012  26.3154997 123.1169988 118.5810012  25.9354997 122.4259988
 119.9570012  26.5094997 122.6889988 119.1623631  26.2897125 122.9644501
 129.6610012  38.3984997 138.6079988 129.8610012  38.8224997 137.7739988
 130.3160012  38.7414997 139.2149988 129.7770073  38.5029857 138.5758592
 117.2590012  30.8724997 138.2159988 117.9910012  31.1264997 138.7779988
 116.4790012  31.0764997 138.7319988 117.2537073  30.9348160 138.3626151
 123.2880012  26.2794997 130.9539988 123.8530012  25.7324997 130.4069988
 123.1410012  25.7574997 131.7429988 123.3453380  26.1342259 130.9858695
 118.2900012  22.4154997 127.3729988 117.9730012  21.5134997 127.3369988
 119.0720012  22.4174997 126.8199988 118.3522408  22.2922474 127.2933569
 121.9150012  24.6674997 133.3679988 121.0790012  25.1214997 133.4789988
 122.4390012  24.9434997 134.1199988 121.8715416  24.7668660 133.4848119
 122.4590012  30.8804997 125.0529988 121.7140012  30.3734997 124.7309988
 122.3250012  30.9294997 125.9999988 122.3388776  30.8176940 125.1368647
 129.6090012  30.0134997 133.8399988 130.2510012  30.4704997 133.2959988
 128.7790012  30.1264997 133.3769988 129.5845963  30.0912704 133.7030177
 126.3570012  23.6944997 123.2519988 125.4180012  23.8064997 123.1009988
 126.6540012  24.5514997 123.5589988 126.2687583  23.8255981 123.2728337
 123.9780012  31.0644997 136.2899988 123.6330012  30.6834997 137.0969988
 123.7780012  31.9984997 136.3609988 123.9037527  31.1385135 136.4100689
 127.0750012  25.5614997 124.9129988 127.9670012  25.4244997 125.2319988
 127.1320012  26.3524997 124.3759988 127.2046504  25.6496052 124.8840818
 117.5840012  30.1754997 130.8229988 118.3290012  30.1734997 130.2219988
 117.6620012  29.3524997 131.3039988 117.6964995  30.0638887 130.8058282
 124.5850012  32.3394997 124.0789988 124.2890012  33.1654997 124.4599988
 123.8820012  31.7194997 124.2749988 124.4494914  32.3688199 124.1576443
 114.5920012  28.6364997 136.1379988 114.8150012  28.2184997 136.9699988
 113.9900012  28.0234997 135.7149988 114.5411759  28.4964668 136.1947022
 121.6080012  28.1534997 138.3509988 121.3120012  27.9874997 137.4559988
 122.5400012  27.9334997 138.3399988 121.6934166  28.1010640 138.2270536
 126.2290012  33.5264997 136.2409988 125.3280012  33.7094997 135.9729988
 126.2630012  33.7854997 137.1609988 126.1103139  33.5865849 136.3288099
 131.9600012  25.7714997 124.6079988 131.4060012  25.3754997 123.9359988
 132.0600012  26.6814997 124.3299988 131.8977059  25.8403586 124.4784401
 131.9230012  31.5714997 137.4449988 131.0720012  31.8094997 137.0779988
 132.5140012  31.5544997 136.6919988 131.8862487  31.6018258 137.2928893
 130.2550012  34.5574997 125.0729988 129.8820012  33.7314997 125.3819988
 130.5330012  34.3744997 124.1749988 130.2415222  34.4197430 124.9939473
 127.4160012  29.3654997 132.0939988 126.4870012  29.1334997 132.0669988
 127.8670012  28.5884997 131.7639988 127.3499216  29.2287238 132.0456917
 119.9590012  33.6934997 128.2269988 120.4860012  34.4664997 128.0269988
 119.0790012  33.9184997 127.9249988 119.9122031  33.8297545 128.1587912
 115.7140012  28.5554997 122.8139988 116.3300012  29.1824997 123.1939988
 114.8520012  28.8714997 123.0859988 115.6817698  28.6839430 122.9027183
 121.3860012  31.3564997 127.8029988 121.1450012  32.2814997 127.8449988
 120.6450012  30.8974997 128.1999988 121.2529225  31.4210933 127.8623742
 121.9010012  35.5054997 134.1189988 122.2630012  36.3604997 133.8849988
 122.4320012  35.2134997 134.8589988 122.0224473  35.5831060 134.1870855
 120.0690012  36.3784997 127.3489988 119.1190012  36.4834997 127.3999988
 120.4210012  37.1984997 127.6929988 119.9864195  36.5038800 127.4025502
 125.4450012  31.6044997 133.8189988 125.0190012  31.3774997 134.6459988
 126.0250012  30.8664997 133.6369988 125.4651868  31.4735299 133.9075830
 127.6480012  32.5334997 122.8929988 128.0010012  32.1534997 123.6969988
 126.6990012  32.4404997 122.9799988 127.5680918  32.4688956 123.0148532
 128.1030012  36.1564997 136.2889988 127.5020012  35.6014997 135.7929988
 128.3850012  36.8234997 135.6619988 128.0588804  36.1706625 136.1364849
 132.1510012  37.0134997 123.0939988 132.8950012  37.5994997 122.9539988
 131.4570012  37.5814997 123.4269988 132.1589899  37.1705798 123.1198778
 116.2260012  23.3894997 135.6959988 115.3330012  23.7284997 135.6279988
 116.1270012  22.5344997 136.1139988 116.0904164  23.3202588 135.7432235
 128.5140012  31.2064997 125.1199988 128.2360012  30.4784997 125.6759988
 129.4410012  31.3254997 125.3249988 128.6013124  31.1228802 125.2238845
 115.8770012  35.1944997 134.1309988 116.0940012  34.2624997 134.0999988
 116.1230012  35.4684997 135.0139988 115.9399549  35.1040636 134.2461763
 121.7390012  33.6454997 121.3399988 121.9780012  32.8974997 120.7929988
 121.4700012  33.2574997 122.1729988 121.7353675  33.4906638 121.3776865
 120.6760012  33.2154997 123.7959988 120.8220012  32.6954997 124.5859988
 120.6730012  34.1224997 124.1029988 120.6955792  33.2668842 123.9456117
 117.1290012  30.4684997 124.3069988 116.4430012  30.8204997 124.8739988
 117.6510012  31.2314997 124.0599988 117.1056852  30.6198578 124.3512118
 124.9600012  23.1304997 134.5859988 125.6590012  23.2044997 135.2359988
 124.5790012  22.2664997 134.7399988 125.0041767  23.0237624 134.6958322
 125.7450012  22.7824997 125.6829988 125.9650012  23.2544997 124.8799988
 126.3030012  23.1774997 126.3529988 125.8504968  22.9004285 125.6637331
 123.4130012  34.9134997 124.5459988 122.5970012  35.4104997 124.5979988
 123.9430012  35.3884997 123.9059988 123.3729161  35.0457722 124.4665956
 122.9450012  24.5104997 126.5179988 123.7570012  25.0154997 126.5639988
 122.7000012  24.3654997 127.4319988 123.0230520  24.5600375 126.6478517
 123.4800012  25.4964997 135.7019988 123.5990012  26.0704997 136.4599988
 124.1360012  24.8084997 135.8169988 123.5849025  25.4819858 135.8211321
 123.8280012  21.5914997 127.4559988 123.4820012  22.2094997 128.0999988
 124.4870012  22.0924997 126.9739988 123.8696968  21.7436278 127.4789383
 120.7520012  35.9574997 124.5269988 120.9120012  36.7564997 124.0269988
 120.5540012  36.2634997 125.4119988 120.7471637  36.1084020 124.5781144
 119.4860012  22.6544997 124.1429988 119.4030012  23.5434997 124.4899988
 120.3760012  22.3894997 124.3749988 119.5949469  22.7401430 124.2217626
 129.6850012  23.4034997 136.5369988 128.7680012  23.6664997 136.4499988
 130.0200012  23.4004997 135.6409988 129.6048613  23.4390761 136.4038837
 128.2870012  27.1544997 130.6329988 127.4890012  26.7394997 130.3049988
 128.7320012  26.4634997 131.1239988 128.2379885  27.0043543 130.6544889
 117.7450012  33.0824997 123.2039988 118.3370012  33.7814997 123.4799988
 118.2040012  32.6494997 122.4839988 117.8881142  33.1197049 123.1444830
 116.0610012  25.7464997 122.3199988 116.0160012  26.6854997 122.4979988
 115.1730012  25.5104997 122.0499988 115.9348574  25.8431892 122.3078912
 129.3730012  36.4104997 132.2559988 129.2180012  37.0884997 131.5979988
 130.3060012  36.4824997 132.4589988 129.4778657  36.5129546 132.1934360
 116.8690012  20.5284997 130.9929988 116.6400012  20.5874997 130.0649988
 116.4260012  19.7364997 131.2989988 116.7778530  20.4295753 130.9074786
 115.7990012  34.4684997 127.1529988 114.9670012  34.9414997 127.1799988
 116.3450012  34.9784997 126.5549988 115.7590352  34.6021332 127.0758463
 115.0870012  37.0814997 138.4829988 115.6280012  36.8644997 139.2429988
 114.6060012  36.2754997 138.2929988 115.0959951  36.9429270 138.5612576
 119.6850012  36.0004997 140.1029988 120.4520012  35.5414997 140.4439988
 119.6630012  35.7744997 139.1739988 119.7871275  35.9070186 140.0240101
 123.7770012  35.5084997 121.4789988 123.1330012  34.8774997 121.7999988
 124.5390012  34.9774997 121.2469988 123.7918077  35.3502920 121.4916011
 126.2620012  34.3804997 138.8329988 125.9110012  33.5244997 139.0759988
 126.9880012  34.5234997 139.4399988 126.3120769  34.2825636 138.9483619
 128.3810012  35.3254997 121.7119988 128.6640012  34.5314997 122.1649988
 129.1210012  35.5584997 121.1519988 128.5198006  35.2483376 121.6982715
 114.9940012  30.8914997 139.4369988 115.1380012  29.9894997 139.1509988
 114.2220012  31.1774997 138.9499988 114.9092753  30.8066816 139.3319505
 119.3360012  31.2354997 121.5699988 119.4000012  30.4414997 122.1009988
 119.9890012  31.1164997 120.8799988 119.4330241  31.1107148 121.5494317
 121.6500012  30.8614997 138.8699988 121.3210012  31.1324997 138.0129988
 121.8020012  29.9204997 138.7829988 121.6254809  30.7713862 138.7408244
 124.6880012  32.2824997 121.3059988 124.4190012  32.4624997 122.2069988
 124.4820012  31.3564997 121.1739988 124.6233427  32.1820261 121.4115073
 127.3840012  30.7774997 136.2529988 128.1300012  31.3654997 136.1339988
 126.6270012  31.3594997 136.3169988 127.3837820  30.9367143 136.2453590
 115.8270012  28.0914997 138.8569988 116.2350012  27.2344997 138.7359988
 115.5670012  28.1064997 139.7779988 115.8477568  27.9760807 138.9649588
 120.4850012  29.2074997 123.8759988 120.0250012  28.7234997 124.5619988
 120.7400012  28.5394997 123.2399988 120.4564902  29.0508731 123.8839334
 119.7740012  27.1004997 136.2319988 119.1560012  27.7754997 136.5119988
 120.1180012  27.4214997 135.3979988 119.7359132  27.2362411 136.1576262
 121.5560012  27.4504997 122.1379988 121.3760012  27.2964997 121.2109988
 122.5060012  27.5584997 122.1829988 121.6597776  27.4440175 122.0171843
 124.7940012  29.5724997 139.5089988 125.7470012  29.6554997 139.4819988
 124.6330012  28.8604997 140.1289988 124.9026426  29.4876746 139.5890578
 130.9460012  29.8054997 121.5839988 130.6720012  29.3804997 120.7709988
 130.9850012  30.7364997 121.3669988 130.9137699  29.8732484 121.4433610
 120.1130012  24.4554997 137.3139988 120.2630012  23.7264997 136.7119988
 120.1160012  25.2324997 136.7549988 120.1339302  24.4607851 137.1560692
 120.5260012  22.8254997 134.8069988 121.0620012  23.2764997 134.1549988
 119.6740012  22.7174997 134.3839988 120.4842178  22.8726390 134.6605756
 122.1080012  28.2644997 135.0459988 122.8580012  28.1084997 134.4729988
 121.7690012  29.1164997 134.7709988 122.1648921  28.3582968 134.9303561
 126.5230012  26.0794997 140.0749988 126.7160012  25.1484997 139.9629988
 127.3810012  26.5044997 140.0639988 126.6652934  26.0096531 140.0582031
 127.8400012  28.8684997 138.1519988 127.5590012  29.5774997 137.5739988
 128.7830012  28.7954997 138.0009988 127.9289291  28.9556711 138.0524967
 118.5920012  25.6534997 139.2259988 117.8250012  25.1214997 139.0149988
 119.2710012  25.3434997 138.6259988 118.5787877  25.5388300 139.1160716
 121.3320012  20.2814997 135.2379988 121.2330012  21.2284997 135.1329988
 120.5890012  19.9094997 134.7619988 121.2181184  20.3605863 135.1593621
 122.5960012  24.6034997 138.8019988 122.3600012  24.3834997 139.7029988
 121.8120012  24.3964997 138.2919988 122.4578504  24.5454586 138.8563431
 125.3110012  23.7304997 137.8769988 124.3640012  23.7624997 138.0099988
 125.6240012  23.1054997 138.5309988 125.2236707  23.6503998 137.9836060
 126.9450012  22.3644997 139.8829988 126.8490012  21.4124997 139.8769988
 126.6240012  22.6334997 140.7429988 126.8884070  22.2704035 139.9985441
 116.7720012  23.5744997 138.9299988 116.9840012  22.8674997 138.3199988
 116.6610012  23.1364997 139.7739988 116.7859721  23.4187084 138.9606843
 121.5530012  19.5754997 137.9089988 122.2650012  18.9354997 137.8949988
 121.4520012  19.8424997 136.9959988 121.6368066  19.5240079 137.7835677
 121.9070012  21.2584997 139.9629988 121.7750012  20.7824997 139.1429988
 121.3080012  22.0024997 139.9079988 121.8079071  21.2939618 139.8432886
 121.4530012  38.1414997 123.1389988 122.3860012  38.2994997 123.2829988
 121.1890012  38.8164997 122.5149988 121.5449888  38.2544510 123.0742842
 115.0220012  32.7774997 122.6219988 115.9360012  32.8564997 122.8959988
 115.0290012  32.0904997 121.9559988 115.1481131  32.6953961 122.5694393
 113.6710012  38.1704997 127.6999988 113.0240012  37.7084997 127.1669988
 114.0250012  37.4984997 128.2819988 113.6303849  38.0164723 127.7057959
 114.5410012  36.2514997 129.5039988 114.2060012  35.3714997 129.6759988
 114.7630012  36.5964997 130.3689988 114.5251783  36.1777500 129.6444208
 132.0890012  37.0604997 132.4849988 132.0680012  37.2454997 133.4239988
 132.7800012  37.6294997 132.1439988 132.1794618  37.1626606 132.5673864
 131.6530012  36.6284997 135.4069988 131.1650012  35.8924997 135.0349988
 132.2020012  36.2344997 136.0849988 131.6604820  36.4745889 135.4477813
 130.1030012  32.4174997 140.0449988 129.2370012  32.3124997 140.4389988
 130.4800012  33.1764997 140.4909988 130.0353308  32.5056900 140.1592393
 131.4040012  30.6744997 125.5589988 132.2540012  31.0954997 125.6859988
 131.4100012  29.9344997 126.1659988 131.5211372  30.6320803 125.6584344
 131.7990012  28.7274997 127.3819988 131.0720012  28.2484997 127.7799988
 132.3800012  28.9334997 128.1149988 131.7780473  28.6898103 127.5354528
 131.5580012  31.5124997 132.3299988 132.3910012  31.1344997 132.0499988
 131.6700012  32.4554997 132.2109988 131.6872647  31.5882218 132.2755487
 130.0440012  34.3904997 134.6369988 129.3970012  34.7154997 135.2629988
 129.5270012  33.9504997 133.9629988 129.8854029  34.3755004 134.6315827
 132.0670012  28.6284997 123.7739988 131.5450012  28.9854997 123.0549988
 132.0340012  29.3034997 124.4519988 131.9911634  28.7685413 123.7673145
 130.4160012  25.8684997 122.3239988 130.5120012  26.5354997 121.6439988
 130.2760012  25.0524997 121.8429988 130.4102272  25.8495655 122.1658347
 129.5850012  27.2484997 127.9449988 129.4350012  26.3034997 127.9249988
 129.2320012  27.5294997 128.7889988 129.5167448  27.1571481 128.0563705
 114.6210012  29.3264997 131.9559988 114.8050012  29.2444997 131.0199988
 115.4700012  29.2024997 132.3789988 114.7610151  29.2985073 131.8851451
 130.4420012  29.2184997 137.5839988 131.0250012  28.4844997 137.7759988
 131.0060012  29.9904997 137.6309988 130.5979769  29.2224227 137.6166159
 131.9380012  27.1214997 138.2689988 131.0750012  26.7424997 138.1029988
 132.5430012  26.3824997 138.1939988 131.9016119  26.9698268 138.2361528
 129.6630012  23.2764997 121.4419988 130.2740012  22.9054997 122.0789988
 128.8270012  22.8554997 121.6379988 129.6335032  23.1687554 121.5557035
 129.2960012  24.8314997 126.4079988 129.5760012  23.9244997 126.5319988
 130.0550012  25.2654997 126.0189988 129.4369277  24.7660942 126.3723682
 129.9080012  25.4124997 131.8439988 130.8410012  25.6244997 131.8089988
 129.6730012  25.5144997 132.7659988 130.0039244  25.4553100 131.9638892
 129.9370012  26.1494997 134.6199988 129.0940012  26.4174997 134.9859988
 130.3790012  26.9714997 134.4089988 129.8814158  26.2973291 134.6415491
 114.2180012  24.5974997 138.0969988 115.1380012  24.4754997 138.3329988
 113.7690012  23.8474997 138.4859988 114.2831580  24.4793727 138.1819006
 132.2200012  20.1294997 139.9729988 132.5700012  19.4754997 139.3679988
 132.3670012  20.9664997 139.5329988 132.2877887  20.1531548 139.8306858
 129.9090012  22.0944997 126.4559988 130.0920012  21.6454997 127.2819988
 129.3100012  21.5094997 125.9929988 129.8530202  21.9539975 126.5063275
 115.4390012  22.9094997 130.9879988 115.8850012  22.1174997 131.2899988
 115.9060012  23.6254997 131.4179988 115.5630831  22.8980685 131.0874006
 113.7430012  25.9084997 132.0569988 114.2350012  25.6874997 131.2659988
 114.1060012  26.7494997 132.3379988 113.8593126  25.9918357 131.9867531
 131.7400012  22.2384997 138.3219988 130.8220012  22.5094997 138.2869988
 131.8630012  21.7034997 137.5379988 131.6309729  22.2032508 138.2111923
 131.7760012  22.1614997 122.9839988 132.1880012  21.4404997 122.5089988
 132.4580012  22.8314997 123.0429988 131.9245885  22.1532368 122.9268915
 114.0570012  22.1664997 126.1109988 113.1320012  22.3754997 125.9819988
 114.5110012  22.6504997 125.4209988 113.9917292  22.2605343 126.0000720
 128.8280012  37.1504997 128.0569988 129.4800012  36.8034997 127.4489988
 129.3380012  37.6394997 128.7029988 128.9862637  37.1690597 128.0610236
 114.0210012  20.9044997 134.4549988 113.3560012  20.6584997 135.0989988
 113.5780012  21.5264997 133.8779988 113.8701318  20.9549410 134.4650898
 116.2130012  34.0794997 138.5999988 115.3920012  34.2544997 138.1389988
 115.9600012  34.0064997 139.5199988 116.0665585  34.0935544 138.6613561
 119.1670012  35.0544997 134.8579988 118.7420012  35.8634997 134.5759988
 120.0710012  35.1394997 134.5559988 119.2309975  35.1769300 134.7784816
 123.4780012  36.4534997 137.8179988 123.6630012  36.1194997 138.6959988
 124.3240012  36.7624997 137.4959988 123.6177539  36.4496047 137.8945605
 125.8230012  37.7394997 137.0619988 126.5000012  37.1064997 136.8219988
 126.1450012  38.1404997 137.8689988 125.9591637  37.7071154 137.1382793
 130.7400012  20.3284997 136.1409988 129.9280012  20.6534997 135.7539988
 130.9730012  19.5684997 135.6079988 130.6602203  20.2702758 136.0158880
 116.5690012  38.3104997 134.9059988 115.8480012  38.7504997 134.4549988
 116.2030012  38.0594997 135.7539988 116.4209651  38.3367242 134.9589640
 119.0360012  37.9104997 133.9359988 118.1710012  37.9824997 134.3399988
 118.9810012  38.4574997 133.1519988 118.9102085  37.9942685 133.8853362
 123.7460012  37.7984997 133.1109988 123.2900012  38.3274997 132.4569988
 123.9090012  38.4014997 133.8359988 123.7056068  37.9524607 133.1194838
 126.0740012  36.6764997 134.0559988 125.1690012  36.8414997 133.7899988
 126.5030012  37.5294997 133.9909988 126.0081324  36.8144339 134.0107976
 128.6780012  38.2464997 134.3509988 128.4960012  39.1624997 134.1409988
 128.8550012  37.8364997 133.5049988 128.6770210  38.3164822 134.2077885
 115.9830012  36.9334997 131.8159988 115.9650012  36.5084997 132.6729988
 116.7880012  36.6154997 131.4069988 116.0893529  36.8323013 131.8780946
 118.1250012  35.6434997 130.4709988 117.9060012  34.7274997 130.6409988
 118.9490012  35.7834997 130.9369988 118.2064420  35.5370520 130.5572774
 120.6620012  36.1134997 131.3199988 120.8750012  35.2254997 131.0329988
 120.7260012  36.0794997 132.2739988 120.6998232  35.9873102 131.4097397
 124.1700012  21.7774997 130.4639988 123.4960012  21.1484997 130.7199988
 124.7340012  21.2934997 129.8609988 124.1539230  21.6258744 130.4175340
 129.3130012  19.8854997 130.5769988 129.9170012  20.4324997 130.0749988
 128.4430012  20.2044997 130.3359988 129.2781208  20.0035137 130.4756886
 131.0400012  21.0234997 128.9099988 131.6520012  20.5094997 128.3829988
 131.4220012  21.9014997 128.9329988 131.1753371  21.0717866 128.8410041
 116.4970012  20.4114997 128.2859988 115.7200012  20.1774997 127.7789988
 117.0270012  19.6144997 128.2949988 116.4622330  20.2716988 128.2177742
 115.3330012  20.2094997 124.0899988 115.7720012  20.8204997 123.4979988
 114.7000012  20.7474997 124.5639988 115.3074514  20.3659257 124.0730930
 121.0760012  20.3384997 128.0999988 121.9510012  20.7264997 128.0699988
 120.9400012  20.1234997 129.0219988 121.1773695  20.3625184 128.2206440
 126.6330012  20.3684997 129.7489988 126.7090012  20.4634997 128.7989988
 126.3580012  19.4604997 129.8779988 126.6062321  20.2587867 129.6365079
 127.9860012  20.3944997 125.4409988 127.2840012  21.0094997 125.2309988
 127.5420012  19.5564997 125.5719988 127.8296450  20.3655639 125.4299000
 115.2340012  36.1574997 124.9869988 114.5490012  36.1194997 124.3199988
 115.2380012  37.0704997 125.2759988 115.1406998  36.2756733 124.9346771
 117.1940012  22.1254997 122.5319988 117.6860012  21.4954997 122.0049988
 117.8180012  22.4214997 123.1949988 117.3455688  22.0793804 122.5495482
 122.2200012  22.4184997 124.9889988 122.3980012  21.7724997 125.6719988
 122.1670012  23.2524997 125.4559988 122.2371999  22.4428009 125.1455917
 124.0990012  37.3674997 123.3849988 124.9650012  37.7334997 123.2069988
 123.8520012  36.9274997 122.5709988 124.1842392  37.3581756 123.2506289
 130.8080012  36.9304997 126.0639988 130.6130012  36.1824997 125.4989988
 130.7690012  37.6884997 125.4809988 130.7760380  36.9306099 125.9078384
 116.4550012  20.9254997 137.8039988 116.0890012  20.1604997 138.2459988
 117.3680012  20.9544997 138.0899988 116.5282736  20.8245640 137.9032502
 118.4280012  20.2764997 139.3399988 119.3260012  20.0024997 139.1549988
 118.0410012  19.5334997 139.8039988 118.4986612  20.1385914 139.3773643
 117.0520012  37.0774997 122.0129988 116.7850012  37.3644997 122.8859988
 117.8240012  36.5314997 122.1649988 117.1197488  37.0430294 122.1531050
 126.8490012  19.6084997 139.5219988 126.9260012  19.1824997 140.3759988
 127.7430012  19.6224997 139.1789988 126.9803428  19.5520879 139.5925310
 130.0250012  35.6814997 138.2139988 129.2430012  35.4954997 137.6939988
 129.9530012  36.6104997 138.4319988 129.9082274  35.7816643 138.1723018
 144.4310012  29.5674997 128.2449988 144.5200012  30.5114997 128.1129988
 143.7930012  29.2924997 127.5869988 144.3569081  29.6594830 128.1379614
 143.3640012  28.8224997 131.6639988 143.3260012  28.1764997 132.3689988
 143.0420012  28.3564997 130.8929988 143.3152333  28.6709408 131.6562978
 135.7330012  28.4374997 133.2569988 135.7740012  27.8114997 133.9799988
 136.4360012  29.0614997 133.4389988 135.8336363  28.4361196 133.3806044
 136.6560012  32.8874997 131.7919988 136.2870012  32.0854997 131.4219988
 137.5970012  32.7184997 131.8379988 136.7327289  32.7550153 131.7476316
 133.2660012  26.5474997 127.1849988 132.8190012  27.3934997 127.1659988
 132.7050012  25.9674997 126.6689988 133.1289900  26.5849916 127.1126801
 133.9770012  28.7094997 129.3099988 134.1900012  27.9394997 129.8379988
 134.7150012  28.7984997 128.7069988 134.1059044  28.6161968 129.3007123
 144.1820012  36.8664997 130.1769988 144.8020012  36.1894997 129.9039988
 143.9740012  36.6484997 131.0859988 144.2386726  36.7444800 130.2624812
 141.7540012  31.2554997 132.0699988 142.0580012  30.5694997 131.4749988
 142.4750012  31.3734997 132.6879988 141.8930671  31.1776304 132.0721816
 144.8950012  25.6494997 132.3969988 145.0370012  24.7034997 132.4179988
 144.7880012  25.8564997 131.4689988 144.8999919  25.5478246 132.2743408
 138.0490012  23.7504997 129.6699988 138.0930012  24.6104997 129.2509988
 137.5920012  23.1984997 129.0359988 137.9932240  23.7934422 129.5269864
 134.6700012  26.1474997 130.4319988 135.3230012  25.5974997 130.8639988
 134.6940012  25.8734997 129.5149988 134.7626683  26.0351466 130.3672123
 139.8260012  27.6974997 129.6469988 140.4420012  27.1714997 130.1569988
 139.2400012  27.0574997 129.2439988 139.8310810  27.5389208 129.6623173
 136.8600012  22.6684997 133.7439988 136.6410012  23.1984997 132.9779988
 136.1920012  22.8954997 134.3909988 136.7397600  22.7716906 133.7266379
 144.2290012  32.1684997 127.2879988 143.9330012  31.8464997 126.4369988
 143.9040012  33.0684997 127.3289988 144.1446371  32.2460215 127.1771801
 139.4290012  30.3444997 134.0309988 138.6890012  30.9424997 134.1349988
 140.1430012  30.8984997 133.7159988 139.4242237  30.5012831 134.0026465
 136.4530012  24.5604997 131.6959988 137.0670012  25.1934997 132.0689988
 136.9650012  24.0884997 131.0399988 136.6061981  24.5832267 131.6582908
 137.8360012  32.3084997 134.8179988 137.8310012  33.1884997 134.4399988
 136.9830012  32.2254997 135.2429988 137.7199464  32.4176117 134.8237907
 133.9570012  31.9794997 125.5999988 133.6850012  32.2084997 124.7119988
 134.0030012  32.8174997 126.0609988 133.9259482  32.1241318 125.5406273
 140.8860012  19.9744997 131.1959988 140.7690012  19.0254997 131.1419988
 140.0310012  20.3064997 131.4699988 140.7544212  19.8895571 131.2256497
 143.1530012  28.8114997 125.6969988 142.4410012  29.3464997 125.3449988
 143.8440012  28.8674997 125.0369988 143.1490132  28.8922543 125.5596289
 143.2060012  27.2694997 122.7359988 143.9070012  27.2914997 123.3869988
 143.5090012  26.6414997 122.0789988 143.3428133  27.1877070 122.7363369
 138.2040012  29.6514997 128.5309988 137.8730012  29.2814997 127.7129988
 138.7920012  28.9814997 128.8779988 138.2381873  29.5101156 128.4658102
 139.5700012  33.0794997 131.2119988 139.4760012  32.5014997 130.4559988
 140.3000012  32.7084997 131.7089988 139.6557387  32.9501663 131.1755342
 138.5700012  28.4204997 132.1649988 139.1360012  28.5414997 131.4019988
 138.8890012  29.0574997 132.8029988 138.6905474  28.5232219 132.1469862
 144.8790012  33.9234997 132.8989988 144.6390012  34.5854997 133.5469988
 144.6810012  33.0894997 133.3239988 144.8193808  33.9013134 133.0451524
 139.4500012  32.8194997 136.8819988 139.1390012  33.6014997 137.3369988
 138.8000012  32.6664997 136.1959988 139.3195558  32.9059105 136.8515871
 136.3700012  29.0174997 136.1099988 136.4410012  29.6684997 136.8089988
 135.4800012  29.1204997 135.7749988 136.2593005  29.1205427 136.1603495
 143.1560012  34.9204997 127.7689988 143.6300012  35.2154997 128.5459988
 142.5930012  35.6584997 127.5359988 143.1448184  35.0607247 127.8439628
 137.6900012  34.8914997 137.6449988 137.6970012  34.7554997 136.6979988
 136.7740012  34.7734997 137.8969988 137.5671714  34.8569430 137.5494666
 137.1940012  28.7214997 126.1199988 136.9020012  29.4894997 125.6299988
 136.5200012  28.0614997 125.9579988 137.0628111  28.7375587 126.0308978
 133.2870012  31.0844997 134.9349988 132.7860012  31.0564997 134.1199988
 133.2920012  30.1784997 135.2449988 133.2190944  30.9582396 134.8653226
 133.0370012  33.8644997 131.8189988 133.9830012  33.7204997 131.7999988
 132.9250012  34.6484997 132.3559988 133.1512727  33.9508046 131.8890072
 142.2140012  34.1044997 136.3779988 142.3010012  34.9304997 136.8529988
 141.3500012  33.7744997 136.6269988 142.1091964  34.1729878 136.4766549
 142.6280012  37.8764997 126.1839988 142.5530012  37.7554997 125.2369988
 142.6610012  38.8264997 126.3019988 142.6222068  37.9882646 126.0704967
 136.2810012  36.6654997 127.9649988 136.4340012  36.3174997 128.8429988
 135.4310012  36.3094997 127.7099988 136.1869166  36.5696216 128.0508079
 135.5360012  32.4074997 135.9789988 135.7520012  32.0464997 136.8379988
 134.6810012  32.0334997 135.7689988 135.4499292  32.3074111 136.0683386
 138.1550012  20.8774997 131.9739988 137.2930012  20.7904997 131.5659988
 138.1320012  21.7334997 132.4019988 138.0340409  20.9812883 131.9760589
 142.8180012  20.5994997 135.3489988 143.2380012  20.1844997 136.1019988
 141.8850012  20.4214997 135.4659988 142.7493644  20.5185900 135.4679539
 142.4790012  23.0924997 122.6339988 142.2260012  23.1114997 123.5569988
 142.2230012  22.2204997 122.3319988 142.4097481  22.9772558 122.7196175
 138.2460012  25.8434997 133.0689988 137.6040012  25.8024997 133.7779988
 138.2830012  26.7694997 132.8309988 138.1630664  25.9631430 133.1339219
 138.2430012  26.0644997 127.9809988 137.3500012  25.7234997 127.9219988
 138.6930012  25.6874997 127.2249988 138.1818130  25.9669631 127.8707702
 143.7780012  26.4804997 126.7979988 143.3690012  27.2954997 126.5069988
 144.4990012  26.3404997 126.1839988 143.8194537  26.5732018 126.6751342
 142.8800012  26.6554997 138.2859988 142.3180012  25.9514997 138.6069988
 143.7070012  26.5354997 138.7539988 142.9147095  26.5427883 138.3932330
 144.7830012  25.9264997 129.6119988 144.5880012  26.5314997 128.8969988
 144.9640012  25.0924997 129.1779988 144.7807614  25.8966300 129.4554405
 135.9960012  26.1634997 134.9359988 135.9580012  26.5634997 135.8049988
 135.5050012  25.3464997 135.0269988 135.9244684  26.1078069 135.0671059
 139.3620012  23.5374997 121.7349988 138.9310012  23.0924997 122.4649988
 138.6440012  23.9094997 121.2229988 139.2059438  23.5268940 121.7656799
 132.6040012  23.2794997 128.7869988 133.2350012  23.2504997 129.5059988
 133.0530012  22.8544997 128.0559988 132.7510918  23.2180836 128.7866441
 133.8780012  24.0254997 124.2109988 134.3520012  24.6164997 123.6259988
 133.1610012  24.5564997 124.5579988 133.8459341  24.1780867 124.1778836
 144.0470012  27.5644997 134.2829988 144.3700012  26.9334997 133.6399988
 143.6070012  27.0294997 134.9439988 144.0317484  27.4058387 134.2843198
 140.8240012  23.4914997 129.0669988 139.9130012  23.5484997 129.3559988
 141.3300012  23.4314997 129.8779988 140.7676899  23.4911941 129.2161184
 135.6530012  25.1204997 127.8939988 134.7630012  25.2204997 127.5539988
 135.9490012  24.2784997 127.5479988 135.5712823  25.0203545 127.8007213
 139.3060012  25.1204997 125.5509988 140.2370012  25.2494997 125.7289988
 139.0910012  25.7904997 124.9009988 139.4044247  25.2286565 125.4875747
 137.9800012  26.3154997 123.1169988 137.4370012  25.9354997 122.4259988
 138.8130012  26.5094997 122.6889988 138.0183631  26.2897125 122.9644501
 136.1150012  30.8724997 138.2159988 136.8470012  31.1264997 138.7779988
 135.3350012  31.0764997 138.7319988 136.1097073  30.9348160 138.3626151
 142.1440012  26.2794997 130.9539988 142.7090012  25.7324997 130.4069988
 141.9970012  25.7574997 131.7429988 142.2013380  26.1342259 130.9858695
 137.1460012  22.4154997 127.3729988 136.8290012  21.5134997 127.3369988
 137.9280012  22.4174997 126.8199988 137.2082408  22.2922474 127.2933569
 140.7710012  24.6674997 133.3679988 139.9350012  25.1214997 133.4789988
 141.2950012  24.9434997 134.1199988 140.7275416  24.7668660 133.4848119
 141.3150012  30.8804997 125.0529988 140.5700012  30.3734997 124.7309988
 141.1810012  30.9294997 125.9999988 141.1948776  30.8176940 125.1368647
 142.8340012  31.0644997 136.2899988 142.4890012  30.6834997 137.0969988
 142.6340012  31.9984997 136.3609988 142.7597527  31.1385135 136.4100689
 136.4400012  30.1754997 130.8229988 137.1850012  30.1734997 130.2219988
 136.5180012  29.3524997 131.3039988 136.5524995  30.0638887 130.8058282
 143.4410012  32.3394997 124.0789988 143.1450012  33.1654997 124.4599988
 142.7380012  31.7194997 124.2749988 143.3054914  32.3688199 124.1576443
 133.4480012  28.6364997 136.1379988 133.6710012  28.2184997 136.9699988
 132.8460012  28.0234997 135.7149988 133.3971759  28.4964668 136.1947022
 140.4640012  28.1534997 138.3509988 140.1680012  27.9874997 137.4559988
 141.3960012  27.9334997 138.3399988 140.5494166  28.1010640 138.2270536
 138.8150012  33.6934997 128.2269988 139.3420012  34.4664997 128.0269988
 137.9350012  33.9184997 127.9249988 138.7682031  33.8297545 128.1587912
 134.5700012  28.5554997 122.8139988 135.1860012  29.1824997 123.1939988
 133.7080012  28.8714997 123.0859988 134.5377698  28.6839430 122.9027183
 140.2420012  31.3564997 127.8029988 140.0010012  32.2814997 127.8449988
 139.5010012  30.8974997 128.1999988 140.1089225  31.4210933 127.8623742
 140.7570012  35.5054997 134.1189988 141.1190012  36.3604997 133.8849988
 141.2880012  35.2134997 134.8589988 140.8784473  35.5831060 134.1870855
 138.9250012  36.3784997 127.3489988 137.9750012  36.4834997 127.3999988
 139.2770012  37.1984997 127.6929988 138.8424195  36.5038800 127.4025502
 144.3010012  31.6044997 133.8189988 143.8750012  31.3774997 134.6459988
 144.8810012  30.8664997 133.6369988 144.3211868  31.4735299 133.9075830
 135.0820012  23.3894997 135.6959988 134.1890012  23.7284997 135.6279988
 134.9830012  22.5344997 136.1139988 134.9464164  23.3202588 135.7432235
 134.7330012  35.1944997 134.1309988 134.9500012  34.2624997 134.0999988
 134.9790012  35.4684997 135.0139988 134.7959549  35.1040636 134.2461763
 140.5950012  33.6454997 121.3399988 140.8340012  32.8974997 120.7929988
 140.3260012  33.2574997 122.1729988 140.5913675  33.4906638 121.3776865
 139.5320012  33.2154997 123.7959988 139.6780012  32.6954997 124.5859988
 139.5290012  34.1224997 124.1029988 139.5515792  33.2668842 123.9456117
 135.9850012  30.4684997 124.3069988 135.2990012  30.8204997 124.8739988
 136.5070012  31.2314997 124.0599988 135.9616852  30.6198578 124.3512118
 143.8160012  23.1304997 134.5859988 144.5150012  23.2044997 135.2359988
 143.4350012  22.2664997 134.7399988 143.8601767  23.0237624 134.6958322
 144.6010012  22.7824997 125.6829988 144.8210012  23.2544997 124.8799988
 145.1590012  23.1774997 126.3529988 144.7064968  22.9004285 125.6637331
 142.2690012  34.9134997 124.5459988 141.4530012  35.4104997 124.5979988
 142.7990012  35.3884997 123.9059988 142.2289161  35.0457722 124.4665956
 141.8010012  24.5104997 126.5179988 142.6130012  25.0154997 126.5639988
 141.5560012  24.3654997 127.4319988 141.8790520  24.5600375 126.6478517
 142.3360012  25.4964997 135.7019988 142.4550012  26.0704997 136.4599988
 142.9920012  24.8084997 135.8169988 142.4409025  25.4819858 135.8211321
 142.6840012  21.5914997 127.4559988 142.3380012  22.2094997 128.0999988
 143.3430012  22.0924997 126.9739988 142.7256968  21.7436278 127.4789383
 139.6080012  35.9574997 124.5269988 139.7680012  36.7564997 124.0269988
 139.4100012  36.2634997 125.4119988 139.6031637  36.1084020 124.5781144
 138.3420012  22.6544997 124.1429988 138.2590012  23.5434997 124.4899988
 139.2320012  22.3894997 124.3749988 138.4509469  22.7401430 124.2217626
 136.6010012  33.0824997 123.2039988 137.1930012  33.7814997 123.4799988
 137.0600012  32.6494997 122.4839988 136.7441142  33.1197049 123.1444830
 134.9170012  25.7464997 122.3199988 134.8720012  26.6854997 122.4979988
 134.0290012  25.5104997 122.0499988 134.7908574  25.8431892 122.3078912
 135.7250012  20.5284997 130.9929988 135.4960012  20.5874997 130.0649988
 135.2820012  19.7364997 131.2989988 135.6338530  20.4295753 130.9074786
 134.6550012  34.4684997 127.1529988 133.8230012  34.9414997 127.1799988
 135.2010012  34.9784997 126.5549988 134.6150352  34.6021332 127.0758463
 133.9430012  37.0814997 138.4829988 134.4840012  36.8644997 139.2429988
 133.4620012  36.2754997 138.2929988 133.9519951  36.9429270 138.5612576
 138.5410012  36.0004997 140.1029988 139.3080012  35.5414997 140.4439988
 138.5190012  35.7744997 139.1739988 138.6431275  35.9070186 140.0240101
 142.6330012  35.5084997 121.4789988 141.9890012  34.8774997 121.7999988
 143.3950012  34.9774997 121.2469988 142.6478077  35.3502920 121.4916011
 133.8500012  30.8914997 139.4369988 133.9940012  29.9894997 139.1509988
 133.0780012  31.1774997 138.9499988 133.7652753  30.8066816 139.3319505
 138.1920012  31.2354997 121.5699988 138.2560012  30.4414997 122.1009988
 138.8450012  31.1164997 120.8799988 138.2890241  31.1107148 121.5494317
 140.5060012  30.8614997 138.8699988 140.1770012  31.1324997 138.0129988
 140.6580012  29.9204997 138.7829988 140.4814809  30.7713862 138.7408244
 143.5440012  32.2824997 121.3059988 143.2750012  32.4624997 122.2069988
 143.3380012  31.3564997 121.1739988 143.4793427  32.1820261 121.4115073
 134.6830012  28.0914997 138.8569988 135.0910012  27.2344997 138.7359988
 134.4230012  28.1064997 139.7779988 134.7037568  27.9760807 138.9649588
 139.3410012  29.2074997 123.8759988 138.8810012  28.7234997 124.5619988
 139.5960012  28.5394997 123.2399988 139.3124902  29.0508731 123.8839334
 138.6300012  27.1004997 136.2319988 138.0120012  27.7754997 136.5119988
 138.9740012  27.4214997 135.3979988 138.5919132  27.2362411 136.1576262
 140.4120012  27.4504997 122.1379988 140.2320012  27.2964997 121.2109988
 141.3620012  27.5584997 122.1829988 140.5157776  27.4440175 122.0171843
 143.6500012  29.5724997 139.5089988 144.6030012  29.6554997 139.4819988
 143.4890012  28.8604997 140.1289988 143.7586426  29.4876746 139.5890579
 138.9690012  24.4554997 137.3139988 139.1190012  23.7264997 136.7119988
 138.9720012  25.2324997 136.7549988 138.9899302  24.4607851 137.1560692
 139.3820012  22.8254997 134.8069988 139.9180012  23.2764997 134.1549988
 138.5300012  22.7174997 134.3839988 139.3402178  22.8726390 134.6605756
 140.9640012  28.2644997 135.0459988 141.7140012  28.1084997 134.4729988
 140.6250012  29.1164997 134.7709988 141.0208921  28.3582968 134.9303561
 137.4480012  25.6534997 139.2259988 136.6810012  25.1214997 139.0149988
 138.1270012  25.3434997 138.6259988 137.4347877  25.5388300 139.1160716
 140.1880012  20.2814997 135.2379988 140.0890012  21.2284997 135.1329988
 139.4450012  19.9094997 134.7619988 140.0741184  20.3605863 135.1593621
 141.4520012  24.6034997 138.8019988 141.2160012  24.3834997 139.7029988
 140.6680012  24.3964997 138.2919988 141.3138504  24.5454586 138.8563431
 144.1670012  23.7304997 137.8769988 143.2200012  23.7624997 138.0099988
 144.4800012  23.1054997 138.5309988 144.0796707  23.6503998 137.9836060
 135.6280012  23.5744997 138.9299988 135.8400012  22.8674997 138.3199988
 135.5170012  23.1364997 139.7739988 135.6419721  23.4187084 138.9606843
 140.4090012  19.5754997 137.9089988 141.1210012  18.9354997 137.8949988
 140.3080012  19.8424997 136.9959988 140.4928066  19.5240079 137.7835677
 140.7630012  21.2584997 139.9629988 140.6310012  20.7824997 139.1429988
 140.1640012  22.0024997 139.9079988 140.6639071  21.2939618 139.8432886
 140.3090012  38.1414997 123.1389988 141.2420012  38.2994997 123.2829988
 140.0450012  38.8164997 122.5149988 140.4009888  38.2544510 123.0742842
 133.8780012  32.7774997 122.6219988 134.7920012  32.8564997 122.8959988
 133.8850012  32.0904997 121.9559988 134.0041131  32.6953961 122.5694393
 132.5270012  38.1704997 127.6999988 131.8800012  37.7084997 127.1669988
 132.8810012  37.4984997 128.2819988 132.4863849  38.0164723 127.7057959
 133.3970012  36.2514997 129.5039988 133.0620012  35.3714997 129.6759988
 133.6190012  36.5964997 130.3689988 133.3811783  36.1777500 129.6444208
 133.4770012  29.3264997 131.9559988 133.6610012  29.2444997 131.0199988
 134.3260012  29.2024997 132.3789988 133.6170151  29.2985073 131.8851451
 133.0740012  24.5974997 138.0969988 133.9940012  24.4754997 138.3329988
 132.6250012  23.8474997 138.4859988 133.1391580  24.4793727 138.1819006
 134.2950012  22.9094997 130.9879988 134.7410012  22.1174997 131.2899988
 134.7620012  23.6254997 131.4179988 134.4190831  22.8980685 131.0874006
 132.5990012  25.9084997 132.0569988 133.0910012  25.6874997 131.2659988
 132.9620012  26.7494997 132.3379988 132.7153126  25.9918357 131.9867531
 132.9130012  22.1664997 126.1109988 131.9880012  22.3754997 125.9819988
 133.3670012  22.6504997 125.4209988 132.8477292  22.2605343 126.0000720
 132.8770012  20.9044997 134.4549988 132.2120012  20.6584997 135.0989988
 132.4340012  21.5264997 133.8779988 132.7261318  20.9549410 134.4650898
 135.0690012  34.0794997 138.5999988 134.2480012  34.2544997 138.1389988
 134.8160012  34.0064997 139.5199988 134.9225585  34.0935544 138.6613561
 138.0230012  35.0544997 134.8579988 137.5980012  35.8634997 134.5759988
 138.9270012  35.1394997 134.5559988 138.0869975  35.1769300 134.7784816
 142.3340012  36.4534997 137.8179988 142.5190012  36.1194997 138.6959988
 143.1800012  36.7624997 137.4959988 142.4737539  36.4496047 137.8945605
 144.6790012  37.7394997 137.0619988 145.3560012  37.1064997 136.8219988
 145.0010012  38.1404997 137.8689988 144.8151637  37.7071154 137.1382793
 135.4250012  38.3104997 134.9059988 134.7040012  38.7504997 134.4549988
 135.0590012  38.0594997 135.7539988 135.2769651  38.3367242 134.9589640
 137.8920012  37.9104997 133.9359988 137.0270012  37.9824997 134.3399988
 137.8370012  38.4574997 133.1519988 137.7662085  37.9942685 133.8853362
 142.6020012  37.7984997 133.1109988 142.1460012  38.3274997 132.4569988
 142.7650012  38.4014997 133.8359988 142.5616068  37.9524607 133.1194838
 134.8390012  36.9334997 131.8159988 134.8210012  36.5084997 132.6729988
 135.6440012  36.6154997 131.4069988 134.9453529  36.8323013 131.8780946
 136.9810012  35.6434997 130.4709988 136.7620012  34.7274997 130.6409988
 137.8050012  35.7834997 130.9369988 137.0624420  35.5370520 130.5572774
 139.5180012  36.1134997 131.3199988 139.7310012  35.2254997 131.0329988
 139.5820012  36.0794997 132.2739988 139.5558231  35.9873102 131.4097397
 143.0260012  21.7774997 130.4639988 142.3520012  21.1484997 130.7199988
 143.5900012  21.2934997 129.8609988 143.0099230  21.6258744 130.4175340
 135.3530012  20.4114997 128.2859988 134.5760012  20.1774997 127.7789988
 135.8830012  19.6144997 128.2949988 135.3182330  20.2716988 128.2177742
 134.1890012  20.2094997 124.0899988 134.6280012  20.8204997 123.4979988
 133.5560012  20.7474997 124.5639988 134.1634514  20.3659257 124.0730930
 139.9320012  20.3384997 128.0999988 140.8070012  20.7264997 128.0699988
 139.7960012  20.1234997 129.0219988 140.0333695  20.3625184 128.2206440
 134.0900012  36.1574997 124.9869988 133.4050012  36.1194997 124.3199988
 134.0940012  37.0704997 125.2759988 133.9966998  36.2756733 124.9346771
 136.0500012  22.1254997 122.5319988 136.5420012  21.4954997 122.0049988
 136.6740012  22.4214997 123.1949988 136.2015688  22.0793804 122.5495482
 141.0760012  22.4184997 124.9889988 141.2540012  21.7724997 125.6719988
 141.0230012  23.2524997 125.4559988 141.0931999  22.4428009 125.1455917
 142.9550012  37.3674997 123.3849988 143.8210012  37.7334997 123.2069988
 142.7080012  36.9274997 122.5709988 143.0402392  37.3581756 123.2506289
 135.3110012  20.9254997 137.8039988 134.9450012  20.1604997 138.2459988
 136.2240012  20.9544997 138.0899988 135.3842736  20.8245640 137.9032502
 137.2840012  20.2764997 139.3399988 138.1820012  20.0024997 139.1549988
 136.8970012  19.5334997 139.8039988 137.3546612  20.1385914 139.3773643
 135.9080012  37.0774997 122.0129988 135.6410012  37.3644997 122.8859988
 136.6800012  36.5314997 122.1649988 135.9757488  37.0430294 122.1531050
  12.4390012  48.4234997 128.2449988  12.5280012  49.3674997 128.1129988
  11.8010012  48.1484997 127.5869988  12.3649081  48.5154830 128.1379614
  11.3720012  47.6784997 131.6639988  11.3340012  47.0324997 132.3689988
  11.0500012  47.2124997 130.8929988  11.3232333  47.5269408 131.6562978
   3.7410012  47.2934997 133.2569988   3.7820012  46.6674997 133.9799988
   4.4440012  47.9174997 133.4389988   3.8416363  47.2921196 133.3806044
  15.0780012  50.6174997 129.9649988  14.6380012  49.8974997 130.4159988
  15.0650012  51.3384997 130.5949988  15.0160226  50.6163731 130.1118494
   4.6640012  51.7434997 131.7919988   4.2950012  50.9414997 131.4219988
   5.6050012  51.5744997 131.8379988   4.7407289  51.6110153 131.7476316
   1.2740012  45.4034997 127.1849988   0.8270012  46.2494997 127.1659988
   0.7130012  44.8234997 126.6689988   1.1369900  45.4409916 127.1126801
   1.9850012  47.5654997 129.3099988   2.1980012  46.7954997 129.8379988
   2.7230012  47.6544997 128.7069988   2.1139044  47.4721968 129.3007123
  12.1900012  55.7224997 130.1769988  12.8100012  55.0454997 129.9039988
  11.9820012  55.5044997 131.0859988  12.2466726  55.6004800 130.2624812
   9.7620012  50.1114997 132.0699988  10.0660012  49.4254997 131.4749988
  10.4830012  50.2294997 132.6879988   9.9010671  50.0336305 132.0721816
  18.4250012  41.7124997 132.9309988  18.4740012  42.3224997 133.6659988
  18.8500012  42.1734997 132.2079988  18.4891746  41.8583796 132.9339175
  12.9030012  44.5054997 132.3969988  13.0450012  43.5594997 132.4179988
  12.7960012  44.7124997 131.4689988  12.9079919  44.4038246 132.2743408
   6.0570012  42.6064997 129.6699988   6.1010012  43.4664997 129.2509988
   5.6000012  42.0544997 129.0359988   6.0012240  42.6494422 129.5269864
  13.7800012  42.7374997 128.0709988  14.4260012  42.4084997 128.6949988
  14.2900012  43.2554997 127.4479988  13.9374299  42.7624450 128.0722731
   2.6780012  45.0034997 130.4319988   3.3310012  44.4534997 130.8639988
   2.7020012  44.7294997 129.5149988   2.7706683  44.8911466 130.3672123
   7.8340012  46.5534997 129.6469988   8.4500012  46.0274997 130.1569988
   7.2480012  45.9134997 129.2439988   7.8390810  46.3949208 129.6623173
  18.8160012  43.1904997 135.1659988  18.1280012  43.8484997 135.0709988
  18.8320012  42.9934997 136.1029988  18.7239540  43.2539819 135.2795990
   4.8680012  41.5244997 133.7439988   4.6490012  42.0544997 132.9779988
   4.2000012  41.7514997 134.3909988   4.7477600  41.6276906 133.7266379
  12.2370012  51.0244997 127.2879988  11.9410012  50.7024997 126.4369988
  11.9120012  51.9244997 127.3289988  12.1526371  51.1020215 127.1771801
   7.4370012  49.2004997 134.0309988   6.6970012  49.7984997 134.1349988
   8.1510012  49.7544997 133.7159988   7.4322237  49.3572831 134.0026465
  15.5440012  42.0284997 130.0509988  15.3280012  41.2624997 130.5839988
  16.1990012  42.5004997 130.5639988  15.6030632  41.9875889 130.1932861
   4.4610012  43.4164997 131.6959988   5.0750012  44.0494997 132.0689988
   4.9730012  42.9444997 131.0399988   4.6141981  43.4392267 131.6582908
   5.8440012  51.1644997 134.8179988   5.8390012  52.0444997 134.4399988
   4.9910012  51.0814997 135.2429988   5.7279464  51.2736117 134.8237907
   1.9650012  50.8354997 125.5999988   1.6930012  51.0644997 124.7119988
   2.0110012  51.6734997 126.0609988   1.9339482  50.9801318 125.5406273
  15.5900012  52.4574997 132.3129988  14.6490012  52.5154997 132.4749988
  15.8670012  53.3634997 132.1759988  15.4984679  52.5879443 132.3166815
  15.8910012  40.7434997 133.7309988  15.1550012  41.3544997 133.6929988
  16.5740012  41.1584997 133.2039988  15.8826541  40.8831374 133.6545832
   8.8940012  38.8304997 131.1959988   8.7770012  37.8814997 131.1419988
   8.0390012  39.1624997 131.4699988   8.7624212  38.7455571 131.2256497
  13.8420012  54.2384997 128.9379988  14.2680012  53.5314997 128.4529988
  14.1590012  55.0394997 128.5219988  13.9431683  54.2501017 128.8153680
  15.0020012  52.1394997 127.4469988  14.7440012  51.4494997 126.8359988
  15.0730012  51.6964997 128.2929988  14.9762856  51.9852124 127.4776885
  16.6880012  50.7054997 135.9239988  16.8280012  50.1144997 135.1849988
  16.8550012  51.5784997 135.5679988  16.7297411  50.7425428 135.7746894
  11.1610012  47.6674997 125.6969988  10.4490012  48.2024997 125.3449988
  11.8520012  47.7234997 125.0369988  11.1570132  47.7482543 125.5596289
  11.2140012  46.1254997 122.7359988  11.9150012  46.1474997 123.3869988
  11.5170012  45.4974997 122.0789988  11.3508133  46.0437070 122.7363369
  18.5300012  47.0454997 133.9899988  17.8770012  47.7404997 134.0799988
  18.9950012  47.2554997 133.1809988  18.5035274  47.1690643 133.8928462
  14.5660012  47.8774997 126.6489988  13.8340012  48.1054997 127.2219988
  15.0140012  47.1634997 127.1029988  14.5262725  47.8122145 126.7888816
  14.4640012  46.0514997 135.7159988  14.5440012  46.8144997 136.2879988
  13.8620012  46.3304997 135.0259988  14.3935756  46.1937134 135.7010589
   6.2120012  48.5074997 128.5309988   5.8810012  48.1374997 127.7129988
   6.8000012  47.8374997 128.8779988   6.2461873  48.3661156 128.4658102
   7.5780012  51.9354997 131.2119988   7.4840012  51.3574997 130.4559988
   8.3080012  51.5644997 131.7089988   7.6637387  51.8061663 131.1755342
   6.5780012  47.2764997 132.1649988   7.1440012  47.3974997 131.4019988
   6.8970012  47.9134997 132.8029988   6.6985474  47.3792219 132.1469862
  12.8870012  52.7794997 132.8989988  12.6470012  53.4414997 133.5469988
  12.6890012  51.9454997 133.3239988  12.8273808  52.7573134 133.0451524
   7.4580012  51.6754997 136.8819988   7.1470012  52.4574997 137.3369988
   6.8080012  51.5224997 136.1959988   7.3275558  51.7619105 136.8515871
  13.4370012  47.0394997 124.3339988  14.0170012  47.1894997 125.0809988
  13.8510012  47.5104997 123.6099988  13.5722997  47.1236578 124.3384058
   4.3780012  47.8734997 136.1099988   4.4490012  48.5244997 136.8089988
   3.4880012  47.9764997 135.7749988   4.2673005  47.9765427 136.1603495
  11.1640012  53.7764997 127.7689988  11.6380012  54.0714997 128.5459988
  10.6010012  54.5144997 127.5359988  11.1528184  53.9167247 127.8439628
   5.6980012  53.7474997 137.6449988   5.7050012  53.6114997 136.6979988
   4.7820012  53.6294997 137.8969988   5.5751714  53.7129430 137.5494666
  17.1360012  38.7894997 124.1469988  16.2360012  38.9284997 124.4419988
  17.3880012  39.6204997 123.7449988  17.0468702  38.9209074 124.1330205
   5.2020012  47.5774997 126.1199988   4.9100012  48.3454997 125.6299988
   4.5280012  46.9174997 125.9579988   5.0708111  47.5935587 126.0308978
  18.3250012  53.1554997 122.5229988  18.3990012  54.0944997 122.6939988
  19.2310012  52.8504997 122.4669988  18.4575100  53.2426722 122.5388119
   1.2950012  49.9404997 134.9349988   0.7940012  49.9124997 134.1199988
   1.3000012  49.0344997 135.2449988   1.2270944  49.8142396 134.8653226
   1.0450012  52.7204997 131.8189988   1.9910012  52.5764997 131.7999988
   0.9330012  53.5044997 132.3559988   1.1592727  52.8068046 131.8890072
  19.2430012  53.3864997 137.5019988  19.1940012  52.4314997 137.4649988
  18.4160012  53.6544997 137.9029988  19.1244940  53.2918998 137.5511375
  10.2220012  52.9604997 136.3779988  10.3090012  53.7864997 136.8529988
   9.3580012  52.6304997 136.6269988  10.1171964  53.0289878 136.4766549
  10.6360012  56.7324997 126.1839988  10.5610012  56.6114997 125.2369988
  10.6690012  57.6824997 126.3019988  10.6302068  56.8442646 126.0704967
   4.2890012  55.5214997 127.9649988   4.4420012  55.1734997 128.8429988
   3.4390012  55.1654997 127.7099988   4.1949166  55.4256216 128.0508079
  13.7380012  55.8864997 123.1859988  14.1130012  55.1424997 122.7149988
  13.7420012  55.6164997 124.1049988  13.7899125  55.7480986 123.2456483
  13.4070012  55.8124997 125.9349988  12.4710012  55.9124997 126.1139988
  13.6870012  55.1034997 126.5139988  13.3169553  55.7303406 126.0377087
  16.3950012  44.8794997 137.9819988  15.9880012  45.3604997 137.2609988
  16.4360012  43.9744997 137.6739988  16.3448437  44.8229374 137.8416683
   3.5440012  51.2634997 135.9789988   3.7600012  50.9024997 136.8379988
   2.6890012  50.8894997 135.7689988   3.4579292  51.1634111 136.0683386
   6.1630012  39.7334997 131.9739988   5.3010012  39.6464997 131.5659988
   6.1400012  40.5894997 132.4019988   6.0420409  39.8372883 131.9760589
  10.8260012  39.4554997 135.3489988  11.2460012  39.0404997 136.1019988
   9.8930012  39.2774997 135.4659988  10.7573644  39.3745900 135.4679539
  14.1520012  43.2114997 136.2019988  13.6380012  43.0854997 136.9999988
  13.9970012  44.1234997 135.9579988  14.0606852  43.3176132 136.2782158
  14.9150012  48.0724997 121.9639988  14.9570012  47.8494997 121.0339988
  15.7640012  48.4714997 122.1529988  15.0355280  48.0959438 121.8623554
  10.4870012  41.9484997 122.6339988  10.2340012  41.9674997 123.5569988
  10.2310012  41.0764997 122.3319988  10.4177481  41.8332558 122.7196175
   6.2540012  44.6994997 133.0689988   5.6120012  44.6584997 133.7779988
   6.2910012  45.6254997 132.8309988   6.1710664  44.8191430 133.1339219
   6.2510012  44.9204997 127.9809988   5.3580012  44.5794997 127.9219988
   6.7010012  44.5434997 127.2249988   6.1898130  44.8229631 127.8707702
  11.7860012  45.3364997 126.7979988  11.3770012  46.1514997 126.5069988
  12.5070012  45.1964997 126.1839988  11.8274537  45.4292018 126.6751342
  10.8880012  45.5114997 138.2859988  10.3260012  44.8074997 138.6069988
  11.7150012  45.3914997 138.7539988  10.9227095  45.3987883 138.3932330
  12.7910012  44.7824997 129.6119988  12.5960012  45.3874997 128.8969988
  12.9720012  43.9484997 129.1779988  12.7887614  44.7526300 129.4554405
   4.0040012  45.0194997 134.9359988   3.9660012  45.4194997 135.8049988
   3.5130012  44.2024997 135.0269988   3.9324684  44.9638069 135.0671059
   7.3700012  42.3934997 121.7349988   6.9390012  41.9484997 122.4649988
   6.6520012  42.7654997 121.2229988   7.2139438  42.3828940 121.7656799
   0.6120012  42.1354997 128.7869988   1.2430012  42.1064997 129.5059988
   1.0610012  41.7104997 128.0559988   0.7590918  42.0740836 128.7866441
   1.8860012  42.8814997 124.2109988   2.3600012  43.4724997 123.6259988
   1.1690012  43.4124997 124.5579988   1.8539341  43.0340867 124.1778836
  12.0550012  46.4204997 134.2829988  12.3780012  45.7894997 133.6399988
  11.6150012  45.8854997 134.9439988  12.0397484  46.2618387 134.2843198
   8.8320012  42.3474997 129.0669988   7.9210012  42.4044997 129.3559988
   9.3380012  42.2874997 129.8779988   8.7756899  42.3471941 129.2161184
   3.6610012  43.9764997 127.8939988   2.7710012  44.0764997 127.5539988
   3.9570012  43.1344997 127.5479988   3.5792823  43.8763545 127.8007213
   7.3140012  43.9764997 125.5509988   8.2450012  44.1054997 125.7289988
   7.0990012  44.6464997 124.9009988   7.4124247  44.0846565 125.4875747
  13.2370012  41.5824997 132.3319988  12.5610012  41.7134997 132.9959988
  12.7520012  41.4274997 131.5209988  13.0787146  41.5795157 132.3134469
   5.9880012  45.1714997 123.1169988   5.4450012  44.7914997 122.4259988
   6.8210012  45.3654997 122.6889988   6.0263631  45.1457125 122.9644501
  16.5250012  57.2544997 138.6079988  16.7250012  57.6784997 137.7739988
  17.1800012  57.5974997 139.2149988  16.6410072  57.3589857 138.5758592
   4.1230012  49.7284997 138.2159988   4.8550012  49.9824997 138.7779988
   3.3430012  49.9324997 138.7319988   4.1177073  49.7908160 138.3626151
  10.1520012  45.1354997 130.9539988  10.7170012  44.5884997 130.4069988
  10.0050012  44.6134997 131.7429988  10.2093380  44.9902259 130.9858695
   5.1540012  41.2714997 127.3729988   4.8370012  40.3694997 127.3369988
   5.9360012  41.2734997 126.8199988   5.2162408  41.1482474 127.2933569
   8.7790012  43.5234997 133.3679988   7.9430012  43.9774997 133.4789988
   9.3030012  43.7994997 134.1199988   8.7355416  43.6228660 133.4848119
   9.3230012  49.7364997 125.0529988   8.5780012  49.2294997 124.7309988
   9.1890012  49.7854997 125.9999988   9.2028776  49.6736940 125.1368647
  16.4730012  48.8694997 133.8399988  17.1150012  49.3264997 133.2959988
  15.6430012  48.9824997 133.3769988  16.4485963  48.9472704 133.7030177
  13.2210012  42.5504997 123.2519988  12.2820012  42.6624997 123.1009988
  13.5180012  43.4074997 123.5589988  13.1327583  42.6815981 123.2728337
  10.8420012  49.9204997 136.2899988  10.4970012  49.5394997 137.0969988
  10.6420012  50.8544997 136.3609988  10.7677527  49.9945135 136.4100689
  13.9390012  44.4174997 124.9129988  14.8310012  44.2804997 125.2319988
  13.9960012  45.2084997 124.3759988  14.0686504  44.5056052 124.8840818
   4.4480012  49.0314997 130.8229988   5.1930012  49.0294997 130.2219988
   4.5260012  48.2084997 131.3039988   4.5604995  48.9198887 130.8058282
  11.4490012  51.1954997 124.0789988  11.1530012  52.0214997 124.4599988
  10.7460012  50.5754997 124.2749988  11.3134914  51.2248199 124.1576443
   1.4560012  47.4924997 136.1379988   1.6790012  47.0744997 136.9699988
   0.8540012  46.8794997 135.7149988   1.4051759  47.3524668 136.1947022
   8.4720012  47.0094997 138.3509988   8.1760012  46.8434997 137.4559988
   9.4040012  46.7894997 138.3399988   8.5574166  46.9570640 138.2270536
  13.0930012  52.3824997 136.2409988  12.1920012  52.5654997 135.9729988
  13.1270012  52.6414997 137.1609988  12.9743139  52.4425849 136.3288099
  18.8240012  44.6274997 124.6079988  18.2700012  44.2314997 123.9359988
  18.9240012  45.5374997 124.3299988  18.7617059  44.6963586 124.4784401
  18.7870012  50.4274997 137.4449988  17.9360012  50.6654997 137.0779988
  19.3780012  50.4104997 136.6919988  18.7502487  50.4578258 137.2928893
  17.1190012  53.4134997 125.0729988  16.7460012  52.5874997 125.3819988
  17.3970012  53.2304997 124.1749988  17.1055222  53.2757430 124.9939473
  14.2800012  48.2214997 132.0939988  13.3510012  47.9894997 132.0669988
  14.7310012  47.4444997 131.7639988  14.2139216  48.0847238 132.0456917
   6.8230012  52.5494997 128.2269988   7.3500012  53.3224997 128.0269988
   5.9430012  52.7744997 127.9249988   6.7762031  52.6857545 128.1587912
   2.5780012  47.4114997 122.8139988   3.1940012  48.0384997 123.1939988
   1.7160012  47.7274997 123.0859988   2.5457698  47.5399430 122.9027183
   8.2500012  50.2124997 127.8029988   8.0090012  51.1374997 127.8449988
   7.5090012  49.7534997 128.1999988   8.1169225  50.2770933 127.8623742
   8.7650012  54.3614997 134.1189988   9.1270012  55.2164997 133.8849988
   9.2960012  54.0694997 134.8589988   8.8864473  54.4391060 134.1870855
   6.9330012  55.2344997 127.3489988   5.9830012  55.3394997 127.3999988
   7.2850012  56.0544997 127.6929988   6.8504195  55.3598800 127.4025502
  12.3090012  50.4604997 133.8189988  11.8830012  50.2334997 134.6459988
  12.8890012  49.7224997 133.6369988  12.3291868  50.3295299 133.9075830
  14.5120012  51.3894997 122.8929988  14.8650012  51.0094997 123.6969988
  13.5630012  51.2964997 122.9799988  14.4320918  51.3248956 123.0148532
  14.9670012  55.0124997 136.2889988  14.3660012  54.4574997 135.7929988
  15.2490012  55.6794997 135.6619988  14.9228804  55.0266625 136.1364849
  19.0150012  55.8694997 123.0939988  19.7590012  56.4554997 122.9539988
  18.3210012  56.4374997 123.4269988  19.0229899  56.0265798 123.1198778
   3.0900012  42.2454997 135.6959988   2.1970012  42.5844997 135.6279988
   2.9910012  41.3904997 136.1139988   2.9544164  42.1762588 135.7432235
  15.3780012  50.0624997 125.1199988  15.1000012  49.3344997 125.6759988
  16.3050012  50.1814997 125.3249988  15.4653124  49.9788802 125.2238845
   2.7410012  54.0504997 134.1309988   2.9580012  53.1184997 134.0999988
   2.9870012  54.3244997 135.0139988   2.8039549  53.9600636 134.2461763
   8.6030012  52.5014997 121.3399988   8.8420012  51.7534997 120.7929988
   8.3340012  52.1134997 122.1729988   8.5993675  52.3466638 121.3776865
   7.5400012  52.0714997 123.7959988   7.6860012  51.5514997 124.5859988
   7.5370012  52.9784997 124.1029988   7.5595792  52.1228842 123.9456117
   3.9930012  49.3244997 124.3069988   3.3070012  49.6764997 124.8739988
   4.5150012  50.0874997 124.0599988   3.9696852  49.4758578 124.3512118
  11.8240012  41.9864997 134.5859988  12.5230012  42.0604997 135.2359988
  11.4430012  41.1224997 134.7399988  11.8681767  41.8797624 134.6958322
  12.6090012  41.6384997 125.6829988  12.8290012  42.1104997 124.8799988
  13.1670012  42.0334997 126.3529988  12.7144968  41.7564285 125.6637331
  10.2770012  53.7694997 124.5459988   9.4610012  54.2664997 124.5979988
  10.8070012  54.2444997 123.9059988  10.2369161  53.9017722 124.4665956
   9.8090012  43.3664997 126.5179988  10.6210012  43.8714997 126.5639988
   9.5640012  43.2214997 127.4319988   9.8870520  43.4160375 126.6478517
  10.3440012  44.3524997 135.7019988  10.4630012  44.9264997 136.4599988
  11.0000012  43.6644997 135.8169988  10.4489025  44.3379858 135.8211321
  10.6920012  40.4474997 127.4559988  10.3460012  41.0654997 128.0999988
  11.3510012  40.9484997 126.9739988  10.7336968  40.5996278 127.4789383
   7.6160012  54.8134997 124.5269988   7.7760012  55.6124997 124.0269988
   7.4180012  55.1194997 125.4119988   7.6111637  54.9644020 124.5781144
   6.3500012  41.5104997 124.1429988   6.2670012  42.3994997 124.4899988
   7.2400012  41.2454997 124.3749988   6.4589469  41.5961430 124.2217626
  16.5490012  42.2594997 136.5369988  15.6320012  42.5224997 136.4499988
  16.8840012  42.2564997 135.6409988  16.4688613  42.2950761 136.4038837
  15.1510012  46.0104997 130.6329988  14.3530012  45.5954997 130.3049988
  15.5960012  45.3194997 131.1239988  15.1019885  45.8603543 130.6544889
   4.6090012  51.9384997 123.2039988   5.2010012  52.6374997 123.4799988
   5.0680012  51.5054997 122.4839988   4.7521142  51.9757049 123.1444830
   2.9250012  44.6024997 122.3199988   2.8800012  45.5414997 122.4979988
   2.0370012  44.3664997 122.0499988   2.7988574  44.6991892 122.3078912
  16.2370012  55.2664997 132.2559988  16.0820012  55.9444997 131.5979988
  17.1700012  55.3384997 132.4589988  16.3418657  55.3689546 132.1934360
   3.7330012  39.3844997 130.9929988   3.5040012  39.4434997 130.0649988
   3.2900012  38.5924997 131.2989988   3.6418530  39.2855753 130.9074786
   2.6630012  53.3244997 127.1529988   1.8310012  53.7974997 127.1799988
   3.2090012  53.8344997 126.5549988   2.6230352  53.4581332 127.0758463
   1.9510012  55.9374997 138.4829988   2.4920012  55.7204997 139.2429988
   1.4700012  55.1314997 138.2929988   1.9599951  55.7989270 138.5612576
   6.5490012  54.8564997 140.1029988   7.3160012  54.3974997 140.4439988
   6.5270012  54.6304997 139.1739988   6.6511275  54.7630186 140.0240101
  10.6410012  54.3644997 121.4789988   9.9970012  53.7334997 121.7999988
  11.4030012  53.8334997 121.2469988  10.6558077  54.2062920 121.4916011
  13.1260012  53.2364997 138.8329988  12.7750012  52.3804997 139.0759988
  13.8520012  53.3794997 139.4399988  13.1760769  53.1385636 138.9483619
  15.2450012  54.1814997 121.7119988  15.5280012  53.3874997 122.1649988
  15.9850012  54.4144997 121.1519988  15.3838006  54.1043376 121.6982715
   1.8580012  49.7474997 139.4369988   2.0020012  48.8454997 139.1509988
   1.0860012  50.0334997 138.9499988   1.7732753  49.6626816 139.3319505
   6.2000012  50.0914997 121.5699988   6.2640012  49.2974997 122.1009988
   6.8530012  49.9724997 120.8799988   6.2970241  49.9667148 121.5494317
   8.5140012  49.7174997 138.8699988   8.1850012  49.9884997 138.0129988
   8.6660012  48.7764997 138.7829988   8.4894809  49.6273862 138.7408244
  11.5520012  51.1384997 121.3059988  11.2830012  51.3184997 122.2069988
  11.3460012  50.2124997 121.1739988  11.4873427  51.0380261 121.4115073
  14.2480012  49.6334997 136.2529988  14.9940012  50.2214997 136.1339988
  13.4910012  50.2154997 136.3169988  14.2477820  49.7927143 136.2453590
   2.6910012  46.9474997 138.8569988   3.0990012  46.0904997 138.7359988
   2.4310012  46.9624997 139.7779988   2.7117568  46.8320807 138.9649588
   7.3490012  48.0634997 123.8759988   6.8890012  47.5794997 124.5619988
   7.6040012  47.3954997 123.2399988   7.3204902  47.9068731 123.8839334
   6.6380012  45.9564997 136.2319988   6.0200012  46.6314997 136.5119988
   6.9820012  46.2774997 135.3979988   6.5999132  46.0922411 136.1576262
   8.4200012  46.3064997 122.1379988   8.2400012  46.1524997 121.2109988
   9.3700012  46.4144997 122.1829988   8.5237776  46.3000175 122.0171843
  11.6580012  48.4284997 139.5089988  12.6110012  48.5114997 139.4819988
  11.4970012  47.7164997 140.1289988  11.7666426  48.3436746 139.5890579
  17.8100012  48.6614997 121.5839988  17.5360012  48.2364997 120.7709988
  17.8490012  49.5924997 121.3669988  17.7777699  48.7292484 121.4433610
   6.9770012  43.3114997 137.3139988   7.1270012  42.5824997 136.7119988
   6.9800012  44.0884997 136.7549988   6.9979302  43.3167851 137.1560692
   7.3900012  41.6814997 134.8069988   7.9260012  42.1324997 134.1549988
   6.5380012  41.5734997 134.3839988   7.3482178  41.7286390 134.6605756
   8.9720012  47.1204997 135.0459988   9.7220012  46.9644997 134.4729988
   8.6330012  47.9724997 134.7709988   9.0288921  47.2142968 134.9303561
  13.3870012  44.9354997 140.0749988  13.5800012  44.0044997 139.9629988
  14.2450012  45.3604997 140.0639988  13.5292934  44.8656531 140.0582031
  14.7040012  47.7244997 138.1519988  14.4230012  48.4334997 137.5739988
  15.6470012  47.6514997 138.0009988  14.7929291  47.8116711 138.0524967
   5.4560012  44.5094997 139.2259988   4.6890012  43.9774997 139.0149988
   6.1350012  44.1994997 138.6259988   5.4427877  44.3948300 139.1160716
   8.1960012  39.1374997 135.2379988   8.0970012  40.0844997 135.1329988
   7.4530012  38.7654997 134.7619988   8.0821184  39.2165863 135.1593621
   9.4600012  43.4594997 138.8019988   9.2240012  43.2394997 139.7029988
   8.6760012  43.2524997 138.2919988   9.3218504  43.4014586 138.8563431
  12.1750012  42.5864997 137.8769988  11.2280012  42.6184997 138.0099988
  12.4880012  41.9614997 138.5309988  12.0876707  42.5063998 137.9836060
  13.8090012  41.2204997 139.8829988  13.7130012  40.2684997 139.8769988
  13.4880012  41.4894997 140.7429988  13.7524070  41.1264035 139.9985441
   3.6360012  42.4304997 138.9299988   3.8480012  41.7234997 138.3199988
   3.5250012  41.9924997 139.7739988   3.6499721  42.2747084 138.9606843
   8.4170012  38.4314997 137.9089988   9.1290012  37.7914997 137.8949988
   8.3160012  38.6984997 136.9959988   8.5008066  38.3800079 137.7835677
   8.7710012  40.1144997 139.9629988   8.6390012  39.6384997 139.1429988
   8.1720012  40.8584997 139.9079988   8.6719071  40.1499618 139.8432886
   8.3170012  56.9974997 123.1389988   9.2500012  57.1554997 123.2829988
   8.0530012  57.6724997 122.5149988   8.4089888  57.1104510 123.0742842
   1.8860012  51.6334997 122.6219988   2.8000012  51.7124997 122.8959988
   1.8930012  50.9464997 121.9559988   2.0121131  51.5513961 122.5694393
   0.5350012  57.0264997 127.6999988  -0.1119988  56.5644997 127.1669988
   0.8890012  56.3544997 128.2819988   0.4943849  56.8724723 127.7057959
   1.4050012  55.1074997 129.5039988   1.0700012  54.2274997 129.6759988
   1.6270012  55.4524997 130.3689988   1.3891783  55.0337500 129.6444208
  18.9530012  55.9164997 132.4849988  18.9320012  56.1014997 133.4239988
  19.6440012  56.4854997 132.1439988  19.0434618  56.0186606 132.5673864
  18.5170012  55.4844997 135.4069988  18.0290012  54.7484997 135.0349988
  19.0660012  55.0904997 136.0849988  18.5244820  55.3305889 135.4477813
  16.9670012  51.2734997 140.0449988  16.1010012  51.1684997 140.4389988
  17.3440012  52.0324997 140.4909988  16.8993308  51.3616900 140.1592393
  18.2680012  49.5304997 125.5589988  19.1180012  49.9514997 125.6859988
  18.2740012  48.7904997 126.1659988  18.3851372  49.4880803 125.6584344
  18.6630012  47.5834997 127.3819988  17.9360012  47.1044997 127.7799988
  19.2440012  47.7894997 128.1149988  18.6420473  47.5458103 127.5354528
  18.4220012  50.3684997 132.3299988  19.2550012  49.9904997 132.0499988
  18.5340012  51.3114997 132.2109988  18.5512647  50.4442218 132.2755487
  16.9080012  53.2464997 134.6369988  16.2610012  53.5714997 135.2629988
  16.3910012  52.8064997 133.9629988  16.7494029  53.2315004 134.6315827
  18.9310012  47.4844997 123.7739988  18.4090012  47.8414997 123.0549988
  18.8980012  48.1594997 124.4519988  18.8551634  47.6245413 123.7673145
  17.2800012  44.7244997 122.3239988  17.3760012  45.3914997 121.6439988
  17.1400012  43.9084997 121.8429988  17.2742272  44.7055655 122.1658347
  16.4490012  46.1044997 127.9449988  16.2990012  45.1594997 127.9249988
  16.0960012  46.3854997 128.7889988  16.3807448  46.0131481 128.0563705
   1.4850012  48.1824997 131.9559988   1.6690012  48.1004997 131.0199988
   2.3340012  48.0584997 132.3789988   1.6250151  48.1545073 131.8851451
  17.3060012  48.0744997 137.5839988  17.8890012  47.3404997 137.7759988
  17.8700012  48.8464997 137.6309988  17.4619769  48.0784227 137.6166159
  18.8020012  45.9774997 138.2689988  17.9390012  45.5984997 138.1029988
  19.4070012  45.2384997 138.1939988  18.7656119  45.8258268 138.2361528
  16.5270012  42.1324997 121.4419988  17.1380012  41.7614997 122.0789988
  15.6910012  41.7114997 121.6379988  16.4975032  42.0247554 121.5557035
  16.1600012  43.6874997 126.4079988  16.4400012  42.7804997 126.5319988
  16.9190012  44.1214997 126.0189988  16.3009277  43.6220942 126.3723682
  16.7720012  44.2684997 131.8439988  17.7050012  44.4804997 131.8089988
  16.5370012  44.3704997 132.7659988  16.8679244  44.3113100 131.9638892
  16.8010012  45.0054997 134.6199988  15.9580012  45.2734997 134.9859988
  17.2430012  45.8274997 134.4089988  16.7454158  45.1533291 134.6415491
   1.0820012  43.4534997 138.0969988   2.0020012  43.3314997 138.3329988
   0.6330012  42.7034997 138.4859988   1.1471580  43.3353727 138.1819006
  19.0840012  38.9854997 139.9729988  19.4340012  38.3314997 139.3679988
  19.2310012  39.8224997 139.5329988  19.1517887  39.0091548 139.8306858
  16.7730012  40.9504997 126.4559988  16.9560012  40.5014997 127.2819988
  16.1740012  40.3654997 125.9929988  16.7170202  40.8099975 126.5063275
   2.3030012  41.7654997 130.9879988   2.7490012  40.9734997 131.2899988
   2.7700012  42.4814997 131.4179988   2.4270831  41.7540685 131.0874006
   0.6070012  44.7644997 132.0569988   1.0990012  44.5434997 131.2659988
   0.9700012  45.6054997 132.3379988   0.7233126  44.8478357 131.9867531
  18.6040012  41.0944997 138.3219988  17.6860012  41.3654997 138.2869988
  18.7270012  40.5594997 137.5379988  18.4949729  41.0592508 138.2111923
  18.6400012  41.0174997 122.9839988  19.0520012  40.2964997 122.5089988
  19.3220012  41.6874997 123.0429988  18.7885885  41.0092368 122.9268915
   0.9210012  41.0224997 126.1109988  -0.0039988  41.2314997 125.9819988
   1.3750012  41.5064997 125.4209988   0.8557292  41.1165343 126.0000720
  15.6920012  56.0064997 128.0569988  16.3440012  55.6594997 127.4489988
  16.2020012  56.4954997 128.7029988  15.8502637  56.0250597 128.0610236
   0.8850012  39.7604997 134.4549988   0.2200012  39.5144997 135.0989988
   0.4420012  40.3824997 133.8779988   0.7341318  39.8109410 134.4650898
   3.0770012  52.9354997 138.5999988   2.2560012  53.1104997 138.1389988
   2.8240012  52.8624997 139.5199988   2.9305585  52.9495544 138.6613561
   6.0310012  53.9104997 134.8579988   5.6060012  54.7194997 134.5759988
   6.9350012  53.9954997 134.5559988   6.0949975  54.0329300 134.7784816
  10.3420012  55.3094997 137.8179988  10.5270012  54.9754997 138.6959988
  11.1880012  55.6184997 137.4959988  10.4817539  55.3056047 137.8945605
  12.6870012  56.5954997 137.0619988  13.3640012  55.9624997 136.8219988
  13.0090012  56.9964997 137.8689988  12.8231637  56.5631154 137.1382793
  17.6040012  39.1844997 136.1409988  16.7920012  39.5094997 135.7539988
  17.8370012  38.4244997 135.6079988  17.5242203  39.1262758 136.0158880
   3.4330012  57.1664997 134.9059988   2.7120012  57.6064997 134.4549988
   3.0670012  56.9154997 135.7539988   3.2849651  57.1927242 134.9589640
   5.9000012  56.7664997 133.9359988   5.0350012  56.8384997 134.3399988
   5.8450012  57.3134997 133.1519988   5.7742085  56.8502685 133.8853362
  10.6100012  56.6544997 133.1109988  10.1540012  57.1834997 132.4569988
  10.7730012  57.2574997 133.8359988  10.5696068  56.8084607 133.1194838
  12.9380012  55.5324997 134.0559988  12.0330012  55.6974997 133.7899988
  13.3670012  56.3854997 133.9909988  12.8721324  55.6704339 134.0107976
  15.5420012  57.1024997 134.3509988  15.3600012  58.0184997 134.1409988
  15.7190012  56.6924997 133.5049988  15.5410210  57.1724822 134.2077885
   2.8470012  55.7894997 131.8159988   2.8290012  55.3644997 132.6729988
   3.6520012  55.4714997 131.4069988   2.9533529  55.6883013 131.8780946
   4.9890012  54.4994997 130.4709988   4.7700012  53.5834997 130.6409988
   5.8130012  54.6394997 130.9369988   5.0704420  54.3930520 130.5572774
   7.5260012  54.9694997 131.3199988   7.7390012  54.0814997 131.0329988
   7.5900012  54.9354997 132.2739988   7.5638231  54.8433102 131.4097397
  11.0340012  40.6334997 130.4639988  10.3600012  40.0044997 130.7199988
  11.5980012  40.1494997 129.8609988  11.0179230  40.4818744 130.4175340
  16.1770012  38.7414997 130.5769988  16.7810012  39.2884997 130.0749988
  15.3070012  39.0604997 130.3359988  16.1421208  38.8595137 130.4756886
  17.9040012  39.8794997 128.9099988  18.5160012  39.3654997 128.3829988
  18.2860012  40.7574997 128.9329988  18.0393371  39.9277866 128.8410041
   3.3610012  39.2674997 128.2859988   2.5840012  39.0334997 127.7789988
   3.8910012  38.4704997 128.2949988   3.3262330  39.1276988 128.2177742
   2.1970012  39.0654997 124.0899988   2.6360012  39.6764997 123.4979988
   1.5640012  39.6034997 124.5639988   2.1714514  39.2219257 124.0730930
   7.9400012  39.1944997 128.0999988   8.8150012  39.5824997 128.0699988
   7.8040012  38.9794997 129.0219988   8.0413695  39.2185184 128.2206440
  13.4970012  39.2244997 129.7489988  13.5730012  39.3194997 128.7989988
  13.2220012  38.3164997 129.8779988  13.4702321  39.1147867 129.6365079
  14.8500012  39.2504997 125.4409988  14.1480012  39.8654997 125.2309988
  14.4060012  38.4124997 125.5719988  14.6936450  39.2215639 125.4299000
   2.0980012  55.0134997 124.9869988   1.4130012  54.9754997 124.3199988
   2.1020012  55.9264997 125.2759988   2.0046998  55.1316733 124.9346771
   4.0580012  40.9814997 122.5319988   4.5500012  40.3514997 122.0049988
   4.6820012  41.2774997 123.1949988   4.2095688  40.9353804 122.5495482
   9.0840012  41.2744997 124.9889988   9.2620012  40.6284997 125.6719988
   9.0310012  42.1084997 125.4559988   9.1011999  41.2988009 125.1455917
  10.9630012  56.2234997 123.3849988  11.8290012  56.5894997 123.2069988
  10.7160012  55.7834997 122.5709988  11.0482392  56.2141756 123.2506289
  17.6720012  55.7864997 126.0639988  17.4770012  55.0384997 125.4989988
  17.6330012  56.5444997 125.4809988  17.6400380  55.7866099 125.9078384
   3.3190012  39.7814997 137.8039988   2.9530012  39.0164997 138.2459988
   4.2320012  39.8104997 138.0899988   3.3922736  39.6805640 137.9032502
   5.2920012  39.1324997 139.3399988   6.1900012  38.8584997 139.1549988
   4.9050012  38.3894997 139.8039988   5.3626612  38.9945914 139.3773643
   3.9160012  55.9334997 122.0129988   3.6490012  56.2204997 122.8859988
   4.6880012  55.3874997 122.1649988   3.9837488  55.8990294 122.1531050
  13.7130012  38.4644997 139.5219988  13.7900012  38.0384997 140.3759988
  14.6070012  38.4784997 139.1789988  13.8443428  38.4080879 139.5925310
  16.8890012  54.5374997 138.2139988  16.1070012  54.3514997 137.6939988
  16.8170012  55.4664997 138.4319988  16.7722274  54.6376643 138.1723018
  31.2950012  48.4234997 128.2449988  31.3840012  49.3674997 128.1129988
  30.6570012  48.1484997 127.5869988  31.2209081  48.5154830 128.1379614
  30.2280012  47.6784997 131.6639988  30.1900012  47.0324997 132.3689988
  29.9060012  47.2124997 130.8929988  30.1792333  47.5269408 131.6562978
  22.5970012  47.2934997 133.2569988  22.6380012  46.6674997 133.9799988
  23.3000012  47.9174997 133.4389988  22.6976363  47.2921196 133.3806044
  33.9340012  50.6174997 129.9649988  33.4940012  49.8974997 130.4159988
  33.9210012  51.3384997 130.5949988  33.8720226  50.6163731 130.1118494
  23.5200012  51.7434997 131.7919988  23.1510012  50.9414997 131.4219988
  24.4610012  51.5744997 131.8379988  23.5967289  51.6110153 131.7476316
  20.1300012  45.4034997 127.1849988  19.6830012  46.2494997 127.1659988
  19.5690012  44.8234997 126.6689988  19.9929900  45.4409916 127.1126801
  20.8410012  47.5654997 129.3099988  21.0540012  46.7954997 129.8379988
  21.5790012  47.6544997 128.7069988  20.9699044  47.4721968 129.3007123
  31.0460012  55.7224997 130.1769988  31.6660012  55.0454997 129.9039988
  30.8380012  55.5044997 131.0859988  31.1026726  55.6004800 130.2624812
  28.6180012  50.1114997 132.0699988  28.9220012  49.4254997 131.4749988
  29.3390012  50.2294997 132.6879988  28.7570671  50.0336305 132.0721816
  37.2810012  41.7124997 132.9309988  37.3300012  42.3224997 133.6659988
  37.7060012  42.1734997 132.2079988  37.3451746  41.8583796 132.9339175
  31.7590012  44.5054997 132.3969988  31.9010012  43.5594997 132.4179988
  31.6520012  44.7124997 131.4689988  31.7639919  44.4038246 132.2743408
  24.9130012  42.6064997 129.6699988  24.9570012  43.4664997 129.2509988
  24.4560012  42.0544997 129.0359988  24.8572240  42.6494422 129.5269864
  32.6360012  42.7374997 128.0709988  33.2820012  42.4084997 128.6949988
  33.1460012  43.2554997 127.4479988  32.7934299  42.7624450 128.0722731
  21.5340012  45.0034997 130.4319988  22.1870012  44.4534997 130.8639988
  21.5580012  44.7294997 129.5149988  21.6266683  44.8911466 130.3672123
  26.6900012  46.5534997 129.6469988  27.3060012  46.0274997 130.1569988
  26.1040012  45.9134997 129.2439988  26.6950810  46.3949208 129.6623173
  37.6720012  43.1904997 135.1659988  36.9840012  43.8484997 135.0709988
  37.6880012  42.9934997 136.1029988  37.5799540  43.2539819 135.2795990
  23.7240012  41.5244997 133.7439988  23.5050012  42.0544997 132.9779988
  23.0560012  41.7514997 134.3909988  23.6037600  41.6276906 133.7266379
  31.0930012  51.0244997 127.2879988  30.7970012  50.7024997 126.4369988
  30.7680012  51.9244997 127.3289988  31.0086371  51.1020215 127.1771801
  26.2930012  49.2004997 134.0309988  25.5530012  49.7984997 134.1349988
  27.0070012  49.7544997 133.7159988  26.2882237  49.3572831 134.0026465
  34.4000012  42.0284997 130.0509988  34.1840012  41.2624997 130.5839988
  35.0550012  42.5004997 130.5639988  34.4590632  41.9875889 130.1932861
  23.3170012  43.4164997 131.6959988  23.9310012  44.0494997 132.0689988
  23.8290012  42.9444997 131.0399988  23.4701981  43.4392267 131.6582908
  24.7000012  51.1644997 134.8179988  24.6950012  52.0444997 134.4399988
  23.8470012  51.0814997 135.2429988  24.5839464  51.2736117 134.8237907
  20.8210012  50.8354997 125.5999988  20.5490012  51.0644997 124.7119988
  20.8670012  51.6734997 126.0609988  20.7899482  50.9801318 125.5406273
  34.4460012  52.4574997 132.3129988  33.5050012  52.5154997 132.4749988
  34.7230012  53.3634997 132.1759988  34.3544679  52.5879443 132.3166815
  34.7470012  40.7434997 133.7309988  34.0110012  41.3544997 133.6929988
  35.4300012  41.1584997 133.2039988  34.7386541  40.8831374 133.6545832
  27.7500012  38.8304997 131.1959988  27.6330012  37.8814997 131.1419988
  26.8950012  39.1624997 131.4699988  27.6184212  38.7455571 131.2256497
  32.6980012  54.2384997 128.9379988  33.1240012  53.5314997 128.4529988
  33.0150012  55.0394997 128.5219988  32.7991683  54.2501017 128.8153680
  33.8580012  52.1394997 127.4469988  33.6000012  51.4494997 126.8359988
  33.9290012  51.6964997 128.2929988  33.8322856  51.9852124 127.4776885
  35.5440012  50.7054997 135.9239988  35.6840012  50.1144997 135.1849988
  35.7110012  51.5784997 135.5679988  35.5857411  50.7425428 135.7746894
  30.0170012  47.6674997 125.6969988  29.3050012  48.2024997 125.3449988
  30.7080012  47.7234997 125.0369988  30.0130132  47.7482543 125.5596289
  30.0700012  46.1254997 122.7359988  30.7710012  46.1474997 123.3869988
  30.3730012  45.4974997 122.0789988  30.2068133  46.0437070 122.7363369
  37.3860012  47.0454997 133.9899988  36.7330012  47.7404997 134.0799988
  37.8510012  47.2554997 133.1809988  37.3595274  47.1690643 133.8928462
  33.4220012  47.8774997 126.6489988  32.6900012  48.1054997 127.2219988
  33.8700012  47.1634997 127.1029988  33.3822725  47.8122145 126.7888816
  33.3200012  46.0514997 135.7159988  33.4000012  46.8144997 136.2879988
  32.7180012  46.3304997 135.0259988  33.2495756  46.1937134 135.7010589
  25.0680012  48.5074997 128.5309988  24.7370012  48.1374997 127.7129988
  25.6560012  47.8374997 128.8779988  25.1021873  48.3661156 128.4658102
  26.4340012  51.9354997 131.2119988  26.3400012  51.3574997 130.4559988
  27.1640012  51.5644997 131.7089988  26.5197386  51.8061663 131.1755342
  25.4340012  47.2764997 132.1649988  26.0000012  47.3974997 131.4019988
  25.7530012  47.9134997 132.8029988  25.5545474  47.3792219 132.1469862
  31.7430012  52.7794997 132.8989988  31.5030012  53.4414997 133.5469988
  31.5450012  51.9454997 133.3239988  31.6833808  52.7573134 133.0451524
  26.3140012  51.6754997 136.8819988  26.0030012  52.4574997 137.3369988
  25.6640012  51.5224997 136.1959988  26.1835558  51.7619105 136.8515871
  32.2930012  47.0394997 124.3339988  32.8730012  47.1894997 125.0809988
  32.7070012  47.5104997 123.6099988  32.4282997  47.1236578 124.3384058
  23.2340012  47.8734997 136.1099988  23.3050012  48.5244997 136.8089988
  22.3440012  47.9764997 135.7749988  23.1233005  47.9765427 136.1603495
  30.0200012  53.7764997 127.7689988  30.4940012  54.0714997 128.5459988
  29.4570012  54.5144997 127.5359988  30.0088184  53.9167247 127.8439628
  24.5540012  53.7474997 137.6449988  24.5610012  53.6114997 136.6979988
  23.6380012  53.6294997 137.8969988  24.4311714  53.7129430 137.5494666
  35.9920012  38.7894997 124.1469988  35.0920012  38.9284997 124.4419988
  36.2440012  39.6204997 123.7449988  35.9028702  38.9209074 124.1330205
  24.0580012  47.5774997 126.1199988  23.7660012  48.3454997 125.6299988
  23.3840012  46.9174997 125.9579988  23.9268111  47.5935587 126.0308978
  37.1810012  53.1554997 122.5229988  37.2550012  54.0944997 122.6939988
  38.0870012  52.8504997 122.4669988  37.3135100  53.2426722 122.5388119
  20.1510012  49.9404997 134.9349988  19.6500012  49.9124997 134.1199988
  20.1560012  49.0344997 135.2449988  20.0830944  49.8142396 134.8653226
  19.9010012  52.7204997 131.8189988  20.8470012  52.5764997 131.7999988
  19.7890012  53.5044997 132.3559988  20.0152727  52.8068046 131.8890072
  38.0990012  53.3864997 137.5019988  38.0500012  52.4314997 137.4649988
  37.2720012  53.6544997 137.9029988  37.9804940  53.2918998 137.5511375
  29.0780012  52.9604997 136.3779988  29.1650012  53.7864997 136.8529988
  28.2140012  52.6304997 136.6269988  28.9731964  53.0289878 136.4766549
  29.4920012  56.7324997 126.1839988  29.4170012  56.6114997 125.2369988
  29.5250012  57.6824997 126.3019988  29.4862068  56.8442646 126.0704967
  23.1450012  55.5214997 127.9649988  23.2980012  55.1734997 128.8429988
  22.2950012  55.1654997 127.7099988  23.0509166  55.4256216 128.0508079
  32.5940012  55.8864997 123.1859988  32.9690012  55.1424997 122.7149988
  32.5980012  55.6164997 124.1049988  32.6459125  55.7480986 123.2456483
  32.2630012  55.8124997 125.9349988  31.3270012  55.9124997 126.1139988
  32.5430012  55.1034997 126.5139988  32.1729553  55.7303406 126.0377087
  35.2510012  44.8794997 137.9819988  34.8440012  45.3604997 137.2609988
  35.2920012  43.9744997 137.6739988  35.2008437  44.8229374 137.8416683
  22.4000012  51.2634997 135.9789988  22.6160012  50.9024997 136.8379988
  21.5450012  50.8894997 135.7689988  22.3139292  51.1634111 136.0683386
  25.0190012  39.7334997 131.9739988  24.1570012  39.6464997 131.5659988
  24.9960012  40.5894997 132.4019988  24.8980409  39.8372883 131.9760589
  29.6820012  39.4554997 135.3489988  30.1020012  39.0404997 136.1019988
  28.7490012  39.2774997 135.4659988  29.6133644  39.3745900 135.4679539
  33.0080012  43.2114997 136.2019988  32.4940012  43.0854997 136.9999988
  32.8530012  44.1234997 135.9579988  32.9166852  43.3176132 136.2782158
  33.7710012  48.0724997 121.9639988  33.8130012  47.8494997 121.0339988
  34.6200012  48.4714997 122.1529988  33.8915280  48.0959438 121.8623554
  29.3430012  41.9484997 122.6339988  29.0900012  41.9674997 123.5569988
  29.0870012  41.0764997 122.3319988  29.2737481  41.8332558 122.7196175
  25.1100012  44.6994997 133.0689988  24.4680012  44.6584997 133.7779988
  25.1470012  45.6254997 132.8309988  25.0270664  44.8191430 133.1339219
  25.1070012  44.9204997 127.9809988  24.2140012  44.5794997 127.9219988
  25.5570012  44.5434997 127.2249988  25.0458130  44.8229631 127.8707702
  30.6420012  45.3364997 126.7979988  30.2330012  46.1514997 126.5069988
  31.3630012  45.1964997 126.1839988  30.6834537  45.4292018 126.6751342
  29.7440012  45.5114997 138.2859988  29.1820012  44.8074997 138.6069988
  30.5710012  45.3914997 138.7539988  29.7787095  45.3987883 138.3932330
  31.6470012  44.7824997 129.6119988  31.4520012  45.3874997 128.8969988
  31.8280012  43.9484997 129.1779988  31.6447614  44.7526300 129.4554405
  22.8600012  45.0194997 134.9359988  22.8220012  45.4194997 135.8049988
  22.3690012  44.2024997 135.0269988  22.7884684  44.9638069 135.0671059
  26.2260012  42.3934997 121.7349988  25.7950012  41.9484997 122.4649988
  25.5080012  42.7654997 121.2229988  26.0699438  42.3828940 121.7656799
  19.4680012  42.1354997 128.7869988  20.0990012  42.1064997 129.5059988
  19.9170012  41.7104997 128.0559988  19.6150918  42.0740836 128.7866441
  20.7420012  42.8814997 124.2109988  21.2160012  43.4724997 123.6259988
  20.0250012  43.4124997 124.5579988  20.7099341  43.0340867 124.1778836
  30.9110012  46.4204997 134.2829988  31.2340012  45.7894997 133.6399988
  30.4710012  45.8854997 134.9439988  30.8957484  46.2618387 134.2843198
  27.6880012  42.3474997 129.0669988  26.7770012  42.4044997 129.3559988
  28.1940012  42.2874997 129.8779988  27.6316899  42.3471941 129.2161184
  22.5170012  43.9764997 127.8939988  21.6270012  44.0764997 127.5539988
  22.8130012  43.1344997 127.5479988  22.4352823  43.8763545 127.8007213
  26.1700012  43.9764997 125.5509988  27.1010012  44.1054997 125.7289988
  25.9550012  44.6464997 124.9009988  26.2684247  44.0846565 125.4875747
  32.0930012  41.5824997 132.3319988  31.4170012  41.7134997 132.9959988
  31.6080012  41.4274997 131.5209988  31.9347146  41.5795157 132.3134469
  24.8440012  45.1714997 123.1169988  24.3010012  44.7914997 122.4259988
  25.6770012  45.3654997 122.6889988  24.8823631  45.1457125 122.9644501
  35.3810012  57.2544997 138.6079988  35.5810012  57.6784997 137.7739988
  36.0360012  57.5974997 139.2149988  35.4970072  57.3589857 138.5758592
  22.9790012  49.7284997 138.2159988  23.7110012  49.9824997 138.7779988
  22.1990012  49.9324997 138.7319988  22.9737073  49.7908160 138.3626151
  29.0080012  45.1354997 130.9539988  29.5730012  44.5884997 130.4069988
  28.8610012  44.6134997 131.7429988  29.0653380  44.9902259 130.9858695
  24.0100012  41.2714997 127.3729988  23.6930012  40.3694997 127.3369988
  24.7920012  41.2734997 126.8199988  24.0722408  41.1482474 127.2933569
  27.6350012  43.5234997 133.3679988  26.7990012  43.9774997 133.4789988
  28.1590012  43.7994997 134.1199988  27.5915416  43.6228660 133.4848119
  28.1790012  49.7364997 125.0529988  27.4340012  49.2294997 124.7309988
  28.0450012  49.7854997 125.9999988  28.0588776  49.6736940 125.1368647
  35.3290012  48.8694997 133.8399988  35.9710012  49.3264997 133.2959988
  34.4990012  48.9824997 133.3769988  35.3045963  48.9472704 133.7030177
  32.0770012  42.5504997 123.2519988  31.1380012  42.6624997 123.1009988
  32.3740012  43.4074997 123.5589988  31.9887583  42.6815981 123.2728337
  29.6980012  49.9204997 136.2899988  29.3530012  49.5394997 137.0969988
  29.4980012  50.8544997 136.3609988  29.6237527  49.9945135 136.4100689
  32.7950012  44.4174997 124.9129988  33.6870012  44.2804997 125.2319988
  32.8520012  45.2084997 124.3759988  32.9246504  44.5056052 124.8840818
  23.3040012  49.0314997 130.8229988  24.0490012  49.0294997 130.2219988
  23.3820012  48.2084997 131.3039988  23.4164995  48.9198887 130.8058282
  30.3050012  51.1954997 124.0789988  30.0090012  52.0214997 124.4599988
  29.6020012  50.5754997 124.2749988  30.1694914  51.2248199 124.1576443
  20.3120012  47.4924997 136.1379988  20.5350012  47.0744997 136.9699988
  19.7100012  46.8794997 135.7149988  20.2611759  47.3524668 136.1947022
  27.3280012  47.0094997 138.3509988  27.0320012  46.8434997 137.4559988
  28.2600012  46.7894997 138.3399988  27.4134166  46.9570640 138.2270536
  31.9490012  52.3824997 136.2409988  31.0480012  52.5654997 135.9729988
  31.9830012  52.6414997 137.1609988  31.8303139  52.4425849 136.3288099
  37.6800012  44.6274997 124.6079988  37.1260012  44.2314997 123.9359988
  37.7800012  45.5374997 124.3299988  37.6177059  44.6963586 124.4784401
  37.6430012  50.4274997 137.4449988  36.7920012  50.6654997 137.0779988
  38.2340012  50.4104997 136.6919988  37.6062487  50.4578258 137.2928893
  35.9750012  53.4134997 125.0729988  35.6020012  52.5874997 125.3819988
  36.2530012  53.2304997 124.1749988  35.9615222  53.2757430 124.9939473
  33.1360012  48.2214997 132.0939988  32.2070012  47.9894997 132.0669988
  33.5870012  47.4444997 131.7639988  33.0699216  48.0847238 132.0456917
  25.6790012  52.5494997 128.2269988  26.2060012  53.3224997 128.0269988
  24.7990012  52.7744997 127.9249988  25.6322031  52.6857545 128.1587912
  21.4340012  47.4114997 122.8139988  22.0500012  48.0384997 123.1939988
  20.5720012  47.7274997 123.0859988  21.4017698  47.5399430 122.9027183
  27.1060012  50.2124997 127.8029988  26.8650012  51.1374997 127.8449988
  26.3650012  49.7534997 128.1999988  26.9729225  50.2770933 127.8623742
  27.6210012  54.3614997 134.1189988  27.9830012  55.2164997 133.8849988
  28.1520012  54.0694997 134.8589988  27.7424473  54.4391060 134.1870855
  25.7890012  55.2344997 127.3489988  24.8390012  55.3394997 127.3999988
  26.1410012  56.0544997 127.6929988  25.7064195  55.3598800 127.4025502
  31.1650012  50.4604997 133.8189988  30.7390012  50.2334997 134.6459988
  31.7450012  49.7224997 133.6369988  31.1851868  50.3295299 133.9075830
  33.3680012  51.3894997 122.8929988  33.7210012  51.0094997 123.6969988
  32.4190012  51.2964997 122.9799988  33.2880918  51.3248956 123.0148532
  33.8230012  55.0124997 136.2889988  33.2220012  54.4574997 135.7929988
  34.1050012  55.6794997 135.6619988  33.7788804  55.0266625 136.1364849
  37.8710012  55.8694997 123.0939988  38.6150012  56.4554997 122.9539988
  37.1770012  56.4374997 123.4269988  37.8789899  56.0265798 123.1198778
  21.9460012  42.2454997 135.6959988  21.0530012  42.5844997 135.6279988
  21.8470012  41.3904997 136.1139988  21.8104164  42.1762588 135.7432235
  34.2340012  50.0624997 125.1199988  33.9560012  49.3344997 125.6759988
  35.1610012  50.1814997 125.3249988  34.3213124  49.9788802 125.2238845
  21.5970012  54.0504997 134.1309988  21.8140012  53.1184997 134.0999988
  21.8430012  54.3244997 135.0139988  21.6599549  53.9600636 134.2461763
  27.4590012  52.5014997 121.3399988  27.6980012  51.7534997 120.7929988
  27.1900012  52.1134997 122.1729988  27.4553675  52.3466638 121.3776865
  26.3960012  52.0714997 123.7959988  26.5420012  51.5514997 124.5859988
  26.3930012  52.9784997 124.1029988  26.4155792  52.1228842 123.9456117
  22.8490012  49.3244997 124.3069988  22.1630012  49.6764997 124.8739988
  23.3710012  50.0874997 124.0599988  22.8256852  49.4758578 124.3512118
  30.6800012  41.9864997 134.5859988  31.3790012  42.0604997 135.2359988
  30.2990012  41.1224997 134.7399988  30.7241767  41.8797624 134.6958322
  31.4650012  41.6384997 125.6829988  31.6850012  42.1104997 124.8799988
  32.0230012  42.0334997 126.3529988  31.5704968  41.7564285 125.6637331
  29.1330012  53.7694997 124.5459988  28.3170012  54.2664997 124.5979988
  29.6630012  54.2444997 123.9059988  29.0929161  53.9017722 124.4665956
  28.6650012  43.3664997 126.5179988  29.4770012  43.8714997 126.5639988
  28.4200012  43.2214997 127.4319988  28.7430520  43.4160375 126.6478517
  29.2000012  44.3524997 135.7019988  29.3190012  44.9264997 136.4599988
  29.8560012  43.6644997 135.8169988  29.3049025  44.3379858 135.8211321
  29.5480012  40.4474997 127.4559988  29.2020012  41.0654997 128.0999988
  30.2070012  40.9484997 126.9739988  29.5896968  40.5996278 127.4789383
  26.4720012  54.8134997 124.5269988  26.6320012  55.6124997 124.0269988
  26.2740012  55.1194997 125.4119988  26.4671637  54.9644020 124.5781144
  25.2060012  41.5104997 124.1429988  25.1230012  42.3994997 124.4899988
  26.0960012  41.2454997 124.3749988  25.3149469  41.5961430 124.2217626
  35.4050012  42.2594997 136.5369988  34.4880012  42.5224997 136.4499988
  35.7400012  42.2564997 135.6409988  35.3248613  42.2950761 136.4038837
  34.0070012  46.0104997 130.6329988  33.2090012  45.5954997 130.3049988
  34.4520012  45.3194997 131.1239988  33.9579885  45.8603543 130.6544889
  23.4650012  51.9384997 123.2039988  24.0570012  52.6374997 123.4799988
  23.9240012  51.5054997 122.4839988  23.6081142  51.9757049 123.1444830
  21.7810012  44.6024997 122.3199988  21.7360012  45.5414997 122.4979988
  20.8930012  44.3664997 122.0499988  21.6548574  44.6991892 122.3078912
  35.0930012  55.2664997 132.2559988  34.9380012  55.9444997 131.5979988
  36.0260012  55.3384997 132.4589988  35.1978657  55.3689546 132.1934360
  22.5890012  39.3844997 130.9929988  22.3600012  39.4434997 130.0649988
  22.1460012  38.5924997 131.2989988  22.4978530  39.2855753 130.9074786
  21.5190012  53.3244997 127.1529988  20.6870012  53.7974997 127.1799988
  22.0650012  53.8344997 126.5549988  21.4790352  53.4581332 127.0758463
  20.8070012  55.9374997 138.4829988  21.3480012  55.7204997 139.2429988
  20.3260012  55.1314997 138.2929988  20.8159951  55.7989270 138.5612576
  25.4050012  54.8564997 140.1029988  26.1720012  54.3974997 140.4439988
  25.3830012  54.6304997 139.1739988  25.5071275  54.7630186 140.0240101
  29.4970012  54.3644997 121.4789988  28.8530012  53.7334997 121.7999988
  30.2590012  53.8334997 121.2469988  29.5118077  54.2062920 121.4916011
  31.9820012  53.2364997 138.8329988  31.6310012  52.3804997 139.0759988
  32.7080012  53.3794997 139.4399988  32.0320769  53.1385636 138.9483619
  34.1010012  54.1814997 121.7119988  34.3840012  53.3874997 122.1649988
  34.8410012  54.4144997 121.1519988  34.2398006  54.1043376 121.6982715
  20.7140012  49.7474997 139.4369988  20.8580012  48.8454997 139.1509988
  19.9420012  50.0334997 138.9499988  20.6292753  49.6626816 139.3319505
  25.0560012  50.0914997 121.5699988  25.1200012  49.2974997 122.1009988
  25.7090012  49.9724997 120.8799988  25.1530241  49.9667148 121.5494317
  27.3700012  49.7174997 138.8699988  27.0410012  49.9884997 138.0129988
  27.5220012  48.7764997 138.7829988  27.3454809  49.6273862 138.7408244
  30.4080012  51.1384997 121.3059988  30.1390012  51.3184997 122.2069988
  30.2020012  50.2124997 121.1739988  30.3433427  51.0380261 121.4115073
  33.1040012  49.6334997 136.2529988  33.8500012  50.2214997 136.1339988
  32.3470012  50.2154997 136.3169988  33.1037820  49.7927143 136.2453590
  21.5470012  46.9474997 138.8569988  21.9550012  46.0904997 138.7359988
  21.2870012  46.9624997 139.7779988  21.5677568  46.8320807 138.9649588
  26.2050012  48.0634997 123.8759988  25.7450012  47.5794997 124.5619988
  26.4600012  47.3954997 123.2399988  26.1764902  47.9068731 123.8839334
  25.4940012  45.9564997 136.2319988  24.8760012  46.6314997 136.5119988
  25.8380012  46.2774997 135.3979988  25.4559132  46.0922411 136.1576262
  27.2760012  46.3064997 122.1379988  27.0960012  46.1524997 121.2109988
  28.2260012  46.4144997 122.1829988  27.3797776  46.3000175 122.0171843
  30.5140012  48.4284997 139.5089988  31.4670012  48.5114997 139.4819988
  30.3530012  47.7164997 140.1289988  30.6226426  48.3436746 139.5890579
  36.6660012  48.6614997 121.5839988  36.3920012  48.2364997 120.7709988
  36.7050012  49.5924997 121.3669988  36.6337699  48.7292484 121.4433610
  25.8330012  43.3114997 137.3139988  25.9830012  42.5824997 136.7119988
  25.8360012  44.0884997 136.7549988  25.8539302  43.3167851 137.1560692
  26.2460012  41.6814997 134.8069988  26.7820012  42.1324997 134.1549988
  25.3940012  41.5734997 134.3839988  26.2042178  41.7286390 134.6605756
  27.8280012  47.1204997 135.0459988  28.5780012  46.9644997 134.4729988
  27.4890012  47.9724997 134.7709988  27.8848921  47.2142968 134.9303561
  32.2430012  44.9354997 140.0749988  32.4360012  44.0044997 139.9629988
  33.1010012  45.3604997 140.0639988  32.3852934  44.8656531 140.0582031
  33.5600012  47.7244997 138.1519988  33.2790012  48.4334997 137.5739988
  34.5030012  47.6514997 138.0009988  33.6489291  47.8116711 138.0524967
  24.3120012  44.5094997 139.2259988  23.5450012  43.9774997 139.0149988
  24.9910012  44.1994997 138.6259988  24.2987877  44.3948300 139.1160716
  27.0520012  39.1374997 135.2379988  26.9530012  40.0844997 135.1329988
  26.3090012  38.7654997 134.7619988  26.9381184  39.2165863 135.1593621
  28.3160012  43.4594997 138.8019988  28.0800012  43.2394997 139.7029988
  27.5320012  43.2524997 138.2919988  28.1778504  43.4014586 138.8563431
  31.0310012  42.5864997 137.8769988  30.0840012  42.6184997 138.0099988
  31.3440012  41.9614997 138.5309988  30.9436707  42.5063998 137.9836060
  32.6650012  41.2204997 139.8829988  32.5690012  40.2684997 139.8769988
  32.3440012  41.4894997 140.7429988  32.6084070  41.1264035 139.9985441
  22.4920012  42.4304997 138.9299988  22.7040012  41.7234997 138.3199988
  22.3810012  41.9924997 139.7739988  22.5059721  42.2747084 138.9606843
  27.2730012  38.4314997 137.9089988  27.9850012  37.7914997 137.8949988
  27.1720012  38.6984997 136.9959988  27.3568066  38.3800079 137.7835677
  27.6270012  40.1144997 139.9629988  27.4950012  39.6384997 139.1429988
  27.0280012  40.8584997 139.9079988  27.5279071  40.1499618 139.8432886
  27.1730012  56.9974997 123.1389988  28.1060012  57.1554997 123.2829988
  26.9090012  57.6724997 122.5149988  27.2649888  57.1104510 123.0742842
  20.7420012  51.6334997 122.6219988  21.6560012  51.7124997 122.8959988
  20.7490012  50.9464997 121.9559988  20.8681131  51.5513961 122.5694393
  19.3910012  57.0264997 127.6999988  18.7440012  56.5644997 127.1669988
  19.7450012  56.3544997 128.2819988  19.3503849  56.8724723 127.7057959
  20.2610012  55.1074997 129.5039988  19.9260012  54.2274997 129.6759988
  20.4830012  55.4524997 130.3689988  20.2451783  55.0337500 129.6444208
  37.8090012  55.9164997 132.4849988  37.7880012  56.1014997 133.4239988
  38.5000012  56.4854997 132.1439988  37.8994618  56.0186606 132.5673864
  37.3730012  55.4844997 135.4069988  36.8850012  54.7484997 135.0349988
  37.9220012  55.0904997 136.0849988  37.3804820  55.3305889 135.4477813
  35.8230012  51.2734997 140.0449988  34.9570012  51.1684997 140.4389988
  36.2000012  52.0324997 140.4909988  35.7553308  51.3616900 140.1592393
  37.1240012  49.5304997 125.5589988  37.9740012  49.9514997 125.6859988
  37.1300012  48.7904997 126.1659988  37.2411372  49.4880803 125.6584344
  37.5190012  47.5834997 127.3819988  36.7920012  47.1044997 127.7799988
  38.1000012  47.7894997 128.1149988  37.4980473  47.5458103 127.5354528
  37.2780012  50.3684997 132.3299988  38.1110012  49.9904997 132.0499988
  37.3900012  51.3114997 132.2109988  37.4072647  50.4442218 132.2755487
  35.7640012  53.2464997 134.6369988  35.1170012  53.5714997 135.2629988
  35.2470012  52.8064997 133.9629988  35.6054029  53.2315004 134.6315827
  37.7870012  47.4844997 123.7739988  37.2650012  47.8414997 123.0549988
  37.7540012  48.1594997 124.4519988  37.7111634  47.6245413 123.7673145
  36.1360012  44.7244997 122.3239988  36.2320012  45.3914997 121.6439988
  35.9960012  43.9084997 121.8429988  36.1302272  44.7055655 122.1658347
  35.3050012  46.1044997 127.9449988  35.1550012  45.1594997 127.9249988
  34.9520012  46.3854997 128.7889988  35.2367448  46.0131481 128.0563705
  20.3410012  48.1824997 131.9559988  20.5250012  48.1004997 131.0199988
  21.1900012  48.0584997 132.3789988  20.4810151  48.1545073 131.8851451
  36.1620012  48.0744997 137.5839988  36.7450012  47.3404997 137.7759988
  36.7260012  48.8464997 137.6309988  36.3179769  48.0784227 137.6166159
  37.6580012  45.9774997 138.2689988  36.7950012  45.5984997 138.1029988
  38.2630012  45.2384997 138.1939988  37.6216119  45.8258268 138.2361528
  35.3830012  42.1324997 121.4419988  35.9940012  41.7614997 122.0789988
  34.5470012  41.7114997 121.6379988  35.3535032  42.0247554 121.5557035
  35.0160012  43.6874997 126.4079988  35.2960012  42.7804997 126.5319988
  35.7750012  44.1214997 126.0189988  35.1569277  43.6220942 126.3723682
  35.6280012  44.2684997 131.8439988  36.5610012  44.4804997 131.8089988
  35.3930012  44.3704997 132.7659988  35.7239244  44.3113100 131.9638892
  35.6570012  45.0054997 134.6199988  34.8140012  45.2734997 134.9859988
  36.0990012  45.8274997 134.4089988  35.6014158  45.1533291 134.6415491
  19.9380012  43.4534997 138.0969988  20.8580012  43.3314997 138.3329988
  19.4890012  42.7034997 138.4859988  20.0031580  43.3353727 138.1819006
  37.9400012  38.9854997 139.9729988  38.2900012  38.3314997 139.3679988
  38.0870012  39.8224997 139.5329988  38.0077887  39.0091548 139.8306858
  35.6290012  40.9504997 126.4559988  35.8120012  40.5014997 127.2819988
  35.0300012  40.3654997 125.9929988  35.5730202  40.8099975 126.5063275
  21.1590012  41.7654997 130.9879988  21.6050012  40.9734997 131.2899988
  21.6260012  42.4814997 131.4179988  21.2830831  41.7540685 131.0874006
  19.4630012  44.7644997 132.0569988  19.9550012  44.5434997 131.2659988
  19.8260012  45.6054997 132.3379988  19.5793126  44.8478357 131.9867531
  37.4600012  41.0944997 138.3219988  36.5420012  41.3654997 138.2869988
  37.5830012  40.5594997 137.5379988  37.3509729  41.0592508 138.2111923
  37.4960012  41.0174997 122.9839988  37.9080012  40.2964997 122.5089988
  38.1780012  41.6874997 123.0429988  37.6445885  41.0092368 122.9268915
  19.7770012  41.0224997 126.1109988  18.8520012  41.2314997 125.9819988
  20.2310012  41.5064997 125.4209988  19.7117292  41.1165343 126.0000720
  34.5480012  56.0064997 128.0569988  35.2000012  55.6594997 127.4489988
  35.0580012  56.4954997 128.7029988  34.7062637  56.0250597 128.0610236
  19.7410012  39.7604997 134.4549988  19.0760012  39.5144997 135.0989988
  19.2980012  40.3824997 133.8779988  19.5901318  39.8109410 134.4650898
  21.9330012  52.9354997 138.5999988  21.1120012  53.1104997 138.1389988
  21.6800012  52.8624997 139.5199988  21.7865585  52.9495544 138.6613561
  24.8870012  53.9104997 134.8579988  24.4620012  54.7194997 134.5759988
  25.7910012  53.9954997 134.5559988  24.9509975  54.0329300 134.7784816
  29.1980012  55.3094997 137.8179988  29.3830012  54.9754997 138.6959988
  30.0440012  55.6184997 137.4959988  29.3377539  55.3056047 137.8945605
  31.5430012  56.5954997 137.0619988  32.2200012  55.9624997 136.8219988
  31.8650012  56.9964997 137.8689988  31.6791637  56.5631154 137.1382793
  36.4600012  39.1844997 136.1409988  35.6480012  39.5094997 135.7539988
  36.6930012  38.4244997 135.6079988  36.3802203  39.1262758 136.0158880
  22.2890012  57.1664997 134.9059988  21.5680012  57.6064997 134.4549988
  21.9230012  56.9154997 135.7539988  22.1409651  57.1927242 134.9589640
  24.7560012  56.7664997 133.9359988  23.8910012  56.8384997 134.3399988
  24.7010012  57.3134997 133.1519988  24.6302085  56.8502685 133.8853362
  29.4660012  56.6544997 133.1109988  29.0100012  57.1834997 132.4569988
  29.6290012  57.2574997 133.8359988  29.4256068  56.8084607 133.1194838
  31.7940012  55.5324997 134.0559988  30.8890012  55.6974997 133.7899988
  32.2230012  56.3854997 133.9909988  31.7281324  55.6704339 134.0107976
  34.3980012  57.1024997 134.3509988  34.2160012  58.0184997 134.1409988
  34.5750012  56.6924997 133.5049988  34.3970210  57.1724822 134.2077885
  21.7030012  55.7894997 131.8159988  21.6850012  55.3644997 132.6729988
  22.5080012  55.4714997 131.4069988  21.8093529  55.6883013 131.8780946
  23.8450012  54.4994997 130.4709988  23.6260012  53.5834997 130.6409988
  24.6690012  54.6394997 130.9369988  23.9264420  54.3930520 130.5572774
  26.3820012  54.9694997 131.3199988  26.5950012  54.0814997 131.0329988
  26.4460012  54.9354997 132.2739988  26.4198231  54.8433102 131.4097397
  29.8900012  40.6334997 130.4639988  29.2160012  40.0044997 130.7199988
  30.4540012  40.1494997 129.8609988  29.8739230  40.4818744 130.4175340
  35.0330012  38.7414997 130.5769988  35.6370012  39.2884997 130.0749988
  34.1630012  39.0604997 130.3359988  34.9981208  38.8595137 130.4756886
  36.7600012  39.8794997 128.9099988  37.3720012  39.3654997 128.3829988
  37.1420012  40.7574997 128.9329988  36.8953371  39.9277866 128.8410041
  22.2170012  39.2674997 128.2859988  21.4400012  39.0334997 127.7789988
  22.7470012  38.4704997 128.2949988  22.1822330  39.1276988 128.2177742
  21.0530012  39.0654997 124.0899988  21.4920012  39.6764997 123.4979988
  20.4200012  39.6034997 124.5639988  21.0274514  39.2219257 124.0730930
  26.7960012  39.1944997 128.0999988  27.6710012  39.5824997 128.0699988
  26.6600012  38.9794997 129.0219988  26.8973695  39.2185184 128.2206440
  32.3530012  39.2244997 129.7489988  32.4290012  39.3194997 128.7989988
  32.0780012  38.3164997 129.8779988  32.3262321  39.1147867 129.6365079
  33.7060012  39.2504997 125.4409988  33.0040012  39.8654997 125.2309988
  33.2620012  38.4124997 125.5719988  33.5496450  39.2215639 125.4299000
  20.9540012  55.0134997 124.9869988  20.2690012  54.9754997 124.3199988
  20.9580012  55.9264997 125.2759988  20.8606998  55.1316733 124.9346771
  22.9140012  40.9814997 122.5319988  23.4060012  40.3514997 122.0049988
  23.5380012  41.2774997 123.1949988  23.0655688  40.9353804 122.5495482
  27.9400012  41.2744997 124.9889988  28.1180012  40.6284997 125.6719988
  27.8870012  42.1084997 125.4559988  27.9571999  41.2988009 125.1455917
  29.8190012  56.2234997 123.3849988  30.6850012  56.5894997 123.2069988
  29.5720012  55.7834997 122.5709988  29.9042392  56.2141756 123.2506289
  36.5280012  55.7864997 126.0639988  36.3330012  55.0384997 125.4989988
  36.4890012  56.5444997 125.4809988  36.4960380  55.7866099 125.9078384
  22.1750012  39.7814997 137.8039988  21.8090012  39.0164997 138.2459988
  23.0880012  39.8104997 138.0899988  22.2482736  39.6805640 137.9032502
  24.1480012  39.1324997 139.3399988  25.0460012  38.8584997 139.1549988
  23.7610012  38.3894997 139.8039988  24.2186612  38.9945914 139.3773643
  22.7720012  55.9334997 122.0129988  22.5050012  56.2204997 122.8859988
  23.5440012  55.3874997 122.1649988  22.8397488  55.8990294 122.1531050
  32.5690012  38.4644997 139.5219988  32.6460012  38.0384997 140.3759988
  33.4630012  38.4784997 139.1789988  32.7003428  38.4080879 139.5925310
  35.7450012  54.5374997 138.2139988  34.9630012  54.3514997 137.6939988
  35.6730012  55.4664997 138.4319988  35.6282274  54.6376643 138.1723018
  50.1510012  48.4234997 128.2449988  50.2400012  49.3674997 128.1129988
  49.5130012  48.1484997 127.5869988  50.0769081  48.5154830 128.1379614
  49.0840012  47.6784997 131.6639988  49.0460012  47.0324997 132.3689988
  48.7620012  47.2124997 130.8929988  49.0352333  47.5269408 131.6562978
  41.4530012  47.2934997 133.2569988  41.4940012  46.6674997 133.9799988
  42.1560012  47.9174997 133.4389988  41.5536363  47.2921196 133.3806044
  52.7900012  50.6174997 129.9649988  52.3500012  49.8974997 130.4159988
  52.7770012  51.3384997 130.5949988  52.7280226  50.6163731 130.1118494
  42.3760012  51.7434997 131.7919988  42.0070012  50.9414997 131.4219988
  43.3170012  51.5744997 131.8379988  42.4527289  51.6110153 131.7476316
  38.9860012  45.4034997 127.1849988  38.5390012  46.2494997 127.1659988
  38.4250012  44.8234997 126.6689988  38.8489900  45.4409916 127.1126801
  39.6970012  47.5654997 129.3099988  39.9100012  46.7954997 129.8379988
  40.4350012  47.6544997 128.7069988  39.8259044  47.4721968 129.3007123
  49.9020012  55.7224997 130.1769988  50.5220012  55.0454997 129.9039988
  49.6940012  55.5044997 131.0859988  49.9586726  55.6004800 130.2624812
  47.4740012  50.1114997 132.0699988  47.7780012  49.4254997 131.4749988
  48.1950012  50.2294997 132.6879988  47.6130671  50.0336304 132.0721816
  56.1370012  41.7124997 132.9309988  56.1860012  42.3224997 133.6659988
  56.5620012  42.1734997 132.2079988  56.2011746  41.8583796 132.9339175
  50.6150012  44.5054997 132.3969988  50.7570012  43.5594997 132.4179988
  50.5080012  44.7124997 131.4689988  50.6199919  44.4038246 132.2743408
  43.7690012  42.6064997 129.6699988  43.8130012  43.4664997 129.2509988
  43.3120012  42.0544997 129.0359988  43.7132240  42.6494422 129.5269864
  51.4920012  42.7374997 128.0709988  52.1380012  42.4084997 128.6949988
  52.0020012  43.2554997 127.4479988  51.6494299  42.7624450 128.0722731
  40.3900012  45.0034997 130.4319988  41.0430012  44.4534997 130.8639988
  40.4140012  44.7294997 129.5149988  40.4826683  44.8911466 130.3672123
  45.5460012  46.5534997 129.6469988  46.1620012  46.0274997 130.1569988
  44.9600012  45.9134997 129.2439988  45.5510810  46.3949208 129.6623173
  56.5280012  43.1904997 135.1659988  55.8400012  43.8484997 135.0709988
  56.5440012  42.9934997 136.1029988  56.4359540  43.2539819 135.2795990
  42.5800012  41.5244997 133.7439988  42.3610012  42.0544997 132.9779988
  41.9120012  41.7514997 134.3909988  42.4597600  41.6276906 133.7266379
  49.9490012  51.0244997 127.2879988  49.6530012  50.7024997 126.4369988
  49.6240012  51.9244997 127.3289988  49.8646371  51.1020215 127.1771801
  45.1490012  49.2004997 134.0309988  44.4090012  49.7984997 134.1349988
  45.8630012  49.7544997 133.7159988  45.1442237  49.3572831 134.0026465
  53.2560012  42.0284997 130.0509988  53.0400012  41.2624997 130.5839988
  53.9110012  42.5004997 130.5639988  53.3150632  41.9875889 130.1932861
  42.1730012  43.4164997 131.6959988  42.7870012  44.0494997 132.0689988
  42.6850012  42.9444997 131.0399988  42.3261981  43.4392267 131.6582908
  43.5560012  51.1644997 134.8179988  43.5510012  52.0444997 134.4399988
  42.7030012  51.0814997 135.2429988  43.4399464  51.2736117 134.8237907
  39.6770012  50.8354997 125.5999988  39.4050012  51.0644997 124.7119988
  39.7230012  51.6734997 126.0609988  39.6459482  50.9801318 125.5406273
  53.3020012  52.4574997 132.3129988  52.3610012  52.5154997 132.4749988
  53.5790012  53.3634997 132.1759988  53.2104679  52.5879443 132.3166815
  53.6030012  40.7434997 133.7309988  52.8670012  41.3544997 133.6929988
  54.2860012  41.1584997 133.2039988  53.5946541  40.8831374 133.6545832
  46.6060012  38.8304997 131.1959988  46.4890012  37.8814997 131.1419988
  45.7510012  39.1624997 131.4699988  46.4744212  38.7455571 131.2256497
  51.5540012  54.2384997 128.9379988  51.9800012  53.5314997 128.4529988
  51.8710012  55.0394997 128.5219988  51.6551683  54.2501017 128.8153680
  52.7140012  52.1394997 127.4469988  52.4560012  51.4494997 126.8359988
  52.7850012  51.6964997 128.2929988  52.6882856  51.9852124 127.4776885
  54.4000012  50.7054997 135.9239988  54.5400012  50.1144997 135.1849988
  54.5670012  51.5784997 135.5679988  54.4417411  50.7425428 135.7746894
  48.8730012  47.6674997 125.6969988  48.1610012  48.2024997 125.3449988
  49.5640012  47.7234997 125.0369988  48.8690132  47.7482543 125.5596289
  48.9260012  46.1254997 122.7359988  49.6270012  46.1474997 123.3869988
  49.2290012  45.4974997 122.0789988  49.0628133  46.0437070 122.7363369
  56.2420012  47.0454997 133.9899988  55.5890012  47.7404997 134.0799988
  56.7070012  47.2554997 133.1809988  56.2155274  47.1690643 133.8928462
  52.2780012  47.8774997 126.6489988  51.5460012  48.1054997 127.2219988
  52.7260012  47.1634997 127.1029988  52.2382725  47.8122145 126.7888816
  52.1760012  46.0514997 135.7159988  52.2560012  46.8144997 136.2879988
  51.5740012  46.3304997 135.0259988  52.1055756  46.1937134 135.7010589
  43.9240012  48.5074997 128.5309988  43.5930012  48.1374997 127.7129988
  44.5120012  47.8374997 128.8779988  43.9581873  48.3661156 128.4658102
  45.2900012  51.9354997 131.2119988  45.1960012  51.3574997 130.4559988
  46.0200012  51.5644997 131.7089988  45.3757387  51.8061663 131.1755342
  44.2900012  47.2764997 132.1649988  44.8560012  47.3974997 131.4019988
  44.6090012  47.9134997 132.8029988  44.4105474  47.3792219 132.1469862
  50.5990012  52.7794997 132.8989988  50.3590012  53.4414997 133.5469988
  50.4010012  51.9454997 133.3239988  50.5393808  52.7573134 133.0451524
  45.1700012  51.6754997 136.8819988  44.8590012  52.4574997 137.3369988
  44.5200012  51.5224997 136.1959988  45.0395558  51.7619105 136.8515871
  51.1490012  47.0394997 124.3339988  51.7290012  47.1894997 125.0809988
  51.5630012  47.5104997 123.6099988  51.2842997  47.1236578 124.3384058
  42.0900012  47.8734997 136.1099988  42.1610012  48.5244997 136.8089988
  41.2000012  47.9764997 135.7749988  41.9793005  47.9765427 136.1603495
  48.8760012  53.7764997 127.7689988  49.3500012  54.0714997 128.5459988
  48.3130012  54.5144997 127.5359988  48.8648184  53.9167247 127.8439628
  43.4100012  53.7474997 137.6449988  43.4170012  53.6114997 136.6979988
  42.4940012  53.6294997 137.8969988  43.2871714  53.7129430 137.5494666
  54.8480012  38.7894997 124.1469988  53.9480012  38.9284997 124.4419988
  55.1000012  39.6204997 123.7449988  54.7588702  38.9209074 124.1330205
  42.9140012  47.5774997 126.1199988  42.6220012  48.3454997 125.6299988
  42.2400012  46.9174997 125.9579988  42.7828111  47.5935587 126.0308978
  56.0370012  53.1554997 122.5229988  56.1110012  54.0944997 122.6939988
  56.9430012  52.8504997 122.4669988  56.1695100  53.2426722 122.5388119
  39.0070012  49.9404997 134.9349988  38.5060012  49.9124997 134.1199988
  39.0120012  49.0344997 135.2449988  38.9390944  49.8142396 134.8653226
  38.7570012  52.7204997 131.8189988  39.7030012  52.5764997 131.7999988
  38.6450012  53.5044997 132.3559988  38.8712727  52.8068046 131.8890072
  56.9550012  53.3864997 137.5019988  56.9060012  52.4314997 137.4649988
  56.1280012  53.6544997 137.9029988  56.8364940  53.2918998 137.5511375
  47.9340012  52.9604997 136.3779988  48.0210012  53.7864997 136.8529988
  47.0700012  52.6304997 136.6269988  47.8291964  53.0289878 136.4766549
  48.3480012  56.7324997 126.1839988  48.2730012  56.6114997 125.2369988
  48.3810012  57.6824997 126.3019988  48.3422068  56.8442646 126.0704967
  42.0010012  55.5214997 127.9649988  42.1540012  55.1734997 128.8429988
  41.1510012  55.1654997 127.7099988  41.9069166  55.4256217 128.0508079
  51.4500012  55.8864997 123.1859988  51.8250012  55.1424997 122.7149988
  51.4540012  55.6164997 124.1049988  51.5019125  55.7480986 123.2456483
  51.1190012  55.8124997 125.9349988  50.1830012  55.9124997 126.1139988
  51.3990012  55.1034997 126.5139988  51.0289553  55.7303406 126.0377087
  54.1070012  44.8794997 137.9819988  53.7000012  45.3604997 137.2609988
  54.1480012  43.9744997 137.6739988  54.0568437  44.8229374 137.8416683
  41.2560012  51.2634997 135.9789988  41.4720012  50.9024997 136.8379988
  40.4010012  50.8894997 135.7689988  41.1699292  51.1634111 136.0683386
  43.8750012  39.7334997 131.9739988  43.0130012  39.6464997 131.5659988
  43.8520012  40.5894997 132.4019988  43.7540409  39.8372883 131.9760589
  48.5380012  39.4554997 135.3489988  48.9580012  39.0404997 136.1019988
  47.6050012  39.2774997 135.4659988  48.4693644  39.3745900 135.4679539
  51.8640012  43.2114997 136.2019988  51.3500012  43.0854997 136.9999988
  51.7090012  44.1234997 135.9579988  51.7726852  43.3176132 136.2782158
  52.6270012  48.0724997 121.9639988  52.6690012  47.8494997 121.0339988
  53.4760012  48.4714997 122.1529988  52.7475280  48.0959438 121.8623554
  48.1990012  41.9484997 122.6339988  47.9460012  41.9674997 123.5569988
  47.9430012  41.0764997 122.3319988  48.1297481  41.8332558 122.7196175
  43.9660012  44.6994997 133.0689988  43.3240012  44.6584997 133.7779988
  44.0030012  45.6254997 132.8309988  43.8830664  44.8191430 133.1339219
  43.9630012  44.9204997 127.9809988  43.0700012  44.5794997 127.9219988
  44.4130012  44.5434997 127.2249988  43.9018130  44.8229631 127.8707702
  49.4980012  45.3364997 126.7979988  49.0890012  46.1514997 126.5069988
  50.2190012  45.1964997 126.1839988  49.5394537  45.4292018 126.6751342
  48.6000012  45.5114997 138.2859988  48.0380012  44.8074997 138.6069988
  49.4270012  45.3914997 138.7539988  48.6347095  45.3987883 138.3932330
  50.5030012  44.7824997 129.6119988  50.3080012  45.3874997 128.8969988
  50.6840012  43.9484997 129.1779988  50.5007614  44.7526300 129.4554405
  41.7160012  45.0194997 134.9359988  41.6780012  45.4194997 135.8049988
  41.2250012  44.2024997 135.0269988  41.6444684  44.9638069 135.0671059
  45.0820012  42.3934997 121.7349988  44.6510012  41.9484997 122.4649988
  44.3640012  42.7654997 121.2229988  44.9259438  42.3828940 121.7656799
  38.3240012  42.1354997 128.7869988  38.9550012  42.1064997 129.5059988
  38.7730012  41.7104997 128.0559988  38.4710918  42.0740836 128.7866441
  39.5980012  42.8814997 124.2109988  40.0720012  43.4724997 123.6259988
  38.8810012  43.4124997 124.5579988  39.5659341  43.0340867 124.1778836
  49.7670012  46.4204997 134.2829988  50.0900012  45.7894997 133.6399988
  49.3270012  45.8854997 134.9439988  49.7517484  46.2618387 134.2843198
  46.5440012  42.3474997 129.0669988  45.6330012  42.4044997 129.3559988
  47.0500012  42.2874997 129.8779988  46.4876899  42.3471941 129.2161184
  41.3730012  43.9764997 127.8939988  40.4830012  44.0764997 127.5539988
  41.6690012  43.1344997 127.5479988  41.2912823  43.8763545 127.8007213
  45.0260012  43.9764997 125.5509988  45.9570012  44.1054997 125.7289988
  44.8110012  44.6464997 124.9009988  45.1244247  44.0846565 125.4875747
  50.9490012  41.5824997 132.3319988  50.2730012  41.7134997 132.9959988
  50.4640012  41.4274997 131.5209988  50.7907146  41.5795157 132.3134469
  43.7000012  45.1714997 123.1169988  43.1570012  44.7914997 122.4259988
  44.5330012  45.3654997 122.6889988  43.7383631  45.1457125 122.9644501
  54.2370012  57.2544997 138.6079988  54.4370012  57.6784997 137.7739988
  54.8920012  57.5974997 139.2149988  54.3530072  57.3589857 138.5758592
  41.8350012  49.7284997 138.2159988  42.5670012  49.9824997 138.7779988
  41.0550012  49.9324997 138.7319988  41.8297073  49.7908160 138.3626151
  47.8640012  45.1354997 130.9539988  48.4290012  44.5884997 130.4069988
  47.7170012  44.6134997 131.7429988  47.9213380  44.9902259 130.9858695
  42.8660012  41.2714997 127.3729988  42.5490012  40.3694997 127.3369988
  43.6480012  41.2734997 126.8199988  42.9282408  41.1482474 127.2933569
  46.4910012  43.5234997 133.3679988  45.6550012  43.9774997 133.4789988
  47.0150012  43.7994997 134.1199988  46.4475416  43.6228660 133.4848119
  47.0350012  49.7364997 125.0529988  46.2900012  49.2294997 124.7309988
  46.9010012  49.7854997 125.9999988  46.9148776  49.6736940 125.1368647
  54.1850012  48.8694997 133.8399988  54.8270012  49.3264997 133.2959988
  53.3550012  48.9824997 133.3769988  54.1605963  48.9472704 133.7030177
  50.9330012  42.5504997 123.2519988  49.9940012  42.6624997 123.1009988
  51.2300012  43.4074997 123.5589988  50.8447583  42.6815981 123.2728337
  48.5540012  49.9204997 136.2899988  48.2090012  49.5394997 137.0969988
  48.3540012  50.8544997 136.3609988  48.4797527  49.9945135 136.4100689
  51.6510012  44.4174997 124.9129988  52.5430012  44.2804997 125.2319988
  51.7080012  45.2084997 124.3759988  51.7806504  44.5056052 124.8840818
  42.1600012  49.0314997 130.8229988  42.9050012  49.0294997 130.2219988
  42.2380012  48.2084997 131.3039988  42.2724995  48.9198887 130.8058282
  49.1610012  51.1954997 124.0789988  48.8650012  52.0214997 124.4599988
  48.4580012  50.5754997 124.2749988  49.0254914  51.2248199 124.1576443
  39.1680012  47.4924997 136.1379988  39.3910012  47.0744997 136.9699988
  38.5660012  46.8794997 135.7149988  39.1171759  47.3524668 136.1947022
  46.1840012  47.0094997 138.3509988  45.8880012  46.8434997 137.4559988
  47.1160012  46.7894997 138.3399988  46.2694166  46.9570640 138.2270536
  50.8050012  52.3824997 136.2409988  49.9040012  52.5654997 135.9729988
  50.8390012  52.6414997 137.1609988  50.6863139  52.4425849 136.3288099
  56.5360012  44.6274997 124.6079988  55.9820012  44.2314997 123.9359988
  56.6360012  45.5374997 124.3299988  56.4737059  44.6963586 124.4784401
  56.4990012  50.4274997 137.4449988  55.6480012  50.6654997 137.0779988
  57.0900012  50.4104997 136.6919988  56.4622487  50.4578258 137.2928893
  54.8310012  53.4134997 125.0729988  54.4580012  52.5874997 125.3819988
  55.1090012  53.2304997 124.1749988  54.8175222  53.2757430 124.9939473
  51.9920012  48.2214997 132.0939988  51.0630012  47.9894997 132.0669988
  52.4430012  47.4444997 131.7639988  51.9259216  48.0847238 132.0456917
  44.5350012  52.5494997 128.2269988  45.0620012  53.3224997 128.0269988
  43.6550012  52.7744997 127.9249988  44.4882031  52.6857545 128.1587912
  40.2900012  47.4114997 122.8139988  40.9060012  48.0384997 123.1939988
  39.4280012  47.7274997 123.0859988  40.2577698  47.5399430 122.9027183
  45.9620012  50.2124997 127.8029988  45.7210012  51.1374997 127.8449988
  45.2210012  49.7534997 128.1999988  45.8289225  50.2770933 127.8623742
  46.4770012  54.3614997 134.1189988  46.8390012  55.2164997 133.8849988
  47.0080012  54.0694997 134.8589988  46.5984473  54.4391060 134.1870855
  44.6450012  55.2344997 127.3489988  43.6950012  55.3394997 127.3999988
  44.9970012  56.0544997 127.6929988  44.5624195  55.3598800 127.4025502
  50.0210012  50.4604997 133.8189988  49.5950012  50.2334997 134.6459988
  50.6010012  49.7224997 133.6369988  50.0411868  50.3295299 133.9075830
  52.2240012  51.3894997 122.8929988  52.5770012  51.0094997 123.6969988
  51.2750012  51.2964997 122.9799988  52.1440918  51.3248956 123.0148532
  52.6790012  55.0124997 136.2889988  52.0780012  54.4574997 135.7929988
  52.9610012  55.6794997 135.6619988  52.6348804  55.0266625 136.1364849
  56.7270012  55.8694997 123.0939988  57.4710012  56.4554997 122.9539988
  56.0330012  56.4374997 123.4269988  56.7349899  56.0265798 123.1198778
  40.8020012  42.2454997 135.6959988  39.9090012  42.5844997 135.6279988
  40.7030012  41.3904997 136.1139988  40.6664164  42.1762588 135.7432235
  53.0900012  50.0624997 125.1199988  52.8120012  49.3344997 125.6759988
  54.0170012  50.1814997 125.3249988  53.1773124  49.9788802 125.2238845
  40.4530012  54.0504997 134.1309988  40.6700012  53.1184997 134.0999988
  40.6990012  54.3244997 135.0139988  40.5159549  53.9600636 134.2461763
  46.3150012  52.5014997 121.3399988  46.5540012  51.7534997 120.7929988
  46.0460012  52.1134997 122.1729988  46.3113675  52.3466638 121.3776865
  45.2520012  52.0714997 123.7959988  45.3980012  51.5514997 124.5859988
  45.2490012  52.9784997 124.1029988  45.2715792  52.1228842 123.9456117
  41.7050012  49.3244997 124.3069988  41.0190012  49.6764997 124.8739988
  42.2270012  50.0874997 124.0599988  41.6816852  49.4758578 124.3512118
  49.5360012  41.9864997 134.5859988  50.2350012  42.0604997 135.2359988
  49.1550012  41.1224997 134.7399988  49.5801767  41.8797624 134.6958322
  50.3210012  41.6384997 125.6829988  50.5410012  42.1104997 124.8799988
  50.8790012  42.0334997 126.3529988  50.4264968  41.7564285 125.6637331
  47.9890012  53.7694997 124.5459988  47.1730012  54.2664997 124.5979988
  48.5190012  54.2444997 123.9059988  47.9489161  53.9017722 124.4665956
  47.5210012  43.3664997 126.5179988  48.3330012  43.8714997 126.5639988
  47.2760012  43.2214997 127.4319988  47.5990520  43.4160375 126.6478517
  48.0560012  44.3524997 135.7019988  48.1750012  44.9264997 136.4599988
  48.7120012  43.6644997 135.8169988  48.1609025  44.3379858 135.8211321
  48.4040012  40.4474997 127.4559988  48.0580012  41.0654997 128.0999988
  49.0630012  40.9484997 126.9739988  48.4456968  40.5996278 127.4789383
  45.3280012  54.8134997 124.5269988  45.4880012  55.6124997 124.0269988
  45.1300012  55.1194997 125.4119988  45.3231637  54.9644020 124.5781144
  44.0620012  41.5104997 124.1429988  43.9790012  42.3994997 124.4899988
  44.9520012  41.2454997 124.3749988  44.1709469  41.5961430 124.2217626
  54.2610012  42.2594997 136.5369988  53.3440012  42.5224997 136.4499988
  54.5960012  42.2564997 135.6409988  54.1808613  42.2950761 136.4038837
  52.8630012  46.0104997 130.6329988  52.0650012  45.5954997 130.3049988
  53.3080012  45.3194997 131.1239988  52.8139885  45.8603543 130.6544889
  42.3210012  51.9384997 123.2039988  42.9130012  52.6374997 123.4799988
  42.7800012  51.5054997 122.4839988  42.4641142  51.9757049 123.1444830
  40.6370012  44.6024997 122.3199988  40.5920012  45.5414997 122.4979988
  39.7490012  44.3664997 122.0499988  40.5108574  44.6991892 122.3078912
  53.9490012  55.2664997 132.2559988  53.7940012  55.9444997 131.5979988
  54.8820012  55.3384997 132.4589988  54.0538657  55.3689546 132.1934360
  41.4450012  39.3844997 130.9929988  41.2160012  39.4434997 130.0649988
  41.0020012  38.5924997 131.2989988  41.3538530  39.2855753 130.9074786
  40.3750012  53.3244997 127.1529988  39.5430012  53.7974997 127.1799988
  40.9210012  53.8344997 126.5549988  40.3350352  53.4581332 127.0758463
  39.6630012  55.9374997 138.4829988  40.2040012  55.7204997 139.2429988
  39.1820012  55.1314997 138.2929988  39.6719951  55.7989270 138.5612576
  44.2610012  54.8564997 140.1029988  45.0280012  54.3974997 140.4439988
  44.2390012  54.6304997 139.1739988  44.3631275  54.7630186 140.0240101
  48.3530012  54.3644997 121.4789988  47.7090012  53.7334997 121.7999988
  49.1150012  53.8334997 121.2469988  48.3678077  54.2062920 121.4916011
  50.8380012  53.2364997 138.8329988  50.4870012  52.3804997 139.0759988
  51.5640012  53.3794997 139.4399988  50.8880769  53.1385636 138.9483619
  52.9570012  54.1814997 121.7119988  53.2400012  53.3874997 122.1649988
  53.6970012  54.4144997 121.1519988  53.0958006  54.1043376 121.6982715
  39.5700012  49.7474997 139.4369988  39.7140012  48.8454997 139.1509988
  38.7980012  50.0334997 138.9499988  39.4852753  49.6626816 139.3319505
  43.9120012  50.0914997 121.5699988  43.9760012  49.2974997 122.1009988
  44.5650012  49.9724997 120.8799988  44.0090241  49.9667148 121.5494317
  46.2260012  49.7174997 138.8699988  45.8970012  49.9884997 138.0129988
  46.3780012  48.7764997 138.7829988  46.2014809  49.6273862 138.7408244
  49.2640012  51.1384997 121.3059988  48.9950012  51.3184997 122.2069988
  49.0580012  50.2124997 121.1739988  49.1993427  51.0380261 121.4115073
  51.9600012  49.6334997 136.2529988  52.7060012  50.2214997 136.1339988
  51.2030012  50.2154997 136.3169988  51.9597820  49.7927143 136.2453590
  40.4030012  46.9474997 138.8569988  40.8110012  46.0904997 138.7359988
  40.1430012  46.9624997 139.7779988  40.4237568  46.8320807 138.9649588
  45.0610012  48.0634997 123.8759988  44.6010012  47.5794997 124.5619988
  45.3160012  47.3954997 123.2399988  45.0324902  47.9068731 123.8839334
  44.3500012  45.9564997 136.2319988  43.7320012  46.6314997 136.5119988
  44.6940012  46.2774997 135.3979988  44.3119132  46.0922411 136.1576262
  46.1320012  46.3064997 122.1379988  45.9520012  46.1524997 121.2109988
  47.0820012  46.4144997 122.1829988  46.2357776  46.3000175 122.0171843
  49.3700012  48.4284997 139.5089988  50.3230012  48.5114997 139.4819988
  49.2090012  47.7164997 140.1289988  49.4786426  48.3436746 139.5890579
  55.5220012  48.6614997 121.5839988  55.2480012  48.2364997 120.7709988
  55.5610012  49.5924997 121.3669988  55.4897699  48.7292484 121.4433610
  44.6890012  43.3114997 137.3139988  44.8390012  42.5824997 136.7119988
  44.6920012  44.0884997 136.7549988  44.7099302  43.3167851 137.1560692
  45.1020012  41.6814997 134.8069988  45.6380012  42.1324997 134.1549988
  44.2500012  41.5734997 134.3839988  45.0602178  41.7286390 134.6605756
  46.6840012  47.1204997 135.0459988  47.4340012  46.9644997 134.4729988
  46.3450012  47.9724997 134.7709988  46.7408921  47.2142968 134.9303561
  51.0990012  44.9354997 140.0749988  51.2920012  44.0044997 139.9629988
  51.9570012  45.3604997 140.0639988  51.2412934  44.8656531 140.0582031
  52.4160012  47.7244997 138.1519988  52.1350012  48.4334997 137.5739988
  53.3590012  47.6514997 138.0009988  52.5049291  47.8116711 138.0524967
  43.1680012  44.5094997 139.2259988  42.4010012  43.9774997 139.0149988
  43.8470012  44.1994997 138.6259988  43.1547877  44.3948300 139.1160716
  45.9080012  39.1374997 135.2379988  45.8090012  40.0844997 135.1329988
  45.1650012  38.7654997 134.7619988  45.7941184  39.2165863 135.1593621
  47.1720012  43.4594997 138.8019988  46.9360012  43.2394997 139.7029988
  46.3880012  43.2524997 138.2919988  47.0338504  43.4014586 138.8563431
  49.8870012  42.5864997 137.8769988  48.9400012  42.6184997 138.0099988
  50.2000012  41.9614997 138.5309988  49.7996707  42.5063998 137.9836060
  51.5210012  41.2204997 139.8829988  51.4250012  40.2684997 139.8769988
  51.2000012  41.4894997 140.7429988  51.4644070  41.1264035 139.9985441
  41.3480012  42.4304997 138.9299988  41.5600012  41.7234997 138.3199988
  41.2370012  41.9924997 139.7739988  41.3619721  42.2747084 138.9606843
  46.1290012  38.4314997 137.9089988  46.8410012  37.7914997 137.8949988
  46.0280012  38.6984997 136.9959988  46.2128066  38.3800079 137.7835677
  46.4830012  40.1144997 139.9629988  46.3510012  39.6384997 139.1429988
  45.8840012  40.8584997 139.9079988  46.3839071  40.1499618 139.8432886
  46.0290012  56.9974997 123.1389988  46.9620012  57.1554997 123.2829988
  45.7650012  57.6724997 122.5149988  46.1209888  57.1104510 123.0742842
  39.5980012  51.6334997 122.6219988  40.5120012  51.7124997 122.8959988
  39.6050012  50.9464997 121.9559988  39.7241131  51.5513961 122.5694393
  38.2470012  57.0264997 127.6999988  37.6000012  56.5644997 127.1669988
  38.6010012  56.3544997 128.2819988  38.2063849  56.8724723 127.7057959
  39.1170012  55.1074997 129.5039988  38.7820012  54.2274997 129.6759988
  39.3390012  55.4524997 130.3689988  39.1011783  55.0337500 129.6444208
  56.6650012  55.9164997 132.4849988  56.6440012  56.1014997 133.4239988
  57.3560012  56.4854997 132.1439988  56.7554618  56.0186606 132.5673864
  56.2290012  55.4844997 135.4069988  55.7410012  54.7484997 135.0349988
  56.7780012  55.0904997 136.0849988  56.2364820  55.3305889 135.4477813
  54.6790012  51.2734997 140.0449988  53.8130012  51.1684997 140.4389988
  55.0560012  52.0324997 140.4909988  54.6113308  51.3616900 140.1592393
  55.9800012  49.5304997 125.5589988  56.8300012  49.9514997 125.6859988
  55.9860012  48.7904997 126.1659988  56.0971372  49.4880803 125.6584344
  56.3750012  47.5834997 127.3819988  55.6480012  47.1044997 127.7799988
  56.9560012  47.7894997 128.1149988  56.3540473  47.5458103 127.5354528
  56.1340012  50.3684997 132.3299988  56.9670012  49.9904997 132.0499988
  56.2460012  51.3114997 132.2109988  56.2632647  50.4442218 132.2755487
  54.6200012  53.2464997 134.6369988  53.9730012  53.5714997 135.2629988
  54.1030012  52.8064997 133.9629988  54.4614029  53.2315004 134.6315827
  56.6430012  47.4844997 123.7739988  56.1210012  47.8414997 123.0549988
  56.6100012  48.1594997 124.4519988  56.5671634  47.6245413 123.7673145
  54.9920012  44.7244997 122.3239988  55.0880012  45.3914997 121.6439988
  54.8520012  43.9084997 121.8429988  54.9862272  44.7055655 122.1658347
  54.1610012  46.1044997 127.9449988  54.0110012  45.1594997 127.9249988
  53.8080012  46.3854997 128.7889988  54.0927448  46.0131481 128.0563705
  39.1970012  48.1824997 131.9559988  39.3810012  48.1004997 131.0199988
  40.0460012  48.0584997 132.3789988  39.3370151  48.1545073 131.8851451
  55.0180012  48.0744997 137.5839988  55.6010012  47.3404997 137.7759988
  55.5820012  48.8464997 137.6309988  55.1739769  48.0784227 137.6166159
  56.5140012  45.9774997 138.2689988  55.6510012  45.5984997 138.1029988
  57.1190012  45.2384997 138.1939988  56.4776119  45.8258268 138.2361528
  54.2390012  42.1324997 121.4419988  54.8500012  41.7614997 122.0789988
  53.4030012  41.7114997 121.6379988  54.2095032  42.0247554 121.5557035
  53.8720012  43.6874997 126.4079988  54.1520012  42.7804997 126.5319988
  54.6310012  44.1214997 126.0189988  54.0129277  43.6220942 126.3723682
  54.4840012  44.2684997 131.8439988  55.4170012  44.4804997 131.8089988
  54.2490012  44.3704997 132.7659988  54.5799244  44.3113100 131.9638892
  54.5130012  45.0054997 134.6199988  53.6700012  45.2734997 134.9859988
  54.9550012  45.8274997 134.4089988  54.4574158  45.1533291 134.6415491
  38.7940012  43.4534997 138.0969988  39.7140012  43.3314997 138.3329988
  38.3450012  42.7034997 138.4859988  38.8591580  43.3353727 138.1819006
  56.7960012  38.9854997 139.9729988  57.1460012  38.3314997 139.3679988
  56.9430012  39.8224997 139.5329988  56.8637887  39.0091548 139.8306858
  54.4850012  40.9504997 126.4559988  54.6680012  40.5014997 127.2819988
  53.8860012  40.3654997 125.9929988  54.4290202  40.8099975 126.5063275
  40.0150012  41.7654997 130.9879988  40.4610012  40.9734997 131.2899988
  40.4820012  42.4814997 131.4179988  40.1390831  41.7540685 131.0874006
  38.3190012  44.7644997 132.0569988  38.8110012  44.5434997 131.2659988
  38.6820012  45.6054997 132.3379988  38.4353126  44.8478357 131.9867531
  56.3160012  41.0944997 138.3219988  55.3980012  41.3654997 138.2869988
  56.4390012  40.5594997 137.5379988  56.2069729  41.0592508 138.2111923
  56.3520012  41.0174997 122.9839988  56.7640012  40.2964997 122.5089988
  57.0340012  41.6874997 123.0429988  56.5005885  41.0092368 122.9268915
  38.6330012  41.0224997 126.1109988  37.7080012  41.2314997 125.9819988
  39.0870012  41.5064997 125.4209988  38.5677292  41.1165343 126.0000720
  53.4040012  56.0064997 128.0569988  54.0560012  55.6594997 127.4489988
  53.9140012  56.4954997 128.7029988  53.5622637  56.0250597 128.0610236
  38.5970012  39.7604997 134.4549988  37.9320012  39.5144997 135.0989988
  38.1540012  40.3824997 133.8779988  38.4461318  39.8109410 134.4650898
  40.7890012  52.9354997 138.5999988  39.9680012  53.1104997 138.1389988
  40.5360012  52.8624997 139.5199988  40.6425585  52.9495544 138.6613561
  43.7430012  53.9104997 134.8579988  43.3180012  54.7194997 134.5759988
  44.6470012  53.9954997 134.5559988  43.8069975  54.0329300 134.7784816
  48.0540012  55.3094997 137.8179988  48.2390012  54.9754997 138.6959988
  48.9000012  55.6184997 137.4959988  48.1937539  55.3056047 137.8945605
  50.3990012  56.5954997 137.0619988  51.0760012  55.9624997 136.8219988
  50.7210012  56.9964997 137.8689988  50.5351637  56.5631154 137.1382793
  55.3160012  39.1844997 136.1409988  54.5040012  39.5094997 135.7539988
  55.5490012  38.4244997 135.6079988  55.2362203  39.1262758 136.0158880
  41.1450012  57.1664997 134.9059988  40.4240012  57.6064997 134.4549988
  40.7790012  56.9154997 135.7539988  40.9969651  57.1927242 134.9589640
  43.6120012  56.7664997 133.9359988  42.7470012  56.8384997 134.3399988
  43.5570012  57.3134997 133.1519988  43.4862085  56.8502685 133.8853362
  48.3220012  56.6544997 133.1109988  47.8660012  57.1834997 132.4569988
  48.4850012  57.2574997 133.8359988  48.2816068  56.8084607 133.1194838
  50.6500012  55.5324997 134.0559988  49.7450012  55.6974997 133.7899988
  51.0790012  56.3854997 133.9909988  50.5841324  55.6704339 134.0107976
  53.2540012  57.1024997 134.3509988  53.0720012  58.0184997 134.1409988
  53.4310012  56.6924997 133.5049988  53.2530210  57.1724822 134.2077885
  40.5590012  55.7894997 131.8159988  40.5410012  55.3644997 132.6729988
  41.3640012  55.4714997 131.4069988  40.6653529  55.6883013 131.8780946
  42.7010012  54.4994997 130.4709988  42.4820012  53.5834997 130.6409988
  43.5250012  54.6394997 130.9369988  42.7824420  54.3930520 130.5572774
  45.2380012  54.9694997 131.3199988  45.4510012  54.0814997 131.0329988
  45.3020012  54.9354997 132.2739988  45.2758232  54.8433102 131.4097397
  48.7460012  40.6334997 130.4639988  48.0720012  40.0044997 130.7199988
  49.3100012  40.1494997 129.8609988  48.7299230  40.4818744 130.4175340
  53.8890012  38.7414997 130.5769988  54.4930012  39.2884997 130.0749988
  53.0190012  39.0604997 130.3359988  53.8541208  38.8595137 130.4756886
  55.6160012  39.8794997 128.9099988  56.2280012  39.3654997 128.3829988
  55.9980012  40.7574997 128.9329988  55.7513371  39.9277866 128.8410041
  41.0730012  39.2674997 128.2859988  40.2960012  39.0334997 127.7789988
  41.6030012  38.4704997 128.2949988  41.0382330  39.1276988 128.2177742
  39.9090012  39.0654997 124.0899988  40.3480012  39.6764997 123.4979988
  39.2760012  39.6034997 124.5639988  39.8834514  39.2219257 124.0730930
  45.6520012  39.1944997 128.0999988  46.5270012  39.5824997 128.0699988
  45.5160012  38.9794997 129.0219988  45.7533695  39.2185184 128.2206440
  51.2090012  39.2244997 129.7489988  51.2850012  39.3194997 128.7989988
  50.9340012  38.3164997 129.8779988  51.1822321  39.1147867 129.6365079
  52.5620012  39.2504997 125.4409988  51.8600012  39.8654997 125.2309988
  52.1180012  38.4124997 125.5719988  52.4056450  39.2215639 125.4299000
  39.8100012  55.0134997 124.9869988  39.1250012  54.9754997 124.3199988
  39.8140012  55.9264997 125.2759988  39.7166998  55.1316733 124.9346771
  41.7700012  40.9814997 122.5319988  42.2620012  40.3514997 122.0049988
  42.3940012  41.2774997 123.1949988  41.9215688  40.9353804 122.5495482
  46.7960012  41.2744997 124.9889988  46.9740012  40.6284997 125.6719988
  46.7430012  42.1084997 125.4559988  46.8131999  41.2988009 125.1455917
  48.6750012  56.2234997 123.3849988  49.5410012  56.5894997 123.2069988
  48.4280012  55.7834997 122.5709988  48.7602392  56.2141756 123.2506289
  55.3840012  55.7864997 126.0639988  55.1890012  55.0384997 125.4989988
  55.3450012  56.5444997 125.4809988  55.3520380  55.7866099 125.9078384
  41.0310012  39.7814997 137.8039988  40.6650012  39.0164997 138.2459988
  41.9440012  39.8104997 138.0899988  41.1042736  39.6805640 137.9032502
  43.0040012  39.1324997 139.3399988  43.9020012  38.8584997 139.1549988
  42.6170012  38.3894997 139.8039988  43.0746612  38.9945914 139.3773643
  41.6280012  55.9334997 122.0129988  41.3610012  56.2204997 122.8859988
  42.4000012  55.3874997 122.1649988  41.6957488  55.8990294 122.1531050
  51.4250012  38.4644997 139.5219988  51.5020012  38.0384997 140.3759988
  52.3190012  38.4784997 139.1789988  51.5563428  38.4080879 139.5925310
  54.6010012  54.5374997 138.2139988  53.8190012  54.3514997 137.6939988
  54.5290012  55.4664997 138.4319988  54.4842274  54.6376643 138.1723018
  69.0070012  48.4234997 128.2449988  69.0960012  49.3674997 128.1129988
  68.3690012  48.1484997 127.5869988  68.9329081  48.5154830 128.1379614
  67.9400012  47.6784997 131.6639988  67.9020012  47.0324997 132.3689988
  67.6180012  47.2124997 130.8929988  67.8912333  47.5269408 131.6562978
  60.3090012  47.2934997 133.2569988  60.3500012  46.6674997 133.9799988
  61.0120012  47.9174997 133.4389988  60.4096363  47.2921196 133.3806044
  71.6460012  50.6174997 129.9649988  71.2060012  49.8974997 130.4159988
  71.6330012  51.3384997 130.5949988  71.5840226  50.6163731 130.1118494
  61.2320012  51.7434997 131.7919988  60.8630012  50.9414997 131.4219988
  62.1730012  51.5744997 131.8379988  61.3087289  51.6110153 131.7476316
  57.8420012  45.4034997 127.1849988  57.3950012  46.2494997 127.1659988
  57.2810012  44.8234997 126.6689988  57.7049900  45.4409916 127.1126801
  58.5530012  47.5654997 129.3099988  58.7660012  46.7954997 129.8379988
  59.2910012  47.6544997 128.7069988  58.6819044  47.4721968 129.3007123
  68.7580012  55.7224997 130.1769988  69.3780012  55.0454997 129.9039988
  68.5500012  55.5044997 131.0859988  68.8146726  55.6004800 130.2624812
  66.3300012  50.1114997 132.0699988  66.6340012  49.4254997 131.4749988
  67.0510012  50.2294997 132.6879988  66.4690671  50.0336304 132.0721816
  74.9930012  41.7124997 132.9309988  75.0420012  42.3224997 133.6659988
  75.4180012  42.1734997 132.2079988  75.0571746  41.8583796 132.9339175
  69.4710012  44.5054997 132.3969988  69.6130012  43.5594997 132.4179988
  69.3640012  44.7124997 131.4689988  69.4759919  44.4038246 132.2743408
  62.6250012  42.6064997 129.6699988  62.6690012  43.4664997 129.2509988
  62.1680012  42.0544997 129.0359988  62.5692240  42.6494422 129.5269864
  70.3480012  42.7374997 128.0709988  70.9940012  42.4084997 128.6949988
  70.8580012  43.2554997 127.4479988  70.5054299  42.7624450 128.0722731
  59.2460012  45.0034997 130.4319988  59.8990012  44.4534997 130.8639988
  59.2700012  44.7294997 129.5149988  59.3386683  44.8911466 130.3672123
  64.4020012  46.5534997 129.6469988  65.0180012  46.0274997 130.1569988
  63.8160012  45.9134997 129.2439988  64.4070810  46.3949208 129.6623173
  75.3840012  43.1904997 135.1659988  74.6960012  43.8484997 135.0709988
  75.4000012  42.9934997 136.1029988  75.2919540  43.2539819 135.2795990
  61.4360012  41.5244997 133.7439988  61.2170012  42.0544997 132.9779988
  60.7680012  41.7514997 134.3909988  61.3157600  41.6276906 133.7266379
  68.8050012  51.0244997 127.2879988  68.5090012  50.7024997 126.4369988
  68.4800012  51.9244997 127.3289988  68.7206371  51.1020215 127.1771801
  64.0050012  49.2004997 134.0309988  63.2650012  49.7984997 134.1349988
  64.7190012  49.7544997 133.7159988  64.0002237  49.3572831 134.0026465
  72.1120012  42.0284997 130.0509988  71.8960012  41.2624997 130.5839988
  72.7670012  42.5004997 130.5639988  72.1710632  41.9875889 130.1932861
  61.0290012  43.4164997 131.6959988  61.6430012  44.0494997 132.0689988
  61.5410012  42.9444997 131.0399988  61.1821981  43.4392267 131.6582908
  62.4120012  51.1644997 134.8179988  62.4070012  52.0444997 134.4399988
  61.5590012  51.0814997 135.2429988  62.2959464  51.2736117 134.8237907
  58.5330012  50.8354997 125.5999988  58.2610012  51.0644997 124.7119988
  58.5790012  51.6734997 126.0609988  58.5019482  50.9801318 125.5406273
  72.1580012  52.4574997 132.3129988  71.2170012  52.5154997 132.4749988
  72.4350012  53.3634997 132.1759988  72.0664679  52.5879443 132.3166815
  72.4590012  40.7434997 133.7309988  71.7230012  41.3544997 133.6929988
  73.1420012  41.1584997 133.2039988  72.4506541  40.8831374 133.6545832
  65.4620012  38.8304997 131.1959988  65.3450012  37.8814997 131.1419988
  64.6070012  39.1624997 131.4699988  65.3304212  38.7455571 131.2256497
  70.4100012  54.2384997 128.9379988  70.8360012  53.5314997 128.4529988
  70.7270012  55.0394997 128.5219988  70.5111683  54.2501017 128.8153680
  71.5700012  52.1394997 127.4469988  71.3120012  51.4494997 126.8359988
  71.6410012  51.6964997 128.2929988  71.5442856  51.9852124 127.4776885
  73.2560012  50.7054997 135.9239988  73.3960012  50.1144997 135.1849988
  73.4230012  51.5784997 135.5679988  73.2977411  50.7425428 135.7746894
  67.7290012  47.6674997 125.6969988  67.0170012  48.2024997 125.3449988
  68.4200012  47.7234997 125.0369988  67.7250132  47.7482543 125.5596289
  67.7820012  46.1254997 122.7359988  68.4830012  46.1474997 123.3869988
  68.0850012  45.4974997 122.0789988  67.9188133  46.0437070 122.7363369
  75.0980012  47.0454997 133.9899988  74.4450012  47.7404997 134.0799988
  75.5630012  47.2554997 133.1809988  75.0715274  47.1690643 133.8928462
  71.1340012  47.8774997 126.6489988  70.4020012  48.1054997 127.2219988
  71.5820012  47.1634997 127.1029988  71.0942725  47.8122145 126.7888816
  71.0320012  46.0514997 135.7159988  71.1120012  46.8144997 136.2879988
  70.4300012  46.3304997 135.0259988  70.9615756  46.1937134 135.7010589
  62.7800012  48.5074997 128.5309988  62.4490012  48.1374997 127.7129988
  63.3680012  47.8374997 128.8779988  62.8141873  48.3661156 128.4658102
  64.1460012  51.9354997 131.2119988  64.0520012  51.3574997 130.4559988
  64.8760012  51.5644997 131.7089988  64.2317387  51.8061663 131.1755342
  63.1460012  47.2764997 132.1649988  63.7120012  47.3974997 131.4019988
  63.4650012  47.9134997 132.8029988  63.2665474  47.3792219 132.1469862
  69.4550012  52.7794997 132.8989988  69.2150012  53.4414997 133.5469988
  69.2570012  51.9454997 133.3239988  69.3953808  52.7573134 133.0451524
  64.0260012  51.6754997 136.8819988  63.7150012  52.4574997 137.3369988
  63.3760012  51.5224997 136.1959988  63.8955558  51.7619105 136.8515871
  70.0050012  47.0394997 124.3339988  70.5850012  47.1894997 125.0809988
  70.4190012  47.5104997 123.6099988  70.1402997  47.1236578 124.3384058
  60.9460012  47.8734997 136.1099988  61.0170012  48.5244997 136.8089988
  60.0560012  47.9764997 135.7749988  60.8353005  47.9765427 136.1603495
  67.7320012  53.7764997 127.7689988  68.2060012  54.0714997 128.5459988
  67.1690012  54.5144997 127.5359988  67.7208184  53.9167247 127.8439628
  62.2660012  53.7474997 137.6449988  62.2730012  53.6114997 136.6979988
  61.3500012  53.6294997 137.8969988  62.1431714  53.7129430 137.5494666
  73.7040012  38.7894997 124.1469988  72.8040012  38.9284997 124.4419988
  73.9560012  39.6204997 123.7449988  73.6148702  38.9209074 124.1330205
  61.7700012  47.5774997 126.1199988  61.4780012  48.3454997 125.6299988
  61.0960012  46.9174997 125.9579988  61.6388111  47.5935587 126.0308978
  74.8930012  53.1554997 122.5229988  74.9670012  54.0944997 122.6939988
  75.7990012  52.8504997 122.4669988  75.0255100  53.2426722 122.5388119
  57.8630012  49.9404997 134.9349988  57.3620012  49.9124997 134.1199988
  57.8680012  49.0344997 135.2449988  57.7950944  49.8142396 134.8653226
  57.6130012  52.7204997 131.8189988  58.5590012  52.5764997 131.7999988
  57.5010012  53.5044997 132.3559988  57.7272727  52.8068046 131.8890072
  75.8110012  53.3864997 137.5019988  75.7620012  52.4314997 137.4649988
  74.9840012  53.6544997 137.9029988  75.6924940  53.2918998 137.5511375
  66.7900012  52.9604997 136.3779988  66.8770012  53.7864997 136.8529988
  65.9260012  52.6304997 136.6269988  66.6851964  53.0289878 136.4766549
  67.2040012  56.7324997 126.1839988  67.1290012  56.6114997 125.2369988
  67.2370012  57.6824997 126.3019988  67.1982068  56.8442646 126.0704967
  60.8570012  55.5214997 127.9649988  61.0100012  55.1734997 128.8429988
  60.0070012  55.1654997 127.7099988  60.7629166  55.4256216 128.0508079
  70.3060012  55.8864997 123.1859988  70.6810012  55.1424997 122.7149988
  70.3100012  55.6164997 124.1049988  70.3579125  55.7480986 123.2456483
  69.9750012  55.8124997 125.9349988  69.0390012  55.9124997 126.1139988
  70.2550012  55.1034997 126.5139988  69.8849553  55.7303406 126.0377087
  72.9630012  44.8794997 137.9819988  72.5560012  45.3604997 137.2609988
  73.0040012  43.9744997 137.6739988  72.9128437  44.8229374 137.8416683
  60.1120012  51.2634997 135.9789988  60.3280012  50.9024997 136.8379988
  59.2570012  50.8894997 135.7689988  60.0259292  51.1634111 136.0683386
  62.7310012  39.7334997 131.9739988  61.8690012  39.6464997 131.5659988
  62.7080012  40.5894997 132.4019988  62.6100409  39.8372883 131.9760589
  67.3940012  39.4554997 135.3489988  67.8140012  39.0404997 136.1019988
  66.4610012  39.2774997 135.4659988  67.3253644  39.3745900 135.4679539
  70.7200012  43.2114997 136.2019988  70.2060012  43.0854997 136.9999988
  70.5650012  44.1234997 135.9579988  70.6286852  43.3176132 136.2782158
  71.4830012  48.0724997 121.9639988  71.5250012  47.8494997 121.0339988
  72.3320012  48.4714997 122.1529988  71.6035280  48.0959438 121.8623554
  67.0550012  41.9484997 122.6339988  66.8020012  41.9674997 123.5569988
  66.7990012  41.0764997 122.3319988  66.9857481  41.8332558 122.7196175
  62.8220012  44.6994997 133.0689988  62.1800012  44.6584997 133.7779988
  62.8590012  45.6254997 132.8309988  62.7390664  44.8191430 133.1339219
  62.8190012  44.9204997 127.9809988  61.9260012  44.5794997 127.9219988
  63.2690012  44.5434997 127.2249988  62.7578130  44.8229631 127.8707702
  68.3540012  45.3364997 126.7979988  67.9450012  46.1514997 126.5069988
  69.0750012  45.1964997 126.1839988  68.3954537  45.4292018 126.6751342
  67.4560012  45.5114997 138.2859988  66.8940012  44.8074997 138.6069988
  68.2830012  45.3914997 138.7539988  67.4907095  45.3987883 138.3932330
  69.3590012  44.7824997 129.6119988  69.1640012  45.3874997 128.8969988
  69.5400012  43.9484997 129.1779988  69.3567614  44.7526300 129.4554405
  60.5720012  45.0194997 134.9359988  60.5340012  45.4194997 135.8049988
  60.0810012  44.2024997 135.0269988  60.5004684  44.9638069 135.0671059
  63.9380012  42.3934997 121.7349988  63.5070012  41.9484997 122.4649988
  63.2200012  42.7654997 121.2229988  63.7819438  42.3828940 121.7656799
  57.1800012  42.1354997 128.7869988  57.8110012  42.1064997 129.5059988
  57.6290012  41.7104997 128.0559988  57.3270918  42.0740836 128.7866441
  58.4540012  42.8814997 124.2109988  58.9280012  43.4724997 123.6259988
  57.7370012  43.4124997 124.5579988  58.4219341  43.0340867 124.1778836
  68.6230012  46.4204997 134.2829988  68.9460012  45.7894997 133.6399988
  68.1830012  45.8854997 134.9439988  68.6077484  46.2618387 134.2843198
  65.4000012  42.3474997 129.0669988  64.4890012  42.4044997 129.3559988
  65.9060012  42.2874997 129.8779988  65.3436899  42.3471941 129.2161184
  60.2290012  43.9764997 127.8939988  59.3390012  44.0764997 127.5539988
  60.5250012  43.1344997 127.5479988  60.1472823  43.8763545 127.8007213
  63.8820012  43.9764997 125.5509988  64.8130012  44.1054997 125.7289988
  63.6670012  44.6464997 124.9009988  63.9804247  44.0846565 125.4875747
  69.8050012  41.5824997 132.3319988  69.1290012  41.7134997 132.9959988
  69.3200012  41.4274997 131.5209988  69.6467146  41.5795157 132.3134469
  62.5560012  45.1714997 123.1169988  62.0130012  44.7914997 122.4259988
  63.3890012  45.3654997 122.6889988  62.5943631  45.1457125 122.9644501
  73.0930012  57.2544997 138.6079988  73.2930012  57.6784997 137.7739988
  73.7480012  57.5974997 139.2149988  73.2090072  57.3589857 138.5758592
  60.6910012  49.7284997 138.2159988  61.4230012  49.9824997 138.7779988
  59.9110012  49.9324997 138.7319988  60.6857073  49.7908160 138.3626151
  66.7200012  45.1354997 130.9539988  67.2850012  44.5884997 130.4069988
  66.5730012  44.6134997 131.7429988  66.7773380  44.9902259 130.9858695
  61.7220012  41.2714997 127.3729988  61.4050012  40.3694997 127.3369988
  62.5040012  41.2734997 126.8199988  61.7842408  41.1482474 127.2933569
  65.3470012  43.5234997 133.3679988  64.5110012  43.9774997 133.4789988
  65.8710012  43.7994997 134.1199988  65.3035416  43.6228660 133.4848119
  65.8910012  49.7364997 125.0529988  65.1460012  49.2294997 124.7309988
  65.7570012  49.7854997 125.9999988  65.7708776  49.6736940 125.1368647
  73.0410012  48.8694997 133.8399988  73.6830012  49.3264997 133.2959988
  72.2110012  48.9824997 133.3769988  73.0165963  48.9472704 133.7030177
  69.7890012  42.5504997 123.2519988  68.8500012  42.6624997 123.1009988
  70.0860012  43.4074997 123.5589988  69.7007583  42.6815981 123.2728337
  67.4100012  49.9204997 136.2899988  67.0650012  49.5394997 137.0969988
  67.2100012  50.8544997 136.3609988  67.3357527  49.9945135 136.4100689
  70.5070012  44.4174997 124.9129988  71.3990012  44.2804997 125.2319988
  70.5640012  45.2084997 124.3759988  70.6366504  44.5056052 124.8840818
  61.0160012  49.0314997 130.8229988  61.7610012  49.0294997 130.2219988
  61.0940012  48.2084997 131.3039988  61.1284995  48.9198887 130.8058282
  68.0170012  51.1954997 124.0789988  67.7210012  52.0214997 124.4599988
  67.3140012  50.5754997 124.2749988  67.8814914  51.2248199 124.1576443
  58.0240012  47.4924997 136.1379988  58.2470012  47.0744997 136.9699988
  57.4220012  46.8794997 135.7149988  57.9731759  47.3524668 136.1947022
  65.0400012  47.0094997 138.3509988  64.7440012  46.8434997 137.4559988
  65.9720012  46.7894997 138.3399988  65.1254166  46.9570640 138.2270536
  69.6610012  52.3824997 136.2409988  68.7600012  52.5654997 135.9729988
  69.6950012  52.6414997 137.1609988  69.5423139  52.4425849 136.3288099
  75.3920012  44.6274997 124.6079988  74.8380012  44.2314997 123.9359988
  75.4920012  45.5374997 124.3299988  75.3297059  44.6963586 124.4784401
  75.3550012  50.4274997 137.4449988  74.5040012  50.6654997 137.0779988
  75.9460012  50.4104997 136.6919988  75.3182487  50.4578258 137.2928893
  73.6870012  53.4134997 125.0729988  73.3140012  52.5874997 125.3819988
  73.9650012  53.2304997 124.1749988  73.6735222  53.2757430 124.9939473
  70.8480012  48.2214997 132.0939988  69.9190012  47.9894997 132.0669988
  71.2990012  47.4444997 131.7639988  70.7819216  48.0847238 132.0456917
  63.3910012  52.5494997 128.2269988  63.9180012  53.3224997 128.0269988
  62.5110012  52.7744997 127.9249988  63.3442031  52.6857545 128.1587912
  59.1460012  47.4114997 122.8139988  59.7620012  48.0384997 123.1939988
  58.2840012  47.7274997 123.0859988  59.1137698  47.5399430 122.9027183
  64.8180012  50.2124997 127.8029988  64.5770012  51.1374997 127.8449988
  64.0770012  49.7534997 128.1999988  64.6849225  50.2770933 127.8623742
  65.3330012  54.3614997 134.1189988  65.6950012  55.2164997 133.8849988
  65.8640012  54.0694997 134.8589988  65.4544473  54.4391060 134.1870855
  63.5010012  55.2344997 127.3489988  62.5510012  55.3394997 127.3999988
  63.8530012  56.0544997 127.6929988  63.4184195  55.3598800 127.4025502
  68.8770012  50.4604997 133.8189988  68.4510012  50.2334997 134.6459988
  69.4570012  49.7224997 133.6369988  68.8971868  50.3295299 133.9075830
  71.0800012  51.3894997 122.8929988  71.4330012  51.0094997 123.6969988
  70.1310012  51.2964997 122.9799988  71.0000918  51.3248956 123.0148532
  71.5350012  55.0124997 136.2889988  70.9340012  54.4574997 135.7929988
  71.8170012  55.6794997 135.6619988  71.4908804  55.0266625 136.1364849
  75.5830012  55.8694997 123.0939988  76.3270012  56.4554997 122.9539988
  74.8890012  56.4374997 123.4269988  75.5909899  56.0265798 123.1198778
  59.6580012  42.2454997 135.6959988  58.7650012  42.5844997 135.6279988
  59.5590012  41.3904997 136.1139988  59.5224164  42.1762588 135.7432235
  71.9460012  50.0624997 125.1199988  71.6680012  49.3344997 125.6759988
  72.8730012  50.1814997 125.3249988  72.0333124  49.9788802 125.2238845
  59.3090012  54.0504997 134.1309988  59.5260012  53.1184997 134.0999988
  59.5550012  54.3244997 135.0139988  59.3719549  53.9600636 134.2461763
  65.1710012  52.5014997 121.3399988  65.4100012  51.7534997 120.7929988
  64.9020012  52.1134997 122.1729988  65.1673675  52.3466638 121.3776865
  64.1080012  52.0714997 123.7959988  64.2540012  51.5514997 124.5859988
  64.1050012  52.9784997 124.1029988  64.1275792  52.1228842 123.9456117
  60.5610012  49.3244997 124.3069988  59.8750012  49.6764997 124.8739988
  61.0830012  50.0874997 124.0599988  60.5376852  49.4758578 124.3512118
  68.3920012  41.9864997 134.5859988  69.0910012  42.0604997 135.2359988
  68.0110012  41.1224997 134.7399988  68.4361767  41.8797624 134.6958322
  69.1770012  41.6384997 125.6829988  69.3970012  42.1104997 124.8799988
  69.7350012  42.0334997 126.3529988  69.2824968  41.7564285 125.6637331
  66.8450012  53.7694997 124.5459988  66.0290012  54.2664997 124.5979988
  67.3750012  54.2444997 123.9059988  66.8049161  53.9017722 124.4665956
  66.3770012  43.3664997 126.5179988  67.1890012  43.8714997 126.5639988
  66.1320012  43.2214997 127.4319988  66.4550520  43.4160375 126.6478517
  66.9120012  44.3524997 135.7019988  67.0310012  44.9264997 136.4599988
  67.5680012  43.6644997 135.8169988  67.0169025  44.3379858 135.8211321
  67.2600012  40.4474997 127.4559988  66.9140012  41.0654997 128.0999988
  67.9190012  40.9484997 126.9739988  67.3016968  40.5996278 127.4789383
  64.1840012  54.8134997 124.5269988  64.3440012  55.6124997 124.0269988
  63.9860012  55.1194997 125.4119988  64.1791637  54.9644020 124.5781144
  62.9180012  41.5104997 124.1429988  62.8350012  42.3994997 124.4899988
  63.8080012  41.2454997 124.3749988  63.0269469  41.5961430 124.2217626
  73.1170012  42.2594997 136.5369988  72.2000012  42.5224997 136.4499988
  73.4520012  42.2564997 135.6409988  73.0368613  42.2950761 136.4038837
  71.7190012  46.0104997 130.6329988  70.9210012  45.5954997 130.3049988
  72.1640012  45.3194997 131.1239988  71.6699885  45.8603543 130.6544889
  61.1770012  51.9384997 123.2039988  61.7690012  52.6374997 123.4799988
  61.6360012  51.5054997 122.4839988  61.3201142  51.9757049 123.1444830
  59.4930012  44.6024997 122.3199988  59.4480012  45.5414997 122.4979988
  58.6050012  44.3664997 122.0499988  59.3668574  44.6991892 122.3078912
  72.8050012  55.2664997 132.2559988  72.6500012  55.9444997 131.5979988
  73.7380012  55.3384997 132.4589988  72.9098657  55.3689546 132.1934360
  60.3010012  39.3844997 130.9929988  60.0720012  39.4434997 130.0649988
  59.8580012  38.5924997 131.2989988  60.2098530  39.2855753 130.9074786
  59.2310012  53.3244997 127.1529988  58.3990012  53.7974997 127.1799988
  59.7770012  53.8344997 126.5549988  59.1910352  53.4581332 127.0758463
  58.5190012  55.9374997 138.4829988  59.0600012  55.7204997 139.2429988
  58.0380012  55.1314997 138.2929988  58.5279951  55.7989270 138.5612576
  63.1170012  54.8564997 140.1029988  63.8840012  54.3974997 140.4439988
  63.0950012  54.6304997 139.1739988  63.2191275  54.7630186 140.0240101
  67.2090012  54.3644997 121.4789988  66.5650012  53.7334997 121.7999988
  67.9710012  53.8334997 121.2469988  67.2238077  54.2062920 121.4916011
  69.6940012  53.2364997 138.8329988  69.3430012  52.3804997 139.0759988
  70.4200012  53.3794997 139.4399988  69.7440769  53.1385636 138.9483619
  71.8130012  54.1814997 121.7119988  72.0960012  53.3874997 122.1649988
  72.5530012  54.4144997 121.1519988  71.9518006  54.1043376 121.6982715
  58.4260012  49.7474997 139.4369988  58.5700012  48.8454997 139.1509988
  57.6540012  50.0334997 138.9499988  58.3412753  49.6626816 139.3319505
  62.7680012  50.0914997 121.5699988  62.8320012  49.2974997 122.1009988
  63.4210012  49.9724997 120.8799988  62.8650241  49.9667148 121.5494317
  65.0820012  49.7174997 138.8699988  64.7530012  49.9884997 138.0129988
  65.2340012  48.7764997 138.7829988  65.0574809  49.6273862 138.7408244
  68.1200012  51.1384997 121.3059988  67.8510012  51.3184997 122.2069988
  67.9140012  50.2124997 121.1739988  68.0553427  51.0380261 121.4115073
  70.8160012  49.6334997 136.2529988  71.5620012  50.2214997 136.1339988
  70.0590012  50.2154997 136.3169988  70.8157820  49.7927143 136.2453590
  59.2590012  46.9474997 138.8569988  59.6670012  46.0904997 138.7359988
  58.9990012  46.9624997 139.7779988  59.2797568  46.8320807 138.9649588
  63.9170012  48.0634997 123.8759988  63.4570012  47.5794997 124.5619988
  64.1720012  47.3954997 123.2399988  63.8884902  47.9068731 123.8839334
  63.2060012  45.9564997 136.2319988  62.5880012  46.6314997 136.5119988
  63.5500012  46.2774997 135.3979988  63.1679132  46.0922411 136.1576262
  64.9880012  46.3064997 122.1379988  64.8080012  46.1524997 121.2109988
  65.9380012  46.4144997 122.1829988  65.0917776  46.3000175 122.0171843
  68.2260012  48.4284997 139.5089988  69.1790012  48.5114997 139.4819988
  68.0650012  47.7164997 140.1289988  68.3346426  48.3436746 139.5890579
  74.3780012  48.6614997 121.5839988  74.1040012  48.2364997 120.7709988
  74.4170012  49.5924997 121.3669988  74.3457699  48.7292484 121.4433610
  63.5450012  43.3114997 137.3139988  63.6950012  42.5824997 136.7119988
  63.5480012  44.0884997 136.7549988  63.5659302  43.3167851 137.1560692
  63.9580012  41.6814997 134.8069988  64.4940012  42.1324997 134.1549988
  63.1060012  41.5734997 134.3839988  63.9162178  41.7286390 134.6605756
  65.5400012  47.1204997 135.0459988  66.2900012  46.9644997 134.4729988
  65.2010012  47.9724997 134.7709988  65.5968921  47.2142968 134.9303561
  69.9550012  44.9354997 140.0749988  70.1480012  44.0044997 139.9629988
  70.8130012  45.3604997 140.0639988  70.0972934  44.8656531 140.0582031
  71.2720012  47.7244997 138.1519988  70.9910012  48.4334997 137.5739988
  72.2150012  47.6514997 138.0009988  71.3609291  47.8116711 138.0524967
  62.0240012  44.5094997 139.2259988  61.2570012  43.9774997 139.0149988
  62.7030012  44.1994997 138.6259988  62.0107877  44.3948300 139.1160716
  64.7640012  39.1374997 135.2379988  64.6650012  40.0844997 135.1329988
  64.0210012  38.7654997 134.7619988  64.6501184  39.2165863 135.1593621
  66.0280012  43.4594997 138.8019988  65.7920012  43.2394997 139.7029988
  65.2440012  43.2524997 138.2919988  65.8898504  43.4014586 138.8563431
  68.7430012  42.5864997 137.8769988  67.7960012  42.6184997 138.0099988
  69.0560012  41.9614997 138.5309988  68.6556707  42.5063998 137.9836060
  70.3770012  41.2204997 139.8829988  70.2810012  40.2684997 139.8769988
  70.0560012  41.4894997 140.7429988  70.3204070  41.1264035 139.9985441
  60.2040012  42.4304997 138.9299988  60.4160012  41.7234997 138.3199988
  60.0930012  41.9924997 139.7739988  60.2179721  42.2747084 138.9606843
  64.9850012  38.4314997 137.9089988  65.6970012  37.7914997 137.8949988
  64.8840012  38.6984997 136.9959988  65.0688066  38.3800079 137.7835677
  65.3390012  40.1144997 139.9629988  65.2070012  39.6384997 139.1429988
  64.7400012  40.8584997 139.9079988  65.2399071  40.1499618 139.8432886
  64.8850012  56.9974997 123.1389988  65.8180012  57.1554997 123.2829988
  64.6210012  57.6724997 122.5149988  64.9769888  57.1104510 123.0742842
  58.4540012  51.6334997 122.6219988  59.3680012  51.7124997 122.8959988
  58.4610012  50.9464997 121.9559988  58.5801131  51.5513961 122.5694393
  57.1030012  57.0264997 127.6999988  56.4560012  56.5644997 127.1669988
  57.4570012  56.3544997 128.2819988  57.0623849  56.8724723 127.7057959
  57.9730012  55.1074997 129.5039988  57.6380012  54.2274997 129.6759988
  58.1950012  55.4524997 130.3689988  57.9571783  55.0337500 129.6444208
  75.5210012  55.9164997 132.4849988  75.5000012  56.1014997 133.4239988
  76.2120012  56.4854997 132.1439988  75.6114618  56.0186606 132.5673864
  75.0850012  55.4844997 135.4069988  74.5970012  54.7484997 135.0349988
  75.6340012  55.0904997 136.0849988  75.0924820  55.3305889 135.4477813
  73.5350012  51.2734997 140.0449988  72.6690012  51.1684997 140.4389988
  73.9120012  52.0324997 140.4909988  73.4673308  51.3616900 140.1592393
  74.8360012  49.5304997 125.5589988  75.6860012  49.9514997 125.6859988
  74.8420012  48.7904997 126.1659988  74.9531372  49.4880803 125.6584344
  75.2310012  47.5834997 127.3819988  74.5040012  47.1044997 127.7799988
  75.8120012  47.7894997 128.1149988  75.2100473  47.5458103 127.5354528
  74.9900012  50.3684997 132.3299988  75.8230012  49.9904997 132.0499988
  75.1020012  51.3114997 132.2109988  75.1192647  50.4442218 132.2755487
  73.4760012  53.2464997 134.6369988  72.8290012  53.5714997 135.2629988
  72.9590012  52.8064997 133.9629988  73.3174029  53.2315004 134.6315827
  75.4990012  47.4844997 123.7739988  74.9770012  47.8414997 123.0549988
  75.4660012  48.1594997 124.4519988  75.4231634  47.6245413 123.7673145
  73.8480012  44.7244997 122.3239988  73.9440012  45.3914997 121.6439988
  73.7080012  43.9084997 121.8429988  73.8422272  44.7055655 122.1658347
  73.0170012  46.1044997 127.9449988  72.8670012  45.1594997 127.9249988
  72.6640012  46.3854997 128.7889988  72.9487448  46.0131481 128.0563705
  58.0530012  48.1824997 131.9559988  58.2370012  48.1004997 131.0199988
  58.9020012  48.0584997 132.3789988  58.1930151  48.1545073 131.8851451
  73.8740012  48.0744997 137.5839988  74.4570012  47.3404997 137.7759988
  74.4380012  48.8464997 137.6309988  74.0299769  48.0784227 137.6166159
  75.3700012  45.9774997 138.2689988  74.5070012  45.5984997 138.1029988
  75.9750012  45.2384997 138.1939988  75.3336119  45.8258268 138.2361528
  73.0950012  42.1324997 121.4419988  73.7060012  41.7614997 122.0789988
  72.2590012  41.7114997 121.6379988  73.0655032  42.0247554 121.5557035
  72.7280012  43.6874997 126.4079988  73.0080012  42.7804997 126.5319988
  73.4870012  44.1214997 126.0189988  72.8689277  43.6220942 126.3723682
  73.3400012  44.2684997 131.8439988  74.2730012  44.4804997 131.8089988
  73.1050012  44.3704997 132.7659988  73.4359244  44.3113100 131.9638892
  73.3690012  45.0054997 134.6199988  72.5260012  45.2734997 134.9859988
  73.8110012  45.8274997 134.4089988  73.3134158  45.1533291 134.6415491
  57.6500012  43.4534997 138.0969988  58.5700012  43.3314997 138.3329988
  57.2010012  42.7034997 138.4859988  57.7151580  43.3353727 138.1819006
  75.6520012  38.9854997 139.9729988  76.0020012  38.3314997 139.3679988
  75.7990012  39.8224997 139.5329988  75.7197887  39.0091548 139.8306858
  73.3410012  40.9504997 126.4559988  73.5240012  40.5014997 127.2819988
  72.7420012  40.3654997 125.9929988  73.2850202  40.8099975 126.5063275
  58.8710012  41.7654997 130.9879988  59.3170012  40.9734997 131.2899988
  59.3380012  42.4814997 131.4179988  58.9950831  41.7540685 131.0874006
  57.1750012  44.7644997 132.0569988  57.6670012  44.5434997 131.2659988
  57.5380012  45.6054997 132.3379988  57.2913126  44.8478357 131.9867531
  75.1720012  41.0944997 138.3219988  74.2540012  41.3654997 138.2869988
  75.2950012  40.5594997 137.5379988  75.0629729  41.0592508 138.2111923
  75.2080012  41.0174997 122.9839988  75.6200012  40.2964997 122.5089988
  75.8900012  41.6874997 123.0429988  75.3565885  41.0092368 122.9268915
  57.4890012  41.0224997 126.1109988  56.5640012  41.2314997 125.9819988
  57.9430012  41.5064997 125.4209988  57.4237292  41.1165343 126.0000720
  72.2600012  56.0064997 128.0569988  72.9120012  55.6594997 127.4489988
  72.7700012  56.4954997 128.7029988  72.4182637  56.0250597 128.0610236
  57.4530012  39.7604997 134.4549988  56.7880012  39.5144997 135.0989988
  57.0100012  40.3824997 133.8779988  57.3021318  39.8109410 134.4650898
  59.6450012  52.9354997 138.5999988  58.8240012  53.1104997 138.1389988
  59.3920012  52.8624997 139.5199988  59.4985585  52.9495544 138.6613561
  62.5990012  53.9104997 134.8579988  62.1740012  54.7194997 134.5759988
  63.5030012  53.9954997 134.5559988  62.6629975  54.0329300 134.7784816
  66.9100012  55.3094997 137.8179988  67.0950012  54.9754997 138.6959988
  67.7560012  55.6184997 137.4959988  67.0497539  55.3056047 137.8945605
  69.2550012  56.5954997 137.0619988  69.9320012  55.9624997 136.8219988
  69.5770012  56.9964997 137.8689988  69.3911637  56.5631154 137.1382793
  74.1720012  39.1844997 136.1409988  73.3600012  39.5094997 135.7539988
  74.4050012  38.4244997 135.6079988  74.0922203  39.1262758 136.0158880
  60.0010012  57.1664997 134.9059988  59.2800012  57.6064997 134.4549988
  59.6350012  56.9154997 135.7539988  59.8529651  57.1927242 134.9589640
  62.4680012  56.7664997 133.9359988  61.6030012  56.8384997 134.3399988
  62.4130012  57.3134997 133.1519988  62.3422085  56.8502685 133.8853362
  67.1780012  56.6544997 133.1109988  66.7220012  57.1834997 132.4569988
  67.3410012  57.2574997 133.8359988  67.1376068  56.8084607 133.1194838
  69.5060012  55.5324997 134.0559988  68.6010012  55.6974997 133.7899988
  69.9350012  56.3854997 133.9909988  69.4401324  55.6704339 134.0107976
  72.1100012  57.1024997 134.3509988  71.9280012  58.0184997 134.1409988
  72.2870012  56.6924997 133.5049988  72.1090210  57.1724822 134.2077885
  59.4150012  55.7894997 131.8159988  59.3970012  55.3644997 132.6729988
  60.2200012  55.4714997 131.4069988  59.5213529  55.6883013 131.8780946
  61.5570012  54.4994997 130.4709988  61.3380012  53.5834997 130.6409988
  62.3810012  54.6394997 130.9369988  61.6384420  54.3930520 130.5572774
  64.0940012  54.9694997 131.3199988  64.3070012  54.0814997 131.0329988
  64.1580012  54.9354997 132.2739988  64.1318232  54.8433102 131.4097397
  67.6020012  40.6334997 130.4639988  66.9280012  40.0044997 130.7199988
  68.1660012  40.1494997 129.8609988  67.5859230  40.4818744 130.4175340
  72.7450012  38.7414997 130.5769988  73.3490012  39.2884997 130.0749988
  71.8750012  39.0604997 130.3359988  72.7101208  38.8595137 130.4756886
  74.4720012  39.8794997 128.9099988  75.0840012  39.3654997 128.3829988
  74.8540012  40.7574997 128.9329988  74.6073371  39.9277866 128.8410041
  59.9290012  39.2674997 128.2859988  59.1520012  39.0334997 127.7789988
  60.4590012  38.4704997 128.2949988  59.8942330  39.1276988 128.2177742
  58.7650012  39.0654997 124.0899988  59.2040012  39.6764997 123.4979988
  58.1320012  39.6034997 124.5639988  58.7394514  39.2219257 124.0730930
  64.5080012  39.1944997 128.0999988  65.3830012  39.5824997 128.0699988
  64.3720012  38.9794997 129.0219988  64.6093695  39.2185184 128.2206440
  70.0650012  39.2244997 129.7489988  70.1410012  39.3194997 128.7989988
  69.7900012  38.3164997 129.8779988  70.0382321  39.1147867 129.6365079
  71.4180012  39.2504997 125.4409988  70.7160012  39.8654997 125.2309988
  70.9740012  38.4124997 125.5719988  71.2616450  39.2215639 125.4299000
  58.6660012  55.0134997 124.9869988  57.9810012  54.9754997 124.3199988
  58.6700012  55.9264997 125.2759988  58.5726998  55.1316733 124.9346771
  60.6260012  40.9814997 122.5319988  61.1180012  40.3514997 122.0049988
  61.2500012  41.2774997 123.1949988  60.7775688  40.9353804 122.5495482
  65.6520012  41.2744997 124.9889988  65.8300012  40.6284997 125.6719988
  65.5990012  42.1084997 125.4559988  65.6691999  41.2988009 125.1455917
  67.5310012  56.2234997 123.3849988  68.3970012  56.5894997 123.2069988
  67.2840012  55.7834997 122.5709988  67.6162392  56.2141756 123.2506289
  74.2400012  55.7864997 126.0639988  74.0450012  55.0384997 125.4989988
  74.2010012  56.5444997 125.4809988  74.2080380  55.7866099 125.9078384
  59.8870012  39.7814997 137.8039988  59.5210012  39.0164997 138.2459988
  60.8000012  39.8104997 138.0899988  59.9602736  39.6805640 137.9032502
  61.8600012  39.1324997 139.3399988  62.7580012  38.8584997 139.1549988
  61.4730012  38.3894997 139.8039988  61.9306612  38.9945914 139.3773643
  60.4840012  55.9334997 122.0129988  60.2170012  56.2204997 122.8859988
  61.2560012  55.3874997 122.1649988  60.5517488  55.8990294 122.1531050
  70.2810012  38.4644997 139.5219988  70.3580012  38.0384997 140.3759988
  71.1750012  38.4784997 139.1789988  70.4123428  38.4080879 139.5925310
  73.4570012  54.5374997 138.2139988  72.6750012  54.3514997 137.6939988
  73.3850012  55.4664997 138.4319988  73.3402274  54.6376643 138.1723018
  87.8630012  48.4234997 128.2449988  87.9520012  49.3674997 128.1129988
  87.2250012  48.1484997 127.5869988  87.7889081  48.5154830 128.1379614
  86.7960012  47.6784997 131.6639988  86.7580012  47.0324997 132.3689988
  86.4740012  47.2124997 130.8929988  86.7472333  47.5269408 131.6562978
  79.1650012  47.2934997 133.2569988  79.2060012  46.6674997 133.9799988
  79.8680012  47.9174997 133.4389988  79.2656363  47.2921196 133.3806044
  90.5020012  50.6174997 129.9649988  90.0620012  49.8974997 130.4159988
  90.4890012  51.3384997 130.5949988  90.4400226  50.6163731 130.1118494
  80.0880012  51.7434997 131.7919988  79.7190012  50.9414997 131.4219988
  81.0290012  51.5744997 131.8379988  80.1647289  51.6110153 131.7476316
  76.6980012  45.4034997 127.1849988  76.2510012  46.2494997 127.1659988
  76.1370012  44.8234997 126.6689988  76.5609900  45.4409916 127.1126801
  77.4090012  47.5654997 129.3099988  77.6220012  46.7954997 129.8379988
  78.1470012  47.6544997 128.7069988  77.5379044  47.4721968 129.3007123
  87.6140012  55.7224997 130.1769988  88.2340012  55.0454997 129.9039988
  87.4060012  55.5044997 131.0859988  87.6706726  55.6004800 130.2624812
  85.1860012  50.1114997 132.0699988  85.4900012  49.4254997 131.4749988
  85.9070012  50.2294997 132.6879988  85.3250671  50.0336304 132.0721816
  93.8490012  41.7124997 132.9309988  93.8980012  42.3224997 133.6659988
  94.2740012  42.1734997 132.2079988  93.9131746  41.8583796 132.9339175
  88.3270012  44.5054997 132.3969988  88.4690012  43.5594997 132.4179988
  88.2200012  44.7124997 131.4689988  88.3319919  44.4038246 132.2743408
  81.4810012  42.6064997 129.6699988  81.5250012  43.4664997 129.2509988
  81.0240012  42.0544997 129.0359988  81.4252240  42.6494422 129.5269864
  89.2040012  42.7374997 128.0709988  89.8500012  42.4084997 128.6949988
  89.7140012  43.2554997 127.4479988  89.3614299  42.7624450 128.0722731
  78.1020012  45.0034997 130.4319988  78.7550012  44.4534997 130.8639988
  78.1260012  44.7294997 129.5149988  78.1946683  44.8911466 130.3672123
  83.2580012  46.5534997 129.6469988  83.8740012  46.0274997 130.1569988
  82.6720012  45.9134997 129.2439988  83.2630810  46.3949208 129.6623173
  94.2400012  43.1904997 135.1659988  93.5520012  43.8484997 135.0709988
  94.2560012  42.9934997 136.1029988  94.1479540  43.2539819 135.2795990
  80.2920012  41.5244997 133.7439988  80.0730012  42.0544997 132.9779988
  79.6240012  41.7514997 134.3909988  80.1717600  41.6276906 133.7266379
  87.6610012  51.0244997 127.2879988  87.3650012  50.7024997 126.4369988
  87.3360012  51.9244997 127.3289988  87.5766371  51.1020215 127.1771801
  82.8610012  49.2004997 134.0309988  82.1210012  49.7984997 134.1349988
  83.5750012  49.7544997 133.7159988  82.8562237  49.3572831 134.0026465
  90.9680012  42.0284997 130.0509988  90.7520012  41.2624997 130.5839988
  91.6230012  42.5004997 130.5639988  91.0270632  41.9875889 130.1932861
  79.8850012  43.4164997 131.6959988  80.4990012  44.0494997 132.0689988
  80.3970012  42.9444997 131.0399988  80.0381981  43.4392267 131.6582908
  81.2680012  51.1644997 134.8179988  81.2630012  52.0444997 134.4399988
  80.4150012  51.0814997 135.2429988  81.1519464  51.2736117 134.8237907
  77.3890012  50.8354997 125.5999988  77.1170012  51.0644997 124.7119988
  77.4350012  51.6734997 126.0609988  77.3579482  50.9801318 125.5406273
  91.0140012  52.4574997 132.3129988  90.0730012  52.5154997 132.4749988
  91.2910012  53.3634997 132.1759988  90.9224679  52.5879443 132.3166815
  91.3150012  40.7434997 133.7309988  90.5790012  41.3544997 133.6929988
  91.9980012  41.1584997 133.2039988  91.3066541  40.8831374 133.6545832
  84.3180012  38.8304997 131.1959988  84.2010012  37.8814997 131.1419988
  83.4630012  39.1624997 131.4699988  84.1864212  38.7455571 131.2256497
  89.2660012  54.2384997 128.9379988  89.6920012  53.5314997 128.4529988
  89.5830012  55.0394997 128.5219988  89.3671683  54.2501017 128.8153680
  90.4260012  52.1394997 127.4469988  90.1680012  51.4494997 126.8359988
  90.4970012  51.6964997 128.2929988  90.4002856  51.9852124 127.4776885
  92.1120012  50.7054997 135.9239988  92.2520012  50.1144997 135.1849988
  92.2790012  51.5784997 135.5679988  92.1537411  50.7425428 135.7746894
  86.5850012  47.6674997 125.6969988  85.8730012  48.2024997 125.3449988
  87.2760012  47.7234997 125.0369988  86.5810132  47.7482543 125.5596289
  86.6380012  46.1254997 122.7359988  87.3390012  46.1474997 123.3869988
  86.9410012  45.4974997 122.0789988  86.7748133  46.0437070 122.7363369
  93.9540012  47.0454997 133.9899988  93.3010012  47.7404997 134.0799988
  94.4190012  47.2554997 133.1809988  93.9275274  47.1690643 133.8928462
  89.9900012  47.8774997 126.6489988  89.2580012  48.1054997 127.2219988
  90.4380012  47.1634997 127.1029988  89.9502725  47.8122145 126.7888816
  89.8880012  46.0514997 135.7159988  89.9680012  46.8144997 136.2879988
  89.2860012  46.3304997 135.0259988  89.8175756  46.1937134 135.7010589
  81.6360012  48.5074997 128.5309988  81.3050012  48.1374997 127.7129988
  82.2240012  47.8374997 128.8779988  81.6701873  48.3661156 128.4658102
  83.0020012  51.9354997 131.2119988  82.9080012  51.3574997 130.4559988
  83.7320012  51.5644997 131.7089988  83.0877387  51.8061663 131.1755342
  82.0020012  47.2764997 132.1649988  82.5680012  47.3974997 131.4019988
  82.3210012  47.9134997 132.8029988  82.1225474  47.3792219 132.1469862
  88.3110012  52.7794997 132.8989988  88.0710012  53.4414997 133.5469988
  88.1130012  51.9454997 133.3239988  88.2513808  52.7573134 133.0451524
  82.8820012  51.6754997 136.8819988  82.5710012  52.4574997 137.3369988
  82.2320012  51.5224997 136.1959988  82.7515558  51.7619105 136.8515871
  88.8610012  47.0394997 124.3339988  89.4410012  47.1894997 125.0809988
  89.2750012  47.5104997 123.6099988  88.9962997  47.1236578 124.3384058
  79.8020012  47.8734997 136.1099988  79.8730012  48.5244997 136.8089988
  78.9120012  47.9764997 135.7749988  79.6913005  47.9765427 136.1603495
  86.5880012  53.7764997 127.7689988  87.0620012  54.0714997 128.5459988
  86.0250012  54.5144997 127.5359988  86.5768184  53.9167247 127.8439628
  81.1220012  53.7474997 137.6449988  81.1290012  53.6114997 136.6979988
  80.2060012  53.6294997 137.8969988  80.9991714  53.7129430 137.5494666
  92.5600012  38.7894997 124.1469988  91.6600012  38.9284997 124.4419988
  92.8120012  39.6204997 123.7449988  92.4708702  38.9209074 124.1330205
  80.6260012  47.5774997 126.1199988  80.3340012  48.3454997 125.6299988
  79.9520012  46.9174997 125.9579988  80.4948111  47.5935587 126.0308978
  93.7490012  53.1554997 122.5229988  93.8230012  54.0944997 122.6939988
  94.6550012  52.8504997 122.4669988  93.8815100  53.2426722 122.5388119
  76.7190012  49.9404997 134.9349988  76.2180012  49.9124997 134.1199988
  76.7240012  49.0344997 135.2449988  76.6510944  49.8142396 134.8653226
  76.4690012  52.7204997 131.8189988  77.4150012  52.5764997 131.7999988
  76.3570012  53.5044997 132.3559988  76.5832727  52.8068046 131.8890072
  94.6670012  53.3864997 137.5019988  94.6180012  52.4314997 137.4649988
  93.8400012  53.6544997 137.9029988  94.5484940  53.2918998 137.5511375
  85.6460012  52.9604997 136.3779988  85.7330012  53.7864997 136.8529988
  84.7820012  52.6304997 136.6269988  85.5411964  53.0289878 136.4766549
  86.0600012  56.7324997 126.1839988  85.9850012  56.6114997 125.2369988
  86.0930012  57.6824997 126.3019988  86.0542068  56.8442646 126.0704967
  79.7130012  55.5214997 127.9649988  79.8660012  55.1734997 128.8429988
  78.8630012  55.1654997 127.7099988  79.6189166  55.4256216 128.0508079
  89.1620012  55.8864997 123.1859988  89.5370012  55.1424997 122.7149988
  89.1660012  55.6164997 124.1049988  89.2139125  55.7480986 123.2456483
  88.8310012  55.8124997 125.9349988  87.8950012  55.9124997 126.1139988
  89.1110012  55.1034997 126.5139988  88.7409553  55.7303406 126.0377087
  91.8190012  44.8794997 137.9819988  91.4120012  45.3604997 137.2609988
  91.8600012  43.9744997 137.6739988  91.7688437  44.8229374 137.8416683
  78.9680012  51.2634997 135.9789988  79.1840012  50.9024997 136.8379988
  78.1130012  50.8894997 135.7689988  78.8819292  51.1634111 136.0683386
  81.5870012  39.7334997 131.9739988  80.7250012  39.6464997 131.5659988
  81.5640012  40.5894997 132.4019988  81.4660409  39.8372883 131.9760589
  86.2500012  39.4554997 135.3489988  86.6700012  39.0404997 136.1019988
  85.3170012  39.2774997 135.4659988  86.1813644  39.3745900 135.4679539
  89.5760012  43.2114997 136.2019988  89.0620012  43.0854997 136.9999988
  89.4210012  44.1234997 135.9579988  89.4846852  43.3176132 136.2782158
  90.3390012  48.0724997 121.9639988  90.3810012  47.8494997 121.0339988
  91.1880012  48.4714997 122.1529988  90.4595280  48.0959438 121.8623554
  85.9110012  41.9484997 122.6339988  85.6580012  41.9674997 123.5569988
  85.6550012  41.0764997 122.3319988  85.8417481  41.8332558 122.7196175
  81.6780012  44.6994997 133.0689988  81.0360012  44.6584997 133.7779988
  81.7150012  45.6254997 132.8309988  81.5950664  44.8191430 133.1339219
  81.6750012  44.9204997 127.9809988  80.7820012  44.5794997 127.9219988
  82.1250012  44.5434997 127.2249988  81.6138130  44.8229631 127.8707702
  87.2100012  45.3364997 126.7979988  86.8010012  46.1514997 126.5069988
  87.9310012  45.1964997 126.1839988  87.2514537  45.4292018 126.6751342
  86.3120012  45.5114997 138.2859988  85.7500012  44.8074997 138.6069988
  87.1390012  45.3914997 138.7539988  86.3467095  45.3987883 138.3932330
  88.2150012  44.7824997 129.6119988  88.0200012  45.3874997 128.8969988
  88.3960012  43.9484997 129.1779988  88.2127614  44.7526300 129.4554405
  79.4280012  45.0194997 134.9359988  79.3900012  45.4194997 135.8049988
  78.9370012  44.2024997 135.0269988  79.3564684  44.9638069 135.0671059
  82.7940012  42.3934997 121.7349988  82.3630012  41.9484997 122.4649988
  82.0760012  42.7654997 121.2229988  82.6379438  42.3828940 121.7656799
  76.0360012  42.1354997 128.7869988  76.6670012  42.1064997 129.5059988
  76.4850012  41.7104997 128.0559988  76.1830918  42.0740836 128.7866441
  77.3100012  42.8814997 124.2109988  77.7840012  43.4724997 123.6259988
  76.5930012  43.4124997 124.5579988  77.2779341  43.0340867 124.1778836
  87.4790012  46.4204997 134.2829988  87.8020012  45.7894997 133.6399988
  87.0390012  45.8854997 134.9439988  87.4637484  46.2618387 134.2843198
  84.2560012  42.3474997 129.0669988  83.3450012  42.4044997 129.3559988
  84.7620012  42.2874997 129.8779988  84.1996899  42.3471941 129.2161184
  79.0850012  43.9764997 127.8939988  78.1950012  44.0764997 127.5539988
  79.3810012  43.1344997 127.5479988  79.0032823  43.8763545 127.8007213
  82.7380012  43.9764997 125.5509988  83.6690012  44.1054997 125.7289988
  82.5230012  44.6464997 124.9009988  82.8364247  44.0846565 125.4875747
  88.6610012  41.5824997 132.3319988  87.9850012  41.7134997 132.9959988
  88.1760012  41.4274997 131.5209988  88.5027146  41.5795157 132.3134469
  81.4120012  45.1714997 123.1169988  80.8690012  44.7914997 122.4259988
  82.2450012  45.3654997 122.6889988  81.4503631  45.1457125 122.9644501
  91.9490012  57.2544997 138.6079988  92.1490012  57.6784997 137.7739988
  92.6040012  57.5974997 139.2149988  92.0650072  57.3589857 138.5758592
  79.5470012  49.7284997 138.2159988  80.2790012  49.9824997 138.7779988
  78.7670012  49.9324997 138.7319988  79.5417073  49.7908160 138.3626151
  85.5760012  45.1354997 130.9539988  86.1410012  44.5884997 130.4069988
  85.4290012  44.6134997 131.7429988  85.6333380  44.9902259 130.9858695
  80.5780012  41.2714997 127.3729988  80.2610012  40.3694997 127.3369988
  81.3600012  41.2734997 126.8199988  80.6402408  41.1482474 127.2933569
  84.2030012  43.5234997 133.3679988  83.3670012  43.9774997 133.4789988
  84.7270012  43.7994997 134.1199988  84.1595416  43.6228660 133.4848119
  84.7470012  49.7364997 125.0529988  84.0020012  49.2294997 124.7309988
  84.6130012  49.7854997 125.9999988  84.6268776  49.6736940 125.1368647
  91.8970012  48.8694997 133.8399988  92.5390012  49.3264997 133.2959988
  91.0670012  48.9824997 133.3769988  91.8725963  48.9472704 133.7030177
  88.6450012  42.5504997 123.2519988  87.7060012  42.6624997 123.1009988
  88.9420012  43.4074997 123.5589988  88.5567583  42.6815981 123.2728337
  86.2660012  49.9204997 136.2899988  85.9210012  49.5394997 137.0969988
  86.0660012  50.8544997 136.3609988  86.1917527  49.9945135 136.4100689
  89.3630012  44.4174997 124.9129988  90.2550012  44.2804997 125.2319988
  89.4200012  45.2084997 124.3759988  89.4926504  44.5056052 124.8840818
  79.8720012  49.0314997 130.8229988  80.6170012  49.0294997 130.2219988
  79.9500012  48.2084997 131.3039988  79.9844995  48.9198887 130.8058282
  86.8730012  51.1954997 124.0789988  86.5770012  52.0214997 124.4599988
  86.1700012  50.5754997 124.2749988  86.7374914  51.2248199 124.1576443
  76.8800012  47.4924997 136.1379988  77.1030012  47.0744997 136.9699988
  76.2780012  46.8794997 135.7149988  76.8291759  47.3524668 136.1947022
  83.8960012  47.0094997 138.3509988  83.6000012  46.8434997 137.4559988
  84.8280012  46.7894997 138.3399988  83.9814166  46.9570640 138.2270536
  88.5170012  52.3824997 136.2409988  87.6160012  52.5654997 135.9729988
  88.5510012  52.6414997 137.1609988  88.3983139  52.4425849 136.3288099
  94.2480012  44.6274997 124.6079988  93.6940012  44.2314997 123.9359988
  94.3480012  45.5374997 124.3299988  94.1857059  44.6963586 124.4784401
  94.2110012  50.4274997 137.4449988  93.3600012  50.6654997 137.0779988
  94.8020012  50.4104997 136.6919988  94.1742487  50.4578258 137.2928893
  92.5430012  53.4134997 125.0729988  92.1700012  52.5874997 125.3819988
  92.8210012  53.2304997 124.1749988  92.5295222  53.2757430 124.9939473
  89.7040012  48.2214997 132.0939988  88.7750012  47.9894997 132.0669988
  90.1550012  47.4444997 131.7639988  89.6379216  48.0847238 132.0456917
  82.2470012  52.5494997 128.2269988  82.7740012  53.3224997 128.0269988
  81.3670012  52.7744997 127.9249988  82.2002031  52.6857545 128.1587912
  78.0020012  47.4114997 122.8139988  78.6180012  48.0384997 123.1939988
  77.1400012  47.7274997 123.0859988  77.9697698  47.5399430 122.9027183
  83.6740012  50.2124997 127.8029988  83.4330012  51.1374997 127.8449988
  82.9330012  49.7534997 128.1999988  83.5409225  50.2770933 127.8623742
  84.1890012  54.3614997 134.1189988  84.5510012  55.2164997 133.8849988
  84.7200012  54.0694997 134.8589988  84.3104473  54.4391060 134.1870855
  82.3570012  55.2344997 127.3489988  81.4070012  55.3394997 127.3999988
  82.7090012  56.0544997 127.6929988  82.2744195  55.3598800 127.4025502
  87.7330012  50.4604997 133.8189988  87.3070012  50.2334997 134.6459988
  88.3130012  49.7224997 133.6369988  87.7531868  50.3295299 133.9075830
  89.9360012  51.3894997 122.8929988  90.2890012  51.0094997 123.6969988
  88.9870012  51.2964997 122.9799988  89.8560918  51.3248956 123.0148532
  90.3910012  55.0124997 136.2889988  89.7900012  54.4574997 135.7929988
  90.6730012  55.6794997 135.6619988  90.3468804  55.0266625 136.1364849
  94.4390012  55.8694997 123.0939988  95.1830012  56.4554997 122.9539988
  93.7450012  56.4374997 123.4269988  94.4469899  56.0265798 123.1198778
  78.5140012  42.2454997 135.6959988  77.6210012  42.5844997 135.6279988
  78.4150012  41.3904997 136.1139988  78.3784164  42.1762588 135.7432235
  90.8020012  50.0624997 125.1199988  90.5240012  49.3344997 125.6759988
  91.7290012  50.1814997 125.3249988  90.8893124  49.9788802 125.2238845
  78.1650012  54.0504997 134.1309988  78.3820012  53.1184997 134.0999988
  78.4110012  54.3244997 135.0139988  78.2279549  53.9600636 134.2461763
  84.0270012  52.5014997 121.3399988  84.2660012  51.7534997 120.7929988
  83.7580012  52.1134997 122.1729988  84.0233675  52.3466638 121.3776865
  82.9640012  52.0714997 123.7959988  83.1100012  51.5514997 124.5859988
  82.9610012  52.9784997 124.1029988  82.9835792  52.1228842 123.9456117
  79.4170012  49.3244997 124.3069988  78.7310012  49.6764997 124.8739988
  79.9390012  50.0874997 124.0599988  79.3936852  49.4758578 124.3512118
  87.2480012  41.9864997 134.5859988  87.9470012  42.0604997 135.2359988
  86.8670012  41.1224997 134.7399988  87.2921767  41.8797624 134.6958322
  88.0330012  41.6384997 125.6829988  88.2530012  42.1104997 124.8799988
  88.5910012  42.0334997 126.3529988  88.1384968  41.7564285 125.6637331
  85.7010012  53.7694997 124.5459988  84.8850012  54.2664997 124.5979988
  86.2310012  54.2444997 123.9059988  85.6609161  53.9017722 124.4665956
  85.2330012  43.3664997 126.5179988  86.0450012  43.8714997 126.5639988
  84.9880012  43.2214997 127.4319988  85.3110520  43.4160375 126.6478517
  85.7680012  44.3524997 135.7019988  85.8870012  44.9264997 136.4599988
  86.4240012  43.6644997 135.8169988  85.8729025  44.3379858 135.8211321
  86.1160012  40.4474997 127.4559988  85.7700012  41.0654997 128.0999988
  86.7750012  40.9484997 126.9739988  86.1576968  40.5996278 127.4789383
  83.0400012  54.8134997 124.5269988  83.2000012  55.6124997 124.0269988
  82.8420012  55.1194997 125.4119988  83.0351637  54.9644020 124.5781144
  81.7740012  41.5104997 124.1429988  81.6910012  42.3994997 124.4899988
  82.6640012  41.2454997 124.3749988  81.8829469  41.5961430 124.2217626
  91.9730012  42.2594997 136.5369988  91.0560012  42.5224997 136.4499988
  92.3080012  42.2564997 135.6409988  91.8928613  42.2950761 136.4038837
  90.5750012  46.0104997 130.6329988  89.7770012  45.5954997 130.3049988
  91.0200012  45.3194997 131.1239988  90.5259885  45.8603543 130.6544889
  80.0330012  51.9384997 123.2039988  80.6250012  52.6374997 123.4799988
  80.4920012  51.5054997 122.4839988  80.1761142  51.9757049 123.1444830
  78.3490012  44.6024997 122.3199988  78.3040012  45.5414997 122.4979988
  77.4610012  44.3664997 122.0499988  78.2228574  44.6991892 122.3078912
  91.6610012  55.2664997 132.2559988  91.5060012  55.9444997 131.5979988
  92.5940012  55.3384997 132.4589988  91.7658657  55.3689546 132.1934360
  79.1570012  39.3844997 130.9929988  78.9280012  39.4434997 130.0649988
  78.7140012  38.5924997 131.2989988  79.0658530  39.2855753 130.9074786
  78.0870012  53.3244997 127.1529988  77.2550012  53.7974997 127.1799988
  78.6330012  53.8344997 126.5549988  78.0470352  53.4581332 127.0758463
  77.3750012  55.9374997 138.4829988  77.9160012  55.7204997 139.2429988
  76.8940012  55.1314997 138.2929988  77.3839951  55.7989270 138.5612576
  81.9730012  54.8564997 140.1029988  82.7400012  54.3974997 140.4439988
  81.9510012  54.6304997 139.1739988  82.0751275  54.7630186 140.0240101
  86.0650012  54.3644997 121.4789988  85.4210012  53.7334997 121.7999988
  86.8270012  53.8334997 121.2469988  86.0798077  54.2062920 121.4916011
  88.5500012  53.2364997 138.8329988  88.1990012  52.3804997 139.0759988
  89.2760012  53.3794997 139.4399988  88.6000769  53.1385636 138.9483619
  90.6690012  54.1814997 121.7119988  90.9520012  53.3874997 122.1649988
  91.4090012  54.4144997 121.1519988  90.8078006  54.1043376 121.6982715
  77.2820012  49.7474997 139.4369988  77.4260012  48.8454997 139.1509988
  76.5100012  50.0334997 138.9499988  77.1972753  49.6626816 139.3319505
  81.6240012  50.0914997 121.5699988  81.6880012  49.2974997 122.1009988
  82.2770012  49.9724997 120.8799988  81.7210241  49.9667148 121.5494317
  83.9380012  49.7174997 138.8699988  83.6090012  49.9884997 138.0129988
  84.0900012  48.7764997 138.7829988  83.9134809  49.6273862 138.7408244
  86.9760012  51.1384997 121.3059988  86.7070012  51.3184997 122.2069988
  86.7700012  50.2124997 121.1739988  86.9113427  51.0380261 121.4115073
  89.6720012  49.6334997 136.2529988  90.4180012  50.2214997 136.1339988
  88.9150012  50.2154997 136.3169988  89.6717820  49.7927143 136.2453590
  78.1150012  46.9474997 138.8569988  78.5230012  46.0904997 138.7359988
  77.8550012  46.9624997 139.7779988  78.1357568  46.8320807 138.9649588
  82.7730012  48.0634997 123.8759988  82.3130012  47.5794997 124.5619988
  83.0280012  47.3954997 123.2399988  82.7444902  47.9068731 123.8839334
  82.0620012  45.9564997 136.2319988  81.4440012  46.6314997 136.5119988
  82.4060012  46.2774997 135.3979988  82.0239132  46.0922411 136.1576262
  83.8440012  46.3064997 122.1379988  83.6640012  46.1524997 121.2109988
  84.7940012  46.4144997 122.1829988  83.9477776  46.3000175 122.0171843
  87.0820012  48.4284997 139.5089988  88.0350012  48.5114997 139.4819988
  86.9210012  47.7164997 140.1289988  87.1906426  48.3436746 139.5890579
  93.2340012  48.6614997 121.5839988  92.9600012  48.2364997 120.7709988
  93.2730012  49.5924997 121.3669988  93.2017699  48.7292484 121.4433610
  82.4010012  43.3114997 137.3139988  82.5510012  42.5824997 136.7119988
  82.4040012  44.0884997 136.7549988  82.4219302  43.3167851 137.1560692
  82.8140012  41.6814997 134.8069988  83.3500012  42.1324997 134.1549988
  81.9620012  41.5734997 134.3839988  82.7722178  41.7286390 134.6605756
  84.3960012  47.1204997 135.0459988  85.1460012  46.9644997 134.4729988
  84.0570012  47.9724997 134.7709988  84.4528921  47.2142968 134.9303561
  88.8110012  44.9354997 140.0749988  89.0040012  44.0044997 139.9629988
  89.6690012  45.3604997 140.0639988  88.9532934  44.8656531 140.0582031
  90.1280012  47.7244997 138.1519988  89.8470012  48.4334997 137.5739988
  91.0710012  47.6514997 138.0009988  90.2169291  47.8116711 138.0524967
  80.8800012  44.5094997 139.2259988  80.1130012  43.9774997 139.0149988
  81.5590012  44.1994997 138.6259988  80.8667877  44.3948300 139.1160716
  83.6200012  39.1374997 135.2379988  83.5210012  40.0844997 135.1329988
  82.8770012  38.7654997 134.7619988  83.5061184  39.2165863 135.1593621
  84.8840012  43.4594997 138.8019988  84.6480012  43.2394997 139.7029988
  84.1000012  43.2524997 138.2919988  84.7458504  43.4014586 138.8563431
  87.5990012  42.5864997 137.8769988  86.6520012  42.6184997 138.0099988
  87.9120012  41.9614997 138.5309988  87.5116707  42.5063998 137.9836060
  89.2330012  41.2204997 139.8829988  89.1370012  40.2684997 139.8769988
  88.9120012  41.4894997 140.7429988  89.1764070  41.1264035 139.9985441
  79.0600012  42.4304997 138.9299988  79.2720012  41.7234997 138.3199988
  78.9490012  41.9924997 139.7739988  79.0739721  42.2747084 138.9606843
  83.8410012  38.4314997 137.9089988  84.5530012  37.7914997 137.8949988
  83.7400012  38.6984997 136.9959988  83.9248066  38.3800079 137.7835677
  84.1950012  40.1144997 139.9629988  84.0630012  39.6384997 139.1429988
  83.5960012  40.8584997 139.9079988  84.0959071  40.1499618 139.8432886
  83.7410012  56.9974997 123.1389988  84.6740012  57.1554997 123.2829988
  83.4770012  57.6724997 122.5149988  83.8329888  57.1104510 123.0742842
  77.3100012  51.6334997 122.6219988  78.2240012  51.7124997 122.8959988
  77.3170012  50.9464997 121.9559988  77.4361131  51.5513961 122.5694393
  75.9590012  57.0264997 127.6999988  75.3120012  56.5644997 127.1669988
  76.3130012  56.3544997 128.2819988  75.9183849  56.8724723 127.7057959
  76.8290012  55.1074997 129.5039988  76.4940012  54.2274997 129.6759988
  77.0510012  55.4524997 130.3689988  76.8131783  55.0337500 129.6444208
  94.3770012  55.9164997 132.4849988  94.3560012  56.1014997 133.4239988
  95.0680012  56.4854997 132.1439988  94.4674618  56.0186606 132.5673864
  93.9410012  55.4844997 135.4069988  93.4530012  54.7484997 135.0349988
  94.4900012  55.0904997 136.0849988  93.9484820  55.3305889 135.4477813
  92.3910012  51.2734997 140.0449988  91.5250012  51.1684997 140.4389988
  92.7680012  52.0324997 140.4909988  92.3233308  51.3616900 140.1592393
  93.6920012  49.5304997 125.5589988  94.5420012  49.9514997 125.6859988
  93.6980012  48.7904997 126.1659988  93.8091372  49.4880803 125.6584344
  94.0870012  47.5834997 127.3819988  93.3600012  47.1044997 127.7799988
  94.6680012  47.7894997 128.1149988  94.0660473  47.5458103 127.5354528
  93.8460012  50.3684997 132.3299988  94.6790012  49.9904997 132.0499988
  93.9580012  51.3114997 132.2109988  93.9752647  50.4442218 132.2755487
  92.3320012  53.2464997 134.6369988  91.6850012  53.5714997 135.2629988
  91.8150012  52.8064997 133.9629988  92.1734029  53.2315004 134.6315827
  94.3550012  47.4844997 123.7739988  93.8330012  47.8414997 123.0549988
  94.3220012  48.1594997 124.4519988  94.2791634  47.6245413 123.7673145
  92.7040012  44.7244997 122.3239988  92.8000012  45.3914997 121.6439988
  92.5640012  43.9084997 121.8429988  92.6982272  44.7055655 122.1658347
  91.8730012  46.1044997 127.9449988  91.7230012  45.1594997 127.9249988
  91.5200012  46.3854997 128.7889988  91.8047448  46.0131481 128.0563705
  76.9090012  48.1824997 131.9559988  77.0930012  48.1004997 131.0199988
  77.7580012  48.0584997 132.3789988  77.0490151  48.1545073 131.8851451
  92.7300012  48.0744997 137.5839988  93.3130012  47.3404997 137.7759988
  93.2940012  48.8464997 137.6309988  92.8859769  48.0784227 137.6166159
  94.2260012  45.9774997 138.2689988  93.3630012  45.5984997 138.1029988
  94.8310012  45.2384997 138.1939988  94.1896119  45.8258268 138.2361528
  91.9510012  42.1324997 121.4419988  92.5620012  41.7614997 122.0789988
  91.1150012  41.7114997 121.6379988  91.9215032  42.0247554 121.5557035
  91.5840012  43.6874997 126.4079988  91.8640012  42.7804997 126.5319988
  92.3430012  44.1214997 126.0189988  91.7249277  43.6220942 126.3723682
  92.1960012  44.2684997 131.8439988  93.1290012  44.4804997 131.8089988
  91.9610012  44.3704997 132.7659988  92.2919244  44.3113100 131.9638892
  92.2250012  45.0054997 134.6199988  91.3820012  45.2734997 134.9859988
  92.6670012  45.8274997 134.4089988  92.1694158  45.1533291 134.6415491
  76.5060012  43.4534997 138.0969988  77.4260012  43.3314997 138.3329988
  76.0570012  42.7034997 138.4859988  76.5711580  43.3353727 138.1819006
  94.5080012  38.9854997 139.9729988  94.8580012  38.3314997 139.3679988
  94.6550012  39.8224997 139.5329988  94.5757887  39.0091548 139.8306858
  92.1970012  40.9504997 126.4559988  92.3800012  40.5014997 127.2819988
  91.5980012  40.3654997 125.9929988  92.1410202  40.8099975 126.5063275
  77.7270012  41.7654997 130.9879988  78.1730012  40.9734997 131.2899988
  78.1940012  42.4814997 131.4179988  77.8510831  41.7540685 131.0874006
  76.0310012  44.7644997 132.0569988  76.5230012  44.5434997 131.2659988
  76.3940012  45.6054997 132.3379988  76.1473126  44.8478357 131.9867531
  94.0280012  41.0944997 138.3219988  93.1100012  41.3654997 138.2869988
  94.1510012  40.5594997 137.5379988  93.9189729  41.0592508 138.2111923
  94.0640012  41.0174997 122.9839988  94.4760012  40.2964997 122.5089988
  94.7460012  41.6874997 123.0429988  94.2125885  41.0092368 122.9268915
  76.3450012  41.0224997 126.1109988  75.4200012  41.2314997 125.9819988
  76.7990012  41.5064997 125.4209988  76.2797292  41.1165343 126.0000720
  91.1160012  56.0064997 128.0569988  91.7680012  55.6594997 127.4489988
  91.6260012  56.4954997 128.7029988  91.2742637  56.0250597 128.0610236
  76.3090012  39.7604997 134.4549988  75.6440012  39.5144997 135.0989988
  75.8660012  40.3824997 133.8779988  76.1581318  39.8109410 134.4650898
  78.5010012  52.9354997 138.5999988  77.6800012  53.1104997 138.1389988
  78.2480012  52.8624997 139.5199988  78.3545585  52.9495544 138.6613561
  81.4550012  53.9104997 134.8579988  81.0300012  54.7194997 134.5759988
  82.3590012  53.9954997 134.5559988  81.5189975  54.0329300 134.7784816
  85.7660012  55.3094997 137.8179988  85.9510012  54.9754997 138.6959988
  86.6120012  55.6184997 137.4959988  85.9057539  55.3056047 137.8945605
  88.1110012  56.5954997 137.0619988  88.7880012  55.9624997 136.8219988
  88.4330012  56.9964997 137.8689988  88.2471637  56.5631154 137.1382793
  93.0280012  39.1844997 136.1409988  92.2160012  39.5094997 135.7539988
  93.2610012  38.4244997 135.6079988  92.9482203  39.1262758 136.0158880
  78.8570012  57.1664997 134.9059988  78.1360012  57.6064997 134.4549988
  78.4910012  56.9154997 135.7539988  78.7089651  57.1927242 134.9589640
  81.3240012  56.7664997 133.9359988  80.4590012  56.8384997 134.3399988
  81.2690012  57.3134997 133.1519988  81.1982085  56.8502685 133.8853362
  86.0340012  56.6544997 133.1109988  85.5780012  57.1834997 132.4569988
  86.1970012  57.2574997 133.8359988  85.9936068  56.8084607 133.1194838
  88.3620012  55.5324997 134.0559988  87.4570012  55.6974997 133.7899988
  88.7910012  56.3854997 133.9909988  88.2961324  55.6704339 134.0107976
  90.9660012  57.1024997 134.3509988  90.7840012  58.0184997 134.1409988
  91.1430012  56.6924997 133.5049988  90.9650210  57.1724822 134.2077885
  78.2710012  55.7894997 131.8159988  78.2530012  55.3644997 132.6729988
  79.0760012  55.4714997 131.4069988  78.3773529  55.6883013 131.8780946
  80.4130012  54.4994997 130.4709988  80.1940012  53.5834997 130.6409988
  81.2370012  54.6394997 130.9369988  80.4944420  54.3930520 130.5572774
  82.9500012  54.9694997 131.3199988  83.1630012  54.0814997 131.0329988
  83.0140012  54.9354997 132.2739988  82.9878232  54.8433102 131.4097397
  86.4580012  40.6334997 130.4639988  85.7840012  40.0044997 130.7199988
  87.0220012  40.1494997 129.8609988  86.4419230  40.4818744 130.4175340
  91.6010012  38.7414997 130.5769988  92.2050012  39.2884997 130.0749988
  90.7310012  39.0604997 130.3359988  91.5661208  38.8595137 130.4756886
  93.3280012  39.8794997 128.9099988  93.9400012  39.3654997 128.3829988
  93.7100012  40.7574997 128.9329988  93.4633371  39.9277866 128.8410041
  78.7850012  39.2674997 128.2859988  78.0080012  39.0334997 127.7789988
  79.3150012  38.4704997 128.2949988  78.7502330  39.1276988 128.2177742
  77.6210012  39.0654997 124.0899988  78.0600012  39.6764997 123.4979988
  76.9880012  39.6034997 124.5639988  77.5954514  39.2219257 124.0730930
  83.3640012  39.1944997 128.0999988  84.2390012  39.5824997 128.0699988
  83.2280012  38.9794997 129.0219988  83.4653695  39.2185184 128.2206440
  88.9210012  39.2244997 129.7489988  88.9970012  39.3194997 128.7989988
  88.6460012  38.3164997 129.8779988  88.8942321  39.1147867 129.6365079
  90.2740012  39.2504997 125.4409988  89.5720012  39.8654997 125.2309988
  89.8300012  38.4124997 125.5719988  90.1176450  39.2215639 125.4299000
  77.5220012  55.0134997 124.9869988  76.8370012  54.9754997 124.3199988
  77.5260012  55.9264997 125.2759988  77.4286998  55.1316733 124.9346771
  79.4820012  40.9814997 122.5319988  79.9740012  40.3514997 122.0049988
  80.1060012  41.2774997 123.1949988  79.6335688  40.9353804 122.5495482
  84.5080012  41.2744997 124.9889988  84.6860012  40.6284997 125.6719988
  84.4550012  42.1084997 125.4559988  84.5251999  41.2988009 125.1455917
  86.3870012  56.2234997 123.3849988  87.2530012  56.5894997 123.2069988
  86.1400012  55.7834997 122.5709988  86.4722392  56.2141756 123.2506289
  93.0960012  55.7864997 126.0639988  92.9010012  55.0384997 125.4989988
  93.0570012  56.5444997 125.4809988  93.0640380  55.7866099 125.9078384
  78.7430012  39.7814997 137.8039988  78.3770012  39.0164997 138.2459988
  79.6560012  39.8104997 138.0899988  78.8162736  39.6805640 137.9032502
  80.7160012  39.1324997 139.3399988  81.6140012  38.8584997 139.1549988
  80.3290012  38.3894997 139.8039988  80.7866612  38.9945914 139.3773643
  79.3400012  55.9334997 122.0129988  79.0730012  56.2204997 122.8859988
  80.1120012  55.3874997 122.1649988  79.4077488  55.8990294 122.1531050
  89.1370012  38.4644997 139.5219988  89.2140012  38.0384997 140.3759988
  90.0310012  38.4784997 139.1789988  89.2683428  38.4080879 139.5925310
  92.3130012  54.5374997 138.2139988  91.5310012  54.3514997 137.6939988
  92.2410012  55.4664997 138.4319988  92.1962274  54.6376643 138.1723018
 106.7190012  48.4234997 128.2449988 106.8080012  49.3674997 128.1129988
 106.0810012  48.1484997 127.5869988 106.6449081  48.5154830 128.1379614
 105.6520012  47.6784997 131.6639988 105.6140012  47.0324997 132.3689988
 105.3300012  47.2124997 130.8929988 105.6032333  47.5269408 131.6562978
  98.0210012  47.2934997 133.2569988  98.0620012  46.6674997 133.9799988
  98.7240012  47.9174997 133.4389988  98.1216363  47.2921196 133.3806044
 109.3580012  50.6174997 129.9649988 108.9180012  49.8974997 130.4159988
 109.3450012  51.3384997 130.5949988 109.2960226  50.6163731 130.1118494
  98.9440012  51.7434997 131.7919988  98.5750012  50.9414997 131.4219988
  99.8850012  51.5744997 131.8379988  99.0207289  51.6110153 131.7476316
  95.5540012  45.4034997 127.1849988  95.1070012  46.2494997 127.1659988
  94.9930012  44.8234997 126.6689988  95.4169900  45.4409916 127.1126801
  96.2650012  47.5654997 129.3099988  96.4780012  46.7954997 129.8379988
  97.0030012  47.6544997 128.7069988  96.3939044  47.4721968 129.3007123
 106.4700012  55.7224997 130.1769988 107.0900012  55.0454997 129.9039988
 106.2620012  55.5044997 131.0859988 106.5266726  55.6004800 130.2624812
 104.0420012  50.1114997 132.0699988 104.3460012  49.4254997 131.4749988
 104.7630012  50.2294997 132.6879988 104.1810671  50.0336305 132.0721816
 112.7050012  41.7124997 132.9309988 112.7540012  42.3224997 133.6659988
 113.1300012  42.1734997 132.2079988 112.7691746  41.8583796 132.9339175
 107.1830012  44.5054997 132.3969988 107.3250012  43.5594997 132.4179988
 107.0760012  44.7124997 131.4689988 107.1879919  44.4038246 132.2743408
 100.3370012  42.6064997 129.6699988 100.3810012  43.4664997 129.2509988
  99.8800012  42.0544997 129.0359988 100.2812240  42.6494422 129.5269864
 108.0600012  42.7374997 128.0709988 108.7060012  42.4084997 128.6949988
 108.5700012  43.2554997 127.4479988 108.2174299  42.7624450 128.0722731
  96.9580012  45.0034997 130.4319988  97.6110012  44.4534997 130.8639988
  96.9820012  44.7294997 129.5149988  97.0506683  44.8911466 130.3672123
 102.1140012  46.5534997 129.6469988 102.7300012  46.0274997 130.1569988
 101.5280012  45.9134997 129.2439988 102.1190810  46.3949208 129.6623173
 113.0960012  43.1904997 135.1659988 112.4080012  43.8484997 135.0709988
 113.1120012  42.9934997 136.1029988 113.0039540  43.2539819 135.2795990
  99.1480012  41.5244997 133.7439988  98.9290012  42.0544997 132.9779988
  98.4800012  41.7514997 134.3909988  99.0277600  41.6276906 133.7266379
 106.5170012  51.0244997 127.2879988 106.2210012  50.7024997 126.4369988
 106.1920012  51.9244997 127.3289988 106.4326371  51.1020215 127.1771801
 101.7170012  49.2004997 134.0309988 100.9770012  49.7984997 134.1349988
 102.4310012  49.7544997 133.7159988 101.7122237  49.3572831 134.0026465
 109.8240012  42.0284997 130.0509988 109.6080012  41.2624997 130.5839988
 110.4790012  42.5004997 130.5639988 109.8830632  41.9875889 130.1932861
  98.7410012  43.4164997 131.6959988  99.3550012  44.0494997 132.0689988
  99.2530012  42.9444997 131.0399988  98.8941981  43.4392267 131.6582908
 100.1240012  51.1644997 134.8179988 100.1190012  52.0444997 134.4399988
  99.2710012  51.0814997 135.2429988 100.0079464  51.2736117 134.8237907
  96.2450012  50.8354997 125.5999988  95.9730012  51.0644997 124.7119988
  96.2910012  51.6734997 126.0609988  96.2139482  50.9801318 125.5406273
 109.8700012  52.4574997 132.3129988 108.9290012  52.5154997 132.4749988
 110.1470012  53.3634997 132.1759988 109.7784679  52.5879443 132.3166815
 110.1710012  40.7434997 133.7309988 109.4350012  41.3544997 133.6929988
 110.8540012  41.1584997 133.2039988 110.1626541  40.8831374 133.6545832
 103.1740012  38.8304997 131.1959988 103.0570012  37.8814997 131.1419988
 102.3190012  39.1624997 131.4699988 103.0424212  38.7455571 131.2256497
 108.1220012  54.2384997 128.9379988 108.5480012  53.5314997 128.4529988
 108.4390012  55.0394997 128.5219988 108.2231683  54.2501017 128.8153680
 109.2820012  52.1394997 127.4469988 109.0240012  51.4494997 126.8359988
 109.3530012  51.6964997 128.2929988 109.2562856  51.9852124 127.4776885
 110.9680012  50.7054997 135.9239988 111.1080012  50.1144997 135.1849988
 111.1350012  51.5784997 135.5679988 111.0097411  50.7425428 135.7746894
 105.4410012  47.6674997 125.6969988 104.7290012  48.2024997 125.3449988
 106.1320012  47.7234997 125.0369988 105.4370132  47.7482543 125.5596289
 105.4940012  46.1254997 122.7359988 106.1950012  46.1474997 123.3869988
 105.7970012  45.4974997 122.0789988 105.6308133  46.0437070 122.7363369
 112.8100012  47.0454997 133.9899988 112.1570012  47.7404997 134.0799988
 113.2750012  47.2554997 133.1809988 112.7835274  47.1690643 133.8928462
 108.8460012  47.8774997 126.6489988 108.1140012  48.1054997 127.2219988
 109.2940012  47.1634997 127.1029988 108.8062725  47.8122145 126.7888816
 108.7440012  46.0514997 135.7159988 108.8240012  46.8144997 136.2879988
 108.1420012  46.3304997 135.0259988 108.6735756  46.1937134 135.7010589
 100.4920012  48.5074997 128.5309988 100.1610012  48.1374997 127.7129988
 101.0800012  47.8374997 128.8779988 100.5261873  48.3661156 128.4658102
 101.8580012  51.9354997 131.2119988 101.7640012  51.3574997 130.4559988
 102.5880012  51.5644997 131.7089988 101.9437387  51.8061663 131.1755342
 100.8580012  47.2764997 132.1649988 101.4240012  47.3974997 131.4019988
 101.1770012  47.9134997 132.8029988 100.9785474  47.3792219 132.1469862
 107.1670012  52.7794997 132.8989988 106.9270012  53.4414997 133.5469988
 106.9690012  51.9454997 133.3239988 107.1073808  52.7573134 133.0451524
 101.7380012  51.6754997 136.8819988 101.4270012  52.4574997 137.3369988
 101.0880012  51.5224997 136.1959988 101.6075558  51.7619105 136.8515871
 107.7170012  47.0394997 124.3339988 108.2970012  47.1894997 125.0809988
 108.1310012  47.5104997 123.6099988 107.8522997  47.1236578 124.3384058
  98.6580012  47.8734997 136.1099988  98.7290012  48.5244997 136.8089988
  97.7680012  47.9764997 135.7749988  98.5473005  47.9765427 136.1603495
 105.4440012  53.7764997 127.7689988 105.9180012  54.0714997 128.5459988
 104.8810012  54.5144997 127.5359988 105.4328184  53.9167247 127.8439628
  99.9780012  53.7474997 137.6449988  99.9850012  53.6114997 136.6979988
  99.0620012  53.6294997 137.8969988  99.8551714  53.7129430 137.5494666
 111.4160012  38.7894997 124.1469988 110.5160012  38.9284997 124.4419988
 111.6680012  39.6204997 123.7449988 111.3268702  38.9209074 124.1330205
  99.4820012  47.5774997 126.1199988  99.1900012  48.3454997 125.6299988
  98.8080012  46.9174997 125.9579988  99.3508111  47.5935587 126.0308978
 112.6050012  53.1554997 122.5229988 112.6790012  54.0944997 122.6939988
 113.5110012  52.8504997 122.4669988 112.7375100  53.2426722 122.5388119
  95.5750012  49.9404997 134.9349988  95.0740012  49.9124997 134.1199988
  95.5800012  49.0344997 135.2449988  95.5070944  49.8142396 134.8653226
  95.3250012  52.7204997 131.8189988  96.2710012  52.5764997 131.7999988
  95.2130012  53.5044997 132.3559988  95.4392727  52.8068046 131.8890072
 113.5230012  53.3864997 137.5019988 113.4740012  52.4314997 137.4649988
 112.6960012  53.6544997 137.9029988 113.4044940  53.2918998 137.5511375
 104.5020012  52.9604997 136.3779988 104.5890012  53.7864997 136.8529988
 103.6380012  52.6304997 136.6269988 104.3971964  53.0289878 136.4766549
 104.9160012  56.7324997 126.1839988 104.8410012  56.6114997 125.2369988
 104.9490012  57.6824997 126.3019988 104.9102068  56.8442646 126.0704967
  98.5690012  55.5214997 127.9649988  98.7220012  55.1734997 128.8429988
  97.7190012  55.1654997 127.7099988  98.4749166  55.4256216 128.0508079
 108.0180012  55.8864997 123.1859988 108.3930012  55.1424997 122.7149988
 108.0220012  55.6164997 124.1049988 108.0699125  55.7480986 123.2456483
 107.6870012  55.8124997 125.9349988 106.7510012  55.9124997 126.1139988
 107.9670012  55.1034997 126.5139988 107.5969553  55.7303406 126.0377087
 110.6750012  44.8794997 137.9819988 110.2680012  45.3604997 137.2609988
 110.7160012  43.9744997 137.6739988 110.6248437  44.8229374 137.8416683
  97.8240012  51.2634997 135.9789988  98.0400012  50.9024997 136.8379988
  96.9690012  50.8894997 135.7689988  97.7379292  51.1634111 136.0683386
 100.4430012  39.7334997 131.9739988  99.5810012  39.6464997 131.5659988
 100.4200012  40.5894997 132.4019988 100.3220409  39.8372883 131.9760589
 105.1060012  39.4554997 135.3489988 105.5260012  39.0404997 136.1019988
 104.1730012  39.2774997 135.4659988 105.0373644  39.3745900 135.4679539
 108.4320012  43.2114997 136.2019988 107.9180012  43.0854997 136.9999988
 108.2770012  44.1234997 135.9579988 108.3406852  43.3176132 136.2782158
 109.1950012  48.0724997 121.9639988 109.2370012  47.8494997 121.0339988
 110.0440012  48.4714997 122.1529988 109.3155280  48.0959438 121.8623554
 104.7670012  41.9484997 122.6339988 104.5140012  41.9674997 123.5569988
 104.5110012  41.0764997 122.3319988 104.6977481  41.8332558 122.7196175
 100.5340012  44.6994997 133.0689988  99.8920012  44.6584997 133.7779988
 100.5710012  45.6254997 132.8309988 100.4510664  44.8191430 133.1339219
 100.5310012  44.9204997 127.9809988  99.6380012  44.5794997 127.9219988
 100.9810012  44.5434997 127.2249988 100.4698130  44.8229631 127.8707702
 106.0660012  45.3364997 126.7979988 105.6570012  46.1514997 126.5069988
 106.7870012  45.1964997 126.1839988 106.1074537  45.4292018 126.6751342
 105.1680012  45.5114997 138.2859988 104.6060012  44.8074997 138.6069988
 105.9950012  45.3914997 138.7539988 105.2027095  45.3987883 138.3932330
 107.0710012  44.7824997 129.6119988 106.8760012  45.3874997 128.8969988
 107.2520012  43.9484997 129.1779988 107.0687614  44.7526300 129.4554405
  98.2840012  45.0194997 134.9359988  98.2460012  45.4194997 135.8049988
  97.7930012  44.2024997 135.0269988  98.2124684  44.9638069 135.0671059
 101.6500012  42.3934997 121.7349988 101.2190012  41.9484997 122.4649988
 100.9320012  42.7654997 121.2229988 101.4939438  42.3828940 121.7656799
  94.8920012  42.1354997 128.7869988  95.5230012  42.1064997 129.5059988
  95.3410012  41.7104997 128.0559988  95.0390918  42.0740836 128.7866441
  96.1660012  42.8814997 124.2109988  96.6400012  43.4724997 123.6259988
  95.4490012  43.4124997 124.5579988  96.1339341  43.0340867 124.1778836
 106.3350012  46.4204997 134.2829988 106.6580012  45.7894997 133.6399988
 105.8950012  45.8854997 134.9439988 106.3197484  46.2618387 134.2843198
 103.1120012  42.3474997 129.0669988 102.2010012  42.4044997 129.3559988
 103.6180012  42.2874997 129.8779988 103.0556899  42.3471941 129.2161184
  97.9410012  43.9764997 127.8939988  97.0510012  44.0764997 127.5539988
  98.2370012  43.1344997 127.5479988  97.8592823  43.8763545 127.8007213
 101.5940012  43.9764997 125.5509988 102.5250012  44.1054997 125.7289988
 101.3790012  44.6464997 124.9009988 101.6924247  44.0846565 125.4875747
 107.5170012  41.5824997 132.3319988 106.8410012  41.7134997 132.9959988
 107.0320012  41.4274997 131.5209988 107.3587146  41.5795157 132.3134469
 100.2680012  45.1714997 123.1169988  99.7250012  44.7914997 122.4259988
 101.1010012  45.3654997 122.6889988 100.3063631  45.1457125 122.9644501
 110.8050012  57.2544997 138.6079988 111.0050012  57.6784997 137.7739988
 111.4600012  57.5974997 139.2149988 110.9210072  57.3589857 138.5758592
  98.4030012  49.7284997 138.2159988  99.1350012  49.9824997 138.7779988
  97.6230012  49.9324997 138.7319988  98.3977073  49.7908160 138.3626151
 104.4320012  45.1354997 130.9539988 104.9970012  44.5884997 130.4069988
 104.2850012  44.6134997 131.7429988 104.4893380  44.9902259 130.9858695
  99.4340012  41.2714997 127.3729988  99.1170012  40.3694997 127.3369988
 100.2160012  41.2734997 126.8199988  99.4962408  41.1482474 127.2933569
 103.0590012  43.5234997 133.3679988 102.2230012  43.9774997 133.4789988
 103.5830012  43.7994997 134.1199988 103.0155416  43.6228660 133.4848119
 103.6030012  49.7364997 125.0529988 102.8580012  49.2294997 124.7309988
 103.4690012  49.7854997 125.9999988 103.4828776  49.6736940 125.1368647
 110.7530012  48.8694997 133.8399988 111.3950012  49.3264997 133.2959988
 109.9230012  48.9824997 133.3769988 110.7285963  48.9472704 133.7030177
 107.5010012  42.5504997 123.2519988 106.5620012  42.6624997 123.1009988
 107.7980012  43.4074997 123.5589988 107.4127583  42.6815981 123.2728337
 105.1220012  49.9204997 136.2899988 104.7770012  49.5394997 137.0969988
 104.9220012  50.8544997 136.3609988 105.0477527  49.9945135 136.4100689
 108.2190012  44.4174997 124.9129988 109.1110012  44.2804997 125.2319988
 108.2760012  45.2084997 124.3759988 108.3486504  44.5056052 124.8840818
  98.7280012  49.0314997 130.8229988  99.4730012  49.0294997 130.2219988
  98.8060012  48.2084997 131.3039988  98.8404995  48.9198887 130.8058282
 105.7290012  51.1954997 124.0789988 105.4330012  52.0214997 124.4599988
 105.0260012  50.5754997 124.2749988 105.5934914  51.2248199 124.1576443
  95.7360012  47.4924997 136.1379988  95.9590012  47.0744997 136.9699988
  95.1340012  46.8794997 135.7149988  95.6851759  47.3524668 136.1947022
 102.7520012  47.0094997 138.3509988 102.4560012  46.8434997 137.4559988
 103.6840012  46.7894997 138.3399988 102.8374166  46.9570640 138.2270536
 107.3730012  52.3824997 136.2409988 106.4720012  52.5654997 135.9729988
 107.4070012  52.6414997 137.1609988 107.2543139  52.4425849 136.3288099
 113.1040012  44.6274997 124.6079988 112.5500012  44.2314997 123.9359988
 113.2040012  45.5374997 124.3299988 113.0417059  44.6963586 124.4784401
 113.0670012  50.4274997 137.4449988 112.2160012  50.6654997 137.0779988
 113.6580012  50.4104997 136.6919988 113.0302487  50.4578258 137.2928893
 111.3990012  53.4134997 125.0729988 111.0260012  52.5874997 125.3819988
 111.6770012  53.2304997 124.1749988 111.3855222  53.2757430 124.9939473
 108.5600012  48.2214997 132.0939988 107.6310012  47.9894997 132.0669988
 109.0110012  47.4444997 131.7639988 108.4939216  48.0847238 132.0456917
 101.1030012  52.5494997 128.2269988 101.6300012  53.3224997 128.0269988
 100.2230012  52.7744997 127.9249988 101.0562031  52.6857545 128.1587912
  96.8580012  47.4114997 122.8139988  97.4740012  48.0384997 123.1939988
  95.9960012  47.7274997 123.0859988  96.8257698  47.5399430 122.9027183
 102.5300012  50.2124997 127.8029988 102.2890012  51.1374997 127.8449988
 101.7890012  49.7534997 128.1999988 102.3969225  50.2770933 127.8623742
 103.0450012  54.3614997 134.1189988 103.4070012  55.2164997 133.8849988
 103.5760012  54.0694997 134.8589988 103.1664473  54.4391060 134.1870855
 101.2130012  55.2344997 127.3489988 100.2630012  55.3394997 127.3999988
 101.5650012  56.0544997 127.6929988 101.1304195  55.3598800 127.4025502
 106.5890012  50.4604997 133.8189988 106.1630012  50.2334997 134.6459988
 107.1690012  49.7224997 133.6369988 106.6091868  50.3295299 133.9075830
 108.7920012  51.3894997 122.8929988 109.1450012  51.0094997 123.6969988
 107.8430012  51.2964997 122.9799988 108.7120918  51.3248956 123.0148532
 109.2470012  55.0124997 136.2889988 108.6460012  54.4574997 135.7929988
 109.5290012  55.6794997 135.6619988 109.2028804  55.0266625 136.1364849
 113.2950012  55.8694997 123.0939988 114.0390012  56.4554997 122.9539988
 112.6010012  56.4374997 123.4269988 113.3029899  56.0265798 123.1198778
  97.3700012  42.2454997 135.6959988  96.4770012  42.5844997 135.6279988
  97.2710012  41.3904997 136.1139988  97.2344164  42.1762588 135.7432235
 109.6580012  50.0624997 125.1199988 109.3800012  49.3344997 125.6759988
 110.5850012  50.1814997 125.3249988 109.7453124  49.9788802 125.2238845
  97.0210012  54.0504997 134.1309988  97.2380012  53.1184997 134.0999988
  97.2670012  54.3244997 135.0139988  97.0839549  53.9600636 134.2461763
 102.8830012  52.5014997 121.3399988 103.1220012  51.7534997 120.7929988
 102.6140012  52.1134997 122.1729988 102.8793675  52.3466638 121.3776865
 101.8200012  52.0714997 123.7959988 101.9660012  51.5514997 124.5859988
 101.8170012  52.9784997 124.1029988 101.8395792  52.1228842 123.9456117
  98.2730012  49.3244997 124.3069988  97.5870012  49.6764997 124.8739988
  98.7950012  50.0874997 124.0599988  98.2496852  49.4758578 124.3512118
 106.1040012  41.9864997 134.5859988 106.8030012  42.0604997 135.2359988
 105.7230012  41.1224997 134.7399988 106.1481767  41.8797624 134.6958322
 106.8890012  41.6384997 125.6829988 107.1090012  42.1104997 124.8799988
 107.4470012  42.0334997 126.3529988 106.9944968  41.7564285 125.6637331
 104.5570012  53.7694997 124.5459988 103.7410012  54.2664997 124.5979988
 105.0870012  54.2444997 123.9059988 104.5169161  53.9017722 124.4665956
 104.0890012  43.3664997 126.5179988 104.9010012  43.8714997 126.5639988
 103.8440012  43.2214997 127.4319988 104.1670520  43.4160375 126.6478517
 104.6240012  44.3524997 135.7019988 104.7430012  44.9264997 136.4599988
 105.2800012  43.6644997 135.8169988 104.7289025  44.3379858 135.8211321
 104.9720012  40.4474997 127.4559988 104.6260012  41.0654997 128.0999988
 105.6310012  40.9484997 126.9739988 105.0136968  40.5996278 127.4789383
 101.8960012  54.8134997 124.5269988 102.0560012  55.6124997 124.0269988
 101.6980012  55.1194997 125.4119988 101.8911637  54.9644020 124.5781144
 100.6300012  41.5104997 124.1429988 100.5470012  42.3994997 124.4899988
 101.5200012  41.2454997 124.3749988 100.7389469  41.5961430 124.2217626
 110.8290012  42.2594997 136.5369988 109.9120012  42.5224997 136.4499988
 111.1640012  42.2564997 135.6409988 110.7488613  42.2950761 136.4038837
 109.4310012  46.0104997 130.6329988 108.6330012  45.5954997 130.3049988
 109.8760012  45.3194997 131.1239988 109.3819885  45.8603543 130.6544889
  98.8890012  51.9384997 123.2039988  99.4810012  52.6374997 123.4799988
  99.3480012  51.5054997 122.4839988  99.0321142  51.9757049 123.1444830
  97.2050012  44.6024997 122.3199988  97.1600012  45.5414997 122.4979988
  96.3170012  44.3664997 122.0499988  97.0788574  44.6991892 122.3078912
 110.5170012  55.2664997 132.2559988 110.3620012  55.9444997 131.5979988
 111.4500012  55.3384997 132.4589988 110.6218657  55.3689546 132.1934360
  98.0130012  39.3844997 130.9929988  97.7840012  39.4434997 130.0649988
  97.5700012  38.5924997 131.2989988  97.9218530  39.2855753 130.9074786
  96.9430012  53.3244997 127.1529988  96.1110012  53.7974997 127.1799988
  97.4890012  53.8344997 126.5549988  96.9030352  53.4581332 127.0758463
  96.2310012  55.9374997 138.4829988  96.7720012  55.7204997 139.2429988
  95.7500012  55.1314997 138.2929988  96.2399951  55.7989270 138.5612576
 100.8290012  54.8564997 140.1029988 101.5960012  54.3974997 140.4439988
 100.8070012  54.6304997 139.1739988 100.9311275  54.7630186 140.0240101
 104.9210012  54.3644997 121.4789988 104.2770012  53.7334997 121.7999988
 105.6830012  53.8334997 121.2469988 104.9358077  54.2062920 121.4916011
 107.4060012  53.2364997 138.8329988 107.0550012  52.3804997 139.0759988
 108.1320012  53.3794997 139.4399988 107.4560769  53.1385636 138.9483619
 109.5250012  54.1814997 121.7119988 109.8080012  53.3874997 122.1649988
 110.2650012  54.4144997 121.1519988 109.6638006  54.1043376 121.6982715
  96.1380012  49.7474997 139.4369988  96.2820012  48.8454997 139.1509988
  95.3660012  50.0334997 138.9499988  96.0532753  49.6626816 139.3319505
 100.4800012  50.0914997 121.5699988 100.5440012  49.2974997 122.1009988
 101.1330012  49.9724997 120.8799988 100.5770241  49.9667148 121.5494317
 102.7940012  49.7174997 138.8699988 102.4650012  49.9884997 138.0129988
 102.9460012  48.7764997 138.7829988 102.7694809  49.6273862 138.7408244
 105.8320012  51.1384997 121.3059988 105.5630012  51.3184997 122.2069988
 105.6260012  50.2124997 121.1739988 105.7673427  51.0380261 121.4115073
 108.5280012  49.6334997 136.2529988 109.2740012  50.2214997 136.1339988
 107.7710012  50.2154997 136.3169988 108.5277820  49.7927143 136.2453590
  96.9710012  46.9474997 138.8569988  97.3790012  46.0904997 138.7359988
  96.7110012  46.9624997 139.7779988  96.9917568  46.8320807 138.9649588
 101.6290012  48.0634997 123.8759988 101.1690012  47.5794997 124.5619988
 101.8840012  47.3954997 123.2399988 101.6004902  47.9068731 123.8839334
 100.9180012  45.9564997 136.2319988 100.3000012  46.6314997 136.5119988
 101.2620012  46.2774997 135.3979988 100.8799132  46.0922411 136.1576262
 102.7000012  46.3064997 122.1379988 102.5200012  46.1524997 121.2109988
 103.6500012  46.4144997 122.1829988 102.8037776  46.3000175 122.0171843
 105.9380012  48.4284997 139.5089988 106.8910012  48.5114997 139.4819988
 105.7770012  47.7164997 140.1289988 106.0466426  48.3436746 139.5890579
 112.0900012  48.6614997 121.5839988 111.8160012  48.2364997 120.7709988
 112.1290012  49.5924997 121.3669988 112.0577699  48.7292484 121.4433610
 101.2570012  43.3114997 137.3139988 101.4070012  42.5824997 136.7119988
 101.2600012  44.0884997 136.7549988 101.2779302  43.3167851 137.1560692
 101.6700012  41.6814997 134.8069988 102.2060012  42.1324997 134.1549988
 100.8180012  41.5734997 134.3839988 101.6282178  41.7286390 134.6605756
 103.2520012  47.1204997 135.0459988 104.0020012  46.9644997 134.4729988
 102.9130012  47.9724997 134.7709988 103.3088921  47.2142968 134.9303561
 107.6670012  44.9354997 140.0749988 107.8600012  44.0044997 139.9629988
 108.5250012  45.3604997 140.0639988 107.8092934  44.8656531 140.0582031
 108.9840012  47.7244997 138.1519988 108.7030012  48.4334997 137.5739988
 109.9270012  47.6514997 138.0009988 109.0729291  47.8116711 138.0524967
  99.7360012  44.5094997 139.2259988  98.9690012  43.9774997 139.0149988
 100.4150012  44.1994997 138.6259988  99.7227877  44.3948300 139.1160716
 102.4760012  39.1374997 135.2379988 102.3770012  40.0844997 135.1329988
 101.7330012  38.7654997 134.7619988 102.3621184  39.2165863 135.1593621
 103.7400012  43.4594997 138.8019988 103.5040012  43.2394997 139.7029988
 102.9560012  43.2524997 138.2919988 103.6018504  43.4014586 138.8563431
 106.4550012  42.5864997 137.8769988 105.5080012  42.6184997 138.0099988
 106.7680012  41.9614997 138.5309988 106.3676707  42.5063998 137.9836060
 108.0890012  41.2204997 139.8829988 107.9930012  40.2684997 139.8769988
 107.7680012  41.4894997 140.7429988 108.0324070  41.1264035 139.9985441
  97.9160012  42.4304997 138.9299988  98.1280012  41.7234997 138.3199988
  97.8050012  41.9924997 139.7739988  97.9299721  42.2747084 138.9606843
 102.6970012  38.4314997 137.9089988 103.4090012  37.7914997 137.8949988
 102.5960012  38.6984997 136.9959988 102.7808066  38.3800079 137.7835677
 103.0510012  40.1144997 139.9629988 102.9190012  39.6384997 139.1429988
 102.4520012  40.8584997 139.9079988 102.9519071  40.1499618 139.8432886
 102.5970012  56.9974997 123.1389988 103.5300012  57.1554997 123.2829988
 102.3330012  57.6724997 122.5149988 102.6889888  57.1104510 123.0742842
  96.1660012  51.6334997 122.6219988  97.0800012  51.7124997 122.8959988
  96.1730012  50.9464997 121.9559988  96.2921131  51.5513961 122.5694393
  94.8150012  57.0264997 127.6999988  94.1680012  56.5644997 127.1669988
  95.1690012  56.3544997 128.2819988  94.7743849  56.8724723 127.7057959
  95.6850012  55.1074997 129.5039988  95.3500012  54.2274997 129.6759988
  95.9070012  55.4524997 130.3689988  95.6691783  55.0337500 129.6444208
 113.2330012  55.9164997 132.4849988 113.2120012  56.1014997 133.4239988
 113.9240012  56.4854997 132.1439988 113.3234618  56.0186606 132.5673864
 112.7970012  55.4844997 135.4069988 112.3090012  54.7484997 135.0349988
 113.3460012  55.0904997 136.0849988 112.8044820  55.3305889 135.4477813
 111.2470012  51.2734997 140.0449988 110.3810012  51.1684997 140.4389988
 111.6240012  52.0324997 140.4909988 111.1793308  51.3616900 140.1592393
 112.5480012  49.5304997 125.5589988 113.3980012  49.9514997 125.6859988
 112.5540012  48.7904997 126.1659988 112.6651372  49.4880803 125.6584344
 112.9430012  47.5834997 127.3819988 112.2160012  47.1044997 127.7799988
 113.5240012  47.7894997 128.1149988 112.9220473  47.5458103 127.5354528
 112.7020012  50.3684997 132.3299988 113.5350012  49.9904997 132.0499988
 112.8140012  51.3114997 132.2109988 112.8312647  50.4442218 132.2755487
 111.1880012  53.2464997 134.6369988 110.5410012  53.5714997 135.2629988
 110.6710012  52.8064997 133.9629988 111.0294029  53.2315004 134.6315827
 113.2110012  47.4844997 123.7739988 112.6890012  47.8414997 123.0549988
 113.1780012  48.1594997 124.4519988 113.1351634  47.6245413 123.7673145
 111.5600012  44.7244997 122.3239988 111.6560012  45.3914997 121.6439988
 111.4200012  43.9084997 121.8429988 111.5542272  44.7055655 122.1658347
 110.7290012  46.1044997 127.9449988 110.5790012  45.1594997 127.9249988
 110.3760012  46.3854997 128.7889988 110.6607448  46.0131481 128.0563705
  95.7650012  48.1824997 131.9559988  95.9490012  48.1004997 131.0199988
  96.6140012  48.0584997 132.3789988  95.9050151  48.1545073 131.8851451
 111.5860012  48.0744997 137.5839988 112.1690012  47.3404997 137.7759988
 112.1500012  48.8464997 137.6309988 111.7419769  48.0784227 137.6166159
 113.0820012  45.9774997 138.2689988 112.2190012  45.5984997 138.1029988
 113.6870012  45.2384997 138.1939988 113.0456119  45.8258268 138.2361528
 110.8070012  42.1324997 121.4419988 111.4180012  41.7614997 122.0789988
 109.9710012  41.7114997 121.6379988 110.7775032  42.0247554 121.5557035
 110.4400012  43.6874997 126.4079988 110.7200012  42.7804997 126.5319988
 111.1990012  44.1214997 126.0189988 110.5809277  43.6220942 126.3723682
 111.0520012  44.2684997 131.8439988 111.9850012  44.4804997 131.8089988
 110.8170012  44.3704997 132.7659988 111.1479244  44.3113100 131.9638892
 111.0810012  45.0054997 134.6199988 110.2380012  45.2734997 134.9859988
 111.5230012  45.8274997 134.4089988 111.0254158  45.1533291 134.6415491
  95.3620012  43.4534997 138.0969988  96.2820012  43.3314997 138.3329988
  94.9130012  42.7034997 138.4859988  95.4271580  43.3353727 138.1819006
 113.3640012  38.9854997 139.9729988 113.7140012  38.3314997 139.3679988
 113.5110012  39.8224997 139.5329988 113.4317887  39.0091548 139.8306858
 111.0530012  40.9504997 126.4559988 111.2360012  40.5014997 127.2819988
 110.4540012  40.3654997 125.9929988 110.9970202  40.8099975 126.5063275
  96.5830012  41.7654997 130.9879988  97.0290012  40.9734997 131.2899988
  97.0500012  42.4814997 131.4179988  96.7070831  41.7540685 131.0874006
  94.8870012  44.7644997 132.0569988  95.3790012  44.5434997 131.2659988
  95.2500012  45.6054997 132.3379988  95.0033126  44.8478357 131.9867531
 112.8840012  41.0944997 138.3219988 111.9660012  41.3654997 138.2869988
 113.0070012  40.5594997 137.5379988 112.7749729  41.0592508 138.2111923
 112.9200012  41.0174997 122.9839988 113.3320012  40.2964997 122.5089988
 113.6020012  41.6874997 123.0429988 113.0685885  41.0092368 122.9268915
  95.2010012  41.0224997 126.1109988  94.2760012  41.2314997 125.9819988
  95.6550012  41.5064997 125.4209988  95.1357292  41.1165343 126.0000720
 109.9720012  56.0064997 128.0569988 110.6240012  55.6594997 127.4489988
 110.4820012  56.4954997 128.7029988 110.1302637  56.0250597 128.0610236
  95.1650012  39.7604997 134.4549988  94.5000012  39.5144997 135.0989988
  94.7220012  40.3824997 133.8779988  95.0141318  39.8109410 134.4650898
  97.3570012  52.9354997 138.5999988  96.5360012  53.1104997 138.1389988
  97.1040012  52.8624997 139.5199988  97.2105585  52.9495544 138.6613561
 100.3110012  53.9104997 134.8579988  99.8860012  54.7194997 134.5759988
 101.2150012  53.9954997 134.5559988 100.3749975  54.0329300 134.7784816
 104.6220012  55.3094997 137.8179988 104.8070012  54.9754997 138.6959988
 105.4680012  55.6184997 137.4959988 104.7617539  55.3056047 137.8945605
 106.9670012  56.5954997 137.0619988 107.6440012  55.9624997 136.8219988
 107.2890012  56.9964997 137.8689988 107.1031637  56.5631154 137.1382793
 111.8840012  39.1844997 136.1409988 111.0720012  39.5094997 135.7539988
 112.1170012  38.4244997 135.6079988 111.8042203  39.1262758 136.0158880
  97.7130012  57.1664997 134.9059988  96.9920012  57.6064997 134.4549988
  97.3470012  56.9154997 135.7539988  97.5649651  57.1927242 134.9589640
 100.1800012  56.7664997 133.9359988  99.3150012  56.8384997 134.3399988
 100.1250012  57.3134997 133.1519988 100.0542085  56.8502685 133.8853362
 104.8900012  56.6544997 133.1109988 104.4340012  57.1834997 132.4569988
 105.0530012  57.2574997 133.8359988 104.8496068  56.8084607 133.1194838
 107.2180012  55.5324997 134.0559988 106.3130012  55.6974997 133.7899988
 107.6470012  56.3854997 133.9909988 107.1521324  55.6704339 134.0107976
 109.8220012  57.1024997 134.3509988 109.6400012  58.0184997 134.1409988
 109.9990012  56.6924997 133.5049988 109.8210210  57.1724822 134.2077885
  97.1270012  55.7894997 131.8159988  97.1090012  55.3644997 132.6729988
  97.9320012  55.4714997 131.4069988  97.2333529  55.6883013 131.8780946
  99.2690012  54.4994997 130.4709988  99.0500012  53.5834997 130.6409988
 100.0930012  54.6394997 130.9369988  99.3504420  54.3930520 130.5572774
 101.8060012  54.9694997 131.3199988 102.0190012  54.0814997 131.0329988
 101.8700012  54.9354997 132.2739988 101.8438232  54.8433102 131.4097397
 105.3140012  40.6334997 130.4639988 104.6400012  40.0044997 130.7199988
 105.8780012  40.1494997 129.8609988 105.2979230  40.4818744 130.4175340
 110.4570012  38.7414997 130.5769988 111.0610012  39.2884997 130.0749988
 109.5870012  39.0604997 130.3359988 110.4221208  38.8595137 130.4756886
 112.1840012  39.8794997 128.9099988 112.7960012  39.3654997 128.3829988
 112.5660012  40.7574997 128.9329988 112.3193371  39.9277866 128.8410041
  97.6410012  39.2674997 128.2859988  96.8640012  39.0334997 127.7789988
  98.1710012  38.4704997 128.2949988  97.6062330  39.1276988 128.2177742
  96.4770012  39.0654997 124.0899988  96.9160012  39.6764997 123.4979988
  95.8440012  39.6034997 124.5639988  96.4514514  39.2219257 124.0730930
 102.2200012  39.1944997 128.0999988 103.0950012  39.5824997 128.0699988
 102.0840012  38.9794997 129.0219988 102.3213695  39.2185184 128.2206440
 107.7770012  39.2244997 129.7489988 107.8530012  39.3194997 128.7989988
 107.5020012  38.3164997 129.8779988 107.7502321  39.1147867 129.6365079
 109.1300012  39.2504997 125.4409988 108.4280012  39.8654997 125.2309988
 108.6860012  38.4124997 125.5719988 108.9736450  39.2215639 125.4299000
  96.3780012  55.0134997 124.9869988  95.6930012  54.9754997 124.3199988
  96.3820012  55.9264997 125.2759988  96.2846998  55.1316733 124.9346771
  98.3380012  40.9814997 122.5319988  98.8300012  40.3514997 122.0049988
  98.9620012  41.2774997 123.1949988  98.4895688  40.9353804 122.5495482
 103.3640012  41.2744997 124.9889988 103.5420012  40.6284997 125.6719988
 103.3110012  42.1084997 125.4559988 103.3811999  41.2988009 125.1455917
 105.2430012  56.2234997 123.3849988 106.1090012  56.5894997 123.2069988
 104.9960012  55.7834997 122.5709988 105.3282392  56.2141756 123.2506289
 111.9520012  55.7864997 126.0639988 111.7570012  55.0384997 125.4989988
 111.9130012  56.5444997 125.4809988 111.9200380  55.7866099 125.9078384
  97.5990012  39.7814997 137.8039988  97.2330012  39.0164997 138.2459988
  98.5120012  39.8104997 138.0899988  97.6722736  39.6805640 137.9032502
  99.5720012  39.1324997 139.3399988 100.4700012  38.8584997 139.1549988
  99.1850012  38.3894997 139.8039988  99.6426612  38.9945914 139.3773643
  98.1960012  55.9334997 122.0129988  97.9290012  56.2204997 122.8859988
  98.9680012  55.3874997 122.1649988  98.2637488  55.8990294 122.1531050
 107.9930012  38.4644997 139.5219988 108.0700012  38.0384997 140.3759988
 108.8870012  38.4784997 139.1789988 108.1243428  38.4080879 139.5925310
 111.1690012  54.5374997 138.2139988 110.3870012  54.3514997 137.6939988
 111.0970012  55.4664997 138.4319988 111.0522274  54.6376643 138.1723018
 125.5750012  48.4234997 128.2449988 125.6640012  49.3674997 128.1129988
 124.9370012  48.1484997 127.5869988 125.5009081  48.5154830 128.1379614
 124.5080012  47.6784997 131.6639988 124.4700012  47.0324997 132.3689988
 124.1860012  47.2124997 130.8929988 124.4592333  47.5269408 131.6562978
 116.8770012  47.2934997 133.2569988 116.9180012  46.6674997 133.9799988
 117.5800012  47.9174997 133.4389988 116.9776363  47.2921196 133.3806044
 128.2140012  50.6174997 129.9649988 127.7740012  49.8974997 130.4159988
 128.2010012  51.3384997 130.5949988 128.1520226  50.6163731 130.1118494
 117.8000012  51.7434997 131.7919988 117.4310012  50.9414997 131.4219988
 118.7410012  51.5744997 131.8379988 117.8767289  51.6110153 131.7476316
 114.4100012  45.4034997 127.1849988 113.9630012  46.2494997 127.1659988
 113.8490012  44.8234997 126.6689988 114.2729900  45.4409916 127.1126801
 115.1210012  47.5654997 129.3099988 115.3340012  46.7954997 129.8379988
 115.8590012  47.6544997 128.7069988 115.2499044  47.4721968 129.3007123
 125.3260012  55.7224997 130.1769988 125.9460012  55.0454997 129.9039988
 125.1180012  55.5044997 131.0859988 125.3826726  55.6004800 130.2624812
 122.8980012  50.1114997 132.0699988 123.2020012  49.4254997 131.4749988
 123.6190012  50.2294997 132.6879988 123.0370671  50.0336305 132.0721816
 131.5610012  41.7124997 132.9309988 131.6100012  42.3224997 133.6659988
 131.9860012  42.1734997 132.2079988 131.6251746  41.8583796 132.9339175
 126.0390012  44.5054997 132.3969988 126.1810012  43.5594997 132.4179988
 125.9320012  44.7124997 131.4689988 126.0439919  44.4038246 132.2743408
 119.1930012  42.6064997 129.6699988 119.2370012  43.4664997 129.2509988
 118.7360012  42.0544997 129.0359988 119.1372240  42.6494422 129.5269864
 126.9160012  42.7374997 128.0709988 127.5620012  42.4084997 128.6949988
 127.4260012  43.2554997 127.4479988 127.0734299  42.7624450 128.0722731
 115.8140012  45.0034997 130.4319988 116.4670012  44.4534997 130.8639988
 115.8380012  44.7294997 129.5149988 115.9066683  44.8911466 130.3672123
 120.9700012  46.5534997 129.6469988 121.5860012  46.0274997 130.1569988
 120.3840012  45.9134997 129.2439988 120.9750810  46.3949208 129.6623173
 131.9520012  43.1904997 135.1659988 131.2640012  43.8484997 135.0709988
 131.9680012  42.9934997 136.1029988 131.8599540  43.2539819 135.2795990
 118.0040012  41.5244997 133.7439988 117.7850012  42.0544997 132.9779988
 117.3360012  41.7514997 134.3909988 117.8837600  41.6276906 133.7266379
 125.3730012  51.0244997 127.2879988 125.0770012  50.7024997 126.4369988
 125.0480012  51.9244997 127.3289988 125.2886371  51.1020215 127.1771801
 120.5730012  49.2004997 134.0309988 119.8330012  49.7984997 134.1349988
 121.2870012  49.7544997 133.7159988 120.5682237  49.3572831 134.0026465
 128.6800012  42.0284997 130.0509988 128.4640012  41.2624997 130.5839988
 129.3350012  42.5004997 130.5639988 128.7390632  41.9875889 130.1932861
 117.5970012  43.4164997 131.6959988 118.2110012  44.0494997 132.0689988
 118.1090012  42.9444997 131.0399988 117.7501981  43.4392267 131.6582908
 118.9800012  51.1644997 134.8179988 118.9750012  52.0444997 134.4399988
 118.1270012  51.0814997 135.2429988 118.8639464  51.2736117 134.8237907
 115.1010012  50.8354997 125.5999988 114.8290012  51.0644997 124.7119988
 115.1470012  51.6734997 126.0609988 115.0699482  50.9801318 125.5406273
 128.7260012  52.4574997 132.3129988 127.7850012  52.5154997 132.4749988
 129.0030012  53.3634997 132.1759988 128.6344679  52.5879443 132.3166815
 129.0270012  40.7434997 133.7309988 128.2910012  41.3544997 133.6929988
 129.7100012  41.1584997 133.2039988 129.0186541  40.8831374 133.6545832
 122.0300012  38.8304997 131.1959988 121.9130012  37.8814997 131.1419988
 121.1750012  39.1624997 131.4699988 121.8984212  38.7455571 131.2256497
 126.9780012  54.2384997 128.9379988 127.4040012  53.5314997 128.4529988
 127.2950012  55.0394997 128.5219988 127.0791683  54.2501017 128.8153680
 128.1380012  52.1394997 127.4469988 127.8800012  51.4494997 126.8359988
 128.2090012  51.6964997 128.2929988 128.1122856  51.9852124 127.4776885
 129.8240012  50.7054997 135.9239988 129.9640012  50.1144997 135.1849988
 129.9910012  51.5784997 135.5679988 129.8657411  50.7425428 135.7746894
 124.2970012  47.6674997 125.6969988 123.5850012  48.2024997 125.3449988
 124.9880012  47.7234997 125.0369988 124.2930132  47.7482543 125.5596289
 124.3500012  46.1254997 122.7359988 125.0510012  46.1474997 123.3869988
 124.6530012  45.4974997 122.0789988 124.4868133  46.0437070 122.7363369
 131.6660012  47.0454997 133.9899988 131.0130012  47.7404997 134.0799988
 132.1310012  47.2554997 133.1809988 131.6395274  47.1690643 133.8928462
 127.7020012  47.8774997 126.6489988 126.9700012  48.1054997 127.2219988
 128.1500012  47.1634997 127.1029988 127.6622725  47.8122145 126.7888816
 127.6000012  46.0514997 135.7159988 127.6800012  46.8144997 136.2879988
 126.9980012  46.3304997 135.0259988 127.5295756  46.1937134 135.7010589
 119.3480012  48.5074997 128.5309988 119.0170012  48.1374997 127.7129988
 119.9360012  47.8374997 128.8779988 119.3821873  48.3661156 128.4658102
 120.7140012  51.9354997 131.2119988 120.6200012  51.3574997 130.4559988
 121.4440012  51.5644997 131.7089988 120.7997387  51.8061663 131.1755342
 119.7140012  47.2764997 132.1649988 120.2800012  47.3974997 131.4019988
 120.0330012  47.9134997 132.8029988 119.8345474  47.3792219 132.1469862
 126.0230012  52.7794997 132.8989988 125.7830012  53.4414997 133.5469988
 125.8250012  51.9454997 133.3239988 125.9633808  52.7573134 133.0451524
 120.5940012  51.6754997 136.8819988 120.2830012  52.4574997 137.3369988
 119.9440012  51.5224997 136.1959988 120.4635558  51.7619105 136.8515871
 126.5730012  47.0394997 124.3339988 127.1530012  47.1894997 125.0809988
 126.9870012  47.5104997 123.6099988 126.7082997  47.1236578 124.3384058
 117.5140012  47.8734997 136.1099988 117.5850012  48.5244997 136.8089988
 116.6240012  47.9764997 135.7749988 117.4033005  47.9765427 136.1603495
 124.3000012  53.7764997 127.7689988 124.7740012  54.0714997 128.5459988
 123.7370012  54.5144997 127.5359988 124.2888184  53.9167247 127.8439628
 118.8340012  53.7474997 137.6449988 118.8410012  53.6114997 136.6979988
 117.9180012  53.6294997 137.8969988 118.7111714  53.7129430 137.5494666
 130.2720012  38.7894997 124.1469988 129.3720012  38.9284997 124.4419988
 130.5240012  39.6204997 123.7449988 130.1828702  38.9209074 124.1330205
 118.3380012  47.5774997 126.1199988 118.0460012  48.3454997 125.6299988
 117.6640012  46.9174997 125.9579988 118.2068111  47.5935587 126.0308978
 131.4610012  53.1554997 122.5229988 131.5350012  54.0944997 122.6939988
 132.3670012  52.8504997 122.4669988 131.5935100  53.2426722 122.5388119
 114.4310012  49.9404997 134.9349988 113.9300012  49.9124997 134.1199988
 114.4360012  49.0344997 135.2449988 114.3630944  49.8142396 134.8653226
 114.1810012  52.7204997 131.8189988 115.1270012  52.5764997 131.7999988
 114.0690012  53.5044997 132.3559988 114.2952727  52.8068046 131.8890072
 132.3790012  53.3864997 137.5019988 132.3300012  52.4314997 137.4649988
 131.5520012  53.6544997 137.9029988 132.2604940  53.2918998 137.5511375
 123.3580012  52.9604997 136.3779988 123.4450012  53.7864997 136.8529988
 122.4940012  52.6304997 136.6269988 123.2531964  53.0289878 136.4766549
 123.7720012  56.7324997 126.1839988 123.6970012  56.6114997 125.2369988
 123.8050012  57.6824997 126.3019988 123.7662068  56.8442646 126.0704967
 117.4250012  55.5214997 127.9649988 117.5780012  55.1734997 128.8429988
 116.5750012  55.1654997 127.7099988 117.3309166  55.4256216 128.0508079
 126.8740012  55.8864997 123.1859988 127.2490012  55.1424997 122.7149988
 126.8780012  55.6164997 124.1049988 126.9259125  55.7480986 123.2456483
 126.5430012  55.8124997 125.9349988 125.6070012  55.9124997 126.1139988
 126.8230012  55.1034997 126.5139988 126.4529553  55.7303406 126.0377087
 129.5310012  44.8794997 137.9819988 129.1240012  45.3604997 137.2609988
 129.5720012  43.9744997 137.6739988 129.4808437  44.8229374 137.8416683
 116.6800012  51.2634997 135.9789988 116.8960012  50.9024997 136.8379988
 115.8250012  50.8894997 135.7689988 116.5939292  51.1634111 136.0683386
 119.2990012  39.7334997 131.9739988 118.4370012  39.6464997 131.5659988
 119.2760012  40.5894997 132.4019988 119.1780409  39.8372883 131.9760589
 123.9620012  39.4554997 135.3489988 124.3820012  39.0404997 136.1019988
 123.0290012  39.2774997 135.4659988 123.8933644  39.3745900 135.4679539
 127.2880012  43.2114997 136.2019988 126.7740012  43.0854997 136.9999988
 127.1330012  44.1234997 135.9579988 127.1966852  43.3176132 136.2782158
 128.0510012  48.0724997 121.9639988 128.0930012  47.8494997 121.0339988
 128.9000012  48.4714997 122.1529988 128.1715280  48.0959438 121.8623554
 123.6230012  41.9484997 122.6339988 123.3700012  41.9674997 123.5569988
 123.3670012  41.0764997 122.3319988 123.5537481  41.8332558 122.7196175
 119.3900012  44.6994997 133.0689988 118.7480012  44.6584997 133.7779988
 119.4270012  45.6254997 132.8309988 119.3070664  44.8191430 133.1339219
 119.3870012  44.9204997 127.9809988 118.4940012  44.5794997 127.9219988
 119.8370012  44.5434997 127.2249988 119.3258130  44.8229631 127.8707702
 124.9220012  45.3364997 126.7979988 124.5130012  46.1514997 126.5069988
 125.6430012  45.1964997 126.1839988 124.9634537  45.4292018 126.6751342
 124.0240012  45.5114997 138.2859988 123.4620012  44.8074997 138.6069988
 124.8510012  45.3914997 138.7539988 124.0587095  45.3987883 138.3932330
 125.9270012  44.7824997 129.6119988 125.7320012  45.3874997 128.8969988
 126.1080012  43.9484997 129.1779988 125.9247614  44.7526300 129.4554405
 117.1400012  45.0194997 134.9359988 117.1020012  45.4194997 135.8049988
 116.6490012  44.2024997 135.0269988 117.0684684  44.9638069 135.0671059
 120.5060012  42.3934997 121.7349988 120.0750012  41.9484997 122.4649988
 119.7880012  42.7654997 121.2229988 120.3499438  42.3828940 121.7656799
 113.7480012  42.1354997 128.7869988 114.3790012  42.1064997 129.5059988
 114.1970012  41.7104997 128.0559988 113.8950918  42.0740836 128.7866441
 115.0220012  42.8814997 124.2109988 115.4960012  43.4724997 123.6259988
 114.3050012  43.4124997 124.5579988 114.9899341  43.0340867 124.1778836
 125.1910012  46.4204997 134.2829988 125.5140012  45.7894997 133.6399988
 124.7510012  45.8854997 134.9439988 125.1757484  46.2618387 134.2843198
 121.9680012  42.3474997 129.0669988 121.0570012  42.4044997 129.3559988
 122.4740012  42.2874997 129.8779988 121.9116899  42.3471941 129.2161184
 116.7970012  43.9764997 127.8939988 115.9070012  44.0764997 127.5539988
 117.0930012  43.1344997 127.5479988 116.7152823  43.8763545 127.8007213
 120.4500012  43.9764997 125.5509988 121.3810012  44.1054997 125.7289988
 120.2350012  44.6464997 124.9009988 120.5484247  44.0846565 125.4875747
 126.3730012  41.5824997 132.3319988 125.6970012  41.7134997 132.9959988
 125.8880012  41.4274997 131.5209988 126.2147146  41.5795157 132.3134469
 119.1240012  45.1714997 123.1169988 118.5810012  44.7914997 122.4259988
 119.9570012  45.3654997 122.6889988 119.1623631  45.1457125 122.9644501
 129.6610012  57.2544997 138.6079988 129.8610012  57.6784997 137.7739988
 130.3160012  57.5974997 139.2149988 129.7770072  57.3589857 138.5758592
 117.2590012  49.7284997 138.2159988 117.9910012  49.9824997 138.7779988
 116.4790012  49.9324997 138.7319988 117.2537073  49.7908160 138.3626151
 123.2880012  45.1354997 130.9539988 123.8530012  44.5884997 130.4069988
 123.1410012  44.6134997 131.7429988 123.3453380  44.9902259 130.9858695
 118.2900012  41.2714997 127.3729988 117.9730012  40.3694997 127.3369988
 119.0720012  41.2734997 126.8199988 118.3522408  41.1482474 127.2933569
 121.9150012  43.5234997 133.3679988 121.0790012  43.9774997 133.4789988
 122.4390012  43.7994997 134.1199988 121.8715416  43.6228660 133.4848119
 122.4590012  49.7364997 125.0529988 121.7140012  49.2294997 124.7309988
 122.3250012  49.7854997 125.9999988 122.3388776  49.6736940 125.1368647
 129.6090012  48.8694997 133.8399988 130.2510012  49.3264997 133.2959988
 128.7790012  48.9824997 133.3769988 129.5845963  48.9472704 133.7030177
 126.3570012  42.5504997 123.2519988 125.4180012  42.6624997 123.1009988
 126.6540012  43.4074997 123.5589988 126.2687583  42.6815981 123.2728337
 123.9780012  49.9204997 136.2899988 123.6330012  49.5394997 137.0969988
 123.7780012  50.8544997 136.3609988 123.9037527  49.9945135 136.4100689
 127.0750012  44.4174997 124.9129988 127.9670012  44.2804997 125.2319988
 127.1320012  45.2084997 124.3759988 127.2046504  44.5056052 124.8840818
 117.5840012  49.0314997 130.8229988 118.3290012  49.0294997 130.2219988
 117.6620012  48.2084997 131.3039988 117.6964995  48.9198887 130.8058282
 124.5850012  51.1954997 124.0789988 124.2890012  52.0214997 124.4599988
 123.8820012  50.5754997 124.2749988 124.4494914  51.2248199 124.1576443
 114.5920012  47.4924997 136.1379988 114.8150012  47.0744997 136.9699988
 113.9900012  46.8794997 135.7149988 114.5411759  47.3524668 136.1947022
 121.6080012  47.0094997 138.3509988 121.3120012  46.8434997 137.4559988
 122.5400012  46.7894997 138.3399988 121.6934166  46.9570640 138.2270536
 126.2290012  52.3824997 136.2409988 125.3280012  52.5654997 135.9729988
 126.2630012  52.6414997 137.1609988 126.1103139  52.4425849 136.3288099
 131.9600012  44.6274997 124.6079988 131.4060012  44.2314997 123.9359988
 132.0600012  45.5374997 124.3299988 131.8977059  44.6963586 124.4784401
 131.9230012  50.4274997 137.4449988 131.0720012  50.6654997 137.0779988
 132.5140012  50.4104997 136.6919988 131.8862487  50.4578258 137.2928893
 130.2550012  53.4134997 125.0729988 129.8820012  52.5874997 125.3819988
 130.5330012  53.2304997 124.1749988 130.2415222  53.2757430 124.9939473
 127.4160012  48.2214997 132.0939988 126.4870012  47.9894997 132.0669988
 127.8670012  47.4444997 131.7639988 127.3499216  48.0847238 132.0456917
 119.9590012  52.5494997 128.2269988 120.4860012  53.3224997 128.0269988
 119.0790012  52.7744997 127.9249988 119.9122031  52.6857545 128.1587912
 115.7140012  47.4114997 122.8139988 116.3300012  48.0384997 123.1939988
 114.8520012  47.7274997 123.0859988 115.6817698  47.5399430 122.9027183
 121.3860012  50.2124997 127.8029988 121.1450012  51.1374997 127.8449988
 120.6450012  49.7534997 128.1999988 121.2529225  50.2770933 127.8623742
 121.9010012  54.3614997 134.1189988 122.2630012  55.2164997 133.8849988
 122.4320012  54.0694997 134.8589988 122.0224473  54.4391060 134.1870855
 120.0690012  55.2344997 127.3489988 119.1190012  55.3394997 127.3999988
 120.4210012  56.0544997 127.6929988 119.9864195  55.3598800 127.4025502
 125.4450012  50.4604997 133.8189988 125.0190012  50.2334997 134.6459988
 126.0250012  49.7224997 133.6369988 125.4651868  50.3295299 133.9075830
 127.6480012  51.3894997 122.8929988 128.0010012  51.0094997 123.6969988
 126.6990012  51.2964997 122.9799988 127.5680918  51.3248956 123.0148532
 128.1030012  55.0124997 136.2889988 127.5020012  54.4574997 135.7929988
 128.3850012  55.6794997 135.6619988 128.0588804  55.0266625 136.1364849
 132.1510012  55.8694997 123.0939988 132.8950012  56.4554997 122.9539988
 131.4570012  56.4374997 123.4269988 132.1589899  56.0265798 123.1198778
 116.2260012  42.2454997 135.6959988 115.3330012  42.5844997 135.6279988
 116.1270012  41.3904997 136.1139988 116.0904164  42.1762588 135.7432235
 128.5140012  50.0624997 125.1199988 128.2360012  49.3344997 125.6759988
 129.4410012  50.1814997 125.3249988 128.6013124  49.9788802 125.2238845
 115.8770012  54.0504997 134.1309988 116.0940012  53.1184997 134.0999988
 116.1230012  54.3244997 135.0139988 115.9399549  53.9600636 134.2461763
 121.7390012  52.5014997 121.3399988 121.9780012  51.7534997 120.7929988
 121.4700012  52.1134997 122.1729988 121.7353675  52.3466638 121.3776865
 120.6760012  52.0714997 123.7959988 120.8220012  51.5514997 124.5859988
 120.6730012  52.9784997 124.1029988 120.6955792  52.1228842 123.9456117
 117.1290012  49.3244997 124.3069988 116.4430012  49.6764997 124.8739988
 117.6510012  50.0874997 124.0599988 117.1056852  49.4758578 124.3512118
 124.9600012  41.9864997 134.5859988 125.6590012  42.0604997 135.2359988
 124.5790012  41.1224997 134.7399988 125.0041767  41.8797624 134.6958322
 125.7450012  41.6384997 125.6829988 125.9650012  42.1104997 124.8799988
 126.3030012  42.0334997 126.3529988 125.8504968  41.7564285 125.6637331
 123.4130012  53.7694997 124.5459988 122.5970012  54.2664997 124.5979988
 123.9430012  54.2444997 123.9059988 123.3729161  53.9017722 124.4665956
 122.9450012  43.3664997 126.5179988 123.7570012  43.8714997 126.5639988
 122.7000012  43.2214997 127.4319988 123.0230520  43.4160375 126.6478517
 123.4800012  44.3524997 135.7019988 123.5990012  44.9264997 136.4599988
 124.1360012  43.6644997 135.8169988 123.5849025  44.3379858 135.8211321
 123.8280012  40.4474997 127.4559988 123.4820012  41.0654997 128.0999988
 124.4870012  40.9484997 126.9739988 123.8696968  40.5996278 127.4789383
 120.7520012  54.8134997 124.5269988 120.9120012  55.6124997 124.0269988
 120.5540012  55.1194997 125.4119988 120.7471637  54.9644020 124.5781144
 119.4860012  41.5104997 124.1429988 119.4030012  42.3994997 124.4899988
 120.3760012  41.2454997 124.3749988 119.5949469  41.5961430 124.2217626
 129.6850012  42.2594997 136.5369988 128.7680012  42.5224997 136.4499988
 130.0200012  42.2564997 135.6409988 129.6048613  42.2950761 136.4038837
 128.2870012  46.0104997 130.6329988 127.4890012  45.5954997 130.3049988
 128.7320012  45.3194997 131.1239988 128.2379885  45.8603543 130.6544889
 117.7450012  51.9384997 123.2039988 118.3370012  52.6374997 123.4799988
 118.2040012  51.5054997 122.4839988 117.8881142  51.9757049 123.1444830
 116.0610012  44.6024997 122.3199988 116.0160012  45.5414997 122.4979988
 115.1730012  44.3664997 122.0499988 115.9348574  44.6991892 122.3078912
 129.3730012  55.2664997 132.2559988 129.2180012  55.9444997 131.5979988
 130.3060012  55.3384997 132.4589988 129.4778657  55.3689546 132.1934360
 116.8690012  39.3844997 130.9929988 116.6400012  39.4434997 130.0649988
 116.4260012  38.5924997 131.2989988 116.7778530  39.2855753 130.9074786
 115.7990012  53.3244997 127.1529988 114.9670012  53.7974997 127.1799988
 116.3450012  53.8344997 126.5549988 115.7590352  53.4581332 127.0758463
 115.0870012  55.9374997 138.4829988 115.6280012  55.7204997 139.2429988
 114.6060012  55.1314997 138.2929988 115.0959951  55.7989270 138.5612576
 119.6850012  54.8564997 140.1029988 120.4520012  54.3974997 140.4439988
 119.6630012  54.6304997 139.1739988 119.7871275  54.7630186 140.0240101
 123.7770012  54.3644997 121.4789988 123.1330012  53.7334997 121.7999988
 124.5390012  53.8334997 121.2469988 123.7918077  54.2062920 121.4916011
 126.2620012  53.2364997 138.8329988 125.9110012  52.3804997 139.0759988
 126.9880012  53.3794997 139.4399988 126.3120769  53.1385636 138.9483619
 128.3810012  54.1814997 121.7119988 128.6640012  53.3874997 122.1649988
 129.1210012  54.4144997 121.1519988 128.5198006  54.1043376 121.6982715
 114.9940012  49.7474997 139.4369988 115.1380012  48.8454997 139.1509988
 114.2220012  50.0334997 138.9499988 114.9092753  49.6626816 139.3319505
 119.3360012  50.0914997 121.5699988 119.4000012  49.2974997 122.1009988
 119.9890012  49.9724997 120.8799988 119.4330241  49.9667148 121.5494317
 121.6500012  49.7174997 138.8699988 121.3210012  49.9884997 138.0129988
 121.8020012  48.7764997 138.7829988 121.6254809  49.6273862 138.7408244
 124.6880012  51.1384997 121.3059988 124.4190012  51.3184997 122.2069988
 124.4820012  50.2124997 121.1739988 124.6233427  51.0380261 121.4115073
 127.3840012  49.6334997 136.2529988 128.1300012  50.2214997 136.1339988
 126.6270012  50.2154997 136.3169988 127.3837820  49.7927143 136.2453590
 115.8270012  46.9474997 138.8569988 116.2350012  46.0904997 138.7359988
 115.5670012  46.9624997 139.7779988 115.8477568  46.8320807 138.9649588
 120.4850012  48.0634997 123.8759988 120.0250012  47.5794997 124.5619988
 120.7400012  47.3954997 123.2399988 120.4564902  47.9068731 123.8839334
 119.7740012  45.9564997 136.2319988 119.1560012  46.6314997 136.5119988
 120.1180012  46.2774997 135.3979988 119.7359132  46.0922411 136.1576262
 121.5560012  46.3064997 122.1379988 121.3760012  46.1524997 121.2109988
 122.5060012  46.4144997 122.1829988 121.6597776  46.3000175 122.0171843
 124.7940012  48.4284997 139.5089988 125.7470012  48.5114997 139.4819988
 124.6330012  47.7164997 140.1289988 124.9026426  48.3436746 139.5890579
 130.9460012  48.6614997 121.5839988 130.6720012  48.2364997 120.7709988
 130.9850012  49.5924997 121.3669988 130.9137699  48.7292484 121.4433610
 120.1130012  43.3114997 137.3139988 120.2630012  42.5824997 136.7119988
 120.1160012  44.0884997 136.7549988 120.1339302  43.3167851 137.1560692
 120.5260012  41.6814997 134.8069988 121.0620012  42.1324997 134.1549988
 119.6740012  41.5734997 134.3839988 120.4842178  41.7286390 134.6605756
 122.1080012  47.1204997 135.0459988 122.8580012  46.9644997 134.4729988
 121.7690012  47.9724997 134.7709988 122.1648921  47.2142968 134.9303561
 126.5230012  44.9354997 140.0749988 126.7160012  44.0044997 139.9629988
 127.3810012  45.3604997 140.0639988 126.6652934  44.8656531 140.0582031
 127.8400012  47.7244997 138.1519988 127.5590012  48.4334997 137.5739988
 128.7830012  47.6514997 138.0009988 127.9289291  47.8116711 138.0524967
 118.5920012  44.5094997 139.2259988 117.8250012  43.9774997 139.0149988
 119.2710012  44.1994997 138.6259988 118.5787877  44.3948300 139.1160716
 121.3320012  39.1374997 135.2379988 121.2330012  40.0844997 135.1329988
 120.5890012  38.7654997 134.7619988 121.2181184  39.2165863 135.1593621
 122.5960012  43.4594997 138.8019988 122.3600012  43.2394997 139.7029988
 121.8120012  43.2524997 138.2919988 122.4578504  43.4014586 138.8563431
 125.3110012  42.5864997 137.8769988 124.3640012  42.6184997 138.0099988
 125.6240012  41.9614997 138.5309988 125.2236707  42.5063998 137.9836060
 126.9450012  41.2204997 139.8829988 126.8490012  40.2684997 139.8769988
 126.6240012  41.4894997 140.7429988 126.8884070  41.1264035 139.9985441
 116.7720012  42.4304997 138.9299988 116.9840012  41.7234997 138.3199988
 116.6610012  41.9924997 139.7739988 116.7859721  42.2747084 138.9606843
 121.5530012  38.4314997 137.9089988 122.2650012  37.7914997 137.8949988
 121.4520012  38.6984997 136.9959988 121.6368066  38.3800079 137.7835677
 121.9070012  40.1144997 139.9629988 121.7750012  39.6384997 139.1429988
 121.3080012  40.8584997 139.9079988 121.8079071  40.1499618 139.8432886
 121.4530012  56.9974997 123.1389988 122.3860012  57.1554997 123.2829988
 121.1890012  57.6724997 122.5149988 121.5449888  57.1104510 123.0742842
 115.0220012  51.6334997 122.6219988 115.9360012  51.7124997 122.8959988
 115.0290012  50.9464997 121.9559988 115.1481131  51.5513961 122.5694393
 113.6710012  57.0264997 127.6999988 113.0240012  56.5644997 127.1669988
 114.0250012  56.3544997 128.2819988 113.6303849  56.8724723 127.7057959
 114.5410012  55.1074997 129.5039988 114.2060012  54.2274997 129.6759988
 114.7630012  55.4524997 130.3689988 114.5251783  55.0337500 129.6444208
 132.0890012  55.9164997 132.4849988 132.0680012  56.1014997 133.4239988
 132.7800012  56.4854997 132.1439988 132.1794618  56.0186606 132.5673864
 131.6530012  55.4844997 135.4069988 131.1650012  54.7484997 135.0349988
 132.2020012  55.0904997 136.0849988 131.6604820  55.3305889 135.4477813
 130.1030012  51.2734997 140.0449988 129.2370012  51.1684997 140.4389988
 130.4800012  52.0324997 140.4909988 130.0353308  51.3616900 140.1592393
 131.4040012  49.5304997 125.5589988 132.2540012  49.9514997 125.6859988
 131.4100012  48.7904997 126.1659988 131.5211372  49.4880803 125.6584344
 131.7990012  47.5834997 127.3819988 131.0720012  47.1044997 127.7799988
 132.3800012  47.7894997 128.1149988 131.7780473  47.5458103 127.5354528
 131.5580012  50.3684997 132.3299988 132.3910012  49.9904997 132.0499988
 131.6700012  51.3114997 132.2109988 131.6872647  50.4442218 132.2755487
 130.0440012  53.2464997 134.6369988 129.3970012  53.5714997 135.2629988
 129.5270012  52.8064997 133.9629988 129.8854029  53.2315004 134.6315827
 132.0670012  47.4844997 123.7739988 131.5450012  47.8414997 123.0549988
 132.0340012  48.1594997 124.4519988 131.9911634  47.6245413 123.7673145
 130.4160012  44.7244997 122.3239988 130.5120012  45.3914997 121.6439988
 130.2760012  43.9084997 121.8429988 130.4102272  44.7055655 122.1658347
 129.5850012  46.1044997 127.9449988 129.4350012  45.1594997 127.9249988
 129.2320012  46.3854997 128.7889988 129.5167448  46.0131481 128.0563705
 114.6210012  48.1824997 131.9559988 114.8050012  48.1004997 131.0199988
 115.4700012  48.0584997 132.3789988 114.7610151  48.1545073 131.8851451
 130.4420012  48.0744997 137.5839988 131.0250012  47.3404997 137.7759988
 131.0060012  48.8464997 137.6309988 130.5979769  48.0784227 137.6166159
 131.9380012  45.9774997 138.2689988 131.0750012  45.5984997 138.1029988
 132.5430012  45.2384997 138.1939988 131.9016119  45.8258268 138.2361528
 129.6630012  42.1324997 121.4419988 130.2740012  41.7614997 122.0789988
 128.8270012  41.7114997 121.6379988 129.6335032  42.0247554 121.5557035
 129.2960012  43.6874997 126.4079988 129.5760012  42.7804997 126.5319988
 130.0550012  44.1214997 126.0189988 129.4369277  43.6220942 126.3723682
 129.9080012  44.2684997 131.8439988 130.8410012  44.4804997 131.8089988
 129.6730012  44.3704997 132.7659988 130.0039244  44.3113100 131.9638892
 129.9370012  45.0054997 134.6199988 129.0940012  45.2734997 134.9859988
 130.3790012  45.8274997 134.4089988 129.8814158  45.1533291 134.6415491
 114.2180012  43.4534997 138.0969988 115.1380012  43.3314997 138.3329988
 113.7690012  42.7034997 138.4859988 114.2831580  43.3353727 138.1819006
 132.2200012  38.9854997 139.9729988 132.5700012  38.3314997 139.3679988
 132.3670012  39.8224997 139.5329988 132.2877887  39.0091548 139.8306858
 129.9090012  40.9504997 126.4559988 130.0920012  40.5014997 127.2819988
 129.3100012  40.3654997 125.9929988 129.8530202  40.8099975 126.5063275
 115.4390012  41.7654997 130.9879988 115.8850012  40.9734997 131.2899988
 115.9060012  42.4814997 131.4179988 115.5630831  41.7540685 131.0874006
 113.7430012  44.7644997 132.0569988 114.2350012  44.5434997 131.2659988
 114.1060012  45.6054997 132.3379988 113.8593126  44.8478357 131.9867531
 131.7400012  41.0944997 138.3219988 130.8220012  41.3654997 138.2869988
 131.8630012  40.5594997 137.5379988 131.6309729  41.0592508 138.2111923
 131.7760012  41.0174997 122.9839988 132.1880012  40.2964997 122.5089988
 132.4580012  41.6874997 123.0429988 131.9245885  41.0092368 122.9268915
 114.0570012  41.0224997 126.1109988 113.1320012  41.2314997 125.9819988
 114.5110012  41.5064997 125.4209988 113.9917292  41.1165343 126.0000720
 128.8280012  56.0064997 128.0569988 129.4800012  55.6594997 127.4489988
 129.3380012  56.4954997 128.7029988 128.9862637  56.0250597 128.0610236
 114.0210012  39.7604997 134.4549988 113.3560012  39.5144997 135.0989988
 113.5780012  40.3824997 133.8779988 113.8701318  39.8109410 134.4650898
 116.2130012  52.9354997 138.5999988 115.3920012  53.1104997 138.1389988
 115.9600012  52.8624997 139.5199988 116.0665585  52.9495544 138.6613561
 119.1670012  53.9104997 134.8579988 118.7420012  54.7194997 134.5759988
 120.0710012  53.9954997 134.5559988 119.2309975  54.0329300 134.7784816
 123.4780012  55.3094997 137.8179988 123.6630012  54.9754997 138.6959988
 124.3240012  55.6184997 137.4959988 123.6177539  55.3056047 137.8945605
 125.8230012  56.5954997 137.0619988 126.5000012  55.9624997 136.8219988
 126.1450012  56.9964997 137.8689988 125.9591637  56.5631154 137.1382793
 130.7400012  39.1844997 136.1409988 129.9280012  39.5094997 135.7539988
 130.9730012  38.4244997 135.6079988 130.6602203  39.1262758 136.0158880
 116.5690012  57.1664997 134.9059988 115.8480012  57.6064997 134.4549988
 116.2030012  56.9154997 135.7539988 116.4209651  57.1927242 134.9589640
 119.0360012  56.7664997 133.9359988 118.1710012  56.8384997 134.3399988
 118.9810012  57.3134997 133.1519988 118.9102085  56.8502685 133.8853362
 123.7460012  56.6544997 133.1109988 123.2900012  57.1834997 132.4569988
 123.9090012  57.2574997 133.8359988 123.7056068  56.8084607 133.1194838
 126.0740012  55.5324997 134.0559988 125.1690012  55.6974997 133.7899988
 126.5030012  56.3854997 133.9909988 126.0081324  55.6704339 134.0107976
 128.6780012  57.1024997 134.3509988 128.4960012  58.0184997 134.1409988
 128.8550012  56.6924997 133.5049988 128.6770210  57.1724822 134.2077885
 115.9830012  55.7894997 131.8159988 115.9650012  55.3644997 132.6729988
 116.7880012  55.4714997 131.4069988 116.0893529  55.6883013 131.8780946
 118.1250012  54.4994997 130.4709988 117.9060012  53.5834997 130.6409988
 118.9490012  54.6394997 130.9369988 118.2064420  54.3930520 130.5572774
 120.6620012  54.9694997 131.3199988 120.8750012  54.0814997 131.0329988
 120.7260012  54.9354997 132.2739988 120.6998232  54.8433102 131.4097397
 124.1700012  40.6334997 130.4639988 123.4960012  40.0044997 130.7199988
 124.7340012  40.1494997 129.8609988 124.1539230  40.4818744 130.4175340
 129.3130012  38.7414997 130.5769988 129.9170012  39.2884997 130.0749988
 128.4430012  39.0604997 130.3359988 129.2781208  38.8595137 130.4756886
 131.0400012  39.8794997 128.9099988 131.6520012  39.3654997 128.3829988
 131.4220012  40.7574997 128.9329988 131.1753371  39.9277866 128.8410041
 116.4970012  39.2674997 128.2859988 115.7200012  39.0334997 127.7789988
 117.0270012  38.4704997 128.2949988 116.4622330  39.1276988 128.2177742
 115.3330012  39.0654997 124.0899988 115.7720012  39.6764997 123.4979988
 114.7000012  39.6034997 124.5639988 115.3074514  39.2219257 124.0730930
 121.0760012  39.1944997 128.0999988 121.9510012  39.5824997 128.0699988
 120.9400012  38.9794997 129.0219988 121.1773695  39.2185184 128.2206440
 126.6330012  39.2244997 129.7489988 126.7090012  39.3194997 128.7989988
 126.3580012  38.3164997 129.8779988 126.6062321  39.1147867 129.6365079
 127.9860012  39.2504997 125.4409988 127.2840012  39.8654997 125.2309988
 127.5420012  38.4124997 125.5719988 127.8296450  39.2215639 125.4299000
 115.2340012  55.0134997 124.9869988 114.5490012  54.9754997 124.3199988
 115.2380012  55.9264997 125.2759988 115.1406998  55.1316733 124.9346771
 117.1940012  40.9814997 122.5319988 117.6860012  40.3514997 122.0049988
 117.8180012  41.2774997 123.1949988 117.3455688  40.9353804 122.5495482
 122.2200012  41.2744997 124.9889988 122.3980012  40.6284997 125.6719988
 122.1670012  42.1084997 125.4559988 122.2371999  41.2988009 125.1455917
 124.0990012  56.2234997 123.3849988 124.9650012  56.5894997 123.2069988
 123.8520012  55.7834997 122.5709988 124.1842392  56.2141756 123.2506289
 130.8080012  55.7864997 126.0639988 130.6130012  55.0384997 125.4989988
 130.7690012  56.5444997 125.4809988 130.7760380  55.7866099 125.9078384
 116.4550012  39.7814997 137.8039988 116.0890012  39.0164997 138.2459988
 117.3680012  39.8104997 138.0899988 116.5282736  39.6805640 137.9032502
 118.4280012  39.1324997 139.3399988 119.3260012  38.8584997 139.1549988
 118.0410012  38.3894997 139.8039988 118.4986612  38.9945914 139.3773643
 117.0520012  55.9334997 122.0129988 116.7850012  56.2204997 122.8859988
 117.8240012  55.3874997 122.1649988 117.1197488  55.8990294 122.1531050
 126.8490012  38.4644997 139.5219988 126.9260012  38.0384997 140.3759988
 127.7430012  38.4784997 139.1789988 126.9803428  38.4080879 139.5925310
 130.0250012  54.5374997 138.2139988 129.2430012  54.3514997 137.6939988
 129.9530012  55.4664997 138.4319988 129.9082274  54.6376643 138.1723018
 144.4310012  48.4234997 128.2449988 144.5200012  49.3674997 128.1129988
 143.7930012  48.1484997 127.5869988 144.3569081  48.5154830 128.1379614
 143.3640012  47.6784997 131.6639988 143.3260012  47.0324997 132.3689988
 143.0420012  47.2124997 130.8929988 143.3152333  47.5269408 131.6562978
 135.7330012  47.2934997 133.2569988 135.7740012  46.6674997 133.9799988
 136.4360012  47.9174997 133.4389988 135.8336363  47.2921196 133.3806044
 136.6560012  51.7434997 131.7919988 136.2870012  50.9414997 131.4219988
 137.5970012  51.5744997 131.8379988 136.7327289  51.6110153 131.7476316
 133.2660012  45.4034997 127.1849988 132.8190012  46.2494997 127.1659988
 132.7050012  44.8234997 126.6689988 133.1289900  45.4409916 127.1126801
 133.9770012  47.5654997 129.3099988 134.1900012  46.7954997 129.8379988
 134.7150012  47.6544997 128.7069988 134.1059044  47.4721968 129.3007123
 144.1820012  55.7224997 130.1769988 144.8020012  55.0454997 129.9039988
 143.9740012  55.5044997 131.0859988 144.2386726  55.6004800 130.2624812
 141.7540012  50.1114997 132.0699988 142.0580012  49.4254997 131.4749988
 142.4750012  50.2294997 132.6879988 141.8930671  50.0336305 132.0721816
 144.8950012  44.5054997 132.3969988 145.0370012  43.5594997 132.4179988
 144.7880012  44.7124997 131.4689988 144.8999919  44.4038246 132.2743408
 138.0490012  42.6064997 129.6699988 138.0930012  43.4664997 129.2509988
 137.5920012  42.0544997 129.0359988 137.9932240  42.6494422 129.5269864
 134.6700012  45.0034997 130.4319988 135.3230012  44.4534997 130.8639988
 134.6940012  44.7294997 129.5149988 134.7626683  44.8911466 130.3672123
 139.8260012  46.5534997 129.6469988 140.4420012  46.0274997 130.1569988
 139.2400012  45.9134997 129.2439988 139.8310810  46.3949208 129.6623173
 136.8600012  41.5244997 133.7439988 136.6410012  42.0544997 132.9779988
 136.1920012  41.7514997 134.3909988 136.7397600  41.6276906 133.7266379
 144.2290012  51.0244997 127.2879988 143.9330012  50.7024997 126.4369988
 143.9040012  51.9244997 127.3289988 144.1446371  51.1020215 127.1771801
 139.4290012  49.2004997 134.0309988 138.6890012  49.7984997 134.1349988
 140.1430012  49.7544997 133.7159988 139.4242237  49.3572831 134.0026465
 136.4530012  43.4164997 131.6959988 137.0670012  44.0494997 132.0689988
 136.9650012  42.9444997 131.0399988 136.6061981  43.4392267 131.6582908
 137.8360012  51.1644997 134.8179988 137.8310012  52.0444997 134.4399988
 136.9830012  51.0814997 135.2429988 137.7199464  51.2736117 134.8237907
 133.9570012  50.8354997 125.5999988 133.6850012  51.0644997 124.7119988
 134.0030012  51.6734997 126.0609988 133.9259482  50.9801318 125.5406273
 140.8860012  38.8304997 131.1959988 140.7690012  37.8814997 131.1419988
 140.0310012  39.1624997 131.4699988 140.7544212  38.7455571 131.2256497
 143.1530012  47.6674997 125.6969988 142.4410012  48.2024997 125.3449988
 143.8440012  47.7234997 125.0369988 143.1490132  47.7482543 125.5596289
 143.2060012  46.1254997 122.7359988 143.9070012  46.1474997 123.3869988
 143.5090012  45.4974997 122.0789988 143.3428133  46.0437070 122.7363369
 138.2040012  48.5074997 128.5309988 137.8730012  48.1374997 127.7129988
 138.7920012  47.8374997 128.8779988 138.2381873  48.3661156 128.4658102
 139.5700012  51.9354997 131.2119988 139.4760012  51.3574997 130.4559988
 140.3000012  51.5644997 131.7089988 139.6557387  51.8061663 131.1755342
 138.5700012  47.2764997 132.1649988 139.1360012  47.3974997 131.4019988
 138.8890012  47.9134997 132.8029988 138.6905474  47.3792219 132.1469862
 144.8790012  52.7794997 132.8989988 144.6390012  53.4414997 133.5469988
 144.6810012  51.9454997 133.3239988 144.8193808  52.7573134 133.0451524
 139.4500012  51.6754997 136.8819988 139.1390012  52.4574997 137.3369988
 138.8000012  51.5224997 136.1959988 139.3195558  51.7619105 136.8515871
 136.3700012  47.8734997 136.1099988 136.4410012  48.5244997 136.8089988
 135.4800012  47.9764997 135.7749988 136.2593005  47.9765427 136.1603495
 143.1560012  53.7764997 127.7689988 143.6300012  54.0714997 128.5459988
 142.5930012  54.5144997 127.5359988 143.1448184  53.9167247 127.8439628
 137.6900012  53.7474997 137.6449988 137.6970012  53.6114997 136.6979988
 136.7740012  53.6294997 137.8969988 137.5671714  53.7129430 137.5494666
 137.1940012  47.5774997 126.1199988 136.9020012  48.3454997 125.6299988
 136.5200012  46.9174997 125.9579988 137.0628111  47.5935587 126.0308978
 133.2870012  49.9404997 134.9349988 132.7860012  49.9124997 134.1199988
 133.2920012  49.0344997 135.2449988 133.2190944  49.8142396 134.8653226
 133.0370012  52.7204997 131.8189988 133.9830012  52.5764997 131.7999988
 132.9250012  53.5044997 132.3559988 133.1512727  52.8068046 131.8890072
 142.2140012  52.9604997 136.3779988 142.3010012  53.7864997 136.8529988
 141.3500012  52.6304997 136.6269988 142.1091964  53.0289878 136.4766549
 142.6280012  56.7324997 126.1839988 142.5530012  56.6114997 125.2369988
 142.6610012  57.6824997 126.3019988 142.6222068  56.8442646 126.0704967
 136.2810012  55.5214997 127.9649988 136.4340012  55.1734997 128.8429988
 135.4310012  55.1654997 127.7099988 136.1869166  55.4256216 128.0508079
 135.5360012  51.2634997 135.9789988 135.7520012  50.9024997 136.8379988
 134.6810012  50.8894997 135.7689988 135.4499292  51.1634111 136.0683386
 138.1550012  39.7334997 131.9739988 137.2930012  39.6464997 131.5659988
 138.1320012  40.5894997 132.4019988 138.0340409  39.8372883 131.9760589
 142.8180012  39.4554997 135.3489988 143.2380012  39.0404997 136.1019988
 141.8850012  39.2774997 135.4659988 142.7493644  39.3745900 135.4679539
 142.4790012  41.9484997 122.6339988 142.2260012  41.9674997 123.5569988
 142.2230012  41.0764997 122.3319988 142.4097481  41.8332558 122.7196175
 138.2460012  44.6994997 133.0689988 137.6040012  44.6584997 133.7779988
 138.2830012  45.6254997 132.8309988 138.1630664  44.8191430 133.1339219
 138.2430012  44.9204997 127.9809988 137.3500012  44.5794997 127.9219988
 138.6930012  44.5434997 127.2249988 138.1818130  44.8229631 127.8707702
 143.7780012  45.3364997 126.7979988 143.3690012  46.1514997 126.5069988
 144.4990012  45.1964997 126.1839988 143.8194537  45.4292018 126.6751342
 142.8800012  45.5114997 138.2859988 142.3180012  44.8074997 138.6069988
 143.7070012  45.3914997 138.7539988 142.9147095  45.3987883 138.3932330
 144.7830012  44.7824997 129.6119988 144.5880012  45.3874997 128.8969988
 144.9640012  43.9484997 129.1779988 144.7807614  44.7526300 129.4554405
 135.9960012  45.0194997 134.9359988 135.9580012  45.4194997 135.8049988
 135.5050012  44.2024997 135.0269988 135.9244684  44.9638069 135.0671059
 139.3620012  42.3934997 121.7349988 138.9310012  41.9484997 122.4649988
 138.6440012  42.7654997 121.2229988 139.2059438  42.3828940 121.7656799
 132.6040012  42.1354997 128.7869988 133.2350012  42.1064997 129.5059988
 133.0530012  41.7104997 128.0559988 132.7510918  42.0740836 128.7866441
 133.8780012  42.8814997 124.2109988 134.3520012  43.4724997 123.6259988
 133.1610012  43.4124997 124.5579988 133.8459341  43.0340867 124.1778836
 144.0470012  46.4204997 134.2829988 144.3700012  45.7894997 133.6399988
 143.6070012  45.8854997 134.9439988 144.0317484  46.2618387 134.2843198
 140.8240012  42.3474997 129.0669988 139.9130012  42.4044997 129.3559988
 141.3300012  42.2874997 129.8779988 140.7676899  42.3471941 129.2161184
 135.6530012  43.9764997 127.8939988 134.7630012  44.0764997 127.5539988
 135.9490012  43.1344997 127.5479988 135.5712823  43.8763545 127.8007213
 139.3060012  43.9764997 125.5509988 140.2370012  44.1054997 125.7289988
 139.0910012  44.6464997 124.9009988 139.4044247  44.0846565 125.4875747
 137.9800012  45.1714997 123.1169988 137.4370012  44.7914997 122.4259988
 138.8130012  45.3654997 122.6889988 138.0183631  45.1457125 122.9644501
 136.1150012  49.7284997 138.2159988 136.8470012  49.9824997 138.7779988
 135.3350012  49.9324997 138.7319988 136.1097073  49.7908160 138.3626151
 142.1440012  45.1354997 130.9539988 142.7090012  44.5884997 130.4069988
 141.9970012  44.6134997 131.7429988 142.2013380  44.9902259 130.9858695
 137.1460012  41.2714997 127.3729988 136.8290012  40.3694997 127.3369988
 137.9280012  41.2734997 126.8199988 137.2082408  41.1482474 127.2933569
 140.7710012  43.5234997 133.3679988 139.9350012  43.9774997 133.4789988
 141.2950012  43.7994997 134.1199988 140.7275416  43.6228660 133.4848119
 141.3150012  49.7364997 125.0529988 140.5700012  49.2294997 124.7309988
 141.1810012  49.7854997 125.9999988 141.1948776  49.6736940 125.1368647
 142.8340012  49.9204997 136.2899988 142.4890012  49.5394997 137.0969988
 142.6340012  50.8544997 136.3609988 142.7597527  49.9945135 136.4100689
 136.4400012  49.0314997 130.8229988 137.1850012  49.0294997 130.2219988
 136.5180012  48.2084997 131.3039988 136.5524995  48.9198887 130.8058282
 143.4410012  51.1954997 124.0789988 143.1450012  52.0214997 124.4599988
 142.7380012  50.5754997 124.2749988 143.3054914  51.2248199 124.1576443
 133.4480012  47.4924997 136.1379988 133.6710012  47.0744997 136.9699988
 132.8460012  46.8794997 135.7149988 133.3971759  47.3524668 136.1947022
 140.4640012  47.0094997 138.3509988 140.1680012  46.8434997 137.4559988
 141.3960012  46.7894997 138.3399988 140.5494166  46.9570640 138.2270536
 138.8150012  52.5494997 128.2269988 139.3420012  53.3224997 128.0269988
 137.9350012  52.7744997 127.9249988 138.7682031  52.6857545 128.1587912
 134.5700012  47.4114997 122.8139988 135.1860012  48.0384997 123.1939988
 133.7080012  47.7274997 123.0859988 134.5377698  47.5399430 122.9027183
 140.2420012  50.2124997 127.8029988 140.0010012  51.1374997 127.8449988
 139.5010012  49.7534997 128.1999988 140.1089225  50.2770933 127.8623742
 140.7570012  54.3614997 134.1189988 141.1190012  55.2164997 133.8849988
 141.2880012  54.0694997 134.8589988 140.8784473  54.4391060 134.1870855
 138.9250012  55.2344997 127.3489988 137.9750012  55.3394997 127.3999988
 139.2770012  56.0544997 127.6929988 138.8424195  55.3598800 127.4025502
 144.3010012  50.4604997 133.8189988 143.8750012  50.2334997 134.6459988
 144.8810012  49.7224997 133.6369988 144.3211868  50.3295299 133.9075830
 135.0820012  42.2454997 135.6959988 134.1890012  42.5844997 135.6279988
 134.9830012  41.3904997 136.1139988 134.9464164  42.1762588 135.7432235
 134.7330012  54.0504997 134.1309988 134.9500012  53.1184997 134.0999988
 134.9790012  54.3244997 135.0139988 134.7959549  53.9600636 134.2461763
 140.5950012  52.5014997 121.3399988 140.8340012  51.7534997 120.7929988
 140.3260012  52.1134997 122.1729988 140.5913675  52.3466638 121.3776865
 139.5320012  52.0714997 123.7959988 139.6780012  51.5514997 124.5859988
 139.5290012  52.9784997 124.1029988 139.5515792  52.1228842 123.9456117
 135.9850012  49.3244997 124.3069988 135.2990012  49.6764997 124.8739988
 136.5070012  50.0874997 124.0599988 135.9616852  49.4758578 124.3512118
 143.8160012  41.9864997 134.5859988 144.5150012  42.0604997 135.2359988
 143.4350012  41.1224997 134.7399988 143.8601767  41.8797624 134.6958322
 144.6010012  41.6384997 125.6829988 144.8210012  42.1104997 124.8799988
 145.1590012  42.0334997 126.3529988 144.7064968  41.7564285 125.6637331
 142.2690012  53.7694997 124.5459988 141.4530012  54.2664997 124.5979988
 142.7990012  54.2444997 123.9059988 142.2289161  53.9017722 124.4665956
 141.8010012  43.3664997 126.5179988 142.6130012  43.8714997 126.5639988
 141.5560012  43.2214997 127.4319988 141.8790520  43.4160375 126.6478517
 142.3360012  44.3524997 135.7019988 142.4550012  44.9264997 136.4599988
 142.9920012  43.6644997 135.8169988 142.4409025  44.3379858 135.8211321
 142.6840012  40.4474997 127.4559988 142.3380012  41.0654997 128.0999988
 143.3430012  40.9484997 126.9739988 142.7256968  40.5996278 127.4789383
 139.6080012  54.8134997 124.5269988 139.7680012  55.6124997 124.0269988
 139.4100012  55.1194997 125.4119988 139.6031637  54.9644020 124.5781144
 138.3420012  41.5104997 124.1429988 138.2590012  42.3994997 124.4899988
 139.2320012  41.2454997 124.3749988 138.4509469  41.5961430 124.2217626
 136.6010012  51.9384997 123.2039988 137.1930012  52.6374997 123.4799988
 137.0600012  51.5054997 122.4839988 136.7441142  51.9757049 123.1444830
 134.9170012  44.6024997 122.3199988 134.8720012  45.5414997 122.4979988
 134.0290012  44.3664997 122.0499988 134.7908574  44.6991892 122.3078912
 135.7250012  39.3844997 130.9929988 135.4960012  39.4434997 130.0649988
 135.2820012  38.5924997 131.2989988 135.6338530  39.2855753 130.9074786
 134.6550012  53.3244997 127.1529988 133.8230012  53.7974997 127.1799988
 135.2010012  53.8344997 126.5549988 134.6150352  53.4581332 127.0758463
 133.9430012  55.9374997 138.4829988 134.4840012  55.7204997 139.2429988
 133.4620012  55.1314997 138.2929988 133.9519951  55.7989270 138.5612576
 138.5410012  54.8564997 140.1029988 139.3080012  54.3974997 140.4439988
 138.5190012  54.6304997 139.1739988 138.6431275  54.7630186 140.0240101
 142.6330012  54.3644997 121.4789988 141.9890012  53.7334997 121.7999988
 143.3950012  53.8334997 121.2469988 142.6478077  54.2062920 121.4916011
 133.8500012  49.7474997 139.4369988 133.9940012  48.8454997 139.1509988
 133.0780012  50.0334997 138.9499988 133.7652753  49.6626816 139.3319505
 138.1920012  50.0914997 121.5699988 138.2560012  49.2974997 122.1009988
 138.8450012  49.9724997 120.8799988 138.2890241  49.9667148 121.5494317
 140.5060012  49.7174997 138.8699988 140.1770012  49.9884997 138.0129988
 140.6580012  48.7764997 138.7829988 140.4814809  49.6273862 138.7408244
 143.5440012  51.1384997 121.3059988 143.2750012  51.3184997 122.2069988
 143.3380012  50.2124997 121.1739988 143.4793427  51.0380261 121.4115073
 134.6830012  46.9474997 138.8569988 135.0910012  46.0904997 138.7359988
 134.4230012  46.9624997 139.7779988 134.7037568  46.8320807 138.9649588
 139.3410012  48.0634997 123.8759988 138.8810012  47.5794997 124.5619988
 139.5960012  47.3954997 123.2399988 139.3124902  47.9068731 123.8839334
 138.6300012  45.9564997 136.2319988 138.0120012  46.6314997 136.5119988
 138.9740012  46.2774997 135.3979988 138.5919132  46.0922411 136.1576262
 140.4120012  46.3064997 122.1379988 140.2320012  46.1524997 121.2109988
 141.3620012  46.4144997 122.1829988 140.5157776  46.3000175 122.0171843
 143.6500012  48.4284997 139.5089988 144.6030012  48.5114997 139.4819988
 143.4890012  47.7164997 140.1289988 143.7586426  48.3436746 139.5890579
 138.9690012  43.3114997 137.3139988 139.1190012  42.5824997 136.7119988
 138.9720012  44.0884997 136.7549988 138.9899302  43.3167851 137.1560692
 139.3820012  41.6814997 134.8069988 139.9180012  42.1324997 134.1549988
 138.5300012  41.5734997 134.3839988 139.3402178  41.7286390 134.6605756
 140.9640012  47.1204997 135.0459988 141.7140012  46.9644997 134.4729988
 140.6250012  47.9724997 134.7709988 141.0208921  47.2142968 134.9303561
 137.4480012  44.5094997 139.2259988 136.6810012  43.9774997 139.0149988
 138.1270012  44.1994997 138.6259988 137.4347877  44.3948300 139.1160716
 140.1880012  39.1374997 135.2379988 140.0890012  40.0844997 135.1329988
 139.4450012  38.7654997 134.7619988 140.0741184  39.2165863 135.1593621
 141.4520012  43.4594997 138.8019988 141.2160012  43.2394997 139.7029988
 140.6680012  43.2524997 138.2919988 141.3138504  43.4014586 138.8563431
 144.1670012  42.5864997 137.8769988 143.2200012  42.6184997 138.0099988
 144.4800012  41.9614997 138.5309988 144.0796707  42.5063998 137.9836060
 135.6280012  42.4304997 138.9299988 135.8400012  41.7234997 138.3199988
 135.5170012  41.9924997 139.7739988 135.6419721  42.2747084 138.9606843
 140.4090012  38.4314997 137.9089988 141.1210012  37.7914997 137.8949988
 140.3080012  38.6984997 136.9959988 140.4928066  38.3800079 137.7835677
 140.7630012  40.1144997 139.9629988 140.6310012  39.6384997 139.1429988
 140.1640012  40.8584997 139.9079988 140.6639071  40.1499618 139.8432886
 140.3090012  56.9974997 123.1389988 141.2420012  57.1554997 123.2829988
 140.0450012  57.6724997 122.5149988 140.4009888  57.1104510 123.0742842
 133.8780012  51.6334997 122.6219988 134.7920012  51.7124997 122.8959988
 133.8850012  50.9464997 121.9559988 134.0041131  51.5513961 122.5694393
 132.5270012  57.0264997 127.6999988 131.8800012  56.5644997 127.1669988
 132.8810012  56.3544997 128.2819988 132.4863849  56.8724723 127.7057959
 133.3970012  55.1074997 129.5039988 133.0620012  54.2274997 129.6759988
 133.6190012  55.4524997 130.3689988 133.3811783  55.0337500 129.6444208
 133.4770012  48.1824997 131.9559988 133.6610012  48.1004997 131.0199988
 134.3260012  48.0584997 132.3789988 133.6170151  48.1545073 131.8851451
 133.0740012  43.4534997 138.0969988 133.9940012  43.3314997 138.3329988
 132.6250012  42.7034997 138.4859988 133.1391580  43.3353727 138.1819006
 134.2950012  41.7654997 130.9879988 134.7410012  40.9734997 131.2899988
 134.7620012  42.4814997 131.4179988 134.4190831  41.7540685 131.0874006
 132.5990012  44.7644997 132.0569988 133.0910012  44.5434997 131.2659988
 132.9620012  45.6054997 132.3379988 132.7153126  44.8478357 131.9867531
 132.9130012  41.0224997 126.1109988 131.9880012  41.2314997 125.9819988
 133.3670012  41.5064997 125.4209988 132.8477292  41.1165343 126.0000720
 132.8770012  39.7604997 134.4549988 132.2120012  39.5144997 135.0989988
 132.4340012  40.3824997 133.8779988 132.7261318  39.8109410 134.4650898
 135.0690012  52.9354997 138.5999988 134.2480012  53.1104997 138.1389988
 134.8160012  52.8624997 139.5199988 134.9225585  52.9495544 138.6613561
 138.0230012  53.9104997 134.8579988 137.5980012  54.7194997 134.5759988
 138.9270012  53.9954997 134.5559988 138.0869975  54.0329300 134.7784816
 142.3340012  55.3094997 137.8179988 142.5190012  54.9754997 138.6959988
 143.1800012  55.6184997 137.4959988 142.4737539  55.3056047 137.8945605
 144.6790012  56.5954997 137.0619988 145.3560012  55.9624997 136.8219988
 145.0010012  56.9964997 137.8689988 144.8151637  56.5631154 137.1382793
 135.4250012  57.1664997 134.9059988 134.7040012  57.6064997 134.4549988
 135.0590012  56.9154997 135.7539988 135.2769651  57.1927242 134.9589640
 137.8920012  56.7664997 133.9359988 137.0270012  56.8384997 134.3399988
 137.8370012  57.3134997 133.1519988 137.7662085  56.8502685 133.8853362
 142.6020012  56.6544997 133.1109988 142.1460012  57.1834997 132.4569988
 142.7650012  57.2574997 133.8359988 142.5616068  56.8084607 133.1194838
 134.8390012  55.7894997 131.8159988 134.8210012  55.3644997 132.6729988
 135.6440012  55.4714997 131.4069988 134.9453529  55.6883013 131.8780946
 136.9810012  54.4994997 130.4709988 136.7620012  53.5834997 130.6409988
 137.8050012  54.6394997 130.9369988 137.0624420  54.3930520 130.5572774
 139.5180012  54.9694997 131.3199988 139.7310012  54.0814997 131.0329988
 139.5820012  54.9354997 132.2739988 139.5558231  54.8433102 131.4097397
 143.0260012  40.6334997 130.4639988 142.3520012  40.0044997 130.7199988
 143.5900012  40.1494997 129.8609988 143.0099230  40.4818744 130.4175340
 135.3530012  39.2674997 128.2859988 134.5760012  39.0334997 127.7789988
 135.8830012  38.4704997 128.2949988 135.3182330  39.1276988 128.2177742
 134.1890012  39.0654997 124.0899988 134.6280012  39.6764997 123.4979988
 133.5560012  39.6034997 124.5639988 134.1634514  39.2219257 124.0730930
 139.9320012  39.1944997 128.0999988 140.8070012  39.5824997 128.0699988
 139.7960012  38.9794997 129.0219988 140.0333695  39.2185184 128.2206440
 134.0900012  55.0134997 124.9869988 133.4050012  54.9754997 124.3199988
 134.0940012  55.9264997 125.2759988 133.9966998  55.1316733 124.9346771
 136.0500012  40.9814997 122.5319988 136.5420012  40.3514997 122.0049988
 136.6740012  41.2774997 123.1949988 136.2015688  40.9353804 122.5495482
 141.0760012  41.2744997 124.9889988 141.2540012  40.6284997 125.6719988
 141.0230012  42.1084997 125.4559988 141.0931999  41.2988009 125.1455917
 142.9550012  56.2234997 123.3849988 143.8210012  56.5894997 123.2069988
 142.7080012  55.7834997 122.5709988 143.0402392  56.2141756 123.2506289
 135.3110012  39.7814997 137.8039988 134.9450012  39.0164997 138.2459988
 136.2240012  39.8104997 138.0899988 135.3842736  39.6805640 137.9032502
 137.2840012  39.1324997 139.3399988 138.1820012  38.8584997 139.1549988
 136.8970012  38.3894997 139.8039988 137.3546612  38.9945914 139.3773643
 135.9080012  55.9334997 122.0129988 135.6410012  56.2204997 122.8859988
 136.6800012  55.3874997 122.1649988 135.9757488  55.8990294 122.1531050
  12.4390012  67.2794997 128.2449988  12.5280012  68.2234997 128.1129988
  11.8010012  67.0044997 127.5869988  12.3649081  67.3714830 128.1379614
  11.3720012  66.5344997 131.6639988  11.3340012  65.8884997 132.3689988
  11.0500012  66.0684997 130.8929988  11.3232333  66.3829408 131.6562978
   3.7410012  66.1494997 133.2569988   3.7820012  65.5234997 133.9799988
   4.4440012  66.7734997 133.4389988   3.8416363  66.1481196 133.3806044
  15.0780012  69.4734997 129.9649988  14.6380012  68.7534997 130.4159988
  15.0650012  70.1944997 130.5949988  15.0160226  69.4723731 130.1118494
   4.6640012  70.5994997 131.7919988   4.2950012  69.7974997 131.4219988
   5.6050012  70.4304997 131.8379988   4.7407289  70.4670153 131.7476316
   1.2740012  64.2594997 127.1849988   0.8270012  65.1054997 127.1659988
   0.7130012  63.6794997 126.6689988   1.1369900  64.2969916 127.1126801
   1.9850012  66.4214997 129.3099988   2.1980012  65.6514997 129.8379988
   2.7230012  66.5104997 128.7069988   2.1139044  66.3281968 129.3007123
  12.1900012  74.5784997 130.1769988  12.8100012  73.9014997 129.9039988
  11.9820012  74.3604997 131.0859988  12.2466726  74.4564800 130.2624812
   9.7620012  68.9674997 132.0699988  10.0660012  68.2814997 131.4749988
  10.4830012  69.0854997 132.6879988   9.9010671  68.8896305 132.0721816
  18.4250012  60.5684997 132.9309988  18.4740012  61.1784997 133.6659988
  18.8500012  61.0294997 132.2079988  18.4891746  60.7143796 132.9339175
  12.9030012  63.3614997 132.3969988  13.0450012  62.4154997 132.4179988
  12.7960012  63.5684997 131.4689988  12.9079919  63.2598246 132.2743408
   6.0570012  61.4624997 129.6699988   6.1010012  62.3224997 129.2509988
   5.6000012  60.9104997 129.0359988   6.0012240  61.5054422 129.5269864
  13.7800012  61.5934997 128.0709988  14.4260012  61.2644997 128.6949988
  14.2900012  62.1114997 127.4479988  13.9374299  61.6184450 128.0722731
   2.6780012  63.8594997 130.4319988   3.3310012  63.3094997 130.8639988
   2.7020012  63.5854997 129.5149988   2.7706683  63.7471466 130.3672123
   7.8340012  65.4094997 129.6469988   8.4500012  64.8834997 130.1569988
   7.2480012  64.7694997 129.2439988   7.8390810  65.2509208 129.6623173
  18.8160012  62.0464997 135.1659988  18.1280012  62.7044997 135.0709988
  18.8320012  61.8494997 136.1029988  18.7239540  62.1099819 135.2795990
   4.8680012  60.3804997 133.7439988   4.6490012  60.9104997 132.9779988
   4.2000012  60.6074997 134.3909988   4.7477600  60.4836906 133.7266379
  12.2370012  69.8804997 127.2879988  11.9410012  69.5584997 126.4369988
  11.9120012  70.7804997 127.3289988  12.1526371  69.9580215 127.1771801
   7.4370012  68.0564997 134.0309988   6.6970012  68.6544997 134.1349988
   8.1510012  68.6104997 133.7159988   7.4322237  68.2132831 134.0026465
  15.5440012  60.8844997 130.0509988  15.3280012  60.1184997 130.5839988
  16.1990012  61.3564997 130.5639988  15.6030632  60.8435889 130.1932861
   4.4610012  62.2724997 131.6959988   5.0750012  62.9054997 132.0689988
   4.9730012  61.8004997 131.0399988   4.6141981  62.2952267 131.6582908
   5.8440012  70.0204997 134.8179988   5.8390012  70.9004997 134.4399988
   4.9910012  69.9374997 135.2429988   5.7279464  70.1296117 134.8237907
   1.9650012  69.6914997 125.5999988   1.6930012  69.9204997 124.7119988
   2.0110012  70.5294997 126.0609988   1.9339482  69.8361318 125.5406273
  15.5900012  71.3134997 132.3129988  14.6490012  71.3714997 132.4749988
  15.8670012  72.2194997 132.1759988  15.4984679  71.4439443 132.3166815
  15.8910012  59.5994997 133.7309988  15.1550012  60.2104997 133.6929988
  16.5740012  60.0144997 133.2039988  15.8826541  59.7391374 133.6545832
   8.8940012  57.6864997 131.1959988   8.7770012  56.7374997 131.1419988
   8.0390012  58.0184997 131.4699988   8.7624212  57.6015571 131.2256497
  13.8420012  73.0944997 128.9379988  14.2680012  72.3874997 128.4529988
  14.1590012  73.8954997 128.5219988  13.9431683  73.1061017 128.8153680
  15.0020012  70.9954997 127.4469988  14.7440012  70.3054997 126.8359988
  15.0730012  70.5524997 128.2929988  14.9762856  70.8412124 127.4776885
  16.6880012  69.5614997 135.9239988  16.8280012  68.9704997 135.1849988
  16.8550012  70.4344997 135.5679988  16.7297411  69.5985428 135.7746894
  11.1610012  66.5234997 125.6969988  10.4490012  67.0584997 125.3449988
  11.8520012  66.5794997 125.0369988  11.1570132  66.6042543 125.5596289
  11.2140012  64.9814997 122.7359988  11.9150012  65.0034997 123.3869988
  11.5170012  64.3534997 122.0789988  11.3508133  64.8997070 122.7363369
  18.5300012  65.9014997 133.9899988  17.8770012  66.5964997 134.0799988
  18.9950012  66.1114997 133.1809988  18.5035274  66.0250643 133.8928462
  14.5660012  66.7334997 126.6489988  13.8340012  66.9614997 127.2219988
  15.0140012  66.0194997 127.1029988  14.5262725  66.6682145 126.7888816
  14.4640012  64.9074997 135.7159988  14.5440012  65.6704997 136.2879988
  13.8620012  65.1864997 135.0259988  14.3935756  65.0497134 135.7010589
   6.2120012  67.3634997 128.5309988   5.8810012  66.9934997 127.7129988
   6.8000012  66.6934997 128.8779988   6.2461873  67.2221156 128.4658102
   7.5780012  70.7914997 131.2119988   7.4840012  70.2134997 130.4559988
   8.3080012  70.4204997 131.7089988   7.6637386  70.6621663 131.1755342
   6.5780012  66.1324997 132.1649988   7.1440012  66.2534997 131.4019988
   6.8970012  66.7694997 132.8029988   6.6985474  66.2352219 132.1469862
  12.8870012  71.6354997 132.8989988  12.6470012  72.2974997 133.5469988
  12.6890012  70.8014997 133.3239988  12.8273808  71.6133134 133.0451524
   7.4580012  70.5314997 136.8819988   7.1470012  71.3134997 137.3369988
   6.8080012  70.3784997 136.1959988   7.3275558  70.6179105 136.8515871
  13.4370012  65.8954997 124.3339988  14.0170012  66.0454997 125.0809988
  13.8510012  66.3664997 123.6099988  13.5722997  65.9796578 124.3384058
   4.3780012  66.7294997 136.1099988   4.4490012  67.3804997 136.8089988
   3.4880012  66.8324997 135.7749988   4.2673005  66.8325427 136.1603495
  11.1640012  72.6324997 127.7689988  11.6380012  72.9274997 128.5459988
  10.6010012  73.3704997 127.5359988  11.1528184  72.7727247 127.8439628
   5.6980012  72.6034997 137.6449988   5.7050012  72.4674997 136.6979988
   4.7820012  72.4854997 137.8969988   5.5751714  72.5689430 137.5494666
  17.1360012  57.6454997 124.1469988  16.2360012  57.7844997 124.4419988
  17.3880012  58.4764997 123.7449988  17.0468702  57.7769074 124.1330205
   5.2020012  66.4334997 126.1199988   4.9100012  67.2014997 125.6299988
   4.5280012  65.7734997 125.9579988   5.0708111  66.4495587 126.0308978
  18.3250012  72.0114997 122.5229988  18.3990012  72.9504997 122.6939988
  19.2310012  71.7064997 122.4669988  18.4575100  72.0986722 122.5388119
   1.2950012  68.7964997 134.9349988   0.7940012  68.7684997 134.1199988
   1.3000012  67.8904997 135.2449988   1.2270944  68.6702396 134.8653226
   1.0450012  71.5764997 131.8189988   1.9910012  71.4324997 131.7999988
   0.9330012  72.3604997 132.3559988   1.1592727  71.6628046 131.8890072
  19.2430012  72.2424997 137.5019988  19.1940012  71.2874997 137.4649988
  18.4160012  72.5104997 137.9029988  19.1244940  72.1478998 137.5511375
  10.2220012  71.8164997 136.3779988  10.3090012  72.6424997 136.8529988
   9.3580012  71.4864997 136.6269988  10.1171964  71.8849878 136.4766549
  10.6360012  75.5884997 126.1839988  10.5610012  75.4674997 125.2369988
  10.6690012  76.5384997 126.3019988  10.6302068  75.7002646 126.0704967
   4.2890012  74.3774997 127.9649988   4.4420012  74.0294997 128.8429988
   3.4390012  74.0214997 127.7099988   4.1949166  74.2816216 128.0508079
  13.7380012  74.7424997 123.1859988  14.1130012  73.9984997 122.7149988
  13.7420012  74.4724997 124.1049988  13.7899125  74.6040986 123.2456483
  13.4070012  74.6684997 125.9349988  12.4710012  74.7684997 126.1139988
  13.6870012  73.9594997 126.5139988  13.3169553  74.5863406 126.0377087
  16.3950012  63.7354997 137.9819988  15.9880012  64.2164997 137.2609988
  16.4360012  62.8304997 137.6739988  16.3448437  63.6789374 137.8416683
   3.5440012  70.1194997 135.9789988   3.7600012  69.7584997 136.8379988
   2.6890012  69.7454997 135.7689988   3.4579292  70.0194111 136.0683386
   6.1630012  58.5894997 131.9739988   5.3010012  58.5024997 131.5659988
   6.1400012  59.4454997 132.4019988   6.0420409  58.6932883 131.9760589
  10.8260012  58.3114997 135.3489988  11.2460012  57.8964997 136.1019988
   9.8930012  58.1334997 135.4659988  10.7573644  58.2305900 135.4679539
  14.1520012  62.0674997 136.2019988  13.6380012  61.9414997 136.9999988
  13.9970012  62.9794997 135.9579988  14.0606852  62.1736132 136.2782158
  14.9150012  66.9284997 121.9639988  14.9570012  66.7054997 121.0339988
  15.7640012  67.3274997 122.1529988  15.0355280  66.9519438 121.8623554
  10.4870012  60.8044997 122.6339988  10.2340012  60.8234997 123.5569988
  10.2310012  59.9324997 122.3319988  10.4177481  60.6892558 122.7196175
   6.2540012  63.5554997 133.0689988   5.6120012  63.5144997 133.7779988
   6.2910012  64.4814997 132.8309988   6.1710664  63.6751430 133.1339219
   6.2510012  63.7764997 127.9809988   5.3580012  63.4354997 127.9219988
   6.7010012  63.3994997 127.2249988   6.1898130  63.6789631 127.8707702
  11.7860012  64.1924997 126.7979988  11.3770012  65.0074997 126.5069988
  12.5070012  64.0524997 126.1839988  11.8274537  64.2852018 126.6751342
  10.8880012  64.3674997 138.2859988  10.3260012  63.6634997 138.6069988
  11.7150012  64.2474997 138.7539988  10.9227095  64.2547883 138.3932330
  12.7910012  63.6384997 129.6119988  12.5960012  64.2434997 128.8969988
  12.9720012  62.8044997 129.1779988  12.7887614  63.6086300 129.4554405
   4.0040012  63.8754997 134.9359988   3.9660012  64.2754997 135.8049988
   3.5130012  63.0584997 135.0269988   3.9324684  63.8198069 135.0671059
   7.3700012  61.2494997 121.7349988   6.9390012  60.8044997 122.4649988
   6.6520012  61.6214997 121.2229988   7.2139438  61.2388940 121.7656799
   0.6120012  60.9914997 128.7869988   1.2430012  60.9624997 129.5059988
   1.0610012  60.5664997 128.0559988   0.7590918  60.9300836 128.7866441
   1.8860012  61.7374997 124.2109988   2.3600012  62.3284997 123.6259988
   1.1690012  62.2684997 124.5579988   1.8539341  61.8900867 124.1778836
  12.0550012  65.2764997 134.2829988  12.3780012  64.6454997 133.6399988
  11.6150012  64.7414997 134.9439988  12.0397484  65.1178387 134.2843198
   8.8320012  61.2034997 129.0669988   7.9210012  61.2604997 129.3559988
   9.3380012  61.1434997 129.8779988   8.7756899  61.2031941 129.2161184
   3.6610012  62.8324997 127.8939988   2.7710012  62.9324997 127.5539988
   3.9570012  61.9904997 127.5479988   3.5792823  62.7323545 127.8007213
   7.3140012  62.8324997 125.5509988   8.2450012  62.9614997 125.7289988
   7.0990012  63.5024997 124.9009988   7.4124247  62.9406565 125.4875747
  13.2370012  60.4384997 132.3319988  12.5610012  60.5694997 132.9959988
  12.7520012  60.2834997 131.5209988  13.0787146  60.4355157 132.3134469
   5.9880012  64.0274997 123.1169988   5.4450012  63.6474997 122.4259988
   6.8210012  64.2214997 122.6889988   6.0263631  64.0017125 122.9644501
  16.5250012  76.1104997 138.6079988  16.7250012  76.5344997 137.7739988
  17.1800012  76.4534997 139.2149988  16.6410072  76.2149857 138.5758592
   4.1230012  68.5844997 138.2159988   4.8550012  68.8384997 138.7779988
   3.3430012  68.7884997 138.7319988   4.1177073  68.6468160 138.3626151
  10.1520012  63.9914997 130.9539988  10.7170012  63.4444997 130.4069988
  10.0050012  63.4694997 131.7429988  10.2093380  63.8462259 130.9858695
   5.1540012  60.1274997 127.3729988   4.8370012  59.2254997 127.3369988
   5.9360012  60.1294997 126.8199988   5.2162408  60.0042474 127.2933569
   8.7790012  62.3794997 133.3679988   7.9430012  62.8334997 133.4789988
   9.3030012  62.6554997 134.1199988   8.7355416  62.4788660 133.4848119
   9.3230012  68.5924997 125.0529988   8.5780012  68.0854997 124.7309988
   9.1890012  68.6414997 125.9999988   9.2028776  68.5296940 125.1368647
  16.4730012  67.7254997 133.8399988  17.1150012  68.1824997 133.2959988
  15.6430012  67.8384997 133.3769988  16.4485963  67.8032704 133.7030177
  13.2210012  61.4064997 123.2519988  12.2820012  61.5184997 123.1009988
  13.5180012  62.2634997 123.5589988  13.1327583  61.5375981 123.2728337
  10.8420012  68.7764997 136.2899988  10.4970012  68.3954997 137.0969988
  10.6420012  69.7104997 136.3609988  10.7677527  68.8505135 136.4100689
  13.9390012  63.2734997 124.9129988  14.8310012  63.1364997 125.2319988
  13.9960012  64.0644997 124.3759988  14.0686504  63.3616052 124.8840818
   4.4480012  67.8874997 130.8229988   5.1930012  67.8854997 130.2219988
   4.5260012  67.0644997 131.3039988   4.5604995  67.7758887 130.8058282
  11.4490012  70.0514997 124.0789988  11.1530012  70.8774997 124.4599988
  10.7460012  69.4314997 124.2749988  11.3134914  70.0808199 124.1576443
   1.4560012  66.3484997 136.1379988   1.6790012  65.9304997 136.9699988
   0.8540012  65.7354997 135.7149988   1.4051759  66.2084668 136.1947022
   8.4720012  65.8654997 138.3509988   8.1760012  65.6994997 137.4559988
   9.4040012  65.6454997 138.3399988   8.5574166  65.8130640 138.2270536
  13.0930012  71.2384997 136.2409988  12.1920012  71.4214997 135.9729988
  13.1270012  71.4974997 137.1609988  12.9743139  71.2985849 136.3288099
  18.8240012  63.4834997 124.6079988  18.2700012  63.0874997 123.9359988
  18.9240012  64.3934997 124.3299988  18.7617059  63.5523586 124.4784401
  18.7870012  69.2834997 137.4449988  17.9360012  69.5214997 137.0779988
  19.3780012  69.2664997 136.6919988  18.7502487  69.3138258 137.2928893
  17.1190012  72.2694997 125.0729988  16.7460012  71.4434997 125.3819988
  17.3970012  72.0864997 124.1749988  17.1055222  72.1317430 124.9939473
  14.2800012  67.0774997 132.0939988  13.3510012  66.8454997 132.0669988
  14.7310012  66.3004997 131.7639988  14.2139216  66.9407238 132.0456917
   6.8230012  71.4054997 128.2269988   7.3500012  72.1784997 128.0269988
   5.9430012  71.6304997 127.9249988   6.7762031  71.5417545 128.1587912
   2.5780012  66.2674997 122.8139988   3.1940012  66.8944997 123.1939988
   1.7160012  66.5834997 123.0859988   2.5457698  66.3959430 122.9027183
   8.2500012  69.0684997 127.8029988   8.0090012  69.9934997 127.8449988
   7.5090012  68.6094997 128.1999988   8.1169225  69.1330933 127.8623742
   8.7650012  73.2174997 134.1189988   9.1270012  74.0724997 133.8849988
   9.2960012  72.9254997 134.8589988   8.8864473  73.2951060 134.1870855
   6.9330012  74.0904997 127.3489988   5.9830012  74.1954997 127.3999988
   7.2850012  74.9104997 127.6929988   6.8504195  74.2158800 127.4025502
  12.3090012  69.3164997 133.8189988  11.8830012  69.0894997 134.6459988
  12.8890012  68.5784997 133.6369988  12.3291868  69.1855299 133.9075830
  14.5120012  70.2454997 122.8929988  14.8650012  69.8654997 123.6969988
  13.5630012  70.1524997 122.9799988  14.4320918  70.1808956 123.0148532
  14.9670012  73.8684997 136.2889988  14.3660012  73.3134997 135.7929988
  15.2490012  74.5354997 135.6619988  14.9228804  73.8826625 136.1364849
  19.0150012  74.7254997 123.0939988  19.7590012  75.3114997 122.9539988
  18.3210012  75.2934997 123.4269988  19.0229899  74.8825798 123.1198778
   3.0900012  61.1014997 135.6959988   2.1970012  61.4404997 135.6279988
   2.9910012  60.2464997 136.1139988   2.9544164  61.0322588 135.7432235
  15.3780012  68.9184997 125.1199988  15.1000012  68.1904997 125.6759988
  16.3050012  69.0374997 125.3249988  15.4653124  68.8348802 125.2238845
   2.7410012  72.9064997 134.1309988   2.9580012  71.9744997 134.0999988
   2.9870012  73.1804997 135.0139988   2.8039549  72.8160636 134.2461763
   8.6030012  71.3574997 121.3399988   8.8420012  70.6094997 120.7929988
   8.3340012  70.9694997 122.1729988   8.5993675  71.2026638 121.3776865
   7.5400012  70.9274997 123.7959988   7.6860012  70.4074997 124.5859988
   7.5370012  71.8344997 124.1029988   7.5595792  70.9788842 123.9456117
   3.9930012  68.1804997 124.3069988   3.3070012  68.5324997 124.8739988
   4.5150012  68.9434997 124.0599988   3.9696852  68.3318578 124.3512118
  11.8240012  60.8424997 134.5859988  12.5230012  60.9164997 135.2359988
  11.4430012  59.9784997 134.7399988  11.8681767  60.7357624 134.6958322
  12.6090012  60.4944997 125.6829988  12.8290012  60.9664997 124.8799988
  13.1670012  60.8894997 126.3529988  12.7144968  60.6124285 125.6637331
  10.2770012  72.6254997 124.5459988   9.4610012  73.1224997 124.5979988
  10.8070012  73.1004997 123.9059988  10.2369161  72.7577722 124.4665956
   9.8090012  62.2224997 126.5179988  10.6210012  62.7274997 126.5639988
   9.5640012  62.0774997 127.4319988   9.8870520  62.2720375 126.6478517
  10.3440012  63.2084997 135.7019988  10.4630012  63.7824997 136.4599988
  11.0000012  62.5204997 135.8169988  10.4489025  63.1939858 135.8211321
  10.6920012  59.3034997 127.4559988  10.3460012  59.9214997 128.0999988
  11.3510012  59.8044997 126.9739988  10.7336968  59.4556278 127.4789383
   7.6160012  73.6694997 124.5269988   7.7760012  74.4684997 124.0269988
   7.4180012  73.9754997 125.4119988   7.6111637  73.8204020 124.5781144
   6.3500012  60.3664997 124.1429988   6.2670012  61.2554997 124.4899988
   7.2400012  60.1014997 124.3749988   6.4589469  60.4521430 124.2217626
  16.5490012  61.1154997 136.5369988  15.6320012  61.3784997 136.4499988
  16.8840012  61.1124997 135.6409988  16.4688613  61.1510761 136.4038837
  15.1510012  64.8664997 130.6329988  14.3530012  64.4514997 130.3049988
  15.5960012  64.1754997 131.1239988  15.1019885  64.7163543 130.6544889
   4.6090012  70.7944997 123.2039988   5.2010012  71.4934997 123.4799988
   5.0680012  70.3614997 122.4839988   4.7521142  70.8317049 123.1444830
   2.9250012  63.4584997 122.3199988   2.8800012  64.3974997 122.4979988
   2.0370012  63.2224997 122.0499988   2.7988574  63.5551892 122.3078912
  16.2370012  74.1224997 132.2559988  16.0820012  74.8004997 131.5979988
  17.1700012  74.1944997 132.4589988  16.3418657  74.2249546 132.1934360
   3.7330012  58.2404997 130.9929988   3.5040012  58.2994997 130.0649988
   3.2900012  57.4484997 131.2989988   3.6418530  58.1415753 130.9074786
   2.6630012  72.1804997 127.1529988   1.8310012  72.6534997 127.1799988
   3.2090012  72.6904997 126.5549988   2.6230352  72.3141332 127.0758463
   1.9510012  74.7934997 138.4829988   2.4920012  74.5764997 139.2429988
   1.4700012  73.9874997 138.2929988   1.9599951  74.6549270 138.5612576
   6.5490012  73.7124997 140.1029988   7.3160012  73.2534997 140.4439988
   6.5270012  73.4864997 139.1739988   6.6511275  73.6190186 140.0240101
  10.6410012  73.2204997 121.4789988   9.9970012  72.5894997 121.7999988
  11.4030012  72.6894997 121.2469988  10.6558077  73.0622920 121.4916011
  13.1260012  72.0924997 138.8329988  12.7750012  71.2364997 139.0759988
  13.8520012  72.2354997 139.4399988  13.1760769  71.9945636 138.9483619
  15.2450012  73.0374997 121.7119988  15.5280012  72.2434997 122.1649988
  15.9850012  73.2704997 121.1519988  15.3838006  72.9603376 121.6982715
   1.8580012  68.6034997 139.4369988   2.0020012  67.7014997 139.1509988
   1.0860012  68.8894997 138.9499988   1.7732753  68.5186816 139.3319505
   6.2000012  68.9474997 121.5699988   6.2640012  68.1534997 122.1009988
   6.8530012  68.8284997 120.8799988   6.2970241  68.8227148 121.5494317
   8.5140012  68.5734997 138.8699988   8.1850012  68.8444997 138.0129988
   8.6660012  67.6324997 138.7829988   8.4894809  68.4833862 138.7408244
  11.5520012  69.9944997 121.3059988  11.2830012  70.1744997 122.2069988
  11.3460012  69.0684997 121.1739988  11.4873427  69.8940261 121.4115073
  14.2480012  68.4894997 136.2529988  14.9940012  69.0774997 136.1339988
  13.4910012  69.0714997 136.3169988  14.2477820  68.6487143 136.2453590
   2.6910012  65.8034997 138.8569988   3.0990012  64.9464997 138.7359988
   2.4310012  65.8184997 139.7779988   2.7117568  65.6880807 138.9649588
   7.3490012  66.9194997 123.8759988   6.8890012  66.4354997 124.5619988
   7.6040012  66.2514997 123.2399988   7.3204902  66.7628731 123.8839334
   6.6380012  64.8124997 136.2319988   6.0200012  65.4874997 136.5119988
   6.9820012  65.1334997 135.3979988   6.5999132  64.9482411 136.1576262
   8.4200012  65.1624997 122.1379988   8.2400012  65.0084997 121.2109988
   9.3700012  65.2704997 122.1829988   8.5237776  65.1560175 122.0171843
  11.6580012  67.2844997 139.5089988  12.6110012  67.3674997 139.4819988
  11.4970012  66.5724997 140.1289988  11.7666426  67.1996746 139.5890579
  17.8100012  67.5174997 121.5839988  17.5360012  67.0924997 120.7709988
  17.8490012  68.4484997 121.3669988  17.7777699  67.5852484 121.4433610
   6.9770012  62.1674997 137.3139988   7.1270012  61.4384997 136.7119988
   6.9800012  62.9444997 136.7549988   6.9979302  62.1727851 137.1560692
   7.3900012  60.5374997 134.8069988   7.9260012  60.9884997 134.1549988
   6.5380012  60.4294997 134.3839988   7.3482178  60.5846390 134.6605756
   8.9720012  65.9764997 135.0459988   9.7220012  65.8204997 134.4729988
   8.6330012  66.8284997 134.7709988   9.0288921  66.0702968 134.9303561
  13.3870012  63.7914997 140.0749988  13.5800012  62.8604997 139.9629988
  14.2450012  64.2164997 140.0639988  13.5292934  63.7216531 140.0582031
  14.7040012  66.5804997 138.1519988  14.4230012  67.2894997 137.5739988
  15.6470012  66.5074997 138.0009988  14.7929291  66.6676711 138.0524967
   5.4560012  63.3654997 139.2259988   4.6890012  62.8334997 139.0149988
   6.1350012  63.0554997 138.6259988   5.4427877  63.2508300 139.1160716
   8.1960012  57.9934997 135.2379988   8.0970012  58.9404997 135.1329988
   7.4530012  57.6214997 134.7619988   8.0821184  58.0725863 135.1593621
   9.4600012  62.3154997 138.8019988   9.2240012  62.0954997 139.7029988
   8.6760012  62.1084997 138.2919988   9.3218504  62.2574586 138.8563431
  12.1750012  61.4424997 137.8769988  11.2280012  61.4744997 138.0099988
  12.4880012  60.8174997 138.5309988  12.0876707  61.3623998 137.9836060
  13.8090012  60.0764997 139.8829988  13.7130012  59.1244997 139.8769988
  13.4880012  60.3454997 140.7429988  13.7524070  59.9824035 139.9985441
   3.6360012  61.2864997 138.9299988   3.8480012  60.5794997 138.3199988
   3.5250012  60.8484997 139.7739988   3.6499721  61.1307084 138.9606843
   8.4170012  57.2874997 137.9089988   9.1290012  56.6474997 137.8949988
   8.3160012  57.5544997 136.9959988   8.5008066  57.2360079 137.7835677
   8.7710012  58.9704997 139.9629988   8.6390012  58.4944997 139.1429988
   8.1720012  59.7144997 139.9079988   8.6719071  59.0059618 139.8432886
   8.3170012  75.8534997 123.1389988   9.2500012  76.0114997 123.2829988
   8.0530012  76.5284997 122.5149988   8.4089888  75.9664510 123.0742842
   1.8860012  70.4894997 122.6219988   2.8000012  70.5684997 122.8959988
   1.8930012  69.8024997 121.9559988   2.0121131  70.4073961 122.5694393
   0.5350012  75.8824997 127.6999988  -0.1119988  75.4204997 127.1669988
   0.8890012  75.2104997 128.2819988   0.4943849  75.7284723 127.7057959
   1.4050012  73.9634997 129.5039988   1.0700012  73.0834997 129.6759988
   1.6270012  74.3084997 130.3689988   1.3891783  73.8897501 129.6444208
  18.9530012  74.7724997 132.4849988  18.9320012  74.9574997 133.4239988
  19.6440012  75.3414997 132.1439988  19.0434618  74.8746606 132.5673864
  18.5170012  74.3404997 135.4069988  18.0290012  73.6044997 135.0349988
  19.0660012  73.9464997 136.0849988  18.5244820  74.1865889 135.4477813
  16.9670012  70.1294997 140.0449988  16.1010012  70.0244997 140.4389988
  17.3440012  70.8884997 140.4909988  16.8993308  70.2176900 140.1592393
  18.2680012  68.3864997 125.5589988  19.1180012  68.8074997 125.6859988
  18.2740012  67.6464997 126.1659988  18.3851372  68.3440803 125.6584344
  18.6630012  66.4394997 127.3819988  17.9360012  65.9604997 127.7799988
  19.2440012  66.6454997 128.1149988  18.6420473  66.4018103 127.5354528
  18.4220012  69.2244997 132.3299988  19.2550012  68.8464997 132.0499988
  18.5340012  70.1674997 132.2109988  18.5512647  69.3002218 132.2755487
  16.9080012  72.1024997 134.6369988  16.2610012  72.4274997 135.2629988
  16.3910012  71.6624997 133.9629988  16.7494029  72.0875004 134.6315827
  18.9310012  66.3404997 123.7739988  18.4090012  66.6974997 123.0549988
  18.8980012  67.0154997 124.4519988  18.8551634  66.4805413 123.7673145
  17.2800012  63.5804997 122.3239988  17.3760012  64.2474997 121.6439988
  17.1400012  62.7644997 121.8429988  17.2742272  63.5615655 122.1658347
  16.4490012  64.9604997 127.9449988  16.2990012  64.0154997 127.9249988
  16.0960012  65.2414997 128.7889988  16.3807448  64.8691481 128.0563705
   1.4850012  67.0384997 131.9559988   1.6690012  66.9564997 131.0199988
   2.3340012  66.9144997 132.3789988   1.6250151  67.0105073 131.8851451
  17.3060012  66.9304997 137.5839988  17.8890012  66.1964997 137.7759988
  17.8700012  67.7024997 137.6309988  17.4619769  66.9344227 137.6166159
  18.8020012  64.8334997 138.2689988  17.9390012  64.4544997 138.1029988
  19.4070012  64.0944997 138.1939988  18.7656119  64.6818268 138.2361528
  16.5270012  60.9884997 121.4419988  17.1380012  60.6174997 122.0789988
  15.6910012  60.5674997 121.6379988  16.4975032  60.8807554 121.5557035
  16.1600012  62.5434997 126.4079988  16.4400012  61.6364997 126.5319988
  16.9190012  62.9774997 126.0189988  16.3009277  62.4780942 126.3723682
  16.7720012  63.1244997 131.8439988  17.7050012  63.3364997 131.8089988
  16.5370012  63.2264997 132.7659988  16.8679244  63.1673100 131.9638892
  16.8010012  63.8614997 134.6199988  15.9580012  64.1294997 134.9859988
  17.2430012  64.6834997 134.4089988  16.7454158  64.0093291 134.6415491
   1.0820012  62.3094997 138.0969988   2.0020012  62.1874997 138.3329988
   0.6330012  61.5594997 138.4859988   1.1471580  62.1913727 138.1819006
  19.0840012  57.8414997 139.9729988  19.4340012  57.1874997 139.3679988
  19.2310012  58.6784997 139.5329988  19.1517887  57.8651548 139.8306858
  16.7730012  59.8064997 126.4559988  16.9560012  59.3574997 127.2819988
  16.1740012  59.2214997 125.9929988  16.7170202  59.6659975 126.5063275
   2.3030012  60.6214997 130.9879988   2.7490012  59.8294997 131.2899988
   2.7700012  61.3374997 131.4179988   2.4270831  60.6100685 131.0874006
   0.6070012  63.6204997 132.0569988   1.0990012  63.3994997 131.2659988
   0.9700012  64.4614997 132.3379988   0.7233126  63.7038357 131.9867531
  18.6040012  59.9504997 138.3219988  17.6860012  60.2214997 138.2869988
  18.7270012  59.4154997 137.5379988  18.4949729  59.9152508 138.2111923
  18.6400012  59.8734997 122.9839988  19.0520012  59.1524997 122.5089988
  19.3220012  60.5434997 123.0429988  18.7885885  59.8652368 122.9268915
   0.9210012  59.8784997 126.1109988  -0.0039988  60.0874997 125.9819988
   1.3750012  60.3624997 125.4209988   0.8557292  59.9725343 126.0000720
  15.6920012  74.8624997 128.0569988  16.3440012  74.5154997 127.4489988
  16.2020012  75.3514997 128.7029988  15.8502637  74.8810597 128.0610236
   0.8850012  58.6164997 134.4549988   0.2200012  58.3704997 135.0989988
   0.4420012  59.2384997 133.8779988   0.7341318  58.6669410 134.4650898
   3.0770012  71.7914997 138.5999988   2.2560012  71.9664997 138.1389988
   2.8240012  71.7184997 139.5199988   2.9305585  71.8055544 138.6613561
   6.0310012  72.7664997 134.8579988   5.6060012  73.5754997 134.5759988
   6.9350012  72.8514997 134.5559988   6.0949975  72.8889300 134.7784816
  10.3420012  74.1654997 137.8179988  10.5270012  73.8314997 138.6959988
  11.1880012  74.4744997 137.4959988  10.4817539  74.1616047 137.8945605
  12.6870012  75.4514997 137.0619988  13.3640012  74.8184997 136.8219988
  13.0090012  75.8524997 137.8689988  12.8231637  75.4191154 137.1382793
  17.6040012  58.0404997 136.1409988  16.7920012  58.3654997 135.7539988
  17.8370012  57.2804997 135.6079988  17.5242203  57.9822758 136.0158880
   3.4330012  76.0224997 134.9059988   2.7120012  76.4624997 134.4549988
   3.0670012  75.7714997 135.7539988   3.2849651  76.0487242 134.9589640
   5.9000012  75.6224997 133.9359988   5.0350012  75.6944997 134.3399988
   5.8450012  76.1694997 133.1519988   5.7742085  75.7062685 133.8853362
  10.6100012  75.5104997 133.1109988  10.1540012  76.0394997 132.4569988
  10.7730012  76.1134997 133.8359988  10.5696068  75.6644607 133.1194838
  12.9380012  74.3884997 134.0559988  12.0330012  74.5534997 133.7899988
  13.3670012  75.2414997 133.9909988  12.8721324  74.5264339 134.0107976
  15.5420012  75.9584997 134.3509988  15.3600012  76.8744997 134.1409988
  15.7190012  75.5484997 133.5049988  15.5410210  76.0284822 134.2077885
   2.8470012  74.6454997 131.8159988   2.8290012  74.2204997 132.6729988
   3.6520012  74.3274997 131.4069988   2.9533529  74.5443013 131.8780946
   4.9890012  73.3554997 130.4709988   4.7700012  72.4394997 130.6409988
   5.8130012  73.4954997 130.9369988   5.0704420  73.2490520 130.5572774
   7.5260012  73.8254997 131.3199988   7.7390012  72.9374997 131.0329988
   7.5900012  73.7914997 132.2739988   7.5638232  73.6993102 131.4097397
  11.0340012  59.4894997 130.4639988  10.3600012  58.8604997 130.7199988
  11.5980012  59.0054997 129.8609988  11.0179230  59.3378744 130.4175340
  16.1770012  57.5974997 130.5769988  16.7810012  58.1444997 130.0749988
  15.3070012  57.9164997 130.3359988  16.1421208  57.7155137 130.4756886
  17.9040012  58.7354997 128.9099988  18.5160012  58.2214997 128.3829988
  18.2860012  59.6134997 128.9329988  18.0393371  58.7837866 128.8410041
   3.3610012  58.1234997 128.2859988   2.5840012  57.8894997 127.7789988
   3.8910012  57.3264997 128.2949988   3.3262330  57.9836988 128.2177742
   2.1970012  57.9214997 124.0899988   2.6360012  58.5324997 123.4979988
   1.5640012  58.4594997 124.5639988   2.1714514  58.0779257 124.0730930
   7.9400012  58.0504997 128.0999988   8.8150012  58.4384997 128.0699988
   7.8040012  57.8354997 129.0219988   8.0413695  58.0745184 128.2206440
  13.4970012  58.0804997 129.7489988  13.5730012  58.1754997 128.7989988
  13.2220012  57.1724997 129.8779988  13.4702321  57.9707867 129.6365079
  14.8500012  58.1064997 125.4409988  14.1480012  58.7214997 125.2309988
  14.4060012  57.2684997 125.5719988  14.6936450  58.0775639 125.4299000
   2.0980012  73.8694997 124.9869988   1.4130012  73.8314997 124.3199988
   2.1020012  74.7824997 125.2759988   2.0046998  73.9876733 124.9346771
   4.0580012  59.8374997 122.5319988   4.5500012  59.2074997 122.0049988
   4.6820012  60.1334997 123.1949988   4.2095688  59.7913804 122.5495482
   9.0840012  60.1304997 124.9889988   9.2620012  59.4844997 125.6719988
   9.0310012  60.9644997 125.4559988   9.1011999  60.1548009 125.1455917
  10.9630012  75.0794997 123.3849988  11.8290012  75.4454997 123.2069988
  10.7160012  74.6394997 122.5709988  11.0482392  75.0701756 123.2506289
  17.6720012  74.6424997 126.0639988  17.4770012  73.8944997 125.4989988
  17.6330012  75.4004997 125.4809988  17.6400380  74.6426099 125.9078384
   3.3190012  58.6374997 137.8039988   2.9530012  57.8724997 138.2459988
   4.2320012  58.6664997 138.0899988   3.3922736  58.5365640 137.9032502
   5.2920012  57.9884997 139.3399988   6.1900012  57.7144997 139.1549988
   4.9050012  57.2454997 139.8039988   5.3626612  57.8505914 139.3773643
   3.9160012  74.7894997 122.0129988   3.6490012  75.0764997 122.8859988
   4.6880012  74.2434997 122.1649988   3.9837488  74.7550294 122.1531050
  13.7130012  57.3204997 139.5219988  13.7900012  56.8944997 140.3759988
  14.6070012  57.3344997 139.1789988  13.8443428  57.2640879 139.5925310
  16.8890012  73.3934997 138.2139988  16.1070012  73.2074997 137.6939988
  16.8170012  74.3224997 138.4319988  16.7722274  73.4936643 138.1723018
  31.2950012  67.2794997 128.2449988  31.3840012  68.2234997 128.1129988
  30.6570012  67.0044997 127.5869988  31.2209081  67.3714830 128.1379614
  30.2280012  66.5344997 131.6639988  30.1900012  65.8884997 132.3689988
  29.9060012  66.0684997 130.8929988  30.1792333  66.3829408 131.6562978
  22.5970012  66.1494997 133.2569988  22.6380012  65.5234997 133.9799988
  23.3000012  66.7734997 133.4389988  22.6976363  66.1481196 133.3806044
  33.9340012  69.4734997 129.9649988  33.4940012  68.7534997 130.4159988
  33.9210012  70.1944997 130.5949988  33.8720226  69.4723731 130.1118494
  23.5200012  70.5994997 131.7919988  23.1510012  69.7974997 131.4219988
  24.4610012  70.4304997 131.8379988  23.5967289  70.4670153 131.7476316
  20.1300012  64.2594997 127.1849988  19.6830012  65.1054997 127.1659988
  19.5690012  63.6794997 126.6689988  19.9929900  64.2969916 127.1126801
  20.8410012  66.4214997 129.3099988  21.0540012  65.6514997 129.8379988
  21.5790012  66.5104997 128.7069988  20.9699044  66.3281968 129.3007123
  31.0460012  74.5784997 130.1769988  31.6660012  73.9014997 129.9039988
  30.8380012  74.3604997 131.0859988  31.1026726  74.4564800 130.2624812
  28.6180012  68.9674997 132.0699988  28.9220012  68.2814997 131.4749988
  29.3390012  69.0854997 132.6879988  28.7570671  68.8896304 132.0721816
  37.2810012  60.5684997 132.9309988  37.3300012  61.1784997 133.6659988
  37.7060012  61.0294997 132.2079988  37.3451746  60.7143796 132.9339175
  31.7590012  63.3614997 132.3969988  31.9010012  62.4154997 132.4179988
  31.6520012  63.5684997 131.4689988  31.7639919  63.2598246 132.2743408
  24.9130012  61.4624997 129.6699988  24.9570012  62.3224997 129.2509988
  24.4560012  60.9104997 129.0359988  24.8572240  61.5054422 129.5269864
  32.6360012  61.5934997 128.0709988  33.2820012  61.2644997 128.6949988
  33.1460012  62.1114997 127.4479988  32.7934299  61.6184450 128.0722731
  21.5340012  63.8594997 130.4319988  22.1870012  63.3094997 130.8639988
  21.5580012  63.5854997 129.5149988  21.6266683  63.7471466 130.3672123
  26.6900012  65.4094997 129.6469988  27.3060012  64.8834997 130.1569988
  26.1040012  64.7694997 129.2439988  26.6950810  65.2509208 129.6623173
  37.6720012  62.0464997 135.1659988  36.9840012  62.7044997 135.0709988
  37.6880012  61.8494997 136.1029988  37.5799540  62.1099819 135.2795990
  23.7240012  60.3804997 133.7439988  23.5050012  60.9104997 132.9779988
  23.0560012  60.6074997 134.3909988  23.6037600  60.4836906 133.7266379
  31.0930012  69.8804997 127.2879988  30.7970012  69.5584997 126.4369988
  30.7680012  70.7804997 127.3289988  31.0086371  69.9580215 127.1771801
  26.2930012  68.0564997 134.0309988  25.5530012  68.6544997 134.1349988
  27.0070012  68.6104997 133.7159988  26.2882237  68.2132831 134.0026465
  34.4000012  60.8844997 130.0509988  34.1840012  60.1184997 130.5839988
  35.0550012  61.3564997 130.5639988  34.4590632  60.8435889 130.1932861
  23.3170012  62.2724997 131.6959988  23.9310012  62.9054997 132.0689988
  23.8290012  61.8004997 131.0399988  23.4701981  62.2952267 131.6582908
  24.7000012  70.0204997 134.8179988  24.6950012  70.9004997 134.4399988
  23.8470012  69.9374997 135.2429988  24.5839464  70.1296117 134.8237907
  20.8210012  69.6914997 125.5999988  20.5490012  69.9204997 124.7119988
  20.8670012  70.5294997 126.0609988  20.7899482  69.8361318 125.5406273
  34.4460012  71.3134997 132.3129988  33.5050012  71.3714997 132.4749988
  34.7230012  72.2194997 132.1759988  34.3544679  71.4439443 132.3166815
  34.7470012  59.5994997 133.7309988  34.0110012  60.2104997 133.6929988
  35.4300012  60.0144997 133.2039988  34.7386541  59.7391374 133.6545832
  27.7500012  57.6864997 131.1959988  27.6330012  56.7374997 131.1419988
  26.8950012  58.0184997 131.4699988  27.6184212  57.6015571 131.2256497
  32.6980012  73.0944997 128.9379988  33.1240012  72.3874997 128.4529988
  33.0150012  73.8954997 128.5219988  32.7991683  73.1061017 128.8153680
  33.8580012  70.9954997 127.4469988  33.6000012  70.3054997 126.8359988
  33.9290012  70.5524997 128.2929988  33.8322856  70.8412124 127.4776885
  35.5440012  69.5614997 135.9239988  35.6840012  68.9704997 135.1849988
  35.7110012  70.4344997 135.5679988  35.5857411  69.5985428 135.7746894
  30.0170012  66.5234997 125.6969988  29.3050012  67.0584997 125.3449988
  30.7080012  66.5794997 125.0369988  30.0130132  66.6042543 125.5596289
  30.0700012  64.9814997 122.7359988  30.7710012  65.0034997 123.3869988
  30.3730012  64.3534997 122.0789988  30.2068133  64.8997070 122.7363369
  37.3860012  65.9014997 133.9899988  36.7330012  66.5964997 134.0799988
  37.8510012  66.1114997 133.1809988  37.3595274  66.0250643 133.8928462
  33.4220012  66.7334997 126.6489988  32.6900012  66.9614997 127.2219988
  33.8700012  66.0194997 127.1029988  33.3822725  66.6682145 126.7888816
  33.3200012  64.9074997 135.7159988  33.4000012  65.6704997 136.2879988
  32.7180012  65.1864997 135.0259988  33.2495756  65.0497134 135.7010589
  25.0680012  67.3634997 128.5309988  24.7370012  66.9934997 127.7129988
  25.6560012  66.6934997 128.8779988  25.1021873  67.2221156 128.4658102
  26.4340012  70.7914997 131.2119988  26.3400012  70.2134997 130.4559988
  27.1640012  70.4204997 131.7089988  26.5197387  70.6621663 131.1755342
  25.4340012  66.1324997 132.1649988  26.0000012  66.2534997 131.4019988
  25.7530012  66.7694997 132.8029988  25.5545474  66.2352219 132.1469862
  31.7430012  71.6354997 132.8989988  31.5030012  72.2974997 133.5469988
  31.5450012  70.8014997 133.3239988  31.6833808  71.6133134 133.0451524
  26.3140012  70.5314997 136.8819988  26.0030012  71.3134997 137.3369988
  25.6640012  70.3784997 136.1959988  26.1835558  70.6179105 136.8515871
  32.2930012  65.8954997 124.3339988  32.8730012  66.0454997 125.0809988
  32.7070012  66.3664997 123.6099988  32.4282997  65.9796578 124.3384058
  23.2340012  66.7294997 136.1099988  23.3050012  67.3804997 136.8089988
  22.3440012  66.8324997 135.7749988  23.1233005  66.8325427 136.1603495
  30.0200012  72.6324997 127.7689988  30.4940012  72.9274997 128.5459988
  29.4570012  73.3704997 127.5359988  30.0088184  72.7727247 127.8439628
  24.5540012  72.6034997 137.6449988  24.5610012  72.4674997 136.6979988
  23.6380012  72.4854997 137.8969988  24.4311714  72.5689430 137.5494666
  35.9920012  57.6454997 124.1469988  35.0920012  57.7844997 124.4419988
  36.2440012  58.4764997 123.7449988  35.9028702  57.7769074 124.1330205
  24.0580012  66.4334997 126.1199988  23.7660012  67.2014997 125.6299988
  23.3840012  65.7734997 125.9579988  23.9268111  66.4495587 126.0308978
  37.1810012  72.0114997 122.5229988  37.2550012  72.9504997 122.6939988
  38.0870012  71.7064997 122.4669988  37.3135100  72.0986722 122.5388119
  20.1510012  68.7964997 134.9349988  19.6500012  68.7684997 134.1199988
  20.1560012  67.8904997 135.2449988  20.0830944  68.6702396 134.8653226
  19.9010012  71.5764997 131.8189988  20.8470012  71.4324997 131.7999988
  19.7890012  72.3604997 132.3559988  20.0152727  71.6628046 131.8890072
  38.0990012  72.2424997 137.5019988  38.0500012  71.2874997 137.4649988
  37.2720012  72.5104997 137.9029988  37.9804940  72.1478998 137.5511375
  29.0780012  71.8164997 136.3779988  29.1650012  72.6424997 136.8529988
  28.2140012  71.4864997 136.6269988  28.9731964  71.8849878 136.4766549
  29.4920012  75.5884997 126.1839988  29.4170012  75.4674997 125.2369988
  29.5250012  76.5384997 126.3019988  29.4862068  75.7002646 126.0704967
  23.1450012  74.3774997 127.9649988  23.2980012  74.0294997 128.8429988
  22.2950012  74.0214997 127.7099988  23.0509166  74.2816216 128.0508079
  32.5940012  74.7424997 123.1859988  32.9690012  73.9984997 122.7149988
  32.5980012  74.4724997 124.1049988  32.6459125  74.6040986 123.2456483
  32.2630012  74.6684997 125.9349988  31.3270012  74.7684997 126.1139988
  32.5430012  73.9594997 126.5139988  32.1729553  74.5863406 126.0377087
  35.2510012  63.7354997 137.9819988  34.8440012  64.2164997 137.2609988
  35.2920012  62.8304997 137.6739988  35.2008437  63.6789374 137.8416683
  22.4000012  70.1194997 135.9789988  22.6160012  69.7584997 136.8379988
  21.5450012  69.7454997 135.7689988  22.3139292  70.0194111 136.0683386
  25.0190012  58.5894997 131.9739988  24.1570012  58.5024997 131.5659988
  24.9960012  59.4454997 132.4019988  24.8980409  58.6932883 131.9760589
  29.6820012  58.3114997 135.3489988  30.1020012  57.8964997 136.1019988
  28.7490012  58.1334997 135.4659988  29.6133644  58.2305900 135.4679539
  33.0080012  62.0674997 136.2019988  32.4940012  61.9414997 136.9999988
  32.8530012  62.9794997 135.9579988  32.9166852  62.1736132 136.2782158
  33.7710012  66.9284997 121.9639988  33.8130012  66.7054997 121.0339988
  34.6200012  67.3274997 122.1529988  33.8915280  66.9519438 121.8623554
  29.3430012  60.8044997 122.6339988  29.0900012  60.8234997 123.5569988
  29.0870012  59.9324997 122.3319988  29.2737481  60.6892558 122.7196175
  25.1100012  63.5554997 133.0689988  24.4680012  63.5144997 133.7779988
  25.1470012  64.4814997 132.8309988  25.0270664  63.6751430 133.1339219
  25.1070012  63.7764997 127.9809988  24.2140012  63.4354997 127.9219988
  25.5570012  63.3994997 127.2249988  25.0458130  63.6789631 127.8707702
  30.6420012  64.1924997 126.7979988  30.2330012  65.0074997 126.5069988
  31.3630012  64.0524997 126.1839988  30.6834537  64.2852018 126.6751342
  29.7440012  64.3674997 138.2859988  29.1820012  63.6634997 138.6069988
  30.5710012  64.2474997 138.7539988  29.7787095  64.2547883 138.3932330
  31.6470012  63.6384997 129.6119988  31.4520012  64.2434997 128.8969988
  31.8280012  62.8044997 129.1779988  31.6447614  63.6086300 129.4554405
  22.8600012  63.8754997 134.9359988  22.8220012  64.2754997 135.8049988
  22.3690012  63.0584997 135.0269988  22.7884684  63.8198069 135.0671059
  26.2260012  61.2494997 121.7349988  25.7950012  60.8044997 122.4649988
  25.5080012  61.6214997 121.2229988  26.0699438  61.2388940 121.7656799
  19.4680012  60.9914997 128.7869988  20.0990012  60.9624997 129.5059988
  19.9170012  60.5664997 128.0559988  19.6150918  60.9300836 128.7866441
  20.7420012  61.7374997 124.2109988  21.2160012  62.3284997 123.6259988
  20.0250012  62.2684997 124.5579988  20.7099341  61.8900867 124.1778836
  30.9110012  65.2764997 134.2829988  31.2340012  64.6454997 133.6399988
  30.4710012  64.7414997 134.9439988  30.8957484  65.1178387 134.2843198
  27.6880012  61.2034997 129.0669988  26.7770012  61.2604997 129.3559988
  28.1940012  61.1434997 129.8779988  27.6316899  61.2031941 129.2161184
  22.5170012  62.8324997 127.8939988  21.6270012  62.9324997 127.5539988
  22.8130012  61.9904997 127.5479988  22.4352823  62.7323545 127.8007213
  26.1700012  62.8324997 125.5509988  27.1010012  62.9614997 125.7289988
  25.9550012  63.5024997 124.9009988  26.2684247  62.9406565 125.4875747
  32.0930012  60.4384997 132.3319988  31.4170012  60.5694997 132.9959988
  31.6080012  60.2834997 131.5209988  31.9347146  60.4355157 132.3134469
  24.8440012  64.0274997 123.1169988  24.3010012  63.6474997 122.4259988
  25.6770012  64.2214997 122.6889988  24.8823631  64.0017125 122.9644501
  35.3810012  76.1104997 138.6079988  35.5810012  76.5344997 137.7739988
  36.0360012  76.4534997 139.2149988  35.4970072  76.2149857 138.5758592
  22.9790012  68.5844997 138.2159988  23.7110012  68.8384997 138.7779988
  22.1990012  68.7884997 138.7319988  22.9737073  68.6468160 138.3626151
  29.0080012  63.9914997 130.9539988  29.5730012  63.4444997 130.4069988
  28.8610012  63.4694997 131.7429988  29.0653380  63.8462259 130.9858695
  24.0100012  60.1274997 127.3729988  23.6930012  59.2254997 127.3369988
  24.7920012  60.1294997 126.8199988  24.0722408  60.0042474 127.2933569
  27.6350012  62.3794997 133.3679988  26.7990012  62.8334997 133.4789988
  28.1590012  62.6554997 134.1199988  27.5915416  62.4788660 133.4848119
  28.1790012  68.5924997 125.0529988  27.4340012  68.0854997 124.7309988
  28.0450012  68.6414997 125.9999988  28.0588776  68.5296940 125.1368647
  35.3290012  67.7254997 133.8399988  35.9710012  68.1824997 133.2959988
  34.4990012  67.8384997 133.3769988  35.3045963  67.8032704 133.7030177
  32.0770012  61.4064997 123.2519988  31.1380012  61.5184997 123.1009988
  32.3740012  62.2634997 123.5589988  31.9887583  61.5375981 123.2728337
  29.6980012  68.7764997 136.2899988  29.3530012  68.3954997 137.0969988
  29.4980012  69.7104997 136.3609988  29.6237527  68.8505135 136.4100689
  32.7950012  63.2734997 124.9129988  33.6870012  63.1364997 125.2319988
  32.8520012  64.0644997 124.3759988  32.9246504  63.3616052 124.8840818
  23.3040012  67.8874997 130.8229988  24.0490012  67.8854997 130.2219988
  23.3820012  67.0644997 131.3039988  23.4164995  67.7758887 130.8058282
  30.3050012  70.0514997 124.0789988  30.0090012  70.8774997 124.4599988
  29.6020012  69.4314997 124.2749988  30.1694914  70.0808199 124.1576443
  20.3120012  66.3484997 136.1379988  20.5350012  65.9304997 136.9699988
  19.7100012  65.7354997 135.7149988  20.2611759  66.2084668 136.1947022
  27.3280012  65.8654997 138.3509988  27.0320012  65.6994997 137.4559988
  28.2600012  65.6454997 138.3399988  27.4134166  65.8130640 138.2270536
  31.9490012  71.2384997 136.2409988  31.0480012  71.4214997 135.9729988
  31.9830012  71.4974997 137.1609988  31.8303139  71.2985849 136.3288099
  37.6800012  63.4834997 124.6079988  37.1260012  63.0874997 123.9359988
  37.7800012  64.3934997 124.3299988  37.6177059  63.5523586 124.4784401
  37.6430012  69.2834997 137.4449988  36.7920012  69.5214997 137.0779988
  38.2340012  69.2664997 136.6919988  37.6062487  69.3138258 137.2928893
  35.9750012  72.2694997 125.0729988  35.6020012  71.4434997 125.3819988
  36.2530012  72.0864997 124.1749988  35.9615222  72.1317430 124.9939473
  33.1360012  67.0774997 132.0939988  32.2070012  66.8454997 132.0669988
  33.5870012  66.3004997 131.7639988  33.0699216  66.9407238 132.0456917
  25.6790012  71.4054997 128.2269988  26.2060012  72.1784997 128.0269988
  24.7990012  71.6304997 127.9249988  25.6322031  71.5417545 128.1587912
  21.4340012  66.2674997 122.8139988  22.0500012  66.8944997 123.1939988
  20.5720012  66.5834997 123.0859988  21.4017698  66.3959430 122.9027183
  27.1060012  69.0684997 127.8029988  26.8650012  69.9934997 127.8449988
  26.3650012  68.6094997 128.1999988  26.9729225  69.1330933 127.8623742
  27.6210012  73.2174997 134.1189988  27.9830012  74.0724997 133.8849988
  28.1520012  72.9254997 134.8589988  27.7424473  73.2951060 134.1870855
  25.7890012  74.0904997 127.3489988  24.8390012  74.1954997 127.3999988
  26.1410012  74.9104997 127.6929988  25.7064195  74.2158800 127.4025502
  31.1650012  69.3164997 133.8189988  30.7390012  69.0894997 134.6459988
  31.7450012  68.5784997 133.6369988  31.1851868  69.1855299 133.9075830
  33.3680012  70.2454997 122.8929988  33.7210012  69.8654997 123.6969988
  32.4190012  70.1524997 122.9799988  33.2880918  70.1808956 123.0148532
  33.8230012  73.8684997 136.2889988  33.2220012  73.3134997 135.7929988
  34.1050012  74.5354997 135.6619988  33.7788804  73.8826625 136.1364849
  37.8710012  74.7254997 123.0939988  38.6150012  75.3114997 122.9539988
  37.1770012  75.2934997 123.4269988  37.8789899  74.8825798 123.1198778
  21.9460012  61.1014997 135.6959988  21.0530012  61.4404997 135.6279988
  21.8470012  60.2464997 136.1139988  21.8104164  61.0322588 135.7432235
  34.2340012  68.9184997 125.1199988  33.9560012  68.1904997 125.6759988
  35.1610012  69.0374997 125.3249988  34.3213124  68.8348802 125.2238845
  21.5970012  72.9064997 134.1309988  21.8140012  71.9744997 134.0999988
  21.8430012  73.1804997 135.0139988  21.6599549  72.8160636 134.2461763
  27.4590012  71.3574997 121.3399988  27.6980012  70.6094997 120.7929988
  27.1900012  70.9694997 122.1729988  27.4553675  71.2026638 121.3776865
  26.3960012  70.9274997 123.7959988  26.5420012  70.4074997 124.5859988
  26.3930012  71.8344997 124.1029988  26.4155792  70.9788842 123.9456117
  22.8490012  68.1804997 124.3069988  22.1630012  68.5324997 124.8739988
  23.3710012  68.9434997 124.0599988  22.8256852  68.3318578 124.3512118
  30.6800012  60.8424997 134.5859988  31.3790012  60.9164997 135.2359988
  30.2990012  59.9784997 134.7399988  30.7241767  60.7357624 134.6958322
  31.4650012  60.4944997 125.6829988  31.6850012  60.9664997 124.8799988
  32.0230012  60.8894997 126.3529988  31.5704968  60.6124285 125.6637331
  29.1330012  72.6254997 124.5459988  28.3170012  73.1224997 124.5979988
  29.6630012  73.1004997 123.9059988  29.0929161  72.7577722 124.4665956
  28.6650012  62.2224997 126.5179988  29.4770012  62.7274997 126.5639988
  28.4200012  62.0774997 127.4319988  28.7430520  62.2720375 126.6478517
  29.2000012  63.2084997 135.7019988  29.3190012  63.7824997 136.4599988
  29.8560012  62.5204997 135.8169988  29.3049025  63.1939858 135.8211321
  29.5480012  59.3034997 127.4559988  29.2020012  59.9214997 128.0999988
  30.2070012  59.8044997 126.9739988  29.5896968  59.4556278 127.4789383
  26.4720012  73.6694997 124.5269988  26.6320012  74.4684997 124.0269988
  26.2740012  73.9754997 125.4119988  26.4671637  73.8204020 124.5781144
  25.2060012  60.3664997 124.1429988  25.1230012  61.2554997 124.4899988
  26.0960012  60.1014997 124.3749988  25.3149469  60.4521430 124.2217626
  35.4050012  61.1154997 136.5369988  34.4880012  61.3784997 136.4499988
  35.7400012  61.1124997 135.6409988  35.3248613  61.1510761 136.4038837
  34.0070012  64.8664997 130.6329988  33.2090012  64.4514997 130.3049988
  34.4520012  64.1754997 131.1239988  33.9579885  64.7163543 130.6544889
  23.4650012  70.7944997 123.2039988  24.0570012  71.4934997 123.4799988
  23.9240012  70.3614997 122.4839988  23.6081142  70.8317049 123.1444830
  21.7810012  63.4584997 122.3199988  21.7360012  64.3974997 122.4979988
  20.8930012  63.2224997 122.0499988  21.6548574  63.5551892 122.3078912
  35.0930012  74.1224997 132.2559988  34.9380012  74.8004997 131.5979988
  36.0260012  74.1944997 132.4589988  35.1978657  74.2249546 132.1934360
  22.5890012  58.2404997 130.9929988  22.3600012  58.2994997 130.0649988
  22.1460012  57.4484997 131.2989988  22.4978530  58.1415753 130.9074786
  21.5190012  72.1804997 127.1529988  20.6870012  72.6534997 127.1799988
  22.0650012  72.6904997 126.5549988  21.4790352  72.3141332 127.0758463
  20.8070012  74.7934997 138.4829988  21.3480012  74.5764997 139.2429988
  20.3260012  73.9874997 138.2929988  20.8159951  74.6549270 138.5612576
  25.4050012  73.7124997 140.1029988  26.1720012  73.2534997 140.4439988
  25.3830012  73.4864997 139.1739988  25.5071275  73.6190186 140.0240101
  29.4970012  73.2204997 121.4789988  28.8530012  72.5894997 121.7999988
  30.2590012  72.6894997 121.2469988  29.5118077  73.0622920 121.4916011
  31.9820012  72.0924997 138.8329988  31.6310012  71.2364997 139.0759988
  32.7080012  72.2354997 139.4399988  32.0320769  71.9945636 138.9483619
  34.1010012  73.0374997 121.7119988  34.3840012  72.2434997 122.1649988
  34.8410012  73.2704997 121.1519988  34.2398006  72.9603376 121.6982715
  20.7140012  68.6034997 139.4369988  20.8580012  67.7014997 139.1509988
  19.9420012  68.8894997 138.9499988  20.6292753  68.5186816 139.3319505
  25.0560012  68.9474997 121.5699988  25.1200012  68.1534997 122.1009988
  25.7090012  68.8284997 120.8799988  25.1530241  68.8227148 121.5494317
  27.3700012  68.5734997 138.8699988  27.0410012  68.8444997 138.0129988
  27.5220012  67.6324997 138.7829988  27.3454809  68.4833862 138.7408244
  30.4080012  69.9944997 121.3059988  30.1390012  70.1744997 122.2069988
  30.2020012  69.0684997 121.1739988  30.3433427  69.8940261 121.4115073
  33.1040012  68.4894997 136.2529988  33.8500012  69.0774997 136.1339988
  32.3470012  69.0714997 136.3169988  33.1037820  68.6487143 136.2453590
  21.5470012  65.8034997 138.8569988  21.9550012  64.9464997 138.7359988
  21.2870012  65.8184997 139.7779988  21.5677568  65.6880807 138.9649588
  26.2050012  66.9194997 123.8759988  25.7450012  66.4354997 124.5619988
  26.4600012  66.2514997 123.2399988  26.1764902  66.7628731 123.8839334
  25.4940012  64.8124997 136.2319988  24.8760012  65.4874997 136.5119988
  25.8380012  65.1334997 135.3979988  25.4559132  64.9482411 136.1576262
  27.2760012  65.1624997 122.1379988  27.0960012  65.0084997 121.2109988
  28.2260012  65.2704997 122.1829988  27.3797776  65.1560175 122.0171843
  30.5140012  67.2844997 139.5089988  31.4670012  67.3674997 139.4819988
  30.3530012  66.5724997 140.1289988  30.6226426  67.1996746 139.5890579
  36.6660012  67.5174997 121.5839988  36.3920012  67.0924997 120.7709988
  36.7050012  68.4484997 121.3669988  36.6337699  67.5852484 121.4433610
  25.8330012  62.1674997 137.3139988  25.9830012  61.4384997 136.7119988
  25.8360012  62.9444997 136.7549988  25.8539302  62.1727851 137.1560692
  26.2460012  60.5374997 134.8069988  26.7820012  60.9884997 134.1549988
  25.3940012  60.4294997 134.3839988  26.2042178  60.5846390 134.6605756
  27.8280012  65.9764997 135.0459988  28.5780012  65.8204997 134.4729988
  27.4890012  66.8284997 134.7709988  27.8848921  66.0702968 134.9303561
  32.2430012  63.7914997 140.0749988  32.4360012  62.8604997 139.9629988
  33.1010012  64.2164997 140.0639988  32.3852934  63.7216531 140.0582031
  33.5600012  66.5804997 138.1519988  33.2790012  67.2894997 137.5739988
  34.5030012  66.5074997 138.0009988  33.6489291  66.6676711 138.0524967
  24.3120012  63.3654997 139.2259988  23.5450012  62.8334997 139.0149988
  24.9910012  63.0554997 138.6259988  24.2987877  63.2508300 139.1160716
  27.0520012  57.9934997 135.2379988  26.9530012  58.9404997 135.1329988
  26.3090012  57.6214997 134.7619988  26.9381184  58.0725863 135.1593621
  28.3160012  62.3154997 138.8019988  28.0800012  62.0954997 139.7029988
  27.5320012  62.1084997 138.2919988  28.1778504  62.2574586 138.8563431
  31.0310012  61.4424997 137.8769988  30.0840012  61.4744997 138.0099988
  31.3440012  60.8174997 138.5309988  30.9436707  61.3623998 137.9836060
  32.6650012  60.0764997 139.8829988  32.5690012  59.1244997 139.8769988
  32.3440012  60.3454997 140.7429988  32.6084070  59.9824035 139.9985441
  22.4920012  61.2864997 138.9299988  22.7040012  60.5794997 138.3199988
  22.3810012  60.8484997 139.7739988  22.5059721  61.1307084 138.9606843
  27.2730012  57.2874997 137.9089988  27.9850012  56.6474997 137.8949988
  27.1720012  57.5544997 136.9959988  27.3568066  57.2360079 137.7835677
  27.6270012  58.9704997 139.9629988  27.4950012  58.4944997 139.1429988
  27.0280012  59.7144997 139.9079988  27.5279071  59.0059618 139.8432886
  27.1730012  75.8534997 123.1389988  28.1060012  76.0114997 123.2829988
  26.9090012  76.5284997 122.5149988  27.2649888  75.9664510 123.0742842
  20.7420012  70.4894997 122.6219988  21.6560012  70.5684997 122.8959988
  20.7490012  69.8024997 121.9559988  20.8681131  70.4073961 122.5694393
  19.3910012  75.8824997 127.6999988  18.7440012  75.4204997 127.1669988
  19.7450012  75.2104997 128.2819988  19.3503849  75.7284723 127.7057959
  20.2610012  73.9634997 129.5039988  19.9260012  73.0834997 129.6759988
  20.4830012  74.3084997 130.3689988  20.2451783  73.8897500 129.6444208
  37.8090012  74.7724997 132.4849988  37.7880012  74.9574997 133.4239988
  38.5000012  75.3414997 132.1439988  37.8994618  74.8746606 132.5673864
  37.3730012  74.3404997 135.4069988  36.8850012  73.6044997 135.0349988
  37.9220012  73.9464997 136.0849988  37.3804820  74.1865889 135.4477813
  35.8230012  70.1294997 140.0449988  34.9570012  70.0244997 140.4389988
  36.2000012  70.8884997 140.4909988  35.7553308  70.2176900 140.1592393
  37.1240012  68.3864997 125.5589988  37.9740012  68.8074997 125.6859988
  37.1300012  67.6464997 126.1659988  37.2411372  68.3440803 125.6584344
  37.5190012  66.4394997 127.3819988  36.7920012  65.9604997 127.7799988
  38.1000012  66.6454997 128.1149988  37.4980473  66.4018103 127.5354528
  37.2780012  69.2244997 132.3299988  38.1110012  68.8464997 132.0499988
  37.3900012  70.1674997 132.2109988  37.4072647  69.3002218 132.2755487
  35.7640012  72.1024997 134.6369988  35.1170012  72.4274997 135.2629988
  35.2470012  71.6624997 133.9629988  35.6054029  72.0875004 134.6315827
  37.7870012  66.3404997 123.7739988  37.2650012  66.6974997 123.0549988
  37.7540012  67.0154997 124.4519988  37.7111634  66.4805413 123.7673145
  36.1360012  63.5804997 122.3239988  36.2320012  64.2474997 121.6439988
  35.9960012  62.7644997 121.8429988  36.1302272  63.5615655 122.1658347
  35.3050012  64.9604997 127.9449988  35.1550012  64.0154997 127.9249988
  34.9520012  65.2414997 128.7889988  35.2367448  64.8691481 128.0563705
  20.3410012  67.0384997 131.9559988  20.5250012  66.9564997 131.0199988
  21.1900012  66.9144997 132.3789988  20.4810151  67.0105073 131.8851451
  36.1620012  66.9304997 137.5839988  36.7450012  66.1964997 137.7759988
  36.7260012  67.7024997 137.6309988  36.3179769  66.9344227 137.6166159
  37.6580012  64.8334997 138.2689988  36.7950012  64.4544997 138.1029988
  38.2630012  64.0944997 138.1939988  37.6216119  64.6818268 138.2361528
  35.3830012  60.9884997 121.4419988  35.9940012  60.6174997 122.0789988
  34.5470012  60.5674997 121.6379988  35.3535032  60.8807554 121.5557035
  35.0160012  62.5434997 126.4079988  35.2960012  61.6364997 126.5319988
  35.7750012  62.9774997 126.0189988  35.1569277  62.4780942 126.3723682
  35.6280012  63.1244997 131.8439988  36.5610012  63.3364997 131.8089988
  35.3930012  63.2264997 132.7659988  35.7239244  63.1673100 131.9638892
  35.6570012  63.8614997 134.6199988  34.8140012  64.1294997 134.9859988
  36.0990012  64.6834997 134.4089988  35.6014158  64.0093291 134.6415491
  19.9380012  62.3094997 138.0969988  20.8580012  62.1874997 138.3329988
  19.4890012  61.5594997 138.4859988  20.0031580  62.1913727 138.1819006
  37.9400012  57.8414997 139.9729988  38.2900012  57.1874997 139.3679988
  38.0870012  58.6784997 139.5329988  38.0077887  57.8651548 139.8306858
  35.6290012  59.8064997 126.4559988  35.8120012  59.3574997 127.2819988
  35.0300012  59.2214997 125.9929988  35.5730202  59.6659975 126.5063275
  21.1590012  60.6214997 130.9879988  21.6050012  59.8294997 131.2899988
  21.6260012  61.3374997 131.4179988  21.2830831  60.6100685 131.0874006
  19.4630012  63.6204997 132.0569988  19.9550012  63.3994997 131.2659988
  19.8260012  64.4614997 132.3379988  19.5793126  63.7038357 131.9867531
  37.4600012  59.9504997 138.3219988  36.5420012  60.2214997 138.2869988
  37.5830012  59.4154997 137.5379988  37.3509729  59.9152508 138.2111923
  37.4960012  59.8734997 122.9839988  37.9080012  59.1524997 122.5089988
  38.1780012  60.5434997 123.0429988  37.6445885  59.8652368 122.9268915
  19.7770012  59.8784997 126.1109988  18.8520012  60.0874997 125.9819988
  20.2310012  60.3624997 125.4209988  19.7117292  59.9725343 126.0000720
  34.5480012  74.8624997 128.0569988  35.2000012  74.5154997 127.4489988
  35.0580012  75.3514997 128.7029988  34.7062637  74.8810597 128.0610236
  19.7410012  58.6164997 134.4549988  19.0760012  58.3704997 135.0989988
  19.2980012  59.2384997 133.8779988  19.5901318  58.6669410 134.4650898
  21.9330012  71.7914997 138.5999988  21.1120012  71.9664997 138.1389988
  21.6800012  71.7184997 139.5199988  21.7865585  71.8055544 138.6613561
  24.8870012  72.7664997 134.8579988  24.4620012  73.5754997 134.5759988
  25.7910012  72.8514997 134.5559988  24.9509975  72.8889300 134.7784816
  29.1980012  74.1654997 137.8179988  29.3830012  73.8314997 138.6959988
  30.0440012  74.4744997 137.4959988  29.3377539  74.1616047 137.8945605
  31.5430012  75.4514997 137.0619988  32.2200012  74.8184997 136.8219988
  31.8650012  75.8524997 137.8689988  31.6791637  75.4191154 137.1382793
  36.4600012  58.0404997 136.1409988  35.6480012  58.3654997 135.7539988
  36.6930012  57.2804997 135.6079988  36.3802203  57.9822758 136.0158880
  22.2890012  76.0224997 134.9059988  21.5680012  76.4624997 134.4549988
  21.9230012  75.7714997 135.7539988  22.1409651  76.0487242 134.9589640
  24.7560012  75.6224997 133.9359988  23.8910012  75.6944997 134.3399988
  24.7010012  76.1694997 133.1519988  24.6302085  75.7062685 133.8853362
  29.4660012  75.5104997 133.1109988  29.0100012  76.0394997 132.4569988
  29.6290012  76.1134997 133.8359988  29.4256068  75.6644607 133.1194838
  31.7940012  74.3884997 134.0559988  30.8890012  74.5534997 133.7899988
  32.2230012  75.2414997 133.9909988  31.7281324  74.5264339 134.0107976
  34.3980012  75.9584997 134.3509988  34.2160012  76.8744997 134.1409988
  34.5750012  75.5484997 133.5049988  34.3970210  76.0284822 134.2077885
  21.7030012  74.6454997 131.8159988  21.6850012  74.2204997 132.6729988
  22.5080012  74.3274997 131.4069988  21.8093529  74.5443013 131.8780946
  23.8450012  73.3554997 130.4709988  23.6260012  72.4394997 130.6409988
  24.6690012  73.4954997 130.9369988  23.9264420  73.2490520 130.5572774
  26.3820012  73.8254997 131.3199988  26.5950012  72.9374997 131.0329988
  26.4460012  73.7914997 132.2739988  26.4198231  73.6993102 131.4097397
  29.8900012  59.4894997 130.4639988  29.2160012  58.8604997 130.7199988
  30.4540012  59.0054997 129.8609988  29.8739230  59.3378744 130.4175340
  35.0330012  57.5974997 130.5769988  35.6370012  58.1444997 130.0749988
  34.1630012  57.9164997 130.3359988  34.9981208  57.7155137 130.4756886
  36.7600012  58.7354997 128.9099988  37.3720012  58.2214997 128.3829988
  37.1420012  59.6134997 128.9329988  36.8953371  58.7837866 128.8410041
  22.2170012  58.1234997 128.2859988  21.4400012  57.8894997 127.7789988
  22.7470012  57.3264997 128.2949988  22.1822330  57.9836988 128.2177742
  21.0530012  57.9214997 124.0899988  21.4920012  58.5324997 123.4979988
  20.4200012  58.4594997 124.5639988  21.0274514  58.0779257 124.0730930
  26.7960012  58.0504997 128.0999988  27.6710012  58.4384997 128.0699988
  26.6600012  57.8354997 129.0219988  26.8973695  58.0745184 128.2206440
  32.3530012  58.0804997 129.7489988  32.4290012  58.1754997 128.7989988
  32.0780012  57.1724997 129.8779988  32.3262321  57.9707867 129.6365079
  33.7060012  58.1064997 125.4409988  33.0040012  58.7214997 125.2309988
  33.2620012  57.2684997 125.5719988  33.5496450  58.0775639 125.4299000
  20.9540012  73.8694997 124.9869988  20.2690012  73.8314997 124.3199988
  20.9580012  74.7824997 125.2759988  20.8606998  73.9876733 124.9346771
  22.9140012  59.8374997 122.5319988  23.4060012  59.2074997 122.0049988
  23.5380012  60.1334997 123.1949988  23.0655688  59.7913804 122.5495482
  27.9400012  60.1304997 124.9889988  28.1180012  59.4844997 125.6719988
  27.8870012  60.9644997 125.4559988  27.9571999  60.1548009 125.1455917
  29.8190012  75.0794997 123.3849988  30.6850012  75.4454997 123.2069988
  29.5720012  74.6394997 122.5709988  29.9042392  75.0701756 123.2506289
  36.5280012  74.6424997 126.0639988  36.3330012  73.8944997 125.4989988
  36.4890012  75.4004997 125.4809988  36.4960380  74.6426099 125.9078384
  22.1750012  58.6374997 137.8039988  21.8090012  57.8724997 138.2459988
  23.0880012  58.6664997 138.0899988  22.2482736  58.5365640 137.9032502
  24.1480012  57.9884997 139.3399988  25.0460012  57.7144997 139.1549988
  23.7610012  57.2454997 139.8039988  24.2186612  57.8505914 139.3773643
  22.7720012  74.7894997 122.0129988  22.5050012  75.0764997 122.8859988
  23.5440012  74.2434997 122.1649988  22.8397488  74.7550294 122.1531050
  32.5690012  57.3204997 139.5219988  32.6460012  56.8944997 140.3759988
  33.4630012  57.3344997 139.1789988  32.7003428  57.2640879 139.5925310
  35.7450012  73.3934997 138.2139988  34.9630012  73.2074997 137.6939988
  35.6730012  74.3224997 138.4319988  35.6282274  73.4936643 138.1723018
  50.1510012  67.2794997 128.2449988  50.2400012  68.2234997 128.1129988
  49.5130012  67.0044997 127.5869988  50.0769081  67.3714830 128.1379614
  49.0840012  66.5344997 131.6639988  49.0460012  65.8884997 132.3689988
  48.7620012  66.0684997 130.8929988  49.0352333  66.3829408 131.6562978
  41.4530012  66.1494997 133.2569988  41.4940012  65.5234997 133.9799988
  42.1560012  66.7734997 133.4389988  41.5536363  66.1481196 133.3806044
  52.7900012  69.4734997 129.9649988  52.3500012  68.7534997 130.4159988
  52.7770012  70.1944997 130.5949988  52.7280226  69.4723731 130.1118494
  42.3760012  70.5994997 131.7919988  42.0070012  69.7974997 131.4219988
  43.3170012  70.4304997 131.8379988  42.4527289  70.4670153 131.7476316
  38.9860012  64.2594997 127.1849988  38.5390012  65.1054997 127.1659988
  38.4250012  63.6794997 126.6689988  38.8489900  64.2969916 127.1126801
  39.6970012  66.4214997 129.3099988  39.9100012  65.6514997 129.8379988
  40.4350012  66.5104997 128.7069988  39.8259044  66.3281968 129.3007123
  49.9020012  74.5784997 130.1769988  50.5220012  73.9014997 129.9039988
  49.6940012  74.3604997 131.0859988  49.9586726  74.4564800 130.2624812
  47.4740012  68.9674997 132.0699988  47.7780012  68.2814997 131.4749988
  48.1950012  69.0854997 132.6879988  47.6130671  68.8896305 132.0721816
  56.1370012  60.5684997 132.9309988  56.1860012  61.1784997 133.6659988
  56.5620012  61.0294997 132.2079988  56.2011746  60.7143796 132.9339175
  50.6150012  63.3614997 132.3969988  50.7570012  62.4154997 132.4179988
  50.5080012  63.5684997 131.4689988  50.6199919  63.2598246 132.2743408
  43.7690012  61.4624997 129.6699988  43.8130012  62.3224997 129.2509988
  43.3120012  60.9104997 129.0359988  43.7132240  61.5054422 129.5269864
  51.4920012  61.5934997 128.0709988  52.1380012  61.2644997 128.6949988
  52.0020012  62.1114997 127.4479988  51.6494299  61.6184450 128.0722731
  40.3900012  63.8594997 130.4319988  41.0430012  63.3094997 130.8639988
  40.4140012  63.5854997 129.5149988  40.4826683  63.7471466 130.3672123
  45.5460012  65.4094997 129.6469988  46.1620012  64.8834997 130.1569988
  44.9600012  64.7694997 129.2439988  45.5510810  65.2509208 129.6623173
  56.5280012  62.0464997 135.1659988  55.8400012  62.7044997 135.0709988
  56.5440012  61.8494997 136.1029988  56.4359540  62.1099819 135.2795990
  42.5800012  60.3804997 133.7439988  42.3610012  60.9104997 132.9779988
  41.9120012  60.6074997 134.3909988  42.4597600  60.4836906 133.7266379
  49.9490012  69.8804997 127.2879988  49.6530012  69.5584997 126.4369988
  49.6240012  70.7804997 127.3289988  49.8646371  69.9580215 127.1771801
  45.1490012  68.0564997 134.0309988  44.4090012  68.6544997 134.1349988
  45.8630012  68.6104997 133.7159988  45.1442237  68.2132831 134.0026465
  53.2560012  60.8844997 130.0509988  53.0400012  60.1184997 130.5839988
  53.9110012  61.3564997 130.5639988  53.3150632  60.8435889 130.1932861
  42.1730012  62.2724997 131.6959988  42.7870012  62.9054997 132.0689988
  42.6850012  61.8004997 131.0399988  42.3261981  62.2952267 131.6582908
  43.5560012  70.0204997 134.8179988  43.5510012  70.9004997 134.4399988
  42.7030012  69.9374997 135.2429988  43.4399464  70.1296117 134.8237907
  39.6770012  69.6914997 125.5999988  39.4050012  69.9204997 124.7119988
  39.7230012  70.5294997 126.0609988  39.6459482  69.8361318 125.5406273
  53.3020012  71.3134997 132.3129988  52.3610012  71.3714997 132.4749988
  53.5790012  72.2194997 132.1759988  53.2104679  71.4439443 132.3166815
  53.6030012  59.5994997 133.7309988  52.8670012  60.2104997 133.6929988
  54.2860012  60.0144997 133.2039988  53.5946541  59.7391374 133.6545832
  46.6060012  57.6864997 131.1959988  46.4890012  56.7374997 131.1419988
  45.7510012  58.0184997 131.4699988  46.4744212  57.6015571 131.2256497
  51.5540012  73.0944997 128.9379988  51.9800012  72.3874997 128.4529988
  51.8710012  73.8954997 128.5219988  51.6551683  73.1061017 128.8153680
  52.7140012  70.9954997 127.4469988  52.4560012  70.3054997 126.8359988
  52.7850012  70.5524997 128.2929988  52.6882856  70.8412124 127.4776885
  54.4000012  69.5614997 135.9239988  54.5400012  68.9704997 135.1849988
  54.5670012  70.4344997 135.5679988  54.4417411  69.5985428 135.7746894
  48.8730012  66.5234997 125.6969988  48.1610012  67.0584997 125.3449988
  49.5640012  66.5794997 125.0369988  48.8690132  66.6042543 125.5596289
  48.9260012  64.9814997 122.7359988  49.6270012  65.0034997 123.3869988
  49.2290012  64.3534997 122.0789988  49.0628133  64.8997070 122.7363369
  56.2420012  65.9014997 133.9899988  55.5890012  66.5964997 134.0799988
  56.7070012  66.1114997 133.1809988  56.2155274  66.0250643 133.8928462
  52.2780012  66.7334997 126.6489988  51.5460012  66.9614997 127.2219988
  52.7260012  66.0194997 127.1029988  52.2382725  66.6682145 126.7888816
  52.1760012  64.9074997 135.7159988  52.2560012  65.6704997 136.2879988
  51.5740012  65.1864997 135.0259988  52.1055756  65.0497134 135.7010589
  43.9240012  67.3634997 128.5309988  43.5930012  66.9934997 127.7129988
  44.5120012  66.6934997 128.8779988  43.9581873  67.2221156 128.4658102
  45.2900012  70.7914997 131.2119988  45.1960012  70.2134997 130.4559988
  46.0200012  70.4204997 131.7089988  45.3757387  70.6621663 131.1755342
  44.2900012  66.1324997 132.1649988  44.8560012  66.2534997 131.4019988
  44.6090012  66.7694997 132.8029988  44.4105474  66.2352219 132.1469862
  50.5990012  71.6354997 132.8989988  50.3590012  72.2974997 133.5469988
  50.4010012  70.8014997 133.3239988  50.5393808  71.6133134 133.0451524
  45.1700012  70.5314997 136.8819988  44.8590012  71.3134997 137.3369988
  44.5200012  70.3784997 136.1959988  45.0395558  70.6179105 136.8515871
  51.1490012  65.8954997 124.3339988  51.7290012  66.0454997 125.0809988
  51.5630012  66.3664997 123.6099988  51.2842997  65.9796578 124.3384058
  42.0900012  66.7294997 136.1099988  42.1610012  67.3804997 136.8089988
  41.2000012  66.8324997 135.7749988  41.9793005  66.8325427 136.1603495
  48.8760012  72.6324997 127.7689988  49.3500012  72.9274997 128.5459988
  48.3130012  73.3704997 127.5359988  48.8648184  72.7727247 127.8439628
  43.4100012  72.6034997 137.6449988  43.4170012  72.4674997 136.6979988
  42.4940012  72.4854997 137.8969988  43.2871714  72.5689430 137.5494666
  54.8480012  57.6454997 124.1469988  53.9480012  57.7844997 124.4419988
  55.1000012  58.4764997 123.7449988  54.7588702  57.7769074 124.1330205
  42.9140012  66.4334997 126.1199988  42.6220012  67.2014997 125.6299988
  42.2400012  65.7734997 125.9579988  42.7828111  66.4495587 126.0308978
  56.0370012  72.0114997 122.5229988  56.1110012  72.9504997 122.6939988
  56.9430012  71.7064997 122.4669988  56.1695100  72.0986722 122.5388119
  39.0070012  68.7964997 134.9349988  38.5060012  68.7684997 134.1199988
  39.0120012  67.8904997 135.2449988  38.9390944  68.6702396 134.8653226
  38.7570012  71.5764997 131.8189988  39.7030012  71.4324997 131.7999988
  38.6450012  72.3604997 132.3559988  38.8712727  71.6628046 131.8890072
  56.9550012  72.2424997 137.5019988  56.9060012  71.2874997 137.4649988
  56.1280012  72.5104997 137.9029988  56.8364940  72.1478998 137.5511375
  47.9340012  71.8164997 136.3779988  48.0210012  72.6424997 136.8529988
  47.0700012  71.4864997 136.6269988  47.8291964  71.8849878 136.4766549
  48.3480012  75.5884997 126.1839988  48.2730012  75.4674997 125.2369988
  48.3810012  76.5384997 126.3019988  48.3422068  75.7002646 126.0704967
  42.0010012  74.3774997 127.9649988  42.1540012  74.0294997 128.8429988
  41.1510012  74.0214997 127.7099988  41.9069166  74.2816216 128.0508079
  51.4500012  74.7424997 123.1859988  51.8250012  73.9984997 122.7149988
  51.4540012  74.4724997 124.1049988  51.5019125  74.6040986 123.2456483
  51.1190012  74.6684997 125.9349988  50.1830012  74.7684997 126.1139988
  51.3990012  73.9594997 126.5139988  51.0289553  74.5863406 126.0377087
  54.1070012  63.7354997 137.9819988  53.7000012  64.2164997 137.2609988
  54.1480012  62.8304997 137.6739988  54.0568437  63.6789374 137.8416683
  41.2560012  70.1194997 135.9789988  41.4720012  69.7584997 136.8379988
  40.4010012  69.7454997 135.7689988  41.1699292  70.0194111 136.0683386
  43.8750012  58.5894997 131.9739988  43.0130012  58.5024997 131.5659988
  43.8520012  59.4454997 132.4019988  43.7540409  58.6932883 131.9760589
  48.5380012  58.3114997 135.3489988  48.9580012  57.8964997 136.1019988
  47.6050012  58.1334997 135.4659988  48.4693644  58.2305900 135.4679539
  51.8640012  62.0674997 136.2019988  51.3500012  61.9414997 136.9999988
  51.7090012  62.9794997 135.9579988  51.7726852  62.1736132 136.2782158
  52.6270012  66.9284997 121.9639988  52.6690012  66.7054997 121.0339988
  53.4760012  67.3274997 122.1529988  52.7475280  66.9519438 121.8623554
  48.1990012  60.8044997 122.6339988  47.9460012  60.8234997 123.5569988
  47.9430012  59.9324997 122.3319988  48.1297481  60.6892558 122.7196175
  43.9660012  63.5554997 133.0689988  43.3240012  63.5144997 133.7779988
  44.0030012  64.4814997 132.8309988  43.8830664  63.6751430 133.1339219
  43.9630012  63.7764997 127.9809988  43.0700012  63.4354997 127.9219988
  44.4130012  63.3994997 127.2249988  43.9018130  63.6789631 127.8707702
  49.4980012  64.1924997 126.7979988  49.0890012  65.0074997 126.5069988
  50.2190012  64.0524997 126.1839988  49.5394537  64.2852018 126.6751342
  48.6000012  64.3674997 138.2859988  48.0380012  63.6634997 138.6069988
  49.4270012  64.2474997 138.7539988  48.6347095  64.2547883 138.3932330
  50.5030012  63.6384997 129.6119988  50.3080012  64.2434997 128.8969988
  50.6840012  62.8044997 129.1779988  50.5007614  63.6086300 129.4554405
  41.7160012  63.8754997 134.9359988  41.6780012  64.2754997 135.8049988
  41.2250012  63.0584997 135.0269988  41.6444684  63.8198069 135.0671059
  45.0820012  61.2494997 121.7349988  44.6510012  60.8044997 122.4649988
  44.3640012  61.6214997 121.2229988  44.9259438  61.2388940 121.7656799
  38.3240012  60.9914997 128.7869988  38.9550012  60.9624997 129.5059988
  38.7730012  60.5664997 128.0559988  38.4710918  60.9300836 128.7866441
  39.5980012  61.7374997 124.2109988  40.0720012  62.3284997 123.6259988
  38.8810012  62.2684997 124.5579988  39.5659341  61.8900867 124.1778836
  49.7670012  65.2764997 134.2829988  50.0900012  64.6454997 133.6399988
  49.3270012  64.7414997 134.9439988  49.7517484  65.1178387 134.2843198
  46.5440012  61.2034997 129.0669988  45.6330012  61.2604997 129.3559988
  47.0500012  61.1434997 129.8779988  46.4876899  61.2031941 129.2161184
  41.3730012  62.8324997 127.8939988  40.4830012  62.9324997 127.5539988
  41.6690012  61.9904997 127.5479988  41.2912823  62.7323545 127.8007213
  45.0260012  62.8324997 125.5509988  45.9570012  62.9614997 125.7289988
  44.8110012  63.5024997 124.9009988  45.1244247  62.9406565 125.4875747
  50.9490012  60.4384997 132.3319988  50.2730012  60.5694997 132.9959988
  50.4640012  60.2834997 131.5209988  50.7907146  60.4355157 132.3134469
  43.7000012  64.0274997 123.1169988  43.1570012  63.6474997 122.4259988
  44.5330012  64.2214997 122.6889988  43.7383631  64.0017125 122.9644501
  54.2370012  76.1104997 138.6079988  54.4370012  76.5344997 137.7739988
  54.8920012  76.4534997 139.2149988  54.3530072  76.2149857 138.5758592
  41.8350012  68.5844997 138.2159988  42.5670012  68.8384997 138.7779988
  41.0550012  68.7884997 138.7319988  41.8297073  68.6468160 138.3626151
  47.8640012  63.9914997 130.9539988  48.4290012  63.4444997 130.4069988
  47.7170012  63.4694997 131.7429988  47.9213380  63.8462259 130.9858695
  42.8660012  60.1274997 127.3729988  42.5490012  59.2254997 127.3369988
  43.6480012  60.1294997 126.8199988  42.9282408  60.0042474 127.2933569
  46.4910012  62.3794997 133.3679988  45.6550012  62.8334997 133.4789988
  47.0150012  62.6554997 134.1199988  46.4475416  62.4788660 133.4848119
  47.0350012  68.5924997 125.0529988  46.2900012  68.0854997 124.7309988
  46.9010012  68.6414997 125.9999988  46.9148776  68.5296940 125.1368647
  54.1850012  67.7254997 133.8399988  54.8270012  68.1824997 133.2959988
  53.3550012  67.8384997 133.3769988  54.1605963  67.8032704 133.7030177
  50.9330012  61.4064997 123.2519988  49.9940012  61.5184997 123.1009988
  51.2300012  62.2634997 123.5589988  50.8447583  61.5375981 123.2728337
  48.5540012  68.7764997 136.2899988  48.2090012  68.3954997 137.0969988
  48.3540012  69.7104997 136.3609988  48.4797527  68.8505135 136.4100689
  51.6510012  63.2734997 124.9129988  52.5430012  63.1364997 125.2319988
  51.7080012  64.0644997 124.3759988  51.7806504  63.3616052 124.8840818
  42.1600012  67.8874997 130.8229988  42.9050012  67.8854997 130.2219988
  42.2380012  67.0644997 131.3039988  42.2724995  67.7758887 130.8058282
  49.1610012  70.0514997 124.0789988  48.8650012  70.8774997 124.4599988
  48.4580012  69.4314997 124.2749988  49.0254914  70.0808199 124.1576443
  39.1680012  66.3484997 136.1379988  39.3910012  65.9304997 136.9699988
  38.5660012  65.7354997 135.7149988  39.1171759  66.2084668 136.1947022
  46.1840012  65.8654997 138.3509988  45.8880012  65.6994997 137.4559988
  47.1160012  65.6454997 138.3399988  46.2694166  65.8130640 138.2270536
  50.8050012  71.2384997 136.2409988  49.9040012  71.4214997 135.9729988
  50.8390012  71.4974997 137.1609988  50.6863139  71.2985849 136.3288099
  56.5360012  63.4834997 124.6079988  55.9820012  63.0874997 123.9359988
  56.6360012  64.3934997 124.3299988  56.4737059  63.5523586 124.4784401
  56.4990012  69.2834997 137.4449988  55.6480012  69.5214997 137.0779988
  57.0900012  69.2664997 136.6919988  56.4622487  69.3138258 137.2928893
  54.8310012  72.2694997 125.0729988  54.4580012  71.4434997 125.3819988
  55.1090012  72.0864997 124.1749988  54.8175222  72.1317430 124.9939473
  51.9920012  67.0774997 132.0939988  51.0630012  66.8454997 132.0669988
  52.4430012  66.3004997 131.7639988  51.9259216  66.9407238 132.0456917
  44.5350012  71.4054997 128.2269988  45.0620012  72.1784997 128.0269988
  43.6550012  71.6304997 127.9249988  44.4882031  71.5417545 128.1587912
  40.2900012  66.2674997 122.8139988  40.9060012  66.8944997 123.1939988
  39.4280012  66.5834997 123.0859988  40.2577698  66.3959430 122.9027183
  45.9620012  69.0684997 127.8029988  45.7210012  69.9934997 127.8449988
  45.2210012  68.6094997 128.1999988  45.8289225  69.1330933 127.8623742
  46.4770012  73.2174997 134.1189988  46.8390012  74.0724997 133.8849988
  47.0080012  72.9254997 134.8589988  46.5984473  73.2951060 134.1870855
  44.6450012  74.0904997 127.3489988  43.6950012  74.1954997 127.3999988
  44.9970012  74.9104997 127.6929988  44.5624195  74.2158800 127.4025502
  50.0210012  69.3164997 133.8189988  49.5950012  69.0894997 134.6459988
  50.6010012  68.5784997 133.6369988  50.0411868  69.1855299 133.9075830
  52.2240012  70.2454997 122.8929988  52.5770012  69.8654997 123.6969988
  51.2750012  70.1524997 122.9799988  52.1440918  70.1808956 123.0148532
  52.6790012  73.8684997 136.2889988  52.0780012  73.3134997 135.7929988
  52.9610012  74.5354997 135.6619988  52.6348804  73.8826625 136.1364849
  56.7270012  74.7254997 123.0939988  57.4710012  75.3114997 122.9539988
  56.0330012  75.2934997 123.4269988  56.7349899  74.8825798 123.1198778
  40.8020012  61.1014997 135.6959988  39.9090012  61.4404997 135.6279988
  40.7030012  60.2464997 136.1139988  40.6664164  61.0322588 135.7432235
  53.0900012  68.9184997 125.1199988  52.8120012  68.1904997 125.6759988
  54.0170012  69.0374997 125.3249988  53.1773124  68.8348802 125.2238845
  40.4530012  72.9064997 134.1309988  40.6700012  71.9744997 134.0999988
  40.6990012  73.1804997 135.0139988  40.5159549  72.8160636 134.2461763
  46.3150012  71.3574997 121.3399988  46.5540012  70.6094997 120.7929988
  46.0460012  70.9694997 122.1729988  46.3113675  71.2026638 121.3776865
  45.2520012  70.9274997 123.7959988  45.3980012  70.4074997 124.5859988
  45.2490012  71.8344997 124.1029988  45.2715792  70.9788842 123.9456117
  41.7050012  68.1804997 124.3069988  41.0190012  68.5324997 124.8739988
  42.2270012  68.9434997 124.0599988  41.6816852  68.3318578 124.3512118
  49.5360012  60.8424997 134.5859988  50.2350012  60.9164997 135.2359988
  49.1550012  59.9784997 134.7399988  49.5801767  60.7357624 134.6958322
  50.3210012  60.4944997 125.6829988  50.5410012  60.9664997 124.8799988
  50.8790012  60.8894997 126.3529988  50.4264968  60.6124285 125.6637331
  47.9890012  72.6254997 124.5459988  47.1730012  73.1224997 124.5979988
  48.5190012  73.1004997 123.9059988  47.9489161  72.7577722 124.4665956
  47.5210012  62.2224997 126.5179988  48.3330012  62.7274997 126.5639988
  47.2760012  62.0774997 127.4319988  47.5990520  62.2720375 126.6478517
  48.0560012  63.2084997 135.7019988  48.1750012  63.7824997 136.4599988
  48.7120012  62.5204997 135.8169988  48.1609025  63.1939858 135.8211321
  48.4040012  59.3034997 127.4559988  48.0580012  59.9214997 128.0999988
  49.0630012  59.8044997 126.9739988  48.4456968  59.4556278 127.4789383
  45.3280012  73.6694997 124.5269988  45.4880012  74.4684997 124.0269988
  45.1300012  73.9754997 125.4119988  45.3231637  73.8204020 124.5781144
  44.0620012  60.3664997 124.1429988  43.9790012  61.2554997 124.4899988
  44.9520012  60.1014997 124.3749988  44.1709469  60.4521430 124.2217626
  54.2610012  61.1154997 136.5369988  53.3440012  61.3784997 136.4499988
  54.5960012  61.1124997 135.6409988  54.1808613  61.1510761 136.4038837
  52.8630012  64.8664997 130.6329988  52.0650012  64.4514997 130.3049988
  53.3080012  64.1754997 131.1239988  52.8139885  64.7163543 130.6544889
  42.3210012  70.7944997 123.2039988  42.9130012  71.4934997 123.4799988
  42.7800012  70.3614997 122.4839988  42.4641142  70.8317049 123.1444830
  40.6370012  63.4584997 122.3199988  40.5920012  64.3974997 122.4979988
  39.7490012  63.2224997 122.0499988  40.5108574  63.5551892 122.3078912
  53.9490012  74.1224997 132.2559988  53.7940012  74.8004997 131.5979988
  54.8820012  74.1944997 132.4589988  54.0538657  74.2249546 132.1934360
  41.4450012  58.2404997 130.9929988  41.2160012  58.2994997 130.0649988
  41.0020012  57.4484997 131.2989988  41.3538530  58.1415753 130.9074786
  40.3750012  72.1804997 127.1529988  39.5430012  72.6534997 127.1799988
  40.9210012  72.6904997 126.5549988  40.3350352  72.3141332 127.0758463
  39.6630012  74.7934997 138.4829988  40.2040012  74.5764997 139.2429988
  39.1820012  73.9874997 138.2929988  39.6719951  74.6549270 138.5612576
  44.2610012  73.7124997 140.1029988  45.0280012  73.2534997 140.4439988
  44.2390012  73.4864997 139.1739988  44.3631275  73.6190186 140.0240101
  48.3530012  73.2204997 121.4789988  47.7090012  72.5894997 121.7999988
  49.1150012  72.6894997 121.2469988  48.3678077  73.0622920 121.4916011
  50.8380012  72.0924997 138.8329988  50.4870012  71.2364997 139.0759988
  51.5640012  72.2354997 139.4399988  50.8880769  71.9945636 138.9483619
  52.9570012  73.0374997 121.7119988  53.2400012  72.2434997 122.1649988
  53.6970012  73.2704997 121.1519988  53.0958006  72.9603376 121.6982715
  39.5700012  68.6034997 139.4369988  39.7140012  67.7014997 139.1509988
  38.7980012  68.8894997 138.9499988  39.4852753  68.5186816 139.3319505
  43.9120012  68.9474997 121.5699988  43.9760012  68.1534997 122.1009988
  44.5650012  68.8284997 120.8799988  44.0090241  68.8227148 121.5494317
  46.2260012  68.5734997 138.8699988  45.8970012  68.8444997 138.0129988
  46.3780012  67.6324997 138.7829988  46.2014809  68.4833862 138.7408244
  49.2640012  69.9944997 121.3059988  48.9950012  70.1744997 122.2069988
  49.0580012  69.0684997 121.1739988  49.1993427  69.8940261 121.4115073
  51.9600012  68.4894997 136.2529988  52.7060012  69.0774997 136.1339988
  51.2030012  69.0714997 136.3169988  51.9597820  68.6487143 136.2453590
  40.4030012  65.8034997 138.8569988  40.8110012  64.9464997 138.7359988
  40.1430012  65.8184997 139.7779988  40.4237568  65.6880807 138.9649588
  45.0610012  66.9194997 123.8759988  44.6010012  66.4354997 124.5619988
  45.3160012  66.2514997 123.2399988  45.0324902  66.7628731 123.8839334
  44.3500012  64.8124997 136.2319988  43.7320012  65.4874997 136.5119988
  44.6940012  65.1334997 135.3979988  44.3119132  64.9482411 136.1576262
  46.1320012  65.1624997 122.1379988  45.9520012  65.0084997 121.2109988
  47.0820012  65.2704997 122.1829988  46.2357776  65.1560175 122.0171843
  49.3700012  67.2844997 139.5089988  50.3230012  67.3674997 139.4819988
  49.2090012  66.5724997 140.1289988  49.4786426  67.1996746 139.5890579
  55.5220012  67.5174997 121.5839988  55.2480012  67.0924997 120.7709988
  55.5610012  68.4484997 121.3669988  55.4897699  67.5852484 121.4433610
  44.6890012  62.1674997 137.3139988  44.8390012  61.4384997 136.7119988
  44.6920012  62.9444997 136.7549988  44.7099302  62.1727851 137.1560692
  45.1020012  60.5374997 134.8069988  45.6380012  60.9884997 134.1549988
  44.2500012  60.4294997 134.3839988  45.0602178  60.5846390 134.6605756
  46.6840012  65.9764997 135.0459988  47.4340012  65.8204997 134.4729988
  46.3450012  66.8284997 134.7709988  46.7408921  66.0702968 134.9303561
  51.0990012  63.7914997 140.0749988  51.2920012  62.8604997 139.9629988
  51.9570012  64.2164997 140.0639988  51.2412934  63.7216531 140.0582031
  52.4160012  66.5804997 138.1519988  52.1350012  67.2894997 137.5739988
  53.3590012  66.5074997 138.0009988  52.5049291  66.6676711 138.0524967
  43.1680012  63.3654997 139.2259988  42.4010012  62.8334997 139.0149988
  43.8470012  63.0554997 138.6259988  43.1547877  63.2508300 139.1160716
  45.9080012  57.9934997 135.2379988  45.8090012  58.9404997 135.1329988
  45.1650012  57.6214997 134.7619988  45.7941184  58.0725863 135.1593621
  47.1720012  62.3154997 138.8019988  46.9360012  62.0954997 139.7029988
  46.3880012  62.1084997 138.2919988  47.0338504  62.2574586 138.8563431
  49.8870012  61.4424997 137.8769988  48.9400012  61.4744997 138.0099988
  50.2000012  60.8174997 138.5309988  49.7996707  61.3623998 137.9836060
  51.5210012  60.0764997 139.8829988  51.4250012  59.1244997 139.8769988
  51.2000012  60.3454997 140.7429988  51.4644070  59.9824035 139.9985441
  41.3480012  61.2864997 138.9299988  41.5600012  60.5794997 138.3199988
  41.2370012  60.8484997 139.7739988  41.3619721  61.1307084 138.9606843
  46.1290012  57.2874997 137.9089988  46.8410012  56.6474997 137.8949988
  46.0280012  57.5544997 136.9959988  46.2128066  57.2360079 137.7835677
  46.4830012  58.9704997 139.9629988  46.3510012  58.4944997 139.1429988
  45.8840012  59.7144997 139.9079988  46.3839071  59.0059618 139.8432886
  46.0290012  75.8534997 123.1389988  46.9620012  76.0114997 123.2829988
  45.7650012  76.5284997 122.5149988  46.1209888  75.9664510 123.0742842
  39.5980012  70.4894997 122.6219988  40.5120012  70.5684997 122.8959988
  39.6050012  69.8024997 121.9559988  39.7241131  70.4073961 122.5694393
  38.2470012  75.8824997 127.6999988  37.6000012  75.4204997 127.1669988
  38.6010012  75.2104997 128.2819988  38.2063849  75.7284723 127.7057959
  39.1170012  73.9634997 129.5039988  38.7820012  73.0834997 129.6759988
  39.3390012  74.3084997 130.3689988  39.1011783  73.8897501 129.6444208
  56.6650012  74.7724997 132.4849988  56.6440012  74.9574997 133.4239988
  57.3560012  75.3414997 132.1439988  56.7554618  74.8746606 132.5673864
  56.2290012  74.3404997 135.4069988  55.7410012  73.6044997 135.0349988
  56.7780012  73.9464997 136.0849988  56.2364820  74.1865889 135.4477813
  54.6790012  70.1294997 140.0449988  53.8130012  70.0244997 140.4389988
  55.0560012  70.8884997 140.4909988  54.6113308  70.2176900 140.1592393
  55.9800012  68.3864997 125.5589988  56.8300012  68.8074997 125.6859988
  55.9860012  67.6464997 126.1659988  56.0971372  68.3440803 125.6584344
  56.3750012  66.4394997 127.3819988  55.6480012  65.9604997 127.7799988
  56.9560012  66.6454997 128.1149988  56.3540473  66.4018103 127.5354528
  56.1340012  69.2244997 132.3299988  56.9670012  68.8464997 132.0499988
  56.2460012  70.1674997 132.2109988  56.2632647  69.3002218 132.2755487
  54.6200012  72.1024997 134.6369988  53.9730012  72.4274997 135.2629988
  54.1030012  71.6624997 133.9629988  54.4614029  72.0875004 134.6315827
  56.6430012  66.3404997 123.7739988  56.1210012  66.6974997 123.0549988
  56.6100012  67.0154997 124.4519988  56.5671634  66.4805413 123.7673145
  54.9920012  63.5804997 122.3239988  55.0880012  64.2474997 121.6439988
  54.8520012  62.7644997 121.8429988  54.9862272  63.5615655 122.1658347
  54.1610012  64.9604997 127.9449988  54.0110012  64.0154997 127.9249988
  53.8080012  65.2414997 128.7889988  54.0927448  64.8691481 128.0563705
  39.1970012  67.0384997 131.9559988  39.3810012  66.9564997 131.0199988
  40.0460012  66.9144997 132.3789988  39.3370151  67.0105073 131.8851451
  55.0180012  66.9304997 137.5839988  55.6010012  66.1964997 137.7759988
  55.5820012  67.7024997 137.6309988  55.1739769  66.9344227 137.6166159
  56.5140012  64.8334997 138.2689988  55.6510012  64.4544997 138.1029988
  57.1190012  64.0944997 138.1939988  56.4776119  64.6818268 138.2361528
  54.2390012  60.9884997 121.4419988  54.8500012  60.6174997 122.0789988
  53.4030012  60.5674997 121.6379988  54.2095032  60.8807554 121.5557035
  53.8720012  62.5434997 126.4079988  54.1520012  61.6364997 126.5319988
  54.6310012  62.9774997 126.0189988  54.0129277  62.4780942 126.3723682
  54.4840012  63.1244997 131.8439988  55.4170012  63.3364997 131.8089988
  54.2490012  63.2264997 132.7659988  54.5799244  63.1673100 131.9638892
  54.5130012  63.8614997 134.6199988  53.6700012  64.1294997 134.9859988
  54.9550012  64.6834997 134.4089988  54.4574158  64.0093291 134.6415491
  38.7940012  62.3094997 138.0969988  39.7140012  62.1874997 138.3329988
  38.3450012  61.5594997 138.4859988  38.8591580  62.1913727 138.1819006
  56.7960012  57.8414997 139.9729988  57.1460012  57.1874997 139.3679988
  56.9430012  58.6784997 139.5329988  56.8637887  57.8651548 139.8306858
  54.4850012  59.8064997 126.4559988  54.6680012  59.3574997 127.2819988
  53.8860012  59.2214997 125.9929988  54.4290202  59.6659975 126.5063275
  40.0150012  60.6214997 130.9879988  40.4610012  59.8294997 131.2899988
  40.4820012  61.3374997 131.4179988  40.1390831  60.6100685 131.0874006
  38.3190012  63.6204997 132.0569988  38.8110012  63.3994997 131.2659988
  38.6820012  64.4614997 132.3379988  38.4353126  63.7038357 131.9867531
  56.3160012  59.9504997 138.3219988  55.3980012  60.2214997 138.2869988
  56.4390012  59.4154997 137.5379988  56.2069729  59.9152508 138.2111923
  56.3520012  59.8734997 122.9839988  56.7640012  59.1524997 122.5089988
  57.0340012  60.5434997 123.0429988  56.5005885  59.8652368 122.9268915
  38.6330012  59.8784997 126.1109988  37.7080012  60.0874997 125.9819988
  39.0870012  60.3624997 125.4209988  38.5677292  59.9725343 126.0000720
  53.4040012  74.8624997 128.0569988  54.0560012  74.5154997 127.4489988
  53.9140012  75.3514997 128.7029988  53.5622637  74.8810597 128.0610236
  38.5970012  58.6164997 134.4549988  37.9320012  58.3704997 135.0989988
  38.1540012  59.2384997 133.8779988  38.4461318  58.6669410 134.4650898
  40.7890012  71.7914997 138.5999988  39.9680012  71.9664997 138.1389988
  40.5360012  71.7184997 139.5199988  40.6425585  71.8055544 138.6613561
  43.7430012  72.7664997 134.8579988  43.3180012  73.5754997 134.5759988
  44.6470012  72.8514997 134.5559988  43.8069975  72.8889300 134.7784816
  48.0540012  74.1654997 137.8179988  48.2390012  73.8314997 138.6959988
  48.9000012  74.4744997 137.4959988  48.1937539  74.1616047 137.8945605
  50.3990012  75.4514997 137.0619988  51.0760012  74.8184997 136.8219988
  50.7210012  75.8524997 137.8689988  50.5351637  75.4191154 137.1382793
  55.3160012  58.0404997 136.1409988  54.5040012  58.3654997 135.7539988
  55.5490012  57.2804997 135.6079988  55.2362203  57.9822758 136.0158880
  41.1450012  76.0224997 134.9059988  40.4240012  76.4624997 134.4549988
  40.7790012  75.7714997 135.7539988  40.9969651  76.0487242 134.9589640
  43.6120012  75.6224997 133.9359988  42.7470012  75.6944997 134.3399988
  43.5570012  76.1694997 133.1519988  43.4862085  75.7062685 133.8853362
  48.3220012  75.5104997 133.1109988  47.8660012  76.0394997 132.4569988
  48.4850012  76.1134997 133.8359988  48.2816068  75.6644607 133.1194838
  50.6500012  74.3884997 134.0559988  49.7450012  74.5534997 133.7899988
  51.0790012  75.2414997 133.9909988  50.5841324  74.5264339 134.0107976
  53.2540012  75.9584997 134.3509988  53.0720012  76.8744997 134.1409988
  53.4310012  75.5484997 133.5049988  53.2530210  76.0284822 134.2077885
  40.5590012  74.6454997 131.8159988  40.5410012  74.2204997 132.6729988
  41.3640012  74.3274997 131.4069988  40.6653529  74.5443013 131.8780946
  42.7010012  73.3554997 130.4709988  42.4820012  72.4394997 130.6409988
  43.5250012  73.4954997 130.9369988  42.7824420  73.2490520 130.5572774
  45.2380012  73.8254997 131.3199988  45.4510012  72.9374997 131.0329988
  45.3020012  73.7914997 132.2739988  45.2758232  73.6993102 131.4097397
  48.7460012  59.4894997 130.4639988  48.0720012  58.8604997 130.7199988
  49.3100012  59.0054997 129.8609988  48.7299230  59.3378744 130.4175340
  53.8890012  57.5974997 130.5769988  54.4930012  58.1444997 130.0749988
  53.0190012  57.9164997 130.3359988  53.8541208  57.7155137 130.4756886
  55.6160012  58.7354997 128.9099988  56.2280012  58.2214997 128.3829988
  55.9980012  59.6134997 128.9329988  55.7513371  58.7837866 128.8410041
  41.0730012  58.1234997 128.2859988  40.2960012  57.8894997 127.7789988
  41.6030012  57.3264997 128.2949988  41.0382330  57.9836988 128.2177742
  39.9090012  57.9214997 124.0899988  40.3480012  58.5324997 123.4979988
  39.2760012  58.4594997 124.5639988  39.8834514  58.0779257 124.0730930
  45.6520012  58.0504997 128.0999988  46.5270012  58.4384997 128.0699988
  45.5160012  57.8354997 129.0219988  45.7533695  58.0745184 128.2206440
  51.2090012  58.0804997 129.7489988  51.2850012  58.1754997 128.7989988
  50.9340012  57.1724997 129.8779988  51.1822321  57.9707867 129.6365079
  52.5620012  58.1064997 125.4409988  51.8600012  58.7214997 125.2309988
  52.1180012  57.2684997 125.5719988  52.4056450  58.0775639 125.4299000
  39.8100012  73.8694997 124.9869988  39.1250012  73.8314997 124.3199988
  39.8140012  74.7824997 125.2759988  39.7166998  73.9876733 124.9346771
  41.7700012  59.8374997 122.5319988  42.2620012  59.2074997 122.0049988
  42.3940012  60.1334997 123.1949988  41.9215688  59.7913804 122.5495482
  46.7960012  60.1304997 124.9889988  46.9740012  59.4844997 125.6719988
  46.7430012  60.9644997 125.4559988  46.8131999  60.1548009 125.1455917
  48.6750012  75.0794997 123.3849988  49.5410012  75.4454997 123.2069988
  48.4280012  74.6394997 122.5709988  48.7602392  75.0701756 123.2506289
  55.3840012  74.6424997 126.0639988  55.1890012  73.8944997 125.4989988
  55.3450012  75.4004997 125.4809988  55.3520380  74.6426099 125.9078384
  41.0310012  58.6374997 137.8039988  40.6650012  57.8724997 138.2459988
  41.9440012  58.6664997 138.0899988  41.1042736  58.5365640 137.9032502
  43.0040012  57.9884997 139.3399988  43.9020012  57.7144997 139.1549988
  42.6170012  57.2454997 139.8039988  43.0746612  57.8505914 139.3773643
  41.6280012  74.7894997 122.0129988  41.3610012  75.0764997 122.8859988
  42.4000012  74.2434997 122.1649988  41.6957488  74.7550294 122.1531050
  51.4250012  57.3204997 139.5219988  51.5020012  56.8944997 140.3759988
  52.3190012  57.3344997 139.1789988  51.5563428  57.2640879 139.5925310
  54.6010012  73.3934997 138.2139988  53.8190012  73.2074997 137.6939988
  54.5290012  74.3224997 138.4319988  54.4842274  73.4936643 138.1723018
  69.0070012  67.2794997 128.2449988  69.0960012  68.2234997 128.1129988
  68.3690012  67.0044997 127.5869988  68.9329081  67.3714830 128.1379614
  67.9400012  66.5344997 131.6639988  67.9020012  65.8884997 132.3689988
  67.6180012  66.0684997 130.8929988  67.8912333  66.3829408 131.6562978
  60.3090012  66.1494997 133.2569988  60.3500012  65.5234997 133.9799988
  61.0120012  66.7734997 133.4389988  60.4096363  66.1481196 133.3806044
  71.6460012  69.4734997 129.9649988  71.2060012  68.7534997 130.4159988
  71.6330012  70.1944997 130.5949988  71.5840226  69.4723731 130.1118494
  61.2320012  70.5994997 131.7919988  60.8630012  69.7974997 131.4219988
  62.1730012  70.4304997 131.8379988  61.3087289  70.4670153 131.7476316
  57.8420012  64.2594997 127.1849988  57.3950012  65.1054997 127.1659988
  57.2810012  63.6794997 126.6689988  57.7049900  64.2969916 127.1126801
  58.5530012  66.4214997 129.3099988  58.7660012  65.6514997 129.8379988
  59.2910012  66.5104997 128.7069988  58.6819044  66.3281968 129.3007123
  68.7580012  74.5784997 130.1769988  69.3780012  73.9014997 129.9039988
  68.5500012  74.3604997 131.0859988  68.8146726  74.4564800 130.2624812
  66.3300012  68.9674997 132.0699988  66.6340012  68.2814997 131.4749988
  67.0510012  69.0854997 132.6879988  66.4690671  68.8896305 132.0721816
  74.9930012  60.5684997 132.9309988  75.0420012  61.1784997 133.6659988
  75.4180012  61.0294997 132.2079988  75.0571746  60.7143796 132.9339175
  69.4710012  63.3614997 132.3969988  69.6130012  62.4154997 132.4179988
  69.3640012  63.5684997 131.4689988  69.4759919  63.2598246 132.2743408
  62.6250012  61.4624997 129.6699988  62.6690012  62.3224997 129.2509988
  62.1680012  60.9104997 129.0359988  62.5692240  61.5054422 129.5269864
  70.3480012  61.5934997 128.0709988  70.9940012  61.2644997 128.6949988
  70.8580012  62.1114997 127.4479988  70.5054299  61.6184450 128.0722731
  59.2460012  63.8594997 130.4319988  59.8990012  63.3094997 130.8639988
  59.2700012  63.5854997 129.5149988  59.3386683  63.7471466 130.3672123
  64.4020012  65.4094997 129.6469988  65.0180012  64.8834997 130.1569988
  63.8160012  64.7694997 129.2439988  64.4070810  65.2509208 129.6623173
  75.3840012  62.0464997 135.1659988  74.6960012  62.7044997 135.0709988
  75.4000012  61.8494997 136.1029988  75.2919540  62.1099819 135.2795990
  61.4360012  60.3804997 133.7439988  61.2170012  60.9104997 132.9779988
  60.7680012  60.6074997 134.3909988  61.3157600  60.4836906 133.7266379
  68.8050012  69.8804997 127.2879988  68.5090012  69.5584997 126.4369988
  68.4800012  70.7804997 127.3289988  68.7206371  69.9580215 127.1771801
  64.0050012  68.0564997 134.0309988  63.2650012  68.6544997 134.1349988
  64.7190012  68.6104997 133.7159988  64.0002237  68.2132831 134.0026465
  72.1120012  60.8844997 130.0509988  71.8960012  60.1184997 130.5839988
  72.7670012  61.3564997 130.5639988  72.1710632  60.8435889 130.1932861
  61.0290012  62.2724997 131.6959988  61.6430012  62.9054997 132.0689988
  61.5410012  61.8004997 131.0399988  61.1821981  62.2952267 131.6582908
  62.4120012  70.0204997 134.8179988  62.4070012  70.9004997 134.4399988
  61.5590012  69.9374997 135.2429988  62.2959464  70.1296117 134.8237907
  58.5330012  69.6914997 125.5999988  58.2610012  69.9204997 124.7119988
  58.5790012  70.5294997 126.0609988  58.5019482  69.8361318 125.5406273
  72.1580012  71.3134997 132.3129988  71.2170012  71.3714997 132.4749988
  72.4350012  72.2194997 132.1759988  72.0664679  71.4439443 132.3166815
  72.4590012  59.5994997 133.7309988  71.7230012  60.2104997 133.6929988
  73.1420012  60.0144997 133.2039988  72.4506541  59.7391374 133.6545832
  65.4620012  57.6864997 131.1959988  65.3450012  56.7374997 131.1419988
  64.6070012  58.0184997 131.4699988  65.3304212  57.6015571 131.2256497
  70.4100012  73.0944997 128.9379988  70.8360012  72.3874997 128.4529988
  70.7270012  73.8954997 128.5219988  70.5111683  73.1061017 128.8153680
  71.5700012  70.9954997 127.4469988  71.3120012  70.3054997 126.8359988
  71.6410012  70.5524997 128.2929988  71.5442856  70.8412124 127.4776885
  73.2560012  69.5614997 135.9239988  73.3960012  68.9704997 135.1849988
  73.4230012  70.4344997 135.5679988  73.2977411  69.5985428 135.7746894
  67.7290012  66.5234997 125.6969988  67.0170012  67.0584997 125.3449988
  68.4200012  66.5794997 125.0369988  67.7250132  66.6042543 125.5596289
  67.7820012  64.9814997 122.7359988  68.4830012  65.0034997 123.3869988
  68.0850012  64.3534997 122.0789988  67.9188133  64.8997070 122.7363369
  75.0980012  65.9014997 133.9899988  74.4450012  66.5964997 134.0799988
  75.5630012  66.1114997 133.1809988  75.0715274  66.0250643 133.8928462
  71.1340012  66.7334997 126.6489988  70.4020012  66.9614997 127.2219988
  71.5820012  66.0194997 127.1029988  71.0942725  66.6682145 126.7888816
  71.0320012  64.9074997 135.7159988  71.1120012  65.6704997 136.2879988
  70.4300012  65.1864997 135.0259988  70.9615756  65.0497134 135.7010589
  62.7800012  67.3634997 128.5309988  62.4490012  66.9934997 127.7129988
  63.3680012  66.6934997 128.8779988  62.8141873  67.2221156 128.4658102
  64.1460012  70.7914997 131.2119988  64.0520012  70.2134997 130.4559988
  64.8760012  70.4204997 131.7089988  64.2317387  70.6621663 131.1755342
  63.1460012  66.1324997 132.1649988  63.7120012  66.2534997 131.4019988
  63.4650012  66.7694997 132.8029988  63.2665474  66.2352219 132.1469862
  69.4550012  71.6354997 132.8989988  69.2150012  72.2974997 133.5469988
  69.2570012  70.8014997 133.3239988  69.3953808  71.6133134 133.0451524
  64.0260012  70.5314997 136.8819988  63.7150012  71.3134997 137.3369988
  63.3760012  70.3784997 136.1959988  63.8955558  70.6179105 136.8515871
  70.0050012  65.8954997 124.3339988  70.5850012  66.0454997 125.0809988
  70.4190012  66.3664997 123.6099988  70.1402997  65.9796578 124.3384058
  60.9460012  66.7294997 136.1099988  61.0170012  67.3804997 136.8089988
  60.0560012  66.8324997 135.7749988  60.8353005  66.8325427 136.1603495
  67.7320012  72.6324997 127.7689988  68.2060012  72.9274997 128.5459988
  67.1690012  73.3704997 127.5359988  67.7208184  72.7727247 127.8439628
  62.2660012  72.6034997 137.6449988  62.2730012  72.4674997 136.6979988
  61.3500012  72.4854997 137.8969988  62.1431714  72.5689430 137.5494666
  73.7040012  57.6454997 124.1469988  72.8040012  57.7844997 124.4419988
  73.9560012  58.4764997 123.7449988  73.6148702  57.7769074 124.1330205
  61.7700012  66.4334997 126.1199988  61.4780012  67.2014997 125.6299988
  61.0960012  65.7734997 125.9579988  61.6388111  66.4495587 126.0308978
  74.8930012  72.0114997 122.5229988  74.9670012  72.9504997 122.6939988
  75.7990012  71.7064997 122.4669988  75.0255100  72.0986722 122.5388119
  57.8630012  68.7964997 134.9349988  57.3620012  68.7684997 134.1199988
  57.8680012  67.8904997 135.2449988  57.7950944  68.6702396 134.8653226
  57.6130012  71.5764997 131.8189988  58.5590012  71.4324997 131.7999988
  57.5010012  72.3604997 132.3559988  57.7272727  71.6628046 131.8890072
  75.8110012  72.2424997 137.5019988  75.7620012  71.2874997 137.4649988
  74.9840012  72.5104997 137.9029988  75.6924940  72.1478998 137.5511375
  66.7900012  71.8164997 136.3779988  66.8770012  72.6424997 136.8529988
  65.9260012  71.4864997 136.6269988  66.6851964  71.8849878 136.4766549
  67.2040012  75.5884997 126.1839988  67.1290012  75.4674997 125.2369988
  67.2370012  76.5384997 126.3019988  67.1982068  75.7002646 126.0704967
  60.8570012  74.3774997 127.9649988  61.0100012  74.0294997 128.8429988
  60.0070012  74.0214997 127.7099988  60.7629166  74.2816216 128.0508079
  70.3060012  74.7424997 123.1859988  70.6810012  73.9984997 122.7149988
  70.3100012  74.4724997 124.1049988  70.3579125  74.6040986 123.2456483
  69.9750012  74.6684997 125.9349988  69.0390012  74.7684997 126.1139988
  70.2550012  73.9594997 126.5139988  69.8849553  74.5863406 126.0377087
  72.9630012  63.7354997 137.9819988  72.5560012  64.2164997 137.2609988
  73.0040012  62.8304997 137.6739988  72.9128437  63.6789374 137.8416683
  60.1120012  70.1194997 135.9789988  60.3280012  69.7584997 136.8379988
  59.2570012  69.7454997 135.7689988  60.0259292  70.0194111 136.0683386
  62.7310012  58.5894997 131.9739988  61.8690012  58.5024997 131.5659988
  62.7080012  59.4454997 132.4019988  62.6100409  58.6932883 131.9760589
  67.3940012  58.3114997 135.3489988  67.8140012  57.8964997 136.1019988
  66.4610012  58.1334997 135.4659988  67.3253644  58.2305900 135.4679539
  70.7200012  62.0674997 136.2019988  70.2060012  61.9414997 136.9999988
  70.5650012  62.9794997 135.9579988  70.6286852  62.1736132 136.2782158
  71.4830012  66.9284997 121.9639988  71.5250012  66.7054997 121.0339988
  72.3320012  67.3274997 122.1529988  71.6035280  66.9519438 121.8623554
  67.0550012  60.8044997 122.6339988  66.8020012  60.8234997 123.5569988
  66.7990012  59.9324997 122.3319988  66.9857481  60.6892558 122.7196175
  62.8220012  63.5554997 133.0689988  62.1800012  63.5144997 133.7779988
  62.8590012  64.4814997 132.8309988  62.7390664  63.6751430 133.1339219
  62.8190012  63.7764997 127.9809988  61.9260012  63.4354997 127.9219988
  63.2690012  63.3994997 127.2249988  62.7578130  63.6789631 127.8707702
  68.3540012  64.1924997 126.7979988  67.9450012  65.0074997 126.5069988
  69.0750012  64.0524997 126.1839988  68.3954537  64.2852018 126.6751342
  67.4560012  64.3674997 138.2859988  66.8940012  63.6634997 138.6069988
  68.2830012  64.2474997 138.7539988  67.4907095  64.2547883 138.3932330
  69.3590012  63.6384997 129.6119988  69.1640012  64.2434997 128.8969988
  69.5400012  62.8044997 129.1779988  69.3567614  63.6086300 129.4554405
  60.5720012  63.8754997 134.9359988  60.5340012  64.2754997 135.8049988
  60.0810012  63.0584997 135.0269988  60.5004684  63.8198069 135.0671059
  63.9380012  61.2494997 121.7349988  63.5070012  60.8044997 122.4649988
  63.2200012  61.6214997 121.2229988  63.7819438  61.2388940 121.7656799
  57.1800012  60.9914997 128.7869988  57.8110012  60.9624997 129.5059988
  57.6290012  60.5664997 128.0559988  57.3270918  60.9300836 128.7866441
  58.4540012  61.7374997 124.2109988  58.9280012  62.3284997 123.6259988
  57.7370012  62.2684997 124.5579988  58.4219341  61.8900867 124.1778836
  68.6230012  65.2764997 134.2829988  68.9460012  64.6454997 133.6399988
  68.1830012  64.7414997 134.9439988  68.6077484  65.1178387 134.2843198
  65.4000012  61.2034997 129.0669988  64.4890012  61.2604997 129.3559988
  65.9060012  61.1434997 129.8779988  65.3436899  61.2031941 129.2161184
  60.2290012  62.8324997 127.8939988  59.3390012  62.9324997 127.5539988
  60.5250012  61.9904997 127.5479988  60.1472823  62.7323545 127.8007213
  63.8820012  62.8324997 125.5509988  64.8130012  62.9614997 125.7289988
  63.6670012  63.5024997 124.9009988  63.9804247  62.9406565 125.4875747
  69.8050012  60.4384997 132.3319988  69.1290012  60.5694997 132.9959988
  69.3200012  60.2834997 131.5209988  69.6467146  60.4355157 132.3134469
  62.5560012  64.0274997 123.1169988  62.0130012  63.6474997 122.4259988
  63.3890012  64.2214997 122.6889988  62.5943631  64.0017125 122.9644501
  73.0930012  76.1104997 138.6079988  73.2930012  76.5344997 137.7739988
  73.7480012  76.4534997 139.2149988  73.2090073  76.2149857 138.5758592
  60.6910012  68.5844997 138.2159988  61.4230012  68.8384997 138.7779988
  59.9110012  68.7884997 138.7319988  60.6857073  68.6468160 138.3626151
  66.7200012  63.9914997 130.9539988  67.2850012  63.4444997 130.4069988
  66.5730012  63.4694997 131.7429988  66.7773380  63.8462259 130.9858695
  61.7220012  60.1274997 127.3729988  61.4050012  59.2254997 127.3369988
  62.5040012  60.1294997 126.8199988  61.7842408  60.0042474 127.2933569
  65.3470012  62.3794997 133.3679988  64.5110012  62.8334997 133.4789988
  65.8710012  62.6554997 134.1199988  65.3035416  62.4788660 133.4848119
  65.8910012  68.5924997 125.0529988  65.1460012  68.0854997 124.7309988
  65.7570012  68.6414997 125.9999988  65.7708776  68.5296940 125.1368647
  73.0410012  67.7254997 133.8399988  73.6830012  68.1824997 133.2959988
  72.2110012  67.8384997 133.3769988  73.0165963  67.8032704 133.7030177
  69.7890012  61.4064997 123.2519988  68.8500012  61.5184997 123.1009988
  70.0860012  62.2634997 123.5589988  69.7007583  61.5375981 123.2728337
  67.4100012  68.7764997 136.2899988  67.0650012  68.3954997 137.0969988
  67.2100012  69.7104997 136.3609988  67.3357527  68.8505135 136.4100689
  70.5070012  63.2734997 124.9129988  71.3990012  63.1364997 125.2319988
  70.5640012  64.0644997 124.3759988  70.6366504  63.3616052 124.8840818
  61.0160012  67.8874997 130.8229988  61.7610012  67.8854997 130.2219988
  61.0940012  67.0644997 131.3039988  61.1284995  67.7758887 130.8058282
  68.0170012  70.0514997 124.0789988  67.7210012  70.8774997 124.4599988
  67.3140012  69.4314997 124.2749988  67.8814914  70.0808199 124.1576443
  58.0240012  66.3484997 136.1379988  58.2470012  65.9304997 136.9699988
  57.4220012  65.7354997 135.7149988  57.9731759  66.2084668 136.1947022
  65.0400012  65.8654997 138.3509988  64.7440012  65.6994997 137.4559988
  65.9720012  65.6454997 138.3399988  65.1254166  65.8130640 138.2270536
  69.6610012  71.2384997 136.2409988  68.7600012  71.4214997 135.9729988
  69.6950012  71.4974997 137.1609988  69.5423139  71.2985849 136.3288099
  75.3920012  63.4834997 124.6079988  74.8380012  63.0874997 123.9359988
  75.4920012  64.3934997 124.3299988  75.3297059  63.5523586 124.4784401
  75.3550012  69.2834997 137.4449988  74.5040012  69.5214997 137.0779988
  75.9460012  69.2664997 136.6919988  75.3182487  69.3138258 137.2928893
  73.6870012  72.2694997 125.0729988  73.3140012  71.4434997 125.3819988
  73.9650012  72.0864997 124.1749988  73.6735222  72.1317430 124.9939473
  70.8480012  67.0774997 132.0939988  69.9190012  66.8454997 132.0669988
  71.2990012  66.3004997 131.7639988  70.7819216  66.9407238 132.0456917
  63.3910012  71.4054997 128.2269988  63.9180012  72.1784997 128.0269988
  62.5110012  71.6304997 127.9249988  63.3442031  71.5417545 128.1587912
  59.1460012  66.2674997 122.8139988  59.7620012  66.8944997 123.1939988
  58.2840012  66.5834997 123.0859988  59.1137698  66.3959430 122.9027183
  64.8180012  69.0684997 127.8029988  64.5770012  69.9934997 127.8449988
  64.0770012  68.6094997 128.1999988  64.6849225  69.1330933 127.8623742
  65.3330012  73.2174997 134.1189988  65.6950012  74.0724997 133.8849988
  65.8640012  72.9254997 134.8589988  65.4544473  73.2951060 134.1870855
  63.5010012  74.0904997 127.3489988  62.5510012  74.1954997 127.3999988
  63.8530012  74.9104997 127.6929988  63.4184195  74.2158800 127.4025502
  68.8770012  69.3164997 133.8189988  68.4510012  69.0894997 134.6459988
  69.4570012  68.5784997 133.6369988  68.8971868  69.1855299 133.9075830
  71.0800012  70.2454997 122.8929988  71.4330012  69.8654997 123.6969988
  70.1310012  70.1524997 122.9799988  71.0000918  70.1808956 123.0148532
  71.5350012  73.8684997 136.2889988  70.9340012  73.3134997 135.7929988
  71.8170012  74.5354997 135.6619988  71.4908804  73.8826625 136.1364849
  75.5830012  74.7254997 123.0939988  76.3270012  75.3114997 122.9539988
  74.8890012  75.2934997 123.4269988  75.5909899  74.8825798 123.1198778
  59.6580012  61.1014997 135.6959988  58.7650012  61.4404997 135.6279988
  59.5590012  60.2464997 136.1139988  59.5224164  61.0322588 135.7432235
  71.9460012  68.9184997 125.1199988  71.6680012  68.1904997 125.6759988
  72.8730012  69.0374997 125.3249988  72.0333124  68.8348802 125.2238845
  59.3090012  72.9064997 134.1309988  59.5260012  71.9744997 134.0999988
  59.5550012  73.1804997 135.0139988  59.3719549  72.8160636 134.2461763
  65.1710012  71.3574997 121.3399988  65.4100012  70.6094997 120.7929988
  64.9020012  70.9694997 122.1729988  65.1673675  71.2026638 121.3776865
  64.1080012  70.9274997 123.7959988  64.2540012  70.4074997 124.5859988
  64.1050012  71.8344997 124.1029988  64.1275792  70.9788842 123.9456117
  60.5610012  68.1804997 124.3069988  59.8750012  68.5324997 124.8739988
  61.0830012  68.9434997 124.0599988  60.5376852  68.3318578 124.3512118
  68.3920012  60.8424997 134.5859988  69.0910012  60.9164997 135.2359988
  68.0110012  59.9784997 134.7399988  68.4361767  60.7357624 134.6958322
  69.1770012  60.4944997 125.6829988  69.3970012  60.9664997 124.8799988
  69.7350012  60.8894997 126.3529988  69.2824968  60.6124285 125.6637331
  66.8450012  72.6254997 124.5459988  66.0290012  73.1224997 124.5979988
  67.3750012  73.1004997 123.9059988  66.8049161  72.7577722 124.4665956
  66.3770012  62.2224997 126.5179988  67.1890012  62.7274997 126.5639988
  66.1320012  62.0774997 127.4319988  66.4550520  62.2720375 126.6478517
  66.9120012  63.2084997 135.7019988  67.0310012  63.7824997 136.4599988
  67.5680012  62.5204997 135.8169988  67.0169025  63.1939858 135.8211321
  67.2600012  59.3034997 127.4559988  66.9140012  59.9214997 128.0999988
  67.9190012  59.8044997 126.9739988  67.3016968  59.4556278 127.4789383
  64.1840012  73.6694997 124.5269988  64.3440012  74.4684997 124.0269988
  63.9860012  73.9754997 125.4119988  64.1791637  73.8204020 124.5781144
  62.9180012  60.3664997 124.1429988  62.8350012  61.2554997 124.4899988
  63.8080012  60.1014997 124.3749988  63.0269469  60.4521430 124.2217626
  73.1170012  61.1154997 136.5369988  72.2000012  61.3784997 136.4499988
  73.4520012  61.1124997 135.6409988  73.0368613  61.1510761 136.4038837
  71.7190012  64.8664997 130.6329988  70.9210012  64.4514997 130.3049988
  72.1640012  64.1754997 131.1239988  71.6699885  64.7163543 130.6544889
  61.1770012  70.7944997 123.2039988  61.7690012  71.4934997 123.4799988
  61.6360012  70.3614997 122.4839988  61.3201142  70.8317049 123.1444830
  59.4930012  63.4584997 122.3199988  59.4480012  64.3974997 122.4979988
  58.6050012  63.2224997 122.0499988  59.3668574  63.5551892 122.3078912
  72.8050012  74.1224997 132.2559988  72.6500012  74.8004997 131.5979988
  73.7380012  74.1944997 132.4589988  72.9098657  74.2249546 132.1934360
  60.3010012  58.2404997 130.9929988  60.0720012  58.2994997 130.0649988
  59.8580012  57.4484997 131.2989988  60.2098530  58.1415753 130.9074786
  59.2310012  72.1804997 127.1529988  58.3990012  72.6534997 127.1799988
  59.7770012  72.6904997 126.5549988  59.1910352  72.3141332 127.0758463
  58.5190012  74.7934997 138.4829988  59.0600012  74.5764997 139.2429988
  58.0380012  73.9874997 138.2929988  58.5279951  74.6549270 138.5612576
  63.1170012  73.7124997 140.1029988  63.8840012  73.2534997 140.4439988
  63.0950012  73.4864997 139.1739988  63.2191275  73.6190186 140.0240101
  67.2090012  73.2204997 121.4789988  66.5650012  72.5894997 121.7999988
  67.9710012  72.6894997 121.2469988  67.2238077  73.0622920 121.4916011
  69.6940012  72.0924997 138.8329988  69.3430012  71.2364997 139.0759988
  70.4200012  72.2354997 139.4399988  69.7440769  71.9945636 138.9483619
  71.8130012  73.0374997 121.7119988  72.0960012  72.2434997 122.1649988
  72.5530012  73.2704997 121.1519988  71.9518006  72.9603376 121.6982715
  58.4260012  68.6034997 139.4369988  58.5700012  67.7014997 139.1509988
  57.6540012  68.8894997 138.9499988  58.3412753  68.5186816 139.3319505
  62.7680012  68.9474997 121.5699988  62.8320012  68.1534997 122.1009988
  63.4210012  68.8284997 120.8799988  62.8650241  68.8227148 121.5494317
  65.0820012  68.5734997 138.8699988  64.7530012  68.8444997 138.0129988
  65.2340012  67.6324997 138.7829988  65.0574809  68.4833862 138.7408244
  68.1200012  69.9944997 121.3059988  67.8510012  70.1744997 122.2069988
  67.9140012  69.0684997 121.1739988  68.0553427  69.8940261 121.4115073
  70.8160012  68.4894997 136.2529988  71.5620012  69.0774997 136.1339988
  70.0590012  69.0714997 136.3169988  70.8157820  68.6487143 136.2453590
  59.2590012  65.8034997 138.8569988  59.6670012  64.9464997 138.7359988
  58.9990012  65.8184997 139.7779988  59.2797568  65.6880807 138.9649588
  63.9170012  66.9194997 123.8759988  63.4570012  66.4354997 124.5619988
  64.1720012  66.2514997 123.2399988  63.8884902  66.7628731 123.8839334
  63.2060012  64.8124997 136.2319988  62.5880012  65.4874997 136.5119988
  63.5500012  65.1334997 135.3979988  63.1679132  64.9482411 136.1576262
  64.9880012  65.1624997 122.1379988  64.8080012  65.0084997 121.2109988
  65.9380012  65.2704997 122.1829988  65.0917776  65.1560175 122.0171843
  68.2260012  67.2844997 139.5089988  69.1790012  67.3674997 139.4819988
  68.0650012  66.5724997 140.1289988  68.3346426  67.1996746 139.5890579
  74.3780012  67.5174997 121.5839988  74.1040012  67.0924997 120.7709988
  74.4170012  68.4484997 121.3669988  74.3457699  67.5852484 121.4433610
  63.5450012  62.1674997 137.3139988  63.6950012  61.4384997 136.7119988
  63.5480012  62.9444997 136.7549988  63.5659302  62.1727851 137.1560692
  63.9580012  60.5374997 134.8069988  64.4940012  60.9884997 134.1549988
  63.1060012  60.4294997 134.3839988  63.9162178  60.5846390 134.6605756
  65.5400012  65.9764997 135.0459988  66.2900012  65.8204997 134.4729988
  65.2010012  66.8284997 134.7709988  65.5968921  66.0702968 134.9303561
  69.9550012  63.7914997 140.0749988  70.1480012  62.8604997 139.9629988
  70.8130012  64.2164997 140.0639988  70.0972934  63.7216531 140.0582031
  71.2720012  66.5804997 138.1519988  70.9910012  67.2894997 137.5739988
  72.2150012  66.5074997 138.0009988  71.3609291  66.6676711 138.0524967
  62.0240012  63.3654997 139.2259988  61.2570012  62.8334997 139.0149988
  62.7030012  63.0554997 138.6259988  62.0107877  63.2508300 139.1160716
  64.7640012  57.9934997 135.2379988  64.6650012  58.9404997 135.1329988
  64.0210012  57.6214997 134.7619988  64.6501184  58.0725863 135.1593621
  66.0280012  62.3154997 138.8019988  65.7920012  62.0954997 139.7029988
  65.2440012  62.1084997 138.2919988  65.8898504  62.2574586 138.8563431
  68.7430012  61.4424997 137.8769988  67.7960012  61.4744997 138.0099988
  69.0560012  60.8174997 138.5309988  68.6556707  61.3623998 137.9836060
  70.3770012  60.0764997 139.8829988  70.2810012  59.1244997 139.8769988
  70.0560012  60.3454997 140.7429988  70.3204070  59.9824035 139.9985441
  60.2040012  61.2864997 138.9299988  60.4160012  60.5794997 138.3199988
  60.0930012  60.8484997 139.7739988  60.2179721  61.1307084 138.9606843
  64.9850012  57.2874997 137.9089988  65.6970012  56.6474997 137.8949988
  64.8840012  57.5544997 136.9959988  65.0688066  57.2360079 137.7835677
  65.3390012  58.9704997 139.9629988  65.2070012  58.4944997 139.1429988
  64.7400012  59.7144997 139.9079988  65.2399071  59.0059618 139.8432886
  64.8850012  75.8534997 123.1389988  65.8180012  76.0114997 123.2829988
  64.6210012  76.5284997 122.5149988  64.9769888  75.9664510 123.0742842
  58.4540012  70.4894997 122.6219988  59.3680012  70.5684997 122.8959988
  58.4610012  69.8024997 121.9559988  58.5801131  70.4073961 122.5694393
  57.1030012  75.8824997 127.6999988  56.4560012  75.4204997 127.1669988
  57.4570012  75.2104997 128.2819988  57.0623849  75.7284723 127.7057959
  57.9730012  73.9634997 129.5039988  57.6380012  73.0834997 129.6759988
  58.1950012  74.3084997 130.3689988  57.9571783  73.8897500 129.6444208
  75.5210012  74.7724997 132.4849988  75.5000012  74.9574997 133.4239988
  76.2120012  75.3414997 132.1439988  75.6114618  74.8746606 132.5673864
  75.0850012  74.3404997 135.4069988  74.5970012  73.6044997 135.0349988
  75.6340012  73.9464997 136.0849988  75.0924820  74.1865889 135.4477813
  73.5350012  70.1294997 140.0449988  72.6690012  70.0244997 140.4389988
  73.9120012  70.8884997 140.4909988  73.4673308  70.2176900 140.1592393
  74.8360012  68.3864997 125.5589988  75.6860012  68.8074997 125.6859988
  74.8420012  67.6464997 126.1659988  74.9531372  68.3440803 125.6584344
  75.2310012  66.4394997 127.3819988  74.5040012  65.9604997 127.7799988
  75.8120012  66.6454997 128.1149988  75.2100473  66.4018103 127.5354528
  74.9900012  69.2244997 132.3299988  75.8230012  68.8464997 132.0499988
  75.1020012  70.1674997 132.2109988  75.1192647  69.3002218 132.2755487
  73.4760012  72.1024997 134.6369988  72.8290012  72.4274997 135.2629988
  72.9590012  71.6624997 133.9629988  73.3174029  72.0875004 134.6315827
  75.4990012  66.3404997 123.7739988  74.9770012  66.6974997 123.0549988
  75.4660012  67.0154997 124.4519988  75.4231634  66.4805413 123.7673145
  73.8480012  63.5804997 122.3239988  73.9440012  64.2474997 121.6439988
  73.7080012  62.7644997 121.8429988  73.8422272  63.5615655 122.1658347
  73.0170012  64.9604997 127.9449988  72.8670012  64.0154997 127.9249988
  72.6640012  65.2414997 128.7889988  72.9487448  64.8691481 128.0563705
  58.0530012  67.0384997 131.9559988  58.2370012  66.9564997 131.0199988
  58.9020012  66.9144997 132.3789988  58.1930151  67.0105073 131.8851451
  73.8740012  66.9304997 137.5839988  74.4570012  66.1964997 137.7759988
  74.4380012  67.7024997 137.6309988  74.0299769  66.9344227 137.6166159
  75.3700012  64.8334997 138.2689988  74.5070012  64.4544997 138.1029988
  75.9750012  64.0944997 138.1939988  75.3336119  64.6818268 138.2361528
  73.0950012  60.9884997 121.4419988  73.7060012  60.6174997 122.0789988
  72.2590012  60.5674997 121.6379988  73.0655032  60.8807554 121.5557035
  72.7280012  62.5434997 126.4079988  73.0080012  61.6364997 126.5319988
  73.4870012  62.9774997 126.0189988  72.8689277  62.4780942 126.3723682
  73.3400012  63.1244997 131.8439988  74.2730012  63.3364997 131.8089988
  73.1050012  63.2264997 132.7659988  73.4359244  63.1673100 131.9638892
  73.3690012  63.8614997 134.6199988  72.5260012  64.1294997 134.9859988
  73.8110012  64.6834997 134.4089988  73.3134158  64.0093291 134.6415491
  57.6500012  62.3094997 138.0969988  58.5700012  62.1874997 138.3329988
  57.2010012  61.5594997 138.4859988  57.7151580  62.1913727 138.1819006
  75.6520012  57.8414997 139.9729988  76.0020012  57.1874997 139.3679988
  75.7990012  58.6784997 139.5329988  75.7197887  57.8651548 139.8306858
  73.3410012  59.8064997 126.4559988  73.5240012  59.3574997 127.2819988
  72.7420012  59.2214997 125.9929988  73.2850202  59.6659975 126.5063275
  58.8710012  60.6214997 130.9879988  59.3170012  59.8294997 131.2899988
  59.3380012  61.3374997 131.4179988  58.9950831  60.6100685 131.0874006
  57.1750012  63.6204997 132.0569988  57.6670012  63.3994997 131.2659988
  57.5380012  64.4614997 132.3379988  57.2913126  63.7038357 131.9867531
  75.1720012  59.9504997 138.3219988  74.2540012  60.2214997 138.2869988
  75.2950012  59.4154997 137.5379988  75.0629729  59.9152508 138.2111923
  75.2080012  59.8734997 122.9839988  75.6200012  59.1524997 122.5089988
  75.8900012  60.5434997 123.0429988  75.3565885  59.8652368 122.9268915
  57.4890012  59.8784997 126.1109988  56.5640012  60.0874997 125.9819988
  57.9430012  60.3624997 125.4209988  57.4237292  59.9725343 126.0000720
  72.2600012  74.8624997 128.0569988  72.9120012  74.5154997 127.4489988
  72.7700012  75.3514997 128.7029988  72.4182637  74.8810597 128.0610236
  57.4530012  58.6164997 134.4549988  56.7880012  58.3704997 135.0989988
  57.0100012  59.2384997 133.8779988  57.3021318  58.6669410 134.4650898
  59.6450012  71.7914997 138.5999988  58.8240012  71.9664997 138.1389988
  59.3920012  71.7184997 139.5199988  59.4985585  71.8055544 138.6613561
  62.5990012  72.7664997 134.8579988  62.1740012  73.5754997 134.5759988
  63.5030012  72.8514997 134.5559988  62.6629975  72.8889300 134.7784816
  66.9100012  74.1654997 137.8179988  67.0950012  73.8314997 138.6959988
  67.7560012  74.4744997 137.4959988  67.0497539  74.1616047 137.8945605
  69.2550012  75.4514997 137.0619988  69.9320012  74.8184997 136.8219988
  69.5770012  75.8524997 137.8689988  69.3911637  75.4191154 137.1382793
  74.1720012  58.0404997 136.1409988  73.3600012  58.3654997 135.7539988
  74.4050012  57.2804997 135.6079988  74.0922203  57.9822758 136.0158880
  60.0010012  76.0224997 134.9059988  59.2800012  76.4624997 134.4549988
  59.6350012  75.7714997 135.7539988  59.8529651  76.0487242 134.9589640
  62.4680012  75.6224997 133.9359988  61.6030012  75.6944997 134.3399988
  62.4130012  76.1694997 133.1519988  62.3422085  75.7062685 133.8853362
  67.1780012  75.5104997 133.1109988  66.7220012  76.0394997 132.4569988
  67.3410012  76.1134997 133.8359988  67.1376068  75.6644607 133.1194838
  69.5060012  74.3884997 134.0559988  68.6010012  74.5534997 133.7899988
  69.9350012  75.2414997 133.9909988  69.4401324  74.5264339 134.0107976
  72.1100012  75.9584997 134.3509988  71.9280012  76.8744997 134.1409988
  72.2870012  75.5484997 133.5049988  72.1090210  76.0284822 134.2077885
  59.4150012  74.6454997 131.8159988  59.3970012  74.2204997 132.6729988
  60.2200012  74.3274997 131.4069988  59.5213529  74.5443013 131.8780946
  61.5570012  73.3554997 130.4709988  61.3380012  72.4394997 130.6409988
  62.3810012  73.4954997 130.9369988  61.6384420  73.2490520 130.5572774
  64.0940012  73.8254997 131.3199988  64.3070012  72.9374997 131.0329988
  64.1580012  73.7914997 132.2739988  64.1318232  73.6993102 131.4097397
  67.6020012  59.4894997 130.4639988  66.9280012  58.8604997 130.7199988
  68.1660012  59.0054997 129.8609988  67.5859230  59.3378744 130.4175340
  72.7450012  57.5974997 130.5769988  73.3490012  58.1444997 130.0749988
  71.8750012  57.9164997 130.3359988  72.7101208  57.7155137 130.4756886
  74.4720012  58.7354997 128.9099988  75.0840012  58.2214997 128.3829988
  74.8540012  59.6134997 128.9329988  74.6073371  58.7837866 128.8410041
  59.9290012  58.1234997 128.2859988  59.1520012  57.8894997 127.7789988
  60.4590012  57.3264997 128.2949988  59.8942330  57.9836988 128.2177742
  58.7650012  57.9214997 124.0899988  59.2040012  58.5324997 123.4979988
  58.1320012  58.4594997 124.5639988  58.7394514  58.0779257 124.0730930
  64.5080012  58.0504997 128.0999988  65.3830012  58.4384997 128.0699988
  64.3720012  57.8354997 129.0219988  64.6093695  58.0745184 128.2206440
  70.0650012  58.0804997 129.7489988  70.1410012  58.1754997 128.7989988
  69.7900012  57.1724997 129.8779988  70.0382321  57.9707867 129.6365079
  71.4180012  58.1064997 125.4409988  70.7160012  58.7214997 125.2309988
  70.9740012  57.2684997 125.5719988  71.2616450  58.0775639 125.4299000
  58.6660012  73.8694997 124.9869988  57.9810012  73.8314997 124.3199988
  58.6700012  74.7824997 125.2759988  58.5726998  73.9876733 124.9346771
  60.6260012  59.8374997 122.5319988  61.1180012  59.2074997 122.0049988
  61.2500012  60.1334997 123.1949988  60.7775688  59.7913804 122.5495482
  65.6520012  60.1304997 124.9889988  65.8300012  59.4844997 125.6719988
  65.5990012  60.9644997 125.4559988  65.6691999  60.1548009 125.1455917
  67.5310012  75.0794997 123.3849988  68.3970012  75.4454997 123.2069988
  67.2840012  74.6394997 122.5709988  67.6162392  75.0701756 123.2506289
  74.2400012  74.6424997 126.0639988  74.0450012  73.8944997 125.4989988
  74.2010012  75.4004997 125.4809988  74.2080380  74.6426099 125.9078384
  59.8870012  58.6374997 137.8039988  59.5210012  57.8724997 138.2459988
  60.8000012  58.6664997 138.0899988  59.9602736  58.5365640 137.9032502
  61.8600012  57.9884997 139.3399988  62.7580012  57.7144997 139.1549988
  61.4730012  57.2454997 139.8039988  61.9306612  57.8505914 139.3773643
  60.4840012  74.7894997 122.0129988  60.2170012  75.0764997 122.8859988
  61.2560012  74.2434997 122.1649988  60.5517488  74.7550294 122.1531050
  70.2810012  57.3204997 139.5219988  70.3580012  56.8944997 140.3759988
  71.1750012  57.3344997 139.1789988  70.4123428  57.2640879 139.5925310
  73.4570012  73.3934997 138.2139988  72.6750012  73.2074997 137.6939988
  73.3850012  74.3224997 138.4319988  73.3402274  73.4936643 138.1723018
  87.8630012  67.2794997 128.2449988  87.9520012  68.2234997 128.1129988
  87.2250012  67.0044997 127.5869988  87.7889081  67.3714830 128.1379614
  86.7960012  66.5344997 131.6639988  86.7580012  65.8884997 132.3689988
  86.4740012  66.0684997 130.8929988  86.7472333  66.3829408 131.6562978
  79.1650012  66.1494997 133.2569988  79.2060012  65.5234997 133.9799988
  79.8680012  66.7734997 133.4389988  79.2656363  66.1481196 133.3806044
  90.5020012  69.4734997 129.9649988  90.0620012  68.7534997 130.4159988
  90.4890012  70.1944997 130.5949988  90.4400226  69.4723731 130.1118494
  80.0880012  70.5994997 131.7919988  79.7190012  69.7974997 131.4219988
  81.0290012  70.4304997 131.8379988  80.1647289  70.4670153 131.7476316
  76.6980012  64.2594997 127.1849988  76.2510012  65.1054997 127.1659988
  76.1370012  63.6794997 126.6689988  76.5609900  64.2969916 127.1126801
  77.4090012  66.4214997 129.3099988  77.6220012  65.6514997 129.8379988
  78.1470012  66.5104997 128.7069988  77.5379044  66.3281968 129.3007123
  87.6140012  74.5784997 130.1769988  88.2340012  73.9014997 129.9039988
  87.4060012  74.3604997 131.0859988  87.6706726  74.4564800 130.2624812
  85.1860012  68.9674997 132.0699988  85.4900012  68.2814997 131.4749988
  85.9070012  69.0854997 132.6879988  85.3250671  68.8896305 132.0721816
  93.8490012  60.5684997 132.9309988  93.8980012  61.1784997 133.6659988
  94.2740012  61.0294997 132.2079988  93.9131746  60.7143796 132.9339175
  88.3270012  63.3614997 132.3969988  88.4690012  62.4154997 132.4179988
  88.2200012  63.5684997 131.4689988  88.3319919  63.2598246 132.2743408
  81.4810012  61.4624997 129.6699988  81.5250012  62.3224997 129.2509988
  81.0240012  60.9104997 129.0359988  81.4252240  61.5054422 129.5269864
  89.2040012  61.5934997 128.0709988  89.8500012  61.2644997 128.6949988
  89.7140012  62.1114997 127.4479988  89.3614299  61.6184450 128.0722731
  78.1020012  63.8594997 130.4319988  78.7550012  63.3094997 130.8639988
  78.1260012  63.5854997 129.5149988  78.1946683  63.7471466 130.3672123
  83.2580012  65.4094997 129.6469988  83.8740012  64.8834997 130.1569988
  82.6720012  64.7694997 129.2439988  83.2630810  65.2509208 129.6623173
  94.2400012  62.0464997 135.1659988  93.5520012  62.7044997 135.0709988
  94.2560012  61.8494997 136.1029988  94.1479540  62.1099819 135.2795990
  80.2920012  60.3804997 133.7439988  80.0730012  60.9104997 132.9779988
  79.6240012  60.6074997 134.3909988  80.1717600  60.4836906 133.7266379
  87.6610012  69.8804997 127.2879988  87.3650012  69.5584997 126.4369988
  87.3360012  70.7804997 127.3289988  87.5766371  69.9580215 127.1771801
  82.8610012  68.0564997 134.0309988  82.1210012  68.6544997 134.1349988
  83.5750012  68.6104997 133.7159988  82.8562237  68.2132831 134.0026465
  90.9680012  60.8844997 130.0509988  90.7520012  60.1184997 130.5839988
  91.6230012  61.3564997 130.5639988  91.0270632  60.8435889 130.1932861
  79.8850012  62.2724997 131.6959988  80.4990012  62.9054997 132.0689988
  80.3970012  61.8004997 131.0399988  80.0381981  62.2952267 131.6582908
  81.2680012  70.0204997 134.8179988  81.2630012  70.9004997 134.4399988
  80.4150012  69.9374997 135.2429988  81.1519464  70.1296117 134.8237907
  77.3890012  69.6914997 125.5999988  77.1170012  69.9204997 124.7119988
  77.4350012  70.5294997 126.0609988  77.3579482  69.8361318 125.5406273
  91.0140012  71.3134997 132.3129988  90.0730012  71.3714997 132.4749988
  91.2910012  72.2194997 132.1759988  90.9224679  71.4439443 132.3166815
  91.3150012  59.5994997 133.7309988  90.5790012  60.2104997 133.6929988
  91.9980012  60.0144997 133.2039988  91.3066541  59.7391374 133.6545832
  84.3180012  57.6864997 131.1959988  84.2010012  56.7374997 131.1419988
  83.4630012  58.0184997 131.4699988  84.1864212  57.6015571 131.2256497
  89.2660012  73.0944997 128.9379988  89.6920012  72.3874997 128.4529988
  89.5830012  73.8954997 128.5219988  89.3671683  73.1061017 128.8153680
  90.4260012  70.9954997 127.4469988  90.1680012  70.3054997 126.8359988
  90.4970012  70.5524997 128.2929988  90.4002856  70.8412124 127.4776885
  92.1120012  69.5614997 135.9239988  92.2520012  68.9704997 135.1849988
  92.2790012  70.4344997 135.5679988  92.1537411  69.5985428 135.7746894
  86.5850012  66.5234997 125.6969988  85.8730012  67.0584997 125.3449988
  87.2760012  66.5794997 125.0369988  86.5810132  66.6042543 125.5596289
  86.6380012  64.9814997 122.7359988  87.3390012  65.0034997 123.3869988
  86.9410012  64.3534997 122.0789988  86.7748133  64.8997070 122.7363369
  93.9540012  65.9014997 133.9899988  93.3010012  66.5964997 134.0799988
  94.4190012  66.1114997 133.1809988  93.9275274  66.0250643 133.8928462
  89.9900012  66.7334997 126.6489988  89.2580012  66.9614997 127.2219988
  90.4380012  66.0194997 127.1029988  89.9502725  66.6682145 126.7888816
  89.8880012  64.9074997 135.7159988  89.9680012  65.6704997 136.2879988
  89.2860012  65.1864997 135.0259988  89.8175756  65.0497134 135.7010589
  81.6360012  67.3634997 128.5309988  81.3050012  66.9934997 127.7129988
  82.2240012  66.6934997 128.8779988  81.6701873  67.2221156 128.4658102
  83.0020012  70.7914997 131.2119988  82.9080012  70.2134997 130.4559988
  83.7320012  70.4204997 131.7089988  83.0877386  70.6621663 131.1755342
  82.0020012  66.1324997 132.1649988  82.5680012  66.2534997 131.4019988
  82.3210012  66.7694997 132.8029988  82.1225474  66.2352219 132.1469862
  88.3110012  71.6354997 132.8989988  88.0710012  72.2974997 133.5469988
  88.1130012  70.8014997 133.3239988  88.2513808  71.6133134 133.0451524
  82.8820012  70.5314997 136.8819988  82.5710012  71.3134997 137.3369988
  82.2320012  70.3784997 136.1959988  82.7515558  70.6179105 136.8515871
  88.8610012  65.8954997 124.3339988  89.4410012  66.0454997 125.0809988
  89.2750012  66.3664997 123.6099988  88.9962997  65.9796578 124.3384058
  79.8020012  66.7294997 136.1099988  79.8730012  67.3804997 136.8089988
  78.9120012  66.8324997 135.7749988  79.6913005  66.8325427 136.1603495
  86.5880012  72.6324997 127.7689988  87.0620012  72.9274997 128.5459988
  86.0250012  73.3704997 127.5359988  86.5768184  72.7727247 127.8439628
  81.1220012  72.6034997 137.6449988  81.1290012  72.4674997 136.6979988
  80.2060012  72.4854997 137.8969988  80.9991714  72.5689430 137.5494666
  92.5600012  57.6454997 124.1469988  91.6600012  57.7844997 124.4419988
  92.8120012  58.4764997 123.7449988  92.4708702  57.7769074 124.1330205
  80.6260012  66.4334997 126.1199988  80.3340012  67.2014997 125.6299988
  79.9520012  65.7734997 125.9579988  80.4948111  66.4495587 126.0308978
  93.7490012  72.0114997 122.5229988  93.8230012  72.9504997 122.6939988
  94.6550012  71.7064997 122.4669988  93.8815100  72.0986722 122.5388119
  76.7190012  68.7964997 134.9349988  76.2180012  68.7684997 134.1199988
  76.7240012  67.8904997 135.2449988  76.6510944  68.6702396 134.8653226
  76.4690012  71.5764997 131.8189988  77.4150012  71.4324997 131.7999988
  76.3570012  72.3604997 132.3559988  76.5832727  71.6628046 131.8890072
  94.6670012  72.2424997 137.5019988  94.6180012  71.2874997 137.4649988
  93.8400012  72.5104997 137.9029988  94.5484940  72.1478998 137.5511375
  85.6460012  71.8164997 136.3779988  85.7330012  72.6424997 136.8529988
  84.7820012  71.4864997 136.6269988  85.5411964  71.8849878 136.4766549
  86.0600012  75.5884997 126.1839988  85.9850012  75.4674997 125.2369988
  86.0930012  76.5384997 126.3019988  86.0542068  75.7002646 126.0704967
  79.7130012  74.3774997 127.9649988  79.8660012  74.0294997 128.8429988
  78.8630012  74.0214997 127.7099988  79.6189166  74.2816216 128.0508079
  89.1620012  74.7424997 123.1859988  89.5370012  73.9984997 122.7149988
  89.1660012  74.4724997 124.1049988  89.2139125  74.6040986 123.2456483
  88.8310012  74.6684997 125.9349988  87.8950012  74.7684997 126.1139988
  89.1110012  73.9594997 126.5139988  88.7409553  74.5863406 126.0377087
  91.8190012  63.7354997 137.9819988  91.4120012  64.2164997 137.2609988
  91.8600012  62.8304997 137.6739988  91.7688437  63.6789374 137.8416683
  78.9680012  70.1194997 135.9789988  79.1840012  69.7584997 136.8379988
  78.1130012  69.7454997 135.7689988  78.8819292  70.0194111 136.0683386
  81.5870012  58.5894997 131.9739988  80.7250012  58.5024997 131.5659988
  81.5640012  59.4454997 132.4019988  81.4660409  58.6932883 131.9760589
  86.2500012  58.3114997 135.3489988  86.6700012  57.8964997 136.1019988
  85.3170012  58.1334997 135.4659988  86.1813644  58.2305900 135.4679539
  89.5760012  62.0674997 136.2019988  89.0620012  61.9414997 136.9999988
  89.4210012  62.9794997 135.9579988  89.4846852  62.1736132 136.2782158
  90.3390012  66.9284997 121.9639988  90.3810012  66.7054997 121.0339988
  91.1880012  67.3274997 122.1529988  90.4595280  66.9519438 121.8623554
  85.9110012  60.8044997 122.6339988  85.6580012  60.8234997 123.5569988
  85.6550012  59.9324997 122.3319988  85.8417481  60.6892558 122.7196175
  81.6780012  63.5554997 133.0689988  81.0360012  63.5144997 133.7779988
  81.7150012  64.4814997 132.8309988  81.5950664  63.6751430 133.1339219
  81.6750012  63.7764997 127.9809988  80.7820012  63.4354997 127.9219988
  82.1250012  63.3994997 127.2249988  81.6138130  63.6789631 127.8707702
  87.2100012  64.1924997 126.7979988  86.8010012  65.0074997 126.5069988
  87.9310012  64.0524997 126.1839988  87.2514537  64.2852018 126.6751342
  86.3120012  64.3674997 138.2859988  85.7500012  63.6634997 138.6069988
  87.1390012  64.2474997 138.7539988  86.3467095  64.2547883 138.3932330
  88.2150012  63.6384997 129.6119988  88.0200012  64.2434997 128.8969988
  88.3960012  62.8044997 129.1779988  88.2127614  63.6086300 129.4554405
  79.4280012  63.8754997 134.9359988  79.3900012  64.2754997 135.8049988
  78.9370012  63.0584997 135.0269988  79.3564684  63.8198069 135.0671059
  82.7940012  61.2494997 121.7349988  82.3630012  60.8044997 122.4649988
  82.0760012  61.6214997 121.2229988  82.6379438  61.2388940 121.7656799
  76.0360012  60.9914997 128.7869988  76.6670012  60.9624997 129.5059988
  76.4850012  60.5664997 128.0559988  76.1830918  60.9300836 128.7866441
  77.3100012  61.7374997 124.2109988  77.7840012  62.3284997 123.6259988
  76.5930012  62.2684997 124.5579988  77.2779341  61.8900867 124.1778836
  87.4790012  65.2764997 134.2829988  87.8020012  64.6454997 133.6399988
  87.0390012  64.7414997 134.9439988  87.4637484  65.1178387 134.2843198
  84.2560012  61.2034997 129.0669988  83.3450012  61.2604997 129.3559988
  84.7620012  61.1434997 129.8779988  84.1996899  61.2031941 129.2161184
  79.0850012  62.8324997 127.8939988  78.1950012  62.9324997 127.5539988
  79.3810012  61.9904997 127.5479988  79.0032823  62.7323545 127.8007213
  82.7380012  62.8324997 125.5509988  83.6690012  62.9614997 125.7289988
  82.5230012  63.5024997 124.9009988  82.8364247  62.9406565 125.4875747
  88.6610012  60.4384997 132.3319988  87.9850012  60.5694997 132.9959988
  88.1760012  60.2834997 131.5209988  88.5027146  60.4355157 132.3134469
  81.4120012  64.0274997 123.1169988  80.8690012  63.6474997 122.4259988
  82.2450012  64.2214997 122.6889988  81.4503631  64.0017125 122.9644501
  91.9490012  76.1104997 138.6079988  92.1490012  76.5344997 137.7739988
  92.6040012  76.4534997 139.2149988  92.0650072  76.2149857 138.5758592
  79.5470012  68.5844997 138.2159988  80.2790012  68.8384997 138.7779988
  78.7670012  68.7884997 138.7319988  79.5417073  68.6468160 138.3626151
  85.5760012  63.9914997 130.9539988  86.1410012  63.4444997 130.4069988
  85.4290012  63.4694997 131.7429988  85.6333380  63.8462259 130.9858695
  80.5780012  60.1274997 127.3729988  80.2610012  59.2254997 127.3369988
  81.3600012  60.1294997 126.8199988  80.6402408  60.0042474 127.2933569
  84.2030012  62.3794997 133.3679988  83.3670012  62.8334997 133.4789988
  84.7270012  62.6554997 134.1199988  84.1595416  62.4788660 133.4848119
  84.7470012  68.5924997 125.0529988  84.0020012  68.0854997 124.7309988
  84.6130012  68.6414997 125.9999988  84.6268776  68.5296940 125.1368647
  91.8970012  67.7254997 133.8399988  92.5390012  68.1824997 133.2959988
  91.0670012  67.8384997 133.3769988  91.8725963  67.8032704 133.7030177
  88.6450012  61.4064997 123.2519988  87.7060012  61.5184997 123.1009988
  88.9420012  62.2634997 123.5589988  88.5567583  61.5375981 123.2728337
  86.2660012  68.7764997 136.2899988  85.9210012  68.3954997 137.0969988
  86.0660012  69.7104997 136.3609988  86.1917527  68.8505135 136.4100689
  89.3630012  63.2734997 124.9129988  90.2550012  63.1364997 125.2319988
  89.4200012  64.0644997 124.3759988  89.4926504  63.3616052 124.8840818
  79.8720012  67.8874997 130.8229988  80.6170012  67.8854997 130.2219988
  79.9500012  67.0644997 131.3039988  79.9844995  67.7758887 130.8058282
  86.8730012  70.0514997 124.0789988  86.5770012  70.8774997 124.4599988
  86.1700012  69.4314997 124.2749988  86.7374914  70.0808199 124.1576443
  76.8800012  66.3484997 136.1379988  77.1030012  65.9304997 136.9699988
  76.2780012  65.7354997 135.7149988  76.8291759  66.2084668 136.1947022
  83.8960012  65.8654997 138.3509988  83.6000012  65.6994997 137.4559988
  84.8280012  65.6454997 138.3399988  83.9814166  65.8130640 138.2270536
  88.5170012  71.2384997 136.2409988  87.6160012  71.4214997 135.9729988
  88.5510012  71.4974997 137.1609988  88.3983139  71.2985849 136.3288099
  94.2480012  63.4834997 124.6079988  93.6940012  63.0874997 123.9359988
  94.3480012  64.3934997 124.3299988  94.1857059  63.5523586 124.4784401
  94.2110012  69.2834997 137.4449988  93.3600012  69.5214997 137.0779988
  94.8020012  69.2664997 136.6919988  94.1742487  69.3138258 137.2928893
  92.5430012  72.2694997 125.0729988  92.1700012  71.4434997 125.3819988
  92.8210012  72.0864997 124.1749988  92.5295222  72.1317430 124.9939473
  89.7040012  67.0774997 132.0939988  88.7750012  66.8454997 132.0669988
  90.1550012  66.3004997 131.7639988  89.6379216  66.9407238 132.0456917
  82.2470012  71.4054997 128.2269988  82.7740012  72.1784997 128.0269988
  81.3670012  71.6304997 127.9249988  82.2002031  71.5417545 128.1587912
  78.0020012  66.2674997 122.8139988  78.6180012  66.8944997 123.1939988
  77.1400012  66.5834997 123.0859988  77.9697698  66.3959430 122.9027183
  83.6740012  69.0684997 127.8029988  83.4330012  69.9934997 127.8449988
  82.9330012  68.6094997 128.1999988  83.5409225  69.1330933 127.8623742
  84.1890012  73.2174997 134.1189988  84.5510012  74.0724997 133.8849988
  84.7200012  72.9254997 134.8589988  84.3104473  73.2951060 134.1870855
  82.3570012  74.0904997 127.3489988  81.4070012  74.1954997 127.3999988
  82.7090012  74.9104997 127.6929988  82.2744195  74.2158800 127.4025502
  87.7330012  69.3164997 133.8189988  87.3070012  69.0894997 134.6459988
  88.3130012  68.5784997 133.6369988  87.7531868  69.1855299 133.9075830
  89.9360012  70.2454997 122.8929988  90.2890012  69.8654997 123.6969988
  88.9870012  70.1524997 122.9799988  89.8560918  70.1808956 123.0148532
  90.3910012  73.8684997 136.2889988  89.7900012  73.3134997 135.7929988
  90.6730012  74.5354997 135.6619988  90.3468804  73.8826625 136.1364849
  94.4390012  74.7254997 123.0939988  95.1830012  75.3114997 122.9539988
  93.7450012  75.2934997 123.4269988  94.4469899  74.8825798 123.1198778
  78.5140012  61.1014997 135.6959988  77.6210012  61.4404997 135.6279988
  78.4150012  60.2464997 136.1139988  78.3784164  61.0322588 135.7432235
  90.8020012  68.9184997 125.1199988  90.5240012  68.1904997 125.6759988
  91.7290012  69.0374997 125.3249988  90.8893124  68.8348802 125.2238845
  78.1650012  72.9064997 134.1309988  78.3820012  71.9744997 134.0999988
  78.4110012  73.1804997 135.0139988  78.2279549  72.8160636 134.2461763
  84.0270012  71.3574997 121.3399988  84.2660012  70.6094997 120.7929988
  83.7580012  70.9694997 122.1729988  84.0233675  71.2026638 121.3776865
  82.9640012  70.9274997 123.7959988  83.1100012  70.4074997 124.5859988
  82.9610012  71.8344997 124.1029988  82.9835792  70.9788842 123.9456117
  79.4170012  68.1804997 124.3069988  78.7310012  68.5324997 124.8739988
  79.9390012  68.9434997 124.0599988  79.3936852  68.3318578 124.3512118
  87.2480012  60.8424997 134.5859988  87.9470012  60.9164997 135.2359988
  86.8670012  59.9784997 134.7399988  87.2921767  60.7357624 134.6958322
  88.0330012  60.4944997 125.6829988  88.2530012  60.9664997 124.8799988
  88.5910012  60.8894997 126.3529988  88.1384968  60.6124285 125.6637331
  85.7010012  72.6254997 124.5459988  84.8850012  73.1224997 124.5979988
  86.2310012  73.1004997 123.9059988  85.6609161  72.7577722 124.4665956
  85.2330012  62.2224997 126.5179988  86.0450012  62.7274997 126.5639988
  84.9880012  62.0774997 127.4319988  85.3110520  62.2720375 126.6478517
  85.7680012  63.2084997 135.7019988  85.8870012  63.7824997 136.4599988
  86.4240012  62.5204997 135.8169988  85.8729025  63.1939858 135.8211321
  86.1160012  59.3034997 127.4559988  85.7700012  59.9214997 128.0999988
  86.7750012  59.8044997 126.9739988  86.1576968  59.4556278 127.4789383
  83.0400012  73.6694997 124.5269988  83.2000012  74.4684997 124.0269988
  82.8420012  73.9754997 125.4119988  83.0351637  73.8204020 124.5781144
  81.7740012  60.3664997 124.1429988  81.6910012  61.2554997 124.4899988
  82.6640012  60.1014997 124.3749988  81.8829469  60.4521430 124.2217626
  91.9730012  61.1154997 136.5369988  91.0560012  61.3784997 136.4499988
  92.3080012  61.1124997 135.6409988  91.8928613  61.1510761 136.4038837
  90.5750012  64.8664997 130.6329988  89.7770012  64.4514997 130.3049988
  91.0200012  64.1754997 131.1239988  90.5259885  64.7163543 130.6544889
  80.0330012  70.7944997 123.2039988  80.6250012  71.4934997 123.4799988
  80.4920012  70.3614997 122.4839988  80.1761142  70.8317049 123.1444830
  78.3490012  63.4584997 122.3199988  78.3040012  64.3974997 122.4979988
  77.4610012  63.2224997 122.0499988  78.2228574  63.5551892 122.3078912
  91.6610012  74.1224997 132.2559988  91.5060012  74.8004997 131.5979988
  92.5940012  74.1944997 132.4589988  91.7658657  74.2249546 132.1934360
  79.1570012  58.2404997 130.9929988  78.9280012  58.2994997 130.0649988
  78.7140012  57.4484997 131.2989988  79.0658530  58.1415753 130.9074786
  78.0870012  72.1804997 127.1529988  77.2550012  72.6534997 127.1799988
  78.6330012  72.6904997 126.5549988  78.0470352  72.3141332 127.0758463
  77.3750012  74.7934997 138.4829988  77.9160012  74.5764997 139.2429988
  76.8940012  73.9874997 138.2929988  77.3839951  74.6549270 138.5612576
  81.9730012  73.7124997 140.1029988  82.7400012  73.2534997 140.4439988
  81.9510012  73.4864997 139.1739988  82.0751275  73.6190186 140.0240101
  86.0650012  73.2204997 121.4789988  85.4210012  72.5894997 121.7999988
  86.8270012  72.6894997 121.2469988  86.0798077  73.0622920 121.4916011
  88.5500012  72.0924997 138.8329988  88.1990012  71.2364997 139.0759988
  89.2760012  72.2354997 139.4399988  88.6000769  71.9945636 138.9483619
  90.6690012  73.0374997 121.7119988  90.9520012  72.2434997 122.1649988
  91.4090012  73.2704997 121.1519988  90.8078006  72.9603376 121.6982715
  77.2820012  68.6034997 139.4369988  77.4260012  67.7014997 139.1509988
  76.5100012  68.8894997 138.9499988  77.1972753  68.5186816 139.3319505
  81.6240012  68.9474997 121.5699988  81.6880012  68.1534997 122.1009988
  82.2770012  68.8284997 120.8799988  81.7210241  68.8227148 121.5494317
  83.9380012  68.5734997 138.8699988  83.6090012  68.8444997 138.0129988
  84.0900012  67.6324997 138.7829988  83.9134809  68.4833862 138.7408244
  86.9760012  69.9944997 121.3059988  86.7070012  70.1744997 122.2069988
  86.7700012  69.0684997 121.1739988  86.9113427  69.8940261 121.4115073
  89.6720012  68.4894997 136.2529988  90.4180012  69.0774997 136.1339988
  88.9150012  69.0714997 136.3169988  89.6717820  68.6487143 136.2453590
  78.1150012  65.8034997 138.8569988  78.5230012  64.9464997 138.7359988
  77.8550012  65.8184997 139.7779988  78.1357568  65.6880807 138.9649588
  82.7730012  66.9194997 123.8759988  82.3130012  66.4354997 124.5619988
  83.0280012  66.2514997 123.2399988  82.7444902  66.7628731 123.8839334
  82.0620012  64.8124997 136.2319988  81.4440012  65.4874997 136.5119988
  82.4060012  65.1334997 135.3979988  82.0239132  64.9482411 136.1576262
  83.8440012  65.1624997 122.1379988  83.6640012  65.0084997 121.2109988
  84.7940012  65.2704997 122.1829988  83.9477776  65.1560175 122.0171843
  87.0820012  67.2844997 139.5089988  88.0350012  67.3674997 139.4819988
  86.9210012  66.5724997 140.1289988  87.1906426  67.1996746 139.5890579
  93.2340012  67.5174997 121.5839988  92.9600012  67.0924997 120.7709988
  93.2730012  68.4484997 121.3669988  93.2017699  67.5852484 121.4433610
  82.4010012  62.1674997 137.3139988  82.5510012  61.4384997 136.7119988
  82.4040012  62.9444997 136.7549988  82.4219302  62.1727851 137.1560692
  82.8140012  60.5374997 134.8069988  83.3500012  60.9884997 134.1549988
  81.9620012  60.4294997 134.3839988  82.7722178  60.5846390 134.6605756
  84.3960012  65.9764997 135.0459988  85.1460012  65.8204997 134.4729988
  84.0570012  66.8284997 134.7709988  84.4528921  66.0702968 134.9303561
  88.8110012  63.7914997 140.0749988  89.0040012  62.8604997 139.9629988
  89.6690012  64.2164997 140.0639988  88.9532934  63.7216531 140.0582031
  90.1280012  66.5804997 138.1519988  89.8470012  67.2894997 137.5739988
  91.0710012  66.5074997 138.0009988  90.2169291  66.6676711 138.0524967
  80.8800012  63.3654997 139.2259988  80.1130012  62.8334997 139.0149988
  81.5590012  63.0554997 138.6259988  80.8667877  63.2508300 139.1160716
  83.6200012  57.9934997 135.2379988  83.5210012  58.9404997 135.1329988
  82.8770012  57.6214997 134.7619988  83.5061184  58.0725863 135.1593621
  84.8840012  62.3154997 138.8019988  84.6480012  62.0954997 139.7029988
  84.1000012  62.1084997 138.2919988  84.7458504  62.2574586 138.8563431
  87.5990012  61.4424997 137.8769988  86.6520012  61.4744997 138.0099988
  87.9120012  60.8174997 138.5309988  87.5116707  61.3623998 137.9836060
  89.2330012  60.0764997 139.8829988  89.1370012  59.1244997 139.8769988
  88.9120012  60.3454997 140.7429988  89.1764070  59.9824035 139.9985441
  79.0600012  61.2864997 138.9299988  79.2720012  60.5794997 138.3199988
  78.9490012  60.8484997 139.7739988  79.0739721  61.1307084 138.9606843
  83.8410012  57.2874997 137.9089988  84.5530012  56.6474997 137.8949988
  83.7400012  57.5544997 136.9959988  83.9248066  57.2360079 137.7835677
  84.1950012  58.9704997 139.9629988  84.0630012  58.4944997 139.1429988
  83.5960012  59.7144997 139.9079988  84.0959071  59.0059618 139.8432886
  83.7410012  75.8534997 123.1389988  84.6740012  76.0114997 123.2829988
  83.4770012  76.5284997 122.5149988  83.8329888  75.9664510 123.0742842
  77.3100012  70.4894997 122.6219988  78.2240012  70.5684997 122.8959988
  77.3170012  69.8024997 121.9559988  77.4361131  70.4073961 122.5694393
  75.9590012  75.8824997 127.6999988  75.3120012  75.4204997 127.1669988
  76.3130012  75.2104997 128.2819988  75.9183849  75.7284723 127.7057959
  76.8290012  73.9634997 129.5039988  76.4940012  73.0834997 129.6759988
  77.0510012  74.3084997 130.3689988  76.8131783  73.8897501 129.6444208
  94.3770012  74.7724997 132.4849988  94.3560012  74.9574997 133.4239988
  95.0680012  75.3414997 132.1439988  94.4674618  74.8746606 132.5673864
  93.9410012  74.3404997 135.4069988  93.4530012  73.6044997 135.0349988
  94.4900012  73.9464997 136.0849988  93.9484820  74.1865889 135.4477813
  92.3910012  70.1294997 140.0449988  91.5250012  70.0244997 140.4389988
  92.7680012  70.8884997 140.4909988  92.3233308  70.2176900 140.1592393
  93.6920012  68.3864997 125.5589988  94.5420012  68.8074997 125.6859988
  93.6980012  67.6464997 126.1659988  93.8091372  68.3440803 125.6584344
  94.0870012  66.4394997 127.3819988  93.3600012  65.9604997 127.7799988
  94.6680012  66.6454997 128.1149988  94.0660473  66.4018103 127.5354528
  93.8460012  69.2244997 132.3299988  94.6790012  68.8464997 132.0499988
  93.9580012  70.1674997 132.2109988  93.9752647  69.3002218 132.2755487
  92.3320012  72.1024997 134.6369988  91.6850012  72.4274997 135.2629988
  91.8150012  71.6624997 133.9629988  92.1734029  72.0875004 134.6315827
  94.3550012  66.3404997 123.7739988  93.8330012  66.6974997 123.0549988
  94.3220012  67.0154997 124.4519988  94.2791634  66.4805413 123.7673145
  92.7040012  63.5804997 122.3239988  92.8000012  64.2474997 121.6439988
  92.5640012  62.7644997 121.8429988  92.6982272  63.5615655 122.1658347
  91.8730012  64.9604997 127.9449988  91.7230012  64.0154997 127.9249988
  91.5200012  65.2414997 128.7889988  91.8047448  64.8691481 128.0563705
  76.9090012  67.0384997 131.9559988  77.0930012  66.9564997 131.0199988
  77.7580012  66.9144997 132.3789988  77.0490151  67.0105073 131.8851451
  92.7300012  66.9304997 137.5839988  93.3130012  66.1964997 137.7759988
  93.2940012  67.7024997 137.6309988  92.8859769  66.9344227 137.6166159
  94.2260012  64.8334997 138.2689988  93.3630012  64.4544997 138.1029988
  94.8310012  64.0944997 138.1939988  94.1896119  64.6818268 138.2361528
  91.9510012  60.9884997 121.4419988  92.5620012  60.6174997 122.0789988
  91.1150012  60.5674997 121.6379988  91.9215032  60.8807554 121.5557035
  91.5840012  62.5434997 126.4079988  91.8640012  61.6364997 126.5319988
  92.3430012  62.9774997 126.0189988  91.7249277  62.4780942 126.3723682
  92.1960012  63.1244997 131.8439988  93.1290012  63.3364997 131.8089988
  91.9610012  63.2264997 132.7659988  92.2919244  63.1673100 131.9638892
  92.2250012  63.8614997 134.6199988  91.3820012  64.1294997 134.9859988
  92.6670012  64.6834997 134.4089988  92.1694158  64.0093291 134.6415491
  76.5060012  62.3094997 138.0969988  77.4260012  62.1874997 138.3329988
  76.0570012  61.5594997 138.4859988  76.5711580  62.1913727 138.1819006
  94.5080012  57.8414997 139.9729988  94.8580012  57.1874997 139.3679988
  94.6550012  58.6784997 139.5329988  94.5757887  57.8651548 139.8306858
  92.1970012  59.8064997 126.4559988  92.3800012  59.3574997 127.2819988
  91.5980012  59.2214997 125.9929988  92.1410202  59.6659975 126.5063275
  77.7270012  60.6214997 130.9879988  78.1730012  59.8294997 131.2899988
  78.1940012  61.3374997 131.4179988  77.8510831  60.6100685 131.0874006
  76.0310012  63.6204997 132.0569988  76.5230012  63.3994997 131.2659988
  76.3940012  64.4614997 132.3379988  76.1473126  63.7038357 131.9867531
  94.0280012  59.9504997 138.3219988  93.1100012  60.2214997 138.2869988
  94.1510012  59.4154997 137.5379988  93.9189729  59.9152508 138.2111923
  94.0640012  59.8734997 122.9839988  94.4760012  59.1524997 122.5089988
  94.7460012  60.5434997 123.0429988  94.2125885  59.8652368 122.9268915
  76.3450012  59.8784997 126.1109988  75.4200012  60.0874997 125.9819988
  76.7990012  60.3624997 125.4209988  76.2797292  59.9725343 126.0000720
  91.1160012  74.8624997 128.0569988  91.7680012  74.5154997 127.4489988
  91.6260012  75.3514997 128.7029988  91.2742637  74.8810597 128.0610236
  76.3090012  58.6164997 134.4549988  75.6440012  58.3704997 135.0989988
  75.8660012  59.2384997 133.8779988  76.1581318  58.6669410 134.4650898
  78.5010012  71.7914997 138.5999988  77.6800012  71.9664997 138.1389988
  78.2480012  71.7184997 139.5199988  78.3545585  71.8055544 138.6613561
  81.4550012  72.7664997 134.8579988  81.0300012  73.5754997 134.5759988
  82.3590012  72.8514997 134.5559988  81.5189975  72.8889300 134.7784816
  85.7660012  74.1654997 137.8179988  85.9510012  73.8314997 138.6959988
  86.6120012  74.4744997 137.4959988  85.9057539  74.1616047 137.8945605
  88.1110012  75.4514997 137.0619988  88.7880012  74.8184997 136.8219988
  88.4330012  75.8524997 137.8689988  88.2471637  75.4191154 137.1382793
  93.0280012  58.0404997 136.1409988  92.2160012  58.3654997 135.7539988
  93.2610012  57.2804997 135.6079988  92.9482203  57.9822758 136.0158880
  78.8570012  76.0224997 134.9059988  78.1360012  76.4624997 134.4549988
  78.4910012  75.7714997 135.7539988  78.7089651  76.0487242 134.9589640
  81.3240012  75.6224997 133.9359988  80.4590012  75.6944997 134.3399988
  81.2690012  76.1694997 133.1519988  81.1982085  75.7062685 133.8853362
  86.0340012  75.5104997 133.1109988  85.5780012  76.0394997 132.4569988
  86.1970012  76.1134997 133.8359988  85.9936068  75.6644607 133.1194838
  88.3620012  74.3884997 134.0559988  87.4570012  74.5534997 133.7899988
  88.7910012  75.2414997 133.9909988  88.2961324  74.5264339 134.0107976
  90.9660012  75.9584997 134.3509988  90.7840012  76.8744997 134.1409988
  91.1430012  75.5484997 133.5049988  90.9650210  76.0284822 134.2077885
  78.2710012  74.6454997 131.8159988  78.2530012  74.2204997 132.6729988
  79.0760012  74.3274997 131.4069988  78.3773529  74.5443013 131.8780946
  80.4130012  73.3554997 130.4709988  80.1940012  72.4394997 130.6409988
  81.2370012  73.4954997 130.9369988  80.4944420  73.2490520 130.5572774
  82.9500012  73.8254997 131.3199988  83.1630012  72.9374997 131.0329988
  83.0140012  73.7914997 132.2739988  82.9878232  73.6993102 131.4097397
  86.4580012  59.4894997 130.4639988  85.7840012  58.8604997 130.7199988
  87.0220012  59.0054997 129.8609988  86.4419230  59.3378744 130.4175340
  91.6010012  57.5974997 130.5769988  92.2050012  58.1444997 130.0749988
  90.7310012  57.9164997 130.3359988  91.5661208  57.7155137 130.4756886
  93.3280012  58.7354997 128.9099988  93.9400012  58.2214997 128.3829988
  93.7100012  59.6134997 128.9329988  93.4633371  58.7837866 128.8410041
  78.7850012  58.1234997 128.2859988  78.0080012  57.8894997 127.7789988
  79.3150012  57.3264997 128.2949988  78.7502330  57.9836988 128.2177742
  77.6210012  57.9214997 124.0899988  78.0600012  58.5324997 123.4979988
  76.9880012  58.4594997 124.5639988  77.5954514  58.0779257 124.0730930
  83.3640012  58.0504997 128.0999988  84.2390012  58.4384997 128.0699988
  83.2280012  57.8354997 129.0219988  83.4653695  58.0745184 128.2206440
  88.9210012  58.0804997 129.7489988  88.9970012  58.1754997 128.7989988
  88.6460012  57.1724997 129.8779988  88.8942321  57.9707867 129.6365079
  90.2740012  58.1064997 125.4409988  89.5720012  58.7214997 125.2309988
  89.8300012  57.2684997 125.5719988  90.1176450  58.0775639 125.4299000
  77.5220012  73.8694997 124.9869988  76.8370012  73.8314997 124.3199988
  77.5260012  74.7824997 125.2759988  77.4286998  73.9876733 124.9346771
  79.4820012  59.8374997 122.5319988  79.9740012  59.2074997 122.0049988
  80.1060012  60.1334997 123.1949988  79.6335688  59.7913804 122.5495482
  84.5080012  60.1304997 124.9889988  84.6860012  59.4844997 125.6719988
  84.4550012  60.9644997 125.4559988  84.5251999  60.1548009 125.1455917
  86.3870012  75.0794997 123.3849988  87.2530012  75.4454997 123.2069988
  86.1400012  74.6394997 122.5709988  86.4722392  75.0701756 123.2506289
  93.0960012  74.6424997 126.0639988  92.9010012  73.8944997 125.4989988
  93.0570012  75.4004997 125.4809988  93.0640380  74.6426099 125.9078384
  78.7430012  58.6374997 137.8039988  78.3770012  57.8724997 138.2459988
  79.6560012  58.6664997 138.0899988  78.8162736  58.5365640 137.9032502
  80.7160012  57.9884997 139.3399988  81.6140012  57.7144997 139.1549988
  80.3290012  57.2454997 139.8039988  80.7866612  57.8505914 139.3773643
  79.3400012  74.7894997 122.0129988  79.0730012  75.0764997 122.8859988
  80.1120012  74.2434997 122.1649988  79.4077488  74.7550294 122.1531050
  89.1370012  57.3204997 139.5219988  89.2140012  56.8944997 140.3759988
  90.0310012  57.3344997 139.1789988  89.2683428  57.2640879 139.5925310
  92.3130012  73.3934997 138.2139988  91.5310012  73.2074997 137.6939988
  92.2410012  74.3224997 138.4319988  92.1962274  73.4936643 138.1723018
 106.7190012  67.2794997 128.2449988 106.8080012  68.2234997 128.1129988
 106.0810012  67.0044997 127.5869988 106.6449081  67.3714830 128.1379614
 105.6520012  66.5344997 131.6639988 105.6140012  65.8884997 132.3689988
 105.3300012  66.0684997 130.8929988 105.6032333  66.3829408 131.6562978
  98.0210012  66.1494997 133.2569988  98.0620012  65.5234997 133.9799988
  98.7240012  66.7734997 133.4389988  98.1216363  66.1481196 133.3806044
 109.3580012  69.4734997 129.9649988 108.9180012  68.7534997 130.4159988
 109.3450012  70.1944997 130.5949988 109.2960226  69.4723731 130.1118494
  98.9440012  70.5994997 131.7919988  98.5750012  69.7974997 131.4219988
  99.8850012  70.4304997 131.8379988  99.0207289  70.4670153 131.7476316
  95.5540012  64.2594997 127.1849988  95.1070012  65.1054997 127.1659988
  94.9930012  63.6794997 126.6689988  95.4169900  64.2969916 127.1126801
  96.2650012  66.4214997 129.3099988  96.4780012  65.6514997 129.8379988
  97.0030012  66.5104997 128.7069988  96.3939044  66.3281968 129.3007123
 106.4700012  74.5784997 130.1769988 107.0900012  73.9014997 129.9039988
 106.2620012  74.3604997 131.0859988 106.5266726  74.4564800 130.2624812
 104.0420012  68.9674997 132.0699988 104.3460012  68.2814997 131.4749988
 104.7630012  69.0854997 132.6879988 104.1810671  68.8896305 132.0721816
 112.7050012  60.5684997 132.9309988 112.7540012  61.1784997 133.6659988
 113.1300012  61.0294997 132.2079988 112.7691746  60.7143796 132.9339175
 107.1830012  63.3614997 132.3969988 107.3250012  62.4154997 132.4179988
 107.0760012  63.5684997 131.4689988 107.1879919  63.2598246 132.2743408
 100.3370012  61.4624997 129.6699988 100.3810012  62.3224997 129.2509988
  99.8800012  60.9104997 129.0359988 100.2812240  61.5054422 129.5269864
 108.0600012  61.5934997 128.0709988 108.7060012  61.2644997 128.6949988
 108.5700012  62.1114997 127.4479988 108.2174299  61.6184450 128.0722731
  96.9580012  63.8594997 130.4319988  97.6110012  63.3094997 130.8639988
  96.9820012  63.5854997 129.5149988  97.0506683  63.7471466 130.3672123
 102.1140012  65.4094997 129.6469988 102.7300012  64.8834997 130.1569988
 101.5280012  64.7694997 129.2439988 102.1190810  65.2509208 129.6623173
 113.0960012  62.0464997 135.1659988 112.4080012  62.7044997 135.0709988
 113.1120012  61.8494997 136.1029988 113.0039540  62.1099819 135.2795990
  99.1480012  60.3804997 133.7439988  98.9290012  60.9104997 132.9779988
  98.4800012  60.6074997 134.3909988  99.0277600  60.4836906 133.7266379
 106.5170012  69.8804997 127.2879988 106.2210012  69.5584997 126.4369988
 106.1920012  70.7804997 127.3289988 106.4326371  69.9580215 127.1771801
 101.7170012  68.0564997 134.0309988 100.9770012  68.6544997 134.1349988
 102.4310012  68.6104997 133.7159988 101.7122237  68.2132831 134.0026465
 109.8240012  60.8844997 130.0509988 109.6080012  60.1184997 130.5839988
 110.4790012  61.3564997 130.5639988 109.8830632  60.8435889 130.1932861
  98.7410012  62.2724997 131.6959988  99.3550012  62.9054997 132.0689988
  99.2530012  61.8004997 131.0399988  98.8941981  62.2952267 131.6582908
 100.1240012  70.0204997 134.8179988 100.1190012  70.9004997 134.4399988
  99.2710012  69.9374997 135.2429988 100.0079464  70.1296117 134.8237907
  96.2450012  69.6914997 125.5999988  95.9730012  69.9204997 124.7119988
  96.2910012  70.5294997 126.0609988  96.2139482  69.8361318 125.5406273
 109.8700012  71.3134997 132.3129988 108.9290012  71.3714997 132.4749988
 110.1470012  72.2194997 132.1759988 109.7784679  71.4439443 132.3166815
 110.1710012  59.5994997 133.7309988 109.4350012  60.2104997 133.6929988
 110.8540012  60.0144997 133.2039988 110.1626541  59.7391374 133.6545832
 103.1740012  57.6864997 131.1959988 103.0570012  56.7374997 131.1419988
 102.3190012  58.0184997 131.4699988 103.0424212  57.6015571 131.2256497
 108.1220012  73.0944997 128.9379988 108.5480012  72.3874997 128.4529988
 108.4390012  73.8954997 128.5219988 108.2231683  73.1061017 128.8153680
 109.2820012  70.9954997 127.4469988 109.0240012  70.3054997 126.8359988
 109.3530012  70.5524997 128.2929988 109.2562856  70.8412124 127.4776885
 110.9680012  69.5614997 135.9239988 111.1080012  68.9704997 135.1849988
 111.1350012  70.4344997 135.5679988 111.0097411  69.5985428 135.7746894
 105.4410012  66.5234997 125.6969988 104.7290012  67.0584997 125.3449988
 106.1320012  66.5794997 125.0369988 105.4370132  66.6042543 125.5596289
 105.4940012  64.9814997 122.7359988 106.1950012  65.0034997 123.3869988
 105.7970012  64.3534997 122.0789988 105.6308133  64.8997070 122.7363369
 112.8100012  65.9014997 133.9899988 112.1570012  66.5964997 134.0799988
 113.2750012  66.1114997 133.1809988 112.7835274  66.0250643 133.8928462
 108.8460012  66.7334997 126.6489988 108.1140012  66.9614997 127.2219988
 109.2940012  66.0194997 127.1029988 108.8062725  66.6682145 126.7888816
 108.7440012  64.9074997 135.7159988 108.8240012  65.6704997 136.2879988
 108.1420012  65.1864997 135.0259988 108.6735756  65.0497134 135.7010589
 100.4920012  67.3634997 128.5309988 100.1610012  66.9934997 127.7129988
 101.0800012  66.6934997 128.8779988 100.5261873  67.2221156 128.4658102
 101.8580012  70.7914997 131.2119988 101.7640012  70.2134997 130.4559988
 102.5880012  70.4204997 131.7089988 101.9437387  70.6621663 131.1755342
 100.8580012  66.1324997 132.1649988 101.4240012  66.2534997 131.4019988
 101.1770012  66.7694997 132.8029988 100.9785474  66.2352219 132.1469862
 107.1670012  71.6354997 132.8989988 106.9270012  72.2974997 133.5469988
 106.9690012  70.8014997 133.3239988 107.1073808  71.6133134 133.0451524
 101.7380012  70.5314997 136.8819988 101.4270012  71.3134997 137.3369988
 101.0880012  70.3784997 136.1959988 101.6075558  70.6179105 136.8515871
 107.7170012  65.8954997 124.3339988 108.2970012  66.0454997 125.0809988
 108.1310012  66.3664997 123.6099988 107.8522997  65.9796578 124.3384058
  98.6580012  66.7294997 136.1099988  98.7290012  67.3804997 136.8089988
  97.7680012  66.8324997 135.7749988  98.5473005  66.8325427 136.1603495
 105.4440012  72.6324997 127.7689988 105.9180012  72.9274997 128.5459988
 104.8810012  73.3704997 127.5359988 105.4328184  72.7727247 127.8439628
  99.9780012  72.6034997 137.6449988  99.9850012  72.4674997 136.6979988
  99.0620012  72.4854997 137.8969988  99.8551714  72.5689430 137.5494666
 111.4160012  57.6454997 124.1469988 110.5160012  57.7844997 124.4419988
 111.6680012  58.4764997 123.7449988 111.3268702  57.7769074 124.1330205
  99.4820012  66.4334997 126.1199988  99.1900012  67.2014997 125.6299988
  98.8080012  65.7734997 125.9579988  99.3508111  66.4495587 126.0308978
 112.6050012  72.0114997 122.5229988 112.6790012  72.9504997 122.6939988
 113.5110012  71.7064997 122.4669988 112.7375100  72.0986722 122.5388119
  95.5750012  68.7964997 134.9349988  95.0740012  68.7684997 134.1199988
  95.5800012  67.8904997 135.2449988  95.5070944  68.6702396 134.8653226
  95.3250012  71.5764997 131.8189988  96.2710012  71.4324997 131.7999988
  95.2130012  72.3604997 132.3559988  95.4392727  71.6628046 131.8890072
 113.5230012  72.2424997 137.5019988 113.4740012  71.2874997 137.4649988
 112.6960012  72.5104997 137.9029988 113.4044940  72.1478998 137.5511375
 104.5020012  71.8164997 136.3779988 104.5890012  72.6424997 136.8529988
 103.6380012  71.4864997 136.6269988 104.3971964  71.8849878 136.4766549
 104.9160012  75.5884997 126.1839988 104.8410012  75.4674997 125.2369988
 104.9490012  76.5384997 126.3019988 104.9102068  75.7002646 126.0704967
  98.5690012  74.3774997 127.9649988  98.7220012  74.0294997 128.8429988
  97.7190012  74.0214997 127.7099988  98.4749166  74.2816216 128.0508079
 108.0180012  74.7424997 123.1859988 108.3930012  73.9984997 122.7149988
 108.0220012  74.4724997 124.1049988 108.0699125  74.6040986 123.2456483
 107.6870012  74.6684997 125.9349988 106.7510012  74.7684997 126.1139988
 107.9670012  73.9594997 126.5139988 107.5969553  74.5863406 126.0377087
 110.6750012  63.7354997 137.9819988 110.2680012  64.2164997 137.2609988
 110.7160012  62.8304997 137.6739988 110.6248437  63.6789374 137.8416683
  97.8240012  70.1194997 135.9789988  98.0400012  69.7584997 136.8379988
  96.9690012  69.7454997 135.7689988  97.7379292  70.0194111 136.0683386
 100.4430012  58.5894997 131.9739988  99.5810012  58.5024997 131.5659988
 100.4200012  59.4454997 132.4019988 100.3220409  58.6932883 131.9760589
 105.1060012  58.3114997 135.3489988 105.5260012  57.8964997 136.1019988
 104.1730012  58.1334997 135.4659988 105.0373644  58.2305900 135.4679539
 108.4320012  62.0674997 136.2019988 107.9180012  61.9414997 136.9999988
 108.2770012  62.9794997 135.9579988 108.3406852  62.1736132 136.2782158
 109.1950012  66.9284997 121.9639988 109.2370012  66.7054997 121.0339988
 110.0440012  67.3274997 122.1529988 109.3155280  66.9519438 121.8623554
 104.7670012  60.8044997 122.6339988 104.5140012  60.8234997 123.5569988
 104.5110012  59.9324997 122.3319988 104.6977481  60.6892558 122.7196175
 100.5340012  63.5554997 133.0689988  99.8920012  63.5144997 133.7779988
 100.5710012  64.4814997 132.8309988 100.4510664  63.6751430 133.1339219
 100.5310012  63.7764997 127.9809988  99.6380012  63.4354997 127.9219988
 100.9810012  63.3994997 127.2249988 100.4698130  63.6789631 127.8707702
 106.0660012  64.1924997 126.7979988 105.6570012  65.0074997 126.5069988
 106.7870012  64.0524997 126.1839988 106.1074537  64.2852018 126.6751342
 105.1680012  64.3674997 138.2859988 104.6060012  63.6634997 138.6069988
 105.9950012  64.2474997 138.7539988 105.2027095  64.2547883 138.3932330
 107.0710012  63.6384997 129.6119988 106.8760012  64.2434997 128.8969988
 107.2520012  62.8044997 129.1779988 107.0687614  63.6086300 129.4554405
  98.2840012  63.8754997 134.9359988  98.2460012  64.2754997 135.8049988
  97.7930012  63.0584997 135.0269988  98.2124684  63.8198069 135.0671059
 101.6500012  61.2494997 121.7349988 101.2190012  60.8044997 122.4649988
 100.9320012  61.6214997 121.2229988 101.4939438  61.2388940 121.7656799
  94.8920012  60.9914997 128.7869988  95.5230012  60.9624997 129.5059988
  95.3410012  60.5664997 128.0559988  95.0390918  60.9300836 128.7866441
  96.1660012  61.7374997 124.2109988  96.6400012  62.3284997 123.6259988
  95.4490012  62.2684997 124.5579988  96.1339341  61.8900867 124.1778836
 106.3350012  65.2764997 134.2829988 106.6580012  64.6454997 133.6399988
 105.8950012  64.7414997 134.9439988 106.3197484  65.1178387 134.2843198
 103.1120012  61.2034997 129.0669988 102.2010012  61.2604997 129.3559988
 103.6180012  61.1434997 129.8779988 103.0556899  61.2031941 129.2161184
  97.9410012  62.8324997 127.8939988  97.0510012  62.9324997 127.5539988
  98.2370012  61.9904997 127.5479988  97.8592823  62.7323545 127.8007213
 101.5940012  62.8324997 125.5509988 102.5250012  62.9614997 125.7289988
 101.3790012  63.5024997 124.9009988 101.6924247  62.9406565 125.4875747
 107.5170012  60.4384997 132.3319988 106.8410012  60.5694997 132.9959988
 107.0320012  60.2834997 131.5209988 107.3587146  60.4355157 132.3134469
 100.2680012  64.0274997 123.1169988  99.7250012  63.6474997 122.4259988
 101.1010012  64.2214997 122.6889988 100.3063631  64.0017125 122.9644501
 110.8050012  76.1104997 138.6079988 111.0050012  76.5344997 137.7739988
 111.4600012  76.4534997 139.2149988 110.9210072  76.2149857 138.5758592
  98.4030012  68.5844997 138.2159988  99.1350012  68.8384997 138.7779988
  97.6230012  68.7884997 138.7319988  98.3977073  68.6468160 138.3626151
 104.4320012  63.9914997 130.9539988 104.9970012  63.4444997 130.4069988
 104.2850012  63.4694997 131.7429988 104.4893380  63.8462259 130.9858695
  99.4340012  60.1274997 127.3729988  99.1170012  59.2254997 127.3369988
 100.2160012  60.1294997 126.8199988  99.4962408  60.0042474 127.2933569
 103.0590012  62.3794997 133.3679988 102.2230012  62.8334997 133.4789988
 103.5830012  62.6554997 134.1199988 103.0155416  62.4788660 133.4848119
 103.6030012  68.5924997 125.0529988 102.8580012  68.0854997 124.7309988
 103.4690012  68.6414997 125.9999988 103.4828776  68.5296940 125.1368647
 110.7530012  67.7254997 133.8399988 111.3950012  68.1824997 133.2959988
 109.9230012  67.8384997 133.3769988 110.7285963  67.8032704 133.7030177
 107.5010012  61.4064997 123.2519988 106.5620012  61.5184997 123.1009988
 107.7980012  62.2634997 123.5589988 107.4127583  61.5375981 123.2728337
 105.1220012  68.7764997 136.2899988 104.7770012  68.3954997 137.0969988
 104.9220012  69.7104997 136.3609988 105.0477527  68.8505135 136.4100689
 108.2190012  63.2734997 124.9129988 109.1110012  63.1364997 125.2319988
 108.2760012  64.0644997 124.3759988 108.3486504  63.3616052 124.8840818
  98.7280012  67.8874997 130.8229988  99.4730012  67.8854997 130.2219988
  98.8060012  67.0644997 131.3039988  98.8404995  67.7758887 130.8058282
 105.7290012  70.0514997 124.0789988 105.4330012  70.8774997 124.4599988
 105.0260012  69.4314997 124.2749988 105.5934914  70.0808199 124.1576443
  95.7360012  66.3484997 136.1379988  95.9590012  65.9304997 136.9699988
  95.1340012  65.7354997 135.7149988  95.6851759  66.2084668 136.1947022
 102.7520012  65.8654997 138.3509988 102.4560012  65.6994997 137.4559988
 103.6840012  65.6454997 138.3399988 102.8374166  65.8130640 138.2270536
 107.3730012  71.2384997 136.2409988 106.4720012  71.4214997 135.9729988
 107.4070012  71.4974997 137.1609988 107.2543139  71.2985849 136.3288099
 113.1040012  63.4834997 124.6079988 112.5500012  63.0874997 123.9359988
 113.2040012  64.3934997 124.3299988 113.0417059  63.5523586 124.4784401
 113.0670012  69.2834997 137.4449988 112.2160012  69.5214997 137.0779988
 113.6580012  69.2664997 136.6919988 113.0302487  69.3138258 137.2928893
 111.3990012  72.2694997 125.0729988 111.0260012  71.4434997 125.3819988
 111.6770012  72.0864997 124.1749988 111.3855222  72.1317430 124.9939473
 108.5600012  67.0774997 132.0939988 107.6310012  66.8454997 132.0669988
 109.0110012  66.3004997 131.7639988 108.4939216  66.9407238 132.0456917
 101.1030012  71.4054997 128.2269988 101.6300012  72.1784997 128.0269988
 100.2230012  71.6304997 127.9249988 101.0562031  71.5417545 128.1587912
  96.8580012  66.2674997 122.8139988  97.4740012  66.8944997 123.1939988
  95.9960012  66.5834997 123.0859988  96.8257698  66.3959430 122.9027183
 102.5300012  69.0684997 127.8029988 102.2890012  69.9934997 127.8449988
 101.7890012  68.6094997 128.1999988 102.3969225  69.1330933 127.8623742
 103.0450012  73.2174997 134.1189988 103.4070012  74.0724997 133.8849988
 103.5760012  72.9254997 134.8589988 103.1664473  73.2951060 134.1870855
 101.2130012  74.0904997 127.3489988 100.2630012  74.1954997 127.3999988
 101.5650012  74.9104997 127.6929988 101.1304195  74.2158800 127.4025502
 106.5890012  69.3164997 133.8189988 106.1630012  69.0894997 134.6459988
 107.1690012  68.5784997 133.6369988 106.6091868  69.1855299 133.9075830
 108.7920012  70.2454997 122.8929988 109.1450012  69.8654997 123.6969988
 107.8430012  70.1524997 122.9799988 108.7120918  70.1808956 123.0148532
 109.2470012  73.8684997 136.2889988 108.6460012  73.3134997 135.7929988
 109.5290012  74.5354997 135.6619988 109.2028804  73.8826625 136.1364849
 113.2950012  74.7254997 123.0939988 114.0390012  75.3114997 122.9539988
 112.6010012  75.2934997 123.4269988 113.3029899  74.8825798 123.1198778
  97.3700012  61.1014997 135.6959988  96.4770012  61.4404997 135.6279988
  97.2710012  60.2464997 136.1139988  97.2344164  61.0322588 135.7432235
 109.6580012  68.9184997 125.1199988 109.3800012  68.1904997 125.6759988
 110.5850012  69.0374997 125.3249988 109.7453124  68.8348802 125.2238845
  97.0210012  72.9064997 134.1309988  97.2380012  71.9744997 134.0999988
  97.2670012  73.1804997 135.0139988  97.0839549  72.8160636 134.2461763
 102.8830012  71.3574997 121.3399988 103.1220012  70.6094997 120.7929988
 102.6140012  70.9694997 122.1729988 102.8793675  71.2026638 121.3776865
 101.8200012  70.9274997 123.7959988 101.9660012  70.4074997 124.5859988
 101.8170012  71.8344997 124.1029988 101.8395792  70.9788842 123.9456117
  98.2730012  68.1804997 124.3069988  97.5870012  68.5324997 124.8739988
  98.7950012  68.9434997 124.0599988  98.2496852  68.3318578 124.3512118
 106.1040012  60.8424997 134.5859988 106.8030012  60.9164997 135.2359988
 105.7230012  59.9784997 134.7399988 106.1481767  60.7357624 134.6958322
 106.8890012  60.4944997 125.6829988 107.1090012  60.9664997 124.8799988
 107.4470012  60.8894997 126.3529988 106.9944968  60.6124285 125.6637331
 104.5570012  72.6254997 124.5459988 103.7410012  73.1224997 124.5979988
 105.0870012  73.1004997 123.9059988 104.5169161  72.7577722 124.4665956
 104.0890012  62.2224997 126.5179988 104.9010012  62.7274997 126.5639988
 103.8440012  62.0774997 127.4319988 104.1670520  62.2720375 126.6478517
 104.6240012  63.2084997 135.7019988 104.7430012  63.7824997 136.4599988
 105.2800012  62.5204997 135.8169988 104.7289025  63.1939858 135.8211321
 104.9720012  59.3034997 127.4559988 104.6260012  59.9214997 128.0999988
 105.6310012  59.8044997 126.9739988 105.0136968  59.4556278 127.4789383
 101.8960012  73.6694997 124.5269988 102.0560012  74.4684997 124.0269988
 101.6980012  73.9754997 125.4119988 101.8911637  73.8204020 124.5781144
 100.6300012  60.3664997 124.1429988 100.5470012  61.2554997 124.4899988
 101.5200012  60.1014997 124.3749988 100.7389469  60.4521430 124.2217626
 110.8290012  61.1154997 136.5369988 109.9120012  61.3784997 136.4499988
 111.1640012  61.1124997 135.6409988 110.7488613  61.1510761 136.4038837
 109.4310012  64.8664997 130.6329988 108.6330012  64.4514997 130.3049988
 109.8760012  64.1754997 131.1239988 109.3819885  64.7163543 130.6544889
  98.8890012  70.7944997 123.2039988  99.4810012  71.4934997 123.4799988
  99.3480012  70.3614997 122.4839988  99.0321142  70.8317049 123.1444830
  97.2050012  63.4584997 122.3199988  97.1600012  64.3974997 122.4979988
  96.3170012  63.2224997 122.0499988  97.0788574  63.5551892 122.3078912
 110.5170012  74.1224997 132.2559988 110.3620012  74.8004997 131.5979988
 111.4500012  74.1944997 132.4589988 110.6218657  74.2249546 132.1934360
  98.0130012  58.2404997 130.9929988  97.7840012  58.2994997 130.0649988
  97.5700012  57.4484997 131.2989988  97.9218530  58.1415753 130.9074786
  96.9430012  72.1804997 127.1529988  96.1110012  72.6534997 127.1799988
  97.4890012  72.6904997 126.5549988  96.9030352  72.3141332 127.0758463
  96.2310012  74.7934997 138.4829988  96.7720012  74.5764997 139.2429988
  95.7500012  73.9874997 138.2929988  96.2399951  74.6549270 138.5612576
 100.8290012  73.7124997 140.1029988 101.5960012  73.2534997 140.4439988
 100.8070012  73.4864997 139.1739988 100.9311275  73.6190186 140.0240101
 104.9210012  73.2204997 121.4789988 104.2770012  72.5894997 121.7999988
 105.6830012  72.6894997 121.2469988 104.9358077  73.0622920 121.4916011
 107.4060012  72.0924997 138.8329988 107.0550012  71.2364997 139.0759988
 108.1320012  72.2354997 139.4399988 107.4560769  71.9945636 138.9483619
 109.5250012  73.0374997 121.7119988 109.8080012  72.2434997 122.1649988
 110.2650012  73.2704997 121.1519988 109.6638006  72.9603376 121.6982715
  96.1380012  68.6034997 139.4369988  96.2820012  67.7014997 139.1509988
  95.3660012  68.8894997 138.9499988  96.0532753  68.5186816 139.3319505
 100.4800012  68.9474997 121.5699988 100.5440012  68.1534997 122.1009988
 101.1330012  68.8284997 120.8799988 100.5770241  68.8227148 121.5494317
 102.7940012  68.5734997 138.8699988 102.4650012  68.8444997 138.0129988
 102.9460012  67.6324997 138.7829988 102.7694809  68.4833862 138.7408244
 105.8320012  69.9944997 121.3059988 105.5630012  70.1744997 122.2069988
 105.6260012  69.0684997 121.1739988 105.7673427  69.8940261 121.4115073
 108.5280012  68.4894997 136.2529988 109.2740012  69.0774997 136.1339988
 107.7710012  69.0714997 136.3169988 108.5277820  68.6487143 136.2453590
  96.9710012  65.8034997 138.8569988  97.3790012  64.9464997 138.7359988
  96.7110012  65.8184997 139.7779988  96.9917568  65.6880807 138.9649588
 101.6290012  66.9194997 123.8759988 101.1690012  66.4354997 124.5619988
 101.8840012  66.2514997 123.2399988 101.6004902  66.7628731 123.8839334
 100.9180012  64.8124997 136.2319988 100.3000012  65.4874997 136.5119988
 101.2620012  65.1334997 135.3979988 100.8799132  64.9482411 136.1576262
 102.7000012  65.1624997 122.1379988 102.5200012  65.0084997 121.2109988
 103.6500012  65.2704997 122.1829988 102.8037776  65.1560175 122.0171843
 105.9380012  67.2844997 139.5089988 106.8910012  67.3674997 139.4819988
 105.7770012  66.5724997 140.1289988 106.0466426  67.1996746 139.5890579
 112.0900012  67.5174997 121.5839988 111.8160012  67.0924997 120.7709988
 112.1290012  68.4484997 121.3669988 112.0577699  67.5852484 121.4433610
 101.2570012  62.1674997 137.3139988 101.4070012  61.4384997 136.7119988
 101.2600012  62.9444997 136.7549988 101.2779302  62.1727851 137.1560692
 101.6700012  60.5374997 134.8069988 102.2060012  60.9884997 134.1549988
 100.8180012  60.4294997 134.3839988 101.6282178  60.5846390 134.6605756
 103.2520012  65.9764997 135.0459988 104.0020012  65.8204997 134.4729988
 102.9130012  66.8284997 134.7709988 103.3088921  66.0702968 134.9303561
 107.6670012  63.7914997 140.0749988 107.8600012  62.8604997 139.9629988
 108.5250012  64.2164997 140.0639988 107.8092934  63.7216531 140.0582031
 108.9840012  66.5804997 138.1519988 108.7030012  67.2894997 137.5739988
 109.9270012  66.5074997 138.0009988 109.0729291  66.6676711 138.0524967
  99.7360012  63.3654997 139.2259988  98.9690012  62.8334997 139.0149988
 100.4150012  63.0554997 138.6259988  99.7227877  63.2508300 139.1160716
 102.4760012  57.9934997 135.2379988 102.3770012  58.9404997 135.1329988
 101.7330012  57.6214997 134.7619988 102.3621184  58.0725863 135.1593621
 103.7400012  62.3154997 138.8019988 103.5040012  62.0954997 139.7029988
 102.9560012  62.1084997 138.2919988 103.6018504  62.2574586 138.8563431
 106.4550012  61.4424997 137.8769988 105.5080012  61.4744997 138.0099988
 106.7680012  60.8174997 138.5309988 106.3676707  61.3623998 137.9836060
 108.0890012  60.0764997 139.8829988 107.9930012  59.1244997 139.8769988
 107.7680012  60.3454997 140.7429988 108.0324070  59.9824035 139.9985441
  97.9160012  61.2864997 138.9299988  98.1280012  60.5794997 138.3199988
  97.8050012  60.8484997 139.7739988  97.9299721  61.1307084 138.9606843
 102.6970012  57.2874997 137.9089988 103.4090012  56.6474997 137.8949988
 102.5960012  57.5544997 136.9959988 102.7808066  57.2360079 137.7835677
 103.0510012  58.9704997 139.9629988 102.9190012  58.4944997 139.1429988
 102.4520012  59.7144997 139.9079988 102.9519071  59.0059618 139.8432886
 102.5970012  75.8534997 123.1389988 103.5300012  76.0114997 123.2829988
 102.3330012  76.5284997 122.5149988 102.6889888  75.9664510 123.0742842
  96.1660012  70.4894997 122.6219988  97.0800012  70.5684997 122.8959988
  96.1730012  69.8024997 121.9559988  96.2921131  70.4073961 122.5694393
  94.8150012  75.8824997 127.6999988  94.1680012  75.4204997 127.1669988
  95.1690012  75.2104997 128.2819988  94.7743849  75.7284723 127.7057959
  95.6850012  73.9634997 129.5039988  95.3500012  73.0834997 129.6759988
  95.9070012  74.3084997 130.3689988  95.6691783  73.8897500 129.6444208
 113.2330012  74.7724997 132.4849988 113.2120012  74.9574997 133.4239988
 113.9240012  75.3414997 132.1439988 113.3234618  74.8746606 132.5673864
 112.7970012  74.3404997 135.4069988 112.3090012  73.6044997 135.0349988
 113.3460012  73.9464997 136.0849988 112.8044820  74.1865889 135.4477813
 111.2470012  70.1294997 140.0449988 110.3810012  70.0244997 140.4389988
 111.6240012  70.8884997 140.4909988 111.1793308  70.2176900 140.1592393
 112.5480012  68.3864997 125.5589988 113.3980012  68.8074997 125.6859988
 112.5540012  67.6464997 126.1659988 112.6651372  68.3440803 125.6584344
 112.9430012  66.4394997 127.3819988 112.2160012  65.9604997 127.7799988
 113.5240012  66.6454997 128.1149988 112.9220473  66.4018103 127.5354528
 112.7020012  69.2244997 132.3299988 113.5350012  68.8464997 132.0499988
 112.8140012  70.1674997 132.2109988 112.8312647  69.3002218 132.2755487
 111.1880012  72.1024997 134.6369988 110.5410012  72.4274997 135.2629988
 110.6710012  71.6624997 133.9629988 111.0294029  72.0875004 134.6315827
 113.2110012  66.3404997 123.7739988 112.6890012  66.6974997 123.0549988
 113.1780012  67.0154997 124.4519988 113.1351634  66.4805413 123.7673145
 111.5600012  63.5804997 122.3239988 111.6560012  64.2474997 121.6439988
 111.4200012  62.7644997 121.8429988 111.5542272  63.5615655 122.1658347
 110.7290012  64.9604997 127.9449988 110.5790012  64.0154997 127.9249988
 110.3760012  65.2414997 128.7889988 110.6607448  64.8691481 128.0563705
  95.7650012  67.0384997 131.9559988  95.9490012  66.9564997 131.0199988
  96.6140012  66.9144997 132.3789988  95.9050151  67.0105073 131.8851451
 111.5860012  66.9304997 137.5839988 112.1690012  66.1964997 137.7759988
 112.1500012  67.7024997 137.6309988 111.7419769  66.9344227 137.6166159
 113.0820012  64.8334997 138.2689988 112.2190012  64.4544997 138.1029988
 113.6870012  64.0944997 138.1939988 113.0456119  64.6818268 138.2361528
 110.8070012  60.9884997 121.4419988 111.4180012  60.6174997 122.0789988
 109.9710012  60.5674997 121.6379988 110.7775032  60.8807554 121.5557035
 110.4400012  62.5434997 126.4079988 110.7200012  61.6364997 126.5319988
 111.1990012  62.9774997 126.0189988 110.5809277  62.4780942 126.3723682
 111.0520012  63.1244997 131.8439988 111.9850012  63.3364997 131.8089988
 110.8170012  63.2264997 132.7659988 111.1479244  63.1673100 131.9638892
 111.0810012  63.8614997 134.6199988 110.2380012  64.1294997 134.9859988
 111.5230012  64.6834997 134.4089988 111.0254158  64.0093291 134.6415491
  95.3620012  62.3094997 138.0969988  96.2820012  62.1874997 138.3329988
  94.9130012  61.5594997 138.4859988  95.4271580  62.1913727 138.1819006
 113.3640012  57.8414997 139.9729988 113.7140012  57.1874997 139.3679988
 113.5110012  58.6784997 139.5329988 113.4317887  57.8651548 139.8306858
 111.0530012  59.8064997 126.4559988 111.2360012  59.3574997 127.2819988
 110.4540012  59.2214997 125.9929988 110.9970202  59.6659975 126.5063275
  96.5830012  60.6214997 130.9879988  97.0290012  59.8294997 131.2899988
  97.0500012  61.3374997 131.4179988  96.7070831  60.6100685 131.0874006
  94.8870012  63.6204997 132.0569988  95.3790012  63.3994997 131.2659988
  95.2500012  64.4614997 132.3379988  95.0033126  63.7038357 131.9867531
 112.8840012  59.9504997 138.3219988 111.9660012  60.2214997 138.2869988
 113.0070012  59.4154997 137.5379988 112.7749729  59.9152508 138.2111923
 112.9200012  59.8734997 122.9839988 113.3320012  59.1524997 122.5089988
 113.6020012  60.5434997 123.0429988 113.0685885  59.8652368 122.9268915
  95.2010012  59.8784997 126.1109988  94.2760012  60.0874997 125.9819988
  95.6550012  60.3624997 125.4209988  95.1357292  59.9725343 126.0000720
 109.9720012  74.8624997 128.0569988 110.6240012  74.5154997 127.4489988
 110.4820012  75.3514997 128.7029988 110.1302637  74.8810597 128.0610236
  95.1650012  58.6164997 134.4549988  94.5000012  58.3704997 135.0989988
  94.7220012  59.2384997 133.8779988  95.0141318  58.6669410 134.4650898
  97.3570012  71.7914997 138.5999988  96.5360012  71.9664997 138.1389988
  97.1040012  71.7184997 139.5199988  97.2105585  71.8055544 138.6613561
 100.3110012  72.7664997 134.8579988  99.8860012  73.5754997 134.5759988
 101.2150012  72.8514997 134.5559988 100.3749975  72.8889300 134.7784816
 104.6220012  74.1654997 137.8179988 104.8070012  73.8314997 138.6959988
 105.4680012  74.4744997 137.4959988 104.7617539  74.1616047 137.8945605
 106.9670012  75.4514997 137.0619988 107.6440012  74.8184997 136.8219988
 107.2890012  75.8524997 137.8689988 107.1031637  75.4191154 137.1382793
 111.8840012  58.0404997 136.1409988 111.0720012  58.3654997 135.7539988
 112.1170012  57.2804997 135.6079988 111.8042203  57.9822758 136.0158880
  97.7130012  76.0224997 134.9059988  96.9920012  76.4624997 134.4549988
  97.3470012  75.7714997 135.7539988  97.5649651  76.0487242 134.9589640
 100.1800012  75.6224997 133.9359988  99.3150012  75.6944997 134.3399988
 100.1250012  76.1694997 133.1519988 100.0542085  75.7062685 133.8853362
 104.8900012  75.5104997 133.1109988 104.4340012  76.0394997 132.4569988
 105.0530012  76.1134997 133.8359988 104.8496068  75.6644607 133.1194838
 107.2180012  74.3884997 134.0559988 106.3130012  74.5534997 133.7899988
 107.6470012  75.2414997 133.9909988 107.1521324  74.5264339 134.0107976
 109.8220012  75.9584997 134.3509988 109.6400012  76.8744997 134.1409988
 109.9990012  75.5484997 133.5049988 109.8210210  76.0284822 134.2077885
  97.1270012  74.6454997 131.8159988  97.1090012  74.2204997 132.6729988
  97.9320012  74.3274997 131.4069988  97.2333529  74.5443013 131.8780946
  99.2690012  73.3554997 130.4709988  99.0500012  72.4394997 130.6409988
 100.0930012  73.4954997 130.9369988  99.3504420  73.2490520 130.5572774
 101.8060012  73.8254997 131.3199988 102.0190012  72.9374997 131.0329988
 101.8700012  73.7914997 132.2739988 101.8438232  73.6993102 131.4097397
 105.3140012  59.4894997 130.4639988 104.6400012  58.8604997 130.7199988
 105.8780012  59.0054997 129.8609988 105.2979230  59.3378744 130.4175340
 110.4570012  57.5974997 130.5769988 111.0610012  58.1444997 130.0749988
 109.5870012  57.9164997 130.3359988 110.4221208  57.7155137 130.4756886
 112.1840012  58.7354997 128.9099988 112.7960012  58.2214997 128.3829988
 112.5660012  59.6134997 128.9329988 112.3193371  58.7837866 128.8410041
  97.6410012  58.1234997 128.2859988  96.8640012  57.8894997 127.7789988
  98.1710012  57.3264997 128.2949988  97.6062330  57.9836988 128.2177742
  96.4770012  57.9214997 124.0899988  96.9160012  58.5324997 123.4979988
  95.8440012  58.4594997 124.5639988  96.4514514  58.0779257 124.0730930
 102.2200012  58.0504997 128.0999988 103.0950012  58.4384997 128.0699988
 102.0840012  57.8354997 129.0219988 102.3213695  58.0745184 128.2206440
 107.7770012  58.0804997 129.7489988 107.8530012  58.1754997 128.7989988
 107.5020012  57.1724997 129.8779988 107.7502321  57.9707867 129.6365079
 109.1300012  58.1064997 125.4409988 108.4280012  58.7214997 125.2309988
 108.6860012  57.2684997 125.5719988 108.9736450  58.0775639 125.4299000
  96.3780012  73.8694997 124.9869988  95.6930012  73.8314997 124.3199988
  96.3820012  74.7824997 125.2759988  96.2846998  73.9876733 124.9346771
  98.3380012  59.8374997 122.5319988  98.8300012  59.2074997 122.0049988
  98.9620012  60.1334997 123.1949988  98.4895688  59.7913804 122.5495482
 103.3640012  60.1304997 124.9889988 103.5420012  59.4844997 125.6719988
 103.3110012  60.9644997 125.4559988 103.3811999  60.1548009 125.1455917
 105.2430012  75.0794997 123.3849988 106.1090012  75.4454997 123.2069988
 104.9960012  74.6394997 122.5709988 105.3282392  75.0701756 123.2506289
 111.9520012  74.6424997 126.0639988 111.7570012  73.8944997 125.4989988
 111.9130012  75.4004997 125.4809988 111.9200380  74.6426099 125.9078384
  97.5990012  58.6374997 137.8039988  97.2330012  57.8724997 138.2459988
  98.5120012  58.6664997 138.0899988  97.6722736  58.5365640 137.9032502
  99.5720012  57.9884997 139.3399988 100.4700012  57.7144997 139.1549988
  99.1850012  57.2454997 139.8039988  99.6426612  57.8505914 139.3773643
  98.1960012  74.7894997 122.0129988  97.9290012  75.0764997 122.8859988
  98.9680012  74.2434997 122.1649988  98.2637488  74.7550294 122.1531050
 107.9930012  57.3204997 139.5219988 108.0700012  56.8944997 140.3759988
 108.8870012  57.3344997 139.1789988 108.1243428  57.2640879 139.5925310
 111.1690012  73.3934997 138.2139988 110.3870012  73.2074997 137.6939988
 111.0970012  74.3224997 138.4319988 111.0522274  73.4936643 138.1723018
 125.5750012  67.2794997 128.2449988 125.6640012  68.2234997 128.1129988
 124.9370012  67.0044997 127.5869988 125.5009081  67.3714830 128.1379614
 124.5080012  66.5344997 131.6639988 124.4700012  65.8884997 132.3689988
 124.1860012  66.0684997 130.8929988 124.4592333  66.3829408 131.6562978
 116.8770012  66.1494997 133.2569988 116.9180012  65.5234997 133.9799988
 117.5800012  66.7734997 133.4389988 116.9776363  66.1481196 133.3806044
 128.2140012  69.4734997 129.9649988 127.7740012  68.7534997 130.4159988
 128.2010012  70.1944997 130.5949988 128.1520226  69.4723731 130.1118494
 117.8000012  70.5994997 131.7919988 117.4310012  69.7974997 131.4219988
 118.7410012  70.4304997 131.8379988 117.8767289  70.4670153 131.7476316
 114.4100012  64.2594997 127.1849988 113.9630012  65.1054997 127.1659988
 113.8490012  63.6794997 126.6689988 114.2729900  64.2969916 127.1126801
 115.1210012  66.4214997 129.3099988 115.3340012  65.6514997 129.8379988
 115.8590012  66.5104997 128.7069988 115.2499044  66.3281968 129.3007123
 125.3260012  74.5784997 130.1769988 125.9460012  73.9014997 129.9039988
 125.1180012  74.3604997 131.0859988 125.3826726  74.4564800 130.2624812
 122.8980012  68.9674997 132.0699988 123.2020012  68.2814997 131.4749988
 123.6190012  69.0854997 132.6879988 123.0370671  68.8896304 132.0721816
 131.5610012  60.5684997 132.9309988 131.6100012  61.1784997 133.6659988
 131.9860012  61.0294997 132.2079988 131.6251746  60.7143796 132.9339175
 126.0390012  63.3614997 132.3969988 126.1810012  62.4154997 132.4179988
 125.9320012  63.5684997 131.4689988 126.0439919  63.2598246 132.2743408
 119.1930012  61.4624997 129.6699988 119.2370012  62.3224997 129.2509988
 118.7360012  60.9104997 129.0359988 119.1372240  61.5054422 129.5269864
 126.9160012  61.5934997 128.0709988 127.5620012  61.2644997 128.6949988
 127.4260012  62.1114997 127.4479988 127.0734299  61.6184450 128.0722731
 115.8140012  63.8594997 130.4319988 116.4670012  63.3094997 130.8639988
 115.8380012  63.5854997 129.5149988 115.9066683  63.7471466 130.3672123
 120.9700012  65.4094997 129.6469988 121.5860012  64.8834997 130.1569988
 120.3840012  64.7694997 129.2439988 120.9750810  65.2509208 129.6623173
 131.9520012  62.0464997 135.1659988 131.2640012  62.7044997 135.0709988
 131.9680012  61.8494997 136.1029988 131.8599540  62.1099819 135.2795990
 118.0040012  60.3804997 133.7439988 117.7850012  60.9104997 132.9779988
 117.3360012  60.6074997 134.3909988 117.8837600  60.4836906 133.7266379
 125.3730012  69.8804997 127.2879988 125.0770012  69.5584997 126.4369988
 125.0480012  70.7804997 127.3289988 125.2886371  69.9580215 127.1771801
 120.5730012  68.0564997 134.0309988 119.8330012  68.6544997 134.1349988
 121.2870012  68.6104997 133.7159988 120.5682237  68.2132831 134.0026465
 128.6800012  60.8844997 130.0509988 128.4640012  60.1184997 130.5839988
 129.3350012  61.3564997 130.5639988 128.7390632  60.8435889 130.1932861
 117.5970012  62.2724997 131.6959988 118.2110012  62.9054997 132.0689988
 118.1090012  61.8004997 131.0399988 117.7501981  62.2952267 131.6582908
 118.9800012  70.0204997 134.8179988 118.9750012  70.9004997 134.4399988
 118.1270012  69.9374997 135.2429988 118.8639464  70.1296117 134.8237907
 115.1010012  69.6914997 125.5999988 114.8290012  69.9204997 124.7119988
 115.1470012  70.5294997 126.0609988 115.0699482  69.8361318 125.5406273
 128.7260012  71.3134997 132.3129988 127.7850012  71.3714997 132.4749988
 129.0030012  72.2194997 132.1759988 128.6344679  71.4439443 132.3166815
 129.0270012  59.5994997 133.7309988 128.2910012  60.2104997 133.6929988
 129.7100012  60.0144997 133.2039988 129.0186541  59.7391374 133.6545832
 122.0300012  57.6864997 131.1959988 121.9130012  56.7374997 131.1419988
 121.1750012  58.0184997 131.4699988 121.8984212  57.6015571 131.2256497
 126.9780012  73.0944997 128.9379988 127.4040012  72.3874997 128.4529988
 127.2950012  73.8954997 128.5219988 127.0791683  73.1061017 128.8153680
 128.1380012  70.9954997 127.4469988 127.8800012  70.3054997 126.8359988
 128.2090012  70.5524997 128.2929988 128.1122856  70.8412124 127.4776885
 129.8240012  69.5614997 135.9239988 129.9640012  68.9704997 135.1849988
 129.9910012  70.4344997 135.5679988 129.8657411  69.5985428 135.7746894
 124.2970012  66.5234997 125.6969988 123.5850012  67.0584997 125.3449988
 124.9880012  66.5794997 125.0369988 124.2930132  66.6042543 125.5596289
 124.3500012  64.9814997 122.7359988 125.0510012  65.0034997 123.3869988
 124.6530012  64.3534997 122.0789988 124.4868133  64.8997070 122.7363369
 131.6660012  65.9014997 133.9899988 131.0130012  66.5964997 134.0799988
 132.1310012  66.1114997 133.1809988 131.6395274  66.0250643 133.8928462
 127.7020012  66.7334997 126.6489988 126.9700012  66.9614997 127.2219988
 128.1500012  66.0194997 127.1029988 127.6622725  66.6682145 126.7888816
 127.6000012  64.9074997 135.7159988 127.6800012  65.6704997 136.2879988
 126.9980012  65.1864997 135.0259988 127.5295756  65.0497134 135.7010589
 119.3480012  67.3634997 128.5309988 119.0170012  66.9934997 127.7129988
 119.9360012  66.6934997 128.8779988 119.3821873  67.2221156 128.4658102
 120.7140012  70.7914997 131.2119988 120.6200012  70.2134997 130.4559988
 121.4440012  70.4204997 131.7089988 120.7997386  70.6621663 131.1755342
 119.7140012  66.1324997 132.1649988 120.2800012  66.2534997 131.4019988
 120.0330012  66.7694997 132.8029988 119.8345474  66.2352219 132.1469862
 126.0230012  71.6354997 132.8989988 125.7830012  72.2974997 133.5469988
 125.8250012  70.8014997 133.3239988 125.9633808  71.6133134 133.0451524
 120.5940012  70.5314997 136.8819988 120.2830012  71.3134997 137.3369988
 119.9440012  70.3784997 136.1959988 120.4635558  70.6179105 136.8515871
 126.5730012  65.8954997 124.3339988 127.1530012  66.0454997 125.0809988
 126.9870012  66.3664997 123.6099988 126.7082997  65.9796578 124.3384058
 117.5140012  66.7294997 136.1099988 117.5850012  67.3804997 136.8089988
 116.6240012  66.8324997 135.7749988 117.4033005  66.8325427 136.1603495
 124.3000012  72.6324997 127.7689988 124.7740012  72.9274997 128.5459988
 123.7370012  73.3704997 127.5359988 124.2888184  72.7727247 127.8439628
 118.8340012  72.6034997 137.6449988 118.8410012  72.4674997 136.6979988
 117.9180012  72.4854997 137.8969988 118.7111714  72.5689430 137.5494666
 130.2720012  57.6454997 124.1469988 129.3720012  57.7844997 124.4419988
 130.5240012  58.4764997 123.7449988 130.1828702  57.7769074 124.1330205
 118.3380012  66.4334997 126.1199988 118.0460012  67.2014997 125.6299988
 117.6640012  65.7734997 125.9579988 118.2068111  66.4495587 126.0308978
 131.4610012  72.0114997 122.5229988 131.5350012  72.9504997 122.6939988
 132.3670012  71.7064997 122.4669988 131.5935100  72.0986722 122.5388119
 114.4310012  68.7964997 134.9349988 113.9300012  68.7684997 134.1199988
 114.4360012  67.8904997 135.2449988 114.3630944  68.6702396 134.8653226
 114.1810012  71.5764997 131.8189988 115.1270012  71.4324997 131.7999988
 114.0690012  72.3604997 132.3559988 114.2952727  71.6628046 131.8890072
 132.3790012  72.2424997 137.5019988 132.3300012  71.2874997 137.4649988
 131.5520012  72.5104997 137.9029988 132.2604940  72.1478998 137.5511375
 123.3580012  71.8164997 136.3779988 123.4450012  72.6424997 136.8529988
 122.4940012  71.4864997 136.6269988 123.2531964  71.8849878 136.4766549
 123.7720012  75.5884997 126.1839988 123.6970012  75.4674997 125.2369988
 123.8050012  76.5384997 126.3019988 123.7662068  75.7002646 126.0704967
 117.4250012  74.3774997 127.9649988 117.5780012  74.0294997 128.8429988
 116.5750012  74.0214997 127.7099988 117.3309166  74.2816216 128.0508079
 126.8740012  74.7424997 123.1859988 127.2490012  73.9984997 122.7149988
 126.8780012  74.4724997 124.1049988 126.9259125  74.6040986 123.2456483
 126.5430012  74.6684997 125.9349988 125.6070012  74.7684997 126.1139988
 126.8230012  73.9594997 126.5139988 126.4529553  74.5863406 126.0377087
 129.5310012  63.7354997 137.9819988 129.1240012  64.2164997 137.2609988
 129.5720012  62.8304997 137.6739988 129.4808437  63.6789374 137.8416683
 116.6800012  70.1194997 135.9789988 116.8960012  69.7584997 136.8379988
 115.8250012  69.7454997 135.7689988 116.5939292  70.0194111 136.0683386
 119.2990012  58.5894997 131.9739988 118.4370012  58.5024997 131.5659988
 119.2760012  59.4454997 132.4019988 119.1780409  58.6932883 131.9760589
 123.9620012  58.3114997 135.3489988 124.3820012  57.8964997 136.1019988
 123.0290012  58.1334997 135.4659988 123.8933644  58.2305900 135.4679539
 127.2880012  62.0674997 136.2019988 126.7740012  61.9414997 136.9999988
 127.1330012  62.9794997 135.9579988 127.1966852  62.1736132 136.2782158
 128.0510012  66.9284997 121.9639988 128.0930012  66.7054997 121.0339988
 128.9000012  67.3274997 122.1529988 128.1715280  66.9519438 121.8623554
 123.6230012  60.8044997 122.6339988 123.3700012  60.8234997 123.5569988
 123.3670012  59.9324997 122.3319988 123.5537481  60.6892558 122.7196175
 119.3900012  63.5554997 133.0689988 118.7480012  63.5144997 133.7779988
 119.4270012  64.4814997 132.8309988 119.3070664  63.6751430 133.1339219
 119.3870012  63.7764997 127.9809988 118.4940012  63.4354997 127.9219988
 119.8370012  63.3994997 127.2249988 119.3258130  63.6789631 127.8707702
 124.9220012  64.1924997 126.7979988 124.5130012  65.0074997 126.5069988
 125.6430012  64.0524997 126.1839988 124.9634537  64.2852018 126.6751342
 124.0240012  64.3674997 138.2859988 123.4620012  63.6634997 138.6069988
 124.8510012  64.2474997 138.7539988 124.0587095  64.2547883 138.3932330
 125.9270012  63.6384997 129.6119988 125.7320012  64.2434997 128.8969988
 126.1080012  62.8044997 129.1779988 125.9247614  63.6086300 129.4554405
 117.1400012  63.8754997 134.9359988 117.1020012  64.2754997 135.8049988
 116.6490012  63.0584997 135.0269988 117.0684684  63.8198069 135.0671059
 120.5060012  61.2494997 121.7349988 120.0750012  60.8044997 122.4649988
 119.7880012  61.6214997 121.2229988 120.3499438  61.2388940 121.7656799
 113.7480012  60.9914997 128.7869988 114.3790012  60.9624997 129.5059988
 114.1970012  60.5664997 128.0559988 113.8950918  60.9300836 128.7866441
 115.0220012  61.7374997 124.2109988 115.4960012  62.3284997 123.6259988
 114.3050012  62.2684997 124.5579988 114.9899341  61.8900867 124.1778836
 125.1910012  65.2764997 134.2829988 125.5140012  64.6454997 133.6399988
 124.7510012  64.7414997 134.9439988 125.1757484  65.1178387 134.2843198
 121.9680012  61.2034997 129.0669988 121.0570012  61.2604997 129.3559988
 122.4740012  61.1434997 129.8779988 121.9116899  61.2031941 129.2161184
 116.7970012  62.8324997 127.8939988 115.9070012  62.9324997 127.5539988
 117.0930012  61.9904997 127.5479988 116.7152823  62.7323545 127.8007213
 120.4500012  62.8324997 125.5509988 121.3810012  62.9614997 125.7289988
 120.2350012  63.5024997 124.9009988 120.5484247  62.9406565 125.4875747
 126.3730012  60.4384997 132.3319988 125.6970012  60.5694997 132.9959988
 125.8880012  60.2834997 131.5209988 126.2147146  60.4355157 132.3134469
 119.1240012  64.0274997 123.1169988 118.5810012  63.6474997 122.4259988
 119.9570012  64.2214997 122.6889988 119.1623631  64.0017125 122.9644501
 129.6610012  76.1104997 138.6079988 129.8610012  76.5344997 137.7739988
 130.3160012  76.4534997 139.2149988 129.7770072  76.2149857 138.5758592
 117.2590012  68.5844997 138.2159988 117.9910012  68.8384997 138.7779988
 116.4790012  68.7884997 138.7319988 117.2537073  68.6468160 138.3626151
 123.2880012  63.9914997 130.9539988 123.8530012  63.4444997 130.4069988
 123.1410012  63.4694997 131.7429988 123.3453380  63.8462259 130.9858695
 118.2900012  60.1274997 127.3729988 117.9730012  59.2254997 127.3369988
 119.0720012  60.1294997 126.8199988 118.3522408  60.0042474 127.2933569
 121.9150012  62.3794997 133.3679988 121.0790012  62.8334997 133.4789988
 122.4390012  62.6554997 134.1199988 121.8715416  62.4788660 133.4848119
 122.4590012  68.5924997 125.0529988 121.7140012  68.0854997 124.7309988
 122.3250012  68.6414997 125.9999988 122.3388776  68.5296940 125.1368647
 129.6090012  67.7254997 133.8399988 130.2510012  68.1824997 133.2959988
 128.7790012  67.8384997 133.3769988 129.5845963  67.8032704 133.7030177
 126.3570012  61.4064997 123.2519988 125.4180012  61.5184997 123.1009988
 126.6540012  62.2634997 123.5589988 126.2687583  61.5375981 123.2728337
 123.9780012  68.7764997 136.2899988 123.6330012  68.3954997 137.0969988
 123.7780012  69.7104997 136.3609988 123.9037527  68.8505135 136.4100689
 127.0750012  63.2734997 124.9129988 127.9670012  63.1364997 125.2319988
 127.1320012  64.0644997 124.3759988 127.2046504  63.3616052 124.8840818
 117.5840012  67.8874997 130.8229988 118.3290012  67.8854997 130.2219988
 117.6620012  67.0644997 131.3039988 117.6964995  67.7758887 130.8058282
 124.5850012  70.0514997 124.0789988 124.2890012  70.8774997 124.4599988
 123.8820012  69.4314997 124.2749988 124.4494914  70.0808199 124.1576443
 114.5920012  66.3484997 136.1379988 114.8150012  65.9304997 136.9699988
 113.9900012  65.7354997 135.7149988 114.5411759  66.2084668 136.1947022
 121.6080012  65.8654997 138.3509988 121.3120012  65.6994997 137.4559988
 122.5400012  65.6454997 138.3399988 121.6934166  65.8130640 138.2270536
 126.2290012  71.2384997 136.2409988 125.3280012  71.4214997 135.9729988
 126.2630012  71.4974997 137.1609988 126.1103139  71.2985849 136.3288099
 131.9600012  63.4834997 124.6079988 131.4060012  63.0874997 123.9359988
 132.0600012  64.3934997 124.3299988 131.8977059  63.5523586 124.4784401
 131.9230012  69.2834997 137.4449988 131.0720012  69.5214997 137.0779988
 132.5140012  69.2664997 136.6919988 131.8862487  69.3138258 137.2928893
 130.2550012  72.2694997 125.0729988 129.8820012  71.4434997 125.3819988
 130.5330012  72.0864997 124.1749988 130.2415222  72.1317430 124.9939473
 127.4160012  67.0774997 132.0939988 126.4870012  66.8454997 132.0669988
 127.8670012  66.3004997 131.7639988 127.3499216  66.9407238 132.0456917
 119.9590012  71.4054997 128.2269988 120.4860012  72.1784997 128.0269988
 119.0790012  71.6304997 127.9249988 119.9122031  71.5417545 128.1587912
 115.7140012  66.2674997 122.8139988 116.3300012  66.8944997 123.1939988
 114.8520012  66.5834997 123.0859988 115.6817698  66.3959430 122.9027183
 121.3860012  69.0684997 127.8029988 121.1450012  69.9934997 127.8449988
 120.6450012  68.6094997 128.1999988 121.2529225  69.1330933 127.8623742
 121.9010012  73.2174997 134.1189988 122.2630012  74.0724997 133.8849988
 122.4320012  72.9254997 134.8589988 122.0224473  73.2951060 134.1870855
 120.0690012  74.0904997 127.3489988 119.1190012  74.1954997 127.3999988
 120.4210012  74.9104997 127.6929988 119.9864195  74.2158800 127.4025502
 125.4450012  69.3164997 133.8189988 125.0190012  69.0894997 134.6459988
 126.0250012  68.5784997 133.6369988 125.4651868  69.1855299 133.9075830
 127.6480012  70.2454997 122.8929988 128.0010012  69.8654997 123.6969988
 126.6990012  70.1524997 122.9799988 127.5680918  70.1808956 123.0148532
 128.1030012  73.8684997 136.2889988 127.5020012  73.3134997 135.7929988
 128.3850012  74.5354997 135.6619988 128.0588804  73.8826625 136.1364849
 132.1510012  74.7254997 123.0939988 132.8950012  75.3114997 122.9539988
 131.4570012  75.2934997 123.4269988 132.1589899  74.8825798 123.1198778
 116.2260012  61.1014997 135.6959988 115.3330012  61.4404997 135.6279988
 116.1270012  60.2464997 136.1139988 116.0904164  61.0322588 135.7432235
 128.5140012  68.9184997 125.1199988 128.2360012  68.1904997 125.6759988
 129.4410012  69.0374997 125.3249988 128.6013124  68.8348802 125.2238845
 115.8770012  72.9064997 134.1309988 116.0940012  71.9744997 134.0999988
 116.1230012  73.1804997 135.0139988 115.9399549  72.8160636 134.2461763
 121.7390012  71.3574997 121.3399988 121.9780012  70.6094997 120.7929988
 121.4700012  70.9694997 122.1729988 121.7353675  71.2026638 121.3776865
 120.6760012  70.9274997 123.7959988 120.8220012  70.4074997 124.5859988
 120.6730012  71.8344997 124.1029988 120.6955792  70.9788842 123.9456117
 117.1290012  68.1804997 124.3069988 116.4430012  68.5324997 124.8739988
 117.6510012  68.9434997 124.0599988 117.1056852  68.3318578 124.3512118
 124.9600012  60.8424997 134.5859988 125.6590012  60.9164997 135.2359988
 124.5790012  59.9784997 134.7399988 125.0041767  60.7357624 134.6958322
 125.7450012  60.4944997 125.6829988 125.9650012  60.9664997 124.8799988
 126.3030012  60.8894997 126.3529988 125.8504968  60.6124285 125.6637331
 123.4130012  72.6254997 124.5459988 122.5970012  73.1224997 124.5979988
 123.9430012  73.1004997 123.9059988 123.3729161  72.7577722 124.4665956
 122.9450012  62.2224997 126.5179988 123.7570012  62.7274997 126.5639988
 122.7000012  62.0774997 127.4319988 123.0230520  62.2720375 126.6478517
 123.4800012  63.2084997 135.7019988 123.5990012  63.7824997 136.4599988
 124.1360012  62.5204997 135.8169988 123.5849025  63.1939858 135.8211321
 123.8280012  59.3034997 127.4559988 123.4820012  59.9214997 128.0999988
 124.4870012  59.8044997 126.9739988 123.8696968  59.4556278 127.4789383
 120.7520012  73.6694997 124.5269988 120.9120012  74.4684997 124.0269988
 120.5540012  73.9754997 125.4119988 120.7471637  73.8204020 124.5781144
 119.4860012  60.3664997 124.1429988 119.4030012  61.2554997 124.4899988
 120.3760012  60.1014997 124.3749988 119.5949469  60.4521430 124.2217626
 129.6850012  61.1154997 136.5369988 128.7680012  61.3784997 136.4499988
 130.0200012  61.1124997 135.6409988 129.6048613  61.1510761 136.4038837
 128.2870012  64.8664997 130.6329988 127.4890012  64.4514997 130.3049988
 128.7320012  64.1754997 131.1239988 128.2379885  64.7163543 130.6544889
 117.7450012  70.7944997 123.2039988 118.3370012  71.4934997 123.4799988
 118.2040012  70.3614997 122.4839988 117.8881142  70.8317049 123.1444830
 116.0610012  63.4584997 122.3199988 116.0160012  64.3974997 122.4979988
 115.1730012  63.2224997 122.0499988 115.9348574  63.5551892 122.3078912
 129.3730012  74.1224997 132.2559988 129.2180012  74.8004997 131.5979988
 130.3060012  74.1944997 132.4589988 129.4778657  74.2249546 132.1934360
 116.8690012  58.2404997 130.9929988 116.6400012  58.2994997 130.0649988
 116.4260012  57.4484997 131.2989988 116.7778530  58.1415753 130.9074786
 115.7990012  72.1804997 127.1529988 114.9670012  72.6534997 127.1799988
 116.3450012  72.6904997 126.5549988 115.7590352  72.3141332 127.0758463
 115.0870012  74.7934997 138.4829988 115.6280012  74.5764997 139.2429988
 114.6060012  73.9874997 138.2929988 115.0959951  74.6549270 138.5612576
 119.6850012  73.7124997 140.1029988 120.4520012  73.2534997 140.4439988
 119.6630012  73.4864997 139.1739988 119.7871275  73.6190186 140.0240101
 123.7770012  73.2204997 121.4789988 123.1330012  72.5894997 121.7999988
 124.5390012  72.6894997 121.2469988 123.7918077  73.0622920 121.4916011
 126.2620012  72.0924997 138.8329988 125.9110012  71.2364997 139.0759988
 126.9880012  72.2354997 139.4399988 126.3120769  71.9945636 138.9483619
 128.3810012  73.0374997 121.7119988 128.6640012  72.2434997 122.1649988
 129.1210012  73.2704997 121.1519988 128.5198006  72.9603376 121.6982715
 114.9940012  68.6034997 139.4369988 115.1380012  67.7014997 139.1509988
 114.2220012  68.8894997 138.9499988 114.9092753  68.5186816 139.3319505
 119.3360012  68.9474997 121.5699988 119.4000012  68.1534997 122.1009988
 119.9890012  68.8284997 120.8799988 119.4330241  68.8227148 121.5494317
 121.6500012  68.5734997 138.8699988 121.3210012  68.8444997 138.0129988
 121.8020012  67.6324997 138.7829988 121.6254809  68.4833862 138.7408244
 124.6880012  69.9944997 121.3059988 124.4190012  70.1744997 122.2069988
 124.4820012  69.0684997 121.1739988 124.6233427  69.8940261 121.4115073
 127.3840012  68.4894997 136.2529988 128.1300012  69.0774997 136.1339988
 126.6270012  69.0714997 136.3169988 127.3837820  68.6487143 136.2453590
 115.8270012  65.8034997 138.8569988 116.2350012  64.9464997 138.7359988
 115.5670012  65.8184997 139.7779988 115.8477568  65.6880807 138.9649588
 120.4850012  66.9194997 123.8759988 120.0250012  66.4354997 124.5619988
 120.7400012  66.2514997 123.2399988 120.4564902  66.7628731 123.8839334
 119.7740012  64.8124997 136.2319988 119.1560012  65.4874997 136.5119988
 120.1180012  65.1334997 135.3979988 119.7359132  64.9482411 136.1576262
 121.5560012  65.1624997 122.1379988 121.3760012  65.0084997 121.2109988
 122.5060012  65.2704997 122.1829988 121.6597776  65.1560175 122.0171843
 124.7940012  67.2844997 139.5089988 125.7470012  67.3674997 139.4819988
 124.6330012  66.5724997 140.1289988 124.9026426  67.1996746 139.5890579
 130.9460012  67.5174997 121.5839988 130.6720012  67.0924997 120.7709988
 130.9850012  68.4484997 121.3669988 130.9137699  67.5852484 121.4433610
 120.1130012  62.1674997 137.3139988 120.2630012  61.4384997 136.7119988
 120.1160012  62.9444997 136.7549988 120.1339302  62.1727851 137.1560692
 120.5260012  60.5374997 134.8069988 121.0620012  60.9884997 134.1549988
 119.6740012  60.4294997 134.3839988 120.4842178  60.5846390 134.6605756
 122.1080012  65.9764997 135.0459988 122.8580012  65.8204997 134.4729988
 121.7690012  66.8284997 134.7709988 122.1648921  66.0702968 134.9303561
 126.5230012  63.7914997 140.0749988 126.7160012  62.8604997 139.9629988
 127.3810012  64.2164997 140.0639988 126.6652934  63.7216531 140.0582031
 127.8400012  66.5804997 138.1519988 127.5590012  67.2894997 137.5739988
 128.7830012  66.5074997 138.0009988 127.9289291  66.6676711 138.0524967
 118.5920012  63.3654997 139.2259988 117.8250012  62.8334997 139.0149988
 119.2710012  63.0554997 138.6259988 118.5787877  63.2508300 139.1160716
 121.3320012  57.9934997 135.2379988 121.2330012  58.9404997 135.1329988
 120.5890012  57.6214997 134.7619988 121.2181184  58.0725863 135.1593621
 122.5960012  62.3154997 138.8019988 122.3600012  62.0954997 139.7029988
 121.8120012  62.1084997 138.2919988 122.4578504  62.2574586 138.8563431
 125.3110012  61.4424997 137.8769988 124.3640012  61.4744997 138.0099988
 125.6240012  60.8174997 138.5309988 125.2236707  61.3623998 137.9836060
 126.9450012  60.0764997 139.8829988 126.8490012  59.1244997 139.8769988
 126.6240012  60.3454997 140.7429988 126.8884070  59.9824035 139.9985441
 116.7720012  61.2864997 138.9299988 116.9840012  60.5794997 138.3199988
 116.6610012  60.8484997 139.7739988 116.7859721  61.1307084 138.9606843
 121.5530012  57.2874997 137.9089988 122.2650012  56.6474997 137.8949988
 121.4520012  57.5544997 136.9959988 121.6368066  57.2360079 137.7835677
 121.9070012  58.9704997 139.9629988 121.7750012  58.4944997 139.1429988
 121.3080012  59.7144997 139.9079988 121.8079071  59.0059618 139.8432886
 121.4530012  75.8534997 123.1389988 122.3860012  76.0114997 123.2829988
 121.1890012  76.5284997 122.5149988 121.5449888  75.9664510 123.0742842
 115.0220012  70.4894997 122.6219988 115.9360012  70.5684997 122.8959988
 115.0290012  69.8024997 121.9559988 115.1481131  70.4073961 122.5694393
 113.6710012  75.8824997 127.6999988 113.0240012  75.4204997 127.1669988
 114.0250012  75.2104997 128.2819988 113.6303849  75.7284723 127.7057959
 114.5410012  73.9634997 129.5039988 114.2060012  73.0834997 129.6759988
 114.7630012  74.3084997 130.3689988 114.5251783  73.8897500 129.6444208
 132.0890012  74.7724997 132.4849988 132.0680012  74.9574997 133.4239988
 132.7800012  75.3414997 132.1439988 132.1794618  74.8746606 132.5673864
 131.6530012  74.3404997 135.4069988 131.1650012  73.6044997 135.0349988
 132.2020012  73.9464997 136.0849988 131.6604820  74.1865889 135.4477813
 130.1030012  70.1294997 140.0449988 129.2370012  70.0244997 140.4389988
 130.4800012  70.8884997 140.4909988 130.0353308  70.2176900 140.1592393
 131.4040012  68.3864997 125.5589988 132.2540012  68.8074997 125.6859988
 131.4100012  67.6464997 126.1659988 131.5211372  68.3440803 125.6584344
 131.7990012  66.4394997 127.3819988 131.0720012  65.9604997 127.7799988
 132.3800012  66.6454997 128.1149988 131.7780473  66.4018103 127.5354528
 131.5580012  69.2244997 132.3299988 132.3910012  68.8464997 132.0499988
 131.6700012  70.1674997 132.2109988 131.6872647  69.3002218 132.2755487
 130.0440012  72.1024997 134.6369988 129.3970012  72.4274997 135.2629988
 129.5270012  71.6624997 133.9629988 129.8854029  72.0875004 134.6315827
 132.0670012  66.3404997 123.7739988 131.5450012  66.6974997 123.0549988
 132.0340012  67.0154997 124.4519988 131.9911634  66.4805413 123.7673145
 130.4160012  63.5804997 122.3239988 130.5120012  64.2474997 121.6439988
 130.2760012  62.7644997 121.8429988 130.4102272  63.5615655 122.1658347
 129.5850012  64.9604997 127.9449988 129.4350012  64.0154997 127.9249988
 129.2320012  65.2414997 128.7889988 129.5167448  64.8691481 128.0563705
 114.6210012  67.0384997 131.9559988 114.8050012  66.9564997 131.0199988
 115.4700012  66.9144997 132.3789988 114.7610151  67.0105073 131.8851451
 130.4420012  66.9304997 137.5839988 131.0250012  66.1964997 137.7759988
 131.0060012  67.7024997 137.6309988 130.5979769  66.9344227 137.6166159
 131.9380012  64.8334997 138.2689988 131.0750012  64.4544997 138.1029988
 132.5430012  64.0944997 138.1939988 131.9016119  64.6818268 138.2361528
 129.6630012  60.9884997 121.4419988 130.2740012  60.6174997 122.0789988
 128.8270012  60.5674997 121.6379988 129.6335032  60.8807554 121.5557035
 129.2960012  62.5434997 126.4079988 129.5760012  61.6364997 126.5319988
 130.0550012  62.9774997 126.0189988 129.4369277  62.4780942 126.3723682
 129.9080012  63.1244997 131.8439988 130.8410012  63.3364997 131.8089988
 129.6730012  63.2264997 132.7659988 130.0039244  63.1673100 131.9638892
 129.9370012  63.8614997 134.6199988 129.0940012  64.1294997 134.9859988
 130.3790012  64.6834997 134.4089988 129.8814158  64.0093291 134.6415491
 114.2180012  62.3094997 138.0969988 115.1380012  62.1874997 138.3329988
 113.7690012  61.5594997 138.4859988 114.2831580  62.1913727 138.1819006
 132.2200012  57.8414997 139.9729988 132.5700012  57.1874997 139.3679988
 132.3670012  58.6784997 139.5329988 132.2877887  57.8651548 139.8306858
 129.9090012  59.8064997 126.4559988 130.0920012  59.3574997 127.2819988
 129.3100012  59.2214997 125.9929988 129.8530202  59.6659975 126.5063275
 115.4390012  60.6214997 130.9879988 115.8850012  59.8294997 131.2899988
 115.9060012  61.3374997 131.4179988 115.5630831  60.6100685 131.0874006
 113.7430012  63.6204997 132.0569988 114.2350012  63.3994997 131.2659988
 114.1060012  64.4614997 132.3379988 113.8593126  63.7038357 131.9867531
 131.7400012  59.9504997 138.3219988 130.8220012  60.2214997 138.2869988
 131.8630012  59.4154997 137.5379988 131.6309729  59.9152508 138.2111923
 131.7760012  59.8734997 122.9839988 132.1880012  59.1524997 122.5089988
 132.4580012  60.5434997 123.0429988 131.9245885  59.8652368 122.9268915
 114.0570012  59.8784997 126.1109988 113.1320012  60.0874997 125.9819988
 114.5110012  60.3624997 125.4209988 113.9917292  59.9725343 126.0000720
 128.8280012  74.8624997 128.0569988 129.4800012  74.5154997 127.4489988
 129.3380012  75.3514997 128.7029988 128.9862637  74.8810597 128.0610236
 114.0210012  58.6164997 134.4549988 113.3560012  58.3704997 135.0989988
 113.5780012  59.2384997 133.8779988 113.8701318  58.6669410 134.4650898
 116.2130012  71.7914997 138.5999988 115.3920012  71.9664997 138.1389988
 115.9600012  71.7184997 139.5199988 116.0665585  71.8055544 138.6613561
 119.1670012  72.7664997 134.8579988 118.7420012  73.5754997 134.5759988
 120.0710012  72.8514997 134.5559988 119.2309975  72.8889300 134.7784816
 123.4780012  74.1654997 137.8179988 123.6630012  73.8314997 138.6959988
 124.3240012  74.4744997 137.4959988 123.6177539  74.1616047 137.8945605
 125.8230012  75.4514997 137.0619988 126.5000012  74.8184997 136.8219988
 126.1450012  75.8524997 137.8689988 125.9591637  75.4191154 137.1382793
 130.7400012  58.0404997 136.1409988 129.9280012  58.3654997 135.7539988
 130.9730012  57.2804997 135.6079988 130.6602203  57.9822758 136.0158880
 116.5690012  76.0224997 134.9059988 115.8480012  76.4624997 134.4549988
 116.2030012  75.7714997 135.7539988 116.4209651  76.0487242 134.9589640
 119.0360012  75.6224997 133.9359988 118.1710012  75.6944997 134.3399988
 118.9810012  76.1694997 133.1519988 118.9102085  75.7062685 133.8853362
 123.7460012  75.5104997 133.1109988 123.2900012  76.0394997 132.4569988
 123.9090012  76.1134997 133.8359988 123.7056068  75.6644607 133.1194838
 126.0740012  74.3884997 134.0559988 125.1690012  74.5534997 133.7899988
 126.5030012  75.2414997 133.9909988 126.0081324  74.5264339 134.0107976
 128.6780012  75.9584997 134.3509988 128.4960012  76.8744997 134.1409988
 128.8550012  75.5484997 133.5049988 128.6770210  76.0284822 134.2077885
 115.9830012  74.6454997 131.8159988 115.9650012  74.2204997 132.6729988
 116.7880012  74.3274997 131.4069988 116.0893529  74.5443013 131.8780946
 118.1250012  73.3554997 130.4709988 117.9060012  72.4394997 130.6409988
 118.9490012  73.4954997 130.9369988 118.2064420  73.2490520 130.5572774
 120.6620012  73.8254997 131.3199988 120.8750012  72.9374997 131.0329988
 120.7260012  73.7914997 132.2739988 120.6998232  73.6993102 131.4097397
 124.1700012  59.4894997 130.4639988 123.4960012  58.8604997 130.7199988
 124.7340012  59.0054997 129.8609988 124.1539230  59.3378744 130.4175340
 129.3130012  57.5974997 130.5769988 129.9170012  58.1444997 130.0749988
 128.4430012  57.9164997 130.3359988 129.2781208  57.7155137 130.4756886
 131.0400012  58.7354997 128.9099988 131.6520012  58.2214997 128.3829988
 131.4220012  59.6134997 128.9329988 131.1753371  58.7837866 128.8410041
 116.4970012  58.1234997 128.2859988 115.7200012  57.8894997 127.7789988
 117.0270012  57.3264997 128.2949988 116.4622330  57.9836988 128.2177742
 115.3330012  57.9214997 124.0899988 115.7720012  58.5324997 123.4979988
 114.7000012  58.4594997 124.5639988 115.3074514  58.0779257 124.0730930
 121.0760012  58.0504997 128.0999988 121.9510012  58.4384997 128.0699988
 120.9400012  57.8354997 129.0219988 121.1773695  58.0745184 128.2206440
 126.6330012  58.0804997 129.7489988 126.7090012  58.1754997 128.7989988
 126.3580012  57.1724997 129.8779988 126.6062321  57.9707867 129.6365079
 127.9860012  58.1064997 125.4409988 127.2840012  58.7214997 125.2309988
 127.5420012  57.2684997 125.5719988 127.8296450  58.0775639 125.4299000
 115.2340012  73.8694997 124.9869988 114.5490012  73.8314997 124.3199988
 115.2380012  74.7824997 125.2759988 115.1406998  73.9876733 124.9346771
 117.1940012  59.8374997 122.5319988 117.6860012  59.2074997 122.0049988
 117.8180012  60.1334997 123.1949988 117.3455688  59.7913804 122.5495482
 122.2200012  60.1304997 124.9889988 122.3980012  59.4844997 125.6719988
 122.1670012  60.9644997 125.4559988 122.2371999  60.1548009 125.1455917
 124.0990012  75.0794997 123.3849988 124.9650012  75.4454997 123.2069988
 123.8520012  74.6394997 122.5709988 124.1842392  75.0701756 123.2506289
 130.8080012  74.6424997 126.0639988 130.6130012  73.8944997 125.4989988
 130.7690012  75.4004997 125.4809988 130.7760380  74.6426099 125.9078384
 116.4550012  58.6374997 137.8039988 116.0890012  57.8724997 138.2459988
 117.3680012  58.6664997 138.0899988 116.5282736  58.5365640 137.9032502
 118.4280012  57.9884997 139.3399988 119.3260012  57.7144997 139.1549988
 118.0410012  57.2454997 139.8039988 118.4986612  57.8505914 139.3773643
 117.0520012  74.7894997 122.0129988 116.7850012  75.0764997 122.8859988
 117.8240012  74.2434997 122.1649988 117.1197488  74.7550294 122.1531050
 126.8490012  57.3204997 139.5219988 126.9260012  56.8944997 140.3759988
 127.7430012  57.3344997 139.1789988 126.9803428  57.2640879 139.5925310
 130.0250012  73.3934997 138.2139988 129.2430012  73.2074997 137.6939988
 129.9530012  74.3224997 138.4319988 129.9082274  73.4936643 138.1723018
 144.4310012  67.2794997 128.2449988 144.5200012  68.2234997 128.1129988
 143.7930012  67.0044997 127.5869988 144.3569081  67.3714830 128.1379614
 143.3640012  66.5344997 131.6639988 143.3260012  65.8884997 132.3689988
 143.0420012  66.0684997 130.8929988 143.3152333  66.3829408 131.6562978
 135.7330012  66.1494997 133.2569988 135.7740012  65.5234997 133.9799988
 136.4360012  66.7734997 133.4389988 135.8336363  66.1481196 133.3806044
 136.6560012  70.5994997 131.7919988 136.2870012  69.7974997 131.4219988
 137.5970012  70.4304997 131.8379988 136.7327289  70.4670153 131.7476316
 133.2660012  64.2594997 127.1849988 132.8190012  65.1054997 127.1659988
 132.7050012  63.6794997 126.6689988 133.1289900  64.2969916 127.1126801
 133.9770012  66.4214997 129.3099988 134.1900012  65.6514997 129.8379988
 134.7150012  66.5104997 128.7069988 134.1059044  66.3281968 129.3007123
 144.1820012  74.5784997 130.1769988 144.8020012  73.9014997 129.9039988
 143.9740012  74.3604997 131.0859988 144.2386726  74.4564800 130.2624812
 141.7540012  68.9674997 132.0699988 142.0580012  68.2814997 131.4749988
 142.4750012  69.0854997 132.6879988 141.8930671  68.8896305 132.0721816
 144.8950012  63.3614997 132.3969988 145.0370012  62.4154997 132.4179988
 144.7880012  63.5684997 131.4689988 144.8999919  63.2598246 132.2743408
 138.0490012  61.4624997 129.6699988 138.0930012  62.3224997 129.2509988
 137.5920012  60.9104997 129.0359988 137.9932240  61.5054422 129.5269864
 134.6700012  63.8594997 130.4319988 135.3230012  63.3094997 130.8639988
 134.6940012  63.5854997 129.5149988 134.7626683  63.7471466 130.3672123
 139.8260012  65.4094997 129.6469988 140.4420012  64.8834997 130.1569988
 139.2400012  64.7694997 129.2439988 139.8310810  65.2509208 129.6623173
 136.8600012  60.3804997 133.7439988 136.6410012  60.9104997 132.9779988
 136.1920012  60.6074997 134.3909988 136.7397600  60.4836906 133.7266379
 144.2290012  69.8804997 127.2879988 143.9330012  69.5584997 126.4369988
 143.9040012  70.7804997 127.3289988 144.1446371  69.9580215 127.1771801
 139.4290012  68.0564997 134.0309988 138.6890012  68.6544997 134.1349988
 140.1430012  68.6104997 133.7159988 139.4242237  68.2132831 134.0026465
 136.4530012  62.2724997 131.6959988 137.0670012  62.9054997 132.0689988
 136.9650012  61.8004997 131.0399988 136.6061981  62.2952267 131.6582908
 137.8360012  70.0204997 134.8179988 137.8310012  70.9004997 134.4399988
 136.9830012  69.9374997 135.2429988 137.7199464  70.1296117 134.8237907
 133.9570012  69.6914997 125.5999988 133.6850012  69.9204997 124.7119988
 134.0030012  70.5294997 126.0609988 133.9259482  69.8361318 125.5406273
 140.8860012  57.6864997 131.1959988 140.7690012  56.7374997 131.1419988
 140.0310012  58.0184997 131.4699988 140.7544212  57.6015571 131.2256497
 143.1530012  66.5234997 125.6969988 142.4410012  67.0584997 125.3449988
 143.8440012  66.5794997 125.0369988 143.1490132  66.6042543 125.5596289
 143.2060012  64.9814997 122.7359988 143.9070012  65.0034997 123.3869988
 143.5090012  64.3534997 122.0789988 143.3428133  64.8997070 122.7363369
 138.2040012  67.3634997 128.5309988 137.8730012  66.9934997 127.7129988
 138.7920012  66.6934997 128.8779988 138.2381873  67.2221156 128.4658102
 139.5700012  70.7914997 131.2119988 139.4760012  70.2134997 130.4559988
 140.3000012  70.4204997 131.7089988 139.6557386  70.6621663 131.1755342
 138.5700012  66.1324997 132.1649988 139.1360012  66.2534997 131.4019988
 138.8890012  66.7694997 132.8029988 138.6905474  66.2352219 132.1469862
 144.8790012  71.6354997 132.8989988 144.6390012  72.2974997 133.5469988
 144.6810012  70.8014997 133.3239988 144.8193808  71.6133134 133.0451524
 139.4500012  70.5314997 136.8819988 139.1390012  71.3134997 137.3369988
 138.8000012  70.3784997 136.1959988 139.3195558  70.6179105 136.8515871
 136.3700012  66.7294997 136.1099988 136.4410012  67.3804997 136.8089988
 135.4800012  66.8324997 135.7749988 136.2593005  66.8325427 136.1603495
 143.1560012  72.6324997 127.7689988 143.6300012  72.9274997 128.5459988
 142.5930012  73.3704997 127.5359988 143.1448184  72.7727247 127.8439628
 137.6900012  72.6034997 137.6449988 137.6970012  72.4674997 136.6979988
 136.7740012  72.4854997 137.8969988 137.5671714  72.5689430 137.5494666
 137.1940012  66.4334997 126.1199988 136.9020012  67.2014997 125.6299988
 136.5200012  65.7734997 125.9579988 137.0628111  66.4495587 126.0308978
 133.2870012  68.7964997 134.9349988 132.7860012  68.7684997 134.1199988
 133.2920012  67.8904997 135.2449988 133.2190944  68.6702396 134.8653226
 133.0370012  71.5764997 131.8189988 133.9830012  71.4324997 131.7999988
 132.9250012  72.3604997 132.3559988 133.1512727  71.6628046 131.8890072
 142.2140012  71.8164997 136.3779988 142.3010012  72.6424997 136.8529988
 141.3500012  71.4864997 136.6269988 142.1091964  71.8849878 136.4766549
 142.6280012  75.5884997 126.1839988 142.5530012  75.4674997 125.2369988
 142.6610012  76.5384997 126.3019988 142.6222068  75.7002646 126.0704967
 136.2810012  74.3774997 127.9649988 136.4340012  74.0294997 128.8429988
 135.4310012  74.0214997 127.7099988 136.1869166  74.2816216 128.0508079
 135.5360012  70.1194997 135.9789988 135.7520012  69.7584997 136.8379988
 134.6810012  69.7454997 135.7689988 135.4499292  70.0194111 136.0683386
 138.1550012  58.5894997 131.9739988 137.2930012  58.5024997 131.5659988
 138.1320012  59.4454997 132.4019988 138.0340409  58.6932883 131.9760589
 142.8180012  58.3114997 135.3489988 143.2380012  57.8964997 136.1019988
 141.8850012  58.1334997 135.4659988 142.7493644  58.2305900 135.4679539
 142.4790012  60.8044997 122.6339988 142.2260012  60.8234997 123.5569988
 142.2230012  59.9324997 122.3319988 142.4097481  60.6892558 122.7196175
 138.2460012  63.5554997 133.0689988 137.6040012  63.5144997 133.7779988
 138.2830012  64.4814997 132.8309988 138.1630664  63.6751430 133.1339219
 138.2430012  63.7764997 127.9809988 137.3500012  63.4354997 127.9219988
 138.6930012  63.3994997 127.2249988 138.1818130  63.6789631 127.8707702
 143.7780012  64.1924997 126.7979988 143.3690012  65.0074997 126.5069988
 144.4990012  64.0524997 126.1839988 143.8194537  64.2852018 126.6751342
 142.8800012  64.3674997 138.2859988 142.3180012  63.6634997 138.6069988
 143.7070012  64.2474997 138.7539988 142.9147095  64.2547883 138.3932330
 144.7830012  63.6384997 129.6119988 144.5880012  64.2434997 128.8969988
 144.9640012  62.8044997 129.1779988 144.7807614  63.6086300 129.4554405
 135.9960012  63.8754997 134.9359988 135.9580012  64.2754997 135.8049988
 135.5050012  63.0584997 135.0269988 135.9244684  63.8198069 135.0671059
 139.3620012  61.2494997 121.7349988 138.9310012  60.8044997 122.4649988
 138.6440012  61.6214997 121.2229988 139.2059438  61.2388940 121.7656799
 132.6040012  60.9914997 128.7869988 133.2350012  60.9624997 129.5059988
 133.0530012  60.5664997 128.0559988 132.7510918  60.9300836 128.7866441
 133.8780012  61.7374997 124.2109988 134.3520012  62.3284997 123.6259988
 133.1610012  62.2684997 124.5579988 133.8459341  61.8900867 124.1778836
 144.0470012  65.2764997 134.2829988 144.3700012  64.6454997 133.6399988
 143.6070012  64.7414997 134.9439988 144.0317484  65.1178387 134.2843198
 140.8240012  61.2034997 129.0669988 139.9130012  61.2604997 129.3559988
 141.3300012  61.1434997 129.8779988 140.7676899  61.2031941 129.2161184
 135.6530012  62.8324997 127.8939988 134.7630012  62.9324997 127.5539988
 135.9490012  61.9904997 127.5479988 135.5712823  62.7323545 127.8007213
 139.3060012  62.8324997 125.5509988 140.2370012  62.9614997 125.7289988
 139.0910012  63.5024997 124.9009988 139.4044247  62.9406565 125.4875747
 137.9800012  64.0274997 123.1169988 137.4370012  63.6474997 122.4259988
 138.8130012  64.2214997 122.6889988 138.0183631  64.0017125 122.9644501
 136.1150012  68.5844997 138.2159988 136.8470012  68.8384997 138.7779988
 135.3350012  68.7884997 138.7319988 136.1097073  68.6468160 138.3626151
 142.1440012  63.9914997 130.9539988 142.7090012  63.4444997 130.4069988
 141.9970012  63.4694997 131.7429988 142.2013380  63.8462259 130.9858695
 137.1460012  60.1274997 127.3729988 136.8290012  59.2254997 127.3369988
 137.9280012  60.1294997 126.8199988 137.2082408  60.0042474 127.2933569
 140.7710012  62.3794997 133.3679988 139.9350012  62.8334997 133.4789988
 141.2950012  62.6554997 134.1199988 140.7275416  62.4788660 133.4848119
 141.3150012  68.5924997 125.0529988 140.5700012  68.0854997 124.7309988
 141.1810012  68.6414997 125.9999988 141.1948776  68.5296940 125.1368647
 142.8340012  68.7764997 136.2899988 142.4890012  68.3954997 137.0969988
 142.6340012  69.7104997 136.3609988 142.7597527  68.8505135 136.4100689
 136.4400012  67.8874997 130.8229988 137.1850012  67.8854997 130.2219988
 136.5180012  67.0644997 131.3039988 136.5524995  67.7758887 130.8058282
 143.4410012  70.0514997 124.0789988 143.1450012  70.8774997 124.4599988
 142.7380012  69.4314997 124.2749988 143.3054914  70.0808199 124.1576443
 133.4480012  66.3484997 136.1379988 133.6710012  65.9304997 136.9699988
 132.8460012  65.7354997 135.7149988 133.3971759  66.2084668 136.1947022
 140.4640012  65.8654997 138.3509988 140.1680012  65.6994997 137.4559988
 141.3960012  65.6454997 138.3399988 140.5494166  65.8130640 138.2270536
 138.8150012  71.4054997 128.2269988 139.3420012  72.1784997 128.0269988
 137.9350012  71.6304997 127.9249988 138.7682031  71.5417545 128.1587912
 134.5700012  66.2674997 122.8139988 135.1860012  66.8944997 123.1939988
 133.7080012  66.5834997 123.0859988 134.5377698  66.3959430 122.9027183
 140.2420012  69.0684997 127.8029988 140.0010012  69.9934997 127.8449988
 139.5010012  68.6094997 128.1999988 140.1089225  69.1330933 127.8623742
 140.7570012  73.2174997 134.1189988 141.1190012  74.0724997 133.8849988
 141.2880012  72.9254997 134.8589988 140.8784473  73.2951060 134.1870855
 138.9250012  74.0904997 127.3489988 137.9750012  74.1954997 127.3999988
 139.2770012  74.9104997 127.6929988 138.8424195  74.2158800 127.4025502
 144.3010012  69.3164997 133.8189988 143.8750012  69.0894997 134.6459988
 144.8810012  68.5784997 133.6369988 144.3211868  69.1855299 133.9075830
 135.0820012  61.1014997 135.6959988 134.1890012  61.4404997 135.6279988
 134.9830012  60.2464997 136.1139988 134.9464164  61.0322588 135.7432235
 134.7330012  72.9064997 134.1309988 134.9500012  71.9744997 134.0999988
 134.9790012  73.1804997 135.0139988 134.7959549  72.8160636 134.2461763
 140.5950012  71.3574997 121.3399988 140.8340012  70.6094997 120.7929988
 140.3260012  70.9694997 122.1729988 140.5913675  71.2026638 121.3776865
 139.5320012  70.9274997 123.7959988 139.6780012  70.4074997 124.5859988
 139.5290012  71.8344997 124.1029988 139.5515792  70.9788842 123.9456117
 135.9850012  68.1804997 124.3069988 135.2990012  68.5324997 124.8739988
 136.5070012  68.9434997 124.0599988 135.9616852  68.3318578 124.3512118
 143.8160012  60.8424997 134.5859988 144.5150012  60.9164997 135.2359988
 143.4350012  59.9784997 134.7399988 143.8601767  60.7357624 134.6958322
 144.6010012  60.4944997 125.6829988 144.8210012  60.9664997 124.8799988
 145.1590012  60.8894997 126.3529988 144.7064968  60.6124285 125.6637331
 142.2690012  72.6254997 124.5459988 141.4530012  73.1224997 124.5979988
 142.7990012  73.1004997 123.9059988 142.2289161  72.7577722 124.4665956
 141.8010012  62.2224997 126.5179988 142.6130012  62.7274997 126.5639988
 141.5560012  62.0774997 127.4319988 141.8790520  62.2720375 126.6478517
 142.3360012  63.2084997 135.7019988 142.4550012  63.7824997 136.4599988
 142.9920012  62.5204997 135.8169988 142.4409025  63.1939858 135.8211321
 142.6840012  59.3034997 127.4559988 142.3380012  59.9214997 128.0999988
 143.3430012  59.8044997 126.9739988 142.7256968  59.4556278 127.4789383
 139.6080012  73.6694997 124.5269988 139.7680012  74.4684997 124.0269988
 139.4100012  73.9754997 125.4119988 139.6031637  73.8204020 124.5781144
 138.3420012  60.3664997 124.1429988 138.2590012  61.2554997 124.4899988
 139.2320012  60.1014997 124.3749988 138.4509469  60.4521430 124.2217626
 136.6010012  70.7944997 123.2039988 137.1930012  71.4934997 123.4799988
 137.0600012  70.3614997 122.4839988 136.7441142  70.8317049 123.1444830
 134.9170012  63.4584997 122.3199988 134.8720012  64.3974997 122.4979988
 134.0290012  63.2224997 122.0499988 134.7908574  63.5551892 122.3078912
 135.7250012  58.2404997 130.9929988 135.4960012  58.2994997 130.0649988
 135.2820012  57.4484997 131.2989988 135.6338530  58.1415753 130.9074786
 134.6550012  72.1804997 127.1529988 133.8230012  72.6534997 127.1799988
 135.2010012  72.6904997 126.5549988 134.6150352  72.3141332 127.0758463
 133.9430012  74.7934997 138.4829988 134.4840012  74.5764997 139.2429988
 133.4620012  73.9874997 138.2929988 133.9519951  74.6549270 138.5612576
 138.5410012  73.7124997 140.1029988 139.3080012  73.2534997 140.4439988
 138.5190012  73.4864997 139.1739988 138.6431275  73.6190186 140.0240101
 142.6330012  73.2204997 121.4789988 141.9890012  72.5894997 121.7999988
 143.3950012  72.6894997 121.2469988 142.6478077  73.0622920 121.4916011
 133.8500012  68.6034997 139.4369988 133.9940012  67.7014997 139.1509988
 133.0780012  68.8894997 138.9499988 133.7652753  68.5186816 139.3319505
 138.1920012  68.9474997 121.5699988 138.2560012  68.1534997 122.1009988
 138.8450012  68.8284997 120.8799988 138.2890241  68.8227148 121.5494317
 140.5060012  68.5734997 138.8699988 140.1770012  68.8444997 138.0129988
 140.6580012  67.6324997 138.7829988 140.4814809  68.4833862 138.7408244
 143.5440012  69.9944997 121.3059988 143.2750012  70.1744997 122.2069988
 143.3380012  69.0684997 121.1739988 143.4793427  69.8940261 121.4115073
 134.6830012  65.8034997 138.8569988 135.0910012  64.9464997 138.7359988
 134.4230012  65.8184997 139.7779988 134.7037568  65.6880807 138.9649588
 139.3410012  66.9194997 123.8759988 138.8810012  66.4354997 124.5619988
 139.5960012  66.2514997 123.2399988 139.3124902  66.7628731 123.8839334
 138.6300012  64.8124997 136.2319988 138.0120012  65.4874997 136.5119988
 138.9740012  65.1334997 135.3979988 138.5919132  64.9482411 136.1576262
 140.4120012  65.1624997 122.1379988 140.2320012  65.0084997 121.2109988
 141.3620012  65.2704997 122.1829988 140.5157776  65.1560175 122.0171843
 143.6500012  67.2844997 139.5089988 144.6030012  67.3674997 139.4819988
 143.4890012  66.5724997 140.1289988 143.7586426  67.1996746 139.5890579
 138.9690012  62.1674997 137.3139988 139.1190012  61.4384997 136.7119988
 138.9720012  62.9444997 136.7549988 138.9899302  62.1727851 137.1560692
 139.3820012  60.5374997 134.8069988 139.9180012  60.9884997 134.1549988
 138.5300012  60.4294997 134.3839988 139.3402178  60.5846390 134.6605756
 140.9640012  65.9764997 135.0459988 141.7140012  65.8204997 134.4729988
 140.6250012  66.8284997 134.7709988 141.0208921  66.0702968 134.9303561
 137.4480012  63.3654997 139.2259988 136.6810012  62.8334997 139.0149988
 138.1270012  63.0554997 138.6259988 137.4347877  63.2508300 139.1160716
 140.1880012  57.9934997 135.2379988 140.0890012  58.9404997 135.1329988
 139.4450012  57.6214997 134.7619988 140.0741184  58.0725863 135.1593621
 141.4520012  62.3154997 138.8019988 141.2160012  62.0954997 139.7029988
 140.6680012  62.1084997 138.2919988 141.3138504  62.2574586 138.8563431
 144.1670012  61.4424997 137.8769988 143.2200012  61.4744997 138.0099988
 144.4800012  60.8174997 138.5309988 144.0796707  61.3623998 137.9836060
 135.6280012  61.2864997 138.9299988 135.8400012  60.5794997 138.3199988
 135.5170012  60.8484997 139.7739988 135.6419721  61.1307084 138.9606843
 140.4090012  57.2874997 137.9089988 141.1210012  56.6474997 137.8949988
 140.3080012  57.5544997 136.9959988 140.4928066  57.2360079 137.7835677
 140.7630012  58.9704997 139.9629988 140.6310012  58.4944997 139.1429988
 140.1640012  59.7144997 139.9079988 140.6639071  59.0059618 139.8432886
 140.3090012  75.8534997 123.1389988 141.2420012  76.0114997 123.2829988
 140.0450012  76.5284997 122.5149988 140.4009888  75.9664510 123.0742842
 133.8780012  70.4894997 122.6219988 134.7920012  70.5684997 122.8959988
 133.8850012  69.8024997 121.9559988 134.0041131  70.4073961 122.5694393
 132.5270012  75.8824997 127.6999988 131.8800012  75.4204997 127.1669988
 132.8810012  75.2104997 128.2819988 132.4863849  75.7284723 127.7057959
 133.3970012  73.9634997 129.5039988 133.0620012  73.0834997 129.6759988
 133.6190012  74.3084997 130.3689988 133.3811783  73.8897500 129.6444208
 133.4770012  67.0384997 131.9559988 133.6610012  66.9564997 131.0199988
 134.3260012  66.9144997 132.3789988 133.6170151  67.0105073 131.8851451
 133.0740012  62.3094997 138.0969988 133.9940012  62.1874997 138.3329988
 132.6250012  61.5594997 138.4859988 133.1391580  62.1913727 138.1819006
 134.2950012  60.6214997 130.9879988 134.7410012  59.8294997 131.2899988
 134.7620012  61.3374997 131.4179988 134.4190831  60.6100685 131.0874006
 132.5990012  63.6204997 132.0569988 133.0910012  63.3994997 131.2659988
 132.9620012  64.4614997 132.3379988 132.7153126  63.7038357 131.9867531
 132.9130012  59.8784997 126.1109988 131.9880012  60.0874997 125.9819988
 133.3670012  60.3624997 125.4209988 132.8477292  59.9725343 126.0000720
 132.8770012  58.6164997 134.4549988 132.2120012  58.3704997 135.0989988
 132.4340012  59.2384997 133.8779988 132.7261318  58.6669410 134.4650898
 135.0690012  71.7914997 138.5999988 134.2480012  71.9664997 138.1389988
 134.8160012  71.7184997 139.5199988 134.9225585  71.8055544 138.6613561
 138.0230012  72.7664997 134.8579988 137.5980012  73.5754997 134.5759988
 138.9270012  72.8514997 134.5559988 138.0869975  72.8889300 134.7784816
 142.3340012  74.1654997 137.8179988 142.5190012  73.8314997 138.6959988
 143.1800012  74.4744997 137.4959988 142.4737539  74.1616047 137.8945605
 144.6790012  75.4514997 137.0619988 145.3560012  74.8184997 136.8219988
 145.0010012  75.8524997 137.8689988 144.8151637  75.4191154 137.1382793
 135.4250012  76.0224997 134.9059988 134.7040012  76.4624997 134.4549988
 135.0590012  75.7714997 135.7539988 135.2769651  76.0487242 134.9589640
 137.8920012  75.6224997 133.9359988 137.0270012  75.6944997 134.3399988
 137.8370012  76.1694997 133.1519988 137.7662085  75.7062685 133.8853362
 142.6020012  75.5104997 133.1109988 142.1460012  76.0394997 132.4569988
 142.7650012  76.1134997 133.8359988 142.5616068  75.6644607 133.1194838
 134.8390012  74.6454997 131.8159988 134.8210012  74.2204997 132.6729988
 135.6440012  74.3274997 131.4069988 134.9453529  74.5443013 131.8780946
 136.9810012  73.3554997 130.4709988 136.7620012  72.4394997 130.6409988
 137.8050012  73.4954997 130.9369988 137.0624420  73.2490520 130.5572774
 139.5180012  73.8254997 131.3199988 139.7310012  72.9374997 131.0329988
 139.5820012  73.7914997 132.2739988 139.5558232  73.6993102 131.4097397
 143.0260012  59.4894997 130.4639988 142.3520012  58.8604997 130.7199988
 143.5900012  59.0054997 129.8609988 143.0099230  59.3378744 130.4175340
 135.3530012  58.1234997 128.2859988 134.5760012  57.8894997 127.7789988
 135.8830012  57.3264997 128.2949988 135.3182330  57.9836988 128.2177742
 134.1890012  57.9214997 124.0899988 134.6280012  58.5324997 123.4979988
 133.5560012  58.4594997 124.5639988 134.1634514  58.0779257 124.0730930
 139.9320012  58.0504997 128.0999988 140.8070012  58.4384997 128.0699988
 139.7960012  57.8354997 129.0219988 140.0333695  58.0745184 128.2206440
 134.0900012  73.8694997 124.9869988 133.4050012  73.8314997 124.3199988
 134.0940012  74.7824997 125.2759988 133.9966998  73.9876733 124.9346771
 136.0500012  59.8374997 122.5319988 136.5420012  59.2074997 122.0049988
 136.6740012  60.1334997 123.1949988 136.2015688  59.7913804 122.5495482
 141.0760012  60.1304997 124.9889988 141.2540012  59.4844997 125.6719988
 141.0230012  60.9644997 125.4559988 141.0931999  60.1548009 125.1455917
 142.9550012  75.0794997 123.3849988 143.8210012  75.4454997 123.2069988
 142.7080012  74.6394997 122.5709988 143.0402392  75.0701756 123.2506289
 135.3110012  58.6374997 137.8039988 134.9450012  57.8724997 138.2459988
 136.2240012  58.6664997 138.0899988 135.3842736  58.5365640 137.9032502
 137.2840012  57.9884997 139.3399988 138.1820012  57.7144997 139.1549988
 136.8970012  57.2454997 139.8039988 137.3546612  57.8505914 139.3773643
 135.9080012  74.7894997 122.0129988 135.6410012  75.0764997 122.8859988
 136.6800012  74.2434997 122.1649988 135.9757488  74.7550294 122.1531050
  12.4390012  86.1354997 128.2449988  12.5280012  87.0794997 128.1129988
  11.8010012  85.8604997 127.5869988  12.3649081  86.2274830 128.1379614
  11.3720012  85.3904997 131.6639988  11.3340012  84.7444997 132.3689988
  11.0500012  84.9244997 130.8929988  11.3232333  85.2389408 131.6562978
   3.7410012  85.0054997 133.2569988   3.7820012  84.3794997 133.9799988
   4.4440012  85.6294997 133.4389988   3.8416363  85.0041196 133.3806044
  15.0780012  88.3294997 129.9649988  14.6380012  87.6094997 130.4159988
  15.0650012  89.0504997 130.5949988  15.0160226  88.3283731 130.1118494
   4.6640012  89.4554997 131.7919988   4.2950012  88.6534997 131.4219988
   5.6050012  89.2864997 131.8379988   4.7407289  89.3230153 131.7476316
   1.2740012  83.1154997 127.1849988   0.8270012  83.9614997 127.1659988
   0.7130012  82.5354997 126.6689988   1.1369900  83.1529916 127.1126801
   1.9850012  85.2774997 129.3099988   2.1980012  84.5074997 129.8379988
   2.7230012  85.3664997 128.7069988   2.1139044  85.1841968 129.3007123
  12.1900012  93.4344997 130.1769988  12.8100012  92.7574997 129.9039988
  11.9820012  93.2164997 131.0859988  12.2466726  93.3124800 130.2624812
   9.7620012  87.8234997 132.0699988  10.0660012  87.1374997 131.4749988
  10.4830012  87.9414997 132.6879988   9.9010671  87.7456305 132.0721816
  18.4250012  79.4244997 132.9309988  18.4740012  80.0344997 133.6659988
  18.8500012  79.8854997 132.2079988  18.4891746  79.5703796 132.9339175
  12.9030012  82.2174997 132.3969988  13.0450012  81.2714997 132.4179988
  12.7960012  82.4244997 131.4689988  12.9079919  82.1158246 132.2743408
   6.0570012  80.3184997 129.6699988   6.1010012  81.1784997 129.2509988
   5.6000012  79.7664997 129.0359988   6.0012240  80.3614422 129.5269864
  13.7800012  80.4494997 128.0709988  14.4260012  80.1204997 128.6949988
  14.2900012  80.9674997 127.4479988  13.9374299  80.4744450 128.0722731
   2.6780012  82.7154997 130.4319988   3.3310012  82.1654997 130.8639988
   2.7020012  82.4414997 129.5149988   2.7706683  82.6031466 130.3672123
   7.8340012  84.2654997 129.6469988   8.4500012  83.7394997 130.1569988
   7.2480012  83.6254997 129.2439988   7.8390810  84.1069208 129.6623173
  18.8160012  80.9024997 135.1659988  18.1280012  81.5604997 135.0709988
  18.8320012  80.7054997 136.1029988  18.7239540  80.9659819 135.2795990
   4.8680012  79.2364997 133.7439988   4.6490012  79.7664997 132.9779988
   4.2000012  79.4634997 134.3909988   4.7477600  79.3396906 133.7266379
  12.2370012  88.7364997 127.2879988  11.9410012  88.4144997 126.4369988
  11.9120012  89.6364997 127.3289988  12.1526371  88.8140215 127.1771801
   7.4370012  86.9124997 134.0309988   6.6970012  87.5104997 134.1349988
   8.1510012  87.4664997 133.7159988   7.4322237  87.0692831 134.0026465
  15.5440012  79.7404997 130.0509988  15.3280012  78.9744997 130.5839988
  16.1990012  80.2124997 130.5639988  15.6030632  79.6995889 130.1932861
   4.4610012  81.1284997 131.6959988   5.0750012  81.7614997 132.0689988
   4.9730012  80.6564997 131.0399988   4.6141981  81.1512267 131.6582908
   5.8440012  88.8764997 134.8179988   5.8390012  89.7564997 134.4399988
   4.9910012  88.7934997 135.2429988   5.7279464  88.9856117 134.8237907
   1.9650012  88.5474997 125.5999988   1.6930012  88.7764997 124.7119988
   2.0110012  89.3854997 126.0609988   1.9339482  88.6921318 125.5406273
  15.5900012  90.1694997 132.3129988  14.6490012  90.2274997 132.4749988
  15.8670012  91.0754997 132.1759988  15.4984679  90.2999443 132.3166815
  15.8910012  78.4554997 133.7309988  15.1550012  79.0664997 133.6929988
  16.5740012  78.8704997 133.2039988  15.8826541  78.5951374 133.6545832
   8.8940012  76.5424997 131.1959988   8.7770012  75.5934997 131.1419988
   8.0390012  76.8744997 131.4699988   8.7624212  76.4575571 131.2256497
  13.8420012  91.9504997 128.9379988  14.2680012  91.2434997 128.4529988
  14.1590012  92.7514997 128.5219988  13.9431683  91.9621017 128.8153680
  15.0020012  89.8514997 127.4469988  14.7440012  89.1614997 126.8359988
  15.0730012  89.4084997 128.2929988  14.9762856  89.6972124 127.4776885
  16.6880012  88.4174997 135.9239988  16.8280012  87.8264997 135.1849988
  16.8550012  89.2904997 135.5679988  16.7297411  88.4545428 135.7746894
  11.1610012  85.3794997 125.6969988  10.4490012  85.9144997 125.3449988
  11.8520012  85.4354997 125.0369988  11.1570132  85.4602543 125.5596289
  11.2140012  83.8374997 122.7359988  11.9150012  83.8594997 123.3869988
  11.5170012  83.2094997 122.0789988  11.3508133  83.7557070 122.7363369
  18.5300012  84.7574997 133.9899988  17.8770012  85.4524997 134.0799988
  18.9950012  84.9674997 133.1809988  18.5035274  84.8810643 133.8928462
  14.5660012  85.5894997 126.6489988  13.8340012  85.8174997 127.2219988
  15.0140012  84.8754997 127.1029988  14.5262725  85.5242145 126.7888816
  14.4640012  83.7634997 135.7159988  14.5440012  84.5264997 136.2879988
  13.8620012  84.0424997 135.0259988  14.3935756  83.9057134 135.7010589
   6.2120012  86.2194997 128.5309988   5.8810012  85.8494997 127.7129988
   6.8000012  85.5494997 128.8779988   6.2461873  86.0781156 128.4658102
   7.5780012  89.6474997 131.2119988   7.4840012  89.0694997 130.4559988
   8.3080012  89.2764997 131.7089988   7.6637387  89.5181663 131.1755342
   6.5780012  84.9884997 132.1649988   7.1440012  85.1094997 131.4019988
   6.8970012  85.6254997 132.8029988   6.6985474  85.0912219 132.1469862
  12.8870012  90.4914997 132.8989988  12.6470012  91.1534997 133.5469988
  12.6890012  89.6574997 133.3239988  12.8273808  90.4693134 133.0451524
   7.4580012  89.3874997 136.8819988   7.1470012  90.1694997 137.3369988
   6.8080012  89.2344997 136.1959988   7.3275558  89.4739105 136.8515871
  13.4370012  84.7514997 124.3339988  14.0170012  84.9014997 125.0809988
  13.8510012  85.2224997 123.6099988  13.5722997  84.8356578 124.3384058
   4.3780012  85.5854997 136.1099988   4.4490012  86.2364997 136.8089988
   3.4880012  85.6884997 135.7749988   4.2673005  85.6885427 136.1603495
  11.1640012  91.4884997 127.7689988  11.6380012  91.7834997 128.5459988
  10.6010012  92.2264997 127.5359988  11.1528184  91.6287247 127.8439628
   5.6980012  91.4594997 137.6449988   5.7050012  91.3234997 136.6979988
   4.7820012  91.3414997 137.8969988   5.5751714  91.4249430 137.5494666
  17.1360012  76.5014997 124.1469988  16.2360012  76.6404997 124.4419988
  17.3880012  77.3324997 123.7449988  17.0468702  76.6329074 124.1330205
   5.2020012  85.2894997 126.1199988   4.9100012  86.0574997 125.6299988
   4.5280012  84.6294997 125.9579988   5.0708111  85.3055587 126.0308978
  18.3250012  90.8674997 122.5229988  18.3990012  91.8064997 122.6939988
  19.2310012  90.5624997 122.4669988  18.4575100  90.9546722 122.5388119
   1.2950012  87.6524997 134.9349988   0.7940012  87.6244997 134.1199988
   1.3000012  86.7464997 135.2449988   1.2270944  87.5262396 134.8653226
   1.0450012  90.4324997 131.8189988   1.9910012  90.2884997 131.7999988
   0.9330012  91.2164997 132.3559988   1.1592727  90.5188046 131.8890072
  19.2430012  91.0984997 137.5019988  19.1940012  90.1434997 137.4649988
  18.4160012  91.3664997 137.9029988  19.1244940  91.0038998 137.5511375
  10.2220012  90.6724997 136.3779988  10.3090012  91.4984997 136.8529988
   9.3580012  90.3424997 136.6269988  10.1171964  90.7409878 136.4766549
  10.6360012  94.4444997 126.1839988  10.5610012  94.3234997 125.2369988
  10.6690012  95.3944997 126.3019988  10.6302068  94.5562646 126.0704967
   4.2890012  93.2334997 127.9649988   4.4420012  92.8854997 128.8429988
   3.4390012  92.8774997 127.7099988   4.1949166  93.1376216 128.0508079
  13.7380012  93.5984997 123.1859988  14.1130012  92.8544997 122.7149988
  13.7420012  93.3284997 124.1049988  13.7899125  93.4600986 123.2456483
  13.4070012  93.5244997 125.9349988  12.4710012  93.6244997 126.1139988
  13.6870012  92.8154997 126.5139988  13.3169553  93.4423406 126.0377087
  16.3950012  82.5914997 137.9819988  15.9880012  83.0724997 137.2609988
  16.4360012  81.6864997 137.6739988  16.3448437  82.5349374 137.8416683
   3.5440012  88.9754997 135.9789988   3.7600012  88.6144997 136.8379988
   2.6890012  88.6014997 135.7689988   3.4579292  88.8754111 136.0683386
   6.1630012  77.4454997 131.9739988   5.3010012  77.3584997 131.5659988
   6.1400012  78.3014997 132.4019988   6.0420409  77.5492883 131.9760589
  10.8260012  77.1674997 135.3489988  11.2460012  76.7524997 136.1019988
   9.8930012  76.9894997 135.4659988  10.7573644  77.0865900 135.4679539
  14.1520012  80.9234997 136.2019988  13.6380012  80.7974997 136.9999988
  13.9970012  81.8354997 135.9579988  14.0606852  81.0296132 136.2782158
  14.9150012  85.7844997 121.9639988  14.9570012  85.5614997 121.0339988
  15.7640012  86.1834997 122.1529988  15.0355280  85.8079438 121.8623554
  10.4870012  79.6604997 122.6339988  10.2340012  79.6794997 123.5569988
  10.2310012  78.7884997 122.3319988  10.4177481  79.5452558 122.7196175
   6.2540012  82.4114997 133.0689988   5.6120012  82.3704997 133.7779988
   6.2910012  83.3374997 132.8309988   6.1710664  82.5311430 133.1339219
   6.2510012  82.6324997 127.9809988   5.3580012  82.2914997 127.9219988
   6.7010012  82.2554997 127.2249988   6.1898130  82.5349631 127.8707702
  11.7860012  83.0484997 126.7979988  11.3770012  83.8634997 126.5069988
  12.5070012  82.9084997 126.1839988  11.8274537  83.1412018 126.6751342
  10.8880012  83.2234997 138.2859988  10.3260012  82.5194997 138.6069988
  11.7150012  83.1034997 138.7539988  10.9227095  83.1107883 138.3932330
  12.7910012  82.4944997 129.6119988  12.5960012  83.0994997 128.8969988
  12.9720012  81.6604997 129.1779988  12.7887614  82.4646300 129.4554405
   4.0040012  82.7314997 134.9359988   3.9660012  83.1314997 135.8049988
   3.5130012  81.9144997 135.0269988   3.9324684  82.6758069 135.0671059
   7.3700012  80.1054997 121.7349988   6.9390012  79.6604997 122.4649988
   6.6520012  80.4774997 121.2229988   7.2139438  80.0948940 121.7656799
   0.6120012  79.8474997 128.7869988   1.2430012  79.8184997 129.5059988
   1.0610012  79.4224997 128.0559988   0.7590918  79.7860836 128.7866441
   1.8860012  80.5934997 124.2109988   2.3600012  81.1844997 123.6259988
   1.1690012  81.1244997 124.5579988   1.8539341  80.7460867 124.1778836
  12.0550012  84.1324997 134.2829988  12.3780012  83.5014997 133.6399988
  11.6150012  83.5974997 134.9439988  12.0397484  83.9738387 134.2843198
   8.8320012  80.0594997 129.0669988   7.9210012  80.1164997 129.3559988
   9.3380012  79.9994997 129.8779988   8.7756899  80.0591941 129.2161184
   3.6610012  81.6884997 127.8939988   2.7710012  81.7884997 127.5539988
   3.9570012  80.8464997 127.5479988   3.5792823  81.5883546 127.8007213
   7.3140012  81.6884997 125.5509988   8.2450012  81.8174997 125.7289988
   7.0990012  82.3584997 124.9009988   7.4124247  81.7966565 125.4875747
  13.2370012  79.2944997 132.3319988  12.5610012  79.4254997 132.9959988
  12.7520012  79.1394997 131.5209988  13.0787146  79.2915157 132.3134469
   5.9880012  82.8834997 123.1169988   5.4450012  82.5034997 122.4259988
   6.8210012  83.0774997 122.6889988   6.0263631  82.8577125 122.9644501
  16.5250012  94.9664997 138.6079988  16.7250012  95.3904997 137.7739988
  17.1800012  95.3094997 139.2149988  16.6410072  95.0709857 138.5758592
   4.1230012  87.4404997 138.2159988   4.8550012  87.6944997 138.7779988
   3.3430012  87.6444997 138.7319988   4.1177073  87.5028160 138.3626151
  10.1520012  82.8474997 130.9539988  10.7170012  82.3004997 130.4069988
  10.0050012  82.3254997 131.7429988  10.2093380  82.7022259 130.9858695
   5.1540012  78.9834997 127.3729988   4.8370012  78.0814997 127.3369988
   5.9360012  78.9854997 126.8199988   5.2162408  78.8602474 127.2933569
   8.7790012  81.2354997 133.3679988   7.9430012  81.6894997 133.4789988
   9.3030012  81.5114997 134.1199988   8.7355416  81.3348660 133.4848119
   9.3230012  87.4484997 125.0529988   8.5780012  86.9414997 124.7309988
   9.1890012  87.4974997 125.9999988   9.2028776  87.3856940 125.1368647
  16.4730012  86.5814997 133.8399988  17.1150012  87.0384997 133.2959988
  15.6430012  86.6944997 133.3769988  16.4485963  86.6592704 133.7030177
  13.2210012  80.2624997 123.2519988  12.2820012  80.3744997 123.1009988
  13.5180012  81.1194997 123.5589988  13.1327583  80.3935981 123.2728337
  10.8420012  87.6324997 136.2899988  10.4970012  87.2514997 137.0969988
  10.6420012  88.5664997 136.3609988  10.7677527  87.7065135 136.4100689
  13.9390012  82.1294997 124.9129988  14.8310012  81.9924997 125.2319988
  13.9960012  82.9204997 124.3759988  14.0686504  82.2176052 124.8840818
   4.4480012  86.7434997 130.8229988   5.1930012  86.7414997 130.2219988
   4.5260012  85.9204997 131.3039988   4.5604995  86.6318887 130.8058282
  11.4490012  88.9074997 124.0789988  11.1530012  89.7334997 124.4599988
  10.7460012  88.2874997 124.2749988  11.3134914  88.9368199 124.1576443
   1.4560012  85.2044997 136.1379988   1.6790012  84.7864997 136.9699988
   0.8540012  84.5914997 135.7149988   1.4051759  85.0644668 136.1947022
   8.4720012  84.7214997 138.3509988   8.1760012  84.5554997 137.4559988
   9.4040012  84.5014997 138.3399988   8.5574166  84.6690640 138.2270536
  13.0930012  90.0944997 136.2409988  12.1920012  90.2774997 135.9729988
  13.1270012  90.3534997 137.1609988  12.9743139  90.1545849 136.3288099
  18.8240012  82.3394997 124.6079988  18.2700012  81.9434997 123.9359988
  18.9240012  83.2494997 124.3299988  18.7617059  82.4083586 124.4784401
  18.7870012  88.1394997 137.4449988  17.9360012  88.3774997 137.0779988
  19.3780012  88.1224997 136.6919988  18.7502487  88.1698258 137.2928893
  17.1190012  91.1254997 125.0729988  16.7460012  90.2994997 125.3819988
  17.3970012  90.9424997 124.1749988  17.1055222  90.9877430 124.9939473
  14.2800012  85.9334997 132.0939988  13.3510012  85.7014997 132.0669988
  14.7310012  85.1564997 131.7639988  14.2139216  85.7967238 132.0456917
   6.8230012  90.2614997 128.2269988   7.3500012  91.0344997 128.0269988
   5.9430012  90.4864997 127.9249988   6.7762031  90.3977545 128.1587912
   2.5780012  85.1234997 122.8139988   3.1940012  85.7504997 123.1939988
   1.7160012  85.4394997 123.0859988   2.5457698  85.2519430 122.9027183
   8.2500012  87.9244997 127.8029988   8.0090012  88.8494997 127.8449988
   7.5090012  87.4654997 128.1999988   8.1169225  87.9890933 127.8623742
   8.7650012  92.0734997 134.1189988   9.1270012  92.9284997 133.8849988
   9.2960012  91.7814997 134.8589988   8.8864473  92.1511060 134.1870855
   6.9330012  92.9464997 127.3489988   5.9830012  93.0514997 127.3999988
   7.2850012  93.7664997 127.6929988   6.8504195  93.0718800 127.4025502
  12.3090012  88.1724997 133.8189988  11.8830012  87.9454997 134.6459988
  12.8890012  87.4344997 133.6369988  12.3291868  88.0415299 133.9075830
  14.5120012  89.1014997 122.8929988  14.8650012  88.7214997 123.6969988
  13.5630012  89.0084997 122.9799988  14.4320918  89.0368956 123.0148532
  14.9670012  92.7244997 136.2889988  14.3660012  92.1694997 135.7929988
  15.2490012  93.3914997 135.6619988  14.9228804  92.7386625 136.1364849
  19.0150012  93.5814997 123.0939988  19.7590012  94.1674997 122.9539988
  18.3210012  94.1494997 123.4269988  19.0229899  93.7385798 123.1198778
   3.0900012  79.9574997 135.6959988   2.1970012  80.2964997 135.6279988
   2.9910012  79.1024997 136.1139988   2.9544164  79.8882588 135.7432235
  15.3780012  87.7744997 125.1199988  15.1000012  87.0464997 125.6759988
  16.3050012  87.8934997 125.3249988  15.4653124  87.6908802 125.2238845
   2.7410012  91.7624997 134.1309988   2.9580012  90.8304997 134.0999988
   2.9870012  92.0364997 135.0139988   2.8039549  91.6720636 134.2461763
   8.6030012  90.2134997 121.3399988   8.8420012  89.4654997 120.7929988
   8.3340012  89.8254997 122.1729988   8.5993675  90.0586638 121.3776865
   7.5400012  89.7834997 123.7959988   7.6860012  89.2634997 124.5859988
   7.5370012  90.6904997 124.1029988   7.5595792  89.8348842 123.9456117
   3.9930012  87.0364997 124.3069988   3.3070012  87.3884997 124.8739988
   4.5150012  87.7994997 124.0599988   3.9696852  87.1878578 124.3512118
  11.8240012  79.6984997 134.5859988  12.5230012  79.7724997 135.2359988
  11.4430012  78.8344997 134.7399988  11.8681767  79.5917624 134.6958322
  12.6090012  79.3504997 125.6829988  12.8290012  79.8224997 124.8799988
  13.1670012  79.7454997 126.3529988  12.7144968  79.4684285 125.6637331
  10.2770012  91.4814997 124.5459988   9.4610012  91.9784997 124.5979988
  10.8070012  91.9564997 123.9059988  10.2369161  91.6137722 124.4665956
   9.8090012  81.0784997 126.5179988  10.6210012  81.5834997 126.5639988
   9.5640012  80.9334997 127.4319988   9.8870520  81.1280375 126.6478517
  10.3440012  82.0644997 135.7019988  10.4630012  82.6384997 136.4599988
  11.0000012  81.3764997 135.8169988  10.4489025  82.0499858 135.8211321
  10.6920012  78.1594997 127.4559988  10.3460012  78.7774997 128.0999988
  11.3510012  78.6604997 126.9739988  10.7336968  78.3116278 127.4789383
   7.6160012  92.5254997 124.5269988   7.7760012  93.3244997 124.0269988
   7.4180012  92.8314997 125.4119988   7.6111637  92.6764020 124.5781144
   6.3500012  79.2224997 124.1429988   6.2670012  80.1114997 124.4899988
   7.2400012  78.9574997 124.3749988   6.4589469  79.3081430 124.2217626
  16.5490012  79.9714997 136.5369988  15.6320012  80.2344997 136.4499988
  16.8840012  79.9684997 135.6409988  16.4688613  80.0070761 136.4038837
  15.1510012  83.7224997 130.6329988  14.3530012  83.3074997 130.3049988
  15.5960012  83.0314997 131.1239988  15.1019885  83.5723543 130.6544889
   4.6090012  89.6504997 123.2039988   5.2010012  90.3494997 123.4799988
   5.0680012  89.2174997 122.4839988   4.7521142  89.6877049 123.1444830
   2.9250012  82.3144997 122.3199988   2.8800012  83.2534997 122.4979988
   2.0370012  82.0784997 122.0499988   2.7988574  82.4111892 122.3078912
  16.2370012  92.9784997 132.2559988  16.0820012  93.6564997 131.5979988
  17.1700012  93.0504997 132.4589988  16.3418657  93.0809546 132.1934360
   3.7330012  77.0964997 130.9929988   3.5040012  77.1554997 130.0649988
   3.2900012  76.3044997 131.2989988   3.6418530  76.9975753 130.9074786
   2.6630012  91.0364997 127.1529988   1.8310012  91.5094997 127.1799988
   3.2090012  91.5464997 126.5549988   2.6230352  91.1701332 127.0758463
   1.9510012  93.6494997 138.4829988   2.4920012  93.4324997 139.2429988
   1.4700012  92.8434997 138.2929988   1.9599951  93.5109270 138.5612576
   6.5490012  92.5684997 140.1029988   7.3160012  92.1094997 140.4439988
   6.5270012  92.3424997 139.1739988   6.6511275  92.4750186 140.0240101
  10.6410012  92.0764997 121.4789988   9.9970012  91.4454997 121.7999988
  11.4030012  91.5454997 121.2469988  10.6558077  91.9182920 121.4916011
  13.1260012  90.9484997 138.8329988  12.7750012  90.0924997 139.0759988
  13.8520012  91.0914997 139.4399988  13.1760769  90.8505636 138.9483619
  15.2450012  91.8934997 121.7119988  15.5280012  91.0994997 122.1649988
  15.9850012  92.1264997 121.1519988  15.3838006  91.8163376 121.6982715
   1.8580012  87.4594997 139.4369988   2.0020012  86.5574997 139.1509988
   1.0860012  87.7454997 138.9499988   1.7732753  87.3746816 139.3319505
   6.2000012  87.8034997 121.5699988   6.2640012  87.0094997 122.1009988
   6.8530012  87.6844997 120.8799988   6.2970241  87.6787148 121.5494317
   8.5140012  87.4294997 138.8699988   8.1850012  87.7004997 138.0129988
   8.6660012  86.4884997 138.7829988   8.4894809  87.3393862 138.7408244
  11.5520012  88.8504997 121.3059988  11.2830012  89.0304997 122.2069988
  11.3460012  87.9244997 121.1739988  11.4873427  88.7500261 121.4115073
  14.2480012  87.3454997 136.2529988  14.9940012  87.9334997 136.1339988
  13.4910012  87.9274997 136.3169988  14.2477820  87.5047143 136.2453590
   2.6910012  84.6594997 138.8569988   3.0990012  83.8024997 138.7359988
   2.4310012  84.6744997 139.7779988   2.7117568  84.5440807 138.9649588
   7.3490012  85.7754997 123.8759988   6.8890012  85.2914997 124.5619988
   7.6040012  85.1074997 123.2399988   7.3204902  85.6188731 123.8839334
   6.6380012  83.6684997 136.2319988   6.0200012  84.3434997 136.5119988
   6.9820012  83.9894997 135.3979988   6.5999132  83.8042411 136.1576262
   8.4200012  84.0184997 122.1379988   8.2400012  83.8644997 121.2109988
   9.3700012  84.1264997 122.1829988   8.5237776  84.0120175 122.0171843
  11.6580012  86.1404997 139.5089988  12.6110012  86.2234997 139.4819988
  11.4970012  85.4284997 140.1289988  11.7666426  86.0556746 139.5890579
  17.8100012  86.3734997 121.5839988  17.5360012  85.9484997 120.7709988
  17.8490012  87.3044997 121.3669988  17.7777699  86.4412484 121.4433610
   6.9770012  81.0234997 137.3139988   7.1270012  80.2944997 136.7119988
   6.9800012  81.8004997 136.7549988   6.9979302  81.0287851 137.1560692
   7.3900012  79.3934997 134.8069988   7.9260012  79.8444997 134.1549988
   6.5380012  79.2854997 134.3839988   7.3482178  79.4406390 134.6605756
   8.9720012  84.8324997 135.0459988   9.7220012  84.6764997 134.4729988
   8.6330012  85.6844997 134.7709988   9.0288921  84.9262968 134.9303561
  13.3870012  82.6474997 140.0749988  13.5800012  81.7164997 139.9629988
  14.2450012  83.0724997 140.0639988  13.5292934  82.5776531 140.0582031
  14.7040012  85.4364997 138.1519988  14.4230012  86.1454997 137.5739988
  15.6470012  85.3634997 138.0009988  14.7929291  85.5236711 138.0524967
   5.4560012  82.2214997 139.2259988   4.6890012  81.6894997 139.0149988
   6.1350012  81.9114997 138.6259988   5.4427877  82.1068300 139.1160716
   8.1960012  76.8494997 135.2379988   8.0970012  77.7964997 135.1329988
   7.4530012  76.4774997 134.7619988   8.0821184  76.9285863 135.1593621
   9.4600012  81.1714997 138.8019988   9.2240012  80.9514997 139.7029988
   8.6760012  80.9644997 138.2919988   9.3218504  81.1134586 138.8563431
  12.1750012  80.2984997 137.8769988  11.2280012  80.3304997 138.0099988
  12.4880012  79.6734997 138.5309988  12.0876707  80.2183998 137.9836060
  13.8090012  78.9324997 139.8829988  13.7130012  77.9804997 139.8769988
  13.4880012  79.2014997 140.7429988  13.7524070  78.8384035 139.9985441
   3.6360012  80.1424997 138.9299988   3.8480012  79.4354997 138.3199988
   3.5250012  79.7044997 139.7739988   3.6499721  79.9867084 138.9606843
   8.4170012  76.1434997 137.9089988   9.1290012  75.5034997 137.8949988
   8.3160012  76.4104997 136.9959988   8.5008066  76.0920079 137.7835677
   8.7710012  77.8264997 139.9629988   8.6390012  77.3504997 139.1429988
   8.1720012  78.5704997 139.9079988   8.6719071  77.8619618 139.8432886
   8.3170012  94.7094997 123.1389988   9.2500012  94.8674997 123.2829988
   8.0530012  95.3844997 122.5149988   8.4089888  94.8224510 123.0742842
   1.8860012  89.3454997 122.6219988   2.8000012  89.4244997 122.8959988
   1.8930012  88.6584997 121.9559988   2.0121131  89.2633961 122.5694393
   0.5350012  94.7384997 127.6999988  -0.1119988  94.2764997 127.1669988
   0.8890012  94.0664997 128.2819988   0.4943849  94.5844723 127.7057959
   1.4050012  92.8194997 129.5039988   1.0700012  91.9394997 129.6759988
   1.6270012  93.1644997 130.3689988   1.3891783  92.7457500 129.6444208
  18.9530012  93.6284997 132.4849988  18.9320012  93.8134997 133.4239988
  19.6440012  94.1974997 132.1439988  19.0434618  93.7306606 132.5673864
  18.5170012  93.1964997 135.4069988  18.0290012  92.4604997 135.0349988
  19.0660012  92.8024997 136.0849988  18.5244820  93.0425889 135.4477813
  16.9670012  88.9854997 140.0449988  16.1010012  88.8804997 140.4389988
  17.3440012  89.7444997 140.4909988  16.8993308  89.0736900 140.1592393
  18.2680012  87.2424997 125.5589988  19.1180012  87.6634997 125.6859988
  18.2740012  86.5024997 126.1659988  18.3851372  87.2000803 125.6584344
  18.6630012  85.2954997 127.3819988  17.9360012  84.8164997 127.7799988
  19.2440012  85.5014997 128.1149988  18.6420473  85.2578103 127.5354528
  18.4220012  88.0804997 132.3299988  19.2550012  87.7024997 132.0499988
  18.5340012  89.0234997 132.2109988  18.5512647  88.1562218 132.2755487
  16.9080012  90.9584997 134.6369988  16.2610012  91.2834997 135.2629988
  16.3910012  90.5184997 133.9629988  16.7494029  90.9435004 134.6315827
  18.9310012  85.1964997 123.7739988  18.4090012  85.5534997 123.0549988
  18.8980012  85.8714997 124.4519988  18.8551634  85.3365413 123.7673145
  17.2800012  82.4364997 122.3239988  17.3760012  83.1034997 121.6439988
  17.1400012  81.6204997 121.8429988  17.2742272  82.4175655 122.1658347
  16.4490012  83.8164997 127.9449988  16.2990012  82.8714997 127.9249988
  16.0960012  84.0974997 128.7889988  16.3807448  83.7251481 128.0563705
   1.4850012  85.8944997 131.9559988   1.6690012  85.8124997 131.0199988
   2.3340012  85.7704997 132.3789988   1.6250151  85.8665073 131.8851451
  17.3060012  85.7864997 137.5839988  17.8890012  85.0524997 137.7759988
  17.8700012  86.5584997 137.6309988  17.4619769  85.7904227 137.6166159
  18.8020012  83.6894997 138.2689988  17.9390012  83.3104997 138.1029988
  19.4070012  82.9504997 138.1939988  18.7656119  83.5378268 138.2361528
  16.5270012  79.8444997 121.4419988  17.1380012  79.4734997 122.0789988
  15.6910012  79.4234997 121.6379988  16.4975032  79.7367554 121.5557035
  16.1600012  81.3994997 126.4079988  16.4400012  80.4924997 126.5319988
  16.9190012  81.8334997 126.0189988  16.3009277  81.3340942 126.3723682
  16.7720012  81.9804997 131.8439988  17.7050012  82.1924997 131.8089988
  16.5370012  82.0824997 132.7659988  16.8679244  82.0233100 131.9638892
  16.8010012  82.7174997 134.6199988  15.9580012  82.9854997 134.9859988
  17.2430012  83.5394997 134.4089988  16.7454158  82.8653291 134.6415491
   1.0820012  81.1654997 138.0969988   2.0020012  81.0434997 138.3329988
   0.6330012  80.4154997 138.4859988   1.1471580  81.0473727 138.1819006
  19.0840012  76.6974997 139.9729988  19.4340012  76.0434997 139.3679988
  19.2310012  77.5344997 139.5329988  19.1517887  76.7211548 139.8306858
  16.7730012  78.6624997 126.4559988  16.9560012  78.2134997 127.2819988
  16.1740012  78.0774997 125.9929988  16.7170202  78.5219975 126.5063275
   2.3030012  79.4774997 130.9879988   2.7490012  78.6854997 131.2899988
   2.7700012  80.1934997 131.4179988   2.4270831  79.4660685 131.0874006
   0.6070012  82.4764997 132.0569988   1.0990012  82.2554997 131.2659988
   0.9700012  83.3174997 132.3379988   0.7233126  82.5598357 131.9867531
  18.6040012  78.8064997 138.3219988  17.6860012  79.0774997 138.2869988
  18.7270012  78.2714997 137.5379988  18.4949730  78.7712508 138.2111923
  18.6400012  78.7294997 122.9839988  19.0520012  78.0084997 122.5089988
  19.3220012  79.3994997 123.0429988  18.7885885  78.7212368 122.9268915
   0.9210012  78.7344997 126.1109988  -0.0039988  78.9434997 125.9819988
   1.3750012  79.2184997 125.4209988   0.8557292  78.8285343 126.0000720
  15.6920012  93.7184997 128.0569988  16.3440012  93.3714997 127.4489988
  16.2020012  94.2074997 128.7029988  15.8502637  93.7370597 128.0610236
   0.8850012  77.4724997 134.4549988   0.2200012  77.2264997 135.0989988
   0.4420012  78.0944997 133.8779988   0.7341318  77.5229410 134.4650898
   3.0770012  90.6474997 138.5999988   2.2560012  90.8224997 138.1389988
   2.8240012  90.5744997 139.5199988   2.9305585  90.6615544 138.6613561
   6.0310012  91.6224997 134.8579988   5.6060012  92.4314997 134.5759988
   6.9350012  91.7074997 134.5559988   6.0949975  91.7449300 134.7784816
  10.3420012  93.0214997 137.8179988  10.5270012  92.6874997 138.6959988
  11.1880012  93.3304997 137.4959988  10.4817539  93.0176047 137.8945605
  12.6870012  94.3074997 137.0619988  13.3640012  93.6744997 136.8219988
  13.0090012  94.7084997 137.8689988  12.8231637  94.2751154 137.1382793
  17.6040012  76.8964997 136.1409988  16.7920012  77.2214997 135.7539988
  17.8370012  76.1364997 135.6079988  17.5242203  76.8382758 136.0158880
   3.4330012  94.8784997 134.9059988   2.7120012  95.3184997 134.4549988
   3.0670012  94.6274997 135.7539988   3.2849651  94.9047242 134.9589640
   5.9000012  94.4784997 133.9359988   5.0350012  94.5504997 134.3399988
   5.8450012  95.0254997 133.1519988   5.7742085  94.5622685 133.8853362
  10.6100012  94.3664997 133.1109988  10.1540012  94.8954997 132.4569988
  10.7730012  94.9694997 133.8359988  10.5696068  94.5204607 133.1194838
  12.9380012  93.2444997 134.0559988  12.0330012  93.4094997 133.7899988
  13.3670012  94.0974997 133.9909988  12.8721324  93.3824339 134.0107976
  15.5420012  94.8144997 134.3509988  15.3600012  95.7304997 134.1409988
  15.7190012  94.4044997 133.5049988  15.5410210  94.8844822 134.2077885
   2.8470012  93.5014997 131.8159988   2.8290012  93.0764997 132.6729988
   3.6520012  93.1834997 131.4069988   2.9533529  93.4003013 131.8780946
   4.9890012  92.2114997 130.4709988   4.7700012  91.2954997 130.6409988
   5.8130012  92.3514997 130.9369988   5.0704420  92.1050520 130.5572774
   7.5260012  92.6814997 131.3199988   7.7390012  91.7934997 131.0329988
   7.5900012  92.6474997 132.2739988   7.5638232  92.5553102 131.4097397
  11.0340012  78.3454997 130.4639988  10.3600012  77.7164997 130.7199988
  11.5980012  77.8614997 129.8609988  11.0179230  78.1938744 130.4175340
  16.1770012  76.4534997 130.5769988  16.7810012  77.0004997 130.0749988
  15.3070012  76.7724997 130.3359988  16.1421208  76.5715137 130.4756886
  17.9040012  77.5914997 128.9099988  18.5160012  77.0774997 128.3829988
  18.2860012  78.4694997 128.9329988  18.0393371  77.6397866 128.8410041
   3.3610012  76.9794997 128.2859988   2.5840012  76.7454997 127.7789988
   3.8910012  76.1824997 128.2949988   3.3262330  76.8396988 128.2177742
   2.1970012  76.7774997 124.0899988   2.6360012  77.3884997 123.4979988
   1.5640012  77.3154997 124.5639988   2.1714514  76.9339257 124.0730930
   7.9400012  76.9064997 128.0999988   8.8150012  77.2944997 128.0699988
   7.8040012  76.6914997 129.0219988   8.0413695  76.9305184 128.2206440
  13.4970012  76.9364997 129.7489988  13.5730012  77.0314997 128.7989988
  13.2220012  76.0284997 129.8779988  13.4702321  76.8267867 129.6365079
  14.8500012  76.9624997 125.4409988  14.1480012  77.5774997 125.2309988
  14.4060012  76.1244997 125.5719988  14.6936450  76.9335639 125.4299000
   2.0980012  92.7254997 124.9869988   1.4130012  92.6874997 124.3199988
   2.1020012  93.6384997 125.2759988   2.0046998  92.8436733 124.9346771
   4.0580012  78.6934997 122.5319988   4.5500012  78.0634997 122.0049988
   4.6820012  78.9894997 123.1949988   4.2095688  78.6473804 122.5495482
   9.0840012  78.9864997 124.9889988   9.2620012  78.3404997 125.6719988
   9.0310012  79.8204997 125.4559988   9.1011999  79.0108009 125.1455917
  10.9630012  93.9354997 123.3849988  11.8290012  94.3014997 123.2069988
  10.7160012  93.4954997 122.5709988  11.0482392  93.9261756 123.2506289
  17.6720012  93.4984997 126.0639988  17.4770012  92.7504997 125.4989988
  17.6330012  94.2564997 125.4809988  17.6400380  93.4986099 125.9078384
   3.3190012  77.4934997 137.8039988   2.9530012  76.7284997 138.2459988
   4.2320012  77.5224997 138.0899988   3.3922736  77.3925640 137.9032502
   5.2920012  76.8444997 139.3399988   6.1900012  76.5704997 139.1549988
   4.9050012  76.1014997 139.8039988   5.3626612  76.7065914 139.3773643
   3.9160012  93.6454997 122.0129988   3.6490012  93.9324997 122.8859988
   4.6880012  93.0994997 122.1649988   3.9837488  93.6110294 122.1531050
  13.7130012  76.1764997 139.5219988  13.7900012  75.7504997 140.3759988
  14.6070012  76.1904997 139.1789988  13.8443428  76.1200879 139.5925310
  16.8890012  92.2494997 138.2139988  16.1070012  92.0634997 137.6939988
  16.8170012  93.1784997 138.4319988  16.7722274  92.3496643 138.1723018
  31.2950012  86.1354997 128.2449988  31.3840012  87.0794997 128.1129988
  30.6570012  85.8604997 127.5869988  31.2209081  86.2274830 128.1379614
  30.2280012  85.3904997 131.6639988  30.1900012  84.7444997 132.3689988
  29.9060012  84.9244997 130.8929988  30.1792333  85.2389408 131.6562978
  22.5970012  85.0054997 133.2569988  22.6380012  84.3794997 133.9799988
  23.3000012  85.6294997 133.4389988  22.6976363  85.0041196 133.3806044
  33.9340012  88.3294997 129.9649988  33.4940012  87.6094997 130.4159988
  33.9210012  89.0504997 130.5949988  33.8720226  88.3283731 130.1118494
  23.5200012  89.4554997 131.7919988  23.1510012  88.6534997 131.4219988
  24.4610012  89.2864997 131.8379988  23.5967289  89.3230153 131.7476316
  20.1300012  83.1154997 127.1849988  19.6830012  83.9614997 127.1659988
  19.5690012  82.5354997 126.6689988  19.9929900  83.1529916 127.1126801
  20.8410012  85.2774997 129.3099988  21.0540012  84.5074997 129.8379988
  21.5790012  85.3664997 128.7069988  20.9699044  85.1841968 129.3007123
  31.0460012  93.4344997 130.1769988  31.6660012  92.7574997 129.9039988
  30.8380012  93.2164997 131.0859988  31.1026726  93.3124800 130.2624812
  28.6180012  87.8234997 132.0699988  28.9220012  87.1374997 131.4749988
  29.3390012  87.9414997 132.6879988  28.7570671  87.7456304 132.0721816
  37.2810012  79.4244997 132.9309988  37.3300012  80.0344997 133.6659988
  37.7060012  79.8854997 132.2079988  37.3451746  79.5703796 132.9339175
  31.7590012  82.2174997 132.3969988  31.9010012  81.2714997 132.4179988
  31.6520012  82.4244997 131.4689988  31.7639919  82.1158246 132.2743408
  24.9130012  80.3184997 129.6699988  24.9570012  81.1784997 129.2509988
  24.4560012  79.7664997 129.0359988  24.8572240  80.3614422 129.5269864
  32.6360012  80.4494997 128.0709988  33.2820012  80.1204997 128.6949988
  33.1460012  80.9674997 127.4479988  32.7934299  80.4744450 128.0722731
  21.5340012  82.7154997 130.4319988  22.1870012  82.1654997 130.8639988
  21.5580012  82.4414997 129.5149988  21.6266683  82.6031466 130.3672123
  26.6900012  84.2654997 129.6469988  27.3060012  83.7394997 130.1569988
  26.1040012  83.6254997 129.2439988  26.6950810  84.1069208 129.6623173
  37.6720012  80.9024997 135.1659988  36.9840012  81.5604997 135.0709988
  37.6880012  80.7054997 136.1029988  37.5799540  80.9659819 135.2795990
  23.7240012  79.2364997 133.7439988  23.5050012  79.7664997 132.9779988
  23.0560012  79.4634997 134.3909988  23.6037600  79.3396906 133.7266379
  31.0930012  88.7364997 127.2879988  30.7970012  88.4144997 126.4369988
  30.7680012  89.6364997 127.3289988  31.0086371  88.8140215 127.1771801
  26.2930012  86.9124997 134.0309988  25.5530012  87.5104997 134.1349988
  27.0070012  87.4664997 133.7159988  26.2882237  87.0692831 134.0026465
  34.4000012  79.7404997 130.0509988  34.1840012  78.9744997 130.5839988
  35.0550012  80.2124997 130.5639988  34.4590632  79.6995889 130.1932861
  23.3170012  81.1284997 131.6959988  23.9310012  81.7614997 132.0689988
  23.8290012  80.6564997 131.0399988  23.4701981  81.1512267 131.6582908
  24.7000012  88.8764997 134.8179988  24.6950012  89.7564997 134.4399988
  23.8470012  88.7934997 135.2429988  24.5839464  88.9856117 134.8237907
  20.8210012  88.5474997 125.5999988  20.5490012  88.7764997 124.7119988
  20.8670012  89.3854997 126.0609988  20.7899482  88.6921318 125.5406273
  34.4460012  90.1694997 132.3129988  33.5050012  90.2274997 132.4749988
  34.7230012  91.0754997 132.1759988  34.3544679  90.2999443 132.3166815
  34.7470012  78.4554997 133.7309988  34.0110012  79.0664997 133.6929988
  35.4300012  78.8704997 133.2039988  34.7386541  78.5951374 133.6545832
  27.7500012  76.5424997 131.1959988  27.6330012  75.5934997 131.1419988
  26.8950012  76.8744997 131.4699988  27.6184212  76.4575571 131.2256497
  32.6980012  91.9504997 128.9379988  33.1240012  91.2434997 128.4529988
  33.0150012  92.7514997 128.5219988  32.7991683  91.9621017 128.8153680
  33.8580012  89.8514997 127.4469988  33.6000012  89.1614997 126.8359988
  33.9290012  89.4084997 128.2929988  33.8322856  89.6972124 127.4776885
  35.5440012  88.4174997 135.9239988  35.6840012  87.8264997 135.1849988
  35.7110012  89.2904997 135.5679988  35.5857411  88.4545428 135.7746894
  30.0170012  85.3794997 125.6969988  29.3050012  85.9144997 125.3449988
  30.7080012  85.4354997 125.0369988  30.0130132  85.4602543 125.5596289
  30.0700012  83.8374997 122.7359988  30.7710012  83.8594997 123.3869988
  30.3730012  83.2094997 122.0789988  30.2068133  83.7557070 122.7363369
  37.3860012  84.7574997 133.9899988  36.7330012  85.4524997 134.0799988
  37.8510012  84.9674997 133.1809988  37.3595274  84.8810643 133.8928462
  33.4220012  85.5894997 126.6489988  32.6900012  85.8174997 127.2219988
  33.8700012  84.8754997 127.1029988  33.3822725  85.5242145 126.7888816
  33.3200012  83.7634997 135.7159988  33.4000012  84.5264997 136.2879988
  32.7180012  84.0424997 135.0259988  33.2495756  83.9057134 135.7010589
  25.0680012  86.2194997 128.5309988  24.7370012  85.8494997 127.7129988
  25.6560012  85.5494997 128.8779988  25.1021873  86.0781156 128.4658102
  26.4340012  89.6474997 131.2119988  26.3400012  89.0694997 130.4559988
  27.1640012  89.2764997 131.7089988  26.5197386  89.5181663 131.1755342
  25.4340012  84.9884997 132.1649988  26.0000012  85.1094997 131.4019988
  25.7530012  85.6254997 132.8029988  25.5545474  85.0912219 132.1469862
  31.7430012  90.4914997 132.8989988  31.5030012  91.1534997 133.5469988
  31.5450012  89.6574997 133.3239988  31.6833808  90.4693134 133.0451524
  26.3140012  89.3874997 136.8819988  26.0030012  90.1694997 137.3369988
  25.6640012  89.2344997 136.1959988  26.1835558  89.4739105 136.8515871
  32.2930012  84.7514997 124.3339988  32.8730012  84.9014997 125.0809988
  32.7070012  85.2224997 123.6099988  32.4282997  84.8356578 124.3384058
  23.2340012  85.5854997 136.1099988  23.3050012  86.2364997 136.8089988
  22.3440012  85.6884997 135.7749988  23.1233005  85.6885427 136.1603495
  30.0200012  91.4884997 127.7689988  30.4940012  91.7834997 128.5459988
  29.4570012  92.2264997 127.5359988  30.0088184  91.6287247 127.8439628
  24.5540012  91.4594997 137.6449988  24.5610012  91.3234997 136.6979988
  23.6380012  91.3414997 137.8969988  24.4311714  91.4249430 137.5494666
  35.9920012  76.5014997 124.1469988  35.0920012  76.6404997 124.4419988
  36.2440012  77.3324997 123.7449988  35.9028702  76.6329074 124.1330205
  24.0580012  85.2894997 126.1199988  23.7660012  86.0574997 125.6299988
  23.3840012  84.6294997 125.9579988  23.9268111  85.3055587 126.0308978
  37.1810012  90.8674997 122.5229988  37.2550012  91.8064997 122.6939988
  38.0870012  90.5624997 122.4669988  37.3135100  90.9546722 122.5388119
  20.1510012  87.6524997 134.9349988  19.6500012  87.6244997 134.1199988
  20.1560012  86.7464997 135.2449988  20.0830944  87.5262396 134.8653226
  19.9010012  90.4324997 131.8189988  20.8470012  90.2884997 131.7999988
  19.7890012  91.2164997 132.3559988  20.0152727  90.5188046 131.8890072
  38.0990012  91.0984997 137.5019988  38.0500012  90.1434997 137.4649988
  37.2720012  91.3664997 137.9029988  37.9804940  91.0038998 137.5511375
  29.0780012  90.6724997 136.3779988  29.1650012  91.4984997 136.8529988
  28.2140012  90.3424997 136.6269988  28.9731964  90.7409878 136.4766549
  29.4920012  94.4444997 126.1839988  29.4170012  94.3234997 125.2369988
  29.5250012  95.3944997 126.3019988  29.4862068  94.5562646 126.0704967
  23.1450012  93.2334997 127.9649988  23.2980012  92.8854997 128.8429988
  22.2950012  92.8774997 127.7099988  23.0509166  93.1376216 128.0508079
  32.5940012  93.5984997 123.1859988  32.9690012  92.8544997 122.7149988
  32.5980012  93.3284997 124.1049988  32.6459125  93.4600986 123.2456483
  32.2630012  93.5244997 125.9349988  31.3270012  93.6244997 126.1139988
  32.5430012  92.8154997 126.5139988  32.1729553  93.4423406 126.0377087
  35.2510012  82.5914997 137.9819988  34.8440012  83.0724997 137.2609988
  35.2920012  81.6864997 137.6739988  35.2008437  82.5349374 137.8416683
  22.4000012  88.9754997 135.9789988  22.6160012  88.6144997 136.8379988
  21.5450012  88.6014997 135.7689988  22.3139292  88.8754111 136.0683386
  25.0190012  77.4454997 131.9739988  24.1570012  77.3584997 131.5659988
  24.9960012  78.3014997 132.4019988  24.8980409  77.5492883 131.9760589
  29.6820012  77.1674997 135.3489988  30.1020012  76.7524997 136.1019988
  28.7490012  76.9894997 135.4659988  29.6133644  77.0865900 135.4679539
  33.0080012  80.9234997 136.2019988  32.4940012  80.7974997 136.9999988
  32.8530012  81.8354997 135.9579988  32.9166852  81.0296132 136.2782158
  33.7710012  85.7844997 121.9639988  33.8130012  85.5614997 121.0339988
  34.6200012  86.1834997 122.1529988  33.8915280  85.8079438 121.8623554
  29.3430012  79.6604997 122.6339988  29.0900012  79.6794997 123.5569988
  29.0870012  78.7884997 122.3319988  29.2737481  79.5452558 122.7196175
  25.1100012  82.4114997 133.0689988  24.4680012  82.3704997 133.7779988
  25.1470012  83.3374997 132.8309988  25.0270664  82.5311430 133.1339219
  25.1070012  82.6324997 127.9809988  24.2140012  82.2914997 127.9219988
  25.5570012  82.2554997 127.2249988  25.0458130  82.5349631 127.8707702
  30.6420012  83.0484997 126.7979988  30.2330012  83.8634997 126.5069988
  31.3630012  82.9084997 126.1839988  30.6834537  83.1412018 126.6751342
  29.7440012  83.2234997 138.2859988  29.1820012  82.5194997 138.6069988
  30.5710012  83.1034997 138.7539988  29.7787095  83.1107883 138.3932330
  31.6470012  82.4944997 129.6119988  31.4520012  83.0994997 128.8969988
  31.8280012  81.6604997 129.1779988  31.6447614  82.4646300 129.4554405
  22.8600012  82.7314997 134.9359988  22.8220012  83.1314997 135.8049988
  22.3690012  81.9144997 135.0269988  22.7884684  82.6758069 135.0671059
  26.2260012  80.1054997 121.7349988  25.7950012  79.6604997 122.4649988
  25.5080012  80.4774997 121.2229988  26.0699438  80.0948940 121.7656799
  19.4680012  79.8474997 128.7869988  20.0990012  79.8184997 129.5059988
  19.9170012  79.4224997 128.0559988  19.6150918  79.7860836 128.7866441
  20.7420012  80.5934997 124.2109988  21.2160012  81.1844997 123.6259988
  20.0250012  81.1244997 124.5579988  20.7099341  80.7460867 124.1778836
  30.9110012  84.1324997 134.2829988  31.2340012  83.5014997 133.6399988
  30.4710012  83.5974997 134.9439988  30.8957484  83.9738387 134.2843198
  27.6880012  80.0594997 129.0669988  26.7770012  80.1164997 129.3559988
  28.1940012  79.9994997 129.8779988  27.6316899  80.0591941 129.2161184
  22.5170012  81.6884997 127.8939988  21.6270012  81.7884997 127.5539988
  22.8130012  80.8464997 127.5479988  22.4352823  81.5883545 127.8007213
  26.1700012  81.6884997 125.5509988  27.1010012  81.8174997 125.7289988
  25.9550012  82.3584997 124.9009988  26.2684247  81.7966565 125.4875747
  32.0930012  79.2944997 132.3319988  31.4170012  79.4254997 132.9959988
  31.6080012  79.1394997 131.5209988  31.9347146  79.2915157 132.3134469
  24.8440012  82.8834997 123.1169988  24.3010012  82.5034997 122.4259988
  25.6770012  83.0774997 122.6889988  24.8823631  82.8577125 122.9644501
  35.3810012  94.9664997 138.6079988  35.5810012  95.3904997 137.7739988
  36.0360012  95.3094997 139.2149988  35.4970072  95.0709857 138.5758592
  22.9790012  87.4404997 138.2159988  23.7110012  87.6944997 138.7779988
  22.1990012  87.6444997 138.7319988  22.9737073  87.5028160 138.3626151
  29.0080012  82.8474997 130.9539988  29.5730012  82.3004997 130.4069988
  28.8610012  82.3254997 131.7429988  29.0653380  82.7022259 130.9858695
  24.0100012  78.9834997 127.3729988  23.6930012  78.0814997 127.3369988
  24.7920012  78.9854997 126.8199988  24.0722408  78.8602474 127.2933569
  27.6350012  81.2354997 133.3679988  26.7990012  81.6894997 133.4789988
  28.1590012  81.5114997 134.1199988  27.5915416  81.3348660 133.4848119
  28.1790012  87.4484997 125.0529988  27.4340012  86.9414997 124.7309988
  28.0450012  87.4974997 125.9999988  28.0588776  87.3856940 125.1368647
  35.3290012  86.5814997 133.8399988  35.9710012  87.0384997 133.2959988
  34.4990012  86.6944997 133.3769988  35.3045963  86.6592704 133.7030177
  32.0770012  80.2624997 123.2519988  31.1380012  80.3744997 123.1009988
  32.3740012  81.1194997 123.5589988  31.9887583  80.3935981 123.2728337
  29.6980012  87.6324997 136.2899988  29.3530012  87.2514997 137.0969988
  29.4980012  88.5664997 136.3609988  29.6237527  87.7065135 136.4100689
  32.7950012  82.1294997 124.9129988  33.6870012  81.9924997 125.2319988
  32.8520012  82.9204997 124.3759988  32.9246504  82.2176052 124.8840818
  23.3040012  86.7434997 130.8229988  24.0490012  86.7414997 130.2219988
  23.3820012  85.9204997 131.3039988  23.4164995  86.6318887 130.8058282
  30.3050012  88.9074997 124.0789988  30.0090012  89.7334997 124.4599988
  29.6020012  88.2874997 124.2749988  30.1694914  88.9368199 124.1576443
  20.3120012  85.2044997 136.1379988  20.5350012  84.7864997 136.9699988
  19.7100012  84.5914997 135.7149988  20.2611759  85.0644668 136.1947022
  27.3280012  84.7214997 138.3509988  27.0320012  84.5554997 137.4559988
  28.2600012  84.5014997 138.3399988  27.4134166  84.6690640 138.2270536
  31.9490012  90.0944997 136.2409988  31.0480012  90.2774997 135.9729988
  31.9830012  90.3534997 137.1609988  31.8303139  90.1545849 136.3288099
  37.6800012  82.3394997 124.6079988  37.1260012  81.9434997 123.9359988
  37.7800012  83.2494997 124.3299988  37.6177059  82.4083586 124.4784401
  37.6430012  88.1394997 137.4449988  36.7920012  88.3774997 137.0779988
  38.2340012  88.1224997 136.6919988  37.6062487  88.1698258 137.2928893
  35.9750012  91.1254997 125.0729988  35.6020012  90.2994997 125.3819988
  36.2530012  90.9424997 124.1749988  35.9615222  90.9877430 124.9939473
  33.1360012  85.9334997 132.0939988  32.2070012  85.7014997 132.0669988
  33.5870012  85.1564997 131.7639988  33.0699216  85.7967238 132.0456917
  25.6790012  90.2614997 128.2269988  26.2060012  91.0344997 128.0269988
  24.7990012  90.4864997 127.9249988  25.6322031  90.3977545 128.1587912
  21.4340012  85.1234997 122.8139988  22.0500012  85.7504997 123.1939988
  20.5720012  85.4394997 123.0859988  21.4017698  85.2519430 122.9027183
  27.1060012  87.9244997 127.8029988  26.8650012  88.8494997 127.8449988
  26.3650012  87.4654997 128.1999988  26.9729225  87.9890933 127.8623742
  27.6210012  92.0734997 134.1189988  27.9830012  92.9284997 133.8849988
  28.1520012  91.7814997 134.8589988  27.7424473  92.1511060 134.1870855
  25.7890012  92.9464997 127.3489988  24.8390012  93.0514997 127.3999988
  26.1410012  93.7664997 127.6929988  25.7064195  93.0718800 127.4025502
  31.1650012  88.1724997 133.8189988  30.7390012  87.9454997 134.6459988
  31.7450012  87.4344997 133.6369988  31.1851868  88.0415299 133.9075830
  33.3680012  89.1014997 122.8929988  33.7210012  88.7214997 123.6969988
  32.4190012  89.0084997 122.9799988  33.2880918  89.0368956 123.0148532
  33.8230012  92.7244997 136.2889988  33.2220012  92.1694997 135.7929988
  34.1050012  93.3914997 135.6619988  33.7788804  92.7386625 136.1364849
  37.8710012  93.5814997 123.0939988  38.6150012  94.1674997 122.9539988
  37.1770012  94.1494997 123.4269988  37.8789899  93.7385798 123.1198778
  21.9460012  79.9574997 135.6959988  21.0530012  80.2964997 135.6279988
  21.8470012  79.1024997 136.1139988  21.8104164  79.8882588 135.7432235
  34.2340012  87.7744997 125.1199988  33.9560012  87.0464997 125.6759988
  35.1610012  87.8934997 125.3249988  34.3213124  87.6908802 125.2238845
  21.5970012  91.7624997 134.1309988  21.8140012  90.8304997 134.0999988
  21.8430012  92.0364997 135.0139988  21.6599549  91.6720636 134.2461763
  27.4590012  90.2134997 121.3399988  27.6980012  89.4654997 120.7929988
  27.1900012  89.8254997 122.1729988  27.4553675  90.0586638 121.3776865
  26.3960012  89.7834997 123.7959988  26.5420012  89.2634997 124.5859988
  26.3930012  90.6904997 124.1029988  26.4155792  89.8348842 123.9456117
  22.8490012  87.0364997 124.3069988  22.1630012  87.3884997 124.8739988
  23.3710012  87.7994997 124.0599988  22.8256852  87.1878578 124.3512118
  30.6800012  79.6984997 134.5859988  31.3790012  79.7724997 135.2359988
  30.2990012  78.8344997 134.7399988  30.7241767  79.5917624 134.6958322
  31.4650012  79.3504997 125.6829988  31.6850012  79.8224997 124.8799988
  32.0230012  79.7454997 126.3529988  31.5704968  79.4684285 125.6637331
  29.1330012  91.4814997 124.5459988  28.3170012  91.9784997 124.5979988
  29.6630012  91.9564997 123.9059988  29.0929161  91.6137722 124.4665956
  28.6650012  81.0784997 126.5179988  29.4770012  81.5834997 126.5639988
  28.4200012  80.9334997 127.4319988  28.7430520  81.1280375 126.6478517
  29.2000012  82.0644997 135.7019988  29.3190012  82.6384997 136.4599988
  29.8560012  81.3764997 135.8169988  29.3049025  82.0499858 135.8211321
  29.5480012  78.1594997 127.4559988  29.2020012  78.7774997 128.0999988
  30.2070012  78.6604997 126.9739988  29.5896968  78.3116278 127.4789383
  26.4720012  92.5254997 124.5269988  26.6320012  93.3244997 124.0269988
  26.2740012  92.8314997 125.4119988  26.4671637  92.6764020 124.5781144
  25.2060012  79.2224997 124.1429988  25.1230012  80.1114997 124.4899988
  26.0960012  78.9574997 124.3749988  25.3149469  79.3081430 124.2217626
  35.4050012  79.9714997 136.5369988  34.4880012  80.2344997 136.4499988
  35.7400012  79.9684997 135.6409988  35.3248613  80.0070761 136.4038837
  34.0070012  83.7224997 130.6329988  33.2090012  83.3074997 130.3049988
  34.4520012  83.0314997 131.1239988  33.9579885  83.5723543 130.6544889
  23.4650012  89.6504997 123.2039988  24.0570012  90.3494997 123.4799988
  23.9240012  89.2174997 122.4839988  23.6081142  89.6877049 123.1444830
  21.7810012  82.3144997 122.3199988  21.7360012  83.2534997 122.4979988
  20.8930012  82.0784997 122.0499988  21.6548574  82.4111892 122.3078912
  35.0930012  92.9784997 132.2559988  34.9380012  93.6564997 131.5979988
  36.0260012  93.0504997 132.4589988  35.1978657  93.0809546 132.1934360
  22.5890012  77.0964997 130.9929988  22.3600012  77.1554997 130.0649988
  22.1460012  76.3044997 131.2989988  22.4978530  76.9975753 130.9074786
  21.5190012  91.0364997 127.1529988  20.6870012  91.5094997 127.1799988
  22.0650012  91.5464997 126.5549988  21.4790352  91.1701332 127.0758463
  20.8070012  93.6494997 138.4829988  21.3480012  93.4324997 139.2429988
  20.3260012  92.8434997 138.2929988  20.8159951  93.5109270 138.5612576
  25.4050012  92.5684997 140.1029988  26.1720012  92.1094997 140.4439988
  25.3830012  92.3424997 139.1739988  25.5071275  92.4750186 140.0240101
  29.4970012  92.0764997 121.4789988  28.8530012  91.4454997 121.7999988
  30.2590012  91.5454997 121.2469988  29.5118077  91.9182920 121.4916011
  31.9820012  90.9484997 138.8329988  31.6310012  90.0924997 139.0759988
  32.7080012  91.0914997 139.4399988  32.0320769  90.8505636 138.9483619
  34.1010012  91.8934997 121.7119988  34.3840012  91.0994997 122.1649988
  34.8410012  92.1264997 121.1519988  34.2398006  91.8163376 121.6982715
  20.7140012  87.4594997 139.4369988  20.8580012  86.5574997 139.1509988
  19.9420012  87.7454997 138.9499988  20.6292753  87.3746816 139.3319505
  25.0560012  87.8034997 121.5699988  25.1200012  87.0094997 122.1009988
  25.7090012  87.6844997 120.8799988  25.1530241  87.6787148 121.5494317
  27.3700012  87.4294997 138.8699988  27.0410012  87.7004997 138.0129988
  27.5220012  86.4884997 138.7829988  27.3454809  87.3393862 138.7408244
  30.4080012  88.8504997 121.3059988  30.1390012  89.0304997 122.2069988
  30.2020012  87.9244997 121.1739988  30.3433427  88.7500261 121.4115073
  33.1040012  87.3454997 136.2529988  33.8500012  87.9334997 136.1339988
  32.3470012  87.9274997 136.3169988  33.1037820  87.5047143 136.2453590
  21.5470012  84.6594997 138.8569988  21.9550012  83.8024997 138.7359988
  21.2870012  84.6744997 139.7779988  21.5677568  84.5440807 138.9649588
  26.2050012  85.7754997 123.8759988  25.7450012  85.2914997 124.5619988
  26.4600012  85.1074997 123.2399988  26.1764902  85.6188731 123.8839334
  25.4940012  83.6684997 136.2319988  24.8760012  84.3434997 136.5119988
  25.8380012  83.9894997 135.3979988  25.4559132  83.8042411 136.1576262
  27.2760012  84.0184997 122.1379988  27.0960012  83.8644997 121.2109988
  28.2260012  84.1264997 122.1829988  27.3797776  84.0120175 122.0171843
  30.5140012  86.1404997 139.5089988  31.4670012  86.2234997 139.4819988
  30.3530012  85.4284997 140.1289988  30.6226426  86.0556746 139.5890579
  36.6660012  86.3734997 121.5839988  36.3920012  85.9484997 120.7709988
  36.7050012  87.3044997 121.3669988  36.6337699  86.4412484 121.4433610
  25.8330012  81.0234997 137.3139988  25.9830012  80.2944997 136.7119988
  25.8360012  81.8004997 136.7549988  25.8539302  81.0287851 137.1560692
  26.2460012  79.3934997 134.8069988  26.7820012  79.8444997 134.1549988
  25.3940012  79.2854997 134.3839988  26.2042178  79.4406390 134.6605756
  27.8280012  84.8324997 135.0459988  28.5780012  84.6764997 134.4729988
  27.4890012  85.6844997 134.7709988  27.8848921  84.9262968 134.9303561
  32.2430012  82.6474997 140.0749988  32.4360012  81.7164997 139.9629988
  33.1010012  83.0724997 140.0639988  32.3852934  82.5776531 140.0582031
  33.5600012  85.4364997 138.1519988  33.2790012  86.1454997 137.5739988
  34.5030012  85.3634997 138.0009988  33.6489291  85.5236711 138.0524967
  24.3120012  82.2214997 139.2259988  23.5450012  81.6894997 139.0149988
  24.9910012  81.9114997 138.6259988  24.2987877  82.1068300 139.1160716
  27.0520012  76.8494997 135.2379988  26.9530012  77.7964997 135.1329988
  26.3090012  76.4774997 134.7619988  26.9381184  76.9285863 135.1593621
  28.3160012  81.1714997 138.8019988  28.0800012  80.9514997 139.7029988
  27.5320012  80.9644997 138.2919988  28.1778504  81.1134586 138.8563431
  31.0310012  80.2984997 137.8769988  30.0840012  80.3304997 138.0099988
  31.3440012  79.6734997 138.5309988  30.9436707  80.2183998 137.9836060
  32.6650012  78.9324997 139.8829988  32.5690012  77.9804997 139.8769988
  32.3440012  79.2014997 140.7429988  32.6084070  78.8384035 139.9985441
  22.4920012  80.1424997 138.9299988  22.7040012  79.4354997 138.3199988
  22.3810012  79.7044997 139.7739988  22.5059721  79.9867084 138.9606843
  27.2730012  76.1434997 137.9089988  27.9850012  75.5034997 137.8949988
  27.1720012  76.4104997 136.9959988  27.3568066  76.0920079 137.7835677
  27.6270012  77.8264997 139.9629988  27.4950012  77.3504997 139.1429988
  27.0280012  78.5704997 139.9079988  27.5279071  77.8619618 139.8432886
  27.1730012  94.7094997 123.1389988  28.1060012  94.8674997 123.2829988
  26.9090012  95.3844997 122.5149988  27.2649888  94.8224510 123.0742842
  20.7420012  89.3454997 122.6219988  21.6560012  89.4244997 122.8959988
  20.7490012  88.6584997 121.9559988  20.8681131  89.2633961 122.5694393
  19.3910012  94.7384997 127.6999988  18.7440012  94.2764997 127.1669988
  19.7450012  94.0664997 128.2819988  19.3503849  94.5844723 127.7057959
  20.2610012  92.8194997 129.5039988  19.9260012  91.9394997 129.6759988
  20.4830012  93.1644997 130.3689988  20.2451783  92.7457500 129.6444208
  37.8090012  93.6284997 132.4849988  37.7880012  93.8134997 133.4239988
  38.5000012  94.1974997 132.1439988  37.8994618  93.7306606 132.5673864
  37.3730012  93.1964997 135.4069988  36.8850012  92.4604997 135.0349988
  37.9220012  92.8024997 136.0849988  37.3804820  93.0425889 135.4477813
  35.8230012  88.9854997 140.0449988  34.9570012  88.8804997 140.4389988
  36.2000012  89.7444997 140.4909988  35.7553308  89.0736900 140.1592393
  37.1240012  87.2424997 125.5589988  37.9740012  87.6634997 125.6859988
  37.1300012  86.5024997 126.1659988  37.2411372  87.2000803 125.6584344
  37.5190012  85.2954997 127.3819988  36.7920012  84.8164997 127.7799988
  38.1000012  85.5014997 128.1149988  37.4980473  85.2578103 127.5354528
  37.2780012  88.0804997 132.3299988  38.1110012  87.7024997 132.0499988
  37.3900012  89.0234997 132.2109988  37.4072647  88.1562218 132.2755487
  35.7640012  90.9584997 134.6369988  35.1170012  91.2834997 135.2629988
  35.2470012  90.5184997 133.9629988  35.6054029  90.9435004 134.6315827
  37.7870012  85.1964997 123.7739988  37.2650012  85.5534997 123.0549988
  37.7540012  85.8714997 124.4519988  37.7111634  85.3365413 123.7673145
  36.1360012  82.4364997 122.3239988  36.2320012  83.1034997 121.6439988
  35.9960012  81.6204997 121.8429988  36.1302272  82.4175655 122.1658347
  35.3050012  83.8164997 127.9449988  35.1550012  82.8714997 127.9249988
  34.9520012  84.0974997 128.7889988  35.2367448  83.7251481 128.0563705
  20.3410012  85.8944997 131.9559988  20.5250012  85.8124997 131.0199988
  21.1900012  85.7704997 132.3789988  20.4810151  85.8665073 131.8851451
  36.1620012  85.7864997 137.5839988  36.7450012  85.0524997 137.7759988
  36.7260012  86.5584997 137.6309988  36.3179769  85.7904227 137.6166159
  37.6580012  83.6894997 138.2689988  36.7950012  83.3104997 138.1029988
  38.2630012  82.9504997 138.1939988  37.6216119  83.5378268 138.2361528
  35.3830012  79.8444997 121.4419988  35.9940012  79.4734997 122.0789988
  34.5470012  79.4234997 121.6379988  35.3535032  79.7367554 121.5557035
  35.0160012  81.3994997 126.4079988  35.2960012  80.4924997 126.5319988
  35.7750012  81.8334997 126.0189988  35.1569277  81.3340942 126.3723682
  35.6280012  81.9804997 131.8439988  36.5610012  82.1924997 131.8089988
  35.3930012  82.0824997 132.7659988  35.7239244  82.0233100 131.9638892
  35.6570012  82.7174997 134.6199988  34.8140012  82.9854997 134.9859988
  36.0990012  83.5394997 134.4089988  35.6014158  82.8653291 134.6415491
  19.9380012  81.1654997 138.0969988  20.8580012  81.0434997 138.3329988
  19.4890012  80.4154997 138.4859988  20.0031580  81.0473727 138.1819006
  37.9400012  76.6974997 139.9729988  38.2900012  76.0434997 139.3679988
  38.0870012  77.5344997 139.5329988  38.0077887  76.7211548 139.8306858
  35.6290012  78.6624997 126.4559988  35.8120012  78.2134997 127.2819988
  35.0300012  78.0774997 125.9929988  35.5730202  78.5219975 126.5063275
  21.1590012  79.4774997 130.9879988  21.6050012  78.6854997 131.2899988
  21.6260012  80.1934997 131.4179988  21.2830831  79.4660685 131.0874006
  19.4630012  82.4764997 132.0569988  19.9550012  82.2554997 131.2659988
  19.8260012  83.3174997 132.3379988  19.5793126  82.5598357 131.9867531
  37.4600012  78.8064997 138.3219988  36.5420012  79.0774997 138.2869988
  37.5830012  78.2714997 137.5379988  37.3509729  78.7712508 138.2111923
  37.4960012  78.7294997 122.9839988  37.9080012  78.0084997 122.5089988
  38.1780012  79.3994997 123.0429988  37.6445885  78.7212368 122.9268915
  19.7770012  78.7344997 126.1109988  18.8520012  78.9434997 125.9819988
  20.2310012  79.2184997 125.4209988  19.7117292  78.8285343 126.0000720
  34.5480012  93.7184997 128.0569988  35.2000012  93.3714997 127.4489988
  35.0580012  94.2074997 128.7029988  34.7062637  93.7370597 128.0610236
  19.7410012  77.4724997 134.4549988  19.0760012  77.2264997 135.0989988
  19.2980012  78.0944997 133.8779988  19.5901318  77.5229410 134.4650898
  21.9330012  90.6474997 138.5999988  21.1120012  90.8224997 138.1389988
  21.6800012  90.5744997 139.5199988  21.7865585  90.6615544 138.6613561
  24.8870012  91.6224997 134.8579988  24.4620012  92.4314997 134.5759988
  25.7910012  91.7074997 134.5559988  24.9509975  91.7449300 134.7784816
  29.1980012  93.0214997 137.8179988  29.3830012  92.6874997 138.6959988
  30.0440012  93.3304997 137.4959988  29.3377539  93.0176047 137.8945605
  31.5430012  94.3074997 137.0619988  32.2200012  93.6744997 136.8219988
  31.8650012  94.7084997 137.8689988  31.6791637  94.2751154 137.1382793
  36.4600012  76.8964997 136.1409988  35.6480012  77.2214997 135.7539988
  36.6930012  76.1364997 135.6079988  36.3802203  76.8382758 136.0158880
  22.2890012  94.8784997 134.9059988  21.5680012  95.3184997 134.4549988
  21.9230012  94.6274997 135.7539988  22.1409651  94.9047242 134.9589640
  24.7560012  94.4784997 133.9359988  23.8910012  94.5504997 134.3399988
  24.7010012  95.0254997 133.1519988  24.6302085  94.5622685 133.8853362
  29.4660012  94.3664997 133.1109988  29.0100012  94.8954997 132.4569988
  29.6290012  94.9694997 133.8359988  29.4256068  94.5204607 133.1194838
  31.7940012  93.2444997 134.0559988  30.8890012  93.4094997 133.7899988
  32.2230012  94.0974997 133.9909988  31.7281324  93.3824339 134.0107976
  34.3980012  94.8144997 134.3509988  34.2160012  95.7304997 134.1409988
  34.5750012  94.4044997 133.5049988  34.3970210  94.8844822 134.2077885
  21.7030012  93.5014997 131.8159988  21.6850012  93.0764997 132.6729988
  22.5080012  93.1834997 131.4069988  21.8093529  93.4003013 131.8780946
  23.8450012  92.2114997 130.4709988  23.6260012  91.2954997 130.6409988
  24.6690012  92.3514997 130.9369988  23.9264420  92.1050520 130.5572774
  26.3820012  92.6814997 131.3199988  26.5950012  91.7934997 131.0329988
  26.4460012  92.6474997 132.2739988  26.4198231  92.5553102 131.4097397
  29.8900012  78.3454997 130.4639988  29.2160012  77.7164997 130.7199988
  30.4540012  77.8614997 129.8609988  29.8739230  78.1938744 130.4175340
  35.0330012  76.4534997 130.5769988  35.6370012  77.0004997 130.0749988
  34.1630012  76.7724997 130.3359988  34.9981208  76.5715137 130.4756886
  36.7600012  77.5914997 128.9099988  37.3720012  77.0774997 128.3829988
  37.1420012  78.4694997 128.9329988  36.8953371  77.6397866 128.8410041
  22.2170012  76.9794997 128.2859988  21.4400012  76.7454997 127.7789988
  22.7470012  76.1824997 128.2949988  22.1822330  76.8396988 128.2177742
  21.0530012  76.7774997 124.0899988  21.4920012  77.3884997 123.4979988
  20.4200012  77.3154997 124.5639988  21.0274514  76.9339257 124.0730930
  26.7960012  76.9064997 128.0999988  27.6710012  77.2944997 128.0699988
  26.6600012  76.6914997 129.0219988  26.8973695  76.9305184 128.2206440
  32.3530012  76.9364997 129.7489988  32.4290012  77.0314997 128.7989988
  32.0780012  76.0284997 129.8779988  32.3262321  76.8267867 129.6365079
  33.7060012  76.9624997 125.4409988  33.0040012  77.5774997 125.2309988
  33.2620012  76.1244997 125.5719988  33.5496450  76.9335639 125.4299000
  20.9540012  92.7254997 124.9869988  20.2690012  92.6874997 124.3199988
  20.9580012  93.6384997 125.2759988  20.8606998  92.8436733 124.9346771
  22.9140012  78.6934997 122.5319988  23.4060012  78.0634997 122.0049988
  23.5380012  78.9894997 123.1949988  23.0655688  78.6473804 122.5495482
  27.9400012  78.9864997 124.9889988  28.1180012  78.3404997 125.6719988
  27.8870012  79.8204997 125.4559988  27.9571999  79.0108009 125.1455917
  29.8190012  93.9354997 123.3849988  30.6850012  94.3014997 123.2069988
  29.5720012  93.4954997 122.5709988  29.9042392  93.9261756 123.2506289
  36.5280012  93.4984997 126.0639988  36.3330012  92.7504997 125.4989988
  36.4890012  94.2564997 125.4809988  36.4960380  93.4986099 125.9078384
  22.1750012  77.4934997 137.8039988  21.8090012  76.7284997 138.2459988
  23.0880012  77.5224997 138.0899988  22.2482736  77.3925640 137.9032502
  24.1480012  76.8444997 139.3399988  25.0460012  76.5704997 139.1549988
  23.7610012  76.1014997 139.8039988  24.2186612  76.7065914 139.3773643
  22.7720012  93.6454997 122.0129988  22.5050012  93.9324997 122.8859988
  23.5440012  93.0994997 122.1649988  22.8397488  93.6110294 122.1531050
  32.5690012  76.1764997 139.5219988  32.6460012  75.7504997 140.3759988
  33.4630012  76.1904997 139.1789988  32.7003428  76.1200879 139.5925310
  35.7450012  92.2494997 138.2139988  34.9630012  92.0634997 137.6939988
  35.6730012  93.1784997 138.4319988  35.6282274  92.3496643 138.1723018
  50.1510012  86.1354997 128.2449988  50.2400012  87.0794997 128.1129988
  49.5130012  85.8604997 127.5869988  50.0769081  86.2274830 128.1379614
  49.0840012  85.3904997 131.6639988  49.0460012  84.7444997 132.3689988
  48.7620012  84.9244997 130.8929988  49.0352333  85.2389408 131.6562978
  41.4530012  85.0054997 133.2569988  41.4940012  84.3794997 133.9799988
  42.1560012  85.6294997 133.4389988  41.5536363  85.0041196 133.3806044
  52.7900012  88.3294997 129.9649988  52.3500012  87.6094997 130.4159988
  52.7770012  89.0504997 130.5949988  52.7280226  88.3283731 130.1118494
  42.3760012  89.4554997 131.7919988  42.0070012  88.6534997 131.4219988
  43.3170012  89.2864997 131.8379988  42.4527289  89.3230153 131.7476316
  38.9860012  83.1154997 127.1849988  38.5390012  83.9614997 127.1659988
  38.4250012  82.5354997 126.6689988  38.8489900  83.1529916 127.1126801
  39.6970012  85.2774997 129.3099988  39.9100012  84.5074997 129.8379988
  40.4350012  85.3664997 128.7069988  39.8259044  85.1841968 129.3007123
  49.9020012  93.4344997 130.1769988  50.5220012  92.7574997 129.9039988
  49.6940012  93.2164997 131.0859988  49.9586726  93.3124800 130.2624812
  47.4740012  87.8234997 132.0699988  47.7780012  87.1374997 131.4749988
  48.1950012  87.9414997 132.6879988  47.6130671  87.7456305 132.0721816
  56.1370012  79.4244997 132.9309988  56.1860012  80.0344997 133.6659988
  56.5620012  79.8854997 132.2079988  56.2011746  79.5703796 132.9339175
  50.6150012  82.2174997 132.3969988  50.7570012  81.2714997 132.4179988
  50.5080012  82.4244997 131.4689988  50.6199919  82.1158246 132.2743408
  43.7690012  80.3184997 129.6699988  43.8130012  81.1784997 129.2509988
  43.3120012  79.7664997 129.0359988  43.7132240  80.3614422 129.5269864
  51.4920012  80.4494997 128.0709988  52.1380012  80.1204997 128.6949988
  52.0020012  80.9674997 127.4479988  51.6494299  80.4744450 128.0722731
  40.3900012  82.7154997 130.4319988  41.0430012  82.1654997 130.8639988
  40.4140012  82.4414997 129.5149988  40.4826683  82.6031466 130.3672123
  45.5460012  84.2654997 129.6469988  46.1620012  83.7394997 130.1569988
  44.9600012  83.6254997 129.2439988  45.5510810  84.1069208 129.6623173
  56.5280012  80.9024997 135.1659988  55.8400012  81.5604997 135.0709988
  56.5440012  80.7054997 136.1029988  56.4359540  80.9659819 135.2795990
  42.5800012  79.2364997 133.7439988  42.3610012  79.7664997 132.9779988
  41.9120012  79.4634997 134.3909988  42.4597600  79.3396906 133.7266379
  49.9490012  88.7364997 127.2879988  49.6530012  88.4144997 126.4369988
  49.6240012  89.6364997 127.3289988  49.8646371  88.8140215 127.1771801
  45.1490012  86.9124997 134.0309988  44.4090012  87.5104997 134.1349988
  45.8630012  87.4664997 133.7159988  45.1442237  87.0692831 134.0026465
  53.2560012  79.7404997 130.0509988  53.0400012  78.9744997 130.5839988
  53.9110012  80.2124997 130.5639988  53.3150632  79.6995889 130.1932861
  42.1730012  81.1284997 131.6959988  42.7870012  81.7614997 132.0689988
  42.6850012  80.6564997 131.0399988  42.3261981  81.1512267 131.6582908
  43.5560012  88.8764997 134.8179988  43.5510012  89.7564997 134.4399988
  42.7030012  88.7934997 135.2429988  43.4399464  88.9856117 134.8237907
  39.6770012  88.5474997 125.5999988  39.4050012  88.7764997 124.7119988
  39.7230012  89.3854997 126.0609988  39.6459482  88.6921318 125.5406273
  53.3020012  90.1694997 132.3129988  52.3610012  90.2274997 132.4749988
  53.5790012  91.0754997 132.1759988  53.2104679  90.2999443 132.3166815
  53.6030012  78.4554997 133.7309988  52.8670012  79.0664997 133.6929988
  54.2860012  78.8704997 133.2039988  53.5946541  78.5951374 133.6545832
  46.6060012  76.5424997 131.1959988  46.4890012  75.5934997 131.1419988
  45.7510012  76.8744997 131.4699988  46.4744212  76.4575571 131.2256497
  51.5540012  91.9504997 128.9379988  51.9800012  91.2434997 128.4529988
  51.8710012  92.7514997 128.5219988  51.6551683  91.9621017 128.8153680
  52.7140012  89.8514997 127.4469988  52.4560012  89.1614997 126.8359988
  52.7850012  89.4084997 128.2929988  52.6882856  89.6972124 127.4776885
  54.4000012  88.4174997 135.9239988  54.5400012  87.8264997 135.1849988
  54.5670012  89.2904997 135.5679988  54.4417411  88.4545428 135.7746894
  48.8730012  85.3794997 125.6969988  48.1610012  85.9144997 125.3449988
  49.5640012  85.4354997 125.0369988  48.8690132  85.4602543 125.5596289
  48.9260012  83.8374997 122.7359988  49.6270012  83.8594997 123.3869988
  49.2290012  83.2094997 122.0789988  49.0628133  83.7557070 122.7363369
  56.2420012  84.7574997 133.9899988  55.5890012  85.4524997 134.0799988
  56.7070012  84.9674997 133.1809988  56.2155274  84.8810643 133.8928462
  52.2780012  85.5894997 126.6489988  51.5460012  85.8174997 127.2219988
  52.7260012  84.8754997 127.1029988  52.2382725  85.5242145 126.7888816
  52.1760012  83.7634997 135.7159988  52.2560012  84.5264997 136.2879988
  51.5740012  84.0424997 135.0259988  52.1055756  83.9057134 135.7010589
  43.9240012  86.2194997 128.5309988  43.5930012  85.8494997 127.7129988
  44.5120012  85.5494997 128.8779988  43.9581873  86.0781156 128.4658102
  45.2900012  89.6474997 131.2119988  45.1960012  89.0694997 130.4559988
  46.0200012  89.2764997 131.7089988  45.3757387  89.5181663 131.1755342
  44.2900012  84.9884997 132.1649988  44.8560012  85.1094997 131.4019988
  44.6090012  85.6254997 132.8029988  44.4105474  85.0912219 132.1469862
  50.5990012  90.4914997 132.8989988  50.3590012  91.1534997 133.5469988
  50.4010012  89.6574997 133.3239988  50.5393808  90.4693134 133.0451524
  45.1700012  89.3874997 136.8819988  44.8590012  90.1694997 137.3369988
  44.5200012  89.2344997 136.1959988  45.0395558  89.4739105 136.8515871
  51.1490012  84.7514997 124.3339988  51.7290012  84.9014997 125.0809988
  51.5630012  85.2224997 123.6099988  51.2842997  84.8356578 124.3384058
  42.0900012  85.5854997 136.1099988  42.1610012  86.2364997 136.8089988
  41.2000012  85.6884997 135.7749988  41.9793005  85.6885427 136.1603495
  48.8760012  91.4884997 127.7689988  49.3500012  91.7834997 128.5459988
  48.3130012  92.2264997 127.5359988  48.8648184  91.6287247 127.8439628
  43.4100012  91.4594997 137.6449988  43.4170012  91.3234997 136.6979988
  42.4940012  91.3414997 137.8969988  43.2871714  91.4249430 137.5494666
  54.8480012  76.5014997 124.1469988  53.9480012  76.6404997 124.4419988
  55.1000012  77.3324997 123.7449988  54.7588702  76.6329074 124.1330205
  42.9140012  85.2894997 126.1199988  42.6220012  86.0574997 125.6299988
  42.2400012  84.6294997 125.9579988  42.7828111  85.3055587 126.0308978
  56.0370012  90.8674997 122.5229988  56.1110012  91.8064997 122.6939988
  56.9430012  90.5624997 122.4669988  56.1695100  90.9546722 122.5388119
  39.0070012  87.6524997 134.9349988  38.5060012  87.6244997 134.1199988
  39.0120012  86.7464997 135.2449988  38.9390944  87.5262396 134.8653226
  38.7570012  90.4324997 131.8189988  39.7030012  90.2884997 131.7999988
  38.6450012  91.2164997 132.3559988  38.8712727  90.5188046 131.8890072
  56.9550012  91.0984997 137.5019988  56.9060012  90.1434997 137.4649988
  56.1280012  91.3664997 137.9029988  56.8364940  91.0038998 137.5511375
  47.9340012  90.6724997 136.3779988  48.0210012  91.4984997 136.8529988
  47.0700012  90.3424997 136.6269988  47.8291964  90.7409878 136.4766549
  48.3480012  94.4444997 126.1839988  48.2730012  94.3234997 125.2369988
  48.3810012  95.3944997 126.3019988  48.3422068  94.5562646 126.0704967
  42.0010012  93.2334997 127.9649988  42.1540012  92.8854997 128.8429988
  41.1510012  92.8774997 127.7099988  41.9069166  93.1376217 128.0508079
  51.4500012  93.5984997 123.1859988  51.8250012  92.8544997 122.7149988
  51.4540012  93.3284997 124.1049988  51.5019125  93.4600986 123.2456483
  51.1190012  93.5244997 125.9349988  50.1830012  93.6244997 126.1139988
  51.3990012  92.8154997 126.5139988  51.0289553  93.4423406 126.0377087
  54.1070012  82.5914997 137.9819988  53.7000012  83.0724997 137.2609988
  54.1480012  81.6864997 137.6739988  54.0568437  82.5349374 137.8416683
  41.2560012  88.9754997 135.9789988  41.4720012  88.6144997 136.8379988
  40.4010012  88.6014997 135.7689988  41.1699292  88.8754111 136.0683386
  43.8750012  77.4454997 131.9739988  43.0130012  77.3584997 131.5659988
  43.8520012  78.3014997 132.4019988  43.7540409  77.5492883 131.9760589
  48.5380012  77.1674997 135.3489988  48.9580012  76.7524997 136.1019988
  47.6050012  76.9894997 135.4659988  48.4693644  77.0865900 135.4679539
  51.8640012  80.9234997 136.2019988  51.3500012  80.7974997 136.9999988
  51.7090012  81.8354997 135.9579988  51.7726852  81.0296132 136.2782158
  52.6270012  85.7844997 121.9639988  52.6690012  85.5614997 121.0339988
  53.4760012  86.1834997 122.1529988  52.7475280  85.8079438 121.8623554
  48.1990012  79.6604997 122.6339988  47.9460012  79.6794997 123.5569988
  47.9430012  78.7884997 122.3319988  48.1297481  79.5452558 122.7196175
  43.9660012  82.4114997 133.0689988  43.3240012  82.3704997 133.7779988
  44.0030012  83.3374997 132.8309988  43.8830664  82.5311430 133.1339219
  43.9630012  82.6324997 127.9809988  43.0700012  82.2914997 127.9219988
  44.4130012  82.2554997 127.2249988  43.9018130  82.5349631 127.8707702
  49.4980012  83.0484997 126.7979988  49.0890012  83.8634997 126.5069988
  50.2190012  82.9084997 126.1839988  49.5394537  83.1412018 126.6751342
  48.6000012  83.2234997 138.2859988  48.0380012  82.5194997 138.6069988
  49.4270012  83.1034997 138.7539988  48.6347095  83.1107883 138.3932330
  50.5030012  82.4944997 129.6119988  50.3080012  83.0994997 128.8969988
  50.6840012  81.6604997 129.1779988  50.5007614  82.4646300 129.4554405
  41.7160012  82.7314997 134.9359988  41.6780012  83.1314997 135.8049988
  41.2250012  81.9144997 135.0269988  41.6444684  82.6758069 135.0671059
  45.0820012  80.1054997 121.7349988  44.6510012  79.6604997 122.4649988
  44.3640012  80.4774997 121.2229988  44.9259438  80.0948940 121.7656799
  38.3240012  79.8474997 128.7869988  38.9550012  79.8184997 129.5059988
  38.7730012  79.4224997 128.0559988  38.4710918  79.7860836 128.7866441
  39.5980012  80.5934997 124.2109988  40.0720012  81.1844997 123.6259988
  38.8810012  81.1244997 124.5579988  39.5659341  80.7460867 124.1778836
  49.7670012  84.1324997 134.2829988  50.0900012  83.5014997 133.6399988
  49.3270012  83.5974997 134.9439988  49.7517484  83.9738387 134.2843198
  46.5440012  80.0594997 129.0669988  45.6330012  80.1164997 129.3559988
  47.0500012  79.9994997 129.8779988  46.4876899  80.0591941 129.2161184
  41.3730012  81.6884997 127.8939988  40.4830012  81.7884997 127.5539988
  41.6690012  80.8464997 127.5479988  41.2912823  81.5883545 127.8007213
  45.0260012  81.6884997 125.5509988  45.9570012  81.8174997 125.7289988
  44.8110012  82.3584997 124.9009988  45.1244247  81.7966565 125.4875747
  50.9490012  79.2944997 132.3319988  50.2730012  79.4254997 132.9959988
  50.4640012  79.1394997 131.5209988  50.7907146  79.2915157 132.3134469
  43.7000012  82.8834997 123.1169988  43.1570012  82.5034997 122.4259988
  44.5330012  83.0774997 122.6889988  43.7383631  82.8577125 122.9644501
  54.2370012  94.9664997 138.6079988  54.4370012  95.3904997 137.7739988
  54.8920012  95.3094997 139.2149988  54.3530072  95.0709857 138.5758592
  41.8350012  87.4404997 138.2159988  42.5670012  87.6944997 138.7779988
  41.0550012  87.6444997 138.7319988  41.8297073  87.5028160 138.3626151
  47.8640012  82.8474997 130.9539988  48.4290012  82.3004997 130.4069988
  47.7170012  82.3254997 131.7429988  47.9213380  82.7022259 130.9858695
  42.8660012  78.9834997 127.3729988  42.5490012  78.0814997 127.3369988
  43.6480012  78.9854997 126.8199988  42.9282408  78.8602474 127.2933569
  46.4910012  81.2354997 133.3679988  45.6550012  81.6894997 133.4789988
  47.0150012  81.5114997 134.1199988  46.4475416  81.3348660 133.4848119
  47.0350012  87.4484997 125.0529988  46.2900012  86.9414997 124.7309988
  46.9010012  87.4974997 125.9999988  46.9148776  87.3856940 125.1368647
  54.1850012  86.5814997 133.8399988  54.8270012  87.0384997 133.2959988
  53.3550012  86.6944997 133.3769988  54.1605963  86.6592704 133.7030177
  50.9330012  80.2624997 123.2519988  49.9940012  80.3744997 123.1009988
  51.2300012  81.1194997 123.5589988  50.8447583  80.3935981 123.2728337
  48.5540012  87.6324997 136.2899988  48.2090012  87.2514997 137.0969988
  48.3540012  88.5664997 136.3609988  48.4797527  87.7065135 136.4100689
  51.6510012  82.1294997 124.9129988  52.5430012  81.9924997 125.2319988
  51.7080012  82.9204997 124.3759988  51.7806504  82.2176052 124.8840818
  42.1600012  86.7434997 130.8229988  42.9050012  86.7414997 130.2219988
  42.2380012  85.9204997 131.3039988  42.2724995  86.6318887 130.8058282
  49.1610012  88.9074997 124.0789988  48.8650012  89.7334997 124.4599988
  48.4580012  88.2874997 124.2749988  49.0254914  88.9368199 124.1576443
  39.1680012  85.2044997 136.1379988  39.3910012  84.7864997 136.9699988
  38.5660012  84.5914997 135.7149988  39.1171759  85.0644668 136.1947022
  46.1840012  84.7214997 138.3509988  45.8880012  84.5554997 137.4559988
  47.1160012  84.5014997 138.3399988  46.2694166  84.6690640 138.2270536
  50.8050012  90.0944997 136.2409988  49.9040012  90.2774997 135.9729988
  50.8390012  90.3534997 137.1609988  50.6863139  90.1545849 136.3288099
  56.5360012  82.3394997 124.6079988  55.9820012  81.9434997 123.9359988
  56.6360012  83.2494997 124.3299988  56.4737059  82.4083586 124.4784401
  56.4990012  88.1394997 137.4449988  55.6480012  88.3774997 137.0779988
  57.0900012  88.1224997 136.6919988  56.4622487  88.1698258 137.2928893
  54.8310012  91.1254997 125.0729988  54.4580012  90.2994997 125.3819988
  55.1090012  90.9424997 124.1749988  54.8175222  90.9877430 124.9939473
  51.9920012  85.9334997 132.0939988  51.0630012  85.7014997 132.0669988
  52.4430012  85.1564997 131.7639988  51.9259216  85.7967238 132.0456917
  44.5350012  90.2614997 128.2269988  45.0620012  91.0344997 128.0269988
  43.6550012  90.4864997 127.9249988  44.4882031  90.3977545 128.1587912
  40.2900012  85.1234997 122.8139988  40.9060012  85.7504997 123.1939988
  39.4280012  85.4394997 123.0859988  40.2577698  85.2519430 122.9027183
  45.9620012  87.9244997 127.8029988  45.7210012  88.8494997 127.8449988
  45.2210012  87.4654997 128.1999988  45.8289225  87.9890933 127.8623742
  46.4770012  92.0734997 134.1189988  46.8390012  92.9284997 133.8849988
  47.0080012  91.7814997 134.8589988  46.5984473  92.1511060 134.1870855
  44.6450012  92.9464997 127.3489988  43.6950012  93.0514997 127.3999988
  44.9970012  93.7664997 127.6929988  44.5624195  93.0718800 127.4025502
  50.0210012  88.1724997 133.8189988  49.5950012  87.9454997 134.6459988
  50.6010012  87.4344997 133.6369988  50.0411868  88.0415299 133.9075830
  52.2240012  89.1014997 122.8929988  52.5770012  88.7214997 123.6969988
  51.2750012  89.0084997 122.9799988  52.1440918  89.0368956 123.0148532
  52.6790012  92.7244997 136.2889988  52.0780012  92.1694997 135.7929988
  52.9610012  93.3914997 135.6619988  52.6348804  92.7386625 136.1364849
  56.7270012  93.5814997 123.0939988  57.4710012  94.1674997 122.9539988
  56.0330012  94.1494997 123.4269988  56.7349899  93.7385798 123.1198778
  40.8020012  79.9574997 135.6959988  39.9090012  80.2964997 135.6279988
  40.7030012  79.1024997 136.1139988  40.6664164  79.8882588 135.7432235
  53.0900012  87.7744997 125.1199988  52.8120012  87.0464997 125.6759988
  54.0170012  87.8934997 125.3249988  53.1773124  87.6908802 125.2238845
  40.4530012  91.7624997 134.1309988  40.6700012  90.8304997 134.0999988
  40.6990012  92.0364997 135.0139988  40.5159549  91.6720636 134.2461763
  46.3150012  90.2134997 121.3399988  46.5540012  89.4654997 120.7929988
  46.0460012  89.8254997 122.1729988  46.3113675  90.0586638 121.3776865
  45.2520012  89.7834997 123.7959988  45.3980012  89.2634997 124.5859988
  45.2490012  90.6904997 124.1029988  45.2715792  89.8348842 123.9456117
  41.7050012  87.0364997 124.3069988  41.0190012  87.3884997 124.8739988
  42.2270012  87.7994997 124.0599988  41.6816852  87.1878578 124.3512118
  49.5360012  79.6984997 134.5859988  50.2350012  79.7724997 135.2359988
  49.1550012  78.8344997 134.7399988  49.5801767  79.5917624 134.6958322
  50.3210012  79.3504997 125.6829988  50.5410012  79.8224997 124.8799988
  50.8790012  79.7454997 126.3529988  50.4264968  79.4684285 125.6637331
  47.9890012  91.4814997 124.5459988  47.1730012  91.9784997 124.5979988
  48.5190012  91.9564997 123.9059988  47.9489161  91.6137722 124.4665956
  47.5210012  81.0784997 126.5179988  48.3330012  81.5834997 126.5639988
  47.2760012  80.9334997 127.4319988  47.5990520  81.1280375 126.6478517
  48.0560012  82.0644997 135.7019988  48.1750012  82.6384997 136.4599988
  48.7120012  81.3764997 135.8169988  48.1609025  82.0499858 135.8211321
  48.4040012  78.1594997 127.4559988  48.0580012  78.7774997 128.0999988
  49.0630012  78.6604997 126.9739988  48.4456968  78.3116278 127.4789383
  45.3280012  92.5254997 124.5269988  45.4880012  93.3244997 124.0269988
  45.1300012  92.8314997 125.4119988  45.3231637  92.6764020 124.5781144
  44.0620012  79.2224997 124.1429988  43.9790012  80.1114997 124.4899988
  44.9520012  78.9574997 124.3749988  44.1709469  79.3081430 124.2217626
  54.2610012  79.9714997 136.5369988  53.3440012  80.2344997 136.4499988
  54.5960012  79.9684997 135.6409988  54.1808613  80.0070761 136.4038837
  52.8630012  83.7224997 130.6329988  52.0650012  83.3074997 130.3049988
  53.3080012  83.0314997 131.1239988  52.8139885  83.5723543 130.6544889
  42.3210012  89.6504997 123.2039988  42.9130012  90.3494997 123.4799988
  42.7800012  89.2174997 122.4839988  42.4641142  89.6877049 123.1444830
  40.6370012  82.3144997 122.3199988  40.5920012  83.2534997 122.4979988
  39.7490012  82.0784997 122.0499988  40.5108574  82.4111892 122.3078912
  53.9490012  92.9784997 132.2559988  53.7940012  93.6564997 131.5979988
  54.8820012  93.0504997 132.4589988  54.0538657  93.0809546 132.1934360
  41.4450012  77.0964997 130.9929988  41.2160012  77.1554997 130.0649988
  41.0020012  76.3044997 131.2989988  41.3538530  76.9975753 130.9074786
  40.3750012  91.0364997 127.1529988  39.5430012  91.5094997 127.1799988
  40.9210012  91.5464997 126.5549988  40.3350352  91.1701332 127.0758463
  39.6630012  93.6494997 138.4829988  40.2040012  93.4324997 139.2429988
  39.1820012  92.8434997 138.2929988  39.6719951  93.5109270 138.5612576
  44.2610012  92.5684997 140.1029988  45.0280012  92.1094997 140.4439988
  44.2390012  92.3424997 139.1739988  44.3631275  92.4750186 140.0240101
  48.3530012  92.0764997 121.4789988  47.7090012  91.4454997 121.7999988
  49.1150012  91.5454997 121.2469988  48.3678077  91.9182920 121.4916011
  50.8380012  90.9484997 138.8329988  50.4870012  90.0924997 139.0759988
  51.5640012  91.0914997 139.4399988  50.8880769  90.8505636 138.9483619
  52.9570012  91.8934997 121.7119988  53.2400012  91.0994997 122.1649988
  53.6970012  92.1264997 121.1519988  53.0958006  91.8163376 121.6982715
  39.5700012  87.4594997 139.4369988  39.7140012  86.5574997 139.1509988
  38.7980012  87.7454997 138.9499988  39.4852753  87.3746816 139.3319505
  43.9120012  87.8034997 121.5699988  43.9760012  87.0094997 122.1009988
  44.5650012  87.6844997 120.8799988  44.0090241  87.6787148 121.5494317
  46.2260012  87.4294997 138.8699988  45.8970012  87.7004997 138.0129988
  46.3780012  86.4884997 138.7829988  46.2014809  87.3393862 138.7408244
  49.2640012  88.8504997 121.3059988  48.9950012  89.0304997 122.2069988
  49.0580012  87.9244997 121.1739988  49.1993427  88.7500261 121.4115073
  51.9600012  87.3454997 136.2529988  52.7060012  87.9334997 136.1339988
  51.2030012  87.9274997 136.3169988  51.9597820  87.5047143 136.2453590
  40.4030012  84.6594997 138.8569988  40.8110012  83.8024997 138.7359988
  40.1430012  84.6744997 139.7779988  40.4237568  84.5440807 138.9649588
  45.0610012  85.7754997 123.8759988  44.6010012  85.2914997 124.5619988
  45.3160012  85.1074997 123.2399988  45.0324902  85.6188731 123.8839334
  44.3500012  83.6684997 136.2319988  43.7320012  84.3434997 136.5119988
  44.6940012  83.9894997 135.3979988  44.3119132  83.8042411 136.1576262
  46.1320012  84.0184997 122.1379988  45.9520012  83.8644997 121.2109988
  47.0820012  84.1264997 122.1829988  46.2357776  84.0120175 122.0171843
  49.3700012  86.1404997 139.5089988  50.3230012  86.2234997 139.4819988
  49.2090012  85.4284997 140.1289988  49.4786426  86.0556746 139.5890579
  55.5220012  86.3734997 121.5839988  55.2480012  85.9484997 120.7709988
  55.5610012  87.3044997 121.3669988  55.4897699  86.4412484 121.4433610
  44.6890012  81.0234997 137.3139988  44.8390012  80.2944997 136.7119988
  44.6920012  81.8004997 136.7549988  44.7099302  81.0287851 137.1560692
  45.1020012  79.3934997 134.8069988  45.6380012  79.8444997 134.1549988
  44.2500012  79.2854997 134.3839988  45.0602178  79.4406390 134.6605756
  46.6840012  84.8324997 135.0459988  47.4340012  84.6764997 134.4729988
  46.3450012  85.6844997 134.7709988  46.7408921  84.9262968 134.9303561
  51.0990012  82.6474997 140.0749988  51.2920012  81.7164997 139.9629988
  51.9570012  83.0724997 140.0639988  51.2412934  82.5776531 140.0582031
  52.4160012  85.4364997 138.1519988  52.1350012  86.1454997 137.5739988
  53.3590012  85.3634997 138.0009988  52.5049291  85.5236711 138.0524967
  43.1680012  82.2214997 139.2259988  42.4010012  81.6894997 139.0149988
  43.8470012  81.9114997 138.6259988  43.1547877  82.1068300 139.1160716
  45.9080012  76.8494997 135.2379988  45.8090012  77.7964997 135.1329988
  45.1650012  76.4774997 134.7619988  45.7941184  76.9285863 135.1593621
  47.1720012  81.1714997 138.8019988  46.9360012  80.9514997 139.7029988
  46.3880012  80.9644997 138.2919988  47.0338504  81.1134586 138.8563431
  49.8870012  80.2984997 137.8769988  48.9400012  80.3304997 138.0099988
  50.2000012  79.6734997 138.5309988  49.7996707  80.2183998 137.9836060
  51.5210012  78.9324997 139.8829988  51.4250012  77.9804997 139.8769988
  51.2000012  79.2014997 140.7429988  51.4644070  78.8384035 139.9985441
  41.3480012  80.1424997 138.9299988  41.5600012  79.4354997 138.3199988
  41.2370012  79.7044997 139.7739988  41.3619721  79.9867084 138.9606843
  46.1290012  76.1434997 137.9089988  46.8410012  75.5034997 137.8949988
  46.0280012  76.4104997 136.9959988  46.2128066  76.0920079 137.7835677
  46.4830012  77.8264997 139.9629988  46.3510012  77.3504997 139.1429988
  45.8840012  78.5704997 139.9079988  46.3839071  77.8619618 139.8432886
  46.0290012  94.7094997 123.1389988  46.9620012  94.8674997 123.2829988
  45.7650012  95.3844997 122.5149988  46.1209888  94.8224510 123.0742842
  39.5980012  89.3454997 122.6219988  40.5120012  89.4244997 122.8959988
  39.6050012  88.6584997 121.9559988  39.7241131  89.2633961 122.5694393
  38.2470012  94.7384997 127.6999988  37.6000012  94.2764997 127.1669988
  38.6010012  94.0664997 128.2819988  38.2063849  94.5844723 127.7057959
  39.1170012  92.8194997 129.5039988  38.7820012  91.9394997 129.6759988
  39.3390012  93.1644997 130.3689988  39.1011783  92.7457500 129.6444208
  56.6650012  93.6284997 132.4849988  56.6440012  93.8134997 133.4239988
  57.3560012  94.1974997 132.1439988  56.7554618  93.7306606 132.5673864
  56.2290012  93.1964997 135.4069988  55.7410012  92.4604997 135.0349988
  56.7780012  92.8024997 136.0849988  56.2364820  93.0425889 135.4477813
  54.6790012  88.9854997 140.0449988  53.8130012  88.8804997 140.4389988
  55.0560012  89.7444997 140.4909988  54.6113308  89.0736900 140.1592393
  55.9800012  87.2424997 125.5589988  56.8300012  87.6634997 125.6859988
  55.9860012  86.5024997 126.1659988  56.0971372  87.2000803 125.6584344
  56.3750012  85.2954997 127.3819988  55.6480012  84.8164997 127.7799988
  56.9560012  85.5014997 128.1149988  56.3540473  85.2578103 127.5354528
  56.1340012  88.0804997 132.3299988  56.9670012  87.7024997 132.0499988
  56.2460012  89.0234997 132.2109988  56.2632647  88.1562218 132.2755487
  54.6200012  90.9584997 134.6369988  53.9730012  91.2834997 135.2629988
  54.1030012  90.5184997 133.9629988  54.4614029  90.9435004 134.6315827
  56.6430012  85.1964997 123.7739988  56.1210012  85.5534997 123.0549988
  56.6100012  85.8714997 124.4519988  56.5671634  85.3365413 123.7673145
  54.9920012  82.4364997 122.3239988  55.0880012  83.1034997 121.6439988
  54.8520012  81.6204997 121.8429988  54.9862272  82.4175655 122.1658347
  54.1610012  83.8164997 127.9449988  54.0110012  82.8714997 127.9249988
  53.8080012  84.0974997 128.7889988  54.0927448  83.7251481 128.0563705
  39.1970012  85.8944997 131.9559988  39.3810012  85.8124997 131.0199988
  40.0460012  85.7704997 132.3789988  39.3370151  85.8665073 131.8851451
  55.0180012  85.7864997 137.5839988  55.6010012  85.0524997 137.7759988
  55.5820012  86.5584997 137.6309988  55.1739769  85.7904227 137.6166159
  56.5140012  83.6894997 138.2689988  55.6510012  83.3104997 138.1029988
  57.1190012  82.9504997 138.1939988  56.4776119  83.5378268 138.2361528
  54.2390012  79.8444997 121.4419988  54.8500012  79.4734997 122.0789988
  53.4030012  79.4234997 121.6379988  54.2095032  79.7367554 121.5557035
  53.8720012  81.3994997 126.4079988  54.1520012  80.4924997 126.5319988
  54.6310012  81.8334997 126.0189988  54.0129277  81.3340942 126.3723682
  54.4840012  81.9804997 131.8439988  55.4170012  82.1924997 131.8089988
  54.2490012  82.0824997 132.7659988  54.5799244  82.0233100 131.9638892
  54.5130012  82.7174997 134.6199988  53.6700012  82.9854997 134.9859988
  54.9550012  83.5394997 134.4089988  54.4574158  82.8653291 134.6415491
  38.7940012  81.1654997 138.0969988  39.7140012  81.0434997 138.3329988
  38.3450012  80.4154997 138.4859988  38.8591580  81.0473727 138.1819006
  56.7960012  76.6974997 139.9729988  57.1460012  76.0434997 139.3679988
  56.9430012  77.5344997 139.5329988  56.8637887  76.7211548 139.8306858
  54.4850012  78.6624997 126.4559988  54.6680012  78.2134997 127.2819988
  53.8860012  78.0774997 125.9929988  54.4290202  78.5219975 126.5063275
  40.0150012  79.4774997 130.9879988  40.4610012  78.6854997 131.2899988
  40.4820012  80.1934997 131.4179988  40.1390831  79.4660685 131.0874006
  38.3190012  82.4764997 132.0569988  38.8110012  82.2554997 131.2659988
  38.6820012  83.3174997 132.3379988  38.4353126  82.5598357 131.9867531
  56.3160012  78.8064997 138.3219988  55.3980012  79.0774997 138.2869988
  56.4390012  78.2714997 137.5379988  56.2069729  78.7712508 138.2111923
  56.3520012  78.7294997 122.9839988  56.7640012  78.0084997 122.5089988
  57.0340012  79.3994997 123.0429988  56.5005885  78.7212368 122.9268915
  38.6330012  78.7344997 126.1109988  37.7080012  78.9434997 125.9819988
  39.0870012  79.2184997 125.4209988  38.5677292  78.8285343 126.0000720
  53.4040012  93.7184997 128.0569988  54.0560012  93.3714997 127.4489988
  53.9140012  94.2074997 128.7029988  53.5622637  93.7370597 128.0610236
  38.5970012  77.4724997 134.4549988  37.9320012  77.2264997 135.0989988
  38.1540012  78.0944997 133.8779988  38.4461318  77.5229410 134.4650898
  40.7890012  90.6474997 138.5999988  39.9680012  90.8224997 138.1389988
  40.5360012  90.5744997 139.5199988  40.6425585  90.6615544 138.6613561
  43.7430012  91.6224997 134.8579988  43.3180012  92.4314997 134.5759988
  44.6470012  91.7074997 134.5559988  43.8069975  91.7449300 134.7784816
  48.0540012  93.0214997 137.8179988  48.2390012  92.6874997 138.6959988
  48.9000012  93.3304997 137.4959988  48.1937539  93.0176047 137.8945605
  50.3990012  94.3074997 137.0619988  51.0760012  93.6744997 136.8219988
  50.7210012  94.7084997 137.8689988  50.5351637  94.2751154 137.1382793
  55.3160012  76.8964997 136.1409988  54.5040012  77.2214997 135.7539988
  55.5490012  76.1364997 135.6079988  55.2362203  76.8382758 136.0158880
  41.1450012  94.8784997 134.9059988  40.4240012  95.3184997 134.4549988
  40.7790012  94.6274997 135.7539988  40.9969651  94.9047242 134.9589640
  43.6120012  94.4784997 133.9359988  42.7470012  94.5504997 134.3399988
  43.5570012  95.0254997 133.1519988  43.4862085  94.5622685 133.8853362
  48.3220012  94.3664997 133.1109988  47.8660012  94.8954997 132.4569988
  48.4850012  94.9694997 133.8359988  48.2816068  94.5204607 133.1194838
  50.6500012  93.2444997 134.0559988  49.7450012  93.4094997 133.7899988
  51.0790012  94.0974997 133.9909988  50.5841324  93.3824339 134.0107976
  53.2540012  94.8144997 134.3509988  53.0720012  95.7304997 134.1409988
  53.4310012  94.4044997 133.5049988  53.2530210  94.8844822 134.2077885
  40.5590012  93.5014997 131.8159988  40.5410012  93.0764997 132.6729988
  41.3640012  93.1834997 131.4069988  40.6653529  93.4003013 131.8780946
  42.7010012  92.2114997 130.4709988  42.4820012  91.2954997 130.6409988
  43.5250012  92.3514997 130.9369988  42.7824420  92.1050520 130.5572774
  45.2380012  92.6814997 131.3199988  45.4510012  91.7934997 131.0329988
  45.3020012  92.6474997 132.2739988  45.2758232  92.5553102 131.4097397
  48.7460012  78.3454997 130.4639988  48.0720012  77.7164997 130.7199988
  49.3100012  77.8614997 129.8609988  48.7299230  78.1938744 130.4175340
  53.8890012  76.4534997 130.5769988  54.4930012  77.0004997 130.0749988
  53.0190012  76.7724997 130.3359988  53.8541208  76.5715137 130.4756886
  55.6160012  77.5914997 128.9099988  56.2280012  77.0774997 128.3829988
  55.9980012  78.4694997 128.9329988  55.7513371  77.6397866 128.8410041
  41.0730012  76.9794997 128.2859988  40.2960012  76.7454997 127.7789988
  41.6030012  76.1824997 128.2949988  41.0382330  76.8396988 128.2177742
  39.9090012  76.7774997 124.0899988  40.3480012  77.3884997 123.4979988
  39.2760012  77.3154997 124.5639988  39.8834514  76.9339257 124.0730930
  45.6520012  76.9064997 128.0999988  46.5270012  77.2944997 128.0699988
  45.5160012  76.6914997 129.0219988  45.7533695  76.9305184 128.2206440
  51.2090012  76.9364997 129.7489988  51.2850012  77.0314997 128.7989988
  50.9340012  76.0284997 129.8779988  51.1822321  76.8267867 129.6365079
  52.5620012  76.9624997 125.4409988  51.8600012  77.5774997 125.2309988
  52.1180012  76.1244997 125.5719988  52.4056450  76.9335639 125.4299000
  39.8100012  92.7254997 124.9869988  39.1250012  92.6874997 124.3199988
  39.8140012  93.6384997 125.2759988  39.7166998  92.8436733 124.9346771
  41.7700012  78.6934997 122.5319988  42.2620012  78.0634997 122.0049988
  42.3940012  78.9894997 123.1949988  41.9215688  78.6473804 122.5495482
  46.7960012  78.9864997 124.9889988  46.9740012  78.3404997 125.6719988
  46.7430012  79.8204997 125.4559988  46.8131999  79.0108009 125.1455917
  48.6750012  93.9354997 123.3849988  49.5410012  94.3014997 123.2069988
  48.4280012  93.4954997 122.5709988  48.7602392  93.9261756 123.2506289
  55.3840012  93.4984997 126.0639988  55.1890012  92.7504997 125.4989988
  55.3450012  94.2564997 125.4809988  55.3520380  93.4986099 125.9078384
  41.0310012  77.4934997 137.8039988  40.6650012  76.7284997 138.2459988
  41.9440012  77.5224997 138.0899988  41.1042736  77.3925640 137.9032502
  43.0040012  76.8444997 139.3399988  43.9020012  76.5704997 139.1549988
  42.6170012  76.1014997 139.8039988  43.0746612  76.7065914 139.3773643
  41.6280012  93.6454997 122.0129988  41.3610012  93.9324997 122.8859988
  42.4000012  93.0994997 122.1649988  41.6957488  93.6110294 122.1531050
  51.4250012  76.1764997 139.5219988  51.5020012  75.7504997 140.3759988
  52.3190012  76.1904997 139.1789988  51.5563428  76.1200879 139.5925310
  54.6010012  92.2494997 138.2139988  53.8190012  92.0634997 137.6939988
  54.5290012  93.1784997 138.4319988  54.4842274  92.3496643 138.1723018
  69.0070012  86.1354997 128.2449988  69.0960012  87.0794997 128.1129988
  68.3690012  85.8604997 127.5869988  68.9329081  86.2274830 128.1379614
  67.9400012  85.3904997 131.6639988  67.9020012  84.7444997 132.3689988
  67.6180012  84.9244997 130.8929988  67.8912333  85.2389408 131.6562978
  60.3090012  85.0054997 133.2569988  60.3500012  84.3794997 133.9799988
  61.0120012  85.6294997 133.4389988  60.4096363  85.0041196 133.3806044
  71.6460012  88.3294997 129.9649988  71.2060012  87.6094997 130.4159988
  71.6330012  89.0504997 130.5949988  71.5840226  88.3283731 130.1118494
  61.2320012  89.4554997 131.7919988  60.8630012  88.6534997 131.4219988
  62.1730012  89.2864997 131.8379988  61.3087289  89.3230153 131.7476316
  57.8420012  83.1154997 127.1849988  57.3950012  83.9614997 127.1659988
  57.2810012  82.5354997 126.6689988  57.7049900  83.1529916 127.1126801
  58.5530012  85.2774997 129.3099988  58.7660012  84.5074997 129.8379988
  59.2910012  85.3664997 128.7069988  58.6819044  85.1841968 129.3007123
  68.7580012  93.4344997 130.1769988  69.3780012  92.7574997 129.9039988
  68.5500012  93.2164997 131.0859988  68.8146726  93.3124800 130.2624812
  66.3300012  87.8234997 132.0699988  66.6340012  87.1374997 131.4749988
  67.0510012  87.9414997 132.6879988  66.4690671  87.7456305 132.0721816
  74.9930012  79.4244997 132.9309988  75.0420012  80.0344997 133.6659988
  75.4180012  79.8854997 132.2079988  75.0571746  79.5703796 132.9339175
  69.4710012  82.2174997 132.3969988  69.6130012  81.2714997 132.4179988
  69.3640012  82.4244997 131.4689988  69.4759919  82.1158246 132.2743408
  62.6250012  80.3184997 129.6699988  62.6690012  81.1784997 129.2509988
  62.1680012  79.7664997 129.0359988  62.5692240  80.3614422 129.5269864
  70.3480012  80.4494997 128.0709988  70.9940012  80.1204997 128.6949988
  70.8580012  80.9674997 127.4479988  70.5054299  80.4744450 128.0722731
  59.2460012  82.7154997 130.4319988  59.8990012  82.1654997 130.8639988
  59.2700012  82.4414997 129.5149988  59.3386683  82.6031466 130.3672123
  64.4020012  84.2654997 129.6469988  65.0180012  83.7394997 130.1569988
  63.8160012  83.6254997 129.2439988  64.4070810  84.1069208 129.6623173
  75.3840012  80.9024997 135.1659988  74.6960012  81.5604997 135.0709988
  75.4000012  80.7054997 136.1029988  75.2919540  80.9659819 135.2795990
  61.4360012  79.2364997 133.7439988  61.2170012  79.7664997 132.9779988
  60.7680012  79.4634997 134.3909988  61.3157600  79.3396906 133.7266379
  68.8050012  88.7364997 127.2879988  68.5090012  88.4144997 126.4369988
  68.4800012  89.6364997 127.3289988  68.7206371  88.8140215 127.1771801
  64.0050012  86.9124997 134.0309988  63.2650012  87.5104997 134.1349988
  64.7190012  87.4664997 133.7159988  64.0002237  87.0692831 134.0026465
  72.1120012  79.7404997 130.0509988  71.8960012  78.9744997 130.5839988
  72.7670012  80.2124997 130.5639988  72.1710632  79.6995889 130.1932861
  61.0290012  81.1284997 131.6959988  61.6430012  81.7614997 132.0689988
  61.5410012  80.6564997 131.0399988  61.1821981  81.1512267 131.6582908
  62.4120012  88.8764997 134.8179988  62.4070012  89.7564997 134.4399988
  61.5590012  88.7934997 135.2429988  62.2959464  88.9856117 134.8237907
  58.5330012  88.5474997 125.5999988  58.2610012  88.7764997 124.7119988
  58.5790012  89.3854997 126.0609988  58.5019482  88.6921318 125.5406273
  72.1580012  90.1694997 132.3129988  71.2170012  90.2274997 132.4749988
  72.4350012  91.0754997 132.1759988  72.0664679  90.2999443 132.3166815
  72.4590012  78.4554997 133.7309988  71.7230012  79.0664997 133.6929988
  73.1420012  78.8704997 133.2039988  72.4506541  78.5951374 133.6545832
  65.4620012  76.5424997 131.1959988  65.3450012  75.5934997 131.1419988
  64.6070012  76.8744997 131.4699988  65.3304212  76.4575571 131.2256497
  70.4100012  91.9504997 128.9379988  70.8360012  91.2434997 128.4529988
  70.7270012  92.7514997 128.5219988  70.5111683  91.9621017 128.8153680
  71.5700012  89.8514997 127.4469988  71.3120012  89.1614997 126.8359988
  71.6410012  89.4084997 128.2929988  71.5442856  89.6972124 127.4776885
  73.2560012  88.4174997 135.9239988  73.3960012  87.8264997 135.1849988
  73.4230012  89.2904997 135.5679988  73.2977411  88.4545428 135.7746894
  67.7290012  85.3794997 125.6969988  67.0170012  85.9144997 125.3449988
  68.4200012  85.4354997 125.0369988  67.7250132  85.4602543 125.5596289
  67.7820012  83.8374997 122.7359988  68.4830012  83.8594997 123.3869988
  68.0850012  83.2094997 122.0789988  67.9188133  83.7557070 122.7363369
  75.0980012  84.7574997 133.9899988  74.4450012  85.4524997 134.0799988
  75.5630012  84.9674997 133.1809988  75.0715274  84.8810643 133.8928462
  71.1340012  85.5894997 126.6489988  70.4020012  85.8174997 127.2219988
  71.5820012  84.8754997 127.1029988  71.0942725  85.5242145 126.7888816
  71.0320012  83.7634997 135.7159988  71.1120012  84.5264997 136.2879988
  70.4300012  84.0424997 135.0259988  70.9615756  83.9057134 135.7010589
  62.7800012  86.2194997 128.5309988  62.4490012  85.8494997 127.7129988
  63.3680012  85.5494997 128.8779988  62.8141873  86.0781156 128.4658102
  64.1460012  89.6474997 131.2119988  64.0520012  89.0694997 130.4559988
  64.8760012  89.2764997 131.7089988  64.2317387  89.5181663 131.1755342
  63.1460012  84.9884997 132.1649988  63.7120012  85.1094997 131.4019988
  63.4650012  85.6254997 132.8029988  63.2665474  85.0912219 132.1469862
  69.4550012  90.4914997 132.8989988  69.2150012  91.1534997 133.5469988
  69.2570012  89.6574997 133.3239988  69.3953808  90.4693134 133.0451524
  64.0260012  89.3874997 136.8819988  63.7150012  90.1694997 137.3369988
  63.3760012  89.2344997 136.1959988  63.8955558  89.4739105 136.8515871
  70.0050012  84.7514997 124.3339988  70.5850012  84.9014997 125.0809988
  70.4190012  85.2224997 123.6099988  70.1402997  84.8356578 124.3384058
  60.9460012  85.5854997 136.1099988  61.0170012  86.2364997 136.8089988
  60.0560012  85.6884997 135.7749988  60.8353005  85.6885427 136.1603495
  67.7320012  91.4884997 127.7689988  68.2060012  91.7834997 128.5459988
  67.1690012  92.2264997 127.5359988  67.7208184  91.6287247 127.8439628
  62.2660012  91.4594997 137.6449988  62.2730012  91.3234997 136.6979988
  61.3500012  91.3414997 137.8969988  62.1431714  91.4249430 137.5494666
  73.7040012  76.5014997 124.1469988  72.8040012  76.6404997 124.4419988
  73.9560012  77.3324997 123.7449988  73.6148702  76.6329074 124.1330205
  61.7700012  85.2894997 126.1199988  61.4780012  86.0574997 125.6299988
  61.0960012  84.6294997 125.9579988  61.6388111  85.3055587 126.0308978
  74.8930012  90.8674997 122.5229988  74.9670012  91.8064997 122.6939988
  75.7990012  90.5624997 122.4669988  75.0255100  90.9546722 122.5388119
  57.8630012  87.6524997 134.9349988  57.3620012  87.6244997 134.1199988
  57.8680012  86.7464997 135.2449988  57.7950944  87.5262396 134.8653226
  57.6130012  90.4324997 131.8189988  58.5590012  90.2884997 131.7999988
  57.5010012  91.2164997 132.3559988  57.7272727  90.5188046 131.8890072
  75.8110012  91.0984997 137.5019988  75.7620012  90.1434997 137.4649988
  74.9840012  91.3664997 137.9029988  75.6924940  91.0038998 137.5511375
  66.7900012  90.6724997 136.3779988  66.8770012  91.4984997 136.8529988
  65.9260012  90.3424997 136.6269988  66.6851964  90.7409878 136.4766549
  67.2040012  94.4444997 126.1839988  67.1290012  94.3234997 125.2369988
  67.2370012  95.3944997 126.3019988  67.1982068  94.5562646 126.0704967
  60.8570012  93.2334997 127.9649988  61.0100012  92.8854997 128.8429988
  60.0070012  92.8774997 127.7099988  60.7629166  93.1376216 128.0508079
  70.3060012  93.5984997 123.1859988  70.6810012  92.8544997 122.7149988
  70.3100012  93.3284997 124.1049988  70.3579125  93.4600986 123.2456483
  69.9750012  93.5244997 125.9349988  69.0390012  93.6244997 126.1139988
  70.2550012  92.8154997 126.5139988  69.8849553  93.4423406 126.0377087
  72.9630012  82.5914997 137.9819988  72.5560012  83.0724997 137.2609988
  73.0040012  81.6864997 137.6739988  72.9128437  82.5349374 137.8416683
  60.1120012  88.9754997 135.9789988  60.3280012  88.6144997 136.8379988
  59.2570012  88.6014997 135.7689988  60.0259292  88.8754111 136.0683386
  62.7310012  77.4454997 131.9739988  61.8690012  77.3584997 131.5659988
  62.7080012  78.3014997 132.4019988  62.6100409  77.5492883 131.9760589
  67.3940012  77.1674997 135.3489988  67.8140012  76.7524997 136.1019988
  66.4610012  76.9894997 135.4659988  67.3253644  77.0865900 135.4679539
  70.7200012  80.9234997 136.2019988  70.2060012  80.7974997 136.9999988
  70.5650012  81.8354997 135.9579988  70.6286852  81.0296132 136.2782158
  71.4830012  85.7844997 121.9639988  71.5250012  85.5614997 121.0339988
  72.3320012  86.1834997 122.1529988  71.6035280  85.8079438 121.8623554
  67.0550012  79.6604997 122.6339988  66.8020012  79.6794997 123.5569988
  66.7990012  78.7884997 122.3319988  66.9857481  79.5452558 122.7196175
  62.8220012  82.4114997 133.0689988  62.1800012  82.3704997 133.7779988
  62.8590012  83.3374997 132.8309988  62.7390664  82.5311430 133.1339219
  62.8190012  82.6324997 127.9809988  61.9260012  82.2914997 127.9219988
  63.2690012  82.2554997 127.2249988  62.7578130  82.5349631 127.8707702
  68.3540012  83.0484997 126.7979988  67.9450012  83.8634997 126.5069988
  69.0750012  82.9084997 126.1839988  68.3954537  83.1412018 126.6751342
  67.4560012  83.2234997 138.2859988  66.8940012  82.5194997 138.6069988
  68.2830012  83.1034997 138.7539988  67.4907095  83.1107883 138.3932330
  69.3590012  82.4944997 129.6119988  69.1640012  83.0994997 128.8969988
  69.5400012  81.6604997 129.1779988  69.3567614  82.4646300 129.4554405
  60.5720012  82.7314997 134.9359988  60.5340012  83.1314997 135.8049988
  60.0810012  81.9144997 135.0269988  60.5004684  82.6758069 135.0671059
  63.9380012  80.1054997 121.7349988  63.5070012  79.6604997 122.4649988
  63.2200012  80.4774997 121.2229988  63.7819438  80.0948940 121.7656799
  57.1800012  79.8474997 128.7869988  57.8110012  79.8184997 129.5059988
  57.6290012  79.4224997 128.0559988  57.3270918  79.7860836 128.7866441
  58.4540012  80.5934997 124.2109988  58.9280012  81.1844997 123.6259988
  57.7370012  81.1244997 124.5579988  58.4219341  80.7460867 124.1778836
  68.6230012  84.1324997 134.2829988  68.9460012  83.5014997 133.6399988
  68.1830012  83.5974997 134.9439988  68.6077484  83.9738387 134.2843198
  65.4000012  80.0594997 129.0669988  64.4890012  80.1164997 129.3559988
  65.9060012  79.9994997 129.8779988  65.3436899  80.0591941 129.2161184
  60.2290012  81.6884997 127.8939988  59.3390012  81.7884997 127.5539988
  60.5250012  80.8464997 127.5479988  60.1472823  81.5883545 127.8007213
  63.8820012  81.6884997 125.5509988  64.8130012  81.8174997 125.7289988
  63.6670012  82.3584997 124.9009988  63.9804247  81.7966565 125.4875747
  69.8050012  79.2944997 132.3319988  69.1290012  79.4254997 132.9959988
  69.3200012  79.1394997 131.5209988  69.6467146  79.2915157 132.3134469
  62.5560012  82.8834997 123.1169988  62.0130012  82.5034997 122.4259988
  63.3890012  83.0774997 122.6889988  62.5943631  82.8577125 122.9644501
  73.0930012  94.9664997 138.6079988  73.2930012  95.3904997 137.7739988
  73.7480012  95.3094997 139.2149988  73.2090072  95.0709857 138.5758592
  60.6910012  87.4404997 138.2159988  61.4230012  87.6944997 138.7779988
  59.9110012  87.6444997 138.7319988  60.6857073  87.5028160 138.3626151
  66.7200012  82.8474997 130.9539988  67.2850012  82.3004997 130.4069988
  66.5730012  82.3254997 131.7429988  66.7773380  82.7022259 130.9858695
  61.7220012  78.9834997 127.3729988  61.4050012  78.0814997 127.3369988
  62.5040012  78.9854997 126.8199988  61.7842408  78.8602474 127.2933569
  65.3470012  81.2354997 133.3679988  64.5110012  81.6894997 133.4789988
  65.8710012  81.5114997 134.1199988  65.3035416  81.3348660 133.4848119
  65.8910012  87.4484997 125.0529988  65.1460012  86.9414997 124.7309988
  65.7570012  87.4974997 125.9999988  65.7708776  87.3856940 125.1368647
  73.0410012  86.5814997 133.8399988  73.6830012  87.0384997 133.2959988
  72.2110012  86.6944997 133.3769988  73.0165963  86.6592704 133.7030177
  69.7890012  80.2624997 123.2519988  68.8500012  80.3744997 123.1009988
  70.0860012  81.1194997 123.5589988  69.7007583  80.3935981 123.2728337
  67.4100012  87.6324997 136.2899988  67.0650012  87.2514997 137.0969988
  67.2100012  88.5664997 136.3609988  67.3357527  87.7065135 136.4100689
  70.5070012  82.1294997 124.9129988  71.3990012  81.9924997 125.2319988
  70.5640012  82.9204997 124.3759988  70.6366504  82.2176052 124.8840818
  61.0160012  86.7434997 130.8229988  61.7610012  86.7414997 130.2219988
  61.0940012  85.9204997 131.3039988  61.1284995  86.6318887 130.8058282
  68.0170012  88.9074997 124.0789988  67.7210012  89.7334997 124.4599988
  67.3140012  88.2874997 124.2749988  67.8814914  88.9368199 124.1576443
  58.0240012  85.2044997 136.1379988  58.2470012  84.7864997 136.9699988
  57.4220012  84.5914997 135.7149988  57.9731759  85.0644668 136.1947022
  65.0400012  84.7214997 138.3509988  64.7440012  84.5554997 137.4559988
  65.9720012  84.5014997 138.3399988  65.1254166  84.6690640 138.2270536
  69.6610012  90.0944997 136.2409988  68.7600012  90.2774997 135.9729988
  69.6950012  90.3534997 137.1609988  69.5423139  90.1545849 136.3288099
  75.3920012  82.3394997 124.6079988  74.8380012  81.9434997 123.9359988
  75.4920012  83.2494997 124.3299988  75.3297059  82.4083586 124.4784401
  75.3550012  88.1394997 137.4449988  74.5040012  88.3774997 137.0779988
  75.9460012  88.1224997 136.6919988  75.3182487  88.1698258 137.2928893
  73.6870012  91.1254997 125.0729988  73.3140012  90.2994997 125.3819988
  73.9650012  90.9424997 124.1749988  73.6735222  90.9877430 124.9939473
  70.8480012  85.9334997 132.0939988  69.9190012  85.7014997 132.0669988
  71.2990012  85.1564997 131.7639988  70.7819216  85.7967238 132.0456917
  63.3910012  90.2614997 128.2269988  63.9180012  91.0344997 128.0269988
  62.5110012  90.4864997 127.9249988  63.3442031  90.3977545 128.1587912
  59.1460012  85.1234997 122.8139988  59.7620012  85.7504997 123.1939988
  58.2840012  85.4394997 123.0859988  59.1137698  85.2519430 122.9027183
  64.8180012  87.9244997 127.8029988  64.5770012  88.8494997 127.8449988
  64.0770012  87.4654997 128.1999988  64.6849225  87.9890933 127.8623742
  65.3330012  92.0734997 134.1189988  65.6950012  92.9284997 133.8849988
  65.8640012  91.7814997 134.8589988  65.4544473  92.1511060 134.1870855
  63.5010012  92.9464997 127.3489988  62.5510012  93.0514997 127.3999988
  63.8530012  93.7664997 127.6929988  63.4184195  93.0718800 127.4025502
  68.8770012  88.1724997 133.8189988  68.4510012  87.9454997 134.6459988
  69.4570012  87.4344997 133.6369988  68.8971868  88.0415299 133.9075830
  71.0800012  89.1014997 122.8929988  71.4330012  88.7214997 123.6969988
  70.1310012  89.0084997 122.9799988  71.0000918  89.0368956 123.0148532
  71.5350012  92.7244997 136.2889988  70.9340012  92.1694997 135.7929988
  71.8170012  93.3914997 135.6619988  71.4908804  92.7386625 136.1364849
  75.5830012  93.5814997 123.0939988  76.3270012  94.1674997 122.9539988
  74.8890012  94.1494997 123.4269988  75.5909899  93.7385798 123.1198778
  59.6580012  79.9574997 135.6959988  58.7650012  80.2964997 135.6279988
  59.5590012  79.1024997 136.1139988  59.5224164  79.8882588 135.7432235
  71.9460012  87.7744997 125.1199988  71.6680012  87.0464997 125.6759988
  72.8730012  87.8934997 125.3249988  72.0333124  87.6908802 125.2238845
  59.3090012  91.7624997 134.1309988  59.5260012  90.8304997 134.0999988
  59.5550012  92.0364997 135.0139988  59.3719549  91.6720636 134.2461763
  65.1710012  90.2134997 121.3399988  65.4100012  89.4654997 120.7929988
  64.9020012  89.8254997 122.1729988  65.1673675  90.0586638 121.3776865
  64.1080012  89.7834997 123.7959988  64.2540012  89.2634997 124.5859988
  64.1050012  90.6904997 124.1029988  64.1275792  89.8348842 123.9456117
  60.5610012  87.0364997 124.3069988  59.8750012  87.3884997 124.8739988
  61.0830012  87.7994997 124.0599988  60.5376852  87.1878578 124.3512118
  68.3920012  79.6984997 134.5859988  69.0910012  79.7724997 135.2359988
  68.0110012  78.8344997 134.7399988  68.4361767  79.5917624 134.6958322
  69.1770012  79.3504997 125.6829988  69.3970012  79.8224997 124.8799988
  69.7350012  79.7454997 126.3529988  69.2824968  79.4684285 125.6637331
  66.8450012  91.4814997 124.5459988  66.0290012  91.9784997 124.5979988
  67.3750012  91.9564997 123.9059988  66.8049161  91.6137722 124.4665956
  66.3770012  81.0784997 126.5179988  67.1890012  81.5834997 126.5639988
  66.1320012  80.9334997 127.4319988  66.4550520  81.1280375 126.6478517
  66.9120012  82.0644997 135.7019988  67.0310012  82.6384997 136.4599988
  67.5680012  81.3764997 135.8169988  67.0169025  82.0499858 135.8211321
  67.2600012  78.1594997 127.4559988  66.9140012  78.7774997 128.0999988
  67.9190012  78.6604997 126.9739988  67.3016968  78.3116278 127.4789383
  64.1840012  92.5254997 124.5269988  64.3440012  93.3244997 124.0269988
  63.9860012  92.8314997 125.4119988  64.1791637  92.6764020 124.5781144
  62.9180012  79.2224997 124.1429988  62.8350012  80.1114997 124.4899988
  63.8080012  78.9574997 124.3749988  63.0269469  79.3081430 124.2217626
  73.1170012  79.9714997 136.5369988  72.2000012  80.2344997 136.4499988
  73.4520012  79.9684997 135.6409988  73.0368613  80.0070761 136.4038837
  71.7190012  83.7224997 130.6329988  70.9210012  83.3074997 130.3049988
  72.1640012  83.0314997 131.1239988  71.6699885  83.5723543 130.6544889
  61.1770012  89.6504997 123.2039988  61.7690012  90.3494997 123.4799988
  61.6360012  89.2174997 122.4839988  61.3201142  89.6877049 123.1444830
  59.4930012  82.3144997 122.3199988  59.4480012  83.2534997 122.4979988
  58.6050012  82.0784997 122.0499988  59.3668574  82.4111892 122.3078912
  72.8050012  92.9784997 132.2559988  72.6500012  93.6564997 131.5979988
  73.7380012  93.0504997 132.4589988  72.9098657  93.0809546 132.1934360
  60.3010012  77.0964997 130.9929988  60.0720012  77.1554997 130.0649988
  59.8580012  76.3044997 131.2989988  60.2098530  76.9975753 130.9074786
  59.2310012  91.0364997 127.1529988  58.3990012  91.5094997 127.1799988
  59.7770012  91.5464997 126.5549988  59.1910352  91.1701332 127.0758463
  58.5190012  93.6494997 138.4829988  59.0600012  93.4324997 139.2429988
  58.0380012  92.8434997 138.2929988  58.5279951  93.5109270 138.5612576
  63.1170012  92.5684997 140.1029988  63.8840012  92.1094997 140.4439988
  63.0950012  92.3424997 139.1739988  63.2191275  92.4750186 140.0240101
  67.2090012  92.0764997 121.4789988  66.5650012  91.4454997 121.7999988
  67.9710012  91.5454997 121.2469988  67.2238077  91.9182920 121.4916011
  69.6940012  90.9484997 138.8329988  69.3430012  90.0924997 139.0759988
  70.4200012  91.0914997 139.4399988  69.7440769  90.8505636 138.9483619
  71.8130012  91.8934997 121.7119988  72.0960012  91.0994997 122.1649988
  72.5530012  92.1264997 121.1519988  71.9518006  91.8163376 121.6982715
  58.4260012  87.4594997 139.4369988  58.5700012  86.5574997 139.1509988
  57.6540012  87.7454997 138.9499988  58.3412753  87.3746816 139.3319505
  62.7680012  87.8034997 121.5699988  62.8320012  87.0094997 122.1009988
  63.4210012  87.6844997 120.8799988  62.8650241  87.6787148 121.5494317
  65.0820012  87.4294997 138.8699988  64.7530012  87.7004997 138.0129988
  65.2340012  86.4884997 138.7829988  65.0574809  87.3393862 138.7408244
  68.1200012  88.8504997 121.3059988  67.8510012  89.0304997 122.2069988
  67.9140012  87.9244997 121.1739988  68.0553427  88.7500261 121.4115073
  70.8160012  87.3454997 136.2529988  71.5620012  87.9334997 136.1339988
  70.0590012  87.9274997 136.3169988  70.8157820  87.5047143 136.2453590
  59.2590012  84.6594997 138.8569988  59.6670012  83.8024997 138.7359988
  58.9990012  84.6744997 139.7779988  59.2797568  84.5440807 138.9649588
  63.9170012  85.7754997 123.8759988  63.4570012  85.2914997 124.5619988
  64.1720012  85.1074997 123.2399988  63.8884902  85.6188731 123.8839334
  63.2060012  83.6684997 136.2319988  62.5880012  84.3434997 136.5119988
  63.5500012  83.9894997 135.3979988  63.1679132  83.8042411 136.1576262
  64.9880012  84.0184997 122.1379988  64.8080012  83.8644997 121.2109988
  65.9380012  84.1264997 122.1829988  65.0917776  84.0120175 122.0171843
  68.2260012  86.1404997 139.5089988  69.1790012  86.2234997 139.4819988
  68.0650012  85.4284997 140.1289988  68.3346426  86.0556746 139.5890579
  74.3780012  86.3734997 121.5839988  74.1040012  85.9484997 120.7709988
  74.4170012  87.3044997 121.3669988  74.3457699  86.4412484 121.4433610
  63.5450012  81.0234997 137.3139988  63.6950012  80.2944997 136.7119988
  63.5480012  81.8004997 136.7549988  63.5659302  81.0287851 137.1560692
  63.9580012  79.3934997 134.8069988  64.4940012  79.8444997 134.1549988
  63.1060012  79.2854997 134.3839988  63.9162178  79.4406390 134.6605756
  65.5400012  84.8324997 135.0459988  66.2900012  84.6764997 134.4729988
  65.2010012  85.6844997 134.7709988  65.5968921  84.9262968 134.9303561
  69.9550012  82.6474997 140.0749988  70.1480012  81.7164997 139.9629988
  70.8130012  83.0724997 140.0639988  70.0972934  82.5776531 140.0582031
  71.2720012  85.4364997 138.1519988  70.9910012  86.1454997 137.5739988
  72.2150012  85.3634997 138.0009988  71.3609291  85.5236711 138.0524967
  62.0240012  82.2214997 139.2259988  61.2570012  81.6894997 139.0149988
  62.7030012  81.9114997 138.6259988  62.0107877  82.1068300 139.1160716
  64.7640012  76.8494997 135.2379988  64.6650012  77.7964997 135.1329988
  64.0210012  76.4774997 134.7619988  64.6501184  76.9285863 135.1593621
  66.0280012  81.1714997 138.8019988  65.7920012  80.9514997 139.7029988
  65.2440012  80.9644997 138.2919988  65.8898504  81.1134586 138.8563431
  68.7430012  80.2984997 137.8769988  67.7960012  80.3304997 138.0099988
  69.0560012  79.6734997 138.5309988  68.6556707  80.2183998 137.9836060
  70.3770012  78.9324997 139.8829988  70.2810012  77.9804997 139.8769988
  70.0560012  79.2014997 140.7429988  70.3204070  78.8384035 139.9985441
  60.2040012  80.1424997 138.9299988  60.4160012  79.4354997 138.3199988
  60.0930012  79.7044997 139.7739988  60.2179721  79.9867084 138.9606843
  64.9850012  76.1434997 137.9089988  65.6970012  75.5034997 137.8949988
  64.8840012  76.4104997 136.9959988  65.0688066  76.0920079 137.7835677
  65.3390012  77.8264997 139.9629988  65.2070012  77.3504997 139.1429988
  64.7400012  78.5704997 139.9079988  65.2399071  77.8619618 139.8432886
  64.8850012  94.7094997 123.1389988  65.8180012  94.8674997 123.2829988
  64.6210012  95.3844997 122.5149988  64.9769888  94.8224510 123.0742842
  58.4540012  89.3454997 122.6219988  59.3680012  89.4244997 122.8959988
  58.4610012  88.6584997 121.9559988  58.5801131  89.2633961 122.5694393
  57.1030012  94.7384997 127.6999988  56.4560012  94.2764997 127.1669988
  57.4570012  94.0664997 128.2819988  57.0623849  94.5844723 127.7057959
  57.9730012  92.8194997 129.5039988  57.6380012  91.9394997 129.6759988
  58.1950012  93.1644997 130.3689988  57.9571783  92.7457500 129.6444208
  75.5210012  93.6284997 132.4849988  75.5000012  93.8134997 133.4239988
  76.2120012  94.1974997 132.1439988  75.6114618  93.7306606 132.5673864
  75.0850012  93.1964997 135.4069988  74.5970012  92.4604997 135.0349988
  75.6340012  92.8024997 136.0849988  75.0924820  93.0425889 135.4477813
  73.5350012  88.9854997 140.0449988  72.6690012  88.8804997 140.4389988
  73.9120012  89.7444997 140.4909988  73.4673308  89.0736900 140.1592393
  74.8360012  87.2424997 125.5589988  75.6860012  87.6634997 125.6859988
  74.8420012  86.5024997 126.1659988  74.9531372  87.2000803 125.6584344
  75.2310012  85.2954997 127.3819988  74.5040012  84.8164997 127.7799988
  75.8120012  85.5014997 128.1149988  75.2100473  85.2578103 127.5354528
  74.9900012  88.0804997 132.3299988  75.8230012  87.7024997 132.0499988
  75.1020012  89.0234997 132.2109988  75.1192647  88.1562218 132.2755487
  73.4760012  90.9584997 134.6369988  72.8290012  91.2834997 135.2629988
  72.9590012  90.5184997 133.9629988  73.3174029  90.9435004 134.6315827
  75.4990012  85.1964997 123.7739988  74.9770012  85.5534997 123.0549988
  75.4660012  85.8714997 124.4519988  75.4231634  85.3365413 123.7673145
  73.8480012  82.4364997 122.3239988  73.9440012  83.1034997 121.6439988
  73.7080012  81.6204997 121.8429988  73.8422272  82.4175655 122.1658347
  73.0170012  83.8164997 127.9449988  72.8670012  82.8714997 127.9249988
  72.6640012  84.0974997 128.7889988  72.9487448  83.7251481 128.0563705
  58.0530012  85.8944997 131.9559988  58.2370012  85.8124997 131.0199988
  58.9020012  85.7704997 132.3789988  58.1930151  85.8665073 131.8851451
  73.8740012  85.7864997 137.5839988  74.4570012  85.0524997 137.7759988
  74.4380012  86.5584997 137.6309988  74.0299769  85.7904227 137.6166159
  75.3700012  83.6894997 138.2689988  74.5070012  83.3104997 138.1029988
  75.9750012  82.9504997 138.1939988  75.3336119  83.5378268 138.2361528
  73.0950012  79.8444997 121.4419988  73.7060012  79.4734997 122.0789988
  72.2590012  79.4234997 121.6379988  73.0655032  79.7367554 121.5557035
  72.7280012  81.3994997 126.4079988  73.0080012  80.4924997 126.5319988
  73.4870012  81.8334997 126.0189988  72.8689277  81.3340942 126.3723682
  73.3400012  81.9804997 131.8439988  74.2730012  82.1924997 131.8089988
  73.1050012  82.0824997 132.7659988  73.4359244  82.0233100 131.9638892
  73.3690012  82.7174997 134.6199988  72.5260012  82.9854997 134.9859988
  73.8110012  83.5394997 134.4089988  73.3134158  82.8653291 134.6415491
  57.6500012  81.1654997 138.0969988  58.5700012  81.0434997 138.3329988
  57.2010012  80.4154997 138.4859988  57.7151580  81.0473727 138.1819006
  75.6520012  76.6974997 139.9729988  76.0020012  76.0434997 139.3679988
  75.7990012  77.5344997 139.5329988  75.7197887  76.7211548 139.8306858
  73.3410012  78.6624997 126.4559988  73.5240012  78.2134997 127.2819988
  72.7420012  78.0774997 125.9929988  73.2850202  78.5219975 126.5063275
  58.8710012  79.4774997 130.9879988  59.3170012  78.6854997 131.2899988
  59.3380012  80.1934997 131.4179988  58.9950831  79.4660685 131.0874006
  57.1750012  82.4764997 132.0569988  57.6670012  82.2554997 131.2659988
  57.5380012  83.3174997 132.3379988  57.2913126  82.5598357 131.9867531
  75.1720012  78.8064997 138.3219988  74.2540012  79.0774997 138.2869988
  75.2950012  78.2714997 137.5379988  75.0629729  78.7712508 138.2111923
  75.2080012  78.7294997 122.9839988  75.6200012  78.0084997 122.5089988
  75.8900012  79.3994997 123.0429988  75.3565885  78.7212368 122.9268915
  57.4890012  78.7344997 126.1109988  56.5640012  78.9434997 125.9819988
  57.9430012  79.2184997 125.4209988  57.4237292  78.8285343 126.0000720
  72.2600012  93.7184997 128.0569988  72.9120012  93.3714997 127.4489988
  72.7700012  94.2074997 128.7029988  72.4182637  93.7370597 128.0610236
  57.4530012  77.4724997 134.4549988  56.7880012  77.2264997 135.0989988
  57.0100012  78.0944997 133.8779988  57.3021318  77.5229410 134.4650898
  59.6450012  90.6474997 138.5999988  58.8240012  90.8224997 138.1389988
  59.3920012  90.5744997 139.5199988  59.4985585  90.6615544 138.6613561
  62.5990012  91.6224997 134.8579988  62.1740012  92.4314997 134.5759988
  63.5030012  91.7074997 134.5559988  62.6629975  91.7449300 134.7784816
  66.9100012  93.0214997 137.8179988  67.0950012  92.6874997 138.6959988
  67.7560012  93.3304997 137.4959988  67.0497539  93.0176047 137.8945605
  69.2550012  94.3074997 137.0619988  69.9320012  93.6744997 136.8219988
  69.5770012  94.7084997 137.8689988  69.3911637  94.2751154 137.1382793
  74.1720012  76.8964997 136.1409988  73.3600012  77.2214997 135.7539988
  74.4050012  76.1364997 135.6079988  74.0922203  76.8382758 136.0158880
  60.0010012  94.8784997 134.9059988  59.2800012  95.3184997 134.4549988
  59.6350012  94.6274997 135.7539988  59.8529651  94.9047242 134.9589640
  62.4680012  94.4784997 133.9359988  61.6030012  94.5504997 134.3399988
  62.4130012  95.0254997 133.1519988  62.3422085  94.5622685 133.8853362
  67.1780012  94.3664997 133.1109988  66.7220012  94.8954997 132.4569988
  67.3410012  94.9694997 133.8359988  67.1376068  94.5204607 133.1194838
  69.5060012  93.2444997 134.0559988  68.6010012  93.4094997 133.7899988
  69.9350012  94.0974997 133.9909988  69.4401324  93.3824339 134.0107976
  72.1100012  94.8144997 134.3509988  71.9280012  95.7304997 134.1409988
  72.2870012  94.4044997 133.5049988  72.1090210  94.8844822 134.2077885
  59.4150012  93.5014997 131.8159988  59.3970012  93.0764997 132.6729988
  60.2200012  93.1834997 131.4069988  59.5213529  93.4003013 131.8780946
  61.5570012  92.2114997 130.4709988  61.3380012  91.2954997 130.6409988
  62.3810012  92.3514997 130.9369988  61.6384420  92.1050520 130.5572774
  64.0940012  92.6814997 131.3199988  64.3070012  91.7934997 131.0329988
  64.1580012  92.6474997 132.2739988  64.1318232  92.5553102 131.4097397
  67.6020012  78.3454997 130.4639988  66.9280012  77.7164997 130.7199988
  68.1660012  77.8614997 129.8609988  67.5859230  78.1938744 130.4175340
  72.7450012  76.4534997 130.5769988  73.3490012  77.0004997 130.0749988
  71.8750012  76.7724997 130.3359988  72.7101208  76.5715137 130.4756886
  74.4720012  77.5914997 128.9099988  75.0840012  77.0774997 128.3829988
  74.8540012  78.4694997 128.9329988  74.6073371  77.6397866 128.8410041
  59.9290012  76.9794997 128.2859988  59.1520012  76.7454997 127.7789988
  60.4590012  76.1824997 128.2949988  59.8942330  76.8396988 128.2177742
  58.7650012  76.7774997 124.0899988  59.2040012  77.3884997 123.4979988
  58.1320012  77.3154997 124.5639988  58.7394514  76.9339257 124.0730930
  64.5080012  76.9064997 128.0999988  65.3830012  77.2944997 128.0699988
  64.3720012  76.6914997 129.0219988  64.6093695  76.9305184 128.2206440
  70.0650012  76.9364997 129.7489988  70.1410012  77.0314997 128.7989988
  69.7900012  76.0284997 129.8779988  70.0382321  76.8267867 129.6365079
  71.4180012  76.9624997 125.4409988  70.7160012  77.5774997 125.2309988
  70.9740012  76.1244997 125.5719988  71.2616450  76.9335639 125.4299000
  58.6660012  92.7254997 124.9869988  57.9810012  92.6874997 124.3199988
  58.6700012  93.6384997 125.2759988  58.5726998  92.8436733 124.9346771
  60.6260012  78.6934997 122.5319988  61.1180012  78.0634997 122.0049988
  61.2500012  78.9894997 123.1949988  60.7775688  78.6473804 122.5495482
  65.6520012  78.9864997 124.9889988  65.8300012  78.3404997 125.6719988
  65.5990012  79.8204997 125.4559988  65.6691999  79.0108009 125.1455917
  67.5310012  93.9354997 123.3849988  68.3970012  94.3014997 123.2069988
  67.2840012  93.4954997 122.5709988  67.6162392  93.9261756 123.2506289
  74.2400012  93.4984997 126.0639988  74.0450012  92.7504997 125.4989988
  74.2010012  94.2564997 125.4809988  74.2080380  93.4986099 125.9078384
  59.8870012  77.4934997 137.8039988  59.5210012  76.7284997 138.2459988
  60.8000012  77.5224997 138.0899988  59.9602736  77.3925640 137.9032502
  61.8600012  76.8444997 139.3399988  62.7580012  76.5704997 139.1549988
  61.4730012  76.1014997 139.8039988  61.9306612  76.7065914 139.3773643
  60.4840012  93.6454997 122.0129988  60.2170012  93.9324997 122.8859988
  61.2560012  93.0994997 122.1649988  60.5517488  93.6110294 122.1531050
  70.2810012  76.1764997 139.5219988  70.3580012  75.7504997 140.3759988
  71.1750012  76.1904997 139.1789988  70.4123428  76.1200879 139.5925310
  73.4570012  92.2494997 138.2139988  72.6750012  92.0634997 137.6939988
  73.3850012  93.1784997 138.4319988  73.3402274  92.3496643 138.1723018
  87.8630012  86.1354997 128.2449988  87.9520012  87.0794997 128.1129988
  87.2250012  85.8604997 127.5869988  87.7889081  86.2274830 128.1379614
  86.7960012  85.3904997 131.6639988  86.7580012  84.7444997 132.3689988
  86.4740012  84.9244997 130.8929988  86.7472333  85.2389408 131.6562978
  79.1650012  85.0054997 133.2569988  79.2060012  84.3794997 133.9799988
  79.8680012  85.6294997 133.4389988  79.2656363  85.0041196 133.3806044
  90.5020012  88.3294997 129.9649988  90.0620012  87.6094997 130.4159988
  90.4890012  89.0504997 130.5949988  90.4400226  88.3283731 130.1118494
  80.0880012  89.4554997 131.7919988  79.7190012  88.6534997 131.4219988
  81.0290012  89.2864997 131.8379988  80.1647289  89.3230153 131.7476316
  76.6980012  83.1154997 127.1849988  76.2510012  83.9614997 127.1659988
  76.1370012  82.5354997 126.6689988  76.5609900  83.1529916 127.1126801
  77.4090012  85.2774997 129.3099988  77.6220012  84.5074997 129.8379988
  78.1470012  85.3664997 128.7069988  77.5379044  85.1841968 129.3007123
  87.6140012  93.4344997 130.1769988  88.2340012  92.7574997 129.9039988
  87.4060012  93.2164997 131.0859988  87.6706726  93.3124800 130.2624812
  85.1860012  87.8234997 132.0699988  85.4900012  87.1374997 131.4749988
  85.9070012  87.9414997 132.6879988  85.3250671  87.7456305 132.0721816
  93.8490012  79.4244997 132.9309988  93.8980012  80.0344997 133.6659988
  94.2740012  79.8854997 132.2079988  93.9131746  79.5703796 132.9339175
  88.3270012  82.2174997 132.3969988  88.4690012  81.2714997 132.4179988
  88.2200012  82.4244997 131.4689988  88.3319919  82.1158246 132.2743408
  81.4810012  80.3184997 129.6699988  81.5250012  81.1784997 129.2509988
  81.0240012  79.7664997 129.0359988  81.4252240  80.3614422 129.5269864
  89.2040012  80.4494997 128.0709988  89.8500012  80.1204997 128.6949988
  89.7140012  80.9674997 127.4479988  89.3614299  80.4744450 128.0722731
  78.1020012  82.7154997 130.4319988  78.7550012  82.1654997 130.8639988
  78.1260012  82.4414997 129.5149988  78.1946683  82.6031466 130.3672123
  83.2580012  84.2654997 129.6469988  83.8740012  83.7394997 130.1569988
  82.6720012  83.6254997 129.2439988  83.2630810  84.1069208 129.6623173
  94.2400012  80.9024997 135.1659988  93.5520012  81.5604997 135.0709988
  94.2560012  80.7054997 136.1029988  94.1479540  80.9659819 135.2795990
  80.2920012  79.2364997 133.7439988  80.0730012  79.7664997 132.9779988
  79.6240012  79.4634997 134.3909988  80.1717600  79.3396906 133.7266379
  87.6610012  88.7364997 127.2879988  87.3650012  88.4144997 126.4369988
  87.3360012  89.6364997 127.3289988  87.5766371  88.8140215 127.1771801
  82.8610012  86.9124997 134.0309988  82.1210012  87.5104997 134.1349988
  83.5750012  87.4664997 133.7159988  82.8562237  87.0692831 134.0026465
  90.9680012  79.7404997 130.0509988  90.7520012  78.9744997 130.5839988
  91.6230012  80.2124997 130.5639988  91.0270632  79.6995889 130.1932861
  79.8850012  81.1284997 131.6959988  80.4990012  81.7614997 132.0689988
  80.3970012  80.6564997 131.0399988  80.0381981  81.1512267 131.6582908
  81.2680012  88.8764997 134.8179988  81.2630012  89.7564997 134.4399988
  80.4150012  88.7934997 135.2429988  81.1519464  88.9856117 134.8237907
  77.3890012  88.5474997 125.5999988  77.1170012  88.7764997 124.7119988
  77.4350012  89.3854997 126.0609988  77.3579482  88.6921318 125.5406273
  91.0140012  90.1694997 132.3129988  90.0730012  90.2274997 132.4749988
  91.2910012  91.0754997 132.1759988  90.9224679  90.2999443 132.3166815
  91.3150012  78.4554997 133.7309988  90.5790012  79.0664997 133.6929988
  91.9980012  78.8704997 133.2039988  91.3066541  78.5951374 133.6545832
  84.3180012  76.5424997 131.1959988  84.2010012  75.5934997 131.1419988
  83.4630012  76.8744997 131.4699988  84.1864212  76.4575571 131.2256497
  89.2660012  91.9504997 128.9379988  89.6920012  91.2434997 128.4529988
  89.5830012  92.7514997 128.5219988  89.3671683  91.9621017 128.8153680
  90.4260012  89.8514997 127.4469988  90.1680012  89.1614997 126.8359988
  90.4970012  89.4084997 128.2929988  90.4002856  89.6972124 127.4776885
  92.1120012  88.4174997 135.9239988  92.2520012  87.8264997 135.1849988
  92.2790012  89.2904997 135.5679988  92.1537411  88.4545428 135.7746894
  86.5850012  85.3794997 125.6969988  85.8730012  85.9144997 125.3449988
  87.2760012  85.4354997 125.0369988  86.5810132  85.4602543 125.5596289
  86.6380012  83.8374997 122.7359988  87.3390012  83.8594997 123.3869988
  86.9410012  83.2094997 122.0789988  86.7748133  83.7557070 122.7363369
  93.9540012  84.7574997 133.9899988  93.3010012  85.4524997 134.0799988
  94.4190012  84.9674997 133.1809988  93.9275274  84.8810643 133.8928462
  89.9900012  85.5894997 126.6489988  89.2580012  85.8174997 127.2219988
  90.4380012  84.8754997 127.1029988  89.9502725  85.5242145 126.7888816
  89.8880012  83.7634997 135.7159988  89.9680012  84.5264997 136.2879988
  89.2860012  84.0424997 135.0259988  89.8175756  83.9057134 135.7010589
  81.6360012  86.2194997 128.5309988  81.3050012  85.8494997 127.7129988
  82.2240012  85.5494997 128.8779988  81.6701873  86.0781156 128.4658102
  83.0020012  89.6474997 131.2119988  82.9080012  89.0694997 130.4559988
  83.7320012  89.2764997 131.7089988  83.0877387  89.5181663 131.1755342
  82.0020012  84.9884997 132.1649988  82.5680012  85.1094997 131.4019988
  82.3210012  85.6254997 132.8029988  82.1225474  85.0912219 132.1469862
  88.3110012  90.4914997 132.8989988  88.0710012  91.1534997 133.5469988
  88.1130012  89.6574997 133.3239988  88.2513808  90.4693134 133.0451524
  82.8820012  89.3874997 136.8819988  82.5710012  90.1694997 137.3369988
  82.2320012  89.2344997 136.1959988  82.7515558  89.4739105 136.8515871
  88.8610012  84.7514997 124.3339988  89.4410012  84.9014997 125.0809988
  89.2750012  85.2224997 123.6099988  88.9962997  84.8356578 124.3384058
  79.8020012  85.5854997 136.1099988  79.8730012  86.2364997 136.8089988
  78.9120012  85.6884997 135.7749988  79.6913005  85.6885427 136.1603495
  86.5880012  91.4884997 127.7689988  87.0620012  91.7834997 128.5459988
  86.0250012  92.2264997 127.5359988  86.5768184  91.6287247 127.8439628
  81.1220012  91.4594997 137.6449988  81.1290012  91.3234997 136.6979988
  80.2060012  91.3414997 137.8969988  80.9991714  91.4249430 137.5494666
  92.5600012  76.5014997 124.1469988  91.6600012  76.6404997 124.4419988
  92.8120012  77.3324997 123.7449988  92.4708702  76.6329074 124.1330205
  80.6260012  85.2894997 126.1199988  80.3340012  86.0574997 125.6299988
  79.9520012  84.6294997 125.9579988  80.4948111  85.3055587 126.0308978
  93.7490012  90.8674997 122.5229988  93.8230012  91.8064997 122.6939988
  94.6550012  90.5624997 122.4669988  93.8815100  90.9546722 122.5388119
  76.7190012  87.6524997 134.9349988  76.2180012  87.6244997 134.1199988
  76.7240012  86.7464997 135.2449988  76.6510944  87.5262396 134.8653226
  76.4690012  90.4324997 131.8189988  77.4150012  90.2884997 131.7999988
  76.3570012  91.2164997 132.3559988  76.5832727  90.5188046 131.8890072
  94.6670012  91.0984997 137.5019988  94.6180012  90.1434997 137.4649988
  93.8400012  91.3664997 137.9029988  94.5484940  91.0038998 137.5511375
  85.6460012  90.6724997 136.3779988  85.7330012  91.4984997 136.8529988
  84.7820012  90.3424997 136.6269988  85.5411964  90.7409878 136.4766549
  86.0600012  94.4444997 126.1839988  85.9850012  94.3234997 125.2369988
  86.0930012  95.3944997 126.3019988  86.0542068  94.5562646 126.0704967
  79.7130012  93.2334997 127.9649988  79.8660012  92.8854997 128.8429988
  78.8630012  92.8774997 127.7099988  79.6189166  93.1376216 128.0508079
  89.1620012  93.5984997 123.1859988  89.5370012  92.8544997 122.7149988
  89.1660012  93.3284997 124.1049988  89.2139125  93.4600986 123.2456483
  88.8310012  93.5244997 125.9349988  87.8950012  93.6244997 126.1139988
  89.1110012  92.8154997 126.5139988  88.7409553  93.4423406 126.0377087
  91.8190012  82.5914997 137.9819988  91.4120012  83.0724997 137.2609988
  91.8600012  81.6864997 137.6739988  91.7688437  82.5349374 137.8416683
  78.9680012  88.9754997 135.9789988  79.1840012  88.6144997 136.8379988
  78.1130012  88.6014997 135.7689988  78.8819292  88.8754111 136.0683386
  81.5870012  77.4454997 131.9739988  80.7250012  77.3584997 131.5659988
  81.5640012  78.3014997 132.4019988  81.4660409  77.5492883 131.9760589
  86.2500012  77.1674997 135.3489988  86.6700012  76.7524997 136.1019988
  85.3170012  76.9894997 135.4659988  86.1813644  77.0865900 135.4679539
  89.5760012  80.9234997 136.2019988  89.0620012  80.7974997 136.9999988
  89.4210012  81.8354997 135.9579988  89.4846852  81.0296132 136.2782158
  90.3390012  85.7844997 121.9639988  90.3810012  85.5614997 121.0339988
  91.1880012  86.1834997 122.1529988  90.4595280  85.8079438 121.8623554
  85.9110012  79.6604997 122.6339988  85.6580012  79.6794997 123.5569988
  85.6550012  78.7884997 122.3319988  85.8417481  79.5452558 122.7196175
  81.6780012  82.4114997 133.0689988  81.0360012  82.3704997 133.7779988
  81.7150012  83.3374997 132.8309988  81.5950664  82.5311430 133.1339219
  81.6750012  82.6324997 127.9809988  80.7820012  82.2914997 127.9219988
  82.1250012  82.2554997 127.2249988  81.6138130  82.5349631 127.8707702
  87.2100012  83.0484997 126.7979988  86.8010012  83.8634997 126.5069988
  87.9310012  82.9084997 126.1839988  87.2514537  83.1412018 126.6751342
  86.3120012  83.2234997 138.2859988  85.7500012  82.5194997 138.6069988
  87.1390012  83.1034997 138.7539988  86.3467095  83.1107883 138.3932330
  88.2150012  82.4944997 129.6119988  88.0200012  83.0994997 128.8969988
  88.3960012  81.6604997 129.1779988  88.2127614  82.4646300 129.4554405
  79.4280012  82.7314997 134.9359988  79.3900012  83.1314997 135.8049988
  78.9370012  81.9144997 135.0269988  79.3564684  82.6758069 135.0671059
  82.7940012  80.1054997 121.7349988  82.3630012  79.6604997 122.4649988
  82.0760012  80.4774997 121.2229988  82.6379438  80.0948940 121.7656799
  76.0360012  79.8474997 128.7869988  76.6670012  79.8184997 129.5059988
  76.4850012  79.4224997 128.0559988  76.1830918  79.7860836 128.7866441
  77.3100012  80.5934997 124.2109988  77.7840012  81.1844997 123.6259988
  76.5930012  81.1244997 124.5579988  77.2779341  80.7460867 124.1778836
  87.4790012  84.1324997 134.2829988  87.8020012  83.5014997 133.6399988
  87.0390012  83.5974997 134.9439988  87.4637484  83.9738387 134.2843198
  84.2560012  80.0594997 129.0669988  83.3450012  80.1164997 129.3559988
  84.7620012  79.9994997 129.8779988  84.1996899  80.0591941 129.2161184
  79.0850012  81.6884997 127.8939988  78.1950012  81.7884997 127.5539988
  79.3810012  80.8464997 127.5479988  79.0032823  81.5883545 127.8007213
  82.7380012  81.6884997 125.5509988  83.6690012  81.8174997 125.7289988
  82.5230012  82.3584997 124.9009988  82.8364247  81.7966565 125.4875747
  88.6610012  79.2944997 132.3319988  87.9850012  79.4254997 132.9959988
  88.1760012  79.1394997 131.5209988  88.5027146  79.2915157 132.3134469
  81.4120012  82.8834997 123.1169988  80.8690012  82.5034997 122.4259988
  82.2450012  83.0774997 122.6889988  81.4503631  82.8577125 122.9644501
  91.9490012  94.9664997 138.6079988  92.1490012  95.3904997 137.7739988
  92.6040012  95.3094997 139.2149988  92.0650072  95.0709857 138.5758592
  79.5470012  87.4404997 138.2159988  80.2790012  87.6944997 138.7779988
  78.7670012  87.6444997 138.7319988  79.5417073  87.5028160 138.3626151
  85.5760012  82.8474997 130.9539988  86.1410012  82.3004997 130.4069988
  85.4290012  82.3254997 131.7429988  85.6333380  82.7022259 130.9858695
  80.5780012  78.9834997 127.3729988  80.2610012  78.0814997 127.3369988
  81.3600012  78.9854997 126.8199988  80.6402408  78.8602474 127.2933569
  84.2030012  81.2354997 133.3679988  83.3670012  81.6894997 133.4789988
  84.7270012  81.5114997 134.1199988  84.1595416  81.3348660 133.4848119
  84.7470012  87.4484997 125.0529988  84.0020012  86.9414997 124.7309988
  84.6130012  87.4974997 125.9999988  84.6268776  87.3856940 125.1368647
  91.8970012  86.5814997 133.8399988  92.5390012  87.0384997 133.2959988
  91.0670012  86.6944997 133.3769988  91.8725963  86.6592704 133.7030177
  88.6450012  80.2624997 123.2519988  87.7060012  80.3744997 123.1009988
  88.9420012  81.1194997 123.5589988  88.5567583  80.3935981 123.2728337
  86.2660012  87.6324997 136.2899988  85.9210012  87.2514997 137.0969988
  86.0660012  88.5664997 136.3609988  86.1917527  87.7065135 136.4100689
  89.3630012  82.1294997 124.9129988  90.2550012  81.9924997 125.2319988
  89.4200012  82.9204997 124.3759988  89.4926504  82.2176052 124.8840818
  79.8720012  86.7434997 130.8229988  80.6170012  86.7414997 130.2219988
  79.9500012  85.9204997 131.3039988  79.9844995  86.6318887 130.8058282
  86.8730012  88.9074997 124.0789988  86.5770012  89.7334997 124.4599988
  86.1700012  88.2874997 124.2749988  86.7374914  88.9368199 124.1576443
  76.8800012  85.2044997 136.1379988  77.1030012  84.7864997 136.9699988
  76.2780012  84.5914997 135.7149988  76.8291759  85.0644668 136.1947022
  83.8960012  84.7214997 138.3509988  83.6000012  84.5554997 137.4559988
  84.8280012  84.5014997 138.3399988  83.9814166  84.6690640 138.2270536
  88.5170012  90.0944997 136.2409988  87.6160012  90.2774997 135.9729988
  88.5510012  90.3534997 137.1609988  88.3983139  90.1545849 136.3288099
  94.2480012  82.3394997 124.6079988  93.6940012  81.9434997 123.9359988
  94.3480012  83.2494997 124.3299988  94.1857059  82.4083586 124.4784401
  94.2110012  88.1394997 137.4449988  93.3600012  88.3774997 137.0779988
  94.8020012  88.1224997 136.6919988  94.1742487  88.1698258 137.2928893
  92.5430012  91.1254997 125.0729988  92.1700012  90.2994997 125.3819988
  92.8210012  90.9424997 124.1749988  92.5295222  90.9877430 124.9939473
  89.7040012  85.9334997 132.0939988  88.7750012  85.7014997 132.0669988
  90.1550012  85.1564997 131.7639988  89.6379216  85.7967238 132.0456917
  82.2470012  90.2614997 128.2269988  82.7740012  91.0344997 128.0269988
  81.3670012  90.4864997 127.9249988  82.2002031  90.3977545 128.1587912
  78.0020012  85.1234997 122.8139988  78.6180012  85.7504997 123.1939988
  77.1400012  85.4394997 123.0859988  77.9697698  85.2519430 122.9027183
  83.6740012  87.9244997 127.8029988  83.4330012  88.8494997 127.8449988
  82.9330012  87.4654997 128.1999988  83.5409225  87.9890933 127.8623742
  84.1890012  92.0734997 134.1189988  84.5510012  92.9284997 133.8849988
  84.7200012  91.7814997 134.8589988  84.3104473  92.1511060 134.1870855
  82.3570012  92.9464997 127.3489988  81.4070012  93.0514997 127.3999988
  82.7090012  93.7664997 127.6929988  82.2744195  93.0718800 127.4025502
  87.7330012  88.1724997 133.8189988  87.3070012  87.9454997 134.6459988
  88.3130012  87.4344997 133.6369988  87.7531868  88.0415299 133.9075830
  89.9360012  89.1014997 122.8929988  90.2890012  88.7214997 123.6969988
  88.9870012  89.0084997 122.9799988  89.8560918  89.0368956 123.0148532
  90.3910012  92.7244997 136.2889988  89.7900012  92.1694997 135.7929988
  90.6730012  93.3914997 135.6619988  90.3468804  92.7386625 136.1364849
  94.4390012  93.5814997 123.0939988  95.1830012  94.1674997 122.9539988
  93.7450012  94.1494997 123.4269988  94.4469899  93.7385798 123.1198778
  78.5140012  79.9574997 135.6959988  77.6210012  80.2964997 135.6279988
  78.4150012  79.1024997 136.1139988  78.3784164  79.8882588 135.7432235
  90.8020012  87.7744997 125.1199988  90.5240012  87.0464997 125.6759988
  91.7290012  87.8934997 125.3249988  90.8893124  87.6908802 125.2238845
  78.1650012  91.7624997 134.1309988  78.3820012  90.8304997 134.0999988
  78.4110012  92.0364997 135.0139988  78.2279549  91.6720636 134.2461763
  84.0270012  90.2134997 121.3399988  84.2660012  89.4654997 120.7929988
  83.7580012  89.8254997 122.1729988  84.0233675  90.0586638 121.3776865
  82.9640012  89.7834997 123.7959988  83.1100012  89.2634997 124.5859988
  82.9610012  90.6904997 124.1029988  82.9835792  89.8348842 123.9456117
  79.4170012  87.0364997 124.3069988  78.7310012  87.3884997 124.8739988
  79.9390012  87.7994997 124.0599988  79.3936852  87.1878578 124.3512118
  87.2480012  79.6984997 134.5859988  87.9470012  79.7724997 135.2359988
  86.8670012  78.8344997 134.7399988  87.2921767  79.5917624 134.6958322
  88.0330012  79.3504997 125.6829988  88.2530012  79.8224997 124.8799988
  88.5910012  79.7454997 126.3529988  88.1384968  79.4684285 125.6637331
  85.7010012  91.4814997 124.5459988  84.8850012  91.9784997 124.5979988
  86.2310012  91.9564997 123.9059988  85.6609161  91.6137722 124.4665956
  85.2330012  81.0784997 126.5179988  86.0450012  81.5834997 126.5639988
  84.9880012  80.9334997 127.4319988  85.3110520  81.1280375 126.6478517
  85.7680012  82.0644997 135.7019988  85.8870012  82.6384997 136.4599988
  86.4240012  81.3764997 135.8169988  85.8729025  82.0499858 135.8211321
  86.1160012  78.1594997 127.4559988  85.7700012  78.7774997 128.0999988
  86.7750012  78.6604997 126.9739988  86.1576968  78.3116278 127.4789383
  83.0400012  92.5254997 124.5269988  83.2000012  93.3244997 124.0269988
  82.8420012  92.8314997 125.4119988  83.0351637  92.6764020 124.5781144
  81.7740012  79.2224997 124.1429988  81.6910012  80.1114997 124.4899988
  82.6640012  78.9574997 124.3749988  81.8829469  79.3081430 124.2217626
  91.9730012  79.9714997 136.5369988  91.0560012  80.2344997 136.4499988
  92.3080012  79.9684997 135.6409988  91.8928613  80.0070761 136.4038837
  90.5750012  83.7224997 130.6329988  89.7770012  83.3074997 130.3049988
  91.0200012  83.0314997 131.1239988  90.5259885  83.5723543 130.6544889
  80.0330012  89.6504997 123.2039988  80.6250012  90.3494997 123.4799988
  80.4920012  89.2174997 122.4839988  80.1761142  89.6877049 123.1444830
  78.3490012  82.3144997 122.3199988  78.3040012  83.2534997 122.4979988
  77.4610012  82.0784997 122.0499988  78.2228574  82.4111892 122.3078912
  91.6610012  92.9784997 132.2559988  91.5060012  93.6564997 131.5979988
  92.5940012  93.0504997 132.4589988  91.7658657  93.0809546 132.1934360
  79.1570012  77.0964997 130.9929988  78.9280012  77.1554997 130.0649988
  78.7140012  76.3044997 131.2989988  79.0658530  76.9975753 130.9074786
  78.0870012  91.0364997 127.1529988  77.2550012  91.5094997 127.1799988
  78.6330012  91.5464997 126.5549988  78.0470352  91.1701332 127.0758463
  77.3750012  93.6494997 138.4829988  77.9160012  93.4324997 139.2429988
  76.8940012  92.8434997 138.2929988  77.3839951  93.5109270 138.5612576
  81.9730012  92.5684997 140.1029988  82.7400012  92.1094997 140.4439988
  81.9510012  92.3424997 139.1739988  82.0751275  92.4750186 140.0240101
  86.0650012  92.0764997 121.4789988  85.4210012  91.4454997 121.7999988
  86.8270012  91.5454997 121.2469988  86.0798077  91.9182920 121.4916011
  88.5500012  90.9484997 138.8329988  88.1990012  90.0924997 139.0759988
  89.2760012  91.0914997 139.4399988  88.6000769  90.8505636 138.9483619
  90.6690012  91.8934997 121.7119988  90.9520012  91.0994997 122.1649988
  91.4090012  92.1264997 121.1519988  90.8078006  91.8163376 121.6982715
  77.2820012  87.4594997 139.4369988  77.4260012  86.5574997 139.1509988
  76.5100012  87.7454997 138.9499988  77.1972753  87.3746816 139.3319505
  81.6240012  87.8034997 121.5699988  81.6880012  87.0094997 122.1009988
  82.2770012  87.6844997 120.8799988  81.7210241  87.6787148 121.5494317
  83.9380012  87.4294997 138.8699988  83.6090012  87.7004997 138.0129988
  84.0900012  86.4884997 138.7829988  83.9134809  87.3393862 138.7408244
  86.9760012  88.8504997 121.3059988  86.7070012  89.0304997 122.2069988
  86.7700012  87.9244997 121.1739988  86.9113427  88.7500261 121.4115073
  89.6720012  87.3454997 136.2529988  90.4180012  87.9334997 136.1339988
  88.9150012  87.9274997 136.3169988  89.6717820  87.5047143 136.2453590
  78.1150012  84.6594997 138.8569988  78.5230012  83.8024997 138.7359988
  77.8550012  84.6744997 139.7779988  78.1357568  84.5440807 138.9649588
  82.7730012  85.7754997 123.8759988  82.3130012  85.2914997 124.5619988
  83.0280012  85.1074997 123.2399988  82.7444902  85.6188731 123.8839334
  82.0620012  83.6684997 136.2319988  81.4440012  84.3434997 136.5119988
  82.4060012  83.9894997 135.3979988  82.0239132  83.8042411 136.1576262
  83.8440012  84.0184997 122.1379988  83.6640012  83.8644997 121.2109988
  84.7940012  84.1264997 122.1829988  83.9477776  84.0120175 122.0171843
  87.0820012  86.1404997 139.5089988  88.0350012  86.2234997 139.4819988
  86.9210012  85.4284997 140.1289988  87.1906426  86.0556746 139.5890579
  93.2340012  86.3734997 121.5839988  92.9600012  85.9484997 120.7709988
  93.2730012  87.3044997 121.3669988  93.2017699  86.4412484 121.4433610
  82.4010012  81.0234997 137.3139988  82.5510012  80.2944997 136.7119988
  82.4040012  81.8004997 136.7549988  82.4219302  81.0287851 137.1560692
  82.8140012  79.3934997 134.8069988  83.3500012  79.8444997 134.1549988
  81.9620012  79.2854997 134.3839988  82.7722178  79.4406390 134.6605756
  84.3960012  84.8324997 135.0459988  85.1460012  84.6764997 134.4729988
  84.0570012  85.6844997 134.7709988  84.4528921  84.9262968 134.9303561
  88.8110012  82.6474997 140.0749988  89.0040012  81.7164997 139.9629988
  89.6690012  83.0724997 140.0639988  88.9532934  82.5776531 140.0582031
  90.1280012  85.4364997 138.1519988  89.8470012  86.1454997 137.5739988
  91.0710012  85.3634997 138.0009988  90.2169291  85.5236711 138.0524967
  80.8800012  82.2214997 139.2259988  80.1130012  81.6894997 139.0149988
  81.5590012  81.9114997 138.6259988  80.8667877  82.1068300 139.1160716
  83.6200012  76.8494997 135.2379988  83.5210012  77.7964997 135.1329988
  82.8770012  76.4774997 134.7619988  83.5061184  76.9285863 135.1593621
  84.8840012  81.1714997 138.8019988  84.6480012  80.9514997 139.7029988
  84.1000012  80.9644997 138.2919988  84.7458504  81.1134586 138.8563431
  87.5990012  80.2984997 137.8769988  86.6520012  80.3304997 138.0099988
  87.9120012  79.6734997 138.5309988  87.5116707  80.2183998 137.9836060
  89.2330012  78.9324997 139.8829988  89.1370012  77.9804997 139.8769988
  88.9120012  79.2014997 140.7429988  89.1764070  78.8384035 139.9985441
  79.0600012  80.1424997 138.9299988  79.2720012  79.4354997 138.3199988
  78.9490012  79.7044997 139.7739988  79.0739721  79.9867084 138.9606843
  83.8410012  76.1434997 137.9089988  84.5530012  75.5034997 137.8949988
  83.7400012  76.4104997 136.9959988  83.9248066  76.0920079 137.7835677
  84.1950012  77.8264997 139.9629988  84.0630012  77.3504997 139.1429988
  83.5960012  78.5704997 139.9079988  84.0959071  77.8619618 139.8432886
  83.7410012  94.7094997 123.1389988  84.6740012  94.8674997 123.2829988
  83.4770012  95.3844997 122.5149988  83.8329888  94.8224510 123.0742842
  77.3100012  89.3454997 122.6219988  78.2240012  89.4244997 122.8959988
  77.3170012  88.6584997 121.9559988  77.4361131  89.2633961 122.5694393
  75.9590012  94.7384997 127.6999988  75.3120012  94.2764997 127.1669988
  76.3130012  94.0664997 128.2819988  75.9183849  94.5844723 127.7057959
  76.8290012  92.8194997 129.5039988  76.4940012  91.9394997 129.6759988
  77.0510012  93.1644997 130.3689988  76.8131783  92.7457500 129.6444208
  94.3770012  93.6284997 132.4849988  94.3560012  93.8134997 133.4239988
  95.0680012  94.1974997 132.1439988  94.4674618  93.7306606 132.5673864
  93.9410012  93.1964997 135.4069988  93.4530012  92.4604997 135.0349988
  94.4900012  92.8024997 136.0849988  93.9484820  93.0425889 135.4477813
  92.3910012  88.9854997 140.0449988  91.5250012  88.8804997 140.4389988
  92.7680012  89.7444997 140.4909988  92.3233308  89.0736900 140.1592393
  93.6920012  87.2424997 125.5589988  94.5420012  87.6634997 125.6859988
  93.6980012  86.5024997 126.1659988  93.8091372  87.2000803 125.6584344
  94.0870012  85.2954997 127.3819988  93.3600012  84.8164997 127.7799988
  94.6680012  85.5014997 128.1149988  94.0660473  85.2578103 127.5354528
  93.8460012  88.0804997 132.3299988  94.6790012  87.7024997 132.0499988
  93.9580012  89.0234997 132.2109988  93.9752647  88.1562218 132.2755487
  92.3320012  90.9584997 134.6369988  91.6850012  91.2834997 135.2629988
  91.8150012  90.5184997 133.9629988  92.1734029  90.9435004 134.6315827
  94.3550012  85.1964997 123.7739988  93.8330012  85.5534997 123.0549988
  94.3220012  85.8714997 124.4519988  94.2791634  85.3365413 123.7673145
  92.7040012  82.4364997 122.3239988  92.8000012  83.1034997 121.6439988
  92.5640012  81.6204997 121.8429988  92.6982272  82.4175655 122.1658347
  91.8730012  83.8164997 127.9449988  91.7230012  82.8714997 127.9249988
  91.5200012  84.0974997 128.7889988  91.8047448  83.7251481 128.0563705
  76.9090012  85.8944997 131.9559988  77.0930012  85.8124997 131.0199988
  77.7580012  85.7704997 132.3789988  77.0490151  85.8665073 131.8851451
  92.7300012  85.7864997 137.5839988  93.3130012  85.0524997 137.7759988
  93.2940012  86.5584997 137.6309988  92.8859769  85.7904227 137.6166159
  94.2260012  83.6894997 138.2689988  93.3630012  83.3104997 138.1029988
  94.8310012  82.9504997 138.1939988  94.1896119  83.5378268 138.2361528
  91.9510012  79.8444997 121.4419988  92.5620012  79.4734997 122.0789988
  91.1150012  79.4234997 121.6379988  91.9215032  79.7367554 121.5557035
  91.5840012  81.3994997 126.4079988  91.8640012  80.4924997 126.5319988
  92.3430012  81.8334997 126.0189988  91.7249277  81.3340942 126.3723682
  92.1960012  81.9804997 131.8439988  93.1290012  82.1924997 131.8089988
  91.9610012  82.0824997 132.7659988  92.2919244  82.0233100 131.9638892
  92.2250012  82.7174997 134.6199988  91.3820012  82.9854997 134.9859988
  92.6670012  83.5394997 134.4089988  92.1694158  82.8653291 134.6415491
  76.5060012  81.1654997 138.0969988  77.4260012  81.0434997 138.3329988
  76.0570012  80.4154997 138.4859988  76.5711580  81.0473727 138.1819006
  94.5080012  76.6974997 139.9729988  94.8580012  76.0434997 139.3679988
  94.6550012  77.5344997 139.5329988  94.5757887  76.7211548 139.8306858
  92.1970012  78.6624997 126.4559988  92.3800012  78.2134997 127.2819988
  91.5980012  78.0774997 125.9929988  92.1410202  78.5219975 126.5063275
  77.7270012  79.4774997 130.9879988  78.1730012  78.6854997 131.2899988
  78.1940012  80.1934997 131.4179988  77.8510831  79.4660685 131.0874006
  76.0310012  82.4764997 132.0569988  76.5230012  82.2554997 131.2659988
  76.3940012  83.3174997 132.3379988  76.1473126  82.5598357 131.9867531
  94.0280012  78.8064997 138.3219988  93.1100012  79.0774997 138.2869988
  94.1510012  78.2714997 137.5379988  93.9189730  78.7712508 138.2111923
  94.0640012  78.7294997 122.9839988  94.4760012  78.0084997 122.5089988
  94.7460012  79.3994997 123.0429988  94.2125885  78.7212368 122.9268915
  76.3450012  78.7344997 126.1109988  75.4200012  78.9434997 125.9819988
  76.7990012  79.2184997 125.4209988  76.2797292  78.8285343 126.0000720
  91.1160012  93.7184997 128.0569988  91.7680012  93.3714997 127.4489988
  91.6260012  94.2074997 128.7029988  91.2742637  93.7370597 128.0610236
  76.3090012  77.4724997 134.4549988  75.6440012  77.2264997 135.0989988
  75.8660012  78.0944997 133.8779988  76.1581318  77.5229410 134.4650898
  78.5010012  90.6474997 138.5999988  77.6800012  90.8224997 138.1389988
  78.2480012  90.5744997 139.5199988  78.3545585  90.6615544 138.6613561
  81.4550012  91.6224997 134.8579988  81.0300012  92.4314997 134.5759988
  82.3590012  91.7074997 134.5559988  81.5189975  91.7449300 134.7784816
  85.7660012  93.0214997 137.8179988  85.9510012  92.6874997 138.6959988
  86.6120012  93.3304997 137.4959988  85.9057539  93.0176047 137.8945605
  88.1110012  94.3074997 137.0619988  88.7880012  93.6744997 136.8219988
  88.4330012  94.7084997 137.8689988  88.2471637  94.2751154 137.1382793
  93.0280012  76.8964997 136.1409988  92.2160012  77.2214997 135.7539988
  93.2610012  76.1364997 135.6079988  92.9482203  76.8382758 136.0158880
  78.8570012  94.8784997 134.9059988  78.1360012  95.3184997 134.4549988
  78.4910012  94.6274997 135.7539988  78.7089651  94.9047242 134.9589640
  81.3240012  94.4784997 133.9359988  80.4590012  94.5504997 134.3399988
  81.2690012  95.0254997 133.1519988  81.1982085  94.5622685 133.8853362
  86.0340012  94.3664997 133.1109988  85.5780012  94.8954997 132.4569988
  86.1970012  94.9694997 133.8359988  85.9936068  94.5204607 133.1194838
  88.3620012  93.2444997 134.0559988  87.4570012  93.4094997 133.7899988
  88.7910012  94.0974997 133.9909988  88.2961324  93.3824339 134.0107976
  90.9660012  94.8144997 134.3509988  90.7840012  95.7304997 134.1409988
  91.1430012  94.4044997 133.5049988  90.9650210  94.8844822 134.2077885
  78.2710012  93.5014997 131.8159988  78.2530012  93.0764997 132.6729988
  79.0760012  93.1834997 131.4069988  78.3773529  93.4003013 131.8780946
  80.4130012  92.2114997 130.4709988  80.1940012  91.2954997 130.6409988
  81.2370012  92.3514997 130.9369988  80.4944420  92.1050520 130.5572774
  82.9500012  92.6814997 131.3199988  83.1630012  91.7934997 131.0329988
  83.0140012  92.6474997 132.2739988  82.9878232  92.5553102 131.4097397
  86.4580012  78.3454997 130.4639988  85.7840012  77.7164997 130.7199988
  87.0220012  77.8614997 129.8609988  86.4419230  78.1938744 130.4175340
  91.6010012  76.4534997 130.5769988  92.2050012  77.0004997 130.0749988
  90.7310012  76.7724997 130.3359988  91.5661208  76.5715137 130.4756886
  93.3280012  77.5914997 128.9099988  93.9400012  77.0774997 128.3829988
  93.7100012  78.4694997 128.9329988  93.4633371  77.6397866 128.8410041
  78.7850012  76.9794997 128.2859988  78.0080012  76.7454997 127.7789988
  79.3150012  76.1824997 128.2949988  78.7502330  76.8396988 128.2177742
  77.6210012  76.7774997 124.0899988  78.0600012  77.3884997 123.4979988
  76.9880012  77.3154997 124.5639988  77.5954514  76.9339257 124.0730930
  83.3640012  76.9064997 128.0999988  84.2390012  77.2944997 128.0699988
  83.2280012  76.6914997 129.0219988  83.4653695  76.9305184 128.2206440
  88.9210012  76.9364997 129.7489988  88.9970012  77.0314997 128.7989988
  88.6460012  76.0284997 129.8779988  88.8942321  76.8267867 129.6365079
  90.2740012  76.9624997 125.4409988  89.5720012  77.5774997 125.2309988
  89.8300012  76.1244997 125.5719988  90.1176450  76.9335639 125.4299000
  77.5220012  92.7254997 124.9869988  76.8370012  92.6874997 124.3199988
  77.5260012  93.6384997 125.2759988  77.4286998  92.8436733 124.9346771
  79.4820012  78.6934997 122.5319988  79.9740012  78.0634997 122.0049988
  80.1060012  78.9894997 123.1949988  79.6335688  78.6473804 122.5495482
  84.5080012  78.9864997 124.9889988  84.6860012  78.3404997 125.6719988
  84.4550012  79.8204997 125.4559988  84.5251999  79.0108009 125.1455917
  86.3870012  93.9354997 123.3849988  87.2530012  94.3014997 123.2069988
  86.1400012  93.4954997 122.5709988  86.4722392  93.9261756 123.2506289
  93.0960012  93.4984997 126.0639988  92.9010012  92.7504997 125.4989988
  93.0570012  94.2564997 125.4809988  93.0640380  93.4986099 125.9078384
  78.7430012  77.4934997 137.8039988  78.3770012  76.7284997 138.2459988
  79.6560012  77.5224997 138.0899988  78.8162736  77.3925640 137.9032502
  80.7160012  76.8444997 139.3399988  81.6140012  76.5704997 139.1549988
  80.3290012  76.1014997 139.8039988  80.7866612  76.7065914 139.3773643
  79.3400012  93.6454997 122.0129988  79.0730012  93.9324997 122.8859988
  80.1120012  93.0994997 122.1649988  79.4077488  93.6110294 122.1531050
  89.1370012  76.1764997 139.5219988  89.2140012  75.7504997 140.3759988
  90.0310012  76.1904997 139.1789988  89.2683428  76.1200879 139.5925310
  92.3130012  92.2494997 138.2139988  91.5310012  92.0634997 137.6939988
  92.2410012  93.1784997 138.4319988  92.1962274  92.3496643 138.1723018
 106.7190012  86.1354997 128.2449988 106.8080012  87.0794997 128.1129988
 106.0810012  85.8604997 127.5869988 106.6449081  86.2274830 128.1379614
 105.6520012  85.3904997 131.6639988 105.6140012  84.7444997 132.3689988
 105.3300012  84.9244997 130.8929988 105.6032333  85.2389408 131.6562978
  98.0210012  85.0054997 133.2569988  98.0620012  84.3794997 133.9799988
  98.7240012  85.6294997 133.4389988  98.1216363  85.0041196 133.3806044
 109.3580012  88.3294997 129.9649988 108.9180012  87.6094997 130.4159988
 109.3450012  89.0504997 130.5949988 109.2960226  88.3283731 130.1118494
  98.9440012  89.4554997 131.7919988  98.5750012  88.6534997 131.4219988
  99.8850012  89.2864997 131.8379988  99.0207289  89.3230153 131.7476316
  95.5540012  83.1154997 127.1849988  95.1070012  83.9614997 127.1659988
  94.9930012  82.5354997 126.6689988  95.4169900  83.1529916 127.1126801
  96.2650012  85.2774997 129.3099988  96.4780012  84.5074997 129.8379988
  97.0030012  85.3664997 128.7069988  96.3939044  85.1841968 129.3007123
 106.4700012  93.4344997 130.1769988 107.0900012  92.7574997 129.9039988
 106.2620012  93.2164997 131.0859988 106.5266726  93.3124800 130.2624812
 104.0420012  87.8234997 132.0699988 104.3460012  87.1374997 131.4749988
 104.7630012  87.9414997 132.6879988 104.1810671  87.7456305 132.0721816
 112.7050012  79.4244997 132.9309988 112.7540012  80.0344997 133.6659988
 113.1300012  79.8854997 132.2079988 112.7691746  79.5703796 132.9339175
 107.1830012  82.2174997 132.3969988 107.3250012  81.2714997 132.4179988
 107.0760012  82.4244997 131.4689988 107.1879919  82.1158246 132.2743408
 100.3370012  80.3184997 129.6699988 100.3810012  81.1784997 129.2509988
  99.8800012  79.7664997 129.0359988 100.2812240  80.3614422 129.5269864
 108.0600012  80.4494997 128.0709988 108.7060012  80.1204997 128.6949988
 108.5700012  80.9674997 127.4479988 108.2174299  80.4744450 128.0722731
  96.9580012  82.7154997 130.4319988  97.6110012  82.1654997 130.8639988
  96.9820012  82.4414997 129.5149988  97.0506683  82.6031466 130.3672123
 102.1140012  84.2654997 129.6469988 102.7300012  83.7394997 130.1569988
 101.5280012  83.6254997 129.2439988 102.1190810  84.1069208 129.6623173
 113.0960012  80.9024997 135.1659988 112.4080012  81.5604997 135.0709988
 113.1120012  80.7054997 136.1029988 113.0039540  80.9659819 135.2795990
  99.1480012  79.2364997 133.7439988  98.9290012  79.7664997 132.9779988
  98.4800012  79.4634997 134.3909988  99.0277600  79.3396906 133.7266379
 106.5170012  88.7364997 127.2879988 106.2210012  88.4144997 126.4369988
 106.1920012  89.6364997 127.3289988 106.4326371  88.8140215 127.1771801
 101.7170012  86.9124997 134.0309988 100.9770012  87.5104997 134.1349988
 102.4310012  87.4664997 133.7159988 101.7122237  87.0692831 134.0026465
 109.8240012  79.7404997 130.0509988 109.6080012  78.9744997 130.5839988
 110.4790012  80.2124997 130.5639988 109.8830632  79.6995889 130.1932861
  98.7410012  81.1284997 131.6959988  99.3550012  81.7614997 132.0689988
  99.2530012  80.6564997 131.0399988  98.8941981  81.1512267 131.6582908
 100.1240012  88.8764997 134.8179988 100.1190012  89.7564997 134.4399988
  99.2710012  88.7934997 135.2429988 100.0079464  88.9856117 134.8237907
  96.2450012  88.5474997 125.5999988  95.9730012  88.7764997 124.7119988
  96.2910012  89.3854997 126.0609988  96.2139482  88.6921318 125.5406273
 109.8700012  90.1694997 132.3129988 108.9290012  90.2274997 132.4749988
 110.1470012  91.0754997 132.1759988 109.7784679  90.2999443 132.3166815
 110.1710012  78.4554997 133.7309988 109.4350012  79.0664997 133.6929988
 110.8540012  78.8704997 133.2039988 110.1626541  78.5951374 133.6545832
 103.1740012  76.5424997 131.1959988 103.0570012  75.5934997 131.1419988
 102.3190012  76.8744997 131.4699988 103.0424212  76.4575571 131.2256497
 108.1220012  91.9504997 128.9379988 108.5480012  91.2434997 128.4529988
 108.4390012  92.7514997 128.5219988 108.2231683  91.9621017 128.8153680
 109.2820012  89.8514997 127.4469988 109.0240012  89.1614997 126.8359988
 109.3530012  89.4084997 128.2929988 109.2562856  89.6972124 127.4776885
 110.9680012  88.4174997 135.9239988 111.1080012  87.8264997 135.1849988
 111.1350012  89.2904997 135.5679988 111.0097411  88.4545428 135.7746894
 105.4410012  85.3794997 125.6969988 104.7290012  85.9144997 125.3449988
 106.1320012  85.4354997 125.0369988 105.4370132  85.4602543 125.5596289
 105.4940012  83.8374997 122.7359988 106.1950012  83.8594997 123.3869988
 105.7970012  83.2094997 122.0789988 105.6308133  83.7557070 122.7363369
 112.8100012  84.7574997 133.9899988 112.1570012  85.4524997 134.0799988
 113.2750012  84.9674997 133.1809988 112.7835274  84.8810643 133.8928462
 108.8460012  85.5894997 126.6489988 108.1140012  85.8174997 127.2219988
 109.2940012  84.8754997 127.1029988 108.8062725  85.5242145 126.7888816
 108.7440012  83.7634997 135.7159988 108.8240012  84.5264997 136.2879988
 108.1420012  84.0424997 135.0259988 108.6735756  83.9057134 135.7010589
 100.4920012  86.2194997 128.5309988 100.1610012  85.8494997 127.7129988
 101.0800012  85.5494997 128.8779988 100.5261873  86.0781156 128.4658102
 101.8580012  89.6474997 131.2119988 101.7640012  89.0694997 130.4559988
 102.5880012  89.2764997 131.7089988 101.9437387  89.5181663 131.1755342
 100.8580012  84.9884997 132.1649988 101.4240012  85.1094997 131.4019988
 101.1770012  85.6254997 132.8029988 100.9785474  85.0912219 132.1469862
 107.1670012  90.4914997 132.8989988 106.9270012  91.1534997 133.5469988
 106.9690012  89.6574997 133.3239988 107.1073808  90.4693134 133.0451524
 101.7380012  89.3874997 136.8819988 101.4270012  90.1694997 137.3369988
 101.0880012  89.2344997 136.1959988 101.6075558  89.4739105 136.8515871
 107.7170012  84.7514997 124.3339988 108.2970012  84.9014997 125.0809988
 108.1310012  85.2224997 123.6099988 107.8522997  84.8356578 124.3384058
  98.6580012  85.5854997 136.1099988  98.7290012  86.2364997 136.8089988
  97.7680012  85.6884997 135.7749988  98.5473005  85.6885427 136.1603495
 105.4440012  91.4884997 127.7689988 105.9180012  91.7834997 128.5459988
 104.8810012  92.2264997 127.5359988 105.4328184  91.6287247 127.8439628
  99.9780012  91.4594997 137.6449988  99.9850012  91.3234997 136.6979988
  99.0620012  91.3414997 137.8969988  99.8551714  91.4249430 137.5494666
 111.4160012  76.5014997 124.1469988 110.5160012  76.6404997 124.4419988
 111.6680012  77.3324997 123.7449988 111.3268702  76.6329074 124.1330205
  99.4820012  85.2894997 126.1199988  99.1900012  86.0574997 125.6299988
  98.8080012  84.6294997 125.9579988  99.3508111  85.3055587 126.0308978
 112.6050012  90.8674997 122.5229988 112.6790012  91.8064997 122.6939988
 113.5110012  90.5624997 122.4669988 112.7375100  90.9546722 122.5388119
  95.5750012  87.6524997 134.9349988  95.0740012  87.6244997 134.1199988
  95.5800012  86.7464997 135.2449988  95.5070944  87.5262396 134.8653226
  95.3250012  90.4324997 131.8189988  96.2710012  90.2884997 131.7999988
  95.2130012  91.2164997 132.3559988  95.4392727  90.5188046 131.8890072
 113.5230012  91.0984997 137.5019988 113.4740012  90.1434997 137.4649988
 112.6960012  91.3664997 137.9029988 113.4044940  91.0038998 137.5511375
 104.5020012  90.6724997 136.3779988 104.5890012  91.4984997 136.8529988
 103.6380012  90.3424997 136.6269988 104.3971964  90.7409878 136.4766549
 104.9160012  94.4444997 126.1839988 104.8410012  94.3234997 125.2369988
 104.9490012  95.3944997 126.3019988 104.9102068  94.5562646 126.0704967
  98.5690012  93.2334997 127.9649988  98.7220012  92.8854997 128.8429988
  97.7190012  92.8774997 127.7099988  98.4749166  93.1376216 128.0508079
 108.0180012  93.5984997 123.1859988 108.3930012  92.8544997 122.7149988
 108.0220012  93.3284997 124.1049988 108.0699125  93.4600986 123.2456483
 107.6870012  93.5244997 125.9349988 106.7510012  93.6244997 126.1139988
 107.9670012  92.8154997 126.5139988 107.5969553  93.4423406 126.0377087
 110.6750012  82.5914997 137.9819988 110.2680012  83.0724997 137.2609988
 110.7160012  81.6864997 137.6739988 110.6248437  82.5349374 137.8416683
  97.8240012  88.9754997 135.9789988  98.0400012  88.6144997 136.8379988
  96.9690012  88.6014997 135.7689988  97.7379292  88.8754111 136.0683386
 100.4430012  77.4454997 131.9739988  99.5810012  77.3584997 131.5659988
 100.4200012  78.3014997 132.4019988 100.3220409  77.5492883 131.9760589
 105.1060012  77.1674997 135.3489988 105.5260012  76.7524997 136.1019988
 104.1730012  76.9894997 135.4659988 105.0373644  77.0865900 135.4679539
 108.4320012  80.9234997 136.2019988 107.9180012  80.7974997 136.9999988
 108.2770012  81.8354997 135.9579988 108.3406852  81.0296132 136.2782158
 109.1950012  85.7844997 121.9639988 109.2370012  85.5614997 121.0339988
 110.0440012  86.1834997 122.1529988 109.3155280  85.8079438 121.8623554
 104.7670012  79.6604997 122.6339988 104.5140012  79.6794997 123.5569988
 104.5110012  78.7884997 122.3319988 104.6977481  79.5452558 122.7196175
 100.5340012  82.4114997 133.0689988  99.8920012  82.3704997 133.7779988
 100.5710012  83.3374997 132.8309988 100.4510664  82.5311430 133.1339219
 100.5310012  82.6324997 127.9809988  99.6380012  82.2914997 127.9219988
 100.9810012  82.2554997 127.2249988 100.4698130  82.5349631 127.8707702
 106.0660012  83.0484997 126.7979988 105.6570012  83.8634997 126.5069988
 106.7870012  82.9084997 126.1839988 106.1074537  83.1412018 126.6751342
 105.1680012  83.2234997 138.2859988 104.6060012  82.5194997 138.6069988
 105.9950012  83.1034997 138.7539988 105.2027095  83.1107883 138.3932330
 107.0710012  82.4944997 129.6119988 106.8760012  83.0994997 128.8969988
 107.2520012  81.6604997 129.1779988 107.0687614  82.4646300 129.4554405
  98.2840012  82.7314997 134.9359988  98.2460012  83.1314997 135.8049988
  97.7930012  81.9144997 135.0269988  98.2124684  82.6758069 135.0671059
 101.6500012  80.1054997 121.7349988 101.2190012  79.6604997 122.4649988
 100.9320012  80.4774997 121.2229988 101.4939438  80.0948940 121.7656799
  94.8920012  79.8474997 128.7869988  95.5230012  79.8184997 129.5059988
  95.3410012  79.4224997 128.0559988  95.0390918  79.7860836 128.7866441
  96.1660012  80.5934997 124.2109988  96.6400012  81.1844997 123.6259988
  95.4490012  81.1244997 124.5579988  96.1339341  80.7460867 124.1778836
 106.3350012  84.1324997 134.2829988 106.6580012  83.5014997 133.6399988
 105.8950012  83.5974997 134.9439988 106.3197484  83.9738387 134.2843198
 103.1120012  80.0594997 129.0669988 102.2010012  80.1164997 129.3559988
 103.6180012  79.9994997 129.8779988 103.0556899  80.0591941 129.2161184
  97.9410012  81.6884997 127.8939988  97.0510012  81.7884997 127.5539988
  98.2370012  80.8464997 127.5479988  97.8592823  81.5883545 127.8007213
 101.5940012  81.6884997 125.5509988 102.5250012  81.8174997 125.7289988
 101.3790012  82.3584997 124.9009988 101.6924247  81.7966565 125.4875747
 107.5170012  79.2944997 132.3319988 106.8410012  79.4254997 132.9959988
 107.0320012  79.1394997 131.5209988 107.3587146  79.2915157 132.3134469
 100.2680012  82.8834997 123.1169988  99.7250012  82.5034997 122.4259988
 101.1010012  83.0774997 122.6889988 100.3063631  82.8577125 122.9644501
 110.8050012  94.9664997 138.6079988 111.0050012  95.3904997 137.7739988
 111.4600012  95.3094997 139.2149988 110.9210072  95.0709857 138.5758592
  98.4030012  87.4404997 138.2159988  99.1350012  87.6944997 138.7779988
  97.6230012  87.6444997 138.7319988  98.3977073  87.5028160 138.3626151
 104.4320012  82.8474997 130.9539988 104.9970012  82.3004997 130.4069988
 104.2850012  82.3254997 131.7429988 104.4893380  82.7022259 130.9858695
  99.4340012  78.9834997 127.3729988  99.1170012  78.0814997 127.3369988
 100.2160012  78.9854997 126.8199988  99.4962408  78.8602474 127.2933569
 103.0590012  81.2354997 133.3679988 102.2230012  81.6894997 133.4789988
 103.5830012  81.5114997 134.1199988 103.0155416  81.3348660 133.4848119
 103.6030012  87.4484997 125.0529988 102.8580012  86.9414997 124.7309988
 103.4690012  87.4974997 125.9999988 103.4828776  87.3856940 125.1368647
 110.7530012  86.5814997 133.8399988 111.3950012  87.0384997 133.2959988
 109.9230012  86.6944997 133.3769988 110.7285963  86.6592704 133.7030177
 107.5010012  80.2624997 123.2519988 106.5620012  80.3744997 123.1009988
 107.7980012  81.1194997 123.5589988 107.4127583  80.3935981 123.2728337
 105.1220012  87.6324997 136.2899988 104.7770012  87.2514997 137.0969988
 104.9220012  88.5664997 136.3609988 105.0477527  87.7065135 136.4100689
 108.2190012  82.1294997 124.9129988 109.1110012  81.9924997 125.2319988
 108.2760012  82.9204997 124.3759988 108.3486504  82.2176052 124.8840818
  98.7280012  86.7434997 130.8229988  99.4730012  86.7414997 130.2219988
  98.8060012  85.9204997 131.3039988  98.8404995  86.6318887 130.8058282
 105.7290012  88.9074997 124.0789988 105.4330012  89.7334997 124.4599988
 105.0260012  88.2874997 124.2749988 105.5934914  88.9368199 124.1576443
  95.7360012  85.2044997 136.1379988  95.9590012  84.7864997 136.9699988
  95.1340012  84.5914997 135.7149988  95.6851759  85.0644668 136.1947022
 102.7520012  84.7214997 138.3509988 102.4560012  84.5554997 137.4559988
 103.6840012  84.5014997 138.3399988 102.8374166  84.6690640 138.2270536
 107.3730012  90.0944997 136.2409988 106.4720012  90.2774997 135.9729988
 107.4070012  90.3534997 137.1609988 107.2543139  90.1545849 136.3288099
 113.1040012  82.3394997 124.6079988 112.5500012  81.9434997 123.9359988
 113.2040012  83.2494997 124.3299988 113.0417059  82.4083586 124.4784401
 113.0670012  88.1394997 137.4449988 112.2160012  88.3774997 137.0779988
 113.6580012  88.1224997 136.6919988 113.0302487  88.1698258 137.2928893
 111.3990012  91.1254997 125.0729988 111.0260012  90.2994997 125.3819988
 111.6770012  90.9424997 124.1749988 111.3855222  90.9877430 124.9939473
 108.5600012  85.9334997 132.0939988 107.6310012  85.7014997 132.0669988
 109.0110012  85.1564997 131.7639988 108.4939216  85.7967238 132.0456917
 101.1030012  90.2614997 128.2269988 101.6300012  91.0344997 128.0269988
 100.2230012  90.4864997 127.9249988 101.0562031  90.3977545 128.1587912
  96.8580012  85.1234997 122.8139988  97.4740012  85.7504997 123.1939988
  95.9960012  85.4394997 123.0859988  96.8257698  85.2519430 122.9027183
 102.5300012  87.9244997 127.8029988 102.2890012  88.8494997 127.8449988
 101.7890012  87.4654997 128.1999988 102.3969225  87.9890933 127.8623742
 103.0450012  92.0734997 134.1189988 103.4070012  92.9284997 133.8849988
 103.5760012  91.7814997 134.8589988 103.1664473  92.1511060 134.1870855
 101.2130012  92.9464997 127.3489988 100.2630012  93.0514997 127.3999988
 101.5650012  93.7664997 127.6929988 101.1304195  93.0718800 127.4025502
 106.5890012  88.1724997 133.8189988 106.1630012  87.9454997 134.6459988
 107.1690012  87.4344997 133.6369988 106.6091868  88.0415299 133.9075830
 108.7920012  89.1014997 122.8929988 109.1450012  88.7214997 123.6969988
 107.8430012  89.0084997 122.9799988 108.7120918  89.0368956 123.0148532
 109.2470012  92.7244997 136.2889988 108.6460012  92.1694997 135.7929988
 109.5290012  93.3914997 135.6619988 109.2028804  92.7386625 136.1364849
 113.2950012  93.5814997 123.0939988 114.0390012  94.1674997 122.9539988
 112.6010012  94.1494997 123.4269988 113.3029899  93.7385798 123.1198778
  97.3700012  79.9574997 135.6959988  96.4770012  80.2964997 135.6279988
  97.2710012  79.1024997 136.1139988  97.2344164  79.8882588 135.7432235
 109.6580012  87.7744997 125.1199988 109.3800012  87.0464997 125.6759988
 110.5850012  87.8934997 125.3249988 109.7453124  87.6908802 125.2238845
  97.0210012  91.7624997 134.1309988  97.2380012  90.8304997 134.0999988
  97.2670012  92.0364997 135.0139988  97.0839549  91.6720636 134.2461763
 102.8830012  90.2134997 121.3399988 103.1220012  89.4654997 120.7929988
 102.6140012  89.8254997 122.1729988 102.8793675  90.0586638 121.3776865
 101.8200012  89.7834997 123.7959988 101.9660012  89.2634997 124.5859988
 101.8170012  90.6904997 124.1029988 101.8395792  89.8348842 123.9456117
  98.2730012  87.0364997 124.3069988  97.5870012  87.3884997 124.8739988
  98.7950012  87.7994997 124.0599988  98.2496852  87.1878578 124.3512118
 106.1040012  79.6984997 134.5859988 106.8030012  79.7724997 135.2359988
 105.7230012  78.8344997 134.7399988 106.1481767  79.5917624 134.6958322
 106.8890012  79.3504997 125.6829988 107.1090012  79.8224997 124.8799988
 107.4470012  79.7454997 126.3529988 106.9944968  79.4684285 125.6637331
 104.5570012  91.4814997 124.5459988 103.7410012  91.9784997 124.5979988
 105.0870012  91.9564997 123.9059988 104.5169161  91.6137722 124.4665956
 104.0890012  81.0784997 126.5179988 104.9010012  81.5834997 126.5639988
 103.8440012  80.9334997 127.4319988 104.1670520  81.1280375 126.6478517
 104.6240012  82.0644997 135.7019988 104.7430012  82.6384997 136.4599988
 105.2800012  81.3764997 135.8169988 104.7289025  82.0499858 135.8211321
 104.9720012  78.1594997 127.4559988 104.6260012  78.7774997 128.0999988
 105.6310012  78.6604997 126.9739988 105.0136968  78.3116278 127.4789383
 101.8960012  92.5254997 124.5269988 102.0560012  93.3244997 124.0269988
 101.6980012  92.8314997 125.4119988 101.8911637  92.6764020 124.5781144
 100.6300012  79.2224997 124.1429988 100.5470012  80.1114997 124.4899988
 101.5200012  78.9574997 124.3749988 100.7389469  79.3081430 124.2217626
 110.8290012  79.9714997 136.5369988 109.9120012  80.2344997 136.4499988
 111.1640012  79.9684997 135.6409988 110.7488613  80.0070761 136.4038837
 109.4310012  83.7224997 130.6329988 108.6330012  83.3074997 130.3049988
 109.8760012  83.0314997 131.1239988 109.3819885  83.5723543 130.6544889
  98.8890012  89.6504997 123.2039988  99.4810012  90.3494997 123.4799988
  99.3480012  89.2174997 122.4839988  99.0321142  89.6877049 123.1444830
  97.2050012  82.3144997 122.3199988  97.1600012  83.2534997 122.4979988
  96.3170012  82.0784997 122.0499988  97.0788574  82.4111892 122.3078912
 110.5170012  92.9784997 132.2559988 110.3620012  93.6564997 131.5979988
 111.4500012  93.0504997 132.4589988 110.6218657  93.0809546 132.1934360
  98.0130012  77.0964997 130.9929988  97.7840012  77.1554997 130.0649988
  97.5700012  76.3044997 131.2989988  97.9218530  76.9975753 130.9074786
  96.9430012  91.0364997 127.1529988  96.1110012  91.5094997 127.1799988
  97.4890012  91.5464997 126.5549988  96.9030352  91.1701332 127.0758463
  96.2310012  93.6494997 138.4829988  96.7720012  93.4324997 139.2429988
  95.7500012  92.8434997 138.2929988  96.2399951  93.5109270 138.5612576
 100.8290012  92.5684997 140.1029988 101.5960012  92.1094997 140.4439988
 100.8070012  92.3424997 139.1739988 100.9311275  92.4750186 140.0240101
 104.9210012  92.0764997 121.4789988 104.2770012  91.4454997 121.7999988
 105.6830012  91.5454997 121.2469988 104.9358077  91.9182920 121.4916011
 107.4060012  90.9484997 138.8329988 107.0550012  90.0924997 139.0759988
 108.1320012  91.0914997 139.4399988 107.4560769  90.8505636 138.9483619
 109.5250012  91.8934997 121.7119988 109.8080012  91.0994997 122.1649988
 110.2650012  92.1264997 121.1519988 109.6638006  91.8163376 121.6982715
  96.1380012  87.4594997 139.4369988  96.2820012  86.5574997 139.1509988
  95.3660012  87.7454997 138.9499988  96.0532753  87.3746816 139.3319505
 100.4800012  87.8034997 121.5699988 100.5440012  87.0094997 122.1009988
 101.1330012  87.6844997 120.8799988 100.5770241  87.6787148 121.5494317
 102.7940012  87.4294997 138.8699988 102.4650012  87.7004997 138.0129988
 102.9460012  86.4884997 138.7829988 102.7694809  87.3393862 138.7408244
 105.8320012  88.8504997 121.3059988 105.5630012  89.0304997 122.2069988
 105.6260012  87.9244997 121.1739988 105.7673427  88.7500261 121.4115073
 108.5280012  87.3454997 136.2529988 109.2740012  87.9334997 136.1339988
 107.7710012  87.9274997 136.3169988 108.5277820  87.5047143 136.2453590
  96.9710012  84.6594997 138.8569988  97.3790012  83.8024997 138.7359988
  96.7110012  84.6744997 139.7779988  96.9917568  84.5440807 138.9649588
 101.6290012  85.7754997 123.8759988 101.1690012  85.2914997 124.5619988
 101.8840012  85.1074997 123.2399988 101.6004902  85.6188731 123.8839334
 100.9180012  83.6684997 136.2319988 100.3000012  84.3434997 136.5119988
 101.2620012  83.9894997 135.3979988 100.8799132  83.8042411 136.1576262
 102.7000012  84.0184997 122.1379988 102.5200012  83.8644997 121.2109988
 103.6500012  84.1264997 122.1829988 102.8037776  84.0120175 122.0171843
 105.9380012  86.1404997 139.5089988 106.8910012  86.2234997 139.4819988
 105.7770012  85.4284997 140.1289988 106.0466426  86.0556746 139.5890579
 112.0900012  86.3734997 121.5839988 111.8160012  85.9484997 120.7709988
 112.1290012  87.3044997 121.3669988 112.0577699  86.4412484 121.4433610
 101.2570012  81.0234997 137.3139988 101.4070012  80.2944997 136.7119988
 101.2600012  81.8004997 136.7549988 101.2779302  81.0287851 137.1560692
 101.6700012  79.3934997 134.8069988 102.2060012  79.8444997 134.1549988
 100.8180012  79.2854997 134.3839988 101.6282178  79.4406390 134.6605756
 103.2520012  84.8324997 135.0459988 104.0020012  84.6764997 134.4729988
 102.9130012  85.6844997 134.7709988 103.3088921  84.9262968 134.9303561
 107.6670012  82.6474997 140.0749988 107.8600012  81.7164997 139.9629988
 108.5250012  83.0724997 140.0639988 107.8092934  82.5776531 140.0582031
 108.9840012  85.4364997 138.1519988 108.7030012  86.1454997 137.5739988
 109.9270012  85.3634997 138.0009988 109.0729291  85.5236711 138.0524967
  99.7360012  82.2214997 139.2259988  98.9690012  81.6894997 139.0149988
 100.4150012  81.9114997 138.6259988  99.7227877  82.1068300 139.1160716
 102.4760012  76.8494997 135.2379988 102.3770012  77.7964997 135.1329988
 101.7330012  76.4774997 134.7619988 102.3621184  76.9285863 135.1593621
 103.7400012  81.1714997 138.8019988 103.5040012  80.9514997 139.7029988
 102.9560012  80.9644997 138.2919988 103.6018504  81.1134586 138.8563431
 106.4550012  80.2984997 137.8769988 105.5080012  80.3304997 138.0099988
 106.7680012  79.6734997 138.5309988 106.3676707  80.2183998 137.9836060
 108.0890012  78.9324997 139.8829988 107.9930012  77.9804997 139.8769988
 107.7680012  79.2014997 140.7429988 108.0324070  78.8384035 139.9985441
  97.9160012  80.1424997 138.9299988  98.1280012  79.4354997 138.3199988
  97.8050012  79.7044997 139.7739988  97.9299721  79.9867084 138.9606843
 102.6970012  76.1434997 137.9089988 103.4090012  75.5034997 137.8949988
 102.5960012  76.4104997 136.9959988 102.7808066  76.0920079 137.7835677
 103.0510012  77.8264997 139.9629988 102.9190012  77.3504997 139.1429988
 102.4520012  78.5704997 139.9079988 102.9519071  77.8619618 139.8432886
 102.5970012  94.7094997 123.1389988 103.5300012  94.8674997 123.2829988
 102.3330012  95.3844997 122.5149988 102.6889888  94.8224510 123.0742842
  96.1660012  89.3454997 122.6219988  97.0800012  89.4244997 122.8959988
  96.1730012  88.6584997 121.9559988  96.2921131  89.2633961 122.5694393
  94.8150012  94.7384997 127.6999988  94.1680012  94.2764997 127.1669988
  95.1690012  94.0664997 128.2819988  94.7743849  94.5844723 127.7057959
  95.6850012  92.8194997 129.5039988  95.3500012  91.9394997 129.6759988
  95.9070012  93.1644997 130.3689988  95.6691783  92.7457500 129.6444208
 113.2330012  93.6284997 132.4849988 113.2120012  93.8134997 133.4239988
 113.9240012  94.1974997 132.1439988 113.3234618  93.7306606 132.5673864
 112.7970012  93.1964997 135.4069988 112.3090012  92.4604997 135.0349988
 113.3460012  92.8024997 136.0849988 112.8044820  93.0425889 135.4477813
 111.2470012  88.9854997 140.0449988 110.3810012  88.8804997 140.4389988
 111.6240012  89.7444997 140.4909988 111.1793308  89.0736900 140.1592393
 112.5480012  87.2424997 125.5589988 113.3980012  87.6634997 125.6859988
 112.5540012  86.5024997 126.1659988 112.6651372  87.2000803 125.6584344
 112.9430012  85.2954997 127.3819988 112.2160012  84.8164997 127.7799988
 113.5240012  85.5014997 128.1149988 112.9220473  85.2578103 127.5354528
 112.7020012  88.0804997 132.3299988 113.5350012  87.7024997 132.0499988
 112.8140012  89.0234997 132.2109988 112.8312647  88.1562218 132.2755487
 111.1880012  90.9584997 134.6369988 110.5410012  91.2834997 135.2629988
 110.6710012  90.5184997 133.9629988 111.0294029  90.9435004 134.6315827
 113.2110012  85.1964997 123.7739988 112.6890012  85.5534997 123.0549988
 113.1780012  85.8714997 124.4519988 113.1351634  85.3365413 123.7673145
 111.5600012  82.4364997 122.3239988 111.6560012  83.1034997 121.6439988
 111.4200012  81.6204997 121.8429988 111.5542272  82.4175655 122.1658347
 110.7290012  83.8164997 127.9449988 110.5790012  82.8714997 127.9249988
 110.3760012  84.0974997 128.7889988 110.6607448  83.7251481 128.0563705
  95.7650012  85.8944997 131.9559988  95.9490012  85.8124997 131.0199988
  96.6140012  85.7704997 132.3789988  95.9050151  85.8665073 131.8851451
 111.5860012  85.7864997 137.5839988 112.1690012  85.0524997 137.7759988
 112.1500012  86.5584997 137.6309988 111.7419769  85.7904227 137.6166159
 113.0820012  83.6894997 138.2689988 112.2190012  83.3104997 138.1029988
 113.6870012  82.9504997 138.1939988 113.0456119  83.5378268 138.2361528
 110.8070012  79.8444997 121.4419988 111.4180012  79.4734997 122.0789988
 109.9710012  79.4234997 121.6379988 110.7775032  79.7367554 121.5557035
 110.4400012  81.3994997 126.4079988 110.7200012  80.4924997 126.5319988
 111.1990012  81.8334997 126.0189988 110.5809277  81.3340942 126.3723682
 111.0520012  81.9804997 131.8439988 111.9850012  82.1924997 131.8089988
 110.8170012  82.0824997 132.7659988 111.1479244  82.0233100 131.9638892
 111.0810012  82.7174997 134.6199988 110.2380012  82.9854997 134.9859988
 111.5230012  83.5394997 134.4089988 111.0254158  82.8653291 134.6415491
  95.3620012  81.1654997 138.0969988  96.2820012  81.0434997 138.3329988
  94.9130012  80.4154997 138.4859988  95.4271580  81.0473727 138.1819006
 113.3640012  76.6974997 139.9729988 113.7140012  76.0434997 139.3679988
 113.5110012  77.5344997 139.5329988 113.4317887  76.7211548 139.8306858
 111.0530012  78.6624997 126.4559988 111.2360012  78.2134997 127.2819988
 110.4540012  78.0774997 125.9929988 110.9970202  78.5219975 126.5063275
  96.5830012  79.4774997 130.9879988  97.0290012  78.6854997 131.2899988
  97.0500012  80.1934997 131.4179988  96.7070831  79.4660685 131.0874006
  94.8870012  82.4764997 132.0569988  95.3790012  82.2554997 131.2659988
  95.2500012  83.3174997 132.3379988  95.0033126  82.5598357 131.9867531
 112.8840012  78.8064997 138.3219988 111.9660012  79.0774997 138.2869988
 113.0070012  78.2714997 137.5379988 112.7749730  78.7712508 138.2111923
 112.9200012  78.7294997 122.9839988 113.3320012  78.0084997 122.5089988
 113.6020012  79.3994997 123.0429988 113.0685885  78.7212368 122.9268915
  95.2010012  78.7344997 126.1109988  94.2760012  78.9434997 125.9819988
  95.6550012  79.2184997 125.4209988  95.1357292  78.8285343 126.0000720
 109.9720012  93.7184997 128.0569988 110.6240012  93.3714997 127.4489988
 110.4820012  94.2074997 128.7029988 110.1302637  93.7370597 128.0610236
  95.1650012  77.4724997 134.4549988  94.5000012  77.2264997 135.0989988
  94.7220012  78.0944997 133.8779988  95.0141318  77.5229410 134.4650898
  97.3570012  90.6474997 138.5999988  96.5360012  90.8224997 138.1389988
  97.1040012  90.5744997 139.5199988  97.2105585  90.6615544 138.6613561
 100.3110012  91.6224997 134.8579988  99.8860012  92.4314997 134.5759988
 101.2150012  91.7074997 134.5559988 100.3749975  91.7449300 134.7784816
 104.6220012  93.0214997 137.8179988 104.8070012  92.6874997 138.6959988
 105.4680012  93.3304997 137.4959988 104.7617539  93.0176047 137.8945605
 106.9670012  94.3074997 137.0619988 107.6440012  93.6744997 136.8219988
 107.2890012  94.7084997 137.8689988 107.1031637  94.2751154 137.1382793
 111.8840012  76.8964997 136.1409988 111.0720012  77.2214997 135.7539988
 112.1170012  76.1364997 135.6079988 111.8042203  76.8382758 136.0158880
  97.7130012  94.8784997 134.9059988  96.9920012  95.3184997 134.4549988
  97.3470012  94.6274997 135.7539988  97.5649651  94.9047242 134.9589640
 100.1800012  94.4784997 133.9359988  99.3150012  94.5504997 134.3399988
 100.1250012  95.0254997 133.1519988 100.0542085  94.5622685 133.8853362
 104.8900012  94.3664997 133.1109988 104.4340012  94.8954997 132.4569988
 105.0530012  94.9694997 133.8359988 104.8496068  94.5204607 133.1194838
 107.2180012  93.2444997 134.0559988 106.3130012  93.4094997 133.7899988
 107.6470012  94.0974997 133.9909988 107.1521324  93.3824339 134.0107976
 109.8220012  94.8144997 134.3509988 109.6400012  95.7304997 134.1409988
 109.9990012  94.4044997 133.5049988 109.8210210  94.8844822 134.2077885
  97.1270012  93.5014997 131.8159988  97.1090012  93.0764997 132.6729988
  97.9320012  93.1834997 131.4069988  97.2333529  93.4003013 131.8780946
  99.2690012  92.2114997 130.4709988  99.0500012  91.2954997 130.6409988
 100.0930012  92.3514997 130.9369988  99.3504420  92.1050520 130.5572774
 101.8060012  92.6814997 131.3199988 102.0190012  91.7934997 131.0329988
 101.8700012  92.6474997 132.2739988 101.8438232  92.5553102 131.4097397
 105.3140012  78.3454997 130.4639988 104.6400012  77.7164997 130.7199988
 105.8780012  77.8614997 129.8609988 105.2979230  78.1938744 130.4175340
 110.4570012  76.4534997 130.5769988 111.0610012  77.0004997 130.0749988
 109.5870012  76.7724997 130.3359988 110.4221208  76.5715137 130.4756886
 112.1840012  77.5914997 128.9099988 112.7960012  77.0774997 128.3829988
 112.5660012  78.4694997 128.9329988 112.3193371  77.6397866 128.8410041
  97.6410012  76.9794997 128.2859988  96.8640012  76.7454997 127.7789988
  98.1710012  76.1824997 128.2949988  97.6062330  76.8396988 128.2177742
  96.4770012  76.7774997 124.0899988  96.9160012  77.3884997 123.4979988
  95.8440012  77.3154997 124.5639988  96.4514514  76.9339257 124.0730930
 102.2200012  76.9064997 128.0999988 103.0950012  77.2944997 128.0699988
 102.0840012  76.6914997 129.0219988 102.3213695  76.9305184 128.2206440
 107.7770012  76.9364997 129.7489988 107.8530012  77.0314997 128.7989988
 107.5020012  76.0284997 129.8779988 107.7502321  76.8267867 129.6365079
 109.1300012  76.9624997 125.4409988 108.4280012  77.5774997 125.2309988
 108.6860012  76.1244997 125.5719988 108.9736450  76.9335639 125.4299000
  96.3780012  92.7254997 124.9869988  95.6930012  92.6874997 124.3199988
  96.3820012  93.6384997 125.2759988  96.2846998  92.8436733 124.9346771
  98.3380012  78.6934997 122.5319988  98.8300012  78.0634997 122.0049988
  98.9620012  78.9894997 123.1949988  98.4895688  78.6473804 122.5495482
 103.3640012  78.9864997 124.9889988 103.5420012  78.3404997 125.6719988
 103.3110012  79.8204997 125.4559988 103.3811999  79.0108009 125.1455917
 105.2430012  93.9354997 123.3849988 106.1090012  94.3014997 123.2069988
 104.9960012  93.4954997 122.5709988 105.3282392  93.9261756 123.2506289
 111.9520012  93.4984997 126.0639988 111.7570012  92.7504997 125.4989988
 111.9130012  94.2564997 125.4809988 111.9200380  93.4986099 125.9078384
  97.5990012  77.4934997 137.8039988  97.2330012  76.7284997 138.2459988
  98.5120012  77.5224997 138.0899988  97.6722736  77.3925640 137.9032502
  99.5720012  76.8444997 139.3399988 100.4700012  76.5704997 139.1549988
  99.1850012  76.1014997 139.8039988  99.6426612  76.7065914 139.3773643
  98.1960012  93.6454997 122.0129988  97.9290012  93.9324997 122.8859988
  98.9680012  93.0994997 122.1649988  98.2637488  93.6110294 122.1531050
 107.9930012  76.1764997 139.5219988 108.0700012  75.7504997 140.3759988
 108.8870012  76.1904997 139.1789988 108.1243428  76.1200879 139.5925310
 111.1690012  92.2494997 138.2139988 110.3870012  92.0634997 137.6939988
 111.0970012  93.1784997 138.4319988 111.0522274  92.3496643 138.1723018
 125.5750012  86.1354997 128.2449988 125.6640012  87.0794997 128.1129988
 124.9370012  85.8604997 127.5869988 125.5009081  86.2274830 128.1379614
 124.5080012  85.3904997 131.6639988 124.4700012  84.7444997 132.3689988
 124.1860012  84.9244997 130.8929988 124.4592333  85.2389408 131.6562978
 116.8770012  85.0054997 133.2569988 116.9180012  84.3794997 133.9799988
 117.5800012  85.6294997 133.4389988 116.9776363  85.0041196 133.3806044
 128.2140012  88.3294997 129.9649988 127.7740012  87.6094997 130.4159988
 128.2010012  89.0504997 130.5949988 128.1520226  88.3283731 130.1118494
 117.8000012  89.4554997 131.7919988 117.4310012  88.6534997 131.4219988
 118.7410012  89.2864997 131.8379988 117.8767289  89.3230153 131.7476316
 114.4100012  83.1154997 127.1849988 113.9630012  83.9614997 127.1659988
 113.8490012  82.5354997 126.6689988 114.2729900  83.1529916 127.1126801
 115.1210012  85.2774997 129.3099988 115.3340012  84.5074997 129.8379988
 115.8590012  85.3664997 128.7069988 115.2499044  85.1841968 129.3007123
 125.3260012  93.4344997 130.1769988 125.9460012  92.7574997 129.9039988
 125.1180012  93.2164997 131.0859988 125.3826726  93.3124800 130.2624812
 122.8980012  87.8234997 132.0699988 123.2020012  87.1374997 131.4749988
 123.6190012  87.9414997 132.6879988 123.0370671  87.7456304 132.0721816
 131.5610012  79.4244997 132.9309988 131.6100012  80.0344997 133.6659988
 131.9860012  79.8854997 132.2079988 131.6251746  79.5703796 132.9339175
 126.0390012  82.2174997 132.3969988 126.1810012  81.2714997 132.4179988
 125.9320012  82.4244997 131.4689988 126.0439919  82.1158246 132.2743408
 119.1930012  80.3184997 129.6699988 119.2370012  81.1784997 129.2509988
 118.7360012  79.7664997 129.0359988 119.1372240  80.3614422 129.5269864
 126.9160012  80.4494997 128.0709988 127.5620012  80.1204997 128.6949988
 127.4260012  80.9674997 127.4479988 127.0734299  80.4744450 128.0722731
 115.8140012  82.7154997 130.4319988 116.4670012  82.1654997 130.8639988
 115.8380012  82.4414997 129.5149988 115.9066683  82.6031466 130.3672123
 120.9700012  84.2654997 129.6469988 121.5860012  83.7394997 130.1569988
 120.3840012  83.6254997 129.2439988 120.9750810  84.1069208 129.6623173
 131.9520012  80.9024997 135.1659988 131.2640012  81.5604997 135.0709988
 131.9680012  80.7054997 136.1029988 131.8599540  80.9659819 135.2795990
 118.0040012  79.2364997 133.7439988 117.7850012  79.7664997 132.9779988
 117.3360012  79.4634997 134.3909988 117.8837600  79.3396906 133.7266379
 125.3730012  88.7364997 127.2879988 125.0770012  88.4144997 126.4369988
 125.0480012  89.6364997 127.3289988 125.2886371  88.8140215 127.1771801
 120.5730012  86.9124997 134.0309988 119.8330012  87.5104997 134.1349988
 121.2870012  87.4664997 133.7159988 120.5682237  87.0692831 134.0026465
 128.6800012  79.7404997 130.0509988 128.4640012  78.9744997 130.5839988
 129.3350012  80.2124997 130.5639988 128.7390632  79.6995889 130.1932861
 117.5970012  81.1284997 131.6959988 118.2110012  81.7614997 132.0689988
 118.1090012  80.6564997 131.0399988 117.7501981  81.1512267 131.6582908
 118.9800012  88.8764997 134.8179988 118.9750012  89.7564997 134.4399988
 118.1270012  88.7934997 135.2429988 118.8639464  88.9856117 134.8237907
 115.1010012  88.5474997 125.5999988 114.8290012  88.7764997 124.7119988
 115.1470012  89.3854997 126.0609988 115.0699482  88.6921318 125.5406273
 128.7260012  90.1694997 132.3129988 127.7850012  90.2274997 132.4749988
 129.0030012  91.0754997 132.1759988 128.6344679  90.2999443 132.3166815
 129.0270012  78.4554997 133.7309988 128.2910012  79.0664997 133.6929988
 129.7100012  78.8704997 133.2039988 129.0186541  78.5951374 133.6545832
 122.0300012  76.5424997 131.1959988 121.9130012  75.5934997 131.1419988
 121.1750012  76.8744997 131.4699988 121.8984212  76.4575571 131.2256497
 126.9780012  91.9504997 128.9379988 127.4040012  91.2434997 128.4529988
 127.2950012  92.7514997 128.5219988 127.0791683  91.9621017 128.8153680
 128.1380012  89.8514997 127.4469988 127.8800012  89.1614997 126.8359988
 128.2090012  89.4084997 128.2929988 128.1122856  89.6972124 127.4776885
 129.8240012  88.4174997 135.9239988 129.9640012  87.8264997 135.1849988
 129.9910012  89.2904997 135.5679988 129.8657411  88.4545428 135.7746894
 124.2970012  85.3794997 125.6969988 123.5850012  85.9144997 125.3449988
 124.9880012  85.4354997 125.0369988 124.2930132  85.4602543 125.5596289
 124.3500012  83.8374997 122.7359988 125.0510012  83.8594997 123.3869988
 124.6530012  83.2094997 122.0789988 124.4868133  83.7557070 122.7363369
 131.6660012  84.7574997 133.9899988 131.0130012  85.4524997 134.0799988
 132.1310012  84.9674997 133.1809988 131.6395274  84.8810643 133.8928462
 127.7020012  85.5894997 126.6489988 126.9700012  85.8174997 127.2219988
 128.1500012  84.8754997 127.1029988 127.6622725  85.5242145 126.7888816
 127.6000012  83.7634997 135.7159988 127.6800012  84.5264997 136.2879988
 126.9980012  84.0424997 135.0259988 127.5295756  83.9057134 135.7010589
 119.3480012  86.2194997 128.5309988 119.0170012  85.8494997 127.7129988
 119.9360012  85.5494997 128.8779988 119.3821873  86.0781156 128.4658102
 120.7140012  89.6474997 131.2119988 120.6200012  89.0694997 130.4559988
 121.4440012  89.2764997 131.7089988 120.7997387  89.5181663 131.1755342
 119.7140012  84.9884997 132.1649988 120.2800012  85.1094997 131.4019988
 120.0330012  85.6254997 132.8029988 119.8345474  85.0912219 132.1469862
 126.0230012  90.4914997 132.8989988 125.7830012  91.1534997 133.5469988
 125.8250012  89.6574997 133.3239988 125.9633808  90.4693134 133.0451524
 120.5940012  89.3874997 136.8819988 120.2830012  90.1694997 137.3369988
 119.9440012  89.2344997 136.1959988 120.4635558  89.4739105 136.8515871
 126.5730012  84.7514997 124.3339988 127.1530012  84.9014997 125.0809988
 126.9870012  85.2224997 123.6099988 126.7082997  84.8356578 124.3384058
 117.5140012  85.5854997 136.1099988 117.5850012  86.2364997 136.8089988
 116.6240012  85.6884997 135.7749988 117.4033005  85.6885427 136.1603495
 124.3000012  91.4884997 127.7689988 124.7740012  91.7834997 128.5459988
 123.7370012  92.2264997 127.5359988 124.2888184  91.6287247 127.8439628
 118.8340012  91.4594997 137.6449988 118.8410012  91.3234997 136.6979988
 117.9180012  91.3414997 137.8969988 118.7111714  91.4249430 137.5494666
 130.2720012  76.5014997 124.1469988 129.3720012  76.6404997 124.4419988
 130.5240012  77.3324997 123.7449988 130.1828702  76.6329074 124.1330205
 118.3380012  85.2894997 126.1199988 118.0460012  86.0574997 125.6299988
 117.6640012  84.6294997 125.9579988 118.2068111  85.3055587 126.0308978
 131.4610012  90.8674997 122.5229988 131.5350012  91.8064997 122.6939988
 132.3670012  90.5624997 122.4669988 131.5935100  90.9546722 122.5388119
 114.4310012  87.6524997 134.9349988 113.9300012  87.6244997 134.1199988
 114.4360012  86.7464997 135.2449988 114.3630944  87.5262396 134.8653226
 114.1810012  90.4324997 131.8189988 115.1270012  90.2884997 131.7999988
 114.0690012  91.2164997 132.3559988 114.2952727  90.5188046 131.8890072
 132.3790012  91.0984997 137.5019988 132.3300012  90.1434997 137.4649988
 131.5520012  91.3664997 137.9029988 132.2604940  91.0038998 137.5511375
 123.3580012  90.6724997 136.3779988 123.4450012  91.4984997 136.8529988
 122.4940012  90.3424997 136.6269988 123.2531964  90.7409878 136.4766549
 123.7720012  94.4444997 126.1839988 123.6970012  94.3234997 125.2369988
 123.8050012  95.3944997 126.3019988 123.7662068  94.5562646 126.0704967
 117.4250012  93.2334997 127.9649988 117.5780012  92.8854997 128.8429988
 116.5750012  92.8774997 127.7099988 117.3309166  93.1376216 128.0508079
 126.8740012  93.5984997 123.1859988 127.2490012  92.8544997 122.7149988
 126.8780012  93.3284997 124.1049988 126.9259125  93.4600986 123.2456483
 126.5430012  93.5244997 125.9349988 125.6070012  93.6244997 126.1139988
 126.8230012  92.8154997 126.5139988 126.4529553  93.4423406 126.0377087
 129.5310012  82.5914997 137.9819988 129.1240012  83.0724997 137.2609988
 129.5720012  81.6864997 137.6739988 129.4808437  82.5349374 137.8416683
 116.6800012  88.9754997 135.9789988 116.8960012  88.6144997 136.8379988
 115.8250012  88.6014997 135.7689988 116.5939292  88.8754111 136.0683386
 119.2990012  77.4454997 131.9739988 118.4370012  77.3584997 131.5659988
 119.2760012  78.3014997 132.4019988 119.1780409  77.5492883 131.9760589
 123.9620012  77.1674997 135.3489988 124.3820012  76.7524997 136.1019988
 123.0290012  76.9894997 135.4659988 123.8933644  77.0865900 135.4679539
 127.2880012  80.9234997 136.2019988 126.7740012  80.7974997 136.9999988
 127.1330012  81.8354997 135.9579988 127.1966852  81.0296132 136.2782158
 128.0510012  85.7844997 121.9639988 128.0930012  85.5614997 121.0339988
 128.9000012  86.1834997 122.1529988 128.1715280  85.8079438 121.8623554
 123.6230012  79.6604997 122.6339988 123.3700012  79.6794997 123.5569988
 123.3670012  78.7884997 122.3319988 123.5537481  79.5452558 122.7196175
 119.3900012  82.4114997 133.0689988 118.7480012  82.3704997 133.7779988
 119.4270012  83.3374997 132.8309988 119.3070664  82.5311430 133.1339219
 119.3870012  82.6324997 127.9809988 118.4940012  82.2914997 127.9219988
 119.8370012  82.2554997 127.2249988 119.3258130  82.5349631 127.8707702
 124.9220012  83.0484997 126.7979988 124.5130012  83.8634997 126.5069988
 125.6430012  82.9084997 126.1839988 124.9634537  83.1412018 126.6751342
 124.0240012  83.2234997 138.2859988 123.4620012  82.5194997 138.6069988
 124.8510012  83.1034997 138.7539988 124.0587095  83.1107883 138.3932330
 125.9270012  82.4944997 129.6119988 125.7320012  83.0994997 128.8969988
 126.1080012  81.6604997 129.1779988 125.9247614  82.4646300 129.4554405
 117.1400012  82.7314997 134.9359988 117.1020012  83.1314997 135.8049988
 116.6490012  81.9144997 135.0269988 117.0684684  82.6758069 135.0671059
 120.5060012  80.1054997 121.7349988 120.0750012  79.6604997 122.4649988
 119.7880012  80.4774997 121.2229988 120.3499438  80.0948940 121.7656799
 113.7480012  79.8474997 128.7869988 114.3790012  79.8184997 129.5059988
 114.1970012  79.4224997 128.0559988 113.8950918  79.7860836 128.7866441
 115.0220012  80.5934997 124.2109988 115.4960012  81.1844997 123.6259988
 114.3050012  81.1244997 124.5579988 114.9899341  80.7460867 124.1778836
 125.1910012  84.1324997 134.2829988 125.5140012  83.5014997 133.6399988
 124.7510012  83.5974997 134.9439988 125.1757484  83.9738387 134.2843198
 121.9680012  80.0594997 129.0669988 121.0570012  80.1164997 129.3559988
 122.4740012  79.9994997 129.8779988 121.9116899  80.0591941 129.2161184
 116.7970012  81.6884997 127.8939988 115.9070012  81.7884997 127.5539988
 117.0930012  80.8464997 127.5479988 116.7152823  81.5883545 127.8007213
 120.4500012  81.6884997 125.5509988 121.3810012  81.8174997 125.7289988
 120.2350012  82.3584997 124.9009988 120.5484247  81.7966565 125.4875747
 126.3730012  79.2944997 132.3319988 125.6970012  79.4254997 132.9959988
 125.8880012  79.1394997 131.5209988 126.2147146  79.2915157 132.3134469
 119.1240012  82.8834997 123.1169988 118.5810012  82.5034997 122.4259988
 119.9570012  83.0774997 122.6889988 119.1623631  82.8577125 122.9644501
 129.6610012  94.9664997 138.6079988 129.8610012  95.3904997 137.7739988
 130.3160012  95.3094997 139.2149988 129.7770072  95.0709857 138.5758592
 117.2590012  87.4404997 138.2159988 117.9910012  87.6944997 138.7779988
 116.4790012  87.6444997 138.7319988 117.2537073  87.5028160 138.3626151
 123.2880012  82.8474997 130.9539988 123.8530012  82.3004997 130.4069988
 123.1410012  82.3254997 131.7429988 123.3453380  82.7022259 130.9858695
 118.2900012  78.9834997 127.3729988 117.9730012  78.0814997 127.3369988
 119.0720012  78.9854997 126.8199988 118.3522408  78.8602474 127.2933569
 121.9150012  81.2354997 133.3679988 121.0790012  81.6894997 133.4789988
 122.4390012  81.5114997 134.1199988 121.8715416  81.3348660 133.4848119
 122.4590012  87.4484997 125.0529988 121.7140012  86.9414997 124.7309988
 122.3250012  87.4974997 125.9999988 122.3388776  87.3856940 125.1368647
 129.6090012  86.5814997 133.8399988 130.2510012  87.0384997 133.2959988
 128.7790012  86.6944997 133.3769988 129.5845963  86.6592704 133.7030177
 126.3570012  80.2624997 123.2519988 125.4180012  80.3744997 123.1009988
 126.6540012  81.1194997 123.5589988 126.2687583  80.3935981 123.2728337
 123.9780012  87.6324997 136.2899988 123.6330012  87.2514997 137.0969988
 123.7780012  88.5664997 136.3609988 123.9037527  87.7065135 136.4100689
 127.0750012  82.1294997 124.9129988 127.9670012  81.9924997 125.2319988
 127.1320012  82.9204997 124.3759988 127.2046504  82.2176052 124.8840818
 117.5840012  86.7434997 130.8229988 118.3290012  86.7414997 130.2219988
 117.6620012  85.9204997 131.3039988 117.6964995  86.6318887 130.8058282
 124.5850012  88.9074997 124.0789988 124.2890012  89.7334997 124.4599988
 123.8820012  88.2874997 124.2749988 124.4494914  88.9368199 124.1576443
 114.5920012  85.2044997 136.1379988 114.8150012  84.7864997 136.9699988
 113.9900012  84.5914997 135.7149988 114.5411759  85.0644668 136.1947022
 121.6080012  84.7214997 138.3509988 121.3120012  84.5554997 137.4559988
 122.5400012  84.5014997 138.3399988 121.6934166  84.6690640 138.2270536
 126.2290012  90.0944997 136.2409988 125.3280012  90.2774997 135.9729988
 126.2630012  90.3534997 137.1609988 126.1103139  90.1545849 136.3288099
 131.9600012  82.3394997 124.6079988 131.4060012  81.9434997 123.9359988
 132.0600012  83.2494997 124.3299988 131.8977059  82.4083586 124.4784401
 131.9230012  88.1394997 137.4449988 131.0720012  88.3774997 137.0779988
 132.5140012  88.1224997 136.6919988 131.8862487  88.1698258 137.2928893
 130.2550012  91.1254997 125.0729988 129.8820012  90.2994997 125.3819988
 130.5330012  90.9424997 124.1749988 130.2415222  90.9877430 124.9939473
 127.4160012  85.9334997 132.0939988 126.4870012  85.7014997 132.0669988
 127.8670012  85.1564997 131.7639988 127.3499216  85.7967238 132.0456917
 119.9590012  90.2614997 128.2269988 120.4860012  91.0344997 128.0269988
 119.0790012  90.4864997 127.9249988 119.9122031  90.3977545 128.1587912
 115.7140012  85.1234997 122.8139988 116.3300012  85.7504997 123.1939988
 114.8520012  85.4394997 123.0859988 115.6817698  85.2519430 122.9027183
 121.3860012  87.9244997 127.8029988 121.1450012  88.8494997 127.8449988
 120.6450012  87.4654997 128.1999988 121.2529225  87.9890933 127.8623742
 121.9010012  92.0734997 134.1189988 122.2630012  92.9284997 133.8849988
 122.4320012  91.7814997 134.8589988 122.0224473  92.1511060 134.1870855
 120.0690012  92.9464997 127.3489988 119.1190012  93.0514997 127.3999988
 120.4210012  93.7664997 127.6929988 119.9864195  93.0718800 127.4025502
 125.4450012  88.1724997 133.8189988 125.0190012  87.9454997 134.6459988
 126.0250012  87.4344997 133.6369988 125.4651868  88.0415299 133.9075830
 127.6480012  89.1014997 122.8929988 128.0010012  88.7214997 123.6969988
 126.6990012  89.0084997 122.9799988 127.5680918  89.0368956 123.0148532
 128.1030012  92.7244997 136.2889988 127.5020012  92.1694997 135.7929988
 128.3850012  93.3914997 135.6619988 128.0588804  92.7386625 136.1364849
 132.1510012  93.5814997 123.0939988 132.8950012  94.1674997 122.9539988
 131.4570012  94.1494997 123.4269988 132.1589899  93.7385798 123.1198778
 116.2260012  79.9574997 135.6959988 115.3330012  80.2964997 135.6279988
 116.1270012  79.1024997 136.1139988 116.0904164  79.8882588 135.7432235
 128.5140012  87.7744997 125.1199988 128.2360012  87.0464997 125.6759988
 129.4410012  87.8934997 125.3249988 128.6013124  87.6908802 125.2238845
 115.8770012  91.7624997 134.1309988 116.0940012  90.8304997 134.0999988
 116.1230012  92.0364997 135.0139988 115.9399549  91.6720636 134.2461763
 121.7390012  90.2134997 121.3399988 121.9780012  89.4654997 120.7929988
 121.4700012  89.8254997 122.1729988 121.7353675  90.0586638 121.3776865
 120.6760012  89.7834997 123.7959988 120.8220012  89.2634997 124.5859988
 120.6730012  90.6904997 124.1029988 120.6955792  89.8348842 123.9456117
 117.1290012  87.0364997 124.3069988 116.4430012  87.3884997 124.8739988
 117.6510012  87.7994997 124.0599988 117.1056852  87.1878578 124.3512118
 124.9600012  79.6984997 134.5859988 125.6590012  79.7724997 135.2359988
 124.5790012  78.8344997 134.7399988 125.0041767  79.5917624 134.6958322
 125.7450012  79.3504997 125.6829988 125.9650012  79.8224997 124.8799988
 126.3030012  79.7454997 126.3529988 125.8504968  79.4684285 125.6637331
 123.4130012  91.4814997 124.5459988 122.5970012  91.9784997 124.5979988
 123.9430012  91.9564997 123.9059988 123.3729161  91.6137722 124.4665956
 122.9450012  81.0784997 126.5179988 123.7570012  81.5834997 126.5639988
 122.7000012  80.9334997 127.4319988 123.0230520  81.1280375 126.6478517
 123.4800012  82.0644997 135.7019988 123.5990012  82.6384997 136.4599988
 124.1360012  81.3764997 135.8169988 123.5849025  82.0499858 135.8211321
 123.8280012  78.1594997 127.4559988 123.4820012  78.7774997 128.0999988
 124.4870012  78.6604997 126.9739988 123.8696968  78.3116278 127.4789383
 120.7520012  92.5254997 124.5269988 120.9120012  93.3244997 124.0269988
 120.5540012  92.8314997 125.4119988 120.7471637  92.6764020 124.5781144
 119.4860012  79.2224997 124.1429988 119.4030012  80.1114997 124.4899988
 120.3760012  78.9574997 124.3749988 119.5949469  79.3081430 124.2217626
 129.6850012  79.9714997 136.5369988 128.7680012  80.2344997 136.4499988
 130.0200012  79.9684997 135.6409988 129.6048613  80.0070761 136.4038837
 128.2870012  83.7224997 130.6329988 127.4890012  83.3074997 130.3049988
 128.7320012  83.0314997 131.1239988 128.2379885  83.5723543 130.6544889
 117.7450012  89.6504997 123.2039988 118.3370012  90.3494997 123.4799988
 118.2040012  89.2174997 122.4839988 117.8881142  89.6877049 123.1444830
 116.0610012  82.3144997 122.3199988 116.0160012  83.2534997 122.4979988
 115.1730012  82.0784997 122.0499988 115.9348574  82.4111892 122.3078912
 129.3730012  92.9784997 132.2559988 129.2180012  93.6564997 131.5979988
 130.3060012  93.0504997 132.4589988 129.4778657  93.0809546 132.1934360
 116.8690012  77.0964997 130.9929988 116.6400012  77.1554997 130.0649988
 116.4260012  76.3044997 131.2989988 116.7778530  76.9975753 130.9074786
 115.7990012  91.0364997 127.1529988 114.9670012  91.5094997 127.1799988
 116.3450012  91.5464997 126.5549988 115.7590352  91.1701332 127.0758463
 115.0870012  93.6494997 138.4829988 115.6280012  93.4324997 139.2429988
 114.6060012  92.8434997 138.2929988 115.0959951  93.5109270 138.5612576
 119.6850012  92.5684997 140.1029988 120.4520012  92.1094997 140.4439988
 119.6630012  92.3424997 139.1739988 119.7871275  92.4750186 140.0240101
 123.7770012  92.0764997 121.4789988 123.1330012  91.4454997 121.7999988
 124.5390012  91.5454997 121.2469988 123.7918077  91.9182920 121.4916011
 126.2620012  90.9484997 138.8329988 125.9110012  90.0924997 139.0759988
 126.9880012  91.0914997 139.4399988 126.3120769  90.8505636 138.9483619
 128.3810012  91.8934997 121.7119988 128.6640012  91.0994997 122.1649988
 129.1210012  92.1264997 121.1519988 128.5198006  91.8163376 121.6982715
 114.9940012  87.4594997 139.4369988 115.1380012  86.5574997 139.1509988
 114.2220012  87.7454997 138.9499988 114.9092753  87.3746816 139.3319505
 119.3360012  87.8034997 121.5699988 119.4000012  87.0094997 122.1009988
 119.9890012  87.6844997 120.8799988 119.4330241  87.6787148 121.5494317
 121.6500012  87.4294997 138.8699988 121.3210012  87.7004997 138.0129988
 121.8020012  86.4884997 138.7829988 121.6254809  87.3393862 138.7408244
 124.6880012  88.8504997 121.3059988 124.4190012  89.0304997 122.2069988
 124.4820012  87.9244997 121.1739988 124.6233427  88.7500261 121.4115073
 127.3840012  87.3454997 136.2529988 128.1300012  87.9334997 136.1339988
 126.6270012  87.9274997 136.3169988 127.3837820  87.5047143 136.2453590
 115.8270012  84.6594997 138.8569988 116.2350012  83.8024997 138.7359988
 115.5670012  84.6744997 139.7779988 115.8477568  84.5440807 138.9649588
 120.4850012  85.7754997 123.8759988 120.0250012  85.2914997 124.5619988
 120.7400012  85.1074997 123.2399988 120.4564902  85.6188731 123.8839334
 119.7740012  83.6684997 136.2319988 119.1560012  84.3434997 136.5119988
 120.1180012  83.9894997 135.3979988 119.7359132  83.8042411 136.1576262
 121.5560012  84.0184997 122.1379988 121.3760012  83.8644997 121.2109988
 122.5060012  84.1264997 122.1829988 121.6597776  84.0120175 122.0171843
 124.7940012  86.1404997 139.5089988 125.7470012  86.2234997 139.4819988
 124.6330012  85.4284997 140.1289988 124.9026426  86.0556746 139.5890579
 130.9460012  86.3734997 121.5839988 130.6720012  85.9484997 120.7709988
 130.9850012  87.3044997 121.3669988 130.9137699  86.4412484 121.4433610
 120.1130012  81.0234997 137.3139988 120.2630012  80.2944997 136.7119988
 120.1160012  81.8004997 136.7549988 120.1339302  81.0287851 137.1560692
 120.5260012  79.3934997 134.8069988 121.0620012  79.8444997 134.1549988
 119.6740012  79.2854997 134.3839988 120.4842178  79.4406390 134.6605756
 122.1080012  84.8324997 135.0459988 122.8580012  84.6764997 134.4729988
 121.7690012  85.6844997 134.7709988 122.1648921  84.9262968 134.9303561
 126.5230012  82.6474997 140.0749988 126.7160012  81.7164997 139.9629988
 127.3810012  83.0724997 140.0639988 126.6652934  82.5776531 140.0582031
 127.8400012  85.4364997 138.1519988 127.5590012  86.1454997 137.5739988
 128.7830012  85.3634997 138.0009988 127.9289291  85.5236711 138.0524967
 118.5920012  82.2214997 139.2259988 117.8250012  81.6894997 139.0149988
 119.2710012  81.9114997 138.6259988 118.5787877  82.1068300 139.1160716
 121.3320012  76.8494997 135.2379988 121.2330012  77.7964997 135.1329988
 120.5890012  76.4774997 134.7619988 121.2181184  76.9285863 135.1593621
 122.5960012  81.1714997 138.8019988 122.3600012  80.9514997 139.7029988
 121.8120012  80.9644997 138.2919988 122.4578504  81.1134586 138.8563431
 125.3110012  80.2984997 137.8769988 124.3640012  80.3304997 138.0099988
 125.6240012  79.6734997 138.5309988 125.2236707  80.2183998 137.9836060
 126.9450012  78.9324997 139.8829988 126.8490012  77.9804997 139.8769988
 126.6240012  79.2014997 140.7429988 126.8884070  78.8384035 139.9985441
 116.7720012  80.1424997 138.9299988 116.9840012  79.4354997 138.3199988
 116.6610012  79.7044997 139.7739988 116.7859721  79.9867084 138.9606843
 121.5530012  76.1434997 137.9089988 122.2650012  75.5034997 137.8949988
 121.4520012  76.4104997 136.9959988 121.6368066  76.0920079 137.7835677
 121.9070012  77.8264997 139.9629988 121.7750012  77.3504997 139.1429988
 121.3080012  78.5704997 139.9079988 121.8079071  77.8619618 139.8432886
 121.4530012  94.7094997 123.1389988 122.3860012  94.8674997 123.2829988
 121.1890012  95.3844997 122.5149988 121.5449888  94.8224510 123.0742842
 115.0220012  89.3454997 122.6219988 115.9360012  89.4244997 122.8959988
 115.0290012  88.6584997 121.9559988 115.1481131  89.2633961 122.5694393
 113.6710012  94.7384997 127.6999988 113.0240012  94.2764997 127.1669988
 114.0250012  94.0664997 128.2819988 113.6303849  94.5844723 127.7057959
 114.5410012  92.8194997 129.5039988 114.2060012  91.9394997 129.6759988
 114.7630012  93.1644997 130.3689988 114.5251783  92.7457500 129.6444208
 132.0890012  93.6284997 132.4849988 132.0680012  93.8134997 133.4239988
 132.7800012  94.1974997 132.1439988 132.1794618  93.7306606 132.5673864
 131.6530012  93.1964997 135.4069988 131.1650012  92.4604997 135.0349988
 132.2020012  92.8024997 136.0849988 131.6604820  93.0425889 135.4477813
 130.1030012  88.9854997 140.0449988 129.2370012  88.8804997 140.4389988
 130.4800012  89.7444997 140.4909988 130.0353308  89.0736900 140.1592393
 131.4040012  87.2424997 125.5589988 132.2540012  87.6634997 125.6859988
 131.4100012  86.5024997 126.1659988 131.5211372  87.2000803 125.6584344
 131.7990012  85.2954997 127.3819988 131.0720012  84.8164997 127.7799988
 132.3800012  85.5014997 128.1149988 131.7780473  85.2578103 127.5354528
 131.5580012  88.0804997 132.3299988 132.3910012  87.7024997 132.0499988
 131.6700012  89.0234997 132.2109988 131.6872647  88.1562218 132.2755487
 130.0440012  90.9584997 134.6369988 129.3970012  91.2834997 135.2629988
 129.5270012  90.5184997 133.9629988 129.8854029  90.9435004 134.6315827
 132.0670012  85.1964997 123.7739988 131.5450012  85.5534997 123.0549988
 132.0340012  85.8714997 124.4519988 131.9911634  85.3365413 123.7673145
 130.4160012  82.4364997 122.3239988 130.5120012  83.1034997 121.6439988
 130.2760012  81.6204997 121.8429988 130.4102272  82.4175655 122.1658347
 129.5850012  83.8164997 127.9449988 129.4350012  82.8714997 127.9249988
 129.2320012  84.0974997 128.7889988 129.5167448  83.7251481 128.0563705
 114.6210012  85.8944997 131.9559988 114.8050012  85.8124997 131.0199988
 115.4700012  85.7704997 132.3789988 114.7610151  85.8665073 131.8851451
 130.4420012  85.7864997 137.5839988 131.0250012  85.0524997 137.7759988
 131.0060012  86.5584997 137.6309988 130.5979769  85.7904227 137.6166159
 131.9380012  83.6894997 138.2689988 131.0750012  83.3104997 138.1029988
 132.5430012  82.9504997 138.1939988 131.9016119  83.5378268 138.2361528
 129.6630012  79.8444997 121.4419988 130.2740012  79.4734997 122.0789988
 128.8270012  79.4234997 121.6379988 129.6335032  79.7367554 121.5557035
 129.2960012  81.3994997 126.4079988 129.5760012  80.4924997 126.5319988
 130.0550012  81.8334997 126.0189988 129.4369277  81.3340942 126.3723682
 129.9080012  81.9804997 131.8439988 130.8410012  82.1924997 131.8089988
 129.6730012  82.0824997 132.7659988 130.0039244  82.0233100 131.9638892
 129.9370012  82.7174997 134.6199988 129.0940012  82.9854997 134.9859988
 130.3790012  83.5394997 134.4089988 129.8814158  82.8653291 134.6415491
 114.2180012  81.1654997 138.0969988 115.1380012  81.0434997 138.3329988
 113.7690012  80.4154997 138.4859988 114.2831580  81.0473727 138.1819006
 132.2200012  76.6974997 139.9729988 132.5700012  76.0434997 139.3679988
 132.3670012  77.5344997 139.5329988 132.2877887  76.7211548 139.8306858
 129.9090012  78.6624997 126.4559988 130.0920012  78.2134997 127.2819988
 129.3100012  78.0774997 125.9929988 129.8530202  78.5219975 126.5063275
 115.4390012  79.4774997 130.9879988 115.8850012  78.6854997 131.2899988
 115.9060012  80.1934997 131.4179988 115.5630831  79.4660685 131.0874006
 113.7430012  82.4764997 132.0569988 114.2350012  82.2554997 131.2659988
 114.1060012  83.3174997 132.3379988 113.8593126  82.5598357 131.9867531
 131.7400012  78.8064997 138.3219988 130.8220012  79.0774997 138.2869988
 131.8630012  78.2714997 137.5379988 131.6309729  78.7712508 138.2111923
 131.7760012  78.7294997 122.9839988 132.1880012  78.0084997 122.5089988
 132.4580012  79.3994997 123.0429988 131.9245885  78.7212368 122.9268915
 114.0570012  78.7344997 126.1109988 113.1320012  78.9434997 125.9819988
 114.5110012  79.2184997 125.4209988 113.9917292  78.8285343 126.0000720
 128.8280012  93.7184997 128.0569988 129.4800012  93.3714997 127.4489988
 129.3380012  94.2074997 128.7029988 128.9862637  93.7370597 128.0610236
 114.0210012  77.4724997 134.4549988 113.3560012  77.2264997 135.0989988
 113.5780012  78.0944997 133.8779988 113.8701318  77.5229410 134.4650898
 116.2130012  90.6474997 138.5999988 115.3920012  90.8224997 138.1389988
 115.9600012  90.5744997 139.5199988 116.0665585  90.6615544 138.6613561
 119.1670012  91.6224997 134.8579988 118.7420012  92.4314997 134.5759988
 120.0710012  91.7074997 134.5559988 119.2309975  91.7449300 134.7784816
 123.4780012  93.0214997 137.8179988 123.6630012  92.6874997 138.6959988
 124.3240012  93.3304997 137.4959988 123.6177539  93.0176047 137.8945605
 125.8230012  94.3074997 137.0619988 126.5000012  93.6744997 136.8219988
 126.1450012  94.7084997 137.8689988 125.9591637  94.2751154 137.1382793
 130.7400012  76.8964997 136.1409988 129.9280012  77.2214997 135.7539988
 130.9730012  76.1364997 135.6079988 130.6602203  76.8382758 136.0158880
 116.5690012  94.8784997 134.9059988 115.8480012  95.3184997 134.4549988
 116.2030012  94.6274997 135.7539988 116.4209651  94.9047242 134.9589640
 119.0360012  94.4784997 133.9359988 118.1710012  94.5504997 134.3399988
 118.9810012  95.0254997 133.1519988 118.9102085  94.5622685 133.8853362
 123.7460012  94.3664997 133.1109988 123.2900012  94.8954997 132.4569988
 123.9090012  94.9694997 133.8359988 123.7056068  94.5204607 133.1194838
 126.0740012  93.2444997 134.0559988 125.1690012  93.4094997 133.7899988
 126.5030012  94.0974997 133.9909988 126.0081324  93.3824339 134.0107976
 128.6780012  94.8144997 134.3509988 128.4960012  95.7304997 134.1409988
 128.8550012  94.4044997 133.5049988 128.6770210  94.8844822 134.2077885
 115.9830012  93.5014997 131.8159988 115.9650012  93.0764997 132.6729988
 116.7880012  93.1834997 131.4069988 116.0893529  93.4003013 131.8780946
 118.1250012  92.2114997 130.4709988 117.9060012  91.2954997 130.6409988
 118.9490012  92.3514997 130.9369988 118.2064420  92.1050520 130.5572774
 120.6620012  92.6814997 131.3199988 120.8750012  91.7934997 131.0329988
 120.7260012  92.6474997 132.2739988 120.6998232  92.5553102 131.4097397
 124.1700012  78.3454997 130.4639988 123.4960012  77.7164997 130.7199988
 124.7340012  77.8614997 129.8609988 124.1539230  78.1938744 130.4175340
 129.3130012  76.4534997 130.5769988 129.9170012  77.0004997 130.0749988
 128.4430012  76.7724997 130.3359988 129.2781208  76.5715137 130.4756886
 131.0400012  77.5914997 128.9099988 131.6520012  77.0774997 128.3829988
 131.4220012  78.4694997 128.9329988 131.1753371  77.6397866 128.8410041
 116.4970012  76.9794997 128.2859988 115.7200012  76.7454997 127.7789988
 117.0270012  76.1824997 128.2949988 116.4622330  76.8396988 128.2177742
 115.3330012  76.7774997 124.0899988 115.7720012  77.3884997 123.4979988
 114.7000012  77.3154997 124.5639988 115.3074514  76.9339257 124.0730930
 121.0760012  76.9064997 128.0999988 121.9510012  77.2944997 128.0699988
 120.9400012  76.6914997 129.0219988 121.1773695  76.9305184 128.2206440
 126.6330012  76.9364997 129.7489988 126.7090012  77.0314997 128.7989988
 126.3580012  76.0284997 129.8779988 126.6062321  76.8267867 129.6365079
 127.9860012  76.9624997 125.4409988 127.2840012  77.5774997 125.2309988
 127.5420012  76.1244997 125.5719988 127.8296450  76.9335639 125.4299000
 115.2340012  92.7254997 124.9869988 114.5490012  92.6874997 124.3199988
 115.2380012  93.6384997 125.2759988 115.1406998  92.8436733 124.9346771
 117.1940012  78.6934997 122.5319988 117.6860012  78.0634997 122.0049988
 117.8180012  78.9894997 123.1949988 117.3455688  78.6473804 122.5495482
 122.2200012  78.9864997 124.9889988 122.3980012  78.3404997 125.6719988
 122.1670012  79.8204997 125.4559988 122.2371999  79.0108009 125.1455917
 124.0990012  93.9354997 123.3849988 124.9650012  94.3014997 123.2069988
 123.8520012  93.4954997 122.5709988 124.1842392  93.9261756 123.2506289
 130.8080012  93.4984997 126.0639988 130.6130012  92.7504997 125.4989988
 130.7690012  94.2564997 125.4809988 130.7760380  93.4986099 125.9078384
 116.4550012  77.4934997 137.8039988 116.0890012  76.7284997 138.2459988
 117.3680012  77.5224997 138.0899988 116.5282736  77.3925640 137.9032502
 118.4280012  76.8444997 139.3399988 119.3260012  76.5704997 139.1549988
 118.0410012  76.1014997 139.8039988 118.4986612  76.7065914 139.3773643
 117.0520012  93.6454997 122.0129988 116.7850012  93.9324997 122.8859988
 117.8240012  93.0994997 122.1649988 117.1197488  93.6110294 122.1531050
 126.8490012  76.1764997 139.5219988 126.9260012  75.7504997 140.3759988
 127.7430012  76.1904997 139.1789988 126.9803428  76.1200879 139.5925310
 130.0250012  92.2494997 138.2139988 129.2430012  92.0634997 137.6939988
 129.9530012  93.1784997 138.4319988 129.9082274  92.3496643 138.1723018
 144.4310012  86.1354997 128.2449988 144.5200012  87.0794997 128.1129988
 143.7930012  85.8604997 127.5869988 144.3569081  86.2274830 128.1379614
 143.3640012  85.3904997 131.6639988 143.3260012  84.7444997 132.3689988
 143.0420012  84.9244997 130.8929988 143.3152333  85.2389408 131.6562978
 135.7330012  85.0054997 133.2569988 135.7740012  84.3794997 133.9799988
 136.4360012  85.6294997 133.4389988 135.8336363  85.0041196 133.3806044
 136.6560012  89.4554997 131.7919988 136.2870012  88.6534997 131.4219988
 137.5970012  89.2864997 131.8379988 136.7327289  89.3230153 131.7476316
 133.2660012  83.1154997 127.1849988 132.8190012  83.9614997 127.1659988
 132.7050012  82.5354997 126.6689988 133.1289900  83.1529916 127.1126801
 133.9770012  85.2774997 129.3099988 134.1900012  84.5074997 129.8379988
 134.7150012  85.3664997 128.7069988 134.1059044  85.1841968 129.3007123
 144.1820012  93.4344997 130.1769988 144.8020012  92.7574997 129.9039988
 143.9740012  93.2164997 131.0859988 144.2386726  93.3124800 130.2624812
 141.7540012  87.8234997 132.0699988 142.0580012  87.1374997 131.4749988
 142.4750012  87.9414997 132.6879988 141.8930671  87.7456305 132.0721816
 144.8950012  82.2174997 132.3969988 145.0370012  81.2714997 132.4179988
 144.7880012  82.4244997 131.4689988 144.8999919  82.1158246 132.2743408
 138.0490012  80.3184997 129.6699988 138.0930012  81.1784997 129.2509988
 137.5920012  79.7664997 129.0359988 137.9932240  80.3614422 129.5269864
 134.6700012  82.7154997 130.4319988 135.3230012  82.1654997 130.8639988
 134.6940012  82.4414997 129.5149988 134.7626683  82.6031466 130.3672123
 139.8260012  84.2654997 129.6469988 140.4420012  83.7394997 130.1569988
 139.2400012  83.6254997 129.2439988 139.8310810  84.1069208 129.6623173
 136.8600012  79.2364997 133.7439988 136.6410012  79.7664997 132.9779988
 136.1920012  79.4634997 134.3909988 136.7397600  79.3396906 133.7266379
 144.2290012  88.7364997 127.2879988 143.9330012  88.4144997 126.4369988
 143.9040012  89.6364997 127.3289988 144.1446371  88.8140215 127.1771801
 139.4290012  86.9124997 134.0309988 138.6890012  87.5104997 134.1349988
 140.1430012  87.4664997 133.7159988 139.4242237  87.0692831 134.0026465
 136.4530012  81.1284997 131.6959988 137.0670012  81.7614997 132.0689988
 136.9650012  80.6564997 131.0399988 136.6061981  81.1512267 131.6582908
 137.8360012  88.8764997 134.8179988 137.8310012  89.7564997 134.4399988
 136.9830012  88.7934997 135.2429988 137.7199464  88.9856117 134.8237907
 133.9570012  88.5474997 125.5999988 133.6850012  88.7764997 124.7119988
 134.0030012  89.3854997 126.0609988 133.9259482  88.6921318 125.5406273
 140.8860012  76.5424997 131.1959988 140.7690012  75.5934997 131.1419988
 140.0310012  76.8744997 131.4699988 140.7544212  76.4575571 131.2256497
 143.1530012  85.3794997 125.6969988 142.4410012  85.9144997 125.3449988
 143.8440012  85.4354997 125.0369988 143.1490132  85.4602543 125.5596289
 143.2060012  83.8374997 122.7359988 143.9070012  83.8594997 123.3869988
 143.5090012  83.2094997 122.0789988 143.3428133  83.7557070 122.7363369
 138.2040012  86.2194997 128.5309988 137.8730012  85.8494997 127.7129988
 138.7920012  85.5494997 128.8779988 138.2381873  86.0781156 128.4658102
 139.5700012  89.6474997 131.2119988 139.4760012  89.0694997 130.4559988
 140.3000012  89.2764997 131.7089988 139.6557387  89.5181663 131.1755342
 138.5700012  84.9884997 132.1649988 139.1360012  85.1094997 131.4019988
 138.8890012  85.6254997 132.8029988 138.6905474  85.0912219 132.1469862
 144.8790012  90.4914997 132.8989988 144.6390012  91.1534997 133.5469988
 144.6810012  89.6574997 133.3239988 144.8193808  90.4693134 133.0451524
 139.4500012  89.3874997 136.8819988 139.1390012  90.1694997 137.3369988
 138.8000012  89.2344997 136.1959988 139.3195558  89.4739105 136.8515871
 136.3700012  85.5854997 136.1099988 136.4410012  86.2364997 136.8089988
 135.4800012  85.6884997 135.7749988 136.2593005  85.6885427 136.1603495
 143.1560012  91.4884997 127.7689988 143.6300012  91.7834997 128.5459988
 142.5930012  92.2264997 127.5359988 143.1448184  91.6287247 127.8439628
 137.6900012  91.4594997 137.6449988 137.6970012  91.3234997 136.6979988
 136.7740012  91.3414997 137.8969988 137.5671714  91.4249430 137.5494666
 137.1940012  85.2894997 126.1199988 136.9020012  86.0574997 125.6299988
 136.5200012  84.6294997 125.9579988 137.0628111  85.3055587 126.0308978
 133.2870012  87.6524997 134.9349988 132.7860012  87.6244997 134.1199988
 133.2920012  86.7464997 135.2449988 133.2190944  87.5262396 134.8653226
 133.0370012  90.4324997 131.8189988 133.9830012  90.2884997 131.7999988
 132.9250012  91.2164997 132.3559988 133.1512727  90.5188046 131.8890072
 142.2140012  90.6724997 136.3779988 142.3010012  91.4984997 136.8529988
 141.3500012  90.3424997 136.6269988 142.1091964  90.7409878 136.4766549
 142.6280012  94.4444997 126.1839988 142.5530012  94.3234997 125.2369988
 142.6610012  95.3944997 126.3019988 142.6222068  94.5562646 126.0704967
 136.2810012  93.2334997 127.9649988 136.4340012  92.8854997 128.8429988
 135.4310012  92.8774997 127.7099988 136.1869166  93.1376216 128.0508079
 135.5360012  88.9754997 135.9789988 135.7520012  88.6144997 136.8379988
 134.6810012  88.6014997 135.7689988 135.4499292  88.8754111 136.0683386
 138.1550012  77.4454997 131.9739988 137.2930012  77.3584997 131.5659988
 138.1320012  78.3014997 132.4019988 138.0340409  77.5492883 131.9760589
 142.8180012  77.1674997 135.3489988 143.2380012  76.7524997 136.1019988
 141.8850012  76.9894997 135.4659988 142.7493644  77.0865900 135.4679539
 142.4790012  79.6604997 122.6339988 142.2260012  79.6794997 123.5569988
 142.2230012  78.7884997 122.3319988 142.4097481  79.5452558 122.7196175
 138.2460012  82.4114997 133.0689988 137.6040012  82.3704997 133.7779988
 138.2830012  83.3374997 132.8309988 138.1630664  82.5311430 133.1339219
 138.2430012  82.6324997 127.9809988 137.3500012  82.2914997 127.9219988
 138.6930012  82.2554997 127.2249988 138.1818130  82.5349631 127.8707702
 143.7780012  83.0484997 126.7979988 143.3690012  83.8634997 126.5069988
 144.4990012  82.9084997 126.1839988 143.8194537  83.1412018 126.6751342
 142.8800012  83.2234997 138.2859988 142.3180012  82.5194997 138.6069988
 143.7070012  83.1034997 138.7539988 142.9147095  83.1107883 138.3932330
 144.7830012  82.4944997 129.6119988 144.5880012  83.0994997 128.8969988
 144.9640012  81.6604997 129.1779988 144.7807614  82.4646300 129.4554405
 135.9960012  82.7314997 134.9359988 135.9580012  83.1314997 135.8049988
 135.5050012  81.9144997 135.0269988 135.9244684  82.6758069 135.0671059
 139.3620012  80.1054997 121.7349988 138.9310012  79.6604997 122.4649988
 138.6440012  80.4774997 121.2229988 139.2059438  80.0948940 121.7656799
 132.6040012  79.8474997 128.7869988 133.2350012  79.8184997 129.5059988
 133.0530012  79.4224997 128.0559988 132.7510918  79.7860836 128.7866441
 133.8780012  80.5934997 124.2109988 134.3520012  81.1844997 123.6259988
 133.1610012  81.1244997 124.5579988 133.8459341  80.7460867 124.1778836
 144.0470012  84.1324997 134.2829988 144.3700012  83.5014997 133.6399988
 143.6070012  83.5974997 134.9439988 144.0317484  83.9738387 134.2843198
 140.8240012  80.0594997 129.0669988 139.9130012  80.1164997 129.3559988
 141.3300012  79.9994997 129.8779988 140.7676899  80.0591941 129.2161184
 135.6530012  81.6884997 127.8939988 134.7630012  81.7884997 127.5539988
 135.9490012  80.8464997 127.5479988 135.5712823  81.5883546 127.8007213
 139.3060012  81.6884997 125.5509988 140.2370012  81.8174997 125.7289988
 139.0910012  82.3584997 124.9009988 139.4044247  81.7966565 125.4875747
 137.9800012  82.8834997 123.1169988 137.4370012  82.5034997 122.4259988
 138.8130012  83.0774997 122.6889988 138.0183631  82.8577125 122.9644501
 136.1150012  87.4404997 138.2159988 136.8470012  87.6944997 138.7779988
 135.3350012  87.6444997 138.7319988 136.1097073  87.5028160 138.3626151
 142.1440012  82.8474997 130.9539988 142.7090012  82.3004997 130.4069988
 141.9970012  82.3254997 131.7429988 142.2013380  82.7022259 130.9858695
 137.1460012  78.9834997 127.3729988 136.8290012  78.0814997 127.3369988
 137.9280012  78.9854997 126.8199988 137.2082408  78.8602474 127.2933569
 140.7710012  81.2354997 133.3679988 139.9350012  81.6894997 133.4789988
 141.2950012  81.5114997 134.1199988 140.7275416  81.3348660 133.4848119
 141.3150012  87.4484997 125.0529988 140.5700012  86.9414997 124.7309988
 141.1810012  87.4974997 125.9999988 141.1948776  87.3856940 125.1368647
 142.8340012  87.6324997 136.2899988 142.4890012  87.2514997 137.0969988
 142.6340012  88.5664997 136.3609988 142.7597527  87.7065135 136.4100689
 136.4400012  86.7434997 130.8229988 137.1850012  86.7414997 130.2219988
 136.5180012  85.9204997 131.3039988 136.5524995  86.6318887 130.8058282
 143.4410012  88.9074997 124.0789988 143.1450012  89.7334997 124.4599988
 142.7380012  88.2874997 124.2749988 143.3054914  88.9368199 124.1576443
 133.4480012  85.2044997 136.1379988 133.6710012  84.7864997 136.9699988
 132.8460012  84.5914997 135.7149988 133.3971759  85.0644668 136.1947022
 140.4640012  84.7214997 138.3509988 140.1680012  84.5554997 137.4559988
 141.3960012  84.5014997 138.3399988 140.5494166  84.6690640 138.2270536
 138.8150012  90.2614997 128.2269988 139.3420012  91.0344997 128.0269988
 137.9350012  90.4864997 127.9249988 138.7682031  90.3977545 128.1587912
 134.5700012  85.1234997 122.8139988 135.1860012  85.7504997 123.1939988
 133.7080012  85.4394997 123.0859988 134.5377698  85.2519430 122.9027183
 140.2420012  87.9244997 127.8029988 140.0010012  88.8494997 127.8449988
 139.5010012  87.4654997 128.1999988 140.1089225  87.9890933 127.8623742
 140.7570012  92.0734997 134.1189988 141.1190012  92.9284997 133.8849988
 141.2880012  91.7814997 134.8589988 140.8784473  92.1511060 134.1870855
 138.9250012  92.9464997 127.3489988 137.9750012  93.0514997 127.3999988
 139.2770012  93.7664997 127.6929988 138.8424195  93.0718800 127.4025502
 144.3010012  88.1724997 133.8189988 143.8750012  87.9454997 134.6459988
 144.8810012  87.4344997 133.6369988 144.3211868  88.0415299 133.9075830
 135.0820012  79.9574997 135.6959988 134.1890012  80.2964997 135.6279988
 134.9830012  79.1024997 136.1139988 134.9464164  79.8882588 135.7432235
 134.7330012  91.7624997 134.1309988 134.9500012  90.8304997 134.0999988
 134.9790012  92.0364997 135.0139988 134.7959549  91.6720636 134.2461763
 140.5950012  90.2134997 121.3399988 140.8340012  89.4654997 120.7929988
 140.3260012  89.8254997 122.1729988 140.5913675  90.0586638 121.3776865
 139.5320012  89.7834997 123.7959988 139.6780012  89.2634997 124.5859988
 139.5290012  90.6904997 124.1029988 139.5515792  89.8348842 123.9456117
 135.9850012  87.0364997 124.3069988 135.2990012  87.3884997 124.8739988
 136.5070012  87.7994997 124.0599988 135.9616852  87.1878578 124.3512118
 143.8160012  79.6984997 134.5859988 144.5150012  79.7724997 135.2359988
 143.4350012  78.8344997 134.7399988 143.8601767  79.5917624 134.6958322
 144.6010012  79.3504997 125.6829988 144.8210012  79.8224997 124.8799988
 145.1590012  79.7454997 126.3529988 144.7064968  79.4684285 125.6637331
 142.2690012  91.4814997 124.5459988 141.4530012  91.9784997 124.5979988
 142.7990012  91.9564997 123.9059988 142.2289161  91.6137722 124.4665956
 141.8010012  81.0784997 126.5179988 142.6130012  81.5834997 126.5639988
 141.5560012  80.9334997 127.4319988 141.8790520  81.1280375 126.6478517
 142.3360012  82.0644997 135.7019988 142.4550012  82.6384997 136.4599988
 142.9920012  81.3764997 135.8169988 142.4409025  82.0499858 135.8211321
 142.6840012  78.1594997 127.4559988 142.3380012  78.7774997 128.0999988
 143.3430012  78.6604997 126.9739988 142.7256968  78.3116278 127.4789383
 139.6080012  92.5254997 124.5269988 139.7680012  93.3244997 124.0269988
 139.4100012  92.8314997 125.4119988 139.6031637  92.6764020 124.5781144
 138.3420012  79.2224997 124.1429988 138.2590012  80.1114997 124.4899988
 139.2320012  78.9574997 124.3749988 138.4509469  79.3081430 124.2217626
 136.6010012  89.6504997 123.2039988 137.1930012  90.3494997 123.4799988
 137.0600012  89.2174997 122.4839988 136.7441142  89.6877049 123.1444830
 134.9170012  82.3144997 122.3199988 134.8720012  83.2534997 122.4979988
 134.0290012  82.0784997 122.0499988 134.7908574  82.4111892 122.3078912
 135.7250012  77.0964997 130.9929988 135.4960012  77.1554997 130.0649988
 135.2820012  76.3044997 131.2989988 135.6338530  76.9975753 130.9074786
 134.6550012  91.0364997 127.1529988 133.8230012  91.5094997 127.1799988
 135.2010012  91.5464997 126.5549988 134.6150352  91.1701332 127.0758463
 133.9430012  93.6494997 138.4829988 134.4840012  93.4324997 139.2429988
 133.4620012  92.8434997 138.2929988 133.9519951  93.5109270 138.5612576
 138.5410012  92.5684997 140.1029988 139.3080012  92.1094997 140.4439988
 138.5190012  92.3424997 139.1739988 138.6431275  92.4750186 140.0240101
 142.6330012  92.0764997 121.4789988 141.9890012  91.4454997 121.7999988
 143.3950012  91.5454997 121.2469988 142.6478077  91.9182920 121.4916011
 133.8500012  87.4594997 139.4369988 133.9940012  86.5574997 139.1509988
 133.0780012  87.7454997 138.9499988 133.7652753  87.3746816 139.3319505
 138.1920012  87.8034997 121.5699988 138.2560012  87.0094997 122.1009988
 138.8450012  87.6844997 120.8799988 138.2890241  87.6787148 121.5494317
 140.5060012  87.4294997 138.8699988 140.1770012  87.7004997 138.0129988
 140.6580012  86.4884997 138.7829988 140.4814809  87.3393862 138.7408244
 143.5440012  88.8504997 121.3059988 143.2750012  89.0304997 122.2069988
 143.3380012  87.9244997 121.1739988 143.4793427  88.7500261 121.4115073
 134.6830012  84.6594997 138.8569988 135.0910012  83.8024997 138.7359988
 134.4230012  84.6744997 139.7779988 134.7037568  84.5440807 138.9649588
 139.3410012  85.7754997 123.8759988 138.8810012  85.2914997 124.5619988
 139.5960012  85.1074997 123.2399988 139.3124902  85.6188731 123.8839334
 138.6300012  83.6684997 136.2319988 138.0120012  84.3434997 136.5119988
 138.9740012  83.9894997 135.3979988 138.5919132  83.8042411 136.1576262
 140.4120012  84.0184997 122.1379988 140.2320012  83.8644997 121.2109988
 141.3620012  84.1264997 122.1829988 140.5157776  84.0120175 122.0171843
 143.6500012  86.1404997 139.5089988 144.6030012  86.2234997 139.4819988
 143.4890012  85.4284997 140.1289988 143.7586426  86.0556746 139.5890579
 138.9690012  81.0234997 137.3139988 139.1190012  80.2944997 136.7119988
 138.9720012  81.8004997 136.7549988 138.9899302  81.0287851 137.1560692
 139.3820012  79.3934997 134.8069988 139.9180012  79.8444997 134.1549988
 138.5300012  79.2854997 134.3839988 139.3402178  79.4406390 134.6605756
 140.9640012  84.8324997 135.0459988 141.7140012  84.6764997 134.4729988
 140.6250012  85.6844997 134.7709988 141.0208921  84.9262968 134.9303561
 137.4480012  82.2214997 139.2259988 136.6810012  81.6894997 139.0149988
 138.1270012  81.9114997 138.6259988 137.4347877  82.1068300 139.1160716
 140.1880012  76.8494997 135.2379988 140.0890012  77.7964997 135.1329988
 139.4450012  76.4774997 134.7619988 140.0741184  76.9285863 135.1593621
 141.4520012  81.1714997 138.8019988 141.2160012  80.9514997 139.7029988
 140.6680012  80.9644997 138.2919988 141.3138504  81.1134586 138.8563431
 144.1670012  80.2984997 137.8769988 143.2200012  80.3304997 138.0099988
 144.4800012  79.6734997 138.5309988 144.0796707  80.2183998 137.9836060
 135.6280012  80.1424997 138.9299988 135.8400012  79.4354997 138.3199988
 135.5170012  79.7044997 139.7739988 135.6419721  79.9867084 138.9606843
 140.4090012  76.1434997 137.9089988 141.1210012  75.5034997 137.8949988
 140.3080012  76.4104997 136.9959988 140.4928066  76.0920079 137.7835677
 140.7630012  77.8264997 139.9629988 140.6310012  77.3504997 139.1429988
 140.1640012  78.5704997 139.9079988 140.6639071  77.8619618 139.8432886
 140.3090012  94.7094997 123.1389988 141.2420012  94.8674997 123.2829988
 140.0450012  95.3844997 122.5149988 140.4009888  94.8224510 123.0742842
 133.8780012  89.3454997 122.6219988 134.7920012  89.4244997 122.8959988
 133.8850012  88.6584997 121.9559988 134.0041131  89.2633961 122.5694393
 132.5270012  94.7384997 127.6999988 131.8800012  94.2764997 127.1669988
 132.8810012  94.0664997 128.2819988 132.4863849  94.5844723 127.7057959
 133.3970012  92.8194997 129.5039988 133.0620012  91.9394997 129.6759988
 133.6190012  93.1644997 130.3689988 133.3811783  92.7457500 129.6444208
 133.4770012  85.8944997 131.9559988 133.6610012  85.8124997 131.0199988
 134.3260012  85.7704997 132.3789988 133.6170151  85.8665073 131.8851451
 133.0740012  81.1654997 138.0969988 133.9940012  81.0434997 138.3329988
 132.6250012  80.4154997 138.4859988 133.1391580  81.0473727 138.1819006
 134.2950012  79.4774997 130.9879988 134.7410012  78.6854997 131.2899988
 134.7620012  80.1934997 131.4179988 134.4190831  79.4660685 131.0874006
 132.5990012  82.4764997 132.0569988 133.0910012  82.2554997 131.2659988
 132.9620012  83.3174997 132.3379988 132.7153126  82.5598357 131.9867531
 132.9130012  78.7344997 126.1109988 131.9880012  78.9434997 125.9819988
 133.3670012  79.2184997 125.4209988 132.8477292  78.8285343 126.0000720
 132.8770012  77.4724997 134.4549988 132.2120012  77.2264997 135.0989988
 132.4340012  78.0944997 133.8779988 132.7261318  77.5229410 134.4650898
 135.0690012  90.6474997 138.5999988 134.2480012  90.8224997 138.1389988
 134.8160012  90.5744997 139.5199988 134.9225585  90.6615544 138.6613561
 138.0230012  91.6224997 134.8579988 137.5980012  92.4314997 134.5759988
 138.9270012  91.7074997 134.5559988 138.0869975  91.7449300 134.7784816
 142.3340012  93.0214997 137.8179988 142.5190012  92.6874997 138.6959988
 143.1800012  93.3304997 137.4959988 142.4737539  93.0176047 137.8945605
 144.6790012  94.3074997 137.0619988 145.3560012  93.6744997 136.8219988
 145.0010012  94.7084997 137.8689988 144.8151637  94.2751154 137.1382793
 135.4250012  94.8784997 134.9059988 134.7040012  95.3184997 134.4549988
 135.0590012  94.6274997 135.7539988 135.2769651  94.9047242 134.9589640
 137.8920012  94.4784997 133.9359988 137.0270012  94.5504997 134.3399988
 137.8370012  95.0254997 133.1519988 137.7662085  94.5622685 133.8853362
 142.6020012  94.3664997 133.1109988 142.1460012  94.8954997 132.4569988
 142.7650012  94.9694997 133.8359988 142.5616068  94.5204607 133.1194838
 134.8390012  93.5014997 131.8159988 134.8210012  93.0764997 132.6729988
 135.6440012  93.1834997 131.4069988 134.9453529  93.4003013 131.8780946
 136.9810012  92.2114997 130.4709988 136.7620012  91.2954997 130.6409988
 137.8050012  92.3514997 130.9369988 137.0624420  92.1050520 130.5572774
 139.5180012  92.6814997 131.3199988 139.7310012  91.7934997 131.0329988
 139.5820012  92.6474997 132.2739988 139.5558232  92.5553102 131.4097397
 143.0260012  78.3454997 130.4639988 142.3520012  77.7164997 130.7199988
 143.5900012  77.8614997 129.8609988 143.0099230  78.1938744 130.4175340
 135.3530012  76.9794997 128.2859988 134.5760012  76.7454997 127.7789988
 135.8830012  76.1824997 128.2949988 135.3182330  76.8396988 128.2177742
 134.1890012  76.7774997 124.0899988 134.6280012  77.3884997 123.4979988
 133.5560012  77.3154997 124.5639988 134.1634514  76.9339257 124.0730930
 139.9320012  76.9064997 128.0999988 140.8070012  77.2944997 128.0699988
 139.7960012  76.6914997 129.0219988 140.0333695  76.9305184 128.2206440
 134.0900012  92.7254997 124.9869988 133.4050012  92.6874997 124.3199988
 134.0940012  93.6384997 125.2759988 133.9966998  92.8436733 124.9346771
 136.0500012  78.6934997 122.5319988 136.5420012  78.0634997 122.0049988
 136.6740012  78.9894997 123.1949988 136.2015688  78.6473804 122.5495482
 141.0760012  78.9864997 124.9889988 141.2540012  78.3404997 125.6719988
 141.0230012  79.8204997 125.4559988 141.0931999  79.0108009 125.1455917
 142.9550012  93.9354997 123.3849988 143.8210012  94.3014997 123.2069988
 142.7080012  93.4954997 122.5709988 143.0402392  93.9261756 123.2506289
 135.3110012  77.4934997 137.8039988 134.9450012  76.7284997 138.2459988
 136.2240012  77.5224997 138.0899988 135.3842736  77.3925640 137.9032502
 137.2840012  76.8444997 139.3399988 138.1820012  76.5704997 139.1549988
 136.8970012  76.1014997 139.8039988 137.3546612  76.7065914 139.3773643
 135.9080012  93.6454997 122.0129988 135.6410012  93.9324997 122.8859988
 136.6800012  93.0994997 122.1649988 135.9757488  93.6110294 122.1531050
  12.4390012 104.9914997 128.2449988  12.5280012 105.9354997 128.1129988
  11.8010012 104.7164997 127.5869988  12.3649081 105.0834830 128.1379614
  11.3720012 104.2464997 131.6639988  11.3340012 103.6004997 132.3689988
  11.0500012 103.7804997 130.8929988  11.3232333 104.0949408 131.6562978
   3.7410012 103.8614997 133.2569988   3.7820012 103.2354997 133.9799988
   4.4440012 104.4854997 133.4389988   3.8416363 103.8601196 133.3806044
  15.0780012 107.1854997 129.9649988  14.6380012 106.4654997 130.4159988
  15.0650012 107.9064997 130.5949988  15.0160226 107.1843731 130.1118494
   4.6640012 108.3114997 131.7919988   4.2950012 107.5094997 131.4219988
   5.6050012 108.1424997 131.8379988   4.7407289 108.1790153 131.7476316
   1.2740012 101.9714997 127.1849988   0.8270012 102.8174997 127.1659988
   0.7130012 101.3914997 126.6689988   1.1369900 102.0089916 127.1126801
   1.9850012 104.1334997 129.3099988   2.1980012 103.3634997 129.8379988
   2.7230012 104.2224997 128.7069988   2.1139044 104.0401968 129.3007123
  12.1900012 112.2904997 130.1769988  12.8100012 111.6134997 129.9039988
  11.9820012 112.0724997 131.0859988  12.2466726 112.1684800 130.2624812
   9.7620012 106.6794997 132.0699988  10.0660012 105.9934997 131.4749988
  10.4830012 106.7974997 132.6879988   9.9010671 106.6016304 132.0721816
  18.4250012  98.2804997 132.9309988  18.4740012  98.8904997 133.6659988
  18.8500012  98.7414997 132.2079988  18.4891746  98.4263796 132.9339175
  12.9030012 101.0734997 132.3969988  13.0450012 100.1274997 132.4179988
  12.7960012 101.2804997 131.4689988  12.9079919 100.9718246 132.2743408
   6.0570012  99.1744997 129.6699988   6.1010012 100.0344997 129.2509988
   5.6000012  98.6224997 129.0359988   6.0012240  99.2174422 129.5269864
  13.7800012  99.3054997 128.0709988  14.4260012  98.9764997 128.6949988
  14.2900012  99.8234997 127.4479988  13.9374299  99.3304450 128.0722731
   2.6780012 101.5714997 130.4319988   3.3310012 101.0214997 130.8639988
   2.7020012 101.2974997 129.5149988   2.7706683 101.4591466 130.3672123
   7.8340012 103.1214997 129.6469988   8.4500012 102.5954997 130.1569988
   7.2480012 102.4814997 129.2439988   7.8390810 102.9629208 129.6623173
  18.8160012  99.7584997 135.1659988  18.1280012 100.4164997 135.0709988
  18.8320012  99.5614997 136.1029988  18.7239540  99.8219819 135.2795990
   4.8680012  98.0924997 133.7439988   4.6490012  98.6224997 132.9779988
   4.2000012  98.3194997 134.3909988   4.7477600  98.1956906 133.7266379
  12.2370012 107.5924997 127.2879988  11.9410012 107.2704997 126.4369988
  11.9120012 108.4924997 127.3289988  12.1526371 107.6700215 127.1771801
   7.4370012 105.7684997 134.0309988   6.6970012 106.3664997 134.1349988
   8.1510012 106.3224997 133.7159988   7.4322237 105.9252831 134.0026465
  15.5440012  98.5964997 130.0509988  15.3280012  97.8304997 130.5839988
  16.1990012  99.0684997 130.5639988  15.6030632  98.5555889 130.1932861
   4.4610012  99.9844997 131.6959988   5.0750012 100.6174997 132.0689988
   4.9730012  99.5124997 131.0399988   4.6141981 100.0072267 131.6582908
   5.8440012 107.7324997 134.8179988   5.8390012 108.6124997 134.4399988
   4.9910012 107.6494997 135.2429988   5.7279464 107.8416117 134.8237907
   1.9650012 107.4034997 125.5999988   1.6930012 107.6324997 124.7119988
   2.0110012 108.2414997 126.0609988   1.9339482 107.5481318 125.5406273
  15.5900012 109.0254997 132.3129988  14.6490012 109.0834997 132.4749988
  15.8670012 109.9314997 132.1759988  15.4984679 109.1559443 132.3166815
  15.8910012  97.3114997 133.7309988  15.1550012  97.9224997 133.6929988
  16.5740012  97.7264997 133.2039988  15.8826541  97.4511374 133.6545832
   8.8940012  95.3984997 131.1959988   8.7770012  94.4494997 131.1419988
   8.0390012  95.7304997 131.4699988   8.7624212  95.3135571 131.2256497
  13.8420012 110.8064997 128.9379988  14.2680012 110.0994997 128.4529988
  14.1590012 111.6074997 128.5219988  13.9431683 110.8181017 128.8153680
  15.0020012 108.7074997 127.4469988  14.7440012 108.0174997 126.8359988
  15.0730012 108.2644997 128.2929988  14.9762856 108.5532124 127.4776885
  16.6880012 107.2734997 135.9239988  16.8280012 106.6824997 135.1849988
  16.8550012 108.1464997 135.5679988  16.7297411 107.3105428 135.7746894
  11.1610012 104.2354997 125.6969988  10.4490012 104.7704997 125.3449988
  11.8520012 104.2914997 125.0369988  11.1570132 104.3162543 125.5596289
  11.2140012 102.6934997 122.7359988  11.9150012 102.7154997 123.3869988
  11.5170012 102.0654997 122.0789988  11.3508133 102.6117070 122.7363369
  18.5300012 103.6134997 133.9899988  17.8770012 104.3084997 134.0799988
  18.9950012 103.8234997 133.1809988  18.5035274 103.7370643 133.8928462
  14.5660012 104.4454997 126.6489988  13.8340012 104.6734997 127.2219988
  15.0140012 103.7314997 127.1029988  14.5262725 104.3802145 126.7888816
  14.4640012 102.6194997 135.7159988  14.5440012 103.3824997 136.2879988
  13.8620012 102.8984997 135.0259988  14.3935756 102.7617134 135.7010589
   6.2120012 105.0754997 128.5309988   5.8810012 104.7054997 127.7129988
   6.8000012 104.4054997 128.8779988   6.2461873 104.9341156 128.4658102
   7.5780012 108.5034997 131.2119988   7.4840012 107.9254997 130.4559988
   8.3080012 108.1324997 131.7089988   7.6637387 108.3741663 131.1755342
   6.5780012 103.8444997 132.1649988   7.1440012 103.9654997 131.4019988
   6.8970012 104.4814997 132.8029988   6.6985474 103.9472219 132.1469862
  12.8870012 109.3474997 132.8989988  12.6470012 110.0094997 133.5469988
  12.6890012 108.5134997 133.3239988  12.8273808 109.3253134 133.0451524
   7.4580012 108.2434997 136.8819988   7.1470012 109.0254997 137.3369988
   6.8080012 108.0904997 136.1959988   7.3275558 108.3299105 136.8515871
  13.4370012 103.6074997 124.3339988  14.0170012 103.7574997 125.0809988
  13.8510012 104.0784997 123.6099988  13.5722997 103.6916578 124.3384058
   4.3780012 104.4414997 136.1099988   4.4490012 105.0924997 136.8089988
   3.4880012 104.5444997 135.7749988   4.2673005 104.5445427 136.1603495
  11.1640012 110.3444997 127.7689988  11.6380012 110.6394997 128.5459988
  10.6010012 111.0824997 127.5359988  11.1528184 110.4847247 127.8439628
   5.6980012 110.3154997 137.6449988   5.7050012 110.1794997 136.6979988
   4.7820012 110.1974997 137.8969988   5.5751714 110.2809430 137.5494666
  17.1360012  95.3574997 124.1469988  16.2360012  95.4964997 124.4419988
  17.3880012  96.1884997 123.7449988  17.0468702  95.4889074 124.1330205
   5.2020012 104.1454997 126.1199988   4.9100012 104.9134997 125.6299988
   4.5280012 103.4854997 125.9579988   5.0708111 104.1615587 126.0308978
  18.3250012 109.7234997 122.5229988  18.3990012 110.6624997 122.6939988
  19.2310012 109.4184997 122.4669988  18.4575100 109.8106722 122.5388119
   1.2950012 106.5084997 134.9349988   0.7940012 106.4804997 134.1199988
   1.3000012 105.6024997 135.2449988   1.2270944 106.3822396 134.8653226
   1.0450012 109.2884997 131.8189988   1.9910012 109.1444997 131.7999988
   0.9330012 110.0724997 132.3559988   1.1592727 109.3748046 131.8890072
  19.2430012 109.9544997 137.5019988  19.1940012 108.9994997 137.4649988
  18.4160012 110.2224997 137.9029988  19.1244940 109.8598998 137.5511375
  10.2220012 109.5284997 136.3779988  10.3090012 110.3544997 136.8529988
   9.3580012 109.1984997 136.6269988  10.1171964 109.5969878 136.4766549
  10.6360012 113.3004997 126.1839988  10.5610012 113.1794997 125.2369988
  10.6690012 114.2504997 126.3019988  10.6302068 113.4122646 126.0704967
   4.2890012 112.0894997 127.9649988   4.4420012 111.7414997 128.8429988
   3.4390012 111.7334997 127.7099988   4.1949166 111.9936216 128.0508079
  13.7380012 112.4544997 123.1859988  14.1130012 111.7104997 122.7149988
  13.7420012 112.1844997 124.1049988  13.7899125 112.3160986 123.2456483
  13.4070012 112.3804997 125.9349988  12.4710012 112.4804997 126.1139988
  13.6870012 111.6714997 126.5139988  13.3169553 112.2983406 126.0377087
  16.3950012 101.4474997 137.9819988  15.9880012 101.9284997 137.2609988
  16.4360012 100.5424997 137.6739988  16.3448437 101.3909374 137.8416683
   3.5440012 107.8314997 135.9789988   3.7600012 107.4704997 136.8379988
   2.6890012 107.4574997 135.7689988   3.4579292 107.7314111 136.0683386
   6.1630012  96.3014997 131.9739988   5.3010012  96.2144997 131.5659988
   6.1400012  97.1574997 132.4019988   6.0420409  96.4052883 131.9760589
  10.8260012  96.0234997 135.3489988  11.2460012  95.6084997 136.1019988
   9.8930012  95.8454997 135.4659988  10.7573644  95.9425900 135.4679539
  14.1520012  99.7794997 136.2019988  13.6380012  99.6534997 136.9999988
  13.9970012 100.6914997 135.9579988  14.0606852  99.8856132 136.2782158
  14.9150012 104.6404997 121.9639988  14.9570012 104.4174997 121.0339988
  15.7640012 105.0394997 122.1529988  15.0355280 104.6639438 121.8623554
  10.4870012  98.5164997 122.6339988  10.2340012  98.5354997 123.5569988
  10.2310012  97.6444997 122.3319988  10.4177481  98.4012558 122.7196175
   6.2540012 101.2674997 133.0689988   5.6120012 101.2264997 133.7779988
   6.2910012 102.1934997 132.8309988   6.1710664 101.3871430 133.1339219
   6.2510012 101.4884997 127.9809988   5.3580012 101.1474997 127.9219988
   6.7010012 101.1114997 127.2249988   6.1898130 101.3909631 127.8707702
  11.7860012 101.9044997 126.7979988  11.3770012 102.7194997 126.5069988
  12.5070012 101.7644997 126.1839988  11.8274537 101.9972018 126.6751342
  10.8880012 102.0794997 138.2859988  10.3260012 101.3754997 138.6069988
  11.7150012 101.9594997 138.7539988  10.9227095 101.9667883 138.3932330
  12.7910012 101.3504997 129.6119988  12.5960012 101.9554997 128.8969988
  12.9720012 100.5164997 129.1779988  12.7887614 101.3206300 129.4554405
   4.0040012 101.5874997 134.9359988   3.9660012 101.9874997 135.8049988
   3.5130012 100.7704997 135.0269988   3.9324684 101.5318069 135.0671059
   7.3700012  98.9614997 121.7349988   6.9390012  98.5164997 122.4649988
   6.6520012  99.3334997 121.2229988   7.2139438  98.9508940 121.7656799
   0.6120012  98.7034997 128.7869988   1.2430012  98.6744997 129.5059988
   1.0610012  98.2784997 128.0559988   0.7590918  98.6420836 128.7866441
   1.8860012  99.4494997 124.2109988   2.3600012 100.0404997 123.6259988
   1.1690012  99.9804997 124.5579988   1.8539341  99.6020867 124.1778836
  12.0550012 102.9884997 134.2829988  12.3780012 102.3574997 133.6399988
  11.6150012 102.4534997 134.9439988  12.0397484 102.8298387 134.2843198
   8.8320012  98.9154997 129.0669988   7.9210012  98.9724997 129.3559988
   9.3380012  98.8554997 129.8779988   8.7756899  98.9151941 129.2161184
   3.6610012 100.5444997 127.8939988   2.7710012 100.6444997 127.5539988
   3.9570012  99.7024997 127.5479988   3.5792823 100.4443545 127.8007213
   7.3140012 100.5444997 125.5509988   8.2450012 100.6734997 125.7289988
   7.0990012 101.2144997 124.9009988   7.4124247 100.6526565 125.4875747
  13.2370012  98.1504997 132.3319988  12.5610012  98.2814997 132.9959988
  12.7520012  97.9954997 131.5209988  13.0787146  98.1475157 132.3134469
   5.9880012 101.7394997 123.1169988   5.4450012 101.3594997 122.4259988
   6.8210012 101.9334997 122.6889988   6.0263631 101.7137125 122.9644501
  16.5250012 113.8224997 138.6079988  16.7250012 114.2464997 137.7739988
  17.1800012 114.1654997 139.2149988  16.6410072 113.9269857 138.5758592
   4.1230012 106.2964997 138.2159988   4.8550012 106.5504997 138.7779988
   3.3430012 106.5004997 138.7319988   4.1177073 106.3588160 138.3626151
  10.1520012 101.7034997 130.9539988  10.7170012 101.1564997 130.4069988
  10.0050012 101.1814997 131.7429988  10.2093380 101.5582259 130.9858695
   5.1540012  97.8394997 127.3729988   4.8370012  96.9374997 127.3369988
   5.9360012  97.8414997 126.8199988   5.2162408  97.7162474 127.2933569
   8.7790012 100.0914997 133.3679988   7.9430012 100.5454997 133.4789988
   9.3030012 100.3674997 134.1199988   8.7355416 100.1908660 133.4848119
   9.3230012 106.3044997 125.0529988   8.5780012 105.7974997 124.7309988
   9.1890012 106.3534997 125.9999988   9.2028776 106.2416940 125.1368647
  16.4730012 105.4374997 133.8399988  17.1150012 105.8944997 133.2959988
  15.6430012 105.5504997 133.3769988  16.4485963 105.5152704 133.7030177
  13.2210012  99.1184997 123.2519988  12.2820012  99.2304997 123.1009988
  13.5180012  99.9754997 123.5589988  13.1327583  99.2495981 123.2728337
  10.8420012 106.4884997 136.2899988  10.4970012 106.1074997 137.0969988
  10.6420012 107.4224997 136.3609988  10.7677527 106.5625135 136.4100689
  13.9390012 100.9854997 124.9129988  14.8310012 100.8484997 125.2319988
  13.9960012 101.7764997 124.3759988  14.0686504 101.0736052 124.8840818
   4.4480012 105.5994997 130.8229988   5.1930012 105.5974997 130.2219988
   4.5260012 104.7764997 131.3039988   4.5604995 105.4878887 130.8058282
  11.4490012 107.7634997 124.0789988  11.1530012 108.5894997 124.4599988
  10.7460012 107.1434997 124.2749988  11.3134914 107.7928199 124.1576443
   1.4560012 104.0604997 136.1379988   1.6790012 103.6424997 136.9699988
   0.8540012 103.4474997 135.7149988   1.4051759 103.9204668 136.1947022
   8.4720012 103.5774997 138.3509988   8.1760012 103.4114997 137.4559988
   9.4040012 103.3574997 138.3399988   8.5574166 103.5250640 138.2270536
  13.0930012 108.9504997 136.2409988  12.1920012 109.1334997 135.9729988
  13.1270012 109.2094997 137.1609988  12.9743139 109.0105849 136.3288099
  18.8240012 101.1954997 124.6079988  18.2700012 100.7994997 123.9359988
  18.9240012 102.1054997 124.3299988  18.7617059 101.2643586 124.4784401
  18.7870012 106.9954997 137.4449988  17.9360012 107.2334997 137.0779988
  19.3780012 106.9784997 136.6919988  18.7502487 107.0258258 137.2928893
  17.1190012 109.9814997 125.0729988  16.7460012 109.1554997 125.3819988
  17.3970012 109.7984997 124.1749988  17.1055222 109.8437430 124.9939473
  14.2800012 104.7894997 132.0939988  13.3510012 104.5574997 132.0669988
  14.7310012 104.0124997 131.7639988  14.2139216 104.6527238 132.0456917
   6.8230012 109.1174997 128.2269988   7.3500012 109.8904997 128.0269988
   5.9430012 109.3424997 127.9249988   6.7762031 109.2537545 128.1587912
   2.5780012 103.9794997 122.8139988   3.1940012 104.6064997 123.1939988
   1.7160012 104.2954997 123.0859988   2.5457698 104.1079430 122.9027183
   8.2500012 106.7804997 127.8029988   8.0090012 107.7054997 127.8449988
   7.5090012 106.3214997 128.1999988   8.1169225 106.8450933 127.8623742
   8.7650012 110.9294997 134.1189988   9.1270012 111.7844997 133.8849988
   9.2960012 110.6374997 134.8589988   8.8864473 111.0071060 134.1870855
   6.9330012 111.8024997 127.3489988   5.9830012 111.9074997 127.3999988
   7.2850012 112.6224997 127.6929988   6.8504195 111.9278800 127.4025502
  12.3090012 107.0284997 133.8189988  11.8830012 106.8014997 134.6459988
  12.8890012 106.2904997 133.6369988  12.3291868 106.8975299 133.9075830
  14.5120012 107.9574997 122.8929988  14.8650012 107.5774997 123.6969988
  13.5630012 107.8644997 122.9799988  14.4320918 107.8928956 123.0148532
  14.9670012 111.5804997 136.2889988  14.3660012 111.0254997 135.7929988
  15.2490012 112.2474997 135.6619988  14.9228804 111.5946625 136.1364849
  19.0150012 112.4374997 123.0939988  19.7590012 113.0234997 122.9539988
  18.3210012 113.0054997 123.4269988  19.0229899 112.5945798 123.1198778
   3.0900012  98.8134997 135.6959988   2.1970012  99.1524997 135.6279988
   2.9910012  97.9584997 136.1139988   2.9544164  98.7442588 135.7432235
  15.3780012 106.6304997 125.1199988  15.1000012 105.9024997 125.6759988
  16.3050012 106.7494997 125.3249988  15.4653124 106.5468802 125.2238845
   2.7410012 110.6184997 134.1309988   2.9580012 109.6864997 134.0999988
   2.9870012 110.8924997 135.0139988   2.8039549 110.5280636 134.2461763
   8.6030012 109.0694997 121.3399988   8.8420012 108.3214997 120.7929988
   8.3340012 108.6814997 122.1729988   8.5993675 108.9146638 121.3776865
   7.5400012 108.6394997 123.7959988   7.6860012 108.1194997 124.5859988
   7.5370012 109.5464997 124.1029988   7.5595792 108.6908842 123.9456117
   3.9930012 105.8924997 124.3069988   3.3070012 106.2444997 124.8739988
   4.5150012 106.6554997 124.0599988   3.9696852 106.0438578 124.3512118
  11.8240012  98.5544997 134.5859988  12.5230012  98.6284997 135.2359988
  11.4430012  97.6904997 134.7399988  11.8681767  98.4477624 134.6958322
  12.6090012  98.2064997 125.6829988  12.8290012  98.6784997 124.8799988
  13.1670012  98.6014997 126.3529988  12.7144968  98.3244285 125.6637331
  10.2770012 110.3374997 124.5459988   9.4610012 110.8344997 124.5979988
  10.8070012 110.8124997 123.9059988  10.2369161 110.4697722 124.4665956
   9.8090012  99.9344997 126.5179988  10.6210012 100.4394997 126.5639988
   9.5640012  99.7894997 127.4319988   9.8870520  99.9840375 126.6478517
  10.3440012 100.9204997 135.7019988  10.4630012 101.4944997 136.4599988
  11.0000012 100.2324997 135.8169988  10.4489025 100.9059858 135.8211321
  10.6920012  97.0154997 127.4559988  10.3460012  97.6334997 128.0999988
  11.3510012  97.5164997 126.9739988  10.7336968  97.1676278 127.4789383
   7.6160012 111.3814997 124.5269988   7.7760012 112.1804997 124.0269988
   7.4180012 111.6874997 125.4119988   7.6111637 111.5324020 124.5781144
   6.3500012  98.0784997 124.1429988   6.2670012  98.9674997 124.4899988
   7.2400012  97.8134997 124.3749988   6.4589469  98.1641430 124.2217626
  16.5490012  98.8274997 136.5369988  15.6320012  99.0904997 136.4499988
  16.8840012  98.8244997 135.6409988  16.4688613  98.8630761 136.4038837
  15.1510012 102.5784997 130.6329988  14.3530012 102.1634997 130.3049988
  15.5960012 101.8874997 131.1239988  15.1019885 102.4283543 130.6544889
   4.6090012 108.5064997 123.2039988   5.2010012 109.2054997 123.4799988
   5.0680012 108.0734997 122.4839988   4.7521142 108.5437049 123.1444830
   2.9250012 101.1704997 122.3199988   2.8800012 102.1094997 122.4979988
   2.0370012 100.9344997 122.0499988   2.7988574 101.2671892 122.3078912
  16.2370012 111.8344997 132.2559988  16.0820012 112.5124997 131.5979988
  17.1700012 111.9064997 132.4589988  16.3418657 111.9369546 132.1934360
   3.7330012  95.9524997 130.9929988   3.5040012  96.0114997 130.0649988
   3.2900012  95.1604997 131.2989988   3.6418530  95.8535753 130.9074786
   2.6630012 109.8924997 127.1529988   1.8310012 110.3654997 127.1799988
   3.2090012 110.4024997 126.5549988   2.6230352 110.0261332 127.0758463
   1.9510012 112.5054997 138.4829988   2.4920012 112.2884997 139.2429988
   1.4700012 111.6994997 138.2929988   1.9599951 112.3669270 138.5612576
   6.5490012 111.4244997 140.1029988   7.3160012 110.9654997 140.4439988
   6.5270012 111.1984997 139.1739988   6.6511275 111.3310186 140.0240101
  10.6410012 110.9324997 121.4789988   9.9970012 110.3014997 121.7999988
  11.4030012 110.4014997 121.2469988  10.6558077 110.7742920 121.4916011
  13.1260012 109.8044997 138.8329988  12.7750012 108.9484997 139.0759988
  13.8520012 109.9474997 139.4399988  13.1760769 109.7065636 138.9483619
  15.2450012 110.7494997 121.7119988  15.5280012 109.9554997 122.1649988
  15.9850012 110.9824997 121.1519988  15.3838006 110.6723376 121.6982715
   1.8580012 106.3154997 139.4369988   2.0020012 105.4134997 139.1509988
   1.0860012 106.6014997 138.9499988   1.7732753 106.2306816 139.3319505
   6.2000012 106.6594997 121.5699988   6.2640012 105.8654997 122.1009988
   6.8530012 106.5404997 120.8799988   6.2970241 106.5347148 121.5494317
   8.5140012 106.2854997 138.8699988   8.1850012 106.5564997 138.0129988
   8.6660012 105.3444997 138.7829988   8.4894809 106.1953862 138.7408244
  11.5520012 107.7064997 121.3059988  11.2830012 107.8864997 122.2069988
  11.3460012 106.7804997 121.1739988  11.4873427 107.6060261 121.4115073
  14.2480012 106.2014997 136.2529988  14.9940012 106.7894997 136.1339988
  13.4910012 106.7834997 136.3169988  14.2477820 106.3607143 136.2453590
   2.6910012 103.5154997 138.8569988   3.0990012 102.6584997 138.7359988
   2.4310012 103.5304997 139.7779988   2.7117568 103.4000807 138.9649588
   7.3490012 104.6314997 123.8759988   6.8890012 104.1474997 124.5619988
   7.6040012 103.9634997 123.2399988   7.3204902 104.4748731 123.8839334
   6.6380012 102.5244997 136.2319988   6.0200012 103.1994997 136.5119988
   6.9820012 102.8454997 135.3979988   6.5999132 102.6602411 136.1576262
   8.4200012 102.8744997 122.1379988   8.2400012 102.7204997 121.2109988
   9.3700012 102.9824997 122.1829988   8.5237776 102.8680175 122.0171843
  11.6580012 104.9964997 139.5089988  12.6110012 105.0794997 139.4819988
  11.4970012 104.2844997 140.1289988  11.7666426 104.9116746 139.5890579
  17.8100012 105.2294997 121.5839988  17.5360012 104.8044997 120.7709988
  17.8490012 106.1604997 121.3669988  17.7777699 105.2972484 121.4433610
   6.9770012  99.8794997 137.3139988   7.1270012  99.1504997 136.7119988
   6.9800012 100.6564997 136.7549988   6.9979302  99.8847851 137.1560692
   7.3900012  98.2494997 134.8069988   7.9260012  98.7004997 134.1549988
   6.5380012  98.1414997 134.3839988   7.3482178  98.2966390 134.6605756
   8.9720012 103.6884997 135.0459988   9.7220012 103.5324997 134.4729988
   8.6330012 104.5404997 134.7709988   9.0288921 103.7822968 134.9303561
  13.3870012 101.5034997 140.0749988  13.5800012 100.5724997 139.9629988
  14.2450012 101.9284997 140.0639988  13.5292934 101.4336531 140.0582031
  14.7040012 104.2924997 138.1519988  14.4230012 105.0014997 137.5739988
  15.6470012 104.2194997 138.0009988  14.7929291 104.3796711 138.0524967
   5.4560012 101.0774997 139.2259988   4.6890012 100.5454997 139.0149988
   6.1350012 100.7674997 138.6259988   5.4427877 100.9628300 139.1160716
   8.1960012  95.7054997 135.2379988   8.0970012  96.6524997 135.1329988
   7.4530012  95.3334997 134.7619988   8.0821184  95.7845863 135.1593621
   9.4600012 100.0274997 138.8019988   9.2240012  99.8074997 139.7029988
   8.6760012  99.8204997 138.2919988   9.3218504  99.9694586 138.8563431
  12.1750012  99.1544997 137.8769988  11.2280012  99.1864997 138.0099988
  12.4880012  98.5294997 138.5309988  12.0876707  99.0743998 137.9836060
  13.8090012  97.7884997 139.8829988  13.7130012  96.8364997 139.8769988
  13.4880012  98.0574997 140.7429988  13.7524070  97.6944035 139.9985441
   3.6360012  98.9984997 138.9299988   3.8480012  98.2914997 138.3199988
   3.5250012  98.5604997 139.7739988   3.6499721  98.8427084 138.9606843
   8.4170012  94.9994997 137.9089988   9.1290012  94.3594997 137.8949988
   8.3160012  95.2664997 136.9959988   8.5008066  94.9480079 137.7835677
   8.7710012  96.6824997 139.9629988   8.6390012  96.2064997 139.1429988
   8.1720012  97.4264997 139.9079988   8.6719071  96.7179618 139.8432886
   8.3170012 113.5654997 123.1389988   9.2500012 113.7234997 123.2829988
   8.0530012 114.2404997 122.5149988   8.4089888 113.6784510 123.0742842
   1.8860012 108.2014997 122.6219988   2.8000012 108.2804997 122.8959988
   1.8930012 107.5144997 121.9559988   2.0121131 108.1193961 122.5694393
   0.5350012 113.5944997 127.6999988  -0.1119988 113.1324997 127.1669988
   0.8890012 112.9224997 128.2819988   0.4943849 113.4404723 127.7057959
   1.4050012 111.6754997 129.5039988   1.0700012 110.7954997 129.6759988
   1.6270012 112.0204997 130.3689988   1.3891783 111.6017501 129.6444208
  18.9530012 112.4844997 132.4849988  18.9320012 112.6694997 133.4239988
  19.6440012 113.0534997 132.1439988  19.0434618 112.5866606 132.5673864
  18.5170012 112.0524997 135.4069988  18.0290012 111.3164997 135.0349988
  19.0660012 111.6584997 136.0849988  18.5244820 111.8985889 135.4477813
  16.9670012 107.8414997 140.0449988  16.1010012 107.7364997 140.4389988
  17.3440012 108.6004997 140.4909988  16.8993308 107.9296900 140.1592393
  18.2680012 106.0984997 125.5589988  19.1180012 106.5194997 125.6859988
  18.2740012 105.3584997 126.1659988  18.3851372 106.0560803 125.6584344
  18.6630012 104.1514997 127.3819988  17.9360012 103.6724997 127.7799988
  19.2440012 104.3574997 128.1149988  18.6420473 104.1138103 127.5354528
  18.4220012 106.9364997 132.3299988  19.2550012 106.5584997 132.0499988
  18.5340012 107.8794997 132.2109988  18.5512647 107.0122218 132.2755487
  16.9080012 109.8144997 134.6369988  16.2610012 110.1394997 135.2629988
  16.3910012 109.3744997 133.9629988  16.7494029 109.7995004 134.6315827
  18.9310012 104.0524997 123.7739988  18.4090012 104.4094997 123.0549988
  18.8980012 104.7274997 124.4519988  18.8551634 104.1925413 123.7673145
  17.2800012 101.2924997 122.3239988  17.3760012 101.9594997 121.6439988
  17.1400012 100.4764997 121.8429988  17.2742272 101.2735655 122.1658347
  16.4490012 102.6724997 127.9449988  16.2990012 101.7274997 127.9249988
  16.0960012 102.9534997 128.7889988  16.3807448 102.5811481 128.0563705
   1.4850012 104.7504997 131.9559988   1.6690012 104.6684997 131.0199988
   2.3340012 104.6264997 132.3789988   1.6250151 104.7225073 131.8851451
  17.3060012 104.6424997 137.5839988  17.8890012 103.9084997 137.7759988
  17.8700012 105.4144997 137.6309988  17.4619769 104.6464227 137.6166159
  18.8020012 102.5454997 138.2689988  17.9390012 102.1664997 138.1029988
  19.4070012 101.8064997 138.1939988  18.7656119 102.3938268 138.2361528
  16.5270012  98.7004997 121.4419988  17.1380012  98.3294997 122.0789988
  15.6910012  98.2794997 121.6379988  16.4975032  98.5927554 121.5557035
  16.1600012 100.2554997 126.4079988  16.4400012  99.3484997 126.5319988
  16.9190012 100.6894997 126.0189988  16.3009277 100.1900942 126.3723682
  16.7720012 100.8364997 131.8439988  17.7050012 101.0484997 131.8089988
  16.5370012 100.9384997 132.7659988  16.8679244 100.8793100 131.9638892
  16.8010012 101.5734997 134.6199988  15.9580012 101.8414997 134.9859988
  17.2430012 102.3954997 134.4089988  16.7454158 101.7213291 134.6415491
   1.0820012 100.0214997 138.0969988   2.0020012  99.8994997 138.3329988
   0.6330012  99.2714997 138.4859988   1.1471580  99.9033727 138.1819006
  19.0840012  95.5534997 139.9729988  19.4340012  94.8994997 139.3679988
  19.2310012  96.3904997 139.5329988  19.1517887  95.5771548 139.8306858
  16.7730012  97.5184997 126.4559988  16.9560012  97.0694997 127.2819988
  16.1740012  96.9334997 125.9929988  16.7170202  97.3779975 126.5063275
   2.3030012  98.3334997 130.9879988   2.7490012  97.5414997 131.2899988
   2.7700012  99.0494997 131.4179988   2.4270831  98.3220685 131.0874006
   0.6070012 101.3324997 132.0569988   1.0990012 101.1114997 131.2659988
   0.9700012 102.1734997 132.3379988   0.7233126 101.4158357 131.9867531
  18.6040012  97.6624997 138.3219988  17.6860012  97.9334997 138.2869988
  18.7270012  97.1274997 137.5379988  18.4949729  97.6272508 138.2111923
  18.6400012  97.5854997 122.9839988  19.0520012  96.8644997 122.5089988
  19.3220012  98.2554997 123.0429988  18.7885885  97.5772368 122.9268915
   0.9210012  97.5904997 126.1109988  -0.0039988  97.7994997 125.9819988
   1.3750012  98.0744997 125.4209988   0.8557292  97.6845343 126.0000720
  15.6920012 112.5744997 128.0569988  16.3440012 112.2274997 127.4489988
  16.2020012 113.0634997 128.7029988  15.8502637 112.5930597 128.0610236
   0.8850012  96.3284997 134.4549988   0.2200012  96.0824997 135.0989988
   0.4420012  96.9504997 133.8779988   0.7341318  96.3789410 134.4650898
   3.0770012 109.5034997 138.5999988   2.2560012 109.6784997 138.1389988
   2.8240012 109.4304997 139.5199988   2.9305585 109.5175544 138.6613561
   6.0310012 110.4784997 134.8579988   5.6060012 111.2874997 134.5759988
   6.9350012 110.5634997 134.5559988   6.0949975 110.6009300 134.7784816
  10.3420012 111.8774997 137.8179988  10.5270012 111.5434997 138.6959988
  11.1880012 112.1864997 137.4959988  10.4817539 111.8736047 137.8945605
  12.6870012 113.1634997 137.0619988  13.3640012 112.5304997 136.8219988
  13.0090012 113.5644997 137.8689988  12.8231637 113.1311154 137.1382793
  17.6040012  95.7524997 136.1409988  16.7920012  96.0774997 135.7539988
  17.8370012  94.9924997 135.6079988  17.5242203  95.6942758 136.0158880
   3.4330012 113.7344997 134.9059988   2.7120012 114.1744997 134.4549988
   3.0670012 113.4834997 135.7539988   3.2849651 113.7607242 134.9589640
   5.9000012 113.3344997 133.9359988   5.0350012 113.4064997 134.3399988
   5.8450012 113.8814997 133.1519988   5.7742085 113.4182685 133.8853362
  10.6100012 113.2224997 133.1109988  10.1540012 113.7514997 132.4569988
  10.7730012 113.8254997 133.8359988  10.5696068 113.3764607 133.1194838
  12.9380012 112.1004997 134.0559988  12.0330012 112.2654997 133.7899988
  13.3670012 112.9534997 133.9909988  12.8721324 112.2384339 134.0107976
  15.5420012 113.6704997 134.3509988  15.3600012 114.5864997 134.1409988
  15.7190012 113.2604997 133.5049988  15.5410210 113.7404822 134.2077885
   2.8470012 112.3574997 131.8159988   2.8290012 111.9324997 132.6729988
   3.6520012 112.0394997 131.4069988   2.9533529 112.2563013 131.8780946
   4.9890012 111.0674997 130.4709988   4.7700012 110.1514997 130.6409988
   5.8130012 111.2074997 130.9369988   5.0704420 110.9610520 130.5572774
   7.5260012 111.5374997 131.3199988   7.7390012 110.6494997 131.0329988
   7.5900012 111.5034997 132.2739988   7.5638232 111.4113102 131.4097397
  11.0340012  97.2014997 130.4639988  10.3600012  96.5724997 130.7199988
  11.5980012  96.7174997 129.8609988  11.0179230  97.0498744 130.4175340
  16.1770012  95.3094997 130.5769988  16.7810012  95.8564997 130.0749988
  15.3070012  95.6284997 130.3359988  16.1421208  95.4275137 130.4756886
  17.9040012  96.4474997 128.9099988  18.5160012  95.9334997 128.3829988
  18.2860012  97.3254997 128.9329988  18.0393371  96.4957866 128.8410041
   3.3610012  95.8354997 128.2859988   2.5840012  95.6014997 127.7789988
   3.8910012  95.0384997 128.2949988   3.3262330  95.6956988 128.2177742
   2.1970012  95.6334997 124.0899988   2.6360012  96.2444997 123.4979988
   1.5640012  96.1714997 124.5639988   2.1714514  95.7899257 124.0730930
   7.9400012  95.7624997 128.0999988   8.8150012  96.1504997 128.0699988
   7.8040012  95.5474997 129.0219988   8.0413695  95.7865184 128.2206440
  13.4970012  95.7924997 129.7489988  13.5730012  95.8874997 128.7989988
  13.2220012  94.8844997 129.8779988  13.4702321  95.6827867 129.6365079
  14.8500012  95.8184997 125.4409988  14.1480012  96.4334997 125.2309988
  14.4060012  94.9804997 125.5719988  14.6936450  95.7895639 125.4299000
   2.0980012 111.5814997 124.9869988   1.4130012 111.5434997 124.3199988
   2.1020012 112.4944997 125.2759988   2.0046998 111.6996733 124.9346771
   4.0580012  97.5494997 122.5319988   4.5500012  96.9194997 122.0049988
   4.6820012  97.8454997 123.1949988   4.2095688  97.5033804 122.5495482
   9.0840012  97.8424997 124.9889988   9.2620012  97.1964997 125.6719988
   9.0310012  98.6764997 125.4559988   9.1011999  97.8668009 125.1455917
  10.9630012 112.7914997 123.3849988  11.8290012 113.1574997 123.2069988
  10.7160012 112.3514997 122.5709988  11.0482392 112.7821756 123.2506289
  17.6720012 112.3544997 126.0639988  17.4770012 111.6064997 125.4989988
  17.6330012 113.1124997 125.4809988  17.6400380 112.3546099 125.9078384
   3.3190012  96.3494997 137.8039988   2.9530012  95.5844997 138.2459988
   4.2320012  96.3784997 138.0899988   3.3922736  96.2485640 137.9032502
   5.2920012  95.7004997 139.3399988   6.1900012  95.4264997 139.1549988
   4.9050012  94.9574997 139.8039988   5.3626612  95.5625914 139.3773643
   3.9160012 112.5014997 122.0129988   3.6490012 112.7884997 122.8859988
   4.6880012 111.9554997 122.1649988   3.9837488 112.4670294 122.1531050
  13.7130012  95.0324997 139.5219988  13.7900012  94.6064997 140.3759988
  14.6070012  95.0464997 139.1789988  13.8443428  94.9760879 139.5925310
  16.8890012 111.1054997 138.2139988  16.1070012 110.9194997 137.6939988
  16.8170012 112.0344997 138.4319988  16.7722274 111.2056643 138.1723018
  31.2950012 104.9914997 128.2449988  31.3840012 105.9354997 128.1129988
  30.6570012 104.7164997 127.5869988  31.2209081 105.0834830 128.1379614
  30.2280012 104.2464997 131.6639988  30.1900012 103.6004997 132.3689988
  29.9060012 103.7804997 130.8929988  30.1792333 104.0949408 131.6562978
  22.5970012 103.8614997 133.2569988  22.6380012 103.2354997 133.9799988
  23.3000012 104.4854997 133.4389988  22.6976363 103.8601196 133.3806044
  33.9340012 107.1854997 129.9649988  33.4940012 106.4654997 130.4159988
  33.9210012 107.9064997 130.5949988  33.8720226 107.1843731 130.1118494
  23.5200012 108.3114997 131.7919988  23.1510012 107.5094997 131.4219988
  24.4610012 108.1424997 131.8379988  23.5967289 108.1790153 131.7476316
  20.1300012 101.9714997 127.1849988  19.6830012 102.8174997 127.1659988
  19.5690012 101.3914997 126.6689988  19.9929900 102.0089916 127.1126801
  20.8410012 104.1334997 129.3099988  21.0540012 103.3634997 129.8379988
  21.5790012 104.2224997 128.7069988  20.9699044 104.0401968 129.3007123
  31.0460012 112.2904997 130.1769988  31.6660012 111.6134997 129.9039988
  30.8380012 112.0724997 131.0859988  31.1026726 112.1684800 130.2624812
  28.6180012 106.6794997 132.0699988  28.9220012 105.9934997 131.4749988
  29.3390012 106.7974997 132.6879988  28.7570671 106.6016305 132.0721816
  37.2810012  98.2804997 132.9309988  37.3300012  98.8904997 133.6659988
  37.7060012  98.7414997 132.2079988  37.3451746  98.4263796 132.9339175
  31.7590012 101.0734997 132.3969988  31.9010012 100.1274997 132.4179988
  31.6520012 101.2804997 131.4689988  31.7639919 100.9718246 132.2743408
  24.9130012  99.1744997 129.6699988  24.9570012 100.0344997 129.2509988
  24.4560012  98.6224997 129.0359988  24.8572240  99.2174422 129.5269864
  32.6360012  99.3054997 128.0709988  33.2820012  98.9764997 128.6949988
  33.1460012  99.8234997 127.4479988  32.7934299  99.3304450 128.0722731
  21.5340012 101.5714997 130.4319988  22.1870012 101.0214997 130.8639988
  21.5580012 101.2974997 129.5149988  21.6266683 101.4591466 130.3672123
  26.6900012 103.1214997 129.6469988  27.3060012 102.5954997 130.1569988
  26.1040012 102.4814997 129.2439988  26.6950810 102.9629208 129.6623173
  37.6720012  99.7584997 135.1659988  36.9840012 100.4164997 135.0709988
  37.6880012  99.5614997 136.1029988  37.5799540  99.8219819 135.2795990
  23.7240012  98.0924997 133.7439988  23.5050012  98.6224997 132.9779988
  23.0560012  98.3194997 134.3909988  23.6037600  98.1956906 133.7266379
  31.0930012 107.5924997 127.2879988  30.7970012 107.2704997 126.4369988
  30.7680012 108.4924997 127.3289988  31.0086371 107.6700215 127.1771801
  26.2930012 105.7684997 134.0309988  25.5530012 106.3664997 134.1349988
  27.0070012 106.3224997 133.7159988  26.2882237 105.9252831 134.0026465
  34.4000012  98.5964997 130.0509988  34.1840012  97.8304997 130.5839988
  35.0550012  99.0684997 130.5639988  34.4590632  98.5555889 130.1932861
  23.3170012  99.9844997 131.6959988  23.9310012 100.6174997 132.0689988
  23.8290012  99.5124997 131.0399988  23.4701981 100.0072267 131.6582908
  24.7000012 107.7324997 134.8179988  24.6950012 108.6124997 134.4399988
  23.8470012 107.6494997 135.2429988  24.5839464 107.8416117 134.8237907
  20.8210012 107.4034997 125.5999988  20.5490012 107.6324997 124.7119988
  20.8670012 108.2414997 126.0609988  20.7899482 107.5481318 125.5406273
  34.4460012 109.0254997 132.3129988  33.5050012 109.0834997 132.4749988
  34.7230012 109.9314997 132.1759988  34.3544679 109.1559443 132.3166815
  34.7470012  97.3114997 133.7309988  34.0110012  97.9224997 133.6929988
  35.4300012  97.7264997 133.2039988  34.7386541  97.4511374 133.6545832
  27.7500012  95.3984997 131.1959988  27.6330012  94.4494997 131.1419988
  26.8950012  95.7304997 131.4699988  27.6184212  95.3135571 131.2256497
  32.6980012 110.8064997 128.9379988  33.1240012 110.0994997 128.4529988
  33.0150012 111.6074997 128.5219988  32.7991683 110.8181017 128.8153680
  33.8580012 108.7074997 127.4469988  33.6000012 108.0174997 126.8359988
  33.9290012 108.2644997 128.2929988  33.8322856 108.5532124 127.4776885
  35.5440012 107.2734997 135.9239988  35.6840012 106.6824997 135.1849988
  35.7110012 108.1464997 135.5679988  35.5857411 107.3105428 135.7746894
  30.0170012 104.2354997 125.6969988  29.3050012 104.7704997 125.3449988
  30.7080012 104.2914997 125.0369988  30.0130132 104.3162543 125.5596289
  30.0700012 102.6934997 122.7359988  30.7710012 102.7154997 123.3869988
  30.3730012 102.0654997 122.0789988  30.2068133 102.6117070 122.7363369
  37.3860012 103.6134997 133.9899988  36.7330012 104.3084997 134.0799988
  37.8510012 103.8234997 133.1809988  37.3595274 103.7370643 133.8928462
  33.4220012 104.4454997 126.6489988  32.6900012 104.6734997 127.2219988
  33.8700012 103.7314997 127.1029988  33.3822725 104.3802145 126.7888816
  33.3200012 102.6194997 135.7159988  33.4000012 103.3824997 136.2879988
  32.7180012 102.8984997 135.0259988  33.2495756 102.7617134 135.7010589
  25.0680012 105.0754997 128.5309988  24.7370012 104.7054997 127.7129988
  25.6560012 104.4054997 128.8779988  25.1021873 104.9341156 128.4658102
  26.4340012 108.5034997 131.2119988  26.3400012 107.9254997 130.4559988
  27.1640012 108.1324997 131.7089988  26.5197387 108.3741663 131.1755342
  25.4340012 103.8444997 132.1649988  26.0000012 103.9654997 131.4019988
  25.7530012 104.4814997 132.8029988  25.5545474 103.9472219 132.1469862
  31.7430012 109.3474997 132.8989988  31.5030012 110.0094997 133.5469988
  31.5450012 108.5134997 133.3239988  31.6833808 109.3253134 133.0451524
  26.3140012 108.2434997 136.8819988  26.0030012 109.0254997 137.3369988
  25.6640012 108.0904997 136.1959988  26.1835558 108.3299105 136.8515871
  32.2930012 103.6074997 124.3339988  32.8730012 103.7574997 125.0809988
  32.7070012 104.0784997 123.6099988  32.4282997 103.6916578 124.3384058
  23.2340012 104.4414997 136.1099988  23.3050012 105.0924997 136.8089988
  22.3440012 104.5444997 135.7749988  23.1233005 104.5445427 136.1603495
  30.0200012 110.3444997 127.7689988  30.4940012 110.6394997 128.5459988
  29.4570012 111.0824997 127.5359988  30.0088184 110.4847247 127.8439628
  24.5540012 110.3154997 137.6449988  24.5610012 110.1794997 136.6979988
  23.6380012 110.1974997 137.8969988  24.4311714 110.2809430 137.5494666
  35.9920012  95.3574997 124.1469988  35.0920012  95.4964997 124.4419988
  36.2440012  96.1884997 123.7449988  35.9028702  95.4889074 124.1330205
  24.0580012 104.1454997 126.1199988  23.7660012 104.9134997 125.6299988
  23.3840012 103.4854997 125.9579988  23.9268111 104.1615587 126.0308978
  37.1810012 109.7234997 122.5229988  37.2550012 110.6624997 122.6939988
  38.0870012 109.4184997 122.4669988  37.3135100 109.8106722 122.5388119
  20.1510012 106.5084997 134.9349988  19.6500012 106.4804997 134.1199988
  20.1560012 105.6024997 135.2449988  20.0830944 106.3822396 134.8653226
  19.9010012 109.2884997 131.8189988  20.8470012 109.1444997 131.7999988
  19.7890012 110.0724997 132.3559988  20.0152727 109.3748046 131.8890072
  38.0990012 109.9544997 137.5019988  38.0500012 108.9994997 137.4649988
  37.2720012 110.2224997 137.9029988  37.9804940 109.8598998 137.5511375
  29.0780012 109.5284997 136.3779988  29.1650012 110.3544997 136.8529988
  28.2140012 109.1984997 136.6269988  28.9731964 109.5969878 136.4766549
  29.4920012 113.3004997 126.1839988  29.4170012 113.1794997 125.2369988
  29.5250012 114.2504997 126.3019988  29.4862068 113.4122646 126.0704967
  23.1450012 112.0894997 127.9649988  23.2980012 111.7414997 128.8429988
  22.2950012 111.7334997 127.7099988  23.0509166 111.9936216 128.0508079
  32.5940012 112.4544997 123.1859988  32.9690012 111.7104997 122.7149988
  32.5980012 112.1844997 124.1049988  32.6459125 112.3160986 123.2456483
  32.2630012 112.3804997 125.9349988  31.3270012 112.4804997 126.1139988
  32.5430012 111.6714997 126.5139988  32.1729553 112.2983406 126.0377087
  35.2510012 101.4474997 137.9819988  34.8440012 101.9284997 137.2609988
  35.2920012 100.5424997 137.6739988  35.2008437 101.3909374 137.8416683
  22.4000012 107.8314997 135.9789988  22.6160012 107.4704997 136.8379988
  21.5450012 107.4574997 135.7689988  22.3139292 107.7314111 136.0683386
  25.0190012  96.3014997 131.9739988  24.1570012  96.2144997 131.5659988
  24.9960012  97.1574997 132.4019988  24.8980409  96.4052883 131.9760589
  29.6820012  96.0234997 135.3489988  30.1020012  95.6084997 136.1019988
  28.7490012  95.8454997 135.4659988  29.6133644  95.9425900 135.4679539
  33.0080012  99.7794997 136.2019988  32.4940012  99.6534997 136.9999988
  32.8530012 100.6914997 135.9579988  32.9166852  99.8856132 136.2782158
  33.7710012 104.6404997 121.9639988  33.8130012 104.4174997 121.0339988
  34.6200012 105.0394997 122.1529988  33.8915280 104.6639438 121.8623554
  29.3430012  98.5164997 122.6339988  29.0900012  98.5354997 123.5569988
  29.0870012  97.6444997 122.3319988  29.2737481  98.4012558 122.7196175
  25.1100012 101.2674997 133.0689988  24.4680012 101.2264997 133.7779988
  25.1470012 102.1934997 132.8309988  25.0270664 101.3871430 133.1339219
  25.1070012 101.4884997 127.9809988  24.2140012 101.1474997 127.9219988
  25.5570012 101.1114997 127.2249988  25.0458130 101.3909631 127.8707702
  30.6420012 101.9044997 126.7979988  30.2330012 102.7194997 126.5069988
  31.3630012 101.7644997 126.1839988  30.6834537 101.9972018 126.6751342
  29.7440012 102.0794997 138.2859988  29.1820012 101.3754997 138.6069988
  30.5710012 101.9594997 138.7539988  29.7787095 101.9667883 138.3932330
  31.6470012 101.3504997 129.6119988  31.4520012 101.9554997 128.8969988
  31.8280012 100.5164997 129.1779988  31.6447614 101.3206300 129.4554405
  22.8600012 101.5874997 134.9359988  22.8220012 101.9874997 135.8049988
  22.3690012 100.7704997 135.0269988  22.7884684 101.5318069 135.0671059
  26.2260012  98.9614997 121.7349988  25.7950012  98.5164997 122.4649988
  25.5080012  99.3334997 121.2229988  26.0699438  98.9508940 121.7656799
  19.4680012  98.7034997 128.7869988  20.0990012  98.6744997 129.5059988
  19.9170012  98.2784997 128.0559988  19.6150918  98.6420836 128.7866441
  20.7420012  99.4494997 124.2109988  21.2160012 100.0404997 123.6259988
  20.0250012  99.9804997 124.5579988  20.7099341  99.6020867 124.1778836
  30.9110012 102.9884997 134.2829988  31.2340012 102.3574997 133.6399988
  30.4710012 102.4534997 134.9439988  30.8957484 102.8298387 134.2843198
  27.6880012  98.9154997 129.0669988  26.7770012  98.9724997 129.3559988
  28.1940012  98.8554997 129.8779988  27.6316899  98.9151941 129.2161184
  22.5170012 100.5444997 127.8939988  21.6270012 100.6444997 127.5539988
  22.8130012  99.7024997 127.5479988  22.4352823 100.4443546 127.8007213
  26.1700012 100.5444997 125.5509988  27.1010012 100.6734997 125.7289988
  25.9550012 101.2144997 124.9009988  26.2684247 100.6526565 125.4875747
  32.0930012  98.1504997 132.3319988  31.4170012  98.2814997 132.9959988
  31.6080012  97.9954997 131.5209988  31.9347146  98.1475157 132.3134469
  24.8440012 101.7394997 123.1169988  24.3010012 101.3594997 122.4259988
  25.6770012 101.9334997 122.6889988  24.8823631 101.7137125 122.9644501
  35.3810012 113.8224997 138.6079988  35.5810012 114.2464997 137.7739988
  36.0360012 114.1654997 139.2149988  35.4970072 113.9269857 138.5758592
  22.9790012 106.2964997 138.2159988  23.7110012 106.5504997 138.7779988
  22.1990012 106.5004997 138.7319988  22.9737073 106.3588160 138.3626151
  29.0080012 101.7034997 130.9539988  29.5730012 101.1564997 130.4069988
  28.8610012 101.1814997 131.7429988  29.0653380 101.5582259 130.9858695
  24.0100012  97.8394997 127.3729988  23.6930012  96.9374997 127.3369988
  24.7920012  97.8414997 126.8199988  24.0722408  97.7162474 127.2933569
  27.6350012 100.0914997 133.3679988  26.7990012 100.5454997 133.4789988
  28.1590012 100.3674997 134.1199988  27.5915416 100.1908660 133.4848119
  28.1790012 106.3044997 125.0529988  27.4340012 105.7974997 124.7309988
  28.0450012 106.3534997 125.9999988  28.0588776 106.2416940 125.1368647
  35.3290012 105.4374997 133.8399988  35.9710012 105.8944997 133.2959988
  34.4990012 105.5504997 133.3769988  35.3045963 105.5152704 133.7030177
  32.0770012  99.1184997 123.2519988  31.1380012  99.2304997 123.1009988
  32.3740012  99.9754997 123.5589988  31.9887583  99.2495981 123.2728337
  29.6980012 106.4884997 136.2899988  29.3530012 106.1074997 137.0969988
  29.4980012 107.4224997 136.3609988  29.6237527 106.5625135 136.4100689
  32.7950012 100.9854997 124.9129988  33.6870012 100.8484997 125.2319988
  32.8520012 101.7764997 124.3759988  32.9246504 101.0736052 124.8840818
  23.3040012 105.5994997 130.8229988  24.0490012 105.5974997 130.2219988
  23.3820012 104.7764997 131.3039988  23.4164995 105.4878887 130.8058282
  30.3050012 107.7634997 124.0789988  30.0090012 108.5894997 124.4599988
  29.6020012 107.1434997 124.2749988  30.1694914 107.7928199 124.1576443
  20.3120012 104.0604997 136.1379988  20.5350012 103.6424997 136.9699988
  19.7100012 103.4474997 135.7149988  20.2611759 103.9204668 136.1947022
  27.3280012 103.5774997 138.3509988  27.0320012 103.4114997 137.4559988
  28.2600012 103.3574997 138.3399988  27.4134166 103.5250640 138.2270536
  31.9490012 108.9504997 136.2409988  31.0480012 109.1334997 135.9729988
  31.9830012 109.2094997 137.1609988  31.8303139 109.0105849 136.3288099
  37.6800012 101.1954997 124.6079988  37.1260012 100.7994997 123.9359988
  37.7800012 102.1054997 124.3299988  37.6177059 101.2643586 124.4784401
  37.6430012 106.9954997 137.4449988  36.7920012 107.2334997 137.0779988
  38.2340012 106.9784997 136.6919988  37.6062487 107.0258258 137.2928893
  35.9750012 109.9814997 125.0729988  35.6020012 109.1554997 125.3819988
  36.2530012 109.7984997 124.1749988  35.9615222 109.8437430 124.9939473
  33.1360012 104.7894997 132.0939988  32.2070012 104.5574997 132.0669988
  33.5870012 104.0124997 131.7639988  33.0699216 104.6527238 132.0456917
  25.6790012 109.1174997 128.2269988  26.2060012 109.8904997 128.0269988
  24.7990012 109.3424997 127.9249988  25.6322031 109.2537545 128.1587912
  21.4340012 103.9794997 122.8139988  22.0500012 104.6064997 123.1939988
  20.5720012 104.2954997 123.0859988  21.4017698 104.1079430 122.9027183
  27.1060012 106.7804997 127.8029988  26.8650012 107.7054997 127.8449988
  26.3650012 106.3214997 128.1999988  26.9729225 106.8450933 127.8623742
  27.6210012 110.9294997 134.1189988  27.9830012 111.7844997 133.8849988
  28.1520012 110.6374997 134.8589988  27.7424473 111.0071060 134.1870855
  25.7890012 111.8024997 127.3489988  24.8390012 111.9074997 127.3999988
  26.1410012 112.6224997 127.6929988  25.7064195 111.9278800 127.4025502
  31.1650012 107.0284997 133.8189988  30.7390012 106.8014997 134.6459988
  31.7450012 106.2904997 133.6369988  31.1851868 106.8975299 133.9075830
  33.3680012 107.9574997 122.8929988  33.7210012 107.5774997 123.6969988
  32.4190012 107.8644997 122.9799988  33.2880918 107.8928956 123.0148532
  33.8230012 111.5804997 136.2889988  33.2220012 111.0254997 135.7929988
  34.1050012 112.2474997 135.6619988  33.7788804 111.5946625 136.1364849
  37.8710012 112.4374997 123.0939988  38.6150012 113.0234997 122.9539988
  37.1770012 113.0054997 123.4269988  37.8789899 112.5945798 123.1198778
  21.9460012  98.8134997 135.6959988  21.0530012  99.1524997 135.6279988
  21.8470012  97.9584997 136.1139988  21.8104164  98.7442588 135.7432235
  34.2340012 106.6304997 125.1199988  33.9560012 105.9024997 125.6759988
  35.1610012 106.7494997 125.3249988  34.3213124 106.5468802 125.2238845
  21.5970012 110.6184997 134.1309988  21.8140012 109.6864997 134.0999988
  21.8430012 110.8924997 135.0139988  21.6599549 110.5280636 134.2461763
  27.4590012 109.0694997 121.3399988  27.6980012 108.3214997 120.7929988
  27.1900012 108.6814997 122.1729988  27.4553675 108.9146638 121.3776865
  26.3960012 108.6394997 123.7959988  26.5420012 108.1194997 124.5859988
  26.3930012 109.5464997 124.1029988  26.4155792 108.6908842 123.9456117
  22.8490012 105.8924997 124.3069988  22.1630012 106.2444997 124.8739988
  23.3710012 106.6554997 124.0599988  22.8256852 106.0438578 124.3512118
  30.6800012  98.5544997 134.5859988  31.3790012  98.6284997 135.2359988
  30.2990012  97.6904997 134.7399988  30.7241767  98.4477624 134.6958322
  31.4650012  98.2064997 125.6829988  31.6850012  98.6784997 124.8799988
  32.0230012  98.6014997 126.3529988  31.5704968  98.3244285 125.6637331
  29.1330012 110.3374997 124.5459988  28.3170012 110.8344997 124.5979988
  29.6630012 110.8124997 123.9059988  29.0929161 110.4697722 124.4665956
  28.6650012  99.9344997 126.5179988  29.4770012 100.4394997 126.5639988
  28.4200012  99.7894997 127.4319988  28.7430520  99.9840375 126.6478517
  29.2000012 100.9204997 135.7019988  29.3190012 101.4944997 136.4599988
  29.8560012 100.2324997 135.8169988  29.3049025 100.9059858 135.8211321
  29.5480012  97.0154997 127.4559988  29.2020012  97.6334997 128.0999988
  30.2070012  97.5164997 126.9739988  29.5896968  97.1676278 127.4789383
  26.4720012 111.3814997 124.5269988  26.6320012 112.1804997 124.0269988
  26.2740012 111.6874997 125.4119988  26.4671637 111.5324020 124.5781144
  25.2060012  98.0784997 124.1429988  25.1230012  98.9674997 124.4899988
  26.0960012  97.8134997 124.3749988  25.3149469  98.1641430 124.2217626
  35.4050012  98.8274997 136.5369988  34.4880012  99.0904997 136.4499988
  35.7400012  98.8244997 135.6409988  35.3248613  98.8630761 136.4038837
  34.0070012 102.5784997 130.6329988  33.2090012 102.1634997 130.3049988
  34.4520012 101.8874997 131.1239988  33.9579885 102.4283543 130.6544889
  23.4650012 108.5064997 123.2039988  24.0570012 109.2054997 123.4799988
  23.9240012 108.0734997 122.4839988  23.6081142 108.5437049 123.1444830
  21.7810012 101.1704997 122.3199988  21.7360012 102.1094997 122.4979988
  20.8930012 100.9344997 122.0499988  21.6548574 101.2671892 122.3078912
  35.0930012 111.8344997 132.2559988  34.9380012 112.5124997 131.5979988
  36.0260012 111.9064997 132.4589988  35.1978657 111.9369546 132.1934360
  22.5890012  95.9524997 130.9929988  22.3600012  96.0114997 130.0649988
  22.1460012  95.1604997 131.2989988  22.4978530  95.8535753 130.9074786
  21.5190012 109.8924997 127.1529988  20.6870012 110.3654997 127.1799988
  22.0650012 110.4024997 126.5549988  21.4790352 110.0261332 127.0758463
  20.8070012 112.5054997 138.4829988  21.3480012 112.2884997 139.2429988
  20.3260012 111.6994997 138.2929988  20.8159951 112.3669270 138.5612576
  25.4050012 111.4244997 140.1029988  26.1720012 110.9654997 140.4439988
  25.3830012 111.1984997 139.1739988  25.5071275 111.3310186 140.0240101
  29.4970012 110.9324997 121.4789988  28.8530012 110.3014997 121.7999988
  30.2590012 110.4014997 121.2469988  29.5118077 110.7742920 121.4916011
  31.9820012 109.8044997 138.8329988  31.6310012 108.9484997 139.0759988
  32.7080012 109.9474997 139.4399988  32.0320769 109.7065636 138.9483619
  34.1010012 110.7494997 121.7119988  34.3840012 109.9554997 122.1649988
  34.8410012 110.9824997 121.1519988  34.2398006 110.6723376 121.6982715
  20.7140012 106.3154997 139.4369988  20.8580012 105.4134997 139.1509988
  19.9420012 106.6014997 138.9499988  20.6292753 106.2306816 139.3319505
  25.0560012 106.6594997 121.5699988  25.1200012 105.8654997 122.1009988
  25.7090012 106.5404997 120.8799988  25.1530241 106.5347148 121.5494317
  27.3700012 106.2854997 138.8699988  27.0410012 106.5564997 138.0129988
  27.5220012 105.3444997 138.7829988  27.3454809 106.1953862 138.7408244
  30.4080012 107.7064997 121.3059988  30.1390012 107.8864997 122.2069988
  30.2020012 106.7804997 121.1739988  30.3433427 107.6060261 121.4115073
  33.1040012 106.2014997 136.2529988  33.8500012 106.7894997 136.1339988
  32.3470012 106.7834997 136.3169988  33.1037820 106.3607143 136.2453590
  21.5470012 103.5154997 138.8569988  21.9550012 102.6584997 138.7359988
  21.2870012 103.5304997 139.7779988  21.5677568 103.4000807 138.9649588
  26.2050012 104.6314997 123.8759988  25.7450012 104.1474997 124.5619988
  26.4600012 103.9634997 123.2399988  26.1764902 104.4748731 123.8839334
  25.4940012 102.5244997 136.2319988  24.8760012 103.1994997 136.5119988
  25.8380012 102.8454997 135.3979988  25.4559132 102.6602411 136.1576262
  27.2760012 102.8744997 122.1379988  27.0960012 102.7204997 121.2109988
  28.2260012 102.9824997 122.1829988  27.3797776 102.8680175 122.0171843
  30.5140012 104.9964997 139.5089988  31.4670012 105.0794997 139.4819988
  30.3530012 104.2844997 140.1289988  30.6226426 104.9116746 139.5890579
  36.6660012 105.2294997 121.5839988  36.3920012 104.8044997 120.7709988
  36.7050012 106.1604997 121.3669988  36.6337699 105.2972484 121.4433610
  25.8330012  99.8794997 137.3139988  25.9830012  99.1504997 136.7119988
  25.8360012 100.6564997 136.7549988  25.8539302  99.8847851 137.1560692
  26.2460012  98.2494997 134.8069988  26.7820012  98.7004997 134.1549988
  25.3940012  98.1414997 134.3839988  26.2042178  98.2966390 134.6605756
  27.8280012 103.6884997 135.0459988  28.5780012 103.5324997 134.4729988
  27.4890012 104.5404997 134.7709988  27.8848921 103.7822968 134.9303561
  32.2430012 101.5034997 140.0749988  32.4360012 100.5724997 139.9629988
  33.1010012 101.9284997 140.0639988  32.3852934 101.4336531 140.0582031
  33.5600012 104.2924997 138.1519988  33.2790012 105.0014997 137.5739988
  34.5030012 104.2194997 138.0009988  33.6489291 104.3796711 138.0524967
  24.3120012 101.0774997 139.2259988  23.5450012 100.5454997 139.0149988
  24.9910012 100.7674997 138.6259988  24.2987877 100.9628300 139.1160716
  27.0520012  95.7054997 135.2379988  26.9530012  96.6524997 135.1329988
  26.3090012  95.3334997 134.7619988  26.9381184  95.7845863 135.1593621
  28.3160012 100.0274997 138.8019988  28.0800012  99.8074997 139.7029988
  27.5320012  99.8204997 138.2919988  28.1778504  99.9694586 138.8563431
  31.0310012  99.1544997 137.8769988  30.0840012  99.1864997 138.0099988
  31.3440012  98.5294997 138.5309988  30.9436707  99.0743998 137.9836060
  32.6650012  97.7884997 139.8829988  32.5690012  96.8364997 139.8769988
  32.3440012  98.0574997 140.7429988  32.6084070  97.6944035 139.9985441
  22.4920012  98.9984997 138.9299988  22.7040012  98.2914997 138.3199988
  22.3810012  98.5604997 139.7739988  22.5059721  98.8427084 138.9606843
  27.2730012  94.9994997 137.9089988  27.9850012  94.3594997 137.8949988
  27.1720012  95.2664997 136.9959988  27.3568066  94.9480079 137.7835677
  27.6270012  96.6824997 139.9629988  27.4950012  96.2064997 139.1429988
  27.0280012  97.4264997 139.9079988  27.5279071  96.7179618 139.8432886
  27.1730012 113.5654997 123.1389988  28.1060012 113.7234997 123.2829988
  26.9090012 114.2404997 122.5149988  27.2649888 113.6784510 123.0742842
  20.7420012 108.2014997 122.6219988  21.6560012 108.2804997 122.8959988
  20.7490012 107.5144997 121.9559988  20.8681131 108.1193961 122.5694393
  19.3910012 113.5944997 127.6999988  18.7440012 113.1324997 127.1669988
  19.7450012 112.9224997 128.2819988  19.3503849 113.4404723 127.7057959
  20.2610012 111.6754997 129.5039988  19.9260012 110.7954997 129.6759988
  20.4830012 112.0204997 130.3689988  20.2451783 111.6017500 129.6444208
  37.8090012 112.4844997 132.4849988  37.7880012 112.6694997 133.4239988
  38.5000012 113.0534997 132.1439988  37.8994618 112.5866606 132.5673864
  37.3730012 112.0524997 135.4069988  36.8850012 111.3164997 135.0349988
  37.9220012 111.6584997 136.0849988  37.3804820 111.8985889 135.4477813
  35.8230012 107.8414997 140.0449988  34.9570012 107.7364997 140.4389988
  36.2000012 108.6004997 140.4909988  35.7553308 107.9296900 140.1592393
  37.1240012 106.0984997 125.5589988  37.9740012 106.5194997 125.6859988
  37.1300012 105.3584997 126.1659988  37.2411372 106.0560803 125.6584344
  37.5190012 104.1514997 127.3819988  36.7920012 103.6724997 127.7799988
  38.1000012 104.3574997 128.1149988  37.4980473 104.1138103 127.5354528
  37.2780012 106.9364997 132.3299988  38.1110012 106.5584997 132.0499988
  37.3900012 107.8794997 132.2109988  37.4072647 107.0122218 132.2755487
  35.7640012 109.8144997 134.6369988  35.1170012 110.1394997 135.2629988
  35.2470012 109.3744997 133.9629988  35.6054029 109.7995004 134.6315827
  37.7870012 104.0524997 123.7739988  37.2650012 104.4094997 123.0549988
  37.7540012 104.7274997 124.4519988  37.7111634 104.1925413 123.7673145
  36.1360012 101.2924997 122.3239988  36.2320012 101.9594997 121.6439988
  35.9960012 100.4764997 121.8429988  36.1302272 101.2735655 122.1658347
  35.3050012 102.6724997 127.9449988  35.1550012 101.7274997 127.9249988
  34.9520012 102.9534997 128.7889988  35.2367448 102.5811481 128.0563705
  20.3410012 104.7504997 131.9559988  20.5250012 104.6684997 131.0199988
  21.1900012 104.6264997 132.3789988  20.4810151 104.7225073 131.8851451
  36.1620012 104.6424997 137.5839988  36.7450012 103.9084997 137.7759988
  36.7260012 105.4144997 137.6309988  36.3179769 104.6464227 137.6166159
  37.6580012 102.5454997 138.2689988  36.7950012 102.1664997 138.1029988
  38.2630012 101.8064997 138.1939988  37.6216119 102.3938268 138.2361528
  35.3830012  98.7004997 121.4419988  35.9940012  98.3294997 122.0789988
  34.5470012  98.2794997 121.6379988  35.3535032  98.5927554 121.5557035
  35.0160012 100.2554997 126.4079988  35.2960012  99.3484997 126.5319988
  35.7750012 100.6894997 126.0189988  35.1569277 100.1900942 126.3723682
  35.6280012 100.8364997 131.8439988  36.5610012 101.0484997 131.8089988
  35.3930012 100.9384997 132.7659988  35.7239244 100.8793100 131.9638892
  35.6570012 101.5734997 134.6199988  34.8140012 101.8414997 134.9859988
  36.0990012 102.3954997 134.4089988  35.6014158 101.7213291 134.6415491
  19.9380012 100.0214997 138.0969988  20.8580012  99.8994997 138.3329988
  19.4890012  99.2714997 138.4859988  20.0031580  99.9033727 138.1819006
  37.9400012  95.5534997 139.9729988  38.2900012  94.8994997 139.3679988
  38.0870012  96.3904997 139.5329988  38.0077887  95.5771548 139.8306858
  35.6290012  97.5184997 126.4559988  35.8120012  97.0694997 127.2819988
  35.0300012  96.9334997 125.9929988  35.5730202  97.3779975 126.5063275
  21.1590012  98.3334997 130.9879988  21.6050012  97.5414997 131.2899988
  21.6260012  99.0494997 131.4179988  21.2830831  98.3220685 131.0874006
  19.4630012 101.3324997 132.0569988  19.9550012 101.1114997 131.2659988
  19.8260012 102.1734997 132.3379988  19.5793126 101.4158357 131.9867531
  37.4600012  97.6624997 138.3219988  36.5420012  97.9334997 138.2869988
  37.5830012  97.1274997 137.5379988  37.3509729  97.6272508 138.2111923
  37.4960012  97.5854997 122.9839988  37.9080012  96.8644997 122.5089988
  38.1780012  98.2554997 123.0429988  37.6445885  97.5772368 122.9268915
  19.7770012  97.5904997 126.1109988  18.8520012  97.7994997 125.9819988
  20.2310012  98.0744997 125.4209988  19.7117292  97.6845343 126.0000720
  34.5480012 112.5744997 128.0569988  35.2000012 112.2274997 127.4489988
  35.0580012 113.0634997 128.7029988  34.7062637 112.5930597 128.0610236
  19.7410012  96.3284997 134.4549988  19.0760012  96.0824997 135.0989988
  19.2980012  96.9504997 133.8779988  19.5901318  96.3789410 134.4650898
  21.9330012 109.5034997 138.5999988  21.1120012 109.6784997 138.1389988
  21.6800012 109.4304997 139.5199988  21.7865585 109.5175544 138.6613561
  24.8870012 110.4784997 134.8579988  24.4620012 111.2874997 134.5759988
  25.7910012 110.5634997 134.5559988  24.9509975 110.6009300 134.7784816
  29.1980012 111.8774997 137.8179988  29.3830012 111.5434997 138.6959988
  30.0440012 112.1864997 137.4959988  29.3377539 111.8736047 137.8945605
  31.5430012 113.1634997 137.0619988  32.2200012 112.5304997 136.8219988
  31.8650012 113.5644997 137.8689988  31.6791637 113.1311154 137.1382793
  36.4600012  95.7524997 136.1409988  35.6480012  96.0774997 135.7539988
  36.6930012  94.9924997 135.6079988  36.3802203  95.6942758 136.0158880
  22.2890012 113.7344997 134.9059988  21.5680012 114.1744997 134.4549988
  21.9230012 113.4834997 135.7539988  22.1409651 113.7607242 134.9589640
  24.7560012 113.3344997 133.9359988  23.8910012 113.4064997 134.3399988
  24.7010012 113.8814997 133.1519988  24.6302085 113.4182685 133.8853362
  29.4660012 113.2224997 133.1109988  29.0100012 113.7514997 132.4569988
  29.6290012 113.8254997 133.8359988  29.4256068 113.3764607 133.1194838
  31.7940012 112.1004997 134.0559988  30.8890012 112.2654997 133.7899988
  32.2230012 112.9534997 133.9909988  31.7281324 112.2384339 134.0107976
  34.3980012 113.6704997 134.3509988  34.2160012 114.5864997 134.1409988
  34.5750012 113.2604997 133.5049988  34.3970210 113.7404822 134.2077885
  21.7030012 112.3574997 131.8159988  21.6850012 111.9324997 132.6729988
  22.5080012 112.0394997 131.4069988  21.8093529 112.2563013 131.8780946
  23.8450012 111.0674997 130.4709988  23.6260012 110.1514997 130.6409988
  24.6690012 111.2074997 130.9369988  23.9264420 110.9610520 130.5572773
  26.3820012 111.5374997 131.3199988  26.5950012 110.6494997 131.0329988
  26.4460012 111.5034997 132.2739988  26.4198231 111.4113102 131.4097397
  29.8900012  97.2014997 130.4639988  29.2160012  96.5724997 130.7199988
  30.4540012  96.7174997 129.8609988  29.8739230  97.0498744 130.4175340
  35.0330012  95.3094997 130.5769988  35.6370012  95.8564997 130.0749988
  34.1630012  95.6284997 130.3359988  34.9981208  95.4275137 130.4756886
  36.7600012  96.4474997 128.9099988  37.3720012  95.9334997 128.3829988
  37.1420012  97.3254997 128.9329988  36.8953371  96.4957866 128.8410041
  22.2170012  95.8354997 128.2859988  21.4400012  95.6014997 127.7789988
  22.7470012  95.0384997 128.2949988  22.1822330  95.6956988 128.2177742
  21.0530012  95.6334997 124.0899988  21.4920012  96.2444997 123.4979988
  20.4200012  96.1714997 124.5639988  21.0274514  95.7899257 124.0730930
  26.7960012  95.7624997 128.0999988  27.6710012  96.1504997 128.0699988
  26.6600012  95.5474997 129.0219988  26.8973695  95.7865184 128.2206440
  32.3530012  95.7924997 129.7489988  32.4290012  95.8874997 128.7989988
  32.0780012  94.8844997 129.8779988  32.3262321  95.6827867 129.6365079
  33.7060012  95.8184997 125.4409988  33.0040012  96.4334997 125.2309988
  33.2620012  94.9804997 125.5719988  33.5496450  95.7895639 125.4299000
  20.9540012 111.5814997 124.9869988  20.2690012 111.5434997 124.3199988
  20.9580012 112.4944997 125.2759988  20.8606998 111.6996733 124.9346771
  22.9140012  97.5494997 122.5319988  23.4060012  96.9194997 122.0049988
  23.5380012  97.8454997 123.1949988  23.0655688  97.5033804 122.5495482
  27.9400012  97.8424997 124.9889988  28.1180012  97.1964997 125.6719988
  27.8870012  98.6764997 125.4559988  27.9571999  97.8668009 125.1455917
  29.8190012 112.7914997 123.3849988  30.6850012 113.1574997 123.2069988
  29.5720012 112.3514997 122.5709988  29.9042392 112.7821756 123.2506289
  36.5280012 112.3544997 126.0639988  36.3330012 111.6064997 125.4989988
  36.4890012 113.1124997 125.4809988  36.4960380 112.3546099 125.9078384
  22.1750012  96.3494997 137.8039988  21.8090012  95.5844997 138.2459988
  23.0880012  96.3784997 138.0899988  22.2482736  96.2485640 137.9032502
  24.1480012  95.7004997 139.3399988  25.0460012  95.4264997 139.1549988
  23.7610012  94.9574997 139.8039988  24.2186612  95.5625914 139.3773643
  22.7720012 112.5014997 122.0129988  22.5050012 112.7884997 122.8859988
  23.5440012 111.9554997 122.1649988  22.8397488 112.4670294 122.1531050
  32.5690012  95.0324997 139.5219988  32.6460012  94.6064997 140.3759988
  33.4630012  95.0464997 139.1789988  32.7003428  94.9760879 139.5925310
  35.7450012 111.1054997 138.2139988  34.9630012 110.9194997 137.6939988
  35.6730012 112.0344997 138.4319988  35.6282274 111.2056643 138.1723018
  50.1510012 104.9914997 128.2449988  50.2400012 105.9354997 128.1129988
  49.5130012 104.7164997 127.5869988  50.0769081 105.0834830 128.1379614
  49.0840012 104.2464997 131.6639988  49.0460012 103.6004997 132.3689988
  48.7620012 103.7804997 130.8929988  49.0352333 104.0949408 131.6562978
  41.4530012 103.8614997 133.2569988  41.4940012 103.2354997 133.9799988
  42.1560012 104.4854997 133.4389988  41.5536363 103.8601196 133.3806044
  52.7900012 107.1854997 129.9649988  52.3500012 106.4654997 130.4159988
  52.7770012 107.9064997 130.5949988  52.7280226 107.1843731 130.1118494
  42.3760012 108.3114997 131.7919988  42.0070012 107.5094997 131.4219988
  43.3170012 108.1424997 131.8379988  42.4527289 108.1790153 131.7476316
  38.9860012 101.9714997 127.1849988  38.5390012 102.8174997 127.1659988
  38.4250012 101.3914997 126.6689988  38.8489900 102.0089916 127.1126801
  39.6970012 104.1334997 129.3099988  39.9100012 103.3634997 129.8379988
  40.4350012 104.2224997 128.7069988  39.8259044 104.0401968 129.3007123
  49.9020012 112.2904997 130.1769988  50.5220012 111.6134997 129.9039988
  49.6940012 112.0724997 131.0859988  49.9586726 112.1684800 130.2624812
  47.4740012 106.6794997 132.0699988  47.7780012 105.9934997 131.4749988
  48.1950012 106.7974997 132.6879988  47.6130671 106.6016304 132.0721816
  56.1370012  98.2804997 132.9309988  56.1860012  98.8904997 133.6659988
  56.5620012  98.7414997 132.2079988  56.2011746  98.4263796 132.9339175
  50.6150012 101.0734997 132.3969988  50.7570012 100.1274997 132.4179988
  50.5080012 101.2804997 131.4689988  50.6199919 100.9718246 132.2743408
  43.7690012  99.1744997 129.6699988  43.8130012 100.0344997 129.2509988
  43.3120012  98.6224997 129.0359988  43.7132240  99.2174422 129.5269864
  51.4920012  99.3054997 128.0709988  52.1380012  98.9764997 128.6949988
  52.0020012  99.8234997 127.4479988  51.6494299  99.3304450 128.0722731
  40.3900012 101.5714997 130.4319988  41.0430012 101.0214997 130.8639988
  40.4140012 101.2974997 129.5149988  40.4826683 101.4591466 130.3672123
  45.5460012 103.1214997 129.6469988  46.1620012 102.5954997 130.1569988
  44.9600012 102.4814997 129.2439988  45.5510810 102.9629208 129.6623173
  56.5280012  99.7584997 135.1659988  55.8400012 100.4164997 135.0709988
  56.5440012  99.5614997 136.1029988  56.4359540  99.8219819 135.2795990
  42.5800012  98.0924997 133.7439988  42.3610012  98.6224997 132.9779988
  41.9120012  98.3194997 134.3909988  42.4597600  98.1956906 133.7266379
  49.9490012 107.5924997 127.2879988  49.6530012 107.2704997 126.4369988
  49.6240012 108.4924997 127.3289988  49.8646371 107.6700215 127.1771801
  45.1490012 105.7684997 134.0309988  44.4090012 106.3664997 134.1349988
  45.8630012 106.3224997 133.7159988  45.1442237 105.9252831 134.0026465
  53.2560012  98.5964997 130.0509988  53.0400012  97.8304997 130.5839988
  53.9110012  99.0684997 130.5639988  53.3150632  98.5555889 130.1932861
  42.1730012  99.9844997 131.6959988  42.7870012 100.6174997 132.0689988
  42.6850012  99.5124997 131.0399988  42.3261981 100.0072267 131.6582908
  43.5560012 107.7324997 134.8179988  43.5510012 108.6124997 134.4399988
  42.7030012 107.6494997 135.2429988  43.4399464 107.8416117 134.8237907
  39.6770012 107.4034997 125.5999988  39.4050012 107.6324997 124.7119988
  39.7230012 108.2414997 126.0609988  39.6459482 107.5481318 125.5406273
  53.3020012 109.0254997 132.3129988  52.3610012 109.0834997 132.4749988
  53.5790012 109.9314997 132.1759988  53.2104679 109.1559443 132.3166815
  53.6030012  97.3114997 133.7309988  52.8670012  97.9224997 133.6929988
  54.2860012  97.7264997 133.2039988  53.5946541  97.4511374 133.6545832
  46.6060012  95.3984997 131.1959988  46.4890012  94.4494997 131.1419988
  45.7510012  95.7304997 131.4699988  46.4744212  95.3135571 131.2256497
  51.5540012 110.8064997 128.9379988  51.9800012 110.0994997 128.4529988
  51.8710012 111.6074997 128.5219988  51.6551683 110.8181017 128.8153680
  52.7140012 108.7074997 127.4469988  52.4560012 108.0174997 126.8359988
  52.7850012 108.2644997 128.2929988  52.6882856 108.5532124 127.4776885
  54.4000012 107.2734997 135.9239988  54.5400012 106.6824997 135.1849988
  54.5670012 108.1464997 135.5679988  54.4417411 107.3105428 135.7746894
  48.8730012 104.2354997 125.6969988  48.1610012 104.7704997 125.3449988
  49.5640012 104.2914997 125.0369988  48.8690132 104.3162543 125.5596289
  48.9260012 102.6934997 122.7359988  49.6270012 102.7154997 123.3869988
  49.2290012 102.0654997 122.0789988  49.0628133 102.6117070 122.7363369
  56.2420012 103.6134997 133.9899988  55.5890012 104.3084997 134.0799988
  56.7070012 103.8234997 133.1809988  56.2155274 103.7370643 133.8928462
  52.2780012 104.4454997 126.6489988  51.5460012 104.6734997 127.2219988
  52.7260012 103.7314997 127.1029988  52.2382725 104.3802145 126.7888816
  52.1760012 102.6194997 135.7159988  52.2560012 103.3824997 136.2879988
  51.5740012 102.8984997 135.0259988  52.1055756 102.7617134 135.7010589
  43.9240012 105.0754997 128.5309988  43.5930012 104.7054997 127.7129988
  44.5120012 104.4054997 128.8779988  43.9581873 104.9341156 128.4658102
  45.2900012 108.5034997 131.2119988  45.1960012 107.9254997 130.4559988
  46.0200012 108.1324997 131.7089988  45.3757387 108.3741663 131.1755342
  44.2900012 103.8444997 132.1649988  44.8560012 103.9654997 131.4019988
  44.6090012 104.4814997 132.8029988  44.4105474 103.9472219 132.1469862
  50.5990012 109.3474997 132.8989988  50.3590012 110.0094997 133.5469988
  50.4010012 108.5134997 133.3239988  50.5393808 109.3253134 133.0451524
  45.1700012 108.2434997 136.8819988  44.8590012 109.0254997 137.3369988
  44.5200012 108.0904997 136.1959988  45.0395558 108.3299105 136.8515871
  51.1490012 103.6074997 124.3339988  51.7290012 103.7574997 125.0809988
  51.5630012 104.0784997 123.6099988  51.2842997 103.6916578 124.3384058
  42.0900012 104.4414997 136.1099988  42.1610012 105.0924997 136.8089988
  41.2000012 104.5444997 135.7749988  41.9793005 104.5445427 136.1603495
  48.8760012 110.3444997 127.7689988  49.3500012 110.6394997 128.5459988
  48.3130012 111.0824997 127.5359988  48.8648184 110.4847247 127.8439628
  43.4100012 110.3154997 137.6449988  43.4170012 110.1794997 136.6979988
  42.4940012 110.1974997 137.8969988  43.2871714 110.2809430 137.5494666
  54.8480012  95.3574997 124.1469988  53.9480012  95.4964997 124.4419988
  55.1000012  96.1884997 123.7449988  54.7588702  95.4889074 124.1330205
  42.9140012 104.1454997 126.1199988  42.6220012 104.9134997 125.6299988
  42.2400012 103.4854997 125.9579988  42.7828111 104.1615587 126.0308978
  56.0370012 109.7234997 122.5229988  56.1110012 110.6624997 122.6939988
  56.9430012 109.4184997 122.4669988  56.1695100 109.8106722 122.5388119
  39.0070012 106.5084997 134.9349988  38.5060012 106.4804997 134.1199988
  39.0120012 105.6024997 135.2449988  38.9390944 106.3822396 134.8653226
  38.7570012 109.2884997 131.8189988  39.7030012 109.1444997 131.7999988
  38.6450012 110.0724997 132.3559988  38.8712727 109.3748046 131.8890072
  56.9550012 109.9544997 137.5019988  56.9060012 108.9994997 137.4649988
  56.1280012 110.2224997 137.9029988  56.8364940 109.8598998 137.5511375
  47.9340012 109.5284997 136.3779988  48.0210012 110.3544997 136.8529988
  47.0700012 109.1984997 136.6269988  47.8291964 109.5969878 136.4766549
  48.3480012 113.3004997 126.1839988  48.2730012 113.1794997 125.2369988
  48.3810012 114.2504997 126.3019988  48.3422068 113.4122646 126.0704967
  42.0010012 112.0894997 127.9649988  42.1540012 111.7414997 128.8429988
  41.1510012 111.7334997 127.7099988  41.9069166 111.9936216 128.0508079
  51.4500012 112.4544997 123.1859988  51.8250012 111.7104997 122.7149988
  51.4540012 112.1844997 124.1049988  51.5019125 112.3160986 123.2456483
  51.1190012 112.3804997 125.9349988  50.1830012 112.4804997 126.1139988
  51.3990012 111.6714997 126.5139988  51.0289553 112.2983406 126.0377087
  54.1070012 101.4474997 137.9819988  53.7000012 101.9284997 137.2609988
  54.1480012 100.5424997 137.6739988  54.0568437 101.3909374 137.8416683
  41.2560012 107.8314997 135.9789988  41.4720012 107.4704997 136.8379988
  40.4010012 107.4574997 135.7689988  41.1699292 107.7314111 136.0683386
  43.8750012  96.3014997 131.9739988  43.0130012  96.2144997 131.5659988
  43.8520012  97.1574997 132.4019988  43.7540409  96.4052883 131.9760589
  48.5380012  96.0234997 135.3489988  48.9580012  95.6084997 136.1019988
  47.6050012  95.8454997 135.4659988  48.4693644  95.9425900 135.4679539
  51.8640012  99.7794997 136.2019988  51.3500012  99.6534997 136.9999988
  51.7090012 100.6914997 135.9579988  51.7726852  99.8856132 136.2782158
  52.6270012 104.6404997 121.9639988  52.6690012 104.4174997 121.0339988
  53.4760012 105.0394997 122.1529988  52.7475280 104.6639438 121.8623554
  48.1990012  98.5164997 122.6339988  47.9460012  98.5354997 123.5569988
  47.9430012  97.6444997 122.3319988  48.1297481  98.4012558 122.7196175
  43.9660012 101.2674997 133.0689988  43.3240012 101.2264997 133.7779988
  44.0030012 102.1934997 132.8309988  43.8830664 101.3871430 133.1339219
  43.9630012 101.4884997 127.9809988  43.0700012 101.1474997 127.9219988
  44.4130012 101.1114997 127.2249988  43.9018130 101.3909631 127.8707702
  49.4980012 101.9044997 126.7979988  49.0890012 102.7194997 126.5069988
  50.2190012 101.7644997 126.1839988  49.5394537 101.9972018 126.6751342
  48.6000012 102.0794997 138.2859988  48.0380012 101.3754997 138.6069988
  49.4270012 101.9594997 138.7539988  48.6347095 101.9667883 138.3932330
  50.5030012 101.3504997 129.6119988  50.3080012 101.9554997 128.8969988
  50.6840012 100.5164997 129.1779988  50.5007614 101.3206300 129.4554405
  41.7160012 101.5874997 134.9359988  41.6780012 101.9874997 135.8049988
  41.2250012 100.7704997 135.0269988  41.6444684 101.5318069 135.0671059
  45.0820012  98.9614997 121.7349988  44.6510012  98.5164997 122.4649988
  44.3640012  99.3334997 121.2229988  44.9259438  98.9508940 121.7656799
  38.3240012  98.7034997 128.7869988  38.9550012  98.6744997 129.5059988
  38.7730012  98.2784997 128.0559988  38.4710918  98.6420836 128.7866441
  39.5980012  99.4494997 124.2109988  40.0720012 100.0404997 123.6259988
  38.8810012  99.9804997 124.5579988  39.5659341  99.6020867 124.1778836
  49.7670012 102.9884997 134.2829988  50.0900012 102.3574997 133.6399988
  49.3270012 102.4534997 134.9439988  49.7517484 102.8298387 134.2843198
  46.5440012  98.9154997 129.0669988  45.6330012  98.9724997 129.3559988
  47.0500012  98.8554997 129.8779988  46.4876899  98.9151941 129.2161184
  41.3730012 100.5444997 127.8939988  40.4830012 100.6444997 127.5539988
  41.6690012  99.7024997 127.5479988  41.2912823 100.4443546 127.8007213
  45.0260012 100.5444997 125.5509988  45.9570012 100.6734997 125.7289988
  44.8110012 101.2144997 124.9009988  45.1244247 100.6526565 125.4875747
  50.9490012  98.1504997 132.3319988  50.2730012  98.2814997 132.9959988
  50.4640012  97.9954997 131.5209988  50.7907146  98.1475157 132.3134469
  43.7000012 101.7394997 123.1169988  43.1570012 101.3594997 122.4259988
  44.5330012 101.9334997 122.6889988  43.7383631 101.7137125 122.9644501
  54.2370012 113.8224997 138.6079988  54.4370012 114.2464997 137.7739988
  54.8920012 114.1654997 139.2149988  54.3530072 113.9269857 138.5758592
  41.8350012 106.2964997 138.2159988  42.5670012 106.5504997 138.7779988
  41.0550012 106.5004997 138.7319988  41.8297073 106.3588160 138.3626151
  47.8640012 101.7034997 130.9539988  48.4290012 101.1564997 130.4069988
  47.7170012 101.1814997 131.7429988  47.9213380 101.5582259 130.9858695
  42.8660012  97.8394997 127.3729988  42.5490012  96.9374997 127.3369988
  43.6480012  97.8414997 126.8199988  42.9282408  97.7162474 127.2933569
  46.4910012 100.0914997 133.3679988  45.6550012 100.5454997 133.4789988
  47.0150012 100.3674997 134.1199988  46.4475416 100.1908660 133.4848119
  47.0350012 106.3044997 125.0529988  46.2900012 105.7974997 124.7309988
  46.9010012 106.3534997 125.9999988  46.9148776 106.2416940 125.1368647
  54.1850012 105.4374997 133.8399988  54.8270012 105.8944997 133.2959988
  53.3550012 105.5504997 133.3769988  54.1605963 105.5152704 133.7030177
  50.9330012  99.1184997 123.2519988  49.9940012  99.2304997 123.1009988
  51.2300012  99.9754997 123.5589988  50.8447583  99.2495981 123.2728337
  48.5540012 106.4884997 136.2899988  48.2090012 106.1074997 137.0969988
  48.3540012 107.4224997 136.3609988  48.4797527 106.5625135 136.4100689
  51.6510012 100.9854997 124.9129988  52.5430012 100.8484997 125.2319988
  51.7080012 101.7764997 124.3759988  51.7806504 101.0736052 124.8840818
  42.1600012 105.5994997 130.8229988  42.9050012 105.5974997 130.2219988
  42.2380012 104.7764997 131.3039988  42.2724995 105.4878887 130.8058282
  49.1610012 107.7634997 124.0789988  48.8650012 108.5894997 124.4599988
  48.4580012 107.1434997 124.2749988  49.0254914 107.7928199 124.1576443
  39.1680012 104.0604997 136.1379988  39.3910012 103.6424997 136.9699988
  38.5660012 103.4474997 135.7149988  39.1171759 103.9204668 136.1947022
  46.1840012 103.5774997 138.3509988  45.8880012 103.4114997 137.4559988
  47.1160012 103.3574997 138.3399988  46.2694166 103.5250640 138.2270536
  50.8050012 108.9504997 136.2409988  49.9040012 109.1334997 135.9729988
  50.8390012 109.2094997 137.1609988  50.6863139 109.0105849 136.3288099
  56.5360012 101.1954997 124.6079988  55.9820012 100.7994997 123.9359988
  56.6360012 102.1054997 124.3299988  56.4737059 101.2643586 124.4784401
  56.4990012 106.9954997 137.4449988  55.6480012 107.2334997 137.0779988
  57.0900012 106.9784997 136.6919988  56.4622487 107.0258258 137.2928893
  54.8310012 109.9814997 125.0729988  54.4580012 109.1554997 125.3819988
  55.1090012 109.7984997 124.1749988  54.8175222 109.8437430 124.9939473
  51.9920012 104.7894997 132.0939988  51.0630012 104.5574997 132.0669988
  52.4430012 104.0124997 131.7639988  51.9259216 104.6527238 132.0456917
  44.5350012 109.1174997 128.2269988  45.0620012 109.8904997 128.0269988
  43.6550012 109.3424997 127.9249988  44.4882031 109.2537545 128.1587912
  40.2900012 103.9794997 122.8139988  40.9060012 104.6064997 123.1939988
  39.4280012 104.2954997 123.0859988  40.2577698 104.1079430 122.9027183
  45.9620012 106.7804997 127.8029988  45.7210012 107.7054997 127.8449988
  45.2210012 106.3214997 128.1999988  45.8289225 106.8450933 127.8623742
  46.4770012 110.9294997 134.1189988  46.8390012 111.7844997 133.8849988
  47.0080012 110.6374997 134.8589988  46.5984473 111.0071060 134.1870855
  44.6450012 111.8024997 127.3489988  43.6950012 111.9074997 127.3999988
  44.9970012 112.6224997 127.6929988  44.5624195 111.9278800 127.4025502
  50.0210012 107.0284997 133.8189988  49.5950012 106.8014997 134.6459988
  50.6010012 106.2904997 133.6369988  50.0411868 106.8975299 133.9075830
  52.2240012 107.9574997 122.8929988  52.5770012 107.5774997 123.6969988
  51.2750012 107.8644997 122.9799988  52.1440918 107.8928956 123.0148532
  52.6790012 111.5804997 136.2889988  52.0780012 111.0254997 135.7929988
  52.9610012 112.2474997 135.6619988  52.6348804 111.5946625 136.1364849
  56.7270012 112.4374997 123.0939988  57.4710012 113.0234997 122.9539988
  56.0330012 113.0054997 123.4269988  56.7349899 112.5945798 123.1198778
  40.8020012  98.8134997 135.6959988  39.9090012  99.1524997 135.6279988
  40.7030012  97.9584997 136.1139988  40.6664164  98.7442588 135.7432235
  53.0900012 106.6304997 125.1199988  52.8120012 105.9024997 125.6759988
  54.0170012 106.7494997 125.3249988  53.1773124 106.5468802 125.2238845
  40.4530012 110.6184997 134.1309988  40.6700012 109.6864997 134.0999988
  40.6990012 110.8924997 135.0139988  40.5159549 110.5280636 134.2461763
  46.3150012 109.0694997 121.3399988  46.5540012 108.3214997 120.7929988
  46.0460012 108.6814997 122.1729988  46.3113675 108.9146638 121.3776865
  45.2520012 108.6394997 123.7959988  45.3980012 108.1194997 124.5859988
  45.2490012 109.5464997 124.1029988  45.2715792 108.6908842 123.9456117
  41.7050012 105.8924997 124.3069988  41.0190012 106.2444997 124.8739988
  42.2270012 106.6554997 124.0599988  41.6816852 106.0438578 124.3512118
  49.5360012  98.5544997 134.5859988  50.2350012  98.6284997 135.2359988
  49.1550012  97.6904997 134.7399988  49.5801767  98.4477624 134.6958322
  50.3210012  98.2064997 125.6829988  50.5410012  98.6784997 124.8799988
  50.8790012  98.6014997 126.3529988  50.4264968  98.3244285 125.6637331
  47.9890012 110.3374997 124.5459988  47.1730012 110.8344997 124.5979988
  48.5190012 110.8124997 123.9059988  47.9489161 110.4697722 124.4665956
  47.5210012  99.9344997 126.5179988  48.3330012 100.4394997 126.5639988
  47.2760012  99.7894997 127.4319988  47.5990520  99.9840375 126.6478517
  48.0560012 100.9204997 135.7019988  48.1750012 101.4944997 136.4599988
  48.7120012 100.2324997 135.8169988  48.1609025 100.9059858 135.8211321
  48.4040012  97.0154997 127.4559988  48.0580012  97.6334997 128.0999988
  49.0630012  97.5164997 126.9739988  48.4456968  97.1676278 127.4789383
  45.3280012 111.3814997 124.5269988  45.4880012 112.1804997 124.0269988
  45.1300012 111.6874997 125.4119988  45.3231637 111.5324020 124.5781144
  44.0620012  98.0784997 124.1429988  43.9790012  98.9674997 124.4899988
  44.9520012  97.8134997 124.3749988  44.1709469  98.1641430 124.2217626
  54.2610012  98.8274997 136.5369988  53.3440012  99.0904997 136.4499988
  54.5960012  98.8244997 135.6409988  54.1808613  98.8630761 136.4038837
  52.8630012 102.5784997 130.6329988  52.0650012 102.1634997 130.3049988
  53.3080012 101.8874997 131.1239988  52.8139885 102.4283543 130.6544889
  42.3210012 108.5064997 123.2039988  42.9130012 109.2054997 123.4799988
  42.7800012 108.0734997 122.4839988  42.4641142 108.5437049 123.1444830
  40.6370012 101.1704997 122.3199988  40.5920012 102.1094997 122.4979988
  39.7490012 100.9344997 122.0499988  40.5108574 101.2671892 122.3078912
  53.9490012 111.8344997 132.2559988  53.7940012 112.5124997 131.5979988
  54.8820012 111.9064997 132.4589988  54.0538657 111.9369546 132.1934360
  41.4450012  95.9524997 130.9929988  41.2160012  96.0114997 130.0649988
  41.0020012  95.1604997 131.2989988  41.3538530  95.8535753 130.9074786
  40.3750012 109.8924997 127.1529988  39.5430012 110.3654997 127.1799988
  40.9210012 110.4024997 126.5549988  40.3350352 110.0261332 127.0758463
  39.6630012 112.5054997 138.4829988  40.2040012 112.2884997 139.2429988
  39.1820012 111.6994997 138.2929988  39.6719951 112.3669270 138.5612576
  44.2610012 111.4244997 140.1029988  45.0280012 110.9654997 140.4439988
  44.2390012 111.1984997 139.1739988  44.3631275 111.3310186 140.0240101
  48.3530012 110.9324997 121.4789988  47.7090012 110.3014997 121.7999988
  49.1150012 110.4014997 121.2469988  48.3678077 110.7742920 121.4916011
  50.8380012 109.8044997 138.8329988  50.4870012 108.9484997 139.0759988
  51.5640012 109.9474997 139.4399988  50.8880769 109.7065636 138.9483619
  52.9570012 110.7494997 121.7119988  53.2400012 109.9554997 122.1649988
  53.6970012 110.9824997 121.1519988  53.0958006 110.6723376 121.6982715
  39.5700012 106.3154997 139.4369988  39.7140012 105.4134997 139.1509988
  38.7980012 106.6014997 138.9499988  39.4852753 106.2306816 139.3319505
  43.9120012 106.6594997 121.5699988  43.9760012 105.8654997 122.1009988
  44.5650012 106.5404997 120.8799988  44.0090241 106.5347148 121.5494317
  46.2260012 106.2854997 138.8699988  45.8970012 106.5564997 138.0129988
  46.3780012 105.3444997 138.7829988  46.2014809 106.1953862 138.7408244
  49.2640012 107.7064997 121.3059988  48.9950012 107.8864997 122.2069988
  49.0580012 106.7804997 121.1739988  49.1993427 107.6060261 121.4115073
  51.9600012 106.2014997 136.2529988  52.7060012 106.7894997 136.1339988
  51.2030012 106.7834997 136.3169988  51.9597820 106.3607143 136.2453590
  40.4030012 103.5154997 138.8569988  40.8110012 102.6584997 138.7359988
  40.1430012 103.5304997 139.7779988  40.4237568 103.4000807 138.9649588
  45.0610012 104.6314997 123.8759988  44.6010012 104.1474997 124.5619988
  45.3160012 103.9634997 123.2399988  45.0324902 104.4748731 123.8839334
  44.3500012 102.5244997 136.2319988  43.7320012 103.1994997 136.5119988
  44.6940012 102.8454997 135.3979988  44.3119132 102.6602411 136.1576262
  46.1320012 102.8744997 122.1379988  45.9520012 102.7204997 121.2109988
  47.0820012 102.9824997 122.1829988  46.2357776 102.8680175 122.0171843
  49.3700012 104.9964997 139.5089988  50.3230012 105.0794997 139.4819988
  49.2090012 104.2844997 140.1289988  49.4786426 104.9116746 139.5890579
  55.5220012 105.2294997 121.5839988  55.2480012 104.8044997 120.7709988
  55.5610012 106.1604997 121.3669988  55.4897699 105.2972484 121.4433610
  44.6890012  99.8794997 137.3139988  44.8390012  99.1504997 136.7119988
  44.6920012 100.6564997 136.7549988  44.7099302  99.8847851 137.1560692
  45.1020012  98.2494997 134.8069988  45.6380012  98.7004997 134.1549988
  44.2500012  98.1414997 134.3839988  45.0602178  98.2966390 134.6605756
  46.6840012 103.6884997 135.0459988  47.4340012 103.5324997 134.4729988
  46.3450012 104.5404997 134.7709988  46.7408921 103.7822968 134.9303561
  51.0990012 101.5034997 140.0749988  51.2920012 100.5724997 139.9629988
  51.9570012 101.9284997 140.0639988  51.2412934 101.4336531 140.0582031
  52.4160012 104.2924997 138.1519988  52.1350012 105.0014997 137.5739988
  53.3590012 104.2194997 138.0009988  52.5049291 104.3796711 138.0524967
  43.1680012 101.0774997 139.2259988  42.4010012 100.5454997 139.0149988
  43.8470012 100.7674997 138.6259988  43.1547877 100.9628300 139.1160716
  45.9080012  95.7054997 135.2379988  45.8090012  96.6524997 135.1329988
  45.1650012  95.3334997 134.7619988  45.7941184  95.7845863 135.1593621
  47.1720012 100.0274997 138.8019988  46.9360012  99.8074997 139.7029988
  46.3880012  99.8204997 138.2919988  47.0338504  99.9694586 138.8563431
  49.8870012  99.1544997 137.8769988  48.9400012  99.1864997 138.0099988
  50.2000012  98.5294997 138.5309988  49.7996707  99.0743998 137.9836060
  51.5210012  97.7884997 139.8829988  51.4250012  96.8364997 139.8769988
  51.2000012  98.0574997 140.7429988  51.4644070  97.6944035 139.9985441
  41.3480012  98.9984997 138.9299988  41.5600012  98.2914997 138.3199988
  41.2370012  98.5604997 139.7739988  41.3619721  98.8427084 138.9606843
  46.1290012  94.9994997 137.9089988  46.8410012  94.3594997 137.8949988
  46.0280012  95.2664997 136.9959988  46.2128066  94.9480079 137.7835677
  46.4830012  96.6824997 139.9629988  46.3510012  96.2064997 139.1429988
  45.8840012  97.4264997 139.9079988  46.3839071  96.7179618 139.8432886
  46.0290012 113.5654997 123.1389988  46.9620012 113.7234997 123.2829988
  45.7650012 114.2404997 122.5149988  46.1209888 113.6784510 123.0742842
  39.5980012 108.2014997 122.6219988  40.5120012 108.2804997 122.8959988
  39.6050012 107.5144997 121.9559988  39.7241131 108.1193961 122.5694393
  38.2470012 113.5944997 127.6999988  37.6000012 113.1324997 127.1669988
  38.6010012 112.9224997 128.2819988  38.2063849 113.4404723 127.7057959
  39.1170012 111.6754997 129.5039988  38.7820012 110.7954997 129.6759988
  39.3390012 112.0204997 130.3689988  39.1011783 111.6017500 129.6444208
  56.6650012 112.4844997 132.4849988  56.6440012 112.6694997 133.4239988
  57.3560012 113.0534997 132.1439988  56.7554618 112.5866606 132.5673864
  56.2290012 112.0524997 135.4069988  55.7410012 111.3164997 135.0349988
  56.7780012 111.6584997 136.0849988  56.2364820 111.8985889 135.4477813
  54.6790012 107.8414997 140.0449988  53.8130012 107.7364997 140.4389988
  55.0560012 108.6004997 140.4909988  54.6113308 107.9296900 140.1592393
  55.9800012 106.0984997 125.5589988  56.8300012 106.5194997 125.6859988
  55.9860012 105.3584997 126.1659988  56.0971372 106.0560803 125.6584344
  56.3750012 104.1514997 127.3819988  55.6480012 103.6724997 127.7799988
  56.9560012 104.3574997 128.1149988  56.3540473 104.1138103 127.5354528
  56.1340012 106.9364997 132.3299988  56.9670012 106.5584997 132.0499988
  56.2460012 107.8794997 132.2109988  56.2632647 107.0122218 132.2755487
  54.6200012 109.8144997 134.6369988  53.9730012 110.1394997 135.2629988
  54.1030012 109.3744997 133.9629988  54.4614029 109.7995004 134.6315827
  56.6430012 104.0524997 123.7739988  56.1210012 104.4094997 123.0549988
  56.6100012 104.7274997 124.4519988  56.5671634 104.1925413 123.7673145
  54.9920012 101.2924997 122.3239988  55.0880012 101.9594997 121.6439988
  54.8520012 100.4764997 121.8429988  54.9862272 101.2735655 122.1658347
  54.1610012 102.6724997 127.9449988  54.0110012 101.7274997 127.9249988
  53.8080012 102.9534997 128.7889988  54.0927448 102.5811481 128.0563705
  39.1970012 104.7504997 131.9559988  39.3810012 104.6684997 131.0199988
  40.0460012 104.6264997 132.3789988  39.3370151 104.7225073 131.8851451
  55.0180012 104.6424997 137.5839988  55.6010012 103.9084997 137.7759988
  55.5820012 105.4144997 137.6309988  55.1739769 104.6464227 137.6166159
  56.5140012 102.5454997 138.2689988  55.6510012 102.1664997 138.1029988
  57.1190012 101.8064997 138.1939988  56.4776119 102.3938268 138.2361528
  54.2390012  98.7004997 121.4419988  54.8500012  98.3294997 122.0789988
  53.4030012  98.2794997 121.6379988  54.2095032  98.5927554 121.5557035
  53.8720012 100.2554997 126.4079988  54.1520012  99.3484997 126.5319988
  54.6310012 100.6894997 126.0189988  54.0129277 100.1900942 126.3723682
  54.4840012 100.8364997 131.8439988  55.4170012 101.0484997 131.8089988
  54.2490012 100.9384997 132.7659988  54.5799244 100.8793100 131.9638892
  54.5130012 101.5734997 134.6199988  53.6700012 101.8414997 134.9859988
  54.9550012 102.3954997 134.4089988  54.4574158 101.7213291 134.6415491
  38.7940012 100.0214997 138.0969988  39.7140012  99.8994997 138.3329988
  38.3450012  99.2714997 138.4859988  38.8591580  99.9033727 138.1819006
  56.7960012  95.5534997 139.9729988  57.1460012  94.8994997 139.3679988
  56.9430012  96.3904997 139.5329988  56.8637887  95.5771548 139.8306858
  54.4850012  97.5184997 126.4559988  54.6680012  97.0694997 127.2819988
  53.8860012  96.9334997 125.9929988  54.4290202  97.3779975 126.5063275
  40.0150012  98.3334997 130.9879988  40.4610012  97.5414997 131.2899988
  40.4820012  99.0494997 131.4179988  40.1390831  98.3220685 131.0874006
  38.3190012 101.3324997 132.0569988  38.8110012 101.1114997 131.2659988
  38.6820012 102.1734997 132.3379988  38.4353126 101.4158357 131.9867531
  56.3160012  97.6624997 138.3219988  55.3980012  97.9334997 138.2869988
  56.4390012  97.1274997 137.5379988  56.2069729  97.6272508 138.2111923
  56.3520012  97.5854997 122.9839988  56.7640012  96.8644997 122.5089988
  57.0340012  98.2554997 123.0429988  56.5005885  97.5772368 122.9268915
  38.6330012  97.5904997 126.1109988  37.7080012  97.7994997 125.9819988
  39.0870012  98.0744997 125.4209988  38.5677292  97.6845343 126.0000720
  53.4040012 112.5744997 128.0569988  54.0560012 112.2274997 127.4489988
  53.9140012 113.0634997 128.7029988  53.5622637 112.5930597 128.0610236
  38.5970012  96.3284997 134.4549988  37.9320012  96.0824997 135.0989988
  38.1540012  96.9504997 133.8779988  38.4461318  96.3789410 134.4650898
  40.7890012 109.5034997 138.5999988  39.9680012 109.6784997 138.1389988
  40.5360012 109.4304997 139.5199988  40.6425585 109.5175544 138.6613561
  43.7430012 110.4784997 134.8579988  43.3180012 111.2874997 134.5759988
  44.6470012 110.5634997 134.5559988  43.8069975 110.6009300 134.7784816
  48.0540012 111.8774997 137.8179988  48.2390012 111.5434997 138.6959988
  48.9000012 112.1864997 137.4959988  48.1937539 111.8736047 137.8945605
  50.3990012 113.1634997 137.0619988  51.0760012 112.5304997 136.8219988
  50.7210012 113.5644997 137.8689988  50.5351637 113.1311154 137.1382793
  55.3160012  95.7524997 136.1409988  54.5040012  96.0774997 135.7539988
  55.5490012  94.9924997 135.6079988  55.2362203  95.6942758 136.0158880
  41.1450012 113.7344997 134.9059988  40.4240012 114.1744997 134.4549988
  40.7790012 113.4834997 135.7539988  40.9969651 113.7607242 134.9589640
  43.6120012 113.3344997 133.9359988  42.7470012 113.4064997 134.3399988
  43.5570012 113.8814997 133.1519988  43.4862085 113.4182685 133.8853362
  48.3220012 113.2224997 133.1109988  47.8660012 113.7514997 132.4569988
  48.4850012 113.8254997 133.8359988  48.2816068 113.3764607 133.1194838
  50.6500012 112.1004997 134.0559988  49.7450012 112.2654997 133.7899988
  51.0790012 112.9534997 133.9909988  50.5841324 112.2384339 134.0107976
  53.2540012 113.6704997 134.3509988  53.0720012 114.5864997 134.1409988
  53.4310012 113.2604997 133.5049988  53.2530210 113.7404822 134.2077885
  40.5590012 112.3574997 131.8159988  40.5410012 111.9324997 132.6729988
  41.3640012 112.0394997 131.4069988  40.6653529 112.2563013 131.8780946
  42.7010012 111.0674997 130.4709988  42.4820012 110.1514997 130.6409988
  43.5250012 111.2074997 130.9369988  42.7824420 110.9610520 130.5572774
  45.2380012 111.5374997 131.3199988  45.4510012 110.6494997 131.0329988
  45.3020012 111.5034997 132.2739988  45.2758231 111.4113102 131.4097397
  48.7460012  97.2014997 130.4639988  48.0720012  96.5724997 130.7199988
  49.3100012  96.7174997 129.8609988  48.7299230  97.0498744 130.4175340
  53.8890012  95.3094997 130.5769988  54.4930012  95.8564997 130.0749988
  53.0190012  95.6284997 130.3359988  53.8541208  95.4275137 130.4756886
  55.6160012  96.4474997 128.9099988  56.2280012  95.9334997 128.3829988
  55.9980012  97.3254997 128.9329988  55.7513371  96.4957866 128.8410041
  41.0730012  95.8354997 128.2859988  40.2960012  95.6014997 127.7789988
  41.6030012  95.0384997 128.2949988  41.0382330  95.6956988 128.2177742
  39.9090012  95.6334997 124.0899988  40.3480012  96.2444997 123.4979988
  39.2760012  96.1714997 124.5639988  39.8834514  95.7899257 124.0730930
  45.6520012  95.7624997 128.0999988  46.5270012  96.1504997 128.0699988
  45.5160012  95.5474997 129.0219988  45.7533695  95.7865184 128.2206440
  51.2090012  95.7924997 129.7489988  51.2850012  95.8874997 128.7989988
  50.9340012  94.8844997 129.8779988  51.1822321  95.6827867 129.6365079
  52.5620012  95.8184997 125.4409988  51.8600012  96.4334997 125.2309988
  52.1180012  94.9804997 125.5719988  52.4056450  95.7895639 125.4299000
  39.8100012 111.5814997 124.9869988  39.1250012 111.5434997 124.3199988
  39.8140012 112.4944997 125.2759988  39.7166998 111.6996733 124.9346771
  41.7700012  97.5494997 122.5319988  42.2620012  96.9194997 122.0049988
  42.3940012  97.8454997 123.1949988  41.9215688  97.5033804 122.5495482
  46.7960012  97.8424997 124.9889988  46.9740012  97.1964997 125.6719988
  46.7430012  98.6764997 125.4559988  46.8131999  97.8668009 125.1455917
  48.6750012 112.7914997 123.3849988  49.5410012 113.1574997 123.2069988
  48.4280012 112.3514997 122.5709988  48.7602392 112.7821756 123.2506289
  55.3840012 112.3544997 126.0639988  55.1890012 111.6064997 125.4989988
  55.3450012 113.1124997 125.4809988  55.3520380 112.3546099 125.9078384
  41.0310012  96.3494997 137.8039988  40.6650012  95.5844997 138.2459988
  41.9440012  96.3784997 138.0899988  41.1042736  96.2485640 137.9032502
  43.0040012  95.7004997 139.3399988  43.9020012  95.4264997 139.1549988
  42.6170012  94.9574997 139.8039988  43.0746612  95.5625914 139.3773643
  41.6280012 112.5014997 122.0129988  41.3610012 112.7884997 122.8859988
  42.4000012 111.9554997 122.1649988  41.6957488 112.4670294 122.1531050
  51.4250012  95.0324997 139.5219988  51.5020012  94.6064997 140.3759988
  52.3190012  95.0464997 139.1789988  51.5563428  94.9760879 139.5925310
  54.6010012 111.1054997 138.2139988  53.8190012 110.9194997 137.6939988
  54.5290012 112.0344997 138.4319988  54.4842274 111.2056643 138.1723018
  69.0070012 104.9914997 128.2449988  69.0960012 105.9354997 128.1129988
  68.3690012 104.7164997 127.5869988  68.9329081 105.0834830 128.1379614
  67.9400012 104.2464997 131.6639988  67.9020012 103.6004997 132.3689988
  67.6180012 103.7804997 130.8929988  67.8912333 104.0949408 131.6562978
  60.3090012 103.8614997 133.2569988  60.3500012 103.2354997 133.9799988
  61.0120012 104.4854997 133.4389988  60.4096363 103.8601196 133.3806044
  71.6460012 107.1854997 129.9649988  71.2060012 106.4654997 130.4159988
  71.6330012 107.9064997 130.5949988  71.5840226 107.1843731 130.1118494
  61.2320012 108.3114997 131.7919988  60.8630012 107.5094997 131.4219988
  62.1730012 108.1424997 131.8379988  61.3087289 108.1790153 131.7476316
  57.8420012 101.9714997 127.1849988  57.3950012 102.8174997 127.1659988
  57.2810012 101.3914997 126.6689988  57.7049900 102.0089916 127.1126801
  58.5530012 104.1334997 129.3099988  58.7660012 103.3634997 129.8379988
  59.2910012 104.2224997 128.7069988  58.6819044 104.0401968 129.3007123
  68.7580012 112.2904997 130.1769988  69.3780012 111.6134997 129.9039988
  68.5500012 112.0724997 131.0859988  68.8146726 112.1684800 130.2624812
  66.3300012 106.6794997 132.0699988  66.6340012 105.9934997 131.4749988
  67.0510012 106.7974997 132.6879988  66.4690671 106.6016305 132.0721816
  74.9930012  98.2804997 132.9309988  75.0420012  98.8904997 133.6659988
  75.4180012  98.7414997 132.2079988  75.0571746  98.4263796 132.9339175
  69.4710012 101.0734997 132.3969988  69.6130012 100.1274997 132.4179988
  69.3640012 101.2804997 131.4689988  69.4759919 100.9718246 132.2743408
  62.6250012  99.1744997 129.6699988  62.6690012 100.0344997 129.2509988
  62.1680012  98.6224997 129.0359988  62.5692240  99.2174422 129.5269864
  70.3480012  99.3054997 128.0709988  70.9940012  98.9764997 128.6949988
  70.8580012  99.8234997 127.4479988  70.5054299  99.3304450 128.0722731
  59.2460012 101.5714997 130.4319988  59.8990012 101.0214997 130.8639988
  59.2700012 101.2974997 129.5149988  59.3386683 101.4591466 130.3672123
  64.4020012 103.1214997 129.6469988  65.0180012 102.5954997 130.1569988
  63.8160012 102.4814997 129.2439988  64.4070810 102.9629208 129.6623173
  75.3840012  99.7584997 135.1659988  74.6960012 100.4164997 135.0709988
  75.4000012  99.5614997 136.1029988  75.2919540  99.8219819 135.2795990
  61.4360012  98.0924997 133.7439988  61.2170012  98.6224997 132.9779988
  60.7680012  98.3194997 134.3909988  61.3157600  98.1956906 133.7266379
  68.8050012 107.5924997 127.2879988  68.5090012 107.2704997 126.4369988
  68.4800012 108.4924997 127.3289988  68.7206371 107.6700215 127.1771801
  64.0050012 105.7684997 134.0309988  63.2650012 106.3664997 134.1349988
  64.7190012 106.3224997 133.7159988  64.0002237 105.9252831 134.0026465
  72.1120012  98.5964997 130.0509988  71.8960012  97.8304997 130.5839988
  72.7670012  99.0684997 130.5639988  72.1710632  98.5555889 130.1932861
  61.0290012  99.9844997 131.6959988  61.6430012 100.6174997 132.0689988
  61.5410012  99.5124997 131.0399988  61.1821981 100.0072267 131.6582908
  62.4120012 107.7324997 134.8179988  62.4070012 108.6124997 134.4399988
  61.5590012 107.6494997 135.2429988  62.2959464 107.8416117 134.8237907
  58.5330012 107.4034997 125.5999988  58.2610012 107.6324997 124.7119988
  58.5790012 108.2414997 126.0609988  58.5019482 107.5481318 125.5406273
  72.1580012 109.0254997 132.3129988  71.2170012 109.0834997 132.4749988
  72.4350012 109.9314997 132.1759988  72.0664679 109.1559443 132.3166815
  72.4590012  97.3114997 133.7309988  71.7230012  97.9224997 133.6929988
  73.1420012  97.7264997 133.2039988  72.4506541  97.4511374 133.6545832
  65.4620012  95.3984997 131.1959988  65.3450012  94.4494997 131.1419988
  64.6070012  95.7304997 131.4699988  65.3304212  95.3135571 131.2256497
  70.4100012 110.8064997 128.9379988  70.8360012 110.0994997 128.4529988
  70.7270012 111.6074997 128.5219988  70.5111683 110.8181017 128.8153680
  71.5700012 108.7074997 127.4469988  71.3120012 108.0174997 126.8359988
  71.6410012 108.2644997 128.2929988  71.5442856 108.5532124 127.4776885
  73.2560012 107.2734997 135.9239988  73.3960012 106.6824997 135.1849988
  73.4230012 108.1464997 135.5679988  73.2977411 107.3105428 135.7746894
  67.7290012 104.2354997 125.6969988  67.0170012 104.7704997 125.3449988
  68.4200012 104.2914997 125.0369988  67.7250132 104.3162543 125.5596289
  67.7820012 102.6934997 122.7359988  68.4830012 102.7154997 123.3869988
  68.0850012 102.0654997 122.0789988  67.9188133 102.6117070 122.7363369
  75.0980012 103.6134997 133.9899988  74.4450012 104.3084997 134.0799988
  75.5630012 103.8234997 133.1809988  75.0715274 103.7370643 133.8928462
  71.1340012 104.4454997 126.6489988  70.4020012 104.6734997 127.2219988
  71.5820012 103.7314997 127.1029988  71.0942725 104.3802145 126.7888816
  71.0320012 102.6194997 135.7159988  71.1120012 103.3824997 136.2879988
  70.4300012 102.8984997 135.0259988  70.9615756 102.7617134 135.7010589
  62.7800012 105.0754997 128.5309988  62.4490012 104.7054997 127.7129988
  63.3680012 104.4054997 128.8779988  62.8141873 104.9341156 128.4658102
  64.1460012 108.5034997 131.2119988  64.0520012 107.9254997 130.4559988
  64.8760012 108.1324997 131.7089988  64.2317387 108.3741663 131.1755342
  63.1460012 103.8444997 132.1649988  63.7120012 103.9654997 131.4019988
  63.4650012 104.4814997 132.8029988  63.2665474 103.9472219 132.1469862
  69.4550012 109.3474997 132.8989988  69.2150012 110.0094997 133.5469988
  69.2570012 108.5134997 133.3239988  69.3953808 109.3253134 133.0451524
  64.0260012 108.2434997 136.8819988  63.7150012 109.0254997 137.3369988
  63.3760012 108.0904997 136.1959988  63.8955558 108.3299105 136.8515871
  70.0050012 103.6074997 124.3339988  70.5850012 103.7574997 125.0809988
  70.4190012 104.0784997 123.6099988  70.1402997 103.6916578 124.3384058
  60.9460012 104.4414997 136.1099988  61.0170012 105.0924997 136.8089988
  60.0560012 104.5444997 135.7749988  60.8353005 104.5445427 136.1603495
  67.7320012 110.3444997 127.7689988  68.2060012 110.6394997 128.5459988
  67.1690012 111.0824997 127.5359988  67.7208184 110.4847247 127.8439628
  62.2660012 110.3154997 137.6449988  62.2730012 110.1794997 136.6979988
  61.3500012 110.1974997 137.8969988  62.1431714 110.2809430 137.5494666
  73.7040012  95.3574997 124.1469988  72.8040012  95.4964997 124.4419988
  73.9560012  96.1884997 123.7449988  73.6148702  95.4889074 124.1330205
  61.7700012 104.1454997 126.1199988  61.4780012 104.9134997 125.6299988
  61.0960012 103.4854997 125.9579988  61.6388111 104.1615587 126.0308978
  74.8930012 109.7234997 122.5229988  74.9670012 110.6624997 122.6939988
  75.7990012 109.4184997 122.4669988  75.0255100 109.8106722 122.5388119
  57.8630012 106.5084997 134.9349988  57.3620012 106.4804997 134.1199988
  57.8680012 105.6024997 135.2449988  57.7950944 106.3822396 134.8653226
  57.6130012 109.2884997 131.8189988  58.5590012 109.1444997 131.7999988
  57.5010012 110.0724997 132.3559988  57.7272727 109.3748046 131.8890072
  75.8110012 109.9544997 137.5019988  75.7620012 108.9994997 137.4649988
  74.9840012 110.2224997 137.9029988  75.6924940 109.8598998 137.5511375
  66.7900012 109.5284997 136.3779988  66.8770012 110.3544997 136.8529988
  65.9260012 109.1984997 136.6269988  66.6851964 109.5969878 136.4766549
  67.2040012 113.3004997 126.1839988  67.1290012 113.1794997 125.2369988
  67.2370012 114.2504997 126.3019988  67.1982068 113.4122646 126.0704967
  60.8570012 112.0894997 127.9649988  61.0100012 111.7414997 128.8429988
  60.0070012 111.7334997 127.7099988  60.7629166 111.9936216 128.0508079
  70.3060012 112.4544997 123.1859988  70.6810012 111.7104997 122.7149988
  70.3100012 112.1844997 124.1049988  70.3579125 112.3160986 123.2456483
  69.9750012 112.3804997 125.9349988  69.0390012 112.4804997 126.1139988
  70.2550012 111.6714997 126.5139988  69.8849553 112.2983406 126.0377087
  72.9630012 101.4474997 137.9819988  72.5560012 101.9284997 137.2609988
  73.0040012 100.5424997 137.6739988  72.9128437 101.3909374 137.8416683
  60.1120012 107.8314997 135.9789988  60.3280012 107.4704997 136.8379988
  59.2570012 107.4574997 135.7689988  60.0259292 107.7314111 136.0683386
  62.7310012  96.3014997 131.9739988  61.8690012  96.2144997 131.5659988
  62.7080012  97.1574997 132.4019988  62.6100409  96.4052883 131.9760589
  67.3940012  96.0234997 135.3489988  67.8140012  95.6084997 136.1019988
  66.4610012  95.8454997 135.4659988  67.3253644  95.9425900 135.4679539
  70.7200012  99.7794997 136.2019988  70.2060012  99.6534997 136.9999988
  70.5650012 100.6914997 135.9579988  70.6286852  99.8856132 136.2782158
  71.4830012 104.6404997 121.9639988  71.5250012 104.4174997 121.0339988
  72.3320012 105.0394997 122.1529988  71.6035280 104.6639438 121.8623554
  67.0550012  98.5164997 122.6339988  66.8020012  98.5354997 123.5569988
  66.7990012  97.6444997 122.3319988  66.9857481  98.4012558 122.7196175
  62.8220012 101.2674997 133.0689988  62.1800012 101.2264997 133.7779988
  62.8590012 102.1934997 132.8309988  62.7390664 101.3871430 133.1339219
  62.8190012 101.4884997 127.9809988  61.9260012 101.1474997 127.9219988
  63.2690012 101.1114997 127.2249988  62.7578130 101.3909631 127.8707702
  68.3540012 101.9044997 126.7979988  67.9450012 102.7194997 126.5069988
  69.0750012 101.7644997 126.1839988  68.3954537 101.9972018 126.6751342
  67.4560012 102.0794997 138.2859988  66.8940012 101.3754997 138.6069988
  68.2830012 101.9594997 138.7539988  67.4907095 101.9667883 138.3932330
  69.3590012 101.3504997 129.6119988  69.1640012 101.9554997 128.8969988
  69.5400012 100.5164997 129.1779988  69.3567614 101.3206300 129.4554405
  60.5720012 101.5874997 134.9359988  60.5340012 101.9874997 135.8049988
  60.0810012 100.7704997 135.0269988  60.5004684 101.5318069 135.0671059
  63.9380012  98.9614997 121.7349988  63.5070012  98.5164997 122.4649988
  63.2200012  99.3334997 121.2229988  63.7819438  98.9508940 121.7656799
  57.1800012  98.7034997 128.7869988  57.8110012  98.6744997 129.5059988
  57.6290012  98.2784997 128.0559988  57.3270918  98.6420836 128.7866441
  58.4540012  99.4494997 124.2109988  58.9280012 100.0404997 123.6259988
  57.7370012  99.9804997 124.5579988  58.4219341  99.6020867 124.1778836
  68.6230012 102.9884997 134.2829988  68.9460012 102.3574997 133.6399988
  68.1830012 102.4534997 134.9439988  68.6077484 102.8298387 134.2843198
  65.4000012  98.9154997 129.0669988  64.4890012  98.9724997 129.3559988
  65.9060012  98.8554997 129.8779988  65.3436899  98.9151941 129.2161184
  60.2290012 100.5444997 127.8939988  59.3390012 100.6444997 127.5539988
  60.5250012  99.7024997 127.5479988  60.1472823 100.4443545 127.8007213
  63.8820012 100.5444997 125.5509988  64.8130012 100.6734997 125.7289988
  63.6670012 101.2144997 124.9009988  63.9804247 100.6526565 125.4875747
  69.8050012  98.1504997 132.3319988  69.1290012  98.2814997 132.9959988
  69.3200012  97.9954997 131.5209988  69.6467146  98.1475157 132.3134469
  62.5560012 101.7394997 123.1169988  62.0130012 101.3594997 122.4259988
  63.3890012 101.9334997 122.6889988  62.5943631 101.7137125 122.9644501
  73.0930012 113.8224997 138.6079988  73.2930012 114.2464997 137.7739988
  73.7480012 114.1654997 139.2149988  73.2090072 113.9269857 138.5758592
  60.6910012 106.2964997 138.2159988  61.4230012 106.5504997 138.7779988
  59.9110012 106.5004997 138.7319988  60.6857073 106.3588160 138.3626151
  66.7200012 101.7034997 130.9539988  67.2850012 101.1564997 130.4069988
  66.5730012 101.1814997 131.7429988  66.7773380 101.5582259 130.9858695
  61.7220012  97.8394997 127.3729988  61.4050012  96.9374997 127.3369988
  62.5040012  97.8414997 126.8199988  61.7842408  97.7162474 127.2933569
  65.3470012 100.0914997 133.3679988  64.5110012 100.5454997 133.4789988
  65.8710012 100.3674997 134.1199988  65.3035416 100.1908660 133.4848119
  65.8910012 106.3044997 125.0529988  65.1460012 105.7974997 124.7309988
  65.7570012 106.3534997 125.9999988  65.7708776 106.2416940 125.1368647
  73.0410012 105.4374997 133.8399988  73.6830012 105.8944997 133.2959988
  72.2110012 105.5504997 133.3769988  73.0165963 105.5152704 133.7030177
  69.7890012  99.1184997 123.2519988  68.8500012  99.2304997 123.1009988
  70.0860012  99.9754997 123.5589988  69.7007583  99.2495981 123.2728337
  67.4100012 106.4884997 136.2899988  67.0650012 106.1074997 137.0969988
  67.2100012 107.4224997 136.3609988  67.3357527 106.5625135 136.4100689
  70.5070012 100.9854997 124.9129988  71.3990012 100.8484997 125.2319988
  70.5640012 101.7764997 124.3759988  70.6366504 101.0736052 124.8840818
  61.0160012 105.5994997 130.8229988  61.7610012 105.5974997 130.2219988
  61.0940012 104.7764997 131.3039988  61.1284995 105.4878887 130.8058282
  68.0170012 107.7634997 124.0789988  67.7210012 108.5894997 124.4599988
  67.3140012 107.1434997 124.2749988  67.8814914 107.7928199 124.1576443
  58.0240012 104.0604997 136.1379988  58.2470012 103.6424997 136.9699988
  57.4220012 103.4474997 135.7149988  57.9731759 103.9204668 136.1947022
  65.0400012 103.5774997 138.3509988  64.7440012 103.4114997 137.4559988
  65.9720012 103.3574997 138.3399988  65.1254166 103.5250640 138.2270536
  69.6610012 108.9504997 136.2409988  68.7600012 109.1334997 135.9729988
  69.6950012 109.2094997 137.1609988  69.5423139 109.0105849 136.3288099
  75.3920012 101.1954997 124.6079988  74.8380012 100.7994997 123.9359988
  75.4920012 102.1054997 124.3299988  75.3297059 101.2643586 124.4784401
  75.3550012 106.9954997 137.4449988  74.5040012 107.2334997 137.0779988
  75.9460012 106.9784997 136.6919988  75.3182487 107.0258258 137.2928893
  73.6870012 109.9814997 125.0729988  73.3140012 109.1554997 125.3819988
  73.9650012 109.7984997 124.1749988  73.6735222 109.8437430 124.9939473
  70.8480012 104.7894997 132.0939988  69.9190012 104.5574997 132.0669988
  71.2990012 104.0124997 131.7639988  70.7819216 104.6527238 132.0456917
  63.3910012 109.1174997 128.2269988  63.9180012 109.8904997 128.0269988
  62.5110012 109.3424997 127.9249988  63.3442031 109.2537545 128.1587912
  59.1460012 103.9794997 122.8139988  59.7620012 104.6064997 123.1939988
  58.2840012 104.2954997 123.0859988  59.1137698 104.1079430 122.9027183
  64.8180012 106.7804997 127.8029988  64.5770012 107.7054997 127.8449988
  64.0770012 106.3214997 128.1999988  64.6849225 106.8450933 127.8623742
  65.3330012 110.9294997 134.1189988  65.6950012 111.7844997 133.8849988
  65.8640012 110.6374997 134.8589988  65.4544473 111.0071060 134.1870855
  63.5010012 111.8024997 127.3489988  62.5510012 111.9074997 127.3999988
  63.8530012 112.6224997 127.6929988  63.4184195 111.9278800 127.4025502
  68.8770012 107.0284997 133.8189988  68.4510012 106.8014997 134.6459988
  69.4570012 106.2904997 133.6369988  68.8971868 106.8975299 133.9075830
  71.0800012 107.9574997 122.8929988  71.4330012 107.5774997 123.6969988
  70.1310012 107.8644997 122.9799988  71.0000918 107.8928956 123.0148532
  71.5350012 111.5804997 136.2889988  70.9340012 111.0254997 135.7929988
  71.8170012 112.2474997 135.6619988  71.4908804 111.5946625 136.1364849
  75.5830012 112.4374997 123.0939988  76.3270012 113.0234997 122.9539988
  74.8890012 113.0054997 123.4269988  75.5909899 112.5945798 123.1198778
  59.6580012  98.8134997 135.6959988  58.7650012  99.1524997 135.6279988
  59.5590012  97.9584997 136.1139988  59.5224164  98.7442588 135.7432235
  71.9460012 106.6304997 125.1199988  71.6680012 105.9024997 125.6759988
  72.8730012 106.7494997 125.3249988  72.0333124 106.5468802 125.2238845
  59.3090012 110.6184997 134.1309988  59.5260012 109.6864997 134.0999988
  59.5550012 110.8924997 135.0139988  59.3719549 110.5280636 134.2461763
  65.1710012 109.0694997 121.3399988  65.4100012 108.3214997 120.7929988
  64.9020012 108.6814997 122.1729988  65.1673675 108.9146638 121.3776865
  64.1080012 108.6394997 123.7959988  64.2540012 108.1194997 124.5859988
  64.1050012 109.5464997 124.1029988  64.1275792 108.6908842 123.9456117
  60.5610012 105.8924997 124.3069988  59.8750012 106.2444997 124.8739988
  61.0830012 106.6554997 124.0599988  60.5376852 106.0438578 124.3512118
  68.3920012  98.5544997 134.5859988  69.0910012  98.6284997 135.2359988
  68.0110012  97.6904997 134.7399988  68.4361767  98.4477624 134.6958322
  69.1770012  98.2064997 125.6829988  69.3970012  98.6784997 124.8799988
  69.7350012  98.6014997 126.3529988  69.2824968  98.3244285 125.6637331
  66.8450012 110.3374997 124.5459988  66.0290012 110.8344997 124.5979988
  67.3750012 110.8124997 123.9059988  66.8049161 110.4697722 124.4665956
  66.3770012  99.9344997 126.5179988  67.1890012 100.4394997 126.5639988
  66.1320012  99.7894997 127.4319988  66.4550520  99.9840375 126.6478517
  66.9120012 100.9204997 135.7019988  67.0310012 101.4944997 136.4599988
  67.5680012 100.2324997 135.8169988  67.0169025 100.9059858 135.8211321
  67.2600012  97.0154997 127.4559988  66.9140012  97.6334997 128.0999988
  67.9190012  97.5164997 126.9739988  67.3016968  97.1676278 127.4789383
  64.1840012 111.3814997 124.5269988  64.3440012 112.1804997 124.0269988
  63.9860012 111.6874997 125.4119988  64.1791637 111.5324020 124.5781144
  62.9180012  98.0784997 124.1429988  62.8350012  98.9674997 124.4899988
  63.8080012  97.8134997 124.3749988  63.0269469  98.1641430 124.2217626
  73.1170012  98.8274997 136.5369988  72.2000012  99.0904997 136.4499988
  73.4520012  98.8244997 135.6409988  73.0368613  98.8630761 136.4038837
  71.7190012 102.5784997 130.6329988  70.9210012 102.1634997 130.3049988
  72.1640012 101.8874997 131.1239988  71.6699885 102.4283543 130.6544889
  61.1770012 108.5064997 123.2039988  61.7690012 109.2054997 123.4799988
  61.6360012 108.0734997 122.4839988  61.3201142 108.5437049 123.1444830
  59.4930012 101.1704997 122.3199988  59.4480012 102.1094997 122.4979988
  58.6050012 100.9344997 122.0499988  59.3668574 101.2671892 122.3078912
  72.8050012 111.8344997 132.2559988  72.6500012 112.5124997 131.5979988
  73.7380012 111.9064997 132.4589988  72.9098657 111.9369546 132.1934360
  60.3010012  95.9524997 130.9929988  60.0720012  96.0114997 130.0649988
  59.8580012  95.1604997 131.2989988  60.2098530  95.8535753 130.9074786
  59.2310012 109.8924997 127.1529988  58.3990012 110.3654997 127.1799988
  59.7770012 110.4024997 126.5549988  59.1910352 110.0261332 127.0758463
  58.5190012 112.5054997 138.4829988  59.0600012 112.2884997 139.2429988
  58.0380012 111.6994997 138.2929988  58.5279951 112.3669270 138.5612576
  63.1170012 111.4244997 140.1029988  63.8840012 110.9654997 140.4439988
  63.0950012 111.1984997 139.1739988  63.2191275 111.3310186 140.0240101
  67.2090012 110.9324997 121.4789988  66.5650012 110.3014997 121.7999988
  67.9710012 110.4014997 121.2469988  67.2238077 110.7742920 121.4916011
  69.6940012 109.8044997 138.8329988  69.3430012 108.9484997 139.0759988
  70.4200012 109.9474997 139.4399988  69.7440769 109.7065636 138.9483619
  71.8130012 110.7494997 121.7119988  72.0960012 109.9554997 122.1649988
  72.5530012 110.9824997 121.1519988  71.9518006 110.6723376 121.6982715
  58.4260012 106.3154997 139.4369988  58.5700012 105.4134997 139.1509988
  57.6540012 106.6014997 138.9499988  58.3412753 106.2306816 139.3319505
  62.7680012 106.6594997 121.5699988  62.8320012 105.8654997 122.1009988
  63.4210012 106.5404997 120.8799988  62.8650241 106.5347148 121.5494317
  65.0820012 106.2854997 138.8699988  64.7530012 106.5564997 138.0129988
  65.2340012 105.3444997 138.7829988  65.0574809 106.1953862 138.7408244
  68.1200012 107.7064997 121.3059988  67.8510012 107.8864997 122.2069988
  67.9140012 106.7804997 121.1739988  68.0553427 107.6060261 121.4115073
  70.8160012 106.2014997 136.2529988  71.5620012 106.7894997 136.1339988
  70.0590012 106.7834997 136.3169988  70.8157820 106.3607143 136.2453590
  59.2590012 103.5154997 138.8569988  59.6670012 102.6584997 138.7359988
  58.9990012 103.5304997 139.7779988  59.2797568 103.4000807 138.9649588
  63.9170012 104.6314997 123.8759988  63.4570012 104.1474997 124.5619988
  64.1720012 103.9634997 123.2399988  63.8884902 104.4748731 123.8839334
  63.2060012 102.5244997 136.2319988  62.5880012 103.1994997 136.5119988
  63.5500012 102.8454997 135.3979988  63.1679132 102.6602411 136.1576262
  64.9880012 102.8744997 122.1379988  64.8080012 102.7204997 121.2109988
  65.9380012 102.9824997 122.1829988  65.0917776 102.8680175 122.0171843
  68.2260012 104.9964997 139.5089988  69.1790012 105.0794997 139.4819988
  68.0650012 104.2844997 140.1289988  68.3346426 104.9116746 139.5890579
  74.3780012 105.2294997 121.5839988  74.1040012 104.8044997 120.7709988
  74.4170012 106.1604997 121.3669988  74.3457699 105.2972484 121.4433610
  63.5450012  99.8794997 137.3139988  63.6950012  99.1504997 136.7119988
  63.5480012 100.6564997 136.7549988  63.5659302  99.8847851 137.1560692
  63.9580012  98.2494997 134.8069988  64.4940012  98.7004997 134.1549988
  63.1060012  98.1414997 134.3839988  63.9162178  98.2966390 134.6605756
  65.5400012 103.6884997 135.0459988  66.2900012 103.5324997 134.4729988
  65.2010012 104.5404997 134.7709988  65.5968921 103.7822968 134.9303561
  69.9550012 101.5034997 140.0749988  70.1480012 100.5724997 139.9629988
  70.8130012 101.9284997 140.0639988  70.0972934 101.4336531 140.0582031
  71.2720012 104.2924997 138.1519988  70.9910012 105.0014997 137.5739988
  72.2150012 104.2194997 138.0009988  71.3609291 104.3796711 138.0524967
  62.0240012 101.0774997 139.2259988  61.2570012 100.5454997 139.0149988
  62.7030012 100.7674997 138.6259988  62.0107877 100.9628300 139.1160716
  64.7640012  95.7054997 135.2379988  64.6650012  96.6524997 135.1329988
  64.0210012  95.3334997 134.7619988  64.6501184  95.7845863 135.1593621
  66.0280012 100.0274997 138.8019988  65.7920012  99.8074997 139.7029988
  65.2440012  99.8204997 138.2919988  65.8898504  99.9694586 138.8563431
  68.7430012  99.1544997 137.8769988  67.7960012  99.1864997 138.0099988
  69.0560012  98.5294997 138.5309988  68.6556707  99.0743998 137.9836060
  70.3770012  97.7884997 139.8829988  70.2810012  96.8364997 139.8769988
  70.0560012  98.0574997 140.7429988  70.3204070  97.6944035 139.9985441
  60.2040012  98.9984997 138.9299988  60.4160012  98.2914997 138.3199988
  60.0930012  98.5604997 139.7739988  60.2179721  98.8427084 138.9606843
  64.9850012  94.9994997 137.9089988  65.6970012  94.3594997 137.8949988
  64.8840012  95.2664997 136.9959988  65.0688066  94.9480079 137.7835677
  65.3390012  96.6824997 139.9629988  65.2070012  96.2064997 139.1429988
  64.7400012  97.4264997 139.9079988  65.2399071  96.7179618 139.8432886
  64.8850012 113.5654997 123.1389988  65.8180012 113.7234997 123.2829988
  64.6210012 114.2404997 122.5149988  64.9769888 113.6784510 123.0742842
  58.4540012 108.2014997 122.6219988  59.3680012 108.2804997 122.8959988
  58.4610012 107.5144997 121.9559988  58.5801131 108.1193961 122.5694393
  57.1030012 113.5944997 127.6999988  56.4560012 113.1324997 127.1669988
  57.4570012 112.9224997 128.2819988  57.0623849 113.4404723 127.7057959
  57.9730012 111.6754997 129.5039988  57.6380012 110.7954997 129.6759988
  58.1950012 112.0204997 130.3689988  57.9571783 111.6017500 129.6444208
  75.5210012 112.4844997 132.4849988  75.5000012 112.6694997 133.4239988
  76.2120012 113.0534997 132.1439988  75.6114618 112.5866606 132.5673864
  75.0850012 112.0524997 135.4069988  74.5970012 111.3164997 135.0349988
  75.6340012 111.6584997 136.0849988  75.0924820 111.8985889 135.4477813
  73.5350012 107.8414997 140.0449988  72.6690012 107.7364997 140.4389988
  73.9120012 108.6004997 140.4909988  73.4673308 107.9296900 140.1592393
  74.8360012 106.0984997 125.5589988  75.6860012 106.5194997 125.6859988
  74.8420012 105.3584997 126.1659988  74.9531372 106.0560803 125.6584344
  75.2310012 104.1514997 127.3819988  74.5040012 103.6724997 127.7799988
  75.8120012 104.3574997 128.1149988  75.2100473 104.1138103 127.5354528
  74.9900012 106.9364997 132.3299988  75.8230012 106.5584997 132.0499988
  75.1020012 107.8794997 132.2109988  75.1192647 107.0122218 132.2755487
  73.4760012 109.8144997 134.6369988  72.8290012 110.1394997 135.2629988
  72.9590012 109.3744997 133.9629988  73.3174029 109.7995004 134.6315827
  75.4990012 104.0524997 123.7739988  74.9770012 104.4094997 123.0549988
  75.4660012 104.7274997 124.4519988  75.4231634 104.1925413 123.7673145
  73.8480012 101.2924997 122.3239988  73.9440012 101.9594997 121.6439988
  73.7080012 100.4764997 121.8429988  73.8422272 101.2735655 122.1658347
  73.0170012 102.6724997 127.9449988  72.8670012 101.7274997 127.9249988
  72.6640012 102.9534997 128.7889988  72.9487448 102.5811481 128.0563705
  58.0530012 104.7504997 131.9559988  58.2370012 104.6684997 131.0199988
  58.9020012 104.6264997 132.3789988  58.1930151 104.7225073 131.8851451
  73.8740012 104.6424997 137.5839988  74.4570012 103.9084997 137.7759988
  74.4380012 105.4144997 137.6309988  74.0299769 104.6464227 137.6166159
  75.3700012 102.5454997 138.2689988  74.5070012 102.1664997 138.1029988
  75.9750012 101.8064997 138.1939988  75.3336119 102.3938268 138.2361528
  73.0950012  98.7004997 121.4419988  73.7060012  98.3294997 122.0789988
  72.2590012  98.2794997 121.6379988  73.0655032  98.5927554 121.5557035
  72.7280012 100.2554997 126.4079988  73.0080012  99.3484997 126.5319988
  73.4870012 100.6894997 126.0189988  72.8689277 100.1900942 126.3723682
  73.3400012 100.8364997 131.8439988  74.2730012 101.0484997 131.8089988
  73.1050012 100.9384997 132.7659988  73.4359244 100.8793100 131.9638892
  73.3690012 101.5734997 134.6199988  72.5260012 101.8414997 134.9859988
  73.8110012 102.3954997 134.4089988  73.3134158 101.7213291 134.6415491
  57.6500012 100.0214997 138.0969988  58.5700012  99.8994997 138.3329988
  57.2010012  99.2714997 138.4859988  57.7151580  99.9033727 138.1819006
  75.6520012  95.5534997 139.9729988  76.0020012  94.8994997 139.3679988
  75.7990012  96.3904997 139.5329988  75.7197887  95.5771548 139.8306858
  73.3410012  97.5184997 126.4559988  73.5240012  97.0694997 127.2819988
  72.7420012  96.9334997 125.9929988  73.2850202  97.3779975 126.5063275
  58.8710012  98.3334997 130.9879988  59.3170012  97.5414997 131.2899988
  59.3380012  99.0494997 131.4179988  58.9950831  98.3220685 131.0874006
  57.1750012 101.3324997 132.0569988  57.6670012 101.1114997 131.2659988
  57.5380012 102.1734997 132.3379988  57.2913126 101.4158357 131.9867531
  75.1720012  97.6624997 138.3219988  74.2540012  97.9334997 138.2869988
  75.2950012  97.1274997 137.5379988  75.0629729  97.6272508 138.2111923
  75.2080012  97.5854997 122.9839988  75.6200012  96.8644997 122.5089988
  75.8900012  98.2554997 123.0429988  75.3565885  97.5772368 122.9268915
  57.4890012  97.5904997 126.1109988  56.5640012  97.7994997 125.9819988
  57.9430012  98.0744997 125.4209988  57.4237292  97.6845343 126.0000720
  72.2600012 112.5744997 128.0569988  72.9120012 112.2274997 127.4489988
  72.7700012 113.0634997 128.7029988  72.4182637 112.5930597 128.0610236
  57.4530012  96.3284997 134.4549988  56.7880012  96.0824997 135.0989988
  57.0100012  96.9504997 133.8779988  57.3021318  96.3789410 134.4650898
  59.6450012 109.5034997 138.5999988  58.8240012 109.6784997 138.1389988
  59.3920012 109.4304997 139.5199988  59.4985585 109.5175544 138.6613561
  62.5990012 110.4784997 134.8579988  62.1740012 111.2874997 134.5759988
  63.5030012 110.5634997 134.5559988  62.6629975 110.6009300 134.7784816
  66.9100012 111.8774997 137.8179988  67.0950012 111.5434997 138.6959988
  67.7560012 112.1864997 137.4959988  67.0497539 111.8736047 137.8945605
  69.2550012 113.1634997 137.0619988  69.9320012 112.5304997 136.8219988
  69.5770012 113.5644997 137.8689988  69.3911637 113.1311154 137.1382793
  74.1720012  95.7524997 136.1409988  73.3600012  96.0774997 135.7539988
  74.4050012  94.9924997 135.6079988  74.0922203  95.6942758 136.0158880
  60.0010012 113.7344997 134.9059988  59.2800012 114.1744997 134.4549988
  59.6350012 113.4834997 135.7539988  59.8529651 113.7607242 134.9589640
  62.4680012 113.3344997 133.9359988  61.6030012 113.4064997 134.3399988
  62.4130012 113.8814997 133.1519988  62.3422085 113.4182685 133.8853362
  67.1780012 113.2224997 133.1109988  66.7220012 113.7514997 132.4569988
  67.3410012 113.8254997 133.8359988  67.1376068 113.3764607 133.1194838
  69.5060012 112.1004997 134.0559988  68.6010012 112.2654997 133.7899988
  69.9350012 112.9534997 133.9909988  69.4401324 112.2384339 134.0107976
  72.1100012 113.6704997 134.3509988  71.9280012 114.5864997 134.1409988
  72.2870012 113.2604997 133.5049988  72.1090210 113.7404822 134.2077885
  59.4150012 112.3574997 131.8159988  59.3970012 111.9324997 132.6729988
  60.2200012 112.0394997 131.4069988  59.5213529 112.2563013 131.8780946
  61.5570012 111.0674997 130.4709988  61.3380012 110.1514997 130.6409988
  62.3810012 111.2074997 130.9369988  61.6384420 110.9610520 130.5572774
  64.0940012 111.5374997 131.3199988  64.3070012 110.6494997 131.0329988
  64.1580012 111.5034997 132.2739988  64.1318231 111.4113102 131.4097397
  67.6020012  97.2014997 130.4639988  66.9280012  96.5724997 130.7199988
  68.1660012  96.7174997 129.8609988  67.5859230  97.0498744 130.4175340
  72.7450012  95.3094997 130.5769988  73.3490012  95.8564997 130.0749988
  71.8750012  95.6284997 130.3359988  72.7101208  95.4275137 130.4756886
  74.4720012  96.4474997 128.9099988  75.0840012  95.9334997 128.3829988
  74.8540012  97.3254997 128.9329988  74.6073371  96.4957866 128.8410041
  59.9290012  95.8354997 128.2859988  59.1520012  95.6014997 127.7789988
  60.4590012  95.0384997 128.2949988  59.8942330  95.6956988 128.2177742
  58.7650012  95.6334997 124.0899988  59.2040012  96.2444997 123.4979988
  58.1320012  96.1714997 124.5639988  58.7394514  95.7899257 124.0730930
  64.5080012  95.7624997 128.0999988  65.3830012  96.1504997 128.0699988
  64.3720012  95.5474997 129.0219988  64.6093695  95.7865184 128.2206440
  70.0650012  95.7924997 129.7489988  70.1410012  95.8874997 128.7989988
  69.7900012  94.8844997 129.8779988  70.0382321  95.6827867 129.6365079
  71.4180012  95.8184997 125.4409988  70.7160012  96.4334997 125.2309988
  70.9740012  94.9804997 125.5719988  71.2616450  95.7895639 125.4299000
  58.6660012 111.5814997 124.9869988  57.9810012 111.5434997 124.3199988
  58.6700012 112.4944997 125.2759988  58.5726998 111.6996733 124.9346771
  60.6260012  97.5494997 122.5319988  61.1180012  96.9194997 122.0049988
  61.2500012  97.8454997 123.1949988  60.7775688  97.5033804 122.5495482
  65.6520012  97.8424997 124.9889988  65.8300012  97.1964997 125.6719988
  65.5990012  98.6764997 125.4559988  65.6691999  97.8668009 125.1455917
  67.5310012 112.7914997 123.3849988  68.3970012 113.1574997 123.2069988
  67.2840012 112.3514997 122.5709988  67.6162392 112.7821756 123.2506289
  74.2400012 112.3544997 126.0639988  74.0450012 111.6064997 125.4989988
  74.2010012 113.1124997 125.4809988  74.2080380 112.3546099 125.9078384
  59.8870012  96.3494997 137.8039988  59.5210012  95.5844997 138.2459988
  60.8000012  96.3784997 138.0899988  59.9602736  96.2485640 137.9032502
  61.8600012  95.7004997 139.3399988  62.7580012  95.4264997 139.1549988
  61.4730012  94.9574997 139.8039988  61.9306612  95.5625914 139.3773643
  60.4840012 112.5014997 122.0129988  60.2170012 112.7884997 122.8859988
  61.2560012 111.9554997 122.1649988  60.5517488 112.4670294 122.1531050
  70.2810012  95.0324997 139.5219988  70.3580012  94.6064997 140.3759988
  71.1750012  95.0464997 139.1789988  70.4123428  94.9760879 139.5925310
  73.4570012 111.1054997 138.2139988  72.6750012 110.9194997 137.6939988
  73.3850012 112.0344997 138.4319988  73.3402274 111.2056643 138.1723018
  87.8630012 104.9914997 128.2449988  87.9520012 105.9354997 128.1129988
  87.2250012 104.7164997 127.5869988  87.7889081 105.0834830 128.1379614
  86.7960012 104.2464997 131.6639988  86.7580012 103.6004997 132.3689988
  86.4740012 103.7804997 130.8929988  86.7472333 104.0949408 131.6562978
  79.1650012 103.8614997 133.2569988  79.2060012 103.2354997 133.9799988
  79.8680012 104.4854997 133.4389988  79.2656363 103.8601196 133.3806044
  90.5020012 107.1854997 129.9649988  90.0620012 106.4654997 130.4159988
  90.4890012 107.9064997 130.5949988  90.4400226 107.1843731 130.1118494
  80.0880012 108.3114997 131.7919988  79.7190012 107.5094997 131.4219988
  81.0290012 108.1424997 131.8379988  80.1647289 108.1790153 131.7476316
  76.6980012 101.9714997 127.1849988  76.2510012 102.8174997 127.1659988
  76.1370012 101.3914997 126.6689988  76.5609900 102.0089916 127.1126801
  77.4090012 104.1334997 129.3099988  77.6220012 103.3634997 129.8379988
  78.1470012 104.2224997 128.7069988  77.5379044 104.0401968 129.3007123
  87.6140012 112.2904997 130.1769988  88.2340012 111.6134997 129.9039988
  87.4060012 112.0724997 131.0859988  87.6706726 112.1684800 130.2624812
  85.1860012 106.6794997 132.0699988  85.4900012 105.9934997 131.4749988
  85.9070012 106.7974997 132.6879988  85.3250671 106.6016305 132.0721816
  93.8490012  98.2804997 132.9309988  93.8980012  98.8904997 133.6659988
  94.2740012  98.7414997 132.2079988  93.9131746  98.4263796 132.9339175
  88.3270012 101.0734997 132.3969988  88.4690012 100.1274997 132.4179988
  88.2200012 101.2804997 131.4689988  88.3319919 100.9718246 132.2743408
  81.4810012  99.1744997 129.6699988  81.5250012 100.0344997 129.2509988
  81.0240012  98.6224997 129.0359988  81.4252240  99.2174422 129.5269864
  89.2040012  99.3054997 128.0709988  89.8500012  98.9764997 128.6949988
  89.7140012  99.8234997 127.4479988  89.3614299  99.3304450 128.0722731
  78.1020012 101.5714997 130.4319988  78.7550012 101.0214997 130.8639988
  78.1260012 101.2974997 129.5149988  78.1946683 101.4591466 130.3672123
  83.2580012 103.1214997 129.6469988  83.8740012 102.5954997 130.1569988
  82.6720012 102.4814997 129.2439988  83.2630810 102.9629208 129.6623173
  94.2400012  99.7584997 135.1659988  93.5520012 100.4164997 135.0709988
  94.2560012  99.5614997 136.1029988  94.1479540  99.8219819 135.2795990
  80.2920012  98.0924997 133.7439988  80.0730012  98.6224997 132.9779988
  79.6240012  98.3194997 134.3909988  80.1717600  98.1956906 133.7266379
  87.6610012 107.5924997 127.2879988  87.3650012 107.2704997 126.4369988
  87.3360012 108.4924997 127.3289988  87.5766371 107.6700215 127.1771801
  82.8610012 105.7684997 134.0309988  82.1210012 106.3664997 134.1349988
  83.5750012 106.3224997 133.7159988  82.8562237 105.9252831 134.0026465
  90.9680012  98.5964997 130.0509988  90.7520012  97.8304997 130.5839988
  91.6230012  99.0684997 130.5639988  91.0270632  98.5555889 130.1932861
  79.8850012  99.9844997 131.6959988  80.4990012 100.6174997 132.0689988
  80.3970012  99.5124997 131.0399988  80.0381981 100.0072267 131.6582908
  81.2680012 107.7324997 134.8179988  81.2630012 108.6124997 134.4399988
  80.4150012 107.6494997 135.2429988  81.1519464 107.8416117 134.8237907
  77.3890012 107.4034997 125.5999988  77.1170012 107.6324997 124.7119988
  77.4350012 108.2414997 126.0609988  77.3579482 107.5481318 125.5406273
  91.0140012 109.0254997 132.3129988  90.0730012 109.0834997 132.4749988
  91.2910012 109.9314997 132.1759988  90.9224679 109.1559443 132.3166815
  91.3150012  97.3114997 133.7309988  90.5790012  97.9224997 133.6929988
  91.9980012  97.7264997 133.2039988  91.3066541  97.4511374 133.6545832
  84.3180012  95.3984997 131.1959988  84.2010012  94.4494997 131.1419988
  83.4630012  95.7304997 131.4699988  84.1864212  95.3135571 131.2256497
  89.2660012 110.8064997 128.9379988  89.6920012 110.0994997 128.4529988
  89.5830012 111.6074997 128.5219988  89.3671683 110.8181017 128.8153680
  90.4260012 108.7074997 127.4469988  90.1680012 108.0174997 126.8359988
  90.4970012 108.2644997 128.2929988  90.4002856 108.5532124 127.4776885
  92.1120012 107.2734997 135.9239988  92.2520012 106.6824997 135.1849988
  92.2790012 108.1464997 135.5679988  92.1537411 107.3105428 135.7746894
  86.5850012 104.2354997 125.6969988  85.8730012 104.7704997 125.3449988
  87.2760012 104.2914997 125.0369988  86.5810132 104.3162543 125.5596289
  86.6380012 102.6934997 122.7359988  87.3390012 102.7154997 123.3869988
  86.9410012 102.0654997 122.0789988  86.7748133 102.6117070 122.7363369
  93.9540012 103.6134997 133.9899988  93.3010012 104.3084997 134.0799988
  94.4190012 103.8234997 133.1809988  93.9275274 103.7370643 133.8928462
  89.9900012 104.4454997 126.6489988  89.2580012 104.6734997 127.2219988
  90.4380012 103.7314997 127.1029988  89.9502725 104.3802145 126.7888816
  89.8880012 102.6194997 135.7159988  89.9680012 103.3824997 136.2879988
  89.2860012 102.8984997 135.0259988  89.8175756 102.7617134 135.7010589
  81.6360012 105.0754997 128.5309988  81.3050012 104.7054997 127.7129988
  82.2240012 104.4054997 128.8779988  81.6701873 104.9341156 128.4658102
  83.0020012 108.5034997 131.2119988  82.9080012 107.9254997 130.4559988
  83.7320012 108.1324997 131.7089988  83.0877387 108.3741663 131.1755342
  82.0020012 103.8444997 132.1649988  82.5680012 103.9654997 131.4019988
  82.3210012 104.4814997 132.8029988  82.1225474 103.9472219 132.1469862
  88.3110012 109.3474997 132.8989988  88.0710012 110.0094997 133.5469988
  88.1130012 108.5134997 133.3239988  88.2513808 109.3253134 133.0451524
  82.8820012 108.2434997 136.8819988  82.5710012 109.0254997 137.3369988
  82.2320012 108.0904997 136.1959988  82.7515558 108.3299105 136.8515871
  88.8610012 103.6074997 124.3339988  89.4410012 103.7574997 125.0809988
  89.2750012 104.0784997 123.6099988  88.9962997 103.6916578 124.3384058
  79.8020012 104.4414997 136.1099988  79.8730012 105.0924997 136.8089988
  78.9120012 104.5444997 135.7749988  79.6913005 104.5445427 136.1603495
  86.5880012 110.3444997 127.7689988  87.0620012 110.6394997 128.5459988
  86.0250012 111.0824997 127.5359988  86.5768184 110.4847247 127.8439628
  81.1220012 110.3154997 137.6449988  81.1290012 110.1794997 136.6979988
  80.2060012 110.1974997 137.8969988  80.9991714 110.2809430 137.5494666
  92.5600012  95.3574997 124.1469988  91.6600012  95.4964997 124.4419988
  92.8120012  96.1884997 123.7449988  92.4708702  95.4889074 124.1330205
  80.6260012 104.1454997 126.1199988  80.3340012 104.9134997 125.6299988
  79.9520012 103.4854997 125.9579988  80.4948111 104.1615587 126.0308978
  93.7490012 109.7234997 122.5229988  93.8230012 110.6624997 122.6939988
  94.6550012 109.4184997 122.4669988  93.8815100 109.8106722 122.5388119
  76.7190012 106.5084997 134.9349988  76.2180012 106.4804997 134.1199988
  76.7240012 105.6024997 135.2449988  76.6510944 106.3822396 134.8653226
  76.4690012 109.2884997 131.8189988  77.4150012 109.1444997 131.7999988
  76.3570012 110.0724997 132.3559988  76.5832727 109.3748046 131.8890072
  94.6670012 109.9544997 137.5019988  94.6180012 108.9994997 137.4649988
  93.8400012 110.2224997 137.9029988  94.5484940 109.8598998 137.5511375
  85.6460012 109.5284997 136.3779988  85.7330012 110.3544997 136.8529988
  84.7820012 109.1984997 136.6269988  85.5411964 109.5969878 136.4766549
  86.0600012 113.3004997 126.1839988  85.9850012 113.1794997 125.2369988
  86.0930012 114.2504997 126.3019988  86.0542068 113.4122646 126.0704967
  79.7130012 112.0894997 127.9649988  79.8660012 111.7414997 128.8429988
  78.8630012 111.7334997 127.7099988  79.6189166 111.9936216 128.0508079
  89.1620012 112.4544997 123.1859988  89.5370012 111.7104997 122.7149988
  89.1660012 112.1844997 124.1049988  89.2139125 112.3160986 123.2456483
  88.8310012 112.3804997 125.9349988  87.8950012 112.4804997 126.1139988
  89.1110012 111.6714997 126.5139988  88.7409553 112.2983406 126.0377087
  91.8190012 101.4474997 137.9819988  91.4120012 101.9284997 137.2609988
  91.8600012 100.5424997 137.6739988  91.7688437 101.3909374 137.8416683
  78.9680012 107.8314997 135.9789988  79.1840012 107.4704997 136.8379988
  78.1130012 107.4574997 135.7689988  78.8819292 107.7314111 136.0683386
  81.5870012  96.3014997 131.9739988  80.7250012  96.2144997 131.5659988
  81.5640012  97.1574997 132.4019988  81.4660409  96.4052883 131.9760589
  86.2500012  96.0234997 135.3489988  86.6700012  95.6084997 136.1019988
  85.3170012  95.8454997 135.4659988  86.1813644  95.9425900 135.4679539
  89.5760012  99.7794997 136.2019988  89.0620012  99.6534997 136.9999988
  89.4210012 100.6914997 135.9579988  89.4846852  99.8856132 136.2782158
  90.3390012 104.6404997 121.9639988  90.3810012 104.4174997 121.0339988
  91.1880012 105.0394997 122.1529988  90.4595280 104.6639438 121.8623554
  85.9110012  98.5164997 122.6339988  85.6580012  98.5354997 123.5569988
  85.6550012  97.6444997 122.3319988  85.8417481  98.4012558 122.7196175
  81.6780012 101.2674997 133.0689988  81.0360012 101.2264997 133.7779988
  81.7150012 102.1934997 132.8309988  81.5950664 101.3871430 133.1339219
  81.6750012 101.4884997 127.9809988  80.7820012 101.1474997 127.9219988
  82.1250012 101.1114997 127.2249988  81.6138130 101.3909631 127.8707702
  87.2100012 101.9044997 126.7979988  86.8010012 102.7194997 126.5069988
  87.9310012 101.7644997 126.1839988  87.2514537 101.9972018 126.6751342
  86.3120012 102.0794997 138.2859988  85.7500012 101.3754997 138.6069988
  87.1390012 101.9594997 138.7539988  86.3467095 101.9667883 138.3932330
  88.2150012 101.3504997 129.6119988  88.0200012 101.9554997 128.8969988
  88.3960012 100.5164997 129.1779988  88.2127614 101.3206300 129.4554405
  79.4280012 101.5874997 134.9359988  79.3900012 101.9874997 135.8049988
  78.9370012 100.7704997 135.0269988  79.3564684 101.5318069 135.0671059
  82.7940012  98.9614997 121.7349988  82.3630012  98.5164997 122.4649988
  82.0760012  99.3334997 121.2229988  82.6379438  98.9508940 121.7656799
  76.0360012  98.7034997 128.7869988  76.6670012  98.6744997 129.5059988
  76.4850012  98.2784997 128.0559988  76.1830918  98.6420836 128.7866441
  77.3100012  99.4494997 124.2109988  77.7840012 100.0404997 123.6259988
  76.5930012  99.9804997 124.5579988  77.2779341  99.6020867 124.1778836
  87.4790012 102.9884997 134.2829988  87.8020012 102.3574997 133.6399988
  87.0390012 102.4534997 134.9439988  87.4637484 102.8298387 134.2843198
  84.2560012  98.9154997 129.0669988  83.3450012  98.9724997 129.3559988
  84.7620012  98.8554997 129.8779988  84.1996899  98.9151941 129.2161184
  79.0850012 100.5444997 127.8939988  78.1950012 100.6444997 127.5539988
  79.3810012  99.7024997 127.5479988  79.0032823 100.4443545 127.8007213
  82.7380012 100.5444997 125.5509988  83.6690012 100.6734997 125.7289988
  82.5230012 101.2144997 124.9009988  82.8364247 100.6526565 125.4875747
  88.6610012  98.1504997 132.3319988  87.9850012  98.2814997 132.9959988
  88.1760012  97.9954997 131.5209988  88.5027146  98.1475157 132.3134469
  81.4120012 101.7394997 123.1169988  80.8690012 101.3594997 122.4259988
  82.2450012 101.9334997 122.6889988  81.4503631 101.7137125 122.9644501
  91.9490012 113.8224997 138.6079988  92.1490012 114.2464997 137.7739988
  92.6040012 114.1654997 139.2149988  92.0650072 113.9269857 138.5758592
  79.5470012 106.2964997 138.2159988  80.2790012 106.5504997 138.7779988
  78.7670012 106.5004997 138.7319988  79.5417073 106.3588160 138.3626151
  85.5760012 101.7034997 130.9539988  86.1410012 101.1564997 130.4069988
  85.4290012 101.1814997 131.7429988  85.6333380 101.5582259 130.9858695
  80.5780012  97.8394997 127.3729988  80.2610012  96.9374997 127.3369988
  81.3600012  97.8414997 126.8199988  80.6402408  97.7162474 127.2933569
  84.2030012 100.0914997 133.3679988  83.3670012 100.5454997 133.4789988
  84.7270012 100.3674997 134.1199988  84.1595416 100.1908660 133.4848119
  84.7470012 106.3044997 125.0529988  84.0020012 105.7974997 124.7309988
  84.6130012 106.3534997 125.9999988  84.6268776 106.2416940 125.1368647
  91.8970012 105.4374997 133.8399988  92.5390012 105.8944997 133.2959988
  91.0670012 105.5504997 133.3769988  91.8725963 105.5152704 133.7030177
  88.6450012  99.1184997 123.2519988  87.7060012  99.2304997 123.1009988
  88.9420012  99.9754997 123.5589988  88.5567583  99.2495981 123.2728337
  86.2660012 106.4884997 136.2899988  85.9210012 106.1074997 137.0969988
  86.0660012 107.4224997 136.3609988  86.1917527 106.5625135 136.4100689
  89.3630012 100.9854997 124.9129988  90.2550012 100.8484997 125.2319988
  89.4200012 101.7764997 124.3759988  89.4926504 101.0736052 124.8840818
  79.8720012 105.5994997 130.8229988  80.6170012 105.5974997 130.2219988
  79.9500012 104.7764997 131.3039988  79.9844995 105.4878887 130.8058282
  86.8730012 107.7634997 124.0789988  86.5770012 108.5894997 124.4599988
  86.1700012 107.1434997 124.2749988  86.7374914 107.7928199 124.1576443
  76.8800012 104.0604997 136.1379988  77.1030012 103.6424997 136.9699988
  76.2780012 103.4474997 135.7149988  76.8291759 103.9204668 136.1947022
  83.8960012 103.5774997 138.3509988  83.6000012 103.4114997 137.4559988
  84.8280012 103.3574997 138.3399988  83.9814166 103.5250640 138.2270536
  88.5170012 108.9504997 136.2409988  87.6160012 109.1334997 135.9729988
  88.5510012 109.2094997 137.1609988  88.3983139 109.0105849 136.3288099
  94.2480012 101.1954997 124.6079988  93.6940012 100.7994997 123.9359988
  94.3480012 102.1054997 124.3299988  94.1857059 101.2643586 124.4784401
  94.2110012 106.9954997 137.4449988  93.3600012 107.2334997 137.0779988
  94.8020012 106.9784997 136.6919988  94.1742487 107.0258258 137.2928893
  92.5430012 109.9814997 125.0729988  92.1700012 109.1554997 125.3819988
  92.8210012 109.7984997 124.1749988  92.5295222 109.8437430 124.9939473
  89.7040012 104.7894997 132.0939988  88.7750012 104.5574997 132.0669988
  90.1550012 104.0124997 131.7639988  89.6379216 104.6527238 132.0456917
  82.2470012 109.1174997 128.2269988  82.7740012 109.8904997 128.0269988
  81.3670012 109.3424997 127.9249988  82.2002031 109.2537545 128.1587912
  78.0020012 103.9794997 122.8139988  78.6180012 104.6064997 123.1939988
  77.1400012 104.2954997 123.0859988  77.9697698 104.1079430 122.9027183
  83.6740012 106.7804997 127.8029988  83.4330012 107.7054997 127.8449988
  82.9330012 106.3214997 128.1999988  83.5409225 106.8450933 127.8623742
  84.1890012 110.9294997 134.1189988  84.5510012 111.7844997 133.8849988
  84.7200012 110.6374997 134.8589988  84.3104473 111.0071060 134.1870855
  82.3570012 111.8024997 127.3489988  81.4070012 111.9074997 127.3999988
  82.7090012 112.6224997 127.6929988  82.2744195 111.9278800 127.4025502
  87.7330012 107.0284997 133.8189988  87.3070012 106.8014997 134.6459988
  88.3130012 106.2904997 133.6369988  87.7531868 106.8975299 133.9075830
  89.9360012 107.9574997 122.8929988  90.2890012 107.5774997 123.6969988
  88.9870012 107.8644997 122.9799988  89.8560918 107.8928956 123.0148532
  90.3910012 111.5804997 136.2889988  89.7900012 111.0254997 135.7929988
  90.6730012 112.2474997 135.6619988  90.3468804 111.5946625 136.1364849
  94.4390012 112.4374997 123.0939988  95.1830012 113.0234997 122.9539988
  93.7450012 113.0054997 123.4269988  94.4469899 112.5945798 123.1198778
  78.5140012  98.8134997 135.6959988  77.6210012  99.1524997 135.6279988
  78.4150012  97.9584997 136.1139988  78.3784164  98.7442588 135.7432235
  90.8020012 106.6304997 125.1199988  90.5240012 105.9024997 125.6759988
  91.7290012 106.7494997 125.3249988  90.8893124 106.5468802 125.2238845
  78.1650012 110.6184997 134.1309988  78.3820012 109.6864997 134.0999988
  78.4110012 110.8924997 135.0139988  78.2279549 110.5280636 134.2461763
  84.0270012 109.0694997 121.3399988  84.2660012 108.3214997 120.7929988
  83.7580012 108.6814997 122.1729988  84.0233675 108.9146638 121.3776865
  82.9640012 108.6394997 123.7959988  83.1100012 108.1194997 124.5859988
  82.9610012 109.5464997 124.1029988  82.9835792 108.6908842 123.9456117
  79.4170012 105.8924997 124.3069988  78.7310012 106.2444997 124.8739988
  79.9390012 106.6554997 124.0599988  79.3936852 106.0438578 124.3512118
  87.2480012  98.5544997 134.5859988  87.9470012  98.6284997 135.2359988
  86.8670012  97.6904997 134.7399988  87.2921767  98.4477624 134.6958322
  88.0330012  98.2064997 125.6829988  88.2530012  98.6784997 124.8799988
  88.5910012  98.6014997 126.3529988  88.1384968  98.3244285 125.6637331
  85.7010012 110.3374997 124.5459988  84.8850012 110.8344997 124.5979988
  86.2310012 110.8124997 123.9059988  85.6609161 110.4697722 124.4665956
  85.2330012  99.9344997 126.5179988  86.0450012 100.4394997 126.5639988
  84.9880012  99.7894997 127.4319988  85.3110520  99.9840375 126.6478517
  85.7680012 100.9204997 135.7019988  85.8870012 101.4944997 136.4599988
  86.4240012 100.2324997 135.8169988  85.8729025 100.9059858 135.8211321
  86.1160012  97.0154997 127.4559988  85.7700012  97.6334997 128.0999988
  86.7750012  97.5164997 126.9739988  86.1576968  97.1676278 127.4789383
  83.0400012 111.3814997 124.5269988  83.2000012 112.1804997 124.0269988
  82.8420012 111.6874997 125.4119988  83.0351637 111.5324020 124.5781144
  81.7740012  98.0784997 124.1429988  81.6910012  98.9674997 124.4899988
  82.6640012  97.8134997 124.3749988  81.8829469  98.1641430 124.2217626
  91.9730012  98.8274997 136.5369988  91.0560012  99.0904997 136.4499988
  92.3080012  98.8244997 135.6409988  91.8928613  98.8630761 136.4038837
  90.5750012 102.5784997 130.6329988  89.7770012 102.1634997 130.3049988
  91.0200012 101.8874997 131.1239988  90.5259885 102.4283543 130.6544889
  80.0330012 108.5064997 123.2039988  80.6250012 109.2054997 123.4799988
  80.4920012 108.0734997 122.4839988  80.1761142 108.5437049 123.1444830
  78.3490012 101.1704997 122.3199988  78.3040012 102.1094997 122.4979988
  77.4610012 100.9344997 122.0499988  78.2228574 101.2671892 122.3078912
  91.6610012 111.8344997 132.2559988  91.5060012 112.5124997 131.5979988
  92.5940012 111.9064997 132.4589988  91.7658657 111.9369546 132.1934360
  79.1570012  95.9524997 130.9929988  78.9280012  96.0114997 130.0649988
  78.7140012  95.1604997 131.2989988  79.0658530  95.8535753 130.9074786
  78.0870012 109.8924997 127.1529988  77.2550012 110.3654997 127.1799988
  78.6330012 110.4024997 126.5549988  78.0470352 110.0261332 127.0758463
  77.3750012 112.5054997 138.4829988  77.9160012 112.2884997 139.2429988
  76.8940012 111.6994997 138.2929988  77.3839951 112.3669270 138.5612576
  81.9730012 111.4244997 140.1029988  82.7400012 110.9654997 140.4439988
  81.9510012 111.1984997 139.1739988  82.0751275 111.3310186 140.0240101
  86.0650012 110.9324997 121.4789988  85.4210012 110.3014997 121.7999988
  86.8270012 110.4014997 121.2469988  86.0798077 110.7742920 121.4916011
  88.5500012 109.8044997 138.8329988  88.1990012 108.9484997 139.0759988
  89.2760012 109.9474997 139.4399988  88.6000769 109.7065636 138.9483619
  90.6690012 110.7494997 121.7119988  90.9520012 109.9554997 122.1649988
  91.4090012 110.9824997 121.1519988  90.8078006 110.6723376 121.6982715
  77.2820012 106.3154997 139.4369988  77.4260012 105.4134997 139.1509988
  76.5100012 106.6014997 138.9499988  77.1972753 106.2306816 139.3319505
  81.6240012 106.6594997 121.5699988  81.6880012 105.8654997 122.1009988
  82.2770012 106.5404997 120.8799988  81.7210241 106.5347148 121.5494317
  83.9380012 106.2854997 138.8699988  83.6090012 106.5564997 138.0129988
  84.0900012 105.3444997 138.7829988  83.9134809 106.1953862 138.7408244
  86.9760012 107.7064997 121.3059988  86.7070012 107.8864997 122.2069988
  86.7700012 106.7804997 121.1739988  86.9113427 107.6060261 121.4115073
  89.6720012 106.2014997 136.2529988  90.4180012 106.7894997 136.1339988
  88.9150012 106.7834997 136.3169988  89.6717820 106.3607143 136.2453590
  78.1150012 103.5154997 138.8569988  78.5230012 102.6584997 138.7359988
  77.8550012 103.5304997 139.7779988  78.1357568 103.4000807 138.9649588
  82.7730012 104.6314997 123.8759988  82.3130012 104.1474997 124.5619988
  83.0280012 103.9634997 123.2399988  82.7444902 104.4748731 123.8839334
  82.0620012 102.5244997 136.2319988  81.4440012 103.1994997 136.5119988
  82.4060012 102.8454997 135.3979988  82.0239132 102.6602411 136.1576262
  83.8440012 102.8744997 122.1379988  83.6640012 102.7204997 121.2109988
  84.7940012 102.9824997 122.1829988  83.9477776 102.8680175 122.0171843
  87.0820012 104.9964997 139.5089988  88.0350012 105.0794997 139.4819988
  86.9210012 104.2844997 140.1289988  87.1906426 104.9116746 139.5890579
  93.2340012 105.2294997 121.5839988  92.9600012 104.8044997 120.7709988
  93.2730012 106.1604997 121.3669988  93.2017699 105.2972484 121.4433610
  82.4010012  99.8794997 137.3139988  82.5510012  99.1504997 136.7119988
  82.4040012 100.6564997 136.7549988  82.4219302  99.8847851 137.1560692
  82.8140012  98.2494997 134.8069988  83.3500012  98.7004997 134.1549988
  81.9620012  98.1414997 134.3839988  82.7722178  98.2966390 134.6605756
  84.3960012 103.6884997 135.0459988  85.1460012 103.5324997 134.4729988
  84.0570012 104.5404997 134.7709988  84.4528921 103.7822968 134.9303561
  88.8110012 101.5034997 140.0749988  89.0040012 100.5724997 139.9629988
  89.6690012 101.9284997 140.0639988  88.9532934 101.4336531 140.0582031
  90.1280012 104.2924997 138.1519988  89.8470012 105.0014997 137.5739988
  91.0710012 104.2194997 138.0009988  90.2169291 104.3796711 138.0524967
  80.8800012 101.0774997 139.2259988  80.1130012 100.5454997 139.0149988
  81.5590012 100.7674997 138.6259988  80.8667877 100.9628300 139.1160716
  83.6200012  95.7054997 135.2379988  83.5210012  96.6524997 135.1329988
  82.8770012  95.3334997 134.7619988  83.5061184  95.7845863 135.1593621
  84.8840012 100.0274997 138.8019988  84.6480012  99.8074997 139.7029988
  84.1000012  99.8204997 138.2919988  84.7458504  99.9694586 138.8563431
  87.5990012  99.1544997 137.8769988  86.6520012  99.1864997 138.0099988
  87.9120012  98.5294997 138.5309988  87.5116707  99.0743998 137.9836060
  89.2330012  97.7884997 139.8829988  89.1370012  96.8364997 139.8769988
  88.9120012  98.0574997 140.7429988  89.1764070  97.6944035 139.9985441
  79.0600012  98.9984997 138.9299988  79.2720012  98.2914997 138.3199988
  78.9490012  98.5604997 139.7739988  79.0739721  98.8427084 138.9606843
  83.8410012  94.9994997 137.9089988  84.5530012  94.3594997 137.8949988
  83.7400012  95.2664997 136.9959988  83.9248066  94.9480079 137.7835677
  84.1950012  96.6824997 139.9629988  84.0630012  96.2064997 139.1429988
  83.5960012  97.4264997 139.9079988  84.0959071  96.7179618 139.8432886
  83.7410012 113.5654997 123.1389988  84.6740012 113.7234997 123.2829988
  83.4770012 114.2404997 122.5149988  83.8329888 113.6784510 123.0742842
  77.3100012 108.2014997 122.6219988  78.2240012 108.2804997 122.8959988
  77.3170012 107.5144997 121.9559988  77.4361131 108.1193961 122.5694393
  75.9590012 113.5944997 127.6999988  75.3120012 113.1324997 127.1669988
  76.3130012 112.9224997 128.2819988  75.9183849 113.4404723 127.7057959
  76.8290012 111.6754997 129.5039988  76.4940012 110.7954997 129.6759988
  77.0510012 112.0204997 130.3689988  76.8131783 111.6017500 129.6444208
  94.3770012 112.4844997 132.4849988  94.3560012 112.6694997 133.4239988
  95.0680012 113.0534997 132.1439988  94.4674618 112.5866606 132.5673864
  93.9410012 112.0524997 135.4069988  93.4530012 111.3164997 135.0349988
  94.4900012 111.6584997 136.0849988  93.9484820 111.8985889 135.4477813
  92.3910012 107.8414997 140.0449988  91.5250012 107.7364997 140.4389988
  92.7680012 108.6004997 140.4909988  92.3233308 107.9296900 140.1592393
  93.6920012 106.0984997 125.5589988  94.5420012 106.5194997 125.6859988
  93.6980012 105.3584997 126.1659988  93.8091372 106.0560803 125.6584344
  94.0870012 104.1514997 127.3819988  93.3600012 103.6724997 127.7799988
  94.6680012 104.3574997 128.1149988  94.0660473 104.1138103 127.5354528
  93.8460012 106.9364997 132.3299988  94.6790012 106.5584997 132.0499988
  93.9580012 107.8794997 132.2109988  93.9752647 107.0122218 132.2755487
  92.3320012 109.8144997 134.6369988  91.6850012 110.1394997 135.2629988
  91.8150012 109.3744997 133.9629988  92.1734029 109.7995004 134.6315827
  94.3550012 104.0524997 123.7739988  93.8330012 104.4094997 123.0549988
  94.3220012 104.7274997 124.4519988  94.2791634 104.1925413 123.7673145
  92.7040012 101.2924997 122.3239988  92.8000012 101.9594997 121.6439988
  92.5640012 100.4764997 121.8429988  92.6982272 101.2735655 122.1658347
  91.8730012 102.6724997 127.9449988  91.7230012 101.7274997 127.9249988
  91.5200012 102.9534997 128.7889988  91.8047448 102.5811481 128.0563705
  76.9090012 104.7504997 131.9559988  77.0930012 104.6684997 131.0199988
  77.7580012 104.6264997 132.3789988  77.0490151 104.7225073 131.8851451
  92.7300012 104.6424997 137.5839988  93.3130012 103.9084997 137.7759988
  93.2940012 105.4144997 137.6309988  92.8859769 104.6464227 137.6166159
  94.2260012 102.5454997 138.2689988  93.3630012 102.1664997 138.1029988
  94.8310012 101.8064997 138.1939988  94.1896119 102.3938268 138.2361528
  91.9510012  98.7004997 121.4419988  92.5620012  98.3294997 122.0789988
  91.1150012  98.2794997 121.6379988  91.9215032  98.5927554 121.5557035
  91.5840012 100.2554997 126.4079988  91.8640012  99.3484997 126.5319988
  92.3430012 100.6894997 126.0189988  91.7249277 100.1900942 126.3723682
  92.1960012 100.8364997 131.8439988  93.1290012 101.0484997 131.8089988
  91.9610012 100.9384997 132.7659988  92.2919244 100.8793100 131.9638892
  92.2250012 101.5734997 134.6199988  91.3820012 101.8414997 134.9859988
  92.6670012 102.3954997 134.4089988  92.1694158 101.7213291 134.6415491
  76.5060012 100.0214997 138.0969988  77.4260012  99.8994997 138.3329988
  76.0570012  99.2714997 138.4859988  76.5711580  99.9033727 138.1819006
  94.5080012  95.5534997 139.9729988  94.8580012  94.8994997 139.3679988
  94.6550012  96.3904997 139.5329988  94.5757887  95.5771548 139.8306858
  92.1970012  97.5184997 126.4559988  92.3800012  97.0694997 127.2819988
  91.5980012  96.9334997 125.9929988  92.1410202  97.3779975 126.5063275
  77.7270012  98.3334997 130.9879988  78.1730012  97.5414997 131.2899988
  78.1940012  99.0494997 131.4179988  77.8510831  98.3220685 131.0874006
  76.0310012 101.3324997 132.0569988  76.5230012 101.1114997 131.2659988
  76.3940012 102.1734997 132.3379988  76.1473126 101.4158357 131.9867531
  94.0280012  97.6624997 138.3219988  93.1100012  97.9334997 138.2869988
  94.1510012  97.1274997 137.5379988  93.9189729  97.6272508 138.2111923
  94.0640012  97.5854997 122.9839988  94.4760012  96.8644997 122.5089988
  94.7460012  98.2554997 123.0429988  94.2125885  97.5772368 122.9268915
  76.3450012  97.5904997 126.1109988  75.4200012  97.7994997 125.9819988
  76.7990012  98.0744997 125.4209988  76.2797292  97.6845343 126.0000720
  91.1160012 112.5744997 128.0569988  91.7680012 112.2274997 127.4489988
  91.6260012 113.0634997 128.7029988  91.2742637 112.5930597 128.0610236
  76.3090012  96.3284997 134.4549988  75.6440012  96.0824997 135.0989988
  75.8660012  96.9504997 133.8779988  76.1581318  96.3789410 134.4650898
  78.5010012 109.5034997 138.5999988  77.6800012 109.6784997 138.1389988
  78.2480012 109.4304997 139.5199988  78.3545585 109.5175544 138.6613561
  81.4550012 110.4784997 134.8579988  81.0300012 111.2874997 134.5759988
  82.3590012 110.5634997 134.5559988  81.5189975 110.6009300 134.7784816
  85.7660012 111.8774997 137.8179988  85.9510012 111.5434997 138.6959988
  86.6120012 112.1864997 137.4959988  85.9057539 111.8736047 137.8945605
  88.1110012 113.1634997 137.0619988  88.7880012 112.5304997 136.8219988
  88.4330012 113.5644997 137.8689988  88.2471637 113.1311154 137.1382793
  93.0280012  95.7524997 136.1409988  92.2160012  96.0774997 135.7539988
  93.2610012  94.9924997 135.6079988  92.9482203  95.6942758 136.0158880
  78.8570012 113.7344997 134.9059988  78.1360012 114.1744997 134.4549988
  78.4910012 113.4834997 135.7539988  78.7089651 113.7607242 134.9589640
  81.3240012 113.3344997 133.9359988  80.4590012 113.4064997 134.3399988
  81.2690012 113.8814997 133.1519988  81.1982085 113.4182685 133.8853362
  86.0340012 113.2224997 133.1109988  85.5780012 113.7514997 132.4569988
  86.1970012 113.8254997 133.8359988  85.9936068 113.3764607 133.1194838
  88.3620012 112.1004997 134.0559988  87.4570012 112.2654997 133.7899988
  88.7910012 112.9534997 133.9909988  88.2961324 112.2384339 134.0107976
  90.9660012 113.6704997 134.3509988  90.7840012 114.5864997 134.1409988
  91.1430012 113.2604997 133.5049988  90.9650210 113.7404822 134.2077885
  78.2710012 112.3574997 131.8159988  78.2530012 111.9324997 132.6729988
  79.0760012 112.0394997 131.4069988  78.3773529 112.2563013 131.8780946
  80.4130012 111.0674997 130.4709988  80.1940012 110.1514997 130.6409988
  81.2370012 111.2074997 130.9369988  80.4944420 110.9610520 130.5572774
  82.9500012 111.5374997 131.3199988  83.1630012 110.6494997 131.0329988
  83.0140012 111.5034997 132.2739988  82.9878231 111.4113102 131.4097397
  86.4580012  97.2014997 130.4639988  85.7840012  96.5724997 130.7199988
  87.0220012  96.7174997 129.8609988  86.4419230  97.0498744 130.4175340
  91.6010012  95.3094997 130.5769988  92.2050012  95.8564997 130.0749988
  90.7310012  95.6284997 130.3359988  91.5661208  95.4275137 130.4756886
  93.3280012  96.4474997 128.9099988  93.9400012  95.9334997 128.3829988
  93.7100012  97.3254997 128.9329988  93.4633371  96.4957866 128.8410041
  78.7850012  95.8354997 128.2859988  78.0080012  95.6014997 127.7789988
  79.3150012  95.0384997 128.2949988  78.7502330  95.6956988 128.2177742
  77.6210012  95.6334997 124.0899988  78.0600012  96.2444997 123.4979988
  76.9880012  96.1714997 124.5639988  77.5954514  95.7899257 124.0730930
  83.3640012  95.7624997 128.0999988  84.2390012  96.1504997 128.0699988
  83.2280012  95.5474997 129.0219988  83.4653695  95.7865184 128.2206440
  88.9210012  95.7924997 129.7489988  88.9970012  95.8874997 128.7989988
  88.6460012  94.8844997 129.8779988  88.8942321  95.6827867 129.6365079
  90.2740012  95.8184997 125.4409988  89.5720012  96.4334997 125.2309988
  89.8300012  94.9804997 125.5719988  90.1176450  95.7895639 125.4299000
  77.5220012 111.5814997 124.9869988  76.8370012 111.5434997 124.3199988
  77.5260012 112.4944997 125.2759988  77.4286998 111.6996733 124.9346771
  79.4820012  97.5494997 122.5319988  79.9740012  96.9194997 122.0049988
  80.1060012  97.8454997 123.1949988  79.6335688  97.5033804 122.5495482
  84.5080012  97.8424997 124.9889988  84.6860012  97.1964997 125.6719988
  84.4550012  98.6764997 125.4559988  84.5251999  97.8668009 125.1455917
  86.3870012 112.7914997 123.3849988  87.2530012 113.1574997 123.2069988
  86.1400012 112.3514997 122.5709988  86.4722392 112.7821756 123.2506289
  93.0960012 112.3544997 126.0639988  92.9010012 111.6064997 125.4989988
  93.0570012 113.1124997 125.4809988  93.0640380 112.3546099 125.9078384
  78.7430012  96.3494997 137.8039988  78.3770012  95.5844997 138.2459988
  79.6560012  96.3784997 138.0899988  78.8162736  96.2485640 137.9032502
  80.7160012  95.7004997 139.3399988  81.6140012  95.4264997 139.1549988
  80.3290012  94.9574997 139.8039988  80.7866612  95.5625914 139.3773643
  79.3400012 112.5014997 122.0129988  79.0730012 112.7884997 122.8859988
  80.1120012 111.9554997 122.1649988  79.4077488 112.4670294 122.1531050
  89.1370012  95.0324997 139.5219988  89.2140012  94.6064997 140.3759988
  90.0310012  95.0464997 139.1789988  89.2683428  94.9760879 139.5925310
  92.3130012 111.1054997 138.2139988  91.5310012 110.9194997 137.6939988
  92.2410012 112.0344997 138.4319988  92.1962274 111.2056643 138.1723018
 106.7190012 104.9914997 128.2449988 106.8080012 105.9354997 128.1129988
 106.0810012 104.7164997 127.5869988 106.6449081 105.0834830 128.1379614
 105.6520012 104.2464997 131.6639988 105.6140012 103.6004997 132.3689988
 105.3300012 103.7804997 130.8929988 105.6032333 104.0949408 131.6562978
  98.0210012 103.8614997 133.2569988  98.0620012 103.2354997 133.9799988
  98.7240012 104.4854997 133.4389988  98.1216363 103.8601196 133.3806044
 109.3580012 107.1854997 129.9649988 108.9180012 106.4654997 130.4159988
 109.3450012 107.9064997 130.5949988 109.2960226 107.1843731 130.1118494
  98.9440012 108.3114997 131.7919988  98.5750012 107.5094997 131.4219988
  99.8850012 108.1424997 131.8379988  99.0207289 108.1790153 131.7476316
  95.5540012 101.9714997 127.1849988  95.1070012 102.8174997 127.1659988
  94.9930012 101.3914997 126.6689988  95.4169900 102.0089916 127.1126801
  96.2650012 104.1334997 129.3099988  96.4780012 103.3634997 129.8379988
  97.0030012 104.2224997 128.7069988  96.3939044 104.0401968 129.3007123
 106.4700012 112.2904997 130.1769988 107.0900012 111.6134997 129.9039988
 106.2620012 112.0724997 131.0859988 106.5266726 112.1684800 130.2624812
 104.0420012 106.6794997 132.0699988 104.3460012 105.9934997 131.4749988
 104.7630012 106.7974997 132.6879988 104.1810671 106.6016305 132.0721816
 112.7050012  98.2804997 132.9309988 112.7540012  98.8904997 133.6659988
 113.1300012  98.7414997 132.2079988 112.7691746  98.4263796 132.9339175
 107.1830012 101.0734997 132.3969988 107.3250012 100.1274997 132.4179988
 107.0760012 101.2804997 131.4689988 107.1879919 100.9718246 132.2743408
 100.3370012  99.1744997 129.6699988 100.3810012 100.0344997 129.2509988
  99.8800012  98.6224997 129.0359988 100.2812240  99.2174422 129.5269864
 108.0600012  99.3054997 128.0709988 108.7060012  98.9764997 128.6949988
 108.5700012  99.8234997 127.4479988 108.2174299  99.3304450 128.0722731
  96.9580012 101.5714997 130.4319988  97.6110012 101.0214997 130.8639988
  96.9820012 101.2974997 129.5149988  97.0506683 101.4591466 130.3672123
 102.1140012 103.1214997 129.6469988 102.7300012 102.5954997 130.1569988
 101.5280012 102.4814997 129.2439988 102.1190810 102.9629208 129.6623173
 113.0960012  99.7584997 135.1659988 112.4080012 100.4164997 135.0709988
 113.1120012  99.5614997 136.1029988 113.0039540  99.8219819 135.2795990
  99.1480012  98.0924997 133.7439988  98.9290012  98.6224997 132.9779988
  98.4800012  98.3194997 134.3909988  99.0277600  98.1956906 133.7266379
 106.5170012 107.5924997 127.2879988 106.2210012 107.2704997 126.4369988
 106.1920012 108.4924997 127.3289988 106.4326371 107.6700215 127.1771801
 101.7170012 105.7684997 134.0309988 100.9770012 106.3664997 134.1349988
 102.4310012 106.3224997 133.7159988 101.7122237 105.9252831 134.0026465
 109.8240012  98.5964997 130.0509988 109.6080012  97.8304997 130.5839988
 110.4790012  99.0684997 130.5639988 109.8830632  98.5555889 130.1932861
  98.7410012  99.9844997 131.6959988  99.3550012 100.6174997 132.0689988
  99.2530012  99.5124997 131.0399988  98.8941981 100.0072267 131.6582908
 100.1240012 107.7324997 134.8179988 100.1190012 108.6124997 134.4399988
  99.2710012 107.6494997 135.2429988 100.0079464 107.8416117 134.8237907
  96.2450012 107.4034997 125.5999988  95.9730012 107.6324997 124.7119988
  96.2910012 108.2414997 126.0609988  96.2139482 107.5481318 125.5406273
 109.8700012 109.0254997 132.3129988 108.9290012 109.0834997 132.4749988
 110.1470012 109.9314997 132.1759988 109.7784679 109.1559443 132.3166815
 110.1710012  97.3114997 133.7309988 109.4350012  97.9224997 133.6929988
 110.8540012  97.7264997 133.2039988 110.1626541  97.4511374 133.6545832
 103.1740012  95.3984997 131.1959988 103.0570012  94.4494997 131.1419988
 102.3190012  95.7304997 131.4699988 103.0424212  95.3135571 131.2256497
 108.1220012 110.8064997 128.9379988 108.5480012 110.0994997 128.4529988
 108.4390012 111.6074997 128.5219988 108.2231683 110.8181017 128.8153680
 109.2820012 108.7074997 127.4469988 109.0240012 108.0174997 126.8359988
 109.3530012 108.2644997 128.2929988 109.2562856 108.5532124 127.4776885
 110.9680012 107.2734997 135.9239988 111.1080012 106.6824997 135.1849988
 111.1350012 108.1464997 135.5679988 111.0097411 107.3105428 135.7746894
 105.4410012 104.2354997 125.6969988 104.7290012 104.7704997 125.3449988
 106.1320012 104.2914997 125.0369988 105.4370132 104.3162543 125.5596289
 105.4940012 102.6934997 122.7359988 106.1950012 102.7154997 123.3869988
 105.7970012 102.0654997 122.0789988 105.6308133 102.6117070 122.7363369
 112.8100012 103.6134997 133.9899988 112.1570012 104.3084997 134.0799988
 113.2750012 103.8234997 133.1809988 112.7835274 103.7370643 133.8928462
 108.8460012 104.4454997 126.6489988 108.1140012 104.6734997 127.2219988
 109.2940012 103.7314997 127.1029988 108.8062725 104.3802145 126.7888816
 108.7440012 102.6194997 135.7159988 108.8240012 103.3824997 136.2879988
 108.1420012 102.8984997 135.0259988 108.6735756 102.7617134 135.7010589
 100.4920012 105.0754997 128.5309988 100.1610012 104.7054997 127.7129988
 101.0800012 104.4054997 128.8779988 100.5261873 104.9341156 128.4658102
 101.8580012 108.5034997 131.2119988 101.7640012 107.9254997 130.4559988
 102.5880012 108.1324997 131.7089988 101.9437387 108.3741663 131.1755342
 100.8580012 103.8444997 132.1649988 101.4240012 103.9654997 131.4019988
 101.1770012 104.4814997 132.8029988 100.9785474 103.9472219 132.1469862
 107.1670012 109.3474997 132.8989988 106.9270012 110.0094997 133.5469988
 106.9690012 108.5134997 133.3239988 107.1073808 109.3253134 133.0451524
 101.7380012 108.2434997 136.8819988 101.4270012 109.0254997 137.3369988
 101.0880012 108.0904997 136.1959988 101.6075558 108.3299105 136.8515871
 107.7170012 103.6074997 124.3339988 108.2970012 103.7574997 125.0809988
 108.1310012 104.0784997 123.6099988 107.8522997 103.6916578 124.3384058
  98.6580012 104.4414997 136.1099988  98.7290012 105.0924997 136.8089988
  97.7680012 104.5444997 135.7749988  98.5473005 104.5445427 136.1603495
 105.4440012 110.3444997 127.7689988 105.9180012 110.6394997 128.5459988
 104.8810012 111.0824997 127.5359988 105.4328184 110.4847247 127.8439628
  99.9780012 110.3154997 137.6449988  99.9850012 110.1794997 136.6979988
  99.0620012 110.1974997 137.8969988  99.8551714 110.2809430 137.5494666
 111.4160012  95.3574997 124.1469988 110.5160012  95.4964997 124.4419988
 111.6680012  96.1884997 123.7449988 111.3268702  95.4889074 124.1330205
  99.4820012 104.1454997 126.1199988  99.1900012 104.9134997 125.6299988
  98.8080012 103.4854997 125.9579988  99.3508111 104.1615587 126.0308978
 112.6050012 109.7234997 122.5229988 112.6790012 110.6624997 122.6939988
 113.5110012 109.4184997 122.4669988 112.7375100 109.8106722 122.5388119
  95.5750012 106.5084997 134.9349988  95.0740012 106.4804997 134.1199988
  95.5800012 105.6024997 135.2449988  95.5070944 106.3822396 134.8653226
  95.3250012 109.2884997 131.8189988  96.2710012 109.1444997 131.7999988
  95.2130012 110.0724997 132.3559988  95.4392727 109.3748046 131.8890072
 113.5230012 109.9544997 137.5019988 113.4740012 108.9994997 137.4649988
 112.6960012 110.2224997 137.9029988 113.4044940 109.8598998 137.5511375
 104.5020012 109.5284997 136.3779988 104.5890012 110.3544997 136.8529988
 103.6380012 109.1984997 136.6269988 104.3971964 109.5969878 136.4766549
 104.9160012 113.3004997 126.1839988 104.8410012 113.1794997 125.2369988
 104.9490012 114.2504997 126.3019988 104.9102068 113.4122646 126.0704967
  98.5690012 112.0894997 127.9649988  98.7220012 111.7414997 128.8429988
  97.7190012 111.7334997 127.7099988  98.4749166 111.9936216 128.0508079
 108.0180012 112.4544997 123.1859988 108.3930012 111.7104997 122.7149988
 108.0220012 112.1844997 124.1049988 108.0699125 112.3160986 123.2456483
 107.6870012 112.3804997 125.9349988 106.7510012 112.4804997 126.1139988
 107.9670012 111.6714997 126.5139988 107.5969553 112.2983406 126.0377087
 110.6750012 101.4474997 137.9819988 110.2680012 101.9284997 137.2609988
 110.7160012 100.5424997 137.6739988 110.6248437 101.3909374 137.8416683
  97.8240012 107.8314997 135.9789988  98.0400012 107.4704997 136.8379988
  96.9690012 107.4574997 135.7689988  97.7379292 107.7314111 136.0683386
 100.4430012  96.3014997 131.9739988  99.5810012  96.2144997 131.5659988
 100.4200012  97.1574997 132.4019988 100.3220409  96.4052883 131.9760589
 105.1060012  96.0234997 135.3489988 105.5260012  95.6084997 136.1019988
 104.1730012  95.8454997 135.4659988 105.0373644  95.9425900 135.4679539
 108.4320012  99.7794997 136.2019988 107.9180012  99.6534997 136.9999988
 108.2770012 100.6914997 135.9579988 108.3406852  99.8856132 136.2782158
 109.1950012 104.6404997 121.9639988 109.2370012 104.4174997 121.0339988
 110.0440012 105.0394997 122.1529988 109.3155280 104.6639438 121.8623554
 104.7670012  98.5164997 122.6339988 104.5140012  98.5354997 123.5569988
 104.5110012  97.6444997 122.3319988 104.6977481  98.4012558 122.7196175
 100.5340012 101.2674997 133.0689988  99.8920012 101.2264997 133.7779988
 100.5710012 102.1934997 132.8309988 100.4510664 101.3871430 133.1339219
 100.5310012 101.4884997 127.9809988  99.6380012 101.1474997 127.9219988
 100.9810012 101.1114997 127.2249988 100.4698130 101.3909631 127.8707702
 106.0660012 101.9044997 126.7979988 105.6570012 102.7194997 126.5069988
 106.7870012 101.7644997 126.1839988 106.1074537 101.9972018 126.6751342
 105.1680012 102.0794997 138.2859988 104.6060012 101.3754997 138.6069988
 105.9950012 101.9594997 138.7539988 105.2027095 101.9667883 138.3932330
 107.0710012 101.3504997 129.6119988 106.8760012 101.9554997 128.8969988
 107.2520012 100.5164997 129.1779988 107.0687614 101.3206300 129.4554405
  98.2840012 101.5874997 134.9359988  98.2460012 101.9874997 135.8049988
  97.7930012 100.7704997 135.0269988  98.2124684 101.5318069 135.0671059
 101.6500012  98.9614997 121.7349988 101.2190012  98.5164997 122.4649988
 100.9320012  99.3334997 121.2229988 101.4939438  98.9508940 121.7656799
  94.8920012  98.7034997 128.7869988  95.5230012  98.6744997 129.5059988
  95.3410012  98.2784997 128.0559988  95.0390918  98.6420836 128.7866441
  96.1660012  99.4494997 124.2109988  96.6400012 100.0404997 123.6259988
  95.4490012  99.9804997 124.5579988  96.1339341  99.6020867 124.1778836
 106.3350012 102.9884997 134.2829988 106.6580012 102.3574997 133.6399988
 105.8950012 102.4534997 134.9439988 106.3197484 102.8298387 134.2843198
 103.1120012  98.9154997 129.0669988 102.2010012  98.9724997 129.3559988
 103.6180012  98.8554997 129.8779988 103.0556899  98.9151941 129.2161184
  97.9410012 100.5444997 127.8939988  97.0510012 100.6444997 127.5539988
  98.2370012  99.7024997 127.5479988  97.8592823 100.4443546 127.8007213
 101.5940012 100.5444997 125.5509988 102.5250012 100.6734997 125.7289988
 101.3790012 101.2144997 124.9009988 101.6924247 100.6526565 125.4875747
 107.5170012  98.1504997 132.3319988 106.8410012  98.2814997 132.9959988
 107.0320012  97.9954997 131.5209988 107.3587146  98.1475157 132.3134469
 100.2680012 101.7394997 123.1169988  99.7250012 101.3594997 122.4259988
 101.1010012 101.9334997 122.6889988 100.3063631 101.7137125 122.9644501
 110.8050012 113.8224997 138.6079988 111.0050012 114.2464997 137.7739988
 111.4600012 114.1654997 139.2149988 110.9210072 113.9269857 138.5758592
  98.4030012 106.2964997 138.2159988  99.1350012 106.5504997 138.7779988
  97.6230012 106.5004997 138.7319988  98.3977073 106.3588160 138.3626151
 104.4320012 101.7034997 130.9539988 104.9970012 101.1564997 130.4069988
 104.2850012 101.1814997 131.7429988 104.4893380 101.5582259 130.9858695
  99.4340012  97.8394997 127.3729988  99.1170012  96.9374997 127.3369988
 100.2160012  97.8414997 126.8199988  99.4962408  97.7162474 127.2933569
 103.0590012 100.0914997 133.3679988 102.2230012 100.5454997 133.4789988
 103.5830012 100.3674997 134.1199988 103.0155416 100.1908660 133.4848119
 103.6030012 106.3044997 125.0529988 102.8580012 105.7974997 124.7309988
 103.4690012 106.3534997 125.9999988 103.4828776 106.2416940 125.1368647
 110.7530012 105.4374997 133.8399988 111.3950012 105.8944997 133.2959988
 109.9230012 105.5504997 133.3769988 110.7285963 105.5152704 133.7030177
 107.5010012  99.1184997 123.2519988 106.5620012  99.2304997 123.1009988
 107.7980012  99.9754997 123.5589988 107.4127583  99.2495981 123.2728337
 105.1220012 106.4884997 136.2899988 104.7770012 106.1074997 137.0969988
 104.9220012 107.4224997 136.3609988 105.0477527 106.5625135 136.4100689
 108.2190012 100.9854997 124.9129988 109.1110012 100.8484997 125.2319988
 108.2760012 101.7764997 124.3759988 108.3486504 101.0736052 124.8840818
  98.7280012 105.5994997 130.8229988  99.4730012 105.5974997 130.2219988
  98.8060012 104.7764997 131.3039988  98.8404995 105.4878887 130.8058282
 105.7290012 107.7634997 124.0789988 105.4330012 108.5894997 124.4599988
 105.0260012 107.1434997 124.2749988 105.5934914 107.7928199 124.1576443
  95.7360012 104.0604997 136.1379988  95.9590012 103.6424997 136.9699988
  95.1340012 103.4474997 135.7149988  95.6851759 103.9204668 136.1947022
 102.7520012 103.5774997 138.3509988 102.4560012 103.4114997 137.4559988
 103.6840012 103.3574997 138.3399988 102.8374166 103.5250640 138.2270536
 107.3730012 108.9504997 136.2409988 106.4720012 109.1334997 135.9729988
 107.4070012 109.2094997 137.1609988 107.2543139 109.0105849 136.3288099
 113.1040012 101.1954997 124.6079988 112.5500012 100.7994997 123.9359988
 113.2040012 102.1054997 124.3299988 113.0417059 101.2643586 124.4784401
 113.0670012 106.9954997 137.4449988 112.2160012 107.2334997 137.0779988
 113.6580012 106.9784997 136.6919988 113.0302487 107.0258258 137.2928893
 111.3990012 109.9814997 125.0729988 111.0260012 109.1554997 125.3819988
 111.6770012 109.7984997 124.1749988 111.3855222 109.8437430 124.9939473
 108.5600012 104.7894997 132.0939988 107.6310012 104.5574997 132.0669988
 109.0110012 104.0124997 131.7639988 108.4939216 104.6527238 132.0456917
 101.1030012 109.1174997 128.2269988 101.6300012 109.8904997 128.0269988
 100.2230012 109.3424997 127.9249988 101.0562031 109.2537545 128.1587912
  96.8580012 103.9794997 122.8139988  97.4740012 104.6064997 123.1939988
  95.9960012 104.2954997 123.0859988  96.8257698 104.1079430 122.9027183
 102.5300012 106.7804997 127.8029988 102.2890012 107.7054997 127.8449988
 101.7890012 106.3214997 128.1999988 102.3969225 106.8450933 127.8623742
 103.0450012 110.9294997 134.1189988 103.4070012 111.7844997 133.8849988
 103.5760012 110.6374997 134.8589988 103.1664473 111.0071060 134.1870855
 101.2130012 111.8024997 127.3489988 100.2630012 111.9074997 127.3999988
 101.5650012 112.6224997 127.6929988 101.1304195 111.9278800 127.4025502
 106.5890012 107.0284997 133.8189988 106.1630012 106.8014997 134.6459988
 107.1690012 106.2904997 133.6369988 106.6091868 106.8975299 133.9075830
 108.7920012 107.9574997 122.8929988 109.1450012 107.5774997 123.6969988
 107.8430012 107.8644997 122.9799988 108.7120918 107.8928956 123.0148532
 109.2470012 111.5804997 136.2889988 108.6460012 111.0254997 135.7929988
 109.5290012 112.2474997 135.6619988 109.2028804 111.5946625 136.1364849
 113.2950012 112.4374997 123.0939988 114.0390012 113.0234997 122.9539988
 112.6010012 113.0054997 123.4269988 113.3029899 112.5945798 123.1198778
  97.3700012  98.8134997 135.6959988  96.4770012  99.1524997 135.6279988
  97.2710012  97.9584997 136.1139988  97.2344164  98.7442588 135.7432235
 109.6580012 106.6304997 125.1199988 109.3800012 105.9024997 125.6759988
 110.5850012 106.7494997 125.3249988 109.7453124 106.5468802 125.2238845
  97.0210012 110.6184997 134.1309988  97.2380012 109.6864997 134.0999988
  97.2670012 110.8924997 135.0139988  97.0839549 110.5280636 134.2461763
 102.8830012 109.0694997 121.3399988 103.1220012 108.3214997 120.7929988
 102.6140012 108.6814997 122.1729988 102.8793675 108.9146638 121.3776865
 101.8200012 108.6394997 123.7959988 101.9660012 108.1194997 124.5859988
 101.8170012 109.5464997 124.1029988 101.8395792 108.6908842 123.9456117
  98.2730012 105.8924997 124.3069988  97.5870012 106.2444997 124.8739988
  98.7950012 106.6554997 124.0599988  98.2496852 106.0438578 124.3512118
 106.1040012  98.5544997 134.5859988 106.8030012  98.6284997 135.2359988
 105.7230012  97.6904997 134.7399988 106.1481767  98.4477624 134.6958322
 106.8890012  98.2064997 125.6829988 107.1090012  98.6784997 124.8799988
 107.4470012  98.6014997 126.3529988 106.9944968  98.3244285 125.6637331
 104.5570012 110.3374997 124.5459988 103.7410012 110.8344997 124.5979988
 105.0870012 110.8124997 123.9059988 104.5169161 110.4697722 124.4665956
 104.0890012  99.9344997 126.5179988 104.9010012 100.4394997 126.5639988
 103.8440012  99.7894997 127.4319988 104.1670520  99.9840375 126.6478517
 104.6240012 100.9204997 135.7019988 104.7430012 101.4944997 136.4599988
 105.2800012 100.2324997 135.8169988 104.7289025 100.9059858 135.8211321
 104.9720012  97.0154997 127.4559988 104.6260012  97.6334997 128.0999988
 105.6310012  97.5164997 126.9739988 105.0136968  97.1676278 127.4789383
 101.8960012 111.3814997 124.5269988 102.0560012 112.1804997 124.0269988
 101.6980012 111.6874997 125.4119988 101.8911637 111.5324020 124.5781144
 100.6300012  98.0784997 124.1429988 100.5470012  98.9674997 124.4899988
 101.5200012  97.8134997 124.3749988 100.7389469  98.1641430 124.2217626
 110.8290012  98.8274997 136.5369988 109.9120012  99.0904997 136.4499988
 111.1640012  98.8244997 135.6409988 110.7488613  98.8630761 136.4038837
 109.4310012 102.5784997 130.6329988 108.6330012 102.1634997 130.3049988
 109.8760012 101.8874997 131.1239988 109.3819885 102.4283543 130.6544889
  98.8890012 108.5064997 123.2039988  99.4810012 109.2054997 123.4799988
  99.3480012 108.0734997 122.4839988  99.0321142 108.5437049 123.1444830
  97.2050012 101.1704997 122.3199988  97.1600012 102.1094997 122.4979988
  96.3170012 100.9344997 122.0499988  97.0788574 101.2671892 122.3078912
 110.5170012 111.8344997 132.2559988 110.3620012 112.5124997 131.5979988
 111.4500012 111.9064997 132.4589988 110.6218657 111.9369546 132.1934360
  98.0130012  95.9524997 130.9929988  97.7840012  96.0114997 130.0649988
  97.5700012  95.1604997 131.2989988  97.9218530  95.8535753 130.9074786
  96.9430012 109.8924997 127.1529988  96.1110012 110.3654997 127.1799988
  97.4890012 110.4024997 126.5549988  96.9030352 110.0261332 127.0758463
  96.2310012 112.5054997 138.4829988  96.7720012 112.2884997 139.2429988
  95.7500012 111.6994997 138.2929988  96.2399951 112.3669270 138.5612576
 100.8290012 111.4244997 140.1029988 101.5960012 110.9654997 140.4439988
 100.8070012 111.1984997 139.1739988 100.9311275 111.3310186 140.0240101
 104.9210012 110.9324997 121.4789988 104.2770012 110.3014997 121.7999988
 105.6830012 110.4014997 121.2469988 104.9358077 110.7742920 121.4916011
 107.4060012 109.8044997 138.8329988 107.0550012 108.9484997 139.0759988
 108.1320012 109.9474997 139.4399988 107.4560769 109.7065636 138.9483619
 109.5250012 110.7494997 121.7119988 109.8080012 109.9554997 122.1649988
 110.2650012 110.9824997 121.1519988 109.6638006 110.6723376 121.6982715
  96.1380012 106.3154997 139.4369988  96.2820012 105.4134997 139.1509988
  95.3660012 106.6014997 138.9499988  96.0532753 106.2306816 139.3319505
 100.4800012 106.6594997 121.5699988 100.5440012 105.8654997 122.1009988
 101.1330012 106.5404997 120.8799988 100.5770241 106.5347148 121.5494317
 102.7940012 106.2854997 138.8699988 102.4650012 106.5564997 138.0129988
 102.9460012 105.3444997 138.7829988 102.7694809 106.1953862 138.7408244
 105.8320012 107.7064997 121.3059988 105.5630012 107.8864997 122.2069988
 105.6260012 106.7804997 121.1739988 105.7673427 107.6060261 121.4115073
 108.5280012 106.2014997 136.2529988 109.2740012 106.7894997 136.1339988
 107.7710012 106.7834997 136.3169988 108.5277820 106.3607143 136.2453590
  96.9710012 103.5154997 138.8569988  97.3790012 102.6584997 138.7359988
  96.7110012 103.5304997 139.7779988  96.9917568 103.4000807 138.9649588
 101.6290012 104.6314997 123.8759988 101.1690012 104.1474997 124.5619988
 101.8840012 103.9634997 123.2399988 101.6004902 104.4748731 123.8839334
 100.9180012 102.5244997 136.2319988 100.3000012 103.1994997 136.5119988
 101.2620012 102.8454997 135.3979988 100.8799132 102.6602411 136.1576262
 102.7000012 102.8744997 122.1379988 102.5200012 102.7204997 121.2109988
 103.6500012 102.9824997 122.1829988 102.8037776 102.8680175 122.0171843
 105.9380012 104.9964997 139.5089988 106.8910012 105.0794997 139.4819988
 105.7770012 104.2844997 140.1289988 106.0466426 104.9116746 139.5890579
 112.0900012 105.2294997 121.5839988 111.8160012 104.8044997 120.7709988
 112.1290012 106.1604997 121.3669988 112.0577699 105.2972484 121.4433610
 101.2570012  99.8794997 137.3139988 101.4070012  99.1504997 136.7119988
 101.2600012 100.6564997 136.7549988 101.2779302  99.8847851 137.1560692
 101.6700012  98.2494997 134.8069988 102.2060012  98.7004997 134.1549988
 100.8180012  98.1414997 134.3839988 101.6282178  98.2966390 134.6605756
 103.2520012 103.6884997 135.0459988 104.0020012 103.5324997 134.4729988
 102.9130012 104.5404997 134.7709988 103.3088921 103.7822968 134.9303561
 107.6670012 101.5034997 140.0749988 107.8600012 100.5724997 139.9629988
 108.5250012 101.9284997 140.0639988 107.8092934 101.4336531 140.0582031
 108.9840012 104.2924997 138.1519988 108.7030012 105.0014997 137.5739988
 109.9270012 104.2194997 138.0009988 109.0729291 104.3796711 138.0524967
  99.7360012 101.0774997 139.2259988  98.9690012 100.5454997 139.0149988
 100.4150012 100.7674997 138.6259988  99.7227877 100.9628300 139.1160716
 102.4760012  95.7054997 135.2379988 102.3770012  96.6524997 135.1329988
 101.7330012  95.3334997 134.7619988 102.3621184  95.7845863 135.1593621
 103.7400012 100.0274997 138.8019988 103.5040012  99.8074997 139.7029988
 102.9560012  99.8204997 138.2919988 103.6018504  99.9694586 138.8563431
 106.4550012  99.1544997 137.8769988 105.5080012  99.1864997 138.0099988
 106.7680012  98.5294997 138.5309988 106.3676707  99.0743998 137.9836060
 108.0890012  97.7884997 139.8829988 107.9930012  96.8364997 139.8769988
 107.7680012  98.0574997 140.7429988 108.0324070  97.6944035 139.9985441
  97.9160012  98.9984997 138.9299988  98.1280012  98.2914997 138.3199988
  97.8050012  98.5604997 139.7739988  97.9299721  98.8427084 138.9606843
 102.6970012  94.9994997 137.9089988 103.4090012  94.3594997 137.8949988
 102.5960012  95.2664997 136.9959988 102.7808066  94.9480079 137.7835677
 103.0510012  96.6824997 139.9629988 102.9190012  96.2064997 139.1429988
 102.4520012  97.4264997 139.9079988 102.9519071  96.7179618 139.8432886
 102.5970012 113.5654997 123.1389988 103.5300012 113.7234997 123.2829988
 102.3330012 114.2404997 122.5149988 102.6889888 113.6784510 123.0742842
  96.1660012 108.2014997 122.6219988  97.0800012 108.2804997 122.8959988
  96.1730012 107.5144997 121.9559988  96.2921131 108.1193961 122.5694393
  94.8150012 113.5944997 127.6999988  94.1680012 113.1324997 127.1669988
  95.1690012 112.9224997 128.2819988  94.7743849 113.4404723 127.7057959
  95.6850012 111.6754997 129.5039988  95.3500012 110.7954997 129.6759988
  95.9070012 112.0204997 130.3689988  95.6691783 111.6017500 129.6444208
 113.2330012 112.4844997 132.4849988 113.2120012 112.6694997 133.4239988
 113.9240012 113.0534997 132.1439988 113.3234618 112.5866606 132.5673864
 112.7970012 112.0524997 135.4069988 112.3090012 111.3164997 135.0349988
 113.3460012 111.6584997 136.0849988 112.8044820 111.8985889 135.4477813
 111.2470012 107.8414997 140.0449988 110.3810012 107.7364997 140.4389988
 111.6240012 108.6004997 140.4909988 111.1793308 107.9296900 140.1592393
 112.5480012 106.0984997 125.5589988 113.3980012 106.5194997 125.6859988
 112.5540012 105.3584997 126.1659988 112.6651372 106.0560803 125.6584344
 112.9430012 104.1514997 127.3819988 112.2160012 103.6724997 127.7799988
 113.5240012 104.3574997 128.1149988 112.9220473 104.1138103 127.5354528
 112.7020012 106.9364997 132.3299988 113.5350012 106.5584997 132.0499988
 112.8140012 107.8794997 132.2109988 112.8312647 107.0122218 132.2755487
 111.1880012 109.8144997 134.6369988 110.5410012 110.1394997 135.2629988
 110.6710012 109.3744997 133.9629988 111.0294029 109.7995004 134.6315827
 113.2110012 104.0524997 123.7739988 112.6890012 104.4094997 123.0549988
 113.1780012 104.7274997 124.4519988 113.1351634 104.1925413 123.7673145
 111.5600012 101.2924997 122.3239988 111.6560012 101.9594997 121.6439988
 111.4200012 100.4764997 121.8429988 111.5542272 101.2735655 122.1658347
 110.7290012 102.6724997 127.9449988 110.5790012 101.7274997 127.9249988
 110.3760012 102.9534997 128.7889988 110.6607448 102.5811481 128.0563705
  95.7650012 104.7504997 131.9559988  95.9490012 104.6684997 131.0199988
  96.6140012 104.6264997 132.3789988  95.9050151 104.7225073 131.8851451
 111.5860012 104.6424997 137.5839988 112.1690012 103.9084997 137.7759988
 112.1500012 105.4144997 137.6309988 111.7419769 104.6464227 137.6166159
 113.0820012 102.5454997 138.2689988 112.2190012 102.1664997 138.1029988
 113.6870012 101.8064997 138.1939988 113.0456119 102.3938268 138.2361528
 110.8070012  98.7004997 121.4419988 111.4180012  98.3294997 122.0789988
 109.9710012  98.2794997 121.6379988 110.7775032  98.5927554 121.5557035
 110.4400012 100.2554997 126.4079988 110.7200012  99.3484997 126.5319988
 111.1990012 100.6894997 126.0189988 110.5809277 100.1900942 126.3723682
 111.0520012 100.8364997 131.8439988 111.9850012 101.0484997 131.8089988
 110.8170012 100.9384997 132.7659988 111.1479244 100.8793100 131.9638892
 111.0810012 101.5734997 134.6199988 110.2380012 101.8414997 134.9859988
 111.5230012 102.3954997 134.4089988 111.0254158 101.7213291 134.6415491
  95.3620012 100.0214997 138.0969988  96.2820012  99.8994997 138.3329988
  94.9130012  99.2714997 138.4859988  95.4271580  99.9033727 138.1819006
 113.3640012  95.5534997 139.9729988 113.7140012  94.8994997 139.3679988
 113.5110012  96.3904997 139.5329988 113.4317887  95.5771548 139.8306858
 111.0530012  97.5184997 126.4559988 111.2360012  97.0694997 127.2819988
 110.4540012  96.9334997 125.9929988 110.9970202  97.3779975 126.5063275
  96.5830012  98.3334997 130.9879988  97.0290012  97.5414997 131.2899988
  97.0500012  99.0494997 131.4179988  96.7070831  98.3220685 131.0874006
  94.8870012 101.3324997 132.0569988  95.3790012 101.1114997 131.2659988
  95.2500012 102.1734997 132.3379988  95.0033126 101.4158357 131.9867531
 112.8840012  97.6624997 138.3219988 111.9660012  97.9334997 138.2869988
 113.0070012  97.1274997 137.5379988 112.7749729  97.6272508 138.2111923
 112.9200012  97.5854997 122.9839988 113.3320012  96.8644997 122.5089988
 113.6020012  98.2554997 123.0429988 113.0685885  97.5772368 122.9268915
  95.2010012  97.5904997 126.1109988  94.2760012  97.7994997 125.9819988
  95.6550012  98.0744997 125.4209988  95.1357292  97.6845343 126.0000720
 109.9720012 112.5744997 128.0569988 110.6240012 112.2274997 127.4489988
 110.4820012 113.0634997 128.7029988 110.1302637 112.5930597 128.0610236
  95.1650012  96.3284997 134.4549988  94.5000012  96.0824997 135.0989988
  94.7220012  96.9504997 133.8779988  95.0141318  96.3789410 134.4650898
  97.3570012 109.5034997 138.5999988  96.5360012 109.6784997 138.1389988
  97.1040012 109.4304997 139.5199988  97.2105585 109.5175544 138.6613561
 100.3110012 110.4784997 134.8579988  99.8860012 111.2874997 134.5759988
 101.2150012 110.5634997 134.5559988 100.3749975 110.6009300 134.7784816
 104.6220012 111.8774997 137.8179988 104.8070012 111.5434997 138.6959988
 105.4680012 112.1864997 137.4959988 104.7617539 111.8736047 137.8945605
 106.9670012 113.1634997 137.0619988 107.6440012 112.5304997 136.8219988
 107.2890012 113.5644997 137.8689988 107.1031637 113.1311154 137.1382793
 111.8840012  95.7524997 136.1409988 111.0720012  96.0774997 135.7539988
 112.1170012  94.9924997 135.6079988 111.8042203  95.6942758 136.0158880
  97.7130012 113.7344997 134.9059988  96.9920012 114.1744997 134.4549988
  97.3470012 113.4834997 135.7539988  97.5649651 113.7607242 134.9589640
 100.1800012 113.3344997 133.9359988  99.3150012 113.4064997 134.3399988
 100.1250012 113.8814997 133.1519988 100.0542085 113.4182685 133.8853362
 104.8900012 113.2224997 133.1109988 104.4340012 113.7514997 132.4569988
 105.0530012 113.8254997 133.8359988 104.8496068 113.3764607 133.1194838
 107.2180012 112.1004997 134.0559988 106.3130012 112.2654997 133.7899988
 107.6470012 112.9534997 133.9909988 107.1521324 112.2384339 134.0107976
 109.8220012 113.6704997 134.3509988 109.6400012 114.5864997 134.1409988
 109.9990012 113.2604997 133.5049988 109.8210210 113.7404822 134.2077885
  97.1270012 112.3574997 131.8159988  97.1090012 111.9324997 132.6729988
  97.9320012 112.0394997 131.4069988  97.2333529 112.2563013 131.8780946
  99.2690012 111.0674997 130.4709988  99.0500012 110.1514997 130.6409988
 100.0930012 111.2074997 130.9369988  99.3504420 110.9610520 130.5572774
 101.8060012 111.5374997 131.3199988 102.0190012 110.6494997 131.0329988
 101.8700012 111.5034997 132.2739988 101.8438231 111.4113102 131.4097397
 105.3140012  97.2014997 130.4639988 104.6400012  96.5724997 130.7199988
 105.8780012  96.7174997 129.8609988 105.2979230  97.0498744 130.4175340
 110.4570012  95.3094997 130.5769988 111.0610012  95.8564997 130.0749988
 109.5870012  95.6284997 130.3359988 110.4221208  95.4275137 130.4756886
 112.1840012  96.4474997 128.9099988 112.7960012  95.9334997 128.3829988
 112.5660012  97.3254997 128.9329988 112.3193371  96.4957866 128.8410041
  97.6410012  95.8354997 128.2859988  96.8640012  95.6014997 127.7789988
  98.1710012  95.0384997 128.2949988  97.6062330  95.6956988 128.2177742
  96.4770012  95.6334997 124.0899988  96.9160012  96.2444997 123.4979988
  95.8440012  96.1714997 124.5639988  96.4514514  95.7899257 124.0730930
 102.2200012  95.7624997 128.0999988 103.0950012  96.1504997 128.0699988
 102.0840012  95.5474997 129.0219988 102.3213695  95.7865184 128.2206440
 107.7770012  95.7924997 129.7489988 107.8530012  95.8874997 128.7989988
 107.5020012  94.8844997 129.8779988 107.7502321  95.6827867 129.6365079
 109.1300012  95.8184997 125.4409988 108.4280012  96.4334997 125.2309988
 108.6860012  94.9804997 125.5719988 108.9736450  95.7895639 125.4299000
  96.3780012 111.5814997 124.9869988  95.6930012 111.5434997 124.3199988
  96.3820012 112.4944997 125.2759988  96.2846998 111.6996733 124.9346771
  98.3380012  97.5494997 122.5319988  98.8300012  96.9194997 122.0049988
  98.9620012  97.8454997 123.1949988  98.4895688  97.5033804 122.5495482
 103.3640012  97.8424997 124.9889988 103.5420012  97.1964997 125.6719988
 103.3110012  98.6764997 125.4559988 103.3811999  97.8668009 125.1455917
 105.2430012 112.7914997 123.3849988 106.1090012 113.1574997 123.2069988
 104.9960012 112.3514997 122.5709988 105.3282392 112.7821756 123.2506289
 111.9520012 112.3544997 126.0639988 111.7570012 111.6064997 125.4989988
 111.9130012 113.1124997 125.4809988 111.9200380 112.3546099 125.9078384
  97.5990012  96.3494997 137.8039988  97.2330012  95.5844997 138.2459988
  98.5120012  96.3784997 138.0899988  97.6722736  96.2485640 137.9032502
  99.5720012  95.7004997 139.3399988 100.4700012  95.4264997 139.1549988
  99.1850012  94.9574997 139.8039988  99.6426612  95.5625914 139.3773643
  98.1960012 112.5014997 122.0129988  97.9290012 112.7884997 122.8859988
  98.9680012 111.9554997 122.1649988  98.2637488 112.4670294 122.1531050
 107.9930012  95.0324997 139.5219988 108.0700012  94.6064997 140.3759988
 108.8870012  95.0464997 139.1789988 108.1243428  94.9760879 139.5925310
 111.1690012 111.1054997 138.2139988 110.3870012 110.9194997 137.6939988
 111.0970012 112.0344997 138.4319988 111.0522274 111.2056643 138.1723018
 125.5750012 104.9914997 128.2449988 125.6640012 105.9354997 128.1129988
 124.9370012 104.7164997 127.5869988 125.5009081 105.0834830 128.1379614
 124.5080012 104.2464997 131.6639988 124.4700012 103.6004997 132.3689988
 124.1860012 103.7804997 130.8929988 124.4592333 104.0949408 131.6562978
 116.8770012 103.8614997 133.2569988 116.9180012 103.2354997 133.9799988
 117.5800012 104.4854997 133.4389988 116.9776363 103.8601196 133.3806044
 128.2140012 107.1854997 129.9649988 127.7740012 106.4654997 130.4159988
 128.2010012 107.9064997 130.5949988 128.1520226 107.1843731 130.1118494
 117.8000012 108.3114997 131.7919988 117.4310012 107.5094997 131.4219988
 118.7410012 108.1424997 131.8379988 117.8767289 108.1790153 131.7476316
 114.4100012 101.9714997 127.1849988 113.9630012 102.8174997 127.1659988
 113.8490012 101.3914997 126.6689988 114.2729900 102.0089916 127.1126801
 115.1210012 104.1334997 129.3099988 115.3340012 103.3634997 129.8379988
 115.8590012 104.2224997 128.7069988 115.2499044 104.0401968 129.3007123
 125.3260012 112.2904997 130.1769988 125.9460012 111.6134997 129.9039988
 125.1180012 112.0724997 131.0859988 125.3826726 112.1684800 130.2624812
 122.8980012 106.6794997 132.0699988 123.2020012 105.9934997 131.4749988
 123.6190012 106.7974997 132.6879988 123.0370671 106.6016305 132.0721816
 131.5610012  98.2804997 132.9309988 131.6100012  98.8904997 133.6659988
 131.9860012  98.7414997 132.2079988 131.6251746  98.4263796 132.9339175
 126.0390012 101.0734997 132.3969988 126.1810012 100.1274997 132.4179988
 125.9320012 101.2804997 131.4689988 126.0439919 100.9718246 132.2743408
 119.1930012  99.1744997 129.6699988 119.2370012 100.0344997 129.2509988
 118.7360012  98.6224997 129.0359988 119.1372240  99.2174422 129.5269864
 126.9160012  99.3054997 128.0709988 127.5620012  98.9764997 128.6949988
 127.4260012  99.8234997 127.4479988 127.0734299  99.3304450 128.0722731
 115.8140012 101.5714997 130.4319988 116.4670012 101.0214997 130.8639988
 115.8380012 101.2974997 129.5149988 115.9066683 101.4591466 130.3672123
 120.9700012 103.1214997 129.6469988 121.5860012 102.5954997 130.1569988
 120.3840012 102.4814997 129.2439988 120.9750810 102.9629208 129.6623173
 131.9520012  99.7584997 135.1659988 131.2640012 100.4164997 135.0709988
 131.9680012  99.5614997 136.1029988 131.8599540  99.8219819 135.2795990
 118.0040012  98.0924997 133.7439988 117.7850012  98.6224997 132.9779988
 117.3360012  98.3194997 134.3909988 117.8837600  98.1956906 133.7266379
 125.3730012 107.5924997 127.2879988 125.0770012 107.2704997 126.4369988
 125.0480012 108.4924997 127.3289988 125.2886371 107.6700215 127.1771801
 120.5730012 105.7684997 134.0309988 119.8330012 106.3664997 134.1349988
 121.2870012 106.3224997 133.7159988 120.5682237 105.9252831 134.0026465
 128.6800012  98.5964997 130.0509988 128.4640012  97.8304997 130.5839988
 129.3350012  99.0684997 130.5639988 128.7390632  98.5555889 130.1932861
 117.5970012  99.9844997 131.6959988 118.2110012 100.6174997 132.0689988
 118.1090012  99.5124997 131.0399988 117.7501981 100.0072267 131.6582908
 118.9800012 107.7324997 134.8179988 118.9750012 108.6124997 134.4399988
 118.1270012 107.6494997 135.2429988 118.8639464 107.8416117 134.8237907
 115.1010012 107.4034997 125.5999988 114.8290012 107.6324997 124.7119988
 115.1470012 108.2414997 126.0609988 115.0699482 107.5481318 125.5406273
 128.7260012 109.0254997 132.3129988 127.7850012 109.0834997 132.4749988
 129.0030012 109.9314997 132.1759988 128.6344679 109.1559443 132.3166815
 129.0270012  97.3114997 133.7309988 128.2910012  97.9224997 133.6929988
 129.7100012  97.7264997 133.2039988 129.0186541  97.4511374 133.6545832
 122.0300012  95.3984997 131.1959988 121.9130012  94.4494997 131.1419988
 121.1750012  95.7304997 131.4699988 121.8984212  95.3135571 131.2256497
 126.9780012 110.8064997 128.9379988 127.4040012 110.0994997 128.4529988
 127.2950012 111.6074997 128.5219988 127.0791683 110.8181017 128.8153680
 128.1380012 108.7074997 127.4469988 127.8800012 108.0174997 126.8359988
 128.2090012 108.2644997 128.2929988 128.1122856 108.5532124 127.4776885
 129.8240012 107.2734997 135.9239988 129.9640012 106.6824997 135.1849988
 129.9910012 108.1464997 135.5679988 129.8657411 107.3105428 135.7746894
 124.2970012 104.2354997 125.6969988 123.5850012 104.7704997 125.3449988
 124.9880012 104.2914997 125.0369988 124.2930132 104.3162543 125.5596289
 124.3500012 102.6934997 122.7359988 125.0510012 102.7154997 123.3869988
 124.6530012 102.0654997 122.0789988 124.4868133 102.6117070 122.7363369
 131.6660012 103.6134997 133.9899988 131.0130012 104.3084997 134.0799988
 132.1310012 103.8234997 133.1809988 131.6395274 103.7370643 133.8928462
 127.7020012 104.4454997 126.6489988 126.9700012 104.6734997 127.2219988
 128.1500012 103.7314997 127.1029988 127.6622725 104.3802145 126.7888816
 127.6000012 102.6194997 135.7159988 127.6800012 103.3824997 136.2879988
 126.9980012 102.8984997 135.0259988 127.5295756 102.7617134 135.7010589
 119.3480012 105.0754997 128.5309988 119.0170012 104.7054997 127.7129988
 119.9360012 104.4054997 128.8779988 119.3821873 104.9341156 128.4658102
 120.7140012 108.5034997 131.2119988 120.6200012 107.9254997 130.4559988
 121.4440012 108.1324997 131.7089988 120.7997387 108.3741663 131.1755342
 119.7140012 103.8444997 132.1649988 120.2800012 103.9654997 131.4019988
 120.0330012 104.4814997 132.8029988 119.8345474 103.9472219 132.1469862
 126.0230012 109.3474997 132.8989988 125.7830012 110.0094997 133.5469988
 125.8250012 108.5134997 133.3239988 125.9633808 109.3253134 133.0451524
 120.5940012 108.2434997 136.8819988 120.2830012 109.0254997 137.3369988
 119.9440012 108.0904997 136.1959988 120.4635558 108.3299105 136.8515871
 126.5730012 103.6074997 124.3339988 127.1530012 103.7574997 125.0809988
 126.9870012 104.0784997 123.6099988 126.7082997 103.6916578 124.3384058
 117.5140012 104.4414997 136.1099988 117.5850012 105.0924997 136.8089988
 116.6240012 104.5444997 135.7749988 117.4033005 104.5445427 136.1603495
 124.3000012 110.3444997 127.7689988 124.7740012 110.6394997 128.5459988
 123.7370012 111.0824997 127.5359988 124.2888184 110.4847247 127.8439628
 118.8340012 110.3154997 137.6449988 118.8410012 110.1794997 136.6979988
 117.9180012 110.1974997 137.8969988 118.7111714 110.2809430 137.5494666
 130.2720012  95.3574997 124.1469988 129.3720012  95.4964997 124.4419988
 130.5240012  96.1884997 123.7449988 130.1828702  95.4889074 124.1330205
 118.3380012 104.1454997 126.1199988 118.0460012 104.9134997 125.6299988
 117.6640012 103.4854997 125.9579988 118.2068111 104.1615587 126.0308978
 131.4610012 109.7234997 122.5229988 131.5350012 110.6624997 122.6939988
 132.3670012 109.4184997 122.4669988 131.5935100 109.8106722 122.5388119
 114.4310012 106.5084997 134.9349988 113.9300012 106.4804997 134.1199988
 114.4360012 105.6024997 135.2449988 114.3630944 106.3822396 134.8653226
 114.1810012 109.2884997 131.8189988 115.1270012 109.1444997 131.7999988
 114.0690012 110.0724997 132.3559988 114.2952727 109.3748046 131.8890072
 132.3790012 109.9544997 137.5019988 132.3300012 108.9994997 137.4649988
 131.5520012 110.2224997 137.9029988 132.2604940 109.8598998 137.5511375
 123.3580012 109.5284997 136.3779988 123.4450012 110.3544997 136.8529988
 122.4940012 109.1984997 136.6269988 123.2531964 109.5969878 136.4766549
 123.7720012 113.3004997 126.1839988 123.6970012 113.1794997 125.2369988
 123.8050012 114.2504997 126.3019988 123.7662068 113.4122646 126.0704967
 117.4250012 112.0894997 127.9649988 117.5780012 111.7414997 128.8429988
 116.5750012 111.7334997 127.7099988 117.3309166 111.9936216 128.0508079
 126.8740012 112.4544997 123.1859988 127.2490012 111.7104997 122.7149988
 126.8780012 112.1844997 124.1049988 126.9259125 112.3160986 123.2456483
 126.5430012 112.3804997 125.9349988 125.6070012 112.4804997 126.1139988
 126.8230012 111.6714997 126.5139988 126.4529553 112.2983406 126.0377087
 129.5310012 101.4474997 137.9819988 129.1240012 101.9284997 137.2609988
 129.5720012 100.5424997 137.6739988 129.4808437 101.3909374 137.8416683
 116.6800012 107.8314997 135.9789988 116.8960012 107.4704997 136.8379988
 115.8250012 107.4574997 135.7689988 116.5939292 107.7314111 136.0683386
 119.2990012  96.3014997 131.9739988 118.4370012  96.2144997 131.5659988
 119.2760012  97.1574997 132.4019988 119.1780409  96.4052883 131.9760589
 123.9620012  96.0234997 135.3489988 124.3820012  95.6084997 136.1019988
 123.0290012  95.8454997 135.4659988 123.8933644  95.9425900 135.4679539
 127.2880012  99.7794997 136.2019988 126.7740012  99.6534997 136.9999988
 127.1330012 100.6914997 135.9579988 127.1966852  99.8856132 136.2782158
 128.0510012 104.6404997 121.9639988 128.0930012 104.4174997 121.0339988
 128.9000012 105.0394997 122.1529988 128.1715280 104.6639438 121.8623554
 123.6230012  98.5164997 122.6339988 123.3700012  98.5354997 123.5569988
 123.3670012  97.6444997 122.3319988 123.5537481  98.4012558 122.7196175
 119.3900012 101.2674997 133.0689988 118.7480012 101.2264997 133.7779988
 119.4270012 102.1934997 132.8309988 119.3070664 101.3871430 133.1339219
 119.3870012 101.4884997 127.9809988 118.4940012 101.1474997 127.9219988
 119.8370012 101.1114997 127.2249988 119.3258130 101.3909631 127.8707702
 124.9220012 101.9044997 126.7979988 124.5130012 102.7194997 126.5069988
 125.6430012 101.7644997 126.1839988 124.9634537 101.9972018 126.6751342
 124.0240012 102.0794997 138.2859988 123.4620012 101.3754997 138.6069988
 124.8510012 101.9594997 138.7539988 124.0587095 101.9667883 138.3932330
 125.9270012 101.3504997 129.6119988 125.7320012 101.9554997 128.8969988
 126.1080012 100.5164997 129.1779988 125.9247614 101.3206300 129.4554405
 117.1400012 101.5874997 134.9359988 117.1020012 101.9874997 135.8049988
 116.6490012 100.7704997 135.0269988 117.0684684 101.5318069 135.0671059
 120.5060012  98.9614997 121.7349988 120.0750012  98.5164997 122.4649988
 119.7880012  99.3334997 121.2229988 120.3499438  98.9508940 121.7656799
 113.7480012  98.7034997 128.7869988 114.3790012  98.6744997 129.5059988
 114.1970012  98.2784997 128.0559988 113.8950918  98.6420836 128.7866441
 115.0220012  99.4494997 124.2109988 115.4960012 100.0404997 123.6259988
 114.3050012  99.9804997 124.5579988 114.9899341  99.6020867 124.1778836
 125.1910012 102.9884997 134.2829988 125.5140012 102.3574997 133.6399988
 124.7510012 102.4534997 134.9439988 125.1757484 102.8298387 134.2843198
 121.9680012  98.9154997 129.0669988 121.0570012  98.9724997 129.3559988
 122.4740012  98.8554997 129.8779988 121.9116899  98.9151941 129.2161184
 116.7970012 100.5444997 127.8939988 115.9070012 100.6444997 127.5539988
 117.0930012  99.7024997 127.5479988 116.7152823 100.4443546 127.8007213
 120.4500012 100.5444997 125.5509988 121.3810012 100.6734997 125.7289988
 120.2350012 101.2144997 124.9009988 120.5484247 100.6526565 125.4875747
 126.3730012  98.1504997 132.3319988 125.6970012  98.2814997 132.9959988
 125.8880012  97.9954997 131.5209988 126.2147146  98.1475157 132.3134469
 119.1240012 101.7394997 123.1169988 118.5810012 101.3594997 122.4259988
 119.9570012 101.9334997 122.6889988 119.1623631 101.7137125 122.9644501
 129.6610012 113.8224997 138.6079988 129.8610012 114.2464997 137.7739988
 130.3160012 114.1654997 139.2149988 129.7770072 113.9269857 138.5758592
 117.2590012 106.2964997 138.2159988 117.9910012 106.5504997 138.7779988
 116.4790012 106.5004997 138.7319988 117.2537073 106.3588160 138.3626151
 123.2880012 101.7034997 130.9539988 123.8530012 101.1564997 130.4069988
 123.1410012 101.1814997 131.7429988 123.3453380 101.5582259 130.9858695
 118.2900012  97.8394997 127.3729988 117.9730012  96.9374997 127.3369988
 119.0720012  97.8414997 126.8199988 118.3522408  97.7162474 127.2933569
 121.9150012 100.0914997 133.3679988 121.0790012 100.5454997 133.4789988
 122.4390012 100.3674997 134.1199988 121.8715416 100.1908660 133.4848119
 122.4590012 106.3044997 125.0529988 121.7140012 105.7974997 124.7309988
 122.3250012 106.3534997 125.9999988 122.3388776 106.2416940 125.1368647
 129.6090012 105.4374997 133.8399988 130.2510012 105.8944997 133.2959988
 128.7790012 105.5504997 133.3769988 129.5845963 105.5152704 133.7030177
 126.3570012  99.1184997 123.2519988 125.4180012  99.2304997 123.1009988
 126.6540012  99.9754997 123.5589988 126.2687583  99.2495981 123.2728337
 123.9780012 106.4884997 136.2899988 123.6330012 106.1074997 137.0969988
 123.7780012 107.4224997 136.3609988 123.9037527 106.5625135 136.4100689
 127.0750012 100.9854997 124.9129988 127.9670012 100.8484997 125.2319988
 127.1320012 101.7764997 124.3759988 127.2046504 101.0736052 124.8840818
 117.5840012 105.5994997 130.8229988 118.3290012 105.5974997 130.2219988
 117.6620012 104.7764997 131.3039988 117.6964995 105.4878887 130.8058282
 124.5850012 107.7634997 124.0789988 124.2890012 108.5894997 124.4599988
 123.8820012 107.1434997 124.2749988 124.4494914 107.7928199 124.1576443
 114.5920012 104.0604997 136.1379988 114.8150012 103.6424997 136.9699988
 113.9900012 103.4474997 135.7149988 114.5411759 103.9204668 136.1947022
 121.6080012 103.5774997 138.3509988 121.3120012 103.4114997 137.4559988
 122.5400012 103.3574997 138.3399988 121.6934166 103.5250640 138.2270536
 126.2290012 108.9504997 136.2409988 125.3280012 109.1334997 135.9729988
 126.2630012 109.2094997 137.1609988 126.1103139 109.0105849 136.3288099
 131.9600012 101.1954997 124.6079988 131.4060012 100.7994997 123.9359988
 132.0600012 102.1054997 124.3299988 131.8977059 101.2643586 124.4784401
 131.9230012 106.9954997 137.4449988 131.0720012 107.2334997 137.0779988
 132.5140012 106.9784997 136.6919988 131.8862487 107.0258258 137.2928893
 130.2550012 109.9814997 125.0729988 129.8820012 109.1554997 125.3819988
 130.5330012 109.7984997 124.1749988 130.2415222 109.8437430 124.9939473
 127.4160012 104.7894997 132.0939988 126.4870012 104.5574997 132.0669988
 127.8670012 104.0124997 131.7639988 127.3499216 104.6527238 132.0456917
 119.9590012 109.1174997 128.2269988 120.4860012 109.8904997 128.0269988
 119.0790012 109.3424997 127.9249988 119.9122031 109.2537545 128.1587912
 115.7140012 103.9794997 122.8139988 116.3300012 104.6064997 123.1939988
 114.8520012 104.2954997 123.0859988 115.6817698 104.1079430 122.9027183
 121.3860012 106.7804997 127.8029988 121.1450012 107.7054997 127.8449988
 120.6450012 106.3214997 128.1999988 121.2529225 106.8450933 127.8623742
 121.9010012 110.9294997 134.1189988 122.2630012 111.7844997 133.8849988
 122.4320012 110.6374997 134.8589988 122.0224473 111.0071060 134.1870855
 120.0690012 111.8024997 127.3489988 119.1190012 111.9074997 127.3999988
 120.4210012 112.6224997 127.6929988 119.9864195 111.9278800 127.4025502
 125.4450012 107.0284997 133.8189988 125.0190012 106.8014997 134.6459988
 126.0250012 106.2904997 133.6369988 125.4651868 106.8975299 133.9075830
 127.6480012 107.9574997 122.8929988 128.0010012 107.5774997 123.6969988
 126.6990012 107.8644997 122.9799988 127.5680918 107.8928956 123.0148532
 128.1030012 111.5804997 136.2889988 127.5020012 111.0254997 135.7929988
 128.3850012 112.2474997 135.6619988 128.0588804 111.5946625 136.1364849
 132.1510012 112.4374997 123.0939988 132.8950012 113.0234997 122.9539988
 131.4570012 113.0054997 123.4269988 132.1589899 112.5945798 123.1198778
 116.2260012  98.8134997 135.6959988 115.3330012  99.1524997 135.6279988
 116.1270012  97.9584997 136.1139988 116.0904164  98.7442588 135.7432235
 128.5140012 106.6304997 125.1199988 128.2360012 105.9024997 125.6759988
 129.4410012 106.7494997 125.3249988 128.6013124 106.5468802 125.2238845
 115.8770012 110.6184997 134.1309988 116.0940012 109.6864997 134.0999988
 116.1230012 110.8924997 135.0139988 115.9399549 110.5280636 134.2461763
 121.7390012 109.0694997 121.3399988 121.9780012 108.3214997 120.7929988
 121.4700012 108.6814997 122.1729988 121.7353675 108.9146638 121.3776865
 120.6760012 108.6394997 123.7959988 120.8220012 108.1194997 124.5859988
 120.6730012 109.5464997 124.1029988 120.6955792 108.6908842 123.9456117
 117.1290012 105.8924997 124.3069988 116.4430012 106.2444997 124.8739988
 117.6510012 106.6554997 124.0599988 117.1056852 106.0438578 124.3512118
 124.9600012  98.5544997 134.5859988 125.6590012  98.6284997 135.2359988
 124.5790012  97.6904997 134.7399988 125.0041767  98.4477624 134.6958322
 125.7450012  98.2064997 125.6829988 125.9650012  98.6784997 124.8799988
 126.3030012  98.6014997 126.3529988 125.8504968  98.3244285 125.6637331
 123.4130012 110.3374997 124.5459988 122.5970012 110.8344997 124.5979988
 123.9430012 110.8124997 123.9059988 123.3729161 110.4697722 124.4665956
 122.9450012  99.9344997 126.5179988 123.7570012 100.4394997 126.5639988
 122.7000012  99.7894997 127.4319988 123.0230520  99.9840375 126.6478517
 123.4800012 100.9204997 135.7019988 123.5990012 101.4944997 136.4599988
 124.1360012 100.2324997 135.8169988 123.5849025 100.9059858 135.8211321
 123.8280012  97.0154997 127.4559988 123.4820012  97.6334997 128.0999988
 124.4870012  97.5164997 126.9739988 123.8696968  97.1676278 127.4789383
 120.7520012 111.3814997 124.5269988 120.9120012 112.1804997 124.0269988
 120.5540012 111.6874997 125.4119988 120.7471637 111.5324020 124.5781144
 119.4860012  98.0784997 124.1429988 119.4030012  98.9674997 124.4899988
 120.3760012  97.8134997 124.3749988 119.5949469  98.1641430 124.2217626
 129.6850012  98.8274997 136.5369988 128.7680012  99.0904997 136.4499988
 130.0200012  98.8244997 135.6409988 129.6048613  98.8630761 136.4038837
 128.2870012 102.5784997 130.6329988 127.4890012 102.1634997 130.3049988
 128.7320012 101.8874997 131.1239988 128.2379885 102.4283543 130.6544889
 117.7450012 108.5064997 123.2039988 118.3370012 109.2054997 123.4799988
 118.2040012 108.0734997 122.4839988 117.8881142 108.5437049 123.1444830
 116.0610012 101.1704997 122.3199988 116.0160012 102.1094997 122.4979988
 115.1730012 100.9344997 122.0499988 115.9348574 101.2671892 122.3078912
 129.3730012 111.8344997 132.2559988 129.2180012 112.5124997 131.5979988
 130.3060012 111.9064997 132.4589988 129.4778657 111.9369546 132.1934360
 116.8690012  95.9524997 130.9929988 116.6400012  96.0114997 130.0649988
 116.4260012  95.1604997 131.2989988 116.7778530  95.8535753 130.9074786
 115.7990012 109.8924997 127.1529988 114.9670012 110.3654997 127.1799988
 116.3450012 110.4024997 126.5549988 115.7590352 110.0261332 127.0758463
 115.0870012 112.5054997 138.4829988 115.6280012 112.2884997 139.2429988
 114.6060012 111.6994997 138.2929988 115.0959951 112.3669270 138.5612576
 119.6850012 111.4244997 140.1029988 120.4520012 110.9654997 140.4439988
 119.6630012 111.1984997 139.1739988 119.7871275 111.3310186 140.0240101
 123.7770012 110.9324997 121.4789988 123.1330012 110.3014997 121.7999988
 124.5390012 110.4014997 121.2469988 123.7918077 110.7742920 121.4916011
 126.2620012 109.8044997 138.8329988 125.9110012 108.9484997 139.0759988
 126.9880012 109.9474997 139.4399988 126.3120769 109.7065636 138.9483619
 128.3810012 110.7494997 121.7119988 128.6640012 109.9554997 122.1649988
 129.1210012 110.9824997 121.1519988 128.5198006 110.6723376 121.6982715
 114.9940012 106.3154997 139.4369988 115.1380012 105.4134997 139.1509988
 114.2220012 106.6014997 138.9499988 114.9092753 106.2306816 139.3319505
 119.3360012 106.6594997 121.5699988 119.4000012 105.8654997 122.1009988
 119.9890012 106.5404997 120.8799988 119.4330241 106.5347148 121.5494317
 121.6500012 106.2854997 138.8699988 121.3210012 106.5564997 138.0129988
 121.8020012 105.3444997 138.7829988 121.6254809 106.1953862 138.7408244
 124.6880012 107.7064997 121.3059988 124.4190012 107.8864997 122.2069988
 124.4820012 106.7804997 121.1739988 124.6233427 107.6060261 121.4115073
 127.3840012 106.2014997 136.2529988 128.1300012 106.7894997 136.1339988
 126.6270012 106.7834997 136.3169988 127.3837820 106.3607143 136.2453590
 115.8270012 103.5154997 138.8569988 116.2350012 102.6584997 138.7359988
 115.5670012 103.5304997 139.7779988 115.8477568 103.4000807 138.9649588
 120.4850012 104.6314997 123.8759988 120.0250012 104.1474997 124.5619988
 120.7400012 103.9634997 123.2399988 120.4564902 104.4748731 123.8839334
 119.7740012 102.5244997 136.2319988 119.1560012 103.1994997 136.5119988
 120.1180012 102.8454997 135.3979988 119.7359132 102.6602411 136.1576262
 121.5560012 102.8744997 122.1379988 121.3760012 102.7204997 121.2109988
 122.5060012 102.9824997 122.1829988 121.6597776 102.8680175 122.0171843
 124.7940012 104.9964997 139.5089988 125.7470012 105.0794997 139.4819988
 124.6330012 104.2844997 140.1289988 124.9026426 104.9116746 139.5890579
 130.9460012 105.2294997 121.5839988 130.6720012 104.8044997 120.7709988
 130.9850012 106.1604997 121.3669988 130.9137699 105.2972484 121.4433610
 120.1130012  99.8794997 137.3139988 120.2630012  99.1504997 136.7119988
 120.1160012 100.6564997 136.7549988 120.1339302  99.8847851 137.1560692
 120.5260012  98.2494997 134.8069988 121.0620012  98.7004997 134.1549988
 119.6740012  98.1414997 134.3839988 120.4842178  98.2966390 134.6605756
 122.1080012 103.6884997 135.0459988 122.8580012 103.5324997 134.4729988
 121.7690012 104.5404997 134.7709988 122.1648921 103.7822968 134.9303561
 126.5230012 101.5034997 140.0749988 126.7160012 100.5724997 139.9629988
 127.3810012 101.9284997 140.0639988 126.6652934 101.4336531 140.0582031
 127.8400012 104.2924997 138.1519988 127.5590012 105.0014997 137.5739988
 128.7830012 104.2194997 138.0009988 127.9289291 104.3796711 138.0524967
 118.5920012 101.0774997 139.2259988 117.8250012 100.5454997 139.0149988
 119.2710012 100.7674997 138.6259988 118.5787877 100.9628300 139.1160716
 121.3320012  95.7054997 135.2379988 121.2330012  96.6524997 135.1329988
 120.5890012  95.3334997 134.7619988 121.2181184  95.7845863 135.1593621
 122.5960012 100.0274997 138.8019988 122.3600012  99.8074997 139.7029988
 121.8120012  99.8204997 138.2919988 122.4578504  99.9694586 138.8563431
 125.3110012  99.1544997 137.8769988 124.3640012  99.1864997 138.0099988
 125.6240012  98.5294997 138.5309988 125.2236707  99.0743998 137.9836060
 126.9450012  97.7884997 139.8829988 126.8490012  96.8364997 139.8769988
 126.6240012  98.0574997 140.7429988 126.8884070  97.6944035 139.9985441
 116.7720012  98.9984997 138.9299988 116.9840012  98.2914997 138.3199988
 116.6610012  98.5604997 139.7739988 116.7859721  98.8427084 138.9606843
 121.5530012  94.9994997 137.9089988 122.2650012  94.3594997 137.8949988
 121.4520012  95.2664997 136.9959988 121.6368066  94.9480079 137.7835677
 121.9070012  96.6824997 139.9629988 121.7750012  96.2064997 139.1429988
 121.3080012  97.4264997 139.9079988 121.8079071  96.7179618 139.8432886
 121.4530012 113.5654997 123.1389988 122.3860012 113.7234997 123.2829988
 121.1890012 114.2404997 122.5149988 121.5449888 113.6784510 123.0742842
 115.0220012 108.2014997 122.6219988 115.9360012 108.2804997 122.8959988
 115.0290012 107.5144997 121.9559988 115.1481131 108.1193961 122.5694393
 113.6710012 113.5944997 127.6999988 113.0240012 113.1324997 127.1669988
 114.0250012 112.9224997 128.2819988 113.6303849 113.4404723 127.7057959
 114.5410012 111.6754997 129.5039988 114.2060012 110.7954997 129.6759988
 114.7630012 112.0204997 130.3689988 114.5251783 111.6017500 129.6444208
 132.0890012 112.4844997 132.4849988 132.0680012 112.6694997 133.4239988
 132.7800012 113.0534997 132.1439988 132.1794618 112.5866606 132.5673864
 131.6530012 112.0524997 135.4069988 131.1650012 111.3164997 135.0349988
 132.2020012 111.6584997 136.0849988 131.6604820 111.8985889 135.4477813
 130.1030012 107.8414997 140.0449988 129.2370012 107.7364997 140.4389988
 130.4800012 108.6004997 140.4909988 130.0353308 107.9296900 140.1592393
 131.4040012 106.0984997 125.5589988 132.2540012 106.5194997 125.6859988
 131.4100012 105.3584997 126.1659988 131.5211372 106.0560803 125.6584344
 131.7990012 104.1514997 127.3819988 131.0720012 103.6724997 127.7799988
 132.3800012 104.3574997 128.1149988 131.7780473 104.1138103 127.5354528
 131.5580012 106.9364997 132.3299988 132.3910012 106.5584997 132.0499988
 131.6700012 107.8794997 132.2109988 131.6872647 107.0122218 132.2755487
 130.0440012 109.8144997 134.6369988 129.3970012 110.1394997 135.2629988
 129.5270012 109.3744997 133.9629988 129.8854029 109.7995004 134.6315827
 132.0670012 104.0524997 123.7739988 131.5450012 104.4094997 123.0549988
 132.0340012 104.7274997 124.4519988 131.9911634 104.1925413 123.7673145
 130.4160012 101.2924997 122.3239988 130.5120012 101.9594997 121.6439988
 130.2760012 100.4764997 121.8429988 130.4102272 101.2735655 122.1658347
 129.5850012 102.6724997 127.9449988 129.4350012 101.7274997 127.9249988
 129.2320012 102.9534997 128.7889988 129.5167448 102.5811481 128.0563705
 114.6210012 104.7504997 131.9559988 114.8050012 104.6684997 131.0199988
 115.4700012 104.6264997 132.3789988 114.7610151 104.7225073 131.8851451
 130.4420012 104.6424997 137.5839988 131.0250012 103.9084997 137.7759988
 131.0060012 105.4144997 137.6309988 130.5979769 104.6464227 137.6166159
 131.9380012 102.5454997 138.2689988 131.0750012 102.1664997 138.1029988
 132.5430012 101.8064997 138.1939988 131.9016119 102.3938268 138.2361528
 129.6630012  98.7004997 121.4419988 130.2740012  98.3294997 122.0789988
 128.8270012  98.2794997 121.6379988 129.6335032  98.5927554 121.5557035
 129.2960012 100.2554997 126.4079988 129.5760012  99.3484997 126.5319988
 130.0550012 100.6894997 126.0189988 129.4369277 100.1900942 126.3723682
 129.9080012 100.8364997 131.8439988 130.8410012 101.0484997 131.8089988
 129.6730012 100.9384997 132.7659988 130.0039244 100.8793100 131.9638892
 129.9370012 101.5734997 134.6199988 129.0940012 101.8414997 134.9859988
 130.3790012 102.3954997 134.4089988 129.8814158 101.7213291 134.6415491
 114.2180012 100.0214997 138.0969988 115.1380012  99.8994997 138.3329988
 113.7690012  99.2714997 138.4859988 114.2831580  99.9033727 138.1819006
 132.2200012  95.5534997 139.9729988 132.5700012  94.8994997 139.3679988
 132.3670012  96.3904997 139.5329988 132.2877887  95.5771548 139.8306858
 129.9090012  97.5184997 126.4559988 130.0920012  97.0694997 127.2819988
 129.3100012  96.9334997 125.9929988 129.8530202  97.3779975 126.5063275
 115.4390012  98.3334997 130.9879988 115.8850012  97.5414997 131.2899988
 115.9060012  99.0494997 131.4179988 115.5630831  98.3220685 131.0874006
 113.7430012 101.3324997 132.0569988 114.2350012 101.1114997 131.2659988
 114.1060012 102.1734997 132.3379988 113.8593126 101.4158357 131.9867531
 131.7400012  97.6624997 138.3219988 130.8220012  97.9334997 138.2869988
 131.8630012  97.1274997 137.5379988 131.6309729  97.6272508 138.2111923
 131.7760012  97.5854997 122.9839988 132.1880012  96.8644997 122.5089988
 132.4580012  98.2554997 123.0429988 131.9245885  97.5772368 122.9268915
 114.0570012  97.5904997 126.1109988 113.1320012  97.7994997 125.9819988
 114.5110012  98.0744997 125.4209988 113.9917292  97.6845343 126.0000720
 128.8280012 112.5744997 128.0569988 129.4800012 112.2274997 127.4489988
 129.3380012 113.0634997 128.7029988 128.9862637 112.5930597 128.0610236
 114.0210012  96.3284997 134.4549988 113.3560012  96.0824997 135.0989988
 113.5780012  96.9504997 133.8779988 113.8701318  96.3789410 134.4650898
 116.2130012 109.5034997 138.5999988 115.3920012 109.6784997 138.1389988
 115.9600012 109.4304997 139.5199988 116.0665585 109.5175544 138.6613561
 119.1670012 110.4784997 134.8579988 118.7420012 111.2874997 134.5759988
 120.0710012 110.5634997 134.5559988 119.2309975 110.6009300 134.7784816
 123.4780012 111.8774997 137.8179988 123.6630012 111.5434997 138.6959988
 124.3240012 112.1864997 137.4959988 123.6177539 111.8736047 137.8945605
 125.8230012 113.1634997 137.0619988 126.5000012 112.5304997 136.8219988
 126.1450012 113.5644997 137.8689988 125.9591637 113.1311154 137.1382793
 130.7400012  95.7524997 136.1409988 129.9280012  96.0774997 135.7539988
 130.9730012  94.9924997 135.6079988 130.6602203  95.6942758 136.0158880
 116.5690012 113.7344997 134.9059988 115.8480012 114.1744997 134.4549988
 116.2030012 113.4834997 135.7539988 116.4209651 113.7607242 134.9589640
 119.0360012 113.3344997 133.9359988 118.1710012 113.4064997 134.3399988
 118.9810012 113.8814997 133.1519988 118.9102085 113.4182685 133.8853362
 123.7460012 113.2224997 133.1109988 123.2900012 113.7514997 132.4569988
 123.9090012 113.8254997 133.8359988 123.7056068 113.3764607 133.1194838
 126.0740012 112.1004997 134.0559988 125.1690012 112.2654997 133.7899988
 126.5030012 112.9534997 133.9909988 126.0081324 112.2384339 134.0107976
 128.6780012 113.6704997 134.3509988 128.4960012 114.5864997 134.1409988
 128.8550012 113.2604997 133.5049988 128.6770210 113.7404822 134.2077885
 115.9830012 112.3574997 131.8159988 115.9650012 111.9324997 132.6729988
 116.7880012 112.0394997 131.4069988 116.0893529 112.2563013 131.8780946
 118.1250012 111.0674997 130.4709988 117.9060012 110.1514997 130.6409988
 118.9490012 111.2074997 130.9369988 118.2064420 110.9610520 130.5572774
 120.6620012 111.5374997 131.3199988 120.8750012 110.6494997 131.0329988
 120.7260012 111.5034997 132.2739988 120.6998231 111.4113102 131.4097397
 124.1700012  97.2014997 130.4639988 123.4960012  96.5724997 130.7199988
 124.7340012  96.7174997 129.8609988 124.1539230  97.0498744 130.4175340
 129.3130012  95.3094997 130.5769988 129.9170012  95.8564997 130.0749988
 128.4430012  95.6284997 130.3359988 129.2781208  95.4275137 130.4756886
 131.0400012  96.4474997 128.9099988 131.6520012  95.9334997 128.3829988
 131.4220012  97.3254997 128.9329988 131.1753371  96.4957866 128.8410041
 116.4970012  95.8354997 128.2859988 115.7200012  95.6014997 127.7789988
 117.0270012  95.0384997 128.2949988 116.4622330  95.6956988 128.2177742
 115.3330012  95.6334997 124.0899988 115.7720012  96.2444997 123.4979988
 114.7000012  96.1714997 124.5639988 115.3074514  95.7899257 124.0730930
 121.0760012  95.7624997 128.0999988 121.9510012  96.1504997 128.0699988
 120.9400012  95.5474997 129.0219988 121.1773695  95.7865184 128.2206440
 126.6330012  95.7924997 129.7489988 126.7090012  95.8874997 128.7989988
 126.3580012  94.8844997 129.8779988 126.6062321  95.6827867 129.6365079
 127.9860012  95.8184997 125.4409988 127.2840012  96.4334997 125.2309988
 127.5420012  94.9804997 125.5719988 127.8296450  95.7895639 125.4299000
 115.2340012 111.5814997 124.9869988 114.5490012 111.5434997 124.3199988
 115.2380012 112.4944997 125.2759988 115.1406998 111.6996733 124.9346771
 117.1940012  97.5494997 122.5319988 117.6860012  96.9194997 122.0049988
 117.8180012  97.8454997 123.1949988 117.3455688  97.5033804 122.5495482
 122.2200012  97.8424997 124.9889988 122.3980012  97.1964997 125.6719988
 122.1670012  98.6764997 125.4559988 122.2371999  97.8668009 125.1455917
 124.0990012 112.7914997 123.3849988 124.9650012 113.1574997 123.2069988
 123.8520012 112.3514997 122.5709988 124.1842392 112.7821756 123.2506289
 130.8080012 112.3544997 126.0639988 130.6130012 111.6064997 125.4989988
 130.7690012 113.1124997 125.4809988 130.7760380 112.3546099 125.9078384
 116.4550012  96.3494997 137.8039988 116.0890012  95.5844997 138.2459988
 117.3680012  96.3784997 138.0899988 116.5282736  96.2485640 137.9032502
 118.4280012  95.7004997 139.3399988 119.3260012  95.4264997 139.1549988
 118.0410012  94.9574997 139.8039988 118.4986612  95.5625914 139.3773643
 117.0520012 112.5014997 122.0129988 116.7850012 112.7884997 122.8859988
 117.8240012 111.9554997 122.1649988 117.1197488 112.4670294 122.1531050
 126.8490012  95.0324997 139.5219988 126.9260012  94.6064997 140.3759988
 127.7430012  95.0464997 139.1789988 126.9803428  94.9760879 139.5925310
 130.0250012 111.1054997 138.2139988 129.2430012 110.9194997 137.6939988
 129.9530012 112.0344997 138.4319988 129.9082274 111.2056643 138.1723018
 144.4310012 104.9914997 128.2449988 144.5200012 105.9354997 128.1129988
 143.7930012 104.7164997 127.5869988 144.3569081 105.0834830 128.1379614
 143.3640012 104.2464997 131.6639988 143.3260012 103.6004997 132.3689988
 143.0420012 103.7804997 130.8929988 143.3152333 104.0949408 131.6562978
 135.7330012 103.8614997 133.2569988 135.7740012 103.2354997 133.9799988
 136.4360012 104.4854997 133.4389988 135.8336363 103.8601196 133.3806044
 136.6560012 108.3114997 131.7919988 136.2870012 107.5094997 131.4219988
 137.5970012 108.1424997 131.8379988 136.7327289 108.1790153 131.7476316
 133.2660012 101.9714997 127.1849988 132.8190012 102.8174997 127.1659988
 132.7050012 101.3914997 126.6689988 133.1289900 102.0089916 127.1126801
 133.9770012 104.1334997 129.3099988 134.1900012 103.3634997 129.8379988
 134.7150012 104.2224997 128.7069988 134.1059044 104.0401968 129.3007123
 144.1820012 112.2904997 130.1769988 144.8020012 111.6134997 129.9039988
 143.9740012 112.0724997 131.0859988 144.2386726 112.1684800 130.2624812
 141.7540012 106.6794997 132.0699988 142.0580012 105.9934997 131.4749988
 142.4750012 106.7974997 132.6879988 141.8930671 106.6016304 132.0721816
 144.8950012 101.0734997 132.3969988 145.0370012 100.1274997 132.4179988
 144.7880012 101.2804997 131.4689988 144.8999919 100.9718246 132.2743408
 138.0490012  99.1744997 129.6699988 138.0930012 100.0344997 129.2509988
 137.5920012  98.6224997 129.0359988 137.9932240  99.2174422 129.5269864
 134.6700012 101.5714997 130.4319988 135.3230012 101.0214997 130.8639988
 134.6940012 101.2974997 129.5149988 134.7626683 101.4591466 130.3672123
 139.8260012 103.1214997 129.6469988 140.4420012 102.5954997 130.1569988
 139.2400012 102.4814997 129.2439988 139.8310810 102.9629208 129.6623173
 136.8600012  98.0924997 133.7439988 136.6410012  98.6224997 132.9779988
 136.1920012  98.3194997 134.3909988 136.7397600  98.1956906 133.7266379
 144.2290012 107.5924997 127.2879988 143.9330012 107.2704997 126.4369988
 143.9040012 108.4924997 127.3289988 144.1446371 107.6700215 127.1771801
 139.4290012 105.7684997 134.0309988 138.6890012 106.3664997 134.1349988
 140.1430012 106.3224997 133.7159988 139.4242237 105.9252831 134.0026465
 136.4530012  99.9844997 131.6959988 137.0670012 100.6174997 132.0689988
 136.9650012  99.5124997 131.0399988 136.6061981 100.0072267 131.6582908
 137.8360012 107.7324997 134.8179988 137.8310012 108.6124997 134.4399988
 136.9830012 107.6494997 135.2429988 137.7199464 107.8416117 134.8237907
 133.9570012 107.4034997 125.5999988 133.6850012 107.6324997 124.7119988
 134.0030012 108.2414997 126.0609988 133.9259482 107.5481318 125.5406273
 140.8860012  95.3984997 131.1959988 140.7690012  94.4494997 131.1419988
 140.0310012  95.7304997 131.4699988 140.7544212  95.3135571 131.2256497
 143.1530012 104.2354997 125.6969988 142.4410012 104.7704997 125.3449988
 143.8440012 104.2914997 125.0369988 143.1490132 104.3162543 125.5596289
 143.2060012 102.6934997 122.7359988 143.9070012 102.7154997 123.3869988
 143.5090012 102.0654997 122.0789988 143.3428133 102.6117070 122.7363369
 138.2040012 105.0754997 128.5309988 137.8730012 104.7054997 127.7129988
 138.7920012 104.4054997 128.8779988 138.2381873 104.9341156 128.4658102
 139.5700012 108.5034997 131.2119988 139.4760012 107.9254997 130.4559988
 140.3000012 108.1324997 131.7089988 139.6557387 108.3741663 131.1755342
 138.5700012 103.8444997 132.1649988 139.1360012 103.9654997 131.4019988
 138.8890012 104.4814997 132.8029988 138.6905474 103.9472219 132.1469862
 144.8790012 109.3474997 132.8989988 144.6390012 110.0094997 133.5469988
 144.6810012 108.5134997 133.3239988 144.8193808 109.3253134 133.0451524
 139.4500012 108.2434997 136.8819988 139.1390012 109.0254997 137.3369988
 138.8000012 108.0904997 136.1959988 139.3195558 108.3299105 136.8515871
 136.3700012 104.4414997 136.1099988 136.4410012 105.0924997 136.8089988
 135.4800012 104.5444997 135.7749988 136.2593005 104.5445427 136.1603495
 143.1560012 110.3444997 127.7689988 143.6300012 110.6394997 128.5459988
 142.5930012 111.0824997 127.5359988 143.1448184 110.4847247 127.8439628
 137.6900012 110.3154997 137.6449988 137.6970012 110.1794997 136.6979988
 136.7740012 110.1974997 137.8969988 137.5671714 110.2809430 137.5494666
 137.1940012 104.1454997 126.1199988 136.9020012 104.9134997 125.6299988
 136.5200012 103.4854997 125.9579988 137.0628111 104.1615587 126.0308978
 133.2870012 106.5084997 134.9349988 132.7860012 106.4804997 134.1199988
 133.2920012 105.6024997 135.2449988 133.2190944 106.3822396 134.8653226
 133.0370012 109.2884997 131.8189988 133.9830012 109.1444997 131.7999988
 132.9250012 110.0724997 132.3559988 133.1512727 109.3748046 131.8890072
 142.2140012 109.5284997 136.3779988 142.3010012 110.3544997 136.8529988
 141.3500012 109.1984997 136.6269988 142.1091964 109.5969878 136.4766549
 142.6280012 113.3004997 126.1839988 142.5530012 113.1794997 125.2369988
 142.6610012 114.2504997 126.3019988 142.6222068 113.4122646 126.0704967
 136.2810012 112.0894997 127.9649988 136.4340012 111.7414997 128.8429988
 135.4310012 111.7334997 127.7099988 136.1869166 111.9936216 128.0508079
 135.5360012 107.8314997 135.9789988 135.7520012 107.4704997 136.8379988
 134.6810012 107.4574997 135.7689988 135.4499292 107.7314111 136.0683386
 138.1550012  96.3014997 131.9739988 137.2930012  96.2144997 131.5659988
 138.1320012  97.1574997 132.4019988 138.0340409  96.4052883 131.9760589
 142.8180012  96.0234997 135.3489988 143.2380012  95.6084997 136.1019988
 141.8850012  95.8454997 135.4659988 142.7493644  95.9425900 135.4679539
 142.4790012  98.5164997 122.6339988 142.2260012  98.5354997 123.5569988
 142.2230012  97.6444997 122.3319988 142.4097481  98.4012558 122.7196175
 138.2460012 101.2674997 133.0689988 137.6040012 101.2264997 133.7779988
 138.2830012 102.1934997 132.8309988 138.1630664 101.3871430 133.1339219
 138.2430012 101.4884997 127.9809988 137.3500012 101.1474997 127.9219988
 138.6930012 101.1114997 127.2249988 138.1818130 101.3909631 127.8707702
 143.7780012 101.9044997 126.7979988 143.3690012 102.7194997 126.5069988
 144.4990012 101.7644997 126.1839988 143.8194537 101.9972018 126.6751342
 142.8800012 102.0794997 138.2859988 142.3180012 101.3754997 138.6069988
 143.7070012 101.9594997 138.7539988 142.9147095 101.9667883 138.3932330
 144.7830012 101.3504997 129.6119988 144.5880012 101.9554997 128.8969988
 144.9640012 100.5164997 129.1779988 144.7807614 101.3206300 129.4554405
 135.9960012 101.5874997 134.9359988 135.9580012 101.9874997 135.8049988
 135.5050012 100.7704997 135.0269988 135.9244684 101.5318069 135.0671059
 139.3620012  98.9614997 121.7349988 138.9310012  98.5164997 122.4649988
 138.6440012  99.3334997 121.2229988 139.2059438  98.9508940 121.7656799
 132.6040012  98.7034997 128.7869988 133.2350012  98.6744997 129.5059988
 133.0530012  98.2784997 128.0559988 132.7510918  98.6420836 128.7866441
 133.8780012  99.4494997 124.2109988 134.3520012 100.0404997 123.6259988
 133.1610012  99.9804997 124.5579988 133.8459341  99.6020867 124.1778836
 144.0470012 102.9884997 134.2829988 144.3700012 102.3574997 133.6399988
 143.6070012 102.4534997 134.9439988 144.0317484 102.8298387 134.2843198
 140.8240012  98.9154997 129.0669988 139.9130012  98.9724997 129.3559988
 141.3300012  98.8554997 129.8779988 140.7676899  98.9151941 129.2161184
 135.6530012 100.5444997 127.8939988 134.7630012 100.6444997 127.5539988
 135.9490012  99.7024997 127.5479988 135.5712823 100.4443546 127.8007213
 139.3060012 100.5444997 125.5509988 140.2370012 100.6734997 125.7289988
 139.0910012 101.2144997 124.9009988 139.4044247 100.6526565 125.4875747
 137.9800012 101.7394997 123.1169988 137.4370012 101.3594997 122.4259988
 138.8130012 101.9334997 122.6889988 138.0183631 101.7137125 122.9644501
 136.1150012 106.2964997 138.2159988 136.8470012 106.5504997 138.7779988
 135.3350012 106.5004997 138.7319988 136.1097073 106.3588160 138.3626151
 142.1440012 101.7034997 130.9539988 142.7090012 101.1564997 130.4069988
 141.9970012 101.1814997 131.7429988 142.2013380 101.5582259 130.9858695
 137.1460012  97.8394997 127.3729988 136.8290012  96.9374997 127.3369988
 137.9280012  97.8414997 126.8199988 137.2082408  97.7162474 127.2933569
 140.7710012 100.0914997 133.3679988 139.9350012 100.5454997 133.4789988
 141.2950012 100.3674997 134.1199988 140.7275416 100.1908660 133.4848119
 141.3150012 106.3044997 125.0529988 140.5700012 105.7974997 124.7309988
 141.1810012 106.3534997 125.9999988 141.1948776 106.2416940 125.1368647
 142.8340012 106.4884997 136.2899988 142.4890012 106.1074997 137.0969988
 142.6340012 107.4224997 136.3609988 142.7597527 106.5625135 136.4100689
 136.4400012 105.5994997 130.8229988 137.1850012 105.5974997 130.2219988
 136.5180012 104.7764997 131.3039988 136.5524995 105.4878887 130.8058282
 143.4410012 107.7634997 124.0789988 143.1450012 108.5894997 124.4599988
 142.7380012 107.1434997 124.2749988 143.3054914 107.7928199 124.1576443
 133.4480012 104.0604997 136.1379988 133.6710012 103.6424997 136.9699988
 132.8460012 103.4474997 135.7149988 133.3971759 103.9204668 136.1947022
 140.4640012 103.5774997 138.3509988 140.1680012 103.4114997 137.4559988
 141.3960012 103.3574997 138.3399988 140.5494166 103.5250640 138.2270536
 138.8150012 109.1174997 128.2269988 139.3420012 109.8904997 128.0269988
 137.9350012 109.3424997 127.9249988 138.7682031 109.2537545 128.1587912
 134.5700012 103.9794997 122.8139988 135.1860012 104.6064997 123.1939988
 133.7080012 104.2954997 123.0859988 134.5377698 104.1079430 122.9027183
 140.2420012 106.7804997 127.8029988 140.0010012 107.7054997 127.8449988
 139.5010012 106.3214997 128.1999988 140.1089225 106.8450933 127.8623742
 140.7570012 110.9294997 134.1189988 141.1190012 111.7844997 133.8849988
 141.2880012 110.6374997 134.8589988 140.8784473 111.0071060 134.1870855
 138.9250012 111.8024997 127.3489988 137.9750012 111.9074997 127.3999988
 139.2770012 112.6224997 127.6929988 138.8424195 111.9278800 127.4025502
 144.3010012 107.0284997 133.8189988 143.8750012 106.8014997 134.6459988
 144.8810012 106.2904997 133.6369988 144.3211868 106.8975299 133.9075830
 135.0820012  98.8134997 135.6959988 134.1890012  99.1524997 135.6279988
 134.9830012  97.9584997 136.1139988 134.9464164  98.7442588 135.7432235
 134.7330012 110.6184997 134.1309988 134.9500012 109.6864997 134.0999988
 134.9790012 110.8924997 135.0139988 134.7959549 110.5280636 134.2461763
 140.5950012 109.0694997 121.3399988 140.8340012 108.3214997 120.7929988
 140.3260012 108.6814997 122.1729988 140.5913675 108.9146638 121.3776865
 139.5320012 108.6394997 123.7959988 139.6780012 108.1194997 124.5859988
 139.5290012 109.5464997 124.1029988 139.5515792 108.6908842 123.9456117
 135.9850012 105.8924997 124.3069988 135.2990012 106.2444997 124.8739988
 136.5070012 106.6554997 124.0599988 135.9616852 106.0438578 124.3512118
 143.8160012  98.5544997 134.5859988 144.5150012  98.6284997 135.2359988
 143.4350012  97.6904997 134.7399988 143.8601767  98.4477624 134.6958322
 144.6010012  98.2064997 125.6829988 144.8210012  98.6784997 124.8799988
 145.1590012  98.6014997 126.3529988 144.7064968  98.3244285 125.6637331
 142.2690012 110.3374997 124.5459988 141.4530012 110.8344997 124.5979988
 142.7990012 110.8124997 123.9059988 142.2289161 110.4697722 124.4665956
 141.8010012  99.9344997 126.5179988 142.6130012 100.4394997 126.5639988
 141.5560012  99.7894997 127.4319988 141.8790520  99.9840375 126.6478517
 142.3360012 100.9204997 135.7019988 142.4550012 101.4944997 136.4599988
 142.9920012 100.2324997 135.8169988 142.4409025 100.9059858 135.8211321
 142.6840012  97.0154997 127.4559988 142.3380012  97.6334997 128.0999988
 143.3430012  97.5164997 126.9739988 142.7256968  97.1676278 127.4789383
 139.6080012 111.3814997 124.5269988 139.7680012 112.1804997 124.0269988
 139.4100012 111.6874997 125.4119988 139.6031637 111.5324020 124.5781144
 138.3420012  98.0784997 124.1429988 138.2590012  98.9674997 124.4899988
 139.2320012  97.8134997 124.3749988 138.4509469  98.1641430 124.2217626
 136.6010012 108.5064997 123.2039988 137.1930012 109.2054997 123.4799988
 137.0600012 108.0734997 122.4839988 136.7441142 108.5437049 123.1444830
 134.9170012 101.1704997 122.3199988 134.8720012 102.1094997 122.4979988
 134.0290012 100.9344997 122.0499988 134.7908574 101.2671892 122.3078912
 135.7250012  95.9524997 130.9929988 135.4960012  96.0114997 130.0649988
 135.2820012  95.1604997 131.2989988 135.6338530  95.8535753 130.9074786
 134.6550012 109.8924997 127.1529988 133.8230012 110.3654997 127.1799988
 135.2010012 110.4024997 126.5549988 134.6150352 110.0261332 127.0758463
 133.9430012 112.5054997 138.4829988 134.4840012 112.2884997 139.2429988
 133.4620012 111.6994997 138.2929988 133.9519951 112.3669270 138.5612576
 138.5410012 111.4244997 140.1029988 139.3080012 110.9654997 140.4439988
 138.5190012 111.1984997 139.1739988 138.6431275 111.3310186 140.0240101
 142.6330012 110.9324997 121.4789988 141.9890012 110.3014997 121.7999988
 143.3950012 110.4014997 121.2469988 142.6478077 110.7742920 121.4916011
 133.8500012 106.3154997 139.4369988 133.9940012 105.4134997 139.1509988
 133.0780012 106.6014997 138.9499988 133.7652753 106.2306816 139.3319505
 138.1920012 106.6594997 121.5699988 138.2560012 105.8654997 122.1009988
 138.8450012 106.5404997 120.8799988 138.2890241 106.5347148 121.5494317
 140.5060012 106.2854997 138.8699988 140.1770012 106.5564997 138.0129988
 140.6580012 105.3444997 138.7829988 140.4814809 106.1953862 138.7408244
 143.5440012 107.7064997 121.3059988 143.2750012 107.8864997 122.2069988
 143.3380012 106.7804997 121.1739988 143.4793427 107.6060261 121.4115073
 134.6830012 103.5154997 138.8569988 135.0910012 102.6584997 138.7359988
 134.4230012 103.5304997 139.7779988 134.7037568 103.4000807 138.9649588
 139.3410012 104.6314997 123.8759988 138.8810012 104.1474997 124.5619988
 139.5960012 103.9634997 123.2399988 139.3124902 104.4748731 123.8839334
 138.6300012 102.5244997 136.2319988 138.0120012 103.1994997 136.5119988
 138.9740012 102.8454997 135.3979988 138.5919132 102.6602411 136.1576262
 140.4120012 102.8744997 122.1379988 140.2320012 102.7204997 121.2109988
 141.3620012 102.9824997 122.1829988 140.5157776 102.8680175 122.0171843
 143.6500012 104.9964997 139.5089988 144.6030012 105.0794997 139.4819988
 143.4890012 104.2844997 140.1289988 143.7586426 104.9116746 139.5890579
 138.9690012  99.8794997 137.3139988 139.1190012  99.1504997 136.7119988
 138.9720012 100.6564997 136.7549988 138.9899302  99.8847851 137.1560692
 139.3820012  98.2494997 134.8069988 139.9180012  98.7004997 134.1549988
 138.5300012  98.1414997 134.3839988 139.3402178  98.2966390 134.6605756
 140.9640012 103.6884997 135.0459988 141.7140012 103.5324997 134.4729988
 140.6250012 104.5404997 134.7709988 141.0208921 103.7822968 134.9303561
 137.4480012 101.0774997 139.2259988 136.6810012 100.5454997 139.0149988
 138.1270012 100.7674997 138.6259988 137.4347877 100.9628300 139.1160716
 140.1880012  95.7054997 135.2379988 140.0890012  96.6524997 135.1329988
 139.4450012  95.3334997 134.7619988 140.0741184  95.7845863 135.1593621
 141.4520012 100.0274997 138.8019988 141.2160012  99.8074997 139.7029988
 140.6680012  99.8204997 138.2919988 141.3138504  99.9694586 138.8563431
 144.1670012  99.1544997 137.8769988 143.2200012  99.1864997 138.0099988
 144.4800012  98.5294997 138.5309988 144.0796707  99.0743998 137.9836060
 135.6280012  98.9984997 138.9299988 135.8400012  98.2914997 138.3199988
 135.5170012  98.5604997 139.7739988 135.6419721  98.8427084 138.9606843
 140.4090012  94.9994997 137.9089988 141.1210012  94.3594997 137.8949988
 140.3080012  95.2664997 136.9959988 140.4928066  94.9480079 137.7835677
 140.7630012  96.6824997 139.9629988 140.6310012  96.2064997 139.1429988
 140.1640012  97.4264997 139.9079988 140.6639071  96.7179618 139.8432886
 140.3090012 113.5654997 123.1389988 141.2420012 113.7234997 123.2829988
 140.0450012 114.2404997 122.5149988 140.4009888 113.6784510 123.0742842
 133.8780012 108.2014997 122.6219988 134.7920012 108.2804997 122.8959988
 133.8850012 107.5144997 121.9559988 134.0041131 108.1193961 122.5694393
 132.5270012 113.5944997 127.6999988 131.8800012 113.1324997 127.1669988
 132.8810012 112.9224997 128.2819988 132.4863849 113.4404723 127.7057959
 133.3970012 111.6754997 129.5039988 133.0620012 110.7954997 129.6759988
 133.6190012 112.0204997 130.3689988 133.3811783 111.6017500 129.6444208
 133.4770012 104.7504997 131.9559988 133.6610012 104.6684997 131.0199988
 134.3260012 104.6264997 132.3789988 133.6170151 104.7225073 131.8851451
 133.0740012 100.0214997 138.0969988 133.9940012  99.8994997 138.3329988
 132.6250012  99.2714997 138.4859988 133.1391580  99.9033727 138.1819006
 134.2950012  98.3334997 130.9879988 134.7410012  97.5414997 131.2899988
 134.7620012  99.0494997 131.4179988 134.4190831  98.3220685 131.0874006
 132.5990012 101.3324997 132.0569988 133.0910012 101.1114997 131.2659988
 132.9620012 102.1734997 132.3379988 132.7153126 101.4158357 131.9867531
 132.9130012  97.5904997 126.1109988 131.9880012  97.7994997 125.9819988
 133.3670012  98.0744997 125.4209988 132.8477292  97.6845343 126.0000720
 132.8770012  96.3284997 134.4549988 132.2120012  96.0824997 135.0989988
 132.4340012  96.9504997 133.8779988 132.7261318  96.3789410 134.4650898
 135.0690012 109.5034997 138.5999988 134.2480012 109.6784997 138.1389988
 134.8160012 109.4304997 139.5199988 134.9225585 109.5175544 138.6613561
 138.0230012 110.4784997 134.8579988 137.5980012 111.2874997 134.5759988
 138.9270012 110.5634997 134.5559988 138.0869975 110.6009300 134.7784816
 142.3340012 111.8774997 137.8179988 142.5190012 111.5434997 138.6959988
 143.1800012 112.1864997 137.4959988 142.4737539 111.8736047 137.8945605
 144.6790012 113.1634997 137.0619988 145.3560012 112.5304997 136.8219988
 145.0010012 113.5644997 137.8689988 144.8151637 113.1311154 137.1382793
 135.4250012 113.7344997 134.9059988 134.7040012 114.1744997 134.4549988
 135.0590012 113.4834997 135.7539988 135.2769651 113.7607242 134.9589640
 137.8920012 113.3344997 133.9359988 137.0270012 113.4064997 134.3399988
 137.8370012 113.8814997 133.1519988 137.7662085 113.4182685 133.8853362
 142.6020012 113.2224997 133.1109988 142.1460012 113.7514997 132.4569988
 142.7650012 113.8254997 133.8359988 142.5616068 113.3764607 133.1194838
 134.8390012 112.3574997 131.8159988 134.8210012 111.9324997 132.6729988
 135.6440012 112.0394997 131.4069988 134.9453529 112.2563013 131.8780946
 136.9810012 111.0674997 130.4709988 136.7620012 110.1514997 130.6409988
 137.8050012 111.2074997 130.9369988 137.0624420 110.9610520 130.5572774
 139.5180012 111.5374997 131.3199988 139.7310012 110.6494997 131.0329988
 139.5820012 111.5034997 132.2739988 139.5558232 111.4113102 131.4097397
 143.0260012  97.2014997 130.4639988 142.3520012  96.5724997 130.7199988
 143.5900012  96.7174997 129.8609988 143.0099230  97.0498744 130.4175340
 135.3530012  95.8354997 128.2859988 134.5760012  95.6014997 127.7789988
 135.8830012  95.0384997 128.2949988 135.3182330  95.6956988 128.2177742
 134.1890012  95.6334997 124.0899988 134.6280012  96.2444997 123.4979988
 133.5560012  96.1714997 124.5639988 134.1634514  95.7899257 124.0730930
 139.9320012  95.7624997 128.0999988 140.8070012  96.1504997 128.0699988
 139.7960012  95.5474997 129.0219988 140.0333695  95.7865184 128.2206440
 134.0900012 111.5814997 124.9869988 133.4050012 111.5434997 124.3199988
 134.0940012 112.4944997 125.2759988 133.9966998 111.6996733 124.9346771
 136.0500012  97.5494997 122.5319988 136.5420012  96.9194997 122.0049988
 136.6740012  97.8454997 123.1949988 136.2015688  97.5033804 122.5495482
 141.0760012  97.8424997 124.9889988 141.2540012  97.1964997 125.6719988
 141.0230012  98.6764997 125.4559988 141.0931999  97.8668009 125.1455917
 142.9550012 112.7914997 123.3849988 143.8210012 113.1574997 123.2069988
 142.7080012 112.3514997 122.5709988 143.0402392 112.7821756 123.2506289
 135.3110012  96.3494997 137.8039988 134.9450012  95.5844997 138.2459988
 136.2240012  96.3784997 138.0899988 135.3842736  96.2485640 137.9032502
 137.2840012  95.7004997 139.3399988 138.1820012  95.4264997 139.1549988
 136.8970012  94.9574997 139.8039988 137.3546612  95.5625914 139.3773643
 135.9080012 112.5014997 122.0129988 135.6410012 112.7884997 122.8859988
 136.6800012 111.9554997 122.1649988 135.9757488 112.4670294 122.1531050
  12.4390012 123.8474997 128.2449988  12.5280012 124.7914997 128.1129988
  11.8010012 123.5724997 127.5869988  12.3649081 123.9394830 128.1379614
  11.3720012 123.1024997 131.6639988  11.3340012 122.4564997 132.3689988
  11.0500012 122.6364997 130.8929988  11.3232333 122.9509408 131.6562978
   3.7410012 122.7174997 133.2569988   3.7820012 122.0914997 133.9799988
   4.4440012 123.3414997 133.4389988   3.8416363 122.7161196 133.3806044
  15.0780012 126.0414997 129.9649988  14.6380012 125.3214997 130.4159988
  15.0650012 126.7624997 130.5949988  15.0160226 126.0403731 130.1118494
   4.6640012 127.1674997 131.7919988   4.2950012 126.3654997 131.4219988
   5.6050012 126.9984997 131.8379988   4.7407289 127.0350153 131.7476316
   1.2740012 120.8274997 127.1849988   0.8270012 121.6734997 127.1659988
   0.7130012 120.2474997 126.6689988   1.1369900 120.8649916 127.1126801
   1.9850012 122.9894997 129.3099988   2.1980012 122.2194997 129.8379988
   2.7230012 123.0784997 128.7069988   2.1139044 122.8961968 129.3007123
  12.1900012 131.1464997 130.1769988  12.8100012 130.4694997 129.9039988
  11.9820012 130.9284997 131.0859988  12.2466726 131.0244800 130.2624812
   9.7620012 125.5354997 132.0699988  10.0660012 124.8494997 131.4749988
  10.4830012 125.6534997 132.6879988   9.9010671 125.4576304 132.0721816
  18.4250012 117.1364997 132.9309988  18.4740012 117.7464997 133.6659988
  18.8500012 117.5974997 132.2079988  18.4891746 117.2823796 132.9339175
  12.9030012 119.9294997 132.3969988  13.0450012 118.9834997 132.4179988
  12.7960012 120.1364997 131.4689988  12.9079919 119.8278246 132.2743408
   6.0570012 118.0304997 129.6699988   6.1010012 118.8904997 129.2509988
   5.6000012 117.4784997 129.0359988   6.0012240 118.0734422 129.5269864
  13.7800012 118.1614997 128.0709988  14.4260012 117.8324997 128.6949988
  14.2900012 118.6794997 127.4479988  13.9374299 118.1864450 128.0722731
   2.6780012 120.4274997 130.4319988   3.3310012 119.8774997 130.8639988
   2.7020012 120.1534997 129.5149988   2.7706683 120.3151466 130.3672123
   7.8340012 121.9774997 129.6469988   8.4500012 121.4514997 130.1569988
   7.2480012 121.3374997 129.2439988   7.8390810 121.8189208 129.6623173
  18.8160012 118.6144997 135.1659988  18.1280012 119.2724997 135.0709988
  18.8320012 118.4174997 136.1029988  18.7239540 118.6779819 135.2795990
   4.8680012 116.9484997 133.7439988   4.6490012 117.4784997 132.9779988
   4.2000012 117.1754997 134.3909988   4.7477600 117.0516906 133.7266379
  12.2370012 126.4484997 127.2879988  11.9410012 126.1264997 126.4369988
  11.9120012 127.3484997 127.3289988  12.1526371 126.5260215 127.1771801
   7.4370012 124.6244997 134.0309988   6.6970012 125.2224997 134.1349988
   8.1510012 125.1784997 133.7159988   7.4322237 124.7812831 134.0026465
  15.5440012 117.4524997 130.0509988  15.3280012 116.6864997 130.5839988
  16.1990012 117.9244997 130.5639988  15.6030632 117.4115889 130.1932861
   4.4610012 118.8404997 131.6959988   5.0750012 119.4734997 132.0689988
   4.9730012 118.3684997 131.0399988   4.6141981 118.8632267 131.6582908
   5.8440012 126.5884997 134.8179988   5.8390012 127.4684997 134.4399988
   4.9910012 126.5054997 135.2429988   5.7279464 126.6976117 134.8237907
   1.9650012 126.2594997 125.5999988   1.6930012 126.4884997 124.7119988
   2.0110012 127.0974997 126.0609988   1.9339482 126.4041318 125.5406273
  15.5900012 127.8814997 132.3129988  14.6490012 127.9394997 132.4749988
  15.8670012 128.7874997 132.1759988  15.4984679 128.0119443 132.3166815
  15.8910012 116.1674997 133.7309988  15.1550012 116.7784997 133.6929988
  16.5740012 116.5824997 133.2039988  15.8826541 116.3071374 133.6545832
   8.8940012 114.2544997 131.1959988   8.7770012 113.3054997 131.1419988
   8.0390012 114.5864997 131.4699988   8.7624212 114.1695571 131.2256497
  13.8420012 129.6624997 128.9379988  14.2680012 128.9554997 128.4529988
  14.1590012 130.4634997 128.5219988  13.9431683 129.6741017 128.8153680
  15.0020012 127.5634997 127.4469988  14.7440012 126.8734997 126.8359988
  15.0730012 127.1204997 128.2929988  14.9762856 127.4092124 127.4776885
  16.6880012 126.1294997 135.9239988  16.8280012 125.5384997 135.1849988
  16.8550012 127.0024997 135.5679988  16.7297411 126.1665428 135.7746894
  11.1610012 123.0914997 125.6969988  10.4490012 123.6264997 125.3449988
  11.8520012 123.1474997 125.0369988  11.1570132 123.1722543 125.5596289
  11.2140012 121.5494997 122.7359988  11.9150012 121.5714997 123.3869988
  11.5170012 120.9214997 122.0789988  11.3508133 121.4677070 122.7363369
  18.5300012 122.4694997 133.9899988  17.8770012 123.1644997 134.0799988
  18.9950012 122.6794997 133.1809988  18.5035274 122.5930643 133.8928462
  14.5660012 123.3014997 126.6489988  13.8340012 123.5294997 127.2219988
  15.0140012 122.5874997 127.1029988  14.5262725 123.2362145 126.7888816
  14.4640012 121.4754997 135.7159988  14.5440012 122.2384997 136.2879988
  13.8620012 121.7544997 135.0259988  14.3935756 121.6177134 135.7010589
   6.2120012 123.9314997 128.5309988   5.8810012 123.5614997 127.7129988
   6.8000012 123.2614997 128.8779988   6.2461873 123.7901156 128.4658102
   7.5780012 127.3594997 131.2119988   7.4840012 126.7814997 130.4559988
   8.3080012 126.9884997 131.7089988   7.6637387 127.2301663 131.1755342
   6.5780012 122.7004997 132.1649988   7.1440012 122.8214997 131.4019988
   6.8970012 123.3374997 132.8029988   6.6985474 122.8032219 132.1469862
  12.8870012 128.2034997 132.8989988  12.6470012 128.8654997 133.5469988
  12.6890012 127.3694997 133.3239988  12.8273808 128.1813134 133.0451524
   7.4580012 127.0994997 136.8819988   7.1470012 127.8814997 137.3369988
   6.8080012 126.9464997 136.1959988   7.3275558 127.1859105 136.8515871
  13.4370012 122.4634997 124.3339988  14.0170012 122.6134997 125.0809988
  13.8510012 122.9344997 123.6099988  13.5722997 122.5476578 124.3384058
   4.3780012 123.2974997 136.1099988   4.4490012 123.9484997 136.8089988
   3.4880012 123.4004997 135.7749988   4.2673005 123.4005427 136.1603495
  11.1640012 129.2004997 127.7689988  11.6380012 129.4954997 128.5459988
  10.6010012 129.9384997 127.5359988  11.1528184 129.3407247 127.8439628
   5.6980012 129.1714997 137.6449988   5.7050012 129.0354997 136.6979988
   4.7820012 129.0534997 137.8969988   5.5751714 129.1369430 137.5494666
  17.1360012 114.2134997 124.1469988  16.2360012 114.3524997 124.4419988
  17.3880012 115.0444997 123.7449988  17.0468702 114.3449074 124.1330205
   5.2020012 123.0014997 126.1199988   4.9100012 123.7694997 125.6299988
   4.5280012 122.3414997 125.9579988   5.0708111 123.0175587 126.0308978
  18.3250012 128.5794997 122.5229988  18.3990012 129.5184997 122.6939988
  19.2310012 128.2744997 122.4669988  18.4575100 128.6666722 122.5388119
   1.2950012 125.3644997 134.9349988   0.7940012 125.3364997 134.1199988
   1.3000012 124.4584997 135.2449988   1.2270944 125.2382396 134.8653226
   1.0450012 128.1444997 131.8189988   1.9910012 128.0004997 131.7999988
   0.9330012 128.9284997 132.3559988   1.1592727 128.2308046 131.8890072
  19.2430012 128.8104997 137.5019988  19.1940012 127.8554997 137.4649988
  18.4160012 129.0784997 137.9029988  19.1244940 128.7158998 137.5511375
  10.2220012 128.3844997 136.3779988  10.3090012 129.2104997 136.8529988
   9.3580012 128.0544997 136.6269988  10.1171964 128.4529878 136.4766549
  10.6360012 132.1564997 126.1839988  10.5610012 132.0354997 125.2369988
  10.6690012 133.1064997 126.3019988  10.6302068 132.2682646 126.0704967
   4.2890012 130.9454997 127.9649988   4.4420012 130.5974997 128.8429988
   3.4390012 130.5894997 127.7099988   4.1949166 130.8496216 128.0508079
  13.7380012 131.3104997 123.1859988  14.1130012 130.5664997 122.7149988
  13.7420012 131.0404997 124.1049988  13.7899125 131.1720986 123.2456483
  13.4070012 131.2364997 125.9349988  12.4710012 131.3364997 126.1139988
  13.6870012 130.5274997 126.5139988  13.3169553 131.1543406 126.0377087
  16.3950012 120.3034997 137.9819988  15.9880012 120.7844997 137.2609988
  16.4360012 119.3984997 137.6739988  16.3448437 120.2469374 137.8416683
   3.5440012 126.6874997 135.9789988   3.7600012 126.3264997 136.8379988
   2.6890012 126.3134997 135.7689988   3.4579292 126.5874111 136.0683386
   6.1630012 115.1574997 131.9739988   5.3010012 115.0704997 131.5659988
   6.1400012 116.0134997 132.4019988   6.0420409 115.2612883 131.9760589
  10.8260012 114.8794997 135.3489988  11.2460012 114.4644997 136.1019988
   9.8930012 114.7014997 135.4659988  10.7573644 114.7985900 135.4679539
  14.1520012 118.6354997 136.2019988  13.6380012 118.5094997 136.9999988
  13.9970012 119.5474997 135.9579988  14.0606852 118.7416132 136.2782158
  14.9150012 123.4964997 121.9639988  14.9570012 123.2734997 121.0339988
  15.7640012 123.8954997 122.1529988  15.0355280 123.5199438 121.8623554
  10.4870012 117.3724997 122.6339988  10.2340012 117.3914997 123.5569988
  10.2310012 116.5004997 122.3319988  10.4177481 117.2572558 122.7196175
   6.2540012 120.1234997 133.0689988   5.6120012 120.0824997 133.7779988
   6.2910012 121.0494997 132.8309988   6.1710664 120.2431430 133.1339219
   6.2510012 120.3444997 127.9809988   5.3580012 120.0034997 127.9219988
   6.7010012 119.9674997 127.2249988   6.1898130 120.2469631 127.8707702
  11.7860012 120.7604997 126.7979988  11.3770012 121.5754997 126.5069988
  12.5070012 120.6204997 126.1839988  11.8274537 120.8532018 126.6751342
  10.8880012 120.9354997 138.2859988  10.3260012 120.2314997 138.6069988
  11.7150012 120.8154997 138.7539988  10.9227095 120.8227883 138.3932330
  12.7910012 120.2064997 129.6119988  12.5960012 120.8114997 128.8969988
  12.9720012 119.3724997 129.1779988  12.7887614 120.1766300 129.4554405
   4.0040012 120.4434997 134.9359988   3.9660012 120.8434997 135.8049988
   3.5130012 119.6264997 135.0269988   3.9324684 120.3878069 135.0671059
   7.3700012 117.8174997 121.7349988   6.9390012 117.3724997 122.4649988
   6.6520012 118.1894997 121.2229988   7.2139438 117.8068940 121.7656799
   0.6120012 117.5594997 128.7869988   1.2430012 117.5304997 129.5059988
   1.0610012 117.1344997 128.0559988   0.7590918 117.4980836 128.7866441
   1.8860012 118.3054997 124.2109988   2.3600012 118.8964997 123.6259988
   1.1690012 118.8364997 124.5579988   1.8539341 118.4580867 124.1778836
  12.0550012 121.8444997 134.2829988  12.3780012 121.2134997 133.6399988
  11.6150012 121.3094997 134.9439988  12.0397484 121.6858387 134.2843198
   8.8320012 117.7714997 129.0669988   7.9210012 117.8284997 129.3559988
   9.3380012 117.7114997 129.8779988   8.7756899 117.7711941 129.2161184
   3.6610012 119.4004997 127.8939988   2.7710012 119.5004997 127.5539988
   3.9570012 118.5584997 127.5479988   3.5792823 119.3003545 127.8007213
   7.3140012 119.4004997 125.5509988   8.2450012 119.5294997 125.7289988
   7.0990012 120.0704997 124.9009988   7.4124247 119.5086565 125.4875747
  13.2370012 117.0064997 132.3319988  12.5610012 117.1374997 132.9959988
  12.7520012 116.8514997 131.5209988  13.0787146 117.0035157 132.3134469
   5.9880012 120.5954997 123.1169988   5.4450012 120.2154997 122.4259988
   6.8210012 120.7894997 122.6889988   6.0263631 120.5697125 122.9644501
  16.5250012 132.6784997 138.6079988  16.7250012 133.1024997 137.7739988
  17.1800012 133.0214997 139.2149988  16.6410073 132.7829857 138.5758592
   4.1230012 125.1524997 138.2159988   4.8550012 125.4064997 138.7779988
   3.3430012 125.3564997 138.7319988   4.1177073 125.2148160 138.3626151
  10.1520012 120.5594997 130.9539988  10.7170012 120.0124997 130.4069988
  10.0050012 120.0374997 131.7429988  10.2093380 120.4142259 130.9858695
   5.1540012 116.6954997 127.3729988   4.8370012 115.7934997 127.3369988
   5.9360012 116.6974997 126.8199988   5.2162408 116.5722474 127.2933569
   8.7790012 118.9474997 133.3679988   7.9430012 119.4014997 133.4789988
   9.3030012 119.2234997 134.1199988   8.7355416 119.0468660 133.4848119
   9.3230012 125.1604997 125.0529988   8.5780012 124.6534997 124.7309988
   9.1890012 125.2094997 125.9999988   9.2028776 125.0976940 125.1368647
  16.4730012 124.2934997 133.8399988  17.1150012 124.7504997 133.2959988
  15.6430012 124.4064997 133.3769988  16.4485963 124.3712704 133.7030177
  13.2210012 117.9744997 123.2519988  12.2820012 118.0864997 123.1009988
  13.5180012 118.8314997 123.5589988  13.1327583 118.1055981 123.2728337
  10.8420012 125.3444997 136.2899988  10.4970012 124.9634997 137.0969988
  10.6420012 126.2784997 136.3609988  10.7677527 125.4185135 136.4100689
  13.9390012 119.8414997 124.9129988  14.8310012 119.7044997 125.2319988
  13.9960012 120.6324997 124.3759988  14.0686504 119.9296052 124.8840818
   4.4480012 124.4554997 130.8229988   5.1930012 124.4534997 130.2219988
   4.5260012 123.6324997 131.3039988   4.5604995 124.3438887 130.8058282
  11.4490012 126.6194997 124.0789988  11.1530012 127.4454997 124.4599988
  10.7460012 125.9994997 124.2749988  11.3134914 126.6488199 124.1576443
   1.4560012 122.9164997 136.1379988   1.6790012 122.4984997 136.9699988
   0.8540012 122.3034997 135.7149988   1.4051759 122.7764668 136.1947022
   8.4720012 122.4334997 138.3509988   8.1760012 122.2674997 137.4559988
   9.4040012 122.2134997 138.3399988   8.5574166 122.3810640 138.2270536
  13.0930012 127.8064997 136.2409988  12.1920012 127.9894997 135.9729988
  13.1270012 128.0654997 137.1609988  12.9743139 127.8665849 136.3288099
  18.8240012 120.0514997 124.6079988  18.2700012 119.6554997 123.9359988
  18.9240012 120.9614997 124.3299988  18.7617059 120.1203586 124.4784401
  18.7870012 125.8514997 137.4449988  17.9360012 126.0894997 137.0779988
  19.3780012 125.8344997 136.6919988  18.7502487 125.8818258 137.2928893
  17.1190012 128.8374997 125.0729988  16.7460012 128.0114997 125.3819988
  17.3970012 128.6544997 124.1749988  17.1055222 128.6997430 124.9939473
  14.2800012 123.6454997 132.0939988  13.3510012 123.4134997 132.0669988
  14.7310012 122.8684997 131.7639988  14.2139216 123.5087238 132.0456917
   6.8230012 127.9734997 128.2269988   7.3500012 128.7464997 128.0269988
   5.9430012 128.1984997 127.9249988   6.7762031 128.1097545 128.1587912
   2.5780012 122.8354997 122.8139988   3.1940012 123.4624997 123.1939988
   1.7160012 123.1514997 123.0859988   2.5457698 122.9639430 122.9027183
   8.2500012 125.6364997 127.8029988   8.0090012 126.5614997 127.8449988
   7.5090012 125.1774997 128.1999988   8.1169225 125.7010933 127.8623742
   8.7650012 129.7854997 134.1189988   9.1270012 130.6404997 133.8849988
   9.2960012 129.4934997 134.8589988   8.8864473 129.8631060 134.1870855
   6.9330012 130.6584997 127.3489988   5.9830012 130.7634997 127.3999988
   7.2850012 131.4784997 127.6929988   6.8504195 130.7838800 127.4025502
  12.3090012 125.8844997 133.8189988  11.8830012 125.6574997 134.6459988
  12.8890012 125.1464997 133.6369988  12.3291868 125.7535299 133.9075830
  14.5120012 126.8134997 122.8929988  14.8650012 126.4334997 123.6969988
  13.5630012 126.7204997 122.9799988  14.4320918 126.7488956 123.0148532
  14.9670012 130.4364997 136.2889988  14.3660012 129.8814997 135.7929988
  15.2490012 131.1034997 135.6619988  14.9228804 130.4506625 136.1364849
  19.0150012 131.2934997 123.0939988  19.7590012 131.8794997 122.9539988
  18.3210012 131.8614997 123.4269988  19.0229899 131.4505798 123.1198778
   3.0900012 117.6694997 135.6959988   2.1970012 118.0084997 135.6279988
   2.9910012 116.8144997 136.1139988   2.9544164 117.6002588 135.7432235
  15.3780012 125.4864997 125.1199988  15.1000012 124.7584997 125.6759988
  16.3050012 125.6054997 125.3249988  15.4653124 125.4028802 125.2238845
   2.7410012 129.4744997 134.1309988   2.9580012 128.5424997 134.0999988
   2.9870012 129.7484997 135.0139988   2.8039549 129.3840636 134.2461763
   8.6030012 127.9254997 121.3399988   8.8420012 127.1774997 120.7929988
   8.3340012 127.5374997 122.1729988   8.5993675 127.7706638 121.3776865
   7.5400012 127.4954997 123.7959988   7.6860012 126.9754997 124.5859988
   7.5370012 128.4024997 124.1029988   7.5595792 127.5468842 123.9456117
   3.9930012 124.7484997 124.3069988   3.3070012 125.1004997 124.8739988
   4.5150012 125.5114997 124.0599988   3.9696852 124.8998578 124.3512118
  11.8240012 117.4104997 134.5859988  12.5230012 117.4844997 135.2359988
  11.4430012 116.5464997 134.7399988  11.8681767 117.3037624 134.6958322
  12.6090012 117.0624997 125.6829988  12.8290012 117.5344997 124.8799988
  13.1670012 117.4574997 126.3529988  12.7144968 117.1804285 125.6637331
  10.2770012 129.1934997 124.5459988   9.4610012 129.6904997 124.5979988
  10.8070012 129.6684997 123.9059988  10.2369161 129.3257722 124.4665956
   9.8090012 118.7904997 126.5179988  10.6210012 119.2954997 126.5639988
   9.5640012 118.6454997 127.4319988   9.8870520 118.8400375 126.6478517
  10.3440012 119.7764997 135.7019988  10.4630012 120.3504997 136.4599988
  11.0000012 119.0884997 135.8169988  10.4489025 119.7619858 135.8211321
  10.6920012 115.8714997 127.4559988  10.3460012 116.4894997 128.0999988
  11.3510012 116.3724997 126.9739988  10.7336968 116.0236278 127.4789383
   7.6160012 130.2374997 124.5269988   7.7760012 131.0364997 124.0269988
   7.4180012 130.5434997 125.4119988   7.6111637 130.3884020 124.5781144
   6.3500012 116.9344997 124.1429988   6.2670012 117.8234997 124.4899988
   7.2400012 116.6694997 124.3749988   6.4589469 117.0201430 124.2217626
  16.5490012 117.6834997 136.5369988  15.6320012 117.9464997 136.4499988
  16.8840012 117.6804997 135.6409988  16.4688613 117.7190761 136.4038837
  15.1510012 121.4344997 130.6329988  14.3530012 121.0194997 130.3049988
  15.5960012 120.7434997 131.1239988  15.1019885 121.2843543 130.6544889
   4.6090012 127.3624997 123.2039988   5.2010012 128.0614997 123.4799988
   5.0680012 126.9294997 122.4839988   4.7521142 127.3997049 123.1444830
   2.9250012 120.0264997 122.3199988   2.8800012 120.9654997 122.4979988
   2.0370012 119.7904997 122.0499988   2.7988574 120.1231892 122.3078912
  16.2370012 130.6904997 132.2559988  16.0820012 131.3684997 131.5979988
  17.1700012 130.7624997 132.4589988  16.3418657 130.7929546 132.1934360
   3.7330012 114.8084997 130.9929988   3.5040012 114.8674997 130.0649988
   3.2900012 114.0164997 131.2989988   3.6418530 114.7095753 130.9074786
   2.6630012 128.7484997 127.1529988   1.8310012 129.2214997 127.1799988
   3.2090012 129.2584997 126.5549988   2.6230352 128.8821332 127.0758463
   1.9510012 131.3614997 138.4829988   2.4920012 131.1444997 139.2429988
   1.4700012 130.5554997 138.2929988   1.9599951 131.2229270 138.5612576
   6.5490012 130.2804997 140.1029988   7.3160012 129.8214997 140.4439988
   6.5270012 130.0544997 139.1739988   6.6511275 130.1870186 140.0240101
  10.6410012 129.7884997 121.4789988   9.9970012 129.1574997 121.7999988
  11.4030012 129.2574997 121.2469988  10.6558077 129.6302920 121.4916011
  13.1260012 128.6604997 138.8329988  12.7750012 127.8044997 139.0759988
  13.8520012 128.8034997 139.4399988  13.1760769 128.5625636 138.9483619
  15.2450012 129.6054997 121.7119988  15.5280012 128.8114997 122.1649988
  15.9850012 129.8384997 121.1519988  15.3838006 129.5283376 121.6982715
   1.8580012 125.1714997 139.4369988   2.0020012 124.2694997 139.1509988
   1.0860012 125.4574997 138.9499988   1.7732753 125.0866816 139.3319505
   6.2000012 125.5154997 121.5699988   6.2640012 124.7214997 122.1009988
   6.8530012 125.3964997 120.8799988   6.2970241 125.3907148 121.5494317
   8.5140012 125.1414997 138.8699988   8.1850012 125.4124997 138.0129988
   8.6660012 124.2004997 138.7829988   8.4894809 125.0513862 138.7408244
  11.5520012 126.5624997 121.3059988  11.2830012 126.7424997 122.2069988
  11.3460012 125.6364997 121.1739988  11.4873427 126.4620261 121.4115073
  14.2480012 125.0574997 136.2529988  14.9940012 125.6454997 136.1339988
  13.4910012 125.6394997 136.3169988  14.2477820 125.2167143 136.2453590
   2.6910012 122.3714997 138.8569988   3.0990012 121.5144997 138.7359988
   2.4310012 122.3864997 139.7779988   2.7117568 122.2560807 138.9649588
   7.3490012 123.4874997 123.8759988   6.8890012 123.0034997 124.5619988
   7.6040012 122.8194997 123.2399988   7.3204902 123.3308731 123.8839334
   6.6380012 121.3804997 136.2319988   6.0200012 122.0554997 136.5119988
   6.9820012 121.7014997 135.3979988   6.5999132 121.5162411 136.1576262
   8.4200012 121.7304997 122.1379988   8.2400012 121.5764997 121.2109988
   9.3700012 121.8384997 122.1829988   8.5237776 121.7240175 122.0171843
  11.6580012 123.8524997 139.5089988  12.6110012 123.9354997 139.4819988
  11.4970012 123.1404997 140.1289988  11.7666426 123.7676746 139.5890579
  17.8100012 124.0854997 121.5839988  17.5360012 123.6604997 120.7709988
  17.8490012 125.0164997 121.3669988  17.7777699 124.1532484 121.4433610
   6.9770012 118.7354997 137.3139988   7.1270012 118.0064997 136.7119988
   6.9800012 119.5124997 136.7549988   6.9979302 118.7407851 137.1560692
   7.3900012 117.1054997 134.8069988   7.9260012 117.5564997 134.1549988
   6.5380012 116.9974997 134.3839988   7.3482178 117.1526390 134.6605756
   8.9720012 122.5444997 135.0459988   9.7220012 122.3884997 134.4729988
   8.6330012 123.3964997 134.7709988   9.0288921 122.6382968 134.9303561
  13.3870012 120.3594997 140.0749988  13.5800012 119.4284997 139.9629988
  14.2450012 120.7844997 140.0639988  13.5292934 120.2896531 140.0582031
  14.7040012 123.1484997 138.1519988  14.4230012 123.8574997 137.5739988
  15.6470012 123.0754997 138.0009988  14.7929291 123.2356711 138.0524967
   5.4560012 119.9334997 139.2259988   4.6890012 119.4014997 139.0149988
   6.1350012 119.6234997 138.6259988   5.4427877 119.8188300 139.1160716
   8.1960012 114.5614997 135.2379988   8.0970012 115.5084997 135.1329988
   7.4530012 114.1894997 134.7619988   8.0821184 114.6405863 135.1593621
   9.4600012 118.8834997 138.8019988   9.2240012 118.6634997 139.7029988
   8.6760012 118.6764997 138.2919988   9.3218504 118.8254586 138.8563431
  12.1750012 118.0104997 137.8769988  11.2280012 118.0424997 138.0099988
  12.4880012 117.3854997 138.5309988  12.0876707 117.9303998 137.9836060
  13.8090012 116.6444997 139.8829988  13.7130012 115.6924997 139.8769988
  13.4880012 116.9134997 140.7429988  13.7524070 116.5504035 139.9985441
   3.6360012 117.8544997 138.9299988   3.8480012 117.1474997 138.3199988
   3.5250012 117.4164997 139.7739988   3.6499721 117.6987084 138.9606843
   8.4170012 113.8554997 137.9089988   9.1290012 113.2154997 137.8949988
   8.3160012 114.1224997 136.9959988   8.5008066 113.8040079 137.7835677
   8.7710012 115.5384997 139.9629988   8.6390012 115.0624997 139.1429988
   8.1720012 116.2824997 139.9079988   8.6719071 115.5739618 139.8432886
   8.3170012 132.4214997 123.1389988   9.2500012 132.5794997 123.2829988
   8.0530012 133.0964997 122.5149988   8.4089888 132.5344510 123.0742842
   1.8860012 127.0574997 122.6219988   2.8000012 127.1364997 122.8959988
   1.8930012 126.3704997 121.9559988   2.0121131 126.9753961 122.5694393
   0.5350012 132.4504997 127.6999988  -0.1119988 131.9884997 127.1669988
   0.8890012 131.7784997 128.2819988   0.4943849 132.2964723 127.7057959
   1.4050012 130.5314997 129.5039988   1.0700012 129.6514997 129.6759988
   1.6270012 130.8764997 130.3689988   1.3891783 130.4577501 129.6444208
  18.9530012 131.3404997 132.4849988  18.9320012 131.5254997 133.4239988
  19.6440012 131.9094997 132.1439988  19.0434618 131.4426606 132.5673864
  18.5170012 130.9084997 135.4069988  18.0290012 130.1724997 135.0349988
  19.0660012 130.5144997 136.0849988  18.5244820 130.7545889 135.4477813
  16.9670012 126.6974997 140.0449988  16.1010012 126.5924997 140.4389988
  17.3440012 127.4564997 140.4909988  16.8993308 126.7856900 140.1592393
  18.2680012 124.9544997 125.5589988  19.1180012 125.3754997 125.6859988
  18.2740012 124.2144997 126.1659988  18.3851372 124.9120803 125.6584344
  18.6630012 123.0074997 127.3819988  17.9360012 122.5284997 127.7799988
  19.2440012 123.2134997 128.1149988  18.6420473 122.9698103 127.5354528
  18.4220012 125.7924997 132.3299988  19.2550012 125.4144997 132.0499988
  18.5340012 126.7354997 132.2109988  18.5512647 125.8682218 132.2755487
  16.9080012 128.6704997 134.6369988  16.2610012 128.9954997 135.2629988
  16.3910012 128.2304997 133.9629988  16.7494029 128.6555004 134.6315827
  18.9310012 122.9084997 123.7739988  18.4090012 123.2654997 123.0549988
  18.8980012 123.5834997 124.4519988  18.8551634 123.0485413 123.7673145
  17.2800012 120.1484997 122.3239988  17.3760012 120.8154997 121.6439988
  17.1400012 119.3324997 121.8429988  17.2742272 120.1295655 122.1658347
  16.4490012 121.5284997 127.9449988  16.2990012 120.5834997 127.9249988
  16.0960012 121.8094997 128.7889988  16.3807448 121.4371481 128.0563705
   1.4850012 123.6064997 131.9559988   1.6690012 123.5244997 131.0199988
   2.3340012 123.4824997 132.3789988   1.6250151 123.5785073 131.8851451
  17.3060012 123.4984997 137.5839988  17.8890012 122.7644997 137.7759988
  17.8700012 124.2704997 137.6309988  17.4619769 123.5024227 137.6166159
  18.8020012 121.4014997 138.2689988  17.9390012 121.0224997 138.1029988
  19.4070012 120.6624997 138.1939988  18.7656119 121.2498268 138.2361528
  16.5270012 117.5564997 121.4419988  17.1380012 117.1854997 122.0789988
  15.6910012 117.1354997 121.6379988  16.4975032 117.4487554 121.5557035
  16.1600012 119.1114997 126.4079988  16.4400012 118.2044997 126.5319988
  16.9190012 119.5454997 126.0189988  16.3009277 119.0460942 126.3723682
  16.7720012 119.6924997 131.8439988  17.7050012 119.9044997 131.8089988
  16.5370012 119.7944997 132.7659988  16.8679244 119.7353100 131.9638892
  16.8010012 120.4294997 134.6199988  15.9580012 120.6974997 134.9859988
  17.2430012 121.2514997 134.4089988  16.7454158 120.5773291 134.6415491
   1.0820012 118.8774997 138.0969988   2.0020012 118.7554997 138.3329988
   0.6330012 118.1274997 138.4859988   1.1471580 118.7593727 138.1819006
  19.0840012 114.4094997 139.9729988  19.4340012 113.7554997 139.3679988
  19.2310012 115.2464997 139.5329988  19.1517887 114.4331548 139.8306858
  16.7730012 116.3744997 126.4559988  16.9560012 115.9254997 127.2819988
  16.1740012 115.7894997 125.9929988  16.7170202 116.2339975 126.5063275
   2.3030012 117.1894997 130.9879988   2.7490012 116.3974997 131.2899988
   2.7700012 117.9054997 131.4179988   2.4270831 117.1780685 131.0874006
   0.6070012 120.1884997 132.0569988   1.0990012 119.9674997 131.2659988
   0.9700012 121.0294997 132.3379988   0.7233126 120.2718357 131.9867531
  18.6040012 116.5184997 138.3219988  17.6860012 116.7894997 138.2869988
  18.7270012 115.9834997 137.5379988  18.4949729 116.4832508 138.2111923
  18.6400012 116.4414997 122.9839988  19.0520012 115.7204997 122.5089988
  19.3220012 117.1114997 123.0429988  18.7885885 116.4332368 122.9268915
   0.9210012 116.4464997 126.1109988  -0.0039988 116.6554997 125.9819988
   1.3750012 116.9304997 125.4209988   0.8557292 116.5405343 126.0000720
  15.6920012 131.4304997 128.0569988  16.3440012 131.0834997 127.4489988
  16.2020012 131.9194997 128.7029988  15.8502637 131.4490597 128.0610236
   0.8850012 115.1844997 134.4549988   0.2200012 114.9384997 135.0989988
   0.4420012 115.8064997 133.8779988   0.7341318 115.2349410 134.4650898
   3.0770012 128.3594997 138.5999988   2.2560012 128.5344997 138.1389988
   2.8240012 128.2864997 139.5199988   2.9305585 128.3735544 138.6613561
   6.0310012 129.3344997 134.8579988   5.6060012 130.1434997 134.5759988
   6.9350012 129.4194997 134.5559988   6.0949975 129.4569300 134.7784816
  10.3420012 130.7334997 137.8179988  10.5270012 130.3994997 138.6959988
  11.1880012 131.0424997 137.4959988  10.4817539 130.7296047 137.8945605
  12.6870012 132.0194997 137.0619988  13.3640012 131.3864997 136.8219988
  13.0090012 132.4204997 137.8689988  12.8231637 131.9871154 137.1382793
  17.6040012 114.6084997 136.1409988  16.7920012 114.9334997 135.7539988
  17.8370012 113.8484997 135.6079988  17.5242203 114.5502758 136.0158880
   3.4330012 132.5904997 134.9059988   2.7120012 133.0304997 134.4549988
   3.0670012 132.3394997 135.7539988   3.2849651 132.6167242 134.9589640
   5.9000012 132.1904997 133.9359988   5.0350012 132.2624997 134.3399988
   5.8450012 132.7374997 133.1519988   5.7742085 132.2742685 133.8853362
  10.6100012 132.0784997 133.1109988  10.1540012 132.6074997 132.4569988
  10.7730012 132.6814997 133.8359988  10.5696068 132.2324607 133.1194838
  12.9380012 130.9564997 134.0559988  12.0330012 131.1214997 133.7899988
  13.3670012 131.8094997 133.9909988  12.8721324 131.0944339 134.0107976
  15.5420012 132.5264997 134.3509988  15.3600012 133.4424997 134.1409988
  15.7190012 132.1164997 133.5049988  15.5410210 132.5964822 134.2077885
   2.8470012 131.2134997 131.8159988   2.8290012 130.7884997 132.6729988
   3.6520012 130.8954997 131.4069988   2.9533529 131.1123013 131.8780946
   4.9890012 129.9234997 130.4709988   4.7700012 129.0074997 130.6409988
   5.8130012 130.0634997 130.9369988   5.0704420 129.8170520 130.5572774
   7.5260012 130.3934997 131.3199988   7.7390012 129.5054997 131.0329988
   7.5900012 130.3594997 132.2739988   7.5638231 130.2673102 131.4097397
  11.0340012 116.0574997 130.4639988  10.3600012 115.4284997 130.7199988
  11.5980012 115.5734997 129.8609988  11.0179230 115.9058744 130.4175340
  16.1770012 114.1654997 130.5769988  16.7810012 114.7124997 130.0749988
  15.3070012 114.4844997 130.3359988  16.1421208 114.2835137 130.4756886
  17.9040012 115.3034997 128.9099988  18.5160012 114.7894997 128.3829988
  18.2860012 116.1814997 128.9329988  18.0393371 115.3517866 128.8410041
   3.3610012 114.6914997 128.2859988   2.5840012 114.4574997 127.7789988
   3.8910012 113.8944997 128.2949988   3.3262330 114.5516988 128.2177742
   2.1970012 114.4894997 124.0899988   2.6360012 115.1004997 123.4979988
   1.5640012 115.0274997 124.5639988   2.1714514 114.6459257 124.0730930
   7.9400012 114.6184997 128.0999988   8.8150012 115.0064997 128.0699988
   7.8040012 114.4034997 129.0219988   8.0413695 114.6425184 128.2206440
  13.4970012 114.6484997 129.7489988  13.5730012 114.7434997 128.7989988
  13.2220012 113.7404997 129.8779988  13.4702321 114.5387867 129.6365079
  14.8500012 114.6744997 125.4409988  14.1480012 115.2894997 125.2309988
  14.4060012 113.8364997 125.5719988  14.6936450 114.6455639 125.4299000
   2.0980012 130.4374997 124.9869988   1.4130012 130.3994997 124.3199988
   2.1020012 131.3504997 125.2759988   2.0046998 130.5556733 124.9346771
   4.0580012 116.4054997 122.5319988   4.5500012 115.7754997 122.0049988
   4.6820012 116.7014997 123.1949988   4.2095688 116.3593804 122.5495482
   9.0840012 116.6984997 124.9889988   9.2620012 116.0524997 125.6719988
   9.0310012 117.5324997 125.4559988   9.1011999 116.7228009 125.1455917
  10.9630012 131.6474997 123.3849988  11.8290012 132.0134997 123.2069988
  10.7160012 131.2074997 122.5709988  11.0482392 131.6381756 123.2506289
  17.6720012 131.2104997 126.0639988  17.4770012 130.4624997 125.4989988
  17.6330012 131.9684997 125.4809988  17.6400380 131.2106099 125.9078384
   3.3190012 115.2054997 137.8039988   2.9530012 114.4404997 138.2459988
   4.2320012 115.2344997 138.0899988   3.3922736 115.1045640 137.9032502
   5.2920012 114.5564997 139.3399988   6.1900012 114.2824997 139.1549988
   4.9050012 113.8134997 139.8039988   5.3626612 114.4185914 139.3773643
   3.9160012 131.3574997 122.0129988   3.6490012 131.6444997 122.8859988
   4.6880012 130.8114997 122.1649988   3.9837488 131.3230294 122.1531050
  13.7130012 113.8884997 139.5219988  13.7900012 113.4624997 140.3759988
  14.6070012 113.9024997 139.1789988  13.8443428 113.8320879 139.5925310
  16.8890012 129.9614997 138.2139988  16.1070012 129.7754997 137.6939988
  16.8170012 130.8904997 138.4319988  16.7722274 130.0616643 138.1723018
  31.2950012 123.8474997 128.2449988  31.3840012 124.7914997 128.1129988
  30.6570012 123.5724997 127.5869988  31.2209081 123.9394830 128.1379614
  30.2280012 123.1024997 131.6639988  30.1900012 122.4564997 132.3689988
  29.9060012 122.6364997 130.8929988  30.1792333 122.9509408 131.6562978
  22.5970012 122.7174997 133.2569988  22.6380012 122.0914997 133.9799988
  23.3000012 123.3414997 133.4389988  22.6976363 122.7161196 133.3806044
  33.9340012 126.0414997 129.9649988  33.4940012 125.3214997 130.4159988
  33.9210012 126.7624997 130.5949988  33.8720226 126.0403731 130.1118494
  23.5200012 127.1674997 131.7919988  23.1510012 126.3654997 131.4219988
  24.4610012 126.9984997 131.8379988  23.5967289 127.0350153 131.7476316
  20.1300012 120.8274997 127.1849988  19.6830012 121.6734997 127.1659988
  19.5690012 120.2474997 126.6689988  19.9929900 120.8649916 127.1126801
  20.8410012 122.9894997 129.3099988  21.0540012 122.2194997 129.8379988
  21.5790012 123.0784997 128.7069988  20.9699044 122.8961968 129.3007123
  31.0460012 131.1464997 130.1769988  31.6660012 130.4694997 129.9039988
  30.8380012 130.9284997 131.0859988  31.1026726 131.0244800 130.2624812
  28.6180012 125.5354997 132.0699988  28.9220012 124.8494997 131.4749988
  29.3390012 125.6534997 132.6879988  28.7570671 125.4576305 132.0721816
  37.2810012 117.1364997 132.9309988  37.3300012 117.7464997 133.6659988
  37.7060012 117.5974997 132.2079988  37.3451746 117.2823796 132.9339175
  31.7590012 119.9294997 132.3969988  31.9010012 118.9834997 132.4179988
  31.6520012 120.1364997 131.4689988  31.7639919 119.8278246 132.2743408
  24.9130012 118.0304997 129.6699988  24.9570012 118.8904997 129.2509988
  24.4560012 117.4784997 129.0359988  24.8572240 118.0734422 129.5269864
  32.6360012 118.1614997 128.0709988  33.2820012 117.8324997 128.6949988
  33.1460012 118.6794997 127.4479988  32.7934299 118.1864450 128.0722731
  21.5340012 120.4274997 130.4319988  22.1870012 119.8774997 130.8639988
  21.5580012 120.1534997 129.5149988  21.6266683 120.3151466 130.3672123
  26.6900012 121.9774997 129.6469988  27.3060012 121.4514997 130.1569988
  26.1040012 121.3374997 129.2439988  26.6950810 121.8189208 129.6623173
  37.6720012 118.6144997 135.1659988  36.9840012 119.2724997 135.0709988
  37.6880012 118.4174997 136.1029988  37.5799540 118.6779819 135.2795990
  23.7240012 116.9484997 133.7439988  23.5050012 117.4784997 132.9779988
  23.0560012 117.1754997 134.3909988  23.6037600 117.0516906 133.7266379
  31.0930012 126.4484997 127.2879988  30.7970012 126.1264997 126.4369988
  30.7680012 127.3484997 127.3289988  31.0086371 126.5260215 127.1771801
  26.2930012 124.6244997 134.0309988  25.5530012 125.2224997 134.1349988
  27.0070012 125.1784997 133.7159988  26.2882237 124.7812831 134.0026465
  34.4000012 117.4524997 130.0509988  34.1840012 116.6864997 130.5839988
  35.0550012 117.9244997 130.5639988  34.4590632 117.4115889 130.1932861
  23.3170012 118.8404997 131.6959988  23.9310012 119.4734997 132.0689988
  23.8290012 118.3684997 131.0399988  23.4701981 118.8632267 131.6582908
  24.7000012 126.5884997 134.8179988  24.6950012 127.4684997 134.4399988
  23.8470012 126.5054997 135.2429988  24.5839464 126.6976117 134.8237907
  20.8210012 126.2594997 125.5999988  20.5490012 126.4884997 124.7119988
  20.8670012 127.0974997 126.0609988  20.7899482 126.4041318 125.5406273
  34.4460012 127.8814997 132.3129988  33.5050012 127.9394997 132.4749988
  34.7230012 128.7874997 132.1759988  34.3544679 128.0119443 132.3166815
  34.7470012 116.1674997 133.7309988  34.0110012 116.7784997 133.6929988
  35.4300012 116.5824997 133.2039988  34.7386541 116.3071374 133.6545832
  27.7500012 114.2544997 131.1959988  27.6330012 113.3054997 131.1419988
  26.8950012 114.5864997 131.4699988  27.6184212 114.1695571 131.2256497
  32.6980012 129.6624997 128.9379988  33.1240012 128.9554997 128.4529988
  33.0150012 130.4634997 128.5219988  32.7991683 129.6741017 128.8153680
  33.8580012 127.5634997 127.4469988  33.6000012 126.8734997 126.8359988
  33.9290012 127.1204997 128.2929988  33.8322856 127.4092124 127.4776885
  35.5440012 126.1294997 135.9239988  35.6840012 125.5384997 135.1849988
  35.7110012 127.0024997 135.5679988  35.5857411 126.1665428 135.7746894
  30.0170012 123.0914997 125.6969988  29.3050012 123.6264997 125.3449988
  30.7080012 123.1474997 125.0369988  30.0130132 123.1722543 125.5596289
  30.0700012 121.5494997 122.7359988  30.7710012 121.5714997 123.3869988
  30.3730012 120.9214997 122.0789988  30.2068133 121.4677070 122.7363369
  37.3860012 122.4694997 133.9899988  36.7330012 123.1644997 134.0799988
  37.8510012 122.6794997 133.1809988  37.3595274 122.5930643 133.8928462
  33.4220012 123.3014997 126.6489988  32.6900012 123.5294997 127.2219988
  33.8700012 122.5874997 127.1029988  33.3822725 123.2362145 126.7888816
  33.3200012 121.4754997 135.7159988  33.4000012 122.2384997 136.2879988
  32.7180012 121.7544997 135.0259988  33.2495756 121.6177134 135.7010589
  25.0680012 123.9314997 128.5309988  24.7370012 123.5614997 127.7129988
  25.6560012 123.2614997 128.8779988  25.1021873 123.7901156 128.4658102
  26.4340012 127.3594997 131.2119988  26.3400012 126.7814997 130.4559988
  27.1640012 126.9884997 131.7089988  26.5197387 127.2301663 131.1755342
  25.4340012 122.7004997 132.1649988  26.0000012 122.8214997 131.4019988
  25.7530012 123.3374997 132.8029988  25.5545474 122.8032219 132.1469862
  31.7430012 128.2034997 132.8989988  31.5030012 128.8654997 133.5469988
  31.5450012 127.3694997 133.3239988  31.6833808 128.1813134 133.0451524
  26.3140012 127.0994997 136.8819988  26.0030012 127.8814997 137.3369988
  25.6640012 126.9464997 136.1959988  26.1835558 127.1859105 136.8515871
  32.2930012 122.4634997 124.3339988  32.8730012 122.6134997 125.0809988
  32.7070012 122.9344997 123.6099988  32.4282997 122.5476578 124.3384058
  23.2340012 123.2974997 136.1099988  23.3050012 123.9484997 136.8089988
  22.3440012 123.4004997 135.7749988  23.1233005 123.4005427 136.1603495
  30.0200012 129.2004997 127.7689988  30.4940012 129.4954997 128.5459988
  29.4570012 129.9384997 127.5359988  30.0088184 129.3407247 127.8439628
  24.5540012 129.1714997 137.6449988  24.5610012 129.0354997 136.6979988
  23.6380012 129.0534997 137.8969988  24.4311714 129.1369430 137.5494666
  35.9920012 114.2134997 124.1469988  35.0920012 114.3524997 124.4419988
  36.2440012 115.0444997 123.7449988  35.9028702 114.3449074 124.1330205
  24.0580012 123.0014997 126.1199988  23.7660012 123.7694997 125.6299988
  23.3840012 122.3414997 125.9579988  23.9268111 123.0175587 126.0308978
  37.1810012 128.5794997 122.5229988  37.2550012 129.5184997 122.6939988
  38.0870012 128.2744997 122.4669988  37.3135100 128.6666722 122.5388119
  20.1510012 125.3644997 134.9349988  19.6500012 125.3364997 134.1199988
  20.1560012 124.4584997 135.2449988  20.0830944 125.2382396 134.8653226
  19.9010012 128.1444997 131.8189988  20.8470012 128.0004997 131.7999988
  19.7890012 128.9284997 132.3559988  20.0152727 128.2308046 131.8890072
  38.0990012 128.8104997 137.5019988  38.0500012 127.8554997 137.4649988
  37.2720012 129.0784997 137.9029988  37.9804940 128.7158998 137.5511375
  29.0780012 128.3844997 136.3779988  29.1650012 129.2104997 136.8529988
  28.2140012 128.0544997 136.6269988  28.9731964 128.4529878 136.4766549
  29.4920012 132.1564997 126.1839988  29.4170012 132.0354997 125.2369988
  29.5250012 133.1064997 126.3019988  29.4862068 132.2682646 126.0704967
  23.1450012 130.9454997 127.9649988  23.2980012 130.5974997 128.8429988
  22.2950012 130.5894997 127.7099988  23.0509166 130.8496216 128.0508079
  32.5940012 131.3104997 123.1859988  32.9690012 130.5664997 122.7149988
  32.5980012 131.0404997 124.1049988  32.6459125 131.1720986 123.2456483
  32.2630012 131.2364997 125.9349988  31.3270012 131.3364997 126.1139988
  32.5430012 130.5274997 126.5139988  32.1729553 131.1543406 126.0377087
  35.2510012 120.3034997 137.9819988  34.8440012 120.7844997 137.2609988
  35.2920012 119.3984997 137.6739988  35.2008437 120.2469374 137.8416683
  22.4000012 126.6874997 135.9789988  22.6160012 126.3264997 136.8379988
  21.5450012 126.3134997 135.7689988  22.3139292 126.5874111 136.0683386
  25.0190012 115.1574997 131.9739988  24.1570012 115.0704997 131.5659988
  24.9960012 116.0134997 132.4019988  24.8980409 115.2612883 131.9760589
  29.6820012 114.8794997 135.3489988  30.1020012 114.4644997 136.1019988
  28.7490012 114.7014997 135.4659988  29.6133644 114.7985900 135.4679539
  33.0080012 118.6354997 136.2019988  32.4940012 118.5094997 136.9999988
  32.8530012 119.5474997 135.9579988  32.9166852 118.7416132 136.2782158
  33.7710012 123.4964997 121.9639988  33.8130012 123.2734997 121.0339988
  34.6200012 123.8954997 122.1529988  33.8915280 123.5199438 121.8623554
  29.3430012 117.3724997 122.6339988  29.0900012 117.3914997 123.5569988
  29.0870012 116.5004997 122.3319988  29.2737481 117.2572558 122.7196175
  25.1100012 120.1234997 133.0689988  24.4680012 120.0824997 133.7779988
  25.1470012 121.0494997 132.8309988  25.0270664 120.2431430 133.1339219
  25.1070012 120.3444997 127.9809988  24.2140012 120.0034997 127.9219988
  25.5570012 119.9674997 127.2249988  25.0458130 120.2469631 127.8707702
  30.6420012 120.7604997 126.7979988  30.2330012 121.5754997 126.5069988
  31.3630012 120.6204997 126.1839988  30.6834537 120.8532018 126.6751342
  29.7440012 120.9354997 138.2859988  29.1820012 120.2314997 138.6069988
  30.5710012 120.8154997 138.7539988  29.7787095 120.8227883 138.3932330
  31.6470012 120.2064997 129.6119988  31.4520012 120.8114997 128.8969988
  31.8280012 119.3724997 129.1779988  31.6447614 120.1766300 129.4554405
  22.8600012 120.4434997 134.9359988  22.8220012 120.8434997 135.8049988
  22.3690012 119.6264997 135.0269988  22.7884684 120.3878069 135.0671059
  26.2260012 117.8174997 121.7349988  25.7950012 117.3724997 122.4649988
  25.5080012 118.1894997 121.2229988  26.0699438 117.8068940 121.7656799
  19.4680012 117.5594997 128.7869988  20.0990012 117.5304997 129.5059988
  19.9170012 117.1344997 128.0559988  19.6150918 117.4980836 128.7866441
  20.7420012 118.3054997 124.2109988  21.2160012 118.8964997 123.6259988
  20.0250012 118.8364997 124.5579988  20.7099341 118.4580867 124.1778836
  30.9110012 121.8444997 134.2829988  31.2340012 121.2134997 133.6399988
  30.4710012 121.3094997 134.9439988  30.8957484 121.6858387 134.2843198
  27.6880012 117.7714997 129.0669988  26.7770012 117.8284997 129.3559988
  28.1940012 117.7114997 129.8779988  27.6316899 117.7711941 129.2161184
  22.5170012 119.4004997 127.8939988  21.6270012 119.5004997 127.5539988
  22.8130012 118.5584997 127.5479988  22.4352823 119.3003545 127.8007213
  26.1700012 119.4004997 125.5509988  27.1010012 119.5294997 125.7289988
  25.9550012 120.0704997 124.9009988  26.2684247 119.5086565 125.4875747
  32.0930012 117.0064997 132.3319988  31.4170012 117.1374997 132.9959988
  31.6080012 116.8514997 131.5209988  31.9347146 117.0035157 132.3134469
  24.8440012 120.5954997 123.1169988  24.3010012 120.2154997 122.4259988
  25.6770012 120.7894997 122.6889988  24.8823631 120.5697125 122.9644501
  35.3810012 132.6784997 138.6079988  35.5810012 133.1024997 137.7739988
  36.0360012 133.0214997 139.2149988  35.4970073 132.7829857 138.5758592
  22.9790012 125.1524997 138.2159988  23.7110012 125.4064997 138.7779988
  22.1990012 125.3564997 138.7319988  22.9737073 125.2148160 138.3626151
  29.0080012 120.5594997 130.9539988  29.5730012 120.0124997 130.4069988
  28.8610012 120.0374997 131.7429988  29.0653380 120.4142259 130.9858695
  24.0100012 116.6954997 127.3729988  23.6930012 115.7934997 127.3369988
  24.7920012 116.6974997 126.8199988  24.0722408 116.5722474 127.2933569
  27.6350012 118.9474997 133.3679988  26.7990012 119.4014997 133.4789988
  28.1590012 119.2234997 134.1199988  27.5915416 119.0468660 133.4848119
  28.1790012 125.1604997 125.0529988  27.4340012 124.6534997 124.7309988
  28.0450012 125.2094997 125.9999988  28.0588776 125.0976940 125.1368647
  35.3290012 124.2934997 133.8399988  35.9710012 124.7504997 133.2959988
  34.4990012 124.4064997 133.3769988  35.3045963 124.3712704 133.7030177
  32.0770012 117.9744997 123.2519988  31.1380012 118.0864997 123.1009988
  32.3740012 118.8314997 123.5589988  31.9887583 118.1055981 123.2728337
  29.6980012 125.3444997 136.2899988  29.3530012 124.9634997 137.0969988
  29.4980012 126.2784997 136.3609988  29.6237527 125.4185135 136.4100689
  32.7950012 119.8414997 124.9129988  33.6870012 119.7044997 125.2319988
  32.8520012 120.6324997 124.3759988  32.9246504 119.9296052 124.8840818
  23.3040012 124.4554997 130.8229988  24.0490012 124.4534997 130.2219988
  23.3820012 123.6324997 131.3039988  23.4164995 124.3438887 130.8058282
  30.3050012 126.6194997 124.0789988  30.0090012 127.4454997 124.4599988
  29.6020012 125.9994997 124.2749988  30.1694914 126.6488199 124.1576443
  20.3120012 122.9164997 136.1379988  20.5350012 122.4984997 136.9699988
  19.7100012 122.3034997 135.7149988  20.2611759 122.7764668 136.1947022
  27.3280012 122.4334997 138.3509988  27.0320012 122.2674997 137.4559988
  28.2600012 122.2134997 138.3399988  27.4134166 122.3810640 138.2270536
  31.9490012 127.8064997 136.2409988  31.0480012 127.9894997 135.9729988
  31.9830012 128.0654997 137.1609988  31.8303139 127.8665849 136.3288099
  37.6800012 120.0514997 124.6079988  37.1260012 119.6554997 123.9359988
  37.7800012 120.9614997 124.3299988  37.6177059 120.1203586 124.4784401
  37.6430012 125.8514997 137.4449988  36.7920012 126.0894997 137.0779988
  38.2340012 125.8344997 136.6919988  37.6062487 125.8818258 137.2928893
  35.9750012 128.8374997 125.0729988  35.6020012 128.0114997 125.3819988
  36.2530012 128.6544997 124.1749988  35.9615222 128.6997430 124.9939473
  33.1360012 123.6454997 132.0939988  32.2070012 123.4134997 132.0669988
  33.5870012 122.8684997 131.7639988  33.0699216 123.5087238 132.0456917
  25.6790012 127.9734997 128.2269988  26.2060012 128.7464997 128.0269988
  24.7990012 128.1984997 127.9249988  25.6322031 128.1097545 128.1587912
  21.4340012 122.8354997 122.8139988  22.0500012 123.4624997 123.1939988
  20.5720012 123.1514997 123.0859988  21.4017698 122.9639430 122.9027183
  27.1060012 125.6364997 127.8029988  26.8650012 126.5614997 127.8449988
  26.3650012 125.1774997 128.1999988  26.9729225 125.7010933 127.8623742
  27.6210012 129.7854997 134.1189988  27.9830012 130.6404997 133.8849988
  28.1520012 129.4934997 134.8589988  27.7424473 129.8631060 134.1870855
  25.7890012 130.6584997 127.3489988  24.8390012 130.7634997 127.3999988
  26.1410012 131.4784997 127.6929988  25.7064195 130.7838800 127.4025502
  31.1650012 125.8844997 133.8189988  30.7390012 125.6574997 134.6459988
  31.7450012 125.1464997 133.6369988  31.1851868 125.7535299 133.9075830
  33.3680012 126.8134997 122.8929988  33.7210012 126.4334997 123.6969988
  32.4190012 126.7204997 122.9799988  33.2880918 126.7488956 123.0148532
  33.8230012 130.4364997 136.2889988  33.2220012 129.8814997 135.7929988
  34.1050012 131.1034997 135.6619988  33.7788804 130.4506625 136.1364849
  37.8710012 131.2934997 123.0939988  38.6150012 131.8794997 122.9539988
  37.1770012 131.8614997 123.4269988  37.8789899 131.4505798 123.1198778
  21.9460012 117.6694997 135.6959988  21.0530012 118.0084997 135.6279988
  21.8470012 116.8144997 136.1139988  21.8104164 117.6002588 135.7432235
  34.2340012 125.4864997 125.1199988  33.9560012 124.7584997 125.6759988
  35.1610012 125.6054997 125.3249988  34.3213124 125.4028802 125.2238845
  21.5970012 129.4744997 134.1309988  21.8140012 128.5424997 134.0999988
  21.8430012 129.7484997 135.0139988  21.6599549 129.3840636 134.2461763
  27.4590012 127.9254997 121.3399988  27.6980012 127.1774997 120.7929988
  27.1900012 127.5374997 122.1729988  27.4553675 127.7706638 121.3776865
  26.3960012 127.4954997 123.7959988  26.5420012 126.9754997 124.5859988
  26.3930012 128.4024997 124.1029988  26.4155792 127.5468842 123.9456117
  22.8490012 124.7484997 124.3069988  22.1630012 125.1004997 124.8739988
  23.3710012 125.5114997 124.0599988  22.8256852 124.8998578 124.3512118
  30.6800012 117.4104997 134.5859988  31.3790012 117.4844997 135.2359988
  30.2990012 116.5464997 134.7399988  30.7241767 117.3037624 134.6958322
  31.4650012 117.0624997 125.6829988  31.6850012 117.5344997 124.8799988
  32.0230012 117.4574997 126.3529988  31.5704968 117.1804285 125.6637331
  29.1330012 129.1934997 124.5459988  28.3170012 129.6904997 124.5979988
  29.6630012 129.6684997 123.9059988  29.0929161 129.3257722 124.4665956
  28.6650012 118.7904997 126.5179988  29.4770012 119.2954997 126.5639988
  28.4200012 118.6454997 127.4319988  28.7430520 118.8400375 126.6478517
  29.2000012 119.7764997 135.7019988  29.3190012 120.3504997 136.4599988
  29.8560012 119.0884997 135.8169988  29.3049025 119.7619858 135.8211321
  29.5480012 115.8714997 127.4559988  29.2020012 116.4894997 128.0999988
  30.2070012 116.3724997 126.9739988  29.5896968 116.0236278 127.4789383
  26.4720012 130.2374997 124.5269988  26.6320012 131.0364997 124.0269988
  26.2740012 130.5434997 125.4119988  26.4671637 130.3884020 124.5781144
  25.2060012 116.9344997 124.1429988  25.1230012 117.8234997 124.4899988
  26.0960012 116.6694997 124.3749988  25.3149469 117.0201430 124.2217626
  35.4050012 117.6834997 136.5369988  34.4880012 117.9464997 136.4499988
  35.7400012 117.6804997 135.6409988  35.3248613 117.7190761 136.4038837
  34.0070012 121.4344997 130.6329988  33.2090012 121.0194997 130.3049988
  34.4520012 120.7434997 131.1239988  33.9579885 121.2843543 130.6544889
  23.4650012 127.3624997 123.2039988  24.0570012 128.0614997 123.4799988
  23.9240012 126.9294997 122.4839988  23.6081142 127.3997049 123.1444830
  21.7810012 120.0264997 122.3199988  21.7360012 120.9654997 122.4979988
  20.8930012 119.7904997 122.0499988  21.6548574 120.1231892 122.3078912
  35.0930012 130.6904997 132.2559988  34.9380012 131.3684997 131.5979988
  36.0260012 130.7624997 132.4589988  35.1978657 130.7929546 132.1934360
  22.5890012 114.8084997 130.9929988  22.3600012 114.8674997 130.0649988
  22.1460012 114.0164997 131.2989988  22.4978530 114.7095753 130.9074786
  21.5190012 128.7484997 127.1529988  20.6870012 129.2214997 127.1799988
  22.0650012 129.2584997 126.5549988  21.4790352 128.8821332 127.0758463
  20.8070012 131.3614997 138.4829988  21.3480012 131.1444997 139.2429988
  20.3260012 130.5554997 138.2929988  20.8159951 131.2229270 138.5612576
  25.4050012 130.2804997 140.1029988  26.1720012 129.8214997 140.4439988
  25.3830012 130.0544997 139.1739988  25.5071275 130.1870186 140.0240101
  29.4970012 129.7884997 121.4789988  28.8530012 129.1574997 121.7999988
  30.2590012 129.2574997 121.2469988  29.5118077 129.6302920 121.4916011
  31.9820012 128.6604997 138.8329988  31.6310012 127.8044997 139.0759988
  32.7080012 128.8034997 139.4399988  32.0320769 128.5625636 138.9483619
  34.1010012 129.6054997 121.7119988  34.3840012 128.8114997 122.1649988
  34.8410012 129.8384997 121.1519988  34.2398006 129.5283376 121.6982715
  20.7140012 125.1714997 139.4369988  20.8580012 124.2694997 139.1509988
  19.9420012 125.4574997 138.9499988  20.6292753 125.0866816 139.3319505
  25.0560012 125.5154997 121.5699988  25.1200012 124.7214997 122.1009988
  25.7090012 125.3964997 120.8799988  25.1530241 125.3907148 121.5494317
  27.3700012 125.1414997 138.8699988  27.0410012 125.4124997 138.0129988
  27.5220012 124.2004997 138.7829988  27.3454809 125.0513862 138.7408244
  30.4080012 126.5624997 121.3059988  30.1390012 126.7424997 122.2069988
  30.2020012 125.6364997 121.1739988  30.3433427 126.4620261 121.4115073
  33.1040012 125.0574997 136.2529988  33.8500012 125.6454997 136.1339988
  32.3470012 125.6394997 136.3169988  33.1037820 125.2167143 136.2453590
  21.5470012 122.3714997 138.8569988  21.9550012 121.5144997 138.7359988
  21.2870012 122.3864997 139.7779988  21.5677568 122.2560807 138.9649588
  26.2050012 123.4874997 123.8759988  25.7450012 123.0034997 124.5619988
  26.4600012 122.8194997 123.2399988  26.1764902 123.3308731 123.8839334
  25.4940012 121.3804997 136.2319988  24.8760012 122.0554997 136.5119988
  25.8380012 121.7014997 135.3979988  25.4559132 121.5162411 136.1576262
  27.2760012 121.7304997 122.1379988  27.0960012 121.5764997 121.2109988
  28.2260012 121.8384997 122.1829988  27.3797776 121.7240175 122.0171843
  30.5140012 123.8524997 139.5089988  31.4670012 123.9354997 139.4819988
  30.3530012 123.1404997 140.1289988  30.6226426 123.7676746 139.5890578
  36.6660012 124.0854997 121.5839988  36.3920012 123.6604997 120.7709988
  36.7050012 125.0164997 121.3669988  36.6337699 124.1532484 121.4433610
  25.8330012 118.7354997 137.3139988  25.9830012 118.0064997 136.7119988
  25.8360012 119.5124997 136.7549988  25.8539302 118.7407851 137.1560692
  26.2460012 117.1054997 134.8069988  26.7820012 117.5564997 134.1549988
  25.3940012 116.9974997 134.3839988  26.2042178 117.1526390 134.6605756
  27.8280012 122.5444997 135.0459988  28.5780012 122.3884997 134.4729988
  27.4890012 123.3964997 134.7709988  27.8848921 122.6382968 134.9303561
  32.2430012 120.3594997 140.0749988  32.4360012 119.4284997 139.9629988
  33.1010012 120.7844997 140.0639988  32.3852934 120.2896531 140.0582031
  33.5600012 123.1484997 138.1519988  33.2790012 123.8574997 137.5739988
  34.5030012 123.0754997 138.0009988  33.6489291 123.2356711 138.0524967
  24.3120012 119.9334997 139.2259988  23.5450012 119.4014997 139.0149988
  24.9910012 119.6234997 138.6259988  24.2987877 119.8188300 139.1160716
  27.0520012 114.5614997 135.2379988  26.9530012 115.5084997 135.1329988
  26.3090012 114.1894997 134.7619988  26.9381184 114.6405863 135.1593621
  28.3160012 118.8834997 138.8019988  28.0800012 118.6634997 139.7029988
  27.5320012 118.6764997 138.2919988  28.1778504 118.8254586 138.8563431
  31.0310012 118.0104997 137.8769988  30.0840012 118.0424997 138.0099988
  31.3440012 117.3854997 138.5309988  30.9436707 117.9303998 137.9836060
  32.6650012 116.6444997 139.8829988  32.5690012 115.6924997 139.8769988
  32.3440012 116.9134997 140.7429988  32.6084070 116.5504035 139.9985441
  22.4920012 117.8544997 138.9299988  22.7040012 117.1474997 138.3199988
  22.3810012 117.4164997 139.7739988  22.5059721 117.6987084 138.9606843
  27.2730012 113.8554997 137.9089988  27.9850012 113.2154997 137.8949988
  27.1720012 114.1224997 136.9959988  27.3568066 113.8040079 137.7835677
  27.6270012 115.5384997 139.9629988  27.4950012 115.0624997 139.1429988
  27.0280012 116.2824997 139.9079988  27.5279071 115.5739618 139.8432886
  27.1730012 132.4214997 123.1389988  28.1060012 132.5794997 123.2829988
  26.9090012 133.0964997 122.5149988  27.2649888 132.5344510 123.0742842
  20.7420012 127.0574997 122.6219988  21.6560012 127.1364997 122.8959988
  20.7490012 126.3704997 121.9559988  20.8681131 126.9753961 122.5694393
  19.3910012 132.4504997 127.6999988  18.7440012 131.9884997 127.1669988
  19.7450012 131.7784997 128.2819988  19.3503849 132.2964723 127.7057959
  20.2610012 130.5314997 129.5039988  19.9260012 129.6514997 129.6759988
  20.4830012 130.8764997 130.3689988  20.2451783 130.4577500 129.6444208
  37.8090012 131.3404997 132.4849988  37.7880012 131.5254997 133.4239988
  38.5000012 131.9094997 132.1439988  37.8994618 131.4426606 132.5673864
  37.3730012 130.9084997 135.4069988  36.8850012 130.1724997 135.0349988
  37.9220012 130.5144997 136.0849988  37.3804820 130.7545889 135.4477813
  35.8230012 126.6974997 140.0449988  34.9570012 126.5924997 140.4389988
  36.2000012 127.4564997 140.4909988  35.7553308 126.7856900 140.1592393
  37.1240012 124.9544997 125.5589988  37.9740012 125.3754997 125.6859988
  37.1300012 124.2144997 126.1659988  37.2411372 124.9120803 125.6584344
  37.5190012 123.0074997 127.3819988  36.7920012 122.5284997 127.7799988
  38.1000012 123.2134997 128.1149988  37.4980473 122.9698103 127.5354528
  37.2780012 125.7924997 132.3299988  38.1110012 125.4144997 132.0499988
  37.3900012 126.7354997 132.2109988  37.4072647 125.8682218 132.2755487
  35.7640012 128.6704997 134.6369988  35.1170012 128.9954997 135.2629988
  35.2470012 128.2304997 133.9629988  35.6054029 128.6555004 134.6315827
  37.7870012 122.9084997 123.7739988  37.2650012 123.2654997 123.0549988
  37.7540012 123.5834997 124.4519988  37.7111634 123.0485413 123.7673145
  36.1360012 120.1484997 122.3239988  36.2320012 120.8154997 121.6439988
  35.9960012 119.3324997 121.8429988  36.1302272 120.1295655 122.1658347
  35.3050012 121.5284997 127.9449988  35.1550012 120.5834997 127.9249988
  34.9520012 121.8094997 128.7889988  35.2367448 121.4371481 128.0563705
  20.3410012 123.6064997 131.9559988  20.5250012 123.5244997 131.0199988
  21.1900012 123.4824997 132.3789988  20.4810151 123.5785073 131.8851451
  36.1620012 123.4984997 137.5839988  36.7450012 122.7644997 137.7759988
  36.7260012 124.2704997 137.6309988  36.3179769 123.5024227 137.6166159
  37.6580012 121.4014997 138.2689988  36.7950012 121.0224997 138.1029988
  38.2630012 120.6624997 138.1939988  37.6216119 121.2498268 138.2361528
  35.3830012 117.5564997 121.4419988  35.9940012 117.1854997 122.0789988
  34.5470012 117.1354997 121.6379988  35.3535032 117.4487554 121.5557035
  35.0160012 119.1114997 126.4079988  35.2960012 118.2044997 126.5319988
  35.7750012 119.5454997 126.0189988  35.1569277 119.0460942 126.3723682
  35.6280012 119.6924997 131.8439988  36.5610012 119.9044997 131.8089988
  35.3930012 119.7944997 132.7659988  35.7239244 119.7353100 131.9638892
  35.6570012 120.4294997 134.6199988  34.8140012 120.6974997 134.9859988
  36.0990012 121.2514997 134.4089988  35.6014158 120.5773291 134.6415491
  19.9380012 118.8774997 138.0969988  20.8580012 118.7554997 138.3329988
  19.4890012 118.1274997 138.4859988  20.0031580 118.7593727 138.1819006
  37.9400012 114.4094997 139.9729988  38.2900012 113.7554997 139.3679988
  38.0870012 115.2464997 139.5329988  38.0077887 114.4331548 139.8306858
  35.6290012 116.3744997 126.4559988  35.8120012 115.9254997 127.2819988
  35.0300012 115.7894997 125.9929988  35.5730202 116.2339975 126.5063275
  21.1590012 117.1894997 130.9879988  21.6050012 116.3974997 131.2899988
  21.6260012 117.9054997 131.4179988  21.2830831 117.1780685 131.0874006
  19.4630012 120.1884997 132.0569988  19.9550012 119.9674997 131.2659988
  19.8260012 121.0294997 132.3379988  19.5793126 120.2718357 131.9867531
  37.4600012 116.5184997 138.3219988  36.5420012 116.7894997 138.2869988
  37.5830012 115.9834997 137.5379988  37.3509729 116.4832508 138.2111923
  37.4960012 116.4414997 122.9839988  37.9080012 115.7204997 122.5089988
  38.1780012 117.1114997 123.0429988  37.6445885 116.4332368 122.9268915
  19.7770012 116.4464997 126.1109988  18.8520012 116.6554997 125.9819988
  20.2310012 116.9304997 125.4209988  19.7117292 116.5405343 126.0000720
  34.5480012 131.4304997 128.0569988  35.2000012 131.0834997 127.4489988
  35.0580012 131.9194997 128.7029988  34.7062637 131.4490597 128.0610236
  19.7410012 115.1844997 134.4549988  19.0760012 114.9384997 135.0989988
  19.2980012 115.8064997 133.8779988  19.5901318 115.2349410 134.4650898
  21.9330012 128.3594997 138.5999988  21.1120012 128.5344997 138.1389988
  21.6800012 128.2864997 139.5199988  21.7865585 128.3735544 138.6613561
  24.8870012 129.3344997 134.8579988  24.4620012 130.1434997 134.5759988
  25.7910012 129.4194997 134.5559988  24.9509975 129.4569300 134.7784816
  29.1980012 130.7334997 137.8179988  29.3830012 130.3994997 138.6959988
  30.0440012 131.0424997 137.4959988  29.3377539 130.7296047 137.8945605
  31.5430012 132.0194997 137.0619988  32.2200012 131.3864997 136.8219988
  31.8650012 132.4204997 137.8689988  31.6791637 131.9871154 137.1382793
  36.4600012 114.6084997 136.1409988  35.6480012 114.9334997 135.7539988
  36.6930012 113.8484997 135.6079988  36.3802203 114.5502758 136.0158880
  22.2890012 132.5904997 134.9059988  21.5680012 133.0304997 134.4549988
  21.9230012 132.3394997 135.7539988  22.1409651 132.6167242 134.9589640
  24.7560012 132.1904997 133.9359988  23.8910012 132.2624997 134.3399988
  24.7010012 132.7374997 133.1519988  24.6302085 132.2742685 133.8853362
  29.4660012 132.0784997 133.1109988  29.0100012 132.6074997 132.4569988
  29.6290012 132.6814997 133.8359988  29.4256068 132.2324607 133.1194838
  31.7940012 130.9564997 134.0559988  30.8890012 131.1214997 133.7899988
  32.2230012 131.8094997 133.9909988  31.7281324 131.0944339 134.0107976
  34.3980012 132.5264997 134.3509988  34.2160012 133.4424997 134.1409988
  34.5750012 132.1164997 133.5049988  34.3970210 132.5964822 134.2077885
  21.7030012 131.2134997 131.8159988  21.6850012 130.7884997 132.6729988
  22.5080012 130.8954997 131.4069988  21.8093529 131.1123013 131.8780946
  23.8450012 129.9234997 130.4709988  23.6260012 129.0074997 130.6409988
  24.6690012 130.0634997 130.9369988  23.9264420 129.8170520 130.5572773
  26.3820012 130.3934997 131.3199988  26.5950012 129.5054997 131.0329988
  26.4460012 130.3594997 132.2739988  26.4198231 130.2673102 131.4097397
  29.8900012 116.0574997 130.4639988  29.2160012 115.4284997 130.7199988
  30.4540012 115.5734997 129.8609988  29.8739230 115.9058744 130.4175340
  35.0330012 114.1654997 130.5769988  35.6370012 114.7124997 130.0749988
  34.1630012 114.4844997 130.3359988  34.9981208 114.2835137 130.4756886
  36.7600012 115.3034997 128.9099988  37.3720012 114.7894997 128.3829988
  37.1420012 116.1814997 128.9329988  36.8953371 115.3517866 128.8410041
  22.2170012 114.6914997 128.2859988  21.4400012 114.4574997 127.7789988
  22.7470012 113.8944997 128.2949988  22.1822330 114.5516988 128.2177742
  21.0530012 114.4894997 124.0899988  21.4920012 115.1004997 123.4979988
  20.4200012 115.0274997 124.5639988  21.0274514 114.6459257 124.0730930
  26.7960012 114.6184997 128.0999988  27.6710012 115.0064997 128.0699988
  26.6600012 114.4034997 129.0219988  26.8973695 114.6425184 128.2206440
  32.3530012 114.6484997 129.7489988  32.4290012 114.7434997 128.7989988
  32.0780012 113.7404997 129.8779988  32.3262321 114.5387867 129.6365079
  33.7060012 114.6744997 125.4409988  33.0040012 115.2894997 125.2309988
  33.2620012 113.8364997 125.5719988  33.5496450 114.6455639 125.4299000
  20.9540012 130.4374997 124.9869988  20.2690012 130.3994997 124.3199988
  20.9580012 131.3504997 125.2759988  20.8606998 130.5556733 124.9346771
  22.9140012 116.4054997 122.5319988  23.4060012 115.7754997 122.0049988
  23.5380012 116.7014997 123.1949988  23.0655688 116.3593804 122.5495482
  27.9400012 116.6984997 124.9889988  28.1180012 116.0524997 125.6719988
  27.8870012 117.5324997 125.4559988  27.9571999 116.7228009 125.1455917
  29.8190012 131.6474997 123.3849988  30.6850012 132.0134997 123.2069988
  29.5720012 131.2074997 122.5709988  29.9042392 131.6381756 123.2506289
  36.5280012 131.2104997 126.0639988  36.3330012 130.4624997 125.4989988
  36.4890012 131.9684997 125.4809988  36.4960380 131.2106099 125.9078384
  22.1750012 115.2054997 137.8039988  21.8090012 114.4404997 138.2459988
  23.0880012 115.2344997 138.0899988  22.2482736 115.1045640 137.9032502
  24.1480012 114.5564997 139.3399988  25.0460012 114.2824997 139.1549988
  23.7610012 113.8134997 139.8039988  24.2186612 114.4185914 139.3773643
  22.7720012 131.3574997 122.0129988  22.5050012 131.6444997 122.8859988
  23.5440012 130.8114997 122.1649988  22.8397488 131.3230294 122.1531050
  32.5690012 113.8884997 139.5219988  32.6460012 113.4624997 140.3759988
  33.4630012 113.9024997 139.1789988  32.7003428 113.8320879 139.5925310
  35.7450012 129.9614997 138.2139988  34.9630012 129.7754997 137.6939988
  35.6730012 130.8904997 138.4319988  35.6282274 130.0616643 138.1723018
  50.1510012 123.8474997 128.2449988  50.2400012 124.7914997 128.1129988
  49.5130012 123.5724997 127.5869988  50.0769081 123.9394830 128.1379614
  49.0840012 123.1024997 131.6639988  49.0460012 122.4564997 132.3689988
  48.7620012 122.6364997 130.8929988  49.0352333 122.9509408 131.6562978
  41.4530012 122.7174997 133.2569988  41.4940012 122.0914997 133.9799988
  42.1560012 123.3414997 133.4389988  41.5536363 122.7161196 133.3806044
  52.7900012 126.0414997 129.9649988  52.3500012 125.3214997 130.4159988
  52.7770012 126.7624997 130.5949988  52.7280226 126.0403731 130.1118494
  42.3760012 127.1674997 131.7919988  42.0070012 126.3654997 131.4219988
  43.3170012 126.9984997 131.8379988  42.4527289 127.0350153 131.7476316
  38.9860012 120.8274997 127.1849988  38.5390012 121.6734997 127.1659988
  38.4250012 120.2474997 126.6689988  38.8489900 120.8649916 127.1126801
  39.6970012 122.9894997 129.3099988  39.9100012 122.2194997 129.8379988
  40.4350012 123.0784997 128.7069988  39.8259044 122.8961968 129.3007123
  49.9020012 131.1464997 130.1769988  50.5220012 130.4694997 129.9039988
  49.6940012 130.9284997 131.0859988  49.9586726 131.0244800 130.2624812
  47.4740012 125.5354997 132.0699988  47.7780012 124.8494997 131.4749988
  48.1950012 125.6534997 132.6879988  47.6130671 125.4576304 132.0721816
  56.1370012 117.1364997 132.9309988  56.1860012 117.7464997 133.6659988
  56.5620012 117.5974997 132.2079988  56.2011746 117.2823796 132.9339175
  50.6150012 119.9294997 132.3969988  50.7570012 118.9834997 132.4179988
  50.5080012 120.1364997 131.4689988  50.6199919 119.8278246 132.2743408
  43.7690012 118.0304997 129.6699988  43.8130012 118.8904997 129.2509988
  43.3120012 117.4784997 129.0359988  43.7132240 118.0734422 129.5269864
  51.4920012 118.1614997 128.0709988  52.1380012 117.8324997 128.6949988
  52.0020012 118.6794997 127.4479988  51.6494299 118.1864450 128.0722731
  40.3900012 120.4274997 130.4319988  41.0430012 119.8774997 130.8639988
  40.4140012 120.1534997 129.5149988  40.4826683 120.3151466 130.3672123
  45.5460012 121.9774997 129.6469988  46.1620012 121.4514997 130.1569988
  44.9600012 121.3374997 129.2439988  45.5510810 121.8189208 129.6623173
  56.5280012 118.6144997 135.1659988  55.8400012 119.2724997 135.0709988
  56.5440012 118.4174997 136.1029988  56.4359540 118.6779819 135.2795990
  42.5800012 116.9484997 133.7439988  42.3610012 117.4784997 132.9779988
  41.9120012 117.1754997 134.3909988  42.4597600 117.0516906 133.7266379
  49.9490012 126.4484997 127.2879988  49.6530012 126.1264997 126.4369988
  49.6240012 127.3484997 127.3289988  49.8646371 126.5260215 127.1771801
  45.1490012 124.6244997 134.0309988  44.4090012 125.2224997 134.1349988
  45.8630012 125.1784997 133.7159988  45.1442237 124.7812831 134.0026465
  53.2560012 117.4524997 130.0509988  53.0400012 116.6864997 130.5839988
  53.9110012 117.9244997 130.5639988  53.3150632 117.4115889 130.1932861
  42.1730012 118.8404997 131.6959988  42.7870012 119.4734997 132.0689988
  42.6850012 118.3684997 131.0399988  42.3261981 118.8632267 131.6582908
  43.5560012 126.5884997 134.8179988  43.5510012 127.4684997 134.4399988
  42.7030012 126.5054997 135.2429988  43.4399464 126.6976117 134.8237907
  39.6770012 126.2594997 125.5999988  39.4050012 126.4884997 124.7119988
  39.7230012 127.0974997 126.0609988  39.6459482 126.4041318 125.5406273
  53.3020012 127.8814997 132.3129988  52.3610012 127.9394997 132.4749988
  53.5790012 128.7874997 132.1759988  53.2104679 128.0119443 132.3166815
  53.6030012 116.1674997 133.7309988  52.8670012 116.7784997 133.6929988
  54.2860012 116.5824997 133.2039988  53.5946541 116.3071374 133.6545832
  46.6060012 114.2544997 131.1959988  46.4890012 113.3054997 131.1419988
  45.7510012 114.5864997 131.4699988  46.4744212 114.1695571 131.2256497
  51.5540012 129.6624997 128.9379988  51.9800012 128.9554997 128.4529988
  51.8710012 130.4634997 128.5219988  51.6551683 129.6741017 128.8153680
  52.7140012 127.5634997 127.4469988  52.4560012 126.8734997 126.8359988
  52.7850012 127.1204997 128.2929988  52.6882856 127.4092124 127.4776885
  54.4000012 126.1294997 135.9239988  54.5400012 125.5384997 135.1849988
  54.5670012 127.0024997 135.5679988  54.4417411 126.1665428 135.7746894
  48.8730012 123.0914997 125.6969988  48.1610012 123.6264997 125.3449988
  49.5640012 123.1474997 125.0369988  48.8690132 123.1722543 125.5596289
  48.9260012 121.5494997 122.7359988  49.6270012 121.5714997 123.3869988
  49.2290012 120.9214997 122.0789988  49.0628133 121.4677070 122.7363369
  56.2420012 122.4694997 133.9899988  55.5890012 123.1644997 134.0799988
  56.7070012 122.6794997 133.1809988  56.2155274 122.5930643 133.8928462
  52.2780012 123.3014997 126.6489988  51.5460012 123.5294997 127.2219988
  52.7260012 122.5874997 127.1029988  52.2382725 123.2362145 126.7888816
  52.1760012 121.4754997 135.7159988  52.2560012 122.2384997 136.2879988
  51.5740012 121.7544997 135.0259988  52.1055756 121.6177134 135.7010589
  43.9240012 123.9314997 128.5309988  43.5930012 123.5614997 127.7129988
  44.5120012 123.2614997 128.8779988  43.9581873 123.7901156 128.4658102
  45.2900012 127.3594997 131.2119988  45.1960012 126.7814997 130.4559988
  46.0200012 126.9884997 131.7089988  45.3757387 127.2301663 131.1755342
  44.2900012 122.7004997 132.1649988  44.8560012 122.8214997 131.4019988
  44.6090012 123.3374997 132.8029988  44.4105474 122.8032219 132.1469862
  50.5990012 128.2034997 132.8989988  50.3590012 128.8654997 133.5469988
  50.4010012 127.3694997 133.3239988  50.5393808 128.1813134 133.0451524
  45.1700012 127.0994997 136.8819988  44.8590012 127.8814997 137.3369988
  44.5200012 126.9464997 136.1959988  45.0395558 127.1859105 136.8515871
  51.1490012 122.4634997 124.3339988  51.7290012 122.6134997 125.0809988
  51.5630012 122.9344997 123.6099988  51.2842997 122.5476578 124.3384058
  42.0900012 123.2974997 136.1099988  42.1610012 123.9484997 136.8089988
  41.2000012 123.4004997 135.7749988  41.9793005 123.4005427 136.1603495
  48.8760012 129.2004997 127.7689988  49.3500012 129.4954997 128.5459988
  48.3130012 129.9384997 127.5359988  48.8648184 129.3407247 127.8439628
  43.4100012 129.1714997 137.6449988  43.4170012 129.0354997 136.6979988
  42.4940012 129.0534997 137.8969988  43.2871714 129.1369430 137.5494666
  54.8480012 114.2134997 124.1469988  53.9480012 114.3524997 124.4419988
  55.1000012 115.0444997 123.7449988  54.7588702 114.3449074 124.1330205
  42.9140012 123.0014997 126.1199988  42.6220012 123.7694997 125.6299988
  42.2400012 122.3414997 125.9579988  42.7828111 123.0175587 126.0308978
  56.0370012 128.5794997 122.5229988  56.1110012 129.5184997 122.6939988
  56.9430012 128.2744997 122.4669988  56.1695100 128.6666722 122.5388119
  39.0070012 125.3644997 134.9349988  38.5060012 125.3364997 134.1199988
  39.0120012 124.4584997 135.2449988  38.9390944 125.2382396 134.8653226
  38.7570012 128.1444997 131.8189988  39.7030012 128.0004997 131.7999988
  38.6450012 128.9284997 132.3559988  38.8712727 128.2308046 131.8890072
  56.9550012 128.8104997 137.5019988  56.9060012 127.8554997 137.4649988
  56.1280012 129.0784997 137.9029988  56.8364940 128.7158998 137.5511375
  47.9340012 128.3844997 136.3779988  48.0210012 129.2104997 136.8529988
  47.0700012 128.0544997 136.6269988  47.8291964 128.4529878 136.4766549
  48.3480012 132.1564997 126.1839988  48.2730012 132.0354997 125.2369988
  48.3810012 133.1064997 126.3019988  48.3422068 132.2682646 126.0704967
  42.0010012 130.9454997 127.9649988  42.1540012 130.5974997 128.8429988
  41.1510012 130.5894997 127.7099988  41.9069166 130.8496216 128.0508079
  51.4500012 131.3104997 123.1859988  51.8250012 130.5664997 122.7149988
  51.4540012 131.0404997 124.1049988  51.5019125 131.1720986 123.2456483
  51.1190012 131.2364997 125.9349988  50.1830012 131.3364997 126.1139988
  51.3990012 130.5274997 126.5139988  51.0289553 131.1543406 126.0377087
  54.1070012 120.3034997 137.9819988  53.7000012 120.7844997 137.2609988
  54.1480012 119.3984997 137.6739988  54.0568437 120.2469374 137.8416683
  41.2560012 126.6874997 135.9789988  41.4720012 126.3264997 136.8379988
  40.4010012 126.3134997 135.7689988  41.1699292 126.5874111 136.0683386
  43.8750012 115.1574997 131.9739988  43.0130012 115.0704997 131.5659988
  43.8520012 116.0134997 132.4019988  43.7540409 115.2612883 131.9760589
  48.5380012 114.8794997 135.3489988  48.9580012 114.4644997 136.1019988
  47.6050012 114.7014997 135.4659988  48.4693644 114.7985900 135.4679539
  51.8640012 118.6354997 136.2019988  51.3500012 118.5094997 136.9999988
  51.7090012 119.5474997 135.9579988  51.7726852 118.7416132 136.2782158
  52.6270012 123.4964997 121.9639988  52.6690012 123.2734997 121.0339988
  53.4760012 123.8954997 122.1529988  52.7475280 123.5199438 121.8623554
  48.1990012 117.3724997 122.6339988  47.9460012 117.3914997 123.5569988
  47.9430012 116.5004997 122.3319988  48.1297481 117.2572558 122.7196175
  43.9660012 120.1234997 133.0689988  43.3240012 120.0824997 133.7779988
  44.0030012 121.0494997 132.8309988  43.8830664 120.2431430 133.1339219
  43.9630012 120.3444997 127.9809988  43.0700012 120.0034997 127.9219988
  44.4130012 119.9674997 127.2249988  43.9018130 120.2469631 127.8707702
  49.4980012 120.7604997 126.7979988  49.0890012 121.5754997 126.5069988
  50.2190012 120.6204997 126.1839988  49.5394537 120.8532018 126.6751342
  48.6000012 120.9354997 138.2859988  48.0380012 120.2314997 138.6069988
  49.4270012 120.8154997 138.7539988  48.6347095 120.8227883 138.3932330
  50.5030012 120.2064997 129.6119988  50.3080012 120.8114997 128.8969988
  50.6840012 119.3724997 129.1779988  50.5007614 120.1766300 129.4554405
  41.7160012 120.4434997 134.9359988  41.6780012 120.8434997 135.8049988
  41.2250012 119.6264997 135.0269988  41.6444684 120.3878069 135.0671059
  45.0820012 117.8174997 121.7349988  44.6510012 117.3724997 122.4649988
  44.3640012 118.1894997 121.2229988  44.9259438 117.8068940 121.7656799
  38.3240012 117.5594997 128.7869988  38.9550012 117.5304997 129.5059988
  38.7730012 117.1344997 128.0559988  38.4710918 117.4980836 128.7866441
  39.5980012 118.3054997 124.2109988  40.0720012 118.8964997 123.6259988
  38.8810012 118.8364997 124.5579988  39.5659341 118.4580867 124.1778836
  49.7670012 121.8444997 134.2829988  50.0900012 121.2134997 133.6399988
  49.3270012 121.3094997 134.9439988  49.7517484 121.6858387 134.2843198
  46.5440012 117.7714997 129.0669988  45.6330012 117.8284997 129.3559988
  47.0500012 117.7114997 129.8779988  46.4876899 117.7711941 129.2161184
  41.3730012 119.4004997 127.8939988  40.4830012 119.5004997 127.5539988
  41.6690012 118.5584997 127.5479988  41.2912823 119.3003546 127.8007213
  45.0260012 119.4004997 125.5509988  45.9570012 119.5294997 125.7289988
  44.8110012 120.0704997 124.9009988  45.1244247 119.5086565 125.4875747
  50.9490012 117.0064997 132.3319988  50.2730012 117.1374997 132.9959988
  50.4640012 116.8514997 131.5209988  50.7907146 117.0035157 132.3134469
  43.7000012 120.5954997 123.1169988  43.1570012 120.2154997 122.4259988
  44.5330012 120.7894997 122.6889988  43.7383631 120.5697125 122.9644501
  54.2370012 132.6784997 138.6079988  54.4370012 133.1024997 137.7739988
  54.8920012 133.0214997 139.2149988  54.3530072 132.7829857 138.5758592
  41.8350012 125.1524997 138.2159988  42.5670012 125.4064997 138.7779988
  41.0550012 125.3564997 138.7319988  41.8297073 125.2148160 138.3626151
  47.8640012 120.5594997 130.9539988  48.4290012 120.0124997 130.4069988
  47.7170012 120.0374997 131.7429988  47.9213380 120.4142259 130.9858695
  42.8660012 116.6954997 127.3729988  42.5490012 115.7934997 127.3369988
  43.6480012 116.6974997 126.8199988  42.9282408 116.5722474 127.2933569
  46.4910012 118.9474997 133.3679988  45.6550012 119.4014997 133.4789988
  47.0150012 119.2234997 134.1199988  46.4475416 119.0468660 133.4848119
  47.0350012 125.1604997 125.0529988  46.2900012 124.6534997 124.7309988
  46.9010012 125.2094997 125.9999988  46.9148776 125.0976940 125.1368647
  54.1850012 124.2934997 133.8399988  54.8270012 124.7504997 133.2959988
  53.3550012 124.4064997 133.3769988  54.1605963 124.3712704 133.7030177
  50.9330012 117.9744997 123.2519988  49.9940012 118.0864997 123.1009988
  51.2300012 118.8314997 123.5589988  50.8447583 118.1055981 123.2728337
  48.5540012 125.3444997 136.2899988  48.2090012 124.9634997 137.0969988
  48.3540012 126.2784997 136.3609988  48.4797527 125.4185135 136.4100689
  51.6510012 119.8414997 124.9129988  52.5430012 119.7044997 125.2319988
  51.7080012 120.6324997 124.3759988  51.7806504 119.9296052 124.8840818
  42.1600012 124.4554997 130.8229988  42.9050012 124.4534997 130.2219988
  42.2380012 123.6324997 131.3039988  42.2724995 124.3438887 130.8058282
  49.1610012 126.6194997 124.0789988  48.8650012 127.4454997 124.4599988
  48.4580012 125.9994997 124.2749988  49.0254914 126.6488199 124.1576443
  39.1680012 122.9164997 136.1379988  39.3910012 122.4984997 136.9699988
  38.5660012 122.3034997 135.7149988  39.1171759 122.7764668 136.1947022
  46.1840012 122.4334997 138.3509988  45.8880012 122.2674997 137.4559988
  47.1160012 122.2134997 138.3399988  46.2694166 122.3810640 138.2270536
  50.8050012 127.8064997 136.2409988  49.9040012 127.9894997 135.9729988
  50.8390012 128.0654997 137.1609988  50.6863139 127.8665849 136.3288099
  56.5360012 120.0514997 124.6079988  55.9820012 119.6554997 123.9359988
  56.6360012 120.9614997 124.3299988  56.4737059 120.1203586 124.4784401
  56.4990012 125.8514997 137.4449988  55.6480012 126.0894997 137.0779988
  57.0900012 125.8344997 136.6919988  56.4622487 125.8818258 137.2928893
  54.8310012 128.8374997 125.0729988  54.4580012 128.0114997 125.3819988
  55.1090012 128.6544997 124.1749988  54.8175222 128.6997430 124.9939473
  51.9920012 123.6454997 132.0939988  51.0630012 123.4134997 132.0669988
  52.4430012 122.8684997 131.7639988  51.9259216 123.5087238 132.0456917
  44.5350012 127.9734997 128.2269988  45.0620012 128.7464997 128.0269988
  43.6550012 128.1984997 127.9249988  44.4882031 128.1097545 128.1587912
  40.2900012 122.8354997 122.8139988  40.9060012 123.4624997 123.1939988
  39.4280012 123.1514997 123.0859988  40.2577698 122.9639430 122.9027183
  45.9620012 125.6364997 127.8029988  45.7210012 126.5614997 127.8449988
  45.2210012 125.1774997 128.1999988  45.8289225 125.7010933 127.8623742
  46.4770012 129.7854997 134.1189988  46.8390012 130.6404997 133.8849988
  47.0080012 129.4934997 134.8589988  46.5984473 129.8631060 134.1870855
  44.6450012 130.6584997 127.3489988  43.6950012 130.7634997 127.3999988
  44.9970012 131.4784997 127.6929988  44.5624195 130.7838800 127.4025502
  50.0210012 125.8844997 133.8189988  49.5950012 125.6574997 134.6459988
  50.6010012 125.1464997 133.6369988  50.0411868 125.7535299 133.9075830
  52.2240012 126.8134997 122.8929988  52.5770012 126.4334997 123.6969988
  51.2750012 126.7204997 122.9799988  52.1440918 126.7488956 123.0148532
  52.6790012 130.4364997 136.2889988  52.0780012 129.8814997 135.7929988
  52.9610012 131.1034997 135.6619988  52.6348804 130.4506625 136.1364849
  56.7270012 131.2934997 123.0939988  57.4710012 131.8794997 122.9539988
  56.0330012 131.8614997 123.4269988  56.7349899 131.4505798 123.1198778
  40.8020012 117.6694997 135.6959988  39.9090012 118.0084997 135.6279988
  40.7030012 116.8144997 136.1139988  40.6664164 117.6002588 135.7432235
  53.0900012 125.4864997 125.1199988  52.8120012 124.7584997 125.6759988
  54.0170012 125.6054997 125.3249988  53.1773124 125.4028802 125.2238845
  40.4530012 129.4744997 134.1309988  40.6700012 128.5424997 134.0999988
  40.6990012 129.7484997 135.0139988  40.5159549 129.3840636 134.2461763
  46.3150012 127.9254997 121.3399988  46.5540012 127.1774997 120.7929988
  46.0460012 127.5374997 122.1729988  46.3113675 127.7706638 121.3776865
  45.2520012 127.4954997 123.7959988  45.3980012 126.9754997 124.5859988
  45.2490012 128.4024997 124.1029988  45.2715792 127.5468842 123.9456117
  41.7050012 124.7484997 124.3069988  41.0190012 125.1004997 124.8739988
  42.2270012 125.5114997 124.0599988  41.6816852 124.8998578 124.3512118
  49.5360012 117.4104997 134.5859988  50.2350012 117.4844997 135.2359988
  49.1550012 116.5464997 134.7399988  49.5801767 117.3037624 134.6958322
  50.3210012 117.0624997 125.6829988  50.5410012 117.5344997 124.8799988
  50.8790012 117.4574997 126.3529988  50.4264968 117.1804285 125.6637331
  47.9890012 129.1934997 124.5459988  47.1730012 129.6904997 124.5979988
  48.5190012 129.6684997 123.9059988  47.9489161 129.3257722 124.4665956
  47.5210012 118.7904997 126.5179988  48.3330012 119.2954997 126.5639988
  47.2760012 118.6454997 127.4319988  47.5990520 118.8400375 126.6478517
  48.0560012 119.7764997 135.7019988  48.1750012 120.3504997 136.4599988
  48.7120012 119.0884997 135.8169988  48.1609025 119.7619858 135.8211321
  48.4040012 115.8714997 127.4559988  48.0580012 116.4894997 128.0999988
  49.0630012 116.3724997 126.9739988  48.4456968 116.0236278 127.4789383
  45.3280012 130.2374997 124.5269988  45.4880012 131.0364997 124.0269988
  45.1300012 130.5434997 125.4119988  45.3231637 130.3884020 124.5781144
  44.0620012 116.9344997 124.1429988  43.9790012 117.8234997 124.4899988
  44.9520012 116.6694997 124.3749988  44.1709469 117.0201430 124.2217626
  54.2610012 117.6834997 136.5369988  53.3440012 117.9464997 136.4499988
  54.5960012 117.6804997 135.6409988  54.1808613 117.7190761 136.4038837
  52.8630012 121.4344997 130.6329988  52.0650012 121.0194997 130.3049988
  53.3080012 120.7434997 131.1239988  52.8139885 121.2843543 130.6544889
  42.3210012 127.3624997 123.2039988  42.9130012 128.0614997 123.4799988
  42.7800012 126.9294997 122.4839988  42.4641142 127.3997049 123.1444830
  40.6370012 120.0264997 122.3199988  40.5920012 120.9654997 122.4979988
  39.7490012 119.7904997 122.0499988  40.5108574 120.1231892 122.3078912
  53.9490012 130.6904997 132.2559988  53.7940012 131.3684997 131.5979988
  54.8820012 130.7624997 132.4589988  54.0538657 130.7929546 132.1934360
  41.4450012 114.8084997 130.9929988  41.2160012 114.8674997 130.0649988
  41.0020012 114.0164997 131.2989988  41.3538530 114.7095753 130.9074786
  40.3750012 128.7484997 127.1529988  39.5430012 129.2214997 127.1799988
  40.9210012 129.2584997 126.5549988  40.3350352 128.8821332 127.0758463
  39.6630012 131.3614997 138.4829988  40.2040012 131.1444997 139.2429988
  39.1820012 130.5554997 138.2929988  39.6719951 131.2229270 138.5612576
  44.2610012 130.2804997 140.1029988  45.0280012 129.8214997 140.4439988
  44.2390012 130.0544997 139.1739988  44.3631275 130.1870186 140.0240101
  48.3530012 129.7884997 121.4789988  47.7090012 129.1574997 121.7999988
  49.1150012 129.2574997 121.2469988  48.3678077 129.6302920 121.4916011
  50.8380012 128.6604997 138.8329988  50.4870012 127.8044997 139.0759988
  51.5640012 128.8034997 139.4399988  50.8880769 128.5625636 138.9483619
  52.9570012 129.6054997 121.7119988  53.2400012 128.8114997 122.1649988
  53.6970012 129.8384997 121.1519988  53.0958006 129.5283376 121.6982715
  39.5700012 125.1714997 139.4369988  39.7140012 124.2694997 139.1509988
  38.7980012 125.4574997 138.9499988  39.4852753 125.0866816 139.3319505
  43.9120012 125.5154997 121.5699988  43.9760012 124.7214997 122.1009988
  44.5650012 125.3964997 120.8799988  44.0090241 125.3907148 121.5494317
  46.2260012 125.1414997 138.8699988  45.8970012 125.4124997 138.0129988
  46.3780012 124.2004997 138.7829988  46.2014809 125.0513862 138.7408244
  49.2640012 126.5624997 121.3059988  48.9950012 126.7424997 122.2069988
  49.0580012 125.6364997 121.1739988  49.1993427 126.4620261 121.4115073
  51.9600012 125.0574997 136.2529988  52.7060012 125.6454997 136.1339988
  51.2030012 125.6394997 136.3169988  51.9597820 125.2167143 136.2453590
  40.4030012 122.3714997 138.8569988  40.8110012 121.5144997 138.7359988
  40.1430012 122.3864997 139.7779988  40.4237568 122.2560807 138.9649588
  45.0610012 123.4874997 123.8759988  44.6010012 123.0034997 124.5619988
  45.3160012 122.8194997 123.2399988  45.0324902 123.3308731 123.8839334
  44.3500012 121.3804997 136.2319988  43.7320012 122.0554997 136.5119988
  44.6940012 121.7014997 135.3979988  44.3119132 121.5162411 136.1576262
  46.1320012 121.7304997 122.1379988  45.9520012 121.5764997 121.2109988
  47.0820012 121.8384997 122.1829988  46.2357776 121.7240175 122.0171843
  49.3700012 123.8524997 139.5089988  50.3230012 123.9354997 139.4819988
  49.2090012 123.1404997 140.1289988  49.4786426 123.7676746 139.5890579
  55.5220012 124.0854997 121.5839988  55.2480012 123.6604997 120.7709988
  55.5610012 125.0164997 121.3669988  55.4897699 124.1532484 121.4433610
  44.6890012 118.7354997 137.3139988  44.8390012 118.0064997 136.7119988
  44.6920012 119.5124997 136.7549988  44.7099302 118.7407851 137.1560692
  45.1020012 117.1054997 134.8069988  45.6380012 117.5564997 134.1549988
  44.2500012 116.9974997 134.3839988  45.0602178 117.1526390 134.6605756
  46.6840012 122.5444997 135.0459988  47.4340012 122.3884997 134.4729988
  46.3450012 123.3964997 134.7709988  46.7408921 122.6382968 134.9303561
  51.0990012 120.3594997 140.0749988  51.2920012 119.4284997 139.9629988
  51.9570012 120.7844997 140.0639988  51.2412934 120.2896531 140.0582031
  52.4160012 123.1484997 138.1519988  52.1350012 123.8574997 137.5739988
  53.3590012 123.0754997 138.0009988  52.5049291 123.2356711 138.0524967
  43.1680012 119.9334997 139.2259988  42.4010012 119.4014997 139.0149988
  43.8470012 119.6234997 138.6259988  43.1547877 119.8188300 139.1160716
  45.9080012 114.5614997 135.2379988  45.8090012 115.5084997 135.1329988
  45.1650012 114.1894997 134.7619988  45.7941184 114.6405863 135.1593621
  47.1720012 118.8834997 138.8019988  46.9360012 118.6634997 139.7029988
  46.3880012 118.6764997 138.2919988  47.0338504 118.8254586 138.8563431
  49.8870012 118.0104997 137.8769988  48.9400012 118.0424997 138.0099988
  50.2000012 117.3854997 138.5309988  49.7996707 117.9303998 137.9836060
  51.5210012 116.6444997 139.8829988  51.4250012 115.6924997 139.8769988
  51.2000012 116.9134997 140.7429988  51.4644070 116.5504035 139.9985441
  41.3480012 117.8544997 138.9299988  41.5600012 117.1474997 138.3199988
  41.2370012 117.4164997 139.7739988  41.3619721 117.6987084 138.9606843
  46.1290012 113.8554997 137.9089988  46.8410012 113.2154997 137.8949988
  46.0280012 114.1224997 136.9959988  46.2128066 113.8040079 137.7835677
  46.4830012 115.5384997 139.9629988  46.3510012 115.0624997 139.1429988
  45.8840012 116.2824997 139.9079988  46.3839071 115.5739618 139.8432886
  46.0290012 132.4214997 123.1389988  46.9620012 132.5794997 123.2829988
  45.7650012 133.0964997 122.5149988  46.1209888 132.5344510 123.0742842
  39.5980012 127.0574997 122.6219988  40.5120012 127.1364997 122.8959988
  39.6050012 126.3704997 121.9559988  39.7241131 126.9753961 122.5694393
  38.2470012 132.4504997 127.6999988  37.6000012 131.9884997 127.1669988
  38.6010012 131.7784997 128.2819988  38.2063849 132.2964723 127.7057959
  39.1170012 130.5314997 129.5039988  38.7820012 129.6514997 129.6759988
  39.3390012 130.8764997 130.3689988  39.1011783 130.4577500 129.6444208
  56.6650012 131.3404997 132.4849988  56.6440012 131.5254997 133.4239988
  57.3560012 131.9094997 132.1439988  56.7554618 131.4426606 132.5673864
  56.2290012 130.9084997 135.4069988  55.7410012 130.1724997 135.0349988
  56.7780012 130.5144997 136.0849988  56.2364820 130.7545889 135.4477813
  54.6790012 126.6974997 140.0449988  53.8130012 126.5924997 140.4389988
  55.0560012 127.4564997 140.4909988  54.6113308 126.7856900 140.1592393
  55.9800012 124.9544997 125.5589988  56.8300012 125.3754997 125.6859988
  55.9860012 124.2144997 126.1659988  56.0971372 124.9120803 125.6584344
  56.3750012 123.0074997 127.3819988  55.6480012 122.5284997 127.7799988
  56.9560012 123.2134997 128.1149988  56.3540473 122.9698103 127.5354528
  56.1340012 125.7924997 132.3299988  56.9670012 125.4144997 132.0499988
  56.2460012 126.7354997 132.2109988  56.2632647 125.8682218 132.2755487
  54.6200012 128.6704997 134.6369988  53.9730012 128.9954997 135.2629988
  54.1030012 128.2304997 133.9629988  54.4614029 128.6555004 134.6315827
  56.6430012 122.9084997 123.7739988  56.1210012 123.2654997 123.0549988
  56.6100012 123.5834997 124.4519988  56.5671634 123.0485413 123.7673145
  54.9920012 120.1484997 122.3239988  55.0880012 120.8154997 121.6439988
  54.8520012 119.3324997 121.8429988  54.9862272 120.1295655 122.1658347
  54.1610012 121.5284997 127.9449988  54.0110012 120.5834997 127.9249988
  53.8080012 121.8094997 128.7889988  54.0927448 121.4371481 128.0563705
  39.1970012 123.6064997 131.9559988  39.3810012 123.5244997 131.0199988
  40.0460012 123.4824997 132.3789988  39.3370151 123.5785073 131.8851451
  55.0180012 123.4984997 137.5839988  55.6010012 122.7644997 137.7759988
  55.5820012 124.2704997 137.6309988  55.1739769 123.5024227 137.6166159
  56.5140012 121.4014997 138.2689988  55.6510012 121.0224997 138.1029988
  57.1190012 120.6624997 138.1939988  56.4776119 121.2498268 138.2361528
  54.2390012 117.5564997 121.4419988  54.8500012 117.1854997 122.0789988
  53.4030012 117.1354997 121.6379988  54.2095032 117.4487554 121.5557035
  53.8720012 119.1114997 126.4079988  54.1520012 118.2044997 126.5319988
  54.6310012 119.5454997 126.0189988  54.0129277 119.0460942 126.3723682
  54.4840012 119.6924997 131.8439988  55.4170012 119.9044997 131.8089988
  54.2490012 119.7944997 132.7659988  54.5799244 119.7353100 131.9638892
  54.5130012 120.4294997 134.6199988  53.6700012 120.6974997 134.9859988
  54.9550012 121.2514997 134.4089988  54.4574158 120.5773291 134.6415491
  38.7940012 118.8774997 138.0969988  39.7140012 118.7554997 138.3329988
  38.3450012 118.1274997 138.4859988  38.8591580 118.7593727 138.1819006
  56.7960012 114.4094997 139.9729988  57.1460012 113.7554997 139.3679988
  56.9430012 115.2464997 139.5329988  56.8637887 114.4331548 139.8306858
  54.4850012 116.3744997 126.4559988  54.6680012 115.9254997 127.2819988
  53.8860012 115.7894997 125.9929988  54.4290202 116.2339975 126.5063275
  40.0150012 117.1894997 130.9879988  40.4610012 116.3974997 131.2899988
  40.4820012 117.9054997 131.4179988  40.1390831 117.1780685 131.0874006
  38.3190012 120.1884997 132.0569988  38.8110012 119.9674997 131.2659988
  38.6820012 121.0294997 132.3379988  38.4353126 120.2718357 131.9867531
  56.3160012 116.5184997 138.3219988  55.3980012 116.7894997 138.2869988
  56.4390012 115.9834997 137.5379988  56.2069729 116.4832508 138.2111923
  56.3520012 116.4414997 122.9839988  56.7640012 115.7204997 122.5089988
  57.0340012 117.1114997 123.0429988  56.5005885 116.4332368 122.9268915
  38.6330012 116.4464997 126.1109988  37.7080012 116.6554997 125.9819988
  39.0870012 116.9304997 125.4209988  38.5677292 116.5405343 126.0000720
  53.4040012 131.4304997 128.0569988  54.0560012 131.0834997 127.4489988
  53.9140012 131.9194997 128.7029988  53.5622637 131.4490597 128.0610236
  38.5970012 115.1844997 134.4549988  37.9320012 114.9384997 135.0989988
  38.1540012 115.8064997 133.8779988  38.4461318 115.2349410 134.4650898
  40.7890012 128.3594997 138.5999988  39.9680012 128.5344997 138.1389988
  40.5360012 128.2864997 139.5199988  40.6425585 128.3735544 138.6613561
  43.7430012 129.3344997 134.8579988  43.3180012 130.1434997 134.5759988
  44.6470012 129.4194997 134.5559988  43.8069975 129.4569300 134.7784816
  48.0540012 130.7334997 137.8179988  48.2390012 130.3994997 138.6959988
  48.9000012 131.0424997 137.4959988  48.1937539 130.7296047 137.8945605
  50.3990012 132.0194997 137.0619988  51.0760012 131.3864997 136.8219988
  50.7210012 132.4204997 137.8689988  50.5351637 131.9871154 137.1382793
  55.3160012 114.6084997 136.1409988  54.5040012 114.9334997 135.7539988
  55.5490012 113.8484997 135.6079988  55.2362203 114.5502758 136.0158880
  41.1450012 132.5904997 134.9059988  40.4240012 133.0304997 134.4549988
  40.7790012 132.3394997 135.7539988  40.9969651 132.6167242 134.9589640
  43.6120012 132.1904997 133.9359988  42.7470012 132.2624997 134.3399988
  43.5570012 132.7374997 133.1519988  43.4862085 132.2742685 133.8853362
  48.3220012 132.0784997 133.1109988  47.8660012 132.6074997 132.4569988
  48.4850012 132.6814997 133.8359988  48.2816068 132.2324607 133.1194838
  50.6500012 130.9564997 134.0559988  49.7450012 131.1214997 133.7899988
  51.0790012 131.8094997 133.9909988  50.5841324 131.0944339 134.0107976
  53.2540012 132.5264997 134.3509988  53.0720012 133.4424997 134.1409988
  53.4310012 132.1164997 133.5049988  53.2530210 132.5964822 134.2077885
  40.5590012 131.2134997 131.8159988  40.5410012 130.7884997 132.6729988
  41.3640012 130.8954997 131.4069988  40.6653529 131.1123013 131.8780946
  42.7010012 129.9234997 130.4709988  42.4820012 129.0074997 130.6409988
  43.5250012 130.0634997 130.9369988  42.7824420 129.8170520 130.5572774
  45.2380012 130.3934997 131.3199988  45.4510012 129.5054997 131.0329988
  45.3020012 130.3594997 132.2739988  45.2758232 130.2673102 131.4097397
  48.7460012 116.0574997 130.4639988  48.0720012 115.4284997 130.7199988
  49.3100012 115.5734997 129.8609988  48.7299230 115.9058744 130.4175340
  53.8890012 114.1654997 130.5769988  54.4930012 114.7124997 130.0749988
  53.0190012 114.4844997 130.3359988  53.8541208 114.2835137 130.4756886
  55.6160012 115.3034997 128.9099988  56.2280012 114.7894997 128.3829988
  55.9980012 116.1814997 128.9329988  55.7513371 115.3517866 128.8410041
  41.0730012 114.6914997 128.2859988  40.2960012 114.4574997 127.7789988
  41.6030012 113.8944997 128.2949988  41.0382330 114.5516988 128.2177742
  39.9090012 114.4894997 124.0899988  40.3480012 115.1004997 123.4979988
  39.2760012 115.0274997 124.5639988  39.8834514 114.6459257 124.0730930
  45.6520012 114.6184997 128.0999988  46.5270012 115.0064997 128.0699988
  45.5160012 114.4034997 129.0219988  45.7533695 114.6425184 128.2206440
  51.2090012 114.6484997 129.7489988  51.2850012 114.7434997 128.7989988
  50.9340012 113.7404997 129.8779988  51.1822321 114.5387867 129.6365079
  52.5620012 114.6744997 125.4409988  51.8600012 115.2894997 125.2309988
  52.1180012 113.8364997 125.5719988  52.4056450 114.6455639 125.4299000
  39.8100012 130.4374997 124.9869988  39.1250012 130.3994997 124.3199988
  39.8140012 131.3504997 125.2759988  39.7166998 130.5556733 124.9346771
  41.7700012 116.4054997 122.5319988  42.2620012 115.7754997 122.0049988
  42.3940012 116.7014997 123.1949988  41.9215688 116.3593804 122.5495482
  46.7960012 116.6984997 124.9889988  46.9740012 116.0524997 125.6719988
  46.7430012 117.5324997 125.4559988  46.8131999 116.7228009 125.1455917
  48.6750012 131.6474997 123.3849988  49.5410012 132.0134997 123.2069988
  48.4280012 131.2074997 122.5709988  48.7602392 131.6381756 123.2506289
  55.3840012 131.2104997 126.0639988  55.1890012 130.4624997 125.4989988
  55.3450012 131.9684997 125.4809988  55.3520380 131.2106099 125.9078384
  41.0310012 115.2054997 137.8039988  40.6650012 114.4404997 138.2459988
  41.9440012 115.2344997 138.0899988  41.1042736 115.1045640 137.9032502
  43.0040012 114.5564997 139.3399988  43.9020012 114.2824997 139.1549988
  42.6170012 113.8134997 139.8039988  43.0746612 114.4185914 139.3773643
  41.6280012 131.3574997 122.0129988  41.3610012 131.6444997 122.8859988
  42.4000012 130.8114997 122.1649988  41.6957488 131.3230294 122.1531050
  51.4250012 113.8884997 139.5219988  51.5020012 113.4624997 140.3759988
  52.3190012 113.9024997 139.1789988  51.5563428 113.8320879 139.5925310
  54.6010012 129.9614997 138.2139988  53.8190012 129.7754997 137.6939988
  54.5290012 130.8904997 138.4319988  54.4842274 130.0616643 138.1723018
  69.0070012 123.8474997 128.2449988  69.0960012 124.7914997 128.1129988
  68.3690012 123.5724997 127.5869988  68.9329081 123.9394830 128.1379614
  67.9400012 123.1024997 131.6639988  67.9020012 122.4564997 132.3689988
  67.6180012 122.6364997 130.8929988  67.8912333 122.9509408 131.6562978
  60.3090012 122.7174997 133.2569988  60.3500012 122.0914997 133.9799988
  61.0120012 123.3414997 133.4389988  60.4096363 122.7161196 133.3806044
  71.6460012 126.0414997 129.9649988  71.2060012 125.3214997 130.4159988
  71.6330012 126.7624997 130.5949988  71.5840226 126.0403731 130.1118494
  61.2320012 127.1674997 131.7919988  60.8630012 126.3654997 131.4219988
  62.1730012 126.9984997 131.8379988  61.3087289 127.0350153 131.7476316
  57.8420012 120.8274997 127.1849988  57.3950012 121.6734997 127.1659988
  57.2810012 120.2474997 126.6689988  57.7049900 120.8649916 127.1126801
  58.5530012 122.9894997 129.3099988  58.7660012 122.2194997 129.8379988
  59.2910012 123.0784997 128.7069988  58.6819044 122.8961968 129.3007123
  68.7580012 131.1464997 130.1769988  69.3780012 130.4694997 129.9039988
  68.5500012 130.9284997 131.0859988  68.8146726 131.0244800 130.2624812
  66.3300012 125.5354997 132.0699988  66.6340012 124.8494997 131.4749988
  67.0510012 125.6534997 132.6879988  66.4690671 125.4576305 132.0721816
  74.9930012 117.1364997 132.9309988  75.0420012 117.7464997 133.6659988
  75.4180012 117.5974997 132.2079988  75.0571746 117.2823796 132.9339175
  69.4710012 119.9294997 132.3969988  69.6130012 118.9834997 132.4179988
  69.3640012 120.1364997 131.4689988  69.4759919 119.8278246 132.2743408
  62.6250012 118.0304997 129.6699988  62.6690012 118.8904997 129.2509988
  62.1680012 117.4784997 129.0359988  62.5692240 118.0734422 129.5269864
  70.3480012 118.1614997 128.0709988  70.9940012 117.8324997 128.6949988
  70.8580012 118.6794997 127.4479988  70.5054299 118.1864450 128.0722731
  59.2460012 120.4274997 130.4319988  59.8990012 119.8774997 130.8639988
  59.2700012 120.1534997 129.5149988  59.3386683 120.3151466 130.3672123
  64.4020012 121.9774997 129.6469988  65.0180012 121.4514997 130.1569988
  63.8160012 121.3374997 129.2439988  64.4070810 121.8189208 129.6623173
  75.3840012 118.6144997 135.1659988  74.6960012 119.2724997 135.0709988
  75.4000012 118.4174997 136.1029988  75.2919540 118.6779819 135.2795990
  61.4360012 116.9484997 133.7439988  61.2170012 117.4784997 132.9779988
  60.7680012 117.1754997 134.3909988  61.3157600 117.0516906 133.7266379
  68.8050012 126.4484997 127.2879988  68.5090012 126.1264997 126.4369988
  68.4800012 127.3484997 127.3289988  68.7206371 126.5260215 127.1771801
  64.0050012 124.6244997 134.0309988  63.2650012 125.2224997 134.1349988
  64.7190012 125.1784997 133.7159988  64.0002237 124.7812831 134.0026465
  72.1120012 117.4524997 130.0509988  71.8960012 116.6864997 130.5839988
  72.7670012 117.9244997 130.5639988  72.1710632 117.4115889 130.1932861
  61.0290012 118.8404997 131.6959988  61.6430012 119.4734997 132.0689988
  61.5410012 118.3684997 131.0399988  61.1821981 118.8632267 131.6582908
  62.4120012 126.5884997 134.8179988  62.4070012 127.4684997 134.4399988
  61.5590012 126.5054997 135.2429988  62.2959464 126.6976117 134.8237907
  58.5330012 126.2594997 125.5999988  58.2610012 126.4884997 124.7119988
  58.5790012 127.0974997 126.0609988  58.5019482 126.4041318 125.5406273
  72.1580012 127.8814997 132.3129988  71.2170012 127.9394997 132.4749988
  72.4350012 128.7874997 132.1759988  72.0664679 128.0119443 132.3166815
  72.4590012 116.1674997 133.7309988  71.7230012 116.7784997 133.6929988
  73.1420012 116.5824997 133.2039988  72.4506541 116.3071374 133.6545832
  65.4620012 114.2544997 131.1959988  65.3450012 113.3054997 131.1419988
  64.6070012 114.5864997 131.4699988  65.3304212 114.1695571 131.2256497
  70.4100012 129.6624997 128.9379988  70.8360012 128.9554997 128.4529988
  70.7270012 130.4634997 128.5219988  70.5111683 129.6741017 128.8153680
  71.5700012 127.5634997 127.4469988  71.3120012 126.8734997 126.8359988
  71.6410012 127.1204997 128.2929988  71.5442856 127.4092124 127.4776885
  73.2560012 126.1294997 135.9239988  73.3960012 125.5384997 135.1849988
  73.4230012 127.0024997 135.5679988  73.2977411 126.1665428 135.7746894
  67.7290012 123.0914997 125.6969988  67.0170012 123.6264997 125.3449988
  68.4200012 123.1474997 125.0369988  67.7250132 123.1722543 125.5596289
  67.7820012 121.5494997 122.7359988  68.4830012 121.5714997 123.3869988
  68.0850012 120.9214997 122.0789988  67.9188133 121.4677070 122.7363369
  75.0980012 122.4694997 133.9899988  74.4450012 123.1644997 134.0799988
  75.5630012 122.6794997 133.1809988  75.0715274 122.5930643 133.8928462
  71.1340012 123.3014997 126.6489988  70.4020012 123.5294997 127.2219988
  71.5820012 122.5874997 127.1029988  71.0942725 123.2362145 126.7888816
  71.0320012 121.4754997 135.7159988  71.1120012 122.2384997 136.2879988
  70.4300012 121.7544997 135.0259988  70.9615756 121.6177134 135.7010589
  62.7800012 123.9314997 128.5309988  62.4490012 123.5614997 127.7129988
  63.3680012 123.2614997 128.8779988  62.8141873 123.7901156 128.4658102
  64.1460012 127.3594997 131.2119988  64.0520012 126.7814997 130.4559988
  64.8760012 126.9884997 131.7089988  64.2317386 127.2301663 131.1755342
  63.1460012 122.7004997 132.1649988  63.7120012 122.8214997 131.4019988
  63.4650012 123.3374997 132.8029988  63.2665474 122.8032219 132.1469862
  69.4550012 128.2034997 132.8989988  69.2150012 128.8654997 133.5469988
  69.2570012 127.3694997 133.3239988  69.3953808 128.1813134 133.0451524
  64.0260012 127.0994997 136.8819988  63.7150012 127.8814997 137.3369988
  63.3760012 126.9464997 136.1959988  63.8955558 127.1859105 136.8515871
  70.0050012 122.4634997 124.3339988  70.5850012 122.6134997 125.0809988
  70.4190012 122.9344997 123.6099988  70.1402997 122.5476578 124.3384058
  60.9460012 123.2974997 136.1099988  61.0170012 123.9484997 136.8089988
  60.0560012 123.4004997 135.7749988  60.8353005 123.4005427 136.1603495
  67.7320012 129.2004997 127.7689988  68.2060012 129.4954997 128.5459988
  67.1690012 129.9384997 127.5359988  67.7208184 129.3407247 127.8439628
  62.2660012 129.1714997 137.6449988  62.2730012 129.0354997 136.6979988
  61.3500012 129.0534997 137.8969988  62.1431714 129.1369430 137.5494666
  73.7040012 114.2134997 124.1469988  72.8040012 114.3524997 124.4419988
  73.9560012 115.0444997 123.7449988  73.6148702 114.3449074 124.1330205
  61.7700012 123.0014997 126.1199988  61.4780012 123.7694997 125.6299988
  61.0960012 122.3414997 125.9579988  61.6388111 123.0175587 126.0308978
  74.8930012 128.5794997 122.5229988  74.9670012 129.5184997 122.6939988
  75.7990012 128.2744997 122.4669988  75.0255100 128.6666722 122.5388119
  57.8630012 125.3644997 134.9349988  57.3620012 125.3364997 134.1199988
  57.8680012 124.4584997 135.2449988  57.7950944 125.2382396 134.8653226
  57.6130012 128.1444997 131.8189988  58.5590012 128.0004997 131.7999988
  57.5010012 128.9284997 132.3559988  57.7272727 128.2308046 131.8890072
  75.8110012 128.8104997 137.5019988  75.7620012 127.8554997 137.4649988
  74.9840012 129.0784997 137.9029988  75.6924940 128.7158998 137.5511375
  66.7900012 128.3844997 136.3779988  66.8770012 129.2104997 136.8529988
  65.9260012 128.0544997 136.6269988  66.6851964 128.4529878 136.4766549
  67.2040012 132.1564997 126.1839988  67.1290012 132.0354997 125.2369988
  67.2370012 133.1064997 126.3019988  67.1982068 132.2682646 126.0704967
  60.8570012 130.9454997 127.9649988  61.0100012 130.5974997 128.8429988
  60.0070012 130.5894997 127.7099988  60.7629166 130.8496216 128.0508079
  70.3060012 131.3104997 123.1859988  70.6810012 130.5664997 122.7149988
  70.3100012 131.0404997 124.1049988  70.3579125 131.1720986 123.2456483
  69.9750012 131.2364997 125.9349988  69.0390012 131.3364997 126.1139988
  70.2550012 130.5274997 126.5139988  69.8849553 131.1543406 126.0377087
  72.9630012 120.3034997 137.9819988  72.5560012 120.7844997 137.2609988
  73.0040012 119.3984997 137.6739988  72.9128437 120.2469374 137.8416683
  60.1120012 126.6874997 135.9789988  60.3280012 126.3264997 136.8379988
  59.2570012 126.3134997 135.7689988  60.0259292 126.5874111 136.0683386
  62.7310012 115.1574997 131.9739988  61.8690012 115.0704997 131.5659988
  62.7080012 116.0134997 132.4019988  62.6100409 115.2612883 131.9760589
  67.3940012 114.8794997 135.3489988  67.8140012 114.4644997 136.1019988
  66.4610012 114.7014997 135.4659988  67.3253644 114.7985900 135.4679539
  70.7200012 118.6354997 136.2019988  70.2060012 118.5094997 136.9999988
  70.5650012 119.5474997 135.9579988  70.6286852 118.7416132 136.2782158
  71.4830012 123.4964997 121.9639988  71.5250012 123.2734997 121.0339988
  72.3320012 123.8954997 122.1529988  71.6035280 123.5199438 121.8623554
  67.0550012 117.3724997 122.6339988  66.8020012 117.3914997 123.5569988
  66.7990012 116.5004997 122.3319988  66.9857481 117.2572558 122.7196175
  62.8220012 120.1234997 133.0689988  62.1800012 120.0824997 133.7779988
  62.8590012 121.0494997 132.8309988  62.7390664 120.2431430 133.1339219
  62.8190012 120.3444997 127.9809988  61.9260012 120.0034997 127.9219988
  63.2690012 119.9674997 127.2249988  62.7578130 120.2469631 127.8707702
  68.3540012 120.7604997 126.7979988  67.9450012 121.5754997 126.5069988
  69.0750012 120.6204997 126.1839988  68.3954537 120.8532018 126.6751342
  67.4560012 120.9354997 138.2859988  66.8940012 120.2314997 138.6069988
  68.2830012 120.8154997 138.7539988  67.4907095 120.8227883 138.3932330
  69.3590012 120.2064997 129.6119988  69.1640012 120.8114997 128.8969988
  69.5400012 119.3724997 129.1779988  69.3567614 120.1766300 129.4554405
  60.5720012 120.4434997 134.9359988  60.5340012 120.8434997 135.8049988
  60.0810012 119.6264997 135.0269988  60.5004684 120.3878069 135.0671059
  63.9380012 117.8174997 121.7349988  63.5070012 117.3724997 122.4649988
  63.2200012 118.1894997 121.2229988  63.7819438 117.8068940 121.7656799
  57.1800012 117.5594997 128.7869988  57.8110012 117.5304997 129.5059988
  57.6290012 117.1344997 128.0559988  57.3270918 117.4980836 128.7866441
  58.4540012 118.3054997 124.2109988  58.9280012 118.8964997 123.6259988
  57.7370012 118.8364997 124.5579988  58.4219341 118.4580867 124.1778836
  68.6230012 121.8444997 134.2829988  68.9460012 121.2134997 133.6399988
  68.1830012 121.3094997 134.9439988  68.6077484 121.6858387 134.2843198
  65.4000012 117.7714997 129.0669988  64.4890012 117.8284997 129.3559988
  65.9060012 117.7114997 129.8779988  65.3436899 117.7711941 129.2161184
  60.2290012 119.4004997 127.8939988  59.3390012 119.5004997 127.5539988
  60.5250012 118.5584997 127.5479988  60.1472823 119.3003545 127.8007213
  63.8820012 119.4004997 125.5509988  64.8130012 119.5294997 125.7289988
  63.6670012 120.0704997 124.9009988  63.9804247 119.5086565 125.4875747
  69.8050012 117.0064997 132.3319988  69.1290012 117.1374997 132.9959988
  69.3200012 116.8514997 131.5209988  69.6467146 117.0035157 132.3134469
  62.5560012 120.5954997 123.1169988  62.0130012 120.2154997 122.4259988
  63.3890012 120.7894997 122.6889988  62.5943631 120.5697125 122.9644501
  73.0930012 132.6784997 138.6079988  73.2930012 133.1024997 137.7739988
  73.7480012 133.0214997 139.2149988  73.2090072 132.7829857 138.5758592
  60.6910012 125.1524997 138.2159988  61.4230012 125.4064997 138.7779988
  59.9110012 125.3564997 138.7319988  60.6857073 125.2148160 138.3626151
  66.7200012 120.5594997 130.9539988  67.2850012 120.0124997 130.4069988
  66.5730012 120.0374997 131.7429988  66.7773380 120.4142259 130.9858695
  61.7220012 116.6954997 127.3729988  61.4050012 115.7934997 127.3369988
  62.5040012 116.6974997 126.8199988  61.7842408 116.5722474 127.2933569
  65.3470012 118.9474997 133.3679988  64.5110012 119.4014997 133.4789988
  65.8710012 119.2234997 134.1199988  65.3035416 119.0468660 133.4848119
  65.8910012 125.1604997 125.0529988  65.1460012 124.6534997 124.7309988
  65.7570012 125.2094997 125.9999988  65.7708776 125.0976940 125.1368647
  73.0410012 124.2934997 133.8399988  73.6830012 124.7504997 133.2959988
  72.2110012 124.4064997 133.3769988  73.0165963 124.3712704 133.7030177
  69.7890012 117.9744997 123.2519988  68.8500012 118.0864997 123.1009988
  70.0860012 118.8314997 123.5589988  69.7007583 118.1055981 123.2728337
  67.4100012 125.3444997 136.2899988  67.0650012 124.9634997 137.0969988
  67.2100012 126.2784997 136.3609988  67.3357527 125.4185135 136.4100689
  70.5070012 119.8414997 124.9129988  71.3990012 119.7044997 125.2319988
  70.5640012 120.6324997 124.3759988  70.6366504 119.9296052 124.8840818
  61.0160012 124.4554997 130.8229988  61.7610012 124.4534997 130.2219988
  61.0940012 123.6324997 131.3039988  61.1284995 124.3438887 130.8058282
  68.0170012 126.6194997 124.0789988  67.7210012 127.4454997 124.4599988
  67.3140012 125.9994997 124.2749988  67.8814914 126.6488199 124.1576443
  58.0240012 122.9164997 136.1379988  58.2470012 122.4984997 136.9699988
  57.4220012 122.3034997 135.7149988  57.9731759 122.7764668 136.1947022
  65.0400012 122.4334997 138.3509988  64.7440012 122.2674997 137.4559988
  65.9720012 122.2134997 138.3399988  65.1254166 122.3810640 138.2270536
  69.6610012 127.8064997 136.2409988  68.7600012 127.9894997 135.9729988
  69.6950012 128.0654997 137.1609988  69.5423139 127.8665849 136.3288099
  75.3920012 120.0514997 124.6079988  74.8380012 119.6554997 123.9359988
  75.4920012 120.9614997 124.3299988  75.3297059 120.1203586 124.4784401
  75.3550012 125.8514997 137.4449988  74.5040012 126.0894997 137.0779988
  75.9460012 125.8344997 136.6919988  75.3182487 125.8818258 137.2928893
  73.6870012 128.8374997 125.0729988  73.3140012 128.0114997 125.3819988
  73.9650012 128.6544997 124.1749988  73.6735222 128.6997430 124.9939473
  70.8480012 123.6454997 132.0939988  69.9190012 123.4134997 132.0669988
  71.2990012 122.8684997 131.7639988  70.7819216 123.5087238 132.0456917
  63.3910012 127.9734997 128.2269988  63.9180012 128.7464997 128.0269988
  62.5110012 128.1984997 127.9249988  63.3442031 128.1097545 128.1587912
  59.1460012 122.8354997 122.8139988  59.7620012 123.4624997 123.1939988
  58.2840012 123.1514997 123.0859988  59.1137698 122.9639430 122.9027183
  64.8180012 125.6364997 127.8029988  64.5770012 126.5614997 127.8449988
  64.0770012 125.1774997 128.1999988  64.6849225 125.7010933 127.8623742
  65.3330012 129.7854997 134.1189988  65.6950012 130.6404997 133.8849988
  65.8640012 129.4934997 134.8589988  65.4544473 129.8631060 134.1870855
  63.5010012 130.6584997 127.3489988  62.5510012 130.7634997 127.3999988
  63.8530012 131.4784997 127.6929988  63.4184195 130.7838800 127.4025502
  68.8770012 125.8844997 133.8189988  68.4510012 125.6574997 134.6459988
  69.4570012 125.1464997 133.6369988  68.8971868 125.7535299 133.9075830
  71.0800012 126.8134997 122.8929988  71.4330012 126.4334997 123.6969988
  70.1310012 126.7204997 122.9799988  71.0000918 126.7488956 123.0148532
  71.5350012 130.4364997 136.2889988  70.9340012 129.8814997 135.7929988
  71.8170012 131.1034997 135.6619988  71.4908804 130.4506625 136.1364849
  75.5830012 131.2934997 123.0939988  76.3270012 131.8794997 122.9539988
  74.8890012 131.8614997 123.4269988  75.5909899 131.4505798 123.1198778
  59.6580012 117.6694997 135.6959988  58.7650012 118.0084997 135.6279988
  59.5590012 116.8144997 136.1139988  59.5224164 117.6002588 135.7432235
  71.9460012 125.4864997 125.1199988  71.6680012 124.7584997 125.6759988
  72.8730012 125.6054997 125.3249988  72.0333124 125.4028802 125.2238845
  59.3090012 129.4744997 134.1309988  59.5260012 128.5424997 134.0999988
  59.5550012 129.7484997 135.0139988  59.3719549 129.3840636 134.2461763
  65.1710012 127.9254997 121.3399988  65.4100012 127.1774997 120.7929988
  64.9020012 127.5374997 122.1729988  65.1673675 127.7706638 121.3776865
  64.1080012 127.4954997 123.7959988  64.2540012 126.9754997 124.5859988
  64.1050012 128.4024997 124.1029988  64.1275792 127.5468842 123.9456117
  60.5610012 124.7484997 124.3069988  59.8750012 125.1004997 124.8739988
  61.0830012 125.5114997 124.0599988  60.5376852 124.8998578 124.3512118
  68.3920012 117.4104997 134.5859988  69.0910012 117.4844997 135.2359988
  68.0110012 116.5464997 134.7399988  68.4361767 117.3037624 134.6958322
  69.1770012 117.0624997 125.6829988  69.3970012 117.5344997 124.8799988
  69.7350012 117.4574997 126.3529988  69.2824968 117.1804285 125.6637331
  66.8450012 129.1934997 124.5459988  66.0290012 129.6904997 124.5979988
  67.3750012 129.6684997 123.9059988  66.8049161 129.3257722 124.4665956
  66.3770012 118.7904997 126.5179988  67.1890012 119.2954997 126.5639988
  66.1320012 118.6454997 127.4319988  66.4550520 118.8400375 126.6478517
  66.9120012 119.7764997 135.7019988  67.0310012 120.3504997 136.4599988
  67.5680012 119.0884997 135.8169988  67.0169025 119.7619858 135.8211321
  67.2600012 115.8714997 127.4559988  66.9140012 116.4894997 128.0999988
  67.9190012 116.3724997 126.9739988  67.3016968 116.0236278 127.4789383
  64.1840012 130.2374997 124.5269988  64.3440012 131.0364997 124.0269988
  63.9860012 130.5434997 125.4119988  64.1791637 130.3884020 124.5781144
  62.9180012 116.9344997 124.1429988  62.8350012 117.8234997 124.4899988
  63.8080012 116.6694997 124.3749988  63.0269469 117.0201430 124.2217626
  73.1170012 117.6834997 136.5369988  72.2000012 117.9464997 136.4499988
  73.4520012 117.6804997 135.6409988  73.0368613 117.7190761 136.4038837
  71.7190012 121.4344997 130.6329988  70.9210012 121.0194997 130.3049988
  72.1640012 120.7434997 131.1239988  71.6699885 121.2843543 130.6544889
  61.1770012 127.3624997 123.2039988  61.7690012 128.0614997 123.4799988
  61.6360012 126.9294997 122.4839988  61.3201142 127.3997049 123.1444830
  59.4930012 120.0264997 122.3199988  59.4480012 120.9654997 122.4979988
  58.6050012 119.7904997 122.0499988  59.3668574 120.1231892 122.3078912
  72.8050012 130.6904997 132.2559988  72.6500012 131.3684997 131.5979988
  73.7380012 130.7624997 132.4589988  72.9098657 130.7929546 132.1934360
  60.3010012 114.8084997 130.9929988  60.0720012 114.8674997 130.0649988
  59.8580012 114.0164997 131.2989988  60.2098530 114.7095753 130.9074786
  59.2310012 128.7484997 127.1529988  58.3990012 129.2214997 127.1799988
  59.7770012 129.2584997 126.5549988  59.1910352 128.8821332 127.0758463
  58.5190012 131.3614997 138.4829988  59.0600012 131.1444997 139.2429988
  58.0380012 130.5554997 138.2929988  58.5279951 131.2229270 138.5612576
  63.1170012 130.2804997 140.1029988  63.8840012 129.8214997 140.4439988
  63.0950012 130.0544997 139.1739988  63.2191275 130.1870186 140.0240101
  67.2090012 129.7884997 121.4789988  66.5650012 129.1574997 121.7999988
  67.9710012 129.2574997 121.2469988  67.2238077 129.6302920 121.4916011
  69.6940012 128.6604997 138.8329988  69.3430012 127.8044997 139.0759988
  70.4200012 128.8034997 139.4399988  69.7440769 128.5625636 138.9483619
  71.8130012 129.6054997 121.7119988  72.0960012 128.8114997 122.1649988
  72.5530012 129.8384997 121.1519988  71.9518006 129.5283376 121.6982715
  58.4260012 125.1714997 139.4369988  58.5700012 124.2694997 139.1509988
  57.6540012 125.4574997 138.9499988  58.3412753 125.0866816 139.3319505
  62.7680012 125.5154997 121.5699988  62.8320012 124.7214997 122.1009988
  63.4210012 125.3964997 120.8799988  62.8650241 125.3907148 121.5494317
  65.0820012 125.1414997 138.8699988  64.7530012 125.4124997 138.0129988
  65.2340012 124.2004997 138.7829988  65.0574809 125.0513862 138.7408244
  68.1200012 126.5624997 121.3059988  67.8510012 126.7424997 122.2069988
  67.9140012 125.6364997 121.1739988  68.0553427 126.4620261 121.4115073
  70.8160012 125.0574997 136.2529988  71.5620012 125.6454997 136.1339988
  70.0590012 125.6394997 136.3169988  70.8157820 125.2167143 136.2453590
  59.2590012 122.3714997 138.8569988  59.6670012 121.5144997 138.7359988
  58.9990012 122.3864997 139.7779988  59.2797568 122.2560807 138.9649588
  63.9170012 123.4874997 123.8759988  63.4570012 123.0034997 124.5619988
  64.1720012 122.8194997 123.2399988  63.8884902 123.3308731 123.8839334
  63.2060012 121.3804997 136.2319988  62.5880012 122.0554997 136.5119988
  63.5500012 121.7014997 135.3979988  63.1679132 121.5162411 136.1576262
  64.9880012 121.7304997 122.1379988  64.8080012 121.5764997 121.2109988
  65.9380012 121.8384997 122.1829988  65.0917776 121.7240175 122.0171843
  68.2260012 123.8524997 139.5089988  69.1790012 123.9354997 139.4819988
  68.0650012 123.1404997 140.1289988  68.3346426 123.7676746 139.5890579
  74.3780012 124.0854997 121.5839988  74.1040012 123.6604997 120.7709988
  74.4170012 125.0164997 121.3669988  74.3457699 124.1532484 121.4433610
  63.5450012 118.7354997 137.3139988  63.6950012 118.0064997 136.7119988
  63.5480012 119.5124997 136.7549988  63.5659302 118.7407851 137.1560692
  63.9580012 117.1054997 134.8069988  64.4940012 117.5564997 134.1549988
  63.1060012 116.9974997 134.3839988  63.9162178 117.1526390 134.6605756
  65.5400012 122.5444997 135.0459988  66.2900012 122.3884997 134.4729988
  65.2010012 123.3964997 134.7709988  65.5968921 122.6382968 134.9303561
  69.9550012 120.3594997 140.0749988  70.1480012 119.4284997 139.9629988
  70.8130012 120.7844997 140.0639988  70.0972934 120.2896531 140.0582031
  71.2720012 123.1484997 138.1519988  70.9910012 123.8574997 137.5739988
  72.2150012 123.0754997 138.0009988  71.3609291 123.2356711 138.0524967
  62.0240012 119.9334997 139.2259988  61.2570012 119.4014997 139.0149988
  62.7030012 119.6234997 138.6259988  62.0107877 119.8188300 139.1160716
  64.7640012 114.5614997 135.2379988  64.6650012 115.5084997 135.1329988
  64.0210012 114.1894997 134.7619988  64.6501184 114.6405863 135.1593621
  66.0280012 118.8834997 138.8019988  65.7920012 118.6634997 139.7029988
  65.2440012 118.6764997 138.2919988  65.8898504 118.8254586 138.8563431
  68.7430012 118.0104997 137.8769988  67.7960012 118.0424997 138.0099988
  69.0560012 117.3854997 138.5309988  68.6556707 117.9303998 137.9836060
  70.3770012 116.6444997 139.8829988  70.2810012 115.6924997 139.8769988
  70.0560012 116.9134997 140.7429988  70.3204070 116.5504035 139.9985441
  60.2040012 117.8544997 138.9299988  60.4160012 117.1474997 138.3199988
  60.0930012 117.4164997 139.7739988  60.2179721 117.6987084 138.9606843
  64.9850012 113.8554997 137.9089988  65.6970012 113.2154997 137.8949988
  64.8840012 114.1224997 136.9959988  65.0688066 113.8040079 137.7835677
  65.3390012 115.5384997 139.9629988  65.2070012 115.0624997 139.1429988
  64.7400012 116.2824997 139.9079988  65.2399071 115.5739618 139.8432886
  64.8850012 132.4214997 123.1389988  65.8180012 132.5794997 123.2829988
  64.6210012 133.0964997 122.5149988  64.9769888 132.5344510 123.0742842
  58.4540012 127.0574997 122.6219988  59.3680012 127.1364997 122.8959988
  58.4610012 126.3704997 121.9559988  58.5801131 126.9753961 122.5694393
  57.1030012 132.4504997 127.6999988  56.4560012 131.9884997 127.1669988
  57.4570012 131.7784997 128.2819988  57.0623849 132.2964723 127.7057959
  57.9730012 130.5314997 129.5039988  57.6380012 129.6514997 129.6759988
  58.1950012 130.8764997 130.3689988  57.9571783 130.4577500 129.6444208
  75.5210012 131.3404997 132.4849988  75.5000012 131.5254997 133.4239988
  76.2120012 131.9094997 132.1439988  75.6114618 131.4426606 132.5673864
  75.0850012 130.9084997 135.4069988  74.5970012 130.1724997 135.0349988
  75.6340012 130.5144997 136.0849988  75.0924820 130.7545889 135.4477813
  73.5350012 126.6974997 140.0449988  72.6690012 126.5924997 140.4389988
  73.9120012 127.4564997 140.4909988  73.4673308 126.7856900 140.1592393
  74.8360012 124.9544997 125.5589988  75.6860012 125.3754997 125.6859988
  74.8420012 124.2144997 126.1659988  74.9531372 124.9120803 125.6584344
  75.2310012 123.0074997 127.3819988  74.5040012 122.5284997 127.7799988
  75.8120012 123.2134997 128.1149988  75.2100473 122.9698103 127.5354528
  74.9900012 125.7924997 132.3299988  75.8230012 125.4144997 132.0499988
  75.1020012 126.7354997 132.2109988  75.1192647 125.8682218 132.2755487
  73.4760012 128.6704997 134.6369988  72.8290012 128.9954997 135.2629988
  72.9590012 128.2304997 133.9629988  73.3174029 128.6555004 134.6315827
  75.4990012 122.9084997 123.7739988  74.9770012 123.2654997 123.0549988
  75.4660012 123.5834997 124.4519988  75.4231634 123.0485413 123.7673145
  73.8480012 120.1484997 122.3239988  73.9440012 120.8154997 121.6439988
  73.7080012 119.3324997 121.8429988  73.8422272 120.1295655 122.1658347
  73.0170012 121.5284997 127.9449988  72.8670012 120.5834997 127.9249988
  72.6640012 121.8094997 128.7889988  72.9487448 121.4371481 128.0563705
  58.0530012 123.6064997 131.9559988  58.2370012 123.5244997 131.0199988
  58.9020012 123.4824997 132.3789988  58.1930151 123.5785073 131.8851451
  73.8740012 123.4984997 137.5839988  74.4570012 122.7644997 137.7759988
  74.4380012 124.2704997 137.6309988  74.0299769 123.5024227 137.6166159
  75.3700012 121.4014997 138.2689988  74.5070012 121.0224997 138.1029988
  75.9750012 120.6624997 138.1939988  75.3336119 121.2498268 138.2361528
  73.0950012 117.5564997 121.4419988  73.7060012 117.1854997 122.0789988
  72.2590012 117.1354997 121.6379988  73.0655032 117.4487554 121.5557035
  72.7280012 119.1114997 126.4079988  73.0080012 118.2044997 126.5319988
  73.4870012 119.5454997 126.0189988  72.8689277 119.0460942 126.3723682
  73.3400012 119.6924997 131.8439988  74.2730012 119.9044997 131.8089988
  73.1050012 119.7944997 132.7659988  73.4359244 119.7353100 131.9638892
  73.3690012 120.4294997 134.6199988  72.5260012 120.6974997 134.9859988
  73.8110012 121.2514997 134.4089988  73.3134158 120.5773291 134.6415491
  57.6500012 118.8774997 138.0969988  58.5700012 118.7554997 138.3329988
  57.2010012 118.1274997 138.4859988  57.7151580 118.7593727 138.1819006
  75.6520012 114.4094997 139.9729988  76.0020012 113.7554997 139.3679988
  75.7990012 115.2464997 139.5329988  75.7197887 114.4331548 139.8306858
  73.3410012 116.3744997 126.4559988  73.5240012 115.9254997 127.2819988
  72.7420012 115.7894997 125.9929988  73.2850202 116.2339975 126.5063275
  58.8710012 117.1894997 130.9879988  59.3170012 116.3974997 131.2899988
  59.3380012 117.9054997 131.4179988  58.9950831 117.1780685 131.0874006
  57.1750012 120.1884997 132.0569988  57.6670012 119.9674997 131.2659988
  57.5380012 121.0294997 132.3379988  57.2913126 120.2718357 131.9867531
  75.1720012 116.5184997 138.3219988  74.2540012 116.7894997 138.2869988
  75.2950012 115.9834997 137.5379988  75.0629729 116.4832508 138.2111923
  75.2080012 116.4414997 122.9839988  75.6200012 115.7204997 122.5089988
  75.8900012 117.1114997 123.0429988  75.3565885 116.4332368 122.9268915
  57.4890012 116.4464997 126.1109988  56.5640012 116.6554997 125.9819988
  57.9430012 116.9304997 125.4209988  57.4237292 116.5405343 126.0000720
  72.2600012 131.4304997 128.0569988  72.9120012 131.0834997 127.4489988
  72.7700012 131.9194997 128.7029988  72.4182637 131.4490597 128.0610236
  57.4530012 115.1844997 134.4549988  56.7880012 114.9384997 135.0989988
  57.0100012 115.8064997 133.8779988  57.3021318 115.2349410 134.4650898
  59.6450012 128.3594997 138.5999988  58.8240012 128.5344997 138.1389988
  59.3920012 128.2864997 139.5199988  59.4985585 128.3735544 138.6613561
  62.5990012 129.3344997 134.8579988  62.1740012 130.1434997 134.5759988
  63.5030012 129.4194997 134.5559988  62.6629975 129.4569300 134.7784816
  66.9100012 130.7334997 137.8179988  67.0950012 130.3994997 138.6959988
  67.7560012 131.0424997 137.4959988  67.0497539 130.7296047 137.8945605
  69.2550012 132.0194997 137.0619988  69.9320012 131.3864997 136.8219988
  69.5770012 132.4204997 137.8689988  69.3911637 131.9871154 137.1382793
  74.1720012 114.6084997 136.1409988  73.3600012 114.9334997 135.7539988
  74.4050012 113.8484997 135.6079988  74.0922203 114.5502758 136.0158880
  60.0010012 132.5904997 134.9059988  59.2800012 133.0304997 134.4549988
  59.6350012 132.3394997 135.7539988  59.8529651 132.6167242 134.9589640
  62.4680012 132.1904997 133.9359988  61.6030012 132.2624997 134.3399988
  62.4130012 132.7374997 133.1519988  62.3422085 132.2742685 133.8853362
  67.1780012 132.0784997 133.1109988  66.7220012 132.6074997 132.4569988
  67.3410012 132.6814997 133.8359988  67.1376068 132.2324607 133.1194838
  69.5060012 130.9564997 134.0559988  68.6010012 131.1214997 133.7899988
  69.9350012 131.8094997 133.9909988  69.4401324 131.0944339 134.0107976
  72.1100012 132.5264997 134.3509988  71.9280012 133.4424997 134.1409988
  72.2870012 132.1164997 133.5049988  72.1090210 132.5964822 134.2077885
  59.4150012 131.2134997 131.8159988  59.3970012 130.7884997 132.6729988
  60.2200012 130.8954997 131.4069988  59.5213529 131.1123013 131.8780946
  61.5570012 129.9234997 130.4709988  61.3380012 129.0074997 130.6409988
  62.3810012 130.0634997 130.9369988  61.6384420 129.8170520 130.5572774
  64.0940012 130.3934997 131.3199988  64.3070012 129.5054997 131.0329988
  64.1580012 130.3594997 132.2739988  64.1318232 130.2673102 131.4097397
  67.6020012 116.0574997 130.4639988  66.9280012 115.4284997 130.7199988
  68.1660012 115.5734997 129.8609988  67.5859230 115.9058744 130.4175340
  72.7450012 114.1654997 130.5769988  73.3490012 114.7124997 130.0749988
  71.8750012 114.4844997 130.3359988  72.7101208 114.2835137 130.4756886
  74.4720012 115.3034997 128.9099988  75.0840012 114.7894997 128.3829988
  74.8540012 116.1814997 128.9329988  74.6073371 115.3517866 128.8410041
  59.9290012 114.6914997 128.2859988  59.1520012 114.4574997 127.7789988
  60.4590012 113.8944997 128.2949988  59.8942330 114.5516988 128.2177742
  58.7650012 114.4894997 124.0899988  59.2040012 115.1004997 123.4979988
  58.1320012 115.0274997 124.5639988  58.7394514 114.6459257 124.0730930
  64.5080012 114.6184997 128.0999988  65.3830012 115.0064997 128.0699988
  64.3720012 114.4034997 129.0219988  64.6093695 114.6425184 128.2206440
  70.0650012 114.6484997 129.7489988  70.1410012 114.7434997 128.7989988
  69.7900012 113.7404997 129.8779988  70.0382321 114.5387867 129.6365079
  71.4180012 114.6744997 125.4409988  70.7160012 115.2894997 125.2309988
  70.9740012 113.8364997 125.5719988  71.2616450 114.6455639 125.4299000
  58.6660012 130.4374997 124.9869988  57.9810012 130.3994997 124.3199988
  58.6700012 131.3504997 125.2759988  58.5726998 130.5556733 124.9346771
  60.6260012 116.4054997 122.5319988  61.1180012 115.7754997 122.0049988
  61.2500012 116.7014997 123.1949988  60.7775688 116.3593804 122.5495482
  65.6520012 116.6984997 124.9889988  65.8300012 116.0524997 125.6719988
  65.5990012 117.5324997 125.4559988  65.6691999 116.7228009 125.1455917
  67.5310012 131.6474997 123.3849988  68.3970012 132.0134997 123.2069988
  67.2840012 131.2074997 122.5709988  67.6162392 131.6381756 123.2506289
  74.2400012 131.2104997 126.0639988  74.0450012 130.4624997 125.4989988
  74.2010012 131.9684997 125.4809988  74.2080380 131.2106099 125.9078384
  59.8870012 115.2054997 137.8039988  59.5210012 114.4404997 138.2459988
  60.8000012 115.2344997 138.0899988  59.9602736 115.1045640 137.9032502
  61.8600012 114.5564997 139.3399988  62.7580012 114.2824997 139.1549988
  61.4730012 113.8134997 139.8039988  61.9306612 114.4185914 139.3773643
  60.4840012 131.3574997 122.0129988  60.2170012 131.6444997 122.8859988
  61.2560012 130.8114997 122.1649988  60.5517488 131.3230294 122.1531050
  70.2810012 113.8884997 139.5219988  70.3580012 113.4624997 140.3759988
  71.1750012 113.9024997 139.1789988  70.4123428 113.8320879 139.5925310
  73.4570012 129.9614997 138.2139988  72.6750012 129.7754997 137.6939988
  73.3850012 130.8904997 138.4319988  73.3402274 130.0616643 138.1723018
  87.8630012 123.8474997 128.2449988  87.9520012 124.7914997 128.1129988
  87.2250012 123.5724997 127.5869988  87.7889081 123.9394830 128.1379614
  86.7960012 123.1024997 131.6639988  86.7580012 122.4564997 132.3689988
  86.4740012 122.6364997 130.8929988  86.7472333 122.9509408 131.6562978
  79.1650012 122.7174997 133.2569988  79.2060012 122.0914997 133.9799988
  79.8680012 123.3414997 133.4389988  79.2656363 122.7161196 133.3806044
  90.5020012 126.0414997 129.9649988  90.0620012 125.3214997 130.4159988
  90.4890012 126.7624997 130.5949988  90.4400226 126.0403731 130.1118494
  80.0880012 127.1674997 131.7919988  79.7190012 126.3654997 131.4219988
  81.0290012 126.9984997 131.8379988  80.1647289 127.0350153 131.7476316
  76.6980012 120.8274997 127.1849988  76.2510012 121.6734997 127.1659988
  76.1370012 120.2474997 126.6689988  76.5609900 120.8649916 127.1126801
  77.4090012 122.9894997 129.3099988  77.6220012 122.2194997 129.8379988
  78.1470012 123.0784997 128.7069988  77.5379044 122.8961968 129.3007123
  87.6140012 131.1464997 130.1769988  88.2340012 130.4694997 129.9039988
  87.4060012 130.9284997 131.0859988  87.6706726 131.0244800 130.2624812
  85.1860012 125.5354997 132.0699988  85.4900012 124.8494997 131.4749988
  85.9070012 125.6534997 132.6879988  85.3250671 125.4576305 132.0721816
  93.8490012 117.1364997 132.9309988  93.8980012 117.7464997 133.6659988
  94.2740012 117.5974997 132.2079988  93.9131746 117.2823796 132.9339175
  88.3270012 119.9294997 132.3969988  88.4690012 118.9834997 132.4179988
  88.2200012 120.1364997 131.4689988  88.3319919 119.8278246 132.2743408
  81.4810012 118.0304997 129.6699988  81.5250012 118.8904997 129.2509988
  81.0240012 117.4784997 129.0359988  81.4252240 118.0734422 129.5269864
  89.2040012 118.1614997 128.0709988  89.8500012 117.8324997 128.6949988
  89.7140012 118.6794997 127.4479988  89.3614299 118.1864450 128.0722731
  78.1020012 120.4274997 130.4319988  78.7550012 119.8774997 130.8639988
  78.1260012 120.1534997 129.5149988  78.1946683 120.3151466 130.3672123
  83.2580012 121.9774997 129.6469988  83.8740012 121.4514997 130.1569988
  82.6720012 121.3374997 129.2439988  83.2630810 121.8189208 129.6623173
  94.2400012 118.6144997 135.1659988  93.5520012 119.2724997 135.0709988
  94.2560012 118.4174997 136.1029988  94.1479540 118.6779819 135.2795990
  80.2920012 116.9484997 133.7439988  80.0730012 117.4784997 132.9779988
  79.6240012 117.1754997 134.3909988  80.1717600 117.0516906 133.7266379
  87.6610012 126.4484997 127.2879988  87.3650012 126.1264997 126.4369988
  87.3360012 127.3484997 127.3289988  87.5766371 126.5260215 127.1771801
  82.8610012 124.6244997 134.0309988  82.1210012 125.2224997 134.1349988
  83.5750012 125.1784997 133.7159988  82.8562237 124.7812831 134.0026465
  90.9680012 117.4524997 130.0509988  90.7520012 116.6864997 130.5839988
  91.6230012 117.9244997 130.5639988  91.0270632 117.4115889 130.1932861
  79.8850012 118.8404997 131.6959988  80.4990012 119.4734997 132.0689988
  80.3970012 118.3684997 131.0399988  80.0381981 118.8632267 131.6582908
  81.2680012 126.5884997 134.8179988  81.2630012 127.4684997 134.4399988
  80.4150012 126.5054997 135.2429988  81.1519464 126.6976117 134.8237907
  77.3890012 126.2594997 125.5999988  77.1170012 126.4884997 124.7119988
  77.4350012 127.0974997 126.0609988  77.3579482 126.4041318 125.5406273
  91.0140012 127.8814997 132.3129988  90.0730012 127.9394997 132.4749988
  91.2910012 128.7874997 132.1759988  90.9224679 128.0119443 132.3166815
  91.3150012 116.1674997 133.7309988  90.5790012 116.7784997 133.6929988
  91.9980012 116.5824997 133.2039988  91.3066541 116.3071374 133.6545832
  84.3180012 114.2544997 131.1959988  84.2010012 113.3054997 131.1419988
  83.4630012 114.5864997 131.4699988  84.1864212 114.1695571 131.2256497
  89.2660012 129.6624997 128.9379988  89.6920012 128.9554997 128.4529988
  89.5830012 130.4634997 128.5219988  89.3671683 129.6741017 128.8153680
  90.4260012 127.5634997 127.4469988  90.1680012 126.8734997 126.8359988
  90.4970012 127.1204997 128.2929988  90.4002856 127.4092124 127.4776885
  92.1120012 126.1294997 135.9239988  92.2520012 125.5384997 135.1849988
  92.2790012 127.0024997 135.5679988  92.1537411 126.1665428 135.7746894
  86.5850012 123.0914997 125.6969988  85.8730012 123.6264997 125.3449988
  87.2760012 123.1474997 125.0369988  86.5810132 123.1722543 125.5596289
  86.6380012 121.5494997 122.7359988  87.3390012 121.5714997 123.3869988
  86.9410012 120.9214997 122.0789988  86.7748133 121.4677070 122.7363369
  93.9540012 122.4694997 133.9899988  93.3010012 123.1644997 134.0799988
  94.4190012 122.6794997 133.1809988  93.9275274 122.5930643 133.8928462
  89.9900012 123.3014997 126.6489988  89.2580012 123.5294997 127.2219988
  90.4380012 122.5874997 127.1029988  89.9502725 123.2362145 126.7888816
  89.8880012 121.4754997 135.7159988  89.9680012 122.2384997 136.2879988
  89.2860012 121.7544997 135.0259988  89.8175756 121.6177134 135.7010589
  81.6360012 123.9314997 128.5309988  81.3050012 123.5614997 127.7129988
  82.2240012 123.2614997 128.8779988  81.6701873 123.7901156 128.4658102
  83.0020012 127.3594997 131.2119988  82.9080012 126.7814997 130.4559988
  83.7320012 126.9884997 131.7089988  83.0877387 127.2301663 131.1755342
  82.0020012 122.7004997 132.1649988  82.5680012 122.8214997 131.4019988
  82.3210012 123.3374997 132.8029988  82.1225474 122.8032219 132.1469862
  88.3110012 128.2034997 132.8989988  88.0710012 128.8654997 133.5469988
  88.1130012 127.3694997 133.3239988  88.2513808 128.1813134 133.0451524
  82.8820012 127.0994997 136.8819988  82.5710012 127.8814997 137.3369988
  82.2320012 126.9464997 136.1959988  82.7515558 127.1859105 136.8515871
  88.8610012 122.4634997 124.3339988  89.4410012 122.6134997 125.0809988
  89.2750012 122.9344997 123.6099988  88.9962997 122.5476578 124.3384058
  79.8020012 123.2974997 136.1099988  79.8730012 123.9484997 136.8089988
  78.9120012 123.4004997 135.7749988  79.6913005 123.4005427 136.1603495
  86.5880012 129.2004997 127.7689988  87.0620012 129.4954997 128.5459988
  86.0250012 129.9384997 127.5359988  86.5768184 129.3407247 127.8439628
  81.1220012 129.1714997 137.6449988  81.1290012 129.0354997 136.6979988
  80.2060012 129.0534997 137.8969988  80.9991714 129.1369430 137.5494666
  92.5600012 114.2134997 124.1469988  91.6600012 114.3524997 124.4419988
  92.8120012 115.0444997 123.7449988  92.4708702 114.3449074 124.1330205
  80.6260012 123.0014997 126.1199988  80.3340012 123.7694997 125.6299988
  79.9520012 122.3414997 125.9579988  80.4948111 123.0175587 126.0308978
  93.7490012 128.5794997 122.5229988  93.8230012 129.5184997 122.6939988
  94.6550012 128.2744997 122.4669988  93.8815100 128.6666722 122.5388119
  76.7190012 125.3644997 134.9349988  76.2180012 125.3364997 134.1199988
  76.7240012 124.4584997 135.2449988  76.6510944 125.2382396 134.8653226
  76.4690012 128.1444997 131.8189988  77.4150012 128.0004997 131.7999988
  76.3570012 128.9284997 132.3559988  76.5832727 128.2308046 131.8890072
  94.6670012 128.8104997 137.5019988  94.6180012 127.8554997 137.4649988
  93.8400012 129.0784997 137.9029988  94.5484940 128.7158998 137.5511375
  85.6460012 128.3844997 136.3779988  85.7330012 129.2104997 136.8529988
  84.7820012 128.0544997 136.6269988  85.5411964 128.4529878 136.4766549
  86.0600012 132.1564997 126.1839988  85.9850012 132.0354997 125.2369988
  86.0930012 133.1064997 126.3019988  86.0542068 132.2682646 126.0704967
  79.7130012 130.9454997 127.9649988  79.8660012 130.5974997 128.8429988
  78.8630012 130.5894997 127.7099988  79.6189166 130.8496216 128.0508079
  89.1620012 131.3104997 123.1859988  89.5370012 130.5664997 122.7149988
  89.1660012 131.0404997 124.1049988  89.2139125 131.1720986 123.2456483
  88.8310012 131.2364997 125.9349988  87.8950012 131.3364997 126.1139988
  89.1110012 130.5274997 126.5139988  88.7409553 131.1543406 126.0377087
  91.8190012 120.3034997 137.9819988  91.4120012 120.7844997 137.2609988
  91.8600012 119.3984997 137.6739988  91.7688437 120.2469374 137.8416683
  78.9680012 126.6874997 135.9789988  79.1840012 126.3264997 136.8379988
  78.1130012 126.3134997 135.7689988  78.8819292 126.5874111 136.0683386
  81.5870012 115.1574997 131.9739988  80.7250012 115.0704997 131.5659988
  81.5640012 116.0134997 132.4019988  81.4660409 115.2612883 131.9760589
  86.2500012 114.8794997 135.3489988  86.6700012 114.4644997 136.1019988
  85.3170012 114.7014997 135.4659988  86.1813644 114.7985900 135.4679539
  89.5760012 118.6354997 136.2019988  89.0620012 118.5094997 136.9999988
  89.4210012 119.5474997 135.9579988  89.4846852 118.7416132 136.2782158
  90.3390012 123.4964997 121.9639988  90.3810012 123.2734997 121.0339988
  91.1880012 123.8954997 122.1529988  90.4595280 123.5199438 121.8623554
  85.9110012 117.3724997 122.6339988  85.6580012 117.3914997 123.5569988
  85.6550012 116.5004997 122.3319988  85.8417481 117.2572558 122.7196175
  81.6780012 120.1234997 133.0689988  81.0360012 120.0824997 133.7779988
  81.7150012 121.0494997 132.8309988  81.5950664 120.2431430 133.1339219
  81.6750012 120.3444997 127.9809988  80.7820012 120.0034997 127.9219988
  82.1250012 119.9674997 127.2249988  81.6138130 120.2469631 127.8707702
  87.2100012 120.7604997 126.7979988  86.8010012 121.5754997 126.5069988
  87.9310012 120.6204997 126.1839988  87.2514537 120.8532018 126.6751342
  86.3120012 120.9354997 138.2859988  85.7500012 120.2314997 138.6069988
  87.1390012 120.8154997 138.7539988  86.3467095 120.8227883 138.3932330
  88.2150012 120.2064997 129.6119988  88.0200012 120.8114997 128.8969988
  88.3960012 119.3724997 129.1779988  88.2127614 120.1766300 129.4554405
  79.4280012 120.4434997 134.9359988  79.3900012 120.8434997 135.8049988
  78.9370012 119.6264997 135.0269988  79.3564684 120.3878069 135.0671059
  82.7940012 117.8174997 121.7349988  82.3630012 117.3724997 122.4649988
  82.0760012 118.1894997 121.2229988  82.6379438 117.8068940 121.7656799
  76.0360012 117.5594997 128.7869988  76.6670012 117.5304997 129.5059988
  76.4850012 117.1344997 128.0559988  76.1830918 117.4980836 128.7866441
  77.3100012 118.3054997 124.2109988  77.7840012 118.8964997 123.6259988
  76.5930012 118.8364997 124.5579988  77.2779341 118.4580867 124.1778836
  87.4790012 121.8444997 134.2829988  87.8020012 121.2134997 133.6399988
  87.0390012 121.3094997 134.9439988  87.4637484 121.6858387 134.2843198
  84.2560012 117.7714997 129.0669988  83.3450012 117.8284997 129.3559988
  84.7620012 117.7114997 129.8779988  84.1996899 117.7711941 129.2161184
  79.0850012 119.4004997 127.8939988  78.1950012 119.5004997 127.5539988
  79.3810012 118.5584997 127.5479988  79.0032823 119.3003545 127.8007213
  82.7380012 119.4004997 125.5509988  83.6690012 119.5294997 125.7289988
  82.5230012 120.0704997 124.9009988  82.8364247 119.5086565 125.4875747
  88.6610012 117.0064997 132.3319988  87.9850012 117.1374997 132.9959988
  88.1760012 116.8514997 131.5209988  88.5027146 117.0035157 132.3134469
  81.4120012 120.5954997 123.1169988  80.8690012 120.2154997 122.4259988
  82.2450012 120.7894997 122.6889988  81.4503631 120.5697125 122.9644501
  91.9490012 132.6784997 138.6079988  92.1490012 133.1024997 137.7739988
  92.6040012 133.0214997 139.2149988  92.0650072 132.7829857 138.5758592
  79.5470012 125.1524997 138.2159988  80.2790012 125.4064997 138.7779988
  78.7670012 125.3564997 138.7319988  79.5417073 125.2148160 138.3626151
  85.5760012 120.5594997 130.9539988  86.1410012 120.0124997 130.4069988
  85.4290012 120.0374997 131.7429988  85.6333380 120.4142259 130.9858695
  80.5780012 116.6954997 127.3729988  80.2610012 115.7934997 127.3369988
  81.3600012 116.6974997 126.8199988  80.6402408 116.5722474 127.2933569
  84.2030012 118.9474997 133.3679988  83.3670012 119.4014997 133.4789988
  84.7270012 119.2234997 134.1199988  84.1595416 119.0468660 133.4848119
  84.7470012 125.1604997 125.0529988  84.0020012 124.6534997 124.7309988
  84.6130012 125.2094997 125.9999988  84.6268776 125.0976940 125.1368647
  91.8970012 124.2934997 133.8399988  92.5390012 124.7504997 133.2959988
  91.0670012 124.4064997 133.3769988  91.8725963 124.3712704 133.7030177
  88.6450012 117.9744997 123.2519988  87.7060012 118.0864997 123.1009988
  88.9420012 118.8314997 123.5589988  88.5567583 118.1055981 123.2728337
  86.2660012 125.3444997 136.2899988  85.9210012 124.9634997 137.0969988
  86.0660012 126.2784997 136.3609988  86.1917527 125.4185135 136.4100689
  89.3630012 119.8414997 124.9129988  90.2550012 119.7044997 125.2319988
  89.4200012 120.6324997 124.3759988  89.4926504 119.9296052 124.8840818
  79.8720012 124.4554997 130.8229988  80.6170012 124.4534997 130.2219988
  79.9500012 123.6324997 131.3039988  79.9844995 124.3438887 130.8058282
  86.8730012 126.6194997 124.0789988  86.5770012 127.4454997 124.4599988
  86.1700012 125.9994997 124.2749988  86.7374914 126.6488199 124.1576443
  76.8800012 122.9164997 136.1379988  77.1030012 122.4984997 136.9699988
  76.2780012 122.3034997 135.7149988  76.8291759 122.7764668 136.1947022
  83.8960012 122.4334997 138.3509988  83.6000012 122.2674997 137.4559988
  84.8280012 122.2134997 138.3399988  83.9814166 122.3810640 138.2270536
  88.5170012 127.8064997 136.2409988  87.6160012 127.9894997 135.9729988
  88.5510012 128.0654997 137.1609988  88.3983139 127.8665849 136.3288099
  94.2480012 120.0514997 124.6079988  93.6940012 119.6554997 123.9359988
  94.3480012 120.9614997 124.3299988  94.1857059 120.1203586 124.4784401
  94.2110012 125.8514997 137.4449988  93.3600012 126.0894997 137.0779988
  94.8020012 125.8344997 136.6919988  94.1742487 125.8818258 137.2928893
  92.5430012 128.8374997 125.0729988  92.1700012 128.0114997 125.3819988
  92.8210012 128.6544997 124.1749988  92.5295222 128.6997430 124.9939473
  89.7040012 123.6454997 132.0939988  88.7750012 123.4134997 132.0669988
  90.1550012 122.8684997 131.7639988  89.6379216 123.5087238 132.0456917
  82.2470012 127.9734997 128.2269988  82.7740012 128.7464997 128.0269988
  81.3670012 128.1984997 127.9249988  82.2002031 128.1097545 128.1587912
  78.0020012 122.8354997 122.8139988  78.6180012 123.4624997 123.1939988
  77.1400012 123.1514997 123.0859988  77.9697698 122.9639430 122.9027183
  83.6740012 125.6364997 127.8029988  83.4330012 126.5614997 127.8449988
  82.9330012 125.1774997 128.1999988  83.5409225 125.7010933 127.8623742
  84.1890012 129.7854997 134.1189988  84.5510012 130.6404997 133.8849988
  84.7200012 129.4934997 134.8589988  84.3104473 129.8631060 134.1870855
  82.3570012 130.6584997 127.3489988  81.4070012 130.7634997 127.3999988
  82.7090012 131.4784997 127.6929988  82.2744195 130.7838800 127.4025502
  87.7330012 125.8844997 133.8189988  87.3070012 125.6574997 134.6459988
  88.3130012 125.1464997 133.6369988  87.7531868 125.7535299 133.9075830
  89.9360012 126.8134997 122.8929988  90.2890012 126.4334997 123.6969988
  88.9870012 126.7204997 122.9799988  89.8560918 126.7488956 123.0148532
  90.3910012 130.4364997 136.2889988  89.7900012 129.8814997 135.7929988
  90.6730012 131.1034997 135.6619988  90.3468804 130.4506625 136.1364849
  94.4390012 131.2934997 123.0939988  95.1830012 131.8794997 122.9539988
  93.7450012 131.8614997 123.4269988  94.4469899 131.4505798 123.1198778
  78.5140012 117.6694997 135.6959988  77.6210012 118.0084997 135.6279988
  78.4150012 116.8144997 136.1139988  78.3784164 117.6002588 135.7432235
  90.8020012 125.4864997 125.1199988  90.5240012 124.7584997 125.6759988
  91.7290012 125.6054997 125.3249988  90.8893124 125.4028802 125.2238845
  78.1650012 129.4744997 134.1309988  78.3820012 128.5424997 134.0999988
  78.4110012 129.7484997 135.0139988  78.2279549 129.3840636 134.2461763
  84.0270012 127.9254997 121.3399988  84.2660012 127.1774997 120.7929988
  83.7580012 127.5374997 122.1729988  84.0233675 127.7706638 121.3776865
  82.9640012 127.4954997 123.7959988  83.1100012 126.9754997 124.5859988
  82.9610012 128.4024997 124.1029988  82.9835792 127.5468842 123.9456117
  79.4170012 124.7484997 124.3069988  78.7310012 125.1004997 124.8739988
  79.9390012 125.5114997 124.0599988  79.3936852 124.8998578 124.3512118
  87.2480012 117.4104997 134.5859988  87.9470012 117.4844997 135.2359988
  86.8670012 116.5464997 134.7399988  87.2921767 117.3037624 134.6958322
  88.0330012 117.0624997 125.6829988  88.2530012 117.5344997 124.8799988
  88.5910012 117.4574997 126.3529988  88.1384968 117.1804285 125.6637331
  85.7010012 129.1934997 124.5459988  84.8850012 129.6904997 124.5979988
  86.2310012 129.6684997 123.9059988  85.6609161 129.3257722 124.4665956
  85.2330012 118.7904997 126.5179988  86.0450012 119.2954997 126.5639988
  84.9880012 118.6454997 127.4319988  85.3110520 118.8400375 126.6478517
  85.7680012 119.7764997 135.7019988  85.8870012 120.3504997 136.4599988
  86.4240012 119.0884997 135.8169988  85.8729025 119.7619858 135.8211321
  86.1160012 115.8714997 127.4559988  85.7700012 116.4894997 128.0999988
  86.7750012 116.3724997 126.9739988  86.1576968 116.0236278 127.4789383
  83.0400012 130.2374997 124.5269988  83.2000012 131.0364997 124.0269988
  82.8420012 130.5434997 125.4119988  83.0351637 130.3884020 124.5781144
  81.7740012 116.9344997 124.1429988  81.6910012 117.8234997 124.4899988
  82.6640012 116.6694997 124.3749988  81.8829469 117.0201430 124.2217626
  91.9730012 117.6834997 136.5369988  91.0560012 117.9464997 136.4499988
  92.3080012 117.6804997 135.6409988  91.8928613 117.7190761 136.4038837
  90.5750012 121.4344997 130.6329988  89.7770012 121.0194997 130.3049988
  91.0200012 120.7434997 131.1239988  90.5259885 121.2843543 130.6544889
  80.0330012 127.3624997 123.2039988  80.6250012 128.0614997 123.4799988
  80.4920012 126.9294997 122.4839988  80.1761142 127.3997049 123.1444830
  78.3490012 120.0264997 122.3199988  78.3040012 120.9654997 122.4979988
  77.4610012 119.7904997 122.0499988  78.2228574 120.1231892 122.3078912
  91.6610012 130.6904997 132.2559988  91.5060012 131.3684997 131.5979988
  92.5940012 130.7624997 132.4589988  91.7658657 130.7929546 132.1934360
  79.1570012 114.8084997 130.9929988  78.9280012 114.8674997 130.0649988
  78.7140012 114.0164997 131.2989988  79.0658530 114.7095753 130.9074786
  78.0870012 128.7484997 127.1529988  77.2550012 129.2214997 127.1799988
  78.6330012 129.2584997 126.5549988  78.0470352 128.8821332 127.0758463
  77.3750012 131.3614997 138.4829988  77.9160012 131.1444997 139.2429988
  76.8940012 130.5554997 138.2929988  77.3839951 131.2229270 138.5612576
  81.9730012 130.2804997 140.1029988  82.7400012 129.8214997 140.4439988
  81.9510012 130.0544997 139.1739988  82.0751275 130.1870186 140.0240101
  86.0650012 129.7884997 121.4789988  85.4210012 129.1574997 121.7999988
  86.8270012 129.2574997 121.2469988  86.0798077 129.6302920 121.4916011
  88.5500012 128.6604997 138.8329988  88.1990012 127.8044997 139.0759988
  89.2760012 128.8034997 139.4399988  88.6000769 128.5625636 138.9483619
  90.6690012 129.6054997 121.7119988  90.9520012 128.8114997 122.1649988
  91.4090012 129.8384997 121.1519988  90.8078006 129.5283376 121.6982715
  77.2820012 125.1714997 139.4369988  77.4260012 124.2694997 139.1509988
  76.5100012 125.4574997 138.9499988  77.1972753 125.0866816 139.3319505
  81.6240012 125.5154997 121.5699988  81.6880012 124.7214997 122.1009988
  82.2770012 125.3964997 120.8799988  81.7210241 125.3907148 121.5494317
  83.9380012 125.1414997 138.8699988  83.6090012 125.4124997 138.0129988
  84.0900012 124.2004997 138.7829988  83.9134809 125.0513862 138.7408244
  86.9760012 126.5624997 121.3059988  86.7070012 126.7424997 122.2069988
  86.7700012 125.6364997 121.1739988  86.9113427 126.4620261 121.4115073
  89.6720012 125.0574997 136.2529988  90.4180012 125.6454997 136.1339988
  88.9150012 125.6394997 136.3169988  89.6717820 125.2167143 136.2453590
  78.1150012 122.3714997 138.8569988  78.5230012 121.5144997 138.7359988
  77.8550012 122.3864997 139.7779988  78.1357568 122.2560807 138.9649588
  82.7730012 123.4874997 123.8759988  82.3130012 123.0034997 124.5619988
  83.0280012 122.8194997 123.2399988  82.7444902 123.3308731 123.8839334
  82.0620012 121.3804997 136.2319988  81.4440012 122.0554997 136.5119988
  82.4060012 121.7014997 135.3979988  82.0239132 121.5162411 136.1576262
  83.8440012 121.7304997 122.1379988  83.6640012 121.5764997 121.2109988
  84.7940012 121.8384997 122.1829988  83.9477776 121.7240175 122.0171843
  87.0820012 123.8524997 139.5089988  88.0350012 123.9354997 139.4819988
  86.9210012 123.1404997 140.1289988  87.1906426 123.7676746 139.5890579
  93.2340012 124.0854997 121.5839988  92.9600012 123.6604997 120.7709988
  93.2730012 125.0164997 121.3669988  93.2017699 124.1532484 121.4433610
  82.4010012 118.7354997 137.3139988  82.5510012 118.0064997 136.7119988
  82.4040012 119.5124997 136.7549988  82.4219302 118.7407851 137.1560692
  82.8140012 117.1054997 134.8069988  83.3500012 117.5564997 134.1549988
  81.9620012 116.9974997 134.3839988  82.7722178 117.1526390 134.6605756
  84.3960012 122.5444997 135.0459988  85.1460012 122.3884997 134.4729988
  84.0570012 123.3964997 134.7709988  84.4528921 122.6382968 134.9303561
  88.8110012 120.3594997 140.0749988  89.0040012 119.4284997 139.9629988
  89.6690012 120.7844997 140.0639988  88.9532934 120.2896531 140.0582031
  90.1280012 123.1484997 138.1519988  89.8470012 123.8574997 137.5739988
  91.0710012 123.0754997 138.0009988  90.2169291 123.2356711 138.0524967
  80.8800012 119.9334997 139.2259988  80.1130012 119.4014997 139.0149988
  81.5590012 119.6234997 138.6259988  80.8667877 119.8188300 139.1160716
  83.6200012 114.5614997 135.2379988  83.5210012 115.5084997 135.1329988
  82.8770012 114.1894997 134.7619988  83.5061184 114.6405863 135.1593621
  84.8840012 118.8834997 138.8019988  84.6480012 118.6634997 139.7029988
  84.1000012 118.6764997 138.2919988  84.7458504 118.8254586 138.8563431
  87.5990012 118.0104997 137.8769988  86.6520012 118.0424997 138.0099988
  87.9120012 117.3854997 138.5309988  87.5116707 117.9303998 137.9836060
  89.2330012 116.6444997 139.8829988  89.1370012 115.6924997 139.8769988
  88.9120012 116.9134997 140.7429988  89.1764070 116.5504035 139.9985441
  79.0600012 117.8544997 138.9299988  79.2720012 117.1474997 138.3199988
  78.9490012 117.4164997 139.7739988  79.0739721 117.6987084 138.9606843
  83.8410012 113.8554997 137.9089988  84.5530012 113.2154997 137.8949988
  83.7400012 114.1224997 136.9959988  83.9248066 113.8040079 137.7835677
  84.1950012 115.5384997 139.9629988  84.0630012 115.0624997 139.1429988
  83.5960012 116.2824997 139.9079988  84.0959071 115.5739618 139.8432886
  83.7410012 132.4214997 123.1389988  84.6740012 132.5794997 123.2829988
  83.4770012 133.0964997 122.5149988  83.8329888 132.5344510 123.0742842
  77.3100012 127.0574997 122.6219988  78.2240012 127.1364997 122.8959988
  77.3170012 126.3704997 121.9559988  77.4361131 126.9753961 122.5694393
  75.9590012 132.4504997 127.6999988  75.3120012 131.9884997 127.1669988
  76.3130012 131.7784997 128.2819988  75.9183849 132.2964723 127.7057959
  76.8290012 130.5314997 129.5039988  76.4940012 129.6514997 129.6759988
  77.0510012 130.8764997 130.3689988  76.8131783 130.4577500 129.6444208
  94.3770012 131.3404997 132.4849988  94.3560012 131.5254997 133.4239988
  95.0680012 131.9094997 132.1439988  94.4674618 131.4426606 132.5673864
  93.9410012 130.9084997 135.4069988  93.4530012 130.1724997 135.0349988
  94.4900012 130.5144997 136.0849988  93.9484820 130.7545889 135.4477813
  92.3910012 126.6974997 140.0449988  91.5250012 126.5924997 140.4389988
  92.7680012 127.4564997 140.4909988  92.3233308 126.7856900 140.1592393
  93.6920012 124.9544997 125.5589988  94.5420012 125.3754997 125.6859988
  93.6980012 124.2144997 126.1659988  93.8091372 124.9120803 125.6584344
  94.0870012 123.0074997 127.3819988  93.3600012 122.5284997 127.7799988
  94.6680012 123.2134997 128.1149988  94.0660473 122.9698103 127.5354528
  93.8460012 125.7924997 132.3299988  94.6790012 125.4144997 132.0499988
  93.9580012 126.7354997 132.2109988  93.9752647 125.8682218 132.2755487
  92.3320012 128.6704997 134.6369988  91.6850012 128.9954997 135.2629988
  91.8150012 128.2304997 133.9629988  92.1734029 128.6555004 134.6315827
  94.3550012 122.9084997 123.7739988  93.8330012 123.2654997 123.0549988
  94.3220012 123.5834997 124.4519988  94.2791634 123.0485413 123.7673145
  92.7040012 120.1484997 122.3239988  92.8000012 120.8154997 121.6439988
  92.5640012 119.3324997 121.8429988  92.6982272 120.1295655 122.1658347
  91.8730012 121.5284997 127.9449988  91.7230012 120.5834997 127.9249988
  91.5200012 121.8094997 128.7889988  91.8047448 121.4371481 128.0563705
  76.9090012 123.6064997 131.9559988  77.0930012 123.5244997 131.0199988
  77.7580012 123.4824997 132.3789988  77.0490151 123.5785073 131.8851451
  92.7300012 123.4984997 137.5839988  93.3130012 122.7644997 137.7759988
  93.2940012 124.2704997 137.6309988  92.8859769 123.5024227 137.6166159
  94.2260012 121.4014997 138.2689988  93.3630012 121.0224997 138.1029988
  94.8310012 120.6624997 138.1939988  94.1896119 121.2498268 138.2361528
  91.9510012 117.5564997 121.4419988  92.5620012 117.1854997 122.0789988
  91.1150012 117.1354997 121.6379988  91.9215032 117.4487554 121.5557035
  91.5840012 119.1114997 126.4079988  91.8640012 118.2044997 126.5319988
  92.3430012 119.5454997 126.0189988  91.7249277 119.0460942 126.3723682
  92.1960012 119.6924997 131.8439988  93.1290012 119.9044997 131.8089988
  91.9610012 119.7944997 132.7659988  92.2919244 119.7353100 131.9638892
  92.2250012 120.4294997 134.6199988  91.3820012 120.6974997 134.9859988
  92.6670012 121.2514997 134.4089988  92.1694158 120.5773291 134.6415491
  76.5060012 118.8774997 138.0969988  77.4260012 118.7554997 138.3329988
  76.0570012 118.1274997 138.4859988  76.5711580 118.7593727 138.1819006
  94.5080012 114.4094997 139.9729988  94.8580012 113.7554997 139.3679988
  94.6550012 115.2464997 139.5329988  94.5757887 114.4331548 139.8306858
  92.1970012 116.3744997 126.4559988  92.3800012 115.9254997 127.2819988
  91.5980012 115.7894997 125.9929988  92.1410202 116.2339975 126.5063275
  77.7270012 117.1894997 130.9879988  78.1730012 116.3974997 131.2899988
  78.1940012 117.9054997 131.4179988  77.8510831 117.1780685 131.0874006
  76.0310012 120.1884997 132.0569988  76.5230012 119.9674997 131.2659988
  76.3940012 121.0294997 132.3379988  76.1473126 120.2718357 131.9867531
  94.0280012 116.5184997 138.3219988  93.1100012 116.7894997 138.2869988
  94.1510012 115.9834997 137.5379988  93.9189729 116.4832508 138.2111923
  94.0640012 116.4414997 122.9839988  94.4760012 115.7204997 122.5089988
  94.7460012 117.1114997 123.0429988  94.2125885 116.4332368 122.9268915
  76.3450012 116.4464997 126.1109988  75.4200012 116.6554997 125.9819988
  76.7990012 116.9304997 125.4209988  76.2797292 116.5405343 126.0000720
  91.1160012 131.4304997 128.0569988  91.7680012 131.0834997 127.4489988
  91.6260012 131.9194997 128.7029988  91.2742637 131.4490597 128.0610236
  76.3090012 115.1844997 134.4549988  75.6440012 114.9384997 135.0989988
  75.8660012 115.8064997 133.8779988  76.1581318 115.2349410 134.4650898
  78.5010012 128.3594997 138.5999988  77.6800012 128.5344997 138.1389988
  78.2480012 128.2864997 139.5199988  78.3545585 128.3735544 138.6613561
  81.4550012 129.3344997 134.8579988  81.0300012 130.1434997 134.5759988
  82.3590012 129.4194997 134.5559988  81.5189975 129.4569300 134.7784816
  85.7660012 130.7334997 137.8179988  85.9510012 130.3994997 138.6959988
  86.6120012 131.0424997 137.4959988  85.9057539 130.7296047 137.8945605
  88.1110012 132.0194997 137.0619988  88.7880012 131.3864997 136.8219988
  88.4330012 132.4204997 137.8689988  88.2471637 131.9871154 137.1382793
  93.0280012 114.6084997 136.1409988  92.2160012 114.9334997 135.7539988
  93.2610012 113.8484997 135.6079988  92.9482203 114.5502758 136.0158880
  78.8570012 132.5904997 134.9059988  78.1360012 133.0304997 134.4549988
  78.4910012 132.3394997 135.7539988  78.7089651 132.6167242 134.9589640
  81.3240012 132.1904997 133.9359988  80.4590012 132.2624997 134.3399988
  81.2690012 132.7374997 133.1519988  81.1982085 132.2742685 133.8853362
  86.0340012 132.0784997 133.1109988  85.5780012 132.6074997 132.4569988
  86.1970012 132.6814997 133.8359988  85.9936068 132.2324607 133.1194838
  88.3620012 130.9564997 134.0559988  87.4570012 131.1214997 133.7899988
  88.7910012 131.8094997 133.9909988  88.2961324 131.0944339 134.0107976
  90.9660012 132.5264997 134.3509988  90.7840012 133.4424997 134.1409988
  91.1430012 132.1164997 133.5049988  90.9650210 132.5964822 134.2077885
  78.2710012 131.2134997 131.8159988  78.2530012 130.7884997 132.6729988
  79.0760012 130.8954997 131.4069988  78.3773529 131.1123013 131.8780946
  80.4130012 129.9234997 130.4709988  80.1940012 129.0074997 130.6409988
  81.2370012 130.0634997 130.9369988  80.4944420 129.8170520 130.5572774
  82.9500012 130.3934997 131.3199988  83.1630012 129.5054997 131.0329988
  83.0140012 130.3594997 132.2739988  82.9878232 130.2673102 131.4097397
  86.4580012 116.0574997 130.4639988  85.7840012 115.4284997 130.7199988
  87.0220012 115.5734997 129.8609988  86.4419230 115.9058744 130.4175340
  91.6010012 114.1654997 130.5769988  92.2050012 114.7124997 130.0749988
  90.7310012 114.4844997 130.3359988  91.5661208 114.2835137 130.4756886
  93.3280012 115.3034997 128.9099988  93.9400012 114.7894997 128.3829988
  93.7100012 116.1814997 128.9329988  93.4633371 115.3517866 128.8410041
  78.7850012 114.6914997 128.2859988  78.0080012 114.4574997 127.7789988
  79.3150012 113.8944997 128.2949988  78.7502330 114.5516988 128.2177742
  77.6210012 114.4894997 124.0899988  78.0600012 115.1004997 123.4979988
  76.9880012 115.0274997 124.5639988  77.5954514 114.6459257 124.0730930
  83.3640012 114.6184997 128.0999988  84.2390012 115.0064997 128.0699988
  83.2280012 114.4034997 129.0219988  83.4653695 114.6425184 128.2206440
  88.9210012 114.6484997 129.7489988  88.9970012 114.7434997 128.7989988
  88.6460012 113.7404997 129.8779988  88.8942321 114.5387867 129.6365079
  90.2740012 114.6744997 125.4409988  89.5720012 115.2894997 125.2309988
  89.8300012 113.8364997 125.5719988  90.1176450 114.6455639 125.4299000
  77.5220012 130.4374997 124.9869988  76.8370012 130.3994997 124.3199988
  77.5260012 131.3504997 125.2759988  77.4286998 130.5556733 124.9346771
  79.4820012 116.4054997 122.5319988  79.9740012 115.7754997 122.0049988
  80.1060012 116.7014997 123.1949988  79.6335688 116.3593804 122.5495482
  84.5080012 116.6984997 124.9889988  84.6860012 116.0524997 125.6719988
  84.4550012 117.5324997 125.4559988  84.5251999 116.7228009 125.1455917
  86.3870012 131.6474997 123.3849988  87.2530012 132.0134997 123.2069988
  86.1400012 131.2074997 122.5709988  86.4722392 131.6381756 123.2506289
  93.0960012 131.2104997 126.0639988  92.9010012 130.4624997 125.4989988
  93.0570012 131.9684997 125.4809988  93.0640380 131.2106099 125.9078384
  78.7430012 115.2054997 137.8039988  78.3770012 114.4404997 138.2459988
  79.6560012 115.2344997 138.0899988  78.8162736 115.1045640 137.9032502
  80.7160012 114.5564997 139.3399988  81.6140012 114.2824997 139.1549988
  80.3290012 113.8134997 139.8039988  80.7866612 114.4185914 139.3773643
  79.3400012 131.3574997 122.0129988  79.0730012 131.6444997 122.8859988
  80.1120012 130.8114997 122.1649988  79.4077488 131.3230294 122.1531050
  89.1370012 113.8884997 139.5219988  89.2140012 113.4624997 140.3759988
  90.0310012 113.9024997 139.1789988  89.2683428 113.8320879 139.5925310
  92.3130012 129.9614997 138.2139988  91.5310012 129.7754997 137.6939988
  92.2410012 130.8904997 138.4319988  92.1962274 130.0616643 138.1723018
 106.7190012 123.8474997 128.2449988 106.8080012 124.7914997 128.1129988
 106.0810012 123.5724997 127.5869988 106.6449081 123.9394830 128.1379614
 105.6520012 123.1024997 131.6639988 105.6140012 122.4564997 132.3689988
 105.3300012 122.6364997 130.8929988 105.6032333 122.9509408 131.6562978
  98.0210012 122.7174997 133.2569988  98.0620012 122.0914997 133.9799988
  98.7240012 123.3414997 133.4389988  98.1216363 122.7161196 133.3806044
 109.3580012 126.0414997 129.9649988 108.9180012 125.3214997 130.4159988
 109.3450012 126.7624997 130.5949988 109.2960226 126.0403731 130.1118494
  98.9440012 127.1674997 131.7919988  98.5750012 126.3654997 131.4219988
  99.8850012 126.9984997 131.8379988  99.0207289 127.0350153 131.7476316
  95.5540012 120.8274997 127.1849988  95.1070012 121.6734997 127.1659988
  94.9930012 120.2474997 126.6689988  95.4169900 120.8649916 127.1126801
  96.2650012 122.9894997 129.3099988  96.4780012 122.2194997 129.8379988
  97.0030012 123.0784997 128.7069988  96.3939044 122.8961968 129.3007123
 106.4700012 131.1464997 130.1769988 107.0900012 130.4694997 129.9039988
 106.2620012 130.9284997 131.0859988 106.5266726 131.0244800 130.2624812
 104.0420012 125.5354997 132.0699988 104.3460012 124.8494997 131.4749988
 104.7630012 125.6534997 132.6879988 104.1810671 125.4576305 132.0721816
 112.7050012 117.1364997 132.9309988 112.7540012 117.7464997 133.6659988
 113.1300012 117.5974997 132.2079988 112.7691746 117.2823796 132.9339175
 107.1830012 119.9294997 132.3969988 107.3250012 118.9834997 132.4179988
 107.0760012 120.1364997 131.4689988 107.1879919 119.8278246 132.2743408
 100.3370012 118.0304997 129.6699988 100.3810012 118.8904997 129.2509988
  99.8800012 117.4784997 129.0359988 100.2812240 118.0734422 129.5269864
 108.0600012 118.1614997 128.0709988 108.7060012 117.8324997 128.6949988
 108.5700012 118.6794997 127.4479988 108.2174299 118.1864450 128.0722731
  96.9580012 120.4274997 130.4319988  97.6110012 119.8774997 130.8639988
  96.9820012 120.1534997 129.5149988  97.0506683 120.3151466 130.3672123
 102.1140012 121.9774997 129.6469988 102.7300012 121.4514997 130.1569988
 101.5280012 121.3374997 129.2439988 102.1190810 121.8189208 129.6623173
 113.0960012 118.6144997 135.1659988 112.4080012 119.2724997 135.0709988
 113.1120012 118.4174997 136.1029988 113.0039540 118.6779819 135.2795990
  99.1480012 116.9484997 133.7439988  98.9290012 117.4784997 132.9779988
  98.4800012 117.1754997 134.3909988  99.0277600 117.0516906 133.7266379
 106.5170012 126.4484997 127.2879988 106.2210012 126.1264997 126.4369988
 106.1920012 127.3484997 127.3289988 106.4326371 126.5260215 127.1771801
 101.7170012 124.6244997 134.0309988 100.9770012 125.2224997 134.1349988
 102.4310012 125.1784997 133.7159988 101.7122237 124.7812831 134.0026465
 109.8240012 117.4524997 130.0509988 109.6080012 116.6864997 130.5839988
 110.4790012 117.9244997 130.5639988 109.8830632 117.4115889 130.1932861
  98.7410012 118.8404997 131.6959988  99.3550012 119.4734997 132.0689988
  99.2530012 118.3684997 131.0399988  98.8941981 118.8632267 131.6582908
 100.1240012 126.5884997 134.8179988 100.1190012 127.4684997 134.4399988
  99.2710012 126.5054997 135.2429988 100.0079464 126.6976117 134.8237907
  96.2450012 126.2594997 125.5999988  95.9730012 126.4884997 124.7119988
  96.2910012 127.0974997 126.0609988  96.2139482 126.4041318 125.5406273
 109.8700012 127.8814997 132.3129988 108.9290012 127.9394997 132.4749988
 110.1470012 128.7874997 132.1759988 109.7784679 128.0119443 132.3166815
 110.1710012 116.1674997 133.7309988 109.4350012 116.7784997 133.6929988
 110.8540012 116.5824997 133.2039988 110.1626541 116.3071374 133.6545832
 103.1740012 114.2544997 131.1959988 103.0570012 113.3054997 131.1419988
 102.3190012 114.5864997 131.4699988 103.0424212 114.1695571 131.2256497
 108.1220012 129.6624997 128.9379988 108.5480012 128.9554997 128.4529988
 108.4390012 130.4634997 128.5219988 108.2231683 129.6741017 128.8153680
 109.2820012 127.5634997 127.4469988 109.0240012 126.8734997 126.8359988
 109.3530012 127.1204997 128.2929988 109.2562856 127.4092124 127.4776885
 110.9680012 126.1294997 135.9239988 111.1080012 125.5384997 135.1849988
 111.1350012 127.0024997 135.5679988 111.0097411 126.1665428 135.7746894
 105.4410012 123.0914997 125.6969988 104.7290012 123.6264997 125.3449988
 106.1320012 123.1474997 125.0369988 105.4370132 123.1722543 125.5596289
 105.4940012 121.5494997 122.7359988 106.1950012 121.5714997 123.3869988
 105.7970012 120.9214997 122.0789988 105.6308133 121.4677070 122.7363369
 112.8100012 122.4694997 133.9899988 112.1570012 123.1644997 134.0799988
 113.2750012 122.6794997 133.1809988 112.7835274 122.5930643 133.8928462
 108.8460012 123.3014997 126.6489988 108.1140012 123.5294997 127.2219988
 109.2940012 122.5874997 127.1029988 108.8062725 123.2362145 126.7888816
 108.7440012 121.4754997 135.7159988 108.8240012 122.2384997 136.2879988
 108.1420012 121.7544997 135.0259988 108.6735756 121.6177134 135.7010589
 100.4920012 123.9314997 128.5309988 100.1610012 123.5614997 127.7129988
 101.0800012 123.2614997 128.8779988 100.5261873 123.7901156 128.4658102
 101.8580012 127.3594997 131.2119988 101.7640012 126.7814997 130.4559988
 102.5880012 126.9884997 131.7089988 101.9437386 127.2301663 131.1755342
 100.8580012 122.7004997 132.1649988 101.4240012 122.8214997 131.4019988
 101.1770012 123.3374997 132.8029988 100.9785474 122.8032219 132.1469862
 107.1670012 128.2034997 132.8989988 106.9270012 128.8654997 133.5469988
 106.9690012 127.3694997 133.3239988 107.1073808 128.1813134 133.0451524
 101.7380012 127.0994997 136.8819988 101.4270012 127.8814997 137.3369988
 101.0880012 126.9464997 136.1959988 101.6075558 127.1859105 136.8515871
 107.7170012 122.4634997 124.3339988 108.2970012 122.6134997 125.0809988
 108.1310012 122.9344997 123.6099988 107.8522997 122.5476578 124.3384058
  98.6580012 123.2974997 136.1099988  98.7290012 123.9484997 136.8089988
  97.7680012 123.4004997 135.7749988  98.5473005 123.4005427 136.1603495
 105.4440012 129.2004997 127.7689988 105.9180012 129.4954997 128.5459988
 104.8810012 129.9384997 127.5359988 105.4328184 129.3407247 127.8439628
  99.9780012 129.1714997 137.6449988  99.9850012 129.0354997 136.6979988
  99.0620012 129.0534997 137.8969988  99.8551714 129.1369430 137.5494666
 111.4160012 114.2134997 124.1469988 110.5160012 114.3524997 124.4419988
 111.6680012 115.0444997 123.7449988 111.3268702 114.3449074 124.1330205
  99.4820012 123.0014997 126.1199988  99.1900012 123.7694997 125.6299988
  98.8080012 122.3414997 125.9579988  99.3508111 123.0175587 126.0308978
 112.6050012 128.5794997 122.5229988 112.6790012 129.5184997 122.6939988
 113.5110012 128.2744997 122.4669988 112.7375100 128.6666722 122.5388119
  95.5750012 125.3644997 134.9349988  95.0740012 125.3364997 134.1199988
  95.5800012 124.4584997 135.2449988  95.5070944 125.2382396 134.8653226
  95.3250012 128.1444997 131.8189988  96.2710012 128.0004997 131.7999988
  95.2130012 128.9284997 132.3559988  95.4392727 128.2308046 131.8890072
 113.5230012 128.8104997 137.5019988 113.4740012 127.8554997 137.4649988
 112.6960012 129.0784997 137.9029988 113.4044940 128.7158998 137.5511375
 104.5020012 128.3844997 136.3779988 104.5890012 129.2104997 136.8529988
 103.6380012 128.0544997 136.6269988 104.3971964 128.4529878 136.4766549
 104.9160012 132.1564997 126.1839988 104.8410012 132.0354997 125.2369988
 104.9490012 133.1064997 126.3019988 104.9102068 132.2682646 126.0704967
  98.5690012 130.9454997 127.9649988  98.7220012 130.5974997 128.8429988
  97.7190012 130.5894997 127.7099988  98.4749166 130.8496216 128.0508079
 108.0180012 131.3104997 123.1859988 108.3930012 130.5664997 122.7149988
 108.0220012 131.0404997 124.1049988 108.0699125 131.1720986 123.2456483
 107.6870012 131.2364997 125.9349988 106.7510012 131.3364997 126.1139988
 107.9670012 130.5274997 126.5139988 107.5969553 131.1543406 126.0377087
 110.6750012 120.3034997 137.9819988 110.2680012 120.7844997 137.2609988
 110.7160012 119.3984997 137.6739988 110.6248437 120.2469374 137.8416683
  97.8240012 126.6874997 135.9789988  98.0400012 126.3264997 136.8379988
  96.9690012 126.3134997 135.7689988  97.7379292 126.5874111 136.0683386
 100.4430012 115.1574997 131.9739988  99.5810012 115.0704997 131.5659988
 100.4200012 116.0134997 132.4019988 100.3220409 115.2612883 131.9760589
 105.1060012 114.8794997 135.3489988 105.5260012 114.4644997 136.1019988
 104.1730012 114.7014997 135.4659988 105.0373644 114.7985900 135.4679539
 108.4320012 118.6354997 136.2019988 107.9180012 118.5094997 136.9999988
 108.2770012 119.5474997 135.9579988 108.3406852 118.7416132 136.2782158
 109.1950012 123.4964997 121.9639988 109.2370012 123.2734997 121.0339988
 110.0440012 123.8954997 122.1529988 109.3155280 123.5199438 121.8623554
 104.7670012 117.3724997 122.6339988 104.5140012 117.3914997 123.5569988
 104.5110012 116.5004997 122.3319988 104.6977481 117.2572558 122.7196175
 100.5340012 120.1234997 133.0689988  99.8920012 120.0824997 133.7779988
 100.5710012 121.0494997 132.8309988 100.4510664 120.2431430 133.1339219
 100.5310012 120.3444997 127.9809988  99.6380012 120.0034997 127.9219988
 100.9810012 119.9674997 127.2249988 100.4698130 120.2469631 127.8707702
 106.0660012 120.7604997 126.7979988 105.6570012 121.5754997 126.5069988
 106.7870012 120.6204997 126.1839988 106.1074537 120.8532018 126.6751342
 105.1680012 120.9354997 138.2859988 104.6060012 120.2314997 138.6069988
 105.9950012 120.8154997 138.7539988 105.2027095 120.8227883 138.3932330
 107.0710012 120.2064997 129.6119988 106.8760012 120.8114997 128.8969988
 107.2520012 119.3724997 129.1779988 107.0687614 120.1766300 129.4554405
  98.2840012 120.4434997 134.9359988  98.2460012 120.8434997 135.8049988
  97.7930012 119.6264997 135.0269988  98.2124684 120.3878069 135.0671059
 101.6500012 117.8174997 121.7349988 101.2190012 117.3724997 122.4649988
 100.9320012 118.1894997 121.2229988 101.4939438 117.8068940 121.7656799
  94.8920012 117.5594997 128.7869988  95.5230012 117.5304997 129.5059988
  95.3410012 117.1344997 128.0559988  95.0390918 117.4980836 128.7866441
  96.1660012 118.3054997 124.2109988  96.6400012 118.8964997 123.6259988
  95.4490012 118.8364997 124.5579988  96.1339341 118.4580867 124.1778836
 106.3350012 121.8444997 134.2829988 106.6580012 121.2134997 133.6399988
 105.8950012 121.3094997 134.9439988 106.3197484 121.6858387 134.2843198
 103.1120012 117.7714997 129.0669988 102.2010012 117.8284997 129.3559988
 103.6180012 117.7114997 129.8779988 103.0556899 117.7711941 129.2161184
  97.9410012 119.4004997 127.8939988  97.0510012 119.5004997 127.5539988
  98.2370012 118.5584997 127.5479988  97.8592823 119.3003545 127.8007213
 101.5940012 119.4004997 125.5509988 102.5250012 119.5294997 125.7289988
 101.3790012 120.0704997 124.9009988 101.6924247 119.5086565 125.4875747
 107.5170012 117.0064997 132.3319988 106.8410012 117.1374997 132.9959988
 107.0320012 116.8514997 131.5209988 107.3587146 117.0035157 132.3134469
 100.2680012 120.5954997 123.1169988  99.7250012 120.2154997 122.4259988
 101.1010012 120.7894997 122.6889988 100.3063631 120.5697125 122.9644501
 110.8050012 132.6784997 138.6079988 111.0050012 133.1024997 137.7739988
 111.4600012 133.0214997 139.2149988 110.9210073 132.7829857 138.5758592
  98.4030012 125.1524997 138.2159988  99.1350012 125.4064997 138.7779988
  97.6230012 125.3564997 138.7319988  98.3977073 125.2148160 138.3626151
 104.4320012 120.5594997 130.9539988 104.9970012 120.0124997 130.4069988
 104.2850012 120.0374997 131.7429988 104.4893380 120.4142259 130.9858695
  99.4340012 116.6954997 127.3729988  99.1170012 115.7934997 127.3369988
 100.2160012 116.6974997 126.8199988  99.4962408 116.5722474 127.2933569
 103.0590012 118.9474997 133.3679988 102.2230012 119.4014997 133.4789988
 103.5830012 119.2234997 134.1199988 103.0155416 119.0468660 133.4848119
 103.6030012 125.1604997 125.0529988 102.8580012 124.6534997 124.7309988
 103.4690012 125.2094997 125.9999988 103.4828776 125.0976940 125.1368647
 110.7530012 124.2934997 133.8399988 111.3950012 124.7504997 133.2959988
 109.9230012 124.4064997 133.3769988 110.7285963 124.3712704 133.7030177
 107.5010012 117.9744997 123.2519988 106.5620012 118.0864997 123.1009988
 107.7980012 118.8314997 123.5589988 107.4127583 118.1055981 123.2728337
 105.1220012 125.3444997 136.2899988 104.7770012 124.9634997 137.0969988
 104.9220012 126.2784997 136.3609988 105.0477527 125.4185135 136.4100689
 108.2190012 119.8414997 124.9129988 109.1110012 119.7044997 125.2319988
 108.2760012 120.6324997 124.3759988 108.3486504 119.9296052 124.8840818
  98.7280012 124.4554997 130.8229988  99.4730012 124.4534997 130.2219988
  98.8060012 123.6324997 131.3039988  98.8404995 124.3438887 130.8058282
 105.7290012 126.6194997 124.0789988 105.4330012 127.4454997 124.4599988
 105.0260012 125.9994997 124.2749988 105.5934914 126.6488199 124.1576443
  95.7360012 122.9164997 136.1379988  95.9590012 122.4984997 136.9699988
  95.1340012 122.3034997 135.7149988  95.6851759 122.7764668 136.1947022
 102.7520012 122.4334997 138.3509988 102.4560012 122.2674997 137.4559988
 103.6840012 122.2134997 138.3399988 102.8374166 122.3810640 138.2270536
 107.3730012 127.8064997 136.2409988 106.4720012 127.9894997 135.9729988
 107.4070012 128.0654997 137.1609988 107.2543139 127.8665849 136.3288099
 113.1040012 120.0514997 124.6079988 112.5500012 119.6554997 123.9359988
 113.2040012 120.9614997 124.3299988 113.0417059 120.1203586 124.4784401
 113.0670012 125.8514997 137.4449988 112.2160012 126.0894997 137.0779988
 113.6580012 125.8344997 136.6919988 113.0302487 125.8818258 137.2928893
 111.3990012 128.8374997 125.0729988 111.0260012 128.0114997 125.3819988
 111.6770012 128.6544997 124.1749988 111.3855222 128.6997430 124.9939473
 108.5600012 123.6454997 132.0939988 107.6310012 123.4134997 132.0669988
 109.0110012 122.8684997 131.7639988 108.4939216 123.5087238 132.0456917
 101.1030012 127.9734997 128.2269988 101.6300012 128.7464997 128.0269988
 100.2230012 128.1984997 127.9249988 101.0562031 128.1097545 128.1587912
  96.8580012 122.8354997 122.8139988  97.4740012 123.4624997 123.1939988
  95.9960012 123.1514997 123.0859988  96.8257698 122.9639430 122.9027183
 102.5300012 125.6364997 127.8029988 102.2890012 126.5614997 127.8449988
 101.7890012 125.1774997 128.1999988 102.3969225 125.7010933 127.8623742
 103.0450012 129.7854997 134.1189988 103.4070012 130.6404997 133.8849988
 103.5760012 129.4934997 134.8589988 103.1664473 129.8631060 134.1870855
 101.2130012 130.6584997 127.3489988 100.2630012 130.7634997 127.3999988
 101.5650012 131.4784997 127.6929988 101.1304195 130.7838800 127.4025502
 106.5890012 125.8844997 133.8189988 106.1630012 125.6574997 134.6459988
 107.1690012 125.1464997 133.6369988 106.6091868 125.7535299 133.9075830
 108.7920012 126.8134997 122.8929988 109.1450012 126.4334997 123.6969988
 107.8430012 126.7204997 122.9799988 108.7120918 126.7488956 123.0148532
 109.2470012 130.4364997 136.2889988 108.6460012 129.8814997 135.7929988
 109.5290012 131.1034997 135.6619988 109.2028804 130.4506625 136.1364849
 113.2950012 131.2934997 123.0939988 114.0390012 131.8794997 122.9539988
 112.6010012 131.8614997 123.4269988 113.3029899 131.4505798 123.1198778
  97.3700012 117.6694997 135.6959988  96.4770012 118.0084997 135.6279988
  97.2710012 116.8144997 136.1139988  97.2344164 117.6002588 135.7432235
 109.6580012 125.4864997 125.1199988 109.3800012 124.7584997 125.6759988
 110.5850012 125.6054997 125.3249988 109.7453124 125.4028802 125.2238845
  97.0210012 129.4744997 134.1309988  97.2380012 128.5424997 134.0999988
  97.2670012 129.7484997 135.0139988  97.0839549 129.3840636 134.2461763
 102.8830012 127.9254997 121.3399988 103.1220012 127.1774997 120.7929988
 102.6140012 127.5374997 122.1729988 102.8793675 127.7706638 121.3776865
 101.8200012 127.4954997 123.7959988 101.9660012 126.9754997 124.5859988
 101.8170012 128.4024997 124.1029988 101.8395792 127.5468842 123.9456117
  98.2730012 124.7484997 124.3069988  97.5870012 125.1004997 124.8739988
  98.7950012 125.5114997 124.0599988  98.2496852 124.8998578 124.3512118
 106.1040012 117.4104997 134.5859988 106.8030012 117.4844997 135.2359988
 105.7230012 116.5464997 134.7399988 106.1481767 117.3037624 134.6958322
 106.8890012 117.0624997 125.6829988 107.1090012 117.5344997 124.8799988
 107.4470012 117.4574997 126.3529988 106.9944968 117.1804285 125.6637331
 104.5570012 129.1934997 124.5459988 103.7410012 129.6904997 124.5979988
 105.0870012 129.6684997 123.9059988 104.5169161 129.3257722 124.4665956
 104.0890012 118.7904997 126.5179988 104.9010012 119.2954997 126.5639988
 103.8440012 118.6454997 127.4319988 104.1670520 118.8400375 126.6478517
 104.6240012 119.7764997 135.7019988 104.7430012 120.3504997 136.4599988
 105.2800012 119.0884997 135.8169988 104.7289025 119.7619858 135.8211321
 104.9720012 115.8714997 127.4559988 104.6260012 116.4894997 128.0999988
 105.6310012 116.3724997 126.9739988 105.0136968 116.0236278 127.4789383
 101.8960012 130.2374997 124.5269988 102.0560012 131.0364997 124.0269988
 101.6980012 130.5434997 125.4119988 101.8911637 130.3884020 124.5781144
 100.6300012 116.9344997 124.1429988 100.5470012 117.8234997 124.4899988
 101.5200012 116.6694997 124.3749988 100.7389469 117.0201430 124.2217626
 110.8290012 117.6834997 136.5369988 109.9120012 117.9464997 136.4499988
 111.1640012 117.6804997 135.6409988 110.7488613 117.7190761 136.4038837
 109.4310012 121.4344997 130.6329988 108.6330012 121.0194997 130.3049988
 109.8760012 120.7434997 131.1239988 109.3819885 121.2843543 130.6544889
  98.8890012 127.3624997 123.2039988  99.4810012 128.0614997 123.4799988
  99.3480012 126.9294997 122.4839988  99.0321142 127.3997049 123.1444830
  97.2050012 120.0264997 122.3199988  97.1600012 120.9654997 122.4979988
  96.3170012 119.7904997 122.0499988  97.0788574 120.1231892 122.3078912
 110.5170012 130.6904997 132.2559988 110.3620012 131.3684997 131.5979988
 111.4500012 130.7624997 132.4589988 110.6218657 130.7929546 132.1934360
  98.0130012 114.8084997 130.9929988  97.7840012 114.8674997 130.0649988
  97.5700012 114.0164997 131.2989988  97.9218530 114.7095753 130.9074786
  96.9430012 128.7484997 127.1529988  96.1110012 129.2214997 127.1799988
  97.4890012 129.2584997 126.5549988  96.9030352 128.8821332 127.0758463
  96.2310012 131.3614997 138.4829988  96.7720012 131.1444997 139.2429988
  95.7500012 130.5554997 138.2929988  96.2399951 131.2229270 138.5612576
 100.8290012 130.2804997 140.1029988 101.5960012 129.8214997 140.4439988
 100.8070012 130.0544997 139.1739988 100.9311275 130.1870186 140.0240101
 104.9210012 129.7884997 121.4789988 104.2770012 129.1574997 121.7999988
 105.6830012 129.2574997 121.2469988 104.9358077 129.6302920 121.4916011
 107.4060012 128.6604997 138.8329988 107.0550012 127.8044997 139.0759988
 108.1320012 128.8034997 139.4399988 107.4560769 128.5625636 138.9483619
 109.5250012 129.6054997 121.7119988 109.8080012 128.8114997 122.1649988
 110.2650012 129.8384997 121.1519988 109.6638006 129.5283376 121.6982715
  96.1380012 125.1714997 139.4369988  96.2820012 124.2694997 139.1509988
  95.3660012 125.4574997 138.9499988  96.0532753 125.0866816 139.3319505
 100.4800012 125.5154997 121.5699988 100.5440012 124.7214997 122.1009988
 101.1330012 125.3964997 120.8799988 100.5770241 125.3907148 121.5494317
 102.7940012 125.1414997 138.8699988 102.4650012 125.4124997 138.0129988
 102.9460012 124.2004997 138.7829988 102.7694809 125.0513862 138.7408244
 105.8320012 126.5624997 121.3059988 105.5630012 126.7424997 122.2069988
 105.6260012 125.6364997 121.1739988 105.7673427 126.4620261 121.4115073
 108.5280012 125.0574997 136.2529988 109.2740012 125.6454997 136.1339988
 107.7710012 125.6394997 136.3169988 108.5277820 125.2167143 136.2453590
  96.9710012 122.3714997 138.8569988  97.3790012 121.5144997 138.7359988
  96.7110012 122.3864997 139.7779988  96.9917568 122.2560807 138.9649588
 101.6290012 123.4874997 123.8759988 101.1690012 123.0034997 124.5619988
 101.8840012 122.8194997 123.2399988 101.6004902 123.3308731 123.8839334
 100.9180012 121.3804997 136.2319988 100.3000012 122.0554997 136.5119988
 101.2620012 121.7014997 135.3979988 100.8799132 121.5162411 136.1576262
 102.7000012 121.7304997 122.1379988 102.5200012 121.5764997 121.2109988
 103.6500012 121.8384997 122.1829988 102.8037776 121.7240175 122.0171843
 105.9380012 123.8524997 139.5089988 106.8910012 123.9354997 139.4819988
 105.7770012 123.1404997 140.1289988 106.0466426 123.7676746 139.5890578
 112.0900012 124.0854997 121.5839988 111.8160012 123.6604997 120.7709988
 112.1290012 125.0164997 121.3669988 112.0577699 124.1532484 121.4433610
 101.2570012 118.7354997 137.3139988 101.4070012 118.0064997 136.7119988
 101.2600012 119.5124997 136.7549988 101.2779302 118.7407851 137.1560692
 101.6700012 117.1054997 134.8069988 102.2060012 117.5564997 134.1549988
 100.8180012 116.9974997 134.3839988 101.6282178 117.1526390 134.6605756
 103.2520012 122.5444997 135.0459988 104.0020012 122.3884997 134.4729988
 102.9130012 123.3964997 134.7709988 103.3088921 122.6382968 134.9303561
 107.6670012 120.3594997 140.0749988 107.8600012 119.4284997 139.9629988
 108.5250012 120.7844997 140.0639988 107.8092934 120.2896531 140.0582031
 108.9840012 123.1484997 138.1519988 108.7030012 123.8574997 137.5739988
 109.9270012 123.0754997 138.0009988 109.0729291 123.2356711 138.0524967
  99.7360012 119.9334997 139.2259988  98.9690012 119.4014997 139.0149988
 100.4150012 119.6234997 138.6259988  99.7227877 119.8188300 139.1160716
 102.4760012 114.5614997 135.2379988 102.3770012 115.5084997 135.1329988
 101.7330012 114.1894997 134.7619988 102.3621184 114.6405863 135.1593621
 103.7400012 118.8834997 138.8019988 103.5040012 118.6634997 139.7029988
 102.9560012 118.6764997 138.2919988 103.6018504 118.8254586 138.8563431
 106.4550012 118.0104997 137.8769988 105.5080012 118.0424997 138.0099988
 106.7680012 117.3854997 138.5309988 106.3676707 117.9303998 137.9836060
 108.0890012 116.6444997 139.8829988 107.9930012 115.6924997 139.8769988
 107.7680012 116.9134997 140.7429988 108.0324070 116.5504035 139.9985441
  97.9160012 117.8544997 138.9299988  98.1280012 117.1474997 138.3199988
  97.8050012 117.4164997 139.7739988  97.9299721 117.6987084 138.9606843
 102.6970012 113.8554997 137.9089988 103.4090012 113.2154997 137.8949988
 102.5960012 114.1224997 136.9959988 102.7808066 113.8040079 137.7835677
 103.0510012 115.5384997 139.9629988 102.9190012 115.0624997 139.1429988
 102.4520012 116.2824997 139.9079988 102.9519071 115.5739618 139.8432886
 102.5970012 132.4214997 123.1389988 103.5300012 132.5794997 123.2829988
 102.3330012 133.0964997 122.5149988 102.6889888 132.5344510 123.0742842
  96.1660012 127.0574997 122.6219988  97.0800012 127.1364997 122.8959988
  96.1730012 126.3704997 121.9559988  96.2921131 126.9753961 122.5694393
  94.8150012 132.4504997 127.6999988  94.1680012 131.9884997 127.1669988
  95.1690012 131.7784997 128.2819988  94.7743849 132.2964723 127.7057959
  95.6850012 130.5314997 129.5039988  95.3500012 129.6514997 129.6759988
  95.9070012 130.8764997 130.3689988  95.6691783 130.4577500 129.6444208
 113.2330012 131.3404997 132.4849988 113.2120012 131.5254997 133.4239988
 113.9240012 131.9094997 132.1439988 113.3234618 131.4426606 132.5673864
 112.7970012 130.9084997 135.4069988 112.3090012 130.1724997 135.0349988
 113.3460012 130.5144997 136.0849988 112.8044820 130.7545889 135.4477813
 111.2470012 126.6974997 140.0449988 110.3810012 126.5924997 140.4389988
 111.6240012 127.4564997 140.4909988 111.1793308 126.7856900 140.1592393
 112.5480012 124.9544997 125.5589988 113.3980012 125.3754997 125.6859988
 112.5540012 124.2144997 126.1659988 112.6651372 124.9120803 125.6584344
 112.9430012 123.0074997 127.3819988 112.2160012 122.5284997 127.7799988
 113.5240012 123.2134997 128.1149988 112.9220473 122.9698103 127.5354528
 112.7020012 125.7924997 132.3299988 113.5350012 125.4144997 132.0499988
 112.8140012 126.7354997 132.2109988 112.8312647 125.8682218 132.2755487
 111.1880012 128.6704997 134.6369988 110.5410012 128.9954997 135.2629988
 110.6710012 128.2304997 133.9629988 111.0294029 128.6555004 134.6315827
 113.2110012 122.9084997 123.7739988 112.6890012 123.2654997 123.0549988
 113.1780012 123.5834997 124.4519988 113.1351634 123.0485413 123.7673145
 111.5600012 120.1484997 122.3239988 111.6560012 120.8154997 121.6439988
 111.4200012 119.3324997 121.8429988 111.5542272 120.1295655 122.1658347
 110.7290012 121.5284997 127.9449988 110.5790012 120.5834997 127.9249988
 110.3760012 121.8094997 128.7889988 110.6607448 121.4371481 128.0563705
  95.7650012 123.6064997 131.9559988  95.9490012 123.5244997 131.0199988
  96.6140012 123.4824997 132.3789988  95.9050151 123.5785073 131.8851451
 111.5860012 123.4984997 137.5839988 112.1690012 122.7644997 137.7759988
 112.1500012 124.2704997 137.6309988 111.7419769 123.5024227 137.6166159
 113.0820012 121.4014997 138.2689988 112.2190012 121.0224997 138.1029988
 113.6870012 120.6624997 138.1939988 113.0456119 121.2498268 138.2361528
 110.8070012 117.5564997 121.4419988 111.4180012 117.1854997 122.0789988
 109.9710012 117.1354997 121.6379988 110.7775032 117.4487554 121.5557035
 110.4400012 119.1114997 126.4079988 110.7200012 118.2044997 126.5319988
 111.1990012 119.5454997 126.0189988 110.5809277 119.0460942 126.3723682
 111.0520012 119.6924997 131.8439988 111.9850012 119.9044997 131.8089988
 110.8170012 119.7944997 132.7659988 111.1479244 119.7353100 131.9638892
 111.0810012 120.4294997 134.6199988 110.2380012 120.6974997 134.9859988
 111.5230012 121.2514997 134.4089988 111.0254158 120.5773291 134.6415491
  95.3620012 118.8774997 138.0969988  96.2820012 118.7554997 138.3329988
  94.9130012 118.1274997 138.4859988  95.4271580 118.7593727 138.1819006
 113.3640012 114.4094997 139.9729988 113.7140012 113.7554997 139.3679988
 113.5110012 115.2464997 139.5329988 113.4317887 114.4331548 139.8306858
 111.0530012 116.3744997 126.4559988 111.2360012 115.9254997 127.2819988
 110.4540012 115.7894997 125.9929988 110.9970202 116.2339975 126.5063275
  96.5830012 117.1894997 130.9879988  97.0290012 116.3974997 131.2899988
  97.0500012 117.9054997 131.4179988  96.7070831 117.1780685 131.0874006
  94.8870012 120.1884997 132.0569988  95.3790012 119.9674997 131.2659988
  95.2500012 121.0294997 132.3379988  95.0033126 120.2718357 131.9867531
 112.8840012 116.5184997 138.3219988 111.9660012 116.7894997 138.2869988
 113.0070012 115.9834997 137.5379988 112.7749729 116.4832508 138.2111923
 112.9200012 116.4414997 122.9839988 113.3320012 115.7204997 122.5089988
 113.6020012 117.1114997 123.0429988 113.0685885 116.4332368 122.9268915
  95.2010012 116.4464997 126.1109988  94.2760012 116.6554997 125.9819988
  95.6550012 116.9304997 125.4209988  95.1357292 116.5405343 126.0000720
 109.9720012 131.4304997 128.0569988 110.6240012 131.0834997 127.4489988
 110.4820012 131.9194997 128.7029988 110.1302637 131.4490597 128.0610236
  95.1650012 115.1844997 134.4549988  94.5000012 114.9384997 135.0989988
  94.7220012 115.8064997 133.8779988  95.0141318 115.2349410 134.4650898
  97.3570012 128.3594997 138.5999988  96.5360012 128.5344997 138.1389988
  97.1040012 128.2864997 139.5199988  97.2105585 128.3735544 138.6613561
 100.3110012 129.3344997 134.8579988  99.8860012 130.1434997 134.5759988
 101.2150012 129.4194997 134.5559988 100.3749975 129.4569300 134.7784816
 104.6220012 130.7334997 137.8179988 104.8070012 130.3994997 138.6959988
 105.4680012 131.0424997 137.4959988 104.7617539 130.7296047 137.8945605
 106.9670012 132.0194997 137.0619988 107.6440012 131.3864997 136.8219988
 107.2890012 132.4204997 137.8689988 107.1031637 131.9871154 137.1382793
 111.8840012 114.6084997 136.1409988 111.0720012 114.9334997 135.7539988
 112.1170012 113.8484997 135.6079988 111.8042203 114.5502758 136.0158880
  97.7130012 132.5904997 134.9059988  96.9920012 133.0304997 134.4549988
  97.3470012 132.3394997 135.7539988  97.5649651 132.6167242 134.9589640
 100.1800012 132.1904997 133.9359988  99.3150012 132.2624997 134.3399988
 100.1250012 132.7374997 133.1519988 100.0542085 132.2742685 133.8853362
 104.8900012 132.0784997 133.1109988 104.4340012 132.6074997 132.4569988
 105.0530012 132.6814997 133.8359988 104.8496068 132.2324607 133.1194838
 107.2180012 130.9564997 134.0559988 106.3130012 131.1214997 133.7899988
 107.6470012 131.8094997 133.9909988 107.1521324 131.0944339 134.0107976
 109.8220012 132.5264997 134.3509988 109.6400012 133.4424997 134.1409988
 109.9990012 132.1164997 133.5049988 109.8210210 132.5964822 134.2077885
  97.1270012 131.2134997 131.8159988  97.1090012 130.7884997 132.6729988
  97.9320012 130.8954997 131.4069988  97.2333529 131.1123013 131.8780946
  99.2690012 129.9234997 130.4709988  99.0500012 129.0074997 130.6409988
 100.0930012 130.0634997 130.9369988  99.3504420 129.8170520 130.5572774
 101.8060012 130.3934997 131.3199988 102.0190012 129.5054997 131.0329988
 101.8700012 130.3594997 132.2739988 101.8438232 130.2673102 131.4097397
 105.3140012 116.0574997 130.4639988 104.6400012 115.4284997 130.7199988
 105.8780012 115.5734997 129.8609988 105.2979230 115.9058744 130.4175340
 110.4570012 114.1654997 130.5769988 111.0610012 114.7124997 130.0749988
 109.5870012 114.4844997 130.3359988 110.4221208 114.2835137 130.4756886
 112.1840012 115.3034997 128.9099988 112.7960012 114.7894997 128.3829988
 112.5660012 116.1814997 128.9329988 112.3193371 115.3517866 128.8410041
  97.6410012 114.6914997 128.2859988  96.8640012 114.4574997 127.7789988
  98.1710012 113.8944997 128.2949988  97.6062330 114.5516988 128.2177742
  96.4770012 114.4894997 124.0899988  96.9160012 115.1004997 123.4979988
  95.8440012 115.0274997 124.5639988  96.4514514 114.6459257 124.0730930
 102.2200012 114.6184997 128.0999988 103.0950012 115.0064997 128.0699988
 102.0840012 114.4034997 129.0219988 102.3213695 114.6425184 128.2206440
 107.7770012 114.6484997 129.7489988 107.8530012 114.7434997 128.7989988
 107.5020012 113.7404997 129.8779988 107.7502321 114.5387867 129.6365079
 109.1300012 114.6744997 125.4409988 108.4280012 115.2894997 125.2309988
 108.6860012 113.8364997 125.5719988 108.9736450 114.6455639 125.4299000
  96.3780012 130.4374997 124.9869988  95.6930012 130.3994997 124.3199988
  96.3820012 131.3504997 125.2759988  96.2846998 130.5556733 124.9346771
  98.3380012 116.4054997 122.5319988  98.8300012 115.7754997 122.0049988
  98.9620012 116.7014997 123.1949988  98.4895688 116.3593804 122.5495482
 103.3640012 116.6984997 124.9889988 103.5420012 116.0524997 125.6719988
 103.3110012 117.5324997 125.4559988 103.3811999 116.7228009 125.1455917
 105.2430012 131.6474997 123.3849988 106.1090012 132.0134997 123.2069988
 104.9960012 131.2074997 122.5709988 105.3282392 131.6381756 123.2506289
 111.9520012 131.2104997 126.0639988 111.7570012 130.4624997 125.4989988
 111.9130012 131.9684997 125.4809988 111.9200380 131.2106099 125.9078384
  97.5990012 115.2054997 137.8039988  97.2330012 114.4404997 138.2459988
  98.5120012 115.2344997 138.0899988  97.6722736 115.1045640 137.9032502
  99.5720012 114.5564997 139.3399988 100.4700012 114.2824997 139.1549988
  99.1850012 113.8134997 139.8039988  99.6426612 114.4185914 139.3773643
  98.1960012 131.3574997 122.0129988  97.9290012 131.6444997 122.8859988
  98.9680012 130.8114997 122.1649988  98.2637488 131.3230294 122.1531050
 107.9930012 113.8884997 139.5219988 108.0700012 113.4624997 140.3759988
 108.8870012 113.9024997 139.1789988 108.1243428 113.8320879 139.5925310
 111.1690012 129.9614997 138.2139988 110.3870012 129.7754997 137.6939988
 111.0970012 130.8904997 138.4319988 111.0522274 130.0616643 138.1723018
 125.5750012 123.8474997 128.2449988 125.6640012 124.7914997 128.1129988
 124.9370012 123.5724997 127.5869988 125.5009081 123.9394830 128.1379614
 124.5080012 123.1024997 131.6639988 124.4700012 122.4564997 132.3689988
 124.1860012 122.6364997 130.8929988 124.4592333 122.9509408 131.6562978
 116.8770012 122.7174997 133.2569988 116.9180012 122.0914997 133.9799988
 117.5800012 123.3414997 133.4389988 116.9776363 122.7161196 133.3806044
 128.2140012 126.0414997 129.9649988 127.7740012 125.3214997 130.4159988
 128.2010012 126.7624997 130.5949988 128.1520226 126.0403731 130.1118494
 117.8000012 127.1674997 131.7919988 117.4310012 126.3654997 131.4219988
 118.7410012 126.9984997 131.8379988 117.8767289 127.0350153 131.7476316
 114.4100012 120.8274997 127.1849988 113.9630012 121.6734997 127.1659988
 113.8490012 120.2474997 126.6689988 114.2729900 120.8649916 127.1126801
 115.1210012 122.9894997 129.3099988 115.3340012 122.2194997 129.8379988
 115.8590012 123.0784997 128.7069988 115.2499044 122.8961968 129.3007123
 125.3260012 131.1464997 130.1769988 125.9460012 130.4694997 129.9039988
 125.1180012 130.9284997 131.0859988 125.3826726 131.0244800 130.2624812
 122.8980012 125.5354997 132.0699988 123.2020012 124.8494997 131.4749988
 123.6190012 125.6534997 132.6879988 123.0370671 125.4576305 132.0721816
 131.5610012 117.1364997 132.9309988 131.6100012 117.7464997 133.6659988
 131.9860012 117.5974997 132.2079988 131.6251746 117.2823796 132.9339175
 126.0390012 119.9294997 132.3969988 126.1810012 118.9834997 132.4179988
 125.9320012 120.1364997 131.4689988 126.0439919 119.8278246 132.2743408
 119.1930012 118.0304997 129.6699988 119.2370012 118.8904997 129.2509988
 118.7360012 117.4784997 129.0359988 119.1372240 118.0734422 129.5269864
 126.9160012 118.1614997 128.0709988 127.5620012 117.8324997 128.6949988
 127.4260012 118.6794997 127.4479988 127.0734299 118.1864450 128.0722731
 115.8140012 120.4274997 130.4319988 116.4670012 119.8774997 130.8639988
 115.8380012 120.1534997 129.5149988 115.9066683 120.3151466 130.3672123
 120.9700012 121.9774997 129.6469988 121.5860012 121.4514997 130.1569988
 120.3840012 121.3374997 129.2439988 120.9750810 121.8189208 129.6623173
 131.9520012 118.6144997 135.1659988 131.2640012 119.2724997 135.0709988
 131.9680012 118.4174997 136.1029988 131.8599540 118.6779819 135.2795990
 118.0040012 116.9484997 133.7439988 117.7850012 117.4784997 132.9779988
 117.3360012 117.1754997 134.3909988 117.8837600 117.0516906 133.7266379
 125.3730012 126.4484997 127.2879988 125.0770012 126.1264997 126.4369988
 125.0480012 127.3484997 127.3289988 125.2886371 126.5260215 127.1771801
 120.5730012 124.6244997 134.0309988 119.8330012 125.2224997 134.1349988
 121.2870012 125.1784997 133.7159988 120.5682237 124.7812831 134.0026465
 128.6800012 117.4524997 130.0509988 128.4640012 116.6864997 130.5839988
 129.3350012 117.9244997 130.5639988 128.7390632 117.4115889 130.1932861
 117.5970012 118.8404997 131.6959988 118.2110012 119.4734997 132.0689988
 118.1090012 118.3684997 131.0399988 117.7501981 118.8632267 131.6582908
 118.9800012 126.5884997 134.8179988 118.9750012 127.4684997 134.4399988
 118.1270012 126.5054997 135.2429988 118.8639464 126.6976117 134.8237907
 115.1010012 126.2594997 125.5999988 114.8290012 126.4884997 124.7119988
 115.1470012 127.0974997 126.0609988 115.0699482 126.4041318 125.5406273
 128.7260012 127.8814997 132.3129988 127.7850012 127.9394997 132.4749988
 129.0030012 128.7874997 132.1759988 128.6344679 128.0119443 132.3166815
 129.0270012 116.1674997 133.7309988 128.2910012 116.7784997 133.6929988
 129.7100012 116.5824997 133.2039988 129.0186541 116.3071374 133.6545832
 122.0300012 114.2544997 131.1959988 121.9130012 113.3054997 131.1419988
 121.1750012 114.5864997 131.4699988 121.8984212 114.1695571 131.2256497
 126.9780012 129.6624997 128.9379988 127.4040012 128.9554997 128.4529988
 127.2950012 130.4634997 128.5219988 127.0791683 129.6741017 128.8153680
 128.1380012 127.5634997 127.4469988 127.8800012 126.8734997 126.8359988
 128.2090012 127.1204997 128.2929988 128.1122856 127.4092124 127.4776885
 129.8240012 126.1294997 135.9239988 129.9640012 125.5384997 135.1849988
 129.9910012 127.0024997 135.5679988 129.8657411 126.1665428 135.7746894
 124.2970012 123.0914997 125.6969988 123.5850012 123.6264997 125.3449988
 124.9880012 123.1474997 125.0369988 124.2930132 123.1722543 125.5596289
 124.3500012 121.5494997 122.7359988 125.0510012 121.5714997 123.3869988
 124.6530012 120.9214997 122.0789988 124.4868133 121.4677070 122.7363369
 131.6660012 122.4694997 133.9899988 131.0130012 123.1644997 134.0799988
 132.1310012 122.6794997 133.1809988 131.6395274 122.5930643 133.8928462
 127.7020012 123.3014997 126.6489988 126.9700012 123.5294997 127.2219988
 128.1500012 122.5874997 127.1029988 127.6622725 123.2362145 126.7888816
 127.6000012 121.4754997 135.7159988 127.6800012 122.2384997 136.2879988
 126.9980012 121.7544997 135.0259988 127.5295756 121.6177134 135.7010589
 119.3480012 123.9314997 128.5309988 119.0170012 123.5614997 127.7129988
 119.9360012 123.2614997 128.8779988 119.3821873 123.7901156 128.4658102
 120.7140012 127.3594997 131.2119988 120.6200012 126.7814997 130.4559988
 121.4440012 126.9884997 131.7089988 120.7997387 127.2301663 131.1755342
 119.7140012 122.7004997 132.1649988 120.2800012 122.8214997 131.4019988
 120.0330012 123.3374997 132.8029988 119.8345474 122.8032219 132.1469862
 126.0230012 128.2034997 132.8989988 125.7830012 128.8654997 133.5469988
 125.8250012 127.3694997 133.3239988 125.9633808 128.1813134 133.0451524
 120.5940012 127.0994997 136.8819988 120.2830012 127.8814997 137.3369988
 119.9440012 126.9464997 136.1959988 120.4635558 127.1859105 136.8515871
 126.5730012 122.4634997 124.3339988 127.1530012 122.6134997 125.0809988
 126.9870012 122.9344997 123.6099988 126.7082997 122.5476578 124.3384058
 117.5140012 123.2974997 136.1099988 117.5850012 123.9484997 136.8089988
 116.6240012 123.4004997 135.7749988 117.4033005 123.4005427 136.1603495
 124.3000012 129.2004997 127.7689988 124.7740012 129.4954997 128.5459988
 123.7370012 129.9384997 127.5359988 124.2888184 129.3407247 127.8439628
 118.8340012 129.1714997 137.6449988 118.8410012 129.0354997 136.6979988
 117.9180012 129.0534997 137.8969988 118.7111714 129.1369430 137.5494666
 130.2720012 114.2134997 124.1469988 129.3720012 114.3524997 124.4419988
 130.5240012 115.0444997 123.7449988 130.1828702 114.3449074 124.1330205
 118.3380012 123.0014997 126.1199988 118.0460012 123.7694997 125.6299988
 117.6640012 122.3414997 125.9579988 118.2068111 123.0175587 126.0308978
 131.4610012 128.5794997 122.5229988 131.5350012 129.5184997 122.6939988
 132.3670012 128.2744997 122.4669988 131.5935100 128.6666722 122.5388119
 114.4310012 125.3644997 134.9349988 113.9300012 125.3364997 134.1199988
 114.4360012 124.4584997 135.2449988 114.3630944 125.2382396 134.8653226
 114.1810012 128.1444997 131.8189988 115.1270012 128.0004997 131.7999988
 114.0690012 128.9284997 132.3559988 114.2952727 128.2308046 131.8890072
 132.3790012 128.8104997 137.5019988 132.3300012 127.8554997 137.4649988
 131.5520012 129.0784997 137.9029988 132.2604940 128.7158998 137.5511375
 123.3580012 128.3844997 136.3779988 123.4450012 129.2104997 136.8529988
 122.4940012 128.0544997 136.6269988 123.2531964 128.4529878 136.4766549
 123.7720012 132.1564997 126.1839988 123.6970012 132.0354997 125.2369988
 123.8050012 133.1064997 126.3019988 123.7662068 132.2682646 126.0704967
 117.4250012 130.9454997 127.9649988 117.5780012 130.5974997 128.8429988
 116.5750012 130.5894997 127.7099988 117.3309166 130.8496216 128.0508079
 126.8740012 131.3104997 123.1859988 127.2490012 130.5664997 122.7149988
 126.8780012 131.0404997 124.1049988 126.9259125 131.1720986 123.2456483
 126.5430012 131.2364997 125.9349988 125.6070012 131.3364997 126.1139988
 126.8230012 130.5274997 126.5139988 126.4529553 131.1543406 126.0377087
 129.5310012 120.3034997 137.9819988 129.1240012 120.7844997 137.2609988
 129.5720012 119.3984997 137.6739988 129.4808437 120.2469374 137.8416683
 116.6800012 126.6874997 135.9789988 116.8960012 126.3264997 136.8379988
 115.8250012 126.3134997 135.7689988 116.5939292 126.5874111 136.0683386
 119.2990012 115.1574997 131.9739988 118.4370012 115.0704997 131.5659988
 119.2760012 116.0134997 132.4019988 119.1780409 115.2612883 131.9760589
 123.9620012 114.8794997 135.3489988 124.3820012 114.4644997 136.1019988
 123.0290012 114.7014997 135.4659988 123.8933644 114.7985900 135.4679539
 127.2880012 118.6354997 136.2019988 126.7740012 118.5094997 136.9999988
 127.1330012 119.5474997 135.9579988 127.1966852 118.7416132 136.2782158
 128.0510012 123.4964997 121.9639988 128.0930012 123.2734997 121.0339988
 128.9000012 123.8954997 122.1529988 128.1715280 123.5199438 121.8623554
 123.6230012 117.3724997 122.6339988 123.3700012 117.3914997 123.5569988
 123.3670012 116.5004997 122.3319988 123.5537481 117.2572558 122.7196175
 119.3900012 120.1234997 133.0689988 118.7480012 120.0824997 133.7779988
 119.4270012 121.0494997 132.8309988 119.3070664 120.2431430 133.1339219
 119.3870012 120.3444997 127.9809988 118.4940012 120.0034997 127.9219988
 119.8370012 119.9674997 127.2249988 119.3258130 120.2469631 127.8707702
 124.9220012 120.7604997 126.7979988 124.5130012 121.5754997 126.5069988
 125.6430012 120.6204997 126.1839988 124.9634537 120.8532018 126.6751342
 124.0240012 120.9354997 138.2859988 123.4620012 120.2314997 138.6069988
 124.8510012 120.8154997 138.7539988 124.0587095 120.8227883 138.3932330
 125.9270012 120.2064997 129.6119988 125.7320012 120.8114997 128.8969988
 126.1080012 119.3724997 129.1779988 125.9247614 120.1766300 129.4554405
 117.1400012 120.4434997 134.9359988 117.1020012 120.8434997 135.8049988
 116.6490012 119.6264997 135.0269988 117.0684684 120.3878069 135.0671059
 120.5060012 117.8174997 121.7349988 120.0750012 117.3724997 122.4649988
 119.7880012 118.1894997 121.2229988 120.3499438 117.8068940 121.7656799
 113.7480012 117.5594997 128.7869988 114.3790012 117.5304997 129.5059988
 114.1970012 117.1344997 128.0559988 113.8950918 117.4980836 128.7866441
 115.0220012 118.3054997 124.2109988 115.4960012 118.8964997 123.6259988
 114.3050012 118.8364997 124.5579988 114.9899341 118.4580867 124.1778836
 125.1910012 121.8444997 134.2829988 125.5140012 121.2134997 133.6399988
 124.7510012 121.3094997 134.9439988 125.1757484 121.6858387 134.2843198
 121.9680012 117.7714997 129.0669988 121.0570012 117.8284997 129.3559988
 122.4740012 117.7114997 129.8779988 121.9116899 117.7711941 129.2161184
 116.7970012 119.4004997 127.8939988 115.9070012 119.5004997 127.5539988
 117.0930012 118.5584997 127.5479988 116.7152823 119.3003545 127.8007213
 120.4500012 119.4004997 125.5509988 121.3810012 119.5294997 125.7289988
 120.2350012 120.0704997 124.9009988 120.5484247 119.5086565 125.4875747
 126.3730012 117.0064997 132.3319988 125.6970012 117.1374997 132.9959988
 125.8880012 116.8514997 131.5209988 126.2147146 117.0035157 132.3134469
 119.1240012 120.5954997 123.1169988 118.5810012 120.2154997 122.4259988
 119.9570012 120.7894997 122.6889988 119.1623631 120.5697125 122.9644501
 129.6610012 132.6784997 138.6079988 129.8610012 133.1024997 137.7739988
 130.3160012 133.0214997 139.2149988 129.7770073 132.7829857 138.5758592
 117.2590012 125.1524997 138.2159988 117.9910012 125.4064997 138.7779988
 116.4790012 125.3564997 138.7319988 117.2537073 125.2148160 138.3626151
 123.2880012 120.5594997 130.9539988 123.8530012 120.0124997 130.4069988
 123.1410012 120.0374997 131.7429988 123.3453380 120.4142259 130.9858695
 118.2900012 116.6954997 127.3729988 117.9730012 115.7934997 127.3369988
 119.0720012 116.6974997 126.8199988 118.3522408 116.5722474 127.2933569
 121.9150012 118.9474997 133.3679988 121.0790012 119.4014997 133.4789988
 122.4390012 119.2234997 134.1199988 121.8715416 119.0468660 133.4848119
 122.4590012 125.1604997 125.0529988 121.7140012 124.6534997 124.7309988
 122.3250012 125.2094997 125.9999988 122.3388776 125.0976940 125.1368647
 129.6090012 124.2934997 133.8399988 130.2510012 124.7504997 133.2959988
 128.7790012 124.4064997 133.3769988 129.5845963 124.3712704 133.7030177
 126.3570012 117.9744997 123.2519988 125.4180012 118.0864997 123.1009988
 126.6540012 118.8314997 123.5589988 126.2687583 118.1055981 123.2728337
 123.9780012 125.3444997 136.2899988 123.6330012 124.9634997 137.0969988
 123.7780012 126.2784997 136.3609988 123.9037527 125.4185135 136.4100689
 127.0750012 119.8414997 124.9129988 127.9670012 119.7044997 125.2319988
 127.1320012 120.6324997 124.3759988 127.2046504 119.9296052 124.8840818
 117.5840012 124.4554997 130.8229988 118.3290012 124.4534997 130.2219988
 117.6620012 123.6324997 131.3039988 117.6964995 124.3438887 130.8058282
 124.5850012 126.6194997 124.0789988 124.2890012 127.4454997 124.4599988
 123.8820012 125.9994997 124.2749988 124.4494914 126.6488199 124.1576443
 114.5920012 122.9164997 136.1379988 114.8150012 122.4984997 136.9699988
 113.9900012 122.3034997 135.7149988 114.5411759 122.7764668 136.1947022
 121.6080012 122.4334997 138.3509988 121.3120012 122.2674997 137.4559988
 122.5400012 122.2134997 138.3399988 121.6934166 122.3810640 138.2270536
 126.2290012 127.8064997 136.2409988 125.3280012 127.9894997 135.9729988
 126.2630012 128.0654997 137.1609988 126.1103139 127.8665849 136.3288099
 131.9600012 120.0514997 124.6079988 131.4060012 119.6554997 123.9359988
 132.0600012 120.9614997 124.3299988 131.8977059 120.1203586 124.4784401
 131.9230012 125.8514997 137.4449988 131.0720012 126.0894997 137.0779988
 132.5140012 125.8344997 136.6919988 131.8862487 125.8818258 137.2928893
 130.2550012 128.8374997 125.0729988 129.8820012 128.0114997 125.3819988
 130.5330012 128.6544997 124.1749988 130.2415222 128.6997430 124.9939473
 127.4160012 123.6454997 132.0939988 126.4870012 123.4134997 132.0669988
 127.8670012 122.8684997 131.7639988 127.3499216 123.5087238 132.0456917
 119.9590012 127.9734997 128.2269988 120.4860012 128.7464997 128.0269988
 119.0790012 128.1984997 127.9249988 119.9122031 128.1097545 128.1587912
 115.7140012 122.8354997 122.8139988 116.3300012 123.4624997 123.1939988
 114.8520012 123.1514997 123.0859988 115.6817698 122.9639430 122.9027183
 121.3860012 125.6364997 127.8029988 121.1450012 126.5614997 127.8449988
 120.6450012 125.1774997 128.1999988 121.2529225 125.7010933 127.8623742
 121.9010012 129.7854997 134.1189988 122.2630012 130.6404997 133.8849988
 122.4320012 129.4934997 134.8589988 122.0224473 129.8631060 134.1870855
 120.0690012 130.6584997 127.3489988 119.1190012 130.7634997 127.3999988
 120.4210012 131.4784997 127.6929988 119.9864195 130.7838800 127.4025502
 125.4450012 125.8844997 133.8189988 125.0190012 125.6574997 134.6459988
 126.0250012 125.1464997 133.6369988 125.4651868 125.7535299 133.9075830
 127.6480012 126.8134997 122.8929988 128.0010012 126.4334997 123.6969988
 126.6990012 126.7204997 122.9799988 127.5680918 126.7488956 123.0148532
 128.1030012 130.4364997 136.2889988 127.5020012 129.8814997 135.7929988
 128.3850012 131.1034997 135.6619988 128.0588804 130.4506625 136.1364849
 132.1510012 131.2934997 123.0939988 132.8950012 131.8794997 122.9539988
 131.4570012 131.8614997 123.4269988 132.1589899 131.4505798 123.1198778
 116.2260012 117.6694997 135.6959988 115.3330012 118.0084997 135.6279988
 116.1270012 116.8144997 136.1139988 116.0904164 117.6002588 135.7432235
 128.5140012 125.4864997 125.1199988 128.2360012 124.7584997 125.6759988
 129.4410012 125.6054997 125.3249988 128.6013124 125.4028802 125.2238845
 115.8770012 129.4744997 134.1309988 116.0940012 128.5424997 134.0999988
 116.1230012 129.7484997 135.0139988 115.9399549 129.3840636 134.2461763
 121.7390012 127.9254997 121.3399988 121.9780012 127.1774997 120.7929988
 121.4700012 127.5374997 122.1729988 121.7353675 127.7706638 121.3776865
 120.6760012 127.4954997 123.7959988 120.8220012 126.9754997 124.5859988
 120.6730012 128.4024997 124.1029988 120.6955792 127.5468842 123.9456117
 117.1290012 124.7484997 124.3069988 116.4430012 125.1004997 124.8739988
 117.6510012 125.5114997 124.0599988 117.1056852 124.8998578 124.3512118
 124.9600012 117.4104997 134.5859988 125.6590012 117.4844997 135.2359988
 124.5790012 116.5464997 134.7399988 125.0041767 117.3037624 134.6958322
 125.7450012 117.0624997 125.6829988 125.9650012 117.5344997 124.8799988
 126.3030012 117.4574997 126.3529988 125.8504968 117.1804285 125.6637331
 123.4130012 129.1934997 124.5459988 122.5970012 129.6904997 124.5979988
 123.9430012 129.6684997 123.9059988 123.3729161 129.3257722 124.4665956
 122.9450012 118.7904997 126.5179988 123.7570012 119.2954997 126.5639988
 122.7000012 118.6454997 127.4319988 123.0230520 118.8400375 126.6478517
 123.4800012 119.7764997 135.7019988 123.5990012 120.3504997 136.4599988
 124.1360012 119.0884997 135.8169988 123.5849025 119.7619858 135.8211321
 123.8280012 115.8714997 127.4559988 123.4820012 116.4894997 128.0999988
 124.4870012 116.3724997 126.9739988 123.8696968 116.0236278 127.4789383
 120.7520012 130.2374997 124.5269988 120.9120012 131.0364997 124.0269988
 120.5540012 130.5434997 125.4119988 120.7471637 130.3884020 124.5781144
 119.4860012 116.9344997 124.1429988 119.4030012 117.8234997 124.4899988
 120.3760012 116.6694997 124.3749988 119.5949469 117.0201430 124.2217626
 129.6850012 117.6834997 136.5369988 128.7680012 117.9464997 136.4499988
 130.0200012 117.6804997 135.6409988 129.6048613 117.7190761 136.4038837
 128.2870012 121.4344997 130.6329988 127.4890012 121.0194997 130.3049988
 128.7320012 120.7434997 131.1239988 128.2379885 121.2843543 130.6544889
 117.7450012 127.3624997 123.2039988 118.3370012 128.0614997 123.4799988
 118.2040012 126.9294997 122.4839988 117.8881142 127.3997049 123.1444830
 116.0610012 120.0264997 122.3199988 116.0160012 120.9654997 122.4979988
 115.1730012 119.7904997 122.0499988 115.9348574 120.1231892 122.3078912
 129.3730012 130.6904997 132.2559988 129.2180012 131.3684997 131.5979988
 130.3060012 130.7624997 132.4589988 129.4778657 130.7929546 132.1934360
 116.8690012 114.8084997 130.9929988 116.6400012 114.8674997 130.0649988
 116.4260012 114.0164997 131.2989988 116.7778530 114.7095753 130.9074786
 115.7990012 128.7484997 127.1529988 114.9670012 129.2214997 127.1799988
 116.3450012 129.2584997 126.5549988 115.7590352 128.8821332 127.0758463
 115.0870012 131.3614997 138.4829988 115.6280012 131.1444997 139.2429988
 114.6060012 130.5554997 138.2929988 115.0959951 131.2229270 138.5612576
 119.6850012 130.2804997 140.1029988 120.4520012 129.8214997 140.4439988
 119.6630012 130.0544997 139.1739988 119.7871275 130.1870186 140.0240101
 123.7770012 129.7884997 121.4789988 123.1330012 129.1574997 121.7999988
 124.5390012 129.2574997 121.2469988 123.7918077 129.6302920 121.4916011
 126.2620012 128.6604997 138.8329988 125.9110012 127.8044997 139.0759988
 126.9880012 128.8034997 139.4399988 126.3120769 128.5625636 138.9483619
 128.3810012 129.6054997 121.7119988 128.6640012 128.8114997 122.1649988
 129.1210012 129.8384997 121.1519988 128.5198006 129.5283376 121.6982715
 114.9940012 125.1714997 139.4369988 115.1380012 124.2694997 139.1509988
 114.2220012 125.4574997 138.9499988 114.9092753 125.0866816 139.3319505
 119.3360012 125.5154997 121.5699988 119.4000012 124.7214997 122.1009988
 119.9890012 125.3964997 120.8799988 119.4330241 125.3907148 121.5494317
 121.6500012 125.1414997 138.8699988 121.3210012 125.4124997 138.0129988
 121.8020012 124.2004997 138.7829988 121.6254809 125.0513862 138.7408244
 124.6880012 126.5624997 121.3059988 124.4190012 126.7424997 122.2069988
 124.4820012 125.6364997 121.1739988 124.6233427 126.4620261 121.4115073
 127.3840012 125.0574997 136.2529988 128.1300012 125.6454997 136.1339988
 126.6270012 125.6394997 136.3169988 127.3837820 125.2167143 136.2453590
 115.8270012 122.3714997 138.8569988 116.2350012 121.5144997 138.7359988
 115.5670012 122.3864997 139.7779988 115.8477568 122.2560807 138.9649588
 120.4850012 123.4874997 123.8759988 120.0250012 123.0034997 124.5619988
 120.7400012 122.8194997 123.2399988 120.4564902 123.3308731 123.8839334
 119.7740012 121.3804997 136.2319988 119.1560012 122.0554997 136.5119988
 120.1180012 121.7014997 135.3979988 119.7359132 121.5162411 136.1576262
 121.5560012 121.7304997 122.1379988 121.3760012 121.5764997 121.2109988
 122.5060012 121.8384997 122.1829988 121.6597776 121.7240175 122.0171843
 124.7940012 123.8524997 139.5089988 125.7470012 123.9354997 139.4819988
 124.6330012 123.1404997 140.1289988 124.9026426 123.7676746 139.5890578
 130.9460012 124.0854997 121.5839988 130.6720012 123.6604997 120.7709988
 130.9850012 125.0164997 121.3669988 130.9137699 124.1532484 121.4433610
 120.1130012 118.7354997 137.3139988 120.2630012 118.0064997 136.7119988
 120.1160012 119.5124997 136.7549988 120.1339302 118.7407851 137.1560692
 120.5260012 117.1054997 134.8069988 121.0620012 117.5564997 134.1549988
 119.6740012 116.9974997 134.3839988 120.4842178 117.1526390 134.6605756
 122.1080012 122.5444997 135.0459988 122.8580012 122.3884997 134.4729988
 121.7690012 123.3964997 134.7709988 122.1648921 122.6382968 134.9303561
 126.5230012 120.3594997 140.0749988 126.7160012 119.4284997 139.9629988
 127.3810012 120.7844997 140.0639988 126.6652934 120.2896531 140.0582031
 127.8400012 123.1484997 138.1519988 127.5590012 123.8574997 137.5739988
 128.7830012 123.0754997 138.0009988 127.9289291 123.2356711 138.0524967
 118.5920012 119.9334997 139.2259988 117.8250012 119.4014997 139.0149988
 119.2710012 119.6234997 138.6259988 118.5787877 119.8188300 139.1160716
 121.3320012 114.5614997 135.2379988 121.2330012 115.5084997 135.1329988
 120.5890012 114.1894997 134.7619988 121.2181184 114.6405863 135.1593621
 122.5960012 118.8834997 138.8019988 122.3600012 118.6634997 139.7029988
 121.8120012 118.6764997 138.2919988 122.4578504 118.8254586 138.8563431
 125.3110012 118.0104997 137.8769988 124.3640012 118.0424997 138.0099988
 125.6240012 117.3854997 138.5309988 125.2236707 117.9303998 137.9836060
 126.9450012 116.6444997 139.8829988 126.8490012 115.6924997 139.8769988
 126.6240012 116.9134997 140.7429988 126.8884070 116.5504035 139.9985441
 116.7720012 117.8544997 138.9299988 116.9840012 117.1474997 138.3199988
 116.6610012 117.4164997 139.7739988 116.7859721 117.6987084 138.9606843
 121.5530012 113.8554997 137.9089988 122.2650012 113.2154997 137.8949988
 121.4520012 114.1224997 136.9959988 121.6368066 113.8040079 137.7835677
 121.9070012 115.5384997 139.9629988 121.7750012 115.0624997 139.1429988
 121.3080012 116.2824997 139.9079988 121.8079071 115.5739618 139.8432886
 121.4530012 132.4214997 123.1389988 122.3860012 132.5794997 123.2829988
 121.1890012 133.0964997 122.5149988 121.5449888 132.5344510 123.0742842
 115.0220012 127.0574997 122.6219988 115.9360012 127.1364997 122.8959988
 115.0290012 126.3704997 121.9559988 115.1481131 126.9753961 122.5694393
 113.6710012 132.4504997 127.6999988 113.0240012 131.9884997 127.1669988
 114.0250012 131.7784997 128.2819988 113.6303849 132.2964723 127.7057959
 114.5410012 130.5314997 129.5039988 114.2060012 129.6514997 129.6759988
 114.7630012 130.8764997 130.3689988 114.5251783 130.4577500 129.6444208
 132.0890012 131.3404997 132.4849988 132.0680012 131.5254997 133.4239988
 132.7800012 131.9094997 132.1439988 132.1794618 131.4426606 132.5673864
 131.6530012 130.9084997 135.4069988 131.1650012 130.1724997 135.0349988
 132.2020012 130.5144997 136.0849988 131.6604820 130.7545889 135.4477813
 130.1030012 126.6974997 140.0449988 129.2370012 126.5924997 140.4389988
 130.4800012 127.4564997 140.4909988 130.0353308 126.7856900 140.1592393
 131.4040012 124.9544997 125.5589988 132.2540012 125.3754997 125.6859988
 131.4100012 124.2144997 126.1659988 131.5211372 124.9120803 125.6584344
 131.7990012 123.0074997 127.3819988 131.0720012 122.5284997 127.7799988
 132.3800012 123.2134997 128.1149988 131.7780473 122.9698103 127.5354528
 131.5580012 125.7924997 132.3299988 132.3910012 125.4144997 132.0499988
 131.6700012 126.7354997 132.2109988 131.6872647 125.8682218 132.2755487
 130.0440012 128.6704997 134.6369988 129.3970012 128.9954997 135.2629988
 129.5270012 128.2304997 133.9629988 129.8854029 128.6555004 134.6315827
 132.0670012 122.9084997 123.7739988 131.5450012 123.2654997 123.0549988
 132.0340012 123.5834997 124.4519988 131.9911634 123.0485413 123.7673145
 130.4160012 120.1484997 122.3239988 130.5120012 120.8154997 121.6439988
 130.2760012 119.3324997 121.8429988 130.4102272 120.1295655 122.1658347
 129.5850012 121.5284997 127.9449988 129.4350012 120.5834997 127.9249988
 129.2320012 121.8094997 128.7889988 129.5167448 121.4371481 128.0563705
 114.6210012 123.6064997 131.9559988 114.8050012 123.5244997 131.0199988
 115.4700012 123.4824997 132.3789988 114.7610151 123.5785073 131.8851451
 130.4420012 123.4984997 137.5839988 131.0250012 122.7644997 137.7759988
 131.0060012 124.2704997 137.6309988 130.5979769 123.5024227 137.6166159
 131.9380012 121.4014997 138.2689988 131.0750012 121.0224997 138.1029988
 132.5430012 120.6624997 138.1939988 131.9016119 121.2498268 138.2361528
 129.6630012 117.5564997 121.4419988 130.2740012 117.1854997 122.0789988
 128.8270012 117.1354997 121.6379988 129.6335032 117.4487554 121.5557035
 129.2960012 119.1114997 126.4079988 129.5760012 118.2044997 126.5319988
 130.0550012 119.5454997 126.0189988 129.4369277 119.0460942 126.3723682
 129.9080012 119.6924997 131.8439988 130.8410012 119.9044997 131.8089988
 129.6730012 119.7944997 132.7659988 130.0039244 119.7353100 131.9638892
 129.9370012 120.4294997 134.6199988 129.0940012 120.6974997 134.9859988
 130.3790012 121.2514997 134.4089988 129.8814158 120.5773291 134.6415491
 114.2180012 118.8774997 138.0969988 115.1380012 118.7554997 138.3329988
 113.7690012 118.1274997 138.4859988 114.2831580 118.7593727 138.1819006
 132.2200012 114.4094997 139.9729988 132.5700012 113.7554997 139.3679988
 132.3670012 115.2464997 139.5329988 132.2877887 114.4331548 139.8306858
 129.9090012 116.3744997 126.4559988 130.0920012 115.9254997 127.2819988
 129.3100012 115.7894997 125.9929988 129.8530202 116.2339975 126.5063275
 115.4390012 117.1894997 130.9879988 115.8850012 116.3974997 131.2899988
 115.9060012 117.9054997 131.4179988 115.5630831 117.1780685 131.0874006
 113.7430012 120.1884997 132.0569988 114.2350012 119.9674997 131.2659988
 114.1060012 121.0294997 132.3379988 113.8593126 120.2718357 131.9867531
 131.7400012 116.5184997 138.3219988 130.8220012 116.7894997 138.2869988
 131.8630012 115.9834997 137.5379988 131.6309729 116.4832508 138.2111923
 131.7760012 116.4414997 122.9839988 132.1880012 115.7204997 122.5089988
 132.4580012 117.1114997 123.0429988 131.9245885 116.4332368 122.9268915
 114.0570012 116.4464997 126.1109988 113.1320012 116.6554997 125.9819988
 114.5110012 116.9304997 125.4209988 113.9917292 116.5405343 126.0000720
 128.8280012 131.4304997 128.0569988 129.4800012 131.0834997 127.4489988
 129.3380012 131.9194997 128.7029988 128.9862637 131.4490597 128.0610236
 114.0210012 115.1844997 134.4549988 113.3560012 114.9384997 135.0989988
 113.5780012 115.8064997 133.8779988 113.8701318 115.2349410 134.4650898
 116.2130012 128.3594997 138.5999988 115.3920012 128.5344997 138.1389988
 115.9600012 128.2864997 139.5199988 116.0665585 128.3735544 138.6613561
 119.1670012 129.3344997 134.8579988 118.7420012 130.1434997 134.5759988
 120.0710012 129.4194997 134.5559988 119.2309975 129.4569300 134.7784816
 123.4780012 130.7334997 137.8179988 123.6630012 130.3994997 138.6959988
 124.3240012 131.0424997 137.4959988 123.6177539 130.7296047 137.8945605
 125.8230012 132.0194997 137.0619988 126.5000012 131.3864997 136.8219988
 126.1450012 132.4204997 137.8689988 125.9591637 131.9871154 137.1382793
 130.7400012 114.6084997 136.1409988 129.9280012 114.9334997 135.7539988
 130.9730012 113.8484997 135.6079988 130.6602203 114.5502758 136.0158880
 116.5690012 132.5904997 134.9059988 115.8480012 133.0304997 134.4549988
 116.2030012 132.3394997 135.7539988 116.4209651 132.6167242 134.9589640
 119.0360012 132.1904997 133.9359988 118.1710012 132.2624997 134.3399988
 118.9810012 132.7374997 133.1519988 118.9102085 132.2742685 133.8853362
 123.7460012 132.0784997 133.1109988 123.2900012 132.6074997 132.4569988
 123.9090012 132.6814997 133.8359988 123.7056068 132.2324607 133.1194838
 126.0740012 130.9564997 134.0559988 125.1690012 131.1214997 133.7899988
 126.5030012 131.8094997 133.9909988 126.0081324 131.0944339 134.0107976
 128.6780012 132.5264997 134.3509988 128.4960012 133.4424997 134.1409988
 128.8550012 132.1164997 133.5049988 128.6770210 132.5964822 134.2077885
 115.9830012 131.2134997 131.8159988 115.9650012 130.7884997 132.6729988
 116.7880012 130.8954997 131.4069988 116.0893529 131.1123013 131.8780946
 118.1250012 129.9234997 130.4709988 117.9060012 129.0074997 130.6409988
 118.9490012 130.0634997 130.9369988 118.2064420 129.8170520 130.5572774
 120.6620012 130.3934997 131.3199988 120.8750012 129.5054997 131.0329988
 120.7260012 130.3594997 132.2739988 120.6998232 130.2673102 131.4097397
 124.1700012 116.0574997 130.4639988 123.4960012 115.4284997 130.7199988
 124.7340012 115.5734997 129.8609988 124.1539230 115.9058744 130.4175340
 129.3130012 114.1654997 130.5769988 129.9170012 114.7124997 130.0749988
 128.4430012 114.4844997 130.3359988 129.2781208 114.2835137 130.4756886
 131.0400012 115.3034997 128.9099988 131.6520012 114.7894997 128.3829988
 131.4220012 116.1814997 128.9329988 131.1753371 115.3517866 128.8410041
 116.4970012 114.6914997 128.2859988 115.7200012 114.4574997 127.7789988
 117.0270012 113.8944997 128.2949988 116.4622330 114.5516988 128.2177742
 115.3330012 114.4894997 124.0899988 115.7720012 115.1004997 123.4979988
 114.7000012 115.0274997 124.5639988 115.3074514 114.6459257 124.0730930
 121.0760012 114.6184997 128.0999988 121.9510012 115.0064997 128.0699988
 120.9400012 114.4034997 129.0219988 121.1773695 114.6425184 128.2206440
 126.6330012 114.6484997 129.7489988 126.7090012 114.7434997 128.7989988
 126.3580012 113.7404997 129.8779988 126.6062321 114.5387867 129.6365079
 127.9860012 114.6744997 125.4409988 127.2840012 115.2894997 125.2309988
 127.5420012 113.8364997 125.5719988 127.8296450 114.6455639 125.4299000
 115.2340012 130.4374997 124.9869988 114.5490012 130.3994997 124.3199988
 115.2380012 131.3504997 125.2759988 115.1406998 130.5556733 124.9346771
 117.1940012 116.4054997 122.5319988 117.6860012 115.7754997 122.0049988
 117.8180012 116.7014997 123.1949988 117.3455688 116.3593804 122.5495482
 122.2200012 116.6984997 124.9889988 122.3980012 116.0524997 125.6719988
 122.1670012 117.5324997 125.4559988 122.2371999 116.7228009 125.1455917
 124.0990012 131.6474997 123.3849988 124.9650012 132.0134997 123.2069988
 123.8520012 131.2074997 122.5709988 124.1842392 131.6381756 123.2506289
 130.8080012 131.2104997 126.0639988 130.6130012 130.4624997 125.4989988
 130.7690012 131.9684997 125.4809988 130.7760380 131.2106099 125.9078384
 116.4550012 115.2054997 137.8039988 116.0890012 114.4404997 138.2459988
 117.3680012 115.2344997 138.0899988 116.5282736 115.1045640 137.9032502
 118.4280012 114.5564997 139.3399988 119.3260012 114.2824997 139.1549988
 118.0410012 113.8134997 139.8039988 118.4986612 114.4185914 139.3773643
 117.0520012 131.3574997 122.0129988 116.7850012 131.6444997 122.8859988
 117.8240012 130.8114997 122.1649988 117.1197488 131.3230294 122.1531050
 126.8490012 113.8884997 139.5219988 126.9260012 113.4624997 140.3759988
 127.7430012 113.9024997 139.1789988 126.9803428 113.8320879 139.5925310
 130.0250012 129.9614997 138.2139988 129.2430012 129.7754997 137.6939988
 129.9530012 130.8904997 138.4319988 129.9082274 130.0616643 138.1723018
 144.4310012 123.8474997 128.2449988 144.5200012 124.7914997 128.1129988
 143.7930012 123.5724997 127.5869988 144.3569081 123.9394830 128.1379614
 143.3640012 123.1024997 131.6639988 143.3260012 122.4564997 132.3689988
 143.0420012 122.6364997 130.8929988 143.3152333 122.9509408 131.6562978
 135.7330012 122.7174997 133.2569988 135.7740012 122.0914997 133.9799988
 136.4360012 123.3414997 133.4389988 135.8336363 122.7161196 133.3806044
 136.6560012 127.1674997 131.7919988 136.2870012 126.3654997 131.4219988
 137.5970012 126.9984997 131.8379988 136.7327289 127.0350153 131.7476316
 133.2660012 120.8274997 127.1849988 132.8190012 121.6734997 127.1659988
 132.7050012 120.2474997 126.6689988 133.1289900 120.8649916 127.1126801
 133.9770012 122.9894997 129.3099988 134.1900012 122.2194997 129.8379988
 134.7150012 123.0784997 128.7069988 134.1059044 122.8961968 129.3007123
 144.1820012 131.1464997 130.1769988 144.8020012 130.4694997 129.9039988
 143.9740012 130.9284997 131.0859988 144.2386726 131.0244800 130.2624812
 141.7540012 125.5354997 132.0699988 142.0580012 124.8494997 131.4749988
 142.4750012 125.6534997 132.6879988 141.8930671 125.4576304 132.0721816
 144.8950012 119.9294997 132.3969988 145.0370012 118.9834997 132.4179988
 144.7880012 120.1364997 131.4689988 144.8999919 119.8278246 132.2743408
 138.0490012 118.0304997 129.6699988 138.0930012 118.8904997 129.2509988
 137.5920012 117.4784997 129.0359988 137.9932240 118.0734422 129.5269864
 134.6700012 120.4274997 130.4319988 135.3230012 119.8774997 130.8639988
 134.6940012 120.1534997 129.5149988 134.7626683 120.3151466 130.3672123
 139.8260012 121.9774997 129.6469988 140.4420012 121.4514997 130.1569988
 139.2400012 121.3374997 129.2439988 139.8310810 121.8189208 129.6623173
 136.8600012 116.9484997 133.7439988 136.6410012 117.4784997 132.9779988
 136.1920012 117.1754997 134.3909988 136.7397600 117.0516906 133.7266379
 144.2290012 126.4484997 127.2879988 143.9330012 126.1264997 126.4369988
 143.9040012 127.3484997 127.3289988 144.1446371 126.5260215 127.1771801
 139.4290012 124.6244997 134.0309988 138.6890012 125.2224997 134.1349988
 140.1430012 125.1784997 133.7159988 139.4242237 124.7812831 134.0026465
 136.4530012 118.8404997 131.6959988 137.0670012 119.4734997 132.0689988
 136.9650012 118.3684997 131.0399988 136.6061981 118.8632267 131.6582908
 137.8360012 126.5884997 134.8179988 137.8310012 127.4684997 134.4399988
 136.9830012 126.5054997 135.2429988 137.7199464 126.6976117 134.8237907
 133.9570012 126.2594997 125.5999988 133.6850012 126.4884997 124.7119988
 134.0030012 127.0974997 126.0609988 133.9259482 126.4041318 125.5406273
 140.8860012 114.2544997 131.1959988 140.7690012 113.3054997 131.1419988
 140.0310012 114.5864997 131.4699988 140.7544212 114.1695571 131.2256497
 143.1530012 123.0914997 125.6969988 142.4410012 123.6264997 125.3449988
 143.8440012 123.1474997 125.0369988 143.1490132 123.1722543 125.5596289
 143.2060012 121.5494997 122.7359988 143.9070012 121.5714997 123.3869988
 143.5090012 120.9214997 122.0789988 143.3428133 121.4677070 122.7363369
 138.2040012 123.9314997 128.5309988 137.8730012 123.5614997 127.7129988
 138.7920012 123.2614997 128.8779988 138.2381873 123.7901156 128.4658102
 139.5700012 127.3594997 131.2119988 139.4760012 126.7814997 130.4559988
 140.3000012 126.9884997 131.7089988 139.6557387 127.2301663 131.1755342
 138.5700012 122.7004997 132.1649988 139.1360012 122.8214997 131.4019988
 138.8890012 123.3374997 132.8029988 138.6905474 122.8032219 132.1469862
 144.8790012 128.2034997 132.8989988 144.6390012 128.8654997 133.5469988
 144.6810012 127.3694997 133.3239988 144.8193808 128.1813134 133.0451524
 139.4500012 127.0994997 136.8819988 139.1390012 127.8814997 137.3369988
 138.8000012 126.9464997 136.1959988 139.3195558 127.1859105 136.8515871
 136.3700012 123.2974997 136.1099988 136.4410012 123.9484997 136.8089988
 135.4800012 123.4004997 135.7749988 136.2593005 123.4005427 136.1603495
 143.1560012 129.2004997 127.7689988 143.6300012 129.4954997 128.5459988
 142.5930012 129.9384997 127.5359988 143.1448184 129.3407247 127.8439628
 137.6900012 129.1714997 137.6449988 137.6970012 129.0354997 136.6979988
 136.7740012 129.0534997 137.8969988 137.5671714 129.1369430 137.5494666
 137.1940012 123.0014997 126.1199988 136.9020012 123.7694997 125.6299988
 136.5200012 122.3414997 125.9579988 137.0628111 123.0175587 126.0308978
 133.2870012 125.3644997 134.9349988 132.7860012 125.3364997 134.1199988
 133.2920012 124.4584997 135.2449988 133.2190944 125.2382396 134.8653226
 133.0370012 128.1444997 131.8189988 133.9830012 128.0004997 131.7999988
 132.9250012 128.9284997 132.3559988 133.1512727 128.2308046 131.8890072
 142.2140012 128.3844997 136.3779988 142.3010012 129.2104997 136.8529988
 141.3500012 128.0544997 136.6269988 142.1091964 128.4529878 136.4766549
 142.6280012 132.1564997 126.1839988 142.5530012 132.0354997 125.2369988
 142.6610012 133.1064997 126.3019988 142.6222068 132.2682646 126.0704967
 136.2810012 130.9454997 127.9649988 136.4340012 130.5974997 128.8429988
 135.4310012 130.5894997 127.7099988 136.1869166 130.8496216 128.0508079
 135.5360012 126.6874997 135.9789988 135.7520012 126.3264997 136.8379988
 134.6810012 126.3134997 135.7689988 135.4499292 126.5874111 136.0683386
 138.1550012 115.1574997 131.9739988 137.2930012 115.0704997 131.5659988
 138.1320012 116.0134997 132.4019988 138.0340409 115.2612883 131.9760589
 142.8180012 114.8794997 135.3489988 143.2380012 114.4644997 136.1019988
 141.8850012 114.7014997 135.4659988 142.7493644 114.7985900 135.4679539
 142.4790012 117.3724997 122.6339988 142.2260012 117.3914997 123.5569988
 142.2230012 116.5004997 122.3319988 142.4097481 117.2572558 122.7196175
 138.2460012 120.1234997 133.0689988 137.6040012 120.0824997 133.7779988
 138.2830012 121.0494997 132.8309988 138.1630664 120.2431430 133.1339219
 138.2430012 120.3444997 127.9809988 137.3500012 120.0034997 127.9219988
 138.6930012 119.9674997 127.2249988 138.1818130 120.2469631 127.8707702
 143.7780012 120.7604997 126.7979988 143.3690012 121.5754997 126.5069988
 144.4990012 120.6204997 126.1839988 143.8194537 120.8532018 126.6751342
 142.8800012 120.9354997 138.2859988 142.3180012 120.2314997 138.6069988
 143.7070012 120.8154997 138.7539988 142.9147095 120.8227883 138.3932330
 144.7830012 120.2064997 129.6119988 144.5880012 120.8114997 128.8969988
 144.9640012 119.3724997 129.1779988 144.7807614 120.1766300 129.4554405
 135.9960012 120.4434997 134.9359988 135.9580012 120.8434997 135.8049988
 135.5050012 119.6264997 135.0269988 135.9244684 120.3878069 135.0671059
 139.3620012 117.8174997 121.7349988 138.9310012 117.3724997 122.4649988
 138.6440012 118.1894997 121.2229988 139.2059438 117.8068940 121.7656799
 132.6040012 117.5594997 128.7869988 133.2350012 117.5304997 129.5059988
 133.0530012 117.1344997 128.0559988 132.7510918 117.4980836 128.7866441
 133.8780012 118.3054997 124.2109988 134.3520012 118.8964997 123.6259988
 133.1610012 118.8364997 124.5579988 133.8459341 118.4580867 124.1778836
 144.0470012 121.8444997 134.2829988 144.3700012 121.2134997 133.6399988
 143.6070012 121.3094997 134.9439988 144.0317484 121.6858387 134.2843198
 140.8240012 117.7714997 129.0669988 139.9130012 117.8284997 129.3559988
 141.3300012 117.7114997 129.8779988 140.7676899 117.7711941 129.2161184
 135.6530012 119.4004997 127.8939988 134.7630012 119.5004997 127.5539988
 135.9490012 118.5584997 127.5479988 135.5712823 119.3003546 127.8007213
 139.3060012 119.4004997 125.5509988 140.2370012 119.5294997 125.7289988
 139.0910012 120.0704997 124.9009988 139.4044247 119.5086565 125.4875747
 137.9800012 120.5954997 123.1169988 137.4370012 120.2154997 122.4259988
 138.8130012 120.7894997 122.6889988 138.0183631 120.5697125 122.9644501
 136.1150012 125.1524997 138.2159988 136.8470012 125.4064997 138.7779988
 135.3350012 125.3564997 138.7319988 136.1097073 125.2148160 138.3626151
 142.1440012 120.5594997 130.9539988 142.7090012 120.0124997 130.4069988
 141.9970012 120.0374997 131.7429988 142.2013380 120.4142259 130.9858695
 137.1460012 116.6954997 127.3729988 136.8290012 115.7934997 127.3369988
 137.9280012 116.6974997 126.8199988 137.2082408 116.5722474 127.2933569
 140.7710012 118.9474997 133.3679988 139.9350012 119.4014997 133.4789988
 141.2950012 119.2234997 134.1199988 140.7275416 119.0468660 133.4848119
 141.3150012 125.1604997 125.0529988 140.5700012 124.6534997 124.7309988
 141.1810012 125.2094997 125.9999988 141.1948776 125.0976940 125.1368647
 142.8340012 125.3444997 136.2899988 142.4890012 124.9634997 137.0969988
 142.6340012 126.2784997 136.3609988 142.7597527 125.4185135 136.4100689
 136.4400012 124.4554997 130.8229988 137.1850012 124.4534997 130.2219988
 136.5180012 123.6324997 131.3039988 136.5524995 124.3438887 130.8058282
 143.4410012 126.6194997 124.0789988 143.1450012 127.4454997 124.4599988
 142.7380012 125.9994997 124.2749988 143.3054914 126.6488199 124.1576443
 133.4480012 122.9164997 136.1379988 133.6710012 122.4984997 136.9699988
 132.8460012 122.3034997 135.7149988 133.3971759 122.7764668 136.1947022
 140.4640012 122.4334997 138.3509988 140.1680012 122.2674997 137.4559988
 141.3960012 122.2134997 138.3399988 140.5494166 122.3810640 138.2270536
 138.8150012 127.9734997 128.2269988 139.3420012 128.7464997 128.0269988
 137.9350012 128.1984997 127.9249988 138.7682031 128.1097545 128.1587912
 134.5700012 122.8354997 122.8139988 135.1860012 123.4624997 123.1939988
 133.7080012 123.1514997 123.0859988 134.5377698 122.9639430 122.9027183
 140.2420012 125.6364997 127.8029988 140.0010012 126.5614997 127.8449988
 139.5010012 125.1774997 128.1999988 140.1089225 125.7010933 127.8623742
 140.7570012 129.7854997 134.1189988 141.1190012 130.6404997 133.8849988
 141.2880012 129.4934997 134.8589988 140.8784473 129.8631060 134.1870855
 138.9250012 130.6584997 127.3489988 137.9750012 130.7634997 127.3999988
 139.2770012 131.4784997 127.6929988 138.8424195 130.7838800 127.4025502
 144.3010012 125.8844997 133.8189988 143.8750012 125.6574997 134.6459988
 144.8810012 125.1464997 133.6369988 144.3211868 125.7535299 133.9075830
 135.0820012 117.6694997 135.6959988 134.1890012 118.0084997 135.6279988
 134.9830012 116.8144997 136.1139988 134.9464164 117.6002588 135.7432235
 134.7330012 129.4744997 134.1309988 134.9500012 128.5424997 134.0999988
 134.9790012 129.7484997 135.0139988 134.7959549 129.3840636 134.2461763
 140.5950012 127.9254997 121.3399988 140.8340012 127.1774997 120.7929988
 140.3260012 127.5374997 122.1729988 140.5913675 127.7706638 121.3776865
 139.5320012 127.4954997 123.7959988 139.6780012 126.9754997 124.5859988
 139.5290012 128.4024997 124.1029988 139.5515792 127.5468842 123.9456117
 135.9850012 124.7484997 124.3069988 135.2990012 125.1004997 124.8739988
 136.5070012 125.5114997 124.0599988 135.9616852 124.8998578 124.3512118
 143.8160012 117.4104997 134.5859988 144.5150012 117.4844997 135.2359988
 143.4350012 116.5464997 134.7399988 143.8601767 117.3037624 134.6958322
 144.6010012 117.0624997 125.6829988 144.8210012 117.5344997 124.8799988
 145.1590012 117.4574997 126.3529988 144.7064968 117.1804285 125.6637331
 142.2690012 129.1934997 124.5459988 141.4530012 129.6904997 124.5979988
 142.7990012 129.6684997 123.9059988 142.2289161 129.3257722 124.4665956
 141.8010012 118.7904997 126.5179988 142.6130012 119.2954997 126.5639988
 141.5560012 118.6454997 127.4319988 141.8790520 118.8400375 126.6478517
 142.3360012 119.7764997 135.7019988 142.4550012 120.3504997 136.4599988
 142.9920012 119.0884997 135.8169988 142.4409025 119.7619858 135.8211321
 142.6840012 115.8714997 127.4559988 142.3380012 116.4894997 128.0999988
 143.3430012 116.3724997 126.9739988 142.7256968 116.0236278 127.4789383
 139.6080012 130.2374997 124.5269988 139.7680012 131.0364997 124.0269988
 139.4100012 130.5434997 125.4119988 139.6031637 130.3884020 124.5781144
 138.3420012 116.9344997 124.1429988 138.2590012 117.8234997 124.4899988
 139.2320012 116.6694997 124.3749988 138.4509469 117.0201430 124.2217626
 136.6010012 127.3624997 123.2039988 137.1930012 128.0614997 123.4799988
 137.0600012 126.9294997 122.4839988 136.7441142 127.3997049 123.1444830
 134.9170012 120.0264997 122.3199988 134.8720012 120.9654997 122.4979988
 134.0290012 119.7904997 122.0499988 134.7908574 120.1231892 122.3078912
 135.7250012 114.8084997 130.9929988 135.4960012 114.8674997 130.0649988
 135.2820012 114.0164997 131.2989988 135.6338530 114.7095753 130.9074786
 134.6550012 128.7484997 127.1529988 133.8230012 129.2214997 127.1799988
 135.2010012 129.2584997 126.5549988 134.6150352 128.8821332 127.0758463
 133.9430012 131.3614997 138.4829988 134.4840012 131.1444997 139.2429988
 133.4620012 130.5554997 138.2929988 133.9519951 131.2229270 138.5612576
 138.5410012 130.2804997 140.1029988 139.3080012 129.8214997 140.4439988
 138.5190012 130.0544997 139.1739988 138.6431275 130.1870186 140.0240101
 142.6330012 129.7884997 121.4789988 141.9890012 129.1574997 121.7999988
 143.3950012 129.2574997 121.2469988 142.6478077 129.6302920 121.4916011
 133.8500012 125.1714997 139.4369988 133.9940012 124.2694997 139.1509988
 133.0780012 125.4574997 138.9499988 133.7652753 125.0866816 139.3319505
 138.1920012 125.5154997 121.5699988 138.2560012 124.7214997 122.1009988
 138.8450012 125.3964997 120.8799988 138.2890241 125.3907148 121.5494317
 140.5060012 125.1414997 138.8699988 140.1770012 125.4124997 138.0129988
 140.6580012 124.2004997 138.7829988 140.4814809 125.0513862 138.7408244
 143.5440012 126.5624997 121.3059988 143.2750012 126.7424997 122.2069988
 143.3380012 125.6364997 121.1739988 143.4793427 126.4620261 121.4115073
 134.6830012 122.3714997 138.8569988 135.0910012 121.5144997 138.7359988
 134.4230012 122.3864997 139.7779988 134.7037568 122.2560807 138.9649588
 139.3410012 123.4874997 123.8759988 138.8810012 123.0034997 124.5619988
 139.5960012 122.8194997 123.2399988 139.3124902 123.3308731 123.8839334
 138.6300012 121.3804997 136.2319988 138.0120012 122.0554997 136.5119988
 138.9740012 121.7014997 135.3979988 138.5919132 121.5162411 136.1576262
 140.4120012 121.7304997 122.1379988 140.2320012 121.5764997 121.2109988
 141.3620012 121.8384997 122.1829988 140.5157776 121.7240175 122.0171843
 143.6500012 123.8524997 139.5089988 144.6030012 123.9354997 139.4819988
 143.4890012 123.1404997 140.1289988 143.7586426 123.7676746 139.5890579
 138.9690012 118.7354997 137.3139988 139.1190012 118.0064997 136.7119988
 138.9720012 119.5124997 136.7549988 138.9899302 118.7407851 137.1560692
 139.3820012 117.1054997 134.8069988 139.9180012 117.5564997 134.1549988
 138.5300012 116.9974997 134.3839988 139.3402178 117.1526390 134.6605756
 140.9640012 122.5444997 135.0459988 141.7140012 122.3884997 134.4729988
 140.6250012 123.3964997 134.7709988 141.0208921 122.6382968 134.9303561
 137.4480012 119.9334997 139.2259988 136.6810012 119.4014997 139.0149988
 138.1270012 119.6234997 138.6259988 137.4347877 119.8188300 139.1160716
 140.1880012 114.5614997 135.2379988 140.0890012 115.5084997 135.1329988
 139.4450012 114.1894997 134.7619988 140.0741184 114.6405863 135.1593621
 141.4520012 118.8834997 138.8019988 141.2160012 118.6634997 139.7029988
 140.6680012 118.6764997 138.2919988 141.3138504 118.8254586 138.8563431
 144.1670012 118.0104997 137.8769988 143.2200012 118.0424997 138.0099988
 144.4800012 117.3854997 138.5309988 144.0796707 117.9303998 137.9836060
 135.6280012 117.8544997 138.9299988 135.8400012 117.1474997 138.3199988
 135.5170012 117.4164997 139.7739988 135.6419721 117.6987084 138.9606843
 140.4090012 113.8554997 137.9089988 141.1210012 113.2154997 137.8949988
 140.3080012 114.1224997 136.9959988 140.4928066 113.8040079 137.7835677
 140.7630012 115.5384997 139.9629988 140.6310012 115.0624997 139.1429988
 140.1640012 116.2824997 139.9079988 140.6639071 115.5739618 139.8432886
 140.3090012 132.4214997 123.1389988 141.2420012 132.5794997 123.2829988
 140.0450012 133.0964997 122.5149988 140.4009888 132.5344510 123.0742842
 133.8780012 127.0574997 122.6219988 134.7920012 127.1364997 122.8959988
 133.8850012 126.3704997 121.9559988 134.0041131 126.9753961 122.5694393
 132.5270012 132.4504997 127.6999988 131.8800012 131.9884997 127.1669988
 132.8810012 131.7784997 128.2819988 132.4863849 132.2964723 127.7057959
 133.3970012 130.5314997 129.5039988 133.0620012 129.6514997 129.6759988
 133.6190012 130.8764997 130.3689988 133.3811783 130.4577500 129.6444208
 133.4770012 123.6064997 131.9559988 133.6610012 123.5244997 131.0199988
 134.3260012 123.4824997 132.3789988 133.6170151 123.5785073 131.8851451
 133.0740012 118.8774997 138.0969988 133.9940012 118.7554997 138.3329988
 132.6250012 118.1274997 138.4859988 133.1391580 118.7593727 138.1819006
 134.2950012 117.1894997 130.9879988 134.7410012 116.3974997 131.2899988
 134.7620012 117.9054997 131.4179988 134.4190831 117.1780685 131.0874006
 132.5990012 120.1884997 132.0569988 133.0910012 119.9674997 131.2659988
 132.9620012 121.0294997 132.3379988 132.7153126 120.2718357 131.9867531
 132.9130012 116.4464997 126.1109988 131.9880012 116.6554997 125.9819988
 133.3670012 116.9304997 125.4209988 132.8477292 116.5405343 126.0000720
 132.8770012 115.1844997 134.4549988 132.2120012 114.9384997 135.0989988
 132.4340012 115.8064997 133.8779988 132.7261318 115.2349410 134.4650898
 135.0690012 128.3594997 138.5999988 134.2480012 128.5344997 138.1389988
 134.8160012 128.2864997 139.5199988 134.9225585 128.3735544 138.6613561
 138.0230012 129.3344997 134.8579988 137.5980012 130.1434997 134.5759988
 138.9270012 129.4194997 134.5559988 138.0869975 129.4569300 134.7784816
 142.3340012 130.7334997 137.8179988 142.5190012 130.3994997 138.6959988
 143.1800012 131.0424997 137.4959988 142.4737539 130.7296047 137.8945605
 144.6790012 132.0194997 137.0619988 145.3560012 131.3864997 136.8219988
 145.0010012 132.4204997 137.8689988 144.8151637 131.9871154 137.1382793
 135.4250012 132.5904997 134.9059988 134.7040012 133.0304997 134.4549988
 135.0590012 132.3394997 135.7539988 135.2769651 132.6167242 134.9589640
 137.8920012 132.1904997 133.9359988 137.0270012 132.2624997 134.3399988
 137.8370012 132.7374997 133.1519988 137.7662085 132.2742685 133.8853362
 142.6020012 132.0784997 133.1109988 142.1460012 132.6074997 132.4569988
 142.7650012 132.6814997 133.8359988 142.5616068 132.2324607 133.1194838
 134.8390012 131.2134997 131.8159988 134.8210012 130.7884997 132.6729988
 135.6440012 130.8954997 131.4069988 134.9453529 131.1123013 131.8780946
 136.9810012 129.9234997 130.4709988 136.7620012 129.0074997 130.6409988
 137.8050012 130.0634997 130.9369988 137.0624420 129.8170520 130.5572774
 139.5180012 130.3934997 131.3199988 139.7310012 129.5054997 131.0329988
 139.5820012 130.3594997 132.2739988 139.5558231 130.2673102 131.4097397
 143.0260012 116.0574997 130.4639988 142.3520012 115.4284997 130.7199988
 143.5900012 115.5734997 129.8609988 143.0099230 115.9058744 130.4175340
 135.3530012 114.6914997 128.2859988 134.5760012 114.4574997 127.7789988
 135.8830012 113.8944997 128.2949988 135.3182330 114.5516988 128.2177742
 134.1890012 114.4894997 124.0899988 134.6280012 115.1004997 123.4979988
 133.5560012 115.0274997 124.5639988 134.1634514 114.6459257 124.0730930
 139.9320012 114.6184997 128.0999988 140.8070012 115.0064997 128.0699988
 139.7960012 114.4034997 129.0219988 140.0333695 114.6425184 128.2206440
 134.0900012 130.4374997 124.9869988 133.4050012 130.3994997 124.3199988
 134.0940012 131.3504997 125.2759988 133.9966998 130.5556733 124.9346771
 136.0500012 116.4054997 122.5319988 136.5420012 115.7754997 122.0049988
 136.6740012 116.7014997 123.1949988 136.2015688 116.3593804 122.5495482
 141.0760012 116.6984997 124.9889988 141.2540012 116.0524997 125.6719988
 141.0230012 117.5324997 125.4559988 141.0931999 116.7228009 125.1455917
 142.9550012 131.6474997 123.3849988 143.8210012 132.0134997 123.2069988
 142.7080012 131.2074997 122.5709988 143.0402392 131.6381756 123.2506289
 135.3110012 115.2054997 137.8039988 134.9450012 114.4404997 138.2459988
 136.2240012 115.2344997 138.0899988 135.3842736 115.1045640 137.9032502
 137.2840012 114.5564997 139.3399988 138.1820012 114.2824997 139.1549988
 136.8970012 113.8134997 139.8039988 137.3546612 114.4185914 139.3773643
 135.9080012 131.3574997 122.0129988 135.6410012 131.6444997 122.8859988
 136.6800012 130.8114997 122.1649988 135.9757488 131.3230294 122.1531050
  12.4390012 142.7034997 128.2449988  12.5280012 143.6474997 128.1129988
  11.8010012 142.4284997 127.5869988  12.3649081 142.7954830 128.1379614
  11.3720012 141.9584997 131.6639988  11.3340012 141.3124997 132.3689988
  11.0500012 141.4924997 130.8929988  11.3232333 141.8069408 131.6562978
   3.7410012 141.5734997 133.2569988   3.7820012 140.9474997 133.9799988
   4.4440012 142.1974997 133.4389988   3.8416363 141.5721196 133.3806044
  15.0780012 144.8974997 129.9649988  14.6380012 144.1774997 130.4159988
  15.0650012 145.6184997 130.5949988  15.0160226 144.8963731 130.1118494
   1.2740012 139.6834997 127.1849988   0.8270012 140.5294997 127.1659988
   0.7130012 139.1034997 126.6689988   1.1369900 139.7209916 127.1126801
   1.9850012 141.8454997 129.3099988   2.1980012 141.0754997 129.8379988
   2.7230012 141.9344997 128.7069988   2.1139044 141.7521968 129.3007123
   9.7620012 144.3914997 132.0699988  10.0660012 143.7054997 131.4749988
  10.4830012 144.5094997 132.6879988   9.9010671 144.3136305 132.0721816
  18.4250012 135.9924997 132.9309988  18.4740012 136.6024997 133.6659988
  18.8500012 136.4534997 132.2079988  18.4891746 136.1383796 132.9339175
  12.9030012 138.7854997 132.3969988  13.0450012 137.8394997 132.4179988
  12.7960012 138.9924997 131.4689988  12.9079919 138.6838246 132.2743408
   6.0570012 136.8864997 129.6699988   6.1010012 137.7464997 129.2509988
   5.6000012 136.3344997 129.0359988   6.0012240 136.9294422 129.5269864
  13.7800012 137.0174997 128.0709988  14.4260012 136.6884997 128.6949988
  14.2900012 137.5354997 127.4479988  13.9374299 137.0424450 128.0722731
   2.6780012 139.2834997 130.4319988   3.3310012 138.7334997 130.8639988
   2.7020012 139.0094997 129.5149988   2.7706683 139.1711466 130.3672123
   7.8340012 140.8334997 129.6469988   8.4500012 140.3074997 130.1569988
   7.2480012 140.1934997 129.2439988   7.8390810 140.6749208 129.6623173
  18.8160012 137.4704997 135.1659988  18.1280012 138.1284997 135.0709988
  18.8320012 137.2734997 136.1029988  18.7239540 137.5339819 135.2795990
   4.8680012 135.8044997 133.7439988   4.6490012 136.3344997 132.9779988
   4.2000012 136.0314997 134.3909988   4.7477600 135.9076906 133.7266379
   7.4370012 143.4804997 134.0309988   6.6970012 144.0784997 134.1349988
   8.1510012 144.0344997 133.7159988   7.4322237 143.6372831 134.0026465
  15.5440012 136.3084997 130.0509988  15.3280012 135.5424997 130.5839988
  16.1990012 136.7804997 130.5639988  15.6030632 136.2675889 130.1932861
   4.4610012 137.6964997 131.6959988   5.0750012 138.3294997 132.0689988
   4.9730012 137.2244997 131.0399988   4.6141981 137.7192267 131.6582908
  15.8910012 135.0234997 133.7309988  15.1550012 135.6344997 133.6929988
  16.5740012 135.4384997 133.2039988  15.8826541 135.1631374 133.6545832
   8.8940012 133.1104997 131.1959988   8.7770012 132.1614997 131.1419988
   8.0390012 133.4424997 131.4699988   8.7624212 133.0255571 131.2256497
  16.6880012 144.9854997 135.9239988  16.8280012 144.3944997 135.1849988
  16.8550012 145.8584997 135.5679988  16.7297411 145.0225428 135.7746894
  11.1610012 141.9474997 125.6969988  10.4490012 142.4824997 125.3449988
  11.8520012 142.0034997 125.0369988  11.1570132 142.0282543 125.5596289
  11.2140012 140.4054997 122.7359988  11.9150012 140.4274997 123.3869988
  11.5170012 139.7774997 122.0789988  11.3508133 140.3237070 122.7363369
  18.5300012 141.3254997 133.9899988  17.8770012 142.0204997 134.0799988
  18.9950012 141.5354997 133.1809988  18.5035274 141.4490643 133.8928462
  14.5660012 142.1574997 126.6489988  13.8340012 142.3854997 127.2219988
  15.0140012 141.4434997 127.1029988  14.5262725 142.0922145 126.7888816
  14.4640012 140.3314997 135.7159988  14.5440012 141.0944997 136.2879988
  13.8620012 140.6104997 135.0259988  14.3935756 140.4737134 135.7010589
   6.2120012 142.7874997 128.5309988   5.8810012 142.4174997 127.7129988
   6.8000012 142.1174997 128.8779988   6.2461873 142.6461156 128.4658102
   6.5780012 141.5564997 132.1649988   7.1440012 141.6774997 131.4019988
   6.8970012 142.1934997 132.8029988   6.6985474 141.6592219 132.1469862
  13.4370012 141.3194997 124.3339988  14.0170012 141.4694997 125.0809988
  13.8510012 141.7904997 123.6099988  13.5722997 141.4036578 124.3384058
   4.3780012 142.1534997 136.1099988   4.4490012 142.8044997 136.8089988
   3.4880012 142.2564997 135.7749988   4.2673005 142.2565427 136.1603495
  17.1360012 133.0694997 124.1469988  16.2360012 133.2084997 124.4419988
  17.3880012 133.9004997 123.7449988  17.0468702 133.2009074 124.1330205
   5.2020012 141.8574997 126.1199988   4.9100012 142.6254997 125.6299988
   4.5280012 141.1974997 125.9579988   5.0708111 141.8735587 126.0308978
   1.2950012 144.2204997 134.9349988   0.7940012 144.1924997 134.1199988
   1.3000012 143.3144997 135.2449988   1.2270944 144.0942396 134.8653226
  16.3950012 139.1594997 137.9819988  15.9880012 139.6404997 137.2609988
  16.4360012 138.2544997 137.6739988  16.3448437 139.1029374 137.8416683
   6.1630012 134.0134997 131.9739988   5.3010012 133.9264997 131.5659988
   6.1400012 134.8694997 132.4019988   6.0420409 134.1172883 131.9760589
  10.8260012 133.7354997 135.3489988  11.2460012 133.3204997 136.1019988
   9.8930012 133.5574997 135.4659988  10.7573644 133.6545900 135.4679539
  14.1520012 137.4914997 136.2019988  13.6380012 137.3654997 136.9999988
  13.9970012 138.4034997 135.9579988  14.0606852 137.5976132 136.2782158
  14.9150012 142.3524997 121.9639988  14.9570012 142.1294997 121.0339988
  15.7640012 142.7514997 122.1529988  15.0355280 142.3759438 121.8623554
  10.4870012 136.2284997 122.6339988  10.2340012 136.2474997 123.5569988
  10.2310012 135.3564997 122.3319988  10.4177481 136.1132558 122.7196175
   6.2540012 138.9794997 133.0689988   5.6120012 138.9384997 133.7779988
   6.2910012 139.9054997 132.8309988   6.1710664 139.0991430 133.1339219
   6.2510012 139.2004997 127.9809988   5.3580012 138.8594997 127.9219988
   6.7010012 138.8234997 127.2249988   6.1898130 139.1029631 127.8707702
  11.7860012 139.6164997 126.7979988  11.3770012 140.4314997 126.5069988
  12.5070012 139.4764997 126.1839988  11.8274537 139.7092018 126.6751342
  10.8880012 139.7914997 138.2859988  10.3260012 139.0874997 138.6069988
  11.7150012 139.6714997 138.7539988  10.9227095 139.6787883 138.3932330
  12.7910012 139.0624997 129.6119988  12.5960012 139.6674997 128.8969988
  12.9720012 138.2284997 129.1779988  12.7887614 139.0326300 129.4554405
   4.0040012 139.2994997 134.9359988   3.9660012 139.6994997 135.8049988
   3.5130012 138.4824997 135.0269988   3.9324684 139.2438069 135.0671059
   7.3700012 136.6734997 121.7349988   6.9390012 136.2284997 122.4649988
   6.6520012 137.0454997 121.2229988   7.2139438 136.6628940 121.7656799
   0.6120012 136.4154997 128.7869988   1.2430012 136.3864997 129.5059988
   1.0610012 135.9904997 128.0559988   0.7590918 136.3540836 128.7866441
   1.8860012 137.1614997 124.2109988   2.3600012 137.7524997 123.6259988
   1.1690012 137.6924997 124.5579988   1.8539341 137.3140867 124.1778836
  12.0550012 140.7004997 134.2829988  12.3780012 140.0694997 133.6399988
  11.6150012 140.1654997 134.9439988  12.0397484 140.5418387 134.2843198
   8.8320012 136.6274997 129.0669988   7.9210012 136.6844997 129.3559988
   9.3380012 136.5674997 129.8779988   8.7756899 136.6271941 129.2161184
   3.6610012 138.2564997 127.8939988   2.7710012 138.3564997 127.5539988
   3.9570012 137.4144997 127.5479988   3.5792823 138.1563545 127.8007213
   7.3140012 138.2564997 125.5509988   8.2450012 138.3854997 125.7289988
   7.0990012 138.9264997 124.9009988   7.4124247 138.3646565 125.4875747
  13.2370012 135.8624997 132.3319988  12.5610012 135.9934997 132.9959988
  12.7520012 135.7074997 131.5209988  13.0787146 135.8595157 132.3134469
   5.9880012 139.4514997 123.1169988   5.4450012 139.0714997 122.4259988
   6.8210012 139.6454997 122.6889988   6.0263631 139.4257125 122.9644501
   4.1230012 144.0084997 138.2159988   4.8550012 144.2624997 138.7779988
   3.3430012 144.2124997 138.7319988   4.1177073 144.0708160 138.3626151
  10.1520012 139.4154997 130.9539988  10.7170012 138.8684997 130.4069988
  10.0050012 138.8934997 131.7429988  10.2093380 139.2702259 130.9858695
   5.1540012 135.5514997 127.3729988   4.8370012 134.6494997 127.3369988
   5.9360012 135.5534997 126.8199988   5.2162408 135.4282474 127.2933569
   8.7790012 137.8034997 133.3679988   7.9430012 138.2574997 133.4789988
   9.3030012 138.0794997 134.1199988   8.7355416 137.9028660 133.4848119
   9.3230012 144.0164997 125.0529988   8.5780012 143.5094997 124.7309988
   9.1890012 144.0654997 125.9999988   9.2028776 143.9536940 125.1368647
  16.4730012 143.1494997 133.8399988  17.1150012 143.6064997 133.2959988
  15.6430012 143.2624997 133.3769988  16.4485963 143.2272704 133.7030177
  13.2210012 136.8304997 123.2519988  12.2820012 136.9424997 123.1009988
  13.5180012 137.6874997 123.5589988  13.1327583 136.9615981 123.2728337
  10.8420012 144.2004997 136.2899988  10.4970012 143.8194997 137.0969988
  10.6420012 145.1344997 136.3609988  10.7677527 144.2745135 136.4100689
  13.9390012 138.6974997 124.9129988  14.8310012 138.5604997 125.2319988
  13.9960012 139.4884997 124.3759988  14.0686504 138.7856052 124.8840818
   4.4480012 143.3114997 130.8229988   5.1930012 143.3094997 130.2219988
   4.5260012 142.4884997 131.3039988   4.5604995 143.1998887 130.8058282
   1.4560012 141.7724997 136.1379988   1.6790012 141.3544997 136.9699988
   0.8540012 141.1594997 135.7149988   1.4051759 141.6324668 136.1947022
   8.4720012 141.2894997 138.3509988   8.1760012 141.1234997 137.4559988
   9.4040012 141.0694997 138.3399988   8.5574166 141.2370640 138.2270536
  18.8240012 138.9074997 124.6079988  18.2700012 138.5114997 123.9359988
  18.9240012 139.8174997 124.3299988  18.7617059 138.9763586 124.4784401
  18.7870012 144.7074997 137.4449988  17.9360012 144.9454997 137.0779988
  19.3780012 144.6904997 136.6919988  18.7502487 144.7378258 137.2928893
  14.2800012 142.5014997 132.0939988  13.3510012 142.2694997 132.0669988
  14.7310012 141.7244997 131.7639988  14.2139216 142.3647238 132.0456917
   2.5780012 141.6914997 122.8139988   3.1940012 142.3184997 123.1939988
   1.7160012 142.0074997 123.0859988   2.5457698 141.8199430 122.9027183
   8.2500012 144.4924997 127.8029988   8.0090012 145.4174997 127.8449988
   7.5090012 144.0334997 128.1999988   8.1169225 144.5570933 127.8623742
  12.3090012 144.7404997 133.8189988  11.8830012 144.5134997 134.6459988
  12.8890012 144.0024997 133.6369988  12.3291868 144.6095299 133.9075830
   3.0900012 136.5254997 135.6959988   2.1970012 136.8644997 135.6279988
   2.9910012 135.6704997 136.1139988   2.9544164 136.4562588 135.7432235
  15.3780012 144.3424997 125.1199988  15.1000012 143.6144997 125.6759988
  16.3050012 144.4614997 125.3249988  15.4653124 144.2588802 125.2238845
   3.9930012 143.6044997 124.3069988   3.3070012 143.9564997 124.8739988
   4.5150012 144.3674997 124.0599988   3.9696852 143.7558578 124.3512118
  11.8240012 136.2664997 134.5859988  12.5230012 136.3404997 135.2359988
  11.4430012 135.4024997 134.7399988  11.8681767 136.1597624 134.6958322
  12.6090012 135.9184997 125.6829988  12.8290012 136.3904997 124.8799988
  13.1670012 136.3134997 126.3529988  12.7144968 136.0364285 125.6637331
   9.8090012 137.6464997 126.5179988  10.6210012 138.1514997 126.5639988
   9.5640012 137.5014997 127.4319988   9.8870520 137.6960375 126.6478517
  10.3440012 138.6324997 135.7019988  10.4630012 139.2064997 136.4599988
  11.0000012 137.9444997 135.8169988  10.4489025 138.6179858 135.8211321
  10.6920012 134.7274997 127.4559988  10.3460012 135.3454997 128.0999988
  11.3510012 135.2284997 126.9739988  10.7336968 134.8796278 127.4789383
   6.3500012 135.7904997 124.1429988   6.2670012 136.6794997 124.4899988
   7.2400012 135.5254997 124.3749988   6.4589469 135.8761430 124.2217626
  16.5490012 136.5394997 136.5369988  15.6320012 136.8024997 136.4499988
  16.8840012 136.5364997 135.6409988  16.4688613 136.5750761 136.4038837
  15.1510012 140.2904997 130.6329988  14.3530012 139.8754997 130.3049988
  15.5960012 139.5994997 131.1239988  15.1019885 140.1403543 130.6544889
   2.9250012 138.8824997 122.3199988   2.8800012 139.8214997 122.4979988
   2.0370012 138.6464997 122.0499988   2.7988574 138.9791892 122.3078912
   3.7330012 133.6644997 130.9929988   3.5040012 133.7234997 130.0649988
   3.2900012 132.8724997 131.2989988   3.6418530 133.5655753 130.9074786
   1.8580012 144.0274997 139.4369988   2.0020012 143.1254997 139.1509988
   1.0860012 144.3134997 138.9499988   1.7732753 143.9426816 139.3319505
   6.2000012 144.3714997 121.5699988   6.2640012 143.5774997 122.1009988
   6.8530012 144.2524997 120.8799988   6.2970241 144.2467148 121.5494317
   8.5140012 143.9974997 138.8699988   8.1850012 144.2684997 138.0129988
   8.6660012 143.0564997 138.7829988   8.4894809 143.9073862 138.7408244
  14.2480012 143.9134997 136.2529988  14.9940012 144.5014997 136.1339988
  13.4910012 144.4954997 136.3169988  14.2477820 144.0727143 136.2453590
   2.6910012 141.2274997 138.8569988   3.0990012 140.3704997 138.7359988
   2.4310012 141.2424997 139.7779988   2.7117568 141.1120807 138.9649588
   7.3490012 142.3434997 123.8759988   6.8890012 141.8594997 124.5619988
   7.6040012 141.6754997 123.2399988   7.3204902 142.1868731 123.8839334
   6.6380012 140.2364997 136.2319988   6.0200012 140.9114997 136.5119988
   6.9820012 140.5574997 135.3979988   6.5999132 140.3722411 136.1576262
   8.4200012 140.5864997 122.1379988   8.2400012 140.4324997 121.2109988
   9.3700012 140.6944997 122.1829988   8.5237776 140.5800175 122.0171843
  11.6580012 142.7084997 139.5089988  12.6110012 142.7914997 139.4819988
  11.4970012 141.9964997 140.1289988  11.7666426 142.6236746 139.5890579
  17.8100012 142.9414997 121.5839988  17.5360012 142.5164997 120.7709988
  17.8490012 143.8724997 121.3669988  17.7777699 143.0092484 121.4433610
   6.9770012 137.5914997 137.3139988   7.1270012 136.8624997 136.7119988
   6.9800012 138.3684997 136.7549988   6.9979302 137.5967851 137.1560692
   7.3900012 135.9614997 134.8069988   7.9260012 136.4124997 134.1549988
   6.5380012 135.8534997 134.3839988   7.3482178 136.0086390 134.6605756
   8.9720012 141.4004997 135.0459988   9.7220012 141.2444997 134.4729988
   8.6330012 142.2524997 134.7709988   9.0288921 141.4942968 134.9303561
  13.3870012 139.2154997 140.0749988  13.5800012 138.2844997 139.9629988
  14.2450012 139.6404997 140.0639988  13.5292934 139.1456531 140.0582031
  14.7040012 142.0044997 138.1519988  14.4230012 142.7134997 137.5739988
  15.6470012 141.9314997 138.0009988  14.7929291 142.0916711 138.0524967
   5.4560012 138.7894997 139.2259988   4.6890012 138.2574997 139.0149988
   6.1350012 138.4794997 138.6259988   5.4427877 138.6748300 139.1160716
   8.1960012 133.4174997 135.2379988   8.0970012 134.3644997 135.1329988
   7.4530012 133.0454997 134.7619988   8.0821184 133.4965863 135.1593621
   9.4600012 137.7394997 138.8019988   9.2240012 137.5194997 139.7029988
   8.6760012 137.5324997 138.2919988   9.3218504 137.6814586 138.8563431
  12.1750012 136.8664997 137.8769988  11.2280012 136.8984997 138.0099988
  12.4880012 136.2414997 138.5309988  12.0876707 136.7863998 137.9836060
  13.8090012 135.5004997 139.8829988  13.7130012 134.5484997 139.8769988
  13.4880012 135.7694997 140.7429988  13.7524070 135.4064035 139.9985441
   3.6360012 136.7104997 138.9299988   3.8480012 136.0034997 138.3199988
   3.5250012 136.2724997 139.7739988   3.6499721 136.5547084 138.9606843
   8.4170012 132.7114997 137.9089988   9.1290012 132.0714997 137.8949988
   8.3160012 132.9784997 136.9959988   8.5008066 132.6600079 137.7835677
   8.7710012 134.3944997 139.9629988   8.6390012 133.9184997 139.1429988
   8.1720012 135.1384997 139.9079988   8.6719071 134.4299618 139.8432886
  18.2680012 143.8104997 125.5589988  19.1180012 144.2314997 125.6859988
  18.2740012 143.0704997 126.1659988  18.3851372 143.7680803 125.6584344
  18.6630012 141.8634997 127.3819988  17.9360012 141.3844997 127.7799988
  19.2440012 142.0694997 128.1149988  18.6420473 141.8258103 127.5354528
  18.4220012 144.6484997 132.3299988  19.2550012 144.2704997 132.0499988
  18.5340012 145.5914997 132.2109988  18.5512647 144.7242218 132.2755487
  18.9310012 141.7644997 123.7739988  18.4090012 142.1214997 123.0549988
  18.8980012 142.4394997 124.4519988  18.8551634 141.9045413 123.7673145
  17.2800012 139.0044997 122.3239988  17.3760012 139.6714997 121.6439988
  17.1400012 138.1884997 121.8429988  17.2742272 138.9855655 122.1658347
  16.4490012 140.3844997 127.9449988  16.2990012 139.4394997 127.9249988
  16.0960012 140.6654997 128.7889988  16.3807448 140.2931481 128.0563705
   1.4850012 142.4624997 131.9559988   1.6690012 142.3804997 131.0199988
   2.3340012 142.3384997 132.3789988   1.6250151 142.4345073 131.8851451
  17.3060012 142.3544997 137.5839988  17.8890012 141.6204997 137.7759988
  17.8700012 143.1264997 137.6309988  17.4619769 142.3584227 137.6166159
  18.8020012 140.2574997 138.2689988  17.9390012 139.8784997 138.1029988
  19.4070012 139.5184997 138.1939988  18.7656119 140.1058268 138.2361528
  16.5270012 136.4124997 121.4419988  17.1380012 136.0414997 122.0789988
  15.6910012 135.9914997 121.6379988  16.4975032 136.3047554 121.5557035
  16.1600012 137.9674997 126.4079988  16.4400012 137.0604997 126.5319988
  16.9190012 138.4014997 126.0189988  16.3009277 137.9020942 126.3723682
  16.7720012 138.5484997 131.8439988  17.7050012 138.7604997 131.8089988
  16.5370012 138.6504997 132.7659988  16.8679244 138.5913100 131.9638892
  16.8010012 139.2854997 134.6199988  15.9580012 139.5534997 134.9859988
  17.2430012 140.1074997 134.4089988  16.7454158 139.4333291 134.6415491
   1.0820012 137.7334997 138.0969988   2.0020012 137.6114997 138.3329988
   0.6330012 136.9834997 138.4859988   1.1471580 137.6153727 138.1819006
  19.0840012 133.2654997 139.9729988  19.4340012 132.6114997 139.3679988
  19.2310012 134.1024997 139.5329988  19.1517887 133.2891548 139.8306858
  16.7730012 135.2304997 126.4559988  16.9560012 134.7814997 127.2819988
  16.1740012 134.6454997 125.9929988  16.7170202 135.0899975 126.5063275
   2.3030012 136.0454997 130.9879988   2.7490012 135.2534997 131.2899988
   2.7700012 136.7614997 131.4179988   2.4270831 136.0340685 131.0874006
   0.6070012 139.0444997 132.0569988   1.0990012 138.8234997 131.2659988
   0.9700012 139.8854997 132.3379988   0.7233126 139.1278357 131.9867531
  18.6040012 135.3744997 138.3219988  17.6860012 135.6454997 138.2869988
  18.7270012 134.8394997 137.5379988  18.4949729 135.3392508 138.2111923
  18.6400012 135.2974997 122.9839988  19.0520012 134.5764997 122.5089988
  19.3220012 135.9674997 123.0429988  18.7885885 135.2892368 122.9268915
   0.9210012 135.3024997 126.1109988  -0.0039988 135.5114997 125.9819988
   1.3750012 135.7864997 125.4209988   0.8557292 135.3965343 126.0000720
   0.8850012 134.0404997 134.4549988   0.2200012 133.7944997 135.0989988
   0.4420012 134.6624997 133.8779988   0.7341318 134.0909410 134.4650898
  17.6040012 133.4644997 136.1409988  16.7920012 133.7894997 135.7539988
  17.8370012 132.7044997 135.6079988  17.5242203 133.4062758 136.0158880
  11.0340012 134.9134997 130.4639988  10.3600012 134.2844997 130.7199988
  11.5980012 134.4294997 129.8609988  11.0179230 134.7618744 130.4175340
  16.1770012 133.0214997 130.5769988  16.7810012 133.5684997 130.0749988
  15.3070012 133.3404997 130.3359988  16.1421208 133.1395137 130.4756886
  17.9040012 134.1594997 128.9099988  18.5160012 133.6454997 128.3829988
  18.2860012 135.0374997 128.9329988  18.0393371 134.2077866 128.8410041
   3.3610012 133.5474997 128.2859988   2.5840012 133.3134997 127.7789988
   3.8910012 132.7504997 128.2949988   3.3262330 133.4076988 128.2177742
   2.1970012 133.3454997 124.0899988   2.6360012 133.9564997 123.4979988
   1.5640012 133.8834997 124.5639988   2.1714514 133.5019257 124.0730930
   7.9400012 133.4744997 128.0999988   8.8150012 133.8624997 128.0699988
   7.8040012 133.2594997 129.0219988   8.0413695 133.4985184 128.2206440
  13.4970012 133.5044997 129.7489988  13.5730012 133.5994997 128.7989988
  13.2220012 132.5964997 129.8779988  13.4702321 133.3947867 129.6365079
  14.8500012 133.5304997 125.4409988  14.1480012 134.1454997 125.2309988
  14.4060012 132.6924997 125.5719988  14.6936450 133.5015639 125.4299000
   4.0580012 135.2614997 122.5319988   4.5500012 134.6314997 122.0049988
   4.6820012 135.5574997 123.1949988   4.2095688 135.2153804 122.5495482
   9.0840012 135.5544997 124.9889988   9.2620012 134.9084997 125.6719988
   9.0310012 136.3884997 125.4559988   9.1011999 135.5788009 125.1455917
   3.3190012 134.0614997 137.8039988   2.9530012 133.2964997 138.2459988
   4.2320012 134.0904997 138.0899988   3.3922736 133.9605640 137.9032502
   5.2920012 133.4124997 139.3399988   6.1900012 133.1384997 139.1549988
   4.9050012 132.6694997 139.8039988   5.3626612 133.2745914 139.3773643
  13.7130012 132.7444997 139.5219988  13.7900012 132.3184997 140.3759988
  14.6070012 132.7584997 139.1789988  13.8443428 132.6880880 139.5925310
  31.2950012 142.7034997 128.2449988  31.3840012 143.6474997 128.1129988
  30.6570012 142.4284997 127.5869988  31.2209081 142.7954830 128.1379614
  30.2280012 141.9584997 131.6639988  30.1900012 141.3124997 132.3689988
  29.9060012 141.4924997 130.8929988  30.1792333 141.8069408 131.6562978
  22.5970012 141.5734997 133.2569988  22.6380012 140.9474997 133.9799988
  23.3000012 142.1974997 133.4389988  22.6976363 141.5721196 133.3806044
  33.9340012 144.8974997 129.9649988  33.4940012 144.1774997 130.4159988
  33.9210012 145.6184997 130.5949988  33.8720226 144.8963731 130.1118494
  20.1300012 139.6834997 127.1849988  19.6830012 140.5294997 127.1659988
  19.5690012 139.1034997 126.6689988  19.9929900 139.7209916 127.1126801
  20.8410012 141.8454997 129.3099988  21.0540012 141.0754997 129.8379988
  21.5790012 141.9344997 128.7069988  20.9699044 141.7521968 129.3007123
  28.6180012 144.3914997 132.0699988  28.9220012 143.7054997 131.4749988
  29.3390012 144.5094997 132.6879988  28.7570671 144.3136305 132.0721816
  37.2810012 135.9924997 132.9309988  37.3300012 136.6024997 133.6659988
  37.7060012 136.4534997 132.2079988  37.3451746 136.1383796 132.9339175
  31.7590012 138.7854997 132.3969988  31.9010012 137.8394997 132.4179988
  31.6520012 138.9924997 131.4689988  31.7639919 138.6838246 132.2743408
  24.9130012 136.8864997 129.6699988  24.9570012 137.7464997 129.2509988
  24.4560012 136.3344997 129.0359988  24.8572240 136.9294422 129.5269864
  32.6360012 137.0174997 128.0709988  33.2820012 136.6884997 128.6949988
  33.1460012 137.5354997 127.4479988  32.7934299 137.0424450 128.0722731
  21.5340012 139.2834997 130.4319988  22.1870012 138.7334997 130.8639988
  21.5580012 139.0094997 129.5149988  21.6266683 139.1711466 130.3672123
  26.6900012 140.8334997 129.6469988  27.3060012 140.3074997 130.1569988
  26.1040012 140.1934997 129.2439988  26.6950810 140.6749208 129.6623173
  37.6720012 137.4704997 135.1659988  36.9840012 138.1284997 135.0709988
  37.6880012 137.2734997 136.1029988  37.5799540 137.5339819 135.2795990
  23.7240012 135.8044997 133.7439988  23.5050012 136.3344997 132.9779988
  23.0560012 136.0314997 134.3909988  23.6037600 135.9076906 133.7266379
  26.2930012 143.4804997 134.0309988  25.5530012 144.0784997 134.1349988
  27.0070012 144.0344997 133.7159988  26.2882237 143.6372831 134.0026465
  34.4000012 136.3084997 130.0509988  34.1840012 135.5424997 130.5839988
  35.0550012 136.7804997 130.5639988  34.4590632 136.2675889 130.1932861
  23.3170012 137.6964997 131.6959988  23.9310012 138.3294997 132.0689988
  23.8290012 137.2244997 131.0399988  23.4701981 137.7192267 131.6582908
  34.7470012 135.0234997 133.7309988  34.0110012 135.6344997 133.6929988
  35.4300012 135.4384997 133.2039988  34.7386541 135.1631374 133.6545832
  27.7500012 133.1104997 131.1959988  27.6330012 132.1614997 131.1419988
  26.8950012 133.4424997 131.4699988  27.6184212 133.0255571 131.2256497
  35.5440012 144.9854997 135.9239988  35.6840012 144.3944997 135.1849988
  35.7110012 145.8584997 135.5679988  35.5857411 145.0225428 135.7746894
  30.0170012 141.9474997 125.6969988  29.3050012 142.4824997 125.3449988
  30.7080012 142.0034997 125.0369988  30.0130132 142.0282543 125.5596289
  30.0700012 140.4054997 122.7359988  30.7710012 140.4274997 123.3869988
  30.3730012 139.7774997 122.0789988  30.2068133 140.3237070 122.7363369
  37.3860012 141.3254997 133.9899988  36.7330012 142.0204997 134.0799988
  37.8510012 141.5354997 133.1809988  37.3595274 141.4490643 133.8928462
  33.4220012 142.1574997 126.6489988  32.6900012 142.3854997 127.2219988
  33.8700012 141.4434997 127.1029988  33.3822725 142.0922145 126.7888816
  33.3200012 140.3314997 135.7159988  33.4000012 141.0944997 136.2879988
  32.7180012 140.6104997 135.0259988  33.2495756 140.4737134 135.7010589
  25.0680012 142.7874997 128.5309988  24.7370012 142.4174997 127.7129988
  25.6560012 142.1174997 128.8779988  25.1021873 142.6461156 128.4658102
  25.4340012 141.5564997 132.1649988  26.0000012 141.6774997 131.4019988
  25.7530012 142.1934997 132.8029988  25.5545474 141.6592219 132.1469862
  32.2930012 141.3194997 124.3339988  32.8730012 141.4694997 125.0809988
  32.7070012 141.7904997 123.6099988  32.4282997 141.4036578 124.3384058
  23.2340012 142.1534997 136.1099988  23.3050012 142.8044997 136.8089988
  22.3440012 142.2564997 135.7749988  23.1233005 142.2565427 136.1603495
  35.9920012 133.0694997 124.1469988  35.0920012 133.2084997 124.4419988
  36.2440012 133.9004997 123.7449988  35.9028702 133.2009074 124.1330205
  24.0580012 141.8574997 126.1199988  23.7660012 142.6254997 125.6299988
  23.3840012 141.1974997 125.9579988  23.9268111 141.8735587 126.0308978
  20.1510012 144.2204997 134.9349988  19.6500012 144.1924997 134.1199988
  20.1560012 143.3144997 135.2449988  20.0830944 144.0942396 134.8653226
  35.2510012 139.1594997 137.9819988  34.8440012 139.6404997 137.2609988
  35.2920012 138.2544997 137.6739988  35.2008437 139.1029374 137.8416683
  25.0190012 134.0134997 131.9739988  24.1570012 133.9264997 131.5659988
  24.9960012 134.8694997 132.4019988  24.8980409 134.1172883 131.9760589
  29.6820012 133.7354997 135.3489988  30.1020012 133.3204997 136.1019988
  28.7490012 133.5574997 135.4659988  29.6133644 133.6545900 135.4679539
  33.0080012 137.4914997 136.2019988  32.4940012 137.3654997 136.9999988
  32.8530012 138.4034997 135.9579988  32.9166852 137.5976132 136.2782158
  33.7710012 142.3524997 121.9639988  33.8130012 142.1294997 121.0339988
  34.6200012 142.7514997 122.1529988  33.8915280 142.3759438 121.8623554
  29.3430012 136.2284997 122.6339988  29.0900012 136.2474997 123.5569988
  29.0870012 135.3564997 122.3319988  29.2737481 136.1132558 122.7196175
  25.1100012 138.9794997 133.0689988  24.4680012 138.9384997 133.7779988
  25.1470012 139.9054997 132.8309988  25.0270664 139.0991430 133.1339219
  25.1070012 139.2004997 127.9809988  24.2140012 138.8594997 127.9219988
  25.5570012 138.8234997 127.2249988  25.0458130 139.1029631 127.8707702
  30.6420012 139.6164997 126.7979988  30.2330012 140.4314997 126.5069988
  31.3630012 139.4764997 126.1839988  30.6834537 139.7092018 126.6751342
  29.7440012 139.7914997 138.2859988  29.1820012 139.0874997 138.6069988
  30.5710012 139.6714997 138.7539988  29.7787095 139.6787883 138.3932330
  31.6470012 139.0624997 129.6119988  31.4520012 139.6674997 128.8969988
  31.8280012 138.2284997 129.1779988  31.6447614 139.0326300 129.4554405
  22.8600012 139.2994997 134.9359988  22.8220012 139.6994997 135.8049988
  22.3690012 138.4824997 135.0269988  22.7884684 139.2438069 135.0671059
  26.2260012 136.6734997 121.7349988  25.7950012 136.2284997 122.4649988
  25.5080012 137.0454997 121.2229988  26.0699438 136.6628940 121.7656799
  19.4680012 136.4154997 128.7869988  20.0990012 136.3864997 129.5059988
  19.9170012 135.9904997 128.0559988  19.6150918 136.3540836 128.7866441
  20.7420012 137.1614997 124.2109988  21.2160012 137.7524997 123.6259988
  20.0250012 137.6924997 124.5579988  20.7099341 137.3140867 124.1778836
  30.9110012 140.7004997 134.2829988  31.2340012 140.0694997 133.6399988
  30.4710012 140.1654997 134.9439988  30.8957484 140.5418387 134.2843198
  27.6880012 136.6274997 129.0669988  26.7770012 136.6844997 129.3559988
  28.1940012 136.5674997 129.8779988  27.6316899 136.6271941 129.2161184
  22.5170012 138.2564997 127.8939988  21.6270012 138.3564997 127.5539988
  22.8130012 137.4144997 127.5479988  22.4352823 138.1563545 127.8007213
  26.1700012 138.2564997 125.5509988  27.1010012 138.3854997 125.7289988
  25.9550012 138.9264997 124.9009988  26.2684247 138.3646565 125.4875747
  32.0930012 135.8624997 132.3319988  31.4170012 135.9934997 132.9959988
  31.6080012 135.7074997 131.5209988  31.9347146 135.8595157 132.3134469
  24.8440012 139.4514997 123.1169988  24.3010012 139.0714997 122.4259988
  25.6770012 139.6454997 122.6889988  24.8823631 139.4257125 122.9644501
  22.9790012 144.0084997 138.2159988  23.7110012 144.2624997 138.7779988
  22.1990012 144.2124997 138.7319988  22.9737073 144.0708160 138.3626151
  29.0080012 139.4154997 130.9539988  29.5730012 138.8684997 130.4069988
  28.8610012 138.8934997 131.7429988  29.0653380 139.2702259 130.9858695
  24.0100012 135.5514997 127.3729988  23.6930012 134.6494997 127.3369988
  24.7920012 135.5534997 126.8199988  24.0722408 135.4282474 127.2933569
  27.6350012 137.8034997 133.3679988  26.7990012 138.2574997 133.4789988
  28.1590012 138.0794997 134.1199988  27.5915416 137.9028660 133.4848119
  28.1790012 144.0164997 125.0529988  27.4340012 143.5094997 124.7309988
  28.0450012 144.0654997 125.9999988  28.0588776 143.9536940 125.1368647
  35.3290012 143.1494997 133.8399988  35.9710012 143.6064997 133.2959988
  34.4990012 143.2624997 133.3769988  35.3045963 143.2272704 133.7030177
  32.0770012 136.8304997 123.2519988  31.1380012 136.9424997 123.1009988
  32.3740012 137.6874997 123.5589988  31.9887583 136.9615981 123.2728337
  29.6980012 144.2004997 136.2899988  29.3530012 143.8194997 137.0969988
  29.4980012 145.1344997 136.3609988  29.6237527 144.2745135 136.4100689
  32.7950012 138.6974997 124.9129988  33.6870012 138.5604997 125.2319988
  32.8520012 139.4884997 124.3759988  32.9246504 138.7856052 124.8840818
  23.3040012 143.3114997 130.8229988  24.0490012 143.3094997 130.2219988
  23.3820012 142.4884997 131.3039988  23.4164995 143.1998887 130.8058282
  20.3120012 141.7724997 136.1379988  20.5350012 141.3544997 136.9699988
  19.7100012 141.1594997 135.7149988  20.2611759 141.6324668 136.1947022
  27.3280012 141.2894997 138.3509988  27.0320012 141.1234997 137.4559988
  28.2600012 141.0694997 138.3399988  27.4134166 141.2370640 138.2270536
  37.6800012 138.9074997 124.6079988  37.1260012 138.5114997 123.9359988
  37.7800012 139.8174997 124.3299988  37.6177059 138.9763586 124.4784401
  37.6430012 144.7074997 137.4449988  36.7920012 144.9454997 137.0779988
  38.2340012 144.6904997 136.6919988  37.6062487 144.7378258 137.2928893
  33.1360012 142.5014997 132.0939988  32.2070012 142.2694997 132.0669988
  33.5870012 141.7244997 131.7639988  33.0699216 142.3647238 132.0456917
  21.4340012 141.6914997 122.8139988  22.0500012 142.3184997 123.1939988
  20.5720012 142.0074997 123.0859988  21.4017698 141.8199430 122.9027183
  27.1060012 144.4924997 127.8029988  26.8650012 145.4174997 127.8449988
  26.3650012 144.0334997 128.1999988  26.9729225 144.5570933 127.8623742
  31.1650012 144.7404997 133.8189988  30.7390012 144.5134997 134.6459988
  31.7450012 144.0024997 133.6369988  31.1851868 144.6095299 133.9075830
  21.9460012 136.5254997 135.6959988  21.0530012 136.8644997 135.6279988
  21.8470012 135.6704997 136.1139988  21.8104164 136.4562588 135.7432235
  34.2340012 144.3424997 125.1199988  33.9560012 143.6144997 125.6759988
  35.1610012 144.4614997 125.3249988  34.3213124 144.2588802 125.2238845
  22.8490012 143.6044997 124.3069988  22.1630012 143.9564997 124.8739988
  23.3710012 144.3674997 124.0599988  22.8256852 143.7558578 124.3512118
  30.6800012 136.2664997 134.5859988  31.3790012 136.3404997 135.2359988
  30.2990012 135.4024997 134.7399988  30.7241767 136.1597624 134.6958322
  31.4650012 135.9184997 125.6829988  31.6850012 136.3904997 124.8799988
  32.0230012 136.3134997 126.3529988  31.5704968 136.0364285 125.6637331
  28.6650012 137.6464997 126.5179988  29.4770012 138.1514997 126.5639988
  28.4200012 137.5014997 127.4319988  28.7430520 137.6960375 126.6478517
  29.2000012 138.6324997 135.7019988  29.3190012 139.2064997 136.4599988
  29.8560012 137.9444997 135.8169988  29.3049025 138.6179858 135.8211321
  29.5480012 134.7274997 127.4559988  29.2020012 135.3454997 128.0999988
  30.2070012 135.2284997 126.9739988  29.5896968 134.8796278 127.4789383
  25.2060012 135.7904997 124.1429988  25.1230012 136.6794997 124.4899988
  26.0960012 135.5254997 124.3749988  25.3149469 135.8761430 124.2217626
  35.4050012 136.5394997 136.5369988  34.4880012 136.8024997 136.4499988
  35.7400012 136.5364997 135.6409988  35.3248613 136.5750761 136.4038837
  34.0070012 140.2904997 130.6329988  33.2090012 139.8754997 130.3049988
  34.4520012 139.5994997 131.1239988  33.9579885 140.1403543 130.6544889
  21.7810012 138.8824997 122.3199988  21.7360012 139.8214997 122.4979988
  20.8930012 138.6464997 122.0499988  21.6548574 138.9791892 122.3078912
  22.5890012 133.6644997 130.9929988  22.3600012 133.7234997 130.0649988
  22.1460012 132.8724997 131.2989988  22.4978530 133.5655753 130.9074786
  20.7140012 144.0274997 139.4369988  20.8580012 143.1254997 139.1509988
  19.9420012 144.3134997 138.9499988  20.6292753 143.9426816 139.3319505
  25.0560012 144.3714997 121.5699988  25.1200012 143.5774997 122.1009988
  25.7090012 144.2524997 120.8799988  25.1530241 144.2467148 121.5494317
  27.3700012 143.9974997 138.8699988  27.0410012 144.2684997 138.0129988
  27.5220012 143.0564997 138.7829988  27.3454809 143.9073862 138.7408244
  33.1040012 143.9134997 136.2529988  33.8500012 144.5014997 136.1339988
  32.3470012 144.4954997 136.3169988  33.1037820 144.0727143 136.2453590
  21.5470012 141.2274997 138.8569988  21.9550012 140.3704997 138.7359988
  21.2870012 141.2424997 139.7779988  21.5677568 141.1120807 138.9649588
  26.2050012 142.3434997 123.8759988  25.7450012 141.8594997 124.5619988
  26.4600012 141.6754997 123.2399988  26.1764902 142.1868731 123.8839334
  25.4940012 140.2364997 136.2319988  24.8760012 140.9114997 136.5119988
  25.8380012 140.5574997 135.3979988  25.4559132 140.3722411 136.1576262
  27.2760012 140.5864997 122.1379988  27.0960012 140.4324997 121.2109988
  28.2260012 140.6944997 122.1829988  27.3797776 140.5800175 122.0171843
  30.5140012 142.7084997 139.5089988  31.4670012 142.7914997 139.4819988
  30.3530012 141.9964997 140.1289988  30.6226426 142.6236746 139.5890578
  36.6660012 142.9414997 121.5839988  36.3920012 142.5164997 120.7709988
  36.7050012 143.8724997 121.3669988  36.6337699 143.0092484 121.4433610
  25.8330012 137.5914997 137.3139988  25.9830012 136.8624997 136.7119988
  25.8360012 138.3684997 136.7549988  25.8539302 137.5967851 137.1560692
  26.2460012 135.9614997 134.8069988  26.7820012 136.4124997 134.1549988
  25.3940012 135.8534997 134.3839988  26.2042178 136.0086390 134.6605756
  27.8280012 141.4004997 135.0459988  28.5780012 141.2444997 134.4729988
  27.4890012 142.2524997 134.7709988  27.8848921 141.4942968 134.9303561
  32.2430012 139.2154997 140.0749988  32.4360012 138.2844997 139.9629988
  33.1010012 139.6404997 140.0639988  32.3852934 139.1456531 140.0582031
  33.5600012 142.0044997 138.1519988  33.2790012 142.7134997 137.5739988
  34.5030012 141.9314997 138.0009988  33.6489291 142.0916711 138.0524967
  24.3120012 138.7894997 139.2259988  23.5450012 138.2574997 139.0149988
  24.9910012 138.4794997 138.6259988  24.2987877 138.6748300 139.1160716
  27.0520012 133.4174997 135.2379988  26.9530012 134.3644997 135.1329988
  26.3090012 133.0454997 134.7619988  26.9381184 133.4965863 135.1593621
  28.3160012 137.7394997 138.8019988  28.0800012 137.5194997 139.7029988
  27.5320012 137.5324997 138.2919988  28.1778504 137.6814586 138.8563431
  31.0310012 136.8664997 137.8769988  30.0840012 136.8984997 138.0099988
  31.3440012 136.2414997 138.5309988  30.9436707 136.7863998 137.9836060
  32.6650012 135.5004997 139.8829988  32.5690012 134.5484997 139.8769988
  32.3440012 135.7694997 140.7429988  32.6084070 135.4064035 139.9985441
  22.4920012 136.7104997 138.9299988  22.7040012 136.0034997 138.3199988
  22.3810012 136.2724997 139.7739988  22.5059721 136.5547084 138.9606843
  27.2730012 132.7114997 137.9089988  27.9850012 132.0714997 137.8949988
  27.1720012 132.9784997 136.9959988  27.3568066 132.6600079 137.7835677
  27.6270012 134.3944997 139.9629988  27.4950012 133.9184997 139.1429988
  27.0280012 135.1384997 139.9079988  27.5279071 134.4299618 139.8432886
  37.1240012 143.8104997 125.5589988  37.9740012 144.2314997 125.6859988
  37.1300012 143.0704997 126.1659988  37.2411372 143.7680803 125.6584344
  37.5190012 141.8634997 127.3819988  36.7920012 141.3844997 127.7799988
  38.1000012 142.0694997 128.1149988  37.4980473 141.8258103 127.5354528
  37.2780012 144.6484997 132.3299988  38.1110012 144.2704997 132.0499988
  37.3900012 145.5914997 132.2109988  37.4072647 144.7242218 132.2755487
  37.7870012 141.7644997 123.7739988  37.2650012 142.1214997 123.0549988
  37.7540012 142.4394997 124.4519988  37.7111634 141.9045413 123.7673145
  36.1360012 139.0044997 122.3239988  36.2320012 139.6714997 121.6439988
  35.9960012 138.1884997 121.8429988  36.1302272 138.9855655 122.1658347
  35.3050012 140.3844997 127.9449988  35.1550012 139.4394997 127.9249988
  34.9520012 140.6654997 128.7889988  35.2367448 140.2931481 128.0563705
  20.3410012 142.4624997 131.9559988  20.5250012 142.3804997 131.0199988
  21.1900012 142.3384997 132.3789988  20.4810151 142.4345073 131.8851451
  36.1620012 142.3544997 137.5839988  36.7450012 141.6204997 137.7759988
  36.7260012 143.1264997 137.6309988  36.3179769 142.3584227 137.6166159
  37.6580012 140.2574997 138.2689988  36.7950012 139.8784997 138.1029988
  38.2630012 139.5184997 138.1939988  37.6216119 140.1058268 138.2361528
  35.3830012 136.4124997 121.4419988  35.9940012 136.0414997 122.0789988
  34.5470012 135.9914997 121.6379988  35.3535032 136.3047554 121.5557035
  35.0160012 137.9674997 126.4079988  35.2960012 137.0604997 126.5319988
  35.7750012 138.4014997 126.0189988  35.1569277 137.9020942 126.3723682
  35.6280012 138.5484997 131.8439988  36.5610012 138.7604997 131.8089988
  35.3930012 138.6504997 132.7659988  35.7239244 138.5913100 131.9638892
  35.6570012 139.2854997 134.6199988  34.8140012 139.5534997 134.9859988
  36.0990012 140.1074997 134.4089988  35.6014158 139.4333291 134.6415491
  19.9380012 137.7334997 138.0969988  20.8580012 137.6114997 138.3329988
  19.4890012 136.9834997 138.4859988  20.0031580 137.6153727 138.1819006
  37.9400012 133.2654997 139.9729988  38.2900012 132.6114997 139.3679988
  38.0870012 134.1024997 139.5329988  38.0077887 133.2891548 139.8306858
  35.6290012 135.2304997 126.4559988  35.8120012 134.7814997 127.2819988
  35.0300012 134.6454997 125.9929988  35.5730202 135.0899975 126.5063275
  21.1590012 136.0454997 130.9879988  21.6050012 135.2534997 131.2899988
  21.6260012 136.7614997 131.4179988  21.2830831 136.0340685 131.0874006
  19.4630012 139.0444997 132.0569988  19.9550012 138.8234997 131.2659988
  19.8260012 139.8854997 132.3379988  19.5793126 139.1278357 131.9867531
  37.4600012 135.3744997 138.3219988  36.5420012 135.6454997 138.2869988
  37.5830012 134.8394997 137.5379988  37.3509729 135.3392508 138.2111923
  37.4960012 135.2974997 122.9839988  37.9080012 134.5764997 122.5089988
  38.1780012 135.9674997 123.0429988  37.6445885 135.2892368 122.9268915
  19.7770012 135.3024997 126.1109988  18.8520012 135.5114997 125.9819988
  20.2310012 135.7864997 125.4209988  19.7117292 135.3965343 126.0000720
  19.7410012 134.0404997 134.4549988  19.0760012 133.7944997 135.0989988
  19.2980012 134.6624997 133.8779988  19.5901318 134.0909410 134.4650898
  36.4600012 133.4644997 136.1409988  35.6480012 133.7894997 135.7539988
  36.6930012 132.7044997 135.6079988  36.3802203 133.4062758 136.0158880
  29.8900012 134.9134997 130.4639988  29.2160012 134.2844997 130.7199988
  30.4540012 134.4294997 129.8609988  29.8739230 134.7618744 130.4175340
  35.0330012 133.0214997 130.5769988  35.6370012 133.5684997 130.0749988
  34.1630012 133.3404997 130.3359988  34.9981208 133.1395137 130.4756886
  36.7600012 134.1594997 128.9099988  37.3720012 133.6454997 128.3829988
  37.1420012 135.0374997 128.9329988  36.8953371 134.2077866 128.8410041
  22.2170012 133.5474997 128.2859988  21.4400012 133.3134997 127.7789988
  22.7470012 132.7504997 128.2949988  22.1822330 133.4076988 128.2177742
  21.0530012 133.3454997 124.0899988  21.4920012 133.9564997 123.4979988
  20.4200012 133.8834997 124.5639988  21.0274514 133.5019257 124.0730930
  26.7960012 133.4744997 128.0999988  27.6710012 133.8624997 128.0699988
  26.6600012 133.2594997 129.0219988  26.8973695 133.4985184 128.2206440
  32.3530012 133.5044997 129.7489988  32.4290012 133.5994997 128.7989988
  32.0780012 132.5964997 129.8779988  32.3262321 133.3947867 129.6365079
  33.7060012 133.5304997 125.4409988  33.0040012 134.1454997 125.2309988
  33.2620012 132.6924997 125.5719988  33.5496450 133.5015639 125.4299000
  22.9140012 135.2614997 122.5319988  23.4060012 134.6314997 122.0049988
  23.5380012 135.5574997 123.1949988  23.0655688 135.2153804 122.5495482
  27.9400012 135.5544997 124.9889988  28.1180012 134.9084997 125.6719988
  27.8870012 136.3884997 125.4559988  27.9571999 135.5788009 125.1455917
  22.1750012 134.0614997 137.8039988  21.8090012 133.2964997 138.2459988
  23.0880012 134.0904997 138.0899988  22.2482736 133.9605640 137.9032502
  24.1480012 133.4124997 139.3399988  25.0460012 133.1384997 139.1549988
  23.7610012 132.6694997 139.8039988  24.2186612 133.2745914 139.3773643
  32.5690012 132.7444997 139.5219988  32.6460012 132.3184997 140.3759988
  33.4630012 132.7584997 139.1789988  32.7003428 132.6880880 139.5925310
  50.1510012 142.7034997 128.2449988  50.2400012 143.6474997 128.1129988
  49.5130012 142.4284997 127.5869988  50.0769081 142.7954830 128.1379614
  49.0840012 141.9584997 131.6639988  49.0460012 141.3124997 132.3689988
  48.7620012 141.4924997 130.8929988  49.0352333 141.8069408 131.6562978
  41.4530012 141.5734997 133.2569988  41.4940012 140.9474997 133.9799988
  42.1560012 142.1974997 133.4389988  41.5536363 141.5721196 133.3806044
  52.7900012 144.8974997 129.9649988  52.3500012 144.1774997 130.4159988
  52.7770012 145.6184997 130.5949988  52.7280226 144.8963731 130.1118494
  38.9860012 139.6834997 127.1849988  38.5390012 140.5294997 127.1659988
  38.4250012 139.1034997 126.6689988  38.8489900 139.7209916 127.1126801
  39.6970012 141.8454997 129.3099988  39.9100012 141.0754997 129.8379988
  40.4350012 141.9344997 128.7069988  39.8259044 141.7521968 129.3007123
  47.4740012 144.3914997 132.0699988  47.7780012 143.7054997 131.4749988
  48.1950012 144.5094997 132.6879988  47.6130671 144.3136305 132.0721816
  56.1370012 135.9924997 132.9309988  56.1860012 136.6024997 133.6659988
  56.5620012 136.4534997 132.2079988  56.2011746 136.1383796 132.9339175
  50.6150012 138.7854997 132.3969988  50.7570012 137.8394997 132.4179988
  50.5080012 138.9924997 131.4689988  50.6199919 138.6838246 132.2743408
  43.7690012 136.8864997 129.6699988  43.8130012 137.7464997 129.2509988
  43.3120012 136.3344997 129.0359988  43.7132240 136.9294422 129.5269864
  51.4920012 137.0174997 128.0709988  52.1380012 136.6884997 128.6949988
  52.0020012 137.5354997 127.4479988  51.6494299 137.0424450 128.0722731
  40.3900012 139.2834997 130.4319988  41.0430012 138.7334997 130.8639988
  40.4140012 139.0094997 129.5149988  40.4826683 139.1711466 130.3672123
  45.5460012 140.8334997 129.6469988  46.1620012 140.3074997 130.1569988
  44.9600012 140.1934997 129.2439988  45.5510810 140.6749208 129.6623173
  56.5280012 137.4704997 135.1659988  55.8400012 138.1284997 135.0709988
  56.5440012 137.2734997 136.1029988  56.4359540 137.5339819 135.2795990
  42.5800012 135.8044997 133.7439988  42.3610012 136.3344997 132.9779988
  41.9120012 136.0314997 134.3909988  42.4597600 135.9076906 133.7266379
  45.1490012 143.4804997 134.0309988  44.4090012 144.0784997 134.1349988
  45.8630012 144.0344997 133.7159988  45.1442237 143.6372831 134.0026465
  53.2560012 136.3084997 130.0509988  53.0400012 135.5424997 130.5839988
  53.9110012 136.7804997 130.5639988  53.3150632 136.2675889 130.1932861
  42.1730012 137.6964997 131.6959988  42.7870012 138.3294997 132.0689988
  42.6850012 137.2244997 131.0399988  42.3261981 137.7192267 131.6582908
  53.6030012 135.0234997 133.7309988  52.8670012 135.6344997 133.6929988
  54.2860012 135.4384997 133.2039988  53.5946541 135.1631374 133.6545832
  46.6060012 133.1104997 131.1959988  46.4890012 132.1614997 131.1419988
  45.7510012 133.4424997 131.4699988  46.4744212 133.0255571 131.2256497
  54.4000012 144.9854997 135.9239988  54.5400012 144.3944997 135.1849988
  54.5670012 145.8584997 135.5679988  54.4417411 145.0225428 135.7746894
  48.8730012 141.9474997 125.6969988  48.1610012 142.4824997 125.3449988
  49.5640012 142.0034997 125.0369988  48.8690132 142.0282543 125.5596289
  48.9260012 140.4054997 122.7359988  49.6270012 140.4274997 123.3869988
  49.2290012 139.7774997 122.0789988  49.0628133 140.3237070 122.7363369
  56.2420012 141.3254997 133.9899988  55.5890012 142.0204997 134.0799988
  56.7070012 141.5354997 133.1809988  56.2155274 141.4490643 133.8928462
  52.2780012 142.1574997 126.6489988  51.5460012 142.3854997 127.2219988
  52.7260012 141.4434997 127.1029988  52.2382725 142.0922145 126.7888816
  52.1760012 140.3314997 135.7159988  52.2560012 141.0944997 136.2879988
  51.5740012 140.6104997 135.0259988  52.1055756 140.4737134 135.7010589
  43.9240012 142.7874997 128.5309988  43.5930012 142.4174997 127.7129988
  44.5120012 142.1174997 128.8779988  43.9581873 142.6461156 128.4658102
  44.2900012 141.5564997 132.1649988  44.8560012 141.6774997 131.4019988
  44.6090012 142.1934997 132.8029988  44.4105474 141.6592219 132.1469862
  51.1490012 141.3194997 124.3339988  51.7290012 141.4694997 125.0809988
  51.5630012 141.7904997 123.6099988  51.2842997 141.4036578 124.3384058
  42.0900012 142.1534997 136.1099988  42.1610012 142.8044997 136.8089988
  41.2000012 142.2564997 135.7749988  41.9793005 142.2565427 136.1603495
  54.8480012 133.0694997 124.1469988  53.9480012 133.2084997 124.4419988
  55.1000012 133.9004997 123.7449988  54.7588702 133.2009074 124.1330205
  42.9140012 141.8574997 126.1199988  42.6220012 142.6254997 125.6299988
  42.2400012 141.1974997 125.9579988  42.7828111 141.8735587 126.0308978
  39.0070012 144.2204997 134.9349988  38.5060012 144.1924997 134.1199988
  39.0120012 143.3144997 135.2449988  38.9390944 144.0942396 134.8653226
  54.1070012 139.1594997 137.9819988  53.7000012 139.6404997 137.2609988
  54.1480012 138.2544997 137.6739988  54.0568437 139.1029374 137.8416683
  43.8750012 134.0134997 131.9739988  43.0130012 133.9264997 131.5659988
  43.8520012 134.8694997 132.4019988  43.7540409 134.1172883 131.9760589
  48.5380012 133.7354997 135.3489988  48.9580012 133.3204997 136.1019988
  47.6050012 133.5574997 135.4659988  48.4693644 133.6545900 135.4679539
  51.8640012 137.4914997 136.2019988  51.3500012 137.3654997 136.9999988
  51.7090012 138.4034997 135.9579988  51.7726852 137.5976132 136.2782158
  52.6270012 142.3524997 121.9639988  52.6690012 142.1294997 121.0339988
  53.4760012 142.7514997 122.1529988  52.7475280 142.3759438 121.8623554
  48.1990012 136.2284997 122.6339988  47.9460012 136.2474997 123.5569988
  47.9430012 135.3564997 122.3319988  48.1297481 136.1132558 122.7196175
  43.9660012 138.9794997 133.0689988  43.3240012 138.9384997 133.7779988
  44.0030012 139.9054997 132.8309988  43.8830664 139.0991430 133.1339219
  43.9630012 139.2004997 127.9809988  43.0700012 138.8594997 127.9219988
  44.4130012 138.8234997 127.2249988  43.9018130 139.1029631 127.8707702
  49.4980012 139.6164997 126.7979988  49.0890012 140.4314997 126.5069988
  50.2190012 139.4764997 126.1839988  49.5394537 139.7092018 126.6751342
  48.6000012 139.7914997 138.2859988  48.0380012 139.0874997 138.6069988
  49.4270012 139.6714997 138.7539988  48.6347095 139.6787883 138.3932330
  50.5030012 139.0624997 129.6119988  50.3080012 139.6674997 128.8969988
  50.6840012 138.2284997 129.1779988  50.5007614 139.0326300 129.4554405
  41.7160012 139.2994997 134.9359988  41.6780012 139.6994997 135.8049988
  41.2250012 138.4824997 135.0269988  41.6444684 139.2438069 135.0671059
  45.0820012 136.6734997 121.7349988  44.6510012 136.2284997 122.4649988
  44.3640012 137.0454997 121.2229988  44.9259438 136.6628940 121.7656799
  38.3240012 136.4154997 128.7869988  38.9550012 136.3864997 129.5059988
  38.7730012 135.9904997 128.0559988  38.4710918 136.3540836 128.7866441
  39.5980012 137.1614997 124.2109988  40.0720012 137.7524997 123.6259988
  38.8810012 137.6924997 124.5579988  39.5659341 137.3140867 124.1778836
  49.7670012 140.7004997 134.2829988  50.0900012 140.0694997 133.6399988
  49.3270012 140.1654997 134.9439988  49.7517484 140.5418387 134.2843198
  46.5440012 136.6274997 129.0669988  45.6330012 136.6844997 129.3559988
  47.0500012 136.5674997 129.8779988  46.4876899 136.6271941 129.2161184
  41.3730012 138.2564997 127.8939988  40.4830012 138.3564997 127.5539988
  41.6690012 137.4144997 127.5479988  41.2912823 138.1563545 127.8007213
  45.0260012 138.2564997 125.5509988  45.9570012 138.3854997 125.7289988
  44.8110012 138.9264997 124.9009988  45.1244247 138.3646565 125.4875747
  50.9490012 135.8624997 132.3319988  50.2730012 135.9934997 132.9959988
  50.4640012 135.7074997 131.5209988  50.7907146 135.8595157 132.3134469
  43.7000012 139.4514997 123.1169988  43.1570012 139.0714997 122.4259988
  44.5330012 139.6454997 122.6889988  43.7383631 139.4257125 122.9644501
  41.8350012 144.0084997 138.2159988  42.5670012 144.2624997 138.7779988
  41.0550012 144.2124997 138.7319988  41.8297073 144.0708160 138.3626151
  47.8640012 139.4154997 130.9539988  48.4290012 138.8684997 130.4069988
  47.7170012 138.8934997 131.7429988  47.9213380 139.2702259 130.9858695
  42.8660012 135.5514997 127.3729988  42.5490012 134.6494997 127.3369988
  43.6480012 135.5534997 126.8199988  42.9282408 135.4282474 127.2933569
  46.4910012 137.8034997 133.3679988  45.6550012 138.2574997 133.4789988
  47.0150012 138.0794997 134.1199988  46.4475416 137.9028660 133.4848119
  47.0350012 144.0164997 125.0529988  46.2900012 143.5094997 124.7309988
  46.9010012 144.0654997 125.9999988  46.9148776 143.9536940 125.1368647
  54.1850012 143.1494997 133.8399988  54.8270012 143.6064997 133.2959988
  53.3550012 143.2624997 133.3769988  54.1605963 143.2272704 133.7030177
  50.9330012 136.8304997 123.2519988  49.9940012 136.9424997 123.1009988
  51.2300012 137.6874997 123.5589988  50.8447583 136.9615981 123.2728337
  48.5540012 144.2004997 136.2899988  48.2090012 143.8194997 137.0969988
  48.3540012 145.1344997 136.3609988  48.4797527 144.2745135 136.4100689
  51.6510012 138.6974997 124.9129988  52.5430012 138.5604997 125.2319988
  51.7080012 139.4884997 124.3759988  51.7806504 138.7856052 124.8840818
  42.1600012 143.3114997 130.8229988  42.9050012 143.3094997 130.2219988
  42.2380012 142.4884997 131.3039988  42.2724995 143.1998887 130.8058282
  39.1680012 141.7724997 136.1379988  39.3910012 141.3544997 136.9699988
  38.5660012 141.1594997 135.7149988  39.1171759 141.6324668 136.1947022
  46.1840012 141.2894997 138.3509988  45.8880012 141.1234997 137.4559988
  47.1160012 141.0694997 138.3399988  46.2694166 141.2370640 138.2270536
  56.5360012 138.9074997 124.6079988  55.9820012 138.5114997 123.9359988
  56.6360012 139.8174997 124.3299988  56.4737059 138.9763586 124.4784401
  56.4990012 144.7074997 137.4449988  55.6480012 144.9454997 137.0779988
  57.0900012 144.6904997 136.6919988  56.4622487 144.7378258 137.2928893
  51.9920012 142.5014997 132.0939988  51.0630012 142.2694997 132.0669988
  52.4430012 141.7244997 131.7639988  51.9259216 142.3647238 132.0456917
  40.2900012 141.6914997 122.8139988  40.9060012 142.3184997 123.1939988
  39.4280012 142.0074997 123.0859988  40.2577698 141.8199430 122.9027183
  45.9620012 144.4924997 127.8029988  45.7210012 145.4174997 127.8449988
  45.2210012 144.0334997 128.1999988  45.8289225 144.5570933 127.8623742
  50.0210012 144.7404997 133.8189988  49.5950012 144.5134997 134.6459988
  50.6010012 144.0024997 133.6369988  50.0411868 144.6095299 133.9075830
  40.8020012 136.5254997 135.6959988  39.9090012 136.8644997 135.6279988
  40.7030012 135.6704997 136.1139988  40.6664164 136.4562588 135.7432235
  53.0900012 144.3424997 125.1199988  52.8120012 143.6144997 125.6759988
  54.0170012 144.4614997 125.3249988  53.1773124 144.2588802 125.2238845
  41.7050012 143.6044997 124.3069988  41.0190012 143.9564997 124.8739988
  42.2270012 144.3674997 124.0599988  41.6816852 143.7558578 124.3512118
  49.5360012 136.2664997 134.5859988  50.2350012 136.3404997 135.2359988
  49.1550012 135.4024997 134.7399988  49.5801767 136.1597624 134.6958322
  50.3210012 135.9184997 125.6829988  50.5410012 136.3904997 124.8799988
  50.8790012 136.3134997 126.3529988  50.4264968 136.0364285 125.6637331
  47.5210012 137.6464997 126.5179988  48.3330012 138.1514997 126.5639988
  47.2760012 137.5014997 127.4319988  47.5990520 137.6960375 126.6478517
  48.0560012 138.6324997 135.7019988  48.1750012 139.2064997 136.4599988
  48.7120012 137.9444997 135.8169988  48.1609025 138.6179858 135.8211321
  48.4040012 134.7274997 127.4559988  48.0580012 135.3454997 128.0999988
  49.0630012 135.2284997 126.9739988  48.4456968 134.8796278 127.4789383
  44.0620012 135.7904997 124.1429988  43.9790012 136.6794997 124.4899988
  44.9520012 135.5254997 124.3749988  44.1709469 135.8761430 124.2217626
  54.2610012 136.5394997 136.5369988  53.3440012 136.8024997 136.4499988
  54.5960012 136.5364997 135.6409988  54.1808613 136.5750761 136.4038837
  52.8630012 140.2904997 130.6329988  52.0650012 139.8754997 130.3049988
  53.3080012 139.5994997 131.1239988  52.8139885 140.1403543 130.6544889
  40.6370012 138.8824997 122.3199988  40.5920012 139.8214997 122.4979988
  39.7490012 138.6464997 122.0499988  40.5108574 138.9791892 122.3078912
  41.4450012 133.6644997 130.9929988  41.2160012 133.7234997 130.0649988
  41.0020012 132.8724997 131.2989988  41.3538530 133.5655753 130.9074786
  39.5700012 144.0274997 139.4369988  39.7140012 143.1254997 139.1509988
  38.7980012 144.3134997 138.9499988  39.4852753 143.9426816 139.3319505
  43.9120012 144.3714997 121.5699988  43.9760012 143.5774997 122.1009988
  44.5650012 144.2524997 120.8799988  44.0090241 144.2467148 121.5494317
  46.2260012 143.9974997 138.8699988  45.8970012 144.2684997 138.0129988
  46.3780012 143.0564997 138.7829988  46.2014809 143.9073862 138.7408244
  51.9600012 143.9134997 136.2529988  52.7060012 144.5014997 136.1339988
  51.2030012 144.4954997 136.3169988  51.9597820 144.0727143 136.2453590
  40.4030012 141.2274997 138.8569988  40.8110012 140.3704997 138.7359988
  40.1430012 141.2424997 139.7779988  40.4237568 141.1120807 138.9649588
  45.0610012 142.3434997 123.8759988  44.6010012 141.8594997 124.5619988
  45.3160012 141.6754997 123.2399988  45.0324902 142.1868731 123.8839334
  44.3500012 140.2364997 136.2319988  43.7320012 140.9114997 136.5119988
  44.6940012 140.5574997 135.3979988  44.3119132 140.3722411 136.1576262
  46.1320012 140.5864997 122.1379988  45.9520012 140.4324997 121.2109988
  47.0820012 140.6944997 122.1829988  46.2357776 140.5800175 122.0171843
  49.3700012 142.7084997 139.5089988  50.3230012 142.7914997 139.4819988
  49.2090012 141.9964997 140.1289988  49.4786426 142.6236746 139.5890579
  55.5220012 142.9414997 121.5839988  55.2480012 142.5164997 120.7709988
  55.5610012 143.8724997 121.3669988  55.4897699 143.0092484 121.4433610
  44.6890012 137.5914997 137.3139988  44.8390012 136.8624997 136.7119988
  44.6920012 138.3684997 136.7549988  44.7099302 137.5967851 137.1560692
  45.1020012 135.9614997 134.8069988  45.6380012 136.4124997 134.1549988
  44.2500012 135.8534997 134.3839988  45.0602178 136.0086390 134.6605756
  46.6840012 141.4004997 135.0459988  47.4340012 141.2444997 134.4729988
  46.3450012 142.2524997 134.7709988  46.7408921 141.4942968 134.9303561
  51.0990012 139.2154997 140.0749988  51.2920012 138.2844997 139.9629988
  51.9570012 139.6404997 140.0639988  51.2412934 139.1456531 140.0582031
  52.4160012 142.0044997 138.1519988  52.1350012 142.7134997 137.5739988
  53.3590012 141.9314997 138.0009988  52.5049291 142.0916711 138.0524967
  43.1680012 138.7894997 139.2259988  42.4010012 138.2574997 139.0149988
  43.8470012 138.4794997 138.6259988  43.1547877 138.6748300 139.1160716
  45.9080012 133.4174997 135.2379988  45.8090012 134.3644997 135.1329988
  45.1650012 133.0454997 134.7619988  45.7941184 133.4965863 135.1593621
  47.1720012 137.7394997 138.8019988  46.9360012 137.5194997 139.7029988
  46.3880012 137.5324997 138.2919988  47.0338504 137.6814586 138.8563431
  49.8870012 136.8664997 137.8769988  48.9400012 136.8984997 138.0099988
  50.2000012 136.2414997 138.5309988  49.7996707 136.7863998 137.9836060
  51.5210012 135.5004997 139.8829988  51.4250012 134.5484997 139.8769988
  51.2000012 135.7694997 140.7429988  51.4644070 135.4064035 139.9985441
  41.3480012 136.7104997 138.9299988  41.5600012 136.0034997 138.3199988
  41.2370012 136.2724997 139.7739988  41.3619721 136.5547084 138.9606843
  46.1290012 132.7114997 137.9089988  46.8410012 132.0714997 137.8949988
  46.0280012 132.9784997 136.9959988  46.2128066 132.6600079 137.7835677
  46.4830012 134.3944997 139.9629988  46.3510012 133.9184997 139.1429988
  45.8840012 135.1384997 139.9079988  46.3839071 134.4299618 139.8432886
  55.9800012 143.8104997 125.5589988  56.8300012 144.2314997 125.6859988
  55.9860012 143.0704997 126.1659988  56.0971372 143.7680803 125.6584344
  56.3750012 141.8634997 127.3819988  55.6480012 141.3844997 127.7799988
  56.9560012 142.0694997 128.1149988  56.3540473 141.8258103 127.5354528
  56.1340012 144.6484997 132.3299988  56.9670012 144.2704997 132.0499988
  56.2460012 145.5914997 132.2109988  56.2632647 144.7242218 132.2755487
  56.6430012 141.7644997 123.7739988  56.1210012 142.1214997 123.0549988
  56.6100012 142.4394997 124.4519988  56.5671634 141.9045413 123.7673145
  54.9920012 139.0044997 122.3239988  55.0880012 139.6714997 121.6439988
  54.8520012 138.1884997 121.8429988  54.9862272 138.9855655 122.1658347
  54.1610012 140.3844997 127.9449988  54.0110012 139.4394997 127.9249988
  53.8080012 140.6654997 128.7889988  54.0927448 140.2931481 128.0563705
  39.1970012 142.4624997 131.9559988  39.3810012 142.3804997 131.0199988
  40.0460012 142.3384997 132.3789988  39.3370151 142.4345073 131.8851451
  55.0180012 142.3544997 137.5839988  55.6010012 141.6204997 137.7759988
  55.5820012 143.1264997 137.6309988  55.1739769 142.3584227 137.6166159
  56.5140012 140.2574997 138.2689988  55.6510012 139.8784997 138.1029988
  57.1190012 139.5184997 138.1939988  56.4776119 140.1058268 138.2361528
  54.2390012 136.4124997 121.4419988  54.8500012 136.0414997 122.0789988
  53.4030012 135.9914997 121.6379988  54.2095032 136.3047554 121.5557035
  53.8720012 137.9674997 126.4079988  54.1520012 137.0604997 126.5319988
  54.6310012 138.4014997 126.0189988  54.0129277 137.9020942 126.3723682
  54.4840012 138.5484997 131.8439988  55.4170012 138.7604997 131.8089988
  54.2490012 138.6504997 132.7659988  54.5799244 138.5913100 131.9638892
  54.5130012 139.2854997 134.6199988  53.6700012 139.5534997 134.9859988
  54.9550012 140.1074997 134.4089988  54.4574158 139.4333291 134.6415491
  38.7940012 137.7334997 138.0969988  39.7140012 137.6114997 138.3329988
  38.3450012 136.9834997 138.4859988  38.8591580 137.6153727 138.1819006
  56.7960012 133.2654997 139.9729988  57.1460012 132.6114997 139.3679988
  56.9430012 134.1024997 139.5329988  56.8637887 133.2891548 139.8306858
  54.4850012 135.2304997 126.4559988  54.6680012 134.7814997 127.2819988
  53.8860012 134.6454997 125.9929988  54.4290202 135.0899975 126.5063275
  40.0150012 136.0454997 130.9879988  40.4610012 135.2534997 131.2899988
  40.4820012 136.7614997 131.4179988  40.1390831 136.0340685 131.0874006
  38.3190012 139.0444997 132.0569988  38.8110012 138.8234997 131.2659988
  38.6820012 139.8854997 132.3379988  38.4353126 139.1278357 131.9867531
  56.3160012 135.3744997 138.3219988  55.3980012 135.6454997 138.2869988
  56.4390012 134.8394997 137.5379988  56.2069729 135.3392508 138.2111923
  56.3520012 135.2974997 122.9839988  56.7640012 134.5764997 122.5089988
  57.0340012 135.9674997 123.0429988  56.5005885 135.2892368 122.9268915
  38.6330012 135.3024997 126.1109988  37.7080012 135.5114997 125.9819988
  39.0870012 135.7864997 125.4209988  38.5677292 135.3965343 126.0000720
  38.5970012 134.0404997 134.4549988  37.9320012 133.7944997 135.0989988
  38.1540012 134.6624997 133.8779988  38.4461318 134.0909410 134.4650898
  55.3160012 133.4644997 136.1409988  54.5040012 133.7894997 135.7539988
  55.5490012 132.7044997 135.6079988  55.2362203 133.4062758 136.0158880
  48.7460012 134.9134997 130.4639988  48.0720012 134.2844997 130.7199988
  49.3100012 134.4294997 129.8609988  48.7299230 134.7618744 130.4175340
  53.8890012 133.0214997 130.5769988  54.4930012 133.5684997 130.0749988
  53.0190012 133.3404997 130.3359988  53.8541208 133.1395137 130.4756886
  55.6160012 134.1594997 128.9099988  56.2280012 133.6454997 128.3829988
  55.9980012 135.0374997 128.9329988  55.7513371 134.2077866 128.8410041
  41.0730012 133.5474997 128.2859988  40.2960012 133.3134997 127.7789988
  41.6030012 132.7504997 128.2949988  41.0382330 133.4076988 128.2177742
  39.9090012 133.3454997 124.0899988  40.3480012 133.9564997 123.4979988
  39.2760012 133.8834997 124.5639988  39.8834514 133.5019257 124.0730930
  45.6520012 133.4744997 128.0999988  46.5270012 133.8624997 128.0699988
  45.5160012 133.2594997 129.0219988  45.7533695 133.4985184 128.2206440
  51.2090012 133.5044997 129.7489988  51.2850012 133.5994997 128.7989988
  50.9340012 132.5964997 129.8779988  51.1822321 133.3947867 129.6365079
  52.5620012 133.5304997 125.4409988  51.8600012 134.1454997 125.2309988
  52.1180012 132.6924997 125.5719988  52.4056450 133.5015639 125.4299000
  41.7700012 135.2614997 122.5319988  42.2620012 134.6314997 122.0049988
  42.3940012 135.5574997 123.1949988  41.9215688 135.2153804 122.5495482
  46.7960012 135.5544997 124.9889988  46.9740012 134.9084997 125.6719988
  46.7430012 136.3884997 125.4559988  46.8131999 135.5788009 125.1455917
  41.0310012 134.0614997 137.8039988  40.6650012 133.2964997 138.2459988
  41.9440012 134.0904997 138.0899988  41.1042736 133.9605640 137.9032502
  43.0040012 133.4124997 139.3399988  43.9020012 133.1384997 139.1549988
  42.6170012 132.6694997 139.8039988  43.0746612 133.2745914 139.3773643
  51.4250012 132.7444997 139.5219988  51.5020012 132.3184997 140.3759988
  52.3190012 132.7584997 139.1789988  51.5563428 132.6880880 139.5925310
  69.0070012 142.7034997 128.2449988  69.0960012 143.6474997 128.1129988
  68.3690012 142.4284997 127.5869988  68.9329081 142.7954830 128.1379614
  67.9400012 141.9584997 131.6639988  67.9020012 141.3124997 132.3689988
  67.6180012 141.4924997 130.8929988  67.8912333 141.8069408 131.6562978
  60.3090012 141.5734997 133.2569988  60.3500012 140.9474997 133.9799988
  61.0120012 142.1974997 133.4389988  60.4096363 141.5721196 133.3806044
  71.6460012 144.8974997 129.9649988  71.2060012 144.1774997 130.4159988
  71.6330012 145.6184997 130.5949988  71.5840226 144.8963731 130.1118494
  57.8420012 139.6834997 127.1849988  57.3950012 140.5294997 127.1659988
  57.2810012 139.1034997 126.6689988  57.7049900 139.7209916 127.1126801
  58.5530012 141.8454997 129.3099988  58.7660012 141.0754997 129.8379988
  59.2910012 141.9344997 128.7069988  58.6819044 141.7521968 129.3007123
  66.3300012 144.3914997 132.0699988  66.6340012 143.7054997 131.4749988
  67.0510012 144.5094997 132.6879988  66.4690671 144.3136305 132.0721816
  74.9930012 135.9924997 132.9309988  75.0420012 136.6024997 133.6659988
  75.4180012 136.4534997 132.2079988  75.0571746 136.1383796 132.9339175
  69.4710012 138.7854997 132.3969988  69.6130012 137.8394997 132.4179988
  69.3640012 138.9924997 131.4689988  69.4759919 138.6838246 132.2743408
  62.6250012 136.8864997 129.6699988  62.6690012 137.7464997 129.2509988
  62.1680012 136.3344997 129.0359988  62.5692240 136.9294422 129.5269864
  70.3480012 137.0174997 128.0709988  70.9940012 136.6884997 128.6949988
  70.8580012 137.5354997 127.4479988  70.5054299 137.0424450 128.0722731
  59.2460012 139.2834997 130.4319988  59.8990012 138.7334997 130.8639988
  59.2700012 139.0094997 129.5149988  59.3386683 139.1711466 130.3672123
  64.4020012 140.8334997 129.6469988  65.0180012 140.3074997 130.1569988
  63.8160012 140.1934997 129.2439988  64.4070810 140.6749208 129.6623173
  75.3840012 137.4704997 135.1659988  74.6960012 138.1284997 135.0709988
  75.4000012 137.2734997 136.1029988  75.2919540 137.5339819 135.2795990
  61.4360012 135.8044997 133.7439988  61.2170012 136.3344997 132.9779988
  60.7680012 136.0314997 134.3909988  61.3157600 135.9076906 133.7266379
  64.0050012 143.4804997 134.0309988  63.2650012 144.0784997 134.1349988
  64.7190012 144.0344997 133.7159988  64.0002237 143.6372831 134.0026465
  72.1120012 136.3084997 130.0509988  71.8960012 135.5424997 130.5839988
  72.7670012 136.7804997 130.5639988  72.1710632 136.2675889 130.1932861
  61.0290012 137.6964997 131.6959988  61.6430012 138.3294997 132.0689988
  61.5410012 137.2244997 131.0399988  61.1821981 137.7192267 131.6582908
  72.4590012 135.0234997 133.7309988  71.7230012 135.6344997 133.6929988
  73.1420012 135.4384997 133.2039988  72.4506541 135.1631374 133.6545832
  65.4620012 133.1104997 131.1959988  65.3450012 132.1614997 131.1419988
  64.6070012 133.4424997 131.4699988  65.3304212 133.0255571 131.2256497
  73.2560012 144.9854997 135.9239988  73.3960012 144.3944997 135.1849988
  73.4230012 145.8584997 135.5679988  73.2977411 145.0225428 135.7746894
  67.7290012 141.9474997 125.6969988  67.0170012 142.4824997 125.3449988
  68.4200012 142.0034997 125.0369988  67.7250132 142.0282543 125.5596289
  67.7820012 140.4054997 122.7359988  68.4830012 140.4274997 123.3869988
  68.0850012 139.7774997 122.0789988  67.9188133 140.3237070 122.7363369
  75.0980012 141.3254997 133.9899988  74.4450012 142.0204997 134.0799988
  75.5630012 141.5354997 133.1809988  75.0715274 141.4490643 133.8928462
  71.1340012 142.1574997 126.6489988  70.4020012 142.3854997 127.2219988
  71.5820012 141.4434997 127.1029988  71.0942725 142.0922145 126.7888816
  71.0320012 140.3314997 135.7159988  71.1120012 141.0944997 136.2879988
  70.4300012 140.6104997 135.0259988  70.9615756 140.4737134 135.7010589
  62.7800012 142.7874997 128.5309988  62.4490012 142.4174997 127.7129988
  63.3680012 142.1174997 128.8779988  62.8141873 142.6461156 128.4658102
  63.1460012 141.5564997 132.1649988  63.7120012 141.6774997 131.4019988
  63.4650012 142.1934997 132.8029988  63.2665474 141.6592219 132.1469862
  70.0050012 141.3194997 124.3339988  70.5850012 141.4694997 125.0809988
  70.4190012 141.7904997 123.6099988  70.1402997 141.4036578 124.3384058
  60.9460012 142.1534997 136.1099988  61.0170012 142.8044997 136.8089988
  60.0560012 142.2564997 135.7749988  60.8353005 142.2565427 136.1603495
  73.7040012 133.0694997 124.1469988  72.8040012 133.2084997 124.4419988
  73.9560012 133.9004997 123.7449988  73.6148702 133.2009074 124.1330205
  61.7700012 141.8574997 126.1199988  61.4780012 142.6254997 125.6299988
  61.0960012 141.1974997 125.9579988  61.6388111 141.8735587 126.0308978
  57.8630012 144.2204997 134.9349988  57.3620012 144.1924997 134.1199988
  57.8680012 143.3144997 135.2449988  57.7950944 144.0942396 134.8653226
  72.9630012 139.1594997 137.9819988  72.5560012 139.6404997 137.2609988
  73.0040012 138.2544997 137.6739988  72.9128437 139.1029374 137.8416683
  62.7310012 134.0134997 131.9739988  61.8690012 133.9264997 131.5659988
  62.7080012 134.8694997 132.4019988  62.6100409 134.1172883 131.9760589
  67.3940012 133.7354997 135.3489988  67.8140012 133.3204997 136.1019988
  66.4610012 133.5574997 135.4659988  67.3253644 133.6545900 135.4679539
  70.7200012 137.4914997 136.2019988  70.2060012 137.3654997 136.9999988
  70.5650012 138.4034997 135.9579988  70.6286852 137.5976132 136.2782158
  71.4830012 142.3524997 121.9639988  71.5250012 142.1294997 121.0339988
  72.3320012 142.7514997 122.1529988  71.6035280 142.3759438 121.8623554
  67.0550012 136.2284997 122.6339988  66.8020012 136.2474997 123.5569988
  66.7990012 135.3564997 122.3319988  66.9857481 136.1132558 122.7196175
  62.8220012 138.9794997 133.0689988  62.1800012 138.9384997 133.7779988
  62.8590012 139.9054997 132.8309988  62.7390664 139.0991430 133.1339219
  62.8190012 139.2004997 127.9809988  61.9260012 138.8594997 127.9219988
  63.2690012 138.8234997 127.2249988  62.7578130 139.1029631 127.8707702
  68.3540012 139.6164997 126.7979988  67.9450012 140.4314997 126.5069988
  69.0750012 139.4764997 126.1839988  68.3954537 139.7092018 126.6751342
  67.4560012 139.7914997 138.2859988  66.8940012 139.0874997 138.6069988
  68.2830012 139.6714997 138.7539988  67.4907095 139.6787883 138.3932330
  69.3590012 139.0624997 129.6119988  69.1640012 139.6674997 128.8969988
  69.5400012 138.2284997 129.1779988  69.3567614 139.0326300 129.4554405
  60.5720012 139.2994997 134.9359988  60.5340012 139.6994997 135.8049988
  60.0810012 138.4824997 135.0269988  60.5004684 139.2438069 135.0671059
  63.9380012 136.6734997 121.7349988  63.5070012 136.2284997 122.4649988
  63.2200012 137.0454997 121.2229988  63.7819438 136.6628940 121.7656799
  57.1800012 136.4154997 128.7869988  57.8110012 136.3864997 129.5059988
  57.6290012 135.9904997 128.0559988  57.3270918 136.3540836 128.7866441
  58.4540012 137.1614997 124.2109988  58.9280012 137.7524997 123.6259988
  57.7370012 137.6924997 124.5579988  58.4219341 137.3140867 124.1778836
  68.6230012 140.7004997 134.2829988  68.9460012 140.0694997 133.6399988
  68.1830012 140.1654997 134.9439988  68.6077484 140.5418387 134.2843198
  65.4000012 136.6274997 129.0669988  64.4890012 136.6844997 129.3559988
  65.9060012 136.5674997 129.8779988  65.3436899 136.6271941 129.2161184
  60.2290012 138.2564997 127.8939988  59.3390012 138.3564997 127.5539988
  60.5250012 137.4144997 127.5479988  60.1472823 138.1563545 127.8007213
  63.8820012 138.2564997 125.5509988  64.8130012 138.3854997 125.7289988
  63.6670012 138.9264997 124.9009988  63.9804247 138.3646565 125.4875747
  69.8050012 135.8624997 132.3319988  69.1290012 135.9934997 132.9959988
  69.3200012 135.7074997 131.5209988  69.6467146 135.8595157 132.3134469
  62.5560012 139.4514997 123.1169988  62.0130012 139.0714997 122.4259988
  63.3890012 139.6454997 122.6889988  62.5943631 139.4257125 122.9644501
  60.6910012 144.0084997 138.2159988  61.4230012 144.2624997 138.7779988
  59.9110012 144.2124997 138.7319988  60.6857073 144.0708160 138.3626151
  66.7200012 139.4154997 130.9539988  67.2850012 138.8684997 130.4069988
  66.5730012 138.8934997 131.7429988  66.7773380 139.2702259 130.9858695
  61.7220012 135.5514997 127.3729988  61.4050012 134.6494997 127.3369988
  62.5040012 135.5534997 126.8199988  61.7842408 135.4282474 127.2933569
  65.3470012 137.8034997 133.3679988  64.5110012 138.2574997 133.4789988
  65.8710012 138.0794997 134.1199988  65.3035416 137.9028660 133.4848119
  65.8910012 144.0164997 125.0529988  65.1460012 143.5094997 124.7309988
  65.7570012 144.0654997 125.9999988  65.7708776 143.9536940 125.1368647
  73.0410012 143.1494997 133.8399988  73.6830012 143.6064997 133.2959988
  72.2110012 143.2624997 133.3769988  73.0165963 143.2272704 133.7030177
  69.7890012 136.8304997 123.2519988  68.8500012 136.9424997 123.1009988
  70.0860012 137.6874997 123.5589988  69.7007583 136.9615981 123.2728337
  67.4100012 144.2004997 136.2899988  67.0650012 143.8194997 137.0969988
  67.2100012 145.1344997 136.3609988  67.3357527 144.2745135 136.4100689
  70.5070012 138.6974997 124.9129988  71.3990012 138.5604997 125.2319988
  70.5640012 139.4884997 124.3759988  70.6366504 138.7856052 124.8840818
  61.0160012 143.3114997 130.8229988  61.7610012 143.3094997 130.2219988
  61.0940012 142.4884997 131.3039988  61.1284995 143.1998887 130.8058282
  58.0240012 141.7724997 136.1379988  58.2470012 141.3544997 136.9699988
  57.4220012 141.1594997 135.7149988  57.9731759 141.6324668 136.1947022
  65.0400012 141.2894997 138.3509988  64.7440012 141.1234997 137.4559988
  65.9720012 141.0694997 138.3399988  65.1254166 141.2370640 138.2270536
  75.3920012 138.9074997 124.6079988  74.8380012 138.5114997 123.9359988
  75.4920012 139.8174997 124.3299988  75.3297059 138.9763586 124.4784401
  75.3550012 144.7074997 137.4449988  74.5040012 144.9454997 137.0779988
  75.9460012 144.6904997 136.6919988  75.3182487 144.7378258 137.2928893
  70.8480012 142.5014997 132.0939988  69.9190012 142.2694997 132.0669988
  71.2990012 141.7244997 131.7639988  70.7819216 142.3647238 132.0456917
  59.1460012 141.6914997 122.8139988  59.7620012 142.3184997 123.1939988
  58.2840012 142.0074997 123.0859988  59.1137698 141.8199430 122.9027183
  64.8180012 144.4924997 127.8029988  64.5770012 145.4174997 127.8449988
  64.0770012 144.0334997 128.1999988  64.6849225 144.5570933 127.8623742
  68.8770012 144.7404997 133.8189988  68.4510012 144.5134997 134.6459988
  69.4570012 144.0024997 133.6369988  68.8971868 144.6095299 133.9075830
  59.6580012 136.5254997 135.6959988  58.7650012 136.8644997 135.6279988
  59.5590012 135.6704997 136.1139988  59.5224164 136.4562588 135.7432235
  71.9460012 144.3424997 125.1199988  71.6680012 143.6144997 125.6759988
  72.8730012 144.4614997 125.3249988  72.0333124 144.2588802 125.2238845
  60.5610012 143.6044997 124.3069988  59.8750012 143.9564997 124.8739988
  61.0830012 144.3674997 124.0599988  60.5376852 143.7558578 124.3512118
  68.3920012 136.2664997 134.5859988  69.0910012 136.3404997 135.2359988
  68.0110012 135.4024997 134.7399988  68.4361767 136.1597624 134.6958322
  69.1770012 135.9184997 125.6829988  69.3970012 136.3904997 124.8799988
  69.7350012 136.3134997 126.3529988  69.2824968 136.0364285 125.6637331
  66.3770012 137.6464997 126.5179988  67.1890012 138.1514997 126.5639988
  66.1320012 137.5014997 127.4319988  66.4550520 137.6960375 126.6478517
  66.9120012 138.6324997 135.7019988  67.0310012 139.2064997 136.4599988
  67.5680012 137.9444997 135.8169988  67.0169025 138.6179858 135.8211321
  67.2600012 134.7274997 127.4559988  66.9140012 135.3454997 128.0999988
  67.9190012 135.2284997 126.9739988  67.3016968 134.8796278 127.4789383
  62.9180012 135.7904997 124.1429988  62.8350012 136.6794997 124.4899988
  63.8080012 135.5254997 124.3749988  63.0269469 135.8761430 124.2217626
  73.1170012 136.5394997 136.5369988  72.2000012 136.8024997 136.4499988
  73.4520012 136.5364997 135.6409988  73.0368613 136.5750761 136.4038837
  71.7190012 140.2904997 130.6329988  70.9210012 139.8754997 130.3049988
  72.1640012 139.5994997 131.1239988  71.6699885 140.1403543 130.6544889
  59.4930012 138.8824997 122.3199988  59.4480012 139.8214997 122.4979988
  58.6050012 138.6464997 122.0499988  59.3668574 138.9791892 122.3078912
  60.3010012 133.6644997 130.9929988  60.0720012 133.7234997 130.0649988
  59.8580012 132.8724997 131.2989988  60.2098530 133.5655753 130.9074786
  58.4260012 144.0274997 139.4369988  58.5700012 143.1254997 139.1509988
  57.6540012 144.3134997 138.9499988  58.3412753 143.9426816 139.3319505
  62.7680012 144.3714997 121.5699988  62.8320012 143.5774997 122.1009988
  63.4210012 144.2524997 120.8799988  62.8650241 144.2467148 121.5494317
  65.0820012 143.9974997 138.8699988  64.7530012 144.2684997 138.0129988
  65.2340012 143.0564997 138.7829988  65.0574809 143.9073862 138.7408244
  70.8160012 143.9134997 136.2529988  71.5620012 144.5014997 136.1339988
  70.0590012 144.4954997 136.3169988  70.8157820 144.0727143 136.2453590
  59.2590012 141.2274997 138.8569988  59.6670012 140.3704997 138.7359988
  58.9990012 141.2424997 139.7779988  59.2797568 141.1120807 138.9649588
  63.9170012 142.3434997 123.8759988  63.4570012 141.8594997 124.5619988
  64.1720012 141.6754997 123.2399988  63.8884902 142.1868731 123.8839334
  63.2060012 140.2364997 136.2319988  62.5880012 140.9114997 136.5119988
  63.5500012 140.5574997 135.3979988  63.1679132 140.3722411 136.1576262
  64.9880012 140.5864997 122.1379988  64.8080012 140.4324997 121.2109988
  65.9380012 140.6944997 122.1829988  65.0917776 140.5800175 122.0171843
  68.2260012 142.7084997 139.5089988  69.1790012 142.7914997 139.4819988
  68.0650012 141.9964997 140.1289988  68.3346426 142.6236746 139.5890579
  74.3780012 142.9414997 121.5839988  74.1040012 142.5164997 120.7709988
  74.4170012 143.8724997 121.3669988  74.3457699 143.0092484 121.4433610
  63.5450012 137.5914997 137.3139988  63.6950012 136.8624997 136.7119988
  63.5480012 138.3684997 136.7549988  63.5659302 137.5967851 137.1560692
  63.9580012 135.9614997 134.8069988  64.4940012 136.4124997 134.1549988
  63.1060012 135.8534997 134.3839988  63.9162178 136.0086390 134.6605756
  65.5400012 141.4004997 135.0459988  66.2900012 141.2444997 134.4729988
  65.2010012 142.2524997 134.7709988  65.5968921 141.4942968 134.9303561
  69.9550012 139.2154997 140.0749988  70.1480012 138.2844997 139.9629988
  70.8130012 139.6404997 140.0639988  70.0972934 139.1456531 140.0582031
  71.2720012 142.0044997 138.1519988  70.9910012 142.7134997 137.5739988
  72.2150012 141.9314997 138.0009988  71.3609291 142.0916711 138.0524967
  62.0240012 138.7894997 139.2259988  61.2570012 138.2574997 139.0149988
  62.7030012 138.4794997 138.6259988  62.0107877 138.6748300 139.1160716
  64.7640012 133.4174997 135.2379988  64.6650012 134.3644997 135.1329988
  64.0210012 133.0454997 134.7619988  64.6501184 133.4965863 135.1593621
  66.0280012 137.7394997 138.8019988  65.7920012 137.5194997 139.7029988
  65.2440012 137.5324997 138.2919988  65.8898504 137.6814586 138.8563431
  68.7430012 136.8664997 137.8769988  67.7960012 136.8984997 138.0099988
  69.0560012 136.2414997 138.5309988  68.6556707 136.7863998 137.9836060
  70.3770012 135.5004997 139.8829988  70.2810012 134.5484997 139.8769988
  70.0560012 135.7694997 140.7429988  70.3204070 135.4064035 139.9985441
  60.2040012 136.7104997 138.9299988  60.4160012 136.0034997 138.3199988
  60.0930012 136.2724997 139.7739988  60.2179721 136.5547084 138.9606843
  64.9850012 132.7114997 137.9089988  65.6970012 132.0714997 137.8949988
  64.8840012 132.9784997 136.9959988  65.0688066 132.6600079 137.7835677
  65.3390012 134.3944997 139.9629988  65.2070012 133.9184997 139.1429988
  64.7400012 135.1384997 139.9079988  65.2399071 134.4299618 139.8432886
  74.8360012 143.8104997 125.5589988  75.6860012 144.2314997 125.6859988
  74.8420012 143.0704997 126.1659988  74.9531372 143.7680803 125.6584344
  75.2310012 141.8634997 127.3819988  74.5040012 141.3844997 127.7799988
  75.8120012 142.0694997 128.1149988  75.2100473 141.8258103 127.5354528
  74.9900012 144.6484997 132.3299988  75.8230012 144.2704997 132.0499988
  75.1020012 145.5914997 132.2109988  75.1192647 144.7242218 132.2755487
  75.4990012 141.7644997 123.7739988  74.9770012 142.1214997 123.0549988
  75.4660012 142.4394997 124.4519988  75.4231634 141.9045413 123.7673145
  73.8480012 139.0044997 122.3239988  73.9440012 139.6714997 121.6439988
  73.7080012 138.1884997 121.8429988  73.8422272 138.9855655 122.1658347
  73.0170012 140.3844997 127.9449988  72.8670012 139.4394997 127.9249988
  72.6640012 140.6654997 128.7889988  72.9487448 140.2931481 128.0563705
  58.0530012 142.4624997 131.9559988  58.2370012 142.3804997 131.0199988
  58.9020012 142.3384997 132.3789988  58.1930151 142.4345073 131.8851451
  73.8740012 142.3544997 137.5839988  74.4570012 141.6204997 137.7759988
  74.4380012 143.1264997 137.6309988  74.0299769 142.3584227 137.6166159
  75.3700012 140.2574997 138.2689988  74.5070012 139.8784997 138.1029988
  75.9750012 139.5184997 138.1939988  75.3336119 140.1058268 138.2361528
  73.0950012 136.4124997 121.4419988  73.7060012 136.0414997 122.0789988
  72.2590012 135.9914997 121.6379988  73.0655032 136.3047554 121.5557035
  72.7280012 137.9674997 126.4079988  73.0080012 137.0604997 126.5319988
  73.4870012 138.4014997 126.0189988  72.8689277 137.9020942 126.3723682
  73.3400012 138.5484997 131.8439988  74.2730012 138.7604997 131.8089988
  73.1050012 138.6504997 132.7659988  73.4359244 138.5913100 131.9638892
  73.3690012 139.2854997 134.6199988  72.5260012 139.5534997 134.9859988
  73.8110012 140.1074997 134.4089988  73.3134158 139.4333291 134.6415491
  57.6500012 137.7334997 138.0969988  58.5700012 137.6114997 138.3329988
  57.2010012 136.9834997 138.4859988  57.7151580 137.6153727 138.1819006
  75.6520012 133.2654997 139.9729988  76.0020012 132.6114997 139.3679988
  75.7990012 134.1024997 139.5329988  75.7197887 133.2891548 139.8306858
  73.3410012 135.2304997 126.4559988  73.5240012 134.7814997 127.2819988
  72.7420012 134.6454997 125.9929988  73.2850202 135.0899975 126.5063275
  58.8710012 136.0454997 130.9879988  59.3170012 135.2534997 131.2899988
  59.3380012 136.7614997 131.4179988  58.9950831 136.0340685 131.0874006
  57.1750012 139.0444997 132.0569988  57.6670012 138.8234997 131.2659988
  57.5380012 139.8854997 132.3379988  57.2913126 139.1278357 131.9867531
  75.1720012 135.3744997 138.3219988  74.2540012 135.6454997 138.2869988
  75.2950012 134.8394997 137.5379988  75.0629729 135.3392508 138.2111923
  75.2080012 135.2974997 122.9839988  75.6200012 134.5764997 122.5089988
  75.8900012 135.9674997 123.0429988  75.3565885 135.2892368 122.9268915
  57.4890012 135.3024997 126.1109988  56.5640012 135.5114997 125.9819988
  57.9430012 135.7864997 125.4209988  57.4237292 135.3965343 126.0000720
  57.4530012 134.0404997 134.4549988  56.7880012 133.7944997 135.0989988
  57.0100012 134.6624997 133.8779988  57.3021318 134.0909410 134.4650898
  74.1720012 133.4644997 136.1409988  73.3600012 133.7894997 135.7539988
  74.4050012 132.7044997 135.6079988  74.0922203 133.4062758 136.0158880
  67.6020012 134.9134997 130.4639988  66.9280012 134.2844997 130.7199988
  68.1660012 134.4294997 129.8609988  67.5859230 134.7618744 130.4175340
  72.7450012 133.0214997 130.5769988  73.3490012 133.5684997 130.0749988
  71.8750012 133.3404997 130.3359988  72.7101208 133.1395137 130.4756886
  74.4720012 134.1594997 128.9099988  75.0840012 133.6454997 128.3829988
  74.8540012 135.0374997 128.9329988  74.6073371 134.2077866 128.8410041
  59.9290012 133.5474997 128.2859988  59.1520012 133.3134997 127.7789988
  60.4590012 132.7504997 128.2949988  59.8942330 133.4076988 128.2177742
  58.7650012 133.3454997 124.0899988  59.2040012 133.9564997 123.4979988
  58.1320012 133.8834997 124.5639988  58.7394514 133.5019257 124.0730930
  64.5080012 133.4744997 128.0999988  65.3830012 133.8624997 128.0699988
  64.3720012 133.2594997 129.0219988  64.6093695 133.4985184 128.2206440
  70.0650012 133.5044997 129.7489988  70.1410012 133.5994997 128.7989988
  69.7900012 132.5964997 129.8779988  70.0382321 133.3947867 129.6365079
  71.4180012 133.5304997 125.4409988  70.7160012 134.1454997 125.2309988
  70.9740012 132.6924997 125.5719988  71.2616450 133.5015639 125.4299000
  60.6260012 135.2614997 122.5319988  61.1180012 134.6314997 122.0049988
  61.2500012 135.5574997 123.1949988  60.7775688 135.2153804 122.5495482
  65.6520012 135.5544997 124.9889988  65.8300012 134.9084997 125.6719988
  65.5990012 136.3884997 125.4559988  65.6691999 135.5788009 125.1455917
  59.8870012 134.0614997 137.8039988  59.5210012 133.2964997 138.2459988
  60.8000012 134.0904997 138.0899988  59.9602736 133.9605640 137.9032502
  61.8600012 133.4124997 139.3399988  62.7580012 133.1384997 139.1549988
  61.4730012 132.6694997 139.8039988  61.9306612 133.2745914 139.3773643
  70.2810012 132.7444997 139.5219988  70.3580012 132.3184997 140.3759988
  71.1750012 132.7584997 139.1789988  70.4123428 132.6880879 139.5925310
  87.8630012 142.7034997 128.2449988  87.9520012 143.6474997 128.1129988
  87.2250012 142.4284997 127.5869988  87.7889081 142.7954830 128.1379614
  86.7960012 141.9584997 131.6639988  86.7580012 141.3124997 132.3689988
  86.4740012 141.4924997 130.8929988  86.7472333 141.8069408 131.6562978
  79.1650012 141.5734997 133.2569988  79.2060012 140.9474997 133.9799988
  79.8680012 142.1974997 133.4389988  79.2656363 141.5721196 133.3806044
  90.5020012 144.8974997 129.9649988  90.0620012 144.1774997 130.4159988
  90.4890012 145.6184997 130.5949988  90.4400226 144.8963731 130.1118494
  76.6980012 139.6834997 127.1849988  76.2510012 140.5294997 127.1659988
  76.1370012 139.1034997 126.6689988  76.5609900 139.7209916 127.1126801
  77.4090012 141.8454997 129.3099988  77.6220012 141.0754997 129.8379988
  78.1470012 141.9344997 128.7069988  77.5379044 141.7521968 129.3007123
  85.1860012 144.3914997 132.0699988  85.4900012 143.7054997 131.4749988
  85.9070012 144.5094997 132.6879988  85.3250671 144.3136305 132.0721816
  93.8490012 135.9924997 132.9309988  93.8980012 136.6024997 133.6659988
  94.2740012 136.4534997 132.2079988  93.9131746 136.1383796 132.9339175
  88.3270012 138.7854997 132.3969988  88.4690012 137.8394997 132.4179988
  88.2200012 138.9924997 131.4689988  88.3319919 138.6838246 132.2743408
  81.4810012 136.8864997 129.6699988  81.5250012 137.7464997 129.2509988
  81.0240012 136.3344997 129.0359988  81.4252240 136.9294422 129.5269864
  89.2040012 137.0174997 128.0709988  89.8500012 136.6884997 128.6949988
  89.7140012 137.5354997 127.4479988  89.3614299 137.0424450 128.0722731
  78.1020012 139.2834997 130.4319988  78.7550012 138.7334997 130.8639988
  78.1260012 139.0094997 129.5149988  78.1946683 139.1711466 130.3672123
  83.2580012 140.8334997 129.6469988  83.8740012 140.3074997 130.1569988
  82.6720012 140.1934997 129.2439988  83.2630810 140.6749208 129.6623173
  94.2400012 137.4704997 135.1659988  93.5520012 138.1284997 135.0709988
  94.2560012 137.2734997 136.1029988  94.1479540 137.5339819 135.2795990
  80.2920012 135.8044997 133.7439988  80.0730012 136.3344997 132.9779988
  79.6240012 136.0314997 134.3909988  80.1717600 135.9076906 133.7266379
  82.8610012 143.4804997 134.0309988  82.1210012 144.0784997 134.1349988
  83.5750012 144.0344997 133.7159988  82.8562237 143.6372831 134.0026465
  90.9680012 136.3084997 130.0509988  90.7520012 135.5424997 130.5839988
  91.6230012 136.7804997 130.5639988  91.0270632 136.2675889 130.1932861
  79.8850012 137.6964997 131.6959988  80.4990012 138.3294997 132.0689988
  80.3970012 137.2244997 131.0399988  80.0381981 137.7192267 131.6582908
  91.3150012 135.0234997 133.7309988  90.5790012 135.6344997 133.6929988
  91.9980012 135.4384997 133.2039988  91.3066541 135.1631374 133.6545832
  84.3180012 133.1104997 131.1959988  84.2010012 132.1614997 131.1419988
  83.4630012 133.4424997 131.4699988  84.1864212 133.0255571 131.2256497
  92.1120012 144.9854997 135.9239988  92.2520012 144.3944997 135.1849988
  92.2790012 145.8584997 135.5679988  92.1537411 145.0225428 135.7746894
  86.5850012 141.9474997 125.6969988  85.8730012 142.4824997 125.3449988
  87.2760012 142.0034997 125.0369988  86.5810132 142.0282543 125.5596289
  86.6380012 140.4054997 122.7359988  87.3390012 140.4274997 123.3869988
  86.9410012 139.7774997 122.0789988  86.7748133 140.3237070 122.7363369
  93.9540012 141.3254997 133.9899988  93.3010012 142.0204997 134.0799988
  94.4190012 141.5354997 133.1809988  93.9275274 141.4490643 133.8928462
  89.9900012 142.1574997 126.6489988  89.2580012 142.3854997 127.2219988
  90.4380012 141.4434997 127.1029988  89.9502725 142.0922145 126.7888816
  89.8880012 140.3314997 135.7159988  89.9680012 141.0944997 136.2879988
  89.2860012 140.6104997 135.0259988  89.8175756 140.4737134 135.7010589
  81.6360012 142.7874997 128.5309988  81.3050012 142.4174997 127.7129988
  82.2240012 142.1174997 128.8779988  81.6701873 142.6461156 128.4658102
  82.0020012 141.5564997 132.1649988  82.5680012 141.6774997 131.4019988
  82.3210012 142.1934997 132.8029988  82.1225474 141.6592219 132.1469862
  88.8610012 141.3194997 124.3339988  89.4410012 141.4694997 125.0809988
  89.2750012 141.7904997 123.6099988  88.9962997 141.4036578 124.3384058
  79.8020012 142.1534997 136.1099988  79.8730012 142.8044997 136.8089988
  78.9120012 142.2564997 135.7749988  79.6913005 142.2565427 136.1603495
  92.5600012 133.0694997 124.1469988  91.6600012 133.2084997 124.4419988
  92.8120012 133.9004997 123.7449988  92.4708702 133.2009074 124.1330205
  80.6260012 141.8574997 126.1199988  80.3340012 142.6254997 125.6299988
  79.9520012 141.1974997 125.9579988  80.4948111 141.8735587 126.0308978
  76.7190012 144.2204997 134.9349988  76.2180012 144.1924997 134.1199988
  76.7240012 143.3144997 135.2449988  76.6510944 144.0942396 134.8653226
  91.8190012 139.1594997 137.9819988  91.4120012 139.6404997 137.2609988
  91.8600012 138.2544997 137.6739988  91.7688437 139.1029374 137.8416683
  81.5870012 134.0134997 131.9739988  80.7250012 133.9264997 131.5659988
  81.5640012 134.8694997 132.4019988  81.4660409 134.1172883 131.9760589
  86.2500012 133.7354997 135.3489988  86.6700012 133.3204997 136.1019988
  85.3170012 133.5574997 135.4659988  86.1813644 133.6545900 135.4679539
  89.5760012 137.4914997 136.2019988  89.0620012 137.3654997 136.9999988
  89.4210012 138.4034997 135.9579988  89.4846852 137.5976132 136.2782158
  90.3390012 142.3524997 121.9639988  90.3810012 142.1294997 121.0339988
  91.1880012 142.7514997 122.1529988  90.4595280 142.3759438 121.8623554
  85.9110012 136.2284997 122.6339988  85.6580012 136.2474997 123.5569988
  85.6550012 135.3564997 122.3319988  85.8417481 136.1132558 122.7196175
  81.6780012 138.9794997 133.0689988  81.0360012 138.9384997 133.7779988
  81.7150012 139.9054997 132.8309988  81.5950664 139.0991430 133.1339219
  81.6750012 139.2004997 127.9809988  80.7820012 138.8594997 127.9219988
  82.1250012 138.8234997 127.2249988  81.6138130 139.1029631 127.8707702
  87.2100012 139.6164997 126.7979988  86.8010012 140.4314997 126.5069988
  87.9310012 139.4764997 126.1839988  87.2514537 139.7092018 126.6751342
  86.3120012 139.7914997 138.2859988  85.7500012 139.0874997 138.6069988
  87.1390012 139.6714997 138.7539988  86.3467095 139.6787883 138.3932330
  88.2150012 139.0624997 129.6119988  88.0200012 139.6674997 128.8969988
  88.3960012 138.2284997 129.1779988  88.2127614 139.0326300 129.4554405
  79.4280012 139.2994997 134.9359988  79.3900012 139.6994997 135.8049988
  78.9370012 138.4824997 135.0269988  79.3564684 139.2438069 135.0671059
  82.7940012 136.6734997 121.7349988  82.3630012 136.2284997 122.4649988
  82.0760012 137.0454997 121.2229988  82.6379438 136.6628940 121.7656799
  76.0360012 136.4154997 128.7869988  76.6670012 136.3864997 129.5059988
  76.4850012 135.9904997 128.0559988  76.1830918 136.3540836 128.7866441
  77.3100012 137.1614997 124.2109988  77.7840012 137.7524997 123.6259988
  76.5930012 137.6924997 124.5579988  77.2779341 137.3140867 124.1778836
  87.4790012 140.7004997 134.2829988  87.8020012 140.0694997 133.6399988
  87.0390012 140.1654997 134.9439988  87.4637484 140.5418387 134.2843198
  84.2560012 136.6274997 129.0669988  83.3450012 136.6844997 129.3559988
  84.7620012 136.5674997 129.8779988  84.1996899 136.6271941 129.2161184
  79.0850012 138.2564997 127.8939988  78.1950012 138.3564997 127.5539988
  79.3810012 137.4144997 127.5479988  79.0032823 138.1563545 127.8007213
  82.7380012 138.2564997 125.5509988  83.6690012 138.3854997 125.7289988
  82.5230012 138.9264997 124.9009988  82.8364247 138.3646565 125.4875747
  88.6610012 135.8624997 132.3319988  87.9850012 135.9934997 132.9959988
  88.1760012 135.7074997 131.5209988  88.5027146 135.8595157 132.3134469
  81.4120012 139.4514997 123.1169988  80.8690012 139.0714997 122.4259988
  82.2450012 139.6454997 122.6889988  81.4503631 139.4257125 122.9644501
  79.5470012 144.0084997 138.2159988  80.2790012 144.2624997 138.7779988
  78.7670012 144.2124997 138.7319988  79.5417073 144.0708160 138.3626151
  85.5760012 139.4154997 130.9539988  86.1410012 138.8684997 130.4069988
  85.4290012 138.8934997 131.7429988  85.6333380 139.2702259 130.9858695
  80.5780012 135.5514997 127.3729988  80.2610012 134.6494997 127.3369988
  81.3600012 135.5534997 126.8199988  80.6402408 135.4282474 127.2933569
  84.2030012 137.8034997 133.3679988  83.3670012 138.2574997 133.4789988
  84.7270012 138.0794997 134.1199988  84.1595416 137.9028660 133.4848119
  84.7470012 144.0164997 125.0529988  84.0020012 143.5094997 124.7309988
  84.6130012 144.0654997 125.9999988  84.6268776 143.9536940 125.1368647
  91.8970012 143.1494997 133.8399988  92.5390012 143.6064997 133.2959988
  91.0670012 143.2624997 133.3769988  91.8725963 143.2272704 133.7030177
  88.6450012 136.8304997 123.2519988  87.7060012 136.9424997 123.1009988
  88.9420012 137.6874997 123.5589988  88.5567583 136.9615981 123.2728337
  86.2660012 144.2004997 136.2899988  85.9210012 143.8194997 137.0969988
  86.0660012 145.1344997 136.3609988  86.1917527 144.2745135 136.4100689
  89.3630012 138.6974997 124.9129988  90.2550012 138.5604997 125.2319988
  89.4200012 139.4884997 124.3759988  89.4926504 138.7856052 124.8840818
  79.8720012 143.3114997 130.8229988  80.6170012 143.3094997 130.2219988
  79.9500012 142.4884997 131.3039988  79.9844995 143.1998887 130.8058282
  76.8800012 141.7724997 136.1379988  77.1030012 141.3544997 136.9699988
  76.2780012 141.1594997 135.7149988  76.8291759 141.6324668 136.1947022
  83.8960012 141.2894997 138.3509988  83.6000012 141.1234997 137.4559988
  84.8280012 141.0694997 138.3399988  83.9814166 141.2370640 138.2270536
  94.2480012 138.9074997 124.6079988  93.6940012 138.5114997 123.9359988
  94.3480012 139.8174997 124.3299988  94.1857059 138.9763586 124.4784401
  94.2110012 144.7074997 137.4449988  93.3600012 144.9454997 137.0779988
  94.8020012 144.6904997 136.6919988  94.1742487 144.7378258 137.2928893
  89.7040012 142.5014997 132.0939988  88.7750012 142.2694997 132.0669988
  90.1550012 141.7244997 131.7639988  89.6379216 142.3647238 132.0456917
  78.0020012 141.6914997 122.8139988  78.6180012 142.3184997 123.1939988
  77.1400012 142.0074997 123.0859988  77.9697698 141.8199430 122.9027183
  83.6740012 144.4924997 127.8029988  83.4330012 145.4174997 127.8449988
  82.9330012 144.0334997 128.1999988  83.5409225 144.5570933 127.8623742
  87.7330012 144.7404997 133.8189988  87.3070012 144.5134997 134.6459988
  88.3130012 144.0024997 133.6369988  87.7531868 144.6095299 133.9075830
  78.5140012 136.5254997 135.6959988  77.6210012 136.8644997 135.6279988
  78.4150012 135.6704997 136.1139988  78.3784164 136.4562588 135.7432235
  90.8020012 144.3424997 125.1199988  90.5240012 143.6144997 125.6759988
  91.7290012 144.4614997 125.3249988  90.8893124 144.2588802 125.2238845
  79.4170012 143.6044997 124.3069988  78.7310012 143.9564997 124.8739988
  79.9390012 144.3674997 124.0599988  79.3936852 143.7558578 124.3512118
  87.2480012 136.2664997 134.5859988  87.9470012 136.3404997 135.2359988
  86.8670012 135.4024997 134.7399988  87.2921767 136.1597624 134.6958322
  88.0330012 135.9184997 125.6829988  88.2530012 136.3904997 124.8799988
  88.5910012 136.3134997 126.3529988  88.1384968 136.0364285 125.6637331
  85.2330012 137.6464997 126.5179988  86.0450012 138.1514997 126.5639988
  84.9880012 137.5014997 127.4319988  85.3110520 137.6960375 126.6478517
  85.7680012 138.6324997 135.7019988  85.8870012 139.2064997 136.4599988
  86.4240012 137.9444997 135.8169988  85.8729025 138.6179858 135.8211321
  86.1160012 134.7274997 127.4559988  85.7700012 135.3454997 128.0999988
  86.7750012 135.2284997 126.9739988  86.1576968 134.8796278 127.4789383
  81.7740012 135.7904997 124.1429988  81.6910012 136.6794997 124.4899988
  82.6640012 135.5254997 124.3749988  81.8829469 135.8761430 124.2217626
  91.9730012 136.5394997 136.5369988  91.0560012 136.8024997 136.4499988
  92.3080012 136.5364997 135.6409988  91.8928613 136.5750761 136.4038837
  90.5750012 140.2904997 130.6329988  89.7770012 139.8754997 130.3049988
  91.0200012 139.5994997 131.1239988  90.5259885 140.1403543 130.6544889
  78.3490012 138.8824997 122.3199988  78.3040012 139.8214997 122.4979988
  77.4610012 138.6464997 122.0499988  78.2228574 138.9791892 122.3078912
  79.1570012 133.6644997 130.9929988  78.9280012 133.7234997 130.0649988
  78.7140012 132.8724997 131.2989988  79.0658530 133.5655753 130.9074786
  77.2820012 144.0274997 139.4369988  77.4260012 143.1254997 139.1509988
  76.5100012 144.3134997 138.9499988  77.1972753 143.9426816 139.3319505
  81.6240012 144.3714997 121.5699988  81.6880012 143.5774997 122.1009988
  82.2770012 144.2524997 120.8799988  81.7210241 144.2467148 121.5494317
  83.9380012 143.9974997 138.8699988  83.6090012 144.2684997 138.0129988
  84.0900012 143.0564997 138.7829988  83.9134809 143.9073862 138.7408244
  89.6720012 143.9134997 136.2529988  90.4180012 144.5014997 136.1339988
  88.9150012 144.4954997 136.3169988  89.6717820 144.0727143 136.2453590
  78.1150012 141.2274997 138.8569988  78.5230012 140.3704997 138.7359988
  77.8550012 141.2424997 139.7779988  78.1357568 141.1120807 138.9649588
  82.7730012 142.3434997 123.8759988  82.3130012 141.8594997 124.5619988
  83.0280012 141.6754997 123.2399988  82.7444902 142.1868731 123.8839334
  82.0620012 140.2364997 136.2319988  81.4440012 140.9114997 136.5119988
  82.4060012 140.5574997 135.3979988  82.0239132 140.3722411 136.1576262
  83.8440012 140.5864997 122.1379988  83.6640012 140.4324997 121.2109988
  84.7940012 140.6944997 122.1829988  83.9477776 140.5800175 122.0171843
  87.0820012 142.7084997 139.5089988  88.0350012 142.7914997 139.4819988
  86.9210012 141.9964997 140.1289988  87.1906426 142.6236746 139.5890579
  93.2340012 142.9414997 121.5839988  92.9600012 142.5164997 120.7709988
  93.2730012 143.8724997 121.3669988  93.2017699 143.0092484 121.4433610
  82.4010012 137.5914997 137.3139988  82.5510012 136.8624997 136.7119988
  82.4040012 138.3684997 136.7549988  82.4219302 137.5967851 137.1560692
  82.8140012 135.9614997 134.8069988  83.3500012 136.4124997 134.1549988
  81.9620012 135.8534997 134.3839988  82.7722178 136.0086390 134.6605756
  84.3960012 141.4004997 135.0459988  85.1460012 141.2444997 134.4729988
  84.0570012 142.2524997 134.7709988  84.4528921 141.4942968 134.9303561
  88.8110012 139.2154997 140.0749988  89.0040012 138.2844997 139.9629988
  89.6690012 139.6404997 140.0639988  88.9532934 139.1456531 140.0582031
  90.1280012 142.0044997 138.1519988  89.8470012 142.7134997 137.5739988
  91.0710012 141.9314997 138.0009988  90.2169291 142.0916711 138.0524967
  80.8800012 138.7894997 139.2259988  80.1130012 138.2574997 139.0149988
  81.5590012 138.4794997 138.6259988  80.8667877 138.6748300 139.1160716
  83.6200012 133.4174997 135.2379988  83.5210012 134.3644997 135.1329988
  82.8770012 133.0454997 134.7619988  83.5061184 133.4965863 135.1593621
  84.8840012 137.7394997 138.8019988  84.6480012 137.5194997 139.7029988
  84.1000012 137.5324997 138.2919988  84.7458504 137.6814586 138.8563431
  87.5990012 136.8664997 137.8769988  86.6520012 136.8984997 138.0099988
  87.9120012 136.2414997 138.5309988  87.5116707 136.7863998 137.9836060
  89.2330012 135.5004997 139.8829988  89.1370012 134.5484997 139.8769988
  88.9120012 135.7694997 140.7429988  89.1764070 135.4064035 139.9985441
  79.0600012 136.7104997 138.9299988  79.2720012 136.0034997 138.3199988
  78.9490012 136.2724997 139.7739988  79.0739721 136.5547084 138.9606843
  83.8410012 132.7114997 137.9089988  84.5530012 132.0714997 137.8949988
  83.7400012 132.9784997 136.9959988  83.9248066 132.6600079 137.7835677
  84.1950012 134.3944997 139.9629988  84.0630012 133.9184997 139.1429988
  83.5960012 135.1384997 139.9079988  84.0959071 134.4299618 139.8432886
  93.6920012 143.8104997 125.5589988  94.5420012 144.2314997 125.6859988
  93.6980012 143.0704997 126.1659988  93.8091372 143.7680803 125.6584344
  94.0870012 141.8634997 127.3819988  93.3600012 141.3844997 127.7799988
  94.6680012 142.0694997 128.1149988  94.0660473 141.8258103 127.5354528
  93.8460012 144.6484997 132.3299988  94.6790012 144.2704997 132.0499988
  93.9580012 145.5914997 132.2109988  93.9752647 144.7242218 132.2755487
  94.3550012 141.7644997 123.7739988  93.8330012 142.1214997 123.0549988
  94.3220012 142.4394997 124.4519988  94.2791634 141.9045413 123.7673145
  92.7040012 139.0044997 122.3239988  92.8000012 139.6714997 121.6439988
  92.5640012 138.1884997 121.8429988  92.6982272 138.9855655 122.1658347
  91.8730012 140.3844997 127.9449988  91.7230012 139.4394997 127.9249988
  91.5200012 140.6654997 128.7889988  91.8047448 140.2931481 128.0563705
  76.9090012 142.4624997 131.9559988  77.0930012 142.3804997 131.0199988
  77.7580012 142.3384997 132.3789988  77.0490151 142.4345073 131.8851451
  92.7300012 142.3544997 137.5839988  93.3130012 141.6204997 137.7759988
  93.2940012 143.1264997 137.6309988  92.8859769 142.3584227 137.6166159
  94.2260012 140.2574997 138.2689988  93.3630012 139.8784997 138.1029988
  94.8310012 139.5184997 138.1939988  94.1896119 140.1058268 138.2361528
  91.9510012 136.4124997 121.4419988  92.5620012 136.0414997 122.0789988
  91.1150012 135.9914997 121.6379988  91.9215032 136.3047554 121.5557035
  91.5840012 137.9674997 126.4079988  91.8640012 137.0604997 126.5319988
  92.3430012 138.4014997 126.0189988  91.7249277 137.9020942 126.3723682
  92.1960012 138.5484997 131.8439988  93.1290012 138.7604997 131.8089988
  91.9610012 138.6504997 132.7659988  92.2919244 138.5913100 131.9638892
  92.2250012 139.2854997 134.6199988  91.3820012 139.5534997 134.9859988
  92.6670012 140.1074997 134.4089988  92.1694158 139.4333291 134.6415491
  76.5060012 137.7334997 138.0969988  77.4260012 137.6114997 138.3329988
  76.0570012 136.9834997 138.4859988  76.5711580 137.6153727 138.1819006
  94.5080012 133.2654997 139.9729988  94.8580012 132.6114997 139.3679988
  94.6550012 134.1024997 139.5329988  94.5757887 133.2891548 139.8306858
  92.1970012 135.2304997 126.4559988  92.3800012 134.7814997 127.2819988
  91.5980012 134.6454997 125.9929988  92.1410202 135.0899975 126.5063275
  77.7270012 136.0454997 130.9879988  78.1730012 135.2534997 131.2899988
  78.1940012 136.7614997 131.4179988  77.8510831 136.0340685 131.0874006
  76.0310012 139.0444997 132.0569988  76.5230012 138.8234997 131.2659988
  76.3940012 139.8854997 132.3379988  76.1473126 139.1278357 131.9867531
  94.0280012 135.3744997 138.3219988  93.1100012 135.6454997 138.2869988
  94.1510012 134.8394997 137.5379988  93.9189729 135.3392508 138.2111923
  94.0640012 135.2974997 122.9839988  94.4760012 134.5764997 122.5089988
  94.7460012 135.9674997 123.0429988  94.2125885 135.2892368 122.9268915
  76.3450012 135.3024997 126.1109988  75.4200012 135.5114997 125.9819988
  76.7990012 135.7864997 125.4209988  76.2797292 135.3965343 126.0000720
  76.3090012 134.0404997 134.4549988  75.6440012 133.7944997 135.0989988
  75.8660012 134.6624997 133.8779988  76.1581318 134.0909410 134.4650898
  93.0280012 133.4644997 136.1409988  92.2160012 133.7894997 135.7539988
  93.2610012 132.7044997 135.6079988  92.9482203 133.4062758 136.0158880
  86.4580012 134.9134997 130.4639988  85.7840012 134.2844997 130.7199988
  87.0220012 134.4294997 129.8609988  86.4419230 134.7618744 130.4175340
  91.6010012 133.0214997 130.5769988  92.2050012 133.5684997 130.0749988
  90.7310012 133.3404997 130.3359988  91.5661208 133.1395137 130.4756886
  93.3280012 134.1594997 128.9099988  93.9400012 133.6454997 128.3829988
  93.7100012 135.0374997 128.9329988  93.4633371 134.2077866 128.8410041
  78.7850012 133.5474997 128.2859988  78.0080012 133.3134997 127.7789988
  79.3150012 132.7504997 128.2949988  78.7502330 133.4076988 128.2177742
  77.6210012 133.3454997 124.0899988  78.0600012 133.9564997 123.4979988
  76.9880012 133.8834997 124.5639988  77.5954514 133.5019257 124.0730930
  83.3640012 133.4744997 128.0999988  84.2390012 133.8624997 128.0699988
  83.2280012 133.2594997 129.0219988  83.4653695 133.4985184 128.2206440
  88.9210012 133.5044997 129.7489988  88.9970012 133.5994997 128.7989988
  88.6460012 132.5964997 129.8779988  88.8942321 133.3947867 129.6365079
  90.2740012 133.5304997 125.4409988  89.5720012 134.1454997 125.2309988
  89.8300012 132.6924997 125.5719988  90.1176450 133.5015639 125.4299000
  79.4820012 135.2614997 122.5319988  79.9740012 134.6314997 122.0049988
  80.1060012 135.5574997 123.1949988  79.6335688 135.2153804 122.5495482
  84.5080012 135.5544997 124.9889988  84.6860012 134.9084997 125.6719988
  84.4550012 136.3884997 125.4559988  84.5251999 135.5788009 125.1455917
  78.7430012 134.0614997 137.8039988  78.3770012 133.2964997 138.2459988
  79.6560012 134.0904997 138.0899988  78.8162736 133.9605640 137.9032502
  80.7160012 133.4124997 139.3399988  81.6140012 133.1384997 139.1549988
  80.3290012 132.6694997 139.8039988  80.7866612 133.2745914 139.3773643
  89.1370012 132.7444997 139.5219988  89.2140012 132.3184997 140.3759988
  90.0310012 132.7584997 139.1789988  89.2683428 132.6880880 139.5925310
 106.7190012 142.7034997 128.2449988 106.8080012 143.6474997 128.1129988
 106.0810012 142.4284997 127.5869988 106.6449081 142.7954830 128.1379614
 105.6520012 141.9584997 131.6639988 105.6140012 141.3124997 132.3689988
 105.3300012 141.4924997 130.8929988 105.6032333 141.8069408 131.6562978
  98.0210012 141.5734997 133.2569988  98.0620012 140.9474997 133.9799988
  98.7240012 142.1974997 133.4389988  98.1216363 141.5721196 133.3806044
 109.3580012 144.8974997 129.9649988 108.9180012 144.1774997 130.4159988
 109.3450012 145.6184997 130.5949988 109.2960226 144.8963731 130.1118494
  95.5540012 139.6834997 127.1849988  95.1070012 140.5294997 127.1659988
  94.9930012 139.1034997 126.6689988  95.4169900 139.7209916 127.1126801
  96.2650012 141.8454997 129.3099988  96.4780012 141.0754997 129.8379988
  97.0030012 141.9344997 128.7069988  96.3939044 141.7521968 129.3007123
 104.0420012 144.3914997 132.0699988 104.3460012 143.7054997 131.4749988
 104.7630012 144.5094997 132.6879988 104.1810671 144.3136305 132.0721816
 112.7050012 135.9924997 132.9309988 112.7540012 136.6024997 133.6659988
 113.1300012 136.4534997 132.2079988 112.7691746 136.1383796 132.9339175
 107.1830012 138.7854997 132.3969988 107.3250012 137.8394997 132.4179988
 107.0760012 138.9924997 131.4689988 107.1879919 138.6838246 132.2743408
 100.3370012 136.8864997 129.6699988 100.3810012 137.7464997 129.2509988
  99.8800012 136.3344997 129.0359988 100.2812240 136.9294422 129.5269864
 108.0600012 137.0174997 128.0709988 108.7060012 136.6884997 128.6949988
 108.5700012 137.5354997 127.4479988 108.2174299 137.0424450 128.0722731
  96.9580012 139.2834997 130.4319988  97.6110012 138.7334997 130.8639988
  96.9820012 139.0094997 129.5149988  97.0506683 139.1711466 130.3672123
 102.1140012 140.8334997 129.6469988 102.7300012 140.3074997 130.1569988
 101.5280012 140.1934997 129.2439988 102.1190810 140.6749208 129.6623173
 113.0960012 137.4704997 135.1659988 112.4080012 138.1284997 135.0709988
 113.1120012 137.2734997 136.1029988 113.0039540 137.5339819 135.2795990
  99.1480012 135.8044997 133.7439988  98.9290012 136.3344997 132.9779988
  98.4800012 136.0314997 134.3909988  99.0277600 135.9076906 133.7266379
 101.7170012 143.4804997 134.0309988 100.9770012 144.0784997 134.1349988
 102.4310012 144.0344997 133.7159988 101.7122237 143.6372831 134.0026465
 109.8240012 136.3084997 130.0509988 109.6080012 135.5424997 130.5839988
 110.4790012 136.7804997 130.5639988 109.8830632 136.2675889 130.1932861
  98.7410012 137.6964997 131.6959988  99.3550012 138.3294997 132.0689988
  99.2530012 137.2244997 131.0399988  98.8941981 137.7192267 131.6582908
 110.1710012 135.0234997 133.7309988 109.4350012 135.6344997 133.6929988
 110.8540012 135.4384997 133.2039988 110.1626541 135.1631374 133.6545832
 103.1740012 133.1104997 131.1959988 103.0570012 132.1614997 131.1419988
 102.3190012 133.4424997 131.4699988 103.0424212 133.0255571 131.2256497
 110.9680012 144.9854997 135.9239988 111.1080012 144.3944997 135.1849988
 111.1350012 145.8584997 135.5679988 111.0097411 145.0225428 135.7746894
 105.4410012 141.9474997 125.6969988 104.7290012 142.4824997 125.3449988
 106.1320012 142.0034997 125.0369988 105.4370132 142.0282543 125.5596289
 105.4940012 140.4054997 122.7359988 106.1950012 140.4274997 123.3869988
 105.7970012 139.7774997 122.0789988 105.6308133 140.3237070 122.7363369
 112.8100012 141.3254997 133.9899988 112.1570012 142.0204997 134.0799988
 113.2750012 141.5354997 133.1809988 112.7835274 141.4490643 133.8928462
 108.8460012 142.1574997 126.6489988 108.1140012 142.3854997 127.2219988
 109.2940012 141.4434997 127.1029988 108.8062725 142.0922145 126.7888816
 108.7440012 140.3314997 135.7159988 108.8240012 141.0944997 136.2879988
 108.1420012 140.6104997 135.0259988 108.6735756 140.4737134 135.7010589
 100.4920012 142.7874997 128.5309988 100.1610012 142.4174997 127.7129988
 101.0800012 142.1174997 128.8779988 100.5261873 142.6461156 128.4658102
 100.8580012 141.5564997 132.1649988 101.4240012 141.6774997 131.4019988
 101.1770012 142.1934997 132.8029988 100.9785474 141.6592219 132.1469862
 107.7170012 141.3194997 124.3339988 108.2970012 141.4694997 125.0809988
 108.1310012 141.7904997 123.6099988 107.8522997 141.4036578 124.3384058
  98.6580012 142.1534997 136.1099988  98.7290012 142.8044997 136.8089988
  97.7680012 142.2564997 135.7749988  98.5473005 142.2565427 136.1603495
 111.4160012 133.0694997 124.1469988 110.5160012 133.2084997 124.4419988
 111.6680012 133.9004997 123.7449988 111.3268702 133.2009074 124.1330205
  99.4820012 141.8574997 126.1199988  99.1900012 142.6254997 125.6299988
  98.8080012 141.1974997 125.9579988  99.3508111 141.8735587 126.0308978
  95.5750012 144.2204997 134.9349988  95.0740012 144.1924997 134.1199988
  95.5800012 143.3144997 135.2449988  95.5070944 144.0942396 134.8653226
 110.6750012 139.1594997 137.9819988 110.2680012 139.6404997 137.2609988
 110.7160012 138.2544997 137.6739988 110.6248437 139.1029374 137.8416683
 100.4430012 134.0134997 131.9739988  99.5810012 133.9264997 131.5659988
 100.4200012 134.8694997 132.4019988 100.3220409 134.1172883 131.9760589
 105.1060012 133.7354997 135.3489988 105.5260012 133.3204997 136.1019988
 104.1730012 133.5574997 135.4659988 105.0373644 133.6545900 135.4679539
 108.4320012 137.4914997 136.2019988 107.9180012 137.3654997 136.9999988
 108.2770012 138.4034997 135.9579988 108.3406852 137.5976132 136.2782158
 109.1950012 142.3524997 121.9639988 109.2370012 142.1294997 121.0339988
 110.0440012 142.7514997 122.1529988 109.3155280 142.3759438 121.8623554
 104.7670012 136.2284997 122.6339988 104.5140012 136.2474997 123.5569988
 104.5110012 135.3564997 122.3319988 104.6977481 136.1132558 122.7196175
 100.5340012 138.9794997 133.0689988  99.8920012 138.9384997 133.7779988
 100.5710012 139.9054997 132.8309988 100.4510664 139.0991430 133.1339219
 100.5310012 139.2004997 127.9809988  99.6380012 138.8594997 127.9219988
 100.9810012 138.8234997 127.2249988 100.4698130 139.1029631 127.8707702
 106.0660012 139.6164997 126.7979988 105.6570012 140.4314997 126.5069988
 106.7870012 139.4764997 126.1839988 106.1074537 139.7092018 126.6751342
 105.1680012 139.7914997 138.2859988 104.6060012 139.0874997 138.6069988
 105.9950012 139.6714997 138.7539988 105.2027095 139.6787883 138.3932330
 107.0710012 139.0624997 129.6119988 106.8760012 139.6674997 128.8969988
 107.2520012 138.2284997 129.1779988 107.0687614 139.0326300 129.4554405
  98.2840012 139.2994997 134.9359988  98.2460012 139.6994997 135.8049988
  97.7930012 138.4824997 135.0269988  98.2124684 139.2438069 135.0671059
 101.6500012 136.6734997 121.7349988 101.2190012 136.2284997 122.4649988
 100.9320012 137.0454997 121.2229988 101.4939438 136.6628940 121.7656799
  94.8920012 136.4154997 128.7869988  95.5230012 136.3864997 129.5059988
  95.3410012 135.9904997 128.0559988  95.0390918 136.3540836 128.7866441
  96.1660012 137.1614997 124.2109988  96.6400012 137.7524997 123.6259988
  95.4490012 137.6924997 124.5579988  96.1339341 137.3140867 124.1778836
 106.3350012 140.7004997 134.2829988 106.6580012 140.0694997 133.6399988
 105.8950012 140.1654997 134.9439988 106.3197484 140.5418387 134.2843198
 103.1120012 136.6274997 129.0669988 102.2010012 136.6844997 129.3559988
 103.6180012 136.5674997 129.8779988 103.0556899 136.6271941 129.2161184
  97.9410012 138.2564997 127.8939988  97.0510012 138.3564997 127.5539988
  98.2370012 137.4144997 127.5479988  97.8592823 138.1563545 127.8007213
 101.5940012 138.2564997 125.5509988 102.5250012 138.3854997 125.7289988
 101.3790012 138.9264997 124.9009988 101.6924247 138.3646565 125.4875747
 107.5170012 135.8624997 132.3319988 106.8410012 135.9934997 132.9959988
 107.0320012 135.7074997 131.5209988 107.3587146 135.8595157 132.3134469
 100.2680012 139.4514997 123.1169988  99.7250012 139.0714997 122.4259988
 101.1010012 139.6454997 122.6889988 100.3063631 139.4257125 122.9644501
  98.4030012 144.0084997 138.2159988  99.1350012 144.2624997 138.7779988
  97.6230012 144.2124997 138.7319988  98.3977073 144.0708160 138.3626151
 104.4320012 139.4154997 130.9539988 104.9970012 138.8684997 130.4069988
 104.2850012 138.8934997 131.7429988 104.4893380 139.2702259 130.9858695
  99.4340012 135.5514997 127.3729988  99.1170012 134.6494997 127.3369988
 100.2160012 135.5534997 126.8199988  99.4962408 135.4282474 127.2933569
 103.0590012 137.8034997 133.3679988 102.2230012 138.2574997 133.4789988
 103.5830012 138.0794997 134.1199988 103.0155416 137.9028660 133.4848119
 103.6030012 144.0164997 125.0529988 102.8580012 143.5094997 124.7309988
 103.4690012 144.0654997 125.9999988 103.4828776 143.9536940 125.1368647
 110.7530012 143.1494997 133.8399988 111.3950012 143.6064997 133.2959988
 109.9230012 143.2624997 133.3769988 110.7285963 143.2272704 133.7030177
 107.5010012 136.8304997 123.2519988 106.5620012 136.9424997 123.1009988
 107.7980012 137.6874997 123.5589988 107.4127583 136.9615981 123.2728337
 105.1220012 144.2004997 136.2899988 104.7770012 143.8194997 137.0969988
 104.9220012 145.1344997 136.3609988 105.0477527 144.2745135 136.4100689
 108.2190012 138.6974997 124.9129988 109.1110012 138.5604997 125.2319988
 108.2760012 139.4884997 124.3759988 108.3486504 138.7856052 124.8840818
  98.7280012 143.3114997 130.8229988  99.4730012 143.3094997 130.2219988
  98.8060012 142.4884997 131.3039988  98.8404995 143.1998887 130.8058282
  95.7360012 141.7724997 136.1379988  95.9590012 141.3544997 136.9699988
  95.1340012 141.1594997 135.7149988  95.6851759 141.6324668 136.1947022
 102.7520012 141.2894997 138.3509988 102.4560012 141.1234997 137.4559988
 103.6840012 141.0694997 138.3399988 102.8374166 141.2370640 138.2270536
 113.1040012 138.9074997 124.6079988 112.5500012 138.5114997 123.9359988
 113.2040012 139.8174997 124.3299988 113.0417059 138.9763586 124.4784401
 113.0670012 144.7074997 137.4449988 112.2160012 144.9454997 137.0779988
 113.6580012 144.6904997 136.6919988 113.0302487 144.7378258 137.2928893
 108.5600012 142.5014997 132.0939988 107.6310012 142.2694997 132.0669988
 109.0110012 141.7244997 131.7639988 108.4939216 142.3647238 132.0456917
  96.8580012 141.6914997 122.8139988  97.4740012 142.3184997 123.1939988
  95.9960012 142.0074997 123.0859988  96.8257698 141.8199430 122.9027183
 102.5300012 144.4924997 127.8029988 102.2890012 145.4174997 127.8449988
 101.7890012 144.0334997 128.1999988 102.3969225 144.5570933 127.8623742
 106.5890012 144.7404997 133.8189988 106.1630012 144.5134997 134.6459988
 107.1690012 144.0024997 133.6369988 106.6091868 144.6095299 133.9075830
  97.3700012 136.5254997 135.6959988  96.4770012 136.8644997 135.6279988
  97.2710012 135.6704997 136.1139988  97.2344164 136.4562588 135.7432235
 109.6580012 144.3424997 125.1199988 109.3800012 143.6144997 125.6759988
 110.5850012 144.4614997 125.3249988 109.7453124 144.2588802 125.2238845
  98.2730012 143.6044997 124.3069988  97.5870012 143.9564997 124.8739988
  98.7950012 144.3674997 124.0599988  98.2496852 143.7558578 124.3512118
 106.1040012 136.2664997 134.5859988 106.8030012 136.3404997 135.2359988
 105.7230012 135.4024997 134.7399988 106.1481767 136.1597624 134.6958322
 106.8890012 135.9184997 125.6829988 107.1090012 136.3904997 124.8799988
 107.4470012 136.3134997 126.3529988 106.9944968 136.0364285 125.6637331
 104.0890012 137.6464997 126.5179988 104.9010012 138.1514997 126.5639988
 103.8440012 137.5014997 127.4319988 104.1670520 137.6960375 126.6478517
 104.6240012 138.6324997 135.7019988 104.7430012 139.2064997 136.4599988
 105.2800012 137.9444997 135.8169988 104.7289025 138.6179858 135.8211321
 104.9720012 134.7274997 127.4559988 104.6260012 135.3454997 128.0999988
 105.6310012 135.2284997 126.9739988 105.0136968 134.8796278 127.4789383
 100.6300012 135.7904997 124.1429988 100.5470012 136.6794997 124.4899988
 101.5200012 135.5254997 124.3749988 100.7389469 135.8761430 124.2217626
 110.8290012 136.5394997 136.5369988 109.9120012 136.8024997 136.4499988
 111.1640012 136.5364997 135.6409988 110.7488613 136.5750761 136.4038837
 109.4310012 140.2904997 130.6329988 108.6330012 139.8754997 130.3049988
 109.8760012 139.5994997 131.1239988 109.3819885 140.1403543 130.6544889
  97.2050012 138.8824997 122.3199988  97.1600012 139.8214997 122.4979988
  96.3170012 138.6464997 122.0499988  97.0788574 138.9791892 122.3078912
  98.0130012 133.6644997 130.9929988  97.7840012 133.7234997 130.0649988
  97.5700012 132.8724997 131.2989988  97.9218530 133.5655753 130.9074786
  96.1380012 144.0274997 139.4369988  96.2820012 143.1254997 139.1509988
  95.3660012 144.3134997 138.9499988  96.0532753 143.9426816 139.3319505
 100.4800012 144.3714997 121.5699988 100.5440012 143.5774997 122.1009988
 101.1330012 144.2524997 120.8799988 100.5770241 144.2467148 121.5494317
 102.7940012 143.9974997 138.8699988 102.4650012 144.2684997 138.0129988
 102.9460012 143.0564997 138.7829988 102.7694809 143.9073862 138.7408244
 108.5280012 143.9134997 136.2529988 109.2740012 144.5014997 136.1339988
 107.7710012 144.4954997 136.3169988 108.5277820 144.0727143 136.2453590
  96.9710012 141.2274997 138.8569988  97.3790012 140.3704997 138.7359988
  96.7110012 141.2424997 139.7779988  96.9917568 141.1120807 138.9649588
 101.6290012 142.3434997 123.8759988 101.1690012 141.8594997 124.5619988
 101.8840012 141.6754997 123.2399988 101.6004902 142.1868731 123.8839334
 100.9180012 140.2364997 136.2319988 100.3000012 140.9114997 136.5119988
 101.2620012 140.5574997 135.3979988 100.8799132 140.3722411 136.1576262
 102.7000012 140.5864997 122.1379988 102.5200012 140.4324997 121.2109988
 103.6500012 140.6944997 122.1829988 102.8037776 140.5800175 122.0171843
 105.9380012 142.7084997 139.5089988 106.8910012 142.7914997 139.4819988
 105.7770012 141.9964997 140.1289988 106.0466426 142.6236746 139.5890578
 112.0900012 142.9414997 121.5839988 111.8160012 142.5164997 120.7709988
 112.1290012 143.8724997 121.3669988 112.0577699 143.0092484 121.4433610
 101.2570012 137.5914997 137.3139988 101.4070012 136.8624997 136.7119988
 101.2600012 138.3684997 136.7549988 101.2779302 137.5967851 137.1560692
 101.6700012 135.9614997 134.8069988 102.2060012 136.4124997 134.1549988
 100.8180012 135.8534997 134.3839988 101.6282178 136.0086390 134.6605756
 103.2520012 141.4004997 135.0459988 104.0020012 141.2444997 134.4729988
 102.9130012 142.2524997 134.7709988 103.3088921 141.4942968 134.9303561
 107.6670012 139.2154997 140.0749988 107.8600012 138.2844997 139.9629988
 108.5250012 139.6404997 140.0639988 107.8092934 139.1456531 140.0582031
 108.9840012 142.0044997 138.1519988 108.7030012 142.7134997 137.5739988
 109.9270012 141.9314997 138.0009988 109.0729291 142.0916711 138.0524967
  99.7360012 138.7894997 139.2259988  98.9690012 138.2574997 139.0149988
 100.4150012 138.4794997 138.6259988  99.7227877 138.6748300 139.1160716
 102.4760012 133.4174997 135.2379988 102.3770012 134.3644997 135.1329988
 101.7330012 133.0454997 134.7619988 102.3621184 133.4965863 135.1593621
 103.7400012 137.7394997 138.8019988 103.5040012 137.5194997 139.7029988
 102.9560012 137.5324997 138.2919988 103.6018504 137.6814586 138.8563431
 106.4550012 136.8664997 137.8769988 105.5080012 136.8984997 138.0099988
 106.7680012 136.2414997 138.5309988 106.3676707 136.7863998 137.9836060
 108.0890012 135.5004997 139.8829988 107.9930012 134.5484997 139.8769988
 107.7680012 135.7694997 140.7429988 108.0324070 135.4064035 139.9985441
  97.9160012 136.7104997 138.9299988  98.1280012 136.0034997 138.3199988
  97.8050012 136.2724997 139.7739988  97.9299721 136.5547084 138.9606843
 102.6970012 132.7114997 137.9089988 103.4090012 132.0714997 137.8949988
 102.5960012 132.9784997 136.9959988 102.7808066 132.6600079 137.7835677
 103.0510012 134.3944997 139.9629988 102.9190012 133.9184997 139.1429988
 102.4520012 135.1384997 139.9079988 102.9519071 134.4299618 139.8432886
 112.5480012 143.8104997 125.5589988 113.3980012 144.2314997 125.6859988
 112.5540012 143.0704997 126.1659988 112.6651372 143.7680803 125.6584344
 112.9430012 141.8634997 127.3819988 112.2160012 141.3844997 127.7799988
 113.5240012 142.0694997 128.1149988 112.9220473 141.8258103 127.5354528
 112.7020012 144.6484997 132.3299988 113.5350012 144.2704997 132.0499988
 112.8140012 145.5914997 132.2109988 112.8312647 144.7242218 132.2755487
 113.2110012 141.7644997 123.7739988 112.6890012 142.1214997 123.0549988
 113.1780012 142.4394997 124.4519988 113.1351634 141.9045413 123.7673145
 111.5600012 139.0044997 122.3239988 111.6560012 139.6714997 121.6439988
 111.4200012 138.1884997 121.8429988 111.5542272 138.9855655 122.1658347
 110.7290012 140.3844997 127.9449988 110.5790012 139.4394997 127.9249988
 110.3760012 140.6654997 128.7889988 110.6607448 140.2931481 128.0563705
  95.7650012 142.4624997 131.9559988  95.9490012 142.3804997 131.0199988
  96.6140012 142.3384997 132.3789988  95.9050151 142.4345073 131.8851451
 111.5860012 142.3544997 137.5839988 112.1690012 141.6204997 137.7759988
 112.1500012 143.1264997 137.6309988 111.7419769 142.3584227 137.6166159
 113.0820012 140.2574997 138.2689988 112.2190012 139.8784997 138.1029988
 113.6870012 139.5184997 138.1939988 113.0456119 140.1058268 138.2361528
 110.8070012 136.4124997 121.4419988 111.4180012 136.0414997 122.0789988
 109.9710012 135.9914997 121.6379988 110.7775032 136.3047554 121.5557035
 110.4400012 137.9674997 126.4079988 110.7200012 137.0604997 126.5319988
 111.1990012 138.4014997 126.0189988 110.5809277 137.9020942 126.3723682
 111.0520012 138.5484997 131.8439988 111.9850012 138.7604997 131.8089988
 110.8170012 138.6504997 132.7659988 111.1479244 138.5913100 131.9638892
 111.0810012 139.2854997 134.6199988 110.2380012 139.5534997 134.9859988
 111.5230012 140.1074997 134.4089988 111.0254158 139.4333291 134.6415491
  95.3620012 137.7334997 138.0969988  96.2820012 137.6114997 138.3329988
  94.9130012 136.9834997 138.4859988  95.4271580 137.6153727 138.1819006
 113.3640012 133.2654997 139.9729988 113.7140012 132.6114997 139.3679988
 113.5110012 134.1024997 139.5329988 113.4317887 133.2891548 139.8306858
 111.0530012 135.2304997 126.4559988 111.2360012 134.7814997 127.2819988
 110.4540012 134.6454997 125.9929988 110.9970202 135.0899975 126.5063275
  96.5830012 136.0454997 130.9879988  97.0290012 135.2534997 131.2899988
  97.0500012 136.7614997 131.4179988  96.7070831 136.0340685 131.0874006
  94.8870012 139.0444997 132.0569988  95.3790012 138.8234997 131.2659988
  95.2500012 139.8854997 132.3379988  95.0033126 139.1278357 131.9867531
 112.8840012 135.3744997 138.3219988 111.9660012 135.6454997 138.2869988
 113.0070012 134.8394997 137.5379988 112.7749729 135.3392508 138.2111923
 112.9200012 135.2974997 122.9839988 113.3320012 134.5764997 122.5089988
 113.6020012 135.9674997 123.0429988 113.0685885 135.2892368 122.9268915
  95.2010012 135.3024997 126.1109988  94.2760012 135.5114997 125.9819988
  95.6550012 135.7864997 125.4209988  95.1357292 135.3965343 126.0000720
  95.1650012 134.0404997 134.4549988  94.5000012 133.7944997 135.0989988
  94.7220012 134.6624997 133.8779988  95.0141318 134.0909410 134.4650898
 111.8840012 133.4644997 136.1409988 111.0720012 133.7894997 135.7539988
 112.1170012 132.7044997 135.6079988 111.8042203 133.4062758 136.0158880
 105.3140012 134.9134997 130.4639988 104.6400012 134.2844997 130.7199988
 105.8780012 134.4294997 129.8609988 105.2979230 134.7618744 130.4175340
 110.4570012 133.0214997 130.5769988 111.0610012 133.5684997 130.0749988
 109.5870012 133.3404997 130.3359988 110.4221208 133.1395137 130.4756886
 112.1840012 134.1594997 128.9099988 112.7960012 133.6454997 128.3829988
 112.5660012 135.0374997 128.9329988 112.3193371 134.2077866 128.8410041
  97.6410012 133.5474997 128.2859988  96.8640012 133.3134997 127.7789988
  98.1710012 132.7504997 128.2949988  97.6062330 133.4076988 128.2177742
  96.4770012 133.3454997 124.0899988  96.9160012 133.9564997 123.4979988
  95.8440012 133.8834997 124.5639988  96.4514514 133.5019257 124.0730930
 102.2200012 133.4744997 128.0999988 103.0950012 133.8624997 128.0699988
 102.0840012 133.2594997 129.0219988 102.3213695 133.4985184 128.2206440
 107.7770012 133.5044997 129.7489988 107.8530012 133.5994997 128.7989988
 107.5020012 132.5964997 129.8779988 107.7502321 133.3947867 129.6365079
 109.1300012 133.5304997 125.4409988 108.4280012 134.1454997 125.2309988
 108.6860012 132.6924997 125.5719988 108.9736450 133.5015639 125.4299000
  98.3380012 135.2614997 122.5319988  98.8300012 134.6314997 122.0049988
  98.9620012 135.5574997 123.1949988  98.4895688 135.2153804 122.5495482
 103.3640012 135.5544997 124.9889988 103.5420012 134.9084997 125.6719988
 103.3110012 136.3884997 125.4559988 103.3811999 135.5788009 125.1455917
  97.5990012 134.0614997 137.8039988  97.2330012 133.2964997 138.2459988
  98.5120012 134.0904997 138.0899988  97.6722736 133.9605640 137.9032502
  99.5720012 133.4124997 139.3399988 100.4700012 133.1384997 139.1549988
  99.1850012 132.6694997 139.8039988  99.6426612 133.2745914 139.3773643
 107.9930012 132.7444997 139.5219988 108.0700012 132.3184997 140.3759988
 108.8870012 132.7584997 139.1789988 108.1243428 132.6880880 139.5925310
 125.5750012 142.7034997 128.2449988 125.6640012 143.6474997 128.1129988
 124.9370012 142.4284997 127.5869988 125.5009081 142.7954830 128.1379614
 124.5080012 141.9584997 131.6639988 124.4700012 141.3124997 132.3689988
 124.1860012 141.4924997 130.8929988 124.4592333 141.8069408 131.6562978
 116.8770012 141.5734997 133.2569988 116.9180012 140.9474997 133.9799988
 117.5800012 142.1974997 133.4389988 116.9776363 141.5721196 133.3806044
 128.2140012 144.8974997 129.9649988 127.7740012 144.1774997 130.4159988
 128.2010012 145.6184997 130.5949988 128.1520226 144.8963731 130.1118494
 114.4100012 139.6834997 127.1849988 113.9630012 140.5294997 127.1659988
 113.8490012 139.1034997 126.6689988 114.2729900 139.7209916 127.1126801
 115.1210012 141.8454997 129.3099988 115.3340012 141.0754997 129.8379988
 115.8590012 141.9344997 128.7069988 115.2499044 141.7521968 129.3007123
 122.8980012 144.3914997 132.0699988 123.2020012 143.7054997 131.4749988
 123.6190012 144.5094997 132.6879988 123.0370671 144.3136305 132.0721816
 131.5610012 135.9924997 132.9309988 131.6100012 136.6024997 133.6659988
 131.9860012 136.4534997 132.2079988 131.6251746 136.1383796 132.9339175
 126.0390012 138.7854997 132.3969988 126.1810012 137.8394997 132.4179988
 125.9320012 138.9924997 131.4689988 126.0439919 138.6838246 132.2743408
 119.1930012 136.8864997 129.6699988 119.2370012 137.7464997 129.2509988
 118.7360012 136.3344997 129.0359988 119.1372240 136.9294422 129.5269864
 126.9160012 137.0174997 128.0709988 127.5620012 136.6884997 128.6949988
 127.4260012 137.5354997 127.4479988 127.0734299 137.0424450 128.0722731
 115.8140012 139.2834997 130.4319988 116.4670012 138.7334997 130.8639988
 115.8380012 139.0094997 129.5149988 115.9066683 139.1711466 130.3672123
 120.9700012 140.8334997 129.6469988 121.5860012 140.3074997 130.1569988
 120.3840012 140.1934997 129.2439988 120.9750810 140.6749208 129.6623173
 131.9520012 137.4704997 135.1659988 131.2640012 138.1284997 135.0709988
 131.9680012 137.2734997 136.1029988 131.8599540 137.5339819 135.2795990
 118.0040012 135.8044997 133.7439988 117.7850012 136.3344997 132.9779988
 117.3360012 136.0314997 134.3909988 117.8837600 135.9076906 133.7266379
 120.5730012 143.4804997 134.0309988 119.8330012 144.0784997 134.1349988
 121.2870012 144.0344997 133.7159988 120.5682237 143.6372831 134.0026465
 128.6800012 136.3084997 130.0509988 128.4640012 135.5424997 130.5839988
 129.3350012 136.7804997 130.5639988 128.7390632 136.2675889 130.1932861
 117.5970012 137.6964997 131.6959988 118.2110012 138.3294997 132.0689988
 118.1090012 137.2244997 131.0399988 117.7501981 137.7192267 131.6582908
 129.0270012 135.0234997 133.7309988 128.2910012 135.6344997 133.6929988
 129.7100012 135.4384997 133.2039988 129.0186541 135.1631374 133.6545832
 122.0300012 133.1104997 131.1959988 121.9130012 132.1614997 131.1419988
 121.1750012 133.4424997 131.4699988 121.8984212 133.0255571 131.2256497
 129.8240012 144.9854997 135.9239988 129.9640012 144.3944997 135.1849988
 129.9910012 145.8584997 135.5679988 129.8657411 145.0225428 135.7746894
 124.2970012 141.9474997 125.6969988 123.5850012 142.4824997 125.3449988
 124.9880012 142.0034997 125.0369988 124.2930132 142.0282543 125.5596289
 124.3500012 140.4054997 122.7359988 125.0510012 140.4274997 123.3869988
 124.6530012 139.7774997 122.0789988 124.4868133 140.3237070 122.7363369
 131.6660012 141.3254997 133.9899988 131.0130012 142.0204997 134.0799988
 132.1310012 141.5354997 133.1809988 131.6395274 141.4490643 133.8928462
 127.7020012 142.1574997 126.6489988 126.9700012 142.3854997 127.2219988
 128.1500012 141.4434997 127.1029988 127.6622725 142.0922145 126.7888816
 127.6000012 140.3314997 135.7159988 127.6800012 141.0944997 136.2879988
 126.9980012 140.6104997 135.0259988 127.5295756 140.4737134 135.7010589
 119.3480012 142.7874997 128.5309988 119.0170012 142.4174997 127.7129988
 119.9360012 142.1174997 128.8779988 119.3821873 142.6461156 128.4658102
 119.7140012 141.5564997 132.1649988 120.2800012 141.6774997 131.4019988
 120.0330012 142.1934997 132.8029988 119.8345474 141.6592219 132.1469862
 126.5730012 141.3194997 124.3339988 127.1530012 141.4694997 125.0809988
 126.9870012 141.7904997 123.6099988 126.7082997 141.4036578 124.3384058
 117.5140012 142.1534997 136.1099988 117.5850012 142.8044997 136.8089988
 116.6240012 142.2564997 135.7749988 117.4033005 142.2565427 136.1603495
 130.2720012 133.0694997 124.1469988 129.3720012 133.2084997 124.4419988
 130.5240012 133.9004997 123.7449988 130.1828702 133.2009074 124.1330205
 118.3380012 141.8574997 126.1199988 118.0460012 142.6254997 125.6299988
 117.6640012 141.1974997 125.9579988 118.2068111 141.8735587 126.0308978
 114.4310012 144.2204997 134.9349988 113.9300012 144.1924997 134.1199988
 114.4360012 143.3144997 135.2449988 114.3630944 144.0942396 134.8653226
 129.5310012 139.1594997 137.9819988 129.1240012 139.6404997 137.2609988
 129.5720012 138.2544997 137.6739988 129.4808437 139.1029374 137.8416683
 119.2990012 134.0134997 131.9739988 118.4370012 133.9264997 131.5659988
 119.2760012 134.8694997 132.4019988 119.1780409 134.1172883 131.9760589
 123.9620012 133.7354997 135.3489988 124.3820012 133.3204997 136.1019988
 123.0290012 133.5574997 135.4659988 123.8933644 133.6545900 135.4679539
 127.2880012 137.4914997 136.2019988 126.7740012 137.3654997 136.9999988
 127.1330012 138.4034997 135.9579988 127.1966852 137.5976132 136.2782158
 128.0510012 142.3524997 121.9639988 128.0930012 142.1294997 121.0339988
 128.9000012 142.7514997 122.1529988 128.1715280 142.3759438 121.8623554
 123.6230012 136.2284997 122.6339988 123.3700012 136.2474997 123.5569988
 123.3670012 135.3564997 122.3319988 123.5537481 136.1132558 122.7196175
 119.3900012 138.9794997 133.0689988 118.7480012 138.9384997 133.7779988
 119.4270012 139.9054997 132.8309988 119.3070664 139.0991430 133.1339219
 119.3870012 139.2004997 127.9809988 118.4940012 138.8594997 127.9219988
 119.8370012 138.8234997 127.2249988 119.3258130 139.1029631 127.8707702
 124.9220012 139.6164997 126.7979988 124.5130012 140.4314997 126.5069988
 125.6430012 139.4764997 126.1839988 124.9634537 139.7092018 126.6751342
 124.0240012 139.7914997 138.2859988 123.4620012 139.0874997 138.6069988
 124.8510012 139.6714997 138.7539988 124.0587095 139.6787883 138.3932330
 125.9270012 139.0624997 129.6119988 125.7320012 139.6674997 128.8969988
 126.1080012 138.2284997 129.1779988 125.9247614 139.0326300 129.4554405
 117.1400012 139.2994997 134.9359988 117.1020012 139.6994997 135.8049988
 116.6490012 138.4824997 135.0269988 117.0684684 139.2438069 135.0671059
 120.5060012 136.6734997 121.7349988 120.0750012 136.2284997 122.4649988
 119.7880012 137.0454997 121.2229988 120.3499438 136.6628940 121.7656799
 113.7480012 136.4154997 128.7869988 114.3790012 136.3864997 129.5059988
 114.1970012 135.9904997 128.0559988 113.8950918 136.3540836 128.7866441
 115.0220012 137.1614997 124.2109988 115.4960012 137.7524997 123.6259988
 114.3050012 137.6924997 124.5579988 114.9899341 137.3140867 124.1778836
 125.1910012 140.7004997 134.2829988 125.5140012 140.0694997 133.6399988
 124.7510012 140.1654997 134.9439988 125.1757484 140.5418387 134.2843198
 121.9680012 136.6274997 129.0669988 121.0570012 136.6844997 129.3559988
 122.4740012 136.5674997 129.8779988 121.9116899 136.6271941 129.2161184
 116.7970012 138.2564997 127.8939988 115.9070012 138.3564997 127.5539988
 117.0930012 137.4144997 127.5479988 116.7152823 138.1563545 127.8007213
 120.4500012 138.2564997 125.5509988 121.3810012 138.3854997 125.7289988
 120.2350012 138.9264997 124.9009988 120.5484247 138.3646565 125.4875747
 126.3730012 135.8624997 132.3319988 125.6970012 135.9934997 132.9959988
 125.8880012 135.7074997 131.5209988 126.2147146 135.8595157 132.3134469
 119.1240012 139.4514997 123.1169988 118.5810012 139.0714997 122.4259988
 119.9570012 139.6454997 122.6889988 119.1623631 139.4257125 122.9644501
 117.2590012 144.0084997 138.2159988 117.9910012 144.2624997 138.7779988
 116.4790012 144.2124997 138.7319988 117.2537073 144.0708160 138.3626151
 123.2880012 139.4154997 130.9539988 123.8530012 138.8684997 130.4069988
 123.1410012 138.8934997 131.7429988 123.3453380 139.2702259 130.9858695
 118.2900012 135.5514997 127.3729988 117.9730012 134.6494997 127.3369988
 119.0720012 135.5534997 126.8199988 118.3522408 135.4282474 127.2933569
 121.9150012 137.8034997 133.3679988 121.0790012 138.2574997 133.4789988
 122.4390012 138.0794997 134.1199988 121.8715416 137.9028660 133.4848119
 122.4590012 144.0164997 125.0529988 121.7140012 143.5094997 124.7309988
 122.3250012 144.0654997 125.9999988 122.3388776 143.9536940 125.1368647
 129.6090012 143.1494997 133.8399988 130.2510012 143.6064997 133.2959988
 128.7790012 143.2624997 133.3769988 129.5845963 143.2272704 133.7030177
 126.3570012 136.8304997 123.2519988 125.4180012 136.9424997 123.1009988
 126.6540012 137.6874997 123.5589988 126.2687583 136.9615981 123.2728337
 123.9780012 144.2004997 136.2899988 123.6330012 143.8194997 137.0969988
 123.7780012 145.1344997 136.3609988 123.9037527 144.2745135 136.4100689
 127.0750012 138.6974997 124.9129988 127.9670012 138.5604997 125.2319988
 127.1320012 139.4884997 124.3759988 127.2046504 138.7856052 124.8840818
 117.5840012 143.3114997 130.8229988 118.3290012 143.3094997 130.2219988
 117.6620012 142.4884997 131.3039988 117.6964995 143.1998887 130.8058282
 114.5920012 141.7724997 136.1379988 114.8150012 141.3544997 136.9699988
 113.9900012 141.1594997 135.7149988 114.5411759 141.6324668 136.1947022
 121.6080012 141.2894997 138.3509988 121.3120012 141.1234997 137.4559988
 122.5400012 141.0694997 138.3399988 121.6934166 141.2370640 138.2270536
 131.9600012 138.9074997 124.6079988 131.4060012 138.5114997 123.9359988
 132.0600012 139.8174997 124.3299988 131.8977059 138.9763586 124.4784401
 131.9230012 144.7074997 137.4449988 131.0720012 144.9454997 137.0779988
 132.5140012 144.6904997 136.6919988 131.8862487 144.7378258 137.2928893
 127.4160012 142.5014997 132.0939988 126.4870012 142.2694997 132.0669988
 127.8670012 141.7244997 131.7639988 127.3499216 142.3647238 132.0456917
 115.7140012 141.6914997 122.8139988 116.3300012 142.3184997 123.1939988
 114.8520012 142.0074997 123.0859988 115.6817698 141.8199430 122.9027183
 121.3860012 144.4924997 127.8029988 121.1450012 145.4174997 127.8449988
 120.6450012 144.0334997 128.1999988 121.2529225 144.5570933 127.8623742
 125.4450012 144.7404997 133.8189988 125.0190012 144.5134997 134.6459988
 126.0250012 144.0024997 133.6369988 125.4651868 144.6095299 133.9075830
 116.2260012 136.5254997 135.6959988 115.3330012 136.8644997 135.6279988
 116.1270012 135.6704997 136.1139988 116.0904164 136.4562588 135.7432235
 128.5140012 144.3424997 125.1199988 128.2360012 143.6144997 125.6759988
 129.4410012 144.4614997 125.3249988 128.6013124 144.2588802 125.2238845
 117.1290012 143.6044997 124.3069988 116.4430012 143.9564997 124.8739988
 117.6510012 144.3674997 124.0599988 117.1056852 143.7558578 124.3512118
 124.9600012 136.2664997 134.5859988 125.6590012 136.3404997 135.2359988
 124.5790012 135.4024997 134.7399988 125.0041767 136.1597624 134.6958322
 125.7450012 135.9184997 125.6829988 125.9650012 136.3904997 124.8799988
 126.3030012 136.3134997 126.3529988 125.8504968 136.0364285 125.6637331
 122.9450012 137.6464997 126.5179988 123.7570012 138.1514997 126.5639988
 122.7000012 137.5014997 127.4319988 123.0230520 137.6960375 126.6478517
 123.4800012 138.6324997 135.7019988 123.5990012 139.2064997 136.4599988
 124.1360012 137.9444997 135.8169988 123.5849025 138.6179858 135.8211321
 123.8280012 134.7274997 127.4559988 123.4820012 135.3454997 128.0999988
 124.4870012 135.2284997 126.9739988 123.8696968 134.8796278 127.4789383
 119.4860012 135.7904997 124.1429988 119.4030012 136.6794997 124.4899988
 120.3760012 135.5254997 124.3749988 119.5949469 135.8761430 124.2217626
 129.6850012 136.5394997 136.5369988 128.7680012 136.8024997 136.4499988
 130.0200012 136.5364997 135.6409988 129.6048613 136.5750761 136.4038837
 128.2870012 140.2904997 130.6329988 127.4890012 139.8754997 130.3049988
 128.7320012 139.5994997 131.1239988 128.2379885 140.1403543 130.6544889
 116.0610012 138.8824997 122.3199988 116.0160012 139.8214997 122.4979988
 115.1730012 138.6464997 122.0499988 115.9348574 138.9791892 122.3078912
 116.8690012 133.6644997 130.9929988 116.6400012 133.7234997 130.0649988
 116.4260012 132.8724997 131.2989988 116.7778530 133.5655753 130.9074786
 114.9940012 144.0274997 139.4369988 115.1380012 143.1254997 139.1509988
 114.2220012 144.3134997 138.9499988 114.9092753 143.9426816 139.3319505
 119.3360012 144.3714997 121.5699988 119.4000012 143.5774997 122.1009988
 119.9890012 144.2524997 120.8799988 119.4330241 144.2467148 121.5494317
 121.6500012 143.9974997 138.8699988 121.3210012 144.2684997 138.0129988
 121.8020012 143.0564997 138.7829988 121.6254809 143.9073862 138.7408244
 127.3840012 143.9134997 136.2529988 128.1300012 144.5014997 136.1339988
 126.6270012 144.4954997 136.3169988 127.3837820 144.0727143 136.2453590
 115.8270012 141.2274997 138.8569988 116.2350012 140.3704997 138.7359988
 115.5670012 141.2424997 139.7779988 115.8477568 141.1120807 138.9649588
 120.4850012 142.3434997 123.8759988 120.0250012 141.8594997 124.5619988
 120.7400012 141.6754997 123.2399988 120.4564902 142.1868731 123.8839334
 119.7740012 140.2364997 136.2319988 119.1560012 140.9114997 136.5119988
 120.1180012 140.5574997 135.3979988 119.7359132 140.3722411 136.1576262
 121.5560012 140.5864997 122.1379988 121.3760012 140.4324997 121.2109988
 122.5060012 140.6944997 122.1829988 121.6597776 140.5800175 122.0171843
 124.7940012 142.7084997 139.5089988 125.7470012 142.7914997 139.4819988
 124.6330012 141.9964997 140.1289988 124.9026426 142.6236746 139.5890578
 130.9460012 142.9414997 121.5839988 130.6720012 142.5164997 120.7709988
 130.9850012 143.8724997 121.3669988 130.9137699 143.0092484 121.4433610
 120.1130012 137.5914997 137.3139988 120.2630012 136.8624997 136.7119988
 120.1160012 138.3684997 136.7549988 120.1339302 137.5967851 137.1560692
 120.5260012 135.9614997 134.8069988 121.0620012 136.4124997 134.1549988
 119.6740012 135.8534997 134.3839988 120.4842178 136.0086390 134.6605756
 122.1080012 141.4004997 135.0459988 122.8580012 141.2444997 134.4729988
 121.7690012 142.2524997 134.7709988 122.1648921 141.4942968 134.9303561
 126.5230012 139.2154997 140.0749988 126.7160012 138.2844997 139.9629988
 127.3810012 139.6404997 140.0639988 126.6652934 139.1456531 140.0582031
 127.8400012 142.0044997 138.1519988 127.5590012 142.7134997 137.5739988
 128.7830012 141.9314997 138.0009988 127.9289291 142.0916711 138.0524967
 118.5920012 138.7894997 139.2259988 117.8250012 138.2574997 139.0149988
 119.2710012 138.4794997 138.6259988 118.5787877 138.6748300 139.1160716
 121.3320012 133.4174997 135.2379988 121.2330012 134.3644997 135.1329988
 120.5890012 133.0454997 134.7619988 121.2181184 133.4965863 135.1593621
 122.5960012 137.7394997 138.8019988 122.3600012 137.5194997 139.7029988
 121.8120012 137.5324997 138.2919988 122.4578504 137.6814586 138.8563431
 125.3110012 136.8664997 137.8769988 124.3640012 136.8984997 138.0099988
 125.6240012 136.2414997 138.5309988 125.2236707 136.7863998 137.9836060
 126.9450012 135.5004997 139.8829988 126.8490012 134.5484997 139.8769988
 126.6240012 135.7694997 140.7429988 126.8884070 135.4064035 139.9985441
 116.7720012 136.7104997 138.9299988 116.9840012 136.0034997 138.3199988
 116.6610012 136.2724997 139.7739988 116.7859721 136.5547084 138.9606843
 121.5530012 132.7114997 137.9089988 122.2650012 132.0714997 137.8949988
 121.4520012 132.9784997 136.9959988 121.6368066 132.6600079 137.7835677
 121.9070012 134.3944997 139.9629988 121.7750012 133.9184997 139.1429988
 121.3080012 135.1384997 139.9079988 121.8079071 134.4299618 139.8432886
 131.4040012 143.8104997 125.5589988 132.2540012 144.2314997 125.6859988
 131.4100012 143.0704997 126.1659988 131.5211372 143.7680803 125.6584344
 131.7990012 141.8634997 127.3819988 131.0720012 141.3844997 127.7799988
 132.3800012 142.0694997 128.1149988 131.7780473 141.8258103 127.5354528
 131.5580012 144.6484997 132.3299988 132.3910012 144.2704997 132.0499988
 131.6700012 145.5914997 132.2109988 131.6872647 144.7242218 132.2755487
 132.0670012 141.7644997 123.7739988 131.5450012 142.1214997 123.0549988
 132.0340012 142.4394997 124.4519988 131.9911634 141.9045413 123.7673145
 130.4160012 139.0044997 122.3239988 130.5120012 139.6714997 121.6439988
 130.2760012 138.1884997 121.8429988 130.4102272 138.9855655 122.1658347
 129.5850012 140.3844997 127.9449988 129.4350012 139.4394997 127.9249988
 129.2320012 140.6654997 128.7889988 129.5167448 140.2931481 128.0563705
 114.6210012 142.4624997 131.9559988 114.8050012 142.3804997 131.0199988
 115.4700012 142.3384997 132.3789988 114.7610151 142.4345073 131.8851451
 130.4420012 142.3544997 137.5839988 131.0250012 141.6204997 137.7759988
 131.0060012 143.1264997 137.6309988 130.5979769 142.3584227 137.6166159
 131.9380012 140.2574997 138.2689988 131.0750012 139.8784997 138.1029988
 132.5430012 139.5184997 138.1939988 131.9016119 140.1058268 138.2361528
 129.6630012 136.4124997 121.4419988 130.2740012 136.0414997 122.0789988
 128.8270012 135.9914997 121.6379988 129.6335032 136.3047554 121.5557035
 129.2960012 137.9674997 126.4079988 129.5760012 137.0604997 126.5319988
 130.0550012 138.4014997 126.0189988 129.4369277 137.9020942 126.3723682
 129.9080012 138.5484997 131.8439988 130.8410012 138.7604997 131.8089988
 129.6730012 138.6504997 132.7659988 130.0039244 138.5913100 131.9638892
 129.9370012 139.2854997 134.6199988 129.0940012 139.5534997 134.9859988
 130.3790012 140.1074997 134.4089988 129.8814158 139.4333291 134.6415491
 114.2180012 137.7334997 138.0969988 115.1380012 137.6114997 138.3329988
 113.7690012 136.9834997 138.4859988 114.2831580 137.6153727 138.1819006
 132.2200012 133.2654997 139.9729988 132.5700012 132.6114997 139.3679988
 132.3670012 134.1024997 139.5329988 132.2877887 133.2891548 139.8306858
 129.9090012 135.2304997 126.4559988 130.0920012 134.7814997 127.2819988
 129.3100012 134.6454997 125.9929988 129.8530202 135.0899975 126.5063275
 115.4390012 136.0454997 130.9879988 115.8850012 135.2534997 131.2899988
 115.9060012 136.7614997 131.4179988 115.5630831 136.0340685 131.0874006
 113.7430012 139.0444997 132.0569988 114.2350012 138.8234997 131.2659988
 114.1060012 139.8854997 132.3379988 113.8593126 139.1278357 131.9867531
 131.7400012 135.3744997 138.3219988 130.8220012 135.6454997 138.2869988
 131.8630012 134.8394997 137.5379988 131.6309729 135.3392508 138.2111923
 131.7760012 135.2974997 122.9839988 132.1880012 134.5764997 122.5089988
 132.4580012 135.9674997 123.0429988 131.9245885 135.2892368 122.9268915
 114.0570012 135.3024997 126.1109988 113.1320012 135.5114997 125.9819988
 114.5110012 135.7864997 125.4209988 113.9917292 135.3965343 126.0000720
 114.0210012 134.0404997 134.4549988 113.3560012 133.7944997 135.0989988
 113.5780012 134.6624997 133.8779988 113.8701318 134.0909410 134.4650898
 130.7400012 133.4644997 136.1409988 129.9280012 133.7894997 135.7539988
 130.9730012 132.7044997 135.6079988 130.6602203 133.4062758 136.0158880
 124.1700012 134.9134997 130.4639988 123.4960012 134.2844997 130.7199988
 124.7340012 134.4294997 129.8609988 124.1539230 134.7618744 130.4175340
 129.3130012 133.0214997 130.5769988 129.9170012 133.5684997 130.0749988
 128.4430012 133.3404997 130.3359988 129.2781208 133.1395137 130.4756886
 131.0400012 134.1594997 128.9099988 131.6520012 133.6454997 128.3829988
 131.4220012 135.0374997 128.9329988 131.1753371 134.2077866 128.8410041
 116.4970012 133.5474997 128.2859988 115.7200012 133.3134997 127.7789988
 117.0270012 132.7504997 128.2949988 116.4622330 133.4076988 128.2177742
 115.3330012 133.3454997 124.0899988 115.7720012 133.9564997 123.4979988
 114.7000012 133.8834997 124.5639988 115.3074514 133.5019257 124.0730930
 121.0760012 133.4744997 128.0999988 121.9510012 133.8624997 128.0699988
 120.9400012 133.2594997 129.0219988 121.1773695 133.4985184 128.2206440
 126.6330012 133.5044997 129.7489988 126.7090012 133.5994997 128.7989988
 126.3580012 132.5964997 129.8779988 126.6062321 133.3947867 129.6365079
 127.9860012 133.5304997 125.4409988 127.2840012 134.1454997 125.2309988
 127.5420012 132.6924997 125.5719988 127.8296450 133.5015639 125.4299000
 117.1940012 135.2614997 122.5319988 117.6860012 134.6314997 122.0049988
 117.8180012 135.5574997 123.1949988 117.3455688 135.2153804 122.5495482
 122.2200012 135.5544997 124.9889988 122.3980012 134.9084997 125.6719988
 122.1670012 136.3884997 125.4559988 122.2371999 135.5788009 125.1455917
 116.4550012 134.0614997 137.8039988 116.0890012 133.2964997 138.2459988
 117.3680012 134.0904997 138.0899988 116.5282736 133.9605640 137.9032502
 118.4280012 133.4124997 139.3399988 119.3260012 133.1384997 139.1549988
 118.0410012 132.6694997 139.8039988 118.4986612 133.2745914 139.3773643
 126.8490012 132.7444997 139.5219988 126.9260012 132.3184997 140.3759988
 127.7430012 132.7584997 139.1789988 126.9803428 132.6880880 139.5925310
 144.4310012 142.7034997 128.2449988 144.5200012 143.6474997 128.1129988
 143.7930012 142.4284997 127.5869988 144.3569081 142.7954830 128.1379614
 143.3640012 141.9584997 131.6639988 143.3260012 141.3124997 132.3689988
 143.0420012 141.4924997 130.8929988 143.3152333 141.8069408 131.6562978
 135.7330012 141.5734997 133.2569988 135.7740012 140.9474997 133.9799988
 136.4360012 142.1974997 133.4389988 135.8336363 141.5721196 133.3806044
 133.2660012 139.6834997 127.1849988 132.8190012 140.5294997 127.1659988
 132.7050012 139.1034997 126.6689988 133.1289900 139.7209916 127.1126801
 133.9770012 141.8454997 129.3099988 134.1900012 141.0754997 129.8379988
 134.7150012 141.9344997 128.7069988 134.1059044 141.7521968 129.3007123
 141.7540012 144.3914997 132.0699988 142.0580012 143.7054997 131.4749988
 142.4750012 144.5094997 132.6879988 141.8930671 144.3136305 132.0721816
 144.8950012 138.7854997 132.3969988 145.0370012 137.8394997 132.4179988
 144.7880012 138.9924997 131.4689988 144.8999919 138.6838246 132.2743408
 138.0490012 136.8864997 129.6699988 138.0930012 137.7464997 129.2509988
 137.5920012 136.3344997 129.0359988 137.9932240 136.9294422 129.5269864
 134.6700012 139.2834997 130.4319988 135.3230012 138.7334997 130.8639988
 134.6940012 139.0094997 129.5149988 134.7626683 139.1711466 130.3672123
 139.8260012 140.8334997 129.6469988 140.4420012 140.3074997 130.1569988
 139.2400012 140.1934997 129.2439988 139.8310810 140.6749208 129.6623173
 136.8600012 135.8044997 133.7439988 136.6410012 136.3344997 132.9779988
 136.1920012 136.0314997 134.3909988 136.7397600 135.9076906 133.7266379
 139.4290012 143.4804997 134.0309988 138.6890012 144.0784997 134.1349988
 140.1430012 144.0344997 133.7159988 139.4242237 143.6372831 134.0026465
 136.4530012 137.6964997 131.6959988 137.0670012 138.3294997 132.0689988
 136.9650012 137.2244997 131.0399988 136.6061981 137.7192267 131.6582908
 140.8860012 133.1104997 131.1959988 140.7690012 132.1614997 131.1419988
 140.0310012 133.4424997 131.4699988 140.7544212 133.0255571 131.2256497
 143.1530012 141.9474997 125.6969988 142.4410012 142.4824997 125.3449988
 143.8440012 142.0034997 125.0369988 143.1490132 142.0282543 125.5596289
 143.2060012 140.4054997 122.7359988 143.9070012 140.4274997 123.3869988
 143.5090012 139.7774997 122.0789988 143.3428133 140.3237070 122.7363369
 138.2040012 142.7874997 128.5309988 137.8730012 142.4174997 127.7129988
 138.7920012 142.1174997 128.8779988 138.2381873 142.6461156 128.4658102
 138.5700012 141.5564997 132.1649988 139.1360012 141.6774997 131.4019988
 138.8890012 142.1934997 132.8029988 138.6905474 141.6592219 132.1469862
 136.3700012 142.1534997 136.1099988 136.4410012 142.8044997 136.8089988
 135.4800012 142.2564997 135.7749988 136.2593005 142.2565427 136.1603495
 137.1940012 141.8574997 126.1199988 136.9020012 142.6254997 125.6299988
 136.5200012 141.1974997 125.9579988 137.0628111 141.8735587 126.0308978
 133.2870012 144.2204997 134.9349988 132.7860012 144.1924997 134.1199988
 133.2920012 143.3144997 135.2449988 133.2190944 144.0942396 134.8653226
 138.1550012 134.0134997 131.9739988 137.2930012 133.9264997 131.5659988
 138.1320012 134.8694997 132.4019988 138.0340409 134.1172883 131.9760589
 142.8180012 133.7354997 135.3489988 143.2380012 133.3204997 136.1019988
 141.8850012 133.5574997 135.4659988 142.7493644 133.6545900 135.4679539
 142.4790012 136.2284997 122.6339988 142.2260012 136.2474997 123.5569988
 142.2230012 135.3564997 122.3319988 142.4097481 136.1132558 122.7196175
 138.2460012 138.9794997 133.0689988 137.6040012 138.9384997 133.7779988
 138.2830012 139.9054997 132.8309988 138.1630664 139.0991430 133.1339219
 138.2430012 139.2004997 127.9809988 137.3500012 138.8594997 127.9219988
 138.6930012 138.8234997 127.2249988 138.1818130 139.1029631 127.8707702
 143.7780012 139.6164997 126.7979988 143.3690012 140.4314997 126.5069988
 144.4990012 139.4764997 126.1839988 143.8194537 139.7092018 126.6751342
 142.8800012 139.7914997 138.2859988 142.3180012 139.0874997 138.6069988
 143.7070012 139.6714997 138.7539988 142.9147095 139.6787883 138.3932330
 144.7830012 139.0624997 129.6119988 144.5880012 139.6674997 128.8969988
 144.9640012 138.2284997 129.1779988 144.7807614 139.0326300 129.4554405
 135.9960012 139.2994997 134.9359988 135.9580012 139.6994997 135.8049988
 135.5050012 138.4824997 135.0269988 135.9244684 139.2438069 135.0671059
 139.3620012 136.6734997 121.7349988 138.9310012 136.2284997 122.4649988
 138.6440012 137.0454997 121.2229988 139.2059438 136.6628940 121.7656799
 132.6040012 136.4154997 128.7869988 133.2350012 136.3864997 129.5059988
 133.0530012 135.9904997 128.0559988 132.7510918 136.3540836 128.7866441
 133.8780012 137.1614997 124.2109988 134.3520012 137.7524997 123.6259988
 133.1610012 137.6924997 124.5579988 133.8459341 137.3140867 124.1778836
 144.0470012 140.7004997 134.2829988 144.3700012 140.0694997 133.6399988
 143.6070012 140.1654997 134.9439988 144.0317484 140.5418387 134.2843198
 140.8240012 136.6274997 129.0669988 139.9130012 136.6844997 129.3559988
 141.3300012 136.5674997 129.8779988 140.7676899 136.6271941 129.2161184
 135.6530012 138.2564997 127.8939988 134.7630012 138.3564997 127.5539988
 135.9490012 137.4144997 127.5479988 135.5712823 138.1563545 127.8007213
 139.3060012 138.2564997 125.5509988 140.2370012 138.3854997 125.7289988
 139.0910012 138.9264997 124.9009988 139.4044247 138.3646565 125.4875747
 137.9800012 139.4514997 123.1169988 137.4370012 139.0714997 122.4259988
 138.8130012 139.6454997 122.6889988 138.0183631 139.4257125 122.9644501
 136.1150012 144.0084997 138.2159988 136.8470012 144.2624997 138.7779988
 135.3350012 144.2124997 138.7319988 136.1097073 144.0708160 138.3626151
 142.1440012 139.4154997 130.9539988 142.7090012 138.8684997 130.4069988
 141.9970012 138.8934997 131.7429988 142.2013380 139.2702259 130.9858695
 137.1460012 135.5514997 127.3729988 136.8290012 134.6494997 127.3369988
 137.9280012 135.5534997 126.8199988 137.2082408 135.4282474 127.2933569
 140.7710012 137.8034997 133.3679988 139.9350012 138.2574997 133.4789988
 141.2950012 138.0794997 134.1199988 140.7275416 137.9028660 133.4848119
 141.3150012 144.0164997 125.0529988 140.5700012 143.5094997 124.7309988
 141.1810012 144.0654997 125.9999988 141.1948776 143.9536940 125.1368647
 142.8340012 144.2004997 136.2899988 142.4890012 143.8194997 137.0969988
 142.6340012 145.1344997 136.3609988 142.7597527 144.2745135 136.4100689
 136.4400012 143.3114997 130.8229988 137.1850012 143.3094997 130.2219988
 136.5180012 142.4884997 131.3039988 136.5524995 143.1998887 130.8058282
 133.4480012 141.7724997 136.1379988 133.6710012 141.3544997 136.9699988
 132.8460012 141.1594997 135.7149988 133.3971759 141.6324668 136.1947022
 140.4640012 141.2894997 138.3509988 140.1680012 141.1234997 137.4559988
 141.3960012 141.0694997 138.3399988 140.5494166 141.2370640 138.2270536
 134.5700012 141.6914997 122.8139988 135.1860012 142.3184997 123.1939988
 133.7080012 142.0074997 123.0859988 134.5377698 141.8199430 122.9027183
 140.2420012 144.4924997 127.8029988 140.0010012 145.4174997 127.8449988
 139.5010012 144.0334997 128.1999988 140.1089225 144.5570933 127.8623742
 144.3010012 144.7404997 133.8189988 143.8750012 144.5134997 134.6459988
 144.8810012 144.0024997 133.6369988 144.3211868 144.6095299 133.9075830
 135.0820012 136.5254997 135.6959988 134.1890012 136.8644997 135.6279988
 134.9830012 135.6704997 136.1139988 134.9464164 136.4562588 135.7432235
 135.9850012 143.6044997 124.3069988 135.2990012 143.9564997 124.8739988
 136.5070012 144.3674997 124.0599988 135.9616852 143.7558578 124.3512118
 143.8160012 136.2664997 134.5859988 144.5150012 136.3404997 135.2359988
 143.4350012 135.4024997 134.7399988 143.8601767 136.1597624 134.6958322
 144.6010012 135.9184997 125.6829988 144.8210012 136.3904997 124.8799988
 145.1590012 136.3134997 126.3529988 144.7064968 136.0364285 125.6637331
 141.8010012 137.6464997 126.5179988 142.6130012 138.1514997 126.5639988
 141.5560012 137.5014997 127.4319988 141.8790520 137.6960375 126.6478517
 142.3360012 138.6324997 135.7019988 142.4550012 139.2064997 136.4599988
 142.9920012 137.9444997 135.8169988 142.4409025 138.6179858 135.8211321
 142.6840012 134.7274997 127.4559988 142.3380012 135.3454997 128.0999988
 143.3430012 135.2284997 126.9739988 142.7256968 134.8796278 127.4789383
 138.3420012 135.7904997 124.1429988 138.2590012 136.6794997 124.4899988
 139.2320012 135.5254997 124.3749988 138.4509469 135.8761430 124.2217626
 134.9170012 138.8824997 122.3199988 134.8720012 139.8214997 122.4979988
 134.0290012 138.6464997 122.0499988 134.7908574 138.9791892 122.3078912
 135.7250012 133.6644997 130.9929988 135.4960012 133.7234997 130.0649988
 135.2820012 132.8724997 131.2989988 135.6338530 133.5655753 130.9074786
 133.8500012 144.0274997 139.4369988 133.9940012 143.1254997 139.1509988
 133.0780012 144.3134997 138.9499988 133.7652753 143.9426816 139.3319505
 138.1920012 144.3714997 121.5699988 138.2560012 143.5774997 122.1009988
 138.8450012 144.2524997 120.8799988 138.2890241 144.2467148 121.5494317
 140.5060012 143.9974997 138.8699988 140.1770012 144.2684997 138.0129988
 140.6580012 143.0564997 138.7829988 140.4814809 143.9073862 138.7408244
 134.6830012 141.2274997 138.8569988 135.0910012 140.3704997 138.7359988
 134.4230012 141.2424997 139.7779988 134.7037568 141.1120807 138.9649588
 139.3410012 142.3434997 123.8759988 138.8810012 141.8594997 124.5619988
 139.5960012 141.6754997 123.2399988 139.3124902 142.1868731 123.8839334
 138.6300012 140.2364997 136.2319988 138.0120012 140.9114997 136.5119988
 138.9740012 140.5574997 135.3979988 138.5919132 140.3722411 136.1576262
 140.4120012 140.5864997 122.1379988 140.2320012 140.4324997 121.2109988
 141.3620012 140.6944997 122.1829988 140.5157776 140.5800175 122.0171843
 143.6500012 142.7084997 139.5089988 144.6030012 142.7914997 139.4819988
 143.4890012 141.9964997 140.1289988 143.7586426 142.6236746 139.5890579
 138.9690012 137.5914997 137.3139988 139.1190012 136.8624997 136.7119988
 138.9720012 138.3684997 136.7549988 138.9899302 137.5967851 137.1560692
 139.3820012 135.9614997 134.8069988 139.9180012 136.4124997 134.1549988
 138.5300012 135.8534997 134.3839988 139.3402178 136.0086390 134.6605756
 140.9640012 141.4004997 135.0459988 141.7140012 141.2444997 134.4729988
 140.6250012 142.2524997 134.7709988 141.0208921 141.4942968 134.9303561
 137.4480012 138.7894997 139.2259988 136.6810012 138.2574997 139.0149988
 138.1270012 138.4794997 138.6259988 137.4347877 138.6748300 139.1160716
 140.1880012 133.4174997 135.2379988 140.0890012 134.3644997 135.1329988
 139.4450012 133.0454997 134.7619988 140.0741184 133.4965863 135.1593621
 141.4520012 137.7394997 138.8019988 141.2160012 137.5194997 139.7029988
 140.6680012 137.5324997 138.2919988 141.3138504 137.6814586 138.8563431
 144.1670012 136.8664997 137.8769988 143.2200012 136.8984997 138.0099988
 144.4800012 136.2414997 138.5309988 144.0796707 136.7863998 137.9836060
 135.6280012 136.7104997 138.9299988 135.8400012 136.0034997 138.3199988
 135.5170012 136.2724997 139.7739988 135.6419721 136.5547084 138.9606843
 140.4090012 132.7114997 137.9089988 141.1210012 132.0714997 137.8949988
 140.3080012 132.9784997 136.9959988 140.4928066 132.6600079 137.7835677
 140.7630012 134.3944997 139.9629988 140.6310012 133.9184997 139.1429988
 140.1640012 135.1384997 139.9079988 140.6639071 134.4299618 139.8432886
 133.4770012 142.4624997 131.9559988 133.6610012 142.3804997 131.0199988
 134.3260012 142.3384997 132.3789988 133.6170151 142.4345073 131.8851451
 133.0740012 137.7334997 138.0969988 133.9940012 137.6114997 138.3329988
 132.6250012 136.9834997 138.4859988 133.1391580 137.6153727 138.1819006
 134.2950012 136.0454997 130.9879988 134.7410012 135.2534997 131.2899988
 134.7620012 136.7614997 131.4179988 134.4190831 136.0340685 131.0874006
 132.5990012 139.0444997 132.0569988 133.0910012 138.8234997 131.2659988
 132.9620012 139.8854997 132.3379988 132.7153126 139.1278357 131.9867531
 132.9130012 135.3024997 126.1109988 131.9880012 135.5114997 125.9819988
 133.3670012 135.7864997 125.4209988 132.8477292 135.3965343 126.0000720
 132.8770012 134.0404997 134.4549988 132.2120012 133.7944997 135.0989988
 132.4340012 134.6624997 133.8779988 132.7261318 134.0909410 134.4650898
 143.0260012 134.9134997 130.4639988 142.3520012 134.2844997 130.7199988
 143.5900012 134.4294997 129.8609988 143.0099230 134.7618744 130.4175340
 135.3530012 133.5474997 128.2859988 134.5760012 133.3134997 127.7789988
 135.8830012 132.7504997 128.2949988 135.3182330 133.4076988 128.2177742
 134.1890012 133.3454997 124.0899988 134.6280012 133.9564997 123.4979988
 133.5560012 133.8834997 124.5639988 134.1634514 133.5019257 124.0730930
 139.9320012 133.4744997 128.0999988 140.8070012 133.8624997 128.0699988
 139.7960012 133.2594997 129.0219988 140.0333695 133.4985184 128.2206440
 136.0500012 135.2614997 122.5319988 136.5420012 134.6314997 122.0049988
 136.6740012 135.5574997 123.1949988 136.2015688 135.2153804 122.5495482
 141.0760012 135.5544997 124.9889988 141.2540012 134.9084997 125.6719988
 141.0230012 136.3884997 125.4559988 141.0931999 135.5788009 125.1455917
 135.3110012 134.0614997 137.8039988 134.9450012 133.2964997 138.2459988
 136.2240012 134.0904997 138.0899988 135.3842736 133.9605640 137.9032502
 137.2840012 133.4124997 139.3399988 138.1820012 133.1384997 139.1549988
 136.8970012 132.6694997 139.8039988 137.3546612 133.2745914 139.3773643
  11.2140012   8.4134997 141.5919988  11.9150012   8.4354997 142.2429988
  11.5170012   7.7854997 140.9349988  11.3508133   8.3317070 141.5923369
  13.4370012   9.3274997 143.1899988  14.0170012   9.4774997 143.9369988
  13.8510012   9.7984997 142.4659988  13.5722997   9.4116578 143.1944058
  17.1360012   1.0774997 143.0029988  16.2360012   1.2164997 143.2979988
  17.3880012   1.9084997 142.6009988  17.0468702   1.2089074 142.9890205
  18.3250012  15.4434997 141.3789988  18.3990012  16.3824997 141.5499988
  19.2310012  15.1384997 141.3229988  18.4575100  15.5306722 141.3948119
  13.7380012  18.1744997 142.0419988  14.1130012  17.4304997 141.5709988
  13.7420012  17.9044997 142.9609988  13.7899125  18.0360986 142.1016483
  14.9150012  10.3604997 140.8199988  14.9570012  10.1374997 139.8899988
  15.7640012  10.7594997 141.0089988  15.0355280  10.3839438 140.7183554
  10.4870012   4.2364997 141.4899988  10.2340012   4.2554997 142.4129988
  10.2310012   3.3644997 141.1879988  10.4177481   4.1212558 141.5756175
   7.3700012   4.6814997 140.5909988   6.9390012   4.2364997 141.3209988
   6.6520012   5.0534997 140.0789988   7.2139438   4.6708940 140.6216799
   1.8860012   5.1694997 143.0669988   2.3600012   5.7604997 142.4819988
   1.1690012   5.7004997 143.4139988   1.8539341   5.3220867 143.0338836
   5.9880012   7.4594997 141.9729988   5.4450012   7.0794997 141.2819988
   6.8210012   7.6534997 141.5449988   6.0263631   7.4337125 141.8204501
   9.3230012  12.0244997 143.9089988   8.5780012  11.5174997 143.5869988
   9.1890012  12.0734997 144.8559988   9.2028776  11.9616940 143.9928647
  13.2210012   4.8384997 142.1079988  12.2820012   4.9504997 141.9569988
  13.5180012   5.6954997 142.4149988  13.1327583   4.9695981 142.1288337
  13.9390012   6.7054997 143.7689988  14.8310012   6.5684997 144.0879988
  13.9960012   7.4964997 143.2319988  14.0686504   6.7936052 143.7400818
  11.4490012  13.4834997 142.9349988  11.1530012  14.3094997 143.3159988
  10.7460012  12.8634997 143.1309988  11.3134914  13.5128199 143.0136443
  18.8240012   6.9154997 143.4639988  18.2700012   6.5194997 142.7919988
  18.9240012   7.8254997 143.1859988  18.7617059   6.9843586 143.3344401
  17.1190012  15.7014997 143.9289988  16.7460012  14.8754997 144.2379988
  17.3970012  15.5184997 143.0309988  17.1055222  15.5637430 143.8499473
   2.5780012   9.6994997 141.6699988   3.1940012  10.3264997 142.0499988
   1.7160012  10.0154997 141.9419988   2.5457698   9.8279430 141.7587183
  14.5120012  13.6774997 141.7489988  14.8650012  13.2974997 142.5529988
  13.5630012  13.5844997 141.8359988  14.4320918  13.6128956 141.8708532
  19.0150012  18.1574997 141.9499988  19.7590012  18.7434997 141.8099988
  18.3210012  18.7254997 142.2829988  19.0229899  18.3145798 141.9758778
  15.3780012  12.3504997 143.9759988  15.1000012  11.6224997 144.5319988
  16.3050012  12.4694997 144.1809988  15.4653124  12.2668802 144.0798845
   8.6030012  14.7894997 140.1959988   8.8420012  14.0414997 139.6489988
   8.3340012  14.4014997 141.0289988   8.5993675  14.6346638 140.2336865
   7.5400012  14.3594997 142.6519988   7.6860012  13.8394997 143.4419988
   7.5370012  15.2664997 142.9589988   7.5595792  14.4108842 142.8016117
   3.9930012  11.6124997 143.1629988   3.3070012  11.9644997 143.7299988
   4.5150012  12.3754997 142.9159988   3.9696852  11.7638578 143.2072118
  10.2770012  16.0574997 143.4019988   9.4610012  16.5544997 143.4539988
  10.8070012  16.5324997 142.7619988  10.2369161  16.1897722 143.3225956
   7.6160012  17.1014997 143.3829988   7.7760012  17.9004997 142.8829988
   7.4180012  17.4074997 144.2679988   7.6111637  17.2524020 143.4341144
   6.3500012   3.7984997 142.9989988   6.2670012   4.6874997 143.3459988
   7.2400012   3.5334997 143.2309988   6.4589469   3.8841430 143.0777626
   4.6090012  14.2264997 142.0599988   5.2010012  14.9254997 142.3359988
   5.0680012  13.7934997 141.3399988   4.7521142  14.2637049 142.0004830
   2.9250012   6.8904997 141.1759988   2.8800012   7.8294997 141.3539988
   2.0370012   6.6544997 140.9059988   2.7988574   6.9871892 141.1638912
  10.6410012  16.6524997 140.3349988   9.9970012  16.0214997 140.6559988
  11.4030012  16.1214997 140.1029988  10.6558077  16.4942920 140.3476011
  15.2450012  16.4694997 140.5679988  15.5280012  15.6754997 141.0209988
  15.9850012  16.7024997 140.0079988  15.3838006  16.3923376 140.5542715
   6.2000012  12.3794997 140.4259988   6.2640012  11.5854997 140.9569988
   6.8530012  12.2604997 139.7359988   6.2970241  12.2547148 140.4054317
  11.5520012  13.4264997 140.1619988  11.2830012  13.6064997 141.0629988
  11.3460012  12.5004997 140.0299988  11.4873427  13.3260261 140.2675073
   7.3490012  10.3514997 142.7319988   6.8890012   9.8674997 143.4179988
   7.6040012   9.6834997 142.0959988   7.3204902  10.1948731 142.7399334
   8.4200012   8.5944997 140.9939988   8.2400012   8.4404997 140.0669988
   9.3700012   8.7024997 141.0389988   8.5237776   8.5880175 140.8731843
  17.8100012  10.9494997 140.4399988  17.5360012  10.5244997 139.6269988
  17.8490012  11.8804997 140.2229988  17.7777699  11.0172484 140.2993610
   8.3170012  19.2854997 141.9949988   9.2500012  19.4434997 142.1389988
   8.0530012  19.9604997 141.3709988   8.4089888  19.3984510 141.9302842
   1.8860012  13.9214997 141.4779988   2.8000012  14.0004997 141.7519988
   1.8930012  13.2344997 140.8119988   2.0121131  13.8393961 141.4254393
  18.9310012   9.7724997 142.6299988  18.4090012  10.1294997 141.9109988
  18.8980012  10.4474997 143.3079988  18.8551634   9.9125413 142.6233145
  17.2800012   7.0124997 141.1799988  17.3760012   7.6794997 140.4999988
  17.1400012   6.1964997 140.6989988  17.2742272   6.9935655 141.0218347
  16.5270012   4.4204997 140.2979988  17.1380012   4.0494997 140.9349988
  15.6910012   3.9994997 140.4939988  16.4975032   4.3127554 140.4117035
  18.6400012   3.3054997 141.8399988  19.0520012   2.5844997 141.3649988
  19.3220012   3.9754997 141.8989988  18.7885885   3.2972368 141.7828915
   2.1970012   1.3534997 142.9459988   2.6360012   1.9644997 142.3539988
   1.5640012   1.8914997 143.4199988   2.1714514   1.5099257 142.9290930
   2.0980012  17.3014997 143.8429988   1.4130012  17.2634997 143.1759988
   2.1020012  18.2144997 144.1319988   2.0046998  17.4196733 143.7906771
   4.0580012   3.2694997 141.3879988   4.5500012   2.6394997 140.8609988
   4.6820012   3.5654997 142.0509988   4.2095688   3.2233804 141.4055482
   9.0840012   3.5624997 143.8449988   9.2620012   2.9164997 144.5279988
   9.0310012   4.3964997 144.3119988   9.1011999   3.5868009 144.0015917
  10.9630012  18.5114997 142.2409988  11.8290012  18.8774997 142.0629988
  10.7160012  18.0714997 141.4269988  11.0482392  18.5021756 142.1066289
   3.9160012  18.2214997 140.8689988   3.6490012  18.5084997 141.7419988
   4.6880012  17.6754997 141.0209988   3.9837488  18.1870294 141.0091050
  30.0700012   8.4134997 141.5919988  30.7710012   8.4354997 142.2429988
  30.3730012   7.7854997 140.9349988  30.2068133   8.3317070 141.5923369
  32.2930012   9.3274997 143.1899988  32.8730012   9.4774997 143.9369988
  32.7070012   9.7984997 142.4659988  32.4282997   9.4116578 143.1944058
  35.9920012   1.0774997 143.0029988  35.0920012   1.2164997 143.2979988
  36.2440012   1.9084997 142.6009988  35.9028702   1.2089074 142.9890205
  37.1810012  15.4434997 141.3789988  37.2550012  16.3824997 141.5499988
  38.0870012  15.1384997 141.3229988  37.3135100  15.5306722 141.3948119
  32.5940012  18.1744997 142.0419988  32.9690012  17.4304997 141.5709988
  32.5980012  17.9044997 142.9609988  32.6459125  18.0360986 142.1016483
  33.7710012  10.3604997 140.8199988  33.8130012  10.1374997 139.8899988
  34.6200012  10.7594997 141.0089988  33.8915280  10.3839438 140.7183554
  29.3430012   4.2364997 141.4899988  29.0900012   4.2554997 142.4129988
  29.0870012   3.3644997 141.1879988  29.2737481   4.1212558 141.5756175
  26.2260012   4.6814997 140.5909988  25.7950012   4.2364997 141.3209988
  25.5080012   5.0534997 140.0789988  26.0699438   4.6708940 140.6216799
  20.7420012   5.1694997 143.0669988  21.2160012   5.7604997 142.4819988
  20.0250012   5.7004997 143.4139988  20.7099341   5.3220867 143.0338836
  24.8440012   7.4594997 141.9729988  24.3010012   7.0794997 141.2819988
  25.6770012   7.6534997 141.5449988  24.8823631   7.4337125 141.8204501
  28.1790012  12.0244997 143.9089988  27.4340012  11.5174997 143.5869988
  28.0450012  12.0734997 144.8559988  28.0588776  11.9616940 143.9928647
  32.0770012   4.8384997 142.1079988  31.1380012   4.9504997 141.9569988
  32.3740012   5.6954997 142.4149988  31.9887583   4.9695981 142.1288337
  32.7950012   6.7054997 143.7689988  33.6870012   6.5684997 144.0879988
  32.8520012   7.4964997 143.2319988  32.9246504   6.7936052 143.7400818
  30.3050012  13.4834997 142.9349988  30.0090012  14.3094997 143.3159988
  29.6020012  12.8634997 143.1309988  30.1694914  13.5128199 143.0136443
  37.6800012   6.9154997 143.4639988  37.1260012   6.5194997 142.7919988
  37.7800012   7.8254997 143.1859988  37.6177059   6.9843586 143.3344401
  35.9750012  15.7014997 143.9289988  35.6020012  14.8754997 144.2379988
  36.2530012  15.5184997 143.0309988  35.9615222  15.5637430 143.8499473
  21.4340012   9.6994997 141.6699988  22.0500012  10.3264997 142.0499988
  20.5720012  10.0154997 141.9419988  21.4017698   9.8279430 141.7587183
  33.3680012  13.6774997 141.7489988  33.7210012  13.2974997 142.5529988
  32.4190012  13.5844997 141.8359988  33.2880918  13.6128956 141.8708532
  37.8710012  18.1574997 141.9499988  38.6150012  18.7434997 141.8099988
  37.1770012  18.7254997 142.2829988  37.8789899  18.3145798 141.9758778
  34.2340012  12.3504997 143.9759988  33.9560012  11.6224997 144.5319988
  35.1610012  12.4694997 144.1809988  34.3213124  12.2668802 144.0798845
  27.4590012  14.7894997 140.1959988  27.6980012  14.0414997 139.6489988
  27.1900012  14.4014997 141.0289988  27.4553675  14.6346638 140.2336865
  26.3960012  14.3594997 142.6519988  26.5420012  13.8394997 143.4419988
  26.3930012  15.2664997 142.9589988  26.4155792  14.4108842 142.8016117
  22.8490012  11.6124997 143.1629988  22.1630012  11.9644997 143.7299988
  23.3710012  12.3754997 142.9159988  22.8256852  11.7638578 143.2072118
  29.1330012  16.0574997 143.4019988  28.3170012  16.5544997 143.4539988
  29.6630012  16.5324997 142.7619988  29.0929161  16.1897722 143.3225956
  26.4720012  17.1014997 143.3829988  26.6320012  17.9004997 142.8829988
  26.2740012  17.4074997 144.2679988  26.4671637  17.2524020 143.4341144
  25.2060012   3.7984997 142.9989988  25.1230012   4.6874997 143.3459988
  26.0960012   3.5334997 143.2309988  25.3149469   3.8841430 143.0777626
  23.4650012  14.2264997 142.0599988  24.0570012  14.9254997 142.3359988
  23.9240012  13.7934997 141.3399988  23.6081142  14.2637049 142.0004830
  21.7810012   6.8904997 141.1759988  21.7360012   7.8294997 141.3539988
  20.8930012   6.6544997 140.9059988  21.6548574   6.9871892 141.1638912
  29.4970012  16.6524997 140.3349988  28.8530012  16.0214997 140.6559988
  30.2590012  16.1214997 140.1029988  29.5118077  16.4942920 140.3476011
  34.1010012  16.4694997 140.5679988  34.3840012  15.6754997 141.0209988
  34.8410012  16.7024997 140.0079988  34.2398006  16.3923376 140.5542715
  25.0560012  12.3794997 140.4259988  25.1200012  11.5854997 140.9569988
  25.7090012  12.2604997 139.7359988  25.1530241  12.2547148 140.4054317
  30.4080012  13.4264997 140.1619988  30.1390012  13.6064997 141.0629988
  30.2020012  12.5004997 140.0299988  30.3433427  13.3260261 140.2675073
  26.2050012  10.3514997 142.7319988  25.7450012   9.8674997 143.4179988
  26.4600012   9.6834997 142.0959988  26.1764902  10.1948731 142.7399334
  27.2760012   8.5944997 140.9939988  27.0960012   8.4404997 140.0669988
  28.2260012   8.7024997 141.0389988  27.3797776   8.5880175 140.8731843
  36.6660012  10.9494997 140.4399988  36.3920012  10.5244997 139.6269988
  36.7050012  11.8804997 140.2229988  36.6337699  11.0172484 140.2993610
  27.1730012  19.2854997 141.9949988  28.1060012  19.4434997 142.1389988
  26.9090012  19.9604997 141.3709988  27.2649888  19.3984510 141.9302842
  20.7420012  13.9214997 141.4779988  21.6560012  14.0004997 141.7519988
  20.7490012  13.2344997 140.8119988  20.8681131  13.8393961 141.4254393
  37.7870012   9.7724997 142.6299988  37.2650012  10.1294997 141.9109988
  37.7540012  10.4474997 143.3079988  37.7111634   9.9125413 142.6233145
  36.1360012   7.0124997 141.1799988  36.2320012   7.6794997 140.4999988
  35.9960012   6.1964997 140.6989988  36.1302272   6.9935655 141.0218347
  35.3830012   4.4204997 140.2979988  35.9940012   4.0494997 140.9349988
  34.5470012   3.9994997 140.4939988  35.3535032   4.3127554 140.4117035
  37.4960012   3.3054997 141.8399988  37.9080012   2.5844997 141.3649988
  38.1780012   3.9754997 141.8989988  37.6445885   3.2972368 141.7828915
  21.0530012   1.3534997 142.9459988  21.4920012   1.9644997 142.3539988
  20.4200012   1.8914997 143.4199988  21.0274514   1.5099257 142.9290930
  20.9540012  17.3014997 143.8429988  20.2690012  17.2634997 143.1759988
  20.9580012  18.2144997 144.1319988  20.8606998  17.4196733 143.7906771
  22.9140012   3.2694997 141.3879988  23.4060012   2.6394997 140.8609988
  23.5380012   3.5654997 142.0509988  23.0655688   3.2233804 141.4055482
  27.9400012   3.5624997 143.8449988  28.1180012   2.9164997 144.5279988
  27.8870012   4.3964997 144.3119988  27.9571999   3.5868009 144.0015917
  29.8190012  18.5114997 142.2409988  30.6850012  18.8774997 142.0629988
  29.5720012  18.0714997 141.4269988  29.9042392  18.5021756 142.1066289
  22.7720012  18.2214997 140.8689988  22.5050012  18.5084997 141.7419988
  23.5440012  17.6754997 141.0209988  22.8397488  18.1870294 141.0091050
  48.9260012   8.4134997 141.5919988  49.6270012   8.4354997 142.2429988
  49.2290012   7.7854997 140.9349988  49.0628133   8.3317070 141.5923369
  51.1490012   9.3274997 143.1899988  51.7290012   9.4774997 143.9369988
  51.5630012   9.7984997 142.4659988  51.2842997   9.4116578 143.1944058
  54.8480012   1.0774997 143.0029988  53.9480012   1.2164997 143.2979988
  55.1000012   1.9084997 142.6009988  54.7588702   1.2089074 142.9890205
  56.0370012  15.4434997 141.3789988  56.1110012  16.3824997 141.5499988
  56.9430012  15.1384997 141.3229988  56.1695100  15.5306722 141.3948119
  51.4500012  18.1744997 142.0419988  51.8250012  17.4304997 141.5709988
  51.4540012  17.9044997 142.9609988  51.5019125  18.0360986 142.1016483
  52.6270012  10.3604997 140.8199988  52.6690012  10.1374997 139.8899988
  53.4760012  10.7594997 141.0089988  52.7475280  10.3839438 140.7183554
  48.1990012   4.2364997 141.4899988  47.9460012   4.2554997 142.4129988
  47.9430012   3.3644997 141.1879988  48.1297481   4.1212558 141.5756175
  45.0820012   4.6814997 140.5909988  44.6510012   4.2364997 141.3209988
  44.3640012   5.0534997 140.0789988  44.9259438   4.6708940 140.6216799
  39.5980012   5.1694997 143.0669988  40.0720012   5.7604997 142.4819988
  38.8810012   5.7004997 143.4139988  39.5659341   5.3220867 143.0338836
  43.7000012   7.4594997 141.9729988  43.1570012   7.0794997 141.2819988
  44.5330012   7.6534997 141.5449988  43.7383631   7.4337125 141.8204501
  47.0350012  12.0244997 143.9089988  46.2900012  11.5174997 143.5869988
  46.9010012  12.0734997 144.8559988  46.9148776  11.9616940 143.9928647
  50.9330012   4.8384997 142.1079988  49.9940012   4.9504997 141.9569988
  51.2300012   5.6954997 142.4149988  50.8447583   4.9695981 142.1288337
  51.6510012   6.7054997 143.7689988  52.5430012   6.5684997 144.0879988
  51.7080012   7.4964997 143.2319988  51.7806504   6.7936052 143.7400818
  49.1610012  13.4834997 142.9349988  48.8650012  14.3094997 143.3159988
  48.4580012  12.8634997 143.1309988  49.0254914  13.5128199 143.0136443
  56.5360012   6.9154997 143.4639988  55.9820012   6.5194997 142.7919988
  56.6360012   7.8254997 143.1859988  56.4737059   6.9843586 143.3344401
  54.8310012  15.7014997 143.9289988  54.4580012  14.8754997 144.2379988
  55.1090012  15.5184997 143.0309988  54.8175222  15.5637430 143.8499473
  40.2900012   9.6994997 141.6699988  40.9060012  10.3264997 142.0499988
  39.4280012  10.0154997 141.9419988  40.2577698   9.8279430 141.7587183
  52.2240012  13.6774997 141.7489988  52.5770012  13.2974997 142.5529988
  51.2750012  13.5844997 141.8359988  52.1440918  13.6128956 141.8708532
  56.7270012  18.1574997 141.9499988  57.4710012  18.7434997 141.8099988
  56.0330012  18.7254997 142.2829988  56.7349899  18.3145798 141.9758778
  53.0900012  12.3504997 143.9759988  52.8120012  11.6224997 144.5319988
  54.0170012  12.4694997 144.1809988  53.1773124  12.2668802 144.0798845
  46.3150012  14.7894997 140.1959988  46.5540012  14.0414997 139.6489988
  46.0460012  14.4014997 141.0289988  46.3113675  14.6346638 140.2336865
  45.2520012  14.3594997 142.6519988  45.3980012  13.8394997 143.4419988
  45.2490012  15.2664997 142.9589988  45.2715792  14.4108842 142.8016117
  41.7050012  11.6124997 143.1629988  41.0190012  11.9644997 143.7299988
  42.2270012  12.3754997 142.9159988  41.6816852  11.7638578 143.2072118
  47.9890012  16.0574997 143.4019988  47.1730012  16.5544997 143.4539988
  48.5190012  16.5324997 142.7619988  47.9489161  16.1897722 143.3225956
  45.3280012  17.1014997 143.3829988  45.4880012  17.9004997 142.8829988
  45.1300012  17.4074997 144.2679988  45.3231637  17.2524020 143.4341144
  44.0620012   3.7984997 142.9989988  43.9790012   4.6874997 143.3459988
  44.9520012   3.5334997 143.2309988  44.1709469   3.8841430 143.0777626
  42.3210012  14.2264997 142.0599988  42.9130012  14.9254997 142.3359988
  42.7800012  13.7934997 141.3399988  42.4641142  14.2637049 142.0004830
  40.6370012   6.8904997 141.1759988  40.5920012   7.8294997 141.3539988
  39.7490012   6.6544997 140.9059988  40.5108574   6.9871892 141.1638912
  48.3530012  16.6524997 140.3349988  47.7090012  16.0214997 140.6559988
  49.1150012  16.1214997 140.1029988  48.3678077  16.4942920 140.3476011
  52.9570012  16.4694997 140.5679988  53.2400012  15.6754997 141.0209988
  53.6970012  16.7024997 140.0079988  53.0958006  16.3923376 140.5542715
  43.9120012  12.3794997 140.4259988  43.9760012  11.5854997 140.9569988
  44.5650012  12.2604997 139.7359988  44.0090241  12.2547148 140.4054317
  49.2640012  13.4264997 140.1619988  48.9950012  13.6064997 141.0629988
  49.0580012  12.5004997 140.0299988  49.1993427  13.3260261 140.2675073
  45.0610012  10.3514997 142.7319988  44.6010012   9.8674997 143.4179988
  45.3160012   9.6834997 142.0959988  45.0324902  10.1948731 142.7399334
  46.1320012   8.5944997 140.9939988  45.9520012   8.4404997 140.0669988
  47.0820012   8.7024997 141.0389988  46.2357776   8.5880175 140.8731843
  55.5220012  10.9494997 140.4399988  55.2480012  10.5244997 139.6269988
  55.5610012  11.8804997 140.2229988  55.4897699  11.0172484 140.2993610
  46.0290012  19.2854997 141.9949988  46.9620012  19.4434997 142.1389988
  45.7650012  19.9604997 141.3709988  46.1209888  19.3984510 141.9302842
  39.5980012  13.9214997 141.4779988  40.5120012  14.0004997 141.7519988
  39.6050012  13.2344997 140.8119988  39.7241131  13.8393961 141.4254393
  56.6430012   9.7724997 142.6299988  56.1210012  10.1294997 141.9109988
  56.6100012  10.4474997 143.3079988  56.5671634   9.9125413 142.6233145
  54.9920012   7.0124997 141.1799988  55.0880012   7.6794997 140.4999988
  54.8520012   6.1964997 140.6989988  54.9862272   6.9935655 141.0218347
  54.2390012   4.4204997 140.2979988  54.8500012   4.0494997 140.9349988
  53.4030012   3.9994997 140.4939988  54.2095032   4.3127554 140.4117035
  56.3520012   3.3054997 141.8399988  56.7640012   2.5844997 141.3649988
  57.0340012   3.9754997 141.8989988  56.5005885   3.2972368 141.7828915
  39.9090012   1.3534997 142.9459988  40.3480012   1.9644997 142.3539988
  39.2760012   1.8914997 143.4199988  39.8834514   1.5099257 142.9290930
  39.8100012  17.3014997 143.8429988  39.1250012  17.2634997 143.1759988
  39.8140012  18.2144997 144.1319988  39.7166998  17.4196733 143.7906771
  41.7700012   3.2694997 141.3879988  42.2620012   2.6394997 140.8609988
  42.3940012   3.5654997 142.0509988  41.9215688   3.2233804 141.4055482
  46.7960012   3.5624997 143.8449988  46.9740012   2.9164997 144.5279988
  46.7430012   4.3964997 144.3119988  46.8131999   3.5868009 144.0015917
  48.6750012  18.5114997 142.2409988  49.5410012  18.8774997 142.0629988
  48.4280012  18.0714997 141.4269988  48.7602392  18.5021756 142.1066289
  41.6280012  18.2214997 140.8689988  41.3610012  18.5084997 141.7419988
  42.4000012  17.6754997 141.0209988  41.6957488  18.1870294 141.0091050
  67.7820012   8.4134997 141.5919988  68.4830012   8.4354997 142.2429988
  68.0850012   7.7854997 140.9349988  67.9188133   8.3317070 141.5923369
  70.0050012   9.3274997 143.1899988  70.5850012   9.4774997 143.9369988
  70.4190012   9.7984997 142.4659988  70.1402997   9.4116578 143.1944058
  73.7040012   1.0774997 143.0029988  72.8040012   1.2164997 143.2979988
  73.9560012   1.9084997 142.6009988  73.6148702   1.2089074 142.9890205
  74.8930012  15.4434997 141.3789988  74.9670012  16.3824997 141.5499988
  75.7990012  15.1384997 141.3229988  75.0255100  15.5306722 141.3948119
  70.3060012  18.1744997 142.0419988  70.6810012  17.4304997 141.5709988
  70.3100012  17.9044997 142.9609988  70.3579125  18.0360986 142.1016483
  71.4830012  10.3604997 140.8199988  71.5250012  10.1374997 139.8899988
  72.3320012  10.7594997 141.0089988  71.6035280  10.3839438 140.7183554
  67.0550012   4.2364997 141.4899988  66.8020012   4.2554997 142.4129988
  66.7990012   3.3644997 141.1879988  66.9857481   4.1212558 141.5756175
  63.9380012   4.6814997 140.5909988  63.5070012   4.2364997 141.3209988
  63.2200012   5.0534997 140.0789988  63.7819438   4.6708940 140.6216799
  58.4540012   5.1694997 143.0669988  58.9280012   5.7604997 142.4819988
  57.7370012   5.7004997 143.4139988  58.4219341   5.3220867 143.0338836
  62.5560012   7.4594997 141.9729988  62.0130012   7.0794997 141.2819988
  63.3890012   7.6534997 141.5449988  62.5943631   7.4337125 141.8204501
  65.8910012  12.0244997 143.9089988  65.1460012  11.5174997 143.5869988
  65.7570012  12.0734997 144.8559988  65.7708776  11.9616940 143.9928647
  69.7890012   4.8384997 142.1079988  68.8500012   4.9504997 141.9569988
  70.0860012   5.6954997 142.4149988  69.7007583   4.9695981 142.1288337
  70.5070012   6.7054997 143.7689988  71.3990012   6.5684997 144.0879988
  70.5640012   7.4964997 143.2319988  70.6366504   6.7936052 143.7400818
  68.0170012  13.4834997 142.9349988  67.7210012  14.3094997 143.3159988
  67.3140012  12.8634997 143.1309988  67.8814914  13.5128199 143.0136443
  75.3920012   6.9154997 143.4639988  74.8380012   6.5194997 142.7919988
  75.4920012   7.8254997 143.1859988  75.3297059   6.9843586 143.3344401
  73.6870012  15.7014997 143.9289988  73.3140012  14.8754997 144.2379988
  73.9650012  15.5184997 143.0309988  73.6735222  15.5637430 143.8499473
  59.1460012   9.6994997 141.6699988  59.7620012  10.3264997 142.0499988
  58.2840012  10.0154997 141.9419988  59.1137698   9.8279430 141.7587183
  71.0800012  13.6774997 141.7489988  71.4330012  13.2974997 142.5529988
  70.1310012  13.5844997 141.8359988  71.0000918  13.6128956 141.8708532
  75.5830012  18.1574997 141.9499988  76.3270012  18.7434997 141.8099988
  74.8890012  18.7254997 142.2829988  75.5909899  18.3145798 141.9758778
  71.9460012  12.3504997 143.9759988  71.6680012  11.6224997 144.5319988
  72.8730012  12.4694997 144.1809988  72.0333124  12.2668802 144.0798845
  65.1710012  14.7894997 140.1959988  65.4100012  14.0414997 139.6489988
  64.9020012  14.4014997 141.0289988  65.1673675  14.6346638 140.2336865
  64.1080012  14.3594997 142.6519988  64.2540012  13.8394997 143.4419988
  64.1050012  15.2664997 142.9589988  64.1275792  14.4108842 142.8016117
  60.5610012  11.6124997 143.1629988  59.8750012  11.9644997 143.7299988
  61.0830012  12.3754997 142.9159988  60.5376852  11.7638578 143.2072118
  66.8450012  16.0574997 143.4019988  66.0290012  16.5544997 143.4539988
  67.3750012  16.5324997 142.7619988  66.8049161  16.1897722 143.3225956
  64.1840012  17.1014997 143.3829988  64.3440012  17.9004997 142.8829988
  63.9860012  17.4074997 144.2679988  64.1791637  17.2524020 143.4341144
  62.9180012   3.7984997 142.9989988  62.8350012   4.6874997 143.3459988
  63.8080012   3.5334997 143.2309988  63.0269469   3.8841430 143.0777626
  61.1770012  14.2264997 142.0599988  61.7690012  14.9254997 142.3359988
  61.6360012  13.7934997 141.3399988  61.3201142  14.2637049 142.0004830
  59.4930012   6.8904997 141.1759988  59.4480012   7.8294997 141.3539988
  58.6050012   6.6544997 140.9059988  59.3668574   6.9871892 141.1638912
  67.2090012  16.6524997 140.3349988  66.5650012  16.0214997 140.6559988
  67.9710012  16.1214997 140.1029988  67.2238077  16.4942920 140.3476011
  71.8130012  16.4694997 140.5679988  72.0960012  15.6754997 141.0209988
  72.5530012  16.7024997 140.0079988  71.9518006  16.3923376 140.5542715
  62.7680012  12.3794997 140.4259988  62.8320012  11.5854997 140.9569988
  63.4210012  12.2604997 139.7359988  62.8650241  12.2547148 140.4054317
  68.1200012  13.4264997 140.1619988  67.8510012  13.6064997 141.0629988
  67.9140012  12.5004997 140.0299988  68.0553427  13.3260261 140.2675073
  63.9170012  10.3514997 142.7319988  63.4570012   9.8674997 143.4179988
  64.1720012   9.6834997 142.0959988  63.8884902  10.1948731 142.7399334
  64.9880012   8.5944997 140.9939988  64.8080012   8.4404997 140.0669988
  65.9380012   8.7024997 141.0389988  65.0917776   8.5880175 140.8731843
  74.3780012  10.9494997 140.4399988  74.1040012  10.5244997 139.6269988
  74.4170012  11.8804997 140.2229988  74.3457699  11.0172484 140.2993610
  64.8850012  19.2854997 141.9949988  65.8180012  19.4434997 142.1389988
  64.6210012  19.9604997 141.3709988  64.9769888  19.3984510 141.9302842
  58.4540012  13.9214997 141.4779988  59.3680012  14.0004997 141.7519988
  58.4610012  13.2344997 140.8119988  58.5801131  13.8393961 141.4254393
  75.4990012   9.7724997 142.6299988  74.9770012  10.1294997 141.9109988
  75.4660012  10.4474997 143.3079988  75.4231634   9.9125413 142.6233145
  73.8480012   7.0124997 141.1799988  73.9440012   7.6794997 140.4999988
  73.7080012   6.1964997 140.6989988  73.8422272   6.9935655 141.0218347
  73.0950012   4.4204997 140.2979988  73.7060012   4.0494997 140.9349988
  72.2590012   3.9994997 140.4939988  73.0655032   4.3127554 140.4117035
  75.2080012   3.3054997 141.8399988  75.6200012   2.5844997 141.3649988
  75.8900012   3.9754997 141.8989988  75.3565885   3.2972368 141.7828915
  58.7650012   1.3534997 142.9459988  59.2040012   1.9644997 142.3539988
  58.1320012   1.8914997 143.4199988  58.7394514   1.5099257 142.9290930
  58.6660012  17.3014997 143.8429988  57.9810012  17.2634997 143.1759988
  58.6700012  18.2144997 144.1319988  58.5726998  17.4196733 143.7906771
  60.6260012   3.2694997 141.3879988  61.1180012   2.6394997 140.8609988
  61.2500012   3.5654997 142.0509988  60.7775688   3.2233804 141.4055482
  65.6520012   3.5624997 143.8449988  65.8300012   2.9164997 144.5279988
  65.5990012   4.3964997 144.3119988  65.6691999   3.5868009 144.0015917
  67.5310012  18.5114997 142.2409988  68.3970012  18.8774997 142.0629988
  67.2840012  18.0714997 141.4269988  67.6162392  18.5021756 142.1066289
  60.4840012  18.2214997 140.8689988  60.2170012  18.5084997 141.7419988
  61.2560012  17.6754997 141.0209988  60.5517488  18.1870294 141.0091050
  86.6380012   8.4134997 141.5919988  87.3390012   8.4354997 142.2429988
  86.9410012   7.7854997 140.9349988  86.7748133   8.3317070 141.5923369
  88.8610012   9.3274997 143.1899988  89.4410012   9.4774997 143.9369988
  89.2750012   9.7984997 142.4659988  88.9962997   9.4116578 143.1944058
  92.5600012   1.0774997 143.0029988  91.6600012   1.2164997 143.2979988
  92.8120012   1.9084997 142.6009988  92.4708702   1.2089074 142.9890205
  93.7490012  15.4434997 141.3789988  93.8230012  16.3824997 141.5499988
  94.6550012  15.1384997 141.3229988  93.8815100  15.5306722 141.3948119
  89.1620012  18.1744997 142.0419988  89.5370012  17.4304997 141.5709988
  89.1660012  17.9044997 142.9609988  89.2139125  18.0360986 142.1016483
  90.3390012  10.3604997 140.8199988  90.3810012  10.1374997 139.8899988
  91.1880012  10.7594997 141.0089988  90.4595280  10.3839438 140.7183554
  85.9110012   4.2364997 141.4899988  85.6580012   4.2554997 142.4129988
  85.6550012   3.3644997 141.1879988  85.8417481   4.1212558 141.5756175
  82.7940012   4.6814997 140.5909988  82.3630012   4.2364997 141.3209988
  82.0760012   5.0534997 140.0789988  82.6379438   4.6708940 140.6216799
  77.3100012   5.1694997 143.0669988  77.7840012   5.7604997 142.4819988
  76.5930012   5.7004997 143.4139988  77.2779341   5.3220867 143.0338836
  81.4120012   7.4594997 141.9729988  80.8690012   7.0794997 141.2819988
  82.2450012   7.6534997 141.5449988  81.4503631   7.4337125 141.8204501
  84.7470012  12.0244997 143.9089988  84.0020012  11.5174997 143.5869988
  84.6130012  12.0734997 144.8559988  84.6268776  11.9616940 143.9928647
  88.6450012   4.8384997 142.1079988  87.7060012   4.9504997 141.9569988
  88.9420012   5.6954997 142.4149988  88.5567583   4.9695981 142.1288337
  89.3630012   6.7054997 143.7689988  90.2550012   6.5684997 144.0879988
  89.4200012   7.4964997 143.2319988  89.4926504   6.7936052 143.7400818
  86.8730012  13.4834997 142.9349988  86.5770012  14.3094997 143.3159988
  86.1700012  12.8634997 143.1309988  86.7374914  13.5128199 143.0136443
  94.2480012   6.9154997 143.4639988  93.6940012   6.5194997 142.7919988
  94.3480012   7.8254997 143.1859988  94.1857059   6.9843586 143.3344401
  92.5430012  15.7014997 143.9289988  92.1700012  14.8754997 144.2379988
  92.8210012  15.5184997 143.0309988  92.5295222  15.5637430 143.8499473
  78.0020012   9.6994997 141.6699988  78.6180012  10.3264997 142.0499988
  77.1400012  10.0154997 141.9419988  77.9697698   9.8279430 141.7587183
  89.9360012  13.6774997 141.7489988  90.2890012  13.2974997 142.5529988
  88.9870012  13.5844997 141.8359988  89.8560918  13.6128956 141.8708532
  94.4390012  18.1574997 141.9499988  95.1830012  18.7434997 141.8099988
  93.7450012  18.7254997 142.2829988  94.4469899  18.3145798 141.9758778
  90.8020012  12.3504997 143.9759988  90.5240012  11.6224997 144.5319988
  91.7290012  12.4694997 144.1809988  90.8893124  12.2668802 144.0798845
  84.0270012  14.7894997 140.1959988  84.2660012  14.0414997 139.6489988
  83.7580012  14.4014997 141.0289988  84.0233675  14.6346638 140.2336865
  82.9640012  14.3594997 142.6519988  83.1100012  13.8394997 143.4419988
  82.9610012  15.2664997 142.9589988  82.9835792  14.4108842 142.8016117
  79.4170012  11.6124997 143.1629988  78.7310012  11.9644997 143.7299988
  79.9390012  12.3754997 142.9159988  79.3936852  11.7638578 143.2072118
  85.7010012  16.0574997 143.4019988  84.8850012  16.5544997 143.4539988
  86.2310012  16.5324997 142.7619988  85.6609161  16.1897722 143.3225956
  83.0400012  17.1014997 143.3829988  83.2000012  17.9004997 142.8829988
  82.8420012  17.4074997 144.2679988  83.0351637  17.2524020 143.4341144
  81.7740012   3.7984997 142.9989988  81.6910012   4.6874997 143.3459988
  82.6640012   3.5334997 143.2309988  81.8829469   3.8841430 143.0777626
  80.0330012  14.2264997 142.0599988  80.6250012  14.9254997 142.3359988
  80.4920012  13.7934997 141.3399988  80.1761142  14.2637049 142.0004830
  78.3490012   6.8904997 141.1759988  78.3040012   7.8294997 141.3539988
  77.4610012   6.6544997 140.9059988  78.2228574   6.9871892 141.1638912
  86.0650012  16.6524997 140.3349988  85.4210012  16.0214997 140.6559988
  86.8270012  16.1214997 140.1029988  86.0798077  16.4942920 140.3476011
  90.6690012  16.4694997 140.5679988  90.9520012  15.6754997 141.0209988
  91.4090012  16.7024997 140.0079988  90.8078006  16.3923376 140.5542715
  81.6240012  12.3794997 140.4259988  81.6880012  11.5854997 140.9569988
  82.2770012  12.2604997 139.7359988  81.7210241  12.2547148 140.4054317
  86.9760012  13.4264997 140.1619988  86.7070012  13.6064997 141.0629988
  86.7700012  12.5004997 140.0299988  86.9113427  13.3260261 140.2675073
  82.7730012  10.3514997 142.7319988  82.3130012   9.8674997 143.4179988
  83.0280012   9.6834997 142.0959988  82.7444902  10.1948731 142.7399334
  83.8440012   8.5944997 140.9939988  83.6640012   8.4404997 140.0669988
  84.7940012   8.7024997 141.0389988  83.9477776   8.5880175 140.8731843
  93.2340012  10.9494997 140.4399988  92.9600012  10.5244997 139.6269988
  93.2730012  11.8804997 140.2229988  93.2017699  11.0172484 140.2993610
  83.7410012  19.2854997 141.9949988  84.6740012  19.4434997 142.1389988
  83.4770012  19.9604997 141.3709988  83.8329888  19.3984510 141.9302842
  77.3100012  13.9214997 141.4779988  78.2240012  14.0004997 141.7519988
  77.3170012  13.2344997 140.8119988  77.4361131  13.8393961 141.4254393
  94.3550012   9.7724997 142.6299988  93.8330012  10.1294997 141.9109988
  94.3220012  10.4474997 143.3079988  94.2791634   9.9125413 142.6233145
  92.7040012   7.0124997 141.1799988  92.8000012   7.6794997 140.4999988
  92.5640012   6.1964997 140.6989988  92.6982272   6.9935655 141.0218347
  91.9510012   4.4204997 140.2979988  92.5620012   4.0494997 140.9349988
  91.1150012   3.9994997 140.4939988  91.9215032   4.3127554 140.4117035
  94.0640012   3.3054997 141.8399988  94.4760012   2.5844997 141.3649988
  94.7460012   3.9754997 141.8989988  94.2125885   3.2972368 141.7828915
  77.6210012   1.3534997 142.9459988  78.0600012   1.9644997 142.3539988
  76.9880012   1.8914997 143.4199988  77.5954514   1.5099257 142.9290930
  77.5220012  17.3014997 143.8429988  76.8370012  17.2634997 143.1759988
  77.5260012  18.2144997 144.1319988  77.4286998  17.4196733 143.7906771
  79.4820012   3.2694997 141.3879988  79.9740012   2.6394997 140.8609988
  80.1060012   3.5654997 142.0509988  79.6335688   3.2233804 141.4055482
  84.5080012   3.5624997 143.8449988  84.6860012   2.9164997 144.5279988
  84.4550012   4.3964997 144.3119988  84.5251999   3.5868009 144.0015917
  86.3870012  18.5114997 142.2409988  87.2530012  18.8774997 142.0629988
  86.1400012  18.0714997 141.4269988  86.4722392  18.5021756 142.1066289
  79.3400012  18.2214997 140.8689988  79.0730012  18.5084997 141.7419988
  80.1120012  17.6754997 141.0209988  79.4077488  18.1870294 141.0091050
 105.4940012   8.4134997 141.5919988 106.1950012   8.4354997 142.2429988
 105.7970012   7.7854997 140.9349988 105.6308133   8.3317070 141.5923369
 107.7170012   9.3274997 143.1899988 108.2970012   9.4774997 143.9369988
 108.1310012   9.7984997 142.4659988 107.8522997   9.4116578 143.1944058
 111.4160012   1.0774997 143.0029988 110.5160012   1.2164997 143.2979988
 111.6680012   1.9084997 142.6009988 111.3268702   1.2089074 142.9890205
 112.6050012  15.4434997 141.3789988 112.6790012  16.3824997 141.5499988
 113.5110012  15.1384997 141.3229988 112.7375100  15.5306722 141.3948119
 108.0180012  18.1744997 142.0419988 108.3930012  17.4304997 141.5709988
 108.0220012  17.9044997 142.9609988 108.0699125  18.0360986 142.1016483
 109.1950012  10.3604997 140.8199988 109.2370012  10.1374997 139.8899988
 110.0440012  10.7594997 141.0089988 109.3155280  10.3839438 140.7183554
 104.7670012   4.2364997 141.4899988 104.5140012   4.2554997 142.4129988
 104.5110012   3.3644997 141.1879988 104.6977481   4.1212558 141.5756175
 101.6500012   4.6814997 140.5909988 101.2190012   4.2364997 141.3209988
 100.9320012   5.0534997 140.0789988 101.4939438   4.6708940 140.6216799
  96.1660012   5.1694997 143.0669988  96.6400012   5.7604997 142.4819988
  95.4490012   5.7004997 143.4139988  96.1339341   5.3220867 143.0338836
 100.2680012   7.4594997 141.9729988  99.7250012   7.0794997 141.2819988
 101.1010012   7.6534997 141.5449988 100.3063631   7.4337125 141.8204501
 103.6030012  12.0244997 143.9089988 102.8580012  11.5174997 143.5869988
 103.4690012  12.0734997 144.8559988 103.4828776  11.9616940 143.9928647
 107.5010012   4.8384997 142.1079988 106.5620012   4.9504997 141.9569988
 107.7980012   5.6954997 142.4149988 107.4127583   4.9695981 142.1288337
 108.2190012   6.7054997 143.7689988 109.1110012   6.5684997 144.0879988
 108.2760012   7.4964997 143.2319988 108.3486504   6.7936052 143.7400818
 105.7290012  13.4834997 142.9349988 105.4330012  14.3094997 143.3159988
 105.0260012  12.8634997 143.1309988 105.5934914  13.5128199 143.0136443
 113.1040012   6.9154997 143.4639988 112.5500012   6.5194997 142.7919988
 113.2040012   7.8254997 143.1859988 113.0417059   6.9843586 143.3344401
 111.3990012  15.7014997 143.9289988 111.0260012  14.8754997 144.2379988
 111.6770012  15.5184997 143.0309988 111.3855222  15.5637430 143.8499473
  96.8580012   9.6994997 141.6699988  97.4740012  10.3264997 142.0499988
  95.9960012  10.0154997 141.9419988  96.8257698   9.8279430 141.7587183
 108.7920012  13.6774997 141.7489988 109.1450012  13.2974997 142.5529988
 107.8430012  13.5844997 141.8359988 108.7120918  13.6128956 141.8708532
 113.2950012  18.1574997 141.9499988 114.0390012  18.7434997 141.8099988
 112.6010012  18.7254997 142.2829988 113.3029899  18.3145798 141.9758778
 109.6580012  12.3504997 143.9759988 109.3800012  11.6224997 144.5319988
 110.5850012  12.4694997 144.1809988 109.7453124  12.2668802 144.0798845
 102.8830012  14.7894997 140.1959988 103.1220012  14.0414997 139.6489988
 102.6140012  14.4014997 141.0289988 102.8793675  14.6346638 140.2336865
 101.8200012  14.3594997 142.6519988 101.9660012  13.8394997 143.4419988
 101.8170012  15.2664997 142.9589988 101.8395792  14.4108842 142.8016117
  98.2730012  11.6124997 143.1629988  97.5870012  11.9644997 143.7299988
  98.7950012  12.3754997 142.9159988  98.2496852  11.7638578 143.2072118
 104.5570012  16.0574997 143.4019988 103.7410012  16.5544997 143.4539988
 105.0870012  16.5324997 142.7619988 104.5169161  16.1897722 143.3225956
 101.8960012  17.1014997 143.3829988 102.0560012  17.9004997 142.8829988
 101.6980012  17.4074997 144.2679988 101.8911637  17.2524020 143.4341144
 100.6300012   3.7984997 142.9989988 100.5470012   4.6874997 143.3459988
 101.5200012   3.5334997 143.2309988 100.7389469   3.8841430 143.0777626
  98.8890012  14.2264997 142.0599988  99.4810012  14.9254997 142.3359988
  99.3480012  13.7934997 141.3399988  99.0321142  14.2637049 142.0004830
  97.2050012   6.8904997 141.1759988  97.1600012   7.8294997 141.3539988
  96.3170012   6.6544997 140.9059988  97.0788574   6.9871892 141.1638912
 104.9210012  16.6524997 140.3349988 104.2770012  16.0214997 140.6559988
 105.6830012  16.1214997 140.1029988 104.9358077  16.4942920 140.3476011
 109.5250012  16.4694997 140.5679988 109.8080012  15.6754997 141.0209988
 110.2650012  16.7024997 140.0079988 109.6638006  16.3923376 140.5542715
 100.4800012  12.3794997 140.4259988 100.5440012  11.5854997 140.9569988
 101.1330012  12.2604997 139.7359988 100.5770241  12.2547148 140.4054317
 105.8320012  13.4264997 140.1619988 105.5630012  13.6064997 141.0629988
 105.6260012  12.5004997 140.0299988 105.7673427  13.3260261 140.2675073
 101.6290012  10.3514997 142.7319988 101.1690012   9.8674997 143.4179988
 101.8840012   9.6834997 142.0959988 101.6004902  10.1948731 142.7399334
 102.7000012   8.5944997 140.9939988 102.5200012   8.4404997 140.0669988
 103.6500012   8.7024997 141.0389988 102.8037776   8.5880175 140.8731843
 112.0900012  10.9494997 140.4399988 111.8160012  10.5244997 139.6269988
 112.1290012  11.8804997 140.2229988 112.0577699  11.0172484 140.2993610
 102.5970012  19.2854997 141.9949988 103.5300012  19.4434997 142.1389988
 102.3330012  19.9604997 141.3709988 102.6889888  19.3984510 141.9302842
  96.1660012  13.9214997 141.4779988  97.0800012  14.0004997 141.7519988
  96.1730012  13.2344997 140.8119988  96.2921131  13.8393961 141.4254393
 113.2110012   9.7724997 142.6299988 112.6890012  10.1294997 141.9109988
 113.1780012  10.4474997 143.3079988 113.1351634   9.9125413 142.6233145
 111.5600012   7.0124997 141.1799988 111.6560012   7.6794997 140.4999988
 111.4200012   6.1964997 140.6989988 111.5542272   6.9935655 141.0218347
 110.8070012   4.4204997 140.2979988 111.4180012   4.0494997 140.9349988
 109.9710012   3.9994997 140.4939988 110.7775032   4.3127554 140.4117035
 112.9200012   3.3054997 141.8399988 113.3320012   2.5844997 141.3649988
 113.6020012   3.9754997 141.8989988 113.0685885   3.2972368 141.7828915
  96.4770012   1.3534997 142.9459988  96.9160012   1.9644997 142.3539988
  95.8440012   1.8914997 143.4199988  96.4514514   1.5099257 142.9290930
  96.3780012  17.3014997 143.8429988  95.6930012  17.2634997 143.1759988
  96.3820012  18.2144997 144.1319988  96.2846998  17.4196733 143.7906771
  98.3380012   3.2694997 141.3879988  98.8300012   2.6394997 140.8609988
  98.9620012   3.5654997 142.0509988  98.4895688   3.2233804 141.4055482
 103.3640012   3.5624997 143.8449988 103.5420012   2.9164997 144.5279988
 103.3110012   4.3964997 144.3119988 103.3811999   3.5868009 144.0015917
 105.2430012  18.5114997 142.2409988 106.1090012  18.8774997 142.0629988
 104.9960012  18.0714997 141.4269988 105.3282392  18.5021756 142.1066289
  98.1960012  18.2214997 140.8689988  97.9290012  18.5084997 141.7419988
  98.9680012  17.6754997 141.0209988  98.2637488  18.1870294 141.0091050
 124.3500012   8.4134997 141.5919988 125.0510012   8.4354997 142.2429988
 124.6530012   7.7854997 140.9349988 124.4868133   8.3317070 141.5923369
 126.5730012   9.3274997 143.1899988 127.1530012   9.4774997 143.9369988
 126.9870012   9.7984997 142.4659988 126.7082997   9.4116578 143.1944058
 130.2720012   1.0774997 143.0029988 129.3720012   1.2164997 143.2979988
 130.5240012   1.9084997 142.6009988 130.1828702   1.2089074 142.9890205
 131.4610012  15.4434997 141.3789988 131.5350012  16.3824997 141.5499988
 132.3670012  15.1384997 141.3229988 131.5935100  15.5306722 141.3948119
 126.8740012  18.1744997 142.0419988 127.2490012  17.4304997 141.5709988
 126.8780012  17.9044997 142.9609988 126.9259125  18.0360986 142.1016483
 128.0510012  10.3604997 140.8199988 128.0930012  10.1374997 139.8899988
 128.9000012  10.7594997 141.0089988 128.1715280  10.3839438 140.7183554
 123.6230012   4.2364997 141.4899988 123.3700012   4.2554997 142.4129988
 123.3670012   3.3644997 141.1879988 123.5537481   4.1212558 141.5756175
 120.5060012   4.6814997 140.5909988 120.0750012   4.2364997 141.3209988
 119.7880012   5.0534997 140.0789988 120.3499438   4.6708940 140.6216799
 115.0220012   5.1694997 143.0669988 115.4960012   5.7604997 142.4819988
 114.3050012   5.7004997 143.4139988 114.9899341   5.3220867 143.0338836
 119.1240012   7.4594997 141.9729988 118.5810012   7.0794997 141.2819988
 119.9570012   7.6534997 141.5449988 119.1623631   7.4337125 141.8204501
 122.4590012  12.0244997 143.9089988 121.7140012  11.5174997 143.5869988
 122.3250012  12.0734997 144.8559988 122.3388776  11.9616940 143.9928647
 126.3570012   4.8384997 142.1079988 125.4180012   4.9504997 141.9569988
 126.6540012   5.6954997 142.4149988 126.2687583   4.9695981 142.1288337
 127.0750012   6.7054997 143.7689988 127.9670012   6.5684997 144.0879988
 127.1320012   7.4964997 143.2319988 127.2046504   6.7936052 143.7400818
 124.5850012  13.4834997 142.9349988 124.2890012  14.3094997 143.3159988
 123.8820012  12.8634997 143.1309988 124.4494914  13.5128199 143.0136443
 131.9600012   6.9154997 143.4639988 131.4060012   6.5194997 142.7919988
 132.0600012   7.8254997 143.1859988 131.8977059   6.9843586 143.3344401
 130.2550012  15.7014997 143.9289988 129.8820012  14.8754997 144.2379988
 130.5330012  15.5184997 143.0309988 130.2415222  15.5637430 143.8499473
 115.7140012   9.6994997 141.6699988 116.3300012  10.3264997 142.0499988
 114.8520012  10.0154997 141.9419988 115.6817698   9.8279430 141.7587183
 127.6480012  13.6774997 141.7489988 128.0010012  13.2974997 142.5529988
 126.6990012  13.5844997 141.8359988 127.5680918  13.6128956 141.8708532
 132.1510012  18.1574997 141.9499988 132.8950012  18.7434997 141.8099988
 131.4570012  18.7254997 142.2829988 132.1589899  18.3145798 141.9758778
 128.5140012  12.3504997 143.9759988 128.2360012  11.6224997 144.5319988
 129.4410012  12.4694997 144.1809988 128.6013124  12.2668802 144.0798845
 121.7390012  14.7894997 140.1959988 121.9780012  14.0414997 139.6489988
 121.4700012  14.4014997 141.0289988 121.7353675  14.6346638 140.2336865
 120.6760012  14.3594997 142.6519988 120.8220012  13.8394997 143.4419988
 120.6730012  15.2664997 142.9589988 120.6955792  14.4108842 142.8016117
 117.1290012  11.6124997 143.1629988 116.4430012  11.9644997 143.7299988
 117.6510012  12.3754997 142.9159988 117.1056852  11.7638578 143.2072118
 123.4130012  16.0574997 143.4019988 122.5970012  16.5544997 143.4539988
 123.9430012  16.5324997 142.7619988 123.3729161  16.1897722 143.3225956
 120.7520012  17.1014997 143.3829988 120.9120012  17.9004997 142.8829988
 120.5540012  17.4074997 144.2679988 120.7471637  17.2524020 143.4341144
 119.4860012   3.7984997 142.9989988 119.4030012   4.6874997 143.3459988
 120.3760012   3.5334997 143.2309988 119.5949469   3.8841430 143.0777626
 117.7450012  14.2264997 142.0599988 118.3370012  14.9254997 142.3359988
 118.2040012  13.7934997 141.3399988 117.8881142  14.2637049 142.0004830
 116.0610012   6.8904997 141.1759988 116.0160012   7.8294997 141.3539988
 115.1730012   6.6544997 140.9059988 115.9348574   6.9871892 141.1638912
 123.7770012  16.6524997 140.3349988 123.1330012  16.0214997 140.6559988
 124.5390012  16.1214997 140.1029988 123.7918077  16.4942920 140.3476011
 128.3810012  16.4694997 140.5679988 128.6640012  15.6754997 141.0209988
 129.1210012  16.7024997 140.0079988 128.5198006  16.3923376 140.5542715
 119.3360012  12.3794997 140.4259988 119.4000012  11.5854997 140.9569988
 119.9890012  12.2604997 139.7359988 119.4330241  12.2547148 140.4054317
 124.6880012  13.4264997 140.1619988 124.4190012  13.6064997 141.0629988
 124.4820012  12.5004997 140.0299988 124.6233427  13.3260261 140.2675073
 120.4850012  10.3514997 142.7319988 120.0250012   9.8674997 143.4179988
 120.7400012   9.6834997 142.0959988 120.4564902  10.1948731 142.7399334
 121.5560012   8.5944997 140.9939988 121.3760012   8.4404997 140.0669988
 122.5060012   8.7024997 141.0389988 121.6597776   8.5880175 140.8731843
 130.9460012  10.9494997 140.4399988 130.6720012  10.5244997 139.6269988
 130.9850012  11.8804997 140.2229988 130.9137699  11.0172484 140.2993610
 121.4530012  19.2854997 141.9949988 122.3860012  19.4434997 142.1389988
 121.1890012  19.9604997 141.3709988 121.5449888  19.3984510 141.9302842
 115.0220012  13.9214997 141.4779988 115.9360012  14.0004997 141.7519988
 115.0290012  13.2344997 140.8119988 115.1481131  13.8393961 141.4254393
 132.0670012   9.7724997 142.6299988 131.5450012  10.1294997 141.9109988
 132.0340012  10.4474997 143.3079988 131.9911634   9.9125413 142.6233145
 130.4160012   7.0124997 141.1799988 130.5120012   7.6794997 140.4999988
 130.2760012   6.1964997 140.6989988 130.4102272   6.9935655 141.0218347
 129.6630012   4.4204997 140.2979988 130.2740012   4.0494997 140.9349988
 128.8270012   3.9994997 140.4939988 129.6335032   4.3127554 140.4117035
 131.7760012   3.3054997 141.8399988 132.1880012   2.5844997 141.3649988
 132.4580012   3.9754997 141.8989988 131.9245885   3.2972368 141.7828915
 115.3330012   1.3534997 142.9459988 115.7720012   1.9644997 142.3539988
 114.7000012   1.8914997 143.4199988 115.3074514   1.5099257 142.9290930
 115.2340012  17.3014997 143.8429988 114.5490012  17.2634997 143.1759988
 115.2380012  18.2144997 144.1319988 115.1406998  17.4196733 143.7906771
 117.1940012   3.2694997 141.3879988 117.6860012   2.6394997 140.8609988
 117.8180012   3.5654997 142.0509988 117.3455688   3.2233804 141.4055482
 122.2200012   3.5624997 143.8449988 122.3980012   2.9164997 144.5279988
 122.1670012   4.3964997 144.3119988 122.2371999   3.5868009 144.0015917
 124.0990012  18.5114997 142.2409988 124.9650012  18.8774997 142.0629988
 123.8520012  18.0714997 141.4269988 124.1842392  18.5021756 142.1066289
 117.0520012  18.2214997 140.8689988 116.7850012  18.5084997 141.7419988
 117.8240012  17.6754997 141.0209988 117.1197488  18.1870294 141.0091050
 143.2060012   8.4134997 141.5919988 143.9070012   8.4354997 142.2429988
 143.5090012   7.7854997 140.9349988 143.3428133   8.3317070 141.5923369
 142.4790012   4.2364997 141.4899988 142.2260012   4.2554997 142.4129988
 142.2230012   3.3644997 141.1879988 142.4097481   4.1212558 141.5756175
 139.3620012   4.6814997 140.5909988 138.9310012   4.2364997 141.3209988
 138.6440012   5.0534997 140.0789988 139.2059438   4.6708940 140.6216799
 133.8780012   5.1694997 143.0669988 134.3520012   5.7604997 142.4819988
 133.1610012   5.7004997 143.4139988 133.8459341   5.3220867 143.0338836
 137.9800012   7.4594997 141.9729988 137.4370012   7.0794997 141.2819988
 138.8130012   7.6534997 141.5449988 138.0183631   7.4337125 141.8204501
 141.3150012  12.0244997 143.9089988 140.5700012  11.5174997 143.5869988
 141.1810012  12.0734997 144.8559988 141.1948776  11.9616940 143.9928647
 143.4410012  13.4834997 142.9349988 143.1450012  14.3094997 143.3159988
 142.7380012  12.8634997 143.1309988 143.3054914  13.5128199 143.0136443
 134.5700012   9.6994997 141.6699988 135.1860012  10.3264997 142.0499988
 133.7080012  10.0154997 141.9419988 134.5377698   9.8279430 141.7587183
 140.5950012  14.7894997 140.1959988 140.8340012  14.0414997 139.6489988
 140.3260012  14.4014997 141.0289988 140.5913675  14.6346638 140.2336865
 139.5320012  14.3594997 142.6519988 139.6780012  13.8394997 143.4419988
 139.5290012  15.2664997 142.9589988 139.5515792  14.4108842 142.8016117
 135.9850012  11.6124997 143.1629988 135.2990012  11.9644997 143.7299988
 136.5070012  12.3754997 142.9159988 135.9616852  11.7638578 143.2072118
 142.2690012  16.0574997 143.4019988 141.4530012  16.5544997 143.4539988
 142.7990012  16.5324997 142.7619988 142.2289161  16.1897722 143.3225956
 139.6080012  17.1014997 143.3829988 139.7680012  17.9004997 142.8829988
 139.4100012  17.4074997 144.2679988 139.6031637  17.2524020 143.4341144
 138.3420012   3.7984997 142.9989988 138.2590012   4.6874997 143.3459988
 139.2320012   3.5334997 143.2309988 138.4509469   3.8841430 143.0777626
 136.6010012  14.2264997 142.0599988 137.1930012  14.9254997 142.3359988
 137.0600012  13.7934997 141.3399988 136.7441142  14.2637049 142.0004830
 134.9170012   6.8904997 141.1759988 134.8720012   7.8294997 141.3539988
 134.0290012   6.6544997 140.9059988 134.7908574   6.9871892 141.1638912
 142.6330012  16.6524997 140.3349988 141.9890012  16.0214997 140.6559988
 143.3950012  16.1214997 140.1029988 142.6478077  16.4942920 140.3476011
 138.1920012  12.3794997 140.4259988 138.2560012  11.5854997 140.9569988
 138.8450012  12.2604997 139.7359988 138.2890241  12.2547148 140.4054317
 143.5440012  13.4264997 140.1619988 143.2750012  13.6064997 141.0629988
 143.3380012  12.5004997 140.0299988 143.4793427  13.3260261 140.2675073
 139.3410012  10.3514997 142.7319988 138.8810012   9.8674997 143.4179988
 139.5960012   9.6834997 142.0959988 139.3124902  10.1948731 142.7399334
 140.4120012   8.5944997 140.9939988 140.2320012   8.4404997 140.0669988
 141.3620012   8.7024997 141.0389988 140.5157776   8.5880175 140.8731843
 140.3090012  19.2854997 141.9949988 141.2420012  19.4434997 142.1389988
 140.0450012  19.9604997 141.3709988 140.4009888  19.3984510 141.9302842
 133.8780012  13.9214997 141.4779988 134.7920012  14.0004997 141.7519988
 133.8850012  13.2344997 140.8119988 134.0041131  13.8393961 141.4254393
 134.1890012   1.3534997 142.9459988 134.6280012   1.9644997 142.3539988
 133.5560012   1.8914997 143.4199988 134.1634514   1.5099257 142.9290930
 134.0900012  17.3014997 143.8429988 133.4050012  17.2634997 143.1759988
 134.0940012  18.2144997 144.1319988 133.9966998  17.4196733 143.7906771
 136.0500012   3.2694997 141.3879988 136.5420012   2.6394997 140.8609988
 136.6740012   3.5654997 142.0509988 136.2015688   3.2233804 141.4055482
 141.0760012   3.5624997 143.8449988 141.2540012   2.9164997 144.5279988
 141.0230012   4.3964997 144.3119988 141.0931999   3.5868009 144.0015917
 142.9550012  18.5114997 142.2409988 143.8210012  18.8774997 142.0629988
 142.7080012  18.0714997 141.4269988 143.0402392  18.5021756 142.1066289
 135.9080012  18.2214997 140.8689988 135.6410012  18.5084997 141.7419988
 136.6800012  17.6754997 141.0209988 135.9757488  18.1870294 141.0091050
  11.2140012  27.2694997 141.5919988  11.9150012  27.2914997 142.2429988
  11.5170012  26.6414997 140.9349988  11.3508133  27.1877070 141.5923369
  13.4370012  28.1834997 143.1899988  14.0170012  28.3334997 143.9369988
  13.8510012  28.6544997 142.4659988  13.5722997  28.2676578 143.1944058
  17.1360012  19.9334997 143.0029988  16.2360012  20.0724997 143.2979988
  17.3880012  20.7644997 142.6009988  17.0468702  20.0649074 142.9890205
  18.3250012  34.2994997 141.3789988  18.3990012  35.2384997 141.5499988
  19.2310012  33.9944997 141.3229988  18.4575100  34.3866722 141.3948119
  13.7380012  37.0304997 142.0419988  14.1130012  36.2864997 141.5709988
  13.7420012  36.7604997 142.9609988  13.7899125  36.8920986 142.1016483
  14.9150012  29.2164997 140.8199988  14.9570012  28.9934997 139.8899988
  15.7640012  29.6154997 141.0089988  15.0355280  29.2399438 140.7183554
  10.4870012  23.0924997 141.4899988  10.2340012  23.1114997 142.4129988
  10.2310012  22.2204997 141.1879988  10.4177481  22.9772558 141.5756175
   7.3700012  23.5374997 140.5909988   6.9390012  23.0924997 141.3209988
   6.6520012  23.9094997 140.0789988   7.2139438  23.5268940 140.6216799
   1.8860012  24.0254997 143.0669988   2.3600012  24.6164997 142.4819988
   1.1690012  24.5564997 143.4139988   1.8539341  24.1780867 143.0338836
   5.9880012  26.3154997 141.9729988   5.4450012  25.9354997 141.2819988
   6.8210012  26.5094997 141.5449988   6.0263631  26.2897125 141.8204501
   9.3230012  30.8804997 143.9089988   8.5780012  30.3734997 143.5869988
   9.1890012  30.9294997 144.8559988   9.2028776  30.8176940 143.9928647
  13.2210012  23.6944997 142.1079988  12.2820012  23.8064997 141.9569988
  13.5180012  24.5514997 142.4149988  13.1327583  23.8255981 142.1288337
  13.9390012  25.5614997 143.7689988  14.8310012  25.4244997 144.0879988
  13.9960012  26.3524997 143.2319988  14.0686504  25.6496052 143.7400818
  11.4490012  32.3394997 142.9349988  11.1530012  33.1654997 143.3159988
  10.7460012  31.7194997 143.1309988  11.3134914  32.3688199 143.0136443
  18.8240012  25.7714997 143.4639988  18.2700012  25.3754997 142.7919988
  18.9240012  26.6814997 143.1859988  18.7617059  25.8403586 143.3344401
  17.1190012  34.5574997 143.9289988  16.7460012  33.7314997 144.2379988
  17.3970012  34.3744997 143.0309988  17.1055222  34.4197430 143.8499473
   2.5780012  28.5554997 141.6699988   3.1940012  29.1824997 142.0499988
   1.7160012  28.8714997 141.9419988   2.5457698  28.6839430 141.7587183
  14.5120012  32.5334997 141.7489988  14.8650012  32.1534997 142.5529988
  13.5630012  32.4404997 141.8359988  14.4320918  32.4688956 141.8708532
  19.0150012  37.0134997 141.9499988  19.7590012  37.5994997 141.8099988
  18.3210012  37.5814997 142.2829988  19.0229899  37.1705798 141.9758778
  15.3780012  31.2064997 143.9759988  15.1000012  30.4784997 144.5319988
  16.3050012  31.3254997 144.1809988  15.4653124  31.1228802 144.0798845
   8.6030012  33.6454997 140.1959988   8.8420012  32.8974997 139.6489988
   8.3340012  33.2574997 141.0289988   8.5993675  33.4906638 140.2336865
   7.5400012  33.2154997 142.6519988   7.6860012  32.6954997 143.4419988
   7.5370012  34.1224997 142.9589988   7.5595792  33.2668842 142.8016117
   3.9930012  30.4684997 143.1629988   3.3070012  30.8204997 143.7299988
   4.5150012  31.2314997 142.9159988   3.9696852  30.6198578 143.2072118
  10.2770012  34.9134997 143.4019988   9.4610012  35.4104997 143.4539988
  10.8070012  35.3884997 142.7619988  10.2369161  35.0457722 143.3225956
   7.6160012  35.9574997 143.3829988   7.7760012  36.7564997 142.8829988
   7.4180012  36.2634997 144.2679988   7.6111637  36.1084020 143.4341144
   6.3500012  22.6544997 142.9989988   6.2670012  23.5434997 143.3459988
   7.2400012  22.3894997 143.2309988   6.4589469  22.7401430 143.0777626
   4.6090012  33.0824997 142.0599988   5.2010012  33.7814997 142.3359988
   5.0680012  32.6494997 141.3399988   4.7521142  33.1197049 142.0004830
   2.9250012  25.7464997 141.1759988   2.8800012  26.6854997 141.3539988
   2.0370012  25.5104997 140.9059988   2.7988574  25.8431892 141.1638912
  10.6410012  35.5084997 140.3349988   9.9970012  34.8774997 140.6559988
  11.4030012  34.9774997 140.1029988  10.6558077  35.3502920 140.3476011
  15.2450012  35.3254997 140.5679988  15.5280012  34.5314997 141.0209988
  15.9850012  35.5584997 140.0079988  15.3838006  35.2483376 140.5542715
   6.2000012  31.2354997 140.4259988   6.2640012  30.4414997 140.9569988
   6.8530012  31.1164997 139.7359988   6.2970241  31.1107148 140.4054317
  11.5520012  32.2824997 140.1619988  11.2830012  32.4624997 141.0629988
  11.3460012  31.3564997 140.0299988  11.4873427  32.1820261 140.2675073
   7.3490012  29.2074997 142.7319988   6.8890012  28.7234997 143.4179988
   7.6040012  28.5394997 142.0959988   7.3204902  29.0508731 142.7399334
   8.4200012  27.4504997 140.9939988   8.2400012  27.2964997 140.0669988
   9.3700012  27.5584997 141.0389988   8.5237776  27.4440175 140.8731843
  17.8100012  29.8054997 140.4399988  17.5360012  29.3804997 139.6269988
  17.8490012  30.7364997 140.2229988  17.7777699  29.8732484 140.2993610
   8.3170012  38.1414997 141.9949988   9.2500012  38.2994997 142.1389988
   8.0530012  38.8164997 141.3709988   8.4089888  38.2544510 141.9302842
   1.8860012  32.7774997 141.4779988   2.8000012  32.8564997 141.7519988
   1.8930012  32.0904997 140.8119988   2.0121131  32.6953961 141.4254393
  18.9310012  28.6284997 142.6299988  18.4090012  28.9854997 141.9109988
  18.8980012  29.3034997 143.3079988  18.8551634  28.7685413 142.6233145
  17.2800012  25.8684997 141.1799988  17.3760012  26.5354997 140.4999988
  17.1400012  25.0524997 140.6989988  17.2742272  25.8495655 141.0218347
  16.5270012  23.2764997 140.2979988  17.1380012  22.9054997 140.9349988
  15.6910012  22.8554997 140.4939988  16.4975032  23.1687554 140.4117035
  18.6400012  22.1614997 141.8399988  19.0520012  21.4404997 141.3649988
  19.3220012  22.8314997 141.8989988  18.7885885  22.1532368 141.7828915
   2.1970012  20.2094997 142.9459988   2.6360012  20.8204997 142.3539988
   1.5640012  20.7474997 143.4199988   2.1714514  20.3659257 142.9290930
   2.0980012  36.1574997 143.8429988   1.4130012  36.1194997 143.1759988
   2.1020012  37.0704997 144.1319988   2.0046998  36.2756733 143.7906771
   4.0580012  22.1254997 141.3879988   4.5500012  21.4954997 140.8609988
   4.6820012  22.4214997 142.0509988   4.2095688  22.0793804 141.4055482
   9.0840012  22.4184997 143.8449988   9.2620012  21.7724997 144.5279988
   9.0310012  23.2524997 144.3119988   9.1011999  22.4428009 144.0015917
  10.9630012  37.3674997 142.2409988  11.8290012  37.7334997 142.0629988
  10.7160012  36.9274997 141.4269988  11.0482392  37.3581756 142.1066289
   3.9160012  37.0774997 140.8689988   3.6490012  37.3644997 141.7419988
   4.6880012  36.5314997 141.0209988   3.9837488  37.0430294 141.0091050
  30.0700012  27.2694997 141.5919988  30.7710012  27.2914997 142.2429988
  30.3730012  26.6414997 140.9349988  30.2068133  27.1877070 141.5923369
  32.2930012  28.1834997 143.1899988  32.8730012  28.3334997 143.9369988
  32.7070012  28.6544997 142.4659988  32.4282997  28.2676578 143.1944058
  35.9920012  19.9334997 143.0029988  35.0920012  20.0724997 143.2979988
  36.2440012  20.7644997 142.6009988  35.9028702  20.0649074 142.9890205
  37.1810012  34.2994997 141.3789988  37.2550012  35.2384997 141.5499988
  38.0870012  33.9944997 141.3229988  37.3135100  34.3866722 141.3948119
  32.5940012  37.0304997 142.0419988  32.9690012  36.2864997 141.5709988
  32.5980012  36.7604997 142.9609988  32.6459125  36.8920986 142.1016483
  33.7710012  29.2164997 140.8199988  33.8130012  28.9934997 139.8899988
  34.6200012  29.6154997 141.0089988  33.8915280  29.2399438 140.7183554
  29.3430012  23.0924997 141.4899988  29.0900012  23.1114997 142.4129988
  29.0870012  22.2204997 141.1879988  29.2737481  22.9772558 141.5756175
  26.2260012  23.5374997 140.5909988  25.7950012  23.0924997 141.3209988
  25.5080012  23.9094997 140.0789988  26.0699438  23.5268940 140.6216799
  20.7420012  24.0254997 143.0669988  21.2160012  24.6164997 142.4819988
  20.0250012  24.5564997 143.4139988  20.7099341  24.1780867 143.0338836
  24.8440012  26.3154997 141.9729988  24.3010012  25.9354997 141.2819988
  25.6770012  26.5094997 141.5449988  24.8823631  26.2897125 141.8204501
  28.1790012  30.8804997 143.9089988  27.4340012  30.3734997 143.5869988
  28.0450012  30.9294997 144.8559988  28.0588776  30.8176940 143.9928647
  32.0770012  23.6944997 142.1079988  31.1380012  23.8064997 141.9569988
  32.3740012  24.5514997 142.4149988  31.9887583  23.8255981 142.1288337
  32.7950012  25.5614997 143.7689988  33.6870012  25.4244997 144.0879988
  32.8520012  26.3524997 143.2319988  32.9246504  25.6496052 143.7400818
  30.3050012  32.3394997 142.9349988  30.0090012  33.1654997 143.3159988
  29.6020012  31.7194997 143.1309988  30.1694914  32.3688199 143.0136443
  37.6800012  25.7714997 143.4639988  37.1260012  25.3754997 142.7919988
  37.7800012  26.6814997 143.1859988  37.6177059  25.8403586 143.3344401
  35.9750012  34.5574997 143.9289988  35.6020012  33.7314997 144.2379988
  36.2530012  34.3744997 143.0309988  35.9615222  34.4197430 143.8499473
  21.4340012  28.5554997 141.6699988  22.0500012  29.1824997 142.0499988
  20.5720012  28.8714997 141.9419988  21.4017698  28.6839430 141.7587183
  33.3680012  32.5334997 141.7489988  33.7210012  32.1534997 142.5529988
  32.4190012  32.4404997 141.8359988  33.2880918  32.4688956 141.8708532
  37.8710012  37.0134997 141.9499988  38.6150012  37.5994997 141.8099988
  37.1770012  37.5814997 142.2829988  37.8789899  37.1705798 141.9758778
  34.2340012  31.2064997 143.9759988  33.9560012  30.4784997 144.5319988
  35.1610012  31.3254997 144.1809988  34.3213124  31.1228802 144.0798845
  27.4590012  33.6454997 140.1959988  27.6980012  32.8974997 139.6489988
  27.1900012  33.2574997 141.0289988  27.4553675  33.4906638 140.2336865
  26.3960012  33.2154997 142.6519988  26.5420012  32.6954997 143.4419988
  26.3930012  34.1224997 142.9589988  26.4155792  33.2668842 142.8016117
  22.8490012  30.4684997 143.1629988  22.1630012  30.8204997 143.7299988
  23.3710012  31.2314997 142.9159988  22.8256852  30.6198578 143.2072118
  29.1330012  34.9134997 143.4019988  28.3170012  35.4104997 143.4539988
  29.6630012  35.3884997 142.7619988  29.0929161  35.0457722 143.3225956
  26.4720012  35.9574997 143.3829988  26.6320012  36.7564997 142.8829988
  26.2740012  36.2634997 144.2679988  26.4671637  36.1084020 143.4341144
  25.2060012  22.6544997 142.9989988  25.1230012  23.5434997 143.3459988
  26.0960012  22.3894997 143.2309988  25.3149469  22.7401430 143.0777626
  23.4650012  33.0824997 142.0599988  24.0570012  33.7814997 142.3359988
  23.9240012  32.6494997 141.3399988  23.6081142  33.1197049 142.0004830
  21.7810012  25.7464997 141.1759988  21.7360012  26.6854997 141.3539988
  20.8930012  25.5104997 140.9059988  21.6548574  25.8431892 141.1638912
  29.4970012  35.5084997 140.3349988  28.8530012  34.8774997 140.6559988
  30.2590012  34.9774997 140.1029988  29.5118077  35.3502920 140.3476011
  34.1010012  35.3254997 140.5679988  34.3840012  34.5314997 141.0209988
  34.8410012  35.5584997 140.0079988  34.2398006  35.2483376 140.5542715
  25.0560012  31.2354997 140.4259988  25.1200012  30.4414997 140.9569988
  25.7090012  31.1164997 139.7359988  25.1530241  31.1107148 140.4054317
  30.4080012  32.2824997 140.1619988  30.1390012  32.4624997 141.0629988
  30.2020012  31.3564997 140.0299988  30.3433427  32.1820261 140.2675073
  26.2050012  29.2074997 142.7319988  25.7450012  28.7234997 143.4179988
  26.4600012  28.5394997 142.0959988  26.1764902  29.0508731 142.7399334
  27.2760012  27.4504997 140.9939988  27.0960012  27.2964997 140.0669988
  28.2260012  27.5584997 141.0389988  27.3797776  27.4440175 140.8731843
  36.6660012  29.8054997 140.4399988  36.3920012  29.3804997 139.6269988
  36.7050012  30.7364997 140.2229988  36.6337699  29.8732484 140.2993610
  27.1730012  38.1414997 141.9949988  28.1060012  38.2994997 142.1389988
  26.9090012  38.8164997 141.3709988  27.2649888  38.2544510 141.9302842
  20.7420012  32.7774997 141.4779988  21.6560012  32.8564997 141.7519988
  20.7490012  32.0904997 140.8119988  20.8681131  32.6953961 141.4254393
  37.7870012  28.6284997 142.6299988  37.2650012  28.9854997 141.9109988
  37.7540012  29.3034997 143.3079988  37.7111634  28.7685413 142.6233145
  36.1360012  25.8684997 141.1799988  36.2320012  26.5354997 140.4999988
  35.9960012  25.0524997 140.6989988  36.1302272  25.8495655 141.0218347
  35.3830012  23.2764997 140.2979988  35.9940012  22.9054997 140.9349988
  34.5470012  22.8554997 140.4939988  35.3535032  23.1687554 140.4117035
  37.4960012  22.1614997 141.8399988  37.9080012  21.4404997 141.3649988
  38.1780012  22.8314997 141.8989988  37.6445885  22.1532368 141.7828915
  21.0530012  20.2094997 142.9459988  21.4920012  20.8204997 142.3539988
  20.4200012  20.7474997 143.4199988  21.0274514  20.3659257 142.9290930
  20.9540012  36.1574997 143.8429988  20.2690012  36.1194997 143.1759988
  20.9580012  37.0704997 144.1319988  20.8606998  36.2756733 143.7906771
  22.9140012  22.1254997 141.3879988  23.4060012  21.4954997 140.8609988
  23.5380012  22.4214997 142.0509988  23.0655688  22.0793804 141.4055482
  27.9400012  22.4184997 143.8449988  28.1180012  21.7724997 144.5279988
  27.8870012  23.2524997 144.3119988  27.9571999  22.4428009 144.0015917
  29.8190012  37.3674997 142.2409988  30.6850012  37.7334997 142.0629988
  29.5720012  36.9274997 141.4269988  29.9042392  37.3581756 142.1066289
  22.7720012  37.0774997 140.8689988  22.5050012  37.3644997 141.7419988
  23.5440012  36.5314997 141.0209988  22.8397488  37.0430294 141.0091050
  48.9260012  27.2694997 141.5919988  49.6270012  27.2914997 142.2429988
  49.2290012  26.6414997 140.9349988  49.0628133  27.1877070 141.5923369
  51.1490012  28.1834997 143.1899988  51.7290012  28.3334997 143.9369988
  51.5630012  28.6544997 142.4659988  51.2842997  28.2676578 143.1944058
  54.8480012  19.9334997 143.0029988  53.9480012  20.0724997 143.2979988
  55.1000012  20.7644997 142.6009988  54.7588702  20.0649074 142.9890205
  56.0370012  34.2994997 141.3789988  56.1110012  35.2384997 141.5499988
  56.9430012  33.9944997 141.3229988  56.1695100  34.3866722 141.3948119
  51.4500012  37.0304997 142.0419988  51.8250012  36.2864997 141.5709988
  51.4540012  36.7604997 142.9609988  51.5019125  36.8920986 142.1016483
  52.6270012  29.2164997 140.8199988  52.6690012  28.9934997 139.8899988
  53.4760012  29.6154997 141.0089988  52.7475280  29.2399438 140.7183554
  48.1990012  23.0924997 141.4899988  47.9460012  23.1114997 142.4129988
  47.9430012  22.2204997 141.1879988  48.1297481  22.9772558 141.5756175
  45.0820012  23.5374997 140.5909988  44.6510012  23.0924997 141.3209988
  44.3640012  23.9094997 140.0789988  44.9259438  23.5268940 140.6216799
  39.5980012  24.0254997 143.0669988  40.0720012  24.6164997 142.4819988
  38.8810012  24.5564997 143.4139988  39.5659341  24.1780867 143.0338836
  43.7000012  26.3154997 141.9729988  43.1570012  25.9354997 141.2819988
  44.5330012  26.5094997 141.5449988  43.7383631  26.2897125 141.8204501
  47.0350012  30.8804997 143.9089988  46.2900012  30.3734997 143.5869988
  46.9010012  30.9294997 144.8559988  46.9148776  30.8176940 143.9928647
  50.9330012  23.6944997 142.1079988  49.9940012  23.8064997 141.9569988
  51.2300012  24.5514997 142.4149988  50.8447583  23.8255981 142.1288337
  51.6510012  25.5614997 143.7689988  52.5430012  25.4244997 144.0879988
  51.7080012  26.3524997 143.2319988  51.7806504  25.6496052 143.7400818
  49.1610012  32.3394997 142.9349988  48.8650012  33.1654997 143.3159988
  48.4580012  31.7194997 143.1309988  49.0254914  32.3688199 143.0136443
  56.5360012  25.7714997 143.4639988  55.9820012  25.3754997 142.7919988
  56.6360012  26.6814997 143.1859988  56.4737059  25.8403586 143.3344401
  54.8310012  34.5574997 143.9289988  54.4580012  33.7314997 144.2379988
  55.1090012  34.3744997 143.0309988  54.8175222  34.4197430 143.8499473
  40.2900012  28.5554997 141.6699988  40.9060012  29.1824997 142.0499988
  39.4280012  28.8714997 141.9419988  40.2577698  28.6839430 141.7587183
  52.2240012  32.5334997 141.7489988  52.5770012  32.1534997 142.5529988
  51.2750012  32.4404997 141.8359988  52.1440918  32.4688956 141.8708532
  56.7270012  37.0134997 141.9499988  57.4710012  37.5994997 141.8099988
  56.0330012  37.5814997 142.2829988  56.7349899  37.1705798 141.9758778
  53.0900012  31.2064997 143.9759988  52.8120012  30.4784997 144.5319988
  54.0170012  31.3254997 144.1809988  53.1773124  31.1228802 144.0798845
  46.3150012  33.6454997 140.1959988  46.5540012  32.8974997 139.6489988
  46.0460012  33.2574997 141.0289988  46.3113675  33.4906638 140.2336865
  45.2520012  33.2154997 142.6519988  45.3980012  32.6954997 143.4419988
  45.2490012  34.1224997 142.9589988  45.2715792  33.2668842 142.8016117
  41.7050012  30.4684997 143.1629988  41.0190012  30.8204997 143.7299988
  42.2270012  31.2314997 142.9159988  41.6816852  30.6198578 143.2072118
  47.9890012  34.9134997 143.4019988  47.1730012  35.4104997 143.4539988
  48.5190012  35.3884997 142.7619988  47.9489161  35.0457722 143.3225956
  45.3280012  35.9574997 143.3829988  45.4880012  36.7564997 142.8829988
  45.1300012  36.2634997 144.2679988  45.3231637  36.1084020 143.4341144
  44.0620012  22.6544997 142.9989988  43.9790012  23.5434997 143.3459988
  44.9520012  22.3894997 143.2309988  44.1709469  22.7401430 143.0777626
  42.3210012  33.0824997 142.0599988  42.9130012  33.7814997 142.3359988
  42.7800012  32.6494997 141.3399988  42.4641142  33.1197049 142.0004830
  40.6370012  25.7464997 141.1759988  40.5920012  26.6854997 141.3539988
  39.7490012  25.5104997 140.9059988  40.5108574  25.8431892 141.1638912
  48.3530012  35.5084997 140.3349988  47.7090012  34.8774997 140.6559988
  49.1150012  34.9774997 140.1029988  48.3678077  35.3502920 140.3476011
  52.9570012  35.3254997 140.5679988  53.2400012  34.5314997 141.0209988
  53.6970012  35.5584997 140.0079988  53.0958006  35.2483376 140.5542715
  43.9120012  31.2354997 140.4259988  43.9760012  30.4414997 140.9569988
  44.5650012  31.1164997 139.7359988  44.0090241  31.1107148 140.4054317
  49.2640012  32.2824997 140.1619988  48.9950012  32.4624997 141.0629988
  49.0580012  31.3564997 140.0299988  49.1993427  32.1820261 140.2675073
  45.0610012  29.2074997 142.7319988  44.6010012  28.7234997 143.4179988
  45.3160012  28.5394997 142.0959988  45.0324902  29.0508731 142.7399334
  46.1320012  27.4504997 140.9939988  45.9520012  27.2964997 140.0669988
  47.0820012  27.5584997 141.0389988  46.2357776  27.4440175 140.8731843
  55.5220012  29.8054997 140.4399988  55.2480012  29.3804997 139.6269988
  55.5610012  30.7364997 140.2229988  55.4897699  29.8732484 140.2993610
  46.0290012  38.1414997 141.9949988  46.9620012  38.2994997 142.1389988
  45.7650012  38.8164997 141.3709988  46.1209888  38.2544510 141.9302842
  39.5980012  32.7774997 141.4779988  40.5120012  32.8564997 141.7519988
  39.6050012  32.0904997 140.8119988  39.7241131  32.6953961 141.4254393
  56.6430012  28.6284997 142.6299988  56.1210012  28.9854997 141.9109988
  56.6100012  29.3034997 143.3079988  56.5671634  28.7685413 142.6233145
  54.9920012  25.8684997 141.1799988  55.0880012  26.5354997 140.4999988
  54.8520012  25.0524997 140.6989988  54.9862272  25.8495655 141.0218347
  54.2390012  23.2764997 140.2979988  54.8500012  22.9054997 140.9349988
  53.4030012  22.8554997 140.4939988  54.2095032  23.1687554 140.4117035
  56.3520012  22.1614997 141.8399988  56.7640012  21.4404997 141.3649988
  57.0340012  22.8314997 141.8989988  56.5005885  22.1532368 141.7828915
  39.9090012  20.2094997 142.9459988  40.3480012  20.8204997 142.3539988
  39.2760012  20.7474997 143.4199988  39.8834514  20.3659257 142.9290930
  39.8100012  36.1574997 143.8429988  39.1250012  36.1194997 143.1759988
  39.8140012  37.0704997 144.1319988  39.7166998  36.2756733 143.7906771
  41.7700012  22.1254997 141.3879988  42.2620012  21.4954997 140.8609988
  42.3940012  22.4214997 142.0509988  41.9215688  22.0793804 141.4055482
  46.7960012  22.4184997 143.8449988  46.9740012  21.7724997 144.5279988
  46.7430012  23.2524997 144.3119988  46.8131999  22.4428009 144.0015917
  48.6750012  37.3674997 142.2409988  49.5410012  37.7334997 142.0629988
  48.4280012  36.9274997 141.4269988  48.7602392  37.3581756 142.1066289
  41.6280012  37.0774997 140.8689988  41.3610012  37.3644997 141.7419988
  42.4000012  36.5314997 141.0209988  41.6957488  37.0430294 141.0091050
  67.7820012  27.2694997 141.5919988  68.4830012  27.2914997 142.2429988
  68.0850012  26.6414997 140.9349988  67.9188133  27.1877070 141.5923369
  70.0050012  28.1834997 143.1899988  70.5850012  28.3334997 143.9369988
  70.4190012  28.6544997 142.4659988  70.1402997  28.2676578 143.1944058
  73.7040012  19.9334997 143.0029988  72.8040012  20.0724997 143.2979988
  73.9560012  20.7644997 142.6009988  73.6148702  20.0649074 142.9890205
  74.8930012  34.2994997 141.3789988  74.9670012  35.2384997 141.5499988
  75.7990012  33.9944997 141.3229988  75.0255100  34.3866722 141.3948119
  70.3060012  37.0304997 142.0419988  70.6810012  36.2864997 141.5709988
  70.3100012  36.7604997 142.9609988  70.3579125  36.8920986 142.1016483
  71.4830012  29.2164997 140.8199988  71.5250012  28.9934997 139.8899988
  72.3320012  29.6154997 141.0089988  71.6035280  29.2399438 140.7183554
  67.0550012  23.0924997 141.4899988  66.8020012  23.1114997 142.4129988
  66.7990012  22.2204997 141.1879988  66.9857481  22.9772558 141.5756175
  63.9380012  23.5374997 140.5909988  63.5070012  23.0924997 141.3209988
  63.2200012  23.9094997 140.0789988  63.7819438  23.5268940 140.6216799
  58.4540012  24.0254997 143.0669988  58.9280012  24.6164997 142.4819988
  57.7370012  24.5564997 143.4139988  58.4219341  24.1780867 143.0338836
  62.5560012  26.3154997 141.9729988  62.0130012  25.9354997 141.2819988
  63.3890012  26.5094997 141.5449988  62.5943631  26.2897125 141.8204501
  65.8910012  30.8804997 143.9089988  65.1460012  30.3734997 143.5869988
  65.7570012  30.9294997 144.8559988  65.7708776  30.8176940 143.9928647
  69.7890012  23.6944997 142.1079988  68.8500012  23.8064997 141.9569988
  70.0860012  24.5514997 142.4149988  69.7007583  23.8255981 142.1288337
  70.5070012  25.5614997 143.7689988  71.3990012  25.4244997 144.0879988
  70.5640012  26.3524997 143.2319988  70.6366504  25.6496052 143.7400818
  68.0170012  32.3394997 142.9349988  67.7210012  33.1654997 143.3159988
  67.3140012  31.7194997 143.1309988  67.8814914  32.3688199 143.0136443
  75.3920012  25.7714997 143.4639988  74.8380012  25.3754997 142.7919988
  75.4920012  26.6814997 143.1859988  75.3297059  25.8403586 143.3344401
  73.6870012  34.5574997 143.9289988  73.3140012  33.7314997 144.2379988
  73.9650012  34.3744997 143.0309988  73.6735222  34.4197430 143.8499473
  59.1460012  28.5554997 141.6699988  59.7620012  29.1824997 142.0499988
  58.2840012  28.8714997 141.9419988  59.1137698  28.6839430 141.7587183
  71.0800012  32.5334997 141.7489988  71.4330012  32.1534997 142.5529988
  70.1310012  32.4404997 141.8359988  71.0000918  32.4688956 141.8708532
  75.5830012  37.0134997 141.9499988  76.3270012  37.5994997 141.8099988
  74.8890012  37.5814997 142.2829988  75.5909899  37.1705798 141.9758778
  71.9460012  31.2064997 143.9759988  71.6680012  30.4784997 144.5319988
  72.8730012  31.3254997 144.1809988  72.0333124  31.1228802 144.0798845
  65.1710012  33.6454997 140.1959988  65.4100012  32.8974997 139.6489988
  64.9020012  33.2574997 141.0289988  65.1673675  33.4906638 140.2336865
  64.1080012  33.2154997 142.6519988  64.2540012  32.6954997 143.4419988
  64.1050012  34.1224997 142.9589988  64.1275792  33.2668842 142.8016117
  60.5610012  30.4684997 143.1629988  59.8750012  30.8204997 143.7299988
  61.0830012  31.2314997 142.9159988  60.5376852  30.6198578 143.2072118
  66.8450012  34.9134997 143.4019988  66.0290012  35.4104997 143.4539988
  67.3750012  35.3884997 142.7619988  66.8049161  35.0457722 143.3225956
  64.1840012  35.9574997 143.3829988  64.3440012  36.7564997 142.8829988
  63.9860012  36.2634997 144.2679988  64.1791637  36.1084020 143.4341144
  62.9180012  22.6544997 142.9989988  62.8350012  23.5434997 143.3459988
  63.8080012  22.3894997 143.2309988  63.0269469  22.7401430 143.0777626
  61.1770012  33.0824997 142.0599988  61.7690012  33.7814997 142.3359988
  61.6360012  32.6494997 141.3399988  61.3201142  33.1197049 142.0004830
  59.4930012  25.7464997 141.1759988  59.4480012  26.6854997 141.3539988
  58.6050012  25.5104997 140.9059988  59.3668574  25.8431892 141.1638912
  67.2090012  35.5084997 140.3349988  66.5650012  34.8774997 140.6559988
  67.9710012  34.9774997 140.1029988  67.2238077  35.3502920 140.3476011
  71.8130012  35.3254997 140.5679988  72.0960012  34.5314997 141.0209988
  72.5530012  35.5584997 140.0079988  71.9518006  35.2483376 140.5542715
  62.7680012  31.2354997 140.4259988  62.8320012  30.4414997 140.9569988
  63.4210012  31.1164997 139.7359988  62.8650241  31.1107148 140.4054317
  68.1200012  32.2824997 140.1619988  67.8510012  32.4624997 141.0629988
  67.9140012  31.3564997 140.0299988  68.0553427  32.1820261 140.2675073
  63.9170012  29.2074997 142.7319988  63.4570012  28.7234997 143.4179988
  64.1720012  28.5394997 142.0959988  63.8884902  29.0508731 142.7399334
  64.9880012  27.4504997 140.9939988  64.8080012  27.2964997 140.0669988
  65.9380012  27.5584997 141.0389988  65.0917776  27.4440175 140.8731843
  74.3780012  29.8054997 140.4399988  74.1040012  29.3804997 139.6269988
  74.4170012  30.7364997 140.2229988  74.3457699  29.8732484 140.2993610
  64.8850012  38.1414997 141.9949988  65.8180012  38.2994997 142.1389988
  64.6210012  38.8164997 141.3709988  64.9769888  38.2544510 141.9302842
  58.4540012  32.7774997 141.4779988  59.3680012  32.8564997 141.7519988
  58.4610012  32.0904997 140.8119988  58.5801131  32.6953961 141.4254393
  75.4990012  28.6284997 142.6299988  74.9770012  28.9854997 141.9109988
  75.4660012  29.3034997 143.3079988  75.4231634  28.7685413 142.6233145
  73.8480012  25.8684997 141.1799988  73.9440012  26.5354997 140.4999988
  73.7080012  25.0524997 140.6989988  73.8422272  25.8495655 141.0218347
  73.0950012  23.2764997 140.2979988  73.7060012  22.9054997 140.9349988
  72.2590012  22.8554997 140.4939988  73.0655032  23.1687554 140.4117035
  75.2080012  22.1614997 141.8399988  75.6200012  21.4404997 141.3649988
  75.8900012  22.8314997 141.8989988  75.3565885  22.1532368 141.7828915
  58.7650012  20.2094997 142.9459988  59.2040012  20.8204997 142.3539988
  58.1320012  20.7474997 143.4199988  58.7394514  20.3659257 142.9290930
  58.6660012  36.1574997 143.8429988  57.9810012  36.1194997 143.1759988
  58.6700012  37.0704997 144.1319988  58.5726998  36.2756733 143.7906771
  60.6260012  22.1254997 141.3879988  61.1180012  21.4954997 140.8609988
  61.2500012  22.4214997 142.0509988  60.7775688  22.0793804 141.4055482
  65.6520012  22.4184997 143.8449988  65.8300012  21.7724997 144.5279988
  65.5990012  23.2524997 144.3119988  65.6691999  22.4428009 144.0015917
  67.5310012  37.3674997 142.2409988  68.3970012  37.7334997 142.0629988
  67.2840012  36.9274997 141.4269988  67.6162392  37.3581756 142.1066289
  60.4840012  37.0774997 140.8689988  60.2170012  37.3644997 141.7419988
  61.2560012  36.5314997 141.0209988  60.5517488  37.0430294 141.0091050
  86.6380012  27.2694997 141.5919988  87.3390012  27.2914997 142.2429988
  86.9410012  26.6414997 140.9349988  86.7748133  27.1877070 141.5923369
  88.8610012  28.1834997 143.1899988  89.4410012  28.3334997 143.9369988
  89.2750012  28.6544997 142.4659988  88.9962997  28.2676578 143.1944058
  92.5600012  19.9334997 143.0029988  91.6600012  20.0724997 143.2979988
  92.8120012  20.7644997 142.6009988  92.4708702  20.0649074 142.9890205
  93.7490012  34.2994997 141.3789988  93.8230012  35.2384997 141.5499988
  94.6550012  33.9944997 141.3229988  93.8815100  34.3866722 141.3948119
  89.1620012  37.0304997 142.0419988  89.5370012  36.2864997 141.5709988
  89.1660012  36.7604997 142.9609988  89.2139125  36.8920986 142.1016483
  90.3390012  29.2164997 140.8199988  90.3810012  28.9934997 139.8899988
  91.1880012  29.6154997 141.0089988  90.4595280  29.2399438 140.7183554
  85.9110012  23.0924997 141.4899988  85.6580012  23.1114997 142.4129988
  85.6550012  22.2204997 141.1879988  85.8417481  22.9772558 141.5756175
  82.7940012  23.5374997 140.5909988  82.3630012  23.0924997 141.3209988
  82.0760012  23.9094997 140.0789988  82.6379438  23.5268940 140.6216799
  77.3100012  24.0254997 143.0669988  77.7840012  24.6164997 142.4819988
  76.5930012  24.5564997 143.4139988  77.2779341  24.1780867 143.0338836
  81.4120012  26.3154997 141.9729988  80.8690012  25.9354997 141.2819988
  82.2450012  26.5094997 141.5449988  81.4503631  26.2897125 141.8204501
  84.7470012  30.8804997 143.9089988  84.0020012  30.3734997 143.5869988
  84.6130012  30.9294997 144.8559988  84.6268776  30.8176940 143.9928647
  88.6450012  23.6944997 142.1079988  87.7060012  23.8064997 141.9569988
  88.9420012  24.5514997 142.4149988  88.5567583  23.8255981 142.1288337
  89.3630012  25.5614997 143.7689988  90.2550012  25.4244997 144.0879988
  89.4200012  26.3524997 143.2319988  89.4926504  25.6496052 143.7400818
  86.8730012  32.3394997 142.9349988  86.5770012  33.1654997 143.3159988
  86.1700012  31.7194997 143.1309988  86.7374914  32.3688199 143.0136443
  94.2480012  25.7714997 143.4639988  93.6940012  25.3754997 142.7919988
  94.3480012  26.6814997 143.1859988  94.1857059  25.8403586 143.3344401
  92.5430012  34.5574997 143.9289988  92.1700012  33.7314997 144.2379988
  92.8210012  34.3744997 143.0309988  92.5295222  34.4197430 143.8499473
  78.0020012  28.5554997 141.6699988  78.6180012  29.1824997 142.0499988
  77.1400012  28.8714997 141.9419988  77.9697698  28.6839430 141.7587183
  89.9360012  32.5334997 141.7489988  90.2890012  32.1534997 142.5529988
  88.9870012  32.4404997 141.8359988  89.8560918  32.4688956 141.8708532
  94.4390012  37.0134997 141.9499988  95.1830012  37.5994997 141.8099988
  93.7450012  37.5814997 142.2829988  94.4469899  37.1705798 141.9758778
  90.8020012  31.2064997 143.9759988  90.5240012  30.4784997 144.5319988
  91.7290012  31.3254997 144.1809988  90.8893124  31.1228802 144.0798845
  84.0270012  33.6454997 140.1959988  84.2660012  32.8974997 139.6489988
  83.7580012  33.2574997 141.0289988  84.0233675  33.4906638 140.2336865
  82.9640012  33.2154997 142.6519988  83.1100012  32.6954997 143.4419988
  82.9610012  34.1224997 142.9589988  82.9835792  33.2668842 142.8016117
  79.4170012  30.4684997 143.1629988  78.7310012  30.8204997 143.7299988
  79.9390012  31.2314997 142.9159988  79.3936852  30.6198578 143.2072118
  85.7010012  34.9134997 143.4019988  84.8850012  35.4104997 143.4539988
  86.2310012  35.3884997 142.7619988  85.6609161  35.0457722 143.3225956
  83.0400012  35.9574997 143.3829988  83.2000012  36.7564997 142.8829988
  82.8420012  36.2634997 144.2679988  83.0351637  36.1084020 143.4341144
  81.7740012  22.6544997 142.9989988  81.6910012  23.5434997 143.3459988
  82.6640012  22.3894997 143.2309988  81.8829469  22.7401430 143.0777626
  80.0330012  33.0824997 142.0599988  80.6250012  33.7814997 142.3359988
  80.4920012  32.6494997 141.3399988  80.1761142  33.1197049 142.0004830
  78.3490012  25.7464997 141.1759988  78.3040012  26.6854997 141.3539988
  77.4610012  25.5104997 140.9059988  78.2228574  25.8431892 141.1638912
  86.0650012  35.5084997 140.3349988  85.4210012  34.8774997 140.6559988
  86.8270012  34.9774997 140.1029988  86.0798077  35.3502920 140.3476011
  90.6690012  35.3254997 140.5679988  90.9520012  34.5314997 141.0209988
  91.4090012  35.5584997 140.0079988  90.8078006  35.2483376 140.5542715
  81.6240012  31.2354997 140.4259988  81.6880012  30.4414997 140.9569988
  82.2770012  31.1164997 139.7359988  81.7210241  31.1107148 140.4054317
  86.9760012  32.2824997 140.1619988  86.7070012  32.4624997 141.0629988
  86.7700012  31.3564997 140.0299988  86.9113427  32.1820261 140.2675073
  82.7730012  29.2074997 142.7319988  82.3130012  28.7234997 143.4179988
  83.0280012  28.5394997 142.0959988  82.7444902  29.0508731 142.7399334
  83.8440012  27.4504997 140.9939988  83.6640012  27.2964997 140.0669988
  84.7940012  27.5584997 141.0389988  83.9477776  27.4440175 140.8731843
  93.2340012  29.8054997 140.4399988  92.9600012  29.3804997 139.6269988
  93.2730012  30.7364997 140.2229988  93.2017699  29.8732484 140.2993610
  83.7410012  38.1414997 141.9949988  84.6740012  38.2994997 142.1389988
  83.4770012  38.8164997 141.3709988  83.8329888  38.2544510 141.9302842
  77.3100012  32.7774997 141.4779988  78.2240012  32.8564997 141.7519988
  77.3170012  32.0904997 140.8119988  77.4361131  32.6953961 141.4254393
  94.3550012  28.6284997 142.6299988  93.8330012  28.9854997 141.9109988
  94.3220012  29.3034997 143.3079988  94.2791634  28.7685413 142.6233145
  92.7040012  25.8684997 141.1799988  92.8000012  26.5354997 140.4999988
  92.5640012  25.0524997 140.6989988  92.6982272  25.8495655 141.0218347
  91.9510012  23.2764997 140.2979988  92.5620012  22.9054997 140.9349988
  91.1150012  22.8554997 140.4939988  91.9215032  23.1687554 140.4117035
  94.0640012  22.1614997 141.8399988  94.4760012  21.4404997 141.3649988
  94.7460012  22.8314997 141.8989988  94.2125885  22.1532368 141.7828915
  77.6210012  20.2094997 142.9459988  78.0600012  20.8204997 142.3539988
  76.9880012  20.7474997 143.4199988  77.5954514  20.3659257 142.9290930
  77.5220012  36.1574997 143.8429988  76.8370012  36.1194997 143.1759988
  77.5260012  37.0704997 144.1319988  77.4286998  36.2756733 143.7906771
  79.4820012  22.1254997 141.3879988  79.9740012  21.4954997 140.8609988
  80.1060012  22.4214997 142.0509988  79.6335688  22.0793804 141.4055482
  84.5080012  22.4184997 143.8449988  84.6860012  21.7724997 144.5279988
  84.4550012  23.2524997 144.3119988  84.5251999  22.4428009 144.0015917
  86.3870012  37.3674997 142.2409988  87.2530012  37.7334997 142.0629988
  86.1400012  36.9274997 141.4269988  86.4722392  37.3581756 142.1066289
  79.3400012  37.0774997 140.8689988  79.0730012  37.3644997 141.7419988
  80.1120012  36.5314997 141.0209988  79.4077488  37.0430294 141.0091050
 105.4940012  27.2694997 141.5919988 106.1950012  27.2914997 142.2429988
 105.7970012  26.6414997 140.9349988 105.6308133  27.1877070 141.5923369
 107.7170012  28.1834997 143.1899988 108.2970012  28.3334997 143.9369988
 108.1310012  28.6544997 142.4659988 107.8522997  28.2676578 143.1944058
 111.4160012  19.9334997 143.0029988 110.5160012  20.0724997 143.2979988
 111.6680012  20.7644997 142.6009988 111.3268702  20.0649074 142.9890205
 112.6050012  34.2994997 141.3789988 112.6790012  35.2384997 141.5499988
 113.5110012  33.9944997 141.3229988 112.7375100  34.3866722 141.3948119
 108.0180012  37.0304997 142.0419988 108.3930012  36.2864997 141.5709988
 108.0220012  36.7604997 142.9609988 108.0699125  36.8920986 142.1016483
 109.1950012  29.2164997 140.8199988 109.2370012  28.9934997 139.8899988
 110.0440012  29.6154997 141.0089988 109.3155280  29.2399438 140.7183554
 104.7670012  23.0924997 141.4899988 104.5140012  23.1114997 142.4129988
 104.5110012  22.2204997 141.1879988 104.6977481  22.9772558 141.5756175
 101.6500012  23.5374997 140.5909988 101.2190012  23.0924997 141.3209988
 100.9320012  23.9094997 140.0789988 101.4939438  23.5268940 140.6216799
  96.1660012  24.0254997 143.0669988  96.6400012  24.6164997 142.4819988
  95.4490012  24.5564997 143.4139988  96.1339341  24.1780867 143.0338836
 100.2680012  26.3154997 141.9729988  99.7250012  25.9354997 141.2819988
 101.1010012  26.5094997 141.5449988 100.3063631  26.2897125 141.8204501
 103.6030012  30.8804997 143.9089988 102.8580012  30.3734997 143.5869988
 103.4690012  30.9294997 144.8559988 103.4828776  30.8176940 143.9928647
 107.5010012  23.6944997 142.1079988 106.5620012  23.8064997 141.9569988
 107.7980012  24.5514997 142.4149988 107.4127583  23.8255981 142.1288337
 108.2190012  25.5614997 143.7689988 109.1110012  25.4244997 144.0879988
 108.2760012  26.3524997 143.2319988 108.3486504  25.6496052 143.7400818
 105.7290012  32.3394997 142.9349988 105.4330012  33.1654997 143.3159988
 105.0260012  31.7194997 143.1309988 105.5934914  32.3688199 143.0136443
 113.1040012  25.7714997 143.4639988 112.5500012  25.3754997 142.7919988
 113.2040012  26.6814997 143.1859988 113.0417059  25.8403586 143.3344401
 111.3990012  34.5574997 143.9289988 111.0260012  33.7314997 144.2379988
 111.6770012  34.3744997 143.0309988 111.3855222  34.4197430 143.8499473
  96.8580012  28.5554997 141.6699988  97.4740012  29.1824997 142.0499988
  95.9960012  28.8714997 141.9419988  96.8257698  28.6839430 141.7587183
 108.7920012  32.5334997 141.7489988 109.1450012  32.1534997 142.5529988
 107.8430012  32.4404997 141.8359988 108.7120918  32.4688956 141.8708532
 113.2950012  37.0134997 141.9499988 114.0390012  37.5994997 141.8099988
 112.6010012  37.5814997 142.2829988 113.3029899  37.1705798 141.9758778
 109.6580012  31.2064997 143.9759988 109.3800012  30.4784997 144.5319988
 110.5850012  31.3254997 144.1809988 109.7453124  31.1228802 144.0798845
 102.8830012  33.6454997 140.1959988 103.1220012  32.8974997 139.6489988
 102.6140012  33.2574997 141.0289988 102.8793675  33.4906638 140.2336865
 101.8200012  33.2154997 142.6519988 101.9660012  32.6954997 143.4419988
 101.8170012  34.1224997 142.9589988 101.8395792  33.2668842 142.8016117
  98.2730012  30.4684997 143.1629988  97.5870012  30.8204997 143.7299988
  98.7950012  31.2314997 142.9159988  98.2496852  30.6198578 143.2072118
 104.5570012  34.9134997 143.4019988 103.7410012  35.4104997 143.4539988
 105.0870012  35.3884997 142.7619988 104.5169161  35.0457722 143.3225956
 101.8960012  35.9574997 143.3829988 102.0560012  36.7564997 142.8829988
 101.6980012  36.2634997 144.2679988 101.8911637  36.1084020 143.4341144
 100.6300012  22.6544997 142.9989988 100.5470012  23.5434997 143.3459988
 101.5200012  22.3894997 143.2309988 100.7389469  22.7401430 143.0777626
  98.8890012  33.0824997 142.0599988  99.4810012  33.7814997 142.3359988
  99.3480012  32.6494997 141.3399988  99.0321142  33.1197049 142.0004830
  97.2050012  25.7464997 141.1759988  97.1600012  26.6854997 141.3539988
  96.3170012  25.5104997 140.9059988  97.0788574  25.8431892 141.1638912
 104.9210012  35.5084997 140.3349988 104.2770012  34.8774997 140.6559988
 105.6830012  34.9774997 140.1029988 104.9358077  35.3502920 140.3476011
 109.5250012  35.3254997 140.5679988 109.8080012  34.5314997 141.0209988
 110.2650012  35.5584997 140.0079988 109.6638006  35.2483376 140.5542715
 100.4800012  31.2354997 140.4259988 100.5440012  30.4414997 140.9569988
 101.1330012  31.1164997 139.7359988 100.5770241  31.1107148 140.4054317
 105.8320012  32.2824997 140.1619988 105.5630012  32.4624997 141.0629988
 105.6260012  31.3564997 140.0299988 105.7673427  32.1820261 140.2675073
 101.6290012  29.2074997 142.7319988 101.1690012  28.7234997 143.4179988
 101.8840012  28.5394997 142.0959988 101.6004902  29.0508731 142.7399334
 102.7000012  27.4504997 140.9939988 102.5200012  27.2964997 140.0669988
 103.6500012  27.5584997 141.0389988 102.8037776  27.4440175 140.8731843
 112.0900012  29.8054997 140.4399988 111.8160012  29.3804997 139.6269988
 112.1290012  30.7364997 140.2229988 112.0577699  29.8732484 140.2993610
 102.5970012  38.1414997 141.9949988 103.5300012  38.2994997 142.1389988
 102.3330012  38.8164997 141.3709988 102.6889888  38.2544510 141.9302842
  96.1660012  32.7774997 141.4779988  97.0800012  32.8564997 141.7519988
  96.1730012  32.0904997 140.8119988  96.2921131  32.6953961 141.4254393
 113.2110012  28.6284997 142.6299988 112.6890012  28.9854997 141.9109988
 113.1780012  29.3034997 143.3079988 113.1351634  28.7685413 142.6233145
 111.5600012  25.8684997 141.1799988 111.6560012  26.5354997 140.4999988
 111.4200012  25.0524997 140.6989988 111.5542272  25.8495655 141.0218347
 110.8070012  23.2764997 140.2979988 111.4180012  22.9054997 140.9349988
 109.9710012  22.8554997 140.4939988 110.7775032  23.1687554 140.4117035
 112.9200012  22.1614997 141.8399988 113.3320012  21.4404997 141.3649988
 113.6020012  22.8314997 141.8989988 113.0685885  22.1532368 141.7828915
  96.4770012  20.2094997 142.9459988  96.9160012  20.8204997 142.3539988
  95.8440012  20.7474997 143.4199988  96.4514514  20.3659257 142.9290930
  96.3780012  36.1574997 143.8429988  95.6930012  36.1194997 143.1759988
  96.3820012  37.0704997 144.1319988  96.2846998  36.2756733 143.7906771
  98.3380012  22.1254997 141.3879988  98.8300012  21.4954997 140.8609988
  98.9620012  22.4214997 142.0509988  98.4895688  22.0793804 141.4055482
 103.3640012  22.4184997 143.8449988 103.5420012  21.7724997 144.5279988
 103.3110012  23.2524997 144.3119988 103.3811999  22.4428009 144.0015917
 105.2430012  37.3674997 142.2409988 106.1090012  37.7334997 142.0629988
 104.9960012  36.9274997 141.4269988 105.3282392  37.3581756 142.1066289
  98.1960012  37.0774997 140.8689988  97.9290012  37.3644997 141.7419988
  98.9680012  36.5314997 141.0209988  98.2637488  37.0430294 141.0091050
 124.3500012  27.2694997 141.5919988 125.0510012  27.2914997 142.2429988
 124.6530012  26.6414997 140.9349988 124.4868133  27.1877070 141.5923369
 126.5730012  28.1834997 143.1899988 127.1530012  28.3334997 143.9369988
 126.9870012  28.6544997 142.4659988 126.7082997  28.2676578 143.1944058
 130.2720012  19.9334997 143.0029988 129.3720012  20.0724997 143.2979988
 130.5240012  20.7644997 142.6009988 130.1828702  20.0649074 142.9890205
 131.4610012  34.2994997 141.3789988 131.5350012  35.2384997 141.5499988
 132.3670012  33.9944997 141.3229988 131.5935100  34.3866722 141.3948119
 126.8740012  37.0304997 142.0419988 127.2490012  36.2864997 141.5709988
 126.8780012  36.7604997 142.9609988 126.9259125  36.8920986 142.1016483
 128.0510012  29.2164997 140.8199988 128.0930012  28.9934997 139.8899988
 128.9000012  29.6154997 141.0089988 128.1715280  29.2399438 140.7183554
 123.6230012  23.0924997 141.4899988 123.3700012  23.1114997 142.4129988
 123.3670012  22.2204997 141.1879988 123.5537481  22.9772558 141.5756175
 120.5060012  23.5374997 140.5909988 120.0750012  23.0924997 141.3209988
 119.7880012  23.9094997 140.0789988 120.3499438  23.5268940 140.6216799
 115.0220012  24.0254997 143.0669988 115.4960012  24.6164997 142.4819988
 114.3050012  24.5564997 143.4139988 114.9899341  24.1780867 143.0338836
 119.1240012  26.3154997 141.9729988 118.5810012  25.9354997 141.2819988
 119.9570012  26.5094997 141.5449988 119.1623631  26.2897125 141.8204501
 122.4590012  30.8804997 143.9089988 121.7140012  30.3734997 143.5869988
 122.3250012  30.9294997 144.8559988 122.3388776  30.8176940 143.9928647
 126.3570012  23.6944997 142.1079988 125.4180012  23.8064997 141.9569988
 126.6540012  24.5514997 142.4149988 126.2687583  23.8255981 142.1288337
 127.0750012  25.5614997 143.7689988 127.9670012  25.4244997 144.0879988
 127.1320012  26.3524997 143.2319988 127.2046504  25.6496052 143.7400818
 124.5850012  32.3394997 142.9349988 124.2890012  33.1654997 143.3159988
 123.8820012  31.7194997 143.1309988 124.4494914  32.3688199 143.0136443
 131.9600012  25.7714997 143.4639988 131.4060012  25.3754997 142.7919988
 132.0600012  26.6814997 143.1859988 131.8977059  25.8403586 143.3344401
 130.2550012  34.5574997 143.9289988 129.8820012  33.7314997 144.2379988
 130.5330012  34.3744997 143.0309988 130.2415222  34.4197430 143.8499473
 115.7140012  28.5554997 141.6699988 116.3300012  29.1824997 142.0499988
 114.8520012  28.8714997 141.9419988 115.6817698  28.6839430 141.7587183
 127.6480012  32.5334997 141.7489988 128.0010012  32.1534997 142.5529988
 126.6990012  32.4404997 141.8359988 127.5680918  32.4688956 141.8708532
 132.1510012  37.0134997 141.9499988 132.8950012  37.5994997 141.8099988
 131.4570012  37.5814997 142.2829988 132.1589899  37.1705798 141.9758778
 128.5140012  31.2064997 143.9759988 128.2360012  30.4784997 144.5319988
 129.4410012  31.3254997 144.1809988 128.6013124  31.1228802 144.0798845
 121.7390012  33.6454997 140.1959988 121.9780012  32.8974997 139.6489988
 121.4700012  33.2574997 141.0289988 121.7353675  33.4906638 140.2336865
 120.6760012  33.2154997 142.6519988 120.8220012  32.6954997 143.4419988
 120.6730012  34.1224997 142.9589988 120.6955792  33.2668842 142.8016117
 117.1290012  30.4684997 143.1629988 116.4430012  30.8204997 143.7299988
 117.6510012  31.2314997 142.9159988 117.1056852  30.6198578 143.2072118
 123.4130012  34.9134997 143.4019988 122.5970012  35.4104997 143.4539988
 123.9430012  35.3884997 142.7619988 123.3729161  35.0457722 143.3225956
 120.7520012  35.9574997 143.3829988 120.9120012  36.7564997 142.8829988
 120.5540012  36.2634997 144.2679988 120.7471637  36.1084020 143.4341144
 119.4860012  22.6544997 142.9989988 119.4030012  23.5434997 143.3459988
 120.3760012  22.3894997 143.2309988 119.5949469  22.7401430 143.0777626
 117.7450012  33.0824997 142.0599988 118.3370012  33.7814997 142.3359988
 118.2040012  32.6494997 141.3399988 117.8881142  33.1197049 142.0004830
 116.0610012  25.7464997 141.1759988 116.0160012  26.6854997 141.3539988
 115.1730012  25.5104997 140.9059988 115.9348574  25.8431892 141.1638912
 123.7770012  35.5084997 140.3349988 123.1330012  34.8774997 140.6559988
 124.5390012  34.9774997 140.1029988 123.7918077  35.3502920 140.3476011
 128.3810012  35.3254997 140.5679988 128.6640012  34.5314997 141.0209988
 129.1210012  35.5584997 140.0079988 128.5198006  35.2483376 140.5542715
 119.3360012  31.2354997 140.4259988 119.4000012  30.4414997 140.9569988
 119.9890012  31.1164997 139.7359988 119.4330241  31.1107148 140.4054317
 124.6880012  32.2824997 140.1619988 124.4190012  32.4624997 141.0629988
 124.4820012  31.3564997 140.0299988 124.6233427  32.1820261 140.2675073
 120.4850012  29.2074997 142.7319988 120.0250012  28.7234997 143.4179988
 120.7400012  28.5394997 142.0959988 120.4564902  29.0508731 142.7399334
 121.5560012  27.4504997 140.9939988 121.3760012  27.2964997 140.0669988
 122.5060012  27.5584997 141.0389988 121.6597776  27.4440175 140.8731843
 130.9460012  29.8054997 140.4399988 130.6720012  29.3804997 139.6269988
 130.9850012  30.7364997 140.2229988 130.9137699  29.8732484 140.2993610
 121.4530012  38.1414997 141.9949988 122.3860012  38.2994997 142.1389988
 121.1890012  38.8164997 141.3709988 121.5449888  38.2544510 141.9302842
 115.0220012  32.7774997 141.4779988 115.9360012  32.8564997 141.7519988
 115.0290012  32.0904997 140.8119988 115.1481131  32.6953961 141.4254393
 132.0670012  28.6284997 142.6299988 131.5450012  28.9854997 141.9109988
 132.0340012  29.3034997 143.3079988 131.9911634  28.7685413 142.6233145
 130.4160012  25.8684997 141.1799988 130.5120012  26.5354997 140.4999988
 130.2760012  25.0524997 140.6989988 130.4102272  25.8495655 141.0218347
 129.6630012  23.2764997 140.2979988 130.2740012  22.9054997 140.9349988
 128.8270012  22.8554997 140.4939988 129.6335032  23.1687554 140.4117035
 131.7760012  22.1614997 141.8399988 132.1880012  21.4404997 141.3649988
 132.4580012  22.8314997 141.8989988 131.9245885  22.1532368 141.7828915
 115.3330012  20.2094997 142.9459988 115.7720012  20.8204997 142.3539988
 114.7000012  20.7474997 143.4199988 115.3074514  20.3659257 142.9290930
 115.2340012  36.1574997 143.8429988 114.5490012  36.1194997 143.1759988
 115.2380012  37.0704997 144.1319988 115.1406998  36.2756733 143.7906771
 117.1940012  22.1254997 141.3879988 117.6860012  21.4954997 140.8609988
 117.8180012  22.4214997 142.0509988 117.3455688  22.0793804 141.4055482
 122.2200012  22.4184997 143.8449988 122.3980012  21.7724997 144.5279988
 122.1670012  23.2524997 144.3119988 122.2371999  22.4428009 144.0015917
 124.0990012  37.3674997 142.2409988 124.9650012  37.7334997 142.0629988
 123.8520012  36.9274997 141.4269988 124.1842392  37.3581756 142.1066289
 117.0520012  37.0774997 140.8689988 116.7850012  37.3644997 141.7419988
 117.8240012  36.5314997 141.0209988 117.1197488  37.0430294 141.0091050
 143.2060012  27.2694997 141.5919988 143.9070012  27.2914997 142.2429988
 143.5090012  26.6414997 140.9349988 143.3428133  27.1877070 141.5923369
 142.4790012  23.0924997 141.4899988 142.2260012  23.1114997 142.4129988
 142.2230012  22.2204997 141.1879988 142.4097481  22.9772558 141.5756175
 139.3620012  23.5374997 140.5909988 138.9310012  23.0924997 141.3209988
 138.6440012  23.9094997 140.0789988 139.2059438  23.5268940 140.6216799
 133.8780012  24.0254997 143.0669988 134.3520012  24.6164997 142.4819988
 133.1610012  24.5564997 143.4139988 133.8459341  24.1780867 143.0338836
 137.9800012  26.3154997 141.9729988 137.4370012  25.9354997 141.2819988
 138.8130012  26.5094997 141.5449988 138.0183631  26.2897125 141.8204501
 141.3150012  30.8804997 143.9089988 140.5700012  30.3734997 143.5869988
 141.1810012  30.9294997 144.8559988 141.1948776  30.8176940 143.9928647
 143.4410012  32.3394997 142.9349988 143.1450012  33.1654997 143.3159988
 142.7380012  31.7194997 143.1309988 143.3054914  32.3688199 143.0136443
 134.5700012  28.5554997 141.6699988 135.1860012  29.1824997 142.0499988
 133.7080012  28.8714997 141.9419988 134.5377698  28.6839430 141.7587183
 140.5950012  33.6454997 140.1959988 140.8340012  32.8974997 139.6489988
 140.3260012  33.2574997 141.0289988 140.5913675  33.4906638 140.2336865
 139.5320012  33.2154997 142.6519988 139.6780012  32.6954997 143.4419988
 139.5290012  34.1224997 142.9589988 139.5515792  33.2668842 142.8016117
 135.9850012  30.4684997 143.1629988 135.2990012  30.8204997 143.7299988
 136.5070012  31.2314997 142.9159988 135.9616852  30.6198578 143.2072118
 142.2690012  34.9134997 143.4019988 141.4530012  35.4104997 143.4539988
 142.7990012  35.3884997 142.7619988 142.2289161  35.0457722 143.3225956
 139.6080012  35.9574997 143.3829988 139.7680012  36.7564997 142.8829988
 139.4100012  36.2634997 144.2679988 139.6031637  36.1084020 143.4341144
 138.3420012  22.6544997 142.9989988 138.2590012  23.5434997 143.3459988
 139.2320012  22.3894997 143.2309988 138.4509469  22.7401430 143.0777626
 136.6010012  33.0824997 142.0599988 137.1930012  33.7814997 142.3359988
 137.0600012  32.6494997 141.3399988 136.7441142  33.1197049 142.0004830
 134.9170012  25.7464997 141.1759988 134.8720012  26.6854997 141.3539988
 134.0290012  25.5104997 140.9059988 134.7908574  25.8431892 141.1638912
 142.6330012  35.5084997 140.3349988 141.9890012  34.8774997 140.6559988
 143.3950012  34.9774997 140.1029988 142.6478077  35.3502920 140.3476011
 138.1920012  31.2354997 140.4259988 138.2560012  30.4414997 140.9569988
 138.8450012  31.1164997 139.7359988 138.2890241  31.1107148 140.4054317
 143.5440012  32.2824997 140.1619988 143.2750012  32.4624997 141.0629988
 143.3380012  31.3564997 140.0299988 143.4793427  32.1820261 140.2675073
 139.3410012  29.2074997 142.7319988 138.8810012  28.7234997 143.4179988
 139.5960012  28.5394997 142.0959988 139.3124902  29.0508731 142.7399334
 140.4120012  27.4504997 140.9939988 140.2320012  27.2964997 140.0669988
 141.3620012  27.5584997 141.0389988 140.5157776  27.4440175 140.8731843
 140.3090012  38.1414997 141.9949988 141.2420012  38.2994997 142.1389988
 140.0450012  38.8164997 141.3709988 140.4009888  38.2544510 141.9302842
 133.8780012  32.7774997 141.4779988 134.7920012  32.8564997 141.7519988
 133.8850012  32.0904997 140.8119988 134.0041131  32.6953961 141.4254393
 134.1890012  20.2094997 142.9459988 134.6280012  20.8204997 142.3539988
 133.5560012  20.7474997 143.4199988 134.1634514  20.3659257 142.9290930
 134.0900012  36.1574997 143.8429988 133.4050012  36.1194997 143.1759988
 134.0940012  37.0704997 144.1319988 133.9966998  36.2756733 143.7906771
 136.0500012  22.1254997 141.3879988 136.5420012  21.4954997 140.8609988
 136.6740012  22.4214997 142.0509988 136.2015688  22.0793804 141.4055482
 141.0760012  22.4184997 143.8449988 141.2540012  21.7724997 144.5279988
 141.0230012  23.2524997 144.3119988 141.0931999  22.4428009 144.0015917
 142.9550012  37.3674997 142.2409988 143.8210012  37.7334997 142.0629988
 142.7080012  36.9274997 141.4269988 143.0402392  37.3581756 142.1066289
 135.9080012  37.0774997 140.8689988 135.6410012  37.3644997 141.7419988
 136.6800012  36.5314997 141.0209988 135.9757488  37.0430294 141.0091050
  11.2140012  46.1254997 141.5919988  11.9150012  46.1474997 142.2429988
  11.5170012  45.4974997 140.9349988  11.3508133  46.0437070 141.5923369
  13.4370012  47.0394997 143.1899988  14.0170012  47.1894997 143.9369988
  13.8510012  47.5104997 142.4659988  13.5722997  47.1236578 143.1944058
  17.1360012  38.7894997 143.0029988  16.2360012  38.9284997 143.2979988
  17.3880012  39.6204997 142.6009988  17.0468702  38.9209074 142.9890205
  18.3250012  53.1554997 141.3789988  18.3990012  54.0944997 141.5499988
  19.2310012  52.8504997 141.3229988  18.4575100  53.2426722 141.3948119
  13.7380012  55.8864997 142.0419988  14.1130012  55.1424997 141.5709988
  13.7420012  55.6164997 142.9609988  13.7899125  55.7480986 142.1016483
  14.9150012  48.0724997 140.8199988  14.9570012  47.8494997 139.8899988
  15.7640012  48.4714997 141.0089988  15.0355280  48.0959438 140.7183554
  10.4870012  41.9484997 141.4899988  10.2340012  41.9674997 142.4129988
  10.2310012  41.0764997 141.1879988  10.4177481  41.8332558 141.5756175
   7.3700012  42.3934997 140.5909988   6.9390012  41.9484997 141.3209988
   6.6520012  42.7654997 140.0789988   7.2139438  42.3828940 140.6216799
   1.8860012  42.8814997 143.0669988   2.3600012  43.4724997 142.4819988
   1.1690012  43.4124997 143.4139988   1.8539341  43.0340867 143.0338836
   5.9880012  45.1714997 141.9729988   5.4450012  44.7914997 141.2819988
   6.8210012  45.3654997 141.5449988   6.0263631  45.1457125 141.8204501
   9.3230012  49.7364997 143.9089988   8.5780012  49.2294997 143.5869988
   9.1890012  49.7854997 144.8559988   9.2028776  49.6736940 143.9928647
  13.2210012  42.5504997 142.1079988  12.2820012  42.6624997 141.9569988
  13.5180012  43.4074997 142.4149988  13.1327583  42.6815981 142.1288337
  13.9390012  44.4174997 143.7689988  14.8310012  44.2804997 144.0879988
  13.9960012  45.2084997 143.2319988  14.0686504  44.5056052 143.7400818
  11.4490012  51.1954997 142.9349988  11.1530012  52.0214997 143.3159988
  10.7460012  50.5754997 143.1309988  11.3134914  51.2248199 143.0136443
  18.8240012  44.6274997 143.4639988  18.2700012  44.2314997 142.7919988
  18.9240012  45.5374997 143.1859988  18.7617059  44.6963586 143.3344401
  17.1190012  53.4134997 143.9289988  16.7460012  52.5874997 144.2379988
  17.3970012  53.2304997 143.0309988  17.1055222  53.2757430 143.8499473
   2.5780012  47.4114997 141.6699988   3.1940012  48.0384997 142.0499988
   1.7160012  47.7274997 141.9419988   2.5457698  47.5399430 141.7587183
  14.5120012  51.3894997 141.7489988  14.8650012  51.0094997 142.5529988
  13.5630012  51.2964997 141.8359988  14.4320918  51.3248956 141.8708532
  19.0150012  55.8694997 141.9499988  19.7590012  56.4554997 141.8099988
  18.3210012  56.4374997 142.2829988  19.0229899  56.0265798 141.9758778
  15.3780012  50.0624997 143.9759988  15.1000012  49.3344997 144.5319988
  16.3050012  50.1814997 144.1809988  15.4653124  49.9788802 144.0798845
   8.6030012  52.5014997 140.1959988   8.8420012  51.7534997 139.6489988
   8.3340012  52.1134997 141.0289988   8.5993675  52.3466638 140.2336865
   7.5400012  52.0714997 142.6519988   7.6860012  51.5514997 143.4419988
   7.5370012  52.9784997 142.9589988   7.5595792  52.1228842 142.8016117
   3.9930012  49.3244997 143.1629988   3.3070012  49.6764997 143.7299988
   4.5150012  50.0874997 142.9159988   3.9696852  49.4758578 143.2072118
  10.2770012  53.7694997 143.4019988   9.4610012  54.2664997 143.4539988
  10.8070012  54.2444997 142.7619988  10.2369161  53.9017722 143.3225956
   7.6160012  54.8134997 143.3829988   7.7760012  55.6124997 142.8829988
   7.4180012  55.1194997 144.2679988   7.6111637  54.9644020 143.4341144
   6.3500012  41.5104997 142.9989988   6.2670012  42.3994997 143.3459988
   7.2400012  41.2454997 143.2309988   6.4589469  41.5961430 143.0777626
   4.6090012  51.9384997 142.0599988   5.2010012  52.6374997 142.3359988
   5.0680012  51.5054997 141.3399988   4.7521142  51.9757049 142.0004830
   2.9250012  44.6024997 141.1759988   2.8800012  45.5414997 141.3539988
   2.0370012  44.3664997 140.9059988   2.7988574  44.6991892 141.1638912
  10.6410012  54.3644997 140.3349988   9.9970012  53.7334997 140.6559988
  11.4030012  53.8334997 140.1029988  10.6558077  54.2062920 140.3476011
  15.2450012  54.1814997 140.5679988  15.5280012  53.3874997 141.0209988
  15.9850012  54.4144997 140.0079988  15.3838006  54.1043376 140.5542715
   6.2000012  50.0914997 140.4259988   6.2640012  49.2974997 140.9569988
   6.8530012  49.9724997 139.7359988   6.2970241  49.9667148 140.4054317
  11.5520012  51.1384997 140.1619988  11.2830012  51.3184997 141.0629988
  11.3460012  50.2124997 140.0299988  11.4873427  51.0380261 140.2675073
   7.3490012  48.0634997 142.7319988   6.8890012  47.5794997 143.4179988
   7.6040012  47.3954997 142.0959988   7.3204902  47.9068731 142.7399334
   8.4200012  46.3064997 140.9939988   8.2400012  46.1524997 140.0669988
   9.3700012  46.4144997 141.0389988   8.5237776  46.3000175 140.8731843
  17.8100012  48.6614997 140.4399988  17.5360012  48.2364997 139.6269988
  17.8490012  49.5924997 140.2229988  17.7777699  48.7292484 140.2993610
   8.3170012  56.9974997 141.9949988   9.2500012  57.1554997 142.1389988
   8.0530012  57.6724997 141.3709988   8.4089888  57.1104510 141.9302842
   1.8860012  51.6334997 141.4779988   2.8000012  51.7124997 141.7519988
   1.8930012  50.9464997 140.8119988   2.0121131  51.5513961 141.4254393
  18.9310012  47.4844997 142.6299988  18.4090012  47.8414997 141.9109988
  18.8980012  48.1594997 143.3079988  18.8551634  47.6245413 142.6233145
  17.2800012  44.7244997 141.1799988  17.3760012  45.3914997 140.4999988
  17.1400012  43.9084997 140.6989988  17.2742272  44.7055655 141.0218347
  16.5270012  42.1324997 140.2979988  17.1380012  41.7614997 140.9349988
  15.6910012  41.7114997 140.4939988  16.4975032  42.0247554 140.4117035
  18.6400012  41.0174997 141.8399988  19.0520012  40.2964997 141.3649988
  19.3220012  41.6874997 141.8989988  18.7885885  41.0092368 141.7828915
   2.1970012  39.0654997 142.9459988   2.6360012  39.6764997 142.3539988
   1.5640012  39.6034997 143.4199988   2.1714514  39.2219257 142.9290930
   2.0980012  55.0134997 143.8429988   1.4130012  54.9754997 143.1759988
   2.1020012  55.9264997 144.1319988   2.0046998  55.1316733 143.7906771
   4.0580012  40.9814997 141.3879988   4.5500012  40.3514997 140.8609988
   4.6820012  41.2774997 142.0509988   4.2095688  40.9353804 141.4055482
   9.0840012  41.2744997 143.8449988   9.2620012  40.6284997 144.5279988
   9.0310012  42.1084997 144.3119988   9.1011999  41.2988009 144.0015917
  10.9630012  56.2234997 142.2409988  11.8290012  56.5894997 142.0629988
  10.7160012  55.7834997 141.4269988  11.0482392  56.2141756 142.1066289
   3.9160012  55.9334997 140.8689988   3.6490012  56.2204997 141.7419988
   4.6880012  55.3874997 141.0209988   3.9837488  55.8990294 141.0091050
  30.0700012  46.1254997 141.5919988  30.7710012  46.1474997 142.2429988
  30.3730012  45.4974997 140.9349988  30.2068133  46.0437070 141.5923369
  32.2930012  47.0394997 143.1899988  32.8730012  47.1894997 143.9369988
  32.7070012  47.5104997 142.4659988  32.4282997  47.1236578 143.1944058
  35.9920012  38.7894997 143.0029988  35.0920012  38.9284997 143.2979988
  36.2440012  39.6204997 142.6009988  35.9028702  38.9209074 142.9890205
  37.1810012  53.1554997 141.3789988  37.2550012  54.0944997 141.5499988
  38.0870012  52.8504997 141.3229988  37.3135100  53.2426722 141.3948119
  32.5940012  55.8864997 142.0419988  32.9690012  55.1424997 141.5709988
  32.5980012  55.6164997 142.9609988  32.6459125  55.7480986 142.1016483
  33.7710012  48.0724997 140.8199988  33.8130012  47.8494997 139.8899988
  34.6200012  48.4714997 141.0089988  33.8915280  48.0959438 140.7183554
  29.3430012  41.9484997 141.4899988  29.0900012  41.9674997 142.4129988
  29.0870012  41.0764997 141.1879988  29.2737481  41.8332558 141.5756175
  26.2260012  42.3934997 140.5909988  25.7950012  41.9484997 141.3209988
  25.5080012  42.7654997 140.0789988  26.0699438  42.3828940 140.6216799
  20.7420012  42.8814997 143.0669988  21.2160012  43.4724997 142.4819988
  20.0250012  43.4124997 143.4139988  20.7099341  43.0340867 143.0338836
  24.8440012  45.1714997 141.9729988  24.3010012  44.7914997 141.2819988
  25.6770012  45.3654997 141.5449988  24.8823631  45.1457125 141.8204501
  28.1790012  49.7364997 143.9089988  27.4340012  49.2294997 143.5869988
  28.0450012  49.7854997 144.8559988  28.0588776  49.6736940 143.9928647
  32.0770012  42.5504997 142.1079988  31.1380012  42.6624997 141.9569988
  32.3740012  43.4074997 142.4149988  31.9887583  42.6815981 142.1288337
  32.7950012  44.4174997 143.7689988  33.6870012  44.2804997 144.0879988
  32.8520012  45.2084997 143.2319988  32.9246504  44.5056052 143.7400818
  30.3050012  51.1954997 142.9349988  30.0090012  52.0214997 143.3159988
  29.6020012  50.5754997 143.1309988  30.1694914  51.2248199 143.0136443
  37.6800012  44.6274997 143.4639988  37.1260012  44.2314997 142.7919988
  37.7800012  45.5374997 143.1859988  37.6177059  44.6963586 143.3344401
  35.9750012  53.4134997 143.9289988  35.6020012  52.5874997 144.2379988
  36.2530012  53.2304997 143.0309988  35.9615222  53.2757430 143.8499473
  21.4340012  47.4114997 141.6699988  22.0500012  48.0384997 142.0499988
  20.5720012  47.7274997 141.9419988  21.4017698  47.5399430 141.7587183
  33.3680012  51.3894997 141.7489988  33.7210012  51.0094997 142.5529988
  32.4190012  51.2964997 141.8359988  33.2880918  51.3248956 141.8708532
  37.8710012  55.8694997 141.9499988  38.6150012  56.4554997 141.8099988
  37.1770012  56.4374997 142.2829988  37.8789899  56.0265798 141.9758778
  34.2340012  50.0624997 143.9759988  33.9560012  49.3344997 144.5319988
  35.1610012  50.1814997 144.1809988  34.3213124  49.9788802 144.0798845
  27.4590012  52.5014997 140.1959988  27.6980012  51.7534997 139.6489988
  27.1900012  52.1134997 141.0289988  27.4553675  52.3466638 140.2336865
  26.3960012  52.0714997 142.6519988  26.5420012  51.5514997 143.4419988
  26.3930012  52.9784997 142.9589988  26.4155792  52.1228842 142.8016117
  22.8490012  49.3244997 143.1629988  22.1630012  49.6764997 143.7299988
  23.3710012  50.0874997 142.9159988  22.8256852  49.4758578 143.2072118
  29.1330012  53.7694997 143.4019988  28.3170012  54.2664997 143.4539988
  29.6630012  54.2444997 142.7619988  29.0929161  53.9017722 143.3225956
  26.4720012  54.8134997 143.3829988  26.6320012  55.6124997 142.8829988
  26.2740012  55.1194997 144.2679988  26.4671637  54.9644020 143.4341144
  25.2060012  41.5104997 142.9989988  25.1230012  42.3994997 143.3459988
  26.0960012  41.2454997 143.2309988  25.3149469  41.5961430 143.0777626
  23.4650012  51.9384997 142.0599988  24.0570012  52.6374997 142.3359988
  23.9240012  51.5054997 141.3399988  23.6081142  51.9757049 142.0004830
  21.7810012  44.6024997 141.1759988  21.7360012  45.5414997 141.3539988
  20.8930012  44.3664997 140.9059988  21.6548574  44.6991892 141.1638912
  29.4970012  54.3644997 140.3349988  28.8530012  53.7334997 140.6559988
  30.2590012  53.8334997 140.1029988  29.5118077  54.2062920 140.3476011
  34.1010012  54.1814997 140.5679988  34.3840012  53.3874997 141.0209988
  34.8410012  54.4144997 140.0079988  34.2398006  54.1043376 140.5542715
  25.0560012  50.0914997 140.4259988  25.1200012  49.2974997 140.9569988
  25.7090012  49.9724997 139.7359988  25.1530241  49.9667148 140.4054317
  30.4080012  51.1384997 140.1619988  30.1390012  51.3184997 141.0629988
  30.2020012  50.2124997 140.0299988  30.3433427  51.0380261 140.2675073
  26.2050012  48.0634997 142.7319988  25.7450012  47.5794997 143.4179988
  26.4600012  47.3954997 142.0959988  26.1764902  47.9068731 142.7399334
  27.2760012  46.3064997 140.9939988  27.0960012  46.1524997 140.0669988
  28.2260012  46.4144997 141.0389988  27.3797776  46.3000175 140.8731843
  36.6660012  48.6614997 140.4399988  36.3920012  48.2364997 139.6269988
  36.7050012  49.5924997 140.2229988  36.6337699  48.7292484 140.2993610
  27.1730012  56.9974997 141.9949988  28.1060012  57.1554997 142.1389988
  26.9090012  57.6724997 141.3709988  27.2649888  57.1104510 141.9302842
  20.7420012  51.6334997 141.4779988  21.6560012  51.7124997 141.7519988
  20.7490012  50.9464997 140.8119988  20.8681131  51.5513961 141.4254393
  37.7870012  47.4844997 142.6299988  37.2650012  47.8414997 141.9109988
  37.7540012  48.1594997 143.3079988  37.7111634  47.6245413 142.6233145
  36.1360012  44.7244997 141.1799988  36.2320012  45.3914997 140.4999988
  35.9960012  43.9084997 140.6989988  36.1302272  44.7055655 141.0218347
  35.3830012  42.1324997 140.2979988  35.9940012  41.7614997 140.9349988
  34.5470012  41.7114997 140.4939988  35.3535032  42.0247554 140.4117035
  37.4960012  41.0174997 141.8399988  37.9080012  40.2964997 141.3649988
  38.1780012  41.6874997 141.8989988  37.6445885  41.0092368 141.7828915
  21.0530012  39.0654997 142.9459988  21.4920012  39.6764997 142.3539988
  20.4200012  39.6034997 143.4199988  21.0274514  39.2219257 142.9290930
  20.9540012  55.0134997 143.8429988  20.2690012  54.9754997 143.1759988
  20.9580012  55.9264997 144.1319988  20.8606998  55.1316733 143.7906771
  22.9140012  40.9814997 141.3879988  23.4060012  40.3514997 140.8609988
  23.5380012  41.2774997 142.0509988  23.0655688  40.9353804 141.4055482
  27.9400012  41.2744997 143.8449988  28.1180012  40.6284997 144.5279988
  27.8870012  42.1084997 144.3119988  27.9571999  41.2988009 144.0015917
  29.8190012  56.2234997 142.2409988  30.6850012  56.5894997 142.0629988
  29.5720012  55.7834997 141.4269988  29.9042392  56.2141756 142.1066289
  22.7720012  55.9334997 140.8689988  22.5050012  56.2204997 141.7419988
  23.5440012  55.3874997 141.0209988  22.8397488  55.8990294 141.0091050
  48.9260012  46.1254997 141.5919988  49.6270012  46.1474997 142.2429988
  49.2290012  45.4974997 140.9349988  49.0628133  46.0437070 141.5923369
  51.1490012  47.0394997 143.1899988  51.7290012  47.1894997 143.9369988
  51.5630012  47.5104997 142.4659988  51.2842997  47.1236578 143.1944058
  54.8480012  38.7894997 143.0029988  53.9480012  38.9284997 143.2979988
  55.1000012  39.6204997 142.6009988  54.7588702  38.9209074 142.9890205
  56.0370012  53.1554997 141.3789988  56.1110012  54.0944997 141.5499988
  56.9430012  52.8504997 141.3229988  56.1695100  53.2426722 141.3948119
  51.4500012  55.8864997 142.0419988  51.8250012  55.1424997 141.5709988
  51.4540012  55.6164997 142.9609988  51.5019125  55.7480986 142.1016483
  52.6270012  48.0724997 140.8199988  52.6690012  47.8494997 139.8899988
  53.4760012  48.4714997 141.0089988  52.7475280  48.0959438 140.7183554
  48.1990012  41.9484997 141.4899988  47.9460012  41.9674997 142.4129988
  47.9430012  41.0764997 141.1879988  48.1297481  41.8332558 141.5756175
  45.0820012  42.3934997 140.5909988  44.6510012  41.9484997 141.3209988
  44.3640012  42.7654997 140.0789988  44.9259438  42.3828940 140.6216799
  39.5980012  42.8814997 143.0669988  40.0720012  43.4724997 142.4819988
  38.8810012  43.4124997 143.4139988  39.5659341  43.0340867 143.0338836
  43.7000012  45.1714997 141.9729988  43.1570012  44.7914997 141.2819988
  44.5330012  45.3654997 141.5449988  43.7383631  45.1457125 141.8204501
  47.0350012  49.7364997 143.9089988  46.2900012  49.2294997 143.5869988
  46.9010012  49.7854997 144.8559988  46.9148776  49.6736940 143.9928647
  50.9330012  42.5504997 142.1079988  49.9940012  42.6624997 141.9569988
  51.2300012  43.4074997 142.4149988  50.8447583  42.6815981 142.1288337
  51.6510012  44.4174997 143.7689988  52.5430012  44.2804997 144.0879988
  51.7080012  45.2084997 143.2319988  51.7806504  44.5056052 143.7400818
  49.1610012  51.1954997 142.9349988  48.8650012  52.0214997 143.3159988
  48.4580012  50.5754997 143.1309988  49.0254914  51.2248199 143.0136443
  56.5360012  44.6274997 143.4639988  55.9820012  44.2314997 142.7919988
  56.6360012  45.5374997 143.1859988  56.4737059  44.6963586 143.3344401
  54.8310012  53.4134997 143.9289988  54.4580012  52.5874997 144.2379988
  55.1090012  53.2304997 143.0309988  54.8175222  53.2757430 143.8499473
  40.2900012  47.4114997 141.6699988  40.9060012  48.0384997 142.0499988
  39.4280012  47.7274997 141.9419988  40.2577698  47.5399430 141.7587183
  52.2240012  51.3894997 141.7489988  52.5770012  51.0094997 142.5529988
  51.2750012  51.2964997 141.8359988  52.1440918  51.3248956 141.8708532
  56.7270012  55.8694997 141.9499988  57.4710012  56.4554997 141.8099988
  56.0330012  56.4374997 142.2829988  56.7349899  56.0265798 141.9758778
  53.0900012  50.0624997 143.9759988  52.8120012  49.3344997 144.5319988
  54.0170012  50.1814997 144.1809988  53.1773124  49.9788802 144.0798845
  46.3150012  52.5014997 140.1959988  46.5540012  51.7534997 139.6489988
  46.0460012  52.1134997 141.0289988  46.3113675  52.3466638 140.2336865
  45.2520012  52.0714997 142.6519988  45.3980012  51.5514997 143.4419988
  45.2490012  52.9784997 142.9589988  45.2715792  52.1228842 142.8016117
  41.7050012  49.3244997 143.1629988  41.0190012  49.6764997 143.7299988
  42.2270012  50.0874997 142.9159988  41.6816852  49.4758578 143.2072118
  47.9890012  53.7694997 143.4019988  47.1730012  54.2664997 143.4539988
  48.5190012  54.2444997 142.7619988  47.9489161  53.9017722 143.3225956
  45.3280012  54.8134997 143.3829988  45.4880012  55.6124997 142.8829988
  45.1300012  55.1194997 144.2679988  45.3231637  54.9644020 143.4341144
  44.0620012  41.5104997 142.9989988  43.9790012  42.3994997 143.3459988
  44.9520012  41.2454997 143.2309988  44.1709469  41.5961430 143.0777626
  42.3210012  51.9384997 142.0599988  42.9130012  52.6374997 142.3359988
  42.7800012  51.5054997 141.3399988  42.4641142  51.9757049 142.0004830
  40.6370012  44.6024997 141.1759988  40.5920012  45.5414997 141.3539988
  39.7490012  44.3664997 140.9059988  40.5108574  44.6991892 141.1638912
  48.3530012  54.3644997 140.3349988  47.7090012  53.7334997 140.6559988
  49.1150012  53.8334997 140.1029988  48.3678077  54.2062920 140.3476011
  52.9570012  54.1814997 140.5679988  53.2400012  53.3874997 141.0209988
  53.6970012  54.4144997 140.0079988  53.0958006  54.1043376 140.5542715
  43.9120012  50.0914997 140.4259988  43.9760012  49.2974997 140.9569988
  44.5650012  49.9724997 139.7359988  44.0090241  49.9667148 140.4054317
  49.2640012  51.1384997 140.1619988  48.9950012  51.3184997 141.0629988
  49.0580012  50.2124997 140.0299988  49.1993427  51.0380261 140.2675073
  45.0610012  48.0634997 142.7319988  44.6010012  47.5794997 143.4179988
  45.3160012  47.3954997 142.0959988  45.0324902  47.9068731 142.7399334
  46.1320012  46.3064997 140.9939988  45.9520012  46.1524997 140.0669988
  47.0820012  46.4144997 141.0389988  46.2357776  46.3000175 140.8731843
  55.5220012  48.6614997 140.4399988  55.2480012  48.2364997 139.6269988
  55.5610012  49.5924997 140.2229988  55.4897699  48.7292484 140.2993610
  46.0290012  56.9974997 141.9949988  46.9620012  57.1554997 142.1389988
  45.7650012  57.6724997 141.3709988  46.1209888  57.1104510 141.9302842
  39.5980012  51.6334997 141.4779988  40.5120012  51.7124997 141.7519988
  39.6050012  50.9464997 140.8119988  39.7241131  51.5513961 141.4254393
  56.6430012  47.4844997 142.6299988  56.1210012  47.8414997 141.9109988
  56.6100012  48.1594997 143.3079988  56.5671634  47.6245413 142.6233145
  54.9920012  44.7244997 141.1799988  55.0880012  45.3914997 140.4999988
  54.8520012  43.9084997 140.6989988  54.9862272  44.7055655 141.0218347
  54.2390012  42.1324997 140.2979988  54.8500012  41.7614997 140.9349988
  53.4030012  41.7114997 140.4939988  54.2095032  42.0247554 140.4117035
  56.3520012  41.0174997 141.8399988  56.7640012  40.2964997 141.3649988
  57.0340012  41.6874997 141.8989988  56.5005885  41.0092368 141.7828915
  39.9090012  39.0654997 142.9459988  40.3480012  39.6764997 142.3539988
  39.2760012  39.6034997 143.4199988  39.8834514  39.2219257 142.9290930
  39.8100012  55.0134997 143.8429988  39.1250012  54.9754997 143.1759988
  39.8140012  55.9264997 144.1319988  39.7166998  55.1316733 143.7906771
  41.7700012  40.9814997 141.3879988  42.2620012  40.3514997 140.8609988
  42.3940012  41.2774997 142.0509988  41.9215688  40.9353804 141.4055482
  46.7960012  41.2744997 143.8449988  46.9740012  40.6284997 144.5279988
  46.7430012  42.1084997 144.3119988  46.8131999  41.2988009 144.0015917
  48.6750012  56.2234997 142.2409988  49.5410012  56.5894997 142.0629988
  48.4280012  55.7834997 141.4269988  48.7602392  56.2141756 142.1066289
  41.6280012  55.9334997 140.8689988  41.3610012  56.2204997 141.7419988
  42.4000012  55.3874997 141.0209988  41.6957488  55.8990294 141.0091050
  67.7820012  46.1254997 141.5919988  68.4830012  46.1474997 142.2429988
  68.0850012  45.4974997 140.9349988  67.9188133  46.0437070 141.5923369
  70.0050012  47.0394997 143.1899988  70.5850012  47.1894997 143.9369988
  70.4190012  47.5104997 142.4659988  70.1402997  47.1236578 143.1944058
  73.7040012  38.7894997 143.0029988  72.8040012  38.9284997 143.2979988
  73.9560012  39.6204997 142.6009988  73.6148702  38.9209074 142.9890205
  74.8930012  53.1554997 141.3789988  74.9670012  54.0944997 141.5499988
  75.7990012  52.8504997 141.3229988  75.0255100  53.2426722 141.3948119
  70.3060012  55.8864997 142.0419988  70.6810012  55.1424997 141.5709988
  70.3100012  55.6164997 142.9609988  70.3579125  55.7480986 142.1016483
  71.4830012  48.0724997 140.8199988  71.5250012  47.8494997 139.8899988
  72.3320012  48.4714997 141.0089988  71.6035280  48.0959438 140.7183554
  67.0550012  41.9484997 141.4899988  66.8020012  41.9674997 142.4129988
  66.7990012  41.0764997 141.1879988  66.9857481  41.8332558 141.5756175
  63.9380012  42.3934997 140.5909988  63.5070012  41.9484997 141.3209988
  63.2200012  42.7654997 140.0789988  63.7819438  42.3828940 140.6216799
  58.4540012  42.8814997 143.0669988  58.9280012  43.4724997 142.4819988
  57.7370012  43.4124997 143.4139988  58.4219341  43.0340867 143.0338836
  62.5560012  45.1714997 141.9729988  62.0130012  44.7914997 141.2819988
  63.3890012  45.3654997 141.5449988  62.5943631  45.1457125 141.8204501
  65.8910012  49.7364997 143.9089988  65.1460012  49.2294997 143.5869988
  65.7570012  49.7854997 144.8559988  65.7708776  49.6736940 143.9928647
  69.7890012  42.5504997 142.1079988  68.8500012  42.6624997 141.9569988
  70.0860012  43.4074997 142.4149988  69.7007583  42.6815981 142.1288337
  70.5070012  44.4174997 143.7689988  71.3990012  44.2804997 144.0879988
  70.5640012  45.2084997 143.2319988  70.6366504  44.5056052 143.7400818
  68.0170012  51.1954997 142.9349988  67.7210012  52.0214997 143.3159988
  67.3140012  50.5754997 143.1309988  67.8814914  51.2248199 143.0136443
  75.3920012  44.6274997 143.4639988  74.8380012  44.2314997 142.7919988
  75.4920012  45.5374997 143.1859988  75.3297059  44.6963586 143.3344401
  73.6870012  53.4134997 143.9289988  73.3140012  52.5874997 144.2379988
  73.9650012  53.2304997 143.0309988  73.6735222  53.2757430 143.8499473
  59.1460012  47.4114997 141.6699988  59.7620012  48.0384997 142.0499988
  58.2840012  47.7274997 141.9419988  59.1137698  47.5399430 141.7587183
  71.0800012  51.3894997 141.7489988  71.4330012  51.0094997 142.5529988
  70.1310012  51.2964997 141.8359988  71.0000918  51.3248956 141.8708532
  75.5830012  55.8694997 141.9499988  76.3270012  56.4554997 141.8099988
  74.8890012  56.4374997 142.2829988  75.5909899  56.0265798 141.9758778
  71.9460012  50.0624997 143.9759988  71.6680012  49.3344997 144.5319988
  72.8730012  50.1814997 144.1809988  72.0333124  49.9788802 144.0798845
  65.1710012  52.5014997 140.1959988  65.4100012  51.7534997 139.6489988
  64.9020012  52.1134997 141.0289988  65.1673675  52.3466638 140.2336865
  64.1080012  52.0714997 142.6519988  64.2540012  51.5514997 143.4419988
  64.1050012  52.9784997 142.9589988  64.1275792  52.1228842 142.8016117
  60.5610012  49.3244997 143.1629988  59.8750012  49.6764997 143.7299988
  61.0830012  50.0874997 142.9159988  60.5376852  49.4758578 143.2072118
  66.8450012  53.7694997 143.4019988  66.0290012  54.2664997 143.4539988
  67.3750012  54.2444997 142.7619988  66.8049161  53.9017722 143.3225956
  64.1840012  54.8134997 143.3829988  64.3440012  55.6124997 142.8829988
  63.9860012  55.1194997 144.2679988  64.1791637  54.9644020 143.4341144
  62.9180012  41.5104997 142.9989988  62.8350012  42.3994997 143.3459988
  63.8080012  41.2454997 143.2309988  63.0269469  41.5961430 143.0777626
  61.1770012  51.9384997 142.0599988  61.7690012  52.6374997 142.3359988
  61.6360012  51.5054997 141.3399988  61.3201142  51.9757049 142.0004830
  59.4930012  44.6024997 141.1759988  59.4480012  45.5414997 141.3539988
  58.6050012  44.3664997 140.9059988  59.3668574  44.6991892 141.1638912
  67.2090012  54.3644997 140.3349988  66.5650012  53.7334997 140.6559988
  67.9710012  53.8334997 140.1029988  67.2238077  54.2062920 140.3476011
  71.8130012  54.1814997 140.5679988  72.0960012  53.3874997 141.0209988
  72.5530012  54.4144997 140.0079988  71.9518006  54.1043376 140.5542715
  62.7680012  50.0914997 140.4259988  62.8320012  49.2974997 140.9569988
  63.4210012  49.9724997 139.7359988  62.8650241  49.9667148 140.4054317
  68.1200012  51.1384997 140.1619988  67.8510012  51.3184997 141.0629988
  67.9140012  50.2124997 140.0299988  68.0553427  51.0380261 140.2675073
  63.9170012  48.0634997 142.7319988  63.4570012  47.5794997 143.4179988
  64.1720012  47.3954997 142.0959988  63.8884902  47.9068731 142.7399334
  64.9880012  46.3064997 140.9939988  64.8080012  46.1524997 140.0669988
  65.9380012  46.4144997 141.0389988  65.0917776  46.3000175 140.8731843
  74.3780012  48.6614997 140.4399988  74.1040012  48.2364997 139.6269988
  74.4170012  49.5924997 140.2229988  74.3457699  48.7292484 140.2993610
  64.8850012  56.9974997 141.9949988  65.8180012  57.1554997 142.1389988
  64.6210012  57.6724997 141.3709988  64.9769888  57.1104510 141.9302842
  58.4540012  51.6334997 141.4779988  59.3680012  51.7124997 141.7519988
  58.4610012  50.9464997 140.8119988  58.5801131  51.5513961 141.4254393
  75.4990012  47.4844997 142.6299988  74.9770012  47.8414997 141.9109988
  75.4660012  48.1594997 143.3079988  75.4231634  47.6245413 142.6233145
  73.8480012  44.7244997 141.1799988  73.9440012  45.3914997 140.4999988
  73.7080012  43.9084997 140.6989988  73.8422272  44.7055655 141.0218347
  73.0950012  42.1324997 140.2979988  73.7060012  41.7614997 140.9349988
  72.2590012  41.7114997 140.4939988  73.0655032  42.0247554 140.4117035
  75.2080012  41.0174997 141.8399988  75.6200012  40.2964997 141.3649988
  75.8900012  41.6874997 141.8989988  75.3565885  41.0092368 141.7828915
  58.7650012  39.0654997 142.9459988  59.2040012  39.6764997 142.3539988
  58.1320012  39.6034997 143.4199988  58.7394514  39.2219257 142.9290930
  58.6660012  55.0134997 143.8429988  57.9810012  54.9754997 143.1759988
  58.6700012  55.9264997 144.1319988  58.5726998  55.1316733 143.7906771
  60.6260012  40.9814997 141.3879988  61.1180012  40.3514997 140.8609988
  61.2500012  41.2774997 142.0509988  60.7775688  40.9353804 141.4055482
  65.6520012  41.2744997 143.8449988  65.8300012  40.6284997 144.5279988
  65.5990012  42.1084997 144.3119988  65.6691999  41.2988009 144.0015917
  67.5310012  56.2234997 142.2409988  68.3970012  56.5894997 142.0629988
  67.2840012  55.7834997 141.4269988  67.6162392  56.2141756 142.1066289
  60.4840012  55.9334997 140.8689988  60.2170012  56.2204997 141.7419988
  61.2560012  55.3874997 141.0209988  60.5517488  55.8990294 141.0091050
  86.6380012  46.1254997 141.5919988  87.3390012  46.1474997 142.2429988
  86.9410012  45.4974997 140.9349988  86.7748133  46.0437070 141.5923369
  88.8610012  47.0394997 143.1899988  89.4410012  47.1894997 143.9369988
  89.2750012  47.5104997 142.4659988  88.9962997  47.1236578 143.1944058
  92.5600012  38.7894997 143.0029988  91.6600012  38.9284997 143.2979988
  92.8120012  39.6204997 142.6009988  92.4708702  38.9209074 142.9890205
  93.7490012  53.1554997 141.3789988  93.8230012  54.0944997 141.5499988
  94.6550012  52.8504997 141.3229988  93.8815100  53.2426722 141.3948119
  89.1620012  55.8864997 142.0419988  89.5370012  55.1424997 141.5709988
  89.1660012  55.6164997 142.9609988  89.2139125  55.7480986 142.1016483
  90.3390012  48.0724997 140.8199988  90.3810012  47.8494997 139.8899988
  91.1880012  48.4714997 141.0089988  90.4595280  48.0959438 140.7183554
  85.9110012  41.9484997 141.4899988  85.6580012  41.9674997 142.4129988
  85.6550012  41.0764997 141.1879988  85.8417481  41.8332558 141.5756175
  82.7940012  42.3934997 140.5909988  82.3630012  41.9484997 141.3209988
  82.0760012  42.7654997 140.0789988  82.6379438  42.3828940 140.6216799
  77.3100012  42.8814997 143.0669988  77.7840012  43.4724997 142.4819988
  76.5930012  43.4124997 143.4139988  77.2779341  43.0340867 143.0338836
  81.4120012  45.1714997 141.9729988  80.8690012  44.7914997 141.2819988
  82.2450012  45.3654997 141.5449988  81.4503631  45.1457125 141.8204501
  84.7470012  49.7364997 143.9089988  84.0020012  49.2294997 143.5869988
  84.6130012  49.7854997 144.8559988  84.6268776  49.6736940 143.9928647
  88.6450012  42.5504997 142.1079988  87.7060012  42.6624997 141.9569988
  88.9420012  43.4074997 142.4149988  88.5567583  42.6815981 142.1288337
  89.3630012  44.4174997 143.7689988  90.2550012  44.2804997 144.0879988
  89.4200012  45.2084997 143.2319988  89.4926504  44.5056052 143.7400818
  86.8730012  51.1954997 142.9349988  86.5770012  52.0214997 143.3159988
  86.1700012  50.5754997 143.1309988  86.7374914  51.2248199 143.0136443
  94.2480012  44.6274997 143.4639988  93.6940012  44.2314997 142.7919988
  94.3480012  45.5374997 143.1859988  94.1857059  44.6963586 143.3344401
  92.5430012  53.4134997 143.9289988  92.1700012  52.5874997 144.2379988
  92.8210012  53.2304997 143.0309988  92.5295222  53.2757430 143.8499473
  78.0020012  47.4114997 141.6699988  78.6180012  48.0384997 142.0499988
  77.1400012  47.7274997 141.9419988  77.9697698  47.5399430 141.7587183
  89.9360012  51.3894997 141.7489988  90.2890012  51.0094997 142.5529988
  88.9870012  51.2964997 141.8359988  89.8560918  51.3248956 141.8708532
  94.4390012  55.8694997 141.9499988  95.1830012  56.4554997 141.8099988
  93.7450012  56.4374997 142.2829988  94.4469899  56.0265798 141.9758778
  90.8020012  50.0624997 143.9759988  90.5240012  49.3344997 144.5319988
  91.7290012  50.1814997 144.1809988  90.8893124  49.9788802 144.0798845
  84.0270012  52.5014997 140.1959988  84.2660012  51.7534997 139.6489988
  83.7580012  52.1134997 141.0289988  84.0233675  52.3466638 140.2336865
  82.9640012  52.0714997 142.6519988  83.1100012  51.5514997 143.4419988
  82.9610012  52.9784997 142.9589988  82.9835792  52.1228842 142.8016117
  79.4170012  49.3244997 143.1629988  78.7310012  49.6764997 143.7299988
  79.9390012  50.0874997 142.9159988  79.3936852  49.4758578 143.2072118
  85.7010012  53.7694997 143.4019988  84.8850012  54.2664997 143.4539988
  86.2310012  54.2444997 142.7619988  85.6609161  53.9017722 143.3225956
  83.0400012  54.8134997 143.3829988  83.2000012  55.6124997 142.8829988
  82.8420012  55.1194997 144.2679988  83.0351637  54.9644020 143.4341144
  81.7740012  41.5104997 142.9989988  81.6910012  42.3994997 143.3459988
  82.6640012  41.2454997 143.2309988  81.8829469  41.5961430 143.0777626
  80.0330012  51.9384997 142.0599988  80.6250012  52.6374997 142.3359988
  80.4920012  51.5054997 141.3399988  80.1761142  51.9757049 142.0004830
  78.3490012  44.6024997 141.1759988  78.3040012  45.5414997 141.3539988
  77.4610012  44.3664997 140.9059988  78.2228574  44.6991892 141.1638912
  86.0650012  54.3644997 140.3349988  85.4210012  53.7334997 140.6559988
  86.8270012  53.8334997 140.1029988  86.0798077  54.2062920 140.3476011
  90.6690012  54.1814997 140.5679988  90.9520012  53.3874997 141.0209988
  91.4090012  54.4144997 140.0079988  90.8078006  54.1043376 140.5542715
  81.6240012  50.0914997 140.4259988  81.6880012  49.2974997 140.9569988
  82.2770012  49.9724997 139.7359988  81.7210241  49.9667148 140.4054317
  86.9760012  51.1384997 140.1619988  86.7070012  51.3184997 141.0629988
  86.7700012  50.2124997 140.0299988  86.9113427  51.0380261 140.2675073
  82.7730012  48.0634997 142.7319988  82.3130012  47.5794997 143.4179988
  83.0280012  47.3954997 142.0959988  82.7444902  47.9068731 142.7399334
  83.8440012  46.3064997 140.9939988  83.6640012  46.1524997 140.0669988
  84.7940012  46.4144997 141.0389988  83.9477776  46.3000175 140.8731843
  93.2340012  48.6614997 140.4399988  92.9600012  48.2364997 139.6269988
  93.2730012  49.5924997 140.2229988  93.2017699  48.7292484 140.2993610
  83.7410012  56.9974997 141.9949988  84.6740012  57.1554997 142.1389988
  83.4770012  57.6724997 141.3709988  83.8329888  57.1104510 141.9302842
  77.3100012  51.6334997 141.4779988  78.2240012  51.7124997 141.7519988
  77.3170012  50.9464997 140.8119988  77.4361131  51.5513961 141.4254393
  94.3550012  47.4844997 142.6299988  93.8330012  47.8414997 141.9109988
  94.3220012  48.1594997 143.3079988  94.2791634  47.6245413 142.6233145
  92.7040012  44.7244997 141.1799988  92.8000012  45.3914997 140.4999988
  92.5640012  43.9084997 140.6989988  92.6982272  44.7055655 141.0218347
  91.9510012  42.1324997 140.2979988  92.5620012  41.7614997 140.9349988
  91.1150012  41.7114997 140.4939988  91.9215032  42.0247554 140.4117035
  94.0640012  41.0174997 141.8399988  94.4760012  40.2964997 141.3649988
  94.7460012  41.6874997 141.8989988  94.2125885  41.0092368 141.7828915
  77.6210012  39.0654997 142.9459988  78.0600012  39.6764997 142.3539988
  76.9880012  39.6034997 143.4199988  77.5954514  39.2219257 142.9290930
  77.5220012  55.0134997 143.8429988  76.8370012  54.9754997 143.1759988
  77.5260012  55.9264997 144.1319988  77.4286998  55.1316733 143.7906771
  79.4820012  40.9814997 141.3879988  79.9740012  40.3514997 140.8609988
  80.1060012  41.2774997 142.0509988  79.6335688  40.9353804 141.4055482
  84.5080012  41.2744997 143.8449988  84.6860012  40.6284997 144.5279988
  84.4550012  42.1084997 144.3119988  84.5251999  41.2988009 144.0015917
  86.3870012  56.2234997 142.2409988  87.2530012  56.5894997 142.0629988
  86.1400012  55.7834997 141.4269988  86.4722392  56.2141756 142.1066289
  79.3400012  55.9334997 140.8689988  79.0730012  56.2204997 141.7419988
  80.1120012  55.3874997 141.0209988  79.4077488  55.8990294 141.0091050
 105.4940012  46.1254997 141.5919988 106.1950012  46.1474997 142.2429988
 105.7970012  45.4974997 140.9349988 105.6308133  46.0437070 141.5923369
 107.7170012  47.0394997 143.1899988 108.2970012  47.1894997 143.9369988
 108.1310012  47.5104997 142.4659988 107.8522997  47.1236578 143.1944058
 111.4160012  38.7894997 143.0029988 110.5160012  38.9284997 143.2979988
 111.6680012  39.6204997 142.6009988 111.3268702  38.9209074 142.9890205
 112.6050012  53.1554997 141.3789988 112.6790012  54.0944997 141.5499988
 113.5110012  52.8504997 141.3229988 112.7375100  53.2426722 141.3948119
 108.0180012  55.8864997 142.0419988 108.3930012  55.1424997 141.5709988
 108.0220012  55.6164997 142.9609988 108.0699125  55.7480986 142.1016483
 109.1950012  48.0724997 140.8199988 109.2370012  47.8494997 139.8899988
 110.0440012  48.4714997 141.0089988 109.3155280  48.0959438 140.7183554
 104.7670012  41.9484997 141.4899988 104.5140012  41.9674997 142.4129988
 104.5110012  41.0764997 141.1879988 104.6977481  41.8332558 141.5756175
 101.6500012  42.3934997 140.5909988 101.2190012  41.9484997 141.3209988
 100.9320012  42.7654997 140.0789988 101.4939438  42.3828940 140.6216799
  96.1660012  42.8814997 143.0669988  96.6400012  43.4724997 142.4819988
  95.4490012  43.4124997 143.4139988  96.1339341  43.0340867 143.0338836
 100.2680012  45.1714997 141.9729988  99.7250012  44.7914997 141.2819988
 101.1010012  45.3654997 141.5449988 100.3063631  45.1457125 141.8204501
 103.6030012  49.7364997 143.9089988 102.8580012  49.2294997 143.5869988
 103.4690012  49.7854997 144.8559988 103.4828776  49.6736940 143.9928647
 107.5010012  42.5504997 142.1079988 106.5620012  42.6624997 141.9569988
 107.7980012  43.4074997 142.4149988 107.4127583  42.6815981 142.1288337
 108.2190012  44.4174997 143.7689988 109.1110012  44.2804997 144.0879988
 108.2760012  45.2084997 143.2319988 108.3486504  44.5056052 143.7400818
 105.7290012  51.1954997 142.9349988 105.4330012  52.0214997 143.3159988
 105.0260012  50.5754997 143.1309988 105.5934914  51.2248199 143.0136443
 113.1040012  44.6274997 143.4639988 112.5500012  44.2314997 142.7919988
 113.2040012  45.5374997 143.1859988 113.0417059  44.6963586 143.3344401
 111.3990012  53.4134997 143.9289988 111.0260012  52.5874997 144.2379988
 111.6770012  53.2304997 143.0309988 111.3855222  53.2757430 143.8499473
  96.8580012  47.4114997 141.6699988  97.4740012  48.0384997 142.0499988
  95.9960012  47.7274997 141.9419988  96.8257698  47.5399430 141.7587183
 108.7920012  51.3894997 141.7489988 109.1450012  51.0094997 142.5529988
 107.8430012  51.2964997 141.8359988 108.7120918  51.3248956 141.8708532
 113.2950012  55.8694997 141.9499988 114.0390012  56.4554997 141.8099988
 112.6010012  56.4374997 142.2829988 113.3029899  56.0265798 141.9758778
 109.6580012  50.0624997 143.9759988 109.3800012  49.3344997 144.5319988
 110.5850012  50.1814997 144.1809988 109.7453124  49.9788802 144.0798845
 102.8830012  52.5014997 140.1959988 103.1220012  51.7534997 139.6489988
 102.6140012  52.1134997 141.0289988 102.8793675  52.3466638 140.2336865
 101.8200012  52.0714997 142.6519988 101.9660012  51.5514997 143.4419988
 101.8170012  52.9784997 142.9589988 101.8395792  52.1228842 142.8016117
  98.2730012  49.3244997 143.1629988  97.5870012  49.6764997 143.7299988
  98.7950012  50.0874997 142.9159988  98.2496852  49.4758578 143.2072118
 104.5570012  53.7694997 143.4019988 103.7410012  54.2664997 143.4539988
 105.0870012  54.2444997 142.7619988 104.5169161  53.9017722 143.3225956
 101.8960012  54.8134997 143.3829988 102.0560012  55.6124997 142.8829988
 101.6980012  55.1194997 144.2679988 101.8911637  54.9644020 143.4341144
 100.6300012  41.5104997 142.9989988 100.5470012  42.3994997 143.3459988
 101.5200012  41.2454997 143.2309988 100.7389469  41.5961430 143.0777626
  98.8890012  51.9384997 142.0599988  99.4810012  52.6374997 142.3359988
  99.3480012  51.5054997 141.3399988  99.0321142  51.9757049 142.0004830
  97.2050012  44.6024997 141.1759988  97.1600012  45.5414997 141.3539988
  96.3170012  44.3664997 140.9059988  97.0788574  44.6991892 141.1638912
 104.9210012  54.3644997 140.3349988 104.2770012  53.7334997 140.6559988
 105.6830012  53.8334997 140.1029988 104.9358077  54.2062920 140.3476011
 109.5250012  54.1814997 140.5679988 109.8080012  53.3874997 141.0209988
 110.2650012  54.4144997 140.0079988 109.6638006  54.1043376 140.5542715
 100.4800012  50.0914997 140.4259988 100.5440012  49.2974997 140.9569988
 101.1330012  49.9724997 139.7359988 100.5770241  49.9667148 140.4054317
 105.8320012  51.1384997 140.1619988 105.5630012  51.3184997 141.0629988
 105.6260012  50.2124997 140.0299988 105.7673427  51.0380261 140.2675073
 101.6290012  48.0634997 142.7319988 101.1690012  47.5794997 143.4179988
 101.8840012  47.3954997 142.0959988 101.6004902  47.9068731 142.7399334
 102.7000012  46.3064997 140.9939988 102.5200012  46.1524997 140.0669988
 103.6500012  46.4144997 141.0389988 102.8037776  46.3000175 140.8731843
 112.0900012  48.6614997 140.4399988 111.8160012  48.2364997 139.6269988
 112.1290012  49.5924997 140.2229988 112.0577699  48.7292484 140.2993610
 102.5970012  56.9974997 141.9949988 103.5300012  57.1554997 142.1389988
 102.3330012  57.6724997 141.3709988 102.6889888  57.1104510 141.9302842
  96.1660012  51.6334997 141.4779988  97.0800012  51.7124997 141.7519988
  96.1730012  50.9464997 140.8119988  96.2921131  51.5513961 141.4254393
 113.2110012  47.4844997 142.6299988 112.6890012  47.8414997 141.9109988
 113.1780012  48.1594997 143.3079988 113.1351634  47.6245413 142.6233145
 111.5600012  44.7244997 141.1799988 111.6560012  45.3914997 140.4999988
 111.4200012  43.9084997 140.6989988 111.5542272  44.7055655 141.0218347
 110.8070012  42.1324997 140.2979988 111.4180012  41.7614997 140.9349988
 109.9710012  41.7114997 140.4939988 110.7775032  42.0247554 140.4117035
 112.9200012  41.0174997 141.8399988 113.3320012  40.2964997 141.3649988
 113.6020012  41.6874997 141.8989988 113.0685885  41.0092368 141.7828915
  96.4770012  39.0654997 142.9459988  96.9160012  39.6764997 142.3539988
  95.8440012  39.6034997 143.4199988  96.4514514  39.2219257 142.9290930
  96.3780012  55.0134997 143.8429988  95.6930012  54.9754997 143.1759988
  96.3820012  55.9264997 144.1319988  96.2846998  55.1316733 143.7906771
  98.3380012  40.9814997 141.3879988  98.8300012  40.3514997 140.8609988
  98.9620012  41.2774997 142.0509988  98.4895688  40.9353804 141.4055482
 103.3640012  41.2744997 143.8449988 103.5420012  40.6284997 144.5279988
 103.3110012  42.1084997 144.3119988 103.3811999  41.2988009 144.0015917
 105.2430012  56.2234997 142.2409988 106.1090012  56.5894997 142.0629988
 104.9960012  55.7834997 141.4269988 105.3282392  56.2141756 142.1066289
  98.1960012  55.9334997 140.8689988  97.9290012  56.2204997 141.7419988
  98.9680012  55.3874997 141.0209988  98.2637488  55.8990294 141.0091050
 124.3500012  46.1254997 141.5919988 125.0510012  46.1474997 142.2429988
 124.6530012  45.4974997 140.9349988 124.4868133  46.0437070 141.5923369
 126.5730012  47.0394997 143.1899988 127.1530012  47.1894997 143.9369988
 126.9870012  47.5104997 142.4659988 126.7082997  47.1236578 143.1944058
 130.2720012  38.7894997 143.0029988 129.3720012  38.9284997 143.2979988
 130.5240012  39.6204997 142.6009988 130.1828702  38.9209074 142.9890205
 131.4610012  53.1554997 141.3789988 131.5350012  54.0944997 141.5499988
 132.3670012  52.8504997 141.3229988 131.5935100  53.2426722 141.3948119
 126.8740012  55.8864997 142.0419988 127.2490012  55.1424997 141.5709988
 126.8780012  55.6164997 142.9609988 126.9259125  55.7480986 142.1016483
 128.0510012  48.0724997 140.8199988 128.0930012  47.8494997 139.8899988
 128.9000012  48.4714997 141.0089988 128.1715280  48.0959438 140.7183554
 123.6230012  41.9484997 141.4899988 123.3700012  41.9674997 142.4129988
 123.3670012  41.0764997 141.1879988 123.5537481  41.8332558 141.5756175
 120.5060012  42.3934997 140.5909988 120.0750012  41.9484997 141.3209988
 119.7880012  42.7654997 140.0789988 120.3499438  42.3828940 140.6216799
 115.0220012  42.8814997 143.0669988 115.4960012  43.4724997 142.4819988
 114.3050012  43.4124997 143.4139988 114.9899341  43.0340867 143.0338836
 119.1240012  45.1714997 141.9729988 118.5810012  44.7914997 141.2819988
 119.9570012  45.3654997 141.5449988 119.1623631  45.1457125 141.8204501
 122.4590012  49.7364997 143.9089988 121.7140012  49.2294997 143.5869988
 122.3250012  49.7854997 144.8559988 122.3388776  49.6736940 143.9928647
 126.3570012  42.5504997 142.1079988 125.4180012  42.6624997 141.9569988
 126.6540012  43.4074997 142.4149988 126.2687583  42.6815981 142.1288337
 127.0750012  44.4174997 143.7689988 127.9670012  44.2804997 144.0879988
 127.1320012  45.2084997 143.2319988 127.2046504  44.5056052 143.7400818
 124.5850012  51.1954997 142.9349988 124.2890012  52.0214997 143.3159988
 123.8820012  50.5754997 143.1309988 124.4494914  51.2248199 143.0136443
 131.9600012  44.6274997 143.4639988 131.4060012  44.2314997 142.7919988
 132.0600012  45.5374997 143.1859988 131.8977059  44.6963586 143.3344401
 130.2550012  53.4134997 143.9289988 129.8820012  52.5874997 144.2379988
 130.5330012  53.2304997 143.0309988 130.2415222  53.2757430 143.8499473
 115.7140012  47.4114997 141.6699988 116.3300012  48.0384997 142.0499988
 114.8520012  47.7274997 141.9419988 115.6817698  47.5399430 141.7587183
 127.6480012  51.3894997 141.7489988 128.0010012  51.0094997 142.5529988
 126.6990012  51.2964997 141.8359988 127.5680918  51.3248956 141.8708532
 132.1510012  55.8694997 141.9499988 132.8950012  56.4554997 141.8099988
 131.4570012  56.4374997 142.2829988 132.1589899  56.0265798 141.9758778
 128.5140012  50.0624997 143.9759988 128.2360012  49.3344997 144.5319988
 129.4410012  50.1814997 144.1809988 128.6013124  49.9788802 144.0798845
 121.7390012  52.5014997 140.1959988 121.9780012  51.7534997 139.6489988
 121.4700012  52.1134997 141.0289988 121.7353675  52.3466638 140.2336865
 120.6760012  52.0714997 142.6519988 120.8220012  51.5514997 143.4419988
 120.6730012  52.9784997 142.9589988 120.6955792  52.1228842 142.8016117
 117.1290012  49.3244997 143.1629988 116.4430012  49.6764997 143.7299988
 117.6510012  50.0874997 142.9159988 117.1056852  49.4758578 143.2072118
 123.4130012  53.7694997 143.4019988 122.5970012  54.2664997 143.4539988
 123.9430012  54.2444997 142.7619988 123.3729161  53.9017722 143.3225956
 120.7520012  54.8134997 143.3829988 120.9120012  55.6124997 142.8829988
 120.5540012  55.1194997 144.2679988 120.7471637  54.9644020 143.4341144
 119.4860012  41.5104997 142.9989988 119.4030012  42.3994997 143.3459988
 120.3760012  41.2454997 143.2309988 119.5949469  41.5961430 143.0777626
 117.7450012  51.9384997 142.0599988 118.3370012  52.6374997 142.3359988
 118.2040012  51.5054997 141.3399988 117.8881142  51.9757049 142.0004830
 116.0610012  44.6024997 141.1759988 116.0160012  45.5414997 141.3539988
 115.1730012  44.3664997 140.9059988 115.9348574  44.6991892 141.1638912
 123.7770012  54.3644997 140.3349988 123.1330012  53.7334997 140.6559988
 124.5390012  53.8334997 140.1029988 123.7918077  54.2062920 140.3476011
 128.3810012  54.1814997 140.5679988 128.6640012  53.3874997 141.0209988
 129.1210012  54.4144997 140.0079988 128.5198006  54.1043376 140.5542715
 119.3360012  50.0914997 140.4259988 119.4000012  49.2974997 140.9569988
 119.9890012  49.9724997 139.7359988 119.4330241  49.9667148 140.4054317
 124.6880012  51.1384997 140.1619988 124.4190012  51.3184997 141.0629988
 124.4820012  50.2124997 140.0299988 124.6233427  51.0380261 140.2675073
 120.4850012  48.0634997 142.7319988 120.0250012  47.5794997 143.4179988
 120.7400012  47.3954997 142.0959988 120.4564902  47.9068731 142.7399334
 121.5560012  46.3064997 140.9939988 121.3760012  46.1524997 140.0669988
 122.5060012  46.4144997 141.0389988 121.6597776  46.3000175 140.8731843
 130.9460012  48.6614997 140.4399988 130.6720012  48.2364997 139.6269988
 130.9850012  49.5924997 140.2229988 130.9137699  48.7292484 140.2993610
 121.4530012  56.9974997 141.9949988 122.3860012  57.1554997 142.1389988
 121.1890012  57.6724997 141.3709988 121.5449888  57.1104510 141.9302842
 115.0220012  51.6334997 141.4779988 115.9360012  51.7124997 141.7519988
 115.0290012  50.9464997 140.8119988 115.1481131  51.5513961 141.4254393
 132.0670012  47.4844997 142.6299988 131.5450012  47.8414997 141.9109988
 132.0340012  48.1594997 143.3079988 131.9911634  47.6245413 142.6233145
 130.4160012  44.7244997 141.1799988 130.5120012  45.3914997 140.4999988
 130.2760012  43.9084997 140.6989988 130.4102272  44.7055655 141.0218347
 129.6630012  42.1324997 140.2979988 130.2740012  41.7614997 140.9349988
 128.8270012  41.7114997 140.4939988 129.6335032  42.0247554 140.4117035
 131.7760012  41.0174997 141.8399988 132.1880012  40.2964997 141.3649988
 132.4580012  41.6874997 141.8989988 131.9245885  41.0092368 141.7828915
 115.3330012  39.0654997 142.9459988 115.7720012  39.6764997 142.3539988
 114.7000012  39.6034997 143.4199988 115.3074514  39.2219257 142.9290930
 115.2340012  55.0134997 143.8429988 114.5490012  54.9754997 143.1759988
 115.2380012  55.9264997 144.1319988 115.1406998  55.1316733 143.7906771
 117.1940012  40.9814997 141.3879988 117.6860012  40.3514997 140.8609988
 117.8180012  41.2774997 142.0509988 117.3455688  40.9353804 141.4055482
 122.2200012  41.2744997 143.8449988 122.3980012  40.6284997 144.5279988
 122.1670012  42.1084997 144.3119988 122.2371999  41.2988009 144.0015917
 124.0990012  56.2234997 142.2409988 124.9650012  56.5894997 142.0629988
 123.8520012  55.7834997 141.4269988 124.1842392  56.2141756 142.1066289
 117.0520012  55.9334997 140.8689988 116.7850012  56.2204997 141.7419988
 117.8240012  55.3874997 141.0209988 117.1197488  55.8990294 141.0091050
 143.2060012  46.1254997 141.5919988 143.9070012  46.1474997 142.2429988
 143.5090012  45.4974997 140.9349988 143.3428133  46.0437070 141.5923369
 142.4790012  41.9484997 141.4899988 142.2260012  41.9674997 142.4129988
 142.2230012  41.0764997 141.1879988 142.4097481  41.8332558 141.5756175
 139.3620012  42.3934997 140.5909988 138.9310012  41.9484997 141.3209988
 138.6440012  42.7654997 140.0789988 139.2059438  42.3828940 140.6216799
 133.8780012  42.8814997 143.0669988 134.3520012  43.4724997 142.4819988
 133.1610012  43.4124997 143.4139988 133.8459341  43.0340867 143.0338836
 137.9800012  45.1714997 141.9729988 137.4370012  44.7914997 141.2819988
 138.8130012  45.3654997 141.5449988 138.0183631  45.1457125 141.8204501
 141.3150012  49.7364997 143.9089988 140.5700012  49.2294997 143.5869988
 141.1810012  49.7854997 144.8559988 141.1948776  49.6736940 143.9928647
 143.4410012  51.1954997 142.9349988 143.1450012  52.0214997 143.3159988
 142.7380012  50.5754997 143.1309988 143.3054914  51.2248199 143.0136443
 134.5700012  47.4114997 141.6699988 135.1860012  48.0384997 142.0499988
 133.7080012  47.7274997 141.9419988 134.5377698  47.5399430 141.7587183
 140.5950012  52.5014997 140.1959988 140.8340012  51.7534997 139.6489988
 140.3260012  52.1134997 141.0289988 140.5913675  52.3466638 140.2336865
 139.5320012  52.0714997 142.6519988 139.6780012  51.5514997 143.4419988
 139.5290012  52.9784997 142.9589988 139.5515792  52.1228842 142.8016117
 135.9850012  49.3244997 143.1629988 135.2990012  49.6764997 143.7299988
 136.5070012  50.0874997 142.9159988 135.9616852  49.4758578 143.2072118
 142.2690012  53.7694997 143.4019988 141.4530012  54.2664997 143.4539988
 142.7990012  54.2444997 142.7619988 142.2289161  53.9017722 143.3225956
 139.6080012  54.8134997 143.3829988 139.7680012  55.6124997 142.8829988
 139.4100012  55.1194997 144.2679988 139.6031637  54.9644020 143.4341144
 138.3420012  41.5104997 142.9989988 138.2590012  42.3994997 143.3459988
 139.2320012  41.2454997 143.2309988 138.4509469  41.5961430 143.0777626
 136.6010012  51.9384997 142.0599988 137.1930012  52.6374997 142.3359988
 137.0600012  51.5054997 141.3399988 136.7441142  51.9757049 142.0004830
 134.9170012  44.6024997 141.1759988 134.8720012  45.5414997 141.3539988
 134.0290012  44.3664997 140.9059988 134.7908574  44.6991892 141.1638912
 142.6330012  54.3644997 140.3349988 141.9890012  53.7334997 140.6559988
 143.3950012  53.8334997 140.1029988 142.6478077  54.2062920 140.3476011
 138.1920012  50.0914997 140.4259988 138.2560012  49.2974997 140.9569988
 138.8450012  49.9724997 139.7359988 138.2890241  49.9667148 140.4054317
 143.5440012  51.1384997 140.1619988 143.2750012  51.3184997 141.0629988
 143.3380012  50.2124997 140.0299988 143.4793427  51.0380261 140.2675073
 139.3410012  48.0634997 142.7319988 138.8810012  47.5794997 143.4179988
 139.5960012  47.3954997 142.0959988 139.3124902  47.9068731 142.7399334
 140.4120012  46.3064997 140.9939988 140.2320012  46.1524997 140.0669988
 141.3620012  46.4144997 141.0389988 140.5157776  46.3000175 140.8731843
 140.3090012  56.9974997 141.9949988 141.2420012  57.1554997 142.1389988
 140.0450012  57.6724997 141.3709988 140.4009888  57.1104510 141.9302842
 133.8780012  51.6334997 141.4779988 134.7920012  51.7124997 141.7519988
 133.8850012  50.9464997 140.8119988 134.0041131  51.5513961 141.4254393
 134.1890012  39.0654997 142.9459988 134.6280012  39.6764997 142.3539988
 133.5560012  39.6034997 143.4199988 134.1634514  39.2219257 142.9290930
 134.0900012  55.0134997 143.8429988 133.4050012  54.9754997 143.1759988
 134.0940012  55.9264997 144.1319988 133.9966998  55.1316733 143.7906771
 136.0500012  40.9814997 141.3879988 136.5420012  40.3514997 140.8609988
 136.6740012  41.2774997 142.0509988 136.2015688  40.9353804 141.4055482
 141.0760012  41.2744997 143.8449988 141.2540012  40.6284997 144.5279988
 141.0230012  42.1084997 144.3119988 141.0931999  41.2988009 144.0015917
 142.9550012  56.2234997 142.2409988 143.8210012  56.5894997 142.0629988
 142.7080012  55.7834997 141.4269988 143.0402392  56.2141756 142.1066289
 135.9080012  55.9334997 140.8689988 135.6410012  56.2204997 141.7419988
 136.6800012  55.3874997 141.0209988 135.9757488  55.8990294 141.0091050
  11.2140012  64.9814997 141.5919988  11.9150012  65.0034997 142.2429988
  11.5170012  64.3534997 140.9349988  11.3508133  64.8997070 141.5923369
  13.4370012  65.8954997 143.1899988  14.0170012  66.0454997 143.9369988
  13.8510012  66.3664997 142.4659988  13.5722997  65.9796578 143.1944058
  17.1360012  57.6454997 143.0029988  16.2360012  57.7844997 143.2979988
  17.3880012  58.4764997 142.6009988  17.0468702  57.7769074 142.9890205
  18.3250012  72.0114997 141.3789988  18.3990012  72.9504997 141.5499988
  19.2310012  71.7064997 141.3229988  18.4575100  72.0986722 141.3948119
  13.7380012  74.7424997 142.0419988  14.1130012  73.9984997 141.5709988
  13.7420012  74.4724997 142.9609988  13.7899125  74.6040986 142.1016483
  14.9150012  66.9284997 140.8199988  14.9570012  66.7054997 139.8899988
  15.7640012  67.3274997 141.0089988  15.0355280  66.9519438 140.7183554
  10.4870012  60.8044997 141.4899988  10.2340012  60.8234997 142.4129988
  10.2310012  59.9324997 141.1879988  10.4177481  60.6892558 141.5756175
   7.3700012  61.2494997 140.5909988   6.9390012  60.8044997 141.3209988
   6.6520012  61.6214997 140.0789988   7.2139438  61.2388940 140.6216799
   1.8860012  61.7374997 143.0669988   2.3600012  62.3284997 142.4819988
   1.1690012  62.2684997 143.4139988   1.8539341  61.8900867 143.0338836
   5.9880012  64.0274997 141.9729988   5.4450012  63.6474997 141.2819988
   6.8210012  64.2214997 141.5449988   6.0263631  64.0017125 141.8204501
   9.3230012  68.5924997 143.9089988   8.5780012  68.0854997 143.5869988
   9.1890012  68.6414997 144.8559988   9.2028776  68.5296940 143.9928647
  13.2210012  61.4064997 142.1079988  12.2820012  61.5184997 141.9569988
  13.5180012  62.2634997 142.4149988  13.1327583  61.5375981 142.1288337
  13.9390012  63.2734997 143.7689988  14.8310012  63.1364997 144.0879988
  13.9960012  64.0644997 143.2319988  14.0686504  63.3616052 143.7400818
  11.4490012  70.0514997 142.9349988  11.1530012  70.8774997 143.3159988
  10.7460012  69.4314997 143.1309988  11.3134914  70.0808199 143.0136443
  18.8240012  63.4834997 143.4639988  18.2700012  63.0874997 142.7919988
  18.9240012  64.3934997 143.1859988  18.7617059  63.5523586 143.3344401
  17.1190012  72.2694997 143.9289988  16.7460012  71.4434997 144.2379988
  17.3970012  72.0864997 143.0309988  17.1055222  72.1317430 143.8499473
   2.5780012  66.2674997 141.6699988   3.1940012  66.8944997 142.0499988
   1.7160012  66.5834997 141.9419988   2.5457698  66.3959430 141.7587183
  14.5120012  70.2454997 141.7489988  14.8650012  69.8654997 142.5529988
  13.5630012  70.1524997 141.8359988  14.4320918  70.1808956 141.8708532
  19.0150012  74.7254997 141.9499988  19.7590012  75.3114997 141.8099988
  18.3210012  75.2934997 142.2829988  19.0229899  74.8825798 141.9758778
  15.3780012  68.9184997 143.9759988  15.1000012  68.1904997 144.5319988
  16.3050012  69.0374997 144.1809988  15.4653124  68.8348802 144.0798845
   8.6030012  71.3574997 140.1959988   8.8420012  70.6094997 139.6489988
   8.3340012  70.9694997 141.0289988   8.5993675  71.2026638 140.2336865
   7.5400012  70.9274997 142.6519988   7.6860012  70.4074997 143.4419988
   7.5370012  71.8344997 142.9589988   7.5595792  70.9788842 142.8016117
   3.9930012  68.1804997 143.1629988   3.3070012  68.5324997 143.7299988
   4.5150012  68.9434997 142.9159988   3.9696852  68.3318578 143.2072118
  10.2770012  72.6254997 143.4019988   9.4610012  73.1224997 143.4539988
  10.8070012  73.1004997 142.7619988  10.2369161  72.7577722 143.3225956
   7.6160012  73.6694997 143.3829988   7.7760012  74.4684997 142.8829988
   7.4180012  73.9754997 144.2679988   7.6111637  73.8204020 143.4341144
   6.3500012  60.3664997 142.9989988   6.2670012  61.2554997 143.3459988
   7.2400012  60.1014997 143.2309988   6.4589469  60.4521430 143.0777626
   4.6090012  70.7944997 142.0599988   5.2010012  71.4934997 142.3359988
   5.0680012  70.3614997 141.3399988   4.7521142  70.8317049 142.0004830
   2.9250012  63.4584997 141.1759988   2.8800012  64.3974997 141.3539988
   2.0370012  63.2224997 140.9059988   2.7988574  63.5551892 141.1638912
  10.6410012  73.2204997 140.3349988   9.9970012  72.5894997 140.6559988
  11.4030012  72.6894997 140.1029988  10.6558077  73.0622920 140.3476011
  15.2450012  73.0374997 140.5679988  15.5280012  72.2434997 141.0209988
  15.9850012  73.2704997 140.0079988  15.3838006  72.9603376 140.5542715
   6.2000012  68.9474997 140.4259988   6.2640012  68.1534997 140.9569988
   6.8530012  68.8284997 139.7359988   6.2970241  68.8227148 140.4054317
  11.5520012  69.9944997 140.1619988  11.2830012  70.1744997 141.0629988
  11.3460012  69.0684997 140.0299988  11.4873427  69.8940261 140.2675073
   7.3490012  66.9194997 142.7319988   6.8890012  66.4354997 143.4179988
   7.6040012  66.2514997 142.0959988   7.3204902  66.7628731 142.7399334
   8.4200012  65.1624997 140.9939988   8.2400012  65.0084997 140.0669988
   9.3700012  65.2704997 141.0389988   8.5237776  65.1560175 140.8731843
  17.8100012  67.5174997 140.4399988  17.5360012  67.0924997 139.6269988
  17.8490012  68.4484997 140.2229988  17.7777699  67.5852484 140.2993610
   8.3170012  75.8534997 141.9949988   9.2500012  76.0114997 142.1389988
   8.0530012  76.5284997 141.3709988   8.4089888  75.9664510 141.9302842
   1.8860012  70.4894997 141.4779988   2.8000012  70.5684997 141.7519988
   1.8930012  69.8024997 140.8119988   2.0121131  70.4073961 141.4254393
  18.9310012  66.3404997 142.6299988  18.4090012  66.6974997 141.9109988
  18.8980012  67.0154997 143.3079988  18.8551634  66.4805413 142.6233145
  17.2800012  63.5804997 141.1799988  17.3760012  64.2474997 140.4999988
  17.1400012  62.7644997 140.6989988  17.2742272  63.5615655 141.0218347
  16.5270012  60.9884997 140.2979988  17.1380012  60.6174997 140.9349988
  15.6910012  60.5674997 140.4939988  16.4975032  60.8807554 140.4117035
  18.6400012  59.8734997 141.8399988  19.0520012  59.1524997 141.3649988
  19.3220012  60.5434997 141.8989988  18.7885885  59.8652368 141.7828915
   2.1970012  57.9214997 142.9459988   2.6360012  58.5324997 142.3539988
   1.5640012  58.4594997 143.4199988   2.1714514  58.0779257 142.9290930
   2.0980012  73.8694997 143.8429988   1.4130012  73.8314997 143.1759988
   2.1020012  74.7824997 144.1319988   2.0046998  73.9876733 143.7906771
   4.0580012  59.8374997 141.3879988   4.5500012  59.2074997 140.8609988
   4.6820012  60.1334997 142.0509988   4.2095688  59.7913804 141.4055482
   9.0840012  60.1304997 143.8449988   9.2620012  59.4844997 144.5279988
   9.0310012  60.9644997 144.3119988   9.1011999  60.1548009 144.0015917
  10.9630012  75.0794997 142.2409988  11.8290012  75.4454997 142.0629988
  10.7160012  74.6394997 141.4269988  11.0482392  75.0701756 142.1066289
   3.9160012  74.7894997 140.8689988   3.6490012  75.0764997 141.7419988
   4.6880012  74.2434997 141.0209988   3.9837488  74.7550294 141.0091050
  30.0700012  64.9814997 141.5919988  30.7710012  65.0034997 142.2429988
  30.3730012  64.3534997 140.9349988  30.2068133  64.8997070 141.5923369
  32.2930012  65.8954997 143.1899988  32.8730012  66.0454997 143.9369988
  32.7070012  66.3664997 142.4659988  32.4282997  65.9796578 143.1944058
  35.9920012  57.6454997 143.0029988  35.0920012  57.7844997 143.2979988
  36.2440012  58.4764997 142.6009988  35.9028702  57.7769074 142.9890205
  37.1810012  72.0114997 141.3789988  37.2550012  72.9504997 141.5499988
  38.0870012  71.7064997 141.3229988  37.3135100  72.0986722 141.3948119
  32.5940012  74.7424997 142.0419988  32.9690012  73.9984997 141.5709988
  32.5980012  74.4724997 142.9609988  32.6459125  74.6040986 142.1016483
  33.7710012  66.9284997 140.8199988  33.8130012  66.7054997 139.8899988
  34.6200012  67.3274997 141.0089988  33.8915280  66.9519438 140.7183554
  29.3430012  60.8044997 141.4899988  29.0900012  60.8234997 142.4129988
  29.0870012  59.9324997 141.1879988  29.2737481  60.6892558 141.5756175
  26.2260012  61.2494997 140.5909988  25.7950012  60.8044997 141.3209988
  25.5080012  61.6214997 140.0789988  26.0699438  61.2388940 140.6216799
  20.7420012  61.7374997 143.0669988  21.2160012  62.3284997 142.4819988
  20.0250012  62.2684997 143.4139988  20.7099341  61.8900867 143.0338836
  24.8440012  64.0274997 141.9729988  24.3010012  63.6474997 141.2819988
  25.6770012  64.2214997 141.5449988  24.8823631  64.0017125 141.8204501
  28.1790012  68.5924997 143.9089988  27.4340012  68.0854997 143.5869988
  28.0450012  68.6414997 144.8559988  28.0588776  68.5296940 143.9928647
  32.0770012  61.4064997 142.1079988  31.1380012  61.5184997 141.9569988
  32.3740012  62.2634997 142.4149988  31.9887583  61.5375981 142.1288337
  32.7950012  63.2734997 143.7689988  33.6870012  63.1364997 144.0879988
  32.8520012  64.0644997 143.2319988  32.9246504  63.3616052 143.7400818
  30.3050012  70.0514997 142.9349988  30.0090012  70.8774997 143.3159988
  29.6020012  69.4314997 143.1309988  30.1694914  70.0808199 143.0136443
  37.6800012  63.4834997 143.4639988  37.1260012  63.0874997 142.7919988
  37.7800012  64.3934997 143.1859988  37.6177059  63.5523586 143.3344401
  35.9750012  72.2694997 143.9289988  35.6020012  71.4434997 144.2379988
  36.2530012  72.0864997 143.0309988  35.9615222  72.1317430 143.8499473
  21.4340012  66.2674997 141.6699988  22.0500012  66.8944997 142.0499988
  20.5720012  66.5834997 141.9419988  21.4017698  66.3959430 141.7587183
  33.3680012  70.2454997 141.7489988  33.7210012  69.8654997 142.5529988
  32.4190012  70.1524997 141.8359988  33.2880918  70.1808956 141.8708532
  37.8710012  74.7254997 141.9499988  38.6150012  75.3114997 141.8099988
  37.1770012  75.2934997 142.2829988  37.8789899  74.8825798 141.9758778
  34.2340012  68.9184997 143.9759988  33.9560012  68.1904997 144.5319988
  35.1610012  69.0374997 144.1809988  34.3213124  68.8348802 144.0798845
  27.4590012  71.3574997 140.1959988  27.6980012  70.6094997 139.6489988
  27.1900012  70.9694997 141.0289988  27.4553675  71.2026638 140.2336865
  26.3960012  70.9274997 142.6519988  26.5420012  70.4074997 143.4419988
  26.3930012  71.8344997 142.9589988  26.4155792  70.9788842 142.8016117
  22.8490012  68.1804997 143.1629988  22.1630012  68.5324997 143.7299988
  23.3710012  68.9434997 142.9159988  22.8256852  68.3318578 143.2072118
  29.1330012  72.6254997 143.4019988  28.3170012  73.1224997 143.4539988
  29.6630012  73.1004997 142.7619988  29.0929161  72.7577722 143.3225956
  26.4720012  73.6694997 143.3829988  26.6320012  74.4684997 142.8829988
  26.2740012  73.9754997 144.2679988  26.4671637  73.8204020 143.4341144
  25.2060012  60.3664997 142.9989988  25.1230012  61.2554997 143.3459988
  26.0960012  60.1014997 143.2309988  25.3149469  60.4521430 143.0777626
  23.4650012  70.7944997 142.0599988  24.0570012  71.4934997 142.3359988
  23.9240012  70.3614997 141.3399988  23.6081142  70.8317049 142.0004830
  21.7810012  63.4584997 141.1759988  21.7360012  64.3974997 141.3539988
  20.8930012  63.2224997 140.9059988  21.6548574  63.5551892 141.1638912
  29.4970012  73.2204997 140.3349988  28.8530012  72.5894997 140.6559988
  30.2590012  72.6894997 140.1029988  29.5118077  73.0622920 140.3476011
  34.1010012  73.0374997 140.5679988  34.3840012  72.2434997 141.0209988
  34.8410012  73.2704997 140.0079988  34.2398006  72.9603376 140.5542715
  25.0560012  68.9474997 140.4259988  25.1200012  68.1534997 140.9569988
  25.7090012  68.8284997 139.7359988  25.1530241  68.8227148 140.4054317
  30.4080012  69.9944997 140.1619988  30.1390012  70.1744997 141.0629988
  30.2020012  69.0684997 140.0299988  30.3433427  69.8940261 140.2675073
  26.2050012  66.9194997 142.7319988  25.7450012  66.4354997 143.4179988
  26.4600012  66.2514997 142.0959988  26.1764902  66.7628731 142.7399334
  27.2760012  65.1624997 140.9939988  27.0960012  65.0084997 140.0669988
  28.2260012  65.2704997 141.0389988  27.3797776  65.1560175 140.8731843
  36.6660012  67.5174997 140.4399988  36.3920012  67.0924997 139.6269988
  36.7050012  68.4484997 140.2229988  36.6337699  67.5852484 140.2993610
  27.1730012  75.8534997 141.9949988  28.1060012  76.0114997 142.1389988
  26.9090012  76.5284997 141.3709988  27.2649888  75.9664510 141.9302842
  20.7420012  70.4894997 141.4779988  21.6560012  70.5684997 141.7519988
  20.7490012  69.8024997 140.8119988  20.8681131  70.4073961 141.4254393
  37.7870012  66.3404997 142.6299988  37.2650012  66.6974997 141.9109988
  37.7540012  67.0154997 143.3079988  37.7111634  66.4805413 142.6233145
  36.1360012  63.5804997 141.1799988  36.2320012  64.2474997 140.4999988
  35.9960012  62.7644997 140.6989988  36.1302272  63.5615655 141.0218347
  35.3830012  60.9884997 140.2979988  35.9940012  60.6174997 140.9349988
  34.5470012  60.5674997 140.4939988  35.3535032  60.8807554 140.4117035
  37.4960012  59.8734997 141.8399988  37.9080012  59.1524997 141.3649988
  38.1780012  60.5434997 141.8989988  37.6445885  59.8652368 141.7828915
  21.0530012  57.9214997 142.9459988  21.4920012  58.5324997 142.3539988
  20.4200012  58.4594997 143.4199988  21.0274514  58.0779257 142.9290930
  20.9540012  73.8694997 143.8429988  20.2690012  73.8314997 143.1759988
  20.9580012  74.7824997 144.1319988  20.8606998  73.9876733 143.7906771
  22.9140012  59.8374997 141.3879988  23.4060012  59.2074997 140.8609988
  23.5380012  60.1334997 142.0509988  23.0655688  59.7913804 141.4055482
  27.9400012  60.1304997 143.8449988  28.1180012  59.4844997 144.5279988
  27.8870012  60.9644997 144.3119988  27.9571999  60.1548009 144.0015917
  29.8190012  75.0794997 142.2409988  30.6850012  75.4454997 142.0629988
  29.5720012  74.6394997 141.4269988  29.9042392  75.0701756 142.1066289
  22.7720012  74.7894997 140.8689988  22.5050012  75.0764997 141.7419988
  23.5440012  74.2434997 141.0209988  22.8397488  74.7550294 141.0091050
  48.9260012  64.9814997 141.5919988  49.6270012  65.0034997 142.2429988
  49.2290012  64.3534997 140.9349988  49.0628133  64.8997070 141.5923369
  51.1490012  65.8954997 143.1899988  51.7290012  66.0454997 143.9369988
  51.5630012  66.3664997 142.4659988  51.2842997  65.9796578 143.1944058
  54.8480012  57.6454997 143.0029988  53.9480012  57.7844997 143.2979988
  55.1000012  58.4764997 142.6009988  54.7588702  57.7769074 142.9890205
  56.0370012  72.0114997 141.3789988  56.1110012  72.9504997 141.5499988
  56.9430012  71.7064997 141.3229988  56.1695100  72.0986722 141.3948119
  51.4500012  74.7424997 142.0419988  51.8250012  73.9984997 141.5709988
  51.4540012  74.4724997 142.9609988  51.5019125  74.6040986 142.1016483
  52.6270012  66.9284997 140.8199988  52.6690012  66.7054997 139.8899988
  53.4760012  67.3274997 141.0089988  52.7475280  66.9519438 140.7183554
  48.1990012  60.8044997 141.4899988  47.9460012  60.8234997 142.4129988
  47.9430012  59.9324997 141.1879988  48.1297481  60.6892558 141.5756175
  45.0820012  61.2494997 140.5909988  44.6510012  60.8044997 141.3209988
  44.3640012  61.6214997 140.0789988  44.9259438  61.2388940 140.6216799
  39.5980012  61.7374997 143.0669988  40.0720012  62.3284997 142.4819988
  38.8810012  62.2684997 143.4139988  39.5659341  61.8900867 143.0338836
  43.7000012  64.0274997 141.9729988  43.1570012  63.6474997 141.2819988
  44.5330012  64.2214997 141.5449988  43.7383631  64.0017125 141.8204501
  47.0350012  68.5924997 143.9089988  46.2900012  68.0854997 143.5869988
  46.9010012  68.6414997 144.8559988  46.9148776  68.5296940 143.9928647
  50.9330012  61.4064997 142.1079988  49.9940012  61.5184997 141.9569988
  51.2300012  62.2634997 142.4149988  50.8447583  61.5375981 142.1288337
  51.6510012  63.2734997 143.7689988  52.5430012  63.1364997 144.0879988
  51.7080012  64.0644997 143.2319988  51.7806504  63.3616052 143.7400818
  49.1610012  70.0514997 142.9349988  48.8650012  70.8774997 143.3159988
  48.4580012  69.4314997 143.1309988  49.0254914  70.0808199 143.0136443
  56.5360012  63.4834997 143.4639988  55.9820012  63.0874997 142.7919988
  56.6360012  64.3934997 143.1859988  56.4737059  63.5523586 143.3344401
  54.8310012  72.2694997 143.9289988  54.4580012  71.4434997 144.2379988
  55.1090012  72.0864997 143.0309988  54.8175222  72.1317430 143.8499473
  40.2900012  66.2674997 141.6699988  40.9060012  66.8944997 142.0499988
  39.4280012  66.5834997 141.9419988  40.2577698  66.3959430 141.7587183
  52.2240012  70.2454997 141.7489988  52.5770012  69.8654997 142.5529988
  51.2750012  70.1524997 141.8359988  52.1440918  70.1808956 141.8708532
  56.7270012  74.7254997 141.9499988  57.4710012  75.3114997 141.8099988
  56.0330012  75.2934997 142.2829988  56.7349899  74.8825798 141.9758778
  53.0900012  68.9184997 143.9759988  52.8120012  68.1904997 144.5319988
  54.0170012  69.0374997 144.1809988  53.1773124  68.8348802 144.0798845
  46.3150012  71.3574997 140.1959988  46.5540012  70.6094997 139.6489988
  46.0460012  70.9694997 141.0289988  46.3113675  71.2026638 140.2336865
  45.2520012  70.9274997 142.6519988  45.3980012  70.4074997 143.4419988
  45.2490012  71.8344997 142.9589988  45.2715792  70.9788842 142.8016117
  41.7050012  68.1804997 143.1629988  41.0190012  68.5324997 143.7299988
  42.2270012  68.9434997 142.9159988  41.6816852  68.3318578 143.2072118
  47.9890012  72.6254997 143.4019988  47.1730012  73.1224997 143.4539988
  48.5190012  73.1004997 142.7619988  47.9489161  72.7577722 143.3225956
  45.3280012  73.6694997 143.3829988  45.4880012  74.4684997 142.8829988
  45.1300012  73.9754997 144.2679988  45.3231637  73.8204020 143.4341144
  44.0620012  60.3664997 142.9989988  43.9790012  61.2554997 143.3459988
  44.9520012  60.1014997 143.2309988  44.1709469  60.4521430 143.0777626
  42.3210012  70.7944997 142.0599988  42.9130012  71.4934997 142.3359988
  42.7800012  70.3614997 141.3399988  42.4641142  70.8317049 142.0004830
  40.6370012  63.4584997 141.1759988  40.5920012  64.3974997 141.3539988
  39.7490012  63.2224997 140.9059988  40.5108574  63.5551892 141.1638912
  48.3530012  73.2204997 140.3349988  47.7090012  72.5894997 140.6559988
  49.1150012  72.6894997 140.1029988  48.3678077  73.0622920 140.3476011
  52.9570012  73.0374997 140.5679988  53.2400012  72.2434997 141.0209988
  53.6970012  73.2704997 140.0079988  53.0958006  72.9603376 140.5542715
  43.9120012  68.9474997 140.4259988  43.9760012  68.1534997 140.9569988
  44.5650012  68.8284997 139.7359988  44.0090241  68.8227148 140.4054317
  49.2640012  69.9944997 140.1619988  48.9950012  70.1744997 141.0629988
  49.0580012  69.0684997 140.0299988  49.1993427  69.8940261 140.2675073
  45.0610012  66.9194997 142.7319988  44.6010012  66.4354997 143.4179988
  45.3160012  66.2514997 142.0959988  45.0324902  66.7628731 142.7399334
  46.1320012  65.1624997 140.9939988  45.9520012  65.0084997 140.0669988
  47.0820012  65.2704997 141.0389988  46.2357776  65.1560175 140.8731843
  55.5220012  67.5174997 140.4399988  55.2480012  67.0924997 139.6269988
  55.5610012  68.4484997 140.2229988  55.4897699  67.5852484 140.2993610
  46.0290012  75.8534997 141.9949988  46.9620012  76.0114997 142.1389988
  45.7650012  76.5284997 141.3709988  46.1209888  75.9664510 141.9302842
  39.5980012  70.4894997 141.4779988  40.5120012  70.5684997 141.7519988
  39.6050012  69.8024997 140.8119988  39.7241131  70.4073961 141.4254393
  56.6430012  66.3404997 142.6299988  56.1210012  66.6974997 141.9109988
  56.6100012  67.0154997 143.3079988  56.5671634  66.4805413 142.6233145
  54.9920012  63.5804997 141.1799988  55.0880012  64.2474997 140.4999988
  54.8520012  62.7644997 140.6989988  54.9862272  63.5615655 141.0218347
  54.2390012  60.9884997 140.2979988  54.8500012  60.6174997 140.9349988
  53.4030012  60.5674997 140.4939988  54.2095032  60.8807554 140.4117035
  56.3520012  59.8734997 141.8399988  56.7640012  59.1524997 141.3649988
  57.0340012  60.5434997 141.8989988  56.5005885  59.8652368 141.7828915
  39.9090012  57.9214997 142.9459988  40.3480012  58.5324997 142.3539988
  39.2760012  58.4594997 143.4199988  39.8834514  58.0779257 142.9290930
  39.8100012  73.8694997 143.8429988  39.1250012  73.8314997 143.1759988
  39.8140012  74.7824997 144.1319988  39.7166998  73.9876733 143.7906771
  41.7700012  59.8374997 141.3879988  42.2620012  59.2074997 140.8609988
  42.3940012  60.1334997 142.0509988  41.9215688  59.7913804 141.4055482
  46.7960012  60.1304997 143.8449988  46.9740012  59.4844997 144.5279988
  46.7430012  60.9644997 144.3119988  46.8131999  60.1548009 144.0015917
  48.6750012  75.0794997 142.2409988  49.5410012  75.4454997 142.0629988
  48.4280012  74.6394997 141.4269988  48.7602392  75.0701756 142.1066289
  41.6280012  74.7894997 140.8689988  41.3610012  75.0764997 141.7419988
  42.4000012  74.2434997 141.0209988  41.6957488  74.7550294 141.0091050
  67.7820012  64.9814997 141.5919988  68.4830012  65.0034997 142.2429988
  68.0850012  64.3534997 140.9349988  67.9188133  64.8997070 141.5923369
  70.0050012  65.8954997 143.1899988  70.5850012  66.0454997 143.9369988
  70.4190012  66.3664997 142.4659988  70.1402997  65.9796578 143.1944058
  73.7040012  57.6454997 143.0029988  72.8040012  57.7844997 143.2979988
  73.9560012  58.4764997 142.6009988  73.6148702  57.7769074 142.9890205
  74.8930012  72.0114997 141.3789988  74.9670012  72.9504997 141.5499988
  75.7990012  71.7064997 141.3229988  75.0255100  72.0986722 141.3948119
  70.3060012  74.7424997 142.0419988  70.6810012  73.9984997 141.5709988
  70.3100012  74.4724997 142.9609988  70.3579125  74.6040986 142.1016483
  71.4830012  66.9284997 140.8199988  71.5250012  66.7054997 139.8899988
  72.3320012  67.3274997 141.0089988  71.6035280  66.9519438 140.7183554
  67.0550012  60.8044997 141.4899988  66.8020012  60.8234997 142.4129988
  66.7990012  59.9324997 141.1879988  66.9857481  60.6892558 141.5756175
  63.9380012  61.2494997 140.5909988  63.5070012  60.8044997 141.3209988
  63.2200012  61.6214997 140.0789988  63.7819438  61.2388940 140.6216799
  58.4540012  61.7374997 143.0669988  58.9280012  62.3284997 142.4819988
  57.7370012  62.2684997 143.4139988  58.4219341  61.8900867 143.0338836
  62.5560012  64.0274997 141.9729988  62.0130012  63.6474997 141.2819988
  63.3890012  64.2214997 141.5449988  62.5943631  64.0017125 141.8204501
  65.8910012  68.5924997 143.9089988  65.1460012  68.0854997 143.5869988
  65.7570012  68.6414997 144.8559988  65.7708776  68.5296940 143.9928647
  69.7890012  61.4064997 142.1079988  68.8500012  61.5184997 141.9569988
  70.0860012  62.2634997 142.4149988  69.7007583  61.5375981 142.1288337
  70.5070012  63.2734997 143.7689988  71.3990012  63.1364997 144.0879988
  70.5640012  64.0644997 143.2319988  70.6366504  63.3616052 143.7400818
  68.0170012  70.0514997 142.9349988  67.7210012  70.8774997 143.3159988
  67.3140012  69.4314997 143.1309988  67.8814914  70.0808199 143.0136443
  75.3920012  63.4834997 143.4639988  74.8380012  63.0874997 142.7919988
  75.4920012  64.3934997 143.1859988  75.3297059  63.5523586 143.3344401
  73.6870012  72.2694997 143.9289988  73.3140012  71.4434997 144.2379988
  73.9650012  72.0864997 143.0309988  73.6735222  72.1317430 143.8499473
  59.1460012  66.2674997 141.6699988  59.7620012  66.8944997 142.0499988
  58.2840012  66.5834997 141.9419988  59.1137698  66.3959430 141.7587183
  71.0800012  70.2454997 141.7489988  71.4330012  69.8654997 142.5529988
  70.1310012  70.1524997 141.8359988  71.0000918  70.1808956 141.8708532
  75.5830012  74.7254997 141.9499988  76.3270012  75.3114997 141.8099988
  74.8890012  75.2934997 142.2829988  75.5909899  74.8825798 141.9758778
  71.9460012  68.9184997 143.9759988  71.6680012  68.1904997 144.5319988
  72.8730012  69.0374997 144.1809988  72.0333124  68.8348802 144.0798845
  65.1710012  71.3574997 140.1959988  65.4100012  70.6094997 139.6489988
  64.9020012  70.9694997 141.0289988  65.1673675  71.2026638 140.2336865
  64.1080012  70.9274997 142.6519988  64.2540012  70.4074997 143.4419988
  64.1050012  71.8344997 142.9589988  64.1275792  70.9788842 142.8016117
  60.5610012  68.1804997 143.1629988  59.8750012  68.5324997 143.7299988
  61.0830012  68.9434997 142.9159988  60.5376852  68.3318578 143.2072118
  66.8450012  72.6254997 143.4019988  66.0290012  73.1224997 143.4539988
  67.3750012  73.1004997 142.7619988  66.8049161  72.7577722 143.3225956
  64.1840012  73.6694997 143.3829988  64.3440012  74.4684997 142.8829988
  63.9860012  73.9754997 144.2679988  64.1791637  73.8204020 143.4341144
  62.9180012  60.3664997 142.9989988  62.8350012  61.2554997 143.3459988
  63.8080012  60.1014997 143.2309988  63.0269469  60.4521430 143.0777626
  61.1770012  70.7944997 142.0599988  61.7690012  71.4934997 142.3359988
  61.6360012  70.3614997 141.3399988  61.3201142  70.8317049 142.0004830
  59.4930012  63.4584997 141.1759988  59.4480012  64.3974997 141.3539988
  58.6050012  63.2224997 140.9059988  59.3668574  63.5551892 141.1638912
  67.2090012  73.2204997 140.3349988  66.5650012  72.5894997 140.6559988
  67.9710012  72.6894997 140.1029988  67.2238077  73.0622920 140.3476011
  71.8130012  73.0374997 140.5679988  72.0960012  72.2434997 141.0209988
  72.5530012  73.2704997 140.0079988  71.9518006  72.9603376 140.5542715
  62.7680012  68.9474997 140.4259988  62.8320012  68.1534997 140.9569988
  63.4210012  68.8284997 139.7359988  62.8650241  68.8227148 140.4054317
  68.1200012  69.9944997 140.1619988  67.8510012  70.1744997 141.0629988
  67.9140012  69.0684997 140.0299988  68.0553427  69.8940261 140.2675073
  63.9170012  66.9194997 142.7319988  63.4570012  66.4354997 143.4179988
  64.1720012  66.2514997 142.0959988  63.8884902  66.7628731 142.7399334
  64.9880012  65.1624997 140.9939988  64.8080012  65.0084997 140.0669988
  65.9380012  65.2704997 141.0389988  65.0917776  65.1560175 140.8731843
  74.3780012  67.5174997 140.4399988  74.1040012  67.0924997 139.6269988
  74.4170012  68.4484997 140.2229988  74.3457699  67.5852484 140.2993610
  64.8850012  75.8534997 141.9949988  65.8180012  76.0114997 142.1389988
  64.6210012  76.5284997 141.3709988  64.9769888  75.9664510 141.9302842
  58.4540012  70.4894997 141.4779988  59.3680012  70.5684997 141.7519988
  58.4610012  69.8024997 140.8119988  58.5801131  70.4073961 141.4254393
  75.4990012  66.3404997 142.6299988  74.9770012  66.6974997 141.9109988
  75.4660012  67.0154997 143.3079988  75.4231634  66.4805413 142.6233145
  73.8480012  63.5804997 141.1799988  73.9440012  64.2474997 140.4999988
  73.7080012  62.7644997 140.6989988  73.8422272  63.5615655 141.0218347
  73.0950012  60.9884997 140.2979988  73.7060012  60.6174997 140.9349988
  72.2590012  60.5674997 140.4939988  73.0655032  60.8807554 140.4117035
  75.2080012  59.8734997 141.8399988  75.6200012  59.1524997 141.3649988
  75.8900012  60.5434997 141.8989988  75.3565885  59.8652368 141.7828915
  58.7650012  57.9214997 142.9459988  59.2040012  58.5324997 142.3539988
  58.1320012  58.4594997 143.4199988  58.7394514  58.0779257 142.9290930
  58.6660012  73.8694997 143.8429988  57.9810012  73.8314997 143.1759988
  58.6700012  74.7824997 144.1319988  58.5726998  73.9876733 143.7906771
  60.6260012  59.8374997 141.3879988  61.1180012  59.2074997 140.8609988
  61.2500012  60.1334997 142.0509988  60.7775688  59.7913804 141.4055482
  65.6520012  60.1304997 143.8449988  65.8300012  59.4844997 144.5279988
  65.5990012  60.9644997 144.3119988  65.6691999  60.1548009 144.0015917
  67.5310012  75.0794997 142.2409988  68.3970012  75.4454997 142.0629988
  67.2840012  74.6394997 141.4269988  67.6162392  75.0701756 142.1066289
  60.4840012  74.7894997 140.8689988  60.2170012  75.0764997 141.7419988
  61.2560012  74.2434997 141.0209988  60.5517488  74.7550294 141.0091050
  86.6380012  64.9814997 141.5919988  87.3390012  65.0034997 142.2429988
  86.9410012  64.3534997 140.9349988  86.7748133  64.8997070 141.5923369
  88.8610012  65.8954997 143.1899988  89.4410012  66.0454997 143.9369988
  89.2750012  66.3664997 142.4659988  88.9962997  65.9796578 143.1944058
  92.5600012  57.6454997 143.0029988  91.6600012  57.7844997 143.2979988
  92.8120012  58.4764997 142.6009988  92.4708702  57.7769074 142.9890205
  93.7490012  72.0114997 141.3789988  93.8230012  72.9504997 141.5499988
  94.6550012  71.7064997 141.3229988  93.8815100  72.0986722 141.3948119
  89.1620012  74.7424997 142.0419988  89.5370012  73.9984997 141.5709988
  89.1660012  74.4724997 142.9609988  89.2139125  74.6040986 142.1016483
  90.3390012  66.9284997 140.8199988  90.3810012  66.7054997 139.8899988
  91.1880012  67.3274997 141.0089988  90.4595280  66.9519438 140.7183554
  85.9110012  60.8044997 141.4899988  85.6580012  60.8234997 142.4129988
  85.6550012  59.9324997 141.1879988  85.8417481  60.6892558 141.5756175
  82.7940012  61.2494997 140.5909988  82.3630012  60.8044997 141.3209988
  82.0760012  61.6214997 140.0789988  82.6379438  61.2388940 140.6216799
  77.3100012  61.7374997 143.0669988  77.7840012  62.3284997 142.4819988
  76.5930012  62.2684997 143.4139988  77.2779341  61.8900867 143.0338836
  81.4120012  64.0274997 141.9729988  80.8690012  63.6474997 141.2819988
  82.2450012  64.2214997 141.5449988  81.4503631  64.0017125 141.8204501
  84.7470012  68.5924997 143.9089988  84.0020012  68.0854997 143.5869988
  84.6130012  68.6414997 144.8559988  84.6268776  68.5296940 143.9928647
  88.6450012  61.4064997 142.1079988  87.7060012  61.5184997 141.9569988
  88.9420012  62.2634997 142.4149988  88.5567583  61.5375981 142.1288337
  89.3630012  63.2734997 143.7689988  90.2550012  63.1364997 144.0879988
  89.4200012  64.0644997 143.2319988  89.4926504  63.3616052 143.7400818
  86.8730012  70.0514997 142.9349988  86.5770012  70.8774997 143.3159988
  86.1700012  69.4314997 143.1309988  86.7374914  70.0808199 143.0136443
  94.2480012  63.4834997 143.4639988  93.6940012  63.0874997 142.7919988
  94.3480012  64.3934997 143.1859988  94.1857059  63.5523586 143.3344401
  92.5430012  72.2694997 143.9289988  92.1700012  71.4434997 144.2379988
  92.8210012  72.0864997 143.0309988  92.5295222  72.1317430 143.8499473
  78.0020012  66.2674997 141.6699988  78.6180012  66.8944997 142.0499988
  77.1400012  66.5834997 141.9419988  77.9697698  66.3959430 141.7587183
  89.9360012  70.2454997 141.7489988  90.2890012  69.8654997 142.5529988
  88.9870012  70.1524997 141.8359988  89.8560918  70.1808956 141.8708532
  94.4390012  74.7254997 141.9499988  95.1830012  75.3114997 141.8099988
  93.7450012  75.2934997 142.2829988  94.4469899  74.8825798 141.9758778
  90.8020012  68.9184997 143.9759988  90.5240012  68.1904997 144.5319988
  91.7290012  69.0374997 144.1809988  90.8893124  68.8348802 144.0798845
  84.0270012  71.3574997 140.1959988  84.2660012  70.6094997 139.6489988
  83.7580012  70.9694997 141.0289988  84.0233675  71.2026638 140.2336865
  82.9640012  70.9274997 142.6519988  83.1100012  70.4074997 143.4419988
  82.9610012  71.8344997 142.9589988  82.9835792  70.9788842 142.8016117
  79.4170012  68.1804997 143.1629988  78.7310012  68.5324997 143.7299988
  79.9390012  68.9434997 142.9159988  79.3936852  68.3318578 143.2072118
  85.7010012  72.6254997 143.4019988  84.8850012  73.1224997 143.4539988
  86.2310012  73.1004997 142.7619988  85.6609161  72.7577722 143.3225956
  83.0400012  73.6694997 143.3829988  83.2000012  74.4684997 142.8829988
  82.8420012  73.9754997 144.2679988  83.0351637  73.8204020 143.4341144
  81.7740012  60.3664997 142.9989988  81.6910012  61.2554997 143.3459988
  82.6640012  60.1014997 143.2309988  81.8829469  60.4521430 143.0777626
  80.0330012  70.7944997 142.0599988  80.6250012  71.4934997 142.3359988
  80.4920012  70.3614997 141.3399988  80.1761142  70.8317049 142.0004830
  78.3490012  63.4584997 141.1759988  78.3040012  64.3974997 141.3539988
  77.4610012  63.2224997 140.9059988  78.2228574  63.5551892 141.1638912
  86.0650012  73.2204997 140.3349988  85.4210012  72.5894997 140.6559988
  86.8270012  72.6894997 140.1029988  86.0798077  73.0622920 140.3476011
  90.6690012  73.0374997 140.5679988  90.9520012  72.2434997 141.0209988
  91.4090012  73.2704997 140.0079988  90.8078006  72.9603376 140.5542715
  81.6240012  68.9474997 140.4259988  81.6880012  68.1534997 140.9569988
  82.2770012  68.8284997 139.7359988  81.7210241  68.8227148 140.4054317
  86.9760012  69.9944997 140.1619988  86.7070012  70.1744997 141.0629988
  86.7700012  69.0684997 140.0299988  86.9113427  69.8940261 140.2675073
  82.7730012  66.9194997 142.7319988  82.3130012  66.4354997 143.4179988
  83.0280012  66.2514997 142.0959988  82.7444902  66.7628731 142.7399334
  83.8440012  65.1624997 140.9939988  83.6640012  65.0084997 140.0669988
  84.7940012  65.2704997 141.0389988  83.9477776  65.1560175 140.8731843
  93.2340012  67.5174997 140.4399988  92.9600012  67.0924997 139.6269988
  93.2730012  68.4484997 140.2229988  93.2017699  67.5852484 140.2993610
  83.7410012  75.8534997 141.9949988  84.6740012  76.0114997 142.1389988
  83.4770012  76.5284997 141.3709988  83.8329888  75.9664510 141.9302842
  77.3100012  70.4894997 141.4779988  78.2240012  70.5684997 141.7519988
  77.3170012  69.8024997 140.8119988  77.4361131  70.4073961 141.4254393
  94.3550012  66.3404997 142.6299988  93.8330012  66.6974997 141.9109988
  94.3220012  67.0154997 143.3079988  94.2791634  66.4805413 142.6233145
  92.7040012  63.5804997 141.1799988  92.8000012  64.2474997 140.4999988
  92.5640012  62.7644997 140.6989988  92.6982272  63.5615655 141.0218347
  91.9510012  60.9884997 140.2979988  92.5620012  60.6174997 140.9349988
  91.1150012  60.5674997 140.4939988  91.9215032  60.8807554 140.4117035
  94.0640012  59.8734997 141.8399988  94.4760012  59.1524997 141.3649988
  94.7460012  60.5434997 141.8989988  94.2125885  59.8652368 141.7828915
  77.6210012  57.9214997 142.9459988  78.0600012  58.5324997 142.3539988
  76.9880012  58.4594997 143.4199988  77.5954514  58.0779257 142.9290930
  77.5220012  73.8694997 143.8429988  76.8370012  73.8314997 143.1759988
  77.5260012  74.7824997 144.1319988  77.4286998  73.9876733 143.7906771
  79.4820012  59.8374997 141.3879988  79.9740012  59.2074997 140.8609988
  80.1060012  60.1334997 142.0509988  79.6335688  59.7913804 141.4055482
  84.5080012  60.1304997 143.8449988  84.6860012  59.4844997 144.5279988
  84.4550012  60.9644997 144.3119988  84.5251999  60.1548009 144.0015917
  86.3870012  75.0794997 142.2409988  87.2530012  75.4454997 142.0629988
  86.1400012  74.6394997 141.4269988  86.4722392  75.0701756 142.1066289
  79.3400012  74.7894997 140.8689988  79.0730012  75.0764997 141.7419988
  80.1120012  74.2434997 141.0209988  79.4077488  74.7550294 141.0091050
 105.4940012  64.9814997 141.5919988 106.1950012  65.0034997 142.2429988
 105.7970012  64.3534997 140.9349988 105.6308133  64.8997070 141.5923369
 107.7170012  65.8954997 143.1899988 108.2970012  66.0454997 143.9369988
 108.1310012  66.3664997 142.4659988 107.8522997  65.9796578 143.1944058
 111.4160012  57.6454997 143.0029988 110.5160012  57.7844997 143.2979988
 111.6680012  58.4764997 142.6009988 111.3268702  57.7769074 142.9890205
 112.6050012  72.0114997 141.3789988 112.6790012  72.9504997 141.5499988
 113.5110012  71.7064997 141.3229988 112.7375100  72.0986722 141.3948119
 108.0180012  74.7424997 142.0419988 108.3930012  73.9984997 141.5709988
 108.0220012  74.4724997 142.9609988 108.0699125  74.6040986 142.1016483
 109.1950012  66.9284997 140.8199988 109.2370012  66.7054997 139.8899988
 110.0440012  67.3274997 141.0089988 109.3155280  66.9519438 140.7183554
 104.7670012  60.8044997 141.4899988 104.5140012  60.8234997 142.4129988
 104.5110012  59.9324997 141.1879988 104.6977481  60.6892558 141.5756175
 101.6500012  61.2494997 140.5909988 101.2190012  60.8044997 141.3209988
 100.9320012  61.6214997 140.0789988 101.4939438  61.2388940 140.6216799
  96.1660012  61.7374997 143.0669988  96.6400012  62.3284997 142.4819988
  95.4490012  62.2684997 143.4139988  96.1339341  61.8900867 143.0338836
 100.2680012  64.0274997 141.9729988  99.7250012  63.6474997 141.2819988
 101.1010012  64.2214997 141.5449988 100.3063631  64.0017125 141.8204501
 103.6030012  68.5924997 143.9089988 102.8580012  68.0854997 143.5869988
 103.4690012  68.6414997 144.8559988 103.4828776  68.5296940 143.9928647
 107.5010012  61.4064997 142.1079988 106.5620012  61.5184997 141.9569988
 107.7980012  62.2634997 142.4149988 107.4127583  61.5375981 142.1288337
 108.2190012  63.2734997 143.7689988 109.1110012  63.1364997 144.0879988
 108.2760012  64.0644997 143.2319988 108.3486504  63.3616052 143.7400818
 105.7290012  70.0514997 142.9349988 105.4330012  70.8774997 143.3159988
 105.0260012  69.4314997 143.1309988 105.5934914  70.0808199 143.0136443
 113.1040012  63.4834997 143.4639988 112.5500012  63.0874997 142.7919988
 113.2040012  64.3934997 143.1859988 113.0417059  63.5523586 143.3344401
 111.3990012  72.2694997 143.9289988 111.0260012  71.4434997 144.2379988
 111.6770012  72.0864997 143.0309988 111.3855222  72.1317430 143.8499473
  96.8580012  66.2674997 141.6699988  97.4740012  66.8944997 142.0499988
  95.9960012  66.5834997 141.9419988  96.8257698  66.3959430 141.7587183
 108.7920012  70.2454997 141.7489988 109.1450012  69.8654997 142.5529988
 107.8430012  70.1524997 141.8359988 108.7120918  70.1808956 141.8708532
 113.2950012  74.7254997 141.9499988 114.0390012  75.3114997 141.8099988
 112.6010012  75.2934997 142.2829988 113.3029899  74.8825798 141.9758778
 109.6580012  68.9184997 143.9759988 109.3800012  68.1904997 144.5319988
 110.5850012  69.0374997 144.1809988 109.7453124  68.8348802 144.0798845
 102.8830012  71.3574997 140.1959988 103.1220012  70.6094997 139.6489988
 102.6140012  70.9694997 141.0289988 102.8793675  71.2026638 140.2336865
 101.8200012  70.9274997 142.6519988 101.9660012  70.4074997 143.4419988
 101.8170012  71.8344997 142.9589988 101.8395792  70.9788842 142.8016117
  98.2730012  68.1804997 143.1629988  97.5870012  68.5324997 143.7299988
  98.7950012  68.9434997 142.9159988  98.2496852  68.3318578 143.2072118
 104.5570012  72.6254997 143.4019988 103.7410012  73.1224997 143.4539988
 105.0870012  73.1004997 142.7619988 104.5169161  72.7577722 143.3225956
 101.8960012  73.6694997 143.3829988 102.0560012  74.4684997 142.8829988
 101.6980012  73.9754997 144.2679988 101.8911637  73.8204020 143.4341144
 100.6300012  60.3664997 142.9989988 100.5470012  61.2554997 143.3459988
 101.5200012  60.1014997 143.2309988 100.7389469  60.4521430 143.0777626
  98.8890012  70.7944997 142.0599988  99.4810012  71.4934997 142.3359988
  99.3480012  70.3614997 141.3399988  99.0321142  70.8317049 142.0004830
  97.2050012  63.4584997 141.1759988  97.1600012  64.3974997 141.3539988
  96.3170012  63.2224997 140.9059988  97.0788574  63.5551892 141.1638912
 104.9210012  73.2204997 140.3349988 104.2770012  72.5894997 140.6559988
 105.6830012  72.6894997 140.1029988 104.9358077  73.0622920 140.3476011
 109.5250012  73.0374997 140.5679988 109.8080012  72.2434997 141.0209988
 110.2650012  73.2704997 140.0079988 109.6638006  72.9603376 140.5542715
 100.4800012  68.9474997 140.4259988 100.5440012  68.1534997 140.9569988
 101.1330012  68.8284997 139.7359988 100.5770241  68.8227148 140.4054317
 105.8320012  69.9944997 140.1619988 105.5630012  70.1744997 141.0629988
 105.6260012  69.0684997 140.0299988 105.7673427  69.8940261 140.2675073
 101.6290012  66.9194997 142.7319988 101.1690012  66.4354997 143.4179988
 101.8840012  66.2514997 142.0959988 101.6004902  66.7628731 142.7399334
 102.7000012  65.1624997 140.9939988 102.5200012  65.0084997 140.0669988
 103.6500012  65.2704997 141.0389988 102.8037776  65.1560175 140.8731843
 112.0900012  67.5174997 140.4399988 111.8160012  67.0924997 139.6269988
 112.1290012  68.4484997 140.2229988 112.0577699  67.5852484 140.2993610
 102.5970012  75.8534997 141.9949988 103.5300012  76.0114997 142.1389988
 102.3330012  76.5284997 141.3709988 102.6889888  75.9664510 141.9302842
  96.1660012  70.4894997 141.4779988  97.0800012  70.5684997 141.7519988
  96.1730012  69.8024997 140.8119988  96.2921131  70.4073961 141.4254393
 113.2110012  66.3404997 142.6299988 112.6890012  66.6974997 141.9109988
 113.1780012  67.0154997 143.3079988 113.1351634  66.4805413 142.6233145
 111.5600012  63.5804997 141.1799988 111.6560012  64.2474997 140.4999988
 111.4200012  62.7644997 140.6989988 111.5542272  63.5615655 141.0218347
 110.8070012  60.9884997 140.2979988 111.4180012  60.6174997 140.9349988
 109.9710012  60.5674997 140.4939988 110.7775032  60.8807554 140.4117035
 112.9200012  59.8734997 141.8399988 113.3320012  59.1524997 141.3649988
 113.6020012  60.5434997 141.8989988 113.0685885  59.8652368 141.7828915
  96.4770012  57.9214997 142.9459988  96.9160012  58.5324997 142.3539988
  95.8440012  58.4594997 143.4199988  96.4514514  58.0779257 142.9290930
  96.3780012  73.8694997 143.8429988  95.6930012  73.8314997 143.1759988
  96.3820012  74.7824997 144.1319988  96.2846998  73.9876733 143.7906771
  98.3380012  59.8374997 141.3879988  98.8300012  59.2074997 140.8609988
  98.9620012  60.1334997 142.0509988  98.4895688  59.7913804 141.4055482
 103.3640012  60.1304997 143.8449988 103.5420012  59.4844997 144.5279988
 103.3110012  60.9644997 144.3119988 103.3811999  60.1548009 144.0015917
 105.2430012  75.0794997 142.2409988 106.1090012  75.4454997 142.0629988
 104.9960012  74.6394997 141.4269988 105.3282392  75.0701756 142.1066289
  98.1960012  74.7894997 140.8689988  97.9290012  75.0764997 141.7419988
  98.9680012  74.2434997 141.0209988  98.2637488  74.7550294 141.0091050
 124.3500012  64.9814997 141.5919988 125.0510012  65.0034997 142.2429988
 124.6530012  64.3534997 140.9349988 124.4868133  64.8997070 141.5923369
 126.5730012  65.8954997 143.1899988 127.1530012  66.0454997 143.9369988
 126.9870012  66.3664997 142.4659988 126.7082997  65.9796578 143.1944058
 130.2720012  57.6454997 143.0029988 129.3720012  57.7844997 143.2979988
 130.5240012  58.4764997 142.6009988 130.1828702  57.7769074 142.9890205
 131.4610012  72.0114997 141.3789988 131.5350012  72.9504997 141.5499988
 132.3670012  71.7064997 141.3229988 131.5935100  72.0986722 141.3948119
 126.8740012  74.7424997 142.0419988 127.2490012  73.9984997 141.5709988
 126.8780012  74.4724997 142.9609988 126.9259125  74.6040986 142.1016483
 128.0510012  66.9284997 140.8199988 128.0930012  66.7054997 139.8899988
 128.9000012  67.3274997 141.0089988 128.1715280  66.9519438 140.7183554
 123.6230012  60.8044997 141.4899988 123.3700012  60.8234997 142.4129988
 123.3670012  59.9324997 141.1879988 123.5537481  60.6892558 141.5756175
 120.5060012  61.2494997 140.5909988 120.0750012  60.8044997 141.3209988
 119.7880012  61.6214997 140.0789988 120.3499438  61.2388940 140.6216799
 115.0220012  61.7374997 143.0669988 115.4960012  62.3284997 142.4819988
 114.3050012  62.2684997 143.4139988 114.9899341  61.8900867 143.0338836
 119.1240012  64.0274997 141.9729988 118.5810012  63.6474997 141.2819988
 119.9570012  64.2214997 141.5449988 119.1623631  64.0017125 141.8204501
 122.4590012  68.5924997 143.9089988 121.7140012  68.0854997 143.5869988
 122.3250012  68.6414997 144.8559988 122.3388776  68.5296940 143.9928647
 126.3570012  61.4064997 142.1079988 125.4180012  61.5184997 141.9569988
 126.6540012  62.2634997 142.4149988 126.2687583  61.5375981 142.1288337
 127.0750012  63.2734997 143.7689988 127.9670012  63.1364997 144.0879988
 127.1320012  64.0644997 143.2319988 127.2046504  63.3616052 143.7400818
 124.5850012  70.0514997 142.9349988 124.2890012  70.8774997 143.3159988
 123.8820012  69.4314997 143.1309988 124.4494914  70.0808199 143.0136443
 131.9600012  63.4834997 143.4639988 131.4060012  63.0874997 142.7919988
 132.0600012  64.3934997 143.1859988 131.8977059  63.5523586 143.3344401
 130.2550012  72.2694997 143.9289988 129.8820012  71.4434997 144.2379988
 130.5330012  72.0864997 143.0309988 130.2415222  72.1317430 143.8499473
 115.7140012  66.2674997 141.6699988 116.3300012  66.8944997 142.0499988
 114.8520012  66.5834997 141.9419988 115.6817698  66.3959430 141.7587183
 127.6480012  70.2454997 141.7489988 128.0010012  69.8654997 142.5529988
 126.6990012  70.1524997 141.8359988 127.5680918  70.1808956 141.8708532
 132.1510012  74.7254997 141.9499988 132.8950012  75.3114997 141.8099988
 131.4570012  75.2934997 142.2829988 132.1589899  74.8825798 141.9758778
 128.5140012  68.9184997 143.9759988 128.2360012  68.1904997 144.5319988
 129.4410012  69.0374997 144.1809988 128.6013124  68.8348802 144.0798845
 121.7390012  71.3574997 140.1959988 121.9780012  70.6094997 139.6489988
 121.4700012  70.9694997 141.0289988 121.7353675  71.2026638 140.2336865
 120.6760012  70.9274997 142.6519988 120.8220012  70.4074997 143.4419988
 120.6730012  71.8344997 142.9589988 120.6955792  70.9788842 142.8016117
 117.1290012  68.1804997 143.1629988 116.4430012  68.5324997 143.7299988
 117.6510012  68.9434997 142.9159988 117.1056852  68.3318578 143.2072118
 123.4130012  72.6254997 143.4019988 122.5970012  73.1224997 143.4539988
 123.9430012  73.1004997 142.7619988 123.3729161  72.7577722 143.3225956
 120.7520012  73.6694997 143.3829988 120.9120012  74.4684997 142.8829988
 120.5540012  73.9754997 144.2679988 120.7471637  73.8204020 143.4341144
 119.4860012  60.3664997 142.9989988 119.4030012  61.2554997 143.3459988
 120.3760012  60.1014997 143.2309988 119.5949469  60.4521430 143.0777626
 117.7450012  70.7944997 142.0599988 118.3370012  71.4934997 142.3359988
 118.2040012  70.3614997 141.3399988 117.8881142  70.8317049 142.0004830
 116.0610012  63.4584997 141.1759988 116.0160012  64.3974997 141.3539988
 115.1730012  63.2224997 140.9059988 115.9348574  63.5551892 141.1638912
 123.7770012  73.2204997 140.3349988 123.1330012  72.5894997 140.6559988
 124.5390012  72.6894997 140.1029988 123.7918077  73.0622920 140.3476011
 128.3810012  73.0374997 140.5679988 128.6640012  72.2434997 141.0209988
 129.1210012  73.2704997 140.0079988 128.5198006  72.9603376 140.5542715
 119.3360012  68.9474997 140.4259988 119.4000012  68.1534997 140.9569988
 119.9890012  68.8284997 139.7359988 119.4330241  68.8227148 140.4054317
 124.6880012  69.9944997 140.1619988 124.4190012  70.1744997 141.0629988
 124.4820012  69.0684997 140.0299988 124.6233427  69.8940261 140.2675073
 120.4850012  66.9194997 142.7319988 120.0250012  66.4354997 143.4179988
 120.7400012  66.2514997 142.0959988 120.4564902  66.7628731 142.7399334
 121.5560012  65.1624997 140.9939988 121.3760012  65.0084997 140.0669988
 122.5060012  65.2704997 141.0389988 121.6597776  65.1560175 140.8731843
 130.9460012  67.5174997 140.4399988 130.6720012  67.0924997 139.6269988
 130.9850012  68.4484997 140.2229988 130.9137699  67.5852484 140.2993610
 121.4530012  75.8534997 141.9949988 122.3860012  76.0114997 142.1389988
 121.1890012  76.5284997 141.3709988 121.5449888  75.9664510 141.9302842
 115.0220012  70.4894997 141.4779988 115.9360012  70.5684997 141.7519988
 115.0290012  69.8024997 140.8119988 115.1481131  70.4073961 141.4254393
 132.0670012  66.3404997 142.6299988 131.5450012  66.6974997 141.9109988
 132.0340012  67.0154997 143.3079988 131.9911634  66.4805413 142.6233145
 130.4160012  63.5804997 141.1799988 130.5120012  64.2474997 140.4999988
 130.2760012  62.7644997 140.6989988 130.4102272  63.5615655 141.0218347
 129.6630012  60.9884997 140.2979988 130.2740012  60.6174997 140.9349988
 128.8270012  60.5674997 140.4939988 129.6335032  60.8807554 140.4117035
 131.7760012  59.8734997 141.8399988 132.1880012  59.1524997 141.3649988
 132.4580012  60.5434997 141.8989988 131.9245885  59.8652368 141.7828915
 115.3330012  57.9214997 142.9459988 115.7720012  58.5324997 142.3539988
 114.7000012  58.4594997 143.4199988 115.3074514  58.0779257 142.9290930
 115.2340012  73.8694997 143.8429988 114.5490012  73.8314997 143.1759988
 115.2380012  74.7824997 144.1319988 115.1406998  73.9876733 143.7906771
 117.1940012  59.8374997 141.3879988 117.6860012  59.2074997 140.8609988
 117.8180012  60.1334997 142.0509988 117.3455688  59.7913804 141.4055482
 122.2200012  60.1304997 143.8449988 122.3980012  59.4844997 144.5279988
 122.1670012  60.9644997 144.3119988 122.2371999  60.1548009 144.0015917
 124.0990012  75.0794997 142.2409988 124.9650012  75.4454997 142.0629988
 123.8520012  74.6394997 141.4269988 124.1842392  75.0701756 142.1066289
 117.0520012  74.7894997 140.8689988 116.7850012  75.0764997 141.7419988
 117.8240012  74.2434997 141.0209988 117.1197488  74.7550294 141.0091050
 143.2060012  64.9814997 141.5919988 143.9070012  65.0034997 142.2429988
 143.5090012  64.3534997 140.9349988 143.3428133  64.8997070 141.5923369
 142.4790012  60.8044997 141.4899988 142.2260012  60.8234997 142.4129988
 142.2230012  59.9324997 141.1879988 142.4097481  60.6892558 141.5756175
 139.3620012  61.2494997 140.5909988 138.9310012  60.8044997 141.3209988
 138.6440012  61.6214997 140.0789988 139.2059438  61.2388940 140.6216799
 133.8780012  61.7374997 143.0669988 134.3520012  62.3284997 142.4819988
 133.1610012  62.2684997 143.4139988 133.8459341  61.8900867 143.0338836
 137.9800012  64.0274997 141.9729988 137.4370012  63.6474997 141.2819988
 138.8130012  64.2214997 141.5449988 138.0183631  64.0017125 141.8204501
 141.3150012  68.5924997 143.9089988 140.5700012  68.0854997 143.5869988
 141.1810012  68.6414997 144.8559988 141.1948776  68.5296940 143.9928647
 143.4410012  70.0514997 142.9349988 143.1450012  70.8774997 143.3159988
 142.7380012  69.4314997 143.1309988 143.3054914  70.0808199 143.0136443
 134.5700012  66.2674997 141.6699988 135.1860012  66.8944997 142.0499988
 133.7080012  66.5834997 141.9419988 134.5377698  66.3959430 141.7587183
 140.5950012  71.3574997 140.1959988 140.8340012  70.6094997 139.6489988
 140.3260012  70.9694997 141.0289988 140.5913675  71.2026638 140.2336865
 139.5320012  70.9274997 142.6519988 139.6780012  70.4074997 143.4419988
 139.5290012  71.8344997 142.9589988 139.5515792  70.9788842 142.8016117
 135.9850012  68.1804997 143.1629988 135.2990012  68.5324997 143.7299988
 136.5070012  68.9434997 142.9159988 135.9616852  68.3318578 143.2072118
 142.2690012  72.6254997 143.4019988 141.4530012  73.1224997 143.4539988
 142.7990012  73.1004997 142.7619988 142.2289161  72.7577722 143.3225956
 139.6080012  73.6694997 143.3829988 139.7680012  74.4684997 142.8829988
 139.4100012  73.9754997 144.2679988 139.6031637  73.8204020 143.4341144
 138.3420012  60.3664997 142.9989988 138.2590012  61.2554997 143.3459988
 139.2320012  60.1014997 143.2309988 138.4509469  60.4521430 143.0777626
 136.6010012  70.7944997 142.0599988 137.1930012  71.4934997 142.3359988
 137.0600012  70.3614997 141.3399988 136.7441142  70.8317049 142.0004830
 134.9170012  63.4584997 141.1759988 134.8720012  64.3974997 141.3539988
 134.0290012  63.2224997 140.9059988 134.7908574  63.5551892 141.1638912
 142.6330012  73.2204997 140.3349988 141.9890012  72.5894997 140.6559988
 143.3950012  72.6894997 140.1029988 142.6478077  73.0622920 140.3476011
 138.1920012  68.9474997 140.4259988 138.2560012  68.1534997 140.9569988
 138.8450012  68.8284997 139.7359988 138.2890241  68.8227148 140.4054317
 143.5440012  69.9944997 140.1619988 143.2750012  70.1744997 141.0629988
 143.3380012  69.0684997 140.0299988 143.4793427  69.8940261 140.2675073
 139.3410012  66.9194997 142.7319988 138.8810012  66.4354997 143.4179988
 139.5960012  66.2514997 142.0959988 139.3124902  66.7628731 142.7399334
 140.4120012  65.1624997 140.9939988 140.2320012  65.0084997 140.0669988
 141.3620012  65.2704997 141.0389988 140.5157776  65.1560175 140.8731843
 140.3090012  75.8534997 141.9949988 141.2420012  76.0114997 142.1389988
 140.0450012  76.5284997 141.3709988 140.4009888  75.9664510 141.9302842
 133.8780012  70.4894997 141.4779988 134.7920012  70.5684997 141.7519988
 133.8850012  69.8024997 140.8119988 134.0041131  70.4073961 141.4254393
 134.1890012  57.9214997 142.9459988 134.6280012  58.5324997 142.3539988
 133.5560012  58.4594997 143.4199988 134.1634514  58.0779257 142.9290930
 134.0900012  73.8694997 143.8429988 133.4050012  73.8314997 143.1759988
 134.0940012  74.7824997 144.1319988 133.9966998  73.9876733 143.7906771
 136.0500012  59.8374997 141.3879988 136.5420012  59.2074997 140.8609988
 136.6740012  60.1334997 142.0509988 136.2015688  59.7913804 141.4055482
 141.0760012  60.1304997 143.8449988 141.2540012  59.4844997 144.5279988
 141.0230012  60.9644997 144.3119988 141.0931999  60.1548009 144.0015917
 142.9550012  75.0794997 142.2409988 143.8210012  75.4454997 142.0629988
 142.7080012  74.6394997 141.4269988 143.0402392  75.0701756 142.1066289
 135.9080012  74.7894997 140.8689988 135.6410012  75.0764997 141.7419988
 136.6800012  74.2434997 141.0209988 135.9757488  74.7550294 141.0091050
  11.2140012  83.8374997 141.5919988  11.9150012  83.8594997 142.2429988
  11.5170012  83.2094997 140.9349988  11.3508133  83.7557070 141.5923369
  13.4370012  84.7514997 143.1899988  14.0170012  84.9014997 143.9369988
  13.8510012  85.2224997 142.4659988  13.5722997  84.8356578 143.1944058
  17.1360012  76.5014997 143.0029988  16.2360012  76.6404997 143.2979988
  17.3880012  77.3324997 142.6009988  17.0468702  76.6329074 142.9890205
  18.3250012  90.8674997 141.3789988  18.3990012  91.8064997 141.5499988
  19.2310012  90.5624997 141.3229988  18.4575100  90.9546722 141.3948119
  13.7380012  93.5984997 142.0419988  14.1130012  92.8544997 141.5709988
  13.7420012  93.3284997 142.9609988  13.7899125  93.4600986 142.1016483
  14.9150012  85.7844997 140.8199988  14.9570012  85.5614997 139.8899988
  15.7640012  86.1834997 141.0089988  15.0355280  85.8079438 140.7183554
  10.4870012  79.6604997 141.4899988  10.2340012  79.6794997 142.4129988
  10.2310012  78.7884997 141.1879988  10.4177481  79.5452558 141.5756175
   7.3700012  80.1054997 140.5909988   6.9390012  79.6604997 141.3209988
   6.6520012  80.4774997 140.0789988   7.2139438  80.0948940 140.6216799
   1.8860012  80.5934997 143.0669988   2.3600012  81.1844997 142.4819988
   1.1690012  81.1244997 143.4139988   1.8539341  80.7460867 143.0338836
   5.9880012  82.8834997 141.9729988   5.4450012  82.5034997 141.2819988
   6.8210012  83.0774997 141.5449988   6.0263631  82.8577125 141.8204501
   9.3230012  87.4484997 143.9089988   8.5780012  86.9414997 143.5869988
   9.1890012  87.4974997 144.8559988   9.2028776  87.3856940 143.9928647
  13.2210012  80.2624997 142.1079988  12.2820012  80.3744997 141.9569988
  13.5180012  81.1194997 142.4149988  13.1327583  80.3935981 142.1288337
  13.9390012  82.1294997 143.7689988  14.8310012  81.9924997 144.0879988
  13.9960012  82.9204997 143.2319988  14.0686504  82.2176052 143.7400818
  11.4490012  88.9074997 142.9349988  11.1530012  89.7334997 143.3159988
  10.7460012  88.2874997 143.1309988  11.3134914  88.9368199 143.0136443
  18.8240012  82.3394997 143.4639988  18.2700012  81.9434997 142.7919988
  18.9240012  83.2494997 143.1859988  18.7617059  82.4083586 143.3344401
  17.1190012  91.1254997 143.9289988  16.7460012  90.2994997 144.2379988
  17.3970012  90.9424997 143.0309988  17.1055222  90.9877430 143.8499473
   2.5780012  85.1234997 141.6699988   3.1940012  85.7504997 142.0499988
   1.7160012  85.4394997 141.9419988   2.5457698  85.2519430 141.7587183
  14.5120012  89.1014997 141.7489988  14.8650012  88.7214997 142.5529988
  13.5630012  89.0084997 141.8359988  14.4320918  89.0368956 141.8708532
  19.0150012  93.5814997 141.9499988  19.7590012  94.1674997 141.8099988
  18.3210012  94.1494997 142.2829988  19.0229899  93.7385798 141.9758778
  15.3780012  87.7744997 143.9759988  15.1000012  87.0464997 144.5319988
  16.3050012  87.8934997 144.1809988  15.4653124  87.6908802 144.0798845
   8.6030012  90.2134997 140.1959988   8.8420012  89.4654997 139.6489988
   8.3340012  89.8254997 141.0289988   8.5993675  90.0586638 140.2336865
   7.5400012  89.7834997 142.6519988   7.6860012  89.2634997 143.4419988
   7.5370012  90.6904997 142.9589988   7.5595792  89.8348842 142.8016117
   3.9930012  87.0364997 143.1629988   3.3070012  87.3884997 143.7299988
   4.5150012  87.7994997 142.9159988   3.9696852  87.1878578 143.2072118
  10.2770012  91.4814997 143.4019988   9.4610012  91.9784997 143.4539988
  10.8070012  91.9564997 142.7619988  10.2369161  91.6137722 143.3225956
   7.6160012  92.5254997 143.3829988   7.7760012  93.3244997 142.8829988
   7.4180012  92.8314997 144.2679988   7.6111637  92.6764020 143.4341144
   6.3500012  79.2224997 142.9989988   6.2670012  80.1114997 143.3459988
   7.2400012  78.9574997 143.2309988   6.4589469  79.3081430 143.0777626
   4.6090012  89.6504997 142.0599988   5.2010012  90.3494997 142.3359988
   5.0680012  89.2174997 141.3399988   4.7521142  89.6877049 142.0004830
   2.9250012  82.3144997 141.1759988   2.8800012  83.2534997 141.3539988
   2.0370012  82.0784997 140.9059988   2.7988574  82.4111892 141.1638912
  10.6410012  92.0764997 140.3349988   9.9970012  91.4454997 140.6559988
  11.4030012  91.5454997 140.1029988  10.6558077  91.9182920 140.3476011
  15.2450012  91.8934997 140.5679988  15.5280012  91.0994997 141.0209988
  15.9850012  92.1264997 140.0079988  15.3838006  91.8163376 140.5542715
   6.2000012  87.8034997 140.4259988   6.2640012  87.0094997 140.9569988
   6.8530012  87.6844997 139.7359988   6.2970241  87.6787148 140.4054317
  11.5520012  88.8504997 140.1619988  11.2830012  89.0304997 141.0629988
  11.3460012  87.9244997 140.0299988  11.4873427  88.7500261 140.2675073
   7.3490012  85.7754997 142.7319988   6.8890012  85.2914997 143.4179988
   7.6040012  85.1074997 142.0959988   7.3204902  85.6188731 142.7399334
   8.4200012  84.0184997 140.9939988   8.2400012  83.8644997 140.0669988
   9.3700012  84.1264997 141.0389988   8.5237776  84.0120175 140.8731843
  17.8100012  86.3734997 140.4399988  17.5360012  85.9484997 139.6269988
  17.8490012  87.3044997 140.2229988  17.7777699  86.4412484 140.2993610
   8.3170012  94.7094997 141.9949988   9.2500012  94.8674997 142.1389988
   8.0530012  95.3844997 141.3709988   8.4089888  94.8224510 141.9302842
   1.8860012  89.3454997 141.4779988   2.8000012  89.4244997 141.7519988
   1.8930012  88.6584997 140.8119988   2.0121131  89.2633961 141.4254393
  18.9310012  85.1964997 142.6299988  18.4090012  85.5534997 141.9109988
  18.8980012  85.8714997 143.3079988  18.8551634  85.3365413 142.6233145
  17.2800012  82.4364997 141.1799988  17.3760012  83.1034997 140.4999988
  17.1400012  81.6204997 140.6989988  17.2742272  82.4175655 141.0218347
  16.5270012  79.8444997 140.2979988  17.1380012  79.4734997 140.9349988
  15.6910012  79.4234997 140.4939988  16.4975032  79.7367554 140.4117035
  18.6400012  78.7294997 141.8399988  19.0520012  78.0084997 141.3649988
  19.3220012  79.3994997 141.8989988  18.7885885  78.7212368 141.7828915
   2.1970012  76.7774997 142.9459988   2.6360012  77.3884997 142.3539988
   1.5640012  77.3154997 143.4199988   2.1714514  76.9339257 142.9290930
   2.0980012  92.7254997 143.8429988   1.4130012  92.6874997 143.1759988
   2.1020012  93.6384997 144.1319988   2.0046998  92.8436733 143.7906771
   4.0580012  78.6934997 141.3879988   4.5500012  78.0634997 140.8609988
   4.6820012  78.9894997 142.0509988   4.2095688  78.6473804 141.4055482
   9.0840012  78.9864997 143.8449988   9.2620012  78.3404997 144.5279988
   9.0310012  79.8204997 144.3119988   9.1011999  79.0108009 144.0015917
  10.9630012  93.9354997 142.2409988  11.8290012  94.3014997 142.0629988
  10.7160012  93.4954997 141.4269988  11.0482392  93.9261756 142.1066289
   3.9160012  93.6454997 140.8689988   3.6490012  93.9324997 141.7419988
   4.6880012  93.0994997 141.0209988   3.9837488  93.6110294 141.0091050
  30.0700012  83.8374997 141.5919988  30.7710012  83.8594997 142.2429988
  30.3730012  83.2094997 140.9349988  30.2068133  83.7557070 141.5923369
  32.2930012  84.7514997 143.1899988  32.8730012  84.9014997 143.9369988
  32.7070012  85.2224997 142.4659988  32.4282997  84.8356578 143.1944058
  35.9920012  76.5014997 143.0029988  35.0920012  76.6404997 143.2979988
  36.2440012  77.3324997 142.6009988  35.9028702  76.6329074 142.9890205
  37.1810012  90.8674997 141.3789988  37.2550012  91.8064997 141.5499988
  38.0870012  90.5624997 141.3229988  37.3135100  90.9546722 141.3948119
  32.5940012  93.5984997 142.0419988  32.9690012  92.8544997 141.5709988
  32.5980012  93.3284997 142.9609988  32.6459125  93.4600986 142.1016483
  33.7710012  85.7844997 140.8199988  33.8130012  85.5614997 139.8899988
  34.6200012  86.1834997 141.0089988  33.8915280  85.8079438 140.7183554
  29.3430012  79.6604997 141.4899988  29.0900012  79.6794997 142.4129988
  29.0870012  78.7884997 141.1879988  29.2737481  79.5452558 141.5756175
  26.2260012  80.1054997 140.5909988  25.7950012  79.6604997 141.3209988
  25.5080012  80.4774997 140.0789988  26.0699438  80.0948940 140.6216799
  20.7420012  80.5934997 143.0669988  21.2160012  81.1844997 142.4819988
  20.0250012  81.1244997 143.4139988  20.7099341  80.7460867 143.0338836
  24.8440012  82.8834997 141.9729988  24.3010012  82.5034997 141.2819988
  25.6770012  83.0774997 141.5449988  24.8823631  82.8577125 141.8204501
  28.1790012  87.4484997 143.9089988  27.4340012  86.9414997 143.5869988
  28.0450012  87.4974997 144.8559988  28.0588776  87.3856940 143.9928647
  32.0770012  80.2624997 142.1079988  31.1380012  80.3744997 141.9569988
  32.3740012  81.1194997 142.4149988  31.9887583  80.3935981 142.1288337
  32.7950012  82.1294997 143.7689988  33.6870012  81.9924997 144.0879988
  32.8520012  82.9204997 143.2319988  32.9246504  82.2176052 143.7400818
  30.3050012  88.9074997 142.9349988  30.0090012  89.7334997 143.3159988
  29.6020012  88.2874997 143.1309988  30.1694914  88.9368199 143.0136443
  37.6800012  82.3394997 143.4639988  37.1260012  81.9434997 142.7919988
  37.7800012  83.2494997 143.1859988  37.6177059  82.4083586 143.3344401
  35.9750012  91.1254997 143.9289988  35.6020012  90.2994997 144.2379988
  36.2530012  90.9424997 143.0309988  35.9615222  90.9877430 143.8499473
  21.4340012  85.1234997 141.6699988  22.0500012  85.7504997 142.0499988
  20.5720012  85.4394997 141.9419988  21.4017698  85.2519430 141.7587183
  33.3680012  89.1014997 141.7489988  33.7210012  88.7214997 142.5529988
  32.4190012  89.0084997 141.8359988  33.2880918  89.0368956 141.8708532
  37.8710012  93.5814997 141.9499988  38.6150012  94.1674997 141.8099988
  37.1770012  94.1494997 142.2829988  37.8789899  93.7385798 141.9758778
  34.2340012  87.7744997 143.9759988  33.9560012  87.0464997 144.5319988
  35.1610012  87.8934997 144.1809988  34.3213124  87.6908802 144.0798845
  27.4590012  90.2134997 140.1959988  27.6980012  89.4654997 139.6489988
  27.1900012  89.8254997 141.0289988  27.4553675  90.0586638 140.2336865
  26.3960012  89.7834997 142.6519988  26.5420012  89.2634997 143.4419988
  26.3930012  90.6904997 142.9589988  26.4155792  89.8348842 142.8016117
  22.8490012  87.0364997 143.1629988  22.1630012  87.3884997 143.7299988
  23.3710012  87.7994997 142.9159988  22.8256852  87.1878578 143.2072118
  29.1330012  91.4814997 143.4019988  28.3170012  91.9784997 143.4539988
  29.6630012  91.9564997 142.7619988  29.0929161  91.6137722 143.3225956
  26.4720012  92.5254997 143.3829988  26.6320012  93.3244997 142.8829988
  26.2740012  92.8314997 144.2679988  26.4671637  92.6764020 143.4341144
  25.2060012  79.2224997 142.9989988  25.1230012  80.1114997 143.3459988
  26.0960012  78.9574997 143.2309988  25.3149469  79.3081430 143.0777626
  23.4650012  89.6504997 142.0599988  24.0570012  90.3494997 142.3359988
  23.9240012  89.2174997 141.3399988  23.6081142  89.6877049 142.0004830
  21.7810012  82.3144997 141.1759988  21.7360012  83.2534997 141.3539988
  20.8930012  82.0784997 140.9059988  21.6548574  82.4111892 141.1638912
  29.4970012  92.0764997 140.3349988  28.8530012  91.4454997 140.6559988
  30.2590012  91.5454997 140.1029988  29.5118077  91.9182920 140.3476011
  34.1010012  91.8934997 140.5679988  34.3840012  91.0994997 141.0209988
  34.8410012  92.1264997 140.0079988  34.2398006  91.8163376 140.5542715
  25.0560012  87.8034997 140.4259988  25.1200012  87.0094997 140.9569988
  25.7090012  87.6844997 139.7359988  25.1530241  87.6787148 140.4054317
  30.4080012  88.8504997 140.1619988  30.1390012  89.0304997 141.0629988
  30.2020012  87.9244997 140.0299988  30.3433427  88.7500261 140.2675073
  26.2050012  85.7754997 142.7319988  25.7450012  85.2914997 143.4179988
  26.4600012  85.1074997 142.0959988  26.1764902  85.6188731 142.7399334
  27.2760012  84.0184997 140.9939988  27.0960012  83.8644997 140.0669988
  28.2260012  84.1264997 141.0389988  27.3797776  84.0120175 140.8731843
  36.6660012  86.3734997 140.4399988  36.3920012  85.9484997 139.6269988
  36.7050012  87.3044997 140.2229988  36.6337699  86.4412484 140.2993610
  27.1730012  94.7094997 141.9949988  28.1060012  94.8674997 142.1389988
  26.9090012  95.3844997 141.3709988  27.2649888  94.8224510 141.9302842
  20.7420012  89.3454997 141.4779988  21.6560012  89.4244997 141.7519988
  20.7490012  88.6584997 140.8119988  20.8681131  89.2633961 141.4254393
  37.7870012  85.1964997 142.6299988  37.2650012  85.5534997 141.9109988
  37.7540012  85.8714997 143.3079988  37.7111634  85.3365413 142.6233145
  36.1360012  82.4364997 141.1799988  36.2320012  83.1034997 140.4999988
  35.9960012  81.6204997 140.6989988  36.1302272  82.4175655 141.0218347
  35.3830012  79.8444997 140.2979988  35.9940012  79.4734997 140.9349988
  34.5470012  79.4234997 140.4939988  35.3535032  79.7367554 140.4117035
  37.4960012  78.7294997 141.8399988  37.9080012  78.0084997 141.3649988
  38.1780012  79.3994997 141.8989988  37.6445885  78.7212368 141.7828915
  21.0530012  76.7774997 142.9459988  21.4920012  77.3884997 142.3539988
  20.4200012  77.3154997 143.4199988  21.0274514  76.9339257 142.9290930
  20.9540012  92.7254997 143.8429988  20.2690012  92.6874997 143.1759988
  20.9580012  93.6384997 144.1319988  20.8606998  92.8436733 143.7906771
  22.9140012  78.6934997 141.3879988  23.4060012  78.0634997 140.8609988
  23.5380012  78.9894997 142.0509988  23.0655688  78.6473804 141.4055482
  27.9400012  78.9864997 143.8449988  28.1180012  78.3404997 144.5279988
  27.8870012  79.8204997 144.3119988  27.9571999  79.0108009 144.0015917
  29.8190012  93.9354997 142.2409988  30.6850012  94.3014997 142.0629988
  29.5720012  93.4954997 141.4269988  29.9042392  93.9261756 142.1066289
  22.7720012  93.6454997 140.8689988  22.5050012  93.9324997 141.7419988
  23.5440012  93.0994997 141.0209988  22.8397488  93.6110294 141.0091050
  48.9260012  83.8374997 141.5919988  49.6270012  83.8594997 142.2429988
  49.2290012  83.2094997 140.9349988  49.0628133  83.7557070 141.5923369
  51.1490012  84.7514997 143.1899988  51.7290012  84.9014997 143.9369988
  51.5630012  85.2224997 142.4659988  51.2842997  84.8356578 143.1944058
  54.8480012  76.5014997 143.0029988  53.9480012  76.6404997 143.2979988
  55.1000012  77.3324997 142.6009988  54.7588702  76.6329074 142.9890205
  56.0370012  90.8674997 141.3789988  56.1110012  91.8064997 141.5499988
  56.9430012  90.5624997 141.3229988  56.1695100  90.9546722 141.3948119
  51.4500012  93.5984997 142.0419988  51.8250012  92.8544997 141.5709988
  51.4540012  93.3284997 142.9609988  51.5019125  93.4600986 142.1016483
  52.6270012  85.7844997 140.8199988  52.6690012  85.5614997 139.8899988
  53.4760012  86.1834997 141.0089988  52.7475280  85.8079438 140.7183554
  48.1990012  79.6604997 141.4899988  47.9460012  79.6794997 142.4129988
  47.9430012  78.7884997 141.1879988  48.1297481  79.5452558 141.5756175
  45.0820012  80.1054997 140.5909988  44.6510012  79.6604997 141.3209988
  44.3640012  80.4774997 140.0789988  44.9259438  80.0948940 140.6216799
  39.5980012  80.5934997 143.0669988  40.0720012  81.1844997 142.4819988
  38.8810012  81.1244997 143.4139988  39.5659341  80.7460867 143.0338836
  43.7000012  82.8834997 141.9729988  43.1570012  82.5034997 141.2819988
  44.5330012  83.0774997 141.5449988  43.7383631  82.8577125 141.8204501
  47.0350012  87.4484997 143.9089988  46.2900012  86.9414997 143.5869988
  46.9010012  87.4974997 144.8559988  46.9148776  87.3856940 143.9928647
  50.9330012  80.2624997 142.1079988  49.9940012  80.3744997 141.9569988
  51.2300012  81.1194997 142.4149988  50.8447583  80.3935981 142.1288337
  51.6510012  82.1294997 143.7689988  52.5430012  81.9924997 144.0879988
  51.7080012  82.9204997 143.2319988  51.7806504  82.2176052 143.7400818
  49.1610012  88.9074997 142.9349988  48.8650012  89.7334997 143.3159988
  48.4580012  88.2874997 143.1309988  49.0254914  88.9368199 143.0136443
  56.5360012  82.3394997 143.4639988  55.9820012  81.9434997 142.7919988
  56.6360012  83.2494997 143.1859988  56.4737059  82.4083586 143.3344401
  54.8310012  91.1254997 143.9289988  54.4580012  90.2994997 144.2379988
  55.1090012  90.9424997 143.0309988  54.8175222  90.9877430 143.8499473
  40.2900012  85.1234997 141.6699988  40.9060012  85.7504997 142.0499988
  39.4280012  85.4394997 141.9419988  40.2577698  85.2519430 141.7587183
  52.2240012  89.1014997 141.7489988  52.5770012  88.7214997 142.5529988
  51.2750012  89.0084997 141.8359988  52.1440918  89.0368956 141.8708532
  56.7270012  93.5814997 141.9499988  57.4710012  94.1674997 141.8099988
  56.0330012  94.1494997 142.2829988  56.7349899  93.7385798 141.9758778
  53.0900012  87.7744997 143.9759988  52.8120012  87.0464997 144.5319988
  54.0170012  87.8934997 144.1809988  53.1773124  87.6908802 144.0798845
  46.3150012  90.2134997 140.1959988  46.5540012  89.4654997 139.6489988
  46.0460012  89.8254997 141.0289988  46.3113675  90.0586638 140.2336865
  45.2520012  89.7834997 142.6519988  45.3980012  89.2634997 143.4419988
  45.2490012  90.6904997 142.9589988  45.2715792  89.8348842 142.8016117
  41.7050012  87.0364997 143.1629988  41.0190012  87.3884997 143.7299988
  42.2270012  87.7994997 142.9159988  41.6816852  87.1878578 143.2072118
  47.9890012  91.4814997 143.4019988  47.1730012  91.9784997 143.4539988
  48.5190012  91.9564997 142.7619988  47.9489161  91.6137722 143.3225956
  45.3280012  92.5254997 143.3829988  45.4880012  93.3244997 142.8829988
  45.1300012  92.8314997 144.2679988  45.3231637  92.6764020 143.4341144
  44.0620012  79.2224997 142.9989988  43.9790012  80.1114997 143.3459988
  44.9520012  78.9574997 143.2309988  44.1709469  79.3081430 143.0777626
  42.3210012  89.6504997 142.0599988  42.9130012  90.3494997 142.3359988
  42.7800012  89.2174997 141.3399988  42.4641142  89.6877049 142.0004830
  40.6370012  82.3144997 141.1759988  40.5920012  83.2534997 141.3539988
  39.7490012  82.0784997 140.9059988  40.5108574  82.4111892 141.1638912
  48.3530012  92.0764997 140.3349988  47.7090012  91.4454997 140.6559988
  49.1150012  91.5454997 140.1029988  48.3678077  91.9182920 140.3476011
  52.9570012  91.8934997 140.5679988  53.2400012  91.0994997 141.0209988
  53.6970012  92.1264997 140.0079988  53.0958006  91.8163376 140.5542715
  43.9120012  87.8034997 140.4259988  43.9760012  87.0094997 140.9569988
  44.5650012  87.6844997 139.7359988  44.0090241  87.6787148 140.4054317
  49.2640012  88.8504997 140.1619988  48.9950012  89.0304997 141.0629988
  49.0580012  87.9244997 140.0299988  49.1993427  88.7500261 140.2675073
  45.0610012  85.7754997 142.7319988  44.6010012  85.2914997 143.4179988
  45.3160012  85.1074997 142.0959988  45.0324902  85.6188731 142.7399334
  46.1320012  84.0184997 140.9939988  45.9520012  83.8644997 140.0669988
  47.0820012  84.1264997 141.0389988  46.2357776  84.0120175 140.8731843
  55.5220012  86.3734997 140.4399988  55.2480012  85.9484997 139.6269988
  55.5610012  87.3044997 140.2229988  55.4897699  86.4412484 140.2993610
  46.0290012  94.7094997 141.9949988  46.9620012  94.8674997 142.1389988
  45.7650012  95.3844997 141.3709988  46.1209888  94.8224510 141.9302842
  39.5980012  89.3454997 141.4779988  40.5120012  89.4244997 141.7519988
  39.6050012  88.6584997 140.8119988  39.7241131  89.2633961 141.4254393
  56.6430012  85.1964997 142.6299988  56.1210012  85.5534997 141.9109988
  56.6100012  85.8714997 143.3079988  56.5671634  85.3365413 142.6233145
  54.9920012  82.4364997 141.1799988  55.0880012  83.1034997 140.4999988
  54.8520012  81.6204997 140.6989988  54.9862272  82.4175655 141.0218347
  54.2390012  79.8444997 140.2979988  54.8500012  79.4734997 140.9349988
  53.4030012  79.4234997 140.4939988  54.2095032  79.7367554 140.4117035
  56.3520012  78.7294997 141.8399988  56.7640012  78.0084997 141.3649988
  57.0340012  79.3994997 141.8989988  56.5005885  78.7212368 141.7828915
  39.9090012  76.7774997 142.9459988  40.3480012  77.3884997 142.3539988
  39.2760012  77.3154997 143.4199988  39.8834514  76.9339257 142.9290930
  39.8100012  92.7254997 143.8429988  39.1250012  92.6874997 143.1759988
  39.8140012  93.6384997 144.1319988  39.7166998  92.8436733 143.7906771
  41.7700012  78.6934997 141.3879988  42.2620012  78.0634997 140.8609988
  42.3940012  78.9894997 142.0509988  41.9215688  78.6473804 141.4055482
  46.7960012  78.9864997 143.8449988  46.9740012  78.3404997 144.5279988
  46.7430012  79.8204997 144.3119988  46.8131999  79.0108009 144.0015917
  48.6750012  93.9354997 142.2409988  49.5410012  94.3014997 142.0629988
  48.4280012  93.4954997 141.4269988  48.7602392  93.9261756 142.1066289
  41.6280012  93.6454997 140.8689988  41.3610012  93.9324997 141.7419988
  42.4000012  93.0994997 141.0209988  41.6957488  93.6110294 141.0091050
  67.7820012  83.8374997 141.5919988  68.4830012  83.8594997 142.2429988
  68.0850012  83.2094997 140.9349988  67.9188133  83.7557070 141.5923369
  70.0050012  84.7514997 143.1899988  70.5850012  84.9014997 143.9369988
  70.4190012  85.2224997 142.4659988  70.1402997  84.8356578 143.1944058
  73.7040012  76.5014997 143.0029988  72.8040012  76.6404997 143.2979988
  73.9560012  77.3324997 142.6009988  73.6148702  76.6329074 142.9890205
  74.8930012  90.8674997 141.3789988  74.9670012  91.8064997 141.5499988
  75.7990012  90.5624997 141.3229988  75.0255100  90.9546722 141.3948119
  70.3060012  93.5984997 142.0419988  70.6810012  92.8544997 141.5709988
  70.3100012  93.3284997 142.9609988  70.3579125  93.4600986 142.1016483
  71.4830012  85.7844997 140.8199988  71.5250012  85.5614997 139.8899988
  72.3320012  86.1834997 141.0089988  71.6035280  85.8079438 140.7183554
  67.0550012  79.6604997 141.4899988  66.8020012  79.6794997 142.4129988
  66.7990012  78.7884997 141.1879988  66.9857481  79.5452558 141.5756175
  63.9380012  80.1054997 140.5909988  63.5070012  79.6604997 141.3209988
  63.2200012  80.4774997 140.0789988  63.7819438  80.0948940 140.6216799
  58.4540012  80.5934997 143.0669988  58.9280012  81.1844997 142.4819988
  57.7370012  81.1244997 143.4139988  58.4219341  80.7460867 143.0338836
  62.5560012  82.8834997 141.9729988  62.0130012  82.5034997 141.2819988
  63.3890012  83.0774997 141.5449988  62.5943631  82.8577125 141.8204501
  65.8910012  87.4484997 143.9089988  65.1460012  86.9414997 143.5869988
  65.7570012  87.4974997 144.8559988  65.7708776  87.3856940 143.9928647
  69.7890012  80.2624997 142.1079988  68.8500012  80.3744997 141.9569988
  70.0860012  81.1194997 142.4149988  69.7007583  80.3935981 142.1288337
  70.5070012  82.1294997 143.7689988  71.3990012  81.9924997 144.0879988
  70.5640012  82.9204997 143.2319988  70.6366504  82.2176052 143.7400818
  68.0170012  88.9074997 142.9349988  67.7210012  89.7334997 143.3159988
  67.3140012  88.2874997 143.1309988  67.8814914  88.9368199 143.0136443
  75.3920012  82.3394997 143.4639988  74.8380012  81.9434997 142.7919988
  75.4920012  83.2494997 143.1859988  75.3297059  82.4083586 143.3344401
  73.6870012  91.1254997 143.9289988  73.3140012  90.2994997 144.2379988
  73.9650012  90.9424997 143.0309988  73.6735222  90.9877430 143.8499473
  59.1460012  85.1234997 141.6699988  59.7620012  85.7504997 142.0499988
  58.2840012  85.4394997 141.9419988  59.1137698  85.2519430 141.7587183
  71.0800012  89.1014997 141.7489988  71.4330012  88.7214997 142.5529988
  70.1310012  89.0084997 141.8359988  71.0000918  89.0368956 141.8708532
  75.5830012  93.5814997 141.9499988  76.3270012  94.1674997 141.8099988
  74.8890012  94.1494997 142.2829988  75.5909899  93.7385798 141.9758778
  71.9460012  87.7744997 143.9759988  71.6680012  87.0464997 144.5319988
  72.8730012  87.8934997 144.1809988  72.0333124  87.6908802 144.0798845
  65.1710012  90.2134997 140.1959988  65.4100012  89.4654997 139.6489988
  64.9020012  89.8254997 141.0289988  65.1673675  90.0586638 140.2336865
  64.1080012  89.7834997 142.6519988  64.2540012  89.2634997 143.4419988
  64.1050012  90.6904997 142.9589988  64.1275792  89.8348842 142.8016117
  60.5610012  87.0364997 143.1629988  59.8750012  87.3884997 143.7299988
  61.0830012  87.7994997 142.9159988  60.5376852  87.1878578 143.2072118
  66.8450012  91.4814997 143.4019988  66.0290012  91.9784997 143.4539988
  67.3750012  91.9564997 142.7619988  66.8049161  91.6137722 143.3225956
  64.1840012  92.5254997 143.3829988  64.3440012  93.3244997 142.8829988
  63.9860012  92.8314997 144.2679988  64.1791637  92.6764020 143.4341144
  62.9180012  79.2224997 142.9989988  62.8350012  80.1114997 143.3459988
  63.8080012  78.9574997 143.2309988  63.0269469  79.3081430 143.0777626
  61.1770012  89.6504997 142.0599988  61.7690012  90.3494997 142.3359988
  61.6360012  89.2174997 141.3399988  61.3201142  89.6877049 142.0004830
  59.4930012  82.3144997 141.1759988  59.4480012  83.2534997 141.3539988
  58.6050012  82.0784997 140.9059988  59.3668574  82.4111892 141.1638912
  67.2090012  92.0764997 140.3349988  66.5650012  91.4454997 140.6559988
  67.9710012  91.5454997 140.1029988  67.2238077  91.9182920 140.3476011
  71.8130012  91.8934997 140.5679988  72.0960012  91.0994997 141.0209988
  72.5530012  92.1264997 140.0079988  71.9518006  91.8163376 140.5542715
  62.7680012  87.8034997 140.4259988  62.8320012  87.0094997 140.9569988
  63.4210012  87.6844997 139.7359988  62.8650241  87.6787148 140.4054317
  68.1200012  88.8504997 140.1619988  67.8510012  89.0304997 141.0629988
  67.9140012  87.9244997 140.0299988  68.0553427  88.7500261 140.2675073
  63.9170012  85.7754997 142.7319988  63.4570012  85.2914997 143.4179988
  64.1720012  85.1074997 142.0959988  63.8884902  85.6188731 142.7399334
  64.9880012  84.0184997 140.9939988  64.8080012  83.8644997 140.0669988
  65.9380012  84.1264997 141.0389988  65.0917776  84.0120175 140.8731843
  74.3780012  86.3734997 140.4399988  74.1040012  85.9484997 139.6269988
  74.4170012  87.3044997 140.2229988  74.3457699  86.4412484 140.2993610
  64.8850012  94.7094997 141.9949988  65.8180012  94.8674997 142.1389988
  64.6210012  95.3844997 141.3709988  64.9769888  94.8224510 141.9302842
  58.4540012  89.3454997 141.4779988  59.3680012  89.4244997 141.7519988
  58.4610012  88.6584997 140.8119988  58.5801131  89.2633961 141.4254393
  75.4990012  85.1964997 142.6299988  74.9770012  85.5534997 141.9109988
  75.4660012  85.8714997 143.3079988  75.4231634  85.3365413 142.6233145
  73.8480012  82.4364997 141.1799988  73.9440012  83.1034997 140.4999988
  73.7080012  81.6204997 140.6989988  73.8422272  82.4175655 141.0218347
  73.0950012  79.8444997 140.2979988  73.7060012  79.4734997 140.9349988
  72.2590012  79.4234997 140.4939988  73.0655032  79.7367554 140.4117035
  75.2080012  78.7294997 141.8399988  75.6200012  78.0084997 141.3649988
  75.8900012  79.3994997 141.8989988  75.3565885  78.7212368 141.7828915
  58.7650012  76.7774997 142.9459988  59.2040012  77.3884997 142.3539988
  58.1320012  77.3154997 143.4199988  58.7394514  76.9339257 142.9290930
  58.6660012  92.7254997 143.8429988  57.9810012  92.6874997 143.1759988
  58.6700012  93.6384997 144.1319988  58.5726998  92.8436733 143.7906771
  60.6260012  78.6934997 141.3879988  61.1180012  78.0634997 140.8609988
  61.2500012  78.9894997 142.0509988  60.7775688  78.6473804 141.4055482
  65.6520012  78.9864997 143.8449988  65.8300012  78.3404997 144.5279988
  65.5990012  79.8204997 144.3119988  65.6691999  79.0108009 144.0015917
  67.5310012  93.9354997 142.2409988  68.3970012  94.3014997 142.0629988
  67.2840012  93.4954997 141.4269988  67.6162392  93.9261756 142.1066289
  60.4840012  93.6454997 140.8689988  60.2170012  93.9324997 141.7419988
  61.2560012  93.0994997 141.0209988  60.5517488  93.6110294 141.0091050
  86.6380012  83.8374997 141.5919988  87.3390012  83.8594997 142.2429988
  86.9410012  83.2094997 140.9349988  86.7748133  83.7557070 141.5923369
  88.8610012  84.7514997 143.1899988  89.4410012  84.9014997 143.9369988
  89.2750012  85.2224997 142.4659988  88.9962997  84.8356578 143.1944058
  92.5600012  76.5014997 143.0029988  91.6600012  76.6404997 143.2979988
  92.8120012  77.3324997 142.6009988  92.4708702  76.6329074 142.9890205
  93.7490012  90.8674997 141.3789988  93.8230012  91.8064997 141.5499988
  94.6550012  90.5624997 141.3229988  93.8815100  90.9546722 141.3948119
  89.1620012  93.5984997 142.0419988  89.5370012  92.8544997 141.5709988
  89.1660012  93.3284997 142.9609988  89.2139125  93.4600986 142.1016483
  90.3390012  85.7844997 140.8199988  90.3810012  85.5614997 139.8899988
  91.1880012  86.1834997 141.0089988  90.4595280  85.8079438 140.7183554
  85.9110012  79.6604997 141.4899988  85.6580012  79.6794997 142.4129988
  85.6550012  78.7884997 141.1879988  85.8417481  79.5452558 141.5756175
  82.7940012  80.1054997 140.5909988  82.3630012  79.6604997 141.3209988
  82.0760012  80.4774997 140.0789988  82.6379438  80.0948940 140.6216799
  77.3100012  80.5934997 143.0669988  77.7840012  81.1844997 142.4819988
  76.5930012  81.1244997 143.4139988  77.2779341  80.7460867 143.0338836
  81.4120012  82.8834997 141.9729988  80.8690012  82.5034997 141.2819988
  82.2450012  83.0774997 141.5449988  81.4503631  82.8577125 141.8204501
  84.7470012  87.4484997 143.9089988  84.0020012  86.9414997 143.5869988
  84.6130012  87.4974997 144.8559988  84.6268776  87.3856940 143.9928647
  88.6450012  80.2624997 142.1079988  87.7060012  80.3744997 141.9569988
  88.9420012  81.1194997 142.4149988  88.5567583  80.3935981 142.1288337
  89.3630012  82.1294997 143.7689988  90.2550012  81.9924997 144.0879988
  89.4200012  82.9204997 143.2319988  89.4926504  82.2176052 143.7400818
  86.8730012  88.9074997 142.9349988  86.5770012  89.7334997 143.3159988
  86.1700012  88.2874997 143.1309988  86.7374914  88.9368199 143.0136443
  94.2480012  82.3394997 143.4639988  93.6940012  81.9434997 142.7919988
  94.3480012  83.2494997 143.1859988  94.1857059  82.4083586 143.3344401
  92.5430012  91.1254997 143.9289988  92.1700012  90.2994997 144.2379988
  92.8210012  90.9424997 143.0309988  92.5295222  90.9877430 143.8499473
  78.0020012  85.1234997 141.6699988  78.6180012  85.7504997 142.0499988
  77.1400012  85.4394997 141.9419988  77.9697698  85.2519430 141.7587183
  89.9360012  89.1014997 141.7489988  90.2890012  88.7214997 142.5529988
  88.9870012  89.0084997 141.8359988  89.8560918  89.0368956 141.8708532
  94.4390012  93.5814997 141.9499988  95.1830012  94.1674997 141.8099988
  93.7450012  94.1494997 142.2829988  94.4469899  93.7385798 141.9758778
  90.8020012  87.7744997 143.9759988  90.5240012  87.0464997 144.5319988
  91.7290012  87.8934997 144.1809988  90.8893124  87.6908802 144.0798845
  84.0270012  90.2134997 140.1959988  84.2660012  89.4654997 139.6489988
  83.7580012  89.8254997 141.0289988  84.0233675  90.0586638 140.2336865
  82.9640012  89.7834997 142.6519988  83.1100012  89.2634997 143.4419988
  82.9610012  90.6904997 142.9589988  82.9835792  89.8348842 142.8016117
  79.4170012  87.0364997 143.1629988  78.7310012  87.3884997 143.7299988
  79.9390012  87.7994997 142.9159988  79.3936852  87.1878578 143.2072118
  85.7010012  91.4814997 143.4019988  84.8850012  91.9784997 143.4539988
  86.2310012  91.9564997 142.7619988  85.6609161  91.6137722 143.3225956
  83.0400012  92.5254997 143.3829988  83.2000012  93.3244997 142.8829988
  82.8420012  92.8314997 144.2679988  83.0351637  92.6764020 143.4341144
  81.7740012  79.2224997 142.9989988  81.6910012  80.1114997 143.3459988
  82.6640012  78.9574997 143.2309988  81.8829469  79.3081430 143.0777626
  80.0330012  89.6504997 142.0599988  80.6250012  90.3494997 142.3359988
  80.4920012  89.2174997 141.3399988  80.1761142  89.6877049 142.0004830
  78.3490012  82.3144997 141.1759988  78.3040012  83.2534997 141.3539988
  77.4610012  82.0784997 140.9059988  78.2228574  82.4111892 141.1638912
  86.0650012  92.0764997 140.3349988  85.4210012  91.4454997 140.6559988
  86.8270012  91.5454997 140.1029988  86.0798077  91.9182920 140.3476011
  90.6690012  91.8934997 140.5679988  90.9520012  91.0994997 141.0209988
  91.4090012  92.1264997 140.0079988  90.8078006  91.8163376 140.5542715
  81.6240012  87.8034997 140.4259988  81.6880012  87.0094997 140.9569988
  82.2770012  87.6844997 139.7359988  81.7210241  87.6787148 140.4054317
  86.9760012  88.8504997 140.1619988  86.7070012  89.0304997 141.0629988
  86.7700012  87.9244997 140.0299988  86.9113427  88.7500261 140.2675073
  82.7730012  85.7754997 142.7319988  82.3130012  85.2914997 143.4179988
  83.0280012  85.1074997 142.0959988  82.7444902  85.6188731 142.7399334
  83.8440012  84.0184997 140.9939988  83.6640012  83.8644997 140.0669988
  84.7940012  84.1264997 141.0389988  83.9477776  84.0120175 140.8731843
  93.2340012  86.3734997 140.4399988  92.9600012  85.9484997 139.6269988
  93.2730012  87.3044997 140.2229988  93.2017699  86.4412484 140.2993610
  83.7410012  94.7094997 141.9949988  84.6740012  94.8674997 142.1389988
  83.4770012  95.3844997 141.3709988  83.8329888  94.8224510 141.9302842
  77.3100012  89.3454997 141.4779988  78.2240012  89.4244997 141.7519988
  77.3170012  88.6584997 140.8119988  77.4361131  89.2633961 141.4254393
  94.3550012  85.1964997 142.6299988  93.8330012  85.5534997 141.9109988
  94.3220012  85.8714997 143.3079988  94.2791634  85.3365413 142.6233145
  92.7040012  82.4364997 141.1799988  92.8000012  83.1034997 140.4999988
  92.5640012  81.6204997 140.6989988  92.6982272  82.4175655 141.0218347
  91.9510012  79.8444997 140.2979988  92.5620012  79.4734997 140.9349988
  91.1150012  79.4234997 140.4939988  91.9215032  79.7367554 140.4117035
  94.0640012  78.7294997 141.8399988  94.4760012  78.0084997 141.3649988
  94.7460012  79.3994997 141.8989988  94.2125885  78.7212368 141.7828915
  77.6210012  76.7774997 142.9459988  78.0600012  77.3884997 142.3539988
  76.9880012  77.3154997 143.4199988  77.5954514  76.9339257 142.9290930
  77.5220012  92.7254997 143.8429988  76.8370012  92.6874997 143.1759988
  77.5260012  93.6384997 144.1319988  77.4286998  92.8436733 143.7906771
  79.4820012  78.6934997 141.3879988  79.9740012  78.0634997 140.8609988
  80.1060012  78.9894997 142.0509988  79.6335688  78.6473804 141.4055482
  84.5080012  78.9864997 143.8449988  84.6860012  78.3404997 144.5279988
  84.4550012  79.8204997 144.3119988  84.5251999  79.0108009 144.0015917
  86.3870012  93.9354997 142.2409988  87.2530012  94.3014997 142.0629988
  86.1400012  93.4954997 141.4269988  86.4722392  93.9261756 142.1066289
  79.3400012  93.6454997 140.8689988  79.0730012  93.9324997 141.7419988
  80.1120012  93.0994997 141.0209988  79.4077488  93.6110294 141.0091050
 105.4940012  83.8374997 141.5919988 106.1950012  83.8594997 142.2429988
 105.7970012  83.2094997 140.9349988 105.6308133  83.7557070 141.5923369
 107.7170012  84.7514997 143.1899988 108.2970012  84.9014997 143.9369988
 108.1310012  85.2224997 142.4659988 107.8522997  84.8356578 143.1944058
 111.4160012  76.5014997 143.0029988 110.5160012  76.6404997 143.2979988
 111.6680012  77.3324997 142.6009988 111.3268702  76.6329074 142.9890205
 112.6050012  90.8674997 141.3789988 112.6790012  91.8064997 141.5499988
 113.5110012  90.5624997 141.3229988 112.7375100  90.9546722 141.3948119
 108.0180012  93.5984997 142.0419988 108.3930012  92.8544997 141.5709988
 108.0220012  93.3284997 142.9609988 108.0699125  93.4600986 142.1016483
 109.1950012  85.7844997 140.8199988 109.2370012  85.5614997 139.8899988
 110.0440012  86.1834997 141.0089988 109.3155280  85.8079438 140.7183554
 104.7670012  79.6604997 141.4899988 104.5140012  79.6794997 142.4129988
 104.5110012  78.7884997 141.1879988 104.6977481  79.5452558 141.5756175
 101.6500012  80.1054997 140.5909988 101.2190012  79.6604997 141.3209988
 100.9320012  80.4774997 140.0789988 101.4939438  80.0948940 140.6216799
  96.1660012  80.5934997 143.0669988  96.6400012  81.1844997 142.4819988
  95.4490012  81.1244997 143.4139988  96.1339341  80.7460867 143.0338836
 100.2680012  82.8834997 141.9729988  99.7250012  82.5034997 141.2819988
 101.1010012  83.0774997 141.5449988 100.3063631  82.8577125 141.8204501
 103.6030012  87.4484997 143.9089988 102.8580012  86.9414997 143.5869988
 103.4690012  87.4974997 144.8559988 103.4828776  87.3856940 143.9928647
 107.5010012  80.2624997 142.1079988 106.5620012  80.3744997 141.9569988
 107.7980012  81.1194997 142.4149988 107.4127583  80.3935981 142.1288337
 108.2190012  82.1294997 143.7689988 109.1110012  81.9924997 144.0879988
 108.2760012  82.9204997 143.2319988 108.3486504  82.2176052 143.7400818
 105.7290012  88.9074997 142.9349988 105.4330012  89.7334997 143.3159988
 105.0260012  88.2874997 143.1309988 105.5934914  88.9368199 143.0136443
 113.1040012  82.3394997 143.4639988 112.5500012  81.9434997 142.7919988
 113.2040012  83.2494997 143.1859988 113.0417059  82.4083586 143.3344401
 111.3990012  91.1254997 143.9289988 111.0260012  90.2994997 144.2379988
 111.6770012  90.9424997 143.0309988 111.3855222  90.9877430 143.8499473
  96.8580012  85.1234997 141.6699988  97.4740012  85.7504997 142.0499988
  95.9960012  85.4394997 141.9419988  96.8257698  85.2519430 141.7587183
 108.7920012  89.1014997 141.7489988 109.1450012  88.7214997 142.5529988
 107.8430012  89.0084997 141.8359988 108.7120918  89.0368956 141.8708532
 113.2950012  93.5814997 141.9499988 114.0390012  94.1674997 141.8099988
 112.6010012  94.1494997 142.2829988 113.3029899  93.7385798 141.9758778
 109.6580012  87.7744997 143.9759988 109.3800012  87.0464997 144.5319988
 110.5850012  87.8934997 144.1809988 109.7453124  87.6908802 144.0798845
 102.8830012  90.2134997 140.1959988 103.1220012  89.4654997 139.6489988
 102.6140012  89.8254997 141.0289988 102.8793675  90.0586638 140.2336865
 101.8200012  89.7834997 142.6519988 101.9660012  89.2634997 143.4419988
 101.8170012  90.6904997 142.9589988 101.8395792  89.8348842 142.8016117
  98.2730012  87.0364997 143.1629988  97.5870012  87.3884997 143.7299988
  98.7950012  87.7994997 142.9159988  98.2496852  87.1878578 143.2072118
 104.5570012  91.4814997 143.4019988 103.7410012  91.9784997 143.4539988
 105.0870012  91.9564997 142.7619988 104.5169161  91.6137722 143.3225956
 101.8960012  92.5254997 143.3829988 102.0560012  93.3244997 142.8829988
 101.6980012  92.8314997 144.2679988 101.8911637  92.6764020 143.4341144
 100.6300012  79.2224997 142.9989988 100.5470012  80.1114997 143.3459988
 101.5200012  78.9574997 143.2309988 100.7389469  79.3081430 143.0777626
  98.8890012  89.6504997 142.0599988  99.4810012  90.3494997 142.3359988
  99.3480012  89.2174997 141.3399988  99.0321142  89.6877049 142.0004830
  97.2050012  82.3144997 141.1759988  97.1600012  83.2534997 141.3539988
  96.3170012  82.0784997 140.9059988  97.0788574  82.4111892 141.1638912
 104.9210012  92.0764997 140.3349988 104.2770012  91.4454997 140.6559988
 105.6830012  91.5454997 140.1029988 104.9358077  91.9182920 140.3476011
 109.5250012  91.8934997 140.5679988 109.8080012  91.0994997 141.0209988
 110.2650012  92.1264997 140.0079988 109.6638006  91.8163376 140.5542715
 100.4800012  87.8034997 140.4259988 100.5440012  87.0094997 140.9569988
 101.1330012  87.6844997 139.7359988 100.5770241  87.6787148 140.4054317
 105.8320012  88.8504997 140.1619988 105.5630012  89.0304997 141.0629988
 105.6260012  87.9244997 140.0299988 105.7673427  88.7500261 140.2675073
 101.6290012  85.7754997 142.7319988 101.1690012  85.2914997 143.4179988
 101.8840012  85.1074997 142.0959988 101.6004902  85.6188731 142.7399334
 102.7000012  84.0184997 140.9939988 102.5200012  83.8644997 140.0669988
 103.6500012  84.1264997 141.0389988 102.8037776  84.0120175 140.8731843
 112.0900012  86.3734997 140.4399988 111.8160012  85.9484997 139.6269988
 112.1290012  87.3044997 140.2229988 112.0577699  86.4412484 140.2993610
 102.5970012  94.7094997 141.9949988 103.5300012  94.8674997 142.1389988
 102.3330012  95.3844997 141.3709988 102.6889888  94.8224510 141.9302842
  96.1660012  89.3454997 141.4779988  97.0800012  89.4244997 141.7519988
  96.1730012  88.6584997 140.8119988  96.2921131  89.2633961 141.4254393
 113.2110012  85.1964997 142.6299988 112.6890012  85.5534997 141.9109988
 113.1780012  85.8714997 143.3079988 113.1351634  85.3365413 142.6233145
 111.5600012  82.4364997 141.1799988 111.6560012  83.1034997 140.4999988
 111.4200012  81.6204997 140.6989988 111.5542272  82.4175655 141.0218347
 110.8070012  79.8444997 140.2979988 111.4180012  79.4734997 140.9349988
 109.9710012  79.4234997 140.4939988 110.7775032  79.7367554 140.4117035
 112.9200012  78.7294997 141.8399988 113.3320012  78.0084997 141.3649988
 113.6020012  79.3994997 141.8989988 113.0685885  78.7212368 141.7828915
  96.4770012  76.7774997 142.9459988  96.9160012  77.3884997 142.3539988
  95.8440012  77.3154997 143.4199988  96.4514514  76.9339257 142.9290930
  96.3780012  92.7254997 143.8429988  95.6930012  92.6874997 143.1759988
  96.3820012  93.6384997 144.1319988  96.2846998  92.8436733 143.7906771
  98.3380012  78.6934997 141.3879988  98.8300012  78.0634997 140.8609988
  98.9620012  78.9894997 142.0509988  98.4895688  78.6473804 141.4055482
 103.3640012  78.9864997 143.8449988 103.5420012  78.3404997 144.5279988
 103.3110012  79.8204997 144.3119988 103.3811999  79.0108009 144.0015917
 105.2430012  93.9354997 142.2409988 106.1090012  94.3014997 142.0629988
 104.9960012  93.4954997 141.4269988 105.3282392  93.9261756 142.1066289
  98.1960012  93.6454997 140.8689988  97.9290012  93.9324997 141.7419988
  98.9680012  93.0994997 141.0209988  98.2637488  93.6110294 141.0091050
 124.3500012  83.8374997 141.5919988 125.0510012  83.8594997 142.2429988
 124.6530012  83.2094997 140.9349988 124.4868133  83.7557070 141.5923369
 126.5730012  84.7514997 143.1899988 127.1530012  84.9014997 143.9369988
 126.9870012  85.2224997 142.4659988 126.7082997  84.8356578 143.1944058
 130.2720012  76.5014997 143.0029988 129.3720012  76.6404997 143.2979988
 130.5240012  77.3324997 142.6009988 130.1828702  76.6329074 142.9890205
 131.4610012  90.8674997 141.3789988 131.5350012  91.8064997 141.5499988
 132.3670012  90.5624997 141.3229988 131.5935100  90.9546722 141.3948119
 126.8740012  93.5984997 142.0419988 127.2490012  92.8544997 141.5709988
 126.8780012  93.3284997 142.9609988 126.9259125  93.4600986 142.1016483
 128.0510012  85.7844997 140.8199988 128.0930012  85.5614997 139.8899988
 128.9000012  86.1834997 141.0089988 128.1715280  85.8079438 140.7183554
 123.6230012  79.6604997 141.4899988 123.3700012  79.6794997 142.4129988
 123.3670012  78.7884997 141.1879988 123.5537481  79.5452558 141.5756175
 120.5060012  80.1054997 140.5909988 120.0750012  79.6604997 141.3209988
 119.7880012  80.4774997 140.0789988 120.3499438  80.0948940 140.6216799
 115.0220012  80.5934997 143.0669988 115.4960012  81.1844997 142.4819988
 114.3050012  81.1244997 143.4139988 114.9899341  80.7460867 143.0338836
 119.1240012  82.8834997 141.9729988 118.5810012  82.5034997 141.2819988
 119.9570012  83.0774997 141.5449988 119.1623631  82.8577125 141.8204501
 122.4590012  87.4484997 143.9089988 121.7140012  86.9414997 143.5869988
 122.3250012  87.4974997 144.8559988 122.3388776  87.3856940 143.9928647
 126.3570012  80.2624997 142.1079988 125.4180012  80.3744997 141.9569988
 126.6540012  81.1194997 142.4149988 126.2687583  80.3935981 142.1288337
 127.0750012  82.1294997 143.7689988 127.9670012  81.9924997 144.0879988
 127.1320012  82.9204997 143.2319988 127.2046504  82.2176052 143.7400818
 124.5850012  88.9074997 142.9349988 124.2890012  89.7334997 143.3159988
 123.8820012  88.2874997 143.1309988 124.4494914  88.9368199 143.0136443
 131.9600012  82.3394997 143.4639988 131.4060012  81.9434997 142.7919988
 132.0600012  83.2494997 143.1859988 131.8977059  82.4083586 143.3344401
 130.2550012  91.1254997 143.9289988 129.8820012  90.2994997 144.2379988
 130.5330012  90.9424997 143.0309988 130.2415222  90.9877430 143.8499473
 115.7140012  85.1234997 141.6699988 116.3300012  85.7504997 142.0499988
 114.8520012  85.4394997 141.9419988 115.6817698  85.2519430 141.7587183
 127.6480012  89.1014997 141.7489988 128.0010012  88.7214997 142.5529988
 126.6990012  89.0084997 141.8359988 127.5680918  89.0368956 141.8708532
 132.1510012  93.5814997 141.9499988 132.8950012  94.1674997 141.8099988
 131.4570012  94.1494997 142.2829988 132.1589899  93.7385798 141.9758778
 128.5140012  87.7744997 143.9759988 128.2360012  87.0464997 144.5319988
 129.4410012  87.8934997 144.1809988 128.6013124  87.6908802 144.0798845
 121.7390012  90.2134997 140.1959988 121.9780012  89.4654997 139.6489988
 121.4700012  89.8254997 141.0289988 121.7353675  90.0586638 140.2336865
 120.6760012  89.7834997 142.6519988 120.8220012  89.2634997 143.4419988
 120.6730012  90.6904997 142.9589988 120.6955792  89.8348842 142.8016117
 117.1290012  87.0364997 143.1629988 116.4430012  87.3884997 143.7299988
 117.6510012  87.7994997 142.9159988 117.1056852  87.1878578 143.2072118
 123.4130012  91.4814997 143.4019988 122.5970012  91.9784997 143.4539988
 123.9430012  91.9564997 142.7619988 123.3729161  91.6137722 143.3225956
 120.7520012  92.5254997 143.3829988 120.9120012  93.3244997 142.8829988
 120.5540012  92.8314997 144.2679988 120.7471637  92.6764020 143.4341144
 119.4860012  79.2224997 142.9989988 119.4030012  80.1114997 143.3459988
 120.3760012  78.9574997 143.2309988 119.5949469  79.3081430 143.0777626
 117.7450012  89.6504997 142.0599988 118.3370012  90.3494997 142.3359988
 118.2040012  89.2174997 141.3399988 117.8881142  89.6877049 142.0004830
 116.0610012  82.3144997 141.1759988 116.0160012  83.2534997 141.3539988
 115.1730012  82.0784997 140.9059988 115.9348574  82.4111892 141.1638912
 123.7770012  92.0764997 140.3349988 123.1330012  91.4454997 140.6559988
 124.5390012  91.5454997 140.1029988 123.7918077  91.9182920 140.3476011
 128.3810012  91.8934997 140.5679988 128.6640012  91.0994997 141.0209988
 129.1210012  92.1264997 140.0079988 128.5198006  91.8163376 140.5542715
 119.3360012  87.8034997 140.4259988 119.4000012  87.0094997 140.9569988
 119.9890012  87.6844997 139.7359988 119.4330241  87.6787148 140.4054317
 124.6880012  88.8504997 140.1619988 124.4190012  89.0304997 141.0629988
 124.4820012  87.9244997 140.0299988 124.6233427  88.7500261 140.2675073
 120.4850012  85.7754997 142.7319988 120.0250012  85.2914997 143.4179988
 120.7400012  85.1074997 142.0959988 120.4564902  85.6188731 142.7399334
 121.5560012  84.0184997 140.9939988 121.3760012  83.8644997 140.0669988
 122.5060012  84.1264997 141.0389988 121.6597776  84.0120175 140.8731843
 130.9460012  86.3734997 140.4399988 130.6720012  85.9484997 139.6269988
 130.9850012  87.3044997 140.2229988 130.9137699  86.4412484 140.2993610
 121.4530012  94.7094997 141.9949988 122.3860012  94.8674997 142.1389988
 121.1890012  95.3844997 141.3709988 121.5449888  94.8224510 141.9302842
 115.0220012  89.3454997 141.4779988 115.9360012  89.4244997 141.7519988
 115.0290012  88.6584997 140.8119988 115.1481131  89.2633961 141.4254393
 132.0670012  85.1964997 142.6299988 131.5450012  85.5534997 141.9109988
 132.0340012  85.8714997 143.3079988 131.9911634  85.3365413 142.6233145
 130.4160012  82.4364997 141.1799988 130.5120012  83.1034997 140.4999988
 130.2760012  81.6204997 140.6989988 130.4102272  82.4175655 141.0218347
 129.6630012  79.8444997 140.2979988 130.2740012  79.4734997 140.9349988
 128.8270012  79.4234997 140.4939988 129.6335032  79.7367554 140.4117035
 131.7760012  78.7294997 141.8399988 132.1880012  78.0084997 141.3649988
 132.4580012  79.3994997 141.8989988 131.9245885  78.7212368 141.7828915
 115.3330012  76.7774997 142.9459988 115.7720012  77.3884997 142.3539988
 114.7000012  77.3154997 143.4199988 115.3074514  76.9339257 142.9290930
 115.2340012  92.7254997 143.8429988 114.5490012  92.6874997 143.1759988
 115.2380012  93.6384997 144.1319988 115.1406998  92.8436733 143.7906771
 117.1940012  78.6934997 141.3879988 117.6860012  78.0634997 140.8609988
 117.8180012  78.9894997 142.0509988 117.3455688  78.6473804 141.4055482
 122.2200012  78.9864997 143.8449988 122.3980012  78.3404997 144.5279988
 122.1670012  79.8204997 144.3119988 122.2371999  79.0108009 144.0015917
 124.0990012  93.9354997 142.2409988 124.9650012  94.3014997 142.0629988
 123.8520012  93.4954997 141.4269988 124.1842392  93.9261756 142.1066289
 117.0520012  93.6454997 140.8689988 116.7850012  93.9324997 141.7419988
 117.8240012  93.0994997 141.0209988 117.1197488  93.6110294 141.0091050
 143.2060012  83.8374997 141.5919988 143.9070012  83.8594997 142.2429988
 143.5090012  83.2094997 140.9349988 143.3428133  83.7557070 141.5923369
 142.4790012  79.6604997 141.4899988 142.2260012  79.6794997 142.4129988
 142.2230012  78.7884997 141.1879988 142.4097481  79.5452558 141.5756175
 139.3620012  80.1054997 140.5909988 138.9310012  79.6604997 141.3209988
 138.6440012  80.4774997 140.0789988 139.2059438  80.0948940 140.6216799
 133.8780012  80.5934997 143.0669988 134.3520012  81.1844997 142.4819988
 133.1610012  81.1244997 143.4139988 133.8459341  80.7460867 143.0338836
 137.9800012  82.8834997 141.9729988 137.4370012  82.5034997 141.2819988
 138.8130012  83.0774997 141.5449988 138.0183631  82.8577125 141.8204501
 141.3150012  87.4484997 143.9089988 140.5700012  86.9414997 143.5869988
 141.1810012  87.4974997 144.8559988 141.1948776  87.3856940 143.9928647
 143.4410012  88.9074997 142.9349988 143.1450012  89.7334997 143.3159988
 142.7380012  88.2874997 143.1309988 143.3054914  88.9368199 143.0136443
 134.5700012  85.1234997 141.6699988 135.1860012  85.7504997 142.0499988
 133.7080012  85.4394997 141.9419988 134.5377698  85.2519430 141.7587183
 140.5950012  90.2134997 140.1959988 140.8340012  89.4654997 139.6489988
 140.3260012  89.8254997 141.0289988 140.5913675  90.0586638 140.2336865
 139.5320012  89.7834997 142.6519988 139.6780012  89.2634997 143.4419988
 139.5290012  90.6904997 142.9589988 139.5515792  89.8348842 142.8016117
 135.9850012  87.0364997 143.1629988 135.2990012  87.3884997 143.7299988
 136.5070012  87.7994997 142.9159988 135.9616852  87.1878578 143.2072118
 142.2690012  91.4814997 143.4019988 141.4530012  91.9784997 143.4539988
 142.7990012  91.9564997 142.7619988 142.2289161  91.6137722 143.3225956
 139.6080012  92.5254997 143.3829988 139.7680012  93.3244997 142.8829988
 139.4100012  92.8314997 144.2679988 139.6031637  92.6764020 143.4341144
 138.3420012  79.2224997 142.9989988 138.2590012  80.1114997 143.3459988
 139.2320012  78.9574997 143.2309988 138.4509469  79.3081430 143.0777626
 136.6010012  89.6504997 142.0599988 137.1930012  90.3494997 142.3359988
 137.0600012  89.2174997 141.3399988 136.7441142  89.6877049 142.0004830
 134.9170012  82.3144997 141.1759988 134.8720012  83.2534997 141.3539988
 134.0290012  82.0784997 140.9059988 134.7908574  82.4111892 141.1638912
 142.6330012  92.0764997 140.3349988 141.9890012  91.4454997 140.6559988
 143.3950012  91.5454997 140.1029988 142.6478077  91.9182920 140.3476011
 138.1920012  87.8034997 140.4259988 138.2560012  87.0094997 140.9569988
 138.8450012  87.6844997 139.7359988 138.2890241  87.6787148 140.4054317
 143.5440012  88.8504997 140.1619988 143.2750012  89.0304997 141.0629988
 143.3380012  87.9244997 140.0299988 143.4793427  88.7500261 140.2675073
 139.3410012  85.7754997 142.7319988 138.8810012  85.2914997 143.4179988
 139.5960012  85.1074997 142.0959988 139.3124902  85.6188731 142.7399334
 140.4120012  84.0184997 140.9939988 140.2320012  83.8644997 140.0669988
 141.3620012  84.1264997 141.0389988 140.5157776  84.0120175 140.8731843
 140.3090012  94.7094997 141.9949988 141.2420012  94.8674997 142.1389988
 140.0450012  95.3844997 141.3709988 140.4009888  94.8224510 141.9302842
 133.8780012  89.3454997 141.4779988 134.7920012  89.4244997 141.7519988
 133.8850012  88.6584997 140.8119988 134.0041131  89.2633961 141.4254393
 134.1890012  76.7774997 142.9459988 134.6280012  77.3884997 142.3539988
 133.5560012  77.3154997 143.4199988 134.1634514  76.9339257 142.9290930
 134.0900012  92.7254997 143.8429988 133.4050012  92.6874997 143.1759988
 134.0940012  93.6384997 144.1319988 133.9966998  92.8436733 143.7906771
 136.0500012  78.6934997 141.3879988 136.5420012  78.0634997 140.8609988
 136.6740012  78.9894997 142.0509988 136.2015688  78.6473804 141.4055482
 141.0760012  78.9864997 143.8449988 141.2540012  78.3404997 144.5279988
 141.0230012  79.8204997 144.3119988 141.0931999  79.0108009 144.0015917
 142.9550012  93.9354997 142.2409988 143.8210012  94.3014997 142.0629988
 142.7080012  93.4954997 141.4269988 143.0402392  93.9261756 142.1066289
 135.9080012  93.6454997 140.8689988 135.6410012  93.9324997 141.7419988
 136.6800012  93.0994997 141.0209988 135.9757488  93.6110294 141.0091050
  11.2140012 102.6934997 141.5919988  11.9150012 102.7154997 142.2429988
  11.5170012 102.0654997 140.9349988  11.3508133 102.6117070 141.5923369
  13.4370012 103.6074997 143.1899988  14.0170012 103.7574997 143.9369988
  13.8510012 104.0784997 142.4659988  13.5722997 103.6916578 143.1944058
  17.1360012  95.3574997 143.0029988  16.2360012  95.4964997 143.2979988
  17.3880012  96.1884997 142.6009988  17.0468702  95.4889074 142.9890205
  18.3250012 109.7234997 141.3789988  18.3990012 110.6624997 141.5499988
  19.2310012 109.4184997 141.3229988  18.4575100 109.8106722 141.3948119
  13.7380012 112.4544997 142.0419988  14.1130012 111.7104997 141.5709988
  13.7420012 112.1844997 142.9609988  13.7899125 112.3160986 142.1016483
  14.9150012 104.6404997 140.8199988  14.9570012 104.4174997 139.8899988
  15.7640012 105.0394997 141.0089988  15.0355280 104.6639438 140.7183554
  10.4870012  98.5164997 141.4899988  10.2340012  98.5354997 142.4129988
  10.2310012  97.6444997 141.1879988  10.4177481  98.4012558 141.5756175
   7.3700012  98.9614997 140.5909988   6.9390012  98.5164997 141.3209988
   6.6520012  99.3334997 140.0789988   7.2139438  98.9508940 140.6216799
   1.8860012  99.4494997 143.0669988   2.3600012 100.0404997 142.4819988
   1.1690012  99.9804997 143.4139988   1.8539341  99.6020867 143.0338836
   5.9880012 101.7394997 141.9729988   5.4450012 101.3594997 141.2819988
   6.8210012 101.9334997 141.5449988   6.0263631 101.7137125 141.8204501
   9.3230012 106.3044997 143.9089988   8.5780012 105.7974997 143.5869988
   9.1890012 106.3534997 144.8559988   9.2028776 106.2416940 143.9928647
  13.2210012  99.1184997 142.1079988  12.2820012  99.2304997 141.9569988
  13.5180012  99.9754997 142.4149988  13.1327583  99.2495981 142.1288337
  13.9390012 100.9854997 143.7689988  14.8310012 100.8484997 144.0879988
  13.9960012 101.7764997 143.2319988  14.0686504 101.0736052 143.7400818
  11.4490012 107.7634997 142.9349988  11.1530012 108.5894997 143.3159988
  10.7460012 107.1434997 143.1309988  11.3134914 107.7928199 143.0136443
  18.8240012 101.1954997 143.4639988  18.2700012 100.7994997 142.7919988
  18.9240012 102.1054997 143.1859988  18.7617059 101.2643586 143.3344401
  17.1190012 109.9814997 143.9289988  16.7460012 109.1554997 144.2379988
  17.3970012 109.7984997 143.0309988  17.1055222 109.8437430 143.8499473
   2.5780012 103.9794997 141.6699988   3.1940012 104.6064997 142.0499988
   1.7160012 104.2954997 141.9419988   2.5457698 104.1079430 141.7587183
  14.5120012 107.9574997 141.7489988  14.8650012 107.5774997 142.5529988
  13.5630012 107.8644997 141.8359988  14.4320918 107.8928956 141.8708532
  19.0150012 112.4374997 141.9499988  19.7590012 113.0234997 141.8099988
  18.3210012 113.0054997 142.2829988  19.0229899 112.5945798 141.9758778
  15.3780012 106.6304997 143.9759988  15.1000012 105.9024997 144.5319988
  16.3050012 106.7494997 144.1809988  15.4653124 106.5468802 144.0798845
   8.6030012 109.0694997 140.1959988   8.8420012 108.3214997 139.6489988
   8.3340012 108.6814997 141.0289988   8.5993675 108.9146638 140.2336865
   7.5400012 108.6394997 142.6519988   7.6860012 108.1194997 143.4419988
   7.5370012 109.5464997 142.9589988   7.5595792 108.6908842 142.8016117
   3.9930012 105.8924997 143.1629988   3.3070012 106.2444997 143.7299988
   4.5150012 106.6554997 142.9159988   3.9696852 106.0438578 143.2072118
  10.2770012 110.3374997 143.4019988   9.4610012 110.8344997 143.4539988
  10.8070012 110.8124997 142.7619988  10.2369161 110.4697722 143.3225956
   7.6160012 111.3814997 143.3829988   7.7760012 112.1804997 142.8829988
   7.4180012 111.6874997 144.2679988   7.6111637 111.5324020 143.4341144
   6.3500012  98.0784997 142.9989988   6.2670012  98.9674997 143.3459988
   7.2400012  97.8134997 143.2309988   6.4589469  98.1641430 143.0777626
   4.6090012 108.5064997 142.0599988   5.2010012 109.2054997 142.3359988
   5.0680012 108.0734997 141.3399988   4.7521142 108.5437049 142.0004830
   2.9250012 101.1704997 141.1759988   2.8800012 102.1094997 141.3539988
   2.0370012 100.9344997 140.9059988   2.7988574 101.2671892 141.1638912
  10.6410012 110.9324997 140.3349988   9.9970012 110.3014997 140.6559988
  11.4030012 110.4014997 140.1029988  10.6558077 110.7742920 140.3476011
  15.2450012 110.7494997 140.5679988  15.5280012 109.9554997 141.0209988
  15.9850012 110.9824997 140.0079988  15.3838006 110.6723376 140.5542715
   6.2000012 106.6594997 140.4259988   6.2640012 105.8654997 140.9569988
   6.8530012 106.5404997 139.7359988   6.2970241 106.5347148 140.4054317
  11.5520012 107.7064997 140.1619988  11.2830012 107.8864997 141.0629988
  11.3460012 106.7804997 140.0299988  11.4873427 107.6060261 140.2675073
   7.3490012 104.6314997 142.7319988   6.8890012 104.1474997 143.4179988
   7.6040012 103.9634997 142.0959988   7.3204902 104.4748731 142.7399334
   8.4200012 102.8744997 140.9939988   8.2400012 102.7204997 140.0669988
   9.3700012 102.9824997 141.0389988   8.5237776 102.8680175 140.8731843
  17.8100012 105.2294997 140.4399988  17.5360012 104.8044997 139.6269988
  17.8490012 106.1604997 140.2229988  17.7777699 105.2972484 140.2993610
   8.3170012 113.5654997 141.9949988   9.2500012 113.7234997 142.1389988
   8.0530012 114.2404997 141.3709988   8.4089888 113.6784510 141.9302842
   1.8860012 108.2014997 141.4779988   2.8000012 108.2804997 141.7519988
   1.8930012 107.5144997 140.8119988   2.0121131 108.1193961 141.4254393
  18.9310012 104.0524997 142.6299988  18.4090012 104.4094997 141.9109988
  18.8980012 104.7274997 143.3079988  18.8551634 104.1925413 142.6233145
  17.2800012 101.2924997 141.1799988  17.3760012 101.9594997 140.4999988
  17.1400012 100.4764997 140.6989988  17.2742272 101.2735655 141.0218347
  16.5270012  98.7004997 140.2979988  17.1380012  98.3294997 140.9349988
  15.6910012  98.2794997 140.4939988  16.4975032  98.5927554 140.4117035
  18.6400012  97.5854997 141.8399988  19.0520012  96.8644997 141.3649988
  19.3220012  98.2554997 141.8989988  18.7885885  97.5772368 141.7828915
   2.1970012  95.6334997 142.9459988   2.6360012  96.2444997 142.3539988
   1.5640012  96.1714997 143.4199988   2.1714514  95.7899257 142.9290930
   2.0980012 111.5814997 143.8429988   1.4130012 111.5434997 143.1759988
   2.1020012 112.4944997 144.1319988   2.0046998 111.6996733 143.7906771
   4.0580012  97.5494997 141.3879988   4.5500012  96.9194997 140.8609988
   4.6820012  97.8454997 142.0509988   4.2095688  97.5033804 141.4055482
   9.0840012  97.8424997 143.8449988   9.2620012  97.1964997 144.5279988
   9.0310012  98.6764997 144.3119988   9.1011999  97.8668009 144.0015917
  10.9630012 112.7914997 142.2409988  11.8290012 113.1574997 142.0629988
  10.7160012 112.3514997 141.4269988  11.0482392 112.7821756 142.1066289
   3.9160012 112.5014997 140.8689988   3.6490012 112.7884997 141.7419988
   4.6880012 111.9554997 141.0209988   3.9837488 112.4670294 141.0091050
  30.0700012 102.6934997 141.5919988  30.7710012 102.7154997 142.2429988
  30.3730012 102.0654997 140.9349988  30.2068133 102.6117070 141.5923369
  32.2930012 103.6074997 143.1899988  32.8730012 103.7574997 143.9369988
  32.7070012 104.0784997 142.4659988  32.4282997 103.6916578 143.1944058
  35.9920012  95.3574997 143.0029988  35.0920012  95.4964997 143.2979988
  36.2440012  96.1884997 142.6009988  35.9028702  95.4889074 142.9890205
  37.1810012 109.7234997 141.3789988  37.2550012 110.6624997 141.5499988
  38.0870012 109.4184997 141.3229988  37.3135100 109.8106722 141.3948119
  32.5940012 112.4544997 142.0419988  32.9690012 111.7104997 141.5709988
  32.5980012 112.1844997 142.9609988  32.6459125 112.3160986 142.1016483
  33.7710012 104.6404997 140.8199988  33.8130012 104.4174997 139.8899988
  34.6200012 105.0394997 141.0089988  33.8915280 104.6639438 140.7183554
  29.3430012  98.5164997 141.4899988  29.0900012  98.5354997 142.4129988
  29.0870012  97.6444997 141.1879988  29.2737481  98.4012558 141.5756175
  26.2260012  98.9614997 140.5909988  25.7950012  98.5164997 141.3209988
  25.5080012  99.3334997 140.0789988  26.0699438  98.9508940 140.6216799
  20.7420012  99.4494997 143.0669988  21.2160012 100.0404997 142.4819988
  20.0250012  99.9804997 143.4139988  20.7099341  99.6020867 143.0338836
  24.8440012 101.7394997 141.9729988  24.3010012 101.3594997 141.2819988
  25.6770012 101.9334997 141.5449988  24.8823631 101.7137125 141.8204501
  28.1790012 106.3044997 143.9089988  27.4340012 105.7974997 143.5869988
  28.0450012 106.3534997 144.8559988  28.0588776 106.2416940 143.9928647
  32.0770012  99.1184997 142.1079988  31.1380012  99.2304997 141.9569988
  32.3740012  99.9754997 142.4149988  31.9887583  99.2495981 142.1288337
  32.7950012 100.9854997 143.7689988  33.6870012 100.8484997 144.0879988
  32.8520012 101.7764997 143.2319988  32.9246504 101.0736052 143.7400818
  30.3050012 107.7634997 142.9349988  30.0090012 108.5894997 143.3159988
  29.6020012 107.1434997 143.1309988  30.1694914 107.7928199 143.0136443
  37.6800012 101.1954997 143.4639988  37.1260012 100.7994997 142.7919988
  37.7800012 102.1054997 143.1859988  37.6177059 101.2643586 143.3344401
  35.9750012 109.9814997 143.9289988  35.6020012 109.1554997 144.2379988
  36.2530012 109.7984997 143.0309988  35.9615222 109.8437430 143.8499473
  21.4340012 103.9794997 141.6699988  22.0500012 104.6064997 142.0499988
  20.5720012 104.2954997 141.9419988  21.4017698 104.1079430 141.7587183
  33.3680012 107.9574997 141.7489988  33.7210012 107.5774997 142.5529988
  32.4190012 107.8644997 141.8359988  33.2880918 107.8928956 141.8708532
  37.8710012 112.4374997 141.9499988  38.6150012 113.0234997 141.8099988
  37.1770012 113.0054997 142.2829988  37.8789899 112.5945798 141.9758778
  34.2340012 106.6304997 143.9759988  33.9560012 105.9024997 144.5319988
  35.1610012 106.7494997 144.1809988  34.3213124 106.5468802 144.0798845
  27.4590012 109.0694997 140.1959988  27.6980012 108.3214997 139.6489988
  27.1900012 108.6814997 141.0289988  27.4553675 108.9146638 140.2336865
  26.3960012 108.6394997 142.6519988  26.5420012 108.1194997 143.4419988
  26.3930012 109.5464997 142.9589988  26.4155792 108.6908842 142.8016117
  22.8490012 105.8924997 143.1629988  22.1630012 106.2444997 143.7299988
  23.3710012 106.6554997 142.9159988  22.8256852 106.0438578 143.2072118
  29.1330012 110.3374997 143.4019988  28.3170012 110.8344997 143.4539988
  29.6630012 110.8124997 142.7619988  29.0929161 110.4697722 143.3225956
  26.4720012 111.3814997 143.3829988  26.6320012 112.1804997 142.8829988
  26.2740012 111.6874997 144.2679988  26.4671637 111.5324020 143.4341144
  25.2060012  98.0784997 142.9989988  25.1230012  98.9674997 143.3459988
  26.0960012  97.8134997 143.2309988  25.3149469  98.1641430 143.0777626
  23.4650012 108.5064997 142.0599988  24.0570012 109.2054997 142.3359988
  23.9240012 108.0734997 141.3399988  23.6081142 108.5437049 142.0004830
  21.7810012 101.1704997 141.1759988  21.7360012 102.1094997 141.3539988
  20.8930012 100.9344997 140.9059988  21.6548574 101.2671892 141.1638912
  29.4970012 110.9324997 140.3349988  28.8530012 110.3014997 140.6559988
  30.2590012 110.4014997 140.1029988  29.5118077 110.7742920 140.3476011
  34.1010012 110.7494997 140.5679988  34.3840012 109.9554997 141.0209988
  34.8410012 110.9824997 140.0079988  34.2398006 110.6723376 140.5542715
  25.0560012 106.6594997 140.4259988  25.1200012 105.8654997 140.9569988
  25.7090012 106.5404997 139.7359988  25.1530241 106.5347148 140.4054317
  30.4080012 107.7064997 140.1619988  30.1390012 107.8864997 141.0629988
  30.2020012 106.7804997 140.0299988  30.3433427 107.6060261 140.2675073
  26.2050012 104.6314997 142.7319988  25.7450012 104.1474997 143.4179988
  26.4600012 103.9634997 142.0959988  26.1764902 104.4748731 142.7399334
  27.2760012 102.8744997 140.9939988  27.0960012 102.7204997 140.0669988
  28.2260012 102.9824997 141.0389988  27.3797776 102.8680175 140.8731843
  36.6660012 105.2294997 140.4399988  36.3920012 104.8044997 139.6269988
  36.7050012 106.1604997 140.2229988  36.6337699 105.2972484 140.2993610
  27.1730012 113.5654997 141.9949988  28.1060012 113.7234997 142.1389988
  26.9090012 114.2404997 141.3709988  27.2649888 113.6784510 141.9302842
  20.7420012 108.2014997 141.4779988  21.6560012 108.2804997 141.7519988
  20.7490012 107.5144997 140.8119988  20.8681131 108.1193961 141.4254393
  37.7870012 104.0524997 142.6299988  37.2650012 104.4094997 141.9109988
  37.7540012 104.7274997 143.3079988  37.7111634 104.1925413 142.6233145
  36.1360012 101.2924997 141.1799988  36.2320012 101.9594997 140.4999988
  35.9960012 100.4764997 140.6989988  36.1302272 101.2735655 141.0218347
  35.3830012  98.7004997 140.2979988  35.9940012  98.3294997 140.9349988
  34.5470012  98.2794997 140.4939988  35.3535032  98.5927554 140.4117035
  37.4960012  97.5854997 141.8399988  37.9080012  96.8644997 141.3649988
  38.1780012  98.2554997 141.8989988  37.6445885  97.5772368 141.7828915
  21.0530012  95.6334997 142.9459988  21.4920012  96.2444997 142.3539988
  20.4200012  96.1714997 143.4199988  21.0274514  95.7899257 142.9290930
  20.9540012 111.5814997 143.8429988  20.2690012 111.5434997 143.1759988
  20.9580012 112.4944997 144.1319988  20.8606998 111.6996733 143.7906771
  22.9140012  97.5494997 141.3879988  23.4060012  96.9194997 140.8609988
  23.5380012  97.8454997 142.0509988  23.0655688  97.5033804 141.4055482
  27.9400012  97.8424997 143.8449988  28.1180012  97.1964997 144.5279988
  27.8870012  98.6764997 144.3119988  27.9571999  97.8668009 144.0015917
  29.8190012 112.7914997 142.2409988  30.6850012 113.1574997 142.0629988
  29.5720012 112.3514997 141.4269988  29.9042392 112.7821756 142.1066289
  22.7720012 112.5014997 140.8689988  22.5050012 112.7884997 141.7419988
  23.5440012 111.9554997 141.0209988  22.8397488 112.4670294 141.0091050
  48.9260012 102.6934997 141.5919988  49.6270012 102.7154997 142.2429988
  49.2290012 102.0654997 140.9349988  49.0628133 102.6117070 141.5923369
  51.1490012 103.6074997 143.1899988  51.7290012 103.7574997 143.9369988
  51.5630012 104.0784997 142.4659988  51.2842997 103.6916578 143.1944058
  54.8480012  95.3574997 143.0029988  53.9480012  95.4964997 143.2979988
  55.1000012  96.1884997 142.6009988  54.7588702  95.4889074 142.9890205
  56.0370012 109.7234997 141.3789988  56.1110012 110.6624997 141.5499988
  56.9430012 109.4184997 141.3229988  56.1695100 109.8106722 141.3948119
  51.4500012 112.4544997 142.0419988  51.8250012 111.7104997 141.5709988
  51.4540012 112.1844997 142.9609988  51.5019125 112.3160986 142.1016483
  52.6270012 104.6404997 140.8199988  52.6690012 104.4174997 139.8899988
  53.4760012 105.0394997 141.0089988  52.7475280 104.6639438 140.7183554
  48.1990012  98.5164997 141.4899988  47.9460012  98.5354997 142.4129988
  47.9430012  97.6444997 141.1879988  48.1297481  98.4012558 141.5756175
  45.0820012  98.9614997 140.5909988  44.6510012  98.5164997 141.3209988
  44.3640012  99.3334997 140.0789988  44.9259438  98.9508940 140.6216799
  39.5980012  99.4494997 143.0669988  40.0720012 100.0404997 142.4819988
  38.8810012  99.9804997 143.4139988  39.5659341  99.6020867 143.0338836
  43.7000012 101.7394997 141.9729988  43.1570012 101.3594997 141.2819988
  44.5330012 101.9334997 141.5449988  43.7383631 101.7137125 141.8204501
  47.0350012 106.3044997 143.9089988  46.2900012 105.7974997 143.5869988
  46.9010012 106.3534997 144.8559988  46.9148776 106.2416940 143.9928647
  50.9330012  99.1184997 142.1079988  49.9940012  99.2304997 141.9569988
  51.2300012  99.9754997 142.4149988  50.8447583  99.2495981 142.1288337
  51.6510012 100.9854997 143.7689988  52.5430012 100.8484997 144.0879988
  51.7080012 101.7764997 143.2319988  51.7806504 101.0736052 143.7400818
  49.1610012 107.7634997 142.9349988  48.8650012 108.5894997 143.3159988
  48.4580012 107.1434997 143.1309988  49.0254914 107.7928199 143.0136443
  56.5360012 101.1954997 143.4639988  55.9820012 100.7994997 142.7919988
  56.6360012 102.1054997 143.1859988  56.4737059 101.2643586 143.3344401
  54.8310012 109.9814997 143.9289988  54.4580012 109.1554997 144.2379988
  55.1090012 109.7984997 143.0309988  54.8175222 109.8437430 143.8499473
  40.2900012 103.9794997 141.6699988  40.9060012 104.6064997 142.0499988
  39.4280012 104.2954997 141.9419988  40.2577698 104.1079430 141.7587183
  52.2240012 107.9574997 141.7489988  52.5770012 107.5774997 142.5529988
  51.2750012 107.8644997 141.8359988  52.1440918 107.8928956 141.8708532
  56.7270012 112.4374997 141.9499988  57.4710012 113.0234997 141.8099988
  56.0330012 113.0054997 142.2829988  56.7349899 112.5945798 141.9758778
  53.0900012 106.6304997 143.9759988  52.8120012 105.9024997 144.5319988
  54.0170012 106.7494997 144.1809988  53.1773124 106.5468802 144.0798845
  46.3150012 109.0694997 140.1959988  46.5540012 108.3214997 139.6489988
  46.0460012 108.6814997 141.0289988  46.3113675 108.9146638 140.2336865
  45.2520012 108.6394997 142.6519988  45.3980012 108.1194997 143.4419988
  45.2490012 109.5464997 142.9589988  45.2715792 108.6908842 142.8016117
  41.7050012 105.8924997 143.1629988  41.0190012 106.2444997 143.7299988
  42.2270012 106.6554997 142.9159988  41.6816852 106.0438578 143.2072118
  47.9890012 110.3374997 143.4019988  47.1730012 110.8344997 143.4539988
  48.5190012 110.8124997 142.7619988  47.9489161 110.4697722 143.3225956
  45.3280012 111.3814997 143.3829988  45.4880012 112.1804997 142.8829988
  45.1300012 111.6874997 144.2679988  45.3231637 111.5324020 143.4341144
  44.0620012  98.0784997 142.9989988  43.9790012  98.9674997 143.3459988
  44.9520012  97.8134997 143.2309988  44.1709469  98.1641430 143.0777626
  42.3210012 108.5064997 142.0599988  42.9130012 109.2054997 142.3359988
  42.7800012 108.0734997 141.3399988  42.4641142 108.5437049 142.0004830
  40.6370012 101.1704997 141.1759988  40.5920012 102.1094997 141.3539988
  39.7490012 100.9344997 140.9059988  40.5108574 101.2671892 141.1638912
  48.3530012 110.9324997 140.3349988  47.7090012 110.3014997 140.6559988
  49.1150012 110.4014997 140.1029988  48.3678077 110.7742920 140.3476011
  52.9570012 110.7494997 140.5679988  53.2400012 109.9554997 141.0209988
  53.6970012 110.9824997 140.0079988  53.0958006 110.6723376 140.5542715
  43.9120012 106.6594997 140.4259988  43.9760012 105.8654997 140.9569988
  44.5650012 106.5404997 139.7359988  44.0090241 106.5347148 140.4054317
  49.2640012 107.7064997 140.1619988  48.9950012 107.8864997 141.0629988
  49.0580012 106.7804997 140.0299988  49.1993427 107.6060261 140.2675073
  45.0610012 104.6314997 142.7319988  44.6010012 104.1474997 143.4179988
  45.3160012 103.9634997 142.0959988  45.0324902 104.4748731 142.7399334
  46.1320012 102.8744997 140.9939988  45.9520012 102.7204997 140.0669988
  47.0820012 102.9824997 141.0389988  46.2357776 102.8680175 140.8731843
  55.5220012 105.2294997 140.4399988  55.2480012 104.8044997 139.6269988
  55.5610012 106.1604997 140.2229988  55.4897699 105.2972484 140.2993610
  46.0290012 113.5654997 141.9949988  46.9620012 113.7234997 142.1389988
  45.7650012 114.2404997 141.3709988  46.1209888 113.6784510 141.9302842
  39.5980012 108.2014997 141.4779988  40.5120012 108.2804997 141.7519988
  39.6050012 107.5144997 140.8119988  39.7241131 108.1193961 141.4254393
  56.6430012 104.0524997 142.6299988  56.1210012 104.4094997 141.9109988
  56.6100012 104.7274997 143.3079988  56.5671634 104.1925413 142.6233145
  54.9920012 101.2924997 141.1799988  55.0880012 101.9594997 140.4999988
  54.8520012 100.4764997 140.6989988  54.9862272 101.2735655 141.0218347
  54.2390012  98.7004997 140.2979988  54.8500012  98.3294997 140.9349988
  53.4030012  98.2794997 140.4939988  54.2095032  98.5927554 140.4117035
  56.3520012  97.5854997 141.8399988  56.7640012  96.8644997 141.3649988
  57.0340012  98.2554997 141.8989988  56.5005885  97.5772368 141.7828915
  39.9090012  95.6334997 142.9459988  40.3480012  96.2444997 142.3539988
  39.2760012  96.1714997 143.4199988  39.8834514  95.7899257 142.9290930
  39.8100012 111.5814997 143.8429988  39.1250012 111.5434997 143.1759988
  39.8140012 112.4944997 144.1319988  39.7166998 111.6996733 143.7906771
  41.7700012  97.5494997 141.3879988  42.2620012  96.9194997 140.8609988
  42.3940012  97.8454997 142.0509988  41.9215688  97.5033804 141.4055482
  46.7960012  97.8424997 143.8449988  46.9740012  97.1964997 144.5279988
  46.7430012  98.6764997 144.3119988  46.8131999  97.8668009 144.0015917
  48.6750012 112.7914997 142.2409988  49.5410012 113.1574997 142.0629988
  48.4280012 112.3514997 141.4269988  48.7602392 112.7821756 142.1066289
  41.6280012 112.5014997 140.8689988  41.3610012 112.7884997 141.7419988
  42.4000012 111.9554997 141.0209988  41.6957488 112.4670294 141.0091050
  67.7820012 102.6934997 141.5919988  68.4830012 102.7154997 142.2429988
  68.0850012 102.0654997 140.9349988  67.9188133 102.6117070 141.5923369
  70.0050012 103.6074997 143.1899988  70.5850012 103.7574997 143.9369988
  70.4190012 104.0784997 142.4659988  70.1402997 103.6916578 143.1944058
  73.7040012  95.3574997 143.0029988  72.8040012  95.4964997 143.2979988
  73.9560012  96.1884997 142.6009988  73.6148702  95.4889074 142.9890205
  74.8930012 109.7234997 141.3789988  74.9670012 110.6624997 141.5499988
  75.7990012 109.4184997 141.3229988  75.0255100 109.8106722 141.3948119
  70.3060012 112.4544997 142.0419988  70.6810012 111.7104997 141.5709988
  70.3100012 112.1844997 142.9609988  70.3579125 112.3160986 142.1016483
  71.4830012 104.6404997 140.8199988  71.5250012 104.4174997 139.8899988
  72.3320012 105.0394997 141.0089988  71.6035280 104.6639438 140.7183554
  67.0550012  98.5164997 141.4899988  66.8020012  98.5354997 142.4129988
  66.7990012  97.6444997 141.1879988  66.9857481  98.4012558 141.5756175
  63.9380012  98.9614997 140.5909988  63.5070012  98.5164997 141.3209988
  63.2200012  99.3334997 140.0789988  63.7819438  98.9508940 140.6216799
  58.4540012  99.4494997 143.0669988  58.9280012 100.0404997 142.4819988
  57.7370012  99.9804997 143.4139988  58.4219341  99.6020867 143.0338836
  62.5560012 101.7394997 141.9729988  62.0130012 101.3594997 141.2819988
  63.3890012 101.9334997 141.5449988  62.5943631 101.7137125 141.8204501
  65.8910012 106.3044997 143.9089988  65.1460012 105.7974997 143.5869988
  65.7570012 106.3534997 144.8559988  65.7708776 106.2416940 143.9928647
  69.7890012  99.1184997 142.1079988  68.8500012  99.2304997 141.9569988
  70.0860012  99.9754997 142.4149988  69.7007583  99.2495981 142.1288337
  70.5070012 100.9854997 143.7689988  71.3990012 100.8484997 144.0879988
  70.5640012 101.7764997 143.2319988  70.6366504 101.0736052 143.7400818
  68.0170012 107.7634997 142.9349988  67.7210012 108.5894997 143.3159988
  67.3140012 107.1434997 143.1309988  67.8814914 107.7928199 143.0136443
  75.3920012 101.1954997 143.4639988  74.8380012 100.7994997 142.7919988
  75.4920012 102.1054997 143.1859988  75.3297059 101.2643586 143.3344401
  73.6870012 109.9814997 143.9289988  73.3140012 109.1554997 144.2379988
  73.9650012 109.7984997 143.0309988  73.6735222 109.8437430 143.8499473
  59.1460012 103.9794997 141.6699988  59.7620012 104.6064997 142.0499988
  58.2840012 104.2954997 141.9419988  59.1137698 104.1079430 141.7587183
  71.0800012 107.9574997 141.7489988  71.4330012 107.5774997 142.5529988
  70.1310012 107.8644997 141.8359988  71.0000918 107.8928956 141.8708532
  75.5830012 112.4374997 141.9499988  76.3270012 113.0234997 141.8099988
  74.8890012 113.0054997 142.2829988  75.5909899 112.5945798 141.9758778
  71.9460012 106.6304997 143.9759988  71.6680012 105.9024997 144.5319988
  72.8730012 106.7494997 144.1809988  72.0333124 106.5468802 144.0798845
  65.1710012 109.0694997 140.1959988  65.4100012 108.3214997 139.6489988
  64.9020012 108.6814997 141.0289988  65.1673675 108.9146638 140.2336865
  64.1080012 108.6394997 142.6519988  64.2540012 108.1194997 143.4419988
  64.1050012 109.5464997 142.9589988  64.1275792 108.6908842 142.8016117
  60.5610012 105.8924997 143.1629988  59.8750012 106.2444997 143.7299988
  61.0830012 106.6554997 142.9159988  60.5376852 106.0438578 143.2072118
  66.8450012 110.3374997 143.4019988  66.0290012 110.8344997 143.4539988
  67.3750012 110.8124997 142.7619988  66.8049161 110.4697722 143.3225956
  64.1840012 111.3814997 143.3829988  64.3440012 112.1804997 142.8829988
  63.9860012 111.6874997 144.2679988  64.1791637 111.5324020 143.4341144
  62.9180012  98.0784997 142.9989988  62.8350012  98.9674997 143.3459988
  63.8080012  97.8134997 143.2309988  63.0269469  98.1641430 143.0777626
  61.1770012 108.5064997 142.0599988  61.7690012 109.2054997 142.3359988
  61.6360012 108.0734997 141.3399988  61.3201142 108.5437049 142.0004830
  59.4930012 101.1704997 141.1759988  59.4480012 102.1094997 141.3539988
  58.6050012 100.9344997 140.9059988  59.3668574 101.2671892 141.1638912
  67.2090012 110.9324997 140.3349988  66.5650012 110.3014997 140.6559988
  67.9710012 110.4014997 140.1029988  67.2238077 110.7742920 140.3476011
  71.8130012 110.7494997 140.5679988  72.0960012 109.9554997 141.0209988
  72.5530012 110.9824997 140.0079988  71.9518006 110.6723376 140.5542715
  62.7680012 106.6594997 140.4259988  62.8320012 105.8654997 140.9569988
  63.4210012 106.5404997 139.7359988  62.8650241 106.5347148 140.4054317
  68.1200012 107.7064997 140.1619988  67.8510012 107.8864997 141.0629988
  67.9140012 106.7804997 140.0299988  68.0553427 107.6060261 140.2675073
  63.9170012 104.6314997 142.7319988  63.4570012 104.1474997 143.4179988
  64.1720012 103.9634997 142.0959988  63.8884902 104.4748731 142.7399334
  64.9880012 102.8744997 140.9939988  64.8080012 102.7204997 140.0669988
  65.9380012 102.9824997 141.0389988  65.0917776 102.8680175 140.8731843
  74.3780012 105.2294997 140.4399988  74.1040012 104.8044997 139.6269988
  74.4170012 106.1604997 140.2229988  74.3457699 105.2972484 140.2993610
  64.8850012 113.5654997 141.9949988  65.8180012 113.7234997 142.1389988
  64.6210012 114.2404997 141.3709988  64.9769888 113.6784510 141.9302842
  58.4540012 108.2014997 141.4779988  59.3680012 108.2804997 141.7519988
  58.4610012 107.5144997 140.8119988  58.5801131 108.1193961 141.4254393
  75.4990012 104.0524997 142.6299988  74.9770012 104.4094997 141.9109988
  75.4660012 104.7274997 143.3079988  75.4231634 104.1925413 142.6233145
  73.8480012 101.2924997 141.1799988  73.9440012 101.9594997 140.4999988
  73.7080012 100.4764997 140.6989988  73.8422272 101.2735655 141.0218347
  73.0950012  98.7004997 140.2979988  73.7060012  98.3294997 140.9349988
  72.2590012  98.2794997 140.4939988  73.0655032  98.5927554 140.4117035
  75.2080012  97.5854997 141.8399988  75.6200012  96.8644997 141.3649988
  75.8900012  98.2554997 141.8989988  75.3565885  97.5772368 141.7828915
  58.7650012  95.6334997 142.9459988  59.2040012  96.2444997 142.3539988
  58.1320012  96.1714997 143.4199988  58.7394514  95.7899257 142.9290930
  58.6660012 111.5814997 143.8429988  57.9810012 111.5434997 143.1759988
  58.6700012 112.4944997 144.1319988  58.5726998 111.6996733 143.7906771
  60.6260012  97.5494997 141.3879988  61.1180012  96.9194997 140.8609988
  61.2500012  97.8454997 142.0509988  60.7775688  97.5033804 141.4055482
  65.6520012  97.8424997 143.8449988  65.8300012  97.1964997 144.5279988
  65.5990012  98.6764997 144.3119988  65.6691999  97.8668009 144.0015917
  67.5310012 112.7914997 142.2409988  68.3970012 113.1574997 142.0629988
  67.2840012 112.3514997 141.4269988  67.6162392 112.7821756 142.1066289
  60.4840012 112.5014997 140.8689988  60.2170012 112.7884997 141.7419988
  61.2560012 111.9554997 141.0209988  60.5517488 112.4670294 141.0091050
  86.6380012 102.6934997 141.5919988  87.3390012 102.7154997 142.2429988
  86.9410012 102.0654997 140.9349988  86.7748133 102.6117070 141.5923369
  88.8610012 103.6074997 143.1899988  89.4410012 103.7574997 143.9369988
  89.2750012 104.0784997 142.4659988  88.9962997 103.6916578 143.1944058
  92.5600012  95.3574997 143.0029988  91.6600012  95.4964997 143.2979988
  92.8120012  96.1884997 142.6009988  92.4708702  95.4889074 142.9890205
  93.7490012 109.7234997 141.3789988  93.8230012 110.6624997 141.5499988
  94.6550012 109.4184997 141.3229988  93.8815100 109.8106722 141.3948119
  89.1620012 112.4544997 142.0419988  89.5370012 111.7104997 141.5709988
  89.1660012 112.1844997 142.9609988  89.2139125 112.3160986 142.1016483
  90.3390012 104.6404997 140.8199988  90.3810012 104.4174997 139.8899988
  91.1880012 105.0394997 141.0089988  90.4595280 104.6639438 140.7183554
  85.9110012  98.5164997 141.4899988  85.6580012  98.5354997 142.4129988
  85.6550012  97.6444997 141.1879988  85.8417481  98.4012558 141.5756175
  82.7940012  98.9614997 140.5909988  82.3630012  98.5164997 141.3209988
  82.0760012  99.3334997 140.0789988  82.6379438  98.9508940 140.6216799
  77.3100012  99.4494997 143.0669988  77.7840012 100.0404997 142.4819988
  76.5930012  99.9804997 143.4139988  77.2779341  99.6020867 143.0338836
  81.4120012 101.7394997 141.9729988  80.8690012 101.3594997 141.2819988
  82.2450012 101.9334997 141.5449988  81.4503631 101.7137125 141.8204501
  84.7470012 106.3044997 143.9089988  84.0020012 105.7974997 143.5869988
  84.6130012 106.3534997 144.8559988  84.6268776 106.2416940 143.9928647
  88.6450012  99.1184997 142.1079988  87.7060012  99.2304997 141.9569988
  88.9420012  99.9754997 142.4149988  88.5567583  99.2495981 142.1288337
  89.3630012 100.9854997 143.7689988  90.2550012 100.8484997 144.0879988
  89.4200012 101.7764997 143.2319988  89.4926504 101.0736052 143.7400818
  86.8730012 107.7634997 142.9349988  86.5770012 108.5894997 143.3159988
  86.1700012 107.1434997 143.1309988  86.7374914 107.7928199 143.0136443
  94.2480012 101.1954997 143.4639988  93.6940012 100.7994997 142.7919988
  94.3480012 102.1054997 143.1859988  94.1857059 101.2643586 143.3344401
  92.5430012 109.9814997 143.9289988  92.1700012 109.1554997 144.2379988
  92.8210012 109.7984997 143.0309988  92.5295222 109.8437430 143.8499473
  78.0020012 103.9794997 141.6699988  78.6180012 104.6064997 142.0499988
  77.1400012 104.2954997 141.9419988  77.9697698 104.1079430 141.7587183
  89.9360012 107.9574997 141.7489988  90.2890012 107.5774997 142.5529988
  88.9870012 107.8644997 141.8359988  89.8560918 107.8928956 141.8708532
  94.4390012 112.4374997 141.9499988  95.1830012 113.0234997 141.8099988
  93.7450012 113.0054997 142.2829988  94.4469899 112.5945798 141.9758778
  90.8020012 106.6304997 143.9759988  90.5240012 105.9024997 144.5319988
  91.7290012 106.7494997 144.1809988  90.8893124 106.5468802 144.0798845
  84.0270012 109.0694997 140.1959988  84.2660012 108.3214997 139.6489988
  83.7580012 108.6814997 141.0289988  84.0233675 108.9146638 140.2336865
  82.9640012 108.6394997 142.6519988  83.1100012 108.1194997 143.4419988
  82.9610012 109.5464997 142.9589988  82.9835792 108.6908842 142.8016117
  79.4170012 105.8924997 143.1629988  78.7310012 106.2444997 143.7299988
  79.9390012 106.6554997 142.9159988  79.3936852 106.0438578 143.2072118
  85.7010012 110.3374997 143.4019988  84.8850012 110.8344997 143.4539988
  86.2310012 110.8124997 142.7619988  85.6609161 110.4697722 143.3225956
  83.0400012 111.3814997 143.3829988  83.2000012 112.1804997 142.8829988
  82.8420012 111.6874997 144.2679988  83.0351637 111.5324020 143.4341144
  81.7740012  98.0784997 142.9989988  81.6910012  98.9674997 143.3459988
  82.6640012  97.8134997 143.2309988  81.8829469  98.1641430 143.0777626
  80.0330012 108.5064997 142.0599988  80.6250012 109.2054997 142.3359988
  80.4920012 108.0734997 141.3399988  80.1761142 108.5437049 142.0004830
  78.3490012 101.1704997 141.1759988  78.3040012 102.1094997 141.3539988
  77.4610012 100.9344997 140.9059988  78.2228574 101.2671892 141.1638912
  86.0650012 110.9324997 140.3349988  85.4210012 110.3014997 140.6559988
  86.8270012 110.4014997 140.1029988  86.0798077 110.7742920 140.3476011
  90.6690012 110.7494997 140.5679988  90.9520012 109.9554997 141.0209988
  91.4090012 110.9824997 140.0079988  90.8078006 110.6723376 140.5542715
  81.6240012 106.6594997 140.4259988  81.6880012 105.8654997 140.9569988
  82.2770012 106.5404997 139.7359988  81.7210241 106.5347148 140.4054317
  86.9760012 107.7064997 140.1619988  86.7070012 107.8864997 141.0629988
  86.7700012 106.7804997 140.0299988  86.9113427 107.6060261 140.2675073
  82.7730012 104.6314997 142.7319988  82.3130012 104.1474997 143.4179988
  83.0280012 103.9634997 142.0959988  82.7444902 104.4748731 142.7399334
  83.8440012 102.8744997 140.9939988  83.6640012 102.7204997 140.0669988
  84.7940012 102.9824997 141.0389988  83.9477776 102.8680175 140.8731843
  93.2340012 105.2294997 140.4399988  92.9600012 104.8044997 139.6269988
  93.2730012 106.1604997 140.2229988  93.2017699 105.2972484 140.2993610
  83.7410012 113.5654997 141.9949988  84.6740012 113.7234997 142.1389988
  83.4770012 114.2404997 141.3709988  83.8329888 113.6784510 141.9302842
  77.3100012 108.2014997 141.4779988  78.2240012 108.2804997 141.7519988
  77.3170012 107.5144997 140.8119988  77.4361131 108.1193961 141.4254393
  94.3550012 104.0524997 142.6299988  93.8330012 104.4094997 141.9109988
  94.3220012 104.7274997 143.3079988  94.2791634 104.1925413 142.6233145
  92.7040012 101.2924997 141.1799988  92.8000012 101.9594997 140.4999988
  92.5640012 100.4764997 140.6989988  92.6982272 101.2735655 141.0218347
  91.9510012  98.7004997 140.2979988  92.5620012  98.3294997 140.9349988
  91.1150012  98.2794997 140.4939988  91.9215032  98.5927554 140.4117035
  94.0640012  97.5854997 141.8399988  94.4760012  96.8644997 141.3649988
  94.7460012  98.2554997 141.8989988  94.2125885  97.5772368 141.7828915
  77.6210012  95.6334997 142.9459988  78.0600012  96.2444997 142.3539988
  76.9880012  96.1714997 143.4199988  77.5954514  95.7899257 142.9290930
  77.5220012 111.5814997 143.8429988  76.8370012 111.5434997 143.1759988
  77.5260012 112.4944997 144.1319988  77.4286998 111.6996733 143.7906771
  79.4820012  97.5494997 141.3879988  79.9740012  96.9194997 140.8609988
  80.1060012  97.8454997 142.0509988  79.6335688  97.5033804 141.4055482
  84.5080012  97.8424997 143.8449988  84.6860012  97.1964997 144.5279988
  84.4550012  98.6764997 144.3119988  84.5251999  97.8668009 144.0015917
  86.3870012 112.7914997 142.2409988  87.2530012 113.1574997 142.0629988
  86.1400012 112.3514997 141.4269988  86.4722392 112.7821756 142.1066289
  79.3400012 112.5014997 140.8689988  79.0730012 112.7884997 141.7419988
  80.1120012 111.9554997 141.0209988  79.4077488 112.4670294 141.0091050
 105.4940012 102.6934997 141.5919988 106.1950012 102.7154997 142.2429988
 105.7970012 102.0654997 140.9349988 105.6308133 102.6117070 141.5923369
 107.7170012 103.6074997 143.1899988 108.2970012 103.7574997 143.9369988
 108.1310012 104.0784997 142.4659988 107.8522997 103.6916578 143.1944058
 111.4160012  95.3574997 143.0029988 110.5160012  95.4964997 143.2979988
 111.6680012  96.1884997 142.6009988 111.3268702  95.4889074 142.9890205
 112.6050012 109.7234997 141.3789988 112.6790012 110.6624997 141.5499988
 113.5110012 109.4184997 141.3229988 112.7375100 109.8106722 141.3948119
 108.0180012 112.4544997 142.0419988 108.3930012 111.7104997 141.5709988
 108.0220012 112.1844997 142.9609988 108.0699125 112.3160986 142.1016483
 109.1950012 104.6404997 140.8199988 109.2370012 104.4174997 139.8899988
 110.0440012 105.0394997 141.0089988 109.3155280 104.6639438 140.7183554
 104.7670012  98.5164997 141.4899988 104.5140012  98.5354997 142.4129988
 104.5110012  97.6444997 141.1879988 104.6977481  98.4012558 141.5756175
 101.6500012  98.9614997 140.5909988 101.2190012  98.5164997 141.3209988
 100.9320012  99.3334997 140.0789988 101.4939438  98.9508940 140.6216799
  96.1660012  99.4494997 143.0669988  96.6400012 100.0404997 142.4819988
  95.4490012  99.9804997 143.4139988  96.1339341  99.6020867 143.0338836
 100.2680012 101.7394997 141.9729988  99.7250012 101.3594997 141.2819988
 101.1010012 101.9334997 141.5449988 100.3063631 101.7137125 141.8204501
 103.6030012 106.3044997 143.9089988 102.8580012 105.7974997 143.5869988
 103.4690012 106.3534997 144.8559988 103.4828776 106.2416940 143.9928647
 107.5010012  99.1184997 142.1079988 106.5620012  99.2304997 141.9569988
 107.7980012  99.9754997 142.4149988 107.4127583  99.2495981 142.1288337
 108.2190012 100.9854997 143.7689988 109.1110012 100.8484997 144.0879988
 108.2760012 101.7764997 143.2319988 108.3486504 101.0736052 143.7400818
 105.7290012 107.7634997 142.9349988 105.4330012 108.5894997 143.3159988
 105.0260012 107.1434997 143.1309988 105.5934914 107.7928199 143.0136443
 113.1040012 101.1954997 143.4639988 112.5500012 100.7994997 142.7919988
 113.2040012 102.1054997 143.1859988 113.0417059 101.2643586 143.3344401
 111.3990012 109.9814997 143.9289988 111.0260012 109.1554997 144.2379988
 111.6770012 109.7984997 143.0309988 111.3855222 109.8437430 143.8499473
  96.8580012 103.9794997 141.6699988  97.4740012 104.6064997 142.0499988
  95.9960012 104.2954997 141.9419988  96.8257698 104.1079430 141.7587183
 108.7920012 107.9574997 141.7489988 109.1450012 107.5774997 142.5529988
 107.8430012 107.8644997 141.8359988 108.7120918 107.8928956 141.8708532
 113.2950012 112.4374997 141.9499988 114.0390012 113.0234997 141.8099988
 112.6010012 113.0054997 142.2829988 113.3029899 112.5945798 141.9758778
 109.6580012 106.6304997 143.9759988 109.3800012 105.9024997 144.5319988
 110.5850012 106.7494997 144.1809988 109.7453124 106.5468802 144.0798845
 102.8830012 109.0694997 140.1959988 103.1220012 108.3214997 139.6489988
 102.6140012 108.6814997 141.0289988 102.8793675 108.9146638 140.2336865
 101.8200012 108.6394997 142.6519988 101.9660012 108.1194997 143.4419988
 101.8170012 109.5464997 142.9589988 101.8395792 108.6908842 142.8016117
  98.2730012 105.8924997 143.1629988  97.5870012 106.2444997 143.7299988
  98.7950012 106.6554997 142.9159988  98.2496852 106.0438578 143.2072118
 104.5570012 110.3374997 143.4019988 103.7410012 110.8344997 143.4539988
 105.0870012 110.8124997 142.7619988 104.5169161 110.4697722 143.3225956
 101.8960012 111.3814997 143.3829988 102.0560012 112.1804997 142.8829988
 101.6980012 111.6874997 144.2679988 101.8911637 111.5324020 143.4341144
 100.6300012  98.0784997 142.9989988 100.5470012  98.9674997 143.3459988
 101.5200012  97.8134997 143.2309988 100.7389469  98.1641430 143.0777626
  98.8890012 108.5064997 142.0599988  99.4810012 109.2054997 142.3359988
  99.3480012 108.0734997 141.3399988  99.0321142 108.5437049 142.0004830
  97.2050012 101.1704997 141.1759988  97.1600012 102.1094997 141.3539988
  96.3170012 100.9344997 140.9059988  97.0788574 101.2671892 141.1638912
 104.9210012 110.9324997 140.3349988 104.2770012 110.3014997 140.6559988
 105.6830012 110.4014997 140.1029988 104.9358077 110.7742920 140.3476011
 109.5250012 110.7494997 140.5679988 109.8080012 109.9554997 141.0209988
 110.2650012 110.9824997 140.0079988 109.6638006 110.6723376 140.5542715
 100.4800012 106.6594997 140.4259988 100.5440012 105.8654997 140.9569988
 101.1330012 106.5404997 139.7359988 100.5770241 106.5347148 140.4054317
 105.8320012 107.7064997 140.1619988 105.5630012 107.8864997 141.0629988
 105.6260012 106.7804997 140.0299988 105.7673427 107.6060261 140.2675073
 101.6290012 104.6314997 142.7319988 101.1690012 104.1474997 143.4179988
 101.8840012 103.9634997 142.0959988 101.6004902 104.4748731 142.7399334
 102.7000012 102.8744997 140.9939988 102.5200012 102.7204997 140.0669988
 103.6500012 102.9824997 141.0389988 102.8037776 102.8680175 140.8731843
 112.0900012 105.2294997 140.4399988 111.8160012 104.8044997 139.6269988
 112.1290012 106.1604997 140.2229988 112.0577699 105.2972484 140.2993610
 102.5970012 113.5654997 141.9949988 103.5300012 113.7234997 142.1389988
 102.3330012 114.2404997 141.3709988 102.6889888 113.6784510 141.9302842
  96.1660012 108.2014997 141.4779988  97.0800012 108.2804997 141.7519988
  96.1730012 107.5144997 140.8119988  96.2921131 108.1193961 141.4254393
 113.2110012 104.0524997 142.6299988 112.6890012 104.4094997 141.9109988
 113.1780012 104.7274997 143.3079988 113.1351634 104.1925413 142.6233145
 111.5600012 101.2924997 141.1799988 111.6560012 101.9594997 140.4999988
 111.4200012 100.4764997 140.6989988 111.5542272 101.2735655 141.0218347
 110.8070012  98.7004997 140.2979988 111.4180012  98.3294997 140.9349988
 109.9710012  98.2794997 140.4939988 110.7775032  98.5927554 140.4117035
 112.9200012  97.5854997 141.8399988 113.3320012  96.8644997 141.3649988
 113.6020012  98.2554997 141.8989988 113.0685885  97.5772368 141.7828915
  96.4770012  95.6334997 142.9459988  96.9160012  96.2444997 142.3539988
  95.8440012  96.1714997 143.4199988  96.4514514  95.7899257 142.9290930
  96.3780012 111.5814997 143.8429988  95.6930012 111.5434997 143.1759988
  96.3820012 112.4944997 144.1319988  96.2846998 111.6996733 143.7906771
  98.3380012  97.5494997 141.3879988  98.8300012  96.9194997 140.8609988
  98.9620012  97.8454997 142.0509988  98.4895688  97.5033804 141.4055482
 103.3640012  97.8424997 143.8449988 103.5420012  97.1964997 144.5279988
 103.3110012  98.6764997 144.3119988 103.3811999  97.8668009 144.0015917
 105.2430012 112.7914997 142.2409988 106.1090012 113.1574997 142.0629988
 104.9960012 112.3514997 141.4269988 105.3282392 112.7821756 142.1066289
  98.1960012 112.5014997 140.8689988  97.9290012 112.7884997 141.7419988
  98.9680012 111.9554997 141.0209988  98.2637488 112.4670294 141.0091050
 124.3500012 102.6934997 141.5919988 125.0510012 102.7154997 142.2429988
 124.6530012 102.0654997 140.9349988 124.4868133 102.6117070 141.5923369
 126.5730012 103.6074997 143.1899988 127.1530012 103.7574997 143.9369988
 126.9870012 104.0784997 142.4659988 126.7082997 103.6916578 143.1944058
 130.2720012  95.3574997 143.0029988 129.3720012  95.4964997 143.2979988
 130.5240012  96.1884997 142.6009988 130.1828702  95.4889074 142.9890205
 131.4610012 109.7234997 141.3789988 131.5350012 110.6624997 141.5499988
 132.3670012 109.4184997 141.3229988 131.5935100 109.8106722 141.3948119
 126.8740012 112.4544997 142.0419988 127.2490012 111.7104997 141.5709988
 126.8780012 112.1844997 142.9609988 126.9259125 112.3160986 142.1016483
 128.0510012 104.6404997 140.8199988 128.0930012 104.4174997 139.8899988
 128.9000012 105.0394997 141.0089988 128.1715280 104.6639438 140.7183554
 123.6230012  98.5164997 141.4899988 123.3700012  98.5354997 142.4129988
 123.3670012  97.6444997 141.1879988 123.5537481  98.4012558 141.5756175
 120.5060012  98.9614997 140.5909988 120.0750012  98.5164997 141.3209988
 119.7880012  99.3334997 140.0789988 120.3499438  98.9508940 140.6216799
 115.0220012  99.4494997 143.0669988 115.4960012 100.0404997 142.4819988
 114.3050012  99.9804997 143.4139988 114.9899341  99.6020867 143.0338836
 119.1240012 101.7394997 141.9729988 118.5810012 101.3594997 141.2819988
 119.9570012 101.9334997 141.5449988 119.1623631 101.7137125 141.8204501
 122.4590012 106.3044997 143.9089988 121.7140012 105.7974997 143.5869988
 122.3250012 106.3534997 144.8559988 122.3388776 106.2416940 143.9928647
 126.3570012  99.1184997 142.1079988 125.4180012  99.2304997 141.9569988
 126.6540012  99.9754997 142.4149988 126.2687583  99.2495981 142.1288337
 127.0750012 100.9854997 143.7689988 127.9670012 100.8484997 144.0879988
 127.1320012 101.7764997 143.2319988 127.2046504 101.0736052 143.7400818
 124.5850012 107.7634997 142.9349988 124.2890012 108.5894997 143.3159988
 123.8820012 107.1434997 143.1309988 124.4494914 107.7928199 143.0136443
 131.9600012 101.1954997 143.4639988 131.4060012 100.7994997 142.7919988
 132.0600012 102.1054997 143.1859988 131.8977059 101.2643586 143.3344401
 130.2550012 109.9814997 143.9289988 129.8820012 109.1554997 144.2379988
 130.5330012 109.7984997 143.0309988 130.2415222 109.8437430 143.8499473
 115.7140012 103.9794997 141.6699988 116.3300012 104.6064997 142.0499988
 114.8520012 104.2954997 141.9419988 115.6817698 104.1079430 141.7587183
 127.6480012 107.9574997 141.7489988 128.0010012 107.5774997 142.5529988
 126.6990012 107.8644997 141.8359988 127.5680918 107.8928956 141.8708532
 132.1510012 112.4374997 141.9499988 132.8950012 113.0234997 141.8099988
 131.4570012 113.0054997 142.2829988 132.1589899 112.5945798 141.9758778
 128.5140012 106.6304997 143.9759988 128.2360012 105.9024997 144.5319988
 129.4410012 106.7494997 144.1809988 128.6013124 106.5468802 144.0798845
 121.7390012 109.0694997 140.1959988 121.9780012 108.3214997 139.6489988
 121.4700012 108.6814997 141.0289988 121.7353675 108.9146638 140.2336865
 120.6760012 108.6394997 142.6519988 120.8220012 108.1194997 143.4419988
 120.6730012 109.5464997 142.9589988 120.6955792 108.6908842 142.8016117
 117.1290012 105.8924997 143.1629988 116.4430012 106.2444997 143.7299988
 117.6510012 106.6554997 142.9159988 117.1056852 106.0438578 143.2072118
 123.4130012 110.3374997 143.4019988 122.5970012 110.8344997 143.4539988
 123.9430012 110.8124997 142.7619988 123.3729161 110.4697722 143.3225956
 120.7520012 111.3814997 143.3829988 120.9120012 112.1804997 142.8829988
 120.5540012 111.6874997 144.2679988 120.7471637 111.5324020 143.4341144
 119.4860012  98.0784997 142.9989988 119.4030012  98.9674997 143.3459988
 120.3760012  97.8134997 143.2309988 119.5949469  98.1641430 143.0777626
 117.7450012 108.5064997 142.0599988 118.3370012 109.2054997 142.3359988
 118.2040012 108.0734997 141.3399988 117.8881142 108.5437049 142.0004830
 116.0610012 101.1704997 141.1759988 116.0160012 102.1094997 141.3539988
 115.1730012 100.9344997 140.9059988 115.9348574 101.2671892 141.1638912
 123.7770012 110.9324997 140.3349988 123.1330012 110.3014997 140.6559988
 124.5390012 110.4014997 140.1029988 123.7918077 110.7742920 140.3476011
 128.3810012 110.7494997 140.5679988 128.6640012 109.9554997 141.0209988
 129.1210012 110.9824997 140.0079988 128.5198006 110.6723376 140.5542715
 119.3360012 106.6594997 140.4259988 119.4000012 105.8654997 140.9569988
 119.9890012 106.5404997 139.7359988 119.4330241 106.5347148 140.4054317
 124.6880012 107.7064997 140.1619988 124.4190012 107.8864997 141.0629988
 124.4820012 106.7804997 140.0299988 124.6233427 107.6060261 140.2675073
 120.4850012 104.6314997 142.7319988 120.0250012 104.1474997 143.4179988
 120.7400012 103.9634997 142.0959988 120.4564902 104.4748731 142.7399334
 121.5560012 102.8744997 140.9939988 121.3760012 102.7204997 140.0669988
 122.5060012 102.9824997 141.0389988 121.6597776 102.8680175 140.8731843
 130.9460012 105.2294997 140.4399988 130.6720012 104.8044997 139.6269988
 130.9850012 106.1604997 140.2229988 130.9137699 105.2972484 140.2993610
 121.4530012 113.5654997 141.9949988 122.3860012 113.7234997 142.1389988
 121.1890012 114.2404997 141.3709988 121.5449888 113.6784510 141.9302842
 115.0220012 108.2014997 141.4779988 115.9360012 108.2804997 141.7519988
 115.0290012 107.5144997 140.8119988 115.1481131 108.1193961 141.4254393
 132.0670012 104.0524997 142.6299988 131.5450012 104.4094997 141.9109988
 132.0340012 104.7274997 143.3079988 131.9911634 104.1925413 142.6233145
 130.4160012 101.2924997 141.1799988 130.5120012 101.9594997 140.4999988
 130.2760012 100.4764997 140.6989988 130.4102272 101.2735655 141.0218347
 129.6630012  98.7004997 140.2979988 130.2740012  98.3294997 140.9349988
 128.8270012  98.2794997 140.4939988 129.6335032  98.5927554 140.4117035
 131.7760012  97.5854997 141.8399988 132.1880012  96.8644997 141.3649988
 132.4580012  98.2554997 141.8989988 131.9245885  97.5772368 141.7828915
 115.3330012  95.6334997 142.9459988 115.7720012  96.2444997 142.3539988
 114.7000012  96.1714997 143.4199988 115.3074514  95.7899257 142.9290930
 115.2340012 111.5814997 143.8429988 114.5490012 111.5434997 143.1759988
 115.2380012 112.4944997 144.1319988 115.1406998 111.6996733 143.7906771
 117.1940012  97.5494997 141.3879988 117.6860012  96.9194997 140.8609988
 117.8180012  97.8454997 142.0509988 117.3455688  97.5033804 141.4055482
 122.2200012  97.8424997 143.8449988 122.3980012  97.1964997 144.5279988
 122.1670012  98.6764997 144.3119988 122.2371999  97.8668009 144.0015917
 124.0990012 112.7914997 142.2409988 124.9650012 113.1574997 142.0629988
 123.8520012 112.3514997 141.4269988 124.1842392 112.7821756 142.1066289
 117.0520012 112.5014997 140.8689988 116.7850012 112.7884997 141.7419988
 117.8240012 111.9554997 141.0209988 117.1197488 112.4670294 141.0091050
 143.2060012 102.6934997 141.5919988 143.9070012 102.7154997 142.2429988
 143.5090012 102.0654997 140.9349988 143.3428133 102.6117070 141.5923369
 142.4790012  98.5164997 141.4899988 142.2260012  98.5354997 142.4129988
 142.2230012  97.6444997 141.1879988 142.4097481  98.4012558 141.5756175
 139.3620012  98.9614997 140.5909988 138.9310012  98.5164997 141.3209988
 138.6440012  99.3334997 140.0789988 139.2059438  98.9508940 140.6216799
 133.8780012  99.4494997 143.0669988 134.3520012 100.0404997 142.4819988
 133.1610012  99.9804997 143.4139988 133.8459341  99.6020867 143.0338836
 137.9800012 101.7394997 141.9729988 137.4370012 101.3594997 141.2819988
 138.8130012 101.9334997 141.5449988 138.0183631 101.7137125 141.8204501
 141.3150012 106.3044997 143.9089988 140.5700012 105.7974997 143.5869988
 141.1810012 106.3534997 144.8559988 141.1948776 106.2416940 143.9928647
 143.4410012 107.7634997 142.9349988 143.1450012 108.5894997 143.3159988
 142.7380012 107.1434997 143.1309988 143.3054914 107.7928199 143.0136443
 134.5700012 103.9794997 141.6699988 135.1860012 104.6064997 142.0499988
 133.7080012 104.2954997 141.9419988 134.5377698 104.1079430 141.7587183
 140.5950012 109.0694997 140.1959988 140.8340012 108.3214997 139.6489988
 140.3260012 108.6814997 141.0289988 140.5913675 108.9146638 140.2336865
 139.5320012 108.6394997 142.6519988 139.6780012 108.1194997 143.4419988
 139.5290012 109.5464997 142.9589988 139.5515792 108.6908842 142.8016117
 135.9850012 105.8924997 143.1629988 135.2990012 106.2444997 143.7299988
 136.5070012 106.6554997 142.9159988 135.9616852 106.0438578 143.2072118
 142.2690012 110.3374997 143.4019988 141.4530012 110.8344997 143.4539988
 142.7990012 110.8124997 142.7619988 142.2289161 110.4697722 143.3225956
 139.6080012 111.3814997 143.3829988 139.7680012 112.1804997 142.8829988
 139.4100012 111.6874997 144.2679988 139.6031637 111.5324020 143.4341144
 138.3420012  98.0784997 142.9989988 138.2590012  98.9674997 143.3459988
 139.2320012  97.8134997 143.2309988 138.4509469  98.1641430 143.0777626
 136.6010012 108.5064997 142.0599988 137.1930012 109.2054997 142.3359988
 137.0600012 108.0734997 141.3399988 136.7441142 108.5437049 142.0004830
 134.9170012 101.1704997 141.1759988 134.8720012 102.1094997 141.3539988
 134.0290012 100.9344997 140.9059988 134.7908574 101.2671892 141.1638912
 142.6330012 110.9324997 140.3349988 141.9890012 110.3014997 140.6559988
 143.3950012 110.4014997 140.1029988 142.6478077 110.7742920 140.3476011
 138.1920012 106.6594997 140.4259988 138.2560012 105.8654997 140.9569988
 138.8450012 106.5404997 139.7359988 138.2890241 106.5347148 140.4054317
 143.5440012 107.7064997 140.1619988 143.2750012 107.8864997 141.0629988
 143.3380012 106.7804997 140.0299988 143.4793427 107.6060261 140.2675073
 139.3410012 104.6314997 142.7319988 138.8810012 104.1474997 143.4179988
 139.5960012 103.9634997 142.0959988 139.3124902 104.4748731 142.7399334
 140.4120012 102.8744997 140.9939988 140.2320012 102.7204997 140.0669988
 141.3620012 102.9824997 141.0389988 140.5157776 102.8680175 140.8731843
 140.3090012 113.5654997 141.9949988 141.2420012 113.7234997 142.1389988
 140.0450012 114.2404997 141.3709988 140.4009888 113.6784510 141.9302842
 133.8780012 108.2014997 141.4779988 134.7920012 108.2804997 141.7519988
 133.8850012 107.5144997 140.8119988 134.0041131 108.1193961 141.4254393
 134.1890012  95.6334997 142.9459988 134.6280012  96.2444997 142.3539988
 133.5560012  96.1714997 143.4199988 134.1634514  95.7899257 142.9290930
 134.0900012 111.5814997 143.8429988 133.4050012 111.5434997 143.1759988
 134.0940012 112.4944997 144.1319988 133.9966998 111.6996733 143.7906771
 136.0500012  97.5494997 141.3879988 136.5420012  96.9194997 140.8609988
 136.6740012  97.8454997 142.0509988 136.2015688  97.5033804 141.4055482
 141.0760012  97.8424997 143.8449988 141.2540012  97.1964997 144.5279988
 141.0230012  98.6764997 144.3119988 141.0931999  97.8668009 144.0015917
 142.9550012 112.7914997 142.2409988 143.8210012 113.1574997 142.0629988
 142.7080012 112.3514997 141.4269988 143.0402392 112.7821756 142.1066289
 135.9080012 112.5014997 140.8689988 135.6410012 112.7884997 141.7419988
 136.6800012 111.9554997 141.0209988 135.9757488 112.4670294 141.0091050
  11.2140012 121.5494997 141.5919988  11.9150012 121.5714997 142.2429988
  11.5170012 120.9214997 140.9349988  11.3508133 121.4677070 141.5923369
  13.4370012 122.4634997 143.1899988  14.0170012 122.6134997 143.9369988
  13.8510012 122.9344997 142.4659988  13.5722997 122.5476578 143.1944058
  17.1360012 114.2134997 143.0029988  16.2360012 114.3524997 143.2979988
  17.3880012 115.0444997 142.6009988  17.0468702 114.3449074 142.9890205
  18.3250012 128.5794997 141.3789988  18.3990012 129.5184997 141.5499988
  19.2310012 128.2744997 141.3229988  18.4575100 128.6666722 141.3948119
  13.7380012 131.3104997 142.0419988  14.1130012 130.5664997 141.5709988
  13.7420012 131.0404997 142.9609988  13.7899125 131.1720986 142.1016483
  14.9150012 123.4964997 140.8199988  14.9570012 123.2734997 139.8899988
  15.7640012 123.8954997 141.0089988  15.0355280 123.5199438 140.7183554
  10.4870012 117.3724997 141.4899988  10.2340012 117.3914997 142.4129988
  10.2310012 116.5004997 141.1879988  10.4177481 117.2572558 141.5756175
   7.3700012 117.8174997 140.5909988   6.9390012 117.3724997 141.3209988
   6.6520012 118.1894997 140.0789988   7.2139438 117.8068940 140.6216799
   1.8860012 118.3054997 143.0669988   2.3600012 118.8964997 142.4819988
   1.1690012 118.8364997 143.4139988   1.8539341 118.4580867 143.0338836
   5.9880012 120.5954997 141.9729988   5.4450012 120.2154997 141.2819988
   6.8210012 120.7894997 141.5449988   6.0263631 120.5697125 141.8204501
   9.3230012 125.1604997 143.9089988   8.5780012 124.6534997 143.5869988
   9.1890012 125.2094997 144.8559988   9.2028776 125.0976940 143.9928647
  13.2210012 117.9744997 142.1079988  12.2820012 118.0864997 141.9569988
  13.5180012 118.8314997 142.4149988  13.1327583 118.1055981 142.1288337
  13.9390012 119.8414997 143.7689988  14.8310012 119.7044997 144.0879988
  13.9960012 120.6324997 143.2319988  14.0686504 119.9296052 143.7400818
  11.4490012 126.6194997 142.9349988  11.1530012 127.4454997 143.3159988
  10.7460012 125.9994997 143.1309988  11.3134914 126.6488199 143.0136443
  18.8240012 120.0514997 143.4639988  18.2700012 119.6554997 142.7919988
  18.9240012 120.9614997 143.1859988  18.7617059 120.1203586 143.3344401
  17.1190012 128.8374997 143.9289988  16.7460012 128.0114997 144.2379988
  17.3970012 128.6544997 143.0309988  17.1055222 128.6997430 143.8499473
   2.5780012 122.8354997 141.6699988   3.1940012 123.4624997 142.0499988
   1.7160012 123.1514997 141.9419988   2.5457698 122.9639430 141.7587183
  14.5120012 126.8134997 141.7489988  14.8650012 126.4334997 142.5529988
  13.5630012 126.7204997 141.8359988  14.4320918 126.7488956 141.8708532
  19.0150012 131.2934997 141.9499988  19.7590012 131.8794997 141.8099988
  18.3210012 131.8614997 142.2829988  19.0229899 131.4505798 141.9758778
  15.3780012 125.4864997 143.9759988  15.1000012 124.7584997 144.5319988
  16.3050012 125.6054997 144.1809988  15.4653124 125.4028802 144.0798845
   8.6030012 127.9254997 140.1959988   8.8420012 127.1774997 139.6489988
   8.3340012 127.5374997 141.0289988   8.5993675 127.7706638 140.2336865
   7.5400012 127.4954997 142.6519988   7.6860012 126.9754997 143.4419988
   7.5370012 128.4024997 142.9589988   7.5595792 127.5468842 142.8016117
   3.9930012 124.7484997 143.1629988   3.3070012 125.1004997 143.7299988
   4.5150012 125.5114997 142.9159988   3.9696852 124.8998578 143.2072118
  10.2770012 129.1934997 143.4019988   9.4610012 129.6904997 143.4539988
  10.8070012 129.6684997 142.7619988  10.2369161 129.3257722 143.3225956
   7.6160012 130.2374997 143.3829988   7.7760012 131.0364997 142.8829988
   7.4180012 130.5434997 144.2679988   7.6111637 130.3884020 143.4341144
   6.3500012 116.9344997 142.9989988   6.2670012 117.8234997 143.3459988
   7.2400012 116.6694997 143.2309988   6.4589469 117.0201430 143.0777626
   4.6090012 127.3624997 142.0599988   5.2010012 128.0614997 142.3359988
   5.0680012 126.9294997 141.3399988   4.7521142 127.3997049 142.0004830
   2.9250012 120.0264997 141.1759988   2.8800012 120.9654997 141.3539988
   2.0370012 119.7904997 140.9059988   2.7988574 120.1231892 141.1638912
  10.6410012 129.7884997 140.3349988   9.9970012 129.1574997 140.6559988
  11.4030012 129.2574997 140.1029988  10.6558077 129.6302920 140.3476011
  15.2450012 129.6054997 140.5679988  15.5280012 128.8114997 141.0209988
  15.9850012 129.8384997 140.0079988  15.3838006 129.5283376 140.5542715
   6.2000012 125.5154997 140.4259988   6.2640012 124.7214997 140.9569988
   6.8530012 125.3964997 139.7359988   6.2970241 125.3907148 140.4054317
  11.5520012 126.5624997 140.1619988  11.2830012 126.7424997 141.0629988
  11.3460012 125.6364997 140.0299988  11.4873427 126.4620261 140.2675073
   7.3490012 123.4874997 142.7319988   6.8890012 123.0034997 143.4179988
   7.6040012 122.8194997 142.0959988   7.3204902 123.3308731 142.7399334
   8.4200012 121.7304997 140.9939988   8.2400012 121.5764997 140.0669988
   9.3700012 121.8384997 141.0389988   8.5237776 121.7240175 140.8731843
  17.8100012 124.0854997 140.4399988  17.5360012 123.6604997 139.6269988
  17.8490012 125.0164997 140.2229988  17.7777699 124.1532484 140.2993610
   8.3170012 132.4214997 141.9949988   9.2500012 132.5794997 142.1389988
   8.0530012 133.0964997 141.3709988   8.4089888 132.5344510 141.9302842
   1.8860012 127.0574997 141.4779988   2.8000012 127.1364997 141.7519988
   1.8930012 126.3704997 140.8119988   2.0121131 126.9753961 141.4254393
  18.9310012 122.9084997 142.6299988  18.4090012 123.2654997 141.9109988
  18.8980012 123.5834997 143.3079988  18.8551634 123.0485413 142.6233145
  17.2800012 120.1484997 141.1799988  17.3760012 120.8154997 140.4999988
  17.1400012 119.3324997 140.6989988  17.2742272 120.1295655 141.0218347
  16.5270012 117.5564997 140.2979988  17.1380012 117.1854997 140.9349988
  15.6910012 117.1354997 140.4939988  16.4975032 117.4487554 140.4117035
  18.6400012 116.4414997 141.8399988  19.0520012 115.7204997 141.3649988
  19.3220012 117.1114997 141.8989988  18.7885885 116.4332368 141.7828915
   2.1970012 114.4894997 142.9459988   2.6360012 115.1004997 142.3539988
   1.5640012 115.0274997 143.4199988   2.1714514 114.6459257 142.9290930
   2.0980012 130.4374997 143.8429988   1.4130012 130.3994997 143.1759988
   2.1020012 131.3504997 144.1319988   2.0046998 130.5556733 143.7906771
   4.0580012 116.4054997 141.3879988   4.5500012 115.7754997 140.8609988
   4.6820012 116.7014997 142.0509988   4.2095688 116.3593804 141.4055482
   9.0840012 116.6984997 143.8449988   9.2620012 116.0524997 144.5279988
   9.0310012 117.5324997 144.3119988   9.1011999 116.7228009 144.0015917
  10.9630012 131.6474997 142.2409988  11.8290012 132.0134997 142.0629988
  10.7160012 131.2074997 141.4269988  11.0482392 131.6381756 142.1066289
   3.9160012 131.3574997 140.8689988   3.6490012 131.6444997 141.7419988
   4.6880012 130.8114997 141.0209988   3.9837488 131.3230294 141.0091050
  30.0700012 121.5494997 141.5919988  30.7710012 121.5714997 142.2429988
  30.3730012 120.9214997 140.9349988  30.2068133 121.4677070 141.5923369
  32.2930012 122.4634997 143.1899988  32.8730012 122.6134997 143.9369988
  32.7070012 122.9344997 142.4659988  32.4282997 122.5476578 143.1944058
  35.9920012 114.2134997 143.0029988  35.0920012 114.3524997 143.2979988
  36.2440012 115.0444997 142.6009988  35.9028702 114.3449074 142.9890205
  37.1810012 128.5794997 141.3789988  37.2550012 129.5184997 141.5499988
  38.0870012 128.2744997 141.3229988  37.3135100 128.6666722 141.3948119
  32.5940012 131.3104997 142.0419988  32.9690012 130.5664997 141.5709988
  32.5980012 131.0404997 142.9609988  32.6459125 131.1720986 142.1016483
  33.7710012 123.4964997 140.8199988  33.8130012 123.2734997 139.8899988
  34.6200012 123.8954997 141.0089988  33.8915280 123.5199438 140.7183554
  29.3430012 117.3724997 141.4899988  29.0900012 117.3914997 142.4129988
  29.0870012 116.5004997 141.1879988  29.2737481 117.2572558 141.5756175
  26.2260012 117.8174997 140.5909988  25.7950012 117.3724997 141.3209988
  25.5080012 118.1894997 140.0789988  26.0699438 117.8068940 140.6216799
  20.7420012 118.3054997 143.0669988  21.2160012 118.8964997 142.4819988
  20.0250012 118.8364997 143.4139988  20.7099341 118.4580867 143.0338836
  24.8440012 120.5954997 141.9729988  24.3010012 120.2154997 141.2819988
  25.6770012 120.7894997 141.5449988  24.8823631 120.5697125 141.8204501
  28.1790012 125.1604997 143.9089988  27.4340012 124.6534997 143.5869988
  28.0450012 125.2094997 144.8559988  28.0588776 125.0976940 143.9928647
  32.0770012 117.9744997 142.1079988  31.1380012 118.0864997 141.9569988
  32.3740012 118.8314997 142.4149988  31.9887583 118.1055981 142.1288337
  32.7950012 119.8414997 143.7689988  33.6870012 119.7044997 144.0879988
  32.8520012 120.6324997 143.2319988  32.9246504 119.9296052 143.7400818
  30.3050012 126.6194997 142.9349988  30.0090012 127.4454997 143.3159988
  29.6020012 125.9994997 143.1309988  30.1694914 126.6488199 143.0136443
  37.6800012 120.0514997 143.4639988  37.1260012 119.6554997 142.7919988
  37.7800012 120.9614997 143.1859988  37.6177059 120.1203586 143.3344401
  35.9750012 128.8374997 143.9289988  35.6020012 128.0114997 144.2379988
  36.2530012 128.6544997 143.0309988  35.9615222 128.6997430 143.8499473
  21.4340012 122.8354997 141.6699988  22.0500012 123.4624997 142.0499988
  20.5720012 123.1514997 141.9419988  21.4017698 122.9639430 141.7587183
  33.3680012 126.8134997 141.7489988  33.7210012 126.4334997 142.5529988
  32.4190012 126.7204997 141.8359988  33.2880918 126.7488956 141.8708532
  37.8710012 131.2934997 141.9499988  38.6150012 131.8794997 141.8099988
  37.1770012 131.8614997 142.2829988  37.8789899 131.4505798 141.9758778
  34.2340012 125.4864997 143.9759988  33.9560012 124.7584997 144.5319988
  35.1610012 125.6054997 144.1809988  34.3213124 125.4028802 144.0798845
  27.4590012 127.9254997 140.1959988  27.6980012 127.1774997 139.6489988
  27.1900012 127.5374997 141.0289988  27.4553675 127.7706638 140.2336865
  26.3960012 127.4954997 142.6519988  26.5420012 126.9754997 143.4419988
  26.3930012 128.4024997 142.9589988  26.4155792 127.5468842 142.8016117
  22.8490012 124.7484997 143.1629988  22.1630012 125.1004997 143.7299988
  23.3710012 125.5114997 142.9159988  22.8256852 124.8998578 143.2072118
  29.1330012 129.1934997 143.4019988  28.3170012 129.6904997 143.4539988
  29.6630012 129.6684997 142.7619988  29.0929161 129.3257722 143.3225956
  26.4720012 130.2374997 143.3829988  26.6320012 131.0364997 142.8829988
  26.2740012 130.5434997 144.2679988  26.4671637 130.3884020 143.4341144
  25.2060012 116.9344997 142.9989988  25.1230012 117.8234997 143.3459988
  26.0960012 116.6694997 143.2309988  25.3149469 117.0201430 143.0777626
  23.4650012 127.3624997 142.0599988  24.0570012 128.0614997 142.3359988
  23.9240012 126.9294997 141.3399988  23.6081142 127.3997049 142.0004830
  21.7810012 120.0264997 141.1759988  21.7360012 120.9654997 141.3539988
  20.8930012 119.7904997 140.9059988  21.6548574 120.1231892 141.1638912
  29.4970012 129.7884997 140.3349988  28.8530012 129.1574997 140.6559988
  30.2590012 129.2574997 140.1029988  29.5118077 129.6302920 140.3476011
  34.1010012 129.6054997 140.5679988  34.3840012 128.8114997 141.0209988
  34.8410012 129.8384997 140.0079988  34.2398006 129.5283376 140.5542715
  25.0560012 125.5154997 140.4259988  25.1200012 124.7214997 140.9569988
  25.7090012 125.3964997 139.7359988  25.1530241 125.3907148 140.4054317
  30.4080012 126.5624997 140.1619988  30.1390012 126.7424997 141.0629988
  30.2020012 125.6364997 140.0299988  30.3433427 126.4620261 140.2675073
  26.2050012 123.4874997 142.7319988  25.7450012 123.0034997 143.4179988
  26.4600012 122.8194997 142.0959988  26.1764902 123.3308731 142.7399334
  27.2760012 121.7304997 140.9939988  27.0960012 121.5764997 140.0669988
  28.2260012 121.8384997 141.0389988  27.3797776 121.7240175 140.8731843
  36.6660012 124.0854997 140.4399988  36.3920012 123.6604997 139.6269988
  36.7050012 125.0164997 140.2229988  36.6337699 124.1532484 140.2993610
  27.1730012 132.4214997 141.9949988  28.1060012 132.5794997 142.1389988
  26.9090012 133.0964997 141.3709988  27.2649888 132.5344510 141.9302842
  20.7420012 127.0574997 141.4779988  21.6560012 127.1364997 141.7519988
  20.7490012 126.3704997 140.8119988  20.8681131 126.9753961 141.4254393
  37.7870012 122.9084997 142.6299988  37.2650012 123.2654997 141.9109988
  37.7540012 123.5834997 143.3079988  37.7111634 123.0485413 142.6233145
  36.1360012 120.1484997 141.1799988  36.2320012 120.8154997 140.4999988
  35.9960012 119.3324997 140.6989988  36.1302272 120.1295655 141.0218347
  35.3830012 117.5564997 140.2979988  35.9940012 117.1854997 140.9349988
  34.5470012 117.1354997 140.4939988  35.3535032 117.4487554 140.4117035
  37.4960012 116.4414997 141.8399988  37.9080012 115.7204997 141.3649988
  38.1780012 117.1114997 141.8989988  37.6445885 116.4332368 141.7828915
  21.0530012 114.4894997 142.9459988  21.4920012 115.1004997 142.3539988
  20.4200012 115.0274997 143.4199988  21.0274514 114.6459257 142.9290930
  20.9540012 130.4374997 143.8429988  20.2690012 130.3994997 143.1759988
  20.9580012 131.3504997 144.1319988  20.8606998 130.5556733 143.7906771
  22.9140012 116.4054997 141.3879988  23.4060012 115.7754997 140.8609988
  23.5380012 116.7014997 142.0509988  23.0655688 116.3593804 141.4055482
  27.9400012 116.6984997 143.8449988  28.1180012 116.0524997 144.5279988
  27.8870012 117.5324997 144.3119988  27.9571999 116.7228009 144.0015917
  29.8190012 131.6474997 142.2409988  30.6850012 132.0134997 142.0629988
  29.5720012 131.2074997 141.4269988  29.9042392 131.6381756 142.1066289
  22.7720012 131.3574997 140.8689988  22.5050012 131.6444997 141.7419988
  23.5440012 130.8114997 141.0209988  22.8397488 131.3230294 141.0091050
  48.9260012 121.5494997 141.5919988  49.6270012 121.5714997 142.2429988
  49.2290012 120.9214997 140.9349988  49.0628133 121.4677070 141.5923369
  51.1490012 122.4634997 143.1899988  51.7290012 122.6134997 143.9369988
  51.5630012 122.9344997 142.4659988  51.2842997 122.5476578 143.1944058
  54.8480012 114.2134997 143.0029988  53.9480012 114.3524997 143.2979988
  55.1000012 115.0444997 142.6009988  54.7588702 114.3449074 142.9890205
  56.0370012 128.5794997 141.3789988  56.1110012 129.5184997 141.5499988
  56.9430012 128.2744997 141.3229988  56.1695100 128.6666722 141.3948119
  51.4500012 131.3104997 142.0419988  51.8250012 130.5664997 141.5709988
  51.4540012 131.0404997 142.9609988  51.5019125 131.1720986 142.1016483
  52.6270012 123.4964997 140.8199988  52.6690012 123.2734997 139.8899988
  53.4760012 123.8954997 141.0089988  52.7475280 123.5199438 140.7183554
  48.1990012 117.3724997 141.4899988  47.9460012 117.3914997 142.4129988
  47.9430012 116.5004997 141.1879988  48.1297481 117.2572558 141.5756175
  45.0820012 117.8174997 140.5909988  44.6510012 117.3724997 141.3209988
  44.3640012 118.1894997 140.0789988  44.9259438 117.8068940 140.6216799
  39.5980012 118.3054997 143.0669988  40.0720012 118.8964997 142.4819988
  38.8810012 118.8364997 143.4139988  39.5659341 118.4580867 143.0338836
  43.7000012 120.5954997 141.9729988  43.1570012 120.2154997 141.2819988
  44.5330012 120.7894997 141.5449988  43.7383631 120.5697125 141.8204501
  47.0350012 125.1604997 143.9089988  46.2900012 124.6534997 143.5869988
  46.9010012 125.2094997 144.8559988  46.9148776 125.0976940 143.9928647
  50.9330012 117.9744997 142.1079988  49.9940012 118.0864997 141.9569988
  51.2300012 118.8314997 142.4149988  50.8447583 118.1055981 142.1288337
  51.6510012 119.8414997 143.7689988  52.5430012 119.7044997 144.0879988
  51.7080012 120.6324997 143.2319988  51.7806504 119.9296052 143.7400818
  49.1610012 126.6194997 142.9349988  48.8650012 127.4454997 143.3159988
  48.4580012 125.9994997 143.1309988  49.0254914 126.6488199 143.0136443
  56.5360012 120.0514997 143.4639988  55.9820012 119.6554997 142.7919988
  56.6360012 120.9614997 143.1859988  56.4737059 120.1203586 143.3344401
  54.8310012 128.8374997 143.9289988  54.4580012 128.0114997 144.2379988
  55.1090012 128.6544997 143.0309988  54.8175222 128.6997430 143.8499473
  40.2900012 122.8354997 141.6699988  40.9060012 123.4624997 142.0499988
  39.4280012 123.1514997 141.9419988  40.2577698 122.9639430 141.7587183
  52.2240012 126.8134997 141.7489988  52.5770012 126.4334997 142.5529988
  51.2750012 126.7204997 141.8359988  52.1440918 126.7488956 141.8708532
  56.7270012 131.2934997 141.9499988  57.4710012 131.8794997 141.8099988
  56.0330012 131.8614997 142.2829988  56.7349899 131.4505798 141.9758778
  53.0900012 125.4864997 143.9759988  52.8120012 124.7584997 144.5319988
  54.0170012 125.6054997 144.1809988  53.1773124 125.4028802 144.0798845
  46.3150012 127.9254997 140.1959988  46.5540012 127.1774997 139.6489988
  46.0460012 127.5374997 141.0289988  46.3113675 127.7706638 140.2336865
  45.2520012 127.4954997 142.6519988  45.3980012 126.9754997 143.4419988
  45.2490012 128.4024997 142.9589988  45.2715792 127.5468842 142.8016117
  41.7050012 124.7484997 143.1629988  41.0190012 125.1004997 143.7299988
  42.2270012 125.5114997 142.9159988  41.6816852 124.8998578 143.2072118
  47.9890012 129.1934997 143.4019988  47.1730012 129.6904997 143.4539988
  48.5190012 129.6684997 142.7619988  47.9489161 129.3257722 143.3225956
  45.3280012 130.2374997 143.3829988  45.4880012 131.0364997 142.8829988
  45.1300012 130.5434997 144.2679988  45.3231637 130.3884020 143.4341144
  44.0620012 116.9344997 142.9989988  43.9790012 117.8234997 143.3459988
  44.9520012 116.6694997 143.2309988  44.1709469 117.0201430 143.0777626
  42.3210012 127.3624997 142.0599988  42.9130012 128.0614997 142.3359988
  42.7800012 126.9294997 141.3399988  42.4641142 127.3997049 142.0004830
  40.6370012 120.0264997 141.1759988  40.5920012 120.9654997 141.3539988
  39.7490012 119.7904997 140.9059988  40.5108574 120.1231892 141.1638912
  48.3530012 129.7884997 140.3349988  47.7090012 129.1574997 140.6559988
  49.1150012 129.2574997 140.1029988  48.3678077 129.6302920 140.3476011
  52.9570012 129.6054997 140.5679988  53.2400012 128.8114997 141.0209988
  53.6970012 129.8384997 140.0079988  53.0958006 129.5283376 140.5542715
  43.9120012 125.5154997 140.4259988  43.9760012 124.7214997 140.9569988
  44.5650012 125.3964997 139.7359988  44.0090241 125.3907148 140.4054317
  49.2640012 126.5624997 140.1619988  48.9950012 126.7424997 141.0629988
  49.0580012 125.6364997 140.0299988  49.1993427 126.4620261 140.2675073
  45.0610012 123.4874997 142.7319988  44.6010012 123.0034997 143.4179988
  45.3160012 122.8194997 142.0959988  45.0324902 123.3308731 142.7399334
  46.1320012 121.7304997 140.9939988  45.9520012 121.5764997 140.0669988
  47.0820012 121.8384997 141.0389988  46.2357776 121.7240175 140.8731843
  55.5220012 124.0854997 140.4399988  55.2480012 123.6604997 139.6269988
  55.5610012 125.0164997 140.2229988  55.4897699 124.1532484 140.2993610
  46.0290012 132.4214997 141.9949988  46.9620012 132.5794997 142.1389988
  45.7650012 133.0964997 141.3709988  46.1209888 132.5344510 141.9302842
  39.5980012 127.0574997 141.4779988  40.5120012 127.1364997 141.7519988
  39.6050012 126.3704997 140.8119988  39.7241131 126.9753961 141.4254393
  56.6430012 122.9084997 142.6299988  56.1210012 123.2654997 141.9109988
  56.6100012 123.5834997 143.3079988  56.5671634 123.0485413 142.6233145
  54.9920012 120.1484997 141.1799988  55.0880012 120.8154997 140.4999988
  54.8520012 119.3324997 140.6989988  54.9862272 120.1295655 141.0218347
  54.2390012 117.5564997 140.2979988  54.8500012 117.1854997 140.9349988
  53.4030012 117.1354997 140.4939988  54.2095032 117.4487554 140.4117035
  56.3520012 116.4414997 141.8399988  56.7640012 115.7204997 141.3649988
  57.0340012 117.1114997 141.8989988  56.5005885 116.4332368 141.7828915
  39.9090012 114.4894997 142.9459988  40.3480012 115.1004997 142.3539988
  39.2760012 115.0274997 143.4199988  39.8834514 114.6459257 142.9290930
  39.8100012 130.4374997 143.8429988  39.1250012 130.3994997 143.1759988
  39.8140012 131.3504997 144.1319988  39.7166998 130.5556733 143.7906771
  41.7700012 116.4054997 141.3879988  42.2620012 115.7754997 140.8609988
  42.3940012 116.7014997 142.0509988  41.9215688 116.3593804 141.4055482
  46.7960012 116.6984997 143.8449988  46.9740012 116.0524997 144.5279988
  46.7430012 117.5324997 144.3119988  46.8131999 116.7228009 144.0015917
  48.6750012 131.6474997 142.2409988  49.5410012 132.0134997 142.0629988
  48.4280012 131.2074997 141.4269988  48.7602392 131.6381756 142.1066289
  41.6280012 131.3574997 140.8689988  41.3610012 131.6444997 141.7419988
  42.4000012 130.8114997 141.0209988  41.6957488 131.3230294 141.0091050
  67.7820012 121.5494997 141.5919988  68.4830012 121.5714997 142.2429988
  68.0850012 120.9214997 140.9349988  67.9188133 121.4677070 141.5923369
  70.0050012 122.4634997 143.1899988  70.5850012 122.6134997 143.9369988
  70.4190012 122.9344997 142.4659988  70.1402997 122.5476578 143.1944058
  73.7040012 114.2134997 143.0029988  72.8040012 114.3524997 143.2979988
  73.9560012 115.0444997 142.6009988  73.6148702 114.3449074 142.9890205
  74.8930012 128.5794997 141.3789988  74.9670012 129.5184997 141.5499988
  75.7990012 128.2744997 141.3229988  75.0255100 128.6666722 141.3948119
  70.3060012 131.3104997 142.0419988  70.6810012 130.5664997 141.5709988
  70.3100012 131.0404997 142.9609988  70.3579125 131.1720986 142.1016483
  71.4830012 123.4964997 140.8199988  71.5250012 123.2734997 139.8899988
  72.3320012 123.8954997 141.0089988  71.6035280 123.5199438 140.7183554
  67.0550012 117.3724997 141.4899988  66.8020012 117.3914997 142.4129988
  66.7990012 116.5004997 141.1879988  66.9857481 117.2572558 141.5756175
  63.9380012 117.8174997 140.5909988  63.5070012 117.3724997 141.3209988
  63.2200012 118.1894997 140.0789988  63.7819438 117.8068940 140.6216799
  58.4540012 118.3054997 143.0669988  58.9280012 118.8964997 142.4819988
  57.7370012 118.8364997 143.4139988  58.4219341 118.4580867 143.0338836
  62.5560012 120.5954997 141.9729988  62.0130012 120.2154997 141.2819988
  63.3890012 120.7894997 141.5449988  62.5943631 120.5697125 141.8204501
  65.8910012 125.1604997 143.9089988  65.1460012 124.6534997 143.5869988
  65.7570012 125.2094997 144.8559988  65.7708776 125.0976940 143.9928647
  69.7890012 117.9744997 142.1079988  68.8500012 118.0864997 141.9569988
  70.0860012 118.8314997 142.4149988  69.7007583 118.1055981 142.1288337
  70.5070012 119.8414997 143.7689988  71.3990012 119.7044997 144.0879988
  70.5640012 120.6324997 143.2319988  70.6366504 119.9296052 143.7400818
  68.0170012 126.6194997 142.9349988  67.7210012 127.4454997 143.3159988
  67.3140012 125.9994997 143.1309988  67.8814914 126.6488199 143.0136443
  75.3920012 120.0514997 143.4639988  74.8380012 119.6554997 142.7919988
  75.4920012 120.9614997 143.1859988  75.3297059 120.1203586 143.3344401
  73.6870012 128.8374997 143.9289988  73.3140012 128.0114997 144.2379988
  73.9650012 128.6544997 143.0309988  73.6735222 128.6997430 143.8499473
  59.1460012 122.8354997 141.6699988  59.7620012 123.4624997 142.0499988
  58.2840012 123.1514997 141.9419988  59.1137698 122.9639430 141.7587183
  71.0800012 126.8134997 141.7489988  71.4330012 126.4334997 142.5529988
  70.1310012 126.7204997 141.8359988  71.0000918 126.7488956 141.8708532
  75.5830012 131.2934997 141.9499988  76.3270012 131.8794997 141.8099988
  74.8890012 131.8614997 142.2829988  75.5909899 131.4505798 141.9758778
  71.9460012 125.4864997 143.9759988  71.6680012 124.7584997 144.5319988
  72.8730012 125.6054997 144.1809988  72.0333124 125.4028802 144.0798845
  65.1710012 127.9254997 140.1959988  65.4100012 127.1774997 139.6489988
  64.9020012 127.5374997 141.0289988  65.1673675 127.7706638 140.2336865
  64.1080012 127.4954997 142.6519988  64.2540012 126.9754997 143.4419988
  64.1050012 128.4024997 142.9589988  64.1275792 127.5468842 142.8016117
  60.5610012 124.7484997 143.1629988  59.8750012 125.1004997 143.7299988
  61.0830012 125.5114997 142.9159988  60.5376852 124.8998578 143.2072118
  66.8450012 129.1934997 143.4019988  66.0290012 129.6904997 143.4539988
  67.3750012 129.6684997 142.7619988  66.8049161 129.3257722 143.3225956
  64.1840012 130.2374997 143.3829988  64.3440012 131.0364997 142.8829988
  63.9860012 130.5434997 144.2679988  64.1791637 130.3884020 143.4341144
  62.9180012 116.9344997 142.9989988  62.8350012 117.8234997 143.3459988
  63.8080012 116.6694997 143.2309988  63.0269469 117.0201430 143.0777626
  61.1770012 127.3624997 142.0599988  61.7690012 128.0614997 142.3359988
  61.6360012 126.9294997 141.3399988  61.3201142 127.3997049 142.0004830
  59.4930012 120.0264997 141.1759988  59.4480012 120.9654997 141.3539988
  58.6050012 119.7904997 140.9059988  59.3668574 120.1231892 141.1638912
  67.2090012 129.7884997 140.3349988  66.5650012 129.1574997 140.6559988
  67.9710012 129.2574997 140.1029988  67.2238077 129.6302920 140.3476011
  71.8130012 129.6054997 140.5679988  72.0960012 128.8114997 141.0209988
  72.5530012 129.8384997 140.0079988  71.9518006 129.5283376 140.5542715
  62.7680012 125.5154997 140.4259988  62.8320012 124.7214997 140.9569988
  63.4210012 125.3964997 139.7359988  62.8650241 125.3907148 140.4054317
  68.1200012 126.5624997 140.1619988  67.8510012 126.7424997 141.0629988
  67.9140012 125.6364997 140.0299988  68.0553427 126.4620261 140.2675073
  63.9170012 123.4874997 142.7319988  63.4570012 123.0034997 143.4179988
  64.1720012 122.8194997 142.0959988  63.8884902 123.3308731 142.7399334
  64.9880012 121.7304997 140.9939988  64.8080012 121.5764997 140.0669988
  65.9380012 121.8384997 141.0389988  65.0917776 121.7240175 140.8731843
  74.3780012 124.0854997 140.4399988  74.1040012 123.6604997 139.6269988
  74.4170012 125.0164997 140.2229988  74.3457699 124.1532484 140.2993610
  64.8850012 132.4214997 141.9949988  65.8180012 132.5794997 142.1389988
  64.6210012 133.0964997 141.3709988  64.9769888 132.5344510 141.9302842
  58.4540012 127.0574997 141.4779988  59.3680012 127.1364997 141.7519988
  58.4610012 126.3704997 140.8119988  58.5801131 126.9753961 141.4254393
  75.4990012 122.9084997 142.6299988  74.9770012 123.2654997 141.9109988
  75.4660012 123.5834997 143.3079988  75.4231634 123.0485413 142.6233145
  73.8480012 120.1484997 141.1799988  73.9440012 120.8154997 140.4999988
  73.7080012 119.3324997 140.6989988  73.8422272 120.1295655 141.0218347
  73.0950012 117.5564997 140.2979988  73.7060012 117.1854997 140.9349988
  72.2590012 117.1354997 140.4939988  73.0655032 117.4487554 140.4117035
  75.2080012 116.4414997 141.8399988  75.6200012 115.7204997 141.3649988
  75.8900012 117.1114997 141.8989988  75.3565885 116.4332368 141.7828915
  58.7650012 114.4894997 142.9459988  59.2040012 115.1004997 142.3539988
  58.1320012 115.0274997 143.4199988  58.7394514 114.6459257 142.9290930
  58.6660012 130.4374997 143.8429988  57.9810012 130.3994997 143.1759988
  58.6700012 131.3504997 144.1319988  58.5726998 130.5556733 143.7906771
  60.6260012 116.4054997 141.3879988  61.1180012 115.7754997 140.8609988
  61.2500012 116.7014997 142.0509988  60.7775688 116.3593804 141.4055482
  65.6520012 116.6984997 143.8449988  65.8300012 116.0524997 144.5279988
  65.5990012 117.5324997 144.3119988  65.6691999 116.7228009 144.0015917
  67.5310012 131.6474997 142.2409988  68.3970012 132.0134997 142.0629988
  67.2840012 131.2074997 141.4269988  67.6162392 131.6381756 142.1066289
  60.4840012 131.3574997 140.8689988  60.2170012 131.6444997 141.7419988
  61.2560012 130.8114997 141.0209988  60.5517488 131.3230294 141.0091050
  86.6380012 121.5494997 141.5919988  87.3390012 121.5714997 142.2429988
  86.9410012 120.9214997 140.9349988  86.7748133 121.4677070 141.5923369
  88.8610012 122.4634997 143.1899988  89.4410012 122.6134997 143.9369988
  89.2750012 122.9344997 142.4659988  88.9962997 122.5476578 143.1944058
  92.5600012 114.2134997 143.0029988  91.6600012 114.3524997 143.2979988
  92.8120012 115.0444997 142.6009988  92.4708702 114.3449074 142.9890205
  93.7490012 128.5794997 141.3789988  93.8230012 129.5184997 141.5499988
  94.6550012 128.2744997 141.3229988  93.8815100 128.6666722 141.3948119
  89.1620012 131.3104997 142.0419988  89.5370012 130.5664997 141.5709988
  89.1660012 131.0404997 142.9609988  89.2139125 131.1720986 142.1016483
  90.3390012 123.4964997 140.8199988  90.3810012 123.2734997 139.8899988
  91.1880012 123.8954997 141.0089988  90.4595280 123.5199438 140.7183554
  85.9110012 117.3724997 141.4899988  85.6580012 117.3914997 142.4129988
  85.6550012 116.5004997 141.1879988  85.8417481 117.2572558 141.5756175
  82.7940012 117.8174997 140.5909988  82.3630012 117.3724997 141.3209988
  82.0760012 118.1894997 140.0789988  82.6379438 117.8068940 140.6216799
  77.3100012 118.3054997 143.0669988  77.7840012 118.8964997 142.4819988
  76.5930012 118.8364997 143.4139988  77.2779341 118.4580867 143.0338836
  81.4120012 120.5954997 141.9729988  80.8690012 120.2154997 141.2819988
  82.2450012 120.7894997 141.5449988  81.4503631 120.5697125 141.8204501
  84.7470012 125.1604997 143.9089988  84.0020012 124.6534997 143.5869988
  84.6130012 125.2094997 144.8559988  84.6268776 125.0976940 143.9928647
  88.6450012 117.9744997 142.1079988  87.7060012 118.0864997 141.9569988
  88.9420012 118.8314997 142.4149988  88.5567583 118.1055981 142.1288337
  89.3630012 119.8414997 143.7689988  90.2550012 119.7044997 144.0879988
  89.4200012 120.6324997 143.2319988  89.4926504 119.9296052 143.7400818
  86.8730012 126.6194997 142.9349988  86.5770012 127.4454997 143.3159988
  86.1700012 125.9994997 143.1309988  86.7374914 126.6488199 143.0136443
  94.2480012 120.0514997 143.4639988  93.6940012 119.6554997 142.7919988
  94.3480012 120.9614997 143.1859988  94.1857059 120.1203586 143.3344401
  92.5430012 128.8374997 143.9289988  92.1700012 128.0114997 144.2379988
  92.8210012 128.6544997 143.0309988  92.5295222 128.6997430 143.8499473
  78.0020012 122.8354997 141.6699988  78.6180012 123.4624997 142.0499988
  77.1400012 123.1514997 141.9419988  77.9697698 122.9639430 141.7587183
  89.9360012 126.8134997 141.7489988  90.2890012 126.4334997 142.5529988
  88.9870012 126.7204997 141.8359988  89.8560918 126.7488956 141.8708532
  94.4390012 131.2934997 141.9499988  95.1830012 131.8794997 141.8099988
  93.7450012 131.8614997 142.2829988  94.4469899 131.4505798 141.9758778
  90.8020012 125.4864997 143.9759988  90.5240012 124.7584997 144.5319988
  91.7290012 125.6054997 144.1809988  90.8893124 125.4028802 144.0798845
  84.0270012 127.9254997 140.1959988  84.2660012 127.1774997 139.6489988
  83.7580012 127.5374997 141.0289988  84.0233675 127.7706638 140.2336865
  82.9640012 127.4954997 142.6519988  83.1100012 126.9754997 143.4419988
  82.9610012 128.4024997 142.9589988  82.9835792 127.5468842 142.8016117
  79.4170012 124.7484997 143.1629988  78.7310012 125.1004997 143.7299988
  79.9390012 125.5114997 142.9159988  79.3936852 124.8998578 143.2072118
  85.7010012 129.1934997 143.4019988  84.8850012 129.6904997 143.4539988
  86.2310012 129.6684997 142.7619988  85.6609161 129.3257722 143.3225956
  83.0400012 130.2374997 143.3829988  83.2000012 131.0364997 142.8829988
  82.8420012 130.5434997 144.2679988  83.0351637 130.3884020 143.4341144
  81.7740012 116.9344997 142.9989988  81.6910012 117.8234997 143.3459988
  82.6640012 116.6694997 143.2309988  81.8829469 117.0201430 143.0777626
  80.0330012 127.3624997 142.0599988  80.6250012 128.0614997 142.3359988
  80.4920012 126.9294997 141.3399988  80.1761142 127.3997049 142.0004830
  78.3490012 120.0264997 141.1759988  78.3040012 120.9654997 141.3539988
  77.4610012 119.7904997 140.9059988  78.2228574 120.1231892 141.1638912
  86.0650012 129.7884997 140.3349988  85.4210012 129.1574997 140.6559988
  86.8270012 129.2574997 140.1029988  86.0798077 129.6302920 140.3476011
  90.6690012 129.6054997 140.5679988  90.9520012 128.8114997 141.0209988
  91.4090012 129.8384997 140.0079988  90.8078006 129.5283376 140.5542715
  81.6240012 125.5154997 140.4259988  81.6880012 124.7214997 140.9569988
  82.2770012 125.3964997 139.7359988  81.7210241 125.3907148 140.4054317
  86.9760012 126.5624997 140.1619988  86.7070012 126.7424997 141.0629988
  86.7700012 125.6364997 140.0299988  86.9113427 126.4620261 140.2675073
  82.7730012 123.4874997 142.7319988  82.3130012 123.0034997 143.4179988
  83.0280012 122.8194997 142.0959988  82.7444902 123.3308731 142.7399334
  83.8440012 121.7304997 140.9939988  83.6640012 121.5764997 140.0669988
  84.7940012 121.8384997 141.0389988  83.9477776 121.7240175 140.8731843
  93.2340012 124.0854997 140.4399988  92.9600012 123.6604997 139.6269988
  93.2730012 125.0164997 140.2229988  93.2017699 124.1532484 140.2993610
  83.7410012 132.4214997 141.9949988  84.6740012 132.5794997 142.1389988
  83.4770012 133.0964997 141.3709988  83.8329888 132.5344510 141.9302842
  77.3100012 127.0574997 141.4779988  78.2240012 127.1364997 141.7519988
  77.3170012 126.3704997 140.8119988  77.4361131 126.9753961 141.4254393
  94.3550012 122.9084997 142.6299988  93.8330012 123.2654997 141.9109988
  94.3220012 123.5834997 143.3079988  94.2791634 123.0485413 142.6233145
  92.7040012 120.1484997 141.1799988  92.8000012 120.8154997 140.4999988
  92.5640012 119.3324997 140.6989988  92.6982272 120.1295655 141.0218347
  91.9510012 117.5564997 140.2979988  92.5620012 117.1854997 140.9349988
  91.1150012 117.1354997 140.4939988  91.9215032 117.4487554 140.4117035
  94.0640012 116.4414997 141.8399988  94.4760012 115.7204997 141.3649988
  94.7460012 117.1114997 141.8989988  94.2125885 116.4332368 141.7828915
  77.6210012 114.4894997 142.9459988  78.0600012 115.1004997 142.3539988
  76.9880012 115.0274997 143.4199988  77.5954514 114.6459257 142.9290930
  77.5220012 130.4374997 143.8429988  76.8370012 130.3994997 143.1759988
  77.5260012 131.3504997 144.1319988  77.4286998 130.5556733 143.7906771
  79.4820012 116.4054997 141.3879988  79.9740012 115.7754997 140.8609988
  80.1060012 116.7014997 142.0509988  79.6335688 116.3593804 141.4055482
  84.5080012 116.6984997 143.8449988  84.6860012 116.0524997 144.5279988
  84.4550012 117.5324997 144.3119988  84.5251999 116.7228009 144.0015917
  86.3870012 131.6474997 142.2409988  87.2530012 132.0134997 142.0629988
  86.1400012 131.2074997 141.4269988  86.4722392 131.6381756 142.1066289
  79.3400012 131.3574997 140.8689988  79.0730012 131.6444997 141.7419988
  80.1120012 130.8114997 141.0209988  79.4077488 131.3230294 141.0091050
 105.4940012 121.5494997 141.5919988 106.1950012 121.5714997 142.2429988
 105.7970012 120.9214997 140.9349988 105.6308133 121.4677070 141.5923369
 107.7170012 122.4634997 143.1899988 108.2970012 122.6134997 143.9369988
 108.1310012 122.9344997 142.4659988 107.8522997 122.5476578 143.1944058
 111.4160012 114.2134997 143.0029988 110.5160012 114.3524997 143.2979988
 111.6680012 115.0444997 142.6009988 111.3268702 114.3449074 142.9890205
 112.6050012 128.5794997 141.3789988 112.6790012 129.5184997 141.5499988
 113.5110012 128.2744997 141.3229988 112.7375100 128.6666722 141.3948119
 108.0180012 131.3104997 142.0419988 108.3930012 130.5664997 141.5709988
 108.0220012 131.0404997 142.9609988 108.0699125 131.1720986 142.1016483
 109.1950012 123.4964997 140.8199988 109.2370012 123.2734997 139.8899988
 110.0440012 123.8954997 141.0089988 109.3155280 123.5199438 140.7183554
 104.7670012 117.3724997 141.4899988 104.5140012 117.3914997 142.4129988
 104.5110012 116.5004997 141.1879988 104.6977481 117.2572558 141.5756175
 101.6500012 117.8174997 140.5909988 101.2190012 117.3724997 141.3209988
 100.9320012 118.1894997 140.0789988 101.4939438 117.8068940 140.6216799
  96.1660012 118.3054997 143.0669988  96.6400012 118.8964997 142.4819988
  95.4490012 118.8364997 143.4139988  96.1339341 118.4580867 143.0338836
 100.2680012 120.5954997 141.9729988  99.7250012 120.2154997 141.2819988
 101.1010012 120.7894997 141.5449988 100.3063631 120.5697125 141.8204501
 103.6030012 125.1604997 143.9089988 102.8580012 124.6534997 143.5869988
 103.4690012 125.2094997 144.8559988 103.4828776 125.0976940 143.9928647
 107.5010012 117.9744997 142.1079988 106.5620012 118.0864997 141.9569988
 107.7980012 118.8314997 142.4149988 107.4127583 118.1055981 142.1288337
 108.2190012 119.8414997 143.7689988 109.1110012 119.7044997 144.0879988
 108.2760012 120.6324997 143.2319988 108.3486504 119.9296052 143.7400818
 105.7290012 126.6194997 142.9349988 105.4330012 127.4454997 143.3159988
 105.0260012 125.9994997 143.1309988 105.5934914 126.6488199 143.0136443
 113.1040012 120.0514997 143.4639988 112.5500012 119.6554997 142.7919988
 113.2040012 120.9614997 143.1859988 113.0417059 120.1203586 143.3344401
 111.3990012 128.8374997 143.9289988 111.0260012 128.0114997 144.2379988
 111.6770012 128.6544997 143.0309988 111.3855222 128.6997430 143.8499473
  96.8580012 122.8354997 141.6699988  97.4740012 123.4624997 142.0499988
  95.9960012 123.1514997 141.9419988  96.8257698 122.9639430 141.7587183
 108.7920012 126.8134997 141.7489988 109.1450012 126.4334997 142.5529988
 107.8430012 126.7204997 141.8359988 108.7120918 126.7488956 141.8708532
 113.2950012 131.2934997 141.9499988 114.0390012 131.8794997 141.8099988
 112.6010012 131.8614997 142.2829988 113.3029899 131.4505798 141.9758778
 109.6580012 125.4864997 143.9759988 109.3800012 124.7584997 144.5319988
 110.5850012 125.6054997 144.1809988 109.7453124 125.4028802 144.0798845
 102.8830012 127.9254997 140.1959988 103.1220012 127.1774997 139.6489988
 102.6140012 127.5374997 141.0289988 102.8793675 127.7706638 140.2336865
 101.8200012 127.4954997 142.6519988 101.9660012 126.9754997 143.4419988
 101.8170012 128.4024997 142.9589988 101.8395792 127.5468842 142.8016117
  98.2730012 124.7484997 143.1629988  97.5870012 125.1004997 143.7299988
  98.7950012 125.5114997 142.9159988  98.2496852 124.8998578 143.2072118
 104.5570012 129.1934997 143.4019988 103.7410012 129.6904997 143.4539988
 105.0870012 129.6684997 142.7619988 104.5169161 129.3257722 143.3225956
 101.8960012 130.2374997 143.3829988 102.0560012 131.0364997 142.8829988
 101.6980012 130.5434997 144.2679988 101.8911637 130.3884020 143.4341144
 100.6300012 116.9344997 142.9989988 100.5470012 117.8234997 143.3459988
 101.5200012 116.6694997 143.2309988 100.7389469 117.0201430 143.0777626
  98.8890012 127.3624997 142.0599988  99.4810012 128.0614997 142.3359988
  99.3480012 126.9294997 141.3399988  99.0321142 127.3997049 142.0004830
  97.2050012 120.0264997 141.1759988  97.1600012 120.9654997 141.3539988
  96.3170012 119.7904997 140.9059988  97.0788574 120.1231892 141.1638912
 104.9210012 129.7884997 140.3349988 104.2770012 129.1574997 140.6559988
 105.6830012 129.2574997 140.1029988 104.9358077 129.6302920 140.3476011
 109.5250012 129.6054997 140.5679988 109.8080012 128.8114997 141.0209988
 110.2650012 129.8384997 140.0079988 109.6638006 129.5283376 140.5542715
 100.4800012 125.5154997 140.4259988 100.5440012 124.7214997 140.9569988
 101.1330012 125.3964997 139.7359988 100.5770241 125.3907148 140.4054317
 105.8320012 126.5624997 140.1619988 105.5630012 126.7424997 141.0629988
 105.6260012 125.6364997 140.0299988 105.7673427 126.4620261 140.2675073
 101.6290012 123.4874997 142.7319988 101.1690012 123.0034997 143.4179988
 101.8840012 122.8194997 142.0959988 101.6004902 123.3308731 142.7399334
 102.7000012 121.7304997 140.9939988 102.5200012 121.5764997 140.0669988
 103.6500012 121.8384997 141.0389988 102.8037776 121.7240175 140.8731843
 112.0900012 124.0854997 140.4399988 111.8160012 123.6604997 139.6269988
 112.1290012 125.0164997 140.2229988 112.0577699 124.1532484 140.2993610
 102.5970012 132.4214997 141.9949988 103.5300012 132.5794997 142.1389988
 102.3330012 133.0964997 141.3709988 102.6889888 132.5344510 141.9302842
  96.1660012 127.0574997 141.4779988  97.0800012 127.1364997 141.7519988
  96.1730012 126.3704997 140.8119988  96.2921131 126.9753961 141.4254393
 113.2110012 122.9084997 142.6299988 112.6890012 123.2654997 141.9109988
 113.1780012 123.5834997 143.3079988 113.1351634 123.0485413 142.6233145
 111.5600012 120.1484997 141.1799988 111.6560012 120.8154997 140.4999988
 111.4200012 119.3324997 140.6989988 111.5542272 120.1295655 141.0218347
 110.8070012 117.5564997 140.2979988 111.4180012 117.1854997 140.9349988
 109.9710012 117.1354997 140.4939988 110.7775032 117.4487554 140.4117035
 112.9200012 116.4414997 141.8399988 113.3320012 115.7204997 141.3649988
 113.6020012 117.1114997 141.8989988 113.0685885 116.4332368 141.7828915
  96.4770012 114.4894997 142.9459988  96.9160012 115.1004997 142.3539988
  95.8440012 115.0274997 143.4199988  96.4514514 114.6459257 142.9290930
  96.3780012 130.4374997 143.8429988  95.6930012 130.3994997 143.1759988
  96.3820012 131.3504997 144.1319988  96.2846998 130.5556733 143.7906771
  98.3380012 116.4054997 141.3879988  98.8300012 115.7754997 140.8609988
  98.9620012 116.7014997 142.0509988  98.4895688 116.3593804 141.4055482
 103.3640012 116.6984997 143.8449988 103.5420012 116.0524997 144.5279988
 103.3110012 117.5324997 144.3119988 103.3811999 116.7228009 144.0015917
 105.2430012 131.6474997 142.2409988 106.1090012 132.0134997 142.0629988
 104.9960012 131.2074997 141.4269988 105.3282392 131.6381756 142.1066289
  98.1960012 131.3574997 140.8689988  97.9290012 131.6444997 141.7419988
  98.9680012 130.8114997 141.0209988  98.2637488 131.3230294 141.0091050
 124.3500012 121.5494997 141.5919988 125.0510012 121.5714997 142.2429988
 124.6530012 120.9214997 140.9349988 124.4868133 121.4677070 141.5923369
 126.5730012 122.4634997 143.1899988 127.1530012 122.6134997 143.9369988
 126.9870012 122.9344997 142.4659988 126.7082997 122.5476578 143.1944058
 130.2720012 114.2134997 143.0029988 129.3720012 114.3524997 143.2979988
 130.5240012 115.0444997 142.6009988 130.1828702 114.3449074 142.9890205
 131.4610012 128.5794997 141.3789988 131.5350012 129.5184997 141.5499988
 132.3670012 128.2744997 141.3229988 131.5935100 128.6666722 141.3948119
 126.8740012 131.3104997 142.0419988 127.2490012 130.5664997 141.5709988
 126.8780012 131.0404997 142.9609988 126.9259125 131.1720986 142.1016483
 128.0510012 123.4964997 140.8199988 128.0930012 123.2734997 139.8899988
 128.9000012 123.8954997 141.0089988 128.1715280 123.5199438 140.7183554
 123.6230012 117.3724997 141.4899988 123.3700012 117.3914997 142.4129988
 123.3670012 116.5004997 141.1879988 123.5537481 117.2572558 141.5756175
 120.5060012 117.8174997 140.5909988 120.0750012 117.3724997 141.3209988
 119.7880012 118.1894997 140.0789988 120.3499438 117.8068940 140.6216799
 115.0220012 118.3054997 143.0669988 115.4960012 118.8964997 142.4819988
 114.3050012 118.8364997 143.4139988 114.9899341 118.4580867 143.0338836
 119.1240012 120.5954997 141.9729988 118.5810012 120.2154997 141.2819988
 119.9570012 120.7894997 141.5449988 119.1623631 120.5697125 141.8204501
 122.4590012 125.1604997 143.9089988 121.7140012 124.6534997 143.5869988
 122.3250012 125.2094997 144.8559988 122.3388776 125.0976940 143.9928647
 126.3570012 117.9744997 142.1079988 125.4180012 118.0864997 141.9569988
 126.6540012 118.8314997 142.4149988 126.2687583 118.1055981 142.1288337
 127.0750012 119.8414997 143.7689988 127.9670012 119.7044997 144.0879988
 127.1320012 120.6324997 143.2319988 127.2046504 119.9296052 143.7400818
 124.5850012 126.6194997 142.9349988 124.2890012 127.4454997 143.3159988
 123.8820012 125.9994997 143.1309988 124.4494914 126.6488199 143.0136443
 131.9600012 120.0514997 143.4639988 131.4060012 119.6554997 142.7919988
 132.0600012 120.9614997 143.1859988 131.8977059 120.1203586 143.3344401
 130.2550012 128.8374997 143.9289988 129.8820012 128.0114997 144.2379988
 130.5330012 128.6544997 143.0309988 130.2415222 128.6997430 143.8499473
 115.7140012 122.8354997 141.6699988 116.3300012 123.4624997 142.0499988
 114.8520012 123.1514997 141.9419988 115.6817698 122.9639430 141.7587183
 127.6480012 126.8134997 141.7489988 128.0010012 126.4334997 142.5529988
 126.6990012 126.7204997 141.8359988 127.5680918 126.7488956 141.8708532
 132.1510012 131.2934997 141.9499988 132.8950012 131.8794997 141.8099988
 131.4570012 131.8614997 142.2829988 132.1589899 131.4505798 141.9758778
 128.5140012 125.4864997 143.9759988 128.2360012 124.7584997 144.5319988
 129.4410012 125.6054997 144.1809988 128.6013124 125.4028802 144.0798845
 121.7390012 127.9254997 140.1959988 121.9780012 127.1774997 139.6489988
 121.4700012 127.5374997 141.0289988 121.7353675 127.7706638 140.2336865
 120.6760012 127.4954997 142.6519988 120.8220012 126.9754997 143.4419988
 120.6730012 128.4024997 142.9589988 120.6955792 127.5468842 142.8016117
 117.1290012 124.7484997 143.1629988 116.4430012 125.1004997 143.7299988
 117.6510012 125.5114997 142.9159988 117.1056852 124.8998578 143.2072118
 123.4130012 129.1934997 143.4019988 122.5970012 129.6904997 143.4539988
 123.9430012 129.6684997 142.7619988 123.3729161 129.3257722 143.3225956
 120.7520012 130.2374997 143.3829988 120.9120012 131.0364997 142.8829988
 120.5540012 130.5434997 144.2679988 120.7471637 130.3884020 143.4341144
 119.4860012 116.9344997 142.9989988 119.4030012 117.8234997 143.3459988
 120.3760012 116.6694997 143.2309988 119.5949469 117.0201430 143.0777626
 117.7450012 127.3624997 142.0599988 118.3370012 128.0614997 142.3359988
 118.2040012 126.9294997 141.3399988 117.8881142 127.3997049 142.0004830
 116.0610012 120.0264997 141.1759988 116.0160012 120.9654997 141.3539988
 115.1730012 119.7904997 140.9059988 115.9348574 120.1231892 141.1638912
 123.7770012 129.7884997 140.3349988 123.1330012 129.1574997 140.6559988
 124.5390012 129.2574997 140.1029988 123.7918077 129.6302920 140.3476011
 128.3810012 129.6054997 140.5679988 128.6640012 128.8114997 141.0209988
 129.1210012 129.8384997 140.0079988 128.5198006 129.5283376 140.5542715
 119.3360012 125.5154997 140.4259988 119.4000012 124.7214997 140.9569988
 119.9890012 125.3964997 139.7359988 119.4330241 125.3907148 140.4054317
 124.6880012 126.5624997 140.1619988 124.4190012 126.7424997 141.0629988
 124.4820012 125.6364997 140.0299988 124.6233427 126.4620261 140.2675073
 120.4850012 123.4874997 142.7319988 120.0250012 123.0034997 143.4179988
 120.7400012 122.8194997 142.0959988 120.4564902 123.3308731 142.7399334
 121.5560012 121.7304997 140.9939988 121.3760012 121.5764997 140.0669988
 122.5060012 121.8384997 141.0389988 121.6597776 121.7240175 140.8731843
 130.9460012 124.0854997 140.4399988 130.6720012 123.6604997 139.6269988
 130.9850012 125.0164997 140.2229988 130.9137699 124.1532484 140.2993610
 121.4530012 132.4214997 141.9949988 122.3860012 132.5794997 142.1389988
 121.1890012 133.0964997 141.3709988 121.5449888 132.5344510 141.9302842
 115.0220012 127.0574997 141.4779988 115.9360012 127.1364997 141.7519988
 115.0290012 126.3704997 140.8119988 115.1481131 126.9753961 141.4254393
 132.0670012 122.9084997 142.6299988 131.5450012 123.2654997 141.9109988
 132.0340012 123.5834997 143.3079988 131.9911634 123.0485413 142.6233145
 130.4160012 120.1484997 141.1799988 130.5120012 120.8154997 140.4999988
 130.2760012 119.3324997 140.6989988 130.4102272 120.1295655 141.0218347
 129.6630012 117.5564997 140.2979988 130.2740012 117.1854997 140.9349988
 128.8270012 117.1354997 140.4939988 129.6335032 117.4487554 140.4117035
 131.7760012 116.4414997 141.8399988 132.1880012 115.7204997 141.3649988
 132.4580012 117.1114997 141.8989988 131.9245885 116.4332368 141.7828915
 115.3330012 114.4894997 142.9459988 115.7720012 115.1004997 142.3539988
 114.7000012 115.0274997 143.4199988 115.3074514 114.6459257 142.9290930
 115.2340012 130.4374997 143.8429988 114.5490012 130.3994997 143.1759988
 115.2380012 131.3504997 144.1319988 115.1406998 130.5556733 143.7906771
 117.1940012 116.4054997 141.3879988 117.6860012 115.7754997 140.8609988
 117.8180012 116.7014997 142.0509988 117.3455688 116.3593804 141.4055482
 122.2200012 116.6984997 143.8449988 122.3980012 116.0524997 144.5279988
 122.1670012 117.5324997 144.3119988 122.2371999 116.7228009 144.0015917
 124.0990012 131.6474997 142.2409988 124.9650012 132.0134997 142.0629988
 123.8520012 131.2074997 141.4269988 124.1842392 131.6381756 142.1066289
 117.0520012 131.3574997 140.8689988 116.7850012 131.6444997 141.7419988
 117.8240012 130.8114997 141.0209988 117.1197488 131.3230294 141.0091050
 143.2060012 121.5494997 141.5919988 143.9070012 121.5714997 142.2429988
 143.5090012 120.9214997 140.9349988 143.3428133 121.4677070 141.5923369
 142.4790012 117.3724997 141.4899988 142.2260012 117.3914997 142.4129988
 142.2230012 116.5004997 141.1879988 142.4097481 117.2572558 141.5756175
 139.3620012 117.8174997 140.5909988 138.9310012 117.3724997 141.3209988
 138.6440012 118.1894997 140.0789988 139.2059438 117.8068940 140.6216799
 133.8780012 118.3054997 143.0669988 134.3520012 118.8964997 142.4819988
 133.1610012 118.8364997 143.4139988 133.8459341 118.4580867 143.0338836
 137.9800012 120.5954997 141.9729988 137.4370012 120.2154997 141.2819988
 138.8130012 120.7894997 141.5449988 138.0183631 120.5697125 141.8204501
 141.3150012 125.1604997 143.9089988 140.5700012 124.6534997 143.5869988
 141.1810012 125.2094997 144.8559988 141.1948776 125.0976940 143.9928647
 143.4410012 126.6194997 142.9349988 143.1450012 127.4454997 143.3159988
 142.7380012 125.9994997 143.1309988 143.3054914 126.6488199 143.0136443
 134.5700012 122.8354997 141.6699988 135.1860012 123.4624997 142.0499988
 133.7080012 123.1514997 141.9419988 134.5377698 122.9639430 141.7587183
 140.5950012 127.9254997 140.1959988 140.8340012 127.1774997 139.6489988
 140.3260012 127.5374997 141.0289988 140.5913675 127.7706638 140.2336865
 139.5320012 127.4954997 142.6519988 139.6780012 126.9754997 143.4419988
 139.5290012 128.4024997 142.9589988 139.5515792 127.5468842 142.8016117
 135.9850012 124.7484997 143.1629988 135.2990012 125.1004997 143.7299988
 136.5070012 125.5114997 142.9159988 135.9616852 124.8998578 143.2072118
 142.2690012 129.1934997 143.4019988 141.4530012 129.6904997 143.4539988
 142.7990012 129.6684997 142.7619988 142.2289161 129.3257722 143.3225956
 139.6080012 130.2374997 143.3829988 139.7680012 131.0364997 142.8829988
 139.4100012 130.5434997 144.2679988 139.6031637 130.3884020 143.4341144
 138.3420012 116.9344997 142.9989988 138.2590012 117.8234997 143.3459988
 139.2320012 116.6694997 143.2309988 138.4509469 117.0201430 143.0777626
 136.6010012 127.3624997 142.0599988 137.1930012 128.0614997 142.3359988
 137.0600012 126.9294997 141.3399988 136.7441142 127.3997049 142.0004830
 134.9170012 120.0264997 141.1759988 134.8720012 120.9654997 141.3539988
 134.0290012 119.7904997 140.9059988 134.7908574 120.1231892 141.1638912
 142.6330012 129.7884997 140.3349988 141.9890012 129.1574997 140.6559988
 143.3950012 129.2574997 140.1029988 142.6478077 129.6302920 140.3476011
 138.1920012 125.5154997 140.4259988 138.2560012 124.7214997 140.9569988
 138.8450012 125.3964997 139.7359988 138.2890241 125.3907148 140.4054317
 143.5440012 126.5624997 140.1619988 143.2750012 126.7424997 141.0629988
 143.3380012 125.6364997 140.0299988 143.4793427 126.4620261 140.2675073
 139.3410012 123.4874997 142.7319988 138.8810012 123.0034997 143.4179988
 139.5960012 122.8194997 142.0959988 139.3124902 123.3308731 142.7399334
 140.4120012 121.7304997 140.9939988 140.2320012 121.5764997 140.0669988
 141.3620012 121.8384997 141.0389988 140.5157776 121.7240175 140.8731843
 140.3090012 132.4214997 141.9949988 141.2420012 132.5794997 142.1389988
 140.0450012 133.0964997 141.3709988 140.4009888 132.5344510 141.9302842
 133.8780012 127.0574997 141.4779988 134.7920012 127.1364997 141.7519988
 133.8850012 126.3704997 140.8119988 134.0041131 126.9753961 141.4254393
 134.1890012 114.4894997 142.9459988 134.6280012 115.1004997 142.3539988
 133.5560012 115.0274997 143.4199988 134.1634514 114.6459257 142.9290930
 134.0900012 130.4374997 143.8429988 133.4050012 130.3994997 143.1759988
 134.0940012 131.3504997 144.1319988 133.9966998 130.5556733 143.7906771
 136.0500012 116.4054997 141.3879988 136.5420012 115.7754997 140.8609988
 136.6740012 116.7014997 142.0509988 136.2015688 116.3593804 141.4055482
 141.0760012 116.6984997 143.8449988 141.2540012 116.0524997 144.5279988
 141.0230012 117.5324997 144.3119988 141.0931999 116.7228009 144.0015917
 142.9550012 131.6474997 142.2409988 143.8210012 132.0134997 142.0629988
 142.7080012 131.2074997 141.4269988 143.0402392 131.6381756 142.1066289
 135.9080012 131.3574997 140.8689988 135.6410012 131.6444997 141.7419988
 136.6800012 130.8114997 141.0209988 135.9757488 131.3230294 141.0091050
  11.2140012 140.4054997 141.5919988  11.9150012 140.4274997 142.2429988
  11.5170012 139.7774997 140.9349988  11.3508133 140.3237070 141.5923369
  13.4370012 141.3194997 143.1899988  14.0170012 141.4694997 143.9369988
  13.8510012 141.7904997 142.4659988  13.5722997 141.4036578 143.1944058
  17.1360012 133.0694997 143.0029988  16.2360012 133.2084997 143.2979988
  17.3880012 133.9004997 142.6009988  17.0468702 133.2009074 142.9890205
  14.9150012 142.3524997 140.8199988  14.9570012 142.1294997 139.8899988
  15.7640012 142.7514997 141.0089988  15.0355280 142.3759438 140.7183554
  10.4870012 136.2284997 141.4899988  10.2340012 136.2474997 142.4129988
  10.2310012 135.3564997 141.1879988  10.4177481 136.1132558 141.5756175
   7.3700012 136.6734997 140.5909988   6.9390012 136.2284997 141.3209988
   6.6520012 137.0454997 140.0789988   7.2139438 136.6628940 140.6216799
   1.8860012 137.1614997 143.0669988   2.3600012 137.7524997 142.4819988
   1.1690012 137.6924997 143.4139988   1.8539341 137.3140867 143.0338836
   5.9880012 139.4514997 141.9729988   5.4450012 139.0714997 141.2819988
   6.8210012 139.6454997 141.5449988   6.0263631 139.4257125 141.8204501
   9.3230012 144.0164997 143.9089988   8.5780012 143.5094997 143.5869988
   9.1890012 144.0654997 144.8559988   9.2028776 143.9536940 143.9928647
  13.2210012 136.8304997 142.1079988  12.2820012 136.9424997 141.9569988
  13.5180012 137.6874997 142.4149988  13.1327583 136.9615981 142.1288337
  13.9390012 138.6974997 143.7689988  14.8310012 138.5604997 144.0879988
  13.9960012 139.4884997 143.2319988  14.0686504 138.7856052 143.7400818
  18.8240012 138.9074997 143.4639988  18.2700012 138.5114997 142.7919988
  18.9240012 139.8174997 143.1859988  18.7617059 138.9763586 143.3344401
   2.5780012 141.6914997 141.6699988   3.1940012 142.3184997 142.0499988
   1.7160012 142.0074997 141.9419988   2.5457698 141.8199430 141.7587183
  15.3780012 144.3424997 143.9759988  15.1000012 143.6144997 144.5319988
  16.3050012 144.4614997 144.1809988  15.4653124 144.2588802 144.0798845
   3.9930012 143.6044997 143.1629988   3.3070012 143.9564997 143.7299988
   4.5150012 144.3674997 142.9159988   3.9696852 143.7558578 143.2072118
   6.3500012 135.7904997 142.9989988   6.2670012 136.6794997 143.3459988
   7.2400012 135.5254997 143.2309988   6.4589469 135.8761430 143.0777626
   2.9250012 138.8824997 141.1759988   2.8800012 139.8214997 141.3539988
   2.0370012 138.6464997 140.9059988   2.7988574 138.9791892 141.1638912
   6.2000012 144.3714997 140.4259988   6.2640012 143.5774997 140.9569988
   6.8530012 144.2524997 139.7359988   6.2970241 144.2467148 140.4054317
   7.3490012 142.3434997 142.7319988   6.8890012 141.8594997 143.4179988
   7.6040012 141.6754997 142.0959988   7.3204902 142.1868731 142.7399334
   8.4200012 140.5864997 140.9939988   8.2400012 140.4324997 140.0669988
   9.3700012 140.6944997 141.0389988   8.5237776 140.5800175 140.8731843
  17.8100012 142.9414997 140.4399988  17.5360012 142.5164997 139.6269988
  17.8490012 143.8724997 140.2229988  17.7777699 143.0092484 140.2993610
  18.9310012 141.7644997 142.6299988  18.4090012 142.1214997 141.9109988
  18.8980012 142.4394997 143.3079988  18.8551634 141.9045413 142.6233145
  17.2800012 139.0044997 141.1799988  17.3760012 139.6714997 140.4999988
  17.1400012 138.1884997 140.6989988  17.2742272 138.9855655 141.0218347
  16.5270012 136.4124997 140.2979988  17.1380012 136.0414997 140.9349988
  15.6910012 135.9914997 140.4939988  16.4975032 136.3047554 140.4117035
  18.6400012 135.2974997 141.8399988  19.0520012 134.5764997 141.3649988
  19.3220012 135.9674997 141.8989988  18.7885885 135.2892368 141.7828915
   2.1970012 133.3454997 142.9459988   2.6360012 133.9564997 142.3539988
   1.5640012 133.8834997 143.4199988   2.1714514 133.5019257 142.9290930
   4.0580012 135.2614997 141.3879988   4.5500012 134.6314997 140.8609988
   4.6820012 135.5574997 142.0509988   4.2095688 135.2153804 141.4055482
   9.0840012 135.5544997 143.8449988   9.2620012 134.9084997 144.5279988
   9.0310012 136.3884997 144.3119988   9.1011999 135.5788009 144.0015917
  30.0700012 140.4054997 141.5919988  30.7710012 140.4274997 142.2429988
  30.3730012 139.7774997 140.9349988  30.2068133 140.3237070 141.5923369
  32.2930012 141.3194997 143.1899988  32.8730012 141.4694997 143.9369988
  32.7070012 141.7904997 142.4659988  32.4282997 141.4036578 143.1944058
  35.9920012 133.0694997 143.0029988  35.0920012 133.2084997 143.2979988
  36.2440012 133.9004997 142.6009988  35.9028702 133.2009074 142.9890205
  33.7710012 142.3524997 140.8199988  33.8130012 142.1294997 139.8899988
  34.6200012 142.7514997 141.0089988  33.8915280 142.3759438 140.7183554
  29.3430012 136.2284997 141.4899988  29.0900012 136.2474997 142.4129988
  29.0870012 135.3564997 141.1879988  29.2737481 136.1132558 141.5756175
  26.2260012 136.6734997 140.5909988  25.7950012 136.2284997 141.3209988
  25.5080012 137.0454997 140.0789988  26.0699438 136.6628940 140.6216799
  20.7420012 137.1614997 143.0669988  21.2160012 137.7524997 142.4819988
  20.0250012 137.6924997 143.4139988  20.7099341 137.3140867 143.0338836
  24.8440012 139.4514997 141.9729988  24.3010012 139.0714997 141.2819988
  25.6770012 139.6454997 141.5449988  24.8823631 139.4257125 141.8204501
  28.1790012 144.0164997 143.9089988  27.4340012 143.5094997 143.5869988
  28.0450012 144.0654997 144.8559988  28.0588776 143.9536940 143.9928647
  32.0770012 136.8304997 142.1079988  31.1380012 136.9424997 141.9569988
  32.3740012 137.6874997 142.4149988  31.9887583 136.9615981 142.1288337
  32.7950012 138.6974997 143.7689988  33.6870012 138.5604997 144.0879988
  32.8520012 139.4884997 143.2319988  32.9246504 138.7856052 143.7400818
  37.6800012 138.9074997 143.4639988  37.1260012 138.5114997 142.7919988
  37.7800012 139.8174997 143.1859988  37.6177059 138.9763586 143.3344401
  21.4340012 141.6914997 141.6699988  22.0500012 142.3184997 142.0499988
  20.5720012 142.0074997 141.9419988  21.4017698 141.8199430 141.7587183
  34.2340012 144.3424997 143.9759988  33.9560012 143.6144997 144.5319988
  35.1610012 144.4614997 144.1809988  34.3213124 144.2588802 144.0798845
  22.8490012 143.6044997 143.1629988  22.1630012 143.9564997 143.7299988
  23.3710012 144.3674997 142.9159988  22.8256852 143.7558578 143.2072118
  25.2060012 135.7904997 142.9989988  25.1230012 136.6794997 143.3459988
  26.0960012 135.5254997 143.2309988  25.3149469 135.8761430 143.0777626
  21.7810012 138.8824997 141.1759988  21.7360012 139.8214997 141.3539988
  20.8930012 138.6464997 140.9059988  21.6548574 138.9791892 141.1638912
  25.0560012 144.3714997 140.4259988  25.1200012 143.5774997 140.9569988
  25.7090012 144.2524997 139.7359988  25.1530241 144.2467148 140.4054317
  26.2050012 142.3434997 142.7319988  25.7450012 141.8594997 143.4179988
  26.4600012 141.6754997 142.0959988  26.1764902 142.1868731 142.7399334
  27.2760012 140.5864997 140.9939988  27.0960012 140.4324997 140.0669988
  28.2260012 140.6944997 141.0389988  27.3797776 140.5800175 140.8731843
  36.6660012 142.9414997 140.4399988  36.3920012 142.5164997 139.6269988
  36.7050012 143.8724997 140.2229988  36.6337699 143.0092484 140.2993610
  37.7870012 141.7644997 142.6299988  37.2650012 142.1214997 141.9109988
  37.7540012 142.4394997 143.3079988  37.7111634 141.9045413 142.6233145
  36.1360012 139.0044997 141.1799988  36.2320012 139.6714997 140.4999988
  35.9960012 138.1884997 140.6989988  36.1302272 138.9855655 141.0218347
  35.3830012 136.4124997 140.2979988  35.9940012 136.0414997 140.9349988
  34.5470012 135.9914997 140.4939988  35.3535032 136.3047554 140.4117035
  37.4960012 135.2974997 141.8399988  37.9080012 134.5764997 141.3649988
  38.1780012 135.9674997 141.8989988  37.6445885 135.2892368 141.7828915
  21.0530012 133.3454997 142.9459988  21.4920012 133.9564997 142.3539988
  20.4200012 133.8834997 143.4199988  21.0274514 133.5019257 142.9290930
  22.9140012 135.2614997 141.3879988  23.4060012 134.6314997 140.8609988
  23.5380012 135.5574997 142.0509988  23.0655688 135.2153804 141.4055482
  27.9400012 135.5544997 143.8449988  28.1180012 134.9084997 144.5279988
  27.8870012 136.3884997 144.3119988  27.9571999 135.5788009 144.0015917
  48.9260012 140.4054997 141.5919988  49.6270012 140.4274997 142.2429988
  49.2290012 139.7774997 140.9349988  49.0628133 140.3237070 141.5923369
  51.1490012 141.3194997 143.1899988  51.7290012 141.4694997 143.9369988
  51.5630012 141.7904997 142.4659988  51.2842997 141.4036578 143.1944058
  54.8480012 133.0694997 143.0029988  53.9480012 133.2084997 143.2979988
  55.1000012 133.9004997 142.6009988  54.7588702 133.2009074 142.9890205
  52.6270012 142.3524997 140.8199988  52.6690012 142.1294997 139.8899988
  53.4760012 142.7514997 141.0089988  52.7475280 142.3759438 140.7183554
  48.1990012 136.2284997 141.4899988  47.9460012 136.2474997 142.4129988
  47.9430012 135.3564997 141.1879988  48.1297481 136.1132558 141.5756175
  45.0820012 136.6734997 140.5909988  44.6510012 136.2284997 141.3209988
  44.3640012 137.0454997 140.0789988  44.9259438 136.6628940 140.6216799
  39.5980012 137.1614997 143.0669988  40.0720012 137.7524997 142.4819988
  38.8810012 137.6924997 143.4139988  39.5659341 137.3140867 143.0338836
  43.7000012 139.4514997 141.9729988  43.1570012 139.0714997 141.2819988
  44.5330012 139.6454997 141.5449988  43.7383631 139.4257125 141.8204501
  47.0350012 144.0164997 143.9089988  46.2900012 143.5094997 143.5869988
  46.9010012 144.0654997 144.8559988  46.9148776 143.9536940 143.9928647
  50.9330012 136.8304997 142.1079988  49.9940012 136.9424997 141.9569988
  51.2300012 137.6874997 142.4149988  50.8447583 136.9615981 142.1288337
  51.6510012 138.6974997 143.7689988  52.5430012 138.5604997 144.0879988
  51.7080012 139.4884997 143.2319988  51.7806504 138.7856052 143.7400818
  56.5360012 138.9074997 143.4639988  55.9820012 138.5114997 142.7919988
  56.6360012 139.8174997 143.1859988  56.4737059 138.9763586 143.3344401
  40.2900012 141.6914997 141.6699988  40.9060012 142.3184997 142.0499988
  39.4280012 142.0074997 141.9419988  40.2577698 141.8199430 141.7587183
  53.0900012 144.3424997 143.9759988  52.8120012 143.6144997 144.5319988
  54.0170012 144.4614997 144.1809988  53.1773124 144.2588802 144.0798845
  41.7050012 143.6044997 143.1629988  41.0190012 143.9564997 143.7299988
  42.2270012 144.3674997 142.9159988  41.6816852 143.7558578 143.2072118
  44.0620012 135.7904997 142.9989988  43.9790012 136.6794997 143.3459988
  44.9520012 135.5254997 143.2309988  44.1709469 135.8761430 143.0777626
  40.6370012 138.8824997 141.1759988  40.5920012 139.8214997 141.3539988
  39.7490012 138.6464997 140.9059988  40.5108574 138.9791892 141.1638912
  43.9120012 144.3714997 140.4259988  43.9760012 143.5774997 140.9569988
  44.5650012 144.2524997 139.7359988  44.0090241 144.2467148 140.4054317
  45.0610012 142.3434997 142.7319988  44.6010012 141.8594997 143.4179988
  45.3160012 141.6754997 142.0959988  45.0324902 142.1868731 142.7399334
  46.1320012 140.5864997 140.9939988  45.9520012 140.4324997 140.0669988
  47.0820012 140.6944997 141.0389988  46.2357776 140.5800175 140.8731843
  55.5220012 142.9414997 140.4399988  55.2480012 142.5164997 139.6269988
  55.5610012 143.8724997 140.2229988  55.4897699 143.0092484 140.2993610
  56.6430012 141.7644997 142.6299988  56.1210012 142.1214997 141.9109988
  56.6100012 142.4394997 143.3079988  56.5671634 141.9045413 142.6233145
  54.9920012 139.0044997 141.1799988  55.0880012 139.6714997 140.4999988
  54.8520012 138.1884997 140.6989988  54.9862272 138.9855655 141.0218347
  54.2390012 136.4124997 140.2979988  54.8500012 136.0414997 140.9349988
  53.4030012 135.9914997 140.4939988  54.2095032 136.3047554 140.4117035
  56.3520012 135.2974997 141.8399988  56.7640012 134.5764997 141.3649988
  57.0340012 135.9674997 141.8989988  56.5005885 135.2892368 141.7828915
  39.9090012 133.3454997 142.9459988  40.3480012 133.9564997 142.3539988
  39.2760012 133.8834997 143.4199988  39.8834514 133.5019257 142.9290930
  41.7700012 135.2614997 141.3879988  42.2620012 134.6314997 140.8609988
  42.3940012 135.5574997 142.0509988  41.9215688 135.2153804 141.4055482
  46.7960012 135.5544997 143.8449988  46.9740012 134.9084997 144.5279988
  46.7430012 136.3884997 144.3119988  46.8131999 135.5788009 144.0015917
  67.7820012 140.4054997 141.5919988  68.4830012 140.4274997 142.2429988
  68.0850012 139.7774997 140.9349988  67.9188133 140.3237070 141.5923369
  70.0050012 141.3194997 143.1899988  70.5850012 141.4694997 143.9369988
  70.4190012 141.7904997 142.4659988  70.1402997 141.4036578 143.1944058
  73.7040012 133.0694997 143.0029988  72.8040012 133.2084997 143.2979988
  73.9560012 133.9004997 142.6009988  73.6148702 133.2009074 142.9890205
  71.4830012 142.3524997 140.8199988  71.5250012 142.1294997 139.8899988
  72.3320012 142.7514997 141.0089988  71.6035280 142.3759438 140.7183554
  67.0550012 136.2284997 141.4899988  66.8020012 136.2474997 142.4129988
  66.7990012 135.3564997 141.1879988  66.9857481 136.1132558 141.5756175
  63.9380012 136.6734997 140.5909988  63.5070012 136.2284997 141.3209988
  63.2200012 137.0454997 140.0789988  63.7819438 136.6628940 140.6216799
  58.4540012 137.1614997 143.0669988  58.9280012 137.7524997 142.4819988
  57.7370012 137.6924997 143.4139988  58.4219341 137.3140867 143.0338836
  62.5560012 139.4514997 141.9729988  62.0130012 139.0714997 141.2819988
  63.3890012 139.6454997 141.5449988  62.5943631 139.4257125 141.8204501
  65.8910012 144.0164997 143.9089988  65.1460012 143.5094997 143.5869988
  65.7570012 144.0654997 144.8559988  65.7708776 143.9536940 143.9928647
  69.7890012 136.8304997 142.1079988  68.8500012 136.9424997 141.9569988
  70.0860012 137.6874997 142.4149988  69.7007583 136.9615981 142.1288337
  70.5070012 138.6974997 143.7689988  71.3990012 138.5604997 144.0879988
  70.5640012 139.4884997 143.2319988  70.6366504 138.7856052 143.7400818
  75.3920012 138.9074997 143.4639988  74.8380012 138.5114997 142.7919988
  75.4920012 139.8174997 143.1859988  75.3297059 138.9763586 143.3344401
  59.1460012 141.6914997 141.6699988  59.7620012 142.3184997 142.0499988
  58.2840012 142.0074997 141.9419988  59.1137698 141.8199430 141.7587183
  71.9460012 144.3424997 143.9759988  71.6680012 143.6144997 144.5319988
  72.8730012 144.4614997 144.1809988  72.0333124 144.2588802 144.0798845
  60.5610012 143.6044997 143.1629988  59.8750012 143.9564997 143.7299988
  61.0830012 144.3674997 142.9159988  60.5376852 143.7558578 143.2072118
  62.9180012 135.7904997 142.9989988  62.8350012 136.6794997 143.3459988
  63.8080012 135.5254997 143.2309988  63.0269469 135.8761430 143.0777626
  59.4930012 138.8824997 141.1759988  59.4480012 139.8214997 141.3539988
  58.6050012 138.6464997 140.9059988  59.3668574 138.9791892 141.1638912
  62.7680012 144.3714997 140.4259988  62.8320012 143.5774997 140.9569988
  63.4210012 144.2524997 139.7359988  62.8650241 144.2467148 140.4054317
  63.9170012 142.3434997 142.7319988  63.4570012 141.8594997 143.4179988
  64.1720012 141.6754997 142.0959988  63.8884902 142.1868731 142.7399334
  64.9880012 140.5864997 140.9939988  64.8080012 140.4324997 140.0669988
  65.9380012 140.6944997 141.0389988  65.0917776 140.5800175 140.8731843
  74.3780012 142.9414997 140.4399988  74.1040012 142.5164997 139.6269988
  74.4170012 143.8724997 140.2229988  74.3457699 143.0092484 140.2993610
  75.4990012 141.7644997 142.6299988  74.9770012 142.1214997 141.9109988
  75.4660012 142.4394997 143.3079988  75.4231634 141.9045413 142.6233145
  73.8480012 139.0044997 141.1799988  73.9440012 139.6714997 140.4999988
  73.7080012 138.1884997 140.6989988  73.8422272 138.9855655 141.0218347
  73.0950012 136.4124997 140.2979988  73.7060012 136.0414997 140.9349988
  72.2590012 135.9914997 140.4939988  73.0655032 136.3047554 140.4117035
  75.2080012 135.2974997 141.8399988  75.6200012 134.5764997 141.3649988
  75.8900012 135.9674997 141.8989988  75.3565885 135.2892368 141.7828915
  58.7650012 133.3454997 142.9459988  59.2040012 133.9564997 142.3539988
  58.1320012 133.8834997 143.4199988  58.7394514 133.5019257 142.9290930
  60.6260012 135.2614997 141.3879988  61.1180012 134.6314997 140.8609988
  61.2500012 135.5574997 142.0509988  60.7775688 135.2153804 141.4055482
  65.6520012 135.5544997 143.8449988  65.8300012 134.9084997 144.5279988
  65.5990012 136.3884997 144.3119988  65.6691999 135.5788009 144.0015917
  86.6380012 140.4054997 141.5919988  87.3390012 140.4274997 142.2429988
  86.9410012 139.7774997 140.9349988  86.7748133 140.3237070 141.5923369
  88.8610012 141.3194997 143.1899988  89.4410012 141.4694997 143.9369988
  89.2750012 141.7904997 142.4659988  88.9962997 141.4036578 143.1944058
  92.5600012 133.0694997 143.0029988  91.6600012 133.2084997 143.2979988
  92.8120012 133.9004997 142.6009988  92.4708702 133.2009074 142.9890205
  90.3390012 142.3524997 140.8199988  90.3810012 142.1294997 139.8899988
  91.1880012 142.7514997 141.0089988  90.4595280 142.3759438 140.7183554
  85.9110012 136.2284997 141.4899988  85.6580012 136.2474997 142.4129988
  85.6550012 135.3564997 141.1879988  85.8417481 136.1132558 141.5756175
  82.7940012 136.6734997 140.5909988  82.3630012 136.2284997 141.3209988
  82.0760012 137.0454997 140.0789988  82.6379438 136.6628940 140.6216799
  77.3100012 137.1614997 143.0669988  77.7840012 137.7524997 142.4819988
  76.5930012 137.6924997 143.4139988  77.2779341 137.3140867 143.0338836
  81.4120012 139.4514997 141.9729988  80.8690012 139.0714997 141.2819988
  82.2450012 139.6454997 141.5449988  81.4503631 139.4257125 141.8204501
  84.7470012 144.0164997 143.9089988  84.0020012 143.5094997 143.5869988
  84.6130012 144.0654997 144.8559988  84.6268776 143.9536940 143.9928647
  88.6450012 136.8304997 142.1079988  87.7060012 136.9424997 141.9569988
  88.9420012 137.6874997 142.4149988  88.5567583 136.9615981 142.1288337
  89.3630012 138.6974997 143.7689988  90.2550012 138.5604997 144.0879988
  89.4200012 139.4884997 143.2319988  89.4926504 138.7856052 143.7400818
  94.2480012 138.9074997 143.4639988  93.6940012 138.5114997 142.7919988
  94.3480012 139.8174997 143.1859988  94.1857059 138.9763586 143.3344401
  78.0020012 141.6914997 141.6699988  78.6180012 142.3184997 142.0499988
  77.1400012 142.0074997 141.9419988  77.9697698 141.8199430 141.7587183
  90.8020012 144.3424997 143.9759988  90.5240012 143.6144997 144.5319988
  91.7290012 144.4614997 144.1809988  90.8893124 144.2588802 144.0798845
  79.4170012 143.6044997 143.1629988  78.7310012 143.9564997 143.7299988
  79.9390012 144.3674997 142.9159988  79.3936852 143.7558578 143.2072118
  81.7740012 135.7904997 142.9989988  81.6910012 136.6794997 143.3459988
  82.6640012 135.5254997 143.2309988  81.8829469 135.8761430 143.0777626
  78.3490012 138.8824997 141.1759988  78.3040012 139.8214997 141.3539988
  77.4610012 138.6464997 140.9059988  78.2228574 138.9791892 141.1638912
  81.6240012 144.3714997 140.4259988  81.6880012 143.5774997 140.9569988
  82.2770012 144.2524997 139.7359988  81.7210241 144.2467148 140.4054317
  82.7730012 142.3434997 142.7319988  82.3130012 141.8594997 143.4179988
  83.0280012 141.6754997 142.0959988  82.7444902 142.1868731 142.7399334
  83.8440012 140.5864997 140.9939988  83.6640012 140.4324997 140.0669988
  84.7940012 140.6944997 141.0389988  83.9477776 140.5800175 140.8731843
  93.2340012 142.9414997 140.4399988  92.9600012 142.5164997 139.6269988
  93.2730012 143.8724997 140.2229988  93.2017699 143.0092484 140.2993610
  94.3550012 141.7644997 142.6299988  93.8330012 142.1214997 141.9109988
  94.3220012 142.4394997 143.3079988  94.2791634 141.9045413 142.6233145
  92.7040012 139.0044997 141.1799988  92.8000012 139.6714997 140.4999988
  92.5640012 138.1884997 140.6989988  92.6982272 138.9855655 141.0218347
  91.9510012 136.4124997 140.2979988  92.5620012 136.0414997 140.9349988
  91.1150012 135.9914997 140.4939988  91.9215032 136.3047554 140.4117035
  94.0640012 135.2974997 141.8399988  94.4760012 134.5764997 141.3649988
  94.7460012 135.9674997 141.8989988  94.2125885 135.2892368 141.7828915
  77.6210012 133.3454997 142.9459988  78.0600012 133.9564997 142.3539988
  76.9880012 133.8834997 143.4199988  77.5954514 133.5019257 142.9290930
  79.4820012 135.2614997 141.3879988  79.9740012 134.6314997 140.8609988
  80.1060012 135.5574997 142.0509988  79.6335688 135.2153804 141.4055482
  84.5080012 135.5544997 143.8449988  84.6860012 134.9084997 144.5279988
  84.4550012 136.3884997 144.3119988  84.5251999 135.5788009 144.0015917
 105.4940012 140.4054997 141.5919988 106.1950012 140.4274997 142.2429988
 105.7970012 139.7774997 140.9349988 105.6308133 140.3237070 141.5923369
 107.7170012 141.3194997 143.1899988 108.2970012 141.4694997 143.9369988
 108.1310012 141.7904997 142.4659988 107.8522997 141.4036578 143.1944058
 111.4160012 133.0694997 143.0029988 110.5160012 133.2084997 143.2979988
 111.6680012 133.9004997 142.6009988 111.3268702 133.2009074 142.9890205
 109.1950012 142.3524997 140.8199988 109.2370012 142.1294997 139.8899988
 110.0440012 142.7514997 141.0089988 109.3155280 142.3759438 140.7183554
 104.7670012 136.2284997 141.4899988 104.5140012 136.2474997 142.4129988
 104.5110012 135.3564997 141.1879988 104.6977481 136.1132558 141.5756175
 101.6500012 136.6734997 140.5909988 101.2190012 136.2284997 141.3209988
 100.9320012 137.0454997 140.0789988 101.4939438 136.6628940 140.6216799
  96.1660012 137.1614997 143.0669988  96.6400012 137.7524997 142.4819988
  95.4490012 137.6924997 143.4139988  96.1339341 137.3140867 143.0338836
 100.2680012 139.4514997 141.9729988  99.7250012 139.0714997 141.2819988
 101.1010012 139.6454997 141.5449988 100.3063631 139.4257125 141.8204501
 103.6030012 144.0164997 143.9089988 102.8580012 143.5094997 143.5869988
 103.4690012 144.0654997 144.8559988 103.4828776 143.9536940 143.9928647
 107.5010012 136.8304997 142.1079988 106.5620012 136.9424997 141.9569988
 107.7980012 137.6874997 142.4149988 107.4127583 136.9615981 142.1288337
 108.2190012 138.6974997 143.7689988 109.1110012 138.5604997 144.0879988
 108.2760012 139.4884997 143.2319988 108.3486504 138.7856052 143.7400818
 113.1040012 138.9074997 143.4639988 112.5500012 138.5114997 142.7919988
 113.2040012 139.8174997 143.1859988 113.0417059 138.9763586 143.3344401
  96.8580012 141.6914997 141.6699988  97.4740012 142.3184997 142.0499988
  95.9960012 142.0074997 141.9419988  96.8257698 141.8199430 141.7587183
 109.6580012 144.3424997 143.9759988 109.3800012 143.6144997 144.5319988
 110.5850012 144.4614997 144.1809988 109.7453124 144.2588802 144.0798845
  98.2730012 143.6044997 143.1629988  97.5870012 143.9564997 143.7299988
  98.7950012 144.3674997 142.9159988  98.2496852 143.7558578 143.2072118
 100.6300012 135.7904997 142.9989988 100.5470012 136.6794997 143.3459988
 101.5200012 135.5254997 143.2309988 100.7389469 135.8761430 143.0777626
  97.2050012 138.8824997 141.1759988  97.1600012 139.8214997 141.3539988
  96.3170012 138.6464997 140.9059988  97.0788574 138.9791892 141.1638912
 100.4800012 144.3714997 140.4259988 100.5440012 143.5774997 140.9569988
 101.1330012 144.2524997 139.7359988 100.5770241 144.2467148 140.4054317
 101.6290012 142.3434997 142.7319988 101.1690012 141.8594997 143.4179988
 101.8840012 141.6754997 142.0959988 101.6004902 142.1868731 142.7399334
 102.7000012 140.5864997 140.9939988 102.5200012 140.4324997 140.0669988
 103.6500012 140.6944997 141.0389988 102.8037776 140.5800175 140.8731843
 112.0900012 142.9414997 140.4399988 111.8160012 142.5164997 139.6269988
 112.1290012 143.8724997 140.2229988 112.0577699 143.0092484 140.2993610
 113.2110012 141.7644997 142.6299988 112.6890012 142.1214997 141.9109988
 113.1780012 142.4394997 143.3079988 113.1351634 141.9045413 142.6233145
 111.5600012 139.0044997 141.1799988 111.6560012 139.6714997 140.4999988
 111.4200012 138.1884997 140.6989988 111.5542272 138.9855655 141.0218347
 110.8070012 136.4124997 140.2979988 111.4180012 136.0414997 140.9349988
 109.9710012 135.9914997 140.4939988 110.7775032 136.3047554 140.4117035
 112.9200012 135.2974997 141.8399988 113.3320012 134.5764997 141.3649988
 113.6020012 135.9674997 141.8989988 113.0685885 135.2892368 141.7828915
  96.4770012 133.3454997 142.9459988  96.9160012 133.9564997 142.3539988
  95.8440012 133.8834997 143.4199988  96.4514514 133.5019257 142.9290930
  98.3380012 135.2614997 141.3879988  98.8300012 134.6314997 140.8609988
  98.9620012 135.5574997 142.0509988  98.4895688 135.2153804 141.4055482
 103.3640012 135.5544997 143.8449988 103.5420012 134.9084997 144.5279988
 103.3110012 136.3884997 144.3119988 103.3811999 135.5788009 144.0015917
 124.3500012 140.4054997 141.5919988 125.0510012 140.4274997 142.2429988
 124.6530012 139.7774997 140.9349988 124.4868133 140.3237070 141.5923369
 126.5730012 141.3194997 143.1899988 127.1530012 141.4694997 143.9369988
 126.9870012 141.7904997 142.4659988 126.7082997 141.4036578 143.1944058
 130.2720012 133.0694997 143.0029988 129.3720012 133.2084997 143.2979988
 130.5240012 133.9004997 142.6009988 130.1828702 133.2009074 142.9890205
 128.0510012 142.3524997 140.8199988 128.0930012 142.1294997 139.8899988
 128.9000012 142.7514997 141.0089988 128.1715280 142.3759438 140.7183554
 123.6230012 136.2284997 141.4899988 123.3700012 136.2474997 142.4129988
 123.3670012 135.3564997 141.1879988 123.5537481 136.1132558 141.5756175
 120.5060012 136.6734997 140.5909988 120.0750012 136.2284997 141.3209988
 119.7880012 137.0454997 140.0789988 120.3499438 136.6628940 140.6216799
 115.0220012 137.1614997 143.0669988 115.4960012 137.7524997 142.4819988
 114.3050012 137.6924997 143.4139988 114.9899341 137.3140867 143.0338836
 119.1240012 139.4514997 141.9729988 118.5810012 139.0714997 141.2819988
 119.9570012 139.6454997 141.5449988 119.1623631 139.4257125 141.8204501
 122.4590012 144.0164997 143.9089988 121.7140012 143.5094997 143.5869988
 122.3250012 144.0654997 144.8559988 122.3388776 143.9536940 143.9928647
 126.3570012 136.8304997 142.1079988 125.4180012 136.9424997 141.9569988
 126.6540012 137.6874997 142.4149988 126.2687583 136.9615981 142.1288337
 127.0750012 138.6974997 143.7689988 127.9670012 138.5604997 144.0879988
 127.1320012 139.4884997 143.2319988 127.2046504 138.7856052 143.7400818
 131.9600012 138.9074997 143.4639988 131.4060012 138.5114997 142.7919988
 132.0600012 139.8174997 143.1859988 131.8977059 138.9763586 143.3344401
 115.7140012 141.6914997 141.6699988 116.3300012 142.3184997 142.0499988
 114.8520012 142.0074997 141.9419988 115.6817698 141.8199430 141.7587183
 128.5140012 144.3424997 143.9759988 128.2360012 143.6144997 144.5319988
 129.4410012 144.4614997 144.1809988 128.6013124 144.2588802 144.0798845
 117.1290012 143.6044997 143.1629988 116.4430012 143.9564997 143.7299988
 117.6510012 144.3674997 142.9159988 117.1056852 143.7558578 143.2072118
 119.4860012 135.7904997 142.9989988 119.4030012 136.6794997 143.3459988
 120.3760012 135.5254997 143.2309988 119.5949469 135.8761430 143.0777626
 116.0610012 138.8824997 141.1759988 116.0160012 139.8214997 141.3539988
 115.1730012 138.6464997 140.9059988 115.9348574 138.9791892 141.1638912
 119.3360012 144.3714997 140.4259988 119.4000012 143.5774997 140.9569988
 119.9890012 144.2524997 139.7359988 119.4330241 144.2467148 140.4054317
 120.4850012 142.3434997 142.7319988 120.0250012 141.8594997 143.4179988
 120.7400012 141.6754997 142.0959988 120.4564902 142.1868731 142.7399334
 121.5560012 140.5864997 140.9939988 121.3760012 140.4324997 140.0669988
 122.5060012 140.6944997 141.0389988 121.6597776 140.5800175 140.8731843
 130.9460012 142.9414997 140.4399988 130.6720012 142.5164997 139.6269988
 130.9850012 143.8724997 140.2229988 130.9137699 143.0092484 140.2993610
 132.0670012 141.7644997 142.6299988 131.5450012 142.1214997 141.9109988
 132.0340012 142.4394997 143.3079988 131.9911634 141.9045413 142.6233145
 130.4160012 139.0044997 141.1799988 130.5120012 139.6714997 140.4999988
 130.2760012 138.1884997 140.6989988 130.4102272 138.9855655 141.0218347
 129.6630012 136.4124997 140.2979988 130.2740012 136.0414997 140.9349988
 128.8270012 135.9914997 140.4939988 129.6335032 136.3047554 140.4117035
 131.7760012 135.2974997 141.8399988 132.1880012 134.5764997 141.3649988
 132.4580012 135.9674997 141.8989988 131.9245885 135.2892368 141.7828915
 115.3330012 133.3454997 142.9459988 115.7720012 133.9564997 142.3539988
 114.7000012 133.8834997 143.4199988 115.3074514 133.5019257 142.9290930
 117.1940012 135.2614997 141.3879988 117.6860012 134.6314997 140.8609988
 117.8180012 135.5574997 142.0509988 117.3455688 135.2153804 141.4055482
 122.2200012 135.5544997 143.8449988 122.3980012 134.9084997 144.5279988
 122.1670012 136.3884997 144.3119988 122.2371999 135.5788009 144.0015917
 143.2060012 140.4054997 141.5919988 143.9070012 140.4274997 142.2429988
 143.5090012 139.7774997 140.9349988 143.3428133 140.3237070 141.5923369
 142.4790012 136.2284997 141.4899988 142.2260012 136.2474997 142.4129988
 142.2230012 135.3564997 141.1879988 142.4097481 136.1132558 141.5756175
 139.3620012 136.6734997 140.5909988 138.9310012 136.2284997 141.3209988
 138.6440012 137.0454997 140.0789988 139.2059438 136.6628940 140.6216799
 133.8780012 137.1614997 143.0669988 134.3520012 137.7524997 142.4819988
 133.1610012 137.6924997 143.4139988 133.8459341 137.3140867 143.0338836
 137.9800012 139.4514997 141.9729988 137.4370012 139.0714997 141.2819988
 138.8130012 139.6454997 141.5449988 138.0183631 139.4257125 141.8204501
 141.3150012 144.0164997 143.9089988 140.5700012 143.5094997 143.5869988
 141.1810012 144.0654997 144.8559988 141.1948776 143.9536940 143.9928647
 134.5700012 141.6914997 141.6699988 135.1860012 142.3184997 142.0499988
 133.7080012 142.0074997 141.9419988 134.5377698 141.8199430 141.7587183
 135.9850012 143.6044997 143.1629988 135.2990012 143.9564997 143.7299988
 136.5070012 144.3674997 142.9159988 135.9616852 143.7558578 143.2072118
 138.3420012 135.7904997 142.9989988 138.2590012 136.6794997 143.3459988
 139.2320012 135.5254997 143.2309988 138.4509469 135.8761430 143.0777626
 134.9170012 138.8824997 141.1759988 134.8720012 139.8214997 141.3539988
 134.0290012 138.6464997 140.9059988 134.7908574 138.9791892 141.1638912
 138.1920012 144.3714997 140.4259988 138.2560012 143.5774997 140.9569988
 138.8450012 144.2524997 139.7359988 138.2890241 144.2467148 140.4054317
 139.3410012 142.3434997 142.7319988 138.8810012 141.8594997 143.4179988
 139.5960012 141.6754997 142.0959988 139.3124902 142.1868731 142.7399334
 140.4120012 140.5864997 140.9939988 140.2320012 140.4324997 140.0669988
 141.3620012 140.6944997 141.0389988 140.5157776 140.5800175 140.8731843
 134.1890012 133.3454997 142.9459988 134.6280012 133.9564997 142.3539988
 133.5560012 133.8834997 143.4199988 134.1634514 133.5019257 142.9290930
 136.0500012 135.2614997 141.3879988 136.5420012 134.6314997 140.8609988
 136.6740012 135.5574997 142.0509988 136.2015688 135.2153804 141.4055482
 141.0760012 135.5544997 143.8449988 141.2540012 134.9084997 144.5279988
 141.0230012 136.3884997 144.3119988 141.0931999 135.5788009 144.0015917
  12.4390012  10.7114997 -12.6120012  12.5280012  11.6554997 -12.7440012
  11.8010012  10.4364997 -13.2700012  12.3649081  10.8034830 -12.7190386
  11.3720012   9.9664997  -9.1930012  11.3340012   9.3204997  -8.4880012
  11.0500012   9.5004997  -9.9640012  11.3232333   9.8149408  -9.2007022
   3.7410012   9.5814997  -7.6000012   3.7820012   8.9554997  -6.8770012
   4.4440012  10.2054997  -7.4180012   3.8416363   9.5801196  -7.4763956
  15.0780012  12.9054997 -10.8920012  14.6380012  12.1854997 -10.4410012
  15.0650012  13.6264997 -10.2620012  15.0160226  12.9043731 -10.7451506
   4.6640012  14.0314997  -9.0650012   4.2950012  13.2294997  -9.4350012
   5.6050012  13.8624997  -9.0190012   4.7407289  13.8990153  -9.1093684
   1.2740012   7.6914997 -13.6720012   0.8270012   8.5374997 -13.6910012
   0.7130012   7.1114997 -14.1880012   1.1369900   7.7289916 -13.7443199
   1.9850012   9.8534997 -11.5460012   2.1980012   9.0834997 -11.0190012
   2.7230012   9.9424997 -12.1500012   2.1138496   9.7601394 -11.5554700
  12.1900012  18.0104997 -10.6790012  12.8100012  17.3334997 -10.9530012
  11.9820012  17.7924997  -9.7710012  12.2466904  17.8883870 -10.5936635
   9.7620012  12.3994997  -8.7870012  10.0660012  11.7134997  -9.3820012
  10.4830012  12.5174997  -8.1690012   9.9010671  12.3216305  -8.7848184
  18.4250012   4.0004997  -7.9260012  18.4740012   4.6104997  -7.1900012
  18.8500012   4.4614997  -8.6490012  18.4891824   4.1463741  -7.9229795
  12.9030012   6.7934997  -8.4590012  13.0450012   5.8474997  -8.4390012
  12.7960012   7.0004997  -9.3880012  12.9079864   6.6919534  -8.5817661
   6.0570012   4.8944997 -11.1870012   6.1010012   5.7544997 -11.6050012
   5.6000012   4.3424997 -11.8210012   6.0012185   4.9375799 -11.3299701
  13.7800012   5.0254997 -12.7860012  14.4260012   4.6964997 -12.1610012
  14.2900012   5.5434997 -13.4090012  13.9374264   5.0504611 -12.7846138
   2.6780012   7.2914997 -10.4250012   3.3310012   6.7414997  -9.9930012
   2.7020012   7.0174997 -11.3420012   2.7706683   7.1791466 -10.4897877
   7.8340012   8.8414997 -11.2100012   8.4500012   8.3154997 -10.7000012
   7.2480012   8.2014997 -11.6130012   7.8390810   8.6829208 -11.1946827
  18.8160012   5.4784997  -5.6900012  18.1280012   6.1364997  -5.7860012
  18.8320012   5.2814997  -4.7540012  18.7238525   5.5420462  -5.5765192
   4.8680012   3.8124997  -7.1130012   4.6490012   4.3424997  -7.8790012
   4.2000012   4.0394997  -6.4660012   4.7477600   3.9156906  -7.1303621
  12.2370012  13.3124997 -13.5690012  11.9410012  12.9904997 -14.4200012
  11.9120012  14.2124997 -13.5280012  12.1526371  13.3900215 -13.6798199
   7.4370012  11.4884997  -6.8260012   6.6970012  12.0864997  -6.7220012
   8.1510012  12.0424997  -7.1410012   7.4322237  11.6452831  -6.8543535
  15.5440012   4.3164997 -10.8060012  15.3280012   3.5504997 -10.2730012
  16.1990012   4.7884997 -10.2930012  15.6030632   4.2755889 -10.6637139
   4.4610012   5.7044997  -9.1610012   5.0750012   6.3374997  -8.7870012
   4.9730012   5.2324997  -9.8170012   4.6142296   5.7272370  -9.1985748
   5.8440012  13.4524997  -6.0380012   5.8390012  14.3324997  -6.4160012
   4.9910012  13.3694997  -5.6130012   5.7279464  13.5616117  -6.0322093
   1.9650012  13.1234997 -15.2560012   1.6930012  13.3524997 -16.1450012
   2.0110012  13.9614997 -14.7960012   1.9340094  13.2681213 -15.3154303
  15.5900012  14.7454997  -8.5440012  14.6490012  14.8034997  -8.3820012
  15.8670012  15.6514997  -8.6810012  15.4984679  14.8759443  -8.5403185
  15.8910012   3.0314997  -7.1260012  15.1550012   3.6424997  -7.1640012
  16.5740012   3.4464997  -7.6530012  15.8826541   3.1711374  -7.2024168
   8.8940012   1.1184997  -9.6600012   8.7770012   0.1694997  -9.7150012
   8.0390012   1.4504997  -9.3870012   8.7623733   1.0335409  -9.6306103
  13.8420012  16.5264997 -11.9180012  14.2680012  15.8194997 -12.4030012
  14.1590012  17.3274997 -12.3350012  13.9431019  16.5380994 -12.0406870
  15.0020012  14.4274997 -13.4100012  14.7440012  13.7374997 -14.0210012
  15.0730012  13.9844997 -12.5640012  14.9762856  14.2732124 -13.3793115
  16.6880012  12.9934997  -4.9320012  16.8280012  12.4024997  -5.6720012
  16.8550012  13.8664997  -5.2890012  16.7296778  13.0306426  -5.0813035
  11.1610012   9.9554997 -15.1600012  10.4490012  10.4904997 -15.5120012
  11.8520012  10.0114997 -15.8200012  11.1570132  10.0362543 -15.2973711
  11.2140012   8.4134997 -18.1210012  11.9150012   8.4354997 -17.4700012
  11.5170012   7.7854997 -18.7770012  11.3507830   8.3316566 -18.1206289
  18.5300012   9.3334997  -6.8660012  17.8770012  10.0284997  -6.7770012
  18.9950012   9.5434997  -7.6760012  18.5035390   9.4569425  -6.9633117
  14.5660012  10.1654997 -14.2080012  13.8340012  10.3934997 -13.6350012
  15.0140012   9.4514997 -13.7530012  14.5263095  10.1002571 -14.0680881
  14.4640012   8.3394997  -5.1410012  14.5440012   9.1024997  -4.5690012
  13.8620012   8.6184997  -5.8310012  14.3935756   8.4817134  -5.1559411
   6.2120012  10.7954997 -12.3260012   5.8810012  10.4254997 -13.1440012
   6.8000012  10.1254997 -11.9790012   6.2461873  10.6541156 -12.3911898
   7.5780012  14.2234997  -9.6440012   7.4840012  13.6454997 -10.4010012
   8.3080012  13.8524997  -9.1480012   7.6637981  14.0942390  -9.6805835
   6.5780012   9.5644997  -8.6920012   7.1440012   9.6854997  -9.4550012
   6.8970012  10.2014997  -8.0530012   6.6985786   9.6671884  -8.7099960
  12.8870012  15.0674997  -7.9580012  12.6470012  15.7294997  -7.3100012
  12.6890012  14.2334997  -7.5330012  12.8273808  15.0453134  -7.8118476
   7.4580012  13.9634997  -3.9750012   7.1470012  14.7454997  -3.5200012
   6.8080012  13.8104997  -4.6610012   7.3275558  14.0499105  -4.0054129
  13.4370012   9.3274997 -16.5230012  14.0170012   9.4774997 -15.7760012
  13.8510012   9.7984997 -17.2460012  13.5722830   9.4116841 -16.5185866
   4.3780012  10.1614997  -4.7460012   4.4490012  10.8124997  -4.0480012
   3.4880012  10.2644997  -5.0810012   4.2673117  10.2645936  -4.6957300
  11.1640012  16.0644997 -13.0880012  11.6380012  16.3594997 -12.3100012
  10.6010012  16.8024997 -13.3210012  11.1527653  16.2046932 -13.0129864
   5.6980012  16.0354997  -3.2120012   5.7050012  15.8994997  -4.1590012
   4.7820012  15.9174997  -2.9600012   5.5751714  16.0009430  -3.3075334
  17.1360012   1.0774997 -16.7100012  16.2360012   1.2164997 -16.4150012
  17.3880012   1.9084997 -17.1120012  17.0468702   1.2089074 -16.7239795
   5.2020012   9.8654997 -14.7360012   4.9100012  10.6334997 -15.2270012
   4.5280012   9.2054997 -14.8990012   5.0709081   9.8814406 -14.8252660
  18.3250012  15.4434997 -18.3340012  18.3990012  16.3824997 -18.1630012
  19.2310012  15.1384997 -18.3900012  18.4575100  15.5306722 -18.3181881
   1.2950012  12.2284997  -5.9210012   0.7940012  12.2004997  -6.7360012
   1.3000012  11.3224997  -5.6120012   1.2271526  12.1022278  -5.9907128
   1.0450012  15.0084997  -9.0370012   1.9910012  14.8644997  -9.0560012
   0.9330012  15.7924997  -8.5000012   1.1592727  15.0948046  -8.9669928
  19.2430012  15.6744997  -3.3550012  19.1940012  14.7194997  -3.3920012
  18.4160012  15.9424997  -2.9540012  19.1244940  15.5798998  -3.3058625
  10.2220012  15.2484997  -4.4790012  10.3090012  16.0744997  -4.0040012
   9.3580012  14.9184997  -4.2300012  10.1171964  15.3169878  -4.3803451
  10.6360012  19.0204997 -14.6730012  10.5610012  18.8994997 -15.6190012
  10.6690012  19.9704997 -14.5540012  10.6301848  19.1322500 -14.7865166
   4.2890012  17.8094997 -12.8920012   4.4420012  17.4614997 -12.0130012
   3.4390012  17.4534997 -13.1470012   4.1948962  17.7136650 -12.8061660
  13.7380012  18.1744997 -17.6710012  14.1130012  17.4304997 -18.1410012
  13.7420012  17.9044997 -16.7520012  13.7898915  18.0361486 -17.6112176
  13.4070012  18.1004997 -14.9210012  12.4710012  18.2004997 -14.7430012
  13.6870012  17.3914997 -14.3430012  13.3168255  18.0182711 -14.8184609
  16.3950012   7.1674997  -2.8750012  15.9880012   7.6484997  -3.5960012
  16.4360012   6.2624997  -3.1830012  16.3448437   7.1109374  -3.0153317
   3.5440012  13.5514997  -4.8780012   3.7600012  13.1904997  -4.0190012
   2.6890012  13.1774997  -5.0880012   3.4579292  13.4514111  -4.7886614
   6.1630012   2.0214997  -8.8830012   5.3010012   1.9344997  -9.2900012
   6.1400012   2.8774997  -8.4550012   6.0420330   2.1252765  -8.8808137
  10.8260012   1.7434997  -5.5080012  11.2460012   1.3284997  -4.7550012
   9.8930012   1.5654997  -5.3910012  10.7573644   1.6625900  -5.3890461
  14.1520012   5.4994997  -4.6550012  13.6380012   5.3734997  -3.8570012
  13.9970012   6.4114997  -4.8990012  14.0606852   5.6056132  -4.5787842
  14.9150012  10.3604997 -18.8930012  14.9570012  10.1374997 -19.8230012
  15.7640012  10.7594997 -18.7030012  15.0355396  10.3839155 -18.9946373
  10.4870012   4.2364997 -18.2230012  10.2340012   4.2554997 -17.3000012
  10.2310012   3.3644997 -18.5240012  10.4177790   4.1212437 -18.1373737
   6.2540012   6.9874997  -7.7880012   5.6120012   6.9464997  -7.0790012
   6.2910012   7.9134997  -8.0250012   6.1711324   7.1071559  -7.7230176
   6.2510012   7.2084997 -12.8760012   5.3580012   6.8674997 -12.9340012
   6.7010012   6.8314997 -13.6310012   6.1897305   7.1108484 -12.9860823
  11.7860012   7.6244997 -14.0590012  11.3770012   8.4394997 -14.3500012
  12.5070012   7.4844997 -14.6730012  11.8274537   7.7172018 -14.1818658
  10.8880012   7.7994997  -2.5710012  10.3260012   7.0954997  -2.2500012
  11.7150012   7.6794997  -2.1030012  10.9227095   7.6867883  -2.4637670
  12.7910012   7.0704997 -11.2450012  12.5960012   7.6754997 -11.9600012
  12.9720012   6.2364997 -11.6790012  12.7887614   7.0406300 -11.4015595
   4.0040012   7.3074997  -5.9210012   3.9660012   7.7074997  -5.0520012
   3.5130012   6.4904997  -5.8300012   3.9324684   7.2518069  -5.7898941
   7.3700012   4.6814997 -19.1220012   6.9390012   4.2364997 -18.3920012
   6.6520012   5.0534997 -19.6340012   7.2139438   4.6708940 -19.0913201
   0.6120012   4.4234997 -12.0700012   1.2430012   4.3944997 -11.3510012
   1.0610012   3.9984997 -12.8000012   0.7590774   4.3620492 -12.0703447
   1.8860012   5.1694997 -16.6460012   2.3600012   5.7604997 -17.2310012
   1.1690012   5.7004997 -16.2990012   1.8539341   5.3220867 -16.6791164
  12.0550012   8.7084997  -6.5730012  12.3780012   8.0774997  -7.2160012
  11.6150012   8.1734997  -5.9130012  12.0396895   8.5498441  -6.5717150
   8.8320012   4.6354997 -11.7890012   7.9210012   4.6924997 -11.5010012
   9.3380012   4.5754997 -10.9790012   8.7755413   4.6351985 -11.6399378
   3.6610012   6.2644997 -12.9630012   2.7710012   6.3644997 -13.3030012
   3.9570012   5.4224997 -13.3090012   3.5792823   6.1643545 -13.0562787
   7.3140012   6.2644997 -15.3060012   8.2450012   6.3934997 -15.1280012
   7.0990012   6.9344997 -15.9560012   7.4124247   6.3726565 -15.3694253
  13.2370012   3.8704997  -8.5250012  12.5610012   4.0014997  -7.8610012
  12.7520012   3.7154997  -9.3350012  13.0787145   3.8674905  -8.5435483
   5.9880012   7.4594997 -17.7390012   5.4450012   7.0794997 -18.4310012
   6.8210012   7.6534997 -18.1680012   6.0264399   7.4338124 -17.8915474
  16.5250012  19.5424997  -2.2480012  16.7250012  19.9664997  -3.0830012
  17.1800012  19.8854997  -1.6410012  16.6410051  19.6469648  -2.2802164
   4.1230012  12.0164997  -2.6400012   4.8550012  12.2704997  -2.0790012
   3.3430012  12.2204997  -2.1250012   4.1178232  12.0789177  -2.4934240
  10.1520012   7.4234997  -9.9020012  10.7170012   6.8764997 -10.4490012
  10.0050012   6.9014997  -9.1140012  10.2092918   7.2782024  -9.8701546
   5.1540012   3.5594997 -13.4840012   4.8370012   2.6574997 -13.5190012
   5.9360012   3.5614997 -14.0370012   5.2162284   3.4361628 -13.5635217
   8.7790012   5.8114997  -7.4880012   7.9430012   6.2654997  -7.3780012
   9.3030012   6.0874997  -6.7360012   8.7354414   5.9109376  -7.3712864
   9.3230012  12.0244997 -15.8040012   8.5780012  11.5174997 -16.1260012
   9.1890012  12.0734997 -14.8570012   9.2028776  11.9616940 -15.7201353
  16.4730012  11.1574997  -7.0170012  17.1150012  11.6144997  -7.5610012
  15.6430012  11.2704997  -7.4800012  16.4485963  11.2352704  -7.1539823
  13.2210012   4.8384997 -17.6040012  12.2820012   4.9504997 -17.7560012
  13.5180012   5.6954997 -17.2980012  13.1327666   4.9696443 -17.5834232
  10.8420012  12.2084997  -4.5670012  10.4970012  11.8274997  -3.7600012
  10.6420012  13.1424997  -4.4950012  10.7678061  12.2825228  -4.4469039
  13.9390012   6.7054997 -15.9440012  14.8310012   6.5684997 -15.6250012
  13.9960012   7.4964997 -16.4800012  14.0686285   6.7936660 -15.9728309
   4.4480012  11.3194997 -10.0340012   5.1930012  11.3174997 -10.6350012
   4.5260012  10.4964997  -9.5520012   4.5605518  11.2079315 -10.0511071
  11.4490012  13.4834997 -16.7780012  11.1530012  14.3094997 -16.3970012
  10.7460012  12.8634997 -16.5820012  11.3134914  13.5128199 -16.6993557
   1.4560012   9.7804997  -4.7190012   1.6790012   9.3624997  -3.8870012
   0.8540012   9.1674997  -5.1420012   1.4051759   9.6404668  -4.6622978
   8.4720012   9.2974997  -2.5060012   8.1760012   9.1314997  -3.4010012
   9.4040012   9.0774997  -2.5170012   8.5574166   9.2450640  -2.6299464
  13.0930012  14.6704997  -4.6160012  12.1920012  14.8534997  -4.8840012
  13.1270012  14.9294997  -3.6950012  12.9743041  14.7305512  -4.5281803
  18.8240012   6.9154997 -16.2490012  18.2700012   6.5194997 -16.9210012
  18.9240012   7.8254997 -16.5270012  18.7617059   6.9843586 -16.3785599
  18.7870012  12.7154997  -3.4120012  17.9360012  12.9534997  -3.7790012
  19.3780012  12.6984997  -4.1650012  18.7502487  12.7458258  -3.5641107
  17.1190012  15.7014997 -15.7840012  16.7460012  14.8754997 -15.4750012
  17.3970012  15.5184997 -16.6810012  17.1055630  15.5637303 -15.8630374
  14.2800012  10.5094997  -8.7630012  13.3510012  10.2774997  -8.7900012
  14.7310012   9.7324997  -9.0930012  14.2139216  10.3727238  -8.8113083
   6.8230012  14.8374997 -12.6300012   7.3500012  15.6104997 -12.8300012
   5.9430012  15.0624997 -12.9310012   6.7761773  14.9738005 -12.6980990
   2.5780012   9.6994997 -18.0430012   3.1940012  10.3264997 -17.6630012
   1.7160012  10.0154997 -17.7710012   2.5457698   9.8279430 -17.9542817
   8.2500012  12.5004997 -13.0530012   8.0090012  13.4254997 -13.0120012
   7.5090012  12.0414997 -12.6570012   8.1168409  12.5651421 -12.9938623
   8.7650012  16.6494997  -6.7380012   9.1270012  17.5044997  -6.9720012
   9.2960012  16.3574997  -5.9980012   8.8864473  16.7271060  -6.6699145
   6.9330012  17.5224997 -13.5080012   5.9830012  17.6274997 -13.4570012
   7.2850012  18.3424997 -13.1630012   6.8504203  17.6478314 -13.4543350
  12.3090012  12.7484997  -7.0380012  11.8830012  12.5214997  -6.2110012
  12.8890012  12.0104997  -7.2200012  12.3291868  12.6175299  -6.9494170
  14.5120012  13.6774997 -17.9640012  14.8650012  13.2974997 -17.1590012
  13.5630012  13.5844997 -17.8770012  14.4320441  13.6129596 -17.8421441
  14.9670012  17.3004997  -4.5680012  14.3660012  16.7454997  -5.0640012
  15.2490012  17.9674997  -5.1940012  14.9228519  17.3146841  -4.7205048
  19.0150012  18.1574997 -17.7630012  19.7590012  18.7434997 -17.9030012
  18.3210012  18.7254997 -17.4290012  19.0230292  18.3145582 -17.7370039
   3.0900012   4.5334997  -5.1610012   2.1970012   4.8724997  -5.2290012
   2.9910012   3.6784997  -4.7430012   2.9544164   4.4642588  -5.1137765
  15.3780012  12.3504997 -15.7370012  15.1000012  11.6224997 -15.1810012
  16.3050012  12.4694997 -15.5320012  15.4653124  12.2668802 -15.6331155
   2.7410012  16.3384997  -6.7260012   2.9580012  15.4064997  -6.7570012
   2.9870012  16.6124997  -5.8430012   2.8039549  16.2480636  -6.6108237
   8.6030012  14.7894997 -19.5170012   8.8420012  14.0414997 -20.0640012
   8.3340012  14.4014997 -18.6840012   8.5993675  14.6346638 -19.4793135
   7.5400012  14.3594997 -17.0600012   7.6860012  13.8394997 -16.2700012
   7.5370012  15.2664997 -16.7540012   7.5595989  14.4108853 -16.9103912
   3.9930012  11.6124997 -16.5500012   3.3070012  11.9644997 -15.9830012
   4.5150012  12.3754997 -16.7970012   3.9696852  11.7638578 -16.5057882
  11.8240012   4.2744997  -6.2710012  12.5230012   4.3484997  -5.6210012
  11.4430012   3.4104997  -6.1170012  11.8681767   4.1677624  -6.1611678
  12.6090012   3.9264997 -15.1740012  12.8290012   4.3984997 -15.9770012
  13.1670012   4.3214997 -14.5040012  12.7144968   4.0444285 -15.1932669
  10.2770012  16.0574997 -16.3110012   9.4610012  16.5544997 -16.2590012
  10.8070012  16.5324997 -16.9510012  10.2369161  16.1897722 -16.3904044
   9.8090012   5.6544997 -14.3390012  10.6210012   6.1594997 -14.2930012
   9.5640012   5.5094997 -13.4250012   9.8870520   5.7040375 -14.2091483
  10.3440012   6.6404997  -5.1540012  10.4630012   7.2144997  -4.3970012
  11.0000012   5.9524997  -5.0400012  10.4489757   6.6261079  -5.0349175
  10.6920012   2.7354997 -13.4010012  10.3460012   3.3534997 -12.7560012
  11.3510012   3.2364997 -13.8820012  10.7337826   2.8875802 -13.3779029
   7.6160012  17.1014997 -16.3290012   7.7760012  17.9004997 -16.8300012
   7.4180012  17.4074997 -15.4440012   7.6111649  17.2524469 -16.2780185
   6.3500012   3.7984997 -16.7140012   6.2670012   4.6874997 -16.3670012
   7.2400012   3.5334997 -16.4820012   6.4589469   3.8841430 -16.6352374
  16.5490012   4.5474997  -4.3190012  15.6320012   4.8104997  -4.4070012
  16.8840012   4.5444997  -5.2160012  16.4689900   4.5830224  -4.4522081
  15.1510012   8.2984997 -10.2240012  14.3530012   7.8834997 -10.5520012
  15.5960012   7.6074997  -9.7330012  15.1019885   8.1483543 -10.2025111
   4.6090012  14.2264997 -17.6530012   5.2010012  14.9254997 -17.3770012
   5.0680012  13.7934997 -18.3730012   4.7521142  14.2637049 -17.7125170
   2.9250012   6.8904997 -18.5370012   2.8800012   7.8294997 -18.3590012
   2.0370012   6.6544997 -18.8070012   2.7988574   6.9871892 -18.5491088
  16.2370012  17.5544997  -8.6010012  16.0820012  18.2324997  -9.2580012
  17.1700012  17.6264997  -8.3980012  16.3418500  17.6570170  -8.6634881
   3.7330012   1.6724997  -9.8640012   3.5040012   1.7314997 -10.7920012
   3.2900012   0.8804997  -9.5580012   3.6418530   1.5735753  -9.9495214
   2.6630012  15.6124997 -13.7040012   1.8310012  16.0854997 -13.6760012
   3.2090012  16.1224997 -14.3020012   2.6229739  15.7461871 -13.7810284
   1.9510012  18.2254997  -2.3740012   2.4920012  18.0084997  -1.6140012
   1.4700012  17.4194997  -2.5630012   1.9599345  18.0869514  -2.2956924
   6.5490012  17.1444997  -0.7530012   7.3160012  16.6854997  -0.4120012
   6.5270012  16.9184997  -1.6830012   6.6511434  17.0510409  -0.8319957
  10.6410012  16.6524997 -19.3780012   9.9970012  16.0214997 -19.0570012
  11.4030012  16.1214997 -19.6100012  10.6558077  16.4942920 -19.3653989
  13.1260012  15.5244997  -2.0240012  12.7750012  14.6684997  -1.7810012
  13.8520012  15.6674997  -1.4170012  13.1760769  15.4265636  -1.9086381
  15.2450012  16.4694997 -19.1440012  15.5280012  15.6754997 -18.6920012
  15.9850012  16.7024997 -19.7050012  15.3837486  16.3922803 -19.1579302
   1.8580012  12.0354997  -1.4190012   2.0020012  11.1334997  -1.7060012
   1.0860012  12.3214997  -1.9070012   1.7733322  11.9508261  -1.5242119
   6.2000012  12.3794997 -19.2870012   6.2640012  11.5854997 -18.7560012
   6.8530012  12.2604997 -19.9770012   6.2970241  12.2547148 -19.3075683
   8.5140012  12.0054997  -1.9870012   8.1850012  12.2764997  -2.8440012
   8.6660012  11.0644997  -2.0740012   8.4894809  11.9153862  -2.1161756
  14.2480012  11.9214997  -4.6030012  14.9940012  12.5094997  -4.7230012
  13.4910012  12.5034997  -4.5400012  14.2477554  12.0807011  -4.6109093
   2.6910012   9.2354997  -1.9990012   3.0990012   8.3784997  -2.1200012
   2.4310012   9.2504997  -1.0780012   2.7117568   9.1200807  -1.8910412
   7.3490012  10.3514997 -16.9810012   6.8890012   9.8674997 -16.2950012
   7.6040012   9.6834997 -17.6170012   7.3204902  10.1948731 -16.9730666
   6.6380012   8.2444997  -4.6250012   6.0200012   8.9194997  -4.3450012
   6.9820012   8.5654997  -5.4580012   6.5999615   8.3802721  -4.6993419
   8.4200012   8.5944997 -18.7190012   8.2400012   8.4404997 -19.6460012
   9.3700012   8.7024997 -18.6740012   8.5237776   8.5880175 -18.8398157
  11.6580012  10.7164997  -1.3480012  12.6110012  10.7994997  -1.3750012
  11.4970012  10.0044997  -0.7280012  11.7666426  10.6316746  -1.2679421
  17.8100012  10.9494997 -19.2730012  17.5360012  10.5244997 -20.0860012
  17.8490012  11.8804997 -19.4900012  17.7777699  11.0172484 -19.4136390
   6.9770012   5.5994997  -3.5430012   7.1270012   4.8704997  -4.1450012
   6.9800012   6.3764997  -4.1020012   6.9979302   5.6047851  -3.7009308
   7.3900012   3.9694997  -6.0500012   7.9260012   4.4204997  -6.7020012
   6.5380012   3.8614997  -6.4730012   7.3482178   4.0166390  -6.1964244
   8.9720012   9.4084997  -5.8110012   9.7220012   9.2524997  -6.3840012
   8.6330012  10.2604997  -6.0860012   9.0288921   9.5022968  -5.9266439
  13.3870012   7.2234997  -0.7820012  13.5800012   6.2924997  -0.8940012
  14.2450012   7.6484997  -0.7920012  13.5293020   7.1536389  -0.7986639
  14.7040012  10.0124997  -2.7050012  14.4230012  10.7214997  -3.2820012
  15.6470012   9.9394997  -2.8560012  14.7929027  10.0997646  -2.8044449
   5.4560012   6.7974997  -1.6310012   4.6890012   6.2654997  -1.8410012
   6.1350012   6.4874997  -2.2310012   5.4427022   6.6827506  -1.7408352
   8.1960012   1.4254997  -5.6190012   8.0970012   2.3724997  -5.7240012
   7.4530012   1.0534997  -6.0940012   8.0820564   1.5045902  -5.6975440
   9.4600012   5.7474997  -2.0550012   9.2240012   5.5274997  -1.1530012
   8.6760012   5.5404997  -2.5650012   9.3218628   5.6894760  -2.0006068
  12.1750012   4.8744997  -2.9790012  11.2280012   4.9064997  -2.8470012
  12.4880012   4.2494997  -2.3260012  12.0875475   4.7943207  -2.8725545
  13.8090012   3.5084997  -0.9740012  13.7130012   2.5564997  -0.9800012
  13.4880012   3.7774997  -0.1140012  13.7524070   3.4144035  -0.8584559
   3.6360012   4.7184997  -1.9270012   3.8480012   4.0114997  -2.5370012
   3.5250012   4.2804997  -1.0830012   3.6499721   4.5627084  -1.8963157
   8.4170012   0.7194997  -2.9470012   9.1290012   0.0794997  -2.9610012
   8.3160012   0.9864997  -3.8610012   8.5007939   0.6679938  -3.0724350
   8.7710012   2.4024997  -0.8940012   8.6390012   1.9264997  -1.7140012
   8.1720012   3.1464997  -0.9490012   8.6719071   2.4379618  -1.0137114
   8.3170012  19.2854997 -17.7170012   9.2500012  19.4434997 -17.5740012
   8.0530012  19.9604997 -18.3420012   8.4089510  19.3983611 -17.7819259
   1.8860012  13.9214997 -18.2350012   2.8000012  14.0004997 -17.9610012
   1.8930012  13.2344997 -18.9010012   2.0121131  13.8393961 -18.2875607
   0.5350012  19.3144997 -13.1570012  -0.1119988  18.8524997 -13.6900012
   0.8890012  18.6424997 -12.5750012   0.4943849  19.1604723 -13.1512041
   1.4050012  17.3954997 -11.3530012   1.0700012  16.5154997 -11.1810012
   1.6270012  17.7404997 -10.4880012   1.3891783  17.3217500 -11.2125792
  18.9530012  18.2044997  -8.3720012  18.9320012  18.3894997  -7.4330012
  19.6440012  18.7734997  -8.7130012  19.0434618  18.3066606  -8.2896136
  18.5170012  17.7724997  -5.4500012  18.0290012  17.0364997  -5.8210012
  19.0660012  17.3784997  -4.7720012  18.5244872  17.6186249  -5.4090840
  16.9670012  13.5614997  -0.8120012  16.1010012  13.4564997  -0.4180012
  17.3440012  14.3204997  -0.3660012  16.8993308  13.6496900  -0.6977607
  18.2680012  11.8184997 -15.2980012  19.1180012  12.2394997 -15.1710012
  18.2740012  11.0784997 -14.6910012  18.3851372  11.7760803 -15.1985656
  18.6630012   9.8714997 -13.4740012  17.9360012   9.3924997 -13.0770012
  19.2440012  10.0774997 -12.7420012  18.6419375   9.8337090 -13.3205871
  18.4220012  12.6564997  -8.5270012  19.2550012  12.2784997  -8.8070012
  18.5340012  13.5994997  -8.6460012  18.5512647  12.7322218  -8.5814513
  16.9080012  15.5344997  -6.2200012  16.2610012  15.8594997  -5.5940012
  16.3910012  15.0944997  -6.8940012  16.7494029  15.5195004  -6.2254173
  18.9310012   9.7724997 -17.0830012  18.4090012  10.1294997 -17.8020012
  18.8980012  10.4474997 -16.4050012  18.8551634   9.9125413 -17.0896855
  17.2800012   7.0124997 -18.5320012  17.3760012   7.6794997 -19.2130012
  17.1400012   6.1964997 -19.0140012  17.2742135   6.9934500 -18.6901509
  16.4490012   8.3924997 -12.9110012  16.2990012   7.4474997 -12.9320012
  16.0960012   8.6734997 -12.0680012  16.3806625   8.3010441 -12.7997654
   1.4850012  10.4704997  -8.9010012   1.6690012  10.3884997  -9.8370012
   2.3340012  10.3464997  -8.4770012   1.6250139  10.4425003  -8.9718545
  17.3060012  10.3624997  -3.2730012  17.8890012   9.6284997  -3.0810012
  17.8700012  11.1344997  -3.2260012  17.4619769  10.3664227  -3.2403841
  18.8020012   8.2654997  -2.5880012  17.9390012   7.8864997  -2.7540012
  19.4070012   7.5264997  -2.6620012  18.7655979   8.1138023  -2.6207183
  16.5270012   4.4204997 -19.4150012  17.1380012   4.0494997 -18.7780012
  15.6910012   3.9994997 -19.2190012  16.4975032   4.3127554 -19.3012965
  16.1600012   5.9754997 -14.4490012  16.4400012   5.0684997 -14.3250012
  16.9190012   6.4094997 -14.8380012  16.3009277   5.9100942 -14.4846318
  16.7720012   6.5564997  -9.0130012  17.7050012   6.7684997  -9.0470012
  16.5370012   6.6584997  -8.0910012  16.8678036   6.5992769  -8.8930024
  16.8010012   7.2934997  -6.2370012  15.9580012   7.5614997  -5.8710012
  17.2430012   8.1154997  -6.4480012  16.7454158   7.4413291  -6.2154509
   1.0820012   5.7414997  -2.7600012   2.0020012   5.6194997  -2.5240012
   0.6330012   4.9914997  -2.3710012   1.1471580   5.6233727  -2.6750994
  19.0840012   1.2734997  -0.8840012  19.4340012   0.6194997  -1.4890012
  19.2310012   2.1104997  -1.3230012  19.1518419   1.2971591  -1.0262882
  16.7730012   3.2384997 -14.4010012  16.9560012   2.7894997 -13.5750012
  16.1740012   2.6534997 -14.8640012  16.7170202   3.0979975 -14.3506725
   2.3030012   4.0534997  -9.8690012   2.7490012   3.2614997  -9.5670012
   2.7700012   4.7694997  -9.4380012   2.4270172   4.0420624  -9.7695180
   0.6070012   7.0524997  -8.8000012   1.0990012   6.8314997  -9.5910012
   0.9700012   7.8934997  -8.5190012   0.7233126   7.1358357  -8.8702469
  18.6040012   3.3824997  -2.5340012  17.6860012   3.6534997  -2.5700012
  18.7270012   2.8474997  -3.3190012  18.4951066   3.3472892  -2.6449513
  18.6400012   3.3054997 -17.8730012  19.0520012   2.5844997 -18.3480012
  19.3220012   3.9754997 -17.8140012  18.7885885   3.2972368 -17.9301085
   0.9210012   3.3104997 -14.7460012  -0.0039988   3.5194997 -14.8750012
   1.3750012   3.7944997 -15.4350012   0.8557368   3.4045993 -14.8568774
  15.6920012  18.2944997 -12.8000012  16.3440012  17.9474997 -13.4080012
  16.2020012  18.7834997 -12.1540012  15.8502637  18.3130597 -12.7959764
   0.8850012   2.0484997  -6.4010012   0.2200012   1.8024997  -5.7580012
   0.4420012   2.6704997  -6.9790012   0.7340956   2.0988632  -6.3910648
   3.0770012  15.2234997  -2.2570012   2.2560012  15.3984997  -2.7170012
   2.8240012  15.1504997  -1.3360012   2.9306164  15.2375622  -2.1955077
   6.0310012  16.1984997  -5.9980012   5.6060012  17.0074997  -6.2810012
   6.9350012  16.2834997  -6.3000012   6.0950271  16.3208469  -6.0776224
  10.3420012  17.5974997  -3.0390012  10.5270012  17.2634997  -2.1610012
  11.1880012  17.9064997  -3.3610012  10.4817539  17.5936047  -2.9624395
  12.6870012  18.8834997  -3.7950012  13.3640012  18.2504997  -4.0350012
  13.0090012  19.2844997  -2.9880012  12.8231637  18.8511154  -3.7187207
  17.6040012   1.4724997  -4.7150012  16.7920012   1.7974997  -5.1030012
  17.8370012   0.7124997  -5.2480012  17.5243423   1.4142436  -4.8401747
   3.4330012  19.4544997  -5.9510012   2.7120012  19.8944997  -6.4020012
   3.0670012  19.2034997  -5.1020012   3.2849804  19.4807698  -5.8980160
   5.9000012  19.0544997  -6.9210012   5.0350012  19.1264997  -6.5170012
   5.8450012  19.6014997  -7.7050012   5.7742085  19.1382685  -6.9716638
  10.6100012  18.9424997  -7.7460012  10.1540012  19.4714997  -8.4000012
  10.7730012  19.5454997  -7.0200012  10.5695585  19.0964468  -7.7374938
  12.9380012  17.8204997  -6.8010012  12.0330012  17.9854997  -7.0660012
  13.3670012  18.6734997  -6.8660012  12.8720799  17.9584483  -6.8460818
  15.5420012  19.3904997  -6.5060012  15.3600012  20.3064997  -6.7160012
  15.7190012  18.9804997  -7.3520012  15.5410210  19.4604822  -6.6492115
   2.8470012  18.0774997  -9.0410012   2.8290012  17.6524997  -8.1830012
   3.6520012  17.7594997  -9.4490012   2.9533875  17.9763812  -8.9788345
   4.9890012  16.7874997 -10.3860012   4.7700012  15.8714997 -10.2160012
   5.8130012  16.9274997  -9.9200012   5.0704420  16.6810520 -10.2997226
   7.5260012  17.2574997  -9.5370012   7.7390012  16.3694997  -9.8240012
   7.5900012  17.2234997  -8.5830012   7.5638231  17.1313102  -9.4472603
  11.0340012   2.9214997 -10.3930012  10.3600012   2.2924997 -10.1370012
  11.5980012   2.4374997 -10.9960012  11.0179230   2.7698744 -10.4394660
  16.1770012   1.0294997 -10.2800012  16.7810012   1.5764997 -10.7820012
  15.3070012   1.3484997 -10.5200012  16.1421241   1.1475806 -10.3812346
  17.9040012   2.1674997 -11.9470012  18.5160012   1.6534997 -12.4730012
  18.2860012   3.0454997 -11.9230012  18.0394540   2.2157140 -12.0158170
   3.3610012   1.5554997 -12.5710012   2.5840012   1.3214997 -13.0780012
   3.8910012   0.7584997 -12.5620012   3.3262330   1.4156988 -12.6392258
   2.1970012   1.3534997 -16.7670012   2.6360012   1.9644997 -17.3590012
   1.5640012   1.8914997 -16.2930012   2.1714514   1.5099257 -16.7839070
   7.9400012   1.4824997 -12.7570012   8.8150012   1.8704997 -12.7870012
   7.8040012   1.2674997 -11.8350012   8.0413695   1.5065184 -12.6363560
  13.4970012   1.5124997 -11.1080012  13.5730012   1.6074997 -12.0580012
  13.2220012   0.6044997 -10.9790012  13.4702321   1.4027867 -11.2204921
  14.8500012   1.5384997 -15.4160012  14.1480012   2.1534997 -15.6250012
  14.4060012   0.7004997 -15.2850012  14.6936330   1.5095783 -15.4269672
   2.0980012  17.3014997 -15.8690012   1.4130012  17.2634997 -16.5370012
   2.1020012  18.2144997 -15.5810012   2.0048193  17.4197016 -15.9214716
   4.0580012   3.2694997 -18.3250012   4.5500012   2.6394997 -18.8520012
   4.6820012   3.5654997 -17.6610012   4.2095446   3.2233199 -18.3074020
   9.0840012   3.5624997 -15.8680012   9.2620012   2.9164997 -15.1850012
   9.0310012   4.3964997 -15.4000012   9.1011829   3.5867985 -15.7114060
  10.9630012  18.5114997 -17.4720012  11.8290012  18.8774997 -17.6500012
  10.7160012  18.0714997 -18.2860012  11.0482392  18.5021756 -17.6063711
  17.6720012  18.0744997 -14.7930012  17.4770012  17.3264997 -15.3580012
  17.6330012  18.8324997 -15.3760012  17.6400380  18.0746099 -14.9491616
   3.3190012   2.0694997  -3.0530012   2.9530012   1.3044997  -2.6100012
   4.2320012   2.0984997  -2.7660012   3.3922790   1.9687224  -2.9535930
   5.2920012   1.4204997  -1.5170012   6.1900012   1.1464997  -1.7020012
   4.9050012   0.6774997  -1.0530012   5.3626612   1.2825914  -1.4796357
   3.9160012  18.2214997 -18.8440012   3.6490012  18.5084997 -17.9710012
   4.6880012  17.6754997 -18.6920012   3.9837488  18.1870294 -18.7038950
  13.7130012   0.7524997  -1.3350012  13.7900012   0.3264997  -0.4810012
  14.6070012   0.7664997  -1.6780012  13.8443428   0.6960879  -1.2644690
  16.8890012  16.8254997  -2.6430012  16.1070012  16.6394997  -3.1620012
  16.8170012  17.7544997  -2.4250012  16.7721777  16.9256492  -2.6845952
  31.2950012  10.7114997 -12.6120012  31.3840012  11.6554997 -12.7440012
  30.6570012  10.4364997 -13.2700012  31.2209081  10.8034830 -12.7190386
  30.2280012   9.9664997  -9.1930012  30.1900012   9.3204997  -8.4880012
  29.9060012   9.5004997  -9.9640012  30.1792333   9.8149408  -9.2007022
  22.5970012   9.5814997  -7.6000012  22.6380012   8.9554997  -6.8770012
  23.3000012  10.2054997  -7.4180012  22.6976363   9.5801196  -7.4763956
  33.9340012  12.9054997 -10.8920012  33.4940012  12.1854997 -10.4410012
  33.9210012  13.6264997 -10.2620012  33.8720226  12.9043731 -10.7451506
  23.5200012  14.0314997  -9.0650012  23.1510012  13.2294997  -9.4350012
  24.4610012  13.8624997  -9.0190012  23.5967289  13.8990153  -9.1093684
  20.1300012   7.6914997 -13.6720012  19.6830012   8.5374997 -13.6910012
  19.5690012   7.1114997 -14.1880012  19.9929900   7.7289916 -13.7443199
  20.8410012   9.8534997 -11.5460012  21.0540012   9.0834997 -11.0190012
  21.5790012   9.9424997 -12.1500012  20.9698496   9.7601394 -11.5554700
  31.0460012  18.0104997 -10.6790012  31.6660012  17.3334997 -10.9530012
  30.8380012  17.7924997  -9.7710012  31.1026904  17.8883870 -10.5936635
  28.6180012  12.3994997  -8.7870012  28.9220012  11.7134997  -9.3820012
  29.3390012  12.5174997  -8.1690012  28.7570671  12.3216305  -8.7848184
  37.2810012   4.0004997  -7.9260012  37.3300012   4.6104997  -7.1900012
  37.7060012   4.4614997  -8.6490012  37.3451824   4.1463741  -7.9229795
  31.7590012   6.7934997  -8.4590012  31.9010012   5.8474997  -8.4390012
  31.6520012   7.0004997  -9.3880012  31.7639864   6.6919534  -8.5817661
  24.9130012   4.8944997 -11.1870012  24.9570012   5.7544997 -11.6050012
  24.4560012   4.3424997 -11.8210012  24.8572185   4.9375799 -11.3299701
  32.6360012   5.0254997 -12.7860012  33.2820012   4.6964997 -12.1610012
  33.1460012   5.5434997 -13.4090012  32.7934264   5.0504611 -12.7846138
  21.5340012   7.2914997 -10.4250012  22.1870012   6.7414997  -9.9930012
  21.5580012   7.0174997 -11.3420012  21.6266683   7.1791466 -10.4897877
  26.6900012   8.8414997 -11.2100012  27.3060012   8.3154997 -10.7000012
  26.1040012   8.2014997 -11.6130012  26.6950810   8.6829208 -11.1946827
  37.6720012   5.4784997  -5.6900012  36.9840012   6.1364997  -5.7860012
  37.6880012   5.2814997  -4.7540012  37.5798525   5.5420462  -5.5765192
  23.7240012   3.8124997  -7.1130012  23.5050012   4.3424997  -7.8790012
  23.0560012   4.0394997  -6.4660012  23.6037600   3.9156906  -7.1303621
  31.0930012  13.3124997 -13.5690012  30.7970012  12.9904997 -14.4200012
  30.7680012  14.2124997 -13.5280012  31.0086371  13.3900215 -13.6798199
  26.2930012  11.4884997  -6.8260012  25.5530012  12.0864997  -6.7220012
  27.0070012  12.0424997  -7.1410012  26.2882237  11.6452831  -6.8543535
  34.4000012   4.3164997 -10.8060012  34.1840012   3.5504997 -10.2730012
  35.0550012   4.7884997 -10.2930012  34.4590632   4.2755889 -10.6637139
  23.3170012   5.7044997  -9.1610012  23.9310012   6.3374997  -8.7870012
  23.8290012   5.2324997  -9.8170012  23.4702296   5.7272370  -9.1985748
  24.7000012  13.4524997  -6.0380012  24.6950012  14.3324997  -6.4160012
  23.8470012  13.3694997  -5.6130012  24.5839464  13.5616117  -6.0322093
  20.8210012  13.1234997 -15.2560012  20.5490012  13.3524997 -16.1450012
  20.8670012  13.9614997 -14.7960012  20.7900094  13.2681213 -15.3154303
  34.4460012  14.7454997  -8.5440012  33.5050012  14.8034997  -8.3820012
  34.7230012  15.6514997  -8.6810012  34.3544679  14.8759443  -8.5403185
  34.7470012   3.0314997  -7.1260012  34.0110012   3.6424997  -7.1640012
  35.4300012   3.4464997  -7.6530012  34.7386541   3.1711374  -7.2024168
  27.7500012   1.1184997  -9.6600012  27.6330012   0.1694997  -9.7150012
  26.8950012   1.4504997  -9.3870012  27.6183733   1.0335409  -9.6306103
  32.6980012  16.5264997 -11.9180012  33.1240012  15.8194997 -12.4030012
  33.0150012  17.3274997 -12.3350012  32.7991019  16.5380994 -12.0406870
  33.8580012  14.4274997 -13.4100012  33.6000012  13.7374997 -14.0210012
  33.9290012  13.9844997 -12.5640012  33.8322856  14.2732124 -13.3793115
  35.5440012  12.9934997  -4.9320012  35.6840012  12.4024997  -5.6720012
  35.7110012  13.8664997  -5.2890012  35.5856778  13.0306426  -5.0813035
  30.0170012   9.9554997 -15.1600012  29.3050012  10.4904997 -15.5120012
  30.7080012  10.0114997 -15.8200012  30.0130132  10.0362543 -15.2973711
  30.0700012   8.4134997 -18.1210012  30.7710012   8.4354997 -17.4700012
  30.3730012   7.7854997 -18.7770012  30.2067830   8.3316566 -18.1206289
  37.3860012   9.3334997  -6.8660012  36.7330012  10.0284997  -6.7770012
  37.8510012   9.5434997  -7.6760012  37.3595390   9.4569425  -6.9633117
  33.4220012  10.1654997 -14.2080012  32.6900012  10.3934997 -13.6350012
  33.8700012   9.4514997 -13.7530012  33.3823095  10.1002571 -14.0680881
  33.3200012   8.3394997  -5.1410012  33.4000012   9.1024997  -4.5690012
  32.7180012   8.6184997  -5.8310012  33.2495756   8.4817134  -5.1559411
  25.0680012  10.7954997 -12.3260012  24.7370012  10.4254997 -13.1440012
  25.6560012  10.1254997 -11.9790012  25.1021873  10.6541156 -12.3911898
  26.4340012  14.2234997  -9.6440012  26.3400012  13.6454997 -10.4010012
  27.1640012  13.8524997  -9.1480012  26.5197981  14.0942390  -9.6805835
  25.4340012   9.5644997  -8.6920012  26.0000012   9.6854997  -9.4550012
  25.7530012  10.2014997  -8.0530012  25.5545786   9.6671884  -8.7099960
  31.7430012  15.0674997  -7.9580012  31.5030012  15.7294997  -7.3100012
  31.5450012  14.2334997  -7.5330012  31.6833808  15.0453134  -7.8118476
  26.3140012  13.9634997  -3.9750012  26.0030012  14.7454997  -3.5200012
  25.6640012  13.8104997  -4.6610012  26.1835558  14.0499105  -4.0054129
  32.2930012   9.3274997 -16.5230012  32.8730012   9.4774997 -15.7760012
  32.7070012   9.7984997 -17.2460012  32.4282830   9.4116841 -16.5185866
  23.2340012  10.1614997  -4.7460012  23.3050012  10.8124997  -4.0480012
  22.3440012  10.2644997  -5.0810012  23.1233117  10.2645936  -4.6957300
  30.0200012  16.0644997 -13.0880012  30.4940012  16.3594997 -12.3100012
  29.4570012  16.8024997 -13.3210012  30.0087653  16.2046932 -13.0129864
  24.5540012  16.0354997  -3.2120012  24.5610012  15.8994997  -4.1590012
  23.6380012  15.9174997  -2.9600012  24.4311714  16.0009430  -3.3075334
  35.9920012   1.0774997 -16.7100012  35.0920012   1.2164997 -16.4150012
  36.2440012   1.9084997 -17.1120012  35.9028702   1.2089074 -16.7239795
  24.0580012   9.8654997 -14.7360012  23.7660012  10.6334997 -15.2270012
  23.3840012   9.2054997 -14.8990012  23.9269081   9.8814406 -14.8252660
  37.1810012  15.4434997 -18.3340012  37.2550012  16.3824997 -18.1630012
  38.0870012  15.1384997 -18.3900012  37.3135100  15.5306722 -18.3181881
  20.1510012  12.2284997  -5.9210012  19.6500012  12.2004997  -6.7360012
  20.1560012  11.3224997  -5.6120012  20.0831526  12.1022278  -5.9907128
  19.9010012  15.0084997  -9.0370012  20.8470012  14.8644997  -9.0560012
  19.7890012  15.7924997  -8.5000012  20.0152727  15.0948046  -8.9669928
  38.0990012  15.6744997  -3.3550012  38.0500012  14.7194997  -3.3920012
  37.2720012  15.9424997  -2.9540012  37.9804940  15.5798998  -3.3058625
  29.0780012  15.2484997  -4.4790012  29.1650012  16.0744997  -4.0040012
  28.2140012  14.9184997  -4.2300012  28.9731964  15.3169878  -4.3803451
  29.4920012  19.0204997 -14.6730012  29.4170012  18.8994997 -15.6190012
  29.5250012  19.9704997 -14.5540012  29.4861848  19.1322500 -14.7865166
  23.1450012  17.8094997 -12.8920012  23.2980012  17.4614997 -12.0130012
  22.2950012  17.4534997 -13.1470012  23.0508962  17.7136650 -12.8061660
  32.5940012  18.1744997 -17.6710012  32.9690012  17.4304997 -18.1410012
  32.5980012  17.9044997 -16.7520012  32.6458915  18.0361486 -17.6112176
  32.2630012  18.1004997 -14.9210012  31.3270012  18.2004997 -14.7430012
  32.5430012  17.3914997 -14.3430012  32.1728255  18.0182711 -14.8184609
  35.2510012   7.1674997  -2.8750012  34.8440012   7.6484997  -3.5960012
  35.2920012   6.2624997  -3.1830012  35.2008437   7.1109374  -3.0153317
  22.4000012  13.5514997  -4.8780012  22.6160012  13.1904997  -4.0190012
  21.5450012  13.1774997  -5.0880012  22.3139292  13.4514111  -4.7886614
  25.0190012   2.0214997  -8.8830012  24.1570012   1.9344997  -9.2900012
  24.9960012   2.8774997  -8.4550012  24.8980330   2.1252765  -8.8808137
  29.6820012   1.7434997  -5.5080012  30.1020012   1.3284997  -4.7550012
  28.7490012   1.5654997  -5.3910012  29.6133644   1.6625900  -5.3890461
  33.0080012   5.4994997  -4.6550012  32.4940012   5.3734997  -3.8570012
  32.8530012   6.4114997  -4.8990012  32.9166852   5.6056132  -4.5787842
  33.7710012  10.3604997 -18.8930012  33.8130012  10.1374997 -19.8230012
  34.6200012  10.7594997 -18.7030012  33.8915396  10.3839155 -18.9946373
  29.3430012   4.2364997 -18.2230012  29.0900012   4.2554997 -17.3000012
  29.0870012   3.3644997 -18.5240012  29.2737790   4.1212437 -18.1373737
  25.1100012   6.9874997  -7.7880012  24.4680012   6.9464997  -7.0790012
  25.1470012   7.9134997  -8.0250012  25.0271324   7.1071559  -7.7230176
  25.1070012   7.2084997 -12.8760012  24.2140012   6.8674997 -12.9340012
  25.5570012   6.8314997 -13.6310012  25.0457305   7.1108484 -12.9860823
  30.6420012   7.6244997 -14.0590012  30.2330012   8.4394997 -14.3500012
  31.3630012   7.4844997 -14.6730012  30.6834537   7.7172018 -14.1818658
  29.7440012   7.7994997  -2.5710012  29.1820012   7.0954997  -2.2500012
  30.5710012   7.6794997  -2.1030012  29.7787095   7.6867883  -2.4637670
  31.6470012   7.0704997 -11.2450012  31.4520012   7.6754997 -11.9600012
  31.8280012   6.2364997 -11.6790012  31.6447614   7.0406300 -11.4015595
  22.8600012   7.3074997  -5.9210012  22.8220012   7.7074997  -5.0520012
  22.3690012   6.4904997  -5.8300012  22.7884684   7.2518069  -5.7898941
  26.2260012   4.6814997 -19.1220012  25.7950012   4.2364997 -18.3920012
  25.5080012   5.0534997 -19.6340012  26.0699438   4.6708940 -19.0913201
  19.4680012   4.4234997 -12.0700012  20.0990012   4.3944997 -11.3510012
  19.9170012   3.9984997 -12.8000012  19.6150774   4.3620492 -12.0703447
  20.7420012   5.1694997 -16.6460012  21.2160012   5.7604997 -17.2310012
  20.0250012   5.7004997 -16.2990012  20.7099341   5.3220867 -16.6791164
  30.9110012   8.7084997  -6.5730012  31.2340012   8.0774997  -7.2160012
  30.4710012   8.1734997  -5.9130012  30.8956895   8.5498441  -6.5717150
  27.6880012   4.6354997 -11.7890012  26.7770012   4.6924997 -11.5010012
  28.1940012   4.5754997 -10.9790012  27.6315413   4.6351985 -11.6399378
  22.5170012   6.2644997 -12.9630012  21.6270012   6.3644997 -13.3030012
  22.8130012   5.4224997 -13.3090012  22.4352823   6.1643545 -13.0562787
  26.1700012   6.2644997 -15.3060012  27.1010012   6.3934997 -15.1280012
  25.9550012   6.9344997 -15.9560012  26.2684247   6.3726565 -15.3694253
  32.0930012   3.8704997  -8.5250012  31.4170012   4.0014997  -7.8610012
  31.6080012   3.7154997  -9.3350012  31.9347145   3.8674905  -8.5435483
  24.8440012   7.4594997 -17.7390012  24.3010012   7.0794997 -18.4310012
  25.6770012   7.6534997 -18.1680012  24.8824399   7.4338124 -17.8915474
  35.3810012  19.5424997  -2.2480012  35.5810012  19.9664997  -3.0830012
  36.0360012  19.8854997  -1.6410012  35.4970051  19.6469648  -2.2802164
  22.9790012  12.0164997  -2.6400012  23.7110012  12.2704997  -2.0790012
  22.1990012  12.2204997  -2.1250012  22.9738232  12.0789177  -2.4934240
  29.0080012   7.4234997  -9.9020012  29.5730012   6.8764997 -10.4490012
  28.8610012   6.9014997  -9.1140012  29.0652918   7.2782024  -9.8701546
  24.0100012   3.5594997 -13.4840012  23.6930012   2.6574997 -13.5190012
  24.7920012   3.5614997 -14.0370012  24.0722284   3.4361628 -13.5635217
  27.6350012   5.8114997  -7.4880012  26.7990012   6.2654997  -7.3780012
  28.1590012   6.0874997  -6.7360012  27.5914414   5.9109376  -7.3712864
  28.1790012  12.0244997 -15.8040012  27.4340012  11.5174997 -16.1260012
  28.0450012  12.0734997 -14.8570012  28.0588776  11.9616940 -15.7201353
  35.3290012  11.1574997  -7.0170012  35.9710012  11.6144997  -7.5610012
  34.4990012  11.2704997  -7.4800012  35.3045963  11.2352704  -7.1539823
  32.0770012   4.8384997 -17.6040012  31.1380012   4.9504997 -17.7560012
  32.3740012   5.6954997 -17.2980012  31.9887666   4.9696443 -17.5834232
  29.6980012  12.2084997  -4.5670012  29.3530012  11.8274997  -3.7600012
  29.4980012  13.1424997  -4.4950012  29.6238061  12.2825228  -4.4469039
  32.7950012   6.7054997 -15.9440012  33.6870012   6.5684997 -15.6250012
  32.8520012   7.4964997 -16.4800012  32.9246285   6.7936660 -15.9728309
  23.3040012  11.3194997 -10.0340012  24.0490012  11.3174997 -10.6350012
  23.3820012  10.4964997  -9.5520012  23.4165518  11.2079315 -10.0511071
  30.3050012  13.4834997 -16.7780012  30.0090012  14.3094997 -16.3970012
  29.6020012  12.8634997 -16.5820012  30.1694914  13.5128199 -16.6993557
  20.3120012   9.7804997  -4.7190012  20.5350012   9.3624997  -3.8870012
  19.7100012   9.1674997  -5.1420012  20.2611759   9.6404668  -4.6622978
  27.3280012   9.2974997  -2.5060012  27.0320012   9.1314997  -3.4010012
  28.2600012   9.0774997  -2.5170012  27.4134166   9.2450640  -2.6299464
  31.9490012  14.6704997  -4.6160012  31.0480012  14.8534997  -4.8840012
  31.9830012  14.9294997  -3.6950012  31.8303041  14.7305512  -4.5281803
  37.6800012   6.9154997 -16.2490012  37.1260012   6.5194997 -16.9210012
  37.7800012   7.8254997 -16.5270012  37.6177059   6.9843586 -16.3785599
  37.6430012  12.7154997  -3.4120012  36.7920012  12.9534997  -3.7790012
  38.2340012  12.6984997  -4.1650012  37.6062487  12.7458258  -3.5641107
  35.9750012  15.7014997 -15.7840012  35.6020012  14.8754997 -15.4750012
  36.2530012  15.5184997 -16.6810012  35.9615630  15.5637303 -15.8630374
  33.1360012  10.5094997  -8.7630012  32.2070012  10.2774997  -8.7900012
  33.5870012   9.7324997  -9.0930012  33.0699216  10.3727238  -8.8113083
  25.6790012  14.8374997 -12.6300012  26.2060012  15.6104997 -12.8300012
  24.7990012  15.0624997 -12.9310012  25.6321773  14.9738005 -12.6980990
  21.4340012   9.6994997 -18.0430012  22.0500012  10.3264997 -17.6630012
  20.5720012  10.0154997 -17.7710012  21.4017698   9.8279430 -17.9542817
  27.1060012  12.5004997 -13.0530012  26.8650012  13.4254997 -13.0120012
  26.3650012  12.0414997 -12.6570012  26.9728409  12.5651421 -12.9938623
  27.6210012  16.6494997  -6.7380012  27.9830012  17.5044997  -6.9720012
  28.1520012  16.3574997  -5.9980012  27.7424473  16.7271060  -6.6699145
  25.7890012  17.5224997 -13.5080012  24.8390012  17.6274997 -13.4570012
  26.1410012  18.3424997 -13.1630012  25.7064203  17.6478314 -13.4543350
  31.1650012  12.7484997  -7.0380012  30.7390012  12.5214997  -6.2110012
  31.7450012  12.0104997  -7.2200012  31.1851868  12.6175299  -6.9494170
  33.3680012  13.6774997 -17.9640012  33.7210012  13.2974997 -17.1590012
  32.4190012  13.5844997 -17.8770012  33.2880441  13.6129596 -17.8421441
  33.8230012  17.3004997  -4.5680012  33.2220012  16.7454997  -5.0640012
  34.1050012  17.9674997  -5.1940012  33.7788519  17.3146841  -4.7205048
  37.8710012  18.1574997 -17.7630012  38.6150012  18.7434997 -17.9030012
  37.1770012  18.7254997 -17.4290012  37.8790292  18.3145582 -17.7370039
  21.9460012   4.5334997  -5.1610012  21.0530012   4.8724997  -5.2290012
  21.8470012   3.6784997  -4.7430012  21.8104164   4.4642588  -5.1137765
  34.2340012  12.3504997 -15.7370012  33.9560012  11.6224997 -15.1810012
  35.1610012  12.4694997 -15.5320012  34.3213124  12.2668802 -15.6331155
  21.5970012  16.3384997  -6.7260012  21.8140012  15.4064997  -6.7570012
  21.8430012  16.6124997  -5.8430012  21.6599549  16.2480636  -6.6108237
  27.4590012  14.7894997 -19.5170012  27.6980012  14.0414997 -20.0640012
  27.1900012  14.4014997 -18.6840012  27.4553675  14.6346638 -19.4793135
  26.3960012  14.3594997 -17.0600012  26.5420012  13.8394997 -16.2700012
  26.3930012  15.2664997 -16.7540012  26.4155989  14.4108853 -16.9103912
  22.8490012  11.6124997 -16.5500012  22.1630012  11.9644997 -15.9830012
  23.3710012  12.3754997 -16.7970012  22.8256852  11.7638578 -16.5057882
  30.6800012   4.2744997  -6.2710012  31.3790012   4.3484997  -5.6210012
  30.2990012   3.4104997  -6.1170012  30.7241767   4.1677624  -6.1611678
  31.4650012   3.9264997 -15.1740012  31.6850012   4.3984997 -15.9770012
  32.0230012   4.3214997 -14.5040012  31.5704968   4.0444285 -15.1932669
  29.1330012  16.0574997 -16.3110012  28.3170012  16.5544997 -16.2590012
  29.6630012  16.5324997 -16.9510012  29.0929161  16.1897722 -16.3904044
  28.6650012   5.6544997 -14.3390012  29.4770012   6.1594997 -14.2930012
  28.4200012   5.5094997 -13.4250012  28.7430520   5.7040375 -14.2091483
  29.2000012   6.6404997  -5.1540012  29.3190012   7.2144997  -4.3970012
  29.8560012   5.9524997  -5.0400012  29.3049757   6.6261079  -5.0349175
  29.5480012   2.7354997 -13.4010012  29.2020012   3.3534997 -12.7560012
  30.2070012   3.2364997 -13.8820012  29.5897826   2.8875802 -13.3779029
  26.4720012  17.1014997 -16.3290012  26.6320012  17.9004997 -16.8300012
  26.2740012  17.4074997 -15.4440012  26.4671649  17.2524469 -16.2780185
  25.2060012   3.7984997 -16.7140012  25.1230012   4.6874997 -16.3670012
  26.0960012   3.5334997 -16.4820012  25.3149469   3.8841430 -16.6352374
  35.4050012   4.5474997  -4.3190012  34.4880012   4.8104997  -4.4070012
  35.7400012   4.5444997  -5.2160012  35.3249900   4.5830224  -4.4522081
  34.0070012   8.2984997 -10.2240012  33.2090012   7.8834997 -10.5520012
  34.4520012   7.6074997  -9.7330012  33.9579885   8.1483543 -10.2025111
  23.4650012  14.2264997 -17.6530012  24.0570012  14.9254997 -17.3770012
  23.9240012  13.7934997 -18.3730012  23.6081142  14.2637049 -17.7125170
  21.7810012   6.8904997 -18.5370012  21.7360012   7.8294997 -18.3590012
  20.8930012   6.6544997 -18.8070012  21.6548574   6.9871892 -18.5491088
  35.0930012  17.5544997  -8.6010012  34.9380012  18.2324997  -9.2580012
  36.0260012  17.6264997  -8.3980012  35.1978500  17.6570170  -8.6634881
  22.5890012   1.6724997  -9.8640012  22.3600012   1.7314997 -10.7920012
  22.1460012   0.8804997  -9.5580012  22.4978530   1.5735753  -9.9495214
  21.5190012  15.6124997 -13.7040012  20.6870012  16.0854997 -13.6760012
  22.0650012  16.1224997 -14.3020012  21.4789739  15.7461871 -13.7810284
  20.8070012  18.2254997  -2.3740012  21.3480012  18.0084997  -1.6140012
  20.3260012  17.4194997  -2.5630012  20.8159345  18.0869514  -2.2956924
  25.4050012  17.1444997  -0.7530012  26.1720012  16.6854997  -0.4120012
  25.3830012  16.9184997  -1.6830012  25.5071434  17.0510409  -0.8319957
  29.4970012  16.6524997 -19.3780012  28.8530012  16.0214997 -19.0570012
  30.2590012  16.1214997 -19.6100012  29.5118077  16.4942920 -19.3653989
  31.9820012  15.5244997  -2.0240012  31.6310012  14.6684997  -1.7810012
  32.7080012  15.6674997  -1.4170012  32.0320769  15.4265636  -1.9086381
  34.1010012  16.4694997 -19.1440012  34.3840012  15.6754997 -18.6920012
  34.8410012  16.7024997 -19.7050012  34.2397486  16.3922803 -19.1579302
  20.7140012  12.0354997  -1.4190012  20.8580012  11.1334997  -1.7060012
  19.9420012  12.3214997  -1.9070012  20.6293322  11.9508261  -1.5242119
  25.0560012  12.3794997 -19.2870012  25.1200012  11.5854997 -18.7560012
  25.7090012  12.2604997 -19.9770012  25.1530241  12.2547148 -19.3075683
  27.3700012  12.0054997  -1.9870012  27.0410012  12.2764997  -2.8440012
  27.5220012  11.0644997  -2.0740012  27.3454809  11.9153862  -2.1161756
  33.1040012  11.9214997  -4.6030012  33.8500012  12.5094997  -4.7230012
  32.3470012  12.5034997  -4.5400012  33.1037554  12.0807011  -4.6109093
  21.5470012   9.2354997  -1.9990012  21.9550012   8.3784997  -2.1200012
  21.2870012   9.2504997  -1.0780012  21.5677568   9.1200807  -1.8910412
  26.2050012  10.3514997 -16.9810012  25.7450012   9.8674997 -16.2950012
  26.4600012   9.6834997 -17.6170012  26.1764902  10.1948731 -16.9730666
  25.4940012   8.2444997  -4.6250012  24.8760012   8.9194997  -4.3450012
  25.8380012   8.5654997  -5.4580012  25.4559615   8.3802721  -4.6993419
  27.2760012   8.5944997 -18.7190012  27.0960012   8.4404997 -19.6460012
  28.2260012   8.7024997 -18.6740012  27.3797776   8.5880175 -18.8398157
  30.5140012  10.7164997  -1.3480012  31.4670012  10.7994997  -1.3750012
  30.3530012  10.0044997  -0.7280012  30.6226426  10.6316746  -1.2679421
  36.6660012  10.9494997 -19.2730012  36.3920012  10.5244997 -20.0860012
  36.7050012  11.8804997 -19.4900012  36.6337699  11.0172484 -19.4136390
  25.8330012   5.5994997  -3.5430012  25.9830012   4.8704997  -4.1450012
  25.8360012   6.3764997  -4.1020012  25.8539302   5.6047851  -3.7009308
  26.2460012   3.9694997  -6.0500012  26.7820012   4.4204997  -6.7020012
  25.3940012   3.8614997  -6.4730012  26.2042178   4.0166390  -6.1964244
  27.8280012   9.4084997  -5.8110012  28.5780012   9.2524997  -6.3840012
  27.4890012  10.2604997  -6.0860012  27.8848921   9.5022968  -5.9266439
  32.2430012   7.2234997  -0.7820012  32.4360012   6.2924997  -0.8940012
  33.1010012   7.6484997  -0.7920012  32.3853020   7.1536389  -0.7986639
  33.5600012  10.0124997  -2.7050012  33.2790012  10.7214997  -3.2820012
  34.5030012   9.9394997  -2.8560012  33.6489027  10.0997646  -2.8044449
  24.3120012   6.7974997  -1.6310012  23.5450012   6.2654997  -1.8410012
  24.9910012   6.4874997  -2.2310012  24.2987022   6.6827506  -1.7408352
  27.0520012   1.4254997  -5.6190012  26.9530012   2.3724997  -5.7240012
  26.3090012   1.0534997  -6.0940012  26.9380564   1.5045902  -5.6975440
  28.3160012   5.7474997  -2.0550012  28.0800012   5.5274997  -1.1530012
  27.5320012   5.5404997  -2.5650012  28.1778628   5.6894760  -2.0006068
  31.0310012   4.8744997  -2.9790012  30.0840012   4.9064997  -2.8470012
  31.3440012   4.2494997  -2.3260012  30.9435475   4.7943207  -2.8725545
  32.6650012   3.5084997  -0.9740012  32.5690012   2.5564997  -0.9800012
  32.3440012   3.7774997  -0.1140012  32.6084070   3.4144035  -0.8584559
  22.4920012   4.7184997  -1.9270012  22.7040012   4.0114997  -2.5370012
  22.3810012   4.2804997  -1.0830012  22.5059721   4.5627084  -1.8963157
  27.2730012   0.7194997  -2.9470012  27.9850012   0.0794997  -2.9610012
  27.1720012   0.9864997  -3.8610012  27.3567939   0.6679938  -3.0724350
  27.6270012   2.4024997  -0.8940012  27.4950012   1.9264997  -1.7140012
  27.0280012   3.1464997  -0.9490012  27.5279071   2.4379618  -1.0137114
  27.1730012  19.2854997 -17.7170012  28.1060012  19.4434997 -17.5740012
  26.9090012  19.9604997 -18.3420012  27.2649510  19.3983611 -17.7819259
  20.7420012  13.9214997 -18.2350012  21.6560012  14.0004997 -17.9610012
  20.7490012  13.2344997 -18.9010012  20.8681131  13.8393961 -18.2875607
  19.3910012  19.3144997 -13.1570012  18.7440012  18.8524997 -13.6900012
  19.7450012  18.6424997 -12.5750012  19.3503849  19.1604723 -13.1512041
  20.2610012  17.3954997 -11.3530012  19.9260012  16.5154997 -11.1810012
  20.4830012  17.7404997 -10.4880012  20.2451783  17.3217500 -11.2125792
  37.8090012  18.2044997  -8.3720012  37.7880012  18.3894997  -7.4330012
  38.5000012  18.7734997  -8.7130012  37.8994618  18.3066606  -8.2896136
  37.3730012  17.7724997  -5.4500012  36.8850012  17.0364997  -5.8210012
  37.9220012  17.3784997  -4.7720012  37.3804872  17.6186249  -5.4090840
  35.8230012  13.5614997  -0.8120012  34.9570012  13.4564997  -0.4180012
  36.2000012  14.3204997  -0.3660012  35.7553308  13.6496900  -0.6977607
  37.1240012  11.8184997 -15.2980012  37.9740012  12.2394997 -15.1710012
  37.1300012  11.0784997 -14.6910012  37.2411372  11.7760803 -15.1985656
  37.5190012   9.8714997 -13.4740012  36.7920012   9.3924997 -13.0770012
  38.1000012  10.0774997 -12.7420012  37.4979375   9.8337090 -13.3205871
  37.2780012  12.6564997  -8.5270012  38.1110012  12.2784997  -8.8070012
  37.3900012  13.5994997  -8.6460012  37.4072647  12.7322218  -8.5814513
  35.7640012  15.5344997  -6.2200012  35.1170012  15.8594997  -5.5940012
  35.2470012  15.0944997  -6.8940012  35.6054029  15.5195004  -6.2254173
  37.7870012   9.7724997 -17.0830012  37.2650012  10.1294997 -17.8020012
  37.7540012  10.4474997 -16.4050012  37.7111634   9.9125413 -17.0896855
  36.1360012   7.0124997 -18.5320012  36.2320012   7.6794997 -19.2130012
  35.9960012   6.1964997 -19.0140012  36.1302135   6.9934500 -18.6901509
  35.3050012   8.3924997 -12.9110012  35.1550012   7.4474997 -12.9320012
  34.9520012   8.6734997 -12.0680012  35.2366625   8.3010441 -12.7997654
  20.3410012  10.4704997  -8.9010012  20.5250012  10.3884997  -9.8370012
  21.1900012  10.3464997  -8.4770012  20.4810139  10.4425003  -8.9718545
  36.1620012  10.3624997  -3.2730012  36.7450012   9.6284997  -3.0810012
  36.7260012  11.1344997  -3.2260012  36.3179769  10.3664227  -3.2403841
  37.6580012   8.2654997  -2.5880012  36.7950012   7.8864997  -2.7540012
  38.2630012   7.5264997  -2.6620012  37.6215979   8.1138023  -2.6207183
  35.3830012   4.4204997 -19.4150012  35.9940012   4.0494997 -18.7780012
  34.5470012   3.9994997 -19.2190012  35.3535032   4.3127554 -19.3012965
  35.0160012   5.9754997 -14.4490012  35.2960012   5.0684997 -14.3250012
  35.7750012   6.4094997 -14.8380012  35.1569277   5.9100942 -14.4846318
  35.6280012   6.5564997  -9.0130012  36.5610012   6.7684997  -9.0470012
  35.3930012   6.6584997  -8.0910012  35.7238036   6.5992769  -8.8930024
  35.6570012   7.2934997  -6.2370012  34.8140012   7.5614997  -5.8710012
  36.0990012   8.1154997  -6.4480012  35.6014158   7.4413291  -6.2154509
  19.9380012   5.7414997  -2.7600012  20.8580012   5.6194997  -2.5240012
  19.4890012   4.9914997  -2.3710012  20.0031580   5.6233727  -2.6750994
  37.9400012   1.2734997  -0.8840012  38.2900012   0.6194997  -1.4890012
  38.0870012   2.1104997  -1.3230012  38.0078419   1.2971591  -1.0262882
  35.6290012   3.2384997 -14.4010012  35.8120012   2.7894997 -13.5750012
  35.0300012   2.6534997 -14.8640012  35.5730202   3.0979975 -14.3506725
  21.1590012   4.0534997  -9.8690012  21.6050012   3.2614997  -9.5670012
  21.6260012   4.7694997  -9.4380012  21.2830172   4.0420624  -9.7695180
  19.4630012   7.0524997  -8.8000012  19.9550012   6.8314997  -9.5910012
  19.8260012   7.8934997  -8.5190012  19.5793126   7.1358357  -8.8702469
  37.4600012   3.3824997  -2.5340012  36.5420012   3.6534997  -2.5700012
  37.5830012   2.8474997  -3.3190012  37.3511066   3.3472892  -2.6449513
  37.4960012   3.3054997 -17.8730012  37.9080012   2.5844997 -18.3480012
  38.1780012   3.9754997 -17.8140012  37.6445885   3.2972368 -17.9301085
  19.7770012   3.3104997 -14.7460012  18.8520012   3.5194997 -14.8750012
  20.2310012   3.7944997 -15.4350012  19.7117368   3.4045993 -14.8568774
  34.5480012  18.2944997 -12.8000012  35.2000012  17.9474997 -13.4080012
  35.0580012  18.7834997 -12.1540012  34.7062637  18.3130597 -12.7959764
  19.7410012   2.0484997  -6.4010012  19.0760012   1.8024997  -5.7580012
  19.2980012   2.6704997  -6.9790012  19.5900956   2.0988632  -6.3910648
  21.9330012  15.2234997  -2.2570012  21.1120012  15.3984997  -2.7170012
  21.6800012  15.1504997  -1.3360012  21.7866164  15.2375622  -2.1955077
  24.8870012  16.1984997  -5.9980012  24.4620012  17.0074997  -6.2810012
  25.7910012  16.2834997  -6.3000012  24.9510271  16.3208469  -6.0776224
  29.1980012  17.5974997  -3.0390012  29.3830012  17.2634997  -2.1610012
  30.0440012  17.9064997  -3.3610012  29.3377539  17.5936047  -2.9624395
  31.5430012  18.8834997  -3.7950012  32.2200012  18.2504997  -4.0350012
  31.8650012  19.2844997  -2.9880012  31.6791637  18.8511154  -3.7187207
  36.4600012   1.4724997  -4.7150012  35.6480012   1.7974997  -5.1030012
  36.6930012   0.7124997  -5.2480012  36.3803423   1.4142436  -4.8401747
  22.2890012  19.4544997  -5.9510012  21.5680012  19.8944997  -6.4020012
  21.9230012  19.2034997  -5.1020012  22.1409804  19.4807698  -5.8980160
  24.7560012  19.0544997  -6.9210012  23.8910012  19.1264997  -6.5170012
  24.7010012  19.6014997  -7.7050012  24.6302085  19.1382685  -6.9716638
  29.4660012  18.9424997  -7.7460012  29.0100012  19.4714997  -8.4000012
  29.6290012  19.5454997  -7.0200012  29.4255585  19.0964468  -7.7374938
  31.7940012  17.8204997  -6.8010012  30.8890012  17.9854997  -7.0660012
  32.2230012  18.6734997  -6.8660012  31.7280799  17.9584483  -6.8460818
  34.3980012  19.3904997  -6.5060012  34.2160012  20.3064997  -6.7160012
  34.5750012  18.9804997  -7.3520012  34.3970210  19.4604822  -6.6492115
  21.7030012  18.0774997  -9.0410012  21.6850012  17.6524997  -8.1830012
  22.5080012  17.7594997  -9.4490012  21.8093875  17.9763812  -8.9788345
  23.8450012  16.7874997 -10.3860012  23.6260012  15.8714997 -10.2160012
  24.6690012  16.9274997  -9.9200012  23.9264420  16.6810520 -10.2997226
  26.3820012  17.2574997  -9.5370012  26.5950012  16.3694997  -9.8240012
  26.4460012  17.2234997  -8.5830012  26.4198232  17.1313102  -9.4472603
  29.8900012   2.9214997 -10.3930012  29.2160012   2.2924997 -10.1370012
  30.4540012   2.4374997 -10.9960012  29.8739230   2.7698744 -10.4394660
  35.0330012   1.0294997 -10.2800012  35.6370012   1.5764997 -10.7820012
  34.1630012   1.3484997 -10.5200012  34.9981241   1.1475806 -10.3812346
  36.7600012   2.1674997 -11.9470012  37.3720012   1.6534997 -12.4730012
  37.1420012   3.0454997 -11.9230012  36.8954540   2.2157140 -12.0158170
  22.2170012   1.5554997 -12.5710012  21.4400012   1.3214997 -13.0780012
  22.7470012   0.7584997 -12.5620012  22.1822330   1.4156988 -12.6392258
  21.0530012   1.3534997 -16.7670012  21.4920012   1.9644997 -17.3590012
  20.4200012   1.8914997 -16.2930012  21.0274514   1.5099257 -16.7839070
  26.7960012   1.4824997 -12.7570012  27.6710012   1.8704997 -12.7870012
  26.6600012   1.2674997 -11.8350012  26.8973695   1.5065184 -12.6363560
  32.3530012   1.5124997 -11.1080012  32.4290012   1.6074997 -12.0580012
  32.0780012   0.6044997 -10.9790012  32.3262321   1.4027867 -11.2204921
  33.7060012   1.5384997 -15.4160012  33.0040012   2.1534997 -15.6250012
  33.2620012   0.7004997 -15.2850012  33.5496330   1.5095783 -15.4269672
  20.9540012  17.3014997 -15.8690012  20.2690012  17.2634997 -16.5370012
  20.9580012  18.2144997 -15.5810012  20.8608193  17.4197016 -15.9214716
  22.9140012   3.2694997 -18.3250012  23.4060012   2.6394997 -18.8520012
  23.5380012   3.5654997 -17.6610012  23.0655446   3.2233199 -18.3074020
  27.9400012   3.5624997 -15.8680012  28.1180012   2.9164997 -15.1850012
  27.8870012   4.3964997 -15.4000012  27.9571829   3.5867985 -15.7114060
  29.8190012  18.5114997 -17.4720012  30.6850012  18.8774997 -17.6500012
  29.5720012  18.0714997 -18.2860012  29.9042392  18.5021756 -17.6063711
  36.5280012  18.0744997 -14.7930012  36.3330012  17.3264997 -15.3580012
  36.4890012  18.8324997 -15.3760012  36.4960380  18.0746099 -14.9491616
  22.1750012   2.0694997  -3.0530012  21.8090012   1.3044997  -2.6100012
  23.0880012   2.0984997  -2.7660012  22.2482790   1.9687224  -2.9535930
  24.1480012   1.4204997  -1.5170012  25.0460012   1.1464997  -1.7020012
  23.7610012   0.6774997  -1.0530012  24.2186612   1.2825914  -1.4796357
  22.7720012  18.2214997 -18.8440012  22.5050012  18.5084997 -17.9710012
  23.5440012  17.6754997 -18.6920012  22.8397488  18.1870294 -18.7038950
  32.5690012   0.7524997  -1.3350012  32.6460012   0.3264997  -0.4810012
  33.4630012   0.7664997  -1.6780012  32.7003428   0.6960879  -1.2644690
  35.7450012  16.8254997  -2.6430012  34.9630012  16.6394997  -3.1620012
  35.6730012  17.7544997  -2.4250012  35.6281777  16.9256492  -2.6845952
  50.1510012  10.7114997 -12.6120012  50.2400012  11.6554997 -12.7440012
  49.5130012  10.4364997 -13.2700012  50.0769081  10.8034830 -12.7190386
  49.0840012   9.9664997  -9.1930012  49.0460012   9.3204997  -8.4880012
  48.7620012   9.5004997  -9.9640012  49.0352333   9.8149408  -9.2007022
  41.4530012   9.5814997  -7.6000012  41.4940012   8.9554997  -6.8770012
  42.1560012  10.2054997  -7.4180012  41.5536363   9.5801196  -7.4763956
  52.7900012  12.9054997 -10.8920012  52.3500012  12.1854997 -10.4410012
  52.7770012  13.6264997 -10.2620012  52.7280226  12.9043731 -10.7451506
  42.3760012  14.0314997  -9.0650012  42.0070012  13.2294997  -9.4350012
  43.3170012  13.8624997  -9.0190012  42.4527289  13.8990153  -9.1093684
  38.9860012   7.6914997 -13.6720012  38.5390012   8.5374997 -13.6910012
  38.4250012   7.1114997 -14.1880012  38.8489900   7.7289916 -13.7443199
  39.6970012   9.8534997 -11.5460012  39.9100012   9.0834997 -11.0190012
  40.4350012   9.9424997 -12.1500012  39.8258496   9.7601394 -11.5554700
  49.9020012  18.0104997 -10.6790012  50.5220012  17.3334997 -10.9530012
  49.6940012  17.7924997  -9.7710012  49.9586904  17.8883870 -10.5936635
  47.4740012  12.3994997  -8.7870012  47.7780012  11.7134997  -9.3820012
  48.1950012  12.5174997  -8.1690012  47.6130671  12.3216305  -8.7848184
  56.1370012   4.0004997  -7.9260012  56.1860012   4.6104997  -7.1900012
  56.5620012   4.4614997  -8.6490012  56.2011824   4.1463741  -7.9229795
  50.6150012   6.7934997  -8.4590012  50.7570012   5.8474997  -8.4390012
  50.5080012   7.0004997  -9.3880012  50.6199864   6.6919534  -8.5817661
  43.7690012   4.8944997 -11.1870012  43.8130012   5.7544997 -11.6050012
  43.3120012   4.3424997 -11.8210012  43.7132185   4.9375799 -11.3299701
  51.4920012   5.0254997 -12.7860012  52.1380012   4.6964997 -12.1610012
  52.0020012   5.5434997 -13.4090012  51.6494264   5.0504611 -12.7846138
  40.3900012   7.2914997 -10.4250012  41.0430012   6.7414997  -9.9930012
  40.4140012   7.0174997 -11.3420012  40.4826683   7.1791466 -10.4897877
  45.5460012   8.8414997 -11.2100012  46.1620012   8.3154997 -10.7000012
  44.9600012   8.2014997 -11.6130012  45.5510810   8.6829208 -11.1946827
  56.5280012   5.4784997  -5.6900012  55.8400012   6.1364997  -5.7860012
  56.5440012   5.2814997  -4.7540012  56.4358525   5.5420462  -5.5765192
  42.5800012   3.8124997  -7.1130012  42.3610012   4.3424997  -7.8790012
  41.9120012   4.0394997  -6.4660012  42.4597600   3.9156906  -7.1303621
  49.9490012  13.3124997 -13.5690012  49.6530012  12.9904997 -14.4200012
  49.6240012  14.2124997 -13.5280012  49.8646371  13.3900215 -13.6798199
  45.1490012  11.4884997  -6.8260012  44.4090012  12.0864997  -6.7220012
  45.8630012  12.0424997  -7.1410012  45.1442237  11.6452831  -6.8543535
  53.2560012   4.3164997 -10.8060012  53.0400012   3.5504997 -10.2730012
  53.9110012   4.7884997 -10.2930012  53.3150632   4.2755889 -10.6637139
  42.1730012   5.7044997  -9.1610012  42.7870012   6.3374997  -8.7870012
  42.6850012   5.2324997  -9.8170012  42.3262296   5.7272370  -9.1985748
  43.5560012  13.4524997  -6.0380012  43.5510012  14.3324997  -6.4160012
  42.7030012  13.3694997  -5.6130012  43.4399464  13.5616117  -6.0322093
  39.6770012  13.1234997 -15.2560012  39.4050012  13.3524997 -16.1450012
  39.7230012  13.9614997 -14.7960012  39.6460094  13.2681213 -15.3154303
  53.3020012  14.7454997  -8.5440012  52.3610012  14.8034997  -8.3820012
  53.5790012  15.6514997  -8.6810012  53.2104679  14.8759443  -8.5403185
  53.6030012   3.0314997  -7.1260012  52.8670012   3.6424997  -7.1640012
  54.2860012   3.4464997  -7.6530012  53.5946541   3.1711374  -7.2024168
  46.6060012   1.1184997  -9.6600012  46.4890012   0.1694997  -9.7150012
  45.7510012   1.4504997  -9.3870012  46.4743733   1.0335409  -9.6306103
  51.5540012  16.5264997 -11.9180012  51.9800012  15.8194997 -12.4030012
  51.8710012  17.3274997 -12.3350012  51.6551019  16.5380994 -12.0406870
  52.7140012  14.4274997 -13.4100012  52.4560012  13.7374997 -14.0210012
  52.7850012  13.9844997 -12.5640012  52.6882856  14.2732124 -13.3793115
  54.4000012  12.9934997  -4.9320012  54.5400012  12.4024997  -5.6720012
  54.5670012  13.8664997  -5.2890012  54.4416778  13.0306426  -5.0813035
  48.8730012   9.9554997 -15.1600012  48.1610012  10.4904997 -15.5120012
  49.5640012  10.0114997 -15.8200012  48.8690132  10.0362543 -15.2973711
  48.9260012   8.4134997 -18.1210012  49.6270012   8.4354997 -17.4700012
  49.2290012   7.7854997 -18.7770012  49.0627830   8.3316566 -18.1206289
  56.2420012   9.3334997  -6.8660012  55.5890012  10.0284997  -6.7770012
  56.7070012   9.5434997  -7.6760012  56.2155390   9.4569425  -6.9633117
  52.2780012  10.1654997 -14.2080012  51.5460012  10.3934997 -13.6350012
  52.7260012   9.4514997 -13.7530012  52.2383095  10.1002571 -14.0680881
  52.1760012   8.3394997  -5.1410012  52.2560012   9.1024997  -4.5690012
  51.5740012   8.6184997  -5.8310012  52.1055756   8.4817134  -5.1559411
  43.9240012  10.7954997 -12.3260012  43.5930012  10.4254997 -13.1440012
  44.5120012  10.1254997 -11.9790012  43.9581873  10.6541156 -12.3911898
  45.2900012  14.2234997  -9.6440012  45.1960012  13.6454997 -10.4010012
  46.0200012  13.8524997  -9.1480012  45.3757981  14.0942390  -9.6805835
  44.2900012   9.5644997  -8.6920012  44.8560012   9.6854997  -9.4550012
  44.6090012  10.2014997  -8.0530012  44.4105786   9.6671884  -8.7099960
  50.5990012  15.0674997  -7.9580012  50.3590012  15.7294997  -7.3100012
  50.4010012  14.2334997  -7.5330012  50.5393808  15.0453134  -7.8118476
  45.1700012  13.9634997  -3.9750012  44.8590012  14.7454997  -3.5200012
  44.5200012  13.8104997  -4.6610012  45.0395558  14.0499105  -4.0054129
  51.1490012   9.3274997 -16.5230012  51.7290012   9.4774997 -15.7760012
  51.5630012   9.7984997 -17.2460012  51.2842830   9.4116841 -16.5185866
  42.0900012  10.1614997  -4.7460012  42.1610012  10.8124997  -4.0480012
  41.2000012  10.2644997  -5.0810012  41.9793117  10.2645936  -4.6957300
  48.8760012  16.0644997 -13.0880012  49.3500012  16.3594997 -12.3100012
  48.3130012  16.8024997 -13.3210012  48.8647653  16.2046932 -13.0129864
  43.4100012  16.0354997  -3.2120012  43.4170012  15.8994997  -4.1590012
  42.4940012  15.9174997  -2.9600012  43.2871714  16.0009430  -3.3075334
  54.8480012   1.0774997 -16.7100012  53.9480012   1.2164997 -16.4150012
  55.1000012   1.9084997 -17.1120012  54.7588702   1.2089074 -16.7239795
  42.9140012   9.8654997 -14.7360012  42.6220012  10.6334997 -15.2270012
  42.2400012   9.2054997 -14.8990012  42.7829081   9.8814406 -14.8252660
  56.0370012  15.4434997 -18.3340012  56.1110012  16.3824997 -18.1630012
  56.9430012  15.1384997 -18.3900012  56.1695100  15.5306722 -18.3181881
  39.0070012  12.2284997  -5.9210012  38.5060012  12.2004997  -6.7360012
  39.0120012  11.3224997  -5.6120012  38.9391526  12.1022278  -5.9907128
  38.7570012  15.0084997  -9.0370012  39.7030012  14.8644997  -9.0560012
  38.6450012  15.7924997  -8.5000012  38.8712727  15.0948046  -8.9669928
  56.9550012  15.6744997  -3.3550012  56.9060012  14.7194997  -3.3920012
  56.1280012  15.9424997  -2.9540012  56.8364940  15.5798998  -3.3058625
  47.9340012  15.2484997  -4.4790012  48.0210012  16.0744997  -4.0040012
  47.0700012  14.9184997  -4.2300012  47.8291964  15.3169878  -4.3803451
  48.3480012  19.0204997 -14.6730012  48.2730012  18.8994997 -15.6190012
  48.3810012  19.9704997 -14.5540012  48.3421848  19.1322500 -14.7865166
  42.0010012  17.8094997 -12.8920012  42.1540012  17.4614997 -12.0130012
  41.1510012  17.4534997 -13.1470012  41.9068962  17.7136650 -12.8061660
  51.4500012  18.1744997 -17.6710012  51.8250012  17.4304997 -18.1410012
  51.4540012  17.9044997 -16.7520012  51.5018915  18.0361486 -17.6112176
  51.1190012  18.1004997 -14.9210012  50.1830012  18.2004997 -14.7430012
  51.3990012  17.3914997 -14.3430012  51.0288255  18.0182711 -14.8184609
  54.1070012   7.1674997  -2.8750012  53.7000012   7.6484997  -3.5960012
  54.1480012   6.2624997  -3.1830012  54.0568437   7.1109374  -3.0153317
  41.2560012  13.5514997  -4.8780012  41.4720012  13.1904997  -4.0190012
  40.4010012  13.1774997  -5.0880012  41.1699292  13.4514111  -4.7886614
  43.8750012   2.0214997  -8.8830012  43.0130012   1.9344997  -9.2900012
  43.8520012   2.8774997  -8.4550012  43.7540330   2.1252765  -8.8808137
  48.5380012   1.7434997  -5.5080012  48.9580012   1.3284997  -4.7550012
  47.6050012   1.5654997  -5.3910012  48.4693644   1.6625900  -5.3890461
  51.8640012   5.4994997  -4.6550012  51.3500012   5.3734997  -3.8570012
  51.7090012   6.4114997  -4.8990012  51.7726852   5.6056132  -4.5787842
  52.6270012  10.3604997 -18.8930012  52.6690012  10.1374997 -19.8230012
  53.4760012  10.7594997 -18.7030012  52.7475396  10.3839155 -18.9946373
  48.1990012   4.2364997 -18.2230012  47.9460012   4.2554997 -17.3000012
  47.9430012   3.3644997 -18.5240012  48.1297790   4.1212437 -18.1373737
  43.9660012   6.9874997  -7.7880012  43.3240012   6.9464997  -7.0790012
  44.0030012   7.9134997  -8.0250012  43.8831324   7.1071559  -7.7230176
  43.9630012   7.2084997 -12.8760012  43.0700012   6.8674997 -12.9340012
  44.4130012   6.8314997 -13.6310012  43.9017305   7.1108484 -12.9860823
  49.4980012   7.6244997 -14.0590012  49.0890012   8.4394997 -14.3500012
  50.2190012   7.4844997 -14.6730012  49.5394537   7.7172018 -14.1818658
  48.6000012   7.7994997  -2.5710012  48.0380012   7.0954997  -2.2500012
  49.4270012   7.6794997  -2.1030012  48.6347095   7.6867883  -2.4637670
  50.5030012   7.0704997 -11.2450012  50.3080012   7.6754997 -11.9600012
  50.6840012   6.2364997 -11.6790012  50.5007614   7.0406300 -11.4015595
  41.7160012   7.3074997  -5.9210012  41.6780012   7.7074997  -5.0520012
  41.2250012   6.4904997  -5.8300012  41.6444684   7.2518069  -5.7898941
  45.0820012   4.6814997 -19.1220012  44.6510012   4.2364997 -18.3920012
  44.3640012   5.0534997 -19.6340012  44.9259438   4.6708940 -19.0913201
  38.3240012   4.4234997 -12.0700012  38.9550012   4.3944997 -11.3510012
  38.7730012   3.9984997 -12.8000012  38.4710774   4.3620492 -12.0703447
  39.5980012   5.1694997 -16.6460012  40.0720012   5.7604997 -17.2310012
  38.8810012   5.7004997 -16.2990012  39.5659341   5.3220867 -16.6791164
  49.7670012   8.7084997  -6.5730012  50.0900012   8.0774997  -7.2160012
  49.3270012   8.1734997  -5.9130012  49.7516895   8.5498441  -6.5717150
  46.5440012   4.6354997 -11.7890012  45.6330012   4.6924997 -11.5010012
  47.0500012   4.5754997 -10.9790012  46.4875413   4.6351985 -11.6399378
  41.3730012   6.2644997 -12.9630012  40.4830012   6.3644997 -13.3030012
  41.6690012   5.4224997 -13.3090012  41.2912823   6.1643545 -13.0562787
  45.0260012   6.2644997 -15.3060012  45.9570012   6.3934997 -15.1280012
  44.8110012   6.9344997 -15.9560012  45.1244247   6.3726565 -15.3694253
  50.9490012   3.8704997  -8.5250012  50.2730012   4.0014997  -7.8610012
  50.4640012   3.7154997  -9.3350012  50.7907145   3.8674905  -8.5435483
  43.7000012   7.4594997 -17.7390012  43.1570012   7.0794997 -18.4310012
  44.5330012   7.6534997 -18.1680012  43.7384399   7.4338124 -17.8915474
  54.2370012  19.5424997  -2.2480012  54.4370012  19.9664997  -3.0830012
  54.8920012  19.8854997  -1.6410012  54.3530051  19.6469648  -2.2802164
  41.8350012  12.0164997  -2.6400012  42.5670012  12.2704997  -2.0790012
  41.0550012  12.2204997  -2.1250012  41.8298232  12.0789177  -2.4934240
  47.8640012   7.4234997  -9.9020012  48.4290012   6.8764997 -10.4490012
  47.7170012   6.9014997  -9.1140012  47.9212918   7.2782024  -9.8701546
  42.8660012   3.5594997 -13.4840012  42.5490012   2.6574997 -13.5190012
  43.6480012   3.5614997 -14.0370012  42.9282284   3.4361628 -13.5635217
  46.4910012   5.8114997  -7.4880012  45.6550012   6.2654997  -7.3780012
  47.0150012   6.0874997  -6.7360012  46.4474414   5.9109376  -7.3712864
  47.0350012  12.0244997 -15.8040012  46.2900012  11.5174997 -16.1260012
  46.9010012  12.0734997 -14.8570012  46.9148776  11.9616940 -15.7201353
  54.1850012  11.1574997  -7.0170012  54.8270012  11.6144997  -7.5610012
  53.3550012  11.2704997  -7.4800012  54.1605963  11.2352704  -7.1539823
  50.9330012   4.8384997 -17.6040012  49.9940012   4.9504997 -17.7560012
  51.2300012   5.6954997 -17.2980012  50.8447666   4.9696443 -17.5834232
  48.5540012  12.2084997  -4.5670012  48.2090012  11.8274997  -3.7600012
  48.3540012  13.1424997  -4.4950012  48.4798061  12.2825228  -4.4469039
  51.6510012   6.7054997 -15.9440012  52.5430012   6.5684997 -15.6250012
  51.7080012   7.4964997 -16.4800012  51.7806285   6.7936660 -15.9728310
  42.1600012  11.3194997 -10.0340012  42.9050012  11.3174997 -10.6350012
  42.2380012  10.4964997  -9.5520012  42.2725518  11.2079315 -10.0511071
  49.1610012  13.4834997 -16.7780012  48.8650012  14.3094997 -16.3970012
  48.4580012  12.8634997 -16.5820012  49.0254914  13.5128199 -16.6993557
  39.1680012   9.7804997  -4.7190012  39.3910012   9.3624997  -3.8870012
  38.5660012   9.1674997  -5.1420012  39.1171759   9.6404668  -4.6622978
  46.1840012   9.2974997  -2.5060012  45.8880012   9.1314997  -3.4010012
  47.1160012   9.0774997  -2.5170012  46.2694166   9.2450640  -2.6299464
  50.8050012  14.6704997  -4.6160012  49.9040012  14.8534997  -4.8840012
  50.8390012  14.9294997  -3.6950012  50.6863041  14.7305512  -4.5281803
  56.5360012   6.9154997 -16.2490012  55.9820012   6.5194997 -16.9210012
  56.6360012   7.8254997 -16.5270012  56.4737059   6.9843586 -16.3785599
  56.4990012  12.7154997  -3.4120012  55.6480012  12.9534997  -3.7790012
  57.0900012  12.6984997  -4.1650012  56.4622487  12.7458258  -3.5641107
  54.8310012  15.7014997 -15.7840012  54.4580012  14.8754997 -15.4750012
  55.1090012  15.5184997 -16.6810012  54.8175630  15.5637303 -15.8630374
  51.9920012  10.5094997  -8.7630012  51.0630012  10.2774997  -8.7900012
  52.4430012   9.7324997  -9.0930012  51.9259216  10.3727238  -8.8113083
  44.5350012  14.8374997 -12.6300012  45.0620012  15.6104997 -12.8300012
  43.6550012  15.0624997 -12.9310012  44.4881773  14.9738005 -12.6980990
  40.2900012   9.6994997 -18.0430012  40.9060012  10.3264997 -17.6630012
  39.4280012  10.0154997 -17.7710012  40.2577698   9.8279430 -17.9542817
  45.9620012  12.5004997 -13.0530012  45.7210012  13.4254997 -13.0120012
  45.2210012  12.0414997 -12.6570012  45.8288409  12.5651421 -12.9938623
  46.4770012  16.6494997  -6.7380012  46.8390012  17.5044997  -6.9720012
  47.0080012  16.3574997  -5.9980012  46.5984473  16.7271060  -6.6699145
  44.6450012  17.5224997 -13.5080012  43.6950012  17.6274997 -13.4570012
  44.9970012  18.3424997 -13.1630012  44.5624203  17.6478314 -13.4543350
  50.0210012  12.7484997  -7.0380012  49.5950012  12.5214997  -6.2110012
  50.6010012  12.0104997  -7.2200012  50.0411868  12.6175299  -6.9494170
  52.2240012  13.6774997 -17.9640012  52.5770012  13.2974997 -17.1590012
  51.2750012  13.5844997 -17.8770012  52.1440441  13.6129596 -17.8421441
  52.6790012  17.3004997  -4.5680012  52.0780012  16.7454997  -5.0640012
  52.9610012  17.9674997  -5.1940012  52.6348519  17.3146841  -4.7205048
  56.7270012  18.1574997 -17.7630012  57.4710012  18.7434997 -17.9030012
  56.0330012  18.7254997 -17.4290012  56.7350292  18.3145582 -17.7370039
  40.8020012   4.5334997  -5.1610012  39.9090012   4.8724997  -5.2290012
  40.7030012   3.6784997  -4.7430012  40.6664164   4.4642588  -5.1137765
  53.0900012  12.3504997 -15.7370012  52.8120012  11.6224997 -15.1810012
  54.0170012  12.4694997 -15.5320012  53.1773124  12.2668802 -15.6331155
  40.4530012  16.3384997  -6.7260012  40.6700012  15.4064997  -6.7570012
  40.6990012  16.6124997  -5.8430012  40.5159549  16.2480636  -6.6108237
  46.3150012  14.7894997 -19.5170012  46.5540012  14.0414997 -20.0640012
  46.0460012  14.4014997 -18.6840012  46.3113675  14.6346638 -19.4793135
  45.2520012  14.3594997 -17.0600012  45.3980012  13.8394997 -16.2700012
  45.2490012  15.2664997 -16.7540012  45.2715989  14.4108853 -16.9103912
  41.7050012  11.6124997 -16.5500012  41.0190012  11.9644997 -15.9830012
  42.2270012  12.3754997 -16.7970012  41.6816852  11.7638578 -16.5057882
  49.5360012   4.2744997  -6.2710012  50.2350012   4.3484997  -5.6210012
  49.1550012   3.4104997  -6.1170012  49.5801767   4.1677624  -6.1611678
  50.3210012   3.9264997 -15.1740012  50.5410012   4.3984997 -15.9770012
  50.8790012   4.3214997 -14.5040012  50.4264968   4.0444285 -15.1932669
  47.9890012  16.0574997 -16.3110012  47.1730012  16.5544997 -16.2590012
  48.5190012  16.5324997 -16.9510012  47.9489161  16.1897722 -16.3904044
  47.5210012   5.6544997 -14.3390012  48.3330012   6.1594997 -14.2930012
  47.2760012   5.5094997 -13.4250012  47.5990520   5.7040375 -14.2091483
  48.0560012   6.6404997  -5.1540012  48.1750012   7.2144997  -4.3970012
  48.7120012   5.9524997  -5.0400012  48.1609757   6.6261079  -5.0349175
  48.4040012   2.7354997 -13.4010012  48.0580012   3.3534997 -12.7560012
  49.0630012   3.2364997 -13.8820012  48.4457826   2.8875802 -13.3779029
  45.3280012  17.1014997 -16.3290012  45.4880012  17.9004997 -16.8300012
  45.1300012  17.4074997 -15.4440012  45.3231649  17.2524469 -16.2780185
  44.0620012   3.7984997 -16.7140012  43.9790012   4.6874997 -16.3670012
  44.9520012   3.5334997 -16.4820012  44.1709469   3.8841430 -16.6352374
  54.2610012   4.5474997  -4.3190012  53.3440012   4.8104997  -4.4070012
  54.5960012   4.5444997  -5.2160012  54.1809900   4.5830224  -4.4522081
  52.8630012   8.2984997 -10.2240012  52.0650012   7.8834997 -10.5520012
  53.3080012   7.6074997  -9.7330012  52.8139885   8.1483543 -10.2025111
  42.3210012  14.2264997 -17.6530012  42.9130012  14.9254997 -17.3770012
  42.7800012  13.7934997 -18.3730012  42.4641142  14.2637049 -17.7125170
  40.6370012   6.8904997 -18.5370012  40.5920012   7.8294997 -18.3590012
  39.7490012   6.6544997 -18.8070012  40.5108574   6.9871892 -18.5491088
  53.9490012  17.5544997  -8.6010012  53.7940012  18.2324997  -9.2580012
  54.8820012  17.6264997  -8.3980012  54.0538500  17.6570170  -8.6634881
  41.4450012   1.6724997  -9.8640012  41.2160012   1.7314997 -10.7920012
  41.0020012   0.8804997  -9.5580012  41.3538530   1.5735753  -9.9495214
  40.3750012  15.6124997 -13.7040012  39.5430012  16.0854997 -13.6760012
  40.9210012  16.1224997 -14.3020012  40.3349739  15.7461871 -13.7810284
  39.6630012  18.2254997  -2.3740012  40.2040012  18.0084997  -1.6140012
  39.1820012  17.4194997  -2.5630012  39.6719345  18.0869514  -2.2956924
  44.2610012  17.1444997  -0.7530012  45.0280012  16.6854997  -0.4120012
  44.2390012  16.9184997  -1.6830012  44.3631434  17.0510409  -0.8319957
  48.3530012  16.6524997 -19.3780012  47.7090012  16.0214997 -19.0570012
  49.1150012  16.1214997 -19.6100012  48.3678077  16.4942920 -19.3653989
  50.8380012  15.5244997  -2.0240012  50.4870012  14.6684997  -1.7810012
  51.5640012  15.6674997  -1.4170012  50.8880769  15.4265636  -1.9086381
  52.9570012  16.4694997 -19.1440012  53.2400012  15.6754997 -18.6920012
  53.6970012  16.7024997 -19.7050012  53.0957486  16.3922803 -19.1579302
  39.5700012  12.0354997  -1.4190012  39.7140012  11.1334997  -1.7060012
  38.7980012  12.3214997  -1.9070012  39.4853322  11.9508261  -1.5242119
  43.9120012  12.3794997 -19.2870012  43.9760012  11.5854997 -18.7560012
  44.5650012  12.2604997 -19.9770012  44.0090241  12.2547148 -19.3075683
  46.2260012  12.0054997  -1.9870012  45.8970012  12.2764997  -2.8440012
  46.3780012  11.0644997  -2.0740012  46.2014809  11.9153862  -2.1161756
  51.9600012  11.9214997  -4.6030012  52.7060012  12.5094997  -4.7230012
  51.2030012  12.5034997  -4.5400012  51.9597554  12.0807011  -4.6109093
  40.4030012   9.2354997  -1.9990012  40.8110012   8.3784997  -2.1200012
  40.1430012   9.2504997  -1.0780012  40.4237568   9.1200807  -1.8910412
  45.0610012  10.3514997 -16.9810012  44.6010012   9.8674997 -16.2950012
  45.3160012   9.6834997 -17.6170012  45.0324902  10.1948731 -16.9730666
  44.3500012   8.2444997  -4.6250012  43.7320012   8.9194997  -4.3450012
  44.6940012   8.5654997  -5.4580012  44.3119615   8.3802721  -4.6993419
  46.1320012   8.5944997 -18.7190012  45.9520012   8.4404997 -19.6460012
  47.0820012   8.7024997 -18.6740012  46.2357776   8.5880175 -18.8398157
  49.3700012  10.7164997  -1.3480012  50.3230012  10.7994997  -1.3750012
  49.2090012  10.0044997  -0.7280012  49.4786426  10.6316746  -1.2679421
  55.5220012  10.9494997 -19.2730012  55.2480012  10.5244997 -20.0860012
  55.5610012  11.8804997 -19.4900012  55.4897699  11.0172484 -19.4136390
  44.6890012   5.5994997  -3.5430012  44.8390012   4.8704997  -4.1450012
  44.6920012   6.3764997  -4.1020012  44.7099302   5.6047851  -3.7009308
  45.1020012   3.9694997  -6.0500012  45.6380012   4.4204997  -6.7020012
  44.2500012   3.8614997  -6.4730012  45.0602178   4.0166390  -6.1964244
  46.6840012   9.4084997  -5.8110012  47.4340012   9.2524997  -6.3840012
  46.3450012  10.2604997  -6.0860012  46.7408921   9.5022968  -5.9266439
  51.0990012   7.2234997  -0.7820012  51.2920012   6.2924997  -0.8940012
  51.9570012   7.6484997  -0.7920012  51.2413020   7.1536389  -0.7986639
  52.4160012  10.0124997  -2.7050012  52.1350012  10.7214997  -3.2820012
  53.3590012   9.9394997  -2.8560012  52.5049027  10.0997646  -2.8044449
  43.1680012   6.7974997  -1.6310012  42.4010012   6.2654997  -1.8410012
  43.8470012   6.4874997  -2.2310012  43.1547022   6.6827506  -1.7408352
  45.9080012   1.4254997  -5.6190012  45.8090012   2.3724997  -5.7240012
  45.1650012   1.0534997  -6.0940012  45.7940564   1.5045902  -5.6975440
  47.1720012   5.7474997  -2.0550012  46.9360012   5.5274997  -1.1530012
  46.3880012   5.5404997  -2.5650012  47.0338628   5.6894760  -2.0006068
  49.8870012   4.8744997  -2.9790012  48.9400012   4.9064997  -2.8470012
  50.2000012   4.2494997  -2.3260012  49.7995475   4.7943207  -2.8725545
  51.5210012   3.5084997  -0.9740012  51.4250012   2.5564997  -0.9800012
  51.2000012   3.7774997  -0.1140012  51.4644070   3.4144035  -0.8584559
  41.3480012   4.7184997  -1.9270012  41.5600012   4.0114997  -2.5370012
  41.2370012   4.2804997  -1.0830012  41.3619721   4.5627084  -1.8963157
  46.1290012   0.7194997  -2.9470012  46.8410012   0.0794997  -2.9610012
  46.0280012   0.9864997  -3.8610012  46.2127939   0.6679938  -3.0724350
  46.4830012   2.4024997  -0.8940012  46.3510012   1.9264997  -1.7140012
  45.8840012   3.1464997  -0.9490012  46.3839071   2.4379618  -1.0137114
  46.0290012  19.2854997 -17.7170012  46.9620012  19.4434997 -17.5740012
  45.7650012  19.9604997 -18.3420012  46.1209510  19.3983611 -17.7819259
  39.5980012  13.9214997 -18.2350012  40.5120012  14.0004997 -17.9610012
  39.6050012  13.2344997 -18.9010012  39.7241131  13.8393961 -18.2875607
  38.2470012  19.3144997 -13.1570012  37.6000012  18.8524997 -13.6900012
  38.6010012  18.6424997 -12.5750012  38.2063849  19.1604723 -13.1512041
  39.1170012  17.3954997 -11.3530012  38.7820012  16.5154997 -11.1810012
  39.3390012  17.7404997 -10.4880012  39.1011783  17.3217501 -11.2125792
  56.6650012  18.2044997  -8.3720012  56.6440012  18.3894997  -7.4330012
  57.3560012  18.7734997  -8.7130012  56.7554618  18.3066606  -8.2896136
  56.2290012  17.7724997  -5.4500012  55.7410012  17.0364997  -5.8210012
  56.7780012  17.3784997  -4.7720012  56.2364872  17.6186249  -5.4090840
  54.6790012  13.5614997  -0.8120012  53.8130012  13.4564997  -0.4180012
  55.0560012  14.3204997  -0.3660012  54.6113308  13.6496900  -0.6977607
  55.9800012  11.8184997 -15.2980012  56.8300012  12.2394997 -15.1710012
  55.9860012  11.0784997 -14.6910012  56.0971372  11.7760803 -15.1985656
  56.3750012   9.8714997 -13.4740012  55.6480012   9.3924997 -13.0770012
  56.9560012  10.0774997 -12.7420012  56.3539375   9.8337090 -13.3205871
  56.1340012  12.6564997  -8.5270012  56.9670012  12.2784997  -8.8070012
  56.2460012  13.5994997  -8.6460012  56.2632647  12.7322218  -8.5814513
  54.6200012  15.5344997  -6.2200012  53.9730012  15.8594997  -5.5940012
  54.1030012  15.0944997  -6.8940012  54.4614029  15.5195004  -6.2254173
  56.6430012   9.7724997 -17.0830012  56.1210012  10.1294997 -17.8020012
  56.6100012  10.4474997 -16.4050012  56.5671634   9.9125413 -17.0896855
  54.9920012   7.0124997 -18.5320012  55.0880012   7.6794997 -19.2130012
  54.8520012   6.1964997 -19.0140012  54.9862135   6.9934500 -18.6901509
  54.1610012   8.3924997 -12.9110012  54.0110012   7.4474997 -12.9320012
  53.8080012   8.6734997 -12.0680012  54.0926625   8.3010441 -12.7997654
  39.1970012  10.4704997  -8.9010012  39.3810012  10.3884997  -9.8370012
  40.0460012  10.3464997  -8.4770012  39.3370139  10.4425003  -8.9718545
  55.0180012  10.3624997  -3.2730012  55.6010012   9.6284997  -3.0810012
  55.5820012  11.1344997  -3.2260012  55.1739769  10.3664227  -3.2403841
  56.5140012   8.2654997  -2.5880012  55.6510012   7.8864997  -2.7540012
  57.1190012   7.5264997  -2.6620012  56.4775979   8.1138023  -2.6207183
  54.2390012   4.4204997 -19.4150012  54.8500012   4.0494997 -18.7780012
  53.4030012   3.9994997 -19.2190012  54.2095032   4.3127554 -19.3012965
  53.8720012   5.9754997 -14.4490012  54.1520012   5.0684997 -14.3250012
  54.6310012   6.4094997 -14.8380012  54.0129277   5.9100942 -14.4846318
  54.4840012   6.5564997  -9.0130012  55.4170012   6.7684997  -9.0470012
  54.2490012   6.6584997  -8.0910012  54.5798036   6.5992769  -8.8930024
  54.5130012   7.2934997  -6.2370012  53.6700012   7.5614997  -5.8710012
  54.9550012   8.1154997  -6.4480012  54.4574158   7.4413291  -6.2154509
  38.7940012   5.7414997  -2.7600012  39.7140012   5.6194997  -2.5240012
  38.3450012   4.9914997  -2.3710012  38.8591580   5.6233727  -2.6750994
  56.7960012   1.2734997  -0.8840012  57.1460012   0.6194997  -1.4890012
  56.9430012   2.1104997  -1.3230012  56.8638419   1.2971591  -1.0262882
  54.4850012   3.2384997 -14.4010012  54.6680012   2.7894997 -13.5750012
  53.8860012   2.6534997 -14.8640012  54.4290202   3.0979975 -14.3506725
  40.0150012   4.0534997  -9.8690012  40.4610012   3.2614997  -9.5670012
  40.4820012   4.7694997  -9.4380012  40.1390172   4.0420624  -9.7695180
  38.3190012   7.0524997  -8.8000012  38.8110012   6.8314997  -9.5910012
  38.6820012   7.8934997  -8.5190012  38.4353126   7.1358357  -8.8702469
  56.3160012   3.3824997  -2.5340012  55.3980012   3.6534997  -2.5700012
  56.4390012   2.8474997  -3.3190012  56.2071066   3.3472892  -2.6449513
  56.3520012   3.3054997 -17.8730012  56.7640012   2.5844997 -18.3480012
  57.0340012   3.9754997 -17.8140012  56.5005885   3.2972368 -17.9301085
  38.6330012   3.3104997 -14.7460012  37.7080012   3.5194997 -14.8750012
  39.0870012   3.7944997 -15.4350012  38.5677368   3.4045993 -14.8568774
  53.4040012  18.2944997 -12.8000012  54.0560012  17.9474997 -13.4080012
  53.9140012  18.7834997 -12.1540012  53.5622637  18.3130597 -12.7959764
  38.5970012   2.0484997  -6.4010012  37.9320012   1.8024997  -5.7580012
  38.1540012   2.6704997  -6.9790012  38.4460956   2.0988632  -6.3910648
  40.7890012  15.2234997  -2.2570012  39.9680012  15.3984997  -2.7170012
  40.5360012  15.1504997  -1.3360012  40.6426164  15.2375622  -2.1955077
  43.7430012  16.1984997  -5.9980012  43.3180012  17.0074997  -6.2810012
  44.6470012  16.2834997  -6.3000012  43.8070271  16.3208469  -6.0776224
  48.0540012  17.5974997  -3.0390012  48.2390012  17.2634997  -2.1610012
  48.9000012  17.9064997  -3.3610012  48.1937539  17.5936047  -2.9624395
  50.3990012  18.8834997  -3.7950012  51.0760012  18.2504997  -4.0350012
  50.7210012  19.2844997  -2.9880012  50.5351637  18.8511154  -3.7187207
  55.3160012   1.4724997  -4.7150012  54.5040012   1.7974997  -5.1030012
  55.5490012   0.7124997  -5.2480012  55.2363423   1.4142436  -4.8401747
  41.1450012  19.4544997  -5.9510012  40.4240012  19.8944997  -6.4020012
  40.7790012  19.2034997  -5.1020012  40.9969804  19.4807698  -5.8980160
  43.6120012  19.0544997  -6.9210012  42.7470012  19.1264997  -6.5170012
  43.5570012  19.6014997  -7.7050012  43.4862085  19.1382685  -6.9716638
  48.3220012  18.9424997  -7.7460012  47.8660012  19.4714997  -8.4000012
  48.4850012  19.5454997  -7.0200012  48.2815585  19.0964468  -7.7374938
  50.6500012  17.8204997  -6.8010012  49.7450012  17.9854997  -7.0660012
  51.0790012  18.6734997  -6.8660012  50.5840799  17.9584483  -6.8460818
  53.2540012  19.3904997  -6.5060012  53.0720012  20.3064997  -6.7160012
  53.4310012  18.9804997  -7.3520012  53.2530210  19.4604822  -6.6492115
  40.5590012  18.0774997  -9.0410012  40.5410012  17.6524997  -8.1830012
  41.3640012  17.7594997  -9.4490012  40.6653875  17.9763812  -8.9788345
  42.7010012  16.7874997 -10.3860012  42.4820012  15.8714997 -10.2160012
  43.5250012  16.9274997  -9.9200012  42.7824420  16.6810520 -10.2997226
  45.2380012  17.2574997  -9.5370012  45.4510012  16.3694997  -9.8240012
  45.3020012  17.2234997  -8.5830012  45.2758232  17.1313102  -9.4472603
  48.7460012   2.9214997 -10.3930012  48.0720012   2.2924997 -10.1370012
  49.3100012   2.4374997 -10.9960012  48.7299230   2.7698744 -10.4394660
  53.8890012   1.0294997 -10.2800012  54.4930012   1.5764997 -10.7820012
  53.0190012   1.3484997 -10.5200012  53.8541241   1.1475806 -10.3812346
  55.6160012   2.1674997 -11.9470012  56.2280012   1.6534997 -12.4730012
  55.9980012   3.0454997 -11.9230012  55.7514540   2.2157140 -12.0158170
  41.0730012   1.5554997 -12.5710012  40.2960012   1.3214997 -13.0780012
  41.6030012   0.7584997 -12.5620012  41.0382330   1.4156988 -12.6392258
  39.9090012   1.3534997 -16.7670012  40.3480012   1.9644997 -17.3590012
  39.2760012   1.8914997 -16.2930012  39.8834514   1.5099257 -16.7839070
  45.6520012   1.4824997 -12.7570012  46.5270012   1.8704997 -12.7870012
  45.5160012   1.2674997 -11.8350012  45.7533695   1.5065184 -12.6363560
  51.2090012   1.5124997 -11.1080012  51.2850012   1.6074997 -12.0580012
  50.9340012   0.6044997 -10.9790012  51.1822321   1.4027867 -11.2204921
  52.5620012   1.5384997 -15.4160012  51.8600012   2.1534997 -15.6250012
  52.1180012   0.7004997 -15.2850012  52.4056330   1.5095783 -15.4269672
  39.8100012  17.3014997 -15.8690012  39.1250012  17.2634997 -16.5370012
  39.8140012  18.2144997 -15.5810012  39.7168193  17.4197016 -15.9214716
  41.7700012   3.2694997 -18.3250012  42.2620012   2.6394997 -18.8520012
  42.3940012   3.5654997 -17.6610012  41.9215446   3.2233199 -18.3074020
  46.7960012   3.5624997 -15.8680012  46.9740012   2.9164997 -15.1850012
  46.7430012   4.3964997 -15.4000012  46.8131829   3.5867985 -15.7114060
  48.6750012  18.5114997 -17.4720012  49.5410012  18.8774997 -17.6500012
  48.4280012  18.0714997 -18.2860012  48.7602392  18.5021756 -17.6063711
  55.3840012  18.0744997 -14.7930012  55.1890012  17.3264997 -15.3580012
  55.3450012  18.8324997 -15.3760012  55.3520380  18.0746099 -14.9491616
  41.0310012   2.0694997  -3.0530012  40.6650012   1.3044997  -2.6100012
  41.9440012   2.0984997  -2.7660012  41.1042790   1.9687224  -2.9535930
  43.0040012   1.4204997  -1.5170012  43.9020012   1.1464997  -1.7020012
  42.6170012   0.6774997  -1.0530012  43.0746612   1.2825914  -1.4796357
  41.6280012  18.2214997 -18.8440012  41.3610012  18.5084997 -17.9710012
  42.4000012  17.6754997 -18.6920012  41.6957488  18.1870294 -18.7038950
  51.4250012   0.7524997  -1.3350012  51.5020012   0.3264997  -0.4810012
  52.3190012   0.7664997  -1.6780012  51.5563428   0.6960879  -1.2644690
  54.6010012  16.8254997  -2.6430012  53.8190012  16.6394997  -3.1620012
  54.5290012  17.7544997  -2.4250012  54.4841777  16.9256492  -2.6845952
  69.0070012  10.7114997 -12.6120012  69.0960012  11.6554997 -12.7440012
  68.3690012  10.4364997 -13.2700012  68.9329081  10.8034830 -12.7190386
  67.9400012   9.9664997  -9.1930012  67.9020012   9.3204997  -8.4880012
  67.6180012   9.5004997  -9.9640012  67.8912333   9.8149408  -9.2007022
  60.3090012   9.5814997  -7.6000012  60.3500012   8.9554997  -6.8770012
  61.0120012  10.2054997  -7.4180012  60.4096363   9.5801196  -7.4763956
  71.6460012  12.9054997 -10.8920012  71.2060012  12.1854997 -10.4410012
  71.6330012  13.6264997 -10.2620012  71.5840226  12.9043731 -10.7451506
  61.2320012  14.0314997  -9.0650012  60.8630012  13.2294997  -9.4350012
  62.1730012  13.8624997  -9.0190012  61.3087289  13.8990153  -9.1093684
  57.8420012   7.6914997 -13.6720012  57.3950012   8.5374997 -13.6910012
  57.2810012   7.1114997 -14.1880012  57.7049900   7.7289916 -13.7443199
  58.5530012   9.8534997 -11.5460012  58.7660012   9.0834997 -11.0190012
  59.2910012   9.9424997 -12.1500012  58.6818496   9.7601394 -11.5554700
  68.7580012  18.0104997 -10.6790012  69.3780012  17.3334997 -10.9530012
  68.5500012  17.7924997  -9.7710012  68.8146904  17.8883870 -10.5936635
  66.3300012  12.3994997  -8.7870012  66.6340012  11.7134997  -9.3820012
  67.0510012  12.5174997  -8.1690012  66.4690671  12.3216305  -8.7848184
  74.9930012   4.0004997  -7.9260012  75.0420012   4.6104997  -7.1900012
  75.4180012   4.4614997  -8.6490012  75.0571824   4.1463741  -7.9229795
  69.4710012   6.7934997  -8.4590012  69.6130012   5.8474997  -8.4390012
  69.3640012   7.0004997  -9.3880012  69.4759863   6.6919534  -8.5817661
  62.6250012   4.8944997 -11.1870012  62.6690012   5.7544997 -11.6050012
  62.1680012   4.3424997 -11.8210012  62.5692185   4.9375799 -11.3299701
  70.3480012   5.0254997 -12.7860012  70.9940012   4.6964997 -12.1610012
  70.8580012   5.5434997 -13.4090012  70.5054264   5.0504611 -12.7846138
  59.2460012   7.2914997 -10.4250012  59.8990012   6.7414997  -9.9930012
  59.2700012   7.0174997 -11.3420012  59.3386683   7.1791466 -10.4897877
  64.4020012   8.8414997 -11.2100012  65.0180012   8.3154997 -10.7000012
  63.8160012   8.2014997 -11.6130012  64.4070810   8.6829208 -11.1946827
  75.3840012   5.4784997  -5.6900012  74.6960012   6.1364997  -5.7860012
  75.4000012   5.2814997  -4.7540012  75.2918525   5.5420462  -5.5765192
  61.4360012   3.8124997  -7.1130012  61.2170012   4.3424997  -7.8790012
  60.7680012   4.0394997  -6.4660012  61.3157600   3.9156906  -7.1303621
  68.8050012  13.3124997 -13.5690012  68.5090012  12.9904997 -14.4200012
  68.4800012  14.2124997 -13.5280012  68.7206371  13.3900215 -13.6798199
  64.0050012  11.4884997  -6.8260012  63.2650012  12.0864997  -6.7220012
  64.7190012  12.0424997  -7.1410012  64.0002237  11.6452831  -6.8543535
  72.1120012   4.3164997 -10.8060012  71.8960012   3.5504997 -10.2730012
  72.7670012   4.7884997 -10.2930012  72.1710632   4.2755889 -10.6637139
  61.0290012   5.7044997  -9.1610012  61.6430012   6.3374997  -8.7870012
  61.5410012   5.2324997  -9.8170012  61.1822296   5.7272370  -9.1985748
  62.4120012  13.4524997  -6.0380012  62.4070012  14.3324997  -6.4160012
  61.5590012  13.3694997  -5.6130012  62.2959464  13.5616117  -6.0322093
  58.5330012  13.1234997 -15.2560012  58.2610012  13.3524997 -16.1450012
  58.5790012  13.9614997 -14.7960012  58.5020094  13.2681213 -15.3154303
  72.1580012  14.7454997  -8.5440012  71.2170012  14.8034997  -8.3820012
  72.4350012  15.6514997  -8.6810012  72.0664679  14.8759443  -8.5403185
  72.4590012   3.0314997  -7.1260012  71.7230012   3.6424997  -7.1640012
  73.1420012   3.4464997  -7.6530012  72.4506541   3.1711374  -7.2024168
  65.4620012   1.1184997  -9.6600012  65.3450012   0.1694997  -9.7150012
  64.6070012   1.4504997  -9.3870012  65.3303733   1.0335409  -9.6306103
  70.4100012  16.5264997 -11.9180012  70.8360012  15.8194997 -12.4030012
  70.7270012  17.3274997 -12.3350012  70.5111019  16.5380994 -12.0406870
  71.5700012  14.4274997 -13.4100012  71.3120012  13.7374997 -14.0210012
  71.6410012  13.9844997 -12.5640012  71.5442856  14.2732124 -13.3793115
  73.2560012  12.9934997  -4.9320012  73.3960012  12.4024997  -5.6720012
  73.4230012  13.8664997  -5.2890012  73.2976778  13.0306426  -5.0813035
  67.7290012   9.9554997 -15.1600012  67.0170012  10.4904997 -15.5120012
  68.4200012  10.0114997 -15.8200012  67.7250132  10.0362543 -15.2973711
  67.7820012   8.4134997 -18.1210012  68.4830012   8.4354997 -17.4700012
  68.0850012   7.7854997 -18.7770012  67.9187830   8.3316566 -18.1206289
  75.0980012   9.3334997  -6.8660012  74.4450012  10.0284997  -6.7770012
  75.5630012   9.5434997  -7.6760012  75.0715390   9.4569425  -6.9633117
  71.1340012  10.1654997 -14.2080012  70.4020012  10.3934997 -13.6350012
  71.5820012   9.4514997 -13.7530012  71.0943095  10.1002571 -14.0680881
  71.0320012   8.3394997  -5.1410012  71.1120012   9.1024997  -4.5690012
  70.4300012   8.6184997  -5.8310012  70.9615756   8.4817134  -5.1559411
  62.7800012  10.7954997 -12.3260012  62.4490012  10.4254997 -13.1440012
  63.3680012  10.1254997 -11.9790012  62.8141873  10.6541156 -12.3911898
  64.1460012  14.2234997  -9.6440012  64.0520012  13.6454997 -10.4010012
  64.8760012  13.8524997  -9.1480012  64.2317981  14.0942390  -9.6805835
  63.1460012   9.5644997  -8.6920012  63.7120012   9.6854997  -9.4550012
  63.4650012  10.2014997  -8.0530012  63.2665786   9.6671884  -8.7099960
  69.4550012  15.0674997  -7.9580012  69.2150012  15.7294997  -7.3100012
  69.2570012  14.2334997  -7.5330012  69.3953808  15.0453134  -7.8118476
  64.0260012  13.9634997  -3.9750012  63.7150012  14.7454997  -3.5200012
  63.3760012  13.8104997  -4.6610012  63.8955558  14.0499105  -4.0054129
  70.0050012   9.3274997 -16.5230012  70.5850012   9.4774997 -15.7760012
  70.4190012   9.7984997 -17.2460012  70.1402831   9.4116841 -16.5185866
  60.9460012  10.1614997  -4.7460012  61.0170012  10.8124997  -4.0480012
  60.0560012  10.2644997  -5.0810012  60.8353117  10.2645936  -4.6957300
  67.7320012  16.0644997 -13.0880012  68.2060012  16.3594997 -12.3100012
  67.1690012  16.8024997 -13.3210012  67.7207653  16.2046932 -13.0129864
  62.2660012  16.0354997  -3.2120012  62.2730012  15.8994997  -4.1590012
  61.3500012  15.9174997  -2.9600012  62.1431714  16.0009430  -3.3075334
  73.7040012   1.0774997 -16.7100012  72.8040012   1.2164997 -16.4150012
  73.9560012   1.9084997 -17.1120012  73.6148702   1.2089074 -16.7239795
  61.7700012   9.8654997 -14.7360012  61.4780012  10.6334997 -15.2270012
  61.0960012   9.2054997 -14.8990012  61.6389081   9.8814406 -14.8252660
  74.8930012  15.4434997 -18.3340012  74.9670012  16.3824997 -18.1630012
  75.7990012  15.1384997 -18.3900012  75.0255100  15.5306722 -18.3181881
  57.8630012  12.2284997  -5.9210012  57.3620012  12.2004997  -6.7360012
  57.8680012  11.3224997  -5.6120012  57.7951526  12.1022278  -5.9907128
  57.6130012  15.0084997  -9.0370012  58.5590012  14.8644997  -9.0560012
  57.5010012  15.7924997  -8.5000012  57.7272727  15.0948046  -8.9669928
  75.8110012  15.6744997  -3.3550012  75.7620012  14.7194997  -3.3920012
  74.9840012  15.9424997  -2.9540012  75.6924940  15.5798998  -3.3058625
  66.7900012  15.2484997  -4.4790012  66.8770012  16.0744997  -4.0040012
  65.9260012  14.9184997  -4.2300012  66.6851964  15.3169878  -4.3803451
  67.2040012  19.0204997 -14.6730012  67.1290012  18.8994997 -15.6190012
  67.2370012  19.9704997 -14.5540012  67.1981848  19.1322500 -14.7865166
  60.8570012  17.8094997 -12.8920012  61.0100012  17.4614997 -12.0130012
  60.0070012  17.4534997 -13.1470012  60.7628962  17.7136650 -12.8061660
  70.3060012  18.1744997 -17.6710012  70.6810012  17.4304997 -18.1410012
  70.3100012  17.9044997 -16.7520012  70.3578915  18.0361486 -17.6112176
  69.9750012  18.1004997 -14.9210012  69.0390012  18.2004997 -14.7430012
  70.2550012  17.3914997 -14.3430012  69.8848255  18.0182711 -14.8184609
  72.9630012   7.1674997  -2.8750012  72.5560012   7.6484997  -3.5960012
  73.0040012   6.2624997  -3.1830012  72.9128437   7.1109374  -3.0153317
  60.1120012  13.5514997  -4.8780012  60.3280012  13.1904997  -4.0190012
  59.2570012  13.1774997  -5.0880012  60.0259292  13.4514111  -4.7886614
  62.7310012   2.0214997  -8.8830012  61.8690012   1.9344997  -9.2900012
  62.7080012   2.8774997  -8.4550012  62.6100330   2.1252765  -8.8808137
  67.3940012   1.7434997  -5.5080012  67.8140012   1.3284997  -4.7550012
  66.4610012   1.5654997  -5.3910012  67.3253644   1.6625900  -5.3890461
  70.7200012   5.4994997  -4.6550012  70.2060012   5.3734997  -3.8570012
  70.5650012   6.4114997  -4.8990012  70.6286852   5.6056132  -4.5787842
  71.4830012  10.3604997 -18.8930012  71.5250012  10.1374997 -19.8230012
  72.3320012  10.7594997 -18.7030012  71.6035396  10.3839155 -18.9946373
  67.0550012   4.2364997 -18.2230012  66.8020012   4.2554997 -17.3000012
  66.7990012   3.3644997 -18.5240012  66.9857790   4.1212437 -18.1373737
  62.8220012   6.9874997  -7.7880012  62.1800012   6.9464997  -7.0790012
  62.8590012   7.9134997  -8.0250012  62.7391324   7.1071559  -7.7230176
  62.8190012   7.2084997 -12.8760012  61.9260012   6.8674997 -12.9340012
  63.2690012   6.8314997 -13.6310012  62.7577305   7.1108484 -12.9860823
  68.3540012   7.6244997 -14.0590012  67.9450012   8.4394997 -14.3500012
  69.0750012   7.4844997 -14.6730012  68.3954537   7.7172018 -14.1818658
  67.4560012   7.7994997  -2.5710012  66.8940012   7.0954997  -2.2500012
  68.2830012   7.6794997  -2.1030012  67.4907095   7.6867883  -2.4637670
  69.3590012   7.0704997 -11.2450012  69.1640012   7.6754997 -11.9600012
  69.5400012   6.2364997 -11.6790012  69.3567614   7.0406300 -11.4015595
  60.5720012   7.3074997  -5.9210012  60.5340012   7.7074997  -5.0520012
  60.0810012   6.4904997  -5.8300012  60.5004684   7.2518069  -5.7898941
  63.9380012   4.6814997 -19.1220012  63.5070012   4.2364997 -18.3920012
  63.2200012   5.0534997 -19.6340012  63.7819438   4.6708940 -19.0913201
  57.1800012   4.4234997 -12.0700012  57.8110012   4.3944997 -11.3510012
  57.6290012   3.9984997 -12.8000012  57.3270774   4.3620492 -12.0703447
  58.4540012   5.1694997 -16.6460012  58.9280012   5.7604997 -17.2310012
  57.7370012   5.7004997 -16.2990012  58.4219341   5.3220867 -16.6791164
  68.6230012   8.7084997  -6.5730012  68.9460012   8.0774997  -7.2160012
  68.1830012   8.1734997  -5.9130012  68.6076895   8.5498440  -6.5717150
  65.4000012   4.6354997 -11.7890012  64.4890012   4.6924997 -11.5010012
  65.9060012   4.5754997 -10.9790012  65.3435413   4.6351985 -11.6399378
  60.2290012   6.2644997 -12.9630012  59.3390012   6.3644997 -13.3030012
  60.5250012   5.4224997 -13.3090012  60.1472823   6.1643545 -13.0562787
  63.8820012   6.2644997 -15.3060012  64.8130012   6.3934997 -15.1280012
  63.6670012   6.9344997 -15.9560012  63.9804247   6.3726565 -15.3694253
  69.8050012   3.8704997  -8.5250012  69.1290012   4.0014997  -7.8610012
  69.3200012   3.7154997  -9.3350012  69.6467145   3.8674905  -8.5435483
  62.5560012   7.4594997 -17.7390012  62.0130012   7.0794997 -18.4310012
  63.3890012   7.6534997 -18.1680012  62.5944399   7.4338124 -17.8915474
  73.0930012  19.5424997  -2.2480012  73.2930012  19.9664997  -3.0830012
  73.7480012  19.8854997  -1.6410012  73.2090051  19.6469648  -2.2802164
  60.6910012  12.0164997  -2.6400012  61.4230012  12.2704997  -2.0790012
  59.9110012  12.2204997  -2.1250012  60.6858232  12.0789177  -2.4934240
  66.7200012   7.4234997  -9.9020012  67.2850012   6.8764997 -10.4490012
  66.5730012   6.9014997  -9.1140012  66.7772918   7.2782024  -9.8701546
  61.7220012   3.5594997 -13.4840012  61.4050012   2.6574997 -13.5190012
  62.5040012   3.5614997 -14.0370012  61.7842284   3.4361628 -13.5635217
  65.3470012   5.8114997  -7.4880012  64.5110012   6.2654997  -7.3780012
  65.8710012   6.0874997  -6.7360012  65.3034414   5.9109376  -7.3712864
  65.8910012  12.0244997 -15.8040012  65.1460012  11.5174997 -16.1260012
  65.7570012  12.0734997 -14.8570012  65.7708776  11.9616940 -15.7201353
  73.0410012  11.1574997  -7.0170012  73.6830012  11.6144997  -7.5610012
  72.2110012  11.2704997  -7.4800012  73.0165963  11.2352704  -7.1539823
  69.7890012   4.8384997 -17.6040012  68.8500012   4.9504997 -17.7560012
  70.0860012   5.6954997 -17.2980012  69.7007666   4.9696443 -17.5834232
  67.4100012  12.2084997  -4.5670012  67.0650012  11.8274997  -3.7600012
  67.2100012  13.1424997  -4.4950012  67.3358061  12.2825228  -4.4469039
  70.5070012   6.7054997 -15.9440012  71.3990012   6.5684997 -15.6250012
  70.5640012   7.4964997 -16.4800012  70.6366285   6.7936660 -15.9728309
  61.0160012  11.3194997 -10.0340012  61.7610012  11.3174997 -10.6350012
  61.0940012  10.4964997  -9.5520012  61.1285518  11.2079315 -10.0511071
  68.0170012  13.4834997 -16.7780012  67.7210012  14.3094997 -16.3970012
  67.3140012  12.8634997 -16.5820012  67.8814914  13.5128199 -16.6993557
  58.0240012   9.7804997  -4.7190012  58.2470012   9.3624997  -3.8870012
  57.4220012   9.1674997  -5.1420012  57.9731759   9.6404668  -4.6622978
  65.0400012   9.2974997  -2.5060012  64.7440012   9.1314997  -3.4010012
  65.9720012   9.0774997  -2.5170012  65.1254166   9.2450640  -2.6299464
  69.6610012  14.6704997  -4.6160012  68.7600012  14.8534997  -4.8840012
  69.6950012  14.9294997  -3.6950012  69.5423041  14.7305512  -4.5281803
  75.3920012   6.9154997 -16.2490012  74.8380012   6.5194997 -16.9210012
  75.4920012   7.8254997 -16.5270012  75.3297059   6.9843586 -16.3785599
  75.3550012  12.7154997  -3.4120012  74.5040012  12.9534997  -3.7790012
  75.9460012  12.6984997  -4.1650012  75.3182487  12.7458258  -3.5641107
  73.6870012  15.7014997 -15.7840012  73.3140012  14.8754997 -15.4750012
  73.9650012  15.5184997 -16.6810012  73.6735630  15.5637303 -15.8630374
  70.8480012  10.5094997  -8.7630012  69.9190012  10.2774997  -8.7900012
  71.2990012   9.7324997  -9.0930012  70.7819216  10.3727238  -8.8113083
  63.3910012  14.8374997 -12.6300012  63.9180012  15.6104997 -12.8300012
  62.5110012  15.0624997 -12.9310012  63.3441773  14.9738005 -12.6980990
  59.1460012   9.6994997 -18.0430012  59.7620012  10.3264997 -17.6630012
  58.2840012  10.0154997 -17.7710012  59.1137698   9.8279430 -17.9542817
  64.8180012  12.5004997 -13.0530012  64.5770012  13.4254997 -13.0120012
  64.0770012  12.0414997 -12.6570012  64.6848409  12.5651421 -12.9938623
  65.3330012  16.6494997  -6.7380012  65.6950012  17.5044997  -6.9720012
  65.8640012  16.3574997  -5.9980012  65.4544473  16.7271060  -6.6699145
  63.5010012  17.5224997 -13.5080012  62.5510012  17.6274997 -13.4570012
  63.8530012  18.3424997 -13.1630012  63.4184203  17.6478314 -13.4543350
  68.8770012  12.7484997  -7.0380012  68.4510012  12.5214997  -6.2110012
  69.4570012  12.0104997  -7.2200012  68.8971868  12.6175299  -6.9494170
  71.0800012  13.6774997 -17.9640012  71.4330012  13.2974997 -17.1590012
  70.1310012  13.5844997 -17.8770012  71.0000441  13.6129596 -17.8421441
  71.5350012  17.3004997  -4.5680012  70.9340012  16.7454997  -5.0640012
  71.8170012  17.9674997  -5.1940012  71.4908519  17.3146841  -4.7205048
  75.5830012  18.1574997 -17.7630012  76.3270012  18.7434997 -17.9030012
  74.8890012  18.7254997 -17.4290012  75.5910292  18.3145582 -17.7370039
  59.6580012   4.5334997  -5.1610012  58.7650012   4.8724997  -5.2290012
  59.5590012   3.6784997  -4.7430012  59.5224164   4.4642588  -5.1137765
  71.9460012  12.3504997 -15.7370012  71.6680012  11.6224997 -15.1810012
  72.8730012  12.4694997 -15.5320012  72.0333124  12.2668802 -15.6331155
  59.3090012  16.3384997  -6.7260012  59.5260012  15.4064997  -6.7570012
  59.5550012  16.6124997  -5.8430012  59.3719549  16.2480636  -6.6108237
  65.1710012  14.7894997 -19.5170012  65.4100012  14.0414997 -20.0640012
  64.9020012  14.4014997 -18.6840012  65.1673675  14.6346638 -19.4793135
  64.1080012  14.3594997 -17.0600012  64.2540012  13.8394997 -16.2700012
  64.1050012  15.2664997 -16.7540012  64.1275989  14.4108853 -16.9103912
  60.5610012  11.6124997 -16.5500012  59.8750012  11.9644997 -15.9830012
  61.0830012  12.3754997 -16.7970012  60.5376852  11.7638578 -16.5057882
  68.3920012   4.2744997  -6.2710012  69.0910012   4.3484997  -5.6210012
  68.0110012   3.4104997  -6.1170012  68.4361767   4.1677624  -6.1611678
  69.1770012   3.9264997 -15.1740012  69.3970012   4.3984997 -15.9770012
  69.7350012   4.3214997 -14.5040012  69.2824968   4.0444285 -15.1932669
  66.8450012  16.0574997 -16.3110012  66.0290012  16.5544997 -16.2590012
  67.3750012  16.5324997 -16.9510012  66.8049161  16.1897722 -16.3904044
  66.3770012   5.6544997 -14.3390012  67.1890012   6.1594997 -14.2930012
  66.1320012   5.5094997 -13.4250012  66.4550520   5.7040375 -14.2091483
  66.9120012   6.6404997  -5.1540012  67.0310012   7.2144997  -4.3970012
  67.5680012   5.9524997  -5.0400012  67.0169757   6.6261079  -5.0349175
  67.2600012   2.7354997 -13.4010012  66.9140012   3.3534997 -12.7560012
  67.9190012   3.2364997 -13.8820012  67.3017826   2.8875802 -13.3779029
  64.1840012  17.1014997 -16.3290012  64.3440012  17.9004997 -16.8300012
  63.9860012  17.4074997 -15.4440012  64.1791649  17.2524469 -16.2780185
  62.9180012   3.7984997 -16.7140012  62.8350012   4.6874997 -16.3670012
  63.8080012   3.5334997 -16.4820012  63.0269469   3.8841430 -16.6352374
  73.1170012   4.5474997  -4.3190012  72.2000012   4.8104997  -4.4070012
  73.4520012   4.5444997  -5.2160012  73.0369900   4.5830224  -4.4522081
  71.7190012   8.2984997 -10.2240012  70.9210012   7.8834997 -10.5520012
  72.1640012   7.6074997  -9.7330012  71.6699885   8.1483543 -10.2025111
  61.1770012  14.2264997 -17.6530012  61.7690012  14.9254997 -17.3770012
  61.6360012  13.7934997 -18.3730012  61.3201142  14.2637049 -17.7125170
  59.4930012   6.8904997 -18.5370012  59.4480012   7.8294997 -18.3590012
  58.6050012   6.6544997 -18.8070012  59.3668574   6.9871892 -18.5491088
  72.8050012  17.5544997  -8.6010012  72.6500012  18.2324997  -9.2580012
  73.7380012  17.6264997  -8.3980012  72.9098500  17.6570170  -8.6634881
  60.3010012   1.6724997  -9.8640012  60.0720012   1.7314997 -10.7920012
  59.8580012   0.8804997  -9.5580012  60.2098530   1.5735753  -9.9495214
  59.2310012  15.6124997 -13.7040012  58.3990012  16.0854997 -13.6760012
  59.7770012  16.1224997 -14.3020012  59.1909739  15.7461871 -13.7810284
  58.5190012  18.2254997  -2.3740012  59.0600012  18.0084997  -1.6140012
  58.0380012  17.4194997  -2.5630012  58.5279345  18.0869514  -2.2956924
  63.1170012  17.1444997  -0.7530012  63.8840012  16.6854997  -0.4120012
  63.0950012  16.9184997  -1.6830012  63.2191434  17.0510409  -0.8319957
  67.2090012  16.6524997 -19.3780012  66.5650012  16.0214997 -19.0570012
  67.9710012  16.1214997 -19.6100012  67.2238077  16.4942920 -19.3653989
  69.6940012  15.5244997  -2.0240012  69.3430012  14.6684997  -1.7810012
  70.4200012  15.6674997  -1.4170012  69.7440769  15.4265636  -1.9086381
  71.8130012  16.4694997 -19.1440012  72.0960012  15.6754997 -18.6920012
  72.5530012  16.7024997 -19.7050012  71.9517486  16.3922803 -19.1579302
  58.4260012  12.0354997  -1.4190012  58.5700012  11.1334997  -1.7060012
  57.6540012  12.3214997  -1.9070012  58.3413322  11.9508261  -1.5242119
  62.7680012  12.3794997 -19.2870012  62.8320012  11.5854997 -18.7560012
  63.4210012  12.2604997 -19.9770012  62.8650241  12.2547148 -19.3075683
  65.0820012  12.0054997  -1.9870012  64.7530012  12.2764997  -2.8440012
  65.2340012  11.0644997  -2.0740012  65.0574809  11.9153862  -2.1161756
  70.8160012  11.9214997  -4.6030012  71.5620012  12.5094997  -4.7230012
  70.0590012  12.5034997  -4.5400012  70.8157554  12.0807011  -4.6109093
  59.2590012   9.2354997  -1.9990012  59.6670012   8.3784997  -2.1200012
  58.9990012   9.2504997  -1.0780012  59.2797568   9.1200807  -1.8910412
  63.9170012  10.3514997 -16.9810012  63.4570012   9.8674997 -16.2950012
  64.1720012   9.6834997 -17.6170012  63.8884902  10.1948731 -16.9730666
  63.2060012   8.2444997  -4.6250012  62.5880012   8.9194997  -4.3450012
  63.5500012   8.5654997  -5.4580012  63.1679615   8.3802721  -4.6993419
  64.9880012   8.5944997 -18.7190012  64.8080012   8.4404997 -19.6460012
  65.9380012   8.7024997 -18.6740012  65.0917776   8.5880175 -18.8398157
  68.2260012  10.7164997  -1.3480012  69.1790012  10.7994997  -1.3750012
  68.0650012  10.0044997  -0.7280012  68.3346426  10.6316746  -1.2679421
  74.3780012  10.9494997 -19.2730012  74.1040012  10.5244997 -20.0860012
  74.4170012  11.8804997 -19.4900012  74.3457699  11.0172484 -19.4136390
  63.5450012   5.5994997  -3.5430012  63.6950012   4.8704997  -4.1450012
  63.5480012   6.3764997  -4.1020012  63.5659302   5.6047851  -3.7009308
  63.9580012   3.9694997  -6.0500012  64.4940012   4.4204997  -6.7020012
  63.1060012   3.8614997  -6.4730012  63.9162178   4.0166390  -6.1964244
  65.5400012   9.4084997  -5.8110012  66.2900012   9.2524997  -6.3840012
  65.2010012  10.2604997  -6.0860012  65.5968921   9.5022968  -5.9266439
  69.9550012   7.2234997  -0.7820012  70.1480012   6.2924997  -0.8940012
  70.8130012   7.6484997  -0.7920012  70.0973020   7.1536389  -0.7986639
  71.2720012  10.0124997  -2.7050012  70.9910012  10.7214997  -3.2820012
  72.2150012   9.9394997  -2.8560012  71.3609027  10.0997646  -2.8044449
  62.0240012   6.7974997  -1.6310012  61.2570012   6.2654997  -1.8410012
  62.7030012   6.4874997  -2.2310012  62.0107022   6.6827506  -1.7408352
  64.7640012   1.4254997  -5.6190012  64.6650012   2.3724997  -5.7240012
  64.0210012   1.0534997  -6.0940012  64.6500564   1.5045902  -5.6975440
  66.0280012   5.7474997  -2.0550012  65.7920012   5.5274997  -1.1530012
  65.2440012   5.5404997  -2.5650012  65.8898628   5.6894760  -2.0006068
  68.7430012   4.8744997  -2.9790012  67.7960012   4.9064997  -2.8470012
  69.0560012   4.2494997  -2.3260012  68.6555475   4.7943207  -2.8725545
  70.3770012   3.5084997  -0.9740012  70.2810012   2.5564997  -0.9800012
  70.0560012   3.7774997  -0.1140012  70.3204070   3.4144035  -0.8584559
  60.2040012   4.7184997  -1.9270012  60.4160012   4.0114997  -2.5370012
  60.0930012   4.2804997  -1.0830012  60.2179721   4.5627084  -1.8963157
  64.9850012   0.7194997  -2.9470012  65.6970012   0.0794997  -2.9610012
  64.8840012   0.9864997  -3.8610012  65.0687939   0.6679938  -3.0724350
  65.3390012   2.4024997  -0.8940012  65.2070012   1.9264997  -1.7140012
  64.7400012   3.1464997  -0.9490012  65.2399071   2.4379618  -1.0137114
  64.8850012  19.2854997 -17.7170012  65.8180012  19.4434997 -17.5740012
  64.6210012  19.9604997 -18.3420012  64.9769510  19.3983611 -17.7819259
  58.4540012  13.9214997 -18.2350012  59.3680012  14.0004997 -17.9610012
  58.4610012  13.2344997 -18.9010012  58.5801131  13.8393961 -18.2875607
  57.1030012  19.3144997 -13.1570012  56.4560012  18.8524997 -13.6900012
  57.4570012  18.6424997 -12.5750012  57.0623849  19.1604723 -13.1512041
  57.9730012  17.3954997 -11.3530012  57.6380012  16.5154997 -11.1810012
  58.1950012  17.7404997 -10.4880012  57.9571783  17.3217500 -11.2125792
  75.5210012  18.2044997  -8.3720012  75.5000012  18.3894997  -7.4330012
  76.2120012  18.7734997  -8.7130012  75.6114618  18.3066606  -8.2896136
  75.0850012  17.7724997  -5.4500012  74.5970012  17.0364997  -5.8210012
  75.6340012  17.3784997  -4.7720012  75.0924872  17.6186249  -5.4090840
  73.5350012  13.5614997  -0.8120012  72.6690012  13.4564997  -0.4180012
  73.9120012  14.3204997  -0.3660012  73.4673308  13.6496900  -0.6977607
  74.8360012  11.8184997 -15.2980012  75.6860012  12.2394997 -15.1710012
  74.8420012  11.0784997 -14.6910012  74.9531372  11.7760803 -15.1985656
  75.2310012   9.8714997 -13.4740012  74.5040012   9.3924997 -13.0770012
  75.8120012  10.0774997 -12.7420012  75.2099375   9.8337090 -13.3205871
  74.9900012  12.6564997  -8.5270012  75.8230012  12.2784997  -8.8070012
  75.1020012  13.5994997  -8.6460012  75.1192647  12.7322218  -8.5814513
  73.4760012  15.5344997  -6.2200012  72.8290012  15.8594997  -5.5940012
  72.9590012  15.0944997  -6.8940012  73.3174029  15.5195004  -6.2254173
  75.4990012   9.7724997 -17.0830012  74.9770012  10.1294997 -17.8020012
  75.4660012  10.4474997 -16.4050012  75.4231634   9.9125413 -17.0896855
  73.8480012   7.0124997 -18.5320012  73.9440012   7.6794997 -19.2130012
  73.7080012   6.1964997 -19.0140012  73.8422135   6.9934500 -18.6901509
  73.0170012   8.3924997 -12.9110012  72.8670012   7.4474997 -12.9320012
  72.6640012   8.6734997 -12.0680012  72.9486625   8.3010441 -12.7997654
  58.0530012  10.4704997  -8.9010012  58.2370012  10.3884997  -9.8370012
  58.9020012  10.3464997  -8.4770012  58.1930139  10.4425003  -8.9718545
  73.8740012  10.3624997  -3.2730012  74.4570012   9.6284997  -3.0810012
  74.4380012  11.1344997  -3.2260012  74.0299769  10.3664227  -3.2403841
  75.3700012   8.2654997  -2.5880012  74.5070012   7.8864997  -2.7540012
  75.9750012   7.5264997  -2.6620012  75.3335979   8.1138023  -2.6207183
  73.0950012   4.4204997 -19.4150012  73.7060012   4.0494997 -18.7780012
  72.2590012   3.9994997 -19.2190012  73.0655032   4.3127554 -19.3012965
  72.7280012   5.9754997 -14.4490012  73.0080012   5.0684997 -14.3250012
  73.4870012   6.4094997 -14.8380012  72.8689277   5.9100942 -14.4846318
  73.3400012   6.5564997  -9.0130012  74.2730012   6.7684997  -9.0470012
  73.1050012   6.6584997  -8.0910012  73.4358036   6.5992769  -8.8930024
  73.3690012   7.2934997  -6.2370012  72.5260012   7.5614997  -5.8710012
  73.8110012   8.1154997  -6.4480012  73.3134158   7.4413291  -6.2154509
  57.6500012   5.7414997  -2.7600012  58.5700012   5.6194997  -2.5240012
  57.2010012   4.9914997  -2.3710012  57.7151580   5.6233727  -2.6750994
  75.6520012   1.2734997  -0.8840012  76.0020012   0.6194997  -1.4890012
  75.7990012   2.1104997  -1.3230012  75.7198419   1.2971591  -1.0262882
  73.3410012   3.2384997 -14.4010012  73.5240012   2.7894997 -13.5750012
  72.7420012   2.6534997 -14.8640012  73.2850202   3.0979975 -14.3506725
  58.8710012   4.0534997  -9.8690012  59.3170012   3.2614997  -9.5670012
  59.3380012   4.7694997  -9.4380012  58.9950172   4.0420624  -9.7695180
  57.1750012   7.0524997  -8.8000012  57.6670012   6.8314997  -9.5910012
  57.5380012   7.8934997  -8.5190012  57.2913126   7.1358357  -8.8702469
  75.1720012   3.3824997  -2.5340012  74.2540012   3.6534997  -2.5700012
  75.2950012   2.8474997  -3.3190012  75.0631066   3.3472892  -2.6449513
  75.2080012   3.3054997 -17.8730012  75.6200012   2.5844997 -18.3480012
  75.8900012   3.9754997 -17.8140012  75.3565885   3.2972368 -17.9301085
  57.4890012   3.3104997 -14.7460012  56.5640012   3.5194997 -14.8750012
  57.9430012   3.7944997 -15.4350012  57.4237368   3.4045993 -14.8568774
  72.2600012  18.2944997 -12.8000012  72.9120012  17.9474997 -13.4080012
  72.7700012  18.7834997 -12.1540012  72.4182637  18.3130597 -12.7959764
  57.4530012   2.0484997  -6.4010012  56.7880012   1.8024997  -5.7580012
  57.0100012   2.6704997  -6.9790012  57.3020956   2.0988632  -6.3910648
  59.6450012  15.2234997  -2.2570012  58.8240012  15.3984997  -2.7170012
  59.3920012  15.1504997  -1.3360012  59.4986164  15.2375622  -2.1955077
  62.5990012  16.1984997  -5.9980012  62.1740012  17.0074997  -6.2810012
  63.5030012  16.2834997  -6.3000012  62.6630271  16.3208469  -6.0776224
  66.9100012  17.5974997  -3.0390012  67.0950012  17.2634997  -2.1610012
  67.7560012  17.9064997  -3.3610012  67.0497539  17.5936047  -2.9624395
  69.2550012  18.8834997  -3.7950012  69.9320012  18.2504997  -4.0350012
  69.5770012  19.2844997  -2.9880012  69.3911637  18.8511154  -3.7187207
  74.1720012   1.4724997  -4.7150012  73.3600012   1.7974997  -5.1030012
  74.4050012   0.7124997  -5.2480012  74.0923423   1.4142436  -4.8401747
  60.0010012  19.4544997  -5.9510012  59.2800012  19.8944997  -6.4020012
  59.6350012  19.2034997  -5.1020012  59.8529804  19.4807698  -5.8980160
  62.4680012  19.0544997  -6.9210012  61.6030012  19.1264997  -6.5170012
  62.4130012  19.6014997  -7.7050012  62.3422085  19.1382685  -6.9716638
  67.1780012  18.9424997  -7.7460012  66.7220012  19.4714997  -8.4000012
  67.3410012  19.5454997  -7.0200012  67.1375585  19.0964468  -7.7374938
  69.5060012  17.8204997  -6.8010012  68.6010012  17.9854997  -7.0660012
  69.9350012  18.6734997  -6.8660012  69.4400799  17.9584483  -6.8460818
  72.1100012  19.3904997  -6.5060012  71.9280012  20.3064997  -6.7160012
  72.2870012  18.9804997  -7.3520012  72.1090210  19.4604822  -6.6492115
  59.4150012  18.0774997  -9.0410012  59.3970012  17.6524997  -8.1830012
  60.2200012  17.7594997  -9.4490012  59.5213875  17.9763812  -8.9788345
  61.5570012  16.7874997 -10.3860012  61.3380012  15.8714997 -10.2160012
  62.3810012  16.9274997  -9.9200012  61.6384420  16.6810520 -10.2997226
  64.0940012  17.2574997  -9.5370012  64.3070012  16.3694997  -9.8240012
  64.1580012  17.2234997  -8.5830012  64.1318232  17.1313102  -9.4472603
  67.6020012   2.9214997 -10.3930012  66.9280012   2.2924997 -10.1370012
  68.1660012   2.4374997 -10.9960012  67.5859230   2.7698744 -10.4394660
  72.7450012   1.0294997 -10.2800012  73.3490012   1.5764997 -10.7820012
  71.8750012   1.3484997 -10.5200012  72.7101241   1.1475806 -10.3812346
  74.4720012   2.1674997 -11.9470012  75.0840012   1.6534997 -12.4730012
  74.8540012   3.0454997 -11.9230012  74.6074540   2.2157140 -12.0158170
  59.9290012   1.5554997 -12.5710012  59.1520012   1.3214997 -13.0780012
  60.4590012   0.7584997 -12.5620012  59.8942330   1.4156988 -12.6392258
  58.7650012   1.3534997 -16.7670012  59.2040012   1.9644997 -17.3590012
  58.1320012   1.8914997 -16.2930012  58.7394514   1.5099257 -16.7839070
  64.5080012   1.4824997 -12.7570012  65.3830012   1.8704997 -12.7870012
  64.3720012   1.2674997 -11.8350012  64.6093695   1.5065184 -12.6363560
  70.0650012   1.5124997 -11.1080012  70.1410012   1.6074997 -12.0580012
  69.7900012   0.6044997 -10.9790012  70.0382321   1.4027867 -11.2204921
  71.4180012   1.5384997 -15.4160012  70.7160012   2.1534997 -15.6250012
  70.9740012   0.7004997 -15.2850012  71.2616330   1.5095783 -15.4269672
  58.6660012  17.3014997 -15.8690012  57.9810012  17.2634997 -16.5370012
  58.6700012  18.2144997 -15.5810012  58.5728193  17.4197016 -15.9214716
  60.6260012   3.2694997 -18.3250012  61.1180012   2.6394997 -18.8520012
  61.2500012   3.5654997 -17.6610012  60.7775446   3.2233199 -18.3074020
  65.6520012   3.5624997 -15.8680012  65.8300012   2.9164997 -15.1850012
  65.5990012   4.3964997 -15.4000012  65.6691829   3.5867985 -15.7114060
  67.5310012  18.5114997 -17.4720012  68.3970012  18.8774997 -17.6500012
  67.2840012  18.0714997 -18.2860012  67.6162392  18.5021756 -17.6063711
  74.2400012  18.0744997 -14.7930012  74.0450012  17.3264997 -15.3580012
  74.2010012  18.8324997 -15.3760012  74.2080380  18.0746099 -14.9491616
  59.8870012   2.0694997  -3.0530012  59.5210012   1.3044997  -2.6100012
  60.8000012   2.0984997  -2.7660012  59.9602790   1.9687224  -2.9535930
  61.8600012   1.4204997  -1.5170012  62.7580012   1.1464997  -1.7020012
  61.4730012   0.6774997  -1.0530012  61.9306612   1.2825914  -1.4796357
  60.4840012  18.2214997 -18.8440012  60.2170012  18.5084997 -17.9710012
  61.2560012  17.6754997 -18.6920012  60.5517488  18.1870294 -18.7038950
  70.2810012   0.7524997  -1.3350012  70.3580012   0.3264997  -0.4810012
  71.1750012   0.7664997  -1.6780012  70.4123428   0.6960879  -1.2644690
  73.4570012  16.8254997  -2.6430012  72.6750012  16.6394997  -3.1620012
  73.3850012  17.7544997  -2.4250012  73.3401777  16.9256492  -2.6845952
  87.8630012  10.7114997 -12.6120012  87.9520012  11.6554997 -12.7440012
  87.2250012  10.4364997 -13.2700012  87.7889081  10.8034830 -12.7190386
  86.7960012   9.9664997  -9.1930012  86.7580012   9.3204997  -8.4880012
  86.4740012   9.5004997  -9.9640012  86.7472333   9.8149408  -9.2007022
  79.1650012   9.5814997  -7.6000012  79.2060012   8.9554997  -6.8770012
  79.8680012  10.2054997  -7.4180012  79.2656363   9.5801196  -7.4763956
  90.5020012  12.9054997 -10.8920012  90.0620012  12.1854997 -10.4410012
  90.4890012  13.6264997 -10.2620012  90.4400226  12.9043731 -10.7451506
  80.0880012  14.0314997  -9.0650012  79.7190012  13.2294997  -9.4350012
  81.0290012  13.8624997  -9.0190012  80.1647289  13.8990153  -9.1093684
  76.6980012   7.6914997 -13.6720012  76.2510012   8.5374997 -13.6910012
  76.1370012   7.1114997 -14.1880012  76.5609900   7.7289916 -13.7443199
  77.4090012   9.8534997 -11.5460012  77.6220012   9.0834997 -11.0190012
  78.1470012   9.9424997 -12.1500012  77.5378496   9.7601394 -11.5554700
  87.6140012  18.0104997 -10.6790012  88.2340012  17.3334997 -10.9530012
  87.4060012  17.7924997  -9.7710012  87.6706904  17.8883870 -10.5936635
  85.1860012  12.3994997  -8.7870012  85.4900012  11.7134997  -9.3820012
  85.9070012  12.5174997  -8.1690012  85.3250671  12.3216305  -8.7848184
  93.8490012   4.0004997  -7.9260012  93.8980012   4.6104997  -7.1900012
  94.2740012   4.4614997  -8.6490012  93.9131824   4.1463741  -7.9229795
  88.3270012   6.7934997  -8.4590012  88.4690012   5.8474997  -8.4390012
  88.2200012   7.0004997  -9.3880012  88.3319864   6.6919534  -8.5817661
  81.4810012   4.8944997 -11.1870012  81.5250012   5.7544997 -11.6050012
  81.0240012   4.3424997 -11.8210012  81.4252185   4.9375799 -11.3299701
  89.2040012   5.0254997 -12.7860012  89.8500012   4.6964997 -12.1610012
  89.7140012   5.5434997 -13.4090012  89.3614264   5.0504611 -12.7846138
  78.1020012   7.2914997 -10.4250012  78.7550012   6.7414997  -9.9930012
  78.1260012   7.0174997 -11.3420012  78.1946683   7.1791466 -10.4897877
  83.2580012   8.8414997 -11.2100012  83.8740012   8.3154997 -10.7000012
  82.6720012   8.2014997 -11.6130012  83.2630810   8.6829208 -11.1946827
  94.2400012   5.4784997  -5.6900012  93.5520012   6.1364997  -5.7860012
  94.2560012   5.2814997  -4.7540012  94.1478525   5.5420462  -5.5765192
  80.2920012   3.8124997  -7.1130012  80.0730012   4.3424997  -7.8790012
  79.6240012   4.0394997  -6.4660012  80.1717600   3.9156906  -7.1303621
  87.6610012  13.3124997 -13.5690012  87.3650012  12.9904997 -14.4200012
  87.3360012  14.2124997 -13.5280012  87.5766371  13.3900215 -13.6798199
  82.8610012  11.4884997  -6.8260012  82.1210012  12.0864997  -6.7220012
  83.5750012  12.0424997  -7.1410012  82.8562237  11.6452831  -6.8543535
  90.9680012   4.3164997 -10.8060012  90.7520012   3.5504997 -10.2730012
  91.6230012   4.7884997 -10.2930012  91.0270632   4.2755889 -10.6637139
  79.8850012   5.7044997  -9.1610012  80.4990012   6.3374997  -8.7870012
  80.3970012   5.2324997  -9.8170012  80.0382296   5.7272370  -9.1985748
  81.2680012  13.4524997  -6.0380012  81.2630012  14.3324997  -6.4160012
  80.4150012  13.3694997  -5.6130012  81.1519464  13.5616117  -6.0322093
  77.3890012  13.1234997 -15.2560012  77.1170012  13.3524997 -16.1450012
  77.4350012  13.9614997 -14.7960012  77.3580094  13.2681213 -15.3154303
  91.0140012  14.7454997  -8.5440012  90.0730012  14.8034997  -8.3820012
  91.2910012  15.6514997  -8.6810012  90.9224679  14.8759443  -8.5403185
  91.3150012   3.0314997  -7.1260012  90.5790012   3.6424997  -7.1640012
  91.9980012   3.4464997  -7.6530012  91.3066541   3.1711374  -7.2024168
  84.3180012   1.1184997  -9.6600012  84.2010012   0.1694997  -9.7150012
  83.4630012   1.4504997  -9.3870012  84.1863733   1.0335409  -9.6306103
  89.2660012  16.5264997 -11.9180012  89.6920012  15.8194997 -12.4030012
  89.5830012  17.3274997 -12.3350012  89.3671019  16.5380994 -12.0406870
  90.4260012  14.4274997 -13.4100012  90.1680012  13.7374997 -14.0210012
  90.4970012  13.9844997 -12.5640012  90.4002856  14.2732124 -13.3793115
  92.1120012  12.9934997  -4.9320012  92.2520012  12.4024997  -5.6720012
  92.2790012  13.8664997  -5.2890012  92.1536778  13.0306426  -5.0813035
  86.5850012   9.9554997 -15.1600012  85.8730012  10.4904997 -15.5120012
  87.2760012  10.0114997 -15.8200012  86.5810132  10.0362543 -15.2973711
  86.6380012   8.4134997 -18.1210012  87.3390012   8.4354997 -17.4700012
  86.9410012   7.7854997 -18.7770012  86.7747830   8.3316566 -18.1206289
  93.9540012   9.3334997  -6.8660012  93.3010012  10.0284997  -6.7770012
  94.4190012   9.5434997  -7.6760012  93.9275390   9.4569425  -6.9633117
  89.9900012  10.1654997 -14.2080012  89.2580012  10.3934997 -13.6350012
  90.4380012   9.4514997 -13.7530012  89.9503095  10.1002571 -14.0680881
  89.8880012   8.3394997  -5.1410012  89.9680012   9.1024997  -4.5690012
  89.2860012   8.6184997  -5.8310012  89.8175756   8.4817134  -5.1559411
  81.6360012  10.7954997 -12.3260012  81.3050012  10.4254997 -13.1440012
  82.2240012  10.1254997 -11.9790012  81.6701873  10.6541156 -12.3911898
  83.0020012  14.2234997  -9.6440012  82.9080012  13.6454997 -10.4010012
  83.7320012  13.8524997  -9.1480012  83.0877981  14.0942390  -9.6805835
  82.0020012   9.5644997  -8.6920012  82.5680012   9.6854997  -9.4550012
  82.3210012  10.2014997  -8.0530012  82.1225786   9.6671884  -8.7099960
  88.3110012  15.0674997  -7.9580012  88.0710012  15.7294997  -7.3100012
  88.1130012  14.2334997  -7.5330012  88.2513808  15.0453134  -7.8118476
  82.8820012  13.9634997  -3.9750012  82.5710012  14.7454997  -3.5200012
  82.2320012  13.8104997  -4.6610012  82.7515558  14.0499105  -4.0054129
  88.8610012   9.3274997 -16.5230012  89.4410012   9.4774997 -15.7760012
  89.2750012   9.7984997 -17.2460012  88.9962830   9.4116841 -16.5185866
  79.8020012  10.1614997  -4.7460012  79.8730012  10.8124997  -4.0480012
  78.9120012  10.2644997  -5.0810012  79.6913117  10.2645936  -4.6957300
  86.5880012  16.0644997 -13.0880012  87.0620012  16.3594997 -12.3100012
  86.0250012  16.8024997 -13.3210012  86.5767653  16.2046932 -13.0129864
  81.1220012  16.0354997  -3.2120012  81.1290012  15.8994997  -4.1590012
  80.2060012  15.9174997  -2.9600012  80.9991714  16.0009430  -3.3075334
  92.5600012   1.0774997 -16.7100012  91.6600012   1.2164997 -16.4150012
  92.8120012   1.9084997 -17.1120012  92.4708702   1.2089074 -16.7239795
  80.6260012   9.8654997 -14.7360012  80.3340012  10.6334997 -15.2270012
  79.9520012   9.2054997 -14.8990012  80.4949081   9.8814406 -14.8252660
  93.7490012  15.4434997 -18.3340012  93.8230012  16.3824997 -18.1630012
  94.6550012  15.1384997 -18.3900012  93.8815100  15.5306722 -18.3181881
  76.7190012  12.2284997  -5.9210012  76.2180012  12.2004997  -6.7360012
  76.7240012  11.3224997  -5.6120012  76.6511526  12.1022278  -5.9907128
  76.4690012  15.0084997  -9.0370012  77.4150012  14.8644997  -9.0560012
  76.3570012  15.7924997  -8.5000012  76.5832727  15.0948046  -8.9669928
  94.6670012  15.6744997  -3.3550012  94.6180012  14.7194997  -3.3920012
  93.8400012  15.9424997  -2.9540012  94.5484940  15.5798998  -3.3058625
  85.6460012  15.2484997  -4.4790012  85.7330012  16.0744997  -4.0040012
  84.7820012  14.9184997  -4.2300012  85.5411964  15.3169878  -4.3803451
  86.0600012  19.0204997 -14.6730012  85.9850012  18.8994997 -15.6190012
  86.0930012  19.9704997 -14.5540012  86.0541848  19.1322500 -14.7865166
  79.7130012  17.8094997 -12.8920012  79.8660012  17.4614997 -12.0130012
  78.8630012  17.4534997 -13.1470012  79.6188962  17.7136650 -12.8061660
  89.1620012  18.1744997 -17.6710012  89.5370012  17.4304997 -18.1410012
  89.1660012  17.9044997 -16.7520012  89.2138915  18.0361486 -17.6112176
  88.8310012  18.1004997 -14.9210012  87.8950012  18.2004997 -14.7430012
  89.1110012  17.3914997 -14.3430012  88.7408255  18.0182711 -14.8184609
  91.8190012   7.1674997  -2.8750012  91.4120012   7.6484997  -3.5960012
  91.8600012   6.2624997  -3.1830012  91.7688437   7.1109374  -3.0153317
  78.9680012  13.5514997  -4.8780012  79.1840012  13.1904997  -4.0190012
  78.1130012  13.1774997  -5.0880012  78.8819292  13.4514111  -4.7886614
  81.5870012   2.0214997  -8.8830012  80.7250012   1.9344997  -9.2900012
  81.5640012   2.8774997  -8.4550012  81.4660330   2.1252765  -8.8808137
  86.2500012   1.7434997  -5.5080012  86.6700012   1.3284997  -4.7550012
  85.3170012   1.5654997  -5.3910012  86.1813644   1.6625900  -5.3890461
  89.5760012   5.4994997  -4.6550012  89.0620012   5.3734997  -3.8570012
  89.4210012   6.4114997  -4.8990012  89.4846852   5.6056132  -4.5787842
  90.3390012  10.3604997 -18.8930012  90.3810012  10.1374997 -19.8230012
  91.1880012  10.7594997 -18.7030012  90.4595396  10.3839155 -18.9946373
  85.9110012   4.2364997 -18.2230012  85.6580012   4.2554997 -17.3000012
  85.6550012   3.3644997 -18.5240012  85.8417790   4.1212437 -18.1373737
  81.6780012   6.9874997  -7.7880012  81.0360012   6.9464997  -7.0790012
  81.7150012   7.9134997  -8.0250012  81.5951324   7.1071559  -7.7230176
  81.6750012   7.2084997 -12.8760012  80.7820012   6.8674997 -12.9340012
  82.1250012   6.8314997 -13.6310012  81.6137305   7.1108484 -12.9860823
  87.2100012   7.6244997 -14.0590012  86.8010012   8.4394997 -14.3500012
  87.9310012   7.4844997 -14.6730012  87.2514537   7.7172018 -14.1818658
  86.3120012   7.7994997  -2.5710012  85.7500012   7.0954997  -2.2500012
  87.1390012   7.6794997  -2.1030012  86.3467095   7.6867883  -2.4637670
  88.2150012   7.0704997 -11.2450012  88.0200012   7.6754997 -11.9600012
  88.3960012   6.2364997 -11.6790012  88.2127614   7.0406300 -11.4015595
  79.4280012   7.3074997  -5.9210012  79.3900012   7.7074997  -5.0520012
  78.9370012   6.4904997  -5.8300012  79.3564684   7.2518069  -5.7898941
  82.7940012   4.6814997 -19.1220012  82.3630012   4.2364997 -18.3920012
  82.0760012   5.0534997 -19.6340012  82.6379438   4.6708940 -19.0913201
  76.0360012   4.4234997 -12.0700012  76.6670012   4.3944997 -11.3510012
  76.4850012   3.9984997 -12.8000012  76.1830774   4.3620492 -12.0703447
  77.3100012   5.1694997 -16.6460012  77.7840012   5.7604997 -17.2310012
  76.5930012   5.7004997 -16.2990012  77.2779341   5.3220867 -16.6791164
  87.4790012   8.7084997  -6.5730012  87.8020012   8.0774997  -7.2160012
  87.0390012   8.1734997  -5.9130012  87.4636895   8.5498441  -6.5717150
  84.2560012   4.6354997 -11.7890012  83.3450012   4.6924997 -11.5010012
  84.7620012   4.5754997 -10.9790012  84.1995413   4.6351985 -11.6399378
  79.0850012   6.2644997 -12.9630012  78.1950012   6.3644997 -13.3030012
  79.3810012   5.4224997 -13.3090012  79.0032823   6.1643545 -13.0562787
  82.7380012   6.2644997 -15.3060012  83.6690012   6.3934997 -15.1280012
  82.5230012   6.9344997 -15.9560012  82.8364247   6.3726565 -15.3694253
  88.6610012   3.8704997  -8.5250012  87.9850012   4.0014997  -7.8610012
  88.1760012   3.7154997  -9.3350012  88.5027145   3.8674905  -8.5435483
  81.4120012   7.4594997 -17.7390012  80.8690012   7.0794997 -18.4310012
  82.2450012   7.6534997 -18.1680012  81.4504399   7.4338124 -17.8915474
  91.9490012  19.5424997  -2.2480012  92.1490012  19.9664997  -3.0830012
  92.6040012  19.8854997  -1.6410012  92.0650051  19.6469648  -2.2802164
  79.5470012  12.0164997  -2.6400012  80.2790012  12.2704997  -2.0790012
  78.7670012  12.2204997  -2.1250012  79.5418232  12.0789177  -2.4934240
  85.5760012   7.4234997  -9.9020012  86.1410012   6.8764997 -10.4490012
  85.4290012   6.9014997  -9.1140012  85.6332918   7.2782024  -9.8701546
  80.5780012   3.5594997 -13.4840012  80.2610012   2.6574997 -13.5190012
  81.3600012   3.5614997 -14.0370012  80.6402284   3.4361628 -13.5635217
  84.2030012   5.8114997  -7.4880012  83.3670012   6.2654997  -7.3780012
  84.7270012   6.0874997  -6.7360012  84.1594414   5.9109376  -7.3712864
  84.7470012  12.0244997 -15.8040012  84.0020012  11.5174997 -16.1260012
  84.6130012  12.0734997 -14.8570012  84.6268776  11.9616940 -15.7201353
  91.8970012  11.1574997  -7.0170012  92.5390012  11.6144997  -7.5610012
  91.0670012  11.2704997  -7.4800012  91.8725963  11.2352704  -7.1539823
  88.6450012   4.8384997 -17.6040012  87.7060012   4.9504997 -17.7560012
  88.9420012   5.6954997 -17.2980012  88.5567666   4.9696443 -17.5834232
  86.2660012  12.2084997  -4.5670012  85.9210012  11.8274997  -3.7600012
  86.0660012  13.1424997  -4.4950012  86.1918061  12.2825228  -4.4469039
  89.3630012   6.7054997 -15.9440012  90.2550012   6.5684997 -15.6250012
  89.4200012   7.4964997 -16.4800012  89.4926285   6.7936660 -15.9728310
  79.8720012  11.3194997 -10.0340012  80.6170012  11.3174997 -10.6350012
  79.9500012  10.4964997  -9.5520012  79.9845518  11.2079315 -10.0511071
  86.8730012  13.4834997 -16.7780012  86.5770012  14.3094997 -16.3970012
  86.1700012  12.8634997 -16.5820012  86.7374914  13.5128199 -16.6993557
  76.8800012   9.7804997  -4.7190012  77.1030012   9.3624997  -3.8870012
  76.2780012   9.1674997  -5.1420012  76.8291759   9.6404668  -4.6622978
  83.8960012   9.2974997  -2.5060012  83.6000012   9.1314997  -3.4010012
  84.8280012   9.0774997  -2.5170012  83.9814166   9.2450640  -2.6299464
  88.5170012  14.6704997  -4.6160012  87.6160012  14.8534997  -4.8840012
  88.5510012  14.9294997  -3.6950012  88.3983041  14.7305512  -4.5281803
  94.2480012   6.9154997 -16.2490012  93.6940012   6.5194997 -16.9210012
  94.3480012   7.8254997 -16.5270012  94.1857059   6.9843586 -16.3785599
  94.2110012  12.7154997  -3.4120012  93.3600012  12.9534997  -3.7790012
  94.8020012  12.6984997  -4.1650012  94.1742487  12.7458258  -3.5641107
  92.5430012  15.7014997 -15.7840012  92.1700012  14.8754997 -15.4750012
  92.8210012  15.5184997 -16.6810012  92.5295630  15.5637303 -15.8630374
  89.7040012  10.5094997  -8.7630012  88.7750012  10.2774997  -8.7900012
  90.1550012   9.7324997  -9.0930012  89.6379216  10.3727238  -8.8113083
  82.2470012  14.8374997 -12.6300012  82.7740012  15.6104997 -12.8300012
  81.3670012  15.0624997 -12.9310012  82.2001773  14.9738005 -12.6980990
  78.0020012   9.6994997 -18.0430012  78.6180012  10.3264997 -17.6630012
  77.1400012  10.0154997 -17.7710012  77.9697698   9.8279430 -17.9542817
  83.6740012  12.5004997 -13.0530012  83.4330012  13.4254997 -13.0120012
  82.9330012  12.0414997 -12.6570012  83.5408409  12.5651421 -12.9938623
  84.1890012  16.6494997  -6.7380012  84.5510012  17.5044997  -6.9720012
  84.7200012  16.3574997  -5.9980012  84.3104473  16.7271060  -6.6699145
  82.3570012  17.5224997 -13.5080012  81.4070012  17.6274997 -13.4570012
  82.7090012  18.3424997 -13.1630012  82.2744203  17.6478314 -13.4543350
  87.7330012  12.7484997  -7.0380012  87.3070012  12.5214997  -6.2110012
  88.3130012  12.0104997  -7.2200012  87.7531868  12.6175299  -6.9494170
  89.9360012  13.6774997 -17.9640012  90.2890012  13.2974997 -17.1590012
  88.9870012  13.5844997 -17.8770012  89.8560441  13.6129596 -17.8421441
  90.3910012  17.3004997  -4.5680012  89.7900012  16.7454997  -5.0640012
  90.6730012  17.9674997  -5.1940012  90.3468519  17.3146841  -4.7205048
  94.4390012  18.1574997 -17.7630012  95.1830012  18.7434997 -17.9030012
  93.7450012  18.7254997 -17.4290012  94.4470292  18.3145582 -17.7370039
  78.5140012   4.5334997  -5.1610012  77.6210012   4.8724997  -5.2290012
  78.4150012   3.6784997  -4.7430012  78.3784164   4.4642588  -5.1137765
  90.8020012  12.3504997 -15.7370012  90.5240012  11.6224997 -15.1810012
  91.7290012  12.4694997 -15.5320012  90.8893124  12.2668802 -15.6331155
  78.1650012  16.3384997  -6.7260012  78.3820012  15.4064997  -6.7570012
  78.4110012  16.6124997  -5.8430012  78.2279549  16.2480636  -6.6108237
  84.0270012  14.7894997 -19.5170012  84.2660012  14.0414997 -20.0640012
  83.7580012  14.4014997 -18.6840012  84.0233675  14.6346638 -19.4793135
  82.9640012  14.3594997 -17.0600012  83.1100012  13.8394997 -16.2700012
  82.9610012  15.2664997 -16.7540012  82.9835989  14.4108853 -16.9103912
  79.4170012  11.6124997 -16.5500012  78.7310012  11.9644997 -15.9830012
  79.9390012  12.3754997 -16.7970012  79.3936852  11.7638578 -16.5057882
  87.2480012   4.2744997  -6.2710012  87.9470012   4.3484997  -5.6210012
  86.8670012   3.4104997  -6.1170012  87.2921767   4.1677624  -6.1611678
  88.0330012   3.9264997 -15.1740012  88.2530012   4.3984997 -15.9770012
  88.5910012   4.3214997 -14.5040012  88.1384968   4.0444285 -15.1932669
  85.7010012  16.0574997 -16.3110012  84.8850012  16.5544997 -16.2590012
  86.2310012  16.5324997 -16.9510012  85.6609161  16.1897722 -16.3904044
  85.2330012   5.6544997 -14.3390012  86.0450012   6.1594997 -14.2930012
  84.9880012   5.5094997 -13.4250012  85.3110520   5.7040375 -14.2091483
  85.7680012   6.6404997  -5.1540012  85.8870012   7.2144997  -4.3970012
  86.4240012   5.9524997  -5.0400012  85.8729757   6.6261079  -5.0349175
  86.1160012   2.7354997 -13.4010012  85.7700012   3.3534997 -12.7560012
  86.7750012   3.2364997 -13.8820012  86.1577826   2.8875802 -13.3779029
  83.0400012  17.1014997 -16.3290012  83.2000012  17.9004997 -16.8300012
  82.8420012  17.4074997 -15.4440012  83.0351649  17.2524469 -16.2780185
  81.7740012   3.7984997 -16.7140012  81.6910012   4.6874997 -16.3670012
  82.6640012   3.5334997 -16.4820012  81.8829469   3.8841430 -16.6352374
  91.9730012   4.5474997  -4.3190012  91.0560012   4.8104997  -4.4070012
  92.3080012   4.5444997  -5.2160012  91.8929900   4.5830224  -4.4522081
  90.5750012   8.2984997 -10.2240012  89.7770012   7.8834997 -10.5520012
  91.0200012   7.6074997  -9.7330012  90.5259885   8.1483543 -10.2025111
  80.0330012  14.2264997 -17.6530012  80.6250012  14.9254997 -17.3770012
  80.4920012  13.7934997 -18.3730012  80.1761142  14.2637049 -17.7125170
  78.3490012   6.8904997 -18.5370012  78.3040012   7.8294997 -18.3590012
  77.4610012   6.6544997 -18.8070012  78.2228574   6.9871892 -18.5491088
  91.6610012  17.5544997  -8.6010012  91.5060012  18.2324997  -9.2580012
  92.5940012  17.6264997  -8.3980012  91.7658500  17.6570170  -8.6634881
  79.1570012   1.6724997  -9.8640012  78.9280012   1.7314997 -10.7920012
  78.7140012   0.8804997  -9.5580012  79.0658530   1.5735753  -9.9495214
  78.0870012  15.6124997 -13.7040012  77.2550012  16.0854997 -13.6760012
  78.6330012  16.1224997 -14.3020012  78.0469739  15.7461871 -13.7810284
  77.3750012  18.2254997  -2.3740012  77.9160012  18.0084997  -1.6140012
  76.8940012  17.4194997  -2.5630012  77.3839345  18.0869514  -2.2956924
  81.9730012  17.1444997  -0.7530012  82.7400012  16.6854997  -0.4120012
  81.9510012  16.9184997  -1.6830012  82.0751434  17.0510409  -0.8319957
  86.0650012  16.6524997 -19.3780012  85.4210012  16.0214997 -19.0570012
  86.8270012  16.1214997 -19.6100012  86.0798077  16.4942920 -19.3653989
  88.5500012  15.5244997  -2.0240012  88.1990012  14.6684997  -1.7810012
  89.2760012  15.6674997  -1.4170012  88.6000769  15.4265636  -1.9086381
  90.6690012  16.4694997 -19.1440012  90.9520012  15.6754997 -18.6920012
  91.4090012  16.7024997 -19.7050012  90.8077486  16.3922803 -19.1579302
  77.2820012  12.0354997  -1.4190012  77.4260012  11.1334997  -1.7060012
  76.5100012  12.3214997  -1.9070012  77.1973322  11.9508261  -1.5242119
  81.6240012  12.3794997 -19.2870012  81.6880012  11.5854997 -18.7560012
  82.2770012  12.2604997 -19.9770012  81.7210241  12.2547148 -19.3075683
  83.9380012  12.0054997  -1.9870012  83.6090012  12.2764997  -2.8440012
  84.0900012  11.0644997  -2.0740012  83.9134809  11.9153862  -2.1161756
  89.6720012  11.9214997  -4.6030012  90.4180012  12.5094997  -4.7230012
  88.9150012  12.5034997  -4.5400012  89.6717554  12.0807011  -4.6109093
  78.1150012   9.2354997  -1.9990012  78.5230012   8.3784997  -2.1200012
  77.8550012   9.2504997  -1.0780012  78.1357568   9.1200807  -1.8910412
  82.7730012  10.3514997 -16.9810012  82.3130012   9.8674997 -16.2950012
  83.0280012   9.6834997 -17.6170012  82.7444902  10.1948731 -16.9730666
  82.0620012   8.2444997  -4.6250012  81.4440012   8.9194997  -4.3450012
  82.4060012   8.5654997  -5.4580012  82.0239615   8.3802721  -4.6993419
  83.8440012   8.5944997 -18.7190012  83.6640012   8.4404997 -19.6460012
  84.7940012   8.7024997 -18.6740012  83.9477776   8.5880175 -18.8398157
  87.0820012  10.7164997  -1.3480012  88.0350012  10.7994997  -1.3750012
  86.9210012  10.0044997  -0.7280012  87.1906426  10.6316746  -1.2679421
  93.2340012  10.9494997 -19.2730012  92.9600012  10.5244997 -20.0860012
  93.2730012  11.8804997 -19.4900012  93.2017699  11.0172484 -19.4136390
  82.4010012   5.5994997  -3.5430012  82.5510012   4.8704997  -4.1450012
  82.4040012   6.3764997  -4.1020012  82.4219302   5.6047851  -3.7009308
  82.8140012   3.9694997  -6.0500012  83.3500012   4.4204997  -6.7020012
  81.9620012   3.8614997  -6.4730012  82.7722178   4.0166390  -6.1964244
  84.3960012   9.4084997  -5.8110012  85.1460012   9.2524997  -6.3840012
  84.0570012  10.2604997  -6.0860012  84.4528921   9.5022968  -5.9266439
  88.8110012   7.2234997  -0.7820012  89.0040012   6.2924997  -0.8940012
  89.6690012   7.6484997  -0.7920012  88.9533020   7.1536389  -0.7986639
  90.1280012  10.0124997  -2.7050012  89.8470012  10.7214997  -3.2820012
  91.0710012   9.9394997  -2.8560012  90.2169027  10.0997646  -2.8044449
  80.8800012   6.7974997  -1.6310012  80.1130012   6.2654997  -1.8410012
  81.5590012   6.4874997  -2.2310012  80.8667022   6.6827506  -1.7408352
  83.6200012   1.4254997  -5.6190012  83.5210012   2.3724997  -5.7240012
  82.8770012   1.0534997  -6.0940012  83.5060564   1.5045902  -5.6975440
  84.8840012   5.7474997  -2.0550012  84.6480012   5.5274997  -1.1530012
  84.1000012   5.5404997  -2.5650012  84.7458628   5.6894760  -2.0006068
  87.5990012   4.8744997  -2.9790012  86.6520012   4.9064997  -2.8470012
  87.9120012   4.2494997  -2.3260012  87.5115475   4.7943207  -2.8725545
  89.2330012   3.5084997  -0.9740012  89.1370012   2.5564997  -0.9800012
  88.9120012   3.7774997  -0.1140012  89.1764070   3.4144035  -0.8584559
  79.0600012   4.7184997  -1.9270012  79.2720012   4.0114997  -2.5370012
  78.9490012   4.2804997  -1.0830012  79.0739721   4.5627084  -1.8963157
  83.8410012   0.7194997  -2.9470012  84.5530012   0.0794997  -2.9610012
  83.7400012   0.9864997  -3.8610012  83.9247939   0.6679938  -3.0724350
  84.1950012   2.4024997  -0.8940012  84.0630012   1.9264997  -1.7140012
  83.5960012   3.1464997  -0.9490012  84.0959071   2.4379618  -1.0137114
  83.7410012  19.2854997 -17.7170012  84.6740012  19.4434997 -17.5740012
  83.4770012  19.9604997 -18.3420012  83.8329510  19.3983611 -17.7819259
  77.3100012  13.9214997 -18.2350012  78.2240012  14.0004997 -17.9610012
  77.3170012  13.2344997 -18.9010012  77.4361131  13.8393961 -18.2875607
  75.9590012  19.3144997 -13.1570012  75.3120012  18.8524997 -13.6900012
  76.3130012  18.6424997 -12.5750012  75.9183849  19.1604723 -13.1512041
  76.8290012  17.3954997 -11.3530012  76.4940012  16.5154997 -11.1810012
  77.0510012  17.7404997 -10.4880012  76.8131783  17.3217500 -11.2125792
  94.3770012  18.2044997  -8.3720012  94.3560012  18.3894997  -7.4330012
  95.0680012  18.7734997  -8.7130012  94.4674618  18.3066606  -8.2896136
  93.9410012  17.7724997  -5.4500012  93.4530012  17.0364997  -5.8210012
  94.4900012  17.3784997  -4.7720012  93.9484872  17.6186249  -5.4090840
  92.3910012  13.5614997  -0.8120012  91.5250012  13.4564997  -0.4180012
  92.7680012  14.3204997  -0.3660012  92.3233308  13.6496900  -0.6977607
  93.6920012  11.8184997 -15.2980012  94.5420012  12.2394997 -15.1710012
  93.6980012  11.0784997 -14.6910012  93.8091372  11.7760803 -15.1985656
  94.0870012   9.8714997 -13.4740012  93.3600012   9.3924997 -13.0770012
  94.6680012  10.0774997 -12.7420012  94.0659375   9.8337090 -13.3205871
  93.8460012  12.6564997  -8.5270012  94.6790012  12.2784997  -8.8070012
  93.9580012  13.5994997  -8.6460012  93.9752647  12.7322218  -8.5814513
  92.3320012  15.5344997  -6.2200012  91.6850012  15.8594997  -5.5940012
  91.8150012  15.0944997  -6.8940012  92.1734029  15.5195004  -6.2254173
  94.3550012   9.7724997 -17.0830012  93.8330012  10.1294997 -17.8020012
  94.3220012  10.4474997 -16.4050012  94.2791634   9.9125413 -17.0896855
  92.7040012   7.0124997 -18.5320012  92.8000012   7.6794997 -19.2130012
  92.5640012   6.1964997 -19.0140012  92.6982135   6.9934500 -18.6901509
  91.8730012   8.3924997 -12.9110012  91.7230012   7.4474997 -12.9320012
  91.5200012   8.6734997 -12.0680012  91.8046625   8.3010441 -12.7997654
  76.9090012  10.4704997  -8.9010012  77.0930012  10.3884997  -9.8370012
  77.7580012  10.3464997  -8.4770012  77.0490139  10.4425003  -8.9718545
  92.7300012  10.3624997  -3.2730012  93.3130012   9.6284997  -3.0810012
  93.2940012  11.1344997  -3.2260012  92.8859769  10.3664227  -3.2403841
  94.2260012   8.2654997  -2.5880012  93.3630012   7.8864997  -2.7540012
  94.8310012   7.5264997  -2.6620012  94.1895979   8.1138023  -2.6207183
  91.9510012   4.4204997 -19.4150012  92.5620012   4.0494997 -18.7780012
  91.1150012   3.9994997 -19.2190012  91.9215032   4.3127554 -19.3012965
  91.5840012   5.9754997 -14.4490012  91.8640012   5.0684997 -14.3250012
  92.3430012   6.4094997 -14.8380012  91.7249277   5.9100942 -14.4846318
  92.1960012   6.5564997  -9.0130012  93.1290012   6.7684997  -9.0470012
  91.9610012   6.6584997  -8.0910012  92.2918036   6.5992769  -8.8930024
  92.2250012   7.2934997  -6.2370012  91.3820012   7.5614997  -5.8710012
  92.6670012   8.1154997  -6.4480012  92.1694158   7.4413291  -6.2154509
  76.5060012   5.7414997  -2.7600012  77.4260012   5.6194997  -2.5240012
  76.0570012   4.9914997  -2.3710012  76.5711580   5.6233727  -2.6750994
  94.5080012   1.2734997  -0.8840012  94.8580012   0.6194997  -1.4890012
  94.6550012   2.1104997  -1.3230012  94.5758419   1.2971591  -1.0262882
  92.1970012   3.2384997 -14.4010012  92.3800012   2.7894997 -13.5750012
  91.5980012   2.6534997 -14.8640012  92.1410202   3.0979975 -14.3506725
  77.7270012   4.0534997  -9.8690012  78.1730012   3.2614997  -9.5670012
  78.1940012   4.7694997  -9.4380012  77.8510172   4.0420624  -9.7695180
  76.0310012   7.0524997  -8.8000012  76.5230012   6.8314997  -9.5910012
  76.3940012   7.8934997  -8.5190012  76.1473126   7.1358357  -8.8702469
  94.0280012   3.3824997  -2.5340012  93.1100012   3.6534997  -2.5700012
  94.1510012   2.8474997  -3.3190012  93.9191066   3.3472892  -2.6449513
  94.0640012   3.3054997 -17.8730012  94.4760012   2.5844997 -18.3480012
  94.7460012   3.9754997 -17.8140012  94.2125885   3.2972368 -17.9301085
  76.3450012   3.3104997 -14.7460012  75.4200012   3.5194997 -14.8750012
  76.7990012   3.7944997 -15.4350012  76.2797368   3.4045994 -14.8568774
  91.1160012  18.2944997 -12.8000012  91.7680012  17.9474997 -13.4080012
  91.6260012  18.7834997 -12.1540012  91.2742637  18.3130597 -12.7959764
  76.3090012   2.0484997  -6.4010012  75.6440012   1.8024997  -5.7580012
  75.8660012   2.6704997  -6.9790012  76.1580956   2.0988632  -6.3910648
  78.5010012  15.2234997  -2.2570012  77.6800012  15.3984997  -2.7170012
  78.2480012  15.1504997  -1.3360012  78.3546164  15.2375622  -2.1955077
  81.4550012  16.1984997  -5.9980012  81.0300012  17.0074997  -6.2810012
  82.3590012  16.2834997  -6.3000012  81.5190271  16.3208469  -6.0776224
  85.7660012  17.5974997  -3.0390012  85.9510012  17.2634997  -2.1610012
  86.6120012  17.9064997  -3.3610012  85.9057539  17.5936047  -2.9624395
  88.1110012  18.8834997  -3.7950012  88.7880012  18.2504997  -4.0350012
  88.4330012  19.2844997  -2.9880012  88.2471637  18.8511154  -3.7187207
  93.0280012   1.4724997  -4.7150012  92.2160012   1.7974997  -5.1030012
  93.2610012   0.7124997  -5.2480012  92.9483423   1.4142436  -4.8401747
  78.8570012  19.4544997  -5.9510012  78.1360012  19.8944997  -6.4020012
  78.4910012  19.2034997  -5.1020012  78.7089804  19.4807698  -5.8980160
  81.3240012  19.0544997  -6.9210012  80.4590012  19.1264997  -6.5170012
  81.2690012  19.6014997  -7.7050012  81.1982085  19.1382685  -6.9716638
  86.0340012  18.9424997  -7.7460012  85.5780012  19.4714997  -8.4000012
  86.1970012  19.5454997  -7.0200012  85.9935585  19.0964468  -7.7374938
  88.3620012  17.8204997  -6.8010012  87.4570012  17.9854997  -7.0660012
  88.7910012  18.6734997  -6.8660012  88.2960799  17.9584483  -6.8460818
  90.9660012  19.3904997  -6.5060012  90.7840012  20.3064997  -6.7160012
  91.1430012  18.9804997  -7.3520012  90.9650210  19.4604822  -6.6492115
  78.2710012  18.0774997  -9.0410012  78.2530012  17.6524997  -8.1830012
  79.0760012  17.7594997  -9.4490012  78.3773875  17.9763812  -8.9788345
  80.4130012  16.7874997 -10.3860012  80.1940012  15.8714997 -10.2160012
  81.2370012  16.9274997  -9.9200012  80.4944420  16.6810520 -10.2997226
  82.9500012  17.2574997  -9.5370012  83.1630012  16.3694997  -9.8240012
  83.0140012  17.2234997  -8.5830012  82.9878232  17.1313102  -9.4472603
  86.4580012   2.9214997 -10.3930012  85.7840012   2.2924997 -10.1370012
  87.0220012   2.4374997 -10.9960012  86.4419230   2.7698744 -10.4394660
  91.6010012   1.0294997 -10.2800012  92.2050012   1.5764997 -10.7820012
  90.7310012   1.3484997 -10.5200012  91.5661241   1.1475806 -10.3812346
  93.3280012   2.1674997 -11.9470012  93.9400012   1.6534997 -12.4730012
  93.7100012   3.0454997 -11.9230012  93.4634540   2.2157140 -12.0158170
  78.7850012   1.5554997 -12.5710012  78.0080012   1.3214997 -13.0780012
  79.3150012   0.7584997 -12.5620012  78.7502330   1.4156988 -12.6392258
  77.6210012   1.3534997 -16.7670012  78.0600012   1.9644997 -17.3590012
  76.9880012   1.8914997 -16.2930012  77.5954514   1.5099257 -16.7839070
  83.3640012   1.4824997 -12.7570012  84.2390012   1.8704997 -12.7870012
  83.2280012   1.2674997 -11.8350012  83.4653695   1.5065184 -12.6363560
  88.9210012   1.5124997 -11.1080012  88.9970012   1.6074997 -12.0580012
  88.6460012   0.6044997 -10.9790012  88.8942321   1.4027867 -11.2204921
  90.2740012   1.5384997 -15.4160012  89.5720012   2.1534997 -15.6250012
  89.8300012   0.7004997 -15.2850012  90.1176330   1.5095783 -15.4269672
  77.5220012  17.3014997 -15.8690012  76.8370012  17.2634997 -16.5370012
  77.5260012  18.2144997 -15.5810012  77.4288193  17.4197016 -15.9214716
  79.4820012   3.2694997 -18.3250012  79.9740012   2.6394997 -18.8520012
  80.1060012   3.5654997 -17.6610012  79.6335446   3.2233199 -18.3074020
  84.5080012   3.5624997 -15.8680012  84.6860012   2.9164997 -15.1850012
  84.4550012   4.3964997 -15.4000012  84.5251829   3.5867985 -15.7114060
  86.3870012  18.5114997 -17.4720012  87.2530012  18.8774997 -17.6500012
  86.1400012  18.0714997 -18.2860012  86.4722392  18.5021756 -17.6063711
  93.0960012  18.0744997 -14.7930012  92.9010012  17.3264997 -15.3580012
  93.0570012  18.8324997 -15.3760012  93.0640380  18.0746099 -14.9491616
  78.7430012   2.0694997  -3.0530012  78.3770012   1.3044997  -2.6100012
  79.6560012   2.0984997  -2.7660012  78.8162790   1.9687224  -2.9535930
  80.7160012   1.4204997  -1.5170012  81.6140012   1.1464997  -1.7020012
  80.3290012   0.6774997  -1.0530012  80.7866612   1.2825914  -1.4796357
  79.3400012  18.2214997 -18.8440012  79.0730012  18.5084997 -17.9710012
  80.1120012  17.6754997 -18.6920012  79.4077488  18.1870294 -18.7038950
  89.1370012   0.7524997  -1.3350012  89.2140012   0.3264997  -0.4810012
  90.0310012   0.7664997  -1.6780012  89.2683428   0.6960879  -1.2644690
  92.3130012  16.8254997  -2.6430012  91.5310012  16.6394997  -3.1620012
  92.2410012  17.7544997  -2.4250012  92.1961777  16.9256492  -2.6845952
 106.7190012  10.7114997 -12.6120012 106.8080012  11.6554997 -12.7440012
 106.0810012  10.4364997 -13.2700012 106.6449081  10.8034830 -12.7190386
 105.6520012   9.9664997  -9.1930012 105.6140012   9.3204997  -8.4880012
 105.3300012   9.5004997  -9.9640012 105.6032333   9.8149408  -9.2007022
  98.0210012   9.5814997  -7.6000012  98.0620012   8.9554997  -6.8770012
  98.7240012  10.2054997  -7.4180012  98.1216363   9.5801196  -7.4763956
 109.3580012  12.9054997 -10.8920012 108.9180012  12.1854997 -10.4410012
 109.3450012  13.6264997 -10.2620012 109.2960226  12.9043731 -10.7451506
  98.9440012  14.0314997  -9.0650012  98.5750012  13.2294997  -9.4350012
  99.8850012  13.8624997  -9.0190012  99.0207289  13.8990153  -9.1093684
  95.5540012   7.6914997 -13.6720012  95.1070012   8.5374997 -13.6910012
  94.9930012   7.1114997 -14.1880012  95.4169900   7.7289916 -13.7443199
  96.2650012   9.8534997 -11.5460012  96.4780012   9.0834997 -11.0190012
  97.0030012   9.9424997 -12.1500012  96.3938496   9.7601394 -11.5554700
 106.4700012  18.0104997 -10.6790012 107.0900012  17.3334997 -10.9530012
 106.2620012  17.7924997  -9.7710012 106.5266904  17.8883870 -10.5936635
 104.0420012  12.3994997  -8.7870012 104.3460012  11.7134997  -9.3820012
 104.7630012  12.5174997  -8.1690012 104.1810671  12.3216304  -8.7848184
 112.7050012   4.0004997  -7.9260012 112.7540012   4.6104997  -7.1900012
 113.1300012   4.4614997  -8.6490012 112.7691824   4.1463741  -7.9229795
 107.1830012   6.7934997  -8.4590012 107.3250012   5.8474997  -8.4390012
 107.0760012   7.0004997  -9.3880012 107.1879864   6.6919534  -8.5817661
 100.3370012   4.8944997 -11.1870012 100.3810012   5.7544997 -11.6050012
  99.8800012   4.3424997 -11.8210012 100.2812185   4.9375799 -11.3299701
 108.0600012   5.0254997 -12.7860012 108.7060012   4.6964997 -12.1610012
 108.5700012   5.5434997 -13.4090012 108.2174264   5.0504611 -12.7846138
  96.9580012   7.2914997 -10.4250012  97.6110012   6.7414997  -9.9930012
  96.9820012   7.0174997 -11.3420012  97.0506683   7.1791466 -10.4897877
 102.1140012   8.8414997 -11.2100012 102.7300012   8.3154997 -10.7000012
 101.5280012   8.2014997 -11.6130012 102.1190810   8.6829208 -11.1946827
 113.0960012   5.4784997  -5.6900012 112.4080012   6.1364997  -5.7860012
 113.1120012   5.2814997  -4.7540012 113.0038525   5.5420462  -5.5765192
  99.1480012   3.8124997  -7.1130012  98.9290012   4.3424997  -7.8790012
  98.4800012   4.0394997  -6.4660012  99.0277600   3.9156906  -7.1303621
 106.5170012  13.3124997 -13.5690012 106.2210012  12.9904997 -14.4200012
 106.1920012  14.2124997 -13.5280012 106.4326371  13.3900215 -13.6798199
 101.7170012  11.4884997  -6.8260012 100.9770012  12.0864997  -6.7220012
 102.4310012  12.0424997  -7.1410012 101.7122237  11.6452831  -6.8543535
 109.8240012   4.3164997 -10.8060012 109.6080012   3.5504997 -10.2730012
 110.4790012   4.7884997 -10.2930012 109.8830632   4.2755889 -10.6637139
  98.7410012   5.7044997  -9.1610012  99.3550012   6.3374997  -8.7870012
  99.2530012   5.2324997  -9.8170012  98.8942296   5.7272370  -9.1985748
 100.1240012  13.4524997  -6.0380012 100.1190012  14.3324997  -6.4160012
  99.2710012  13.3694997  -5.6130012 100.0079464  13.5616117  -6.0322093
  96.2450012  13.1234997 -15.2560012  95.9730012  13.3524997 -16.1450012
  96.2910012  13.9614997 -14.7960012  96.2140094  13.2681213 -15.3154303
 109.8700012  14.7454997  -8.5440012 108.9290012  14.8034997  -8.3820012
 110.1470012  15.6514997  -8.6810012 109.7784679  14.8759443  -8.5403185
 110.1710012   3.0314997  -7.1260012 109.4350012   3.6424997  -7.1640012
 110.8540012   3.4464997  -7.6530012 110.1626541   3.1711374  -7.2024168
 103.1740012   1.1184997  -9.6600012 103.0570012   0.1694997  -9.7150012
 102.3190012   1.4504997  -9.3870012 103.0423733   1.0335409  -9.6306103
 108.1220012  16.5264997 -11.9180012 108.5480012  15.8194997 -12.4030012
 108.4390012  17.3274997 -12.3350012 108.2231019  16.5380994 -12.0406870
 109.2820012  14.4274997 -13.4100012 109.0240012  13.7374997 -14.0210012
 109.3530012  13.9844997 -12.5640012 109.2562856  14.2732124 -13.3793115
 110.9680012  12.9934997  -4.9320012 111.1080012  12.4024997  -5.6720012
 111.1350012  13.8664997  -5.2890012 111.0096778  13.0306426  -5.0813035
 105.4410012   9.9554997 -15.1600012 104.7290012  10.4904997 -15.5120012
 106.1320012  10.0114997 -15.8200012 105.4370132  10.0362543 -15.2973711
 105.4940012   8.4134997 -18.1210012 106.1950012   8.4354997 -17.4700012
 105.7970012   7.7854997 -18.7770012 105.6307830   8.3316566 -18.1206289
 112.8100012   9.3334997  -6.8660012 112.1570012  10.0284997  -6.7770012
 113.2750012   9.5434997  -7.6760012 112.7835390   9.4569425  -6.9633117
 108.8460012  10.1654997 -14.2080012 108.1140012  10.3934997 -13.6350012
 109.2940012   9.4514997 -13.7530012 108.8063095  10.1002571 -14.0680881
 108.7440012   8.3394997  -5.1410012 108.8240012   9.1024997  -4.5690012
 108.1420012   8.6184997  -5.8310012 108.6735756   8.4817134  -5.1559411
 100.4920012  10.7954997 -12.3260012 100.1610012  10.4254997 -13.1440012
 101.0800012  10.1254997 -11.9790012 100.5261873  10.6541156 -12.3911898
 101.8580012  14.2234997  -9.6440012 101.7640012  13.6454997 -10.4010012
 102.5880012  13.8524997  -9.1480012 101.9437981  14.0942390  -9.6805835
 100.8580012   9.5644997  -8.6920012 101.4240012   9.6854997  -9.4550012
 101.1770012  10.2014997  -8.0530012 100.9785786   9.6671884  -8.7099960
 107.1670012  15.0674997  -7.9580012 106.9270012  15.7294997  -7.3100012
 106.9690012  14.2334997  -7.5330012 107.1073808  15.0453134  -7.8118476
 101.7380012  13.9634997  -3.9750012 101.4270012  14.7454997  -3.5200012
 101.0880012  13.8104997  -4.6610012 101.6075558  14.0499105  -4.0054129
 107.7170012   9.3274997 -16.5230012 108.2970012   9.4774997 -15.7760012
 108.1310012   9.7984997 -17.2460012 107.8522830   9.4116841 -16.5185866
  98.6580012  10.1614997  -4.7460012  98.7290012  10.8124997  -4.0480012
  97.7680012  10.2644997  -5.0810012  98.5473117  10.2645936  -4.6957300
 105.4440012  16.0644997 -13.0880012 105.9180012  16.3594997 -12.3100012
 104.8810012  16.8024997 -13.3210012 105.4327653  16.2046932 -13.0129864
  99.9780012  16.0354997  -3.2120012  99.9850012  15.8994997  -4.1590012
  99.0620012  15.9174997  -2.9600012  99.8551714  16.0009430  -3.3075334
 111.4160012   1.0774997 -16.7100012 110.5160012   1.2164997 -16.4150012
 111.6680012   1.9084997 -17.1120012 111.3268702   1.2089074 -16.7239795
  99.4820012   9.8654997 -14.7360012  99.1900012  10.6334997 -15.2270012
  98.8080012   9.2054997 -14.8990012  99.3509081   9.8814406 -14.8252660
 112.6050012  15.4434997 -18.3340012 112.6790012  16.3824997 -18.1630012
 113.5110012  15.1384997 -18.3900012 112.7375100  15.5306722 -18.3181881
  95.5750012  12.2284997  -5.9210012  95.0740012  12.2004997  -6.7360012
  95.5800012  11.3224997  -5.6120012  95.5071526  12.1022278  -5.9907128
  95.3250012  15.0084997  -9.0370012  96.2710012  14.8644997  -9.0560012
  95.2130012  15.7924997  -8.5000012  95.4392727  15.0948046  -8.9669928
 113.5230012  15.6744997  -3.3550012 113.4740012  14.7194997  -3.3920012
 112.6960012  15.9424997  -2.9540012 113.4044940  15.5798998  -3.3058625
 104.5020012  15.2484997  -4.4790012 104.5890012  16.0744997  -4.0040012
 103.6380012  14.9184997  -4.2300012 104.3971964  15.3169878  -4.3803451
 104.9160012  19.0204997 -14.6730012 104.8410012  18.8994997 -15.6190012
 104.9490012  19.9704997 -14.5540012 104.9101848  19.1322500 -14.7865166
  98.5690012  17.8094997 -12.8920012  98.7220012  17.4614997 -12.0130012
  97.7190012  17.4534997 -13.1470012  98.4748962  17.7136650 -12.8061660
 108.0180012  18.1744997 -17.6710012 108.3930012  17.4304997 -18.1410012
 108.0220012  17.9044997 -16.7520012 108.0698915  18.0361486 -17.6112176
 107.6870012  18.1004997 -14.9210012 106.7510012  18.2004997 -14.7430012
 107.9670012  17.3914997 -14.3430012 107.5968255  18.0182711 -14.8184609
 110.6750012   7.1674997  -2.8750012 110.2680012   7.6484997  -3.5960012
 110.7160012   6.2624997  -3.1830012 110.6248437   7.1109374  -3.0153317
  97.8240012  13.5514997  -4.8780012  98.0400012  13.1904997  -4.0190012
  96.9690012  13.1774997  -5.0880012  97.7379292  13.4514111  -4.7886614
 100.4430012   2.0214997  -8.8830012  99.5810012   1.9344997  -9.2900012
 100.4200012   2.8774997  -8.4550012 100.3220330   2.1252765  -8.8808137
 105.1060012   1.7434997  -5.5080012 105.5260012   1.3284997  -4.7550012
 104.1730012   1.5654997  -5.3910012 105.0373644   1.6625900  -5.3890461
 108.4320012   5.4994997  -4.6550012 107.9180012   5.3734997  -3.8570012
 108.2770012   6.4114997  -4.8990012 108.3406852   5.6056132  -4.5787842
 109.1950012  10.3604997 -18.8930012 109.2370012  10.1374997 -19.8230012
 110.0440012  10.7594997 -18.7030012 109.3155396  10.3839155 -18.9946373
 104.7670012   4.2364997 -18.2230012 104.5140012   4.2554997 -17.3000012
 104.5110012   3.3644997 -18.5240012 104.6977790   4.1212437 -18.1373737
 100.5340012   6.9874997  -7.7880012  99.8920012   6.9464997  -7.0790012
 100.5710012   7.9134997  -8.0250012 100.4511324   7.1071559  -7.7230176
 100.5310012   7.2084997 -12.8760012  99.6380012   6.8674997 -12.9340012
 100.9810012   6.8314997 -13.6310012 100.4697305   7.1108484 -12.9860823
 106.0660012   7.6244997 -14.0590012 105.6570012   8.4394997 -14.3500012
 106.7870012   7.4844997 -14.6730012 106.1074537   7.7172018 -14.1818658
 105.1680012   7.7994997  -2.5710012 104.6060012   7.0954997  -2.2500012
 105.9950012   7.6794997  -2.1030012 105.2027095   7.6867883  -2.4637670
 107.0710012   7.0704997 -11.2450012 106.8760012   7.6754997 -11.9600012
 107.2520012   6.2364997 -11.6790012 107.0687614   7.0406300 -11.4015595
  98.2840012   7.3074997  -5.9210012  98.2460012   7.7074997  -5.0520012
  97.7930012   6.4904997  -5.8300012  98.2124684   7.2518069  -5.7898941
 101.6500012   4.6814997 -19.1220012 101.2190012   4.2364997 -18.3920012
 100.9320012   5.0534997 -19.6340012 101.4939438   4.6708940 -19.0913201
  94.8920012   4.4234997 -12.0700012  95.5230012   4.3944997 -11.3510012
  95.3410012   3.9984997 -12.8000012  95.0390774   4.3620492 -12.0703447
  96.1660012   5.1694997 -16.6460012  96.6400012   5.7604997 -17.2310012
  95.4490012   5.7004997 -16.2990012  96.1339341   5.3220867 -16.6791164
 106.3350012   8.7084997  -6.5730012 106.6580012   8.0774997  -7.2160012
 105.8950012   8.1734997  -5.9130012 106.3196895   8.5498441  -6.5717150
 103.1120012   4.6354997 -11.7890012 102.2010012   4.6924997 -11.5010012
 103.6180012   4.5754997 -10.9790012 103.0555413   4.6351985 -11.6399378
  97.9410012   6.2644997 -12.9630012  97.0510012   6.3644997 -13.3030012
  98.2370012   5.4224997 -13.3090012  97.8592823   6.1643545 -13.0562787
 101.5940012   6.2644997 -15.3060012 102.5250012   6.3934997 -15.1280012
 101.3790012   6.9344997 -15.9560012 101.6924247   6.3726565 -15.3694253
 107.5170012   3.8704997  -8.5250012 106.8410012   4.0014997  -7.8610012
 107.0320012   3.7154997  -9.3350012 107.3587145   3.8674905  -8.5435483
 100.2680012   7.4594997 -17.7390012  99.7250012   7.0794997 -18.4310012
 101.1010012   7.6534997 -18.1680012 100.3064399   7.4338124 -17.8915474
 110.8050012  19.5424997  -2.2480012 111.0050012  19.9664997  -3.0830012
 111.4600012  19.8854997  -1.6410012 110.9210051  19.6469648  -2.2802164
  98.4030012  12.0164997  -2.6400012  99.1350012  12.2704997  -2.0790012
  97.6230012  12.2204997  -2.1250012  98.3978232  12.0789177  -2.4934240
 104.4320012   7.4234997  -9.9020012 104.9970012   6.8764997 -10.4490012
 104.2850012   6.9014997  -9.1140012 104.4892918   7.2782024  -9.8701546
  99.4340012   3.5594997 -13.4840012  99.1170012   2.6574997 -13.5190012
 100.2160012   3.5614997 -14.0370012  99.4962284   3.4361628 -13.5635217
 103.0590012   5.8114997  -7.4880012 102.2230012   6.2654997  -7.3780012
 103.5830012   6.0874997  -6.7360012 103.0154414   5.9109376  -7.3712864
 103.6030012  12.0244997 -15.8040012 102.8580012  11.5174997 -16.1260012
 103.4690012  12.0734997 -14.8570012 103.4828776  11.9616940 -15.7201353
 110.7530012  11.1574997  -7.0170012 111.3950012  11.6144997  -7.5610012
 109.9230012  11.2704997  -7.4800012 110.7285963  11.2352704  -7.1539823
 107.5010012   4.8384997 -17.6040012 106.5620012   4.9504997 -17.7560012
 107.7980012   5.6954997 -17.2980012 107.4127666   4.9696443 -17.5834232
 105.1220012  12.2084997  -4.5670012 104.7770012  11.8274997  -3.7600012
 104.9220012  13.1424997  -4.4950012 105.0478061  12.2825228  -4.4469039
 108.2190012   6.7054997 -15.9440012 109.1110012   6.5684997 -15.6250012
 108.2760012   7.4964997 -16.4800012 108.3486285   6.7936660 -15.9728309
  98.7280012  11.3194997 -10.0340012  99.4730012  11.3174997 -10.6350012
  98.8060012  10.4964997  -9.5520012  98.8405518  11.2079315 -10.0511071
 105.7290012  13.4834997 -16.7780012 105.4330012  14.3094997 -16.3970012
 105.0260012  12.8634997 -16.5820012 105.5934914  13.5128199 -16.6993557
  95.7360012   9.7804997  -4.7190012  95.9590012   9.3624997  -3.8870012
  95.1340012   9.1674997  -5.1420012  95.6851759   9.6404668  -4.6622978
 102.7520012   9.2974997  -2.5060012 102.4560012   9.1314997  -3.4010012
 103.6840012   9.0774997  -2.5170012 102.8374166   9.2450640  -2.6299464
 107.3730012  14.6704997  -4.6160012 106.4720012  14.8534997  -4.8840012
 107.4070012  14.9294997  -3.6950012 107.2543041  14.7305512  -4.5281803
 113.1040012   6.9154997 -16.2490012 112.5500012   6.5194997 -16.9210012
 113.2040012   7.8254997 -16.5270012 113.0417059   6.9843586 -16.3785599
 113.0670012  12.7154997  -3.4120012 112.2160012  12.9534997  -3.7790012
 113.6580012  12.6984997  -4.1650012 113.0302487  12.7458258  -3.5641107
 111.3990012  15.7014997 -15.7840012 111.0260012  14.8754997 -15.4750012
 111.6770012  15.5184997 -16.6810012 111.3855630  15.5637303 -15.8630374
 108.5600012  10.5094997  -8.7630012 107.6310012  10.2774997  -8.7900012
 109.0110012   9.7324997  -9.0930012 108.4939216  10.3727238  -8.8113083
 101.1030012  14.8374997 -12.6300012 101.6300012  15.6104997 -12.8300012
 100.2230012  15.0624997 -12.9310012 101.0561773  14.9738005 -12.6980990
  96.8580012   9.6994997 -18.0430012  97.4740012  10.3264997 -17.6630012
  95.9960012  10.0154997 -17.7710012  96.8257698   9.8279430 -17.9542817
 102.5300012  12.5004997 -13.0530012 102.2890012  13.4254997 -13.0120012
 101.7890012  12.0414997 -12.6570012 102.3968409  12.5651421 -12.9938623
 103.0450012  16.6494997  -6.7380012 103.4070012  17.5044997  -6.9720012
 103.5760012  16.3574997  -5.9980012 103.1664473  16.7271060  -6.6699145
 101.2130012  17.5224997 -13.5080012 100.2630012  17.6274997 -13.4570012
 101.5650012  18.3424997 -13.1630012 101.1304203  17.6478314 -13.4543350
 106.5890012  12.7484997  -7.0380012 106.1630012  12.5214997  -6.2110012
 107.1690012  12.0104997  -7.2200012 106.6091868  12.6175299  -6.9494170
 108.7920012  13.6774997 -17.9640012 109.1450012  13.2974997 -17.1590012
 107.8430012  13.5844997 -17.8770012 108.7120441  13.6129596 -17.8421441
 109.2470012  17.3004997  -4.5680012 108.6460012  16.7454997  -5.0640012
 109.5290012  17.9674997  -5.1940012 109.2028519  17.3146841  -4.7205048
 113.2950012  18.1574997 -17.7630012 114.0390012  18.7434997 -17.9030012
 112.6010012  18.7254997 -17.4290012 113.3030292  18.3145582 -17.7370039
  97.3700012   4.5334997  -5.1610012  96.4770012   4.8724997  -5.2290012
  97.2710012   3.6784997  -4.7430012  97.2344164   4.4642588  -5.1137765
 109.6580012  12.3504997 -15.7370012 109.3800012  11.6224997 -15.1810012
 110.5850012  12.4694997 -15.5320012 109.7453124  12.2668802 -15.6331155
  97.0210012  16.3384997  -6.7260012  97.2380012  15.4064997  -6.7570012
  97.2670012  16.6124997  -5.8430012  97.0839549  16.2480636  -6.6108237
 102.8830012  14.7894997 -19.5170012 103.1220012  14.0414997 -20.0640012
 102.6140012  14.4014997 -18.6840012 102.8793675  14.6346638 -19.4793135
 101.8200012  14.3594997 -17.0600012 101.9660012  13.8394997 -16.2700012
 101.8170012  15.2664997 -16.7540012 101.8395989  14.4108853 -16.9103912
  98.2730012  11.6124997 -16.5500012  97.5870012  11.9644997 -15.9830012
  98.7950012  12.3754997 -16.7970012  98.2496852  11.7638578 -16.5057882
 106.1040012   4.2744997  -6.2710012 106.8030012   4.3484997  -5.6210012
 105.7230012   3.4104997  -6.1170012 106.1481767   4.1677624  -6.1611678
 106.8890012   3.9264997 -15.1740012 107.1090012   4.3984997 -15.9770012
 107.4470012   4.3214997 -14.5040012 106.9944968   4.0444285 -15.1932669
 104.5570012  16.0574997 -16.3110012 103.7410012  16.5544997 -16.2590012
 105.0870012  16.5324997 -16.9510012 104.5169161  16.1897722 -16.3904044
 104.0890012   5.6544997 -14.3390012 104.9010012   6.1594997 -14.2930012
 103.8440012   5.5094997 -13.4250012 104.1670520   5.7040375 -14.2091483
 104.6240012   6.6404997  -5.1540012 104.7430012   7.2144997  -4.3970012
 105.2800012   5.9524997  -5.0400012 104.7289757   6.6261079  -5.0349175
 104.9720012   2.7354997 -13.4010012 104.6260012   3.3534997 -12.7560012
 105.6310012   3.2364997 -13.8820012 105.0137826   2.8875802 -13.3779029
 101.8960012  17.1014997 -16.3290012 102.0560012  17.9004997 -16.8300012
 101.6980012  17.4074997 -15.4440012 101.8911649  17.2524469 -16.2780185
 100.6300012   3.7984997 -16.7140012 100.5470012   4.6874997 -16.3670012
 101.5200012   3.5334997 -16.4820012 100.7389469   3.8841430 -16.6352374
 110.8290012   4.5474997  -4.3190012 109.9120012   4.8104997  -4.4070012
 111.1640012   4.5444997  -5.2160012 110.7489900   4.5830224  -4.4522081
 109.4310012   8.2984997 -10.2240012 108.6330012   7.8834997 -10.5520012
 109.8760012   7.6074997  -9.7330012 109.3819885   8.1483543 -10.2025111
  98.8890012  14.2264997 -17.6530012  99.4810012  14.9254997 -17.3770012
  99.3480012  13.7934997 -18.3730012  99.0321142  14.2637049 -17.7125170
  97.2050012   6.8904997 -18.5370012  97.1600012   7.8294997 -18.3590012
  96.3170012   6.6544997 -18.8070012  97.0788574   6.9871892 -18.5491088
 110.5170012  17.5544997  -8.6010012 110.3620012  18.2324997  -9.2580012
 111.4500012  17.6264997  -8.3980012 110.6218500  17.6570170  -8.6634881
  98.0130012   1.6724997  -9.8640012  97.7840012   1.7314997 -10.7920012
  97.5700012   0.8804997  -9.5580012  97.9218530   1.5735753  -9.9495214
  96.9430012  15.6124997 -13.7040012  96.1110012  16.0854997 -13.6760012
  97.4890012  16.1224997 -14.3020012  96.9029739  15.7461871 -13.7810284
  96.2310012  18.2254997  -2.3740012  96.7720012  18.0084997  -1.6140012
  95.7500012  17.4194997  -2.5630012  96.2399345  18.0869514  -2.2956924
 100.8290012  17.1444997  -0.7530012 101.5960012  16.6854997  -0.4120012
 100.8070012  16.9184997  -1.6830012 100.9311434  17.0510409  -0.8319957
 104.9210012  16.6524997 -19.3780012 104.2770012  16.0214997 -19.0570012
 105.6830012  16.1214997 -19.6100012 104.9358077  16.4942920 -19.3653989
 107.4060012  15.5244997  -2.0240012 107.0550012  14.6684997  -1.7810012
 108.1320012  15.6674997  -1.4170012 107.4560769  15.4265636  -1.9086381
 109.5250012  16.4694997 -19.1440012 109.8080012  15.6754997 -18.6920012
 110.2650012  16.7024997 -19.7050012 109.6637486  16.3922803 -19.1579302
  96.1380012  12.0354997  -1.4190012  96.2820012  11.1334997  -1.7060012
  95.3660012  12.3214997  -1.9070012  96.0533322  11.9508261  -1.5242119
 100.4800012  12.3794997 -19.2870012 100.5440012  11.5854997 -18.7560012
 101.1330012  12.2604997 -19.9770012 100.5770241  12.2547148 -19.3075683
 102.7940012  12.0054997  -1.9870012 102.4650012  12.2764997  -2.8440012
 102.9460012  11.0644997  -2.0740012 102.7694809  11.9153862  -2.1161756
 108.5280012  11.9214997  -4.6030012 109.2740012  12.5094997  -4.7230012
 107.7710012  12.5034997  -4.5400012 108.5277554  12.0807011  -4.6109093
  96.9710012   9.2354997  -1.9990012  97.3790012   8.3784997  -2.1200012
  96.7110012   9.2504997  -1.0780012  96.9917568   9.1200807  -1.8910412
 101.6290012  10.3514997 -16.9810012 101.1690012   9.8674997 -16.2950012
 101.8840012   9.6834997 -17.6170012 101.6004902  10.1948731 -16.9730666
 100.9180012   8.2444997  -4.6250012 100.3000012   8.9194997  -4.3450012
 101.2620012   8.5654997  -5.4580012 100.8799615   8.3802721  -4.6993419
 102.7000012   8.5944997 -18.7190012 102.5200012   8.4404997 -19.6460012
 103.6500012   8.7024997 -18.6740012 102.8037776   8.5880175 -18.8398157
 105.9380012  10.7164997  -1.3480012 106.8910012  10.7994997  -1.3750012
 105.7770012  10.0044997  -0.7280012 106.0466426  10.6316746  -1.2679421
 112.0900012  10.9494997 -19.2730012 111.8160012  10.5244997 -20.0860012
 112.1290012  11.8804997 -19.4900012 112.0577699  11.0172484 -19.4136390
 101.2570012   5.5994997  -3.5430012 101.4070012   4.8704997  -4.1450012
 101.2600012   6.3764997  -4.1020012 101.2779302   5.6047851  -3.7009308
 101.6700012   3.9694997  -6.0500012 102.2060012   4.4204997  -6.7020012
 100.8180012   3.8614997  -6.4730012 101.6282178   4.0166390  -6.1964244
 103.2520012   9.4084997  -5.8110012 104.0020012   9.2524997  -6.3840012
 102.9130012  10.2604997  -6.0860012 103.3088921   9.5022968  -5.9266439
 107.6670012   7.2234997  -0.7820012 107.8600012   6.2924997  -0.8940012
 108.5250012   7.6484997  -0.7920012 107.8093020   7.1536389  -0.7986639
 108.9840012  10.0124997  -2.7050012 108.7030012  10.7214997  -3.2820012
 109.9270012   9.9394997  -2.8560012 109.0729027  10.0997646  -2.8044449
  99.7360012   6.7974997  -1.6310012  98.9690012   6.2654997  -1.8410012
 100.4150012   6.4874997  -2.2310012  99.7227022   6.6827506  -1.7408352
 102.4760012   1.4254997  -5.6190012 102.3770012   2.3724997  -5.7240012
 101.7330012   1.0534997  -6.0940012 102.3620564   1.5045902  -5.6975440
 103.7400012   5.7474997  -2.0550012 103.5040012   5.5274997  -1.1530012
 102.9560012   5.5404997  -2.5650012 103.6018628   5.6894760  -2.0006068
 106.4550012   4.8744997  -2.9790012 105.5080012   4.9064997  -2.8470012
 106.7680012   4.2494997  -2.3260012 106.3675475   4.7943207  -2.8725545
 108.0890012   3.5084997  -0.9740012 107.9930012   2.5564997  -0.9800012
 107.7680012   3.7774997  -0.1140012 108.0324070   3.4144035  -0.8584559
  97.9160012   4.7184997  -1.9270012  98.1280012   4.0114997  -2.5370012
  97.8050012   4.2804997  -1.0830012  97.9299721   4.5627084  -1.8963157
 102.6970012   0.7194997  -2.9470012 103.4090012   0.0794997  -2.9610012
 102.5960012   0.9864997  -3.8610012 102.7807939   0.6679938  -3.0724350
 103.0510012   2.4024997  -0.8940012 102.9190012   1.9264997  -1.7140012
 102.4520012   3.1464997  -0.9490012 102.9519071   2.4379618  -1.0137114
 102.5970012  19.2854997 -17.7170012 103.5300012  19.4434997 -17.5740012
 102.3330012  19.9604997 -18.3420012 102.6889510  19.3983611 -17.7819259
  96.1660012  13.9214997 -18.2350012  97.0800012  14.0004997 -17.9610012
  96.1730012  13.2344997 -18.9010012  96.2921131  13.8393961 -18.2875607
  94.8150012  19.3144997 -13.1570012  94.1680012  18.8524997 -13.6900012
  95.1690012  18.6424997 -12.5750012  94.7743849  19.1604723 -13.1512041
  95.6850012  17.3954997 -11.3530012  95.3500012  16.5154997 -11.1810012
  95.9070012  17.7404997 -10.4880012  95.6691783  17.3217500 -11.2125792
 113.2330012  18.2044997  -8.3720012 113.2120012  18.3894997  -7.4330012
 113.9240012  18.7734997  -8.7130012 113.3234618  18.3066606  -8.2896136
 112.7970012  17.7724997  -5.4500012 112.3090012  17.0364997  -5.8210012
 113.3460012  17.3784997  -4.7720012 112.8044872  17.6186249  -5.4090840
 111.2470012  13.5614997  -0.8120012 110.3810012  13.4564997  -0.4180012
 111.6240012  14.3204997  -0.3660012 111.1793308  13.6496900  -0.6977607
 112.5480012  11.8184997 -15.2980012 113.3980012  12.2394997 -15.1710012
 112.5540012  11.0784997 -14.6910012 112.6651372  11.7760803 -15.1985656
 112.9430012   9.8714997 -13.4740012 112.2160012   9.3924997 -13.0770012
 113.5240012  10.0774997 -12.7420012 112.9219375   9.8337090 -13.3205871
 112.7020012  12.6564997  -8.5270012 113.5350012  12.2784997  -8.8070012
 112.8140012  13.5994997  -8.6460012 112.8312647  12.7322218  -8.5814513
 111.1880012  15.5344997  -6.2200012 110.5410012  15.8594997  -5.5940012
 110.6710012  15.0944997  -6.8940012 111.0294029  15.5195004  -6.2254173
 113.2110012   9.7724997 -17.0830012 112.6890012  10.1294997 -17.8020012
 113.1780012  10.4474997 -16.4050012 113.1351634   9.9125413 -17.0896855
 111.5600012   7.0124997 -18.5320012 111.6560012   7.6794997 -19.2130012
 111.4200012   6.1964997 -19.0140012 111.5542135   6.9934500 -18.6901509
 110.7290012   8.3924997 -12.9110012 110.5790012   7.4474997 -12.9320012
 110.3760012   8.6734997 -12.0680012 110.6606625   8.3010441 -12.7997654
  95.7650012  10.4704997  -8.9010012  95.9490012  10.3884997  -9.8370012
  96.6140012  10.3464997  -8.4770012  95.9050139  10.4425003  -8.9718545
 111.5860012  10.3624997  -3.2730012 112.1690012   9.6284997  -3.0810012
 112.1500012  11.1344997  -3.2260012 111.7419769  10.3664227  -3.2403841
 113.0820012   8.2654997  -2.5880012 112.2190012   7.8864997  -2.7540012
 113.6870012   7.5264997  -2.6620012 113.0455979   8.1138023  -2.6207183
 110.8070012   4.4204997 -19.4150012 111.4180012   4.0494997 -18.7780012
 109.9710012   3.9994997 -19.2190012 110.7775032   4.3127554 -19.3012965
 110.4400012   5.9754997 -14.4490012 110.7200012   5.0684997 -14.3250012
 111.1990012   6.4094997 -14.8380012 110.5809277   5.9100942 -14.4846318
 111.0520012   6.5564997  -9.0130012 111.9850012   6.7684997  -9.0470012
 110.8170012   6.6584997  -8.0910012 111.1478036   6.5992769  -8.8930024
 111.0810012   7.2934997  -6.2370012 110.2380012   7.5614997  -5.8710012
 111.5230012   8.1154997  -6.4480012 111.0254158   7.4413291  -6.2154509
  95.3620012   5.7414997  -2.7600012  96.2820012   5.6194997  -2.5240012
  94.9130012   4.9914997  -2.3710012  95.4271580   5.6233727  -2.6750994
 113.3640012   1.2734997  -0.8840012 113.7140012   0.6194997  -1.4890012
 113.5110012   2.1104997  -1.3230012 113.4318419   1.2971591  -1.0262882
 111.0530012   3.2384997 -14.4010012 111.2360012   2.7894997 -13.5750012
 110.4540012   2.6534997 -14.8640012 110.9970202   3.0979975 -14.3506725
  96.5830012   4.0534997  -9.8690012  97.0290012   3.2614997  -9.5670012
  97.0500012   4.7694997  -9.4380012  96.7070172   4.0420624  -9.7695180
  94.8870012   7.0524997  -8.8000012  95.3790012   6.8314997  -9.5910012
  95.2500012   7.8934997  -8.5190012  95.0033126   7.1358357  -8.8702469
 112.8840012   3.3824997  -2.5340012 111.9660012   3.6534997  -2.5700012
 113.0070012   2.8474997  -3.3190012 112.7751066   3.3472892  -2.6449513
 112.9200012   3.3054997 -17.8730012 113.3320012   2.5844997 -18.3480012
 113.6020012   3.9754997 -17.8140012 113.0685885   3.2972368 -17.9301085
  95.2010012   3.3104997 -14.7460012  94.2760012   3.5194997 -14.8750012
  95.6550012   3.7944997 -15.4350012  95.1357368   3.4045993 -14.8568774
 109.9720012  18.2944997 -12.8000012 110.6240012  17.9474997 -13.4080012
 110.4820012  18.7834997 -12.1540012 110.1302637  18.3130597 -12.7959764
  95.1650012   2.0484997  -6.4010012  94.5000012   1.8024997  -5.7580012
  94.7220012   2.6704997  -6.9790012  95.0140956   2.0988632  -6.3910648
  97.3570012  15.2234997  -2.2570012  96.5360012  15.3984997  -2.7170012
  97.1040012  15.1504997  -1.3360012  97.2106164  15.2375622  -2.1955077
 100.3110012  16.1984997  -5.9980012  99.8860012  17.0074997  -6.2810012
 101.2150012  16.2834997  -6.3000012 100.3750271  16.3208469  -6.0776224
 104.6220012  17.5974997  -3.0390012 104.8070012  17.2634997  -2.1610012
 105.4680012  17.9064997  -3.3610012 104.7617539  17.5936047  -2.9624395
 106.9670012  18.8834997  -3.7950012 107.6440012  18.2504997  -4.0350012
 107.2890012  19.2844997  -2.9880012 107.1031637  18.8511154  -3.7187207
 111.8840012   1.4724997  -4.7150012 111.0720012   1.7974997  -5.1030012
 112.1170012   0.7124997  -5.2480012 111.8043423   1.4142436  -4.8401747
  97.7130012  19.4544997  -5.9510012  96.9920012  19.8944997  -6.4020012
  97.3470012  19.2034997  -5.1020012  97.5649804  19.4807698  -5.8980160
 100.1800012  19.0544997  -6.9210012  99.3150012  19.1264997  -6.5170012
 100.1250012  19.6014997  -7.7050012 100.0542085  19.1382685  -6.9716638
 104.8900012  18.9424997  -7.7460012 104.4340012  19.4714997  -8.4000012
 105.0530012  19.5454997  -7.0200012 104.8495585  19.0964468  -7.7374938
 107.2180012  17.8204997  -6.8010012 106.3130012  17.9854997  -7.0660012
 107.6470012  18.6734997  -6.8660012 107.1520799  17.9584483  -6.8460818
 109.8220012  19.3904997  -6.5060012 109.6400012  20.3064997  -6.7160012
 109.9990012  18.9804997  -7.3520012 109.8210210  19.4604822  -6.6492115
  97.1270012  18.0774997  -9.0410012  97.1090012  17.6524997  -8.1830012
  97.9320012  17.7594997  -9.4490012  97.2333875  17.9763812  -8.9788345
  99.2690012  16.7874997 -10.3860012  99.0500012  15.8714997 -10.2160012
 100.0930012  16.9274997  -9.9200012  99.3504420  16.6810520 -10.2997226
 101.8060012  17.2574997  -9.5370012 102.0190012  16.3694997  -9.8240012
 101.8700012  17.2234997  -8.5830012 101.8438232  17.1313102  -9.4472603
 105.3140012   2.9214997 -10.3930012 104.6400012   2.2924997 -10.1370012
 105.8780012   2.4374997 -10.9960012 105.2979230   2.7698744 -10.4394660
 110.4570012   1.0294997 -10.2800012 111.0610012   1.5764997 -10.7820012
 109.5870012   1.3484997 -10.5200012 110.4221241   1.1475806 -10.3812346
 112.1840012   2.1674997 -11.9470012 112.7960012   1.6534997 -12.4730012
 112.5660012   3.0454997 -11.9230012 112.3194540   2.2157140 -12.0158170
  97.6410012   1.5554997 -12.5710012  96.8640012   1.3214997 -13.0780012
  98.1710012   0.7584997 -12.5620012  97.6062330   1.4156988 -12.6392258
  96.4770012   1.3534997 -16.7670012  96.9160012   1.9644997 -17.3590012
  95.8440012   1.8914997 -16.2930012  96.4514514   1.5099257 -16.7839070
 102.2200012   1.4824997 -12.7570012 103.0950012   1.8704997 -12.7870012
 102.0840012   1.2674997 -11.8350012 102.3213695   1.5065184 -12.6363560
 107.7770012   1.5124997 -11.1080012 107.8530012   1.6074997 -12.0580012
 107.5020012   0.6044997 -10.9790012 107.7502321   1.4027867 -11.2204921
 109.1300012   1.5384997 -15.4160012 108.4280012   2.1534997 -15.6250012
 108.6860012   0.7004997 -15.2850012 108.9736330   1.5095783 -15.4269672
  96.3780012  17.3014997 -15.8690012  95.6930012  17.2634997 -16.5370012
  96.3820012  18.2144997 -15.5810012  96.2848193  17.4197016 -15.9214716
  98.3380012   3.2694997 -18.3250012  98.8300012   2.6394997 -18.8520012
  98.9620012   3.5654997 -17.6610012  98.4895446   3.2233199 -18.3074020
 103.3640012   3.5624997 -15.8680012 103.5420012   2.9164997 -15.1850012
 103.3110012   4.3964997 -15.4000012 103.3811829   3.5867985 -15.7114060
 105.2430012  18.5114997 -17.4720012 106.1090012  18.8774997 -17.6500012
 104.9960012  18.0714997 -18.2860012 105.3282392  18.5021756 -17.6063711
 111.9520012  18.0744997 -14.7930012 111.7570012  17.3264997 -15.3580012
 111.9130012  18.8324997 -15.3760012 111.9200380  18.0746099 -14.9491616
  97.5990012   2.0694997  -3.0530012  97.2330012   1.3044997  -2.6100012
  98.5120012   2.0984997  -2.7660012  97.6722790   1.9687224  -2.9535930
  99.5720012   1.4204997  -1.5170012 100.4700012   1.1464997  -1.7020012
  99.1850012   0.6774997  -1.0530012  99.6426612   1.2825914  -1.4796357
  98.1960012  18.2214997 -18.8440012  97.9290012  18.5084997 -17.9710012
  98.9680012  17.6754997 -18.6920012  98.2637488  18.1870294 -18.7038950
 107.9930012   0.7524997  -1.3350012 108.0700012   0.3264997  -0.4810012
 108.8870012   0.7664997  -1.6780012 108.1243428   0.6960879  -1.2644690
 111.1690012  16.8254997  -2.6430012 110.3870012  16.6394997  -3.1620012
 111.0970012  17.7544997  -2.4250012 111.0521777  16.9256492  -2.6845952
 125.5750012  10.7114997 -12.6120012 125.6640012  11.6554997 -12.7440012
 124.9370012  10.4364997 -13.2700012 125.5009081  10.8034830 -12.7190386
 124.5080012   9.9664997  -9.1930012 124.4700012   9.3204997  -8.4880012
 124.1860012   9.5004997  -9.9640012 124.4592333   9.8149408  -9.2007022
 116.8770012   9.5814997  -7.6000012 116.9180012   8.9554997  -6.8770012
 117.5800012  10.2054997  -7.4180012 116.9776363   9.5801196  -7.4763956
 128.2140012  12.9054997 -10.8920012 127.7740012  12.1854997 -10.4410012
 128.2010012  13.6264997 -10.2620012 128.1520226  12.9043731 -10.7451506
 117.8000012  14.0314997  -9.0650012 117.4310012  13.2294997  -9.4350012
 118.7410012  13.8624997  -9.0190012 117.8767289  13.8990153  -9.1093684
 114.4100012   7.6914997 -13.6720012 113.9630012   8.5374997 -13.6910012
 113.8490012   7.1114997 -14.1880012 114.2729900   7.7289916 -13.7443199
 115.1210012   9.8534997 -11.5460012 115.3340012   9.0834997 -11.0190012
 115.8590012   9.9424997 -12.1500012 115.2498496   9.7601394 -11.5554700
 125.3260012  18.0104997 -10.6790012 125.9460012  17.3334997 -10.9530012
 125.1180012  17.7924997  -9.7710012 125.3826904  17.8883870 -10.5936635
 122.8980012  12.3994997  -8.7870012 123.2020012  11.7134997  -9.3820012
 123.6190012  12.5174997  -8.1690012 123.0370671  12.3216305  -8.7848184
 131.5610012   4.0004997  -7.9260012 131.6100012   4.6104997  -7.1900012
 131.9860012   4.4614997  -8.6490012 131.6251824   4.1463741  -7.9229795
 126.0390012   6.7934997  -8.4590012 126.1810012   5.8474997  -8.4390012
 125.9320012   7.0004997  -9.3880012 126.0439864   6.6919534  -8.5817661
 119.1930012   4.8944997 -11.1870012 119.2370012   5.7544997 -11.6050012
 118.7360012   4.3424997 -11.8210012 119.1372185   4.9375799 -11.3299701
 126.9160012   5.0254997 -12.7860012 127.5620012   4.6964997 -12.1610012
 127.4260012   5.5434997 -13.4090012 127.0734264   5.0504611 -12.7846138
 115.8140012   7.2914997 -10.4250012 116.4670012   6.7414997  -9.9930012
 115.8380012   7.0174997 -11.3420012 115.9066683   7.1791466 -10.4897877
 120.9700012   8.8414997 -11.2100012 121.5860012   8.3154997 -10.7000012
 120.3840012   8.2014997 -11.6130012 120.9750810   8.6829208 -11.1946827
 131.9520012   5.4784997  -5.6900012 131.2640012   6.1364997  -5.7860012
 131.9680012   5.2814997  -4.7540012 131.8598525   5.5420462  -5.5765192
 118.0040012   3.8124997  -7.1130012 117.7850012   4.3424997  -7.8790012
 117.3360012   4.0394997  -6.4660012 117.8837600   3.9156906  -7.1303621
 125.3730012  13.3124997 -13.5690012 125.0770012  12.9904997 -14.4200012
 125.0480012  14.2124997 -13.5280012 125.2886371  13.3900215 -13.6798199
 120.5730012  11.4884997  -6.8260012 119.8330012  12.0864997  -6.7220012
 121.2870012  12.0424997  -7.1410012 120.5682237  11.6452831  -6.8543535
 128.6800012   4.3164997 -10.8060012 128.4640012   3.5504997 -10.2730012
 129.3350012   4.7884997 -10.2930012 128.7390632   4.2755889 -10.6637139
 117.5970012   5.7044997  -9.1610012 118.2110012   6.3374997  -8.7870012
 118.1090012   5.2324997  -9.8170012 117.7502296   5.7272370  -9.1985748
 118.9800012  13.4524997  -6.0380012 118.9750012  14.3324997  -6.4160012
 118.1270012  13.3694997  -5.6130012 118.8639464  13.5616117  -6.0322093
 115.1010012  13.1234997 -15.2560012 114.8290012  13.3524997 -16.1450012
 115.1470012  13.9614997 -14.7960012 115.0700094  13.2681213 -15.3154303
 128.7260012  14.7454997  -8.5440012 127.7850012  14.8034997  -8.3820012
 129.0030012  15.6514997  -8.6810012 128.6344679  14.8759443  -8.5403185
 129.0270012   3.0314997  -7.1260012 128.2910012   3.6424997  -7.1640012
 129.7100012   3.4464997  -7.6530012 129.0186541   3.1711374  -7.2024168
 122.0300012   1.1184997  -9.6600012 121.9130012   0.1694997  -9.7150012
 121.1750012   1.4504997  -9.3870012 121.8983733   1.0335409  -9.6306103
 126.9780012  16.5264997 -11.9180012 127.4040012  15.8194997 -12.4030012
 127.2950012  17.3274997 -12.3350012 127.0791019  16.5380994 -12.0406870
 128.1380012  14.4274997 -13.4100012 127.8800012  13.7374997 -14.0210012
 128.2090012  13.9844997 -12.5640012 128.1122856  14.2732124 -13.3793115
 129.8240012  12.9934997  -4.9320012 129.9640012  12.4024997  -5.6720012
 129.9910012  13.8664997  -5.2890012 129.8656778  13.0306426  -5.0813035
 124.2970012   9.9554997 -15.1600012 123.5850012  10.4904997 -15.5120012
 124.9880012  10.0114997 -15.8200012 124.2930132  10.0362543 -15.2973711
 124.3500012   8.4134997 -18.1210012 125.0510012   8.4354997 -17.4700012
 124.6530012   7.7854997 -18.7770012 124.4867830   8.3316566 -18.1206289
 131.6660012   9.3334997  -6.8660012 131.0130012  10.0284997  -6.7770012
 132.1310012   9.5434997  -7.6760012 131.6395390   9.4569425  -6.9633117
 127.7020012  10.1654997 -14.2080012 126.9700012  10.3934997 -13.6350012
 128.1500012   9.4514997 -13.7530012 127.6623095  10.1002571 -14.0680881
 127.6000012   8.3394997  -5.1410012 127.6800012   9.1024997  -4.5690012
 126.9980012   8.6184997  -5.8310012 127.5295756   8.4817134  -5.1559411
 119.3480012  10.7954997 -12.3260012 119.0170012  10.4254997 -13.1440012
 119.9360012  10.1254997 -11.9790012 119.3821873  10.6541156 -12.3911898
 120.7140012  14.2234997  -9.6440012 120.6200012  13.6454997 -10.4010012
 121.4440012  13.8524997  -9.1480012 120.7997981  14.0942390  -9.6805835
 119.7140012   9.5644997  -8.6920012 120.2800012   9.6854997  -9.4550012
 120.0330012  10.2014997  -8.0530012 119.8345786   9.6671884  -8.7099960
 126.0230012  15.0674997  -7.9580012 125.7830012  15.7294997  -7.3100012
 125.8250012  14.2334997  -7.5330012 125.9633808  15.0453134  -7.8118476
 120.5940012  13.9634997  -3.9750012 120.2830012  14.7454997  -3.5200012
 119.9440012  13.8104997  -4.6610012 120.4635558  14.0499105  -4.0054129
 126.5730012   9.3274997 -16.5230012 127.1530012   9.4774997 -15.7760012
 126.9870012   9.7984997 -17.2460012 126.7082830   9.4116841 -16.5185866
 117.5140012  10.1614997  -4.7460012 117.5850012  10.8124997  -4.0480012
 116.6240012  10.2644997  -5.0810012 117.4033117  10.2645936  -4.6957300
 124.3000012  16.0644997 -13.0880012 124.7740012  16.3594997 -12.3100012
 123.7370012  16.8024997 -13.3210012 124.2887653  16.2046932 -13.0129864
 118.8340012  16.0354997  -3.2120012 118.8410012  15.8994997  -4.1590012
 117.9180012  15.9174997  -2.9600012 118.7111714  16.0009430  -3.3075334
 130.2720012   1.0774997 -16.7100012 129.3720012   1.2164997 -16.4150012
 130.5240012   1.9084997 -17.1120012 130.1828702   1.2089074 -16.7239795
 118.3380012   9.8654997 -14.7360012 118.0460012  10.6334997 -15.2270012
 117.6640012   9.2054997 -14.8990012 118.2069081   9.8814406 -14.8252660
 131.4610012  15.4434997 -18.3340012 131.5350012  16.3824997 -18.1630012
 132.3670012  15.1384997 -18.3900012 131.5935100  15.5306722 -18.3181881
 114.4310012  12.2284997  -5.9210012 113.9300012  12.2004997  -6.7360012
 114.4360012  11.3224997  -5.6120012 114.3631526  12.1022278  -5.9907128
 114.1810012  15.0084997  -9.0370012 115.1270012  14.8644997  -9.0560012
 114.0690012  15.7924997  -8.5000012 114.2952727  15.0948046  -8.9669928
 132.3790012  15.6744997  -3.3550012 132.3300012  14.7194997  -3.3920012
 131.5520012  15.9424997  -2.9540012 132.2604940  15.5798998  -3.3058625
 123.3580012  15.2484997  -4.4790012 123.4450012  16.0744997  -4.0040012
 122.4940012  14.9184997  -4.2300012 123.2531964  15.3169878  -4.3803451
 123.7720012  19.0204997 -14.6730012 123.6970012  18.8994997 -15.6190012
 123.8050012  19.9704997 -14.5540012 123.7661848  19.1322500 -14.7865166
 117.4250012  17.8094997 -12.8920012 117.5780012  17.4614997 -12.0130012
 116.5750012  17.4534997 -13.1470012 117.3308962  17.7136650 -12.8061660
 126.8740012  18.1744997 -17.6710012 127.2490012  17.4304997 -18.1410012
 126.8780012  17.9044997 -16.7520012 126.9258915  18.0361486 -17.6112176
 126.5430012  18.1004997 -14.9210012 125.6070012  18.2004997 -14.7430012
 126.8230012  17.3914997 -14.3430012 126.4528255  18.0182711 -14.8184609
 129.5310012   7.1674997  -2.8750012 129.1240012   7.6484997  -3.5960012
 129.5720012   6.2624997  -3.1830012 129.4808437   7.1109374  -3.0153317
 116.6800012  13.5514997  -4.8780012 116.8960012  13.1904997  -4.0190012
 115.8250012  13.1774997  -5.0880012 116.5939292  13.4514111  -4.7886614
 119.2990012   2.0214997  -8.8830012 118.4370012   1.9344997  -9.2900012
 119.2760012   2.8774997  -8.4550012 119.1780330   2.1252765  -8.8808137
 123.9620012   1.7434997  -5.5080012 124.3820012   1.3284997  -4.7550012
 123.0290012   1.5654997  -5.3910012 123.8933644   1.6625900  -5.3890461
 127.2880012   5.4994997  -4.6550012 126.7740012   5.3734997  -3.8570012
 127.1330012   6.4114997  -4.8990012 127.1966852   5.6056132  -4.5787842
 128.0510012  10.3604997 -18.8930012 128.0930012  10.1374997 -19.8230012
 128.9000012  10.7594997 -18.7030012 128.1715396  10.3839155 -18.9946373
 123.6230012   4.2364997 -18.2230012 123.3700012   4.2554997 -17.3000012
 123.3670012   3.3644997 -18.5240012 123.5537790   4.1212437 -18.1373737
 119.3900012   6.9874997  -7.7880012 118.7480012   6.9464997  -7.0790012
 119.4270012   7.9134997  -8.0250012 119.3071324   7.1071559  -7.7230176
 119.3870012   7.2084997 -12.8760012 118.4940012   6.8674997 -12.9340012
 119.8370012   6.8314997 -13.6310012 119.3257305   7.1108484 -12.9860823
 124.9220012   7.6244997 -14.0590012 124.5130012   8.4394997 -14.3500012
 125.6430012   7.4844997 -14.6730012 124.9634537   7.7172018 -14.1818658
 124.0240012   7.7994997  -2.5710012 123.4620012   7.0954997  -2.2500012
 124.8510012   7.6794997  -2.1030012 124.0587095   7.6867883  -2.4637670
 125.9270012   7.0704997 -11.2450012 125.7320012   7.6754997 -11.9600012
 126.1080012   6.2364997 -11.6790012 125.9247614   7.0406300 -11.4015595
 117.1400012   7.3074997  -5.9210012 117.1020012   7.7074997  -5.0520012
 116.6490012   6.4904997  -5.8300012 117.0684684   7.2518069  -5.7898941
 120.5060012   4.6814997 -19.1220012 120.0750012   4.2364997 -18.3920012
 119.7880012   5.0534997 -19.6340012 120.3499438   4.6708940 -19.0913201
 113.7480012   4.4234997 -12.0700012 114.3790012   4.3944997 -11.3510012
 114.1970012   3.9984997 -12.8000012 113.8950774   4.3620492 -12.0703447
 115.0220012   5.1694997 -16.6460012 115.4960012   5.7604997 -17.2310012
 114.3050012   5.7004997 -16.2990012 114.9899341   5.3220867 -16.6791164
 125.1910012   8.7084997  -6.5730012 125.5140012   8.0774997  -7.2160012
 124.7510012   8.1734997  -5.9130012 125.1756895   8.5498441  -6.5717150
 121.9680012   4.6354997 -11.7890012 121.0570012   4.6924997 -11.5010012
 122.4740012   4.5754997 -10.9790012 121.9115413   4.6351985 -11.6399378
 116.7970012   6.2644997 -12.9630012 115.9070012   6.3644997 -13.3030012
 117.0930012   5.4224997 -13.3090012 116.7152823   6.1643545 -13.0562787
 120.4500012   6.2644997 -15.3060012 121.3810012   6.3934997 -15.1280012
 120.2350012   6.9344997 -15.9560012 120.5484247   6.3726565 -15.3694253
 126.3730012   3.8704997  -8.5250012 125.6970012   4.0014997  -7.8610012
 125.8880012   3.7154997  -9.3350012 126.2147145   3.8674905  -8.5435483
 119.1240012   7.4594997 -17.7390012 118.5810012   7.0794997 -18.4310012
 119.9570012   7.6534997 -18.1680012 119.1624399   7.4338124 -17.8915474
 129.6610012  19.5424997  -2.2480012 129.8610012  19.9664997  -3.0830012
 130.3160012  19.8854997  -1.6410012 129.7770051  19.6469648  -2.2802164
 117.2590012  12.0164997  -2.6400012 117.9910012  12.2704997  -2.0790012
 116.4790012  12.2204997  -2.1250012 117.2538232  12.0789177  -2.4934240
 123.2880012   7.4234997  -9.9020012 123.8530012   6.8764997 -10.4490012
 123.1410012   6.9014997  -9.1140012 123.3452918   7.2782024  -9.8701546
 118.2900012   3.5594997 -13.4840012 117.9730012   2.6574997 -13.5190012
 119.0720012   3.5614997 -14.0370012 118.3522284   3.4361628 -13.5635217
 121.9150012   5.8114997  -7.4880012 121.0790012   6.2654997  -7.3780012
 122.4390012   6.0874997  -6.7360012 121.8714414   5.9109376  -7.3712864
 122.4590012  12.0244997 -15.8040012 121.7140012  11.5174997 -16.1260012
 122.3250012  12.0734997 -14.8570012 122.3388776  11.9616940 -15.7201353
 129.6090012  11.1574997  -7.0170012 130.2510012  11.6144997  -7.5610012
 128.7790012  11.2704997  -7.4800012 129.5845963  11.2352704  -7.1539823
 126.3570012   4.8384997 -17.6040012 125.4180012   4.9504997 -17.7560012
 126.6540012   5.6954997 -17.2980012 126.2687666   4.9696443 -17.5834232
 123.9780012  12.2084997  -4.5670012 123.6330012  11.8274997  -3.7600012
 123.7780012  13.1424997  -4.4950012 123.9038061  12.2825228  -4.4469039
 127.0750012   6.7054997 -15.9440012 127.9670012   6.5684997 -15.6250012
 127.1320012   7.4964997 -16.4800012 127.2046285   6.7936660 -15.9728310
 117.5840012  11.3194997 -10.0340012 118.3290012  11.3174997 -10.6350012
 117.6620012  10.4964997  -9.5520012 117.6965518  11.2079315 -10.0511071
 124.5850012  13.4834997 -16.7780012 124.2890012  14.3094997 -16.3970012
 123.8820012  12.8634997 -16.5820012 124.4494914  13.5128199 -16.6993557
 114.5920012   9.7804997  -4.7190012 114.8150012   9.3624997  -3.8870012
 113.9900012   9.1674997  -5.1420012 114.5411759   9.6404668  -4.6622978
 121.6080012   9.2974997  -2.5060012 121.3120012   9.1314997  -3.4010012
 122.5400012   9.0774997  -2.5170012 121.6934166   9.2450640  -2.6299464
 126.2290012  14.6704997  -4.6160012 125.3280012  14.8534997  -4.8840012
 126.2630012  14.9294997  -3.6950012 126.1103041  14.7305512  -4.5281803
 131.9600012   6.9154997 -16.2490012 131.4060012   6.5194997 -16.9210012
 132.0600012   7.8254997 -16.5270012 131.8977059   6.9843586 -16.3785599
 131.9230012  12.7154997  -3.4120012 131.0720012  12.9534997  -3.7790012
 132.5140012  12.6984997  -4.1650012 131.8862487  12.7458258  -3.5641107
 130.2550012  15.7014997 -15.7840012 129.8820012  14.8754997 -15.4750012
 130.5330012  15.5184997 -16.6810012 130.2415630  15.5637303 -15.8630374
 127.4160012  10.5094997  -8.7630012 126.4870012  10.2774997  -8.7900012
 127.8670012   9.7324997  -9.0930012 127.3499216  10.3727238  -8.8113083
 119.9590012  14.8374997 -12.6300012 120.4860012  15.6104997 -12.8300012
 119.0790012  15.0624997 -12.9310012 119.9121773  14.9738005 -12.6980990
 115.7140012   9.6994997 -18.0430012 116.3300012  10.3264997 -17.6630012
 114.8520012  10.0154997 -17.7710012 115.6817698   9.8279430 -17.9542817
 121.3860012  12.5004997 -13.0530012 121.1450012  13.4254997 -13.0120012
 120.6450012  12.0414997 -12.6570012 121.2528409  12.5651421 -12.9938623
 121.9010012  16.6494997  -6.7380012 122.2630012  17.5044997  -6.9720012
 122.4320012  16.3574997  -5.9980012 122.0224473  16.7271060  -6.6699145
 120.0690012  17.5224997 -13.5080012 119.1190012  17.6274997 -13.4570012
 120.4210012  18.3424997 -13.1630012 119.9864203  17.6478314 -13.4543350
 125.4450012  12.7484997  -7.0380012 125.0190012  12.5214997  -6.2110012
 126.0250012  12.0104997  -7.2200012 125.4651868  12.6175299  -6.9494170
 127.6480012  13.6774997 -17.9640012 128.0010012  13.2974997 -17.1590012
 126.6990012  13.5844997 -17.8770012 127.5680441  13.6129596 -17.8421441
 128.1030012  17.3004997  -4.5680012 127.5020012  16.7454997  -5.0640012
 128.3850012  17.9674997  -5.1940012 128.0588519  17.3146841  -4.7205048
 132.1510012  18.1574997 -17.7630012 132.8950012  18.7434997 -17.9030012
 131.4570012  18.7254997 -17.4290012 132.1590292  18.3145582 -17.7370039
 116.2260012   4.5334997  -5.1610012 115.3330012   4.8724997  -5.2290012
 116.1270012   3.6784997  -4.7430012 116.0904164   4.4642588  -5.1137765
 128.5140012  12.3504997 -15.7370012 128.2360012  11.6224997 -15.1810012
 129.4410012  12.4694997 -15.5320012 128.6013124  12.2668802 -15.6331155
 115.8770012  16.3384997  -6.7260012 116.0940012  15.4064997  -6.7570012
 116.1230012  16.6124997  -5.8430012 115.9399549  16.2480636  -6.6108237
 121.7390012  14.7894997 -19.5170012 121.9780012  14.0414997 -20.0640012
 121.4700012  14.4014997 -18.6840012 121.7353675  14.6346638 -19.4793135
 120.6760012  14.3594997 -17.0600012 120.8220012  13.8394997 -16.2700012
 120.6730012  15.2664997 -16.7540012 120.6955989  14.4108853 -16.9103912
 117.1290012  11.6124997 -16.5500012 116.4430012  11.9644997 -15.9830012
 117.6510012  12.3754997 -16.7970012 117.1056852  11.7638578 -16.5057882
 124.9600012   4.2744997  -6.2710012 125.6590012   4.3484997  -5.6210012
 124.5790012   3.4104997  -6.1170012 125.0041767   4.1677624  -6.1611678
 125.7450012   3.9264997 -15.1740012 125.9650012   4.3984997 -15.9770012
 126.3030012   4.3214997 -14.5040012 125.8504968   4.0444285 -15.1932669
 123.4130012  16.0574997 -16.3110012 122.5970012  16.5544997 -16.2590012
 123.9430012  16.5324997 -16.9510012 123.3729161  16.1897722 -16.3904044
 122.9450012   5.6544997 -14.3390012 123.7570012   6.1594997 -14.2930012
 122.7000012   5.5094997 -13.4250012 123.0230520   5.7040375 -14.2091483
 123.4800012   6.6404997  -5.1540012 123.5990012   7.2144997  -4.3970012
 124.1360012   5.9524997  -5.0400012 123.5849757   6.6261079  -5.0349175
 123.8280012   2.7354997 -13.4010012 123.4820012   3.3534997 -12.7560012
 124.4870012   3.2364997 -13.8820012 123.8697826   2.8875802 -13.3779029
 120.7520012  17.1014997 -16.3290012 120.9120012  17.9004997 -16.8300012
 120.5540012  17.4074997 -15.4440012 120.7471649  17.2524469 -16.2780185
 119.4860012   3.7984997 -16.7140012 119.4030012   4.6874997 -16.3670012
 120.3760012   3.5334997 -16.4820012 119.5949469   3.8841430 -16.6352374
 129.6850012   4.5474997  -4.3190012 128.7680012   4.8104997  -4.4070012
 130.0200012   4.5444997  -5.2160012 129.6049900   4.5830224  -4.4522081
 128.2870012   8.2984997 -10.2240012 127.4890012   7.8834997 -10.5520012
 128.7320012   7.6074997  -9.7330012 128.2379885   8.1483543 -10.2025111
 117.7450012  14.2264997 -17.6530012 118.3370012  14.9254997 -17.3770012
 118.2040012  13.7934997 -18.3730012 117.8881142  14.2637049 -17.7125170
 116.0610012   6.8904997 -18.5370012 116.0160012   7.8294997 -18.3590012
 115.1730012   6.6544997 -18.8070012 115.9348574   6.9871892 -18.5491088
 129.3730012  17.5544997  -8.6010012 129.2180012  18.2324997  -9.2580012
 130.3060012  17.6264997  -8.3980012 129.4778500  17.6570170  -8.6634881
 116.8690012   1.6724997  -9.8640012 116.6400012   1.7314997 -10.7920012
 116.4260012   0.8804997  -9.5580012 116.7778530   1.5735753  -9.9495214
 115.7990012  15.6124997 -13.7040012 114.9670012  16.0854997 -13.6760012
 116.3450012  16.1224997 -14.3020012 115.7589739  15.7461871 -13.7810284
 115.0870012  18.2254997  -2.3740012 115.6280012  18.0084997  -1.6140012
 114.6060012  17.4194997  -2.5630012 115.0959345  18.0869514  -2.2956924
 119.6850012  17.1444997  -0.7530012 120.4520012  16.6854997  -0.4120012
 119.6630012  16.9184997  -1.6830012 119.7871434  17.0510409  -0.8319957
 123.7770012  16.6524997 -19.3780012 123.1330012  16.0214997 -19.0570012
 124.5390012  16.1214997 -19.6100012 123.7918077  16.4942920 -19.3653989
 126.2620012  15.5244997  -2.0240012 125.9110012  14.6684997  -1.7810012
 126.9880012  15.6674997  -1.4170012 126.3120769  15.4265636  -1.9086381
 128.3810012  16.4694997 -19.1440012 128.6640012  15.6754997 -18.6920012
 129.1210012  16.7024997 -19.7050012 128.5197486  16.3922803 -19.1579302
 114.9940012  12.0354997  -1.4190012 115.1380012  11.1334997  -1.7060012
 114.2220012  12.3214997  -1.9070012 114.9093322  11.9508261  -1.5242119
 119.3360012  12.3794997 -19.2870012 119.4000012  11.5854997 -18.7560012
 119.9890012  12.2604997 -19.9770012 119.4330241  12.2547148 -19.3075683
 121.6500012  12.0054997  -1.9870012 121.3210012  12.2764997  -2.8440012
 121.8020012  11.0644997  -2.0740012 121.6254809  11.9153862  -2.1161756
 127.3840012  11.9214997  -4.6030012 128.1300012  12.5094997  -4.7230012
 126.6270012  12.5034997  -4.5400012 127.3837554  12.0807011  -4.6109093
 115.8270012   9.2354997  -1.9990012 116.2350012   8.3784997  -2.1200012
 115.5670012   9.2504997  -1.0780012 115.8477568   9.1200807  -1.8910412
 120.4850012  10.3514997 -16.9810012 120.0250012   9.8674997 -16.2950012
 120.7400012   9.6834997 -17.6170012 120.4564902  10.1948731 -16.9730666
 119.7740012   8.2444997  -4.6250012 119.1560012   8.9194997  -4.3450012
 120.1180012   8.5654997  -5.4580012 119.7359615   8.3802721  -4.6993419
 121.5560012   8.5944997 -18.7190012 121.3760012   8.4404997 -19.6460012
 122.5060012   8.7024997 -18.6740012 121.6597776   8.5880175 -18.8398157
 124.7940012  10.7164997  -1.3480012 125.7470012  10.7994997  -1.3750012
 124.6330012  10.0044997  -0.7280012 124.9026426  10.6316746  -1.2679421
 130.9460012  10.9494997 -19.2730012 130.6720012  10.5244997 -20.0860012
 130.9850012  11.8804997 -19.4900012 130.9137699  11.0172484 -19.4136390
 120.1130012   5.5994997  -3.5430012 120.2630012   4.8704997  -4.1450012
 120.1160012   6.3764997  -4.1020012 120.1339302   5.6047851  -3.7009308
 120.5260012   3.9694997  -6.0500012 121.0620012   4.4204997  -6.7020012
 119.6740012   3.8614997  -6.4730012 120.4842178   4.0166390  -6.1964244
 122.1080012   9.4084997  -5.8110012 122.8580012   9.2524997  -6.3840012
 121.7690012  10.2604997  -6.0860012 122.1648921   9.5022968  -5.9266439
 126.5230012   7.2234997  -0.7820012 126.7160012   6.2924997  -0.8940012
 127.3810012   7.6484997  -0.7920012 126.6653020   7.1536389  -0.7986639
 127.8400012  10.0124997  -2.7050012 127.5590012  10.7214997  -3.2820012
 128.7830012   9.9394997  -2.8560012 127.9289027  10.0997646  -2.8044449
 118.5920012   6.7974997  -1.6310012 117.8250012   6.2654997  -1.8410012
 119.2710012   6.4874997  -2.2310012 118.5787022   6.6827506  -1.7408352
 121.3320012   1.4254997  -5.6190012 121.2330012   2.3724997  -5.7240012
 120.5890012   1.0534997  -6.0940012 121.2180564   1.5045902  -5.6975440
 122.5960012   5.7474997  -2.0550012 122.3600012   5.5274997  -1.1530012
 121.8120012   5.5404997  -2.5650012 122.4578628   5.6894760  -2.0006068
 125.3110012   4.8744997  -2.9790012 124.3640012   4.9064997  -2.8470012
 125.6240012   4.2494997  -2.3260012 125.2235475   4.7943207  -2.8725545
 126.9450012   3.5084997  -0.9740012 126.8490012   2.5564997  -0.9800012
 126.6240012   3.7774997  -0.1140012 126.8884070   3.4144035  -0.8584559
 116.7720012   4.7184997  -1.9270012 116.9840012   4.0114997  -2.5370012
 116.6610012   4.2804997  -1.0830012 116.7859721   4.5627084  -1.8963157
 121.5530012   0.7194997  -2.9470012 122.2650012   0.0794997  -2.9610012
 121.4520012   0.9864997  -3.8610012 121.6367939   0.6679938  -3.0724350
 121.9070012   2.4024997  -0.8940012 121.7750012   1.9264997  -1.7140012
 121.3080012   3.1464997  -0.9490012 121.8079071   2.4379618  -1.0137114
 121.4530012  19.2854997 -17.7170012 122.3860012  19.4434997 -17.5740012
 121.1890012  19.9604997 -18.3420012 121.5449510  19.3983611 -17.7819259
 115.0220012  13.9214997 -18.2350012 115.9360012  14.0004997 -17.9610012
 115.0290012  13.2344997 -18.9010012 115.1481131  13.8393961 -18.2875607
 113.6710012  19.3144997 -13.1570012 113.0240012  18.8524997 -13.6900012
 114.0250012  18.6424997 -12.5750012 113.6303849  19.1604723 -13.1512041
 114.5410012  17.3954997 -11.3530012 114.2060012  16.5154997 -11.1810012
 114.7630012  17.7404997 -10.4880012 114.5251783  17.3217500 -11.2125792
 132.0890012  18.2044997  -8.3720012 132.0680012  18.3894997  -7.4330012
 132.7800012  18.7734997  -8.7130012 132.1794618  18.3066606  -8.2896136
 131.6530012  17.7724997  -5.4500012 131.1650012  17.0364997  -5.8210012
 132.2020012  17.3784997  -4.7720012 131.6604872  17.6186249  -5.4090840
 130.1030012  13.5614997  -0.8120012 129.2370012  13.4564997  -0.4180012
 130.4800012  14.3204997  -0.3660012 130.0353308  13.6496900  -0.6977607
 131.4040012  11.8184997 -15.2980012 132.2540012  12.2394997 -15.1710012
 131.4100012  11.0784997 -14.6910012 131.5211372  11.7760803 -15.1985656
 131.7990012   9.8714997 -13.4740012 131.0720012   9.3924997 -13.0770012
 132.3800012  10.0774997 -12.7420012 131.7779375   9.8337090 -13.3205871
 131.5580012  12.6564997  -8.5270012 132.3910012  12.2784997  -8.8070012
 131.6700012  13.5994997  -8.6460012 131.6872647  12.7322218  -8.5814513
 130.0440012  15.5344997  -6.2200012 129.3970012  15.8594997  -5.5940012
 129.5270012  15.0944997  -6.8940012 129.8854029  15.5195004  -6.2254173
 132.0670012   9.7724997 -17.0830012 131.5450012  10.1294997 -17.8020012
 132.0340012  10.4474997 -16.4050012 131.9911634   9.9125413 -17.0896855
 130.4160012   7.0124997 -18.5320012 130.5120012   7.6794997 -19.2130012
 130.2760012   6.1964997 -19.0140012 130.4102135   6.9934500 -18.6901509
 129.5850012   8.3924997 -12.9110012 129.4350012   7.4474997 -12.9320012
 129.2320012   8.6734997 -12.0680012 129.5166625   8.3010441 -12.7997654
 114.6210012  10.4704997  -8.9010012 114.8050012  10.3884997  -9.8370012
 115.4700012  10.3464997  -8.4770012 114.7610139  10.4425003  -8.9718545
 130.4420012  10.3624997  -3.2730012 131.0250012   9.6284997  -3.0810012
 131.0060012  11.1344997  -3.2260012 130.5979769  10.3664227  -3.2403841
 131.9380012   8.2654997  -2.5880012 131.0750012   7.8864997  -2.7540012
 132.5430012   7.5264997  -2.6620012 131.9015979   8.1138023  -2.6207183
 129.6630012   4.4204997 -19.4150012 130.2740012   4.0494997 -18.7780012
 128.8270012   3.9994997 -19.2190012 129.6335032   4.3127554 -19.3012965
 129.2960012   5.9754997 -14.4490012 129.5760012   5.0684997 -14.3250012
 130.0550012   6.4094997 -14.8380012 129.4369277   5.9100942 -14.4846318
 129.9080012   6.5564997  -9.0130012 130.8410012   6.7684997  -9.0470012
 129.6730012   6.6584997  -8.0910012 130.0038036   6.5992769  -8.8930024
 129.9370012   7.2934997  -6.2370012 129.0940012   7.5614997  -5.8710012
 130.3790012   8.1154997  -6.4480012 129.8814158   7.4413291  -6.2154509
 114.2180012   5.7414997  -2.7600012 115.1380012   5.6194997  -2.5240012
 113.7690012   4.9914997  -2.3710012 114.2831580   5.6233727  -2.6750994
 132.2200012   1.2734997  -0.8840012 132.5700012   0.6194997  -1.4890012
 132.3670012   2.1104997  -1.3230012 132.2878419   1.2971591  -1.0262882
 129.9090012   3.2384997 -14.4010012 130.0920012   2.7894997 -13.5750012
 129.3100012   2.6534997 -14.8640012 129.8530202   3.0979975 -14.3506725
 115.4390012   4.0534997  -9.8690012 115.8850012   3.2614997  -9.5670012
 115.9060012   4.7694997  -9.4380012 115.5630172   4.0420624  -9.7695180
 113.7430012   7.0524997  -8.8000012 114.2350012   6.8314997  -9.5910012
 114.1060012   7.8934997  -8.5190012 113.8593126   7.1358357  -8.8702469
 131.7400012   3.3824997  -2.5340012 130.8220012   3.6534997  -2.5700012
 131.8630012   2.8474997  -3.3190012 131.6311066   3.3472892  -2.6449513
 131.7760012   3.3054997 -17.8730012 132.1880012   2.5844997 -18.3480012
 132.4580012   3.9754997 -17.8140012 131.9245885   3.2972368 -17.9301085
 114.0570012   3.3104997 -14.7460012 113.1320012   3.5194997 -14.8750012
 114.5110012   3.7944997 -15.4350012 113.9917368   3.4045993 -14.8568774
 128.8280012  18.2944997 -12.8000012 129.4800012  17.9474997 -13.4080012
 129.3380012  18.7834997 -12.1540012 128.9862637  18.3130597 -12.7959764
 114.0210012   2.0484997  -6.4010012 113.3560012   1.8024997  -5.7580012
 113.5780012   2.6704997  -6.9790012 113.8700956   2.0988632  -6.3910648
 116.2130012  15.2234997  -2.2570012 115.3920012  15.3984997  -2.7170012
 115.9600012  15.1504997  -1.3360012 116.0666164  15.2375622  -2.1955077
 119.1670012  16.1984997  -5.9980012 118.7420012  17.0074997  -6.2810012
 120.0710012  16.2834997  -6.3000012 119.2310271  16.3208469  -6.0776224
 123.4780012  17.5974997  -3.0390012 123.6630012  17.2634997  -2.1610012
 124.3240012  17.9064997  -3.3610012 123.6177539  17.5936047  -2.9624395
 125.8230012  18.8834997  -3.7950012 126.5000012  18.2504997  -4.0350012
 126.1450012  19.2844997  -2.9880012 125.9591637  18.8511154  -3.7187207
 130.7400012   1.4724997  -4.7150012 129.9280012   1.7974997  -5.1030012
 130.9730012   0.7124997  -5.2480012 130.6603423   1.4142436  -4.8401747
 116.5690012  19.4544997  -5.9510012 115.8480012  19.8944997  -6.4020012
 116.2030012  19.2034997  -5.1020012 116.4209804  19.4807698  -5.8980160
 119.0360012  19.0544997  -6.9210012 118.1710012  19.1264997  -6.5170012
 118.9810012  19.6014997  -7.7050012 118.9102085  19.1382685  -6.9716638
 123.7460012  18.9424997  -7.7460012 123.2900012  19.4714997  -8.4000012
 123.9090012  19.5454997  -7.0200012 123.7055585  19.0964468  -7.7374938
 126.0740012  17.8204997  -6.8010012 125.1690012  17.9854997  -7.0660012
 126.5030012  18.6734997  -6.8660012 126.0080799  17.9584483  -6.8460818
 128.6780012  19.3904997  -6.5060012 128.4960012  20.3064997  -6.7160012
 128.8550012  18.9804997  -7.3520012 128.6770210  19.4604822  -6.6492115
 115.9830012  18.0774997  -9.0410012 115.9650012  17.6524997  -8.1830012
 116.7880012  17.7594997  -9.4490012 116.0893875  17.9763812  -8.9788345
 118.1250012  16.7874997 -10.3860012 117.9060012  15.8714997 -10.2160012
 118.9490012  16.9274997  -9.9200012 118.2064420  16.6810520 -10.2997226
 120.6620012  17.2574997  -9.5370012 120.8750012  16.3694997  -9.8240012
 120.7260012  17.2234997  -8.5830012 120.6998232  17.1313102  -9.4472603
 124.1700012   2.9214997 -10.3930012 123.4960012   2.2924997 -10.1370012
 124.7340012   2.4374997 -10.9960012 124.1539230   2.7698744 -10.4394660
 129.3130012   1.0294997 -10.2800012 129.9170012   1.5764997 -10.7820012
 128.4430012   1.3484997 -10.5200012 129.2781241   1.1475806 -10.3812346
 131.0400012   2.1674997 -11.9470012 131.6520012   1.6534997 -12.4730012
 131.4220012   3.0454997 -11.9230012 131.1754540   2.2157140 -12.0158170
 116.4970012   1.5554997 -12.5710012 115.7200012   1.3214997 -13.0780012
 117.0270012   0.7584997 -12.5620012 116.4622330   1.4156988 -12.6392258
 115.3330012   1.3534997 -16.7670012 115.7720012   1.9644997 -17.3590012
 114.7000012   1.8914997 -16.2930012 115.3074514   1.5099257 -16.7839070
 121.0760012   1.4824997 -12.7570012 121.9510012   1.8704997 -12.7870012
 120.9400012   1.2674997 -11.8350012 121.1773695   1.5065184 -12.6363560
 126.6330012   1.5124997 -11.1080012 126.7090012   1.6074997 -12.0580012
 126.3580012   0.6044997 -10.9790012 126.6062321   1.4027867 -11.2204921
 127.9860012   1.5384997 -15.4160012 127.2840012   2.1534997 -15.6250012
 127.5420012   0.7004997 -15.2850012 127.8296330   1.5095783 -15.4269672
 115.2340012  17.3014997 -15.8690012 114.5490012  17.2634997 -16.5370012
 115.2380012  18.2144997 -15.5810012 115.1408193  17.4197016 -15.9214716
 117.1940012   3.2694997 -18.3250012 117.6860012   2.6394997 -18.8520012
 117.8180012   3.5654997 -17.6610012 117.3455446   3.2233199 -18.3074020
 122.2200012   3.5624997 -15.8680012 122.3980012   2.9164997 -15.1850012
 122.1670012   4.3964997 -15.4000012 122.2371829   3.5867985 -15.7114060
 124.0990012  18.5114997 -17.4720012 124.9650012  18.8774997 -17.6500012
 123.8520012  18.0714997 -18.2860012 124.1842392  18.5021756 -17.6063711
 130.8080012  18.0744997 -14.7930012 130.6130012  17.3264997 -15.3580012
 130.7690012  18.8324997 -15.3760012 130.7760380  18.0746099 -14.9491616
 116.4550012   2.0694997  -3.0530012 116.0890012   1.3044997  -2.6100012
 117.3680012   2.0984997  -2.7660012 116.5282790   1.9687224  -2.9535930
 118.4280012   1.4204997  -1.5170012 119.3260012   1.1464997  -1.7020012
 118.0410012   0.6774997  -1.0530012 118.4986612   1.2825914  -1.4796357
 117.0520012  18.2214997 -18.8440012 116.7850012  18.5084997 -17.9710012
 117.8240012  17.6754997 -18.6920012 117.1197488  18.1870294 -18.7038950
 126.8490012   0.7524997  -1.3350012 126.9260012   0.3264997  -0.4810012
 127.7430012   0.7664997  -1.6780012 126.9803428   0.6960879  -1.2644690
 130.0250012  16.8254997  -2.6430012 129.2430012  16.6394997  -3.1620012
 129.9530012  17.7544997  -2.4250012 129.9081777  16.9256492  -2.6845952
 144.4310012  10.7114997 -12.6120012 144.5200012  11.6554997 -12.7440012
 143.7930012  10.4364997 -13.2700012 144.3569081  10.8034830 -12.7190386
 143.3640012   9.9664997  -9.1930012 143.3260012   9.3204997  -8.4880012
 143.0420012   9.5004997  -9.9640012 143.3152333   9.8149408  -9.2007022
 135.7330012   9.5814997  -7.6000012 135.7740012   8.9554997  -6.8770012
 136.4360012  10.2054997  -7.4180012 135.8336363   9.5801196  -7.4763956
 136.6560012  14.0314997  -9.0650012 136.2870012  13.2294997  -9.4350012
 137.5970012  13.8624997  -9.0190012 136.7327289  13.8990153  -9.1093684
 133.2660012   7.6914997 -13.6720012 132.8190012   8.5374997 -13.6910012
 132.7050012   7.1114997 -14.1880012 133.1289900   7.7289916 -13.7443199
 133.9770012   9.8534997 -11.5460012 134.1900012   9.0834997 -11.0190012
 134.7150012   9.9424997 -12.1500012 134.1058496   9.7601394 -11.5554700
 144.1820012  18.0104997 -10.6790012 144.8020012  17.3334997 -10.9530012
 143.9740012  17.7924997  -9.7710012 144.2386904  17.8883870 -10.5936635
 141.7540012  12.3994997  -8.7870012 142.0580012  11.7134997  -9.3820012
 142.4750012  12.5174997  -8.1690012 141.8930671  12.3216305  -8.7848184
 144.8950012   6.7934997  -8.4590012 145.0370012   5.8474997  -8.4390012
 144.7880012   7.0004997  -9.3880012 144.8999863   6.6919534  -8.5817661
 138.0490012   4.8944997 -11.1870012 138.0930012   5.7544997 -11.6050012
 137.5920012   4.3424997 -11.8210012 137.9932185   4.9375799 -11.3299701
 134.6700012   7.2914997 -10.4250012 135.3230012   6.7414997  -9.9930012
 134.6940012   7.0174997 -11.3420012 134.7626683   7.1791466 -10.4897877
 139.8260012   8.8414997 -11.2100012 140.4420012   8.3154997 -10.7000012
 139.2400012   8.2014997 -11.6130012 139.8310810   8.6829208 -11.1946827
 136.8600012   3.8124997  -7.1130012 136.6410012   4.3424997  -7.8790012
 136.1920012   4.0394997  -6.4660012 136.7397600   3.9156906  -7.1303621
 144.2290012  13.3124997 -13.5690012 143.9330012  12.9904997 -14.4200012
 143.9040012  14.2124997 -13.5280012 144.1446371  13.3900215 -13.6798199
 139.4290012  11.4884997  -6.8260012 138.6890012  12.0864997  -6.7220012
 140.1430012  12.0424997  -7.1410012 139.4242237  11.6452831  -6.8543535
 136.4530012   5.7044997  -9.1610012 137.0670012   6.3374997  -8.7870012
 136.9650012   5.2324997  -9.8170012 136.6062296   5.7272370  -9.1985748
 137.8360012  13.4524997  -6.0380012 137.8310012  14.3324997  -6.4160012
 136.9830012  13.3694997  -5.6130012 137.7199464  13.5616117  -6.0322093
 133.9570012  13.1234997 -15.2560012 133.6850012  13.3524997 -16.1450012
 134.0030012  13.9614997 -14.7960012 133.9260094  13.2681213 -15.3154303
 140.8860012   1.1184997  -9.6600012 140.7690012   0.1694997  -9.7150012
 140.0310012   1.4504997  -9.3870012 140.7543733   1.0335409  -9.6306103
 143.1530012   9.9554997 -15.1600012 142.4410012  10.4904997 -15.5120012
 143.8440012  10.0114997 -15.8200012 143.1490132  10.0362543 -15.2973711
 143.2060012   8.4134997 -18.1210012 143.9070012   8.4354997 -17.4700012
 143.5090012   7.7854997 -18.7770012 143.3427830   8.3316566 -18.1206289
 138.2040012  10.7954997 -12.3260012 137.8730012  10.4254997 -13.1440012
 138.7920012  10.1254997 -11.9790012 138.2381873  10.6541156 -12.3911898
 139.5700012  14.2234997  -9.6440012 139.4760012  13.6454997 -10.4010012
 140.3000012  13.8524997  -9.1480012 139.6557981  14.0942390  -9.6805835
 138.5700012   9.5644997  -8.6920012 139.1360012   9.6854997  -9.4550012
 138.8890012  10.2014997  -8.0530012 138.6905786   9.6671884  -8.7099960
 144.8790012  15.0674997  -7.9580012 144.6390012  15.7294997  -7.3100012
 144.6810012  14.2334997  -7.5330012 144.8193808  15.0453134  -7.8118476
 139.4500012  13.9634997  -3.9750012 139.1390012  14.7454997  -3.5200012
 138.8000012  13.8104997  -4.6610012 139.3195558  14.0499105  -4.0054129
 136.3700012  10.1614997  -4.7460012 136.4410012  10.8124997  -4.0480012
 135.4800012  10.2644997  -5.0810012 136.2593117  10.2645936  -4.6957300
 143.1560012  16.0644997 -13.0880012 143.6300012  16.3594997 -12.3100012
 142.5930012  16.8024997 -13.3210012 143.1447653  16.2046932 -13.0129864
 137.6900012  16.0354997  -3.2120012 137.6970012  15.8994997  -4.1590012
 136.7740012  15.9174997  -2.9600012 137.5671714  16.0009430  -3.3075334
 137.1940012   9.8654997 -14.7360012 136.9020012  10.6334997 -15.2270012
 136.5200012   9.2054997 -14.8990012 137.0629081   9.8814406 -14.8252660
 133.2870012  12.2284997  -5.9210012 132.7860012  12.2004997  -6.7360012
 133.2920012  11.3224997  -5.6120012 133.2191526  12.1022278  -5.9907128
 133.0370012  15.0084997  -9.0370012 133.9830012  14.8644997  -9.0560012
 132.9250012  15.7924997  -8.5000012 133.1512727  15.0948046  -8.9669928
 142.2140012  15.2484997  -4.4790012 142.3010012  16.0744997  -4.0040012
 141.3500012  14.9184997  -4.2300012 142.1091964  15.3169878  -4.3803451
 142.6280012  19.0204997 -14.6730012 142.5530012  18.8994997 -15.6190012
 142.6610012  19.9704997 -14.5540012 142.6221848  19.1322500 -14.7865166
 136.2810012  17.8094997 -12.8920012 136.4340012  17.4614997 -12.0130012
 135.4310012  17.4534997 -13.1470012 136.1868962  17.7136650 -12.8061660
 135.5360012  13.5514997  -4.8780012 135.7520012  13.1904997  -4.0190012
 134.6810012  13.1774997  -5.0880012 135.4499292  13.4514111  -4.7886614
 138.1550012   2.0214997  -8.8830012 137.2930012   1.9344997  -9.2900012
 138.1320012   2.8774997  -8.4550012 138.0340330   2.1252765  -8.8808137
 142.8180012   1.7434997  -5.5080012 143.2380012   1.3284997  -4.7550012
 141.8850012   1.5654997  -5.3910012 142.7493644   1.6625900  -5.3890461
 142.4790012   4.2364997 -18.2230012 142.2260012   4.2554997 -17.3000012
 142.2230012   3.3644997 -18.5240012 142.4097790   4.1212437 -18.1373737
 138.2460012   6.9874997  -7.7880012 137.6040012   6.9464997  -7.0790012
 138.2830012   7.9134997  -8.0250012 138.1631324   7.1071559  -7.7230176
 138.2430012   7.2084997 -12.8760012 137.3500012   6.8674997 -12.9340012
 138.6930012   6.8314997 -13.6310012 138.1817305   7.1108484 -12.9860823
 143.7780012   7.6244997 -14.0590012 143.3690012   8.4394997 -14.3500012
 144.4990012   7.4844997 -14.6730012 143.8194537   7.7172018 -14.1818658
 142.8800012   7.7994997  -2.5710012 142.3180012   7.0954997  -2.2500012
 143.7070012   7.6794997  -2.1030012 142.9147095   7.6867883  -2.4637670
 144.7830012   7.0704997 -11.2450012 144.5880012   7.6754997 -11.9600012
 144.9640012   6.2364997 -11.6790012 144.7807614   7.0406300 -11.4015595
 135.9960012   7.3074997  -5.9210012 135.9580012   7.7074997  -5.0520012
 135.5050012   6.4904997  -5.8300012 135.9244684   7.2518069  -5.7898941
 139.3620012   4.6814997 -19.1220012 138.9310012   4.2364997 -18.3920012
 138.6440012   5.0534997 -19.6340012 139.2059438   4.6708940 -19.0913201
 132.6040012   4.4234997 -12.0700012 133.2350012   4.3944997 -11.3510012
 133.0530012   3.9984997 -12.8000012 132.7510774   4.3620492 -12.0703447
 133.8780012   5.1694997 -16.6460012 134.3520012   5.7604997 -17.2310012
 133.1610012   5.7004997 -16.2990012 133.8459341   5.3220867 -16.6791164
 144.0470012   8.7084997  -6.5730012 144.3700012   8.0774997  -7.2160012
 143.6070012   8.1734997  -5.9130012 144.0316895   8.5498441  -6.5717150
 140.8240012   4.6354997 -11.7890012 139.9130012   4.6924997 -11.5010012
 141.3300012   4.5754997 -10.9790012 140.7675413   4.6351985 -11.6399378
 135.6530012   6.2644997 -12.9630012 134.7630012   6.3644997 -13.3030012
 135.9490012   5.4224997 -13.3090012 135.5712823   6.1643545 -13.0562787
 139.3060012   6.2644997 -15.3060012 140.2370012   6.3934997 -15.1280012
 139.0910012   6.9344997 -15.9560012 139.4044247   6.3726565 -15.3694253
 137.9800012   7.4594997 -17.7390012 137.4370012   7.0794997 -18.4310012
 138.8130012   7.6534997 -18.1680012 138.0184399   7.4338124 -17.8915474
 136.1150012  12.0164997  -2.6400012 136.8470012  12.2704997  -2.0790012
 135.3350012  12.2204997  -2.1250012 136.1098232  12.0789177  -2.4934240
 142.1440012   7.4234997  -9.9020012 142.7090012   6.8764997 -10.4490012
 141.9970012   6.9014997  -9.1140012 142.2012918   7.2782024  -9.8701546
 137.1460012   3.5594997 -13.4840012 136.8290012   2.6574997 -13.5190012
 137.9280012   3.5614997 -14.0370012 137.2082284   3.4361628 -13.5635217
 140.7710012   5.8114997  -7.4880012 139.9350012   6.2654997  -7.3780012
 141.2950012   6.0874997  -6.7360012 140.7274414   5.9109376  -7.3712864
 141.3150012  12.0244997 -15.8040012 140.5700012  11.5174997 -16.1260012
 141.1810012  12.0734997 -14.8570012 141.1948776  11.9616940 -15.7201353
 142.8340012  12.2084997  -4.5670012 142.4890012  11.8274997  -3.7600012
 142.6340012  13.1424997  -4.4950012 142.7598061  12.2825228  -4.4469039
 136.4400012  11.3194997 -10.0340012 137.1850012  11.3174997 -10.6350012
 136.5180012  10.4964997  -9.5520012 136.5525518  11.2079315 -10.0511071
 143.4410012  13.4834997 -16.7780012 143.1450012  14.3094997 -16.3970012
 142.7380012  12.8634997 -16.5820012 143.3054914  13.5128199 -16.6993557
 133.4480012   9.7804997  -4.7190012 133.6710012   9.3624997  -3.8870012
 132.8460012   9.1674997  -5.1420012 133.3971759   9.6404668  -4.6622978
 140.4640012   9.2974997  -2.5060012 140.1680012   9.1314997  -3.4010012
 141.3960012   9.0774997  -2.5170012 140.5494166   9.2450640  -2.6299464
 138.8150012  14.8374997 -12.6300012 139.3420012  15.6104997 -12.8300012
 137.9350012  15.0624997 -12.9310012 138.7681773  14.9738005 -12.6980990
 134.5700012   9.6994997 -18.0430012 135.1860012  10.3264997 -17.6630012
 133.7080012  10.0154997 -17.7710012 134.5377698   9.8279430 -17.9542817
 140.2420012  12.5004997 -13.0530012 140.0010012  13.4254997 -13.0120012
 139.5010012  12.0414997 -12.6570012 140.1088409  12.5651421 -12.9938623
 140.7570012  16.6494997  -6.7380012 141.1190012  17.5044997  -6.9720012
 141.2880012  16.3574997  -5.9980012 140.8784473  16.7271060  -6.6699145
 138.9250012  17.5224997 -13.5080012 137.9750012  17.6274997 -13.4570012
 139.2770012  18.3424997 -13.1630012 138.8424203  17.6478314 -13.4543350
 144.3010012  12.7484997  -7.0380012 143.8750012  12.5214997  -6.2110012
 144.8810012  12.0104997  -7.2200012 144.3211868  12.6175299  -6.9494170
 135.0820012   4.5334997  -5.1610012 134.1890012   4.8724997  -5.2290012
 134.9830012   3.6784997  -4.7430012 134.9464164   4.4642588  -5.1137765
 134.7330012  16.3384997  -6.7260012 134.9500012  15.4064997  -6.7570012
 134.9790012  16.6124997  -5.8430012 134.7959549  16.2480636  -6.6108237
 140.5950012  14.7894997 -19.5170012 140.8340012  14.0414997 -20.0640012
 140.3260012  14.4014997 -18.6840012 140.5913675  14.6346638 -19.4793135
 139.5320012  14.3594997 -17.0600012 139.6780012  13.8394997 -16.2700012
 139.5290012  15.2664997 -16.7540012 139.5515989  14.4108853 -16.9103912
 135.9850012  11.6124997 -16.5500012 135.2990012  11.9644997 -15.9830012
 136.5070012  12.3754997 -16.7970012 135.9616852  11.7638578 -16.5057882
 143.8160012   4.2744997  -6.2710012 144.5150012   4.3484997  -5.6210012
 143.4350012   3.4104997  -6.1170012 143.8601767   4.1677624  -6.1611678
 144.6010012   3.9264997 -15.1740012 144.8210012   4.3984997 -15.9770012
 145.1590012   4.3214997 -14.5040012 144.7064968   4.0444285 -15.1932669
 142.2690012  16.0574997 -16.3110012 141.4530012  16.5544997 -16.2590012
 142.7990012  16.5324997 -16.9510012 142.2289161  16.1897722 -16.3904044
 141.8010012   5.6544997 -14.3390012 142.6130012   6.1594997 -14.2930012
 141.5560012   5.5094997 -13.4250012 141.8790520   5.7040375 -14.2091483
 142.3360012   6.6404997  -5.1540012 142.4550012   7.2144997  -4.3970012
 142.9920012   5.9524997  -5.0400012 142.4409757   6.6261079  -5.0349175
 142.6840012   2.7354997 -13.4010012 142.3380012   3.3534997 -12.7560012
 143.3430012   3.2364997 -13.8820012 142.7257826   2.8875802 -13.3779029
 139.6080012  17.1014997 -16.3290012 139.7680012  17.9004997 -16.8300012
 139.4100012  17.4074997 -15.4440012 139.6031649  17.2524469 -16.2780185
 138.3420012   3.7984997 -16.7140012 138.2590012   4.6874997 -16.3670012
 139.2320012   3.5334997 -16.4820012 138.4509469   3.8841430 -16.6352374
 136.6010012  14.2264997 -17.6530012 137.1930012  14.9254997 -17.3770012
 137.0600012  13.7934997 -18.3730012 136.7441142  14.2637049 -17.7125170
 134.9170012   6.8904997 -18.5370012 134.8720012   7.8294997 -18.3590012
 134.0290012   6.6544997 -18.8070012 134.7908574   6.9871892 -18.5491088
 135.7250012   1.6724997  -9.8640012 135.4960012   1.7314997 -10.7920012
 135.2820012   0.8804997  -9.5580012 135.6338530   1.5735753  -9.9495214
 134.6550012  15.6124997 -13.7040012 133.8230012  16.0854997 -13.6760012
 135.2010012  16.1224997 -14.3020012 134.6149739  15.7461871 -13.7810284
 133.9430012  18.2254997  -2.3740012 134.4840012  18.0084997  -1.6140012
 133.4620012  17.4194997  -2.5630012 133.9519345  18.0869514  -2.2956924
 138.5410012  17.1444997  -0.7530012 139.3080012  16.6854997  -0.4120012
 138.5190012  16.9184997  -1.6830012 138.6431434  17.0510409  -0.8319957
 142.6330012  16.6524997 -19.3780012 141.9890012  16.0214997 -19.0570012
 143.3950012  16.1214997 -19.6100012 142.6478077  16.4942920 -19.3653989
 133.8500012  12.0354997  -1.4190012 133.9940012  11.1334997  -1.7060012
 133.0780012  12.3214997  -1.9070012 133.7653322  11.9508261  -1.5242119
 138.1920012  12.3794997 -19.2870012 138.2560012  11.5854997 -18.7560012
 138.8450012  12.2604997 -19.9770012 138.2890241  12.2547148 -19.3075683
 140.5060012  12.0054997  -1.9870012 140.1770012  12.2764997  -2.8440012
 140.6580012  11.0644997  -2.0740012 140.4814809  11.9153862  -2.1161756
 134.6830012   9.2354997  -1.9990012 135.0910012   8.3784997  -2.1200012
 134.4230012   9.2504997  -1.0780012 134.7037568   9.1200807  -1.8910412
 139.3410012  10.3514997 -16.9810012 138.8810012   9.8674997 -16.2950012
 139.5960012   9.6834997 -17.6170012 139.3124902  10.1948731 -16.9730666
 138.6300012   8.2444997  -4.6250012 138.0120012   8.9194997  -4.3450012
 138.9740012   8.5654997  -5.4580012 138.5919615   8.3802721  -4.6993419
 140.4120012   8.5944997 -18.7190012 140.2320012   8.4404997 -19.6460012
 141.3620012   8.7024997 -18.6740012 140.5157776   8.5880175 -18.8398157
 143.6500012  10.7164997  -1.3480012 144.6030012  10.7994997  -1.3750012
 143.4890012  10.0044997  -0.7280012 143.7586426  10.6316746  -1.2679421
 138.9690012   5.5994997  -3.5430012 139.1190012   4.8704997  -4.1450012
 138.9720012   6.3764997  -4.1020012 138.9899302   5.6047851  -3.7009308
 139.3820012   3.9694997  -6.0500012 139.9180012   4.4204997  -6.7020012
 138.5300012   3.8614997  -6.4730012 139.3402178   4.0166390  -6.1964244
 140.9640012   9.4084997  -5.8110012 141.7140012   9.2524997  -6.3840012
 140.6250012  10.2604997  -6.0860012 141.0208921   9.5022968  -5.9266439
 137.4480012   6.7974997  -1.6310012 136.6810012   6.2654997  -1.8410012
 138.1270012   6.4874997  -2.2310012 137.4347022   6.6827506  -1.7408352
 140.1880012   1.4254997  -5.6190012 140.0890012   2.3724997  -5.7240012
 139.4450012   1.0534997  -6.0940012 140.0740564   1.5045902  -5.6975440
 141.4520012   5.7474997  -2.0550012 141.2160012   5.5274997  -1.1530012
 140.6680012   5.5404997  -2.5650012 141.3138628   5.6894760  -2.0006068
 144.1670012   4.8744997  -2.9790012 143.2200012   4.9064997  -2.8470012
 144.4800012   4.2494997  -2.3260012 144.0795475   4.7943207  -2.8725545
 135.6280012   4.7184997  -1.9270012 135.8400012   4.0114997  -2.5370012
 135.5170012   4.2804997  -1.0830012 135.6419721   4.5627084  -1.8963157
 140.4090012   0.7194997  -2.9470012 141.1210012   0.0794997  -2.9610012
 140.3080012   0.9864997  -3.8610012 140.4927939   0.6679938  -3.0724350
 140.7630012   2.4024997  -0.8940012 140.6310012   1.9264997  -1.7140012
 140.1640012   3.1464997  -0.9490012 140.6639071   2.4379618  -1.0137114
 140.3090012  19.2854997 -17.7170012 141.2420012  19.4434997 -17.5740012
 140.0450012  19.9604997 -18.3420012 140.4009510  19.3983611 -17.7819259
 133.8780012  13.9214997 -18.2350012 134.7920012  14.0004997 -17.9610012
 133.8850012  13.2344997 -18.9010012 134.0041131  13.8393961 -18.2875607
 132.5270012  19.3144997 -13.1570012 131.8800012  18.8524997 -13.6900012
 132.8810012  18.6424997 -12.5750012 132.4863849  19.1604723 -13.1512041
 133.3970012  17.3954997 -11.3530012 133.0620012  16.5154997 -11.1810012
 133.6190012  17.7404997 -10.4880012 133.3811783  17.3217500 -11.2125792
 133.4770012  10.4704997  -8.9010012 133.6610012  10.3884997  -9.8370012
 134.3260012  10.3464997  -8.4770012 133.6170139  10.4425003  -8.9718545
 133.0740012   5.7414997  -2.7600012 133.9940012   5.6194997  -2.5240012
 132.6250012   4.9914997  -2.3710012 133.1391580   5.6233727  -2.6750994
 134.2950012   4.0534997  -9.8690012 134.7410012   3.2614997  -9.5670012
 134.7620012   4.7694997  -9.4380012 134.4190172   4.0420624  -9.7695180
 132.5990012   7.0524997  -8.8000012 133.0910012   6.8314997  -9.5910012
 132.9620012   7.8934997  -8.5190012 132.7153126   7.1358357  -8.8702469
 132.9130012   3.3104997 -14.7460012 131.9880012   3.5194997 -14.8750012
 133.3670012   3.7944997 -15.4350012 132.8477368   3.4045993 -14.8568774
 132.8770012   2.0484997  -6.4010012 132.2120012   1.8024997  -5.7580012
 132.4340012   2.6704997  -6.9790012 132.7260956   2.0988632  -6.3910648
 135.0690012  15.2234997  -2.2570012 134.2480012  15.3984997  -2.7170012
 134.8160012  15.1504997  -1.3360012 134.9226164  15.2375622  -2.1955077
 138.0230012  16.1984997  -5.9980012 137.5980012  17.0074997  -6.2810012
 138.9270012  16.2834997  -6.3000012 138.0870271  16.3208469  -6.0776224
 142.3340012  17.5974997  -3.0390012 142.5190012  17.2634997  -2.1610012
 143.1800012  17.9064997  -3.3610012 142.4737539  17.5936047  -2.9624395
 144.6790012  18.8834997  -3.7950012 145.3560012  18.2504997  -4.0350012
 145.0010012  19.2844997  -2.9880012 144.8151637  18.8511154  -3.7187207
 135.4250012  19.4544997  -5.9510012 134.7040012  19.8944997  -6.4020012
 135.0590012  19.2034997  -5.1020012 135.2769804  19.4807698  -5.8980160
 137.8920012  19.0544997  -6.9210012 137.0270012  19.1264997  -6.5170012
 137.8370012  19.6014997  -7.7050012 137.7662085  19.1382685  -6.9716638
 142.6020012  18.9424997  -7.7460012 142.1460012  19.4714997  -8.4000012
 142.7650012  19.5454997  -7.0200012 142.5615585  19.0964468  -7.7374938
 134.8390012  18.0774997  -9.0410012 134.8210012  17.6524997  -8.1830012
 135.6440012  17.7594997  -9.4490012 134.9453875  17.9763812  -8.9788345
 136.9810012  16.7874997 -10.3860012 136.7620012  15.8714997 -10.2160012
 137.8050012  16.9274997  -9.9200012 137.0624420  16.6810520 -10.2997226
 139.5180012  17.2574997  -9.5370012 139.7310012  16.3694997  -9.8240012
 139.5820012  17.2234997  -8.5830012 139.5558231  17.1313102  -9.4472603
 143.0260012   2.9214997 -10.3930012 142.3520012   2.2924997 -10.1370012
 143.5900012   2.4374997 -10.9960012 143.0099230   2.7698744 -10.4394660
 135.3530012   1.5554997 -12.5710012 134.5760012   1.3214997 -13.0780012
 135.8830012   0.7584997 -12.5620012 135.3182330   1.4156988 -12.6392258
 134.1890012   1.3534997 -16.7670012 134.6280012   1.9644997 -17.3590012
 133.5560012   1.8914997 -16.2930012 134.1634514   1.5099257 -16.7839070
 139.9320012   1.4824997 -12.7570012 140.8070012   1.8704997 -12.7870012
 139.7960012   1.2674997 -11.8350012 140.0333695   1.5065184 -12.6363560
 134.0900012  17.3014997 -15.8690012 133.4050012  17.2634997 -16.5370012
 134.0940012  18.2144997 -15.5810012 133.9968193  17.4197016 -15.9214716
 136.0500012   3.2694997 -18.3250012 136.5420012   2.6394997 -18.8520012
 136.6740012   3.5654997 -17.6610012 136.2015446   3.2233199 -18.3074020
 141.0760012   3.5624997 -15.8680012 141.2540012   2.9164997 -15.1850012
 141.0230012   4.3964997 -15.4000012 141.0931829   3.5867985 -15.7114060
 142.9550012  18.5114997 -17.4720012 143.8210012  18.8774997 -17.6500012
 142.7080012  18.0714997 -18.2860012 143.0402392  18.5021756 -17.6063711
 135.3110012   2.0694997  -3.0530012 134.9450012   1.3044997  -2.6100012
 136.2240012   2.0984997  -2.7660012 135.3842790   1.9687224  -2.9535930
 137.2840012   1.4204997  -1.5170012 138.1820012   1.1464997  -1.7020012
 136.8970012   0.6774997  -1.0530012 137.3546612   1.2825914  -1.4796357
 135.9080012  18.2214997 -18.8440012 135.6410012  18.5084997 -17.9710012
 136.6800012  17.6754997 -18.6920012 135.9757488  18.1870294 -18.7038950
  12.4390012  29.5674997 -12.6120012  12.5280012  30.5114997 -12.7440012
  11.8010012  29.2924997 -13.2700012  12.3649081  29.6594830 -12.7190386
  11.3720012  28.8224997  -9.1930012  11.3340012  28.1764997  -8.4880012
  11.0500012  28.3564997  -9.9640012  11.3232333  28.6709408  -9.2007022
   3.7410012  28.4374997  -7.6000012   3.7820012  27.8114997  -6.8770012
   4.4440012  29.0614997  -7.4180012   3.8416363  28.4361196  -7.4763956
  15.0780012  31.7614997 -10.8920012  14.6380012  31.0414997 -10.4410012
  15.0650012  32.4824997 -10.2620012  15.0160226  31.7603731 -10.7451506
   4.6640012  32.8874997  -9.0650012   4.2950012  32.0854997  -9.4350012
   5.6050012  32.7184997  -9.0190012   4.7407289  32.7550153  -9.1093684
   1.2740012  26.5474997 -13.6720012   0.8270012  27.3934997 -13.6910012
   0.7130012  25.9674997 -14.1880012   1.1369900  26.5849916 -13.7443199
   1.9850012  28.7094997 -11.5460012   2.1980012  27.9394997 -11.0190012
   2.7230012  28.7984997 -12.1500012   2.1138496  28.6161394 -11.5554700
  12.1900012  36.8664997 -10.6790012  12.8100012  36.1894997 -10.9530012
  11.9820012  36.6484997  -9.7710012  12.2466904  36.7443870 -10.5936635
   9.7620012  31.2554997  -8.7870012  10.0660012  30.5694997  -9.3820012
  10.4830012  31.3734997  -8.1690012   9.9010671  31.1776305  -8.7848184
  18.4250012  22.8564997  -7.9260012  18.4740012  23.4664997  -7.1900012
  18.8500012  23.3174997  -8.6490012  18.4891824  23.0023741  -7.9229795
  12.9030012  25.6494997  -8.4590012  13.0450012  24.7034997  -8.4390012
  12.7960012  25.8564997  -9.3880012  12.9079864  25.5479534  -8.5817661
   6.0570012  23.7504997 -11.1870012   6.1010012  24.6104997 -11.6050012
   5.6000012  23.1984997 -11.8210012   6.0012185  23.7935799 -11.3299701
  13.7800012  23.8814997 -12.7860012  14.4260012  23.5524997 -12.1610012
  14.2900012  24.3994997 -13.4090012  13.9374264  23.9064611 -12.7846138
   2.6780012  26.1474997 -10.4250012   3.3310012  25.5974997  -9.9930012
   2.7020012  25.8734997 -11.3420012   2.7706683  26.0351466 -10.4897877
   7.8340012  27.6974997 -11.2100012   8.4500012  27.1714997 -10.7000012
   7.2480012  27.0574997 -11.6130012   7.8390810  27.5389208 -11.1946827
  18.8160012  24.3344997  -5.6900012  18.1280012  24.9924997  -5.7860012
  18.8320012  24.1374997  -4.7540012  18.7238525  24.3980462  -5.5765192
   4.8680012  22.6684997  -7.1130012   4.6490012  23.1984997  -7.8790012
   4.2000012  22.8954997  -6.4660012   4.7477600  22.7716906  -7.1303621
  12.2370012  32.1684997 -13.5690012  11.9410012  31.8464997 -14.4200012
  11.9120012  33.0684997 -13.5280012  12.1526371  32.2460215 -13.6798199
   7.4370012  30.3444997  -6.8260012   6.6970012  30.9424997  -6.7220012
   8.1510012  30.8984997  -7.1410012   7.4322237  30.5012831  -6.8543535
  15.5440012  23.1724997 -10.8060012  15.3280012  22.4064997 -10.2730012
  16.1990012  23.6444997 -10.2930012  15.6030632  23.1315889 -10.6637139
   4.4610012  24.5604997  -9.1610012   5.0750012  25.1934997  -8.7870012
   4.9730012  24.0884997  -9.8170012   4.6142296  24.5832370  -9.1985748
   5.8440012  32.3084997  -6.0380012   5.8390012  33.1884997  -6.4160012
   4.9910012  32.2254997  -5.6130012   5.7279464  32.4176117  -6.0322093
   1.9650012  31.9794997 -15.2560012   1.6930012  32.2084997 -16.1450012
   2.0110012  32.8174997 -14.7960012   1.9340094  32.1241213 -15.3154303
  15.5900012  33.6014997  -8.5440012  14.6490012  33.6594997  -8.3820012
  15.8670012  34.5074997  -8.6810012  15.4984679  33.7319443  -8.5403185
  15.8910012  21.8874997  -7.1260012  15.1550012  22.4984997  -7.1640012
  16.5740012  22.3024997  -7.6530012  15.8826541  22.0271374  -7.2024168
   8.8940012  19.9744997  -9.6600012   8.7770012  19.0254997  -9.7150012
   8.0390012  20.3064997  -9.3870012   8.7623733  19.8895409  -9.6306103
  13.8420012  35.3824997 -11.9180012  14.2680012  34.6754997 -12.4030012
  14.1590012  36.1834997 -12.3350012  13.9431019  35.3940994 -12.0406870
  15.0020012  33.2834997 -13.4100012  14.7440012  32.5934997 -14.0210012
  15.0730012  32.8404997 -12.5640012  14.9762856  33.1292124 -13.3793115
  16.6880012  31.8494997  -4.9320012  16.8280012  31.2584997  -5.6720012
  16.8550012  32.7224997  -5.2890012  16.7296778  31.8866426  -5.0813035
  11.1610012  28.8114997 -15.1600012  10.4490012  29.3464997 -15.5120012
  11.8520012  28.8674997 -15.8200012  11.1570132  28.8922543 -15.2973711
  11.2140012  27.2694997 -18.1210012  11.9150012  27.2914997 -17.4700012
  11.5170012  26.6414997 -18.7770012  11.3507830  27.1876566 -18.1206289
  18.5300012  28.1894997  -6.8660012  17.8770012  28.8844997  -6.7770012
  18.9950012  28.3994997  -7.6760012  18.5035390  28.3129425  -6.9633117
  14.5660012  29.0214997 -14.2080012  13.8340012  29.2494997 -13.6350012
  15.0140012  28.3074997 -13.7530012  14.5263095  28.9562571 -14.0680881
  14.4640012  27.1954997  -5.1410012  14.5440012  27.9584997  -4.5690012
  13.8620012  27.4744997  -5.8310012  14.3935756  27.3377134  -5.1559411
   6.2120012  29.6514997 -12.3260012   5.8810012  29.2814997 -13.1440012
   6.8000012  28.9814997 -11.9790012   6.2461873  29.5101156 -12.3911898
   7.5780012  33.0794997  -9.6440012   7.4840012  32.5014997 -10.4010012
   8.3080012  32.7084997  -9.1480012   7.6637981  32.9502390  -9.6805835
   6.5780012  28.4204997  -8.6920012   7.1440012  28.5414997  -9.4550012
   6.8970012  29.0574997  -8.0530012   6.6985786  28.5231884  -8.7099960
  12.8870012  33.9234997  -7.9580012  12.6470012  34.5854997  -7.3100012
  12.6890012  33.0894997  -7.5330012  12.8273808  33.9013134  -7.8118476
   7.4580012  32.8194997  -3.9750012   7.1470012  33.6014997  -3.5200012
   6.8080012  32.6664997  -4.6610012   7.3275558  32.9059105  -4.0054129
  13.4370012  28.1834997 -16.5230012  14.0170012  28.3334997 -15.7760012
  13.8510012  28.6544997 -17.2460012  13.5722830  28.2676841 -16.5185866
   4.3780012  29.0174997  -4.7460012   4.4490012  29.6684997  -4.0480012
   3.4880012  29.1204997  -5.0810012   4.2673117  29.1205936  -4.6957300
  11.1640012  34.9204997 -13.0880012  11.6380012  35.2154997 -12.3100012
  10.6010012  35.6584997 -13.3210012  11.1527653  35.0606932 -13.0129864
   5.6980012  34.8914997  -3.2120012   5.7050012  34.7554997  -4.1590012
   4.7820012  34.7734997  -2.9600012   5.5751714  34.8569430  -3.3075334
  17.1360012  19.9334997 -16.7100012  16.2360012  20.0724997 -16.4150012
  17.3880012  20.7644997 -17.1120012  17.0468702  20.0649074 -16.7239795
   5.2020012  28.7214997 -14.7360012   4.9100012  29.4894997 -15.2270012
   4.5280012  28.0614997 -14.8990012   5.0709081  28.7374406 -14.8252660
  18.3250012  34.2994997 -18.3340012  18.3990012  35.2384997 -18.1630012
  19.2310012  33.9944997 -18.3900012  18.4575100  34.3866722 -18.3181881
   1.2950012  31.0844997  -5.9210012   0.7940012  31.0564997  -6.7360012
   1.3000012  30.1784997  -5.6120012   1.2271526  30.9582278  -5.9907128
   1.0450012  33.8644997  -9.0370012   1.9910012  33.7204997  -9.0560012
   0.9330012  34.6484997  -8.5000012   1.1592727  33.9508046  -8.9669928
  19.2430012  34.5304997  -3.3550012  19.1940012  33.5754997  -3.3920012
  18.4160012  34.7984997  -2.9540012  19.1244940  34.4358998  -3.3058625
  10.2220012  34.1044997  -4.4790012  10.3090012  34.9304997  -4.0040012
   9.3580012  33.7744997  -4.2300012  10.1171964  34.1729878  -4.3803451
  10.6360012  37.8764997 -14.6730012  10.5610012  37.7554997 -15.6190012
  10.6690012  38.8264997 -14.5540012  10.6301848  37.9882500 -14.7865166
   4.2890012  36.6654997 -12.8920012   4.4420012  36.3174997 -12.0130012
   3.4390012  36.3094997 -13.1470012   4.1948962  36.5696650 -12.8061660
  13.7380012  37.0304997 -17.6710012  14.1130012  36.2864997 -18.1410012
  13.7420012  36.7604997 -16.7520012  13.7898915  36.8921486 -17.6112176
  13.4070012  36.9564997 -14.9210012  12.4710012  37.0564997 -14.7430012
  13.6870012  36.2474997 -14.3430012  13.3168255  36.8742711 -14.8184609
  16.3950012  26.0234997  -2.8750012  15.9880012  26.5044997  -3.5960012
  16.4360012  25.1184997  -3.1830012  16.3448437  25.9669374  -3.0153317
   3.5440012  32.4074997  -4.8780012   3.7600012  32.0464997  -4.0190012
   2.6890012  32.0334997  -5.0880012   3.4579292  32.3074111  -4.7886614
   6.1630012  20.8774997  -8.8830012   5.3010012  20.7904997  -9.2900012
   6.1400012  21.7334997  -8.4550012   6.0420330  20.9812765  -8.8808137
  10.8260012  20.5994997  -5.5080012  11.2460012  20.1844997  -4.7550012
   9.8930012  20.4214997  -5.3910012  10.7573644  20.5185900  -5.3890461
  14.1520012  24.3554997  -4.6550012  13.6380012  24.2294997  -3.8570012
  13.9970012  25.2674997  -4.8990012  14.0606852  24.4616132  -4.5787842
  14.9150012  29.2164997 -18.8930012  14.9570012  28.9934997 -19.8230012
  15.7640012  29.6154997 -18.7030012  15.0355396  29.2399155 -18.9946373
  10.4870012  23.0924997 -18.2230012  10.2340012  23.1114997 -17.3000012
  10.2310012  22.2204997 -18.5240012  10.4177790  22.9772437 -18.1373737
   6.2540012  25.8434997  -7.7880012   5.6120012  25.8024997  -7.0790012
   6.2910012  26.7694997  -8.0250012   6.1711324  25.9631559  -7.7230176
   6.2510012  26.0644997 -12.8760012   5.3580012  25.7234997 -12.9340012
   6.7010012  25.6874997 -13.6310012   6.1897305  25.9668484 -12.9860823
  11.7860012  26.4804997 -14.0590012  11.3770012  27.2954997 -14.3500012
  12.5070012  26.3404997 -14.6730012  11.8274537  26.5732018 -14.1818658
  10.8880012  26.6554997  -2.5710012  10.3260012  25.9514997  -2.2500012
  11.7150012  26.5354997  -2.1030012  10.9227095  26.5427883  -2.4637670
  12.7910012  25.9264997 -11.2450012  12.5960012  26.5314997 -11.9600012
  12.9720012  25.0924997 -11.6790012  12.7887614  25.8966300 -11.4015595
   4.0040012  26.1634997  -5.9210012   3.9660012  26.5634997  -5.0520012
   3.5130012  25.3464997  -5.8300012   3.9324684  26.1078069  -5.7898941
   7.3700012  23.5374997 -19.1220012   6.9390012  23.0924997 -18.3920012
   6.6520012  23.9094997 -19.6340012   7.2139438  23.5268940 -19.0913201
   0.6120012  23.2794997 -12.0700012   1.2430012  23.2504997 -11.3510012
   1.0610012  22.8544997 -12.8000012   0.7590774  23.2180492 -12.0703447
   1.8860012  24.0254997 -16.6460012   2.3600012  24.6164997 -17.2310012
   1.1690012  24.5564997 -16.2990012   1.8539341  24.1780867 -16.6791164
  12.0550012  27.5644997  -6.5730012  12.3780012  26.9334997  -7.2160012
  11.6150012  27.0294997  -5.9130012  12.0396895  27.4058441  -6.5717150
   8.8320012  23.4914997 -11.7890012   7.9210012  23.5484997 -11.5010012
   9.3380012  23.4314997 -10.9790012   8.7755413  23.4911985 -11.6399378
   3.6610012  25.1204997 -12.9630012   2.7710012  25.2204997 -13.3030012
   3.9570012  24.2784997 -13.3090012   3.5792823  25.0203545 -13.0562787
   7.3140012  25.1204997 -15.3060012   8.2450012  25.2494997 -15.1280012
   7.0990012  25.7904997 -15.9560012   7.4124247  25.2286565 -15.3694253
  13.2370012  22.7264997  -8.5250012  12.5610012  22.8574997  -7.8610012
  12.7520012  22.5714997  -9.3350012  13.0787145  22.7234905  -8.5435483
   5.9880012  26.3154997 -17.7390012   5.4450012  25.9354997 -18.4310012
   6.8210012  26.5094997 -18.1680012   6.0264399  26.2898124 -17.8915474
  16.5250012  38.3984997  -2.2480012  16.7250012  38.8224997  -3.0830012
  17.1800012  38.7414997  -1.6410012  16.6410051  38.5029648  -2.2802164
   4.1230012  30.8724997  -2.6400012   4.8550012  31.1264997  -2.0790012
   3.3430012  31.0764997  -2.1250012   4.1178232  30.9349177  -2.4934240
  10.1520012  26.2794997  -9.9020012  10.7170012  25.7324997 -10.4490012
  10.0050012  25.7574997  -9.1140012  10.2092918  26.1342024  -9.8701546
   5.1540012  22.4154997 -13.4840012   4.8370012  21.5134997 -13.5190012
   5.9360012  22.4174997 -14.0370012   5.2162284  22.2921628 -13.5635217
   8.7790012  24.6674997  -7.4880012   7.9430012  25.1214997  -7.3780012
   9.3030012  24.9434997  -6.7360012   8.7354414  24.7669376  -7.3712864
   9.3230012  30.8804997 -15.8040012   8.5780012  30.3734997 -16.1260012
   9.1890012  30.9294997 -14.8570012   9.2028776  30.8176940 -15.7201353
  16.4730012  30.0134997  -7.0170012  17.1150012  30.4704997  -7.5610012
  15.6430012  30.1264997  -7.4800012  16.4485963  30.0912704  -7.1539823
  13.2210012  23.6944997 -17.6040012  12.2820012  23.8064997 -17.7560012
  13.5180012  24.5514997 -17.2980012  13.1327666  23.8256443 -17.5834232
  10.8420012  31.0644997  -4.5670012  10.4970012  30.6834997  -3.7600012
  10.6420012  31.9984997  -4.4950012  10.7678061  31.1385228  -4.4469039
  13.9390012  25.5614997 -15.9440012  14.8310012  25.4244997 -15.6250012
  13.9960012  26.3524997 -16.4800012  14.0686285  25.6496660 -15.9728310
   4.4480012  30.1754997 -10.0340012   5.1930012  30.1734997 -10.6350012
   4.5260012  29.3524997  -9.5520012   4.5605518  30.0639315 -10.0511071
  11.4490012  32.3394997 -16.7780012  11.1530012  33.1654997 -16.3970012
  10.7460012  31.7194997 -16.5820012  11.3134914  32.3688199 -16.6993557
   1.4560012  28.6364997  -4.7190012   1.6790012  28.2184997  -3.8870012
   0.8540012  28.0234997  -5.1420012   1.4051759  28.4964668  -4.6622978
   8.4720012  28.1534997  -2.5060012   8.1760012  27.9874997  -3.4010012
   9.4040012  27.9334997  -2.5170012   8.5574166  28.1010640  -2.6299464
  13.0930012  33.5264997  -4.6160012  12.1920012  33.7094997  -4.8840012
  13.1270012  33.7854997  -3.6950012  12.9743041  33.5865512  -4.5281803
  18.8240012  25.7714997 -16.2490012  18.2700012  25.3754997 -16.9210012
  18.9240012  26.6814997 -16.5270012  18.7617059  25.8403586 -16.3785599
  18.7870012  31.5714997  -3.4120012  17.9360012  31.8094997  -3.7790012
  19.3780012  31.5544997  -4.1650012  18.7502487  31.6018258  -3.5641107
  17.1190012  34.5574997 -15.7840012  16.7460012  33.7314997 -15.4750012
  17.3970012  34.3744997 -16.6810012  17.1055630  34.4197303 -15.8630374
  14.2800012  29.3654997  -8.7630012  13.3510012  29.1334997  -8.7900012
  14.7310012  28.5884997  -9.0930012  14.2139216  29.2287238  -8.8113083
   6.8230012  33.6934997 -12.6300012   7.3500012  34.4664997 -12.8300012
   5.9430012  33.9184997 -12.9310012   6.7761773  33.8298005 -12.6980990
   2.5780012  28.5554997 -18.0430012   3.1940012  29.1824997 -17.6630012
   1.7160012  28.8714997 -17.7710012   2.5457698  28.6839430 -17.9542817
   8.2500012  31.3564997 -13.0530012   8.0090012  32.2814997 -13.0120012
   7.5090012  30.8974997 -12.6570012   8.1168409  31.4211421 -12.9938623
   8.7650012  35.5054997  -6.7380012   9.1270012  36.3604997  -6.9720012
   9.2960012  35.2134997  -5.9980012   8.8864473  35.5831060  -6.6699145
   6.9330012  36.3784997 -13.5080012   5.9830012  36.4834997 -13.4570012
   7.2850012  37.1984997 -13.1630012   6.8504203  36.5038314 -13.4543350
  12.3090012  31.6044997  -7.0380012  11.8830012  31.3774997  -6.2110012
  12.8890012  30.8664997  -7.2200012  12.3291868  31.4735299  -6.9494170
  14.5120012  32.5334997 -17.9640012  14.8650012  32.1534997 -17.1590012
  13.5630012  32.4404997 -17.8770012  14.4320441  32.4689596 -17.8421441
  14.9670012  36.1564997  -4.5680012  14.3660012  35.6014997  -5.0640012
  15.2490012  36.8234997  -5.1940012  14.9228519  36.1706841  -4.7205048
  19.0150012  37.0134997 -17.7630012  19.7590012  37.5994997 -17.9030012
  18.3210012  37.5814997 -17.4290012  19.0230292  37.1705582 -17.7370039
   3.0900012  23.3894997  -5.1610012   2.1970012  23.7284997  -5.2290012
   2.9910012  22.5344997  -4.7430012   2.9544164  23.3202588  -5.1137765
  15.3780012  31.2064997 -15.7370012  15.1000012  30.4784997 -15.1810012
  16.3050012  31.3254997 -15.5320012  15.4653124  31.1228802 -15.6331155
   2.7410012  35.1944997  -6.7260012   2.9580012  34.2624997  -6.7570012
   2.9870012  35.4684997  -5.8430012   2.8039549  35.1040636  -6.6108237
   8.6030012  33.6454997 -19.5170012   8.8420012  32.8974997 -20.0640012
   8.3340012  33.2574997 -18.6840012   8.5993675  33.4906638 -19.4793135
   7.5400012  33.2154997 -17.0600012   7.6860012  32.6954997 -16.2700012
   7.5370012  34.1224997 -16.7540012   7.5595989  33.2668853 -16.9103912
   3.9930012  30.4684997 -16.5500012   3.3070012  30.8204997 -15.9830012
   4.5150012  31.2314997 -16.7970012   3.9696852  30.6198578 -16.5057882
  11.8240012  23.1304997  -6.2710012  12.5230012  23.2044997  -5.6210012
  11.4430012  22.2664997  -6.1170012  11.8681767  23.0237624  -6.1611678
  12.6090012  22.7824997 -15.1740012  12.8290012  23.2544997 -15.9770012
  13.1670012  23.1774997 -14.5040012  12.7144968  22.9004285 -15.1932669
  10.2770012  34.9134997 -16.3110012   9.4610012  35.4104997 -16.2590012
  10.8070012  35.3884997 -16.9510012  10.2369161  35.0457722 -16.3904044
   9.8090012  24.5104997 -14.3390012  10.6210012  25.0154997 -14.2930012
   9.5640012  24.3654997 -13.4250012   9.8870520  24.5600375 -14.2091483
  10.3440012  25.4964997  -5.1540012  10.4630012  26.0704997  -4.3970012
  11.0000012  24.8084997  -5.0400012  10.4489757  25.4821079  -5.0349175
  10.6920012  21.5914997 -13.4010012  10.3460012  22.2094997 -12.7560012
  11.3510012  22.0924997 -13.8820012  10.7337826  21.7435802 -13.3779029
   7.6160012  35.9574997 -16.3290012   7.7760012  36.7564997 -16.8300012
   7.4180012  36.2634997 -15.4440012   7.6111649  36.1084469 -16.2780185
   6.3500012  22.6544997 -16.7140012   6.2670012  23.5434997 -16.3670012
   7.2400012  22.3894997 -16.4820012   6.4589469  22.7401430 -16.6352374
  16.5490012  23.4034997  -4.3190012  15.6320012  23.6664997  -4.4070012
  16.8840012  23.4004997  -5.2160012  16.4689900  23.4390224  -4.4522081
  15.1510012  27.1544997 -10.2240012  14.3530012  26.7394997 -10.5520012
  15.5960012  26.4634997  -9.7330012  15.1019885  27.0043543 -10.2025111
   4.6090012  33.0824997 -17.6530012   5.2010012  33.7814997 -17.3770012
   5.0680012  32.6494997 -18.3730012   4.7521142  33.1197049 -17.7125170
   2.9250012  25.7464997 -18.5370012   2.8800012  26.6854997 -18.3590012
   2.0370012  25.5104997 -18.8070012   2.7988574  25.8431892 -18.5491088
  16.2370012  36.4104997  -8.6010012  16.0820012  37.0884997  -9.2580012
  17.1700012  36.4824997  -8.3980012  16.3418500  36.5130170  -8.6634881
   3.7330012  20.5284997  -9.8640012   3.5040012  20.5874997 -10.7920012
   3.2900012  19.7364997  -9.5580012   3.6418530  20.4295753  -9.9495214
   2.6630012  34.4684997 -13.7040012   1.8310012  34.9414997 -13.6760012
   3.2090012  34.9784997 -14.3020012   2.6229739  34.6021871 -13.7810284
   1.9510012  37.0814997  -2.3740012   2.4920012  36.8644997  -1.6140012
   1.4700012  36.2754997  -2.5630012   1.9599345  36.9429514  -2.2956924
   6.5490012  36.0004997  -0.7530012   7.3160012  35.5414997  -0.4120012
   6.5270012  35.7744997  -1.6830012   6.6511434  35.9070409  -0.8319957
  10.6410012  35.5084997 -19.3780012   9.9970012  34.8774997 -19.0570012
  11.4030012  34.9774997 -19.6100012  10.6558077  35.3502920 -19.3653989
  13.1260012  34.3804997  -2.0240012  12.7750012  33.5244997  -1.7810012
  13.8520012  34.5234997  -1.4170012  13.1760769  34.2825636  -1.9086381
  15.2450012  35.3254997 -19.1440012  15.5280012  34.5314997 -18.6920012
  15.9850012  35.5584997 -19.7050012  15.3837486  35.2482803 -19.1579302
   1.8580012  30.8914997  -1.4190012   2.0020012  29.9894997  -1.7060012
   1.0860012  31.1774997  -1.9070012   1.7733323  30.8068261  -1.5242119
   6.2000012  31.2354997 -19.2870012   6.2640012  30.4414997 -18.7560012
   6.8530012  31.1164997 -19.9770012   6.2970241  31.1107148 -19.3075683
   8.5140012  30.8614997  -1.9870012   8.1850012  31.1324997  -2.8440012
   8.6660012  29.9204997  -2.0740012   8.4894809  30.7713862  -2.1161756
  14.2480012  30.7774997  -4.6030012  14.9940012  31.3654997  -4.7230012
  13.4910012  31.3594997  -4.5400012  14.2477554  30.9367011  -4.6109093
   2.6910012  28.0914997  -1.9990012   3.0990012  27.2344997  -2.1200012
   2.4310012  28.1064997  -1.0780012   2.7117568  27.9760807  -1.8910412
   7.3490012  29.2074997 -16.9810012   6.8890012  28.7234997 -16.2950012
   7.6040012  28.5394997 -17.6170012   7.3204902  29.0508731 -16.9730666
   6.6380012  27.1004997  -4.6250012   6.0200012  27.7754997  -4.3450012
   6.9820012  27.4214997  -5.4580012   6.5999615  27.2362721  -4.6993419
   8.4200012  27.4504997 -18.7190012   8.2400012  27.2964997 -19.6460012
   9.3700012  27.5584997 -18.6740012   8.5237776  27.4440175 -18.8398157
  11.6580012  29.5724997  -1.3480012  12.6110012  29.6554997  -1.3750012
  11.4970012  28.8604997  -0.7280012  11.7666426  29.4876746  -1.2679421
  17.8100012  29.8054997 -19.2730012  17.5360012  29.3804997 -20.0860012
  17.8490012  30.7364997 -19.4900012  17.7777699  29.8732484 -19.4136390
   6.9770012  24.4554997  -3.5430012   7.1270012  23.7264997  -4.1450012
   6.9800012  25.2324997  -4.1020012   6.9979302  24.4607851  -3.7009308
   7.3900012  22.8254997  -6.0500012   7.9260012  23.2764997  -6.7020012
   6.5380012  22.7174997  -6.4730012   7.3482178  22.8726390  -6.1964244
   8.9720012  28.2644997  -5.8110012   9.7220012  28.1084997  -6.3840012
   8.6330012  29.1164997  -6.0860012   9.0288921  28.3582968  -5.9266439
  13.3870012  26.0794997  -0.7820012  13.5800012  25.1484997  -0.8940012
  14.2450012  26.5044997  -0.7920012  13.5293020  26.0096389  -0.7986639
  14.7040012  28.8684997  -2.7050012  14.4230012  29.5774997  -3.2820012
  15.6470012  28.7954997  -2.8560012  14.7929027  28.9557646  -2.8044449
   5.4560012  25.6534997  -1.6310012   4.6890012  25.1214997  -1.8410012
   6.1350012  25.3434997  -2.2310012   5.4427022  25.5387506  -1.7408352
   8.1960012  20.2814997  -5.6190012   8.0970012  21.2284997  -5.7240012
   7.4530012  19.9094997  -6.0940012   8.0820564  20.3605902  -5.6975440
   9.4600012  24.6034997  -2.0550012   9.2240012  24.3834997  -1.1530012
   8.6760012  24.3964997  -2.5650012   9.3218628  24.5454760  -2.0006068
  12.1750012  23.7304997  -2.9790012  11.2280012  23.7624997  -2.8470012
  12.4880012  23.1054997  -2.3260012  12.0875475  23.6503207  -2.8725545
  13.8090012  22.3644997  -0.9740012  13.7130012  21.4124997  -0.9800012
  13.4880012  22.6334997  -0.1140012  13.7524070  22.2704035  -0.8584559
   3.6360012  23.5744997  -1.9270012   3.8480012  22.8674997  -2.5370012
   3.5250012  23.1364997  -1.0830012   3.6499721  23.4187084  -1.8963157
   8.4170012  19.5754997  -2.9470012   9.1290012  18.9354997  -2.9610012
   8.3160012  19.8424997  -3.8610012   8.5007939  19.5239938  -3.0724350
   8.7710012  21.2584997  -0.8940012   8.6390012  20.7824997  -1.7140012
   8.1720012  22.0024997  -0.9490012   8.6719071  21.2939618  -1.0137114
   8.3170012  38.1414997 -17.7170012   9.2500012  38.2994997 -17.5740012
   8.0530012  38.8164997 -18.3420012   8.4089510  38.2543611 -17.7819259
   1.8860012  32.7774997 -18.2350012   2.8000012  32.8564997 -17.9610012
   1.8930012  32.0904997 -18.9010012   2.0121131  32.6953961 -18.2875607
   0.5350012  38.1704997 -13.1570012  -0.1119988  37.7084997 -13.6900012
   0.8890012  37.4984997 -12.5750012   0.4943849  38.0164723 -13.1512041
   1.4050012  36.2514997 -11.3530012   1.0700012  35.3714997 -11.1810012
   1.6270012  36.5964997 -10.4880012   1.3891783  36.1777500 -11.2125792
  18.9530012  37.0604997  -8.3720012  18.9320012  37.2454997  -7.4330012
  19.6440012  37.6294997  -8.7130012  19.0434618  37.1626606  -8.2896136
  18.5170012  36.6284997  -5.4500012  18.0290012  35.8924997  -5.8210012
  19.0660012  36.2344997  -4.7720012  18.5244872  36.4746249  -5.4090840
  16.9670012  32.4174997  -0.8120012  16.1010012  32.3124997  -0.4180012
  17.3440012  33.1764997  -0.3660012  16.8993308  32.5056900  -0.6977607
  18.2680012  30.6744997 -15.2980012  19.1180012  31.0954997 -15.1710012
  18.2740012  29.9344997 -14.6910012  18.3851372  30.6320803 -15.1985656
  18.6630012  28.7274997 -13.4740012  17.9360012  28.2484997 -13.0770012
  19.2440012  28.9334997 -12.7420012  18.6419375  28.6897090 -13.3205871
  18.4220012  31.5124997  -8.5270012  19.2550012  31.1344997  -8.8070012
  18.5340012  32.4554997  -8.6460012  18.5512647  31.5882218  -8.5814513
  16.9080012  34.3904997  -6.2200012  16.2610012  34.7154997  -5.5940012
  16.3910012  33.9504997  -6.8940012  16.7494029  34.3755004  -6.2254173
  18.9310012  28.6284997 -17.0830012  18.4090012  28.9854997 -17.8020012
  18.8980012  29.3034997 -16.4050012  18.8551634  28.7685413 -17.0896855
  17.2800012  25.8684997 -18.5320012  17.3760012  26.5354997 -19.2130012
  17.1400012  25.0524997 -19.0140012  17.2742135  25.8494500 -18.6901509
  16.4490012  27.2484997 -12.9110012  16.2990012  26.3034997 -12.9320012
  16.0960012  27.5294997 -12.0680012  16.3806625  27.1570441 -12.7997654
   1.4850012  29.3264997  -8.9010012   1.6690012  29.2444997  -9.8370012
   2.3340012  29.2024997  -8.4770012   1.6250139  29.2985003  -8.9718545
  17.3060012  29.2184997  -3.2730012  17.8890012  28.4844997  -3.0810012
  17.8700012  29.9904997  -3.2260012  17.4619769  29.2224227  -3.2403841
  18.8020012  27.1214997  -2.5880012  17.9390012  26.7424997  -2.7540012
  19.4070012  26.3824997  -2.6620012  18.7655979  26.9698023  -2.6207183
  16.5270012  23.2764997 -19.4150012  17.1380012  22.9054997 -18.7780012
  15.6910012  22.8554997 -19.2190012  16.4975032  23.1687554 -19.3012965
  16.1600012  24.8314997 -14.4490012  16.4400012  23.9244997 -14.3250012
  16.9190012  25.2654997 -14.8380012  16.3009277  24.7660942 -14.4846318
  16.7720012  25.4124997  -9.0130012  17.7050012  25.6244997  -9.0470012
  16.5370012  25.5144997  -8.0910012  16.8678036  25.4552769  -8.8930024
  16.8010012  26.1494997  -6.2370012  15.9580012  26.4174997  -5.8710012
  17.2430012  26.9714997  -6.4480012  16.7454158  26.2973291  -6.2154509
   1.0820012  24.5974997  -2.7600012   2.0020012  24.4754997  -2.5240012
   0.6330012  23.8474997  -2.3710012   1.1471580  24.4793727  -2.6750994
  19.0840012  20.1294997  -0.8840012  19.4340012  19.4754997  -1.4890012
  19.2310012  20.9664997  -1.3230012  19.1518419  20.1531591  -1.0262882
  16.7730012  22.0944997 -14.4010012  16.9560012  21.6454997 -13.5750012
  16.1740012  21.5094997 -14.8640012  16.7170202  21.9539975 -14.3506725
   2.3030012  22.9094997  -9.8690012   2.7490012  22.1174997  -9.5670012
   2.7700012  23.6254997  -9.4380012   2.4270172  22.8980624  -9.7695180
   0.6070012  25.9084997  -8.8000012   1.0990012  25.6874997  -9.5910012
   0.9700012  26.7494997  -8.5190012   0.7233126  25.9918357  -8.8702469
  18.6040012  22.2384997  -2.5340012  17.6860012  22.5094997  -2.5700012
  18.7270012  21.7034997  -3.3190012  18.4951066  22.2032892  -2.6449513
  18.6400012  22.1614997 -17.8730012  19.0520012  21.4404997 -18.3480012
  19.3220012  22.8314997 -17.8140012  18.7885885  22.1532368 -17.9301085
   0.9210012  22.1664997 -14.7460012  -0.0039988  22.3754997 -14.8750012
   1.3750012  22.6504997 -15.4350012   0.8557368  22.2605993 -14.8568774
  15.6920012  37.1504997 -12.8000012  16.3440012  36.8034997 -13.4080012
  16.2020012  37.6394997 -12.1540012  15.8502637  37.1690597 -12.7959764
   0.8850012  20.9044997  -6.4010012   0.2200012  20.6584997  -5.7580012
   0.4420012  21.5264997  -6.9790012   0.7340956  20.9548632  -6.3910648
   3.0770012  34.0794997  -2.2570012   2.2560012  34.2544997  -2.7170012
   2.8240012  34.0064997  -1.3360012   2.9306164  34.0935622  -2.1955077
   6.0310012  35.0544997  -5.9980012   5.6060012  35.8634997  -6.2810012
   6.9350012  35.1394997  -6.3000012   6.0950271  35.1768469  -6.0776224
  10.3420012  36.4534997  -3.0390012  10.5270012  36.1194997  -2.1610012
  11.1880012  36.7624997  -3.3610012  10.4817539  36.4496047  -2.9624395
  12.6870012  37.7394997  -3.7950012  13.3640012  37.1064997  -4.0350012
  13.0090012  38.1404997  -2.9880012  12.8231637  37.7071154  -3.7187207
  17.6040012  20.3284997  -4.7150012  16.7920012  20.6534997  -5.1030012
  17.8370012  19.5684997  -5.2480012  17.5243423  20.2702436  -4.8401747
   3.4330012  38.3104997  -5.9510012   2.7120012  38.7504997  -6.4020012
   3.0670012  38.0594997  -5.1020012   3.2849804  38.3367698  -5.8980160
   5.9000012  37.9104997  -6.9210012   5.0350012  37.9824997  -6.5170012
   5.8450012  38.4574997  -7.7050012   5.7742085  37.9942685  -6.9716638
  10.6100012  37.7984997  -7.7460012  10.1540012  38.3274997  -8.4000012
  10.7730012  38.4014997  -7.0200012  10.5695585  37.9524468  -7.7374938
  12.9380012  36.6764997  -6.8010012  12.0330012  36.8414997  -7.0660012
  13.3670012  37.5294997  -6.8660012  12.8720799  36.8144483  -6.8460818
  15.5420012  38.2464997  -6.5060012  15.3600012  39.1624997  -6.7160012
  15.7190012  37.8364997  -7.3520012  15.5410210  38.3164822  -6.6492115
   2.8470012  36.9334997  -9.0410012   2.8290012  36.5084997  -8.1830012
   3.6520012  36.6154997  -9.4490012   2.9533875  36.8323812  -8.9788345
   4.9890012  35.6434997 -10.3860012   4.7700012  34.7274997 -10.2160012
   5.8130012  35.7834997  -9.9200012   5.0704420  35.5370520 -10.2997226
   7.5260012  36.1134997  -9.5370012   7.7390012  35.2254997  -9.8240012
   7.5900012  36.0794997  -8.5830012   7.5638231  35.9873102  -9.4472603
  11.0340012  21.7774997 -10.3930012  10.3600012  21.1484997 -10.1370012
  11.5980012  21.2934997 -10.9960012  11.0179230  21.6258744 -10.4394660
  16.1770012  19.8854997 -10.2800012  16.7810012  20.4324997 -10.7820012
  15.3070012  20.2044997 -10.5200012  16.1421241  20.0035806 -10.3812346
  17.9040012  21.0234997 -11.9470012  18.5160012  20.5094997 -12.4730012
  18.2860012  21.9014997 -11.9230012  18.0394540  21.0717140 -12.0158170
   3.3610012  20.4114997 -12.5710012   2.5840012  20.1774997 -13.0780012
   3.8910012  19.6144997 -12.5620012   3.3262330  20.2716988 -12.6392258
   2.1970012  20.2094997 -16.7670012   2.6360012  20.8204997 -17.3590012
   1.5640012  20.7474997 -16.2930012   2.1714514  20.3659257 -16.7839070
   7.9400012  20.3384997 -12.7570012   8.8150012  20.7264997 -12.7870012
   7.8040012  20.1234997 -11.8350012   8.0413695  20.3625184 -12.6363560
  13.4970012  20.3684997 -11.1080012  13.5730012  20.4634997 -12.0580012
  13.2220012  19.4604997 -10.9790012  13.4702321  20.2587867 -11.2204921
  14.8500012  20.3944997 -15.4160012  14.1480012  21.0094997 -15.6250012
  14.4060012  19.5564997 -15.2850012  14.6936330  20.3655783 -15.4269672
   2.0980012  36.1574997 -15.8690012   1.4130012  36.1194997 -16.5370012
   2.1020012  37.0704997 -15.5810012   2.0048193  36.2757016 -15.9214716
   4.0580012  22.1254997 -18.3250012   4.5500012  21.4954997 -18.8520012
   4.6820012  22.4214997 -17.6610012   4.2095446  22.0793199 -18.3074020
   9.0840012  22.4184997 -15.8680012   9.2620012  21.7724997 -15.1850012
   9.0310012  23.2524997 -15.4000012   9.1011829  22.4427985 -15.7114060
  10.9630012  37.3674997 -17.4720012  11.8290012  37.7334997 -17.6500012
  10.7160012  36.9274997 -18.2860012  11.0482392  37.3581756 -17.6063711
  17.6720012  36.9304997 -14.7930012  17.4770012  36.1824997 -15.3580012
  17.6330012  37.6884997 -15.3760012  17.6400380  36.9306099 -14.9491616
   3.3190012  20.9254997  -3.0530012   2.9530012  20.1604997  -2.6100012
   4.2320012  20.9544997  -2.7660012   3.3922790  20.8247224  -2.9535930
   5.2920012  20.2764997  -1.5170012   6.1900012  20.0024997  -1.7020012
   4.9050012  19.5334997  -1.0530012   5.3626612  20.1385914  -1.4796357
   3.9160012  37.0774997 -18.8440012   3.6490012  37.3644997 -17.9710012
   4.6880012  36.5314997 -18.6920012   3.9837488  37.0430294 -18.7038950
  13.7130012  19.6084997  -1.3350012  13.7900012  19.1824997  -0.4810012
  14.6070012  19.6224997  -1.6780012  13.8443428  19.5520879  -1.2644690
  16.8890012  35.6814997  -2.6430012  16.1070012  35.4954997  -3.1620012
  16.8170012  36.6104997  -2.4250012  16.7721777  35.7816492  -2.6845952
  31.2950012  29.5674997 -12.6120012  31.3840012  30.5114997 -12.7440012
  30.6570012  29.2924997 -13.2700012  31.2209081  29.6594830 -12.7190386
  30.2280012  28.8224997  -9.1930012  30.1900012  28.1764997  -8.4880012
  29.9060012  28.3564997  -9.9640012  30.1792333  28.6709408  -9.2007022
  22.5970012  28.4374997  -7.6000012  22.6380012  27.8114997  -6.8770012
  23.3000012  29.0614997  -7.4180012  22.6976363  28.4361196  -7.4763956
  33.9340012  31.7614997 -10.8920012  33.4940012  31.0414997 -10.4410012
  33.9210012  32.4824997 -10.2620012  33.8720226  31.7603731 -10.7451506
  23.5200012  32.8874997  -9.0650012  23.1510012  32.0854997  -9.4350012
  24.4610012  32.7184997  -9.0190012  23.5967289  32.7550153  -9.1093684
  20.1300012  26.5474997 -13.6720012  19.6830012  27.3934997 -13.6910012
  19.5690012  25.9674997 -14.1880012  19.9929900  26.5849916 -13.7443199
  20.8410012  28.7094997 -11.5460012  21.0540012  27.9394997 -11.0190012
  21.5790012  28.7984997 -12.1500012  20.9698496  28.6161394 -11.5554700
  31.0460012  36.8664997 -10.6790012  31.6660012  36.1894997 -10.9530012
  30.8380012  36.6484997  -9.7710012  31.1026904  36.7443870 -10.5936635
  28.6180012  31.2554997  -8.7870012  28.9220012  30.5694997  -9.3820012
  29.3390012  31.3734997  -8.1690012  28.7570671  31.1776305  -8.7848184
  37.2810012  22.8564997  -7.9260012  37.3300012  23.4664997  -7.1900012
  37.7060012  23.3174997  -8.6490012  37.3451824  23.0023741  -7.9229795
  31.7590012  25.6494997  -8.4590012  31.9010012  24.7034997  -8.4390012
  31.6520012  25.8564997  -9.3880012  31.7639864  25.5479534  -8.5817661
  24.9130012  23.7504997 -11.1870012  24.9570012  24.6104997 -11.6050012
  24.4560012  23.1984997 -11.8210012  24.8572185  23.7935799 -11.3299701
  32.6360012  23.8814997 -12.7860012  33.2820012  23.5524997 -12.1610012
  33.1460012  24.3994997 -13.4090012  32.7934264  23.9064611 -12.7846138
  21.5340012  26.1474997 -10.4250012  22.1870012  25.5974997  -9.9930012
  21.5580012  25.8734997 -11.3420012  21.6266683  26.0351466 -10.4897877
  26.6900012  27.6974997 -11.2100012  27.3060012  27.1714997 -10.7000012
  26.1040012  27.0574997 -11.6130012  26.6950810  27.5389208 -11.1946827
  37.6720012  24.3344997  -5.6900012  36.9840012  24.9924997  -5.7860012
  37.6880012  24.1374997  -4.7540012  37.5798525  24.3980462  -5.5765192
  23.7240012  22.6684997  -7.1130012  23.5050012  23.1984997  -7.8790012
  23.0560012  22.8954997  -6.4660012  23.6037600  22.7716906  -7.1303621
  31.0930012  32.1684997 -13.5690012  30.7970012  31.8464997 -14.4200012
  30.7680012  33.0684997 -13.5280012  31.0086371  32.2460215 -13.6798199
  26.2930012  30.3444997  -6.8260012  25.5530012  30.9424997  -6.7220012
  27.0070012  30.8984997  -7.1410012  26.2882237  30.5012831  -6.8543535
  34.4000012  23.1724997 -10.8060012  34.1840012  22.4064997 -10.2730012
  35.0550012  23.6444997 -10.2930012  34.4590632  23.1315889 -10.6637139
  23.3170012  24.5604997  -9.1610012  23.9310012  25.1934997  -8.7870012
  23.8290012  24.0884997  -9.8170012  23.4702296  24.5832370  -9.1985748
  24.7000012  32.3084997  -6.0380012  24.6950012  33.1884997  -6.4160012
  23.8470012  32.2254997  -5.6130012  24.5839464  32.4176117  -6.0322093
  20.8210012  31.9794997 -15.2560012  20.5490012  32.2084997 -16.1450012
  20.8670012  32.8174997 -14.7960012  20.7900094  32.1241213 -15.3154303
  34.4460012  33.6014997  -8.5440012  33.5050012  33.6594997  -8.3820012
  34.7230012  34.5074997  -8.6810012  34.3544679  33.7319443  -8.5403185
  34.7470012  21.8874997  -7.1260012  34.0110012  22.4984997  -7.1640012
  35.4300012  22.3024997  -7.6530012  34.7386541  22.0271374  -7.2024168
  27.7500012  19.9744997  -9.6600012  27.6330012  19.0254997  -9.7150012
  26.8950012  20.3064997  -9.3870012  27.6183733  19.8895409  -9.6306103
  32.6980012  35.3824997 -11.9180012  33.1240012  34.6754997 -12.4030012
  33.0150012  36.1834997 -12.3350012  32.7991019  35.3940994 -12.0406870
  33.8580012  33.2834997 -13.4100012  33.6000012  32.5934997 -14.0210012
  33.9290012  32.8404997 -12.5640012  33.8322856  33.1292124 -13.3793115
  35.5440012  31.8494997  -4.9320012  35.6840012  31.2584997  -5.6720012
  35.7110012  32.7224997  -5.2890012  35.5856778  31.8866426  -5.0813035
  30.0170012  28.8114997 -15.1600012  29.3050012  29.3464997 -15.5120012
  30.7080012  28.8674997 -15.8200012  30.0130132  28.8922543 -15.2973711
  30.0700012  27.2694997 -18.1210012  30.7710012  27.2914997 -17.4700012
  30.3730012  26.6414997 -18.7770012  30.2067830  27.1876566 -18.1206289
  37.3860012  28.1894997  -6.8660012  36.7330012  28.8844997  -6.7770012
  37.8510012  28.3994997  -7.6760012  37.3595390  28.3129425  -6.9633117
  33.4220012  29.0214997 -14.2080012  32.6900012  29.2494997 -13.6350012
  33.8700012  28.3074997 -13.7530012  33.3823095  28.9562571 -14.0680881
  33.3200012  27.1954997  -5.1410012  33.4000012  27.9584997  -4.5690012
  32.7180012  27.4744997  -5.8310012  33.2495756  27.3377134  -5.1559411
  25.0680012  29.6514997 -12.3260012  24.7370012  29.2814997 -13.1440012
  25.6560012  28.9814997 -11.9790012  25.1021873  29.5101156 -12.3911898
  26.4340012  33.0794997  -9.6440012  26.3400012  32.5014997 -10.4010012
  27.1640012  32.7084997  -9.1480012  26.5197981  32.9502390  -9.6805835
  25.4340012  28.4204997  -8.6920012  26.0000012  28.5414997  -9.4550012
  25.7530012  29.0574997  -8.0530012  25.5545786  28.5231884  -8.7099960
  31.7430012  33.9234997  -7.9580012  31.5030012  34.5854997  -7.3100012
  31.5450012  33.0894997  -7.5330012  31.6833808  33.9013134  -7.8118476
  26.3140012  32.8194997  -3.9750012  26.0030012  33.6014997  -3.5200012
  25.6640012  32.6664997  -4.6610012  26.1835558  32.9059105  -4.0054129
  32.2930012  28.1834997 -16.5230012  32.8730012  28.3334997 -15.7760012
  32.7070012  28.6544997 -17.2460012  32.4282830  28.2676841 -16.5185866
  23.2340012  29.0174997  -4.7460012  23.3050012  29.6684997  -4.0480012
  22.3440012  29.1204997  -5.0810012  23.1233117  29.1205936  -4.6957300
  30.0200012  34.9204997 -13.0880012  30.4940012  35.2154997 -12.3100012
  29.4570012  35.6584997 -13.3210012  30.0087653  35.0606932 -13.0129864
  24.5540012  34.8914997  -3.2120012  24.5610012  34.7554997  -4.1590012
  23.6380012  34.7734997  -2.9600012  24.4311714  34.8569430  -3.3075334
  35.9920012  19.9334997 -16.7100012  35.0920012  20.0724997 -16.4150012
  36.2440012  20.7644997 -17.1120012  35.9028702  20.0649074 -16.7239795
  24.0580012  28.7214997 -14.7360012  23.7660012  29.4894997 -15.2270012
  23.3840012  28.0614997 -14.8990012  23.9269081  28.7374406 -14.8252660
  37.1810012  34.2994997 -18.3340012  37.2550012  35.2384997 -18.1630012
  38.0870012  33.9944997 -18.3900012  37.3135100  34.3866722 -18.3181881
  20.1510012  31.0844997  -5.9210012  19.6500012  31.0564997  -6.7360012
  20.1560012  30.1784997  -5.6120012  20.0831526  30.9582278  -5.9907128
  19.9010012  33.8644997  -9.0370012  20.8470012  33.7204997  -9.0560012
  19.7890012  34.6484997  -8.5000012  20.0152727  33.9508046  -8.9669928
  38.0990012  34.5304997  -3.3550012  38.0500012  33.5754997  -3.3920012
  37.2720012  34.7984997  -2.9540012  37.9804940  34.4358998  -3.3058625
  29.0780012  34.1044997  -4.4790012  29.1650012  34.9304997  -4.0040012
  28.2140012  33.7744997  -4.2300012  28.9731964  34.1729878  -4.3803451
  29.4920012  37.8764997 -14.6730012  29.4170012  37.7554997 -15.6190012
  29.5250012  38.8264997 -14.5540012  29.4861848  37.9882500 -14.7865166
  23.1450012  36.6654997 -12.8920012  23.2980012  36.3174997 -12.0130012
  22.2950012  36.3094997 -13.1470012  23.0508962  36.5696650 -12.8061660
  32.5940012  37.0304997 -17.6710012  32.9690012  36.2864997 -18.1410012
  32.5980012  36.7604997 -16.7520012  32.6458915  36.8921486 -17.6112176
  32.2630012  36.9564997 -14.9210012  31.3270012  37.0564997 -14.7430012
  32.5430012  36.2474997 -14.3430012  32.1728255  36.8742711 -14.8184609
  35.2510012  26.0234997  -2.8750012  34.8440012  26.5044997  -3.5960012
  35.2920012  25.1184997  -3.1830012  35.2008437  25.9669374  -3.0153317
  22.4000012  32.4074997  -4.8780012  22.6160012  32.0464997  -4.0190012
  21.5450012  32.0334997  -5.0880012  22.3139292  32.3074111  -4.7886614
  25.0190012  20.8774997  -8.8830012  24.1570012  20.7904997  -9.2900012
  24.9960012  21.7334997  -8.4550012  24.8980330  20.9812765  -8.8808137
  29.6820012  20.5994997  -5.5080012  30.1020012  20.1844997  -4.7550012
  28.7490012  20.4214997  -5.3910012  29.6133644  20.5185900  -5.3890461
  33.0080012  24.3554997  -4.6550012  32.4940012  24.2294997  -3.8570012
  32.8530012  25.2674997  -4.8990012  32.9166852  24.4616132  -4.5787842
  33.7710012  29.2164997 -18.8930012  33.8130012  28.9934997 -19.8230012
  34.6200012  29.6154997 -18.7030012  33.8915396  29.2399155 -18.9946373
  29.3430012  23.0924997 -18.2230012  29.0900012  23.1114997 -17.3000012
  29.0870012  22.2204997 -18.5240012  29.2737790  22.9772437 -18.1373737
  25.1100012  25.8434997  -7.7880012  24.4680012  25.8024997  -7.0790012
  25.1470012  26.7694997  -8.0250012  25.0271324  25.9631559  -7.7230176
  25.1070012  26.0644997 -12.8760012  24.2140012  25.7234997 -12.9340012
  25.5570012  25.6874997 -13.6310012  25.0457305  25.9668484 -12.9860823
  30.6420012  26.4804997 -14.0590012  30.2330012  27.2954997 -14.3500012
  31.3630012  26.3404997 -14.6730012  30.6834537  26.5732018 -14.1818658
  29.7440012  26.6554997  -2.5710012  29.1820012  25.9514997  -2.2500012
  30.5710012  26.5354997  -2.1030012  29.7787095  26.5427883  -2.4637670
  31.6470012  25.9264997 -11.2450012  31.4520012  26.5314997 -11.9600012
  31.8280012  25.0924997 -11.6790012  31.6447614  25.8966300 -11.4015595
  22.8600012  26.1634997  -5.9210012  22.8220012  26.5634997  -5.0520012
  22.3690012  25.3464997  -5.8300012  22.7884684  26.1078069  -5.7898941
  26.2260012  23.5374997 -19.1220012  25.7950012  23.0924997 -18.3920012
  25.5080012  23.9094997 -19.6340012  26.0699438  23.5268940 -19.0913201
  19.4680012  23.2794997 -12.0700012  20.0990012  23.2504997 -11.3510012
  19.9170012  22.8544997 -12.8000012  19.6150774  23.2180492 -12.0703447
  20.7420012  24.0254997 -16.6460012  21.2160012  24.6164997 -17.2310012
  20.0250012  24.5564997 -16.2990012  20.7099341  24.1780867 -16.6791164
  30.9110012  27.5644997  -6.5730012  31.2340012  26.9334997  -7.2160012
  30.4710012  27.0294997  -5.9130012  30.8956895  27.4058441  -6.5717150
  27.6880012  23.4914997 -11.7890012  26.7770012  23.5484997 -11.5010012
  28.1940012  23.4314997 -10.9790012  27.6315413  23.4911985 -11.6399378
  22.5170012  25.1204997 -12.9630012  21.6270012  25.2204997 -13.3030012
  22.8130012  24.2784997 -13.3090012  22.4352823  25.0203545 -13.0562787
  26.1700012  25.1204997 -15.3060012  27.1010012  25.2494997 -15.1280012
  25.9550012  25.7904997 -15.9560012  26.2684247  25.2286565 -15.3694253
  32.0930012  22.7264997  -8.5250012  31.4170012  22.8574997  -7.8610012
  31.6080012  22.5714997  -9.3350012  31.9347145  22.7234905  -8.5435483
  24.8440012  26.3154997 -17.7390012  24.3010012  25.9354997 -18.4310012
  25.6770012  26.5094997 -18.1680012  24.8824399  26.2898124 -17.8915474
  35.3810012  38.3984997  -2.2480012  35.5810012  38.8224997  -3.0830012
  36.0360012  38.7414997  -1.6410012  35.4970051  38.5029648  -2.2802164
  22.9790012  30.8724997  -2.6400012  23.7110012  31.1264997  -2.0790012
  22.1990012  31.0764997  -2.1250012  22.9738232  30.9349177  -2.4934240
  29.0080012  26.2794997  -9.9020012  29.5730012  25.7324997 -10.4490012
  28.8610012  25.7574997  -9.1140012  29.0652918  26.1342024  -9.8701546
  24.0100012  22.4154997 -13.4840012  23.6930012  21.5134997 -13.5190012
  24.7920012  22.4174997 -14.0370012  24.0722284  22.2921628 -13.5635217
  27.6350012  24.6674997  -7.4880012  26.7990012  25.1214997  -7.3780012
  28.1590012  24.9434997  -6.7360012  27.5914414  24.7669376  -7.3712864
  28.1790012  30.8804997 -15.8040012  27.4340012  30.3734997 -16.1260012
  28.0450012  30.9294997 -14.8570012  28.0588776  30.8176940 -15.7201353
  35.3290012  30.0134997  -7.0170012  35.9710012  30.4704997  -7.5610012
  34.4990012  30.1264997  -7.4800012  35.3045963  30.0912704  -7.1539823
  32.0770012  23.6944997 -17.6040012  31.1380012  23.8064997 -17.7560012
  32.3740012  24.5514997 -17.2980012  31.9887666  23.8256443 -17.5834232
  29.6980012  31.0644997  -4.5670012  29.3530012  30.6834997  -3.7600012
  29.4980012  31.9984997  -4.4950012  29.6238061  31.1385228  -4.4469039
  32.7950012  25.5614997 -15.9440012  33.6870012  25.4244997 -15.6250012
  32.8520012  26.3524997 -16.4800012  32.9246285  25.6496660 -15.9728310
  23.3040012  30.1754997 -10.0340012  24.0490012  30.1734997 -10.6350012
  23.3820012  29.3524997  -9.5520012  23.4165518  30.0639315 -10.0511071
  30.3050012  32.3394997 -16.7780012  30.0090012  33.1654997 -16.3970012
  29.6020012  31.7194997 -16.5820012  30.1694914  32.3688199 -16.6993557
  20.3120012  28.6364997  -4.7190012  20.5350012  28.2184997  -3.8870012
  19.7100012  28.0234997  -5.1420012  20.2611759  28.4964668  -4.6622978
  27.3280012  28.1534997  -2.5060012  27.0320012  27.9874997  -3.4010012
  28.2600012  27.9334997  -2.5170012  27.4134166  28.1010640  -2.6299464
  31.9490012  33.5264997  -4.6160012  31.0480012  33.7094997  -4.8840012
  31.9830012  33.7854997  -3.6950012  31.8303041  33.5865512  -4.5281803
  37.6800012  25.7714997 -16.2490012  37.1260012  25.3754997 -16.9210012
  37.7800012  26.6814997 -16.5270012  37.6177059  25.8403586 -16.3785599
  37.6430012  31.5714997  -3.4120012  36.7920012  31.8094997  -3.7790012
  38.2340012  31.5544997  -4.1650012  37.6062487  31.6018258  -3.5641107
  35.9750012  34.5574997 -15.7840012  35.6020012  33.7314997 -15.4750012
  36.2530012  34.3744997 -16.6810012  35.9615630  34.4197303 -15.8630374
  33.1360012  29.3654997  -8.7630012  32.2070012  29.1334997  -8.7900012
  33.5870012  28.5884997  -9.0930012  33.0699216  29.2287238  -8.8113083
  25.6790012  33.6934997 -12.6300012  26.2060012  34.4664997 -12.8300012
  24.7990012  33.9184997 -12.9310012  25.6321773  33.8298005 -12.6980990
  21.4340012  28.5554997 -18.0430012  22.0500012  29.1824997 -17.6630012
  20.5720012  28.8714997 -17.7710012  21.4017698  28.6839430 -17.9542817
  27.1060012  31.3564997 -13.0530012  26.8650012  32.2814997 -13.0120012
  26.3650012  30.8974997 -12.6570012  26.9728409  31.4211421 -12.9938623
  27.6210012  35.5054997  -6.7380012  27.9830012  36.3604997  -6.9720012
  28.1520012  35.2134997  -5.9980012  27.7424473  35.5831060  -6.6699145
  25.7890012  36.3784997 -13.5080012  24.8390012  36.4834997 -13.4570012
  26.1410012  37.1984997 -13.1630012  25.7064203  36.5038314 -13.4543350
  31.1650012  31.6044997  -7.0380012  30.7390012  31.3774997  -6.2110012
  31.7450012  30.8664997  -7.2200012  31.1851868  31.4735299  -6.9494170
  33.3680012  32.5334997 -17.9640012  33.7210012  32.1534997 -17.1590012
  32.4190012  32.4404997 -17.8770012  33.2880441  32.4689596 -17.8421441
  33.8230012  36.1564997  -4.5680012  33.2220012  35.6014997  -5.0640012
  34.1050012  36.8234997  -5.1940012  33.7788519  36.1706841  -4.7205048
  37.8710012  37.0134997 -17.7630012  38.6150012  37.5994997 -17.9030012
  37.1770012  37.5814997 -17.4290012  37.8790292  37.1705582 -17.7370039
  21.9460012  23.3894997  -5.1610012  21.0530012  23.7284997  -5.2290012
  21.8470012  22.5344997  -4.7430012  21.8104164  23.3202588  -5.1137765
  34.2340012  31.2064997 -15.7370012  33.9560012  30.4784997 -15.1810012
  35.1610012  31.3254997 -15.5320012  34.3213124  31.1228802 -15.6331155
  21.5970012  35.1944997  -6.7260012  21.8140012  34.2624997  -6.7570012
  21.8430012  35.4684997  -5.8430012  21.6599549  35.1040636  -6.6108237
  27.4590012  33.6454997 -19.5170012  27.6980012  32.8974997 -20.0640012
  27.1900012  33.2574997 -18.6840012  27.4553675  33.4906638 -19.4793135
  26.3960012  33.2154997 -17.0600012  26.5420012  32.6954997 -16.2700012
  26.3930012  34.1224997 -16.7540012  26.4155989  33.2668853 -16.9103912
  22.8490012  30.4684997 -16.5500012  22.1630012  30.8204997 -15.9830012
  23.3710012  31.2314997 -16.7970012  22.8256852  30.6198578 -16.5057882
  30.6800012  23.1304997  -6.2710012  31.3790012  23.2044997  -5.6210012
  30.2990012  22.2664997  -6.1170012  30.7241767  23.0237624  -6.1611678
  31.4650012  22.7824997 -15.1740012  31.6850012  23.2544997 -15.9770012
  32.0230012  23.1774997 -14.5040012  31.5704968  22.9004285 -15.1932669
  29.1330012  34.9134997 -16.3110012  28.3170012  35.4104997 -16.2590012
  29.6630012  35.3884997 -16.9510012  29.0929161  35.0457722 -16.3904044
  28.6650012  24.5104997 -14.3390012  29.4770012  25.0154997 -14.2930012
  28.4200012  24.3654997 -13.4250012  28.7430520  24.5600375 -14.2091483
  29.2000012  25.4964997  -5.1540012  29.3190012  26.0704997  -4.3970012
  29.8560012  24.8084997  -5.0400012  29.3049757  25.4821079  -5.0349175
  29.5480012  21.5914997 -13.4010012  29.2020012  22.2094997 -12.7560012
  30.2070012  22.0924997 -13.8820012  29.5897826  21.7435802 -13.3779029
  26.4720012  35.9574997 -16.3290012  26.6320012  36.7564997 -16.8300012
  26.2740012  36.2634997 -15.4440012  26.4671649  36.1084469 -16.2780185
  25.2060012  22.6544997 -16.7140012  25.1230012  23.5434997 -16.3670012
  26.0960012  22.3894997 -16.4820012  25.3149469  22.7401430 -16.6352374
  35.4050012  23.4034997  -4.3190012  34.4880012  23.6664997  -4.4070012
  35.7400012  23.4004997  -5.2160012  35.3249900  23.4390224  -4.4522081
  34.0070012  27.1544997 -10.2240012  33.2090012  26.7394997 -10.5520012
  34.4520012  26.4634997  -9.7330012  33.9579885  27.0043543 -10.2025111
  23.4650012  33.0824997 -17.6530012  24.0570012  33.7814997 -17.3770012
  23.9240012  32.6494997 -18.3730012  23.6081142  33.1197049 -17.7125170
  21.7810012  25.7464997 -18.5370012  21.7360012  26.6854997 -18.3590012
  20.8930012  25.5104997 -18.8070012  21.6548574  25.8431892 -18.5491088
  35.0930012  36.4104997  -8.6010012  34.9380012  37.0884997  -9.2580012
  36.0260012  36.4824997  -8.3980012  35.1978500  36.5130170  -8.6634881
  22.5890012  20.5284997  -9.8640012  22.3600012  20.5874997 -10.7920012
  22.1460012  19.7364997  -9.5580012  22.4978530  20.4295753  -9.9495214
  21.5190012  34.4684997 -13.7040012  20.6870012  34.9414997 -13.6760012
  22.0650012  34.9784997 -14.3020012  21.4789739  34.6021871 -13.7810284
  20.8070012  37.0814997  -2.3740012  21.3480012  36.8644997  -1.6140012
  20.3260012  36.2754997  -2.5630012  20.8159345  36.9429514  -2.2956924
  25.4050012  36.0004997  -0.7530012  26.1720012  35.5414997  -0.4120012
  25.3830012  35.7744997  -1.6830012  25.5071434  35.9070409  -0.8319957
  29.4970012  35.5084997 -19.3780012  28.8530012  34.8774997 -19.0570012
  30.2590012  34.9774997 -19.6100012  29.5118077  35.3502920 -19.3653989
  31.9820012  34.3804997  -2.0240012  31.6310012  33.5244997  -1.7810012
  32.7080012  34.5234997  -1.4170012  32.0320769  34.2825636  -1.9086381
  34.1010012  35.3254997 -19.1440012  34.3840012  34.5314997 -18.6920012
  34.8410012  35.5584997 -19.7050012  34.2397486  35.2482803 -19.1579302
  20.7140012  30.8914997  -1.4190012  20.8580012  29.9894997  -1.7060012
  19.9420012  31.1774997  -1.9070012  20.6293322  30.8068261  -1.5242119
  25.0560012  31.2354997 -19.2870012  25.1200012  30.4414997 -18.7560012
  25.7090012  31.1164997 -19.9770012  25.1530241  31.1107148 -19.3075683
  27.3700012  30.8614997  -1.9870012  27.0410012  31.1324997  -2.8440012
  27.5220012  29.9204997  -2.0740012  27.3454809  30.7713862  -2.1161756
  33.1040012  30.7774997  -4.6030012  33.8500012  31.3654997  -4.7230012
  32.3470012  31.3594997  -4.5400012  33.1037554  30.9367011  -4.6109093
  21.5470012  28.0914997  -1.9990012  21.9550012  27.2344997  -2.1200012
  21.2870012  28.1064997  -1.0780012  21.5677568  27.9760807  -1.8910412
  26.2050012  29.2074997 -16.9810012  25.7450012  28.7234997 -16.2950012
  26.4600012  28.5394997 -17.6170012  26.1764902  29.0508731 -16.9730666
  25.4940012  27.1004997  -4.6250012  24.8760012  27.7754997  -4.3450012
  25.8380012  27.4214997  -5.4580012  25.4559615  27.2362721  -4.6993419
  27.2760012  27.4504997 -18.7190012  27.0960012  27.2964997 -19.6460012
  28.2260012  27.5584997 -18.6740012  27.3797776  27.4440175 -18.8398157
  30.5140012  29.5724997  -1.3480012  31.4670012  29.6554997  -1.3750012
  30.3530012  28.8604997  -0.7280012  30.6226426  29.4876746  -1.2679421
  36.6660012  29.8054997 -19.2730012  36.3920012  29.3804997 -20.0860012
  36.7050012  30.7364997 -19.4900012  36.6337699  29.8732484 -19.4136390
  25.8330012  24.4554997  -3.5430012  25.9830012  23.7264997  -4.1450012
  25.8360012  25.2324997  -4.1020012  25.8539302  24.4607851  -3.7009308
  26.2460012  22.8254997  -6.0500012  26.7820012  23.2764997  -6.7020012
  25.3940012  22.7174997  -6.4730012  26.2042178  22.8726390  -6.1964244
  27.8280012  28.2644997  -5.8110012  28.5780012  28.1084997  -6.3840012
  27.4890012  29.1164997  -6.0860012  27.8848921  28.3582968  -5.9266439
  32.2430012  26.0794997  -0.7820012  32.4360012  25.1484997  -0.8940012
  33.1010012  26.5044997  -0.7920012  32.3853020  26.0096389  -0.7986639
  33.5600012  28.8684997  -2.7050012  33.2790012  29.5774997  -3.2820012
  34.5030012  28.7954997  -2.8560012  33.6489027  28.9557646  -2.8044449
  24.3120012  25.6534997  -1.6310012  23.5450012  25.1214997  -1.8410012
  24.9910012  25.3434997  -2.2310012  24.2987022  25.5387506  -1.7408352
  27.0520012  20.2814997  -5.6190012  26.9530012  21.2284997  -5.7240012
  26.3090012  19.9094997  -6.0940012  26.9380563  20.3605902  -5.6975440
  28.3160012  24.6034997  -2.0550012  28.0800012  24.3834997  -1.1530012
  27.5320012  24.3964997  -2.5650012  28.1778628  24.5454760  -2.0006068
  31.0310012  23.7304997  -2.9790012  30.0840012  23.7624997  -2.8470012
  31.3440012  23.1054997  -2.3260012  30.9435475  23.6503207  -2.8725545
  32.6650012  22.3644997  -0.9740012  32.5690012  21.4124997  -0.9800012
  32.3440012  22.6334997  -0.1140012  32.6084070  22.2704035  -0.8584559
  22.4920012  23.5744997  -1.9270012  22.7040012  22.8674997  -2.5370012
  22.3810012  23.1364997  -1.0830012  22.5059721  23.4187084  -1.8963157
  27.2730012  19.5754997  -2.9470012  27.9850012  18.9354997  -2.9610012
  27.1720012  19.8424997  -3.8610012  27.3567939  19.5239938  -3.0724350
  27.6270012  21.2584997  -0.8940012  27.4950012  20.7824997  -1.7140012
  27.0280012  22.0024997  -0.9490012  27.5279071  21.2939618  -1.0137114
  27.1730012  38.1414997 -17.7170012  28.1060012  38.2994997 -17.5740012
  26.9090012  38.8164997 -18.3420012  27.2649510  38.2543611 -17.7819259
  20.7420012  32.7774997 -18.2350012  21.6560012  32.8564997 -17.9610012
  20.7490012  32.0904997 -18.9010012  20.8681131  32.6953961 -18.2875607
  19.3910012  38.1704997 -13.1570012  18.7440012  37.7084997 -13.6900012
  19.7450012  37.4984997 -12.5750012  19.3503849  38.0164723 -13.1512041
  20.2610012  36.2514997 -11.3530012  19.9260012  35.3714997 -11.1810012
  20.4830012  36.5964997 -10.4880012  20.2451783  36.1777500 -11.2125792
  37.8090012  37.0604997  -8.3720012  37.7880012  37.2454997  -7.4330012
  38.5000012  37.6294997  -8.7130012  37.8994618  37.1626606  -8.2896136
  37.3730012  36.6284997  -5.4500012  36.8850012  35.8924997  -5.8210012
  37.9220012  36.2344997  -4.7720012  37.3804872  36.4746249  -5.4090840
  35.8230012  32.4174997  -0.8120012  34.9570012  32.3124997  -0.4180012
  36.2000012  33.1764997  -0.3660012  35.7553308  32.5056900  -0.6977607
  37.1240012  30.6744997 -15.2980012  37.9740012  31.0954997 -15.1710012
  37.1300012  29.9344997 -14.6910012  37.2411372  30.6320803 -15.1985656
  37.5190012  28.7274997 -13.4740012  36.7920012  28.2484997 -13.0770012
  38.1000012  28.9334997 -12.7420012  37.4979375  28.6897090 -13.3205871
  37.2780012  31.5124997  -8.5270012  38.1110012  31.1344997  -8.8070012
  37.3900012  32.4554997  -8.6460012  37.4072647  31.5882218  -8.5814513
  35.7640012  34.3904997  -6.2200012  35.1170012  34.7154997  -5.5940012
  35.2470012  33.9504997  -6.8940012  35.6054029  34.3755004  -6.2254173
  37.7870012  28.6284997 -17.0830012  37.2650012  28.9854997 -17.8020012
  37.7540012  29.3034997 -16.4050012  37.7111634  28.7685413 -17.0896855
  36.1360012  25.8684997 -18.5320012  36.2320012  26.5354997 -19.2130012
  35.9960012  25.0524997 -19.0140012  36.1302135  25.8494500 -18.6901509
  35.3050012  27.2484997 -12.9110012  35.1550012  26.3034997 -12.9320012
  34.9520012  27.5294997 -12.0680012  35.2366625  27.1570441 -12.7997654
  20.3410012  29.3264997  -8.9010012  20.5250012  29.2444997  -9.8370012
  21.1900012  29.2024997  -8.4770012  20.4810139  29.2985003  -8.9718545
  36.1620012  29.2184997  -3.2730012  36.7450012  28.4844997  -3.0810012
  36.7260012  29.9904997  -3.2260012  36.3179769  29.2224227  -3.2403841
  37.6580012  27.1214997  -2.5880012  36.7950012  26.7424997  -2.7540012
  38.2630012  26.3824997  -2.6620012  37.6215979  26.9698023  -2.6207183
  35.3830012  23.2764997 -19.4150012  35.9940012  22.9054997 -18.7780012
  34.5470012  22.8554997 -19.2190012  35.3535032  23.1687554 -19.3012965
  35.0160012  24.8314997 -14.4490012  35.2960012  23.9244997 -14.3250012
  35.7750012  25.2654997 -14.8380012  35.1569277  24.7660942 -14.4846318
  35.6280012  25.4124997  -9.0130012  36.5610012  25.6244997  -9.0470012
  35.3930012  25.5144997  -8.0910012  35.7238036  25.4552769  -8.8930024
  35.6570012  26.1494997  -6.2370012  34.8140012  26.4174997  -5.8710012
  36.0990012  26.9714997  -6.4480012  35.6014158  26.2973291  -6.2154509
  19.9380012  24.5974997  -2.7600012  20.8580012  24.4754997  -2.5240012
  19.4890012  23.8474997  -2.3710012  20.0031580  24.4793727  -2.6750994
  37.9400012  20.1294997  -0.8840012  38.2900012  19.4754997  -1.4890012
  38.0870012  20.9664997  -1.3230012  38.0078419  20.1531591  -1.0262882
  35.6290012  22.0944997 -14.4010012  35.8120012  21.6454997 -13.5750012
  35.0300012  21.5094997 -14.8640012  35.5730202  21.9539975 -14.3506725
  21.1590012  22.9094997  -9.8690012  21.6050012  22.1174997  -9.5670012
  21.6260012  23.6254997  -9.4380012  21.2830172  22.8980624  -9.7695180
  19.4630012  25.9084997  -8.8000012  19.9550012  25.6874997  -9.5910012
  19.8260012  26.7494997  -8.5190012  19.5793126  25.9918357  -8.8702469
  37.4600012  22.2384997  -2.5340012  36.5420012  22.5094997  -2.5700012
  37.5830012  21.7034997  -3.3190012  37.3511066  22.2032892  -2.6449513
  37.4960012  22.1614997 -17.8730012  37.9080012  21.4404997 -18.3480012
  38.1780012  22.8314997 -17.8140012  37.6445885  22.1532368 -17.9301085
  19.7770012  22.1664997 -14.7460012  18.8520012  22.3754997 -14.8750012
  20.2310012  22.6504997 -15.4350012  19.7117368  22.2605993 -14.8568774
  34.5480012  37.1504997 -12.8000012  35.2000012  36.8034997 -13.4080012
  35.0580012  37.6394997 -12.1540012  34.7062637  37.1690597 -12.7959764
  19.7410012  20.9044997  -6.4010012  19.0760012  20.6584997  -5.7580012
  19.2980012  21.5264997  -6.9790012  19.5900956  20.9548632  -6.3910648
  21.9330012  34.0794997  -2.2570012  21.1120012  34.2544997  -2.7170012
  21.6800012  34.0064997  -1.3360012  21.7866164  34.0935622  -2.1955077
  24.8870012  35.0544997  -5.9980012  24.4620012  35.8634997  -6.2810012
  25.7910012  35.1394997  -6.3000012  24.9510271  35.1768469  -6.0776224
  29.1980012  36.4534997  -3.0390012  29.3830012  36.1194997  -2.1610012
  30.0440012  36.7624997  -3.3610012  29.3377539  36.4496047  -2.9624395
  31.5430012  37.7394997  -3.7950012  32.2200012  37.1064997  -4.0350012
  31.8650012  38.1404997  -2.9880012  31.6791637  37.7071154  -3.7187207
  36.4600012  20.3284997  -4.7150012  35.6480012  20.6534997  -5.1030012
  36.6930012  19.5684997  -5.2480012  36.3803423  20.2702436  -4.8401747
  22.2890012  38.3104997  -5.9510012  21.5680012  38.7504997  -6.4020012
  21.9230012  38.0594997  -5.1020012  22.1409804  38.3367698  -5.8980160
  24.7560012  37.9104997  -6.9210012  23.8910012  37.9824997  -6.5170012
  24.7010012  38.4574997  -7.7050012  24.6302085  37.9942685  -6.9716638
  29.4660012  37.7984997  -7.7460012  29.0100012  38.3274997  -8.4000012
  29.6290012  38.4014997  -7.0200012  29.4255585  37.9524468  -7.7374938
  31.7940012  36.6764997  -6.8010012  30.8890012  36.8414997  -7.0660012
  32.2230012  37.5294997  -6.8660012  31.7280799  36.8144483  -6.8460818
  34.3980012  38.2464997  -6.5060012  34.2160012  39.1624997  -6.7160012
  34.5750012  37.8364997  -7.3520012  34.3970210  38.3164822  -6.6492115
  21.7030012  36.9334997  -9.0410012  21.6850012  36.5084997  -8.1830012
  22.5080012  36.6154997  -9.4490012  21.8093875  36.8323812  -8.9788345
  23.8450012  35.6434997 -10.3860012  23.6260012  34.7274997 -10.2160012
  24.6690012  35.7834997  -9.9200012  23.9264420  35.5370520 -10.2997226
  26.3820012  36.1134997  -9.5370012  26.5950012  35.2254997  -9.8240012
  26.4460012  36.0794997  -8.5830012  26.4198232  35.9873102  -9.4472603
  29.8900012  21.7774997 -10.3930012  29.2160012  21.1484997 -10.1370012
  30.4540012  21.2934997 -10.9960012  29.8739230  21.6258744 -10.4394660
  35.0330012  19.8854997 -10.2800012  35.6370012  20.4324997 -10.7820012
  34.1630012  20.2044997 -10.5200012  34.9981241  20.0035806 -10.3812346
  36.7600012  21.0234997 -11.9470012  37.3720012  20.5094997 -12.4730012
  37.1420012  21.9014997 -11.9230012  36.8954540  21.0717140 -12.0158170
  22.2170012  20.4114997 -12.5710012  21.4400012  20.1774997 -13.0780012
  22.7470012  19.6144997 -12.5620012  22.1822330  20.2716988 -12.6392258
  21.0530012  20.2094997 -16.7670012  21.4920012  20.8204997 -17.3590012
  20.4200012  20.7474997 -16.2930012  21.0274514  20.3659257 -16.7839070
  26.7960012  20.3384997 -12.7570012  27.6710012  20.7264997 -12.7870012
  26.6600012  20.1234997 -11.8350012  26.8973695  20.3625184 -12.6363560
  32.3530012  20.3684997 -11.1080012  32.4290012  20.4634997 -12.0580012
  32.0780012  19.4604997 -10.9790012  32.3262321  20.2587867 -11.2204921
  33.7060012  20.3944997 -15.4160012  33.0040012  21.0094997 -15.6250012
  33.2620012  19.5564997 -15.2850012  33.5496330  20.3655783 -15.4269672
  20.9540012  36.1574997 -15.8690012  20.2690012  36.1194997 -16.5370012
  20.9580012  37.0704997 -15.5810012  20.8608193  36.2757016 -15.9214716
  22.9140012  22.1254997 -18.3250012  23.4060012  21.4954997 -18.8520012
  23.5380012  22.4214997 -17.6610012  23.0655446  22.0793199 -18.3074020
  27.9400012  22.4184997 -15.8680012  28.1180012  21.7724997 -15.1850012
  27.8870012  23.2524997 -15.4000012  27.9571829  22.4427985 -15.7114060
  29.8190012  37.3674997 -17.4720012  30.6850012  37.7334997 -17.6500012
  29.5720012  36.9274997 -18.2860012  29.9042392  37.3581756 -17.6063711
  36.5280012  36.9304997 -14.7930012  36.3330012  36.1824997 -15.3580012
  36.4890012  37.6884997 -15.3760012  36.4960380  36.9306099 -14.9491616
  22.1750012  20.9254997  -3.0530012  21.8090012  20.1604997  -2.6100012
  23.0880012  20.9544997  -2.7660012  22.2482790  20.8247224  -2.9535930
  24.1480012  20.2764997  -1.5170012  25.0460012  20.0024997  -1.7020012
  23.7610012  19.5334997  -1.0530012  24.2186612  20.1385914  -1.4796357
  22.7720012  37.0774997 -18.8440012  22.5050012  37.3644997 -17.9710012
  23.5440012  36.5314997 -18.6920012  22.8397488  37.0430294 -18.7038950
  32.5690012  19.6084997  -1.3350012  32.6460012  19.1824997  -0.4810012
  33.4630012  19.6224997  -1.6780012  32.7003428  19.5520879  -1.2644690
  35.7450012  35.6814997  -2.6430012  34.9630012  35.4954997  -3.1620012
  35.6730012  36.6104997  -2.4250012  35.6281777  35.7816492  -2.6845952
  50.1510012  29.5674997 -12.6120012  50.2400012  30.5114997 -12.7440012
  49.5130012  29.2924997 -13.2700012  50.0769081  29.6594830 -12.7190386
  49.0840012  28.8224997  -9.1930012  49.0460012  28.1764997  -8.4880012
  48.7620012  28.3564997  -9.9640012  49.0352333  28.6709408  -9.2007022
  41.4530012  28.4374997  -7.6000012  41.4940012  27.8114997  -6.8770012
  42.1560012  29.0614997  -7.4180012  41.5536363  28.4361196  -7.4763956
  52.7900012  31.7614997 -10.8920012  52.3500012  31.0414997 -10.4410012
  52.7770012  32.4824997 -10.2620012  52.7280226  31.7603731 -10.7451506
  42.3760012  32.8874997  -9.0650012  42.0070012  32.0854997  -9.4350012
  43.3170012  32.7184997  -9.0190012  42.4527289  32.7550153  -9.1093684
  38.9860012  26.5474997 -13.6720012  38.5390012  27.3934997 -13.6910012
  38.4250012  25.9674997 -14.1880012  38.8489900  26.5849916 -13.7443199
  39.6970012  28.7094997 -11.5460012  39.9100012  27.9394997 -11.0190012
  40.4350012  28.7984997 -12.1500012  39.8258496  28.6161394 -11.5554700
  49.9020012  36.8664997 -10.6790012  50.5220012  36.1894997 -10.9530012
  49.6940012  36.6484997  -9.7710012  49.9586904  36.7443870 -10.5936635
  47.4740012  31.2554997  -8.7870012  47.7780012  30.5694997  -9.3820012
  48.1950012  31.3734997  -8.1690012  47.6130671  31.1776305  -8.7848184
  56.1370012  22.8564997  -7.9260012  56.1860012  23.4664997  -7.1900012
  56.5620012  23.3174997  -8.6490012  56.2011824  23.0023741  -7.9229795
  50.6150012  25.6494997  -8.4590012  50.7570012  24.7034997  -8.4390012
  50.5080012  25.8564997  -9.3880012  50.6199864  25.5479534  -8.5817661
  43.7690012  23.7504997 -11.1870012  43.8130012  24.6104997 -11.6050012
  43.3120012  23.1984997 -11.8210012  43.7132185  23.7935799 -11.3299701
  51.4920012  23.8814997 -12.7860012  52.1380012  23.5524997 -12.1610012
  52.0020012  24.3994997 -13.4090012  51.6494264  23.9064611 -12.7846138
  40.3900012  26.1474997 -10.4250012  41.0430012  25.5974997  -9.9930012
  40.4140012  25.8734997 -11.3420012  40.4826683  26.0351466 -10.4897877
  45.5460012  27.6974997 -11.2100012  46.1620012  27.1714997 -10.7000012
  44.9600012  27.0574997 -11.6130012  45.5510810  27.5389208 -11.1946827
  56.5280012  24.3344997  -5.6900012  55.8400012  24.9924997  -5.7860012
  56.5440012  24.1374997  -4.7540012  56.4358525  24.3980462  -5.5765192
  42.5800012  22.6684997  -7.1130012  42.3610012  23.1984997  -7.8790012
  41.9120012  22.8954997  -6.4660012  42.4597600  22.7716906  -7.1303621
  49.9490012  32.1684997 -13.5690012  49.6530012  31.8464997 -14.4200012
  49.6240012  33.0684997 -13.5280012  49.8646371  32.2460215 -13.6798199
  45.1490012  30.3444997  -6.8260012  44.4090012  30.9424997  -6.7220012
  45.8630012  30.8984997  -7.1410012  45.1442237  30.5012831  -6.8543535
  53.2560012  23.1724997 -10.8060012  53.0400012  22.4064997 -10.2730012
  53.9110012  23.6444997 -10.2930012  53.3150632  23.1315889 -10.6637139
  42.1730012  24.5604997  -9.1610012  42.7870012  25.1934997  -8.7870012
  42.6850012  24.0884997  -9.8170012  42.3262296  24.5832370  -9.1985748
  43.5560012  32.3084997  -6.0380012  43.5510012  33.1884997  -6.4160012
  42.7030012  32.2254997  -5.6130012  43.4399464  32.4176117  -6.0322093
  39.6770012  31.9794997 -15.2560012  39.4050012  32.2084997 -16.1450012
  39.7230012  32.8174997 -14.7960012  39.6460094  32.1241213 -15.3154303
  53.3020012  33.6014997  -8.5440012  52.3610012  33.6594997  -8.3820012
  53.5790012  34.5074997  -8.6810012  53.2104679  33.7319443  -8.5403185
  53.6030012  21.8874997  -7.1260012  52.8670012  22.4984997  -7.1640012
  54.2860012  22.3024997  -7.6530012  53.5946541  22.0271374  -7.2024168
  46.6060012  19.9744997  -9.6600012  46.4890012  19.0254997  -9.7150012
  45.7510012  20.3064997  -9.3870012  46.4743733  19.8895409  -9.6306103
  51.5540012  35.3824997 -11.9180012  51.9800012  34.6754997 -12.4030012
  51.8710012  36.1834997 -12.3350012  51.6551019  35.3940994 -12.0406870
  52.7140012  33.2834997 -13.4100012  52.4560012  32.5934997 -14.0210012
  52.7850012  32.8404997 -12.5640012  52.6882856  33.1292124 -13.3793115
  54.4000012  31.8494997  -4.9320012  54.5400012  31.2584997  -5.6720012
  54.5670012  32.7224997  -5.2890012  54.4416778  31.8866426  -5.0813035
  48.8730012  28.8114997 -15.1600012  48.1610012  29.3464997 -15.5120012
  49.5640012  28.8674997 -15.8200012  48.8690132  28.8922543 -15.2973711
  48.9260012  27.2694997 -18.1210012  49.6270012  27.2914997 -17.4700012
  49.2290012  26.6414997 -18.7770012  49.0627830  27.1876566 -18.1206289
  56.2420012  28.1894997  -6.8660012  55.5890012  28.8844997  -6.7770012
  56.7070012  28.3994997  -7.6760012  56.2155390  28.3129425  -6.9633117
  52.2780012  29.0214997 -14.2080012  51.5460012  29.2494997 -13.6350012
  52.7260012  28.3074997 -13.7530012  52.2383095  28.9562571 -14.0680881
  52.1760012  27.1954997  -5.1410012  52.2560012  27.9584997  -4.5690012
  51.5740012  27.4744997  -5.8310012  52.1055756  27.3377134  -5.1559411
  43.9240012  29.6514997 -12.3260012  43.5930012  29.2814997 -13.1440012
  44.5120012  28.9814997 -11.9790012  43.9581873  29.5101156 -12.3911898
  45.2900012  33.0794997  -9.6440012  45.1960012  32.5014997 -10.4010012
  46.0200012  32.7084997  -9.1480012  45.3757981  32.9502390  -9.6805835
  44.2900012  28.4204997  -8.6920012  44.8560012  28.5414997  -9.4550012
  44.6090012  29.0574997  -8.0530012  44.4105786  28.5231884  -8.7099960
  50.5990012  33.9234997  -7.9580012  50.3590012  34.5854997  -7.3100012
  50.4010012  33.0894997  -7.5330012  50.5393808  33.9013134  -7.8118476
  45.1700012  32.8194997  -3.9750012  44.8590012  33.6014997  -3.5200012
  44.5200012  32.6664997  -4.6610012  45.0395558  32.9059105  -4.0054129
  51.1490012  28.1834997 -16.5230012  51.7290012  28.3334997 -15.7760012
  51.5630012  28.6544997 -17.2460012  51.2842830  28.2676841 -16.5185866
  42.0900012  29.0174997  -4.7460012  42.1610012  29.6684997  -4.0480012
  41.2000012  29.1204997  -5.0810012  41.9793117  29.1205936  -4.6957300
  48.8760012  34.9204997 -13.0880012  49.3500012  35.2154997 -12.3100012
  48.3130012  35.6584997 -13.3210012  48.8647653  35.0606932 -13.0129864
  43.4100012  34.8914997  -3.2120012  43.4170012  34.7554997  -4.1590012
  42.4940012  34.7734997  -2.9600012  43.2871714  34.8569430  -3.3075334
  54.8480012  19.9334997 -16.7100012  53.9480012  20.0724997 -16.4150012
  55.1000012  20.7644997 -17.1120012  54.7588702  20.0649074 -16.7239795
  42.9140012  28.7214997 -14.7360012  42.6220012  29.4894997 -15.2270012
  42.2400012  28.0614997 -14.8990012  42.7829081  28.7374406 -14.8252660
  56.0370012  34.2994997 -18.3340012  56.1110012  35.2384997 -18.1630012
  56.9430012  33.9944997 -18.3900012  56.1695100  34.3866722 -18.3181881
  39.0070012  31.0844997  -5.9210012  38.5060012  31.0564997  -6.7360012
  39.0120012  30.1784997  -5.6120012  38.9391526  30.9582278  -5.9907128
  38.7570012  33.8644997  -9.0370012  39.7030012  33.7204997  -9.0560012
  38.6450012  34.6484997  -8.5000012  38.8712727  33.9508046  -8.9669928
  56.9550012  34.5304997  -3.3550012  56.9060012  33.5754997  -3.3920012
  56.1280012  34.7984997  -2.9540012  56.8364940  34.4358998  -3.3058625
  47.9340012  34.1044997  -4.4790012  48.0210012  34.9304997  -4.0040012
  47.0700012  33.7744997  -4.2300012  47.8291964  34.1729878  -4.3803451
  48.3480012  37.8764997 -14.6730012  48.2730012  37.7554997 -15.6190012
  48.3810012  38.8264997 -14.5540012  48.3421848  37.9882500 -14.7865166
  42.0010012  36.6654997 -12.8920012  42.1540012  36.3174997 -12.0130012
  41.1510012  36.3094997 -13.1470012  41.9068962  36.5696650 -12.8061660
  51.4500012  37.0304997 -17.6710012  51.8250012  36.2864997 -18.1410012
  51.4540012  36.7604997 -16.7520012  51.5018915  36.8921486 -17.6112176
  51.1190012  36.9564997 -14.9210012  50.1830012  37.0564997 -14.7430012
  51.3990012  36.2474997 -14.3430012  51.0288255  36.8742711 -14.8184609
  54.1070012  26.0234997  -2.8750012  53.7000012  26.5044997  -3.5960012
  54.1480012  25.1184997  -3.1830012  54.0568437  25.9669374  -3.0153317
  41.2560012  32.4074997  -4.8780012  41.4720012  32.0464997  -4.0190012
  40.4010012  32.0334997  -5.0880012  41.1699292  32.3074111  -4.7886614
  43.8750012  20.8774997  -8.8830012  43.0130012  20.7904997  -9.2900012
  43.8520012  21.7334997  -8.4550012  43.7540330  20.9812765  -8.8808137
  48.5380012  20.5994997  -5.5080012  48.9580012  20.1844997  -4.7550012
  47.6050012  20.4214997  -5.3910012  48.4693644  20.5185900  -5.3890461
  51.8640012  24.3554997  -4.6550012  51.3500012  24.2294997  -3.8570012
  51.7090012  25.2674997  -4.8990012  51.7726852  24.4616132  -4.5787842
  52.6270012  29.2164997 -18.8930012  52.6690012  28.9934997 -19.8230012
  53.4760012  29.6154997 -18.7030012  52.7475396  29.2399155 -18.9946373
  48.1990012  23.0924997 -18.2230012  47.9460012  23.1114997 -17.3000012
  47.9430012  22.2204997 -18.5240012  48.1297790  22.9772437 -18.1373737
  43.9660012  25.8434997  -7.7880012  43.3240012  25.8024997  -7.0790012
  44.0030012  26.7694997  -8.0250012  43.8831324  25.9631559  -7.7230176
  43.9630012  26.0644997 -12.8760012  43.0700012  25.7234997 -12.9340012
  44.4130012  25.6874997 -13.6310012  43.9017305  25.9668484 -12.9860823
  49.4980012  26.4804997 -14.0590012  49.0890012  27.2954997 -14.3500012
  50.2190012  26.3404997 -14.6730012  49.5394537  26.5732018 -14.1818658
  48.6000012  26.6554997  -2.5710012  48.0380012  25.9514997  -2.2500012
  49.4270012  26.5354997  -2.1030012  48.6347095  26.5427883  -2.4637670
  50.5030012  25.9264997 -11.2450012  50.3080012  26.5314997 -11.9600012
  50.6840012  25.0924997 -11.6790012  50.5007614  25.8966300 -11.4015595
  41.7160012  26.1634997  -5.9210012  41.6780012  26.5634997  -5.0520012
  41.2250012  25.3464997  -5.8300012  41.6444684  26.1078069  -5.7898941
  45.0820012  23.5374997 -19.1220012  44.6510012  23.0924997 -18.3920012
  44.3640012  23.9094997 -19.6340012  44.9259438  23.5268940 -19.0913201
  38.3240012  23.2794997 -12.0700012  38.9550012  23.2504997 -11.3510012
  38.7730012  22.8544997 -12.8000012  38.4710774  23.2180492 -12.0703447
  39.5980012  24.0254997 -16.6460012  40.0720012  24.6164997 -17.2310012
  38.8810012  24.5564997 -16.2990012  39.5659341  24.1780867 -16.6791164
  49.7670012  27.5644997  -6.5730012  50.0900012  26.9334997  -7.2160012
  49.3270012  27.0294997  -5.9130012  49.7516895  27.4058441  -6.5717150
  46.5440012  23.4914997 -11.7890012  45.6330012  23.5484997 -11.5010012
  47.0500012  23.4314997 -10.9790012  46.4875413  23.4911985 -11.6399378
  41.3730012  25.1204997 -12.9630012  40.4830012  25.2204997 -13.3030012
  41.6690012  24.2784997 -13.3090012  41.2912823  25.0203545 -13.0562787
  45.0260012  25.1204997 -15.3060012  45.9570012  25.2494997 -15.1280012
  44.8110012  25.7904997 -15.9560012  45.1244247  25.2286565 -15.3694253
  50.9490012  22.7264997  -8.5250012  50.2730012  22.8574997  -7.8610012
  50.4640012  22.5714997  -9.3350012  50.7907145  22.7234905  -8.5435483
  43.7000012  26.3154997 -17.7390012  43.1570012  25.9354997 -18.4310012
  44.5330012  26.5094997 -18.1680012  43.7384399  26.2898124 -17.8915474
  54.2370012  38.3984997  -2.2480012  54.4370012  38.8224997  -3.0830012
  54.8920012  38.7414997  -1.6410012  54.3530051  38.5029648  -2.2802164
  41.8350012  30.8724997  -2.6400012  42.5670012  31.1264997  -2.0790012
  41.0550012  31.0764997  -2.1250012  41.8298232  30.9349177  -2.4934240
  47.8640012  26.2794997  -9.9020012  48.4290012  25.7324997 -10.4490012
  47.7170012  25.7574997  -9.1140012  47.9212918  26.1342024  -9.8701546
  42.8660012  22.4154997 -13.4840012  42.5490012  21.5134997 -13.5190012
  43.6480012  22.4174997 -14.0370012  42.9282284  22.2921628 -13.5635217
  46.4910012  24.6674997  -7.4880012  45.6550012  25.1214997  -7.3780012
  47.0150012  24.9434997  -6.7360012  46.4474414  24.7669376  -7.3712864
  47.0350012  30.8804997 -15.8040012  46.2900012  30.3734997 -16.1260012
  46.9010012  30.9294997 -14.8570012  46.9148776  30.8176940 -15.7201353
  54.1850012  30.0134997  -7.0170012  54.8270012  30.4704997  -7.5610012
  53.3550012  30.1264997  -7.4800012  54.1605963  30.0912704  -7.1539823
  50.9330012  23.6944997 -17.6040012  49.9940012  23.8064997 -17.7560012
  51.2300012  24.5514997 -17.2980012  50.8447666  23.8256443 -17.5834232
  48.5540012  31.0644997  -4.5670012  48.2090012  30.6834997  -3.7600012
  48.3540012  31.9984997  -4.4950012  48.4798061  31.1385228  -4.4469039
  51.6510012  25.5614997 -15.9440012  52.5430012  25.4244997 -15.6250012
  51.7080012  26.3524997 -16.4800012  51.7806285  25.6496660 -15.9728309
  42.1600012  30.1754997 -10.0340012  42.9050012  30.1734997 -10.6350012
  42.2380012  29.3524997  -9.5520012  42.2725518  30.0639315 -10.0511071
  49.1610012  32.3394997 -16.7780012  48.8650012  33.1654997 -16.3970012
  48.4580012  31.7194997 -16.5820012  49.0254914  32.3688199 -16.6993557
  39.1680012  28.6364997  -4.7190012  39.3910012  28.2184997  -3.8870012
  38.5660012  28.0234997  -5.1420012  39.1171759  28.4964668  -4.6622978
  46.1840012  28.1534997  -2.5060012  45.8880012  27.9874997  -3.4010012
  47.1160012  27.9334997  -2.5170012  46.2694166  28.1010640  -2.6299464
  50.8050012  33.5264997  -4.6160012  49.9040012  33.7094997  -4.8840012
  50.8390012  33.7854997  -3.6950012  50.6863041  33.5865512  -4.5281803
  56.5360012  25.7714997 -16.2490012  55.9820012  25.3754997 -16.9210012
  56.6360012  26.6814997 -16.5270012  56.4737059  25.8403586 -16.3785599
  56.4990012  31.5714997  -3.4120012  55.6480012  31.8094997  -3.7790012
  57.0900012  31.5544997  -4.1650012  56.4622487  31.6018258  -3.5641107
  54.8310012  34.5574997 -15.7840012  54.4580012  33.7314997 -15.4750012
  55.1090012  34.3744997 -16.6810012  54.8175630  34.4197303 -15.8630374
  51.9920012  29.3654997  -8.7630012  51.0630012  29.1334997  -8.7900012
  52.4430012  28.5884997  -9.0930012  51.9259216  29.2287238  -8.8113083
  44.5350012  33.6934997 -12.6300012  45.0620012  34.4664997 -12.8300012
  43.6550012  33.9184997 -12.9310012  44.4881773  33.8298005 -12.6980990
  40.2900012  28.5554997 -18.0430012  40.9060012  29.1824997 -17.6630012
  39.4280012  28.8714997 -17.7710012  40.2577698  28.6839430 -17.9542817
  45.9620012  31.3564997 -13.0530012  45.7210012  32.2814997 -13.0120012
  45.2210012  30.8974997 -12.6570012  45.8288409  31.4211421 -12.9938623
  46.4770012  35.5054997  -6.7380012  46.8390012  36.3604997  -6.9720012
  47.0080012  35.2134997  -5.9980012  46.5984473  35.5831060  -6.6699145
  44.6450012  36.3784997 -13.5080012  43.6950012  36.4834997 -13.4570012
  44.9970012  37.1984997 -13.1630012  44.5624203  36.5038314 -13.4543350
  50.0210012  31.6044997  -7.0380012  49.5950012  31.3774997  -6.2110012
  50.6010012  30.8664997  -7.2200012  50.0411868  31.4735299  -6.9494170
  52.2240012  32.5334997 -17.9640012  52.5770012  32.1534997 -17.1590012
  51.2750012  32.4404997 -17.8770012  52.1440441  32.4689596 -17.8421441
  52.6790012  36.1564997  -4.5680012  52.0780012  35.6014997  -5.0640012
  52.9610012  36.8234997  -5.1940012  52.6348519  36.1706841  -4.7205048
  56.7270012  37.0134997 -17.7630012  57.4710012  37.5994997 -17.9030012
  56.0330012  37.5814997 -17.4290012  56.7350292  37.1705582 -17.7370039
  40.8020012  23.3894997  -5.1610012  39.9090012  23.7284997  -5.2290012
  40.7030012  22.5344997  -4.7430012  40.6664164  23.3202588  -5.1137765
  53.0900012  31.2064997 -15.7370012  52.8120012  30.4784997 -15.1810012
  54.0170012  31.3254997 -15.5320012  53.1773124  31.1228802 -15.6331155
  40.4530012  35.1944997  -6.7260012  40.6700012  34.2624997  -6.7570012
  40.6990012  35.4684997  -5.8430012  40.5159549  35.1040636  -6.6108237
  46.3150012  33.6454997 -19.5170012  46.5540012  32.8974997 -20.0640012
  46.0460012  33.2574997 -18.6840012  46.3113675  33.4906638 -19.4793135
  45.2520012  33.2154997 -17.0600012  45.3980012  32.6954997 -16.2700012
  45.2490012  34.1224997 -16.7540012  45.2715989  33.2668853 -16.9103912
  41.7050012  30.4684997 -16.5500012  41.0190012  30.8204997 -15.9830012
  42.2270012  31.2314997 -16.7970012  41.6816852  30.6198578 -16.5057882
  49.5360012  23.1304997  -6.2710012  50.2350012  23.2044997  -5.6210012
  49.1550012  22.2664997  -6.1170012  49.5801767  23.0237624  -6.1611678
  50.3210012  22.7824997 -15.1740012  50.5410012  23.2544997 -15.9770012
  50.8790012  23.1774997 -14.5040012  50.4264968  22.9004285 -15.1932669
  47.9890012  34.9134997 -16.3110012  47.1730012  35.4104997 -16.2590012
  48.5190012  35.3884997 -16.9510012  47.9489161  35.0457722 -16.3904044
  47.5210012  24.5104997 -14.3390012  48.3330012  25.0154997 -14.2930012
  47.2760012  24.3654997 -13.4250012  47.5990520  24.5600375 -14.2091483
  48.0560012  25.4964997  -5.1540012  48.1750012  26.0704997  -4.3970012
  48.7120012  24.8084997  -5.0400012  48.1609757  25.4821079  -5.0349175
  48.4040012  21.5914997 -13.4010012  48.0580012  22.2094997 -12.7560012
  49.0630012  22.0924997 -13.8820012  48.4457826  21.7435802 -13.3779029
  45.3280012  35.9574997 -16.3290012  45.4880012  36.7564997 -16.8300012
  45.1300012  36.2634997 -15.4440012  45.3231649  36.1084469 -16.2780185
  44.0620012  22.6544997 -16.7140012  43.9790012  23.5434997 -16.3670012
  44.9520012  22.3894997 -16.4820012  44.1709469  22.7401430 -16.6352374
  54.2610012  23.4034997  -4.3190012  53.3440012  23.6664997  -4.4070012
  54.5960012  23.4004997  -5.2160012  54.1809900  23.4390224  -4.4522081
  52.8630012  27.1544997 -10.2240012  52.0650012  26.7394997 -10.5520012
  53.3080012  26.4634997  -9.7330012  52.8139885  27.0043543 -10.2025111
  42.3210012  33.0824997 -17.6530012  42.9130012  33.7814997 -17.3770012
  42.7800012  32.6494997 -18.3730012  42.4641142  33.1197049 -17.7125170
  40.6370012  25.7464997 -18.5370012  40.5920012  26.6854997 -18.3590012
  39.7490012  25.5104997 -18.8070012  40.5108574  25.8431892 -18.5491088
  53.9490012  36.4104997  -8.6010012  53.7940012  37.0884997  -9.2580012
  54.8820012  36.4824997  -8.3980012  54.0538500  36.5130170  -8.6634881
  41.4450012  20.5284997  -9.8640012  41.2160012  20.5874997 -10.7920012
  41.0020012  19.7364997  -9.5580012  41.3538530  20.4295753  -9.9495214
  40.3750012  34.4684997 -13.7040012  39.5430012  34.9414997 -13.6760012
  40.9210012  34.9784997 -14.3020012  40.3349739  34.6021871 -13.7810284
  39.6630012  37.0814997  -2.3740012  40.2040012  36.8644997  -1.6140012
  39.1820012  36.2754997  -2.5630012  39.6719345  36.9429514  -2.2956924
  44.2610012  36.0004997  -0.7530012  45.0280012  35.5414997  -0.4120012
  44.2390012  35.7744997  -1.6830012  44.3631434  35.9070409  -0.8319957
  48.3530012  35.5084997 -19.3780012  47.7090012  34.8774997 -19.0570012
  49.1150012  34.9774997 -19.6100012  48.3678077  35.3502920 -19.3653989
  50.8380012  34.3804997  -2.0240012  50.4870012  33.5244997  -1.7810012
  51.5640012  34.5234997  -1.4170012  50.8880769  34.2825636  -1.9086381
  52.9570012  35.3254997 -19.1440012  53.2400012  34.5314997 -18.6920012
  53.6970012  35.5584997 -19.7050012  53.0957486  35.2482803 -19.1579302
  39.5700012  30.8914997  -1.4190012  39.7140012  29.9894997  -1.7060012
  38.7980012  31.1774997  -1.9070012  39.4853322  30.8068261  -1.5242119
  43.9120012  31.2354997 -19.2870012  43.9760012  30.4414997 -18.7560012
  44.5650012  31.1164997 -19.9770012  44.0090241  31.1107148 -19.3075683
  46.2260012  30.8614997  -1.9870012  45.8970012  31.1324997  -2.8440012
  46.3780012  29.9204997  -2.0740012  46.2014809  30.7713862  -2.1161756
  51.9600012  30.7774997  -4.6030012  52.7060012  31.3654997  -4.7230012
  51.2030012  31.3594997  -4.5400012  51.9597554  30.9367011  -4.6109093
  40.4030012  28.0914997  -1.9990012  40.8110012  27.2344997  -2.1200012
  40.1430012  28.1064997  -1.0780012  40.4237568  27.9760807  -1.8910412
  45.0610012  29.2074997 -16.9810012  44.6010012  28.7234997 -16.2950012
  45.3160012  28.5394997 -17.6170012  45.0324902  29.0508731 -16.9730666
  44.3500012  27.1004997  -4.6250012  43.7320012  27.7754997  -4.3450012
  44.6940012  27.4214997  -5.4580012  44.3119615  27.2362721  -4.6993419
  46.1320012  27.4504997 -18.7190012  45.9520012  27.2964997 -19.6460012
  47.0820012  27.5584997 -18.6740012  46.2357776  27.4440175 -18.8398157
  49.3700012  29.5724997  -1.3480012  50.3230012  29.6554997  -1.3750012
  49.2090012  28.8604997  -0.7280012  49.4786426  29.4876746  -1.2679421
  55.5220012  29.8054997 -19.2730012  55.2480012  29.3804997 -20.0860012
  55.5610012  30.7364997 -19.4900012  55.4897699  29.8732484 -19.4136390
  44.6890012  24.4554997  -3.5430012  44.8390012  23.7264997  -4.1450012
  44.6920012  25.2324997  -4.1020012  44.7099302  24.4607851  -3.7009308
  45.1020012  22.8254997  -6.0500012  45.6380012  23.2764997  -6.7020012
  44.2500012  22.7174997  -6.4730012  45.0602178  22.8726390  -6.1964244
  46.6840012  28.2644997  -5.8110012  47.4340012  28.1084997  -6.3840012
  46.3450012  29.1164997  -6.0860012  46.7408921  28.3582968  -5.9266439
  51.0990012  26.0794997  -0.7820012  51.2920012  25.1484997  -0.8940012
  51.9570012  26.5044997  -0.7920012  51.2413020  26.0096389  -0.7986639
  52.4160012  28.8684997  -2.7050012  52.1350012  29.5774997  -3.2820012
  53.3590012  28.7954997  -2.8560012  52.5049027  28.9557646  -2.8044449
  43.1680012  25.6534997  -1.6310012  42.4010012  25.1214997  -1.8410012
  43.8470012  25.3434997  -2.2310012  43.1547022  25.5387506  -1.7408352
  45.9080012  20.2814997  -5.6190012  45.8090012  21.2284997  -5.7240012
  45.1650012  19.9094997  -6.0940012  45.7940564  20.3605902  -5.6975440
  47.1720012  24.6034997  -2.0550012  46.9360012  24.3834997  -1.1530012
  46.3880012  24.3964997  -2.5650012  47.0338628  24.5454760  -2.0006068
  49.8870012  23.7304997  -2.9790012  48.9400012  23.7624997  -2.8470012
  50.2000012  23.1054997  -2.3260012  49.7995475  23.6503207  -2.8725545
  51.5210012  22.3644997  -0.9740012  51.4250012  21.4124997  -0.9800012
  51.2000012  22.6334997  -0.1140012  51.4644070  22.2704035  -0.8584559
  41.3480012  23.5744997  -1.9270012  41.5600012  22.8674997  -2.5370012
  41.2370012  23.1364997  -1.0830012  41.3619721  23.4187084  -1.8963157
  46.1290012  19.5754997  -2.9470012  46.8410012  18.9354997  -2.9610012
  46.0280012  19.8424997  -3.8610012  46.2127939  19.5239938  -3.0724350
  46.4830012  21.2584997  -0.8940012  46.3510012  20.7824997  -1.7140012
  45.8840012  22.0024997  -0.9490012  46.3839071  21.2939618  -1.0137114
  46.0290012  38.1414997 -17.7170012  46.9620012  38.2994997 -17.5740012
  45.7650012  38.8164997 -18.3420012  46.1209510  38.2543611 -17.7819259
  39.5980012  32.7774997 -18.2350012  40.5120012  32.8564997 -17.9610012
  39.6050012  32.0904997 -18.9010012  39.7241131  32.6953961 -18.2875607
  38.2470012  38.1704997 -13.1570012  37.6000012  37.7084997 -13.6900012
  38.6010012  37.4984997 -12.5750012  38.2063849  38.0164723 -13.1512041
  39.1170012  36.2514997 -11.3530012  38.7820012  35.3714997 -11.1810012
  39.3390012  36.5964997 -10.4880012  39.1011783  36.1777501 -11.2125792
  56.6650012  37.0604997  -8.3720012  56.6440012  37.2454997  -7.4330012
  57.3560012  37.6294997  -8.7130012  56.7554618  37.1626606  -8.2896136
  56.2290012  36.6284997  -5.4500012  55.7410012  35.8924997  -5.8210012
  56.7780012  36.2344997  -4.7720012  56.2364872  36.4746249  -5.4090840
  54.6790012  32.4174997  -0.8120012  53.8130012  32.3124997  -0.4180012
  55.0560012  33.1764997  -0.3660012  54.6113308  32.5056900  -0.6977607
  55.9800012  30.6744997 -15.2980012  56.8300012  31.0954997 -15.1710012
  55.9860012  29.9344997 -14.6910012  56.0971372  30.6320803 -15.1985656
  56.3750012  28.7274997 -13.4740012  55.6480012  28.2484997 -13.0770012
  56.9560012  28.9334997 -12.7420012  56.3539375  28.6897090 -13.3205871
  56.1340012  31.5124997  -8.5270012  56.9670012  31.1344997  -8.8070012
  56.2460012  32.4554997  -8.6460012  56.2632647  31.5882218  -8.5814513
  54.6200012  34.3904997  -6.2200012  53.9730012  34.7154997  -5.5940012
  54.1030012  33.9504997  -6.8940012  54.4614029  34.3755004  -6.2254173
  56.6430012  28.6284997 -17.0830012  56.1210012  28.9854997 -17.8020012
  56.6100012  29.3034997 -16.4050012  56.5671634  28.7685413 -17.0896855
  54.9920012  25.8684997 -18.5320012  55.0880012  26.5354997 -19.2130012
  54.8520012  25.0524997 -19.0140012  54.9862135  25.8494500 -18.6901509
  54.1610012  27.2484997 -12.9110012  54.0110012  26.3034997 -12.9320012
  53.8080012  27.5294997 -12.0680012  54.0926625  27.1570441 -12.7997654
  39.1970012  29.3264997  -8.9010012  39.3810012  29.2444997  -9.8370012
  40.0460012  29.2024997  -8.4770012  39.3370139  29.2985003  -8.9718545
  55.0180012  29.2184997  -3.2730012  55.6010012  28.4844997  -3.0810012
  55.5820012  29.9904997  -3.2260012  55.1739769  29.2224227  -3.2403841
  56.5140012  27.1214997  -2.5880012  55.6510012  26.7424997  -2.7540012
  57.1190012  26.3824997  -2.6620012  56.4775979  26.9698023  -2.6207183
  54.2390012  23.2764997 -19.4150012  54.8500012  22.9054997 -18.7780012
  53.4030012  22.8554997 -19.2190012  54.2095032  23.1687554 -19.3012965
  53.8720012  24.8314997 -14.4490012  54.1520012  23.9244997 -14.3250012
  54.6310012  25.2654997 -14.8380012  54.0129277  24.7660942 -14.4846318
  54.4840012  25.4124997  -9.0130012  55.4170012  25.6244997  -9.0470012
  54.2490012  25.5144997  -8.0910012  54.5798036  25.4552769  -8.8930024
  54.5130012  26.1494997  -6.2370012  53.6700012  26.4174997  -5.8710012
  54.9550012  26.9714997  -6.4480012  54.4574158  26.2973291  -6.2154509
  38.7940012  24.5974997  -2.7600012  39.7140012  24.4754997  -2.5240012
  38.3450012  23.8474997  -2.3710012  38.8591580  24.4793727  -2.6750994
  56.7960012  20.1294997  -0.8840012  57.1460012  19.4754997  -1.4890012
  56.9430012  20.9664997  -1.3230012  56.8638419  20.1531591  -1.0262882
  54.4850012  22.0944997 -14.4010012  54.6680012  21.6454997 -13.5750012
  53.8860012  21.5094997 -14.8640012  54.4290202  21.9539975 -14.3506725
  40.0150012  22.9094997  -9.8690012  40.4610012  22.1174997  -9.5670012
  40.4820012  23.6254997  -9.4380012  40.1390172  22.8980624  -9.7695180
  38.3190012  25.9084997  -8.8000012  38.8110012  25.6874997  -9.5910012
  38.6820012  26.7494997  -8.5190012  38.4353126  25.9918357  -8.8702469
  56.3160012  22.2384997  -2.5340012  55.3980012  22.5094997  -2.5700012
  56.4390012  21.7034997  -3.3190012  56.2071066  22.2032892  -2.6449513
  56.3520012  22.1614997 -17.8730012  56.7640012  21.4404997 -18.3480012
  57.0340012  22.8314997 -17.8140012  56.5005885  22.1532368 -17.9301085
  38.6330012  22.1664997 -14.7460012  37.7080012  22.3754997 -14.8750012
  39.0870012  22.6504997 -15.4350012  38.5677368  22.2605993 -14.8568774
  53.4040012  37.1504997 -12.8000012  54.0560012  36.8034997 -13.4080012
  53.9140012  37.6394997 -12.1540012  53.5622637  37.1690597 -12.7959764
  38.5970012  20.9044997  -6.4010012  37.9320012  20.6584997  -5.7580012
  38.1540012  21.5264997  -6.9790012  38.4460956  20.9548632  -6.3910648
  40.7890012  34.0794997  -2.2570012  39.9680012  34.2544997  -2.7170012
  40.5360012  34.0064997  -1.3360012  40.6426164  34.0935622  -2.1955077
  43.7430012  35.0544997  -5.9980012  43.3180012  35.8634997  -6.2810012
  44.6470012  35.1394997  -6.3000012  43.8070271  35.1768469  -6.0776224
  48.0540012  36.4534997  -3.0390012  48.2390012  36.1194997  -2.1610012
  48.9000012  36.7624997  -3.3610012  48.1937539  36.4496047  -2.9624395
  50.3990012  37.7394997  -3.7950012  51.0760012  37.1064997  -4.0350012
  50.7210012  38.1404997  -2.9880012  50.5351637  37.7071154  -3.7187207
  55.3160012  20.3284997  -4.7150012  54.5040012  20.6534997  -5.1030012
  55.5490012  19.5684997  -5.2480012  55.2363423  20.2702436  -4.8401747
  41.1450012  38.3104997  -5.9510012  40.4240012  38.7504997  -6.4020012
  40.7790012  38.0594997  -5.1020012  40.9969804  38.3367698  -5.8980160
  43.6120012  37.9104997  -6.9210012  42.7470012  37.9824997  -6.5170012
  43.5570012  38.4574997  -7.7050012  43.4862085  37.9942685  -6.9716638
  48.3220012  37.7984997  -7.7460012  47.8660012  38.3274997  -8.4000012
  48.4850012  38.4014997  -7.0200012  48.2815585  37.9524468  -7.7374938
  50.6500012  36.6764997  -6.8010012  49.7450012  36.8414997  -7.0660012
  51.0790012  37.5294997  -6.8660012  50.5840799  36.8144483  -6.8460818
  53.2540012  38.2464997  -6.5060012  53.0720012  39.1624997  -6.7160012
  53.4310012  37.8364997  -7.3520012  53.2530210  38.3164822  -6.6492115
  40.5590012  36.9334997  -9.0410012  40.5410012  36.5084997  -8.1830012
  41.3640012  36.6154997  -9.4490012  40.6653875  36.8323812  -8.9788345
  42.7010012  35.6434997 -10.3860012  42.4820012  34.7274997 -10.2160012
  43.5250012  35.7834997  -9.9200012  42.7824420  35.5370520 -10.2997226
  45.2380012  36.1134997  -9.5370012  45.4510012  35.2254997  -9.8240012
  45.3020012  36.0794997  -8.5830012  45.2758232  35.9873102  -9.4472603
  48.7460012  21.7774997 -10.3930012  48.0720012  21.1484997 -10.1370012
  49.3100012  21.2934997 -10.9960012  48.7299230  21.6258744 -10.4394660
  53.8890012  19.8854997 -10.2800012  54.4930012  20.4324997 -10.7820012
  53.0190012  20.2044997 -10.5200012  53.8541241  20.0035806 -10.3812346
  55.6160012  21.0234997 -11.9470012  56.2280012  20.5094997 -12.4730012
  55.9980012  21.9014997 -11.9230012  55.7514540  21.0717140 -12.0158170
  41.0730012  20.4114997 -12.5710012  40.2960012  20.1774997 -13.0780012
  41.6030012  19.6144997 -12.5620012  41.0382330  20.2716988 -12.6392258
  39.9090012  20.2094997 -16.7670012  40.3480012  20.8204997 -17.3590012
  39.2760012  20.7474997 -16.2930012  39.8834514  20.3659257 -16.7839070
  45.6520012  20.3384997 -12.7570012  46.5270012  20.7264997 -12.7870012
  45.5160012  20.1234997 -11.8350012  45.7533695  20.3625184 -12.6363560
  51.2090012  20.3684997 -11.1080012  51.2850012  20.4634997 -12.0580012
  50.9340012  19.4604997 -10.9790012  51.1822321  20.2587867 -11.2204921
  52.5620012  20.3944997 -15.4160012  51.8600012  21.0094997 -15.6250012
  52.1180012  19.5564997 -15.2850012  52.4056330  20.3655783 -15.4269672
  39.8100012  36.1574997 -15.8690012  39.1250012  36.1194997 -16.5370012
  39.8140012  37.0704997 -15.5810012  39.7168193  36.2757016 -15.9214716
  41.7700012  22.1254997 -18.3250012  42.2620012  21.4954997 -18.8520012
  42.3940012  22.4214997 -17.6610012  41.9215446  22.0793199 -18.3074020
  46.7960012  22.4184997 -15.8680012  46.9740012  21.7724997 -15.1850012
  46.7430012  23.2524997 -15.4000012  46.8131829  22.4427985 -15.7114060
  48.6750012  37.3674997 -17.4720012  49.5410012  37.7334997 -17.6500012
  48.4280012  36.9274997 -18.2860012  48.7602392  37.3581756 -17.6063711
  55.3840012  36.9304997 -14.7930012  55.1890012  36.1824997 -15.3580012
  55.3450012  37.6884997 -15.3760012  55.3520380  36.9306099 -14.9491616
  41.0310012  20.9254997  -3.0530012  40.6650012  20.1604997  -2.6100012
  41.9440012  20.9544997  -2.7660012  41.1042790  20.8247224  -2.9535930
  43.0040012  20.2764997  -1.5170012  43.9020012  20.0024997  -1.7020012
  42.6170012  19.5334997  -1.0530012  43.0746612  20.1385914  -1.4796357
  41.6280012  37.0774997 -18.8440012  41.3610012  37.3644997 -17.9710012
  42.4000012  36.5314997 -18.6920012  41.6957488  37.0430294 -18.7038950
  51.4250012  19.6084997  -1.3350012  51.5020012  19.1824997  -0.4810012
  52.3190012  19.6224997  -1.6780012  51.5563428  19.5520879  -1.2644690
  54.6010012  35.6814997  -2.6430012  53.8190012  35.4954997  -3.1620012
  54.5290012  36.6104997  -2.4250012  54.4841777  35.7816492  -2.6845952
  69.0070012  29.5674997 -12.6120012  69.0960012  30.5114997 -12.7440012
  68.3690012  29.2924997 -13.2700012  68.9329081  29.6594830 -12.7190386
  67.9400012  28.8224997  -9.1930012  67.9020012  28.1764997  -8.4880012
  67.6180012  28.3564997  -9.9640012  67.8912333  28.6709408  -9.2007022
  60.3090012  28.4374997  -7.6000012  60.3500012  27.8114997  -6.8770012
  61.0120012  29.0614997  -7.4180012  60.4096363  28.4361196  -7.4763956
  71.6460012  31.7614997 -10.8920012  71.2060012  31.0414997 -10.4410012
  71.6330012  32.4824997 -10.2620012  71.5840226  31.7603731 -10.7451506
  61.2320012  32.8874997  -9.0650012  60.8630012  32.0854997  -9.4350012
  62.1730012  32.7184997  -9.0190012  61.3087289  32.7550153  -9.1093684
  57.8420012  26.5474997 -13.6720012  57.3950012  27.3934997 -13.6910012
  57.2810012  25.9674997 -14.1880012  57.7049900  26.5849916 -13.7443199
  58.5530012  28.7094997 -11.5460012  58.7660012  27.9394997 -11.0190012
  59.2910012  28.7984997 -12.1500012  58.6818496  28.6161394 -11.5554700
  68.7580012  36.8664997 -10.6790012  69.3780012  36.1894997 -10.9530012
  68.5500012  36.6484997  -9.7710012  68.8146904  36.7443870 -10.5936635
  66.3300012  31.2554997  -8.7870012  66.6340012  30.5694997  -9.3820012
  67.0510012  31.3734997  -8.1690012  66.4690671  31.1776305  -8.7848184
  74.9930012  22.8564997  -7.9260012  75.0420012  23.4664997  -7.1900012
  75.4180012  23.3174997  -8.6490012  75.0571824  23.0023741  -7.9229795
  69.4710012  25.6494997  -8.4590012  69.6130012  24.7034997  -8.4390012
  69.3640012  25.8564997  -9.3880012  69.4759864  25.5479534  -8.5817661
  62.6250012  23.7504997 -11.1870012  62.6690012  24.6104997 -11.6050012
  62.1680012  23.1984997 -11.8210012  62.5692185  23.7935799 -11.3299701
  70.3480012  23.8814997 -12.7860012  70.9940012  23.5524997 -12.1610012
  70.8580012  24.3994997 -13.4090012  70.5054264  23.9064611 -12.7846138
  59.2460012  26.1474997 -10.4250012  59.8990012  25.5974997  -9.9930012
  59.2700012  25.8734997 -11.3420012  59.3386683  26.0351466 -10.4897877
  64.4020012  27.6974997 -11.2100012  65.0180012  27.1714997 -10.7000012
  63.8160012  27.0574997 -11.6130012  64.4070810  27.5389208 -11.1946827
  75.3840012  24.3344997  -5.6900012  74.6960012  24.9924997  -5.7860012
  75.4000012  24.1374997  -4.7540012  75.2918525  24.3980462  -5.5765192
  61.4360012  22.6684997  -7.1130012  61.2170012  23.1984997  -7.8790012
  60.7680012  22.8954997  -6.4660012  61.3157600  22.7716906  -7.1303621
  68.8050012  32.1684997 -13.5690012  68.5090012  31.8464997 -14.4200012
  68.4800012  33.0684997 -13.5280012  68.7206371  32.2460215 -13.6798199
  64.0050012  30.3444997  -6.8260012  63.2650012  30.9424997  -6.7220012
  64.7190012  30.8984997  -7.1410012  64.0002237  30.5012831  -6.8543535
  72.1120012  23.1724997 -10.8060012  71.8960012  22.4064997 -10.2730012
  72.7670012  23.6444997 -10.2930012  72.1710632  23.1315889 -10.6637139
  61.0290012  24.5604997  -9.1610012  61.6430012  25.1934997  -8.7870012
  61.5410012  24.0884997  -9.8170012  61.1822296  24.5832370  -9.1985748
  62.4120012  32.3084997  -6.0380012  62.4070012  33.1884997  -6.4160012
  61.5590012  32.2254997  -5.6130012  62.2959464  32.4176117  -6.0322093
  58.5330012  31.9794997 -15.2560012  58.2610012  32.2084997 -16.1450012
  58.5790012  32.8174997 -14.7960012  58.5020094  32.1241213 -15.3154303
  72.1580012  33.6014997  -8.5440012  71.2170012  33.6594997  -8.3820012
  72.4350012  34.5074997  -8.6810012  72.0664679  33.7319443  -8.5403185
  72.4590012  21.8874997  -7.1260012  71.7230012  22.4984997  -7.1640012
  73.1420012  22.3024997  -7.6530012  72.4506541  22.0271374  -7.2024168
  65.4620012  19.9744997  -9.6600012  65.3450012  19.0254997  -9.7150012
  64.6070012  20.3064997  -9.3870012  65.3303733  19.8895409  -9.6306103
  70.4100012  35.3824997 -11.9180012  70.8360012  34.6754997 -12.4030012
  70.7270012  36.1834997 -12.3350012  70.5111019  35.3940994 -12.0406870
  71.5700012  33.2834997 -13.4100012  71.3120012  32.5934997 -14.0210012
  71.6410012  32.8404997 -12.5640012  71.5442856  33.1292124 -13.3793115
  73.2560012  31.8494997  -4.9320012  73.3960012  31.2584997  -5.6720012
  73.4230012  32.7224997  -5.2890012  73.2976778  31.8866426  -5.0813035
  67.7290012  28.8114997 -15.1600012  67.0170012  29.3464997 -15.5120012
  68.4200012  28.8674997 -15.8200012  67.7250132  28.8922543 -15.2973711
  67.7820012  27.2694997 -18.1210012  68.4830012  27.2914997 -17.4700012
  68.0850012  26.6414997 -18.7770012  67.9187830  27.1876566 -18.1206289
  75.0980012  28.1894997  -6.8660012  74.4450012  28.8844997  -6.7770012
  75.5630012  28.3994997  -7.6760012  75.0715390  28.3129425  -6.9633117
  71.1340012  29.0214997 -14.2080012  70.4020012  29.2494997 -13.6350012
  71.5820012  28.3074997 -13.7530012  71.0943095  28.9562571 -14.0680881
  71.0320012  27.1954997  -5.1410012  71.1120012  27.9584997  -4.5690012
  70.4300012  27.4744997  -5.8310012  70.9615756  27.3377134  -5.1559411
  62.7800012  29.6514997 -12.3260012  62.4490012  29.2814997 -13.1440012
  63.3680012  28.9814997 -11.9790012  62.8141873  29.5101156 -12.3911898
  64.1460012  33.0794997  -9.6440012  64.0520012  32.5014997 -10.4010012
  64.8760012  32.7084997  -9.1480012  64.2317981  32.9502390  -9.6805835
  63.1460012  28.4204997  -8.6920012  63.7120012  28.5414997  -9.4550012
  63.4650012  29.0574997  -8.0530012  63.2665786  28.5231884  -8.7099960
  69.4550012  33.9234997  -7.9580012  69.2150012  34.5854997  -7.3100012
  69.2570012  33.0894997  -7.5330012  69.3953808  33.9013134  -7.8118476
  64.0260012  32.8194997  -3.9750012  63.7150012  33.6014997  -3.5200012
  63.3760012  32.6664997  -4.6610012  63.8955558  32.9059105  -4.0054129
  70.0050012  28.1834997 -16.5230012  70.5850012  28.3334997 -15.7760012
  70.4190012  28.6544997 -17.2460012  70.1402830  28.2676841 -16.5185866
  60.9460012  29.0174997  -4.7460012  61.0170012  29.6684997  -4.0480012
  60.0560012  29.1204997  -5.0810012  60.8353117  29.1205936  -4.6957300
  67.7320012  34.9204997 -13.0880012  68.2060012  35.2154997 -12.3100012
  67.1690012  35.6584997 -13.3210012  67.7207653  35.0606932 -13.0129864
  62.2660012  34.8914997  -3.2120012  62.2730012  34.7554997  -4.1590012
  61.3500012  34.7734997  -2.9600012  62.1431714  34.8569430  -3.3075334
  73.7040012  19.9334997 -16.7100012  72.8040012  20.0724997 -16.4150012
  73.9560012  20.7644997 -17.1120012  73.6148702  20.0649074 -16.7239795
  61.7700012  28.7214997 -14.7360012  61.4780012  29.4894997 -15.2270012
  61.0960012  28.0614997 -14.8990012  61.6389081  28.7374406 -14.8252660
  74.8930012  34.2994997 -18.3340012  74.9670012  35.2384997 -18.1630012
  75.7990012  33.9944997 -18.3900012  75.0255100  34.3866722 -18.3181881
  57.8630012  31.0844997  -5.9210012  57.3620012  31.0564997  -6.7360012
  57.8680012  30.1784997  -5.6120012  57.7951526  30.9582278  -5.9907128
  57.6130012  33.8644997  -9.0370012  58.5590012  33.7204997  -9.0560012
  57.5010012  34.6484997  -8.5000012  57.7272727  33.9508046  -8.9669928
  75.8110012  34.5304997  -3.3550012  75.7620012  33.5754997  -3.3920012
  74.9840012  34.7984997  -2.9540012  75.6924940  34.4358998  -3.3058625
  66.7900012  34.1044997  -4.4790012  66.8770012  34.9304997  -4.0040012
  65.9260012  33.7744997  -4.2300012  66.6851964  34.1729878  -4.3803451
  67.2040012  37.8764997 -14.6730012  67.1290012  37.7554997 -15.6190012
  67.2370012  38.8264997 -14.5540012  67.1981848  37.9882500 -14.7865166
  60.8570012  36.6654997 -12.8920012  61.0100012  36.3174997 -12.0130012
  60.0070012  36.3094997 -13.1470012  60.7628962  36.5696650 -12.8061660
  70.3060012  37.0304997 -17.6710012  70.6810012  36.2864997 -18.1410012
  70.3100012  36.7604997 -16.7520012  70.3578915  36.8921486 -17.6112176
  69.9750012  36.9564997 -14.9210012  69.0390012  37.0564997 -14.7430012
  70.2550012  36.2474997 -14.3430012  69.8848255  36.8742711 -14.8184609
  72.9630012  26.0234997  -2.8750012  72.5560012  26.5044997  -3.5960012
  73.0040012  25.1184997  -3.1830012  72.9128437  25.9669374  -3.0153317
  60.1120012  32.4074997  -4.8780012  60.3280012  32.0464997  -4.0190012
  59.2570012  32.0334997  -5.0880012  60.0259292  32.3074111  -4.7886614
  62.7310012  20.8774997  -8.8830012  61.8690012  20.7904997  -9.2900012
  62.7080012  21.7334997  -8.4550012  62.6100330  20.9812765  -8.8808137
  67.3940012  20.5994997  -5.5080012  67.8140012  20.1844997  -4.7550012
  66.4610012  20.4214997  -5.3910012  67.3253644  20.5185900  -5.3890461
  70.7200012  24.3554997  -4.6550012  70.2060012  24.2294997  -3.8570012
  70.5650012  25.2674997  -4.8990012  70.6286852  24.4616132  -4.5787842
  71.4830012  29.2164997 -18.8930012  71.5250012  28.9934997 -19.8230012
  72.3320012  29.6154997 -18.7030012  71.6035396  29.2399155 -18.9946373
  67.0550012  23.0924997 -18.2230012  66.8020012  23.1114997 -17.3000012
  66.7990012  22.2204997 -18.5240012  66.9857790  22.9772437 -18.1373737
  62.8220012  25.8434997  -7.7880012  62.1800012  25.8024997  -7.0790012
  62.8590012  26.7694997  -8.0250012  62.7391324  25.9631559  -7.7230176
  62.8190012  26.0644997 -12.8760012  61.9260012  25.7234997 -12.9340012
  63.2690012  25.6874997 -13.6310012  62.7577305  25.9668484 -12.9860823
  68.3540012  26.4804997 -14.0590012  67.9450012  27.2954997 -14.3500012
  69.0750012  26.3404997 -14.6730012  68.3954537  26.5732018 -14.1818658
  67.4560012  26.6554997  -2.5710012  66.8940012  25.9514997  -2.2500012
  68.2830012  26.5354997  -2.1030012  67.4907095  26.5427883  -2.4637670
  69.3590012  25.9264997 -11.2450012  69.1640012  26.5314997 -11.9600012
  69.5400012  25.0924997 -11.6790012  69.3567614  25.8966300 -11.4015595
  60.5720012  26.1634997  -5.9210012  60.5340012  26.5634997  -5.0520012
  60.0810012  25.3464997  -5.8300012  60.5004684  26.1078069  -5.7898941
  63.9380012  23.5374997 -19.1220012  63.5070012  23.0924997 -18.3920012
  63.2200012  23.9094997 -19.6340012  63.7819438  23.5268940 -19.0913201
  57.1800012  23.2794997 -12.0700012  57.8110012  23.2504997 -11.3510012
  57.6290012  22.8544997 -12.8000012  57.3270774  23.2180492 -12.0703447
  58.4540012  24.0254997 -16.6460012  58.9280012  24.6164997 -17.2310012
  57.7370012  24.5564997 -16.2990012  58.4219341  24.1780867 -16.6791164
  68.6230012  27.5644997  -6.5730012  68.9460012  26.9334997  -7.2160012
  68.1830012  27.0294997  -5.9130012  68.6076895  27.4058440  -6.5717150
  65.4000012  23.4914997 -11.7890012  64.4890012  23.5484997 -11.5010012
  65.9060012  23.4314997 -10.9790012  65.3435413  23.4911985 -11.6399378
  60.2290012  25.1204997 -12.9630012  59.3390012  25.2204997 -13.3030012
  60.5250012  24.2784997 -13.3090012  60.1472823  25.0203545 -13.0562787
  63.8820012  25.1204997 -15.3060012  64.8130012  25.2494997 -15.1280012
  63.6670012  25.7904997 -15.9560012  63.9804247  25.2286565 -15.3694253
  69.8050012  22.7264997  -8.5250012  69.1290012  22.8574997  -7.8610012
  69.3200012  22.5714997  -9.3350012  69.6467145  22.7234905  -8.5435483
  62.5560012  26.3154997 -17.7390012  62.0130012  25.9354997 -18.4310012
  63.3890012  26.5094997 -18.1680012  62.5944399  26.2898124 -17.8915474
  73.0930012  38.3984997  -2.2480012  73.2930012  38.8224997  -3.0830012
  73.7480012  38.7414997  -1.6410012  73.2090051  38.5029648  -2.2802164
  60.6910012  30.8724997  -2.6400012  61.4230012  31.1264997  -2.0790012
  59.9110012  31.0764997  -2.1250012  60.6858232  30.9349177  -2.4934240
  66.7200012  26.2794997  -9.9020012  67.2850012  25.7324997 -10.4490012
  66.5730012  25.7574997  -9.1140012  66.7772918  26.1342024  -9.8701546
  61.7220012  22.4154997 -13.4840012  61.4050012  21.5134997 -13.5190012
  62.5040012  22.4174997 -14.0370012  61.7842284  22.2921628 -13.5635217
  65.3470012  24.6674997  -7.4880012  64.5110012  25.1214997  -7.3780012
  65.8710012  24.9434997  -6.7360012  65.3034414  24.7669376  -7.3712864
  65.8910012  30.8804997 -15.8040012  65.1460012  30.3734997 -16.1260012
  65.7570012  30.9294997 -14.8570012  65.7708776  30.8176940 -15.7201353
  73.0410012  30.0134997  -7.0170012  73.6830012  30.4704997  -7.5610012
  72.2110012  30.1264997  -7.4800012  73.0165963  30.0912704  -7.1539823
  69.7890012  23.6944997 -17.6040012  68.8500012  23.8064997 -17.7560012
  70.0860012  24.5514997 -17.2980012  69.7007666  23.8256443 -17.5834232
  67.4100012  31.0644997  -4.5670012  67.0650012  30.6834997  -3.7600012
  67.2100012  31.9984997  -4.4950012  67.3358061  31.1385228  -4.4469039
  70.5070012  25.5614997 -15.9440012  71.3990012  25.4244997 -15.6250012
  70.5640012  26.3524997 -16.4800012  70.6366285  25.6496660 -15.9728309
  61.0160012  30.1754997 -10.0340012  61.7610012  30.1734997 -10.6350012
  61.0940012  29.3524997  -9.5520012  61.1285518  30.0639315 -10.0511071
  68.0170012  32.3394997 -16.7780012  67.7210012  33.1654997 -16.3970012
  67.3140012  31.7194997 -16.5820012  67.8814914  32.3688199 -16.6993557
  58.0240012  28.6364997  -4.7190012  58.2470012  28.2184997  -3.8870012
  57.4220012  28.0234997  -5.1420012  57.9731759  28.4964668  -4.6622978
  65.0400012  28.1534997  -2.5060012  64.7440012  27.9874997  -3.4010012
  65.9720012  27.9334997  -2.5170012  65.1254166  28.1010640  -2.6299464
  69.6610012  33.5264997  -4.6160012  68.7600012  33.7094997  -4.8840012
  69.6950012  33.7854997  -3.6950012  69.5423041  33.5865512  -4.5281803
  75.3920012  25.7714997 -16.2490012  74.8380012  25.3754997 -16.9210012
  75.4920012  26.6814997 -16.5270012  75.3297059  25.8403586 -16.3785599
  75.3550012  31.5714997  -3.4120012  74.5040012  31.8094997  -3.7790012
  75.9460012  31.5544997  -4.1650012  75.3182487  31.6018258  -3.5641107
  73.6870012  34.5574997 -15.7840012  73.3140012  33.7314997 -15.4750012
  73.9650012  34.3744997 -16.6810012  73.6735630  34.4197303 -15.8630374
  70.8480012  29.3654997  -8.7630012  69.9190012  29.1334997  -8.7900012
  71.2990012  28.5884997  -9.0930012  70.7819216  29.2287238  -8.8113083
  63.3910012  33.6934997 -12.6300012  63.9180012  34.4664997 -12.8300012
  62.5110012  33.9184997 -12.9310012  63.3441773  33.8298005 -12.6980990
  59.1460012  28.5554997 -18.0430012  59.7620012  29.1824997 -17.6630012
  58.2840012  28.8714997 -17.7710012  59.1137698  28.6839430 -17.9542817
  64.8180012  31.3564997 -13.0530012  64.5770012  32.2814997 -13.0120012
  64.0770012  30.8974997 -12.6570012  64.6848409  31.4211421 -12.9938623
  65.3330012  35.5054997  -6.7380012  65.6950012  36.3604997  -6.9720012
  65.8640012  35.2134997  -5.9980012  65.4544473  35.5831060  -6.6699145
  63.5010012  36.3784997 -13.5080012  62.5510012  36.4834997 -13.4570012
  63.8530012  37.1984997 -13.1630012  63.4184203  36.5038314 -13.4543350
  68.8770012  31.6044997  -7.0380012  68.4510012  31.3774997  -6.2110012
  69.4570012  30.8664997  -7.2200012  68.8971868  31.4735299  -6.9494170
  71.0800012  32.5334997 -17.9640012  71.4330012  32.1534997 -17.1590012
  70.1310012  32.4404997 -17.8770012  71.0000441  32.4689596 -17.8421441
  71.5350012  36.1564997  -4.5680012  70.9340012  35.6014997  -5.0640012
  71.8170012  36.8234997  -5.1940012  71.4908519  36.1706841  -4.7205048
  75.5830012  37.0134997 -17.7630012  76.3270012  37.5994997 -17.9030012
  74.8890012  37.5814997 -17.4290012  75.5910292  37.1705582 -17.7370039
  59.6580012  23.3894997  -5.1610012  58.7650012  23.7284997  -5.2290012
  59.5590012  22.5344997  -4.7430012  59.5224164  23.3202588  -5.1137765
  71.9460012  31.2064997 -15.7370012  71.6680012  30.4784997 -15.1810012
  72.8730012  31.3254997 -15.5320012  72.0333124  31.1228802 -15.6331155
  59.3090012  35.1944997  -6.7260012  59.5260012  34.2624997  -6.7570012
  59.5550012  35.4684997  -5.8430012  59.3719549  35.1040636  -6.6108237
  65.1710012  33.6454997 -19.5170012  65.4100012  32.8974997 -20.0640012
  64.9020012  33.2574997 -18.6840012  65.1673675  33.4906638 -19.4793135
  64.1080012  33.2154997 -17.0600012  64.2540012  32.6954997 -16.2700012
  64.1050012  34.1224997 -16.7540012  64.1275989  33.2668853 -16.9103912
  60.5610012  30.4684997 -16.5500012  59.8750012  30.8204997 -15.9830012
  61.0830012  31.2314997 -16.7970012  60.5376852  30.6198578 -16.5057882
  68.3920012  23.1304997  -6.2710012  69.0910012  23.2044997  -5.6210012
  68.0110012  22.2664997  -6.1170012  68.4361767  23.0237624  -6.1611678
  69.1770012  22.7824997 -15.1740012  69.3970012  23.2544997 -15.9770012
  69.7350012  23.1774997 -14.5040012  69.2824968  22.9004285 -15.1932669
  66.8450012  34.9134997 -16.3110012  66.0290012  35.4104997 -16.2590012
  67.3750012  35.3884997 -16.9510012  66.8049161  35.0457722 -16.3904044
  66.3770012  24.5104997 -14.3390012  67.1890012  25.0154997 -14.2930012
  66.1320012  24.3654997 -13.4250012  66.4550520  24.5600375 -14.2091483
  66.9120012  25.4964997  -5.1540012  67.0310012  26.0704997  -4.3970012
  67.5680012  24.8084997  -5.0400012  67.0169757  25.4821079  -5.0349175
  67.2600012  21.5914997 -13.4010012  66.9140012  22.2094997 -12.7560012
  67.9190012  22.0924997 -13.8820012  67.3017826  21.7435802 -13.3779029
  64.1840012  35.9574997 -16.3290012  64.3440012  36.7564997 -16.8300012
  63.9860012  36.2634997 -15.4440012  64.1791649  36.1084469 -16.2780185
  62.9180012  22.6544997 -16.7140012  62.8350012  23.5434997 -16.3670012
  63.8080012  22.3894997 -16.4820012  63.0269469  22.7401430 -16.6352374
  73.1170012  23.4034997  -4.3190012  72.2000012  23.6664997  -4.4070012
  73.4520012  23.4004997  -5.2160012  73.0369900  23.4390224  -4.4522081
  71.7190012  27.1544997 -10.2240012  70.9210012  26.7394997 -10.5520012
  72.1640012  26.4634997  -9.7330012  71.6699885  27.0043543 -10.2025111
  61.1770012  33.0824997 -17.6530012  61.7690012  33.7814997 -17.3770012
  61.6360012  32.6494997 -18.3730012  61.3201142  33.1197049 -17.7125170
  59.4930012  25.7464997 -18.5370012  59.4480012  26.6854997 -18.3590012
  58.6050012  25.5104997 -18.8070012  59.3668574  25.8431892 -18.5491088
  72.8050012  36.4104997  -8.6010012  72.6500012  37.0884997  -9.2580012
  73.7380012  36.4824997  -8.3980012  72.9098500  36.5130170  -8.6634881
  60.3010012  20.5284997  -9.8640012  60.0720012  20.5874997 -10.7920012
  59.8580012  19.7364997  -9.5580012  60.2098530  20.4295753  -9.9495214
  59.2310012  34.4684997 -13.7040012  58.3990012  34.9414997 -13.6760012
  59.7770012  34.9784997 -14.3020012  59.1909739  34.6021871 -13.7810284
  58.5190012  37.0814997  -2.3740012  59.0600012  36.8644997  -1.6140012
  58.0380012  36.2754997  -2.5630012  58.5279345  36.9429514  -2.2956924
  63.1170012  36.0004997  -0.7530012  63.8840012  35.5414997  -0.4120012
  63.0950012  35.7744997  -1.6830012  63.2191434  35.9070409  -0.8319957
  67.2090012  35.5084997 -19.3780012  66.5650012  34.8774997 -19.0570012
  67.9710012  34.9774997 -19.6100012  67.2238077  35.3502920 -19.3653989
  69.6940012  34.3804997  -2.0240012  69.3430012  33.5244997  -1.7810012
  70.4200012  34.5234997  -1.4170012  69.7440769  34.2825636  -1.9086381
  71.8130012  35.3254997 -19.1440012  72.0960012  34.5314997 -18.6920012
  72.5530012  35.5584997 -19.7050012  71.9517486  35.2482803 -19.1579302
  58.4260012  30.8914997  -1.4190012  58.5700012  29.9894997  -1.7060012
  57.6540012  31.1774997  -1.9070012  58.3413323  30.8068261  -1.5242119
  62.7680012  31.2354997 -19.2870012  62.8320012  30.4414997 -18.7560012
  63.4210012  31.1164997 -19.9770012  62.8650241  31.1107148 -19.3075683
  65.0820012  30.8614997  -1.9870012  64.7530012  31.1324997  -2.8440012
  65.2340012  29.9204997  -2.0740012  65.0574809  30.7713862  -2.1161756
  70.8160012  30.7774997  -4.6030012  71.5620012  31.3654997  -4.7230012
  70.0590012  31.3594997  -4.5400012  70.8157554  30.9367011  -4.6109093
  59.2590012  28.0914997  -1.9990012  59.6670012  27.2344997  -2.1200012
  58.9990012  28.1064997  -1.0780012  59.2797568  27.9760807  -1.8910412
  63.9170012  29.2074997 -16.9810012  63.4570012  28.7234997 -16.2950012
  64.1720012  28.5394997 -17.6170012  63.8884902  29.0508731 -16.9730666
  63.2060012  27.1004997  -4.6250012  62.5880012  27.7754997  -4.3450012
  63.5500012  27.4214997  -5.4580012  63.1679615  27.2362721  -4.6993419
  64.9880012  27.4504997 -18.7190012  64.8080012  27.2964997 -19.6460012
  65.9380012  27.5584997 -18.6740012  65.0917776  27.4440175 -18.8398157
  68.2260012  29.5724997  -1.3480012  69.1790012  29.6554997  -1.3750012
  68.0650012  28.8604997  -0.7280012  68.3346426  29.4876746  -1.2679421
  74.3780012  29.8054997 -19.2730012  74.1040012  29.3804997 -20.0860012
  74.4170012  30.7364997 -19.4900012  74.3457699  29.8732484 -19.4136390
  63.5450012  24.4554997  -3.5430012  63.6950012  23.7264997  -4.1450012
  63.5480012  25.2324997  -4.1020012  63.5659302  24.4607851  -3.7009308
  63.9580012  22.8254997  -6.0500012  64.4940012  23.2764997  -6.7020012
  63.1060012  22.7174997  -6.4730012  63.9162178  22.8726390  -6.1964244
  65.5400012  28.2644997  -5.8110012  66.2900012  28.1084997  -6.3840012
  65.2010012  29.1164997  -6.0860012  65.5968921  28.3582968  -5.9266439
  69.9550012  26.0794997  -0.7820012  70.1480012  25.1484997  -0.8940012
  70.8130012  26.5044997  -0.7920012  70.0973020  26.0096389  -0.7986639
  71.2720012  28.8684997  -2.7050012  70.9910012  29.5774997  -3.2820012
  72.2150012  28.7954997  -2.8560012  71.3609027  28.9557646  -2.8044449
  62.0240012  25.6534997  -1.6310012  61.2570012  25.1214997  -1.8410012
  62.7030012  25.3434997  -2.2310012  62.0107022  25.5387506  -1.7408352
  64.7640012  20.2814997  -5.6190012  64.6650012  21.2284997  -5.7240012
  64.0210012  19.9094997  -6.0940012  64.6500564  20.3605902  -5.6975440
  66.0280012  24.6034997  -2.0550012  65.7920012  24.3834997  -1.1530012
  65.2440012  24.3964997  -2.5650012  65.8898628  24.5454760  -2.0006068
  68.7430012  23.7304997  -2.9790012  67.7960012  23.7624997  -2.8470012
  69.0560012  23.1054997  -2.3260012  68.6555475  23.6503207  -2.8725545
  70.3770012  22.3644997  -0.9740012  70.2810012  21.4124997  -0.9800012
  70.0560012  22.6334997  -0.1140012  70.3204070  22.2704035  -0.8584559
  60.2040012  23.5744997  -1.9270012  60.4160012  22.8674997  -2.5370012
  60.0930012  23.1364997  -1.0830012  60.2179721  23.4187084  -1.8963157
  64.9850012  19.5754997  -2.9470012  65.6970012  18.9354997  -2.9610012
  64.8840012  19.8424997  -3.8610012  65.0687939  19.5239938  -3.0724350
  65.3390012  21.2584997  -0.8940012  65.2070012  20.7824997  -1.7140012
  64.7400012  22.0024997  -0.9490012  65.2399071  21.2939618  -1.0137114
  64.8850012  38.1414997 -17.7170012  65.8180012  38.2994997 -17.5740012
  64.6210012  38.8164997 -18.3420012  64.9769510  38.2543611 -17.7819259
  58.4540012  32.7774997 -18.2350012  59.3680012  32.8564997 -17.9610012
  58.4610012  32.0904997 -18.9010012  58.5801131  32.6953961 -18.2875607
  57.1030012  38.1704997 -13.1570012  56.4560012  37.7084997 -13.6900012
  57.4570012  37.4984997 -12.5750012  57.0623849  38.0164723 -13.1512041
  57.9730012  36.2514997 -11.3530012  57.6380012  35.3714997 -11.1810012
  58.1950012  36.5964997 -10.4880012  57.9571783  36.1777500 -11.2125792
  75.5210012  37.0604997  -8.3720012  75.5000012  37.2454997  -7.4330012
  76.2120012  37.6294997  -8.7130012  75.6114618  37.1626606  -8.2896136
  75.0850012  36.6284997  -5.4500012  74.5970012  35.8924997  -5.8210012
  75.6340012  36.2344997  -4.7720012  75.0924872  36.4746249  -5.4090840
  73.5350012  32.4174997  -0.8120012  72.6690012  32.3124997  -0.4180012
  73.9120012  33.1764997  -0.3660012  73.4673308  32.5056900  -0.6977607
  74.8360012  30.6744997 -15.2980012  75.6860012  31.0954997 -15.1710012
  74.8420012  29.9344997 -14.6910012  74.9531372  30.6320803 -15.1985656
  75.2310012  28.7274997 -13.4740012  74.5040012  28.2484997 -13.0770012
  75.8120012  28.9334997 -12.7420012  75.2099375  28.6897090 -13.3205871
  74.9900012  31.5124997  -8.5270012  75.8230012  31.1344997  -8.8070012
  75.1020012  32.4554997  -8.6460012  75.1192647  31.5882218  -8.5814513
  73.4760012  34.3904997  -6.2200012  72.8290012  34.7154997  -5.5940012
  72.9590012  33.9504997  -6.8940012  73.3174029  34.3755004  -6.2254173
  75.4990012  28.6284997 -17.0830012  74.9770012  28.9854997 -17.8020012
  75.4660012  29.3034997 -16.4050012  75.4231634  28.7685413 -17.0896855
  73.8480012  25.8684997 -18.5320012  73.9440012  26.5354997 -19.2130012
  73.7080012  25.0524997 -19.0140012  73.8422135  25.8494500 -18.6901509
  73.0170012  27.2484997 -12.9110012  72.8670012  26.3034997 -12.9320012
  72.6640012  27.5294997 -12.0680012  72.9486625  27.1570441 -12.7997654
  58.0530012  29.3264997  -8.9010012  58.2370012  29.2444997  -9.8370012
  58.9020012  29.2024997  -8.4770012  58.1930139  29.2985003  -8.9718545
  73.8740012  29.2184997  -3.2730012  74.4570012  28.4844997  -3.0810012
  74.4380012  29.9904997  -3.2260012  74.0299769  29.2224227  -3.2403841
  75.3700012  27.1214997  -2.5880012  74.5070012  26.7424997  -2.7540012
  75.9750012  26.3824997  -2.6620012  75.3335979  26.9698023  -2.6207183
  73.0950012  23.2764997 -19.4150012  73.7060012  22.9054997 -18.7780012
  72.2590012  22.8554997 -19.2190012  73.0655032  23.1687554 -19.3012965
  72.7280012  24.8314997 -14.4490012  73.0080012  23.9244997 -14.3250012
  73.4870012  25.2654997 -14.8380012  72.8689277  24.7660942 -14.4846318
  73.3400012  25.4124997  -9.0130012  74.2730012  25.6244997  -9.0470012
  73.1050012  25.5144997  -8.0910012  73.4358036  25.4552769  -8.8930024
  73.3690012  26.1494997  -6.2370012  72.5260012  26.4174997  -5.8710012
  73.8110012  26.9714997  -6.4480012  73.3134158  26.2973291  -6.2154509
  57.6500012  24.5974997  -2.7600012  58.5700012  24.4754997  -2.5240012
  57.2010012  23.8474997  -2.3710012  57.7151580  24.4793727  -2.6750994
  75.6520012  20.1294997  -0.8840012  76.0020012  19.4754997  -1.4890012
  75.7990012  20.9664997  -1.3230012  75.7198419  20.1531591  -1.0262882
  73.3410012  22.0944997 -14.4010012  73.5240012  21.6454997 -13.5750012
  72.7420012  21.5094997 -14.8640012  73.2850202  21.9539975 -14.3506725
  58.8710012  22.9094997  -9.8690012  59.3170012  22.1174997  -9.5670012
  59.3380012  23.6254997  -9.4380012  58.9950172  22.8980624  -9.7695180
  57.1750012  25.9084997  -8.8000012  57.6670012  25.6874997  -9.5910012
  57.5380012  26.7494997  -8.5190012  57.2913126  25.9918357  -8.8702469
  75.1720012  22.2384997  -2.5340012  74.2540012  22.5094997  -2.5700012
  75.2950012  21.7034997  -3.3190012  75.0631066  22.2032892  -2.6449513
  75.2080012  22.1614997 -17.8730012  75.6200012  21.4404997 -18.3480012
  75.8900012  22.8314997 -17.8140012  75.3565885  22.1532368 -17.9301085
  57.4890012  22.1664997 -14.7460012  56.5640012  22.3754997 -14.8750012
  57.9430012  22.6504997 -15.4350012  57.4237368  22.2605993 -14.8568774
  72.2600012  37.1504997 -12.8000012  72.9120012  36.8034997 -13.4080012
  72.7700012  37.6394997 -12.1540012  72.4182637  37.1690597 -12.7959764
  57.4530012  20.9044997  -6.4010012  56.7880012  20.6584997  -5.7580012
  57.0100012  21.5264997  -6.9790012  57.3020956  20.9548632  -6.3910648
  59.6450012  34.0794997  -2.2570012  58.8240012  34.2544997  -2.7170012
  59.3920012  34.0064997  -1.3360012  59.4986164  34.0935622  -2.1955077
  62.5990012  35.0544997  -5.9980012  62.1740012  35.8634997  -6.2810012
  63.5030012  35.1394997  -6.3000012  62.6630271  35.1768469  -6.0776224
  66.9100012  36.4534997  -3.0390012  67.0950012  36.1194997  -2.1610012
  67.7560012  36.7624997  -3.3610012  67.0497539  36.4496047  -2.9624395
  69.2550012  37.7394997  -3.7950012  69.9320012  37.1064997  -4.0350012
  69.5770012  38.1404997  -2.9880012  69.3911637  37.7071154  -3.7187207
  74.1720012  20.3284997  -4.7150012  73.3600012  20.6534997  -5.1030012
  74.4050012  19.5684997  -5.2480012  74.0923423  20.2702436  -4.8401747
  60.0010012  38.3104997  -5.9510012  59.2800012  38.7504997  -6.4020012
  59.6350012  38.0594997  -5.1020012  59.8529804  38.3367698  -5.8980160
  62.4680012  37.9104997  -6.9210012  61.6030012  37.9824997  -6.5170012
  62.4130012  38.4574997  -7.7050012  62.3422085  37.9942685  -6.9716638
  67.1780012  37.7984997  -7.7460012  66.7220012  38.3274997  -8.4000012
  67.3410012  38.4014997  -7.0200012  67.1375585  37.9524468  -7.7374938
  69.5060012  36.6764997  -6.8010012  68.6010012  36.8414997  -7.0660012
  69.9350012  37.5294997  -6.8660012  69.4400799  36.8144483  -6.8460818
  72.1100012  38.2464997  -6.5060012  71.9280012  39.1624997  -6.7160012
  72.2870012  37.8364997  -7.3520012  72.1090210  38.3164822  -6.6492115
  59.4150012  36.9334997  -9.0410012  59.3970012  36.5084997  -8.1830012
  60.2200012  36.6154997  -9.4490012  59.5213875  36.8323812  -8.9788345
  61.5570012  35.6434997 -10.3860012  61.3380012  34.7274997 -10.2160012
  62.3810012  35.7834997  -9.9200012  61.6384420  35.5370520 -10.2997226
  64.0940012  36.1134997  -9.5370012  64.3070012  35.2254997  -9.8240012
  64.1580012  36.0794997  -8.5830012  64.1318232  35.9873102  -9.4472603
  67.6020012  21.7774997 -10.3930012  66.9280012  21.1484997 -10.1370012
  68.1660012  21.2934997 -10.9960012  67.5859230  21.6258744 -10.4394660
  72.7450012  19.8854997 -10.2800012  73.3490012  20.4324997 -10.7820012
  71.8750012  20.2044997 -10.5200012  72.7101241  20.0035806 -10.3812346
  74.4720012  21.0234997 -11.9470012  75.0840012  20.5094997 -12.4730012
  74.8540012  21.9014997 -11.9230012  74.6074540  21.0717140 -12.0158170
  59.9290012  20.4114997 -12.5710012  59.1520012  20.1774997 -13.0780012
  60.4590012  19.6144997 -12.5620012  59.8942330  20.2716988 -12.6392258
  58.7650012  20.2094997 -16.7670012  59.2040012  20.8204997 -17.3590012
  58.1320012  20.7474997 -16.2930012  58.7394514  20.3659257 -16.7839070
  64.5080012  20.3384997 -12.7570012  65.3830012  20.7264997 -12.7870012
  64.3720012  20.1234997 -11.8350012  64.6093695  20.3625184 -12.6363560
  70.0650012  20.3684997 -11.1080012  70.1410012  20.4634997 -12.0580012
  69.7900012  19.4604997 -10.9790012  70.0382321  20.2587867 -11.2204921
  71.4180012  20.3944997 -15.4160012  70.7160012  21.0094997 -15.6250012
  70.9740012  19.5564997 -15.2850012  71.2616330  20.3655783 -15.4269672
  58.6660012  36.1574997 -15.8690012  57.9810012  36.1194997 -16.5370012
  58.6700012  37.0704997 -15.5810012  58.5728193  36.2757016 -15.9214716
  60.6260012  22.1254997 -18.3250012  61.1180012  21.4954997 -18.8520012
  61.2500012  22.4214997 -17.6610012  60.7775446  22.0793199 -18.3074020
  65.6520012  22.4184997 -15.8680012  65.8300012  21.7724997 -15.1850012
  65.5990012  23.2524997 -15.4000012  65.6691829  22.4427985 -15.7114060
  67.5310012  37.3674997 -17.4720012  68.3970012  37.7334997 -17.6500012
  67.2840012  36.9274997 -18.2860012  67.6162392  37.3581756 -17.6063711
  74.2400012  36.9304997 -14.7930012  74.0450012  36.1824997 -15.3580012
  74.2010012  37.6884997 -15.3760012  74.2080380  36.9306099 -14.9491616
  59.8870012  20.9254997  -3.0530012  59.5210012  20.1604997  -2.6100012
  60.8000012  20.9544997  -2.7660012  59.9602790  20.8247224  -2.9535930
  61.8600012  20.2764997  -1.5170012  62.7580012  20.0024997  -1.7020012
  61.4730012  19.5334997  -1.0530012  61.9306612  20.1385914  -1.4796357
  60.4840012  37.0774997 -18.8440012  60.2170012  37.3644997 -17.9710012
  61.2560012  36.5314997 -18.6920012  60.5517488  37.0430294 -18.7038950
  70.2810012  19.6084997  -1.3350012  70.3580012  19.1824997  -0.4810012
  71.1750012  19.6224997  -1.6780012  70.4123428  19.5520879  -1.2644690
  73.4570012  35.6814997  -2.6430012  72.6750012  35.4954997  -3.1620012
  73.3850012  36.6104997  -2.4250012  73.3401777  35.7816492  -2.6845952
  87.8630012  29.5674997 -12.6120012  87.9520012  30.5114997 -12.7440012
  87.2250012  29.2924997 -13.2700012  87.7889081  29.6594830 -12.7190386
  86.7960012  28.8224997  -9.1930012  86.7580012  28.1764997  -8.4880012
  86.4740012  28.3564997  -9.9640012  86.7472333  28.6709408  -9.2007022
  79.1650012  28.4374997  -7.6000012  79.2060012  27.8114997  -6.8770012
  79.8680012  29.0614997  -7.4180012  79.2656363  28.4361196  -7.4763956
  90.5020012  31.7614997 -10.8920012  90.0620012  31.0414997 -10.4410012
  90.4890012  32.4824997 -10.2620012  90.4400226  31.7603731 -10.7451506
  80.0880012  32.8874997  -9.0650012  79.7190012  32.0854997  -9.4350012
  81.0290012  32.7184997  -9.0190012  80.1647289  32.7550153  -9.1093684
  76.6980012  26.5474997 -13.6720012  76.2510012  27.3934997 -13.6910012
  76.1370012  25.9674997 -14.1880012  76.5609900  26.5849916 -13.7443199
  77.4090012  28.7094997 -11.5460012  77.6220012  27.9394997 -11.0190012
  78.1470012  28.7984997 -12.1500012  77.5378496  28.6161394 -11.5554700
  87.6140012  36.8664997 -10.6790012  88.2340012  36.1894997 -10.9530012
  87.4060012  36.6484997  -9.7710012  87.6706904  36.7443870 -10.5936635
  85.1860012  31.2554997  -8.7870012  85.4900012  30.5694997  -9.3820012
  85.9070012  31.3734997  -8.1690012  85.3250671  31.1776305  -8.7848184
  93.8490012  22.8564997  -7.9260012  93.8980012  23.4664997  -7.1900012
  94.2740012  23.3174997  -8.6490012  93.9131824  23.0023741  -7.9229795
  88.3270012  25.6494997  -8.4590012  88.4690012  24.7034997  -8.4390012
  88.2200012  25.8564997  -9.3880012  88.3319864  25.5479534  -8.5817661
  81.4810012  23.7504997 -11.1870012  81.5250012  24.6104997 -11.6050012
  81.0240012  23.1984997 -11.8210012  81.4252185  23.7935799 -11.3299701
  89.2040012  23.8814997 -12.7860012  89.8500012  23.5524997 -12.1610012
  89.7140012  24.3994997 -13.4090012  89.3614264  23.9064611 -12.7846138
  78.1020012  26.1474997 -10.4250012  78.7550012  25.5974997  -9.9930012
  78.1260012  25.8734997 -11.3420012  78.1946683  26.0351466 -10.4897877
  83.2580012  27.6974997 -11.2100012  83.8740012  27.1714997 -10.7000012
  82.6720012  27.0574997 -11.6130012  83.2630810  27.5389208 -11.1946827
  94.2400012  24.3344997  -5.6900012  93.5520012  24.9924997  -5.7860012
  94.2560012  24.1374997  -4.7540012  94.1478525  24.3980462  -5.5765192
  80.2920012  22.6684997  -7.1130012  80.0730012  23.1984997  -7.8790012
  79.6240012  22.8954997  -6.4660012  80.1717600  22.7716906  -7.1303621
  87.6610012  32.1684997 -13.5690012  87.3650012  31.8464997 -14.4200012
  87.3360012  33.0684997 -13.5280012  87.5766371  32.2460215 -13.6798199
  82.8610012  30.3444997  -6.8260012  82.1210012  30.9424997  -6.7220012
  83.5750012  30.8984997  -7.1410012  82.8562237  30.5012831  -6.8543535
  90.9680012  23.1724997 -10.8060012  90.7520012  22.4064997 -10.2730012
  91.6230012  23.6444997 -10.2930012  91.0270632  23.1315889 -10.6637139
  79.8850012  24.5604997  -9.1610012  80.4990012  25.1934997  -8.7870012
  80.3970012  24.0884997  -9.8170012  80.0382296  24.5832370  -9.1985748
  81.2680012  32.3084997  -6.0380012  81.2630012  33.1884997  -6.4160012
  80.4150012  32.2254997  -5.6130012  81.1519464  32.4176117  -6.0322093
  77.3890012  31.9794997 -15.2560012  77.1170012  32.2084997 -16.1450012
  77.4350012  32.8174997 -14.7960012  77.3580094  32.1241213 -15.3154303
  91.0140012  33.6014997  -8.5440012  90.0730012  33.6594997  -8.3820012
  91.2910012  34.5074997  -8.6810012  90.9224679  33.7319443  -8.5403185
  91.3150012  21.8874997  -7.1260012  90.5790012  22.4984997  -7.1640012
  91.9980012  22.3024997  -7.6530012  91.3066541  22.0271374  -7.2024168
  84.3180012  19.9744997  -9.6600012  84.2010012  19.0254997  -9.7150012
  83.4630012  20.3064997  -9.3870012  84.1863733  19.8895409  -9.6306103
  89.2660012  35.3824997 -11.9180012  89.6920012  34.6754997 -12.4030012
  89.5830012  36.1834997 -12.3350012  89.3671019  35.3940994 -12.0406870
  90.4260012  33.2834997 -13.4100012  90.1680012  32.5934997 -14.0210012
  90.4970012  32.8404997 -12.5640012  90.4002856  33.1292124 -13.3793115
  92.1120012  31.8494997  -4.9320012  92.2520012  31.2584997  -5.6720012
  92.2790012  32.7224997  -5.2890012  92.1536778  31.8866426  -5.0813035
  86.5850012  28.8114997 -15.1600012  85.8730012  29.3464997 -15.5120012
  87.2760012  28.8674997 -15.8200012  86.5810132  28.8922543 -15.2973711
  86.6380012  27.2694997 -18.1210012  87.3390012  27.2914997 -17.4700012
  86.9410012  26.6414997 -18.7770012  86.7747830  27.1876566 -18.1206289
  93.9540012  28.1894997  -6.8660012  93.3010012  28.8844997  -6.7770012
  94.4190012  28.3994997  -7.6760012  93.9275390  28.3129425  -6.9633117
  89.9900012  29.0214997 -14.2080012  89.2580012  29.2494997 -13.6350012
  90.4380012  28.3074997 -13.7530012  89.9503095  28.9562571 -14.0680881
  89.8880012  27.1954997  -5.1410012  89.9680012  27.9584997  -4.5690012
  89.2860012  27.4744997  -5.8310012  89.8175756  27.3377134  -5.1559411
  81.6360012  29.6514997 -12.3260012  81.3050012  29.2814997 -13.1440012
  82.2240012  28.9814997 -11.9790012  81.6701873  29.5101156 -12.3911898
  83.0020012  33.0794997  -9.6440012  82.9080012  32.5014997 -10.4010012
  83.7320012  32.7084997  -9.1480012  83.0877981  32.9502390  -9.6805835
  82.0020012  28.4204997  -8.6920012  82.5680012  28.5414997  -9.4550012
  82.3210012  29.0574997  -8.0530012  82.1225786  28.5231884  -8.7099960
  88.3110012  33.9234997  -7.9580012  88.0710012  34.5854997  -7.3100012
  88.1130012  33.0894997  -7.5330012  88.2513808  33.9013134  -7.8118476
  82.8820012  32.8194997  -3.9750012  82.5710012  33.6014997  -3.5200012
  82.2320012  32.6664997  -4.6610012  82.7515558  32.9059105  -4.0054129
  88.8610012  28.1834997 -16.5230012  89.4410012  28.3334997 -15.7760012
  89.2750012  28.6544997 -17.2460012  88.9962830  28.2676841 -16.5185866
  79.8020012  29.0174997  -4.7460012  79.8730012  29.6684997  -4.0480012
  78.9120012  29.1204997  -5.0810012  79.6913117  29.1205936  -4.6957300
  86.5880012  34.9204997 -13.0880012  87.0620012  35.2154997 -12.3100012
  86.0250012  35.6584997 -13.3210012  86.5767653  35.0606932 -13.0129864
  81.1220012  34.8914997  -3.2120012  81.1290012  34.7554997  -4.1590012
  80.2060012  34.7734997  -2.9600012  80.9991714  34.8569430  -3.3075334
  92.5600012  19.9334997 -16.7100012  91.6600012  20.0724997 -16.4150012
  92.8120012  20.7644997 -17.1120012  92.4708702  20.0649074 -16.7239795
  80.6260012  28.7214997 -14.7360012  80.3340012  29.4894997 -15.2270012
  79.9520012  28.0614997 -14.8990012  80.4949081  28.7374406 -14.8252660
  93.7490012  34.2994997 -18.3340012  93.8230012  35.2384997 -18.1630012
  94.6550012  33.9944997 -18.3900012  93.8815100  34.3866722 -18.3181881
  76.7190012  31.0844997  -5.9210012  76.2180012  31.0564997  -6.7360012
  76.7240012  30.1784997  -5.6120012  76.6511526  30.9582278  -5.9907128
  76.4690012  33.8644997  -9.0370012  77.4150012  33.7204997  -9.0560012
  76.3570012  34.6484997  -8.5000012  76.5832727  33.9508046  -8.9669928
  94.6670012  34.5304997  -3.3550012  94.6180012  33.5754997  -3.3920012
  93.8400012  34.7984997  -2.9540012  94.5484940  34.4358998  -3.3058625
  85.6460012  34.1044997  -4.4790012  85.7330012  34.9304997  -4.0040012
  84.7820012  33.7744997  -4.2300012  85.5411964  34.1729878  -4.3803451
  86.0600012  37.8764997 -14.6730012  85.9850012  37.7554997 -15.6190012
  86.0930012  38.8264997 -14.5540012  86.0541848  37.9882500 -14.7865166
  79.7130012  36.6654997 -12.8920012  79.8660012  36.3174997 -12.0130012
  78.8630012  36.3094997 -13.1470012  79.6188962  36.5696650 -12.8061660
  89.1620012  37.0304997 -17.6710012  89.5370012  36.2864997 -18.1410012
  89.1660012  36.7604997 -16.7520012  89.2138915  36.8921486 -17.6112176
  88.8310012  36.9564997 -14.9210012  87.8950012  37.0564997 -14.7430012
  89.1110012  36.2474997 -14.3430012  88.7408255  36.8742711 -14.8184609
  91.8190012  26.0234997  -2.8750012  91.4120012  26.5044997  -3.5960012
  91.8600012  25.1184997  -3.1830012  91.7688437  25.9669374  -3.0153317
  78.9680012  32.4074997  -4.8780012  79.1840012  32.0464997  -4.0190012
  78.1130012  32.0334997  -5.0880012  78.8819292  32.3074111  -4.7886614
  81.5870012  20.8774997  -8.8830012  80.7250012  20.7904997  -9.2900012
  81.5640012  21.7334997  -8.4550012  81.4660330  20.9812765  -8.8808137
  86.2500012  20.5994997  -5.5080012  86.6700012  20.1844997  -4.7550012
  85.3170012  20.4214997  -5.3910012  86.1813644  20.5185900  -5.3890461
  89.5760012  24.3554997  -4.6550012  89.0620012  24.2294997  -3.8570012
  89.4210012  25.2674997  -4.8990012  89.4846852  24.4616132  -4.5787842
  90.3390012  29.2164997 -18.8930012  90.3810012  28.9934997 -19.8230012
  91.1880012  29.6154997 -18.7030012  90.4595396  29.2399155 -18.9946373
  85.9110012  23.0924997 -18.2230012  85.6580012  23.1114997 -17.3000012
  85.6550012  22.2204997 -18.5240012  85.8417790  22.9772437 -18.1373737
  81.6780012  25.8434997  -7.7880012  81.0360012  25.8024997  -7.0790012
  81.7150012  26.7694997  -8.0250012  81.5951324  25.9631559  -7.7230176
  81.6750012  26.0644997 -12.8760012  80.7820012  25.7234997 -12.9340012
  82.1250012  25.6874997 -13.6310012  81.6137305  25.9668484 -12.9860823
  87.2100012  26.4804997 -14.0590012  86.8010012  27.2954997 -14.3500012
  87.9310012  26.3404997 -14.6730012  87.2514537  26.5732018 -14.1818658
  86.3120012  26.6554997  -2.5710012  85.7500012  25.9514997  -2.2500012
  87.1390012  26.5354997  -2.1030012  86.3467095  26.5427883  -2.4637670
  88.2150012  25.9264997 -11.2450012  88.0200012  26.5314997 -11.9600012
  88.3960012  25.0924997 -11.6790012  88.2127614  25.8966300 -11.4015595
  79.4280012  26.1634997  -5.9210012  79.3900012  26.5634997  -5.0520012
  78.9370012  25.3464997  -5.8300012  79.3564684  26.1078069  -5.7898941
  82.7940012  23.5374997 -19.1220012  82.3630012  23.0924997 -18.3920012
  82.0760012  23.9094997 -19.6340012  82.6379438  23.5268940 -19.0913201
  76.0360012  23.2794997 -12.0700012  76.6670012  23.2504997 -11.3510012
  76.4850012  22.8544997 -12.8000012  76.1830774  23.2180492 -12.0703447
  77.3100012  24.0254997 -16.6460012  77.7840012  24.6164997 -17.2310012
  76.5930012  24.5564997 -16.2990012  77.2779341  24.1780867 -16.6791164
  87.4790012  27.5644997  -6.5730012  87.8020012  26.9334997  -7.2160012
  87.0390012  27.0294997  -5.9130012  87.4636895  27.4058441  -6.5717150
  84.2560012  23.4914997 -11.7890012  83.3450012  23.5484997 -11.5010012
  84.7620012  23.4314997 -10.9790012  84.1995413  23.4911985 -11.6399378
  79.0850012  25.1204997 -12.9630012  78.1950012  25.2204997 -13.3030012
  79.3810012  24.2784997 -13.3090012  79.0032823  25.0203545 -13.0562787
  82.7380012  25.1204997 -15.3060012  83.6690012  25.2494997 -15.1280012
  82.5230012  25.7904997 -15.9560012  82.8364247  25.2286565 -15.3694253
  88.6610012  22.7264997  -8.5250012  87.9850012  22.8574997  -7.8610012
  88.1760012  22.5714997  -9.3350012  88.5027145  22.7234905  -8.5435483
  81.4120012  26.3154997 -17.7390012  80.8690012  25.9354997 -18.4310012
  82.2450012  26.5094997 -18.1680012  81.4504399  26.2898124 -17.8915474
  91.9490012  38.3984997  -2.2480012  92.1490012  38.8224997  -3.0830012
  92.6040012  38.7414997  -1.6410012  92.0650051  38.5029648  -2.2802164
  79.5470012  30.8724997  -2.6400012  80.2790012  31.1264997  -2.0790012
  78.7670012  31.0764997  -2.1250012  79.5418232  30.9349177  -2.4934240
  85.5760012  26.2794997  -9.9020012  86.1410012  25.7324997 -10.4490012
  85.4290012  25.7574997  -9.1140012  85.6332918  26.1342024  -9.8701546
  80.5780012  22.4154997 -13.4840012  80.2610012  21.5134997 -13.5190012
  81.3600012  22.4174997 -14.0370012  80.6402284  22.2921628 -13.5635217
  84.2030012  24.6674997  -7.4880012  83.3670012  25.1214997  -7.3780012
  84.7270012  24.9434997  -6.7360012  84.1594414  24.7669376  -7.3712864
  84.7470012  30.8804997 -15.8040012  84.0020012  30.3734997 -16.1260012
  84.6130012  30.9294997 -14.8570012  84.6268776  30.8176940 -15.7201353
  91.8970012  30.0134997  -7.0170012  92.5390012  30.4704997  -7.5610012
  91.0670012  30.1264997  -7.4800012  91.8725963  30.0912704  -7.1539823
  88.6450012  23.6944997 -17.6040012  87.7060012  23.8064997 -17.7560012
  88.9420012  24.5514997 -17.2980012  88.5567666  23.8256443 -17.5834232
  86.2660012  31.0644997  -4.5670012  85.9210012  30.6834997  -3.7600012
  86.0660012  31.9984997  -4.4950012  86.1918061  31.1385228  -4.4469039
  89.3630012  25.5614997 -15.9440012  90.2550012  25.4244997 -15.6250012
  89.4200012  26.3524997 -16.4800012  89.4926285  25.6496660 -15.9728309
  79.8720012  30.1754997 -10.0340012  80.6170012  30.1734997 -10.6350012
  79.9500012  29.3524997  -9.5520012  79.9845518  30.0639315 -10.0511071
  86.8730012  32.3394997 -16.7780012  86.5770012  33.1654997 -16.3970012
  86.1700012  31.7194997 -16.5820012  86.7374914  32.3688199 -16.6993557
  76.8800012  28.6364997  -4.7190012  77.1030012  28.2184997  -3.8870012
  76.2780012  28.0234997  -5.1420012  76.8291759  28.4964668  -4.6622978
  83.8960012  28.1534997  -2.5060012  83.6000012  27.9874997  -3.4010012
  84.8280012  27.9334997  -2.5170012  83.9814166  28.1010640  -2.6299464
  88.5170012  33.5264997  -4.6160012  87.6160012  33.7094997  -4.8840012
  88.5510012  33.7854997  -3.6950012  88.3983041  33.5865512  -4.5281803
  94.2480012  25.7714997 -16.2490012  93.6940012  25.3754997 -16.9210012
  94.3480012  26.6814997 -16.5270012  94.1857059  25.8403586 -16.3785599
  94.2110012  31.5714997  -3.4120012  93.3600012  31.8094997  -3.7790012
  94.8020012  31.5544997  -4.1650012  94.1742487  31.6018258  -3.5641107
  92.5430012  34.5574997 -15.7840012  92.1700012  33.7314997 -15.4750012
  92.8210012  34.3744997 -16.6810012  92.5295630  34.4197303 -15.8630374
  89.7040012  29.3654997  -8.7630012  88.7750012  29.1334997  -8.7900012
  90.1550012  28.5884997  -9.0930012  89.6379216  29.2287238  -8.8113083
  82.2470012  33.6934997 -12.6300012  82.7740012  34.4664997 -12.8300012
  81.3670012  33.9184997 -12.9310012  82.2001773  33.8298005 -12.6980990
  78.0020012  28.5554997 -18.0430012  78.6180012  29.1824997 -17.6630012
  77.1400012  28.8714997 -17.7710012  77.9697698  28.6839430 -17.9542817
  83.6740012  31.3564997 -13.0530012  83.4330012  32.2814997 -13.0120012
  82.9330012  30.8974997 -12.6570012  83.5408409  31.4211421 -12.9938623
  84.1890012  35.5054997  -6.7380012  84.5510012  36.3604997  -6.9720012
  84.7200012  35.2134997  -5.9980012  84.3104473  35.5831060  -6.6699145
  82.3570012  36.3784997 -13.5080012  81.4070012  36.4834997 -13.4570012
  82.7090012  37.1984997 -13.1630012  82.2744203  36.5038314 -13.4543350
  87.7330012  31.6044997  -7.0380012  87.3070012  31.3774997  -6.2110012
  88.3130012  30.8664997  -7.2200012  87.7531868  31.4735299  -6.9494170
  89.9360012  32.5334997 -17.9640012  90.2890012  32.1534997 -17.1590012
  88.9870012  32.4404997 -17.8770012  89.8560441  32.4689596 -17.8421441
  90.3910012  36.1564997  -4.5680012  89.7900012  35.6014997  -5.0640012
  90.6730012  36.8234997  -5.1940012  90.3468519  36.1706841  -4.7205048
  94.4390012  37.0134997 -17.7630012  95.1830012  37.5994997 -17.9030012
  93.7450012  37.5814997 -17.4290012  94.4470292  37.1705582 -17.7370039
  78.5140012  23.3894997  -5.1610012  77.6210012  23.7284997  -5.2290012
  78.4150012  22.5344997  -4.7430012  78.3784164  23.3202588  -5.1137765
  90.8020012  31.2064997 -15.7370012  90.5240012  30.4784997 -15.1810012
  91.7290012  31.3254997 -15.5320012  90.8893124  31.1228802 -15.6331155
  78.1650012  35.1944997  -6.7260012  78.3820012  34.2624997  -6.7570012
  78.4110012  35.4684997  -5.8430012  78.2279549  35.1040636  -6.6108237
  84.0270012  33.6454997 -19.5170012  84.2660012  32.8974997 -20.0640012
  83.7580012  33.2574997 -18.6840012  84.0233675  33.4906638 -19.4793135
  82.9640012  33.2154997 -17.0600012  83.1100012  32.6954997 -16.2700012
  82.9610012  34.1224997 -16.7540012  82.9835989  33.2668853 -16.9103912
  79.4170012  30.4684997 -16.5500012  78.7310012  30.8204997 -15.9830012
  79.9390012  31.2314997 -16.7970012  79.3936852  30.6198578 -16.5057882
  87.2480012  23.1304997  -6.2710012  87.9470012  23.2044997  -5.6210012
  86.8670012  22.2664997  -6.1170012  87.2921767  23.0237624  -6.1611678
  88.0330012  22.7824997 -15.1740012  88.2530012  23.2544997 -15.9770012
  88.5910012  23.1774997 -14.5040012  88.1384968  22.9004285 -15.1932669
  85.7010012  34.9134997 -16.3110012  84.8850012  35.4104997 -16.2590012
  86.2310012  35.3884997 -16.9510012  85.6609161  35.0457722 -16.3904044
  85.2330012  24.5104997 -14.3390012  86.0450012  25.0154997 -14.2930012
  84.9880012  24.3654997 -13.4250012  85.3110520  24.5600375 -14.2091483
  85.7680012  25.4964997  -5.1540012  85.8870012  26.0704997  -4.3970012
  86.4240012  24.8084997  -5.0400012  85.8729757  25.4821079  -5.0349175
  86.1160012  21.5914997 -13.4010012  85.7700012  22.2094997 -12.7560012
  86.7750012  22.0924997 -13.8820012  86.1577826  21.7435802 -13.3779029
  83.0400012  35.9574997 -16.3290012  83.2000012  36.7564997 -16.8300012
  82.8420012  36.2634997 -15.4440012  83.0351649  36.1084469 -16.2780185
  81.7740012  22.6544997 -16.7140012  81.6910012  23.5434997 -16.3670012
  82.6640012  22.3894997 -16.4820012  81.8829469  22.7401430 -16.6352374
  91.9730012  23.4034997  -4.3190012  91.0560012  23.6664997  -4.4070012
  92.3080012  23.4004997  -5.2160012  91.8929900  23.4390224  -4.4522081
  90.5750012  27.1544997 -10.2240012  89.7770012  26.7394997 -10.5520012
  91.0200012  26.4634997  -9.7330012  90.5259885  27.0043543 -10.2025111
  80.0330012  33.0824997 -17.6530012  80.6250012  33.7814997 -17.3770012
  80.4920012  32.6494997 -18.3730012  80.1761142  33.1197049 -17.7125170
  78.3490012  25.7464997 -18.5370012  78.3040012  26.6854997 -18.3590012
  77.4610012  25.5104997 -18.8070012  78.2228574  25.8431892 -18.5491088
  91.6610012  36.4104997  -8.6010012  91.5060012  37.0884997  -9.2580012
  92.5940012  36.4824997  -8.3980012  91.7658500  36.5130170  -8.6634881
  79.1570012  20.5284997  -9.8640012  78.9280012  20.5874997 -10.7920012
  78.7140012  19.7364997  -9.5580012  79.0658530  20.4295753  -9.9495214
  78.0870012  34.4684997 -13.7040012  77.2550012  34.9414997 -13.6760012
  78.6330012  34.9784997 -14.3020012  78.0469739  34.6021871 -13.7810284
  77.3750012  37.0814997  -2.3740012  77.9160012  36.8644997  -1.6140012
  76.8940012  36.2754997  -2.5630012  77.3839345  36.9429514  -2.2956924
  81.9730012  36.0004997  -0.7530012  82.7400012  35.5414997  -0.4120012
  81.9510012  35.7744997  -1.6830012  82.0751434  35.9070409  -0.8319957
  86.0650012  35.5084997 -19.3780012  85.4210012  34.8774997 -19.0570012
  86.8270012  34.9774997 -19.6100012  86.0798077  35.3502920 -19.3653989
  88.5500012  34.3804997  -2.0240012  88.1990012  33.5244997  -1.7810012
  89.2760012  34.5234997  -1.4170012  88.6000769  34.2825636  -1.9086381
  90.6690012  35.3254997 -19.1440012  90.9520012  34.5314997 -18.6920012
  91.4090012  35.5584997 -19.7050012  90.8077486  35.2482803 -19.1579302
  77.2820012  30.8914997  -1.4190012  77.4260012  29.9894997  -1.7060012
  76.5100012  31.1774997  -1.9070012  77.1973323  30.8068261  -1.5242119
  81.6240012  31.2354997 -19.2870012  81.6880012  30.4414997 -18.7560012
  82.2770012  31.1164997 -19.9770012  81.7210241  31.1107148 -19.3075683
  83.9380012  30.8614997  -1.9870012  83.6090012  31.1324997  -2.8440012
  84.0900012  29.9204997  -2.0740012  83.9134809  30.7713862  -2.1161756
  89.6720012  30.7774997  -4.6030012  90.4180012  31.3654997  -4.7230012
  88.9150012  31.3594997  -4.5400012  89.6717554  30.9367011  -4.6109093
  78.1150012  28.0914997  -1.9990012  78.5230012  27.2344997  -2.1200012
  77.8550012  28.1064997  -1.0780012  78.1357568  27.9760807  -1.8910412
  82.7730012  29.2074997 -16.9810012  82.3130012  28.7234997 -16.2950012
  83.0280012  28.5394997 -17.6170012  82.7444902  29.0508731 -16.9730666
  82.0620012  27.1004997  -4.6250012  81.4440012  27.7754997  -4.3450012
  82.4060012  27.4214997  -5.4580012  82.0239615  27.2362721  -4.6993419
  83.8440012  27.4504997 -18.7190012  83.6640012  27.2964997 -19.6460012
  84.7940012  27.5584997 -18.6740012  83.9477776  27.4440175 -18.8398157
  87.0820012  29.5724997  -1.3480012  88.0350012  29.6554997  -1.3750012
  86.9210012  28.8604997  -0.7280012  87.1906426  29.4876746  -1.2679421
  93.2340012  29.8054997 -19.2730012  92.9600012  29.3804997 -20.0860012
  93.2730012  30.7364997 -19.4900012  93.2017699  29.8732484 -19.4136390
  82.4010012  24.4554997  -3.5430012  82.5510012  23.7264997  -4.1450012
  82.4040012  25.2324997  -4.1020012  82.4219302  24.4607851  -3.7009308
  82.8140012  22.8254997  -6.0500012  83.3500012  23.2764997  -6.7020012
  81.9620012  22.7174997  -6.4730012  82.7722178  22.8726390  -6.1964244
  84.3960012  28.2644997  -5.8110012  85.1460012  28.1084997  -6.3840012
  84.0570012  29.1164997  -6.0860012  84.4528921  28.3582968  -5.9266439
  88.8110012  26.0794997  -0.7820012  89.0040012  25.1484997  -0.8940012
  89.6690012  26.5044997  -0.7920012  88.9533020  26.0096389  -0.7986639
  90.1280012  28.8684997  -2.7050012  89.8470012  29.5774997  -3.2820012
  91.0710012  28.7954997  -2.8560012  90.2169027  28.9557646  -2.8044449
  80.8800012  25.6534997  -1.6310012  80.1130012  25.1214997  -1.8410012
  81.5590012  25.3434997  -2.2310012  80.8667022  25.5387506  -1.7408352
  83.6200012  20.2814997  -5.6190012  83.5210012  21.2284997  -5.7240012
  82.8770012  19.9094997  -6.0940012  83.5060564  20.3605902  -5.6975440
  84.8840012  24.6034997  -2.0550012  84.6480012  24.3834997  -1.1530012
  84.1000012  24.3964997  -2.5650012  84.7458628  24.5454760  -2.0006068
  87.5990012  23.7304997  -2.9790012  86.6520012  23.7624997  -2.8470012
  87.9120012  23.1054997  -2.3260012  87.5115475  23.6503207  -2.8725545
  89.2330012  22.3644997  -0.9740012  89.1370012  21.4124997  -0.9800012
  88.9120012  22.6334997  -0.1140012  89.1764070  22.2704035  -0.8584559
  79.0600012  23.5744997  -1.9270012  79.2720012  22.8674997  -2.5370012
  78.9490012  23.1364997  -1.0830012  79.0739721  23.4187084  -1.8963157
  83.8410012  19.5754997  -2.9470012  84.5530012  18.9354997  -2.9610012
  83.7400012  19.8424997  -3.8610012  83.9247939  19.5239938  -3.0724350
  84.1950012  21.2584997  -0.8940012  84.0630012  20.7824997  -1.7140012
  83.5960012  22.0024997  -0.9490012  84.0959071  21.2939618  -1.0137114
  83.7410012  38.1414997 -17.7170012  84.6740012  38.2994997 -17.5740012
  83.4770012  38.8164997 -18.3420012  83.8329510  38.2543611 -17.7819259
  77.3100012  32.7774997 -18.2350012  78.2240012  32.8564997 -17.9610012
  77.3170012  32.0904997 -18.9010012  77.4361131  32.6953961 -18.2875607
  75.9590012  38.1704997 -13.1570012  75.3120012  37.7084997 -13.6900012
  76.3130012  37.4984997 -12.5750012  75.9183849  38.0164723 -13.1512041
  76.8290012  36.2514997 -11.3530012  76.4940012  35.3714997 -11.1810012
  77.0510012  36.5964997 -10.4880012  76.8131783  36.1777500 -11.2125792
  94.3770012  37.0604997  -8.3720012  94.3560012  37.2454997  -7.4330012
  95.0680012  37.6294997  -8.7130012  94.4674618  37.1626606  -8.2896136
  93.9410012  36.6284997  -5.4500012  93.4530012  35.8924997  -5.8210012
  94.4900012  36.2344997  -4.7720012  93.9484872  36.4746249  -5.4090840
  92.3910012  32.4174997  -0.8120012  91.5250012  32.3124997  -0.4180012
  92.7680012  33.1764997  -0.3660012  92.3233308  32.5056900  -0.6977607
  93.6920012  30.6744997 -15.2980012  94.5420012  31.0954997 -15.1710012
  93.6980012  29.9344997 -14.6910012  93.8091372  30.6320803 -15.1985656
  94.0870012  28.7274997 -13.4740012  93.3600012  28.2484997 -13.0770012
  94.6680012  28.9334997 -12.7420012  94.0659375  28.6897090 -13.3205871
  93.8460012  31.5124997  -8.5270012  94.6790012  31.1344997  -8.8070012
  93.9580012  32.4554997  -8.6460012  93.9752647  31.5882218  -8.5814513
  92.3320012  34.3904997  -6.2200012  91.6850012  34.7154997  -5.5940012
  91.8150012  33.9504997  -6.8940012  92.1734029  34.3755004  -6.2254173
  94.3550012  28.6284997 -17.0830012  93.8330012  28.9854997 -17.8020012
  94.3220012  29.3034997 -16.4050012  94.2791634  28.7685413 -17.0896855
  92.7040012  25.8684997 -18.5320012  92.8000012  26.5354997 -19.2130012
  92.5640012  25.0524997 -19.0140012  92.6982135  25.8494500 -18.6901509
  91.8730012  27.2484997 -12.9110012  91.7230012  26.3034997 -12.9320012
  91.5200012  27.5294997 -12.0680012  91.8046625  27.1570441 -12.7997654
  76.9090012  29.3264997  -8.9010012  77.0930012  29.2444997  -9.8370012
  77.7580012  29.2024997  -8.4770012  77.0490139  29.2985003  -8.9718545
  92.7300012  29.2184997  -3.2730012  93.3130012  28.4844997  -3.0810012
  93.2940012  29.9904997  -3.2260012  92.8859769  29.2224227  -3.2403841
  94.2260012  27.1214997  -2.5880012  93.3630012  26.7424997  -2.7540012
  94.8310012  26.3824997  -2.6620012  94.1895979  26.9698023  -2.6207183
  91.9510012  23.2764997 -19.4150012  92.5620012  22.9054997 -18.7780012
  91.1150012  22.8554997 -19.2190012  91.9215032  23.1687554 -19.3012965
  91.5840012  24.8314997 -14.4490012  91.8640012  23.9244997 -14.3250012
  92.3430012  25.2654997 -14.8380012  91.7249277  24.7660942 -14.4846318
  92.1960012  25.4124997  -9.0130012  93.1290012  25.6244997  -9.0470012
  91.9610012  25.5144997  -8.0910012  92.2918036  25.4552769  -8.8930024
  92.2250012  26.1494997  -6.2370012  91.3820012  26.4174997  -5.8710012
  92.6670012  26.9714997  -6.4480012  92.1694158  26.2973291  -6.2154509
  76.5060012  24.5974997  -2.7600012  77.4260012  24.4754997  -2.5240012
  76.0570012  23.8474997  -2.3710012  76.5711580  24.4793727  -2.6750994
  94.5080012  20.1294997  -0.8840012  94.8580012  19.4754997  -1.4890012
  94.6550012  20.9664997  -1.3230012  94.5758419  20.1531591  -1.0262882
  92.1970012  22.0944997 -14.4010012  92.3800012  21.6454997 -13.5750012
  91.5980012  21.5094997 -14.8640012  92.1410202  21.9539975 -14.3506725
  77.7270012  22.9094997  -9.8690012  78.1730012  22.1174997  -9.5670012
  78.1940012  23.6254997  -9.4380012  77.8510172  22.8980624  -9.7695180
  76.0310012  25.9084997  -8.8000012  76.5230012  25.6874997  -9.5910012
  76.3940012  26.7494997  -8.5190012  76.1473126  25.9918357  -8.8702469
  94.0280012  22.2384997  -2.5340012  93.1100012  22.5094997  -2.5700012
  94.1510012  21.7034997  -3.3190012  93.9191066  22.2032892  -2.6449513
  94.0640012  22.1614997 -17.8730012  94.4760012  21.4404997 -18.3480012
  94.7460012  22.8314997 -17.8140012  94.2125885  22.1532368 -17.9301085
  76.3450012  22.1664997 -14.7460012  75.4200012  22.3754997 -14.8750012
  76.7990012  22.6504997 -15.4350012  76.2797368  22.2605993 -14.8568774
  91.1160012  37.1504997 -12.8000012  91.7680012  36.8034997 -13.4080012
  91.6260012  37.6394997 -12.1540012  91.2742637  37.1690597 -12.7959764
  76.3090012  20.9044997  -6.4010012  75.6440012  20.6584997  -5.7580012
  75.8660012  21.5264997  -6.9790012  76.1580956  20.9548632  -6.3910648
  78.5010012  34.0794997  -2.2570012  77.6800012  34.2544997  -2.7170012
  78.2480012  34.0064997  -1.3360012  78.3546164  34.0935622  -2.1955077
  81.4550012  35.0544997  -5.9980012  81.0300012  35.8634997  -6.2810012
  82.3590012  35.1394997  -6.3000012  81.5190271  35.1768469  -6.0776224
  85.7660012  36.4534997  -3.0390012  85.9510012  36.1194997  -2.1610012
  86.6120012  36.7624997  -3.3610012  85.9057539  36.4496047  -2.9624395
  88.1110012  37.7394997  -3.7950012  88.7880012  37.1064997  -4.0350012
  88.4330012  38.1404997  -2.9880012  88.2471637  37.7071154  -3.7187207
  93.0280012  20.3284997  -4.7150012  92.2160012  20.6534997  -5.1030012
  93.2610012  19.5684997  -5.2480012  92.9483423  20.2702436  -4.8401747
  78.8570012  38.3104997  -5.9510012  78.1360012  38.7504997  -6.4020012
  78.4910012  38.0594997  -5.1020012  78.7089804  38.3367698  -5.8980160
  81.3240012  37.9104997  -6.9210012  80.4590012  37.9824997  -6.5170012
  81.2690012  38.4574997  -7.7050012  81.1982085  37.9942685  -6.9716638
  86.0340012  37.7984997  -7.7460012  85.5780012  38.3274997  -8.4000012
  86.1970012  38.4014997  -7.0200012  85.9935585  37.9524468  -7.7374938
  88.3620012  36.6764997  -6.8010012  87.4570012  36.8414997  -7.0660012
  88.7910012  37.5294997  -6.8660012  88.2960799  36.8144483  -6.8460818
  90.9660012  38.2464997  -6.5060012  90.7840012  39.1624997  -6.7160012
  91.1430012  37.8364997  -7.3520012  90.9650210  38.3164822  -6.6492115
  78.2710012  36.9334997  -9.0410012  78.2530012  36.5084997  -8.1830012
  79.0760012  36.6154997  -9.4490012  78.3773875  36.8323812  -8.9788345
  80.4130012  35.6434997 -10.3860012  80.1940012  34.7274997 -10.2160012
  81.2370012  35.7834997  -9.9200012  80.4944420  35.5370520 -10.2997226
  82.9500012  36.1134997  -9.5370012  83.1630012  35.2254997  -9.8240012
  83.0140012  36.0794997  -8.5830012  82.9878232  35.9873102  -9.4472603
  86.4580012  21.7774997 -10.3930012  85.7840012  21.1484997 -10.1370012
  87.0220012  21.2934997 -10.9960012  86.4419230  21.6258744 -10.4394660
  91.6010012  19.8854997 -10.2800012  92.2050012  20.4324997 -10.7820012
  90.7310012  20.2044997 -10.5200012  91.5661241  20.0035806 -10.3812346
  93.3280012  21.0234997 -11.9470012  93.9400012  20.5094997 -12.4730012
  93.7100012  21.9014997 -11.9230012  93.4634540  21.0717140 -12.0158170
  78.7850012  20.4114997 -12.5710012  78.0080012  20.1774997 -13.0780012
  79.3150012  19.6144997 -12.5620012  78.7502330  20.2716988 -12.6392258
  77.6210012  20.2094997 -16.7670012  78.0600012  20.8204997 -17.3590012
  76.9880012  20.7474997 -16.2930012  77.5954514  20.3659257 -16.7839070
  83.3640012  20.3384997 -12.7570012  84.2390012  20.7264997 -12.7870012
  83.2280012  20.1234997 -11.8350012  83.4653695  20.3625184 -12.6363560
  88.9210012  20.3684997 -11.1080012  88.9970012  20.4634997 -12.0580012
  88.6460012  19.4604997 -10.9790012  88.8942321  20.2587867 -11.2204921
  90.2740012  20.3944997 -15.4160012  89.5720012  21.0094997 -15.6250012
  89.8300012  19.5564997 -15.2850012  90.1176330  20.3655783 -15.4269672
  77.5220012  36.1574997 -15.8690012  76.8370012  36.1194997 -16.5370012
  77.5260012  37.0704997 -15.5810012  77.4288193  36.2757016 -15.9214716
  79.4820012  22.1254997 -18.3250012  79.9740012  21.4954997 -18.8520012
  80.1060012  22.4214997 -17.6610012  79.6335446  22.0793199 -18.3074020
  84.5080012  22.4184997 -15.8680012  84.6860012  21.7724997 -15.1850012
  84.4550012  23.2524997 -15.4000012  84.5251829  22.4427985 -15.7114060
  86.3870012  37.3674997 -17.4720012  87.2530012  37.7334997 -17.6500012
  86.1400012  36.9274997 -18.2860012  86.4722392  37.3581756 -17.6063711
  93.0960012  36.9304997 -14.7930012  92.9010012  36.1824997 -15.3580012
  93.0570012  37.6884997 -15.3760012  93.0640380  36.9306099 -14.9491616
  78.7430012  20.9254997  -3.0530012  78.3770012  20.1604997  -2.6100012
  79.6560012  20.9544997  -2.7660012  78.8162790  20.8247224  -2.9535930
  80.7160012  20.2764997  -1.5170012  81.6140012  20.0024997  -1.7020012
  80.3290012  19.5334997  -1.0530012  80.7866612  20.1385914  -1.4796357
  79.3400012  37.0774997 -18.8440012  79.0730012  37.3644997 -17.9710012
  80.1120012  36.5314997 -18.6920012  79.4077488  37.0430294 -18.7038950
  89.1370012  19.6084997  -1.3350012  89.2140012  19.1824997  -0.4810012
  90.0310012  19.6224997  -1.6780012  89.2683428  19.5520879  -1.2644690
  92.3130012  35.6814997  -2.6430012  91.5310012  35.4954997  -3.1620012
  92.2410012  36.6104997  -2.4250012  92.1961777  35.7816492  -2.6845952
 106.7190012  29.5674997 -12.6120012 106.8080012  30.5114997 -12.7440012
 106.0810012  29.2924997 -13.2700012 106.6449081  29.6594830 -12.7190386
 105.6520012  28.8224997  -9.1930012 105.6140012  28.1764997  -8.4880012
 105.3300012  28.3564997  -9.9640012 105.6032333  28.6709408  -9.2007022
  98.0210012  28.4374997  -7.6000012  98.0620012  27.8114997  -6.8770012
  98.7240012  29.0614997  -7.4180012  98.1216363  28.4361196  -7.4763956
 109.3580012  31.7614997 -10.8920012 108.9180012  31.0414997 -10.4410012
 109.3450012  32.4824997 -10.2620012 109.2960226  31.7603731 -10.7451506
  98.9440012  32.8874997  -9.0650012  98.5750012  32.0854997  -9.4350012
  99.8850012  32.7184997  -9.0190012  99.0207289  32.7550153  -9.1093684
  95.5540012  26.5474997 -13.6720012  95.1070012  27.3934997 -13.6910012
  94.9930012  25.9674997 -14.1880012  95.4169900  26.5849916 -13.7443199
  96.2650012  28.7094997 -11.5460012  96.4780012  27.9394997 -11.0190012
  97.0030012  28.7984997 -12.1500012  96.3938496  28.6161394 -11.5554700
 106.4700012  36.8664997 -10.6790012 107.0900012  36.1894997 -10.9530012
 106.2620012  36.6484997  -9.7710012 106.5266904  36.7443870 -10.5936635
 104.0420012  31.2554997  -8.7870012 104.3460012  30.5694997  -9.3820012
 104.7630012  31.3734997  -8.1690012 104.1810671  31.1776304  -8.7848184
 112.7050012  22.8564997  -7.9260012 112.7540012  23.4664997  -7.1900012
 113.1300012  23.3174997  -8.6490012 112.7691824  23.0023741  -7.9229795
 107.1830012  25.6494997  -8.4590012 107.3250012  24.7034997  -8.4390012
 107.0760012  25.8564997  -9.3880012 107.1879864  25.5479534  -8.5817661
 100.3370012  23.7504997 -11.1870012 100.3810012  24.6104997 -11.6050012
  99.8800012  23.1984997 -11.8210012 100.2812185  23.7935799 -11.3299701
 108.0600012  23.8814997 -12.7860012 108.7060012  23.5524997 -12.1610012
 108.5700012  24.3994997 -13.4090012 108.2174264  23.9064611 -12.7846138
  96.9580012  26.1474997 -10.4250012  97.6110012  25.5974997  -9.9930012
  96.9820012  25.8734997 -11.3420012  97.0506683  26.0351466 -10.4897877
 102.1140012  27.6974997 -11.2100012 102.7300012  27.1714997 -10.7000012
 101.5280012  27.0574997 -11.6130012 102.1190810  27.5389208 -11.1946827
 113.0960012  24.3344997  -5.6900012 112.4080012  24.9924997  -5.7860012
 113.1120012  24.1374997  -4.7540012 113.0038525  24.3980462  -5.5765192
  99.1480012  22.6684997  -7.1130012  98.9290012  23.1984997  -7.8790012
  98.4800012  22.8954997  -6.4660012  99.0277600  22.7716906  -7.1303621
 106.5170012  32.1684997 -13.5690012 106.2210012  31.8464997 -14.4200012
 106.1920012  33.0684997 -13.5280012 106.4326371  32.2460215 -13.6798199
 101.7170012  30.3444997  -6.8260012 100.9770012  30.9424997  -6.7220012
 102.4310012  30.8984997  -7.1410012 101.7122237  30.5012831  -6.8543535
 109.8240012  23.1724997 -10.8060012 109.6080012  22.4064997 -10.2730012
 110.4790012  23.6444997 -10.2930012 109.8830632  23.1315889 -10.6637139
  98.7410012  24.5604997  -9.1610012  99.3550012  25.1934997  -8.7870012
  99.2530012  24.0884997  -9.8170012  98.8942296  24.5832370  -9.1985748
 100.1240012  32.3084997  -6.0380012 100.1190012  33.1884997  -6.4160012
  99.2710012  32.2254997  -5.6130012 100.0079464  32.4176117  -6.0322093
  96.2450012  31.9794997 -15.2560012  95.9730012  32.2084997 -16.1450012
  96.2910012  32.8174997 -14.7960012  96.2140094  32.1241213 -15.3154303
 109.8700012  33.6014997  -8.5440012 108.9290012  33.6594997  -8.3820012
 110.1470012  34.5074997  -8.6810012 109.7784679  33.7319443  -8.5403185
 110.1710012  21.8874997  -7.1260012 109.4350012  22.4984997  -7.1640012
 110.8540012  22.3024997  -7.6530012 110.1626541  22.0271374  -7.2024168
 103.1740012  19.9744997  -9.6600012 103.0570012  19.0254997  -9.7150012
 102.3190012  20.3064997  -9.3870012 103.0423733  19.8895409  -9.6306103
 108.1220012  35.3824997 -11.9180012 108.5480012  34.6754997 -12.4030012
 108.4390012  36.1834997 -12.3350012 108.2231019  35.3940994 -12.0406870
 109.2820012  33.2834997 -13.4100012 109.0240012  32.5934997 -14.0210012
 109.3530012  32.8404997 -12.5640012 109.2562856  33.1292124 -13.3793115
 110.9680012  31.8494997  -4.9320012 111.1080012  31.2584997  -5.6720012
 111.1350012  32.7224997  -5.2890012 111.0096778  31.8866426  -5.0813035
 105.4410012  28.8114997 -15.1600012 104.7290012  29.3464997 -15.5120012
 106.1320012  28.8674997 -15.8200012 105.4370132  28.8922543 -15.2973711
 105.4940012  27.2694997 -18.1210012 106.1950012  27.2914997 -17.4700012
 105.7970012  26.6414997 -18.7770012 105.6307830  27.1876566 -18.1206289
 112.8100012  28.1894997  -6.8660012 112.1570012  28.8844997  -6.7770012
 113.2750012  28.3994997  -7.6760012 112.7835390  28.3129425  -6.9633117
 108.8460012  29.0214997 -14.2080012 108.1140012  29.2494997 -13.6350012
 109.2940012  28.3074997 -13.7530012 108.8063095  28.9562571 -14.0680881
 108.7440012  27.1954997  -5.1410012 108.8240012  27.9584997  -4.5690012
 108.1420012  27.4744997  -5.8310012 108.6735756  27.3377134  -5.1559411
 100.4920012  29.6514997 -12.3260012 100.1610012  29.2814997 -13.1440012
 101.0800012  28.9814997 -11.9790012 100.5261873  29.5101156 -12.3911898
 101.8580012  33.0794997  -9.6440012 101.7640012  32.5014997 -10.4010012
 102.5880012  32.7084997  -9.1480012 101.9437981  32.9502390  -9.6805835
 100.8580012  28.4204997  -8.6920012 101.4240012  28.5414997  -9.4550012
 101.1770012  29.0574997  -8.0530012 100.9785786  28.5231884  -8.7099960
 107.1670012  33.9234997  -7.9580012 106.9270012  34.5854997  -7.3100012
 106.9690012  33.0894997  -7.5330012 107.1073808  33.9013134  -7.8118476
 101.7380012  32.8194997  -3.9750012 101.4270012  33.6014997  -3.5200012
 101.0880012  32.6664997  -4.6610012 101.6075558  32.9059105  -4.0054129
 107.7170012  28.1834997 -16.5230012 108.2970012  28.3334997 -15.7760012
 108.1310012  28.6544997 -17.2460012 107.8522830  28.2676841 -16.5185866
  98.6580012  29.0174997  -4.7460012  98.7290012  29.6684997  -4.0480012
  97.7680012  29.1204997  -5.0810012  98.5473117  29.1205936  -4.6957300
 105.4440012  34.9204997 -13.0880012 105.9180012  35.2154997 -12.3100012
 104.8810012  35.6584997 -13.3210012 105.4327653  35.0606932 -13.0129864
  99.9780012  34.8914997  -3.2120012  99.9850012  34.7554997  -4.1590012
  99.0620012  34.7734997  -2.9600012  99.8551714  34.8569430  -3.3075334
 111.4160012  19.9334997 -16.7100012 110.5160012  20.0724997 -16.4150012
 111.6680012  20.7644997 -17.1120012 111.3268702  20.0649074 -16.7239795
  99.4820012  28.7214997 -14.7360012  99.1900012  29.4894997 -15.2270012
  98.8080012  28.0614997 -14.8990012  99.3509081  28.7374406 -14.8252660
 112.6050012  34.2994997 -18.3340012 112.6790012  35.2384997 -18.1630012
 113.5110012  33.9944997 -18.3900012 112.7375100  34.3866722 -18.3181881
  95.5750012  31.0844997  -5.9210012  95.0740012  31.0564997  -6.7360012
  95.5800012  30.1784997  -5.6120012  95.5071526  30.9582278  -5.9907128
  95.3250012  33.8644997  -9.0370012  96.2710012  33.7204997  -9.0560012
  95.2130012  34.6484997  -8.5000012  95.4392727  33.9508046  -8.9669928
 113.5230012  34.5304997  -3.3550012 113.4740012  33.5754997  -3.3920012
 112.6960012  34.7984997  -2.9540012 113.4044940  34.4358998  -3.3058625
 104.5020012  34.1044997  -4.4790012 104.5890012  34.9304997  -4.0040012
 103.6380012  33.7744997  -4.2300012 104.3971964  34.1729878  -4.3803451
 104.9160012  37.8764997 -14.6730012 104.8410012  37.7554997 -15.6190012
 104.9490012  38.8264997 -14.5540012 104.9101848  37.9882500 -14.7865166
  98.5690012  36.6654997 -12.8920012  98.7220012  36.3174997 -12.0130012
  97.7190012  36.3094997 -13.1470012  98.4748962  36.5696650 -12.8061660
 108.0180012  37.0304997 -17.6710012 108.3930012  36.2864997 -18.1410012
 108.0220012  36.7604997 -16.7520012 108.0698915  36.8921486 -17.6112176
 107.6870012  36.9564997 -14.9210012 106.7510012  37.0564997 -14.7430012
 107.9670012  36.2474997 -14.3430012 107.5968255  36.8742711 -14.8184609
 110.6750012  26.0234997  -2.8750012 110.2680012  26.5044997  -3.5960012
 110.7160012  25.1184997  -3.1830012 110.6248437  25.9669374  -3.0153317
  97.8240012  32.4074997  -4.8780012  98.0400012  32.0464997  -4.0190012
  96.9690012  32.0334997  -5.0880012  97.7379292  32.3074111  -4.7886614
 100.4430012  20.8774997  -8.8830012  99.5810012  20.7904997  -9.2900012
 100.4200012  21.7334997  -8.4550012 100.3220330  20.9812765  -8.8808137
 105.1060012  20.5994997  -5.5080012 105.5260012  20.1844997  -4.7550012
 104.1730012  20.4214997  -5.3910012 105.0373644  20.5185900  -5.3890461
 108.4320012  24.3554997  -4.6550012 107.9180012  24.2294997  -3.8570012
 108.2770012  25.2674997  -4.8990012 108.3406852  24.4616132  -4.5787842
 109.1950012  29.2164997 -18.8930012 109.2370012  28.9934997 -19.8230012
 110.0440012  29.6154997 -18.7030012 109.3155396  29.2399155 -18.9946373
 104.7670012  23.0924997 -18.2230012 104.5140012  23.1114997 -17.3000012
 104.5110012  22.2204997 -18.5240012 104.6977790  22.9772437 -18.1373737
 100.5340012  25.8434997  -7.7880012  99.8920012  25.8024997  -7.0790012
 100.5710012  26.7694997  -8.0250012 100.4511324  25.9631559  -7.7230176
 100.5310012  26.0644997 -12.8760012  99.6380012  25.7234997 -12.9340012
 100.9810012  25.6874997 -13.6310012 100.4697305  25.9668484 -12.9860823
 106.0660012  26.4804997 -14.0590012 105.6570012  27.2954997 -14.3500012
 106.7870012  26.3404997 -14.6730012 106.1074537  26.5732018 -14.1818658
 105.1680012  26.6554997  -2.5710012 104.6060012  25.9514997  -2.2500012
 105.9950012  26.5354997  -2.1030012 105.2027095  26.5427883  -2.4637670
 107.0710012  25.9264997 -11.2450012 106.8760012  26.5314997 -11.9600012
 107.2520012  25.0924997 -11.6790012 107.0687614  25.8966300 -11.4015595
  98.2840012  26.1634997  -5.9210012  98.2460012  26.5634997  -5.0520012
  97.7930012  25.3464997  -5.8300012  98.2124684  26.1078069  -5.7898941
 101.6500012  23.5374997 -19.1220012 101.2190012  23.0924997 -18.3920012
 100.9320012  23.9094997 -19.6340012 101.4939438  23.5268940 -19.0913201
  94.8920012  23.2794997 -12.0700012  95.5230012  23.2504997 -11.3510012
  95.3410012  22.8544997 -12.8000012  95.0390774  23.2180492 -12.0703447
  96.1660012  24.0254997 -16.6460012  96.6400012  24.6164997 -17.2310012
  95.4490012  24.5564997 -16.2990012  96.1339341  24.1780867 -16.6791164
 106.3350012  27.5644997  -6.5730012 106.6580012  26.9334997  -7.2160012
 105.8950012  27.0294997  -5.9130012 106.3196895  27.4058441  -6.5717150
 103.1120012  23.4914997 -11.7890012 102.2010012  23.5484997 -11.5010012
 103.6180012  23.4314997 -10.9790012 103.0555413  23.4911985 -11.6399378
  97.9410012  25.1204997 -12.9630012  97.0510012  25.2204997 -13.3030012
  98.2370012  24.2784997 -13.3090012  97.8592823  25.0203545 -13.0562787
 101.5940012  25.1204997 -15.3060012 102.5250012  25.2494997 -15.1280012
 101.3790012  25.7904997 -15.9560012 101.6924247  25.2286565 -15.3694253
 107.5170012  22.7264997  -8.5250012 106.8410012  22.8574997  -7.8610012
 107.0320012  22.5714997  -9.3350012 107.3587145  22.7234905  -8.5435483
 100.2680012  26.3154997 -17.7390012  99.7250012  25.9354997 -18.4310012
 101.1010012  26.5094997 -18.1680012 100.3064399  26.2898124 -17.8915474
 110.8050012  38.3984997  -2.2480012 111.0050012  38.8224997  -3.0830012
 111.4600012  38.7414997  -1.6410012 110.9210051  38.5029648  -2.2802164
  98.4030012  30.8724997  -2.6400012  99.1350012  31.1264997  -2.0790012
  97.6230012  31.0764997  -2.1250012  98.3978232  30.9349177  -2.4934240
 104.4320012  26.2794997  -9.9020012 104.9970012  25.7324997 -10.4490012
 104.2850012  25.7574997  -9.1140012 104.4892918  26.1342024  -9.8701546
  99.4340012  22.4154997 -13.4840012  99.1170012  21.5134997 -13.5190012
 100.2160012  22.4174997 -14.0370012  99.4962284  22.2921628 -13.5635217
 103.0590012  24.6674997  -7.4880012 102.2230012  25.1214997  -7.3780012
 103.5830012  24.9434997  -6.7360012 103.0154414  24.7669376  -7.3712864
 103.6030012  30.8804997 -15.8040012 102.8580012  30.3734997 -16.1260012
 103.4690012  30.9294997 -14.8570012 103.4828776  30.8176940 -15.7201353
 110.7530012  30.0134997  -7.0170012 111.3950012  30.4704997  -7.5610012
 109.9230012  30.1264997  -7.4800012 110.7285963  30.0912704  -7.1539823
 107.5010012  23.6944997 -17.6040012 106.5620012  23.8064997 -17.7560012
 107.7980012  24.5514997 -17.2980012 107.4127666  23.8256443 -17.5834232
 105.1220012  31.0644997  -4.5670012 104.7770012  30.6834997  -3.7600012
 104.9220012  31.9984997  -4.4950012 105.0478061  31.1385228  -4.4469039
 108.2190012  25.5614997 -15.9440012 109.1110012  25.4244997 -15.6250012
 108.2760012  26.3524997 -16.4800012 108.3486285  25.6496660 -15.9728310
  98.7280012  30.1754997 -10.0340012  99.4730012  30.1734997 -10.6350012
  98.8060012  29.3524997  -9.5520012  98.8405518  30.0639315 -10.0511071
 105.7290012  32.3394997 -16.7780012 105.4330012  33.1654997 -16.3970012
 105.0260012  31.7194997 -16.5820012 105.5934914  32.3688199 -16.6993557
  95.7360012  28.6364997  -4.7190012  95.9590012  28.2184997  -3.8870012
  95.1340012  28.0234997  -5.1420012  95.6851759  28.4964668  -4.6622978
 102.7520012  28.1534997  -2.5060012 102.4560012  27.9874997  -3.4010012
 103.6840012  27.9334997  -2.5170012 102.8374166  28.1010640  -2.6299464
 107.3730012  33.5264997  -4.6160012 106.4720012  33.7094997  -4.8840012
 107.4070012  33.7854997  -3.6950012 107.2543041  33.5865512  -4.5281803
 113.1040012  25.7714997 -16.2490012 112.5500012  25.3754997 -16.9210012
 113.2040012  26.6814997 -16.5270012 113.0417059  25.8403586 -16.3785599
 113.0670012  31.5714997  -3.4120012 112.2160012  31.8094997  -3.7790012
 113.6580012  31.5544997  -4.1650012 113.0302487  31.6018258  -3.5641107
 111.3990012  34.5574997 -15.7840012 111.0260012  33.7314997 -15.4750012
 111.6770012  34.3744997 -16.6810012 111.3855630  34.4197303 -15.8630374
 108.5600012  29.3654997  -8.7630012 107.6310012  29.1334997  -8.7900012
 109.0110012  28.5884997  -9.0930012 108.4939216  29.2287238  -8.8113083
 101.1030012  33.6934997 -12.6300012 101.6300012  34.4664997 -12.8300012
 100.2230012  33.9184997 -12.9310012 101.0561773  33.8298005 -12.6980990
  96.8580012  28.5554997 -18.0430012  97.4740012  29.1824997 -17.6630012
  95.9960012  28.8714997 -17.7710012  96.8257698  28.6839430 -17.9542817
 102.5300012  31.3564997 -13.0530012 102.2890012  32.2814997 -13.0120012
 101.7890012  30.8974997 -12.6570012 102.3968409  31.4211421 -12.9938623
 103.0450012  35.5054997  -6.7380012 103.4070012  36.3604997  -6.9720012
 103.5760012  35.2134997  -5.9980012 103.1664473  35.5831060  -6.6699145
 101.2130012  36.3784997 -13.5080012 100.2630012  36.4834997 -13.4570012
 101.5650012  37.1984997 -13.1630012 101.1304203  36.5038314 -13.4543350
 106.5890012  31.6044997  -7.0380012 106.1630012  31.3774997  -6.2110012
 107.1690012  30.8664997  -7.2200012 106.6091868  31.4735299  -6.9494170
 108.7920012  32.5334997 -17.9640012 109.1450012  32.1534997 -17.1590012
 107.8430012  32.4404997 -17.8770012 108.7120441  32.4689596 -17.8421441
 109.2470012  36.1564997  -4.5680012 108.6460012  35.6014997  -5.0640012
 109.5290012  36.8234997  -5.1940012 109.2028519  36.1706841  -4.7205048
 113.2950012  37.0134997 -17.7630012 114.0390012  37.5994997 -17.9030012
 112.6010012  37.5814997 -17.4290012 113.3030292  37.1705582 -17.7370039
  97.3700012  23.3894997  -5.1610012  96.4770012  23.7284997  -5.2290012
  97.2710012  22.5344997  -4.7430012  97.2344164  23.3202588  -5.1137765
 109.6580012  31.2064997 -15.7370012 109.3800012  30.4784997 -15.1810012
 110.5850012  31.3254997 -15.5320012 109.7453124  31.1228802 -15.6331155
  97.0210012  35.1944997  -6.7260012  97.2380012  34.2624997  -6.7570012
  97.2670012  35.4684997  -5.8430012  97.0839549  35.1040636  -6.6108237
 102.8830012  33.6454997 -19.5170012 103.1220012  32.8974997 -20.0640012
 102.6140012  33.2574997 -18.6840012 102.8793675  33.4906638 -19.4793135
 101.8200012  33.2154997 -17.0600012 101.9660012  32.6954997 -16.2700012
 101.8170012  34.1224997 -16.7540012 101.8395989  33.2668853 -16.9103912
  98.2730012  30.4684997 -16.5500012  97.5870012  30.8204997 -15.9830012
  98.7950012  31.2314997 -16.7970012  98.2496852  30.6198578 -16.5057882
 106.1040012  23.1304997  -6.2710012 106.8030012  23.2044997  -5.6210012
 105.7230012  22.2664997  -6.1170012 106.1481767  23.0237624  -6.1611678
 106.8890012  22.7824997 -15.1740012 107.1090012  23.2544997 -15.9770012
 107.4470012  23.1774997 -14.5040012 106.9944968  22.9004285 -15.1932669
 104.5570012  34.9134997 -16.3110012 103.7410012  35.4104997 -16.2590012
 105.0870012  35.3884997 -16.9510012 104.5169161  35.0457722 -16.3904044
 104.0890012  24.5104997 -14.3390012 104.9010012  25.0154997 -14.2930012
 103.8440012  24.3654997 -13.4250012 104.1670520  24.5600375 -14.2091483
 104.6240012  25.4964997  -5.1540012 104.7430012  26.0704997  -4.3970012
 105.2800012  24.8084997  -5.0400012 104.7289757  25.4821079  -5.0349175
 104.9720012  21.5914997 -13.4010012 104.6260012  22.2094997 -12.7560012
 105.6310012  22.0924997 -13.8820012 105.0137826  21.7435802 -13.3779029
 101.8960012  35.9574997 -16.3290012 102.0560012  36.7564997 -16.8300012
 101.6980012  36.2634997 -15.4440012 101.8911649  36.1084469 -16.2780185
 100.6300012  22.6544997 -16.7140012 100.5470012  23.5434997 -16.3670012
 101.5200012  22.3894997 -16.4820012 100.7389469  22.7401430 -16.6352374
 110.8290012  23.4034997  -4.3190012 109.9120012  23.6664997  -4.4070012
 111.1640012  23.4004997  -5.2160012 110.7489900  23.4390224  -4.4522081
 109.4310012  27.1544997 -10.2240012 108.6330012  26.7394997 -10.5520012
 109.8760012  26.4634997  -9.7330012 109.3819885  27.0043543 -10.2025111
  98.8890012  33.0824997 -17.6530012  99.4810012  33.7814997 -17.3770012
  99.3480012  32.6494997 -18.3730012  99.0321142  33.1197049 -17.7125170
  97.2050012  25.7464997 -18.5370012  97.1600012  26.6854997 -18.3590012
  96.3170012  25.5104997 -18.8070012  97.0788574  25.8431892 -18.5491088
 110.5170012  36.4104997  -8.6010012 110.3620012  37.0884997  -9.2580012
 111.4500012  36.4824997  -8.3980012 110.6218500  36.5130170  -8.6634881
  98.0130012  20.5284997  -9.8640012  97.7840012  20.5874997 -10.7920012
  97.5700012  19.7364997  -9.5580012  97.9218530  20.4295753  -9.9495214
  96.9430012  34.4684997 -13.7040012  96.1110012  34.9414997 -13.6760012
  97.4890012  34.9784997 -14.3020012  96.9029739  34.6021871 -13.7810284
  96.2310012  37.0814997  -2.3740012  96.7720012  36.8644997  -1.6140012
  95.7500012  36.2754997  -2.5630012  96.2399345  36.9429514  -2.2956924
 100.8290012  36.0004997  -0.7530012 101.5960012  35.5414997  -0.4120012
 100.8070012  35.7744997  -1.6830012 100.9311434  35.9070409  -0.8319957
 104.9210012  35.5084997 -19.3780012 104.2770012  34.8774997 -19.0570012
 105.6830012  34.9774997 -19.6100012 104.9358077  35.3502920 -19.3653989
 107.4060012  34.3804997  -2.0240012 107.0550012  33.5244997  -1.7810012
 108.1320012  34.5234997  -1.4170012 107.4560769  34.2825636  -1.9086381
 109.5250012  35.3254997 -19.1440012 109.8080012  34.5314997 -18.6920012
 110.2650012  35.5584997 -19.7050012 109.6637486  35.2482803 -19.1579302
  96.1380012  30.8914997  -1.4190012  96.2820012  29.9894997  -1.7060012
  95.3660012  31.1774997  -1.9070012  96.0533322  30.8068261  -1.5242119
 100.4800012  31.2354997 -19.2870012 100.5440012  30.4414997 -18.7560012
 101.1330012  31.1164997 -19.9770012 100.5770241  31.1107148 -19.3075683
 102.7940012  30.8614997  -1.9870012 102.4650012  31.1324997  -2.8440012
 102.9460012  29.9204997  -2.0740012 102.7694809  30.7713862  -2.1161756
 108.5280012  30.7774997  -4.6030012 109.2740012  31.3654997  -4.7230012
 107.7710012  31.3594997  -4.5400012 108.5277554  30.9367011  -4.6109093
  96.9710012  28.0914997  -1.9990012  97.3790012  27.2344997  -2.1200012
  96.7110012  28.1064997  -1.0780012  96.9917568  27.9760807  -1.8910412
 101.6290012  29.2074997 -16.9810012 101.1690012  28.7234997 -16.2950012
 101.8840012  28.5394997 -17.6170012 101.6004902  29.0508731 -16.9730666
 100.9180012  27.1004997  -4.6250012 100.3000012  27.7754997  -4.3450012
 101.2620012  27.4214997  -5.4580012 100.8799615  27.2362721  -4.6993419
 102.7000012  27.4504997 -18.7190012 102.5200012  27.2964997 -19.6460012
 103.6500012  27.5584997 -18.6740012 102.8037776  27.4440175 -18.8398157
 105.9380012  29.5724997  -1.3480012 106.8910012  29.6554997  -1.3750012
 105.7770012  28.8604997  -0.7280012 106.0466426  29.4876746  -1.2679421
 112.0900012  29.8054997 -19.2730012 111.8160012  29.3804997 -20.0860012
 112.1290012  30.7364997 -19.4900012 112.0577699  29.8732484 -19.4136390
 101.2570012  24.4554997  -3.5430012 101.4070012  23.7264997  -4.1450012
 101.2600012  25.2324997  -4.1020012 101.2779302  24.4607851  -3.7009308
 101.6700012  22.8254997  -6.0500012 102.2060012  23.2764997  -6.7020012
 100.8180012  22.7174997  -6.4730012 101.6282178  22.8726390  -6.1964244
 103.2520012  28.2644997  -5.8110012 104.0020012  28.1084997  -6.3840012
 102.9130012  29.1164997  -6.0860012 103.3088921  28.3582968  -5.9266439
 107.6670012  26.0794997  -0.7820012 107.8600012  25.1484997  -0.8940012
 108.5250012  26.5044997  -0.7920012 107.8093020  26.0096389  -0.7986639
 108.9840012  28.8684997  -2.7050012 108.7030012  29.5774997  -3.2820012
 109.9270012  28.7954997  -2.8560012 109.0729027  28.9557646  -2.8044449
  99.7360012  25.6534997  -1.6310012  98.9690012  25.1214997  -1.8410012
 100.4150012  25.3434997  -2.2310012  99.7227022  25.5387506  -1.7408352
 102.4760012  20.2814997  -5.6190012 102.3770012  21.2284997  -5.7240012
 101.7330012  19.9094997  -6.0940012 102.3620564  20.3605902  -5.6975440
 103.7400012  24.6034997  -2.0550012 103.5040012  24.3834997  -1.1530012
 102.9560012  24.3964997  -2.5650012 103.6018628  24.5454760  -2.0006068
 106.4550012  23.7304997  -2.9790012 105.5080012  23.7624997  -2.8470012
 106.7680012  23.1054997  -2.3260012 106.3675475  23.6503207  -2.8725545
 108.0890012  22.3644997  -0.9740012 107.9930012  21.4124997  -0.9800012
 107.7680012  22.6334997  -0.1140012 108.0324070  22.2704035  -0.8584559
  97.9160012  23.5744997  -1.9270012  98.1280012  22.8674997  -2.5370012
  97.8050012  23.1364997  -1.0830012  97.9299721  23.4187084  -1.8963157
 102.6970012  19.5754997  -2.9470012 103.4090012  18.9354997  -2.9610012
 102.5960012  19.8424997  -3.8610012 102.7807939  19.5239938  -3.0724350
 103.0510012  21.2584997  -0.8940012 102.9190012  20.7824997  -1.7140012
 102.4520012  22.0024997  -0.9490012 102.9519071  21.2939618  -1.0137114
 102.5970012  38.1414997 -17.7170012 103.5300012  38.2994997 -17.5740012
 102.3330012  38.8164997 -18.3420012 102.6889510  38.2543611 -17.7819259
  96.1660012  32.7774997 -18.2350012  97.0800012  32.8564997 -17.9610012
  96.1730012  32.0904997 -18.9010012  96.2921131  32.6953961 -18.2875607
  94.8150012  38.1704997 -13.1570012  94.1680012  37.7084997 -13.6900012
  95.1690012  37.4984997 -12.5750012  94.7743849  38.0164723 -13.1512041
  95.6850012  36.2514997 -11.3530012  95.3500012  35.3714997 -11.1810012
  95.9070012  36.5964997 -10.4880012  95.6691783  36.1777500 -11.2125792
 113.2330012  37.0604997  -8.3720012 113.2120012  37.2454997  -7.4330012
 113.9240012  37.6294997  -8.7130012 113.3234618  37.1626606  -8.2896136
 112.7970012  36.6284997  -5.4500012 112.3090012  35.8924997  -5.8210012
 113.3460012  36.2344997  -4.7720012 112.8044872  36.4746249  -5.4090840
 111.2470012  32.4174997  -0.8120012 110.3810012  32.3124997  -0.4180012
 111.6240012  33.1764997  -0.3660012 111.1793308  32.5056900  -0.6977607
 112.5480012  30.6744997 -15.2980012 113.3980012  31.0954997 -15.1710012
 112.5540012  29.9344997 -14.6910012 112.6651372  30.6320803 -15.1985656
 112.9430012  28.7274997 -13.4740012 112.2160012  28.2484997 -13.0770012
 113.5240012  28.9334997 -12.7420012 112.9219375  28.6897090 -13.3205871
 112.7020012  31.5124997  -8.5270012 113.5350012  31.1344997  -8.8070012
 112.8140012  32.4554997  -8.6460012 112.8312647  31.5882218  -8.5814513
 111.1880012  34.3904997  -6.2200012 110.5410012  34.7154997  -5.5940012
 110.6710012  33.9504997  -6.8940012 111.0294029  34.3755004  -6.2254173
 113.2110012  28.6284997 -17.0830012 112.6890012  28.9854997 -17.8020012
 113.1780012  29.3034997 -16.4050012 113.1351634  28.7685413 -17.0896855
 111.5600012  25.8684997 -18.5320012 111.6560012  26.5354997 -19.2130012
 111.4200012  25.0524997 -19.0140012 111.5542135  25.8494500 -18.6901509
 110.7290012  27.2484997 -12.9110012 110.5790012  26.3034997 -12.9320012
 110.3760012  27.5294997 -12.0680012 110.6606625  27.1570441 -12.7997654
  95.7650012  29.3264997  -8.9010012  95.9490012  29.2444997  -9.8370012
  96.6140012  29.2024997  -8.4770012  95.9050139  29.2985003  -8.9718545
 111.5860012  29.2184997  -3.2730012 112.1690012  28.4844997  -3.0810012
 112.1500012  29.9904997  -3.2260012 111.7419769  29.2224227  -3.2403841
 113.0820012  27.1214997  -2.5880012 112.2190012  26.7424997  -2.7540012
 113.6870012  26.3824997  -2.6620012 113.0455979  26.9698023  -2.6207183
 110.8070012  23.2764997 -19.4150012 111.4180012  22.9054997 -18.7780012
 109.9710012  22.8554997 -19.2190012 110.7775032  23.1687554 -19.3012965
 110.4400012  24.8314997 -14.4490012 110.7200012  23.9244997 -14.3250012
 111.1990012  25.2654997 -14.8380012 110.5809277  24.7660942 -14.4846318
 111.0520012  25.4124997  -9.0130012 111.9850012  25.6244997  -9.0470012
 110.8170012  25.5144997  -8.0910012 111.1478036  25.4552769  -8.8930024
 111.0810012  26.1494997  -6.2370012 110.2380012  26.4174997  -5.8710012
 111.5230012  26.9714997  -6.4480012 111.0254158  26.2973291  -6.2154509
  95.3620012  24.5974997  -2.7600012  96.2820012  24.4754997  -2.5240012
  94.9130012  23.8474997  -2.3710012  95.4271580  24.4793727  -2.6750994
 113.3640012  20.1294997  -0.8840012 113.7140012  19.4754997  -1.4890012
 113.5110012  20.9664997  -1.3230012 113.4318419  20.1531591  -1.0262882
 111.0530012  22.0944997 -14.4010012 111.2360012  21.6454997 -13.5750012
 110.4540012  21.5094997 -14.8640012 110.9970202  21.9539975 -14.3506725
  96.5830012  22.9094997  -9.8690012  97.0290012  22.1174997  -9.5670012
  97.0500012  23.6254997  -9.4380012  96.7070172  22.8980624  -9.7695180
  94.8870012  25.9084997  -8.8000012  95.3790012  25.6874997  -9.5910012
  95.2500012  26.7494997  -8.5190012  95.0033126  25.9918357  -8.8702469
 112.8840012  22.2384997  -2.5340012 111.9660012  22.5094997  -2.5700012
 113.0070012  21.7034997  -3.3190012 112.7751066  22.2032892  -2.6449513
 112.9200012  22.1614997 -17.8730012 113.3320012  21.4404997 -18.3480012
 113.6020012  22.8314997 -17.8140012 113.0685885  22.1532368 -17.9301085
  95.2010012  22.1664997 -14.7460012  94.2760012  22.3754997 -14.8750012
  95.6550012  22.6504997 -15.4350012  95.1357368  22.2605993 -14.8568774
 109.9720012  37.1504997 -12.8000012 110.6240012  36.8034997 -13.4080012
 110.4820012  37.6394997 -12.1540012 110.1302637  37.1690597 -12.7959764
  95.1650012  20.9044997  -6.4010012  94.5000012  20.6584997  -5.7580012
  94.7220012  21.5264997  -6.9790012  95.0140956  20.9548632  -6.3910648
  97.3570012  34.0794997  -2.2570012  96.5360012  34.2544997  -2.7170012
  97.1040012  34.0064997  -1.3360012  97.2106164  34.0935622  -2.1955077
 100.3110012  35.0544997  -5.9980012  99.8860012  35.8634997  -6.2810012
 101.2150012  35.1394997  -6.3000012 100.3750271  35.1768469  -6.0776224
 104.6220012  36.4534997  -3.0390012 104.8070012  36.1194997  -2.1610012
 105.4680012  36.7624997  -3.3610012 104.7617539  36.4496047  -2.9624395
 106.9670012  37.7394997  -3.7950012 107.6440012  37.1064997  -4.0350012
 107.2890012  38.1404997  -2.9880012 107.1031637  37.7071154  -3.7187207
 111.8840012  20.3284997  -4.7150012 111.0720012  20.6534997  -5.1030012
 112.1170012  19.5684997  -5.2480012 111.8043423  20.2702436  -4.8401747
  97.7130012  38.3104997  -5.9510012  96.9920012  38.7504997  -6.4020012
  97.3470012  38.0594997  -5.1020012  97.5649804  38.3367698  -5.8980160
 100.1800012  37.9104997  -6.9210012  99.3150012  37.9824997  -6.5170012
 100.1250012  38.4574997  -7.7050012 100.0542085  37.9942685  -6.9716638
 104.8900012  37.7984997  -7.7460012 104.4340012  38.3274997  -8.4000012
 105.0530012  38.4014997  -7.0200012 104.8495585  37.9524468  -7.7374938
 107.2180012  36.6764997  -6.8010012 106.3130012  36.8414997  -7.0660012
 107.6470012  37.5294997  -6.8660012 107.1520799  36.8144483  -6.8460818
 109.8220012  38.2464997  -6.5060012 109.6400012  39.1624997  -6.7160012
 109.9990012  37.8364997  -7.3520012 109.8210210  38.3164822  -6.6492115
  97.1270012  36.9334997  -9.0410012  97.1090012  36.5084997  -8.1830012
  97.9320012  36.6154997  -9.4490012  97.2333875  36.8323812  -8.9788345
  99.2690012  35.6434997 -10.3860012  99.0500012  34.7274997 -10.2160012
 100.0930012  35.7834997  -9.9200012  99.3504420  35.5370520 -10.2997226
 101.8060012  36.1134997  -9.5370012 102.0190012  35.2254997  -9.8240012
 101.8700012  36.0794997  -8.5830012 101.8438232  35.9873102  -9.4472603
 105.3140012  21.7774997 -10.3930012 104.6400012  21.1484997 -10.1370012
 105.8780012  21.2934997 -10.9960012 105.2979230  21.6258744 -10.4394660
 110.4570012  19.8854997 -10.2800012 111.0610012  20.4324997 -10.7820012
 109.5870012  20.2044997 -10.5200012 110.4221241  20.0035806 -10.3812346
 112.1840012  21.0234997 -11.9470012 112.7960012  20.5094997 -12.4730012
 112.5660012  21.9014997 -11.9230012 112.3194540  21.0717140 -12.0158170
  97.6410012  20.4114997 -12.5710012  96.8640012  20.1774997 -13.0780012
  98.1710012  19.6144997 -12.5620012  97.6062330  20.2716988 -12.6392258
  96.4770012  20.2094997 -16.7670012  96.9160012  20.8204997 -17.3590012
  95.8440012  20.7474997 -16.2930012  96.4514514  20.3659257 -16.7839070
 102.2200012  20.3384997 -12.7570012 103.0950012  20.7264997 -12.7870012
 102.0840012  20.1234997 -11.8350012 102.3213695  20.3625184 -12.6363560
 107.7770012  20.3684997 -11.1080012 107.8530012  20.4634997 -12.0580012
 107.5020012  19.4604997 -10.9790012 107.7502321  20.2587867 -11.2204921
 109.1300012  20.3944997 -15.4160012 108.4280012  21.0094997 -15.6250012
 108.6860012  19.5564997 -15.2850012 108.9736330  20.3655783 -15.4269672
  96.3780012  36.1574997 -15.8690012  95.6930012  36.1194997 -16.5370012
  96.3820012  37.0704997 -15.5810012  96.2848193  36.2757016 -15.9214716
  98.3380012  22.1254997 -18.3250012  98.8300012  21.4954997 -18.8520012
  98.9620012  22.4214997 -17.6610012  98.4895446  22.0793199 -18.3074020
 103.3640012  22.4184997 -15.8680012 103.5420012  21.7724997 -15.1850012
 103.3110012  23.2524997 -15.4000012 103.3811829  22.4427985 -15.7114060
 105.2430012  37.3674997 -17.4720012 106.1090012  37.7334997 -17.6500012
 104.9960012  36.9274997 -18.2860012 105.3282392  37.3581756 -17.6063711
 111.9520012  36.9304997 -14.7930012 111.7570012  36.1824997 -15.3580012
 111.9130012  37.6884997 -15.3760012 111.9200380  36.9306099 -14.9491616
  97.5990012  20.9254997  -3.0530012  97.2330012  20.1604997  -2.6100012
  98.5120012  20.9544997  -2.7660012  97.6722790  20.8247224  -2.9535930
  99.5720012  20.2764997  -1.5170012 100.4700012  20.0024997  -1.7020012
  99.1850012  19.5334997  -1.0530012  99.6426612  20.1385914  -1.4796357
  98.1960012  37.0774997 -18.8440012  97.9290012  37.3644997 -17.9710012
  98.9680012  36.5314997 -18.6920012  98.2637488  37.0430294 -18.7038950
 107.9930012  19.6084997  -1.3350012 108.0700012  19.1824997  -0.4810012
 108.8870012  19.6224997  -1.6780012 108.1243428  19.5520879  -1.2644690
 111.1690012  35.6814997  -2.6430012 110.3870012  35.4954997  -3.1620012
 111.0970012  36.6104997  -2.4250012 111.0521777  35.7816492  -2.6845952
 125.5750012  29.5674997 -12.6120012 125.6640012  30.5114997 -12.7440012
 124.9370012  29.2924997 -13.2700012 125.5009081  29.6594830 -12.7190386
 124.5080012  28.8224997  -9.1930012 124.4700012  28.1764997  -8.4880012
 124.1860012  28.3564997  -9.9640012 124.4592333  28.6709408  -9.2007022
 116.8770012  28.4374997  -7.6000012 116.9180012  27.8114997  -6.8770012
 117.5800012  29.0614997  -7.4180012 116.9776363  28.4361196  -7.4763956
 128.2140012  31.7614997 -10.8920012 127.7740012  31.0414997 -10.4410012
 128.2010012  32.4824997 -10.2620012 128.1520226  31.7603731 -10.7451506
 117.8000012  32.8874997  -9.0650012 117.4310012  32.0854997  -9.4350012
 118.7410012  32.7184997  -9.0190012 117.8767289  32.7550153  -9.1093684
 114.4100012  26.5474997 -13.6720012 113.9630012  27.3934997 -13.6910012
 113.8490012  25.9674997 -14.1880012 114.2729900  26.5849916 -13.7443199
 115.1210012  28.7094997 -11.5460012 115.3340012  27.9394997 -11.0190012
 115.8590012  28.7984997 -12.1500012 115.2498496  28.6161394 -11.5554700
 125.3260012  36.8664997 -10.6790012 125.9460012  36.1894997 -10.9530012
 125.1180012  36.6484997  -9.7710012 125.3826904  36.7443870 -10.5936635
 122.8980012  31.2554997  -8.7870012 123.2020012  30.5694997  -9.3820012
 123.6190012  31.3734997  -8.1690012 123.0370671  31.1776305  -8.7848184
 131.5610012  22.8564997  -7.9260012 131.6100012  23.4664997  -7.1900012
 131.9860012  23.3174997  -8.6490012 131.6251824  23.0023741  -7.9229795
 126.0390012  25.6494997  -8.4590012 126.1810012  24.7034997  -8.4390012
 125.9320012  25.8564997  -9.3880012 126.0439864  25.5479534  -8.5817661
 119.1930012  23.7504997 -11.1870012 119.2370012  24.6104997 -11.6050012
 118.7360012  23.1984997 -11.8210012 119.1372185  23.7935799 -11.3299701
 126.9160012  23.8814997 -12.7860012 127.5620012  23.5524997 -12.1610012
 127.4260012  24.3994997 -13.4090012 127.0734264  23.9064611 -12.7846138
 115.8140012  26.1474997 -10.4250012 116.4670012  25.5974997  -9.9930012
 115.8380012  25.8734997 -11.3420012 115.9066683  26.0351466 -10.4897877
 120.9700012  27.6974997 -11.2100012 121.5860012  27.1714997 -10.7000012
 120.3840012  27.0574997 -11.6130012 120.9750810  27.5389208 -11.1946827
 131.9520012  24.3344997  -5.6900012 131.2640012  24.9924997  -5.7860012
 131.9680012  24.1374997  -4.7540012 131.8598525  24.3980462  -5.5765192
 118.0040012  22.6684997  -7.1130012 117.7850012  23.1984997  -7.8790012
 117.3360012  22.8954997  -6.4660012 117.8837600  22.7716906  -7.1303621
 125.3730012  32.1684997 -13.5690012 125.0770012  31.8464997 -14.4200012
 125.0480012  33.0684997 -13.5280012 125.2886371  32.2460215 -13.6798199
 120.5730012  30.3444997  -6.8260012 119.8330012  30.9424997  -6.7220012
 121.2870012  30.8984997  -7.1410012 120.5682237  30.5012831  -6.8543535
 128.6800012  23.1724997 -10.8060012 128.4640012  22.4064997 -10.2730012
 129.3350012  23.6444997 -10.2930012 128.7390632  23.1315889 -10.6637139
 117.5970012  24.5604997  -9.1610012 118.2110012  25.1934997  -8.7870012
 118.1090012  24.0884997  -9.8170012 117.7502296  24.5832370  -9.1985748
 118.9800012  32.3084997  -6.0380012 118.9750012  33.1884997  -6.4160012
 118.1270012  32.2254997  -5.6130012 118.8639464  32.4176117  -6.0322093
 115.1010012  31.9794997 -15.2560012 114.8290012  32.2084997 -16.1450012
 115.1470012  32.8174997 -14.7960012 115.0700094  32.1241213 -15.3154303
 128.7260012  33.6014997  -8.5440012 127.7850012  33.6594997  -8.3820012
 129.0030012  34.5074997  -8.6810012 128.6344679  33.7319443  -8.5403185
 129.0270012  21.8874997  -7.1260012 128.2910012  22.4984997  -7.1640012
 129.7100012  22.3024997  -7.6530012 129.0186541  22.0271374  -7.2024168
 122.0300012  19.9744997  -9.6600012 121.9130012  19.0254997  -9.7150012
 121.1750012  20.3064997  -9.3870012 121.8983733  19.8895409  -9.6306103
 126.9780012  35.3824997 -11.9180012 127.4040012  34.6754997 -12.4030012
 127.2950012  36.1834997 -12.3350012 127.0791019  35.3940994 -12.0406870
 128.1380012  33.2834997 -13.4100012 127.8800012  32.5934997 -14.0210012
 128.2090012  32.8404997 -12.5640012 128.1122856  33.1292124 -13.3793115
 129.8240012  31.8494997  -4.9320012 129.9640012  31.2584997  -5.6720012
 129.9910012  32.7224997  -5.2890012 129.8656778  31.8866426  -5.0813035
 124.2970012  28.8114997 -15.1600012 123.5850012  29.3464997 -15.5120012
 124.9880012  28.8674997 -15.8200012 124.2930132  28.8922543 -15.2973711
 124.3500012  27.2694997 -18.1210012 125.0510012  27.2914997 -17.4700012
 124.6530012  26.6414997 -18.7770012 124.4867830  27.1876566 -18.1206289
 131.6660012  28.1894997  -6.8660012 131.0130012  28.8844997  -6.7770012
 132.1310012  28.3994997  -7.6760012 131.6395390  28.3129425  -6.9633117
 127.7020012  29.0214997 -14.2080012 126.9700012  29.2494997 -13.6350012
 128.1500012  28.3074997 -13.7530012 127.6623095  28.9562571 -14.0680881
 127.6000012  27.1954997  -5.1410012 127.6800012  27.9584997  -4.5690012
 126.9980012  27.4744997  -5.8310012 127.5295756  27.3377134  -5.1559411
 119.3480012  29.6514997 -12.3260012 119.0170012  29.2814997 -13.1440012
 119.9360012  28.9814997 -11.9790012 119.3821873  29.5101156 -12.3911898
 120.7140012  33.0794997  -9.6440012 120.6200012  32.5014997 -10.4010012
 121.4440012  32.7084997  -9.1480012 120.7997981  32.9502390  -9.6805835
 119.7140012  28.4204997  -8.6920012 120.2800012  28.5414997  -9.4550012
 120.0330012  29.0574997  -8.0530012 119.8345786  28.5231884  -8.7099960
 126.0230012  33.9234997  -7.9580012 125.7830012  34.5854997  -7.3100012
 125.8250012  33.0894997  -7.5330012 125.9633808  33.9013134  -7.8118476
 120.5940012  32.8194997  -3.9750012 120.2830012  33.6014997  -3.5200012
 119.9440012  32.6664997  -4.6610012 120.4635558  32.9059105  -4.0054129
 126.5730012  28.1834997 -16.5230012 127.1530012  28.3334997 -15.7760012
 126.9870012  28.6544997 -17.2460012 126.7082830  28.2676841 -16.5185866
 117.5140012  29.0174997  -4.7460012 117.5850012  29.6684997  -4.0480012
 116.6240012  29.1204997  -5.0810012 117.4033117  29.1205936  -4.6957300
 124.3000012  34.9204997 -13.0880012 124.7740012  35.2154997 -12.3100012
 123.7370012  35.6584997 -13.3210012 124.2887653  35.0606932 -13.0129864
 118.8340012  34.8914997  -3.2120012 118.8410012  34.7554997  -4.1590012
 117.9180012  34.7734997  -2.9600012 118.7111714  34.8569430  -3.3075334
 130.2720012  19.9334997 -16.7100012 129.3720012  20.0724997 -16.4150012
 130.5240012  20.7644997 -17.1120012 130.1828702  20.0649074 -16.7239795
 118.3380012  28.7214997 -14.7360012 118.0460012  29.4894997 -15.2270012
 117.6640012  28.0614997 -14.8990012 118.2069081  28.7374406 -14.8252660
 131.4610012  34.2994997 -18.3340012 131.5350012  35.2384997 -18.1630012
 132.3670012  33.9944997 -18.3900012 131.5935100  34.3866722 -18.3181881
 114.4310012  31.0844997  -5.9210012 113.9300012  31.0564997  -6.7360012
 114.4360012  30.1784997  -5.6120012 114.3631526  30.9582278  -5.9907128
 114.1810012  33.8644997  -9.0370012 115.1270012  33.7204997  -9.0560012
 114.0690012  34.6484997  -8.5000012 114.2952727  33.9508046  -8.9669928
 132.3790012  34.5304997  -3.3550012 132.3300012  33.5754997  -3.3920012
 131.5520012  34.7984997  -2.9540012 132.2604940  34.4358998  -3.3058625
 123.3580012  34.1044997  -4.4790012 123.4450012  34.9304997  -4.0040012
 122.4940012  33.7744997  -4.2300012 123.2531964  34.1729878  -4.3803451
 123.7720012  37.8764997 -14.6730012 123.6970012  37.7554997 -15.6190012
 123.8050012  38.8264997 -14.5540012 123.7661848  37.9882500 -14.7865166
 117.4250012  36.6654997 -12.8920012 117.5780012  36.3174997 -12.0130012
 116.5750012  36.3094997 -13.1470012 117.3308962  36.5696650 -12.8061660
 126.8740012  37.0304997 -17.6710012 127.2490012  36.2864997 -18.1410012
 126.8780012  36.7604997 -16.7520012 126.9258915  36.8921486 -17.6112176
 126.5430012  36.9564997 -14.9210012 125.6070012  37.0564997 -14.7430012
 126.8230012  36.2474997 -14.3430012 126.4528255  36.8742711 -14.8184609
 129.5310012  26.0234997  -2.8750012 129.1240012  26.5044997  -3.5960012
 129.5720012  25.1184997  -3.1830012 129.4808437  25.9669374  -3.0153317
 116.6800012  32.4074997  -4.8780012 116.8960012  32.0464997  -4.0190012
 115.8250012  32.0334997  -5.0880012 116.5939292  32.3074111  -4.7886614
 119.2990012  20.8774997  -8.8830012 118.4370012  20.7904997  -9.2900012
 119.2760012  21.7334997  -8.4550012 119.1780330  20.9812765  -8.8808137
 123.9620012  20.5994997  -5.5080012 124.3820012  20.1844997  -4.7550012
 123.0290012  20.4214997  -5.3910012 123.8933644  20.5185900  -5.3890461
 127.2880012  24.3554997  -4.6550012 126.7740012  24.2294997  -3.8570012
 127.1330012  25.2674997  -4.8990012 127.1966852  24.4616132  -4.5787842
 128.0510012  29.2164997 -18.8930012 128.0930012  28.9934997 -19.8230012
 128.9000012  29.6154997 -18.7030012 128.1715396  29.2399155 -18.9946373
 123.6230012  23.0924997 -18.2230012 123.3700012  23.1114997 -17.3000012
 123.3670012  22.2204997 -18.5240012 123.5537790  22.9772437 -18.1373737
 119.3900012  25.8434997  -7.7880012 118.7480012  25.8024997  -7.0790012
 119.4270012  26.7694997  -8.0250012 119.3071324  25.9631559  -7.7230176
 119.3870012  26.0644997 -12.8760012 118.4940012  25.7234997 -12.9340012
 119.8370012  25.6874997 -13.6310012 119.3257305  25.9668484 -12.9860823
 124.9220012  26.4804997 -14.0590012 124.5130012  27.2954997 -14.3500012
 125.6430012  26.3404997 -14.6730012 124.9634537  26.5732018 -14.1818658
 124.0240012  26.6554997  -2.5710012 123.4620012  25.9514997  -2.2500012
 124.8510012  26.5354997  -2.1030012 124.0587095  26.5427883  -2.4637670
 125.9270012  25.9264997 -11.2450012 125.7320012  26.5314997 -11.9600012
 126.1080012  25.0924997 -11.6790012 125.9247614  25.8966300 -11.4015595
 117.1400012  26.1634997  -5.9210012 117.1020012  26.5634997  -5.0520012
 116.6490012  25.3464997  -5.8300012 117.0684684  26.1078069  -5.7898941
 120.5060012  23.5374997 -19.1220012 120.0750012  23.0924997 -18.3920012
 119.7880012  23.9094997 -19.6340012 120.3499438  23.5268940 -19.0913201
 113.7480012  23.2794997 -12.0700012 114.3790012  23.2504997 -11.3510012
 114.1970012  22.8544997 -12.8000012 113.8950774  23.2180492 -12.0703447
 115.0220012  24.0254997 -16.6460012 115.4960012  24.6164997 -17.2310012
 114.3050012  24.5564997 -16.2990012 114.9899341  24.1780867 -16.6791164
 125.1910012  27.5644997  -6.5730012 125.5140012  26.9334997  -7.2160012
 124.7510012  27.0294997  -5.9130012 125.1756895  27.4058441  -6.5717150
 121.9680012  23.4914997 -11.7890012 121.0570012  23.5484997 -11.5010012
 122.4740012  23.4314997 -10.9790012 121.9115413  23.4911985 -11.6399378
 116.7970012  25.1204997 -12.9630012 115.9070012  25.2204997 -13.3030012
 117.0930012  24.2784997 -13.3090012 116.7152823  25.0203545 -13.0562787
 120.4500012  25.1204997 -15.3060012 121.3810012  25.2494997 -15.1280012
 120.2350012  25.7904997 -15.9560012 120.5484247  25.2286565 -15.3694253
 126.3730012  22.7264997  -8.5250012 125.6970012  22.8574997  -7.8610012
 125.8880012  22.5714997  -9.3350012 126.2147145  22.7234905  -8.5435483
 119.1240012  26.3154997 -17.7390012 118.5810012  25.9354997 -18.4310012
 119.9570012  26.5094997 -18.1680012 119.1624399  26.2898124 -17.8915474
 129.6610012  38.3984997  -2.2480012 129.8610012  38.8224997  -3.0830012
 130.3160012  38.7414997  -1.6410012 129.7770051  38.5029648  -2.2802164
 117.2590012  30.8724997  -2.6400012 117.9910012  31.1264997  -2.0790012
 116.4790012  31.0764997  -2.1250012 117.2538232  30.9349177  -2.4934240
 123.2880012  26.2794997  -9.9020012 123.8530012  25.7324997 -10.4490012
 123.1410012  25.7574997  -9.1140012 123.3452918  26.1342024  -9.8701546
 118.2900012  22.4154997 -13.4840012 117.9730012  21.5134997 -13.5190012
 119.0720012  22.4174997 -14.0370012 118.3522284  22.2921628 -13.5635217
 121.9150012  24.6674997  -7.4880012 121.0790012  25.1214997  -7.3780012
 122.4390012  24.9434997  -6.7360012 121.8714414  24.7669376  -7.3712864
 122.4590012  30.8804997 -15.8040012 121.7140012  30.3734997 -16.1260012
 122.3250012  30.9294997 -14.8570012 122.3388776  30.8176940 -15.7201353
 129.6090012  30.0134997  -7.0170012 130.2510012  30.4704997  -7.5610012
 128.7790012  30.1264997  -7.4800012 129.5845963  30.0912704  -7.1539823
 126.3570012  23.6944997 -17.6040012 125.4180012  23.8064997 -17.7560012
 126.6540012  24.5514997 -17.2980012 126.2687666  23.8256443 -17.5834232
 123.9780012  31.0644997  -4.5670012 123.6330012  30.6834997  -3.7600012
 123.7780012  31.9984997  -4.4950012 123.9038061  31.1385228  -4.4469039
 127.0750012  25.5614997 -15.9440012 127.9670012  25.4244997 -15.6250012
 127.1320012  26.3524997 -16.4800012 127.2046285  25.6496660 -15.9728309
 117.5840012  30.1754997 -10.0340012 118.3290012  30.1734997 -10.6350012
 117.6620012  29.3524997  -9.5520012 117.6965518  30.0639315 -10.0511071
 124.5850012  32.3394997 -16.7780012 124.2890012  33.1654997 -16.3970012
 123.8820012  31.7194997 -16.5820012 124.4494914  32.3688199 -16.6993557
 114.5920012  28.6364997  -4.7190012 114.8150012  28.2184997  -3.8870012
 113.9900012  28.0234997  -5.1420012 114.5411759  28.4964668  -4.6622978
 121.6080012  28.1534997  -2.5060012 121.3120012  27.9874997  -3.4010012
 122.5400012  27.9334997  -2.5170012 121.6934166  28.1010640  -2.6299464
 126.2290012  33.5264997  -4.6160012 125.3280012  33.7094997  -4.8840012
 126.2630012  33.7854997  -3.6950012 126.1103041  33.5865512  -4.5281803
 131.9600012  25.7714997 -16.2490012 131.4060012  25.3754997 -16.9210012
 132.0600012  26.6814997 -16.5270012 131.8977059  25.8403586 -16.3785599
 131.9230012  31.5714997  -3.4120012 131.0720012  31.8094997  -3.7790012
 132.5140012  31.5544997  -4.1650012 131.8862487  31.6018258  -3.5641107
 130.2550012  34.5574997 -15.7840012 129.8820012  33.7314997 -15.4750012
 130.5330012  34.3744997 -16.6810012 130.2415630  34.4197303 -15.8630374
 127.4160012  29.3654997  -8.7630012 126.4870012  29.1334997  -8.7900012
 127.8670012  28.5884997  -9.0930012 127.3499216  29.2287238  -8.8113083
 119.9590012  33.6934997 -12.6300012 120.4860012  34.4664997 -12.8300012
 119.0790012  33.9184997 -12.9310012 119.9121773  33.8298005 -12.6980990
 115.7140012  28.5554997 -18.0430012 116.3300012  29.1824997 -17.6630012
 114.8520012  28.8714997 -17.7710012 115.6817698  28.6839430 -17.9542817
 121.3860012  31.3564997 -13.0530012 121.1450012  32.2814997 -13.0120012
 120.6450012  30.8974997 -12.6570012 121.2528409  31.4211421 -12.9938623
 121.9010012  35.5054997  -6.7380012 122.2630012  36.3604997  -6.9720012
 122.4320012  35.2134997  -5.9980012 122.0224473  35.5831060  -6.6699145
 120.0690012  36.3784997 -13.5080012 119.1190012  36.4834997 -13.4570012
 120.4210012  37.1984997 -13.1630012 119.9864203  36.5038314 -13.4543350
 125.4450012  31.6044997  -7.0380012 125.0190012  31.3774997  -6.2110012
 126.0250012  30.8664997  -7.2200012 125.4651868  31.4735299  -6.9494170
 127.6480012  32.5334997 -17.9640012 128.0010012  32.1534997 -17.1590012
 126.6990012  32.4404997 -17.8770012 127.5680441  32.4689596 -17.8421441
 128.1030012  36.1564997  -4.5680012 127.5020012  35.6014997  -5.0640012
 128.3850012  36.8234997  -5.1940012 128.0588519  36.1706841  -4.7205048
 132.1510012  37.0134997 -17.7630012 132.8950012  37.5994997 -17.9030012
 131.4570012  37.5814997 -17.4290012 132.1590292  37.1705582 -17.7370039
 116.2260012  23.3894997  -5.1610012 115.3330012  23.7284997  -5.2290012
 116.1270012  22.5344997  -4.7430012 116.0904164  23.3202588  -5.1137765
 128.5140012  31.2064997 -15.7370012 128.2360012  30.4784997 -15.1810012
 129.4410012  31.3254997 -15.5320012 128.6013124  31.1228802 -15.6331155
 115.8770012  35.1944997  -6.7260012 116.0940012  34.2624997  -6.7570012
 116.1230012  35.4684997  -5.8430012 115.9399549  35.1040636  -6.6108237
 121.7390012  33.6454997 -19.5170012 121.9780012  32.8974997 -20.0640012
 121.4700012  33.2574997 -18.6840012 121.7353675  33.4906638 -19.4793135
 120.6760012  33.2154997 -17.0600012 120.8220012  32.6954997 -16.2700012
 120.6730012  34.1224997 -16.7540012 120.6955989  33.2668853 -16.9103912
 117.1290012  30.4684997 -16.5500012 116.4430012  30.8204997 -15.9830012
 117.6510012  31.2314997 -16.7970012 117.1056852  30.6198578 -16.5057882
 124.9600012  23.1304997  -6.2710012 125.6590012  23.2044997  -5.6210012
 124.5790012  22.2664997  -6.1170012 125.0041767  23.0237624  -6.1611678
 125.7450012  22.7824997 -15.1740012 125.9650012  23.2544997 -15.9770012
 126.3030012  23.1774997 -14.5040012 125.8504968  22.9004285 -15.1932669
 123.4130012  34.9134997 -16.3110012 122.5970012  35.4104997 -16.2590012
 123.9430012  35.3884997 -16.9510012 123.3729161  35.0457722 -16.3904044
 122.9450012  24.5104997 -14.3390012 123.7570012  25.0154997 -14.2930012
 122.7000012  24.3654997 -13.4250012 123.0230520  24.5600375 -14.2091483
 123.4800012  25.4964997  -5.1540012 123.5990012  26.0704997  -4.3970012
 124.1360012  24.8084997  -5.0400012 123.5849757  25.4821079  -5.0349175
 123.8280012  21.5914997 -13.4010012 123.4820012  22.2094997 -12.7560012
 124.4870012  22.0924997 -13.8820012 123.8697826  21.7435802 -13.3779029
 120.7520012  35.9574997 -16.3290012 120.9120012  36.7564997 -16.8300012
 120.5540012  36.2634997 -15.4440012 120.7471649  36.1084469 -16.2780185
 119.4860012  22.6544997 -16.7140012 119.4030012  23.5434997 -16.3670012
 120.3760012  22.3894997 -16.4820012 119.5949469  22.7401430 -16.6352374
 129.6850012  23.4034997  -4.3190012 128.7680012  23.6664997  -4.4070012
 130.0200012  23.4004997  -5.2160012 129.6049900  23.4390224  -4.4522081
 128.2870012  27.1544997 -10.2240012 127.4890012  26.7394997 -10.5520012
 128.7320012  26.4634997  -9.7330012 128.2379885  27.0043543 -10.2025111
 117.7450012  33.0824997 -17.6530012 118.3370012  33.7814997 -17.3770012
 118.2040012  32.6494997 -18.3730012 117.8881142  33.1197049 -17.7125170
 116.0610012  25.7464997 -18.5370012 116.0160012  26.6854997 -18.3590012
 115.1730012  25.5104997 -18.8070012 115.9348574  25.8431892 -18.5491088
 129.3730012  36.4104997  -8.6010012 129.2180012  37.0884997  -9.2580012
 130.3060012  36.4824997  -8.3980012 129.4778500  36.5130170  -8.6634881
 116.8690012  20.5284997  -9.8640012 116.6400012  20.5874997 -10.7920012
 116.4260012  19.7364997  -9.5580012 116.7778530  20.4295753  -9.9495214
 115.7990012  34.4684997 -13.7040012 114.9670012  34.9414997 -13.6760012
 116.3450012  34.9784997 -14.3020012 115.7589739  34.6021871 -13.7810284
 115.0870012  37.0814997  -2.3740012 115.6280012  36.8644997  -1.6140012
 114.6060012  36.2754997  -2.5630012 115.0959345  36.9429514  -2.2956924
 119.6850012  36.0004997  -0.7530012 120.4520012  35.5414997  -0.4120012
 119.6630012  35.7744997  -1.6830012 119.7871434  35.9070409  -0.8319957
 123.7770012  35.5084997 -19.3780012 123.1330012  34.8774997 -19.0570012
 124.5390012  34.9774997 -19.6100012 123.7918077  35.3502920 -19.3653989
 126.2620012  34.3804997  -2.0240012 125.9110012  33.5244997  -1.7810012
 126.9880012  34.5234997  -1.4170012 126.3120769  34.2825636  -1.9086381
 128.3810012  35.3254997 -19.1440012 128.6640012  34.5314997 -18.6920012
 129.1210012  35.5584997 -19.7050012 128.5197486  35.2482803 -19.1579302
 114.9940012  30.8914997  -1.4190012 115.1380012  29.9894997  -1.7060012
 114.2220012  31.1774997  -1.9070012 114.9093322  30.8068261  -1.5242119
 119.3360012  31.2354997 -19.2870012 119.4000012  30.4414997 -18.7560012
 119.9890012  31.1164997 -19.9770012 119.4330241  31.1107148 -19.3075683
 121.6500012  30.8614997  -1.9870012 121.3210012  31.1324997  -2.8440012
 121.8020012  29.9204997  -2.0740012 121.6254809  30.7713862  -2.1161756
 127.3840012  30.7774997  -4.6030012 128.1300012  31.3654997  -4.7230012
 126.6270012  31.3594997  -4.5400012 127.3837554  30.9367011  -4.6109093
 115.8270012  28.0914997  -1.9990012 116.2350012  27.2344997  -2.1200012
 115.5670012  28.1064997  -1.0780012 115.8477568  27.9760807  -1.8910412
 120.4850012  29.2074997 -16.9810012 120.0250012  28.7234997 -16.2950012
 120.7400012  28.5394997 -17.6170012 120.4564902  29.0508731 -16.9730666
 119.7740012  27.1004997  -4.6250012 119.1560012  27.7754997  -4.3450012
 120.1180012  27.4214997  -5.4580012 119.7359615  27.2362721  -4.6993419
 121.5560012  27.4504997 -18.7190012 121.3760012  27.2964997 -19.6460012
 122.5060012  27.5584997 -18.6740012 121.6597776  27.4440175 -18.8398157
 124.7940012  29.5724997  -1.3480012 125.7470012  29.6554997  -1.3750012
 124.6330012  28.8604997  -0.7280012 124.9026426  29.4876746  -1.2679421
 130.9460012  29.8054997 -19.2730012 130.6720012  29.3804997 -20.0860012
 130.9850012  30.7364997 -19.4900012 130.9137699  29.8732484 -19.4136390
 120.1130012  24.4554997  -3.5430012 120.2630012  23.7264997  -4.1450012
 120.1160012  25.2324997  -4.1020012 120.1339302  24.4607851  -3.7009308
 120.5260012  22.8254997  -6.0500012 121.0620012  23.2764997  -6.7020012
 119.6740012  22.7174997  -6.4730012 120.4842178  22.8726390  -6.1964244
 122.1080012  28.2644997  -5.8110012 122.8580012  28.1084997  -6.3840012
 121.7690012  29.1164997  -6.0860012 122.1648921  28.3582968  -5.9266439
 126.5230012  26.0794997  -0.7820012 126.7160012  25.1484997  -0.8940012
 127.3810012  26.5044997  -0.7920012 126.6653020  26.0096389  -0.7986639
 127.8400012  28.8684997  -2.7050012 127.5590012  29.5774997  -3.2820012
 128.7830012  28.7954997  -2.8560012 127.9289027  28.9557646  -2.8044449
 118.5920012  25.6534997  -1.6310012 117.8250012  25.1214997  -1.8410012
 119.2710012  25.3434997  -2.2310012 118.5787022  25.5387506  -1.7408352
 121.3320012  20.2814997  -5.6190012 121.2330012  21.2284997  -5.7240012
 120.5890012  19.9094997  -6.0940012 121.2180564  20.3605902  -5.6975440
 122.5960012  24.6034997  -2.0550012 122.3600012  24.3834997  -1.1530012
 121.8120012  24.3964997  -2.5650012 122.4578628  24.5454760  -2.0006068
 125.3110012  23.7304997  -2.9790012 124.3640012  23.7624997  -2.8470012
 125.6240012  23.1054997  -2.3260012 125.2235475  23.6503207  -2.8725545
 126.9450012  22.3644997  -0.9740012 126.8490012  21.4124997  -0.9800012
 126.6240012  22.6334997  -0.1140012 126.8884070  22.2704035  -0.8584559
 116.7720012  23.5744997  -1.9270012 116.9840012  22.8674997  -2.5370012
 116.6610012  23.1364997  -1.0830012 116.7859721  23.4187084  -1.8963157
 121.5530012  19.5754997  -2.9470012 122.2650012  18.9354997  -2.9610012
 121.4520012  19.8424997  -3.8610012 121.6367939  19.5239938  -3.0724350
 121.9070012  21.2584997  -0.8940012 121.7750012  20.7824997  -1.7140012
 121.3080012  22.0024997  -0.9490012 121.8079071  21.2939618  -1.0137114
 121.4530012  38.1414997 -17.7170012 122.3860012  38.2994997 -17.5740012
 121.1890012  38.8164997 -18.3420012 121.5449510  38.2543611 -17.7819259
 115.0220012  32.7774997 -18.2350012 115.9360012  32.8564997 -17.9610012
 115.0290012  32.0904997 -18.9010012 115.1481131  32.6953961 -18.2875607
 113.6710012  38.1704997 -13.1570012 113.0240012  37.7084997 -13.6900012
 114.0250012  37.4984997 -12.5750012 113.6303849  38.0164723 -13.1512041
 114.5410012  36.2514997 -11.3530012 114.2060012  35.3714997 -11.1810012
 114.7630012  36.5964997 -10.4880012 114.5251783  36.1777500 -11.2125792
 132.0890012  37.0604997  -8.3720012 132.0680012  37.2454997  -7.4330012
 132.7800012  37.6294997  -8.7130012 132.1794618  37.1626606  -8.2896136
 131.6530012  36.6284997  -5.4500012 131.1650012  35.8924997  -5.8210012
 132.2020012  36.2344997  -4.7720012 131.6604872  36.4746249  -5.4090840
 130.1030012  32.4174997  -0.8120012 129.2370012  32.3124997  -0.4180012
 130.4800012  33.1764997  -0.3660012 130.0353308  32.5056900  -0.6977607
 131.4040012  30.6744997 -15.2980012 132.2540012  31.0954997 -15.1710012
 131.4100012  29.9344997 -14.6910012 131.5211372  30.6320803 -15.1985656
 131.7990012  28.7274997 -13.4740012 131.0720012  28.2484997 -13.0770012
 132.3800012  28.9334997 -12.7420012 131.7779375  28.6897090 -13.3205871
 131.5580012  31.5124997  -8.5270012 132.3910012  31.1344997  -8.8070012
 131.6700012  32.4554997  -8.6460012 131.6872647  31.5882218  -8.5814513
 130.0440012  34.3904997  -6.2200012 129.3970012  34.7154997  -5.5940012
 129.5270012  33.9504997  -6.8940012 129.8854029  34.3755004  -6.2254173
 132.0670012  28.6284997 -17.0830012 131.5450012  28.9854997 -17.8020012
 132.0340012  29.3034997 -16.4050012 131.9911634  28.7685413 -17.0896855
 130.4160012  25.8684997 -18.5320012 130.5120012  26.5354997 -19.2130012
 130.2760012  25.0524997 -19.0140012 130.4102135  25.8494500 -18.6901509
 129.5850012  27.2484997 -12.9110012 129.4350012  26.3034997 -12.9320012
 129.2320012  27.5294997 -12.0680012 129.5166625  27.1570441 -12.7997654
 114.6210012  29.3264997  -8.9010012 114.8050012  29.2444997  -9.8370012
 115.4700012  29.2024997  -8.4770012 114.7610139  29.2985003  -8.9718545
 130.4420012  29.2184997  -3.2730012 131.0250012  28.4844997  -3.0810012
 131.0060012  29.9904997  -3.2260012 130.5979769  29.2224227  -3.2403841
 131.9380012  27.1214997  -2.5880012 131.0750012  26.7424997  -2.7540012
 132.5430012  26.3824997  -2.6620012 131.9015979  26.9698023  -2.6207183
 129.6630012  23.2764997 -19.4150012 130.2740012  22.9054997 -18.7780012
 128.8270012  22.8554997 -19.2190012 129.6335032  23.1687554 -19.3012965
 129.2960012  24.8314997 -14.4490012 129.5760012  23.9244997 -14.3250012
 130.0550012  25.2654997 -14.8380012 129.4369277  24.7660942 -14.4846318
 129.9080012  25.4124997  -9.0130012 130.8410012  25.6244997  -9.0470012
 129.6730012  25.5144997  -8.0910012 130.0038036  25.4552769  -8.8930024
 129.9370012  26.1494997  -6.2370012 129.0940012  26.4174997  -5.8710012
 130.3790012  26.9714997  -6.4480012 129.8814158  26.2973291  -6.2154509
 114.2180012  24.5974997  -2.7600012 115.1380012  24.4754997  -2.5240012
 113.7690012  23.8474997  -2.3710012 114.2831580  24.4793727  -2.6750994
 132.2200012  20.1294997  -0.8840012 132.5700012  19.4754997  -1.4890012
 132.3670012  20.9664997  -1.3230012 132.2878419  20.1531591  -1.0262882
 129.9090012  22.0944997 -14.4010012 130.0920012  21.6454997 -13.5750012
 129.3100012  21.5094997 -14.8640012 129.8530202  21.9539975 -14.3506725
 115.4390012  22.9094997  -9.8690012 115.8850012  22.1174997  -9.5670012
 115.9060012  23.6254997  -9.4380012 115.5630172  22.8980624  -9.7695180
 113.7430012  25.9084997  -8.8000012 114.2350012  25.6874997  -9.5910012
 114.1060012  26.7494997  -8.5190012 113.8593126  25.9918357  -8.8702469
 131.7400012  22.2384997  -2.5340012 130.8220012  22.5094997  -2.5700012
 131.8630012  21.7034997  -3.3190012 131.6311066  22.2032892  -2.6449513
 131.7760012  22.1614997 -17.8730012 132.1880012  21.4404997 -18.3480012
 132.4580012  22.8314997 -17.8140012 131.9245885  22.1532368 -17.9301085
 114.0570012  22.1664997 -14.7460012 113.1320012  22.3754997 -14.8750012
 114.5110012  22.6504997 -15.4350012 113.9917368  22.2605993 -14.8568774
 128.8280012  37.1504997 -12.8000012 129.4800012  36.8034997 -13.4080012
 129.3380012  37.6394997 -12.1540012 128.9862637  37.1690597 -12.7959764
 114.0210012  20.9044997  -6.4010012 113.3560012  20.6584997  -5.7580012
 113.5780012  21.5264997  -6.9790012 113.8700956  20.9548632  -6.3910648
 116.2130012  34.0794997  -2.2570012 115.3920012  34.2544997  -2.7170012
 115.9600012  34.0064997  -1.3360012 116.0666164  34.0935622  -2.1955077
 119.1670012  35.0544997  -5.9980012 118.7420012  35.8634997  -6.2810012
 120.0710012  35.1394997  -6.3000012 119.2310271  35.1768469  -6.0776224
 123.4780012  36.4534997  -3.0390012 123.6630012  36.1194997  -2.1610012
 124.3240012  36.7624997  -3.3610012 123.6177539  36.4496047  -2.9624395
 125.8230012  37.7394997  -3.7950012 126.5000012  37.1064997  -4.0350012
 126.1450012  38.1404997  -2.9880012 125.9591637  37.7071154  -3.7187207
 130.7400012  20.3284997  -4.7150012 129.9280012  20.6534997  -5.1030012
 130.9730012  19.5684997  -5.2480012 130.6603423  20.2702436  -4.8401747
 116.5690012  38.3104997  -5.9510012 115.8480012  38.7504997  -6.4020012
 116.2030012  38.0594997  -5.1020012 116.4209804  38.3367698  -5.8980160
 119.0360012  37.9104997  -6.9210012 118.1710012  37.9824997  -6.5170012
 118.9810012  38.4574997  -7.7050012 118.9102085  37.9942685  -6.9716638
 123.7460012  37.7984997  -7.7460012 123.2900012  38.3274997  -8.4000012
 123.9090012  38.4014997  -7.0200012 123.7055585  37.9524468  -7.7374938
 126.0740012  36.6764997  -6.8010012 125.1690012  36.8414997  -7.0660012
 126.5030012  37.5294997  -6.8660012 126.0080799  36.8144483  -6.8460818
 128.6780012  38.2464997  -6.5060012 128.4960012  39.1624997  -6.7160012
 128.8550012  37.8364997  -7.3520012 128.6770210  38.3164822  -6.6492115
 115.9830012  36.9334997  -9.0410012 115.9650012  36.5084997  -8.1830012
 116.7880012  36.6154997  -9.4490012 116.0893875  36.8323812  -8.9788345
 118.1250012  35.6434997 -10.3860012 117.9060012  34.7274997 -10.2160012
 118.9490012  35.7834997  -9.9200012 118.2064420  35.5370520 -10.2997226
 120.6620012  36.1134997  -9.5370012 120.8750012  35.2254997  -9.8240012
 120.7260012  36.0794997  -8.5830012 120.6998232  35.9873102  -9.4472603
 124.1700012  21.7774997 -10.3930012 123.4960012  21.1484997 -10.1370012
 124.7340012  21.2934997 -10.9960012 124.1539230  21.6258744 -10.4394660
 129.3130012  19.8854997 -10.2800012 129.9170012  20.4324997 -10.7820012
 128.4430012  20.2044997 -10.5200012 129.2781241  20.0035806 -10.3812346
 131.0400012  21.0234997 -11.9470012 131.6520012  20.5094997 -12.4730012
 131.4220012  21.9014997 -11.9230012 131.1754540  21.0717140 -12.0158170
 116.4970012  20.4114997 -12.5710012 115.7200012  20.1774997 -13.0780012
 117.0270012  19.6144997 -12.5620012 116.4622330  20.2716988 -12.6392258
 115.3330012  20.2094997 -16.7670012 115.7720012  20.8204997 -17.3590012
 114.7000012  20.7474997 -16.2930012 115.3074514  20.3659257 -16.7839070
 121.0760012  20.3384997 -12.7570012 121.9510012  20.7264997 -12.7870012
 120.9400012  20.1234997 -11.8350012 121.1773695  20.3625184 -12.6363560
 126.6330012  20.3684997 -11.1080012 126.7090012  20.4634997 -12.0580012
 126.3580012  19.4604997 -10.9790012 126.6062321  20.2587867 -11.2204921
 127.9860012  20.3944997 -15.4160012 127.2840012  21.0094997 -15.6250012
 127.5420012  19.5564997 -15.2850012 127.8296330  20.3655783 -15.4269672
 115.2340012  36.1574997 -15.8690012 114.5490012  36.1194997 -16.5370012
 115.2380012  37.0704997 -15.5810012 115.1408193  36.2757016 -15.9214716
 117.1940012  22.1254997 -18.3250012 117.6860012  21.4954997 -18.8520012
 117.8180012  22.4214997 -17.6610012 117.3455446  22.0793199 -18.3074020
 122.2200012  22.4184997 -15.8680012 122.3980012  21.7724997 -15.1850012
 122.1670012  23.2524997 -15.4000012 122.2371829  22.4427985 -15.7114060
 124.0990012  37.3674997 -17.4720012 124.9650012  37.7334997 -17.6500012
 123.8520012  36.9274997 -18.2860012 124.1842392  37.3581756 -17.6063711
 130.8080012  36.9304997 -14.7930012 130.6130012  36.1824997 -15.3580012
 130.7690012  37.6884997 -15.3760012 130.7760380  36.9306099 -14.9491616
 116.4550012  20.9254997  -3.0530012 116.0890012  20.1604997  -2.6100012
 117.3680012  20.9544997  -2.7660012 116.5282790  20.8247224  -2.9535930
 118.4280012  20.2764997  -1.5170012 119.3260012  20.0024997  -1.7020012
 118.0410012  19.5334997  -1.0530012 118.4986612  20.1385914  -1.4796357
 117.0520012  37.0774997 -18.8440012 116.7850012  37.3644997 -17.9710012
 117.8240012  36.5314997 -18.6920012 117.1197488  37.0430294 -18.7038950
 126.8490012  19.6084997  -1.3350012 126.9260012  19.1824997  -0.4810012
 127.7430012  19.6224997  -1.6780012 126.9803428  19.5520879  -1.2644690
 130.0250012  35.6814997  -2.6430012 129.2430012  35.4954997  -3.1620012
 129.9530012  36.6104997  -2.4250012 129.9081777  35.7816492  -2.6845952
 144.4310012  29.5674997 -12.6120012 144.5200012  30.5114997 -12.7440012
 143.7930012  29.2924997 -13.2700012 144.3569081  29.6594830 -12.7190386
 143.3640012  28.8224997  -9.1930012 143.3260012  28.1764997  -8.4880012
 143.0420012  28.3564997  -9.9640012 143.3152333  28.6709408  -9.2007022
 135.7330012  28.4374997  -7.6000012 135.7740012  27.8114997  -6.8770012
 136.4360012  29.0614997  -7.4180012 135.8336363  28.4361196  -7.4763956
 136.6560012  32.8874997  -9.0650012 136.2870012  32.0854997  -9.4350012
 137.5970012  32.7184997  -9.0190012 136.7327289  32.7550153  -9.1093684
 133.2660012  26.5474997 -13.6720012 132.8190012  27.3934997 -13.6910012
 132.7050012  25.9674997 -14.1880012 133.1289900  26.5849916 -13.7443199
 133.9770012  28.7094997 -11.5460012 134.1900012  27.9394997 -11.0190012
 134.7150012  28.7984997 -12.1500012 134.1058496  28.6161394 -11.5554700
 144.1820012  36.8664997 -10.6790012 144.8020012  36.1894997 -10.9530012
 143.9740012  36.6484997  -9.7710012 144.2386904  36.7443870 -10.5936635
 141.7540012  31.2554997  -8.7870012 142.0580012  30.5694997  -9.3820012
 142.4750012  31.3734997  -8.1690012 141.8930671  31.1776305  -8.7848184
 144.8950012  25.6494997  -8.4590012 145.0370012  24.7034997  -8.4390012
 144.7880012  25.8564997  -9.3880012 144.8999864  25.5479534  -8.5817661
 138.0490012  23.7504997 -11.1870012 138.0930012  24.6104997 -11.6050012
 137.5920012  23.1984997 -11.8210012 137.9932185  23.7935799 -11.3299701
 134.6700012  26.1474997 -10.4250012 135.3230012  25.5974997  -9.9930012
 134.6940012  25.8734997 -11.3420012 134.7626683  26.0351466 -10.4897877
 139.8260012  27.6974997 -11.2100012 140.4420012  27.1714997 -10.7000012
 139.2400012  27.0574997 -11.6130012 139.8310810  27.5389208 -11.1946827
 136.8600012  22.6684997  -7.1130012 136.6410012  23.1984997  -7.8790012
 136.1920012  22.8954997  -6.4660012 136.7397600  22.7716906  -7.1303621
 144.2290012  32.1684997 -13.5690012 143.9330012  31.8464997 -14.4200012
 143.9040012  33.0684997 -13.5280012 144.1446371  32.2460215 -13.6798199
 139.4290012  30.3444997  -6.8260012 138.6890012  30.9424997  -6.7220012
 140.1430012  30.8984997  -7.1410012 139.4242237  30.5012831  -6.8543535
 136.4530012  24.5604997  -9.1610012 137.0670012  25.1934997  -8.7870012
 136.9650012  24.0884997  -9.8170012 136.6062296  24.5832370  -9.1985748
 137.8360012  32.3084997  -6.0380012 137.8310012  33.1884997  -6.4160012
 136.9830012  32.2254997  -5.6130012 137.7199464  32.4176117  -6.0322093
 133.9570012  31.9794997 -15.2560012 133.6850012  32.2084997 -16.1450012
 134.0030012  32.8174997 -14.7960012 133.9260094  32.1241213 -15.3154303
 140.8860012  19.9744997  -9.6600012 140.7690012  19.0254997  -9.7150012
 140.0310012  20.3064997  -9.3870012 140.7543733  19.8895409  -9.6306103
 143.1530012  28.8114997 -15.1600012 142.4410012  29.3464997 -15.5120012
 143.8440012  28.8674997 -15.8200012 143.1490132  28.8922543 -15.2973711
 143.2060012  27.2694997 -18.1210012 143.9070012  27.2914997 -17.4700012
 143.5090012  26.6414997 -18.7770012 143.3427830  27.1876566 -18.1206289
 138.2040012  29.6514997 -12.3260012 137.8730012  29.2814997 -13.1440012
 138.7920012  28.9814997 -11.9790012 138.2381873  29.5101156 -12.3911898
 139.5700012  33.0794997  -9.6440012 139.4760012  32.5014997 -10.4010012
 140.3000012  32.7084997  -9.1480012 139.6557981  32.9502390  -9.6805835
 138.5700012  28.4204997  -8.6920012 139.1360012  28.5414997  -9.4550012
 138.8890012  29.0574997  -8.0530012 138.6905786  28.5231884  -8.7099960
 144.8790012  33.9234997  -7.9580012 144.6390012  34.5854997  -7.3100012
 144.6810012  33.0894997  -7.5330012 144.8193808  33.9013134  -7.8118476
 139.4500012  32.8194997  -3.9750012 139.1390012  33.6014997  -3.5200012
 138.8000012  32.6664997  -4.6610012 139.3195558  32.9059105  -4.0054129
 136.3700012  29.0174997  -4.7460012 136.4410012  29.6684997  -4.0480012
 135.4800012  29.1204997  -5.0810012 136.2593117  29.1205936  -4.6957300
 143.1560012  34.9204997 -13.0880012 143.6300012  35.2154997 -12.3100012
 142.5930012  35.6584997 -13.3210012 143.1447653  35.0606932 -13.0129864
 137.6900012  34.8914997  -3.2120012 137.6970012  34.7554997  -4.1590012
 136.7740012  34.7734997  -2.9600012 137.5671714  34.8569430  -3.3075334
 137.1940012  28.7214997 -14.7360012 136.9020012  29.4894997 -15.2270012
 136.5200012  28.0614997 -14.8990012 137.0629081  28.7374406 -14.8252660
 133.2870012  31.0844997  -5.9210012 132.7860012  31.0564997  -6.7360012
 133.2920012  30.1784997  -5.6120012 133.2191526  30.9582278  -5.9907128
 133.0370012  33.8644997  -9.0370012 133.9830012  33.7204997  -9.0560012
 132.9250012  34.6484997  -8.5000012 133.1512727  33.9508046  -8.9669928
 142.2140012  34.1044997  -4.4790012 142.3010012  34.9304997  -4.0040012
 141.3500012  33.7744997  -4.2300012 142.1091964  34.1729878  -4.3803451
 142.6280012  37.8764997 -14.6730012 142.5530012  37.7554997 -15.6190012
 142.6610012  38.8264997 -14.5540012 142.6221848  37.9882500 -14.7865166
 136.2810012  36.6654997 -12.8920012 136.4340012  36.3174997 -12.0130012
 135.4310012  36.3094997 -13.1470012 136.1868962  36.5696650 -12.8061660
 135.5360012  32.4074997  -4.8780012 135.7520012  32.0464997  -4.0190012
 134.6810012  32.0334997  -5.0880012 135.4499292  32.3074111  -4.7886614
 138.1550012  20.8774997  -8.8830012 137.2930012  20.7904997  -9.2900012
 138.1320012  21.7334997  -8.4550012 138.0340330  20.9812765  -8.8808137
 142.8180012  20.5994997  -5.5080012 143.2380012  20.1844997  -4.7550012
 141.8850012  20.4214997  -5.3910012 142.7493644  20.5185900  -5.3890461
 142.4790012  23.0924997 -18.2230012 142.2260012  23.1114997 -17.3000012
 142.2230012  22.2204997 -18.5240012 142.4097790  22.9772437 -18.1373737
 138.2460012  25.8434997  -7.7880012 137.6040012  25.8024997  -7.0790012
 138.2830012  26.7694997  -8.0250012 138.1631324  25.9631559  -7.7230176
 138.2430012  26.0644997 -12.8760012 137.3500012  25.7234997 -12.9340012
 138.6930012  25.6874997 -13.6310012 138.1817305  25.9668484 -12.9860823
 143.7780012  26.4804997 -14.0590012 143.3690012  27.2954997 -14.3500012
 144.4990012  26.3404997 -14.6730012 143.8194537  26.5732018 -14.1818658
 142.8800012  26.6554997  -2.5710012 142.3180012  25.9514997  -2.2500012
 143.7070012  26.5354997  -2.1030012 142.9147095  26.5427883  -2.4637670
 144.7830012  25.9264997 -11.2450012 144.5880012  26.5314997 -11.9600012
 144.9640012  25.0924997 -11.6790012 144.7807614  25.8966300 -11.4015595
 135.9960012  26.1634997  -5.9210012 135.9580012  26.5634997  -5.0520012
 135.5050012  25.3464997  -5.8300012 135.9244684  26.1078069  -5.7898941
 139.3620012  23.5374997 -19.1220012 138.9310012  23.0924997 -18.3920012
 138.6440012  23.9094997 -19.6340012 139.2059438  23.5268940 -19.0913201
 132.6040012  23.2794997 -12.0700012 133.2350012  23.2504997 -11.3510012
 133.0530012  22.8544997 -12.8000012 132.7510774  23.2180492 -12.0703447
 133.8780012  24.0254997 -16.6460012 134.3520012  24.6164997 -17.2310012
 133.1610012  24.5564997 -16.2990012 133.8459341  24.1780867 -16.6791164
 144.0470012  27.5644997  -6.5730012 144.3700012  26.9334997  -7.2160012
 143.6070012  27.0294997  -5.9130012 144.0316895  27.4058441  -6.5717150
 140.8240012  23.4914997 -11.7890012 139.9130012  23.5484997 -11.5010012
 141.3300012  23.4314997 -10.9790012 140.7675413  23.4911985 -11.6399378
 135.6530012  25.1204997 -12.9630012 134.7630012  25.2204997 -13.3030012
 135.9490012  24.2784997 -13.3090012 135.5712823  25.0203545 -13.0562787
 139.3060012  25.1204997 -15.3060012 140.2370012  25.2494997 -15.1280012
 139.0910012  25.7904997 -15.9560012 139.4044247  25.2286565 -15.3694253
 137.9800012  26.3154997 -17.7390012 137.4370012  25.9354997 -18.4310012
 138.8130012  26.5094997 -18.1680012 138.0184399  26.2898124 -17.8915474
 136.1150012  30.8724997  -2.6400012 136.8470012  31.1264997  -2.0790012
 135.3350012  31.0764997  -2.1250012 136.1098232  30.9349177  -2.4934240
 142.1440012  26.2794997  -9.9020012 142.7090012  25.7324997 -10.4490012
 141.9970012  25.7574997  -9.1140012 142.2012918  26.1342024  -9.8701546
 137.1460012  22.4154997 -13.4840012 136.8290012  21.5134997 -13.5190012
 137.9280012  22.4174997 -14.0370012 137.2082284  22.2921628 -13.5635217
 140.7710012  24.6674997  -7.4880012 139.9350012  25.1214997  -7.3780012
 141.2950012  24.9434997  -6.7360012 140.7274414  24.7669376  -7.3712864
 141.3150012  30.8804997 -15.8040012 140.5700012  30.3734997 -16.1260012
 141.1810012  30.9294997 -14.8570012 141.1948776  30.8176940 -15.7201353
 142.8340012  31.0644997  -4.5670012 142.4890012  30.6834997  -3.7600012
 142.6340012  31.9984997  -4.4950012 142.7598061  31.1385228  -4.4469039
 136.4400012  30.1754997 -10.0340012 137.1850012  30.1734997 -10.6350012
 136.5180012  29.3524997  -9.5520012 136.5525518  30.0639315 -10.0511071
 143.4410012  32.3394997 -16.7780012 143.1450012  33.1654997 -16.3970012
 142.7380012  31.7194997 -16.5820012 143.3054914  32.3688199 -16.6993557
 133.4480012  28.6364997  -4.7190012 133.6710012  28.2184997  -3.8870012
 132.8460012  28.0234997  -5.1420012 133.3971759  28.4964668  -4.6622978
 140.4640012  28.1534997  -2.5060012 140.1680012  27.9874997  -3.4010012
 141.3960012  27.9334997  -2.5170012 140.5494166  28.1010640  -2.6299464
 138.8150012  33.6934997 -12.6300012 139.3420012  34.4664997 -12.8300012
 137.9350012  33.9184997 -12.9310012 138.7681773  33.8298005 -12.6980990
 134.5700012  28.5554997 -18.0430012 135.1860012  29.1824997 -17.6630012
 133.7080012  28.8714997 -17.7710012 134.5377698  28.6839430 -17.9542817
 140.2420012  31.3564997 -13.0530012 140.0010012  32.2814997 -13.0120012
 139.5010012  30.8974997 -12.6570012 140.1088409  31.4211421 -12.9938623
 140.7570012  35.5054997  -6.7380012 141.1190012  36.3604997  -6.9720012
 141.2880012  35.2134997  -5.9980012 140.8784473  35.5831060  -6.6699145
 138.9250012  36.3784997 -13.5080012 137.9750012  36.4834997 -13.4570012
 139.2770012  37.1984997 -13.1630012 138.8424203  36.5038314 -13.4543350
 144.3010012  31.6044997  -7.0380012 143.8750012  31.3774997  -6.2110012
 144.8810012  30.8664997  -7.2200012 144.3211868  31.4735299  -6.9494170
 135.0820012  23.3894997  -5.1610012 134.1890012  23.7284997  -5.2290012
 134.9830012  22.5344997  -4.7430012 134.9464164  23.3202588  -5.1137765
 134.7330012  35.1944997  -6.7260012 134.9500012  34.2624997  -6.7570012
 134.9790012  35.4684997  -5.8430012 134.7959549  35.1040636  -6.6108237
 140.5950012  33.6454997 -19.5170012 140.8340012  32.8974997 -20.0640012
 140.3260012  33.2574997 -18.6840012 140.5913675  33.4906638 -19.4793135
 139.5320012  33.2154997 -17.0600012 139.6780012  32.6954997 -16.2700012
 139.5290012  34.1224997 -16.7540012 139.5515989  33.2668853 -16.9103912
 135.9850012  30.4684997 -16.5500012 135.2990012  30.8204997 -15.9830012
 136.5070012  31.2314997 -16.7970012 135.9616852  30.6198578 -16.5057882
 143.8160012  23.1304997  -6.2710012 144.5150012  23.2044997  -5.6210012
 143.4350012  22.2664997  -6.1170012 143.8601767  23.0237624  -6.1611678
 144.6010012  22.7824997 -15.1740012 144.8210012  23.2544997 -15.9770012
 145.1590012  23.1774997 -14.5040012 144.7064968  22.9004285 -15.1932669
 142.2690012  34.9134997 -16.3110012 141.4530012  35.4104997 -16.2590012
 142.7990012  35.3884997 -16.9510012 142.2289161  35.0457722 -16.3904044
 141.8010012  24.5104997 -14.3390012 142.6130012  25.0154997 -14.2930012
 141.5560012  24.3654997 -13.4250012 141.8790520  24.5600375 -14.2091483
 142.3360012  25.4964997  -5.1540012 142.4550012  26.0704997  -4.3970012
 142.9920012  24.8084997  -5.0400012 142.4409757  25.4821079  -5.0349175
 142.6840012  21.5914997 -13.4010012 142.3380012  22.2094997 -12.7560012
 143.3430012  22.0924997 -13.8820012 142.7257826  21.7435802 -13.3779029
 139.6080012  35.9574997 -16.3290012 139.7680012  36.7564997 -16.8300012
 139.4100012  36.2634997 -15.4440012 139.6031649  36.1084469 -16.2780185
 138.3420012  22.6544997 -16.7140012 138.2590012  23.5434997 -16.3670012
 139.2320012  22.3894997 -16.4820012 138.4509469  22.7401430 -16.6352374
 136.6010012  33.0824997 -17.6530012 137.1930012  33.7814997 -17.3770012
 137.0600012  32.6494997 -18.3730012 136.7441142  33.1197049 -17.7125170
 134.9170012  25.7464997 -18.5370012 134.8720012  26.6854997 -18.3590012
 134.0290012  25.5104997 -18.8070012 134.7908574  25.8431892 -18.5491088
 135.7250012  20.5284997  -9.8640012 135.4960012  20.5874997 -10.7920012
 135.2820012  19.7364997  -9.5580012 135.6338530  20.4295753  -9.9495214
 134.6550012  34.4684997 -13.7040012 133.8230012  34.9414997 -13.6760012
 135.2010012  34.9784997 -14.3020012 134.6149739  34.6021871 -13.7810284
 133.9430012  37.0814997  -2.3740012 134.4840012  36.8644997  -1.6140012
 133.4620012  36.2754997  -2.5630012 133.9519345  36.9429514  -2.2956924
 138.5410012  36.0004997  -0.7530012 139.3080012  35.5414997  -0.4120012
 138.5190012  35.7744997  -1.6830012 138.6431434  35.9070409  -0.8319957
 142.6330012  35.5084997 -19.3780012 141.9890012  34.8774997 -19.0570012
 143.3950012  34.9774997 -19.6100012 142.6478077  35.3502920 -19.3653989
 133.8500012  30.8914997  -1.4190012 133.9940012  29.9894997  -1.7060012
 133.0780012  31.1774997  -1.9070012 133.7653322  30.8068261  -1.5242119
 138.1920012  31.2354997 -19.2870012 138.2560012  30.4414997 -18.7560012
 138.8450012  31.1164997 -19.9770012 138.2890241  31.1107148 -19.3075683
 140.5060012  30.8614997  -1.9870012 140.1770012  31.1324997  -2.8440012
 140.6580012  29.9204997  -2.0740012 140.4814809  30.7713862  -2.1161756
 134.6830012  28.0914997  -1.9990012 135.0910012  27.2344997  -2.1200012
 134.4230012  28.1064997  -1.0780012 134.7037568  27.9760807  -1.8910412
 139.3410012  29.2074997 -16.9810012 138.8810012  28.7234997 -16.2950012
 139.5960012  28.5394997 -17.6170012 139.3124902  29.0508731 -16.9730666
 138.6300012  27.1004997  -4.6250012 138.0120012  27.7754997  -4.3450012
 138.9740012  27.4214997  -5.4580012 138.5919615  27.2362721  -4.6993419
 140.4120012  27.4504997 -18.7190012 140.2320012  27.2964997 -19.6460012
 141.3620012  27.5584997 -18.6740012 140.5157776  27.4440175 -18.8398157
 143.6500012  29.5724997  -1.3480012 144.6030012  29.6554997  -1.3750012
 143.4890012  28.8604997  -0.7280012 143.7586426  29.4876746  -1.2679421
 138.9690012  24.4554997  -3.5430012 139.1190012  23.7264997  -4.1450012
 138.9720012  25.2324997  -4.1020012 138.9899302  24.4607851  -3.7009308
 139.3820012  22.8254997  -6.0500012 139.9180012  23.2764997  -6.7020012
 138.5300012  22.7174997  -6.4730012 139.3402178  22.8726390  -6.1964244
 140.9640012  28.2644997  -5.8110012 141.7140012  28.1084997  -6.3840012
 140.6250012  29.1164997  -6.0860012 141.0208921  28.3582968  -5.9266439
 137.4480012  25.6534997  -1.6310012 136.6810012  25.1214997  -1.8410012
 138.1270012  25.3434997  -2.2310012 137.4347022  25.5387506  -1.7408352
 140.1880012  20.2814997  -5.6190012 140.0890012  21.2284997  -5.7240012
 139.4450012  19.9094997  -6.0940012 140.0740563  20.3605902  -5.6975440
 141.4520012  24.6034997  -2.0550012 141.2160012  24.3834997  -1.1530012
 140.6680012  24.3964997  -2.5650012 141.3138628  24.5454760  -2.0006068
 144.1670012  23.7304997  -2.9790012 143.2200012  23.7624997  -2.8470012
 144.4800012  23.1054997  -2.3260012 144.0795475  23.6503207  -2.8725545
 135.6280012  23.5744997  -1.9270012 135.8400012  22.8674997  -2.5370012
 135.5170012  23.1364997  -1.0830012 135.6419721  23.4187084  -1.8963157
 140.4090012  19.5754997  -2.9470012 141.1210012  18.9354997  -2.9610012
 140.3080012  19.8424997  -3.8610012 140.4927939  19.5239938  -3.0724350
 140.7630012  21.2584997  -0.8940012 140.6310012  20.7824997  -1.7140012
 140.1640012  22.0024997  -0.9490012 140.6639071  21.2939618  -1.0137114
 140.3090012  38.1414997 -17.7170012 141.2420012  38.2994997 -17.5740012
 140.0450012  38.8164997 -18.3420012 140.4009510  38.2543611 -17.7819259
 133.8780012  32.7774997 -18.2350012 134.7920012  32.8564997 -17.9610012
 133.8850012  32.0904997 -18.9010012 134.0041131  32.6953961 -18.2875607
 132.5270012  38.1704997 -13.1570012 131.8800012  37.7084997 -13.6900012
 132.8810012  37.4984997 -12.5750012 132.4863849  38.0164723 -13.1512041
 133.3970012  36.2514997 -11.3530012 133.0620012  35.3714997 -11.1810012
 133.6190012  36.5964997 -10.4880012 133.3811783  36.1777500 -11.2125792
 133.4770012  29.3264997  -8.9010012 133.6610012  29.2444997  -9.8370012
 134.3260012  29.2024997  -8.4770012 133.6170139  29.2985003  -8.9718545
 133.0740012  24.5974997  -2.7600012 133.9940012  24.4754997  -2.5240012
 132.6250012  23.8474997  -2.3710012 133.1391580  24.4793727  -2.6750994
 134.2950012  22.9094997  -9.8690012 134.7410012  22.1174997  -9.5670012
 134.7620012  23.6254997  -9.4380012 134.4190172  22.8980624  -9.7695180
 132.5990012  25.9084997  -8.8000012 133.0910012  25.6874997  -9.5910012
 132.9620012  26.7494997  -8.5190012 132.7153126  25.9918357  -8.8702469
 132.9130012  22.1664997 -14.7460012 131.9880012  22.3754997 -14.8750012
 133.3670012  22.6504997 -15.4350012 132.8477368  22.2605993 -14.8568774
 132.8770012  20.9044997  -6.4010012 132.2120012  20.6584997  -5.7580012
 132.4340012  21.5264997  -6.9790012 132.7260956  20.9548632  -6.3910648
 135.0690012  34.0794997  -2.2570012 134.2480012  34.2544997  -2.7170012
 134.8160012  34.0064997  -1.3360012 134.9226164  34.0935622  -2.1955077
 138.0230012  35.0544997  -5.9980012 137.5980012  35.8634997  -6.2810012
 138.9270012  35.1394997  -6.3000012 138.0870271  35.1768469  -6.0776224
 142.3340012  36.4534997  -3.0390012 142.5190012  36.1194997  -2.1610012
 143.1800012  36.7624997  -3.3610012 142.4737539  36.4496047  -2.9624395
 144.6790012  37.7394997  -3.7950012 145.3560012  37.1064997  -4.0350012
 145.0010012  38.1404997  -2.9880012 144.8151637  37.7071154  -3.7187207
 135.4250012  38.3104997  -5.9510012 134.7040012  38.7504997  -6.4020012
 135.0590012  38.0594997  -5.1020012 135.2769804  38.3367698  -5.8980160
 137.8920012  37.9104997  -6.9210012 137.0270012  37.9824997  -6.5170012
 137.8370012  38.4574997  -7.7050012 137.7662085  37.9942685  -6.9716638
 142.6020012  37.7984997  -7.7460012 142.1460012  38.3274997  -8.4000012
 142.7650012  38.4014997  -7.0200012 142.5615585  37.9524468  -7.7374938
 134.8390012  36.9334997  -9.0410012 134.8210012  36.5084997  -8.1830012
 135.6440012  36.6154997  -9.4490012 134.9453875  36.8323812  -8.9788345
 136.9810012  35.6434997 -10.3860012 136.7620012  34.7274997 -10.2160012
 137.8050012  35.7834997  -9.9200012 137.0624420  35.5370520 -10.2997226
 139.5180012  36.1134997  -9.5370012 139.7310012  35.2254997  -9.8240012
 139.5820012  36.0794997  -8.5830012 139.5558231  35.9873102  -9.4472603
 143.0260012  21.7774997 -10.3930012 142.3520012  21.1484997 -10.1370012
 143.5900012  21.2934997 -10.9960012 143.0099230  21.6258744 -10.4394660
 135.3530012  20.4114997 -12.5710012 134.5760012  20.1774997 -13.0780012
 135.8830012  19.6144997 -12.5620012 135.3182330  20.2716988 -12.6392258
 134.1890012  20.2094997 -16.7670012 134.6280012  20.8204997 -17.3590012
 133.5560012  20.7474997 -16.2930012 134.1634514  20.3659257 -16.7839070
 139.9320012  20.3384997 -12.7570012 140.8070012  20.7264997 -12.7870012
 139.7960012  20.1234997 -11.8350012 140.0333695  20.3625184 -12.6363560
 134.0900012  36.1574997 -15.8690012 133.4050012  36.1194997 -16.5370012
 134.0940012  37.0704997 -15.5810012 133.9968193  36.2757016 -15.9214716
 136.0500012  22.1254997 -18.3250012 136.5420012  21.4954997 -18.8520012
 136.6740012  22.4214997 -17.6610012 136.2015446  22.0793199 -18.3074020
 141.0760012  22.4184997 -15.8680012 141.2540012  21.7724997 -15.1850012
 141.0230012  23.2524997 -15.4000012 141.0931829  22.4427985 -15.7114060
 142.9550012  37.3674997 -17.4720012 143.8210012  37.7334997 -17.6500012
 142.7080012  36.9274997 -18.2860012 143.0402392  37.3581756 -17.6063711
 135.3110012  20.9254997  -3.0530012 134.9450012  20.1604997  -2.6100012
 136.2240012  20.9544997  -2.7660012 135.3842790  20.8247224  -2.9535930
 137.2840012  20.2764997  -1.5170012 138.1820012  20.0024997  -1.7020012
 136.8970012  19.5334997  -1.0530012 137.3546612  20.1385914  -1.4796357
 135.9080012  37.0774997 -18.8440012 135.6410012  37.3644997 -17.9710012
 136.6800012  36.5314997 -18.6920012 135.9757488  37.0430294 -18.7038950
  12.4390012  48.4234997 -12.6120012  12.5280012  49.3674997 -12.7440012
  11.8010012  48.1484997 -13.2700012  12.3649081  48.5154830 -12.7190386
  11.3720012  47.6784997  -9.1930012  11.3340012  47.0324997  -8.4880012
  11.0500012  47.2124997  -9.9640012  11.3232333  47.5269408  -9.2007022
   3.7410012  47.2934997  -7.6000012   3.7820012  46.6674997  -6.8770012
   4.4440012  47.9174997  -7.4180012   3.8416363  47.2921196  -7.4763956
  15.0780012  50.6174997 -10.8920012  14.6380012  49.8974997 -10.4410012
  15.0650012  51.3384997 -10.2620012  15.0160226  50.6163731 -10.7451506
   4.6640012  51.7434997  -9.0650012   4.2950012  50.9414997  -9.4350012
   5.6050012  51.5744997  -9.0190012   4.7407289  51.6110153  -9.1093684
   1.2740012  45.4034997 -13.6720012   0.8270012  46.2494997 -13.6910012
   0.7130012  44.8234997 -14.1880012   1.1369900  45.4409916 -13.7443199
   1.9850012  47.5654997 -11.5460012   2.1980012  46.7954997 -11.0190012
   2.7230012  47.6544997 -12.1500012   2.1138496  47.4721394 -11.5554700
  12.1900012  55.7224997 -10.6790012  12.8100012  55.0454997 -10.9530012
  11.9820012  55.5044997  -9.7710012  12.2466904  55.6003870 -10.5936635
   9.7620012  50.1114997  -8.7870012  10.0660012  49.4254997  -9.3820012
  10.4830012  50.2294997  -8.1690012   9.9010671  50.0336305  -8.7848184
  18.4250012  41.7124997  -7.9260012  18.4740012  42.3224997  -7.1900012
  18.8500012  42.1734997  -8.6490012  18.4891824  41.8583741  -7.9229795
  12.9030012  44.5054997  -8.4590012  13.0450012  43.5594997  -8.4390012
  12.7960012  44.7124997  -9.3880012  12.9079864  44.4039534  -8.5817661
   6.0570012  42.6064997 -11.1870012   6.1010012  43.4664997 -11.6050012
   5.6000012  42.0544997 -11.8210012   6.0012185  42.6495799 -11.3299701
  13.7800012  42.7374997 -12.7860012  14.4260012  42.4084997 -12.1610012
  14.2900012  43.2554997 -13.4090012  13.9374264  42.7624611 -12.7846138
   2.6780012  45.0034997 -10.4250012   3.3310012  44.4534997  -9.9930012
   2.7020012  44.7294997 -11.3420012   2.7706683  44.8911466 -10.4897877
   7.8340012  46.5534997 -11.2100012   8.4500012  46.0274997 -10.7000012
   7.2480012  45.9134997 -11.6130012   7.8390810  46.3949208 -11.1946827
  18.8160012  43.1904997  -5.6900012  18.1280012  43.8484997  -5.7860012
  18.8320012  42.9934997  -4.7540012  18.7238525  43.2540462  -5.5765192
   4.8680012  41.5244997  -7.1130012   4.6490012  42.0544997  -7.8790012
   4.2000012  41.7514997  -6.4660012   4.7477600  41.6276906  -7.1303621
  12.2370012  51.0244997 -13.5690012  11.9410012  50.7024997 -14.4200012
  11.9120012  51.9244997 -13.5280012  12.1526371  51.1020215 -13.6798199
   7.4370012  49.2004997  -6.8260012   6.6970012  49.7984997  -6.7220012
   8.1510012  49.7544997  -7.1410012   7.4322237  49.3572831  -6.8543535
  15.5440012  42.0284997 -10.8060012  15.3280012  41.2624997 -10.2730012
  16.1990012  42.5004997 -10.2930012  15.6030632  41.9875889 -10.6637139
   4.4610012  43.4164997  -9.1610012   5.0750012  44.0494997  -8.7870012
   4.9730012  42.9444997  -9.8170012   4.6142296  43.4392370  -9.1985748
   5.8440012  51.1644997  -6.0380012   5.8390012  52.0444997  -6.4160012
   4.9910012  51.0814997  -5.6130012   5.7279464  51.2736117  -6.0322093
   1.9650012  50.8354997 -15.2560012   1.6930012  51.0644997 -16.1450012
   2.0110012  51.6734997 -14.7960012   1.9340094  50.9801213 -15.3154303
  15.5900012  52.4574997  -8.5440012  14.6490012  52.5154997  -8.3820012
  15.8670012  53.3634997  -8.6810012  15.4984679  52.5879443  -8.5403185
  15.8910012  40.7434997  -7.1260012  15.1550012  41.3544997  -7.1640012
  16.5740012  41.1584997  -7.6530012  15.8826541  40.8831374  -7.2024168
   8.8940012  38.8304997  -9.6600012   8.7770012  37.8814997  -9.7150012
   8.0390012  39.1624997  -9.3870012   8.7623733  38.7455409  -9.6306103
  13.8420012  54.2384997 -11.9180012  14.2680012  53.5314997 -12.4030012
  14.1590012  55.0394997 -12.3350012  13.9431019  54.2500994 -12.0406870
  15.0020012  52.1394997 -13.4100012  14.7440012  51.4494997 -14.0210012
  15.0730012  51.6964997 -12.5640012  14.9762856  51.9852124 -13.3793115
  16.6880012  50.7054997  -4.9320012  16.8280012  50.1144997  -5.6720012
  16.8550012  51.5784997  -5.2890012  16.7296778  50.7426426  -5.0813035
  11.1610012  47.6674997 -15.1600012  10.4490012  48.2024997 -15.5120012
  11.8520012  47.7234997 -15.8200012  11.1570132  47.7482543 -15.2973711
  11.2140012  46.1254997 -18.1210012  11.9150012  46.1474997 -17.4700012
  11.5170012  45.4974997 -18.7770012  11.3507830  46.0436566 -18.1206289
  18.5300012  47.0454997  -6.8660012  17.8770012  47.7404997  -6.7770012
  18.9950012  47.2554997  -7.6760012  18.5035390  47.1689425  -6.9633117
  14.5660012  47.8774997 -14.2080012  13.8340012  48.1054997 -13.6350012
  15.0140012  47.1634997 -13.7530012  14.5263095  47.8122571 -14.0680881
  14.4640012  46.0514997  -5.1410012  14.5440012  46.8144997  -4.5690012
  13.8620012  46.3304997  -5.8310012  14.3935756  46.1937134  -5.1559411
   6.2120012  48.5074997 -12.3260012   5.8810012  48.1374997 -13.1440012
   6.8000012  47.8374997 -11.9790012   6.2461873  48.3661156 -12.3911898
   7.5780012  51.9354997  -9.6440012   7.4840012  51.3574997 -10.4010012
   8.3080012  51.5644997  -9.1480012   7.6637981  51.8062390  -9.6805835
   6.5780012  47.2764997  -8.6920012   7.1440012  47.3974997  -9.4550012
   6.8970012  47.9134997  -8.0530012   6.6985786  47.3791884  -8.7099960
  12.8870012  52.7794997  -7.9580012  12.6470012  53.4414997  -7.3100012
  12.6890012  51.9454997  -7.5330012  12.8273808  52.7573134  -7.8118476
   7.4580012  51.6754997  -3.9750012   7.1470012  52.4574997  -3.5200012
   6.8080012  51.5224997  -4.6610012   7.3275558  51.7619105  -4.0054129
  13.4370012  47.0394997 -16.5230012  14.0170012  47.1894997 -15.7760012
  13.8510012  47.5104997 -17.2460012  13.5722830  47.1236841 -16.5185866
   4.3780012  47.8734997  -4.7460012   4.4490012  48.5244997  -4.0480012
   3.4880012  47.9764997  -5.0810012   4.2673117  47.9765936  -4.6957300
  11.1640012  53.7764997 -13.0880012  11.6380012  54.0714997 -12.3100012
  10.6010012  54.5144997 -13.3210012  11.1527653  53.9166932 -13.0129864
   5.6980012  53.7474997  -3.2120012   5.7050012  53.6114997  -4.1590012
   4.7820012  53.6294997  -2.9600012   5.5751714  53.7129430  -3.3075334
  17.1360012  38.7894997 -16.7100012  16.2360012  38.9284997 -16.4150012
  17.3880012  39.6204997 -17.1120012  17.0468702  38.9209074 -16.7239795
   5.2020012  47.5774997 -14.7360012   4.9100012  48.3454997 -15.2270012
   4.5280012  46.9174997 -14.8990012   5.0709081  47.5934406 -14.8252660
  18.3250012  53.1554997 -18.3340012  18.3990012  54.0944997 -18.1630012
  19.2310012  52.8504997 -18.3900012  18.4575100  53.2426722 -18.3181881
   1.2950012  49.9404997  -5.9210012   0.7940012  49.9124997  -6.7360012
   1.3000012  49.0344997  -5.6120012   1.2271526  49.8142278  -5.9907128
   1.0450012  52.7204997  -9.0370012   1.9910012  52.5764997  -9.0560012
   0.9330012  53.5044997  -8.5000012   1.1592727  52.8068046  -8.9669928
  19.2430012  53.3864997  -3.3550012  19.1940012  52.4314997  -3.3920012
  18.4160012  53.6544997  -2.9540012  19.1244940  53.2918998  -3.3058625
  10.2220012  52.9604997  -4.4790012  10.3090012  53.7864997  -4.0040012
   9.3580012  52.6304997  -4.2300012  10.1171964  53.0289878  -4.3803451
  10.6360012  56.7324997 -14.6730012  10.5610012  56.6114997 -15.6190012
  10.6690012  57.6824997 -14.5540012  10.6301848  56.8442500 -14.7865166
   4.2890012  55.5214997 -12.8920012   4.4420012  55.1734997 -12.0130012
   3.4390012  55.1654997 -13.1470012   4.1948962  55.4256650 -12.8061660
  13.7380012  55.8864997 -17.6710012  14.1130012  55.1424997 -18.1410012
  13.7420012  55.6164997 -16.7520012  13.7898915  55.7481486 -17.6112176
  13.4070012  55.8124997 -14.9210012  12.4710012  55.9124997 -14.7430012
  13.6870012  55.1034997 -14.3430012  13.3168255  55.7302711 -14.8184609
  16.3950012  44.8794997  -2.8750012  15.9880012  45.3604997  -3.5960012
  16.4360012  43.9744997  -3.1830012  16.3448437  44.8229374  -3.0153317
   3.5440012  51.2634997  -4.8780012   3.7600012  50.9024997  -4.0190012
   2.6890012  50.8894997  -5.0880012   3.4579292  51.1634111  -4.7886614
   6.1630012  39.7334997  -8.8830012   5.3010012  39.6464997  -9.2900012
   6.1400012  40.5894997  -8.4550012   6.0420330  39.8372765  -8.8808137
  10.8260012  39.4554997  -5.5080012  11.2460012  39.0404997  -4.7550012
   9.8930012  39.2774997  -5.3910012  10.7573644  39.3745900  -5.3890461
  14.1520012  43.2114997  -4.6550012  13.6380012  43.0854997  -3.8570012
  13.9970012  44.1234997  -4.8990012  14.0606852  43.3176132  -4.5787842
  14.9150012  48.0724997 -18.8930012  14.9570012  47.8494997 -19.8230012
  15.7640012  48.4714997 -18.7030012  15.0355396  48.0959155 -18.9946373
  10.4870012  41.9484997 -18.2230012  10.2340012  41.9674997 -17.3000012
  10.2310012  41.0764997 -18.5240012  10.4177790  41.8332437 -18.1373737
   6.2540012  44.6994997  -7.7880012   5.6120012  44.6584997  -7.0790012
   6.2910012  45.6254997  -8.0250012   6.1711324  44.8191559  -7.7230176
   6.2510012  44.9204997 -12.8760012   5.3580012  44.5794997 -12.9340012
   6.7010012  44.5434997 -13.6310012   6.1897305  44.8228484 -12.9860823
  11.7860012  45.3364997 -14.0590012  11.3770012  46.1514997 -14.3500012
  12.5070012  45.1964997 -14.6730012  11.8274537  45.4292018 -14.1818658
  10.8880012  45.5114997  -2.5710012  10.3260012  44.8074997  -2.2500012
  11.7150012  45.3914997  -2.1030012  10.9227095  45.3987883  -2.4637670
  12.7910012  44.7824997 -11.2450012  12.5960012  45.3874997 -11.9600012
  12.9720012  43.9484997 -11.6790012  12.7887614  44.7526300 -11.4015595
   4.0040012  45.0194997  -5.9210012   3.9660012  45.4194997  -5.0520012
   3.5130012  44.2024997  -5.8300012   3.9324684  44.9638069  -5.7898941
   7.3700012  42.3934997 -19.1220012   6.9390012  41.9484997 -18.3920012
   6.6520012  42.7654997 -19.6340012   7.2139438  42.3828940 -19.0913201
   0.6120012  42.1354997 -12.0700012   1.2430012  42.1064997 -11.3510012
   1.0610012  41.7104997 -12.8000012   0.7590774  42.0740492 -12.0703447
   1.8860012  42.8814997 -16.6460012   2.3600012  43.4724997 -17.2310012
   1.1690012  43.4124997 -16.2990012   1.8539341  43.0340867 -16.6791164
  12.0550012  46.4204997  -6.5730012  12.3780012  45.7894997  -7.2160012
  11.6150012  45.8854997  -5.9130012  12.0396895  46.2618441  -6.5717150
   8.8320012  42.3474997 -11.7890012   7.9210012  42.4044997 -11.5010012
   9.3380012  42.2874997 -10.9790012   8.7755413  42.3471985 -11.6399378
   3.6610012  43.9764997 -12.9630012   2.7710012  44.0764997 -13.3030012
   3.9570012  43.1344997 -13.3090012   3.5792823  43.8763545 -13.0562787
   7.3140012  43.9764997 -15.3060012   8.2450012  44.1054997 -15.1280012
   7.0990012  44.6464997 -15.9560012   7.4124247  44.0846565 -15.3694253
  13.2370012  41.5824997  -8.5250012  12.5610012  41.7134997  -7.8610012
  12.7520012  41.4274997  -9.3350012  13.0787145  41.5794905  -8.5435483
   5.9880012  45.1714997 -17.7390012   5.4450012  44.7914997 -18.4310012
   6.8210012  45.3654997 -18.1680012   6.0264399  45.1458124 -17.8915474
  16.5250012  57.2544997  -2.2480012  16.7250012  57.6784997  -3.0830012
  17.1800012  57.5974997  -1.6410012  16.6410051  57.3589648  -2.2802164
   4.1230012  49.7284997  -2.6400012   4.8550012  49.9824997  -2.0790012
   3.3430012  49.9324997  -2.1250012   4.1178232  49.7909177  -2.4934240
  10.1520012  45.1354997  -9.9020012  10.7170012  44.5884997 -10.4490012
  10.0050012  44.6134997  -9.1140012  10.2092918  44.9902024  -9.8701546
   5.1540012  41.2714997 -13.4840012   4.8370012  40.3694997 -13.5190012
   5.9360012  41.2734997 -14.0370012   5.2162284  41.1481628 -13.5635217
   8.7790012  43.5234997  -7.4880012   7.9430012  43.9774997  -7.3780012
   9.3030012  43.7994997  -6.7360012   8.7354414  43.6229376  -7.3712864
   9.3230012  49.7364997 -15.8040012   8.5780012  49.2294997 -16.1260012
   9.1890012  49.7854997 -14.8570012   9.2028776  49.6736940 -15.7201353
  16.4730012  48.8694997  -7.0170012  17.1150012  49.3264997  -7.5610012
  15.6430012  48.9824997  -7.4800012  16.4485963  48.9472704  -7.1539823
  13.2210012  42.5504997 -17.6040012  12.2820012  42.6624997 -17.7560012
  13.5180012  43.4074997 -17.2980012  13.1327666  42.6816443 -17.5834232
  10.8420012  49.9204997  -4.5670012  10.4970012  49.5394997  -3.7600012
  10.6420012  50.8544997  -4.4950012  10.7678061  49.9945228  -4.4469039
  13.9390012  44.4174997 -15.9440012  14.8310012  44.2804997 -15.6250012
  13.9960012  45.2084997 -16.4800012  14.0686285  44.5056660 -15.9728310
   4.4480012  49.0314997 -10.0340012   5.1930012  49.0294997 -10.6350012
   4.5260012  48.2084997  -9.5520012   4.5605518  48.9199315 -10.0511071
  11.4490012  51.1954997 -16.7780012  11.1530012  52.0214997 -16.3970012
  10.7460012  50.5754997 -16.5820012  11.3134914  51.2248199 -16.6993557
   1.4560012  47.4924997  -4.7190012   1.6790012  47.0744997  -3.8870012
   0.8540012  46.8794997  -5.1420012   1.4051759  47.3524668  -4.6622978
   8.4720012  47.0094997  -2.5060012   8.1760012  46.8434997  -3.4010012
   9.4040012  46.7894997  -2.5170012   8.5574166  46.9570640  -2.6299464
  13.0930012  52.3824997  -4.6160012  12.1920012  52.5654997  -4.8840012
  13.1270012  52.6414997  -3.6950012  12.9743041  52.4425512  -4.5281803
  18.8240012  44.6274997 -16.2490012  18.2700012  44.2314997 -16.9210012
  18.9240012  45.5374997 -16.5270012  18.7617059  44.6963586 -16.3785599
  18.7870012  50.4274997  -3.4120012  17.9360012  50.6654997  -3.7790012
  19.3780012  50.4104997  -4.1650012  18.7502487  50.4578258  -3.5641107
  17.1190012  53.4134997 -15.7840012  16.7460012  52.5874997 -15.4750012
  17.3970012  53.2304997 -16.6810012  17.1055630  53.2757303 -15.8630374
  14.2800012  48.2214997  -8.7630012  13.3510012  47.9894997  -8.7900012
  14.7310012  47.4444997  -9.0930012  14.2139216  48.0847238  -8.8113083
   6.8230012  52.5494997 -12.6300012   7.3500012  53.3224997 -12.8300012
   5.9430012  52.7744997 -12.9310012   6.7761773  52.6858005 -12.6980990
   2.5780012  47.4114997 -18.0430012   3.1940012  48.0384997 -17.6630012
   1.7160012  47.7274997 -17.7710012   2.5457698  47.5399430 -17.9542817
   8.2500012  50.2124997 -13.0530012   8.0090012  51.1374997 -13.0120012
   7.5090012  49.7534997 -12.6570012   8.1168409  50.2771421 -12.9938623
   8.7650012  54.3614997  -6.7380012   9.1270012  55.2164997  -6.9720012
   9.2960012  54.0694997  -5.9980012   8.8864473  54.4391060  -6.6699145
   6.9330012  55.2344997 -13.5080012   5.9830012  55.3394997 -13.4570012
   7.2850012  56.0544997 -13.1630012   6.8504203  55.3598314 -13.4543350
  12.3090012  50.4604997  -7.0380012  11.8830012  50.2334997  -6.2110012
  12.8890012  49.7224997  -7.2200012  12.3291868  50.3295299  -6.9494170
  14.5120012  51.3894997 -17.9640012  14.8650012  51.0094997 -17.1590012
  13.5630012  51.2964997 -17.8770012  14.4320441  51.3249596 -17.8421441
  14.9670012  55.0124997  -4.5680012  14.3660012  54.4574997  -5.0640012
  15.2490012  55.6794997  -5.1940012  14.9228519  55.0266841  -4.7205048
  19.0150012  55.8694997 -17.7630012  19.7590012  56.4554997 -17.9030012
  18.3210012  56.4374997 -17.4290012  19.0230292  56.0265582 -17.7370039
   3.0900012  42.2454997  -5.1610012   2.1970012  42.5844997  -5.2290012
   2.9910012  41.3904997  -4.7430012   2.9544164  42.1762588  -5.1137765
  15.3780012  50.0624997 -15.7370012  15.1000012  49.3344997 -15.1810012
  16.3050012  50.1814997 -15.5320012  15.4653124  49.9788802 -15.6331155
   2.7410012  54.0504997  -6.7260012   2.9580012  53.1184997  -6.7570012
   2.9870012  54.3244997  -5.8430012   2.8039549  53.9600636  -6.6108237
   8.6030012  52.5014997 -19.5170012   8.8420012  51.7534997 -20.0640012
   8.3340012  52.1134997 -18.6840012   8.5993675  52.3466638 -19.4793135
   7.5400012  52.0714997 -17.0600012   7.6860012  51.5514997 -16.2700012
   7.5370012  52.9784997 -16.7540012   7.5595989  52.1228853 -16.9103912
   3.9930012  49.3244997 -16.5500012   3.3070012  49.6764997 -15.9830012
   4.5150012  50.0874997 -16.7970012   3.9696852  49.4758578 -16.5057882
  11.8240012  41.9864997  -6.2710012  12.5230012  42.0604997  -5.6210012
  11.4430012  41.1224997  -6.1170012  11.8681767  41.8797624  -6.1611678
  12.6090012  41.6384997 -15.1740012  12.8290012  42.1104997 -15.9770012
  13.1670012  42.0334997 -14.5040012  12.7144968  41.7564285 -15.1932669
  10.2770012  53.7694997 -16.3110012   9.4610012  54.2664997 -16.2590012
  10.8070012  54.2444997 -16.9510012  10.2369161  53.9017722 -16.3904044
   9.8090012  43.3664997 -14.3390012  10.6210012  43.8714997 -14.2930012
   9.5640012  43.2214997 -13.4250012   9.8870520  43.4160375 -14.2091483
  10.3440012  44.3524997  -5.1540012  10.4630012  44.9264997  -4.3970012
  11.0000012  43.6644997  -5.0400012  10.4489757  44.3381079  -5.0349175
  10.6920012  40.4474997 -13.4010012  10.3460012  41.0654997 -12.7560012
  11.3510012  40.9484997 -13.8820012  10.7337826  40.5995802 -13.3779029
   7.6160012  54.8134997 -16.3290012   7.7760012  55.6124997 -16.8300012
   7.4180012  55.1194997 -15.4440012   7.6111649  54.9644469 -16.2780185
   6.3500012  41.5104997 -16.7140012   6.2670012  42.3994997 -16.3670012
   7.2400012  41.2454997 -16.4820012   6.4589469  41.5961430 -16.6352374
  16.5490012  42.2594997  -4.3190012  15.6320012  42.5224997  -4.4070012
  16.8840012  42.2564997  -5.2160012  16.4689900  42.2950224  -4.4522081
  15.1510012  46.0104997 -10.2240012  14.3530012  45.5954997 -10.5520012
  15.5960012  45.3194997  -9.7330012  15.1019885  45.8603543 -10.2025111
   4.6090012  51.9384997 -17.6530012   5.2010012  52.6374997 -17.3770012
   5.0680012  51.5054997 -18.3730012   4.7521142  51.9757049 -17.7125170
   2.9250012  44.6024997 -18.5370012   2.8800012  45.5414997 -18.3590012
   2.0370012  44.3664997 -18.8070012   2.7988574  44.6991892 -18.5491088
  16.2370012  55.2664997  -8.6010012  16.0820012  55.9444997  -9.2580012
  17.1700012  55.3384997  -8.3980012  16.3418500  55.3690170  -8.6634881
   3.7330012  39.3844997  -9.8640012   3.5040012  39.4434997 -10.7920012
   3.2900012  38.5924997  -9.5580012   3.6418530  39.2855753  -9.9495214
   2.6630012  53.3244997 -13.7040012   1.8310012  53.7974997 -13.6760012
   3.2090012  53.8344997 -14.3020012   2.6229739  53.4581871 -13.7810284
   1.9510012  55.9374997  -2.3740012   2.4920012  55.7204997  -1.6140012
   1.4700012  55.1314997  -2.5630012   1.9599345  55.7989514  -2.2956924
   6.5490012  54.8564997  -0.7530012   7.3160012  54.3974997  -0.4120012
   6.5270012  54.6304997  -1.6830012   6.6511434  54.7630409  -0.8319957
  10.6410012  54.3644997 -19.3780012   9.9970012  53.7334997 -19.0570012
  11.4030012  53.8334997 -19.6100012  10.6558077  54.2062920 -19.3653989
  13.1260012  53.2364997  -2.0240012  12.7750012  52.3804997  -1.7810012
  13.8520012  53.3794997  -1.4170012  13.1760769  53.1385636  -1.9086381
  15.2450012  54.1814997 -19.1440012  15.5280012  53.3874997 -18.6920012
  15.9850012  54.4144997 -19.7050012  15.3837486  54.1042803 -19.1579302
   1.8580012  49.7474997  -1.4190012   2.0020012  48.8454997  -1.7060012
   1.0860012  50.0334997  -1.9070012   1.7733322  49.6628261  -1.5242119
   6.2000012  50.0914997 -19.2870012   6.2640012  49.2974997 -18.7560012
   6.8530012  49.9724997 -19.9770012   6.2970241  49.9667148 -19.3075683
   8.5140012  49.7174997  -1.9870012   8.1850012  49.9884997  -2.8440012
   8.6660012  48.7764997  -2.0740012   8.4894809  49.6273862  -2.1161756
  14.2480012  49.6334997  -4.6030012  14.9940012  50.2214997  -4.7230012
  13.4910012  50.2154997  -4.5400012  14.2477554  49.7927011  -4.6109093
   2.6910012  46.9474997  -1.9990012   3.0990012  46.0904997  -2.1200012
   2.4310012  46.9624997  -1.0780012   2.7117568  46.8320807  -1.8910412
   7.3490012  48.0634997 -16.9810012   6.8890012  47.5794997 -16.2950012
   7.6040012  47.3954997 -17.6170012   7.3204902  47.9068731 -16.9730666
   6.6380012  45.9564997  -4.6250012   6.0200012  46.6314997  -4.3450012
   6.9820012  46.2774997  -5.4580012   6.5999615  46.0922721  -4.6993419
   8.4200012  46.3064997 -18.7190012   8.2400012  46.1524997 -19.6460012
   9.3700012  46.4144997 -18.6740012   8.5237776  46.3000175 -18.8398157
  11.6580012  48.4284997  -1.3480012  12.6110012  48.5114997  -1.3750012
  11.4970012  47.7164997  -0.7280012  11.7666426  48.3436746  -1.2679421
  17.8100012  48.6614997 -19.2730012  17.5360012  48.2364997 -20.0860012
  17.8490012  49.5924997 -19.4900012  17.7777699  48.7292484 -19.4136390
   6.9770012  43.3114997  -3.5430012   7.1270012  42.5824997  -4.1450012
   6.9800012  44.0884997  -4.1020012   6.9979302  43.3167851  -3.7009308
   7.3900012  41.6814997  -6.0500012   7.9260012  42.1324997  -6.7020012
   6.5380012  41.5734997  -6.4730012   7.3482178  41.7286390  -6.1964244
   8.9720012  47.1204997  -5.8110012   9.7220012  46.9644997  -6.3840012
   8.6330012  47.9724997  -6.0860012   9.0288921  47.2142968  -5.9266439
  13.3870012  44.9354997  -0.7820012  13.5800012  44.0044997  -0.8940012
  14.2450012  45.3604997  -0.7920012  13.5293020  44.8656389  -0.7986639
  14.7040012  47.7244997  -2.7050012  14.4230012  48.4334997  -3.2820012
  15.6470012  47.6514997  -2.8560012  14.7929027  47.8117646  -2.8044449
   5.4560012  44.5094997  -1.6310012   4.6890012  43.9774997  -1.8410012
   6.1350012  44.1994997  -2.2310012   5.4427022  44.3947506  -1.7408352
   8.1960012  39.1374997  -5.6190012   8.0970012  40.0844997  -5.7240012
   7.4530012  38.7654997  -6.0940012   8.0820564  39.2165902  -5.6975440
   9.4600012  43.4594997  -2.0550012   9.2240012  43.2394997  -1.1530012
   8.6760012  43.2524997  -2.5650012   9.3218628  43.4014760  -2.0006068
  12.1750012  42.5864997  -2.9790012  11.2280012  42.6184997  -2.8470012
  12.4880012  41.9614997  -2.3260012  12.0875475  42.5063207  -2.8725545
  13.8090012  41.2204997  -0.9740012  13.7130012  40.2684997  -0.9800012
  13.4880012  41.4894997  -0.1140012  13.7524070  41.1264035  -0.8584559
   3.6360012  42.4304997  -1.9270012   3.8480012  41.7234997  -2.5370012
   3.5250012  41.9924997  -1.0830012   3.6499721  42.2747084  -1.8963157
   8.4170012  38.4314997  -2.9470012   9.1290012  37.7914997  -2.9610012
   8.3160012  38.6984997  -3.8610012   8.5007939  38.3799938  -3.0724350
   8.7710012  40.1144997  -0.8940012   8.6390012  39.6384997  -1.7140012
   8.1720012  40.8584997  -0.9490012   8.6719071  40.1499618  -1.0137114
   8.3170012  56.9974997 -17.7170012   9.2500012  57.1554997 -17.5740012
   8.0530012  57.6724997 -18.3420012   8.4089510  57.1103611 -17.7819259
   1.8860012  51.6334997 -18.2350012   2.8000012  51.7124997 -17.9610012
   1.8930012  50.9464997 -18.9010012   2.0121131  51.5513961 -18.2875607
   0.5350012  57.0264997 -13.1570012  -0.1119988  56.5644997 -13.6900012
   0.8890012  56.3544997 -12.5750012   0.4943849  56.8724723 -13.1512041
   1.4050012  55.1074997 -11.3530012   1.0700012  54.2274997 -11.1810012
   1.6270012  55.4524997 -10.4880012   1.3891783  55.0337500 -11.2125792
  18.9530012  55.9164997  -8.3720012  18.9320012  56.1014997  -7.4330012
  19.6440012  56.4854997  -8.7130012  19.0434618  56.0186606  -8.2896136
  18.5170012  55.4844997  -5.4500012  18.0290012  54.7484997  -5.8210012
  19.0660012  55.0904997  -4.7720012  18.5244872  55.3306249  -5.4090840
  16.9670012  51.2734997  -0.8120012  16.1010012  51.1684997  -0.4180012
  17.3440012  52.0324997  -0.3660012  16.8993308  51.3616900  -0.6977607
  18.2680012  49.5304997 -15.2980012  19.1180012  49.9514997 -15.1710012
  18.2740012  48.7904997 -14.6910012  18.3851372  49.4880803 -15.1985656
  18.6630012  47.5834997 -13.4740012  17.9360012  47.1044997 -13.0770012
  19.2440012  47.7894997 -12.7420012  18.6419375  47.5457090 -13.3205871
  18.4220012  50.3684997  -8.5270012  19.2550012  49.9904997  -8.8070012
  18.5340012  51.3114997  -8.6460012  18.5512647  50.4442218  -8.5814513
  16.9080012  53.2464997  -6.2200012  16.2610012  53.5714997  -5.5940012
  16.3910012  52.8064997  -6.8940012  16.7494029  53.2315004  -6.2254173
  18.9310012  47.4844997 -17.0830012  18.4090012  47.8414997 -17.8020012
  18.8980012  48.1594997 -16.4050012  18.8551634  47.6245413 -17.0896855
  17.2800012  44.7244997 -18.5320012  17.3760012  45.3914997 -19.2130012
  17.1400012  43.9084997 -19.0140012  17.2742135  44.7054500 -18.6901509
  16.4490012  46.1044997 -12.9110012  16.2990012  45.1594997 -12.9320012
  16.0960012  46.3854997 -12.0680012  16.3806625  46.0130441 -12.7997654
   1.4850012  48.1824997  -8.9010012   1.6690012  48.1004997  -9.8370012
   2.3340012  48.0584997  -8.4770012   1.6250139  48.1545003  -8.9718545
  17.3060012  48.0744997  -3.2730012  17.8890012  47.3404997  -3.0810012
  17.8700012  48.8464997  -3.2260012  17.4619769  48.0784227  -3.2403841
  18.8020012  45.9774997  -2.5880012  17.9390012  45.5984997  -2.7540012
  19.4070012  45.2384997  -2.6620012  18.7655979  45.8258023  -2.6207183
  16.5270012  42.1324997 -19.4150012  17.1380012  41.7614997 -18.7780012
  15.6910012  41.7114997 -19.2190012  16.4975032  42.0247554 -19.3012965
  16.1600012  43.6874997 -14.4490012  16.4400012  42.7804997 -14.3250012
  16.9190012  44.1214997 -14.8380012  16.3009277  43.6220942 -14.4846318
  16.7720012  44.2684997  -9.0130012  17.7050012  44.4804997  -9.0470012
  16.5370012  44.3704997  -8.0910012  16.8678036  44.3112769  -8.8930024
  16.8010012  45.0054997  -6.2370012  15.9580012  45.2734997  -5.8710012
  17.2430012  45.8274997  -6.4480012  16.7454158  45.1533291  -6.2154509
   1.0820012  43.4534997  -2.7600012   2.0020012  43.3314997  -2.5240012
   0.6330012  42.7034997  -2.3710012   1.1471580  43.3353727  -2.6750994
  19.0840012  38.9854997  -0.8840012  19.4340012  38.3314997  -1.4890012
  19.2310012  39.8224997  -1.3230012  19.1518419  39.0091591  -1.0262882
  16.7730012  40.9504997 -14.4010012  16.9560012  40.5014997 -13.5750012
  16.1740012  40.3654997 -14.8640012  16.7170202  40.8099975 -14.3506725
   2.3030012  41.7654997  -9.8690012   2.7490012  40.9734997  -9.5670012
   2.7700012  42.4814997  -9.4380012   2.4270172  41.7540624  -9.7695180
   0.6070012  44.7644997  -8.8000012   1.0990012  44.5434997  -9.5910012
   0.9700012  45.6054997  -8.5190012   0.7233126  44.8478357  -8.8702469
  18.6040012  41.0944997  -2.5340012  17.6860012  41.3654997  -2.5700012
  18.7270012  40.5594997  -3.3190012  18.4951066  41.0592892  -2.6449513
  18.6400012  41.0174997 -17.8730012  19.0520012  40.2964997 -18.3480012
  19.3220012  41.6874997 -17.8140012  18.7885885  41.0092368 -17.9301085
   0.9210012  41.0224997 -14.7460012  -0.0039988  41.2314997 -14.8750012
   1.3750012  41.5064997 -15.4350012   0.8557368  41.1165993 -14.8568774
  15.6920012  56.0064997 -12.8000012  16.3440012  55.6594997 -13.4080012
  16.2020012  56.4954997 -12.1540012  15.8502637  56.0250597 -12.7959764
   0.8850012  39.7604997  -6.4010012   0.2200012  39.5144997  -5.7580012
   0.4420012  40.3824997  -6.9790012   0.7340956  39.8108632  -6.3910648
   3.0770012  52.9354997  -2.2570012   2.2560012  53.1104997  -2.7170012
   2.8240012  52.8624997  -1.3360012   2.9306164  52.9495622  -2.1955077
   6.0310012  53.9104997  -5.9980012   5.6060012  54.7194997  -6.2810012
   6.9350012  53.9954997  -6.3000012   6.0950271  54.0328469  -6.0776224
  10.3420012  55.3094997  -3.0390012  10.5270012  54.9754997  -2.1610012
  11.1880012  55.6184997  -3.3610012  10.4817539  55.3056047  -2.9624395
  12.6870012  56.5954997  -3.7950012  13.3640012  55.9624997  -4.0350012
  13.0090012  56.9964997  -2.9880012  12.8231637  56.5631154  -3.7187207
  17.6040012  39.1844997  -4.7150012  16.7920012  39.5094997  -5.1030012
  17.8370012  38.4244997  -5.2480012  17.5243423  39.1262436  -4.8401747
   3.4330012  57.1664997  -5.9510012   2.7120012  57.6064997  -6.4020012
   3.0670012  56.9154997  -5.1020012   3.2849804  57.1927698  -5.8980160
   5.9000012  56.7664997  -6.9210012   5.0350012  56.8384997  -6.5170012
   5.8450012  57.3134997  -7.7050012   5.7742085  56.8502685  -6.9716638
  10.6100012  56.6544997  -7.7460012  10.1540012  57.1834997  -8.4000012
  10.7730012  57.2574997  -7.0200012  10.5695585  56.8084468  -7.7374938
  12.9380012  55.5324997  -6.8010012  12.0330012  55.6974997  -7.0660012
  13.3670012  56.3854997  -6.8660012  12.8720799  55.6704483  -6.8460818
  15.5420012  57.1024997  -6.5060012  15.3600012  58.0184997  -6.7160012
  15.7190012  56.6924997  -7.3520012  15.5410210  57.1724822  -6.6492115
   2.8470012  55.7894997  -9.0410012   2.8290012  55.3644997  -8.1830012
   3.6520012  55.4714997  -9.4490012   2.9533875  55.6883812  -8.9788345
   4.9890012  54.4994997 -10.3860012   4.7700012  53.5834997 -10.2160012
   5.8130012  54.6394997  -9.9200012   5.0704420  54.3930520 -10.2997226
   7.5260012  54.9694997  -9.5370012   7.7390012  54.0814997  -9.8240012
   7.5900012  54.9354997  -8.5830012   7.5638231  54.8433102  -9.4472603
  11.0340012  40.6334997 -10.3930012  10.3600012  40.0044997 -10.1370012
  11.5980012  40.1494997 -10.9960012  11.0179230  40.4818744 -10.4394660
  16.1770012  38.7414997 -10.2800012  16.7810012  39.2884997 -10.7820012
  15.3070012  39.0604997 -10.5200012  16.1421241  38.8595806 -10.3812346
  17.9040012  39.8794997 -11.9470012  18.5160012  39.3654997 -12.4730012
  18.2860012  40.7574997 -11.9230012  18.0394540  39.9277140 -12.0158170
   3.3610012  39.2674997 -12.5710012   2.5840012  39.0334997 -13.0780012
   3.8910012  38.4704997 -12.5620012   3.3262330  39.1276988 -12.6392258
   2.1970012  39.0654997 -16.7670012   2.6360012  39.6764997 -17.3590012
   1.5640012  39.6034997 -16.2930012   2.1714514  39.2219257 -16.7839070
   7.9400012  39.1944997 -12.7570012   8.8150012  39.5824997 -12.7870012
   7.8040012  38.9794997 -11.8350012   8.0413695  39.2185184 -12.6363560
  13.4970012  39.2244997 -11.1080012  13.5730012  39.3194997 -12.0580012
  13.2220012  38.3164997 -10.9790012  13.4702321  39.1147867 -11.2204921
  14.8500012  39.2504997 -15.4160012  14.1480012  39.8654997 -15.6250012
  14.4060012  38.4124997 -15.2850012  14.6936330  39.2215783 -15.4269672
   2.0980012  55.0134997 -15.8690012   1.4130012  54.9754997 -16.5370012
   2.1020012  55.9264997 -15.5810012   2.0048193  55.1317016 -15.9214716
   4.0580012  40.9814997 -18.3250012   4.5500012  40.3514997 -18.8520012
   4.6820012  41.2774997 -17.6610012   4.2095446  40.9353199 -18.3074020
   9.0840012  41.2744997 -15.8680012   9.2620012  40.6284997 -15.1850012
   9.0310012  42.1084997 -15.4000012   9.1011829  41.2987985 -15.7114060
  10.9630012  56.2234997 -17.4720012  11.8290012  56.5894997 -17.6500012
  10.7160012  55.7834997 -18.2860012  11.0482392  56.2141756 -17.6063711
  17.6720012  55.7864997 -14.7930012  17.4770012  55.0384997 -15.3580012
  17.6330012  56.5444997 -15.3760012  17.6400380  55.7866099 -14.9491616
   3.3190012  39.7814997  -3.0530012   2.9530012  39.0164997  -2.6100012
   4.2320012  39.8104997  -2.7660012   3.3922790  39.6807224  -2.9535930
   5.2920012  39.1324997  -1.5170012   6.1900012  38.8584997  -1.7020012
   4.9050012  38.3894997  -1.0530012   5.3626612  38.9945914  -1.4796357
   3.9160012  55.9334997 -18.8440012   3.6490012  56.2204997 -17.9710012
   4.6880012  55.3874997 -18.6920012   3.9837488  55.8990294 -18.7038950
  13.7130012  38.4644997  -1.3350012  13.7900012  38.0384997  -0.4810012
  14.6070012  38.4784997  -1.6780012  13.8443428  38.4080879  -1.2644690
  16.8890012  54.5374997  -2.6430012  16.1070012  54.3514997  -3.1620012
  16.8170012  55.4664997  -2.4250012  16.7721777  54.6376492  -2.6845952
  31.2950012  48.4234997 -12.6120012  31.3840012  49.3674997 -12.7440012
  30.6570012  48.1484997 -13.2700012  31.2209081  48.5154830 -12.7190386
  30.2280012  47.6784997  -9.1930012  30.1900012  47.0324997  -8.4880012
  29.9060012  47.2124997  -9.9640012  30.1792333  47.5269408  -9.2007022
  22.5970012  47.2934997  -7.6000012  22.6380012  46.6674997  -6.8770012
  23.3000012  47.9174997  -7.4180012  22.6976363  47.2921196  -7.4763956
  33.9340012  50.6174997 -10.8920012  33.4940012  49.8974997 -10.4410012
  33.9210012  51.3384997 -10.2620012  33.8720226  50.6163731 -10.7451506
  23.5200012  51.7434997  -9.0650012  23.1510012  50.9414997  -9.4350012
  24.4610012  51.5744997  -9.0190012  23.5967289  51.6110153  -9.1093684
  20.1300012  45.4034997 -13.6720012  19.6830012  46.2494997 -13.6910012
  19.5690012  44.8234997 -14.1880012  19.9929900  45.4409916 -13.7443199
  20.8410012  47.5654997 -11.5460012  21.0540012  46.7954997 -11.0190012
  21.5790012  47.6544997 -12.1500012  20.9698496  47.4721394 -11.5554700
  31.0460012  55.7224997 -10.6790012  31.6660012  55.0454997 -10.9530012
  30.8380012  55.5044997  -9.7710012  31.1026904  55.6003870 -10.5936635
  28.6180012  50.1114997  -8.7870012  28.9220012  49.4254997  -9.3820012
  29.3390012  50.2294997  -8.1690012  28.7570671  50.0336305  -8.7848184
  37.2810012  41.7124997  -7.9260012  37.3300012  42.3224997  -7.1900012
  37.7060012  42.1734997  -8.6490012  37.3451824  41.8583741  -7.9229795
  31.7590012  44.5054997  -8.4590012  31.9010012  43.5594997  -8.4390012
  31.6520012  44.7124997  -9.3880012  31.7639864  44.4039534  -8.5817661
  24.9130012  42.6064997 -11.1870012  24.9570012  43.4664997 -11.6050012
  24.4560012  42.0544997 -11.8210012  24.8572185  42.6495799 -11.3299701
  32.6360012  42.7374997 -12.7860012  33.2820012  42.4084997 -12.1610012
  33.1460012  43.2554997 -13.4090012  32.7934264  42.7624611 -12.7846138
  21.5340012  45.0034997 -10.4250012  22.1870012  44.4534997  -9.9930012
  21.5580012  44.7294997 -11.3420012  21.6266683  44.8911466 -10.4897877
  26.6900012  46.5534997 -11.2100012  27.3060012  46.0274997 -10.7000012
  26.1040012  45.9134997 -11.6130012  26.6950810  46.3949208 -11.1946827
  37.6720012  43.1904997  -5.6900012  36.9840012  43.8484997  -5.7860012
  37.6880012  42.9934997  -4.7540012  37.5798525  43.2540462  -5.5765192
  23.7240012  41.5244997  -7.1130012  23.5050012  42.0544997  -7.8790012
  23.0560012  41.7514997  -6.4660012  23.6037600  41.6276906  -7.1303621
  31.0930012  51.0244997 -13.5690012  30.7970012  50.7024997 -14.4200012
  30.7680012  51.9244997 -13.5280012  31.0086371  51.1020215 -13.6798199
  26.2930012  49.2004997  -6.8260012  25.5530012  49.7984997  -6.7220012
  27.0070012  49.7544997  -7.1410012  26.2882237  49.3572831  -6.8543535
  34.4000012  42.0284997 -10.8060012  34.1840012  41.2624997 -10.2730012
  35.0550012  42.5004997 -10.2930012  34.4590632  41.9875889 -10.6637139
  23.3170012  43.4164997  -9.1610012  23.9310012  44.0494997  -8.7870012
  23.8290012  42.9444997  -9.8170012  23.4702296  43.4392370  -9.1985748
  24.7000012  51.1644997  -6.0380012  24.6950012  52.0444997  -6.4160012
  23.8470012  51.0814997  -5.6130012  24.5839464  51.2736117  -6.0322093
  20.8210012  50.8354997 -15.2560012  20.5490012  51.0644997 -16.1450012
  20.8670012  51.6734997 -14.7960012  20.7900094  50.9801213 -15.3154303
  34.4460012  52.4574997  -8.5440012  33.5050012  52.5154997  -8.3820012
  34.7230012  53.3634997  -8.6810012  34.3544679  52.5879443  -8.5403185
  34.7470012  40.7434997  -7.1260012  34.0110012  41.3544997  -7.1640012
  35.4300012  41.1584997  -7.6530012  34.7386541  40.8831374  -7.2024168
  27.7500012  38.8304997  -9.6600012  27.6330012  37.8814997  -9.7150012
  26.8950012  39.1624997  -9.3870012  27.6183733  38.7455409  -9.6306103
  32.6980012  54.2384997 -11.9180012  33.1240012  53.5314997 -12.4030012
  33.0150012  55.0394997 -12.3350012  32.7991019  54.2500994 -12.0406870
  33.8580012  52.1394997 -13.4100012  33.6000012  51.4494997 -14.0210012
  33.9290012  51.6964997 -12.5640012  33.8322856  51.9852124 -13.3793115
  35.5440012  50.7054997  -4.9320012  35.6840012  50.1144997  -5.6720012
  35.7110012  51.5784997  -5.2890012  35.5856778  50.7426426  -5.0813035
  30.0170012  47.6674997 -15.1600012  29.3050012  48.2024997 -15.5120012
  30.7080012  47.7234997 -15.8200012  30.0130132  47.7482543 -15.2973711
  30.0700012  46.1254997 -18.1210012  30.7710012  46.1474997 -17.4700012
  30.3730012  45.4974997 -18.7770012  30.2067830  46.0436566 -18.1206289
  37.3860012  47.0454997  -6.8660012  36.7330012  47.7404997  -6.7770012
  37.8510012  47.2554997  -7.6760012  37.3595390  47.1689425  -6.9633117
  33.4220012  47.8774997 -14.2080012  32.6900012  48.1054997 -13.6350012
  33.8700012  47.1634997 -13.7530012  33.3823095  47.8122571 -14.0680881
  33.3200012  46.0514997  -5.1410012  33.4000012  46.8144997  -4.5690012
  32.7180012  46.3304997  -5.8310012  33.2495756  46.1937134  -5.1559411
  25.0680012  48.5074997 -12.3260012  24.7370012  48.1374997 -13.1440012
  25.6560012  47.8374997 -11.9790012  25.1021873  48.3661156 -12.3911898
  26.4340012  51.9354997  -9.6440012  26.3400012  51.3574997 -10.4010012
  27.1640012  51.5644997  -9.1480012  26.5197981  51.8062390  -9.6805835
  25.4340012  47.2764997  -8.6920012  26.0000012  47.3974997  -9.4550012
  25.7530012  47.9134997  -8.0530012  25.5545786  47.3791884  -8.7099960
  31.7430012  52.7794997  -7.9580012  31.5030012  53.4414997  -7.3100012
  31.5450012  51.9454997  -7.5330012  31.6833808  52.7573134  -7.8118476
  26.3140012  51.6754997  -3.9750012  26.0030012  52.4574997  -3.5200012
  25.6640012  51.5224997  -4.6610012  26.1835558  51.7619105  -4.0054129
  32.2930012  47.0394997 -16.5230012  32.8730012  47.1894997 -15.7760012
  32.7070012  47.5104997 -17.2460012  32.4282831  47.1236841 -16.5185866
  23.2340012  47.8734997  -4.7460012  23.3050012  48.5244997  -4.0480012
  22.3440012  47.9764997  -5.0810012  23.1233117  47.9765936  -4.6957300
  30.0200012  53.7764997 -13.0880012  30.4940012  54.0714997 -12.3100012
  29.4570012  54.5144997 -13.3210012  30.0087653  53.9166932 -13.0129864
  24.5540012  53.7474997  -3.2120012  24.5610012  53.6114997  -4.1590012
  23.6380012  53.6294997  -2.9600012  24.4311714  53.7129430  -3.3075334
  35.9920012  38.7894997 -16.7100012  35.0920012  38.9284997 -16.4150012
  36.2440012  39.6204997 -17.1120012  35.9028702  38.9209074 -16.7239795
  24.0580012  47.5774997 -14.7360012  23.7660012  48.3454997 -15.2270012
  23.3840012  46.9174997 -14.8990012  23.9269081  47.5934406 -14.8252660
  37.1810012  53.1554997 -18.3340012  37.2550012  54.0944997 -18.1630012
  38.0870012  52.8504997 -18.3900012  37.3135100  53.2426722 -18.3181881
  20.1510012  49.9404997  -5.9210012  19.6500012  49.9124997  -6.7360012
  20.1560012  49.0344997  -5.6120012  20.0831526  49.8142278  -5.9907128
  19.9010012  52.7204997  -9.0370012  20.8470012  52.5764997  -9.0560012
  19.7890012  53.5044997  -8.5000012  20.0152727  52.8068046  -8.9669928
  38.0990012  53.3864997  -3.3550012  38.0500012  52.4314997  -3.3920012
  37.2720012  53.6544997  -2.9540012  37.9804940  53.2918998  -3.3058625
  29.0780012  52.9604997  -4.4790012  29.1650012  53.7864997  -4.0040012
  28.2140012  52.6304997  -4.2300012  28.9731964  53.0289878  -4.3803451
  29.4920012  56.7324997 -14.6730012  29.4170012  56.6114997 -15.6190012
  29.5250012  57.6824997 -14.5540012  29.4861848  56.8442500 -14.7865166
  23.1450012  55.5214997 -12.8920012  23.2980012  55.1734997 -12.0130012
  22.2950012  55.1654997 -13.1470012  23.0508962  55.4256650 -12.8061660
  32.5940012  55.8864997 -17.6710012  32.9690012  55.1424997 -18.1410012
  32.5980012  55.6164997 -16.7520012  32.6458915  55.7481486 -17.6112176
  32.2630012  55.8124997 -14.9210012  31.3270012  55.9124997 -14.7430012
  32.5430012  55.1034997 -14.3430012  32.1728255  55.7302711 -14.8184609
  35.2510012  44.8794997  -2.8750012  34.8440012  45.3604997  -3.5960012
  35.2920012  43.9744997  -3.1830012  35.2008437  44.8229374  -3.0153317
  22.4000012  51.2634997  -4.8780012  22.6160012  50.9024997  -4.0190012
  21.5450012  50.8894997  -5.0880012  22.3139292  51.1634111  -4.7886614
  25.0190012  39.7334997  -8.8830012  24.1570012  39.6464997  -9.2900012
  24.9960012  40.5894997  -8.4550012  24.8980330  39.8372765  -8.8808137
  29.6820012  39.4554997  -5.5080012  30.1020012  39.0404997  -4.7550012
  28.7490012  39.2774997  -5.3910012  29.6133644  39.3745900  -5.3890461
  33.0080012  43.2114997  -4.6550012  32.4940012  43.0854997  -3.8570012
  32.8530012  44.1234997  -4.8990012  32.9166852  43.3176132  -4.5787842
  33.7710012  48.0724997 -18.8930012  33.8130012  47.8494997 -19.8230012
  34.6200012  48.4714997 -18.7030012  33.8915396  48.0959155 -18.9946373
  29.3430012  41.9484997 -18.2230012  29.0900012  41.9674997 -17.3000012
  29.0870012  41.0764997 -18.5240012  29.2737790  41.8332437 -18.1373737
  25.1100012  44.6994997  -7.7880012  24.4680012  44.6584997  -7.0790012
  25.1470012  45.6254997  -8.0250012  25.0271324  44.8191559  -7.7230176
  25.1070012  44.9204997 -12.8760012  24.2140012  44.5794997 -12.9340012
  25.5570012  44.5434997 -13.6310012  25.0457305  44.8228484 -12.9860823
  30.6420012  45.3364997 -14.0590012  30.2330012  46.1514997 -14.3500012
  31.3630012  45.1964997 -14.6730012  30.6834537  45.4292018 -14.1818658
  29.7440012  45.5114997  -2.5710012  29.1820012  44.8074997  -2.2500012
  30.5710012  45.3914997  -2.1030012  29.7787095  45.3987883  -2.4637670
  31.6470012  44.7824997 -11.2450012  31.4520012  45.3874997 -11.9600012
  31.8280012  43.9484997 -11.6790012  31.6447614  44.7526300 -11.4015595
  22.8600012  45.0194997  -5.9210012  22.8220012  45.4194997  -5.0520012
  22.3690012  44.2024997  -5.8300012  22.7884684  44.9638069  -5.7898941
  26.2260012  42.3934997 -19.1220012  25.7950012  41.9484997 -18.3920012
  25.5080012  42.7654997 -19.6340012  26.0699438  42.3828940 -19.0913201
  19.4680012  42.1354997 -12.0700012  20.0990012  42.1064997 -11.3510012
  19.9170012  41.7104997 -12.8000012  19.6150774  42.0740492 -12.0703447
  20.7420012  42.8814997 -16.6460012  21.2160012  43.4724997 -17.2310012
  20.0250012  43.4124997 -16.2990012  20.7099341  43.0340867 -16.6791164
  30.9110012  46.4204997  -6.5730012  31.2340012  45.7894997  -7.2160012
  30.4710012  45.8854997  -5.9130012  30.8956895  46.2618441  -6.5717150
  27.6880012  42.3474997 -11.7890012  26.7770012  42.4044997 -11.5010012
  28.1940012  42.2874997 -10.9790012  27.6315413  42.3471985 -11.6399378
  22.5170012  43.9764997 -12.9630012  21.6270012  44.0764997 -13.3030012
  22.8130012  43.1344997 -13.3090012  22.4352823  43.8763545 -13.0562787
  26.1700012  43.9764997 -15.3060012  27.1010012  44.1054997 -15.1280012
  25.9550012  44.6464997 -15.9560012  26.2684247  44.0846565 -15.3694253
  32.0930012  41.5824997  -8.5250012  31.4170012  41.7134997  -7.8610012
  31.6080012  41.4274997  -9.3350012  31.9347145  41.5794905  -8.5435483
  24.8440012  45.1714997 -17.7390012  24.3010012  44.7914997 -18.4310012
  25.6770012  45.3654997 -18.1680012  24.8824399  45.1458124 -17.8915474
  35.3810012  57.2544997  -2.2480012  35.5810012  57.6784997  -3.0830012
  36.0360012  57.5974997  -1.6410012  35.4970051  57.3589648  -2.2802164
  22.9790012  49.7284997  -2.6400012  23.7110012  49.9824997  -2.0790012
  22.1990012  49.9324997  -2.1250012  22.9738232  49.7909177  -2.4934240
  29.0080012  45.1354997  -9.9020012  29.5730012  44.5884997 -10.4490012
  28.8610012  44.6134997  -9.1140012  29.0652918  44.9902024  -9.8701546
  24.0100012  41.2714997 -13.4840012  23.6930012  40.3694997 -13.5190012
  24.7920012  41.2734997 -14.0370012  24.0722284  41.1481628 -13.5635217
  27.6350012  43.5234997  -7.4880012  26.7990012  43.9774997  -7.3780012
  28.1590012  43.7994997  -6.7360012  27.5914414  43.6229376  -7.3712864
  28.1790012  49.7364997 -15.8040012  27.4340012  49.2294997 -16.1260012
  28.0450012  49.7854997 -14.8570012  28.0588776  49.6736940 -15.7201353
  35.3290012  48.8694997  -7.0170012  35.9710012  49.3264997  -7.5610012
  34.4990012  48.9824997  -7.4800012  35.3045963  48.9472704  -7.1539823
  32.0770012  42.5504997 -17.6040012  31.1380012  42.6624997 -17.7560012
  32.3740012  43.4074997 -17.2980012  31.9887666  42.6816443 -17.5834232
  29.6980012  49.9204997  -4.5670012  29.3530012  49.5394997  -3.7600012
  29.4980012  50.8544997  -4.4950012  29.6238061  49.9945228  -4.4469039
  32.7950012  44.4174997 -15.9440012  33.6870012  44.2804997 -15.6250012
  32.8520012  45.2084997 -16.4800012  32.9246285  44.5056660 -15.9728310
  23.3040012  49.0314997 -10.0340012  24.0490012  49.0294997 -10.6350012
  23.3820012  48.2084997  -9.5520012  23.4165518  48.9199315 -10.0511071
  30.3050012  51.1954997 -16.7780012  30.0090012  52.0214997 -16.3970012
  29.6020012  50.5754997 -16.5820012  30.1694914  51.2248199 -16.6993557
  20.3120012  47.4924997  -4.7190012  20.5350012  47.0744997  -3.8870012
  19.7100012  46.8794997  -5.1420012  20.2611759  47.3524668  -4.6622978
  27.3280012  47.0094997  -2.5060012  27.0320012  46.8434997  -3.4010012
  28.2600012  46.7894997  -2.5170012  27.4134166  46.9570640  -2.6299464
  31.9490012  52.3824997  -4.6160012  31.0480012  52.5654997  -4.8840012
  31.9830012  52.6414997  -3.6950012  31.8303041  52.4425512  -4.5281803
  37.6800012  44.6274997 -16.2490012  37.1260012  44.2314997 -16.9210012
  37.7800012  45.5374997 -16.5270012  37.6177059  44.6963586 -16.3785599
  37.6430012  50.4274997  -3.4120012  36.7920012  50.6654997  -3.7790012
  38.2340012  50.4104997  -4.1650012  37.6062487  50.4578258  -3.5641107
  35.9750012  53.4134997 -15.7840012  35.6020012  52.5874997 -15.4750012
  36.2530012  53.2304997 -16.6810012  35.9615630  53.2757303 -15.8630374
  33.1360012  48.2214997  -8.7630012  32.2070012  47.9894997  -8.7900012
  33.5870012  47.4444997  -9.0930012  33.0699216  48.0847238  -8.8113083
  25.6790012  52.5494997 -12.6300012  26.2060012  53.3224997 -12.8300012
  24.7990012  52.7744997 -12.9310012  25.6321773  52.6858005 -12.6980990
  21.4340012  47.4114997 -18.0430012  22.0500012  48.0384997 -17.6630012
  20.5720012  47.7274997 -17.7710012  21.4017698  47.5399430 -17.9542817
  27.1060012  50.2124997 -13.0530012  26.8650012  51.1374997 -13.0120012
  26.3650012  49.7534997 -12.6570012  26.9728409  50.2771421 -12.9938623
  27.6210012  54.3614997  -6.7380012  27.9830012  55.2164997  -6.9720012
  28.1520012  54.0694997  -5.9980012  27.7424473  54.4391060  -6.6699145
  25.7890012  55.2344997 -13.5080012  24.8390012  55.3394997 -13.4570012
  26.1410012  56.0544997 -13.1630012  25.7064203  55.3598314 -13.4543350
  31.1650012  50.4604997  -7.0380012  30.7390012  50.2334997  -6.2110012
  31.7450012  49.7224997  -7.2200012  31.1851868  50.3295299  -6.9494170
  33.3680012  51.3894997 -17.9640012  33.7210012  51.0094997 -17.1590012
  32.4190012  51.2964997 -17.8770012  33.2880441  51.3249596 -17.8421441
  33.8230012  55.0124997  -4.5680012  33.2220012  54.4574997  -5.0640012
  34.1050012  55.6794997  -5.1940012  33.7788519  55.0266841  -4.7205048
  37.8710012  55.8694997 -17.7630012  38.6150012  56.4554997 -17.9030012
  37.1770012  56.4374997 -17.4290012  37.8790292  56.0265582 -17.7370039
  21.9460012  42.2454997  -5.1610012  21.0530012  42.5844997  -5.2290012
  21.8470012  41.3904997  -4.7430012  21.8104164  42.1762588  -5.1137765
  34.2340012  50.0624997 -15.7370012  33.9560012  49.3344997 -15.1810012
  35.1610012  50.1814997 -15.5320012  34.3213124  49.9788802 -15.6331155
  21.5970012  54.0504997  -6.7260012  21.8140012  53.1184997  -6.7570012
  21.8430012  54.3244997  -5.8430012  21.6599549  53.9600636  -6.6108237
  27.4590012  52.5014997 -19.5170012  27.6980012  51.7534997 -20.0640012
  27.1900012  52.1134997 -18.6840012  27.4553675  52.3466638 -19.4793135
  26.3960012  52.0714997 -17.0600012  26.5420012  51.5514997 -16.2700012
  26.3930012  52.9784997 -16.7540012  26.4155989  52.1228853 -16.9103912
  22.8490012  49.3244997 -16.5500012  22.1630012  49.6764997 -15.9830012
  23.3710012  50.0874997 -16.7970012  22.8256852  49.4758578 -16.5057882
  30.6800012  41.9864997  -6.2710012  31.3790012  42.0604997  -5.6210012
  30.2990012  41.1224997  -6.1170012  30.7241767  41.8797624  -6.1611678
  31.4650012  41.6384997 -15.1740012  31.6850012  42.1104997 -15.9770012
  32.0230012  42.0334997 -14.5040012  31.5704968  41.7564285 -15.1932669
  29.1330012  53.7694997 -16.3110012  28.3170012  54.2664997 -16.2590012
  29.6630012  54.2444997 -16.9510012  29.0929161  53.9017722 -16.3904044
  28.6650012  43.3664997 -14.3390012  29.4770012  43.8714997 -14.2930012
  28.4200012  43.2214997 -13.4250012  28.7430520  43.4160375 -14.2091483
  29.2000012  44.3524997  -5.1540012  29.3190012  44.9264997  -4.3970012
  29.8560012  43.6644997  -5.0400012  29.3049757  44.3381079  -5.0349175
  29.5480012  40.4474997 -13.4010012  29.2020012  41.0654997 -12.7560012
  30.2070012  40.9484997 -13.8820012  29.5897826  40.5995802 -13.3779029
  26.4720012  54.8134997 -16.3290012  26.6320012  55.6124997 -16.8300012
  26.2740012  55.1194997 -15.4440012  26.4671649  54.9644469 -16.2780185
  25.2060012  41.5104997 -16.7140012  25.1230012  42.3994997 -16.3670012
  26.0960012  41.2454997 -16.4820012  25.3149469  41.5961430 -16.6352374
  35.4050012  42.2594997  -4.3190012  34.4880012  42.5224997  -4.4070012
  35.7400012  42.2564997  -5.2160012  35.3249900  42.2950224  -4.4522081
  34.0070012  46.0104997 -10.2240012  33.2090012  45.5954997 -10.5520012
  34.4520012  45.3194997  -9.7330012  33.9579885  45.8603543 -10.2025111
  23.4650012  51.9384997 -17.6530012  24.0570012  52.6374997 -17.3770012
  23.9240012  51.5054997 -18.3730012  23.6081142  51.9757049 -17.7125170
  21.7810012  44.6024997 -18.5370012  21.7360012  45.5414997 -18.3590012
  20.8930012  44.3664997 -18.8070012  21.6548574  44.6991892 -18.5491088
  35.0930012  55.2664997  -8.6010012  34.9380012  55.9444997  -9.2580012
  36.0260012  55.3384997  -8.3980012  35.1978500  55.3690170  -8.6634881
  22.5890012  39.3844997  -9.8640012  22.3600012  39.4434997 -10.7920012
  22.1460012  38.5924997  -9.5580012  22.4978530  39.2855753  -9.9495214
  21.5190012  53.3244997 -13.7040012  20.6870012  53.7974997 -13.6760012
  22.0650012  53.8344997 -14.3020012  21.4789739  53.4581871 -13.7810284
  20.8070012  55.9374997  -2.3740012  21.3480012  55.7204997  -1.6140012
  20.3260012  55.1314997  -2.5630012  20.8159345  55.7989514  -2.2956924
  25.4050012  54.8564997  -0.7530012  26.1720012  54.3974997  -0.4120012
  25.3830012  54.6304997  -1.6830012  25.5071434  54.7630409  -0.8319957
  29.4970012  54.3644997 -19.3780012  28.8530012  53.7334997 -19.0570012
  30.2590012  53.8334997 -19.6100012  29.5118077  54.2062920 -19.3653989
  31.9820012  53.2364997  -2.0240012  31.6310012  52.3804997  -1.7810012
  32.7080012  53.3794997  -1.4170012  32.0320769  53.1385636  -1.9086381
  34.1010012  54.1814997 -19.1440012  34.3840012  53.3874997 -18.6920012
  34.8410012  54.4144997 -19.7050012  34.2397486  54.1042803 -19.1579302
  20.7140012  49.7474997  -1.4190012  20.8580012  48.8454997  -1.7060012
  19.9420012  50.0334997  -1.9070012  20.6293322  49.6628261  -1.5242119
  25.0560012  50.0914997 -19.2870012  25.1200012  49.2974997 -18.7560012
  25.7090012  49.9724997 -19.9770012  25.1530241  49.9667148 -19.3075683
  27.3700012  49.7174997  -1.9870012  27.0410012  49.9884997  -2.8440012
  27.5220012  48.7764997  -2.0740012  27.3454809  49.6273862  -2.1161756
  33.1040012  49.6334997  -4.6030012  33.8500012  50.2214997  -4.7230012
  32.3470012  50.2154997  -4.5400012  33.1037554  49.7927011  -4.6109093
  21.5470012  46.9474997  -1.9990012  21.9550012  46.0904997  -2.1200012
  21.2870012  46.9624997  -1.0780012  21.5677568  46.8320807  -1.8910412
  26.2050012  48.0634997 -16.9810012  25.7450012  47.5794997 -16.2950012
  26.4600012  47.3954997 -17.6170012  26.1764902  47.9068731 -16.9730666
  25.4940012  45.9564997  -4.6250012  24.8760012  46.6314997  -4.3450012
  25.8380012  46.2774997  -5.4580012  25.4559615  46.0922721  -4.6993419
  27.2760012  46.3064997 -18.7190012  27.0960012  46.1524997 -19.6460012
  28.2260012  46.4144997 -18.6740012  27.3797776  46.3000175 -18.8398157
  30.5140012  48.4284997  -1.3480012  31.4670012  48.5114997  -1.3750012
  30.3530012  47.7164997  -0.7280012  30.6226426  48.3436746  -1.2679422
  36.6660012  48.6614997 -19.2730012  36.3920012  48.2364997 -20.0860012
  36.7050012  49.5924997 -19.4900012  36.6337699  48.7292484 -19.4136390
  25.8330012  43.3114997  -3.5430012  25.9830012  42.5824997  -4.1450012
  25.8360012  44.0884997  -4.1020012  25.8539302  43.3167851  -3.7009308
  26.2460012  41.6814997  -6.0500012  26.7820012  42.1324997  -6.7020012
  25.3940012  41.5734997  -6.4730012  26.2042178  41.7286390  -6.1964244
  27.8280012  47.1204997  -5.8110012  28.5780012  46.9644997  -6.3840012
  27.4890012  47.9724997  -6.0860012  27.8848921  47.2142968  -5.9266439
  32.2430012  44.9354997  -0.7820012  32.4360012  44.0044997  -0.8940012
  33.1010012  45.3604997  -0.7920012  32.3853020  44.8656389  -0.7986639
  33.5600012  47.7244997  -2.7050012  33.2790012  48.4334997  -3.2820012
  34.5030012  47.6514997  -2.8560012  33.6489027  47.8117646  -2.8044449
  24.3120012  44.5094997  -1.6310012  23.5450012  43.9774997  -1.8410012
  24.9910012  44.1994997  -2.2310012  24.2987022  44.3947506  -1.7408352
  27.0520012  39.1374997  -5.6190012  26.9530012  40.0844997  -5.7240012
  26.3090012  38.7654997  -6.0940012  26.9380564  39.2165902  -5.6975440
  28.3160012  43.4594997  -2.0550012  28.0800012  43.2394997  -1.1530012
  27.5320012  43.2524997  -2.5650012  28.1778628  43.4014760  -2.0006068
  31.0310012  42.5864997  -2.9790012  30.0840012  42.6184997  -2.8470012
  31.3440012  41.9614997  -2.3260012  30.9435475  42.5063207  -2.8725545
  32.6650012  41.2204997  -0.9740012  32.5690012  40.2684997  -0.9800012
  32.3440012  41.4894997  -0.1140012  32.6084070  41.1264035  -0.8584559
  22.4920012  42.4304997  -1.9270012  22.7040012  41.7234997  -2.5370012
  22.3810012  41.9924997  -1.0830012  22.5059721  42.2747084  -1.8963157
  27.2730012  38.4314997  -2.9470012  27.9850012  37.7914997  -2.9610012
  27.1720012  38.6984997  -3.8610012  27.3567939  38.3799938  -3.0724350
  27.6270012  40.1144997  -0.8940012  27.4950012  39.6384997  -1.7140012
  27.0280012  40.8584997  -0.9490012  27.5279071  40.1499618  -1.0137114
  27.1730012  56.9974997 -17.7170012  28.1060012  57.1554997 -17.5740012
  26.9090012  57.6724997 -18.3420012  27.2649510  57.1103611 -17.7819259
  20.7420012  51.6334997 -18.2350012  21.6560012  51.7124997 -17.9610012
  20.7490012  50.9464997 -18.9010012  20.8681131  51.5513961 -18.2875607
  19.3910012  57.0264997 -13.1570012  18.7440012  56.5644997 -13.6900012
  19.7450012  56.3544997 -12.5750012  19.3503849  56.8724723 -13.1512041
  20.2610012  55.1074997 -11.3530012  19.9260012  54.2274997 -11.1810012
  20.4830012  55.4524997 -10.4880012  20.2451783  55.0337500 -11.2125792
  37.8090012  55.9164997  -8.3720012  37.7880012  56.1014997  -7.4330012
  38.5000012  56.4854997  -8.7130012  37.8994618  56.0186606  -8.2896136
  37.3730012  55.4844997  -5.4500012  36.8850012  54.7484997  -5.8210012
  37.9220012  55.0904997  -4.7720012  37.3804872  55.3306249  -5.4090840
  35.8230012  51.2734997  -0.8120012  34.9570012  51.1684997  -0.4180012
  36.2000012  52.0324997  -0.3660012  35.7553308  51.3616900  -0.6977607
  37.1240012  49.5304997 -15.2980012  37.9740012  49.9514997 -15.1710012
  37.1300012  48.7904997 -14.6910012  37.2411372  49.4880803 -15.1985656
  37.5190012  47.5834997 -13.4740012  36.7920012  47.1044997 -13.0770012
  38.1000012  47.7894997 -12.7420012  37.4979375  47.5457090 -13.3205871
  37.2780012  50.3684997  -8.5270012  38.1110012  49.9904997  -8.8070012
  37.3900012  51.3114997  -8.6460012  37.4072647  50.4442218  -8.5814513
  35.7640012  53.2464997  -6.2200012  35.1170012  53.5714997  -5.5940012
  35.2470012  52.8064997  -6.8940012  35.6054029  53.2315004  -6.2254173
  37.7870012  47.4844997 -17.0830012  37.2650012  47.8414997 -17.8020012
  37.7540012  48.1594997 -16.4050012  37.7111634  47.6245413 -17.0896855
  36.1360012  44.7244997 -18.5320012  36.2320012  45.3914997 -19.2130012
  35.9960012  43.9084997 -19.0140012  36.1302135  44.7054500 -18.6901509
  35.3050012  46.1044997 -12.9110012  35.1550012  45.1594997 -12.9320012
  34.9520012  46.3854997 -12.0680012  35.2366625  46.0130441 -12.7997654
  20.3410012  48.1824997  -8.9010012  20.5250012  48.1004997  -9.8370012
  21.1900012  48.0584997  -8.4770012  20.4810139  48.1545003  -8.9718545
  36.1620012  48.0744997  -3.2730012  36.7450012  47.3404997  -3.0810012
  36.7260012  48.8464997  -3.2260012  36.3179769  48.0784227  -3.2403841
  37.6580012  45.9774997  -2.5880012  36.7950012  45.5984997  -2.7540012
  38.2630012  45.2384997  -2.6620012  37.6215979  45.8258023  -2.6207183
  35.3830012  42.1324997 -19.4150012  35.9940012  41.7614997 -18.7780012
  34.5470012  41.7114997 -19.2190012  35.3535032  42.0247554 -19.3012965
  35.0160012  43.6874997 -14.4490012  35.2960012  42.7804997 -14.3250012
  35.7750012  44.1214997 -14.8380012  35.1569277  43.6220942 -14.4846318
  35.6280012  44.2684997  -9.0130012  36.5610012  44.4804997  -9.0470012
  35.3930012  44.3704997  -8.0910012  35.7238036  44.3112769  -8.8930024
  35.6570012  45.0054997  -6.2370012  34.8140012  45.2734997  -5.8710012
  36.0990012  45.8274997  -6.4480012  35.6014158  45.1533291  -6.2154509
  19.9380012  43.4534997  -2.7600012  20.8580012  43.3314997  -2.5240012
  19.4890012  42.7034997  -2.3710012  20.0031580  43.3353727  -2.6750994
  37.9400012  38.9854997  -0.8840012  38.2900012  38.3314997  -1.4890012
  38.0870012  39.8224997  -1.3230012  38.0078419  39.0091591  -1.0262882
  35.6290012  40.9504997 -14.4010012  35.8120012  40.5014997 -13.5750012
  35.0300012  40.3654997 -14.8640012  35.5730202  40.8099975 -14.3506725
  21.1590012  41.7654997  -9.8690012  21.6050012  40.9734997  -9.5670012
  21.6260012  42.4814997  -9.4380012  21.2830172  41.7540624  -9.7695180
  19.4630012  44.7644997  -8.8000012  19.9550012  44.5434997  -9.5910012
  19.8260012  45.6054997  -8.5190012  19.5793126  44.8478357  -8.8702469
  37.4600012  41.0944997  -2.5340012  36.5420012  41.3654997  -2.5700012
  37.5830012  40.5594997  -3.3190012  37.3511066  41.0592892  -2.6449513
  37.4960012  41.0174997 -17.8730012  37.9080012  40.2964997 -18.3480012
  38.1780012  41.6874997 -17.8140012  37.6445885  41.0092368 -17.9301085
  19.7770012  41.0224997 -14.7460012  18.8520012  41.2314997 -14.8750012
  20.2310012  41.5064997 -15.4350012  19.7117368  41.1165993 -14.8568774
  34.5480012  56.0064997 -12.8000012  35.2000012  55.6594997 -13.4080012
  35.0580012  56.4954997 -12.1540012  34.7062637  56.0250597 -12.7959764
  19.7410012  39.7604997  -6.4010012  19.0760012  39.5144997  -5.7580012
  19.2980012  40.3824997  -6.9790012  19.5900956  39.8108632  -6.3910648
  21.9330012  52.9354997  -2.2570012  21.1120012  53.1104997  -2.7170012
  21.6800012  52.8624997  -1.3360012  21.7866164  52.9495622  -2.1955077
  24.8870012  53.9104997  -5.9980012  24.4620012  54.7194997  -6.2810012
  25.7910012  53.9954997  -6.3000012  24.9510271  54.0328469  -6.0776224
  29.1980012  55.3094997  -3.0390012  29.3830012  54.9754997  -2.1610012
  30.0440012  55.6184997  -3.3610012  29.3377539  55.3056047  -2.9624395
  31.5430012  56.5954997  -3.7950012  32.2200012  55.9624997  -4.0350012
  31.8650012  56.9964997  -2.9880012  31.6791637  56.5631154  -3.7187207
  36.4600012  39.1844997  -4.7150012  35.6480012  39.5094997  -5.1030012
  36.6930012  38.4244997  -5.2480012  36.3803423  39.1262436  -4.8401747
  22.2890012  57.1664997  -5.9510012  21.5680012  57.6064997  -6.4020012
  21.9230012  56.9154997  -5.1020012  22.1409804  57.1927698  -5.8980160
  24.7560012  56.7664997  -6.9210012  23.8910012  56.8384997  -6.5170012
  24.7010012  57.3134997  -7.7050012  24.6302085  56.8502685  -6.9716638
  29.4660012  56.6544997  -7.7460012  29.0100012  57.1834997  -8.4000012
  29.6290012  57.2574997  -7.0200012  29.4255585  56.8084468  -7.7374938
  31.7940012  55.5324997  -6.8010012  30.8890012  55.6974997  -7.0660012
  32.2230012  56.3854997  -6.8660012  31.7280799  55.6704483  -6.8460818
  34.3980012  57.1024997  -6.5060012  34.2160012  58.0184997  -6.7160012
  34.5750012  56.6924997  -7.3520012  34.3970210  57.1724822  -6.6492115
  21.7030012  55.7894997  -9.0410012  21.6850012  55.3644997  -8.1830012
  22.5080012  55.4714997  -9.4490012  21.8093875  55.6883812  -8.9788345
  23.8450012  54.4994997 -10.3860012  23.6260012  53.5834997 -10.2160012
  24.6690012  54.6394997  -9.9200012  23.9264420  54.3930520 -10.2997226
  26.3820012  54.9694997  -9.5370012  26.5950012  54.0814997  -9.8240012
  26.4460012  54.9354997  -8.5830012  26.4198232  54.8433102  -9.4472603
  29.8900012  40.6334997 -10.3930012  29.2160012  40.0044997 -10.1370012
  30.4540012  40.1494997 -10.9960012  29.8739230  40.4818744 -10.4394660
  35.0330012  38.7414997 -10.2800012  35.6370012  39.2884997 -10.7820012
  34.1630012  39.0604997 -10.5200012  34.9981241  38.8595806 -10.3812346
  36.7600012  39.8794997 -11.9470012  37.3720012  39.3654997 -12.4730012
  37.1420012  40.7574997 -11.9230012  36.8954540  39.9277140 -12.0158170
  22.2170012  39.2674997 -12.5710012  21.4400012  39.0334997 -13.0780012
  22.7470012  38.4704997 -12.5620012  22.1822330  39.1276988 -12.6392258
  21.0530012  39.0654997 -16.7670012  21.4920012  39.6764997 -17.3590012
  20.4200012  39.6034997 -16.2930012  21.0274514  39.2219257 -16.7839070
  26.7960012  39.1944997 -12.7570012  27.6710012  39.5824997 -12.7870012
  26.6600012  38.9794997 -11.8350012  26.8973695  39.2185184 -12.6363560
  32.3530012  39.2244997 -11.1080012  32.4290012  39.3194997 -12.0580012
  32.0780012  38.3164997 -10.9790012  32.3262321  39.1147867 -11.2204921
  33.7060012  39.2504997 -15.4160012  33.0040012  39.8654997 -15.6250012
  33.2620012  38.4124997 -15.2850012  33.5496330  39.2215783 -15.4269672
  20.9540012  55.0134997 -15.8690012  20.2690012  54.9754997 -16.5370012
  20.9580012  55.9264997 -15.5810012  20.8608193  55.1317016 -15.9214716
  22.9140012  40.9814997 -18.3250012  23.4060012  40.3514997 -18.8520012
  23.5380012  41.2774997 -17.6610012  23.0655446  40.9353199 -18.3074020
  27.9400012  41.2744997 -15.8680012  28.1180012  40.6284997 -15.1850012
  27.8870012  42.1084997 -15.4000012  27.9571829  41.2987985 -15.7114060
  29.8190012  56.2234997 -17.4720012  30.6850012  56.5894997 -17.6500012
  29.5720012  55.7834997 -18.2860012  29.9042392  56.2141756 -17.6063711
  36.5280012  55.7864997 -14.7930012  36.3330012  55.0384997 -15.3580012
  36.4890012  56.5444997 -15.3760012  36.4960380  55.7866099 -14.9491616
  22.1750012  39.7814997  -3.0530012  21.8090012  39.0164997  -2.6100012
  23.0880012  39.8104997  -2.7660012  22.2482790  39.6807224  -2.9535930
  24.1480012  39.1324997  -1.5170012  25.0460012  38.8584997  -1.7020012
  23.7610012  38.3894997  -1.0530012  24.2186612  38.9945914  -1.4796357
  22.7720012  55.9334997 -18.8440012  22.5050012  56.2204997 -17.9710012
  23.5440012  55.3874997 -18.6920012  22.8397488  55.8990294 -18.7038950
  32.5690012  38.4644997  -1.3350012  32.6460012  38.0384997  -0.4810012
  33.4630012  38.4784997  -1.6780012  32.7003428  38.4080879  -1.2644690
  35.7450012  54.5374997  -2.6430012  34.9630012  54.3514997  -3.1620012
  35.6730012  55.4664997  -2.4250012  35.6281777  54.6376492  -2.6845952
  50.1510012  48.4234997 -12.6120012  50.2400012  49.3674997 -12.7440012
  49.5130012  48.1484997 -13.2700012  50.0769081  48.5154830 -12.7190386
  49.0840012  47.6784997  -9.1930012  49.0460012  47.0324997  -8.4880012
  48.7620012  47.2124997  -9.9640012  49.0352333  47.5269408  -9.2007022
  41.4530012  47.2934997  -7.6000012  41.4940012  46.6674997  -6.8770012
  42.1560012  47.9174997  -7.4180012  41.5536363  47.2921196  -7.4763956
  52.7900012  50.6174997 -10.8920012  52.3500012  49.8974997 -10.4410012
  52.7770012  51.3384997 -10.2620012  52.7280226  50.6163731 -10.7451506
  42.3760012  51.7434997  -9.0650012  42.0070012  50.9414997  -9.4350012
  43.3170012  51.5744997  -9.0190012  42.4527289  51.6110153  -9.1093684
  38.9860012  45.4034997 -13.6720012  38.5390012  46.2494997 -13.6910012
  38.4250012  44.8234997 -14.1880012  38.8489900  45.4409916 -13.7443199
  39.6970012  47.5654997 -11.5460012  39.9100012  46.7954997 -11.0190012
  40.4350012  47.6544997 -12.1500012  39.8258496  47.4721394 -11.5554700
  49.9020012  55.7224997 -10.6790012  50.5220012  55.0454997 -10.9530012
  49.6940012  55.5044997  -9.7710012  49.9586904  55.6003870 -10.5936635
  47.4740012  50.1114997  -8.7870012  47.7780012  49.4254997  -9.3820012
  48.1950012  50.2294997  -8.1690012  47.6130671  50.0336305  -8.7848184
  56.1370012  41.7124997  -7.9260012  56.1860012  42.3224997  -7.1900012
  56.5620012  42.1734997  -8.6490012  56.2011824  41.8583741  -7.9229795
  50.6150012  44.5054997  -8.4590012  50.7570012  43.5594997  -8.4390012
  50.5080012  44.7124997  -9.3880012  50.6199864  44.4039534  -8.5817661
  43.7690012  42.6064997 -11.1870012  43.8130012  43.4664997 -11.6050012
  43.3120012  42.0544997 -11.8210012  43.7132185  42.6495799 -11.3299701
  51.4920012  42.7374997 -12.7860012  52.1380012  42.4084997 -12.1610012
  52.0020012  43.2554997 -13.4090012  51.6494264  42.7624611 -12.7846138
  40.3900012  45.0034997 -10.4250012  41.0430012  44.4534997  -9.9930012
  40.4140012  44.7294997 -11.3420012  40.4826683  44.8911466 -10.4897877
  45.5460012  46.5534997 -11.2100012  46.1620012  46.0274997 -10.7000012
  44.9600012  45.9134997 -11.6130012  45.5510810  46.3949208 -11.1946827
  56.5280012  43.1904997  -5.6900012  55.8400012  43.8484997  -5.7860012
  56.5440012  42.9934997  -4.7540012  56.4358525  43.2540462  -5.5765192
  42.5800012  41.5244997  -7.1130012  42.3610012  42.0544997  -7.8790012
  41.9120012  41.7514997  -6.4660012  42.4597600  41.6276906  -7.1303621
  49.9490012  51.0244997 -13.5690012  49.6530012  50.7024997 -14.4200012
  49.6240012  51.9244997 -13.5280012  49.8646371  51.1020215 -13.6798199
  45.1490012  49.2004997  -6.8260012  44.4090012  49.7984997  -6.7220012
  45.8630012  49.7544997  -7.1410012  45.1442237  49.3572831  -6.8543535
  53.2560012  42.0284997 -10.8060012  53.0400012  41.2624997 -10.2730012
  53.9110012  42.5004997 -10.2930012  53.3150632  41.9875889 -10.6637139
  42.1730012  43.4164997  -9.1610012  42.7870012  44.0494997  -8.7870012
  42.6850012  42.9444997  -9.8170012  42.3262296  43.4392370  -9.1985748
  43.5560012  51.1644997  -6.0380012  43.5510012  52.0444997  -6.4160012
  42.7030012  51.0814997  -5.6130012  43.4399464  51.2736117  -6.0322093
  39.6770012  50.8354997 -15.2560012  39.4050012  51.0644997 -16.1450012
  39.7230012  51.6734997 -14.7960012  39.6460094  50.9801213 -15.3154303
  53.3020012  52.4574997  -8.5440012  52.3610012  52.5154997  -8.3820012
  53.5790012  53.3634997  -8.6810012  53.2104679  52.5879443  -8.5403185
  53.6030012  40.7434997  -7.1260012  52.8670012  41.3544997  -7.1640012
  54.2860012  41.1584997  -7.6530012  53.5946541  40.8831374  -7.2024168
  46.6060012  38.8304997  -9.6600012  46.4890012  37.8814997  -9.7150012
  45.7510012  39.1624997  -9.3870012  46.4743733  38.7455409  -9.6306103
  51.5540012  54.2384997 -11.9180012  51.9800012  53.5314997 -12.4030012
  51.8710012  55.0394997 -12.3350012  51.6551019  54.2500994 -12.0406870
  52.7140012  52.1394997 -13.4100012  52.4560012  51.4494997 -14.0210012
  52.7850012  51.6964997 -12.5640012  52.6882856  51.9852124 -13.3793115
  54.4000012  50.7054997  -4.9320012  54.5400012  50.1144997  -5.6720012
  54.5670012  51.5784997  -5.2890012  54.4416778  50.7426426  -5.0813035
  48.8730012  47.6674997 -15.1600012  48.1610012  48.2024997 -15.5120012
  49.5640012  47.7234997 -15.8200012  48.8690132  47.7482543 -15.2973711
  48.9260012  46.1254997 -18.1210012  49.6270012  46.1474997 -17.4700012
  49.2290012  45.4974997 -18.7770012  49.0627830  46.0436566 -18.1206289
  56.2420012  47.0454997  -6.8660012  55.5890012  47.7404997  -6.7770012
  56.7070012  47.2554997  -7.6760012  56.2155390  47.1689425  -6.9633117
  52.2780012  47.8774997 -14.2080012  51.5460012  48.1054997 -13.6350012
  52.7260012  47.1634997 -13.7530012  52.2383095  47.8122571 -14.0680881
  52.1760012  46.0514997  -5.1410012  52.2560012  46.8144997  -4.5690012
  51.5740012  46.3304997  -5.8310012  52.1055756  46.1937134  -5.1559411
  43.9240012  48.5074997 -12.3260012  43.5930012  48.1374997 -13.1440012
  44.5120012  47.8374997 -11.9790012  43.9581873  48.3661156 -12.3911898
  45.2900012  51.9354997  -9.6440012  45.1960012  51.3574997 -10.4010012
  46.0200012  51.5644997  -9.1480012  45.3757981  51.8062390  -9.6805835
  44.2900012  47.2764997  -8.6920012  44.8560012  47.3974997  -9.4550012
  44.6090012  47.9134997  -8.0530012  44.4105786  47.3791884  -8.7099960
  50.5990012  52.7794997  -7.9580012  50.3590012  53.4414997  -7.3100012
  50.4010012  51.9454997  -7.5330012  50.5393808  52.7573134  -7.8118476
  45.1700012  51.6754997  -3.9750012  44.8590012  52.4574997  -3.5200012
  44.5200012  51.5224997  -4.6610012  45.0395558  51.7619105  -4.0054129
  51.1490012  47.0394997 -16.5230012  51.7290012  47.1894997 -15.7760012
  51.5630012  47.5104997 -17.2460012  51.2842830  47.1236841 -16.5185866
  42.0900012  47.8734997  -4.7460012  42.1610012  48.5244997  -4.0480012
  41.2000012  47.9764997  -5.0810012  41.9793117  47.9765936  -4.6957300
  48.8760012  53.7764997 -13.0880012  49.3500012  54.0714997 -12.3100012
  48.3130012  54.5144997 -13.3210012  48.8647653  53.9166932 -13.0129864
  43.4100012  53.7474997  -3.2120012  43.4170012  53.6114997  -4.1590012
  42.4940012  53.6294997  -2.9600012  43.2871714  53.7129430  -3.3075334
  54.8480012  38.7894997 -16.7100012  53.9480012  38.9284997 -16.4150012
  55.1000012  39.6204997 -17.1120012  54.7588702  38.9209074 -16.7239795
  42.9140012  47.5774997 -14.7360012  42.6220012  48.3454997 -15.2270012
  42.2400012  46.9174997 -14.8990012  42.7829081  47.5934406 -14.8252660
  56.0370012  53.1554997 -18.3340012  56.1110012  54.0944997 -18.1630012
  56.9430012  52.8504997 -18.3900012  56.1695100  53.2426722 -18.3181881
  39.0070012  49.9404997  -5.9210012  38.5060012  49.9124997  -6.7360012
  39.0120012  49.0344997  -5.6120012  38.9391526  49.8142278  -5.9907128
  38.7570012  52.7204997  -9.0370012  39.7030012  52.5764997  -9.0560012
  38.6450012  53.5044997  -8.5000012  38.8712727  52.8068046  -8.9669928
  56.9550012  53.3864997  -3.3550012  56.9060012  52.4314997  -3.3920012
  56.1280012  53.6544997  -2.9540012  56.8364940  53.2918998  -3.3058625
  47.9340012  52.9604997  -4.4790012  48.0210012  53.7864997  -4.0040012
  47.0700012  52.6304997  -4.2300012  47.8291964  53.0289878  -4.3803451
  48.3480012  56.7324997 -14.6730012  48.2730012  56.6114997 -15.6190012
  48.3810012  57.6824997 -14.5540012  48.3421848  56.8442500 -14.7865166
  42.0010012  55.5214997 -12.8920012  42.1540012  55.1734997 -12.0130012
  41.1510012  55.1654997 -13.1470012  41.9068962  55.4256650 -12.8061660
  51.4500012  55.8864997 -17.6710012  51.8250012  55.1424997 -18.1410012
  51.4540012  55.6164997 -16.7520012  51.5018915  55.7481486 -17.6112176
  51.1190012  55.8124997 -14.9210012  50.1830012  55.9124997 -14.7430012
  51.3990012  55.1034997 -14.3430012  51.0288255  55.7302711 -14.8184609
  54.1070012  44.8794997  -2.8750012  53.7000012  45.3604997  -3.5960012
  54.1480012  43.9744997  -3.1830012  54.0568437  44.8229374  -3.0153317
  41.2560012  51.2634997  -4.8780012  41.4720012  50.9024997  -4.0190012
  40.4010012  50.8894997  -5.0880012  41.1699292  51.1634111  -4.7886614
  43.8750012  39.7334997  -8.8830012  43.0130012  39.6464997  -9.2900012
  43.8520012  40.5894997  -8.4550012  43.7540330  39.8372765  -8.8808137
  48.5380012  39.4554997  -5.5080012  48.9580012  39.0404997  -4.7550012
  47.6050012  39.2774997  -5.3910012  48.4693644  39.3745900  -5.3890461
  51.8640012  43.2114997  -4.6550012  51.3500012  43.0854997  -3.8570012
  51.7090012  44.1234997  -4.8990012  51.7726852  43.3176132  -4.5787842
  52.6270012  48.0724997 -18.8930012  52.6690012  47.8494997 -19.8230012
  53.4760012  48.4714997 -18.7030012  52.7475396  48.0959155 -18.9946373
  48.1990012  41.9484997 -18.2230012  47.9460012  41.9674997 -17.3000012
  47.9430012  41.0764997 -18.5240012  48.1297790  41.8332437 -18.1373737
  43.9660012  44.6994997  -7.7880012  43.3240012  44.6584997  -7.0790012
  44.0030012  45.6254997  -8.0250012  43.8831324  44.8191559  -7.7230176
  43.9630012  44.9204997 -12.8760012  43.0700012  44.5794997 -12.9340012
  44.4130012  44.5434997 -13.6310012  43.9017305  44.8228484 -12.9860823
  49.4980012  45.3364997 -14.0590012  49.0890012  46.1514997 -14.3500012
  50.2190012  45.1964997 -14.6730012  49.5394537  45.4292018 -14.1818658
  48.6000012  45.5114997  -2.5710012  48.0380012  44.8074997  -2.2500012
  49.4270012  45.3914997  -2.1030012  48.6347095  45.3987883  -2.4637670
  50.5030012  44.7824997 -11.2450012  50.3080012  45.3874997 -11.9600012
  50.6840012  43.9484997 -11.6790012  50.5007614  44.7526300 -11.4015595
  41.7160012  45.0194997  -5.9210012  41.6780012  45.4194997  -5.0520012
  41.2250012  44.2024997  -5.8300012  41.6444684  44.9638069  -5.7898941
  45.0820012  42.3934997 -19.1220012  44.6510012  41.9484997 -18.3920012
  44.3640012  42.7654997 -19.6340012  44.9259438  42.3828940 -19.0913201
  38.3240012  42.1354997 -12.0700012  38.9550012  42.1064997 -11.3510012
  38.7730012  41.7104997 -12.8000012  38.4710774  42.0740492 -12.0703447
  39.5980012  42.8814997 -16.6460012  40.0720012  43.4724997 -17.2310012
  38.8810012  43.4124997 -16.2990012  39.5659341  43.0340867 -16.6791164
  49.7670012  46.4204997  -6.5730012  50.0900012  45.7894997  -7.2160012
  49.3270012  45.8854997  -5.9130012  49.7516895  46.2618441  -6.5717150
  46.5440012  42.3474997 -11.7890012  45.6330012  42.4044997 -11.5010012
  47.0500012  42.2874997 -10.9790012  46.4875413  42.3471985 -11.6399378
  41.3730012  43.9764997 -12.9630012  40.4830012  44.0764997 -13.3030012
  41.6690012  43.1344997 -13.3090012  41.2912823  43.8763545 -13.0562787
  45.0260012  43.9764997 -15.3060012  45.9570012  44.1054997 -15.1280012
  44.8110012  44.6464997 -15.9560012  45.1244247  44.0846565 -15.3694253
  50.9490012  41.5824997  -8.5250012  50.2730012  41.7134997  -7.8610012
  50.4640012  41.4274997  -9.3350012  50.7907145  41.5794905  -8.5435483
  43.7000012  45.1714997 -17.7390012  43.1570012  44.7914997 -18.4310012
  44.5330012  45.3654997 -18.1680012  43.7384399  45.1458124 -17.8915474
  54.2370012  57.2544997  -2.2480012  54.4370012  57.6784997  -3.0830012
  54.8920012  57.5974997  -1.6410012  54.3530051  57.3589648  -2.2802164
  41.8350012  49.7284997  -2.6400012  42.5670012  49.9824997  -2.0790012
  41.0550012  49.9324997  -2.1250012  41.8298232  49.7909177  -2.4934240
  47.8640012  45.1354997  -9.9020012  48.4290012  44.5884997 -10.4490012
  47.7170012  44.6134997  -9.1140012  47.9212918  44.9902024  -9.8701546
  42.8660012  41.2714997 -13.4840012  42.5490012  40.3694997 -13.5190012
  43.6480012  41.2734997 -14.0370012  42.9282284  41.1481628 -13.5635217
  46.4910012  43.5234997  -7.4880012  45.6550012  43.9774997  -7.3780012
  47.0150012  43.7994997  -6.7360012  46.4474414  43.6229376  -7.3712864
  47.0350012  49.7364997 -15.8040012  46.2900012  49.2294997 -16.1260012
  46.9010012  49.7854997 -14.8570012  46.9148776  49.6736940 -15.7201353
  54.1850012  48.8694997  -7.0170012  54.8270012  49.3264997  -7.5610012
  53.3550012  48.9824997  -7.4800012  54.1605963  48.9472704  -7.1539823
  50.9330012  42.5504997 -17.6040012  49.9940012  42.6624997 -17.7560012
  51.2300012  43.4074997 -17.2980012  50.8447666  42.6816443 -17.5834232
  48.5540012  49.9204997  -4.5670012  48.2090012  49.5394997  -3.7600012
  48.3540012  50.8544997  -4.4950012  48.4798061  49.9945228  -4.4469039
  51.6510012  44.4174997 -15.9440012  52.5430012  44.2804997 -15.6250012
  51.7080012  45.2084997 -16.4800012  51.7806285  44.5056660 -15.9728309
  42.1600012  49.0314997 -10.0340012  42.9050012  49.0294997 -10.6350012
  42.2380012  48.2084997  -9.5520012  42.2725518  48.9199315 -10.0511071
  49.1610012  51.1954997 -16.7780012  48.8650012  52.0214997 -16.3970012
  48.4580012  50.5754997 -16.5820012  49.0254914  51.2248199 -16.6993557
  39.1680012  47.4924997  -4.7190012  39.3910012  47.0744997  -3.8870012
  38.5660012  46.8794997  -5.1420012  39.1171759  47.3524668  -4.6622978
  46.1840012  47.0094997  -2.5060012  45.8880012  46.8434997  -3.4010012
  47.1160012  46.7894997  -2.5170012  46.2694166  46.9570640  -2.6299464
  50.8050012  52.3824997  -4.6160012  49.9040012  52.5654997  -4.8840012
  50.8390012  52.6414997  -3.6950012  50.6863041  52.4425512  -4.5281803
  56.5360012  44.6274997 -16.2490012  55.9820012  44.2314997 -16.9210012
  56.6360012  45.5374997 -16.5270012  56.4737059  44.6963586 -16.3785599
  56.4990012  50.4274997  -3.4120012  55.6480012  50.6654997  -3.7790012
  57.0900012  50.4104997  -4.1650012  56.4622487  50.4578258  -3.5641107
  54.8310012  53.4134997 -15.7840012  54.4580012  52.5874997 -15.4750012
  55.1090012  53.2304997 -16.6810012  54.8175630  53.2757303 -15.8630374
  51.9920012  48.2214997  -8.7630012  51.0630012  47.9894997  -8.7900012
  52.4430012  47.4444997  -9.0930012  51.9259216  48.0847238  -8.8113083
  44.5350012  52.5494997 -12.6300012  45.0620012  53.3224997 -12.8300012
  43.6550012  52.7744997 -12.9310012  44.4881773  52.6858005 -12.6980990
  40.2900012  47.4114997 -18.0430012  40.9060012  48.0384997 -17.6630012
  39.4280012  47.7274997 -17.7710012  40.2577698  47.5399430 -17.9542817
  45.9620012  50.2124997 -13.0530012  45.7210012  51.1374997 -13.0120012
  45.2210012  49.7534997 -12.6570012  45.8288409  50.2771421 -12.9938623
  46.4770012  54.3614997  -6.7380012  46.8390012  55.2164997  -6.9720012
  47.0080012  54.0694997  -5.9980012  46.5984473  54.4391060  -6.6699145
  44.6450012  55.2344997 -13.5080012  43.6950012  55.3394997 -13.4570012
  44.9970012  56.0544997 -13.1630012  44.5624203  55.3598314 -13.4543350
  50.0210012  50.4604997  -7.0380012  49.5950012  50.2334997  -6.2110012
  50.6010012  49.7224997  -7.2200012  50.0411868  50.3295299  -6.9494170
  52.2240012  51.3894997 -17.9640012  52.5770012  51.0094997 -17.1590012
  51.2750012  51.2964997 -17.8770012  52.1440441  51.3249596 -17.8421441
  52.6790012  55.0124997  -4.5680012  52.0780012  54.4574997  -5.0640012
  52.9610012  55.6794997  -5.1940012  52.6348519  55.0266841  -4.7205048
  56.7270012  55.8694997 -17.7630012  57.4710012  56.4554997 -17.9030012
  56.0330012  56.4374997 -17.4290012  56.7350292  56.0265582 -17.7370039
  40.8020012  42.2454997  -5.1610012  39.9090012  42.5844997  -5.2290012
  40.7030012  41.3904997  -4.7430012  40.6664164  42.1762588  -5.1137765
  53.0900012  50.0624997 -15.7370012  52.8120012  49.3344997 -15.1810012
  54.0170012  50.1814997 -15.5320012  53.1773124  49.9788802 -15.6331155
  40.4530012  54.0504997  -6.7260012  40.6700012  53.1184997  -6.7570012
  40.6990012  54.3244997  -5.8430012  40.5159549  53.9600636  -6.6108237
  46.3150012  52.5014997 -19.5170012  46.5540012  51.7534997 -20.0640012
  46.0460012  52.1134997 -18.6840012  46.3113675  52.3466638 -19.4793135
  45.2520012  52.0714997 -17.0600012  45.3980012  51.5514997 -16.2700012
  45.2490012  52.9784997 -16.7540012  45.2715989  52.1228853 -16.9103912
  41.7050012  49.3244997 -16.5500012  41.0190012  49.6764997 -15.9830012
  42.2270012  50.0874997 -16.7970012  41.6816852  49.4758578 -16.5057882
  49.5360012  41.9864997  -6.2710012  50.2350012  42.0604997  -5.6210012
  49.1550012  41.1224997  -6.1170012  49.5801767  41.8797624  -6.1611678
  50.3210012  41.6384997 -15.1740012  50.5410012  42.1104997 -15.9770012
  50.8790012  42.0334997 -14.5040012  50.4264968  41.7564285 -15.1932669
  47.9890012  53.7694997 -16.3110012  47.1730012  54.2664997 -16.2590012
  48.5190012  54.2444997 -16.9510012  47.9489161  53.9017722 -16.3904044
  47.5210012  43.3664997 -14.3390012  48.3330012  43.8714997 -14.2930012
  47.2760012  43.2214997 -13.4250012  47.5990520  43.4160375 -14.2091483
  48.0560012  44.3524997  -5.1540012  48.1750012  44.9264997  -4.3970012
  48.7120012  43.6644997  -5.0400012  48.1609757  44.3381079  -5.0349175
  48.4040012  40.4474997 -13.4010012  48.0580012  41.0654997 -12.7560012
  49.0630012  40.9484997 -13.8820012  48.4457826  40.5995802 -13.3779029
  45.3280012  54.8134997 -16.3290012  45.4880012  55.6124997 -16.8300012
  45.1300012  55.1194997 -15.4440012  45.3231649  54.9644469 -16.2780185
  44.0620012  41.5104997 -16.7140012  43.9790012  42.3994997 -16.3670012
  44.9520012  41.2454997 -16.4820012  44.1709469  41.5961430 -16.6352374
  54.2610012  42.2594997  -4.3190012  53.3440012  42.5224997  -4.4070012
  54.5960012  42.2564997  -5.2160012  54.1809900  42.2950224  -4.4522081
  52.8630012  46.0104997 -10.2240012  52.0650012  45.5954997 -10.5520012
  53.3080012  45.3194997  -9.7330012  52.8139885  45.8603543 -10.2025111
  42.3210012  51.9384997 -17.6530012  42.9130012  52.6374997 -17.3770012
  42.7800012  51.5054997 -18.3730012  42.4641142  51.9757049 -17.7125170
  40.6370012  44.6024997 -18.5370012  40.5920012  45.5414997 -18.3590012
  39.7490012  44.3664997 -18.8070012  40.5108574  44.6991892 -18.5491088
  53.9490012  55.2664997  -8.6010012  53.7940012  55.9444997  -9.2580012
  54.8820012  55.3384997  -8.3980012  54.0538500  55.3690170  -8.6634881
  41.4450012  39.3844997  -9.8640012  41.2160012  39.4434997 -10.7920012
  41.0020012  38.5924997  -9.5580012  41.3538530  39.2855753  -9.9495214
  40.3750012  53.3244997 -13.7040012  39.5430012  53.7974997 -13.6760012
  40.9210012  53.8344997 -14.3020012  40.3349739  53.4581871 -13.7810284
  39.6630012  55.9374997  -2.3740012  40.2040012  55.7204997  -1.6140012
  39.1820012  55.1314997  -2.5630012  39.6719345  55.7989514  -2.2956924
  44.2610012  54.8564997  -0.7530012  45.0280012  54.3974997  -0.4120012
  44.2390012  54.6304997  -1.6830012  44.3631434  54.7630409  -0.8319957
  48.3530012  54.3644997 -19.3780012  47.7090012  53.7334997 -19.0570012
  49.1150012  53.8334997 -19.6100012  48.3678077  54.2062920 -19.3653989
  50.8380012  53.2364997  -2.0240012  50.4870012  52.3804997  -1.7810012
  51.5640012  53.3794997  -1.4170012  50.8880769  53.1385636  -1.9086381
  52.9570012  54.1814997 -19.1440012  53.2400012  53.3874997 -18.6920012
  53.6970012  54.4144997 -19.7050012  53.0957486  54.1042803 -19.1579302
  39.5700012  49.7474997  -1.4190012  39.7140012  48.8454997  -1.7060012
  38.7980012  50.0334997  -1.9070012  39.4853322  49.6628261  -1.5242119
  43.9120012  50.0914997 -19.2870012  43.9760012  49.2974997 -18.7560012
  44.5650012  49.9724997 -19.9770012  44.0090241  49.9667148 -19.3075683
  46.2260012  49.7174997  -1.9870012  45.8970012  49.9884997  -2.8440012
  46.3780012  48.7764997  -2.0740012  46.2014809  49.6273862  -2.1161756
  51.9600012  49.6334997  -4.6030012  52.7060012  50.2214997  -4.7230012
  51.2030012  50.2154997  -4.5400012  51.9597554  49.7927011  -4.6109093
  40.4030012  46.9474997  -1.9990012  40.8110012  46.0904997  -2.1200012
  40.1430012  46.9624997  -1.0780012  40.4237568  46.8320807  -1.8910412
  45.0610012  48.0634997 -16.9810012  44.6010012  47.5794997 -16.2950012
  45.3160012  47.3954997 -17.6170012  45.0324902  47.9068731 -16.9730666
  44.3500012  45.9564997  -4.6250012  43.7320012  46.6314997  -4.3450012
  44.6940012  46.2774997  -5.4580012  44.3119615  46.0922721  -4.6993419
  46.1320012  46.3064997 -18.7190012  45.9520012  46.1524997 -19.6460012
  47.0820012  46.4144997 -18.6740012  46.2357776  46.3000175 -18.8398157
  49.3700012  48.4284997  -1.3480012  50.3230012  48.5114997  -1.3750012
  49.2090012  47.7164997  -0.7280012  49.4786426  48.3436746  -1.2679421
  55.5220012  48.6614997 -19.2730012  55.2480012  48.2364997 -20.0860012
  55.5610012  49.5924997 -19.4900012  55.4897699  48.7292484 -19.4136390
  44.6890012  43.3114997  -3.5430012  44.8390012  42.5824997  -4.1450012
  44.6920012  44.0884997  -4.1020012  44.7099302  43.3167851  -3.7009308
  45.1020012  41.6814997  -6.0500012  45.6380012  42.1324997  -6.7020012
  44.2500012  41.5734997  -6.4730012  45.0602178  41.7286390  -6.1964244
  46.6840012  47.1204997  -5.8110012  47.4340012  46.9644997  -6.3840012
  46.3450012  47.9724997  -6.0860012  46.7408921  47.2142968  -5.9266439
  51.0990012  44.9354997  -0.7820012  51.2920012  44.0044997  -0.8940012
  51.9570012  45.3604997  -0.7920012  51.2413020  44.8656389  -0.7986639
  52.4160012  47.7244997  -2.7050012  52.1350012  48.4334997  -3.2820012
  53.3590012  47.6514997  -2.8560012  52.5049027  47.8117646  -2.8044449
  43.1680012  44.5094997  -1.6310012  42.4010012  43.9774997  -1.8410012
  43.8470012  44.1994997  -2.2310012  43.1547022  44.3947506  -1.7408352
  45.9080012  39.1374997  -5.6190012  45.8090012  40.0844997  -5.7240012
  45.1650012  38.7654997  -6.0940012  45.7940564  39.2165902  -5.6975440
  47.1720012  43.4594997  -2.0550012  46.9360012  43.2394997  -1.1530012
  46.3880012  43.2524997  -2.5650012  47.0338628  43.4014760  -2.0006068
  49.8870012  42.5864997  -2.9790012  48.9400012  42.6184997  -2.8470012
  50.2000012  41.9614997  -2.3260012  49.7995475  42.5063207  -2.8725545
  51.5210012  41.2204997  -0.9740012  51.4250012  40.2684997  -0.9800012
  51.2000012  41.4894997  -0.1140012  51.4644070  41.1264035  -0.8584559
  41.3480012  42.4304997  -1.9270012  41.5600012  41.7234997  -2.5370012
  41.2370012  41.9924997  -1.0830012  41.3619721  42.2747084  -1.8963157
  46.1290012  38.4314997  -2.9470012  46.8410012  37.7914997  -2.9610012
  46.0280012  38.6984997  -3.8610012  46.2127939  38.3799938  -3.0724350
  46.4830012  40.1144997  -0.8940012  46.3510012  39.6384997  -1.7140012
  45.8840012  40.8584997  -0.9490012  46.3839071  40.1499618  -1.0137114
  46.0290012  56.9974997 -17.7170012  46.9620012  57.1554997 -17.5740012
  45.7650012  57.6724997 -18.3420012  46.1209510  57.1103611 -17.7819259
  39.5980012  51.6334997 -18.2350012  40.5120012  51.7124997 -17.9610012
  39.6050012  50.9464997 -18.9010012  39.7241131  51.5513961 -18.2875607
  38.2470012  57.0264997 -13.1570012  37.6000012  56.5644997 -13.6900012
  38.6010012  56.3544997 -12.5750012  38.2063849  56.8724723 -13.1512041
  39.1170012  55.1074997 -11.3530012  38.7820012  54.2274997 -11.1810012
  39.3390012  55.4524997 -10.4880012  39.1011783  55.0337500 -11.2125792
  56.6650012  55.9164997  -8.3720012  56.6440012  56.1014997  -7.4330012
  57.3560012  56.4854997  -8.7130012  56.7554618  56.0186606  -8.2896136
  56.2290012  55.4844997  -5.4500012  55.7410012  54.7484997  -5.8210012
  56.7780012  55.0904997  -4.7720012  56.2364872  55.3306249  -5.4090840
  54.6790012  51.2734997  -0.8120012  53.8130012  51.1684997  -0.4180012
  55.0560012  52.0324997  -0.3660012  54.6113308  51.3616900  -0.6977607
  55.9800012  49.5304997 -15.2980012  56.8300012  49.9514997 -15.1710012
  55.9860012  48.7904997 -14.6910012  56.0971372  49.4880803 -15.1985656
  56.3750012  47.5834997 -13.4740012  55.6480012  47.1044997 -13.0770012
  56.9560012  47.7894997 -12.7420012  56.3539375  47.5457090 -13.3205871
  56.1340012  50.3684997  -8.5270012  56.9670012  49.9904997  -8.8070012
  56.2460012  51.3114997  -8.6460012  56.2632647  50.4442218  -8.5814513
  54.6200012  53.2464997  -6.2200012  53.9730012  53.5714997  -5.5940012
  54.1030012  52.8064997  -6.8940012  54.4614029  53.2315004  -6.2254173
  56.6430012  47.4844997 -17.0830012  56.1210012  47.8414997 -17.8020012
  56.6100012  48.1594997 -16.4050012  56.5671634  47.6245413 -17.0896855
  54.9920012  44.7244997 -18.5320012  55.0880012  45.3914997 -19.2130012
  54.8520012  43.9084997 -19.0140012  54.9862135  44.7054500 -18.6901509
  54.1610012  46.1044997 -12.9110012  54.0110012  45.1594997 -12.9320012
  53.8080012  46.3854997 -12.0680012  54.0926625  46.0130441 -12.7997654
  39.1970012  48.1824997  -8.9010012  39.3810012  48.1004997  -9.8370012
  40.0460012  48.0584997  -8.4770012  39.3370139  48.1545003  -8.9718545
  55.0180012  48.0744997  -3.2730012  55.6010012  47.3404997  -3.0810012
  55.5820012  48.8464997  -3.2260012  55.1739769  48.0784227  -3.2403841
  56.5140012  45.9774997  -2.5880012  55.6510012  45.5984997  -2.7540012
  57.1190012  45.2384997  -2.6620012  56.4775979  45.8258023  -2.6207183
  54.2390012  42.1324997 -19.4150012  54.8500012  41.7614997 -18.7780012
  53.4030012  41.7114997 -19.2190012  54.2095032  42.0247554 -19.3012965
  53.8720012  43.6874997 -14.4490012  54.1520012  42.7804997 -14.3250012
  54.6310012  44.1214997 -14.8380012  54.0129277  43.6220942 -14.4846318
  54.4840012  44.2684997  -9.0130012  55.4170012  44.4804997  -9.0470012
  54.2490012  44.3704997  -8.0910012  54.5798036  44.3112769  -8.8930024
  54.5130012  45.0054997  -6.2370012  53.6700012  45.2734997  -5.8710012
  54.9550012  45.8274997  -6.4480012  54.4574158  45.1533291  -6.2154509
  38.7940012  43.4534997  -2.7600012  39.7140012  43.3314997  -2.5240012
  38.3450012  42.7034997  -2.3710012  38.8591580  43.3353727  -2.6750994
  56.7960012  38.9854997  -0.8840012  57.1460012  38.3314997  -1.4890012
  56.9430012  39.8224997  -1.3230012  56.8638419  39.0091591  -1.0262882
  54.4850012  40.9504997 -14.4010012  54.6680012  40.5014997 -13.5750012
  53.8860012  40.3654997 -14.8640012  54.4290202  40.8099975 -14.3506725
  40.0150012  41.7654997  -9.8690012  40.4610012  40.9734997  -9.5670012
  40.4820012  42.4814997  -9.4380012  40.1390172  41.7540624  -9.7695180
  38.3190012  44.7644997  -8.8000012  38.8110012  44.5434997  -9.5910012
  38.6820012  45.6054997  -8.5190012  38.4353126  44.8478357  -8.8702469
  56.3160012  41.0944997  -2.5340012  55.3980012  41.3654997  -2.5700012
  56.4390012  40.5594997  -3.3190012  56.2071066  41.0592892  -2.6449513
  56.3520012  41.0174997 -17.8730012  56.7640012  40.2964997 -18.3480012
  57.0340012  41.6874997 -17.8140012  56.5005885  41.0092368 -17.9301085
  38.6330012  41.0224997 -14.7460012  37.7080012  41.2314997 -14.8750012
  39.0870012  41.5064997 -15.4350012  38.5677368  41.1165993 -14.8568774
  53.4040012  56.0064997 -12.8000012  54.0560012  55.6594997 -13.4080012
  53.9140012  56.4954997 -12.1540012  53.5622637  56.0250597 -12.7959764
  38.5970012  39.7604997  -6.4010012  37.9320012  39.5144997  -5.7580012
  38.1540012  40.3824997  -6.9790012  38.4460956  39.8108632  -6.3910648
  40.7890012  52.9354997  -2.2570012  39.9680012  53.1104997  -2.7170012
  40.5360012  52.8624997  -1.3360012  40.6426164  52.9495622  -2.1955077
  43.7430012  53.9104997  -5.9980012  43.3180012  54.7194997  -6.2810012
  44.6470012  53.9954997  -6.3000012  43.8070271  54.0328469  -6.0776224
  48.0540012  55.3094997  -3.0390012  48.2390012  54.9754997  -2.1610012
  48.9000012  55.6184997  -3.3610012  48.1937539  55.3056047  -2.9624395
  50.3990012  56.5954997  -3.7950012  51.0760012  55.9624997  -4.0350012
  50.7210012  56.9964997  -2.9880012  50.5351637  56.5631154  -3.7187207
  55.3160012  39.1844997  -4.7150012  54.5040012  39.5094997  -5.1030012
  55.5490012  38.4244997  -5.2480012  55.2363423  39.1262436  -4.8401747
  41.1450012  57.1664997  -5.9510012  40.4240012  57.6064997  -6.4020012
  40.7790012  56.9154997  -5.1020012  40.9969804  57.1927698  -5.8980160
  43.6120012  56.7664997  -6.9210012  42.7470012  56.8384997  -6.5170012
  43.5570012  57.3134997  -7.7050012  43.4862085  56.8502685  -6.9716638
  48.3220012  56.6544997  -7.7460012  47.8660012  57.1834997  -8.4000012
  48.4850012  57.2574997  -7.0200012  48.2815585  56.8084468  -7.7374938
  50.6500012  55.5324997  -6.8010012  49.7450012  55.6974997  -7.0660012
  51.0790012  56.3854997  -6.8660012  50.5840799  55.6704483  -6.8460818
  53.2540012  57.1024997  -6.5060012  53.0720012  58.0184997  -6.7160012
  53.4310012  56.6924997  -7.3520012  53.2530210  57.1724822  -6.6492115
  40.5590012  55.7894997  -9.0410012  40.5410012  55.3644997  -8.1830012
  41.3640012  55.4714997  -9.4490012  40.6653875  55.6883812  -8.9788345
  42.7010012  54.4994997 -10.3860012  42.4820012  53.5834997 -10.2160012
  43.5250012  54.6394997  -9.9200012  42.7824420  54.3930520 -10.2997226
  45.2380012  54.9694997  -9.5370012  45.4510012  54.0814997  -9.8240012
  45.3020012  54.9354997  -8.5830012  45.2758232  54.8433102  -9.4472603
  48.7460012  40.6334997 -10.3930012  48.0720012  40.0044997 -10.1370012
  49.3100012  40.1494997 -10.9960012  48.7299230  40.4818744 -10.4394660
  53.8890012  38.7414997 -10.2800012  54.4930012  39.2884997 -10.7820012
  53.0190012  39.0604997 -10.5200012  53.8541241  38.8595806 -10.3812346
  55.6160012  39.8794997 -11.9470012  56.2280012  39.3654997 -12.4730012
  55.9980012  40.7574997 -11.9230012  55.7514540  39.9277140 -12.0158170
  41.0730012  39.2674997 -12.5710012  40.2960012  39.0334997 -13.0780012
  41.6030012  38.4704997 -12.5620012  41.0382330  39.1276988 -12.6392258
  39.9090012  39.0654997 -16.7670012  40.3480012  39.6764997 -17.3590012
  39.2760012  39.6034997 -16.2930012  39.8834514  39.2219257 -16.7839070
  45.6520012  39.1944997 -12.7570012  46.5270012  39.5824997 -12.7870012
  45.5160012  38.9794997 -11.8350012  45.7533695  39.2185184 -12.6363560
  51.2090012  39.2244997 -11.1080012  51.2850012  39.3194997 -12.0580012
  50.9340012  38.3164997 -10.9790012  51.1822321  39.1147867 -11.2204921
  52.5620012  39.2504997 -15.4160012  51.8600012  39.8654997 -15.6250012
  52.1180012  38.4124997 -15.2850012  52.4056330  39.2215783 -15.4269672
  39.8100012  55.0134997 -15.8690012  39.1250012  54.9754997 -16.5370012
  39.8140012  55.9264997 -15.5810012  39.7168193  55.1317016 -15.9214716
  41.7700012  40.9814997 -18.3250012  42.2620012  40.3514997 -18.8520012
  42.3940012  41.2774997 -17.6610012  41.9215446  40.9353199 -18.3074020
  46.7960012  41.2744997 -15.8680012  46.9740012  40.6284997 -15.1850012
  46.7430012  42.1084997 -15.4000012  46.8131829  41.2987985 -15.7114060
  48.6750012  56.2234997 -17.4720012  49.5410012  56.5894997 -17.6500012
  48.4280012  55.7834997 -18.2860012  48.7602392  56.2141756 -17.6063711
  55.3840012  55.7864997 -14.7930012  55.1890012  55.0384997 -15.3580012
  55.3450012  56.5444997 -15.3760012  55.3520380  55.7866099 -14.9491616
  41.0310012  39.7814997  -3.0530012  40.6650012  39.0164997  -2.6100012
  41.9440012  39.8104997  -2.7660012  41.1042790  39.6807224  -2.9535930
  43.0040012  39.1324997  -1.5170012  43.9020012  38.8584997  -1.7020012
  42.6170012  38.3894997  -1.0530012  43.0746612  38.9945914  -1.4796357
  41.6280012  55.9334997 -18.8440012  41.3610012  56.2204997 -17.9710012
  42.4000012  55.3874997 -18.6920012  41.6957488  55.8990294 -18.7038950
  51.4250012  38.4644997  -1.3350012  51.5020012  38.0384997  -0.4810012
  52.3190012  38.4784997  -1.6780012  51.5563428  38.4080879  -1.2644690
  54.6010012  54.5374997  -2.6430012  53.8190012  54.3514997  -3.1620012
  54.5290012  55.4664997  -2.4250012  54.4841777  54.6376492  -2.6845952
  69.0070012  48.4234997 -12.6120012  69.0960012  49.3674997 -12.7440012
  68.3690012  48.1484997 -13.2700012  68.9329081  48.5154830 -12.7190386
  67.9400012  47.6784997  -9.1930012  67.9020012  47.0324997  -8.4880012
  67.6180012  47.2124997  -9.9640012  67.8912333  47.5269408  -9.2007022
  60.3090012  47.2934997  -7.6000012  60.3500012  46.6674997  -6.8770012
  61.0120012  47.9174997  -7.4180012  60.4096363  47.2921196  -7.4763956
  71.6460012  50.6174997 -10.8920012  71.2060012  49.8974997 -10.4410012
  71.6330012  51.3384997 -10.2620012  71.5840226  50.6163731 -10.7451506
  61.2320012  51.7434997  -9.0650012  60.8630012  50.9414997  -9.4350012
  62.1730012  51.5744997  -9.0190012  61.3087289  51.6110153  -9.1093684
  57.8420012  45.4034997 -13.6720012  57.3950012  46.2494997 -13.6910012
  57.2810012  44.8234997 -14.1880012  57.7049900  45.4409916 -13.7443199
  58.5530012  47.5654997 -11.5460012  58.7660012  46.7954997 -11.0190012
  59.2910012  47.6544997 -12.1500012  58.6818496  47.4721394 -11.5554700
  68.7580012  55.7224997 -10.6790012  69.3780012  55.0454997 -10.9530012
  68.5500012  55.5044997  -9.7710012  68.8146904  55.6003870 -10.5936635
  66.3300012  50.1114997  -8.7870012  66.6340012  49.4254997  -9.3820012
  67.0510012  50.2294997  -8.1690012  66.4690671  50.0336305  -8.7848184
  74.9930012  41.7124997  -7.9260012  75.0420012  42.3224997  -7.1900012
  75.4180012  42.1734997  -8.6490012  75.0571824  41.8583741  -7.9229795
  69.4710012  44.5054997  -8.4590012  69.6130012  43.5594997  -8.4390012
  69.3640012  44.7124997  -9.3880012  69.4759864  44.4039534  -8.5817661
  62.6250012  42.6064997 -11.1870012  62.6690012  43.4664997 -11.6050012
  62.1680012  42.0544997 -11.8210012  62.5692185  42.6495799 -11.3299701
  70.3480012  42.7374997 -12.7860012  70.9940012  42.4084997 -12.1610012
  70.8580012  43.2554997 -13.4090012  70.5054264  42.7624611 -12.7846138
  59.2460012  45.0034997 -10.4250012  59.8990012  44.4534997  -9.9930012
  59.2700012  44.7294997 -11.3420012  59.3386683  44.8911466 -10.4897877
  64.4020012  46.5534997 -11.2100012  65.0180012  46.0274997 -10.7000012
  63.8160012  45.9134997 -11.6130012  64.4070810  46.3949208 -11.1946827
  75.3840012  43.1904997  -5.6900012  74.6960012  43.8484997  -5.7860012
  75.4000012  42.9934997  -4.7540012  75.2918525  43.2540462  -5.5765192
  61.4360012  41.5244997  -7.1130012  61.2170012  42.0544997  -7.8790012
  60.7680012  41.7514997  -6.4660012  61.3157600  41.6276906  -7.1303621
  68.8050012  51.0244997 -13.5690012  68.5090012  50.7024997 -14.4200012
  68.4800012  51.9244997 -13.5280012  68.7206371  51.1020215 -13.6798199
  64.0050012  49.2004997  -6.8260012  63.2650012  49.7984997  -6.7220012
  64.7190012  49.7544997  -7.1410012  64.0002237  49.3572831  -6.8543535
  72.1120012  42.0284997 -10.8060012  71.8960012  41.2624997 -10.2730012
  72.7670012  42.5004997 -10.2930012  72.1710632  41.9875889 -10.6637139
  61.0290012  43.4164997  -9.1610012  61.6430012  44.0494997  -8.7870012
  61.5410012  42.9444997  -9.8170012  61.1822296  43.4392370  -9.1985748
  62.4120012  51.1644997  -6.0380012  62.4070012  52.0444997  -6.4160012
  61.5590012  51.0814997  -5.6130012  62.2959464  51.2736117  -6.0322093
  58.5330012  50.8354997 -15.2560012  58.2610012  51.0644997 -16.1450012
  58.5790012  51.6734997 -14.7960012  58.5020094  50.9801213 -15.3154303
  72.1580012  52.4574997  -8.5440012  71.2170012  52.5154997  -8.3820012
  72.4350012  53.3634997  -8.6810012  72.0664679  52.5879443  -8.5403185
  72.4590012  40.7434997  -7.1260012  71.7230012  41.3544997  -7.1640012
  73.1420012  41.1584997  -7.6530012  72.4506541  40.8831374  -7.2024168
  65.4620012  38.8304997  -9.6600012  65.3450012  37.8814997  -9.7150012
  64.6070012  39.1624997  -9.3870012  65.3303733  38.7455409  -9.6306103
  70.4100012  54.2384997 -11.9180012  70.8360012  53.5314997 -12.4030012
  70.7270012  55.0394997 -12.3350012  70.5111019  54.2500994 -12.0406870
  71.5700012  52.1394997 -13.4100012  71.3120012  51.4494997 -14.0210012
  71.6410012  51.6964997 -12.5640012  71.5442856  51.9852124 -13.3793115
  73.2560012  50.7054997  -4.9320012  73.3960012  50.1144997  -5.6720012
  73.4230012  51.5784997  -5.2890012  73.2976778  50.7426426  -5.0813035
  67.7290012  47.6674997 -15.1600012  67.0170012  48.2024997 -15.5120012
  68.4200012  47.7234997 -15.8200012  67.7250132  47.7482543 -15.2973711
  67.7820012  46.1254997 -18.1210012  68.4830012  46.1474997 -17.4700012
  68.0850012  45.4974997 -18.7770012  67.9187830  46.0436566 -18.1206289
  75.0980012  47.0454997  -6.8660012  74.4450012  47.7404997  -6.7770012
  75.5630012  47.2554997  -7.6760012  75.0715390  47.1689425  -6.9633117
  71.1340012  47.8774997 -14.2080012  70.4020012  48.1054997 -13.6350012
  71.5820012  47.1634997 -13.7530012  71.0943095  47.8122571 -14.0680881
  71.0320012  46.0514997  -5.1410012  71.1120012  46.8144997  -4.5690012
  70.4300012  46.3304997  -5.8310012  70.9615756  46.1937134  -5.1559411
  62.7800012  48.5074997 -12.3260012  62.4490012  48.1374997 -13.1440012
  63.3680012  47.8374997 -11.9790012  62.8141873  48.3661156 -12.3911898
  64.1460012  51.9354997  -9.6440012  64.0520012  51.3574997 -10.4010012
  64.8760012  51.5644997  -9.1480012  64.2317981  51.8062390  -9.6805835
  63.1460012  47.2764997  -8.6920012  63.7120012  47.3974997  -9.4550012
  63.4650012  47.9134997  -8.0530012  63.2665786  47.3791884  -8.7099960
  69.4550012  52.7794997  -7.9580012  69.2150012  53.4414997  -7.3100012
  69.2570012  51.9454997  -7.5330012  69.3953808  52.7573134  -7.8118476
  64.0260012  51.6754997  -3.9750012  63.7150012  52.4574997  -3.5200012
  63.3760012  51.5224997  -4.6610012  63.8955558  51.7619105  -4.0054129
  70.0050012  47.0394997 -16.5230012  70.5850012  47.1894997 -15.7760012
  70.4190012  47.5104997 -17.2460012  70.1402830  47.1236841 -16.5185866
  60.9460012  47.8734997  -4.7460012  61.0170012  48.5244997  -4.0480012
  60.0560012  47.9764997  -5.0810012  60.8353117  47.9765936  -4.6957300
  67.7320012  53.7764997 -13.0880012  68.2060012  54.0714997 -12.3100012
  67.1690012  54.5144997 -13.3210012  67.7207653  53.9166932 -13.0129864
  62.2660012  53.7474997  -3.2120012  62.2730012  53.6114997  -4.1590012
  61.3500012  53.6294997  -2.9600012  62.1431714  53.7129430  -3.3075334
  73.7040012  38.7894997 -16.7100012  72.8040012  38.9284997 -16.4150012
  73.9560012  39.6204997 -17.1120012  73.6148702  38.9209074 -16.7239795
  61.7700012  47.5774997 -14.7360012  61.4780012  48.3454997 -15.2270012
  61.0960012  46.9174997 -14.8990012  61.6389081  47.5934406 -14.8252660
  74.8930012  53.1554997 -18.3340012  74.9670012  54.0944997 -18.1630012
  75.7990012  52.8504997 -18.3900012  75.0255100  53.2426722 -18.3181881
  57.8630012  49.9404997  -5.9210012  57.3620012  49.9124997  -6.7360012
  57.8680012  49.0344997  -5.6120012  57.7951526  49.8142278  -5.9907128
  57.6130012  52.7204997  -9.0370012  58.5590012  52.5764997  -9.0560012
  57.5010012  53.5044997  -8.5000012  57.7272727  52.8068046  -8.9669928
  75.8110012  53.3864997  -3.3550012  75.7620012  52.4314997  -3.3920012
  74.9840012  53.6544997  -2.9540012  75.6924940  53.2918998  -3.3058625
  66.7900012  52.9604997  -4.4790012  66.8770012  53.7864997  -4.0040012
  65.9260012  52.6304997  -4.2300012  66.6851964  53.0289878  -4.3803451
  67.2040012  56.7324997 -14.6730012  67.1290012  56.6114997 -15.6190012
  67.2370012  57.6824997 -14.5540012  67.1981848  56.8442500 -14.7865166
  60.8570012  55.5214997 -12.8920012  61.0100012  55.1734997 -12.0130012
  60.0070012  55.1654997 -13.1470012  60.7628962  55.4256650 -12.8061660
  70.3060012  55.8864997 -17.6710012  70.6810012  55.1424997 -18.1410012
  70.3100012  55.6164997 -16.7520012  70.3578915  55.7481486 -17.6112176
  69.9750012  55.8124997 -14.9210012  69.0390012  55.9124997 -14.7430012
  70.2550012  55.1034997 -14.3430012  69.8848255  55.7302711 -14.8184609
  72.9630012  44.8794997  -2.8750012  72.5560012  45.3604997  -3.5960012
  73.0040012  43.9744997  -3.1830012  72.9128437  44.8229374  -3.0153317
  60.1120012  51.2634997  -4.8780012  60.3280012  50.9024997  -4.0190012
  59.2570012  50.8894997  -5.0880012  60.0259292  51.1634111  -4.7886614
  62.7310012  39.7334997  -8.8830012  61.8690012  39.6464997  -9.2900012
  62.7080012  40.5894997  -8.4550012  62.6100330  39.8372765  -8.8808137
  67.3940012  39.4554997  -5.5080012  67.8140012  39.0404997  -4.7550012
  66.4610012  39.2774997  -5.3910012  67.3253644  39.3745900  -5.3890461
  70.7200012  43.2114997  -4.6550012  70.2060012  43.0854997  -3.8570012
  70.5650012  44.1234997  -4.8990012  70.6286852  43.3176132  -4.5787842
  71.4830012  48.0724997 -18.8930012  71.5250012  47.8494997 -19.8230012
  72.3320012  48.4714997 -18.7030012  71.6035396  48.0959155 -18.9946373
  67.0550012  41.9484997 -18.2230012  66.8020012  41.9674997 -17.3000012
  66.7990012  41.0764997 -18.5240012  66.9857790  41.8332437 -18.1373737
  62.8220012  44.6994997  -7.7880012  62.1800012  44.6584997  -7.0790012
  62.8590012  45.6254997  -8.0250012  62.7391324  44.8191559  -7.7230176
  62.8190012  44.9204997 -12.8760012  61.9260012  44.5794997 -12.9340012
  63.2690012  44.5434997 -13.6310012  62.7577305  44.8228484 -12.9860823
  68.3540012  45.3364997 -14.0590012  67.9450012  46.1514997 -14.3500012
  69.0750012  45.1964997 -14.6730012  68.3954537  45.4292018 -14.1818658
  67.4560012  45.5114997  -2.5710012  66.8940012  44.8074997  -2.2500012
  68.2830012  45.3914997  -2.1030012  67.4907095  45.3987883  -2.4637670
  69.3590012  44.7824997 -11.2450012  69.1640012  45.3874997 -11.9600012
  69.5400012  43.9484997 -11.6790012  69.3567614  44.7526300 -11.4015595
  60.5720012  45.0194997  -5.9210012  60.5340012  45.4194997  -5.0520012
  60.0810012  44.2024997  -5.8300012  60.5004684  44.9638069  -5.7898941
  63.9380012  42.3934997 -19.1220012  63.5070012  41.9484997 -18.3920012
  63.2200012  42.7654997 -19.6340012  63.7819438  42.3828940 -19.0913201
  57.1800012  42.1354997 -12.0700012  57.8110012  42.1064997 -11.3510012
  57.6290012  41.7104997 -12.8000012  57.3270774  42.0740492 -12.0703447
  58.4540012  42.8814997 -16.6460012  58.9280012  43.4724997 -17.2310012
  57.7370012  43.4124997 -16.2990012  58.4219341  43.0340867 -16.6791164
  68.6230012  46.4204997  -6.5730012  68.9460012  45.7894997  -7.2160012
  68.1830012  45.8854997  -5.9130012  68.6076895  46.2618441  -6.5717150
  65.4000012  42.3474997 -11.7890012  64.4890012  42.4044997 -11.5010012
  65.9060012  42.2874997 -10.9790012  65.3435413  42.3471985 -11.6399378
  60.2290012  43.9764997 -12.9630012  59.3390012  44.0764997 -13.3030012
  60.5250012  43.1344997 -13.3090012  60.1472823  43.8763545 -13.0562787
  63.8820012  43.9764997 -15.3060012  64.8130012  44.1054997 -15.1280012
  63.6670012  44.6464997 -15.9560012  63.9804247  44.0846565 -15.3694253
  69.8050012  41.5824997  -8.5250012  69.1290012  41.7134997  -7.8610012
  69.3200012  41.4274997  -9.3350012  69.6467145  41.5794905  -8.5435483
  62.5560012  45.1714997 -17.7390012  62.0130012  44.7914997 -18.4310012
  63.3890012  45.3654997 -18.1680012  62.5944399  45.1458124 -17.8915474
  73.0930012  57.2544997  -2.2480012  73.2930012  57.6784997  -3.0830012
  73.7480012  57.5974997  -1.6410012  73.2090051  57.3589648  -2.2802164
  60.6910012  49.7284997  -2.6400012  61.4230012  49.9824997  -2.0790012
  59.9110012  49.9324997  -2.1250012  60.6858232  49.7909177  -2.4934240
  66.7200012  45.1354997  -9.9020012  67.2850012  44.5884997 -10.4490012
  66.5730012  44.6134997  -9.1140012  66.7772918  44.9902024  -9.8701546
  61.7220012  41.2714997 -13.4840012  61.4050012  40.3694997 -13.5190012
  62.5040012  41.2734997 -14.0370012  61.7842284  41.1481628 -13.5635217
  65.3470012  43.5234997  -7.4880012  64.5110012  43.9774997  -7.3780012
  65.8710012  43.7994997  -6.7360012  65.3034414  43.6229376  -7.3712864
  65.8910012  49.7364997 -15.8040012  65.1460012  49.2294997 -16.1260012
  65.7570012  49.7854997 -14.8570012  65.7708776  49.6736940 -15.7201353
  73.0410012  48.8694997  -7.0170012  73.6830012  49.3264997  -7.5610012
  72.2110012  48.9824997  -7.4800012  73.0165963  48.9472704  -7.1539823
  69.7890012  42.5504997 -17.6040012  68.8500012  42.6624997 -17.7560012
  70.0860012  43.4074997 -17.2980012  69.7007666  42.6816443 -17.5834232
  67.4100012  49.9204997  -4.5670012  67.0650012  49.5394997  -3.7600012
  67.2100012  50.8544997  -4.4950012  67.3358061  49.9945228  -4.4469039
  70.5070012  44.4174997 -15.9440012  71.3990012  44.2804997 -15.6250012
  70.5640012  45.2084997 -16.4800012  70.6366285  44.5056660 -15.9728310
  61.0160012  49.0314997 -10.0340012  61.7610012  49.0294997 -10.6350012
  61.0940012  48.2084997  -9.5520012  61.1285518  48.9199315 -10.0511071
  68.0170012  51.1954997 -16.7780012  67.7210012  52.0214997 -16.3970012
  67.3140012  50.5754997 -16.5820012  67.8814914  51.2248199 -16.6993557
  58.0240012  47.4924997  -4.7190012  58.2470012  47.0744997  -3.8870012
  57.4220012  46.8794997  -5.1420012  57.9731759  47.3524668  -4.6622978
  65.0400012  47.0094997  -2.5060012  64.7440012  46.8434997  -3.4010012
  65.9720012  46.7894997  -2.5170012  65.1254166  46.9570640  -2.6299464
  69.6610012  52.3824997  -4.6160012  68.7600012  52.5654997  -4.8840012
  69.6950012  52.6414997  -3.6950012  69.5423041  52.4425512  -4.5281803
  75.3920012  44.6274997 -16.2490012  74.8380012  44.2314997 -16.9210012
  75.4920012  45.5374997 -16.5270012  75.3297059  44.6963586 -16.3785599
  75.3550012  50.4274997  -3.4120012  74.5040012  50.6654997  -3.7790012
  75.9460012  50.4104997  -4.1650012  75.3182487  50.4578258  -3.5641107
  73.6870012  53.4134997 -15.7840012  73.3140012  52.5874997 -15.4750012
  73.9650012  53.2304997 -16.6810012  73.6735630  53.2757303 -15.8630374
  70.8480012  48.2214997  -8.7630012  69.9190012  47.9894997  -8.7900012
  71.2990012  47.4444997  -9.0930012  70.7819216  48.0847238  -8.8113083
  63.3910012  52.5494997 -12.6300012  63.9180012  53.3224997 -12.8300012
  62.5110012  52.7744997 -12.9310012  63.3441773  52.6858005 -12.6980990
  59.1460012  47.4114997 -18.0430012  59.7620012  48.0384997 -17.6630012
  58.2840012  47.7274997 -17.7710012  59.1137698  47.5399430 -17.9542817
  64.8180012  50.2124997 -13.0530012  64.5770012  51.1374997 -13.0120012
  64.0770012  49.7534997 -12.6570012  64.6848409  50.2771421 -12.9938623
  65.3330012  54.3614997  -6.7380012  65.6950012  55.2164997  -6.9720012
  65.8640012  54.0694997  -5.9980012  65.4544473  54.4391060  -6.6699145
  63.5010012  55.2344997 -13.5080012  62.5510012  55.3394997 -13.4570012
  63.8530012  56.0544997 -13.1630012  63.4184203  55.3598314 -13.4543350
  68.8770012  50.4604997  -7.0380012  68.4510012  50.2334997  -6.2110012
  69.4570012  49.7224997  -7.2200012  68.8971868  50.3295299  -6.9494170
  71.0800012  51.3894997 -17.9640012  71.4330012  51.0094997 -17.1590012
  70.1310012  51.2964997 -17.8770012  71.0000441  51.3249596 -17.8421441
  71.5350012  55.0124997  -4.5680012  70.9340012  54.4574997  -5.0640012
  71.8170012  55.6794997  -5.1940012  71.4908519  55.0266841  -4.7205048
  75.5830012  55.8694997 -17.7630012  76.3270012  56.4554997 -17.9030012
  74.8890012  56.4374997 -17.4290012  75.5910292  56.0265582 -17.7370039
  59.6580012  42.2454997  -5.1610012  58.7650012  42.5844997  -5.2290012
  59.5590012  41.3904997  -4.7430012  59.5224164  42.1762588  -5.1137765
  71.9460012  50.0624997 -15.7370012  71.6680012  49.3344997 -15.1810012
  72.8730012  50.1814997 -15.5320012  72.0333124  49.9788802 -15.6331155
  59.3090012  54.0504997  -6.7260012  59.5260012  53.1184997  -6.7570012
  59.5550012  54.3244997  -5.8430012  59.3719549  53.9600636  -6.6108237
  65.1710012  52.5014997 -19.5170012  65.4100012  51.7534997 -20.0640012
  64.9020012  52.1134997 -18.6840012  65.1673675  52.3466638 -19.4793135
  64.1080012  52.0714997 -17.0600012  64.2540012  51.5514997 -16.2700012
  64.1050012  52.9784997 -16.7540012  64.1275989  52.1228853 -16.9103912
  60.5610012  49.3244997 -16.5500012  59.8750012  49.6764997 -15.9830012
  61.0830012  50.0874997 -16.7970012  60.5376852  49.4758578 -16.5057882
  68.3920012  41.9864997  -6.2710012  69.0910012  42.0604997  -5.6210012
  68.0110012  41.1224997  -6.1170012  68.4361767  41.8797624  -6.1611678
  69.1770012  41.6384997 -15.1740012  69.3970012  42.1104997 -15.9770012
  69.7350012  42.0334997 -14.5040012  69.2824968  41.7564285 -15.1932669
  66.8450012  53.7694997 -16.3110012  66.0290012  54.2664997 -16.2590012
  67.3750012  54.2444997 -16.9510012  66.8049161  53.9017722 -16.3904044
  66.3770012  43.3664997 -14.3390012  67.1890012  43.8714997 -14.2930012
  66.1320012  43.2214997 -13.4250012  66.4550520  43.4160375 -14.2091483
  66.9120012  44.3524997  -5.1540012  67.0310012  44.9264997  -4.3970012
  67.5680012  43.6644997  -5.0400012  67.0169757  44.3381079  -5.0349175
  67.2600012  40.4474997 -13.4010012  66.9140012  41.0654997 -12.7560012
  67.9190012  40.9484997 -13.8820012  67.3017826  40.5995802 -13.3779029
  64.1840012  54.8134997 -16.3290012  64.3440012  55.6124997 -16.8300012
  63.9860012  55.1194997 -15.4440012  64.1791649  54.9644469 -16.2780185
  62.9180012  41.5104997 -16.7140012  62.8350012  42.3994997 -16.3670012
  63.8080012  41.2454997 -16.4820012  63.0269469  41.5961430 -16.6352374
  73.1170012  42.2594997  -4.3190012  72.2000012  42.5224997  -4.4070012
  73.4520012  42.2564997  -5.2160012  73.0369900  42.2950224  -4.4522081
  71.7190012  46.0104997 -10.2240012  70.9210012  45.5954997 -10.5520012
  72.1640012  45.3194997  -9.7330012  71.6699885  45.8603543 -10.2025111
  61.1770012  51.9384997 -17.6530012  61.7690012  52.6374997 -17.3770012
  61.6360012  51.5054997 -18.3730012  61.3201142  51.9757049 -17.7125170
  59.4930012  44.6024997 -18.5370012  59.4480012  45.5414997 -18.3590012
  58.6050012  44.3664997 -18.8070012  59.3668574  44.6991892 -18.5491088
  72.8050012  55.2664997  -8.6010012  72.6500012  55.9444997  -9.2580012
  73.7380012  55.3384997  -8.3980012  72.9098500  55.3690170  -8.6634881
  60.3010012  39.3844997  -9.8640012  60.0720012  39.4434997 -10.7920012
  59.8580012  38.5924997  -9.5580012  60.2098530  39.2855753  -9.9495214
  59.2310012  53.3244997 -13.7040012  58.3990012  53.7974997 -13.6760012
  59.7770012  53.8344997 -14.3020012  59.1909739  53.4581871 -13.7810284
  58.5190012  55.9374997  -2.3740012  59.0600012  55.7204997  -1.6140012
  58.0380012  55.1314997  -2.5630012  58.5279345  55.7989514  -2.2956924
  63.1170012  54.8564997  -0.7530012  63.8840012  54.3974997  -0.4120012
  63.0950012  54.6304997  -1.6830012  63.2191434  54.7630409  -0.8319957
  67.2090012  54.3644997 -19.3780012  66.5650012  53.7334997 -19.0570012
  67.9710012  53.8334997 -19.6100012  67.2238077  54.2062920 -19.3653989
  69.6940012  53.2364997  -2.0240012  69.3430012  52.3804997  -1.7810012
  70.4200012  53.3794997  -1.4170012  69.7440769  53.1385636  -1.9086381
  71.8130012  54.1814997 -19.1440012  72.0960012  53.3874997 -18.6920012
  72.5530012  54.4144997 -19.7050012  71.9517486  54.1042803 -19.1579302
  58.4260012  49.7474997  -1.4190012  58.5700012  48.8454997  -1.7060012
  57.6540012  50.0334997  -1.9070012  58.3413322  49.6628261  -1.5242119
  62.7680012  50.0914997 -19.2870012  62.8320012  49.2974997 -18.7560012
  63.4210012  49.9724997 -19.9770012  62.8650241  49.9667148 -19.3075683
  65.0820012  49.7174997  -1.9870012  64.7530012  49.9884997  -2.8440012
  65.2340012  48.7764997  -2.0740012  65.0574809  49.6273862  -2.1161756
  70.8160012  49.6334997  -4.6030012  71.5620012  50.2214997  -4.7230012
  70.0590012  50.2154997  -4.5400012  70.8157554  49.7927011  -4.6109093
  59.2590012  46.9474997  -1.9990012  59.6670012  46.0904997  -2.1200012
  58.9990012  46.9624997  -1.0780012  59.2797568  46.8320807  -1.8910412
  63.9170012  48.0634997 -16.9810012  63.4570012  47.5794997 -16.2950012
  64.1720012  47.3954997 -17.6170012  63.8884902  47.9068731 -16.9730666
  63.2060012  45.9564997  -4.6250012  62.5880012  46.6314997  -4.3450012
  63.5500012  46.2774997  -5.4580012  63.1679615  46.0922721  -4.6993419
  64.9880012  46.3064997 -18.7190012  64.8080012  46.1524997 -19.6460012
  65.9380012  46.4144997 -18.6740012  65.0917776  46.3000175 -18.8398157
  68.2260012  48.4284997  -1.3480012  69.1790012  48.5114997  -1.3750012
  68.0650012  47.7164997  -0.7280012  68.3346426  48.3436746  -1.2679421
  74.3780012  48.6614997 -19.2730012  74.1040012  48.2364997 -20.0860012
  74.4170012  49.5924997 -19.4900012  74.3457699  48.7292484 -19.4136390
  63.5450012  43.3114997  -3.5430012  63.6950012  42.5824997  -4.1450012
  63.5480012  44.0884997  -4.1020012  63.5659302  43.3167851  -3.7009308
  63.9580012  41.6814997  -6.0500012  64.4940012  42.1324997  -6.7020012
  63.1060012  41.5734997  -6.4730012  63.9162178  41.7286390  -6.1964244
  65.5400012  47.1204997  -5.8110012  66.2900012  46.9644997  -6.3840012
  65.2010012  47.9724997  -6.0860012  65.5968921  47.2142968  -5.9266439
  69.9550012  44.9354997  -0.7820012  70.1480012  44.0044997  -0.8940012
  70.8130012  45.3604997  -0.7920012  70.0973020  44.8656389  -0.7986639
  71.2720012  47.7244997  -2.7050012  70.9910012  48.4334997  -3.2820012
  72.2150012  47.6514997  -2.8560012  71.3609027  47.8117646  -2.8044449
  62.0240012  44.5094997  -1.6310012  61.2570012  43.9774997  -1.8410012
  62.7030012  44.1994997  -2.2310012  62.0107022  44.3947506  -1.7408352
  64.7640012  39.1374997  -5.6190012  64.6650012  40.0844997  -5.7240012
  64.0210012  38.7654997  -6.0940012  64.6500564  39.2165902  -5.6975440
  66.0280012  43.4594997  -2.0550012  65.7920012  43.2394997  -1.1530012
  65.2440012  43.2524997  -2.5650012  65.8898628  43.4014760  -2.0006068
  68.7430012  42.5864997  -2.9790012  67.7960012  42.6184997  -2.8470012
  69.0560012  41.9614997  -2.3260012  68.6555475  42.5063207  -2.8725545
  70.3770012  41.2204997  -0.9740012  70.2810012  40.2684997  -0.9800012
  70.0560012  41.4894997  -0.1140012  70.3204070  41.1264035  -0.8584559
  60.2040012  42.4304997  -1.9270012  60.4160012  41.7234997  -2.5370012
  60.0930012  41.9924997  -1.0830012  60.2179721  42.2747084  -1.8963157
  64.9850012  38.4314997  -2.9470012  65.6970012  37.7914997  -2.9610012
  64.8840012  38.6984997  -3.8610012  65.0687939  38.3799938  -3.0724350
  65.3390012  40.1144997  -0.8940012  65.2070012  39.6384997  -1.7140012
  64.7400012  40.8584997  -0.9490012  65.2399071  40.1499618  -1.0137114
  64.8850012  56.9974997 -17.7170012  65.8180012  57.1554997 -17.5740012
  64.6210012  57.6724997 -18.3420012  64.9769510  57.1103611 -17.7819259
  58.4540012  51.6334997 -18.2350012  59.3680012  51.7124997 -17.9610012
  58.4610012  50.9464997 -18.9010012  58.5801131  51.5513961 -18.2875607
  57.1030012  57.0264997 -13.1570012  56.4560012  56.5644997 -13.6900012
  57.4570012  56.3544997 -12.5750012  57.0623849  56.8724723 -13.1512041
  57.9730012  55.1074997 -11.3530012  57.6380012  54.2274997 -11.1810012
  58.1950012  55.4524997 -10.4880012  57.9571783  55.0337500 -11.2125792
  75.5210012  55.9164997  -8.3720012  75.5000012  56.1014997  -7.4330012
  76.2120012  56.4854997  -8.7130012  75.6114618  56.0186606  -8.2896136
  75.0850012  55.4844997  -5.4500012  74.5970012  54.7484997  -5.8210012
  75.6340012  55.0904997  -4.7720012  75.0924872  55.3306249  -5.4090840
  73.5350012  51.2734997  -0.8120012  72.6690012  51.1684997  -0.4180012
  73.9120012  52.0324997  -0.3660012  73.4673308  51.3616900  -0.6977607
  74.8360012  49.5304997 -15.2980012  75.6860012  49.9514997 -15.1710012
  74.8420012  48.7904997 -14.6910012  74.9531372  49.4880803 -15.1985656
  75.2310012  47.5834997 -13.4740012  74.5040012  47.1044997 -13.0770012
  75.8120012  47.7894997 -12.7420012  75.2099375  47.5457090 -13.3205871
  74.9900012  50.3684997  -8.5270012  75.8230012  49.9904997  -8.8070012
  75.1020012  51.3114997  -8.6460012  75.1192647  50.4442218  -8.5814513
  73.4760012  53.2464997  -6.2200012  72.8290012  53.5714997  -5.5940012
  72.9590012  52.8064997  -6.8940012  73.3174029  53.2315004  -6.2254173
  75.4990012  47.4844997 -17.0830012  74.9770012  47.8414997 -17.8020012
  75.4660012  48.1594997 -16.4050012  75.4231634  47.6245413 -17.0896855
  73.8480012  44.7244997 -18.5320012  73.9440012  45.3914997 -19.2130012
  73.7080012  43.9084997 -19.0140012  73.8422135  44.7054500 -18.6901509
  73.0170012  46.1044997 -12.9110012  72.8670012  45.1594997 -12.9320012
  72.6640012  46.3854997 -12.0680012  72.9486625  46.0130441 -12.7997654
  58.0530012  48.1824997  -8.9010012  58.2370012  48.1004997  -9.8370012
  58.9020012  48.0584997  -8.4770012  58.1930139  48.1545003  -8.9718545
  73.8740012  48.0744997  -3.2730012  74.4570012  47.3404997  -3.0810012
  74.4380012  48.8464997  -3.2260012  74.0299769  48.0784227  -3.2403841
  75.3700012  45.9774997  -2.5880012  74.5070012  45.5984997  -2.7540012
  75.9750012  45.2384997  -2.6620012  75.3335979  45.8258023  -2.6207183
  73.0950012  42.1324997 -19.4150012  73.7060012  41.7614997 -18.7780012
  72.2590012  41.7114997 -19.2190012  73.0655032  42.0247554 -19.3012965
  72.7280012  43.6874997 -14.4490012  73.0080012  42.7804997 -14.3250012
  73.4870012  44.1214997 -14.8380012  72.8689277  43.6220942 -14.4846318
  73.3400012  44.2684997  -9.0130012  74.2730012  44.4804997  -9.0470012
  73.1050012  44.3704997  -8.0910012  73.4358036  44.3112769  -8.8930024
  73.3690012  45.0054997  -6.2370012  72.5260012  45.2734997  -5.8710012
  73.8110012  45.8274997  -6.4480012  73.3134158  45.1533291  -6.2154509
  57.6500012  43.4534997  -2.7600012  58.5700012  43.3314997  -2.5240012
  57.2010012  42.7034997  -2.3710012  57.7151580  43.3353727  -2.6750994
  75.6520012  38.9854997  -0.8840012  76.0020012  38.3314997  -1.4890012
  75.7990012  39.8224997  -1.3230012  75.7198419  39.0091591  -1.0262882
  73.3410012  40.9504997 -14.4010012  73.5240012  40.5014997 -13.5750012
  72.7420012  40.3654997 -14.8640012  73.2850202  40.8099975 -14.3506725
  58.8710012  41.7654997  -9.8690012  59.3170012  40.9734997  -9.5670012
  59.3380012  42.4814997  -9.4380012  58.9950172  41.7540624  -9.7695180
  57.1750012  44.7644997  -8.8000012  57.6670012  44.5434997  -9.5910012
  57.5380012  45.6054997  -8.5190012  57.2913126  44.8478357  -8.8702469
  75.1720012  41.0944997  -2.5340012  74.2540012  41.3654997  -2.5700012
  75.2950012  40.5594997  -3.3190012  75.0631066  41.0592892  -2.6449513
  75.2080012  41.0174997 -17.8730012  75.6200012  40.2964997 -18.3480012
  75.8900012  41.6874997 -17.8140012  75.3565885  41.0092368 -17.9301085
  57.4890012  41.0224997 -14.7460012  56.5640012  41.2314997 -14.8750012
  57.9430012  41.5064997 -15.4350012  57.4237368  41.1165993 -14.8568774
  72.2600012  56.0064997 -12.8000012  72.9120012  55.6594997 -13.4080012
  72.7700012  56.4954997 -12.1540012  72.4182637  56.0250597 -12.7959764
  57.4530012  39.7604997  -6.4010012  56.7880012  39.5144997  -5.7580012
  57.0100012  40.3824997  -6.9790012  57.3020956  39.8108632  -6.3910648
  59.6450012  52.9354997  -2.2570012  58.8240012  53.1104997  -2.7170012
  59.3920012  52.8624997  -1.3360012  59.4986164  52.9495622  -2.1955077
  62.5990012  53.9104997  -5.9980012  62.1740012  54.7194997  -6.2810012
  63.5030012  53.9954997  -6.3000012  62.6630271  54.0328469  -6.0776224
  66.9100012  55.3094997  -3.0390012  67.0950012  54.9754997  -2.1610012
  67.7560012  55.6184997  -3.3610012  67.0497539  55.3056047  -2.9624395
  69.2550012  56.5954997  -3.7950012  69.9320012  55.9624997  -4.0350012
  69.5770012  56.9964997  -2.9880012  69.3911637  56.5631154  -3.7187207
  74.1720012  39.1844997  -4.7150012  73.3600012  39.5094997  -5.1030012
  74.4050012  38.4244997  -5.2480012  74.0923423  39.1262436  -4.8401747
  60.0010012  57.1664997  -5.9510012  59.2800012  57.6064997  -6.4020012
  59.6350012  56.9154997  -5.1020012  59.8529804  57.1927698  -5.8980160
  62.4680012  56.7664997  -6.9210012  61.6030012  56.8384997  -6.5170012
  62.4130012  57.3134997  -7.7050012  62.3422085  56.8502685  -6.9716638
  67.1780012  56.6544997  -7.7460012  66.7220012  57.1834997  -8.4000012
  67.3410012  57.2574997  -7.0200012  67.1375585  56.8084468  -7.7374938
  69.5060012  55.5324997  -6.8010012  68.6010012  55.6974997  -7.0660012
  69.9350012  56.3854997  -6.8660012  69.4400799  55.6704483  -6.8460818
  72.1100012  57.1024997  -6.5060012  71.9280012  58.0184997  -6.7160012
  72.2870012  56.6924997  -7.3520012  72.1090210  57.1724822  -6.6492115
  59.4150012  55.7894997  -9.0410012  59.3970012  55.3644997  -8.1830012
  60.2200012  55.4714997  -9.4490012  59.5213875  55.6883812  -8.9788345
  61.5570012  54.4994997 -10.3860012  61.3380012  53.5834997 -10.2160012
  62.3810012  54.6394997  -9.9200012  61.6384420  54.3930520 -10.2997226
  64.0940012  54.9694997  -9.5370012  64.3070012  54.0814997  -9.8240012
  64.1580012  54.9354997  -8.5830012  64.1318232  54.8433102  -9.4472603
  67.6020012  40.6334997 -10.3930012  66.9280012  40.0044997 -10.1370012
  68.1660012  40.1494997 -10.9960012  67.5859230  40.4818744 -10.4394660
  72.7450012  38.7414997 -10.2800012  73.3490012  39.2884997 -10.7820012
  71.8750012  39.0604997 -10.5200012  72.7101241  38.8595806 -10.3812346
  74.4720012  39.8794997 -11.9470012  75.0840012  39.3654997 -12.4730012
  74.8540012  40.7574997 -11.9230012  74.6074540  39.9277140 -12.0158170
  59.9290012  39.2674997 -12.5710012  59.1520012  39.0334997 -13.0780012
  60.4590012  38.4704997 -12.5620012  59.8942330  39.1276988 -12.6392258
  58.7650012  39.0654997 -16.7670012  59.2040012  39.6764997 -17.3590012
  58.1320012  39.6034997 -16.2930012  58.7394514  39.2219257 -16.7839070
  64.5080012  39.1944997 -12.7570012  65.3830012  39.5824997 -12.7870012
  64.3720012  38.9794997 -11.8350012  64.6093695  39.2185184 -12.6363560
  70.0650012  39.2244997 -11.1080012  70.1410012  39.3194997 -12.0580012
  69.7900012  38.3164997 -10.9790012  70.0382321  39.1147867 -11.2204921
  71.4180012  39.2504997 -15.4160012  70.7160012  39.8654997 -15.6250012
  70.9740012  38.4124997 -15.2850012  71.2616330  39.2215783 -15.4269672
  58.6660012  55.0134997 -15.8690012  57.9810012  54.9754997 -16.5370012
  58.6700012  55.9264997 -15.5810012  58.5728193  55.1317016 -15.9214716
  60.6260012  40.9814997 -18.3250012  61.1180012  40.3514997 -18.8520012
  61.2500012  41.2774997 -17.6610012  60.7775446  40.9353199 -18.3074020
  65.6520012  41.2744997 -15.8680012  65.8300012  40.6284997 -15.1850012
  65.5990012  42.1084997 -15.4000012  65.6691829  41.2987985 -15.7114060
  67.5310012  56.2234997 -17.4720012  68.3970012  56.5894997 -17.6500012
  67.2840012  55.7834997 -18.2860012  67.6162392  56.2141756 -17.6063711
  74.2400012  55.7864997 -14.7930012  74.0450012  55.0384997 -15.3580012
  74.2010012  56.5444997 -15.3760012  74.2080380  55.7866099 -14.9491616
  59.8870012  39.7814997  -3.0530012  59.5210012  39.0164997  -2.6100012
  60.8000012  39.8104997  -2.7660012  59.9602790  39.6807224  -2.9535930
  61.8600012  39.1324997  -1.5170012  62.7580012  38.8584997  -1.7020012
  61.4730012  38.3894997  -1.0530012  61.9306612  38.9945914  -1.4796357
  60.4840012  55.9334997 -18.8440012  60.2170012  56.2204997 -17.9710012
  61.2560012  55.3874997 -18.6920012  60.5517488  55.8990294 -18.7038950
  70.2810012  38.4644997  -1.3350012  70.3580012  38.0384997  -0.4810012
  71.1750012  38.4784997  -1.6780012  70.4123428  38.4080879  -1.2644690
  73.4570012  54.5374997  -2.6430012  72.6750012  54.3514997  -3.1620012
  73.3850012  55.4664997  -2.4250012  73.3401777  54.6376492  -2.6845952
  87.8630012  48.4234997 -12.6120012  87.9520012  49.3674997 -12.7440012
  87.2250012  48.1484997 -13.2700012  87.7889081  48.5154830 -12.7190386
  86.7960012  47.6784997  -9.1930012  86.7580012  47.0324997  -8.4880012
  86.4740012  47.2124997  -9.9640012  86.7472333  47.5269408  -9.2007022
  79.1650012  47.2934997  -7.6000012  79.2060012  46.6674997  -6.8770012
  79.8680012  47.9174997  -7.4180012  79.2656363  47.2921196  -7.4763956
  90.5020012  50.6174997 -10.8920012  90.0620012  49.8974997 -10.4410012
  90.4890012  51.3384997 -10.2620012  90.4400226  50.6163731 -10.7451506
  80.0880012  51.7434997  -9.0650012  79.7190012  50.9414997  -9.4350012
  81.0290012  51.5744997  -9.0190012  80.1647289  51.6110153  -9.1093684
  76.6980012  45.4034997 -13.6720012  76.2510012  46.2494997 -13.6910012
  76.1370012  44.8234997 -14.1880012  76.5609900  45.4409916 -13.7443199
  77.4090012  47.5654997 -11.5460012  77.6220012  46.7954997 -11.0190012
  78.1470012  47.6544997 -12.1500012  77.5378496  47.4721394 -11.5554700
  87.6140012  55.7224997 -10.6790012  88.2340012  55.0454997 -10.9530012
  87.4060012  55.5044997  -9.7710012  87.6706904  55.6003870 -10.5936635
  85.1860012  50.1114997  -8.7870012  85.4900012  49.4254997  -9.3820012
  85.9070012  50.2294997  -8.1690012  85.3250671  50.0336305  -8.7848184
  93.8490012  41.7124997  -7.9260012  93.8980012  42.3224997  -7.1900012
  94.2740012  42.1734997  -8.6490012  93.9131824  41.8583741  -7.9229795
  88.3270012  44.5054997  -8.4590012  88.4690012  43.5594997  -8.4390012
  88.2200012  44.7124997  -9.3880012  88.3319864  44.4039534  -8.5817661
  81.4810012  42.6064997 -11.1870012  81.5250012  43.4664997 -11.6050012
  81.0240012  42.0544997 -11.8210012  81.4252185  42.6495799 -11.3299701
  89.2040012  42.7374997 -12.7860012  89.8500012  42.4084997 -12.1610012
  89.7140012  43.2554997 -13.4090012  89.3614264  42.7624611 -12.7846138
  78.1020012  45.0034997 -10.4250012  78.7550012  44.4534997  -9.9930012
  78.1260012  44.7294997 -11.3420012  78.1946683  44.8911466 -10.4897877
  83.2580012  46.5534997 -11.2100012  83.8740012  46.0274997 -10.7000012
  82.6720012  45.9134997 -11.6130012  83.2630810  46.3949208 -11.1946827
  94.2400012  43.1904997  -5.6900012  93.5520012  43.8484997  -5.7860012
  94.2560012  42.9934997  -4.7540012  94.1478525  43.2540462  -5.5765192
  80.2920012  41.5244997  -7.1130012  80.0730012  42.0544997  -7.8790012
  79.6240012  41.7514997  -6.4660012  80.1717600  41.6276906  -7.1303621
  87.6610012  51.0244997 -13.5690012  87.3650012  50.7024997 -14.4200012
  87.3360012  51.9244997 -13.5280012  87.5766371  51.1020215 -13.6798199
  82.8610012  49.2004997  -6.8260012  82.1210012  49.7984997  -6.7220012
  83.5750012  49.7544997  -7.1410012  82.8562237  49.3572831  -6.8543535
  90.9680012  42.0284997 -10.8060012  90.7520012  41.2624997 -10.2730012
  91.6230012  42.5004997 -10.2930012  91.0270632  41.9875889 -10.6637139
  79.8850012  43.4164997  -9.1610012  80.4990012  44.0494997  -8.7870012
  80.3970012  42.9444997  -9.8170012  80.0382296  43.4392370  -9.1985748
  81.2680012  51.1644997  -6.0380012  81.2630012  52.0444997  -6.4160012
  80.4150012  51.0814997  -5.6130012  81.1519464  51.2736117  -6.0322093
  77.3890012  50.8354997 -15.2560012  77.1170012  51.0644997 -16.1450012
  77.4350012  51.6734997 -14.7960012  77.3580094  50.9801213 -15.3154303
  91.0140012  52.4574997  -8.5440012  90.0730012  52.5154997  -8.3820012
  91.2910012  53.3634997  -8.6810012  90.9224679  52.5879443  -8.5403185
  91.3150012  40.7434997  -7.1260012  90.5790012  41.3544997  -7.1640012
  91.9980012  41.1584997  -7.6530012  91.3066541  40.8831374  -7.2024168
  84.3180012  38.8304997  -9.6600012  84.2010012  37.8814997  -9.7150012
  83.4630012  39.1624997  -9.3870012  84.1863733  38.7455409  -9.6306103
  89.2660012  54.2384997 -11.9180012  89.6920012  53.5314997 -12.4030012
  89.5830012  55.0394997 -12.3350012  89.3671019  54.2500994 -12.0406870
  90.4260012  52.1394997 -13.4100012  90.1680012  51.4494997 -14.0210012
  90.4970012  51.6964997 -12.5640012  90.4002856  51.9852124 -13.3793115
  92.1120012  50.7054997  -4.9320012  92.2520012  50.1144997  -5.6720012
  92.2790012  51.5784997  -5.2890012  92.1536778  50.7426426  -5.0813035
  86.5850012  47.6674997 -15.1600012  85.8730012  48.2024997 -15.5120012
  87.2760012  47.7234997 -15.8200012  86.5810132  47.7482543 -15.2973711
  86.6380012  46.1254997 -18.1210012  87.3390012  46.1474997 -17.4700012
  86.9410012  45.4974997 -18.7770012  86.7747830  46.0436566 -18.1206289
  93.9540012  47.0454997  -6.8660012  93.3010012  47.7404997  -6.7770012
  94.4190012  47.2554997  -7.6760012  93.9275390  47.1689425  -6.9633117
  89.9900012  47.8774997 -14.2080012  89.2580012  48.1054997 -13.6350012
  90.4380012  47.1634997 -13.7530012  89.9503095  47.8122571 -14.0680881
  89.8880012  46.0514997  -5.1410012  89.9680012  46.8144997  -4.5690012
  89.2860012  46.3304997  -5.8310012  89.8175756  46.1937134  -5.1559411
  81.6360012  48.5074997 -12.3260012  81.3050012  48.1374997 -13.1440012
  82.2240012  47.8374997 -11.9790012  81.6701873  48.3661156 -12.3911898
  83.0020012  51.9354997  -9.6440012  82.9080012  51.3574997 -10.4010012
  83.7320012  51.5644997  -9.1480012  83.0877981  51.8062390  -9.6805835
  82.0020012  47.2764997  -8.6920012  82.5680012  47.3974997  -9.4550012
  82.3210012  47.9134997  -8.0530012  82.1225786  47.3791884  -8.7099960
  88.3110012  52.7794997  -7.9580012  88.0710012  53.4414997  -7.3100012
  88.1130012  51.9454997  -7.5330012  88.2513808  52.7573134  -7.8118476
  82.8820012  51.6754997  -3.9750012  82.5710012  52.4574997  -3.5200012
  82.2320012  51.5224997  -4.6610012  82.7515558  51.7619105  -4.0054129
  88.8610012  47.0394997 -16.5230012  89.4410012  47.1894997 -15.7760012
  89.2750012  47.5104997 -17.2460012  88.9962830  47.1236841 -16.5185866
  79.8020012  47.8734997  -4.7460012  79.8730012  48.5244997  -4.0480012
  78.9120012  47.9764997  -5.0810012  79.6913117  47.9765936  -4.6957300
  86.5880012  53.7764997 -13.0880012  87.0620012  54.0714997 -12.3100012
  86.0250012  54.5144997 -13.3210012  86.5767653  53.9166932 -13.0129864
  81.1220012  53.7474997  -3.2120012  81.1290012  53.6114997  -4.1590012
  80.2060012  53.6294997  -2.9600012  80.9991714  53.7129430  -3.3075334
  92.5600012  38.7894997 -16.7100012  91.6600012  38.9284997 -16.4150012
  92.8120012  39.6204997 -17.1120012  92.4708702  38.9209074 -16.7239795
  80.6260012  47.5774997 -14.7360012  80.3340012  48.3454997 -15.2270012
  79.9520012  46.9174997 -14.8990012  80.4949081  47.5934406 -14.8252660
  93.7490012  53.1554997 -18.3340012  93.8230012  54.0944997 -18.1630012
  94.6550012  52.8504997 -18.3900012  93.8815100  53.2426722 -18.3181881
  76.7190012  49.9404997  -5.9210012  76.2180012  49.9124997  -6.7360012
  76.7240012  49.0344997  -5.6120012  76.6511526  49.8142278  -5.9907128
  76.4690012  52.7204997  -9.0370012  77.4150012  52.5764997  -9.0560012
  76.3570012  53.5044997  -8.5000012  76.5832727  52.8068046  -8.9669928
  94.6670012  53.3864997  -3.3550012  94.6180012  52.4314997  -3.3920012
  93.8400012  53.6544997  -2.9540012  94.5484940  53.2918998  -3.3058625
  85.6460012  52.9604997  -4.4790012  85.7330012  53.7864997  -4.0040012
  84.7820012  52.6304997  -4.2300012  85.5411964  53.0289878  -4.3803451
  86.0600012  56.7324997 -14.6730012  85.9850012  56.6114997 -15.6190012
  86.0930012  57.6824997 -14.5540012  86.0541848  56.8442500 -14.7865166
  79.7130012  55.5214997 -12.8920012  79.8660012  55.1734997 -12.0130012
  78.8630012  55.1654997 -13.1470012  79.6188962  55.4256650 -12.8061660
  89.1620012  55.8864997 -17.6710012  89.5370012  55.1424997 -18.1410012
  89.1660012  55.6164997 -16.7520012  89.2138915  55.7481486 -17.6112176
  88.8310012  55.8124997 -14.9210012  87.8950012  55.9124997 -14.7430012
  89.1110012  55.1034997 -14.3430012  88.7408255  55.7302711 -14.8184609
  91.8190012  44.8794997  -2.8750012  91.4120012  45.3604997  -3.5960012
  91.8600012  43.9744997  -3.1830012  91.7688437  44.8229374  -3.0153317
  78.9680012  51.2634997  -4.8780012  79.1840012  50.9024997  -4.0190012
  78.1130012  50.8894997  -5.0880012  78.8819292  51.1634111  -4.7886614
  81.5870012  39.7334997  -8.8830012  80.7250012  39.6464997  -9.2900012
  81.5640012  40.5894997  -8.4550012  81.4660330  39.8372765  -8.8808137
  86.2500012  39.4554997  -5.5080012  86.6700012  39.0404997  -4.7550012
  85.3170012  39.2774997  -5.3910012  86.1813644  39.3745900  -5.3890461
  89.5760012  43.2114997  -4.6550012  89.0620012  43.0854997  -3.8570012
  89.4210012  44.1234997  -4.8990012  89.4846852  43.3176132  -4.5787842
  90.3390012  48.0724997 -18.8930012  90.3810012  47.8494997 -19.8230012
  91.1880012  48.4714997 -18.7030012  90.4595396  48.0959155 -18.9946373
  85.9110012  41.9484997 -18.2230012  85.6580012  41.9674997 -17.3000012
  85.6550012  41.0764997 -18.5240012  85.8417790  41.8332437 -18.1373737
  81.6780012  44.6994997  -7.7880012  81.0360012  44.6584997  -7.0790012
  81.7150012  45.6254997  -8.0250012  81.5951324  44.8191559  -7.7230176
  81.6750012  44.9204997 -12.8760012  80.7820012  44.5794997 -12.9340012
  82.1250012  44.5434997 -13.6310012  81.6137305  44.8228484 -12.9860823
  87.2100012  45.3364997 -14.0590012  86.8010012  46.1514997 -14.3500012
  87.9310012  45.1964997 -14.6730012  87.2514537  45.4292018 -14.1818658
  86.3120012  45.5114997  -2.5710012  85.7500012  44.8074997  -2.2500012
  87.1390012  45.3914997  -2.1030012  86.3467095  45.3987883  -2.4637670
  88.2150012  44.7824997 -11.2450012  88.0200012  45.3874997 -11.9600012
  88.3960012  43.9484997 -11.6790012  88.2127614  44.7526300 -11.4015595
  79.4280012  45.0194997  -5.9210012  79.3900012  45.4194997  -5.0520012
  78.9370012  44.2024997  -5.8300012  79.3564684  44.9638069  -5.7898941
  82.7940012  42.3934997 -19.1220012  82.3630012  41.9484997 -18.3920012
  82.0760012  42.7654997 -19.6340012  82.6379438  42.3828940 -19.0913201
  76.0360012  42.1354997 -12.0700012  76.6670012  42.1064997 -11.3510012
  76.4850012  41.7104997 -12.8000012  76.1830774  42.0740492 -12.0703447
  77.3100012  42.8814997 -16.6460012  77.7840012  43.4724997 -17.2310012
  76.5930012  43.4124997 -16.2990012  77.2779341  43.0340867 -16.6791164
  87.4790012  46.4204997  -6.5730012  87.8020012  45.7894997  -7.2160012
  87.0390012  45.8854997  -5.9130012  87.4636895  46.2618441  -6.5717150
  84.2560012  42.3474997 -11.7890012  83.3450012  42.4044997 -11.5010012
  84.7620012  42.2874997 -10.9790012  84.1995413  42.3471985 -11.6399378
  79.0850012  43.9764997 -12.9630012  78.1950012  44.0764997 -13.3030012
  79.3810012  43.1344997 -13.3090012  79.0032823  43.8763545 -13.0562787
  82.7380012  43.9764997 -15.3060012  83.6690012  44.1054997 -15.1280012
  82.5230012  44.6464997 -15.9560012  82.8364247  44.0846565 -15.3694253
  88.6610012  41.5824997  -8.5250012  87.9850012  41.7134997  -7.8610012
  88.1760012  41.4274997  -9.3350012  88.5027145  41.5794905  -8.5435483
  81.4120012  45.1714997 -17.7390012  80.8690012  44.7914997 -18.4310012
  82.2450012  45.3654997 -18.1680012  81.4504399  45.1458124 -17.8915474
  91.9490012  57.2544997  -2.2480012  92.1490012  57.6784997  -3.0830012
  92.6040012  57.5974997  -1.6410012  92.0650051  57.3589648  -2.2802164
  79.5470012  49.7284997  -2.6400012  80.2790012  49.9824997  -2.0790012
  78.7670012  49.9324997  -2.1250012  79.5418232  49.7909177  -2.4934240
  85.5760012  45.1354997  -9.9020012  86.1410012  44.5884997 -10.4490012
  85.4290012  44.6134997  -9.1140012  85.6332918  44.9902024  -9.8701546
  80.5780012  41.2714997 -13.4840012  80.2610012  40.3694997 -13.5190012
  81.3600012  41.2734997 -14.0370012  80.6402284  41.1481628 -13.5635217
  84.2030012  43.5234997  -7.4880012  83.3670012  43.9774997  -7.3780012
  84.7270012  43.7994997  -6.7360012  84.1594414  43.6229376  -7.3712864
  84.7470012  49.7364997 -15.8040012  84.0020012  49.2294997 -16.1260012
  84.6130012  49.7854997 -14.8570012  84.6268776  49.6736940 -15.7201353
  91.8970012  48.8694997  -7.0170012  92.5390012  49.3264997  -7.5610012
  91.0670012  48.9824997  -7.4800012  91.8725963  48.9472704  -7.1539823
  88.6450012  42.5504997 -17.6040012  87.7060012  42.6624997 -17.7560012
  88.9420012  43.4074997 -17.2980012  88.5567666  42.6816443 -17.5834232
  86.2660012  49.9204997  -4.5670012  85.9210012  49.5394997  -3.7600012
  86.0660012  50.8544997  -4.4950012  86.1918061  49.9945228  -4.4469039
  89.3630012  44.4174997 -15.9440012  90.2550012  44.2804997 -15.6250012
  89.4200012  45.2084997 -16.4800012  89.4926285  44.5056660 -15.9728309
  79.8720012  49.0314997 -10.0340012  80.6170012  49.0294997 -10.6350012
  79.9500012  48.2084997  -9.5520012  79.9845518  48.9199315 -10.0511071
  86.8730012  51.1954997 -16.7780012  86.5770012  52.0214997 -16.3970012
  86.1700012  50.5754997 -16.5820012  86.7374914  51.2248199 -16.6993557
  76.8800012  47.4924997  -4.7190012  77.1030012  47.0744997  -3.8870012
  76.2780012  46.8794997  -5.1420012  76.8291759  47.3524668  -4.6622978
  83.8960012  47.0094997  -2.5060012  83.6000012  46.8434997  -3.4010012
  84.8280012  46.7894997  -2.5170012  83.9814166  46.9570640  -2.6299464
  88.5170012  52.3824997  -4.6160012  87.6160012  52.5654997  -4.8840012
  88.5510012  52.6414997  -3.6950012  88.3983041  52.4425512  -4.5281803
  94.2480012  44.6274997 -16.2490012  93.6940012  44.2314997 -16.9210012
  94.3480012  45.5374997 -16.5270012  94.1857059  44.6963586 -16.3785599
  94.2110012  50.4274997  -3.4120012  93.3600012  50.6654997  -3.7790012
  94.8020012  50.4104997  -4.1650012  94.1742487  50.4578258  -3.5641107
  92.5430012  53.4134997 -15.7840012  92.1700012  52.5874997 -15.4750012
  92.8210012  53.2304997 -16.6810012  92.5295630  53.2757303 -15.8630374
  89.7040012  48.2214997  -8.7630012  88.7750012  47.9894997  -8.7900012
  90.1550012  47.4444997  -9.0930012  89.6379216  48.0847238  -8.8113083
  82.2470012  52.5494997 -12.6300012  82.7740012  53.3224997 -12.8300012
  81.3670012  52.7744997 -12.9310012  82.2001773  52.6858005 -12.6980990
  78.0020012  47.4114997 -18.0430012  78.6180012  48.0384997 -17.6630012
  77.1400012  47.7274997 -17.7710012  77.9697698  47.5399430 -17.9542817
  83.6740012  50.2124997 -13.0530012  83.4330012  51.1374997 -13.0120012
  82.9330012  49.7534997 -12.6570012  83.5408409  50.2771421 -12.9938623
  84.1890012  54.3614997  -6.7380012  84.5510012  55.2164997  -6.9720012
  84.7200012  54.0694997  -5.9980012  84.3104473  54.4391060  -6.6699145
  82.3570012  55.2344997 -13.5080012  81.4070012  55.3394997 -13.4570012
  82.7090012  56.0544997 -13.1630012  82.2744203  55.3598314 -13.4543350
  87.7330012  50.4604997  -7.0380012  87.3070012  50.2334997  -6.2110012
  88.3130012  49.7224997  -7.2200012  87.7531868  50.3295299  -6.9494170
  89.9360012  51.3894997 -17.9640012  90.2890012  51.0094997 -17.1590012
  88.9870012  51.2964997 -17.8770012  89.8560441  51.3249596 -17.8421441
  90.3910012  55.0124997  -4.5680012  89.7900012  54.4574997  -5.0640012
  90.6730012  55.6794997  -5.1940012  90.3468519  55.0266841  -4.7205048
  94.4390012  55.8694997 -17.7630012  95.1830012  56.4554997 -17.9030012
  93.7450012  56.4374997 -17.4290012  94.4470292  56.0265582 -17.7370039
  78.5140012  42.2454997  -5.1610012  77.6210012  42.5844997  -5.2290012
  78.4150012  41.3904997  -4.7430012  78.3784164  42.1762588  -5.1137765
  90.8020012  50.0624997 -15.7370012  90.5240012  49.3344997 -15.1810012
  91.7290012  50.1814997 -15.5320012  90.8893124  49.9788802 -15.6331155
  78.1650012  54.0504997  -6.7260012  78.3820012  53.1184997  -6.7570012
  78.4110012  54.3244997  -5.8430012  78.2279549  53.9600636  -6.6108237
  84.0270012  52.5014997 -19.5170012  84.2660012  51.7534997 -20.0640012
  83.7580012  52.1134997 -18.6840012  84.0233675  52.3466638 -19.4793135
  82.9640012  52.0714997 -17.0600012  83.1100012  51.5514997 -16.2700012
  82.9610012  52.9784997 -16.7540012  82.9835989  52.1228853 -16.9103912
  79.4170012  49.3244997 -16.5500012  78.7310012  49.6764997 -15.9830012
  79.9390012  50.0874997 -16.7970012  79.3936852  49.4758578 -16.5057882
  87.2480012  41.9864997  -6.2710012  87.9470012  42.0604997  -5.6210012
  86.8670012  41.1224997  -6.1170012  87.2921767  41.8797624  -6.1611678
  88.0330012  41.6384997 -15.1740012  88.2530012  42.1104997 -15.9770012
  88.5910012  42.0334997 -14.5040012  88.1384968  41.7564285 -15.1932669
  85.7010012  53.7694997 -16.3110012  84.8850012  54.2664997 -16.2590012
  86.2310012  54.2444997 -16.9510012  85.6609161  53.9017722 -16.3904044
  85.2330012  43.3664997 -14.3390012  86.0450012  43.8714997 -14.2930012
  84.9880012  43.2214997 -13.4250012  85.3110520  43.4160375 -14.2091483
  85.7680012  44.3524997  -5.1540012  85.8870012  44.9264997  -4.3970012
  86.4240012  43.6644997  -5.0400012  85.8729757  44.3381079  -5.0349175
  86.1160012  40.4474997 -13.4010012  85.7700012  41.0654997 -12.7560012
  86.7750012  40.9484997 -13.8820012  86.1577826  40.5995802 -13.3779029
  83.0400012  54.8134997 -16.3290012  83.2000012  55.6124997 -16.8300012
  82.8420012  55.1194997 -15.4440012  83.0351649  54.9644469 -16.2780185
  81.7740012  41.5104997 -16.7140012  81.6910012  42.3994997 -16.3670012
  82.6640012  41.2454997 -16.4820012  81.8829469  41.5961430 -16.6352374
  91.9730012  42.2594997  -4.3190012  91.0560012  42.5224997  -4.4070012
  92.3080012  42.2564997  -5.2160012  91.8929900  42.2950224  -4.4522081
  90.5750012  46.0104997 -10.2240012  89.7770012  45.5954997 -10.5520012
  91.0200012  45.3194997  -9.7330012  90.5259885  45.8603543 -10.2025111
  80.0330012  51.9384997 -17.6530012  80.6250012  52.6374997 -17.3770012
  80.4920012  51.5054997 -18.3730012  80.1761142  51.9757049 -17.7125170
  78.3490012  44.6024997 -18.5370012  78.3040012  45.5414997 -18.3590012
  77.4610012  44.3664997 -18.8070012  78.2228574  44.6991892 -18.5491088
  91.6610012  55.2664997  -8.6010012  91.5060012  55.9444997  -9.2580012
  92.5940012  55.3384997  -8.3980012  91.7658500  55.3690170  -8.6634881
  79.1570012  39.3844997  -9.8640012  78.9280012  39.4434997 -10.7920012
  78.7140012  38.5924997  -9.5580012  79.0658530  39.2855753  -9.9495214
  78.0870012  53.3244997 -13.7040012  77.2550012  53.7974997 -13.6760012
  78.6330012  53.8344997 -14.3020012  78.0469739  53.4581871 -13.7810284
  77.3750012  55.9374997  -2.3740012  77.9160012  55.7204997  -1.6140012
  76.8940012  55.1314997  -2.5630012  77.3839345  55.7989514  -2.2956924
  81.9730012  54.8564997  -0.7530012  82.7400012  54.3974997  -0.4120012
  81.9510012  54.6304997  -1.6830012  82.0751434  54.7630409  -0.8319957
  86.0650012  54.3644997 -19.3780012  85.4210012  53.7334997 -19.0570012
  86.8270012  53.8334997 -19.6100012  86.0798077  54.2062920 -19.3653989
  88.5500012  53.2364997  -2.0240012  88.1990012  52.3804997  -1.7810012
  89.2760012  53.3794997  -1.4170012  88.6000769  53.1385636  -1.9086381
  90.6690012  54.1814997 -19.1440012  90.9520012  53.3874997 -18.6920012
  91.4090012  54.4144997 -19.7050012  90.8077486  54.1042803 -19.1579302
  77.2820012  49.7474997  -1.4190012  77.4260012  48.8454997  -1.7060012
  76.5100012  50.0334997  -1.9070012  77.1973322  49.6628261  -1.5242119
  81.6240012  50.0914997 -19.2870012  81.6880012  49.2974997 -18.7560012
  82.2770012  49.9724997 -19.9770012  81.7210241  49.9667148 -19.3075683
  83.9380012  49.7174997  -1.9870012  83.6090012  49.9884997  -2.8440012
  84.0900012  48.7764997  -2.0740012  83.9134809  49.6273862  -2.1161756
  89.6720012  49.6334997  -4.6030012  90.4180012  50.2214997  -4.7230012
  88.9150012  50.2154997  -4.5400012  89.6717554  49.7927011  -4.6109093
  78.1150012  46.9474997  -1.9990012  78.5230012  46.0904997  -2.1200012
  77.8550012  46.9624997  -1.0780012  78.1357568  46.8320807  -1.8910412
  82.7730012  48.0634997 -16.9810012  82.3130012  47.5794997 -16.2950012
  83.0280012  47.3954997 -17.6170012  82.7444902  47.9068731 -16.9730666
  82.0620012  45.9564997  -4.6250012  81.4440012  46.6314997  -4.3450012
  82.4060012  46.2774997  -5.4580012  82.0239615  46.0922721  -4.6993419
  83.8440012  46.3064997 -18.7190012  83.6640012  46.1524997 -19.6460012
  84.7940012  46.4144997 -18.6740012  83.9477776  46.3000175 -18.8398157
  87.0820012  48.4284997  -1.3480012  88.0350012  48.5114997  -1.3750012
  86.9210012  47.7164997  -0.7280012  87.1906426  48.3436746  -1.2679421
  93.2340012  48.6614997 -19.2730012  92.9600012  48.2364997 -20.0860012
  93.2730012  49.5924997 -19.4900012  93.2017699  48.7292484 -19.4136390
  82.4010012  43.3114997  -3.5430012  82.5510012  42.5824997  -4.1450012
  82.4040012  44.0884997  -4.1020012  82.4219302  43.3167851  -3.7009308
  82.8140012  41.6814997  -6.0500012  83.3500012  42.1324997  -6.7020012
  81.9620012  41.5734997  -6.4730012  82.7722178  41.7286390  -6.1964244
  84.3960012  47.1204997  -5.8110012  85.1460012  46.9644997  -6.3840012
  84.0570012  47.9724997  -6.0860012  84.4528921  47.2142968  -5.9266439
  88.8110012  44.9354997  -0.7820012  89.0040012  44.0044997  -0.8940012
  89.6690012  45.3604997  -0.7920012  88.9533020  44.8656389  -0.7986639
  90.1280012  47.7244997  -2.7050012  89.8470012  48.4334997  -3.2820012
  91.0710012  47.6514997  -2.8560012  90.2169027  47.8117646  -2.8044449
  80.8800012  44.5094997  -1.6310012  80.1130012  43.9774997  -1.8410012
  81.5590012  44.1994997  -2.2310012  80.8667022  44.3947506  -1.7408352
  83.6200012  39.1374997  -5.6190012  83.5210012  40.0844997  -5.7240012
  82.8770012  38.7654997  -6.0940012  83.5060564  39.2165902  -5.6975440
  84.8840012  43.4594997  -2.0550012  84.6480012  43.2394997  -1.1530012
  84.1000012  43.2524997  -2.5650012  84.7458628  43.4014760  -2.0006068
  87.5990012  42.5864997  -2.9790012  86.6520012  42.6184997  -2.8470012
  87.9120012  41.9614997  -2.3260012  87.5115475  42.5063207  -2.8725545
  89.2330012  41.2204997  -0.9740012  89.1370012  40.2684997  -0.9800012
  88.9120012  41.4894997  -0.1140012  89.1764070  41.1264035  -0.8584559
  79.0600012  42.4304997  -1.9270012  79.2720012  41.7234997  -2.5370012
  78.9490012  41.9924997  -1.0830012  79.0739721  42.2747084  -1.8963157
  83.8410012  38.4314997  -2.9470012  84.5530012  37.7914997  -2.9610012
  83.7400012  38.6984997  -3.8610012  83.9247939  38.3799938  -3.0724350
  84.1950012  40.1144997  -0.8940012  84.0630012  39.6384997  -1.7140012
  83.5960012  40.8584997  -0.9490012  84.0959071  40.1499618  -1.0137114
  83.7410012  56.9974997 -17.7170012  84.6740012  57.1554997 -17.5740012
  83.4770012  57.6724997 -18.3420012  83.8329510  57.1103611 -17.7819259
  77.3100012  51.6334997 -18.2350012  78.2240012  51.7124997 -17.9610012
  77.3170012  50.9464997 -18.9010012  77.4361131  51.5513961 -18.2875607
  75.9590012  57.0264997 -13.1570012  75.3120012  56.5644997 -13.6900012
  76.3130012  56.3544997 -12.5750012  75.9183849  56.8724723 -13.1512041
  76.8290012  55.1074997 -11.3530012  76.4940012  54.2274997 -11.1810012
  77.0510012  55.4524997 -10.4880012  76.8131783  55.0337500 -11.2125792
  94.3770012  55.9164997  -8.3720012  94.3560012  56.1014997  -7.4330012
  95.0680012  56.4854997  -8.7130012  94.4674618  56.0186606  -8.2896136
  93.9410012  55.4844997  -5.4500012  93.4530012  54.7484997  -5.8210012
  94.4900012  55.0904997  -4.7720012  93.9484872  55.3306249  -5.4090840
  92.3910012  51.2734997  -0.8120012  91.5250012  51.1684997  -0.4180012
  92.7680012  52.0324997  -0.3660012  92.3233308  51.3616900  -0.6977607
  93.6920012  49.5304997 -15.2980012  94.5420012  49.9514997 -15.1710012
  93.6980012  48.7904997 -14.6910012  93.8091372  49.4880803 -15.1985656
  94.0870012  47.5834997 -13.4740012  93.3600012  47.1044997 -13.0770012
  94.6680012  47.7894997 -12.7420012  94.0659375  47.5457090 -13.3205871
  93.8460012  50.3684997  -8.5270012  94.6790012  49.9904997  -8.8070012
  93.9580012  51.3114997  -8.6460012  93.9752647  50.4442218  -8.5814513
  92.3320012  53.2464997  -6.2200012  91.6850012  53.5714997  -5.5940012
  91.8150012  52.8064997  -6.8940012  92.1734029  53.2315004  -6.2254173
  94.3550012  47.4844997 -17.0830012  93.8330012  47.8414997 -17.8020012
  94.3220012  48.1594997 -16.4050012  94.2791634  47.6245413 -17.0896855
  92.7040012  44.7244997 -18.5320012  92.8000012  45.3914997 -19.2130012
  92.5640012  43.9084997 -19.0140012  92.6982135  44.7054500 -18.6901509
  91.8730012  46.1044997 -12.9110012  91.7230012  45.1594997 -12.9320012
  91.5200012  46.3854997 -12.0680012  91.8046625  46.0130441 -12.7997654
  76.9090012  48.1824997  -8.9010012  77.0930012  48.1004997  -9.8370012
  77.7580012  48.0584997  -8.4770012  77.0490139  48.1545003  -8.9718545
  92.7300012  48.0744997  -3.2730012  93.3130012  47.3404997  -3.0810012
  93.2940012  48.8464997  -3.2260012  92.8859769  48.0784227  -3.2403841
  94.2260012  45.9774997  -2.5880012  93.3630012  45.5984997  -2.7540012
  94.8310012  45.2384997  -2.6620012  94.1895979  45.8258023  -2.6207183
  91.9510012  42.1324997 -19.4150012  92.5620012  41.7614997 -18.7780012
  91.1150012  41.7114997 -19.2190012  91.9215032  42.0247554 -19.3012965
  91.5840012  43.6874997 -14.4490012  91.8640012  42.7804997 -14.3250012
  92.3430012  44.1214997 -14.8380012  91.7249277  43.6220942 -14.4846318
  92.1960012  44.2684997  -9.0130012  93.1290012  44.4804997  -9.0470012
  91.9610012  44.3704997  -8.0910012  92.2918036  44.3112769  -8.8930024
  92.2250012  45.0054997  -6.2370012  91.3820012  45.2734997  -5.8710012
  92.6670012  45.8274997  -6.4480012  92.1694158  45.1533291  -6.2154509
  76.5060012  43.4534997  -2.7600012  77.4260012  43.3314997  -2.5240012
  76.0570012  42.7034997  -2.3710012  76.5711580  43.3353727  -2.6750994
  94.5080012  38.9854997  -0.8840012  94.8580012  38.3314997  -1.4890012
  94.6550012  39.8224997  -1.3230012  94.5758419  39.0091591  -1.0262882
  92.1970012  40.9504997 -14.4010012  92.3800012  40.5014997 -13.5750012
  91.5980012  40.3654997 -14.8640012  92.1410202  40.8099975 -14.3506725
  77.7270012  41.7654997  -9.8690012  78.1730012  40.9734997  -9.5670012
  78.1940012  42.4814997  -9.4380012  77.8510172  41.7540624  -9.7695180
  76.0310012  44.7644997  -8.8000012  76.5230012  44.5434997  -9.5910012
  76.3940012  45.6054997  -8.5190012  76.1473126  44.8478357  -8.8702469
  94.0280012  41.0944997  -2.5340012  93.1100012  41.3654997  -2.5700012
  94.1510012  40.5594997  -3.3190012  93.9191066  41.0592892  -2.6449513
  94.0640012  41.0174997 -17.8730012  94.4760012  40.2964997 -18.3480012
  94.7460012  41.6874997 -17.8140012  94.2125885  41.0092368 -17.9301085
  76.3450012  41.0224997 -14.7460012  75.4200012  41.2314997 -14.8750012
  76.7990012  41.5064997 -15.4350012  76.2797368  41.1165993 -14.8568774
  91.1160012  56.0064997 -12.8000012  91.7680012  55.6594997 -13.4080012
  91.6260012  56.4954997 -12.1540012  91.2742637  56.0250597 -12.7959764
  76.3090012  39.7604997  -6.4010012  75.6440012  39.5144997  -5.7580012
  75.8660012  40.3824997  -6.9790012  76.1580956  39.8108632  -6.3910648
  78.5010012  52.9354997  -2.2570012  77.6800012  53.1104997  -2.7170012
  78.2480012  52.8624997  -1.3360012  78.3546164  52.9495622  -2.1955077
  81.4550012  53.9104997  -5.9980012  81.0300012  54.7194997  -6.2810012
  82.3590012  53.9954997  -6.3000012  81.5190271  54.0328469  -6.0776224
  85.7660012  55.3094997  -3.0390012  85.9510012  54.9754997  -2.1610012
  86.6120012  55.6184997  -3.3610012  85.9057539  55.3056047  -2.9624395
  88.1110012  56.5954997  -3.7950012  88.7880012  55.9624997  -4.0350012
  88.4330012  56.9964997  -2.9880012  88.2471637  56.5631154  -3.7187207
  93.0280012  39.1844997  -4.7150012  92.2160012  39.5094997  -5.1030012
  93.2610012  38.4244997  -5.2480012  92.9483423  39.1262436  -4.8401747
  78.8570012  57.1664997  -5.9510012  78.1360012  57.6064997  -6.4020012
  78.4910012  56.9154997  -5.1020012  78.7089804  57.1927698  -5.8980160
  81.3240012  56.7664997  -6.9210012  80.4590012  56.8384997  -6.5170012
  81.2690012  57.3134997  -7.7050012  81.1982085  56.8502685  -6.9716638
  86.0340012  56.6544997  -7.7460012  85.5780012  57.1834997  -8.4000012
  86.1970012  57.2574997  -7.0200012  85.9935585  56.8084468  -7.7374938
  88.3620012  55.5324997  -6.8010012  87.4570012  55.6974997  -7.0660012
  88.7910012  56.3854997  -6.8660012  88.2960799  55.6704483  -6.8460818
  90.9660012  57.1024997  -6.5060012  90.7840012  58.0184997  -6.7160012
  91.1430012  56.6924997  -7.3520012  90.9650210  57.1724822  -6.6492115
  78.2710012  55.7894997  -9.0410012  78.2530012  55.3644997  -8.1830012
  79.0760012  55.4714997  -9.4490012  78.3773875  55.6883812  -8.9788345
  80.4130012  54.4994997 -10.3860012  80.1940012  53.5834997 -10.2160012
  81.2370012  54.6394997  -9.9200012  80.4944420  54.3930520 -10.2997226
  82.9500012  54.9694997  -9.5370012  83.1630012  54.0814997  -9.8240012
  83.0140012  54.9354997  -8.5830012  82.9878232  54.8433102  -9.4472603
  86.4580012  40.6334997 -10.3930012  85.7840012  40.0044997 -10.1370012
  87.0220012  40.1494997 -10.9960012  86.4419230  40.4818744 -10.4394660
  91.6010012  38.7414997 -10.2800012  92.2050012  39.2884997 -10.7820012
  90.7310012  39.0604997 -10.5200012  91.5661241  38.8595806 -10.3812346
  93.3280012  39.8794997 -11.9470012  93.9400012  39.3654997 -12.4730012
  93.7100012  40.7574997 -11.9230012  93.4634540  39.9277140 -12.0158170
  78.7850012  39.2674997 -12.5710012  78.0080012  39.0334997 -13.0780012
  79.3150012  38.4704997 -12.5620012  78.7502330  39.1276988 -12.6392258
  77.6210012  39.0654997 -16.7670012  78.0600012  39.6764997 -17.3590012
  76.9880012  39.6034997 -16.2930012  77.5954514  39.2219257 -16.7839070
  83.3640012  39.1944997 -12.7570012  84.2390012  39.5824997 -12.7870012
  83.2280012  38.9794997 -11.8350012  83.4653695  39.2185184 -12.6363560
  88.9210012  39.2244997 -11.1080012  88.9970012  39.3194997 -12.0580012
  88.6460012  38.3164997 -10.9790012  88.8942321  39.1147867 -11.2204921
  90.2740012  39.2504997 -15.4160012  89.5720012  39.8654997 -15.6250012
  89.8300012  38.4124997 -15.2850012  90.1176330  39.2215783 -15.4269672
  77.5220012  55.0134997 -15.8690012  76.8370012  54.9754997 -16.5370012
  77.5260012  55.9264997 -15.5810012  77.4288193  55.1317016 -15.9214716
  79.4820012  40.9814997 -18.3250012  79.9740012  40.3514997 -18.8520012
  80.1060012  41.2774997 -17.6610012  79.6335446  40.9353199 -18.3074020
  84.5080012  41.2744997 -15.8680012  84.6860012  40.6284997 -15.1850012
  84.4550012  42.1084997 -15.4000012  84.5251829  41.2987985 -15.7114060
  86.3870012  56.2234997 -17.4720012  87.2530012  56.5894997 -17.6500012
  86.1400012  55.7834997 -18.2860012  86.4722392  56.2141756 -17.6063711
  93.0960012  55.7864997 -14.7930012  92.9010012  55.0384997 -15.3580012
  93.0570012  56.5444997 -15.3760012  93.0640380  55.7866099 -14.9491616
  78.7430012  39.7814997  -3.0530012  78.3770012  39.0164997  -2.6100012
  79.6560012  39.8104997  -2.7660012  78.8162790  39.6807224  -2.9535930
  80.7160012  39.1324997  -1.5170012  81.6140012  38.8584997  -1.7020012
  80.3290012  38.3894997  -1.0530012  80.7866612  38.9945914  -1.4796357
  79.3400012  55.9334997 -18.8440012  79.0730012  56.2204997 -17.9710012
  80.1120012  55.3874997 -18.6920012  79.4077488  55.8990294 -18.7038950
  89.1370012  38.4644997  -1.3350012  89.2140012  38.0384997  -0.4810012
  90.0310012  38.4784997  -1.6780012  89.2683428  38.4080879  -1.2644690
  92.3130012  54.5374997  -2.6430012  91.5310012  54.3514997  -3.1620012
  92.2410012  55.4664997  -2.4250012  92.1961777  54.6376492  -2.6845952
 106.7190012  48.4234997 -12.6120012 106.8080012  49.3674997 -12.7440012
 106.0810012  48.1484997 -13.2700012 106.6449081  48.5154830 -12.7190386
 105.6520012  47.6784997  -9.1930012 105.6140012  47.0324997  -8.4880012
 105.3300012  47.2124997  -9.9640012 105.6032333  47.5269408  -9.2007022
  98.0210012  47.2934997  -7.6000012  98.0620012  46.6674997  -6.8770012
  98.7240012  47.9174997  -7.4180012  98.1216363  47.2921196  -7.4763956
 109.3580012  50.6174997 -10.8920012 108.9180012  49.8974997 -10.4410012
 109.3450012  51.3384997 -10.2620012 109.2960226  50.6163731 -10.7451506
  98.9440012  51.7434997  -9.0650012  98.5750012  50.9414997  -9.4350012
  99.8850012  51.5744997  -9.0190012  99.0207289  51.6110153  -9.1093684
  95.5540012  45.4034997 -13.6720012  95.1070012  46.2494997 -13.6910012
  94.9930012  44.8234997 -14.1880012  95.4169900  45.4409916 -13.7443199
  96.2650012  47.5654997 -11.5460012  96.4780012  46.7954997 -11.0190012
  97.0030012  47.6544997 -12.1500012  96.3938496  47.4721394 -11.5554700
 106.4700012  55.7224997 -10.6790012 107.0900012  55.0454997 -10.9530012
 106.2620012  55.5044997  -9.7710012 106.5266904  55.6003870 -10.5936635
 104.0420012  50.1114997  -8.7870012 104.3460012  49.4254997  -9.3820012
 104.7630012  50.2294997  -8.1690012 104.1810671  50.0336305  -8.7848184
 112.7050012  41.7124997  -7.9260012 112.7540012  42.3224997  -7.1900012
 113.1300012  42.1734997  -8.6490012 112.7691824  41.8583741  -7.9229795
 107.1830012  44.5054997  -8.4590012 107.3250012  43.5594997  -8.4390012
 107.0760012  44.7124997  -9.3880012 107.1879864  44.4039534  -8.5817661
 100.3370012  42.6064997 -11.1870012 100.3810012  43.4664997 -11.6050012
  99.8800012  42.0544997 -11.8210012 100.2812185  42.6495799 -11.3299701
 108.0600012  42.7374997 -12.7860012 108.7060012  42.4084997 -12.1610012
 108.5700012  43.2554997 -13.4090012 108.2174264  42.7624611 -12.7846138
  96.9580012  45.0034997 -10.4250012  97.6110012  44.4534997  -9.9930012
  96.9820012  44.7294997 -11.3420012  97.0506683  44.8911466 -10.4897877
 102.1140012  46.5534997 -11.2100012 102.7300012  46.0274997 -10.7000012
 101.5280012  45.9134997 -11.6130012 102.1190810  46.3949208 -11.1946827
 113.0960012  43.1904997  -5.6900012 112.4080012  43.8484997  -5.7860012
 113.1120012  42.9934997  -4.7540012 113.0038525  43.2540462  -5.5765192
  99.1480012  41.5244997  -7.1130012  98.9290012  42.0544997  -7.8790012
  98.4800012  41.7514997  -6.4660012  99.0277600  41.6276906  -7.1303621
 106.5170012  51.0244997 -13.5690012 106.2210012  50.7024997 -14.4200012
 106.1920012  51.9244997 -13.5280012 106.4326371  51.1020215 -13.6798199
 101.7170012  49.2004997  -6.8260012 100.9770012  49.7984997  -6.7220012
 102.4310012  49.7544997  -7.1410012 101.7122237  49.3572831  -6.8543535
 109.8240012  42.0284997 -10.8060012 109.6080012  41.2624997 -10.2730012
 110.4790012  42.5004997 -10.2930012 109.8830632  41.9875889 -10.6637139
  98.7410012  43.4164997  -9.1610012  99.3550012  44.0494997  -8.7870012
  99.2530012  42.9444997  -9.8170012  98.8942296  43.4392370  -9.1985748
 100.1240012  51.1644997  -6.0380012 100.1190012  52.0444997  -6.4160012
  99.2710012  51.0814997  -5.6130012 100.0079464  51.2736117  -6.0322093
  96.2450012  50.8354997 -15.2560012  95.9730012  51.0644997 -16.1450012
  96.2910012  51.6734997 -14.7960012  96.2140094  50.9801213 -15.3154303
 109.8700012  52.4574997  -8.5440012 108.9290012  52.5154997  -8.3820012
 110.1470012  53.3634997  -8.6810012 109.7784679  52.5879443  -8.5403185
 110.1710012  40.7434997  -7.1260012 109.4350012  41.3544997  -7.1640012
 110.8540012  41.1584997  -7.6530012 110.1626541  40.8831374  -7.2024168
 103.1740012  38.8304997  -9.6600012 103.0570012  37.8814997  -9.7150012
 102.3190012  39.1624997  -9.3870012 103.0423733  38.7455409  -9.6306103
 108.1220012  54.2384997 -11.9180012 108.5480012  53.5314997 -12.4030012
 108.4390012  55.0394997 -12.3350012 108.2231019  54.2500994 -12.0406870
 109.2820012  52.1394997 -13.4100012 109.0240012  51.4494997 -14.0210012
 109.3530012  51.6964997 -12.5640012 109.2562856  51.9852124 -13.3793115
 110.9680012  50.7054997  -4.9320012 111.1080012  50.1144997  -5.6720012
 111.1350012  51.5784997  -5.2890012 111.0096778  50.7426426  -5.0813035
 105.4410012  47.6674997 -15.1600012 104.7290012  48.2024997 -15.5120012
 106.1320012  47.7234997 -15.8200012 105.4370132  47.7482543 -15.2973711
 105.4940012  46.1254997 -18.1210012 106.1950012  46.1474997 -17.4700012
 105.7970012  45.4974997 -18.7770012 105.6307830  46.0436566 -18.1206289
 112.8100012  47.0454997  -6.8660012 112.1570012  47.7404997  -6.7770012
 113.2750012  47.2554997  -7.6760012 112.7835390  47.1689425  -6.9633117
 108.8460012  47.8774997 -14.2080012 108.1140012  48.1054997 -13.6350012
 109.2940012  47.1634997 -13.7530012 108.8063095  47.8122571 -14.0680881
 108.7440012  46.0514997  -5.1410012 108.8240012  46.8144997  -4.5690012
 108.1420012  46.3304997  -5.8310012 108.6735756  46.1937134  -5.1559411
 100.4920012  48.5074997 -12.3260012 100.1610012  48.1374997 -13.1440012
 101.0800012  47.8374997 -11.9790012 100.5261873  48.3661156 -12.3911898
 101.8580012  51.9354997  -9.6440012 101.7640012  51.3574997 -10.4010012
 102.5880012  51.5644997  -9.1480012 101.9437981  51.8062390  -9.6805835
 100.8580012  47.2764997  -8.6920012 101.4240012  47.3974997  -9.4550012
 101.1770012  47.9134997  -8.0530012 100.9785786  47.3791884  -8.7099960
 107.1670012  52.7794997  -7.9580012 106.9270012  53.4414997  -7.3100012
 106.9690012  51.9454997  -7.5330012 107.1073808  52.7573134  -7.8118476
 101.7380012  51.6754997  -3.9750012 101.4270012  52.4574997  -3.5200012
 101.0880012  51.5224997  -4.6610012 101.6075558  51.7619105  -4.0054129
 107.7170012  47.0394997 -16.5230012 108.2970012  47.1894997 -15.7760012
 108.1310012  47.5104997 -17.2460012 107.8522831  47.1236841 -16.5185866
  98.6580012  47.8734997  -4.7460012  98.7290012  48.5244997  -4.0480012
  97.7680012  47.9764997  -5.0810012  98.5473117  47.9765936  -4.6957300
 105.4440012  53.7764997 -13.0880012 105.9180012  54.0714997 -12.3100012
 104.8810012  54.5144997 -13.3210012 105.4327653  53.9166932 -13.0129864
  99.9780012  53.7474997  -3.2120012  99.9850012  53.6114997  -4.1590012
  99.0620012  53.6294997  -2.9600012  99.8551714  53.7129430  -3.3075334
 111.4160012  38.7894997 -16.7100012 110.5160012  38.9284997 -16.4150012
 111.6680012  39.6204997 -17.1120012 111.3268702  38.9209074 -16.7239795
  99.4820012  47.5774997 -14.7360012  99.1900012  48.3454997 -15.2270012
  98.8080012  46.9174997 -14.8990012  99.3509081  47.5934406 -14.8252660
 112.6050012  53.1554997 -18.3340012 112.6790012  54.0944997 -18.1630012
 113.5110012  52.8504997 -18.3900012 112.7375100  53.2426722 -18.3181881
  95.5750012  49.9404997  -5.9210012  95.0740012  49.9124997  -6.7360012
  95.5800012  49.0344997  -5.6120012  95.5071526  49.8142278  -5.9907128
  95.3250012  52.7204997  -9.0370012  96.2710012  52.5764997  -9.0560012
  95.2130012  53.5044997  -8.5000012  95.4392727  52.8068046  -8.9669928
 113.5230012  53.3864997  -3.3550012 113.4740012  52.4314997  -3.3920012
 112.6960012  53.6544997  -2.9540012 113.4044940  53.2918998  -3.3058625
 104.5020012  52.9604997  -4.4790012 104.5890012  53.7864997  -4.0040012
 103.6380012  52.6304997  -4.2300012 104.3971964  53.0289878  -4.3803451
 104.9160012  56.7324997 -14.6730012 104.8410012  56.6114997 -15.6190012
 104.9490012  57.6824997 -14.5540012 104.9101848  56.8442500 -14.7865166
  98.5690012  55.5214997 -12.8920012  98.7220012  55.1734997 -12.0130012
  97.7190012  55.1654997 -13.1470012  98.4748962  55.4256650 -12.8061660
 108.0180012  55.8864997 -17.6710012 108.3930012  55.1424997 -18.1410012
 108.0220012  55.6164997 -16.7520012 108.0698915  55.7481486 -17.6112176
 107.6870012  55.8124997 -14.9210012 106.7510012  55.9124997 -14.7430012
 107.9670012  55.1034997 -14.3430012 107.5968255  55.7302711 -14.8184609
 110.6750012  44.8794997  -2.8750012 110.2680012  45.3604997  -3.5960012
 110.7160012  43.9744997  -3.1830012 110.6248437  44.8229374  -3.0153317
  97.8240012  51.2634997  -4.8780012  98.0400012  50.9024997  -4.0190012
  96.9690012  50.8894997  -5.0880012  97.7379292  51.1634111  -4.7886614
 100.4430012  39.7334997  -8.8830012  99.5810012  39.6464997  -9.2900012
 100.4200012  40.5894997  -8.4550012 100.3220330  39.8372765  -8.8808137
 105.1060012  39.4554997  -5.5080012 105.5260012  39.0404997  -4.7550012
 104.1730012  39.2774997  -5.3910012 105.0373644  39.3745900  -5.3890461
 108.4320012  43.2114997  -4.6550012 107.9180012  43.0854997  -3.8570012
 108.2770012  44.1234997  -4.8990012 108.3406852  43.3176132  -4.5787842
 109.1950012  48.0724997 -18.8930012 109.2370012  47.8494997 -19.8230012
 110.0440012  48.4714997 -18.7030012 109.3155396  48.0959155 -18.9946373
 104.7670012  41.9484997 -18.2230012 104.5140012  41.9674997 -17.3000012
 104.5110012  41.0764997 -18.5240012 104.6977790  41.8332437 -18.1373737
 100.5340012  44.6994997  -7.7880012  99.8920012  44.6584997  -7.0790012
 100.5710012  45.6254997  -8.0250012 100.4511324  44.8191559  -7.7230176
 100.5310012  44.9204997 -12.8760012  99.6380012  44.5794997 -12.9340012
 100.9810012  44.5434997 -13.6310012 100.4697305  44.8228484 -12.9860823
 106.0660012  45.3364997 -14.0590012 105.6570012  46.1514997 -14.3500012
 106.7870012  45.1964997 -14.6730012 106.1074537  45.4292018 -14.1818658
 105.1680012  45.5114997  -2.5710012 104.6060012  44.8074997  -2.2500012
 105.9950012  45.3914997  -2.1030012 105.2027095  45.3987883  -2.4637670
 107.0710012  44.7824997 -11.2450012 106.8760012  45.3874997 -11.9600012
 107.2520012  43.9484997 -11.6790012 107.0687614  44.7526300 -11.4015595
  98.2840012  45.0194997  -5.9210012  98.2460012  45.4194997  -5.0520012
  97.7930012  44.2024997  -5.8300012  98.2124684  44.9638069  -5.7898941
 101.6500012  42.3934997 -19.1220012 101.2190012  41.9484997 -18.3920012
 100.9320012  42.7654997 -19.6340012 101.4939438  42.3828940 -19.0913201
  94.8920012  42.1354997 -12.0700012  95.5230012  42.1064997 -11.3510012
  95.3410012  41.7104997 -12.8000012  95.0390774  42.0740492 -12.0703447
  96.1660012  42.8814997 -16.6460012  96.6400012  43.4724997 -17.2310012
  95.4490012  43.4124997 -16.2990012  96.1339341  43.0340867 -16.6791164
 106.3350012  46.4204997  -6.5730012 106.6580012  45.7894997  -7.2160012
 105.8950012  45.8854997  -5.9130012 106.3196895  46.2618441  -6.5717150
 103.1120012  42.3474997 -11.7890012 102.2010012  42.4044997 -11.5010012
 103.6180012  42.2874997 -10.9790012 103.0555413  42.3471985 -11.6399378
  97.9410012  43.9764997 -12.9630012  97.0510012  44.0764997 -13.3030012
  98.2370012  43.1344997 -13.3090012  97.8592823  43.8763545 -13.0562787
 101.5940012  43.9764997 -15.3060012 102.5250012  44.1054997 -15.1280012
 101.3790012  44.6464997 -15.9560012 101.6924247  44.0846565 -15.3694253
 107.5170012  41.5824997  -8.5250012 106.8410012  41.7134997  -7.8610012
 107.0320012  41.4274997  -9.3350012 107.3587145  41.5794905  -8.5435483
 100.2680012  45.1714997 -17.7390012  99.7250012  44.7914997 -18.4310012
 101.1010012  45.3654997 -18.1680012 100.3064399  45.1458124 -17.8915474
 110.8050012  57.2544997  -2.2480012 111.0050012  57.6784997  -3.0830012
 111.4600012  57.5974997  -1.6410012 110.9210051  57.3589648  -2.2802164
  98.4030012  49.7284997  -2.6400012  99.1350012  49.9824997  -2.0790012
  97.6230012  49.9324997  -2.1250012  98.3978232  49.7909177  -2.4934240
 104.4320012  45.1354997  -9.9020012 104.9970012  44.5884997 -10.4490012
 104.2850012  44.6134997  -9.1140012 104.4892918  44.9902024  -9.8701546
  99.4340012  41.2714997 -13.4840012  99.1170012  40.3694997 -13.5190012
 100.2160012  41.2734997 -14.0370012  99.4962284  41.1481628 -13.5635217
 103.0590012  43.5234997  -7.4880012 102.2230012  43.9774997  -7.3780012
 103.5830012  43.7994997  -6.7360012 103.0154414  43.6229376  -7.3712864
 103.6030012  49.7364997 -15.8040012 102.8580012  49.2294997 -16.1260012
 103.4690012  49.7854997 -14.8570012 103.4828776  49.6736940 -15.7201353
 110.7530012  48.8694997  -7.0170012 111.3950012  49.3264997  -7.5610012
 109.9230012  48.9824997  -7.4800012 110.7285963  48.9472704  -7.1539823
 107.5010012  42.5504997 -17.6040012 106.5620012  42.6624997 -17.7560012
 107.7980012  43.4074997 -17.2980012 107.4127666  42.6816443 -17.5834232
 105.1220012  49.9204997  -4.5670012 104.7770012  49.5394997  -3.7600012
 104.9220012  50.8544997  -4.4950012 105.0478061  49.9945228  -4.4469039
 108.2190012  44.4174997 -15.9440012 109.1110012  44.2804997 -15.6250012
 108.2760012  45.2084997 -16.4800012 108.3486285  44.5056660 -15.9728310
  98.7280012  49.0314997 -10.0340012  99.4730012  49.0294997 -10.6350012
  98.8060012  48.2084997  -9.5520012  98.8405518  48.9199315 -10.0511071
 105.7290012  51.1954997 -16.7780012 105.4330012  52.0214997 -16.3970012
 105.0260012  50.5754997 -16.5820012 105.5934914  51.2248199 -16.6993557
  95.7360012  47.4924997  -4.7190012  95.9590012  47.0744997  -3.8870012
  95.1340012  46.8794997  -5.1420012  95.6851759  47.3524668  -4.6622978
 102.7520012  47.0094997  -2.5060012 102.4560012  46.8434997  -3.4010012
 103.6840012  46.7894997  -2.5170012 102.8374166  46.9570640  -2.6299464
 107.3730012  52.3824997  -4.6160012 106.4720012  52.5654997  -4.8840012
 107.4070012  52.6414997  -3.6950012 107.2543041  52.4425512  -4.5281803
 113.1040012  44.6274997 -16.2490012 112.5500012  44.2314997 -16.9210012
 113.2040012  45.5374997 -16.5270012 113.0417059  44.6963586 -16.3785599
 113.0670012  50.4274997  -3.4120012 112.2160012  50.6654997  -3.7790012
 113.6580012  50.4104997  -4.1650012 113.0302487  50.4578258  -3.5641107
 111.3990012  53.4134997 -15.7840012 111.0260012  52.5874997 -15.4750012
 111.6770012  53.2304997 -16.6810012 111.3855630  53.2757303 -15.8630374
 108.5600012  48.2214997  -8.7630012 107.6310012  47.9894997  -8.7900012
 109.0110012  47.4444997  -9.0930012 108.4939216  48.0847238  -8.8113083
 101.1030012  52.5494997 -12.6300012 101.6300012  53.3224997 -12.8300012
 100.2230012  52.7744997 -12.9310012 101.0561773  52.6858005 -12.6980990
  96.8580012  47.4114997 -18.0430012  97.4740012  48.0384997 -17.6630012
  95.9960012  47.7274997 -17.7710012  96.8257698  47.5399430 -17.9542817
 102.5300012  50.2124997 -13.0530012 102.2890012  51.1374997 -13.0120012
 101.7890012  49.7534997 -12.6570012 102.3968409  50.2771421 -12.9938623
 103.0450012  54.3614997  -6.7380012 103.4070012  55.2164997  -6.9720012
 103.5760012  54.0694997  -5.9980012 103.1664473  54.4391060  -6.6699145
 101.2130012  55.2344997 -13.5080012 100.2630012  55.3394997 -13.4570012
 101.5650012  56.0544997 -13.1630012 101.1304203  55.3598314 -13.4543350
 106.5890012  50.4604997  -7.0380012 106.1630012  50.2334997  -6.2110012
 107.1690012  49.7224997  -7.2200012 106.6091868  50.3295299  -6.9494170
 108.7920012  51.3894997 -17.9640012 109.1450012  51.0094997 -17.1590012
 107.8430012  51.2964997 -17.8770012 108.7120441  51.3249596 -17.8421441
 109.2470012  55.0124997  -4.5680012 108.6460012  54.4574997  -5.0640012
 109.5290012  55.6794997  -5.1940012 109.2028519  55.0266841  -4.7205048
 113.2950012  55.8694997 -17.7630012 114.0390012  56.4554997 -17.9030012
 112.6010012  56.4374997 -17.4290012 113.3030292  56.0265582 -17.7370039
  97.3700012  42.2454997  -5.1610012  96.4770012  42.5844997  -5.2290012
  97.2710012  41.3904997  -4.7430012  97.2344164  42.1762588  -5.1137765
 109.6580012  50.0624997 -15.7370012 109.3800012  49.3344997 -15.1810012
 110.5850012  50.1814997 -15.5320012 109.7453124  49.9788802 -15.6331155
  97.0210012  54.0504997  -6.7260012  97.2380012  53.1184997  -6.7570012
  97.2670012  54.3244997  -5.8430012  97.0839549  53.9600636  -6.6108237
 102.8830012  52.5014997 -19.5170012 103.1220012  51.7534997 -20.0640012
 102.6140012  52.1134997 -18.6840012 102.8793675  52.3466638 -19.4793135
 101.8200012  52.0714997 -17.0600012 101.9660012  51.5514997 -16.2700012
 101.8170012  52.9784997 -16.7540012 101.8395989  52.1228853 -16.9103912
  98.2730012  49.3244997 -16.5500012  97.5870012  49.6764997 -15.9830012
  98.7950012  50.0874997 -16.7970012  98.2496852  49.4758578 -16.5057882
 106.1040012  41.9864997  -6.2710012 106.8030012  42.0604997  -5.6210012
 105.7230012  41.1224997  -6.1170012 106.1481767  41.8797624  -6.1611678
 106.8890012  41.6384997 -15.1740012 107.1090012  42.1104997 -15.9770012
 107.4470012  42.0334997 -14.5040012 106.9944968  41.7564285 -15.1932669
 104.5570012  53.7694997 -16.3110012 103.7410012  54.2664997 -16.2590012
 105.0870012  54.2444997 -16.9510012 104.5169161  53.9017722 -16.3904044
 104.0890012  43.3664997 -14.3390012 104.9010012  43.8714997 -14.2930012
 103.8440012  43.2214997 -13.4250012 104.1670520  43.4160375 -14.2091483
 104.6240012  44.3524997  -5.1540012 104.7430012  44.9264997  -4.3970012
 105.2800012  43.6644997  -5.0400012 104.7289757  44.3381079  -5.0349175
 104.9720012  40.4474997 -13.4010012 104.6260012  41.0654997 -12.7560012
 105.6310012  40.9484997 -13.8820012 105.0137826  40.5995802 -13.3779029
 101.8960012  54.8134997 -16.3290012 102.0560012  55.6124997 -16.8300012
 101.6980012  55.1194997 -15.4440012 101.8911649  54.9644469 -16.2780185
 100.6300012  41.5104997 -16.7140012 100.5470012  42.3994997 -16.3670012
 101.5200012  41.2454997 -16.4820012 100.7389469  41.5961430 -16.6352374
 110.8290012  42.2594997  -4.3190012 109.9120012  42.5224997  -4.4070012
 111.1640012  42.2564997  -5.2160012 110.7489900  42.2950224  -4.4522081
 109.4310012  46.0104997 -10.2240012 108.6330012  45.5954997 -10.5520012
 109.8760012  45.3194997  -9.7330012 109.3819885  45.8603543 -10.2025111
  98.8890012  51.9384997 -17.6530012  99.4810012  52.6374997 -17.3770012
  99.3480012  51.5054997 -18.3730012  99.0321142  51.9757049 -17.7125170
  97.2050012  44.6024997 -18.5370012  97.1600012  45.5414997 -18.3590012
  96.3170012  44.3664997 -18.8070012  97.0788574  44.6991892 -18.5491088
 110.5170012  55.2664997  -8.6010012 110.3620012  55.9444997  -9.2580012
 111.4500012  55.3384997  -8.3980012 110.6218500  55.3690170  -8.6634881
  98.0130012  39.3844997  -9.8640012  97.7840012  39.4434997 -10.7920012
  97.5700012  38.5924997  -9.5580012  97.9218530  39.2855753  -9.9495214
  96.9430012  53.3244997 -13.7040012  96.1110012  53.7974997 -13.6760012
  97.4890012  53.8344997 -14.3020012  96.9029739  53.4581871 -13.7810284
  96.2310012  55.9374997  -2.3740012  96.7720012  55.7204997  -1.6140012
  95.7500012  55.1314997  -2.5630012  96.2399345  55.7989514  -2.2956924
 100.8290012  54.8564997  -0.7530012 101.5960012  54.3974997  -0.4120012
 100.8070012  54.6304997  -1.6830012 100.9311434  54.7630409  -0.8319957
 104.9210012  54.3644997 -19.3780012 104.2770012  53.7334997 -19.0570012
 105.6830012  53.8334997 -19.6100012 104.9358077  54.2062920 -19.3653989
 107.4060012  53.2364997  -2.0240012 107.0550012  52.3804997  -1.7810012
 108.1320012  53.3794997  -1.4170012 107.4560769  53.1385636  -1.9086381
 109.5250012  54.1814997 -19.1440012 109.8080012  53.3874997 -18.6920012
 110.2650012  54.4144997 -19.7050012 109.6637486  54.1042803 -19.1579302
  96.1380012  49.7474997  -1.4190012  96.2820012  48.8454997  -1.7060012
  95.3660012  50.0334997  -1.9070012  96.0533322  49.6628261  -1.5242119
 100.4800012  50.0914997 -19.2870012 100.5440012  49.2974997 -18.7560012
 101.1330012  49.9724997 -19.9770012 100.5770241  49.9667148 -19.3075683
 102.7940012  49.7174997  -1.9870012 102.4650012  49.9884997  -2.8440012
 102.9460012  48.7764997  -2.0740012 102.7694809  49.6273862  -2.1161756
 108.5280012  49.6334997  -4.6030012 109.2740012  50.2214997  -4.7230012
 107.7710012  50.2154997  -4.5400012 108.5277554  49.7927011  -4.6109093
  96.9710012  46.9474997  -1.9990012  97.3790012  46.0904997  -2.1200012
  96.7110012  46.9624997  -1.0780012  96.9917568  46.8320807  -1.8910412
 101.6290012  48.0634997 -16.9810012 101.1690012  47.5794997 -16.2950012
 101.8840012  47.3954997 -17.6170012 101.6004902  47.9068731 -16.9730666
 100.9180012  45.9564997  -4.6250012 100.3000012  46.6314997  -4.3450012
 101.2620012  46.2774997  -5.4580012 100.8799615  46.0922721  -4.6993419
 102.7000012  46.3064997 -18.7190012 102.5200012  46.1524997 -19.6460012
 103.6500012  46.4144997 -18.6740012 102.8037776  46.3000175 -18.8398157
 105.9380012  48.4284997  -1.3480012 106.8910012  48.5114997  -1.3750012
 105.7770012  47.7164997  -0.7280012 106.0466426  48.3436746  -1.2679422
 112.0900012  48.6614997 -19.2730012 111.8160012  48.2364997 -20.0860012
 112.1290012  49.5924997 -19.4900012 112.0577699  48.7292484 -19.4136390
 101.2570012  43.3114997  -3.5430012 101.4070012  42.5824997  -4.1450012
 101.2600012  44.0884997  -4.1020012 101.2779302  43.3167851  -3.7009308
 101.6700012  41.6814997  -6.0500012 102.2060012  42.1324997  -6.7020012
 100.8180012  41.5734997  -6.4730012 101.6282178  41.7286390  -6.1964244
 103.2520012  47.1204997  -5.8110012 104.0020012  46.9644997  -6.3840012
 102.9130012  47.9724997  -6.0860012 103.3088921  47.2142968  -5.9266439
 107.6670012  44.9354997  -0.7820012 107.8600012  44.0044997  -0.8940012
 108.5250012  45.3604997  -0.7920012 107.8093020  44.8656389  -0.7986639
 108.9840012  47.7244997  -2.7050012 108.7030012  48.4334997  -3.2820012
 109.9270012  47.6514997  -2.8560012 109.0729027  47.8117646  -2.8044449
  99.7360012  44.5094997  -1.6310012  98.9690012  43.9774997  -1.8410012
 100.4150012  44.1994997  -2.2310012  99.7227022  44.3947506  -1.7408352
 102.4760012  39.1374997  -5.6190012 102.3770012  40.0844997  -5.7240012
 101.7330012  38.7654997  -6.0940012 102.3620564  39.2165902  -5.6975440
 103.7400012  43.4594997  -2.0550012 103.5040012  43.2394997  -1.1530012
 102.9560012  43.2524997  -2.5650012 103.6018628  43.4014760  -2.0006068
 106.4550012  42.5864997  -2.9790012 105.5080012  42.6184997  -2.8470012
 106.7680012  41.9614997  -2.3260012 106.3675475  42.5063207  -2.8725545
 108.0890012  41.2204997  -0.9740012 107.9930012  40.2684997  -0.9800012
 107.7680012  41.4894997  -0.1140012 108.0324070  41.1264035  -0.8584559
  97.9160012  42.4304997  -1.9270012  98.1280012  41.7234997  -2.5370012
  97.8050012  41.9924997  -1.0830012  97.9299721  42.2747084  -1.8963157
 102.6970012  38.4314997  -2.9470012 103.4090012  37.7914997  -2.9610012
 102.5960012  38.6984997  -3.8610012 102.7807939  38.3799938  -3.0724350
 103.0510012  40.1144997  -0.8940012 102.9190012  39.6384997  -1.7140012
 102.4520012  40.8584997  -0.9490012 102.9519071  40.1499618  -1.0137114
 102.5970012  56.9974997 -17.7170012 103.5300012  57.1554997 -17.5740012
 102.3330012  57.6724997 -18.3420012 102.6889510  57.1103611 -17.7819259
  96.1660012  51.6334997 -18.2350012  97.0800012  51.7124997 -17.9610012
  96.1730012  50.9464997 -18.9010012  96.2921131  51.5513961 -18.2875607
  94.8150012  57.0264997 -13.1570012  94.1680012  56.5644997 -13.6900012
  95.1690012  56.3544997 -12.5750012  94.7743849  56.8724723 -13.1512041
  95.6850012  55.1074997 -11.3530012  95.3500012  54.2274997 -11.1810012
  95.9070012  55.4524997 -10.4880012  95.6691783  55.0337500 -11.2125792
 113.2330012  55.9164997  -8.3720012 113.2120012  56.1014997  -7.4330012
 113.9240012  56.4854997  -8.7130012 113.3234618  56.0186606  -8.2896136
 112.7970012  55.4844997  -5.4500012 112.3090012  54.7484997  -5.8210012
 113.3460012  55.0904997  -4.7720012 112.8044872  55.3306249  -5.4090840
 111.2470012  51.2734997  -0.8120012 110.3810012  51.1684997  -0.4180012
 111.6240012  52.0324997  -0.3660012 111.1793308  51.3616900  -0.6977607
 112.5480012  49.5304997 -15.2980012 113.3980012  49.9514997 -15.1710012
 112.5540012  48.7904997 -14.6910012 112.6651372  49.4880803 -15.1985656
 112.9430012  47.5834997 -13.4740012 112.2160012  47.1044997 -13.0770012
 113.5240012  47.7894997 -12.7420012 112.9219375  47.5457090 -13.3205871
 112.7020012  50.3684997  -8.5270012 113.5350012  49.9904997  -8.8070012
 112.8140012  51.3114997  -8.6460012 112.8312647  50.4442218  -8.5814513
 111.1880012  53.2464997  -6.2200012 110.5410012  53.5714997  -5.5940012
 110.6710012  52.8064997  -6.8940012 111.0294029  53.2315004  -6.2254173
 113.2110012  47.4844997 -17.0830012 112.6890012  47.8414997 -17.8020012
 113.1780012  48.1594997 -16.4050012 113.1351634  47.6245413 -17.0896855
 111.5600012  44.7244997 -18.5320012 111.6560012  45.3914997 -19.2130012
 111.4200012  43.9084997 -19.0140012 111.5542135  44.7054500 -18.6901509
 110.7290012  46.1044997 -12.9110012 110.5790012  45.1594997 -12.9320012
 110.3760012  46.3854997 -12.0680012 110.6606625  46.0130441 -12.7997654
  95.7650012  48.1824997  -8.9010012  95.9490012  48.1004997  -9.8370012
  96.6140012  48.0584997  -8.4770012  95.9050139  48.1545003  -8.9718545
 111.5860012  48.0744997  -3.2730012 112.1690012  47.3404997  -3.0810012
 112.1500012  48.8464997  -3.2260012 111.7419769  48.0784227  -3.2403841
 113.0820012  45.9774997  -2.5880012 112.2190012  45.5984997  -2.7540012
 113.6870012  45.2384997  -2.6620012 113.0455979  45.8258023  -2.6207183
 110.8070012  42.1324997 -19.4150012 111.4180012  41.7614997 -18.7780012
 109.9710012  41.7114997 -19.2190012 110.7775032  42.0247554 -19.3012965
 110.4400012  43.6874997 -14.4490012 110.7200012  42.7804997 -14.3250012
 111.1990012  44.1214997 -14.8380012 110.5809277  43.6220942 -14.4846318
 111.0520012  44.2684997  -9.0130012 111.9850012  44.4804997  -9.0470012
 110.8170012  44.3704997  -8.0910012 111.1478036  44.3112769  -8.8930024
 111.0810012  45.0054997  -6.2370012 110.2380012  45.2734997  -5.8710012
 111.5230012  45.8274997  -6.4480012 111.0254158  45.1533291  -6.2154509
  95.3620012  43.4534997  -2.7600012  96.2820012  43.3314997  -2.5240012
  94.9130012  42.7034997  -2.3710012  95.4271580  43.3353727  -2.6750994
 113.3640012  38.9854997  -0.8840012 113.7140012  38.3314997  -1.4890012
 113.5110012  39.8224997  -1.3230012 113.4318419  39.0091591  -1.0262882
 111.0530012  40.9504997 -14.4010012 111.2360012  40.5014997 -13.5750012
 110.4540012  40.3654997 -14.8640012 110.9970202  40.8099975 -14.3506725
  96.5830012  41.7654997  -9.8690012  97.0290012  40.9734997  -9.5670012
  97.0500012  42.4814997  -9.4380012  96.7070172  41.7540624  -9.7695180
  94.8870012  44.7644997  -8.8000012  95.3790012  44.5434997  -9.5910012
  95.2500012  45.6054997  -8.5190012  95.0033126  44.8478357  -8.8702469
 112.8840012  41.0944997  -2.5340012 111.9660012  41.3654997  -2.5700012
 113.0070012  40.5594997  -3.3190012 112.7751066  41.0592892  -2.6449513
 112.9200012  41.0174997 -17.8730012 113.3320012  40.2964997 -18.3480012
 113.6020012  41.6874997 -17.8140012 113.0685885  41.0092368 -17.9301085
  95.2010012  41.0224997 -14.7460012  94.2760012  41.2314997 -14.8750012
  95.6550012  41.5064997 -15.4350012  95.1357368  41.1165993 -14.8568774
 109.9720012  56.0064997 -12.8000012 110.6240012  55.6594997 -13.4080012
 110.4820012  56.4954997 -12.1540012 110.1302637  56.0250597 -12.7959764
  95.1650012  39.7604997  -6.4010012  94.5000012  39.5144997  -5.7580012
  94.7220012  40.3824997  -6.9790012  95.0140956  39.8108632  -6.3910648
  97.3570012  52.9354997  -2.2570012  96.5360012  53.1104997  -2.7170012
  97.1040012  52.8624997  -1.3360012  97.2106164  52.9495622  -2.1955077
 100.3110012  53.9104997  -5.9980012  99.8860012  54.7194997  -6.2810012
 101.2150012  53.9954997  -6.3000012 100.3750271  54.0328469  -6.0776224
 104.6220012  55.3094997  -3.0390012 104.8070012  54.9754997  -2.1610012
 105.4680012  55.6184997  -3.3610012 104.7617539  55.3056047  -2.9624395
 106.9670012  56.5954997  -3.7950012 107.6440012  55.9624997  -4.0350012
 107.2890012  56.9964997  -2.9880012 107.1031637  56.5631154  -3.7187207
 111.8840012  39.1844997  -4.7150012 111.0720012  39.5094997  -5.1030012
 112.1170012  38.4244997  -5.2480012 111.8043423  39.1262436  -4.8401747
  97.7130012  57.1664997  -5.9510012  96.9920012  57.6064997  -6.4020012
  97.3470012  56.9154997  -5.1020012  97.5649804  57.1927698  -5.8980160
 100.1800012  56.7664997  -6.9210012  99.3150012  56.8384997  -6.5170012
 100.1250012  57.3134997  -7.7050012 100.0542085  56.8502685  -6.9716638
 104.8900012  56.6544997  -7.7460012 104.4340012  57.1834997  -8.4000012
 105.0530012  57.2574997  -7.0200012 104.8495585  56.8084468  -7.7374938
 107.2180012  55.5324997  -6.8010012 106.3130012  55.6974997  -7.0660012
 107.6470012  56.3854997  -6.8660012 107.1520799  55.6704483  -6.8460818
 109.8220012  57.1024997  -6.5060012 109.6400012  58.0184997  -6.7160012
 109.9990012  56.6924997  -7.3520012 109.8210210  57.1724822  -6.6492115
  97.1270012  55.7894997  -9.0410012  97.1090012  55.3644997  -8.1830012
  97.9320012  55.4714997  -9.4490012  97.2333875  55.6883812  -8.9788345
  99.2690012  54.4994997 -10.3860012  99.0500012  53.5834997 -10.2160012
 100.0930012  54.6394997  -9.9200012  99.3504420  54.3930520 -10.2997226
 101.8060012  54.9694997  -9.5370012 102.0190012  54.0814997  -9.8240012
 101.8700012  54.9354997  -8.5830012 101.8438232  54.8433102  -9.4472603
 105.3140012  40.6334997 -10.3930012 104.6400012  40.0044997 -10.1370012
 105.8780012  40.1494997 -10.9960012 105.2979230  40.4818744 -10.4394660
 110.4570012  38.7414997 -10.2800012 111.0610012  39.2884997 -10.7820012
 109.5870012  39.0604997 -10.5200012 110.4221241  38.8595806 -10.3812346
 112.1840012  39.8794997 -11.9470012 112.7960012  39.3654997 -12.4730012
 112.5660012  40.7574997 -11.9230012 112.3194540  39.9277140 -12.0158170
  97.6410012  39.2674997 -12.5710012  96.8640012  39.0334997 -13.0780012
  98.1710012  38.4704997 -12.5620012  97.6062330  39.1276988 -12.6392258
  96.4770012  39.0654997 -16.7670012  96.9160012  39.6764997 -17.3590012
  95.8440012  39.6034997 -16.2930012  96.4514514  39.2219257 -16.7839070
 102.2200012  39.1944997 -12.7570012 103.0950012  39.5824997 -12.7870012
 102.0840012  38.9794997 -11.8350012 102.3213695  39.2185184 -12.6363560
 107.7770012  39.2244997 -11.1080012 107.8530012  39.3194997 -12.0580012
 107.5020012  38.3164997 -10.9790012 107.7502321  39.1147867 -11.2204921
 109.1300012  39.2504997 -15.4160012 108.4280012  39.8654997 -15.6250012
 108.6860012  38.4124997 -15.2850012 108.9736330  39.2215783 -15.4269672
  96.3780012  55.0134997 -15.8690012  95.6930012  54.9754997 -16.5370012
  96.3820012  55.9264997 -15.5810012  96.2848193  55.1317016 -15.9214716
  98.3380012  40.9814997 -18.3250012  98.8300012  40.3514997 -18.8520012
  98.9620012  41.2774997 -17.6610012  98.4895446  40.9353199 -18.3074020
 103.3640012  41.2744997 -15.8680012 103.5420012  40.6284997 -15.1850012
 103.3110012  42.1084997 -15.4000012 103.3811829  41.2987985 -15.7114060
 105.2430012  56.2234997 -17.4720012 106.1090012  56.5894997 -17.6500012
 104.9960012  55.7834997 -18.2860012 105.3282392  56.2141756 -17.6063711
 111.9520012  55.7864997 -14.7930012 111.7570012  55.0384997 -15.3580012
 111.9130012  56.5444997 -15.3760012 111.9200380  55.7866099 -14.9491616
  97.5990012  39.7814997  -3.0530012  97.2330012  39.0164997  -2.6100012
  98.5120012  39.8104997  -2.7660012  97.6722790  39.6807224  -2.9535930
  99.5720012  39.1324997  -1.5170012 100.4700012  38.8584997  -1.7020012
  99.1850012  38.3894997  -1.0530012  99.6426612  38.9945914  -1.4796357
  98.1960012  55.9334997 -18.8440012  97.9290012  56.2204997 -17.9710012
  98.9680012  55.3874997 -18.6920012  98.2637488  55.8990294 -18.7038950
 107.9930012  38.4644997  -1.3350012 108.0700012  38.0384997  -0.4810012
 108.8870012  38.4784997  -1.6780012 108.1243428  38.4080879  -1.2644690
 111.1690012  54.5374997  -2.6430012 110.3870012  54.3514997  -3.1620012
 111.0970012  55.4664997  -2.4250012 111.0521777  54.6376492  -2.6845952
 125.5750012  48.4234997 -12.6120012 125.6640012  49.3674997 -12.7440012
 124.9370012  48.1484997 -13.2700012 125.5009081  48.5154830 -12.7190386
 124.5080012  47.6784997  -9.1930012 124.4700012  47.0324997  -8.4880012
 124.1860012  47.2124997  -9.9640012 124.4592333  47.5269408  -9.2007022
 116.8770012  47.2934997  -7.6000012 116.9180012  46.6674997  -6.8770012
 117.5800012  47.9174997  -7.4180012 116.9776363  47.2921196  -7.4763956
 128.2140012  50.6174997 -10.8920012 127.7740012  49.8974997 -10.4410012
 128.2010012  51.3384997 -10.2620012 128.1520226  50.6163731 -10.7451506
 117.8000012  51.7434997  -9.0650012 117.4310012  50.9414997  -9.4350012
 118.7410012  51.5744997  -9.0190012 117.8767289  51.6110153  -9.1093684
 114.4100012  45.4034997 -13.6720012 113.9630012  46.2494997 -13.6910012
 113.8490012  44.8234997 -14.1880012 114.2729900  45.4409916 -13.7443199
 115.1210012  47.5654997 -11.5460012 115.3340012  46.7954997 -11.0190012
 115.8590012  47.6544997 -12.1500012 115.2498496  47.4721394 -11.5554700
 125.3260012  55.7224997 -10.6790012 125.9460012  55.0454997 -10.9530012
 125.1180012  55.5044997  -9.7710012 125.3826904  55.6003870 -10.5936635
 122.8980012  50.1114997  -8.7870012 123.2020012  49.4254997  -9.3820012
 123.6190012  50.2294997  -8.1690012 123.0370671  50.0336305  -8.7848184
 131.5610012  41.7124997  -7.9260012 131.6100012  42.3224997  -7.1900012
 131.9860012  42.1734997  -8.6490012 131.6251824  41.8583741  -7.9229795
 126.0390012  44.5054997  -8.4590012 126.1810012  43.5594997  -8.4390012
 125.9320012  44.7124997  -9.3880012 126.0439864  44.4039534  -8.5817661
 119.1930012  42.6064997 -11.1870012 119.2370012  43.4664997 -11.6050012
 118.7360012  42.0544997 -11.8210012 119.1372185  42.6495799 -11.3299701
 126.9160012  42.7374997 -12.7860012 127.5620012  42.4084997 -12.1610012
 127.4260012  43.2554997 -13.4090012 127.0734264  42.7624611 -12.7846138
 115.8140012  45.0034997 -10.4250012 116.4670012  44.4534997  -9.9930012
 115.8380012  44.7294997 -11.3420012 115.9066683  44.8911466 -10.4897877
 120.9700012  46.5534997 -11.2100012 121.5860012  46.0274997 -10.7000012
 120.3840012  45.9134997 -11.6130012 120.9750810  46.3949208 -11.1946827
 131.9520012  43.1904997  -5.6900012 131.2640012  43.8484997  -5.7860012
 131.9680012  42.9934997  -4.7540012 131.8598525  43.2540462  -5.5765192
 118.0040012  41.5244997  -7.1130012 117.7850012  42.0544997  -7.8790012
 117.3360012  41.7514997  -6.4660012 117.8837600  41.6276906  -7.1303621
 125.3730012  51.0244997 -13.5690012 125.0770012  50.7024997 -14.4200012
 125.0480012  51.9244997 -13.5280012 125.2886371  51.1020215 -13.6798199
 120.5730012  49.2004997  -6.8260012 119.8330012  49.7984997  -6.7220012
 121.2870012  49.7544997  -7.1410012 120.5682237  49.3572831  -6.8543535
 128.6800012  42.0284997 -10.8060012 128.4640012  41.2624997 -10.2730012
 129.3350012  42.5004997 -10.2930012 128.7390632  41.9875889 -10.6637139
 117.5970012  43.4164997  -9.1610012 118.2110012  44.0494997  -8.7870012
 118.1090012  42.9444997  -9.8170012 117.7502296  43.4392370  -9.1985748
 118.9800012  51.1644997  -6.0380012 118.9750012  52.0444997  -6.4160012
 118.1270012  51.0814997  -5.6130012 118.8639464  51.2736117  -6.0322093
 115.1010012  50.8354997 -15.2560012 114.8290012  51.0644997 -16.1450012
 115.1470012  51.6734997 -14.7960012 115.0700094  50.9801213 -15.3154303
 128.7260012  52.4574997  -8.5440012 127.7850012  52.5154997  -8.3820012
 129.0030012  53.3634997  -8.6810012 128.6344679  52.5879443  -8.5403185
 129.0270012  40.7434997  -7.1260012 128.2910012  41.3544997  -7.1640012
 129.7100012  41.1584997  -7.6530012 129.0186541  40.8831374  -7.2024168
 122.0300012  38.8304997  -9.6600012 121.9130012  37.8814997  -9.7150012
 121.1750012  39.1624997  -9.3870012 121.8983733  38.7455409  -9.6306103
 126.9780012  54.2384997 -11.9180012 127.4040012  53.5314997 -12.4030012
 127.2950012  55.0394997 -12.3350012 127.0791019  54.2500994 -12.0406870
 128.1380012  52.1394997 -13.4100012 127.8800012  51.4494997 -14.0210012
 128.2090012  51.6964997 -12.5640012 128.1122856  51.9852124 -13.3793115
 129.8240012  50.7054997  -4.9320012 129.9640012  50.1144997  -5.6720012
 129.9910012  51.5784997  -5.2890012 129.8656778  50.7426426  -5.0813035
 124.2970012  47.6674997 -15.1600012 123.5850012  48.2024997 -15.5120012
 124.9880012  47.7234997 -15.8200012 124.2930132  47.7482543 -15.2973711
 124.3500012  46.1254997 -18.1210012 125.0510012  46.1474997 -17.4700012
 124.6530012  45.4974997 -18.7770012 124.4867830  46.0436566 -18.1206289
 131.6660012  47.0454997  -6.8660012 131.0130012  47.7404997  -6.7770012
 132.1310012  47.2554997  -7.6760012 131.6395390  47.1689425  -6.9633117
 127.7020012  47.8774997 -14.2080012 126.9700012  48.1054997 -13.6350012
 128.1500012  47.1634997 -13.7530012 127.6623095  47.8122571 -14.0680881
 127.6000012  46.0514997  -5.1410012 127.6800012  46.8144997  -4.5690012
 126.9980012  46.3304997  -5.8310012 127.5295756  46.1937134  -5.1559411
 119.3480012  48.5074997 -12.3260012 119.0170012  48.1374997 -13.1440012
 119.9360012  47.8374997 -11.9790012 119.3821873  48.3661156 -12.3911898
 120.7140012  51.9354997  -9.6440012 120.6200012  51.3574997 -10.4010012
 121.4440012  51.5644997  -9.1480012 120.7997981  51.8062390  -9.6805835
 119.7140012  47.2764997  -8.6920012 120.2800012  47.3974997  -9.4550012
 120.0330012  47.9134997  -8.0530012 119.8345786  47.3791884  -8.7099960
 126.0230012  52.7794997  -7.9580012 125.7830012  53.4414997  -7.3100012
 125.8250012  51.9454997  -7.5330012 125.9633808  52.7573134  -7.8118476
 120.5940012  51.6754997  -3.9750012 120.2830012  52.4574997  -3.5200012
 119.9440012  51.5224997  -4.6610012 120.4635558  51.7619105  -4.0054129
 126.5730012  47.0394997 -16.5230012 127.1530012  47.1894997 -15.7760012
 126.9870012  47.5104997 -17.2460012 126.7082830  47.1236841 -16.5185866
 117.5140012  47.8734997  -4.7460012 117.5850012  48.5244997  -4.0480012
 116.6240012  47.9764997  -5.0810012 117.4033117  47.9765936  -4.6957300
 124.3000012  53.7764997 -13.0880012 124.7740012  54.0714997 -12.3100012
 123.7370012  54.5144997 -13.3210012 124.2887653  53.9166932 -13.0129864
 118.8340012  53.7474997  -3.2120012 118.8410012  53.6114997  -4.1590012
 117.9180012  53.6294997  -2.9600012 118.7111714  53.7129430  -3.3075334
 130.2720012  38.7894997 -16.7100012 129.3720012  38.9284997 -16.4150012
 130.5240012  39.6204997 -17.1120012 130.1828702  38.9209074 -16.7239795
 118.3380012  47.5774997 -14.7360012 118.0460012  48.3454997 -15.2270012
 117.6640012  46.9174997 -14.8990012 118.2069081  47.5934406 -14.8252660
 131.4610012  53.1554997 -18.3340012 131.5350012  54.0944997 -18.1630012
 132.3670012  52.8504997 -18.3900012 131.5935100  53.2426722 -18.3181881
 114.4310012  49.9404997  -5.9210012 113.9300012  49.9124997  -6.7360012
 114.4360012  49.0344997  -5.6120012 114.3631526  49.8142278  -5.9907128
 114.1810012  52.7204997  -9.0370012 115.1270012  52.5764997  -9.0560012
 114.0690012  53.5044997  -8.5000012 114.2952727  52.8068046  -8.9669928
 132.3790012  53.3864997  -3.3550012 132.3300012  52.4314997  -3.3920012
 131.5520012  53.6544997  -2.9540012 132.2604940  53.2918998  -3.3058625
 123.3580012  52.9604997  -4.4790012 123.4450012  53.7864997  -4.0040012
 122.4940012  52.6304997  -4.2300012 123.2531964  53.0289878  -4.3803451
 123.7720012  56.7324997 -14.6730012 123.6970012  56.6114997 -15.6190012
 123.8050012  57.6824997 -14.5540012 123.7661848  56.8442500 -14.7865166
 117.4250012  55.5214997 -12.8920012 117.5780012  55.1734997 -12.0130012
 116.5750012  55.1654997 -13.1470012 117.3308962  55.4256650 -12.8061660
 126.8740012  55.8864997 -17.6710012 127.2490012  55.1424997 -18.1410012
 126.8780012  55.6164997 -16.7520012 126.9258915  55.7481486 -17.6112176
 126.5430012  55.8124997 -14.9210012 125.6070012  55.9124997 -14.7430012
 126.8230012  55.1034997 -14.3430012 126.4528255  55.7302711 -14.8184609
 129.5310012  44.8794997  -2.8750012 129.1240012  45.3604997  -3.5960012
 129.5720012  43.9744997  -3.1830012 129.4808437  44.8229374  -3.0153317
 116.6800012  51.2634997  -4.8780012 116.8960012  50.9024997  -4.0190012
 115.8250012  50.8894997  -5.0880012 116.5939292  51.1634111  -4.7886614
 119.2990012  39.7334997  -8.8830012 118.4370012  39.6464997  -9.2900012
 119.2760012  40.5894997  -8.4550012 119.1780330  39.8372765  -8.8808137
 123.9620012  39.4554997  -5.5080012 124.3820012  39.0404997  -4.7550012
 123.0290012  39.2774997  -5.3910012 123.8933644  39.3745900  -5.3890461
 127.2880012  43.2114997  -4.6550012 126.7740012  43.0854997  -3.8570012
 127.1330012  44.1234997  -4.8990012 127.1966852  43.3176132  -4.5787842
 128.0510012  48.0724997 -18.8930012 128.0930012  47.8494997 -19.8230012
 128.9000012  48.4714997 -18.7030012 128.1715396  48.0959155 -18.9946373
 123.6230012  41.9484997 -18.2230012 123.3700012  41.9674997 -17.3000012
 123.3670012  41.0764997 -18.5240012 123.5537790  41.8332437 -18.1373737
 119.3900012  44.6994997  -7.7880012 118.7480012  44.6584997  -7.0790012
 119.4270012  45.6254997  -8.0250012 119.3071324  44.8191559  -7.7230176
 119.3870012  44.9204997 -12.8760012 118.4940012  44.5794997 -12.9340012
 119.8370012  44.5434997 -13.6310012 119.3257305  44.8228484 -12.9860823
 124.9220012  45.3364997 -14.0590012 124.5130012  46.1514997 -14.3500012
 125.6430012  45.1964997 -14.6730012 124.9634537  45.4292018 -14.1818658
 124.0240012  45.5114997  -2.5710012 123.4620012  44.8074997  -2.2500012
 124.8510012  45.3914997  -2.1030012 124.0587095  45.3987883  -2.4637670
 125.9270012  44.7824997 -11.2450012 125.7320012  45.3874997 -11.9600012
 126.1080012  43.9484997 -11.6790012 125.9247614  44.7526300 -11.4015595
 117.1400012  45.0194997  -5.9210012 117.1020012  45.4194997  -5.0520012
 116.6490012  44.2024997  -5.8300012 117.0684684  44.9638069  -5.7898941
 120.5060012  42.3934997 -19.1220012 120.0750012  41.9484997 -18.3920012
 119.7880012  42.7654997 -19.6340012 120.3499438  42.3828940 -19.0913201
 113.7480012  42.1354997 -12.0700012 114.3790012  42.1064997 -11.3510012
 114.1970012  41.7104997 -12.8000012 113.8950774  42.0740492 -12.0703447
 115.0220012  42.8814997 -16.6460012 115.4960012  43.4724997 -17.2310012
 114.3050012  43.4124997 -16.2990012 114.9899341  43.0340867 -16.6791164
 125.1910012  46.4204997  -6.5730012 125.5140012  45.7894997  -7.2160012
 124.7510012  45.8854997  -5.9130012 125.1756895  46.2618441  -6.5717150
 121.9680012  42.3474997 -11.7890012 121.0570012  42.4044997 -11.5010012
 122.4740012  42.2874997 -10.9790012 121.9115413  42.3471985 -11.6399378
 116.7970012  43.9764997 -12.9630012 115.9070012  44.0764997 -13.3030012
 117.0930012  43.1344997 -13.3090012 116.7152823  43.8763545 -13.0562787
 120.4500012  43.9764997 -15.3060012 121.3810012  44.1054997 -15.1280012
 120.2350012  44.6464997 -15.9560012 120.5484247  44.0846565 -15.3694253
 126.3730012  41.5824997  -8.5250012 125.6970012  41.7134997  -7.8610012
 125.8880012  41.4274997  -9.3350012 126.2147145  41.5794905  -8.5435483
 119.1240012  45.1714997 -17.7390012 118.5810012  44.7914997 -18.4310012
 119.9570012  45.3654997 -18.1680012 119.1624399  45.1458124 -17.8915474
 129.6610012  57.2544997  -2.2480012 129.8610012  57.6784997  -3.0830012
 130.3160012  57.5974997  -1.6410012 129.7770051  57.3589648  -2.2802164
 117.2590012  49.7284997  -2.6400012 117.9910012  49.9824997  -2.0790012
 116.4790012  49.9324997  -2.1250012 117.2538232  49.7909177  -2.4934240
 123.2880012  45.1354997  -9.9020012 123.8530012  44.5884997 -10.4490012
 123.1410012  44.6134997  -9.1140012 123.3452918  44.9902024  -9.8701546
 118.2900012  41.2714997 -13.4840012 117.9730012  40.3694997 -13.5190012
 119.0720012  41.2734997 -14.0370012 118.3522284  41.1481628 -13.5635217
 121.9150012  43.5234997  -7.4880012 121.0790012  43.9774997  -7.3780012
 122.4390012  43.7994997  -6.7360012 121.8714414  43.6229376  -7.3712864
 122.4590012  49.7364997 -15.8040012 121.7140012  49.2294997 -16.1260012
 122.3250012  49.7854997 -14.8570012 122.3388776  49.6736940 -15.7201353
 129.6090012  48.8694997  -7.0170012 130.2510012  49.3264997  -7.5610012
 128.7790012  48.9824997  -7.4800012 129.5845963  48.9472704  -7.1539823
 126.3570012  42.5504997 -17.6040012 125.4180012  42.6624997 -17.7560012
 126.6540012  43.4074997 -17.2980012 126.2687666  42.6816443 -17.5834232
 123.9780012  49.9204997  -4.5670012 123.6330012  49.5394997  -3.7600012
 123.7780012  50.8544997  -4.4950012 123.9038061  49.9945228  -4.4469039
 127.0750012  44.4174997 -15.9440012 127.9670012  44.2804997 -15.6250012
 127.1320012  45.2084997 -16.4800012 127.2046285  44.5056660 -15.9728310
 117.5840012  49.0314997 -10.0340012 118.3290012  49.0294997 -10.6350012
 117.6620012  48.2084997  -9.5520012 117.6965518  48.9199315 -10.0511071
 124.5850012  51.1954997 -16.7780012 124.2890012  52.0214997 -16.3970012
 123.8820012  50.5754997 -16.5820012 124.4494914  51.2248199 -16.6993557
 114.5920012  47.4924997  -4.7190012 114.8150012  47.0744997  -3.8870012
 113.9900012  46.8794997  -5.1420012 114.5411759  47.3524668  -4.6622978
 121.6080012  47.0094997  -2.5060012 121.3120012  46.8434997  -3.4010012
 122.5400012  46.7894997  -2.5170012 121.6934166  46.9570640  -2.6299464
 126.2290012  52.3824997  -4.6160012 125.3280012  52.5654997  -4.8840012
 126.2630012  52.6414997  -3.6950012 126.1103041  52.4425512  -4.5281803
 131.9600012  44.6274997 -16.2490012 131.4060012  44.2314997 -16.9210012
 132.0600012  45.5374997 -16.5270012 131.8977059  44.6963586 -16.3785599
 131.9230012  50.4274997  -3.4120012 131.0720012  50.6654997  -3.7790012
 132.5140012  50.4104997  -4.1650012 131.8862487  50.4578258  -3.5641107
 130.2550012  53.4134997 -15.7840012 129.8820012  52.5874997 -15.4750012
 130.5330012  53.2304997 -16.6810012 130.2415630  53.2757303 -15.8630374
 127.4160012  48.2214997  -8.7630012 126.4870012  47.9894997  -8.7900012
 127.8670012  47.4444997  -9.0930012 127.3499216  48.0847238  -8.8113083
 119.9590012  52.5494997 -12.6300012 120.4860012  53.3224997 -12.8300012
 119.0790012  52.7744997 -12.9310012 119.9121773  52.6858005 -12.6980990
 115.7140012  47.4114997 -18.0430012 116.3300012  48.0384997 -17.6630012
 114.8520012  47.7274997 -17.7710012 115.6817698  47.5399430 -17.9542817
 121.3860012  50.2124997 -13.0530012 121.1450012  51.1374997 -13.0120012
 120.6450012  49.7534997 -12.6570012 121.2528409  50.2771421 -12.9938623
 121.9010012  54.3614997  -6.7380012 122.2630012  55.2164997  -6.9720012
 122.4320012  54.0694997  -5.9980012 122.0224473  54.4391060  -6.6699145
 120.0690012  55.2344997 -13.5080012 119.1190012  55.3394997 -13.4570012
 120.4210012  56.0544997 -13.1630012 119.9864203  55.3598314 -13.4543350
 125.4450012  50.4604997  -7.0380012 125.0190012  50.2334997  -6.2110012
 126.0250012  49.7224997  -7.2200012 125.4651868  50.3295299  -6.9494170
 127.6480012  51.3894997 -17.9640012 128.0010012  51.0094997 -17.1590012
 126.6990012  51.2964997 -17.8770012 127.5680441  51.3249596 -17.8421441
 128.1030012  55.0124997  -4.5680012 127.5020012  54.4574997  -5.0640012
 128.3850012  55.6794997  -5.1940012 128.0588519  55.0266841  -4.7205048
 132.1510012  55.8694997 -17.7630012 132.8950012  56.4554997 -17.9030012
 131.4570012  56.4374997 -17.4290012 132.1590292  56.0265582 -17.7370039
 116.2260012  42.2454997  -5.1610012 115.3330012  42.5844997  -5.2290012
 116.1270012  41.3904997  -4.7430012 116.0904164  42.1762588  -5.1137765
 128.5140012  50.0624997 -15.7370012 128.2360012  49.3344997 -15.1810012
 129.4410012  50.1814997 -15.5320012 128.6013124  49.9788802 -15.6331155
 115.8770012  54.0504997  -6.7260012 116.0940012  53.1184997  -6.7570012
 116.1230012  54.3244997  -5.8430012 115.9399549  53.9600636  -6.6108237
 121.7390012  52.5014997 -19.5170012 121.9780012  51.7534997 -20.0640012
 121.4700012  52.1134997 -18.6840012 121.7353675  52.3466638 -19.4793135
 120.6760012  52.0714997 -17.0600012 120.8220012  51.5514997 -16.2700012
 120.6730012  52.9784997 -16.7540012 120.6955989  52.1228853 -16.9103912
 117.1290012  49.3244997 -16.5500012 116.4430012  49.6764997 -15.9830012
 117.6510012  50.0874997 -16.7970012 117.1056852  49.4758578 -16.5057882
 124.9600012  41.9864997  -6.2710012 125.6590012  42.0604997  -5.6210012
 124.5790012  41.1224997  -6.1170012 125.0041767  41.8797624  -6.1611678
 125.7450012  41.6384997 -15.1740012 125.9650012  42.1104997 -15.9770012
 126.3030012  42.0334997 -14.5040012 125.8504968  41.7564285 -15.1932669
 123.4130012  53.7694997 -16.3110012 122.5970012  54.2664997 -16.2590012
 123.9430012  54.2444997 -16.9510012 123.3729161  53.9017722 -16.3904044
 122.9450012  43.3664997 -14.3390012 123.7570012  43.8714997 -14.2930012
 122.7000012  43.2214997 -13.4250012 123.0230520  43.4160375 -14.2091483
 123.4800012  44.3524997  -5.1540012 123.5990012  44.9264997  -4.3970012
 124.1360012  43.6644997  -5.0400012 123.5849757  44.3381079  -5.0349175
 123.8280012  40.4474997 -13.4010012 123.4820012  41.0654997 -12.7560012
 124.4870012  40.9484997 -13.8820012 123.8697826  40.5995802 -13.3779029
 120.7520012  54.8134997 -16.3290012 120.9120012  55.6124997 -16.8300012
 120.5540012  55.1194997 -15.4440012 120.7471649  54.9644469 -16.2780185
 119.4860012  41.5104997 -16.7140012 119.4030012  42.3994997 -16.3670012
 120.3760012  41.2454997 -16.4820012 119.5949469  41.5961430 -16.6352374
 129.6850012  42.2594997  -4.3190012 128.7680012  42.5224997  -4.4070012
 130.0200012  42.2564997  -5.2160012 129.6049900  42.2950224  -4.4522081
 128.2870012  46.0104997 -10.2240012 127.4890012  45.5954997 -10.5520012
 128.7320012  45.3194997  -9.7330012 128.2379885  45.8603543 -10.2025111
 117.7450012  51.9384997 -17.6530012 118.3370012  52.6374997 -17.3770012
 118.2040012  51.5054997 -18.3730012 117.8881142  51.9757049 -17.7125170
 116.0610012  44.6024997 -18.5370012 116.0160012  45.5414997 -18.3590012
 115.1730012  44.3664997 -18.8070012 115.9348574  44.6991892 -18.5491088
 129.3730012  55.2664997  -8.6010012 129.2180012  55.9444997  -9.2580012
 130.3060012  55.3384997  -8.3980012 129.4778500  55.3690170  -8.6634881
 116.8690012  39.3844997  -9.8640012 116.6400012  39.4434997 -10.7920012
 116.4260012  38.5924997  -9.5580012 116.7778530  39.2855753  -9.9495214
 115.7990012  53.3244997 -13.7040012 114.9670012  53.7974997 -13.6760012
 116.3450012  53.8344997 -14.3020012 115.7589739  53.4581871 -13.7810284
 115.0870012  55.9374997  -2.3740012 115.6280012  55.7204997  -1.6140012
 114.6060012  55.1314997  -2.5630012 115.0959345  55.7989514  -2.2956924
 119.6850012  54.8564997  -0.7530012 120.4520012  54.3974997  -0.4120012
 119.6630012  54.6304997  -1.6830012 119.7871434  54.7630409  -0.8319957
 123.7770012  54.3644997 -19.3780012 123.1330012  53.7334997 -19.0570012
 124.5390012  53.8334997 -19.6100012 123.7918077  54.2062920 -19.3653989
 126.2620012  53.2364997  -2.0240012 125.9110012  52.3804997  -1.7810012
 126.9880012  53.3794997  -1.4170012 126.3120769  53.1385636  -1.9086381
 128.3810012  54.1814997 -19.1440012 128.6640012  53.3874997 -18.6920012
 129.1210012  54.4144997 -19.7050012 128.5197486  54.1042803 -19.1579302
 114.9940012  49.7474997  -1.4190012 115.1380012  48.8454997  -1.7060012
 114.2220012  50.0334997  -1.9070012 114.9093322  49.6628261  -1.5242119
 119.3360012  50.0914997 -19.2870012 119.4000012  49.2974997 -18.7560012
 119.9890012  49.9724997 -19.9770012 119.4330241  49.9667148 -19.3075683
 121.6500012  49.7174997  -1.9870012 121.3210012  49.9884997  -2.8440012
 121.8020012  48.7764997  -2.0740012 121.6254809  49.6273862  -2.1161756
 127.3840012  49.6334997  -4.6030012 128.1300012  50.2214997  -4.7230012
 126.6270012  50.2154997  -4.5400012 127.3837554  49.7927011  -4.6109093
 115.8270012  46.9474997  -1.9990012 116.2350012  46.0904997  -2.1200012
 115.5670012  46.9624997  -1.0780012 115.8477568  46.8320807  -1.8910412
 120.4850012  48.0634997 -16.9810012 120.0250012  47.5794997 -16.2950012
 120.7400012  47.3954997 -17.6170012 120.4564902  47.9068731 -16.9730666
 119.7740012  45.9564997  -4.6250012 119.1560012  46.6314997  -4.3450012
 120.1180012  46.2774997  -5.4580012 119.7359615  46.0922721  -4.6993419
 121.5560012  46.3064997 -18.7190012 121.3760012  46.1524997 -19.6460012
 122.5060012  46.4144997 -18.6740012 121.6597776  46.3000175 -18.8398157
 124.7940012  48.4284997  -1.3480012 125.7470012  48.5114997  -1.3750012
 124.6330012  47.7164997  -0.7280012 124.9026426  48.3436746  -1.2679422
 130.9460012  48.6614997 -19.2730012 130.6720012  48.2364997 -20.0860012
 130.9850012  49.5924997 -19.4900012 130.9137699  48.7292484 -19.4136390
 120.1130012  43.3114997  -3.5430012 120.2630012  42.5824997  -4.1450012
 120.1160012  44.0884997  -4.1020012 120.1339302  43.3167851  -3.7009308
 120.5260012  41.6814997  -6.0500012 121.0620012  42.1324997  -6.7020012
 119.6740012  41.5734997  -6.4730012 120.4842178  41.7286390  -6.1964244
 122.1080012  47.1204997  -5.8110012 122.8580012  46.9644997  -6.3840012
 121.7690012  47.9724997  -6.0860012 122.1648921  47.2142968  -5.9266439
 126.5230012  44.9354997  -0.7820012 126.7160012  44.0044997  -0.8940012
 127.3810012  45.3604997  -0.7920012 126.6653020  44.8656389  -0.7986639
 127.8400012  47.7244997  -2.7050012 127.5590012  48.4334997  -3.2820012
 128.7830012  47.6514997  -2.8560012 127.9289027  47.8117646  -2.8044449
 118.5920012  44.5094997  -1.6310012 117.8250012  43.9774997  -1.8410012
 119.2710012  44.1994997  -2.2310012 118.5787022  44.3947506  -1.7408352
 121.3320012  39.1374997  -5.6190012 121.2330012  40.0844997  -5.7240012
 120.5890012  38.7654997  -6.0940012 121.2180564  39.2165902  -5.6975440
 122.5960012  43.4594997  -2.0550012 122.3600012  43.2394997  -1.1530012
 121.8120012  43.2524997  -2.5650012 122.4578628  43.4014760  -2.0006068
 125.3110012  42.5864997  -2.9790012 124.3640012  42.6184997  -2.8470012
 125.6240012  41.9614997  -2.3260012 125.2235475  42.5063207  -2.8725545
 126.9450012  41.2204997  -0.9740012 126.8490012  40.2684997  -0.9800012
 126.6240012  41.4894997  -0.1140012 126.8884070  41.1264035  -0.8584559
 116.7720012  42.4304997  -1.9270012 116.9840012  41.7234997  -2.5370012
 116.6610012  41.9924997  -1.0830012 116.7859721  42.2747084  -1.8963157
 121.5530012  38.4314997  -2.9470012 122.2650012  37.7914997  -2.9610012
 121.4520012  38.6984997  -3.8610012 121.6367939  38.3799938  -3.0724350
 121.9070012  40.1144997  -0.8940012 121.7750012  39.6384997  -1.7140012
 121.3080012  40.8584997  -0.9490012 121.8079071  40.1499618  -1.0137114
 121.4530012  56.9974997 -17.7170012 122.3860012  57.1554997 -17.5740012
 121.1890012  57.6724997 -18.3420012 121.5449510  57.1103611 -17.7819259
 115.0220012  51.6334997 -18.2350012 115.9360012  51.7124997 -17.9610012
 115.0290012  50.9464997 -18.9010012 115.1481131  51.5513961 -18.2875607
 113.6710012  57.0264997 -13.1570012 113.0240012  56.5644997 -13.6900012
 114.0250012  56.3544997 -12.5750012 113.6303849  56.8724723 -13.1512041
 114.5410012  55.1074997 -11.3530012 114.2060012  54.2274997 -11.1810012
 114.7630012  55.4524997 -10.4880012 114.5251783  55.0337500 -11.2125792
 132.0890012  55.9164997  -8.3720012 132.0680012  56.1014997  -7.4330012
 132.7800012  56.4854997  -8.7130012 132.1794618  56.0186606  -8.2896136
 131.6530012  55.4844997  -5.4500012 131.1650012  54.7484997  -5.8210012
 132.2020012  55.0904997  -4.7720012 131.6604872  55.3306249  -5.4090840
 130.1030012  51.2734997  -0.8120012 129.2370012  51.1684997  -0.4180012
 130.4800012  52.0324997  -0.3660012 130.0353308  51.3616900  -0.6977607
 131.4040012  49.5304997 -15.2980012 132.2540012  49.9514997 -15.1710012
 131.4100012  48.7904997 -14.6910012 131.5211372  49.4880803 -15.1985656
 131.7990012  47.5834997 -13.4740012 131.0720012  47.1044997 -13.0770012
 132.3800012  47.7894997 -12.7420012 131.7779375  47.5457090 -13.3205871
 131.5580012  50.3684997  -8.5270012 132.3910012  49.9904997  -8.8070012
 131.6700012  51.3114997  -8.6460012 131.6872647  50.4442218  -8.5814513
 130.0440012  53.2464997  -6.2200012 129.3970012  53.5714997  -5.5940012
 129.5270012  52.8064997  -6.8940012 129.8854029  53.2315004  -6.2254173
 132.0670012  47.4844997 -17.0830012 131.5450012  47.8414997 -17.8020012
 132.0340012  48.1594997 -16.4050012 131.9911634  47.6245413 -17.0896855
 130.4160012  44.7244997 -18.5320012 130.5120012  45.3914997 -19.2130012
 130.2760012  43.9084997 -19.0140012 130.4102135  44.7054500 -18.6901509
 129.5850012  46.1044997 -12.9110012 129.4350012  45.1594997 -12.9320012
 129.2320012  46.3854997 -12.0680012 129.5166625  46.0130441 -12.7997654
 114.6210012  48.1824997  -8.9010012 114.8050012  48.1004997  -9.8370012
 115.4700012  48.0584997  -8.4770012 114.7610139  48.1545003  -8.9718545
 130.4420012  48.0744997  -3.2730012 131.0250012  47.3404997  -3.0810012
 131.0060012  48.8464997  -3.2260012 130.5979769  48.0784227  -3.2403841
 131.9380012  45.9774997  -2.5880012 131.0750012  45.5984997  -2.7540012
 132.5430012  45.2384997  -2.6620012 131.9015979  45.8258023  -2.6207183
 129.6630012  42.1324997 -19.4150012 130.2740012  41.7614997 -18.7780012
 128.8270012  41.7114997 -19.2190012 129.6335032  42.0247554 -19.3012965
 129.2960012  43.6874997 -14.4490012 129.5760012  42.7804997 -14.3250012
 130.0550012  44.1214997 -14.8380012 129.4369277  43.6220942 -14.4846318
 129.9080012  44.2684997  -9.0130012 130.8410012  44.4804997  -9.0470012
 129.6730012  44.3704997  -8.0910012 130.0038036  44.3112769  -8.8930024
 129.9370012  45.0054997  -6.2370012 129.0940012  45.2734997  -5.8710012
 130.3790012  45.8274997  -6.4480012 129.8814158  45.1533291  -6.2154509
 114.2180012  43.4534997  -2.7600012 115.1380012  43.3314997  -2.5240012
 113.7690012  42.7034997  -2.3710012 114.2831580  43.3353727  -2.6750994
 132.2200012  38.9854997  -0.8840012 132.5700012  38.3314997  -1.4890012
 132.3670012  39.8224997  -1.3230012 132.2878419  39.0091591  -1.0262882
 129.9090012  40.9504997 -14.4010012 130.0920012  40.5014997 -13.5750012
 129.3100012  40.3654997 -14.8640012 129.8530202  40.8099975 -14.3506725
 115.4390012  41.7654997  -9.8690012 115.8850012  40.9734997  -9.5670012
 115.9060012  42.4814997  -9.4380012 115.5630172  41.7540624  -9.7695180
 113.7430012  44.7644997  -8.8000012 114.2350012  44.5434997  -9.5910012
 114.1060012  45.6054997  -8.5190012 113.8593126  44.8478357  -8.8702469
 131.7400012  41.0944997  -2.5340012 130.8220012  41.3654997  -2.5700012
 131.8630012  40.5594997  -3.3190012 131.6311066  41.0592892  -2.6449513
 131.7760012  41.0174997 -17.8730012 132.1880012  40.2964997 -18.3480012
 132.4580012  41.6874997 -17.8140012 131.9245885  41.0092368 -17.9301085
 114.0570012  41.0224997 -14.7460012 113.1320012  41.2314997 -14.8750012
 114.5110012  41.5064997 -15.4350012 113.9917368  41.1165993 -14.8568774
 128.8280012  56.0064997 -12.8000012 129.4800012  55.6594997 -13.4080012
 129.3380012  56.4954997 -12.1540012 128.9862637  56.0250597 -12.7959764
 114.0210012  39.7604997  -6.4010012 113.3560012  39.5144997  -5.7580012
 113.5780012  40.3824997  -6.9790012 113.8700956  39.8108632  -6.3910648
 116.2130012  52.9354997  -2.2570012 115.3920012  53.1104997  -2.7170012
 115.9600012  52.8624997  -1.3360012 116.0666164  52.9495622  -2.1955077
 119.1670012  53.9104997  -5.9980012 118.7420012  54.7194997  -6.2810012
 120.0710012  53.9954997  -6.3000012 119.2310271  54.0328469  -6.0776224
 123.4780012  55.3094997  -3.0390012 123.6630012  54.9754997  -2.1610012
 124.3240012  55.6184997  -3.3610012 123.6177539  55.3056047  -2.9624395
 125.8230012  56.5954997  -3.7950012 126.5000012  55.9624997  -4.0350012
 126.1450012  56.9964997  -2.9880012 125.9591637  56.5631154  -3.7187207
 130.7400012  39.1844997  -4.7150012 129.9280012  39.5094997  -5.1030012
 130.9730012  38.4244997  -5.2480012 130.6603423  39.1262436  -4.8401747
 116.5690012  57.1664997  -5.9510012 115.8480012  57.6064997  -6.4020012
 116.2030012  56.9154997  -5.1020012 116.4209804  57.1927698  -5.8980160
 119.0360012  56.7664997  -6.9210012 118.1710012  56.8384997  -6.5170012
 118.9810012  57.3134997  -7.7050012 118.9102085  56.8502685  -6.9716638
 123.7460012  56.6544997  -7.7460012 123.2900012  57.1834997  -8.4000012
 123.9090012  57.2574997  -7.0200012 123.7055585  56.8084468  -7.7374938
 126.0740012  55.5324997  -6.8010012 125.1690012  55.6974997  -7.0660012
 126.5030012  56.3854997  -6.8660012 126.0080799  55.6704483  -6.8460818
 128.6780012  57.1024997  -6.5060012 128.4960012  58.0184997  -6.7160012
 128.8550012  56.6924997  -7.3520012 128.6770210  57.1724822  -6.6492115
 115.9830012  55.7894997  -9.0410012 115.9650012  55.3644997  -8.1830012
 116.7880012  55.4714997  -9.4490012 116.0893875  55.6883812  -8.9788345
 118.1250012  54.4994997 -10.3860012 117.9060012  53.5834997 -10.2160012
 118.9490012  54.6394997  -9.9200012 118.2064420  54.3930520 -10.2997226
 120.6620012  54.9694997  -9.5370012 120.8750012  54.0814997  -9.8240012
 120.7260012  54.9354997  -8.5830012 120.6998232  54.8433102  -9.4472603
 124.1700012  40.6334997 -10.3930012 123.4960012  40.0044997 -10.1370012
 124.7340012  40.1494997 -10.9960012 124.1539230  40.4818744 -10.4394660
 129.3130012  38.7414997 -10.2800012 129.9170012  39.2884997 -10.7820012
 128.4430012  39.0604997 -10.5200012 129.2781241  38.8595806 -10.3812346
 131.0400012  39.8794997 -11.9470012 131.6520012  39.3654997 -12.4730012
 131.4220012  40.7574997 -11.9230012 131.1754540  39.9277140 -12.0158170
 116.4970012  39.2674997 -12.5710012 115.7200012  39.0334997 -13.0780012
 117.0270012  38.4704997 -12.5620012 116.4622330  39.1276988 -12.6392258
 115.3330012  39.0654997 -16.7670012 115.7720012  39.6764997 -17.3590012
 114.7000012  39.6034997 -16.2930012 115.3074514  39.2219257 -16.7839070
 121.0760012  39.1944997 -12.7570012 121.9510012  39.5824997 -12.7870012
 120.9400012  38.9794997 -11.8350012 121.1773695  39.2185184 -12.6363560
 126.6330012  39.2244997 -11.1080012 126.7090012  39.3194997 -12.0580012
 126.3580012  38.3164997 -10.9790012 126.6062321  39.1147867 -11.2204921
 127.9860012  39.2504997 -15.4160012 127.2840012  39.8654997 -15.6250012
 127.5420012  38.4124997 -15.2850012 127.8296330  39.2215783 -15.4269672
 115.2340012  55.0134997 -15.8690012 114.5490012  54.9754997 -16.5370012
 115.2380012  55.9264997 -15.5810012 115.1408193  55.1317016 -15.9214716
 117.1940012  40.9814997 -18.3250012 117.6860012  40.3514997 -18.8520012
 117.8180012  41.2774997 -17.6610012 117.3455446  40.9353199 -18.3074020
 122.2200012  41.2744997 -15.8680012 122.3980012  40.6284997 -15.1850012
 122.1670012  42.1084997 -15.4000012 122.2371829  41.2987985 -15.7114060
 124.0990012  56.2234997 -17.4720012 124.9650012  56.5894997 -17.6500012
 123.8520012  55.7834997 -18.2860012 124.1842392  56.2141756 -17.6063711
 130.8080012  55.7864997 -14.7930012 130.6130012  55.0384997 -15.3580012
 130.7690012  56.5444997 -15.3760012 130.7760380  55.7866099 -14.9491616
 116.4550012  39.7814997  -3.0530012 116.0890012  39.0164997  -2.6100012
 117.3680012  39.8104997  -2.7660012 116.5282790  39.6807224  -2.9535930
 118.4280012  39.1324997  -1.5170012 119.3260012  38.8584997  -1.7020012
 118.0410012  38.3894997  -1.0530012 118.4986612  38.9945914  -1.4796357
 117.0520012  55.9334997 -18.8440012 116.7850012  56.2204997 -17.9710012
 117.8240012  55.3874997 -18.6920012 117.1197488  55.8990294 -18.7038950
 126.8490012  38.4644997  -1.3350012 126.9260012  38.0384997  -0.4810012
 127.7430012  38.4784997  -1.6780012 126.9803428  38.4080879  -1.2644690
 130.0250012  54.5374997  -2.6430012 129.2430012  54.3514997  -3.1620012
 129.9530012  55.4664997  -2.4250012 129.9081777  54.6376492  -2.6845952
 144.4310012  48.4234997 -12.6120012 144.5200012  49.3674997 -12.7440012
 143.7930012  48.1484997 -13.2700012 144.3569081  48.5154830 -12.7190386
 143.3640012  47.6784997  -9.1930012 143.3260012  47.0324997  -8.4880012
 143.0420012  47.2124997  -9.9640012 143.3152333  47.5269408  -9.2007022
 135.7330012  47.2934997  -7.6000012 135.7740012  46.6674997  -6.8770012
 136.4360012  47.9174997  -7.4180012 135.8336363  47.2921196  -7.4763956
 136.6560012  51.7434997  -9.0650012 136.2870012  50.9414997  -9.4350012
 137.5970012  51.5744997  -9.0190012 136.7327289  51.6110153  -9.1093684
 133.2660012  45.4034997 -13.6720012 132.8190012  46.2494997 -13.6910012
 132.7050012  44.8234997 -14.1880012 133.1289900  45.4409916 -13.7443199
 133.9770012  47.5654997 -11.5460012 134.1900012  46.7954997 -11.0190012
 134.7150012  47.6544997 -12.1500012 134.1058496  47.4721394 -11.5554700
 144.1820012  55.7224997 -10.6790012 144.8020012  55.0454997 -10.9530012
 143.9740012  55.5044997  -9.7710012 144.2386904  55.6003870 -10.5936635
 141.7540012  50.1114997  -8.7870012 142.0580012  49.4254997  -9.3820012
 142.4750012  50.2294997  -8.1690012 141.8930671  50.0336305  -8.7848184
 144.8950012  44.5054997  -8.4590012 145.0370012  43.5594997  -8.4390012
 144.7880012  44.7124997  -9.3880012 144.8999864  44.4039534  -8.5817661
 138.0490012  42.6064997 -11.1870012 138.0930012  43.4664997 -11.6050012
 137.5920012  42.0544997 -11.8210012 137.9932185  42.6495799 -11.3299701
 134.6700012  45.0034997 -10.4250012 135.3230012  44.4534997  -9.9930012
 134.6940012  44.7294997 -11.3420012 134.7626683  44.8911466 -10.4897877
 139.8260012  46.5534997 -11.2100012 140.4420012  46.0274997 -10.7000012
 139.2400012  45.9134997 -11.6130012 139.8310810  46.3949208 -11.1946827
 136.8600012  41.5244997  -7.1130012 136.6410012  42.0544997  -7.8790012
 136.1920012  41.7514997  -6.4660012 136.7397600  41.6276906  -7.1303621
 144.2290012  51.0244997 -13.5690012 143.9330012  50.7024997 -14.4200012
 143.9040012  51.9244997 -13.5280012 144.1446371  51.1020215 -13.6798199
 139.4290012  49.2004997  -6.8260012 138.6890012  49.7984997  -6.7220012
 140.1430012  49.7544997  -7.1410012 139.4242237  49.3572831  -6.8543535
 136.4530012  43.4164997  -9.1610012 137.0670012  44.0494997  -8.7870012
 136.9650012  42.9444997  -9.8170012 136.6062296  43.4392370  -9.1985748
 137.8360012  51.1644997  -6.0380012 137.8310012  52.0444997  -6.4160012
 136.9830012  51.0814997  -5.6130012 137.7199464  51.2736117  -6.0322093
 133.9570012  50.8354997 -15.2560012 133.6850012  51.0644997 -16.1450012
 134.0030012  51.6734997 -14.7960012 133.9260094  50.9801213 -15.3154303
 140.8860012  38.8304997  -9.6600012 140.7690012  37.8814997  -9.7150012
 140.0310012  39.1624997  -9.3870012 140.7543733  38.7455409  -9.6306103
 143.1530012  47.6674997 -15.1600012 142.4410012  48.2024997 -15.5120012
 143.8440012  47.7234997 -15.8200012 143.1490132  47.7482543 -15.2973711
 143.2060012  46.1254997 -18.1210012 143.9070012  46.1474997 -17.4700012
 143.5090012  45.4974997 -18.7770012 143.3427830  46.0436566 -18.1206289
 138.2040012  48.5074997 -12.3260012 137.8730012  48.1374997 -13.1440012
 138.7920012  47.8374997 -11.9790012 138.2381873  48.3661156 -12.3911898
 139.5700012  51.9354997  -9.6440012 139.4760012  51.3574997 -10.4010012
 140.3000012  51.5644997  -9.1480012 139.6557981  51.8062390  -9.6805835
 138.5700012  47.2764997  -8.6920012 139.1360012  47.3974997  -9.4550012
 138.8890012  47.9134997  -8.0530012 138.6905786  47.3791884  -8.7099960
 144.8790012  52.7794997  -7.9580012 144.6390012  53.4414997  -7.3100012
 144.6810012  51.9454997  -7.5330012 144.8193808  52.7573134  -7.8118476
 139.4500012  51.6754997  -3.9750012 139.1390012  52.4574997  -3.5200012
 138.8000012  51.5224997  -4.6610012 139.3195558  51.7619105  -4.0054129
 136.3700012  47.8734997  -4.7460012 136.4410012  48.5244997  -4.0480012
 135.4800012  47.9764997  -5.0810012 136.2593117  47.9765936  -4.6957300
 143.1560012  53.7764997 -13.0880012 143.6300012  54.0714997 -12.3100012
 142.5930012  54.5144997 -13.3210012 143.1447653  53.9166932 -13.0129864
 137.6900012  53.7474997  -3.2120012 137.6970012  53.6114997  -4.1590012
 136.7740012  53.6294997  -2.9600012 137.5671714  53.7129430  -3.3075334
 137.1940012  47.5774997 -14.7360012 136.9020012  48.3454997 -15.2270012
 136.5200012  46.9174997 -14.8990012 137.0629081  47.5934406 -14.8252660
 133.2870012  49.9404997  -5.9210012 132.7860012  49.9124997  -6.7360012
 133.2920012  49.0344997  -5.6120012 133.2191526  49.8142278  -5.9907128
 133.0370012  52.7204997  -9.0370012 133.9830012  52.5764997  -9.0560012
 132.9250012  53.5044997  -8.5000012 133.1512727  52.8068046  -8.9669928
 142.2140012  52.9604997  -4.4790012 142.3010012  53.7864997  -4.0040012
 141.3500012  52.6304997  -4.2300012 142.1091964  53.0289878  -4.3803451
 142.6280012  56.7324997 -14.6730012 142.5530012  56.6114997 -15.6190012
 142.6610012  57.6824997 -14.5540012 142.6221848  56.8442500 -14.7865166
 136.2810012  55.5214997 -12.8920012 136.4340012  55.1734997 -12.0130012
 135.4310012  55.1654997 -13.1470012 136.1868962  55.4256650 -12.8061660
 135.5360012  51.2634997  -4.8780012 135.7520012  50.9024997  -4.0190012
 134.6810012  50.8894997  -5.0880012 135.4499292  51.1634111  -4.7886614
 138.1550012  39.7334997  -8.8830012 137.2930012  39.6464997  -9.2900012
 138.1320012  40.5894997  -8.4550012 138.0340330  39.8372765  -8.8808137
 142.8180012  39.4554997  -5.5080012 143.2380012  39.0404997  -4.7550012
 141.8850012  39.2774997  -5.3910012 142.7493644  39.3745900  -5.3890461
 142.4790012  41.9484997 -18.2230012 142.2260012  41.9674997 -17.3000012
 142.2230012  41.0764997 -18.5240012 142.4097790  41.8332437 -18.1373737
 138.2460012  44.6994997  -7.7880012 137.6040012  44.6584997  -7.0790012
 138.2830012  45.6254997  -8.0250012 138.1631324  44.8191559  -7.7230176
 138.2430012  44.9204997 -12.8760012 137.3500012  44.5794997 -12.9340012
 138.6930012  44.5434997 -13.6310012 138.1817305  44.8228484 -12.9860823
 143.7780012  45.3364997 -14.0590012 143.3690012  46.1514997 -14.3500012
 144.4990012  45.1964997 -14.6730012 143.8194537  45.4292018 -14.1818658
 142.8800012  45.5114997  -2.5710012 142.3180012  44.8074997  -2.2500012
 143.7070012  45.3914997  -2.1030012 142.9147095  45.3987883  -2.4637670
 144.7830012  44.7824997 -11.2450012 144.5880012  45.3874997 -11.9600012
 144.9640012  43.9484997 -11.6790012 144.7807614  44.7526300 -11.4015595
 135.9960012  45.0194997  -5.9210012 135.9580012  45.4194997  -5.0520012
 135.5050012  44.2024997  -5.8300012 135.9244684  44.9638069  -5.7898941
 139.3620012  42.3934997 -19.1220012 138.9310012  41.9484997 -18.3920012
 138.6440012  42.7654997 -19.6340012 139.2059438  42.3828940 -19.0913201
 132.6040012  42.1354997 -12.0700012 133.2350012  42.1064997 -11.3510012
 133.0530012  41.7104997 -12.8000012 132.7510774  42.0740492 -12.0703447
 133.8780012  42.8814997 -16.6460012 134.3520012  43.4724997 -17.2310012
 133.1610012  43.4124997 -16.2990012 133.8459341  43.0340867 -16.6791164
 144.0470012  46.4204997  -6.5730012 144.3700012  45.7894997  -7.2160012
 143.6070012  45.8854997  -5.9130012 144.0316895  46.2618441  -6.5717150
 140.8240012  42.3474997 -11.7890012 139.9130012  42.4044997 -11.5010012
 141.3300012  42.2874997 -10.9790012 140.7675413  42.3471985 -11.6399378
 135.6530012  43.9764997 -12.9630012 134.7630012  44.0764997 -13.3030012
 135.9490012  43.1344997 -13.3090012 135.5712823  43.8763545 -13.0562787
 139.3060012  43.9764997 -15.3060012 140.2370012  44.1054997 -15.1280012
 139.0910012  44.6464997 -15.9560012 139.4044247  44.0846565 -15.3694253
 137.9800012  45.1714997 -17.7390012 137.4370012  44.7914997 -18.4310012
 138.8130012  45.3654997 -18.1680012 138.0184399  45.1458124 -17.8915474
 136.1150012  49.7284997  -2.6400012 136.8470012  49.9824997  -2.0790012
 135.3350012  49.9324997  -2.1250012 136.1098232  49.7909177  -2.4934240
 142.1440012  45.1354997  -9.9020012 142.7090012  44.5884997 -10.4490012
 141.9970012  44.6134997  -9.1140012 142.2012918  44.9902024  -9.8701546
 137.1460012  41.2714997 -13.4840012 136.8290012  40.3694997 -13.5190012
 137.9280012  41.2734997 -14.0370012 137.2082284  41.1481628 -13.5635217
 140.7710012  43.5234997  -7.4880012 139.9350012  43.9774997  -7.3780012
 141.2950012  43.7994997  -6.7360012 140.7274414  43.6229376  -7.3712864
 141.3150012  49.7364997 -15.8040012 140.5700012  49.2294997 -16.1260012
 141.1810012  49.7854997 -14.8570012 141.1948776  49.6736940 -15.7201353
 142.8340012  49.9204997  -4.5670012 142.4890012  49.5394997  -3.7600012
 142.6340012  50.8544997  -4.4950012 142.7598061  49.9945228  -4.4469039
 136.4400012  49.0314997 -10.0340012 137.1850012  49.0294997 -10.6350012
 136.5180012  48.2084997  -9.5520012 136.5525518  48.9199315 -10.0511071
 143.4410012  51.1954997 -16.7780012 143.1450012  52.0214997 -16.3970012
 142.7380012  50.5754997 -16.5820012 143.3054914  51.2248199 -16.6993557
 133.4480012  47.4924997  -4.7190012 133.6710012  47.0744997  -3.8870012
 132.8460012  46.8794997  -5.1420012 133.3971759  47.3524668  -4.6622978
 140.4640012  47.0094997  -2.5060012 140.1680012  46.8434997  -3.4010012
 141.3960012  46.7894997  -2.5170012 140.5494166  46.9570640  -2.6299464
 138.8150012  52.5494997 -12.6300012 139.3420012  53.3224997 -12.8300012
 137.9350012  52.7744997 -12.9310012 138.7681773  52.6858005 -12.6980990
 134.5700012  47.4114997 -18.0430012 135.1860012  48.0384997 -17.6630012
 133.7080012  47.7274997 -17.7710012 134.5377698  47.5399430 -17.9542817
 140.2420012  50.2124997 -13.0530012 140.0010012  51.1374997 -13.0120012
 139.5010012  49.7534997 -12.6570012 140.1088409  50.2771421 -12.9938623
 140.7570012  54.3614997  -6.7380012 141.1190012  55.2164997  -6.9720012
 141.2880012  54.0694997  -5.9980012 140.8784473  54.4391060  -6.6699145
 138.9250012  55.2344997 -13.5080012 137.9750012  55.3394997 -13.4570012
 139.2770012  56.0544997 -13.1630012 138.8424203  55.3598314 -13.4543350
 144.3010012  50.4604997  -7.0380012 143.8750012  50.2334997  -6.2110012
 144.8810012  49.7224997  -7.2200012 144.3211868  50.3295299  -6.9494170
 135.0820012  42.2454997  -5.1610012 134.1890012  42.5844997  -5.2290012
 134.9830012  41.3904997  -4.7430012 134.9464164  42.1762588  -5.1137765
 134.7330012  54.0504997  -6.7260012 134.9500012  53.1184997  -6.7570012
 134.9790012  54.3244997  -5.8430012 134.7959549  53.9600636  -6.6108237
 140.5950012  52.5014997 -19.5170012 140.8340012  51.7534997 -20.0640012
 140.3260012  52.1134997 -18.6840012 140.5913675  52.3466638 -19.4793135
 139.5320012  52.0714997 -17.0600012 139.6780012  51.5514997 -16.2700012
 139.5290012  52.9784997 -16.7540012 139.5515989  52.1228853 -16.9103912
 135.9850012  49.3244997 -16.5500012 135.2990012  49.6764997 -15.9830012
 136.5070012  50.0874997 -16.7970012 135.9616852  49.4758578 -16.5057882
 143.8160012  41.9864997  -6.2710012 144.5150012  42.0604997  -5.6210012
 143.4350012  41.1224997  -6.1170012 143.8601767  41.8797624  -6.1611678
 144.6010012  41.6384997 -15.1740012 144.8210012  42.1104997 -15.9770012
 145.1590012  42.0334997 -14.5040012 144.7064968  41.7564285 -15.1932669
 142.2690012  53.7694997 -16.3110012 141.4530012  54.2664997 -16.2590012
 142.7990012  54.2444997 -16.9510012 142.2289161  53.9017722 -16.3904044
 141.8010012  43.3664997 -14.3390012 142.6130012  43.8714997 -14.2930012
 141.5560012  43.2214997 -13.4250012 141.8790520  43.4160375 -14.2091483
 142.3360012  44.3524997  -5.1540012 142.4550012  44.9264997  -4.3970012
 142.9920012  43.6644997  -5.0400012 142.4409757  44.3381079  -5.0349175
 142.6840012  40.4474997 -13.4010012 142.3380012  41.0654997 -12.7560012
 143.3430012  40.9484997 -13.8820012 142.7257826  40.5995802 -13.3779029
 139.6080012  54.8134997 -16.3290012 139.7680012  55.6124997 -16.8300012
 139.4100012  55.1194997 -15.4440012 139.6031649  54.9644469 -16.2780185
 138.3420012  41.5104997 -16.7140012 138.2590012  42.3994997 -16.3670012
 139.2320012  41.2454997 -16.4820012 138.4509469  41.5961430 -16.6352374
 136.6010012  51.9384997 -17.6530012 137.1930012  52.6374997 -17.3770012
 137.0600012  51.5054997 -18.3730012 136.7441142  51.9757049 -17.7125170
 134.9170012  44.6024997 -18.5370012 134.8720012  45.5414997 -18.3590012
 134.0290012  44.3664997 -18.8070012 134.7908574  44.6991892 -18.5491088
 135.7250012  39.3844997  -9.8640012 135.4960012  39.4434997 -10.7920012
 135.2820012  38.5924997  -9.5580012 135.6338530  39.2855753  -9.9495214
 134.6550012  53.3244997 -13.7040012 133.8230012  53.7974997 -13.6760012
 135.2010012  53.8344997 -14.3020012 134.6149739  53.4581871 -13.7810284
 133.9430012  55.9374997  -2.3740012 134.4840012  55.7204997  -1.6140012
 133.4620012  55.1314997  -2.5630012 133.9519345  55.7989514  -2.2956924
 138.5410012  54.8564997  -0.7530012 139.3080012  54.3974997  -0.4120012
 138.5190012  54.6304997  -1.6830012 138.6431434  54.7630409  -0.8319957
 142.6330012  54.3644997 -19.3780012 141.9890012  53.7334997 -19.0570012
 143.3950012  53.8334997 -19.6100012 142.6478077  54.2062920 -19.3653989
 133.8500012  49.7474997  -1.4190012 133.9940012  48.8454997  -1.7060012
 133.0780012  50.0334997  -1.9070012 133.7653322  49.6628261  -1.5242119
 138.1920012  50.0914997 -19.2870012 138.2560012  49.2974997 -18.7560012
 138.8450012  49.9724997 -19.9770012 138.2890241  49.9667148 -19.3075683
 140.5060012  49.7174997  -1.9870012 140.1770012  49.9884997  -2.8440012
 140.6580012  48.7764997  -2.0740012 140.4814809  49.6273862  -2.1161756
 134.6830012  46.9474997  -1.9990012 135.0910012  46.0904997  -2.1200012
 134.4230012  46.9624997  -1.0780012 134.7037568  46.8320807  -1.8910412
 139.3410012  48.0634997 -16.9810012 138.8810012  47.5794997 -16.2950012
 139.5960012  47.3954997 -17.6170012 139.3124902  47.9068731 -16.9730666
 138.6300012  45.9564997  -4.6250012 138.0120012  46.6314997  -4.3450012
 138.9740012  46.2774997  -5.4580012 138.5919615  46.0922721  -4.6993419
 140.4120012  46.3064997 -18.7190012 140.2320012  46.1524997 -19.6460012
 141.3620012  46.4144997 -18.6740012 140.5157776  46.3000175 -18.8398157
 143.6500012  48.4284997  -1.3480012 144.6030012  48.5114997  -1.3750012
 143.4890012  47.7164997  -0.7280012 143.7586426  48.3436746  -1.2679421
 138.9690012  43.3114997  -3.5430012 139.1190012  42.5824997  -4.1450012
 138.9720012  44.0884997  -4.1020012 138.9899302  43.3167851  -3.7009308
 139.3820012  41.6814997  -6.0500012 139.9180012  42.1324997  -6.7020012
 138.5300012  41.5734997  -6.4730012 139.3402178  41.7286390  -6.1964244
 140.9640012  47.1204997  -5.8110012 141.7140012  46.9644997  -6.3840012
 140.6250012  47.9724997  -6.0860012 141.0208921  47.2142968  -5.9266439
 137.4480012  44.5094997  -1.6310012 136.6810012  43.9774997  -1.8410012
 138.1270012  44.1994997  -2.2310012 137.4347022  44.3947506  -1.7408352
 140.1880012  39.1374997  -5.6190012 140.0890012  40.0844997  -5.7240012
 139.4450012  38.7654997  -6.0940012 140.0740564  39.2165902  -5.6975440
 141.4520012  43.4594997  -2.0550012 141.2160012  43.2394997  -1.1530012
 140.6680012  43.2524997  -2.5650012 141.3138628  43.4014760  -2.0006068
 144.1670012  42.5864997  -2.9790012 143.2200012  42.6184997  -2.8470012
 144.4800012  41.9614997  -2.3260012 144.0795475  42.5063207  -2.8725545
 135.6280012  42.4304997  -1.9270012 135.8400012  41.7234997  -2.5370012
 135.5170012  41.9924997  -1.0830012 135.6419721  42.2747084  -1.8963157
 140.4090012  38.4314997  -2.9470012 141.1210012  37.7914997  -2.9610012
 140.3080012  38.6984997  -3.8610012 140.4927939  38.3799938  -3.0724350
 140.7630012  40.1144997  -0.8940012 140.6310012  39.6384997  -1.7140012
 140.1640012  40.8584997  -0.9490012 140.6639071  40.1499618  -1.0137114
 140.3090012  56.9974997 -17.7170012 141.2420012  57.1554997 -17.5740012
 140.0450012  57.6724997 -18.3420012 140.4009510  57.1103611 -17.7819259
 133.8780012  51.6334997 -18.2350012 134.7920012  51.7124997 -17.9610012
 133.8850012  50.9464997 -18.9010012 134.0041131  51.5513961 -18.2875607
 132.5270012  57.0264997 -13.1570012 131.8800012  56.5644997 -13.6900012
 132.8810012  56.3544997 -12.5750012 132.4863849  56.8724723 -13.1512041
 133.3970012  55.1074997 -11.3530012 133.0620012  54.2274997 -11.1810012
 133.6190012  55.4524997 -10.4880012 133.3811783  55.0337501 -11.2125792
 133.4770012  48.1824997  -8.9010012 133.6610012  48.1004997  -9.8370012
 134.3260012  48.0584997  -8.4770012 133.6170139  48.1545003  -8.9718545
 133.0740012  43.4534997  -2.7600012 133.9940012  43.3314997  -2.5240012
 132.6250012  42.7034997  -2.3710012 133.1391580  43.3353727  -2.6750994
 134.2950012  41.7654997  -9.8690012 134.7410012  40.9734997  -9.5670012
 134.7620012  42.4814997  -9.4380012 134.4190172  41.7540624  -9.7695180
 132.5990012  44.7644997  -8.8000012 133.0910012  44.5434997  -9.5910012
 132.9620012  45.6054997  -8.5190012 132.7153126  44.8478357  -8.8702469
 132.9130012  41.0224997 -14.7460012 131.9880012  41.2314997 -14.8750012
 133.3670012  41.5064997 -15.4350012 132.8477368  41.1165993 -14.8568774
 132.8770012  39.7604997  -6.4010012 132.2120012  39.5144997  -5.7580012
 132.4340012  40.3824997  -6.9790012 132.7260956  39.8108632  -6.3910648
 135.0690012  52.9354997  -2.2570012 134.2480012  53.1104997  -2.7170012
 134.8160012  52.8624997  -1.3360012 134.9226164  52.9495622  -2.1955077
 138.0230012  53.9104997  -5.9980012 137.5980012  54.7194997  -6.2810012
 138.9270012  53.9954997  -6.3000012 138.0870271  54.0328469  -6.0776224
 142.3340012  55.3094997  -3.0390012 142.5190012  54.9754997  -2.1610012
 143.1800012  55.6184997  -3.3610012 142.4737539  55.3056047  -2.9624395
 144.6790012  56.5954997  -3.7950012 145.3560012  55.9624997  -4.0350012
 145.0010012  56.9964997  -2.9880012 144.8151637  56.5631154  -3.7187207
 135.4250012  57.1664997  -5.9510012 134.7040012  57.6064997  -6.4020012
 135.0590012  56.9154997  -5.1020012 135.2769804  57.1927698  -5.8980160
 137.8920012  56.7664997  -6.9210012 137.0270012  56.8384997  -6.5170012
 137.8370012  57.3134997  -7.7050012 137.7662085  56.8502685  -6.9716638
 142.6020012  56.6544997  -7.7460012 142.1460012  57.1834997  -8.4000012
 142.7650012  57.2574997  -7.0200012 142.5615585  56.8084468  -7.7374938
 134.8390012  55.7894997  -9.0410012 134.8210012  55.3644997  -8.1830012
 135.6440012  55.4714997  -9.4490012 134.9453875  55.6883812  -8.9788345
 136.9810012  54.4994997 -10.3860012 136.7620012  53.5834997 -10.2160012
 137.8050012  54.6394997  -9.9200012 137.0624420  54.3930520 -10.2997226
 139.5180012  54.9694997  -9.5370012 139.7310012  54.0814997  -9.8240012
 139.5820012  54.9354997  -8.5830012 139.5558231  54.8433102  -9.4472603
 143.0260012  40.6334997 -10.3930012 142.3520012  40.0044997 -10.1370012
 143.5900012  40.1494997 -10.9960012 143.0099230  40.4818744 -10.4394660
 135.3530012  39.2674997 -12.5710012 134.5760012  39.0334997 -13.0780012
 135.8830012  38.4704997 -12.5620012 135.3182330  39.1276988 -12.6392258
 134.1890012  39.0654997 -16.7670012 134.6280012  39.6764997 -17.3590012
 133.5560012  39.6034997 -16.2930012 134.1634514  39.2219257 -16.7839070
 139.9320012  39.1944997 -12.7570012 140.8070012  39.5824997 -12.7870012
 139.7960012  38.9794997 -11.8350012 140.0333695  39.2185184 -12.6363560
 134.0900012  55.0134997 -15.8690012 133.4050012  54.9754997 -16.5370012
 134.0940012  55.9264997 -15.5810012 133.9968193  55.1317016 -15.9214716
 136.0500012  40.9814997 -18.3250012 136.5420012  40.3514997 -18.8520012
 136.6740012  41.2774997 -17.6610012 136.2015446  40.9353199 -18.3074020
 141.0760012  41.2744997 -15.8680012 141.2540012  40.6284997 -15.1850012
 141.0230012  42.1084997 -15.4000012 141.0931829  41.2987985 -15.7114060
 142.9550012  56.2234997 -17.4720012 143.8210012  56.5894997 -17.6500012
 142.7080012  55.7834997 -18.2860012 143.0402392  56.2141756 -17.6063711
 135.3110012  39.7814997  -3.0530012 134.9450012  39.0164997  -2.6100012
 136.2240012  39.8104997  -2.7660012 135.3842790  39.6807224  -2.9535930
 137.2840012  39.1324997  -1.5170012 138.1820012  38.8584997  -1.7020012
 136.8970012  38.3894997  -1.0530012 137.3546612  38.9945914  -1.4796357
 135.9080012  55.9334997 -18.8440012 135.6410012  56.2204997 -17.9710012
 136.6800012  55.3874997 -18.6920012 135.9757488  55.8990294 -18.7038950
  12.4390012  67.2794997 -12.6120012  12.5280012  68.2234997 -12.7440012
  11.8010012  67.0044997 -13.2700012  12.3649081  67.3714830 -12.7190386
  11.3720012  66.5344997  -9.1930012  11.3340012  65.8884997  -8.4880012
  11.0500012  66.0684997  -9.9640012  11.3232333  66.3829408  -9.2007022
   3.7410012  66.1494997  -7.6000012   3.7820012  65.5234997  -6.8770012
   4.4440012  66.7734997  -7.4180012   3.8416363  66.1481196  -7.4763956
  15.0780012  69.4734997 -10.8920012  14.6380012  68.7534997 -10.4410012
  15.0650012  70.1944997 -10.2620012  15.0160226  69.4723731 -10.7451506
   4.6640012  70.5994997  -9.0650012   4.2950012  69.7974997  -9.4350012
   5.6050012  70.4304997  -9.0190012   4.7407289  70.4670153  -9.1093684
   1.2740012  64.2594997 -13.6720012   0.8270012  65.1054997 -13.6910012
   0.7130012  63.6794997 -14.1880012   1.1369900  64.2969916 -13.7443199
   1.9850012  66.4214997 -11.5460012   2.1980012  65.6514997 -11.0190012
   2.7230012  66.5104997 -12.1500012   2.1138496  66.3281394 -11.5554700
  12.1900012  74.5784997 -10.6790012  12.8100012  73.9014997 -10.9530012
  11.9820012  74.3604997  -9.7710012  12.2466904  74.4563870 -10.5936635
   9.7620012  68.9674997  -8.7870012  10.0660012  68.2814997  -9.3820012
  10.4830012  69.0854997  -8.1690012   9.9010671  68.8896305  -8.7848184
  18.4250012  60.5684997  -7.9260012  18.4740012  61.1784997  -7.1900012
  18.8500012  61.0294997  -8.6490012  18.4891824  60.7143741  -7.9229795
  12.9030012  63.3614997  -8.4590012  13.0450012  62.4154997  -8.4390012
  12.7960012  63.5684997  -9.3880012  12.9079864  63.2599534  -8.5817661
   6.0570012  61.4624997 -11.1870012   6.1010012  62.3224997 -11.6050012
   5.6000012  60.9104997 -11.8210012   6.0012185  61.5055799 -11.3299701
  13.7800012  61.5934997 -12.7860012  14.4260012  61.2644997 -12.1610012
  14.2900012  62.1114997 -13.4090012  13.9374264  61.6184611 -12.7846138
   2.6780012  63.8594997 -10.4250012   3.3310012  63.3094997  -9.9930012
   2.7020012  63.5854997 -11.3420012   2.7706683  63.7471466 -10.4897877
   7.8340012  65.4094997 -11.2100012   8.4500012  64.8834997 -10.7000012
   7.2480012  64.7694997 -11.6130012   7.8390810  65.2509208 -11.1946827
  18.8160012  62.0464997  -5.6900012  18.1280012  62.7044997  -5.7860012
  18.8320012  61.8494997  -4.7540012  18.7238525  62.1100462  -5.5765192
   4.8680012  60.3804997  -7.1130012   4.6490012  60.9104997  -7.8790012
   4.2000012  60.6074997  -6.4660012   4.7477600  60.4836906  -7.1303621
  12.2370012  69.8804997 -13.5690012  11.9410012  69.5584997 -14.4200012
  11.9120012  70.7804997 -13.5280012  12.1526371  69.9580215 -13.6798199
   7.4370012  68.0564997  -6.8260012   6.6970012  68.6544997  -6.7220012
   8.1510012  68.6104997  -7.1410012   7.4322237  68.2132831  -6.8543535
  15.5440012  60.8844997 -10.8060012  15.3280012  60.1184997 -10.2730012
  16.1990012  61.3564997 -10.2930012  15.6030632  60.8435889 -10.6637139
   4.4610012  62.2724997  -9.1610012   5.0750012  62.9054997  -8.7870012
   4.9730012  61.8004997  -9.8170012   4.6142296  62.2952370  -9.1985748
   5.8440012  70.0204997  -6.0380012   5.8390012  70.9004997  -6.4160012
   4.9910012  69.9374997  -5.6130012   5.7279464  70.1296117  -6.0322093
   1.9650012  69.6914997 -15.2560012   1.6930012  69.9204997 -16.1450012
   2.0110012  70.5294997 -14.7960012   1.9340094  69.8361213 -15.3154303
  15.5900012  71.3134997  -8.5440012  14.6490012  71.3714997  -8.3820012
  15.8670012  72.2194997  -8.6810012  15.4984679  71.4439443  -8.5403185
  15.8910012  59.5994997  -7.1260012  15.1550012  60.2104997  -7.1640012
  16.5740012  60.0144997  -7.6530012  15.8826541  59.7391374  -7.2024168
   8.8940012  57.6864997  -9.6600012   8.7770012  56.7374997  -9.7150012
   8.0390012  58.0184997  -9.3870012   8.7623733  57.6015409  -9.6306103
  13.8420012  73.0944997 -11.9180012  14.2680012  72.3874997 -12.4030012
  14.1590012  73.8954997 -12.3350012  13.9431019  73.1060994 -12.0406870
  15.0020012  70.9954997 -13.4100012  14.7440012  70.3054997 -14.0210012
  15.0730012  70.5524997 -12.5640012  14.9762856  70.8412124 -13.3793115
  16.6880012  69.5614997  -4.9320012  16.8280012  68.9704997  -5.6720012
  16.8550012  70.4344997  -5.2890012  16.7296778  69.5986426  -5.0813035
  11.1610012  66.5234997 -15.1600012  10.4490012  67.0584997 -15.5120012
  11.8520012  66.5794997 -15.8200012  11.1570132  66.6042543 -15.2973711
  11.2140012  64.9814997 -18.1210012  11.9150012  65.0034997 -17.4700012
  11.5170012  64.3534997 -18.7770012  11.3507830  64.8996566 -18.1206289
  18.5300012  65.9014997  -6.8660012  17.8770012  66.5964997  -6.7770012
  18.9950012  66.1114997  -7.6760012  18.5035390  66.0249425  -6.9633117
  14.5660012  66.7334997 -14.2080012  13.8340012  66.9614997 -13.6350012
  15.0140012  66.0194997 -13.7530012  14.5263095  66.6682571 -14.0680881
  14.4640012  64.9074997  -5.1410012  14.5440012  65.6704997  -4.5690012
  13.8620012  65.1864997  -5.8310012  14.3935756  65.0497134  -5.1559411
   6.2120012  67.3634997 -12.3260012   5.8810012  66.9934997 -13.1440012
   6.8000012  66.6934997 -11.9790012   6.2461873  67.2221156 -12.3911898
   7.5780012  70.7914997  -9.6440012   7.4840012  70.2134997 -10.4010012
   8.3080012  70.4204997  -9.1480012   7.6637981  70.6622390  -9.6805835
   6.5780012  66.1324997  -8.6920012   7.1440012  66.2534997  -9.4550012
   6.8970012  66.7694997  -8.0530012   6.6985786  66.2351884  -8.7099960
  12.8870012  71.6354997  -7.9580012  12.6470012  72.2974997  -7.3100012
  12.6890012  70.8014997  -7.5330012  12.8273808  71.6133134  -7.8118476
   7.4580012  70.5314997  -3.9750012   7.1470012  71.3134997  -3.5200012
   6.8080012  70.3784997  -4.6610012   7.3275558  70.6179105  -4.0054129
  13.4370012  65.8954997 -16.5230012  14.0170012  66.0454997 -15.7760012
  13.8510012  66.3664997 -17.2460012  13.5722830  65.9796841 -16.5185866
   4.3780012  66.7294997  -4.7460012   4.4490012  67.3804997  -4.0480012
   3.4880012  66.8324997  -5.0810012   4.2673117  66.8325936  -4.6957300
  11.1640012  72.6324997 -13.0880012  11.6380012  72.9274997 -12.3100012
  10.6010012  73.3704997 -13.3210012  11.1527653  72.7726932 -13.0129864
   5.6980012  72.6034997  -3.2120012   5.7050012  72.4674997  -4.1590012
   4.7820012  72.4854997  -2.9600012   5.5751714  72.5689430  -3.3075334
  17.1360012  57.6454997 -16.7100012  16.2360012  57.7844997 -16.4150012
  17.3880012  58.4764997 -17.1120012  17.0468702  57.7769074 -16.7239795
   5.2020012  66.4334997 -14.7360012   4.9100012  67.2014997 -15.2270012
   4.5280012  65.7734997 -14.8990012   5.0709081  66.4494406 -14.8252661
  18.3250012  72.0114997 -18.3340012  18.3990012  72.9504997 -18.1630012
  19.2310012  71.7064997 -18.3900012  18.4575100  72.0986722 -18.3181881
   1.2950012  68.7964997  -5.9210012   0.7940012  68.7684997  -6.7360012
   1.3000012  67.8904997  -5.6120012   1.2271526  68.6702278  -5.9907128
   1.0450012  71.5764997  -9.0370012   1.9910012  71.4324997  -9.0560012
   0.9330012  72.3604997  -8.5000012   1.1592727  71.6628046  -8.9669928
  19.2430012  72.2424997  -3.3550012  19.1940012  71.2874997  -3.3920012
  18.4160012  72.5104997  -2.9540012  19.1244940  72.1478998  -3.3058625
  10.2220012  71.8164997  -4.4790012  10.3090012  72.6424997  -4.0040012
   9.3580012  71.4864997  -4.2300012  10.1171964  71.8849878  -4.3803451
  10.6360012  75.5884997 -14.6730012  10.5610012  75.4674997 -15.6190012
  10.6690012  76.5384997 -14.5540012  10.6301848  75.7002500 -14.7865166
   4.2890012  74.3774997 -12.8920012   4.4420012  74.0294997 -12.0130012
   3.4390012  74.0214997 -13.1470012   4.1948962  74.2816650 -12.8061660
  13.7380012  74.7424997 -17.6710012  14.1130012  73.9984997 -18.1410012
  13.7420012  74.4724997 -16.7520012  13.7898915  74.6041486 -17.6112176
  13.4070012  74.6684997 -14.9210012  12.4710012  74.7684997 -14.7430012
  13.6870012  73.9594997 -14.3430012  13.3168255  74.5862711 -14.8184609
  16.3950012  63.7354997  -2.8750012  15.9880012  64.2164997  -3.5960012
  16.4360012  62.8304997  -3.1830012  16.3448437  63.6789374  -3.0153317
   3.5440012  70.1194997  -4.8780012   3.7600012  69.7584997  -4.0190012
   2.6890012  69.7454997  -5.0880012   3.4579292  70.0194111  -4.7886614
   6.1630012  58.5894997  -8.8830012   5.3010012  58.5024997  -9.2900012
   6.1400012  59.4454997  -8.4550012   6.0420330  58.6932765  -8.8808137
  10.8260012  58.3114997  -5.5080012  11.2460012  57.8964997  -4.7550012
   9.8930012  58.1334997  -5.3910012  10.7573644  58.2305900  -5.3890461
  14.1520012  62.0674997  -4.6550012  13.6380012  61.9414997  -3.8570012
  13.9970012  62.9794997  -4.8990012  14.0606852  62.1736132  -4.5787842
  14.9150012  66.9284997 -18.8930012  14.9570012  66.7054997 -19.8230012
  15.7640012  67.3274997 -18.7030012  15.0355396  66.9519155 -18.9946373
  10.4870012  60.8044997 -18.2230012  10.2340012  60.8234997 -17.3000012
  10.2310012  59.9324997 -18.5240012  10.4177790  60.6892437 -18.1373737
   6.2540012  63.5554997  -7.7880012   5.6120012  63.5144997  -7.0790012
   6.2910012  64.4814997  -8.0250012   6.1711324  63.6751559  -7.7230176
   6.2510012  63.7764997 -12.8760012   5.3580012  63.4354997 -12.9340012
   6.7010012  63.3994997 -13.6310012   6.1897305  63.6788484 -12.9860823
  11.7860012  64.1924997 -14.0590012  11.3770012  65.0074997 -14.3500012
  12.5070012  64.0524997 -14.6730012  11.8274537  64.2852018 -14.1818658
  10.8880012  64.3674997  -2.5710012  10.3260012  63.6634997  -2.2500012
  11.7150012  64.2474997  -2.1030012  10.9227095  64.2547883  -2.4637670
  12.7910012  63.6384997 -11.2450012  12.5960012  64.2434997 -11.9600012
  12.9720012  62.8044997 -11.6790012  12.7887614  63.6086300 -11.4015595
   4.0040012  63.8754997  -5.9210012   3.9660012  64.2754997  -5.0520012
   3.5130012  63.0584997  -5.8300012   3.9324684  63.8198069  -5.7898941
   7.3700012  61.2494997 -19.1220012   6.9390012  60.8044997 -18.3920012
   6.6520012  61.6214997 -19.6340012   7.2139438  61.2388940 -19.0913201
   0.6120012  60.9914997 -12.0700012   1.2430012  60.9624997 -11.3510012
   1.0610012  60.5664997 -12.8000012   0.7590774  60.9300492 -12.0703447
   1.8860012  61.7374997 -16.6460012   2.3600012  62.3284997 -17.2310012
   1.1690012  62.2684997 -16.2990012   1.8539341  61.8900867 -16.6791164
  12.0550012  65.2764997  -6.5730012  12.3780012  64.6454997  -7.2160012
  11.6150012  64.7414997  -5.9130012  12.0396895  65.1178441  -6.5717150
   8.8320012  61.2034997 -11.7890012   7.9210012  61.2604997 -11.5010012
   9.3380012  61.1434997 -10.9790012   8.7755413  61.2031985 -11.6399378
   3.6610012  62.8324997 -12.9630012   2.7710012  62.9324997 -13.3030012
   3.9570012  61.9904997 -13.3090012   3.5792823  62.7323545 -13.0562787
   7.3140012  62.8324997 -15.3060012   8.2450012  62.9614997 -15.1280012
   7.0990012  63.5024997 -15.9560012   7.4124247  62.9406565 -15.3694253
  13.2370012  60.4384997  -8.5250012  12.5610012  60.5694997  -7.8610012
  12.7520012  60.2834997  -9.3350012  13.0787145  60.4354905  -8.5435483
   5.9880012  64.0274997 -17.7390012   5.4450012  63.6474997 -18.4310012
   6.8210012  64.2214997 -18.1680012   6.0264399  64.0018124 -17.8915474
  16.5250012  76.1104997  -2.2480012  16.7250012  76.5344997  -3.0830012
  17.1800012  76.4534997  -1.6410012  16.6410051  76.2149648  -2.2802164
   4.1230012  68.5844997  -2.6400012   4.8550012  68.8384997  -2.0790012
   3.3430012  68.7884997  -2.1250012   4.1178232  68.6469177  -2.4934240
  10.1520012  63.9914997  -9.9020012  10.7170012  63.4444997 -10.4490012
  10.0050012  63.4694997  -9.1140012  10.2092918  63.8462024  -9.8701546
   5.1540012  60.1274997 -13.4840012   4.8370012  59.2254997 -13.5190012
   5.9360012  60.1294997 -14.0370012   5.2162284  60.0041628 -13.5635217
   8.7790012  62.3794997  -7.4880012   7.9430012  62.8334997  -7.3780012
   9.3030012  62.6554997  -6.7360012   8.7354414  62.4789376  -7.3712864
   9.3230012  68.5924997 -15.8040012   8.5780012  68.0854997 -16.1260012
   9.1890012  68.6414997 -14.8570012   9.2028776  68.5296940 -15.7201353
  16.4730012  67.7254997  -7.0170012  17.1150012  68.1824997  -7.5610012
  15.6430012  67.8384997  -7.4800012  16.4485963  67.8032704  -7.1539823
  13.2210012  61.4064997 -17.6040012  12.2820012  61.5184997 -17.7560012
  13.5180012  62.2634997 -17.2980012  13.1327666  61.5376443 -17.5834232
  10.8420012  68.7764997  -4.5670012  10.4970012  68.3954997  -3.7600012
  10.6420012  69.7104997  -4.4950012  10.7678061  68.8505228  -4.4469039
  13.9390012  63.2734997 -15.9440012  14.8310012  63.1364997 -15.6250012
  13.9960012  64.0644997 -16.4800012  14.0686285  63.3616660 -15.9728310
   4.4480012  67.8874997 -10.0340012   5.1930012  67.8854997 -10.6350012
   4.5260012  67.0644997  -9.5520012   4.5605518  67.7759315 -10.0511071
  11.4490012  70.0514997 -16.7780012  11.1530012  70.8774997 -16.3970012
  10.7460012  69.4314997 -16.5820012  11.3134914  70.0808199 -16.6993557
   1.4560012  66.3484997  -4.7190012   1.6790012  65.9304997  -3.8870012
   0.8540012  65.7354997  -5.1420012   1.4051759  66.2084668  -4.6622978
   8.4720012  65.8654997  -2.5060012   8.1760012  65.6994997  -3.4010012
   9.4040012  65.6454997  -2.5170012   8.5574166  65.8130640  -2.6299464
  13.0930012  71.2384997  -4.6160012  12.1920012  71.4214997  -4.8840012
  13.1270012  71.4974997  -3.6950012  12.9743041  71.2985512  -4.5281803
  18.8240012  63.4834997 -16.2490012  18.2700012  63.0874997 -16.9210012
  18.9240012  64.3934997 -16.5270012  18.7617059  63.5523586 -16.3785599
  18.7870012  69.2834997  -3.4120012  17.9360012  69.5214997  -3.7790012
  19.3780012  69.2664997  -4.1650012  18.7502487  69.3138258  -3.5641107
  17.1190012  72.2694997 -15.7840012  16.7460012  71.4434997 -15.4750012
  17.3970012  72.0864997 -16.6810012  17.1055630  72.1317303 -15.8630374
  14.2800012  67.0774997  -8.7630012  13.3510012  66.8454997  -8.7900012
  14.7310012  66.3004997  -9.0930012  14.2139216  66.9407238  -8.8113083
   6.8230012  71.4054997 -12.6300012   7.3500012  72.1784997 -12.8300012
   5.9430012  71.6304997 -12.9310012   6.7761773  71.5418005 -12.6980990
   2.5780012  66.2674997 -18.0430012   3.1940012  66.8944997 -17.6630012
   1.7160012  66.5834997 -17.7710012   2.5457698  66.3959430 -17.9542817
   8.2500012  69.0684997 -13.0530012   8.0090012  69.9934997 -13.0120012
   7.5090012  68.6094997 -12.6570012   8.1168409  69.1331421 -12.9938623
   8.7650012  73.2174997  -6.7380012   9.1270012  74.0724997  -6.9720012
   9.2960012  72.9254997  -5.9980012   8.8864473  73.2951060  -6.6699145
   6.9330012  74.0904997 -13.5080012   5.9830012  74.1954997 -13.4570012
   7.2850012  74.9104997 -13.1630012   6.8504203  74.2158314 -13.4543350
  12.3090012  69.3164997  -7.0380012  11.8830012  69.0894997  -6.2110012
  12.8890012  68.5784997  -7.2200012  12.3291868  69.1855299  -6.9494170
  14.5120012  70.2454997 -17.9640012  14.8650012  69.8654997 -17.1590012
  13.5630012  70.1524997 -17.8770012  14.4320441  70.1809596 -17.8421441
  14.9670012  73.8684997  -4.5680012  14.3660012  73.3134997  -5.0640012
  15.2490012  74.5354997  -5.1940012  14.9228519  73.8826841  -4.7205048
  19.0150012  74.7254997 -17.7630012  19.7590012  75.3114997 -17.9030012
  18.3210012  75.2934997 -17.4290012  19.0230292  74.8825582 -17.7370039
   3.0900012  61.1014997  -5.1610012   2.1970012  61.4404997  -5.2290012
   2.9910012  60.2464997  -4.7430012   2.9544164  61.0322588  -5.1137765
  15.3780012  68.9184997 -15.7370012  15.1000012  68.1904997 -15.1810012
  16.3050012  69.0374997 -15.5320012  15.4653124  68.8348802 -15.6331155
   2.7410012  72.9064997  -6.7260012   2.9580012  71.9744997  -6.7570012
   2.9870012  73.1804997  -5.8430012   2.8039549  72.8160636  -6.6108237
   8.6030012  71.3574997 -19.5170012   8.8420012  70.6094997 -20.0640012
   8.3340012  70.9694997 -18.6840012   8.5993675  71.2026638 -19.4793135
   7.5400012  70.9274997 -17.0600012   7.6860012  70.4074997 -16.2700012
   7.5370012  71.8344997 -16.7540012   7.5595989  70.9788853 -16.9103912
   3.9930012  68.1804997 -16.5500012   3.3070012  68.5324997 -15.9830012
   4.5150012  68.9434997 -16.7970012   3.9696852  68.3318578 -16.5057882
  11.8240012  60.8424997  -6.2710012  12.5230012  60.9164997  -5.6210012
  11.4430012  59.9784997  -6.1170012  11.8681767  60.7357624  -6.1611678
  12.6090012  60.4944997 -15.1740012  12.8290012  60.9664997 -15.9770012
  13.1670012  60.8894997 -14.5040012  12.7144968  60.6124285 -15.1932669
  10.2770012  72.6254997 -16.3110012   9.4610012  73.1224997 -16.2590012
  10.8070012  73.1004997 -16.9510012  10.2369161  72.7577722 -16.3904044
   9.8090012  62.2224997 -14.3390012  10.6210012  62.7274997 -14.2930012
   9.5640012  62.0774997 -13.4250012   9.8870520  62.2720375 -14.2091483
  10.3440012  63.2084997  -5.1540012  10.4630012  63.7824997  -4.3970012
  11.0000012  62.5204997  -5.0400012  10.4489757  63.1941079  -5.0349175
  10.6920012  59.3034997 -13.4010012  10.3460012  59.9214997 -12.7560012
  11.3510012  59.8044997 -13.8820012  10.7337826  59.4555802 -13.3779029
   7.6160012  73.6694997 -16.3290012   7.7760012  74.4684997 -16.8300012
   7.4180012  73.9754997 -15.4440012   7.6111649  73.8204469 -16.2780185
   6.3500012  60.3664997 -16.7140012   6.2670012  61.2554997 -16.3670012
   7.2400012  60.1014997 -16.4820012   6.4589469  60.4521430 -16.6352374
  16.5490012  61.1154997  -4.3190012  15.6320012  61.3784997  -4.4070012
  16.8840012  61.1124997  -5.2160012  16.4689900  61.1510224  -4.4522081
  15.1510012  64.8664997 -10.2240012  14.3530012  64.4514997 -10.5520012
  15.5960012  64.1754997  -9.7330012  15.1019885  64.7163543 -10.2025111
   4.6090012  70.7944997 -17.6530012   5.2010012  71.4934997 -17.3770012
   5.0680012  70.3614997 -18.3730012   4.7521142  70.8317049 -17.7125170
   2.9250012  63.4584997 -18.5370012   2.8800012  64.3974997 -18.3590012
   2.0370012  63.2224997 -18.8070012   2.7988574  63.5551892 -18.5491088
  16.2370012  74.1224997  -8.6010012  16.0820012  74.8004997  -9.2580012
  17.1700012  74.1944997  -8.3980012  16.3418500  74.2250170  -8.6634881
   3.7330012  58.2404997  -9.8640012   3.5040012  58.2994997 -10.7920012
   3.2900012  57.4484997  -9.5580012   3.6418530  58.1415753  -9.9495214
   2.6630012  72.1804997 -13.7040012   1.8310012  72.6534997 -13.6760012
   3.2090012  72.6904997 -14.3020012   2.6229739  72.3141871 -13.7810284
   1.9510012  74.7934997  -2.3740012   2.4920012  74.5764997  -1.6140012
   1.4700012  73.9874997  -2.5630012   1.9599345  74.6549514  -2.2956924
   6.5490012  73.7124997  -0.7530012   7.3160012  73.2534997  -0.4120012
   6.5270012  73.4864997  -1.6830012   6.6511434  73.6190409  -0.8319957
  10.6410012  73.2204997 -19.3780012   9.9970012  72.5894997 -19.0570012
  11.4030012  72.6894997 -19.6100012  10.6558077  73.0622920 -19.3653989
  13.1260012  72.0924997  -2.0240012  12.7750012  71.2364997  -1.7810012
  13.8520012  72.2354997  -1.4170012  13.1760769  71.9945636  -1.9086381
  15.2450012  73.0374997 -19.1440012  15.5280012  72.2434997 -18.6920012
  15.9850012  73.2704997 -19.7050012  15.3837486  72.9602803 -19.1579302
   1.8580012  68.6034997  -1.4190012   2.0020012  67.7014997  -1.7060012
   1.0860012  68.8894997  -1.9070012   1.7733322  68.5188261  -1.5242119
   6.2000012  68.9474997 -19.2870012   6.2640012  68.1534997 -18.7560012
   6.8530012  68.8284997 -19.9770012   6.2970241  68.8227148 -19.3075683
   8.5140012  68.5734997  -1.9870012   8.1850012  68.8444997  -2.8440012
   8.6660012  67.6324997  -2.0740012   8.4894809  68.4833862  -2.1161756
  14.2480012  68.4894997  -4.6030012  14.9940012  69.0774997  -4.7230012
  13.4910012  69.0714997  -4.5400012  14.2477554  68.6487011  -4.6109093
   2.6910012  65.8034997  -1.9990012   3.0990012  64.9464997  -2.1200012
   2.4310012  65.8184997  -1.0780012   2.7117568  65.6880807  -1.8910412
   7.3490012  66.9194997 -16.9810012   6.8890012  66.4354997 -16.2950012
   7.6040012  66.2514997 -17.6170012   7.3204902  66.7628731 -16.9730666
   6.6380012  64.8124997  -4.6250012   6.0200012  65.4874997  -4.3450012
   6.9820012  65.1334997  -5.4580012   6.5999615  64.9482721  -4.6993419
   8.4200012  65.1624997 -18.7190012   8.2400012  65.0084997 -19.6460012
   9.3700012  65.2704997 -18.6740012   8.5237776  65.1560175 -18.8398157
  11.6580012  67.2844997  -1.3480012  12.6110012  67.3674997  -1.3750012
  11.4970012  66.5724997  -0.7280012  11.7666426  67.1996746  -1.2679421
  17.8100012  67.5174997 -19.2730012  17.5360012  67.0924997 -20.0860012
  17.8490012  68.4484997 -19.4900012  17.7777699  67.5852484 -19.4136390
   6.9770012  62.1674997  -3.5430012   7.1270012  61.4384997  -4.1450012
   6.9800012  62.9444997  -4.1020012   6.9979302  62.1727851  -3.7009308
   7.3900012  60.5374997  -6.0500012   7.9260012  60.9884997  -6.7020012
   6.5380012  60.4294997  -6.4730012   7.3482178  60.5846390  -6.1964244
   8.9720012  65.9764997  -5.8110012   9.7220012  65.8204997  -6.3840012
   8.6330012  66.8284997  -6.0860012   9.0288921  66.0702968  -5.9266439
  13.3870012  63.7914997  -0.7820012  13.5800012  62.8604997  -0.8940012
  14.2450012  64.2164997  -0.7920012  13.5293020  63.7216389  -0.7986639
  14.7040012  66.5804997  -2.7050012  14.4230012  67.2894997  -3.2820012
  15.6470012  66.5074997  -2.8560012  14.7929027  66.6677646  -2.8044449
   5.4560012  63.3654997  -1.6310012   4.6890012  62.8334997  -1.8410012
   6.1350012  63.0554997  -2.2310012   5.4427022  63.2507506  -1.7408352
   8.1960012  57.9934997  -5.6190012   8.0970012  58.9404997  -5.7240012
   7.4530012  57.6214997  -6.0940012   8.0820564  58.0725902  -5.6975440
   9.4600012  62.3154997  -2.0550012   9.2240012  62.0954997  -1.1530012
   8.6760012  62.1084997  -2.5650012   9.3218628  62.2574760  -2.0006068
  12.1750012  61.4424997  -2.9790012  11.2280012  61.4744997  -2.8470012
  12.4880012  60.8174997  -2.3260012  12.0875475  61.3623207  -2.8725545
  13.8090012  60.0764997  -0.9740012  13.7130012  59.1244997  -0.9800012
  13.4880012  60.3454997  -0.1140012  13.7524070  59.9824035  -0.8584559
   3.6360012  61.2864997  -1.9270012   3.8480012  60.5794997  -2.5370012
   3.5250012  60.8484997  -1.0830012   3.6499721  61.1307084  -1.8963157
   8.4170012  57.2874997  -2.9470012   9.1290012  56.6474997  -2.9610012
   8.3160012  57.5544997  -3.8610012   8.5007939  57.2359938  -3.0724350
   8.7710012  58.9704997  -0.8940012   8.6390012  58.4944997  -1.7140012
   8.1720012  59.7144997  -0.9490012   8.6719071  59.0059618  -1.0137114
   8.3170012  75.8534997 -17.7170012   9.2500012  76.0114997 -17.5740012
   8.0530012  76.5284997 -18.3420012   8.4089510  75.9663611 -17.7819259
   1.8860012  70.4894997 -18.2350012   2.8000012  70.5684997 -17.9610012
   1.8930012  69.8024997 -18.9010012   2.0121131  70.4073961 -18.2875607
   0.5350012  75.8824997 -13.1570012  -0.1119988  75.4204997 -13.6900012
   0.8890012  75.2104997 -12.5750012   0.4943849  75.7284723 -13.1512041
   1.4050012  73.9634997 -11.3530012   1.0700012  73.0834997 -11.1810012
   1.6270012  74.3084997 -10.4880012   1.3891783  73.8897500 -11.2125792
  18.9530012  74.7724997  -8.3720012  18.9320012  74.9574997  -7.4330012
  19.6440012  75.3414997  -8.7130012  19.0434618  74.8746606  -8.2896136
  18.5170012  74.3404997  -5.4500012  18.0290012  73.6044997  -5.8210012
  19.0660012  73.9464997  -4.7720012  18.5244872  74.1866249  -5.4090840
  16.9670012  70.1294997  -0.8120012  16.1010012  70.0244997  -0.4180012
  17.3440012  70.8884997  -0.3660012  16.8993308  70.2176900  -0.6977607
  18.2680012  68.3864997 -15.2980012  19.1180012  68.8074997 -15.1710012
  18.2740012  67.6464997 -14.6910012  18.3851372  68.3440803 -15.1985656
  18.6630012  66.4394997 -13.4740012  17.9360012  65.9604997 -13.0770012
  19.2440012  66.6454997 -12.7420012  18.6419375  66.4017090 -13.3205871
  18.4220012  69.2244997  -8.5270012  19.2550012  68.8464997  -8.8070012
  18.5340012  70.1674997  -8.6460012  18.5512647  69.3002218  -8.5814513
  16.9080012  72.1024997  -6.2200012  16.2610012  72.4274997  -5.5940012
  16.3910012  71.6624997  -6.8940012  16.7494029  72.0875004  -6.2254173
  18.9310012  66.3404997 -17.0830012  18.4090012  66.6974997 -17.8020012
  18.8980012  67.0154997 -16.4050012  18.8551634  66.4805413 -17.0896855
  17.2800012  63.5804997 -18.5320012  17.3760012  64.2474997 -19.2130012
  17.1400012  62.7644997 -19.0140012  17.2742135  63.5614500 -18.6901509
  16.4490012  64.9604997 -12.9110012  16.2990012  64.0154997 -12.9320012
  16.0960012  65.2414997 -12.0680012  16.3806625  64.8690441 -12.7997654
   1.4850012  67.0384997  -8.9010012   1.6690012  66.9564997  -9.8370012
   2.3340012  66.9144997  -8.4770012   1.6250139  67.0105003  -8.9718545
  17.3060012  66.9304997  -3.2730012  17.8890012  66.1964997  -3.0810012
  17.8700012  67.7024997  -3.2260012  17.4619769  66.9344227  -3.2403841
  18.8020012  64.8334997  -2.5880012  17.9390012  64.4544997  -2.7540012
  19.4070012  64.0944997  -2.6620012  18.7655979  64.6818023  -2.6207183
  16.5270012  60.9884997 -19.4150012  17.1380012  60.6174997 -18.7780012
  15.6910012  60.5674997 -19.2190012  16.4975032  60.8807554 -19.3012965
  16.1600012  62.5434997 -14.4490012  16.4400012  61.6364997 -14.3250012
  16.9190012  62.9774997 -14.8380012  16.3009277  62.4780942 -14.4846318
  16.7720012  63.1244997  -9.0130012  17.7050012  63.3364997  -9.0470012
  16.5370012  63.2264997  -8.0910012  16.8678036  63.1672769  -8.8930024
  16.8010012  63.8614997  -6.2370012  15.9580012  64.1294997  -5.8710012
  17.2430012  64.6834997  -6.4480012  16.7454158  64.0093291  -6.2154509
   1.0820012  62.3094997  -2.7600012   2.0020012  62.1874997  -2.5240012
   0.6330012  61.5594997  -2.3710012   1.1471580  62.1913727  -2.6750994
  19.0840012  57.8414997  -0.8840012  19.4340012  57.1874997  -1.4890012
  19.2310012  58.6784997  -1.3230012  19.1518419  57.8651591  -1.0262882
  16.7730012  59.8064997 -14.4010012  16.9560012  59.3574997 -13.5750012
  16.1740012  59.2214997 -14.8640012  16.7170202  59.6659975 -14.3506725
   2.3030012  60.6214997  -9.8690012   2.7490012  59.8294997  -9.5670012
   2.7700012  61.3374997  -9.4380012   2.4270172  60.6100624  -9.7695180
   0.6070012  63.6204997  -8.8000012   1.0990012  63.3994997  -9.5910012
   0.9700012  64.4614997  -8.5190012   0.7233126  63.7038357  -8.8702469
  18.6040012  59.9504997  -2.5340012  17.6860012  60.2214997  -2.5700012
  18.7270012  59.4154997  -3.3190012  18.4951066  59.9152892  -2.6449513
  18.6400012  59.8734997 -17.8730012  19.0520012  59.1524997 -18.3480012
  19.3220012  60.5434997 -17.8140012  18.7885885  59.8652368 -17.9301085
   0.9210012  59.8784997 -14.7460012  -0.0039988  60.0874997 -14.8750012
   1.3750012  60.3624997 -15.4350012   0.8557368  59.9725993 -14.8568774
  15.6920012  74.8624997 -12.8000012  16.3440012  74.5154997 -13.4080012
  16.2020012  75.3514997 -12.1540012  15.8502637  74.8810597 -12.7959764
   0.8850012  58.6164997  -6.4010012   0.2200012  58.3704997  -5.7580012
   0.4420012  59.2384997  -6.9790012   0.7340956  58.6668632  -6.3910648
   3.0770012  71.7914997  -2.2570012   2.2560012  71.9664997  -2.7170012
   2.8240012  71.7184997  -1.3360012   2.9306164  71.8055622  -2.1955077
   6.0310012  72.7664997  -5.9980012   5.6060012  73.5754997  -6.2810012
   6.9350012  72.8514997  -6.3000012   6.0950271  72.8888469  -6.0776224
  10.3420012  74.1654997  -3.0390012  10.5270012  73.8314997  -2.1610012
  11.1880012  74.4744997  -3.3610012  10.4817539  74.1616047  -2.9624395
  12.6870012  75.4514997  -3.7950012  13.3640012  74.8184997  -4.0350012
  13.0090012  75.8524997  -2.9880012  12.8231637  75.4191154  -3.7187207
  17.6040012  58.0404997  -4.7150012  16.7920012  58.3654997  -5.1030012
  17.8370012  57.2804997  -5.2480012  17.5243423  57.9822436  -4.8401747
   3.4330012  76.0224997  -5.9510012   2.7120012  76.4624997  -6.4020012
   3.0670012  75.7714997  -5.1020012   3.2849804  76.0487698  -5.8980160
   5.9000012  75.6224997  -6.9210012   5.0350012  75.6944997  -6.5170012
   5.8450012  76.1694997  -7.7050012   5.7742085  75.7062685  -6.9716638
  10.6100012  75.5104997  -7.7460012  10.1540012  76.0394997  -8.4000012
  10.7730012  76.1134997  -7.0200012  10.5695585  75.6644468  -7.7374938
  12.9380012  74.3884997  -6.8010012  12.0330012  74.5534997  -7.0660012
  13.3670012  75.2414997  -6.8660012  12.8720799  74.5264483  -6.8460818
  15.5420012  75.9584997  -6.5060012  15.3600012  76.8744997  -6.7160012
  15.7190012  75.5484997  -7.3520012  15.5410210  76.0284822  -6.6492115
   2.8470012  74.6454997  -9.0410012   2.8290012  74.2204997  -8.1830012
   3.6520012  74.3274997  -9.4490012   2.9533875  74.5443812  -8.9788345
   4.9890012  73.3554997 -10.3860012   4.7700012  72.4394997 -10.2160012
   5.8130012  73.4954997  -9.9200012   5.0704420  73.2490520 -10.2997226
   7.5260012  73.8254997  -9.5370012   7.7390012  72.9374997  -9.8240012
   7.5900012  73.7914997  -8.5830012   7.5638232  73.6993102  -9.4472603
  11.0340012  59.4894997 -10.3930012  10.3600012  58.8604997 -10.1370012
  11.5980012  59.0054997 -10.9960012  11.0179230  59.3378744 -10.4394660
  16.1770012  57.5974997 -10.2800012  16.7810012  58.1444997 -10.7820012
  15.3070012  57.9164997 -10.5200012  16.1421241  57.7155806 -10.3812346
  17.9040012  58.7354997 -11.9470012  18.5160012  58.2214997 -12.4730012
  18.2860012  59.6134997 -11.9230012  18.0394540  58.7837140 -12.0158170
   3.3610012  58.1234997 -12.5710012   2.5840012  57.8894997 -13.0780012
   3.8910012  57.3264997 -12.5620012   3.3262330  57.9836988 -12.6392258
   2.1970012  57.9214997 -16.7670012   2.6360012  58.5324997 -17.3590012
   1.5640012  58.4594997 -16.2930012   2.1714514  58.0779257 -16.7839070
   7.9400012  58.0504997 -12.7570012   8.8150012  58.4384997 -12.7870012
   7.8040012  57.8354997 -11.8350012   8.0413695  58.0745184 -12.6363560
  13.4970012  58.0804997 -11.1080012  13.5730012  58.1754997 -12.0580012
  13.2220012  57.1724997 -10.9790012  13.4702321  57.9707867 -11.2204921
  14.8500012  58.1064997 -15.4160012  14.1480012  58.7214997 -15.6250012
  14.4060012  57.2684997 -15.2850012  14.6936330  58.0775783 -15.4269672
   2.0980012  73.8694997 -15.8690012   1.4130012  73.8314997 -16.5370012
   2.1020012  74.7824997 -15.5810012   2.0048193  73.9877016 -15.9214716
   4.0580012  59.8374997 -18.3250012   4.5500012  59.2074997 -18.8520012
   4.6820012  60.1334997 -17.6610012   4.2095446  59.7913199 -18.3074020
   9.0840012  60.1304997 -15.8680012   9.2620012  59.4844997 -15.1850012
   9.0310012  60.9644997 -15.4000012   9.1011829  60.1547985 -15.7114060
  10.9630012  75.0794997 -17.4720012  11.8290012  75.4454997 -17.6500012
  10.7160012  74.6394997 -18.2860012  11.0482392  75.0701756 -17.6063711
  17.6720012  74.6424997 -14.7930012  17.4770012  73.8944997 -15.3580012
  17.6330012  75.4004997 -15.3760012  17.6400380  74.6426099 -14.9491616
   3.3190012  58.6374997  -3.0530012   2.9530012  57.8724997  -2.6100012
   4.2320012  58.6664997  -2.7660012   3.3922790  58.5367224  -2.9535930
   5.2920012  57.9884997  -1.5170012   6.1900012  57.7144997  -1.7020012
   4.9050012  57.2454997  -1.0530012   5.3626612  57.8505914  -1.4796357
   3.9160012  74.7894997 -18.8440012   3.6490012  75.0764997 -17.9710012
   4.6880012  74.2434997 -18.6920012   3.9837488  74.7550294 -18.7038950
  13.7130012  57.3204997  -1.3350012  13.7900012  56.8944997  -0.4810012
  14.6070012  57.3344997  -1.6780012  13.8443428  57.2640879  -1.2644690
  16.8890012  73.3934997  -2.6430012  16.1070012  73.2074997  -3.1620012
  16.8170012  74.3224997  -2.4250012  16.7721777  73.4936492  -2.6845952
  31.2950012  67.2794997 -12.6120012  31.3840012  68.2234997 -12.7440012
  30.6570012  67.0044997 -13.2700012  31.2209081  67.3714830 -12.7190386
  30.2280012  66.5344997  -9.1930012  30.1900012  65.8884997  -8.4880012
  29.9060012  66.0684997  -9.9640012  30.1792333  66.3829408  -9.2007022
  22.5970012  66.1494997  -7.6000012  22.6380012  65.5234997  -6.8770012
  23.3000012  66.7734997  -7.4180012  22.6976363  66.1481196  -7.4763956
  33.9340012  69.4734997 -10.8920012  33.4940012  68.7534997 -10.4410012
  33.9210012  70.1944997 -10.2620012  33.8720226  69.4723731 -10.7451506
  23.5200012  70.5994997  -9.0650012  23.1510012  69.7974997  -9.4350012
  24.4610012  70.4304997  -9.0190012  23.5967289  70.4670153  -9.1093684
  20.1300012  64.2594997 -13.6720012  19.6830012  65.1054997 -13.6910012
  19.5690012  63.6794997 -14.1880012  19.9929900  64.2969916 -13.7443199
  20.8410012  66.4214997 -11.5460012  21.0540012  65.6514997 -11.0190012
  21.5790012  66.5104997 -12.1500012  20.9698496  66.3281394 -11.5554700
  31.0460012  74.5784997 -10.6790012  31.6660012  73.9014997 -10.9530012
  30.8380012  74.3604997  -9.7710012  31.1026904  74.4563870 -10.5936635
  28.6180012  68.9674997  -8.7870012  28.9220012  68.2814997  -9.3820012
  29.3390012  69.0854997  -8.1690012  28.7570671  68.8896305  -8.7848184
  37.2810012  60.5684997  -7.9260012  37.3300012  61.1784997  -7.1900012
  37.7060012  61.0294997  -8.6490012  37.3451824  60.7143741  -7.9229795
  31.7590012  63.3614997  -8.4590012  31.9010012  62.4154997  -8.4390012
  31.6520012  63.5684997  -9.3880012  31.7639864  63.2599534  -8.5817661
  24.9130012  61.4624997 -11.1870012  24.9570012  62.3224997 -11.6050012
  24.4560012  60.9104997 -11.8210012  24.8572185  61.5055799 -11.3299701
  32.6360012  61.5934997 -12.7860012  33.2820012  61.2644997 -12.1610012
  33.1460012  62.1114997 -13.4090012  32.7934264  61.6184611 -12.7846138
  21.5340012  63.8594997 -10.4250012  22.1870012  63.3094997  -9.9930012
  21.5580012  63.5854997 -11.3420012  21.6266683  63.7471466 -10.4897877
  26.6900012  65.4094997 -11.2100012  27.3060012  64.8834997 -10.7000012
  26.1040012  64.7694997 -11.6130012  26.6950810  65.2509208 -11.1946827
  37.6720012  62.0464997  -5.6900012  36.9840012  62.7044997  -5.7860012
  37.6880012  61.8494997  -4.7540012  37.5798525  62.1100462  -5.5765192
  23.7240012  60.3804997  -7.1130012  23.5050012  60.9104997  -7.8790012
  23.0560012  60.6074997  -6.4660012  23.6037600  60.4836906  -7.1303621
  31.0930012  69.8804997 -13.5690012  30.7970012  69.5584997 -14.4200012
  30.7680012  70.7804997 -13.5280012  31.0086371  69.9580215 -13.6798199
  26.2930012  68.0564997  -6.8260012  25.5530012  68.6544997  -6.7220012
  27.0070012  68.6104997  -7.1410012  26.2882237  68.2132831  -6.8543535
  34.4000012  60.8844997 -10.8060012  34.1840012  60.1184997 -10.2730012
  35.0550012  61.3564997 -10.2930012  34.4590632  60.8435889 -10.6637139
  23.3170012  62.2724997  -9.1610012  23.9310012  62.9054997  -8.7870012
  23.8290012  61.8004997  -9.8170012  23.4702296  62.2952370  -9.1985748
  24.7000012  70.0204997  -6.0380012  24.6950012  70.9004997  -6.4160012
  23.8470012  69.9374997  -5.6130012  24.5839464  70.1296117  -6.0322093
  20.8210012  69.6914997 -15.2560012  20.5490012  69.9204997 -16.1450012
  20.8670012  70.5294997 -14.7960012  20.7900094  69.8361213 -15.3154303
  34.4460012  71.3134997  -8.5440012  33.5050012  71.3714997  -8.3820012
  34.7230012  72.2194997  -8.6810012  34.3544679  71.4439443  -8.5403185
  34.7470012  59.5994997  -7.1260012  34.0110012  60.2104997  -7.1640012
  35.4300012  60.0144997  -7.6530012  34.7386541  59.7391374  -7.2024168
  27.7500012  57.6864997  -9.6600012  27.6330012  56.7374997  -9.7150012
  26.8950012  58.0184997  -9.3870012  27.6183733  57.6015409  -9.6306103
  32.6980012  73.0944997 -11.9180012  33.1240012  72.3874997 -12.4030012
  33.0150012  73.8954997 -12.3350012  32.7991019  73.1060994 -12.0406870
  33.8580012  70.9954997 -13.4100012  33.6000012  70.3054997 -14.0210012
  33.9290012  70.5524997 -12.5640012  33.8322856  70.8412124 -13.3793115
  35.5440012  69.5614997  -4.9320012  35.6840012  68.9704997  -5.6720012
  35.7110012  70.4344997  -5.2890012  35.5856778  69.5986426  -5.0813035
  30.0170012  66.5234997 -15.1600012  29.3050012  67.0584997 -15.5120012
  30.7080012  66.5794997 -15.8200012  30.0130132  66.6042543 -15.2973711
  30.0700012  64.9814997 -18.1210012  30.7710012  65.0034997 -17.4700012
  30.3730012  64.3534997 -18.7770012  30.2067830  64.8996566 -18.1206289
  37.3860012  65.9014997  -6.8660012  36.7330012  66.5964997  -6.7770012
  37.8510012  66.1114997  -7.6760012  37.3595390  66.0249425  -6.9633117
  33.4220012  66.7334997 -14.2080012  32.6900012  66.9614997 -13.6350012
  33.8700012  66.0194997 -13.7530012  33.3823095  66.6682571 -14.0680881
  33.3200012  64.9074997  -5.1410012  33.4000012  65.6704997  -4.5690012
  32.7180012  65.1864997  -5.8310012  33.2495756  65.0497134  -5.1559411
  25.0680012  67.3634997 -12.3260012  24.7370012  66.9934997 -13.1440012
  25.6560012  66.6934997 -11.9790012  25.1021873  67.2221156 -12.3911898
  26.4340012  70.7914997  -9.6440012  26.3400012  70.2134997 -10.4010012
  27.1640012  70.4204997  -9.1480012  26.5197981  70.6622390  -9.6805835
  25.4340012  66.1324997  -8.6920012  26.0000012  66.2534997  -9.4550012
  25.7530012  66.7694997  -8.0530012  25.5545786  66.2351884  -8.7099960
  31.7430012  71.6354997  -7.9580012  31.5030012  72.2974997  -7.3100012
  31.5450012  70.8014997  -7.5330012  31.6833808  71.6133134  -7.8118476
  26.3140012  70.5314997  -3.9750012  26.0030012  71.3134997  -3.5200012
  25.6640012  70.3784997  -4.6610012  26.1835558  70.6179105  -4.0054129
  32.2930012  65.8954997 -16.5230012  32.8730012  66.0454997 -15.7760012
  32.7070012  66.3664997 -17.2460012  32.4282830  65.9796841 -16.5185866
  23.2340012  66.7294997  -4.7460012  23.3050012  67.3804997  -4.0480012
  22.3440012  66.8324997  -5.0810012  23.1233117  66.8325936  -4.6957300
  30.0200012  72.6324997 -13.0880012  30.4940012  72.9274997 -12.3100012
  29.4570012  73.3704997 -13.3210012  30.0087653  72.7726932 -13.0129864
  24.5540012  72.6034997  -3.2120012  24.5610012  72.4674997  -4.1590012
  23.6380012  72.4854997  -2.9600012  24.4311714  72.5689430  -3.3075334
  35.9920012  57.6454997 -16.7100012  35.0920012  57.7844997 -16.4150012
  36.2440012  58.4764997 -17.1120012  35.9028702  57.7769074 -16.7239795
  24.0580012  66.4334997 -14.7360012  23.7660012  67.2014997 -15.2270012
  23.3840012  65.7734997 -14.8990012  23.9269081  66.4494406 -14.8252660
  37.1810012  72.0114997 -18.3340012  37.2550012  72.9504997 -18.1630012
  38.0870012  71.7064997 -18.3900012  37.3135100  72.0986722 -18.3181881
  20.1510012  68.7964997  -5.9210012  19.6500012  68.7684997  -6.7360012
  20.1560012  67.8904997  -5.6120012  20.0831526  68.6702278  -5.9907128
  19.9010012  71.5764997  -9.0370012  20.8470012  71.4324997  -9.0560012
  19.7890012  72.3604997  -8.5000012  20.0152727  71.6628046  -8.9669928
  38.0990012  72.2424997  -3.3550012  38.0500012  71.2874997  -3.3920012
  37.2720012  72.5104997  -2.9540012  37.9804940  72.1478998  -3.3058625
  29.0780012  71.8164997  -4.4790012  29.1650012  72.6424997  -4.0040012
  28.2140012  71.4864997  -4.2300012  28.9731964  71.8849878  -4.3803451
  29.4920012  75.5884997 -14.6730012  29.4170012  75.4674997 -15.6190012
  29.5250012  76.5384997 -14.5540012  29.4861848  75.7002500 -14.7865166
  23.1450012  74.3774997 -12.8920012  23.2980012  74.0294997 -12.0130012
  22.2950012  74.0214997 -13.1470012  23.0508962  74.2816650 -12.8061660
  32.5940012  74.7424997 -17.6710012  32.9690012  73.9984997 -18.1410012
  32.5980012  74.4724997 -16.7520012  32.6458915  74.6041486 -17.6112176
  32.2630012  74.6684997 -14.9210012  31.3270012  74.7684997 -14.7430012
  32.5430012  73.9594997 -14.3430012  32.1728255  74.5862711 -14.8184609
  35.2510012  63.7354997  -2.8750012  34.8440012  64.2164997  -3.5960012
  35.2920012  62.8304997  -3.1830012  35.2008437  63.6789374  -3.0153317
  22.4000012  70.1194997  -4.8780012  22.6160012  69.7584997  -4.0190012
  21.5450012  69.7454997  -5.0880012  22.3139292  70.0194111  -4.7886614
  25.0190012  58.5894997  -8.8830012  24.1570012  58.5024997  -9.2900012
  24.9960012  59.4454997  -8.4550012  24.8980330  58.6932765  -8.8808137
  29.6820012  58.3114997  -5.5080012  30.1020012  57.8964997  -4.7550012
  28.7490012  58.1334997  -5.3910012  29.6133644  58.2305900  -5.3890461
  33.0080012  62.0674997  -4.6550012  32.4940012  61.9414997  -3.8570012
  32.8530012  62.9794997  -4.8990012  32.9166852  62.1736132  -4.5787842
  33.7710012  66.9284997 -18.8930012  33.8130012  66.7054997 -19.8230012
  34.6200012  67.3274997 -18.7030012  33.8915396  66.9519155 -18.9946373
  29.3430012  60.8044997 -18.2230012  29.0900012  60.8234997 -17.3000012
  29.0870012  59.9324997 -18.5240012  29.2737790  60.6892437 -18.1373737
  25.1100012  63.5554997  -7.7880012  24.4680012  63.5144997  -7.0790012
  25.1470012  64.4814997  -8.0250012  25.0271324  63.6751559  -7.7230176
  25.1070012  63.7764997 -12.8760012  24.2140012  63.4354997 -12.9340012
  25.5570012  63.3994997 -13.6310012  25.0457305  63.6788484 -12.9860823
  30.6420012  64.1924997 -14.0590012  30.2330012  65.0074997 -14.3500012
  31.3630012  64.0524997 -14.6730012  30.6834537  64.2852018 -14.1818658
  29.7440012  64.3674997  -2.5710012  29.1820012  63.6634997  -2.2500012
  30.5710012  64.2474997  -2.1030012  29.7787095  64.2547883  -2.4637670
  31.6470012  63.6384997 -11.2450012  31.4520012  64.2434997 -11.9600012
  31.8280012  62.8044997 -11.6790012  31.6447614  63.6086300 -11.4015595
  22.8600012  63.8754997  -5.9210012  22.8220012  64.2754997  -5.0520012
  22.3690012  63.0584997  -5.8300012  22.7884684  63.8198069  -5.7898941
  26.2260012  61.2494997 -19.1220012  25.7950012  60.8044997 -18.3920012
  25.5080012  61.6214997 -19.6340012  26.0699438  61.2388940 -19.0913201
  19.4680012  60.9914997 -12.0700012  20.0990012  60.9624997 -11.3510012
  19.9170012  60.5664997 -12.8000012  19.6150774  60.9300492 -12.0703447
  20.7420012  61.7374997 -16.6460012  21.2160012  62.3284997 -17.2310012
  20.0250012  62.2684997 -16.2990012  20.7099341  61.8900867 -16.6791164
  30.9110012  65.2764997  -6.5730012  31.2340012  64.6454997  -7.2160012
  30.4710012  64.7414997  -5.9130012  30.8956895  65.1178441  -6.5717150
  27.6880012  61.2034997 -11.7890012  26.7770012  61.2604997 -11.5010012
  28.1940012  61.1434997 -10.9790012  27.6315413  61.2031985 -11.6399378
  22.5170012  62.8324997 -12.9630012  21.6270012  62.9324997 -13.3030012
  22.8130012  61.9904997 -13.3090012  22.4352823  62.7323545 -13.0562787
  26.1700012  62.8324997 -15.3060012  27.1010012  62.9614997 -15.1280012
  25.9550012  63.5024997 -15.9560012  26.2684247  62.9406565 -15.3694253
  32.0930012  60.4384997  -8.5250012  31.4170012  60.5694997  -7.8610012
  31.6080012  60.2834997  -9.3350012  31.9347145  60.4354905  -8.5435483
  24.8440012  64.0274997 -17.7390012  24.3010012  63.6474997 -18.4310012
  25.6770012  64.2214997 -18.1680012  24.8824399  64.0018124 -17.8915474
  35.3810012  76.1104997  -2.2480012  35.5810012  76.5344997  -3.0830012
  36.0360012  76.4534997  -1.6410012  35.4970051  76.2149648  -2.2802164
  22.9790012  68.5844997  -2.6400012  23.7110012  68.8384997  -2.0790012
  22.1990012  68.7884997  -2.1250012  22.9738232  68.6469177  -2.4934240
  29.0080012  63.9914997  -9.9020012  29.5730012  63.4444997 -10.4490012
  28.8610012  63.4694997  -9.1140012  29.0652918  63.8462024  -9.8701546
  24.0100012  60.1274997 -13.4840012  23.6930012  59.2254997 -13.5190012
  24.7920012  60.1294997 -14.0370012  24.0722284  60.0041628 -13.5635217
  27.6350012  62.3794997  -7.4880012  26.7990012  62.8334997  -7.3780012
  28.1590012  62.6554997  -6.7360012  27.5914414  62.4789376  -7.3712864
  28.1790012  68.5924997 -15.8040012  27.4340012  68.0854997 -16.1260012
  28.0450012  68.6414997 -14.8570012  28.0588776  68.5296940 -15.7201353
  35.3290012  67.7254997  -7.0170012  35.9710012  68.1824997  -7.5610012
  34.4990012  67.8384997  -7.4800012  35.3045963  67.8032704  -7.1539823
  32.0770012  61.4064997 -17.6040012  31.1380012  61.5184997 -17.7560012
  32.3740012  62.2634997 -17.2980012  31.9887666  61.5376443 -17.5834232
  29.6980012  68.7764997  -4.5670012  29.3530012  68.3954997  -3.7600012
  29.4980012  69.7104997  -4.4950012  29.6238061  68.8505228  -4.4469039
  32.7950012  63.2734997 -15.9440012  33.6870012  63.1364997 -15.6250012
  32.8520012  64.0644997 -16.4800012  32.9246285  63.3616660 -15.9728310
  23.3040012  67.8874997 -10.0340012  24.0490012  67.8854997 -10.6350012
  23.3820012  67.0644997  -9.5520012  23.4165518  67.7759315 -10.0511071
  30.3050012  70.0514997 -16.7780012  30.0090012  70.8774997 -16.3970012
  29.6020012  69.4314997 -16.5820012  30.1694914  70.0808199 -16.6993557
  20.3120012  66.3484997  -4.7190012  20.5350012  65.9304997  -3.8870012
  19.7100012  65.7354997  -5.1420012  20.2611759  66.2084668  -4.6622978
  27.3280012  65.8654997  -2.5060012  27.0320012  65.6994997  -3.4010012
  28.2600012  65.6454997  -2.5170012  27.4134166  65.8130640  -2.6299464
  31.9490012  71.2384997  -4.6160012  31.0480012  71.4214997  -4.8840012
  31.9830012  71.4974997  -3.6950012  31.8303041  71.2985512  -4.5281803
  37.6800012  63.4834997 -16.2490012  37.1260012  63.0874997 -16.9210012
  37.7800012  64.3934997 -16.5270012  37.6177059  63.5523586 -16.3785599
  37.6430012  69.2834997  -3.4120012  36.7920012  69.5214997  -3.7790012
  38.2340012  69.2664997  -4.1650012  37.6062487  69.3138258  -3.5641107
  35.9750012  72.2694997 -15.7840012  35.6020012  71.4434997 -15.4750012
  36.2530012  72.0864997 -16.6810012  35.9615630  72.1317303 -15.8630374
  33.1360012  67.0774997  -8.7630012  32.2070012  66.8454997  -8.7900012
  33.5870012  66.3004997  -9.0930012  33.0699216  66.9407238  -8.8113083
  25.6790012  71.4054997 -12.6300012  26.2060012  72.1784997 -12.8300012
  24.7990012  71.6304997 -12.9310012  25.6321773  71.5418005 -12.6980990
  21.4340012  66.2674997 -18.0430012  22.0500012  66.8944997 -17.6630012
  20.5720012  66.5834997 -17.7710012  21.4017698  66.3959430 -17.9542817
  27.1060012  69.0684997 -13.0530012  26.8650012  69.9934997 -13.0120012
  26.3650012  68.6094997 -12.6570012  26.9728409  69.1331421 -12.9938623
  27.6210012  73.2174997  -6.7380012  27.9830012  74.0724997  -6.9720012
  28.1520012  72.9254997  -5.9980012  27.7424473  73.2951060  -6.6699145
  25.7890012  74.0904997 -13.5080012  24.8390012  74.1954997 -13.4570012
  26.1410012  74.9104997 -13.1630012  25.7064203  74.2158314 -13.4543350
  31.1650012  69.3164997  -7.0380012  30.7390012  69.0894997  -6.2110012
  31.7450012  68.5784997  -7.2200012  31.1851868  69.1855299  -6.9494170
  33.3680012  70.2454997 -17.9640012  33.7210012  69.8654997 -17.1590012
  32.4190012  70.1524997 -17.8770012  33.2880441  70.1809596 -17.8421441
  33.8230012  73.8684997  -4.5680012  33.2220012  73.3134997  -5.0640012
  34.1050012  74.5354997  -5.1940012  33.7788519  73.8826841  -4.7205048
  37.8710012  74.7254997 -17.7630012  38.6150012  75.3114997 -17.9030012
  37.1770012  75.2934997 -17.4290012  37.8790292  74.8825582 -17.7370039
  21.9460012  61.1014997  -5.1610012  21.0530012  61.4404997  -5.2290012
  21.8470012  60.2464997  -4.7430012  21.8104164  61.0322588  -5.1137765
  34.2340012  68.9184997 -15.7370012  33.9560012  68.1904997 -15.1810012
  35.1610012  69.0374997 -15.5320012  34.3213124  68.8348802 -15.6331155
  21.5970012  72.9064997  -6.7260012  21.8140012  71.9744997  -6.7570012
  21.8430012  73.1804997  -5.8430012  21.6599549  72.8160636  -6.6108237
  27.4590012  71.3574997 -19.5170012  27.6980012  70.6094997 -20.0640012
  27.1900012  70.9694997 -18.6840012  27.4553675  71.2026638 -19.4793135
  26.3960012  70.9274997 -17.0600012  26.5420012  70.4074997 -16.2700012
  26.3930012  71.8344997 -16.7540012  26.4155989  70.9788853 -16.9103912
  22.8490012  68.1804997 -16.5500012  22.1630012  68.5324997 -15.9830012
  23.3710012  68.9434997 -16.7970012  22.8256852  68.3318578 -16.5057882
  30.6800012  60.8424997  -6.2710012  31.3790012  60.9164997  -5.6210012
  30.2990012  59.9784997  -6.1170012  30.7241767  60.7357624  -6.1611678
  31.4650012  60.4944997 -15.1740012  31.6850012  60.9664997 -15.9770012
  32.0230012  60.8894997 -14.5040012  31.5704968  60.6124285 -15.1932669
  29.1330012  72.6254997 -16.3110012  28.3170012  73.1224997 -16.2590012
  29.6630012  73.1004997 -16.9510012  29.0929161  72.7577722 -16.3904044
  28.6650012  62.2224997 -14.3390012  29.4770012  62.7274997 -14.2930012
  28.4200012  62.0774997 -13.4250012  28.7430520  62.2720375 -14.2091483
  29.2000012  63.2084997  -5.1540012  29.3190012  63.7824997  -4.3970012
  29.8560012  62.5204997  -5.0400012  29.3049757  63.1941079  -5.0349175
  29.5480012  59.3034997 -13.4010012  29.2020012  59.9214997 -12.7560012
  30.2070012  59.8044997 -13.8820012  29.5897826  59.4555802 -13.3779029
  26.4720012  73.6694997 -16.3290012  26.6320012  74.4684997 -16.8300012
  26.2740012  73.9754997 -15.4440012  26.4671649  73.8204469 -16.2780185
  25.2060012  60.3664997 -16.7140012  25.1230012  61.2554997 -16.3670012
  26.0960012  60.1014997 -16.4820012  25.3149469  60.4521430 -16.6352374
  35.4050012  61.1154997  -4.3190012  34.4880012  61.3784997  -4.4070012
  35.7400012  61.1124997  -5.2160012  35.3249900  61.1510224  -4.4522081
  34.0070012  64.8664997 -10.2240012  33.2090012  64.4514997 -10.5520012
  34.4520012  64.1754997  -9.7330012  33.9579885  64.7163543 -10.2025111
  23.4650012  70.7944997 -17.6530012  24.0570012  71.4934997 -17.3770012
  23.9240012  70.3614997 -18.3730012  23.6081142  70.8317049 -17.7125170
  21.7810012  63.4584997 -18.5370012  21.7360012  64.3974997 -18.3590012
  20.8930012  63.2224997 -18.8070012  21.6548574  63.5551892 -18.5491088
  35.0930012  74.1224997  -8.6010012  34.9380012  74.8004997  -9.2580012
  36.0260012  74.1944997  -8.3980012  35.1978500  74.2250170  -8.6634881
  22.5890012  58.2404997  -9.8640012  22.3600012  58.2994997 -10.7920012
  22.1460012  57.4484997  -9.5580012  22.4978530  58.1415753  -9.9495214
  21.5190012  72.1804997 -13.7040012  20.6870012  72.6534997 -13.6760012
  22.0650012  72.6904997 -14.3020012  21.4789739  72.3141871 -13.7810284
  20.8070012  74.7934997  -2.3740012  21.3480012  74.5764997  -1.6140012
  20.3260012  73.9874997  -2.5630012  20.8159345  74.6549514  -2.2956924
  25.4050012  73.7124997  -0.7530012  26.1720012  73.2534997  -0.4120012
  25.3830012  73.4864997  -1.6830012  25.5071434  73.6190409  -0.8319957
  29.4970012  73.2204997 -19.3780012  28.8530012  72.5894997 -19.0570012
  30.2590012  72.6894997 -19.6100012  29.5118077  73.0622920 -19.3653989
  31.9820012  72.0924997  -2.0240012  31.6310012  71.2364997  -1.7810012
  32.7080012  72.2354997  -1.4170012  32.0320769  71.9945636  -1.9086381
  34.1010012  73.0374997 -19.1440012  34.3840012  72.2434997 -18.6920012
  34.8410012  73.2704997 -19.7050012  34.2397486  72.9602803 -19.1579302
  20.7140012  68.6034997  -1.4190012  20.8580012  67.7014997  -1.7060012
  19.9420012  68.8894997  -1.9070012  20.6293322  68.5188261  -1.5242119
  25.0560012  68.9474997 -19.2870012  25.1200012  68.1534997 -18.7560012
  25.7090012  68.8284997 -19.9770012  25.1530241  68.8227148 -19.3075683
  27.3700012  68.5734997  -1.9870012  27.0410012  68.8444997  -2.8440012
  27.5220012  67.6324997  -2.0740012  27.3454809  68.4833862  -2.1161756
  33.1040012  68.4894997  -4.6030012  33.8500012  69.0774997  -4.7230012
  32.3470012  69.0714997  -4.5400012  33.1037554  68.6487011  -4.6109093
  21.5470012  65.8034997  -1.9990012  21.9550012  64.9464997  -2.1200012
  21.2870012  65.8184997  -1.0780012  21.5677568  65.6880807  -1.8910412
  26.2050012  66.9194997 -16.9810012  25.7450012  66.4354997 -16.2950012
  26.4600012  66.2514997 -17.6170012  26.1764902  66.7628731 -16.9730666
  25.4940012  64.8124997  -4.6250012  24.8760012  65.4874997  -4.3450012
  25.8380012  65.1334997  -5.4580012  25.4559615  64.9482721  -4.6993419
  27.2760012  65.1624997 -18.7190012  27.0960012  65.0084997 -19.6460012
  28.2260012  65.2704997 -18.6740012  27.3797776  65.1560175 -18.8398157
  30.5140012  67.2844997  -1.3480012  31.4670012  67.3674997  -1.3750012
  30.3530012  66.5724997  -0.7280012  30.6226426  67.1996746  -1.2679421
  36.6660012  67.5174997 -19.2730012  36.3920012  67.0924997 -20.0860012
  36.7050012  68.4484997 -19.4900012  36.6337699  67.5852484 -19.4136390
  25.8330012  62.1674997  -3.5430012  25.9830012  61.4384997  -4.1450012
  25.8360012  62.9444997  -4.1020012  25.8539302  62.1727851  -3.7009308
  26.2460012  60.5374997  -6.0500012  26.7820012  60.9884997  -6.7020012
  25.3940012  60.4294997  -6.4730012  26.2042178  60.5846390  -6.1964244
  27.8280012  65.9764997  -5.8110012  28.5780012  65.8204997  -6.3840012
  27.4890012  66.8284997  -6.0860012  27.8848921  66.0702968  -5.9266439
  32.2430012  63.7914997  -0.7820012  32.4360012  62.8604997  -0.8940012
  33.1010012  64.2164997  -0.7920012  32.3853020  63.7216389  -0.7986639
  33.5600012  66.5804997  -2.7050012  33.2790012  67.2894997  -3.2820012
  34.5030012  66.5074997  -2.8560012  33.6489027  66.6677646  -2.8044449
  24.3120012  63.3654997  -1.6310012  23.5450012  62.8334997  -1.8410012
  24.9910012  63.0554997  -2.2310012  24.2987022  63.2507506  -1.7408352
  27.0520012  57.9934997  -5.6190012  26.9530012  58.9404997  -5.7240012
  26.3090012  57.6214997  -6.0940012  26.9380564  58.0725902  -5.6975440
  28.3160012  62.3154997  -2.0550012  28.0800012  62.0954997  -1.1530012
  27.5320012  62.1084997  -2.5650012  28.1778628  62.2574760  -2.0006068
  31.0310012  61.4424997  -2.9790012  30.0840012  61.4744997  -2.8470012
  31.3440012  60.8174997  -2.3260012  30.9435475  61.3623207  -2.8725545
  32.6650012  60.0764997  -0.9740012  32.5690012  59.1244997  -0.9800012
  32.3440012  60.3454997  -0.1140012  32.6084070  59.9824035  -0.8584559
  22.4920012  61.2864997  -1.9270012  22.7040012  60.5794997  -2.5370012
  22.3810012  60.8484997  -1.0830012  22.5059721  61.1307084  -1.8963157
  27.2730012  57.2874997  -2.9470012  27.9850012  56.6474997  -2.9610012
  27.1720012  57.5544997  -3.8610012  27.3567939  57.2359938  -3.0724350
  27.6270012  58.9704997  -0.8940012  27.4950012  58.4944997  -1.7140012
  27.0280012  59.7144997  -0.9490012  27.5279071  59.0059618  -1.0137114
  27.1730012  75.8534997 -17.7170012  28.1060012  76.0114997 -17.5740012
  26.9090012  76.5284997 -18.3420012  27.2649510  75.9663611 -17.7819259
  20.7420012  70.4894997 -18.2350012  21.6560012  70.5684997 -17.9610012
  20.7490012  69.8024997 -18.9010012  20.8681131  70.4073961 -18.2875607
  19.3910012  75.8824997 -13.1570012  18.7440012  75.4204997 -13.6900012
  19.7450012  75.2104997 -12.5750012  19.3503849  75.7284723 -13.1512041
  20.2610012  73.9634997 -11.3530012  19.9260012  73.0834997 -11.1810012
  20.4830012  74.3084997 -10.4880012  20.2451783  73.8897500 -11.2125792
  37.8090012  74.7724997  -8.3720012  37.7880012  74.9574997  -7.4330012
  38.5000012  75.3414997  -8.7130012  37.8994618  74.8746606  -8.2896136
  37.3730012  74.3404997  -5.4500012  36.8850012  73.6044997  -5.8210012
  37.9220012  73.9464997  -4.7720012  37.3804872  74.1866249  -5.4090840
  35.8230012  70.1294997  -0.8120012  34.9570012  70.0244997  -0.4180012
  36.2000012  70.8884997  -0.3660012  35.7553308  70.2176900  -0.6977607
  37.1240012  68.3864997 -15.2980012  37.9740012  68.8074997 -15.1710012
  37.1300012  67.6464997 -14.6910012  37.2411372  68.3440803 -15.1985656
  37.5190012  66.4394997 -13.4740012  36.7920012  65.9604997 -13.0770012
  38.1000012  66.6454997 -12.7420012  37.4979375  66.4017090 -13.3205871
  37.2780012  69.2244997  -8.5270012  38.1110012  68.8464997  -8.8070012
  37.3900012  70.1674997  -8.6460012  37.4072647  69.3002218  -8.5814513
  35.7640012  72.1024997  -6.2200012  35.1170012  72.4274997  -5.5940012
  35.2470012  71.6624997  -6.8940012  35.6054029  72.0875004  -6.2254173
  37.7870012  66.3404997 -17.0830012  37.2650012  66.6974997 -17.8020012
  37.7540012  67.0154997 -16.4050012  37.7111634  66.4805413 -17.0896855
  36.1360012  63.5804997 -18.5320012  36.2320012  64.2474997 -19.2130012
  35.9960012  62.7644997 -19.0140012  36.1302135  63.5614500 -18.6901509
  35.3050012  64.9604997 -12.9110012  35.1550012  64.0154997 -12.9320012
  34.9520012  65.2414997 -12.0680012  35.2366625  64.8690441 -12.7997654
  20.3410012  67.0384997  -8.9010012  20.5250012  66.9564997  -9.8370012
  21.1900012  66.9144997  -8.4770012  20.4810139  67.0105003  -8.9718545
  36.1620012  66.9304997  -3.2730012  36.7450012  66.1964997  -3.0810012
  36.7260012  67.7024997  -3.2260012  36.3179769  66.9344227  -3.2403841
  37.6580012  64.8334997  -2.5880012  36.7950012  64.4544997  -2.7540012
  38.2630012  64.0944997  -2.6620012  37.6215979  64.6818023  -2.6207183
  35.3830012  60.9884997 -19.4150012  35.9940012  60.6174997 -18.7780012
  34.5470012  60.5674997 -19.2190012  35.3535032  60.8807554 -19.3012965
  35.0160012  62.5434997 -14.4490012  35.2960012  61.6364997 -14.3250012
  35.7750012  62.9774997 -14.8380012  35.1569277  62.4780942 -14.4846318
  35.6280012  63.1244997  -9.0130012  36.5610012  63.3364997  -9.0470012
  35.3930012  63.2264997  -8.0910012  35.7238036  63.1672769  -8.8930024
  35.6570012  63.8614997  -6.2370012  34.8140012  64.1294997  -5.8710012
  36.0990012  64.6834997  -6.4480012  35.6014158  64.0093291  -6.2154509
  19.9380012  62.3094997  -2.7600012  20.8580012  62.1874997  -2.5240012
  19.4890012  61.5594997  -2.3710012  20.0031580  62.1913727  -2.6750994
  37.9400012  57.8414997  -0.8840012  38.2900012  57.1874997  -1.4890012
  38.0870012  58.6784997  -1.3230012  38.0078419  57.8651591  -1.0262882
  35.6290012  59.8064997 -14.4010012  35.8120012  59.3574997 -13.5750012
  35.0300012  59.2214997 -14.8640012  35.5730202  59.6659975 -14.3506725
  21.1590012  60.6214997  -9.8690012  21.6050012  59.8294997  -9.5670012
  21.6260012  61.3374997  -9.4380012  21.2830172  60.6100624  -9.7695180
  19.4630012  63.6204997  -8.8000012  19.9550012  63.3994997  -9.5910012
  19.8260012  64.4614997  -8.5190012  19.5793126  63.7038357  -8.8702469
  37.4600012  59.9504997  -2.5340012  36.5420012  60.2214997  -2.5700012
  37.5830012  59.4154997  -3.3190012  37.3511066  59.9152892  -2.6449513
  37.4960012  59.8734997 -17.8730012  37.9080012  59.1524997 -18.3480012
  38.1780012  60.5434997 -17.8140012  37.6445885  59.8652368 -17.9301085
  19.7770012  59.8784997 -14.7460012  18.8520012  60.0874997 -14.8750012
  20.2310012  60.3624997 -15.4350012  19.7117368  59.9725993 -14.8568774
  34.5480012  74.8624997 -12.8000012  35.2000012  74.5154997 -13.4080012
  35.0580012  75.3514997 -12.1540012  34.7062637  74.8810597 -12.7959764
  19.7410012  58.6164997  -6.4010012  19.0760012  58.3704997  -5.7580012
  19.2980012  59.2384997  -6.9790012  19.5900956  58.6668632  -6.3910648
  21.9330012  71.7914997  -2.2570012  21.1120012  71.9664997  -2.7170012
  21.6800012  71.7184997  -1.3360012  21.7866164  71.8055622  -2.1955077
  24.8870012  72.7664997  -5.9980012  24.4620012  73.5754997  -6.2810012
  25.7910012  72.8514997  -6.3000012  24.9510271  72.8888469  -6.0776224
  29.1980012  74.1654997  -3.0390012  29.3830012  73.8314997  -2.1610012
  30.0440012  74.4744997  -3.3610012  29.3377539  74.1616047  -2.9624395
  31.5430012  75.4514997  -3.7950012  32.2200012  74.8184997  -4.0350012
  31.8650012  75.8524997  -2.9880012  31.6791637  75.4191154  -3.7187207
  36.4600012  58.0404997  -4.7150012  35.6480012  58.3654997  -5.1030012
  36.6930012  57.2804997  -5.2480012  36.3803423  57.9822436  -4.8401747
  22.2890012  76.0224997  -5.9510012  21.5680012  76.4624997  -6.4020012
  21.9230012  75.7714997  -5.1020012  22.1409804  76.0487698  -5.8980160
  24.7560012  75.6224997  -6.9210012  23.8910012  75.6944997  -6.5170012
  24.7010012  76.1694997  -7.7050012  24.6302085  75.7062685  -6.9716638
  29.4660012  75.5104997  -7.7460012  29.0100012  76.0394997  -8.4000012
  29.6290012  76.1134997  -7.0200012  29.4255585  75.6644468  -7.7374938
  31.7940012  74.3884997  -6.8010012  30.8890012  74.5534997  -7.0660012
  32.2230012  75.2414997  -6.8660012  31.7280799  74.5264483  -6.8460818
  34.3980012  75.9584997  -6.5060012  34.2160012  76.8744997  -6.7160012
  34.5750012  75.5484997  -7.3520012  34.3970210  76.0284822  -6.6492115
  21.7030012  74.6454997  -9.0410012  21.6850012  74.2204997  -8.1830012
  22.5080012  74.3274997  -9.4490012  21.8093875  74.5443812  -8.9788345
  23.8450012  73.3554997 -10.3860012  23.6260012  72.4394997 -10.2160012
  24.6690012  73.4954997  -9.9200012  23.9264420  73.2490520 -10.2997226
  26.3820012  73.8254997  -9.5370012  26.5950012  72.9374997  -9.8240012
  26.4460012  73.7914997  -8.5830012  26.4198231  73.6993102  -9.4472603
  29.8900012  59.4894997 -10.3930012  29.2160012  58.8604997 -10.1370012
  30.4540012  59.0054997 -10.9960012  29.8739230  59.3378744 -10.4394660
  35.0330012  57.5974997 -10.2800012  35.6370012  58.1444997 -10.7820012
  34.1630012  57.9164997 -10.5200012  34.9981241  57.7155806 -10.3812346
  36.7600012  58.7354997 -11.9470012  37.3720012  58.2214997 -12.4730012
  37.1420012  59.6134997 -11.9230012  36.8954540  58.7837140 -12.0158170
  22.2170012  58.1234997 -12.5710012  21.4400012  57.8894997 -13.0780012
  22.7470012  57.3264997 -12.5620012  22.1822330  57.9836988 -12.6392258
  21.0530012  57.9214997 -16.7670012  21.4920012  58.5324997 -17.3590012
  20.4200012  58.4594997 -16.2930012  21.0274514  58.0779257 -16.7839070
  26.7960012  58.0504997 -12.7570012  27.6710012  58.4384997 -12.7870012
  26.6600012  57.8354997 -11.8350012  26.8973695  58.0745184 -12.6363560
  32.3530012  58.0804997 -11.1080012  32.4290012  58.1754997 -12.0580012
  32.0780012  57.1724997 -10.9790012  32.3262321  57.9707867 -11.2204921
  33.7060012  58.1064997 -15.4160012  33.0040012  58.7214997 -15.6250012
  33.2620012  57.2684997 -15.2850012  33.5496330  58.0775783 -15.4269672
  20.9540012  73.8694997 -15.8690012  20.2690012  73.8314997 -16.5370012
  20.9580012  74.7824997 -15.5810012  20.8608193  73.9877016 -15.9214716
  22.9140012  59.8374997 -18.3250012  23.4060012  59.2074997 -18.8520012
  23.5380012  60.1334997 -17.6610012  23.0655446  59.7913199 -18.3074020
  27.9400012  60.1304997 -15.8680012  28.1180012  59.4844997 -15.1850012
  27.8870012  60.9644997 -15.4000012  27.9571829  60.1547985 -15.7114060
  29.8190012  75.0794997 -17.4720012  30.6850012  75.4454997 -17.6500012
  29.5720012  74.6394997 -18.2860012  29.9042392  75.0701756 -17.6063711
  36.5280012  74.6424997 -14.7930012  36.3330012  73.8944997 -15.3580012
  36.4890012  75.4004997 -15.3760012  36.4960380  74.6426099 -14.9491616
  22.1750012  58.6374997  -3.0530012  21.8090012  57.8724997  -2.6100012
  23.0880012  58.6664997  -2.7660012  22.2482790  58.5367224  -2.9535930
  24.1480012  57.9884997  -1.5170012  25.0460012  57.7144997  -1.7020012
  23.7610012  57.2454997  -1.0530012  24.2186612  57.8505914  -1.4796357
  22.7720012  74.7894997 -18.8440012  22.5050012  75.0764997 -17.9710012
  23.5440012  74.2434997 -18.6920012  22.8397488  74.7550294 -18.7038950
  32.5690012  57.3204997  -1.3350012  32.6460012  56.8944997  -0.4810012
  33.4630012  57.3344997  -1.6780012  32.7003428  57.2640879  -1.2644690
  35.7450012  73.3934997  -2.6430012  34.9630012  73.2074997  -3.1620012
  35.6730012  74.3224997  -2.4250012  35.6281777  73.4936492  -2.6845952
  50.1510012  67.2794997 -12.6120012  50.2400012  68.2234997 -12.7440012
  49.5130012  67.0044997 -13.2700012  50.0769081  67.3714830 -12.7190386
  49.0840012  66.5344997  -9.1930012  49.0460012  65.8884997  -8.4880012
  48.7620012  66.0684997  -9.9640012  49.0352333  66.3829408  -9.2007022
  41.4530012  66.1494997  -7.6000012  41.4940012  65.5234997  -6.8770012
  42.1560012  66.7734997  -7.4180012  41.5536363  66.1481196  -7.4763956
  52.7900012  69.4734997 -10.8920012  52.3500012  68.7534997 -10.4410012
  52.7770012  70.1944997 -10.2620012  52.7280226  69.4723731 -10.7451506
  42.3760012  70.5994997  -9.0650012  42.0070012  69.7974997  -9.4350012
  43.3170012  70.4304997  -9.0190012  42.4527289  70.4670153  -9.1093684
  38.9860012  64.2594997 -13.6720012  38.5390012  65.1054997 -13.6910012
  38.4250012  63.6794997 -14.1880012  38.8489900  64.2969916 -13.7443199
  39.6970012  66.4214997 -11.5460012  39.9100012  65.6514997 -11.0190012
  40.4350012  66.5104997 -12.1500012  39.8258496  66.3281394 -11.5554700
  49.9020012  74.5784997 -10.6790012  50.5220012  73.9014997 -10.9530012
  49.6940012  74.3604997  -9.7710012  49.9586904  74.4563870 -10.5936635
  47.4740012  68.9674997  -8.7870012  47.7780012  68.2814997  -9.3820012
  48.1950012  69.0854997  -8.1690012  47.6130671  68.8896305  -8.7848184
  56.1370012  60.5684997  -7.9260012  56.1860012  61.1784997  -7.1900012
  56.5620012  61.0294997  -8.6490012  56.2011824  60.7143741  -7.9229795
  50.6150012  63.3614997  -8.4590012  50.7570012  62.4154997  -8.4390012
  50.5080012  63.5684997  -9.3880012  50.6199864  63.2599534  -8.5817661
  43.7690012  61.4624997 -11.1870012  43.8130012  62.3224997 -11.6050012
  43.3120012  60.9104997 -11.8210012  43.7132185  61.5055799 -11.3299701
  51.4920012  61.5934997 -12.7860012  52.1380012  61.2644997 -12.1610012
  52.0020012  62.1114997 -13.4090012  51.6494264  61.6184611 -12.7846138
  40.3900012  63.8594997 -10.4250012  41.0430012  63.3094997  -9.9930012
  40.4140012  63.5854997 -11.3420012  40.4826683  63.7471466 -10.4897877
  45.5460012  65.4094997 -11.2100012  46.1620012  64.8834997 -10.7000012
  44.9600012  64.7694997 -11.6130012  45.5510810  65.2509208 -11.1946827
  56.5280012  62.0464997  -5.6900012  55.8400012  62.7044997  -5.7860012
  56.5440012  61.8494997  -4.7540012  56.4358525  62.1100462  -5.5765192
  42.5800012  60.3804997  -7.1130012  42.3610012  60.9104997  -7.8790012
  41.9120012  60.6074997  -6.4660012  42.4597600  60.4836906  -7.1303621
  49.9490012  69.8804997 -13.5690012  49.6530012  69.5584997 -14.4200012
  49.6240012  70.7804997 -13.5280012  49.8646371  69.9580215 -13.6798199
  45.1490012  68.0564997  -6.8260012  44.4090012  68.6544997  -6.7220012
  45.8630012  68.6104997  -7.1410012  45.1442237  68.2132831  -6.8543535
  53.2560012  60.8844997 -10.8060012  53.0400012  60.1184997 -10.2730012
  53.9110012  61.3564997 -10.2930012  53.3150632  60.8435889 -10.6637139
  42.1730012  62.2724997  -9.1610012  42.7870012  62.9054997  -8.7870012
  42.6850012  61.8004997  -9.8170012  42.3262296  62.2952370  -9.1985748
  43.5560012  70.0204997  -6.0380012  43.5510012  70.9004997  -6.4160012
  42.7030012  69.9374997  -5.6130012  43.4399464  70.1296117  -6.0322093
  39.6770012  69.6914997 -15.2560012  39.4050012  69.9204997 -16.1450012
  39.7230012  70.5294997 -14.7960012  39.6460094  69.8361213 -15.3154303
  53.3020012  71.3134997  -8.5440012  52.3610012  71.3714997  -8.3820012
  53.5790012  72.2194997  -8.6810012  53.2104679  71.4439443  -8.5403185
  53.6030012  59.5994997  -7.1260012  52.8670012  60.2104997  -7.1640012
  54.2860012  60.0144997  -7.6530012  53.5946541  59.7391374  -7.2024168
  46.6060012  57.6864997  -9.6600012  46.4890012  56.7374997  -9.7150012
  45.7510012  58.0184997  -9.3870012  46.4743733  57.6015409  -9.6306103
  51.5540012  73.0944997 -11.9180012  51.9800012  72.3874997 -12.4030012
  51.8710012  73.8954997 -12.3350012  51.6551019  73.1060994 -12.0406870
  52.7140012  70.9954997 -13.4100012  52.4560012  70.3054997 -14.0210012
  52.7850012  70.5524997 -12.5640012  52.6882856  70.8412124 -13.3793115
  54.4000012  69.5614997  -4.9320012  54.5400012  68.9704997  -5.6720012
  54.5670012  70.4344997  -5.2890012  54.4416778  69.5986426  -5.0813035
  48.8730012  66.5234997 -15.1600012  48.1610012  67.0584997 -15.5120012
  49.5640012  66.5794997 -15.8200012  48.8690132  66.6042543 -15.2973711
  48.9260012  64.9814997 -18.1210012  49.6270012  65.0034997 -17.4700012
  49.2290012  64.3534997 -18.7770012  49.0627830  64.8996566 -18.1206289
  56.2420012  65.9014997  -6.8660012  55.5890012  66.5964997  -6.7770012
  56.7070012  66.1114997  -7.6760012  56.2155390  66.0249425  -6.9633117
  52.2780012  66.7334997 -14.2080012  51.5460012  66.9614997 -13.6350012
  52.7260012  66.0194997 -13.7530012  52.2383095  66.6682571 -14.0680881
  52.1760012  64.9074997  -5.1410012  52.2560012  65.6704997  -4.5690012
  51.5740012  65.1864997  -5.8310012  52.1055756  65.0497134  -5.1559411
  43.9240012  67.3634997 -12.3260012  43.5930012  66.9934997 -13.1440012
  44.5120012  66.6934997 -11.9790012  43.9581873  67.2221156 -12.3911898
  45.2900012  70.7914997  -9.6440012  45.1960012  70.2134997 -10.4010012
  46.0200012  70.4204997  -9.1480012  45.3757981  70.6622390  -9.6805835
  44.2900012  66.1324997  -8.6920012  44.8560012  66.2534997  -9.4550012
  44.6090012  66.7694997  -8.0530012  44.4105786  66.2351884  -8.7099960
  50.5990012  71.6354997  -7.9580012  50.3590012  72.2974997  -7.3100012
  50.4010012  70.8014997  -7.5330012  50.5393808  71.6133134  -7.8118476
  45.1700012  70.5314997  -3.9750012  44.8590012  71.3134997  -3.5200012
  44.5200012  70.3784997  -4.6610012  45.0395558  70.6179105  -4.0054129
  51.1490012  65.8954997 -16.5230012  51.7290012  66.0454997 -15.7760012
  51.5630012  66.3664997 -17.2460012  51.2842830  65.9796841 -16.5185866
  42.0900012  66.7294997  -4.7460012  42.1610012  67.3804997  -4.0480012
  41.2000012  66.8324997  -5.0810012  41.9793117  66.8325936  -4.6957300
  48.8760012  72.6324997 -13.0880012  49.3500012  72.9274997 -12.3100012
  48.3130012  73.3704997 -13.3210012  48.8647653  72.7726932 -13.0129864
  43.4100012  72.6034997  -3.2120012  43.4170012  72.4674997  -4.1590012
  42.4940012  72.4854997  -2.9600012  43.2871714  72.5689430  -3.3075334
  54.8480012  57.6454997 -16.7100012  53.9480012  57.7844997 -16.4150012
  55.1000012  58.4764997 -17.1120012  54.7588702  57.7769074 -16.7239795
  42.9140012  66.4334997 -14.7360012  42.6220012  67.2014997 -15.2270012
  42.2400012  65.7734997 -14.8990012  42.7829081  66.4494406 -14.8252660
  56.0370012  72.0114997 -18.3340012  56.1110012  72.9504997 -18.1630012
  56.9430012  71.7064997 -18.3900012  56.1695100  72.0986722 -18.3181881
  39.0070012  68.7964997  -5.9210012  38.5060012  68.7684997  -6.7360012
  39.0120012  67.8904997  -5.6120012  38.9391526  68.6702278  -5.9907128
  38.7570012  71.5764997  -9.0370012  39.7030012  71.4324997  -9.0560012
  38.6450012  72.3604997  -8.5000012  38.8712727  71.6628046  -8.9669928
  56.9550012  72.2424997  -3.3550012  56.9060012  71.2874997  -3.3920012
  56.1280012  72.5104997  -2.9540012  56.8364940  72.1478998  -3.3058625
  47.9340012  71.8164997  -4.4790012  48.0210012  72.6424997  -4.0040012
  47.0700012  71.4864997  -4.2300012  47.8291964  71.8849878  -4.3803451
  48.3480012  75.5884997 -14.6730012  48.2730012  75.4674997 -15.6190012
  48.3810012  76.5384997 -14.5540012  48.3421848  75.7002500 -14.7865166
  42.0010012  74.3774997 -12.8920012  42.1540012  74.0294997 -12.0130012
  41.1510012  74.0214997 -13.1470012  41.9068962  74.2816650 -12.8061660
  51.4500012  74.7424997 -17.6710012  51.8250012  73.9984997 -18.1410012
  51.4540012  74.4724997 -16.7520012  51.5018915  74.6041486 -17.6112176
  51.1190012  74.6684997 -14.9210012  50.1830012  74.7684997 -14.7430012
  51.3990012  73.9594997 -14.3430012  51.0288255  74.5862711 -14.8184609
  54.1070012  63.7354997  -2.8750012  53.7000012  64.2164997  -3.5960012
  54.1480012  62.8304997  -3.1830012  54.0568437  63.6789374  -3.0153317
  41.2560012  70.1194997  -4.8780012  41.4720012  69.7584997  -4.0190012
  40.4010012  69.7454997  -5.0880012  41.1699292  70.0194111  -4.7886614
  43.8750012  58.5894997  -8.8830012  43.0130012  58.5024997  -9.2900012
  43.8520012  59.4454997  -8.4550012  43.7540330  58.6932765  -8.8808137
  48.5380012  58.3114997  -5.5080012  48.9580012  57.8964997  -4.7550012
  47.6050012  58.1334997  -5.3910012  48.4693644  58.2305900  -5.3890461
  51.8640012  62.0674997  -4.6550012  51.3500012  61.9414997  -3.8570012
  51.7090012  62.9794997  -4.8990012  51.7726852  62.1736132  -4.5787842
  52.6270012  66.9284997 -18.8930012  52.6690012  66.7054997 -19.8230012
  53.4760012  67.3274997 -18.7030012  52.7475396  66.9519155 -18.9946373
  48.1990012  60.8044997 -18.2230012  47.9460012  60.8234997 -17.3000012
  47.9430012  59.9324997 -18.5240012  48.1297790  60.6892437 -18.1373737
  43.9660012  63.5554997  -7.7880012  43.3240012  63.5144997  -7.0790012
  44.0030012  64.4814997  -8.0250012  43.8831324  63.6751559  -7.7230176
  43.9630012  63.7764997 -12.8760012  43.0700012  63.4354997 -12.9340012
  44.4130012  63.3994997 -13.6310012  43.9017305  63.6788484 -12.9860823
  49.4980012  64.1924997 -14.0590012  49.0890012  65.0074997 -14.3500012
  50.2190012  64.0524997 -14.6730012  49.5394537  64.2852018 -14.1818658
  48.6000012  64.3674997  -2.5710012  48.0380012  63.6634997  -2.2500012
  49.4270012  64.2474997  -2.1030012  48.6347095  64.2547883  -2.4637670
  50.5030012  63.6384997 -11.2450012  50.3080012  64.2434997 -11.9600012
  50.6840012  62.8044997 -11.6790012  50.5007614  63.6086300 -11.4015595
  41.7160012  63.8754997  -5.9210012  41.6780012  64.2754997  -5.0520012
  41.2250012  63.0584997  -5.8300012  41.6444684  63.8198069  -5.7898941
  45.0820012  61.2494997 -19.1220012  44.6510012  60.8044997 -18.3920012
  44.3640012  61.6214997 -19.6340012  44.9259438  61.2388940 -19.0913201
  38.3240012  60.9914997 -12.0700012  38.9550012  60.9624997 -11.3510012
  38.7730012  60.5664997 -12.8000012  38.4710774  60.9300492 -12.0703447
  39.5980012  61.7374997 -16.6460012  40.0720012  62.3284997 -17.2310012
  38.8810012  62.2684997 -16.2990012  39.5659341  61.8900867 -16.6791164
  49.7670012  65.2764997  -6.5730012  50.0900012  64.6454997  -7.2160012
  49.3270012  64.7414997  -5.9130012  49.7516895  65.1178441  -6.5717150
  46.5440012  61.2034997 -11.7890012  45.6330012  61.2604997 -11.5010012
  47.0500012  61.1434997 -10.9790012  46.4875413  61.2031985 -11.6399378
  41.3730012  62.8324997 -12.9630012  40.4830012  62.9324997 -13.3030012
  41.6690012  61.9904997 -13.3090012  41.2912823  62.7323545 -13.0562787
  45.0260012  62.8324997 -15.3060012  45.9570012  62.9614997 -15.1280012
  44.8110012  63.5024997 -15.9560012  45.1244247  62.9406565 -15.3694253
  50.9490012  60.4384997  -8.5250012  50.2730012  60.5694997  -7.8610012
  50.4640012  60.2834997  -9.3350012  50.7907145  60.4354905  -8.5435483
  43.7000012  64.0274997 -17.7390012  43.1570012  63.6474997 -18.4310012
  44.5330012  64.2214997 -18.1680012  43.7384399  64.0018124 -17.8915474
  54.2370012  76.1104997  -2.2480012  54.4370012  76.5344997  -3.0830012
  54.8920012  76.4534997  -1.6410012  54.3530051  76.2149648  -2.2802164
  41.8350012  68.5844997  -2.6400012  42.5670012  68.8384997  -2.0790012
  41.0550012  68.7884997  -2.1250012  41.8298232  68.6469177  -2.4934240
  47.8640012  63.9914997  -9.9020012  48.4290012  63.4444997 -10.4490012
  47.7170012  63.4694997  -9.1140012  47.9212918  63.8462024  -9.8701546
  42.8660012  60.1274997 -13.4840012  42.5490012  59.2254997 -13.5190012
  43.6480012  60.1294997 -14.0370012  42.9282284  60.0041628 -13.5635217
  46.4910012  62.3794997  -7.4880012  45.6550012  62.8334997  -7.3780012
  47.0150012  62.6554997  -6.7360012  46.4474414  62.4789376  -7.3712864
  47.0350012  68.5924997 -15.8040012  46.2900012  68.0854997 -16.1260012
  46.9010012  68.6414997 -14.8570012  46.9148776  68.5296940 -15.7201353
  54.1850012  67.7254997  -7.0170012  54.8270012  68.1824997  -7.5610012
  53.3550012  67.8384997  -7.4800012  54.1605963  67.8032704  -7.1539823
  50.9330012  61.4064997 -17.6040012  49.9940012  61.5184997 -17.7560012
  51.2300012  62.2634997 -17.2980012  50.8447666  61.5376443 -17.5834232
  48.5540012  68.7764997  -4.5670012  48.2090012  68.3954997  -3.7600012
  48.3540012  69.7104997  -4.4950012  48.4798061  68.8505228  -4.4469039
  51.6510012  63.2734997 -15.9440012  52.5430012  63.1364997 -15.6250012
  51.7080012  64.0644997 -16.4800012  51.7806285  63.3616660 -15.9728309
  42.1600012  67.8874997 -10.0340012  42.9050012  67.8854997 -10.6350012
  42.2380012  67.0644997  -9.5520012  42.2725518  67.7759315 -10.0511071
  49.1610012  70.0514997 -16.7780012  48.8650012  70.8774997 -16.3970012
  48.4580012  69.4314997 -16.5820012  49.0254914  70.0808199 -16.6993557
  39.1680012  66.3484997  -4.7190012  39.3910012  65.9304997  -3.8870012
  38.5660012  65.7354997  -5.1420012  39.1171759  66.2084668  -4.6622978
  46.1840012  65.8654997  -2.5060012  45.8880012  65.6994997  -3.4010012
  47.1160012  65.6454997  -2.5170012  46.2694166  65.8130640  -2.6299464
  50.8050012  71.2384997  -4.6160012  49.9040012  71.4214997  -4.8840012
  50.8390012  71.4974997  -3.6950012  50.6863041  71.2985512  -4.5281803
  56.5360012  63.4834997 -16.2490012  55.9820012  63.0874997 -16.9210012
  56.6360012  64.3934997 -16.5270012  56.4737059  63.5523586 -16.3785599
  56.4990012  69.2834997  -3.4120012  55.6480012  69.5214997  -3.7790012
  57.0900012  69.2664997  -4.1650012  56.4622487  69.3138258  -3.5641107
  54.8310012  72.2694997 -15.7840012  54.4580012  71.4434997 -15.4750012
  55.1090012  72.0864997 -16.6810012  54.8175630  72.1317303 -15.8630374
  51.9920012  67.0774997  -8.7630012  51.0630012  66.8454997  -8.7900012
  52.4430012  66.3004997  -9.0930012  51.9259216  66.9407238  -8.8113083
  44.5350012  71.4054997 -12.6300012  45.0620012  72.1784997 -12.8300012
  43.6550012  71.6304997 -12.9310012  44.4881773  71.5418005 -12.6980990
  40.2900012  66.2674997 -18.0430012  40.9060012  66.8944997 -17.6630012
  39.4280012  66.5834997 -17.7710012  40.2577698  66.3959430 -17.9542817
  45.9620012  69.0684997 -13.0530012  45.7210012  69.9934997 -13.0120012
  45.2210012  68.6094997 -12.6570012  45.8288409  69.1331421 -12.9938623
  46.4770012  73.2174997  -6.7380012  46.8390012  74.0724997  -6.9720012
  47.0080012  72.9254997  -5.9980012  46.5984473  73.2951060  -6.6699145
  44.6450012  74.0904997 -13.5080012  43.6950012  74.1954997 -13.4570012
  44.9970012  74.9104997 -13.1630012  44.5624203  74.2158314 -13.4543350
  50.0210012  69.3164997  -7.0380012  49.5950012  69.0894997  -6.2110012
  50.6010012  68.5784997  -7.2200012  50.0411868  69.1855299  -6.9494170
  52.2240012  70.2454997 -17.9640012  52.5770012  69.8654997 -17.1590012
  51.2750012  70.1524997 -17.8770012  52.1440441  70.1809596 -17.8421441
  52.6790012  73.8684997  -4.5680012  52.0780012  73.3134997  -5.0640012
  52.9610012  74.5354997  -5.1940012  52.6348519  73.8826841  -4.7205048
  56.7270012  74.7254997 -17.7630012  57.4710012  75.3114997 -17.9030012
  56.0330012  75.2934997 -17.4290012  56.7350292  74.8825582 -17.7370039
  40.8020012  61.1014997  -5.1610012  39.9090012  61.4404997  -5.2290012
  40.7030012  60.2464997  -4.7430012  40.6664164  61.0322588  -5.1137765
  53.0900012  68.9184997 -15.7370012  52.8120012  68.1904997 -15.1810012
  54.0170012  69.0374997 -15.5320012  53.1773124  68.8348802 -15.6331155
  40.4530012  72.9064997  -6.7260012  40.6700012  71.9744997  -6.7570012
  40.6990012  73.1804997  -5.8430012  40.5159549  72.8160636  -6.6108237
  46.3150012  71.3574997 -19.5170012  46.5540012  70.6094997 -20.0640012
  46.0460012  70.9694997 -18.6840012  46.3113675  71.2026638 -19.4793135
  45.2520012  70.9274997 -17.0600012  45.3980012  70.4074997 -16.2700012
  45.2490012  71.8344997 -16.7540012  45.2715989  70.9788853 -16.9103912
  41.7050012  68.1804997 -16.5500012  41.0190012  68.5324997 -15.9830012
  42.2270012  68.9434997 -16.7970012  41.6816852  68.3318578 -16.5057882
  49.5360012  60.8424997  -6.2710012  50.2350012  60.9164997  -5.6210012
  49.1550012  59.9784997  -6.1170012  49.5801767  60.7357624  -6.1611678
  50.3210012  60.4944997 -15.1740012  50.5410012  60.9664997 -15.9770012
  50.8790012  60.8894997 -14.5040012  50.4264968  60.6124285 -15.1932669
  47.9890012  72.6254997 -16.3110012  47.1730012  73.1224997 -16.2590012
  48.5190012  73.1004997 -16.9510012  47.9489161  72.7577722 -16.3904044
  47.5210012  62.2224997 -14.3390012  48.3330012  62.7274997 -14.2930012
  47.2760012  62.0774997 -13.4250012  47.5990520  62.2720375 -14.2091483
  48.0560012  63.2084997  -5.1540012  48.1750012  63.7824997  -4.3970012
  48.7120012  62.5204997  -5.0400012  48.1609757  63.1941079  -5.0349175
  48.4040012  59.3034997 -13.4010012  48.0580012  59.9214997 -12.7560012
  49.0630012  59.8044997 -13.8820012  48.4457826  59.4555802 -13.3779029
  45.3280012  73.6694997 -16.3290012  45.4880012  74.4684997 -16.8300012
  45.1300012  73.9754997 -15.4440012  45.3231649  73.8204469 -16.2780185
  44.0620012  60.3664997 -16.7140012  43.9790012  61.2554997 -16.3670012
  44.9520012  60.1014997 -16.4820012  44.1709469  60.4521430 -16.6352374
  54.2610012  61.1154997  -4.3190012  53.3440012  61.3784997  -4.4070012
  54.5960012  61.1124997  -5.2160012  54.1809900  61.1510224  -4.4522081
  52.8630012  64.8664997 -10.2240012  52.0650012  64.4514997 -10.5520012
  53.3080012  64.1754997  -9.7330012  52.8139885  64.7163543 -10.2025111
  42.3210012  70.7944997 -17.6530012  42.9130012  71.4934997 -17.3770012
  42.7800012  70.3614997 -18.3730012  42.4641142  70.8317049 -17.7125170
  40.6370012  63.4584997 -18.5370012  40.5920012  64.3974997 -18.3590012
  39.7490012  63.2224997 -18.8070012  40.5108574  63.5551892 -18.5491088
  53.9490012  74.1224997  -8.6010012  53.7940012  74.8004997  -9.2580012
  54.8820012  74.1944997  -8.3980012  54.0538500  74.2250170  -8.6634881
  41.4450012  58.2404997  -9.8640012  41.2160012  58.2994997 -10.7920012
  41.0020012  57.4484997  -9.5580012  41.3538530  58.1415753  -9.9495214
  40.3750012  72.1804997 -13.7040012  39.5430012  72.6534997 -13.6760012
  40.9210012  72.6904997 -14.3020012  40.3349739  72.3141871 -13.7810284
  39.6630012  74.7934997  -2.3740012  40.2040012  74.5764997  -1.6140012
  39.1820012  73.9874997  -2.5630012  39.6719345  74.6549514  -2.2956924
  44.2610012  73.7124997  -0.7530012  45.0280012  73.2534997  -0.4120012
  44.2390012  73.4864997  -1.6830012  44.3631434  73.6190409  -0.8319957
  48.3530012  73.2204997 -19.3780012  47.7090012  72.5894997 -19.0570012
  49.1150012  72.6894997 -19.6100012  48.3678077  73.0622920 -19.3653989
  50.8380012  72.0924997  -2.0240012  50.4870012  71.2364997  -1.7810012
  51.5640012  72.2354997  -1.4170012  50.8880769  71.9945636  -1.9086381
  52.9570012  73.0374997 -19.1440012  53.2400012  72.2434997 -18.6920012
  53.6970012  73.2704997 -19.7050012  53.0957486  72.9602803 -19.1579302
  39.5700012  68.6034997  -1.4190012  39.7140012  67.7014997  -1.7060012
  38.7980012  68.8894997  -1.9070012  39.4853322  68.5188261  -1.5242119
  43.9120012  68.9474997 -19.2870012  43.9760012  68.1534997 -18.7560012
  44.5650012  68.8284997 -19.9770012  44.0090241  68.8227148 -19.3075683
  46.2260012  68.5734997  -1.9870012  45.8970012  68.8444997  -2.8440012
  46.3780012  67.6324997  -2.0740012  46.2014809  68.4833862  -2.1161756
  51.9600012  68.4894997  -4.6030012  52.7060012  69.0774997  -4.7230012
  51.2030012  69.0714997  -4.5400012  51.9597554  68.6487011  -4.6109093
  40.4030012  65.8034997  -1.9990012  40.8110012  64.9464997  -2.1200012
  40.1430012  65.8184997  -1.0780012  40.4237568  65.6880807  -1.8910412
  45.0610012  66.9194997 -16.9810012  44.6010012  66.4354997 -16.2950012
  45.3160012  66.2514997 -17.6170012  45.0324902  66.7628731 -16.9730666
  44.3500012  64.8124997  -4.6250012  43.7320012  65.4874997  -4.3450012
  44.6940012  65.1334997  -5.4580012  44.3119615  64.9482721  -4.6993419
  46.1320012  65.1624997 -18.7190012  45.9520012  65.0084997 -19.6460012
  47.0820012  65.2704997 -18.6740012  46.2357776  65.1560175 -18.8398157
  49.3700012  67.2844997  -1.3480012  50.3230012  67.3674997  -1.3750012
  49.2090012  66.5724997  -0.7280012  49.4786426  67.1996746  -1.2679421
  55.5220012  67.5174997 -19.2730012  55.2480012  67.0924997 -20.0860012
  55.5610012  68.4484997 -19.4900012  55.4897699  67.5852484 -19.4136390
  44.6890012  62.1674997  -3.5430012  44.8390012  61.4384997  -4.1450012
  44.6920012  62.9444997  -4.1020012  44.7099302  62.1727851  -3.7009308
  45.1020012  60.5374997  -6.0500012  45.6380012  60.9884997  -6.7020012
  44.2500012  60.4294997  -6.4730012  45.0602178  60.5846390  -6.1964244
  46.6840012  65.9764997  -5.8110012  47.4340012  65.8204997  -6.3840012
  46.3450012  66.8284997  -6.0860012  46.7408921  66.0702968  -5.9266439
  51.0990012  63.7914997  -0.7820012  51.2920012  62.8604997  -0.8940012
  51.9570012  64.2164997  -0.7920012  51.2413020  63.7216389  -0.7986639
  52.4160012  66.5804997  -2.7050012  52.1350012  67.2894997  -3.2820012
  53.3590012  66.5074997  -2.8560012  52.5049027  66.6677646  -2.8044449
  43.1680012  63.3654997  -1.6310012  42.4010012  62.8334997  -1.8410012
  43.8470012  63.0554997  -2.2310012  43.1547022  63.2507506  -1.7408352
  45.9080012  57.9934997  -5.6190012  45.8090012  58.9404997  -5.7240012
  45.1650012  57.6214997  -6.0940012  45.7940564  58.0725902  -5.6975440
  47.1720012  62.3154997  -2.0550012  46.9360012  62.0954997  -1.1530012
  46.3880012  62.1084997  -2.5650012  47.0338628  62.2574760  -2.0006068
  49.8870012  61.4424997  -2.9790012  48.9400012  61.4744997  -2.8470012
  50.2000012  60.8174997  -2.3260012  49.7995475  61.3623207  -2.8725545
  51.5210012  60.0764997  -0.9740012  51.4250012  59.1244997  -0.9800012
  51.2000012  60.3454997  -0.1140012  51.4644070  59.9824035  -0.8584559
  41.3480012  61.2864997  -1.9270012  41.5600012  60.5794997  -2.5370012
  41.2370012  60.8484997  -1.0830012  41.3619721  61.1307084  -1.8963157
  46.1290012  57.2874997  -2.9470012  46.8410012  56.6474997  -2.9610012
  46.0280012  57.5544997  -3.8610012  46.2127939  57.2359938  -3.0724350
  46.4830012  58.9704997  -0.8940012  46.3510012  58.4944997  -1.7140012
  45.8840012  59.7144997  -0.9490012  46.3839071  59.0059618  -1.0137114
  46.0290012  75.8534997 -17.7170012  46.9620012  76.0114997 -17.5740012
  45.7650012  76.5284997 -18.3420012  46.1209510  75.9663611 -17.7819259
  39.5980012  70.4894997 -18.2350012  40.5120012  70.5684997 -17.9610012
  39.6050012  69.8024997 -18.9010012  39.7241131  70.4073961 -18.2875607
  38.2470012  75.8824997 -13.1570012  37.6000012  75.4204997 -13.6900012
  38.6010012  75.2104997 -12.5750012  38.2063849  75.7284723 -13.1512041
  39.1170012  73.9634997 -11.3530012  38.7820012  73.0834997 -11.1810012
  39.3390012  74.3084997 -10.4880012  39.1011783  73.8897500 -11.2125792
  56.6650012  74.7724997  -8.3720012  56.6440012  74.9574997  -7.4330012
  57.3560012  75.3414997  -8.7130012  56.7554618  74.8746606  -8.2896136
  56.2290012  74.3404997  -5.4500012  55.7410012  73.6044997  -5.8210012
  56.7780012  73.9464997  -4.7720012  56.2364872  74.1866249  -5.4090840
  54.6790012  70.1294997  -0.8120012  53.8130012  70.0244997  -0.4180012
  55.0560012  70.8884997  -0.3660012  54.6113308  70.2176900  -0.6977607
  55.9800012  68.3864997 -15.2980012  56.8300012  68.8074997 -15.1710012
  55.9860012  67.6464997 -14.6910012  56.0971372  68.3440803 -15.1985656
  56.3750012  66.4394997 -13.4740012  55.6480012  65.9604997 -13.0770012
  56.9560012  66.6454997 -12.7420012  56.3539375  66.4017090 -13.3205871
  56.1340012  69.2244997  -8.5270012  56.9670012  68.8464997  -8.8070012
  56.2460012  70.1674997  -8.6460012  56.2632647  69.3002218  -8.5814513
  54.6200012  72.1024997  -6.2200012  53.9730012  72.4274997  -5.5940012
  54.1030012  71.6624997  -6.8940012  54.4614029  72.0875004  -6.2254173
  56.6430012  66.3404997 -17.0830012  56.1210012  66.6974997 -17.8020012
  56.6100012  67.0154997 -16.4050012  56.5671634  66.4805413 -17.0896855
  54.9920012  63.5804997 -18.5320012  55.0880012  64.2474997 -19.2130012
  54.8520012  62.7644997 -19.0140012  54.9862135  63.5614500 -18.6901509
  54.1610012  64.9604997 -12.9110012  54.0110012  64.0154997 -12.9320012
  53.8080012  65.2414997 -12.0680012  54.0926625  64.8690441 -12.7997654
  39.1970012  67.0384997  -8.9010012  39.3810012  66.9564997  -9.8370012
  40.0460012  66.9144997  -8.4770012  39.3370139  67.0105003  -8.9718545
  55.0180012  66.9304997  -3.2730012  55.6010012  66.1964997  -3.0810012
  55.5820012  67.7024997  -3.2260012  55.1739769  66.9344227  -3.2403841
  56.5140012  64.8334997  -2.5880012  55.6510012  64.4544997  -2.7540012
  57.1190012  64.0944997  -2.6620012  56.4775979  64.6818023  -2.6207183
  54.2390012  60.9884997 -19.4150012  54.8500012  60.6174997 -18.7780012
  53.4030012  60.5674997 -19.2190012  54.2095032  60.8807554 -19.3012965
  53.8720012  62.5434997 -14.4490012  54.1520012  61.6364997 -14.3250012
  54.6310012  62.9774997 -14.8380012  54.0129277  62.4780942 -14.4846318
  54.4840012  63.1244997  -9.0130012  55.4170012  63.3364997  -9.0470012
  54.2490012  63.2264997  -8.0910012  54.5798036  63.1672769  -8.8930024
  54.5130012  63.8614997  -6.2370012  53.6700012  64.1294997  -5.8710012
  54.9550012  64.6834997  -6.4480012  54.4574158  64.0093291  -6.2154509
  38.7940012  62.3094997  -2.7600012  39.7140012  62.1874997  -2.5240012
  38.3450012  61.5594997  -2.3710012  38.8591580  62.1913727  -2.6750994
  56.7960012  57.8414997  -0.8840012  57.1460012  57.1874997  -1.4890012
  56.9430012  58.6784997  -1.3230012  56.8638419  57.8651591  -1.0262882
  54.4850012  59.8064997 -14.4010012  54.6680012  59.3574997 -13.5750012
  53.8860012  59.2214997 -14.8640012  54.4290202  59.6659975 -14.3506725
  40.0150012  60.6214997  -9.8690012  40.4610012  59.8294997  -9.5670012
  40.4820012  61.3374997  -9.4380012  40.1390172  60.6100624  -9.7695180
  38.3190012  63.6204997  -8.8000012  38.8110012  63.3994997  -9.5910012
  38.6820012  64.4614997  -8.5190012  38.4353126  63.7038357  -8.8702469
  56.3160012  59.9504997  -2.5340012  55.3980012  60.2214997  -2.5700012
  56.4390012  59.4154997  -3.3190012  56.2071066  59.9152892  -2.6449513
  56.3520012  59.8734997 -17.8730012  56.7640012  59.1524997 -18.3480012
  57.0340012  60.5434997 -17.8140012  56.5005885  59.8652368 -17.9301085
  38.6330012  59.8784997 -14.7460012  37.7080012  60.0874997 -14.8750012
  39.0870012  60.3624997 -15.4350012  38.5677368  59.9725993 -14.8568774
  53.4040012  74.8624997 -12.8000012  54.0560012  74.5154997 -13.4080012
  53.9140012  75.3514997 -12.1540012  53.5622637  74.8810597 -12.7959764
  38.5970012  58.6164997  -6.4010012  37.9320012  58.3704997  -5.7580012
  38.1540012  59.2384997  -6.9790012  38.4460956  58.6668632  -6.3910648
  40.7890012  71.7914997  -2.2570012  39.9680012  71.9664997  -2.7170012
  40.5360012  71.7184997  -1.3360012  40.6426164  71.8055622  -2.1955077
  43.7430012  72.7664997  -5.9980012  43.3180012  73.5754997  -6.2810012
  44.6470012  72.8514997  -6.3000012  43.8070271  72.8888469  -6.0776224
  48.0540012  74.1654997  -3.0390012  48.2390012  73.8314997  -2.1610012
  48.9000012  74.4744997  -3.3610012  48.1937539  74.1616047  -2.9624395
  50.3990012  75.4514997  -3.7950012  51.0760012  74.8184997  -4.0350012
  50.7210012  75.8524997  -2.9880012  50.5351637  75.4191154  -3.7187207
  55.3160012  58.0404997  -4.7150012  54.5040012  58.3654997  -5.1030012
  55.5490012  57.2804997  -5.2480012  55.2363423  57.9822436  -4.8401747
  41.1450012  76.0224997  -5.9510012  40.4240012  76.4624997  -6.4020012
  40.7790012  75.7714997  -5.1020012  40.9969804  76.0487698  -5.8980160
  43.6120012  75.6224997  -6.9210012  42.7470012  75.6944997  -6.5170012
  43.5570012  76.1694997  -7.7050012  43.4862085  75.7062685  -6.9716638
  48.3220012  75.5104997  -7.7460012  47.8660012  76.0394997  -8.4000012
  48.4850012  76.1134997  -7.0200012  48.2815585  75.6644468  -7.7374938
  50.6500012  74.3884997  -6.8010012  49.7450012  74.5534997  -7.0660012
  51.0790012  75.2414997  -6.8660012  50.5840799  74.5264483  -6.8460818
  53.2540012  75.9584997  -6.5060012  53.0720012  76.8744997  -6.7160012
  53.4310012  75.5484997  -7.3520012  53.2530210  76.0284822  -6.6492115
  40.5590012  74.6454997  -9.0410012  40.5410012  74.2204997  -8.1830012
  41.3640012  74.3274997  -9.4490012  40.6653875  74.5443812  -8.9788345
  42.7010012  73.3554997 -10.3860012  42.4820012  72.4394997 -10.2160012
  43.5250012  73.4954997  -9.9200012  42.7824420  73.2490520 -10.2997226
  45.2380012  73.8254997  -9.5370012  45.4510012  72.9374997  -9.8240012
  45.3020012  73.7914997  -8.5830012  45.2758232  73.6993102  -9.4472603
  48.7460012  59.4894997 -10.3930012  48.0720012  58.8604997 -10.1370012
  49.3100012  59.0054997 -10.9960012  48.7299230  59.3378744 -10.4394660
  53.8890012  57.5974997 -10.2800012  54.4930012  58.1444997 -10.7820012
  53.0190012  57.9164997 -10.5200012  53.8541241  57.7155806 -10.3812346
  55.6160012  58.7354997 -11.9470012  56.2280012  58.2214997 -12.4730012
  55.9980012  59.6134997 -11.9230012  55.7514540  58.7837140 -12.0158170
  41.0730012  58.1234997 -12.5710012  40.2960012  57.8894997 -13.0780012
  41.6030012  57.3264997 -12.5620012  41.0382330  57.9836988 -12.6392258
  39.9090012  57.9214997 -16.7670012  40.3480012  58.5324997 -17.3590012
  39.2760012  58.4594997 -16.2930012  39.8834514  58.0779257 -16.7839070
  45.6520012  58.0504997 -12.7570012  46.5270012  58.4384997 -12.7870012
  45.5160012  57.8354997 -11.8350012  45.7533695  58.0745184 -12.6363560
  51.2090012  58.0804997 -11.1080012  51.2850012  58.1754997 -12.0580012
  50.9340012  57.1724997 -10.9790012  51.1822321  57.9707867 -11.2204921
  52.5620012  58.1064997 -15.4160012  51.8600012  58.7214997 -15.6250012
  52.1180012  57.2684997 -15.2850012  52.4056330  58.0775783 -15.4269672
  39.8100012  73.8694997 -15.8690012  39.1250012  73.8314997 -16.5370012
  39.8140012  74.7824997 -15.5810012  39.7168193  73.9877016 -15.9214716
  41.7700012  59.8374997 -18.3250012  42.2620012  59.2074997 -18.8520012
  42.3940012  60.1334997 -17.6610012  41.9215446  59.7913199 -18.3074020
  46.7960012  60.1304997 -15.8680012  46.9740012  59.4844997 -15.1850012
  46.7430012  60.9644997 -15.4000012  46.8131829  60.1547985 -15.7114060
  48.6750012  75.0794997 -17.4720012  49.5410012  75.4454997 -17.6500012
  48.4280012  74.6394997 -18.2860012  48.7602392  75.0701756 -17.6063711
  55.3840012  74.6424997 -14.7930012  55.1890012  73.8944997 -15.3580012
  55.3450012  75.4004997 -15.3760012  55.3520380  74.6426099 -14.9491616
  41.0310012  58.6374997  -3.0530012  40.6650012  57.8724997  -2.6100012
  41.9440012  58.6664997  -2.7660012  41.1042790  58.5367224  -2.9535930
  43.0040012  57.9884997  -1.5170012  43.9020012  57.7144997  -1.7020012
  42.6170012  57.2454997  -1.0530012  43.0746612  57.8505914  -1.4796357
  41.6280012  74.7894997 -18.8440012  41.3610012  75.0764997 -17.9710012
  42.4000012  74.2434997 -18.6920012  41.6957488  74.7550294 -18.7038950
  51.4250012  57.3204997  -1.3350012  51.5020012  56.8944997  -0.4810012
  52.3190012  57.3344997  -1.6780012  51.5563428  57.2640879  -1.2644690
  54.6010012  73.3934997  -2.6430012  53.8190012  73.2074997  -3.1620012
  54.5290012  74.3224997  -2.4250012  54.4841777  73.4936492  -2.6845952
  69.0070012  67.2794997 -12.6120012  69.0960012  68.2234997 -12.7440012
  68.3690012  67.0044997 -13.2700012  68.9329081  67.3714830 -12.7190386
  67.9400012  66.5344997  -9.1930012  67.9020012  65.8884997  -8.4880012
  67.6180012  66.0684997  -9.9640012  67.8912333  66.3829408  -9.2007022
  60.3090012  66.1494997  -7.6000012  60.3500012  65.5234997  -6.8770012
  61.0120012  66.7734997  -7.4180012  60.4096363  66.1481196  -7.4763956
  71.6460012  69.4734997 -10.8920012  71.2060012  68.7534997 -10.4410012
  71.6330012  70.1944997 -10.2620012  71.5840226  69.4723731 -10.7451506
  61.2320012  70.5994997  -9.0650012  60.8630012  69.7974997  -9.4350012
  62.1730012  70.4304997  -9.0190012  61.3087289  70.4670153  -9.1093684
  57.8420012  64.2594997 -13.6720012  57.3950012  65.1054997 -13.6910012
  57.2810012  63.6794997 -14.1880012  57.7049900  64.2969916 -13.7443199
  58.5530012  66.4214997 -11.5460012  58.7660012  65.6514997 -11.0190012
  59.2910012  66.5104997 -12.1500012  58.6818496  66.3281394 -11.5554700
  68.7580012  74.5784997 -10.6790012  69.3780012  73.9014997 -10.9530012
  68.5500012  74.3604997  -9.7710012  68.8146904  74.4563870 -10.5936635
  66.3300012  68.9674997  -8.7870012  66.6340012  68.2814997  -9.3820012
  67.0510012  69.0854997  -8.1690012  66.4690671  68.8896305  -8.7848184
  74.9930012  60.5684997  -7.9260012  75.0420012  61.1784997  -7.1900012
  75.4180012  61.0294997  -8.6490012  75.0571824  60.7143741  -7.9229795
  69.4710012  63.3614997  -8.4590012  69.6130012  62.4154997  -8.4390012
  69.3640012  63.5684997  -9.3880012  69.4759864  63.2599534  -8.5817661
  62.6250012  61.4624997 -11.1870012  62.6690012  62.3224997 -11.6050012
  62.1680012  60.9104997 -11.8210012  62.5692185  61.5055799 -11.3299701
  70.3480012  61.5934997 -12.7860012  70.9940012  61.2644997 -12.1610012
  70.8580012  62.1114997 -13.4090012  70.5054264  61.6184611 -12.7846138
  59.2460012  63.8594997 -10.4250012  59.8990012  63.3094997  -9.9930012
  59.2700012  63.5854997 -11.3420012  59.3386683  63.7471466 -10.4897877
  64.4020012  65.4094997 -11.2100012  65.0180012  64.8834997 -10.7000012
  63.8160012  64.7694997 -11.6130012  64.4070810  65.2509208 -11.1946827
  75.3840012  62.0464997  -5.6900012  74.6960012  62.7044997  -5.7860012
  75.4000012  61.8494997  -4.7540012  75.2918525  62.1100462  -5.5765192
  61.4360012  60.3804997  -7.1130012  61.2170012  60.9104997  -7.8790012
  60.7680012  60.6074997  -6.4660012  61.3157600  60.4836906  -7.1303621
  68.8050012  69.8804997 -13.5690012  68.5090012  69.5584997 -14.4200012
  68.4800012  70.7804997 -13.5280012  68.7206371  69.9580215 -13.6798199
  64.0050012  68.0564997  -6.8260012  63.2650012  68.6544997  -6.7220012
  64.7190012  68.6104997  -7.1410012  64.0002237  68.2132831  -6.8543535
  72.1120012  60.8844997 -10.8060012  71.8960012  60.1184997 -10.2730012
  72.7670012  61.3564997 -10.2930012  72.1710632  60.8435889 -10.6637139
  61.0290012  62.2724997  -9.1610012  61.6430012  62.9054997  -8.7870012
  61.5410012  61.8004997  -9.8170012  61.1822296  62.2952370  -9.1985748
  62.4120012  70.0204997  -6.0380012  62.4070012  70.9004997  -6.4160012
  61.5590012  69.9374997  -5.6130012  62.2959464  70.1296117  -6.0322093
  58.5330012  69.6914997 -15.2560012  58.2610012  69.9204997 -16.1450012
  58.5790012  70.5294997 -14.7960012  58.5020094  69.8361213 -15.3154303
  72.1580012  71.3134997  -8.5440012  71.2170012  71.3714997  -8.3820012
  72.4350012  72.2194997  -8.6810012  72.0664679  71.4439443  -8.5403185
  72.4590012  59.5994997  -7.1260012  71.7230012  60.2104997  -7.1640012
  73.1420012  60.0144997  -7.6530012  72.4506541  59.7391374  -7.2024168
  65.4620012  57.6864997  -9.6600012  65.3450012  56.7374997  -9.7150012
  64.6070012  58.0184997  -9.3870012  65.3303733  57.6015409  -9.6306103
  70.4100012  73.0944997 -11.9180012  70.8360012  72.3874997 -12.4030012
  70.7270012  73.8954997 -12.3350012  70.5111019  73.1060994 -12.0406870
  71.5700012  70.9954997 -13.4100012  71.3120012  70.3054997 -14.0210012
  71.6410012  70.5524997 -12.5640012  71.5442856  70.8412124 -13.3793115
  73.2560012  69.5614997  -4.9320012  73.3960012  68.9704997  -5.6720012
  73.4230012  70.4344997  -5.2890012  73.2976778  69.5986426  -5.0813035
  67.7290012  66.5234997 -15.1600012  67.0170012  67.0584997 -15.5120012
  68.4200012  66.5794997 -15.8200012  67.7250132  66.6042543 -15.2973711
  67.7820012  64.9814997 -18.1210012  68.4830012  65.0034997 -17.4700012
  68.0850012  64.3534997 -18.7770012  67.9187830  64.8996566 -18.1206289
  75.0980012  65.9014997  -6.8660012  74.4450012  66.5964997  -6.7770012
  75.5630012  66.1114997  -7.6760012  75.0715390  66.0249425  -6.9633117
  71.1340012  66.7334997 -14.2080012  70.4020012  66.9614997 -13.6350012
  71.5820012  66.0194997 -13.7530012  71.0943095  66.6682571 -14.0680881
  71.0320012  64.9074997  -5.1410012  71.1120012  65.6704997  -4.5690012
  70.4300012  65.1864997  -5.8310012  70.9615756  65.0497134  -5.1559411
  62.7800012  67.3634997 -12.3260012  62.4490012  66.9934997 -13.1440012
  63.3680012  66.6934997 -11.9790012  62.8141873  67.2221156 -12.3911898
  64.1460012  70.7914997  -9.6440012  64.0520012  70.2134997 -10.4010012
  64.8760012  70.4204997  -9.1480012  64.2317981  70.6622390  -9.6805835
  63.1460012  66.1324997  -8.6920012  63.7120012  66.2534997  -9.4550012
  63.4650012  66.7694997  -8.0530012  63.2665786  66.2351884  -8.7099960
  69.4550012  71.6354997  -7.9580012  69.2150012  72.2974997  -7.3100012
  69.2570012  70.8014997  -7.5330012  69.3953808  71.6133134  -7.8118476
  64.0260012  70.5314997  -3.9750012  63.7150012  71.3134997  -3.5200012
  63.3760012  70.3784997  -4.6610012  63.8955558  70.6179105  -4.0054129
  70.0050012  65.8954997 -16.5230012  70.5850012  66.0454997 -15.7760012
  70.4190012  66.3664997 -17.2460012  70.1402830  65.9796841 -16.5185866
  60.9460012  66.7294997  -4.7460012  61.0170012  67.3804997  -4.0480012
  60.0560012  66.8324997  -5.0810012  60.8353117  66.8325936  -4.6957300
  67.7320012  72.6324997 -13.0880012  68.2060012  72.9274997 -12.3100012
  67.1690012  73.3704997 -13.3210012  67.7207653  72.7726932 -13.0129864
  62.2660012  72.6034997  -3.2120012  62.2730012  72.4674997  -4.1590012
  61.3500012  72.4854997  -2.9600012  62.1431714  72.5689430  -3.3075334
  73.7040012  57.6454997 -16.7100012  72.8040012  57.7844997 -16.4150012
  73.9560012  58.4764997 -17.1120012  73.6148702  57.7769074 -16.7239795
  61.7700012  66.4334997 -14.7360012  61.4780012  67.2014997 -15.2270012
  61.0960012  65.7734997 -14.8990012  61.6389081  66.4494406 -14.8252660
  74.8930012  72.0114997 -18.3340012  74.9670012  72.9504997 -18.1630012
  75.7990012  71.7064997 -18.3900012  75.0255100  72.0986722 -18.3181881
  57.8630012  68.7964997  -5.9210012  57.3620012  68.7684997  -6.7360012
  57.8680012  67.8904997  -5.6120012  57.7951526  68.6702278  -5.9907128
  57.6130012  71.5764997  -9.0370012  58.5590012  71.4324997  -9.0560012
  57.5010012  72.3604997  -8.5000012  57.7272727  71.6628046  -8.9669928
  75.8110012  72.2424997  -3.3550012  75.7620012  71.2874997  -3.3920012
  74.9840012  72.5104997  -2.9540012  75.6924940  72.1478998  -3.3058625
  66.7900012  71.8164997  -4.4790012  66.8770012  72.6424997  -4.0040012
  65.9260012  71.4864997  -4.2300012  66.6851964  71.8849878  -4.3803451
  67.2040012  75.5884997 -14.6730012  67.1290012  75.4674997 -15.6190012
  67.2370012  76.5384997 -14.5540012  67.1981848  75.7002500 -14.7865166
  60.8570012  74.3774997 -12.8920012  61.0100012  74.0294997 -12.0130012
  60.0070012  74.0214997 -13.1470012  60.7628962  74.2816650 -12.8061660
  70.3060012  74.7424997 -17.6710012  70.6810012  73.9984997 -18.1410012
  70.3100012  74.4724997 -16.7520012  70.3578915  74.6041486 -17.6112176
  69.9750012  74.6684997 -14.9210012  69.0390012  74.7684997 -14.7430012
  70.2550012  73.9594997 -14.3430012  69.8848255  74.5862711 -14.8184609
  72.9630012  63.7354997  -2.8750012  72.5560012  64.2164997  -3.5960012
  73.0040012  62.8304997  -3.1830012  72.9128437  63.6789374  -3.0153317
  60.1120012  70.1194997  -4.8780012  60.3280012  69.7584997  -4.0190012
  59.2570012  69.7454997  -5.0880012  60.0259292  70.0194111  -4.7886614
  62.7310012  58.5894997  -8.8830012  61.8690012  58.5024997  -9.2900012
  62.7080012  59.4454997  -8.4550012  62.6100330  58.6932765  -8.8808137
  67.3940012  58.3114997  -5.5080012  67.8140012  57.8964997  -4.7550012
  66.4610012  58.1334997  -5.3910012  67.3253644  58.2305900  -5.3890461
  70.7200012  62.0674997  -4.6550012  70.2060012  61.9414997  -3.8570012
  70.5650012  62.9794997  -4.8990012  70.6286852  62.1736132  -4.5787842
  71.4830012  66.9284997 -18.8930012  71.5250012  66.7054997 -19.8230012
  72.3320012  67.3274997 -18.7030012  71.6035396  66.9519155 -18.9946373
  67.0550012  60.8044997 -18.2230012  66.8020012  60.8234997 -17.3000012
  66.7990012  59.9324997 -18.5240012  66.9857790  60.6892437 -18.1373737
  62.8220012  63.5554997  -7.7880012  62.1800012  63.5144997  -7.0790012
  62.8590012  64.4814997  -8.0250012  62.7391324  63.6751559  -7.7230176
  62.8190012  63.7764997 -12.8760012  61.9260012  63.4354997 -12.9340012
  63.2690012  63.3994997 -13.6310012  62.7577305  63.6788484 -12.9860823
  68.3540012  64.1924997 -14.0590012  67.9450012  65.0074997 -14.3500012
  69.0750012  64.0524997 -14.6730012  68.3954537  64.2852018 -14.1818658
  67.4560012  64.3674997  -2.5710012  66.8940012  63.6634997  -2.2500012
  68.2830012  64.2474997  -2.1030012  67.4907095  64.2547883  -2.4637670
  69.3590012  63.6384997 -11.2450012  69.1640012  64.2434997 -11.9600012
  69.5400012  62.8044997 -11.6790012  69.3567614  63.6086300 -11.4015595
  60.5720012  63.8754997  -5.9210012  60.5340012  64.2754997  -5.0520012
  60.0810012  63.0584997  -5.8300012  60.5004684  63.8198069  -5.7898941
  63.9380012  61.2494997 -19.1220012  63.5070012  60.8044997 -18.3920012
  63.2200012  61.6214997 -19.6340012  63.7819438  61.2388940 -19.0913201
  57.1800012  60.9914997 -12.0700012  57.8110012  60.9624997 -11.3510012
  57.6290012  60.5664997 -12.8000012  57.3270774  60.9300492 -12.0703447
  58.4540012  61.7374997 -16.6460012  58.9280012  62.3284997 -17.2310012
  57.7370012  62.2684997 -16.2990012  58.4219341  61.8900867 -16.6791164
  68.6230012  65.2764997  -6.5730012  68.9460012  64.6454997  -7.2160012
  68.1830012  64.7414997  -5.9130012  68.6076895  65.1178440  -6.5717150
  65.4000012  61.2034997 -11.7890012  64.4890012  61.2604997 -11.5010012
  65.9060012  61.1434997 -10.9790012  65.3435413  61.2031985 -11.6399378
  60.2290012  62.8324997 -12.9630012  59.3390012  62.9324997 -13.3030012
  60.5250012  61.9904997 -13.3090012  60.1472823  62.7323545 -13.0562787
  63.8820012  62.8324997 -15.3060012  64.8130012  62.9614997 -15.1280012
  63.6670012  63.5024997 -15.9560012  63.9804247  62.9406565 -15.3694253
  69.8050012  60.4384997  -8.5250012  69.1290012  60.5694997  -7.8610012
  69.3200012  60.2834997  -9.3350012  69.6467145  60.4354905  -8.5435483
  62.5560012  64.0274997 -17.7390012  62.0130012  63.6474997 -18.4310012
  63.3890012  64.2214997 -18.1680012  62.5944399  64.0018124 -17.8915474
  73.0930012  76.1104997  -2.2480012  73.2930012  76.5344997  -3.0830012
  73.7480012  76.4534997  -1.6410012  73.2090051  76.2149648  -2.2802164
  60.6910012  68.5844997  -2.6400012  61.4230012  68.8384997  -2.0790012
  59.9110012  68.7884997  -2.1250012  60.6858232  68.6469177  -2.4934240
  66.7200012  63.9914997  -9.9020012  67.2850012  63.4444997 -10.4490012
  66.5730012  63.4694997  -9.1140012  66.7772918  63.8462024  -9.8701546
  61.7220012  60.1274997 -13.4840012  61.4050012  59.2254997 -13.5190012
  62.5040012  60.1294997 -14.0370012  61.7842284  60.0041628 -13.5635217
  65.3470012  62.3794997  -7.4880012  64.5110012  62.8334997  -7.3780012
  65.8710012  62.6554997  -6.7360012  65.3034414  62.4789376  -7.3712864
  65.8910012  68.5924997 -15.8040012  65.1460012  68.0854997 -16.1260012
  65.7570012  68.6414997 -14.8570012  65.7708776  68.5296940 -15.7201353
  73.0410012  67.7254997  -7.0170012  73.6830012  68.1824997  -7.5610012
  72.2110012  67.8384997  -7.4800012  73.0165963  67.8032704  -7.1539823
  69.7890012  61.4064997 -17.6040012  68.8500012  61.5184997 -17.7560012
  70.0860012  62.2634997 -17.2980012  69.7007666  61.5376443 -17.5834232
  67.4100012  68.7764997  -4.5670012  67.0650012  68.3954997  -3.7600012
  67.2100012  69.7104997  -4.4950012  67.3358061  68.8505228  -4.4469039
  70.5070012  63.2734997 -15.9440012  71.3990012  63.1364997 -15.6250012
  70.5640012  64.0644997 -16.4800012  70.6366285  63.3616660 -15.9728310
  61.0160012  67.8874997 -10.0340012  61.7610012  67.8854997 -10.6350012
  61.0940012  67.0644997  -9.5520012  61.1285518  67.7759315 -10.0511071
  68.0170012  70.0514997 -16.7780012  67.7210012  70.8774997 -16.3970012
  67.3140012  69.4314997 -16.5820012  67.8814914  70.0808199 -16.6993557
  58.0240012  66.3484997  -4.7190012  58.2470012  65.9304997  -3.8870012
  57.4220012  65.7354997  -5.1420012  57.9731759  66.2084668  -4.6622978
  65.0400012  65.8654997  -2.5060012  64.7440012  65.6994997  -3.4010012
  65.9720012  65.6454997  -2.5170012  65.1254166  65.8130640  -2.6299464
  69.6610012  71.2384997  -4.6160012  68.7600012  71.4214997  -4.8840012
  69.6950012  71.4974997  -3.6950012  69.5423041  71.2985512  -4.5281803
  75.3920012  63.4834997 -16.2490012  74.8380012  63.0874997 -16.9210012
  75.4920012  64.3934997 -16.5270012  75.3297059  63.5523586 -16.3785599
  75.3550012  69.2834997  -3.4120012  74.5040012  69.5214997  -3.7790012
  75.9460012  69.2664997  -4.1650012  75.3182487  69.3138258  -3.5641107
  73.6870012  72.2694997 -15.7840012  73.3140012  71.4434997 -15.4750012
  73.9650012  72.0864997 -16.6810012  73.6735630  72.1317303 -15.8630374
  70.8480012  67.0774997  -8.7630012  69.9190012  66.8454997  -8.7900012
  71.2990012  66.3004997  -9.0930012  70.7819216  66.9407238  -8.8113083
  63.3910012  71.4054997 -12.6300012  63.9180012  72.1784997 -12.8300012
  62.5110012  71.6304997 -12.9310012  63.3441773  71.5418005 -12.6980990
  59.1460012  66.2674997 -18.0430012  59.7620012  66.8944997 -17.6630012
  58.2840012  66.5834997 -17.7710012  59.1137698  66.3959430 -17.9542817
  64.8180012  69.0684997 -13.0530012  64.5770012  69.9934997 -13.0120012
  64.0770012  68.6094997 -12.6570012  64.6848409  69.1331421 -12.9938623
  65.3330012  73.2174997  -6.7380012  65.6950012  74.0724997  -6.9720012
  65.8640012  72.9254997  -5.9980012  65.4544473  73.2951060  -6.6699145
  63.5010012  74.0904997 -13.5080012  62.5510012  74.1954997 -13.4570012
  63.8530012  74.9104997 -13.1630012  63.4184203  74.2158314 -13.4543350
  68.8770012  69.3164997  -7.0380012  68.4510012  69.0894997  -6.2110012
  69.4570012  68.5784997  -7.2200012  68.8971868  69.1855299  -6.9494170
  71.0800012  70.2454997 -17.9640012  71.4330012  69.8654997 -17.1590012
  70.1310012  70.1524997 -17.8770012  71.0000441  70.1809596 -17.8421441
  71.5350012  73.8684997  -4.5680012  70.9340012  73.3134997  -5.0640012
  71.8170012  74.5354997  -5.1940012  71.4908519  73.8826841  -4.7205048
  75.5830012  74.7254997 -17.7630012  76.3270012  75.3114997 -17.9030012
  74.8890012  75.2934997 -17.4290012  75.5910292  74.8825582 -17.7370039
  59.6580012  61.1014997  -5.1610012  58.7650012  61.4404997  -5.2290012
  59.5590012  60.2464997  -4.7430012  59.5224164  61.0322588  -5.1137765
  71.9460012  68.9184997 -15.7370012  71.6680012  68.1904997 -15.1810012
  72.8730012  69.0374997 -15.5320012  72.0333124  68.8348802 -15.6331155
  59.3090012  72.9064997  -6.7260012  59.5260012  71.9744997  -6.7570012
  59.5550012  73.1804997  -5.8430012  59.3719549  72.8160636  -6.6108237
  65.1710012  71.3574997 -19.5170012  65.4100012  70.6094997 -20.0640012
  64.9020012  70.9694997 -18.6840012  65.1673675  71.2026638 -19.4793135
  64.1080012  70.9274997 -17.0600012  64.2540012  70.4074997 -16.2700012
  64.1050012  71.8344997 -16.7540012  64.1275989  70.9788853 -16.9103912
  60.5610012  68.1804997 -16.5500012  59.8750012  68.5324997 -15.9830012
  61.0830012  68.9434997 -16.7970012  60.5376852  68.3318578 -16.5057882
  68.3920012  60.8424997  -6.2710012  69.0910012  60.9164997  -5.6210012
  68.0110012  59.9784997  -6.1170012  68.4361767  60.7357624  -6.1611678
  69.1770012  60.4944997 -15.1740012  69.3970012  60.9664997 -15.9770012
  69.7350012  60.8894997 -14.5040012  69.2824968  60.6124285 -15.1932669
  66.8450012  72.6254997 -16.3110012  66.0290012  73.1224997 -16.2590012
  67.3750012  73.1004997 -16.9510012  66.8049161  72.7577722 -16.3904044
  66.3770012  62.2224997 -14.3390012  67.1890012  62.7274997 -14.2930012
  66.1320012  62.0774997 -13.4250012  66.4550520  62.2720375 -14.2091483
  66.9120012  63.2084997  -5.1540012  67.0310012  63.7824997  -4.3970012
  67.5680012  62.5204997  -5.0400012  67.0169757  63.1941079  -5.0349175
  67.2600012  59.3034997 -13.4010012  66.9140012  59.9214997 -12.7560012
  67.9190012  59.8044997 -13.8820012  67.3017826  59.4555802 -13.3779029
  64.1840012  73.6694997 -16.3290012  64.3440012  74.4684997 -16.8300012
  63.9860012  73.9754997 -15.4440012  64.1791649  73.8204469 -16.2780185
  62.9180012  60.3664997 -16.7140012  62.8350012  61.2554997 -16.3670012
  63.8080012  60.1014997 -16.4820012  63.0269469  60.4521430 -16.6352374
  73.1170012  61.1154997  -4.3190012  72.2000012  61.3784997  -4.4070012
  73.4520012  61.1124997  -5.2160012  73.0369900  61.1510224  -4.4522081
  71.7190012  64.8664997 -10.2240012  70.9210012  64.4514997 -10.5520012
  72.1640012  64.1754997  -9.7330012  71.6699885  64.7163543 -10.2025111
  61.1770012  70.7944997 -17.6530012  61.7690012  71.4934997 -17.3770012
  61.6360012  70.3614997 -18.3730012  61.3201142  70.8317049 -17.7125170
  59.4930012  63.4584997 -18.5370012  59.4480012  64.3974997 -18.3590012
  58.6050012  63.2224997 -18.8070012  59.3668574  63.5551892 -18.5491088
  72.8050012  74.1224997  -8.6010012  72.6500012  74.8004997  -9.2580012
  73.7380012  74.1944997  -8.3980012  72.9098500  74.2250170  -8.6634881
  60.3010012  58.2404997  -9.8640012  60.0720012  58.2994997 -10.7920012
  59.8580012  57.4484997  -9.5580012  60.2098530  58.1415753  -9.9495214
  59.2310012  72.1804997 -13.7040012  58.3990012  72.6534997 -13.6760012
  59.7770012  72.6904997 -14.3020012  59.1909739  72.3141871 -13.7810284
  58.5190012  74.7934997  -2.3740012  59.0600012  74.5764997  -1.6140012
  58.0380012  73.9874997  -2.5630012  58.5279345  74.6549514  -2.2956924
  63.1170012  73.7124997  -0.7530012  63.8840012  73.2534997  -0.4120012
  63.0950012  73.4864997  -1.6830012  63.2191434  73.6190409  -0.8319957
  67.2090012  73.2204997 -19.3780012  66.5650012  72.5894997 -19.0570012
  67.9710012  72.6894997 -19.6100012  67.2238077  73.0622920 -19.3653989
  69.6940012  72.0924997  -2.0240012  69.3430012  71.2364997  -1.7810012
  70.4200012  72.2354997  -1.4170012  69.7440769  71.9945636  -1.9086381
  71.8130012  73.0374997 -19.1440012  72.0960012  72.2434997 -18.6920012
  72.5530012  73.2704997 -19.7050012  71.9517486  72.9602803 -19.1579302
  58.4260012  68.6034997  -1.4190012  58.5700012  67.7014997  -1.7060012
  57.6540012  68.8894997  -1.9070012  58.3413322  68.5188261  -1.5242119
  62.7680012  68.9474997 -19.2870012  62.8320012  68.1534997 -18.7560012
  63.4210012  68.8284997 -19.9770012  62.8650241  68.8227148 -19.3075683
  65.0820012  68.5734997  -1.9870012  64.7530012  68.8444997  -2.8440012
  65.2340012  67.6324997  -2.0740012  65.0574809  68.4833862  -2.1161756
  70.8160012  68.4894997  -4.6030012  71.5620012  69.0774997  -4.7230012
  70.0590012  69.0714997  -4.5400012  70.8157554  68.6487011  -4.6109093
  59.2590012  65.8034997  -1.9990012  59.6670012  64.9464997  -2.1200012
  58.9990012  65.8184997  -1.0780012  59.2797568  65.6880807  -1.8910412
  63.9170012  66.9194997 -16.9810012  63.4570012  66.4354997 -16.2950012
  64.1720012  66.2514997 -17.6170012  63.8884902  66.7628731 -16.9730666
  63.2060012  64.8124997  -4.6250012  62.5880012  65.4874997  -4.3450012
  63.5500012  65.1334997  -5.4580012  63.1679615  64.9482721  -4.6993419
  64.9880012  65.1624997 -18.7190012  64.8080012  65.0084997 -19.6460012
  65.9380012  65.2704997 -18.6740012  65.0917776  65.1560175 -18.8398157
  68.2260012  67.2844997  -1.3480012  69.1790012  67.3674997  -1.3750012
  68.0650012  66.5724997  -0.7280012  68.3346426  67.1996746  -1.2679421
  74.3780012  67.5174997 -19.2730012  74.1040012  67.0924997 -20.0860012
  74.4170012  68.4484997 -19.4900012  74.3457699  67.5852484 -19.4136390
  63.5450012  62.1674997  -3.5430012  63.6950012  61.4384997  -4.1450012
  63.5480012  62.9444997  -4.1020012  63.5659302  62.1727851  -3.7009308
  63.9580012  60.5374997  -6.0500012  64.4940012  60.9884997  -6.7020012
  63.1060012  60.4294997  -6.4730012  63.9162178  60.5846390  -6.1964244
  65.5400012  65.9764997  -5.8110012  66.2900012  65.8204997  -6.3840012
  65.2010012  66.8284997  -6.0860012  65.5968921  66.0702968  -5.9266439
  69.9550012  63.7914997  -0.7820012  70.1480012  62.8604997  -0.8940012
  70.8130012  64.2164997  -0.7920012  70.0973020  63.7216389  -0.7986639
  71.2720012  66.5804997  -2.7050012  70.9910012  67.2894997  -3.2820012
  72.2150012  66.5074997  -2.8560012  71.3609027  66.6677646  -2.8044449
  62.0240012  63.3654997  -1.6310012  61.2570012  62.8334997  -1.8410012
  62.7030012  63.0554997  -2.2310012  62.0107022  63.2507506  -1.7408352
  64.7640012  57.9934997  -5.6190012  64.6650012  58.9404997  -5.7240012
  64.0210012  57.6214997  -6.0940012  64.6500564  58.0725902  -5.6975440
  66.0280012  62.3154997  -2.0550012  65.7920012  62.0954997  -1.1530012
  65.2440012  62.1084997  -2.5650012  65.8898628  62.2574760  -2.0006068
  68.7430012  61.4424997  -2.9790012  67.7960012  61.4744997  -2.8470012
  69.0560012  60.8174997  -2.3260012  68.6555475  61.3623207  -2.8725545
  70.3770012  60.0764997  -0.9740012  70.2810012  59.1244997  -0.9800012
  70.0560012  60.3454997  -0.1140012  70.3204070  59.9824035  -0.8584559
  60.2040012  61.2864997  -1.9270012  60.4160012  60.5794997  -2.5370012
  60.0930012  60.8484997  -1.0830012  60.2179721  61.1307084  -1.8963157
  64.9850012  57.2874997  -2.9470012  65.6970012  56.6474997  -2.9610012
  64.8840012  57.5544997  -3.8610012  65.0687939  57.2359938  -3.0724350
  65.3390012  58.9704997  -0.8940012  65.2070012  58.4944997  -1.7140012
  64.7400012  59.7144997  -0.9490012  65.2399071  59.0059618  -1.0137114
  64.8850012  75.8534997 -17.7170012  65.8180012  76.0114997 -17.5740012
  64.6210012  76.5284997 -18.3420012  64.9769510  75.9663611 -17.7819259
  58.4540012  70.4894997 -18.2350012  59.3680012  70.5684997 -17.9610012
  58.4610012  69.8024997 -18.9010012  58.5801131  70.4073961 -18.2875607
  57.1030012  75.8824997 -13.1570012  56.4560012  75.4204997 -13.6900012
  57.4570012  75.2104997 -12.5750012  57.0623849  75.7284723 -13.1512041
  57.9730012  73.9634997 -11.3530012  57.6380012  73.0834997 -11.1810012
  58.1950012  74.3084997 -10.4880012  57.9571783  73.8897500 -11.2125792
  75.5210012  74.7724997  -8.3720012  75.5000012  74.9574997  -7.4330012
  76.2120012  75.3414997  -8.7130012  75.6114618  74.8746606  -8.2896136
  75.0850012  74.3404997  -5.4500012  74.5970012  73.6044997  -5.8210012
  75.6340012  73.9464997  -4.7720012  75.0924872  74.1866249  -5.4090840
  73.5350012  70.1294997  -0.8120012  72.6690012  70.0244997  -0.4180012
  73.9120012  70.8884997  -0.3660012  73.4673308  70.2176900  -0.6977607
  74.8360012  68.3864997 -15.2980012  75.6860012  68.8074997 -15.1710012
  74.8420012  67.6464997 -14.6910012  74.9531372  68.3440803 -15.1985656
  75.2310012  66.4394997 -13.4740012  74.5040012  65.9604997 -13.0770012
  75.8120012  66.6454997 -12.7420012  75.2099375  66.4017090 -13.3205871
  74.9900012  69.2244997  -8.5270012  75.8230012  68.8464997  -8.8070012
  75.1020012  70.1674997  -8.6460012  75.1192647  69.3002218  -8.5814513
  73.4760012  72.1024997  -6.2200012  72.8290012  72.4274997  -5.5940012
  72.9590012  71.6624997  -6.8940012  73.3174029  72.0875004  -6.2254173
  75.4990012  66.3404997 -17.0830012  74.9770012  66.6974997 -17.8020012
  75.4660012  67.0154997 -16.4050012  75.4231634  66.4805413 -17.0896855
  73.8480012  63.5804997 -18.5320012  73.9440012  64.2474997 -19.2130012
  73.7080012  62.7644997 -19.0140012  73.8422135  63.5614500 -18.6901509
  73.0170012  64.9604997 -12.9110012  72.8670012  64.0154997 -12.9320012
  72.6640012  65.2414997 -12.0680012  72.9486625  64.8690441 -12.7997654
  58.0530012  67.0384997  -8.9010012  58.2370012  66.9564997  -9.8370012
  58.9020012  66.9144997  -8.4770012  58.1930139  67.0105003  -8.9718545
  73.8740012  66.9304997  -3.2730012  74.4570012  66.1964997  -3.0810012
  74.4380012  67.7024997  -3.2260012  74.0299769  66.9344227  -3.2403841
  75.3700012  64.8334997  -2.5880012  74.5070012  64.4544997  -2.7540012
  75.9750012  64.0944997  -2.6620012  75.3335979  64.6818023  -2.6207183
  73.0950012  60.9884997 -19.4150012  73.7060012  60.6174997 -18.7780012
  72.2590012  60.5674997 -19.2190012  73.0655032  60.8807554 -19.3012965
  72.7280012  62.5434997 -14.4490012  73.0080012  61.6364997 -14.3250012
  73.4870012  62.9774997 -14.8380012  72.8689277  62.4780942 -14.4846318
  73.3400012  63.1244997  -9.0130012  74.2730012  63.3364997  -9.0470012
  73.1050012  63.2264997  -8.0910012  73.4358036  63.1672769  -8.8930024
  73.3690012  63.8614997  -6.2370012  72.5260012  64.1294997  -5.8710012
  73.8110012  64.6834997  -6.4480012  73.3134158  64.0093291  -6.2154509
  57.6500012  62.3094997  -2.7600012  58.5700012  62.1874997  -2.5240012
  57.2010012  61.5594997  -2.3710012  57.7151580  62.1913727  -2.6750994
  75.6520012  57.8414997  -0.8840012  76.0020012  57.1874997  -1.4890012
  75.7990012  58.6784997  -1.3230012  75.7198419  57.8651591  -1.0262882
  73.3410012  59.8064997 -14.4010012  73.5240012  59.3574997 -13.5750012
  72.7420012  59.2214997 -14.8640012  73.2850202  59.6659975 -14.3506725
  58.8710012  60.6214997  -9.8690012  59.3170012  59.8294997  -9.5670012
  59.3380012  61.3374997  -9.4380012  58.9950172  60.6100624  -9.7695180
  57.1750012  63.6204997  -8.8000012  57.6670012  63.3994997  -9.5910012
  57.5380012  64.4614997  -8.5190012  57.2913126  63.7038357  -8.8702469
  75.1720012  59.9504997  -2.5340012  74.2540012  60.2214997  -2.5700012
  75.2950012  59.4154997  -3.3190012  75.0631066  59.9152892  -2.6449513
  75.2080012  59.8734997 -17.8730012  75.6200012  59.1524997 -18.3480012
  75.8900012  60.5434997 -17.8140012  75.3565885  59.8652368 -17.9301085
  57.4890012  59.8784997 -14.7460012  56.5640012  60.0874997 -14.8750012
  57.9430012  60.3624997 -15.4350012  57.4237368  59.9725993 -14.8568774
  72.2600012  74.8624997 -12.8000012  72.9120012  74.5154997 -13.4080012
  72.7700012  75.3514997 -12.1540012  72.4182637  74.8810597 -12.7959764
  57.4530012  58.6164997  -6.4010012  56.7880012  58.3704997  -5.7580012
  57.0100012  59.2384997  -6.9790012  57.3020956  58.6668632  -6.3910648
  59.6450012  71.7914997  -2.2570012  58.8240012  71.9664997  -2.7170012
  59.3920012  71.7184997  -1.3360012  59.4986164  71.8055622  -2.1955077
  62.5990012  72.7664997  -5.9980012  62.1740012  73.5754997  -6.2810012
  63.5030012  72.8514997  -6.3000012  62.6630271  72.8888469  -6.0776224
  66.9100012  74.1654997  -3.0390012  67.0950012  73.8314997  -2.1610012
  67.7560012  74.4744997  -3.3610012  67.0497539  74.1616047  -2.9624395
  69.2550012  75.4514997  -3.7950012  69.9320012  74.8184997  -4.0350012
  69.5770012  75.8524997  -2.9880012  69.3911637  75.4191154  -3.7187207
  74.1720012  58.0404997  -4.7150012  73.3600012  58.3654997  -5.1030012
  74.4050012  57.2804997  -5.2480012  74.0923423  57.9822436  -4.8401747
  60.0010012  76.0224997  -5.9510012  59.2800012  76.4624997  -6.4020012
  59.6350012  75.7714997  -5.1020012  59.8529804  76.0487698  -5.8980160
  62.4680012  75.6224997  -6.9210012  61.6030012  75.6944997  -6.5170012
  62.4130012  76.1694997  -7.7050012  62.3422085  75.7062685  -6.9716638
  67.1780012  75.5104997  -7.7460012  66.7220012  76.0394997  -8.4000012
  67.3410012  76.1134997  -7.0200012  67.1375585  75.6644468  -7.7374938
  69.5060012  74.3884997  -6.8010012  68.6010012  74.5534997  -7.0660012
  69.9350012  75.2414997  -6.8660012  69.4400799  74.5264483  -6.8460818
  72.1100012  75.9584997  -6.5060012  71.9280012  76.8744997  -6.7160012
  72.2870012  75.5484997  -7.3520012  72.1090210  76.0284822  -6.6492115
  59.4150012  74.6454997  -9.0410012  59.3970012  74.2204997  -8.1830012
  60.2200012  74.3274997  -9.4490012  59.5213875  74.5443812  -8.9788345
  61.5570012  73.3554997 -10.3860012  61.3380012  72.4394997 -10.2160012
  62.3810012  73.4954997  -9.9200012  61.6384420  73.2490520 -10.2997226
  64.0940012  73.8254997  -9.5370012  64.3070012  72.9374997  -9.8240012
  64.1580012  73.7914997  -8.5830012  64.1318232  73.6993102  -9.4472603
  67.6020012  59.4894997 -10.3930012  66.9280012  58.8604997 -10.1370012
  68.1660012  59.0054997 -10.9960012  67.5859230  59.3378744 -10.4394660
  72.7450012  57.5974997 -10.2800012  73.3490012  58.1444997 -10.7820012
  71.8750012  57.9164997 -10.5200012  72.7101241  57.7155806 -10.3812346
  74.4720012  58.7354997 -11.9470012  75.0840012  58.2214997 -12.4730012
  74.8540012  59.6134997 -11.9230012  74.6074540  58.7837140 -12.0158170
  59.9290012  58.1234997 -12.5710012  59.1520012  57.8894997 -13.0780012
  60.4590012  57.3264997 -12.5620012  59.8942330  57.9836988 -12.6392258
  58.7650012  57.9214997 -16.7670012  59.2040012  58.5324997 -17.3590012
  58.1320012  58.4594997 -16.2930012  58.7394514  58.0779257 -16.7839070
  64.5080012  58.0504997 -12.7570012  65.3830012  58.4384997 -12.7870012
  64.3720012  57.8354997 -11.8350012  64.6093695  58.0745184 -12.6363560
  70.0650012  58.0804997 -11.1080012  70.1410012  58.1754997 -12.0580012
  69.7900012  57.1724997 -10.9790012  70.0382321  57.9707867 -11.2204921
  71.4180012  58.1064997 -15.4160012  70.7160012  58.7214997 -15.6250012
  70.9740012  57.2684997 -15.2850012  71.2616330  58.0775783 -15.4269672
  58.6660012  73.8694997 -15.8690012  57.9810012  73.8314997 -16.5370012
  58.6700012  74.7824997 -15.5810012  58.5728193  73.9877016 -15.9214716
  60.6260012  59.8374997 -18.3250012  61.1180012  59.2074997 -18.8520012
  61.2500012  60.1334997 -17.6610012  60.7775446  59.7913199 -18.3074020
  65.6520012  60.1304997 -15.8680012  65.8300012  59.4844997 -15.1850012
  65.5990012  60.9644997 -15.4000012  65.6691829  60.1547985 -15.7114060
  67.5310012  75.0794997 -17.4720012  68.3970012  75.4454997 -17.6500012
  67.2840012  74.6394997 -18.2860012  67.6162392  75.0701756 -17.6063711
  74.2400012  74.6424997 -14.7930012  74.0450012  73.8944997 -15.3580012
  74.2010012  75.4004997 -15.3760012  74.2080380  74.6426099 -14.9491616
  59.8870012  58.6374997  -3.0530012  59.5210012  57.8724997  -2.6100012
  60.8000012  58.6664997  -2.7660012  59.9602790  58.5367224  -2.9535930
  61.8600012  57.9884997  -1.5170012  62.7580012  57.7144997  -1.7020012
  61.4730012  57.2454997  -1.0530012  61.9306612  57.8505914  -1.4796357
  60.4840012  74.7894997 -18.8440012  60.2170012  75.0764997 -17.9710012
  61.2560012  74.2434997 -18.6920012  60.5517488  74.7550294 -18.7038950
  70.2810012  57.3204997  -1.3350012  70.3580012  56.8944997  -0.4810012
  71.1750012  57.3344997  -1.6780012  70.4123428  57.2640879  -1.2644690
  73.4570012  73.3934997  -2.6430012  72.6750012  73.2074997  -3.1620012
  73.3850012  74.3224997  -2.4250012  73.3401777  73.4936492  -2.6845952
  87.8630012  67.2794997 -12.6120012  87.9520012  68.2234997 -12.7440012
  87.2250012  67.0044997 -13.2700012  87.7889081  67.3714830 -12.7190386
  86.7960012  66.5344997  -9.1930012  86.7580012  65.8884997  -8.4880012
  86.4740012  66.0684997  -9.9640012  86.7472333  66.3829408  -9.2007022
  79.1650012  66.1494997  -7.6000012  79.2060012  65.5234997  -6.8770012
  79.8680012  66.7734997  -7.4180012  79.2656363  66.1481196  -7.4763956
  90.5020012  69.4734997 -10.8920012  90.0620012  68.7534997 -10.4410012
  90.4890012  70.1944997 -10.2620012  90.4400226  69.4723731 -10.7451506
  80.0880012  70.5994997  -9.0650012  79.7190012  69.7974997  -9.4350012
  81.0290012  70.4304997  -9.0190012  80.1647289  70.4670153  -9.1093684
  76.6980012  64.2594997 -13.6720012  76.2510012  65.1054997 -13.6910012
  76.1370012  63.6794997 -14.1880012  76.5609900  64.2969916 -13.7443199
  77.4090012  66.4214997 -11.5460012  77.6220012  65.6514997 -11.0190012
  78.1470012  66.5104997 -12.1500012  77.5378496  66.3281394 -11.5554700
  87.6140012  74.5784997 -10.6790012  88.2340012  73.9014997 -10.9530012
  87.4060012  74.3604997  -9.7710012  87.6706904  74.4563870 -10.5936635
  85.1860012  68.9674997  -8.7870012  85.4900012  68.2814997  -9.3820012
  85.9070012  69.0854997  -8.1690012  85.3250671  68.8896305  -8.7848184
  93.8490012  60.5684997  -7.9260012  93.8980012  61.1784997  -7.1900012
  94.2740012  61.0294997  -8.6490012  93.9131824  60.7143741  -7.9229795
  88.3270012  63.3614997  -8.4590012  88.4690012  62.4154997  -8.4390012
  88.2200012  63.5684997  -9.3880012  88.3319864  63.2599534  -8.5817661
  81.4810012  61.4624997 -11.1870012  81.5250012  62.3224997 -11.6050012
  81.0240012  60.9104997 -11.8210012  81.4252185  61.5055799 -11.3299701
  89.2040012  61.5934997 -12.7860012  89.8500012  61.2644997 -12.1610012
  89.7140012  62.1114997 -13.4090012  89.3614264  61.6184611 -12.7846138
  78.1020012  63.8594997 -10.4250012  78.7550012  63.3094997  -9.9930012
  78.1260012  63.5854997 -11.3420012  78.1946683  63.7471466 -10.4897877
  83.2580012  65.4094997 -11.2100012  83.8740012  64.8834997 -10.7000012
  82.6720012  64.7694997 -11.6130012  83.2630810  65.2509208 -11.1946827
  94.2400012  62.0464997  -5.6900012  93.5520012  62.7044997  -5.7860012
  94.2560012  61.8494997  -4.7540012  94.1478525  62.1100462  -5.5765192
  80.2920012  60.3804997  -7.1130012  80.0730012  60.9104997  -7.8790012
  79.6240012  60.6074997  -6.4660012  80.1717600  60.4836906  -7.1303621
  87.6610012  69.8804997 -13.5690012  87.3650012  69.5584997 -14.4200012
  87.3360012  70.7804997 -13.5280012  87.5766371  69.9580215 -13.6798199
  82.8610012  68.0564997  -6.8260012  82.1210012  68.6544997  -6.7220012
  83.5750012  68.6104997  -7.1410012  82.8562237  68.2132831  -6.8543535
  90.9680012  60.8844997 -10.8060012  90.7520012  60.1184997 -10.2730012
  91.6230012  61.3564997 -10.2930012  91.0270632  60.8435889 -10.6637139
  79.8850012  62.2724997  -9.1610012  80.4990012  62.9054997  -8.7870012
  80.3970012  61.8004997  -9.8170012  80.0382296  62.2952370  -9.1985748
  81.2680012  70.0204997  -6.0380012  81.2630012  70.9004997  -6.4160012
  80.4150012  69.9374997  -5.6130012  81.1519464  70.1296117  -6.0322093
  77.3890012  69.6914997 -15.2560012  77.1170012  69.9204997 -16.1450012
  77.4350012  70.5294997 -14.7960012  77.3580094  69.8361213 -15.3154303
  91.0140012  71.3134997  -8.5440012  90.0730012  71.3714997  -8.3820012
  91.2910012  72.2194997  -8.6810012  90.9224679  71.4439443  -8.5403185
  91.3150012  59.5994997  -7.1260012  90.5790012  60.2104997  -7.1640012
  91.9980012  60.0144997  -7.6530012  91.3066541  59.7391374  -7.2024168
  84.3180012  57.6864997  -9.6600012  84.2010012  56.7374997  -9.7150012
  83.4630012  58.0184997  -9.3870012  84.1863733  57.6015409  -9.6306103
  89.2660012  73.0944997 -11.9180012  89.6920012  72.3874997 -12.4030012
  89.5830012  73.8954997 -12.3350012  89.3671019  73.1060994 -12.0406870
  90.4260012  70.9954997 -13.4100012  90.1680012  70.3054997 -14.0210012
  90.4970012  70.5524997 -12.5640012  90.4002856  70.8412124 -13.3793115
  92.1120012  69.5614997  -4.9320012  92.2520012  68.9704997  -5.6720012
  92.2790012  70.4344997  -5.2890012  92.1536778  69.5986426  -5.0813035
  86.5850012  66.5234997 -15.1600012  85.8730012  67.0584997 -15.5120012
  87.2760012  66.5794997 -15.8200012  86.5810132  66.6042543 -15.2973711
  86.6380012  64.9814997 -18.1210012  87.3390012  65.0034997 -17.4700012
  86.9410012  64.3534997 -18.7770012  86.7747830  64.8996566 -18.1206289
  93.9540012  65.9014997  -6.8660012  93.3010012  66.5964997  -6.7770012
  94.4190012  66.1114997  -7.6760012  93.9275390  66.0249425  -6.9633117
  89.9900012  66.7334997 -14.2080012  89.2580012  66.9614997 -13.6350012
  90.4380012  66.0194997 -13.7530012  89.9503095  66.6682571 -14.0680881
  89.8880012  64.9074997  -5.1410012  89.9680012  65.6704997  -4.5690012
  89.2860012  65.1864997  -5.8310012  89.8175756  65.0497134  -5.1559411
  81.6360012  67.3634997 -12.3260012  81.3050012  66.9934997 -13.1440012
  82.2240012  66.6934997 -11.9790012  81.6701873  67.2221156 -12.3911898
  83.0020012  70.7914997  -9.6440012  82.9080012  70.2134997 -10.4010012
  83.7320012  70.4204997  -9.1480012  83.0877981  70.6622390  -9.6805835
  82.0020012  66.1324997  -8.6920012  82.5680012  66.2534997  -9.4550012
  82.3210012  66.7694997  -8.0530012  82.1225786  66.2351884  -8.7099960
  88.3110012  71.6354997  -7.9580012  88.0710012  72.2974997  -7.3100012
  88.1130012  70.8014997  -7.5330012  88.2513808  71.6133134  -7.8118476
  82.8820012  70.5314997  -3.9750012  82.5710012  71.3134997  -3.5200012
  82.2320012  70.3784997  -4.6610012  82.7515558  70.6179105  -4.0054129
  88.8610012  65.8954997 -16.5230012  89.4410012  66.0454997 -15.7760012
  89.2750012  66.3664997 -17.2460012  88.9962830  65.9796841 -16.5185866
  79.8020012  66.7294997  -4.7460012  79.8730012  67.3804997  -4.0480012
  78.9120012  66.8324997  -5.0810012  79.6913117  66.8325936  -4.6957300
  86.5880012  72.6324997 -13.0880012  87.0620012  72.9274997 -12.3100012
  86.0250012  73.3704997 -13.3210012  86.5767653  72.7726932 -13.0129864
  81.1220012  72.6034997  -3.2120012  81.1290012  72.4674997  -4.1590012
  80.2060012  72.4854997  -2.9600012  80.9991714  72.5689430  -3.3075334
  92.5600012  57.6454997 -16.7100012  91.6600012  57.7844997 -16.4150012
  92.8120012  58.4764997 -17.1120012  92.4708702  57.7769074 -16.7239795
  80.6260012  66.4334997 -14.7360012  80.3340012  67.2014997 -15.2270012
  79.9520012  65.7734997 -14.8990012  80.4949081  66.4494406 -14.8252660
  93.7490012  72.0114997 -18.3340012  93.8230012  72.9504997 -18.1630012
  94.6550012  71.7064997 -18.3900012  93.8815100  72.0986722 -18.3181881
  76.7190012  68.7964997  -5.9210012  76.2180012  68.7684997  -6.7360012
  76.7240012  67.8904997  -5.6120012  76.6511526  68.6702278  -5.9907128
  76.4690012  71.5764997  -9.0370012  77.4150012  71.4324997  -9.0560012
  76.3570012  72.3604997  -8.5000012  76.5832727  71.6628046  -8.9669928
  94.6670012  72.2424997  -3.3550012  94.6180012  71.2874997  -3.3920012
  93.8400012  72.5104997  -2.9540012  94.5484940  72.1478998  -3.3058625
  85.6460012  71.8164997  -4.4790012  85.7330012  72.6424997  -4.0040012
  84.7820012  71.4864997  -4.2300012  85.5411964  71.8849878  -4.3803451
  86.0600012  75.5884997 -14.6730012  85.9850012  75.4674997 -15.6190012
  86.0930012  76.5384997 -14.5540012  86.0541848  75.7002500 -14.7865166
  79.7130012  74.3774997 -12.8920012  79.8660012  74.0294997 -12.0130012
  78.8630012  74.0214997 -13.1470012  79.6188962  74.2816650 -12.8061660
  89.1620012  74.7424997 -17.6710012  89.5370012  73.9984997 -18.1410012
  89.1660012  74.4724997 -16.7520012  89.2138915  74.6041486 -17.6112176
  88.8310012  74.6684997 -14.9210012  87.8950012  74.7684997 -14.7430012
  89.1110012  73.9594997 -14.3430012  88.7408255  74.5862711 -14.8184609
  91.8190012  63.7354997  -2.8750012  91.4120012  64.2164997  -3.5960012
  91.8600012  62.8304997  -3.1830012  91.7688437  63.6789374  -3.0153317
  78.9680012  70.1194997  -4.8780012  79.1840012  69.7584997  -4.0190012
  78.1130012  69.7454997  -5.0880012  78.8819292  70.0194111  -4.7886614
  81.5870012  58.5894997  -8.8830012  80.7250012  58.5024997  -9.2900012
  81.5640012  59.4454997  -8.4550012  81.4660330  58.6932765  -8.8808137
  86.2500012  58.3114997  -5.5080012  86.6700012  57.8964997  -4.7550012
  85.3170012  58.1334997  -5.3910012  86.1813644  58.2305900  -5.3890461
  89.5760012  62.0674997  -4.6550012  89.0620012  61.9414997  -3.8570012
  89.4210012  62.9794997  -4.8990012  89.4846852  62.1736132  -4.5787842
  90.3390012  66.9284997 -18.8930012  90.3810012  66.7054997 -19.8230012
  91.1880012  67.3274997 -18.7030012  90.4595396  66.9519155 -18.9946373
  85.9110012  60.8044997 -18.2230012  85.6580012  60.8234997 -17.3000012
  85.6550012  59.9324997 -18.5240012  85.8417790  60.6892437 -18.1373737
  81.6780012  63.5554997  -7.7880012  81.0360012  63.5144997  -7.0790012
  81.7150012  64.4814997  -8.0250012  81.5951324  63.6751559  -7.7230176
  81.6750012  63.7764997 -12.8760012  80.7820012  63.4354997 -12.9340012
  82.1250012  63.3994997 -13.6310012  81.6137305  63.6788484 -12.9860823
  87.2100012  64.1924997 -14.0590012  86.8010012  65.0074997 -14.3500012
  87.9310012  64.0524997 -14.6730012  87.2514537  64.2852018 -14.1818658
  86.3120012  64.3674997  -2.5710012  85.7500012  63.6634997  -2.2500012
  87.1390012  64.2474997  -2.1030012  86.3467095  64.2547883  -2.4637670
  88.2150012  63.6384997 -11.2450012  88.0200012  64.2434997 -11.9600012
  88.3960012  62.8044997 -11.6790012  88.2127614  63.6086300 -11.4015595
  79.4280012  63.8754997  -5.9210012  79.3900012  64.2754997  -5.0520012
  78.9370012  63.0584997  -5.8300012  79.3564684  63.8198069  -5.7898941
  82.7940012  61.2494997 -19.1220012  82.3630012  60.8044997 -18.3920012
  82.0760012  61.6214997 -19.6340012  82.6379438  61.2388940 -19.0913201
  76.0360012  60.9914997 -12.0700012  76.6670012  60.9624997 -11.3510012
  76.4850012  60.5664997 -12.8000012  76.1830774  60.9300492 -12.0703447
  77.3100012  61.7374997 -16.6460012  77.7840012  62.3284997 -17.2310012
  76.5930012  62.2684997 -16.2990012  77.2779341  61.8900867 -16.6791164
  87.4790012  65.2764997  -6.5730012  87.8020012  64.6454997  -7.2160012
  87.0390012  64.7414997  -5.9130012  87.4636895  65.1178441  -6.5717150
  84.2560012  61.2034997 -11.7890012  83.3450012  61.2604997 -11.5010012
  84.7620012  61.1434997 -10.9790012  84.1995413  61.2031985 -11.6399378
  79.0850012  62.8324997 -12.9630012  78.1950012  62.9324997 -13.3030012
  79.3810012  61.9904997 -13.3090012  79.0032823  62.7323545 -13.0562787
  82.7380012  62.8324997 -15.3060012  83.6690012  62.9614997 -15.1280012
  82.5230012  63.5024997 -15.9560012  82.8364247  62.9406565 -15.3694253
  88.6610012  60.4384997  -8.5250012  87.9850012  60.5694997  -7.8610012
  88.1760012  60.2834997  -9.3350012  88.5027145  60.4354905  -8.5435483
  81.4120012  64.0274997 -17.7390012  80.8690012  63.6474997 -18.4310012
  82.2450012  64.2214997 -18.1680012  81.4504399  64.0018124 -17.8915474
  91.9490012  76.1104997  -2.2480012  92.1490012  76.5344997  -3.0830012
  92.6040012  76.4534997  -1.6410012  92.0650051  76.2149648  -2.2802164
  79.5470012  68.5844997  -2.6400012  80.2790012  68.8384997  -2.0790012
  78.7670012  68.7884997  -2.1250012  79.5418232  68.6469177  -2.4934240
  85.5760012  63.9914997  -9.9020012  86.1410012  63.4444997 -10.4490012
  85.4290012  63.4694997  -9.1140012  85.6332918  63.8462024  -9.8701546
  80.5780012  60.1274997 -13.4840012  80.2610012  59.2254997 -13.5190012
  81.3600012  60.1294997 -14.0370012  80.6402284  60.0041628 -13.5635217
  84.2030012  62.3794997  -7.4880012  83.3670012  62.8334997  -7.3780012
  84.7270012  62.6554997  -6.7360012  84.1594414  62.4789376  -7.3712864
  84.7470012  68.5924997 -15.8040012  84.0020012  68.0854997 -16.1260012
  84.6130012  68.6414997 -14.8570012  84.6268776  68.5296940 -15.7201353
  91.8970012  67.7254997  -7.0170012  92.5390012  68.1824997  -7.5610012
  91.0670012  67.8384997  -7.4800012  91.8725963  67.8032704  -7.1539823
  88.6450012  61.4064997 -17.6040012  87.7060012  61.5184997 -17.7560012
  88.9420012  62.2634997 -17.2980012  88.5567666  61.5376443 -17.5834232
  86.2660012  68.7764997  -4.5670012  85.9210012  68.3954997  -3.7600012
  86.0660012  69.7104997  -4.4950012  86.1918061  68.8505228  -4.4469039
  89.3630012  63.2734997 -15.9440012  90.2550012  63.1364997 -15.6250012
  89.4200012  64.0644997 -16.4800012  89.4926285  63.3616660 -15.9728309
  79.8720012  67.8874997 -10.0340012  80.6170012  67.8854997 -10.6350012
  79.9500012  67.0644997  -9.5520012  79.9845518  67.7759315 -10.0511071
  86.8730012  70.0514997 -16.7780012  86.5770012  70.8774997 -16.3970012
  86.1700012  69.4314997 -16.5820012  86.7374914  70.0808199 -16.6993557
  76.8800012  66.3484997  -4.7190012  77.1030012  65.9304997  -3.8870012
  76.2780012  65.7354997  -5.1420012  76.8291759  66.2084668  -4.6622978
  83.8960012  65.8654997  -2.5060012  83.6000012  65.6994997  -3.4010012
  84.8280012  65.6454997  -2.5170012  83.9814166  65.8130640  -2.6299464
  88.5170012  71.2384997  -4.6160012  87.6160012  71.4214997  -4.8840012
  88.5510012  71.4974997  -3.6950012  88.3983041  71.2985512  -4.5281803
  94.2480012  63.4834997 -16.2490012  93.6940012  63.0874997 -16.9210012
  94.3480012  64.3934997 -16.5270012  94.1857059  63.5523586 -16.3785599
  94.2110012  69.2834997  -3.4120012  93.3600012  69.5214997  -3.7790012
  94.8020012  69.2664997  -4.1650012  94.1742487  69.3138258  -3.5641107
  92.5430012  72.2694997 -15.7840012  92.1700012  71.4434997 -15.4750012
  92.8210012  72.0864997 -16.6810012  92.5295630  72.1317303 -15.8630374
  89.7040012  67.0774997  -8.7630012  88.7750012  66.8454997  -8.7900012
  90.1550012  66.3004997  -9.0930012  89.6379216  66.9407238  -8.8113083
  82.2470012  71.4054997 -12.6300012  82.7740012  72.1784997 -12.8300012
  81.3670012  71.6304997 -12.9310012  82.2001773  71.5418005 -12.6980990
  78.0020012  66.2674997 -18.0430012  78.6180012  66.8944997 -17.6630012
  77.1400012  66.5834997 -17.7710012  77.9697698  66.3959430 -17.9542817
  83.6740012  69.0684997 -13.0530012  83.4330012  69.9934997 -13.0120012
  82.9330012  68.6094997 -12.6570012  83.5408409  69.1331421 -12.9938623
  84.1890012  73.2174997  -6.7380012  84.5510012  74.0724997  -6.9720012
  84.7200012  72.9254997  -5.9980012  84.3104473  73.2951060  -6.6699145
  82.3570012  74.0904997 -13.5080012  81.4070012  74.1954997 -13.4570012
  82.7090012  74.9104997 -13.1630012  82.2744203  74.2158314 -13.4543350
  87.7330012  69.3164997  -7.0380012  87.3070012  69.0894997  -6.2110012
  88.3130012  68.5784997  -7.2200012  87.7531868  69.1855299  -6.9494170
  89.9360012  70.2454997 -17.9640012  90.2890012  69.8654997 -17.1590012
  88.9870012  70.1524997 -17.8770012  89.8560441  70.1809596 -17.8421441
  90.3910012  73.8684997  -4.5680012  89.7900012  73.3134997  -5.0640012
  90.6730012  74.5354997  -5.1940012  90.3468519  73.8826841  -4.7205048
  94.4390012  74.7254997 -17.7630012  95.1830012  75.3114997 -17.9030012
  93.7450012  75.2934997 -17.4290012  94.4470292  74.8825582 -17.7370039
  78.5140012  61.1014997  -5.1610012  77.6210012  61.4404997  -5.2290012
  78.4150012  60.2464997  -4.7430012  78.3784164  61.0322588  -5.1137765
  90.8020012  68.9184997 -15.7370012  90.5240012  68.1904997 -15.1810012
  91.7290012  69.0374997 -15.5320012  90.8893124  68.8348802 -15.6331155
  78.1650012  72.9064997  -6.7260012  78.3820012  71.9744997  -6.7570012
  78.4110012  73.1804997  -5.8430012  78.2279549  72.8160636  -6.6108237
  84.0270012  71.3574997 -19.5170012  84.2660012  70.6094997 -20.0640012
  83.7580012  70.9694997 -18.6840012  84.0233675  71.2026638 -19.4793135
  82.9640012  70.9274997 -17.0600012  83.1100012  70.4074997 -16.2700012
  82.9610012  71.8344997 -16.7540012  82.9835989  70.9788853 -16.9103912
  79.4170012  68.1804997 -16.5500012  78.7310012  68.5324997 -15.9830012
  79.9390012  68.9434997 -16.7970012  79.3936852  68.3318578 -16.5057882
  87.2480012  60.8424997  -6.2710012  87.9470012  60.9164997  -5.6210012
  86.8670012  59.9784997  -6.1170012  87.2921767  60.7357624  -6.1611678
  88.0330012  60.4944997 -15.1740012  88.2530012  60.9664997 -15.9770012
  88.5910012  60.8894997 -14.5040012  88.1384968  60.6124285 -15.1932669
  85.7010012  72.6254997 -16.3110012  84.8850012  73.1224997 -16.2590012
  86.2310012  73.1004997 -16.9510012  85.6609161  72.7577722 -16.3904044
  85.2330012  62.2224997 -14.3390012  86.0450012  62.7274997 -14.2930012
  84.9880012  62.0774997 -13.4250012  85.3110520  62.2720375 -14.2091483
  85.7680012  63.2084997  -5.1540012  85.8870012  63.7824997  -4.3970012
  86.4240012  62.5204997  -5.0400012  85.8729757  63.1941079  -5.0349175
  86.1160012  59.3034997 -13.4010012  85.7700012  59.9214997 -12.7560012
  86.7750012  59.8044997 -13.8820012  86.1577826  59.4555802 -13.3779029
  83.0400012  73.6694997 -16.3290012  83.2000012  74.4684997 -16.8300012
  82.8420012  73.9754997 -15.4440012  83.0351649  73.8204469 -16.2780185
  81.7740012  60.3664997 -16.7140012  81.6910012  61.2554997 -16.3670012
  82.6640012  60.1014997 -16.4820012  81.8829469  60.4521430 -16.6352374
  91.9730012  61.1154997  -4.3190012  91.0560012  61.3784997  -4.4070012
  92.3080012  61.1124997  -5.2160012  91.8929900  61.1510224  -4.4522081
  90.5750012  64.8664997 -10.2240012  89.7770012  64.4514997 -10.5520012
  91.0200012  64.1754997  -9.7330012  90.5259885  64.7163543 -10.2025111
  80.0330012  70.7944997 -17.6530012  80.6250012  71.4934997 -17.3770012
  80.4920012  70.3614997 -18.3730012  80.1761142  70.8317049 -17.7125170
  78.3490012  63.4584997 -18.5370012  78.3040012  64.3974997 -18.3590012
  77.4610012  63.2224997 -18.8070012  78.2228574  63.5551892 -18.5491088
  91.6610012  74.1224997  -8.6010012  91.5060012  74.8004997  -9.2580012
  92.5940012  74.1944997  -8.3980012  91.7658500  74.2250170  -8.6634881
  79.1570012  58.2404997  -9.8640012  78.9280012  58.2994997 -10.7920012
  78.7140012  57.4484997  -9.5580012  79.0658530  58.1415753  -9.9495214
  78.0870012  72.1804997 -13.7040012  77.2550012  72.6534997 -13.6760012
  78.6330012  72.6904997 -14.3020012  78.0469739  72.3141871 -13.7810284
  77.3750012  74.7934997  -2.3740012  77.9160012  74.5764997  -1.6140012
  76.8940012  73.9874997  -2.5630012  77.3839345  74.6549514  -2.2956924
  81.9730012  73.7124997  -0.7530012  82.7400012  73.2534997  -0.4120012
  81.9510012  73.4864997  -1.6830012  82.0751434  73.6190409  -0.8319957
  86.0650012  73.2204997 -19.3780012  85.4210012  72.5894997 -19.0570012
  86.8270012  72.6894997 -19.6100012  86.0798077  73.0622920 -19.3653989
  88.5500012  72.0924997  -2.0240012  88.1990012  71.2364997  -1.7810012
  89.2760012  72.2354997  -1.4170012  88.6000769  71.9945636  -1.9086381
  90.6690012  73.0374997 -19.1440012  90.9520012  72.2434997 -18.6920012
  91.4090012  73.2704997 -19.7050012  90.8077486  72.9602803 -19.1579302
  77.2820012  68.6034997  -1.4190012  77.4260012  67.7014997  -1.7060012
  76.5100012  68.8894997  -1.9070012  77.1973322  68.5188261  -1.5242119
  81.6240012  68.9474997 -19.2870012  81.6880012  68.1534997 -18.7560012
  82.2770012  68.8284997 -19.9770012  81.7210241  68.8227148 -19.3075683
  83.9380012  68.5734997  -1.9870012  83.6090012  68.8444997  -2.8440012
  84.0900012  67.6324997  -2.0740012  83.9134809  68.4833862  -2.1161756
  89.6720012  68.4894997  -4.6030012  90.4180012  69.0774997  -4.7230012
  88.9150012  69.0714997  -4.5400012  89.6717554  68.6487011  -4.6109093
  78.1150012  65.8034997  -1.9990012  78.5230012  64.9464997  -2.1200012
  77.8550012  65.8184997  -1.0780012  78.1357568  65.6880807  -1.8910412
  82.7730012  66.9194997 -16.9810012  82.3130012  66.4354997 -16.2950012
  83.0280012  66.2514997 -17.6170012  82.7444902  66.7628731 -16.9730666
  82.0620012  64.8124997  -4.6250012  81.4440012  65.4874997  -4.3450012
  82.4060012  65.1334997  -5.4580012  82.0239615  64.9482721  -4.6993419
  83.8440012  65.1624997 -18.7190012  83.6640012  65.0084997 -19.6460012
  84.7940012  65.2704997 -18.6740012  83.9477776  65.1560175 -18.8398157
  87.0820012  67.2844997  -1.3480012  88.0350012  67.3674997  -1.3750012
  86.9210012  66.5724997  -0.7280012  87.1906426  67.1996746  -1.2679421
  93.2340012  67.5174997 -19.2730012  92.9600012  67.0924997 -20.0860012
  93.2730012  68.4484997 -19.4900012  93.2017699  67.5852484 -19.4136390
  82.4010012  62.1674997  -3.5430012  82.5510012  61.4384997  -4.1450012
  82.4040012  62.9444997  -4.1020012  82.4219302  62.1727851  -3.7009308
  82.8140012  60.5374997  -6.0500012  83.3500012  60.9884997  -6.7020012
  81.9620012  60.4294997  -6.4730012  82.7722178  60.5846390  -6.1964244
  84.3960012  65.9764997  -5.8110012  85.1460012  65.8204997  -6.3840012
  84.0570012  66.8284997  -6.0860012  84.4528921  66.0702968  -5.9266439
  88.8110012  63.7914997  -0.7820012  89.0040012  62.8604997  -0.8940012
  89.6690012  64.2164997  -0.7920012  88.9533020  63.7216389  -0.7986639
  90.1280012  66.5804997  -2.7050012  89.8470012  67.2894997  -3.2820012
  91.0710012  66.5074997  -2.8560012  90.2169027  66.6677646  -2.8044449
  80.8800012  63.3654997  -1.6310012  80.1130012  62.8334997  -1.8410012
  81.5590012  63.0554997  -2.2310012  80.8667022  63.2507506  -1.7408352
  83.6200012  57.9934997  -5.6190012  83.5210012  58.9404997  -5.7240012
  82.8770012  57.6214997  -6.0940012  83.5060564  58.0725902  -5.6975440
  84.8840012  62.3154997  -2.0550012  84.6480012  62.0954997  -1.1530012
  84.1000012  62.1084997  -2.5650012  84.7458628  62.2574760  -2.0006068
  87.5990012  61.4424997  -2.9790012  86.6520012  61.4744997  -2.8470012
  87.9120012  60.8174997  -2.3260012  87.5115475  61.3623207  -2.8725545
  89.2330012  60.0764997  -0.9740012  89.1370012  59.1244997  -0.9800012
  88.9120012  60.3454997  -0.1140012  89.1764070  59.9824035  -0.8584559
  79.0600012  61.2864997  -1.9270012  79.2720012  60.5794997  -2.5370012
  78.9490012  60.8484997  -1.0830012  79.0739721  61.1307084  -1.8963157
  83.8410012  57.2874997  -2.9470012  84.5530012  56.6474997  -2.9610012
  83.7400012  57.5544997  -3.8610012  83.9247939  57.2359938  -3.0724350
  84.1950012  58.9704997  -0.8940012  84.0630012  58.4944997  -1.7140012
  83.5960012  59.7144997  -0.9490012  84.0959071  59.0059618  -1.0137114
  83.7410012  75.8534997 -17.7170012  84.6740012  76.0114997 -17.5740012
  83.4770012  76.5284997 -18.3420012  83.8329510  75.9663611 -17.7819259
  77.3100012  70.4894997 -18.2350012  78.2240012  70.5684997 -17.9610012
  77.3170012  69.8024997 -18.9010012  77.4361131  70.4073961 -18.2875607
  75.9590012  75.8824997 -13.1570012  75.3120012  75.4204997 -13.6900012
  76.3130012  75.2104997 -12.5750012  75.9183849  75.7284723 -13.1512041
  76.8290012  73.9634997 -11.3530012  76.4940012  73.0834997 -11.1810012
  77.0510012  74.3084997 -10.4880012  76.8131783  73.8897500 -11.2125792
  94.3770012  74.7724997  -8.3720012  94.3560012  74.9574997  -7.4330012
  95.0680012  75.3414997  -8.7130012  94.4674618  74.8746606  -8.2896136
  93.9410012  74.3404997  -5.4500012  93.4530012  73.6044997  -5.8210012
  94.4900012  73.9464997  -4.7720012  93.9484872  74.1866249  -5.4090840
  92.3910012  70.1294997  -0.8120012  91.5250012  70.0244997  -0.4180012
  92.7680012  70.8884997  -0.3660012  92.3233308  70.2176900  -0.6977607
  93.6920012  68.3864997 -15.2980012  94.5420012  68.8074997 -15.1710012
  93.6980012  67.6464997 -14.6910012  93.8091372  68.3440803 -15.1985656
  94.0870012  66.4394997 -13.4740012  93.3600012  65.9604997 -13.0770012
  94.6680012  66.6454997 -12.7420012  94.0659375  66.4017090 -13.3205871
  93.8460012  69.2244997  -8.5270012  94.6790012  68.8464997  -8.8070012
  93.9580012  70.1674997  -8.6460012  93.9752647  69.3002218  -8.5814513
  92.3320012  72.1024997  -6.2200012  91.6850012  72.4274997  -5.5940012
  91.8150012  71.6624997  -6.8940012  92.1734029  72.0875004  -6.2254173
  94.3550012  66.3404997 -17.0830012  93.8330012  66.6974997 -17.8020012
  94.3220012  67.0154997 -16.4050012  94.2791634  66.4805413 -17.0896855
  92.7040012  63.5804997 -18.5320012  92.8000012  64.2474997 -19.2130012
  92.5640012  62.7644997 -19.0140012  92.6982135  63.5614500 -18.6901509
  91.8730012  64.9604997 -12.9110012  91.7230012  64.0154997 -12.9320012
  91.5200012  65.2414997 -12.0680012  91.8046625  64.8690441 -12.7997654
  76.9090012  67.0384997  -8.9010012  77.0930012  66.9564997  -9.8370012
  77.7580012  66.9144997  -8.4770012  77.0490139  67.0105003  -8.9718545
  92.7300012  66.9304997  -3.2730012  93.3130012  66.1964997  -3.0810012
  93.2940012  67.7024997  -3.2260012  92.8859769  66.9344227  -3.2403841
  94.2260012  64.8334997  -2.5880012  93.3630012  64.4544997  -2.7540012
  94.8310012  64.0944997  -2.6620012  94.1895979  64.6818023  -2.6207183
  91.9510012  60.9884997 -19.4150012  92.5620012  60.6174997 -18.7780012
  91.1150012  60.5674997 -19.2190012  91.9215032  60.8807554 -19.3012965
  91.5840012  62.5434997 -14.4490012  91.8640012  61.6364997 -14.3250012
  92.3430012  62.9774997 -14.8380012  91.7249277  62.4780942 -14.4846318
  92.1960012  63.1244997  -9.0130012  93.1290012  63.3364997  -9.0470012
  91.9610012  63.2264997  -8.0910012  92.2918036  63.1672769  -8.8930024
  92.2250012  63.8614997  -6.2370012  91.3820012  64.1294997  -5.8710012
  92.6670012  64.6834997  -6.4480012  92.1694158  64.0093291  -6.2154509
  76.5060012  62.3094997  -2.7600012  77.4260012  62.1874997  -2.5240012
  76.0570012  61.5594997  -2.3710012  76.5711580  62.1913727  -2.6750994
  94.5080012  57.8414997  -0.8840012  94.8580012  57.1874997  -1.4890012
  94.6550012  58.6784997  -1.3230012  94.5758419  57.8651591  -1.0262882
  92.1970012  59.8064997 -14.4010012  92.3800012  59.3574997 -13.5750012
  91.5980012  59.2214997 -14.8640012  92.1410202  59.6659975 -14.3506725
  77.7270012  60.6214997  -9.8690012  78.1730012  59.8294997  -9.5670012
  78.1940012  61.3374997  -9.4380012  77.8510172  60.6100624  -9.7695180
  76.0310012  63.6204997  -8.8000012  76.5230012  63.3994997  -9.5910012
  76.3940012  64.4614997  -8.5190012  76.1473126  63.7038357  -8.8702469
  94.0280012  59.9504997  -2.5340012  93.1100012  60.2214997  -2.5700012
  94.1510012  59.4154997  -3.3190012  93.9191066  59.9152892  -2.6449513
  94.0640012  59.8734997 -17.8730012  94.4760012  59.1524997 -18.3480012
  94.7460012  60.5434997 -17.8140012  94.2125885  59.8652368 -17.9301085
  76.3450012  59.8784997 -14.7460012  75.4200012  60.0874997 -14.8750012
  76.7990012  60.3624997 -15.4350012  76.2797368  59.9725994 -14.8568774
  91.1160012  74.8624997 -12.8000012  91.7680012  74.5154997 -13.4080012
  91.6260012  75.3514997 -12.1540012  91.2742637  74.8810597 -12.7959764
  76.3090012  58.6164997  -6.4010012  75.6440012  58.3704997  -5.7580012
  75.8660012  59.2384997  -6.9790012  76.1580956  58.6668632  -6.3910648
  78.5010012  71.7914997  -2.2570012  77.6800012  71.9664997  -2.7170012
  78.2480012  71.7184997  -1.3360012  78.3546164  71.8055622  -2.1955077
  81.4550012  72.7664997  -5.9980012  81.0300012  73.5754997  -6.2810012
  82.3590012  72.8514997  -6.3000012  81.5190271  72.8888469  -6.0776224
  85.7660012  74.1654997  -3.0390012  85.9510012  73.8314997  -2.1610012
  86.6120012  74.4744997  -3.3610012  85.9057539  74.1616047  -2.9624395
  88.1110012  75.4514997  -3.7950012  88.7880012  74.8184997  -4.0350012
  88.4330012  75.8524997  -2.9880012  88.2471637  75.4191154  -3.7187207
  93.0280012  58.0404997  -4.7150012  92.2160012  58.3654997  -5.1030012
  93.2610012  57.2804997  -5.2480012  92.9483423  57.9822436  -4.8401747
  78.8570012  76.0224997  -5.9510012  78.1360012  76.4624997  -6.4020012
  78.4910012  75.7714997  -5.1020012  78.7089804  76.0487698  -5.8980160
  81.3240012  75.6224997  -6.9210012  80.4590012  75.6944997  -6.5170012
  81.2690012  76.1694997  -7.7050012  81.1982085  75.7062685  -6.9716638
  86.0340012  75.5104997  -7.7460012  85.5780012  76.0394997  -8.4000012
  86.1970012  76.1134997  -7.0200012  85.9935585  75.6644468  -7.7374938
  88.3620012  74.3884997  -6.8010012  87.4570012  74.5534997  -7.0660012
  88.7910012  75.2414997  -6.8660012  88.2960799  74.5264483  -6.8460818
  90.9660012  75.9584997  -6.5060012  90.7840012  76.8744997  -6.7160012
  91.1430012  75.5484997  -7.3520012  90.9650210  76.0284822  -6.6492115
  78.2710012  74.6454997  -9.0410012  78.2530012  74.2204997  -8.1830012
  79.0760012  74.3274997  -9.4490012  78.3773875  74.5443812  -8.9788345
  80.4130012  73.3554997 -10.3860012  80.1940012  72.4394997 -10.2160012
  81.2370012  73.4954997  -9.9200012  80.4944420  73.2490520 -10.2997226
  82.9500012  73.8254997  -9.5370012  83.1630012  72.9374997  -9.8240012
  83.0140012  73.7914997  -8.5830012  82.9878232  73.6993102  -9.4472603
  86.4580012  59.4894997 -10.3930012  85.7840012  58.8604997 -10.1370012
  87.0220012  59.0054997 -10.9960012  86.4419230  59.3378744 -10.4394660
  91.6010012  57.5974997 -10.2800012  92.2050012  58.1444997 -10.7820012
  90.7310012  57.9164997 -10.5200012  91.5661241  57.7155806 -10.3812346
  93.3280012  58.7354997 -11.9470012  93.9400012  58.2214997 -12.4730012
  93.7100012  59.6134997 -11.9230012  93.4634540  58.7837140 -12.0158170
  78.7850012  58.1234997 -12.5710012  78.0080012  57.8894997 -13.0780012
  79.3150012  57.3264997 -12.5620012  78.7502330  57.9836988 -12.6392258
  77.6210012  57.9214997 -16.7670012  78.0600012  58.5324997 -17.3590012
  76.9880012  58.4594997 -16.2930012  77.5954514  58.0779257 -16.7839070
  83.3640012  58.0504997 -12.7570012  84.2390012  58.4384997 -12.7870012
  83.2280012  57.8354997 -11.8350012  83.4653695  58.0745184 -12.6363560
  88.9210012  58.0804997 -11.1080012  88.9970012  58.1754997 -12.0580012
  88.6460012  57.1724997 -10.9790012  88.8942321  57.9707867 -11.2204921
  90.2740012  58.1064997 -15.4160012  89.5720012  58.7214997 -15.6250012
  89.8300012  57.2684997 -15.2850012  90.1176330  58.0775783 -15.4269672
  77.5220012  73.8694997 -15.8690012  76.8370012  73.8314997 -16.5370012
  77.5260012  74.7824997 -15.5810012  77.4288193  73.9877016 -15.9214716
  79.4820012  59.8374997 -18.3250012  79.9740012  59.2074997 -18.8520012
  80.1060012  60.1334997 -17.6610012  79.6335446  59.7913199 -18.3074020
  84.5080012  60.1304997 -15.8680012  84.6860012  59.4844997 -15.1850012
  84.4550012  60.9644997 -15.4000012  84.5251829  60.1547985 -15.7114060
  86.3870012  75.0794997 -17.4720012  87.2530012  75.4454997 -17.6500012
  86.1400012  74.6394997 -18.2860012  86.4722392  75.0701756 -17.6063711
  93.0960012  74.6424997 -14.7930012  92.9010012  73.8944997 -15.3580012
  93.0570012  75.4004997 -15.3760012  93.0640380  74.6426099 -14.9491616
  78.7430012  58.6374997  -3.0530012  78.3770012  57.8724997  -2.6100012
  79.6560012  58.6664997  -2.7660012  78.8162790  58.5367224  -2.9535930
  80.7160012  57.9884997  -1.5170012  81.6140012  57.7144997  -1.7020012
  80.3290012  57.2454997  -1.0530012  80.7866612  57.8505914  -1.4796357
  79.3400012  74.7894997 -18.8440012  79.0730012  75.0764997 -17.9710012
  80.1120012  74.2434997 -18.6920012  79.4077488  74.7550294 -18.7038950
  89.1370012  57.3204997  -1.3350012  89.2140012  56.8944997  -0.4810012
  90.0310012  57.3344997  -1.6780012  89.2683428  57.2640879  -1.2644690
  92.3130012  73.3934997  -2.6430012  91.5310012  73.2074997  -3.1620012
  92.2410012  74.3224997  -2.4250012  92.1961777  73.4936492  -2.6845952
 106.7190012  67.2794997 -12.6120012 106.8080012  68.2234997 -12.7440012
 106.0810012  67.0044997 -13.2700012 106.6449081  67.3714830 -12.7190386
 105.6520012  66.5344997  -9.1930012 105.6140012  65.8884997  -8.4880012
 105.3300012  66.0684997  -9.9640012 105.6032333  66.3829408  -9.2007022
  98.0210012  66.1494997  -7.6000012  98.0620012  65.5234997  -6.8770012
  98.7240012  66.7734997  -7.4180012  98.1216363  66.1481196  -7.4763956
 109.3580012  69.4734997 -10.8920012 108.9180012  68.7534997 -10.4410012
 109.3450012  70.1944997 -10.2620012 109.2960226  69.4723731 -10.7451506
  98.9440012  70.5994997  -9.0650012  98.5750012  69.7974997  -9.4350012
  99.8850012  70.4304997  -9.0190012  99.0207289  70.4670153  -9.1093684
  95.5540012  64.2594997 -13.6720012  95.1070012  65.1054997 -13.6910012
  94.9930012  63.6794997 -14.1880012  95.4169900  64.2969916 -13.7443199
  96.2650012  66.4214997 -11.5460012  96.4780012  65.6514997 -11.0190012
  97.0030012  66.5104997 -12.1500012  96.3938496  66.3281394 -11.5554700
 106.4700012  74.5784997 -10.6790012 107.0900012  73.9014997 -10.9530012
 106.2620012  74.3604997  -9.7710012 106.5266904  74.4563870 -10.5936635
 104.0420012  68.9674997  -8.7870012 104.3460012  68.2814997  -9.3820012
 104.7630012  69.0854997  -8.1690012 104.1810671  68.8896305  -8.7848184
 112.7050012  60.5684997  -7.9260012 112.7540012  61.1784997  -7.1900012
 113.1300012  61.0294997  -8.6490012 112.7691824  60.7143741  -7.9229795
 107.1830012  63.3614997  -8.4590012 107.3250012  62.4154997  -8.4390012
 107.0760012  63.5684997  -9.3880012 107.1879864  63.2599534  -8.5817661
 100.3370012  61.4624997 -11.1870012 100.3810012  62.3224997 -11.6050012
  99.8800012  60.9104997 -11.8210012 100.2812185  61.5055799 -11.3299701
 108.0600012  61.5934997 -12.7860012 108.7060012  61.2644997 -12.1610012
 108.5700012  62.1114997 -13.4090012 108.2174264  61.6184611 -12.7846138
  96.9580012  63.8594997 -10.4250012  97.6110012  63.3094997  -9.9930012
  96.9820012  63.5854997 -11.3420012  97.0506683  63.7471466 -10.4897877
 102.1140012  65.4094997 -11.2100012 102.7300012  64.8834997 -10.7000012
 101.5280012  64.7694997 -11.6130012 102.1190810  65.2509208 -11.1946827
 113.0960012  62.0464997  -5.6900012 112.4080012  62.7044997  -5.7860012
 113.1120012  61.8494997  -4.7540012 113.0038525  62.1100462  -5.5765192
  99.1480012  60.3804997  -7.1130012  98.9290012  60.9104997  -7.8790012
  98.4800012  60.6074997  -6.4660012  99.0277600  60.4836906  -7.1303621
 106.5170012  69.8804997 -13.5690012 106.2210012  69.5584997 -14.4200012
 106.1920012  70.7804997 -13.5280012 106.4326371  69.9580215 -13.6798199
 101.7170012  68.0564997  -6.8260012 100.9770012  68.6544997  -6.7220012
 102.4310012  68.6104997  -7.1410012 101.7122237  68.2132831  -6.8543535
 109.8240012  60.8844997 -10.8060012 109.6080012  60.1184997 -10.2730012
 110.4790012  61.3564997 -10.2930012 109.8830632  60.8435889 -10.6637139
  98.7410012  62.2724997  -9.1610012  99.3550012  62.9054997  -8.7870012
  99.2530012  61.8004997  -9.8170012  98.8942296  62.2952370  -9.1985748
 100.1240012  70.0204997  -6.0380012 100.1190012  70.9004997  -6.4160012
  99.2710012  69.9374997  -5.6130012 100.0079464  70.1296117  -6.0322093
  96.2450012  69.6914997 -15.2560012  95.9730012  69.9204997 -16.1450012
  96.2910012  70.5294997 -14.7960012  96.2140094  69.8361213 -15.3154303
 109.8700012  71.3134997  -8.5440012 108.9290012  71.3714997  -8.3820012
 110.1470012  72.2194997  -8.6810012 109.7784679  71.4439443  -8.5403185
 110.1710012  59.5994997  -7.1260012 109.4350012  60.2104997  -7.1640012
 110.8540012  60.0144997  -7.6530012 110.1626541  59.7391374  -7.2024168
 103.1740012  57.6864997  -9.6600012 103.0570012  56.7374997  -9.7150012
 102.3190012  58.0184997  -9.3870012 103.0423733  57.6015409  -9.6306103
 108.1220012  73.0944997 -11.9180012 108.5480012  72.3874997 -12.4030012
 108.4390012  73.8954997 -12.3350012 108.2231019  73.1060994 -12.0406870
 109.2820012  70.9954997 -13.4100012 109.0240012  70.3054997 -14.0210012
 109.3530012  70.5524997 -12.5640012 109.2562856  70.8412124 -13.3793115
 110.9680012  69.5614997  -4.9320012 111.1080012  68.9704997  -5.6720012
 111.1350012  70.4344997  -5.2890012 111.0096778  69.5986426  -5.0813035
 105.4410012  66.5234997 -15.1600012 104.7290012  67.0584997 -15.5120012
 106.1320012  66.5794997 -15.8200012 105.4370132  66.6042543 -15.2973711
 105.4940012  64.9814997 -18.1210012 106.1950012  65.0034997 -17.4700012
 105.7970012  64.3534997 -18.7770012 105.6307830  64.8996566 -18.1206289
 112.8100012  65.9014997  -6.8660012 112.1570012  66.5964997  -6.7770012
 113.2750012  66.1114997  -7.6760012 112.7835390  66.0249425  -6.9633117
 108.8460012  66.7334997 -14.2080012 108.1140012  66.9614997 -13.6350012
 109.2940012  66.0194997 -13.7530012 108.8063095  66.6682571 -14.0680881
 108.7440012  64.9074997  -5.1410012 108.8240012  65.6704997  -4.5690012
 108.1420012  65.1864997  -5.8310012 108.6735756  65.0497134  -5.1559411
 100.4920012  67.3634997 -12.3260012 100.1610012  66.9934997 -13.1440012
 101.0800012  66.6934997 -11.9790012 100.5261873  67.2221156 -12.3911898
 101.8580012  70.7914997  -9.6440012 101.7640012  70.2134997 -10.4010012
 102.5880012  70.4204997  -9.1480012 101.9437981  70.6622390  -9.6805835
 100.8580012  66.1324997  -8.6920012 101.4240012  66.2534997  -9.4550012
 101.1770012  66.7694997  -8.0530012 100.9785786  66.2351884  -8.7099960
 107.1670012  71.6354997  -7.9580012 106.9270012  72.2974997  -7.3100012
 106.9690012  70.8014997  -7.5330012 107.1073808  71.6133134  -7.8118476
 101.7380012  70.5314997  -3.9750012 101.4270012  71.3134997  -3.5200012
 101.0880012  70.3784997  -4.6610012 101.6075558  70.6179105  -4.0054129
 107.7170012  65.8954997 -16.5230012 108.2970012  66.0454997 -15.7760012
 108.1310012  66.3664997 -17.2460012 107.8522830  65.9796841 -16.5185866
  98.6580012  66.7294997  -4.7460012  98.7290012  67.3804997  -4.0480012
  97.7680012  66.8324997  -5.0810012  98.5473117  66.8325936  -4.6957300
 105.4440012  72.6324997 -13.0880012 105.9180012  72.9274997 -12.3100012
 104.8810012  73.3704997 -13.3210012 105.4327653  72.7726932 -13.0129864
  99.9780012  72.6034997  -3.2120012  99.9850012  72.4674997  -4.1590012
  99.0620012  72.4854997  -2.9600012  99.8551714  72.5689430  -3.3075334
 111.4160012  57.6454997 -16.7100012 110.5160012  57.7844997 -16.4150012
 111.6680012  58.4764997 -17.1120012 111.3268702  57.7769074 -16.7239795
  99.4820012  66.4334997 -14.7360012  99.1900012  67.2014997 -15.2270012
  98.8080012  65.7734997 -14.8990012  99.3509081  66.4494406 -14.8252660
 112.6050012  72.0114997 -18.3340012 112.6790012  72.9504997 -18.1630012
 113.5110012  71.7064997 -18.3900012 112.7375100  72.0986722 -18.3181881
  95.5750012  68.7964997  -5.9210012  95.0740012  68.7684997  -6.7360012
  95.5800012  67.8904997  -5.6120012  95.5071526  68.6702278  -5.9907128
  95.3250012  71.5764997  -9.0370012  96.2710012  71.4324997  -9.0560012
  95.2130012  72.3604997  -8.5000012  95.4392727  71.6628046  -8.9669928
 113.5230012  72.2424997  -3.3550012 113.4740012  71.2874997  -3.3920012
 112.6960012  72.5104997  -2.9540012 113.4044940  72.1478998  -3.3058625
 104.5020012  71.8164997  -4.4790012 104.5890012  72.6424997  -4.0040012
 103.6380012  71.4864997  -4.2300012 104.3971964  71.8849878  -4.3803451
 104.9160012  75.5884997 -14.6730012 104.8410012  75.4674997 -15.6190012
 104.9490012  76.5384997 -14.5540012 104.9101848  75.7002500 -14.7865166
  98.5690012  74.3774997 -12.8920012  98.7220012  74.0294997 -12.0130012
  97.7190012  74.0214997 -13.1470012  98.4748962  74.2816650 -12.8061660
 108.0180012  74.7424997 -17.6710012 108.3930012  73.9984997 -18.1410012
 108.0220012  74.4724997 -16.7520012 108.0698915  74.6041486 -17.6112176
 107.6870012  74.6684997 -14.9210012 106.7510012  74.7684997 -14.7430012
 107.9670012  73.9594997 -14.3430012 107.5968255  74.5862711 -14.8184609
 110.6750012  63.7354997  -2.8750012 110.2680012  64.2164997  -3.5960012
 110.7160012  62.8304997  -3.1830012 110.6248437  63.6789374  -3.0153317
  97.8240012  70.1194997  -4.8780012  98.0400012  69.7584997  -4.0190012
  96.9690012  69.7454997  -5.0880012  97.7379292  70.0194111  -4.7886614
 100.4430012  58.5894997  -8.8830012  99.5810012  58.5024997  -9.2900012
 100.4200012  59.4454997  -8.4550012 100.3220330  58.6932765  -8.8808137
 105.1060012  58.3114997  -5.5080012 105.5260012  57.8964997  -4.7550012
 104.1730012  58.1334997  -5.3910012 105.0373644  58.2305900  -5.3890461
 108.4320012  62.0674997  -4.6550012 107.9180012  61.9414997  -3.8570012
 108.2770012  62.9794997  -4.8990012 108.3406852  62.1736132  -4.5787842
 109.1950012  66.9284997 -18.8930012 109.2370012  66.7054997 -19.8230012
 110.0440012  67.3274997 -18.7030012 109.3155396  66.9519155 -18.9946373
 104.7670012  60.8044997 -18.2230012 104.5140012  60.8234997 -17.3000012
 104.5110012  59.9324997 -18.5240012 104.6977790  60.6892437 -18.1373737
 100.5340012  63.5554997  -7.7880012  99.8920012  63.5144997  -7.0790012
 100.5710012  64.4814997  -8.0250012 100.4511324  63.6751559  -7.7230176
 100.5310012  63.7764997 -12.8760012  99.6380012  63.4354997 -12.9340012
 100.9810012  63.3994997 -13.6310012 100.4697305  63.6788484 -12.9860823
 106.0660012  64.1924997 -14.0590012 105.6570012  65.0074997 -14.3500012
 106.7870012  64.0524997 -14.6730012 106.1074537  64.2852018 -14.1818658
 105.1680012  64.3674997  -2.5710012 104.6060012  63.6634997  -2.2500012
 105.9950012  64.2474997  -2.1030012 105.2027095  64.2547883  -2.4637670
 107.0710012  63.6384997 -11.2450012 106.8760012  64.2434997 -11.9600012
 107.2520012  62.8044997 -11.6790012 107.0687614  63.6086300 -11.4015595
  98.2840012  63.8754997  -5.9210012  98.2460012  64.2754997  -5.0520012
  97.7930012  63.0584997  -5.8300012  98.2124684  63.8198069  -5.7898941
 101.6500012  61.2494997 -19.1220012 101.2190012  60.8044997 -18.3920012
 100.9320012  61.6214997 -19.6340012 101.4939438  61.2388940 -19.0913201
  94.8920012  60.9914997 -12.0700012  95.5230012  60.9624997 -11.3510012
  95.3410012  60.5664997 -12.8000012  95.0390774  60.9300492 -12.0703447
  96.1660012  61.7374997 -16.6460012  96.6400012  62.3284997 -17.2310012
  95.4490012  62.2684997 -16.2990012  96.1339341  61.8900867 -16.6791164
 106.3350012  65.2764997  -6.5730012 106.6580012  64.6454997  -7.2160012
 105.8950012  64.7414997  -5.9130012 106.3196895  65.1178441  -6.5717150
 103.1120012  61.2034997 -11.7890012 102.2010012  61.2604997 -11.5010012
 103.6180012  61.1434997 -10.9790012 103.0555413  61.2031985 -11.6399378
  97.9410012  62.8324997 -12.9630012  97.0510012  62.9324997 -13.3030012
  98.2370012  61.9904997 -13.3090012  97.8592823  62.7323545 -13.0562787
 101.5940012  62.8324997 -15.3060012 102.5250012  62.9614997 -15.1280012
 101.3790012  63.5024997 -15.9560012 101.6924247  62.9406565 -15.3694253
 107.5170012  60.4384997  -8.5250012 106.8410012  60.5694997  -7.8610012
 107.0320012  60.2834997  -9.3350012 107.3587145  60.4354905  -8.5435483
 100.2680012  64.0274997 -17.7390012  99.7250012  63.6474997 -18.4310012
 101.1010012  64.2214997 -18.1680012 100.3064399  64.0018124 -17.8915474
 110.8050012  76.1104997  -2.2480012 111.0050012  76.5344997  -3.0830012
 111.4600012  76.4534997  -1.6410012 110.9210051  76.2149648  -2.2802164
  98.4030012  68.5844997  -2.6400012  99.1350012  68.8384997  -2.0790012
  97.6230012  68.7884997  -2.1250012  98.3978232  68.6469177  -2.4934240
 104.4320012  63.9914997  -9.9020012 104.9970012  63.4444997 -10.4490012
 104.2850012  63.4694997  -9.1140012 104.4892918  63.8462024  -9.8701546
  99.4340012  60.1274997 -13.4840012  99.1170012  59.2254997 -13.5190012
 100.2160012  60.1294997 -14.0370012  99.4962284  60.0041628 -13.5635217
 103.0590012  62.3794997  -7.4880012 102.2230012  62.8334997  -7.3780012
 103.5830012  62.6554997  -6.7360012 103.0154414  62.4789376  -7.3712864
 103.6030012  68.5924997 -15.8040012 102.8580012  68.0854997 -16.1260012
 103.4690012  68.6414997 -14.8570012 103.4828776  68.5296940 -15.7201353
 110.7530012  67.7254997  -7.0170012 111.3950012  68.1824997  -7.5610012
 109.9230012  67.8384997  -7.4800012 110.7285963  67.8032704  -7.1539823
 107.5010012  61.4064997 -17.6040012 106.5620012  61.5184997 -17.7560012
 107.7980012  62.2634997 -17.2980012 107.4127666  61.5376443 -17.5834232
 105.1220012  68.7764997  -4.5670012 104.7770012  68.3954997  -3.7600012
 104.9220012  69.7104997  -4.4950012 105.0478061  68.8505228  -4.4469039
 108.2190012  63.2734997 -15.9440012 109.1110012  63.1364997 -15.6250012
 108.2760012  64.0644997 -16.4800012 108.3486285  63.3616660 -15.9728310
  98.7280012  67.8874997 -10.0340012  99.4730012  67.8854997 -10.6350012
  98.8060012  67.0644997  -9.5520012  98.8405518  67.7759315 -10.0511071
 105.7290012  70.0514997 -16.7780012 105.4330012  70.8774997 -16.3970012
 105.0260012  69.4314997 -16.5820012 105.5934914  70.0808199 -16.6993557
  95.7360012  66.3484997  -4.7190012  95.9590012  65.9304997  -3.8870012
  95.1340012  65.7354997  -5.1420012  95.6851759  66.2084668  -4.6622978
 102.7520012  65.8654997  -2.5060012 102.4560012  65.6994997  -3.4010012
 103.6840012  65.6454997  -2.5170012 102.8374166  65.8130640  -2.6299464
 107.3730012  71.2384997  -4.6160012 106.4720012  71.4214997  -4.8840012
 107.4070012  71.4974997  -3.6950012 107.2543041  71.2985512  -4.5281803
 113.1040012  63.4834997 -16.2490012 112.5500012  63.0874997 -16.9210012
 113.2040012  64.3934997 -16.5270012 113.0417059  63.5523586 -16.3785599
 113.0670012  69.2834997  -3.4120012 112.2160012  69.5214997  -3.7790012
 113.6580012  69.2664997  -4.1650012 113.0302487  69.3138258  -3.5641107
 111.3990012  72.2694997 -15.7840012 111.0260012  71.4434997 -15.4750012
 111.6770012  72.0864997 -16.6810012 111.3855630  72.1317303 -15.8630374
 108.5600012  67.0774997  -8.7630012 107.6310012  66.8454997  -8.7900012
 109.0110012  66.3004997  -9.0930012 108.4939216  66.9407238  -8.8113083
 101.1030012  71.4054997 -12.6300012 101.6300012  72.1784997 -12.8300012
 100.2230012  71.6304997 -12.9310012 101.0561773  71.5418005 -12.6980990
  96.8580012  66.2674997 -18.0430012  97.4740012  66.8944997 -17.6630012
  95.9960012  66.5834997 -17.7710012  96.8257698  66.3959430 -17.9542817
 102.5300012  69.0684997 -13.0530012 102.2890012  69.9934997 -13.0120012
 101.7890012  68.6094997 -12.6570012 102.3968409  69.1331421 -12.9938623
 103.0450012  73.2174997  -6.7380012 103.4070012  74.0724997  -6.9720012
 103.5760012  72.9254997  -5.9980012 103.1664473  73.2951060  -6.6699145
 101.2130012  74.0904997 -13.5080012 100.2630012  74.1954997 -13.4570012
 101.5650012  74.9104997 -13.1630012 101.1304203  74.2158314 -13.4543350
 106.5890012  69.3164997  -7.0380012 106.1630012  69.0894997  -6.2110012
 107.1690012  68.5784997  -7.2200012 106.6091868  69.1855299  -6.9494170
 108.7920012  70.2454997 -17.9640012 109.1450012  69.8654997 -17.1590012
 107.8430012  70.1524997 -17.8770012 108.7120441  70.1809596 -17.8421441
 109.2470012  73.8684997  -4.5680012 108.6460012  73.3134997  -5.0640012
 109.5290012  74.5354997  -5.1940012 109.2028519  73.8826841  -4.7205048
 113.2950012  74.7254997 -17.7630012 114.0390012  75.3114997 -17.9030012
 112.6010012  75.2934997 -17.4290012 113.3030292  74.8825582 -17.7370039
  97.3700012  61.1014997  -5.1610012  96.4770012  61.4404997  -5.2290012
  97.2710012  60.2464997  -4.7430012  97.2344164  61.0322588  -5.1137765
 109.6580012  68.9184997 -15.7370012 109.3800012  68.1904997 -15.1810012
 110.5850012  69.0374997 -15.5320012 109.7453124  68.8348802 -15.6331155
  97.0210012  72.9064997  -6.7260012  97.2380012  71.9744997  -6.7570012
  97.2670012  73.1804997  -5.8430012  97.0839549  72.8160636  -6.6108237
 102.8830012  71.3574997 -19.5170012 103.1220012  70.6094997 -20.0640012
 102.6140012  70.9694997 -18.6840012 102.8793675  71.2026638 -19.4793135
 101.8200012  70.9274997 -17.0600012 101.9660012  70.4074997 -16.2700012
 101.8170012  71.8344997 -16.7540012 101.8395989  70.9788853 -16.9103912
  98.2730012  68.1804997 -16.5500012  97.5870012  68.5324997 -15.9830012
  98.7950012  68.9434997 -16.7970012  98.2496852  68.3318578 -16.5057882
 106.1040012  60.8424997  -6.2710012 106.8030012  60.9164997  -5.6210012
 105.7230012  59.9784997  -6.1170012 106.1481767  60.7357624  -6.1611678
 106.8890012  60.4944997 -15.1740012 107.1090012  60.9664997 -15.9770012
 107.4470012  60.8894997 -14.5040012 106.9944968  60.6124285 -15.1932669
 104.5570012  72.6254997 -16.3110012 103.7410012  73.1224997 -16.2590012
 105.0870012  73.1004997 -16.9510012 104.5169161  72.7577722 -16.3904044
 104.0890012  62.2224997 -14.3390012 104.9010012  62.7274997 -14.2930012
 103.8440012  62.0774997 -13.4250012 104.1670520  62.2720375 -14.2091483
 104.6240012  63.2084997  -5.1540012 104.7430012  63.7824997  -4.3970012
 105.2800012  62.5204997  -5.0400012 104.7289757  63.1941079  -5.0349175
 104.9720012  59.3034997 -13.4010012 104.6260012  59.9214997 -12.7560012
 105.6310012  59.8044997 -13.8820012 105.0137826  59.4555802 -13.3779029
 101.8960012  73.6694997 -16.3290012 102.0560012  74.4684997 -16.8300012
 101.6980012  73.9754997 -15.4440012 101.8911649  73.8204469 -16.2780185
 100.6300012  60.3664997 -16.7140012 100.5470012  61.2554997 -16.3670012
 101.5200012  60.1014997 -16.4820012 100.7389469  60.4521430 -16.6352374
 110.8290012  61.1154997  -4.3190012 109.9120012  61.3784997  -4.4070012
 111.1640012  61.1124997  -5.2160012 110.7489900  61.1510224  -4.4522081
 109.4310012  64.8664997 -10.2240012 108.6330012  64.4514997 -10.5520012
 109.8760012  64.1754997  -9.7330012 109.3819885  64.7163543 -10.2025111
  98.8890012  70.7944997 -17.6530012  99.4810012  71.4934997 -17.3770012
  99.3480012  70.3614997 -18.3730012  99.0321142  70.8317049 -17.7125170
  97.2050012  63.4584997 -18.5370012  97.1600012  64.3974997 -18.3590012
  96.3170012  63.2224997 -18.8070012  97.0788574  63.5551892 -18.5491088
 110.5170012  74.1224997  -8.6010012 110.3620012  74.8004997  -9.2580012
 111.4500012  74.1944997  -8.3980012 110.6218500  74.2250170  -8.6634881
  98.0130012  58.2404997  -9.8640012  97.7840012  58.2994997 -10.7920012
  97.5700012  57.4484997  -9.5580012  97.9218530  58.1415753  -9.9495214
  96.9430012  72.1804997 -13.7040012  96.1110012  72.6534997 -13.6760012
  97.4890012  72.6904997 -14.3020012  96.9029739  72.3141871 -13.7810284
  96.2310012  74.7934997  -2.3740012  96.7720012  74.5764997  -1.6140012
  95.7500012  73.9874997  -2.5630012  96.2399345  74.6549514  -2.2956924
 100.8290012  73.7124997  -0.7530012 101.5960012  73.2534997  -0.4120012
 100.8070012  73.4864997  -1.6830012 100.9311434  73.6190409  -0.8319957
 104.9210012  73.2204997 -19.3780012 104.2770012  72.5894997 -19.0570012
 105.6830012  72.6894997 -19.6100012 104.9358077  73.0622920 -19.3653989
 107.4060012  72.0924997  -2.0240012 107.0550012  71.2364997  -1.7810012
 108.1320012  72.2354997  -1.4170012 107.4560769  71.9945636  -1.9086381
 109.5250012  73.0374997 -19.1440012 109.8080012  72.2434997 -18.6920012
 110.2650012  73.2704997 -19.7050012 109.6637486  72.9602803 -19.1579302
  96.1380012  68.6034997  -1.4190012  96.2820012  67.7014997  -1.7060012
  95.3660012  68.8894997  -1.9070012  96.0533322  68.5188261  -1.5242119
 100.4800012  68.9474997 -19.2870012 100.5440012  68.1534997 -18.7560012
 101.1330012  68.8284997 -19.9770012 100.5770241  68.8227148 -19.3075683
 102.7940012  68.5734997  -1.9870012 102.4650012  68.8444997  -2.8440012
 102.9460012  67.6324997  -2.0740012 102.7694809  68.4833862  -2.1161756
 108.5280012  68.4894997  -4.6030012 109.2740012  69.0774997  -4.7230012
 107.7710012  69.0714997  -4.5400012 108.5277554  68.6487011  -4.6109093
  96.9710012  65.8034997  -1.9990012  97.3790012  64.9464997  -2.1200012
  96.7110012  65.8184997  -1.0780012  96.9917568  65.6880807  -1.8910412
 101.6290012  66.9194997 -16.9810012 101.1690012  66.4354997 -16.2950012
 101.8840012  66.2514997 -17.6170012 101.6004902  66.7628731 -16.9730666
 100.9180012  64.8124997  -4.6250012 100.3000012  65.4874997  -4.3450012
 101.2620012  65.1334997  -5.4580012 100.8799615  64.9482721  -4.6993419
 102.7000012  65.1624997 -18.7190012 102.5200012  65.0084997 -19.6460012
 103.6500012  65.2704997 -18.6740012 102.8037776  65.1560175 -18.8398157
 105.9380012  67.2844997  -1.3480012 106.8910012  67.3674997  -1.3750012
 105.7770012  66.5724997  -0.7280012 106.0466426  67.1996746  -1.2679421
 112.0900012  67.5174997 -19.2730012 111.8160012  67.0924997 -20.0860012
 112.1290012  68.4484997 -19.4900012 112.0577699  67.5852484 -19.4136390
 101.2570012  62.1674997  -3.5430012 101.4070012  61.4384997  -4.1450012
 101.2600012  62.9444997  -4.1020012 101.2779302  62.1727851  -3.7009308
 101.6700012  60.5374997  -6.0500012 102.2060012  60.9884997  -6.7020012
 100.8180012  60.4294997  -6.4730012 101.6282178  60.5846390  -6.1964244
 103.2520012  65.9764997  -5.8110012 104.0020012  65.8204997  -6.3840012
 102.9130012  66.8284997  -6.0860012 103.3088921  66.0702968  -5.9266439
 107.6670012  63.7914997  -0.7820012 107.8600012  62.8604997  -0.8940012
 108.5250012  64.2164997  -0.7920012 107.8093020  63.7216389  -0.7986639
 108.9840012  66.5804997  -2.7050012 108.7030012  67.2894997  -3.2820012
 109.9270012  66.5074997  -2.8560012 109.0729027  66.6677646  -2.8044449
  99.7360012  63.3654997  -1.6310012  98.9690012  62.8334997  -1.8410012
 100.4150012  63.0554997  -2.2310012  99.7227022  63.2507506  -1.7408352
 102.4760012  57.9934997  -5.6190012 102.3770012  58.9404997  -5.7240012
 101.7330012  57.6214997  -6.0940012 102.3620564  58.0725902  -5.6975440
 103.7400012  62.3154997  -2.0550012 103.5040012  62.0954997  -1.1530012
 102.9560012  62.1084997  -2.5650012 103.6018628  62.2574760  -2.0006068
 106.4550012  61.4424997  -2.9790012 105.5080012  61.4744997  -2.8470012
 106.7680012  60.8174997  -2.3260012 106.3675475  61.3623207  -2.8725545
 108.0890012  60.0764997  -0.9740012 107.9930012  59.1244997  -0.9800012
 107.7680012  60.3454997  -0.1140012 108.0324070  59.9824035  -0.8584559
  97.9160012  61.2864997  -1.9270012  98.1280012  60.5794997  -2.5370012
  97.8050012  60.8484997  -1.0830012  97.9299721  61.1307084  -1.8963157
 102.6970012  57.2874997  -2.9470012 103.4090012  56.6474997  -2.9610012
 102.5960012  57.5544997  -3.8610012 102.7807939  57.2359938  -3.0724350
 103.0510012  58.9704997  -0.8940012 102.9190012  58.4944997  -1.7140012
 102.4520012  59.7144997  -0.9490012 102.9519071  59.0059618  -1.0137114
 102.5970012  75.8534997 -17.7170012 103.5300012  76.0114997 -17.5740012
 102.3330012  76.5284997 -18.3420012 102.6889510  75.9663611 -17.7819259
  96.1660012  70.4894997 -18.2350012  97.0800012  70.5684997 -17.9610012
  96.1730012  69.8024997 -18.9010012  96.2921131  70.4073961 -18.2875607
  94.8150012  75.8824997 -13.1570012  94.1680012  75.4204997 -13.6900012
  95.1690012  75.2104997 -12.5750012  94.7743849  75.7284723 -13.1512041
  95.6850012  73.9634997 -11.3530012  95.3500012  73.0834997 -11.1810012
  95.9070012  74.3084997 -10.4880012  95.6691783  73.8897500 -11.2125792
 113.2330012  74.7724997  -8.3720012 113.2120012  74.9574997  -7.4330012
 113.9240012  75.3414997  -8.7130012 113.3234618  74.8746606  -8.2896136
 112.7970012  74.3404997  -5.4500012 112.3090012  73.6044997  -5.8210012
 113.3460012  73.9464997  -4.7720012 112.8044872  74.1866249  -5.4090840
 111.2470012  70.1294997  -0.8120012 110.3810012  70.0244997  -0.4180012
 111.6240012  70.8884997  -0.3660012 111.1793308  70.2176900  -0.6977607
 112.5480012  68.3864997 -15.2980012 113.3980012  68.8074997 -15.1710012
 112.5540012  67.6464997 -14.6910012 112.6651372  68.3440803 -15.1985656
 112.9430012  66.4394997 -13.4740012 112.2160012  65.9604997 -13.0770012
 113.5240012  66.6454997 -12.7420012 112.9219375  66.4017090 -13.3205871
 112.7020012  69.2244997  -8.5270012 113.5350012  68.8464997  -8.8070012
 112.8140012  70.1674997  -8.6460012 112.8312647  69.3002218  -8.5814513
 111.1880012  72.1024997  -6.2200012 110.5410012  72.4274997  -5.5940012
 110.6710012  71.6624997  -6.8940012 111.0294029  72.0875004  -6.2254173
 113.2110012  66.3404997 -17.0830012 112.6890012  66.6974997 -17.8020012
 113.1780012  67.0154997 -16.4050012 113.1351634  66.4805413 -17.0896855
 111.5600012  63.5804997 -18.5320012 111.6560012  64.2474997 -19.2130012
 111.4200012  62.7644997 -19.0140012 111.5542135  63.5614500 -18.6901509
 110.7290012  64.9604997 -12.9110012 110.5790012  64.0154997 -12.9320012
 110.3760012  65.2414997 -12.0680012 110.6606625  64.8690441 -12.7997654
  95.7650012  67.0384997  -8.9010012  95.9490012  66.9564997  -9.8370012
  96.6140012  66.9144997  -8.4770012  95.9050139  67.0105003  -8.9718545
 111.5860012  66.9304997  -3.2730012 112.1690012  66.1964997  -3.0810012
 112.1500012  67.7024997  -3.2260012 111.7419769  66.9344227  -3.2403841
 113.0820012  64.8334997  -2.5880012 112.2190012  64.4544997  -2.7540012
 113.6870012  64.0944997  -2.6620012 113.0455979  64.6818023  -2.6207183
 110.8070012  60.9884997 -19.4150012 111.4180012  60.6174997 -18.7780012
 109.9710012  60.5674997 -19.2190012 110.7775032  60.8807554 -19.3012965
 110.4400012  62.5434997 -14.4490012 110.7200012  61.6364997 -14.3250012
 111.1990012  62.9774997 -14.8380012 110.5809277  62.4780942 -14.4846318
 111.0520012  63.1244997  -9.0130012 111.9850012  63.3364997  -9.0470012
 110.8170012  63.2264997  -8.0910012 111.1478036  63.1672769  -8.8930024
 111.0810012  63.8614997  -6.2370012 110.2380012  64.1294997  -5.8710012
 111.5230012  64.6834997  -6.4480012 111.0254158  64.0093291  -6.2154509
  95.3620012  62.3094997  -2.7600012  96.2820012  62.1874997  -2.5240012
  94.9130012  61.5594997  -2.3710012  95.4271580  62.1913727  -2.6750994
 113.3640012  57.8414997  -0.8840012 113.7140012  57.1874997  -1.4890012
 113.5110012  58.6784997  -1.3230012 113.4318419  57.8651591  -1.0262882
 111.0530012  59.8064997 -14.4010012 111.2360012  59.3574997 -13.5750012
 110.4540012  59.2214997 -14.8640012 110.9970202  59.6659975 -14.3506725
  96.5830012  60.6214997  -9.8690012  97.0290012  59.8294997  -9.5670012
  97.0500012  61.3374997  -9.4380012  96.7070172  60.6100624  -9.7695180
  94.8870012  63.6204997  -8.8000012  95.3790012  63.3994997  -9.5910012
  95.2500012  64.4614997  -8.5190012  95.0033126  63.7038357  -8.8702469
 112.8840012  59.9504997  -2.5340012 111.9660012  60.2214997  -2.5700012
 113.0070012  59.4154997  -3.3190012 112.7751066  59.9152892  -2.6449513
 112.9200012  59.8734997 -17.8730012 113.3320012  59.1524997 -18.3480012
 113.6020012  60.5434997 -17.8140012 113.0685885  59.8652368 -17.9301085
  95.2010012  59.8784997 -14.7460012  94.2760012  60.0874997 -14.8750012
  95.6550012  60.3624997 -15.4350012  95.1357368  59.9725993 -14.8568774
 109.9720012  74.8624997 -12.8000012 110.6240012  74.5154997 -13.4080012
 110.4820012  75.3514997 -12.1540012 110.1302637  74.8810597 -12.7959764
  95.1650012  58.6164997  -6.4010012  94.5000012  58.3704997  -5.7580012
  94.7220012  59.2384997  -6.9790012  95.0140956  58.6668632  -6.3910648
  97.3570012  71.7914997  -2.2570012  96.5360012  71.9664997  -2.7170012
  97.1040012  71.7184997  -1.3360012  97.2106164  71.8055622  -2.1955077
 100.3110012  72.7664997  -5.9980012  99.8860012  73.5754997  -6.2810012
 101.2150012  72.8514997  -6.3000012 100.3750271  72.8888469  -6.0776224
 104.6220012  74.1654997  -3.0390012 104.8070012  73.8314997  -2.1610012
 105.4680012  74.4744997  -3.3610012 104.7617539  74.1616047  -2.9624395
 106.9670012  75.4514997  -3.7950012 107.6440012  74.8184997  -4.0350012
 107.2890012  75.8524997  -2.9880012 107.1031637  75.4191154  -3.7187207
 111.8840012  58.0404997  -4.7150012 111.0720012  58.3654997  -5.1030012
 112.1170012  57.2804997  -5.2480012 111.8043423  57.9822436  -4.8401747
  97.7130012  76.0224997  -5.9510012  96.9920012  76.4624997  -6.4020012
  97.3470012  75.7714997  -5.1020012  97.5649804  76.0487698  -5.8980160
 100.1800012  75.6224997  -6.9210012  99.3150012  75.6944997  -6.5170012
 100.1250012  76.1694997  -7.7050012 100.0542085  75.7062685  -6.9716638
 104.8900012  75.5104997  -7.7460012 104.4340012  76.0394997  -8.4000012
 105.0530012  76.1134997  -7.0200012 104.8495585  75.6644468  -7.7374938
 107.2180012  74.3884997  -6.8010012 106.3130012  74.5534997  -7.0660012
 107.6470012  75.2414997  -6.8660012 107.1520799  74.5264483  -6.8460818
 109.8220012  75.9584997  -6.5060012 109.6400012  76.8744997  -6.7160012
 109.9990012  75.5484997  -7.3520012 109.8210210  76.0284822  -6.6492115
  97.1270012  74.6454997  -9.0410012  97.1090012  74.2204997  -8.1830012
  97.9320012  74.3274997  -9.4490012  97.2333875  74.5443812  -8.9788345
  99.2690012  73.3554997 -10.3860012  99.0500012  72.4394997 -10.2160012
 100.0930012  73.4954997  -9.9200012  99.3504420  73.2490520 -10.2997226
 101.8060012  73.8254997  -9.5370012 102.0190012  72.9374997  -9.8240012
 101.8700012  73.7914997  -8.5830012 101.8438232  73.6993102  -9.4472603
 105.3140012  59.4894997 -10.3930012 104.6400012  58.8604997 -10.1370012
 105.8780012  59.0054997 -10.9960012 105.2979230  59.3378744 -10.4394660
 110.4570012  57.5974997 -10.2800012 111.0610012  58.1444997 -10.7820012
 109.5870012  57.9164997 -10.5200012 110.4221241  57.7155806 -10.3812346
 112.1840012  58.7354997 -11.9470012 112.7960012  58.2214997 -12.4730012
 112.5660012  59.6134997 -11.9230012 112.3194540  58.7837140 -12.0158170
  97.6410012  58.1234997 -12.5710012  96.8640012  57.8894997 -13.0780012
  98.1710012  57.3264997 -12.5620012  97.6062330  57.9836988 -12.6392258
  96.4770012  57.9214997 -16.7670012  96.9160012  58.5324997 -17.3590012
  95.8440012  58.4594997 -16.2930012  96.4514514  58.0779257 -16.7839070
 102.2200012  58.0504997 -12.7570012 103.0950012  58.4384997 -12.7870012
 102.0840012  57.8354997 -11.8350012 102.3213695  58.0745184 -12.6363560
 107.7770012  58.0804997 -11.1080012 107.8530012  58.1754997 -12.0580012
 107.5020012  57.1724997 -10.9790012 107.7502321  57.9707867 -11.2204921
 109.1300012  58.1064997 -15.4160012 108.4280012  58.7214997 -15.6250012
 108.6860012  57.2684997 -15.2850012 108.9736330  58.0775783 -15.4269672
  96.3780012  73.8694997 -15.8690012  95.6930012  73.8314997 -16.5370012
  96.3820012  74.7824997 -15.5810012  96.2848193  73.9877016 -15.9214716
  98.3380012  59.8374997 -18.3250012  98.8300012  59.2074997 -18.8520012
  98.9620012  60.1334997 -17.6610012  98.4895446  59.7913199 -18.3074020
 103.3640012  60.1304997 -15.8680012 103.5420012  59.4844997 -15.1850012
 103.3110012  60.9644997 -15.4000012 103.3811829  60.1547985 -15.7114060
 105.2430012  75.0794997 -17.4720012 106.1090012  75.4454997 -17.6500012
 104.9960012  74.6394997 -18.2860012 105.3282392  75.0701756 -17.6063711
 111.9520012  74.6424997 -14.7930012 111.7570012  73.8944997 -15.3580012
 111.9130012  75.4004997 -15.3760012 111.9200380  74.6426099 -14.9491616
  97.5990012  58.6374997  -3.0530012  97.2330012  57.8724997  -2.6100012
  98.5120012  58.6664997  -2.7660012  97.6722790  58.5367224  -2.9535930
  99.5720012  57.9884997  -1.5170012 100.4700012  57.7144997  -1.7020012
  99.1850012  57.2454997  -1.0530012  99.6426612  57.8505914  -1.4796357
  98.1960012  74.7894997 -18.8440012  97.9290012  75.0764997 -17.9710012
  98.9680012  74.2434997 -18.6920012  98.2637488  74.7550294 -18.7038950
 107.9930012  57.3204997  -1.3350012 108.0700012  56.8944997  -0.4810012
 108.8870012  57.3344997  -1.6780012 108.1243428  57.2640879  -1.2644690
 111.1690012  73.3934997  -2.6430012 110.3870012  73.2074997  -3.1620012
 111.0970012  74.3224997  -2.4250012 111.0521777  73.4936492  -2.6845952
 125.5750012  67.2794997 -12.6120012 125.6640012  68.2234997 -12.7440012
 124.9370012  67.0044997 -13.2700012 125.5009081  67.3714830 -12.7190386
 124.5080012  66.5344997  -9.1930012 124.4700012  65.8884997  -8.4880012
 124.1860012  66.0684997  -9.9640012 124.4592333  66.3829408  -9.2007022
 116.8770012  66.1494997  -7.6000012 116.9180012  65.5234997  -6.8770012
 117.5800012  66.7734997  -7.4180012 116.9776363  66.1481196  -7.4763956
 128.2140012  69.4734997 -10.8920012 127.7740012  68.7534997 -10.4410012
 128.2010012  70.1944997 -10.2620012 128.1520226  69.4723731 -10.7451506
 117.8000012  70.5994997  -9.0650012 117.4310012  69.7974997  -9.4350012
 118.7410012  70.4304997  -9.0190012 117.8767289  70.4670153  -9.1093684
 114.4100012  64.2594997 -13.6720012 113.9630012  65.1054997 -13.6910012
 113.8490012  63.6794997 -14.1880012 114.2729900  64.2969916 -13.7443199
 115.1210012  66.4214997 -11.5460012 115.3340012  65.6514997 -11.0190012
 115.8590012  66.5104997 -12.1500012 115.2498496  66.3281394 -11.5554700
 125.3260012  74.5784997 -10.6790012 125.9460012  73.9014997 -10.9530012
 125.1180012  74.3604997  -9.7710012 125.3826904  74.4563870 -10.5936635
 122.8980012  68.9674997  -8.7870012 123.2020012  68.2814997  -9.3820012
 123.6190012  69.0854997  -8.1690012 123.0370671  68.8896305  -8.7848184
 131.5610012  60.5684997  -7.9260012 131.6100012  61.1784997  -7.1900012
 131.9860012  61.0294997  -8.6490012 131.6251824  60.7143741  -7.9229795
 126.0390012  63.3614997  -8.4590012 126.1810012  62.4154997  -8.4390012
 125.9320012  63.5684997  -9.3880012 126.0439864  63.2599534  -8.5817661
 119.1930012  61.4624997 -11.1870012 119.2370012  62.3224997 -11.6050012
 118.7360012  60.9104997 -11.8210012 119.1372185  61.5055799 -11.3299701
 126.9160012  61.5934997 -12.7860012 127.5620012  61.2644997 -12.1610012
 127.4260012  62.1114997 -13.4090012 127.0734264  61.6184611 -12.7846138
 115.8140012  63.8594997 -10.4250012 116.4670012  63.3094997  -9.9930012
 115.8380012  63.5854997 -11.3420012 115.9066683  63.7471466 -10.4897877
 120.9700012  65.4094997 -11.2100012 121.5860012  64.8834997 -10.7000012
 120.3840012  64.7694997 -11.6130012 120.9750810  65.2509208 -11.1946827
 131.9520012  62.0464997  -5.6900012 131.2640012  62.7044997  -5.7860012
 131.9680012  61.8494997  -4.7540012 131.8598525  62.1100462  -5.5765192
 118.0040012  60.3804997  -7.1130012 117.7850012  60.9104997  -7.8790012
 117.3360012  60.6074997  -6.4660012 117.8837600  60.4836906  -7.1303621
 125.3730012  69.8804997 -13.5690012 125.0770012  69.5584997 -14.4200012
 125.0480012  70.7804997 -13.5280012 125.2886371  69.9580215 -13.6798199
 120.5730012  68.0564997  -6.8260012 119.8330012  68.6544997  -6.7220012
 121.2870012  68.6104997  -7.1410012 120.5682237  68.2132831  -6.8543535
 128.6800012  60.8844997 -10.8060012 128.4640012  60.1184997 -10.2730012
 129.3350012  61.3564997 -10.2930012 128.7390632  60.8435889 -10.6637139
 117.5970012  62.2724997  -9.1610012 118.2110012  62.9054997  -8.7870012
 118.1090012  61.8004997  -9.8170012 117.7502296  62.2952370  -9.1985748
 118.9800012  70.0204997  -6.0380012 118.9750012  70.9004997  -6.4160012
 118.1270012  69.9374997  -5.6130012 118.8639464  70.1296117  -6.0322093
 115.1010012  69.6914997 -15.2560012 114.8290012  69.9204997 -16.1450012
 115.1470012  70.5294997 -14.7960012 115.0700094  69.8361213 -15.3154303
 128.7260012  71.3134997  -8.5440012 127.7850012  71.3714997  -8.3820012
 129.0030012  72.2194997  -8.6810012 128.6344679  71.4439443  -8.5403185
 129.0270012  59.5994997  -7.1260012 128.2910012  60.2104997  -7.1640012
 129.7100012  60.0144997  -7.6530012 129.0186541  59.7391374  -7.2024168
 122.0300012  57.6864997  -9.6600012 121.9130012  56.7374997  -9.7150012
 121.1750012  58.0184997  -9.3870012 121.8983733  57.6015409  -9.6306103
 126.9780012  73.0944997 -11.9180012 127.4040012  72.3874997 -12.4030012
 127.2950012  73.8954997 -12.3350012 127.0791019  73.1060994 -12.0406870
 128.1380012  70.9954997 -13.4100012 127.8800012  70.3054997 -14.0210012
 128.2090012  70.5524997 -12.5640012 128.1122856  70.8412124 -13.3793115
 129.8240012  69.5614997  -4.9320012 129.9640012  68.9704997  -5.6720012
 129.9910012  70.4344997  -5.2890012 129.8656778  69.5986426  -5.0813035
 124.2970012  66.5234997 -15.1600012 123.5850012  67.0584997 -15.5120012
 124.9880012  66.5794997 -15.8200012 124.2930132  66.6042543 -15.2973711
 124.3500012  64.9814997 -18.1210012 125.0510012  65.0034997 -17.4700012
 124.6530012  64.3534997 -18.7770012 124.4867830  64.8996566 -18.1206289
 131.6660012  65.9014997  -6.8660012 131.0130012  66.5964997  -6.7770012
 132.1310012  66.1114997  -7.6760012 131.6395390  66.0249425  -6.9633117
 127.7020012  66.7334997 -14.2080012 126.9700012  66.9614997 -13.6350012
 128.1500012  66.0194997 -13.7530012 127.6623095  66.6682571 -14.0680881
 127.6000012  64.9074997  -5.1410012 127.6800012  65.6704997  -4.5690012
 126.9980012  65.1864997  -5.8310012 127.5295756  65.0497134  -5.1559411
 119.3480012  67.3634997 -12.3260012 119.0170012  66.9934997 -13.1440012
 119.9360012  66.6934997 -11.9790012 119.3821873  67.2221156 -12.3911898
 120.7140012  70.7914997  -9.6440012 120.6200012  70.2134997 -10.4010012
 121.4440012  70.4204997  -9.1480012 120.7997981  70.6622390  -9.6805835
 119.7140012  66.1324997  -8.6920012 120.2800012  66.2534997  -9.4550012
 120.0330012  66.7694997  -8.0530012 119.8345786  66.2351884  -8.7099960
 126.0230012  71.6354997  -7.9580012 125.7830012  72.2974997  -7.3100012
 125.8250012  70.8014997  -7.5330012 125.9633808  71.6133134  -7.8118476
 120.5940012  70.5314997  -3.9750012 120.2830012  71.3134997  -3.5200012
 119.9440012  70.3784997  -4.6610012 120.4635558  70.6179105  -4.0054129
 126.5730012  65.8954997 -16.5230012 127.1530012  66.0454997 -15.7760012
 126.9870012  66.3664997 -17.2460012 126.7082830  65.9796841 -16.5185866
 117.5140012  66.7294997  -4.7460012 117.5850012  67.3804997  -4.0480012
 116.6240012  66.8324997  -5.0810012 117.4033117  66.8325936  -4.6957300
 124.3000012  72.6324997 -13.0880012 124.7740012  72.9274997 -12.3100012
 123.7370012  73.3704997 -13.3210012 124.2887653  72.7726932 -13.0129864
 118.8340012  72.6034997  -3.2120012 118.8410012  72.4674997  -4.1590012
 117.9180012  72.4854997  -2.9600012 118.7111714  72.5689430  -3.3075334
 130.2720012  57.6454997 -16.7100012 129.3720012  57.7844997 -16.4150012
 130.5240012  58.4764997 -17.1120012 130.1828702  57.7769074 -16.7239795
 118.3380012  66.4334997 -14.7360012 118.0460012  67.2014997 -15.2270012
 117.6640012  65.7734997 -14.8990012 118.2069081  66.4494406 -14.8252660
 131.4610012  72.0114997 -18.3340012 131.5350012  72.9504997 -18.1630012
 132.3670012  71.7064997 -18.3900012 131.5935100  72.0986722 -18.3181881
 114.4310012  68.7964997  -5.9210012 113.9300012  68.7684997  -6.7360012
 114.4360012  67.8904997  -5.6120012 114.3631526  68.6702278  -5.9907128
 114.1810012  71.5764997  -9.0370012 115.1270012  71.4324997  -9.0560012
 114.0690012  72.3604997  -8.5000012 114.2952727  71.6628046  -8.9669928
 132.3790012  72.2424997  -3.3550012 132.3300012  71.2874997  -3.3920012
 131.5520012  72.5104997  -2.9540012 132.2604940  72.1478998  -3.3058625
 123.3580012  71.8164997  -4.4790012 123.4450012  72.6424997  -4.0040012
 122.4940012  71.4864997  -4.2300012 123.2531964  71.8849878  -4.3803451
 123.7720012  75.5884997 -14.6730012 123.6970012  75.4674997 -15.6190012
 123.8050012  76.5384997 -14.5540012 123.7661848  75.7002500 -14.7865166
 117.4250012  74.3774997 -12.8920012 117.5780012  74.0294997 -12.0130012
 116.5750012  74.0214997 -13.1470012 117.3308962  74.2816650 -12.8061660
 126.8740012  74.7424997 -17.6710012 127.2490012  73.9984997 -18.1410012
 126.8780012  74.4724997 -16.7520012 126.9258915  74.6041486 -17.6112176
 126.5430012  74.6684997 -14.9210012 125.6070012  74.7684997 -14.7430012
 126.8230012  73.9594997 -14.3430012 126.4528255  74.5862711 -14.8184609
 129.5310012  63.7354997  -2.8750012 129.1240012  64.2164997  -3.5960012
 129.5720012  62.8304997  -3.1830012 129.4808437  63.6789374  -3.0153317
 116.6800012  70.1194997  -4.8780012 116.8960012  69.7584997  -4.0190012
 115.8250012  69.7454997  -5.0880012 116.5939292  70.0194111  -4.7886614
 119.2990012  58.5894997  -8.8830012 118.4370012  58.5024997  -9.2900012
 119.2760012  59.4454997  -8.4550012 119.1780330  58.6932765  -8.8808137
 123.9620012  58.3114997  -5.5080012 124.3820012  57.8964997  -4.7550012
 123.0290012  58.1334997  -5.3910012 123.8933644  58.2305900  -5.3890461
 127.2880012  62.0674997  -4.6550012 126.7740012  61.9414997  -3.8570012
 127.1330012  62.9794997  -4.8990012 127.1966852  62.1736132  -4.5787842
 128.0510012  66.9284997 -18.8930012 128.0930012  66.7054997 -19.8230012
 128.9000012  67.3274997 -18.7030012 128.1715396  66.9519155 -18.9946373
 123.6230012  60.8044997 -18.2230012 123.3700012  60.8234997 -17.3000012
 123.3670012  59.9324997 -18.5240012 123.5537790  60.6892437 -18.1373737
 119.3900012  63.5554997  -7.7880012 118.7480012  63.5144997  -7.0790012
 119.4270012  64.4814997  -8.0250012 119.3071324  63.6751559  -7.7230176
 119.3870012  63.7764997 -12.8760012 118.4940012  63.4354997 -12.9340012
 119.8370012  63.3994997 -13.6310012 119.3257305  63.6788484 -12.9860823
 124.9220012  64.1924997 -14.0590012 124.5130012  65.0074997 -14.3500012
 125.6430012  64.0524997 -14.6730012 124.9634537  64.2852018 -14.1818658
 124.0240012  64.3674997  -2.5710012 123.4620012  63.6634997  -2.2500012
 124.8510012  64.2474997  -2.1030012 124.0587095  64.2547883  -2.4637670
 125.9270012  63.6384997 -11.2450012 125.7320012  64.2434997 -11.9600012
 126.1080012  62.8044997 -11.6790012 125.9247614  63.6086300 -11.4015595
 117.1400012  63.8754997  -5.9210012 117.1020012  64.2754997  -5.0520012
 116.6490012  63.0584997  -5.8300012 117.0684684  63.8198069  -5.7898941
 120.5060012  61.2494997 -19.1220012 120.0750012  60.8044997 -18.3920012
 119.7880012  61.6214997 -19.6340012 120.3499438  61.2388940 -19.0913201
 113.7480012  60.9914997 -12.0700012 114.3790012  60.9624997 -11.3510012
 114.1970012  60.5664997 -12.8000012 113.8950774  60.9300492 -12.0703447
 115.0220012  61.7374997 -16.6460012 115.4960012  62.3284997 -17.2310012
 114.3050012  62.2684997 -16.2990012 114.9899341  61.8900867 -16.6791164
 125.1910012  65.2764997  -6.5730012 125.5140012  64.6454997  -7.2160012
 124.7510012  64.7414997  -5.9130012 125.1756895  65.1178441  -6.5717150
 121.9680012  61.2034997 -11.7890012 121.0570012  61.2604997 -11.5010012
 122.4740012  61.1434997 -10.9790012 121.9115413  61.2031985 -11.6399378
 116.7970012  62.8324997 -12.9630012 115.9070012  62.9324997 -13.3030012
 117.0930012  61.9904997 -13.3090012 116.7152823  62.7323545 -13.0562787
 120.4500012  62.8324997 -15.3060012 121.3810012  62.9614997 -15.1280012
 120.2350012  63.5024997 -15.9560012 120.5484247  62.9406565 -15.3694253
 126.3730012  60.4384997  -8.5250012 125.6970012  60.5694997  -7.8610012
 125.8880012  60.2834997  -9.3350012 126.2147145  60.4354905  -8.5435483
 119.1240012  64.0274997 -17.7390012 118.5810012  63.6474997 -18.4310012
 119.9570012  64.2214997 -18.1680012 119.1624399  64.0018124 -17.8915474
 129.6610012  76.1104997  -2.2480012 129.8610012  76.5344997  -3.0830012
 130.3160012  76.4534997  -1.6410012 129.7770051  76.2149648  -2.2802164
 117.2590012  68.5844997  -2.6400012 117.9910012  68.8384997  -2.0790012
 116.4790012  68.7884997  -2.1250012 117.2538232  68.6469177  -2.4934240
 123.2880012  63.9914997  -9.9020012 123.8530012  63.4444997 -10.4490012
 123.1410012  63.4694997  -9.1140012 123.3452918  63.8462024  -9.8701546
 118.2900012  60.1274997 -13.4840012 117.9730012  59.2254997 -13.5190012
 119.0720012  60.1294997 -14.0370012 118.3522284  60.0041628 -13.5635217
 121.9150012  62.3794997  -7.4880012 121.0790012  62.8334997  -7.3780012
 122.4390012  62.6554997  -6.7360012 121.8714414  62.4789376  -7.3712864
 122.4590012  68.5924997 -15.8040012 121.7140012  68.0854997 -16.1260012
 122.3250012  68.6414997 -14.8570012 122.3388776  68.5296940 -15.7201353
 129.6090012  67.7254997  -7.0170012 130.2510012  68.1824997  -7.5610012
 128.7790012  67.8384997  -7.4800012 129.5845963  67.8032704  -7.1539823
 126.3570012  61.4064997 -17.6040012 125.4180012  61.5184997 -17.7560012
 126.6540012  62.2634997 -17.2980012 126.2687666  61.5376443 -17.5834232
 123.9780012  68.7764997  -4.5670012 123.6330012  68.3954997  -3.7600012
 123.7780012  69.7104997  -4.4950012 123.9038061  68.8505228  -4.4469039
 127.0750012  63.2734997 -15.9440012 127.9670012  63.1364997 -15.6250012
 127.1320012  64.0644997 -16.4800012 127.2046285  63.3616660 -15.9728310
 117.5840012  67.8874997 -10.0340012 118.3290012  67.8854997 -10.6350012
 117.6620012  67.0644997  -9.5520012 117.6965518  67.7759315 -10.0511071
 124.5850012  70.0514997 -16.7780012 124.2890012  70.8774997 -16.3970012
 123.8820012  69.4314997 -16.5820012 124.4494914  70.0808199 -16.6993557
 114.5920012  66.3484997  -4.7190012 114.8150012  65.9304997  -3.8870012
 113.9900012  65.7354997  -5.1420012 114.5411759  66.2084668  -4.6622978
 121.6080012  65.8654997  -2.5060012 121.3120012  65.6994997  -3.4010012
 122.5400012  65.6454997  -2.5170012 121.6934166  65.8130640  -2.6299464
 126.2290012  71.2384997  -4.6160012 125.3280012  71.4214997  -4.8840012
 126.2630012  71.4974997  -3.6950012 126.1103041  71.2985512  -4.5281803
 131.9600012  63.4834997 -16.2490012 131.4060012  63.0874997 -16.9210012
 132.0600012  64.3934997 -16.5270012 131.8977059  63.5523586 -16.3785599
 131.9230012  69.2834997  -3.4120012 131.0720012  69.5214997  -3.7790012
 132.5140012  69.2664997  -4.1650012 131.8862487  69.3138258  -3.5641107
 130.2550012  72.2694997 -15.7840012 129.8820012  71.4434997 -15.4750012
 130.5330012  72.0864997 -16.6810012 130.2415630  72.1317303 -15.8630374
 127.4160012  67.0774997  -8.7630012 126.4870012  66.8454997  -8.7900012
 127.8670012  66.3004997  -9.0930012 127.3499216  66.9407238  -8.8113083
 119.9590012  71.4054997 -12.6300012 120.4860012  72.1784997 -12.8300012
 119.0790012  71.6304997 -12.9310012 119.9121773  71.5418005 -12.6980990
 115.7140012  66.2674997 -18.0430012 116.3300012  66.8944997 -17.6630012
 114.8520012  66.5834997 -17.7710012 115.6817698  66.3959430 -17.9542817
 121.3860012  69.0684997 -13.0530012 121.1450012  69.9934997 -13.0120012
 120.6450012  68.6094997 -12.6570012 121.2528409  69.1331421 -12.9938623
 121.9010012  73.2174997  -6.7380012 122.2630012  74.0724997  -6.9720012
 122.4320012  72.9254997  -5.9980012 122.0224473  73.2951060  -6.6699145
 120.0690012  74.0904997 -13.5080012 119.1190012  74.1954997 -13.4570012
 120.4210012  74.9104997 -13.1630012 119.9864203  74.2158314 -13.4543350
 125.4450012  69.3164997  -7.0380012 125.0190012  69.0894997  -6.2110012
 126.0250012  68.5784997  -7.2200012 125.4651868  69.1855299  -6.9494170
 127.6480012  70.2454997 -17.9640012 128.0010012  69.8654997 -17.1590012
 126.6990012  70.1524997 -17.8770012 127.5680441  70.1809596 -17.8421441
 128.1030012  73.8684997  -4.5680012 127.5020012  73.3134997  -5.0640012
 128.3850012  74.5354997  -5.1940012 128.0588519  73.8826841  -4.7205048
 132.1510012  74.7254997 -17.7630012 132.8950012  75.3114997 -17.9030012
 131.4570012  75.2934997 -17.4290012 132.1590292  74.8825582 -17.7370039
 116.2260012  61.1014997  -5.1610012 115.3330012  61.4404997  -5.2290012
 116.1270012  60.2464997  -4.7430012 116.0904164  61.0322588  -5.1137765
 128.5140012  68.9184997 -15.7370012 128.2360012  68.1904997 -15.1810012
 129.4410012  69.0374997 -15.5320012 128.6013124  68.8348802 -15.6331155
 115.8770012  72.9064997  -6.7260012 116.0940012  71.9744997  -6.7570012
 116.1230012  73.1804997  -5.8430012 115.9399549  72.8160636  -6.6108237
 121.7390012  71.3574997 -19.5170012 121.9780012  70.6094997 -20.0640012
 121.4700012  70.9694997 -18.6840012 121.7353675  71.2026638 -19.4793135
 120.6760012  70.9274997 -17.0600012 120.8220012  70.4074997 -16.2700012
 120.6730012  71.8344997 -16.7540012 120.6955989  70.9788853 -16.9103912
 117.1290012  68.1804997 -16.5500012 116.4430012  68.5324997 -15.9830012
 117.6510012  68.9434997 -16.7970012 117.1056852  68.3318578 -16.5057882
 124.9600012  60.8424997  -6.2710012 125.6590012  60.9164997  -5.6210012
 124.5790012  59.9784997  -6.1170012 125.0041767  60.7357624  -6.1611678
 125.7450012  60.4944997 -15.1740012 125.9650012  60.9664997 -15.9770012
 126.3030012  60.8894997 -14.5040012 125.8504968  60.6124285 -15.1932669
 123.4130012  72.6254997 -16.3110012 122.5970012  73.1224997 -16.2590012
 123.9430012  73.1004997 -16.9510012 123.3729161  72.7577722 -16.3904044
 122.9450012  62.2224997 -14.3390012 123.7570012  62.7274997 -14.2930012
 122.7000012  62.0774997 -13.4250012 123.0230520  62.2720375 -14.2091483
 123.4800012  63.2084997  -5.1540012 123.5990012  63.7824997  -4.3970012
 124.1360012  62.5204997  -5.0400012 123.5849757  63.1941079  -5.0349175
 123.8280012  59.3034997 -13.4010012 123.4820012  59.9214997 -12.7560012
 124.4870012  59.8044997 -13.8820012 123.8697826  59.4555802 -13.3779029
 120.7520012  73.6694997 -16.3290012 120.9120012  74.4684997 -16.8300012
 120.5540012  73.9754997 -15.4440012 120.7471649  73.8204469 -16.2780185
 119.4860012  60.3664997 -16.7140012 119.4030012  61.2554997 -16.3670012
 120.3760012  60.1014997 -16.4820012 119.5949469  60.4521430 -16.6352374
 129.6850012  61.1154997  -4.3190012 128.7680012  61.3784997  -4.4070012
 130.0200012  61.1124997  -5.2160012 129.6049900  61.1510224  -4.4522081
 128.2870012  64.8664997 -10.2240012 127.4890012  64.4514997 -10.5520012
 128.7320012  64.1754997  -9.7330012 128.2379885  64.7163543 -10.2025111
 117.7450012  70.7944997 -17.6530012 118.3370012  71.4934997 -17.3770012
 118.2040012  70.3614997 -18.3730012 117.8881142  70.8317049 -17.7125170
 116.0610012  63.4584997 -18.5370012 116.0160012  64.3974997 -18.3590012
 115.1730012  63.2224997 -18.8070012 115.9348574  63.5551892 -18.5491088
 129.3730012  74.1224997  -8.6010012 129.2180012  74.8004997  -9.2580012
 130.3060012  74.1944997  -8.3980012 129.4778500  74.2250170  -8.6634881
 116.8690012  58.2404997  -9.8640012 116.6400012  58.2994997 -10.7920012
 116.4260012  57.4484997  -9.5580012 116.7778530  58.1415753  -9.9495214
 115.7990012  72.1804997 -13.7040012 114.9670012  72.6534997 -13.6760012
 116.3450012  72.6904997 -14.3020012 115.7589739  72.3141871 -13.7810284
 115.0870012  74.7934997  -2.3740012 115.6280012  74.5764997  -1.6140012
 114.6060012  73.9874997  -2.5630012 115.0959345  74.6549514  -2.2956924
 119.6850012  73.7124997  -0.7530012 120.4520012  73.2534997  -0.4120012
 119.6630012  73.4864997  -1.6830012 119.7871434  73.6190409  -0.8319957
 123.7770012  73.2204997 -19.3780012 123.1330012  72.5894997 -19.0570012
 124.5390012  72.6894997 -19.6100012 123.7918077  73.0622920 -19.3653989
 126.2620012  72.0924997  -2.0240012 125.9110012  71.2364997  -1.7810012
 126.9880012  72.2354997  -1.4170012 126.3120769  71.9945636  -1.9086381
 128.3810012  73.0374997 -19.1440012 128.6640012  72.2434997 -18.6920012
 129.1210012  73.2704997 -19.7050012 128.5197486  72.9602803 -19.1579302
 114.9940012  68.6034997  -1.4190012 115.1380012  67.7014997  -1.7060012
 114.2220012  68.8894997  -1.9070012 114.9093322  68.5188261  -1.5242119
 119.3360012  68.9474997 -19.2870012 119.4000012  68.1534997 -18.7560012
 119.9890012  68.8284997 -19.9770012 119.4330241  68.8227148 -19.3075683
 121.6500012  68.5734997  -1.9870012 121.3210012  68.8444997  -2.8440012
 121.8020012  67.6324997  -2.0740012 121.6254809  68.4833862  -2.1161756
 127.3840012  68.4894997  -4.6030012 128.1300012  69.0774997  -4.7230012
 126.6270012  69.0714997  -4.5400012 127.3837554  68.6487011  -4.6109093
 115.8270012  65.8034997  -1.9990012 116.2350012  64.9464997  -2.1200012
 115.5670012  65.8184997  -1.0780012 115.8477568  65.6880807  -1.8910412
 120.4850012  66.9194997 -16.9810012 120.0250012  66.4354997 -16.2950012
 120.7400012  66.2514997 -17.6170012 120.4564902  66.7628731 -16.9730666
 119.7740012  64.8124997  -4.6250012 119.1560012  65.4874997  -4.3450012
 120.1180012  65.1334997  -5.4580012 119.7359615  64.9482721  -4.6993419
 121.5560012  65.1624997 -18.7190012 121.3760012  65.0084997 -19.6460012
 122.5060012  65.2704997 -18.6740012 121.6597776  65.1560175 -18.8398157
 124.7940012  67.2844997  -1.3480012 125.7470012  67.3674997  -1.3750012
 124.6330012  66.5724997  -0.7280012 124.9026426  67.1996746  -1.2679421
 130.9460012  67.5174997 -19.2730012 130.6720012  67.0924997 -20.0860012
 130.9850012  68.4484997 -19.4900012 130.9137699  67.5852484 -19.4136390
 120.1130012  62.1674997  -3.5430012 120.2630012  61.4384997  -4.1450012
 120.1160012  62.9444997  -4.1020012 120.1339302  62.1727851  -3.7009308
 120.5260012  60.5374997  -6.0500012 121.0620012  60.9884997  -6.7020012
 119.6740012  60.4294997  -6.4730012 120.4842178  60.5846390  -6.1964244
 122.1080012  65.9764997  -5.8110012 122.8580012  65.8204997  -6.3840012
 121.7690012  66.8284997  -6.0860012 122.1648921  66.0702968  -5.9266439
 126.5230012  63.7914997  -0.7820012 126.7160012  62.8604997  -0.8940012
 127.3810012  64.2164997  -0.7920012 126.6653020  63.7216389  -0.7986639
 127.8400012  66.5804997  -2.7050012 127.5590012  67.2894997  -3.2820012
 128.7830012  66.5074997  -2.8560012 127.9289027  66.6677646  -2.8044449
 118.5920012  63.3654997  -1.6310012 117.8250012  62.8334997  -1.8410012
 119.2710012  63.0554997  -2.2310012 118.5787022  63.2507506  -1.7408352
 121.3320012  57.9934997  -5.6190012 121.2330012  58.9404997  -5.7240012
 120.5890012  57.6214997  -6.0940012 121.2180564  58.0725902  -5.6975440
 122.5960012  62.3154997  -2.0550012 122.3600012  62.0954997  -1.1530012
 121.8120012  62.1084997  -2.5650012 122.4578628  62.2574760  -2.0006068
 125.3110012  61.4424997  -2.9790012 124.3640012  61.4744997  -2.8470012
 125.6240012  60.8174997  -2.3260012 125.2235475  61.3623207  -2.8725545
 126.9450012  60.0764997  -0.9740012 126.8490012  59.1244997  -0.9800012
 126.6240012  60.3454997  -0.1140012 126.8884070  59.9824035  -0.8584559
 116.7720012  61.2864997  -1.9270012 116.9840012  60.5794997  -2.5370012
 116.6610012  60.8484997  -1.0830012 116.7859721  61.1307084  -1.8963157
 121.5530012  57.2874997  -2.9470012 122.2650012  56.6474997  -2.9610012
 121.4520012  57.5544997  -3.8610012 121.6367939  57.2359938  -3.0724350
 121.9070012  58.9704997  -0.8940012 121.7750012  58.4944997  -1.7140012
 121.3080012  59.7144997  -0.9490012 121.8079071  59.0059618  -1.0137114
 121.4530012  75.8534997 -17.7170012 122.3860012  76.0114997 -17.5740012
 121.1890012  76.5284997 -18.3420012 121.5449510  75.9663611 -17.7819259
 115.0220012  70.4894997 -18.2350012 115.9360012  70.5684997 -17.9610012
 115.0290012  69.8024997 -18.9010012 115.1481131  70.4073961 -18.2875607
 113.6710012  75.8824997 -13.1570012 113.0240012  75.4204997 -13.6900012
 114.0250012  75.2104997 -12.5750012 113.6303849  75.7284723 -13.1512041
 114.5410012  73.9634997 -11.3530012 114.2060012  73.0834997 -11.1810012
 114.7630012  74.3084997 -10.4880012 114.5251783  73.8897500 -11.2125792
 132.0890012  74.7724997  -8.3720012 132.0680012  74.9574997  -7.4330012
 132.7800012  75.3414997  -8.7130012 132.1794618  74.8746606  -8.2896136
 131.6530012  74.3404997  -5.4500012 131.1650012  73.6044997  -5.8210012
 132.2020012  73.9464997  -4.7720012 131.6604872  74.1866249  -5.4090840
 130.1030012  70.1294997  -0.8120012 129.2370012  70.0244997  -0.4180012
 130.4800012  70.8884997  -0.3660012 130.0353308  70.2176900  -0.6977607
 131.4040012  68.3864997 -15.2980012 132.2540012  68.8074997 -15.1710012
 131.4100012  67.6464997 -14.6910012 131.5211372  68.3440803 -15.1985656
 131.7990012  66.4394997 -13.4740012 131.0720012  65.9604997 -13.0770012
 132.3800012  66.6454997 -12.7420012 131.7779375  66.4017090 -13.3205871
 131.5580012  69.2244997  -8.5270012 132.3910012  68.8464997  -8.8070012
 131.6700012  70.1674997  -8.6460012 131.6872647  69.3002218  -8.5814513
 130.0440012  72.1024997  -6.2200012 129.3970012  72.4274997  -5.5940012
 129.5270012  71.6624997  -6.8940012 129.8854029  72.0875004  -6.2254173
 132.0670012  66.3404997 -17.0830012 131.5450012  66.6974997 -17.8020012
 132.0340012  67.0154997 -16.4050012 131.9911634  66.4805413 -17.0896855
 130.4160012  63.5804997 -18.5320012 130.5120012  64.2474997 -19.2130012
 130.2760012  62.7644997 -19.0140012 130.4102135  63.5614500 -18.6901509
 129.5850012  64.9604997 -12.9110012 129.4350012  64.0154997 -12.9320012
 129.2320012  65.2414997 -12.0680012 129.5166625  64.8690441 -12.7997654
 114.6210012  67.0384997  -8.9010012 114.8050012  66.9564997  -9.8370012
 115.4700012  66.9144997  -8.4770012 114.7610139  67.0105003  -8.9718545
 130.4420012  66.9304997  -3.2730012 131.0250012  66.1964997  -3.0810012
 131.0060012  67.7024997  -3.2260012 130.5979769  66.9344227  -3.2403841
 131.9380012  64.8334997  -2.5880012 131.0750012  64.4544997  -2.7540012
 132.5430012  64.0944997  -2.6620012 131.9015979  64.6818023  -2.6207183
 129.6630012  60.9884997 -19.4150012 130.2740012  60.6174997 -18.7780012
 128.8270012  60.5674997 -19.2190012 129.6335032  60.8807554 -19.3012965
 129.2960012  62.5434997 -14.4490012 129.5760012  61.6364997 -14.3250012
 130.0550012  62.9774997 -14.8380012 129.4369277  62.4780942 -14.4846318
 129.9080012  63.1244997  -9.0130012 130.8410012  63.3364997  -9.0470012
 129.6730012  63.2264997  -8.0910012 130.0038036  63.1672769  -8.8930024
 129.9370012  63.8614997  -6.2370012 129.0940012  64.1294997  -5.8710012
 130.3790012  64.6834997  -6.4480012 129.8814158  64.0093291  -6.2154509
 114.2180012  62.3094997  -2.7600012 115.1380012  62.1874997  -2.5240012
 113.7690012  61.5594997  -2.3710012 114.2831580  62.1913727  -2.6750994
 132.2200012  57.8414997  -0.8840012 132.5700012  57.1874997  -1.4890012
 132.3670012  58.6784997  -1.3230012 132.2878419  57.8651591  -1.0262882
 129.9090012  59.8064997 -14.4010012 130.0920012  59.3574997 -13.5750012
 129.3100012  59.2214997 -14.8640012 129.8530202  59.6659975 -14.3506725
 115.4390012  60.6214997  -9.8690012 115.8850012  59.8294997  -9.5670012
 115.9060012  61.3374997  -9.4380012 115.5630172  60.6100624  -9.7695180
 113.7430012  63.6204997  -8.8000012 114.2350012  63.3994997  -9.5910012
 114.1060012  64.4614997  -8.5190012 113.8593126  63.7038357  -8.8702469
 131.7400012  59.9504997  -2.5340012 130.8220012  60.2214997  -2.5700012
 131.8630012  59.4154997  -3.3190012 131.6311066  59.9152892  -2.6449513
 131.7760012  59.8734997 -17.8730012 132.1880012  59.1524997 -18.3480012
 132.4580012  60.5434997 -17.8140012 131.9245885  59.8652368 -17.9301085
 114.0570012  59.8784997 -14.7460012 113.1320012  60.0874997 -14.8750012
 114.5110012  60.3624997 -15.4350012 113.9917368  59.9725993 -14.8568774
 128.8280012  74.8624997 -12.8000012 129.4800012  74.5154997 -13.4080012
 129.3380012  75.3514997 -12.1540012 128.9862637  74.8810597 -12.7959764
 114.0210012  58.6164997  -6.4010012 113.3560012  58.3704997  -5.7580012
 113.5780012  59.2384997  -6.9790012 113.8700956  58.6668632  -6.3910648
 116.2130012  71.7914997  -2.2570012 115.3920012  71.9664997  -2.7170012
 115.9600012  71.7184997  -1.3360012 116.0666164  71.8055622  -2.1955077
 119.1670012  72.7664997  -5.9980012 118.7420012  73.5754997  -6.2810012
 120.0710012  72.8514997  -6.3000012 119.2310271  72.8888469  -6.0776224
 123.4780012  74.1654997  -3.0390012 123.6630012  73.8314997  -2.1610012
 124.3240012  74.4744997  -3.3610012 123.6177539  74.1616047  -2.9624395
 125.8230012  75.4514997  -3.7950012 126.5000012  74.8184997  -4.0350012
 126.1450012  75.8524997  -2.9880012 125.9591637  75.4191154  -3.7187207
 130.7400012  58.0404997  -4.7150012 129.9280012  58.3654997  -5.1030012
 130.9730012  57.2804997  -5.2480012 130.6603423  57.9822436  -4.8401747
 116.5690012  76.0224997  -5.9510012 115.8480012  76.4624997  -6.4020012
 116.2030012  75.7714997  -5.1020012 116.4209804  76.0487698  -5.8980160
 119.0360012  75.6224997  -6.9210012 118.1710012  75.6944997  -6.5170012
 118.9810012  76.1694997  -7.7050012 118.9102085  75.7062685  -6.9716638
 123.7460012  75.5104997  -7.7460012 123.2900012  76.0394997  -8.4000012
 123.9090012  76.1134997  -7.0200012 123.7055585  75.6644468  -7.7374938
 126.0740012  74.3884997  -6.8010012 125.1690012  74.5534997  -7.0660012
 126.5030012  75.2414997  -6.8660012 126.0080799  74.5264483  -6.8460818
 128.6780012  75.9584997  -6.5060012 128.4960012  76.8744997  -6.7160012
 128.8550012  75.5484997  -7.3520012 128.6770210  76.0284822  -6.6492115
 115.9830012  74.6454997  -9.0410012 115.9650012  74.2204997  -8.1830012
 116.7880012  74.3274997  -9.4490012 116.0893875  74.5443812  -8.9788345
 118.1250012  73.3554997 -10.3860012 117.9060012  72.4394997 -10.2160012
 118.9490012  73.4954997  -9.9200012 118.2064420  73.2490520 -10.2997226
 120.6620012  73.8254997  -9.5370012 120.8750012  72.9374997  -9.8240012
 120.7260012  73.7914997  -8.5830012 120.6998232  73.6993102  -9.4472603
 124.1700012  59.4894997 -10.3930012 123.4960012  58.8604997 -10.1370012
 124.7340012  59.0054997 -10.9960012 124.1539230  59.3378744 -10.4394660
 129.3130012  57.5974997 -10.2800012 129.9170012  58.1444997 -10.7820012
 128.4430012  57.9164997 -10.5200012 129.2781241  57.7155806 -10.3812346
 131.0400012  58.7354997 -11.9470012 131.6520012  58.2214997 -12.4730012
 131.4220012  59.6134997 -11.9230012 131.1754540  58.7837140 -12.0158170
 116.4970012  58.1234997 -12.5710012 115.7200012  57.8894997 -13.0780012
 117.0270012  57.3264997 -12.5620012 116.4622330  57.9836988 -12.6392258
 115.3330012  57.9214997 -16.7670012 115.7720012  58.5324997 -17.3590012
 114.7000012  58.4594997 -16.2930012 115.3074514  58.0779257 -16.7839070
 121.0760012  58.0504997 -12.7570012 121.9510012  58.4384997 -12.7870012
 120.9400012  57.8354997 -11.8350012 121.1773695  58.0745184 -12.6363560
 126.6330012  58.0804997 -11.1080012 126.7090012  58.1754997 -12.0580012
 126.3580012  57.1724997 -10.9790012 126.6062321  57.9707867 -11.2204921
 127.9860012  58.1064997 -15.4160012 127.2840012  58.7214997 -15.6250012
 127.5420012  57.2684997 -15.2850012 127.8296330  58.0775783 -15.4269672
 115.2340012  73.8694997 -15.8690012 114.5490012  73.8314997 -16.5370012
 115.2380012  74.7824997 -15.5810012 115.1408193  73.9877016 -15.9214716
 117.1940012  59.8374997 -18.3250012 117.6860012  59.2074997 -18.8520012
 117.8180012  60.1334997 -17.6610012 117.3455446  59.7913199 -18.3074020
 122.2200012  60.1304997 -15.8680012 122.3980012  59.4844997 -15.1850012
 122.1670012  60.9644997 -15.4000012 122.2371829  60.1547985 -15.7114060
 124.0990012  75.0794997 -17.4720012 124.9650012  75.4454997 -17.6500012
 123.8520012  74.6394997 -18.2860012 124.1842392  75.0701756 -17.6063711
 130.8080012  74.6424997 -14.7930012 130.6130012  73.8944997 -15.3580012
 130.7690012  75.4004997 -15.3760012 130.7760380  74.6426099 -14.9491616
 116.4550012  58.6374997  -3.0530012 116.0890012  57.8724997  -2.6100012
 117.3680012  58.6664997  -2.7660012 116.5282790  58.5367224  -2.9535930
 118.4280012  57.9884997  -1.5170012 119.3260012  57.7144997  -1.7020012
 118.0410012  57.2454997  -1.0530012 118.4986612  57.8505914  -1.4796357
 117.0520012  74.7894997 -18.8440012 116.7850012  75.0764997 -17.9710012
 117.8240012  74.2434997 -18.6920012 117.1197488  74.7550294 -18.7038950
 126.8490012  57.3204997  -1.3350012 126.9260012  56.8944997  -0.4810012
 127.7430012  57.3344997  -1.6780012 126.9803428  57.2640879  -1.2644690
 130.0250012  73.3934997  -2.6430012 129.2430012  73.2074997  -3.1620012
 129.9530012  74.3224997  -2.4250012 129.9081777  73.4936492  -2.6845952
 144.4310012  67.2794997 -12.6120012 144.5200012  68.2234997 -12.7440012
 143.7930012  67.0044997 -13.2700012 144.3569081  67.3714830 -12.7190386
 143.3640012  66.5344997  -9.1930012 143.3260012  65.8884997  -8.4880012
 143.0420012  66.0684997  -9.9640012 143.3152333  66.3829408  -9.2007022
 135.7330012  66.1494997  -7.6000012 135.7740012  65.5234997  -6.8770012
 136.4360012  66.7734997  -7.4180012 135.8336363  66.1481196  -7.4763956
 136.6560012  70.5994997  -9.0650012 136.2870012  69.7974997  -9.4350012
 137.5970012  70.4304997  -9.0190012 136.7327289  70.4670153  -9.1093684
 133.2660012  64.2594997 -13.6720012 132.8190012  65.1054997 -13.6910012
 132.7050012  63.6794997 -14.1880012 133.1289900  64.2969916 -13.7443199
 133.9770012  66.4214997 -11.5460012 134.1900012  65.6514997 -11.0190012
 134.7150012  66.5104997 -12.1500012 134.1058496  66.3281394 -11.5554700
 144.1820012  74.5784997 -10.6790012 144.8020012  73.9014997 -10.9530012
 143.9740012  74.3604997  -9.7710012 144.2386904  74.4563870 -10.5936635
 141.7540012  68.9674997  -8.7870012 142.0580012  68.2814997  -9.3820012
 142.4750012  69.0854997  -8.1690012 141.8930671  68.8896305  -8.7848184
 144.8950012  63.3614997  -8.4590012 145.0370012  62.4154997  -8.4390012
 144.7880012  63.5684997  -9.3880012 144.8999864  63.2599534  -8.5817661
 138.0490012  61.4624997 -11.1870012 138.0930012  62.3224997 -11.6050012
 137.5920012  60.9104997 -11.8210012 137.9932185  61.5055799 -11.3299701
 134.6700012  63.8594997 -10.4250012 135.3230012  63.3094997  -9.9930012
 134.6940012  63.5854997 -11.3420012 134.7626683  63.7471466 -10.4897877
 139.8260012  65.4094997 -11.2100012 140.4420012  64.8834997 -10.7000012
 139.2400012  64.7694997 -11.6130012 139.8310810  65.2509208 -11.1946827
 136.8600012  60.3804997  -7.1130012 136.6410012  60.9104997  -7.8790012
 136.1920012  60.6074997  -6.4660012 136.7397600  60.4836906  -7.1303621
 144.2290012  69.8804997 -13.5690012 143.9330012  69.5584997 -14.4200012
 143.9040012  70.7804997 -13.5280012 144.1446371  69.9580215 -13.6798199
 139.4290012  68.0564997  -6.8260012 138.6890012  68.6544997  -6.7220012
 140.1430012  68.6104997  -7.1410012 139.4242237  68.2132831  -6.8543535
 136.4530012  62.2724997  -9.1610012 137.0670012  62.9054997  -8.7870012
 136.9650012  61.8004997  -9.8170012 136.6062296  62.2952370  -9.1985748
 137.8360012  70.0204997  -6.0380012 137.8310012  70.9004997  -6.4160012
 136.9830012  69.9374997  -5.6130012 137.7199464  70.1296117  -6.0322093
 133.9570012  69.6914997 -15.2560012 133.6850012  69.9204997 -16.1450012
 134.0030012  70.5294997 -14.7960012 133.9260094  69.8361213 -15.3154303
 140.8860012  57.6864997  -9.6600012 140.7690012  56.7374997  -9.7150012
 140.0310012  58.0184997  -9.3870012 140.7543733  57.6015409  -9.6306103
 143.1530012  66.5234997 -15.1600012 142.4410012  67.0584997 -15.5120012
 143.8440012  66.5794997 -15.8200012 143.1490132  66.6042543 -15.2973711
 143.2060012  64.9814997 -18.1210012 143.9070012  65.0034997 -17.4700012
 143.5090012  64.3534997 -18.7770012 143.3427830  64.8996566 -18.1206289
 138.2040012  67.3634997 -12.3260012 137.8730012  66.9934997 -13.1440012
 138.7920012  66.6934997 -11.9790012 138.2381873  67.2221156 -12.3911898
 139.5700012  70.7914997  -9.6440012 139.4760012  70.2134997 -10.4010012
 140.3000012  70.4204997  -9.1480012 139.6557981  70.6622390  -9.6805835
 138.5700012  66.1324997  -8.6920012 139.1360012  66.2534997  -9.4550012
 138.8890012  66.7694997  -8.0530012 138.6905786  66.2351884  -8.7099960
 144.8790012  71.6354997  -7.9580012 144.6390012  72.2974997  -7.3100012
 144.6810012  70.8014997  -7.5330012 144.8193808  71.6133134  -7.8118476
 139.4500012  70.5314997  -3.9750012 139.1390012  71.3134997  -3.5200012
 138.8000012  70.3784997  -4.6610012 139.3195558  70.6179105  -4.0054129
 136.3700012  66.7294997  -4.7460012 136.4410012  67.3804997  -4.0480012
 135.4800012  66.8324997  -5.0810012 136.2593117  66.8325936  -4.6957300
 143.1560012  72.6324997 -13.0880012 143.6300012  72.9274997 -12.3100012
 142.5930012  73.3704997 -13.3210012 143.1447653  72.7726932 -13.0129864
 137.6900012  72.6034997  -3.2120012 137.6970012  72.4674997  -4.1590012
 136.7740012  72.4854997  -2.9600012 137.5671714  72.5689430  -3.3075334
 137.1940012  66.4334997 -14.7360012 136.9020012  67.2014997 -15.2270012
 136.5200012  65.7734997 -14.8990012 137.0629081  66.4494406 -14.8252660
 133.2870012  68.7964997  -5.9210012 132.7860012  68.7684997  -6.7360012
 133.2920012  67.8904997  -5.6120012 133.2191526  68.6702278  -5.9907128
 133.0370012  71.5764997  -9.0370012 133.9830012  71.4324997  -9.0560012
 132.9250012  72.3604997  -8.5000012 133.1512727  71.6628046  -8.9669928
 142.2140012  71.8164997  -4.4790012 142.3010012  72.6424997  -4.0040012
 141.3500012  71.4864997  -4.2300012 142.1091964  71.8849878  -4.3803451
 142.6280012  75.5884997 -14.6730012 142.5530012  75.4674997 -15.6190012
 142.6610012  76.5384997 -14.5540012 142.6221848  75.7002500 -14.7865166
 136.2810012  74.3774997 -12.8920012 136.4340012  74.0294997 -12.0130012
 135.4310012  74.0214997 -13.1470012 136.1868962  74.2816650 -12.8061660
 135.5360012  70.1194997  -4.8780012 135.7520012  69.7584997  -4.0190012
 134.6810012  69.7454997  -5.0880012 135.4499292  70.0194111  -4.7886614
 138.1550012  58.5894997  -8.8830012 137.2930012  58.5024997  -9.2900012
 138.1320012  59.4454997  -8.4550012 138.0340330  58.6932765  -8.8808137
 142.8180012  58.3114997  -5.5080012 143.2380012  57.8964997  -4.7550012
 141.8850012  58.1334997  -5.3910012 142.7493644  58.2305900  -5.3890461
 142.4790012  60.8044997 -18.2230012 142.2260012  60.8234997 -17.3000012
 142.2230012  59.9324997 -18.5240012 142.4097790  60.6892437 -18.1373737
 138.2460012  63.5554997  -7.7880012 137.6040012  63.5144997  -7.0790012
 138.2830012  64.4814997  -8.0250012 138.1631324  63.6751559  -7.7230176
 138.2430012  63.7764997 -12.8760012 137.3500012  63.4354997 -12.9340012
 138.6930012  63.3994997 -13.6310012 138.1817305  63.6788484 -12.9860823
 143.7780012  64.1924997 -14.0590012 143.3690012  65.0074997 -14.3500012
 144.4990012  64.0524997 -14.6730012 143.8194537  64.2852018 -14.1818658
 142.8800012  64.3674997  -2.5710012 142.3180012  63.6634997  -2.2500012
 143.7070012  64.2474997  -2.1030012 142.9147095  64.2547883  -2.4637670
 144.7830012  63.6384997 -11.2450012 144.5880012  64.2434997 -11.9600012
 144.9640012  62.8044997 -11.6790012 144.7807614  63.6086300 -11.4015595
 135.9960012  63.8754997  -5.9210012 135.9580012  64.2754997  -5.0520012
 135.5050012  63.0584997  -5.8300012 135.9244684  63.8198069  -5.7898941
 139.3620012  61.2494997 -19.1220012 138.9310012  60.8044997 -18.3920012
 138.6440012  61.6214997 -19.6340012 139.2059438  61.2388940 -19.0913201
 132.6040012  60.9914997 -12.0700012 133.2350012  60.9624997 -11.3510012
 133.0530012  60.5664997 -12.8000012 132.7510774  60.9300492 -12.0703447
 133.8780012  61.7374997 -16.6460012 134.3520012  62.3284997 -17.2310012
 133.1610012  62.2684997 -16.2990012 133.8459341  61.8900867 -16.6791164
 144.0470012  65.2764997  -6.5730012 144.3700012  64.6454997  -7.2160012
 143.6070012  64.7414997  -5.9130012 144.0316895  65.1178440  -6.5717150
 140.8240012  61.2034997 -11.7890012 139.9130012  61.2604997 -11.5010012
 141.3300012  61.1434997 -10.9790012 140.7675413  61.2031985 -11.6399378
 135.6530012  62.8324997 -12.9630012 134.7630012  62.9324997 -13.3030012
 135.9490012  61.9904997 -13.3090012 135.5712823  62.7323545 -13.0562787
 139.3060012  62.8324997 -15.3060012 140.2370012  62.9614997 -15.1280012
 139.0910012  63.5024997 -15.9560012 139.4044247  62.9406565 -15.3694253
 137.9800012  64.0274997 -17.7390012 137.4370012  63.6474997 -18.4310012
 138.8130012  64.2214997 -18.1680012 138.0184399  64.0018124 -17.8915474
 136.1150012  68.5844997  -2.6400012 136.8470012  68.8384997  -2.0790012
 135.3350012  68.7884997  -2.1250012 136.1098232  68.6469177  -2.4934240
 142.1440012  63.9914997  -9.9020012 142.7090012  63.4444997 -10.4490012
 141.9970012  63.4694997  -9.1140012 142.2012918  63.8462024  -9.8701546
 137.1460012  60.1274997 -13.4840012 136.8290012  59.2254997 -13.5190012
 137.9280012  60.1294997 -14.0370012 137.2082284  60.0041628 -13.5635217
 140.7710012  62.3794997  -7.4880012 139.9350012  62.8334997  -7.3780012
 141.2950012  62.6554997  -6.7360012 140.7274414  62.4789376  -7.3712864
 141.3150012  68.5924997 -15.8040012 140.5700012  68.0854997 -16.1260012
 141.1810012  68.6414997 -14.8570012 141.1948776  68.5296940 -15.7201353
 142.8340012  68.7764997  -4.5670012 142.4890012  68.3954997  -3.7600012
 142.6340012  69.7104997  -4.4950012 142.7598061  68.8505228  -4.4469039
 136.4400012  67.8874997 -10.0340012 137.1850012  67.8854997 -10.6350012
 136.5180012  67.0644997  -9.5520012 136.5525518  67.7759315 -10.0511071
 143.4410012  70.0514997 -16.7780012 143.1450012  70.8774997 -16.3970012
 142.7380012  69.4314997 -16.5820012 143.3054914  70.0808199 -16.6993557
 133.4480012  66.3484997  -4.7190012 133.6710012  65.9304997  -3.8870012
 132.8460012  65.7354997  -5.1420012 133.3971759  66.2084668  -4.6622978
 140.4640012  65.8654997  -2.5060012 140.1680012  65.6994997  -3.4010012
 141.3960012  65.6454997  -2.5170012 140.5494166  65.8130640  -2.6299464
 138.8150012  71.4054997 -12.6300012 139.3420012  72.1784997 -12.8300012
 137.9350012  71.6304997 -12.9310012 138.7681773  71.5418005 -12.6980990
 134.5700012  66.2674997 -18.0430012 135.1860012  66.8944997 -17.6630012
 133.7080012  66.5834997 -17.7710012 134.5377698  66.3959430 -17.9542817
 140.2420012  69.0684997 -13.0530012 140.0010012  69.9934997 -13.0120012
 139.5010012  68.6094997 -12.6570012 140.1088409  69.1331421 -12.9938623
 140.7570012  73.2174997  -6.7380012 141.1190012  74.0724997  -6.9720012
 141.2880012  72.9254997  -5.9980012 140.8784473  73.2951060  -6.6699145
 138.9250012  74.0904997 -13.5080012 137.9750012  74.1954997 -13.4570012
 139.2770012  74.9104997 -13.1630012 138.8424203  74.2158314 -13.4543350
 144.3010012  69.3164997  -7.0380012 143.8750012  69.0894997  -6.2110012
 144.8810012  68.5784997  -7.2200012 144.3211868  69.1855299  -6.9494170
 135.0820012  61.1014997  -5.1610012 134.1890012  61.4404997  -5.2290012
 134.9830012  60.2464997  -4.7430012 134.9464164  61.0322588  -5.1137765
 134.7330012  72.9064997  -6.7260012 134.9500012  71.9744997  -6.7570012
 134.9790012  73.1804997  -5.8430012 134.7959549  72.8160636  -6.6108237
 140.5950012  71.3574997 -19.5170012 140.8340012  70.6094997 -20.0640012
 140.3260012  70.9694997 -18.6840012 140.5913675  71.2026638 -19.4793135
 139.5320012  70.9274997 -17.0600012 139.6780012  70.4074997 -16.2700012
 139.5290012  71.8344997 -16.7540012 139.5515989  70.9788853 -16.9103912
 135.9850012  68.1804997 -16.5500012 135.2990012  68.5324997 -15.9830012
 136.5070012  68.9434997 -16.7970012 135.9616852  68.3318578 -16.5057882
 143.8160012  60.8424997  -6.2710012 144.5150012  60.9164997  -5.6210012
 143.4350012  59.9784997  -6.1170012 143.8601767  60.7357624  -6.1611678
 144.6010012  60.4944997 -15.1740012 144.8210012  60.9664997 -15.9770012
 145.1590012  60.8894997 -14.5040012 144.7064968  60.6124285 -15.1932669
 142.2690012  72.6254997 -16.3110012 141.4530012  73.1224997 -16.2590012
 142.7990012  73.1004997 -16.9510012 142.2289161  72.7577722 -16.3904044
 141.8010012  62.2224997 -14.3390012 142.6130012  62.7274997 -14.2930012
 141.5560012  62.0774997 -13.4250012 141.8790520  62.2720375 -14.2091483
 142.3360012  63.2084997  -5.1540012 142.4550012  63.7824997  -4.3970012
 142.9920012  62.5204997  -5.0400012 142.4409757  63.1941079  -5.0349175
 142.6840012  59.3034997 -13.4010012 142.3380012  59.9214997 -12.7560012
 143.3430012  59.8044997 -13.8820012 142.7257826  59.4555802 -13.3779029
 139.6080012  73.6694997 -16.3290012 139.7680012  74.4684997 -16.8300012
 139.4100012  73.9754997 -15.4440012 139.6031649  73.8204469 -16.2780185
 138.3420012  60.3664997 -16.7140012 138.2590012  61.2554997 -16.3670012
 139.2320012  60.1014997 -16.4820012 138.4509469  60.4521430 -16.6352374
 136.6010012  70.7944997 -17.6530012 137.1930012  71.4934997 -17.3770012
 137.0600012  70.3614997 -18.3730012 136.7441142  70.8317049 -17.7125170
 134.9170012  63.4584997 -18.5370012 134.8720012  64.3974997 -18.3590012
 134.0290012  63.2224997 -18.8070012 134.7908574  63.5551892 -18.5491088
 135.7250012  58.2404997  -9.8640012 135.4960012  58.2994997 -10.7920012
 135.2820012  57.4484997  -9.5580012 135.6338530  58.1415753  -9.9495214
 134.6550012  72.1804997 -13.7040012 133.8230012  72.6534997 -13.6760012
 135.2010012  72.6904997 -14.3020012 134.6149739  72.3141871 -13.7810284
 133.9430012  74.7934997  -2.3740012 134.4840012  74.5764997  -1.6140012
 133.4620012  73.9874997  -2.5630012 133.9519345  74.6549514  -2.2956924
 138.5410012  73.7124997  -0.7530012 139.3080012  73.2534997  -0.4120012
 138.5190012  73.4864997  -1.6830012 138.6431434  73.6190409  -0.8319957
 142.6330012  73.2204997 -19.3780012 141.9890012  72.5894997 -19.0570012
 143.3950012  72.6894997 -19.6100012 142.6478077  73.0622920 -19.3653989
 133.8500012  68.6034997  -1.4190012 133.9940012  67.7014997  -1.7060012
 133.0780012  68.8894997  -1.9070012 133.7653322  68.5188261  -1.5242119
 138.1920012  68.9474997 -19.2870012 138.2560012  68.1534997 -18.7560012
 138.8450012  68.8284997 -19.9770012 138.2890241  68.8227148 -19.3075683
 140.5060012  68.5734997  -1.9870012 140.1770012  68.8444997  -2.8440012
 140.6580012  67.6324997  -2.0740012 140.4814809  68.4833862  -2.1161756
 134.6830012  65.8034997  -1.9990012 135.0910012  64.9464997  -2.1200012
 134.4230012  65.8184997  -1.0780012 134.7037568  65.6880807  -1.8910412
 139.3410012  66.9194997 -16.9810012 138.8810012  66.4354997 -16.2950012
 139.5960012  66.2514997 -17.6170012 139.3124902  66.7628731 -16.9730666
 138.6300012  64.8124997  -4.6250012 138.0120012  65.4874997  -4.3450012
 138.9740012  65.1334997  -5.4580012 138.5919615  64.9482721  -4.6993419
 140.4120012  65.1624997 -18.7190012 140.2320012  65.0084997 -19.6460012
 141.3620012  65.2704997 -18.6740012 140.5157776  65.1560175 -18.8398157
 143.6500012  67.2844997  -1.3480012 144.6030012  67.3674997  -1.3750012
 143.4890012  66.5724997  -0.7280012 143.7586426  67.1996746  -1.2679421
 138.9690012  62.1674997  -3.5430012 139.1190012  61.4384997  -4.1450012
 138.9720012  62.9444997  -4.1020012 138.9899302  62.1727851  -3.7009308
 139.3820012  60.5374997  -6.0500012 139.9180012  60.9884997  -6.7020012
 138.5300012  60.4294997  -6.4730012 139.3402178  60.5846390  -6.1964244
 140.9640012  65.9764997  -5.8110012 141.7140012  65.8204997  -6.3840012
 140.6250012  66.8284997  -6.0860012 141.0208921  66.0702968  -5.9266439
 137.4480012  63.3654997  -1.6310012 136.6810012  62.8334997  -1.8410012
 138.1270012  63.0554997  -2.2310012 137.4347022  63.2507506  -1.7408352
 140.1880012  57.9934997  -5.6190012 140.0890012  58.9404997  -5.7240012
 139.4450012  57.6214997  -6.0940012 140.0740564  58.0725902  -5.6975440
 141.4520012  62.3154997  -2.0550012 141.2160012  62.0954997  -1.1530012
 140.6680012  62.1084997  -2.5650012 141.3138628  62.2574760  -2.0006068
 144.1670012  61.4424997  -2.9790012 143.2200012  61.4744997  -2.8470012
 144.4800012  60.8174997  -2.3260012 144.0795475  61.3623207  -2.8725545
 135.6280012  61.2864997  -1.9270012 135.8400012  60.5794997  -2.5370012
 135.5170012  60.8484997  -1.0830012 135.6419721  61.1307084  -1.8963157
 140.4090012  57.2874997  -2.9470012 141.1210012  56.6474997  -2.9610012
 140.3080012  57.5544997  -3.8610012 140.4927939  57.2359938  -3.0724350
 140.7630012  58.9704997  -0.8940012 140.6310012  58.4944997  -1.7140012
 140.1640012  59.7144997  -0.9490012 140.6639071  59.0059618  -1.0137114
 140.3090012  75.8534997 -17.7170012 141.2420012  76.0114997 -17.5740012
 140.0450012  76.5284997 -18.3420012 140.4009510  75.9663611 -17.7819259
 133.8780012  70.4894997 -18.2350012 134.7920012  70.5684997 -17.9610012
 133.8850012  69.8024997 -18.9010012 134.0041131  70.4073961 -18.2875607
 132.5270012  75.8824997 -13.1570012 131.8800012  75.4204997 -13.6900012
 132.8810012  75.2104997 -12.5750012 132.4863849  75.7284723 -13.1512041
 133.3970012  73.9634997 -11.3530012 133.0620012  73.0834997 -11.1810012
 133.6190012  74.3084997 -10.4880012 133.3811783  73.8897500 -11.2125792
 133.4770012  67.0384997  -8.9010012 133.6610012  66.9564997  -9.8370012
 134.3260012  66.9144997  -8.4770012 133.6170139  67.0105003  -8.9718545
 133.0740012  62.3094997  -2.7600012 133.9940012  62.1874997  -2.5240012
 132.6250012  61.5594997  -2.3710012 133.1391580  62.1913727  -2.6750994
 134.2950012  60.6214997  -9.8690012 134.7410012  59.8294997  -9.5670012
 134.7620012  61.3374997  -9.4380012 134.4190172  60.6100624  -9.7695180
 132.5990012  63.6204997  -8.8000012 133.0910012  63.3994997  -9.5910012
 132.9620012  64.4614997  -8.5190012 132.7153126  63.7038357  -8.8702469
 132.9130012  59.8784997 -14.7460012 131.9880012  60.0874997 -14.8750012
 133.3670012  60.3624997 -15.4350012 132.8477368  59.9725993 -14.8568774
 132.8770012  58.6164997  -6.4010012 132.2120012  58.3704997  -5.7580012
 132.4340012  59.2384997  -6.9790012 132.7260956  58.6668632  -6.3910648
 135.0690012  71.7914997  -2.2570012 134.2480012  71.9664997  -2.7170012
 134.8160012  71.7184997  -1.3360012 134.9226164  71.8055622  -2.1955077
 138.0230012  72.7664997  -5.9980012 137.5980012  73.5754997  -6.2810012
 138.9270012  72.8514997  -6.3000012 138.0870271  72.8888469  -6.0776224
 142.3340012  74.1654997  -3.0390012 142.5190012  73.8314997  -2.1610012
 143.1800012  74.4744997  -3.3610012 142.4737539  74.1616047  -2.9624395
 144.6790012  75.4514997  -3.7950012 145.3560012  74.8184997  -4.0350012
 145.0010012  75.8524997  -2.9880012 144.8151637  75.4191154  -3.7187207
 135.4250012  76.0224997  -5.9510012 134.7040012  76.4624997  -6.4020012
 135.0590012  75.7714997  -5.1020012 135.2769804  76.0487698  -5.8980160
 137.8920012  75.6224997  -6.9210012 137.0270012  75.6944997  -6.5170012
 137.8370012  76.1694997  -7.7050012 137.7662085  75.7062685  -6.9716638
 142.6020012  75.5104997  -7.7460012 142.1460012  76.0394997  -8.4000012
 142.7650012  76.1134997  -7.0200012 142.5615585  75.6644468  -7.7374938
 134.8390012  74.6454997  -9.0410012 134.8210012  74.2204997  -8.1830012
 135.6440012  74.3274997  -9.4490012 134.9453875  74.5443812  -8.9788345
 136.9810012  73.3554997 -10.3860012 136.7620012  72.4394997 -10.2160012
 137.8050012  73.4954997  -9.9200012 137.0624420  73.2490520 -10.2997226
 139.5180012  73.8254997  -9.5370012 139.7310012  72.9374997  -9.8240012
 139.5820012  73.7914997  -8.5830012 139.5558232  73.6993102  -9.4472603
 143.0260012  59.4894997 -10.3930012 142.3520012  58.8604997 -10.1370012
 143.5900012  59.0054997 -10.9960012 143.0099230  59.3378744 -10.4394660
 135.3530012  58.1234997 -12.5710012 134.5760012  57.8894997 -13.0780012
 135.8830012  57.3264997 -12.5620012 135.3182330  57.9836988 -12.6392258
 134.1890012  57.9214997 -16.7670012 134.6280012  58.5324997 -17.3590012
 133.5560012  58.4594997 -16.2930012 134.1634514  58.0779257 -16.7839070
 139.9320012  58.0504997 -12.7570012 140.8070012  58.4384997 -12.7870012
 139.7960012  57.8354997 -11.8350012 140.0333695  58.0745184 -12.6363560
 134.0900012  73.8694997 -15.8690012 133.4050012  73.8314997 -16.5370012
 134.0940012  74.7824997 -15.5810012 133.9968193  73.9877016 -15.9214716
 136.0500012  59.8374997 -18.3250012 136.5420012  59.2074997 -18.8520012
 136.6740012  60.1334997 -17.6610012 136.2015446  59.7913199 -18.3074020
 141.0760012  60.1304997 -15.8680012 141.2540012  59.4844997 -15.1850012
 141.0230012  60.9644997 -15.4000012 141.0931829  60.1547985 -15.7114060
 142.9550012  75.0794997 -17.4720012 143.8210012  75.4454997 -17.6500012
 142.7080012  74.6394997 -18.2860012 143.0402392  75.0701756 -17.6063711
 135.3110012  58.6374997  -3.0530012 134.9450012  57.8724997  -2.6100012
 136.2240012  58.6664997  -2.7660012 135.3842790  58.5367224  -2.9535930
 137.2840012  57.9884997  -1.5170012 138.1820012  57.7144997  -1.7020012
 136.8970012  57.2454997  -1.0530012 137.3546612  57.8505914  -1.4796357
 135.9080012  74.7894997 -18.8440012 135.6410012  75.0764997 -17.9710012
 136.6800012  74.2434997 -18.6920012 135.9757488  74.7550294 -18.7038950
  12.4390012  86.1354997 -12.6120012  12.5280012  87.0794997 -12.7440012
  11.8010012  85.8604997 -13.2700012  12.3649081  86.2274830 -12.7190386
  11.3720012  85.3904997  -9.1930012  11.3340012  84.7444997  -8.4880012
  11.0500012  84.9244997  -9.9640012  11.3232333  85.2389408  -9.2007022
   3.7410012  85.0054997  -7.6000012   3.7820012  84.3794997  -6.8770012
   4.4440012  85.6294997  -7.4180012   3.8416363  85.0041196  -7.4763956
  15.0780012  88.3294997 -10.8920012  14.6380012  87.6094997 -10.4410012
  15.0650012  89.0504997 -10.2620012  15.0160226  88.3283731 -10.7451506
   4.6640012  89.4554997  -9.0650012   4.2950012  88.6534997  -9.4350012
   5.6050012  89.2864997  -9.0190012   4.7407289  89.3230153  -9.1093684
   1.2740012  83.1154997 -13.6720012   0.8270012  83.9614997 -13.6910012
   0.7130012  82.5354997 -14.1880012   1.1369900  83.1529916 -13.7443199
   1.9850012  85.2774997 -11.5460012   2.1980012  84.5074997 -11.0190012
   2.7230012  85.3664997 -12.1500012   2.1138496  85.1841394 -11.5554700
  12.1900012  93.4344997 -10.6790012  12.8100012  92.7574997 -10.9530012
  11.9820012  93.2164997  -9.7710012  12.2466904  93.3123870 -10.5936635
   9.7620012  87.8234997  -8.7870012  10.0660012  87.1374997  -9.3820012
  10.4830012  87.9414997  -8.1690012   9.9010671  87.7456305  -8.7848184
  18.4250012  79.4244997  -7.9260012  18.4740012  80.0344997  -7.1900012
  18.8500012  79.8854997  -8.6490012  18.4891824  79.5703741  -7.9229795
  12.9030012  82.2174997  -8.4590012  13.0450012  81.2714997  -8.4390012
  12.7960012  82.4244997  -9.3880012  12.9079864  82.1159534  -8.5817661
   6.0570012  80.3184997 -11.1870012   6.1010012  81.1784997 -11.6050012
   5.6000012  79.7664997 -11.8210012   6.0012185  80.3615799 -11.3299701
  13.7800012  80.4494997 -12.7860012  14.4260012  80.1204997 -12.1610012
  14.2900012  80.9674997 -13.4090012  13.9374264  80.4744611 -12.7846138
   2.6780012  82.7154997 -10.4250012   3.3310012  82.1654997  -9.9930012
   2.7020012  82.4414997 -11.3420012   2.7706683  82.6031466 -10.4897877
   7.8340012  84.2654997 -11.2100012   8.4500012  83.7394997 -10.7000012
   7.2480012  83.6254997 -11.6130012   7.8390810  84.1069208 -11.1946827
  18.8160012  80.9024997  -5.6900012  18.1280012  81.5604997  -5.7860012
  18.8320012  80.7054997  -4.7540012  18.7238525  80.9660462  -5.5765192
   4.8680012  79.2364997  -7.1130012   4.6490012  79.7664997  -7.8790012
   4.2000012  79.4634997  -6.4660012   4.7477600  79.3396906  -7.1303621
  12.2370012  88.7364997 -13.5690012  11.9410012  88.4144997 -14.4200012
  11.9120012  89.6364997 -13.5280012  12.1526371  88.8140215 -13.6798199
   7.4370012  86.9124997  -6.8260012   6.6970012  87.5104997  -6.7220012
   8.1510012  87.4664997  -7.1410012   7.4322237  87.0692831  -6.8543535
  15.5440012  79.7404997 -10.8060012  15.3280012  78.9744997 -10.2730012
  16.1990012  80.2124997 -10.2930012  15.6030632  79.6995889 -10.6637139
   4.4610012  81.1284997  -9.1610012   5.0750012  81.7614997  -8.7870012
   4.9730012  80.6564997  -9.8170012   4.6142296  81.1512370  -9.1985748
   5.8440012  88.8764997  -6.0380012   5.8390012  89.7564997  -6.4160012
   4.9910012  88.7934997  -5.6130012   5.7279464  88.9856117  -6.0322093
   1.9650012  88.5474997 -15.2560012   1.6930012  88.7764997 -16.1450012
   2.0110012  89.3854997 -14.7960012   1.9340094  88.6921213 -15.3154303
  15.5900012  90.1694997  -8.5440012  14.6490012  90.2274997  -8.3820012
  15.8670012  91.0754997  -8.6810012  15.4984679  90.2999443  -8.5403185
  15.8910012  78.4554997  -7.1260012  15.1550012  79.0664997  -7.1640012
  16.5740012  78.8704997  -7.6530012  15.8826541  78.5951374  -7.2024168
   8.8940012  76.5424997  -9.6600012   8.7770012  75.5934997  -9.7150012
   8.0390012  76.8744997  -9.3870012   8.7623733  76.4575409  -9.6306103
  13.8420012  91.9504997 -11.9180012  14.2680012  91.2434997 -12.4030012
  14.1590012  92.7514997 -12.3350012  13.9431019  91.9620994 -12.0406870
  15.0020012  89.8514997 -13.4100012  14.7440012  89.1614997 -14.0210012
  15.0730012  89.4084997 -12.5640012  14.9762856  89.6972124 -13.3793115
  16.6880012  88.4174997  -4.9320012  16.8280012  87.8264997  -5.6720012
  16.8550012  89.2904997  -5.2890012  16.7296778  88.4546426  -5.0813035
  11.1610012  85.3794997 -15.1600012  10.4490012  85.9144997 -15.5120012
  11.8520012  85.4354997 -15.8200012  11.1570132  85.4602543 -15.2973711
  11.2140012  83.8374997 -18.1210012  11.9150012  83.8594997 -17.4700012
  11.5170012  83.2094997 -18.7770012  11.3507830  83.7556566 -18.1206289
  18.5300012  84.7574997  -6.8660012  17.8770012  85.4524997  -6.7770012
  18.9950012  84.9674997  -7.6760012  18.5035390  84.8809425  -6.9633117
  14.5660012  85.5894997 -14.2080012  13.8340012  85.8174997 -13.6350012
  15.0140012  84.8754997 -13.7530012  14.5263095  85.5242571 -14.0680881
  14.4640012  83.7634997  -5.1410012  14.5440012  84.5264997  -4.5690012
  13.8620012  84.0424997  -5.8310012  14.3935756  83.9057134  -5.1559411
   6.2120012  86.2194997 -12.3260012   5.8810012  85.8494997 -13.1440012
   6.8000012  85.5494997 -11.9790012   6.2461873  86.0781156 -12.3911898
   7.5780012  89.6474997  -9.6440012   7.4840012  89.0694997 -10.4010012
   8.3080012  89.2764997  -9.1480012   7.6637981  89.5182390  -9.6805835
   6.5780012  84.9884997  -8.6920012   7.1440012  85.1094997  -9.4550012
   6.8970012  85.6254997  -8.0530012   6.6985786  85.0911884  -8.7099960
  12.8870012  90.4914997  -7.9580012  12.6470012  91.1534997  -7.3100012
  12.6890012  89.6574997  -7.5330012  12.8273808  90.4693134  -7.8118476
   7.4580012  89.3874997  -3.9750012   7.1470012  90.1694997  -3.5200012
   6.8080012  89.2344997  -4.6610012   7.3275558  89.4739105  -4.0054129
  13.4370012  84.7514997 -16.5230012  14.0170012  84.9014997 -15.7760012
  13.8510012  85.2224997 -17.2460012  13.5722830  84.8356841 -16.5185866
   4.3780012  85.5854997  -4.7460012   4.4490012  86.2364997  -4.0480012
   3.4880012  85.6884997  -5.0810012   4.2673117  85.6885936  -4.6957300
  11.1640012  91.4884997 -13.0880012  11.6380012  91.7834997 -12.3100012
  10.6010012  92.2264997 -13.3210012  11.1527653  91.6286932 -13.0129864
   5.6980012  91.4594997  -3.2120012   5.7050012  91.3234997  -4.1590012
   4.7820012  91.3414997  -2.9600012   5.5751714  91.4249430  -3.3075334
  17.1360012  76.5014997 -16.7100012  16.2360012  76.6404997 -16.4150012
  17.3880012  77.3324997 -17.1120012  17.0468702  76.6329074 -16.7239795
   5.2020012  85.2894997 -14.7360012   4.9100012  86.0574997 -15.2270012
   4.5280012  84.6294997 -14.8990012   5.0709081  85.3054406 -14.8252660
  18.3250012  90.8674997 -18.3340012  18.3990012  91.8064997 -18.1630012
  19.2310012  90.5624997 -18.3900012  18.4575100  90.9546722 -18.3181881
   1.2950012  87.6524997  -5.9210012   0.7940012  87.6244997  -6.7360012
   1.3000012  86.7464997  -5.6120012   1.2271526  87.5262278  -5.9907128
   1.0450012  90.4324997  -9.0370012   1.9910012  90.2884997  -9.0560012
   0.9330012  91.2164997  -8.5000012   1.1592727  90.5188046  -8.9669928
  19.2430012  91.0984997  -3.3550012  19.1940012  90.1434997  -3.3920012
  18.4160012  91.3664997  -2.9540012  19.1244940  91.0038998  -3.3058625
  10.2220012  90.6724997  -4.4790012  10.3090012  91.4984997  -4.0040012
   9.3580012  90.3424997  -4.2300012  10.1171964  90.7409878  -4.3803451
  10.6360012  94.4444997 -14.6730012  10.5610012  94.3234997 -15.6190012
  10.6690012  95.3944997 -14.5540012  10.6301848  94.5562500 -14.7865166
   4.2890012  93.2334997 -12.8920012   4.4420012  92.8854997 -12.0130012
   3.4390012  92.8774997 -13.1470012   4.1948962  93.1376650 -12.8061660
  13.7380012  93.5984997 -17.6710012  14.1130012  92.8544997 -18.1410012
  13.7420012  93.3284997 -16.7520012  13.7898915  93.4601486 -17.6112176
  13.4070012  93.5244997 -14.9210012  12.4710012  93.6244997 -14.7430012
  13.6870012  92.8154997 -14.3430012  13.3168255  93.4422711 -14.8184609
  16.3950012  82.5914997  -2.8750012  15.9880012  83.0724997  -3.5960012
  16.4360012  81.6864997  -3.1830012  16.3448437  82.5349374  -3.0153317
   3.5440012  88.9754997  -4.8780012   3.7600012  88.6144997  -4.0190012
   2.6890012  88.6014997  -5.0880012   3.4579292  88.8754111  -4.7886614
   6.1630012  77.4454997  -8.8830012   5.3010012  77.3584997  -9.2900012
   6.1400012  78.3014997  -8.4550012   6.0420330  77.5492765  -8.8808137
  10.8260012  77.1674997  -5.5080012  11.2460012  76.7524997  -4.7550012
   9.8930012  76.9894997  -5.3910012  10.7573644  77.0865900  -5.3890461
  14.1520012  80.9234997  -4.6550012  13.6380012  80.7974997  -3.8570012
  13.9970012  81.8354997  -4.8990012  14.0606852  81.0296132  -4.5787842
  14.9150012  85.7844997 -18.8930012  14.9570012  85.5614997 -19.8230012
  15.7640012  86.1834997 -18.7030012  15.0355396  85.8079155 -18.9946373
  10.4870012  79.6604997 -18.2230012  10.2340012  79.6794997 -17.3000012
  10.2310012  78.7884997 -18.5240012  10.4177790  79.5452437 -18.1373737
   6.2540012  82.4114997  -7.7880012   5.6120012  82.3704997  -7.0790012
   6.2910012  83.3374997  -8.0250012   6.1711324  82.5311559  -7.7230176
   6.2510012  82.6324997 -12.8760012   5.3580012  82.2914997 -12.9340012
   6.7010012  82.2554997 -13.6310012   6.1897305  82.5348484 -12.9860823
  11.7860012  83.0484997 -14.0590012  11.3770012  83.8634997 -14.3500012
  12.5070012  82.9084997 -14.6730012  11.8274537  83.1412018 -14.1818658
  10.8880012  83.2234997  -2.5710012  10.3260012  82.5194997  -2.2500012
  11.7150012  83.1034997  -2.1030012  10.9227095  83.1107883  -2.4637670
  12.7910012  82.4944997 -11.2450012  12.5960012  83.0994997 -11.9600012
  12.9720012  81.6604997 -11.6790012  12.7887614  82.4646300 -11.4015595
   4.0040012  82.7314997  -5.9210012   3.9660012  83.1314997  -5.0520012
   3.5130012  81.9144997  -5.8300012   3.9324684  82.6758069  -5.7898941
   7.3700012  80.1054997 -19.1220012   6.9390012  79.6604997 -18.3920012
   6.6520012  80.4774997 -19.6340012   7.2139438  80.0948940 -19.0913201
   0.6120012  79.8474997 -12.0700012   1.2430012  79.8184997 -11.3510012
   1.0610012  79.4224997 -12.8000012   0.7590774  79.7860492 -12.0703447
   1.8860012  80.5934997 -16.6460012   2.3600012  81.1844997 -17.2310012
   1.1690012  81.1244997 -16.2990012   1.8539341  80.7460867 -16.6791164
  12.0550012  84.1324997  -6.5730012  12.3780012  83.5014997  -7.2160012
  11.6150012  83.5974997  -5.9130012  12.0396895  83.9738441  -6.5717150
   8.8320012  80.0594997 -11.7890012   7.9210012  80.1164997 -11.5010012
   9.3380012  79.9994997 -10.9790012   8.7755413  80.0591985 -11.6399378
   3.6610012  81.6884997 -12.9630012   2.7710012  81.7884997 -13.3030012
   3.9570012  80.8464997 -13.3090012   3.5792823  81.5883546 -13.0562787
   7.3140012  81.6884997 -15.3060012   8.2450012  81.8174997 -15.1280012
   7.0990012  82.3584997 -15.9560012   7.4124247  81.7966565 -15.3694253
  13.2370012  79.2944997  -8.5250012  12.5610012  79.4254997  -7.8610012
  12.7520012  79.1394997  -9.3350012  13.0787145  79.2914905  -8.5435483
   5.9880012  82.8834997 -17.7390012   5.4450012  82.5034997 -18.4310012
   6.8210012  83.0774997 -18.1680012   6.0264399  82.8578124 -17.8915474
  16.5250012  94.9664997  -2.2480012  16.7250012  95.3904997  -3.0830012
  17.1800012  95.3094997  -1.6410012  16.6410051  95.0709648  -2.2802164
   4.1230012  87.4404997  -2.6400012   4.8550012  87.6944997  -2.0790012
   3.3430012  87.6444997  -2.1250012   4.1178232  87.5029177  -2.4934240
  10.1520012  82.8474997  -9.9020012  10.7170012  82.3004997 -10.4490012
  10.0050012  82.3254997  -9.1140012  10.2092918  82.7022024  -9.8701546
   5.1540012  78.9834997 -13.4840012   4.8370012  78.0814997 -13.5190012
   5.9360012  78.9854997 -14.0370012   5.2162284  78.8601628 -13.5635217
   8.7790012  81.2354997  -7.4880012   7.9430012  81.6894997  -7.3780012
   9.3030012  81.5114997  -6.7360012   8.7354414  81.3349376  -7.3712864
   9.3230012  87.4484997 -15.8040012   8.5780012  86.9414997 -16.1260012
   9.1890012  87.4974997 -14.8570012   9.2028776  87.3856940 -15.7201353
  16.4730012  86.5814997  -7.0170012  17.1150012  87.0384997  -7.5610012
  15.6430012  86.6944997  -7.4800012  16.4485963  86.6592704  -7.1539823
  13.2210012  80.2624997 -17.6040012  12.2820012  80.3744997 -17.7560012
  13.5180012  81.1194997 -17.2980012  13.1327666  80.3936443 -17.5834232
  10.8420012  87.6324997  -4.5670012  10.4970012  87.2514997  -3.7600012
  10.6420012  88.5664997  -4.4950012  10.7678061  87.7065228  -4.4469039
  13.9390012  82.1294997 -15.9440012  14.8310012  81.9924997 -15.6250012
  13.9960012  82.9204997 -16.4800012  14.0686285  82.2176660 -15.9728310
   4.4480012  86.7434997 -10.0340012   5.1930012  86.7414997 -10.6350012
   4.5260012  85.9204997  -9.5520012   4.5605518  86.6319315 -10.0511071
  11.4490012  88.9074997 -16.7780012  11.1530012  89.7334997 -16.3970012
  10.7460012  88.2874997 -16.5820012  11.3134914  88.9368199 -16.6993557
   1.4560012  85.2044997  -4.7190012   1.6790012  84.7864997  -3.8870012
   0.8540012  84.5914997  -5.1420012   1.4051759  85.0644668  -4.6622978
   8.4720012  84.7214997  -2.5060012   8.1760012  84.5554997  -3.4010012
   9.4040012  84.5014997  -2.5170012   8.5574166  84.6690640  -2.6299464
  13.0930012  90.0944997  -4.6160012  12.1920012  90.2774997  -4.8840012
  13.1270012  90.3534997  -3.6950012  12.9743041  90.1545512  -4.5281803
  18.8240012  82.3394997 -16.2490012  18.2700012  81.9434997 -16.9210012
  18.9240012  83.2494997 -16.5270012  18.7617059  82.4083586 -16.3785599
  18.7870012  88.1394997  -3.4120012  17.9360012  88.3774997  -3.7790012
  19.3780012  88.1224997  -4.1650012  18.7502487  88.1698258  -3.5641107
  17.1190012  91.1254997 -15.7840012  16.7460012  90.2994997 -15.4750012
  17.3970012  90.9424997 -16.6810012  17.1055630  90.9877303 -15.8630374
  14.2800012  85.9334997  -8.7630012  13.3510012  85.7014997  -8.7900012
  14.7310012  85.1564997  -9.0930012  14.2139216  85.7967238  -8.8113083
   6.8230012  90.2614997 -12.6300012   7.3500012  91.0344997 -12.8300012
   5.9430012  90.4864997 -12.9310012   6.7761773  90.3978005 -12.6980990
   2.5780012  85.1234997 -18.0430012   3.1940012  85.7504997 -17.6630012
   1.7160012  85.4394997 -17.7710012   2.5457698  85.2519430 -17.9542817
   8.2500012  87.9244997 -13.0530012   8.0090012  88.8494997 -13.0120012
   7.5090012  87.4654997 -12.6570012   8.1168409  87.9891421 -12.9938623
   8.7650012  92.0734997  -6.7380012   9.1270012  92.9284997  -6.9720012
   9.2960012  91.7814997  -5.9980012   8.8864473  92.1511060  -6.6699145
   6.9330012  92.9464997 -13.5080012   5.9830012  93.0514997 -13.4570012
   7.2850012  93.7664997 -13.1630012   6.8504203  93.0718314 -13.4543350
  12.3090012  88.1724997  -7.0380012  11.8830012  87.9454997  -6.2110012
  12.8890012  87.4344997  -7.2200012  12.3291868  88.0415299  -6.9494170
  14.5120012  89.1014997 -17.9640012  14.8650012  88.7214997 -17.1590012
  13.5630012  89.0084997 -17.8770012  14.4320441  89.0369596 -17.8421441
  14.9670012  92.7244997  -4.5680012  14.3660012  92.1694997  -5.0640012
  15.2490012  93.3914997  -5.1940012  14.9228519  92.7386841  -4.7205048
  19.0150012  93.5814997 -17.7630012  19.7590012  94.1674997 -17.9030012
  18.3210012  94.1494997 -17.4290012  19.0230292  93.7385582 -17.7370039
   3.0900012  79.9574997  -5.1610012   2.1970012  80.2964997  -5.2290012
   2.9910012  79.1024997  -4.7430012   2.9544164  79.8882588  -5.1137765
  15.3780012  87.7744997 -15.7370012  15.1000012  87.0464997 -15.1810012
  16.3050012  87.8934997 -15.5320012  15.4653124  87.6908802 -15.6331155
   2.7410012  91.7624997  -6.7260012   2.9580012  90.8304997  -6.7570012
   2.9870012  92.0364997  -5.8430012   2.8039549  91.6720636  -6.6108237
   8.6030012  90.2134997 -19.5170012   8.8420012  89.4654997 -20.0640012
   8.3340012  89.8254997 -18.6840012   8.5993675  90.0586638 -19.4793135
   7.5400012  89.7834997 -17.0600012   7.6860012  89.2634997 -16.2700012
   7.5370012  90.6904997 -16.7540012   7.5595989  89.8348853 -16.9103912
   3.9930012  87.0364997 -16.5500012   3.3070012  87.3884997 -15.9830012
   4.5150012  87.7994997 -16.7970012   3.9696852  87.1878578 -16.5057882
  11.8240012  79.6984997  -6.2710012  12.5230012  79.7724997  -5.6210012
  11.4430012  78.8344997  -6.1170012  11.8681767  79.5917624  -6.1611678
  12.6090012  79.3504997 -15.1740012  12.8290012  79.8224997 -15.9770012
  13.1670012  79.7454997 -14.5040012  12.7144968  79.4684285 -15.1932669
  10.2770012  91.4814997 -16.3110012   9.4610012  91.9784997 -16.2590012
  10.8070012  91.9564997 -16.9510012  10.2369161  91.6137722 -16.3904044
   9.8090012  81.0784997 -14.3390012  10.6210012  81.5834997 -14.2930012
   9.5640012  80.9334997 -13.4250012   9.8870520  81.1280375 -14.2091483
  10.3440012  82.0644997  -5.1540012  10.4630012  82.6384997  -4.3970012
  11.0000012  81.3764997  -5.0400012  10.4489757  82.0501079  -5.0349175
  10.6920012  78.1594997 -13.4010012  10.3460012  78.7774997 -12.7560012
  11.3510012  78.6604997 -13.8820012  10.7337826  78.3115802 -13.3779029
   7.6160012  92.5254997 -16.3290012   7.7760012  93.3244997 -16.8300012
   7.4180012  92.8314997 -15.4440012   7.6111649  92.6764469 -16.2780185
   6.3500012  79.2224997 -16.7140012   6.2670012  80.1114997 -16.3670012
   7.2400012  78.9574997 -16.4820012   6.4589469  79.3081430 -16.6352374
  16.5490012  79.9714997  -4.3190012  15.6320012  80.2344997  -4.4070012
  16.8840012  79.9684997  -5.2160012  16.4689900  80.0070224  -4.4522081
  15.1510012  83.7224997 -10.2240012  14.3530012  83.3074997 -10.5520012
  15.5960012  83.0314997  -9.7330012  15.1019885  83.5723543 -10.2025111
   4.6090012  89.6504997 -17.6530012   5.2010012  90.3494997 -17.3770012
   5.0680012  89.2174997 -18.3730012   4.7521142  89.6877049 -17.7125170
   2.9250012  82.3144997 -18.5370012   2.8800012  83.2534997 -18.3590012
   2.0370012  82.0784997 -18.8070012   2.7988574  82.4111892 -18.5491088
  16.2370012  92.9784997  -8.6010012  16.0820012  93.6564997  -9.2580012
  17.1700012  93.0504997  -8.3980012  16.3418500  93.0810170  -8.6634881
   3.7330012  77.0964997  -9.8640012   3.5040012  77.1554997 -10.7920012
   3.2900012  76.3044997  -9.5580012   3.6418530  76.9975753  -9.9495214
   2.6630012  91.0364997 -13.7040012   1.8310012  91.5094997 -13.6760012
   3.2090012  91.5464997 -14.3020012   2.6229739  91.1701871 -13.7810284
   1.9510012  93.6494997  -2.3740012   2.4920012  93.4324997  -1.6140012
   1.4700012  92.8434997  -2.5630012   1.9599345  93.5109514  -2.2956924
   6.5490012  92.5684997  -0.7530012   7.3160012  92.1094997  -0.4120012
   6.5270012  92.3424997  -1.6830012   6.6511434  92.4750409  -0.8319957
  10.6410012  92.0764997 -19.3780012   9.9970012  91.4454997 -19.0570012
  11.4030012  91.5454997 -19.6100012  10.6558077  91.9182920 -19.3653989
  13.1260012  90.9484997  -2.0240012  12.7750012  90.0924997  -1.7810012
  13.8520012  91.0914997  -1.4170012  13.1760769  90.8505636  -1.9086381
  15.2450012  91.8934997 -19.1440012  15.5280012  91.0994997 -18.6920012
  15.9850012  92.1264997 -19.7050012  15.3837486  91.8162803 -19.1579302
   1.8580012  87.4594997  -1.4190012   2.0020012  86.5574997  -1.7060012
   1.0860012  87.7454997  -1.9070012   1.7733322  87.3748261  -1.5242119
   6.2000012  87.8034997 -19.2870012   6.2640012  87.0094997 -18.7560012
   6.8530012  87.6844997 -19.9770012   6.2970241  87.6787148 -19.3075683
   8.5140012  87.4294997  -1.9870012   8.1850012  87.7004997  -2.8440012
   8.6660012  86.4884997  -2.0740012   8.4894809  87.3393862  -2.1161756
  14.2480012  87.3454997  -4.6030012  14.9940012  87.9334997  -4.7230012
  13.4910012  87.9274997  -4.5400012  14.2477554  87.5047011  -4.6109093
   2.6910012  84.6594997  -1.9990012   3.0990012  83.8024997  -2.1200012
   2.4310012  84.6744997  -1.0780012   2.7117568  84.5440807  -1.8910412
   7.3490012  85.7754997 -16.9810012   6.8890012  85.2914997 -16.2950012
   7.6040012  85.1074997 -17.6170012   7.3204902  85.6188731 -16.9730666
   6.6380012  83.6684997  -4.6250012   6.0200012  84.3434997  -4.3450012
   6.9820012  83.9894997  -5.4580012   6.5999615  83.8042721  -4.6993419
   8.4200012  84.0184997 -18.7190012   8.2400012  83.8644997 -19.6460012
   9.3700012  84.1264997 -18.6740012   8.5237776  84.0120175 -18.8398157
  11.6580012  86.1404997  -1.3480012  12.6110012  86.2234997  -1.3750012
  11.4970012  85.4284997  -0.7280012  11.7666426  86.0556746  -1.2679421
  17.8100012  86.3734997 -19.2730012  17.5360012  85.9484997 -20.0860012
  17.8490012  87.3044997 -19.4900012  17.7777699  86.4412484 -19.4136390
   6.9770012  81.0234997  -3.5430012   7.1270012  80.2944997  -4.1450012
   6.9800012  81.8004997  -4.1020012   6.9979302  81.0287851  -3.7009308
   7.3900012  79.3934997  -6.0500012   7.9260012  79.8444997  -6.7020012
   6.5380012  79.2854997  -6.4730012   7.3482178  79.4406390  -6.1964244
   8.9720012  84.8324997  -5.8110012   9.7220012  84.6764997  -6.3840012
   8.6330012  85.6844997  -6.0860012   9.0288921  84.9262968  -5.9266439
  13.3870012  82.6474997  -0.7820012  13.5800012  81.7164997  -0.8940012
  14.2450012  83.0724997  -0.7920012  13.5293020  82.5776389  -0.7986639
  14.7040012  85.4364997  -2.7050012  14.4230012  86.1454997  -3.2820012
  15.6470012  85.3634997  -2.8560012  14.7929027  85.5237646  -2.8044449
   5.4560012  82.2214997  -1.6310012   4.6890012  81.6894997  -1.8410012
   6.1350012  81.9114997  -2.2310012   5.4427022  82.1067506  -1.7408352
   8.1960012  76.8494997  -5.6190012   8.0970012  77.7964997  -5.7240012
   7.4530012  76.4774997  -6.0940012   8.0820563  76.9285902  -5.6975440
   9.4600012  81.1714997  -2.0550012   9.2240012  80.9514997  -1.1530012
   8.6760012  80.9644997  -2.5650012   9.3218628  81.1134760  -2.0006068
  12.1750012  80.2984997  -2.9790012  11.2280012  80.3304997  -2.8470012
  12.4880012  79.6734997  -2.3260012  12.0875475  80.2183207  -2.8725545
  13.8090012  78.9324997  -0.9740012  13.7130012  77.9804997  -0.9800012
  13.4880012  79.2014997  -0.1140012  13.7524070  78.8384035  -0.8584559
   3.6360012  80.1424997  -1.9270012   3.8480012  79.4354997  -2.5370012
   3.5250012  79.7044997  -1.0830012   3.6499721  79.9867084  -1.8963157
   8.4170012  76.1434997  -2.9470012   9.1290012  75.5034997  -2.9610012
   8.3160012  76.4104997  -3.8610012   8.5007939  76.0919938  -3.0724350
   8.7710012  77.8264997  -0.8940012   8.6390012  77.3504997  -1.7140012
   8.1720012  78.5704997  -0.9490012   8.6719071  77.8619618  -1.0137114
   8.3170012  94.7094997 -17.7170012   9.2500012  94.8674997 -17.5740012
   8.0530012  95.3844997 -18.3420012   8.4089510  94.8223611 -17.7819259
   1.8860012  89.3454997 -18.2350012   2.8000012  89.4244997 -17.9610012
   1.8930012  88.6584997 -18.9010012   2.0121131  89.2633961 -18.2875607
   0.5350012  94.7384997 -13.1570012  -0.1119988  94.2764997 -13.6900012
   0.8890012  94.0664997 -12.5750012   0.4943849  94.5844723 -13.1512041
   1.4050012  92.8194997 -11.3530012   1.0700012  91.9394997 -11.1810012
   1.6270012  93.1644997 -10.4880012   1.3891783  92.7457500 -11.2125792
  18.9530012  93.6284997  -8.3720012  18.9320012  93.8134997  -7.4330012
  19.6440012  94.1974997  -8.7130012  19.0434618  93.7306606  -8.2896136
  18.5170012  93.1964997  -5.4500012  18.0290012  92.4604997  -5.8210012
  19.0660012  92.8024997  -4.7720012  18.5244872  93.0426249  -5.4090840
  16.9670012  88.9854997  -0.8120012  16.1010012  88.8804997  -0.4180012
  17.3440012  89.7444997  -0.3660012  16.8993308  89.0736900  -0.6977607
  18.2680012  87.2424997 -15.2980012  19.1180012  87.6634997 -15.1710012
  18.2740012  86.5024997 -14.6910012  18.3851372  87.2000803 -15.1985656
  18.6630012  85.2954997 -13.4740012  17.9360012  84.8164997 -13.0770012
  19.2440012  85.5014997 -12.7420012  18.6419375  85.2577090 -13.3205871
  18.4220012  88.0804997  -8.5270012  19.2550012  87.7024997  -8.8070012
  18.5340012  89.0234997  -8.6460012  18.5512647  88.1562218  -8.5814513
  16.9080012  90.9584997  -6.2200012  16.2610012  91.2834997  -5.5940012
  16.3910012  90.5184997  -6.8940012  16.7494029  90.9435004  -6.2254173
  18.9310012  85.1964997 -17.0830012  18.4090012  85.5534997 -17.8020012
  18.8980012  85.8714997 -16.4050012  18.8551634  85.3365413 -17.0896855
  17.2800012  82.4364997 -18.5320012  17.3760012  83.1034997 -19.2130012
  17.1400012  81.6204997 -19.0140012  17.2742135  82.4174500 -18.6901509
  16.4490012  83.8164997 -12.9110012  16.2990012  82.8714997 -12.9320012
  16.0960012  84.0974997 -12.0680012  16.3806625  83.7250441 -12.7997654
   1.4850012  85.8944997  -8.9010012   1.6690012  85.8124997  -9.8370012
   2.3340012  85.7704997  -8.4770012   1.6250139  85.8665003  -8.9718545
  17.3060012  85.7864997  -3.2730012  17.8890012  85.0524997  -3.0810012
  17.8700012  86.5584997  -3.2260012  17.4619769  85.7904227  -3.2403841
  18.8020012  83.6894997  -2.5880012  17.9390012  83.3104997  -2.7540012
  19.4070012  82.9504997  -2.6620012  18.7655979  83.5378023  -2.6207183
  16.5270012  79.8444997 -19.4150012  17.1380012  79.4734997 -18.7780012
  15.6910012  79.4234997 -19.2190012  16.4975032  79.7367554 -19.3012965
  16.1600012  81.3994997 -14.4490012  16.4400012  80.4924997 -14.3250012
  16.9190012  81.8334997 -14.8380012  16.3009277  81.3340942 -14.4846318
  16.7720012  81.9804997  -9.0130012  17.7050012  82.1924997  -9.0470012
  16.5370012  82.0824997  -8.0910012  16.8678036  82.0232769  -8.8930024
  16.8010012  82.7174997  -6.2370012  15.9580012  82.9854997  -5.8710012
  17.2430012  83.5394997  -6.4480012  16.7454158  82.8653291  -6.2154509
   1.0820012  81.1654997  -2.7600012   2.0020012  81.0434997  -2.5240012
   0.6330012  80.4154997  -2.3710012   1.1471580  81.0473727  -2.6750994
  19.0840012  76.6974997  -0.8840012  19.4340012  76.0434997  -1.4890012
  19.2310012  77.5344997  -1.3230012  19.1518419  76.7211591  -1.0262882
  16.7730012  78.6624997 -14.4010012  16.9560012  78.2134997 -13.5750012
  16.1740012  78.0774997 -14.8640012  16.7170202  78.5219975 -14.3506725
   2.3030012  79.4774997  -9.8690012   2.7490012  78.6854997  -9.5670012
   2.7700012  80.1934997  -9.4380012   2.4270172  79.4660624  -9.7695180
   0.6070012  82.4764997  -8.8000012   1.0990012  82.2554997  -9.5910012
   0.9700012  83.3174997  -8.5190012   0.7233126  82.5598357  -8.8702469
  18.6040012  78.8064997  -2.5340012  17.6860012  79.0774997  -2.5700012
  18.7270012  78.2714997  -3.3190012  18.4951066  78.7712892  -2.6449513
  18.6400012  78.7294997 -17.8730012  19.0520012  78.0084997 -18.3480012
  19.3220012  79.3994997 -17.8140012  18.7885885  78.7212368 -17.9301085
   0.9210012  78.7344997 -14.7460012  -0.0039988  78.9434997 -14.8750012
   1.3750012  79.2184997 -15.4350012   0.8557368  78.8285993 -14.8568774
  15.6920012  93.7184997 -12.8000012  16.3440012  93.3714997 -13.4080012
  16.2020012  94.2074997 -12.1540012  15.8502637  93.7370597 -12.7959764
   0.8850012  77.4724997  -6.4010012   0.2200012  77.2264997  -5.7580012
   0.4420012  78.0944997  -6.9790012   0.7340956  77.5228632  -6.3910648
   3.0770012  90.6474997  -2.2570012   2.2560012  90.8224997  -2.7170012
   2.8240012  90.5744997  -1.3360012   2.9306164  90.6615622  -2.1955077
   6.0310012  91.6224997  -5.9980012   5.6060012  92.4314997  -6.2810012
   6.9350012  91.7074997  -6.3000012   6.0950271  91.7448469  -6.0776224
  10.3420012  93.0214997  -3.0390012  10.5270012  92.6874997  -2.1610012
  11.1880012  93.3304997  -3.3610012  10.4817539  93.0176047  -2.9624395
  12.6870012  94.3074997  -3.7950012  13.3640012  93.6744997  -4.0350012
  13.0090012  94.7084997  -2.9880012  12.8231637  94.2751154  -3.7187207
  17.6040012  76.8964997  -4.7150012  16.7920012  77.2214997  -5.1030012
  17.8370012  76.1364997  -5.2480012  17.5243423  76.8382436  -4.8401747
   3.4330012  94.8784997  -5.9510012   2.7120012  95.3184997  -6.4020012
   3.0670012  94.6274997  -5.1020012   3.2849804  94.9047698  -5.8980160
   5.9000012  94.4784997  -6.9210012   5.0350012  94.5504997  -6.5170012
   5.8450012  95.0254997  -7.7050012   5.7742085  94.5622685  -6.9716638
  10.6100012  94.3664997  -7.7460012  10.1540012  94.8954997  -8.4000012
  10.7730012  94.9694997  -7.0200012  10.5695585  94.5204468  -7.7374938
  12.9380012  93.2444997  -6.8010012  12.0330012  93.4094997  -7.0660012
  13.3670012  94.0974997  -6.8660012  12.8720799  93.3824483  -6.8460818
  15.5420012  94.8144997  -6.5060012  15.3600012  95.7304997  -6.7160012
  15.7190012  94.4044997  -7.3520012  15.5410210  94.8844822  -6.6492115
   2.8470012  93.5014997  -9.0410012   2.8290012  93.0764997  -8.1830012
   3.6520012  93.1834997  -9.4490012   2.9533875  93.4003812  -8.9788345
   4.9890012  92.2114997 -10.3860012   4.7700012  91.2954997 -10.2160012
   5.8130012  92.3514997  -9.9200012   5.0704420  92.1050520 -10.2997226
   7.5260012  92.6814997  -9.5370012   7.7390012  91.7934997  -9.8240012
   7.5900012  92.6474997  -8.5830012   7.5638232  92.5553102  -9.4472603
  11.0340012  78.3454997 -10.3930012  10.3600012  77.7164997 -10.1370012
  11.5980012  77.8614997 -10.9960012  11.0179230  78.1938744 -10.4394660
  16.1770012  76.4534997 -10.2800012  16.7810012  77.0004997 -10.7820012
  15.3070012  76.7724997 -10.5200012  16.1421241  76.5715806 -10.3812346
  17.9040012  77.5914997 -11.9470012  18.5160012  77.0774997 -12.4730012
  18.2860012  78.4694997 -11.9230012  18.0394540  77.6397140 -12.0158170
   3.3610012  76.9794997 -12.5710012   2.5840012  76.7454997 -13.0780012
   3.8910012  76.1824997 -12.5620012   3.3262330  76.8396988 -12.6392258
   2.1970012  76.7774997 -16.7670012   2.6360012  77.3884997 -17.3590012
   1.5640012  77.3154997 -16.2930012   2.1714514  76.9339257 -16.7839070
   7.9400012  76.9064997 -12.7570012   8.8150012  77.2944997 -12.7870012
   7.8040012  76.6914997 -11.8350012   8.0413695  76.9305184 -12.6363560
  13.4970012  76.9364997 -11.1080012  13.5730012  77.0314997 -12.0580012
  13.2220012  76.0284997 -10.9790012  13.4702321  76.8267867 -11.2204921
  14.8500012  76.9624997 -15.4160012  14.1480012  77.5774997 -15.6250012
  14.4060012  76.1244997 -15.2850012  14.6936330  76.9335783 -15.4269672
   2.0980012  92.7254997 -15.8690012   1.4130012  92.6874997 -16.5370012
   2.1020012  93.6384997 -15.5810012   2.0048193  92.8437016 -15.9214716
   4.0580012  78.6934997 -18.3250012   4.5500012  78.0634997 -18.8520012
   4.6820012  78.9894997 -17.6610012   4.2095446  78.6473199 -18.3074020
   9.0840012  78.9864997 -15.8680012   9.2620012  78.3404997 -15.1850012
   9.0310012  79.8204997 -15.4000012   9.1011829  79.0107985 -15.7114060
  10.9630012  93.9354997 -17.4720012  11.8290012  94.3014997 -17.6500012
  10.7160012  93.4954997 -18.2860012  11.0482392  93.9261756 -17.6063711
  17.6720012  93.4984997 -14.7930012  17.4770012  92.7504997 -15.3580012
  17.6330012  94.2564997 -15.3760012  17.6400380  93.4986099 -14.9491616
   3.3190012  77.4934997  -3.0530012   2.9530012  76.7284997  -2.6100012
   4.2320012  77.5224997  -2.7660012   3.3922790  77.3927224  -2.9535930
   5.2920012  76.8444997  -1.5170012   6.1900012  76.5704997  -1.7020012
   4.9050012  76.1014997  -1.0530012   5.3626612  76.7065914  -1.4796357
   3.9160012  93.6454997 -18.8440012   3.6490012  93.9324997 -17.9710012
   4.6880012  93.0994997 -18.6920012   3.9837488  93.6110294 -18.7038950
  13.7130012  76.1764997  -1.3350012  13.7900012  75.7504997  -0.4810012
  14.6070012  76.1904997  -1.6780012  13.8443428  76.1200879  -1.2644690
  16.8890012  92.2494997  -2.6430012  16.1070012  92.0634997  -3.1620012
  16.8170012  93.1784997  -2.4250012  16.7721777  92.3496492  -2.6845952
  31.2950012  86.1354997 -12.6120012  31.3840012  87.0794997 -12.7440012
  30.6570012  85.8604997 -13.2700012  31.2209081  86.2274830 -12.7190386
  30.2280012  85.3904997  -9.1930012  30.1900012  84.7444997  -8.4880012
  29.9060012  84.9244997  -9.9640012  30.1792333  85.2389408  -9.2007022
  22.5970012  85.0054997  -7.6000012  22.6380012  84.3794997  -6.8770012
  23.3000012  85.6294997  -7.4180012  22.6976363  85.0041196  -7.4763956
  33.9340012  88.3294997 -10.8920012  33.4940012  87.6094997 -10.4410012
  33.9210012  89.0504997 -10.2620012  33.8720226  88.3283731 -10.7451506
  23.5200012  89.4554997  -9.0650012  23.1510012  88.6534997  -9.4350012
  24.4610012  89.2864997  -9.0190012  23.5967289  89.3230153  -9.1093684
  20.1300012  83.1154997 -13.6720012  19.6830012  83.9614997 -13.6910012
  19.5690012  82.5354997 -14.1880012  19.9929900  83.1529916 -13.7443199
  20.8410012  85.2774997 -11.5460012  21.0540012  84.5074997 -11.0190012
  21.5790012  85.3664997 -12.1500012  20.9698496  85.1841394 -11.5554700
  31.0460012  93.4344997 -10.6790012  31.6660012  92.7574997 -10.9530012
  30.8380012  93.2164997  -9.7710012  31.1026904  93.3123870 -10.5936635
  28.6180012  87.8234997  -8.7870012  28.9220012  87.1374997  -9.3820012
  29.3390012  87.9414997  -8.1690012  28.7570671  87.7456304  -8.7848184
  37.2810012  79.4244997  -7.9260012  37.3300012  80.0344997  -7.1900012
  37.7060012  79.8854997  -8.6490012  37.3451824  79.5703741  -7.9229795
  31.7590012  82.2174997  -8.4590012  31.9010012  81.2714997  -8.4390012
  31.6520012  82.4244997  -9.3880012  31.7639864  82.1159534  -8.5817661
  24.9130012  80.3184997 -11.1870012  24.9570012  81.1784997 -11.6050012
  24.4560012  79.7664997 -11.8210012  24.8572185  80.3615799 -11.3299701
  32.6360012  80.4494997 -12.7860012  33.2820012  80.1204997 -12.1610012
  33.1460012  80.9674997 -13.4090012  32.7934264  80.4744611 -12.7846138
  21.5340012  82.7154997 -10.4250012  22.1870012  82.1654997  -9.9930012
  21.5580012  82.4414997 -11.3420012  21.6266683  82.6031466 -10.4897877
  26.6900012  84.2654997 -11.2100012  27.3060012  83.7394997 -10.7000012
  26.1040012  83.6254997 -11.6130012  26.6950810  84.1069208 -11.1946827
  37.6720012  80.9024997  -5.6900012  36.9840012  81.5604997  -5.7860012
  37.6880012  80.7054997  -4.7540012  37.5798525  80.9660462  -5.5765192
  23.7240012  79.2364997  -7.1130012  23.5050012  79.7664997  -7.8790012
  23.0560012  79.4634997  -6.4660012  23.6037600  79.3396906  -7.1303621
  31.0930012  88.7364997 -13.5690012  30.7970012  88.4144997 -14.4200012
  30.7680012  89.6364997 -13.5280012  31.0086371  88.8140215 -13.6798199
  26.2930012  86.9124997  -6.8260012  25.5530012  87.5104997  -6.7220012
  27.0070012  87.4664997  -7.1410012  26.2882237  87.0692831  -6.8543535
  34.4000012  79.7404997 -10.8060012  34.1840012  78.9744997 -10.2730012
  35.0550012  80.2124997 -10.2930012  34.4590632  79.6995889 -10.6637139
  23.3170012  81.1284997  -9.1610012  23.9310012  81.7614997  -8.7870012
  23.8290012  80.6564997  -9.8170012  23.4702296  81.1512370  -9.1985748
  24.7000012  88.8764997  -6.0380012  24.6950012  89.7564997  -6.4160012
  23.8470012  88.7934997  -5.6130012  24.5839464  88.9856117  -6.0322093
  20.8210012  88.5474997 -15.2560012  20.5490012  88.7764997 -16.1450012
  20.8670012  89.3854997 -14.7960012  20.7900094  88.6921213 -15.3154303
  34.4460012  90.1694997  -8.5440012  33.5050012  90.2274997  -8.3820012
  34.7230012  91.0754997  -8.6810012  34.3544679  90.2999443  -8.5403185
  34.7470012  78.4554997  -7.1260012  34.0110012  79.0664997  -7.1640012
  35.4300012  78.8704997  -7.6530012  34.7386541  78.5951374  -7.2024168
  27.7500012  76.5424997  -9.6600012  27.6330012  75.5934997  -9.7150012
  26.8950012  76.8744997  -9.3870012  27.6183733  76.4575409  -9.6306103
  32.6980012  91.9504997 -11.9180012  33.1240012  91.2434997 -12.4030012
  33.0150012  92.7514997 -12.3350012  32.7991019  91.9620994 -12.0406870
  33.8580012  89.8514997 -13.4100012  33.6000012  89.1614997 -14.0210012
  33.9290012  89.4084997 -12.5640012  33.8322856  89.6972124 -13.3793115
  35.5440012  88.4174997  -4.9320012  35.6840012  87.8264997  -5.6720012
  35.7110012  89.2904997  -5.2890012  35.5856778  88.4546426  -5.0813035
  30.0170012  85.3794997 -15.1600012  29.3050012  85.9144997 -15.5120012
  30.7080012  85.4354997 -15.8200012  30.0130132  85.4602543 -15.2973711
  30.0700012  83.8374997 -18.1210012  30.7710012  83.8594997 -17.4700012
  30.3730012  83.2094997 -18.7770012  30.2067830  83.7556566 -18.1206289
  37.3860012  84.7574997  -6.8660012  36.7330012  85.4524997  -6.7770012
  37.8510012  84.9674997  -7.6760012  37.3595390  84.8809425  -6.9633117
  33.4220012  85.5894997 -14.2080012  32.6900012  85.8174997 -13.6350012
  33.8700012  84.8754997 -13.7530012  33.3823095  85.5242571 -14.0680881
  33.3200012  83.7634997  -5.1410012  33.4000012  84.5264997  -4.5690012
  32.7180012  84.0424997  -5.8310012  33.2495756  83.9057134  -5.1559411
  25.0680012  86.2194997 -12.3260012  24.7370012  85.8494997 -13.1440012
  25.6560012  85.5494997 -11.9790012  25.1021873  86.0781156 -12.3911898
  26.4340012  89.6474997  -9.6440012  26.3400012  89.0694997 -10.4010012
  27.1640012  89.2764997  -9.1480012  26.5197981  89.5182390  -9.6805835
  25.4340012  84.9884997  -8.6920012  26.0000012  85.1094997  -9.4550012
  25.7530012  85.6254997  -8.0530012  25.5545786  85.0911884  -8.7099960
  31.7430012  90.4914997  -7.9580012  31.5030012  91.1534997  -7.3100012
  31.5450012  89.6574997  -7.5330012  31.6833808  90.4693134  -7.8118476
  26.3140012  89.3874997  -3.9750012  26.0030012  90.1694997  -3.5200012
  25.6640012  89.2344997  -4.6610012  26.1835558  89.4739105  -4.0054129
  32.2930012  84.7514997 -16.5230012  32.8730012  84.9014997 -15.7760012
  32.7070012  85.2224997 -17.2460012  32.4282830  84.8356841 -16.5185866
  23.2340012  85.5854997  -4.7460012  23.3050012  86.2364997  -4.0480012
  22.3440012  85.6884997  -5.0810012  23.1233117  85.6885936  -4.6957300
  30.0200012  91.4884997 -13.0880012  30.4940012  91.7834997 -12.3100012
  29.4570012  92.2264997 -13.3210012  30.0087653  91.6286932 -13.0129864
  24.5540012  91.4594997  -3.2120012  24.5610012  91.3234997  -4.1590012
  23.6380012  91.3414997  -2.9600012  24.4311714  91.4249430  -3.3075334
  35.9920012  76.5014997 -16.7100012  35.0920012  76.6404997 -16.4150012
  36.2440012  77.3324997 -17.1120012  35.9028702  76.6329074 -16.7239795
  24.0580012  85.2894997 -14.7360012  23.7660012  86.0574997 -15.2270012
  23.3840012  84.6294997 -14.8990012  23.9269081  85.3054406 -14.8252660
  37.1810012  90.8674997 -18.3340012  37.2550012  91.8064997 -18.1630012
  38.0870012  90.5624997 -18.3900012  37.3135100  90.9546722 -18.3181881
  20.1510012  87.6524997  -5.9210012  19.6500012  87.6244997  -6.7360012
  20.1560012  86.7464997  -5.6120012  20.0831526  87.5262278  -5.9907128
  19.9010012  90.4324997  -9.0370012  20.8470012  90.2884997  -9.0560012
  19.7890012  91.2164997  -8.5000012  20.0152727  90.5188046  -8.9669928
  38.0990012  91.0984997  -3.3550012  38.0500012  90.1434997  -3.3920012
  37.2720012  91.3664997  -2.9540012  37.9804940  91.0038998  -3.3058625
  29.0780012  90.6724997  -4.4790012  29.1650012  91.4984997  -4.0040012
  28.2140012  90.3424997  -4.2300012  28.9731964  90.7409878  -4.3803451
  29.4920012  94.4444997 -14.6730012  29.4170012  94.3234997 -15.6190012
  29.5250012  95.3944997 -14.5540012  29.4861848  94.5562500 -14.7865166
  23.1450012  93.2334997 -12.8920012  23.2980012  92.8854997 -12.0130012
  22.2950012  92.8774997 -13.1470012  23.0508962  93.1376650 -12.8061660
  32.5940012  93.5984997 -17.6710012  32.9690012  92.8544997 -18.1410012
  32.5980012  93.3284997 -16.7520012  32.6458915  93.4601486 -17.6112176
  32.2630012  93.5244997 -14.9210012  31.3270012  93.6244997 -14.7430012
  32.5430012  92.8154997 -14.3430012  32.1728255  93.4422711 -14.8184609
  35.2510012  82.5914997  -2.8750012  34.8440012  83.0724997  -3.5960012
  35.2920012  81.6864997  -3.1830012  35.2008437  82.5349374  -3.0153317
  22.4000012  88.9754997  -4.8780012  22.6160012  88.6144997  -4.0190012
  21.5450012  88.6014997  -5.0880012  22.3139292  88.8754111  -4.7886614
  25.0190012  77.4454997  -8.8830012  24.1570012  77.3584997  -9.2900012
  24.9960012  78.3014997  -8.4550012  24.8980330  77.5492765  -8.8808137
  29.6820012  77.1674997  -5.5080012  30.1020012  76.7524997  -4.7550012
  28.7490012  76.9894997  -5.3910012  29.6133644  77.0865900  -5.3890461
  33.0080012  80.9234997  -4.6550012  32.4940012  80.7974997  -3.8570012
  32.8530012  81.8354997  -4.8990012  32.9166852  81.0296132  -4.5787842
  33.7710012  85.7844997 -18.8930012  33.8130012  85.5614997 -19.8230012
  34.6200012  86.1834997 -18.7030012  33.8915396  85.8079155 -18.9946373
  29.3430012  79.6604997 -18.2230012  29.0900012  79.6794997 -17.3000012
  29.0870012  78.7884997 -18.5240012  29.2737790  79.5452437 -18.1373737
  25.1100012  82.4114997  -7.7880012  24.4680012  82.3704997  -7.0790012
  25.1470012  83.3374997  -8.0250012  25.0271324  82.5311559  -7.7230176
  25.1070012  82.6324997 -12.8760012  24.2140012  82.2914997 -12.9340012
  25.5570012  82.2554997 -13.6310012  25.0457305  82.5348484 -12.9860823
  30.6420012  83.0484997 -14.0590012  30.2330012  83.8634997 -14.3500012
  31.3630012  82.9084997 -14.6730012  30.6834537  83.1412018 -14.1818658
  29.7440012  83.2234997  -2.5710012  29.1820012  82.5194997  -2.2500012
  30.5710012  83.1034997  -2.1030012  29.7787095  83.1107883  -2.4637670
  31.6470012  82.4944997 -11.2450012  31.4520012  83.0994997 -11.9600012
  31.8280012  81.6604997 -11.6790012  31.6447614  82.4646300 -11.4015595
  22.8600012  82.7314997  -5.9210012  22.8220012  83.1314997  -5.0520012
  22.3690012  81.9144997  -5.8300012  22.7884684  82.6758069  -5.7898941
  26.2260012  80.1054997 -19.1220012  25.7950012  79.6604997 -18.3920012
  25.5080012  80.4774997 -19.6340012  26.0699438  80.0948940 -19.0913201
  19.4680012  79.8474997 -12.0700012  20.0990012  79.8184997 -11.3510012
  19.9170012  79.4224997 -12.8000012  19.6150774  79.7860492 -12.0703447
  20.7420012  80.5934997 -16.6460012  21.2160012  81.1844997 -17.2310012
  20.0250012  81.1244997 -16.2990012  20.7099341  80.7460867 -16.6791164
  30.9110012  84.1324997  -6.5730012  31.2340012  83.5014997  -7.2160012
  30.4710012  83.5974997  -5.9130012  30.8956895  83.9738441  -6.5717150
  27.6880012  80.0594997 -11.7890012  26.7770012  80.1164997 -11.5010012
  28.1940012  79.9994997 -10.9790012  27.6315413  80.0591985 -11.6399378
  22.5170012  81.6884997 -12.9630012  21.6270012  81.7884997 -13.3030012
  22.8130012  80.8464997 -13.3090012  22.4352823  81.5883545 -13.0562787
  26.1700012  81.6884997 -15.3060012  27.1010012  81.8174997 -15.1280012
  25.9550012  82.3584997 -15.9560012  26.2684247  81.7966565 -15.3694253
  32.0930012  79.2944997  -8.5250012  31.4170012  79.4254997  -7.8610012
  31.6080012  79.1394997  -9.3350012  31.9347145  79.2914905  -8.5435483
  24.8440012  82.8834997 -17.7390012  24.3010012  82.5034997 -18.4310012
  25.6770012  83.0774997 -18.1680012  24.8824399  82.8578124 -17.8915474
  35.3810012  94.9664997  -2.2480012  35.5810012  95.3904997  -3.0830012
  36.0360012  95.3094997  -1.6410012  35.4970051  95.0709648  -2.2802164
  22.9790012  87.4404997  -2.6400012  23.7110012  87.6944997  -2.0790012
  22.1990012  87.6444997  -2.1250012  22.9738232  87.5029177  -2.4934240
  29.0080012  82.8474997  -9.9020012  29.5730012  82.3004997 -10.4490012
  28.8610012  82.3254997  -9.1140012  29.0652918  82.7022024  -9.8701546
  24.0100012  78.9834997 -13.4840012  23.6930012  78.0814997 -13.5190012
  24.7920012  78.9854997 -14.0370012  24.0722284  78.8601628 -13.5635217
  27.6350012  81.2354997  -7.4880012  26.7990012  81.6894997  -7.3780012
  28.1590012  81.5114997  -6.7360012  27.5914414  81.3349376  -7.3712864
  28.1790012  87.4484997 -15.8040012  27.4340012  86.9414997 -16.1260012
  28.0450012  87.4974997 -14.8570012  28.0588776  87.3856940 -15.7201353
  35.3290012  86.5814997  -7.0170012  35.9710012  87.0384997  -7.5610012
  34.4990012  86.6944997  -7.4800012  35.3045963  86.6592704  -7.1539823
  32.0770012  80.2624997 -17.6040012  31.1380012  80.3744997 -17.7560012
  32.3740012  81.1194997 -17.2980012  31.9887666  80.3936443 -17.5834232
  29.6980012  87.6324997  -4.5670012  29.3530012  87.2514997  -3.7600012
  29.4980012  88.5664997  -4.4950012  29.6238061  87.7065228  -4.4469039
  32.7950012  82.1294997 -15.9440012  33.6870012  81.9924997 -15.6250012
  32.8520012  82.9204997 -16.4800012  32.9246285  82.2176660 -15.9728310
  23.3040012  86.7434997 -10.0340012  24.0490012  86.7414997 -10.6350012
  23.3820012  85.9204997  -9.5520012  23.4165518  86.6319315 -10.0511071
  30.3050012  88.9074997 -16.7780012  30.0090012  89.7334997 -16.3970012
  29.6020012  88.2874997 -16.5820012  30.1694914  88.9368199 -16.6993557
  20.3120012  85.2044997  -4.7190012  20.5350012  84.7864997  -3.8870012
  19.7100012  84.5914997  -5.1420012  20.2611759  85.0644668  -4.6622978
  27.3280012  84.7214997  -2.5060012  27.0320012  84.5554997  -3.4010012
  28.2600012  84.5014997  -2.5170012  27.4134166  84.6690640  -2.6299464
  31.9490012  90.0944997  -4.6160012  31.0480012  90.2774997  -4.8840012
  31.9830012  90.3534997  -3.6950012  31.8303041  90.1545512  -4.5281803
  37.6800012  82.3394997 -16.2490012  37.1260012  81.9434997 -16.9210012
  37.7800012  83.2494997 -16.5270012  37.6177059  82.4083586 -16.3785599
  37.6430012  88.1394997  -3.4120012  36.7920012  88.3774997  -3.7790012
  38.2340012  88.1224997  -4.1650012  37.6062487  88.1698258  -3.5641107
  35.9750012  91.1254997 -15.7840012  35.6020012  90.2994997 -15.4750012
  36.2530012  90.9424997 -16.6810012  35.9615630  90.9877303 -15.8630374
  33.1360012  85.9334997  -8.7630012  32.2070012  85.7014997  -8.7900012
  33.5870012  85.1564997  -9.0930012  33.0699216  85.7967238  -8.8113083
  25.6790012  90.2614997 -12.6300012  26.2060012  91.0344997 -12.8300012
  24.7990012  90.4864997 -12.9310012  25.6321773  90.3978005 -12.6980990
  21.4340012  85.1234997 -18.0430012  22.0500012  85.7504997 -17.6630012
  20.5720012  85.4394997 -17.7710012  21.4017698  85.2519430 -17.9542817
  27.1060012  87.9244997 -13.0530012  26.8650012  88.8494997 -13.0120012
  26.3650012  87.4654997 -12.6570012  26.9728409  87.9891421 -12.9938623
  27.6210012  92.0734997  -6.7380012  27.9830012  92.9284997  -6.9720012
  28.1520012  91.7814997  -5.9980012  27.7424473  92.1511060  -6.6699145
  25.7890012  92.9464997 -13.5080012  24.8390012  93.0514997 -13.4570012
  26.1410012  93.7664997 -13.1630012  25.7064203  93.0718314 -13.4543350
  31.1650012  88.1724997  -7.0380012  30.7390012  87.9454997  -6.2110012
  31.7450012  87.4344997  -7.2200012  31.1851868  88.0415299  -6.9494170
  33.3680012  89.1014997 -17.9640012  33.7210012  88.7214997 -17.1590012
  32.4190012  89.0084997 -17.8770012  33.2880441  89.0369596 -17.8421441
  33.8230012  92.7244997  -4.5680012  33.2220012  92.1694997  -5.0640012
  34.1050012  93.3914997  -5.1940012  33.7788519  92.7386841  -4.7205048
  37.8710012  93.5814997 -17.7630012  38.6150012  94.1674997 -17.9030012
  37.1770012  94.1494997 -17.4290012  37.8790292  93.7385582 -17.7370039
  21.9460012  79.9574997  -5.1610012  21.0530012  80.2964997  -5.2290012
  21.8470012  79.1024997  -4.7430012  21.8104164  79.8882588  -5.1137765
  34.2340012  87.7744997 -15.7370012  33.9560012  87.0464997 -15.1810012
  35.1610012  87.8934997 -15.5320012  34.3213124  87.6908802 -15.6331155
  21.5970012  91.7624997  -6.7260012  21.8140012  90.8304997  -6.7570012
  21.8430012  92.0364997  -5.8430012  21.6599549  91.6720636  -6.6108237
  27.4590012  90.2134997 -19.5170012  27.6980012  89.4654997 -20.0640012
  27.1900012  89.8254997 -18.6840012  27.4553675  90.0586638 -19.4793135
  26.3960012  89.7834997 -17.0600012  26.5420012  89.2634997 -16.2700012
  26.3930012  90.6904997 -16.7540012  26.4155989  89.8348853 -16.9103912
  22.8490012  87.0364997 -16.5500012  22.1630012  87.3884997 -15.9830012
  23.3710012  87.7994997 -16.7970012  22.8256852  87.1878578 -16.5057882
  30.6800012  79.6984997  -6.2710012  31.3790012  79.7724997  -5.6210012
  30.2990012  78.8344997  -6.1170012  30.7241767  79.5917624  -6.1611678
  31.4650012  79.3504997 -15.1740012  31.6850012  79.8224997 -15.9770012
  32.0230012  79.7454997 -14.5040012  31.5704968  79.4684285 -15.1932669
  29.1330012  91.4814997 -16.3110012  28.3170012  91.9784997 -16.2590012
  29.6630012  91.9564997 -16.9510012  29.0929161  91.6137722 -16.3904044
  28.6650012  81.0784997 -14.3390012  29.4770012  81.5834997 -14.2930012
  28.4200012  80.9334997 -13.4250012  28.7430520  81.1280375 -14.2091483
  29.2000012  82.0644997  -5.1540012  29.3190012  82.6384997  -4.3970012
  29.8560012  81.3764997  -5.0400012  29.3049757  82.0501079  -5.0349175
  29.5480012  78.1594997 -13.4010012  29.2020012  78.7774997 -12.7560012
  30.2070012  78.6604997 -13.8820012  29.5897826  78.3115802 -13.3779029
  26.4720012  92.5254997 -16.3290012  26.6320012  93.3244997 -16.8300012
  26.2740012  92.8314997 -15.4440012  26.4671649  92.6764469 -16.2780185
  25.2060012  79.2224997 -16.7140012  25.1230012  80.1114997 -16.3670012
  26.0960012  78.9574997 -16.4820012  25.3149469  79.3081430 -16.6352374
  35.4050012  79.9714997  -4.3190012  34.4880012  80.2344997  -4.4070012
  35.7400012  79.9684997  -5.2160012  35.3249900  80.0070224  -4.4522081
  34.0070012  83.7224997 -10.2240012  33.2090012  83.3074997 -10.5520012
  34.4520012  83.0314997  -9.7330012  33.9579885  83.5723543 -10.2025111
  23.4650012  89.6504997 -17.6530012  24.0570012  90.3494997 -17.3770012
  23.9240012  89.2174997 -18.3730012  23.6081142  89.6877049 -17.7125170
  21.7810012  82.3144997 -18.5370012  21.7360012  83.2534997 -18.3590012
  20.8930012  82.0784997 -18.8070012  21.6548574  82.4111892 -18.5491088
  35.0930012  92.9784997  -8.6010012  34.9380012  93.6564997  -9.2580012
  36.0260012  93.0504997  -8.3980012  35.1978500  93.0810170  -8.6634881
  22.5890012  77.0964997  -9.8640012  22.3600012  77.1554997 -10.7920012
  22.1460012  76.3044997  -9.5580012  22.4978530  76.9975753  -9.9495214
  21.5190012  91.0364997 -13.7040012  20.6870012  91.5094997 -13.6760012
  22.0650012  91.5464997 -14.3020012  21.4789739  91.1701871 -13.7810284
  20.8070012  93.6494997  -2.3740012  21.3480012  93.4324997  -1.6140012
  20.3260012  92.8434997  -2.5630012  20.8159345  93.5109514  -2.2956924
  25.4050012  92.5684997  -0.7530012  26.1720012  92.1094997  -0.4120012
  25.3830012  92.3424997  -1.6830012  25.5071434  92.4750409  -0.8319957
  29.4970012  92.0764997 -19.3780012  28.8530012  91.4454997 -19.0570012
  30.2590012  91.5454997 -19.6100012  29.5118077  91.9182920 -19.3653989
  31.9820012  90.9484997  -2.0240012  31.6310012  90.0924997  -1.7810012
  32.7080012  91.0914997  -1.4170012  32.0320769  90.8505636  -1.9086381
  34.1010012  91.8934997 -19.1440012  34.3840012  91.0994997 -18.6920012
  34.8410012  92.1264997 -19.7050012  34.2397486  91.8162803 -19.1579302
  20.7140012  87.4594997  -1.4190012  20.8580012  86.5574997  -1.7060012
  19.9420012  87.7454997  -1.9070012  20.6293322  87.3748261  -1.5242119
  25.0560012  87.8034997 -19.2870012  25.1200012  87.0094997 -18.7560012
  25.7090012  87.6844997 -19.9770012  25.1530241  87.6787148 -19.3075683
  27.3700012  87.4294997  -1.9870012  27.0410012  87.7004997  -2.8440012
  27.5220012  86.4884997  -2.0740012  27.3454809  87.3393862  -2.1161756
  33.1040012  87.3454997  -4.6030012  33.8500012  87.9334997  -4.7230012
  32.3470012  87.9274997  -4.5400012  33.1037554  87.5047011  -4.6109093
  21.5470012  84.6594997  -1.9990012  21.9550012  83.8024997  -2.1200012
  21.2870012  84.6744997  -1.0780012  21.5677568  84.5440807  -1.8910412
  26.2050012  85.7754997 -16.9810012  25.7450012  85.2914997 -16.2950012
  26.4600012  85.1074997 -17.6170012  26.1764902  85.6188731 -16.9730666
  25.4940012  83.6684997  -4.6250012  24.8760012  84.3434997  -4.3450012
  25.8380012  83.9894997  -5.4580012  25.4559615  83.8042721  -4.6993419
  27.2760012  84.0184997 -18.7190012  27.0960012  83.8644997 -19.6460012
  28.2260012  84.1264997 -18.6740012  27.3797776  84.0120175 -18.8398157
  30.5140012  86.1404997  -1.3480012  31.4670012  86.2234997  -1.3750012
  30.3530012  85.4284997  -0.7280012  30.6226426  86.0556746  -1.2679421
  36.6660012  86.3734997 -19.2730012  36.3920012  85.9484997 -20.0860012
  36.7050012  87.3044997 -19.4900012  36.6337699  86.4412484 -19.4136390
  25.8330012  81.0234997  -3.5430012  25.9830012  80.2944997  -4.1450012
  25.8360012  81.8004997  -4.1020012  25.8539302  81.0287851  -3.7009308
  26.2460012  79.3934997  -6.0500012  26.7820012  79.8444997  -6.7020012
  25.3940012  79.2854997  -6.4730012  26.2042178  79.4406390  -6.1964244
  27.8280012  84.8324997  -5.8110012  28.5780012  84.6764997  -6.3840012
  27.4890012  85.6844997  -6.0860012  27.8848921  84.9262968  -5.9266439
  32.2430012  82.6474997  -0.7820012  32.4360012  81.7164997  -0.8940012
  33.1010012  83.0724997  -0.7920012  32.3853020  82.5776389  -0.7986639
  33.5600012  85.4364997  -2.7050012  33.2790012  86.1454997  -3.2820012
  34.5030012  85.3634997  -2.8560012  33.6489027  85.5237646  -2.8044449
  24.3120012  82.2214997  -1.6310012  23.5450012  81.6894997  -1.8410012
  24.9910012  81.9114997  -2.2310012  24.2987022  82.1067506  -1.7408352
  27.0520012  76.8494997  -5.6190012  26.9530012  77.7964997  -5.7240012
  26.3090012  76.4774997  -6.0940012  26.9380564  76.9285902  -5.6975440
  28.3160012  81.1714997  -2.0550012  28.0800012  80.9514997  -1.1530012
  27.5320012  80.9644997  -2.5650012  28.1778628  81.1134760  -2.0006068
  31.0310012  80.2984997  -2.9790012  30.0840012  80.3304997  -2.8470012
  31.3440012  79.6734997  -2.3260012  30.9435475  80.2183207  -2.8725545
  32.6650012  78.9324997  -0.9740012  32.5690012  77.9804997  -0.9800012
  32.3440012  79.2014997  -0.1140012  32.6084070  78.8384035  -0.8584559
  22.4920012  80.1424997  -1.9270012  22.7040012  79.4354997  -2.5370012
  22.3810012  79.7044997  -1.0830012  22.5059721  79.9867084  -1.8963157
  27.2730012  76.1434997  -2.9470012  27.9850012  75.5034997  -2.9610012
  27.1720012  76.4104997  -3.8610012  27.3567939  76.0919938  -3.0724350
  27.6270012  77.8264997  -0.8940012  27.4950012  77.3504997  -1.7140012
  27.0280012  78.5704997  -0.9490012  27.5279071  77.8619618  -1.0137114
  27.1730012  94.7094997 -17.7170012  28.1060012  94.8674997 -17.5740012
  26.9090012  95.3844997 -18.3420012  27.2649510  94.8223611 -17.7819259
  20.7420012  89.3454997 -18.2350012  21.6560012  89.4244997 -17.9610012
  20.7490012  88.6584997 -18.9010012  20.8681131  89.2633961 -18.2875607
  19.3910012  94.7384997 -13.1570012  18.7440012  94.2764997 -13.6900012
  19.7450012  94.0664997 -12.5750012  19.3503849  94.5844723 -13.1512041
  20.2610012  92.8194997 -11.3530012  19.9260012  91.9394997 -11.1810012
  20.4830012  93.1644997 -10.4880012  20.2451783  92.7457500 -11.2125792
  37.8090012  93.6284997  -8.3720012  37.7880012  93.8134997  -7.4330012
  38.5000012  94.1974997  -8.7130012  37.8994618  93.7306606  -8.2896136
  37.3730012  93.1964997  -5.4500012  36.8850012  92.4604997  -5.8210012
  37.9220012  92.8024997  -4.7720012  37.3804872  93.0426249  -5.4090840
  35.8230012  88.9854997  -0.8120012  34.9570012  88.8804997  -0.4180012
  36.2000012  89.7444997  -0.3660012  35.7553308  89.0736900  -0.6977607
  37.1240012  87.2424997 -15.2980012  37.9740012  87.6634997 -15.1710012
  37.1300012  86.5024997 -14.6910012  37.2411372  87.2000803 -15.1985656
  37.5190012  85.2954997 -13.4740012  36.7920012  84.8164997 -13.0770012
  38.1000012  85.5014997 -12.7420012  37.4979375  85.2577090 -13.3205871
  37.2780012  88.0804997  -8.5270012  38.1110012  87.7024997  -8.8070012
  37.3900012  89.0234997  -8.6460012  37.4072647  88.1562218  -8.5814513
  35.7640012  90.9584997  -6.2200012  35.1170012  91.2834997  -5.5940012
  35.2470012  90.5184997  -6.8940012  35.6054029  90.9435004  -6.2254173
  37.7870012  85.1964997 -17.0830012  37.2650012  85.5534997 -17.8020012
  37.7540012  85.8714997 -16.4050012  37.7111634  85.3365413 -17.0896855
  36.1360012  82.4364997 -18.5320012  36.2320012  83.1034997 -19.2130012
  35.9960012  81.6204997 -19.0140012  36.1302135  82.4174500 -18.6901509
  35.3050012  83.8164997 -12.9110012  35.1550012  82.8714997 -12.9320012
  34.9520012  84.0974997 -12.0680012  35.2366625  83.7250441 -12.7997654
  20.3410012  85.8944997  -8.9010012  20.5250012  85.8124997  -9.8370012
  21.1900012  85.7704997  -8.4770012  20.4810139  85.8665003  -8.9718545
  36.1620012  85.7864997  -3.2730012  36.7450012  85.0524997  -3.0810012
  36.7260012  86.5584997  -3.2260012  36.3179769  85.7904227  -3.2403841
  37.6580012  83.6894997  -2.5880012  36.7950012  83.3104997  -2.7540012
  38.2630012  82.9504997  -2.6620012  37.6215979  83.5378023  -2.6207183
  35.3830012  79.8444997 -19.4150012  35.9940012  79.4734997 -18.7780012
  34.5470012  79.4234997 -19.2190012  35.3535032  79.7367554 -19.3012965
  35.0160012  81.3994997 -14.4490012  35.2960012  80.4924997 -14.3250012
  35.7750012  81.8334997 -14.8380012  35.1569277  81.3340942 -14.4846318
  35.6280012  81.9804997  -9.0130012  36.5610012  82.1924997  -9.0470012
  35.3930012  82.0824997  -8.0910012  35.7238036  82.0232769  -8.8930024
  35.6570012  82.7174997  -6.2370012  34.8140012  82.9854997  -5.8710012
  36.0990012  83.5394997  -6.4480012  35.6014158  82.8653291  -6.2154509
  19.9380012  81.1654997  -2.7600012  20.8580012  81.0434997  -2.5240012
  19.4890012  80.4154997  -2.3710012  20.0031580  81.0473727  -2.6750994
  37.9400012  76.6974997  -0.8840012  38.2900012  76.0434997  -1.4890012
  38.0870012  77.5344997  -1.3230012  38.0078419  76.7211591  -1.0262882
  35.6290012  78.6624997 -14.4010012  35.8120012  78.2134997 -13.5750012
  35.0300012  78.0774997 -14.8640012  35.5730202  78.5219975 -14.3506725
  21.1590012  79.4774997  -9.8690012  21.6050012  78.6854997  -9.5670012
  21.6260012  80.1934997  -9.4380012  21.2830172  79.4660624  -9.7695180
  19.4630012  82.4764997  -8.8000012  19.9550012  82.2554997  -9.5910012
  19.8260012  83.3174997  -8.5190012  19.5793126  82.5598357  -8.8702469
  37.4600012  78.8064997  -2.5340012  36.5420012  79.0774997  -2.5700012
  37.5830012  78.2714997  -3.3190012  37.3511066  78.7712892  -2.6449513
  37.4960012  78.7294997 -17.8730012  37.9080012  78.0084997 -18.3480012
  38.1780012  79.3994997 -17.8140012  37.6445885  78.7212368 -17.9301085
  19.7770012  78.7344997 -14.7460012  18.8520012  78.9434997 -14.8750012
  20.2310012  79.2184997 -15.4350012  19.7117368  78.8285993 -14.8568774
  34.5480012  93.7184997 -12.8000012  35.2000012  93.3714997 -13.4080012
  35.0580012  94.2074997 -12.1540012  34.7062637  93.7370597 -12.7959764
  19.7410012  77.4724997  -6.4010012  19.0760012  77.2264997  -5.7580012
  19.2980012  78.0944997  -6.9790012  19.5900956  77.5228632  -6.3910648
  21.9330012  90.6474997  -2.2570012  21.1120012  90.8224997  -2.7170012
  21.6800012  90.5744997  -1.3360012  21.7866164  90.6615622  -2.1955077
  24.8870012  91.6224997  -5.9980012  24.4620012  92.4314997  -6.2810012
  25.7910012  91.7074997  -6.3000012  24.9510271  91.7448469  -6.0776224
  29.1980012  93.0214997  -3.0390012  29.3830012  92.6874997  -2.1610012
  30.0440012  93.3304997  -3.3610012  29.3377539  93.0176047  -2.9624395
  31.5430012  94.3074997  -3.7950012  32.2200012  93.6744997  -4.0350012
  31.8650012  94.7084997  -2.9880012  31.6791637  94.2751154  -3.7187207
  36.4600012  76.8964997  -4.7150012  35.6480012  77.2214997  -5.1030012
  36.6930012  76.1364997  -5.2480012  36.3803423  76.8382436  -4.8401747
  22.2890012  94.8784997  -5.9510012  21.5680012  95.3184997  -6.4020012
  21.9230012  94.6274997  -5.1020012  22.1409804  94.9047698  -5.8980160
  24.7560012  94.4784997  -6.9210012  23.8910012  94.5504997  -6.5170012
  24.7010012  95.0254997  -7.7050012  24.6302085  94.5622685  -6.9716638
  29.4660012  94.3664997  -7.7460012  29.0100012  94.8954997  -8.4000012
  29.6290012  94.9694997  -7.0200012  29.4255585  94.5204468  -7.7374938
  31.7940012  93.2444997  -6.8010012  30.8890012  93.4094997  -7.0660012
  32.2230012  94.0974997  -6.8660012  31.7280799  93.3824483  -6.8460818
  34.3980012  94.8144997  -6.5060012  34.2160012  95.7304997  -6.7160012
  34.5750012  94.4044997  -7.3520012  34.3970210  94.8844822  -6.6492115
  21.7030012  93.5014997  -9.0410012  21.6850012  93.0764997  -8.1830012
  22.5080012  93.1834997  -9.4490012  21.8093875  93.4003812  -8.9788345
  23.8450012  92.2114997 -10.3860012  23.6260012  91.2954997 -10.2160012
  24.6690012  92.3514997  -9.9200012  23.9264420  92.1050520 -10.2997226
  26.3820012  92.6814997  -9.5370012  26.5950012  91.7934997  -9.8240012
  26.4460012  92.6474997  -8.5830012  26.4198232  92.5553102  -9.4472603
  29.8900012  78.3454997 -10.3930012  29.2160012  77.7164997 -10.1370012
  30.4540012  77.8614997 -10.9960012  29.8739230  78.1938744 -10.4394660
  35.0330012  76.4534997 -10.2800012  35.6370012  77.0004997 -10.7820012
  34.1630012  76.7724997 -10.5200012  34.9981241  76.5715806 -10.3812346
  36.7600012  77.5914997 -11.9470012  37.3720012  77.0774997 -12.4730012
  37.1420012  78.4694997 -11.9230012  36.8954540  77.6397140 -12.0158170
  22.2170012  76.9794997 -12.5710012  21.4400012  76.7454997 -13.0780012
  22.7470012  76.1824997 -12.5620012  22.1822330  76.8396988 -12.6392258
  21.0530012  76.7774997 -16.7670012  21.4920012  77.3884997 -17.3590012
  20.4200012  77.3154997 -16.2930012  21.0274514  76.9339257 -16.7839070
  26.7960012  76.9064997 -12.7570012  27.6710012  77.2944997 -12.7870012
  26.6600012  76.6914997 -11.8350012  26.8973695  76.9305184 -12.6363560
  32.3530012  76.9364997 -11.1080012  32.4290012  77.0314997 -12.0580012
  32.0780012  76.0284997 -10.9790012  32.3262321  76.8267867 -11.2204921
  33.7060012  76.9624997 -15.4160012  33.0040012  77.5774997 -15.6250012
  33.2620012  76.1244997 -15.2850012  33.5496330  76.9335783 -15.4269672
  20.9540012  92.7254997 -15.8690012  20.2690012  92.6874997 -16.5370012
  20.9580012  93.6384997 -15.5810012  20.8608193  92.8437016 -15.9214716
  22.9140012  78.6934997 -18.3250012  23.4060012  78.0634997 -18.8520012
  23.5380012  78.9894997 -17.6610012  23.0655446  78.6473199 -18.3074020
  27.9400012  78.9864997 -15.8680012  28.1180012  78.3404997 -15.1850012
  27.8870012  79.8204997 -15.4000012  27.9571829  79.0107985 -15.7114060
  29.8190012  93.9354997 -17.4720012  30.6850012  94.3014997 -17.6500012
  29.5720012  93.4954997 -18.2860012  29.9042392  93.9261756 -17.6063711
  36.5280012  93.4984997 -14.7930012  36.3330012  92.7504997 -15.3580012
  36.4890012  94.2564997 -15.3760012  36.4960380  93.4986099 -14.9491616
  22.1750012  77.4934997  -3.0530012  21.8090012  76.7284997  -2.6100012
  23.0880012  77.5224997  -2.7660012  22.2482790  77.3927224  -2.9535930
  24.1480012  76.8444997  -1.5170012  25.0460012  76.5704997  -1.7020012
  23.7610012  76.1014997  -1.0530012  24.2186612  76.7065914  -1.4796357
  22.7720012  93.6454997 -18.8440012  22.5050012  93.9324997 -17.9710012
  23.5440012  93.0994997 -18.6920012  22.8397488  93.6110294 -18.7038950
  32.5690012  76.1764997  -1.3350012  32.6460012  75.7504997  -0.4810012
  33.4630012  76.1904997  -1.6780012  32.7003428  76.1200879  -1.2644690
  35.7450012  92.2494997  -2.6430012  34.9630012  92.0634997  -3.1620012
  35.6730012  93.1784997  -2.4250012  35.6281777  92.3496492  -2.6845952
  50.1510012  86.1354997 -12.6120012  50.2400012  87.0794997 -12.7440012
  49.5130012  85.8604997 -13.2700012  50.0769081  86.2274830 -12.7190386
  49.0840012  85.3904997  -9.1930012  49.0460012  84.7444997  -8.4880012
  48.7620012  84.9244997  -9.9640012  49.0352333  85.2389408  -9.2007022
  41.4530012  85.0054997  -7.6000012  41.4940012  84.3794997  -6.8770012
  42.1560012  85.6294997  -7.4180012  41.5536363  85.0041196  -7.4763956
  52.7900012  88.3294997 -10.8920012  52.3500012  87.6094997 -10.4410012
  52.7770012  89.0504997 -10.2620012  52.7280226  88.3283731 -10.7451506
  42.3760012  89.4554997  -9.0650012  42.0070012  88.6534997  -9.4350012
  43.3170012  89.2864997  -9.0190012  42.4527289  89.3230153  -9.1093684
  38.9860012  83.1154997 -13.6720012  38.5390012  83.9614997 -13.6910012
  38.4250012  82.5354997 -14.1880012  38.8489900  83.1529916 -13.7443199
  39.6970012  85.2774997 -11.5460012  39.9100012  84.5074997 -11.0190012
  40.4350012  85.3664997 -12.1500012  39.8258496  85.1841394 -11.5554700
  49.9020012  93.4344997 -10.6790012  50.5220012  92.7574997 -10.9530012
  49.6940012  93.2164997  -9.7710012  49.9586904  93.3123870 -10.5936635
  47.4740012  87.8234997  -8.7870012  47.7780012  87.1374997  -9.3820012
  48.1950012  87.9414997  -8.1690012  47.6130671  87.7456305  -8.7848184
  56.1370012  79.4244997  -7.9260012  56.1860012  80.0344997  -7.1900012
  56.5620012  79.8854997  -8.6490012  56.2011824  79.5703741  -7.9229795
  50.6150012  82.2174997  -8.4590012  50.7570012  81.2714997  -8.4390012
  50.5080012  82.4244997  -9.3880012  50.6199864  82.1159534  -8.5817661
  43.7690012  80.3184997 -11.1870012  43.8130012  81.1784997 -11.6050012
  43.3120012  79.7664997 -11.8210012  43.7132185  80.3615799 -11.3299701
  51.4920012  80.4494997 -12.7860012  52.1380012  80.1204997 -12.1610012
  52.0020012  80.9674997 -13.4090012  51.6494264  80.4744611 -12.7846138
  40.3900012  82.7154997 -10.4250012  41.0430012  82.1654997  -9.9930012
  40.4140012  82.4414997 -11.3420012  40.4826683  82.6031466 -10.4897877
  45.5460012  84.2654997 -11.2100012  46.1620012  83.7394997 -10.7000012
  44.9600012  83.6254997 -11.6130012  45.5510810  84.1069208 -11.1946827
  56.5280012  80.9024997  -5.6900012  55.8400012  81.5604997  -5.7860012
  56.5440012  80.7054997  -4.7540012  56.4358525  80.9660462  -5.5765192
  42.5800012  79.2364997  -7.1130012  42.3610012  79.7664997  -7.8790012
  41.9120012  79.4634997  -6.4660012  42.4597600  79.3396906  -7.1303621
  49.9490012  88.7364997 -13.5690012  49.6530012  88.4144997 -14.4200012
  49.6240012  89.6364997 -13.5280012  49.8646371  88.8140215 -13.6798199
  45.1490012  86.9124997  -6.8260012  44.4090012  87.5104997  -6.7220012
  45.8630012  87.4664997  -7.1410012  45.1442237  87.0692831  -6.8543535
  53.2560012  79.7404997 -10.8060012  53.0400012  78.9744997 -10.2730012
  53.9110012  80.2124997 -10.2930012  53.3150632  79.6995889 -10.6637139
  42.1730012  81.1284997  -9.1610012  42.7870012  81.7614997  -8.7870012
  42.6850012  80.6564997  -9.8170012  42.3262296  81.1512370  -9.1985748
  43.5560012  88.8764997  -6.0380012  43.5510012  89.7564997  -6.4160012
  42.7030012  88.7934997  -5.6130012  43.4399464  88.9856117  -6.0322093
  39.6770012  88.5474997 -15.2560012  39.4050012  88.7764997 -16.1450012
  39.7230012  89.3854997 -14.7960012  39.6460094  88.6921213 -15.3154303
  53.3020012  90.1694997  -8.5440012  52.3610012  90.2274997  -8.3820012
  53.5790012  91.0754997  -8.6810012  53.2104679  90.2999443  -8.5403185
  53.6030012  78.4554997  -7.1260012  52.8670012  79.0664997  -7.1640012
  54.2860012  78.8704997  -7.6530012  53.5946541  78.5951374  -7.2024168
  46.6060012  76.5424997  -9.6600012  46.4890012  75.5934997  -9.7150012
  45.7510012  76.8744997  -9.3870012  46.4743733  76.4575409  -9.6306103
  51.5540012  91.9504997 -11.9180012  51.9800012  91.2434997 -12.4030012
  51.8710012  92.7514997 -12.3350012  51.6551019  91.9620994 -12.0406870
  52.7140012  89.8514997 -13.4100012  52.4560012  89.1614997 -14.0210012
  52.7850012  89.4084997 -12.5640012  52.6882856  89.6972124 -13.3793115
  54.4000012  88.4174997  -4.9320012  54.5400012  87.8264997  -5.6720012
  54.5670012  89.2904997  -5.2890012  54.4416778  88.4546426  -5.0813035
  48.8730012  85.3794997 -15.1600012  48.1610012  85.9144997 -15.5120012
  49.5640012  85.4354997 -15.8200012  48.8690132  85.4602543 -15.2973711
  48.9260012  83.8374997 -18.1210012  49.6270012  83.8594997 -17.4700012
  49.2290012  83.2094997 -18.7770012  49.0627830  83.7556566 -18.1206289
  56.2420012  84.7574997  -6.8660012  55.5890012  85.4524997  -6.7770012
  56.7070012  84.9674997  -7.6760012  56.2155390  84.8809425  -6.9633117
  52.2780012  85.5894997 -14.2080012  51.5460012  85.8174997 -13.6350012
  52.7260012  84.8754997 -13.7530012  52.2383095  85.5242571 -14.0680881
  52.1760012  83.7634997  -5.1410012  52.2560012  84.5264997  -4.5690012
  51.5740012  84.0424997  -5.8310012  52.1055756  83.9057134  -5.1559411
  43.9240012  86.2194997 -12.3260012  43.5930012  85.8494997 -13.1440012
  44.5120012  85.5494997 -11.9790012  43.9581873  86.0781156 -12.3911898
  45.2900012  89.6474997  -9.6440012  45.1960012  89.0694997 -10.4010012
  46.0200012  89.2764997  -9.1480012  45.3757981  89.5182390  -9.6805835
  44.2900012  84.9884997  -8.6920012  44.8560012  85.1094997  -9.4550012
  44.6090012  85.6254997  -8.0530012  44.4105786  85.0911884  -8.7099960
  50.5990012  90.4914997  -7.9580012  50.3590012  91.1534997  -7.3100012
  50.4010012  89.6574997  -7.5330012  50.5393808  90.4693134  -7.8118476
  45.1700012  89.3874997  -3.9750012  44.8590012  90.1694997  -3.5200012
  44.5200012  89.2344997  -4.6610012  45.0395558  89.4739105  -4.0054129
  51.1490012  84.7514997 -16.5230012  51.7290012  84.9014997 -15.7760012
  51.5630012  85.2224997 -17.2460012  51.2842830  84.8356841 -16.5185866
  42.0900012  85.5854997  -4.7460012  42.1610012  86.2364997  -4.0480012
  41.2000012  85.6884997  -5.0810012  41.9793117  85.6885936  -4.6957300
  48.8760012  91.4884997 -13.0880012  49.3500012  91.7834997 -12.3100012
  48.3130012  92.2264997 -13.3210012  48.8647653  91.6286932 -13.0129864
  43.4100012  91.4594997  -3.2120012  43.4170012  91.3234997  -4.1590012
  42.4940012  91.3414997  -2.9600012  43.2871714  91.4249430  -3.3075334
  54.8480012  76.5014997 -16.7100012  53.9480012  76.6404997 -16.4150012
  55.1000012  77.3324997 -17.1120012  54.7588702  76.6329074 -16.7239795
  42.9140012  85.2894997 -14.7360012  42.6220012  86.0574997 -15.2270012
  42.2400012  84.6294997 -14.8990012  42.7829081  85.3054406 -14.8252660
  56.0370012  90.8674997 -18.3340012  56.1110012  91.8064997 -18.1630012
  56.9430012  90.5624997 -18.3900012  56.1695100  90.9546722 -18.3181881
  39.0070012  87.6524997  -5.9210012  38.5060012  87.6244997  -6.7360012
  39.0120012  86.7464997  -5.6120012  38.9391526  87.5262278  -5.9907128
  38.7570012  90.4324997  -9.0370012  39.7030012  90.2884997  -9.0560012
  38.6450012  91.2164997  -8.5000012  38.8712727  90.5188046  -8.9669928
  56.9550012  91.0984997  -3.3550012  56.9060012  90.1434997  -3.3920012
  56.1280012  91.3664997  -2.9540012  56.8364940  91.0038998  -3.3058625
  47.9340012  90.6724997  -4.4790012  48.0210012  91.4984997  -4.0040012
  47.0700012  90.3424997  -4.2300012  47.8291964  90.7409878  -4.3803451
  48.3480012  94.4444997 -14.6730012  48.2730012  94.3234997 -15.6190012
  48.3810012  95.3944997 -14.5540012  48.3421848  94.5562500 -14.7865166
  42.0010012  93.2334997 -12.8920012  42.1540012  92.8854997 -12.0130012
  41.1510012  92.8774997 -13.1470012  41.9068962  93.1376650 -12.8061660
  51.4500012  93.5984997 -17.6710012  51.8250012  92.8544997 -18.1410012
  51.4540012  93.3284997 -16.7520012  51.5018915  93.4601486 -17.6112176
  51.1190012  93.5244997 -14.9210012  50.1830012  93.6244997 -14.7430012
  51.3990012  92.8154997 -14.3430012  51.0288255  93.4422711 -14.8184609
  54.1070012  82.5914997  -2.8750012  53.7000012  83.0724997  -3.5960012
  54.1480012  81.6864997  -3.1830012  54.0568437  82.5349374  -3.0153317
  41.2560012  88.9754997  -4.8780012  41.4720012  88.6144997  -4.0190012
  40.4010012  88.6014997  -5.0880012  41.1699292  88.8754111  -4.7886614
  43.8750012  77.4454997  -8.8830012  43.0130012  77.3584997  -9.2900012
  43.8520012  78.3014997  -8.4550012  43.7540330  77.5492765  -8.8808137
  48.5380012  77.1674997  -5.5080012  48.9580012  76.7524997  -4.7550012
  47.6050012  76.9894997  -5.3910012  48.4693644  77.0865900  -5.3890461
  51.8640012  80.9234997  -4.6550012  51.3500012  80.7974997  -3.8570012
  51.7090012  81.8354997  -4.8990012  51.7726852  81.0296132  -4.5787842
  52.6270012  85.7844997 -18.8930012  52.6690012  85.5614997 -19.8230012
  53.4760012  86.1834997 -18.7030012  52.7475396  85.8079155 -18.9946373
  48.1990012  79.6604997 -18.2230012  47.9460012  79.6794997 -17.3000012
  47.9430012  78.7884997 -18.5240012  48.1297790  79.5452437 -18.1373737
  43.9660012  82.4114997  -7.7880012  43.3240012  82.3704997  -7.0790012
  44.0030012  83.3374997  -8.0250012  43.8831324  82.5311559  -7.7230176
  43.9630012  82.6324997 -12.8760012  43.0700012  82.2914997 -12.9340012
  44.4130012  82.2554997 -13.6310012  43.9017305  82.5348484 -12.9860823
  49.4980012  83.0484997 -14.0590012  49.0890012  83.8634997 -14.3500012
  50.2190012  82.9084997 -14.6730012  49.5394537  83.1412018 -14.1818658
  48.6000012  83.2234997  -2.5710012  48.0380012  82.5194997  -2.2500012
  49.4270012  83.1034997  -2.1030012  48.6347095  83.1107883  -2.4637670
  50.5030012  82.4944997 -11.2450012  50.3080012  83.0994997 -11.9600012
  50.6840012  81.6604997 -11.6790012  50.5007614  82.4646300 -11.4015595
  41.7160012  82.7314997  -5.9210012  41.6780012  83.1314997  -5.0520012
  41.2250012  81.9144997  -5.8300012  41.6444684  82.6758069  -5.7898941
  45.0820012  80.1054997 -19.1220012  44.6510012  79.6604997 -18.3920012
  44.3640012  80.4774997 -19.6340012  44.9259438  80.0948940 -19.0913201
  38.3240012  79.8474997 -12.0700012  38.9550012  79.8184997 -11.3510012
  38.7730012  79.4224997 -12.8000012  38.4710774  79.7860492 -12.0703447
  39.5980012  80.5934997 -16.6460012  40.0720012  81.1844997 -17.2310012
  38.8810012  81.1244997 -16.2990012  39.5659341  80.7460867 -16.6791164
  49.7670012  84.1324997  -6.5730012  50.0900012  83.5014997  -7.2160012
  49.3270012  83.5974997  -5.9130012  49.7516895  83.9738441  -6.5717150
  46.5440012  80.0594997 -11.7890012  45.6330012  80.1164997 -11.5010012
  47.0500012  79.9994997 -10.9790012  46.4875413  80.0591985 -11.6399378
  41.3730012  81.6884997 -12.9630012  40.4830012  81.7884997 -13.3030012
  41.6690012  80.8464997 -13.3090012  41.2912823  81.5883545 -13.0562787
  45.0260012  81.6884997 -15.3060012  45.9570012  81.8174997 -15.1280012
  44.8110012  82.3584997 -15.9560012  45.1244247  81.7966565 -15.3694253
  50.9490012  79.2944997  -8.5250012  50.2730012  79.4254997  -7.8610012
  50.4640012  79.1394997  -9.3350012  50.7907145  79.2914905  -8.5435483
  43.7000012  82.8834997 -17.7390012  43.1570012  82.5034997 -18.4310012
  44.5330012  83.0774997 -18.1680012  43.7384399  82.8578124 -17.8915474
  54.2370012  94.9664997  -2.2480012  54.4370012  95.3904997  -3.0830012
  54.8920012  95.3094997  -1.6410012  54.3530051  95.0709648  -2.2802164
  41.8350012  87.4404997  -2.6400012  42.5670012  87.6944997  -2.0790012
  41.0550012  87.6444997  -2.1250012  41.8298232  87.5029177  -2.4934240
  47.8640012  82.8474997  -9.9020012  48.4290012  82.3004997 -10.4490012
  47.7170012  82.3254997  -9.1140012  47.9212918  82.7022024  -9.8701546
  42.8660012  78.9834997 -13.4840012  42.5490012  78.0814997 -13.5190012
  43.6480012  78.9854997 -14.0370012  42.9282284  78.8601628 -13.5635217
  46.4910012  81.2354997  -7.4880012  45.6550012  81.6894997  -7.3780012
  47.0150012  81.5114997  -6.7360012  46.4474414  81.3349376  -7.3712864
  47.0350012  87.4484997 -15.8040012  46.2900012  86.9414997 -16.1260012
  46.9010012  87.4974997 -14.8570012  46.9148776  87.3856940 -15.7201353
  54.1850012  86.5814997  -7.0170012  54.8270012  87.0384997  -7.5610012
  53.3550012  86.6944997  -7.4800012  54.1605963  86.6592704  -7.1539823
  50.9330012  80.2624997 -17.6040012  49.9940012  80.3744997 -17.7560012
  51.2300012  81.1194997 -17.2980012  50.8447666  80.3936443 -17.5834232
  48.5540012  87.6324997  -4.5670012  48.2090012  87.2514997  -3.7600012
  48.3540012  88.5664997  -4.4950012  48.4798061  87.7065228  -4.4469039
  51.6510012  82.1294997 -15.9440012  52.5430012  81.9924997 -15.6250012
  51.7080012  82.9204997 -16.4800012  51.7806285  82.2176660 -15.9728309
  42.1600012  86.7434997 -10.0340012  42.9050012  86.7414997 -10.6350012
  42.2380012  85.9204997  -9.5520012  42.2725518  86.6319315 -10.0511071
  49.1610012  88.9074997 -16.7780012  48.8650012  89.7334997 -16.3970012
  48.4580012  88.2874997 -16.5820012  49.0254914  88.9368199 -16.6993557
  39.1680012  85.2044997  -4.7190012  39.3910012  84.7864997  -3.8870012
  38.5660012  84.5914997  -5.1420012  39.1171759  85.0644668  -4.6622978
  46.1840012  84.7214997  -2.5060012  45.8880012  84.5554997  -3.4010012
  47.1160012  84.5014997  -2.5170012  46.2694166  84.6690640  -2.6299464
  50.8050012  90.0944997  -4.6160012  49.9040012  90.2774997  -4.8840012
  50.8390012  90.3534997  -3.6950012  50.6863041  90.1545512  -4.5281803
  56.5360012  82.3394997 -16.2490012  55.9820012  81.9434997 -16.9210012
  56.6360012  83.2494997 -16.5270012  56.4737059  82.4083586 -16.3785599
  56.4990012  88.1394997  -3.4120012  55.6480012  88.3774997  -3.7790012
  57.0900012  88.1224997  -4.1650012  56.4622487  88.1698258  -3.5641107
  54.8310012  91.1254997 -15.7840012  54.4580012  90.2994997 -15.4750012
  55.1090012  90.9424997 -16.6810012  54.8175630  90.9877303 -15.8630374
  51.9920012  85.9334997  -8.7630012  51.0630012  85.7014997  -8.7900012
  52.4430012  85.1564997  -9.0930012  51.9259216  85.7967238  -8.8113083
  44.5350012  90.2614997 -12.6300012  45.0620012  91.0344997 -12.8300012
  43.6550012  90.4864997 -12.9310012  44.4881773  90.3978005 -12.6980990
  40.2900012  85.1234997 -18.0430012  40.9060012  85.7504997 -17.6630012
  39.4280012  85.4394997 -17.7710012  40.2577698  85.2519430 -17.9542817
  45.9620012  87.9244997 -13.0530012  45.7210012  88.8494997 -13.0120012
  45.2210012  87.4654997 -12.6570012  45.8288409  87.9891421 -12.9938623
  46.4770012  92.0734997  -6.7380012  46.8390012  92.9284997  -6.9720012
  47.0080012  91.7814997  -5.9980012  46.5984473  92.1511060  -6.6699145
  44.6450012  92.9464997 -13.5080012  43.6950012  93.0514997 -13.4570012
  44.9970012  93.7664997 -13.1630012  44.5624203  93.0718314 -13.4543350
  50.0210012  88.1724997  -7.0380012  49.5950012  87.9454997  -6.2110012
  50.6010012  87.4344997  -7.2200012  50.0411868  88.0415299  -6.9494170
  52.2240012  89.1014997 -17.9640012  52.5770012  88.7214997 -17.1590012
  51.2750012  89.0084997 -17.8770012  52.1440441  89.0369596 -17.8421441
  52.6790012  92.7244997  -4.5680012  52.0780012  92.1694997  -5.0640012
  52.9610012  93.3914997  -5.1940012  52.6348519  92.7386841  -4.7205048
  56.7270012  93.5814997 -17.7630012  57.4710012  94.1674997 -17.9030012
  56.0330012  94.1494997 -17.4290012  56.7350292  93.7385582 -17.7370039
  40.8020012  79.9574997  -5.1610012  39.9090012  80.2964997  -5.2290012
  40.7030012  79.1024997  -4.7430012  40.6664164  79.8882588  -5.1137765
  53.0900012  87.7744997 -15.7370012  52.8120012  87.0464997 -15.1810012
  54.0170012  87.8934997 -15.5320012  53.1773124  87.6908802 -15.6331155
  40.4530012  91.7624997  -6.7260012  40.6700012  90.8304997  -6.7570012
  40.6990012  92.0364997  -5.8430012  40.5159549  91.6720636  -6.6108237
  46.3150012  90.2134997 -19.5170012  46.5540012  89.4654997 -20.0640012
  46.0460012  89.8254997 -18.6840012  46.3113675  90.0586638 -19.4793135
  45.2520012  89.7834997 -17.0600012  45.3980012  89.2634997 -16.2700012
  45.2490012  90.6904997 -16.7540012  45.2715989  89.8348853 -16.9103912
  41.7050012  87.0364997 -16.5500012  41.0190012  87.3884997 -15.9830012
  42.2270012  87.7994997 -16.7970012  41.6816852  87.1878578 -16.5057882
  49.5360012  79.6984997  -6.2710012  50.2350012  79.7724997  -5.6210012
  49.1550012  78.8344997  -6.1170012  49.5801767  79.5917624  -6.1611678
  50.3210012  79.3504997 -15.1740012  50.5410012  79.8224997 -15.9770012
  50.8790012  79.7454997 -14.5040012  50.4264968  79.4684285 -15.1932669
  47.9890012  91.4814997 -16.3110012  47.1730012  91.9784997 -16.2590012
  48.5190012  91.9564997 -16.9510012  47.9489161  91.6137722 -16.3904044
  47.5210012  81.0784997 -14.3390012  48.3330012  81.5834997 -14.2930012
  47.2760012  80.9334997 -13.4250012  47.5990520  81.1280375 -14.2091483
  48.0560012  82.0644997  -5.1540012  48.1750012  82.6384997  -4.3970012
  48.7120012  81.3764997  -5.0400012  48.1609757  82.0501079  -5.0349175
  48.4040012  78.1594997 -13.4010012  48.0580012  78.7774997 -12.7560012
  49.0630012  78.6604997 -13.8820012  48.4457826  78.3115802 -13.3779029
  45.3280012  92.5254997 -16.3290012  45.4880012  93.3244997 -16.8300012
  45.1300012  92.8314997 -15.4440012  45.3231649  92.6764469 -16.2780185
  44.0620012  79.2224997 -16.7140012  43.9790012  80.1114997 -16.3670012
  44.9520012  78.9574997 -16.4820012  44.1709469  79.3081430 -16.6352374
  54.2610012  79.9714997  -4.3190012  53.3440012  80.2344997  -4.4070012
  54.5960012  79.9684997  -5.2160012  54.1809900  80.0070224  -4.4522081
  52.8630012  83.7224997 -10.2240012  52.0650012  83.3074997 -10.5520012
  53.3080012  83.0314997  -9.7330012  52.8139885  83.5723543 -10.2025111
  42.3210012  89.6504997 -17.6530012  42.9130012  90.3494997 -17.3770012
  42.7800012  89.2174997 -18.3730012  42.4641142  89.6877049 -17.7125170
  40.6370012  82.3144997 -18.5370012  40.5920012  83.2534997 -18.3590012
  39.7490012  82.0784997 -18.8070012  40.5108574  82.4111892 -18.5491088
  53.9490012  92.9784997  -8.6010012  53.7940012  93.6564997  -9.2580012
  54.8820012  93.0504997  -8.3980012  54.0538500  93.0810170  -8.6634881
  41.4450012  77.0964997  -9.8640012  41.2160012  77.1554997 -10.7920012
  41.0020012  76.3044997  -9.5580012  41.3538530  76.9975753  -9.9495214
  40.3750012  91.0364997 -13.7040012  39.5430012  91.5094997 -13.6760012
  40.9210012  91.5464997 -14.3020012  40.3349739  91.1701871 -13.7810284
  39.6630012  93.6494997  -2.3740012  40.2040012  93.4324997  -1.6140012
  39.1820012  92.8434997  -2.5630012  39.6719345  93.5109514  -2.2956924
  44.2610012  92.5684997  -0.7530012  45.0280012  92.1094997  -0.4120012
  44.2390012  92.3424997  -1.6830012  44.3631434  92.4750409  -0.8319957
  48.3530012  92.0764997 -19.3780012  47.7090012  91.4454997 -19.0570012
  49.1150012  91.5454997 -19.6100012  48.3678077  91.9182920 -19.3653989
  50.8380012  90.9484997  -2.0240012  50.4870012  90.0924997  -1.7810012
  51.5640012  91.0914997  -1.4170012  50.8880769  90.8505636  -1.9086381
  52.9570012  91.8934997 -19.1440012  53.2400012  91.0994997 -18.6920012
  53.6970012  92.1264997 -19.7050012  53.0957486  91.8162803 -19.1579302
  39.5700012  87.4594997  -1.4190012  39.7140012  86.5574997  -1.7060012
  38.7980012  87.7454997  -1.9070012  39.4853322  87.3748261  -1.5242119
  43.9120012  87.8034997 -19.2870012  43.9760012  87.0094997 -18.7560012
  44.5650012  87.6844997 -19.9770012  44.0090241  87.6787148 -19.3075683
  46.2260012  87.4294997  -1.9870012  45.8970012  87.7004997  -2.8440012
  46.3780012  86.4884997  -2.0740012  46.2014809  87.3393862  -2.1161756
  51.9600012  87.3454997  -4.6030012  52.7060012  87.9334997  -4.7230012
  51.2030012  87.9274997  -4.5400012  51.9597554  87.5047011  -4.6109093
  40.4030012  84.6594997  -1.9990012  40.8110012  83.8024997  -2.1200012
  40.1430012  84.6744997  -1.0780012  40.4237568  84.5440807  -1.8910412
  45.0610012  85.7754997 -16.9810012  44.6010012  85.2914997 -16.2950012
  45.3160012  85.1074997 -17.6170012  45.0324902  85.6188731 -16.9730666
  44.3500012  83.6684997  -4.6250012  43.7320012  84.3434997  -4.3450012
  44.6940012  83.9894997  -5.4580012  44.3119615  83.8042721  -4.6993419
  46.1320012  84.0184997 -18.7190012  45.9520012  83.8644997 -19.6460012
  47.0820012  84.1264997 -18.6740012  46.2357776  84.0120175 -18.8398157
  49.3700012  86.1404997  -1.3480012  50.3230012  86.2234997  -1.3750012
  49.2090012  85.4284997  -0.7280012  49.4786426  86.0556746  -1.2679421
  55.5220012  86.3734997 -19.2730012  55.2480012  85.9484997 -20.0860012
  55.5610012  87.3044997 -19.4900012  55.4897699  86.4412484 -19.4136390
  44.6890012  81.0234997  -3.5430012  44.8390012  80.2944997  -4.1450012
  44.6920012  81.8004997  -4.1020012  44.7099302  81.0287851  -3.7009308
  45.1020012  79.3934997  -6.0500012  45.6380012  79.8444997  -6.7020012
  44.2500012  79.2854997  -6.4730012  45.0602178  79.4406390  -6.1964244
  46.6840012  84.8324997  -5.8110012  47.4340012  84.6764997  -6.3840012
  46.3450012  85.6844997  -6.0860012  46.7408921  84.9262968  -5.9266439
  51.0990012  82.6474997  -0.7820012  51.2920012  81.7164997  -0.8940012
  51.9570012  83.0724997  -0.7920012  51.2413020  82.5776389  -0.7986639
  52.4160012  85.4364997  -2.7050012  52.1350012  86.1454997  -3.2820012
  53.3590012  85.3634997  -2.8560012  52.5049027  85.5237646  -2.8044449
  43.1680012  82.2214997  -1.6310012  42.4010012  81.6894997  -1.8410012
  43.8470012  81.9114997  -2.2310012  43.1547022  82.1067506  -1.7408352
  45.9080012  76.8494997  -5.6190012  45.8090012  77.7964997  -5.7240012
  45.1650012  76.4774997  -6.0940012  45.7940564  76.9285902  -5.6975440
  47.1720012  81.1714997  -2.0550012  46.9360012  80.9514997  -1.1530012
  46.3880012  80.9644997  -2.5650012  47.0338628  81.1134760  -2.0006068
  49.8870012  80.2984997  -2.9790012  48.9400012  80.3304997  -2.8470012
  50.2000012  79.6734997  -2.3260012  49.7995475  80.2183207  -2.8725545
  51.5210012  78.9324997  -0.9740012  51.4250012  77.9804997  -0.9800012
  51.2000012  79.2014997  -0.1140012  51.4644070  78.8384035  -0.8584559
  41.3480012  80.1424997  -1.9270012  41.5600012  79.4354997  -2.5370012
  41.2370012  79.7044997  -1.0830012  41.3619721  79.9867084  -1.8963157
  46.1290012  76.1434997  -2.9470012  46.8410012  75.5034997  -2.9610012
  46.0280012  76.4104997  -3.8610012  46.2127939  76.0919938  -3.0724350
  46.4830012  77.8264997  -0.8940012  46.3510012  77.3504997  -1.7140012
  45.8840012  78.5704997  -0.9490012  46.3839071  77.8619618  -1.0137114
  46.0290012  94.7094997 -17.7170012  46.9620012  94.8674997 -17.5740012
  45.7650012  95.3844997 -18.3420012  46.1209510  94.8223611 -17.7819259
  39.5980012  89.3454997 -18.2350012  40.5120012  89.4244997 -17.9610012
  39.6050012  88.6584997 -18.9010012  39.7241131  89.2633961 -18.2875607
  38.2470012  94.7384997 -13.1570012  37.6000012  94.2764997 -13.6900012
  38.6010012  94.0664997 -12.5750012  38.2063849  94.5844723 -13.1512041
  39.1170012  92.8194997 -11.3530012  38.7820012  91.9394997 -11.1810012
  39.3390012  93.1644997 -10.4880012  39.1011783  92.7457500 -11.2125792
  56.6650012  93.6284997  -8.3720012  56.6440012  93.8134997  -7.4330012
  57.3560012  94.1974997  -8.7130012  56.7554618  93.7306606  -8.2896136
  56.2290012  93.1964997  -5.4500012  55.7410012  92.4604997  -5.8210012
  56.7780012  92.8024997  -4.7720012  56.2364872  93.0426249  -5.4090840
  54.6790012  88.9854997  -0.8120012  53.8130012  88.8804997  -0.4180012
  55.0560012  89.7444997  -0.3660012  54.6113308  89.0736900  -0.6977607
  55.9800012  87.2424997 -15.2980012  56.8300012  87.6634997 -15.1710012
  55.9860012  86.5024997 -14.6910012  56.0971372  87.2000803 -15.1985656
  56.3750012  85.2954997 -13.4740012  55.6480012  84.8164997 -13.0770012
  56.9560012  85.5014997 -12.7420012  56.3539375  85.2577090 -13.3205871
  56.1340012  88.0804997  -8.5270012  56.9670012  87.7024997  -8.8070012
  56.2460012  89.0234997  -8.6460012  56.2632647  88.1562218  -8.5814513
  54.6200012  90.9584997  -6.2200012  53.9730012  91.2834997  -5.5940012
  54.1030012  90.5184997  -6.8940012  54.4614029  90.9435004  -6.2254173
  56.6430012  85.1964997 -17.0830012  56.1210012  85.5534997 -17.8020012
  56.6100012  85.8714997 -16.4050012  56.5671634  85.3365413 -17.0896855
  54.9920012  82.4364997 -18.5320012  55.0880012  83.1034997 -19.2130012
  54.8520012  81.6204997 -19.0140012  54.9862135  82.4174500 -18.6901509
  54.1610012  83.8164997 -12.9110012  54.0110012  82.8714997 -12.9320012
  53.8080012  84.0974997 -12.0680012  54.0926625  83.7250441 -12.7997654
  39.1970012  85.8944997  -8.9010012  39.3810012  85.8124997  -9.8370012
  40.0460012  85.7704997  -8.4770012  39.3370139  85.8665003  -8.9718545
  55.0180012  85.7864997  -3.2730012  55.6010012  85.0524997  -3.0810012
  55.5820012  86.5584997  -3.2260012  55.1739769  85.7904227  -3.2403841
  56.5140012  83.6894997  -2.5880012  55.6510012  83.3104997  -2.7540012
  57.1190012  82.9504997  -2.6620012  56.4775979  83.5378023  -2.6207183
  54.2390012  79.8444997 -19.4150012  54.8500012  79.4734997 -18.7780012
  53.4030012  79.4234997 -19.2190012  54.2095032  79.7367554 -19.3012965
  53.8720012  81.3994997 -14.4490012  54.1520012  80.4924997 -14.3250012
  54.6310012  81.8334997 -14.8380012  54.0129277  81.3340942 -14.4846318
  54.4840012  81.9804997  -9.0130012  55.4170012  82.1924997  -9.0470012
  54.2490012  82.0824997  -8.0910012  54.5798036  82.0232769  -8.8930024
  54.5130012  82.7174997  -6.2370012  53.6700012  82.9854997  -5.8710012
  54.9550012  83.5394997  -6.4480012  54.4574158  82.8653291  -6.2154509
  38.7940012  81.1654997  -2.7600012  39.7140012  81.0434997  -2.5240012
  38.3450012  80.4154997  -2.3710012  38.8591580  81.0473727  -2.6750994
  56.7960012  76.6974997  -0.8840012  57.1460012  76.0434997  -1.4890012
  56.9430012  77.5344997  -1.3230012  56.8638419  76.7211591  -1.0262882
  54.4850012  78.6624997 -14.4010012  54.6680012  78.2134997 -13.5750012
  53.8860012  78.0774997 -14.8640012  54.4290202  78.5219975 -14.3506725
  40.0150012  79.4774997  -9.8690012  40.4610012  78.6854997  -9.5670012
  40.4820012  80.1934997  -9.4380012  40.1390172  79.4660624  -9.7695180
  38.3190012  82.4764997  -8.8000012  38.8110012  82.2554997  -9.5910012
  38.6820012  83.3174997  -8.5190012  38.4353126  82.5598357  -8.8702469
  56.3160012  78.8064997  -2.5340012  55.3980012  79.0774997  -2.5700012
  56.4390012  78.2714997  -3.3190012  56.2071066  78.7712892  -2.6449513
  56.3520012  78.7294997 -17.8730012  56.7640012  78.0084997 -18.3480012
  57.0340012  79.3994997 -17.8140012  56.5005885  78.7212368 -17.9301085
  38.6330012  78.7344997 -14.7460012  37.7080012  78.9434997 -14.8750012
  39.0870012  79.2184997 -15.4350012  38.5677368  78.8285993 -14.8568774
  53.4040012  93.7184997 -12.8000012  54.0560012  93.3714997 -13.4080012
  53.9140012  94.2074997 -12.1540012  53.5622637  93.7370597 -12.7959764
  38.5970012  77.4724997  -6.4010012  37.9320012  77.2264997  -5.7580012
  38.1540012  78.0944997  -6.9790012  38.4460956  77.5228632  -6.3910648
  40.7890012  90.6474997  -2.2570012  39.9680012  90.8224997  -2.7170012
  40.5360012  90.5744997  -1.3360012  40.6426164  90.6615622  -2.1955077
  43.7430012  91.6224997  -5.9980012  43.3180012  92.4314997  -6.2810012
  44.6470012  91.7074997  -6.3000012  43.8070271  91.7448469  -6.0776224
  48.0540012  93.0214997  -3.0390012  48.2390012  92.6874997  -2.1610012
  48.9000012  93.3304997  -3.3610012  48.1937539  93.0176047  -2.9624395
  50.3990012  94.3074997  -3.7950012  51.0760012  93.6744997  -4.0350012
  50.7210012  94.7084997  -2.9880012  50.5351637  94.2751154  -3.7187207
  55.3160012  76.8964997  -4.7150012  54.5040012  77.2214997  -5.1030012
  55.5490012  76.1364997  -5.2480012  55.2363423  76.8382436  -4.8401747
  41.1450012  94.8784997  -5.9510012  40.4240012  95.3184997  -6.4020012
  40.7790012  94.6274997  -5.1020012  40.9969804  94.9047698  -5.8980160
  43.6120012  94.4784997  -6.9210012  42.7470012  94.5504997  -6.5170012
  43.5570012  95.0254997  -7.7050012  43.4862085  94.5622685  -6.9716638
  48.3220012  94.3664997  -7.7460012  47.8660012  94.8954997  -8.4000012
  48.4850012  94.9694997  -7.0200012  48.2815585  94.5204468  -7.7374938
  50.6500012  93.2444997  -6.8010012  49.7450012  93.4094997  -7.0660012
  51.0790012  94.0974997  -6.8660012  50.5840799  93.3824483  -6.8460818
  53.2540012  94.8144997  -6.5060012  53.0720012  95.7304997  -6.7160012
  53.4310012  94.4044997  -7.3520012  53.2530210  94.8844822  -6.6492115
  40.5590012  93.5014997  -9.0410012  40.5410012  93.0764997  -8.1830012
  41.3640012  93.1834997  -9.4490012  40.6653875  93.4003812  -8.9788345
  42.7010012  92.2114997 -10.3860012  42.4820012  91.2954997 -10.2160012
  43.5250012  92.3514997  -9.9200012  42.7824420  92.1050520 -10.2997226
  45.2380012  92.6814997  -9.5370012  45.4510012  91.7934997  -9.8240012
  45.3020012  92.6474997  -8.5830012  45.2758232  92.5553102  -9.4472603
  48.7460012  78.3454997 -10.3930012  48.0720012  77.7164997 -10.1370012
  49.3100012  77.8614997 -10.9960012  48.7299230  78.1938744 -10.4394660
  53.8890012  76.4534997 -10.2800012  54.4930012  77.0004997 -10.7820012
  53.0190012  76.7724997 -10.5200012  53.8541241  76.5715806 -10.3812346
  55.6160012  77.5914997 -11.9470012  56.2280012  77.0774997 -12.4730012
  55.9980012  78.4694997 -11.9230012  55.7514540  77.6397140 -12.0158170
  41.0730012  76.9794997 -12.5710012  40.2960012  76.7454997 -13.0780012
  41.6030012  76.1824997 -12.5620012  41.0382330  76.8396988 -12.6392258
  39.9090012  76.7774997 -16.7670012  40.3480012  77.3884997 -17.3590012
  39.2760012  77.3154997 -16.2930012  39.8834514  76.9339257 -16.7839070
  45.6520012  76.9064997 -12.7570012  46.5270012  77.2944997 -12.7870012
  45.5160012  76.6914997 -11.8350012  45.7533695  76.9305184 -12.6363560
  51.2090012  76.9364997 -11.1080012  51.2850012  77.0314997 -12.0580012
  50.9340012  76.0284997 -10.9790012  51.1822321  76.8267867 -11.2204921
  52.5620012  76.9624997 -15.4160012  51.8600012  77.5774997 -15.6250012
  52.1180012  76.1244997 -15.2850012  52.4056330  76.9335783 -15.4269672
  39.8100012  92.7254997 -15.8690012  39.1250012  92.6874997 -16.5370012
  39.8140012  93.6384997 -15.5810012  39.7168193  92.8437016 -15.9214716
  41.7700012  78.6934997 -18.3250012  42.2620012  78.0634997 -18.8520012
  42.3940012  78.9894997 -17.6610012  41.9215446  78.6473199 -18.3074020
  46.7960012  78.9864997 -15.8680012  46.9740012  78.3404997 -15.1850012
  46.7430012  79.8204997 -15.4000012  46.8131829  79.0107985 -15.7114060
  48.6750012  93.9354997 -17.4720012  49.5410012  94.3014997 -17.6500012
  48.4280012  93.4954997 -18.2860012  48.7602392  93.9261756 -17.6063711
  55.3840012  93.4984997 -14.7930012  55.1890012  92.7504997 -15.3580012
  55.3450012  94.2564997 -15.3760012  55.3520380  93.4986099 -14.9491616
  41.0310012  77.4934997  -3.0530012  40.6650012  76.7284997  -2.6100012
  41.9440012  77.5224997  -2.7660012  41.1042790  77.3927224  -2.9535930
  43.0040012  76.8444997  -1.5170012  43.9020012  76.5704997  -1.7020012
  42.6170012  76.1014997  -1.0530012  43.0746612  76.7065914  -1.4796357
  41.6280012  93.6454997 -18.8440012  41.3610012  93.9324997 -17.9710012
  42.4000012  93.0994997 -18.6920012  41.6957488  93.6110294 -18.7038950
  51.4250012  76.1764997  -1.3350012  51.5020012  75.7504997  -0.4810012
  52.3190012  76.1904997  -1.6780012  51.5563428  76.1200879  -1.2644690
  54.6010012  92.2494997  -2.6430012  53.8190012  92.0634997  -3.1620012
  54.5290012  93.1784997  -2.4250012  54.4841777  92.3496492  -2.6845952
  69.0070012  86.1354997 -12.6120012  69.0960012  87.0794997 -12.7440012
  68.3690012  85.8604997 -13.2700012  68.9329081  86.2274830 -12.7190386
  67.9400012  85.3904997  -9.1930012  67.9020012  84.7444997  -8.4880012
  67.6180012  84.9244997  -9.9640012  67.8912333  85.2389408  -9.2007022
  60.3090012  85.0054997  -7.6000012  60.3500012  84.3794997  -6.8770012
  61.0120012  85.6294997  -7.4180012  60.4096363  85.0041196  -7.4763956
  71.6460012  88.3294997 -10.8920012  71.2060012  87.6094997 -10.4410012
  71.6330012  89.0504997 -10.2620012  71.5840226  88.3283731 -10.7451506
  61.2320012  89.4554997  -9.0650012  60.8630012  88.6534997  -9.4350012
  62.1730012  89.2864997  -9.0190012  61.3087289  89.3230153  -9.1093684
  57.8420012  83.1154997 -13.6720012  57.3950012  83.9614997 -13.6910012
  57.2810012  82.5354997 -14.1880012  57.7049900  83.1529916 -13.7443199
  58.5530012  85.2774997 -11.5460012  58.7660012  84.5074997 -11.0190012
  59.2910012  85.3664997 -12.1500012  58.6818496  85.1841394 -11.5554700
  68.7580012  93.4344997 -10.6790012  69.3780012  92.7574997 -10.9530012
  68.5500012  93.2164997  -9.7710012  68.8146904  93.3123870 -10.5936635
  66.3300012  87.8234997  -8.7870012  66.6340012  87.1374997  -9.3820012
  67.0510012  87.9414997  -8.1690012  66.4690671  87.7456305  -8.7848184
  74.9930012  79.4244997  -7.9260012  75.0420012  80.0344997  -7.1900012
  75.4180012  79.8854997  -8.6490012  75.0571824  79.5703741  -7.9229795
  69.4710012  82.2174997  -8.4590012  69.6130012  81.2714997  -8.4390012
  69.3640012  82.4244997  -9.3880012  69.4759864  82.1159534  -8.5817661
  62.6250012  80.3184997 -11.1870012  62.6690012  81.1784997 -11.6050012
  62.1680012  79.7664997 -11.8210012  62.5692185  80.3615799 -11.3299701
  70.3480012  80.4494997 -12.7860012  70.9940012  80.1204997 -12.1610012
  70.8580012  80.9674997 -13.4090012  70.5054264  80.4744611 -12.7846138
  59.2460012  82.7154997 -10.4250012  59.8990012  82.1654997  -9.9930012
  59.2700012  82.4414997 -11.3420012  59.3386683  82.6031466 -10.4897877
  64.4020012  84.2654997 -11.2100012  65.0180012  83.7394997 -10.7000012
  63.8160012  83.6254997 -11.6130012  64.4070810  84.1069208 -11.1946827
  75.3840012  80.9024997  -5.6900012  74.6960012  81.5604997  -5.7860012
  75.4000012  80.7054997  -4.7540012  75.2918525  80.9660462  -5.5765192
  61.4360012  79.2364997  -7.1130012  61.2170012  79.7664997  -7.8790012
  60.7680012  79.4634997  -6.4660012  61.3157600  79.3396906  -7.1303621
  68.8050012  88.7364997 -13.5690012  68.5090012  88.4144997 -14.4200012
  68.4800012  89.6364997 -13.5280012  68.7206371  88.8140215 -13.6798199
  64.0050012  86.9124997  -6.8260012  63.2650012  87.5104997  -6.7220012
  64.7190012  87.4664997  -7.1410012  64.0002237  87.0692831  -6.8543535
  72.1120012  79.7404997 -10.8060012  71.8960012  78.9744997 -10.2730012
  72.7670012  80.2124997 -10.2930012  72.1710632  79.6995889 -10.6637139
  61.0290012  81.1284997  -9.1610012  61.6430012  81.7614997  -8.7870012
  61.5410012  80.6564997  -9.8170012  61.1822296  81.1512370  -9.1985748
  62.4120012  88.8764997  -6.0380012  62.4070012  89.7564997  -6.4160012
  61.5590012  88.7934997  -5.6130012  62.2959464  88.9856117  -6.0322093
  58.5330012  88.5474997 -15.2560012  58.2610012  88.7764997 -16.1450012
  58.5790012  89.3854997 -14.7960012  58.5020094  88.6921213 -15.3154303
  72.1580012  90.1694997  -8.5440012  71.2170012  90.2274997  -8.3820012
  72.4350012  91.0754997  -8.6810012  72.0664679  90.2999443  -8.5403185
  72.4590012  78.4554997  -7.1260012  71.7230012  79.0664997  -7.1640012
  73.1420012  78.8704997  -7.6530012  72.4506541  78.5951374  -7.2024168
  65.4620012  76.5424997  -9.6600012  65.3450012  75.5934997  -9.7150012
  64.6070012  76.8744997  -9.3870012  65.3303733  76.4575409  -9.6306103
  70.4100012  91.9504997 -11.9180012  70.8360012  91.2434997 -12.4030012
  70.7270012  92.7514997 -12.3350012  70.5111019  91.9620994 -12.0406870
  71.5700012  89.8514997 -13.4100012  71.3120012  89.1614997 -14.0210012
  71.6410012  89.4084997 -12.5640012  71.5442856  89.6972124 -13.3793115
  73.2560012  88.4174997  -4.9320012  73.3960012  87.8264997  -5.6720012
  73.4230012  89.2904997  -5.2890012  73.2976778  88.4546426  -5.0813035
  67.7290012  85.3794997 -15.1600012  67.0170012  85.9144997 -15.5120012
  68.4200012  85.4354997 -15.8200012  67.7250132  85.4602543 -15.2973711
  67.7820012  83.8374997 -18.1210012  68.4830012  83.8594997 -17.4700012
  68.0850012  83.2094997 -18.7770012  67.9187830  83.7556566 -18.1206289
  75.0980012  84.7574997  -6.8660012  74.4450012  85.4524997  -6.7770012
  75.5630012  84.9674997  -7.6760012  75.0715390  84.8809425  -6.9633117
  71.1340012  85.5894997 -14.2080012  70.4020012  85.8174997 -13.6350012
  71.5820012  84.8754997 -13.7530012  71.0943095  85.5242571 -14.0680881
  71.0320012  83.7634997  -5.1410012  71.1120012  84.5264997  -4.5690012
  70.4300012  84.0424997  -5.8310012  70.9615756  83.9057134  -5.1559411
  62.7800012  86.2194997 -12.3260012  62.4490012  85.8494997 -13.1440012
  63.3680012  85.5494997 -11.9790012  62.8141873  86.0781156 -12.3911898
  64.1460012  89.6474997  -9.6440012  64.0520012  89.0694997 -10.4010012
  64.8760012  89.2764997  -9.1480012  64.2317981  89.5182390  -9.6805835
  63.1460012  84.9884997  -8.6920012  63.7120012  85.1094997  -9.4550012
  63.4650012  85.6254997  -8.0530012  63.2665786  85.0911884  -8.7099960
  69.4550012  90.4914997  -7.9580012  69.2150012  91.1534997  -7.3100012
  69.2570012  89.6574997  -7.5330012  69.3953808  90.4693134  -7.8118476
  64.0260012  89.3874997  -3.9750012  63.7150012  90.1694997  -3.5200012
  63.3760012  89.2344997  -4.6610012  63.8955558  89.4739105  -4.0054129
  70.0050012  84.7514997 -16.5230012  70.5850012  84.9014997 -15.7760012
  70.4190012  85.2224997 -17.2460012  70.1402830  84.8356841 -16.5185866
  60.9460012  85.5854997  -4.7460012  61.0170012  86.2364997  -4.0480012
  60.0560012  85.6884997  -5.0810012  60.8353117  85.6885936  -4.6957300
  67.7320012  91.4884997 -13.0880012  68.2060012  91.7834997 -12.3100012
  67.1690012  92.2264997 -13.3210012  67.7207653  91.6286932 -13.0129864
  62.2660012  91.4594997  -3.2120012  62.2730012  91.3234997  -4.1590012
  61.3500012  91.3414997  -2.9600012  62.1431714  91.4249430  -3.3075334
  73.7040012  76.5014997 -16.7100012  72.8040012  76.6404997 -16.4150012
  73.9560012  77.3324997 -17.1120012  73.6148702  76.6329074 -16.7239795
  61.7700012  85.2894997 -14.7360012  61.4780012  86.0574997 -15.2270012
  61.0960012  84.6294997 -14.8990012  61.6389081  85.3054406 -14.8252660
  74.8930012  90.8674997 -18.3340012  74.9670012  91.8064997 -18.1630012
  75.7990012  90.5624997 -18.3900012  75.0255100  90.9546722 -18.3181881
  57.8630012  87.6524997  -5.9210012  57.3620012  87.6244997  -6.7360012
  57.8680012  86.7464997  -5.6120012  57.7951526  87.5262278  -5.9907128
  57.6130012  90.4324997  -9.0370012  58.5590012  90.2884997  -9.0560012
  57.5010012  91.2164997  -8.5000012  57.7272727  90.5188046  -8.9669928
  75.8110012  91.0984997  -3.3550012  75.7620012  90.1434997  -3.3920012
  74.9840012  91.3664997  -2.9540012  75.6924940  91.0038998  -3.3058625
  66.7900012  90.6724997  -4.4790012  66.8770012  91.4984997  -4.0040012
  65.9260012  90.3424997  -4.2300012  66.6851964  90.7409878  -4.3803451
  67.2040012  94.4444997 -14.6730012  67.1290012  94.3234997 -15.6190012
  67.2370012  95.3944997 -14.5540012  67.1981848  94.5562500 -14.7865166
  60.8570012  93.2334997 -12.8920012  61.0100012  92.8854997 -12.0130012
  60.0070012  92.8774997 -13.1470012  60.7628962  93.1376650 -12.8061660
  70.3060012  93.5984997 -17.6710012  70.6810012  92.8544997 -18.1410012
  70.3100012  93.3284997 -16.7520012  70.3578915  93.4601486 -17.6112176
  69.9750012  93.5244997 -14.9210012  69.0390012  93.6244997 -14.7430012
  70.2550012  92.8154997 -14.3430012  69.8848255  93.4422711 -14.8184609
  72.9630012  82.5914997  -2.8750012  72.5560012  83.0724997  -3.5960012
  73.0040012  81.6864997  -3.1830012  72.9128437  82.5349374  -3.0153317
  60.1120012  88.9754997  -4.8780012  60.3280012  88.6144997  -4.0190012
  59.2570012  88.6014997  -5.0880012  60.0259292  88.8754111  -4.7886614
  62.7310012  77.4454997  -8.8830012  61.8690012  77.3584997  -9.2900012
  62.7080012  78.3014997  -8.4550012  62.6100330  77.5492765  -8.8808137
  67.3940012  77.1674997  -5.5080012  67.8140012  76.7524997  -4.7550012
  66.4610012  76.9894997  -5.3910012  67.3253644  77.0865900  -5.3890461
  70.7200012  80.9234997  -4.6550012  70.2060012  80.7974997  -3.8570012
  70.5650012  81.8354997  -4.8990012  70.6286852  81.0296132  -4.5787842
  71.4830012  85.7844997 -18.8930012  71.5250012  85.5614997 -19.8230012
  72.3320012  86.1834997 -18.7030012  71.6035396  85.8079155 -18.9946373
  67.0550012  79.6604997 -18.2230012  66.8020012  79.6794997 -17.3000012
  66.7990012  78.7884997 -18.5240012  66.9857790  79.5452437 -18.1373737
  62.8220012  82.4114997  -7.7880012  62.1800012  82.3704997  -7.0790012
  62.8590012  83.3374997  -8.0250012  62.7391324  82.5311559  -7.7230176
  62.8190012  82.6324997 -12.8760012  61.9260012  82.2914997 -12.9340012
  63.2690012  82.2554997 -13.6310012  62.7577305  82.5348484 -12.9860823
  68.3540012  83.0484997 -14.0590012  67.9450012  83.8634997 -14.3500012
  69.0750012  82.9084997 -14.6730012  68.3954537  83.1412018 -14.1818658
  67.4560012  83.2234997  -2.5710012  66.8940012  82.5194997  -2.2500012
  68.2830012  83.1034997  -2.1030012  67.4907095  83.1107883  -2.4637670
  69.3590012  82.4944997 -11.2450012  69.1640012  83.0994997 -11.9600012
  69.5400012  81.6604997 -11.6790012  69.3567614  82.4646300 -11.4015595
  60.5720012  82.7314997  -5.9210012  60.5340012  83.1314997  -5.0520012
  60.0810012  81.9144997  -5.8300012  60.5004684  82.6758069  -5.7898941
  63.9380012  80.1054997 -19.1220012  63.5070012  79.6604997 -18.3920012
  63.2200012  80.4774997 -19.6340012  63.7819438  80.0948940 -19.0913201
  57.1800012  79.8474997 -12.0700012  57.8110012  79.8184997 -11.3510012
  57.6290012  79.4224997 -12.8000012  57.3270774  79.7860492 -12.0703447
  58.4540012  80.5934997 -16.6460012  58.9280012  81.1844997 -17.2310012
  57.7370012  81.1244997 -16.2990012  58.4219341  80.7460867 -16.6791164
  68.6230012  84.1324997  -6.5730012  68.9460012  83.5014997  -7.2160012
  68.1830012  83.5974997  -5.9130012  68.6076895  83.9738441  -6.5717150
  65.4000012  80.0594997 -11.7890012  64.4890012  80.1164997 -11.5010012
  65.9060012  79.9994997 -10.9790012  65.3435413  80.0591985 -11.6399378
  60.2290012  81.6884997 -12.9630012  59.3390012  81.7884997 -13.3030012
  60.5250012  80.8464997 -13.3090012  60.1472823  81.5883545 -13.0562787
  63.8820012  81.6884997 -15.3060012  64.8130012  81.8174997 -15.1280012
  63.6670012  82.3584997 -15.9560012  63.9804247  81.7966565 -15.3694253
  69.8050012  79.2944997  -8.5250012  69.1290012  79.4254997  -7.8610012
  69.3200012  79.1394997  -9.3350012  69.6467145  79.2914905  -8.5435483
  62.5560012  82.8834997 -17.7390012  62.0130012  82.5034997 -18.4310012
  63.3890012  83.0774997 -18.1680012  62.5944399  82.8578124 -17.8915474
  73.0930012  94.9664997  -2.2480012  73.2930012  95.3904997  -3.0830012
  73.7480012  95.3094997  -1.6410012  73.2090051  95.0709648  -2.2802164
  60.6910012  87.4404997  -2.6400012  61.4230012  87.6944997  -2.0790012
  59.9110012  87.6444997  -2.1250012  60.6858232  87.5029177  -2.4934240
  66.7200012  82.8474997  -9.9020012  67.2850012  82.3004997 -10.4490012
  66.5730012  82.3254997  -9.1140012  66.7772918  82.7022024  -9.8701546
  61.7220012  78.9834997 -13.4840012  61.4050012  78.0814997 -13.5190012
  62.5040012  78.9854997 -14.0370012  61.7842284  78.8601628 -13.5635217
  65.3470012  81.2354997  -7.4880012  64.5110012  81.6894997  -7.3780012
  65.8710012  81.5114997  -6.7360012  65.3034414  81.3349376  -7.3712864
  65.8910012  87.4484997 -15.8040012  65.1460012  86.9414997 -16.1260012
  65.7570012  87.4974997 -14.8570012  65.7708776  87.3856940 -15.7201353
  73.0410012  86.5814997  -7.0170012  73.6830012  87.0384997  -7.5610012
  72.2110012  86.6944997  -7.4800012  73.0165963  86.6592704  -7.1539823
  69.7890012  80.2624997 -17.6040012  68.8500012  80.3744997 -17.7560012
  70.0860012  81.1194997 -17.2980012  69.7007666  80.3936443 -17.5834232
  67.4100012  87.6324997  -4.5670012  67.0650012  87.2514997  -3.7600012
  67.2100012  88.5664997  -4.4950012  67.3358061  87.7065228  -4.4469039
  70.5070012  82.1294997 -15.9440012  71.3990012  81.9924997 -15.6250012
  70.5640012  82.9204997 -16.4800012  70.6366285  82.2176660 -15.9728310
  61.0160012  86.7434997 -10.0340012  61.7610012  86.7414997 -10.6350012
  61.0940012  85.9204997  -9.5520012  61.1285518  86.6319315 -10.0511071
  68.0170012  88.9074997 -16.7780012  67.7210012  89.7334997 -16.3970012
  67.3140012  88.2874997 -16.5820012  67.8814914  88.9368199 -16.6993557
  58.0240012  85.2044997  -4.7190012  58.2470012  84.7864997  -3.8870012
  57.4220012  84.5914997  -5.1420012  57.9731759  85.0644668  -4.6622978
  65.0400012  84.7214997  -2.5060012  64.7440012  84.5554997  -3.4010012
  65.9720012  84.5014997  -2.5170012  65.1254166  84.6690640  -2.6299464
  69.6610012  90.0944997  -4.6160012  68.7600012  90.2774997  -4.8840012
  69.6950012  90.3534997  -3.6950012  69.5423041  90.1545512  -4.5281803
  75.3920012  82.3394997 -16.2490012  74.8380012  81.9434997 -16.9210012
  75.4920012  83.2494997 -16.5270012  75.3297059  82.4083586 -16.3785599
  75.3550012  88.1394997  -3.4120012  74.5040012  88.3774997  -3.7790012
  75.9460012  88.1224997  -4.1650012  75.3182487  88.1698258  -3.5641107
  73.6870012  91.1254997 -15.7840012  73.3140012  90.2994997 -15.4750012
  73.9650012  90.9424997 -16.6810012  73.6735630  90.9877303 -15.8630374
  70.8480012  85.9334997  -8.7630012  69.9190012  85.7014997  -8.7900012
  71.2990012  85.1564997  -9.0930012  70.7819216  85.7967238  -8.8113083
  63.3910012  90.2614997 -12.6300012  63.9180012  91.0344997 -12.8300012
  62.5110012  90.4864997 -12.9310012  63.3441773  90.3978005 -12.6980990
  59.1460012  85.1234997 -18.0430012  59.7620012  85.7504997 -17.6630012
  58.2840012  85.4394997 -17.7710012  59.1137698  85.2519430 -17.9542817
  64.8180012  87.9244997 -13.0530012  64.5770012  88.8494997 -13.0120012
  64.0770012  87.4654997 -12.6570012  64.6848409  87.9891421 -12.9938623
  65.3330012  92.0734997  -6.7380012  65.6950012  92.9284997  -6.9720012
  65.8640012  91.7814997  -5.9980012  65.4544473  92.1511060  -6.6699145
  63.5010012  92.9464997 -13.5080012  62.5510012  93.0514997 -13.4570012
  63.8530012  93.7664997 -13.1630012  63.4184203  93.0718314 -13.4543350
  68.8770012  88.1724997  -7.0380012  68.4510012  87.9454997  -6.2110012
  69.4570012  87.4344997  -7.2200012  68.8971868  88.0415299  -6.9494170
  71.0800012  89.1014997 -17.9640012  71.4330012  88.7214997 -17.1590012
  70.1310012  89.0084997 -17.8770012  71.0000441  89.0369596 -17.8421441
  71.5350012  92.7244997  -4.5680012  70.9340012  92.1694997  -5.0640012
  71.8170012  93.3914997  -5.1940012  71.4908519  92.7386841  -4.7205048
  75.5830012  93.5814997 -17.7630012  76.3270012  94.1674997 -17.9030012
  74.8890012  94.1494997 -17.4290012  75.5910292  93.7385582 -17.7370039
  59.6580012  79.9574997  -5.1610012  58.7650012  80.2964997  -5.2290012
  59.5590012  79.1024997  -4.7430012  59.5224164  79.8882588  -5.1137765
  71.9460012  87.7744997 -15.7370012  71.6680012  87.0464997 -15.1810012
  72.8730012  87.8934997 -15.5320012  72.0333124  87.6908802 -15.6331155
  59.3090012  91.7624997  -6.7260012  59.5260012  90.8304997  -6.7570012
  59.5550012  92.0364997  -5.8430012  59.3719549  91.6720636  -6.6108237
  65.1710012  90.2134997 -19.5170012  65.4100012  89.4654997 -20.0640012
  64.9020012  89.8254997 -18.6840012  65.1673675  90.0586638 -19.4793135
  64.1080012  89.7834997 -17.0600012  64.2540012  89.2634997 -16.2700012
  64.1050012  90.6904997 -16.7540012  64.1275989  89.8348853 -16.9103912
  60.5610012  87.0364997 -16.5500012  59.8750012  87.3884997 -15.9830012
  61.0830012  87.7994997 -16.7970012  60.5376852  87.1878578 -16.5057882
  68.3920012  79.6984997  -6.2710012  69.0910012  79.7724997  -5.6210012
  68.0110012  78.8344997  -6.1170012  68.4361767  79.5917624  -6.1611678
  69.1770012  79.3504997 -15.1740012  69.3970012  79.8224997 -15.9770012
  69.7350012  79.7454997 -14.5040012  69.2824968  79.4684285 -15.1932669
  66.8450012  91.4814997 -16.3110012  66.0290012  91.9784997 -16.2590012
  67.3750012  91.9564997 -16.9510012  66.8049161  91.6137722 -16.3904044
  66.3770012  81.0784997 -14.3390012  67.1890012  81.5834997 -14.2930012
  66.1320012  80.9334997 -13.4250012  66.4550520  81.1280375 -14.2091483
  66.9120012  82.0644997  -5.1540012  67.0310012  82.6384997  -4.3970012
  67.5680012  81.3764997  -5.0400012  67.0169757  82.0501079  -5.0349175
  67.2600012  78.1594997 -13.4010012  66.9140012  78.7774997 -12.7560012
  67.9190012  78.6604997 -13.8820012  67.3017826  78.3115802 -13.3779029
  64.1840012  92.5254997 -16.3290012  64.3440012  93.3244997 -16.8300012
  63.9860012  92.8314997 -15.4440012  64.1791649  92.6764469 -16.2780185
  62.9180012  79.2224997 -16.7140012  62.8350012  80.1114997 -16.3670012
  63.8080012  78.9574997 -16.4820012  63.0269469  79.3081430 -16.6352374
  73.1170012  79.9714997  -4.3190012  72.2000012  80.2344997  -4.4070012
  73.4520012  79.9684997  -5.2160012  73.0369900  80.0070224  -4.4522081
  71.7190012  83.7224997 -10.2240012  70.9210012  83.3074997 -10.5520012
  72.1640012  83.0314997  -9.7330012  71.6699885  83.5723543 -10.2025111
  61.1770012  89.6504997 -17.6530012  61.7690012  90.3494997 -17.3770012
  61.6360012  89.2174997 -18.3730012  61.3201142  89.6877049 -17.7125170
  59.4930012  82.3144997 -18.5370012  59.4480012  83.2534997 -18.3590012
  58.6050012  82.0784997 -18.8070012  59.3668574  82.4111892 -18.5491088
  72.8050012  92.9784997  -8.6010012  72.6500012  93.6564997  -9.2580012
  73.7380012  93.0504997  -8.3980012  72.9098500  93.0810170  -8.6634881
  60.3010012  77.0964997  -9.8640012  60.0720012  77.1554997 -10.7920012
  59.8580012  76.3044997  -9.5580012  60.2098530  76.9975753  -9.9495214
  59.2310012  91.0364997 -13.7040012  58.3990012  91.5094997 -13.6760012
  59.7770012  91.5464997 -14.3020012  59.1909739  91.1701871 -13.7810284
  58.5190012  93.6494997  -2.3740012  59.0600012  93.4324997  -1.6140012
  58.0380012  92.8434997  -2.5630012  58.5279345  93.5109514  -2.2956924
  63.1170012  92.5684997  -0.7530012  63.8840012  92.1094997  -0.4120012
  63.0950012  92.3424997  -1.6830012  63.2191434  92.4750409  -0.8319957
  67.2090012  92.0764997 -19.3780012  66.5650012  91.4454997 -19.0570012
  67.9710012  91.5454997 -19.6100012  67.2238077  91.9182920 -19.3653989
  69.6940012  90.9484997  -2.0240012  69.3430012  90.0924997  -1.7810012
  70.4200012  91.0914997  -1.4170012  69.7440769  90.8505636  -1.9086381
  71.8130012  91.8934997 -19.1440012  72.0960012  91.0994997 -18.6920012
  72.5530012  92.1264997 -19.7050012  71.9517486  91.8162803 -19.1579302
  58.4260012  87.4594997  -1.4190012  58.5700012  86.5574997  -1.7060012
  57.6540012  87.7454997  -1.9070012  58.3413323  87.3748261  -1.5242119
  62.7680012  87.8034997 -19.2870012  62.8320012  87.0094997 -18.7560012
  63.4210012  87.6844997 -19.9770012  62.8650241  87.6787148 -19.3075683
  65.0820012  87.4294997  -1.9870012  64.7530012  87.7004997  -2.8440012
  65.2340012  86.4884997  -2.0740012  65.0574809  87.3393862  -2.1161756
  70.8160012  87.3454997  -4.6030012  71.5620012  87.9334997  -4.7230012
  70.0590012  87.9274997  -4.5400012  70.8157554  87.5047011  -4.6109093
  59.2590012  84.6594997  -1.9990012  59.6670012  83.8024997  -2.1200012
  58.9990012  84.6744997  -1.0780012  59.2797568  84.5440807  -1.8910412
  63.9170012  85.7754997 -16.9810012  63.4570012  85.2914997 -16.2950012
  64.1720012  85.1074997 -17.6170012  63.8884902  85.6188731 -16.9730666
  63.2060012  83.6684997  -4.6250012  62.5880012  84.3434997  -4.3450012
  63.5500012  83.9894997  -5.4580012  63.1679615  83.8042721  -4.6993419
  64.9880012  84.0184997 -18.7190012  64.8080012  83.8644997 -19.6460012
  65.9380012  84.1264997 -18.6740012  65.0917776  84.0120175 -18.8398157
  68.2260012  86.1404997  -1.3480012  69.1790012  86.2234997  -1.3750012
  68.0650012  85.4284997  -0.7280012  68.3346426  86.0556746  -1.2679421
  74.3780012  86.3734997 -19.2730012  74.1040012  85.9484997 -20.0860012
  74.4170012  87.3044997 -19.4900012  74.3457699  86.4412484 -19.4136390
  63.5450012  81.0234997  -3.5430012  63.6950012  80.2944997  -4.1450012
  63.5480012  81.8004997  -4.1020012  63.5659302  81.0287851  -3.7009308
  63.9580012  79.3934997  -6.0500012  64.4940012  79.8444997  -6.7020012
  63.1060012  79.2854997  -6.4730012  63.9162178  79.4406390  -6.1964244
  65.5400012  84.8324997  -5.8110012  66.2900012  84.6764997  -6.3840012
  65.2010012  85.6844997  -6.0860012  65.5968921  84.9262968  -5.9266439
  69.9550012  82.6474997  -0.7820012  70.1480012  81.7164997  -0.8940012
  70.8130012  83.0724997  -0.7920012  70.0973020  82.5776389  -0.7986639
  71.2720012  85.4364997  -2.7050012  70.9910012  86.1454997  -3.2820012
  72.2150012  85.3634997  -2.8560012  71.3609027  85.5237646  -2.8044449
  62.0240012  82.2214997  -1.6310012  61.2570012  81.6894997  -1.8410012
  62.7030012  81.9114997  -2.2310012  62.0107022  82.1067506  -1.7408352
  64.7640012  76.8494997  -5.6190012  64.6650012  77.7964997  -5.7240012
  64.0210012  76.4774997  -6.0940012  64.6500564  76.9285902  -5.6975440
  66.0280012  81.1714997  -2.0550012  65.7920012  80.9514997  -1.1530012
  65.2440012  80.9644997  -2.5650012  65.8898628  81.1134760  -2.0006068
  68.7430012  80.2984997  -2.9790012  67.7960012  80.3304997  -2.8470012
  69.0560012  79.6734997  -2.3260012  68.6555475  80.2183207  -2.8725545
  70.3770012  78.9324997  -0.9740012  70.2810012  77.9804997  -0.9800012
  70.0560012  79.2014997  -0.1140012  70.3204070  78.8384035  -0.8584559
  60.2040012  80.1424997  -1.9270012  60.4160012  79.4354997  -2.5370012
  60.0930012  79.7044997  -1.0830012  60.2179721  79.9867084  -1.8963157
  64.9850012  76.1434997  -2.9470012  65.6970012  75.5034997  -2.9610012
  64.8840012  76.4104997  -3.8610012  65.0687939  76.0919938  -3.0724350
  65.3390012  77.8264997  -0.8940012  65.2070012  77.3504997  -1.7140012
  64.7400012  78.5704997  -0.9490012  65.2399071  77.8619618  -1.0137114
  64.8850012  94.7094997 -17.7170012  65.8180012  94.8674997 -17.5740012
  64.6210012  95.3844997 -18.3420012  64.9769510  94.8223611 -17.7819259
  58.4540012  89.3454997 -18.2350012  59.3680012  89.4244997 -17.9610012
  58.4610012  88.6584997 -18.9010012  58.5801131  89.2633961 -18.2875607
  57.1030012  94.7384997 -13.1570012  56.4560012  94.2764997 -13.6900012
  57.4570012  94.0664997 -12.5750012  57.0623849  94.5844723 -13.1512041
  57.9730012  92.8194997 -11.3530012  57.6380012  91.9394997 -11.1810012
  58.1950012  93.1644997 -10.4880012  57.9571783  92.7457500 -11.2125792
  75.5210012  93.6284997  -8.3720012  75.5000012  93.8134997  -7.4330012
  76.2120012  94.1974997  -8.7130012  75.6114618  93.7306606  -8.2896136
  75.0850012  93.1964997  -5.4500012  74.5970012  92.4604997  -5.8210012
  75.6340012  92.8024997  -4.7720012  75.0924872  93.0426249  -5.4090840
  73.5350012  88.9854997  -0.8120012  72.6690012  88.8804997  -0.4180012
  73.9120012  89.7444997  -0.3660012  73.4673308  89.0736900  -0.6977607
  74.8360012  87.2424997 -15.2980012  75.6860012  87.6634997 -15.1710012
  74.8420012  86.5024997 -14.6910012  74.9531372  87.2000803 -15.1985656
  75.2310012  85.2954997 -13.4740012  74.5040012  84.8164997 -13.0770012
  75.8120012  85.5014997 -12.7420012  75.2099375  85.2577090 -13.3205871
  74.9900012  88.0804997  -8.5270012  75.8230012  87.7024997  -8.8070012
  75.1020012  89.0234997  -8.6460012  75.1192647  88.1562218  -8.5814513
  73.4760012  90.9584997  -6.2200012  72.8290012  91.2834997  -5.5940012
  72.9590012  90.5184997  -6.8940012  73.3174029  90.9435004  -6.2254173
  75.4990012  85.1964997 -17.0830012  74.9770012  85.5534997 -17.8020012
  75.4660012  85.8714997 -16.4050012  75.4231634  85.3365413 -17.0896855
  73.8480012  82.4364997 -18.5320012  73.9440012  83.1034997 -19.2130012
  73.7080012  81.6204997 -19.0140012  73.8422135  82.4174500 -18.6901509
  73.0170012  83.8164997 -12.9110012  72.8670012  82.8714997 -12.9320012
  72.6640012  84.0974997 -12.0680012  72.9486625  83.7250441 -12.7997654
  58.0530012  85.8944997  -8.9010012  58.2370012  85.8124997  -9.8370012
  58.9020012  85.7704997  -8.4770012  58.1930139  85.8665003  -8.9718545
  73.8740012  85.7864997  -3.2730012  74.4570012  85.0524997  -3.0810012
  74.4380012  86.5584997  -3.2260012  74.0299769  85.7904227  -3.2403841
  75.3700012  83.6894997  -2.5880012  74.5070012  83.3104997  -2.7540012
  75.9750012  82.9504997  -2.6620012  75.3335979  83.5378023  -2.6207183
  73.0950012  79.8444997 -19.4150012  73.7060012  79.4734997 -18.7780012
  72.2590012  79.4234997 -19.2190012  73.0655032  79.7367554 -19.3012965
  72.7280012  81.3994997 -14.4490012  73.0080012  80.4924997 -14.3250012
  73.4870012  81.8334997 -14.8380012  72.8689277  81.3340942 -14.4846318
  73.3400012  81.9804997  -9.0130012  74.2730012  82.1924997  -9.0470012
  73.1050012  82.0824997  -8.0910012  73.4358036  82.0232769  -8.8930024
  73.3690012  82.7174997  -6.2370012  72.5260012  82.9854997  -5.8710012
  73.8110012  83.5394997  -6.4480012  73.3134158  82.8653291  -6.2154509
  57.6500012  81.1654997  -2.7600012  58.5700012  81.0434997  -2.5240012
  57.2010012  80.4154997  -2.3710012  57.7151580  81.0473727  -2.6750994
  75.6520012  76.6974997  -0.8840012  76.0020012  76.0434997  -1.4890012
  75.7990012  77.5344997  -1.3230012  75.7198419  76.7211591  -1.0262882
  73.3410012  78.6624997 -14.4010012  73.5240012  78.2134997 -13.5750012
  72.7420012  78.0774997 -14.8640012  73.2850202  78.5219975 -14.3506725
  58.8710012  79.4774997  -9.8690012  59.3170012  78.6854997  -9.5670012
  59.3380012  80.1934997  -9.4380012  58.9950172  79.4660624  -9.7695180
  57.1750012  82.4764997  -8.8000012  57.6670012  82.2554997  -9.5910012
  57.5380012  83.3174997  -8.5190012  57.2913126  82.5598357  -8.8702469
  75.1720012  78.8064997  -2.5340012  74.2540012  79.0774997  -2.5700012
  75.2950012  78.2714997  -3.3190012  75.0631066  78.7712892  -2.6449513
  75.2080012  78.7294997 -17.8730012  75.6200012  78.0084997 -18.3480012
  75.8900012  79.3994997 -17.8140012  75.3565885  78.7212368 -17.9301085
  57.4890012  78.7344997 -14.7460012  56.5640012  78.9434997 -14.8750012
  57.9430012  79.2184997 -15.4350012  57.4237368  78.8285993 -14.8568774
  72.2600012  93.7184997 -12.8000012  72.9120012  93.3714997 -13.4080012
  72.7700012  94.2074997 -12.1540012  72.4182637  93.7370597 -12.7959764
  57.4530012  77.4724997  -6.4010012  56.7880012  77.2264997  -5.7580012
  57.0100012  78.0944997  -6.9790012  57.3020956  77.5228632  -6.3910648
  59.6450012  90.6474997  -2.2570012  58.8240012  90.8224997  -2.7170012
  59.3920012  90.5744997  -1.3360012  59.4986164  90.6615622  -2.1955077
  62.5990012  91.6224997  -5.9980012  62.1740012  92.4314997  -6.2810012
  63.5030012  91.7074997  -6.3000012  62.6630271  91.7448469  -6.0776224
  66.9100012  93.0214997  -3.0390012  67.0950012  92.6874997  -2.1610012
  67.7560012  93.3304997  -3.3610012  67.0497539  93.0176047  -2.9624395
  69.2550012  94.3074997  -3.7950012  69.9320012  93.6744997  -4.0350012
  69.5770012  94.7084997  -2.9880012  69.3911637  94.2751154  -3.7187207
  74.1720012  76.8964997  -4.7150012  73.3600012  77.2214997  -5.1030012
  74.4050012  76.1364997  -5.2480012  74.0923423  76.8382436  -4.8401747
  60.0010012  94.8784997  -5.9510012  59.2800012  95.3184997  -6.4020012
  59.6350012  94.6274997  -5.1020012  59.8529804  94.9047698  -5.8980160
  62.4680012  94.4784997  -6.9210012  61.6030012  94.5504997  -6.5170012
  62.4130012  95.0254997  -7.7050012  62.3422085  94.5622685  -6.9716638
  67.1780012  94.3664997  -7.7460012  66.7220012  94.8954997  -8.4000012
  67.3410012  94.9694997  -7.0200012  67.1375585  94.5204468  -7.7374938
  69.5060012  93.2444997  -6.8010012  68.6010012  93.4094997  -7.0660012
  69.9350012  94.0974997  -6.8660012  69.4400799  93.3824483  -6.8460818
  72.1100012  94.8144997  -6.5060012  71.9280012  95.7304997  -6.7160012
  72.2870012  94.4044997  -7.3520012  72.1090210  94.8844822  -6.6492115
  59.4150012  93.5014997  -9.0410012  59.3970012  93.0764997  -8.1830012
  60.2200012  93.1834997  -9.4490012  59.5213875  93.4003812  -8.9788345
  61.5570012  92.2114997 -10.3860012  61.3380012  91.2954997 -10.2160012
  62.3810012  92.3514997  -9.9200012  61.6384420  92.1050520 -10.2997226
  64.0940012  92.6814997  -9.5370012  64.3070012  91.7934997  -9.8240012
  64.1580012  92.6474997  -8.5830012  64.1318232  92.5553102  -9.4472603
  67.6020012  78.3454997 -10.3930012  66.9280012  77.7164997 -10.1370012
  68.1660012  77.8614997 -10.9960012  67.5859230  78.1938744 -10.4394660
  72.7450012  76.4534997 -10.2800012  73.3490012  77.0004997 -10.7820012
  71.8750012  76.7724997 -10.5200012  72.7101241  76.5715806 -10.3812346
  74.4720012  77.5914997 -11.9470012  75.0840012  77.0774997 -12.4730012
  74.8540012  78.4694997 -11.9230012  74.6074540  77.6397140 -12.0158170
  59.9290012  76.9794997 -12.5710012  59.1520012  76.7454997 -13.0780012
  60.4590012  76.1824997 -12.5620012  59.8942330  76.8396988 -12.6392258
  58.7650012  76.7774997 -16.7670012  59.2040012  77.3884997 -17.3590012
  58.1320012  77.3154997 -16.2930012  58.7394514  76.9339257 -16.7839070
  64.5080012  76.9064997 -12.7570012  65.3830012  77.2944997 -12.7870012
  64.3720012  76.6914997 -11.8350012  64.6093695  76.9305184 -12.6363560
  70.0650012  76.9364997 -11.1080012  70.1410012  77.0314997 -12.0580012
  69.7900012  76.0284997 -10.9790012  70.0382321  76.8267867 -11.2204921
  71.4180012  76.9624997 -15.4160012  70.7160012  77.5774997 -15.6250012
  70.9740012  76.1244997 -15.2850012  71.2616330  76.9335783 -15.4269672
  58.6660012  92.7254997 -15.8690012  57.9810012  92.6874997 -16.5370012
  58.6700012  93.6384997 -15.5810012  58.5728193  92.8437016 -15.9214716
  60.6260012  78.6934997 -18.3250012  61.1180012  78.0634997 -18.8520012
  61.2500012  78.9894997 -17.6610012  60.7775446  78.6473199 -18.3074020
  65.6520012  78.9864997 -15.8680012  65.8300012  78.3404997 -15.1850012
  65.5990012  79.8204997 -15.4000012  65.6691829  79.0107985 -15.7114060
  67.5310012  93.9354997 -17.4720012  68.3970012  94.3014997 -17.6500012
  67.2840012  93.4954997 -18.2860012  67.6162392  93.9261756 -17.6063711
  74.2400012  93.4984997 -14.7930012  74.0450012  92.7504997 -15.3580012
  74.2010012  94.2564997 -15.3760012  74.2080380  93.4986099 -14.9491616
  59.8870012  77.4934997  -3.0530012  59.5210012  76.7284997  -2.6100012
  60.8000012  77.5224997  -2.7660012  59.9602790  77.3927224  -2.9535930
  61.8600012  76.8444997  -1.5170012  62.7580012  76.5704997  -1.7020012
  61.4730012  76.1014997  -1.0530012  61.9306612  76.7065914  -1.4796357
  60.4840012  93.6454997 -18.8440012  60.2170012  93.9324997 -17.9710012
  61.2560012  93.0994997 -18.6920012  60.5517488  93.6110294 -18.7038950
  70.2810012  76.1764997  -1.3350012  70.3580012  75.7504997  -0.4810012
  71.1750012  76.1904997  -1.6780012  70.4123428  76.1200879  -1.2644690
  73.4570012  92.2494997  -2.6430012  72.6750012  92.0634997  -3.1620012
  73.3850012  93.1784997  -2.4250012  73.3401777  92.3496492  -2.6845952
  87.8630012  86.1354997 -12.6120012  87.9520012  87.0794997 -12.7440012
  87.2250012  85.8604997 -13.2700012  87.7889081  86.2274830 -12.7190386
  86.7960012  85.3904997  -9.1930012  86.7580012  84.7444997  -8.4880012
  86.4740012  84.9244997  -9.9640012  86.7472333  85.2389408  -9.2007022
  79.1650012  85.0054997  -7.6000012  79.2060012  84.3794997  -6.8770012
  79.8680012  85.6294997  -7.4180012  79.2656363  85.0041196  -7.4763956
  90.5020012  88.3294997 -10.8920012  90.0620012  87.6094997 -10.4410012
  90.4890012  89.0504997 -10.2620012  90.4400226  88.3283731 -10.7451506
  80.0880012  89.4554997  -9.0650012  79.7190012  88.6534997  -9.4350012
  81.0290012  89.2864997  -9.0190012  80.1647289  89.3230153  -9.1093684
  76.6980012  83.1154997 -13.6720012  76.2510012  83.9614997 -13.6910012
  76.1370012  82.5354997 -14.1880012  76.5609900  83.1529916 -13.7443199
  77.4090012  85.2774997 -11.5460012  77.6220012  84.5074997 -11.0190012
  78.1470012  85.3664997 -12.1500012  77.5378496  85.1841394 -11.5554700
  87.6140012  93.4344997 -10.6790012  88.2340012  92.7574997 -10.9530012
  87.4060012  93.2164997  -9.7710012  87.6706904  93.3123870 -10.5936635
  85.1860012  87.8234997  -8.7870012  85.4900012  87.1374997  -9.3820012
  85.9070012  87.9414997  -8.1690012  85.3250671  87.7456305  -8.7848184
  93.8490012  79.4244997  -7.9260012  93.8980012  80.0344997  -7.1900012
  94.2740012  79.8854997  -8.6490012  93.9131824  79.5703741  -7.9229795
  88.3270012  82.2174997  -8.4590012  88.4690012  81.2714997  -8.4390012
  88.2200012  82.4244997  -9.3880012  88.3319864  82.1159534  -8.5817661
  81.4810012  80.3184997 -11.1870012  81.5250012  81.1784997 -11.6050012
  81.0240012  79.7664997 -11.8210012  81.4252185  80.3615799 -11.3299701
  89.2040012  80.4494997 -12.7860012  89.8500012  80.1204997 -12.1610012
  89.7140012  80.9674997 -13.4090012  89.3614264  80.4744611 -12.7846138
  78.1020012  82.7154997 -10.4250012  78.7550012  82.1654997  -9.9930012
  78.1260012  82.4414997 -11.3420012  78.1946683  82.6031466 -10.4897877
  83.2580012  84.2654997 -11.2100012  83.8740012  83.7394997 -10.7000012
  82.6720012  83.6254997 -11.6130012  83.2630810  84.1069208 -11.1946827
  94.2400012  80.9024997  -5.6900012  93.5520012  81.5604997  -5.7860012
  94.2560012  80.7054997  -4.7540012  94.1478525  80.9660462  -5.5765192
  80.2920012  79.2364997  -7.1130012  80.0730012  79.7664997  -7.8790012
  79.6240012  79.4634997  -6.4660012  80.1717600  79.3396906  -7.1303621
  87.6610012  88.7364997 -13.5690012  87.3650012  88.4144997 -14.4200012
  87.3360012  89.6364997 -13.5280012  87.5766371  88.8140215 -13.6798199
  82.8610012  86.9124997  -6.8260012  82.1210012  87.5104997  -6.7220012
  83.5750012  87.4664997  -7.1410012  82.8562237  87.0692831  -6.8543535
  90.9680012  79.7404997 -10.8060012  90.7520012  78.9744997 -10.2730012
  91.6230012  80.2124997 -10.2930012  91.0270632  79.6995889 -10.6637139
  79.8850012  81.1284997  -9.1610012  80.4990012  81.7614997  -8.7870012
  80.3970012  80.6564997  -9.8170012  80.0382296  81.1512370  -9.1985748
  81.2680012  88.8764997  -6.0380012  81.2630012  89.7564997  -6.4160012
  80.4150012  88.7934997  -5.6130012  81.1519464  88.9856117  -6.0322093
  77.3890012  88.5474997 -15.2560012  77.1170012  88.7764997 -16.1450012
  77.4350012  89.3854997 -14.7960012  77.3580094  88.6921213 -15.3154303
  91.0140012  90.1694997  -8.5440012  90.0730012  90.2274997  -8.3820012
  91.2910012  91.0754997  -8.6810012  90.9224679  90.2999443  -8.5403185
  91.3150012  78.4554997  -7.1260012  90.5790012  79.0664997  -7.1640012
  91.9980012  78.8704997  -7.6530012  91.3066541  78.5951374  -7.2024168
  84.3180012  76.5424997  -9.6600012  84.2010012  75.5934997  -9.7150012
  83.4630012  76.8744997  -9.3870012  84.1863733  76.4575409  -9.6306103
  89.2660012  91.9504997 -11.9180012  89.6920012  91.2434997 -12.4030012
  89.5830012  92.7514997 -12.3350012  89.3671019  91.9620994 -12.0406870
  90.4260012  89.8514997 -13.4100012  90.1680012  89.1614997 -14.0210012
  90.4970012  89.4084997 -12.5640012  90.4002856  89.6972124 -13.3793115
  92.1120012  88.4174997  -4.9320012  92.2520012  87.8264997  -5.6720012
  92.2790012  89.2904997  -5.2890012  92.1536778  88.4546426  -5.0813035
  86.5850012  85.3794997 -15.1600012  85.8730012  85.9144997 -15.5120012
  87.2760012  85.4354997 -15.8200012  86.5810132  85.4602543 -15.2973711
  86.6380012  83.8374997 -18.1210012  87.3390012  83.8594997 -17.4700012
  86.9410012  83.2094997 -18.7770012  86.7747830  83.7556566 -18.1206289
  93.9540012  84.7574997  -6.8660012  93.3010012  85.4524997  -6.7770012
  94.4190012  84.9674997  -7.6760012  93.9275390  84.8809425  -6.9633117
  89.9900012  85.5894997 -14.2080012  89.2580012  85.8174997 -13.6350012
  90.4380012  84.8754997 -13.7530012  89.9503095  85.5242571 -14.0680881
  89.8880012  83.7634997  -5.1410012  89.9680012  84.5264997  -4.5690012
  89.2860012  84.0424997  -5.8310012  89.8175756  83.9057134  -5.1559411
  81.6360012  86.2194997 -12.3260012  81.3050012  85.8494997 -13.1440012
  82.2240012  85.5494997 -11.9790012  81.6701873  86.0781156 -12.3911898
  83.0020012  89.6474997  -9.6440012  82.9080012  89.0694997 -10.4010012
  83.7320012  89.2764997  -9.1480012  83.0877981  89.5182390  -9.6805835
  82.0020012  84.9884997  -8.6920012  82.5680012  85.1094997  -9.4550012
  82.3210012  85.6254997  -8.0530012  82.1225786  85.0911884  -8.7099960
  88.3110012  90.4914997  -7.9580012  88.0710012  91.1534997  -7.3100012
  88.1130012  89.6574997  -7.5330012  88.2513808  90.4693134  -7.8118476
  82.8820012  89.3874997  -3.9750012  82.5710012  90.1694997  -3.5200012
  82.2320012  89.2344997  -4.6610012  82.7515558  89.4739105  -4.0054129
  88.8610012  84.7514997 -16.5230012  89.4410012  84.9014997 -15.7760012
  89.2750012  85.2224997 -17.2460012  88.9962830  84.8356841 -16.5185866
  79.8020012  85.5854997  -4.7460012  79.8730012  86.2364997  -4.0480012
  78.9120012  85.6884997  -5.0810012  79.6913117  85.6885936  -4.6957300
  86.5880012  91.4884997 -13.0880012  87.0620012  91.7834997 -12.3100012
  86.0250012  92.2264997 -13.3210012  86.5767653  91.6286932 -13.0129864
  81.1220012  91.4594997  -3.2120012  81.1290012  91.3234997  -4.1590012
  80.2060012  91.3414997  -2.9600012  80.9991714  91.4249430  -3.3075334
  92.5600012  76.5014997 -16.7100012  91.6600012  76.6404997 -16.4150012
  92.8120012  77.3324997 -17.1120012  92.4708702  76.6329074 -16.7239795
  80.6260012  85.2894997 -14.7360012  80.3340012  86.0574997 -15.2270012
  79.9520012  84.6294997 -14.8990012  80.4949081  85.3054406 -14.8252660
  93.7490012  90.8674997 -18.3340012  93.8230012  91.8064997 -18.1630012
  94.6550012  90.5624997 -18.3900012  93.8815100  90.9546722 -18.3181881
  76.7190012  87.6524997  -5.9210012  76.2180012  87.6244997  -6.7360012
  76.7240012  86.7464997  -5.6120012  76.6511526  87.5262278  -5.9907128
  76.4690012  90.4324997  -9.0370012  77.4150012  90.2884997  -9.0560012
  76.3570012  91.2164997  -8.5000012  76.5832727  90.5188046  -8.9669928
  94.6670012  91.0984997  -3.3550012  94.6180012  90.1434997  -3.3920012
  93.8400012  91.3664997  -2.9540012  94.5484940  91.0038998  -3.3058625
  85.6460012  90.6724997  -4.4790012  85.7330012  91.4984997  -4.0040012
  84.7820012  90.3424997  -4.2300012  85.5411964  90.7409878  -4.3803451
  86.0600012  94.4444997 -14.6730012  85.9850012  94.3234997 -15.6190012
  86.0930012  95.3944997 -14.5540012  86.0541848  94.5562500 -14.7865166
  79.7130012  93.2334997 -12.8920012  79.8660012  92.8854997 -12.0130012
  78.8630012  92.8774997 -13.1470012  79.6188962  93.1376650 -12.8061660
  89.1620012  93.5984997 -17.6710012  89.5370012  92.8544997 -18.1410012
  89.1660012  93.3284997 -16.7520012  89.2138915  93.4601486 -17.6112176
  88.8310012  93.5244997 -14.9210012  87.8950012  93.6244997 -14.7430012
  89.1110012  92.8154997 -14.3430012  88.7408255  93.4422711 -14.8184609
  91.8190012  82.5914997  -2.8750012  91.4120012  83.0724997  -3.5960012
  91.8600012  81.6864997  -3.1830012  91.7688437  82.5349374  -3.0153317
  78.9680012  88.9754997  -4.8780012  79.1840012  88.6144997  -4.0190012
  78.1130012  88.6014997  -5.0880012  78.8819292  88.8754111  -4.7886614
  81.5870012  77.4454997  -8.8830012  80.7250012  77.3584997  -9.2900012
  81.5640012  78.3014997  -8.4550012  81.4660330  77.5492765  -8.8808137
  86.2500012  77.1674997  -5.5080012  86.6700012  76.7524997  -4.7550012
  85.3170012  76.9894997  -5.3910012  86.1813644  77.0865900  -5.3890461
  89.5760012  80.9234997  -4.6550012  89.0620012  80.7974997  -3.8570012
  89.4210012  81.8354997  -4.8990012  89.4846852  81.0296132  -4.5787842
  90.3390012  85.7844997 -18.8930012  90.3810012  85.5614997 -19.8230012
  91.1880012  86.1834997 -18.7030012  90.4595396  85.8079155 -18.9946373
  85.9110012  79.6604997 -18.2230012  85.6580012  79.6794997 -17.3000012
  85.6550012  78.7884997 -18.5240012  85.8417790  79.5452437 -18.1373737
  81.6780012  82.4114997  -7.7880012  81.0360012  82.3704997  -7.0790012
  81.7150012  83.3374997  -8.0250012  81.5951324  82.5311559  -7.7230176
  81.6750012  82.6324997 -12.8760012  80.7820012  82.2914997 -12.9340012
  82.1250012  82.2554997 -13.6310012  81.6137305  82.5348484 -12.9860823
  87.2100012  83.0484997 -14.0590012  86.8010012  83.8634997 -14.3500012
  87.9310012  82.9084997 -14.6730012  87.2514537  83.1412018 -14.1818658
  86.3120012  83.2234997  -2.5710012  85.7500012  82.5194997  -2.2500012
  87.1390012  83.1034997  -2.1030012  86.3467095  83.1107883  -2.4637670
  88.2150012  82.4944997 -11.2450012  88.0200012  83.0994997 -11.9600012
  88.3960012  81.6604997 -11.6790012  88.2127614  82.4646300 -11.4015595
  79.4280012  82.7314997  -5.9210012  79.3900012  83.1314997  -5.0520012
  78.9370012  81.9144997  -5.8300012  79.3564684  82.6758069  -5.7898941
  82.7940012  80.1054997 -19.1220012  82.3630012  79.6604997 -18.3920012
  82.0760012  80.4774997 -19.6340012  82.6379438  80.0948940 -19.0913201
  76.0360012  79.8474997 -12.0700012  76.6670012  79.8184997 -11.3510012
  76.4850012  79.4224997 -12.8000012  76.1830774  79.7860492 -12.0703447
  77.3100012  80.5934997 -16.6460012  77.7840012  81.1844997 -17.2310012
  76.5930012  81.1244997 -16.2990012  77.2779341  80.7460867 -16.6791164
  87.4790012  84.1324997  -6.5730012  87.8020012  83.5014997  -7.2160012
  87.0390012  83.5974997  -5.9130012  87.4636895  83.9738441  -6.5717150
  84.2560012  80.0594997 -11.7890012  83.3450012  80.1164997 -11.5010012
  84.7620012  79.9994997 -10.9790012  84.1995413  80.0591985 -11.6399378
  79.0850012  81.6884997 -12.9630012  78.1950012  81.7884997 -13.3030012
  79.3810012  80.8464997 -13.3090012  79.0032823  81.5883545 -13.0562787
  82.7380012  81.6884997 -15.3060012  83.6690012  81.8174997 -15.1280012
  82.5230012  82.3584997 -15.9560012  82.8364247  81.7966565 -15.3694253
  88.6610012  79.2944997  -8.5250012  87.9850012  79.4254997  -7.8610012
  88.1760012  79.1394997  -9.3350012  88.5027145  79.2914905  -8.5435483
  81.4120012  82.8834997 -17.7390012  80.8690012  82.5034997 -18.4310012
  82.2450012  83.0774997 -18.1680012  81.4504399  82.8578124 -17.8915474
  91.9490012  94.9664997  -2.2480012  92.1490012  95.3904997  -3.0830012
  92.6040012  95.3094997  -1.6410012  92.0650051  95.0709648  -2.2802164
  79.5470012  87.4404997  -2.6400012  80.2790012  87.6944997  -2.0790012
  78.7670012  87.6444997  -2.1250012  79.5418232  87.5029177  -2.4934240
  85.5760012  82.8474997  -9.9020012  86.1410012  82.3004997 -10.4490012
  85.4290012  82.3254997  -9.1140012  85.6332918  82.7022024  -9.8701546
  80.5780012  78.9834997 -13.4840012  80.2610012  78.0814997 -13.5190012
  81.3600012  78.9854997 -14.0370012  80.6402284  78.8601628 -13.5635217
  84.2030012  81.2354997  -7.4880012  83.3670012  81.6894997  -7.3780012
  84.7270012  81.5114997  -6.7360012  84.1594414  81.3349376  -7.3712864
  84.7470012  87.4484997 -15.8040012  84.0020012  86.9414997 -16.1260012
  84.6130012  87.4974997 -14.8570012  84.6268776  87.3856940 -15.7201353
  91.8970012  86.5814997  -7.0170012  92.5390012  87.0384997  -7.5610012
  91.0670012  86.6944997  -7.4800012  91.8725963  86.6592704  -7.1539823
  88.6450012  80.2624997 -17.6040012  87.7060012  80.3744997 -17.7560012
  88.9420012  81.1194997 -17.2980012  88.5567666  80.3936443 -17.5834232
  86.2660012  87.6324997  -4.5670012  85.9210012  87.2514997  -3.7600012
  86.0660012  88.5664997  -4.4950012  86.1918061  87.7065228  -4.4469039
  89.3630012  82.1294997 -15.9440012  90.2550012  81.9924997 -15.6250012
  89.4200012  82.9204997 -16.4800012  89.4926285  82.2176660 -15.9728309
  79.8720012  86.7434997 -10.0340012  80.6170012  86.7414997 -10.6350012
  79.9500012  85.9204997  -9.5520012  79.9845518  86.6319315 -10.0511071
  86.8730012  88.9074997 -16.7780012  86.5770012  89.7334997 -16.3970012
  86.1700012  88.2874997 -16.5820012  86.7374914  88.9368199 -16.6993557
  76.8800012  85.2044997  -4.7190012  77.1030012  84.7864997  -3.8870012
  76.2780012  84.5914997  -5.1420012  76.8291759  85.0644668  -4.6622978
  83.8960012  84.7214997  -2.5060012  83.6000012  84.5554997  -3.4010012
  84.8280012  84.5014997  -2.5170012  83.9814166  84.6690640  -2.6299464
  88.5170012  90.0944997  -4.6160012  87.6160012  90.2774997  -4.8840012
  88.5510012  90.3534997  -3.6950012  88.3983041  90.1545512  -4.5281803
  94.2480012  82.3394997 -16.2490012  93.6940012  81.9434997 -16.9210012
  94.3480012  83.2494997 -16.5270012  94.1857059  82.4083586 -16.3785599
  94.2110012  88.1394997  -3.4120012  93.3600012  88.3774997  -3.7790012
  94.8020012  88.1224997  -4.1650012  94.1742487  88.1698258  -3.5641107
  92.5430012  91.1254997 -15.7840012  92.1700012  90.2994997 -15.4750012
  92.8210012  90.9424997 -16.6810012  92.5295630  90.9877303 -15.8630374
  89.7040012  85.9334997  -8.7630012  88.7750012  85.7014997  -8.7900012
  90.1550012  85.1564997  -9.0930012  89.6379216  85.7967238  -8.8113083
  82.2470012  90.2614997 -12.6300012  82.7740012  91.0344997 -12.8300012
  81.3670012  90.4864997 -12.9310012  82.2001773  90.3978005 -12.6980990
  78.0020012  85.1234997 -18.0430012  78.6180012  85.7504997 -17.6630012
  77.1400012  85.4394997 -17.7710012  77.9697698  85.2519430 -17.9542817
  83.6740012  87.9244997 -13.0530012  83.4330012  88.8494997 -13.0120012
  82.9330012  87.4654997 -12.6570012  83.5408409  87.9891421 -12.9938623
  84.1890012  92.0734997  -6.7380012  84.5510012  92.9284997  -6.9720012
  84.7200012  91.7814997  -5.9980012  84.3104473  92.1511060  -6.6699145
  82.3570012  92.9464997 -13.5080012  81.4070012  93.0514997 -13.4570012
  82.7090012  93.7664997 -13.1630012  82.2744203  93.0718314 -13.4543350
  87.7330012  88.1724997  -7.0380012  87.3070012  87.9454997  -6.2110012
  88.3130012  87.4344997  -7.2200012  87.7531868  88.0415299  -6.9494170
  89.9360012  89.1014997 -17.9640012  90.2890012  88.7214997 -17.1590012
  88.9870012  89.0084997 -17.8770012  89.8560441  89.0369596 -17.8421441
  90.3910012  92.7244997  -4.5680012  89.7900012  92.1694997  -5.0640012
  90.6730012  93.3914997  -5.1940012  90.3468519  92.7386841  -4.7205048
  94.4390012  93.5814997 -17.7630012  95.1830012  94.1674997 -17.9030012
  93.7450012  94.1494997 -17.4290012  94.4470292  93.7385582 -17.7370039
  78.5140012  79.9574997  -5.1610012  77.6210012  80.2964997  -5.2290012
  78.4150012  79.1024997  -4.7430012  78.3784164  79.8882588  -5.1137765
  90.8020012  87.7744997 -15.7370012  90.5240012  87.0464997 -15.1810012
  91.7290012  87.8934997 -15.5320012  90.8893124  87.6908802 -15.6331155
  78.1650012  91.7624997  -6.7260012  78.3820012  90.8304997  -6.7570012
  78.4110012  92.0364997  -5.8430012  78.2279549  91.6720636  -6.6108237
  84.0270012  90.2134997 -19.5170012  84.2660012  89.4654997 -20.0640012
  83.7580012  89.8254997 -18.6840012  84.0233675  90.0586638 -19.4793135
  82.9640012  89.7834997 -17.0600012  83.1100012  89.2634997 -16.2700012
  82.9610012  90.6904997 -16.7540012  82.9835989  89.8348853 -16.9103912
  79.4170012  87.0364997 -16.5500012  78.7310012  87.3884997 -15.9830012
  79.9390012  87.7994997 -16.7970012  79.3936852  87.1878578 -16.5057882
  87.2480012  79.6984997  -6.2710012  87.9470012  79.7724997  -5.6210012
  86.8670012  78.8344997  -6.1170012  87.2921767  79.5917624  -6.1611678
  88.0330012  79.3504997 -15.1740012  88.2530012  79.8224997 -15.9770012
  88.5910012  79.7454997 -14.5040012  88.1384968  79.4684285 -15.1932669
  85.7010012  91.4814997 -16.3110012  84.8850012  91.9784997 -16.2590012
  86.2310012  91.9564997 -16.9510012  85.6609161  91.6137722 -16.3904044
  85.2330012  81.0784997 -14.3390012  86.0450012  81.5834997 -14.2930012
  84.9880012  80.9334997 -13.4250012  85.3110520  81.1280375 -14.2091483
  85.7680012  82.0644997  -5.1540012  85.8870012  82.6384997  -4.3970012
  86.4240012  81.3764997  -5.0400012  85.8729757  82.0501079  -5.0349175
  86.1160012  78.1594997 -13.4010012  85.7700012  78.7774997 -12.7560012
  86.7750012  78.6604997 -13.8820012  86.1577826  78.3115802 -13.3779029
  83.0400012  92.5254997 -16.3290012  83.2000012  93.3244997 -16.8300012
  82.8420012  92.8314997 -15.4440012  83.0351649  92.6764469 -16.2780185
  81.7740012  79.2224997 -16.7140012  81.6910012  80.1114997 -16.3670012
  82.6640012  78.9574997 -16.4820012  81.8829469  79.3081430 -16.6352374
  91.9730012  79.9714997  -4.3190012  91.0560012  80.2344997  -4.4070012
  92.3080012  79.9684997  -5.2160012  91.8929900  80.0070224  -4.4522081
  90.5750012  83.7224997 -10.2240012  89.7770012  83.3074997 -10.5520012
  91.0200012  83.0314997  -9.7330012  90.5259885  83.5723543 -10.2025111
  80.0330012  89.6504997 -17.6530012  80.6250012  90.3494997 -17.3770012
  80.4920012  89.2174997 -18.3730012  80.1761142  89.6877049 -17.7125170
  78.3490012  82.3144997 -18.5370012  78.3040012  83.2534997 -18.3590012
  77.4610012  82.0784997 -18.8070012  78.2228574  82.4111892 -18.5491088
  91.6610012  92.9784997  -8.6010012  91.5060012  93.6564997  -9.2580012
  92.5940012  93.0504997  -8.3980012  91.7658500  93.0810170  -8.6634881
  79.1570012  77.0964997  -9.8640012  78.9280012  77.1554997 -10.7920012
  78.7140012  76.3044997  -9.5580012  79.0658530  76.9975753  -9.9495214
  78.0870012  91.0364997 -13.7040012  77.2550012  91.5094997 -13.6760012
  78.6330012  91.5464997 -14.3020012  78.0469739  91.1701871 -13.7810284
  77.3750012  93.6494997  -2.3740012  77.9160012  93.4324997  -1.6140012
  76.8940012  92.8434997  -2.5630012  77.3839345  93.5109514  -2.2956924
  81.9730012  92.5684997  -0.7530012  82.7400012  92.1094997  -0.4120012
  81.9510012  92.3424997  -1.6830012  82.0751434  92.4750409  -0.8319957
  86.0650012  92.0764997 -19.3780012  85.4210012  91.4454997 -19.0570012
  86.8270012  91.5454997 -19.6100012  86.0798077  91.9182920 -19.3653989
  88.5500012  90.9484997  -2.0240012  88.1990012  90.0924997  -1.7810012
  89.2760012  91.0914997  -1.4170012  88.6000769  90.8505636  -1.9086381
  90.6690012  91.8934997 -19.1440012  90.9520012  91.0994997 -18.6920012
  91.4090012  92.1264997 -19.7050012  90.8077486  91.8162803 -19.1579302
  77.2820012  87.4594997  -1.4190012  77.4260012  86.5574997  -1.7060012
  76.5100012  87.7454997  -1.9070012  77.1973323  87.3748261  -1.5242119
  81.6240012  87.8034997 -19.2870012  81.6880012  87.0094997 -18.7560012
  82.2770012  87.6844997 -19.9770012  81.7210241  87.6787148 -19.3075683
  83.9380012  87.4294997  -1.9870012  83.6090012  87.7004997  -2.8440012
  84.0900012  86.4884997  -2.0740012  83.9134809  87.3393862  -2.1161756
  89.6720012  87.3454997  -4.6030012  90.4180012  87.9334997  -4.7230012
  88.9150012  87.9274997  -4.5400012  89.6717554  87.5047011  -4.6109093
  78.1150012  84.6594997  -1.9990012  78.5230012  83.8024997  -2.1200012
  77.8550012  84.6744997  -1.0780012  78.1357568  84.5440807  -1.8910412
  82.7730012  85.7754997 -16.9810012  82.3130012  85.2914997 -16.2950012
  83.0280012  85.1074997 -17.6170012  82.7444902  85.6188731 -16.9730666
  82.0620012  83.6684997  -4.6250012  81.4440012  84.3434997  -4.3450012
  82.4060012  83.9894997  -5.4580012  82.0239615  83.8042721  -4.6993419
  83.8440012  84.0184997 -18.7190012  83.6640012  83.8644997 -19.6460012
  84.7940012  84.1264997 -18.6740012  83.9477776  84.0120175 -18.8398157
  87.0820012  86.1404997  -1.3480012  88.0350012  86.2234997  -1.3750012
  86.9210012  85.4284997  -0.7280012  87.1906426  86.0556746  -1.2679421
  93.2340012  86.3734997 -19.2730012  92.9600012  85.9484997 -20.0860012
  93.2730012  87.3044997 -19.4900012  93.2017699  86.4412484 -19.4136390
  82.4010012  81.0234997  -3.5430012  82.5510012  80.2944997  -4.1450012
  82.4040012  81.8004997  -4.1020012  82.4219302  81.0287851  -3.7009308
  82.8140012  79.3934997  -6.0500012  83.3500012  79.8444997  -6.7020012
  81.9620012  79.2854997  -6.4730012  82.7722178  79.4406390  -6.1964244
  84.3960012  84.8324997  -5.8110012  85.1460012  84.6764997  -6.3840012
  84.0570012  85.6844997  -6.0860012  84.4528921  84.9262968  -5.9266439
  88.8110012  82.6474997  -0.7820012  89.0040012  81.7164997  -0.8940012
  89.6690012  83.0724997  -0.7920012  88.9533020  82.5776389  -0.7986639
  90.1280012  85.4364997  -2.7050012  89.8470012  86.1454997  -3.2820012
  91.0710012  85.3634997  -2.8560012  90.2169027  85.5237646  -2.8044449
  80.8800012  82.2214997  -1.6310012  80.1130012  81.6894997  -1.8410012
  81.5590012  81.9114997  -2.2310012  80.8667022  82.1067506  -1.7408352
  83.6200012  76.8494997  -5.6190012  83.5210012  77.7964997  -5.7240012
  82.8770012  76.4774997  -6.0940012  83.5060564  76.9285902  -5.6975440
  84.8840012  81.1714997  -2.0550012  84.6480012  80.9514997  -1.1530012
  84.1000012  80.9644997  -2.5650012  84.7458628  81.1134760  -2.0006068
  87.5990012  80.2984997  -2.9790012  86.6520012  80.3304997  -2.8470012
  87.9120012  79.6734997  -2.3260012  87.5115475  80.2183207  -2.8725545
  89.2330012  78.9324997  -0.9740012  89.1370012  77.9804997  -0.9800012
  88.9120012  79.2014997  -0.1140012  89.1764070  78.8384035  -0.8584559
  79.0600012  80.1424997  -1.9270012  79.2720012  79.4354997  -2.5370012
  78.9490012  79.7044997  -1.0830012  79.0739721  79.9867084  -1.8963157
  83.8410012  76.1434997  -2.9470012  84.5530012  75.5034997  -2.9610012
  83.7400012  76.4104997  -3.8610012  83.9247939  76.0919938  -3.0724350
  84.1950012  77.8264997  -0.8940012  84.0630012  77.3504997  -1.7140012
  83.5960012  78.5704997  -0.9490012  84.0959071  77.8619618  -1.0137114
  83.7410012  94.7094997 -17.7170012  84.6740012  94.8674997 -17.5740012
  83.4770012  95.3844997 -18.3420012  83.8329510  94.8223611 -17.7819259
  77.3100012  89.3454997 -18.2350012  78.2240012  89.4244997 -17.9610012
  77.3170012  88.6584997 -18.9010012  77.4361131  89.2633961 -18.2875607
  75.9590012  94.7384997 -13.1570012  75.3120012  94.2764997 -13.6900012
  76.3130012  94.0664997 -12.5750012  75.9183849  94.5844723 -13.1512041
  76.8290012  92.8194997 -11.3530012  76.4940012  91.9394997 -11.1810012
  77.0510012  93.1644997 -10.4880012  76.8131783  92.7457500 -11.2125792
  94.3770012  93.6284997  -8.3720012  94.3560012  93.8134997  -7.4330012
  95.0680012  94.1974997  -8.7130012  94.4674618  93.7306606  -8.2896136
  93.9410012  93.1964997  -5.4500012  93.4530012  92.4604997  -5.8210012
  94.4900012  92.8024997  -4.7720012  93.9484872  93.0426249  -5.4090840
  92.3910012  88.9854997  -0.8120012  91.5250012  88.8804997  -0.4180012
  92.7680012  89.7444997  -0.3660012  92.3233308  89.0736900  -0.6977607
  93.6920012  87.2424997 -15.2980012  94.5420012  87.6634997 -15.1710012
  93.6980012  86.5024997 -14.6910012  93.8091372  87.2000803 -15.1985656
  94.0870012  85.2954997 -13.4740012  93.3600012  84.8164997 -13.0770012
  94.6680012  85.5014997 -12.7420012  94.0659375  85.2577090 -13.3205871
  93.8460012  88.0804997  -8.5270012  94.6790012  87.7024997  -8.8070012
  93.9580012  89.0234997  -8.6460012  93.9752647  88.1562218  -8.5814513
  92.3320012  90.9584997  -6.2200012  91.6850012  91.2834997  -5.5940012
  91.8150012  90.5184997  -6.8940012  92.1734029  90.9435004  -6.2254173
  94.3550012  85.1964997 -17.0830012  93.8330012  85.5534997 -17.8020012
  94.3220012  85.8714997 -16.4050012  94.2791634  85.3365413 -17.0896855
  92.7040012  82.4364997 -18.5320012  92.8000012  83.1034997 -19.2130012
  92.5640012  81.6204997 -19.0140012  92.6982135  82.4174500 -18.6901509
  91.8730012  83.8164997 -12.9110012  91.7230012  82.8714997 -12.9320012
  91.5200012  84.0974997 -12.0680012  91.8046625  83.7250441 -12.7997654
  76.9090012  85.8944997  -8.9010012  77.0930012  85.8124997  -9.8370012
  77.7580012  85.7704997  -8.4770012  77.0490139  85.8665003  -8.9718545
  92.7300012  85.7864997  -3.2730012  93.3130012  85.0524997  -3.0810012
  93.2940012  86.5584997  -3.2260012  92.8859769  85.7904227  -3.2403841
  94.2260012  83.6894997  -2.5880012  93.3630012  83.3104997  -2.7540012
  94.8310012  82.9504997  -2.6620012  94.1895979  83.5378023  -2.6207183
  91.9510012  79.8444997 -19.4150012  92.5620012  79.4734997 -18.7780012
  91.1150012  79.4234997 -19.2190012  91.9215032  79.7367554 -19.3012965
  91.5840012  81.3994997 -14.4490012  91.8640012  80.4924997 -14.3250012
  92.3430012  81.8334997 -14.8380012  91.7249277  81.3340942 -14.4846318
  92.1960012  81.9804997  -9.0130012  93.1290012  82.1924997  -9.0470012
  91.9610012  82.0824997  -8.0910012  92.2918036  82.0232769  -8.8930024
  92.2250012  82.7174997  -6.2370012  91.3820012  82.9854997  -5.8710012
  92.6670012  83.5394997  -6.4480012  92.1694158  82.8653291  -6.2154509
  76.5060012  81.1654997  -2.7600012  77.4260012  81.0434997  -2.5240012
  76.0570012  80.4154997  -2.3710012  76.5711580  81.0473727  -2.6750994
  94.5080012  76.6974997  -0.8840012  94.8580012  76.0434997  -1.4890012
  94.6550012  77.5344997  -1.3230012  94.5758419  76.7211591  -1.0262882
  92.1970012  78.6624997 -14.4010012  92.3800012  78.2134997 -13.5750012
  91.5980012  78.0774997 -14.8640012  92.1410202  78.5219975 -14.3506725
  77.7270012  79.4774997  -9.8690012  78.1730012  78.6854997  -9.5670012
  78.1940012  80.1934997  -9.4380012  77.8510172  79.4660624  -9.7695180
  76.0310012  82.4764997  -8.8000012  76.5230012  82.2554997  -9.5910012
  76.3940012  83.3174997  -8.5190012  76.1473126  82.5598357  -8.8702469
  94.0280012  78.8064997  -2.5340012  93.1100012  79.0774997  -2.5700012
  94.1510012  78.2714997  -3.3190012  93.9191066  78.7712892  -2.6449513
  94.0640012  78.7294997 -17.8730012  94.4760012  78.0084997 -18.3480012
  94.7460012  79.3994997 -17.8140012  94.2125885  78.7212368 -17.9301085
  76.3450012  78.7344997 -14.7460012  75.4200012  78.9434997 -14.8750012
  76.7990012  79.2184997 -15.4350012  76.2797368  78.8285993 -14.8568774
  91.1160012  93.7184997 -12.8000012  91.7680012  93.3714997 -13.4080012
  91.6260012  94.2074997 -12.1540012  91.2742637  93.7370597 -12.7959764
  76.3090012  77.4724997  -6.4010012  75.6440012  77.2264997  -5.7580012
  75.8660012  78.0944997  -6.9790012  76.1580956  77.5228632  -6.3910648
  78.5010012  90.6474997  -2.2570012  77.6800012  90.8224997  -2.7170012
  78.2480012  90.5744997  -1.3360012  78.3546164  90.6615622  -2.1955077
  81.4550012  91.6224997  -5.9980012  81.0300012  92.4314997  -6.2810012
  82.3590012  91.7074997  -6.3000012  81.5190271  91.7448469  -6.0776224
  85.7660012  93.0214997  -3.0390012  85.9510012  92.6874997  -2.1610012
  86.6120012  93.3304997  -3.3610012  85.9057539  93.0176047  -2.9624395
  88.1110012  94.3074997  -3.7950012  88.7880012  93.6744997  -4.0350012
  88.4330012  94.7084997  -2.9880012  88.2471637  94.2751154  -3.7187207
  93.0280012  76.8964997  -4.7150012  92.2160012  77.2214997  -5.1030012
  93.2610012  76.1364997  -5.2480012  92.9483423  76.8382436  -4.8401747
  78.8570012  94.8784997  -5.9510012  78.1360012  95.3184997  -6.4020012
  78.4910012  94.6274997  -5.1020012  78.7089804  94.9047698  -5.8980160
  81.3240012  94.4784997  -6.9210012  80.4590012  94.5504997  -6.5170012
  81.2690012  95.0254997  -7.7050012  81.1982085  94.5622685  -6.9716638
  86.0340012  94.3664997  -7.7460012  85.5780012  94.8954997  -8.4000012
  86.1970012  94.9694997  -7.0200012  85.9935585  94.5204468  -7.7374938
  88.3620012  93.2444997  -6.8010012  87.4570012  93.4094997  -7.0660012
  88.7910012  94.0974997  -6.8660012  88.2960799  93.3824483  -6.8460818
  90.9660012  94.8144997  -6.5060012  90.7840012  95.7304997  -6.7160012
  91.1430012  94.4044997  -7.3520012  90.9650210  94.8844822  -6.6492115
  78.2710012  93.5014997  -9.0410012  78.2530012  93.0764997  -8.1830012
  79.0760012  93.1834997  -9.4490012  78.3773875  93.4003812  -8.9788345
  80.4130012  92.2114997 -10.3860012  80.1940012  91.2954997 -10.2160012
  81.2370012  92.3514997  -9.9200012  80.4944420  92.1050520 -10.2997226
  82.9500012  92.6814997  -9.5370012  83.1630012  91.7934997  -9.8240012
  83.0140012  92.6474997  -8.5830012  82.9878232  92.5553102  -9.4472603
  86.4580012  78.3454997 -10.3930012  85.7840012  77.7164997 -10.1370012
  87.0220012  77.8614997 -10.9960012  86.4419230  78.1938744 -10.4394660
  91.6010012  76.4534997 -10.2800012  92.2050012  77.0004997 -10.7820012
  90.7310012  76.7724997 -10.5200012  91.5661241  76.5715806 -10.3812346
  93.3280012  77.5914997 -11.9470012  93.9400012  77.0774997 -12.4730012
  93.7100012  78.4694997 -11.9230012  93.4634540  77.6397140 -12.0158170
  78.7850012  76.9794997 -12.5710012  78.0080012  76.7454997 -13.0780012
  79.3150012  76.1824997 -12.5620012  78.7502330  76.8396988 -12.6392258
  77.6210012  76.7774997 -16.7670012  78.0600012  77.3884997 -17.3590012
  76.9880012  77.3154997 -16.2930012  77.5954514  76.9339257 -16.7839070
  83.3640012  76.9064997 -12.7570012  84.2390012  77.2944997 -12.7870012
  83.2280012  76.6914997 -11.8350012  83.4653695  76.9305184 -12.6363560
  88.9210012  76.9364997 -11.1080012  88.9970012  77.0314997 -12.0580012
  88.6460012  76.0284997 -10.9790012  88.8942321  76.8267867 -11.2204921
  90.2740012  76.9624997 -15.4160012  89.5720012  77.5774997 -15.6250012
  89.8300012  76.1244997 -15.2850012  90.1176330  76.9335783 -15.4269672
  77.5220012  92.7254997 -15.8690012  76.8370012  92.6874997 -16.5370012
  77.5260012  93.6384997 -15.5810012  77.4288193  92.8437016 -15.9214716
  79.4820012  78.6934997 -18.3250012  79.9740012  78.0634997 -18.8520012
  80.1060012  78.9894997 -17.6610012  79.6335446  78.6473199 -18.3074020
  84.5080012  78.9864997 -15.8680012  84.6860012  78.3404997 -15.1850012
  84.4550012  79.8204997 -15.4000012  84.5251829  79.0107985 -15.7114060
  86.3870012  93.9354997 -17.4720012  87.2530012  94.3014997 -17.6500012
  86.1400012  93.4954997 -18.2860012  86.4722392  93.9261756 -17.6063711
  93.0960012  93.4984997 -14.7930012  92.9010012  92.7504997 -15.3580012
  93.0570012  94.2564997 -15.3760012  93.0640380  93.4986099 -14.9491616
  78.7430012  77.4934997  -3.0530012  78.3770012  76.7284997  -2.6100012
  79.6560012  77.5224997  -2.7660012  78.8162790  77.3927224  -2.9535930
  80.7160012  76.8444997  -1.5170012  81.6140012  76.5704997  -1.7020012
  80.3290012  76.1014997  -1.0530012  80.7866612  76.7065914  -1.4796357
  79.3400012  93.6454997 -18.8440012  79.0730012  93.9324997 -17.9710012
  80.1120012  93.0994997 -18.6920012  79.4077488  93.6110294 -18.7038950
  89.1370012  76.1764997  -1.3350012  89.2140012  75.7504997  -0.4810012
  90.0310012  76.1904997  -1.6780012  89.2683428  76.1200879  -1.2644690
  92.3130012  92.2494997  -2.6430012  91.5310012  92.0634997  -3.1620012
  92.2410012  93.1784997  -2.4250012  92.1961777  92.3496492  -2.6845952
 106.7190012  86.1354997 -12.6120012 106.8080012  87.0794997 -12.7440012
 106.0810012  85.8604997 -13.2700012 106.6449081  86.2274830 -12.7190386
 105.6520012  85.3904997  -9.1930012 105.6140012  84.7444997  -8.4880012
 105.3300012  84.9244997  -9.9640012 105.6032333  85.2389408  -9.2007022
  98.0210012  85.0054997  -7.6000012  98.0620012  84.3794997  -6.8770012
  98.7240012  85.6294997  -7.4180012  98.1216363  85.0041196  -7.4763956
 109.3580012  88.3294997 -10.8920012 108.9180012  87.6094997 -10.4410012
 109.3450012  89.0504997 -10.2620012 109.2960226  88.3283731 -10.7451506
  98.9440012  89.4554997  -9.0650012  98.5750012  88.6534997  -9.4350012
  99.8850012  89.2864997  -9.0190012  99.0207289  89.3230153  -9.1093684
  95.5540012  83.1154997 -13.6720012  95.1070012  83.9614997 -13.6910012
  94.9930012  82.5354997 -14.1880012  95.4169900  83.1529916 -13.7443199
  96.2650012  85.2774997 -11.5460012  96.4780012  84.5074997 -11.0190012
  97.0030012  85.3664997 -12.1500012  96.3938496  85.1841394 -11.5554700
 106.4700012  93.4344997 -10.6790012 107.0900012  92.7574997 -10.9530012
 106.2620012  93.2164997  -9.7710012 106.5266904  93.3123870 -10.5936635
 104.0420012  87.8234997  -8.7870012 104.3460012  87.1374997  -9.3820012
 104.7630012  87.9414997  -8.1690012 104.1810671  87.7456305  -8.7848184
 112.7050012  79.4244997  -7.9260012 112.7540012  80.0344997  -7.1900012
 113.1300012  79.8854997  -8.6490012 112.7691824  79.5703741  -7.9229795
 107.1830012  82.2174997  -8.4590012 107.3250012  81.2714997  -8.4390012
 107.0760012  82.4244997  -9.3880012 107.1879864  82.1159534  -8.5817661
 100.3370012  80.3184997 -11.1870012 100.3810012  81.1784997 -11.6050012
  99.8800012  79.7664997 -11.8210012 100.2812185  80.3615799 -11.3299701
 108.0600012  80.4494997 -12.7860012 108.7060012  80.1204997 -12.1610012
 108.5700012  80.9674997 -13.4090012 108.2174264  80.4744611 -12.7846138
  96.9580012  82.7154997 -10.4250012  97.6110012  82.1654997  -9.9930012
  96.9820012  82.4414997 -11.3420012  97.0506683  82.6031466 -10.4897877
 102.1140012  84.2654997 -11.2100012 102.7300012  83.7394997 -10.7000012
 101.5280012  83.6254997 -11.6130012 102.1190810  84.1069208 -11.1946827
 113.0960012  80.9024997  -5.6900012 112.4080012  81.5604997  -5.7860012
 113.1120012  80.7054997  -4.7540012 113.0038525  80.9660462  -5.5765192
  99.1480012  79.2364997  -7.1130012  98.9290012  79.7664997  -7.8790012
  98.4800012  79.4634997  -6.4660012  99.0277600  79.3396906  -7.1303621
 106.5170012  88.7364997 -13.5690012 106.2210012  88.4144997 -14.4200012
 106.1920012  89.6364997 -13.5280012 106.4326371  88.8140215 -13.6798199
 101.7170012  86.9124997  -6.8260012 100.9770012  87.5104997  -6.7220012
 102.4310012  87.4664997  -7.1410012 101.7122237  87.0692831  -6.8543535
 109.8240012  79.7404997 -10.8060012 109.6080012  78.9744997 -10.2730012
 110.4790012  80.2124997 -10.2930012 109.8830632  79.6995889 -10.6637139
  98.7410012  81.1284997  -9.1610012  99.3550012  81.7614997  -8.7870012
  99.2530012  80.6564997  -9.8170012  98.8942296  81.1512370  -9.1985748
 100.1240012  88.8764997  -6.0380012 100.1190012  89.7564997  -6.4160012
  99.2710012  88.7934997  -5.6130012 100.0079464  88.9856117  -6.0322093
  96.2450012  88.5474997 -15.2560012  95.9730012  88.7764997 -16.1450012
  96.2910012  89.3854997 -14.7960012  96.2140094  88.6921213 -15.3154303
 109.8700012  90.1694997  -8.5440012 108.9290012  90.2274997  -8.3820012
 110.1470012  91.0754997  -8.6810012 109.7784679  90.2999443  -8.5403185
 110.1710012  78.4554997  -7.1260012 109.4350012  79.0664997  -7.1640012
 110.8540012  78.8704997  -7.6530012 110.1626541  78.5951374  -7.2024168
 103.1740012  76.5424997  -9.6600012 103.0570012  75.5934997  -9.7150012
 102.3190012  76.8744997  -9.3870012 103.0423733  76.4575409  -9.6306103
 108.1220012  91.9504997 -11.9180012 108.5480012  91.2434997 -12.4030012
 108.4390012  92.7514997 -12.3350012 108.2231019  91.9620994 -12.0406870
 109.2820012  89.8514997 -13.4100012 109.0240012  89.1614997 -14.0210012
 109.3530012  89.4084997 -12.5640012 109.2562856  89.6972124 -13.3793115
 110.9680012  88.4174997  -4.9320012 111.1080012  87.8264997  -5.6720012
 111.1350012  89.2904997  -5.2890012 111.0096778  88.4546426  -5.0813035
 105.4410012  85.3794997 -15.1600012 104.7290012  85.9144997 -15.5120012
 106.1320012  85.4354997 -15.8200012 105.4370132  85.4602543 -15.2973711
 105.4940012  83.8374997 -18.1210012 106.1950012  83.8594997 -17.4700012
 105.7970012  83.2094997 -18.7770012 105.6307830  83.7556566 -18.1206289
 112.8100012  84.7574997  -6.8660012 112.1570012  85.4524997  -6.7770012
 113.2750012  84.9674997  -7.6760012 112.7835390  84.8809425  -6.9633117
 108.8460012  85.5894997 -14.2080012 108.1140012  85.8174997 -13.6350012
 109.2940012  84.8754997 -13.7530012 108.8063095  85.5242571 -14.0680881
 108.7440012  83.7634997  -5.1410012 108.8240012  84.5264997  -4.5690012
 108.1420012  84.0424997  -5.8310012 108.6735756  83.9057134  -5.1559411
 100.4920012  86.2194997 -12.3260012 100.1610012  85.8494997 -13.1440012
 101.0800012  85.5494997 -11.9790012 100.5261873  86.0781156 -12.3911898
 101.8580012  89.6474997  -9.6440012 101.7640012  89.0694997 -10.4010012
 102.5880012  89.2764997  -9.1480012 101.9437981  89.5182390  -9.6805835
 100.8580012  84.9884997  -8.6920012 101.4240012  85.1094997  -9.4550012
 101.1770012  85.6254997  -8.0530012 100.9785786  85.0911884  -8.7099960
 107.1670012  90.4914997  -7.9580012 106.9270012  91.1534997  -7.3100012
 106.9690012  89.6574997  -7.5330012 107.1073808  90.4693134  -7.8118476
 101.7380012  89.3874997  -3.9750012 101.4270012  90.1694997  -3.5200012
 101.0880012  89.2344997  -4.6610012 101.6075558  89.4739105  -4.0054129
 107.7170012  84.7514997 -16.5230012 108.2970012  84.9014997 -15.7760012
 108.1310012  85.2224997 -17.2460012 107.8522830  84.8356841 -16.5185866
  98.6580012  85.5854997  -4.7460012  98.7290012  86.2364997  -4.0480012
  97.7680012  85.6884997  -5.0810012  98.5473117  85.6885936  -4.6957300
 105.4440012  91.4884997 -13.0880012 105.9180012  91.7834997 -12.3100012
 104.8810012  92.2264997 -13.3210012 105.4327653  91.6286932 -13.0129864
  99.9780012  91.4594997  -3.2120012  99.9850012  91.3234997  -4.1590012
  99.0620012  91.3414997  -2.9600012  99.8551714  91.4249430  -3.3075334
 111.4160012  76.5014997 -16.7100012 110.5160012  76.6404997 -16.4150012
 111.6680012  77.3324997 -17.1120012 111.3268702  76.6329074 -16.7239795
  99.4820012  85.2894997 -14.7360012  99.1900012  86.0574997 -15.2270012
  98.8080012  84.6294997 -14.8990012  99.3509081  85.3054406 -14.8252660
 112.6050012  90.8674997 -18.3340012 112.6790012  91.8064997 -18.1630012
 113.5110012  90.5624997 -18.3900012 112.7375100  90.9546722 -18.3181881
  95.5750012  87.6524997  -5.9210012  95.0740012  87.6244997  -6.7360012
  95.5800012  86.7464997  -5.6120012  95.5071526  87.5262278  -5.9907128
  95.3250012  90.4324997  -9.0370012  96.2710012  90.2884997  -9.0560012
  95.2130012  91.2164997  -8.5000012  95.4392727  90.5188046  -8.9669928
 113.5230012  91.0984997  -3.3550012 113.4740012  90.1434997  -3.3920012
 112.6960012  91.3664997  -2.9540012 113.4044940  91.0038998  -3.3058625
 104.5020012  90.6724997  -4.4790012 104.5890012  91.4984997  -4.0040012
 103.6380012  90.3424997  -4.2300012 104.3971964  90.7409878  -4.3803451
 104.9160012  94.4444997 -14.6730012 104.8410012  94.3234997 -15.6190012
 104.9490012  95.3944997 -14.5540012 104.9101848  94.5562500 -14.7865166
  98.5690012  93.2334997 -12.8920012  98.7220012  92.8854997 -12.0130012
  97.7190012  92.8774997 -13.1470012  98.4748962  93.1376650 -12.8061660
 108.0180012  93.5984997 -17.6710012 108.3930012  92.8544997 -18.1410012
 108.0220012  93.3284997 -16.7520012 108.0698915  93.4601486 -17.6112176
 107.6870012  93.5244997 -14.9210012 106.7510012  93.6244997 -14.7430012
 107.9670012  92.8154997 -14.3430012 107.5968255  93.4422711 -14.8184609
 110.6750012  82.5914997  -2.8750012 110.2680012  83.0724997  -3.5960012
 110.7160012  81.6864997  -3.1830012 110.6248437  82.5349374  -3.0153317
  97.8240012  88.9754997  -4.8780012  98.0400012  88.6144997  -4.0190012
  96.9690012  88.6014997  -5.0880012  97.7379292  88.8754111  -4.7886614
 100.4430012  77.4454997  -8.8830012  99.5810012  77.3584997  -9.2900012
 100.4200012  78.3014997  -8.4550012 100.3220330  77.5492765  -8.8808137
 105.1060012  77.1674997  -5.5080012 105.5260012  76.7524997  -4.7550012
 104.1730012  76.9894997  -5.3910012 105.0373644  77.0865900  -5.3890461
 108.4320012  80.9234997  -4.6550012 107.9180012  80.7974997  -3.8570012
 108.2770012  81.8354997  -4.8990012 108.3406852  81.0296132  -4.5787842
 109.1950012  85.7844997 -18.8930012 109.2370012  85.5614997 -19.8230012
 110.0440012  86.1834997 -18.7030012 109.3155396  85.8079155 -18.9946373
 104.7670012  79.6604997 -18.2230012 104.5140012  79.6794997 -17.3000012
 104.5110012  78.7884997 -18.5240012 104.6977790  79.5452437 -18.1373737
 100.5340012  82.4114997  -7.7880012  99.8920012  82.3704997  -7.0790012
 100.5710012  83.3374997  -8.0250012 100.4511324  82.5311559  -7.7230176
 100.5310012  82.6324997 -12.8760012  99.6380012  82.2914997 -12.9340012
 100.9810012  82.2554997 -13.6310012 100.4697305  82.5348484 -12.9860823
 106.0660012  83.0484997 -14.0590012 105.6570012  83.8634997 -14.3500012
 106.7870012  82.9084997 -14.6730012 106.1074537  83.1412018 -14.1818658
 105.1680012  83.2234997  -2.5710012 104.6060012  82.5194997  -2.2500012
 105.9950012  83.1034997  -2.1030012 105.2027095  83.1107883  -2.4637670
 107.0710012  82.4944997 -11.2450012 106.8760012  83.0994997 -11.9600012
 107.2520012  81.6604997 -11.6790012 107.0687614  82.4646300 -11.4015595
  98.2840012  82.7314997  -5.9210012  98.2460012  83.1314997  -5.0520012
  97.7930012  81.9144997  -5.8300012  98.2124684  82.6758069  -5.7898941
 101.6500012  80.1054997 -19.1220012 101.2190012  79.6604997 -18.3920012
 100.9320012  80.4774997 -19.6340012 101.4939438  80.0948940 -19.0913201
  94.8920012  79.8474997 -12.0700012  95.5230012  79.8184997 -11.3510012
  95.3410012  79.4224997 -12.8000012  95.0390774  79.7860492 -12.0703447
  96.1660012  80.5934997 -16.6460012  96.6400012  81.1844997 -17.2310012
  95.4490012  81.1244997 -16.2990012  96.1339341  80.7460867 -16.6791164
 106.3350012  84.1324997  -6.5730012 106.6580012  83.5014997  -7.2160012
 105.8950012  83.5974997  -5.9130012 106.3196895  83.9738441  -6.5717150
 103.1120012  80.0594997 -11.7890012 102.2010012  80.1164997 -11.5010012
 103.6180012  79.9994997 -10.9790012 103.0555413  80.0591985 -11.6399378
  97.9410012  81.6884997 -12.9630012  97.0510012  81.7884997 -13.3030012
  98.2370012  80.8464997 -13.3090012  97.8592823  81.5883545 -13.0562787
 101.5940012  81.6884997 -15.3060012 102.5250012  81.8174997 -15.1280012
 101.3790012  82.3584997 -15.9560012 101.6924247  81.7966565 -15.3694253
 107.5170012  79.2944997  -8.5250012 106.8410012  79.4254997  -7.8610012
 107.0320012  79.1394997  -9.3350012 107.3587145  79.2914905  -8.5435483
 100.2680012  82.8834997 -17.7390012  99.7250012  82.5034997 -18.4310012
 101.1010012  83.0774997 -18.1680012 100.3064399  82.8578124 -17.8915474
 110.8050012  94.9664997  -2.2480012 111.0050012  95.3904997  -3.0830012
 111.4600012  95.3094997  -1.6410012 110.9210051  95.0709648  -2.2802164
  98.4030012  87.4404997  -2.6400012  99.1350012  87.6944997  -2.0790012
  97.6230012  87.6444997  -2.1250012  98.3978232  87.5029177  -2.4934240
 104.4320012  82.8474997  -9.9020012 104.9970012  82.3004997 -10.4490012
 104.2850012  82.3254997  -9.1140012 104.4892918  82.7022024  -9.8701546
  99.4340012  78.9834997 -13.4840012  99.1170012  78.0814997 -13.5190012
 100.2160012  78.9854997 -14.0370012  99.4962284  78.8601628 -13.5635217
 103.0590012  81.2354997  -7.4880012 102.2230012  81.6894997  -7.3780012
 103.5830012  81.5114997  -6.7360012 103.0154414  81.3349376  -7.3712864
 103.6030012  87.4484997 -15.8040012 102.8580012  86.9414997 -16.1260012
 103.4690012  87.4974997 -14.8570012 103.4828776  87.3856940 -15.7201353
 110.7530012  86.5814997  -7.0170012 111.3950012  87.0384997  -7.5610012
 109.9230012  86.6944997  -7.4800012 110.7285963  86.6592704  -7.1539823
 107.5010012  80.2624997 -17.6040012 106.5620012  80.3744997 -17.7560012
 107.7980012  81.1194997 -17.2980012 107.4127666  80.3936443 -17.5834232
 105.1220012  87.6324997  -4.5670012 104.7770012  87.2514997  -3.7600012
 104.9220012  88.5664997  -4.4950012 105.0478061  87.7065228  -4.4469039
 108.2190012  82.1294997 -15.9440012 109.1110012  81.9924997 -15.6250012
 108.2760012  82.9204997 -16.4800012 108.3486285  82.2176660 -15.9728310
  98.7280012  86.7434997 -10.0340012  99.4730012  86.7414997 -10.6350012
  98.8060012  85.9204997  -9.5520012  98.8405518  86.6319315 -10.0511071
 105.7290012  88.9074997 -16.7780012 105.4330012  89.7334997 -16.3970012
 105.0260012  88.2874997 -16.5820012 105.5934914  88.9368199 -16.6993557
  95.7360012  85.2044997  -4.7190012  95.9590012  84.7864997  -3.8870012
  95.1340012  84.5914997  -5.1420012  95.6851759  85.0644668  -4.6622978
 102.7520012  84.7214997  -2.5060012 102.4560012  84.5554997  -3.4010012
 103.6840012  84.5014997  -2.5170012 102.8374166  84.6690640  -2.6299464
 107.3730012  90.0944997  -4.6160012 106.4720012  90.2774997  -4.8840012
 107.4070012  90.3534997  -3.6950012 107.2543041  90.1545512  -4.5281803
 113.1040012  82.3394997 -16.2490012 112.5500012  81.9434997 -16.9210012
 113.2040012  83.2494997 -16.5270012 113.0417059  82.4083586 -16.3785599
 113.0670012  88.1394997  -3.4120012 112.2160012  88.3774997  -3.7790012
 113.6580012  88.1224997  -4.1650012 113.0302487  88.1698258  -3.5641107
 111.3990012  91.1254997 -15.7840012 111.0260012  90.2994997 -15.4750012
 111.6770012  90.9424997 -16.6810012 111.3855630  90.9877303 -15.8630374
 108.5600012  85.9334997  -8.7630012 107.6310012  85.7014997  -8.7900012
 109.0110012  85.1564997  -9.0930012 108.4939216  85.7967238  -8.8113083
 101.1030012  90.2614997 -12.6300012 101.6300012  91.0344997 -12.8300012
 100.2230012  90.4864997 -12.9310012 101.0561773  90.3978005 -12.6980990
  96.8580012  85.1234997 -18.0430012  97.4740012  85.7504997 -17.6630012
  95.9960012  85.4394997 -17.7710012  96.8257698  85.2519430 -17.9542817
 102.5300012  87.9244997 -13.0530012 102.2890012  88.8494997 -13.0120012
 101.7890012  87.4654997 -12.6570012 102.3968409  87.9891421 -12.9938623
 103.0450012  92.0734997  -6.7380012 103.4070012  92.9284997  -6.9720012
 103.5760012  91.7814997  -5.9980012 103.1664473  92.1511060  -6.6699145
 101.2130012  92.9464997 -13.5080012 100.2630012  93.0514997 -13.4570012
 101.5650012  93.7664997 -13.1630012 101.1304203  93.0718314 -13.4543350
 106.5890012  88.1724997  -7.0380012 106.1630012  87.9454997  -6.2110012
 107.1690012  87.4344997  -7.2200012 106.6091868  88.0415299  -6.9494170
 108.7920012  89.1014997 -17.9640012 109.1450012  88.7214997 -17.1590012
 107.8430012  89.0084997 -17.8770012 108.7120441  89.0369596 -17.8421441
 109.2470012  92.7244997  -4.5680012 108.6460012  92.1694997  -5.0640012
 109.5290012  93.3914997  -5.1940012 109.2028519  92.7386841  -4.7205048
 113.2950012  93.5814997 -17.7630012 114.0390012  94.1674997 -17.9030012
 112.6010012  94.1494997 -17.4290012 113.3030292  93.7385582 -17.7370039
  97.3700012  79.9574997  -5.1610012  96.4770012  80.2964997  -5.2290012
  97.2710012  79.1024997  -4.7430012  97.2344164  79.8882588  -5.1137765
 109.6580012  87.7744997 -15.7370012 109.3800012  87.0464997 -15.1810012
 110.5850012  87.8934997 -15.5320012 109.7453124  87.6908802 -15.6331155
  97.0210012  91.7624997  -6.7260012  97.2380012  90.8304997  -6.7570012
  97.2670012  92.0364997  -5.8430012  97.0839549  91.6720636  -6.6108237
 102.8830012  90.2134997 -19.5170012 103.1220012  89.4654997 -20.0640012
 102.6140012  89.8254997 -18.6840012 102.8793675  90.0586638 -19.4793135
 101.8200012  89.7834997 -17.0600012 101.9660012  89.2634997 -16.2700012
 101.8170012  90.6904997 -16.7540012 101.8395989  89.8348853 -16.9103912
  98.2730012  87.0364997 -16.5500012  97.5870012  87.3884997 -15.9830012
  98.7950012  87.7994997 -16.7970012  98.2496852  87.1878578 -16.5057882
 106.1040012  79.6984997  -6.2710012 106.8030012  79.7724997  -5.6210012
 105.7230012  78.8344997  -6.1170012 106.1481767  79.5917624  -6.1611678
 106.8890012  79.3504997 -15.1740012 107.1090012  79.8224997 -15.9770012
 107.4470012  79.7454997 -14.5040012 106.9944968  79.4684285 -15.1932669
 104.5570012  91.4814997 -16.3110012 103.7410012  91.9784997 -16.2590012
 105.0870012  91.9564997 -16.9510012 104.5169161  91.6137722 -16.3904044
 104.0890012  81.0784997 -14.3390012 104.9010012  81.5834997 -14.2930012
 103.8440012  80.9334997 -13.4250012 104.1670520  81.1280375 -14.2091483
 104.6240012  82.0644997  -5.1540012 104.7430012  82.6384997  -4.3970012
 105.2800012  81.3764997  -5.0400012 104.7289757  82.0501079  -5.0349175
 104.9720012  78.1594997 -13.4010012 104.6260012  78.7774997 -12.7560012
 105.6310012  78.6604997 -13.8820012 105.0137826  78.3115802 -13.3779029
 101.8960012  92.5254997 -16.3290012 102.0560012  93.3244997 -16.8300012
 101.6980012  92.8314997 -15.4440012 101.8911649  92.6764469 -16.2780185
 100.6300012  79.2224997 -16.7140012 100.5470012  80.1114997 -16.3670012
 101.5200012  78.9574997 -16.4820012 100.7389469  79.3081430 -16.6352374
 110.8290012  79.9714997  -4.3190012 109.9120012  80.2344997  -4.4070012
 111.1640012  79.9684997  -5.2160012 110.7489900  80.0070224  -4.4522081
 109.4310012  83.7224997 -10.2240012 108.6330012  83.3074997 -10.5520012
 109.8760012  83.0314997  -9.7330012 109.3819885  83.5723543 -10.2025111
  98.8890012  89.6504997 -17.6530012  99.4810012  90.3494997 -17.3770012
  99.3480012  89.2174997 -18.3730012  99.0321142  89.6877049 -17.7125170
  97.2050012  82.3144997 -18.5370012  97.1600012  83.2534997 -18.3590012
  96.3170012  82.0784997 -18.8070012  97.0788574  82.4111892 -18.5491088
 110.5170012  92.9784997  -8.6010012 110.3620012  93.6564997  -9.2580012
 111.4500012  93.0504997  -8.3980012 110.6218500  93.0810170  -8.6634881
  98.0130012  77.0964997  -9.8640012  97.7840012  77.1554997 -10.7920012
  97.5700012  76.3044997  -9.5580012  97.9218530  76.9975753  -9.9495214
  96.9430012  91.0364997 -13.7040012  96.1110012  91.5094997 -13.6760012
  97.4890012  91.5464997 -14.3020012  96.9029739  91.1701871 -13.7810284
  96.2310012  93.6494997  -2.3740012  96.7720012  93.4324997  -1.6140012
  95.7500012  92.8434997  -2.5630012  96.2399345  93.5109514  -2.2956924
 100.8290012  92.5684997  -0.7530012 101.5960012  92.1094997  -0.4120012
 100.8070012  92.3424997  -1.6830012 100.9311434  92.4750409  -0.8319957
 104.9210012  92.0764997 -19.3780012 104.2770012  91.4454997 -19.0570012
 105.6830012  91.5454997 -19.6100012 104.9358077  91.9182920 -19.3653989
 107.4060012  90.9484997  -2.0240012 107.0550012  90.0924997  -1.7810012
 108.1320012  91.0914997  -1.4170012 107.4560769  90.8505636  -1.9086381
 109.5250012  91.8934997 -19.1440012 109.8080012  91.0994997 -18.6920012
 110.2650012  92.1264997 -19.7050012 109.6637486  91.8162803 -19.1579302
  96.1380012  87.4594997  -1.4190012  96.2820012  86.5574997  -1.7060012
  95.3660012  87.7454997  -1.9070012  96.0533322  87.3748261  -1.5242119
 100.4800012  87.8034997 -19.2870012 100.5440012  87.0094997 -18.7560012
 101.1330012  87.6844997 -19.9770012 100.5770241  87.6787148 -19.3075683
 102.7940012  87.4294997  -1.9870012 102.4650012  87.7004997  -2.8440012
 102.9460012  86.4884997  -2.0740012 102.7694809  87.3393862  -2.1161756
 108.5280012  87.3454997  -4.6030012 109.2740012  87.9334997  -4.7230012
 107.7710012  87.9274997  -4.5400012 108.5277554  87.5047011  -4.6109093
  96.9710012  84.6594997  -1.9990012  97.3790012  83.8024997  -2.1200012
  96.7110012  84.6744997  -1.0780012  96.9917568  84.5440807  -1.8910412
 101.6290012  85.7754997 -16.9810012 101.1690012  85.2914997 -16.2950012
 101.8840012  85.1074997 -17.6170012 101.6004902  85.6188731 -16.9730666
 100.9180012  83.6684997  -4.6250012 100.3000012  84.3434997  -4.3450012
 101.2620012  83.9894997  -5.4580012 100.8799615  83.8042721  -4.6993419
 102.7000012  84.0184997 -18.7190012 102.5200012  83.8644997 -19.6460012
 103.6500012  84.1264997 -18.6740012 102.8037776  84.0120175 -18.8398157
 105.9380012  86.1404997  -1.3480012 106.8910012  86.2234997  -1.3750012
 105.7770012  85.4284997  -0.7280012 106.0466426  86.0556746  -1.2679421
 112.0900012  86.3734997 -19.2730012 111.8160012  85.9484997 -20.0860012
 112.1290012  87.3044997 -19.4900012 112.0577699  86.4412484 -19.4136390
 101.2570012  81.0234997  -3.5430012 101.4070012  80.2944997  -4.1450012
 101.2600012  81.8004997  -4.1020012 101.2779302  81.0287851  -3.7009308
 101.6700012  79.3934997  -6.0500012 102.2060012  79.8444997  -6.7020012
 100.8180012  79.2854997  -6.4730012 101.6282178  79.4406390  -6.1964244
 103.2520012  84.8324997  -5.8110012 104.0020012  84.6764997  -6.3840012
 102.9130012  85.6844997  -6.0860012 103.3088921  84.9262968  -5.9266439
 107.6670012  82.6474997  -0.7820012 107.8600012  81.7164997  -0.8940012
 108.5250012  83.0724997  -0.7920012 107.8093020  82.5776389  -0.7986639
 108.9840012  85.4364997  -2.7050012 108.7030012  86.1454997  -3.2820012
 109.9270012  85.3634997  -2.8560012 109.0729027  85.5237646  -2.8044449
  99.7360012  82.2214997  -1.6310012  98.9690012  81.6894997  -1.8410012
 100.4150012  81.9114997  -2.2310012  99.7227022  82.1067506  -1.7408352
 102.4760012  76.8494997  -5.6190012 102.3770012  77.7964997  -5.7240012
 101.7330012  76.4774997  -6.0940012 102.3620564  76.9285902  -5.6975440
 103.7400012  81.1714997  -2.0550012 103.5040012  80.9514997  -1.1530012
 102.9560012  80.9644997  -2.5650012 103.6018628  81.1134760  -2.0006068
 106.4550012  80.2984997  -2.9790012 105.5080012  80.3304997  -2.8470012
 106.7680012  79.6734997  -2.3260012 106.3675475  80.2183207  -2.8725545
 108.0890012  78.9324997  -0.9740012 107.9930012  77.9804997  -0.9800012
 107.7680012  79.2014997  -0.1140012 108.0324070  78.8384035  -0.8584559
  97.9160012  80.1424997  -1.9270012  98.1280012  79.4354997  -2.5370012
  97.8050012  79.7044997  -1.0830012  97.9299721  79.9867084  -1.8963157
 102.6970012  76.1434997  -2.9470012 103.4090012  75.5034997  -2.9610012
 102.5960012  76.4104997  -3.8610012 102.7807939  76.0919938  -3.0724350
 103.0510012  77.8264997  -0.8940012 102.9190012  77.3504997  -1.7140012
 102.4520012  78.5704997  -0.9490012 102.9519071  77.8619618  -1.0137114
 102.5970012  94.7094997 -17.7170012 103.5300012  94.8674997 -17.5740012
 102.3330012  95.3844997 -18.3420012 102.6889510  94.8223611 -17.7819259
  96.1660012  89.3454997 -18.2350012  97.0800012  89.4244997 -17.9610012
  96.1730012  88.6584997 -18.9010012  96.2921131  89.2633961 -18.2875607
  94.8150012  94.7384997 -13.1570012  94.1680012  94.2764997 -13.6900012
  95.1690012  94.0664997 -12.5750012  94.7743849  94.5844723 -13.1512041
  95.6850012  92.8194997 -11.3530012  95.3500012  91.9394997 -11.1810012
  95.9070012  93.1644997 -10.4880012  95.6691783  92.7457500 -11.2125792
 113.2330012  93.6284997  -8.3720012 113.2120012  93.8134997  -7.4330012
 113.9240012  94.1974997  -8.7130012 113.3234618  93.7306606  -8.2896136
 112.7970012  93.1964997  -5.4500012 112.3090012  92.4604997  -5.8210012
 113.3460012  92.8024997  -4.7720012 112.8044872  93.0426249  -5.4090840
 111.2470012  88.9854997  -0.8120012 110.3810012  88.8804997  -0.4180012
 111.6240012  89.7444997  -0.3660012 111.1793308  89.0736900  -0.6977607
 112.5480012  87.2424997 -15.2980012 113.3980012  87.6634997 -15.1710012
 112.5540012  86.5024997 -14.6910012 112.6651372  87.2000803 -15.1985656
 112.9430012  85.2954997 -13.4740012 112.2160012  84.8164997 -13.0770012
 113.5240012  85.5014997 -12.7420012 112.9219375  85.2577090 -13.3205871
 112.7020012  88.0804997  -8.5270012 113.5350012  87.7024997  -8.8070012
 112.8140012  89.0234997  -8.6460012 112.8312647  88.1562218  -8.5814513
 111.1880012  90.9584997  -6.2200012 110.5410012  91.2834997  -5.5940012
 110.6710012  90.5184997  -6.8940012 111.0294029  90.9435004  -6.2254173
 113.2110012  85.1964997 -17.0830012 112.6890012  85.5534997 -17.8020012
 113.1780012  85.8714997 -16.4050012 113.1351634  85.3365413 -17.0896855
 111.5600012  82.4364997 -18.5320012 111.6560012  83.1034997 -19.2130012
 111.4200012  81.6204997 -19.0140012 111.5542135  82.4174500 -18.6901509
 110.7290012  83.8164997 -12.9110012 110.5790012  82.8714997 -12.9320012
 110.3760012  84.0974997 -12.0680012 110.6606625  83.7250441 -12.7997654
  95.7650012  85.8944997  -8.9010012  95.9490012  85.8124997  -9.8370012
  96.6140012  85.7704997  -8.4770012  95.9050139  85.8665003  -8.9718545
 111.5860012  85.7864997  -3.2730012 112.1690012  85.0524997  -3.0810012
 112.1500012  86.5584997  -3.2260012 111.7419769  85.7904227  -3.2403841
 113.0820012  83.6894997  -2.5880012 112.2190012  83.3104997  -2.7540012
 113.6870012  82.9504997  -2.6620012 113.0455979  83.5378023  -2.6207183
 110.8070012  79.8444997 -19.4150012 111.4180012  79.4734997 -18.7780012
 109.9710012  79.4234997 -19.2190012 110.7775032  79.7367554 -19.3012965
 110.4400012  81.3994997 -14.4490012 110.7200012  80.4924997 -14.3250012
 111.1990012  81.8334997 -14.8380012 110.5809277  81.3340942 -14.4846318
 111.0520012  81.9804997  -9.0130012 111.9850012  82.1924997  -9.0470012
 110.8170012  82.0824997  -8.0910012 111.1478036  82.0232769  -8.8930024
 111.0810012  82.7174997  -6.2370012 110.2380012  82.9854997  -5.8710012
 111.5230012  83.5394997  -6.4480012 111.0254158  82.8653291  -6.2154509
  95.3620012  81.1654997  -2.7600012  96.2820012  81.0434997  -2.5240012
  94.9130012  80.4154997  -2.3710012  95.4271580  81.0473727  -2.6750994
 113.3640012  76.6974997  -0.8840012 113.7140012  76.0434997  -1.4890012
 113.5110012  77.5344997  -1.3230012 113.4318419  76.7211591  -1.0262882
 111.0530012  78.6624997 -14.4010012 111.2360012  78.2134997 -13.5750012
 110.4540012  78.0774997 -14.8640012 110.9970202  78.5219975 -14.3506725
  96.5830012  79.4774997  -9.8690012  97.0290012  78.6854997  -9.5670012
  97.0500012  80.1934997  -9.4380012  96.7070172  79.4660624  -9.7695180
  94.8870012  82.4764997  -8.8000012  95.3790012  82.2554997  -9.5910012
  95.2500012  83.3174997  -8.5190012  95.0033126  82.5598357  -8.8702469
 112.8840012  78.8064997  -2.5340012 111.9660012  79.0774997  -2.5700012
 113.0070012  78.2714997  -3.3190012 112.7751066  78.7712892  -2.6449513
 112.9200012  78.7294997 -17.8730012 113.3320012  78.0084997 -18.3480012
 113.6020012  79.3994997 -17.8140012 113.0685885  78.7212368 -17.9301085
  95.2010012  78.7344997 -14.7460012  94.2760012  78.9434997 -14.8750012
  95.6550012  79.2184997 -15.4350012  95.1357368  78.8285993 -14.8568774
 109.9720012  93.7184997 -12.8000012 110.6240012  93.3714997 -13.4080012
 110.4820012  94.2074997 -12.1540012 110.1302637  93.7370597 -12.7959764
  95.1650012  77.4724997  -6.4010012  94.5000012  77.2264997  -5.7580012
  94.7220012  78.0944997  -6.9790012  95.0140956  77.5228632  -6.3910648
  97.3570012  90.6474997  -2.2570012  96.5360012  90.8224997  -2.7170012
  97.1040012  90.5744997  -1.3360012  97.2106164  90.6615622  -2.1955077
 100.3110012  91.6224997  -5.9980012  99.8860012  92.4314997  -6.2810012
 101.2150012  91.7074997  -6.3000012 100.3750271  91.7448469  -6.0776224
 104.6220012  93.0214997  -3.0390012 104.8070012  92.6874997  -2.1610012
 105.4680012  93.3304997  -3.3610012 104.7617539  93.0176047  -2.9624395
 106.9670012  94.3074997  -3.7950012 107.6440012  93.6744997  -4.0350012
 107.2890012  94.7084997  -2.9880012 107.1031637  94.2751154  -3.7187207
 111.8840012  76.8964997  -4.7150012 111.0720012  77.2214997  -5.1030012
 112.1170012  76.1364997  -5.2480012 111.8043423  76.8382436  -4.8401747
  97.7130012  94.8784997  -5.9510012  96.9920012  95.3184997  -6.4020012
  97.3470012  94.6274997  -5.1020012  97.5649804  94.9047698  -5.8980160
 100.1800012  94.4784997  -6.9210012  99.3150012  94.5504997  -6.5170012
 100.1250012  95.0254997  -7.7050012 100.0542085  94.5622685  -6.9716638
 104.8900012  94.3664997  -7.7460012 104.4340012  94.8954997  -8.4000012
 105.0530012  94.9694997  -7.0200012 104.8495585  94.5204468  -7.7374938
 107.2180012  93.2444997  -6.8010012 106.3130012  93.4094997  -7.0660012
 107.6470012  94.0974997  -6.8660012 107.1520799  93.3824483  -6.8460818
 109.8220012  94.8144997  -6.5060012 109.6400012  95.7304997  -6.7160012
 109.9990012  94.4044997  -7.3520012 109.8210210  94.8844822  -6.6492115
  97.1270012  93.5014997  -9.0410012  97.1090012  93.0764997  -8.1830012
  97.9320012  93.1834997  -9.4490012  97.2333875  93.4003812  -8.9788345
  99.2690012  92.2114997 -10.3860012  99.0500012  91.2954997 -10.2160012
 100.0930012  92.3514997  -9.9200012  99.3504420  92.1050520 -10.2997226
 101.8060012  92.6814997  -9.5370012 102.0190012  91.7934997  -9.8240012
 101.8700012  92.6474997  -8.5830012 101.8438232  92.5553102  -9.4472603
 105.3140012  78.3454997 -10.3930012 104.6400012  77.7164997 -10.1370012
 105.8780012  77.8614997 -10.9960012 105.2979230  78.1938744 -10.4394660
 110.4570012  76.4534997 -10.2800012 111.0610012  77.0004997 -10.7820012
 109.5870012  76.7724997 -10.5200012 110.4221241  76.5715806 -10.3812346
 112.1840012  77.5914997 -11.9470012 112.7960012  77.0774997 -12.4730012
 112.5660012  78.4694997 -11.9230012 112.3194540  77.6397140 -12.0158170
  97.6410012  76.9794997 -12.5710012  96.8640012  76.7454997 -13.0780012
  98.1710012  76.1824997 -12.5620012  97.6062330  76.8396988 -12.6392258
  96.4770012  76.7774997 -16.7670012  96.9160012  77.3884997 -17.3590012
  95.8440012  77.3154997 -16.2930012  96.4514514  76.9339257 -16.7839070
 102.2200012  76.9064997 -12.7570012 103.0950012  77.2944997 -12.7870012
 102.0840012  76.6914997 -11.8350012 102.3213695  76.9305184 -12.6363560
 107.7770012  76.9364997 -11.1080012 107.8530012  77.0314997 -12.0580012
 107.5020012  76.0284997 -10.9790012 107.7502321  76.8267867 -11.2204921
 109.1300012  76.9624997 -15.4160012 108.4280012  77.5774997 -15.6250012
 108.6860012  76.1244997 -15.2850012 108.9736330  76.9335783 -15.4269672
  96.3780012  92.7254997 -15.8690012  95.6930012  92.6874997 -16.5370012
  96.3820012  93.6384997 -15.5810012  96.2848193  92.8437016 -15.9214716
  98.3380012  78.6934997 -18.3250012  98.8300012  78.0634997 -18.8520012
  98.9620012  78.9894997 -17.6610012  98.4895446  78.6473199 -18.3074020
 103.3640012  78.9864997 -15.8680012 103.5420012  78.3404997 -15.1850012
 103.3110012  79.8204997 -15.4000012 103.3811829  79.0107985 -15.7114060
 105.2430012  93.9354997 -17.4720012 106.1090012  94.3014997 -17.6500012
 104.9960012  93.4954997 -18.2860012 105.3282392  93.9261756 -17.6063711
 111.9520012  93.4984997 -14.7930012 111.7570012  92.7504997 -15.3580012
 111.9130012  94.2564997 -15.3760012 111.9200380  93.4986099 -14.9491616
  97.5990012  77.4934997  -3.0530012  97.2330012  76.7284997  -2.6100012
  98.5120012  77.5224997  -2.7660012  97.6722790  77.3927224  -2.9535930
  99.5720012  76.8444997  -1.5170012 100.4700012  76.5704997  -1.7020012
  99.1850012  76.1014997  -1.0530012  99.6426612  76.7065914  -1.4796357
  98.1960012  93.6454997 -18.8440012  97.9290012  93.9324997 -17.9710012
  98.9680012  93.0994997 -18.6920012  98.2637488  93.6110294 -18.7038950
 107.9930012  76.1764997  -1.3350012 108.0700012  75.7504997  -0.4810012
 108.8870012  76.1904997  -1.6780012 108.1243428  76.1200879  -1.2644690
 111.1690012  92.2494997  -2.6430012 110.3870012  92.0634997  -3.1620012
 111.0970012  93.1784997  -2.4250012 111.0521777  92.3496492  -2.6845952
 125.5750012  86.1354997 -12.6120012 125.6640012  87.0794997 -12.7440012
 124.9370012  85.8604997 -13.2700012 125.5009081  86.2274830 -12.7190386
 124.5080012  85.3904997  -9.1930012 124.4700012  84.7444997  -8.4880012
 124.1860012  84.9244997  -9.9640012 124.4592333  85.2389408  -9.2007022
 116.8770012  85.0054997  -7.6000012 116.9180012  84.3794997  -6.8770012
 117.5800012  85.6294997  -7.4180012 116.9776363  85.0041196  -7.4763956
 128.2140012  88.3294997 -10.8920012 127.7740012  87.6094997 -10.4410012
 128.2010012  89.0504997 -10.2620012 128.1520226  88.3283731 -10.7451506
 117.8000012  89.4554997  -9.0650012 117.4310012  88.6534997  -9.4350012
 118.7410012  89.2864997  -9.0190012 117.8767289  89.3230153  -9.1093684
 114.4100012  83.1154997 -13.6720012 113.9630012  83.9614997 -13.6910012
 113.8490012  82.5354997 -14.1880012 114.2729900  83.1529916 -13.7443199
 115.1210012  85.2774997 -11.5460012 115.3340012  84.5074997 -11.0190012
 115.8590012  85.3664997 -12.1500012 115.2498496  85.1841394 -11.5554700
 125.3260012  93.4344997 -10.6790012 125.9460012  92.7574997 -10.9530012
 125.1180012  93.2164997  -9.7710012 125.3826904  93.3123870 -10.5936635
 122.8980012  87.8234997  -8.7870012 123.2020012  87.1374997  -9.3820012
 123.6190012  87.9414997  -8.1690012 123.0370671  87.7456304  -8.7848184
 131.5610012  79.4244997  -7.9260012 131.6100012  80.0344997  -7.1900012
 131.9860012  79.8854997  -8.6490012 131.6251824  79.5703741  -7.9229795
 126.0390012  82.2174997  -8.4590012 126.1810012  81.2714997  -8.4390012
 125.9320012  82.4244997  -9.3880012 126.0439864  82.1159534  -8.5817661
 119.1930012  80.3184997 -11.1870012 119.2370012  81.1784997 -11.6050012
 118.7360012  79.7664997 -11.8210012 119.1372185  80.3615799 -11.3299701
 126.9160012  80.4494997 -12.7860012 127.5620012  80.1204997 -12.1610012
 127.4260012  80.9674997 -13.4090012 127.0734264  80.4744611 -12.7846138
 115.8140012  82.7154997 -10.4250012 116.4670012  82.1654997  -9.9930012
 115.8380012  82.4414997 -11.3420012 115.9066683  82.6031466 -10.4897877
 120.9700012  84.2654997 -11.2100012 121.5860012  83.7394997 -10.7000012
 120.3840012  83.6254997 -11.6130012 120.9750810  84.1069208 -11.1946827
 131.9520012  80.9024997  -5.6900012 131.2640012  81.5604997  -5.7860012
 131.9680012  80.7054997  -4.7540012 131.8598525  80.9660462  -5.5765192
 118.0040012  79.2364997  -7.1130012 117.7850012  79.7664997  -7.8790012
 117.3360012  79.4634997  -6.4660012 117.8837600  79.3396906  -7.1303621
 125.3730012  88.7364997 -13.5690012 125.0770012  88.4144997 -14.4200012
 125.0480012  89.6364997 -13.5280012 125.2886371  88.8140215 -13.6798199
 120.5730012  86.9124997  -6.8260012 119.8330012  87.5104997  -6.7220012
 121.2870012  87.4664997  -7.1410012 120.5682237  87.0692831  -6.8543535
 128.6800012  79.7404997 -10.8060012 128.4640012  78.9744997 -10.2730012
 129.3350012  80.2124997 -10.2930012 128.7390632  79.6995889 -10.6637139
 117.5970012  81.1284997  -9.1610012 118.2110012  81.7614997  -8.7870012
 118.1090012  80.6564997  -9.8170012 117.7502296  81.1512370  -9.1985748
 118.9800012  88.8764997  -6.0380012 118.9750012  89.7564997  -6.4160012
 118.1270012  88.7934997  -5.6130012 118.8639464  88.9856117  -6.0322093
 115.1010012  88.5474997 -15.2560012 114.8290012  88.7764997 -16.1450012
 115.1470012  89.3854997 -14.7960012 115.0700094  88.6921213 -15.3154303
 128.7260012  90.1694997  -8.5440012 127.7850012  90.2274997  -8.3820012
 129.0030012  91.0754997  -8.6810012 128.6344679  90.2999443  -8.5403185
 129.0270012  78.4554997  -7.1260012 128.2910012  79.0664997  -7.1640012
 129.7100012  78.8704997  -7.6530012 129.0186541  78.5951374  -7.2024168
 122.0300012  76.5424997  -9.6600012 121.9130012  75.5934997  -9.7150012
 121.1750012  76.8744997  -9.3870012 121.8983733  76.4575409  -9.6306103
 126.9780012  91.9504997 -11.9180012 127.4040012  91.2434997 -12.4030012
 127.2950012  92.7514997 -12.3350012 127.0791019  91.9620994 -12.0406870
 128.1380012  89.8514997 -13.4100012 127.8800012  89.1614997 -14.0210012
 128.2090012  89.4084997 -12.5640012 128.1122856  89.6972124 -13.3793115
 129.8240012  88.4174997  -4.9320012 129.9640012  87.8264997  -5.6720012
 129.9910012  89.2904997  -5.2890012 129.8656778  88.4546426  -5.0813035
 124.2970012  85.3794997 -15.1600012 123.5850012  85.9144997 -15.5120012
 124.9880012  85.4354997 -15.8200012 124.2930132  85.4602543 -15.2973711
 124.3500012  83.8374997 -18.1210012 125.0510012  83.8594997 -17.4700012
 124.6530012  83.2094997 -18.7770012 124.4867830  83.7556566 -18.1206289
 131.6660012  84.7574997  -6.8660012 131.0130012  85.4524997  -6.7770012
 132.1310012  84.9674997  -7.6760012 131.6395390  84.8809425  -6.9633117
 127.7020012  85.5894997 -14.2080012 126.9700012  85.8174997 -13.6350012
 128.1500012  84.8754997 -13.7530012 127.6623095  85.5242571 -14.0680881
 127.6000012  83.7634997  -5.1410012 127.6800012  84.5264997  -4.5690012
 126.9980012  84.0424997  -5.8310012 127.5295756  83.9057134  -5.1559411
 119.3480012  86.2194997 -12.3260012 119.0170012  85.8494997 -13.1440012
 119.9360012  85.5494997 -11.9790012 119.3821873  86.0781156 -12.3911898
 120.7140012  89.6474997  -9.6440012 120.6200012  89.0694997 -10.4010012
 121.4440012  89.2764997  -9.1480012 120.7997981  89.5182390  -9.6805835
 119.7140012  84.9884997  -8.6920012 120.2800012  85.1094997  -9.4550012
 120.0330012  85.6254997  -8.0530012 119.8345786  85.0911884  -8.7099960
 126.0230012  90.4914997  -7.9580012 125.7830012  91.1534997  -7.3100012
 125.8250012  89.6574997  -7.5330012 125.9633808  90.4693134  -7.8118476
 120.5940012  89.3874997  -3.9750012 120.2830012  90.1694997  -3.5200012
 119.9440012  89.2344997  -4.6610012 120.4635558  89.4739105  -4.0054129
 126.5730012  84.7514997 -16.5230012 127.1530012  84.9014997 -15.7760012
 126.9870012  85.2224997 -17.2460012 126.7082830  84.8356841 -16.5185866
 117.5140012  85.5854997  -4.7460012 117.5850012  86.2364997  -4.0480012
 116.6240012  85.6884997  -5.0810012 117.4033117  85.6885936  -4.6957300
 124.3000012  91.4884997 -13.0880012 124.7740012  91.7834997 -12.3100012
 123.7370012  92.2264997 -13.3210012 124.2887653  91.6286932 -13.0129864
 118.8340012  91.4594997  -3.2120012 118.8410012  91.3234997  -4.1590012
 117.9180012  91.3414997  -2.9600012 118.7111714  91.4249430  -3.3075334
 130.2720012  76.5014997 -16.7100012 129.3720012  76.6404997 -16.4150012
 130.5240012  77.3324997 -17.1120012 130.1828702  76.6329074 -16.7239795
 118.3380012  85.2894997 -14.7360012 118.0460012  86.0574997 -15.2270012
 117.6640012  84.6294997 -14.8990012 118.2069081  85.3054406 -14.8252660
 131.4610012  90.8674997 -18.3340012 131.5350012  91.8064997 -18.1630012
 132.3670012  90.5624997 -18.3900012 131.5935100  90.9546722 -18.3181881
 114.4310012  87.6524997  -5.9210012 113.9300012  87.6244997  -6.7360012
 114.4360012  86.7464997  -5.6120012 114.3631526  87.5262278  -5.9907128
 114.1810012  90.4324997  -9.0370012 115.1270012  90.2884997  -9.0560012
 114.0690012  91.2164997  -8.5000012 114.2952727  90.5188046  -8.9669928
 132.3790012  91.0984997  -3.3550012 132.3300012  90.1434997  -3.3920012
 131.5520012  91.3664997  -2.9540012 132.2604940  91.0038998  -3.3058625
 123.3580012  90.6724997  -4.4790012 123.4450012  91.4984997  -4.0040012
 122.4940012  90.3424997  -4.2300012 123.2531964  90.7409878  -4.3803451
 123.7720012  94.4444997 -14.6730012 123.6970012  94.3234997 -15.6190012
 123.8050012  95.3944997 -14.5540012 123.7661848  94.5562500 -14.7865166
 117.4250012  93.2334997 -12.8920012 117.5780012  92.8854997 -12.0130012
 116.5750012  92.8774997 -13.1470012 117.3308962  93.1376650 -12.8061660
 126.8740012  93.5984997 -17.6710012 127.2490012  92.8544997 -18.1410012
 126.8780012  93.3284997 -16.7520012 126.9258915  93.4601486 -17.6112176
 126.5430012  93.5244997 -14.9210012 125.6070012  93.6244997 -14.7430012
 126.8230012  92.8154997 -14.3430012 126.4528255  93.4422711 -14.8184609
 129.5310012  82.5914997  -2.8750012 129.1240012  83.0724997  -3.5960012
 129.5720012  81.6864997  -3.1830012 129.4808437  82.5349374  -3.0153317
 116.6800012  88.9754997  -4.8780012 116.8960012  88.6144997  -4.0190012
 115.8250012  88.6014997  -5.0880012 116.5939292  88.8754111  -4.7886614
 119.2990012  77.4454997  -8.8830012 118.4370012  77.3584997  -9.2900012
 119.2760012  78.3014997  -8.4550012 119.1780330  77.5492765  -8.8808137
 123.9620012  77.1674997  -5.5080012 124.3820012  76.7524997  -4.7550012
 123.0290012  76.9894997  -5.3910012 123.8933644  77.0865900  -5.3890461
 127.2880012  80.9234997  -4.6550012 126.7740012  80.7974997  -3.8570012
 127.1330012  81.8354997  -4.8990012 127.1966852  81.0296132  -4.5787842
 128.0510012  85.7844997 -18.8930012 128.0930012  85.5614997 -19.8230012
 128.9000012  86.1834997 -18.7030012 128.1715396  85.8079155 -18.9946373
 123.6230012  79.6604997 -18.2230012 123.3700012  79.6794997 -17.3000012
 123.3670012  78.7884997 -18.5240012 123.5537790  79.5452437 -18.1373737
 119.3900012  82.4114997  -7.7880012 118.7480012  82.3704997  -7.0790012
 119.4270012  83.3374997  -8.0250012 119.3071324  82.5311559  -7.7230176
 119.3870012  82.6324997 -12.8760012 118.4940012  82.2914997 -12.9340012
 119.8370012  82.2554997 -13.6310012 119.3257305  82.5348484 -12.9860823
 124.9220012  83.0484997 -14.0590012 124.5130012  83.8634997 -14.3500012
 125.6430012  82.9084997 -14.6730012 124.9634537  83.1412018 -14.1818658
 124.0240012  83.2234997  -2.5710012 123.4620012  82.5194997  -2.2500012
 124.8510012  83.1034997  -2.1030012 124.0587095  83.1107883  -2.4637670
 125.9270012  82.4944997 -11.2450012 125.7320012  83.0994997 -11.9600012
 126.1080012  81.6604997 -11.6790012 125.9247614  82.4646300 -11.4015595
 117.1400012  82.7314997  -5.9210012 117.1020012  83.1314997  -5.0520012
 116.6490012  81.9144997  -5.8300012 117.0684684  82.6758069  -5.7898941
 120.5060012  80.1054997 -19.1220012 120.0750012  79.6604997 -18.3920012
 119.7880012  80.4774997 -19.6340012 120.3499438  80.0948940 -19.0913201
 113.7480012  79.8474997 -12.0700012 114.3790012  79.8184997 -11.3510012
 114.1970012  79.4224997 -12.8000012 113.8950774  79.7860492 -12.0703447
 115.0220012  80.5934997 -16.6460012 115.4960012  81.1844997 -17.2310012
 114.3050012  81.1244997 -16.2990012 114.9899341  80.7460867 -16.6791164
 125.1910012  84.1324997  -6.5730012 125.5140012  83.5014997  -7.2160012
 124.7510012  83.5974997  -5.9130012 125.1756895  83.9738441  -6.5717150
 121.9680012  80.0594997 -11.7890012 121.0570012  80.1164997 -11.5010012
 122.4740012  79.9994997 -10.9790012 121.9115413  80.0591985 -11.6399378
 116.7970012  81.6884997 -12.9630012 115.9070012  81.7884997 -13.3030012
 117.0930012  80.8464997 -13.3090012 116.7152823  81.5883545 -13.0562787
 120.4500012  81.6884997 -15.3060012 121.3810012  81.8174997 -15.1280012
 120.2350012  82.3584997 -15.9560012 120.5484247  81.7966565 -15.3694253
 126.3730012  79.2944997  -8.5250012 125.6970012  79.4254997  -7.8610012
 125.8880012  79.1394997  -9.3350012 126.2147145  79.2914905  -8.5435483
 119.1240012  82.8834997 -17.7390012 118.5810012  82.5034997 -18.4310012
 119.9570012  83.0774997 -18.1680012 119.1624399  82.8578124 -17.8915474
 129.6610012  94.9664997  -2.2480012 129.8610012  95.3904997  -3.0830012
 130.3160012  95.3094997  -1.6410012 129.7770051  95.0709648  -2.2802164
 117.2590012  87.4404997  -2.6400012 117.9910012  87.6944997  -2.0790012
 116.4790012  87.6444997  -2.1250012 117.2538232  87.5029177  -2.4934240
 123.2880012  82.8474997  -9.9020012 123.8530012  82.3004997 -10.4490012
 123.1410012  82.3254997  -9.1140012 123.3452918  82.7022024  -9.8701546
 118.2900012  78.9834997 -13.4840012 117.9730012  78.0814997 -13.5190012
 119.0720012  78.9854997 -14.0370012 118.3522284  78.8601628 -13.5635217
 121.9150012  81.2354997  -7.4880012 121.0790012  81.6894997  -7.3780012
 122.4390012  81.5114997  -6.7360012 121.8714414  81.3349376  -7.3712864
 122.4590012  87.4484997 -15.8040012 121.7140012  86.9414997 -16.1260012
 122.3250012  87.4974997 -14.8570012 122.3388776  87.3856940 -15.7201353
 129.6090012  86.5814997  -7.0170012 130.2510012  87.0384997  -7.5610012
 128.7790012  86.6944997  -7.4800012 129.5845963  86.6592704  -7.1539823
 126.3570012  80.2624997 -17.6040012 125.4180012  80.3744997 -17.7560012
 126.6540012  81.1194997 -17.2980012 126.2687666  80.3936443 -17.5834232
 123.9780012  87.6324997  -4.5670012 123.6330012  87.2514997  -3.7600012
 123.7780012  88.5664997  -4.4950012 123.9038061  87.7065228  -4.4469039
 127.0750012  82.1294997 -15.9440012 127.9670012  81.9924997 -15.6250012
 127.1320012  82.9204997 -16.4800012 127.2046285  82.2176660 -15.9728310
 117.5840012  86.7434997 -10.0340012 118.3290012  86.7414997 -10.6350012
 117.6620012  85.9204997  -9.5520012 117.6965518  86.6319315 -10.0511071
 124.5850012  88.9074997 -16.7780012 124.2890012  89.7334997 -16.3970012
 123.8820012  88.2874997 -16.5820012 124.4494914  88.9368199 -16.6993557
 114.5920012  85.2044997  -4.7190012 114.8150012  84.7864997  -3.8870012
 113.9900012  84.5914997  -5.1420012 114.5411759  85.0644668  -4.6622978
 121.6080012  84.7214997  -2.5060012 121.3120012  84.5554997  -3.4010012
 122.5400012  84.5014997  -2.5170012 121.6934166  84.6690640  -2.6299464
 126.2290012  90.0944997  -4.6160012 125.3280012  90.2774997  -4.8840012
 126.2630012  90.3534997  -3.6950012 126.1103041  90.1545512  -4.5281803
 131.9600012  82.3394997 -16.2490012 131.4060012  81.9434997 -16.9210012
 132.0600012  83.2494997 -16.5270012 131.8977059  82.4083586 -16.3785599
 131.9230012  88.1394997  -3.4120012 131.0720012  88.3774997  -3.7790012
 132.5140012  88.1224997  -4.1650012 131.8862487  88.1698258  -3.5641107
 130.2550012  91.1254997 -15.7840012 129.8820012  90.2994997 -15.4750012
 130.5330012  90.9424997 -16.6810012 130.2415630  90.9877303 -15.8630374
 127.4160012  85.9334997  -8.7630012 126.4870012  85.7014997  -8.7900012
 127.8670012  85.1564997  -9.0930012 127.3499216  85.7967238  -8.8113083
 119.9590012  90.2614997 -12.6300012 120.4860012  91.0344997 -12.8300012
 119.0790012  90.4864997 -12.9310012 119.9121773  90.3978005 -12.6980990
 115.7140012  85.1234997 -18.0430012 116.3300012  85.7504997 -17.6630012
 114.8520012  85.4394997 -17.7710012 115.6817698  85.2519430 -17.9542817
 121.3860012  87.9244997 -13.0530012 121.1450012  88.8494997 -13.0120012
 120.6450012  87.4654997 -12.6570012 121.2528409  87.9891421 -12.9938623
 121.9010012  92.0734997  -6.7380012 122.2630012  92.9284997  -6.9720012
 122.4320012  91.7814997  -5.9980012 122.0224473  92.1511060  -6.6699145
 120.0690012  92.9464997 -13.5080012 119.1190012  93.0514997 -13.4570012
 120.4210012  93.7664997 -13.1630012 119.9864203  93.0718314 -13.4543350
 125.4450012  88.1724997  -7.0380012 125.0190012  87.9454997  -6.2110012
 126.0250012  87.4344997  -7.2200012 125.4651868  88.0415299  -6.9494170
 127.6480012  89.1014997 -17.9640012 128.0010012  88.7214997 -17.1590012
 126.6990012  89.0084997 -17.8770012 127.5680441  89.0369596 -17.8421441
 128.1030012  92.7244997  -4.5680012 127.5020012  92.1694997  -5.0640012
 128.3850012  93.3914997  -5.1940012 128.0588519  92.7386841  -4.7205048
 132.1510012  93.5814997 -17.7630012 132.8950012  94.1674997 -17.9030012
 131.4570012  94.1494997 -17.4290012 132.1590292  93.7385582 -17.7370039
 116.2260012  79.9574997  -5.1610012 115.3330012  80.2964997  -5.2290012
 116.1270012  79.1024997  -4.7430012 116.0904164  79.8882588  -5.1137765
 128.5140012  87.7744997 -15.7370012 128.2360012  87.0464997 -15.1810012
 129.4410012  87.8934997 -15.5320012 128.6013124  87.6908802 -15.6331155
 115.8770012  91.7624997  -6.7260012 116.0940012  90.8304997  -6.7570012
 116.1230012  92.0364997  -5.8430012 115.9399549  91.6720636  -6.6108237
 121.7390012  90.2134997 -19.5170012 121.9780012  89.4654997 -20.0640012
 121.4700012  89.8254997 -18.6840012 121.7353675  90.0586638 -19.4793135
 120.6760012  89.7834997 -17.0600012 120.8220012  89.2634997 -16.2700012
 120.6730012  90.6904997 -16.7540012 120.6955989  89.8348853 -16.9103912
 117.1290012  87.0364997 -16.5500012 116.4430012  87.3884997 -15.9830012
 117.6510012  87.7994997 -16.7970012 117.1056852  87.1878578 -16.5057882
 124.9600012  79.6984997  -6.2710012 125.6590012  79.7724997  -5.6210012
 124.5790012  78.8344997  -6.1170012 125.0041767  79.5917624  -6.1611678
 125.7450012  79.3504997 -15.1740012 125.9650012  79.8224997 -15.9770012
 126.3030012  79.7454997 -14.5040012 125.8504968  79.4684285 -15.1932669
 123.4130012  91.4814997 -16.3110012 122.5970012  91.9784997 -16.2590012
 123.9430012  91.9564997 -16.9510012 123.3729161  91.6137722 -16.3904044
 122.9450012  81.0784997 -14.3390012 123.7570012  81.5834997 -14.2930012
 122.7000012  80.9334997 -13.4250012 123.0230520  81.1280375 -14.2091483
 123.4800012  82.0644997  -5.1540012 123.5990012  82.6384997  -4.3970012
 124.1360012  81.3764997  -5.0400012 123.5849757  82.0501079  -5.0349175
 123.8280012  78.1594997 -13.4010012 123.4820012  78.7774997 -12.7560012
 124.4870012  78.6604997 -13.8820012 123.8697826  78.3115802 -13.3779029
 120.7520012  92.5254997 -16.3290012 120.9120012  93.3244997 -16.8300012
 120.5540012  92.8314997 -15.4440012 120.7471649  92.6764469 -16.2780185
 119.4860012  79.2224997 -16.7140012 119.4030012  80.1114997 -16.3670012
 120.3760012  78.9574997 -16.4820012 119.5949469  79.3081430 -16.6352374
 129.6850012  79.9714997  -4.3190012 128.7680012  80.2344997  -4.4070012
 130.0200012  79.9684997  -5.2160012 129.6049900  80.0070224  -4.4522081
 128.2870012  83.7224997 -10.2240012 127.4890012  83.3074997 -10.5520012
 128.7320012  83.0314997  -9.7330012 128.2379885  83.5723543 -10.2025111
 117.7450012  89.6504997 -17.6530012 118.3370012  90.3494997 -17.3770012
 118.2040012  89.2174997 -18.3730012 117.8881142  89.6877049 -17.7125170
 116.0610012  82.3144997 -18.5370012 116.0160012  83.2534997 -18.3590012
 115.1730012  82.0784997 -18.8070012 115.9348574  82.4111892 -18.5491088
 129.3730012  92.9784997  -8.6010012 129.2180012  93.6564997  -9.2580012
 130.3060012  93.0504997  -8.3980012 129.4778500  93.0810170  -8.6634881
 116.8690012  77.0964997  -9.8640012 116.6400012  77.1554997 -10.7920012
 116.4260012  76.3044997  -9.5580012 116.7778530  76.9975753  -9.9495214
 115.7990012  91.0364997 -13.7040012 114.9670012  91.5094997 -13.6760012
 116.3450012  91.5464997 -14.3020012 115.7589739  91.1701871 -13.7810284
 115.0870012  93.6494997  -2.3740012 115.6280012  93.4324997  -1.6140012
 114.6060012  92.8434997  -2.5630012 115.0959345  93.5109514  -2.2956924
 119.6850012  92.5684997  -0.7530012 120.4520012  92.1094997  -0.4120012
 119.6630012  92.3424997  -1.6830012 119.7871434  92.4750409  -0.8319957
 123.7770012  92.0764997 -19.3780012 123.1330012  91.4454997 -19.0570012
 124.5390012  91.5454997 -19.6100012 123.7918077  91.9182920 -19.3653989
 126.2620012  90.9484997  -2.0240012 125.9110012  90.0924997  -1.7810012
 126.9880012  91.0914997  -1.4170012 126.3120769  90.8505636  -1.9086381
 128.3810012  91.8934997 -19.1440012 128.6640012  91.0994997 -18.6920012
 129.1210012  92.1264997 -19.7050012 128.5197486  91.8162803 -19.1579302
 114.9940012  87.4594997  -1.4190012 115.1380012  86.5574997  -1.7060012
 114.2220012  87.7454997  -1.9070012 114.9093322  87.3748261  -1.5242119
 119.3360012  87.8034997 -19.2870012 119.4000012  87.0094997 -18.7560012
 119.9890012  87.6844997 -19.9770012 119.4330241  87.6787148 -19.3075683
 121.6500012  87.4294997  -1.9870012 121.3210012  87.7004997  -2.8440012
 121.8020012  86.4884997  -2.0740012 121.6254809  87.3393862  -2.1161756
 127.3840012  87.3454997  -4.6030012 128.1300012  87.9334997  -4.7230012
 126.6270012  87.9274997  -4.5400012 127.3837554  87.5047011  -4.6109093
 115.8270012  84.6594997  -1.9990012 116.2350012  83.8024997  -2.1200012
 115.5670012  84.6744997  -1.0780012 115.8477568  84.5440807  -1.8910412
 120.4850012  85.7754997 -16.9810012 120.0250012  85.2914997 -16.2950012
 120.7400012  85.1074997 -17.6170012 120.4564902  85.6188731 -16.9730666
 119.7740012  83.6684997  -4.6250012 119.1560012  84.3434997  -4.3450012
 120.1180012  83.9894997  -5.4580012 119.7359615  83.8042721  -4.6993419
 121.5560012  84.0184997 -18.7190012 121.3760012  83.8644997 -19.6460012
 122.5060012  84.1264997 -18.6740012 121.6597776  84.0120175 -18.8398157
 124.7940012  86.1404997  -1.3480012 125.7470012  86.2234997  -1.3750012
 124.6330012  85.4284997  -0.7280012 124.9026426  86.0556746  -1.2679421
 130.9460012  86.3734997 -19.2730012 130.6720012  85.9484997 -20.0860012
 130.9850012  87.3044997 -19.4900012 130.9137699  86.4412484 -19.4136390
 120.1130012  81.0234997  -3.5430012 120.2630012  80.2944997  -4.1450012
 120.1160012  81.8004997  -4.1020012 120.1339302  81.0287851  -3.7009308
 120.5260012  79.3934997  -6.0500012 121.0620012  79.8444997  -6.7020012
 119.6740012  79.2854997  -6.4730012 120.4842178  79.4406390  -6.1964244
 122.1080012  84.8324997  -5.8110012 122.8580012  84.6764997  -6.3840012
 121.7690012  85.6844997  -6.0860012 122.1648921  84.9262968  -5.9266439
 126.5230012  82.6474997  -0.7820012 126.7160012  81.7164997  -0.8940012
 127.3810012  83.0724997  -0.7920012 126.6653020  82.5776389  -0.7986639
 127.8400012  85.4364997  -2.7050012 127.5590012  86.1454997  -3.2820012
 128.7830012  85.3634997  -2.8560012 127.9289027  85.5237646  -2.8044449
 118.5920012  82.2214997  -1.6310012 117.8250012  81.6894997  -1.8410012
 119.2710012  81.9114997  -2.2310012 118.5787022  82.1067506  -1.7408352
 121.3320012  76.8494997  -5.6190012 121.2330012  77.7964997  -5.7240012
 120.5890012  76.4774997  -6.0940012 121.2180564  76.9285902  -5.6975440
 122.5960012  81.1714997  -2.0550012 122.3600012  80.9514997  -1.1530012
 121.8120012  80.9644997  -2.5650012 122.4578628  81.1134760  -2.0006068
 125.3110012  80.2984997  -2.9790012 124.3640012  80.3304997  -2.8470012
 125.6240012  79.6734997  -2.3260012 125.2235475  80.2183207  -2.8725545
 126.9450012  78.9324997  -0.9740012 126.8490012  77.9804997  -0.9800012
 126.6240012  79.2014997  -0.1140012 126.8884070  78.8384035  -0.8584559
 116.7720012  80.1424997  -1.9270012 116.9840012  79.4354997  -2.5370012
 116.6610012  79.7044997  -1.0830012 116.7859721  79.9867084  -1.8963157
 121.5530012  76.1434997  -2.9470012 122.2650012  75.5034997  -2.9610012
 121.4520012  76.4104997  -3.8610012 121.6367939  76.0919938  -3.0724350
 121.9070012  77.8264997  -0.8940012 121.7750012  77.3504997  -1.7140012
 121.3080012  78.5704997  -0.9490012 121.8079071  77.8619618  -1.0137114
 121.4530012  94.7094997 -17.7170012 122.3860012  94.8674997 -17.5740012
 121.1890012  95.3844997 -18.3420012 121.5449510  94.8223611 -17.7819259
 115.0220012  89.3454997 -18.2350012 115.9360012  89.4244997 -17.9610012
 115.0290012  88.6584997 -18.9010012 115.1481131  89.2633961 -18.2875607
 113.6710012  94.7384997 -13.1570012 113.0240012  94.2764997 -13.6900012
 114.0250012  94.0664997 -12.5750012 113.6303849  94.5844723 -13.1512041
 114.5410012  92.8194997 -11.3530012 114.2060012  91.9394997 -11.1810012
 114.7630012  93.1644997 -10.4880012 114.5251783  92.7457500 -11.2125792
 132.0890012  93.6284997  -8.3720012 132.0680012  93.8134997  -7.4330012
 132.7800012  94.1974997  -8.7130012 132.1794618  93.7306606  -8.2896136
 131.6530012  93.1964997  -5.4500012 131.1650012  92.4604997  -5.8210012
 132.2020012  92.8024997  -4.7720012 131.6604872  93.0426249  -5.4090840
 130.1030012  88.9854997  -0.8120012 129.2370012  88.8804997  -0.4180012
 130.4800012  89.7444997  -0.3660012 130.0353308  89.0736900  -0.6977607
 131.4040012  87.2424997 -15.2980012 132.2540012  87.6634997 -15.1710012
 131.4100012  86.5024997 -14.6910012 131.5211372  87.2000803 -15.1985656
 131.7990012  85.2954997 -13.4740012 131.0720012  84.8164997 -13.0770012
 132.3800012  85.5014997 -12.7420012 131.7779375  85.2577090 -13.3205871
 131.5580012  88.0804997  -8.5270012 132.3910012  87.7024997  -8.8070012
 131.6700012  89.0234997  -8.6460012 131.6872647  88.1562218  -8.5814513
 130.0440012  90.9584997  -6.2200012 129.3970012  91.2834997  -5.5940012
 129.5270012  90.5184997  -6.8940012 129.8854029  90.9435004  -6.2254173
 132.0670012  85.1964997 -17.0830012 131.5450012  85.5534997 -17.8020012
 132.0340012  85.8714997 -16.4050012 131.9911634  85.3365413 -17.0896855
 130.4160012  82.4364997 -18.5320012 130.5120012  83.1034997 -19.2130012
 130.2760012  81.6204997 -19.0140012 130.4102135  82.4174500 -18.6901509
 129.5850012  83.8164997 -12.9110012 129.4350012  82.8714997 -12.9320012
 129.2320012  84.0974997 -12.0680012 129.5166625  83.7250441 -12.7997654
 114.6210012  85.8944997  -8.9010012 114.8050012  85.8124997  -9.8370012
 115.4700012  85.7704997  -8.4770012 114.7610139  85.8665003  -8.9718545
 130.4420012  85.7864997  -3.2730012 131.0250012  85.0524997  -3.0810012
 131.0060012  86.5584997  -3.2260012 130.5979769  85.7904227  -3.2403841
 131.9380012  83.6894997  -2.5880012 131.0750012  83.3104997  -2.7540012
 132.5430012  82.9504997  -2.6620012 131.9015979  83.5378023  -2.6207183
 129.6630012  79.8444997 -19.4150012 130.2740012  79.4734997 -18.7780012
 128.8270012  79.4234997 -19.2190012 129.6335032  79.7367554 -19.3012965
 129.2960012  81.3994997 -14.4490012 129.5760012  80.4924997 -14.3250012
 130.0550012  81.8334997 -14.8380012 129.4369277  81.3340942 -14.4846318
 129.9080012  81.9804997  -9.0130012 130.8410012  82.1924997  -9.0470012
 129.6730012  82.0824997  -8.0910012 130.0038036  82.0232769  -8.8930024
 129.9370012  82.7174997  -6.2370012 129.0940012  82.9854997  -5.8710012
 130.3790012  83.5394997  -6.4480012 129.8814158  82.8653291  -6.2154509
 114.2180012  81.1654997  -2.7600012 115.1380012  81.0434997  -2.5240012
 113.7690012  80.4154997  -2.3710012 114.2831580  81.0473727  -2.6750994
 132.2200012  76.6974997  -0.8840012 132.5700012  76.0434997  -1.4890012
 132.3670012  77.5344997  -1.3230012 132.2878419  76.7211591  -1.0262882
 129.9090012  78.6624997 -14.4010012 130.0920012  78.2134997 -13.5750012
 129.3100012  78.0774997 -14.8640012 129.8530202  78.5219975 -14.3506725
 115.4390012  79.4774997  -9.8690012 115.8850012  78.6854997  -9.5670012
 115.9060012  80.1934997  -9.4380012 115.5630172  79.4660624  -9.7695180
 113.7430012  82.4764997  -8.8000012 114.2350012  82.2554997  -9.5910012
 114.1060012  83.3174997  -8.5190012 113.8593126  82.5598357  -8.8702469
 131.7400012  78.8064997  -2.5340012 130.8220012  79.0774997  -2.5700012
 131.8630012  78.2714997  -3.3190012 131.6311066  78.7712892  -2.6449513
 131.7760012  78.7294997 -17.8730012 132.1880012  78.0084997 -18.3480012
 132.4580012  79.3994997 -17.8140012 131.9245885  78.7212368 -17.9301085
 114.0570012  78.7344997 -14.7460012 113.1320012  78.9434997 -14.8750012
 114.5110012  79.2184997 -15.4350012 113.9917368  78.8285993 -14.8568774
 128.8280012  93.7184997 -12.8000012 129.4800012  93.3714997 -13.4080012
 129.3380012  94.2074997 -12.1540012 128.9862637  93.7370597 -12.7959764
 114.0210012  77.4724997  -6.4010012 113.3560012  77.2264997  -5.7580012
 113.5780012  78.0944997  -6.9790012 113.8700956  77.5228632  -6.3910648
 116.2130012  90.6474997  -2.2570012 115.3920012  90.8224997  -2.7170012
 115.9600012  90.5744997  -1.3360012 116.0666164  90.6615622  -2.1955077
 119.1670012  91.6224997  -5.9980012 118.7420012  92.4314997  -6.2810012
 120.0710012  91.7074997  -6.3000012 119.2310271  91.7448469  -6.0776224
 123.4780012  93.0214997  -3.0390012 123.6630012  92.6874997  -2.1610012
 124.3240012  93.3304997  -3.3610012 123.6177539  93.0176047  -2.9624395
 125.8230012  94.3074997  -3.7950012 126.5000012  93.6744997  -4.0350012
 126.1450012  94.7084997  -2.9880012 125.9591637  94.2751154  -3.7187207
 130.7400012  76.8964997  -4.7150012 129.9280012  77.2214997  -5.1030012
 130.9730012  76.1364997  -5.2480012 130.6603423  76.8382436  -4.8401747
 116.5690012  94.8784997  -5.9510012 115.8480012  95.3184997  -6.4020012
 116.2030012  94.6274997  -5.1020012 116.4209804  94.9047698  -5.8980160
 119.0360012  94.4784997  -6.9210012 118.1710012  94.5504997  -6.5170012
 118.9810012  95.0254997  -7.7050012 118.9102085  94.5622685  -6.9716638
 123.7460012  94.3664997  -7.7460012 123.2900012  94.8954997  -8.4000012
 123.9090012  94.9694997  -7.0200012 123.7055585  94.5204468  -7.7374938
 126.0740012  93.2444997  -6.8010012 125.1690012  93.4094997  -7.0660012
 126.5030012  94.0974997  -6.8660012 126.0080799  93.3824483  -6.8460818
 128.6780012  94.8144997  -6.5060012 128.4960012  95.7304997  -6.7160012
 128.8550012  94.4044997  -7.3520012 128.6770210  94.8844822  -6.6492115
 115.9830012  93.5014997  -9.0410012 115.9650012  93.0764997  -8.1830012
 116.7880012  93.1834997  -9.4490012 116.0893875  93.4003812  -8.9788345
 118.1250012  92.2114997 -10.3860012 117.9060012  91.2954997 -10.2160012
 118.9490012  92.3514997  -9.9200012 118.2064420  92.1050520 -10.2997226
 120.6620012  92.6814997  -9.5370012 120.8750012  91.7934997  -9.8240012
 120.7260012  92.6474997  -8.5830012 120.6998232  92.5553102  -9.4472603
 124.1700012  78.3454997 -10.3930012 123.4960012  77.7164997 -10.1370012
 124.7340012  77.8614997 -10.9960012 124.1539230  78.1938744 -10.4394660
 129.3130012  76.4534997 -10.2800012 129.9170012  77.0004997 -10.7820012
 128.4430012  76.7724997 -10.5200012 129.2781241  76.5715806 -10.3812346
 131.0400012  77.5914997 -11.9470012 131.6520012  77.0774997 -12.4730012
 131.4220012  78.4694997 -11.9230012 131.1754540  77.6397140 -12.0158170
 116.4970012  76.9794997 -12.5710012 115.7200012  76.7454997 -13.0780012
 117.0270012  76.1824997 -12.5620012 116.4622330  76.8396988 -12.6392258
 115.3330012  76.7774997 -16.7670012 115.7720012  77.3884997 -17.3590012
 114.7000012  77.3154997 -16.2930012 115.3074514  76.9339257 -16.7839070
 121.0760012  76.9064997 -12.7570012 121.9510012  77.2944997 -12.7870012
 120.9400012  76.6914997 -11.8350012 121.1773695  76.9305184 -12.6363560
 126.6330012  76.9364997 -11.1080012 126.7090012  77.0314997 -12.0580012
 126.3580012  76.0284997 -10.9790012 126.6062321  76.8267867 -11.2204921
 127.9860012  76.9624997 -15.4160012 127.2840012  77.5774997 -15.6250012
 127.5420012  76.1244997 -15.2850012 127.8296330  76.9335783 -15.4269672
 115.2340012  92.7254997 -15.8690012 114.5490012  92.6874997 -16.5370012
 115.2380012  93.6384997 -15.5810012 115.1408193  92.8437016 -15.9214716
 117.1940012  78.6934997 -18.3250012 117.6860012  78.0634997 -18.8520012
 117.8180012  78.9894997 -17.6610012 117.3455446  78.6473199 -18.3074020
 122.2200012  78.9864997 -15.8680012 122.3980012  78.3404997 -15.1850012
 122.1670012  79.8204997 -15.4000012 122.2371829  79.0107985 -15.7114060
 124.0990012  93.9354997 -17.4720012 124.9650012  94.3014997 -17.6500012
 123.8520012  93.4954997 -18.2860012 124.1842392  93.9261756 -17.6063711
 130.8080012  93.4984997 -14.7930012 130.6130012  92.7504997 -15.3580012
 130.7690012  94.2564997 -15.3760012 130.7760380  93.4986099 -14.9491616
 116.4550012  77.4934997  -3.0530012 116.0890012  76.7284997  -2.6100012
 117.3680012  77.5224997  -2.7660012 116.5282790  77.3927224  -2.9535930
 118.4280012  76.8444997  -1.5170012 119.3260012  76.5704997  -1.7020012
 118.0410012  76.1014997  -1.0530012 118.4986612  76.7065914  -1.4796357
 117.0520012  93.6454997 -18.8440012 116.7850012  93.9324997 -17.9710012
 117.8240012  93.0994997 -18.6920012 117.1197488  93.6110294 -18.7038950
 126.8490012  76.1764997  -1.3350012 126.9260012  75.7504997  -0.4810012
 127.7430012  76.1904997  -1.6780012 126.9803428  76.1200879  -1.2644690
 130.0250012  92.2494997  -2.6430012 129.2430012  92.0634997  -3.1620012
 129.9530012  93.1784997  -2.4250012 129.9081777  92.3496492  -2.6845952
 144.4310012  86.1354997 -12.6120012 144.5200012  87.0794997 -12.7440012
 143.7930012  85.8604997 -13.2700012 144.3569081  86.2274830 -12.7190386
 143.3640012  85.3904997  -9.1930012 143.3260012  84.7444997  -8.4880012
 143.0420012  84.9244997  -9.9640012 143.3152333  85.2389408  -9.2007022
 135.7330012  85.0054997  -7.6000012 135.7740012  84.3794997  -6.8770012
 136.4360012  85.6294997  -7.4180012 135.8336363  85.0041196  -7.4763956
 136.6560012  89.4554997  -9.0650012 136.2870012  88.6534997  -9.4350012
 137.5970012  89.2864997  -9.0190012 136.7327289  89.3230153  -9.1093684
 133.2660012  83.1154997 -13.6720012 132.8190012  83.9614997 -13.6910012
 132.7050012  82.5354997 -14.1880012 133.1289900  83.1529916 -13.7443199
 133.9770012  85.2774997 -11.5460012 134.1900012  84.5074997 -11.0190012
 134.7150012  85.3664997 -12.1500012 134.1058496  85.1841394 -11.5554700
 144.1820012  93.4344997 -10.6790012 144.8020012  92.7574997 -10.9530012
 143.9740012  93.2164997  -9.7710012 144.2386904  93.3123870 -10.5936635
 141.7540012  87.8234997  -8.7870012 142.0580012  87.1374997  -9.3820012
 142.4750012  87.9414997  -8.1690012 141.8930671  87.7456305  -8.7848184
 144.8950012  82.2174997  -8.4590012 145.0370012  81.2714997  -8.4390012
 144.7880012  82.4244997  -9.3880012 144.8999864  82.1159534  -8.5817661
 138.0490012  80.3184997 -11.1870012 138.0930012  81.1784997 -11.6050012
 137.5920012  79.7664997 -11.8210012 137.9932185  80.3615799 -11.3299701
 134.6700012  82.7154997 -10.4250012 135.3230012  82.1654997  -9.9930012
 134.6940012  82.4414997 -11.3420012 134.7626683  82.6031466 -10.4897877
 139.8260012  84.2654997 -11.2100012 140.4420012  83.7394997 -10.7000012
 139.2400012  83.6254997 -11.6130012 139.8310810  84.1069208 -11.1946827
 136.8600012  79.2364997  -7.1130012 136.6410012  79.7664997  -7.8790012
 136.1920012  79.4634997  -6.4660012 136.7397600  79.3396906  -7.1303621
 144.2290012  88.7364997 -13.5690012 143.9330012  88.4144997 -14.4200012
 143.9040012  89.6364997 -13.5280012 144.1446371  88.8140215 -13.6798199
 139.4290012  86.9124997  -6.8260012 138.6890012  87.5104997  -6.7220012
 140.1430012  87.4664997  -7.1410012 139.4242237  87.0692831  -6.8543535
 136.4530012  81.1284997  -9.1610012 137.0670012  81.7614997  -8.7870012
 136.9650012  80.6564997  -9.8170012 136.6062296  81.1512370  -9.1985748
 137.8360012  88.8764997  -6.0380012 137.8310012  89.7564997  -6.4160012
 136.9830012  88.7934997  -5.6130012 137.7199464  88.9856117  -6.0322093
 133.9570012  88.5474997 -15.2560012 133.6850012  88.7764997 -16.1450012
 134.0030012  89.3854997 -14.7960012 133.9260094  88.6921213 -15.3154303
 140.8860012  76.5424997  -9.6600012 140.7690012  75.5934997  -9.7150012
 140.0310012  76.8744997  -9.3870012 140.7543733  76.4575409  -9.6306103
 143.1530012  85.3794997 -15.1600012 142.4410012  85.9144997 -15.5120012
 143.8440012  85.4354997 -15.8200012 143.1490132  85.4602543 -15.2973711
 143.2060012  83.8374997 -18.1210012 143.9070012  83.8594997 -17.4700012
 143.5090012  83.2094997 -18.7770012 143.3427830  83.7556566 -18.1206289
 138.2040012  86.2194997 -12.3260012 137.8730012  85.8494997 -13.1440012
 138.7920012  85.5494997 -11.9790012 138.2381873  86.0781156 -12.3911898
 139.5700012  89.6474997  -9.6440012 139.4760012  89.0694997 -10.4010012
 140.3000012  89.2764997  -9.1480012 139.6557981  89.5182390  -9.6805835
 138.5700012  84.9884997  -8.6920012 139.1360012  85.1094997  -9.4550012
 138.8890012  85.6254997  -8.0530012 138.6905786  85.0911884  -8.7099960
 144.8790012  90.4914997  -7.9580012 144.6390012  91.1534997  -7.3100012
 144.6810012  89.6574997  -7.5330012 144.8193808  90.4693134  -7.8118476
 139.4500012  89.3874997  -3.9750012 139.1390012  90.1694997  -3.5200012
 138.8000012  89.2344997  -4.6610012 139.3195558  89.4739105  -4.0054129
 136.3700012  85.5854997  -4.7460012 136.4410012  86.2364997  -4.0480012
 135.4800012  85.6884997  -5.0810012 136.2593117  85.6885936  -4.6957300
 143.1560012  91.4884997 -13.0880012 143.6300012  91.7834997 -12.3100012
 142.5930012  92.2264997 -13.3210012 143.1447653  91.6286932 -13.0129864
 137.6900012  91.4594997  -3.2120012 137.6970012  91.3234997  -4.1590012
 136.7740012  91.3414997  -2.9600012 137.5671714  91.4249430  -3.3075334
 137.1940012  85.2894997 -14.7360012 136.9020012  86.0574997 -15.2270012
 136.5200012  84.6294997 -14.8990012 137.0629081  85.3054406 -14.8252660
 133.2870012  87.6524997  -5.9210012 132.7860012  87.6244997  -6.7360012
 133.2920012  86.7464997  -5.6120012 133.2191526  87.5262278  -5.9907128
 133.0370012  90.4324997  -9.0370012 133.9830012  90.2884997  -9.0560012
 132.9250012  91.2164997  -8.5000012 133.1512727  90.5188046  -8.9669928
 142.2140012  90.6724997  -4.4790012 142.3010012  91.4984997  -4.0040012
 141.3500012  90.3424997  -4.2300012 142.1091964  90.7409878  -4.3803451
 142.6280012  94.4444997 -14.6730012 142.5530012  94.3234997 -15.6190012
 142.6610012  95.3944997 -14.5540012 142.6221848  94.5562500 -14.7865166
 136.2810012  93.2334997 -12.8920012 136.4340012  92.8854997 -12.0130012
 135.4310012  92.8774997 -13.1470012 136.1868962  93.1376650 -12.8061660
 135.5360012  88.9754997  -4.8780012 135.7520012  88.6144997  -4.0190012
 134.6810012  88.6014997  -5.0880012 135.4499292  88.8754111  -4.7886614
 138.1550012  77.4454997  -8.8830012 137.2930012  77.3584997  -9.2900012
 138.1320012  78.3014997  -8.4550012 138.0340330  77.5492765  -8.8808137
 142.8180012  77.1674997  -5.5080012 143.2380012  76.7524997  -4.7550012
 141.8850012  76.9894997  -5.3910012 142.7493644  77.0865900  -5.3890461
 142.4790012  79.6604997 -18.2230012 142.2260012  79.6794997 -17.3000012
 142.2230012  78.7884997 -18.5240012 142.4097790  79.5452437 -18.1373737
 138.2460012  82.4114997  -7.7880012 137.6040012  82.3704997  -7.0790012
 138.2830012  83.3374997  -8.0250012 138.1631324  82.5311559  -7.7230176
 138.2430012  82.6324997 -12.8760012 137.3500012  82.2914997 -12.9340012
 138.6930012  82.2554997 -13.6310012 138.1817305  82.5348484 -12.9860823
 143.7780012  83.0484997 -14.0590012 143.3690012  83.8634997 -14.3500012
 144.4990012  82.9084997 -14.6730012 143.8194537  83.1412018 -14.1818658
 142.8800012  83.2234997  -2.5710012 142.3180012  82.5194997  -2.2500012
 143.7070012  83.1034997  -2.1030012 142.9147095  83.1107883  -2.4637670
 144.7830012  82.4944997 -11.2450012 144.5880012  83.0994997 -11.9600012
 144.9640012  81.6604997 -11.6790012 144.7807614  82.4646300 -11.4015595
 135.9960012  82.7314997  -5.9210012 135.9580012  83.1314997  -5.0520012
 135.5050012  81.9144997  -5.8300012 135.9244684  82.6758069  -5.7898941
 139.3620012  80.1054997 -19.1220012 138.9310012  79.6604997 -18.3920012
 138.6440012  80.4774997 -19.6340012 139.2059438  80.0948940 -19.0913201
 132.6040012  79.8474997 -12.0700012 133.2350012  79.8184997 -11.3510012
 133.0530012  79.4224997 -12.8000012 132.7510774  79.7860492 -12.0703447
 133.8780012  80.5934997 -16.6460012 134.3520012  81.1844997 -17.2310012
 133.1610012  81.1244997 -16.2990012 133.8459341  80.7460867 -16.6791164
 144.0470012  84.1324997  -6.5730012 144.3700012  83.5014997  -7.2160012
 143.6070012  83.5974997  -5.9130012 144.0316895  83.9738441  -6.5717150
 140.8240012  80.0594997 -11.7890012 139.9130012  80.1164997 -11.5010012
 141.3300012  79.9994997 -10.9790012 140.7675413  80.0591985 -11.6399378
 135.6530012  81.6884997 -12.9630012 134.7630012  81.7884997 -13.3030012
 135.9490012  80.8464997 -13.3090012 135.5712823  81.5883546 -13.0562787
 139.3060012  81.6884997 -15.3060012 140.2370012  81.8174997 -15.1280012
 139.0910012  82.3584997 -15.9560012 139.4044247  81.7966565 -15.3694253
 137.9800012  82.8834997 -17.7390012 137.4370012  82.5034997 -18.4310012
 138.8130012  83.0774997 -18.1680012 138.0184399  82.8578124 -17.8915474
 136.1150012  87.4404997  -2.6400012 136.8470012  87.6944997  -2.0790012
 135.3350012  87.6444997  -2.1250012 136.1098232  87.5029177  -2.4934240
 142.1440012  82.8474997  -9.9020012 142.7090012  82.3004997 -10.4490012
 141.9970012  82.3254997  -9.1140012 142.2012918  82.7022024  -9.8701546
 137.1460012  78.9834997 -13.4840012 136.8290012  78.0814997 -13.5190012
 137.9280012  78.9854997 -14.0370012 137.2082284  78.8601628 -13.5635217
 140.7710012  81.2354997  -7.4880012 139.9350012  81.6894997  -7.3780012
 141.2950012  81.5114997  -6.7360012 140.7274414  81.3349376  -7.3712864
 141.3150012  87.4484997 -15.8040012 140.5700012  86.9414997 -16.1260012
 141.1810012  87.4974997 -14.8570012 141.1948776  87.3856940 -15.7201353
 142.8340012  87.6324997  -4.5670012 142.4890012  87.2514997  -3.7600012
 142.6340012  88.5664997  -4.4950012 142.7598061  87.7065228  -4.4469039
 136.4400012  86.7434997 -10.0340012 137.1850012  86.7414997 -10.6350012
 136.5180012  85.9204997  -9.5520012 136.5525518  86.6319315 -10.0511071
 143.4410012  88.9074997 -16.7780012 143.1450012  89.7334997 -16.3970012
 142.7380012  88.2874997 -16.5820012 143.3054914  88.9368199 -16.6993557
 133.4480012  85.2044997  -4.7190012 133.6710012  84.7864997  -3.8870012
 132.8460012  84.5914997  -5.1420012 133.3971759  85.0644668  -4.6622978
 140.4640012  84.7214997  -2.5060012 140.1680012  84.5554997  -3.4010012
 141.3960012  84.5014997  -2.5170012 140.5494166  84.6690640  -2.6299464
 138.8150012  90.2614997 -12.6300012 139.3420012  91.0344997 -12.8300012
 137.9350012  90.4864997 -12.9310012 138.7681773  90.3978005 -12.6980990
 134.5700012  85.1234997 -18.0430012 135.1860012  85.7504997 -17.6630012
 133.7080012  85.4394997 -17.7710012 134.5377698  85.2519430 -17.9542817
 140.2420012  87.9244997 -13.0530012 140.0010012  88.8494997 -13.0120012
 139.5010012  87.4654997 -12.6570012 140.1088409  87.9891421 -12.9938623
 140.7570012  92.0734997  -6.7380012 141.1190012  92.9284997  -6.9720012
 141.2880012  91.7814997  -5.9980012 140.8784473  92.1511060  -6.6699145
 138.9250012  92.9464997 -13.5080012 137.9750012  93.0514997 -13.4570012
 139.2770012  93.7664997 -13.1630012 138.8424203  93.0718314 -13.4543350
 144.3010012  88.1724997  -7.0380012 143.8750012  87.9454997  -6.2110012
 144.8810012  87.4344997  -7.2200012 144.3211868  88.0415299  -6.9494170
 135.0820012  79.9574997  -5.1610012 134.1890012  80.2964997  -5.2290012
 134.9830012  79.1024997  -4.7430012 134.9464164  79.8882588  -5.1137765
 134.7330012  91.7624997  -6.7260012 134.9500012  90.8304997  -6.7570012
 134.9790012  92.0364997  -5.8430012 134.7959549  91.6720636  -6.6108237
 140.5950012  90.2134997 -19.5170012 140.8340012  89.4654997 -20.0640012
 140.3260012  89.8254997 -18.6840012 140.5913675  90.0586638 -19.4793135
 139.5320012  89.7834997 -17.0600012 139.6780012  89.2634997 -16.2700012
 139.5290012  90.6904997 -16.7540012 139.5515989  89.8348853 -16.9103912
 135.9850012  87.0364997 -16.5500012 135.2990012  87.3884997 -15.9830012
 136.5070012  87.7994997 -16.7970012 135.9616852  87.1878578 -16.5057882
 143.8160012  79.6984997  -6.2710012 144.5150012  79.7724997  -5.6210012
 143.4350012  78.8344997  -6.1170012 143.8601767  79.5917624  -6.1611678
 144.6010012  79.3504997 -15.1740012 144.8210012  79.8224997 -15.9770012
 145.1590012  79.7454997 -14.5040012 144.7064968  79.4684285 -15.1932669
 142.2690012  91.4814997 -16.3110012 141.4530012  91.9784997 -16.2590012
 142.7990012  91.9564997 -16.9510012 142.2289161  91.6137722 -16.3904044
 141.8010012  81.0784997 -14.3390012 142.6130012  81.5834997 -14.2930012
 141.5560012  80.9334997 -13.4250012 141.8790520  81.1280375 -14.2091483
 142.3360012  82.0644997  -5.1540012 142.4550012  82.6384997  -4.3970012
 142.9920012  81.3764997  -5.0400012 142.4409757  82.0501079  -5.0349175
 142.6840012  78.1594997 -13.4010012 142.3380012  78.7774997 -12.7560012
 143.3430012  78.6604997 -13.8820012 142.7257826  78.3115802 -13.3779029
 139.6080012  92.5254997 -16.3290012 139.7680012  93.3244997 -16.8300012
 139.4100012  92.8314997 -15.4440012 139.6031649  92.6764469 -16.2780185
 138.3420012  79.2224997 -16.7140012 138.2590012  80.1114997 -16.3670012
 139.2320012  78.9574997 -16.4820012 138.4509469  79.3081430 -16.6352374
 136.6010012  89.6504997 -17.6530012 137.1930012  90.3494997 -17.3770012
 137.0600012  89.2174997 -18.3730012 136.7441142  89.6877049 -17.7125170
 134.9170012  82.3144997 -18.5370012 134.8720012  83.2534997 -18.3590012
 134.0290012  82.0784997 -18.8070012 134.7908574  82.4111892 -18.5491088
 135.7250012  77.0964997  -9.8640012 135.4960012  77.1554997 -10.7920012
 135.2820012  76.3044997  -9.5580012 135.6338530  76.9975753  -9.9495214
 134.6550012  91.0364997 -13.7040012 133.8230012  91.5094997 -13.6760012
 135.2010012  91.5464997 -14.3020012 134.6149739  91.1701871 -13.7810284
 133.9430012  93.6494997  -2.3740012 134.4840012  93.4324997  -1.6140012
 133.4620012  92.8434997  -2.5630012 133.9519345  93.5109514  -2.2956924
 138.5410012  92.5684997  -0.7530012 139.3080012  92.1094997  -0.4120012
 138.5190012  92.3424997  -1.6830012 138.6431434  92.4750409  -0.8319957
 142.6330012  92.0764997 -19.3780012 141.9890012  91.4454997 -19.0570012
 143.3950012  91.5454997 -19.6100012 142.6478077  91.9182920 -19.3653989
 133.8500012  87.4594997  -1.4190012 133.9940012  86.5574997  -1.7060012
 133.0780012  87.7454997  -1.9070012 133.7653322  87.3748261  -1.5242119
 138.1920012  87.8034997 -19.2870012 138.2560012  87.0094997 -18.7560012
 138.8450012  87.6844997 -19.9770012 138.2890241  87.6787148 -19.3075683
 140.5060012  87.4294997  -1.9870012 140.1770012  87.7004997  -2.8440012
 140.6580012  86.4884997  -2.0740012 140.4814809  87.3393862  -2.1161756
 134.6830012  84.6594997  -1.9990012 135.0910012  83.8024997  -2.1200012
 134.4230012  84.6744997  -1.0780012 134.7037568  84.5440807  -1.8910412
 139.3410012  85.7754997 -16.9810012 138.8810012  85.2914997 -16.2950012
 139.5960012  85.1074997 -17.6170012 139.3124902  85.6188731 -16.9730666
 138.6300012  83.6684997  -4.6250012 138.0120012  84.3434997  -4.3450012
 138.9740012  83.9894997  -5.4580012 138.5919615  83.8042721  -4.6993419
 140.4120012  84.0184997 -18.7190012 140.2320012  83.8644997 -19.6460012
 141.3620012  84.1264997 -18.6740012 140.5157776  84.0120175 -18.8398157
 143.6500012  86.1404997  -1.3480012 144.6030012  86.2234997  -1.3750012
 143.4890012  85.4284997  -0.7280012 143.7586426  86.0556746  -1.2679421
 138.9690012  81.0234997  -3.5430012 139.1190012  80.2944997  -4.1450012
 138.9720012  81.8004997  -4.1020012 138.9899302  81.0287851  -3.7009308
 139.3820012  79.3934997  -6.0500012 139.9180012  79.8444997  -6.7020012
 138.5300012  79.2854997  -6.4730012 139.3402178  79.4406390  -6.1964244
 140.9640012  84.8324997  -5.8110012 141.7140012  84.6764997  -6.3840012
 140.6250012  85.6844997  -6.0860012 141.0208921  84.9262968  -5.9266439
 137.4480012  82.2214997  -1.6310012 136.6810012  81.6894997  -1.8410012
 138.1270012  81.9114997  -2.2310012 137.4347022  82.1067506  -1.7408352
 140.1880012  76.8494997  -5.6190012 140.0890012  77.7964997  -5.7240012
 139.4450012  76.4774997  -6.0940012 140.0740564  76.9285902  -5.6975440
 141.4520012  81.1714997  -2.0550012 141.2160012  80.9514997  -1.1530012
 140.6680012  80.9644997  -2.5650012 141.3138628  81.1134760  -2.0006068
 144.1670012  80.2984997  -2.9790012 143.2200012  80.3304997  -2.8470012
 144.4800012  79.6734997  -2.3260012 144.0795475  80.2183207  -2.8725545
 135.6280012  80.1424997  -1.9270012 135.8400012  79.4354997  -2.5370012
 135.5170012  79.7044997  -1.0830012 135.6419721  79.9867084  -1.8963157
 140.4090012  76.1434997  -2.9470012 141.1210012  75.5034997  -2.9610012
 140.3080012  76.4104997  -3.8610012 140.4927939  76.0919938  -3.0724350
 140.7630012  77.8264997  -0.8940012 140.6310012  77.3504997  -1.7140012
 140.1640012  78.5704997  -0.9490012 140.6639071  77.8619618  -1.0137114
 140.3090012  94.7094997 -17.7170012 141.2420012  94.8674997 -17.5740012
 140.0450012  95.3844997 -18.3420012 140.4009510  94.8223611 -17.7819259
 133.8780012  89.3454997 -18.2350012 134.7920012  89.4244997 -17.9610012
 133.8850012  88.6584997 -18.9010012 134.0041131  89.2633961 -18.2875607
 132.5270012  94.7384997 -13.1570012 131.8800012  94.2764997 -13.6900012
 132.8810012  94.0664997 -12.5750012 132.4863849  94.5844723 -13.1512041
 133.3970012  92.8194997 -11.3530012 133.0620012  91.9394997 -11.1810012
 133.6190012  93.1644997 -10.4880012 133.3811783  92.7457501 -11.2125792
 133.4770012  85.8944997  -8.9010012 133.6610012  85.8124997  -9.8370012
 134.3260012  85.7704997  -8.4770012 133.6170139  85.8665003  -8.9718545
 133.0740012  81.1654997  -2.7600012 133.9940012  81.0434997  -2.5240012
 132.6250012  80.4154997  -2.3710012 133.1391580  81.0473727  -2.6750994
 134.2950012  79.4774997  -9.8690012 134.7410012  78.6854997  -9.5670012
 134.7620012  80.1934997  -9.4380012 134.4190172  79.4660624  -9.7695180
 132.5990012  82.4764997  -8.8000012 133.0910012  82.2554997  -9.5910012
 132.9620012  83.3174997  -8.5190012 132.7153126  82.5598357  -8.8702469
 132.9130012  78.7344997 -14.7460012 131.9880012  78.9434997 -14.8750012
 133.3670012  79.2184997 -15.4350012 132.8477368  78.8285993 -14.8568774
 132.8770012  77.4724997  -6.4010012 132.2120012  77.2264997  -5.7580012
 132.4340012  78.0944997  -6.9790012 132.7260956  77.5228632  -6.3910648
 135.0690012  90.6474997  -2.2570012 134.2480012  90.8224997  -2.7170012
 134.8160012  90.5744997  -1.3360012 134.9226164  90.6615622  -2.1955077
 138.0230012  91.6224997  -5.9980012 137.5980012  92.4314997  -6.2810012
 138.9270012  91.7074997  -6.3000012 138.0870271  91.7448469  -6.0776224
 142.3340012  93.0214997  -3.0390012 142.5190012  92.6874997  -2.1610012
 143.1800012  93.3304997  -3.3610012 142.4737539  93.0176047  -2.9624395
 144.6790012  94.3074997  -3.7950012 145.3560012  93.6744997  -4.0350012
 145.0010012  94.7084997  -2.9880012 144.8151637  94.2751154  -3.7187207
 135.4250012  94.8784997  -5.9510012 134.7040012  95.3184997  -6.4020012
 135.0590012  94.6274997  -5.1020012 135.2769804  94.9047698  -5.8980160
 137.8920012  94.4784997  -6.9210012 137.0270012  94.5504997  -6.5170012
 137.8370012  95.0254997  -7.7050012 137.7662085  94.5622685  -6.9716638
 142.6020012  94.3664997  -7.7460012 142.1460012  94.8954997  -8.4000012
 142.7650012  94.9694997  -7.0200012 142.5615585  94.5204468  -7.7374938
 134.8390012  93.5014997  -9.0410012 134.8210012  93.0764997  -8.1830012
 135.6440012  93.1834997  -9.4490012 134.9453875  93.4003812  -8.9788345
 136.9810012  92.2114997 -10.3860012 136.7620012  91.2954997 -10.2160012
 137.8050012  92.3514997  -9.9200012 137.0624420  92.1050520 -10.2997226
 139.5180012  92.6814997  -9.5370012 139.7310012  91.7934997  -9.8240012
 139.5820012  92.6474997  -8.5830012 139.5558232  92.5553102  -9.4472603
 143.0260012  78.3454997 -10.3930012 142.3520012  77.7164997 -10.1370012
 143.5900012  77.8614997 -10.9960012 143.0099230  78.1938744 -10.4394660
 135.3530012  76.9794997 -12.5710012 134.5760012  76.7454997 -13.0780012
 135.8830012  76.1824997 -12.5620012 135.3182330  76.8396988 -12.6392258
 134.1890012  76.7774997 -16.7670012 134.6280012  77.3884997 -17.3590012
 133.5560012  77.3154997 -16.2930012 134.1634514  76.9339257 -16.7839070
 139.9320012  76.9064997 -12.7570012 140.8070012  77.2944997 -12.7870012
 139.7960012  76.6914997 -11.8350012 140.0333695  76.9305184 -12.6363560
 134.0900012  92.7254997 -15.8690012 133.4050012  92.6874997 -16.5370012
 134.0940012  93.6384997 -15.5810012 133.9968193  92.8437016 -15.9214716
 136.0500012  78.6934997 -18.3250012 136.5420012  78.0634997 -18.8520012
 136.6740012  78.9894997 -17.6610012 136.2015446  78.6473199 -18.3074020
 141.0760012  78.9864997 -15.8680012 141.2540012  78.3404997 -15.1850012
 141.0230012  79.8204997 -15.4000012 141.0931829  79.0107985 -15.7114060
 142.9550012  93.9354997 -17.4720012 143.8210012  94.3014997 -17.6500012
 142.7080012  93.4954997 -18.2860012 143.0402392  93.9261756 -17.6063711
 135.3110012  77.4934997  -3.0530012 134.9450012  76.7284997  -2.6100012
 136.2240012  77.5224997  -2.7660012 135.3842790  77.3927224  -2.9535930
 137.2840012  76.8444997  -1.5170012 138.1820012  76.5704997  -1.7020012
 136.8970012  76.1014997  -1.0530012 137.3546612  76.7065914  -1.4796357
 135.9080012  93.6454997 -18.8440012 135.6410012  93.9324997 -17.9710012
 136.6800012  93.0994997 -18.6920012 135.9757488  93.6110294 -18.7038950
  12.4390012 104.9914997 -12.6120012  12.5280012 105.9354997 -12.7440012
  11.8010012 104.7164997 -13.2700012  12.3649081 105.0834830 -12.7190386
  11.3720012 104.2464997  -9.1930012  11.3340012 103.6004997  -8.4880012
  11.0500012 103.7804997  -9.9640012  11.3232333 104.0949408  -9.2007022
   3.7410012 103.8614997  -7.6000012   3.7820012 103.2354997  -6.8770012
   4.4440012 104.4854997  -7.4180012   3.8416363 103.8601196  -7.4763956
  15.0780012 107.1854997 -10.8920012  14.6380012 106.4654997 -10.4410012
  15.0650012 107.9064997 -10.2620012  15.0160226 107.1843731 -10.7451506
   4.6640012 108.3114997  -9.0650012   4.2950012 107.5094997  -9.4350012
   5.6050012 108.1424997  -9.0190012   4.7407289 108.1790153  -9.1093684
   1.2740012 101.9714997 -13.6720012   0.8270012 102.8174997 -13.6910012
   0.7130012 101.3914997 -14.1880012   1.1369900 102.0089916 -13.7443199
   1.9850012 104.1334997 -11.5460012   2.1980012 103.3634997 -11.0190012
   2.7230012 104.2224997 -12.1500012   2.1138496 104.0401394 -11.5554700
  12.1900012 112.2904997 -10.6790012  12.8100012 111.6134997 -10.9530012
  11.9820012 112.0724997  -9.7710012  12.2466904 112.1683870 -10.5936635
   9.7620012 106.6794997  -8.7870012  10.0660012 105.9934997  -9.3820012
  10.4830012 106.7974997  -8.1690012   9.9010671 106.6016305  -8.7848184
  18.4250012  98.2804997  -7.9260012  18.4740012  98.8904997  -7.1900012
  18.8500012  98.7414997  -8.6490012  18.4891824  98.4263741  -7.9229795
  12.9030012 101.0734997  -8.4590012  13.0450012 100.1274997  -8.4390012
  12.7960012 101.2804997  -9.3880012  12.9079864 100.9719534  -8.5817661
   6.0570012  99.1744997 -11.1870012   6.1010012 100.0344997 -11.6050012
   5.6000012  98.6224997 -11.8210012   6.0012185  99.2175799 -11.3299701
  13.7800012  99.3054997 -12.7860012  14.4260012  98.9764997 -12.1610012
  14.2900012  99.8234997 -13.4090012  13.9374264  99.3304611 -12.7846138
   2.6780012 101.5714997 -10.4250012   3.3310012 101.0214997  -9.9930012
   2.7020012 101.2974997 -11.3420012   2.7706683 101.4591466 -10.4897877
   7.8340012 103.1214997 -11.2100012   8.4500012 102.5954997 -10.7000012
   7.2480012 102.4814997 -11.6130012   7.8390810 102.9629208 -11.1946827
  18.8160012  99.7584997  -5.6900012  18.1280012 100.4164997  -5.7860012
  18.8320012  99.5614997  -4.7540012  18.7238525  99.8220462  -5.5765192
   4.8680012  98.0924997  -7.1130012   4.6490012  98.6224997  -7.8790012
   4.2000012  98.3194997  -6.4660012   4.7477600  98.1956906  -7.1303621
  12.2370012 107.5924997 -13.5690012  11.9410012 107.2704997 -14.4200012
  11.9120012 108.4924997 -13.5280012  12.1526371 107.6700215 -13.6798199
   7.4370012 105.7684997  -6.8260012   6.6970012 106.3664997  -6.7220012
   8.1510012 106.3224997  -7.1410012   7.4322237 105.9252831  -6.8543535
  15.5440012  98.5964997 -10.8060012  15.3280012  97.8304997 -10.2730012
  16.1990012  99.0684997 -10.2930012  15.6030632  98.5555889 -10.6637139
   4.4610012  99.9844997  -9.1610012   5.0750012 100.6174997  -8.7870012
   4.9730012  99.5124997  -9.8170012   4.6142296 100.0072370  -9.1985748
   5.8440012 107.7324997  -6.0380012   5.8390012 108.6124997  -6.4160012
   4.9910012 107.6494997  -5.6130012   5.7279464 107.8416117  -6.0322093
   1.9650012 107.4034997 -15.2560012   1.6930012 107.6324997 -16.1450012
   2.0110012 108.2414997 -14.7960012   1.9340094 107.5481213 -15.3154303
  15.5900012 109.0254997  -8.5440012  14.6490012 109.0834997  -8.3820012
  15.8670012 109.9314997  -8.6810012  15.4984679 109.1559443  -8.5403185
  15.8910012  97.3114997  -7.1260012  15.1550012  97.9224997  -7.1640012
  16.5740012  97.7264997  -7.6530012  15.8826541  97.4511374  -7.2024168
   8.8940012  95.3984997  -9.6600012   8.7770012  94.4494997  -9.7150012
   8.0390012  95.7304997  -9.3870012   8.7623733  95.3135409  -9.6306103
  13.8420012 110.8064997 -11.9180012  14.2680012 110.0994997 -12.4030012
  14.1590012 111.6074997 -12.3350012  13.9431019 110.8180994 -12.0406870
  15.0020012 108.7074997 -13.4100012  14.7440012 108.0174997 -14.0210012
  15.0730012 108.2644997 -12.5640012  14.9762856 108.5532124 -13.3793115
  16.6880012 107.2734997  -4.9320012  16.8280012 106.6824997  -5.6720012
  16.8550012 108.1464997  -5.2890012  16.7296778 107.3106426  -5.0813035
  11.1610012 104.2354997 -15.1600012  10.4490012 104.7704997 -15.5120012
  11.8520012 104.2914997 -15.8200012  11.1570132 104.3162543 -15.2973711
  11.2140012 102.6934997 -18.1210012  11.9150012 102.7154997 -17.4700012
  11.5170012 102.0654997 -18.7770012  11.3507830 102.6116566 -18.1206289
  18.5300012 103.6134997  -6.8660012  17.8770012 104.3084997  -6.7770012
  18.9950012 103.8234997  -7.6760012  18.5035390 103.7369425  -6.9633117
  14.5660012 104.4454997 -14.2080012  13.8340012 104.6734997 -13.6350012
  15.0140012 103.7314997 -13.7530012  14.5263095 104.3802571 -14.0680881
  14.4640012 102.6194997  -5.1410012  14.5440012 103.3824997  -4.5690012
  13.8620012 102.8984997  -5.8310012  14.3935756 102.7617134  -5.1559411
   6.2120012 105.0754997 -12.3260012   5.8810012 104.7054997 -13.1440012
   6.8000012 104.4054997 -11.9790012   6.2461873 104.9341156 -12.3911898
   7.5780012 108.5034997  -9.6440012   7.4840012 107.9254997 -10.4010012
   8.3080012 108.1324997  -9.1480012   7.6637981 108.3742390  -9.6805835
   6.5780012 103.8444997  -8.6920012   7.1440012 103.9654997  -9.4550012
   6.8970012 104.4814997  -8.0530012   6.6985786 103.9471884  -8.7099960
  12.8870012 109.3474997  -7.9580012  12.6470012 110.0094997  -7.3100012
  12.6890012 108.5134997  -7.5330012  12.8273808 109.3253134  -7.8118476
   7.4580012 108.2434997  -3.9750012   7.1470012 109.0254997  -3.5200012
   6.8080012 108.0904997  -4.6610012   7.3275558 108.3299105  -4.0054129
  13.4370012 103.6074997 -16.5230012  14.0170012 103.7574997 -15.7760012
  13.8510012 104.0784997 -17.2460012  13.5722830 103.6916841 -16.5185866
   4.3780012 104.4414997  -4.7460012   4.4490012 105.0924997  -4.0480012
   3.4880012 104.5444997  -5.0810012   4.2673117 104.5445936  -4.6957300
  11.1640012 110.3444997 -13.0880012  11.6380012 110.6394997 -12.3100012
  10.6010012 111.0824997 -13.3210012  11.1527653 110.4846932 -13.0129864
   5.6980012 110.3154997  -3.2120012   5.7050012 110.1794997  -4.1590012
   4.7820012 110.1974997  -2.9600012   5.5751714 110.2809430  -3.3075334
  17.1360012  95.3574997 -16.7100012  16.2360012  95.4964997 -16.4150012
  17.3880012  96.1884997 -17.1120012  17.0468702  95.4889074 -16.7239795
   5.2020012 104.1454997 -14.7360012   4.9100012 104.9134997 -15.2270012
   4.5280012 103.4854997 -14.8990012   5.0709081 104.1614406 -14.8252660
  18.3250012 109.7234997 -18.3340012  18.3990012 110.6624997 -18.1630012
  19.2310012 109.4184997 -18.3900012  18.4575100 109.8106722 -18.3181881
   1.2950012 106.5084997  -5.9210012   0.7940012 106.4804997  -6.7360012
   1.3000012 105.6024997  -5.6120012   1.2271526 106.3822278  -5.9907128
   1.0450012 109.2884997  -9.0370012   1.9910012 109.1444997  -9.0560012
   0.9330012 110.0724997  -8.5000012   1.1592727 109.3748046  -8.9669928
  19.2430012 109.9544997  -3.3550012  19.1940012 108.9994997  -3.3920012
  18.4160012 110.2224997  -2.9540012  19.1244940 109.8598998  -3.3058625
  10.2220012 109.5284997  -4.4790012  10.3090012 110.3544997  -4.0040012
   9.3580012 109.1984997  -4.2300012  10.1171964 109.5969878  -4.3803451
  10.6360012 113.3004997 -14.6730012  10.5610012 113.1794997 -15.6190012
  10.6690012 114.2504997 -14.5540012  10.6301848 113.4122500 -14.7865166
   4.2890012 112.0894997 -12.8920012   4.4420012 111.7414997 -12.0130012
   3.4390012 111.7334997 -13.1470012   4.1948962 111.9936650 -12.8061660
  13.7380012 112.4544997 -17.6710012  14.1130012 111.7104997 -18.1410012
  13.7420012 112.1844997 -16.7520012  13.7898915 112.3161486 -17.6112176
  13.4070012 112.3804997 -14.9210012  12.4710012 112.4804997 -14.7430012
  13.6870012 111.6714997 -14.3430012  13.3168255 112.2982711 -14.8184609
  16.3950012 101.4474997  -2.8750012  15.9880012 101.9284997  -3.5960012
  16.4360012 100.5424997  -3.1830012  16.3448437 101.3909374  -3.0153317
   3.5440012 107.8314997  -4.8780012   3.7600012 107.4704997  -4.0190012
   2.6890012 107.4574997  -5.0880012   3.4579292 107.7314111  -4.7886614
   6.1630012  96.3014997  -8.8830012   5.3010012  96.2144997  -9.2900012
   6.1400012  97.1574997  -8.4550012   6.0420330  96.4052765  -8.8808137
  10.8260012  96.0234997  -5.5080012  11.2460012  95.6084997  -4.7550012
   9.8930012  95.8454997  -5.3910012  10.7573644  95.9425900  -5.3890461
  14.1520012  99.7794997  -4.6550012  13.6380012  99.6534997  -3.8570012
  13.9970012 100.6914997  -4.8990012  14.0606852  99.8856132  -4.5787842
  14.9150012 104.6404997 -18.8930012  14.9570012 104.4174997 -19.8230012
  15.7640012 105.0394997 -18.7030012  15.0355396 104.6639155 -18.9946373
  10.4870012  98.5164997 -18.2230012  10.2340012  98.5354997 -17.3000012
  10.2310012  97.6444997 -18.5240012  10.4177790  98.4012437 -18.1373737
   6.2540012 101.2674997  -7.7880012   5.6120012 101.2264997  -7.0790012
   6.2910012 102.1934997  -8.0250012   6.1711324 101.3871559  -7.7230176
   6.2510012 101.4884997 -12.8760012   5.3580012 101.1474997 -12.9340012
   6.7010012 101.1114997 -13.6310012   6.1897305 101.3908484 -12.9860823
  11.7860012 101.9044997 -14.0590012  11.3770012 102.7194997 -14.3500012
  12.5070012 101.7644997 -14.6730012  11.8274537 101.9972018 -14.1818658
  10.8880012 102.0794997  -2.5710012  10.3260012 101.3754997  -2.2500012
  11.7150012 101.9594997  -2.1030012  10.9227095 101.9667883  -2.4637670
  12.7910012 101.3504997 -11.2450012  12.5960012 101.9554997 -11.9600012
  12.9720012 100.5164997 -11.6790012  12.7887614 101.3206300 -11.4015595
   4.0040012 101.5874997  -5.9210012   3.9660012 101.9874997  -5.0520012
   3.5130012 100.7704997  -5.8300012   3.9324684 101.5318069  -5.7898941
   7.3700012  98.9614997 -19.1220012   6.9390012  98.5164997 -18.3920012
   6.6520012  99.3334997 -19.6340012   7.2139438  98.9508940 -19.0913201
   0.6120012  98.7034997 -12.0700012   1.2430012  98.6744997 -11.3510012
   1.0610012  98.2784997 -12.8000012   0.7590774  98.6420492 -12.0703447
   1.8860012  99.4494997 -16.6460012   2.3600012 100.0404997 -17.2310012
   1.1690012  99.9804997 -16.2990012   1.8539341  99.6020867 -16.6791164
  12.0550012 102.9884997  -6.5730012  12.3780012 102.3574997  -7.2160012
  11.6150012 102.4534997  -5.9130012  12.0396895 102.8298441  -6.5717150
   8.8320012  98.9154997 -11.7890012   7.9210012  98.9724997 -11.5010012
   9.3380012  98.8554997 -10.9790012   8.7755413  98.9151985 -11.6399378
   3.6610012 100.5444997 -12.9630012   2.7710012 100.6444997 -13.3030012
   3.9570012  99.7024997 -13.3090012   3.5792823 100.4443545 -13.0562787
   7.3140012 100.5444997 -15.3060012   8.2450012 100.6734997 -15.1280012
   7.0990012 101.2144997 -15.9560012   7.4124247 100.6526565 -15.3694253
  13.2370012  98.1504997  -8.5250012  12.5610012  98.2814997  -7.8610012
  12.7520012  97.9954997  -9.3350012  13.0787145  98.1474905  -8.5435483
   5.9880012 101.7394997 -17.7390012   5.4450012 101.3594997 -18.4310012
   6.8210012 101.9334997 -18.1680012   6.0264399 101.7138124 -17.8915474
  16.5250012 113.8224997  -2.2480012  16.7250012 114.2464997  -3.0830012
  17.1800012 114.1654997  -1.6410012  16.6410051 113.9269648  -2.2802164
   4.1230012 106.2964997  -2.6400012   4.8550012 106.5504997  -2.0790012
   3.3430012 106.5004997  -2.1250012   4.1178232 106.3589177  -2.4934240
  10.1520012 101.7034997  -9.9020012  10.7170012 101.1564997 -10.4490012
  10.0050012 101.1814997  -9.1140012  10.2092918 101.5582024  -9.8701546
   5.1540012  97.8394997 -13.4840012   4.8370012  96.9374997 -13.5190012
   5.9360012  97.8414997 -14.0370012   5.2162284  97.7161628 -13.5635217
   8.7790012 100.0914997  -7.4880012   7.9430012 100.5454997  -7.3780012
   9.3030012 100.3674997  -6.7360012   8.7354414 100.1909376  -7.3712864
   9.3230012 106.3044997 -15.8040012   8.5780012 105.7974997 -16.1260012
   9.1890012 106.3534997 -14.8570012   9.2028776 106.2416940 -15.7201353
  16.4730012 105.4374997  -7.0170012  17.1150012 105.8944997  -7.5610012
  15.6430012 105.5504997  -7.4800012  16.4485963 105.5152704  -7.1539823
  13.2210012  99.1184997 -17.6040012  12.2820012  99.2304997 -17.7560012
  13.5180012  99.9754997 -17.2980012  13.1327666  99.2496443 -17.5834232
  10.8420012 106.4884997  -4.5670012  10.4970012 106.1074997  -3.7600012
  10.6420012 107.4224997  -4.4950012  10.7678061 106.5625228  -4.4469039
  13.9390012 100.9854997 -15.9440012  14.8310012 100.8484997 -15.6250012
  13.9960012 101.7764997 -16.4800012  14.0686285 101.0736660 -15.9728310
   4.4480012 105.5994997 -10.0340012   5.1930012 105.5974997 -10.6350012
   4.5260012 104.7764997  -9.5520012   4.5605518 105.4879315 -10.0511071
  11.4490012 107.7634997 -16.7780012  11.1530012 108.5894997 -16.3970012
  10.7460012 107.1434997 -16.5820012  11.3134914 107.7928199 -16.6993557
   1.4560012 104.0604997  -4.7190012   1.6790012 103.6424997  -3.8870012
   0.8540012 103.4474997  -5.1420012   1.4051759 103.9204668  -4.6622978
   8.4720012 103.5774997  -2.5060012   8.1760012 103.4114997  -3.4010012
   9.4040012 103.3574997  -2.5170012   8.5574166 103.5250640  -2.6299464
  13.0930012 108.9504997  -4.6160012  12.1920012 109.1334997  -4.8840012
  13.1270012 109.2094997  -3.6950012  12.9743041 109.0105512  -4.5281803
  18.8240012 101.1954997 -16.2490012  18.2700012 100.7994997 -16.9210012
  18.9240012 102.1054997 -16.5270012  18.7617059 101.2643586 -16.3785599
  18.7870012 106.9954997  -3.4120012  17.9360012 107.2334997  -3.7790012
  19.3780012 106.9784997  -4.1650012  18.7502487 107.0258258  -3.5641107
  17.1190012 109.9814997 -15.7840012  16.7460012 109.1554997 -15.4750012
  17.3970012 109.7984997 -16.6810012  17.1055630 109.8437303 -15.8630374
  14.2800012 104.7894997  -8.7630012  13.3510012 104.5574997  -8.7900012
  14.7310012 104.0124997  -9.0930012  14.2139216 104.6527238  -8.8113083
   6.8230012 109.1174997 -12.6300012   7.3500012 109.8904997 -12.8300012
   5.9430012 109.3424997 -12.9310012   6.7761773 109.2538005 -12.6980990
   2.5780012 103.9794997 -18.0430012   3.1940012 104.6064997 -17.6630012
   1.7160012 104.2954997 -17.7710012   2.5457698 104.1079430 -17.9542817
   8.2500012 106.7804997 -13.0530012   8.0090012 107.7054997 -13.0120012
   7.5090012 106.3214997 -12.6570012   8.1168409 106.8451421 -12.9938623
   8.7650012 110.9294997  -6.7380012   9.1270012 111.7844997  -6.9720012
   9.2960012 110.6374997  -5.9980012   8.8864473 111.0071060  -6.6699145
   6.9330012 111.8024997 -13.5080012   5.9830012 111.9074997 -13.4570012
   7.2850012 112.6224997 -13.1630012   6.8504203 111.9278314 -13.4543350
  12.3090012 107.0284997  -7.0380012  11.8830012 106.8014997  -6.2110012
  12.8890012 106.2904997  -7.2200012  12.3291868 106.8975299  -6.9494170
  14.5120012 107.9574997 -17.9640012  14.8650012 107.5774997 -17.1590012
  13.5630012 107.8644997 -17.8770012  14.4320441 107.8929596 -17.8421441
  14.9670012 111.5804997  -4.5680012  14.3660012 111.0254997  -5.0640012
  15.2490012 112.2474997  -5.1940012  14.9228519 111.5946841  -4.7205048
  19.0150012 112.4374997 -17.7630012  19.7590012 113.0234997 -17.9030012
  18.3210012 113.0054997 -17.4290012  19.0230292 112.5945582 -17.7370039
   3.0900012  98.8134997  -5.1610012   2.1970012  99.1524997  -5.2290012
   2.9910012  97.9584997  -4.7430012   2.9544164  98.7442588  -5.1137765
  15.3780012 106.6304997 -15.7370012  15.1000012 105.9024997 -15.1810012
  16.3050012 106.7494997 -15.5320012  15.4653124 106.5468802 -15.6331155
   2.7410012 110.6184997  -6.7260012   2.9580012 109.6864997  -6.7570012
   2.9870012 110.8924997  -5.8430012   2.8039549 110.5280636  -6.6108237
   8.6030012 109.0694997 -19.5170012   8.8420012 108.3214997 -20.0640012
   8.3340012 108.6814997 -18.6840012   8.5993675 108.9146638 -19.4793135
   7.5400012 108.6394997 -17.0600012   7.6860012 108.1194997 -16.2700012
   7.5370012 109.5464997 -16.7540012   7.5595989 108.6908853 -16.9103912
   3.9930012 105.8924997 -16.5500012   3.3070012 106.2444997 -15.9830012
   4.5150012 106.6554997 -16.7970012   3.9696852 106.0438578 -16.5057882
  11.8240012  98.5544997  -6.2710012  12.5230012  98.6284997  -5.6210012
  11.4430012  97.6904997  -6.1170012  11.8681767  98.4477624  -6.1611678
  12.6090012  98.2064997 -15.1740012  12.8290012  98.6784997 -15.9770012
  13.1670012  98.6014997 -14.5040012  12.7144968  98.3244285 -15.1932669
  10.2770012 110.3374997 -16.3110012   9.4610012 110.8344997 -16.2590012
  10.8070012 110.8124997 -16.9510012  10.2369161 110.4697722 -16.3904044
   9.8090012  99.9344997 -14.3390012  10.6210012 100.4394997 -14.2930012
   9.5640012  99.7894997 -13.4250012   9.8870520  99.9840375 -14.2091483
  10.3440012 100.9204997  -5.1540012  10.4630012 101.4944997  -4.3970012
  11.0000012 100.2324997  -5.0400012  10.4489757 100.9061079  -5.0349175
  10.6920012  97.0154997 -13.4010012  10.3460012  97.6334997 -12.7560012
  11.3510012  97.5164997 -13.8820012  10.7337826  97.1675802 -13.3779029
   7.6160012 111.3814997 -16.3290012   7.7760012 112.1804997 -16.8300012
   7.4180012 111.6874997 -15.4440012   7.6111649 111.5324469 -16.2780185
   6.3500012  98.0784997 -16.7140012   6.2670012  98.9674997 -16.3670012
   7.2400012  97.8134997 -16.4820012   6.4589469  98.1641430 -16.6352374
  16.5490012  98.8274997  -4.3190012  15.6320012  99.0904997  -4.4070012
  16.8840012  98.8244997  -5.2160012  16.4689900  98.8630224  -4.4522081
  15.1510012 102.5784997 -10.2240012  14.3530012 102.1634997 -10.5520012
  15.5960012 101.8874997  -9.7330012  15.1019885 102.4283543 -10.2025111
   4.6090012 108.5064997 -17.6530012   5.2010012 109.2054997 -17.3770012
   5.0680012 108.0734997 -18.3730012   4.7521142 108.5437049 -17.7125170
   2.9250012 101.1704997 -18.5370012   2.8800012 102.1094997 -18.3590012
   2.0370012 100.9344997 -18.8070012   2.7988574 101.2671892 -18.5491088
  16.2370012 111.8344997  -8.6010012  16.0820012 112.5124997  -9.2580012
  17.1700012 111.9064997  -8.3980012  16.3418500 111.9370170  -8.6634881
   3.7330012  95.9524997  -9.8640012   3.5040012  96.0114997 -10.7920012
   3.2900012  95.1604997  -9.5580012   3.6418530  95.8535753  -9.9495214
   2.6630012 109.8924997 -13.7040012   1.8310012 110.3654997 -13.6760012
   3.2090012 110.4024997 -14.3020012   2.6229739 110.0261871 -13.7810284
   1.9510012 112.5054997  -2.3740012   2.4920012 112.2884997  -1.6140012
   1.4700012 111.6994997  -2.5630012   1.9599345 112.3669514  -2.2956924
   6.5490012 111.4244997  -0.7530012   7.3160012 110.9654997  -0.4120012
   6.5270012 111.1984997  -1.6830012   6.6511434 111.3310409  -0.8319957
  10.6410012 110.9324997 -19.3780012   9.9970012 110.3014997 -19.0570012
  11.4030012 110.4014997 -19.6100012  10.6558077 110.7742920 -19.3653989
  13.1260012 109.8044997  -2.0240012  12.7750012 108.9484997  -1.7810012
  13.8520012 109.9474997  -1.4170012  13.1760769 109.7065636  -1.9086381
  15.2450012 110.7494997 -19.1440012  15.5280012 109.9554997 -18.6920012
  15.9850012 110.9824997 -19.7050012  15.3837486 110.6722803 -19.1579302
   1.8580012 106.3154997  -1.4190012   2.0020012 105.4134997  -1.7060012
   1.0860012 106.6014997  -1.9070012   1.7733322 106.2308261  -1.5242119
   6.2000012 106.6594997 -19.2870012   6.2640012 105.8654997 -18.7560012
   6.8530012 106.5404997 -19.9770012   6.2970241 106.5347148 -19.3075683
   8.5140012 106.2854997  -1.9870012   8.1850012 106.5564997  -2.8440012
   8.6660012 105.3444997  -2.0740012   8.4894809 106.1953862  -2.1161756
  14.2480012 106.2014997  -4.6030012  14.9940012 106.7894997  -4.7230012
  13.4910012 106.7834997  -4.5400012  14.2477554 106.3607011  -4.6109093
   2.6910012 103.5154997  -1.9990012   3.0990012 102.6584997  -2.1200012
   2.4310012 103.5304997  -1.0780012   2.7117568 103.4000807  -1.8910412
   7.3490012 104.6314997 -16.9810012   6.8890012 104.1474997 -16.2950012
   7.6040012 103.9634997 -17.6170012   7.3204902 104.4748731 -16.9730666
   6.6380012 102.5244997  -4.6250012   6.0200012 103.1994997  -4.3450012
   6.9820012 102.8454997  -5.4580012   6.5999615 102.6602721  -4.6993419
   8.4200012 102.8744997 -18.7190012   8.2400012 102.7204997 -19.6460012
   9.3700012 102.9824997 -18.6740012   8.5237776 102.8680175 -18.8398157
  11.6580012 104.9964997  -1.3480012  12.6110012 105.0794997  -1.3750012
  11.4970012 104.2844997  -0.7280012  11.7666426 104.9116746  -1.2679421
  17.8100012 105.2294997 -19.2730012  17.5360012 104.8044997 -20.0860012
  17.8490012 106.1604997 -19.4900012  17.7777699 105.2972484 -19.4136390
   6.9770012  99.8794997  -3.5430012   7.1270012  99.1504997  -4.1450012
   6.9800012 100.6564997  -4.1020012   6.9979302  99.8847851  -3.7009308
   7.3900012  98.2494997  -6.0500012   7.9260012  98.7004997  -6.7020012
   6.5380012  98.1414997  -6.4730012   7.3482178  98.2966390  -6.1964244
   8.9720012 103.6884997  -5.8110012   9.7220012 103.5324997  -6.3840012
   8.6330012 104.5404997  -6.0860012   9.0288921 103.7822968  -5.9266439
  13.3870012 101.5034997  -0.7820012  13.5800012 100.5724997  -0.8940012
  14.2450012 101.9284997  -0.7920012  13.5293020 101.4336389  -0.7986639
  14.7040012 104.2924997  -2.7050012  14.4230012 105.0014997  -3.2820012
  15.6470012 104.2194997  -2.8560012  14.7929027 104.3797646  -2.8044449
   5.4560012 101.0774997  -1.6310012   4.6890012 100.5454997  -1.8410012
   6.1350012 100.7674997  -2.2310012   5.4427022 100.9627506  -1.7408352
   8.1960012  95.7054997  -5.6190012   8.0970012  96.6524997  -5.7240012
   7.4530012  95.3334997  -6.0940012   8.0820564  95.7845902  -5.6975440
   9.4600012 100.0274997  -2.0550012   9.2240012  99.8074997  -1.1530012
   8.6760012  99.8204997  -2.5650012   9.3218628  99.9694760  -2.0006068
  12.1750012  99.1544997  -2.9790012  11.2280012  99.1864997  -2.8470012
  12.4880012  98.5294997  -2.3260012  12.0875475  99.0743207  -2.8725545
  13.8090012  97.7884997  -0.9740012  13.7130012  96.8364997  -0.9800012
  13.4880012  98.0574997  -0.1140012  13.7524070  97.6944035  -0.8584559
   3.6360012  98.9984997  -1.9270012   3.8480012  98.2914997  -2.5370012
   3.5250012  98.5604997  -1.0830012   3.6499721  98.8427084  -1.8963157
   8.4170012  94.9994997  -2.9470012   9.1290012  94.3594997  -2.9610012
   8.3160012  95.2664997  -3.8610012   8.5007939  94.9479938  -3.0724350
   8.7710012  96.6824997  -0.8940012   8.6390012  96.2064997  -1.7140012
   8.1720012  97.4264997  -0.9490012   8.6719071  96.7179618  -1.0137114
   8.3170012 113.5654997 -17.7170012   9.2500012 113.7234997 -17.5740012
   8.0530012 114.2404997 -18.3420012   8.4089510 113.6783611 -17.7819259
   1.8860012 108.2014997 -18.2350012   2.8000012 108.2804997 -17.9610012
   1.8930012 107.5144997 -18.9010012   2.0121131 108.1193961 -18.2875607
   0.5350012 113.5944997 -13.1570012  -0.1119988 113.1324997 -13.6900012
   0.8890012 112.9224997 -12.5750012   0.4943849 113.4404723 -13.1512041
   1.4050012 111.6754997 -11.3530012   1.0700012 110.7954997 -11.1810012
   1.6270012 112.0204997 -10.4880012   1.3891783 111.6017500 -11.2125792
  18.9530012 112.4844997  -8.3720012  18.9320012 112.6694997  -7.4330012
  19.6440012 113.0534997  -8.7130012  19.0434618 112.5866606  -8.2896136
  18.5170012 112.0524997  -5.4500012  18.0290012 111.3164997  -5.8210012
  19.0660012 111.6584997  -4.7720012  18.5244872 111.8986249  -5.4090840
  16.9670012 107.8414997  -0.8120012  16.1010012 107.7364997  -0.4180012
  17.3440012 108.6004997  -0.3660012  16.8993308 107.9296900  -0.6977607
  18.2680012 106.0984997 -15.2980012  19.1180012 106.5194997 -15.1710012
  18.2740012 105.3584997 -14.6910012  18.3851372 106.0560803 -15.1985656
  18.6630012 104.1514997 -13.4740012  17.9360012 103.6724997 -13.0770012
  19.2440012 104.3574997 -12.7420012  18.6419375 104.1137090 -13.3205871
  18.4220012 106.9364997  -8.5270012  19.2550012 106.5584997  -8.8070012
  18.5340012 107.8794997  -8.6460012  18.5512647 107.0122218  -8.5814513
  16.9080012 109.8144997  -6.2200012  16.2610012 110.1394997  -5.5940012
  16.3910012 109.3744997  -6.8940012  16.7494029 109.7995004  -6.2254173
  18.9310012 104.0524997 -17.0830012  18.4090012 104.4094997 -17.8020012
  18.8980012 104.7274997 -16.4050012  18.8551634 104.1925413 -17.0896855
  17.2800012 101.2924997 -18.5320012  17.3760012 101.9594997 -19.2130012
  17.1400012 100.4764997 -19.0140012  17.2742135 101.2734500 -18.6901509
  16.4490012 102.6724997 -12.9110012  16.2990012 101.7274997 -12.9320012
  16.0960012 102.9534997 -12.0680012  16.3806625 102.5810441 -12.7997654
   1.4850012 104.7504997  -8.9010012   1.6690012 104.6684997  -9.8370012
   2.3340012 104.6264997  -8.4770012   1.6250139 104.7225003  -8.9718545
  17.3060012 104.6424997  -3.2730012  17.8890012 103.9084997  -3.0810012
  17.8700012 105.4144997  -3.2260012  17.4619769 104.6464227  -3.2403841
  18.8020012 102.5454997  -2.5880012  17.9390012 102.1664997  -2.7540012
  19.4070012 101.8064997  -2.6620012  18.7655979 102.3938023  -2.6207183
  16.5270012  98.7004997 -19.4150012  17.1380012  98.3294997 -18.7780012
  15.6910012  98.2794997 -19.2190012  16.4975032  98.5927554 -19.3012965
  16.1600012 100.2554997 -14.4490012  16.4400012  99.3484997 -14.3250012
  16.9190012 100.6894997 -14.8380012  16.3009277 100.1900942 -14.4846318
  16.7720012 100.8364997  -9.0130012  17.7050012 101.0484997  -9.0470012
  16.5370012 100.9384997  -8.0910012  16.8678036 100.8792769  -8.8930024
  16.8010012 101.5734997  -6.2370012  15.9580012 101.8414997  -5.8710012
  17.2430012 102.3954997  -6.4480012  16.7454158 101.7213291  -6.2154509
   1.0820012 100.0214997  -2.7600012   2.0020012  99.8994997  -2.5240012
   0.6330012  99.2714997  -2.3710012   1.1471580  99.9033727  -2.6750994
  19.0840012  95.5534997  -0.8840012  19.4340012  94.8994997  -1.4890012
  19.2310012  96.3904997  -1.3230012  19.1518419  95.5771591  -1.0262882
  16.7730012  97.5184997 -14.4010012  16.9560012  97.0694997 -13.5750012
  16.1740012  96.9334997 -14.8640012  16.7170202  97.3779975 -14.3506725
   2.3030012  98.3334997  -9.8690012   2.7490012  97.5414997  -9.5670012
   2.7700012  99.0494997  -9.4380012   2.4270172  98.3220624  -9.7695180
   0.6070012 101.3324997  -8.8000012   1.0990012 101.1114997  -9.5910012
   0.9700012 102.1734997  -8.5190012   0.7233126 101.4158357  -8.8702469
  18.6040012  97.6624997  -2.5340012  17.6860012  97.9334997  -2.5700012
  18.7270012  97.1274997  -3.3190012  18.4951066  97.6272892  -2.6449513
  18.6400012  97.5854997 -17.8730012  19.0520012  96.8644997 -18.3480012
  19.3220012  98.2554997 -17.8140012  18.7885885  97.5772368 -17.9301085
   0.9210012  97.5904997 -14.7460012  -0.0039988  97.7994997 -14.8750012
   1.3750012  98.0744997 -15.4350012   0.8557368  97.6845993 -14.8568774
  15.6920012 112.5744997 -12.8000012  16.3440012 112.2274997 -13.4080012
  16.2020012 113.0634997 -12.1540012  15.8502637 112.5930597 -12.7959764
   0.8850012  96.3284997  -6.4010012   0.2200012  96.0824997  -5.7580012
   0.4420012  96.9504997  -6.9790012   0.7340956  96.3788632  -6.3910648
   3.0770012 109.5034997  -2.2570012   2.2560012 109.6784997  -2.7170012
   2.8240012 109.4304997  -1.3360012   2.9306164 109.5175622  -2.1955077
   6.0310012 110.4784997  -5.9980012   5.6060012 111.2874997  -6.2810012
   6.9350012 110.5634997  -6.3000012   6.0950271 110.6008469  -6.0776224
  10.3420012 111.8774997  -3.0390012  10.5270012 111.5434997  -2.1610012
  11.1880012 112.1864997  -3.3610012  10.4817539 111.8736047  -2.9624395
  12.6870012 113.1634997  -3.7950012  13.3640012 112.5304997  -4.0350012
  13.0090012 113.5644997  -2.9880012  12.8231637 113.1311154  -3.7187207
  17.6040012  95.7524997  -4.7150012  16.7920012  96.0774997  -5.1030012
  17.8370012  94.9924997  -5.2480012  17.5243423  95.6942436  -4.8401747
   3.4330012 113.7344997  -5.9510012   2.7120012 114.1744997  -6.4020012
   3.0670012 113.4834997  -5.1020012   3.2849804 113.7607698  -5.8980160
   5.9000012 113.3344997  -6.9210012   5.0350012 113.4064997  -6.5170012
   5.8450012 113.8814997  -7.7050012   5.7742085 113.4182685  -6.9716638
  10.6100012 113.2224997  -7.7460012  10.1540012 113.7514997  -8.4000012
  10.7730012 113.8254997  -7.0200012  10.5695585 113.3764468  -7.7374938
  12.9380012 112.1004997  -6.8010012  12.0330012 112.2654997  -7.0660012
  13.3670012 112.9534997  -6.8660012  12.8720799 112.2384483  -6.8460818
  15.5420012 113.6704997  -6.5060012  15.3600012 114.5864997  -6.7160012
  15.7190012 113.2604997  -7.3520012  15.5410210 113.7404822  -6.6492115
   2.8470012 112.3574997  -9.0410012   2.8290012 111.9324997  -8.1830012
   3.6520012 112.0394997  -9.4490012   2.9533875 112.2563812  -8.9788345
   4.9890012 111.0674997 -10.3860012   4.7700012 110.1514997 -10.2160012
   5.8130012 111.2074997  -9.9200012   5.0704420 110.9610520 -10.2997226
   7.5260012 111.5374997  -9.5370012   7.7390012 110.6494997  -9.8240012
   7.5900012 111.5034997  -8.5830012   7.5638232 111.4113102  -9.4472603
  11.0340012  97.2014997 -10.3930012  10.3600012  96.5724997 -10.1370012
  11.5980012  96.7174997 -10.9960012  11.0179230  97.0498744 -10.4394660
  16.1770012  95.3094997 -10.2800012  16.7810012  95.8564997 -10.7820012
  15.3070012  95.6284997 -10.5200012  16.1421241  95.4275806 -10.3812346
  17.9040012  96.4474997 -11.9470012  18.5160012  95.9334997 -12.4730012
  18.2860012  97.3254997 -11.9230012  18.0394540  96.4957140 -12.0158170
   3.3610012  95.8354997 -12.5710012   2.5840012  95.6014997 -13.0780012
   3.8910012  95.0384997 -12.5620012   3.3262330  95.6956988 -12.6392258
   2.1970012  95.6334997 -16.7670012   2.6360012  96.2444997 -17.3590012
   1.5640012  96.1714997 -16.2930012   2.1714514  95.7899257 -16.7839070
   7.9400012  95.7624997 -12.7570012   8.8150012  96.1504997 -12.7870012
   7.8040012  95.5474997 -11.8350012   8.0413695  95.7865184 -12.6363560
  13.4970012  95.7924997 -11.1080012  13.5730012  95.8874997 -12.0580012
  13.2220012  94.8844997 -10.9790012  13.4702321  95.6827867 -11.2204921
  14.8500012  95.8184997 -15.4160012  14.1480012  96.4334997 -15.6250012
  14.4060012  94.9804997 -15.2850012  14.6936330  95.7895783 -15.4269672
   2.0980012 111.5814997 -15.8690012   1.4130012 111.5434997 -16.5370012
   2.1020012 112.4944997 -15.5810012   2.0048193 111.6997016 -15.9214716
   4.0580012  97.5494997 -18.3250012   4.5500012  96.9194997 -18.8520012
   4.6820012  97.8454997 -17.6610012   4.2095446  97.5033199 -18.3074020
   9.0840012  97.8424997 -15.8680012   9.2620012  97.1964997 -15.1850012
   9.0310012  98.6764997 -15.4000012   9.1011829  97.8667985 -15.7114060
  10.9630012 112.7914997 -17.4720012  11.8290012 113.1574997 -17.6500012
  10.7160012 112.3514997 -18.2860012  11.0482392 112.7821756 -17.6063711
  17.6720012 112.3544997 -14.7930012  17.4770012 111.6064997 -15.3580012
  17.6330012 113.1124997 -15.3760012  17.6400380 112.3546099 -14.9491616
   3.3190012  96.3494997  -3.0530012   2.9530012  95.5844997  -2.6100012
   4.2320012  96.3784997  -2.7660012   3.3922790  96.2487224  -2.9535930
   5.2920012  95.7004997  -1.5170012   6.1900012  95.4264997  -1.7020012
   4.9050012  94.9574997  -1.0530012   5.3626612  95.5625914  -1.4796357
   3.9160012 112.5014997 -18.8440012   3.6490012 112.7884997 -17.9710012
   4.6880012 111.9554997 -18.6920012   3.9837488 112.4670294 -18.7038950
  13.7130012  95.0324997  -1.3350012  13.7900012  94.6064997  -0.4810012
  14.6070012  95.0464997  -1.6780012  13.8443428  94.9760879  -1.2644690
  16.8890012 111.1054997  -2.6430012  16.1070012 110.9194997  -3.1620012
  16.8170012 112.0344997  -2.4250012  16.7721777 111.2056492  -2.6845952
  31.2950012 104.9914997 -12.6120012  31.3840012 105.9354997 -12.7440012
  30.6570012 104.7164997 -13.2700012  31.2209081 105.0834830 -12.7190386
  30.2280012 104.2464997  -9.1930012  30.1900012 103.6004997  -8.4880012
  29.9060012 103.7804997  -9.9640012  30.1792333 104.0949408  -9.2007022
  22.5970012 103.8614997  -7.6000012  22.6380012 103.2354997  -6.8770012
  23.3000012 104.4854997  -7.4180012  22.6976363 103.8601196  -7.4763956
  33.9340012 107.1854997 -10.8920012  33.4940012 106.4654997 -10.4410012
  33.9210012 107.9064997 -10.2620012  33.8720226 107.1843731 -10.7451506
  23.5200012 108.3114997  -9.0650012  23.1510012 107.5094997  -9.4350012
  24.4610012 108.1424997  -9.0190012  23.5967289 108.1790153  -9.1093684
  20.1300012 101.9714997 -13.6720012  19.6830012 102.8174997 -13.6910012
  19.5690012 101.3914997 -14.1880012  19.9929900 102.0089916 -13.7443199
  20.8410012 104.1334997 -11.5460012  21.0540012 103.3634997 -11.0190012
  21.5790012 104.2224997 -12.1500012  20.9698496 104.0401394 -11.5554700
  31.0460012 112.2904997 -10.6790012  31.6660012 111.6134997 -10.9530012
  30.8380012 112.0724997  -9.7710012  31.1026904 112.1683870 -10.5936635
  28.6180012 106.6794997  -8.7870012  28.9220012 105.9934997  -9.3820012
  29.3390012 106.7974997  -8.1690012  28.7570671 106.6016305  -8.7848184
  37.2810012  98.2804997  -7.9260012  37.3300012  98.8904997  -7.1900012
  37.7060012  98.7414997  -8.6490012  37.3451824  98.4263741  -7.9229795
  31.7590012 101.0734997  -8.4590012  31.9010012 100.1274997  -8.4390012
  31.6520012 101.2804997  -9.3880012  31.7639864 100.9719534  -8.5817661
  24.9130012  99.1744997 -11.1870012  24.9570012 100.0344997 -11.6050012
  24.4560012  98.6224997 -11.8210012  24.8572185  99.2175799 -11.3299701
  32.6360012  99.3054997 -12.7860012  33.2820012  98.9764997 -12.1610012
  33.1460012  99.8234997 -13.4090012  32.7934264  99.3304611 -12.7846138
  21.5340012 101.5714997 -10.4250012  22.1870012 101.0214997  -9.9930012
  21.5580012 101.2974997 -11.3420012  21.6266683 101.4591466 -10.4897877
  26.6900012 103.1214997 -11.2100012  27.3060012 102.5954997 -10.7000012
  26.1040012 102.4814997 -11.6130012  26.6950810 102.9629208 -11.1946827
  37.6720012  99.7584997  -5.6900012  36.9840012 100.4164997  -5.7860012
  37.6880012  99.5614997  -4.7540012  37.5798525  99.8220462  -5.5765192
  23.7240012  98.0924997  -7.1130012  23.5050012  98.6224997  -7.8790012
  23.0560012  98.3194997  -6.4660012  23.6037600  98.1956906  -7.1303621
  31.0930012 107.5924997 -13.5690012  30.7970012 107.2704997 -14.4200012
  30.7680012 108.4924997 -13.5280012  31.0086371 107.6700215 -13.6798199
  26.2930012 105.7684997  -6.8260012  25.5530012 106.3664997  -6.7220012
  27.0070012 106.3224997  -7.1410012  26.2882237 105.9252831  -6.8543535
  34.4000012  98.5964997 -10.8060012  34.1840012  97.8304997 -10.2730012
  35.0550012  99.0684997 -10.2930012  34.4590632  98.5555889 -10.6637139
  23.3170012  99.9844997  -9.1610012  23.9310012 100.6174997  -8.7870012
  23.8290012  99.5124997  -9.8170012  23.4702296 100.0072370  -9.1985748
  24.7000012 107.7324997  -6.0380012  24.6950012 108.6124997  -6.4160012
  23.8470012 107.6494997  -5.6130012  24.5839464 107.8416117  -6.0322093
  20.8210012 107.4034997 -15.2560012  20.5490012 107.6324997 -16.1450012
  20.8670012 108.2414997 -14.7960012  20.7900094 107.5481213 -15.3154303
  34.4460012 109.0254997  -8.5440012  33.5050012 109.0834997  -8.3820012
  34.7230012 109.9314997  -8.6810012  34.3544679 109.1559443  -8.5403185
  34.7470012  97.3114997  -7.1260012  34.0110012  97.9224997  -7.1640012
  35.4300012  97.7264997  -7.6530012  34.7386541  97.4511374  -7.2024168
  27.7500012  95.3984997  -9.6600012  27.6330012  94.4494997  -9.7150012
  26.8950012  95.7304997  -9.3870012  27.6183733  95.3135409  -9.6306103
  32.6980012 110.8064997 -11.9180012  33.1240012 110.0994997 -12.4030012
  33.0150012 111.6074997 -12.3350012  32.7991019 110.8180994 -12.0406870
  33.8580012 108.7074997 -13.4100012  33.6000012 108.0174997 -14.0210012
  33.9290012 108.2644997 -12.5640012  33.8322856 108.5532124 -13.3793115
  35.5440012 107.2734997  -4.9320012  35.6840012 106.6824997  -5.6720012
  35.7110012 108.1464997  -5.2890012  35.5856778 107.3106426  -5.0813035
  30.0170012 104.2354997 -15.1600012  29.3050012 104.7704997 -15.5120012
  30.7080012 104.2914997 -15.8200012  30.0130132 104.3162543 -15.2973711
  30.0700012 102.6934997 -18.1210012  30.7710012 102.7154997 -17.4700012
  30.3730012 102.0654997 -18.7770012  30.2067830 102.6116566 -18.1206289
  37.3860012 103.6134997  -6.8660012  36.7330012 104.3084997  -6.7770012
  37.8510012 103.8234997  -7.6760012  37.3595390 103.7369425  -6.9633117
  33.4220012 104.4454997 -14.2080012  32.6900012 104.6734997 -13.6350012
  33.8700012 103.7314997 -13.7530012  33.3823095 104.3802571 -14.0680881
  33.3200012 102.6194997  -5.1410012  33.4000012 103.3824997  -4.5690012
  32.7180012 102.8984997  -5.8310012  33.2495756 102.7617134  -5.1559411
  25.0680012 105.0754997 -12.3260012  24.7370012 104.7054997 -13.1440012
  25.6560012 104.4054997 -11.9790012  25.1021873 104.9341156 -12.3911898
  26.4340012 108.5034997  -9.6440012  26.3400012 107.9254997 -10.4010012
  27.1640012 108.1324997  -9.1480012  26.5197981 108.3742390  -9.6805835
  25.4340012 103.8444997  -8.6920012  26.0000012 103.9654997  -9.4550012
  25.7530012 104.4814997  -8.0530012  25.5545786 103.9471884  -8.7099960
  31.7430012 109.3474997  -7.9580012  31.5030012 110.0094997  -7.3100012
  31.5450012 108.5134997  -7.5330012  31.6833808 109.3253134  -7.8118476
  26.3140012 108.2434997  -3.9750012  26.0030012 109.0254997  -3.5200012
  25.6640012 108.0904997  -4.6610012  26.1835558 108.3299105  -4.0054129
  32.2930012 103.6074997 -16.5230012  32.8730012 103.7574997 -15.7760012
  32.7070012 104.0784997 -17.2460012  32.4282830 103.6916841 -16.5185866
  23.2340012 104.4414997  -4.7460012  23.3050012 105.0924997  -4.0480012
  22.3440012 104.5444997  -5.0810012  23.1233117 104.5445936  -4.6957300
  30.0200012 110.3444997 -13.0880012  30.4940012 110.6394997 -12.3100012
  29.4570012 111.0824997 -13.3210012  30.0087653 110.4846932 -13.0129864
  24.5540012 110.3154997  -3.2120012  24.5610012 110.1794997  -4.1590012
  23.6380012 110.1974997  -2.9600012  24.4311714 110.2809430  -3.3075334
  35.9920012  95.3574997 -16.7100012  35.0920012  95.4964997 -16.4150012
  36.2440012  96.1884997 -17.1120012  35.9028702  95.4889074 -16.7239795
  24.0580012 104.1454997 -14.7360012  23.7660012 104.9134997 -15.2270012
  23.3840012 103.4854997 -14.8990012  23.9269081 104.1614406 -14.8252660
  37.1810012 109.7234997 -18.3340012  37.2550012 110.6624997 -18.1630012
  38.0870012 109.4184997 -18.3900012  37.3135100 109.8106722 -18.3181881
  20.1510012 106.5084997  -5.9210012  19.6500012 106.4804997  -6.7360012
  20.1560012 105.6024997  -5.6120012  20.0831526 106.3822278  -5.9907128
  19.9010012 109.2884997  -9.0370012  20.8470012 109.1444997  -9.0560012
  19.7890012 110.0724997  -8.5000012  20.0152727 109.3748046  -8.9669928
  38.0990012 109.9544997  -3.3550012  38.0500012 108.9994997  -3.3920012
  37.2720012 110.2224997  -2.9540012  37.9804940 109.8598998  -3.3058625
  29.0780012 109.5284997  -4.4790012  29.1650012 110.3544997  -4.0040012
  28.2140012 109.1984997  -4.2300012  28.9731964 109.5969878  -4.3803451
  29.4920012 113.3004997 -14.6730012  29.4170012 113.1794997 -15.6190012
  29.5250012 114.2504997 -14.5540012  29.4861848 113.4122500 -14.7865166
  23.1450012 112.0894997 -12.8920012  23.2980012 111.7414997 -12.0130012
  22.2950012 111.7334997 -13.1470012  23.0508962 111.9936650 -12.8061660
  32.5940012 112.4544997 -17.6710012  32.9690012 111.7104997 -18.1410012
  32.5980012 112.1844997 -16.7520012  32.6458915 112.3161486 -17.6112176
  32.2630012 112.3804997 -14.9210012  31.3270012 112.4804997 -14.7430012
  32.5430012 111.6714997 -14.3430012  32.1728255 112.2982711 -14.8184609
  35.2510012 101.4474997  -2.8750012  34.8440012 101.9284997  -3.5960012
  35.2920012 100.5424997  -3.1830012  35.2008437 101.3909374  -3.0153317
  22.4000012 107.8314997  -4.8780012  22.6160012 107.4704997  -4.0190012
  21.5450012 107.4574997  -5.0880012  22.3139292 107.7314111  -4.7886614
  25.0190012  96.3014997  -8.8830012  24.1570012  96.2144997  -9.2900012
  24.9960012  97.1574997  -8.4550012  24.8980330  96.4052765  -8.8808137
  29.6820012  96.0234997  -5.5080012  30.1020012  95.6084997  -4.7550012
  28.7490012  95.8454997  -5.3910012  29.6133644  95.9425900  -5.3890461
  33.0080012  99.7794997  -4.6550012  32.4940012  99.6534997  -3.8570012
  32.8530012 100.6914997  -4.8990012  32.9166852  99.8856132  -4.5787842
  33.7710012 104.6404997 -18.8930012  33.8130012 104.4174997 -19.8230012
  34.6200012 105.0394997 -18.7030012  33.8915396 104.6639155 -18.9946373
  29.3430012  98.5164997 -18.2230012  29.0900012  98.5354997 -17.3000012
  29.0870012  97.6444997 -18.5240012  29.2737790  98.4012437 -18.1373737
  25.1100012 101.2674997  -7.7880012  24.4680012 101.2264997  -7.0790012
  25.1470012 102.1934997  -8.0250012  25.0271324 101.3871559  -7.7230176
  25.1070012 101.4884997 -12.8760012  24.2140012 101.1474997 -12.9340012
  25.5570012 101.1114997 -13.6310012  25.0457305 101.3908484 -12.9860823
  30.6420012 101.9044997 -14.0590012  30.2330012 102.7194997 -14.3500012
  31.3630012 101.7644997 -14.6730012  30.6834537 101.9972018 -14.1818658
  29.7440012 102.0794997  -2.5710012  29.1820012 101.3754997  -2.2500012
  30.5710012 101.9594997  -2.1030012  29.7787095 101.9667883  -2.4637670
  31.6470012 101.3504997 -11.2450012  31.4520012 101.9554997 -11.9600012
  31.8280012 100.5164997 -11.6790012  31.6447614 101.3206300 -11.4015595
  22.8600012 101.5874997  -5.9210012  22.8220012 101.9874997  -5.0520012
  22.3690012 100.7704997  -5.8300012  22.7884684 101.5318069  -5.7898941
  26.2260012  98.9614997 -19.1220012  25.7950012  98.5164997 -18.3920012
  25.5080012  99.3334997 -19.6340012  26.0699438  98.9508940 -19.0913201
  19.4680012  98.7034997 -12.0700012  20.0990012  98.6744997 -11.3510012
  19.9170012  98.2784997 -12.8000012  19.6150774  98.6420492 -12.0703447
  20.7420012  99.4494997 -16.6460012  21.2160012 100.0404997 -17.2310012
  20.0250012  99.9804997 -16.2990012  20.7099341  99.6020867 -16.6791164
  30.9110012 102.9884997  -6.5730012  31.2340012 102.3574997  -7.2160012
  30.4710012 102.4534997  -5.9130012  30.8956895 102.8298441  -6.5717150
  27.6880012  98.9154997 -11.7890012  26.7770012  98.9724997 -11.5010012
  28.1940012  98.8554997 -10.9790012  27.6315413  98.9151985 -11.6399378
  22.5170012 100.5444997 -12.9630012  21.6270012 100.6444997 -13.3030012
  22.8130012  99.7024997 -13.3090012  22.4352823 100.4443546 -13.0562787
  26.1700012 100.5444997 -15.3060012  27.1010012 100.6734997 -15.1280012
  25.9550012 101.2144997 -15.9560012  26.2684247 100.6526565 -15.3694253
  32.0930012  98.1504997  -8.5250012  31.4170012  98.2814997  -7.8610012
  31.6080012  97.9954997  -9.3350012  31.9347145  98.1474905  -8.5435483
  24.8440012 101.7394997 -17.7390012  24.3010012 101.3594997 -18.4310012
  25.6770012 101.9334997 -18.1680012  24.8824399 101.7138124 -17.8915474
  35.3810012 113.8224997  -2.2480012  35.5810012 114.2464997  -3.0830012
  36.0360012 114.1654997  -1.6410012  35.4970051 113.9269648  -2.2802164
  22.9790012 106.2964997  -2.6400012  23.7110012 106.5504997  -2.0790012
  22.1990012 106.5004997  -2.1250012  22.9738232 106.3589177  -2.4934240
  29.0080012 101.7034997  -9.9020012  29.5730012 101.1564997 -10.4490012
  28.8610012 101.1814997  -9.1140012  29.0652918 101.5582024  -9.8701546
  24.0100012  97.8394997 -13.4840012  23.6930012  96.9374997 -13.5190012
  24.7920012  97.8414997 -14.0370012  24.0722284  97.7161628 -13.5635217
  27.6350012 100.0914997  -7.4880012  26.7990012 100.5454997  -7.3780012
  28.1590012 100.3674997  -6.7360012  27.5914414 100.1909376  -7.3712864
  28.1790012 106.3044997 -15.8040012  27.4340012 105.7974997 -16.1260012
  28.0450012 106.3534997 -14.8570012  28.0588776 106.2416940 -15.7201353
  35.3290012 105.4374997  -7.0170012  35.9710012 105.8944997  -7.5610012
  34.4990012 105.5504997  -7.4800012  35.3045963 105.5152704  -7.1539823
  32.0770012  99.1184997 -17.6040012  31.1380012  99.2304997 -17.7560012
  32.3740012  99.9754997 -17.2980012  31.9887666  99.2496443 -17.5834232
  29.6980012 106.4884997  -4.5670012  29.3530012 106.1074997  -3.7600012
  29.4980012 107.4224997  -4.4950012  29.6238061 106.5625228  -4.4469039
  32.7950012 100.9854997 -15.9440012  33.6870012 100.8484997 -15.6250012
  32.8520012 101.7764997 -16.4800012  32.9246285 101.0736660 -15.9728310
  23.3040012 105.5994997 -10.0340012  24.0490012 105.5974997 -10.6350012
  23.3820012 104.7764997  -9.5520012  23.4165518 105.4879315 -10.0511071
  30.3050012 107.7634997 -16.7780012  30.0090012 108.5894997 -16.3970012
  29.6020012 107.1434997 -16.5820012  30.1694914 107.7928199 -16.6993557
  20.3120012 104.0604997  -4.7190012  20.5350012 103.6424997  -3.8870012
  19.7100012 103.4474997  -5.1420012  20.2611759 103.9204668  -4.6622978
  27.3280012 103.5774997  -2.5060012  27.0320012 103.4114997  -3.4010012
  28.2600012 103.3574997  -2.5170012  27.4134166 103.5250640  -2.6299464
  31.9490012 108.9504997  -4.6160012  31.0480012 109.1334997  -4.8840012
  31.9830012 109.2094997  -3.6950012  31.8303041 109.0105512  -4.5281803
  37.6800012 101.1954997 -16.2490012  37.1260012 100.7994997 -16.9210012
  37.7800012 102.1054997 -16.5270012  37.6177059 101.2643586 -16.3785599
  37.6430012 106.9954997  -3.4120012  36.7920012 107.2334997  -3.7790012
  38.2340012 106.9784997  -4.1650012  37.6062487 107.0258258  -3.5641107
  35.9750012 109.9814997 -15.7840012  35.6020012 109.1554997 -15.4750012
  36.2530012 109.7984997 -16.6810012  35.9615630 109.8437303 -15.8630374
  33.1360012 104.7894997  -8.7630012  32.2070012 104.5574997  -8.7900012
  33.5870012 104.0124997  -9.0930012  33.0699216 104.6527238  -8.8113083
  25.6790012 109.1174997 -12.6300012  26.2060012 109.8904997 -12.8300012
  24.7990012 109.3424997 -12.9310012  25.6321773 109.2538005 -12.6980990
  21.4340012 103.9794997 -18.0430012  22.0500012 104.6064997 -17.6630012
  20.5720012 104.2954997 -17.7710012  21.4017698 104.1079430 -17.9542817
  27.1060012 106.7804997 -13.0530012  26.8650012 107.7054997 -13.0120012
  26.3650012 106.3214997 -12.6570012  26.9728409 106.8451421 -12.9938623
  27.6210012 110.9294997  -6.7380012  27.9830012 111.7844997  -6.9720012
  28.1520012 110.6374997  -5.9980012  27.7424473 111.0071060  -6.6699145
  25.7890012 111.8024997 -13.5080012  24.8390012 111.9074997 -13.4570012
  26.1410012 112.6224997 -13.1630012  25.7064203 111.9278314 -13.4543350
  31.1650012 107.0284997  -7.0380012  30.7390012 106.8014997  -6.2110012
  31.7450012 106.2904997  -7.2200012  31.1851868 106.8975299  -6.9494170
  33.3680012 107.9574997 -17.9640012  33.7210012 107.5774997 -17.1590012
  32.4190012 107.8644997 -17.8770012  33.2880441 107.8929596 -17.8421441
  33.8230012 111.5804997  -4.5680012  33.2220012 111.0254997  -5.0640012
  34.1050012 112.2474997  -5.1940012  33.7788519 111.5946841  -4.7205048
  37.8710012 112.4374997 -17.7630012  38.6150012 113.0234997 -17.9030012
  37.1770012 113.0054997 -17.4290012  37.8790292 112.5945582 -17.7370039
  21.9460012  98.8134997  -5.1610012  21.0530012  99.1524997  -5.2290012
  21.8470012  97.9584997  -4.7430012  21.8104164  98.7442588  -5.1137765
  34.2340012 106.6304997 -15.7370012  33.9560012 105.9024997 -15.1810012
  35.1610012 106.7494997 -15.5320012  34.3213124 106.5468802 -15.6331155
  21.5970012 110.6184997  -6.7260012  21.8140012 109.6864997  -6.7570012
  21.8430012 110.8924997  -5.8430012  21.6599549 110.5280636  -6.6108237
  27.4590012 109.0694997 -19.5170012  27.6980012 108.3214997 -20.0640012
  27.1900012 108.6814997 -18.6840012  27.4553675 108.9146638 -19.4793135
  26.3960012 108.6394997 -17.0600012  26.5420012 108.1194997 -16.2700012
  26.3930012 109.5464997 -16.7540012  26.4155989 108.6908853 -16.9103912
  22.8490012 105.8924997 -16.5500012  22.1630012 106.2444997 -15.9830012
  23.3710012 106.6554997 -16.7970012  22.8256852 106.0438578 -16.5057882
  30.6800012  98.5544997  -6.2710012  31.3790012  98.6284997  -5.6210012
  30.2990012  97.6904997  -6.1170012  30.7241767  98.4477624  -6.1611678
  31.4650012  98.2064997 -15.1740012  31.6850012  98.6784997 -15.9770012
  32.0230012  98.6014997 -14.5040012  31.5704968  98.3244285 -15.1932669
  29.1330012 110.3374997 -16.3110012  28.3170012 110.8344997 -16.2590012
  29.6630012 110.8124997 -16.9510012  29.0929161 110.4697722 -16.3904044
  28.6650012  99.9344997 -14.3390012  29.4770012 100.4394997 -14.2930012
  28.4200012  99.7894997 -13.4250012  28.7430520  99.9840375 -14.2091483
  29.2000012 100.9204997  -5.1540012  29.3190012 101.4944997  -4.3970012
  29.8560012 100.2324997  -5.0400012  29.3049757 100.9061079  -5.0349175
  29.5480012  97.0154997 -13.4010012  29.2020012  97.6334997 -12.7560012
  30.2070012  97.5164997 -13.8820012  29.5897826  97.1675802 -13.3779029
  26.4720012 111.3814997 -16.3290012  26.6320012 112.1804997 -16.8300012
  26.2740012 111.6874997 -15.4440012  26.4671649 111.5324469 -16.2780185
  25.2060012  98.0784997 -16.7140012  25.1230012  98.9674997 -16.3670012
  26.0960012  97.8134997 -16.4820012  25.3149469  98.1641430 -16.6352374
  35.4050012  98.8274997  -4.3190012  34.4880012  99.0904997  -4.4070012
  35.7400012  98.8244997  -5.2160012  35.3249900  98.8630224  -4.4522081
  34.0070012 102.5784997 -10.2240012  33.2090012 102.1634997 -10.5520012
  34.4520012 101.8874997  -9.7330012  33.9579885 102.4283543 -10.2025111
  23.4650012 108.5064997 -17.6530012  24.0570012 109.2054997 -17.3770012
  23.9240012 108.0734997 -18.3730012  23.6081142 108.5437049 -17.7125170
  21.7810012 101.1704997 -18.5370012  21.7360012 102.1094997 -18.3590012
  20.8930012 100.9344997 -18.8070012  21.6548574 101.2671892 -18.5491088
  35.0930012 111.8344997  -8.6010012  34.9380012 112.5124997  -9.2580012
  36.0260012 111.9064997  -8.3980012  35.1978500 111.9370170  -8.6634881
  22.5890012  95.9524997  -9.8640012  22.3600012  96.0114997 -10.7920012
  22.1460012  95.1604997  -9.5580012  22.4978530  95.8535753  -9.9495214
  21.5190012 109.8924997 -13.7040012  20.6870012 110.3654997 -13.6760012
  22.0650012 110.4024997 -14.3020012  21.4789739 110.0261871 -13.7810284
  20.8070012 112.5054997  -2.3740012  21.3480012 112.2884997  -1.6140012
  20.3260012 111.6994997  -2.5630012  20.8159345 112.3669514  -2.2956924
  25.4050012 111.4244997  -0.7530012  26.1720012 110.9654997  -0.4120012
  25.3830012 111.1984997  -1.6830012  25.5071434 111.3310409  -0.8319957
  29.4970012 110.9324997 -19.3780012  28.8530012 110.3014997 -19.0570012
  30.2590012 110.4014997 -19.6100012  29.5118077 110.7742920 -19.3653989
  31.9820012 109.8044997  -2.0240012  31.6310012 108.9484997  -1.7810012
  32.7080012 109.9474997  -1.4170012  32.0320769 109.7065636  -1.9086381
  34.1010012 110.7494997 -19.1440012  34.3840012 109.9554997 -18.6920012
  34.8410012 110.9824997 -19.7050012  34.2397486 110.6722803 -19.1579302
  20.7140012 106.3154997  -1.4190012  20.8580012 105.4134997  -1.7060012
  19.9420012 106.6014997  -1.9070012  20.6293322 106.2308261  -1.5242119
  25.0560012 106.6594997 -19.2870012  25.1200012 105.8654997 -18.7560012
  25.7090012 106.5404997 -19.9770012  25.1530241 106.5347148 -19.3075683
  27.3700012 106.2854997  -1.9870012  27.0410012 106.5564997  -2.8440012
  27.5220012 105.3444997  -2.0740012  27.3454809 106.1953862  -2.1161756
  33.1040012 106.2014997  -4.6030012  33.8500012 106.7894997  -4.7230012
  32.3470012 106.7834997  -4.5400012  33.1037554 106.3607011  -4.6109093
  21.5470012 103.5154997  -1.9990012  21.9550012 102.6584997  -2.1200012
  21.2870012 103.5304997  -1.0780012  21.5677568 103.4000807  -1.8910412
  26.2050012 104.6314997 -16.9810012  25.7450012 104.1474997 -16.2950012
  26.4600012 103.9634997 -17.6170012  26.1764902 104.4748731 -16.9730666
  25.4940012 102.5244997  -4.6250012  24.8760012 103.1994997  -4.3450012
  25.8380012 102.8454997  -5.4580012  25.4559615 102.6602721  -4.6993419
  27.2760012 102.8744997 -18.7190012  27.0960012 102.7204997 -19.6460012
  28.2260012 102.9824997 -18.6740012  27.3797776 102.8680175 -18.8398157
  30.5140012 104.9964997  -1.3480012  31.4670012 105.0794997  -1.3750012
  30.3530012 104.2844997  -0.7280012  30.6226426 104.9116746  -1.2679422
  36.6660012 105.2294997 -19.2730012  36.3920012 104.8044997 -20.0860012
  36.7050012 106.1604997 -19.4900012  36.6337699 105.2972484 -19.4136390
  25.8330012  99.8794997  -3.5430012  25.9830012  99.1504997  -4.1450012
  25.8360012 100.6564997  -4.1020012  25.8539302  99.8847851  -3.7009308
  26.2460012  98.2494997  -6.0500012  26.7820012  98.7004997  -6.7020012
  25.3940012  98.1414997  -6.4730012  26.2042178  98.2966390  -6.1964244
  27.8280012 103.6884997  -5.8110012  28.5780012 103.5324997  -6.3840012
  27.4890012 104.5404997  -6.0860012  27.8848921 103.7822968  -5.9266439
  32.2430012 101.5034997  -0.7820012  32.4360012 100.5724997  -0.8940012
  33.1010012 101.9284997  -0.7920012  32.3853020 101.4336389  -0.7986639
  33.5600012 104.2924997  -2.7050012  33.2790012 105.0014997  -3.2820012
  34.5030012 104.2194997  -2.8560012  33.6489027 104.3797646  -2.8044449
  24.3120012 101.0774997  -1.6310012  23.5450012 100.5454997  -1.8410012
  24.9910012 100.7674997  -2.2310012  24.2987022 100.9627506  -1.7408352
  27.0520012  95.7054997  -5.6190012  26.9530012  96.6524997  -5.7240012
  26.3090012  95.3334997  -6.0940012  26.9380564  95.7845902  -5.6975440
  28.3160012 100.0274997  -2.0550012  28.0800012  99.8074997  -1.1530012
  27.5320012  99.8204997  -2.5650012  28.1778628  99.9694760  -2.0006068
  31.0310012  99.1544997  -2.9790012  30.0840012  99.1864997  -2.8470012
  31.3440012  98.5294997  -2.3260012  30.9435475  99.0743207  -2.8725545
  32.6650012  97.7884997  -0.9740012  32.5690012  96.8364997  -0.9800012
  32.3440012  98.0574997  -0.1140012  32.6084070  97.6944035  -0.8584559
  22.4920012  98.9984997  -1.9270012  22.7040012  98.2914997  -2.5370012
  22.3810012  98.5604997  -1.0830012  22.5059721  98.8427084  -1.8963157
  27.2730012  94.9994997  -2.9470012  27.9850012  94.3594997  -2.9610012
  27.1720012  95.2664997  -3.8610012  27.3567939  94.9479938  -3.0724350
  27.6270012  96.6824997  -0.8940012  27.4950012  96.2064997  -1.7140012
  27.0280012  97.4264997  -0.9490012  27.5279071  96.7179618  -1.0137114
  27.1730012 113.5654997 -17.7170012  28.1060012 113.7234997 -17.5740012
  26.9090012 114.2404997 -18.3420012  27.2649510 113.6783611 -17.7819259
  20.7420012 108.2014997 -18.2350012  21.6560012 108.2804997 -17.9610012
  20.7490012 107.5144997 -18.9010012  20.8681131 108.1193961 -18.2875607
  19.3910012 113.5944997 -13.1570012  18.7440012 113.1324997 -13.6900012
  19.7450012 112.9224997 -12.5750012  19.3503849 113.4404723 -13.1512041
  20.2610012 111.6754997 -11.3530012  19.9260012 110.7954997 -11.1810012
  20.4830012 112.0204997 -10.4880012  20.2451783 111.6017500 -11.2125792
  37.8090012 112.4844997  -8.3720012  37.7880012 112.6694997  -7.4330012
  38.5000012 113.0534997  -8.7130012  37.8994618 112.5866606  -8.2896136
  37.3730012 112.0524997  -5.4500012  36.8850012 111.3164997  -5.8210012
  37.9220012 111.6584997  -4.7720012  37.3804872 111.8986249  -5.4090840
  35.8230012 107.8414997  -0.8120012  34.9570012 107.7364997  -0.4180012
  36.2000012 108.6004997  -0.3660012  35.7553308 107.9296900  -0.6977607
  37.1240012 106.0984997 -15.2980012  37.9740012 106.5194997 -15.1710012
  37.1300012 105.3584997 -14.6910012  37.2411372 106.0560803 -15.1985656
  37.5190012 104.1514997 -13.4740012  36.7920012 103.6724997 -13.0770012
  38.1000012 104.3574997 -12.7420012  37.4979375 104.1137090 -13.3205871
  37.2780012 106.9364997  -8.5270012  38.1110012 106.5584997  -8.8070012
  37.3900012 107.8794997  -8.6460012  37.4072647 107.0122218  -8.5814513
  35.7640012 109.8144997  -6.2200012  35.1170012 110.1394997  -5.5940012
  35.2470012 109.3744997  -6.8940012  35.6054029 109.7995004  -6.2254173
  37.7870012 104.0524997 -17.0830012  37.2650012 104.4094997 -17.8020012
  37.7540012 104.7274997 -16.4050012  37.7111634 104.1925413 -17.0896855
  36.1360012 101.2924997 -18.5320012  36.2320012 101.9594997 -19.2130012
  35.9960012 100.4764997 -19.0140012  36.1302135 101.2734500 -18.6901509
  35.3050012 102.6724997 -12.9110012  35.1550012 101.7274997 -12.9320012
  34.9520012 102.9534997 -12.0680012  35.2366625 102.5810441 -12.7997654
  20.3410012 104.7504997  -8.9010012  20.5250012 104.6684997  -9.8370012
  21.1900012 104.6264997  -8.4770012  20.4810139 104.7225003  -8.9718545
  36.1620012 104.6424997  -3.2730012  36.7450012 103.9084997  -3.0810012
  36.7260012 105.4144997  -3.2260012  36.3179769 104.6464227  -3.2403841
  37.6580012 102.5454997  -2.5880012  36.7950012 102.1664997  -2.7540012
  38.2630012 101.8064997  -2.6620012  37.6215979 102.3938023  -2.6207183
  35.3830012  98.7004997 -19.4150012  35.9940012  98.3294997 -18.7780012
  34.5470012  98.2794997 -19.2190012  35.3535032  98.5927554 -19.3012965
  35.0160012 100.2554997 -14.4490012  35.2960012  99.3484997 -14.3250012
  35.7750012 100.6894997 -14.8380012  35.1569277 100.1900942 -14.4846318
  35.6280012 100.8364997  -9.0130012  36.5610012 101.0484997  -9.0470012
  35.3930012 100.9384997  -8.0910012  35.7238036 100.8792769  -8.8930024
  35.6570012 101.5734997  -6.2370012  34.8140012 101.8414997  -5.8710012
  36.0990012 102.3954997  -6.4480012  35.6014158 101.7213291  -6.2154509
  19.9380012 100.0214997  -2.7600012  20.8580012  99.8994997  -2.5240012
  19.4890012  99.2714997  -2.3710012  20.0031580  99.9033727  -2.6750994
  37.9400012  95.5534997  -0.8840012  38.2900012  94.8994997  -1.4890012
  38.0870012  96.3904997  -1.3230012  38.0078419  95.5771591  -1.0262882
  35.6290012  97.5184997 -14.4010012  35.8120012  97.0694997 -13.5750012
  35.0300012  96.9334997 -14.8640012  35.5730202  97.3779975 -14.3506725
  21.1590012  98.3334997  -9.8690012  21.6050012  97.5414997  -9.5670012
  21.6260012  99.0494997  -9.4380012  21.2830172  98.3220624  -9.7695180
  19.4630012 101.3324997  -8.8000012  19.9550012 101.1114997  -9.5910012
  19.8260012 102.1734997  -8.5190012  19.5793126 101.4158357  -8.8702469
  37.4600012  97.6624997  -2.5340012  36.5420012  97.9334997  -2.5700012
  37.5830012  97.1274997  -3.3190012  37.3511066  97.6272892  -2.6449513
  37.4960012  97.5854997 -17.8730012  37.9080012  96.8644997 -18.3480012
  38.1780012  98.2554997 -17.8140012  37.6445885  97.5772368 -17.9301085
  19.7770012  97.5904997 -14.7460012  18.8520012  97.7994997 -14.8750012
  20.2310012  98.0744997 -15.4350012  19.7117368  97.6845993 -14.8568774
  34.5480012 112.5744997 -12.8000012  35.2000012 112.2274997 -13.4080012
  35.0580012 113.0634997 -12.1540012  34.7062637 112.5930597 -12.7959764
  19.7410012  96.3284997  -6.4010012  19.0760012  96.0824997  -5.7580012
  19.2980012  96.9504997  -6.9790012  19.5900956  96.3788632  -6.3910648
  21.9330012 109.5034997  -2.2570012  21.1120012 109.6784997  -2.7170012
  21.6800012 109.4304997  -1.3360012  21.7866164 109.5175622  -2.1955077
  24.8870012 110.4784997  -5.9980012  24.4620012 111.2874997  -6.2810012
  25.7910012 110.5634997  -6.3000012  24.9510271 110.6008469  -6.0776224
  29.1980012 111.8774997  -3.0390012  29.3830012 111.5434997  -2.1610012
  30.0440012 112.1864997  -3.3610012  29.3377539 111.8736047  -2.9624395
  31.5430012 113.1634997  -3.7950012  32.2200012 112.5304997  -4.0350012
  31.8650012 113.5644997  -2.9880012  31.6791637 113.1311154  -3.7187207
  36.4600012  95.7524997  -4.7150012  35.6480012  96.0774997  -5.1030012
  36.6930012  94.9924997  -5.2480012  36.3803423  95.6942436  -4.8401747
  22.2890012 113.7344997  -5.9510012  21.5680012 114.1744997  -6.4020012
  21.9230012 113.4834997  -5.1020012  22.1409804 113.7607698  -5.8980160
  24.7560012 113.3344997  -6.9210012  23.8910012 113.4064997  -6.5170012
  24.7010012 113.8814997  -7.7050012  24.6302085 113.4182685  -6.9716638
  29.4660012 113.2224997  -7.7460012  29.0100012 113.7514997  -8.4000012
  29.6290012 113.8254997  -7.0200012  29.4255585 113.3764468  -7.7374938
  31.7940012 112.1004997  -6.8010012  30.8890012 112.2654997  -7.0660012
  32.2230012 112.9534997  -6.8660012  31.7280799 112.2384483  -6.8460818
  34.3980012 113.6704997  -6.5060012  34.2160012 114.5864997  -6.7160012
  34.5750012 113.2604997  -7.3520012  34.3970210 113.7404822  -6.6492115
  21.7030012 112.3574997  -9.0410012  21.6850012 111.9324997  -8.1830012
  22.5080012 112.0394997  -9.4490012  21.8093875 112.2563812  -8.9788345
  23.8450012 111.0674997 -10.3860012  23.6260012 110.1514997 -10.2160012
  24.6690012 111.2074997  -9.9200012  23.9264420 110.9610520 -10.2997226
  26.3820012 111.5374997  -9.5370012  26.5950012 110.6494997  -9.8240012
  26.4460012 111.5034997  -8.5830012  26.4198232 111.4113102  -9.4472603
  29.8900012  97.2014997 -10.3930012  29.2160012  96.5724997 -10.1370012
  30.4540012  96.7174997 -10.9960012  29.8739230  97.0498744 -10.4394660
  35.0330012  95.3094997 -10.2800012  35.6370012  95.8564997 -10.7820012
  34.1630012  95.6284997 -10.5200012  34.9981241  95.4275806 -10.3812346
  36.7600012  96.4474997 -11.9470012  37.3720012  95.9334997 -12.4730012
  37.1420012  97.3254997 -11.9230012  36.8954540  96.4957140 -12.0158170
  22.2170012  95.8354997 -12.5710012  21.4400012  95.6014997 -13.0780012
  22.7470012  95.0384997 -12.5620012  22.1822330  95.6956988 -12.6392258
  21.0530012  95.6334997 -16.7670012  21.4920012  96.2444997 -17.3590012
  20.4200012  96.1714997 -16.2930012  21.0274514  95.7899257 -16.7839070
  26.7960012  95.7624997 -12.7570012  27.6710012  96.1504997 -12.7870012
  26.6600012  95.5474997 -11.8350012  26.8973695  95.7865184 -12.6363560
  32.3530012  95.7924997 -11.1080012  32.4290012  95.8874997 -12.0580012
  32.0780012  94.8844997 -10.9790012  32.3262321  95.6827867 -11.2204921
  33.7060012  95.8184997 -15.4160012  33.0040012  96.4334997 -15.6250012
  33.2620012  94.9804997 -15.2850012  33.5496330  95.7895783 -15.4269672
  20.9540012 111.5814997 -15.8690012  20.2690012 111.5434997 -16.5370012
  20.9580012 112.4944997 -15.5810012  20.8608193 111.6997016 -15.9214716
  22.9140012  97.5494997 -18.3250012  23.4060012  96.9194997 -18.8520012
  23.5380012  97.8454997 -17.6610012  23.0655446  97.5033199 -18.3074020
  27.9400012  97.8424997 -15.8680012  28.1180012  97.1964997 -15.1850012
  27.8870012  98.6764997 -15.4000012  27.9571829  97.8667985 -15.7114060
  29.8190012 112.7914997 -17.4720012  30.6850012 113.1574997 -17.6500012
  29.5720012 112.3514997 -18.2860012  29.9042392 112.7821756 -17.6063711
  36.5280012 112.3544997 -14.7930012  36.3330012 111.6064997 -15.3580012
  36.4890012 113.1124997 -15.3760012  36.4960380 112.3546099 -14.9491616
  22.1750012  96.3494997  -3.0530012  21.8090012  95.5844997  -2.6100012
  23.0880012  96.3784997  -2.7660012  22.2482790  96.2487224  -2.9535930
  24.1480012  95.7004997  -1.5170012  25.0460012  95.4264997  -1.7020012
  23.7610012  94.9574997  -1.0530012  24.2186612  95.5625914  -1.4796357
  22.7720012 112.5014997 -18.8440012  22.5050012 112.7884997 -17.9710012
  23.5440012 111.9554997 -18.6920012  22.8397488 112.4670294 -18.7038950
  32.5690012  95.0324997  -1.3350012  32.6460012  94.6064997  -0.4810012
  33.4630012  95.0464997  -1.6780012  32.7003428  94.9760879  -1.2644690
  35.7450012 111.1054997  -2.6430012  34.9630012 110.9194997  -3.1620012
  35.6730012 112.0344997  -2.4250012  35.6281777 111.2056492  -2.6845952
  50.1510012 104.9914997 -12.6120012  50.2400012 105.9354997 -12.7440012
  49.5130012 104.7164997 -13.2700012  50.0769081 105.0834830 -12.7190386
  49.0840012 104.2464997  -9.1930012  49.0460012 103.6004997  -8.4880012
  48.7620012 103.7804997  -9.9640012  49.0352333 104.0949408  -9.2007022
  41.4530012 103.8614997  -7.6000012  41.4940012 103.2354997  -6.8770012
  42.1560012 104.4854997  -7.4180012  41.5536363 103.8601196  -7.4763956
  52.7900012 107.1854997 -10.8920012  52.3500012 106.4654997 -10.4410012
  52.7770012 107.9064997 -10.2620012  52.7280226 107.1843731 -10.7451506
  42.3760012 108.3114997  -9.0650012  42.0070012 107.5094997  -9.4350012
  43.3170012 108.1424997  -9.0190012  42.4527289 108.1790153  -9.1093684
  38.9860012 101.9714997 -13.6720012  38.5390012 102.8174997 -13.6910012
  38.4250012 101.3914997 -14.1880012  38.8489900 102.0089916 -13.7443199
  39.6970012 104.1334997 -11.5460012  39.9100012 103.3634997 -11.0190012
  40.4350012 104.2224997 -12.1500012  39.8258496 104.0401394 -11.5554700
  49.9020012 112.2904997 -10.6790012  50.5220012 111.6134997 -10.9530012
  49.6940012 112.0724997  -9.7710012  49.9586904 112.1683870 -10.5936635
  47.4740012 106.6794997  -8.7870012  47.7780012 105.9934997  -9.3820012
  48.1950012 106.7974997  -8.1690012  47.6130671 106.6016305  -8.7848184
  56.1370012  98.2804997  -7.9260012  56.1860012  98.8904997  -7.1900012
  56.5620012  98.7414997  -8.6490012  56.2011824  98.4263741  -7.9229795
  50.6150012 101.0734997  -8.4590012  50.7570012 100.1274997  -8.4390012
  50.5080012 101.2804997  -9.3880012  50.6199864 100.9719534  -8.5817661
  43.7690012  99.1744997 -11.1870012  43.8130012 100.0344997 -11.6050012
  43.3120012  98.6224997 -11.8210012  43.7132185  99.2175799 -11.3299701
  51.4920012  99.3054997 -12.7860012  52.1380012  98.9764997 -12.1610012
  52.0020012  99.8234997 -13.4090012  51.6494264  99.3304611 -12.7846138
  40.3900012 101.5714997 -10.4250012  41.0430012 101.0214997  -9.9930012
  40.4140012 101.2974997 -11.3420012  40.4826683 101.4591466 -10.4897877
  45.5460012 103.1214997 -11.2100012  46.1620012 102.5954997 -10.7000012
  44.9600012 102.4814997 -11.6130012  45.5510810 102.9629208 -11.1946827
  56.5280012  99.7584997  -5.6900012  55.8400012 100.4164997  -5.7860012
  56.5440012  99.5614997  -4.7540012  56.4358525  99.8220462  -5.5765192
  42.5800012  98.0924997  -7.1130012  42.3610012  98.6224997  -7.8790012
  41.9120012  98.3194997  -6.4660012  42.4597600  98.1956906  -7.1303621
  49.9490012 107.5924997 -13.5690012  49.6530012 107.2704997 -14.4200012
  49.6240012 108.4924997 -13.5280012  49.8646371 107.6700215 -13.6798199
  45.1490012 105.7684997  -6.8260012  44.4090012 106.3664997  -6.7220012
  45.8630012 106.3224997  -7.1410012  45.1442237 105.9252831  -6.8543535
  53.2560012  98.5964997 -10.8060012  53.0400012  97.8304997 -10.2730012
  53.9110012  99.0684997 -10.2930012  53.3150632  98.5555889 -10.6637139
  42.1730012  99.9844997  -9.1610012  42.7870012 100.6174997  -8.7870012
  42.6850012  99.5124997  -9.8170012  42.3262296 100.0072370  -9.1985748
  43.5560012 107.7324997  -6.0380012  43.5510012 108.6124997  -6.4160012
  42.7030012 107.6494997  -5.6130012  43.4399464 107.8416117  -6.0322093
  39.6770012 107.4034997 -15.2560012  39.4050012 107.6324997 -16.1450012
  39.7230012 108.2414997 -14.7960012  39.6460094 107.5481213 -15.3154303
  53.3020012 109.0254997  -8.5440012  52.3610012 109.0834997  -8.3820012
  53.5790012 109.9314997  -8.6810012  53.2104679 109.1559443  -8.5403185
  53.6030012  97.3114997  -7.1260012  52.8670012  97.9224997  -7.1640012
  54.2860012  97.7264997  -7.6530012  53.5946541  97.4511374  -7.2024168
  46.6060012  95.3984997  -9.6600012  46.4890012  94.4494997  -9.7150012
  45.7510012  95.7304997  -9.3870012  46.4743733  95.3135409  -9.6306103
  51.5540012 110.8064997 -11.9180012  51.9800012 110.0994997 -12.4030012
  51.8710012 111.6074997 -12.3350012  51.6551019 110.8180994 -12.0406870
  52.7140012 108.7074997 -13.4100012  52.4560012 108.0174997 -14.0210012
  52.7850012 108.2644997 -12.5640012  52.6882856 108.5532124 -13.3793115
  54.4000012 107.2734997  -4.9320012  54.5400012 106.6824997  -5.6720012
  54.5670012 108.1464997  -5.2890012  54.4416778 107.3106426  -5.0813035
  48.8730012 104.2354997 -15.1600012  48.1610012 104.7704997 -15.5120012
  49.5640012 104.2914997 -15.8200012  48.8690132 104.3162543 -15.2973711
  48.9260012 102.6934997 -18.1210012  49.6270012 102.7154997 -17.4700012
  49.2290012 102.0654997 -18.7770012  49.0627830 102.6116566 -18.1206289
  56.2420012 103.6134997  -6.8660012  55.5890012 104.3084997  -6.7770012
  56.7070012 103.8234997  -7.6760012  56.2155390 103.7369425  -6.9633117
  52.2780012 104.4454997 -14.2080012  51.5460012 104.6734997 -13.6350012
  52.7260012 103.7314997 -13.7530012  52.2383095 104.3802571 -14.0680881
  52.1760012 102.6194997  -5.1410012  52.2560012 103.3824997  -4.5690012
  51.5740012 102.8984997  -5.8310012  52.1055756 102.7617134  -5.1559411
  43.9240012 105.0754997 -12.3260012  43.5930012 104.7054997 -13.1440012
  44.5120012 104.4054997 -11.9790012  43.9581873 104.9341156 -12.3911898
  45.2900012 108.5034997  -9.6440012  45.1960012 107.9254997 -10.4010012
  46.0200012 108.1324997  -9.1480012  45.3757981 108.3742390  -9.6805835
  44.2900012 103.8444997  -8.6920012  44.8560012 103.9654997  -9.4550012
  44.6090012 104.4814997  -8.0530012  44.4105786 103.9471884  -8.7099960
  50.5990012 109.3474997  -7.9580012  50.3590012 110.0094997  -7.3100012
  50.4010012 108.5134997  -7.5330012  50.5393808 109.3253134  -7.8118476
  45.1700012 108.2434997  -3.9750012  44.8590012 109.0254997  -3.5200012
  44.5200012 108.0904997  -4.6610012  45.0395558 108.3299105  -4.0054129
  51.1490012 103.6074997 -16.5230012  51.7290012 103.7574997 -15.7760012
  51.5630012 104.0784997 -17.2460012  51.2842830 103.6916841 -16.5185866
  42.0900012 104.4414997  -4.7460012  42.1610012 105.0924997  -4.0480012
  41.2000012 104.5444997  -5.0810012  41.9793117 104.5445936  -4.6957300
  48.8760012 110.3444997 -13.0880012  49.3500012 110.6394997 -12.3100012
  48.3130012 111.0824997 -13.3210012  48.8647653 110.4846932 -13.0129864
  43.4100012 110.3154997  -3.2120012  43.4170012 110.1794997  -4.1590012
  42.4940012 110.1974997  -2.9600012  43.2871714 110.2809430  -3.3075334
  54.8480012  95.3574997 -16.7100012  53.9480012  95.4964997 -16.4150012
  55.1000012  96.1884997 -17.1120012  54.7588702  95.4889074 -16.7239795
  42.9140012 104.1454997 -14.7360012  42.6220012 104.9134997 -15.2270012
  42.2400012 103.4854997 -14.8990012  42.7829081 104.1614406 -14.8252660
  56.0370012 109.7234997 -18.3340012  56.1110012 110.6624997 -18.1630012
  56.9430012 109.4184997 -18.3900012  56.1695100 109.8106722 -18.3181881
  39.0070012 106.5084997  -5.9210012  38.5060012 106.4804997  -6.7360012
  39.0120012 105.6024997  -5.6120012  38.9391526 106.3822278  -5.9907128
  38.7570012 109.2884997  -9.0370012  39.7030012 109.1444997  -9.0560012
  38.6450012 110.0724997  -8.5000012  38.8712727 109.3748046  -8.9669928
  56.9550012 109.9544997  -3.3550012  56.9060012 108.9994997  -3.3920012
  56.1280012 110.2224997  -2.9540012  56.8364940 109.8598998  -3.3058625
  47.9340012 109.5284997  -4.4790012  48.0210012 110.3544997  -4.0040012
  47.0700012 109.1984997  -4.2300012  47.8291964 109.5969878  -4.3803451
  48.3480012 113.3004997 -14.6730012  48.2730012 113.1794997 -15.6190012
  48.3810012 114.2504997 -14.5540012  48.3421848 113.4122500 -14.7865166
  42.0010012 112.0894997 -12.8920012  42.1540012 111.7414997 -12.0130012
  41.1510012 111.7334997 -13.1470012  41.9068962 111.9936650 -12.8061660
  51.4500012 112.4544997 -17.6710012  51.8250012 111.7104997 -18.1410012
  51.4540012 112.1844997 -16.7520012  51.5018915 112.3161486 -17.6112176
  51.1190012 112.3804997 -14.9210012  50.1830012 112.4804997 -14.7430012
  51.3990012 111.6714997 -14.3430012  51.0288255 112.2982711 -14.8184609
  54.1070012 101.4474997  -2.8750012  53.7000012 101.9284997  -3.5960012
  54.1480012 100.5424997  -3.1830012  54.0568437 101.3909374  -3.0153317
  41.2560012 107.8314997  -4.8780012  41.4720012 107.4704997  -4.0190012
  40.4010012 107.4574997  -5.0880012  41.1699292 107.7314111  -4.7886614
  43.8750012  96.3014997  -8.8830012  43.0130012  96.2144997  -9.2900012
  43.8520012  97.1574997  -8.4550012  43.7540330  96.4052765  -8.8808137
  48.5380012  96.0234997  -5.5080012  48.9580012  95.6084997  -4.7550012
  47.6050012  95.8454997  -5.3910012  48.4693644  95.9425900  -5.3890461
  51.8640012  99.7794997  -4.6550012  51.3500012  99.6534997  -3.8570012
  51.7090012 100.6914997  -4.8990012  51.7726852  99.8856132  -4.5787842
  52.6270012 104.6404997 -18.8930012  52.6690012 104.4174997 -19.8230012
  53.4760012 105.0394997 -18.7030012  52.7475396 104.6639155 -18.9946373
  48.1990012  98.5164997 -18.2230012  47.9460012  98.5354997 -17.3000012
  47.9430012  97.6444997 -18.5240012  48.1297790  98.4012437 -18.1373737
  43.9660012 101.2674997  -7.7880012  43.3240012 101.2264997  -7.0790012
  44.0030012 102.1934997  -8.0250012  43.8831324 101.3871559  -7.7230176
  43.9630012 101.4884997 -12.8760012  43.0700012 101.1474997 -12.9340012
  44.4130012 101.1114997 -13.6310012  43.9017305 101.3908484 -12.9860823
  49.4980012 101.9044997 -14.0590012  49.0890012 102.7194997 -14.3500012
  50.2190012 101.7644997 -14.6730012  49.5394537 101.9972018 -14.1818658
  48.6000012 102.0794997  -2.5710012  48.0380012 101.3754997  -2.2500012
  49.4270012 101.9594997  -2.1030012  48.6347095 101.9667883  -2.4637670
  50.5030012 101.3504997 -11.2450012  50.3080012 101.9554997 -11.9600012
  50.6840012 100.5164997 -11.6790012  50.5007614 101.3206300 -11.4015595
  41.7160012 101.5874997  -5.9210012  41.6780012 101.9874997  -5.0520012
  41.2250012 100.7704997  -5.8300012  41.6444684 101.5318069  -5.7898941
  45.0820012  98.9614997 -19.1220012  44.6510012  98.5164997 -18.3920012
  44.3640012  99.3334997 -19.6340012  44.9259438  98.9508940 -19.0913201
  38.3240012  98.7034997 -12.0700012  38.9550012  98.6744997 -11.3510012
  38.7730012  98.2784997 -12.8000012  38.4710774  98.6420492 -12.0703447
  39.5980012  99.4494997 -16.6460012  40.0720012 100.0404997 -17.2310012
  38.8810012  99.9804997 -16.2990012  39.5659341  99.6020867 -16.6791164
  49.7670012 102.9884997  -6.5730012  50.0900012 102.3574997  -7.2160012
  49.3270012 102.4534997  -5.9130012  49.7516895 102.8298441  -6.5717150
  46.5440012  98.9154997 -11.7890012  45.6330012  98.9724997 -11.5010012
  47.0500012  98.8554997 -10.9790012  46.4875413  98.9151985 -11.6399378
  41.3730012 100.5444997 -12.9630012  40.4830012 100.6444997 -13.3030012
  41.6690012  99.7024997 -13.3090012  41.2912823 100.4443546 -13.0562787
  45.0260012 100.5444997 -15.3060012  45.9570012 100.6734997 -15.1280012
  44.8110012 101.2144997 -15.9560012  45.1244247 100.6526565 -15.3694253
  50.9490012  98.1504997  -8.5250012  50.2730012  98.2814997  -7.8610012
  50.4640012  97.9954997  -9.3350012  50.7907145  98.1474905  -8.5435483
  43.7000012 101.7394997 -17.7390012  43.1570012 101.3594997 -18.4310012
  44.5330012 101.9334997 -18.1680012  43.7384399 101.7138124 -17.8915474
  54.2370012 113.8224997  -2.2480012  54.4370012 114.2464997  -3.0830012
  54.8920012 114.1654997  -1.6410012  54.3530051 113.9269648  -2.2802164
  41.8350012 106.2964997  -2.6400012  42.5670012 106.5504997  -2.0790012
  41.0550012 106.5004997  -2.1250012  41.8298232 106.3589177  -2.4934240
  47.8640012 101.7034997  -9.9020012  48.4290012 101.1564997 -10.4490012
  47.7170012 101.1814997  -9.1140012  47.9212918 101.5582024  -9.8701546
  42.8660012  97.8394997 -13.4840012  42.5490012  96.9374997 -13.5190012
  43.6480012  97.8414997 -14.0370012  42.9282284  97.7161628 -13.5635217
  46.4910012 100.0914997  -7.4880012  45.6550012 100.5454997  -7.3780012
  47.0150012 100.3674997  -6.7360012  46.4474414 100.1909376  -7.3712864
  47.0350012 106.3044997 -15.8040012  46.2900012 105.7974997 -16.1260012
  46.9010012 106.3534997 -14.8570012  46.9148776 106.2416940 -15.7201353
  54.1850012 105.4374997  -7.0170012  54.8270012 105.8944997  -7.5610012
  53.3550012 105.5504997  -7.4800012  54.1605963 105.5152704  -7.1539823
  50.9330012  99.1184997 -17.6040012  49.9940012  99.2304997 -17.7560012
  51.2300012  99.9754997 -17.2980012  50.8447666  99.2496443 -17.5834232
  48.5540012 106.4884997  -4.5670012  48.2090012 106.1074997  -3.7600012
  48.3540012 107.4224997  -4.4950012  48.4798061 106.5625228  -4.4469039
  51.6510012 100.9854997 -15.9440012  52.5430012 100.8484997 -15.6250012
  51.7080012 101.7764997 -16.4800012  51.7806285 101.0736660 -15.9728309
  42.1600012 105.5994997 -10.0340012  42.9050012 105.5974997 -10.6350012
  42.2380012 104.7764997  -9.5520012  42.2725518 105.4879315 -10.0511071
  49.1610012 107.7634997 -16.7780012  48.8650012 108.5894997 -16.3970012
  48.4580012 107.1434997 -16.5820012  49.0254914 107.7928199 -16.6993557
  39.1680012 104.0604997  -4.7190012  39.3910012 103.6424997  -3.8870012
  38.5660012 103.4474997  -5.1420012  39.1171759 103.9204668  -4.6622978
  46.1840012 103.5774997  -2.5060012  45.8880012 103.4114997  -3.4010012
  47.1160012 103.3574997  -2.5170012  46.2694166 103.5250640  -2.6299464
  50.8050012 108.9504997  -4.6160012  49.9040012 109.1334997  -4.8840012
  50.8390012 109.2094997  -3.6950012  50.6863041 109.0105512  -4.5281803
  56.5360012 101.1954997 -16.2490012  55.9820012 100.7994997 -16.9210012
  56.6360012 102.1054997 -16.5270012  56.4737059 101.2643586 -16.3785599
  56.4990012 106.9954997  -3.4120012  55.6480012 107.2334997  -3.7790012
  57.0900012 106.9784997  -4.1650012  56.4622487 107.0258258  -3.5641107
  54.8310012 109.9814997 -15.7840012  54.4580012 109.1554997 -15.4750012
  55.1090012 109.7984997 -16.6810012  54.8175630 109.8437303 -15.8630374
  51.9920012 104.7894997  -8.7630012  51.0630012 104.5574997  -8.7900012
  52.4430012 104.0124997  -9.0930012  51.9259216 104.6527238  -8.8113083
  44.5350012 109.1174997 -12.6300012  45.0620012 109.8904997 -12.8300012
  43.6550012 109.3424997 -12.9310012  44.4881773 109.2538005 -12.6980990
  40.2900012 103.9794997 -18.0430012  40.9060012 104.6064997 -17.6630012
  39.4280012 104.2954997 -17.7710012  40.2577698 104.1079430 -17.9542817
  45.9620012 106.7804997 -13.0530012  45.7210012 107.7054997 -13.0120012
  45.2210012 106.3214997 -12.6570012  45.8288409 106.8451421 -12.9938623
  46.4770012 110.9294997  -6.7380012  46.8390012 111.7844997  -6.9720012
  47.0080012 110.6374997  -5.9980012  46.5984473 111.0071060  -6.6699145
  44.6450012 111.8024997 -13.5080012  43.6950012 111.9074997 -13.4570012
  44.9970012 112.6224997 -13.1630012  44.5624203 111.9278314 -13.4543350
  50.0210012 107.0284997  -7.0380012  49.5950012 106.8014997  -6.2110012
  50.6010012 106.2904997  -7.2200012  50.0411868 106.8975299  -6.9494170
  52.2240012 107.9574997 -17.9640012  52.5770012 107.5774997 -17.1590012
  51.2750012 107.8644997 -17.8770012  52.1440441 107.8929596 -17.8421441
  52.6790012 111.5804997  -4.5680012  52.0780012 111.0254997  -5.0640012
  52.9610012 112.2474997  -5.1940012  52.6348519 111.5946841  -4.7205048
  56.7270012 112.4374997 -17.7630012  57.4710012 113.0234997 -17.9030012
  56.0330012 113.0054997 -17.4290012  56.7350292 112.5945582 -17.7370039
  40.8020012  98.8134997  -5.1610012  39.9090012  99.1524997  -5.2290012
  40.7030012  97.9584997  -4.7430012  40.6664164  98.7442588  -5.1137765
  53.0900012 106.6304997 -15.7370012  52.8120012 105.9024997 -15.1810012
  54.0170012 106.7494997 -15.5320012  53.1773124 106.5468802 -15.6331155
  40.4530012 110.6184997  -6.7260012  40.6700012 109.6864997  -6.7570012
  40.6990012 110.8924997  -5.8430012  40.5159549 110.5280636  -6.6108237
  46.3150012 109.0694997 -19.5170012  46.5540012 108.3214997 -20.0640012
  46.0460012 108.6814997 -18.6840012  46.3113675 108.9146638 -19.4793135
  45.2520012 108.6394997 -17.0600012  45.3980012 108.1194997 -16.2700012
  45.2490012 109.5464997 -16.7540012  45.2715989 108.6908853 -16.9103912
  41.7050012 105.8924997 -16.5500012  41.0190012 106.2444997 -15.9830012
  42.2270012 106.6554997 -16.7970012  41.6816852 106.0438578 -16.5057882
  49.5360012  98.5544997  -6.2710012  50.2350012  98.6284997  -5.6210012
  49.1550012  97.6904997  -6.1170012  49.5801767  98.4477624  -6.1611678
  50.3210012  98.2064997 -15.1740012  50.5410012  98.6784997 -15.9770012
  50.8790012  98.6014997 -14.5040012  50.4264968  98.3244285 -15.1932669
  47.9890012 110.3374997 -16.3110012  47.1730012 110.8344997 -16.2590012
  48.5190012 110.8124997 -16.9510012  47.9489161 110.4697722 -16.3904044
  47.5210012  99.9344997 -14.3390012  48.3330012 100.4394997 -14.2930012
  47.2760012  99.7894997 -13.4250012  47.5990520  99.9840375 -14.2091483
  48.0560012 100.9204997  -5.1540012  48.1750012 101.4944997  -4.3970012
  48.7120012 100.2324997  -5.0400012  48.1609757 100.9061079  -5.0349175
  48.4040012  97.0154997 -13.4010012  48.0580012  97.6334997 -12.7560012
  49.0630012  97.5164997 -13.8820012  48.4457826  97.1675802 -13.3779029
  45.3280012 111.3814997 -16.3290012  45.4880012 112.1804997 -16.8300012
  45.1300012 111.6874997 -15.4440012  45.3231649 111.5324469 -16.2780185
  44.0620012  98.0784997 -16.7140012  43.9790012  98.9674997 -16.3670012
  44.9520012  97.8134997 -16.4820012  44.1709469  98.1641430 -16.6352374
  54.2610012  98.8274997  -4.3190012  53.3440012  99.0904997  -4.4070012
  54.5960012  98.8244997  -5.2160012  54.1809900  98.8630224  -4.4522081
  52.8630012 102.5784997 -10.2240012  52.0650012 102.1634997 -10.5520012
  53.3080012 101.8874997  -9.7330012  52.8139885 102.4283543 -10.2025111
  42.3210012 108.5064997 -17.6530012  42.9130012 109.2054997 -17.3770012
  42.7800012 108.0734997 -18.3730012  42.4641142 108.5437049 -17.7125170
  40.6370012 101.1704997 -18.5370012  40.5920012 102.1094997 -18.3590012
  39.7490012 100.9344997 -18.8070012  40.5108574 101.2671892 -18.5491088
  53.9490012 111.8344997  -8.6010012  53.7940012 112.5124997  -9.2580012
  54.8820012 111.9064997  -8.3980012  54.0538500 111.9370170  -8.6634881
  41.4450012  95.9524997  -9.8640012  41.2160012  96.0114997 -10.7920012
  41.0020012  95.1604997  -9.5580012  41.3538530  95.8535753  -9.9495214
  40.3750012 109.8924997 -13.7040012  39.5430012 110.3654997 -13.6760012
  40.9210012 110.4024997 -14.3020012  40.3349739 110.0261871 -13.7810284
  39.6630012 112.5054997  -2.3740012  40.2040012 112.2884997  -1.6140012
  39.1820012 111.6994997  -2.5630012  39.6719345 112.3669514  -2.2956924
  44.2610012 111.4244997  -0.7530012  45.0280012 110.9654997  -0.4120012
  44.2390012 111.1984997  -1.6830012  44.3631434 111.3310409  -0.8319957
  48.3530012 110.9324997 -19.3780012  47.7090012 110.3014997 -19.0570012
  49.1150012 110.4014997 -19.6100012  48.3678077 110.7742920 -19.3653989
  50.8380012 109.8044997  -2.0240012  50.4870012 108.9484997  -1.7810012
  51.5640012 109.9474997  -1.4170012  50.8880769 109.7065636  -1.9086381
  52.9570012 110.7494997 -19.1440012  53.2400012 109.9554997 -18.6920012
  53.6970012 110.9824997 -19.7050012  53.0957486 110.6722803 -19.1579302
  39.5700012 106.3154997  -1.4190012  39.7140012 105.4134997  -1.7060012
  38.7980012 106.6014997  -1.9070012  39.4853322 106.2308261  -1.5242119
  43.9120012 106.6594997 -19.2870012  43.9760012 105.8654997 -18.7560012
  44.5650012 106.5404997 -19.9770012  44.0090241 106.5347148 -19.3075683
  46.2260012 106.2854997  -1.9870012  45.8970012 106.5564997  -2.8440012
  46.3780012 105.3444997  -2.0740012  46.2014809 106.1953862  -2.1161756
  51.9600012 106.2014997  -4.6030012  52.7060012 106.7894997  -4.7230012
  51.2030012 106.7834997  -4.5400012  51.9597554 106.3607011  -4.6109093
  40.4030012 103.5154997  -1.9990012  40.8110012 102.6584997  -2.1200012
  40.1430012 103.5304997  -1.0780012  40.4237568 103.4000807  -1.8910412
  45.0610012 104.6314997 -16.9810012  44.6010012 104.1474997 -16.2950012
  45.3160012 103.9634997 -17.6170012  45.0324902 104.4748731 -16.9730666
  44.3500012 102.5244997  -4.6250012  43.7320012 103.1994997  -4.3450012
  44.6940012 102.8454997  -5.4580012  44.3119615 102.6602721  -4.6993419
  46.1320012 102.8744997 -18.7190012  45.9520012 102.7204997 -19.6460012
  47.0820012 102.9824997 -18.6740012  46.2357776 102.8680175 -18.8398157
  49.3700012 104.9964997  -1.3480012  50.3230012 105.0794997  -1.3750012
  49.2090012 104.2844997  -0.7280012  49.4786426 104.9116746  -1.2679421
  55.5220012 105.2294997 -19.2730012  55.2480012 104.8044997 -20.0860012
  55.5610012 106.1604997 -19.4900012  55.4897699 105.2972484 -19.4136390
  44.6890012  99.8794997  -3.5430012  44.8390012  99.1504997  -4.1450012
  44.6920012 100.6564997  -4.1020012  44.7099302  99.8847851  -3.7009308
  45.1020012  98.2494997  -6.0500012  45.6380012  98.7004997  -6.7020012
  44.2500012  98.1414997  -6.4730012  45.0602178  98.2966390  -6.1964244
  46.6840012 103.6884997  -5.8110012  47.4340012 103.5324997  -6.3840012
  46.3450012 104.5404997  -6.0860012  46.7408921 103.7822968  -5.9266439
  51.0990012 101.5034997  -0.7820012  51.2920012 100.5724997  -0.8940012
  51.9570012 101.9284997  -0.7920012  51.2413020 101.4336389  -0.7986639
  52.4160012 104.2924997  -2.7050012  52.1350012 105.0014997  -3.2820012
  53.3590012 104.2194997  -2.8560012  52.5049027 104.3797646  -2.8044449
  43.1680012 101.0774997  -1.6310012  42.4010012 100.5454997  -1.8410012
  43.8470012 100.7674997  -2.2310012  43.1547022 100.9627506  -1.7408352
  45.9080012  95.7054997  -5.6190012  45.8090012  96.6524997  -5.7240012
  45.1650012  95.3334997  -6.0940012  45.7940564  95.7845902  -5.6975440
  47.1720012 100.0274997  -2.0550012  46.9360012  99.8074997  -1.1530012
  46.3880012  99.8204997  -2.5650012  47.0338628  99.9694760  -2.0006068
  49.8870012  99.1544997  -2.9790012  48.9400012  99.1864997  -2.8470012
  50.2000012  98.5294997  -2.3260012  49.7995475  99.0743207  -2.8725545
  51.5210012  97.7884997  -0.9740012  51.4250012  96.8364997  -0.9800012
  51.2000012  98.0574997  -0.1140012  51.4644070  97.6944035  -0.8584559
  41.3480012  98.9984997  -1.9270012  41.5600012  98.2914997  -2.5370012
  41.2370012  98.5604997  -1.0830012  41.3619721  98.8427084  -1.8963157
  46.1290012  94.9994997  -2.9470012  46.8410012  94.3594997  -2.9610012
  46.0280012  95.2664997  -3.8610012  46.2127939  94.9479938  -3.0724350
  46.4830012  96.6824997  -0.8940012  46.3510012  96.2064997  -1.7140012
  45.8840012  97.4264997  -0.9490012  46.3839071  96.7179618  -1.0137114
  46.0290012 113.5654997 -17.7170012  46.9620012 113.7234997 -17.5740012
  45.7650012 114.2404997 -18.3420012  46.1209510 113.6783611 -17.7819259
  39.5980012 108.2014997 -18.2350012  40.5120012 108.2804997 -17.9610012
  39.6050012 107.5144997 -18.9010012  39.7241131 108.1193961 -18.2875607
  38.2470012 113.5944997 -13.1570012  37.6000012 113.1324997 -13.6900012
  38.6010012 112.9224997 -12.5750012  38.2063849 113.4404723 -13.1512041
  39.1170012 111.6754997 -11.3530012  38.7820012 110.7954997 -11.1810012
  39.3390012 112.0204997 -10.4880012  39.1011783 111.6017501 -11.2125792
  56.6650012 112.4844997  -8.3720012  56.6440012 112.6694997  -7.4330012
  57.3560012 113.0534997  -8.7130012  56.7554618 112.5866606  -8.2896136
  56.2290012 112.0524997  -5.4500012  55.7410012 111.3164997  -5.8210012
  56.7780012 111.6584997  -4.7720012  56.2364872 111.8986249  -5.4090840
  54.6790012 107.8414997  -0.8120012  53.8130012 107.7364997  -0.4180012
  55.0560012 108.6004997  -0.3660012  54.6113308 107.9296900  -0.6977607
  55.9800012 106.0984997 -15.2980012  56.8300012 106.5194997 -15.1710012
  55.9860012 105.3584997 -14.6910012  56.0971372 106.0560803 -15.1985656
  56.3750012 104.1514997 -13.4740012  55.6480012 103.6724997 -13.0770012
  56.9560012 104.3574997 -12.7420012  56.3539375 104.1137090 -13.3205871
  56.1340012 106.9364997  -8.5270012  56.9670012 106.5584997  -8.8070012
  56.2460012 107.8794997  -8.6460012  56.2632647 107.0122218  -8.5814513
  54.6200012 109.8144997  -6.2200012  53.9730012 110.1394997  -5.5940012
  54.1030012 109.3744997  -6.8940012  54.4614029 109.7995004  -6.2254173
  56.6430012 104.0524997 -17.0830012  56.1210012 104.4094997 -17.8020012
  56.6100012 104.7274997 -16.4050012  56.5671634 104.1925413 -17.0896855
  54.9920012 101.2924997 -18.5320012  55.0880012 101.9594997 -19.2130012
  54.8520012 100.4764997 -19.0140012  54.9862135 101.2734500 -18.6901509
  54.1610012 102.6724997 -12.9110012  54.0110012 101.7274997 -12.9320012
  53.8080012 102.9534997 -12.0680012  54.0926625 102.5810441 -12.7997654
  39.1970012 104.7504997  -8.9010012  39.3810012 104.6684997  -9.8370012
  40.0460012 104.6264997  -8.4770012  39.3370139 104.7225003  -8.9718545
  55.0180012 104.6424997  -3.2730012  55.6010012 103.9084997  -3.0810012
  55.5820012 105.4144997  -3.2260012  55.1739769 104.6464227  -3.2403841
  56.5140012 102.5454997  -2.5880012  55.6510012 102.1664997  -2.7540012
  57.1190012 101.8064997  -2.6620012  56.4775979 102.3938023  -2.6207183
  54.2390012  98.7004997 -19.4150012  54.8500012  98.3294997 -18.7780012
  53.4030012  98.2794997 -19.2190012  54.2095032  98.5927554 -19.3012965
  53.8720012 100.2554997 -14.4490012  54.1520012  99.3484997 -14.3250012
  54.6310012 100.6894997 -14.8380012  54.0129277 100.1900942 -14.4846318
  54.4840012 100.8364997  -9.0130012  55.4170012 101.0484997  -9.0470012
  54.2490012 100.9384997  -8.0910012  54.5798036 100.8792769  -8.8930024
  54.5130012 101.5734997  -6.2370012  53.6700012 101.8414997  -5.8710012
  54.9550012 102.3954997  -6.4480012  54.4574158 101.7213291  -6.2154509
  38.7940012 100.0214997  -2.7600012  39.7140012  99.8994997  -2.5240012
  38.3450012  99.2714997  -2.3710012  38.8591580  99.9033727  -2.6750994
  56.7960012  95.5534997  -0.8840012  57.1460012  94.8994997  -1.4890012
  56.9430012  96.3904997  -1.3230012  56.8638419  95.5771591  -1.0262882
  54.4850012  97.5184997 -14.4010012  54.6680012  97.0694997 -13.5750012
  53.8860012  96.9334997 -14.8640012  54.4290202  97.3779975 -14.3506725
  40.0150012  98.3334997  -9.8690012  40.4610012  97.5414997  -9.5670012
  40.4820012  99.0494997  -9.4380012  40.1390172  98.3220624  -9.7695180
  38.3190012 101.3324997  -8.8000012  38.8110012 101.1114997  -9.5910012
  38.6820012 102.1734997  -8.5190012  38.4353126 101.4158357  -8.8702469
  56.3160012  97.6624997  -2.5340012  55.3980012  97.9334997  -2.5700012
  56.4390012  97.1274997  -3.3190012  56.2071066  97.6272892  -2.6449513
  56.3520012  97.5854997 -17.8730012  56.7640012  96.8644997 -18.3480012
  57.0340012  98.2554997 -17.8140012  56.5005885  97.5772368 -17.9301085
  38.6330012  97.5904997 -14.7460012  37.7080012  97.7994997 -14.8750012
  39.0870012  98.0744997 -15.4350012  38.5677368  97.6845993 -14.8568774
  53.4040012 112.5744997 -12.8000012  54.0560012 112.2274997 -13.4080012
  53.9140012 113.0634997 -12.1540012  53.5622637 112.5930597 -12.7959764
  38.5970012  96.3284997  -6.4010012  37.9320012  96.0824997  -5.7580012
  38.1540012  96.9504997  -6.9790012  38.4460956  96.3788632  -6.3910648
  40.7890012 109.5034997  -2.2570012  39.9680012 109.6784997  -2.7170012
  40.5360012 109.4304997  -1.3360012  40.6426164 109.5175622  -2.1955077
  43.7430012 110.4784997  -5.9980012  43.3180012 111.2874997  -6.2810012
  44.6470012 110.5634997  -6.3000012  43.8070271 110.6008469  -6.0776224
  48.0540012 111.8774997  -3.0390012  48.2390012 111.5434997  -2.1610012
  48.9000012 112.1864997  -3.3610012  48.1937539 111.8736047  -2.9624395
  50.3990012 113.1634997  -3.7950012  51.0760012 112.5304997  -4.0350012
  50.7210012 113.5644997  -2.9880012  50.5351637 113.1311154  -3.7187207
  55.3160012  95.7524997  -4.7150012  54.5040012  96.0774997  -5.1030012
  55.5490012  94.9924997  -5.2480012  55.2363423  95.6942436  -4.8401747
  41.1450012 113.7344997  -5.9510012  40.4240012 114.1744997  -6.4020012
  40.7790012 113.4834997  -5.1020012  40.9969804 113.7607698  -5.8980160
  43.6120012 113.3344997  -6.9210012  42.7470012 113.4064997  -6.5170012
  43.5570012 113.8814997  -7.7050012  43.4862085 113.4182685  -6.9716638
  48.3220012 113.2224997  -7.7460012  47.8660012 113.7514997  -8.4000012
  48.4850012 113.8254997  -7.0200012  48.2815585 113.3764468  -7.7374938
  50.6500012 112.1004997  -6.8010012  49.7450012 112.2654997  -7.0660012
  51.0790012 112.9534997  -6.8660012  50.5840799 112.2384483  -6.8460818
  53.2540012 113.6704997  -6.5060012  53.0720012 114.5864997  -6.7160012
  53.4310012 113.2604997  -7.3520012  53.2530210 113.7404822  -6.6492115
  40.5590012 112.3574997  -9.0410012  40.5410012 111.9324997  -8.1830012
  41.3640012 112.0394997  -9.4490012  40.6653875 112.2563812  -8.9788345
  42.7010012 111.0674997 -10.3860012  42.4820012 110.1514997 -10.2160012
  43.5250012 111.2074997  -9.9200012  42.7824420 110.9610520 -10.2997226
  45.2380012 111.5374997  -9.5370012  45.4510012 110.6494997  -9.8240012
  45.3020012 111.5034997  -8.5830012  45.2758231 111.4113102  -9.4472603
  48.7460012  97.2014997 -10.3930012  48.0720012  96.5724997 -10.1370012
  49.3100012  96.7174997 -10.9960012  48.7299230  97.0498744 -10.4394660
  53.8890012  95.3094997 -10.2800012  54.4930012  95.8564997 -10.7820012
  53.0190012  95.6284997 -10.5200012  53.8541241  95.4275806 -10.3812346
  55.6160012  96.4474997 -11.9470012  56.2280012  95.9334997 -12.4730012
  55.9980012  97.3254997 -11.9230012  55.7514540  96.4957140 -12.0158170
  41.0730012  95.8354997 -12.5710012  40.2960012  95.6014997 -13.0780012
  41.6030012  95.0384997 -12.5620012  41.0382330  95.6956988 -12.6392258
  39.9090012  95.6334997 -16.7670012  40.3480012  96.2444997 -17.3590012
  39.2760012  96.1714997 -16.2930012  39.8834514  95.7899257 -16.7839070
  45.6520012  95.7624997 -12.7570012  46.5270012  96.1504997 -12.7870012
  45.5160012  95.5474997 -11.8350012  45.7533695  95.7865184 -12.6363560
  51.2090012  95.7924997 -11.1080012  51.2850012  95.8874997 -12.0580012
  50.9340012  94.8844997 -10.9790012  51.1822321  95.6827867 -11.2204921
  52.5620012  95.8184997 -15.4160012  51.8600012  96.4334997 -15.6250012
  52.1180012  94.9804997 -15.2850012  52.4056330  95.7895783 -15.4269672
  39.8100012 111.5814997 -15.8690012  39.1250012 111.5434997 -16.5370012
  39.8140012 112.4944997 -15.5810012  39.7168193 111.6997016 -15.9214716
  41.7700012  97.5494997 -18.3250012  42.2620012  96.9194997 -18.8520012
  42.3940012  97.8454997 -17.6610012  41.9215446  97.5033199 -18.3074020
  46.7960012  97.8424997 -15.8680012  46.9740012  97.1964997 -15.1850012
  46.7430012  98.6764997 -15.4000012  46.8131829  97.8667985 -15.7114060
  48.6750012 112.7914997 -17.4720012  49.5410012 113.1574997 -17.6500012
  48.4280012 112.3514997 -18.2860012  48.7602392 112.7821756 -17.6063711
  55.3840012 112.3544997 -14.7930012  55.1890012 111.6064997 -15.3580012
  55.3450012 113.1124997 -15.3760012  55.3520380 112.3546099 -14.9491616
  41.0310012  96.3494997  -3.0530012  40.6650012  95.5844997  -2.6100012
  41.9440012  96.3784997  -2.7660012  41.1042790  96.2487224  -2.9535930
  43.0040012  95.7004997  -1.5170012  43.9020012  95.4264997  -1.7020012
  42.6170012  94.9574997  -1.0530012  43.0746612  95.5625914  -1.4796357
  41.6280012 112.5014997 -18.8440012  41.3610012 112.7884997 -17.9710012
  42.4000012 111.9554997 -18.6920012  41.6957488 112.4670294 -18.7038950
  51.4250012  95.0324997  -1.3350012  51.5020012  94.6064997  -0.4810012
  52.3190012  95.0464997  -1.6780012  51.5563428  94.9760879  -1.2644690
  54.6010012 111.1054997  -2.6430012  53.8190012 110.9194997  -3.1620012
  54.5290012 112.0344997  -2.4250012  54.4841777 111.2056492  -2.6845952
  69.0070012 104.9914997 -12.6120012  69.0960012 105.9354997 -12.7440012
  68.3690012 104.7164997 -13.2700012  68.9329081 105.0834830 -12.7190386
  67.9400012 104.2464997  -9.1930012  67.9020012 103.6004997  -8.4880012
  67.6180012 103.7804997  -9.9640012  67.8912333 104.0949408  -9.2007022
  60.3090012 103.8614997  -7.6000012  60.3500012 103.2354997  -6.8770012
  61.0120012 104.4854997  -7.4180012  60.4096363 103.8601196  -7.4763956
  71.6460012 107.1854997 -10.8920012  71.2060012 106.4654997 -10.4410012
  71.6330012 107.9064997 -10.2620012  71.5840226 107.1843731 -10.7451506
  61.2320012 108.3114997  -9.0650012  60.8630012 107.5094997  -9.4350012
  62.1730012 108.1424997  -9.0190012  61.3087289 108.1790153  -9.1093684
  57.8420012 101.9714997 -13.6720012  57.3950012 102.8174997 -13.6910012
  57.2810012 101.3914997 -14.1880012  57.7049900 102.0089916 -13.7443199
  58.5530012 104.1334997 -11.5460012  58.7660012 103.3634997 -11.0190012
  59.2910012 104.2224997 -12.1500012  58.6818496 104.0401394 -11.5554700
  68.7580012 112.2904997 -10.6790012  69.3780012 111.6134997 -10.9530012
  68.5500012 112.0724997  -9.7710012  68.8146904 112.1683870 -10.5936635
  66.3300012 106.6794997  -8.7870012  66.6340012 105.9934997  -9.3820012
  67.0510012 106.7974997  -8.1690012  66.4690671 106.6016305  -8.7848184
  74.9930012  98.2804997  -7.9260012  75.0420012  98.8904997  -7.1900012
  75.4180012  98.7414997  -8.6490012  75.0571824  98.4263741  -7.9229795
  69.4710012 101.0734997  -8.4590012  69.6130012 100.1274997  -8.4390012
  69.3640012 101.2804997  -9.3880012  69.4759863 100.9719534  -8.5817661
  62.6250012  99.1744997 -11.1870012  62.6690012 100.0344997 -11.6050012
  62.1680012  98.6224997 -11.8210012  62.5692185  99.2175799 -11.3299701
  70.3480012  99.3054997 -12.7860012  70.9940012  98.9764997 -12.1610012
  70.8580012  99.8234997 -13.4090012  70.5054264  99.3304611 -12.7846138
  59.2460012 101.5714997 -10.4250012  59.8990012 101.0214997  -9.9930012
  59.2700012 101.2974997 -11.3420012  59.3386683 101.4591466 -10.4897877
  64.4020012 103.1214997 -11.2100012  65.0180012 102.5954997 -10.7000012
  63.8160012 102.4814997 -11.6130012  64.4070810 102.9629208 -11.1946827
  75.3840012  99.7584997  -5.6900012  74.6960012 100.4164997  -5.7860012
  75.4000012  99.5614997  -4.7540012  75.2918525  99.8220462  -5.5765192
  61.4360012  98.0924997  -7.1130012  61.2170012  98.6224997  -7.8790012
  60.7680012  98.3194997  -6.4660012  61.3157600  98.1956906  -7.1303621
  68.8050012 107.5924997 -13.5690012  68.5090012 107.2704997 -14.4200012
  68.4800012 108.4924997 -13.5280012  68.7206371 107.6700215 -13.6798199
  64.0050012 105.7684997  -6.8260012  63.2650012 106.3664997  -6.7220012
  64.7190012 106.3224997  -7.1410012  64.0002237 105.9252831  -6.8543535
  72.1120012  98.5964997 -10.8060012  71.8960012  97.8304997 -10.2730012
  72.7670012  99.0684997 -10.2930012  72.1710632  98.5555889 -10.6637139
  61.0290012  99.9844997  -9.1610012  61.6430012 100.6174997  -8.7870012
  61.5410012  99.5124997  -9.8170012  61.1822296 100.0072370  -9.1985748
  62.4120012 107.7324997  -6.0380012  62.4070012 108.6124997  -6.4160012
  61.5590012 107.6494997  -5.6130012  62.2959464 107.8416117  -6.0322093
  58.5330012 107.4034997 -15.2560012  58.2610012 107.6324997 -16.1450012
  58.5790012 108.2414997 -14.7960012  58.5020094 107.5481213 -15.3154303
  72.1580012 109.0254997  -8.5440012  71.2170012 109.0834997  -8.3820012
  72.4350012 109.9314997  -8.6810012  72.0664679 109.1559443  -8.5403185
  72.4590012  97.3114997  -7.1260012  71.7230012  97.9224997  -7.1640012
  73.1420012  97.7264997  -7.6530012  72.4506541  97.4511374  -7.2024168
  65.4620012  95.3984997  -9.6600012  65.3450012  94.4494997  -9.7150012
  64.6070012  95.7304997  -9.3870012  65.3303733  95.3135409  -9.6306103
  70.4100012 110.8064997 -11.9180012  70.8360012 110.0994997 -12.4030012
  70.7270012 111.6074997 -12.3350012  70.5111019 110.8180994 -12.0406870
  71.5700012 108.7074997 -13.4100012  71.3120012 108.0174997 -14.0210012
  71.6410012 108.2644997 -12.5640012  71.5442856 108.5532124 -13.3793115
  73.2560012 107.2734997  -4.9320012  73.3960012 106.6824997  -5.6720012
  73.4230012 108.1464997  -5.2890012  73.2976778 107.3106426  -5.0813035
  67.7290012 104.2354997 -15.1600012  67.0170012 104.7704997 -15.5120012
  68.4200012 104.2914997 -15.8200012  67.7250132 104.3162543 -15.2973711
  67.7820012 102.6934997 -18.1210012  68.4830012 102.7154997 -17.4700012
  68.0850012 102.0654997 -18.7770012  67.9187830 102.6116566 -18.1206289
  75.0980012 103.6134997  -6.8660012  74.4450012 104.3084997  -6.7770012
  75.5630012 103.8234997  -7.6760012  75.0715390 103.7369425  -6.9633117
  71.1340012 104.4454997 -14.2080012  70.4020012 104.6734997 -13.6350012
  71.5820012 103.7314997 -13.7530012  71.0943095 104.3802571 -14.0680881
  71.0320012 102.6194997  -5.1410012  71.1120012 103.3824997  -4.5690012
  70.4300012 102.8984997  -5.8310012  70.9615756 102.7617134  -5.1559411
  62.7800012 105.0754997 -12.3260012  62.4490012 104.7054997 -13.1440012
  63.3680012 104.4054997 -11.9790012  62.8141873 104.9341156 -12.3911898
  64.1460012 108.5034997  -9.6440012  64.0520012 107.9254997 -10.4010012
  64.8760012 108.1324997  -9.1480012  64.2317981 108.3742390  -9.6805835
  63.1460012 103.8444997  -8.6920012  63.7120012 103.9654997  -9.4550012
  63.4650012 104.4814997  -8.0530012  63.2665786 103.9471884  -8.7099960
  69.4550012 109.3474997  -7.9580012  69.2150012 110.0094997  -7.3100012
  69.2570012 108.5134997  -7.5330012  69.3953808 109.3253134  -7.8118476
  64.0260012 108.2434997  -3.9750012  63.7150012 109.0254997  -3.5200012
  63.3760012 108.0904997  -4.6610012  63.8955558 108.3299105  -4.0054129
  70.0050012 103.6074997 -16.5230012  70.5850012 103.7574997 -15.7760012
  70.4190012 104.0784997 -17.2460012  70.1402830 103.6916841 -16.5185866
  60.9460012 104.4414997  -4.7460012  61.0170012 105.0924997  -4.0480012
  60.0560012 104.5444997  -5.0810012  60.8353117 104.5445936  -4.6957300
  67.7320012 110.3444997 -13.0880012  68.2060012 110.6394997 -12.3100012
  67.1690012 111.0824997 -13.3210012  67.7207653 110.4846932 -13.0129864
  62.2660012 110.3154997  -3.2120012  62.2730012 110.1794997  -4.1590012
  61.3500012 110.1974997  -2.9600012  62.1431714 110.2809430  -3.3075334
  73.7040012  95.3574997 -16.7100012  72.8040012  95.4964997 -16.4150012
  73.9560012  96.1884997 -17.1120012  73.6148702  95.4889074 -16.7239795
  61.7700012 104.1454997 -14.7360012  61.4780012 104.9134997 -15.2270012
  61.0960012 103.4854997 -14.8990012  61.6389081 104.1614406 -14.8252660
  74.8930012 109.7234997 -18.3340012  74.9670012 110.6624997 -18.1630012
  75.7990012 109.4184997 -18.3900012  75.0255100 109.8106722 -18.3181881
  57.8630012 106.5084997  -5.9210012  57.3620012 106.4804997  -6.7360012
  57.8680012 105.6024997  -5.6120012  57.7951526 106.3822278  -5.9907128
  57.6130012 109.2884997  -9.0370012  58.5590012 109.1444997  -9.0560012
  57.5010012 110.0724997  -8.5000012  57.7272727 109.3748046  -8.9669928
  75.8110012 109.9544997  -3.3550012  75.7620012 108.9994997  -3.3920012
  74.9840012 110.2224997  -2.9540012  75.6924940 109.8598998  -3.3058625
  66.7900012 109.5284997  -4.4790012  66.8770012 110.3544997  -4.0040012
  65.9260012 109.1984997  -4.2300012  66.6851964 109.5969878  -4.3803451
  67.2040012 113.3004997 -14.6730012  67.1290012 113.1794997 -15.6190012
  67.2370012 114.2504997 -14.5540012  67.1981848 113.4122500 -14.7865166
  60.8570012 112.0894997 -12.8920012  61.0100012 111.7414997 -12.0130012
  60.0070012 111.7334997 -13.1470012  60.7628962 111.9936650 -12.8061660
  70.3060012 112.4544997 -17.6710012  70.6810012 111.7104997 -18.1410012
  70.3100012 112.1844997 -16.7520012  70.3578915 112.3161486 -17.6112176
  69.9750012 112.3804997 -14.9210012  69.0390012 112.4804997 -14.7430012
  70.2550012 111.6714997 -14.3430012  69.8848255 112.2982711 -14.8184609
  72.9630012 101.4474997  -2.8750012  72.5560012 101.9284997  -3.5960012
  73.0040012 100.5424997  -3.1830012  72.9128437 101.3909374  -3.0153317
  60.1120012 107.8314997  -4.8780012  60.3280012 107.4704997  -4.0190012
  59.2570012 107.4574997  -5.0880012  60.0259292 107.7314111  -4.7886614
  62.7310012  96.3014997  -8.8830012  61.8690012  96.2144997  -9.2900012
  62.7080012  97.1574997  -8.4550012  62.6100330  96.4052765  -8.8808137
  67.3940012  96.0234997  -5.5080012  67.8140012  95.6084997  -4.7550012
  66.4610012  95.8454997  -5.3910012  67.3253644  95.9425900  -5.3890461
  70.7200012  99.7794997  -4.6550012  70.2060012  99.6534997  -3.8570012
  70.5650012 100.6914997  -4.8990012  70.6286852  99.8856132  -4.5787842
  71.4830012 104.6404997 -18.8930012  71.5250012 104.4174997 -19.8230012
  72.3320012 105.0394997 -18.7030012  71.6035396 104.6639155 -18.9946373
  67.0550012  98.5164997 -18.2230012  66.8020012  98.5354997 -17.3000012
  66.7990012  97.6444997 -18.5240012  66.9857790  98.4012437 -18.1373737
  62.8220012 101.2674997  -7.7880012  62.1800012 101.2264997  -7.0790012
  62.8590012 102.1934997  -8.0250012  62.7391324 101.3871559  -7.7230176
  62.8190012 101.4884997 -12.8760012  61.9260012 101.1474997 -12.9340012
  63.2690012 101.1114997 -13.6310012  62.7577305 101.3908484 -12.9860823
  68.3540012 101.9044997 -14.0590012  67.9450012 102.7194997 -14.3500012
  69.0750012 101.7644997 -14.6730012  68.3954537 101.9972018 -14.1818658
  67.4560012 102.0794997  -2.5710012  66.8940012 101.3754997  -2.2500012
  68.2830012 101.9594997  -2.1030012  67.4907095 101.9667883  -2.4637670
  69.3590012 101.3504997 -11.2450012  69.1640012 101.9554997 -11.9600012
  69.5400012 100.5164997 -11.6790012  69.3567614 101.3206300 -11.4015595
  60.5720012 101.5874997  -5.9210012  60.5340012 101.9874997  -5.0520012
  60.0810012 100.7704997  -5.8300012  60.5004684 101.5318069  -5.7898941
  63.9380012  98.9614997 -19.1220012  63.5070012  98.5164997 -18.3920012
  63.2200012  99.3334997 -19.6340012  63.7819438  98.9508940 -19.0913201
  57.1800012  98.7034997 -12.0700012  57.8110012  98.6744997 -11.3510012
  57.6290012  98.2784997 -12.8000012  57.3270774  98.6420492 -12.0703447
  58.4540012  99.4494997 -16.6460012  58.9280012 100.0404997 -17.2310012
  57.7370012  99.9804997 -16.2990012  58.4219341  99.6020867 -16.6791164
  68.6230012 102.9884997  -6.5730012  68.9460012 102.3574997  -7.2160012
  68.1830012 102.4534997  -5.9130012  68.6076895 102.8298441  -6.5717150
  65.4000012  98.9154997 -11.7890012  64.4890012  98.9724997 -11.5010012
  65.9060012  98.8554997 -10.9790012  65.3435413  98.9151985 -11.6399378
  60.2290012 100.5444997 -12.9630012  59.3390012 100.6444997 -13.3030012
  60.5250012  99.7024997 -13.3090012  60.1472823 100.4443545 -13.0562787
  63.8820012 100.5444997 -15.3060012  64.8130012 100.6734997 -15.1280012
  63.6670012 101.2144997 -15.9560012  63.9804247 100.6526565 -15.3694253
  69.8050012  98.1504997  -8.5250012  69.1290012  98.2814997  -7.8610012
  69.3200012  97.9954997  -9.3350012  69.6467145  98.1474905  -8.5435483
  62.5560012 101.7394997 -17.7390012  62.0130012 101.3594997 -18.4310012
  63.3890012 101.9334997 -18.1680012  62.5944399 101.7138124 -17.8915474
  73.0930012 113.8224997  -2.2480012  73.2930012 114.2464997  -3.0830012
  73.7480012 114.1654997  -1.6410012  73.2090051 113.9269648  -2.2802164
  60.6910012 106.2964997  -2.6400012  61.4230012 106.5504997  -2.0790012
  59.9110012 106.5004997  -2.1250012  60.6858232 106.3589177  -2.4934240
  66.7200012 101.7034997  -9.9020012  67.2850012 101.1564997 -10.4490012
  66.5730012 101.1814997  -9.1140012  66.7772918 101.5582024  -9.8701546
  61.7220012  97.8394997 -13.4840012  61.4050012  96.9374997 -13.5190012
  62.5040012  97.8414997 -14.0370012  61.7842284  97.7161628 -13.5635217
  65.3470012 100.0914997  -7.4880012  64.5110012 100.5454997  -7.3780012
  65.8710012 100.3674997  -6.7360012  65.3034414 100.1909376  -7.3712864
  65.8910012 106.3044997 -15.8040012  65.1460012 105.7974997 -16.1260012
  65.7570012 106.3534997 -14.8570012  65.7708776 106.2416940 -15.7201353
  73.0410012 105.4374997  -7.0170012  73.6830012 105.8944997  -7.5610012
  72.2110012 105.5504997  -7.4800012  73.0165963 105.5152704  -7.1539823
  69.7890012  99.1184997 -17.6040012  68.8500012  99.2304997 -17.7560012
  70.0860012  99.9754997 -17.2980012  69.7007666  99.2496443 -17.5834232
  67.4100012 106.4884997  -4.5670012  67.0650012 106.1074997  -3.7600012
  67.2100012 107.4224997  -4.4950012  67.3358061 106.5625228  -4.4469039
  70.5070012 100.9854997 -15.9440012  71.3990012 100.8484997 -15.6250012
  70.5640012 101.7764997 -16.4800012  70.6366285 101.0736660 -15.9728310
  61.0160012 105.5994997 -10.0340012  61.7610012 105.5974997 -10.6350012
  61.0940012 104.7764997  -9.5520012  61.1285518 105.4879315 -10.0511071
  68.0170012 107.7634997 -16.7780012  67.7210012 108.5894997 -16.3970012
  67.3140012 107.1434997 -16.5820012  67.8814914 107.7928199 -16.6993557
  58.0240012 104.0604997  -4.7190012  58.2470012 103.6424997  -3.8870012
  57.4220012 103.4474997  -5.1420012  57.9731759 103.9204668  -4.6622978
  65.0400012 103.5774997  -2.5060012  64.7440012 103.4114997  -3.4010012
  65.9720012 103.3574997  -2.5170012  65.1254166 103.5250640  -2.6299464
  69.6610012 108.9504997  -4.6160012  68.7600012 109.1334997  -4.8840012
  69.6950012 109.2094997  -3.6950012  69.5423041 109.0105512  -4.5281803
  75.3920012 101.1954997 -16.2490012  74.8380012 100.7994997 -16.9210012
  75.4920012 102.1054997 -16.5270012  75.3297059 101.2643586 -16.3785599
  75.3550012 106.9954997  -3.4120012  74.5040012 107.2334997  -3.7790012
  75.9460012 106.9784997  -4.1650012  75.3182487 107.0258258  -3.5641107
  73.6870012 109.9814997 -15.7840012  73.3140012 109.1554997 -15.4750012
  73.9650012 109.7984997 -16.6810012  73.6735630 109.8437303 -15.8630374
  70.8480012 104.7894997  -8.7630012  69.9190012 104.5574997  -8.7900012
  71.2990012 104.0124997  -9.0930012  70.7819216 104.6527238  -8.8113083
  63.3910012 109.1174997 -12.6300012  63.9180012 109.8904997 -12.8300012
  62.5110012 109.3424997 -12.9310012  63.3441773 109.2538005 -12.6980990
  59.1460012 103.9794997 -18.0430012  59.7620012 104.6064997 -17.6630012
  58.2840012 104.2954997 -17.7710012  59.1137698 104.1079430 -17.9542817
  64.8180012 106.7804997 -13.0530012  64.5770012 107.7054997 -13.0120012
  64.0770012 106.3214997 -12.6570012  64.6848409 106.8451421 -12.9938623
  65.3330012 110.9294997  -6.7380012  65.6950012 111.7844997  -6.9720012
  65.8640012 110.6374997  -5.9980012  65.4544473 111.0071060  -6.6699145
  63.5010012 111.8024997 -13.5080012  62.5510012 111.9074997 -13.4570012
  63.8530012 112.6224997 -13.1630012  63.4184203 111.9278314 -13.4543350
  68.8770012 107.0284997  -7.0380012  68.4510012 106.8014997  -6.2110012
  69.4570012 106.2904997  -7.2200012  68.8971868 106.8975299  -6.9494170
  71.0800012 107.9574997 -17.9640012  71.4330012 107.5774997 -17.1590012
  70.1310012 107.8644997 -17.8770012  71.0000441 107.8929596 -17.8421441
  71.5350012 111.5804997  -4.5680012  70.9340012 111.0254997  -5.0640012
  71.8170012 112.2474997  -5.1940012  71.4908519 111.5946841  -4.7205048
  75.5830012 112.4374997 -17.7630012  76.3270012 113.0234997 -17.9030012
  74.8890012 113.0054997 -17.4290012  75.5910292 112.5945582 -17.7370039
  59.6580012  98.8134997  -5.1610012  58.7650012  99.1524997  -5.2290012
  59.5590012  97.9584997  -4.7430012  59.5224164  98.7442588  -5.1137765
  71.9460012 106.6304997 -15.7370012  71.6680012 105.9024997 -15.1810012
  72.8730012 106.7494997 -15.5320012  72.0333124 106.5468802 -15.6331155
  59.3090012 110.6184997  -6.7260012  59.5260012 109.6864997  -6.7570012
  59.5550012 110.8924997  -5.8430012  59.3719549 110.5280636  -6.6108237
  65.1710012 109.0694997 -19.5170012  65.4100012 108.3214997 -20.0640012
  64.9020012 108.6814997 -18.6840012  65.1673675 108.9146638 -19.4793135
  64.1080012 108.6394997 -17.0600012  64.2540012 108.1194997 -16.2700012
  64.1050012 109.5464997 -16.7540012  64.1275989 108.6908853 -16.9103912
  60.5610012 105.8924997 -16.5500012  59.8750012 106.2444997 -15.9830012
  61.0830012 106.6554997 -16.7970012  60.5376852 106.0438578 -16.5057882
  68.3920012  98.5544997  -6.2710012  69.0910012  98.6284997  -5.6210012
  68.0110012  97.6904997  -6.1170012  68.4361767  98.4477624  -6.1611678
  69.1770012  98.2064997 -15.1740012  69.3970012  98.6784997 -15.9770012
  69.7350012  98.6014997 -14.5040012  69.2824968  98.3244285 -15.1932669
  66.8450012 110.3374997 -16.3110012  66.0290012 110.8344997 -16.2590012
  67.3750012 110.8124997 -16.9510012  66.8049161 110.4697722 -16.3904044
  66.3770012  99.9344997 -14.3390012  67.1890012 100.4394997 -14.2930012
  66.1320012  99.7894997 -13.4250012  66.4550520  99.9840375 -14.2091483
  66.9120012 100.9204997  -5.1540012  67.0310012 101.4944997  -4.3970012
  67.5680012 100.2324997  -5.0400012  67.0169757 100.9061079  -5.0349175
  67.2600012  97.0154997 -13.4010012  66.9140012  97.6334997 -12.7560012
  67.9190012  97.5164997 -13.8820012  67.3017826  97.1675802 -13.3779029
  64.1840012 111.3814997 -16.3290012  64.3440012 112.1804997 -16.8300012
  63.9860012 111.6874997 -15.4440012  64.1791649 111.5324469 -16.2780185
  62.9180012  98.0784997 -16.7140012  62.8350012  98.9674997 -16.3670012
  63.8080012  97.8134997 -16.4820012  63.0269469  98.1641430 -16.6352374
  73.1170012  98.8274997  -4.3190012  72.2000012  99.0904997  -4.4070012
  73.4520012  98.8244997  -5.2160012  73.0369900  98.8630224  -4.4522081
  71.7190012 102.5784997 -10.2240012  70.9210012 102.1634997 -10.5520012
  72.1640012 101.8874997  -9.7330012  71.6699885 102.4283543 -10.2025111
  61.1770012 108.5064997 -17.6530012  61.7690012 109.2054997 -17.3770012
  61.6360012 108.0734997 -18.3730012  61.3201142 108.5437049 -17.7125170
  59.4930012 101.1704997 -18.5370012  59.4480012 102.1094997 -18.3590012
  58.6050012 100.9344997 -18.8070012  59.3668574 101.2671892 -18.5491088
  72.8050012 111.8344997  -8.6010012  72.6500012 112.5124997  -9.2580012
  73.7380012 111.9064997  -8.3980012  72.9098500 111.9370170  -8.6634881
  60.3010012  95.9524997  -9.8640012  60.0720012  96.0114997 -10.7920012
  59.8580012  95.1604997  -9.5580012  60.2098530  95.8535753  -9.9495214
  59.2310012 109.8924997 -13.7040012  58.3990012 110.3654997 -13.6760012
  59.7770012 110.4024997 -14.3020012  59.1909739 110.0261871 -13.7810284
  58.5190012 112.5054997  -2.3740012  59.0600012 112.2884997  -1.6140012
  58.0380012 111.6994997  -2.5630012  58.5279345 112.3669514  -2.2956924
  63.1170012 111.4244997  -0.7530012  63.8840012 110.9654997  -0.4120012
  63.0950012 111.1984997  -1.6830012  63.2191434 111.3310409  -0.8319957
  67.2090012 110.9324997 -19.3780012  66.5650012 110.3014997 -19.0570012
  67.9710012 110.4014997 -19.6100012  67.2238077 110.7742920 -19.3653989
  69.6940012 109.8044997  -2.0240012  69.3430012 108.9484997  -1.7810012
  70.4200012 109.9474997  -1.4170012  69.7440769 109.7065636  -1.9086381
  71.8130012 110.7494997 -19.1440012  72.0960012 109.9554997 -18.6920012
  72.5530012 110.9824997 -19.7050012  71.9517486 110.6722803 -19.1579302
  58.4260012 106.3154997  -1.4190012  58.5700012 105.4134997  -1.7060012
  57.6540012 106.6014997  -1.9070012  58.3413322 106.2308261  -1.5242119
  62.7680012 106.6594997 -19.2870012  62.8320012 105.8654997 -18.7560012
  63.4210012 106.5404997 -19.9770012  62.8650241 106.5347148 -19.3075683
  65.0820012 106.2854997  -1.9870012  64.7530012 106.5564997  -2.8440012
  65.2340012 105.3444997  -2.0740012  65.0574809 106.1953862  -2.1161756
  70.8160012 106.2014997  -4.6030012  71.5620012 106.7894997  -4.7230012
  70.0590012 106.7834997  -4.5400012  70.8157554 106.3607011  -4.6109093
  59.2590012 103.5154997  -1.9990012  59.6670012 102.6584997  -2.1200012
  58.9990012 103.5304997  -1.0780012  59.2797568 103.4000807  -1.8910412
  63.9170012 104.6314997 -16.9810012  63.4570012 104.1474997 -16.2950012
  64.1720012 103.9634997 -17.6170012  63.8884902 104.4748731 -16.9730666
  63.2060012 102.5244997  -4.6250012  62.5880012 103.1994997  -4.3450012
  63.5500012 102.8454997  -5.4580012  63.1679615 102.6602721  -4.6993419
  64.9880012 102.8744997 -18.7190012  64.8080012 102.7204997 -19.6460012
  65.9380012 102.9824997 -18.6740012  65.0917776 102.8680175 -18.8398157
  68.2260012 104.9964997  -1.3480012  69.1790012 105.0794997  -1.3750012
  68.0650012 104.2844997  -0.7280012  68.3346426 104.9116746  -1.2679421
  74.3780012 105.2294997 -19.2730012  74.1040012 104.8044997 -20.0860012
  74.4170012 106.1604997 -19.4900012  74.3457699 105.2972484 -19.4136390
  63.5450012  99.8794997  -3.5430012  63.6950012  99.1504997  -4.1450012
  63.5480012 100.6564997  -4.1020012  63.5659302  99.8847851  -3.7009308
  63.9580012  98.2494997  -6.0500012  64.4940012  98.7004997  -6.7020012
  63.1060012  98.1414997  -6.4730012  63.9162178  98.2966390  -6.1964244
  65.5400012 103.6884997  -5.8110012  66.2900012 103.5324997  -6.3840012
  65.2010012 104.5404997  -6.0860012  65.5968921 103.7822968  -5.9266439
  69.9550012 101.5034997  -0.7820012  70.1480012 100.5724997  -0.8940012
  70.8130012 101.9284997  -0.7920012  70.0973020 101.4336389  -0.7986639
  71.2720012 104.2924997  -2.7050012  70.9910012 105.0014997  -3.2820012
  72.2150012 104.2194997  -2.8560012  71.3609027 104.3797646  -2.8044449
  62.0240012 101.0774997  -1.6310012  61.2570012 100.5454997  -1.8410012
  62.7030012 100.7674997  -2.2310012  62.0107022 100.9627506  -1.7408352
  64.7640012  95.7054997  -5.6190012  64.6650012  96.6524997  -5.7240012
  64.0210012  95.3334997  -6.0940012  64.6500564  95.7845902  -5.6975440
  66.0280012 100.0274997  -2.0550012  65.7920012  99.8074997  -1.1530012
  65.2440012  99.8204997  -2.5650012  65.8898628  99.9694760  -2.0006068
  68.7430012  99.1544997  -2.9790012  67.7960012  99.1864997  -2.8470012
  69.0560012  98.5294997  -2.3260012  68.6555475  99.0743207  -2.8725545
  70.3770012  97.7884997  -0.9740012  70.2810012  96.8364997  -0.9800012
  70.0560012  98.0574997  -0.1140012  70.3204070  97.6944035  -0.8584559
  60.2040012  98.9984997  -1.9270012  60.4160012  98.2914997  -2.5370012
  60.0930012  98.5604997  -1.0830012  60.2179721  98.8427084  -1.8963157
  64.9850012  94.9994997  -2.9470012  65.6970012  94.3594997  -2.9610012
  64.8840012  95.2664997  -3.8610012  65.0687939  94.9479938  -3.0724350
  65.3390012  96.6824997  -0.8940012  65.2070012  96.2064997  -1.7140012
  64.7400012  97.4264997  -0.9490012  65.2399071  96.7179618  -1.0137114
  64.8850012 113.5654997 -17.7170012  65.8180012 113.7234997 -17.5740012
  64.6210012 114.2404997 -18.3420012  64.9769510 113.6783611 -17.7819259
  58.4540012 108.2014997 -18.2350012  59.3680012 108.2804997 -17.9610012
  58.4610012 107.5144997 -18.9010012  58.5801131 108.1193961 -18.2875607
  57.1030012 113.5944997 -13.1570012  56.4560012 113.1324997 -13.6900012
  57.4570012 112.9224997 -12.5750012  57.0623849 113.4404723 -13.1512041
  57.9730012 111.6754997 -11.3530012  57.6380012 110.7954997 -11.1810012
  58.1950012 112.0204997 -10.4880012  57.9571783 111.6017500 -11.2125792
  75.5210012 112.4844997  -8.3720012  75.5000012 112.6694997  -7.4330012
  76.2120012 113.0534997  -8.7130012  75.6114618 112.5866606  -8.2896136
  75.0850012 112.0524997  -5.4500012  74.5970012 111.3164997  -5.8210012
  75.6340012 111.6584997  -4.7720012  75.0924872 111.8986249  -5.4090840
  73.5350012 107.8414997  -0.8120012  72.6690012 107.7364997  -0.4180012
  73.9120012 108.6004997  -0.3660012  73.4673308 107.9296900  -0.6977607
  74.8360012 106.0984997 -15.2980012  75.6860012 106.5194997 -15.1710012
  74.8420012 105.3584997 -14.6910012  74.9531372 106.0560803 -15.1985656
  75.2310012 104.1514997 -13.4740012  74.5040012 103.6724997 -13.0770012
  75.8120012 104.3574997 -12.7420012  75.2099375 104.1137090 -13.3205871
  74.9900012 106.9364997  -8.5270012  75.8230012 106.5584997  -8.8070012
  75.1020012 107.8794997  -8.6460012  75.1192647 107.0122218  -8.5814513
  73.4760012 109.8144997  -6.2200012  72.8290012 110.1394997  -5.5940012
  72.9590012 109.3744997  -6.8940012  73.3174029 109.7995004  -6.2254173
  75.4990012 104.0524997 -17.0830012  74.9770012 104.4094997 -17.8020012
  75.4660012 104.7274997 -16.4050012  75.4231634 104.1925413 -17.0896855
  73.8480012 101.2924997 -18.5320012  73.9440012 101.9594997 -19.2130012
  73.7080012 100.4764997 -19.0140012  73.8422135 101.2734500 -18.6901509
  73.0170012 102.6724997 -12.9110012  72.8670012 101.7274997 -12.9320012
  72.6640012 102.9534997 -12.0680012  72.9486625 102.5810441 -12.7997654
  58.0530012 104.7504997  -8.9010012  58.2370012 104.6684997  -9.8370012
  58.9020012 104.6264997  -8.4770012  58.1930139 104.7225003  -8.9718545
  73.8740012 104.6424997  -3.2730012  74.4570012 103.9084997  -3.0810012
  74.4380012 105.4144997  -3.2260012  74.0299769 104.6464227  -3.2403841
  75.3700012 102.5454997  -2.5880012  74.5070012 102.1664997  -2.7540012
  75.9750012 101.8064997  -2.6620012  75.3335979 102.3938023  -2.6207183
  73.0950012  98.7004997 -19.4150012  73.7060012  98.3294997 -18.7780012
  72.2590012  98.2794997 -19.2190012  73.0655032  98.5927554 -19.3012965
  72.7280012 100.2554997 -14.4490012  73.0080012  99.3484997 -14.3250012
  73.4870012 100.6894997 -14.8380012  72.8689277 100.1900942 -14.4846318
  73.3400012 100.8364997  -9.0130012  74.2730012 101.0484997  -9.0470012
  73.1050012 100.9384997  -8.0910012  73.4358036 100.8792769  -8.8930024
  73.3690012 101.5734997  -6.2370012  72.5260012 101.8414997  -5.8710012
  73.8110012 102.3954997  -6.4480012  73.3134158 101.7213291  -6.2154509
  57.6500012 100.0214997  -2.7600012  58.5700012  99.8994997  -2.5240012
  57.2010012  99.2714997  -2.3710012  57.7151580  99.9033727  -2.6750994
  75.6520012  95.5534997  -0.8840012  76.0020012  94.8994997  -1.4890012
  75.7990012  96.3904997  -1.3230012  75.7198419  95.5771591  -1.0262882
  73.3410012  97.5184997 -14.4010012  73.5240012  97.0694997 -13.5750012
  72.7420012  96.9334997 -14.8640012  73.2850202  97.3779975 -14.3506725
  58.8710012  98.3334997  -9.8690012  59.3170012  97.5414997  -9.5670012
  59.3380012  99.0494997  -9.4380012  58.9950172  98.3220624  -9.7695180
  57.1750012 101.3324997  -8.8000012  57.6670012 101.1114997  -9.5910012
  57.5380012 102.1734997  -8.5190012  57.2913126 101.4158357  -8.8702469
  75.1720012  97.6624997  -2.5340012  74.2540012  97.9334997  -2.5700012
  75.2950012  97.1274997  -3.3190012  75.0631066  97.6272892  -2.6449513
  75.2080012  97.5854997 -17.8730012  75.6200012  96.8644997 -18.3480012
  75.8900012  98.2554997 -17.8140012  75.3565885  97.5772368 -17.9301085
  57.4890012  97.5904997 -14.7460012  56.5640012  97.7994997 -14.8750012
  57.9430012  98.0744997 -15.4350012  57.4237368  97.6845993 -14.8568774
  72.2600012 112.5744997 -12.8000012  72.9120012 112.2274997 -13.4080012
  72.7700012 113.0634997 -12.1540012  72.4182637 112.5930597 -12.7959764
  57.4530012  96.3284997  -6.4010012  56.7880012  96.0824997  -5.7580012
  57.0100012  96.9504997  -6.9790012  57.3020956  96.3788632  -6.3910648
  59.6450012 109.5034997  -2.2570012  58.8240012 109.6784997  -2.7170012
  59.3920012 109.4304997  -1.3360012  59.4986164 109.5175622  -2.1955077
  62.5990012 110.4784997  -5.9980012  62.1740012 111.2874997  -6.2810012
  63.5030012 110.5634997  -6.3000012  62.6630271 110.6008469  -6.0776224
  66.9100012 111.8774997  -3.0390012  67.0950012 111.5434997  -2.1610012
  67.7560012 112.1864997  -3.3610012  67.0497539 111.8736047  -2.9624395
  69.2550012 113.1634997  -3.7950012  69.9320012 112.5304997  -4.0350012
  69.5770012 113.5644997  -2.9880012  69.3911637 113.1311154  -3.7187207
  74.1720012  95.7524997  -4.7150012  73.3600012  96.0774997  -5.1030012
  74.4050012  94.9924997  -5.2480012  74.0923423  95.6942436  -4.8401747
  60.0010012 113.7344997  -5.9510012  59.2800012 114.1744997  -6.4020012
  59.6350012 113.4834997  -5.1020012  59.8529804 113.7607698  -5.8980160
  62.4680012 113.3344997  -6.9210012  61.6030012 113.4064997  -6.5170012
  62.4130012 113.8814997  -7.7050012  62.3422085 113.4182685  -6.9716638
  67.1780012 113.2224997  -7.7460012  66.7220012 113.7514997  -8.4000012
  67.3410012 113.8254997  -7.0200012  67.1375585 113.3764468  -7.7374938
  69.5060012 112.1004997  -6.8010012  68.6010012 112.2654997  -7.0660012
  69.9350012 112.9534997  -6.8660012  69.4400799 112.2384483  -6.8460818
  72.1100012 113.6704997  -6.5060012  71.9280012 114.5864997  -6.7160012
  72.2870012 113.2604997  -7.3520012  72.1090210 113.7404822  -6.6492115
  59.4150012 112.3574997  -9.0410012  59.3970012 111.9324997  -8.1830012
  60.2200012 112.0394997  -9.4490012  59.5213875 112.2563812  -8.9788345
  61.5570012 111.0674997 -10.3860012  61.3380012 110.1514997 -10.2160012
  62.3810012 111.2074997  -9.9200012  61.6384420 110.9610520 -10.2997226
  64.0940012 111.5374997  -9.5370012  64.3070012 110.6494997  -9.8240012
  64.1580012 111.5034997  -8.5830012  64.1318231 111.4113102  -9.4472603
  67.6020012  97.2014997 -10.3930012  66.9280012  96.5724997 -10.1370012
  68.1660012  96.7174997 -10.9960012  67.5859230  97.0498744 -10.4394660
  72.7450012  95.3094997 -10.2800012  73.3490012  95.8564997 -10.7820012
  71.8750012  95.6284997 -10.5200012  72.7101241  95.4275806 -10.3812346
  74.4720012  96.4474997 -11.9470012  75.0840012  95.9334997 -12.4730012
  74.8540012  97.3254997 -11.9230012  74.6074540  96.4957140 -12.0158170
  59.9290012  95.8354997 -12.5710012  59.1520012  95.6014997 -13.0780012
  60.4590012  95.0384997 -12.5620012  59.8942330  95.6956988 -12.6392258
  58.7650012  95.6334997 -16.7670012  59.2040012  96.2444997 -17.3590012
  58.1320012  96.1714997 -16.2930012  58.7394514  95.7899257 -16.7839070
  64.5080012  95.7624997 -12.7570012  65.3830012  96.1504997 -12.7870012
  64.3720012  95.5474997 -11.8350012  64.6093695  95.7865184 -12.6363560
  70.0650012  95.7924997 -11.1080012  70.1410012  95.8874997 -12.0580012
  69.7900012  94.8844997 -10.9790012  70.0382321  95.6827867 -11.2204921
  71.4180012  95.8184997 -15.4160012  70.7160012  96.4334997 -15.6250012
  70.9740012  94.9804997 -15.2850012  71.2616330  95.7895783 -15.4269672
  58.6660012 111.5814997 -15.8690012  57.9810012 111.5434997 -16.5370012
  58.6700012 112.4944997 -15.5810012  58.5728193 111.6997016 -15.9214716
  60.6260012  97.5494997 -18.3250012  61.1180012  96.9194997 -18.8520012
  61.2500012  97.8454997 -17.6610012  60.7775446  97.5033199 -18.3074020
  65.6520012  97.8424997 -15.8680012  65.8300012  97.1964997 -15.1850012
  65.5990012  98.6764997 -15.4000012  65.6691829  97.8667985 -15.7114060
  67.5310012 112.7914997 -17.4720012  68.3970012 113.1574997 -17.6500012
  67.2840012 112.3514997 -18.2860012  67.6162392 112.7821756 -17.6063711
  74.2400012 112.3544997 -14.7930012  74.0450012 111.6064997 -15.3580012
  74.2010012 113.1124997 -15.3760012  74.2080380 112.3546099 -14.9491616
  59.8870012  96.3494997  -3.0530012  59.5210012  95.5844997  -2.6100012
  60.8000012  96.3784997  -2.7660012  59.9602790  96.2487224  -2.9535930
  61.8600012  95.7004997  -1.5170012  62.7580012  95.4264997  -1.7020012
  61.4730012  94.9574997  -1.0530012  61.9306612  95.5625914  -1.4796357
  60.4840012 112.5014997 -18.8440012  60.2170012 112.7884997 -17.9710012
  61.2560012 111.9554997 -18.6920012  60.5517488 112.4670294 -18.7038950
  70.2810012  95.0324997  -1.3350012  70.3580012  94.6064997  -0.4810012
  71.1750012  95.0464997  -1.6780012  70.4123428  94.9760879  -1.2644690
  73.4570012 111.1054997  -2.6430012  72.6750012 110.9194997  -3.1620012
  73.3850012 112.0344997  -2.4250012  73.3401777 111.2056492  -2.6845952
  87.8630012 104.9914997 -12.6120012  87.9520012 105.9354997 -12.7440012
  87.2250012 104.7164997 -13.2700012  87.7889081 105.0834830 -12.7190386
  86.7960012 104.2464997  -9.1930012  86.7580012 103.6004997  -8.4880012
  86.4740012 103.7804997  -9.9640012  86.7472333 104.0949408  -9.2007022
  79.1650012 103.8614997  -7.6000012  79.2060012 103.2354997  -6.8770012
  79.8680012 104.4854997  -7.4180012  79.2656363 103.8601196  -7.4763956
  90.5020012 107.1854997 -10.8920012  90.0620012 106.4654997 -10.4410012
  90.4890012 107.9064997 -10.2620012  90.4400226 107.1843731 -10.7451506
  80.0880012 108.3114997  -9.0650012  79.7190012 107.5094997  -9.4350012
  81.0290012 108.1424997  -9.0190012  80.1647289 108.1790153  -9.1093684
  76.6980012 101.9714997 -13.6720012  76.2510012 102.8174997 -13.6910012
  76.1370012 101.3914997 -14.1880012  76.5609900 102.0089916 -13.7443199
  77.4090012 104.1334997 -11.5460012  77.6220012 103.3634997 -11.0190012
  78.1470012 104.2224997 -12.1500012  77.5378496 104.0401394 -11.5554700
  87.6140012 112.2904997 -10.6790012  88.2340012 111.6134997 -10.9530012
  87.4060012 112.0724997  -9.7710012  87.6706904 112.1683870 -10.5936635
  85.1860012 106.6794997  -8.7870012  85.4900012 105.9934997  -9.3820012
  85.9070012 106.7974997  -8.1690012  85.3250671 106.6016305  -8.7848184
  93.8490012  98.2804997  -7.9260012  93.8980012  98.8904997  -7.1900012
  94.2740012  98.7414997  -8.6490012  93.9131824  98.4263741  -7.9229795
  88.3270012 101.0734997  -8.4590012  88.4690012 100.1274997  -8.4390012
  88.2200012 101.2804997  -9.3880012  88.3319864 100.9719534  -8.5817661
  81.4810012  99.1744997 -11.1870012  81.5250012 100.0344997 -11.6050012
  81.0240012  98.6224997 -11.8210012  81.4252185  99.2175799 -11.3299701
  89.2040012  99.3054997 -12.7860012  89.8500012  98.9764997 -12.1610012
  89.7140012  99.8234997 -13.4090012  89.3614264  99.3304611 -12.7846138
  78.1020012 101.5714997 -10.4250012  78.7550012 101.0214997  -9.9930012
  78.1260012 101.2974997 -11.3420012  78.1946683 101.4591466 -10.4897877
  83.2580012 103.1214997 -11.2100012  83.8740012 102.5954997 -10.7000012
  82.6720012 102.4814997 -11.6130012  83.2630810 102.9629208 -11.1946827
  94.2400012  99.7584997  -5.6900012  93.5520012 100.4164997  -5.7860012
  94.2560012  99.5614997  -4.7540012  94.1478525  99.8220462  -5.5765192
  80.2920012  98.0924997  -7.1130012  80.0730012  98.6224997  -7.8790012
  79.6240012  98.3194997  -6.4660012  80.1717600  98.1956906  -7.1303621
  87.6610012 107.5924997 -13.5690012  87.3650012 107.2704997 -14.4200012
  87.3360012 108.4924997 -13.5280012  87.5766371 107.6700215 -13.6798199
  82.8610012 105.7684997  -6.8260012  82.1210012 106.3664997  -6.7220012
  83.5750012 106.3224997  -7.1410012  82.8562237 105.9252831  -6.8543535
  90.9680012  98.5964997 -10.8060012  90.7520012  97.8304997 -10.2730012
  91.6230012  99.0684997 -10.2930012  91.0270632  98.5555889 -10.6637139
  79.8850012  99.9844997  -9.1610012  80.4990012 100.6174997  -8.7870012
  80.3970012  99.5124997  -9.8170012  80.0382296 100.0072370  -9.1985748
  81.2680012 107.7324997  -6.0380012  81.2630012 108.6124997  -6.4160012
  80.4150012 107.6494997  -5.6130012  81.1519464 107.8416117  -6.0322093
  77.3890012 107.4034997 -15.2560012  77.1170012 107.6324997 -16.1450012
  77.4350012 108.2414997 -14.7960012  77.3580094 107.5481213 -15.3154303
  91.0140012 109.0254997  -8.5440012  90.0730012 109.0834997  -8.3820012
  91.2910012 109.9314997  -8.6810012  90.9224679 109.1559443  -8.5403185
  91.3150012  97.3114997  -7.1260012  90.5790012  97.9224997  -7.1640012
  91.9980012  97.7264997  -7.6530012  91.3066541  97.4511374  -7.2024168
  84.3180012  95.3984997  -9.6600012  84.2010012  94.4494997  -9.7150012
  83.4630012  95.7304997  -9.3870012  84.1863733  95.3135409  -9.6306103
  89.2660012 110.8064997 -11.9180012  89.6920012 110.0994997 -12.4030012
  89.5830012 111.6074997 -12.3350012  89.3671019 110.8180994 -12.0406870
  90.4260012 108.7074997 -13.4100012  90.1680012 108.0174997 -14.0210012
  90.4970012 108.2644997 -12.5640012  90.4002856 108.5532124 -13.3793115
  92.1120012 107.2734997  -4.9320012  92.2520012 106.6824997  -5.6720012
  92.2790012 108.1464997  -5.2890012  92.1536778 107.3106426  -5.0813035
  86.5850012 104.2354997 -15.1600012  85.8730012 104.7704997 -15.5120012
  87.2760012 104.2914997 -15.8200012  86.5810132 104.3162543 -15.2973711
  86.6380012 102.6934997 -18.1210012  87.3390012 102.7154997 -17.4700012
  86.9410012 102.0654997 -18.7770012  86.7747830 102.6116566 -18.1206289
  93.9540012 103.6134997  -6.8660012  93.3010012 104.3084997  -6.7770012
  94.4190012 103.8234997  -7.6760012  93.9275390 103.7369425  -6.9633117
  89.9900012 104.4454997 -14.2080012  89.2580012 104.6734997 -13.6350012
  90.4380012 103.7314997 -13.7530012  89.9503095 104.3802571 -14.0680881
  89.8880012 102.6194997  -5.1410012  89.9680012 103.3824997  -4.5690012
  89.2860012 102.8984997  -5.8310012  89.8175756 102.7617134  -5.1559411
  81.6360012 105.0754997 -12.3260012  81.3050012 104.7054997 -13.1440012
  82.2240012 104.4054997 -11.9790012  81.6701873 104.9341156 -12.3911898
  83.0020012 108.5034997  -9.6440012  82.9080012 107.9254997 -10.4010012
  83.7320012 108.1324997  -9.1480012  83.0877981 108.3742390  -9.6805835
  82.0020012 103.8444997  -8.6920012  82.5680012 103.9654997  -9.4550012
  82.3210012 104.4814997  -8.0530012  82.1225786 103.9471884  -8.7099960
  88.3110012 109.3474997  -7.9580012  88.0710012 110.0094997  -7.3100012
  88.1130012 108.5134997  -7.5330012  88.2513808 109.3253134  -7.8118476
  82.8820012 108.2434997  -3.9750012  82.5710012 109.0254997  -3.5200012
  82.2320012 108.0904997  -4.6610012  82.7515558 108.3299105  -4.0054129
  88.8610012 103.6074997 -16.5230012  89.4410012 103.7574997 -15.7760012
  89.2750012 104.0784997 -17.2460012  88.9962830 103.6916841 -16.5185866
  79.8020012 104.4414997  -4.7460012  79.8730012 105.0924997  -4.0480012
  78.9120012 104.5444997  -5.0810012  79.6913117 104.5445936  -4.6957300
  86.5880012 110.3444997 -13.0880012  87.0620012 110.6394997 -12.3100012
  86.0250012 111.0824997 -13.3210012  86.5767653 110.4846932 -13.0129864
  81.1220012 110.3154997  -3.2120012  81.1290012 110.1794997  -4.1590012
  80.2060012 110.1974997  -2.9600012  80.9991714 110.2809430  -3.3075334
  92.5600012  95.3574997 -16.7100012  91.6600012  95.4964997 -16.4150012
  92.8120012  96.1884997 -17.1120012  92.4708702  95.4889074 -16.7239795
  80.6260012 104.1454997 -14.7360012  80.3340012 104.9134997 -15.2270012
  79.9520012 103.4854997 -14.8990012  80.4949081 104.1614406 -14.8252660
  93.7490012 109.7234997 -18.3340012  93.8230012 110.6624997 -18.1630012
  94.6550012 109.4184997 -18.3900012  93.8815100 109.8106722 -18.3181881
  76.7190012 106.5084997  -5.9210012  76.2180012 106.4804997  -6.7360012
  76.7240012 105.6024997  -5.6120012  76.6511526 106.3822278  -5.9907128
  76.4690012 109.2884997  -9.0370012  77.4150012 109.1444997  -9.0560012
  76.3570012 110.0724997  -8.5000012  76.5832727 109.3748046  -8.9669928
  94.6670012 109.9544997  -3.3550012  94.6180012 108.9994997  -3.3920012
  93.8400012 110.2224997  -2.9540012  94.5484940 109.8598998  -3.3058625
  85.6460012 109.5284997  -4.4790012  85.7330012 110.3544997  -4.0040012
  84.7820012 109.1984997  -4.2300012  85.5411964 109.5969878  -4.3803451
  86.0600012 113.3004997 -14.6730012  85.9850012 113.1794997 -15.6190012
  86.0930012 114.2504997 -14.5540012  86.0541848 113.4122500 -14.7865166
  79.7130012 112.0894997 -12.8920012  79.8660012 111.7414997 -12.0130012
  78.8630012 111.7334997 -13.1470012  79.6188962 111.9936650 -12.8061660
  89.1620012 112.4544997 -17.6710012  89.5370012 111.7104997 -18.1410012
  89.1660012 112.1844997 -16.7520012  89.2138915 112.3161486 -17.6112176
  88.8310012 112.3804997 -14.9210012  87.8950012 112.4804997 -14.7430012
  89.1110012 111.6714997 -14.3430012  88.7408255 112.2982711 -14.8184609
  91.8190012 101.4474997  -2.8750012  91.4120012 101.9284997  -3.5960012
  91.8600012 100.5424997  -3.1830012  91.7688437 101.3909374  -3.0153317
  78.9680012 107.8314997  -4.8780012  79.1840012 107.4704997  -4.0190012
  78.1130012 107.4574997  -5.0880012  78.8819292 107.7314111  -4.7886614
  81.5870012  96.3014997  -8.8830012  80.7250012  96.2144997  -9.2900012
  81.5640012  97.1574997  -8.4550012  81.4660330  96.4052765  -8.8808137
  86.2500012  96.0234997  -5.5080012  86.6700012  95.6084997  -4.7550012
  85.3170012  95.8454997  -5.3910012  86.1813644  95.9425900  -5.3890461
  89.5760012  99.7794997  -4.6550012  89.0620012  99.6534997  -3.8570012
  89.4210012 100.6914997  -4.8990012  89.4846852  99.8856132  -4.5787842
  90.3390012 104.6404997 -18.8930012  90.3810012 104.4174997 -19.8230012
  91.1880012 105.0394997 -18.7030012  90.4595396 104.6639155 -18.9946373
  85.9110012  98.5164997 -18.2230012  85.6580012  98.5354997 -17.3000012
  85.6550012  97.6444997 -18.5240012  85.8417790  98.4012437 -18.1373737
  81.6780012 101.2674997  -7.7880012  81.0360012 101.2264997  -7.0790012
  81.7150012 102.1934997  -8.0250012  81.5951324 101.3871559  -7.7230176
  81.6750012 101.4884997 -12.8760012  80.7820012 101.1474997 -12.9340012
  82.1250012 101.1114997 -13.6310012  81.6137305 101.3908484 -12.9860823
  87.2100012 101.9044997 -14.0590012  86.8010012 102.7194997 -14.3500012
  87.9310012 101.7644997 -14.6730012  87.2514537 101.9972018 -14.1818658
  86.3120012 102.0794997  -2.5710012  85.7500012 101.3754997  -2.2500012
  87.1390012 101.9594997  -2.1030012  86.3467095 101.9667883  -2.4637670
  88.2150012 101.3504997 -11.2450012  88.0200012 101.9554997 -11.9600012
  88.3960012 100.5164997 -11.6790012  88.2127614 101.3206300 -11.4015595
  79.4280012 101.5874997  -5.9210012  79.3900012 101.9874997  -5.0520012
  78.9370012 100.7704997  -5.8300012  79.3564684 101.5318069  -5.7898941
  82.7940012  98.9614997 -19.1220012  82.3630012  98.5164997 -18.3920012
  82.0760012  99.3334997 -19.6340012  82.6379438  98.9508940 -19.0913201
  76.0360012  98.7034997 -12.0700012  76.6670012  98.6744997 -11.3510012
  76.4850012  98.2784997 -12.8000012  76.1830774  98.6420492 -12.0703447
  77.3100012  99.4494997 -16.6460012  77.7840012 100.0404997 -17.2310012
  76.5930012  99.9804997 -16.2990012  77.2779341  99.6020867 -16.6791164
  87.4790012 102.9884997  -6.5730012  87.8020012 102.3574997  -7.2160012
  87.0390012 102.4534997  -5.9130012  87.4636895 102.8298441  -6.5717150
  84.2560012  98.9154997 -11.7890012  83.3450012  98.9724997 -11.5010012
  84.7620012  98.8554997 -10.9790012  84.1995413  98.9151985 -11.6399378
  79.0850012 100.5444997 -12.9630012  78.1950012 100.6444997 -13.3030012
  79.3810012  99.7024997 -13.3090012  79.0032823 100.4443545 -13.0562787
  82.7380012 100.5444997 -15.3060012  83.6690012 100.6734997 -15.1280012
  82.5230012 101.2144997 -15.9560012  82.8364247 100.6526565 -15.3694253
  88.6610012  98.1504997  -8.5250012  87.9850012  98.2814997  -7.8610012
  88.1760012  97.9954997  -9.3350012  88.5027145  98.1474905  -8.5435483
  81.4120012 101.7394997 -17.7390012  80.8690012 101.3594997 -18.4310012
  82.2450012 101.9334997 -18.1680012  81.4504399 101.7138124 -17.8915474
  91.9490012 113.8224997  -2.2480012  92.1490012 114.2464997  -3.0830012
  92.6040012 114.1654997  -1.6410012  92.0650051 113.9269648  -2.2802164
  79.5470012 106.2964997  -2.6400012  80.2790012 106.5504997  -2.0790012
  78.7670012 106.5004997  -2.1250012  79.5418232 106.3589177  -2.4934240
  85.5760012 101.7034997  -9.9020012  86.1410012 101.1564997 -10.4490012
  85.4290012 101.1814997  -9.1140012  85.6332918 101.5582024  -9.8701546
  80.5780012  97.8394997 -13.4840012  80.2610012  96.9374997 -13.5190012
  81.3600012  97.8414997 -14.0370012  80.6402284  97.7161628 -13.5635217
  84.2030012 100.0914997  -7.4880012  83.3670012 100.5454997  -7.3780012
  84.7270012 100.3674997  -6.7360012  84.1594414 100.1909376  -7.3712864
  84.7470012 106.3044997 -15.8040012  84.0020012 105.7974997 -16.1260012
  84.6130012 106.3534997 -14.8570012  84.6268776 106.2416940 -15.7201353
  91.8970012 105.4374997  -7.0170012  92.5390012 105.8944997  -7.5610012
  91.0670012 105.5504997  -7.4800012  91.8725963 105.5152704  -7.1539823
  88.6450012  99.1184997 -17.6040012  87.7060012  99.2304997 -17.7560012
  88.9420012  99.9754997 -17.2980012  88.5567666  99.2496443 -17.5834232
  86.2660012 106.4884997  -4.5670012  85.9210012 106.1074997  -3.7600012
  86.0660012 107.4224997  -4.4950012  86.1918061 106.5625228  -4.4469039
  89.3630012 100.9854997 -15.9440012  90.2550012 100.8484997 -15.6250012
  89.4200012 101.7764997 -16.4800012  89.4926285 101.0736660 -15.9728309
  79.8720012 105.5994997 -10.0340012  80.6170012 105.5974997 -10.6350012
  79.9500012 104.7764997  -9.5520012  79.9845518 105.4879315 -10.0511071
  86.8730012 107.7634997 -16.7780012  86.5770012 108.5894997 -16.3970012
  86.1700012 107.1434997 -16.5820012  86.7374914 107.7928199 -16.6993557
  76.8800012 104.0604997  -4.7190012  77.1030012 103.6424997  -3.8870012
  76.2780012 103.4474997  -5.1420012  76.8291759 103.9204668  -4.6622978
  83.8960012 103.5774997  -2.5060012  83.6000012 103.4114997  -3.4010012
  84.8280012 103.3574997  -2.5170012  83.9814166 103.5250640  -2.6299464
  88.5170012 108.9504997  -4.6160012  87.6160012 109.1334997  -4.8840012
  88.5510012 109.2094997  -3.6950012  88.3983041 109.0105512  -4.5281803
  94.2480012 101.1954997 -16.2490012  93.6940012 100.7994997 -16.9210012
  94.3480012 102.1054997 -16.5270012  94.1857059 101.2643586 -16.3785599
  94.2110012 106.9954997  -3.4120012  93.3600012 107.2334997  -3.7790012
  94.8020012 106.9784997  -4.1650012  94.1742487 107.0258258  -3.5641107
  92.5430012 109.9814997 -15.7840012  92.1700012 109.1554997 -15.4750012
  92.8210012 109.7984997 -16.6810012  92.5295630 109.8437303 -15.8630374
  89.7040012 104.7894997  -8.7630012  88.7750012 104.5574997  -8.7900012
  90.1550012 104.0124997  -9.0930012  89.6379216 104.6527238  -8.8113083
  82.2470012 109.1174997 -12.6300012  82.7740012 109.8904997 -12.8300012
  81.3670012 109.3424997 -12.9310012  82.2001773 109.2538005 -12.6980990
  78.0020012 103.9794997 -18.0430012  78.6180012 104.6064997 -17.6630012
  77.1400012 104.2954997 -17.7710012  77.9697698 104.1079430 -17.9542817
  83.6740012 106.7804997 -13.0530012  83.4330012 107.7054997 -13.0120012
  82.9330012 106.3214997 -12.6570012  83.5408409 106.8451421 -12.9938623
  84.1890012 110.9294997  -6.7380012  84.5510012 111.7844997  -6.9720012
  84.7200012 110.6374997  -5.9980012  84.3104473 111.0071060  -6.6699145
  82.3570012 111.8024997 -13.5080012  81.4070012 111.9074997 -13.4570012
  82.7090012 112.6224997 -13.1630012  82.2744203 111.9278314 -13.4543350
  87.7330012 107.0284997  -7.0380012  87.3070012 106.8014997  -6.2110012
  88.3130012 106.2904997  -7.2200012  87.7531868 106.8975299  -6.9494170
  89.9360012 107.9574997 -17.9640012  90.2890012 107.5774997 -17.1590012
  88.9870012 107.8644997 -17.8770012  89.8560441 107.8929596 -17.8421441
  90.3910012 111.5804997  -4.5680012  89.7900012 111.0254997  -5.0640012
  90.6730012 112.2474997  -5.1940012  90.3468519 111.5946841  -4.7205048
  94.4390012 112.4374997 -17.7630012  95.1830012 113.0234997 -17.9030012
  93.7450012 113.0054997 -17.4290012  94.4470292 112.5945582 -17.7370039
  78.5140012  98.8134997  -5.1610012  77.6210012  99.1524997  -5.2290012
  78.4150012  97.9584997  -4.7430012  78.3784164  98.7442588  -5.1137765
  90.8020012 106.6304997 -15.7370012  90.5240012 105.9024997 -15.1810012
  91.7290012 106.7494997 -15.5320012  90.8893124 106.5468802 -15.6331155
  78.1650012 110.6184997  -6.7260012  78.3820012 109.6864997  -6.7570012
  78.4110012 110.8924997  -5.8430012  78.2279549 110.5280636  -6.6108237
  84.0270012 109.0694997 -19.5170012  84.2660012 108.3214997 -20.0640012
  83.7580012 108.6814997 -18.6840012  84.0233675 108.9146638 -19.4793135
  82.9640012 108.6394997 -17.0600012  83.1100012 108.1194997 -16.2700012
  82.9610012 109.5464997 -16.7540012  82.9835989 108.6908853 -16.9103912
  79.4170012 105.8924997 -16.5500012  78.7310012 106.2444997 -15.9830012
  79.9390012 106.6554997 -16.7970012  79.3936852 106.0438578 -16.5057882
  87.2480012  98.5544997  -6.2710012  87.9470012  98.6284997  -5.6210012
  86.8670012  97.6904997  -6.1170012  87.2921767  98.4477624  -6.1611678
  88.0330012  98.2064997 -15.1740012  88.2530012  98.6784997 -15.9770012
  88.5910012  98.6014997 -14.5040012  88.1384968  98.3244285 -15.1932669
  85.7010012 110.3374997 -16.3110012  84.8850012 110.8344997 -16.2590012
  86.2310012 110.8124997 -16.9510012  85.6609161 110.4697722 -16.3904044
  85.2330012  99.9344997 -14.3390012  86.0450012 100.4394997 -14.2930012
  84.9880012  99.7894997 -13.4250012  85.3110520  99.9840375 -14.2091483
  85.7680012 100.9204997  -5.1540012  85.8870012 101.4944997  -4.3970012
  86.4240012 100.2324997  -5.0400012  85.8729757 100.9061079  -5.0349175
  86.1160012  97.0154997 -13.4010012  85.7700012  97.6334997 -12.7560012
  86.7750012  97.5164997 -13.8820012  86.1577826  97.1675802 -13.3779029
  83.0400012 111.3814997 -16.3290012  83.2000012 112.1804997 -16.8300012
  82.8420012 111.6874997 -15.4440012  83.0351649 111.5324469 -16.2780185
  81.7740012  98.0784997 -16.7140012  81.6910012  98.9674997 -16.3670012
  82.6640012  97.8134997 -16.4820012  81.8829469  98.1641430 -16.6352374
  91.9730012  98.8274997  -4.3190012  91.0560012  99.0904997  -4.4070012
  92.3080012  98.8244997  -5.2160012  91.8929900  98.8630224  -4.4522081
  90.5750012 102.5784997 -10.2240012  89.7770012 102.1634997 -10.5520012
  91.0200012 101.8874997  -9.7330012  90.5259885 102.4283543 -10.2025111
  80.0330012 108.5064997 -17.6530012  80.6250012 109.2054997 -17.3770012
  80.4920012 108.0734997 -18.3730012  80.1761142 108.5437049 -17.7125170
  78.3490012 101.1704997 -18.5370012  78.3040012 102.1094997 -18.3590012
  77.4610012 100.9344997 -18.8070012  78.2228574 101.2671892 -18.5491088
  91.6610012 111.8344997  -8.6010012  91.5060012 112.5124997  -9.2580012
  92.5940012 111.9064997  -8.3980012  91.7658500 111.9370170  -8.6634881
  79.1570012  95.9524997  -9.8640012  78.9280012  96.0114997 -10.7920012
  78.7140012  95.1604997  -9.5580012  79.0658530  95.8535753  -9.9495214
  78.0870012 109.8924997 -13.7040012  77.2550012 110.3654997 -13.6760012
  78.6330012 110.4024997 -14.3020012  78.0469739 110.0261871 -13.7810284
  77.3750012 112.5054997  -2.3740012  77.9160012 112.2884997  -1.6140012
  76.8940012 111.6994997  -2.5630012  77.3839345 112.3669514  -2.2956924
  81.9730012 111.4244997  -0.7530012  82.7400012 110.9654997  -0.4120012
  81.9510012 111.1984997  -1.6830012  82.0751434 111.3310409  -0.8319957
  86.0650012 110.9324997 -19.3780012  85.4210012 110.3014997 -19.0570012
  86.8270012 110.4014997 -19.6100012  86.0798077 110.7742920 -19.3653989
  88.5500012 109.8044997  -2.0240012  88.1990012 108.9484997  -1.7810012
  89.2760012 109.9474997  -1.4170012  88.6000769 109.7065636  -1.9086381
  90.6690012 110.7494997 -19.1440012  90.9520012 109.9554997 -18.6920012
  91.4090012 110.9824997 -19.7050012  90.8077486 110.6722803 -19.1579302
  77.2820012 106.3154997  -1.4190012  77.4260012 105.4134997  -1.7060012
  76.5100012 106.6014997  -1.9070012  77.1973322 106.2308261  -1.5242119
  81.6240012 106.6594997 -19.2870012  81.6880012 105.8654997 -18.7560012
  82.2770012 106.5404997 -19.9770012  81.7210241 106.5347148 -19.3075683
  83.9380012 106.2854997  -1.9870012  83.6090012 106.5564997  -2.8440012
  84.0900012 105.3444997  -2.0740012  83.9134809 106.1953862  -2.1161756
  89.6720012 106.2014997  -4.6030012  90.4180012 106.7894997  -4.7230012
  88.9150012 106.7834997  -4.5400012  89.6717554 106.3607011  -4.6109093
  78.1150012 103.5154997  -1.9990012  78.5230012 102.6584997  -2.1200012
  77.8550012 103.5304997  -1.0780012  78.1357568 103.4000807  -1.8910412
  82.7730012 104.6314997 -16.9810012  82.3130012 104.1474997 -16.2950012
  83.0280012 103.9634997 -17.6170012  82.7444902 104.4748731 -16.9730666
  82.0620012 102.5244997  -4.6250012  81.4440012 103.1994997  -4.3450012
  82.4060012 102.8454997  -5.4580012  82.0239615 102.6602721  -4.6993419
  83.8440012 102.8744997 -18.7190012  83.6640012 102.7204997 -19.6460012
  84.7940012 102.9824997 -18.6740012  83.9477776 102.8680175 -18.8398157
  87.0820012 104.9964997  -1.3480012  88.0350012 105.0794997  -1.3750012
  86.9210012 104.2844997  -0.7280012  87.1906426 104.9116746  -1.2679421
  93.2340012 105.2294997 -19.2730012  92.9600012 104.8044997 -20.0860012
  93.2730012 106.1604997 -19.4900012  93.2017699 105.2972484 -19.4136390
  82.4010012  99.8794997  -3.5430012  82.5510012  99.1504997  -4.1450012
  82.4040012 100.6564997  -4.1020012  82.4219302  99.8847851  -3.7009308
  82.8140012  98.2494997  -6.0500012  83.3500012  98.7004997  -6.7020012
  81.9620012  98.1414997  -6.4730012  82.7722178  98.2966390  -6.1964244
  84.3960012 103.6884997  -5.8110012  85.1460012 103.5324997  -6.3840012
  84.0570012 104.5404997  -6.0860012  84.4528921 103.7822968  -5.9266439
  88.8110012 101.5034997  -0.7820012  89.0040012 100.5724997  -0.8940012
  89.6690012 101.9284997  -0.7920012  88.9533020 101.4336389  -0.7986639
  90.1280012 104.2924997  -2.7050012  89.8470012 105.0014997  -3.2820012
  91.0710012 104.2194997  -2.8560012  90.2169027 104.3797646  -2.8044449
  80.8800012 101.0774997  -1.6310012  80.1130012 100.5454997  -1.8410012
  81.5590012 100.7674997  -2.2310012  80.8667022 100.9627506  -1.7408352
  83.6200012  95.7054997  -5.6190012  83.5210012  96.6524997  -5.7240012
  82.8770012  95.3334997  -6.0940012  83.5060564  95.7845902  -5.6975440
  84.8840012 100.0274997  -2.0550012  84.6480012  99.8074997  -1.1530012
  84.1000012  99.8204997  -2.5650012  84.7458628  99.9694760  -2.0006068
  87.5990012  99.1544997  -2.9790012  86.6520012  99.1864997  -2.8470012
  87.9120012  98.5294997  -2.3260012  87.5115475  99.0743207  -2.8725545
  89.2330012  97.7884997  -0.9740012  89.1370012  96.8364997  -0.9800012
  88.9120012  98.0574997  -0.1140012  89.1764070  97.6944035  -0.8584559
  79.0600012  98.9984997  -1.9270012  79.2720012  98.2914997  -2.5370012
  78.9490012  98.5604997  -1.0830012  79.0739721  98.8427084  -1.8963157
  83.8410012  94.9994997  -2.9470012  84.5530012  94.3594997  -2.9610012
  83.7400012  95.2664997  -3.8610012  83.9247939  94.9479938  -3.0724350
  84.1950012  96.6824997  -0.8940012  84.0630012  96.2064997  -1.7140012
  83.5960012  97.4264997  -0.9490012  84.0959071  96.7179618  -1.0137114
  83.7410012 113.5654997 -17.7170012  84.6740012 113.7234997 -17.5740012
  83.4770012 114.2404997 -18.3420012  83.8329510 113.6783611 -17.7819259
  77.3100012 108.2014997 -18.2350012  78.2240012 108.2804997 -17.9610012
  77.3170012 107.5144997 -18.9010012  77.4361131 108.1193961 -18.2875607
  75.9590012 113.5944997 -13.1570012  75.3120012 113.1324997 -13.6900012
  76.3130012 112.9224997 -12.5750012  75.9183849 113.4404723 -13.1512041
  76.8290012 111.6754997 -11.3530012  76.4940012 110.7954997 -11.1810012
  77.0510012 112.0204997 -10.4880012  76.8131783 111.6017500 -11.2125792
  94.3770012 112.4844997  -8.3720012  94.3560012 112.6694997  -7.4330012
  95.0680012 113.0534997  -8.7130012  94.4674618 112.5866606  -8.2896136
  93.9410012 112.0524997  -5.4500012  93.4530012 111.3164997  -5.8210012
  94.4900012 111.6584997  -4.7720012  93.9484872 111.8986249  -5.4090840
  92.3910012 107.8414997  -0.8120012  91.5250012 107.7364997  -0.4180012
  92.7680012 108.6004997  -0.3660012  92.3233308 107.9296900  -0.6977607
  93.6920012 106.0984997 -15.2980012  94.5420012 106.5194997 -15.1710012
  93.6980012 105.3584997 -14.6910012  93.8091372 106.0560803 -15.1985656
  94.0870012 104.1514997 -13.4740012  93.3600012 103.6724997 -13.0770012
  94.6680012 104.3574997 -12.7420012  94.0659375 104.1137090 -13.3205871
  93.8460012 106.9364997  -8.5270012  94.6790012 106.5584997  -8.8070012
  93.9580012 107.8794997  -8.6460012  93.9752647 107.0122218  -8.5814513
  92.3320012 109.8144997  -6.2200012  91.6850012 110.1394997  -5.5940012
  91.8150012 109.3744997  -6.8940012  92.1734029 109.7995004  -6.2254173
  94.3550012 104.0524997 -17.0830012  93.8330012 104.4094997 -17.8020012
  94.3220012 104.7274997 -16.4050012  94.2791634 104.1925413 -17.0896855
  92.7040012 101.2924997 -18.5320012  92.8000012 101.9594997 -19.2130012
  92.5640012 100.4764997 -19.0140012  92.6982135 101.2734500 -18.6901509
  91.8730012 102.6724997 -12.9110012  91.7230012 101.7274997 -12.9320012
  91.5200012 102.9534997 -12.0680012  91.8046625 102.5810441 -12.7997654
  76.9090012 104.7504997  -8.9010012  77.0930012 104.6684997  -9.8370012
  77.7580012 104.6264997  -8.4770012  77.0490139 104.7225003  -8.9718545
  92.7300012 104.6424997  -3.2730012  93.3130012 103.9084997  -3.0810012
  93.2940012 105.4144997  -3.2260012  92.8859769 104.6464227  -3.2403841
  94.2260012 102.5454997  -2.5880012  93.3630012 102.1664997  -2.7540012
  94.8310012 101.8064997  -2.6620012  94.1895979 102.3938023  -2.6207183
  91.9510012  98.7004997 -19.4150012  92.5620012  98.3294997 -18.7780012
  91.1150012  98.2794997 -19.2190012  91.9215032  98.5927554 -19.3012965
  91.5840012 100.2554997 -14.4490012  91.8640012  99.3484997 -14.3250012
  92.3430012 100.6894997 -14.8380012  91.7249277 100.1900942 -14.4846318
  92.1960012 100.8364997  -9.0130012  93.1290012 101.0484997  -9.0470012
  91.9610012 100.9384997  -8.0910012  92.2918036 100.8792769  -8.8930024
  92.2250012 101.5734997  -6.2370012  91.3820012 101.8414997  -5.8710012
  92.6670012 102.3954997  -6.4480012  92.1694158 101.7213291  -6.2154509
  76.5060012 100.0214997  -2.7600012  77.4260012  99.8994997  -2.5240012
  76.0570012  99.2714997  -2.3710012  76.5711580  99.9033727  -2.6750994
  94.5080012  95.5534997  -0.8840012  94.8580012  94.8994997  -1.4890012
  94.6550012  96.3904997  -1.3230012  94.5758419  95.5771591  -1.0262882
  92.1970012  97.5184997 -14.4010012  92.3800012  97.0694997 -13.5750012
  91.5980012  96.9334997 -14.8640012  92.1410202  97.3779975 -14.3506725
  77.7270012  98.3334997  -9.8690012  78.1730012  97.5414997  -9.5670012
  78.1940012  99.0494997  -9.4380012  77.8510172  98.3220624  -9.7695180
  76.0310012 101.3324997  -8.8000012  76.5230012 101.1114997  -9.5910012
  76.3940012 102.1734997  -8.5190012  76.1473126 101.4158357  -8.8702469
  94.0280012  97.6624997  -2.5340012  93.1100012  97.9334997  -2.5700012
  94.1510012  97.1274997  -3.3190012  93.9191066  97.6272892  -2.6449513
  94.0640012  97.5854997 -17.8730012  94.4760012  96.8644997 -18.3480012
  94.7460012  98.2554997 -17.8140012  94.2125885  97.5772368 -17.9301085
  76.3450012  97.5904997 -14.7460012  75.4200012  97.7994997 -14.8750012
  76.7990012  98.0744997 -15.4350012  76.2797368  97.6845993 -14.8568774
  91.1160012 112.5744997 -12.8000012  91.7680012 112.2274997 -13.4080012
  91.6260012 113.0634997 -12.1540012  91.2742637 112.5930597 -12.7959764
  76.3090012  96.3284997  -6.4010012  75.6440012  96.0824997  -5.7580012
  75.8660012  96.9504997  -6.9790012  76.1580956  96.3788632  -6.3910648
  78.5010012 109.5034997  -2.2570012  77.6800012 109.6784997  -2.7170012
  78.2480012 109.4304997  -1.3360012  78.3546164 109.5175622  -2.1955077
  81.4550012 110.4784997  -5.9980012  81.0300012 111.2874997  -6.2810012
  82.3590012 110.5634997  -6.3000012  81.5190271 110.6008469  -6.0776224
  85.7660012 111.8774997  -3.0390012  85.9510012 111.5434997  -2.1610012
  86.6120012 112.1864997  -3.3610012  85.9057539 111.8736047  -2.9624395
  88.1110012 113.1634997  -3.7950012  88.7880012 112.5304997  -4.0350012
  88.4330012 113.5644997  -2.9880012  88.2471637 113.1311154  -3.7187207
  93.0280012  95.7524997  -4.7150012  92.2160012  96.0774997  -5.1030012
  93.2610012  94.9924997  -5.2480012  92.9483423  95.6942436  -4.8401747
  78.8570012 113.7344997  -5.9510012  78.1360012 114.1744997  -6.4020012
  78.4910012 113.4834997  -5.1020012  78.7089804 113.7607698  -5.8980160
  81.3240012 113.3344997  -6.9210012  80.4590012 113.4064997  -6.5170012
  81.2690012 113.8814997  -7.7050012  81.1982085 113.4182685  -6.9716638
  86.0340012 113.2224997  -7.7460012  85.5780012 113.7514997  -8.4000012
  86.1970012 113.8254997  -7.0200012  85.9935585 113.3764468  -7.7374938
  88.3620012 112.1004997  -6.8010012  87.4570012 112.2654997  -7.0660012
  88.7910012 112.9534997  -6.8660012  88.2960799 112.2384483  -6.8460818
  90.9660012 113.6704997  -6.5060012  90.7840012 114.5864997  -6.7160012
  91.1430012 113.2604997  -7.3520012  90.9650210 113.7404822  -6.6492115
  78.2710012 112.3574997  -9.0410012  78.2530012 111.9324997  -8.1830012
  79.0760012 112.0394997  -9.4490012  78.3773875 112.2563812  -8.9788345
  80.4130012 111.0674997 -10.3860012  80.1940012 110.1514997 -10.2160012
  81.2370012 111.2074997  -9.9200012  80.4944420 110.9610520 -10.2997226
  82.9500012 111.5374997  -9.5370012  83.1630012 110.6494997  -9.8240012
  83.0140012 111.5034997  -8.5830012  82.9878231 111.4113102  -9.4472603
  86.4580012  97.2014997 -10.3930012  85.7840012  96.5724997 -10.1370012
  87.0220012  96.7174997 -10.9960012  86.4419230  97.0498744 -10.4394660
  91.6010012  95.3094997 -10.2800012  92.2050012  95.8564997 -10.7820012
  90.7310012  95.6284997 -10.5200012  91.5661241  95.4275806 -10.3812346
  93.3280012  96.4474997 -11.9470012  93.9400012  95.9334997 -12.4730012
  93.7100012  97.3254997 -11.9230012  93.4634540  96.4957140 -12.0158170
  78.7850012  95.8354997 -12.5710012  78.0080012  95.6014997 -13.0780012
  79.3150012  95.0384997 -12.5620012  78.7502330  95.6956988 -12.6392258
  77.6210012  95.6334997 -16.7670012  78.0600012  96.2444997 -17.3590012
  76.9880012  96.1714997 -16.2930012  77.5954514  95.7899257 -16.7839070
  83.3640012  95.7624997 -12.7570012  84.2390012  96.1504997 -12.7870012
  83.2280012  95.5474997 -11.8350012  83.4653695  95.7865184 -12.6363560
  88.9210012  95.7924997 -11.1080012  88.9970012  95.8874997 -12.0580012
  88.6460012  94.8844997 -10.9790012  88.8942321  95.6827867 -11.2204921
  90.2740012  95.8184997 -15.4160012  89.5720012  96.4334997 -15.6250012
  89.8300012  94.9804997 -15.2850012  90.1176330  95.7895783 -15.4269672
  77.5220012 111.5814997 -15.8690012  76.8370012 111.5434997 -16.5370012
  77.5260012 112.4944997 -15.5810012  77.4288193 111.6997016 -15.9214716
  79.4820012  97.5494997 -18.3250012  79.9740012  96.9194997 -18.8520012
  80.1060012  97.8454997 -17.6610012  79.6335446  97.5033199 -18.3074020
  84.5080012  97.8424997 -15.8680012  84.6860012  97.1964997 -15.1850012
  84.4550012  98.6764997 -15.4000012  84.5251829  97.8667985 -15.7114060
  86.3870012 112.7914997 -17.4720012  87.2530012 113.1574997 -17.6500012
  86.1400012 112.3514997 -18.2860012  86.4722392 112.7821756 -17.6063711
  93.0960012 112.3544997 -14.7930012  92.9010012 111.6064997 -15.3580012
  93.0570012 113.1124997 -15.3760012  93.0640380 112.3546099 -14.9491616
  78.7430012  96.3494997  -3.0530012  78.3770012  95.5844997  -2.6100012
  79.6560012  96.3784997  -2.7660012  78.8162790  96.2487224  -2.9535930
  80.7160012  95.7004997  -1.5170012  81.6140012  95.4264997  -1.7020012
  80.3290012  94.9574997  -1.0530012  80.7866612  95.5625914  -1.4796357
  79.3400012 112.5014997 -18.8440012  79.0730012 112.7884997 -17.9710012
  80.1120012 111.9554997 -18.6920012  79.4077488 112.4670294 -18.7038950
  89.1370012  95.0324997  -1.3350012  89.2140012  94.6064997  -0.4810012
  90.0310012  95.0464997  -1.6780012  89.2683428  94.9760879  -1.2644690
  92.3130012 111.1054997  -2.6430012  91.5310012 110.9194997  -3.1620012
  92.2410012 112.0344997  -2.4250012  92.1961777 111.2056492  -2.6845952
 106.7190012 104.9914997 -12.6120012 106.8080012 105.9354997 -12.7440012
 106.0810012 104.7164997 -13.2700012 106.6449081 105.0834830 -12.7190386
 105.6520012 104.2464997  -9.1930012 105.6140012 103.6004997  -8.4880012
 105.3300012 103.7804997  -9.9640012 105.6032333 104.0949408  -9.2007022
  98.0210012 103.8614997  -7.6000012  98.0620012 103.2354997  -6.8770012
  98.7240012 104.4854997  -7.4180012  98.1216363 103.8601196  -7.4763956
 109.3580012 107.1854997 -10.8920012 108.9180012 106.4654997 -10.4410012
 109.3450012 107.9064997 -10.2620012 109.2960226 107.1843731 -10.7451506
  98.9440012 108.3114997  -9.0650012  98.5750012 107.5094997  -9.4350012
  99.8850012 108.1424997  -9.0190012  99.0207289 108.1790153  -9.1093684
  95.5540012 101.9714997 -13.6720012  95.1070012 102.8174997 -13.6910012
  94.9930012 101.3914997 -14.1880012  95.4169900 102.0089916 -13.7443199
  96.2650012 104.1334997 -11.5460012  96.4780012 103.3634997 -11.0190012
  97.0030012 104.2224997 -12.1500012  96.3938496 104.0401394 -11.5554700
 106.4700012 112.2904997 -10.6790012 107.0900012 111.6134997 -10.9530012
 106.2620012 112.0724997  -9.7710012 106.5266904 112.1683870 -10.5936635
 104.0420012 106.6794997  -8.7870012 104.3460012 105.9934997  -9.3820012
 104.7630012 106.7974997  -8.1690012 104.1810671 106.6016304  -8.7848184
 112.7050012  98.2804997  -7.9260012 112.7540012  98.8904997  -7.1900012
 113.1300012  98.7414997  -8.6490012 112.7691824  98.4263741  -7.9229795
 107.1830012 101.0734997  -8.4590012 107.3250012 100.1274997  -8.4390012
 107.0760012 101.2804997  -9.3880012 107.1879864 100.9719534  -8.5817661
 100.3370012  99.1744997 -11.1870012 100.3810012 100.0344997 -11.6050012
  99.8800012  98.6224997 -11.8210012 100.2812185  99.2175799 -11.3299701
 108.0600012  99.3054997 -12.7860012 108.7060012  98.9764997 -12.1610012
 108.5700012  99.8234997 -13.4090012 108.2174264  99.3304611 -12.7846138
  96.9580012 101.5714997 -10.4250012  97.6110012 101.0214997  -9.9930012
  96.9820012 101.2974997 -11.3420012  97.0506683 101.4591466 -10.4897877
 102.1140012 103.1214997 -11.2100012 102.7300012 102.5954997 -10.7000012
 101.5280012 102.4814997 -11.6130012 102.1190810 102.9629208 -11.1946827
 113.0960012  99.7584997  -5.6900012 112.4080012 100.4164997  -5.7860012
 113.1120012  99.5614997  -4.7540012 113.0038525  99.8220462  -5.5765192
  99.1480012  98.0924997  -7.1130012  98.9290012  98.6224997  -7.8790012
  98.4800012  98.3194997  -6.4660012  99.0277600  98.1956906  -7.1303621
 106.5170012 107.5924997 -13.5690012 106.2210012 107.2704997 -14.4200012
 106.1920012 108.4924997 -13.5280012 106.4326371 107.6700215 -13.6798199
 101.7170012 105.7684997  -6.8260012 100.9770012 106.3664997  -6.7220012
 102.4310012 106.3224997  -7.1410012 101.7122237 105.9252831  -6.8543535
 109.8240012  98.5964997 -10.8060012 109.6080012  97.8304997 -10.2730012
 110.4790012  99.0684997 -10.2930012 109.8830632  98.5555889 -10.6637139
  98.7410012  99.9844997  -9.1610012  99.3550012 100.6174997  -8.7870012
  99.2530012  99.5124997  -9.8170012  98.8942296 100.0072370  -9.1985748
 100.1240012 107.7324997  -6.0380012 100.1190012 108.6124997  -6.4160012
  99.2710012 107.6494997  -5.6130012 100.0079464 107.8416117  -6.0322093
  96.2450012 107.4034997 -15.2560012  95.9730012 107.6324997 -16.1450012
  96.2910012 108.2414997 -14.7960012  96.2140094 107.5481213 -15.3154303
 109.8700012 109.0254997  -8.5440012 108.9290012 109.0834997  -8.3820012
 110.1470012 109.9314997  -8.6810012 109.7784679 109.1559443  -8.5403185
 110.1710012  97.3114997  -7.1260012 109.4350012  97.9224997  -7.1640012
 110.8540012  97.7264997  -7.6530012 110.1626541  97.4511374  -7.2024168
 103.1740012  95.3984997  -9.6600012 103.0570012  94.4494997  -9.7150012
 102.3190012  95.7304997  -9.3870012 103.0423733  95.3135409  -9.6306103
 108.1220012 110.8064997 -11.9180012 108.5480012 110.0994997 -12.4030012
 108.4390012 111.6074997 -12.3350012 108.2231019 110.8180994 -12.0406870
 109.2820012 108.7074997 -13.4100012 109.0240012 108.0174997 -14.0210012
 109.3530012 108.2644997 -12.5640012 109.2562856 108.5532124 -13.3793115
 110.9680012 107.2734997  -4.9320012 111.1080012 106.6824997  -5.6720012
 111.1350012 108.1464997  -5.2890012 111.0096778 107.3106426  -5.0813035
 105.4410012 104.2354997 -15.1600012 104.7290012 104.7704997 -15.5120012
 106.1320012 104.2914997 -15.8200012 105.4370132 104.3162543 -15.2973711
 105.4940012 102.6934997 -18.1210012 106.1950012 102.7154997 -17.4700012
 105.7970012 102.0654997 -18.7770012 105.6307830 102.6116566 -18.1206289
 112.8100012 103.6134997  -6.8660012 112.1570012 104.3084997  -6.7770012
 113.2750012 103.8234997  -7.6760012 112.7835390 103.7369425  -6.9633117
 108.8460012 104.4454997 -14.2080012 108.1140012 104.6734997 -13.6350012
 109.2940012 103.7314997 -13.7530012 108.8063095 104.3802571 -14.0680881
 108.7440012 102.6194997  -5.1410012 108.8240012 103.3824997  -4.5690012
 108.1420012 102.8984997  -5.8310012 108.6735756 102.7617134  -5.1559411
 100.4920012 105.0754997 -12.3260012 100.1610012 104.7054997 -13.1440012
 101.0800012 104.4054997 -11.9790012 100.5261873 104.9341156 -12.3911898
 101.8580012 108.5034997  -9.6440012 101.7640012 107.9254997 -10.4010012
 102.5880012 108.1324997  -9.1480012 101.9437981 108.3742390  -9.6805835
 100.8580012 103.8444997  -8.6920012 101.4240012 103.9654997  -9.4550012
 101.1770012 104.4814997  -8.0530012 100.9785786 103.9471884  -8.7099960
 107.1670012 109.3474997  -7.9580012 106.9270012 110.0094997  -7.3100012
 106.9690012 108.5134997  -7.5330012 107.1073808 109.3253134  -7.8118476
 101.7380012 108.2434997  -3.9750012 101.4270012 109.0254997  -3.5200012
 101.0880012 108.0904997  -4.6610012 101.6075558 108.3299105  -4.0054129
 107.7170012 103.6074997 -16.5230012 108.2970012 103.7574997 -15.7760012
 108.1310012 104.0784997 -17.2460012 107.8522830 103.6916841 -16.5185866
  98.6580012 104.4414997  -4.7460012  98.7290012 105.0924997  -4.0480012
  97.7680012 104.5444997  -5.0810012  98.5473117 104.5445936  -4.6957300
 105.4440012 110.3444997 -13.0880012 105.9180012 110.6394997 -12.3100012
 104.8810012 111.0824997 -13.3210012 105.4327653 110.4846932 -13.0129864
  99.9780012 110.3154997  -3.2120012  99.9850012 110.1794997  -4.1590012
  99.0620012 110.1974997  -2.9600012  99.8551714 110.2809430  -3.3075334
 111.4160012  95.3574997 -16.7100012 110.5160012  95.4964997 -16.4150012
 111.6680012  96.1884997 -17.1120012 111.3268702  95.4889074 -16.7239795
  99.4820012 104.1454997 -14.7360012  99.1900012 104.9134997 -15.2270012
  98.8080012 103.4854997 -14.8990012  99.3509081 104.1614406 -14.8252660
 112.6050012 109.7234997 -18.3340012 112.6790012 110.6624997 -18.1630012
 113.5110012 109.4184997 -18.3900012 112.7375100 109.8106722 -18.3181881
  95.5750012 106.5084997  -5.9210012  95.0740012 106.4804997  -6.7360012
  95.5800012 105.6024997  -5.6120012  95.5071526 106.3822278  -5.9907128
  95.3250012 109.2884997  -9.0370012  96.2710012 109.1444997  -9.0560012
  95.2130012 110.0724997  -8.5000012  95.4392727 109.3748046  -8.9669928
 113.5230012 109.9544997  -3.3550012 113.4740012 108.9994997  -3.3920012
 112.6960012 110.2224997  -2.9540012 113.4044940 109.8598998  -3.3058625
 104.5020012 109.5284997  -4.4790012 104.5890012 110.3544997  -4.0040012
 103.6380012 109.1984997  -4.2300012 104.3971964 109.5969878  -4.3803451
 104.9160012 113.3004997 -14.6730012 104.8410012 113.1794997 -15.6190012
 104.9490012 114.2504997 -14.5540012 104.9101848 113.4122500 -14.7865166
  98.5690012 112.0894997 -12.8920012  98.7220012 111.7414997 -12.0130012
  97.7190012 111.7334997 -13.1470012  98.4748962 111.9936650 -12.8061660
 108.0180012 112.4544997 -17.6710012 108.3930012 111.7104997 -18.1410012
 108.0220012 112.1844997 -16.7520012 108.0698915 112.3161486 -17.6112176
 107.6870012 112.3804997 -14.9210012 106.7510012 112.4804997 -14.7430012
 107.9670012 111.6714997 -14.3430012 107.5968255 112.2982711 -14.8184609
 110.6750012 101.4474997  -2.8750012 110.2680012 101.9284997  -3.5960012
 110.7160012 100.5424997  -3.1830012 110.6248437 101.3909374  -3.0153317
  97.8240012 107.8314997  -4.8780012  98.0400012 107.4704997  -4.0190012
  96.9690012 107.4574997  -5.0880012  97.7379292 107.7314111  -4.7886614
 100.4430012  96.3014997  -8.8830012  99.5810012  96.2144997  -9.2900012
 100.4200012  97.1574997  -8.4550012 100.3220330  96.4052765  -8.8808137
 105.1060012  96.0234997  -5.5080012 105.5260012  95.6084997  -4.7550012
 104.1730012  95.8454997  -5.3910012 105.0373644  95.9425900  -5.3890461
 108.4320012  99.7794997  -4.6550012 107.9180012  99.6534997  -3.8570012
 108.2770012 100.6914997  -4.8990012 108.3406852  99.8856132  -4.5787842
 109.1950012 104.6404997 -18.8930012 109.2370012 104.4174997 -19.8230012
 110.0440012 105.0394997 -18.7030012 109.3155396 104.6639155 -18.9946373
 104.7670012  98.5164997 -18.2230012 104.5140012  98.5354997 -17.3000012
 104.5110012  97.6444997 -18.5240012 104.6977790  98.4012437 -18.1373737
 100.5340012 101.2674997  -7.7880012  99.8920012 101.2264997  -7.0790012
 100.5710012 102.1934997  -8.0250012 100.4511324 101.3871559  -7.7230176
 100.5310012 101.4884997 -12.8760012  99.6380012 101.1474997 -12.9340012
 100.9810012 101.1114997 -13.6310012 100.4697305 101.3908484 -12.9860823
 106.0660012 101.9044997 -14.0590012 105.6570012 102.7194997 -14.3500012
 106.7870012 101.7644997 -14.6730012 106.1074537 101.9972018 -14.1818658
 105.1680012 102.0794997  -2.5710012 104.6060012 101.3754997  -2.2500012
 105.9950012 101.9594997  -2.1030012 105.2027095 101.9667883  -2.4637670
 107.0710012 101.3504997 -11.2450012 106.8760012 101.9554997 -11.9600012
 107.2520012 100.5164997 -11.6790012 107.0687614 101.3206300 -11.4015595
  98.2840012 101.5874997  -5.9210012  98.2460012 101.9874997  -5.0520012
  97.7930012 100.7704997  -5.8300012  98.2124684 101.5318069  -5.7898941
 101.6500012  98.9614997 -19.1220012 101.2190012  98.5164997 -18.3920012
 100.9320012  99.3334997 -19.6340012 101.4939438  98.9508940 -19.0913201
  94.8920012  98.7034997 -12.0700012  95.5230012  98.6744997 -11.3510012
  95.3410012  98.2784997 -12.8000012  95.0390774  98.6420492 -12.0703447
  96.1660012  99.4494997 -16.6460012  96.6400012 100.0404997 -17.2310012
  95.4490012  99.9804997 -16.2990012  96.1339341  99.6020867 -16.6791164
 106.3350012 102.9884997  -6.5730012 106.6580012 102.3574997  -7.2160012
 105.8950012 102.4534997  -5.9130012 106.3196895 102.8298441  -6.5717150
 103.1120012  98.9154997 -11.7890012 102.2010012  98.9724997 -11.5010012
 103.6180012  98.8554997 -10.9790012 103.0555413  98.9151985 -11.6399378
  97.9410012 100.5444997 -12.9630012  97.0510012 100.6444997 -13.3030012
  98.2370012  99.7024997 -13.3090012  97.8592823 100.4443546 -13.0562787
 101.5940012 100.5444997 -15.3060012 102.5250012 100.6734997 -15.1280012
 101.3790012 101.2144997 -15.9560012 101.6924247 100.6526565 -15.3694253
 107.5170012  98.1504997  -8.5250012 106.8410012  98.2814997  -7.8610012
 107.0320012  97.9954997  -9.3350012 107.3587145  98.1474905  -8.5435483
 100.2680012 101.7394997 -17.7390012  99.7250012 101.3594997 -18.4310012
 101.1010012 101.9334997 -18.1680012 100.3064399 101.7138124 -17.8915474
 110.8050012 113.8224997  -2.2480012 111.0050012 114.2464997  -3.0830012
 111.4600012 114.1654997  -1.6410012 110.9210051 113.9269648  -2.2802164
  98.4030012 106.2964997  -2.6400012  99.1350012 106.5504997  -2.0790012
  97.6230012 106.5004997  -2.1250012  98.3978232 106.3589177  -2.4934240
 104.4320012 101.7034997  -9.9020012 104.9970012 101.1564997 -10.4490012
 104.2850012 101.1814997  -9.1140012 104.4892918 101.5582024  -9.8701546
  99.4340012  97.8394997 -13.4840012  99.1170012  96.9374997 -13.5190012
 100.2160012  97.8414997 -14.0370012  99.4962284  97.7161628 -13.5635217
 103.0590012 100.0914997  -7.4880012 102.2230012 100.5454997  -7.3780012
 103.5830012 100.3674997  -6.7360012 103.0154414 100.1909376  -7.3712864
 103.6030012 106.3044997 -15.8040012 102.8580012 105.7974997 -16.1260012
 103.4690012 106.3534997 -14.8570012 103.4828776 106.2416940 -15.7201353
 110.7530012 105.4374997  -7.0170012 111.3950012 105.8944997  -7.5610012
 109.9230012 105.5504997  -7.4800012 110.7285963 105.5152704  -7.1539823
 107.5010012  99.1184997 -17.6040012 106.5620012  99.2304997 -17.7560012
 107.7980012  99.9754997 -17.2980012 107.4127666  99.2496443 -17.5834232
 105.1220012 106.4884997  -4.5670012 104.7770012 106.1074997  -3.7600012
 104.9220012 107.4224997  -4.4950012 105.0478061 106.5625228  -4.4469039
 108.2190012 100.9854997 -15.9440012 109.1110012 100.8484997 -15.6250012
 108.2760012 101.7764997 -16.4800012 108.3486285 101.0736660 -15.9728310
  98.7280012 105.5994997 -10.0340012  99.4730012 105.5974997 -10.6350012
  98.8060012 104.7764997  -9.5520012  98.8405518 105.4879315 -10.0511071
 105.7290012 107.7634997 -16.7780012 105.4330012 108.5894997 -16.3970012
 105.0260012 107.1434997 -16.5820012 105.5934914 107.7928199 -16.6993557
  95.7360012 104.0604997  -4.7190012  95.9590012 103.6424997  -3.8870012
  95.1340012 103.4474997  -5.1420012  95.6851759 103.9204668  -4.6622978
 102.7520012 103.5774997  -2.5060012 102.4560012 103.4114997  -3.4010012
 103.6840012 103.3574997  -2.5170012 102.8374166 103.5250640  -2.6299464
 107.3730012 108.9504997  -4.6160012 106.4720012 109.1334997  -4.8840012
 107.4070012 109.2094997  -3.6950012 107.2543041 109.0105512  -4.5281803
 113.1040012 101.1954997 -16.2490012 112.5500012 100.7994997 -16.9210012
 113.2040012 102.1054997 -16.5270012 113.0417059 101.2643586 -16.3785599
 113.0670012 106.9954997  -3.4120012 112.2160012 107.2334997  -3.7790012
 113.6580012 106.9784997  -4.1650012 113.0302487 107.0258258  -3.5641107
 111.3990012 109.9814997 -15.7840012 111.0260012 109.1554997 -15.4750012
 111.6770012 109.7984997 -16.6810012 111.3855630 109.8437303 -15.8630374
 108.5600012 104.7894997  -8.7630012 107.6310012 104.5574997  -8.7900012
 109.0110012 104.0124997  -9.0930012 108.4939216 104.6527238  -8.8113083
 101.1030012 109.1174997 -12.6300012 101.6300012 109.8904997 -12.8300012
 100.2230012 109.3424997 -12.9310012 101.0561773 109.2538005 -12.6980990
  96.8580012 103.9794997 -18.0430012  97.4740012 104.6064997 -17.6630012
  95.9960012 104.2954997 -17.7710012  96.8257698 104.1079430 -17.9542817
 102.5300012 106.7804997 -13.0530012 102.2890012 107.7054997 -13.0120012
 101.7890012 106.3214997 -12.6570012 102.3968409 106.8451421 -12.9938623
 103.0450012 110.9294997  -6.7380012 103.4070012 111.7844997  -6.9720012
 103.5760012 110.6374997  -5.9980012 103.1664473 111.0071060  -6.6699145
 101.2130012 111.8024997 -13.5080012 100.2630012 111.9074997 -13.4570012
 101.5650012 112.6224997 -13.1630012 101.1304203 111.9278314 -13.4543350
 106.5890012 107.0284997  -7.0380012 106.1630012 106.8014997  -6.2110012
 107.1690012 106.2904997  -7.2200012 106.6091868 106.8975299  -6.9494170
 108.7920012 107.9574997 -17.9640012 109.1450012 107.5774997 -17.1590012
 107.8430012 107.8644997 -17.8770012 108.7120441 107.8929596 -17.8421441
 109.2470012 111.5804997  -4.5680012 108.6460012 111.0254997  -5.0640012
 109.5290012 112.2474997  -5.1940012 109.2028519 111.5946841  -4.7205048
 113.2950012 112.4374997 -17.7630012 114.0390012 113.0234997 -17.9030012
 112.6010012 113.0054997 -17.4290012 113.3030292 112.5945582 -17.7370039
  97.3700012  98.8134997  -5.1610012  96.4770012  99.1524997  -5.2290012
  97.2710012  97.9584997  -4.7430012  97.2344164  98.7442588  -5.1137765
 109.6580012 106.6304997 -15.7370012 109.3800012 105.9024997 -15.1810012
 110.5850012 106.7494997 -15.5320012 109.7453124 106.5468802 -15.6331155
  97.0210012 110.6184997  -6.7260012  97.2380012 109.6864997  -6.7570012
  97.2670012 110.8924997  -5.8430012  97.0839549 110.5280636  -6.6108237
 102.8830012 109.0694997 -19.5170012 103.1220012 108.3214997 -20.0640012
 102.6140012 108.6814997 -18.6840012 102.8793675 108.9146638 -19.4793135
 101.8200012 108.6394997 -17.0600012 101.9660012 108.1194997 -16.2700012
 101.8170012 109.5464997 -16.7540012 101.8395989 108.6908853 -16.9103912
  98.2730012 105.8924997 -16.5500012  97.5870012 106.2444997 -15.9830012
  98.7950012 106.6554997 -16.7970012  98.2496852 106.0438578 -16.5057882
 106.1040012  98.5544997  -6.2710012 106.8030012  98.6284997  -5.6210012
 105.7230012  97.6904997  -6.1170012 106.1481767  98.4477624  -6.1611678
 106.8890012  98.2064997 -15.1740012 107.1090012  98.6784997 -15.9770012
 107.4470012  98.6014997 -14.5040012 106.9944968  98.3244285 -15.1932669
 104.5570012 110.3374997 -16.3110012 103.7410012 110.8344997 -16.2590012
 105.0870012 110.8124997 -16.9510012 104.5169161 110.4697722 -16.3904044
 104.0890012  99.9344997 -14.3390012 104.9010012 100.4394997 -14.2930012
 103.8440012  99.7894997 -13.4250012 104.1670520  99.9840375 -14.2091483
 104.6240012 100.9204997  -5.1540012 104.7430012 101.4944997  -4.3970012
 105.2800012 100.2324997  -5.0400012 104.7289757 100.9061079  -5.0349175
 104.9720012  97.0154997 -13.4010012 104.6260012  97.6334997 -12.7560012
 105.6310012  97.5164997 -13.8820012 105.0137826  97.1675802 -13.3779029
 101.8960012 111.3814997 -16.3290012 102.0560012 112.1804997 -16.8300012
 101.6980012 111.6874997 -15.4440012 101.8911649 111.5324469 -16.2780185
 100.6300012  98.0784997 -16.7140012 100.5470012  98.9674997 -16.3670012
 101.5200012  97.8134997 -16.4820012 100.7389469  98.1641430 -16.6352374
 110.8290012  98.8274997  -4.3190012 109.9120012  99.0904997  -4.4070012
 111.1640012  98.8244997  -5.2160012 110.7489900  98.8630224  -4.4522081
 109.4310012 102.5784997 -10.2240012 108.6330012 102.1634997 -10.5520012
 109.8760012 101.8874997  -9.7330012 109.3819885 102.4283543 -10.2025111
  98.8890012 108.5064997 -17.6530012  99.4810012 109.2054997 -17.3770012
  99.3480012 108.0734997 -18.3730012  99.0321142 108.5437049 -17.7125170
  97.2050012 101.1704997 -18.5370012  97.1600012 102.1094997 -18.3590012
  96.3170012 100.9344997 -18.8070012  97.0788574 101.2671892 -18.5491088
 110.5170012 111.8344997  -8.6010012 110.3620012 112.5124997  -9.2580012
 111.4500012 111.9064997  -8.3980012 110.6218500 111.9370170  -8.6634881
  98.0130012  95.9524997  -9.8640012  97.7840012  96.0114997 -10.7920012
  97.5700012  95.1604997  -9.5580012  97.9218530  95.8535753  -9.9495214
  96.9430012 109.8924997 -13.7040012  96.1110012 110.3654997 -13.6760012
  97.4890012 110.4024997 -14.3020012  96.9029739 110.0261871 -13.7810284
  96.2310012 112.5054997  -2.3740012  96.7720012 112.2884997  -1.6140012
  95.7500012 111.6994997  -2.5630012  96.2399345 112.3669514  -2.2956924
 100.8290012 111.4244997  -0.7530012 101.5960012 110.9654997  -0.4120012
 100.8070012 111.1984997  -1.6830012 100.9311434 111.3310409  -0.8319957
 104.9210012 110.9324997 -19.3780012 104.2770012 110.3014997 -19.0570012
 105.6830012 110.4014997 -19.6100012 104.9358077 110.7742920 -19.3653989
 107.4060012 109.8044997  -2.0240012 107.0550012 108.9484997  -1.7810012
 108.1320012 109.9474997  -1.4170012 107.4560769 109.7065636  -1.9086381
 109.5250012 110.7494997 -19.1440012 109.8080012 109.9554997 -18.6920012
 110.2650012 110.9824997 -19.7050012 109.6637486 110.6722803 -19.1579302
  96.1380012 106.3154997  -1.4190012  96.2820012 105.4134997  -1.7060012
  95.3660012 106.6014997  -1.9070012  96.0533322 106.2308261  -1.5242119
 100.4800012 106.6594997 -19.2870012 100.5440012 105.8654997 -18.7560012
 101.1330012 106.5404997 -19.9770012 100.5770241 106.5347148 -19.3075683
 102.7940012 106.2854997  -1.9870012 102.4650012 106.5564997  -2.8440012
 102.9460012 105.3444997  -2.0740012 102.7694809 106.1953862  -2.1161756
 108.5280012 106.2014997  -4.6030012 109.2740012 106.7894997  -4.7230012
 107.7710012 106.7834997  -4.5400012 108.5277554 106.3607011  -4.6109093
  96.9710012 103.5154997  -1.9990012  97.3790012 102.6584997  -2.1200012
  96.7110012 103.5304997  -1.0780012  96.9917568 103.4000807  -1.8910412
 101.6290012 104.6314997 -16.9810012 101.1690012 104.1474997 -16.2950012
 101.8840012 103.9634997 -17.6170012 101.6004902 104.4748731 -16.9730666
 100.9180012 102.5244997  -4.6250012 100.3000012 103.1994997  -4.3450012
 101.2620012 102.8454997  -5.4580012 100.8799615 102.6602721  -4.6993419
 102.7000012 102.8744997 -18.7190012 102.5200012 102.7204997 -19.6460012
 103.6500012 102.9824997 -18.6740012 102.8037776 102.8680175 -18.8398157
 105.9380012 104.9964997  -1.3480012 106.8910012 105.0794997  -1.3750012
 105.7770012 104.2844997  -0.7280012 106.0466426 104.9116746  -1.2679422
 112.0900012 105.2294997 -19.2730012 111.8160012 104.8044997 -20.0860012
 112.1290012 106.1604997 -19.4900012 112.0577699 105.2972484 -19.4136390
 101.2570012  99.8794997  -3.5430012 101.4070012  99.1504997  -4.1450012
 101.2600012 100.6564997  -4.1020012 101.2779302  99.8847851  -3.7009308
 101.6700012  98.2494997  -6.0500012 102.2060012  98.7004997  -6.7020012
 100.8180012  98.1414997  -6.4730012 101.6282178  98.2966390  -6.1964244
 103.2520012 103.6884997  -5.8110012 104.0020012 103.5324997  -6.3840012
 102.9130012 104.5404997  -6.0860012 103.3088921 103.7822968  -5.9266439
 107.6670012 101.5034997  -0.7820012 107.8600012 100.5724997  -0.8940012
 108.5250012 101.9284997  -0.7920012 107.8093020 101.4336389  -0.7986639
 108.9840012 104.2924997  -2.7050012 108.7030012 105.0014997  -3.2820012
 109.9270012 104.2194997  -2.8560012 109.0729027 104.3797646  -2.8044449
  99.7360012 101.0774997  -1.6310012  98.9690012 100.5454997  -1.8410012
 100.4150012 100.7674997  -2.2310012  99.7227022 100.9627506  -1.7408352
 102.4760012  95.7054997  -5.6190012 102.3770012  96.6524997  -5.7240012
 101.7330012  95.3334997  -6.0940012 102.3620564  95.7845902  -5.6975440
 103.7400012 100.0274997  -2.0550012 103.5040012  99.8074997  -1.1530012
 102.9560012  99.8204997  -2.5650012 103.6018628  99.9694760  -2.0006068
 106.4550012  99.1544997  -2.9790012 105.5080012  99.1864997  -2.8470012
 106.7680012  98.5294997  -2.3260012 106.3675475  99.0743207  -2.8725545
 108.0890012  97.7884997  -0.9740012 107.9930012  96.8364997  -0.9800012
 107.7680012  98.0574997  -0.1140012 108.0324070  97.6944035  -0.8584559
  97.9160012  98.9984997  -1.9270012  98.1280012  98.2914997  -2.5370012
  97.8050012  98.5604997  -1.0830012  97.9299721  98.8427084  -1.8963157
 102.6970012  94.9994997  -2.9470012 103.4090012  94.3594997  -2.9610012
 102.5960012  95.2664997  -3.8610012 102.7807939  94.9479938  -3.0724350
 103.0510012  96.6824997  -0.8940012 102.9190012  96.2064997  -1.7140012
 102.4520012  97.4264997  -0.9490012 102.9519071  96.7179618  -1.0137114
 102.5970012 113.5654997 -17.7170012 103.5300012 113.7234997 -17.5740012
 102.3330012 114.2404997 -18.3420012 102.6889510 113.6783611 -17.7819259
  96.1660012 108.2014997 -18.2350012  97.0800012 108.2804997 -17.9610012
  96.1730012 107.5144997 -18.9010012  96.2921131 108.1193961 -18.2875607
  94.8150012 113.5944997 -13.1570012  94.1680012 113.1324997 -13.6900012
  95.1690012 112.9224997 -12.5750012  94.7743849 113.4404723 -13.1512041
  95.6850012 111.6754997 -11.3530012  95.3500012 110.7954997 -11.1810012
  95.9070012 112.0204997 -10.4880012  95.6691783 111.6017500 -11.2125792
 113.2330012 112.4844997  -8.3720012 113.2120012 112.6694997  -7.4330012
 113.9240012 113.0534997  -8.7130012 113.3234618 112.5866606  -8.2896136
 112.7970012 112.0524997  -5.4500012 112.3090012 111.3164997  -5.8210012
 113.3460012 111.6584997  -4.7720012 112.8044872 111.8986249  -5.4090840
 111.2470012 107.8414997  -0.8120012 110.3810012 107.7364997  -0.4180012
 111.6240012 108.6004997  -0.3660012 111.1793308 107.9296900  -0.6977607
 112.5480012 106.0984997 -15.2980012 113.3980012 106.5194997 -15.1710012
 112.5540012 105.3584997 -14.6910012 112.6651372 106.0560803 -15.1985656
 112.9430012 104.1514997 -13.4740012 112.2160012 103.6724997 -13.0770012
 113.5240012 104.3574997 -12.7420012 112.9219375 104.1137090 -13.3205871
 112.7020012 106.9364997  -8.5270012 113.5350012 106.5584997  -8.8070012
 112.8140012 107.8794997  -8.6460012 112.8312647 107.0122218  -8.5814513
 111.1880012 109.8144997  -6.2200012 110.5410012 110.1394997  -5.5940012
 110.6710012 109.3744997  -6.8940012 111.0294029 109.7995004  -6.2254173
 113.2110012 104.0524997 -17.0830012 112.6890012 104.4094997 -17.8020012
 113.1780012 104.7274997 -16.4050012 113.1351634 104.1925413 -17.0896855
 111.5600012 101.2924997 -18.5320012 111.6560012 101.9594997 -19.2130012
 111.4200012 100.4764997 -19.0140012 111.5542135 101.2734500 -18.6901509
 110.7290012 102.6724997 -12.9110012 110.5790012 101.7274997 -12.9320012
 110.3760012 102.9534997 -12.0680012 110.6606625 102.5810441 -12.7997654
  95.7650012 104.7504997  -8.9010012  95.9490012 104.6684997  -9.8370012
  96.6140012 104.6264997  -8.4770012  95.9050139 104.7225003  -8.9718545
 111.5860012 104.6424997  -3.2730012 112.1690012 103.9084997  -3.0810012
 112.1500012 105.4144997  -3.2260012 111.7419769 104.6464227  -3.2403841
 113.0820012 102.5454997  -2.5880012 112.2190012 102.1664997  -2.7540012
 113.6870012 101.8064997  -2.6620012 113.0455979 102.3938023  -2.6207183
 110.8070012  98.7004997 -19.4150012 111.4180012  98.3294997 -18.7780012
 109.9710012  98.2794997 -19.2190012 110.7775032  98.5927554 -19.3012965
 110.4400012 100.2554997 -14.4490012 110.7200012  99.3484997 -14.3250012
 111.1990012 100.6894997 -14.8380012 110.5809277 100.1900942 -14.4846318
 111.0520012 100.8364997  -9.0130012 111.9850012 101.0484997  -9.0470012
 110.8170012 100.9384997  -8.0910012 111.1478036 100.8792769  -8.8930024
 111.0810012 101.5734997  -6.2370012 110.2380012 101.8414997  -5.8710012
 111.5230012 102.3954997  -6.4480012 111.0254158 101.7213291  -6.2154509
  95.3620012 100.0214997  -2.7600012  96.2820012  99.8994997  -2.5240012
  94.9130012  99.2714997  -2.3710012  95.4271580  99.9033727  -2.6750994
 113.3640012  95.5534997  -0.8840012 113.7140012  94.8994997  -1.4890012
 113.5110012  96.3904997  -1.3230012 113.4318419  95.5771591  -1.0262882
 111.0530012  97.5184997 -14.4010012 111.2360012  97.0694997 -13.5750012
 110.4540012  96.9334997 -14.8640012 110.9970202  97.3779975 -14.3506725
  96.5830012  98.3334997  -9.8690012  97.0290012  97.5414997  -9.5670012
  97.0500012  99.0494997  -9.4380012  96.7070172  98.3220624  -9.7695180
  94.8870012 101.3324997  -8.8000012  95.3790012 101.1114997  -9.5910012
  95.2500012 102.1734997  -8.5190012  95.0033126 101.4158357  -8.8702469
 112.8840012  97.6624997  -2.5340012 111.9660012  97.9334997  -2.5700012
 113.0070012  97.1274997  -3.3190012 112.7751066  97.6272892  -2.6449513
 112.9200012  97.5854997 -17.8730012 113.3320012  96.8644997 -18.3480012
 113.6020012  98.2554997 -17.8140012 113.0685885  97.5772368 -17.9301085
  95.2010012  97.5904997 -14.7460012  94.2760012  97.7994997 -14.8750012
  95.6550012  98.0744997 -15.4350012  95.1357368  97.6845993 -14.8568774
 109.9720012 112.5744997 -12.8000012 110.6240012 112.2274997 -13.4080012
 110.4820012 113.0634997 -12.1540012 110.1302637 112.5930597 -12.7959764
  95.1650012  96.3284997  -6.4010012  94.5000012  96.0824997  -5.7580012
  94.7220012  96.9504997  -6.9790012  95.0140956  96.3788632  -6.3910648
  97.3570012 109.5034997  -2.2570012  96.5360012 109.6784997  -2.7170012
  97.1040012 109.4304997  -1.3360012  97.2106164 109.5175622  -2.1955077
 100.3110012 110.4784997  -5.9980012  99.8860012 111.2874997  -6.2810012
 101.2150012 110.5634997  -6.3000012 100.3750271 110.6008469  -6.0776224
 104.6220012 111.8774997  -3.0390012 104.8070012 111.5434997  -2.1610012
 105.4680012 112.1864997  -3.3610012 104.7617539 111.8736047  -2.9624395
 106.9670012 113.1634997  -3.7950012 107.6440012 112.5304997  -4.0350012
 107.2890012 113.5644997  -2.9880012 107.1031637 113.1311154  -3.7187207
 111.8840012  95.7524997  -4.7150012 111.0720012  96.0774997  -5.1030012
 112.1170012  94.9924997  -5.2480012 111.8043423  95.6942436  -4.8401747
  97.7130012 113.7344997  -5.9510012  96.9920012 114.1744997  -6.4020012
  97.3470012 113.4834997  -5.1020012  97.5649804 113.7607698  -5.8980160
 100.1800012 113.3344997  -6.9210012  99.3150012 113.4064997  -6.5170012
 100.1250012 113.8814997  -7.7050012 100.0542085 113.4182685  -6.9716638
 104.8900012 113.2224997  -7.7460012 104.4340012 113.7514997  -8.4000012
 105.0530012 113.8254997  -7.0200012 104.8495585 113.3764468  -7.7374938
 107.2180012 112.1004997  -6.8010012 106.3130012 112.2654997  -7.0660012
 107.6470012 112.9534997  -6.8660012 107.1520799 112.2384483  -6.8460818
 109.8220012 113.6704997  -6.5060012 109.6400012 114.5864997  -6.7160012
 109.9990012 113.2604997  -7.3520012 109.8210210 113.7404822  -6.6492115
  97.1270012 112.3574997  -9.0410012  97.1090012 111.9324997  -8.1830012
  97.9320012 112.0394997  -9.4490012  97.2333875 112.2563812  -8.9788345
  99.2690012 111.0674997 -10.3860012  99.0500012 110.1514997 -10.2160012
 100.0930012 111.2074997  -9.9200012  99.3504420 110.9610520 -10.2997226
 101.8060012 111.5374997  -9.5370012 102.0190012 110.6494997  -9.8240012
 101.8700012 111.5034997  -8.5830012 101.8438231 111.4113102  -9.4472603
 105.3140012  97.2014997 -10.3930012 104.6400012  96.5724997 -10.1370012
 105.8780012  96.7174997 -10.9960012 105.2979230  97.0498744 -10.4394660
 110.4570012  95.3094997 -10.2800012 111.0610012  95.8564997 -10.7820012
 109.5870012  95.6284997 -10.5200012 110.4221241  95.4275806 -10.3812346
 112.1840012  96.4474997 -11.9470012 112.7960012  95.9334997 -12.4730012
 112.5660012  97.3254997 -11.9230012 112.3194540  96.4957140 -12.0158170
  97.6410012  95.8354997 -12.5710012  96.8640012  95.6014997 -13.0780012
  98.1710012  95.0384997 -12.5620012  97.6062330  95.6956988 -12.6392258
  96.4770012  95.6334997 -16.7670012  96.9160012  96.2444997 -17.3590012
  95.8440012  96.1714997 -16.2930012  96.4514514  95.7899257 -16.7839070
 102.2200012  95.7624997 -12.7570012 103.0950012  96.1504997 -12.7870012
 102.0840012  95.5474997 -11.8350012 102.3213695  95.7865184 -12.6363560
 107.7770012  95.7924997 -11.1080012 107.8530012  95.8874997 -12.0580012
 107.5020012  94.8844997 -10.9790012 107.7502321  95.6827867 -11.2204921
 109.1300012  95.8184997 -15.4160012 108.4280012  96.4334997 -15.6250012
 108.6860012  94.9804997 -15.2850012 108.9736330  95.7895783 -15.4269672
  96.3780012 111.5814997 -15.8690012  95.6930012 111.5434997 -16.5370012
  96.3820012 112.4944997 -15.5810012  96.2848193 111.6997016 -15.9214716
  98.3380012  97.5494997 -18.3250012  98.8300012  96.9194997 -18.8520012
  98.9620012  97.8454997 -17.6610012  98.4895446  97.5033199 -18.3074020
 103.3640012  97.8424997 -15.8680012 103.5420012  97.1964997 -15.1850012
 103.3110012  98.6764997 -15.4000012 103.3811829  97.8667985 -15.7114060
 105.2430012 112.7914997 -17.4720012 106.1090012 113.1574997 -17.6500012
 104.9960012 112.3514997 -18.2860012 105.3282392 112.7821756 -17.6063711
 111.9520012 112.3544997 -14.7930012 111.7570012 111.6064997 -15.3580012
 111.9130012 113.1124997 -15.3760012 111.9200380 112.3546099 -14.9491616
  97.5990012  96.3494997  -3.0530012  97.2330012  95.5844997  -2.6100012
  98.5120012  96.3784997  -2.7660012  97.6722790  96.2487224  -2.9535930
  99.5720012  95.7004997  -1.5170012 100.4700012  95.4264997  -1.7020012
  99.1850012  94.9574997  -1.0530012  99.6426612  95.5625914  -1.4796357
  98.1960012 112.5014997 -18.8440012  97.9290012 112.7884997 -17.9710012
  98.9680012 111.9554997 -18.6920012  98.2637488 112.4670294 -18.7038950
 107.9930012  95.0324997  -1.3350012 108.0700012  94.6064997  -0.4810012
 108.8870012  95.0464997  -1.6780012 108.1243428  94.9760879  -1.2644690
 111.1690012 111.1054997  -2.6430012 110.3870012 110.9194997  -3.1620012
 111.0970012 112.0344997  -2.4250012 111.0521777 111.2056492  -2.6845952
 125.5750012 104.9914997 -12.6120012 125.6640012 105.9354997 -12.7440012
 124.9370012 104.7164997 -13.2700012 125.5009081 105.0834830 -12.7190386
 124.5080012 104.2464997  -9.1930012 124.4700012 103.6004997  -8.4880012
 124.1860012 103.7804997  -9.9640012 124.4592333 104.0949408  -9.2007022
 116.8770012 103.8614997  -7.6000012 116.9180012 103.2354997  -6.8770012
 117.5800012 104.4854997  -7.4180012 116.9776363 103.8601196  -7.4763956
 128.2140012 107.1854997 -10.8920012 127.7740012 106.4654997 -10.4410012
 128.2010012 107.9064997 -10.2620012 128.1520226 107.1843731 -10.7451506
 117.8000012 108.3114997  -9.0650012 117.4310012 107.5094997  -9.4350012
 118.7410012 108.1424997  -9.0190012 117.8767289 108.1790153  -9.1093684
 114.4100012 101.9714997 -13.6720012 113.9630012 102.8174997 -13.6910012
 113.8490012 101.3914997 -14.1880012 114.2729900 102.0089916 -13.7443199
 115.1210012 104.1334997 -11.5460012 115.3340012 103.3634997 -11.0190012
 115.8590012 104.2224997 -12.1500012 115.2498496 104.0401394 -11.5554700
 125.3260012 112.2904997 -10.6790012 125.9460012 111.6134997 -10.9530012
 125.1180012 112.0724997  -9.7710012 125.3826904 112.1683870 -10.5936635
 122.8980012 106.6794997  -8.7870012 123.2020012 105.9934997  -9.3820012
 123.6190012 106.7974997  -8.1690012 123.0370671 106.6016305  -8.7848184
 131.5610012  98.2804997  -7.9260012 131.6100012  98.8904997  -7.1900012
 131.9860012  98.7414997  -8.6490012 131.6251824  98.4263741  -7.9229795
 126.0390012 101.0734997  -8.4590012 126.1810012 100.1274997  -8.4390012
 125.9320012 101.2804997  -9.3880012 126.0439864 100.9719534  -8.5817661
 119.1930012  99.1744997 -11.1870012 119.2370012 100.0344997 -11.6050012
 118.7360012  98.6224997 -11.8210012 119.1372185  99.2175799 -11.3299701
 126.9160012  99.3054997 -12.7860012 127.5620012  98.9764997 -12.1610012
 127.4260012  99.8234997 -13.4090012 127.0734264  99.3304611 -12.7846138
 115.8140012 101.5714997 -10.4250012 116.4670012 101.0214997  -9.9930012
 115.8380012 101.2974997 -11.3420012 115.9066683 101.4591466 -10.4897877
 120.9700012 103.1214997 -11.2100012 121.5860012 102.5954997 -10.7000012
 120.3840012 102.4814997 -11.6130012 120.9750810 102.9629208 -11.1946827
 131.9520012  99.7584997  -5.6900012 131.2640012 100.4164997  -5.7860012
 131.9680012  99.5614997  -4.7540012 131.8598525  99.8220462  -5.5765192
 118.0040012  98.0924997  -7.1130012 117.7850012  98.6224997  -7.8790012
 117.3360012  98.3194997  -6.4660012 117.8837600  98.1956906  -7.1303621
 125.3730012 107.5924997 -13.5690012 125.0770012 107.2704997 -14.4200012
 125.0480012 108.4924997 -13.5280012 125.2886371 107.6700215 -13.6798199
 120.5730012 105.7684997  -6.8260012 119.8330012 106.3664997  -6.7220012
 121.2870012 106.3224997  -7.1410012 120.5682237 105.9252831  -6.8543535
 128.6800012  98.5964997 -10.8060012 128.4640012  97.8304997 -10.2730012
 129.3350012  99.0684997 -10.2930012 128.7390632  98.5555889 -10.6637139
 117.5970012  99.9844997  -9.1610012 118.2110012 100.6174997  -8.7870012
 118.1090012  99.5124997  -9.8170012 117.7502296 100.0072370  -9.1985748
 118.9800012 107.7324997  -6.0380012 118.9750012 108.6124997  -6.4160012
 118.1270012 107.6494997  -5.6130012 118.8639464 107.8416117  -6.0322093
 115.1010012 107.4034997 -15.2560012 114.8290012 107.6324997 -16.1450012
 115.1470012 108.2414997 -14.7960012 115.0700094 107.5481213 -15.3154303
 128.7260012 109.0254997  -8.5440012 127.7850012 109.0834997  -8.3820012
 129.0030012 109.9314997  -8.6810012 128.6344679 109.1559443  -8.5403185
 129.0270012  97.3114997  -7.1260012 128.2910012  97.9224997  -7.1640012
 129.7100012  97.7264997  -7.6530012 129.0186541  97.4511374  -7.2024168
 122.0300012  95.3984997  -9.6600012 121.9130012  94.4494997  -9.7150012
 121.1750012  95.7304997  -9.3870012 121.8983733  95.3135409  -9.6306103
 126.9780012 110.8064997 -11.9180012 127.4040012 110.0994997 -12.4030012
 127.2950012 111.6074997 -12.3350012 127.0791019 110.8180994 -12.0406870
 128.1380012 108.7074997 -13.4100012 127.8800012 108.0174997 -14.0210012
 128.2090012 108.2644997 -12.5640012 128.1122856 108.5532124 -13.3793115
 129.8240012 107.2734997  -4.9320012 129.9640012 106.6824997  -5.6720012
 129.9910012 108.1464997  -5.2890012 129.8656778 107.3106426  -5.0813035
 124.2970012 104.2354997 -15.1600012 123.5850012 104.7704997 -15.5120012
 124.9880012 104.2914997 -15.8200012 124.2930132 104.3162543 -15.2973711
 124.3500012 102.6934997 -18.1210012 125.0510012 102.7154997 -17.4700012
 124.6530012 102.0654997 -18.7770012 124.4867830 102.6116566 -18.1206289
 131.6660012 103.6134997  -6.8660012 131.0130012 104.3084997  -6.7770012
 132.1310012 103.8234997  -7.6760012 131.6395390 103.7369425  -6.9633117
 127.7020012 104.4454997 -14.2080012 126.9700012 104.6734997 -13.6350012
 128.1500012 103.7314997 -13.7530012 127.6623095 104.3802571 -14.0680881
 127.6000012 102.6194997  -5.1410012 127.6800012 103.3824997  -4.5690012
 126.9980012 102.8984997  -5.8310012 127.5295756 102.7617134  -5.1559411
 119.3480012 105.0754997 -12.3260012 119.0170012 104.7054997 -13.1440012
 119.9360012 104.4054997 -11.9790012 119.3821873 104.9341156 -12.3911898
 120.7140012 108.5034997  -9.6440012 120.6200012 107.9254997 -10.4010012
 121.4440012 108.1324997  -9.1480012 120.7997981 108.3742390  -9.6805835
 119.7140012 103.8444997  -8.6920012 120.2800012 103.9654997  -9.4550012
 120.0330012 104.4814997  -8.0530012 119.8345786 103.9471884  -8.7099960
 126.0230012 109.3474997  -7.9580012 125.7830012 110.0094997  -7.3100012
 125.8250012 108.5134997  -7.5330012 125.9633808 109.3253134  -7.8118476
 120.5940012 108.2434997  -3.9750012 120.2830012 109.0254997  -3.5200012
 119.9440012 108.0904997  -4.6610012 120.4635558 108.3299105  -4.0054129
 126.5730012 103.6074997 -16.5230012 127.1530012 103.7574997 -15.7760012
 126.9870012 104.0784997 -17.2460012 126.7082830 103.6916841 -16.5185866
 117.5140012 104.4414997  -4.7460012 117.5850012 105.0924997  -4.0480012
 116.6240012 104.5444997  -5.0810012 117.4033117 104.5445936  -4.6957300
 124.3000012 110.3444997 -13.0880012 124.7740012 110.6394997 -12.3100012
 123.7370012 111.0824997 -13.3210012 124.2887653 110.4846932 -13.0129864
 118.8340012 110.3154997  -3.2120012 118.8410012 110.1794997  -4.1590012
 117.9180012 110.1974997  -2.9600012 118.7111714 110.2809430  -3.3075334
 130.2720012  95.3574997 -16.7100012 129.3720012  95.4964997 -16.4150012
 130.5240012  96.1884997 -17.1120012 130.1828702  95.4889074 -16.7239795
 118.3380012 104.1454997 -14.7360012 118.0460012 104.9134997 -15.2270012
 117.6640012 103.4854997 -14.8990012 118.2069081 104.1614406 -14.8252660
 131.4610012 109.7234997 -18.3340012 131.5350012 110.6624997 -18.1630012
 132.3670012 109.4184997 -18.3900012 131.5935100 109.8106722 -18.3181881
 114.4310012 106.5084997  -5.9210012 113.9300012 106.4804997  -6.7360012
 114.4360012 105.6024997  -5.6120012 114.3631526 106.3822278  -5.9907128
 114.1810012 109.2884997  -9.0370012 115.1270012 109.1444997  -9.0560012
 114.0690012 110.0724997  -8.5000012 114.2952727 109.3748046  -8.9669928
 132.3790012 109.9544997  -3.3550012 132.3300012 108.9994997  -3.3920012
 131.5520012 110.2224997  -2.9540012 132.2604940 109.8598998  -3.3058625
 123.3580012 109.5284997  -4.4790012 123.4450012 110.3544997  -4.0040012
 122.4940012 109.1984997  -4.2300012 123.2531964 109.5969878  -4.3803451
 123.7720012 113.3004997 -14.6730012 123.6970012 113.1794997 -15.6190012
 123.8050012 114.2504997 -14.5540012 123.7661848 113.4122500 -14.7865166
 117.4250012 112.0894997 -12.8920012 117.5780012 111.7414997 -12.0130012
 116.5750012 111.7334997 -13.1470012 117.3308962 111.9936650 -12.8061660
 126.8740012 112.4544997 -17.6710012 127.2490012 111.7104997 -18.1410012
 126.8780012 112.1844997 -16.7520012 126.9258915 112.3161486 -17.6112176
 126.5430012 112.3804997 -14.9210012 125.6070012 112.4804997 -14.7430012
 126.8230012 111.6714997 -14.3430012 126.4528255 112.2982711 -14.8184609
 129.5310012 101.4474997  -2.8750012 129.1240012 101.9284997  -3.5960012
 129.5720012 100.5424997  -3.1830012 129.4808437 101.3909374  -3.0153317
 116.6800012 107.8314997  -4.8780012 116.8960012 107.4704997  -4.0190012
 115.8250012 107.4574997  -5.0880012 116.5939292 107.7314111  -4.7886614
 119.2990012  96.3014997  -8.8830012 118.4370012  96.2144997  -9.2900012
 119.2760012  97.1574997  -8.4550012 119.1780330  96.4052765  -8.8808137
 123.9620012  96.0234997  -5.5080012 124.3820012  95.6084997  -4.7550012
 123.0290012  95.8454997  -5.3910012 123.8933644  95.9425900  -5.3890461
 127.2880012  99.7794997  -4.6550012 126.7740012  99.6534997  -3.8570012
 127.1330012 100.6914997  -4.8990012 127.1966852  99.8856132  -4.5787842
 128.0510012 104.6404997 -18.8930012 128.0930012 104.4174997 -19.8230012
 128.9000012 105.0394997 -18.7030012 128.1715396 104.6639155 -18.9946373
 123.6230012  98.5164997 -18.2230012 123.3700012  98.5354997 -17.3000012
 123.3670012  97.6444997 -18.5240012 123.5537790  98.4012437 -18.1373737
 119.3900012 101.2674997  -7.7880012 118.7480012 101.2264997  -7.0790012
 119.4270012 102.1934997  -8.0250012 119.3071324 101.3871559  -7.7230176
 119.3870012 101.4884997 -12.8760012 118.4940012 101.1474997 -12.9340012
 119.8370012 101.1114997 -13.6310012 119.3257305 101.3908484 -12.9860823
 124.9220012 101.9044997 -14.0590012 124.5130012 102.7194997 -14.3500012
 125.6430012 101.7644997 -14.6730012 124.9634537 101.9972018 -14.1818658
 124.0240012 102.0794997  -2.5710012 123.4620012 101.3754997  -2.2500012
 124.8510012 101.9594997  -2.1030012 124.0587095 101.9667883  -2.4637670
 125.9270012 101.3504997 -11.2450012 125.7320012 101.9554997 -11.9600012
 126.1080012 100.5164997 -11.6790012 125.9247614 101.3206300 -11.4015595
 117.1400012 101.5874997  -5.9210012 117.1020012 101.9874997  -5.0520012
 116.6490012 100.7704997  -5.8300012 117.0684684 101.5318069  -5.7898941
 120.5060012  98.9614997 -19.1220012 120.0750012  98.5164997 -18.3920012
 119.7880012  99.3334997 -19.6340012 120.3499438  98.9508940 -19.0913201
 113.7480012  98.7034997 -12.0700012 114.3790012  98.6744997 -11.3510012
 114.1970012  98.2784997 -12.8000012 113.8950774  98.6420492 -12.0703447
 115.0220012  99.4494997 -16.6460012 115.4960012 100.0404997 -17.2310012
 114.3050012  99.9804997 -16.2990012 114.9899341  99.6020867 -16.6791164
 125.1910012 102.9884997  -6.5730012 125.5140012 102.3574997  -7.2160012
 124.7510012 102.4534997  -5.9130012 125.1756895 102.8298441  -6.5717150
 121.9680012  98.9154997 -11.7890012 121.0570012  98.9724997 -11.5010012
 122.4740012  98.8554997 -10.9790012 121.9115413  98.9151985 -11.6399378
 116.7970012 100.5444997 -12.9630012 115.9070012 100.6444997 -13.3030012
 117.0930012  99.7024997 -13.3090012 116.7152823 100.4443546 -13.0562787
 120.4500012 100.5444997 -15.3060012 121.3810012 100.6734997 -15.1280012
 120.2350012 101.2144997 -15.9560012 120.5484247 100.6526565 -15.3694253
 126.3730012  98.1504997  -8.5250012 125.6970012  98.2814997  -7.8610012
 125.8880012  97.9954997  -9.3350012 126.2147145  98.1474905  -8.5435483
 119.1240012 101.7394997 -17.7390012 118.5810012 101.3594997 -18.4310012
 119.9570012 101.9334997 -18.1680012 119.1624399 101.7138124 -17.8915474
 129.6610012 113.8224997  -2.2480012 129.8610012 114.2464997  -3.0830012
 130.3160012 114.1654997  -1.6410012 129.7770051 113.9269648  -2.2802164
 117.2590012 106.2964997  -2.6400012 117.9910012 106.5504997  -2.0790012
 116.4790012 106.5004997  -2.1250012 117.2538232 106.3589177  -2.4934240
 123.2880012 101.7034997  -9.9020012 123.8530012 101.1564997 -10.4490012
 123.1410012 101.1814997  -9.1140012 123.3452918 101.5582024  -9.8701546
 118.2900012  97.8394997 -13.4840012 117.9730012  96.9374997 -13.5190012
 119.0720012  97.8414997 -14.0370012 118.3522284  97.7161628 -13.5635217
 121.9150012 100.0914997  -7.4880012 121.0790012 100.5454997  -7.3780012
 122.4390012 100.3674997  -6.7360012 121.8714414 100.1909376  -7.3712864
 122.4590012 106.3044997 -15.8040012 121.7140012 105.7974997 -16.1260012
 122.3250012 106.3534997 -14.8570012 122.3388776 106.2416940 -15.7201353
 129.6090012 105.4374997  -7.0170012 130.2510012 105.8944997  -7.5610012
 128.7790012 105.5504997  -7.4800012 129.5845963 105.5152704  -7.1539823
 126.3570012  99.1184997 -17.6040012 125.4180012  99.2304997 -17.7560012
 126.6540012  99.9754997 -17.2980012 126.2687666  99.2496443 -17.5834232
 123.9780012 106.4884997  -4.5670012 123.6330012 106.1074997  -3.7600012
 123.7780012 107.4224997  -4.4950012 123.9038061 106.5625228  -4.4469039
 127.0750012 100.9854997 -15.9440012 127.9670012 100.8484997 -15.6250012
 127.1320012 101.7764997 -16.4800012 127.2046285 101.0736660 -15.9728310
 117.5840012 105.5994997 -10.0340012 118.3290012 105.5974997 -10.6350012
 117.6620012 104.7764997  -9.5520012 117.6965518 105.4879315 -10.0511071
 124.5850012 107.7634997 -16.7780012 124.2890012 108.5894997 -16.3970012
 123.8820012 107.1434997 -16.5820012 124.4494914 107.7928199 -16.6993557
 114.5920012 104.0604997  -4.7190012 114.8150012 103.6424997  -3.8870012
 113.9900012 103.4474997  -5.1420012 114.5411759 103.9204668  -4.6622978
 121.6080012 103.5774997  -2.5060012 121.3120012 103.4114997  -3.4010012
 122.5400012 103.3574997  -2.5170012 121.6934166 103.5250640  -2.6299464
 126.2290012 108.9504997  -4.6160012 125.3280012 109.1334997  -4.8840012
 126.2630012 109.2094997  -3.6950012 126.1103041 109.0105512  -4.5281803
 131.9600012 101.1954997 -16.2490012 131.4060012 100.7994997 -16.9210012
 132.0600012 102.1054997 -16.5270012 131.8977059 101.2643586 -16.3785599
 131.9230012 106.9954997  -3.4120012 131.0720012 107.2334997  -3.7790012
 132.5140012 106.9784997  -4.1650012 131.8862487 107.0258258  -3.5641107
 130.2550012 109.9814997 -15.7840012 129.8820012 109.1554997 -15.4750012
 130.5330012 109.7984997 -16.6810012 130.2415630 109.8437303 -15.8630374
 127.4160012 104.7894997  -8.7630012 126.4870012 104.5574997  -8.7900012
 127.8670012 104.0124997  -9.0930012 127.3499216 104.6527238  -8.8113083
 119.9590012 109.1174997 -12.6300012 120.4860012 109.8904997 -12.8300012
 119.0790012 109.3424997 -12.9310012 119.9121773 109.2538005 -12.6980990
 115.7140012 103.9794997 -18.0430012 116.3300012 104.6064997 -17.6630012
 114.8520012 104.2954997 -17.7710012 115.6817698 104.1079430 -17.9542817
 121.3860012 106.7804997 -13.0530012 121.1450012 107.7054997 -13.0120012
 120.6450012 106.3214997 -12.6570012 121.2528409 106.8451421 -12.9938623
 121.9010012 110.9294997  -6.7380012 122.2630012 111.7844997  -6.9720012
 122.4320012 110.6374997  -5.9980012 122.0224473 111.0071060  -6.6699145
 120.0690012 111.8024997 -13.5080012 119.1190012 111.9074997 -13.4570012
 120.4210012 112.6224997 -13.1630012 119.9864203 111.9278314 -13.4543350
 125.4450012 107.0284997  -7.0380012 125.0190012 106.8014997  -6.2110012
 126.0250012 106.2904997  -7.2200012 125.4651868 106.8975299  -6.9494170
 127.6480012 107.9574997 -17.9640012 128.0010012 107.5774997 -17.1590012
 126.6990012 107.8644997 -17.8770012 127.5680441 107.8929596 -17.8421441
 128.1030012 111.5804997  -4.5680012 127.5020012 111.0254997  -5.0640012
 128.3850012 112.2474997  -5.1940012 128.0588519 111.5946841  -4.7205048
 132.1510012 112.4374997 -17.7630012 132.8950012 113.0234997 -17.9030012
 131.4570012 113.0054997 -17.4290012 132.1590292 112.5945582 -17.7370039
 116.2260012  98.8134997  -5.1610012 115.3330012  99.1524997  -5.2290012
 116.1270012  97.9584997  -4.7430012 116.0904164  98.7442588  -5.1137765
 128.5140012 106.6304997 -15.7370012 128.2360012 105.9024997 -15.1810012
 129.4410012 106.7494997 -15.5320012 128.6013124 106.5468802 -15.6331155
 115.8770012 110.6184997  -6.7260012 116.0940012 109.6864997  -6.7570012
 116.1230012 110.8924997  -5.8430012 115.9399549 110.5280636  -6.6108237
 121.7390012 109.0694997 -19.5170012 121.9780012 108.3214997 -20.0640012
 121.4700012 108.6814997 -18.6840012 121.7353675 108.9146638 -19.4793135
 120.6760012 108.6394997 -17.0600012 120.8220012 108.1194997 -16.2700012
 120.6730012 109.5464997 -16.7540012 120.6955989 108.6908853 -16.9103912
 117.1290012 105.8924997 -16.5500012 116.4430012 106.2444997 -15.9830012
 117.6510012 106.6554997 -16.7970012 117.1056852 106.0438578 -16.5057882
 124.9600012  98.5544997  -6.2710012 125.6590012  98.6284997  -5.6210012
 124.5790012  97.6904997  -6.1170012 125.0041767  98.4477624  -6.1611678
 125.7450012  98.2064997 -15.1740012 125.9650012  98.6784997 -15.9770012
 126.3030012  98.6014997 -14.5040012 125.8504968  98.3244285 -15.1932669
 123.4130012 110.3374997 -16.3110012 122.5970012 110.8344997 -16.2590012
 123.9430012 110.8124997 -16.9510012 123.3729161 110.4697722 -16.3904044
 122.9450012  99.9344997 -14.3390012 123.7570012 100.4394997 -14.2930012
 122.7000012  99.7894997 -13.4250012 123.0230520  99.9840375 -14.2091483
 123.4800012 100.9204997  -5.1540012 123.5990012 101.4944997  -4.3970012
 124.1360012 100.2324997  -5.0400012 123.5849757 100.9061079  -5.0349175
 123.8280012  97.0154997 -13.4010012 123.4820012  97.6334997 -12.7560012
 124.4870012  97.5164997 -13.8820012 123.8697826  97.1675802 -13.3779029
 120.7520012 111.3814997 -16.3290012 120.9120012 112.1804997 -16.8300012
 120.5540012 111.6874997 -15.4440012 120.7471649 111.5324469 -16.2780185
 119.4860012  98.0784997 -16.7140012 119.4030012  98.9674997 -16.3670012
 120.3760012  97.8134997 -16.4820012 119.5949469  98.1641430 -16.6352374
 129.6850012  98.8274997  -4.3190012 128.7680012  99.0904997  -4.4070012
 130.0200012  98.8244997  -5.2160012 129.6049900  98.8630224  -4.4522081
 128.2870012 102.5784997 -10.2240012 127.4890012 102.1634997 -10.5520012
 128.7320012 101.8874997  -9.7330012 128.2379885 102.4283543 -10.2025111
 117.7450012 108.5064997 -17.6530012 118.3370012 109.2054997 -17.3770012
 118.2040012 108.0734997 -18.3730012 117.8881142 108.5437049 -17.7125170
 116.0610012 101.1704997 -18.5370012 116.0160012 102.1094997 -18.3590012
 115.1730012 100.9344997 -18.8070012 115.9348574 101.2671892 -18.5491088
 129.3730012 111.8344997  -8.6010012 129.2180012 112.5124997  -9.2580012
 130.3060012 111.9064997  -8.3980012 129.4778500 111.9370170  -8.6634881
 116.8690012  95.9524997  -9.8640012 116.6400012  96.0114997 -10.7920012
 116.4260012  95.1604997  -9.5580012 116.7778530  95.8535753  -9.9495214
 115.7990012 109.8924997 -13.7040012 114.9670012 110.3654997 -13.6760012
 116.3450012 110.4024997 -14.3020012 115.7589739 110.0261871 -13.7810284
 115.0870012 112.5054997  -2.3740012 115.6280012 112.2884997  -1.6140012
 114.6060012 111.6994997  -2.5630012 115.0959345 112.3669514  -2.2956924
 119.6850012 111.4244997  -0.7530012 120.4520012 110.9654997  -0.4120012
 119.6630012 111.1984997  -1.6830012 119.7871434 111.3310409  -0.8319957
 123.7770012 110.9324997 -19.3780012 123.1330012 110.3014997 -19.0570012
 124.5390012 110.4014997 -19.6100012 123.7918077 110.7742920 -19.3653989
 126.2620012 109.8044997  -2.0240012 125.9110012 108.9484997  -1.7810012
 126.9880012 109.9474997  -1.4170012 126.3120769 109.7065636  -1.9086381
 128.3810012 110.7494997 -19.1440012 128.6640012 109.9554997 -18.6920012
 129.1210012 110.9824997 -19.7050012 128.5197486 110.6722803 -19.1579302
 114.9940012 106.3154997  -1.4190012 115.1380012 105.4134997  -1.7060012
 114.2220012 106.6014997  -1.9070012 114.9093322 106.2308261  -1.5242119
 119.3360012 106.6594997 -19.2870012 119.4000012 105.8654997 -18.7560012
 119.9890012 106.5404997 -19.9770012 119.4330241 106.5347148 -19.3075683
 121.6500012 106.2854997  -1.9870012 121.3210012 106.5564997  -2.8440012
 121.8020012 105.3444997  -2.0740012 121.6254809 106.1953862  -2.1161756
 127.3840012 106.2014997  -4.6030012 128.1300012 106.7894997  -4.7230012
 126.6270012 106.7834997  -4.5400012 127.3837554 106.3607011  -4.6109093
 115.8270012 103.5154997  -1.9990012 116.2350012 102.6584997  -2.1200012
 115.5670012 103.5304997  -1.0780012 115.8477568 103.4000807  -1.8910412
 120.4850012 104.6314997 -16.9810012 120.0250012 104.1474997 -16.2950012
 120.7400012 103.9634997 -17.6170012 120.4564902 104.4748731 -16.9730666
 119.7740012 102.5244997  -4.6250012 119.1560012 103.1994997  -4.3450012
 120.1180012 102.8454997  -5.4580012 119.7359615 102.6602721  -4.6993419
 121.5560012 102.8744997 -18.7190012 121.3760012 102.7204997 -19.6460012
 122.5060012 102.9824997 -18.6740012 121.6597776 102.8680175 -18.8398157
 124.7940012 104.9964997  -1.3480012 125.7470012 105.0794997  -1.3750012
 124.6330012 104.2844997  -0.7280012 124.9026426 104.9116746  -1.2679422
 130.9460012 105.2294997 -19.2730012 130.6720012 104.8044997 -20.0860012
 130.9850012 106.1604997 -19.4900012 130.9137699 105.2972484 -19.4136390
 120.1130012  99.8794997  -3.5430012 120.2630012  99.1504997  -4.1450012
 120.1160012 100.6564997  -4.1020012 120.1339302  99.8847851  -3.7009308
 120.5260012  98.2494997  -6.0500012 121.0620012  98.7004997  -6.7020012
 119.6740012  98.1414997  -6.4730012 120.4842178  98.2966390  -6.1964244
 122.1080012 103.6884997  -5.8110012 122.8580012 103.5324997  -6.3840012
 121.7690012 104.5404997  -6.0860012 122.1648921 103.7822968  -5.9266439
 126.5230012 101.5034997  -0.7820012 126.7160012 100.5724997  -0.8940012
 127.3810012 101.9284997  -0.7920012 126.6653020 101.4336389  -0.7986639
 127.8400012 104.2924997  -2.7050012 127.5590012 105.0014997  -3.2820012
 128.7830012 104.2194997  -2.8560012 127.9289027 104.3797646  -2.8044449
 118.5920012 101.0774997  -1.6310012 117.8250012 100.5454997  -1.8410012
 119.2710012 100.7674997  -2.2310012 118.5787022 100.9627506  -1.7408352
 121.3320012  95.7054997  -5.6190012 121.2330012  96.6524997  -5.7240012
 120.5890012  95.3334997  -6.0940012 121.2180564  95.7845902  -5.6975440
 122.5960012 100.0274997  -2.0550012 122.3600012  99.8074997  -1.1530012
 121.8120012  99.8204997  -2.5650012 122.4578628  99.9694760  -2.0006068
 125.3110012  99.1544997  -2.9790012 124.3640012  99.1864997  -2.8470012
 125.6240012  98.5294997  -2.3260012 125.2235475  99.0743207  -2.8725545
 126.9450012  97.7884997  -0.9740012 126.8490012  96.8364997  -0.9800012
 126.6240012  98.0574997  -0.1140012 126.8884070  97.6944035  -0.8584559
 116.7720012  98.9984997  -1.9270012 116.9840012  98.2914997  -2.5370012
 116.6610012  98.5604997  -1.0830012 116.7859721  98.8427084  -1.8963157
 121.5530012  94.9994997  -2.9470012 122.2650012  94.3594997  -2.9610012
 121.4520012  95.2664997  -3.8610012 121.6367939  94.9479938  -3.0724350
 121.9070012  96.6824997  -0.8940012 121.7750012  96.2064997  -1.7140012
 121.3080012  97.4264997  -0.9490012 121.8079071  96.7179618  -1.0137114
 121.4530012 113.5654997 -17.7170012 122.3860012 113.7234997 -17.5740012
 121.1890012 114.2404997 -18.3420012 121.5449510 113.6783611 -17.7819259
 115.0220012 108.2014997 -18.2350012 115.9360012 108.2804997 -17.9610012
 115.0290012 107.5144997 -18.9010012 115.1481131 108.1193961 -18.2875607
 113.6710012 113.5944997 -13.1570012 113.0240012 113.1324997 -13.6900012
 114.0250012 112.9224997 -12.5750012 113.6303849 113.4404723 -13.1512041
 114.5410012 111.6754997 -11.3530012 114.2060012 110.7954997 -11.1810012
 114.7630012 112.0204997 -10.4880012 114.5251783 111.6017500 -11.2125792
 132.0890012 112.4844997  -8.3720012 132.0680012 112.6694997  -7.4330012
 132.7800012 113.0534997  -8.7130012 132.1794618 112.5866606  -8.2896136
 131.6530012 112.0524997  -5.4500012 131.1650012 111.3164997  -5.8210012
 132.2020012 111.6584997  -4.7720012 131.6604872 111.8986249  -5.4090840
 130.1030012 107.8414997  -0.8120012 129.2370012 107.7364997  -0.4180012
 130.4800012 108.6004997  -0.3660012 130.0353308 107.9296900  -0.6977607
 131.4040012 106.0984997 -15.2980012 132.2540012 106.5194997 -15.1710012
 131.4100012 105.3584997 -14.6910012 131.5211372 106.0560803 -15.1985656
 131.7990012 104.1514997 -13.4740012 131.0720012 103.6724997 -13.0770012
 132.3800012 104.3574997 -12.7420012 131.7779375 104.1137090 -13.3205871
 131.5580012 106.9364997  -8.5270012 132.3910012 106.5584997  -8.8070012
 131.6700012 107.8794997  -8.6460012 131.6872647 107.0122218  -8.5814513
 130.0440012 109.8144997  -6.2200012 129.3970012 110.1394997  -5.5940012
 129.5270012 109.3744997  -6.8940012 129.8854029 109.7995004  -6.2254173
 132.0670012 104.0524997 -17.0830012 131.5450012 104.4094997 -17.8020012
 132.0340012 104.7274997 -16.4050012 131.9911634 104.1925413 -17.0896855
 130.4160012 101.2924997 -18.5320012 130.5120012 101.9594997 -19.2130012
 130.2760012 100.4764997 -19.0140012 130.4102135 101.2734500 -18.6901509
 129.5850012 102.6724997 -12.9110012 129.4350012 101.7274997 -12.9320012
 129.2320012 102.9534997 -12.0680012 129.5166625 102.5810441 -12.7997654
 114.6210012 104.7504997  -8.9010012 114.8050012 104.6684997  -9.8370012
 115.4700012 104.6264997  -8.4770012 114.7610139 104.7225003  -8.9718545
 130.4420012 104.6424997  -3.2730012 131.0250012 103.9084997  -3.0810012
 131.0060012 105.4144997  -3.2260012 130.5979769 104.6464227  -3.2403841
 131.9380012 102.5454997  -2.5880012 131.0750012 102.1664997  -2.7540012
 132.5430012 101.8064997  -2.6620012 131.9015979 102.3938023  -2.6207183
 129.6630012  98.7004997 -19.4150012 130.2740012  98.3294997 -18.7780012
 128.8270012  98.2794997 -19.2190012 129.6335032  98.5927554 -19.3012965
 129.2960012 100.2554997 -14.4490012 129.5760012  99.3484997 -14.3250012
 130.0550012 100.6894997 -14.8380012 129.4369277 100.1900942 -14.4846318
 129.9080012 100.8364997  -9.0130012 130.8410012 101.0484997  -9.0470012
 129.6730012 100.9384997  -8.0910012 130.0038036 100.8792769  -8.8930024
 129.9370012 101.5734997  -6.2370012 129.0940012 101.8414997  -5.8710012
 130.3790012 102.3954997  -6.4480012 129.8814158 101.7213291  -6.2154509
 114.2180012 100.0214997  -2.7600012 115.1380012  99.8994997  -2.5240012
 113.7690012  99.2714997  -2.3710012 114.2831580  99.9033727  -2.6750994
 132.2200012  95.5534997  -0.8840012 132.5700012  94.8994997  -1.4890012
 132.3670012  96.3904997  -1.3230012 132.2878419  95.5771591  -1.0262882
 129.9090012  97.5184997 -14.4010012 130.0920012  97.0694997 -13.5750012
 129.3100012  96.9334997 -14.8640012 129.8530202  97.3779975 -14.3506725
 115.4390012  98.3334997  -9.8690012 115.8850012  97.5414997  -9.5670012
 115.9060012  99.0494997  -9.4380012 115.5630172  98.3220624  -9.7695180
 113.7430012 101.3324997  -8.8000012 114.2350012 101.1114997  -9.5910012
 114.1060012 102.1734997  -8.5190012 113.8593126 101.4158357  -8.8702469
 131.7400012  97.6624997  -2.5340012 130.8220012  97.9334997  -2.5700012
 131.8630012  97.1274997  -3.3190012 131.6311066  97.6272892  -2.6449513
 131.7760012  97.5854997 -17.8730012 132.1880012  96.8644997 -18.3480012
 132.4580012  98.2554997 -17.8140012 131.9245885  97.5772368 -17.9301085
 114.0570012  97.5904997 -14.7460012 113.1320012  97.7994997 -14.8750012
 114.5110012  98.0744997 -15.4350012 113.9917368  97.6845993 -14.8568774
 128.8280012 112.5744997 -12.8000012 129.4800012 112.2274997 -13.4080012
 129.3380012 113.0634997 -12.1540012 128.9862637 112.5930597 -12.7959764
 114.0210012  96.3284997  -6.4010012 113.3560012  96.0824997  -5.7580012
 113.5780012  96.9504997  -6.9790012 113.8700956  96.3788632  -6.3910648
 116.2130012 109.5034997  -2.2570012 115.3920012 109.6784997  -2.7170012
 115.9600012 109.4304997  -1.3360012 116.0666164 109.5175622  -2.1955077
 119.1670012 110.4784997  -5.9980012 118.7420012 111.2874997  -6.2810012
 120.0710012 110.5634997  -6.3000012 119.2310271 110.6008469  -6.0776224
 123.4780012 111.8774997  -3.0390012 123.6630012 111.5434997  -2.1610012
 124.3240012 112.1864997  -3.3610012 123.6177539 111.8736047  -2.9624395
 125.8230012 113.1634997  -3.7950012 126.5000012 112.5304997  -4.0350012
 126.1450012 113.5644997  -2.9880012 125.9591637 113.1311154  -3.7187207
 130.7400012  95.7524997  -4.7150012 129.9280012  96.0774997  -5.1030012
 130.9730012  94.9924997  -5.2480012 130.6603423  95.6942436  -4.8401747
 116.5690012 113.7344997  -5.9510012 115.8480012 114.1744997  -6.4020012
 116.2030012 113.4834997  -5.1020012 116.4209804 113.7607698  -5.8980160
 119.0360012 113.3344997  -6.9210012 118.1710012 113.4064997  -6.5170012
 118.9810012 113.8814997  -7.7050012 118.9102085 113.4182685  -6.9716638
 123.7460012 113.2224997  -7.7460012 123.2900012 113.7514997  -8.4000012
 123.9090012 113.8254997  -7.0200012 123.7055585 113.3764468  -7.7374938
 126.0740012 112.1004997  -6.8010012 125.1690012 112.2654997  -7.0660012
 126.5030012 112.9534997  -6.8660012 126.0080799 112.2384483  -6.8460818
 128.6780012 113.6704997  -6.5060012 128.4960012 114.5864997  -6.7160012
 128.8550012 113.2604997  -7.3520012 128.6770210 113.7404822  -6.6492115
 115.9830012 112.3574997  -9.0410012 115.9650012 111.9324997  -8.1830012
 116.7880012 112.0394997  -9.4490012 116.0893875 112.2563812  -8.9788345
 118.1250012 111.0674997 -10.3860012 117.9060012 110.1514997 -10.2160012
 118.9490012 111.2074997  -9.9200012 118.2064420 110.9610520 -10.2997226
 120.6620012 111.5374997  -9.5370012 120.8750012 110.6494997  -9.8240012
 120.7260012 111.5034997  -8.5830012 120.6998231 111.4113102  -9.4472603
 124.1700012  97.2014997 -10.3930012 123.4960012  96.5724997 -10.1370012
 124.7340012  96.7174997 -10.9960012 124.1539230  97.0498744 -10.4394660
 129.3130012  95.3094997 -10.2800012 129.9170012  95.8564997 -10.7820012
 128.4430012  95.6284997 -10.5200012 129.2781241  95.4275806 -10.3812346
 131.0400012  96.4474997 -11.9470012 131.6520012  95.9334997 -12.4730012
 131.4220012  97.3254997 -11.9230012 131.1754540  96.4957140 -12.0158170
 116.4970012  95.8354997 -12.5710012 115.7200012  95.6014997 -13.0780012
 117.0270012  95.0384997 -12.5620012 116.4622330  95.6956988 -12.6392258
 115.3330012  95.6334997 -16.7670012 115.7720012  96.2444997 -17.3590012
 114.7000012  96.1714997 -16.2930012 115.3074514  95.7899257 -16.7839070
 121.0760012  95.7624997 -12.7570012 121.9510012  96.1504997 -12.7870012
 120.9400012  95.5474997 -11.8350012 121.1773695  95.7865184 -12.6363560
 126.6330012  95.7924997 -11.1080012 126.7090012  95.8874997 -12.0580012
 126.3580012  94.8844997 -10.9790012 126.6062321  95.6827867 -11.2204921
 127.9860012  95.8184997 -15.4160012 127.2840012  96.4334997 -15.6250012
 127.5420012  94.9804997 -15.2850012 127.8296330  95.7895783 -15.4269672
 115.2340012 111.5814997 -15.8690012 114.5490012 111.5434997 -16.5370012
 115.2380012 112.4944997 -15.5810012 115.1408193 111.6997016 -15.9214716
 117.1940012  97.5494997 -18.3250012 117.6860012  96.9194997 -18.8520012
 117.8180012  97.8454997 -17.6610012 117.3455446  97.5033199 -18.3074020
 122.2200012  97.8424997 -15.8680012 122.3980012  97.1964997 -15.1850012
 122.1670012  98.6764997 -15.4000012 122.2371829  97.8667985 -15.7114060
 124.0990012 112.7914997 -17.4720012 124.9650012 113.1574997 -17.6500012
 123.8520012 112.3514997 -18.2860012 124.1842392 112.7821756 -17.6063711
 130.8080012 112.3544997 -14.7930012 130.6130012 111.6064997 -15.3580012
 130.7690012 113.1124997 -15.3760012 130.7760380 112.3546099 -14.9491616
 116.4550012  96.3494997  -3.0530012 116.0890012  95.5844997  -2.6100012
 117.3680012  96.3784997  -2.7660012 116.5282790  96.2487224  -2.9535930
 118.4280012  95.7004997  -1.5170012 119.3260012  95.4264997  -1.7020012
 118.0410012  94.9574997  -1.0530012 118.4986612  95.5625914  -1.4796357
 117.0520012 112.5014997 -18.8440012 116.7850012 112.7884997 -17.9710012
 117.8240012 111.9554997 -18.6920012 117.1197488 112.4670294 -18.7038950
 126.8490012  95.0324997  -1.3350012 126.9260012  94.6064997  -0.4810012
 127.7430012  95.0464997  -1.6780012 126.9803428  94.9760879  -1.2644690
 130.0250012 111.1054997  -2.6430012 129.2430012 110.9194997  -3.1620012
 129.9530012 112.0344997  -2.4250012 129.9081777 111.2056492  -2.6845952
 144.4310012 104.9914997 -12.6120012 144.5200012 105.9354997 -12.7440012
 143.7930012 104.7164997 -13.2700012 144.3569081 105.0834830 -12.7190386
 143.3640012 104.2464997  -9.1930012 143.3260012 103.6004997  -8.4880012
 143.0420012 103.7804997  -9.9640012 143.3152333 104.0949408  -9.2007022
 135.7330012 103.8614997  -7.6000012 135.7740012 103.2354997  -6.8770012
 136.4360012 104.4854997  -7.4180012 135.8336363 103.8601196  -7.4763956
 136.6560012 108.3114997  -9.0650012 136.2870012 107.5094997  -9.4350012
 137.5970012 108.1424997  -9.0190012 136.7327289 108.1790153  -9.1093684
 133.2660012 101.9714997 -13.6720012 132.8190012 102.8174997 -13.6910012
 132.7050012 101.3914997 -14.1880012 133.1289900 102.0089916 -13.7443199
 133.9770012 104.1334997 -11.5460012 134.1900012 103.3634997 -11.0190012
 134.7150012 104.2224997 -12.1500012 134.1058496 104.0401394 -11.5554700
 144.1820012 112.2904997 -10.6790012 144.8020012 111.6134997 -10.9530012
 143.9740012 112.0724997  -9.7710012 144.2386904 112.1683870 -10.5936635
 141.7540012 106.6794997  -8.7870012 142.0580012 105.9934997  -9.3820012
 142.4750012 106.7974997  -8.1690012 141.8930671 106.6016305  -8.7848184
 144.8950012 101.0734997  -8.4590012 145.0370012 100.1274997  -8.4390012
 144.7880012 101.2804997  -9.3880012 144.8999863 100.9719534  -8.5817661
 138.0490012  99.1744997 -11.1870012 138.0930012 100.0344997 -11.6050012
 137.5920012  98.6224997 -11.8210012 137.9932185  99.2175799 -11.3299701
 134.6700012 101.5714997 -10.4250012 135.3230012 101.0214997  -9.9930012
 134.6940012 101.2974997 -11.3420012 134.7626683 101.4591466 -10.4897877
 139.8260012 103.1214997 -11.2100012 140.4420012 102.5954997 -10.7000012
 139.2400012 102.4814997 -11.6130012 139.8310810 102.9629208 -11.1946827
 136.8600012  98.0924997  -7.1130012 136.6410012  98.6224997  -7.8790012
 136.1920012  98.3194997  -6.4660012 136.7397600  98.1956906  -7.1303621
 144.2290012 107.5924997 -13.5690012 143.9330012 107.2704997 -14.4200012
 143.9040012 108.4924997 -13.5280012 144.1446371 107.6700215 -13.6798199
 139.4290012 105.7684997  -6.8260012 138.6890012 106.3664997  -6.7220012
 140.1430012 106.3224997  -7.1410012 139.4242237 105.9252831  -6.8543535
 136.4530012  99.9844997  -9.1610012 137.0670012 100.6174997  -8.7870012
 136.9650012  99.5124997  -9.8170012 136.6062296 100.0072370  -9.1985748
 137.8360012 107.7324997  -6.0380012 137.8310012 108.6124997  -6.4160012
 136.9830012 107.6494997  -5.6130012 137.7199464 107.8416117  -6.0322093
 133.9570012 107.4034997 -15.2560012 133.6850012 107.6324997 -16.1450012
 134.0030012 108.2414997 -14.7960012 133.9260094 107.5481213 -15.3154303
 140.8860012  95.3984997  -9.6600012 140.7690012  94.4494997  -9.7150012
 140.0310012  95.7304997  -9.3870012 140.7543733  95.3135409  -9.6306103
 143.1530012 104.2354997 -15.1600012 142.4410012 104.7704997 -15.5120012
 143.8440012 104.2914997 -15.8200012 143.1490132 104.3162543 -15.2973711
 143.2060012 102.6934997 -18.1210012 143.9070012 102.7154997 -17.4700012
 143.5090012 102.0654997 -18.7770012 143.3427830 102.6116566 -18.1206289
 138.2040012 105.0754997 -12.3260012 137.8730012 104.7054997 -13.1440012
 138.7920012 104.4054997 -11.9790012 138.2381873 104.9341156 -12.3911898
 139.5700012 108.5034997  -9.6440012 139.4760012 107.9254997 -10.4010012
 140.3000012 108.1324997  -9.1480012 139.6557981 108.3742390  -9.6805835
 138.5700012 103.8444997  -8.6920012 139.1360012 103.9654997  -9.4550012
 138.8890012 104.4814997  -8.0530012 138.6905786 103.9471884  -8.7099960
 144.8790012 109.3474997  -7.9580012 144.6390012 110.0094997  -7.3100012
 144.6810012 108.5134997  -7.5330012 144.8193808 109.3253134  -7.8118476
 139.4500012 108.2434997  -3.9750012 139.1390012 109.0254997  -3.5200012
 138.8000012 108.0904997  -4.6610012 139.3195558 108.3299105  -4.0054129
 136.3700012 104.4414997  -4.7460012 136.4410012 105.0924997  -4.0480012
 135.4800012 104.5444997  -5.0810012 136.2593117 104.5445936  -4.6957300
 143.1560012 110.3444997 -13.0880012 143.6300012 110.6394997 -12.3100012
 142.5930012 111.0824997 -13.3210012 143.1447653 110.4846932 -13.0129864
 137.6900012 110.3154997  -3.2120012 137.6970012 110.1794997  -4.1590012
 136.7740012 110.1974997  -2.9600012 137.5671714 110.2809430  -3.3075334
 137.1940012 104.1454997 -14.7360012 136.9020012 104.9134997 -15.2270012
 136.5200012 103.4854997 -14.8990012 137.0629081 104.1614406 -14.8252660
 133.2870012 106.5084997  -5.9210012 132.7860012 106.4804997  -6.7360012
 133.2920012 105.6024997  -5.6120012 133.2191526 106.3822278  -5.9907128
 133.0370012 109.2884997  -9.0370012 133.9830012 109.1444997  -9.0560012
 132.9250012 110.0724997  -8.5000012 133.1512727 109.3748046  -8.9669928
 142.2140012 109.5284997  -4.4790012 142.3010012 110.3544997  -4.0040012
 141.3500012 109.1984997  -4.2300012 142.1091964 109.5969878  -4.3803451
 142.6280012 113.3004997 -14.6730012 142.5530012 113.1794997 -15.6190012
 142.6610012 114.2504997 -14.5540012 142.6221848 113.4122500 -14.7865166
 136.2810012 112.0894997 -12.8920012 136.4340012 111.7414997 -12.0130012
 135.4310012 111.7334997 -13.1470012 136.1868962 111.9936650 -12.8061660
 135.5360012 107.8314997  -4.8780012 135.7520012 107.4704997  -4.0190012
 134.6810012 107.4574997  -5.0880012 135.4499292 107.7314111  -4.7886614
 138.1550012  96.3014997  -8.8830012 137.2930012  96.2144997  -9.2900012
 138.1320012  97.1574997  -8.4550012 138.0340330  96.4052765  -8.8808137
 142.8180012  96.0234997  -5.5080012 143.2380012  95.6084997  -4.7550012
 141.8850012  95.8454997  -5.3910012 142.7493644  95.9425900  -5.3890461
 142.4790012  98.5164997 -18.2230012 142.2260012  98.5354997 -17.3000012
 142.2230012  97.6444997 -18.5240012 142.4097790  98.4012437 -18.1373737
 138.2460012 101.2674997  -7.7880012 137.6040012 101.2264997  -7.0790012
 138.2830012 102.1934997  -8.0250012 138.1631324 101.3871559  -7.7230176
 138.2430012 101.4884997 -12.8760012 137.3500012 101.1474997 -12.9340012
 138.6930012 101.1114997 -13.6310012 138.1817305 101.3908484 -12.9860823
 143.7780012 101.9044997 -14.0590012 143.3690012 102.7194997 -14.3500012
 144.4990012 101.7644997 -14.6730012 143.8194537 101.9972018 -14.1818658
 142.8800012 102.0794997  -2.5710012 142.3180012 101.3754997  -2.2500012
 143.7070012 101.9594997  -2.1030012 142.9147095 101.9667883  -2.4637670
 144.7830012 101.3504997 -11.2450012 144.5880012 101.9554997 -11.9600012
 144.9640012 100.5164997 -11.6790012 144.7807614 101.3206300 -11.4015595
 135.9960012 101.5874997  -5.9210012 135.9580012 101.9874997  -5.0520012
 135.5050012 100.7704997  -5.8300012 135.9244684 101.5318069  -5.7898941
 139.3620012  98.9614997 -19.1220012 138.9310012  98.5164997 -18.3920012
 138.6440012  99.3334997 -19.6340012 139.2059438  98.9508940 -19.0913201
 132.6040012  98.7034997 -12.0700012 133.2350012  98.6744997 -11.3510012
 133.0530012  98.2784997 -12.8000012 132.7510774  98.6420492 -12.0703447
 133.8780012  99.4494997 -16.6460012 134.3520012 100.0404997 -17.2310012
 133.1610012  99.9804997 -16.2990012 133.8459341  99.6020867 -16.6791164
 144.0470012 102.9884997  -6.5730012 144.3700012 102.3574997  -7.2160012
 143.6070012 102.4534997  -5.9130012 144.0316895 102.8298441  -6.5717150
 140.8240012  98.9154997 -11.7890012 139.9130012  98.9724997 -11.5010012
 141.3300012  98.8554997 -10.9790012 140.7675413  98.9151985 -11.6399378
 135.6530012 100.5444997 -12.9630012 134.7630012 100.6444997 -13.3030012
 135.9490012  99.7024997 -13.3090012 135.5712823 100.4443546 -13.0562787
 139.3060012 100.5444997 -15.3060012 140.2370012 100.6734997 -15.1280012
 139.0910012 101.2144997 -15.9560012 139.4044247 100.6526565 -15.3694253
 137.9800012 101.7394997 -17.7390012 137.4370012 101.3594997 -18.4310012
 138.8130012 101.9334997 -18.1680012 138.0184399 101.7138124 -17.8915474
 136.1150012 106.2964997  -2.6400012 136.8470012 106.5504997  -2.0790012
 135.3350012 106.5004997  -2.1250012 136.1098232 106.3589177  -2.4934240
 142.1440012 101.7034997  -9.9020012 142.7090012 101.1564997 -10.4490012
 141.9970012 101.1814997  -9.1140012 142.2012918 101.5582024  -9.8701546
 137.1460012  97.8394997 -13.4840012 136.8290012  96.9374997 -13.5190012
 137.9280012  97.8414997 -14.0370012 137.2082284  97.7161628 -13.5635217
 140.7710012 100.0914997  -7.4880012 139.9350012 100.5454997  -7.3780012
 141.2950012 100.3674997  -6.7360012 140.7274414 100.1909376  -7.3712864
 141.3150012 106.3044997 -15.8040012 140.5700012 105.7974997 -16.1260012
 141.1810012 106.3534997 -14.8570012 141.1948776 106.2416940 -15.7201353
 142.8340012 106.4884997  -4.5670012 142.4890012 106.1074997  -3.7600012
 142.6340012 107.4224997  -4.4950012 142.7598061 106.5625228  -4.4469039
 136.4400012 105.5994997 -10.0340012 137.1850012 105.5974997 -10.6350012
 136.5180012 104.7764997  -9.5520012 136.5525518 105.4879315 -10.0511071
 143.4410012 107.7634997 -16.7780012 143.1450012 108.5894997 -16.3970012
 142.7380012 107.1434997 -16.5820012 143.3054914 107.7928199 -16.6993557
 133.4480012 104.0604997  -4.7190012 133.6710012 103.6424997  -3.8870012
 132.8460012 103.4474997  -5.1420012 133.3971759 103.9204668  -4.6622978
 140.4640012 103.5774997  -2.5060012 140.1680012 103.4114997  -3.4010012
 141.3960012 103.3574997  -2.5170012 140.5494166 103.5250640  -2.6299464
 138.8150012 109.1174997 -12.6300012 139.3420012 109.8904997 -12.8300012
 137.9350012 109.3424997 -12.9310012 138.7681773 109.2538005 -12.6980990
 134.5700012 103.9794997 -18.0430012 135.1860012 104.6064997 -17.6630012
 133.7080012 104.2954997 -17.7710012 134.5377698 104.1079430 -17.9542817
 140.2420012 106.7804997 -13.0530012 140.0010012 107.7054997 -13.0120012
 139.5010012 106.3214997 -12.6570012 140.1088409 106.8451421 -12.9938623
 140.7570012 110.9294997  -6.7380012 141.1190012 111.7844997  -6.9720012
 141.2880012 110.6374997  -5.9980012 140.8784473 111.0071060  -6.6699145
 138.9250012 111.8024997 -13.5080012 137.9750012 111.9074997 -13.4570012
 139.2770012 112.6224997 -13.1630012 138.8424203 111.9278314 -13.4543350
 144.3010012 107.0284997  -7.0380012 143.8750012 106.8014997  -6.2110012
 144.8810012 106.2904997  -7.2200012 144.3211868 106.8975299  -6.9494170
 135.0820012  98.8134997  -5.1610012 134.1890012  99.1524997  -5.2290012
 134.9830012  97.9584997  -4.7430012 134.9464164  98.7442588  -5.1137765
 134.7330012 110.6184997  -6.7260012 134.9500012 109.6864997  -6.7570012
 134.9790012 110.8924997  -5.8430012 134.7959549 110.5280636  -6.6108237
 140.5950012 109.0694997 -19.5170012 140.8340012 108.3214997 -20.0640012
 140.3260012 108.6814997 -18.6840012 140.5913675 108.9146638 -19.4793135
 139.5320012 108.6394997 -17.0600012 139.6780012 108.1194997 -16.2700012
 139.5290012 109.5464997 -16.7540012 139.5515989 108.6908853 -16.9103912
 135.9850012 105.8924997 -16.5500012 135.2990012 106.2444997 -15.9830012
 136.5070012 106.6554997 -16.7970012 135.9616852 106.0438578 -16.5057882
 143.8160012  98.5544997  -6.2710012 144.5150012  98.6284997  -5.6210012
 143.4350012  97.6904997  -6.1170012 143.8601767  98.4477624  -6.1611678
 144.6010012  98.2064997 -15.1740012 144.8210012  98.6784997 -15.9770012
 145.1590012  98.6014997 -14.5040012 144.7064968  98.3244285 -15.1932669
 142.2690012 110.3374997 -16.3110012 141.4530012 110.8344997 -16.2590012
 142.7990012 110.8124997 -16.9510012 142.2289161 110.4697722 -16.3904044
 141.8010012  99.9344997 -14.3390012 142.6130012 100.4394997 -14.2930012
 141.5560012  99.7894997 -13.4250012 141.8790520  99.9840375 -14.2091483
 142.3360012 100.9204997  -5.1540012 142.4550012 101.4944997  -4.3970012
 142.9920012 100.2324997  -5.0400012 142.4409757 100.9061079  -5.0349175
 142.6840012  97.0154997 -13.4010012 142.3380012  97.6334997 -12.7560012
 143.3430012  97.5164997 -13.8820012 142.7257826  97.1675802 -13.3779029
 139.6080012 111.3814997 -16.3290012 139.7680012 112.1804997 -16.8300012
 139.4100012 111.6874997 -15.4440012 139.6031649 111.5324469 -16.2780185
 138.3420012  98.0784997 -16.7140012 138.2590012  98.9674997 -16.3670012
 139.2320012  97.8134997 -16.4820012 138.4509469  98.1641430 -16.6352374
 136.6010012 108.5064997 -17.6530012 137.1930012 109.2054997 -17.3770012
 137.0600012 108.0734997 -18.3730012 136.7441142 108.5437049 -17.7125170
 134.9170012 101.1704997 -18.5370012 134.8720012 102.1094997 -18.3590012
 134.0290012 100.9344997 -18.8070012 134.7908574 101.2671892 -18.5491088
 135.7250012  95.9524997  -9.8640012 135.4960012  96.0114997 -10.7920012
 135.2820012  95.1604997  -9.5580012 135.6338530  95.8535753  -9.9495214
 134.6550012 109.8924997 -13.7040012 133.8230012 110.3654997 -13.6760012
 135.2010012 110.4024997 -14.3020012 134.6149739 110.0261871 -13.7810284
 133.9430012 112.5054997  -2.3740012 134.4840012 112.2884997  -1.6140012
 133.4620012 111.6994997  -2.5630012 133.9519345 112.3669514  -2.2956924
 138.5410012 111.4244997  -0.7530012 139.3080012 110.9654997  -0.4120012
 138.5190012 111.1984997  -1.6830012 138.6431434 111.3310409  -0.8319957
 142.6330012 110.9324997 -19.3780012 141.9890012 110.3014997 -19.0570012
 143.3950012 110.4014997 -19.6100012 142.6478077 110.7742920 -19.3653989
 133.8500012 106.3154997  -1.4190012 133.9940012 105.4134997  -1.7060012
 133.0780012 106.6014997  -1.9070012 133.7653322 106.2308261  -1.5242119
 138.1920012 106.6594997 -19.2870012 138.2560012 105.8654997 -18.7560012
 138.8450012 106.5404997 -19.9770012 138.2890241 106.5347148 -19.3075683
 140.5060012 106.2854997  -1.9870012 140.1770012 106.5564997  -2.8440012
 140.6580012 105.3444997  -2.0740012 140.4814809 106.1953862  -2.1161756
 134.6830012 103.5154997  -1.9990012 135.0910012 102.6584997  -2.1200012
 134.4230012 103.5304997  -1.0780012 134.7037568 103.4000807  -1.8910412
 139.3410012 104.6314997 -16.9810012 138.8810012 104.1474997 -16.2950012
 139.5960012 103.9634997 -17.6170012 139.3124902 104.4748731 -16.9730666
 138.6300012 102.5244997  -4.6250012 138.0120012 103.1994997  -4.3450012
 138.9740012 102.8454997  -5.4580012 138.5919615 102.6602721  -4.6993419
 140.4120012 102.8744997 -18.7190012 140.2320012 102.7204997 -19.6460012
 141.3620012 102.9824997 -18.6740012 140.5157776 102.8680175 -18.8398157
 143.6500012 104.9964997  -1.3480012 144.6030012 105.0794997  -1.3750012
 143.4890012 104.2844997  -0.7280012 143.7586426 104.9116746  -1.2679421
 138.9690012  99.8794997  -3.5430012 139.1190012  99.1504997  -4.1450012
 138.9720012 100.6564997  -4.1020012 138.9899302  99.8847851  -3.7009308
 139.3820012  98.2494997  -6.0500012 139.9180012  98.7004997  -6.7020012
 138.5300012  98.1414997  -6.4730012 139.3402178  98.2966390  -6.1964244
 140.9640012 103.6884997  -5.8110012 141.7140012 103.5324997  -6.3840012
 140.6250012 104.5404997  -6.0860012 141.0208921 103.7822968  -5.9266439
 137.4480012 101.0774997  -1.6310012 136.6810012 100.5454997  -1.8410012
 138.1270012 100.7674997  -2.2310012 137.4347022 100.9627506  -1.7408352
 140.1880012  95.7054997  -5.6190012 140.0890012  96.6524997  -5.7240012
 139.4450012  95.3334997  -6.0940012 140.0740564  95.7845902  -5.6975440
 141.4520012 100.0274997  -2.0550012 141.2160012  99.8074997  -1.1530012
 140.6680012  99.8204997  -2.5650012 141.3138628  99.9694760  -2.0006068
 144.1670012  99.1544997  -2.9790012 143.2200012  99.1864997  -2.8470012
 144.4800012  98.5294997  -2.3260012 144.0795475  99.0743207  -2.8725545
 135.6280012  98.9984997  -1.9270012 135.8400012  98.2914997  -2.5370012
 135.5170012  98.5604997  -1.0830012 135.6419721  98.8427084  -1.8963157
 140.4090012  94.9994997  -2.9470012 141.1210012  94.3594997  -2.9610012
 140.3080012  95.2664997  -3.8610012 140.4927939  94.9479938  -3.0724350
 140.7630012  96.6824997  -0.8940012 140.6310012  96.2064997  -1.7140012
 140.1640012  97.4264997  -0.9490012 140.6639071  96.7179618  -1.0137114
 140.3090012 113.5654997 -17.7170012 141.2420012 113.7234997 -17.5740012
 140.0450012 114.2404997 -18.3420012 140.4009510 113.6783611 -17.7819259
 133.8780012 108.2014997 -18.2350012 134.7920012 108.2804997 -17.9610012
 133.8850012 107.5144997 -18.9010012 134.0041131 108.1193961 -18.2875607
 132.5270012 113.5944997 -13.1570012 131.8800012 113.1324997 -13.6900012
 132.8810012 112.9224997 -12.5750012 132.4863849 113.4404723 -13.1512041
 133.3970012 111.6754997 -11.3530012 133.0620012 110.7954997 -11.1810012
 133.6190012 112.0204997 -10.4880012 133.3811783 111.6017500 -11.2125792
 133.4770012 104.7504997  -8.9010012 133.6610012 104.6684997  -9.8370012
 134.3260012 104.6264997  -8.4770012 133.6170139 104.7225003  -8.9718545
 133.0740012 100.0214997  -2.7600012 133.9940012  99.8994997  -2.5240012
 132.6250012  99.2714997  -2.3710012 133.1391580  99.9033727  -2.6750994
 134.2950012  98.3334997  -9.8690012 134.7410012  97.5414997  -9.5670012
 134.7620012  99.0494997  -9.4380012 134.4190172  98.3220624  -9.7695180
 132.5990012 101.3324997  -8.8000012 133.0910012 101.1114997  -9.5910012
 132.9620012 102.1734997  -8.5190012 132.7153126 101.4158357  -8.8702469
 132.9130012  97.5904997 -14.7460012 131.9880012  97.7994997 -14.8750012
 133.3670012  98.0744997 -15.4350012 132.8477368  97.6845993 -14.8568774
 132.8770012  96.3284997  -6.4010012 132.2120012  96.0824997  -5.7580012
 132.4340012  96.9504997  -6.9790012 132.7260956  96.3788632  -6.3910648
 135.0690012 109.5034997  -2.2570012 134.2480012 109.6784997  -2.7170012
 134.8160012 109.4304997  -1.3360012 134.9226164 109.5175622  -2.1955077
 138.0230012 110.4784997  -5.9980012 137.5980012 111.2874997  -6.2810012
 138.9270012 110.5634997  -6.3000012 138.0870271 110.6008469  -6.0776224
 142.3340012 111.8774997  -3.0390012 142.5190012 111.5434997  -2.1610012
 143.1800012 112.1864997  -3.3610012 142.4737539 111.8736047  -2.9624395
 144.6790012 113.1634997  -3.7950012 145.3560012 112.5304997  -4.0350012
 145.0010012 113.5644997  -2.9880012 144.8151637 113.1311154  -3.7187207
 135.4250012 113.7344997  -5.9510012 134.7040012 114.1744997  -6.4020012
 135.0590012 113.4834997  -5.1020012 135.2769804 113.7607698  -5.8980160
 137.8920012 113.3344997  -6.9210012 137.0270012 113.4064997  -6.5170012
 137.8370012 113.8814997  -7.7050012 137.7662085 113.4182685  -6.9716638
 142.6020012 113.2224997  -7.7460012 142.1460012 113.7514997  -8.4000012
 142.7650012 113.8254997  -7.0200012 142.5615585 113.3764468  -7.7374938
 134.8390012 112.3574997  -9.0410012 134.8210012 111.9324997  -8.1830012
 135.6440012 112.0394997  -9.4490012 134.9453875 112.2563812  -8.9788345
 136.9810012 111.0674997 -10.3860012 136.7620012 110.1514997 -10.2160012
 137.8050012 111.2074997  -9.9200012 137.0624420 110.9610520 -10.2997226
 139.5180012 111.5374997  -9.5370012 139.7310012 110.6494997  -9.8240012
 139.5820012 111.5034997  -8.5830012 139.5558232 111.4113102  -9.4472603
 143.0260012  97.2014997 -10.3930012 142.3520012  96.5724997 -10.1370012
 143.5900012  96.7174997 -10.9960012 143.0099230  97.0498744 -10.4394660
 135.3530012  95.8354997 -12.5710012 134.5760012  95.6014997 -13.0780012
 135.8830012  95.0384997 -12.5620012 135.3182330  95.6956988 -12.6392258
 134.1890012  95.6334997 -16.7670012 134.6280012  96.2444997 -17.3590012
 133.5560012  96.1714997 -16.2930012 134.1634514  95.7899257 -16.7839070
 139.9320012  95.7624997 -12.7570012 140.8070012  96.1504997 -12.7870012
 139.7960012  95.5474997 -11.8350012 140.0333695  95.7865184 -12.6363560
 134.0900012 111.5814997 -15.8690012 133.4050012 111.5434997 -16.5370012
 134.0940012 112.4944997 -15.5810012 133.9968193 111.6997016 -15.9214716
 136.0500012  97.5494997 -18.3250012 136.5420012  96.9194997 -18.8520012
 136.6740012  97.8454997 -17.6610012 136.2015446  97.5033199 -18.3074020
 141.0760012  97.8424997 -15.8680012 141.2540012  97.1964997 -15.1850012
 141.0230012  98.6764997 -15.4000012 141.0931829  97.8667985 -15.7114060
 142.9550012 112.7914997 -17.4720012 143.8210012 113.1574997 -17.6500012
 142.7080012 112.3514997 -18.2860012 143.0402392 112.7821756 -17.6063711
 135.3110012  96.3494997  -3.0530012 134.9450012  95.5844997  -2.6100012
 136.2240012  96.3784997  -2.7660012 135.3842790  96.2487224  -2.9535930
 137.2840012  95.7004997  -1.5170012 138.1820012  95.4264997  -1.7020012
 136.8970012  94.9574997  -1.0530012 137.3546612  95.5625914  -1.4796357
 135.9080012 112.5014997 -18.8440012 135.6410012 112.7884997 -17.9710012
 136.6800012 111.9554997 -18.6920012 135.9757488 112.4670294 -18.7038950
  12.4390012 123.8474997 -12.6120012  12.5280012 124.7914997 -12.7440012
  11.8010012 123.5724997 -13.2700012  12.3649081 123.9394830 -12.7190386
  11.3720012 123.1024997  -9.1930012  11.3340012 122.4564997  -8.4880012
  11.0500012 122.6364997  -9.9640012  11.3232333 122.9509408  -9.2007022
   3.7410012 122.7174997  -7.6000012   3.7820012 122.0914997  -6.8770012
   4.4440012 123.3414997  -7.4180012   3.8416363 122.7161196  -7.4763956
  15.0780012 126.0414997 -10.8920012  14.6380012 125.3214997 -10.4410012
  15.0650012 126.7624997 -10.2620012  15.0160226 126.0403731 -10.7451506
   4.6640012 127.1674997  -9.0650012   4.2950012 126.3654997  -9.4350012
   5.6050012 126.9984997  -9.0190012   4.7407289 127.0350153  -9.1093684
   1.2740012 120.8274997 -13.6720012   0.8270012 121.6734997 -13.6910012
   0.7130012 120.2474997 -14.1880012   1.1369900 120.8649916 -13.7443199
   1.9850012 122.9894997 -11.5460012   2.1980012 122.2194997 -11.0190012
   2.7230012 123.0784997 -12.1500012   2.1138496 122.8961394 -11.5554700
  12.1900012 131.1464997 -10.6790012  12.8100012 130.4694997 -10.9530012
  11.9820012 130.9284997  -9.7710012  12.2466904 131.0243870 -10.5936635
   9.7620012 125.5354997  -8.7870012  10.0660012 124.8494997  -9.3820012
  10.4830012 125.6534997  -8.1690012   9.9010671 125.4576305  -8.7848184
  18.4250012 117.1364997  -7.9260012  18.4740012 117.7464997  -7.1900012
  18.8500012 117.5974997  -8.6490012  18.4891824 117.2823741  -7.9229795
  12.9030012 119.9294997  -8.4590012  13.0450012 118.9834997  -8.4390012
  12.7960012 120.1364997  -9.3880012  12.9079864 119.8279534  -8.5817661
   6.0570012 118.0304997 -11.1870012   6.1010012 118.8904997 -11.6050012
   5.6000012 117.4784997 -11.8210012   6.0012185 118.0735799 -11.3299701
  13.7800012 118.1614997 -12.7860012  14.4260012 117.8324997 -12.1610012
  14.2900012 118.6794997 -13.4090012  13.9374264 118.1864611 -12.7846138
   2.6780012 120.4274997 -10.4250012   3.3310012 119.8774997  -9.9930012
   2.7020012 120.1534997 -11.3420012   2.7706683 120.3151466 -10.4897877
   7.8340012 121.9774997 -11.2100012   8.4500012 121.4514997 -10.7000012
   7.2480012 121.3374997 -11.6130012   7.8390810 121.8189208 -11.1946827
  18.8160012 118.6144997  -5.6900012  18.1280012 119.2724997  -5.7860012
  18.8320012 118.4174997  -4.7540012  18.7238525 118.6780462  -5.5765192
   4.8680012 116.9484997  -7.1130012   4.6490012 117.4784997  -7.8790012
   4.2000012 117.1754997  -6.4660012   4.7477600 117.0516906  -7.1303621
  12.2370012 126.4484997 -13.5690012  11.9410012 126.1264997 -14.4200012
  11.9120012 127.3484997 -13.5280012  12.1526371 126.5260215 -13.6798199
   7.4370012 124.6244997  -6.8260012   6.6970012 125.2224997  -6.7220012
   8.1510012 125.1784997  -7.1410012   7.4322237 124.7812831  -6.8543535
  15.5440012 117.4524997 -10.8060012  15.3280012 116.6864997 -10.2730012
  16.1990012 117.9244997 -10.2930012  15.6030632 117.4115889 -10.6637139
   4.4610012 118.8404997  -9.1610012   5.0750012 119.4734997  -8.7870012
   4.9730012 118.3684997  -9.8170012   4.6142296 118.8632370  -9.1985748
   5.8440012 126.5884997  -6.0380012   5.8390012 127.4684997  -6.4160012
   4.9910012 126.5054997  -5.6130012   5.7279464 126.6976117  -6.0322093
   1.9650012 126.2594997 -15.2560012   1.6930012 126.4884997 -16.1450012
   2.0110012 127.0974997 -14.7960012   1.9340094 126.4041213 -15.3154303
  15.5900012 127.8814997  -8.5440012  14.6490012 127.9394997  -8.3820012
  15.8670012 128.7874997  -8.6810012  15.4984679 128.0119443  -8.5403185
  15.8910012 116.1674997  -7.1260012  15.1550012 116.7784997  -7.1640012
  16.5740012 116.5824997  -7.6530012  15.8826541 116.3071374  -7.2024168
   8.8940012 114.2544997  -9.6600012   8.7770012 113.3054997  -9.7150012
   8.0390012 114.5864997  -9.3870012   8.7623733 114.1695409  -9.6306103
  13.8420012 129.6624997 -11.9180012  14.2680012 128.9554997 -12.4030012
  14.1590012 130.4634997 -12.3350012  13.9431019 129.6740994 -12.0406870
  15.0020012 127.5634997 -13.4100012  14.7440012 126.8734997 -14.0210012
  15.0730012 127.1204997 -12.5640012  14.9762856 127.4092124 -13.3793115
  16.6880012 126.1294997  -4.9320012  16.8280012 125.5384997  -5.6720012
  16.8550012 127.0024997  -5.2890012  16.7296778 126.1666426  -5.0813035
  11.1610012 123.0914997 -15.1600012  10.4490012 123.6264997 -15.5120012
  11.8520012 123.1474997 -15.8200012  11.1570132 123.1722543 -15.2973711
  11.2140012 121.5494997 -18.1210012  11.9150012 121.5714997 -17.4700012
  11.5170012 120.9214997 -18.7770012  11.3507830 121.4676566 -18.1206289
  18.5300012 122.4694997  -6.8660012  17.8770012 123.1644997  -6.7770012
  18.9950012 122.6794997  -7.6760012  18.5035390 122.5929425  -6.9633117
  14.5660012 123.3014997 -14.2080012  13.8340012 123.5294997 -13.6350012
  15.0140012 122.5874997 -13.7530012  14.5263095 123.2362571 -14.0680881
  14.4640012 121.4754997  -5.1410012  14.5440012 122.2384997  -4.5690012
  13.8620012 121.7544997  -5.8310012  14.3935756 121.6177134  -5.1559411
   6.2120012 123.9314997 -12.3260012   5.8810012 123.5614997 -13.1440012
   6.8000012 123.2614997 -11.9790012   6.2461873 123.7901156 -12.3911898
   7.5780012 127.3594997  -9.6440012   7.4840012 126.7814997 -10.4010012
   8.3080012 126.9884997  -9.1480012   7.6637981 127.2302390  -9.6805835
   6.5780012 122.7004997  -8.6920012   7.1440012 122.8214997  -9.4550012
   6.8970012 123.3374997  -8.0530012   6.6985786 122.8031884  -8.7099960
  12.8870012 128.2034997  -7.9580012  12.6470012 128.8654997  -7.3100012
  12.6890012 127.3694997  -7.5330012  12.8273808 128.1813134  -7.8118476
   7.4580012 127.0994997  -3.9750012   7.1470012 127.8814997  -3.5200012
   6.8080012 126.9464997  -4.6610012   7.3275558 127.1859105  -4.0054129
  13.4370012 122.4634997 -16.5230012  14.0170012 122.6134997 -15.7760012
  13.8510012 122.9344997 -17.2460012  13.5722831 122.5476841 -16.5185866
   4.3780012 123.2974997  -4.7460012   4.4490012 123.9484997  -4.0480012
   3.4880012 123.4004997  -5.0810012   4.2673117 123.4005936  -4.6957300
  11.1640012 129.2004997 -13.0880012  11.6380012 129.4954997 -12.3100012
  10.6010012 129.9384997 -13.3210012  11.1527653 129.3406932 -13.0129864
   5.6980012 129.1714997  -3.2120012   5.7050012 129.0354997  -4.1590012
   4.7820012 129.0534997  -2.9600012   5.5751714 129.1369430  -3.3075334
  17.1360012 114.2134997 -16.7100012  16.2360012 114.3524997 -16.4150012
  17.3880012 115.0444997 -17.1120012  17.0468702 114.3449074 -16.7239795
   5.2020012 123.0014997 -14.7360012   4.9100012 123.7694997 -15.2270012
   4.5280012 122.3414997 -14.8990012   5.0709081 123.0174406 -14.8252660
  18.3250012 128.5794997 -18.3340012  18.3990012 129.5184997 -18.1630012
  19.2310012 128.2744997 -18.3900012  18.4575100 128.6666722 -18.3181881
   1.2950012 125.3644997  -5.9210012   0.7940012 125.3364997  -6.7360012
   1.3000012 124.4584997  -5.6120012   1.2271526 125.2382278  -5.9907128
   1.0450012 128.1444997  -9.0370012   1.9910012 128.0004997  -9.0560012
   0.9330012 128.9284997  -8.5000012   1.1592727 128.2308046  -8.9669928
  19.2430012 128.8104997  -3.3550012  19.1940012 127.8554997  -3.3920012
  18.4160012 129.0784997  -2.9540012  19.1244940 128.7158998  -3.3058625
  10.2220012 128.3844997  -4.4790012  10.3090012 129.2104997  -4.0040012
   9.3580012 128.0544997  -4.2300012  10.1171964 128.4529878  -4.3803451
  10.6360012 132.1564997 -14.6730012  10.5610012 132.0354997 -15.6190012
  10.6690012 133.1064997 -14.5540012  10.6301848 132.2682500 -14.7865166
   4.2890012 130.9454997 -12.8920012   4.4420012 130.5974997 -12.0130012
   3.4390012 130.5894997 -13.1470012   4.1948962 130.8496650 -12.8061660
  13.7380012 131.3104997 -17.6710012  14.1130012 130.5664997 -18.1410012
  13.7420012 131.0404997 -16.7520012  13.7898915 131.1721486 -17.6112176
  13.4070012 131.2364997 -14.9210012  12.4710012 131.3364997 -14.7430012
  13.6870012 130.5274997 -14.3430012  13.3168255 131.1542711 -14.8184609
  16.3950012 120.3034997  -2.8750012  15.9880012 120.7844997  -3.5960012
  16.4360012 119.3984997  -3.1830012  16.3448437 120.2469374  -3.0153317
   3.5440012 126.6874997  -4.8780012   3.7600012 126.3264997  -4.0190012
   2.6890012 126.3134997  -5.0880012   3.4579292 126.5874111  -4.7886614
   6.1630012 115.1574997  -8.8830012   5.3010012 115.0704997  -9.2900012
   6.1400012 116.0134997  -8.4550012   6.0420330 115.2612765  -8.8808137
  10.8260012 114.8794997  -5.5080012  11.2460012 114.4644997  -4.7550012
   9.8930012 114.7014997  -5.3910012  10.7573644 114.7985900  -5.3890461
  14.1520012 118.6354997  -4.6550012  13.6380012 118.5094997  -3.8570012
  13.9970012 119.5474997  -4.8990012  14.0606852 118.7416132  -4.5787842
  14.9150012 123.4964997 -18.8930012  14.9570012 123.2734997 -19.8230012
  15.7640012 123.8954997 -18.7030012  15.0355396 123.5199155 -18.9946373
  10.4870012 117.3724997 -18.2230012  10.2340012 117.3914997 -17.3000012
  10.2310012 116.5004997 -18.5240012  10.4177790 117.2572437 -18.1373737
   6.2540012 120.1234997  -7.7880012   5.6120012 120.0824997  -7.0790012
   6.2910012 121.0494997  -8.0250012   6.1711324 120.2431559  -7.7230176
   6.2510012 120.3444997 -12.8760012   5.3580012 120.0034997 -12.9340012
   6.7010012 119.9674997 -13.6310012   6.1897305 120.2468484 -12.9860823
  11.7860012 120.7604997 -14.0590012  11.3770012 121.5754997 -14.3500012
  12.5070012 120.6204997 -14.6730012  11.8274537 120.8532018 -14.1818658
  10.8880012 120.9354997  -2.5710012  10.3260012 120.2314997  -2.2500012
  11.7150012 120.8154997  -2.1030012  10.9227095 120.8227883  -2.4637670
  12.7910012 120.2064997 -11.2450012  12.5960012 120.8114997 -11.9600012
  12.9720012 119.3724997 -11.6790012  12.7887614 120.1766300 -11.4015595
   4.0040012 120.4434997  -5.9210012   3.9660012 120.8434997  -5.0520012
   3.5130012 119.6264997  -5.8300012   3.9324684 120.3878069  -5.7898941
   7.3700012 117.8174997 -19.1220012   6.9390012 117.3724997 -18.3920012
   6.6520012 118.1894997 -19.6340012   7.2139438 117.8068940 -19.0913201
   0.6120012 117.5594997 -12.0700012   1.2430012 117.5304997 -11.3510012
   1.0610012 117.1344997 -12.8000012   0.7590774 117.4980492 -12.0703447
   1.8860012 118.3054997 -16.6460012   2.3600012 118.8964997 -17.2310012
   1.1690012 118.8364997 -16.2990012   1.8539341 118.4580867 -16.6791164
  12.0550012 121.8444997  -6.5730012  12.3780012 121.2134997  -7.2160012
  11.6150012 121.3094997  -5.9130012  12.0396895 121.6858441  -6.5717150
   8.8320012 117.7714997 -11.7890012   7.9210012 117.8284997 -11.5010012
   9.3380012 117.7114997 -10.9790012   8.7755413 117.7711985 -11.6399378
   3.6610012 119.4004997 -12.9630012   2.7710012 119.5004997 -13.3030012
   3.9570012 118.5584997 -13.3090012   3.5792823 119.3003545 -13.0562787
   7.3140012 119.4004997 -15.3060012   8.2450012 119.5294997 -15.1280012
   7.0990012 120.0704997 -15.9560012   7.4124247 119.5086565 -15.3694253
  13.2370012 117.0064997  -8.5250012  12.5610012 117.1374997  -7.8610012
  12.7520012 116.8514997  -9.3350012  13.0787145 117.0034905  -8.5435483
   5.9880012 120.5954997 -17.7390012   5.4450012 120.2154997 -18.4310012
   6.8210012 120.7894997 -18.1680012   6.0264399 120.5698124 -17.8915474
  16.5250012 132.6784997  -2.2480012  16.7250012 133.1024997  -3.0830012
  17.1800012 133.0214997  -1.6410012  16.6410051 132.7829648  -2.2802164
   4.1230012 125.1524997  -2.6400012   4.8550012 125.4064997  -2.0790012
   3.3430012 125.3564997  -2.1250012   4.1178232 125.2149177  -2.4934240
  10.1520012 120.5594997  -9.9020012  10.7170012 120.0124997 -10.4490012
  10.0050012 120.0374997  -9.1140012  10.2092918 120.4142024  -9.8701546
   5.1540012 116.6954997 -13.4840012   4.8370012 115.7934997 -13.5190012
   5.9360012 116.6974997 -14.0370012   5.2162284 116.5721628 -13.5635217
   8.7790012 118.9474997  -7.4880012   7.9430012 119.4014997  -7.3780012
   9.3030012 119.2234997  -6.7360012   8.7354414 119.0469376  -7.3712864
   9.3230012 125.1604997 -15.8040012   8.5780012 124.6534997 -16.1260012
   9.1890012 125.2094997 -14.8570012   9.2028776 125.0976940 -15.7201353
  16.4730012 124.2934997  -7.0170012  17.1150012 124.7504997  -7.5610012
  15.6430012 124.4064997  -7.4800012  16.4485963 124.3712704  -7.1539823
  13.2210012 117.9744997 -17.6040012  12.2820012 118.0864997 -17.7560012
  13.5180012 118.8314997 -17.2980012  13.1327666 118.1056443 -17.5834232
  10.8420012 125.3444997  -4.5670012  10.4970012 124.9634997  -3.7600012
  10.6420012 126.2784997  -4.4950012  10.7678061 125.4185228  -4.4469039
  13.9390012 119.8414997 -15.9440012  14.8310012 119.7044997 -15.6250012
  13.9960012 120.6324997 -16.4800012  14.0686285 119.9296660 -15.9728310
   4.4480012 124.4554997 -10.0340012   5.1930012 124.4534997 -10.6350012
   4.5260012 123.6324997  -9.5520012   4.5605518 124.3439315 -10.0511071
  11.4490012 126.6194997 -16.7780012  11.1530012 127.4454997 -16.3970012
  10.7460012 125.9994997 -16.5820012  11.3134914 126.6488199 -16.6993557
   1.4560012 122.9164997  -4.7190012   1.6790012 122.4984997  -3.8870012
   0.8540012 122.3034997  -5.1420012   1.4051759 122.7764668  -4.6622978
   8.4720012 122.4334997  -2.5060012   8.1760012 122.2674997  -3.4010012
   9.4040012 122.2134997  -2.5170012   8.5574166 122.3810640  -2.6299464
  13.0930012 127.8064997  -4.6160012  12.1920012 127.9894997  -4.8840012
  13.1270012 128.0654997  -3.6950012  12.9743041 127.8665512  -4.5281803
  18.8240012 120.0514997 -16.2490012  18.2700012 119.6554997 -16.9210012
  18.9240012 120.9614997 -16.5270012  18.7617059 120.1203586 -16.3785599
  18.7870012 125.8514997  -3.4120012  17.9360012 126.0894997  -3.7790012
  19.3780012 125.8344997  -4.1650012  18.7502487 125.8818258  -3.5641107
  17.1190012 128.8374997 -15.7840012  16.7460012 128.0114997 -15.4750012
  17.3970012 128.6544997 -16.6810012  17.1055630 128.6997303 -15.8630374
  14.2800012 123.6454997  -8.7630012  13.3510012 123.4134997  -8.7900012
  14.7310012 122.8684997  -9.0930012  14.2139216 123.5087238  -8.8113083
   6.8230012 127.9734997 -12.6300012   7.3500012 128.7464997 -12.8300012
   5.9430012 128.1984997 -12.9310012   6.7761773 128.1098005 -12.6980990
   2.5780012 122.8354997 -18.0430012   3.1940012 123.4624997 -17.6630012
   1.7160012 123.1514997 -17.7710012   2.5457698 122.9639430 -17.9542817
   8.2500012 125.6364997 -13.0530012   8.0090012 126.5614997 -13.0120012
   7.5090012 125.1774997 -12.6570012   8.1168409 125.7011421 -12.9938623
   8.7650012 129.7854997  -6.7380012   9.1270012 130.6404997  -6.9720012
   9.2960012 129.4934997  -5.9980012   8.8864473 129.8631060  -6.6699145
   6.9330012 130.6584997 -13.5080012   5.9830012 130.7634997 -13.4570012
   7.2850012 131.4784997 -13.1630012   6.8504203 130.7838314 -13.4543350
  12.3090012 125.8844997  -7.0380012  11.8830012 125.6574997  -6.2110012
  12.8890012 125.1464997  -7.2200012  12.3291868 125.7535299  -6.9494170
  14.5120012 126.8134997 -17.9640012  14.8650012 126.4334997 -17.1590012
  13.5630012 126.7204997 -17.8770012  14.4320441 126.7489596 -17.8421441
  14.9670012 130.4364997  -4.5680012  14.3660012 129.8814997  -5.0640012
  15.2490012 131.1034997  -5.1940012  14.9228519 130.4506841  -4.7205048
  19.0150012 131.2934997 -17.7630012  19.7590012 131.8794997 -17.9030012
  18.3210012 131.8614997 -17.4290012  19.0230292 131.4505582 -17.7370039
   3.0900012 117.6694997  -5.1610012   2.1970012 118.0084997  -5.2290012
   2.9910012 116.8144997  -4.7430012   2.9544164 117.6002588  -5.1137765
  15.3780012 125.4864997 -15.7370012  15.1000012 124.7584997 -15.1810012
  16.3050012 125.6054997 -15.5320012  15.4653124 125.4028802 -15.6331155
   2.7410012 129.4744997  -6.7260012   2.9580012 128.5424997  -6.7570012
   2.9870012 129.7484997  -5.8430012   2.8039549 129.3840636  -6.6108237
   8.6030012 127.9254997 -19.5170012   8.8420012 127.1774997 -20.0640012
   8.3340012 127.5374997 -18.6840012   8.5993675 127.7706638 -19.4793135
   7.5400012 127.4954997 -17.0600012   7.6860012 126.9754997 -16.2700012
   7.5370012 128.4024997 -16.7540012   7.5595989 127.5468853 -16.9103912
   3.9930012 124.7484997 -16.5500012   3.3070012 125.1004997 -15.9830012
   4.5150012 125.5114997 -16.7970012   3.9696852 124.8998578 -16.5057882
  11.8240012 117.4104997  -6.2710012  12.5230012 117.4844997  -5.6210012
  11.4430012 116.5464997  -6.1170012  11.8681767 117.3037624  -6.1611678
  12.6090012 117.0624997 -15.1740012  12.8290012 117.5344997 -15.9770012
  13.1670012 117.4574997 -14.5040012  12.7144968 117.1804285 -15.1932669
  10.2770012 129.1934997 -16.3110012   9.4610012 129.6904997 -16.2590012
  10.8070012 129.6684997 -16.9510012  10.2369161 129.3257722 -16.3904044
   9.8090012 118.7904997 -14.3390012  10.6210012 119.2954997 -14.2930012
   9.5640012 118.6454997 -13.4250012   9.8870520 118.8400375 -14.2091483
  10.3440012 119.7764997  -5.1540012  10.4630012 120.3504997  -4.3970012
  11.0000012 119.0884997  -5.0400012  10.4489757 119.7621079  -5.0349175
  10.6920012 115.8714997 -13.4010012  10.3460012 116.4894997 -12.7560012
  11.3510012 116.3724997 -13.8820012  10.7337826 116.0235802 -13.3779029
   7.6160012 130.2374997 -16.3290012   7.7760012 131.0364997 -16.8300012
   7.4180012 130.5434997 -15.4440012   7.6111649 130.3884469 -16.2780185
   6.3500012 116.9344997 -16.7140012   6.2670012 117.8234997 -16.3670012
   7.2400012 116.6694997 -16.4820012   6.4589469 117.0201430 -16.6352374
  16.5490012 117.6834997  -4.3190012  15.6320012 117.9464997  -4.4070012
  16.8840012 117.6804997  -5.2160012  16.4689900 117.7190224  -4.4522081
  15.1510012 121.4344997 -10.2240012  14.3530012 121.0194997 -10.5520012
  15.5960012 120.7434997  -9.7330012  15.1019885 121.2843543 -10.2025111
   4.6090012 127.3624997 -17.6530012   5.2010012 128.0614997 -17.3770012
   5.0680012 126.9294997 -18.3730012   4.7521142 127.3997049 -17.7125170
   2.9250012 120.0264997 -18.5370012   2.8800012 120.9654997 -18.3590012
   2.0370012 119.7904997 -18.8070012   2.7988574 120.1231892 -18.5491088
  16.2370012 130.6904997  -8.6010012  16.0820012 131.3684997  -9.2580012
  17.1700012 130.7624997  -8.3980012  16.3418500 130.7930170  -8.6634881
   3.7330012 114.8084997  -9.8640012   3.5040012 114.8674997 -10.7920012
   3.2900012 114.0164997  -9.5580012   3.6418530 114.7095753  -9.9495214
   2.6630012 128.7484997 -13.7040012   1.8310012 129.2214997 -13.6760012
   3.2090012 129.2584997 -14.3020012   2.6229739 128.8821871 -13.7810284
   1.9510012 131.3614997  -2.3740012   2.4920012 131.1444997  -1.6140012
   1.4700012 130.5554997  -2.5630012   1.9599345 131.2229514  -2.2956924
   6.5490012 130.2804997  -0.7530012   7.3160012 129.8214997  -0.4120012
   6.5270012 130.0544997  -1.6830012   6.6511434 130.1870409  -0.8319957
  10.6410012 129.7884997 -19.3780012   9.9970012 129.1574997 -19.0570012
  11.4030012 129.2574997 -19.6100012  10.6558077 129.6302920 -19.3653989
  13.1260012 128.6604997  -2.0240012  12.7750012 127.8044997  -1.7810012
  13.8520012 128.8034997  -1.4170012  13.1760769 128.5625636  -1.9086381
  15.2450012 129.6054997 -19.1440012  15.5280012 128.8114997 -18.6920012
  15.9850012 129.8384997 -19.7050012  15.3837486 129.5282803 -19.1579302
   1.8580012 125.1714997  -1.4190012   2.0020012 124.2694997  -1.7060012
   1.0860012 125.4574997  -1.9070012   1.7733322 125.0868261  -1.5242119
   6.2000012 125.5154997 -19.2870012   6.2640012 124.7214997 -18.7560012
   6.8530012 125.3964997 -19.9770012   6.2970241 125.3907148 -19.3075683
   8.5140012 125.1414997  -1.9870012   8.1850012 125.4124997  -2.8440012
   8.6660012 124.2004997  -2.0740012   8.4894809 125.0513862  -2.1161756
  14.2480012 125.0574997  -4.6030012  14.9940012 125.6454997  -4.7230012
  13.4910012 125.6394997  -4.5400012  14.2477554 125.2167011  -4.6109093
   2.6910012 122.3714997  -1.9990012   3.0990012 121.5144997  -2.1200012
   2.4310012 122.3864997  -1.0780012   2.7117568 122.2560807  -1.8910412
   7.3490012 123.4874997 -16.9810012   6.8890012 123.0034997 -16.2950012
   7.6040012 122.8194997 -17.6170012   7.3204902 123.3308731 -16.9730666
   6.6380012 121.3804997  -4.6250012   6.0200012 122.0554997  -4.3450012
   6.9820012 121.7014997  -5.4580012   6.5999615 121.5162721  -4.6993419
   8.4200012 121.7304997 -18.7190012   8.2400012 121.5764997 -19.6460012
   9.3700012 121.8384997 -18.6740012   8.5237776 121.7240175 -18.8398157
  11.6580012 123.8524997  -1.3480012  12.6110012 123.9354997  -1.3750012
  11.4970012 123.1404997  -0.7280012  11.7666426 123.7676746  -1.2679421
  17.8100012 124.0854997 -19.2730012  17.5360012 123.6604997 -20.0860012
  17.8490012 125.0164997 -19.4900012  17.7777699 124.1532484 -19.4136390
   6.9770012 118.7354997  -3.5430012   7.1270012 118.0064997  -4.1450012
   6.9800012 119.5124997  -4.1020012   6.9979302 118.7407851  -3.7009308
   7.3900012 117.1054997  -6.0500012   7.9260012 117.5564997  -6.7020012
   6.5380012 116.9974997  -6.4730012   7.3482178 117.1526390  -6.1964244
   8.9720012 122.5444997  -5.8110012   9.7220012 122.3884997  -6.3840012
   8.6330012 123.3964997  -6.0860012   9.0288921 122.6382968  -5.9266439
  13.3870012 120.3594997  -0.7820012  13.5800012 119.4284997  -0.8940012
  14.2450012 120.7844997  -0.7920012  13.5293020 120.2896389  -0.7986639
  14.7040012 123.1484997  -2.7050012  14.4230012 123.8574997  -3.2820012
  15.6470012 123.0754997  -2.8560012  14.7929027 123.2357646  -2.8044449
   5.4560012 119.9334997  -1.6310012   4.6890012 119.4014997  -1.8410012
   6.1350012 119.6234997  -2.2310012   5.4427022 119.8187506  -1.7408352
   8.1960012 114.5614997  -5.6190012   8.0970012 115.5084997  -5.7240012
   7.4530012 114.1894997  -6.0940012   8.0820564 114.6405902  -5.6975440
   9.4600012 118.8834997  -2.0550012   9.2240012 118.6634997  -1.1530012
   8.6760012 118.6764997  -2.5650012   9.3218628 118.8254760  -2.0006068
  12.1750012 118.0104997  -2.9790012  11.2280012 118.0424997  -2.8470012
  12.4880012 117.3854997  -2.3260012  12.0875475 117.9303207  -2.8725545
  13.8090012 116.6444997  -0.9740012  13.7130012 115.6924997  -0.9800012
  13.4880012 116.9134997  -0.1140012  13.7524070 116.5504035  -0.8584559
   3.6360012 117.8544997  -1.9270012   3.8480012 117.1474997  -2.5370012
   3.5250012 117.4164997  -1.0830012   3.6499721 117.6987084  -1.8963157
   8.4170012 113.8554997  -2.9470012   9.1290012 113.2154997  -2.9610012
   8.3160012 114.1224997  -3.8610012   8.5007939 113.8039938  -3.0724350
   8.7710012 115.5384997  -0.8940012   8.6390012 115.0624997  -1.7140012
   8.1720012 116.2824997  -0.9490012   8.6719071 115.5739618  -1.0137114
   8.3170012 132.4214997 -17.7170012   9.2500012 132.5794997 -17.5740012
   8.0530012 133.0964997 -18.3420012   8.4089510 132.5343611 -17.7819259
   1.8860012 127.0574997 -18.2350012   2.8000012 127.1364997 -17.9610012
   1.8930012 126.3704997 -18.9010012   2.0121131 126.9753961 -18.2875607
   0.5350012 132.4504997 -13.1570012  -0.1119988 131.9884997 -13.6900012
   0.8890012 131.7784997 -12.5750012   0.4943849 132.2964723 -13.1512041
   1.4050012 130.5314997 -11.3530012   1.0700012 129.6514997 -11.1810012
   1.6270012 130.8764997 -10.4880012   1.3891783 130.4577500 -11.2125792
  18.9530012 131.3404997  -8.3720012  18.9320012 131.5254997  -7.4330012
  19.6440012 131.9094997  -8.7130012  19.0434618 131.4426606  -8.2896136
  18.5170012 130.9084997  -5.4500012  18.0290012 130.1724997  -5.8210012
  19.0660012 130.5144997  -4.7720012  18.5244872 130.7546249  -5.4090840
  16.9670012 126.6974997  -0.8120012  16.1010012 126.5924997  -0.4180012
  17.3440012 127.4564997  -0.3660012  16.8993308 126.7856900  -0.6977607
  18.2680012 124.9544997 -15.2980012  19.1180012 125.3754997 -15.1710012
  18.2740012 124.2144997 -14.6910012  18.3851372 124.9120803 -15.1985656
  18.6630012 123.0074997 -13.4740012  17.9360012 122.5284997 -13.0770012
  19.2440012 123.2134997 -12.7420012  18.6419375 122.9697090 -13.3205871
  18.4220012 125.7924997  -8.5270012  19.2550012 125.4144997  -8.8070012
  18.5340012 126.7354997  -8.6460012  18.5512647 125.8682218  -8.5814513
  16.9080012 128.6704997  -6.2200012  16.2610012 128.9954997  -5.5940012
  16.3910012 128.2304997  -6.8940012  16.7494029 128.6555004  -6.2254173
  18.9310012 122.9084997 -17.0830012  18.4090012 123.2654997 -17.8020012
  18.8980012 123.5834997 -16.4050012  18.8551634 123.0485413 -17.0896855
  17.2800012 120.1484997 -18.5320012  17.3760012 120.8154997 -19.2130012
  17.1400012 119.3324997 -19.0140012  17.2742135 120.1294500 -18.6901509
  16.4490012 121.5284997 -12.9110012  16.2990012 120.5834997 -12.9320012
  16.0960012 121.8094997 -12.0680012  16.3806625 121.4370441 -12.7997654
   1.4850012 123.6064997  -8.9010012   1.6690012 123.5244997  -9.8370012
   2.3340012 123.4824997  -8.4770012   1.6250139 123.5785003  -8.9718545
  17.3060012 123.4984997  -3.2730012  17.8890012 122.7644997  -3.0810012
  17.8700012 124.2704997  -3.2260012  17.4619769 123.5024227  -3.2403841
  18.8020012 121.4014997  -2.5880012  17.9390012 121.0224997  -2.7540012
  19.4070012 120.6624997  -2.6620012  18.7655979 121.2498023  -2.6207183
  16.5270012 117.5564997 -19.4150012  17.1380012 117.1854997 -18.7780012
  15.6910012 117.1354997 -19.2190012  16.4975032 117.4487554 -19.3012965
  16.1600012 119.1114997 -14.4490012  16.4400012 118.2044997 -14.3250012
  16.9190012 119.5454997 -14.8380012  16.3009277 119.0460942 -14.4846318
  16.7720012 119.6924997  -9.0130012  17.7050012 119.9044997  -9.0470012
  16.5370012 119.7944997  -8.0910012  16.8678036 119.7352769  -8.8930024
  16.8010012 120.4294997  -6.2370012  15.9580012 120.6974997  -5.8710012
  17.2430012 121.2514997  -6.4480012  16.7454158 120.5773291  -6.2154509
   1.0820012 118.8774997  -2.7600012   2.0020012 118.7554997  -2.5240012
   0.6330012 118.1274997  -2.3710012   1.1471580 118.7593727  -2.6750994
  19.0840012 114.4094997  -0.8840012  19.4340012 113.7554997  -1.4890012
  19.2310012 115.2464997  -1.3230012  19.1518419 114.4331591  -1.0262882
  16.7730012 116.3744997 -14.4010012  16.9560012 115.9254997 -13.5750012
  16.1740012 115.7894997 -14.8640012  16.7170202 116.2339975 -14.3506725
   2.3030012 117.1894997  -9.8690012   2.7490012 116.3974997  -9.5670012
   2.7700012 117.9054997  -9.4380012   2.4270172 117.1780624  -9.7695180
   0.6070012 120.1884997  -8.8000012   1.0990012 119.9674997  -9.5910012
   0.9700012 121.0294997  -8.5190012   0.7233126 120.2718357  -8.8702469
  18.6040012 116.5184997  -2.5340012  17.6860012 116.7894997  -2.5700012
  18.7270012 115.9834997  -3.3190012  18.4951066 116.4832892  -2.6449513
  18.6400012 116.4414997 -17.8730012  19.0520012 115.7204997 -18.3480012
  19.3220012 117.1114997 -17.8140012  18.7885885 116.4332368 -17.9301085
   0.9210012 116.4464997 -14.7460012  -0.0039988 116.6554997 -14.8750012
   1.3750012 116.9304997 -15.4350012   0.8557368 116.5405993 -14.8568774
  15.6920012 131.4304997 -12.8000012  16.3440012 131.0834997 -13.4080012
  16.2020012 131.9194997 -12.1540012  15.8502637 131.4490597 -12.7959764
   0.8850012 115.1844997  -6.4010012   0.2200012 114.9384997  -5.7580012
   0.4420012 115.8064997  -6.9790012   0.7340956 115.2348632  -6.3910648
   3.0770012 128.3594997  -2.2570012   2.2560012 128.5344997  -2.7170012
   2.8240012 128.2864997  -1.3360012   2.9306164 128.3735622  -2.1955077
   6.0310012 129.3344997  -5.9980012   5.6060012 130.1434997  -6.2810012
   6.9350012 129.4194997  -6.3000012   6.0950271 129.4568469  -6.0776224
  10.3420012 130.7334997  -3.0390012  10.5270012 130.3994997  -2.1610012
  11.1880012 131.0424997  -3.3610012  10.4817539 130.7296047  -2.9624395
  12.6870012 132.0194997  -3.7950012  13.3640012 131.3864997  -4.0350012
  13.0090012 132.4204997  -2.9880012  12.8231637 131.9871154  -3.7187207
  17.6040012 114.6084997  -4.7150012  16.7920012 114.9334997  -5.1030012
  17.8370012 113.8484997  -5.2480012  17.5243423 114.5502436  -4.8401747
   3.4330012 132.5904997  -5.9510012   2.7120012 133.0304997  -6.4020012
   3.0670012 132.3394997  -5.1020012   3.2849804 132.6167698  -5.8980160
   5.9000012 132.1904997  -6.9210012   5.0350012 132.2624997  -6.5170012
   5.8450012 132.7374997  -7.7050012   5.7742085 132.2742685  -6.9716638
  10.6100012 132.0784997  -7.7460012  10.1540012 132.6074997  -8.4000012
  10.7730012 132.6814997  -7.0200012  10.5695585 132.2324468  -7.7374938
  12.9380012 130.9564997  -6.8010012  12.0330012 131.1214997  -7.0660012
  13.3670012 131.8094997  -6.8660012  12.8720799 131.0944483  -6.8460818
  15.5420012 132.5264997  -6.5060012  15.3600012 133.4424997  -6.7160012
  15.7190012 132.1164997  -7.3520012  15.5410210 132.5964822  -6.6492115
   2.8470012 131.2134997  -9.0410012   2.8290012 130.7884997  -8.1830012
   3.6520012 130.8954997  -9.4490012   2.9533875 131.1123812  -8.9788345
   4.9890012 129.9234997 -10.3860012   4.7700012 129.0074997 -10.2160012
   5.8130012 130.0634997  -9.9200012   5.0704420 129.8170520 -10.2997226
   7.5260012 130.3934997  -9.5370012   7.7390012 129.5054997  -9.8240012
   7.5900012 130.3594997  -8.5830012   7.5638231 130.2673102  -9.4472603
  11.0340012 116.0574997 -10.3930012  10.3600012 115.4284997 -10.1370012
  11.5980012 115.5734997 -10.9960012  11.0179230 115.9058744 -10.4394660
  16.1770012 114.1654997 -10.2800012  16.7810012 114.7124997 -10.7820012
  15.3070012 114.4844997 -10.5200012  16.1421241 114.2835806 -10.3812346
  17.9040012 115.3034997 -11.9470012  18.5160012 114.7894997 -12.4730012
  18.2860012 116.1814997 -11.9230012  18.0394540 115.3517140 -12.0158170
   3.3610012 114.6914997 -12.5710012   2.5840012 114.4574997 -13.0780012
   3.8910012 113.8944997 -12.5620012   3.3262330 114.5516988 -12.6392258
   2.1970012 114.4894997 -16.7670012   2.6360012 115.1004997 -17.3590012
   1.5640012 115.0274997 -16.2930012   2.1714514 114.6459257 -16.7839070
   7.9400012 114.6184997 -12.7570012   8.8150012 115.0064997 -12.7870012
   7.8040012 114.4034997 -11.8350012   8.0413695 114.6425184 -12.6363560
  13.4970012 114.6484997 -11.1080012  13.5730012 114.7434997 -12.0580012
  13.2220012 113.7404997 -10.9790012  13.4702321 114.5387867 -11.2204921
  14.8500012 114.6744997 -15.4160012  14.1480012 115.2894997 -15.6250012
  14.4060012 113.8364997 -15.2850012  14.6936330 114.6455783 -15.4269672
   2.0980012 130.4374997 -15.8690012   1.4130012 130.3994997 -16.5370012
   2.1020012 131.3504997 -15.5810012   2.0048193 130.5557016 -15.9214716
   4.0580012 116.4054997 -18.3250012   4.5500012 115.7754997 -18.8520012
   4.6820012 116.7014997 -17.6610012   4.2095446 116.3593199 -18.3074020
   9.0840012 116.6984997 -15.8680012   9.2620012 116.0524997 -15.1850012
   9.0310012 117.5324997 -15.4000012   9.1011829 116.7227985 -15.7114060
  10.9630012 131.6474997 -17.4720012  11.8290012 132.0134997 -17.6500012
  10.7160012 131.2074997 -18.2860012  11.0482392 131.6381756 -17.6063711
  17.6720012 131.2104997 -14.7930012  17.4770012 130.4624997 -15.3580012
  17.6330012 131.9684997 -15.3760012  17.6400380 131.2106099 -14.9491616
   3.3190012 115.2054997  -3.0530012   2.9530012 114.4404997  -2.6100012
   4.2320012 115.2344997  -2.7660012   3.3922790 115.1047224  -2.9535930
   5.2920012 114.5564997  -1.5170012   6.1900012 114.2824997  -1.7020012
   4.9050012 113.8134997  -1.0530012   5.3626612 114.4185914  -1.4796357
   3.9160012 131.3574997 -18.8440012   3.6490012 131.6444997 -17.9710012
   4.6880012 130.8114997 -18.6920012   3.9837488 131.3230294 -18.7038950
  13.7130012 113.8884997  -1.3350012  13.7900012 113.4624997  -0.4810012
  14.6070012 113.9024997  -1.6780012  13.8443428 113.8320879  -1.2644690
  16.8890012 129.9614997  -2.6430012  16.1070012 129.7754997  -3.1620012
  16.8170012 130.8904997  -2.4250012  16.7721777 130.0616492  -2.6845952
  31.2950012 123.8474997 -12.6120012  31.3840012 124.7914997 -12.7440012
  30.6570012 123.5724997 -13.2700012  31.2209081 123.9394830 -12.7190386
  30.2280012 123.1024997  -9.1930012  30.1900012 122.4564997  -8.4880012
  29.9060012 122.6364997  -9.9640012  30.1792333 122.9509408  -9.2007022
  22.5970012 122.7174997  -7.6000012  22.6380012 122.0914997  -6.8770012
  23.3000012 123.3414997  -7.4180012  22.6976363 122.7161196  -7.4763956
  33.9340012 126.0414997 -10.8920012  33.4940012 125.3214997 -10.4410012
  33.9210012 126.7624997 -10.2620012  33.8720226 126.0403731 -10.7451506
  23.5200012 127.1674997  -9.0650012  23.1510012 126.3654997  -9.4350012
  24.4610012 126.9984997  -9.0190012  23.5967289 127.0350153  -9.1093684
  20.1300012 120.8274997 -13.6720012  19.6830012 121.6734997 -13.6910012
  19.5690012 120.2474997 -14.1880012  19.9929900 120.8649916 -13.7443199
  20.8410012 122.9894997 -11.5460012  21.0540012 122.2194997 -11.0190012
  21.5790012 123.0784997 -12.1500012  20.9698496 122.8961394 -11.5554700
  31.0460012 131.1464997 -10.6790012  31.6660012 130.4694997 -10.9530012
  30.8380012 130.9284997  -9.7710012  31.1026904 131.0243870 -10.5936635
  28.6180012 125.5354997  -8.7870012  28.9220012 124.8494997  -9.3820012
  29.3390012 125.6534997  -8.1690012  28.7570671 125.4576305  -8.7848184
  37.2810012 117.1364997  -7.9260012  37.3300012 117.7464997  -7.1900012
  37.7060012 117.5974997  -8.6490012  37.3451824 117.2823741  -7.9229795
  31.7590012 119.9294997  -8.4590012  31.9010012 118.9834997  -8.4390012
  31.6520012 120.1364997  -9.3880012  31.7639864 119.8279534  -8.5817661
  24.9130012 118.0304997 -11.1870012  24.9570012 118.8904997 -11.6050012
  24.4560012 117.4784997 -11.8210012  24.8572185 118.0735799 -11.3299701
  32.6360012 118.1614997 -12.7860012  33.2820012 117.8324997 -12.1610012
  33.1460012 118.6794997 -13.4090012  32.7934264 118.1864611 -12.7846138
  21.5340012 120.4274997 -10.4250012  22.1870012 119.8774997  -9.9930012
  21.5580012 120.1534997 -11.3420012  21.6266683 120.3151466 -10.4897877
  26.6900012 121.9774997 -11.2100012  27.3060012 121.4514997 -10.7000012
  26.1040012 121.3374997 -11.6130012  26.6950810 121.8189208 -11.1946827
  37.6720012 118.6144997  -5.6900012  36.9840012 119.2724997  -5.7860012
  37.6880012 118.4174997  -4.7540012  37.5798525 118.6780462  -5.5765192
  23.7240012 116.9484997  -7.1130012  23.5050012 117.4784997  -7.8790012
  23.0560012 117.1754997  -6.4660012  23.6037600 117.0516906  -7.1303621
  31.0930012 126.4484997 -13.5690012  30.7970012 126.1264997 -14.4200012
  30.7680012 127.3484997 -13.5280012  31.0086371 126.5260215 -13.6798199
  26.2930012 124.6244997  -6.8260012  25.5530012 125.2224997  -6.7220012
  27.0070012 125.1784997  -7.1410012  26.2882237 124.7812831  -6.8543535
  34.4000012 117.4524997 -10.8060012  34.1840012 116.6864997 -10.2730012
  35.0550012 117.9244997 -10.2930012  34.4590632 117.4115889 -10.6637139
  23.3170012 118.8404997  -9.1610012  23.9310012 119.4734997  -8.7870012
  23.8290012 118.3684997  -9.8170012  23.4702296 118.8632370  -9.1985748
  24.7000012 126.5884997  -6.0380012  24.6950012 127.4684997  -6.4160012
  23.8470012 126.5054997  -5.6130012  24.5839464 126.6976117  -6.0322093
  20.8210012 126.2594997 -15.2560012  20.5490012 126.4884997 -16.1450012
  20.8670012 127.0974997 -14.7960012  20.7900094 126.4041213 -15.3154303
  34.4460012 127.8814997  -8.5440012  33.5050012 127.9394997  -8.3820012
  34.7230012 128.7874997  -8.6810012  34.3544679 128.0119443  -8.5403185
  34.7470012 116.1674997  -7.1260012  34.0110012 116.7784997  -7.1640012
  35.4300012 116.5824997  -7.6530012  34.7386541 116.3071374  -7.2024168
  27.7500012 114.2544997  -9.6600012  27.6330012 113.3054997  -9.7150012
  26.8950012 114.5864997  -9.3870012  27.6183733 114.1695409  -9.6306103
  32.6980012 129.6624997 -11.9180012  33.1240012 128.9554997 -12.4030012
  33.0150012 130.4634997 -12.3350012  32.7991019 129.6740994 -12.0406870
  33.8580012 127.5634997 -13.4100012  33.6000012 126.8734997 -14.0210012
  33.9290012 127.1204997 -12.5640012  33.8322856 127.4092124 -13.3793115
  35.5440012 126.1294997  -4.9320012  35.6840012 125.5384997  -5.6720012
  35.7110012 127.0024997  -5.2890012  35.5856778 126.1666426  -5.0813035
  30.0170012 123.0914997 -15.1600012  29.3050012 123.6264997 -15.5120012
  30.7080012 123.1474997 -15.8200012  30.0130132 123.1722543 -15.2973711
  30.0700012 121.5494997 -18.1210012  30.7710012 121.5714997 -17.4700012
  30.3730012 120.9214997 -18.7770012  30.2067830 121.4676566 -18.1206289
  37.3860012 122.4694997  -6.8660012  36.7330012 123.1644997  -6.7770012
  37.8510012 122.6794997  -7.6760012  37.3595390 122.5929425  -6.9633117
  33.4220012 123.3014997 -14.2080012  32.6900012 123.5294997 -13.6350012
  33.8700012 122.5874997 -13.7530012  33.3823095 123.2362571 -14.0680881
  33.3200012 121.4754997  -5.1410012  33.4000012 122.2384997  -4.5690012
  32.7180012 121.7544997  -5.8310012  33.2495756 121.6177134  -5.1559411
  25.0680012 123.9314997 -12.3260012  24.7370012 123.5614997 -13.1440012
  25.6560012 123.2614997 -11.9790012  25.1021873 123.7901156 -12.3911898
  26.4340012 127.3594997  -9.6440012  26.3400012 126.7814997 -10.4010012
  27.1640012 126.9884997  -9.1480012  26.5197981 127.2302390  -9.6805835
  25.4340012 122.7004997  -8.6920012  26.0000012 122.8214997  -9.4550012
  25.7530012 123.3374997  -8.0530012  25.5545786 122.8031884  -8.7099960
  31.7430012 128.2034997  -7.9580012  31.5030012 128.8654997  -7.3100012
  31.5450012 127.3694997  -7.5330012  31.6833808 128.1813134  -7.8118476
  26.3140012 127.0994997  -3.9750012  26.0030012 127.8814997  -3.5200012
  25.6640012 126.9464997  -4.6610012  26.1835558 127.1859105  -4.0054129
  32.2930012 122.4634997 -16.5230012  32.8730012 122.6134997 -15.7760012
  32.7070012 122.9344997 -17.2460012  32.4282830 122.5476841 -16.5185866
  23.2340012 123.2974997  -4.7460012  23.3050012 123.9484997  -4.0480012
  22.3440012 123.4004997  -5.0810012  23.1233117 123.4005936  -4.6957300
  30.0200012 129.2004997 -13.0880012  30.4940012 129.4954997 -12.3100012
  29.4570012 129.9384997 -13.3210012  30.0087653 129.3406932 -13.0129864
  24.5540012 129.1714997  -3.2120012  24.5610012 129.0354997  -4.1590012
  23.6380012 129.0534997  -2.9600012  24.4311714 129.1369430  -3.3075334
  35.9920012 114.2134997 -16.7100012  35.0920012 114.3524997 -16.4150012
  36.2440012 115.0444997 -17.1120012  35.9028702 114.3449074 -16.7239795
  24.0580012 123.0014997 -14.7360012  23.7660012 123.7694997 -15.2270012
  23.3840012 122.3414997 -14.8990012  23.9269081 123.0174406 -14.8252660
  37.1810012 128.5794997 -18.3340012  37.2550012 129.5184997 -18.1630012
  38.0870012 128.2744997 -18.3900012  37.3135100 128.6666722 -18.3181881
  20.1510012 125.3644997  -5.9210012  19.6500012 125.3364997  -6.7360012
  20.1560012 124.4584997  -5.6120012  20.0831526 125.2382278  -5.9907128
  19.9010012 128.1444997  -9.0370012  20.8470012 128.0004997  -9.0560012
  19.7890012 128.9284997  -8.5000012  20.0152727 128.2308046  -8.9669928
  38.0990012 128.8104997  -3.3550012  38.0500012 127.8554997  -3.3920012
  37.2720012 129.0784997  -2.9540012  37.9804940 128.7158998  -3.3058625
  29.0780012 128.3844997  -4.4790012  29.1650012 129.2104997  -4.0040012
  28.2140012 128.0544997  -4.2300012  28.9731964 128.4529878  -4.3803451
  29.4920012 132.1564997 -14.6730012  29.4170012 132.0354997 -15.6190012
  29.5250012 133.1064997 -14.5540012  29.4861848 132.2682500 -14.7865166
  23.1450012 130.9454997 -12.8920012  23.2980012 130.5974997 -12.0130012
  22.2950012 130.5894997 -13.1470012  23.0508962 130.8496650 -12.8061660
  32.5940012 131.3104997 -17.6710012  32.9690012 130.5664997 -18.1410012
  32.5980012 131.0404997 -16.7520012  32.6458915 131.1721486 -17.6112176
  32.2630012 131.2364997 -14.9210012  31.3270012 131.3364997 -14.7430012
  32.5430012 130.5274997 -14.3430012  32.1728255 131.1542711 -14.8184609
  35.2510012 120.3034997  -2.8750012  34.8440012 120.7844997  -3.5960012
  35.2920012 119.3984997  -3.1830012  35.2008437 120.2469374  -3.0153317
  22.4000012 126.6874997  -4.8780012  22.6160012 126.3264997  -4.0190012
  21.5450012 126.3134997  -5.0880012  22.3139292 126.5874111  -4.7886614
  25.0190012 115.1574997  -8.8830012  24.1570012 115.0704997  -9.2900012
  24.9960012 116.0134997  -8.4550012  24.8980330 115.2612765  -8.8808137
  29.6820012 114.8794997  -5.5080012  30.1020012 114.4644997  -4.7550012
  28.7490012 114.7014997  -5.3910012  29.6133644 114.7985900  -5.3890461
  33.0080012 118.6354997  -4.6550012  32.4940012 118.5094997  -3.8570012
  32.8530012 119.5474997  -4.8990012  32.9166852 118.7416132  -4.5787842
  33.7710012 123.4964997 -18.8930012  33.8130012 123.2734997 -19.8230012
  34.6200012 123.8954997 -18.7030012  33.8915396 123.5199155 -18.9946373
  29.3430012 117.3724997 -18.2230012  29.0900012 117.3914997 -17.3000012
  29.0870012 116.5004997 -18.5240012  29.2737790 117.2572437 -18.1373737
  25.1100012 120.1234997  -7.7880012  24.4680012 120.0824997  -7.0790012
  25.1470012 121.0494997  -8.0250012  25.0271324 120.2431559  -7.7230176
  25.1070012 120.3444997 -12.8760012  24.2140012 120.0034997 -12.9340012
  25.5570012 119.9674997 -13.6310012  25.0457305 120.2468484 -12.9860823
  30.6420012 120.7604997 -14.0590012  30.2330012 121.5754997 -14.3500012
  31.3630012 120.6204997 -14.6730012  30.6834537 120.8532018 -14.1818658
  29.7440012 120.9354997  -2.5710012  29.1820012 120.2314997  -2.2500012
  30.5710012 120.8154997  -2.1030012  29.7787095 120.8227883  -2.4637670
  31.6470012 120.2064997 -11.2450012  31.4520012 120.8114997 -11.9600012
  31.8280012 119.3724997 -11.6790012  31.6447614 120.1766300 -11.4015595
  22.8600012 120.4434997  -5.9210012  22.8220012 120.8434997  -5.0520012
  22.3690012 119.6264997  -5.8300012  22.7884684 120.3878069  -5.7898941
  26.2260012 117.8174997 -19.1220012  25.7950012 117.3724997 -18.3920012
  25.5080012 118.1894997 -19.6340012  26.0699438 117.8068940 -19.0913201
  19.4680012 117.5594997 -12.0700012  20.0990012 117.5304997 -11.3510012
  19.9170012 117.1344997 -12.8000012  19.6150774 117.4980492 -12.0703447
  20.7420012 118.3054997 -16.6460012  21.2160012 118.8964997 -17.2310012
  20.0250012 118.8364997 -16.2990012  20.7099341 118.4580867 -16.6791164
  30.9110012 121.8444997  -6.5730012  31.2340012 121.2134997  -7.2160012
  30.4710012 121.3094997  -5.9130012  30.8956895 121.6858441  -6.5717150
  27.6880012 117.7714997 -11.7890012  26.7770012 117.8284997 -11.5010012
  28.1940012 117.7114997 -10.9790012  27.6315413 117.7711985 -11.6399378
  22.5170012 119.4004997 -12.9630012  21.6270012 119.5004997 -13.3030012
  22.8130012 118.5584997 -13.3090012  22.4352823 119.3003545 -13.0562787
  26.1700012 119.4004997 -15.3060012  27.1010012 119.5294997 -15.1280012
  25.9550012 120.0704997 -15.9560012  26.2684247 119.5086565 -15.3694253
  32.0930012 117.0064997  -8.5250012  31.4170012 117.1374997  -7.8610012
  31.6080012 116.8514997  -9.3350012  31.9347145 117.0034905  -8.5435483
  24.8440012 120.5954997 -17.7390012  24.3010012 120.2154997 -18.4310012
  25.6770012 120.7894997 -18.1680012  24.8824399 120.5698124 -17.8915474
  35.3810012 132.6784997  -2.2480012  35.5810012 133.1024997  -3.0830012
  36.0360012 133.0214997  -1.6410012  35.4970051 132.7829648  -2.2802164
  22.9790012 125.1524997  -2.6400012  23.7110012 125.4064997  -2.0790012
  22.1990012 125.3564997  -2.1250012  22.9738232 125.2149177  -2.4934240
  29.0080012 120.5594997  -9.9020012  29.5730012 120.0124997 -10.4490012
  28.8610012 120.0374997  -9.1140012  29.0652918 120.4142024  -9.8701546
  24.0100012 116.6954997 -13.4840012  23.6930012 115.7934997 -13.5190012
  24.7920012 116.6974997 -14.0370012  24.0722284 116.5721628 -13.5635217
  27.6350012 118.9474997  -7.4880012  26.7990012 119.4014997  -7.3780012
  28.1590012 119.2234997  -6.7360012  27.5914414 119.0469376  -7.3712864
  28.1790012 125.1604997 -15.8040012  27.4340012 124.6534997 -16.1260012
  28.0450012 125.2094997 -14.8570012  28.0588776 125.0976940 -15.7201353
  35.3290012 124.2934997  -7.0170012  35.9710012 124.7504997  -7.5610012
  34.4990012 124.4064997  -7.4800012  35.3045963 124.3712704  -7.1539823
  32.0770012 117.9744997 -17.6040012  31.1380012 118.0864997 -17.7560012
  32.3740012 118.8314997 -17.2980012  31.9887666 118.1056443 -17.5834232
  29.6980012 125.3444997  -4.5670012  29.3530012 124.9634997  -3.7600012
  29.4980012 126.2784997  -4.4950012  29.6238061 125.4185228  -4.4469039
  32.7950012 119.8414997 -15.9440012  33.6870012 119.7044997 -15.6250012
  32.8520012 120.6324997 -16.4800012  32.9246285 119.9296660 -15.9728310
  23.3040012 124.4554997 -10.0340012  24.0490012 124.4534997 -10.6350012
  23.3820012 123.6324997  -9.5520012  23.4165518 124.3439315 -10.0511071
  30.3050012 126.6194997 -16.7780012  30.0090012 127.4454997 -16.3970012
  29.6020012 125.9994997 -16.5820012  30.1694914 126.6488199 -16.6993557
  20.3120012 122.9164997  -4.7190012  20.5350012 122.4984997  -3.8870012
  19.7100012 122.3034997  -5.1420012  20.2611759 122.7764668  -4.6622978
  27.3280012 122.4334997  -2.5060012  27.0320012 122.2674997  -3.4010012
  28.2600012 122.2134997  -2.5170012  27.4134166 122.3810640  -2.6299464
  31.9490012 127.8064997  -4.6160012  31.0480012 127.9894997  -4.8840012
  31.9830012 128.0654997  -3.6950012  31.8303041 127.8665512  -4.5281803
  37.6800012 120.0514997 -16.2490012  37.1260012 119.6554997 -16.9210012
  37.7800012 120.9614997 -16.5270012  37.6177059 120.1203586 -16.3785599
  37.6430012 125.8514997  -3.4120012  36.7920012 126.0894997  -3.7790012
  38.2340012 125.8344997  -4.1650012  37.6062487 125.8818258  -3.5641107
  35.9750012 128.8374997 -15.7840012  35.6020012 128.0114997 -15.4750012
  36.2530012 128.6544997 -16.6810012  35.9615630 128.6997303 -15.8630374
  33.1360012 123.6454997  -8.7630012  32.2070012 123.4134997  -8.7900012
  33.5870012 122.8684997  -9.0930012  33.0699216 123.5087238  -8.8113083
  25.6790012 127.9734997 -12.6300012  26.2060012 128.7464997 -12.8300012
  24.7990012 128.1984997 -12.9310012  25.6321773 128.1098005 -12.6980990
  21.4340012 122.8354997 -18.0430012  22.0500012 123.4624997 -17.6630012
  20.5720012 123.1514997 -17.7710012  21.4017698 122.9639430 -17.9542817
  27.1060012 125.6364997 -13.0530012  26.8650012 126.5614997 -13.0120012
  26.3650012 125.1774997 -12.6570012  26.9728409 125.7011421 -12.9938623
  27.6210012 129.7854997  -6.7380012  27.9830012 130.6404997  -6.9720012
  28.1520012 129.4934997  -5.9980012  27.7424473 129.8631060  -6.6699145
  25.7890012 130.6584997 -13.5080012  24.8390012 130.7634997 -13.4570012
  26.1410012 131.4784997 -13.1630012  25.7064203 130.7838314 -13.4543350
  31.1650012 125.8844997  -7.0380012  30.7390012 125.6574997  -6.2110012
  31.7450012 125.1464997  -7.2200012  31.1851868 125.7535299  -6.9494170
  33.3680012 126.8134997 -17.9640012  33.7210012 126.4334997 -17.1590012
  32.4190012 126.7204997 -17.8770012  33.2880441 126.7489596 -17.8421441
  33.8230012 130.4364997  -4.5680012  33.2220012 129.8814997  -5.0640012
  34.1050012 131.1034997  -5.1940012  33.7788519 130.4506841  -4.7205048
  37.8710012 131.2934997 -17.7630012  38.6150012 131.8794997 -17.9030012
  37.1770012 131.8614997 -17.4290012  37.8790292 131.4505582 -17.7370039
  21.9460012 117.6694997  -5.1610012  21.0530012 118.0084997  -5.2290012
  21.8470012 116.8144997  -4.7430012  21.8104164 117.6002588  -5.1137765
  34.2340012 125.4864997 -15.7370012  33.9560012 124.7584997 -15.1810012
  35.1610012 125.6054997 -15.5320012  34.3213124 125.4028802 -15.6331155
  21.5970012 129.4744997  -6.7260012  21.8140012 128.5424997  -6.7570012
  21.8430012 129.7484997  -5.8430012  21.6599549 129.3840636  -6.6108237
  27.4590012 127.9254997 -19.5170012  27.6980012 127.1774997 -20.0640012
  27.1900012 127.5374997 -18.6840012  27.4553675 127.7706638 -19.4793135
  26.3960012 127.4954997 -17.0600012  26.5420012 126.9754997 -16.2700012
  26.3930012 128.4024997 -16.7540012  26.4155989 127.5468853 -16.9103912
  22.8490012 124.7484997 -16.5500012  22.1630012 125.1004997 -15.9830012
  23.3710012 125.5114997 -16.7970012  22.8256852 124.8998578 -16.5057882
  30.6800012 117.4104997  -6.2710012  31.3790012 117.4844997  -5.6210012
  30.2990012 116.5464997  -6.1170012  30.7241767 117.3037624  -6.1611678
  31.4650012 117.0624997 -15.1740012  31.6850012 117.5344997 -15.9770012
  32.0230012 117.4574997 -14.5040012  31.5704968 117.1804285 -15.1932669
  29.1330012 129.1934997 -16.3110012  28.3170012 129.6904997 -16.2590012
  29.6630012 129.6684997 -16.9510012  29.0929161 129.3257722 -16.3904044
  28.6650012 118.7904997 -14.3390012  29.4770012 119.2954997 -14.2930012
  28.4200012 118.6454997 -13.4250012  28.7430520 118.8400375 -14.2091483
  29.2000012 119.7764997  -5.1540012  29.3190012 120.3504997  -4.3970012
  29.8560012 119.0884997  -5.0400012  29.3049757 119.7621079  -5.0349175
  29.5480012 115.8714997 -13.4010012  29.2020012 116.4894997 -12.7560012
  30.2070012 116.3724997 -13.8820012  29.5897826 116.0235802 -13.3779029
  26.4720012 130.2374997 -16.3290012  26.6320012 131.0364997 -16.8300012
  26.2740012 130.5434997 -15.4440012  26.4671649 130.3884469 -16.2780185
  25.2060012 116.9344997 -16.7140012  25.1230012 117.8234997 -16.3670012
  26.0960012 116.6694997 -16.4820012  25.3149469 117.0201430 -16.6352374
  35.4050012 117.6834997  -4.3190012  34.4880012 117.9464997  -4.4070012
  35.7400012 117.6804997  -5.2160012  35.3249900 117.7190224  -4.4522081
  34.0070012 121.4344997 -10.2240012  33.2090012 121.0194997 -10.5520012
  34.4520012 120.7434997  -9.7330012  33.9579885 121.2843543 -10.2025111
  23.4650012 127.3624997 -17.6530012  24.0570012 128.0614997 -17.3770012
  23.9240012 126.9294997 -18.3730012  23.6081142 127.3997049 -17.7125170
  21.7810012 120.0264997 -18.5370012  21.7360012 120.9654997 -18.3590012
  20.8930012 119.7904997 -18.8070012  21.6548574 120.1231892 -18.5491088
  35.0930012 130.6904997  -8.6010012  34.9380012 131.3684997  -9.2580012
  36.0260012 130.7624997  -8.3980012  35.1978500 130.7930170  -8.6634881
  22.5890012 114.8084997  -9.8640012  22.3600012 114.8674997 -10.7920012
  22.1460012 114.0164997  -9.5580012  22.4978530 114.7095753  -9.9495214
  21.5190012 128.7484997 -13.7040012  20.6870012 129.2214997 -13.6760012
  22.0650012 129.2584997 -14.3020012  21.4789739 128.8821871 -13.7810284
  20.8070012 131.3614997  -2.3740012  21.3480012 131.1444997  -1.6140012
  20.3260012 130.5554997  -2.5630012  20.8159345 131.2229514  -2.2956924
  25.4050012 130.2804997  -0.7530012  26.1720012 129.8214997  -0.4120012
  25.3830012 130.0544997  -1.6830012  25.5071434 130.1870409  -0.8319957
  29.4970012 129.7884997 -19.3780012  28.8530012 129.1574997 -19.0570012
  30.2590012 129.2574997 -19.6100012  29.5118077 129.6302920 -19.3653989
  31.9820012 128.6604997  -2.0240012  31.6310012 127.8044997  -1.7810012
  32.7080012 128.8034997  -1.4170012  32.0320769 128.5625636  -1.9086381
  34.1010012 129.6054997 -19.1440012  34.3840012 128.8114997 -18.6920012
  34.8410012 129.8384997 -19.7050012  34.2397486 129.5282803 -19.1579302
  20.7140012 125.1714997  -1.4190012  20.8580012 124.2694997  -1.7060012
  19.9420012 125.4574997  -1.9070012  20.6293322 125.0868261  -1.5242119
  25.0560012 125.5154997 -19.2870012  25.1200012 124.7214997 -18.7560012
  25.7090012 125.3964997 -19.9770012  25.1530241 125.3907148 -19.3075683
  27.3700012 125.1414997  -1.9870012  27.0410012 125.4124997  -2.8440012
  27.5220012 124.2004997  -2.0740012  27.3454809 125.0513862  -2.1161756
  33.1040012 125.0574997  -4.6030012  33.8500012 125.6454997  -4.7230012
  32.3470012 125.6394997  -4.5400012  33.1037554 125.2167011  -4.6109093
  21.5470012 122.3714997  -1.9990012  21.9550012 121.5144997  -2.1200012
  21.2870012 122.3864997  -1.0780012  21.5677568 122.2560807  -1.8910412
  26.2050012 123.4874997 -16.9810012  25.7450012 123.0034997 -16.2950012
  26.4600012 122.8194997 -17.6170012  26.1764902 123.3308731 -16.9730666
  25.4940012 121.3804997  -4.6250012  24.8760012 122.0554997  -4.3450012
  25.8380012 121.7014997  -5.4580012  25.4559615 121.5162721  -4.6993419
  27.2760012 121.7304997 -18.7190012  27.0960012 121.5764997 -19.6460012
  28.2260012 121.8384997 -18.6740012  27.3797776 121.7240175 -18.8398157
  30.5140012 123.8524997  -1.3480012  31.4670012 123.9354997  -1.3750012
  30.3530012 123.1404997  -0.7280012  30.6226426 123.7676746  -1.2679421
  36.6660012 124.0854997 -19.2730012  36.3920012 123.6604997 -20.0860012
  36.7050012 125.0164997 -19.4900012  36.6337699 124.1532484 -19.4136390
  25.8330012 118.7354997  -3.5430012  25.9830012 118.0064997  -4.1450012
  25.8360012 119.5124997  -4.1020012  25.8539302 118.7407851  -3.7009308
  26.2460012 117.1054997  -6.0500012  26.7820012 117.5564997  -6.7020012
  25.3940012 116.9974997  -6.4730012  26.2042178 117.1526390  -6.1964244
  27.8280012 122.5444997  -5.8110012  28.5780012 122.3884997  -6.3840012
  27.4890012 123.3964997  -6.0860012  27.8848921 122.6382968  -5.9266439
  32.2430012 120.3594997  -0.7820012  32.4360012 119.4284997  -0.8940012
  33.1010012 120.7844997  -0.7920012  32.3853020 120.2896389  -0.7986639
  33.5600012 123.1484997  -2.7050012  33.2790012 123.8574997  -3.2820012
  34.5030012 123.0754997  -2.8560012  33.6489027 123.2357646  -2.8044449
  24.3120012 119.9334997  -1.6310012  23.5450012 119.4014997  -1.8410012
  24.9910012 119.6234997  -2.2310012  24.2987022 119.8187506  -1.7408352
  27.0520012 114.5614997  -5.6190012  26.9530012 115.5084997  -5.7240012
  26.3090012 114.1894997  -6.0940012  26.9380564 114.6405902  -5.6975440
  28.3160012 118.8834997  -2.0550012  28.0800012 118.6634997  -1.1530012
  27.5320012 118.6764997  -2.5650012  28.1778628 118.8254760  -2.0006068
  31.0310012 118.0104997  -2.9790012  30.0840012 118.0424997  -2.8470012
  31.3440012 117.3854997  -2.3260012  30.9435475 117.9303207  -2.8725545
  32.6650012 116.6444997  -0.9740012  32.5690012 115.6924997  -0.9800012
  32.3440012 116.9134997  -0.1140012  32.6084070 116.5504035  -0.8584559
  22.4920012 117.8544997  -1.9270012  22.7040012 117.1474997  -2.5370012
  22.3810012 117.4164997  -1.0830012  22.5059721 117.6987084  -1.8963157
  27.2730012 113.8554997  -2.9470012  27.9850012 113.2154997  -2.9610012
  27.1720012 114.1224997  -3.8610012  27.3567939 113.8039938  -3.0724350
  27.6270012 115.5384997  -0.8940012  27.4950012 115.0624997  -1.7140012
  27.0280012 116.2824997  -0.9490012  27.5279071 115.5739618  -1.0137114
  27.1730012 132.4214997 -17.7170012  28.1060012 132.5794997 -17.5740012
  26.9090012 133.0964997 -18.3420012  27.2649510 132.5343611 -17.7819259
  20.7420012 127.0574997 -18.2350012  21.6560012 127.1364997 -17.9610012
  20.7490012 126.3704997 -18.9010012  20.8681131 126.9753961 -18.2875607
  19.3910012 132.4504997 -13.1570012  18.7440012 131.9884997 -13.6900012
  19.7450012 131.7784997 -12.5750012  19.3503849 132.2964723 -13.1512041
  20.2610012 130.5314997 -11.3530012  19.9260012 129.6514997 -11.1810012
  20.4830012 130.8764997 -10.4880012  20.2451783 130.4577500 -11.2125792
  37.8090012 131.3404997  -8.3720012  37.7880012 131.5254997  -7.4330012
  38.5000012 131.9094997  -8.7130012  37.8994618 131.4426606  -8.2896136
  37.3730012 130.9084997  -5.4500012  36.8850012 130.1724997  -5.8210012
  37.9220012 130.5144997  -4.7720012  37.3804872 130.7546249  -5.4090840
  35.8230012 126.6974997  -0.8120012  34.9570012 126.5924997  -0.4180012
  36.2000012 127.4564997  -0.3660012  35.7553308 126.7856900  -0.6977607
  37.1240012 124.9544997 -15.2980012  37.9740012 125.3754997 -15.1710012
  37.1300012 124.2144997 -14.6910012  37.2411372 124.9120803 -15.1985656
  37.5190012 123.0074997 -13.4740012  36.7920012 122.5284997 -13.0770012
  38.1000012 123.2134997 -12.7420012  37.4979375 122.9697090 -13.3205871
  37.2780012 125.7924997  -8.5270012  38.1110012 125.4144997  -8.8070012
  37.3900012 126.7354997  -8.6460012  37.4072647 125.8682218  -8.5814513
  35.7640012 128.6704997  -6.2200012  35.1170012 128.9954997  -5.5940012
  35.2470012 128.2304997  -6.8940012  35.6054029 128.6555004  -6.2254173
  37.7870012 122.9084997 -17.0830012  37.2650012 123.2654997 -17.8020012
  37.7540012 123.5834997 -16.4050012  37.7111634 123.0485413 -17.0896855
  36.1360012 120.1484997 -18.5320012  36.2320012 120.8154997 -19.2130012
  35.9960012 119.3324997 -19.0140012  36.1302135 120.1294500 -18.6901509
  35.3050012 121.5284997 -12.9110012  35.1550012 120.5834997 -12.9320012
  34.9520012 121.8094997 -12.0680012  35.2366625 121.4370441 -12.7997654
  20.3410012 123.6064997  -8.9010012  20.5250012 123.5244997  -9.8370012
  21.1900012 123.4824997  -8.4770012  20.4810139 123.5785003  -8.9718545
  36.1620012 123.4984997  -3.2730012  36.7450012 122.7644997  -3.0810012
  36.7260012 124.2704997  -3.2260012  36.3179769 123.5024227  -3.2403841
  37.6580012 121.4014997  -2.5880012  36.7950012 121.0224997  -2.7540012
  38.2630012 120.6624997  -2.6620012  37.6215979 121.2498023  -2.6207183
  35.3830012 117.5564997 -19.4150012  35.9940012 117.1854997 -18.7780012
  34.5470012 117.1354997 -19.2190012  35.3535032 117.4487554 -19.3012965
  35.0160012 119.1114997 -14.4490012  35.2960012 118.2044997 -14.3250012
  35.7750012 119.5454997 -14.8380012  35.1569277 119.0460942 -14.4846318
  35.6280012 119.6924997  -9.0130012  36.5610012 119.9044997  -9.0470012
  35.3930012 119.7944997  -8.0910012  35.7238036 119.7352769  -8.8930024
  35.6570012 120.4294997  -6.2370012  34.8140012 120.6974997  -5.8710012
  36.0990012 121.2514997  -6.4480012  35.6014158 120.5773291  -6.2154509
  19.9380012 118.8774997  -2.7600012  20.8580012 118.7554997  -2.5240012
  19.4890012 118.1274997  -2.3710012  20.0031580 118.7593727  -2.6750994
  37.9400012 114.4094997  -0.8840012  38.2900012 113.7554997  -1.4890012
  38.0870012 115.2464997  -1.3230012  38.0078419 114.4331591  -1.0262882
  35.6290012 116.3744997 -14.4010012  35.8120012 115.9254997 -13.5750012
  35.0300012 115.7894997 -14.8640012  35.5730202 116.2339975 -14.3506725
  21.1590012 117.1894997  -9.8690012  21.6050012 116.3974997  -9.5670012
  21.6260012 117.9054997  -9.4380012  21.2830172 117.1780624  -9.7695180
  19.4630012 120.1884997  -8.8000012  19.9550012 119.9674997  -9.5910012
  19.8260012 121.0294997  -8.5190012  19.5793126 120.2718357  -8.8702469
  37.4600012 116.5184997  -2.5340012  36.5420012 116.7894997  -2.5700012
  37.5830012 115.9834997  -3.3190012  37.3511066 116.4832892  -2.6449513
  37.4960012 116.4414997 -17.8730012  37.9080012 115.7204997 -18.3480012
  38.1780012 117.1114997 -17.8140012  37.6445885 116.4332368 -17.9301085
  19.7770012 116.4464997 -14.7460012  18.8520012 116.6554997 -14.8750012
  20.2310012 116.9304997 -15.4350012  19.7117368 116.5405993 -14.8568774
  34.5480012 131.4304997 -12.8000012  35.2000012 131.0834997 -13.4080012
  35.0580012 131.9194997 -12.1540012  34.7062637 131.4490597 -12.7959764
  19.7410012 115.1844997  -6.4010012  19.0760012 114.9384997  -5.7580012
  19.2980012 115.8064997  -6.9790012  19.5900956 115.2348632  -6.3910648
  21.9330012 128.3594997  -2.2570012  21.1120012 128.5344997  -2.7170012
  21.6800012 128.2864997  -1.3360012  21.7866164 128.3735622  -2.1955077
  24.8870012 129.3344997  -5.9980012  24.4620012 130.1434997  -6.2810012
  25.7910012 129.4194997  -6.3000012  24.9510271 129.4568469  -6.0776224
  29.1980012 130.7334997  -3.0390012  29.3830012 130.3994997  -2.1610012
  30.0440012 131.0424997  -3.3610012  29.3377539 130.7296047  -2.9624395
  31.5430012 132.0194997  -3.7950012  32.2200012 131.3864997  -4.0350012
  31.8650012 132.4204997  -2.9880012  31.6791637 131.9871154  -3.7187207
  36.4600012 114.6084997  -4.7150012  35.6480012 114.9334997  -5.1030012
  36.6930012 113.8484997  -5.2480012  36.3803423 114.5502436  -4.8401747
  22.2890012 132.5904997  -5.9510012  21.5680012 133.0304997  -6.4020012
  21.9230012 132.3394997  -5.1020012  22.1409804 132.6167698  -5.8980160
  24.7560012 132.1904997  -6.9210012  23.8910012 132.2624997  -6.5170012
  24.7010012 132.7374997  -7.7050012  24.6302085 132.2742685  -6.9716638
  29.4660012 132.0784997  -7.7460012  29.0100012 132.6074997  -8.4000012
  29.6290012 132.6814997  -7.0200012  29.4255585 132.2324468  -7.7374938
  31.7940012 130.9564997  -6.8010012  30.8890012 131.1214997  -7.0660012
  32.2230012 131.8094997  -6.8660012  31.7280799 131.0944483  -6.8460818
  34.3980012 132.5264997  -6.5060012  34.2160012 133.4424997  -6.7160012
  34.5750012 132.1164997  -7.3520012  34.3970210 132.5964822  -6.6492115
  21.7030012 131.2134997  -9.0410012  21.6850012 130.7884997  -8.1830012
  22.5080012 130.8954997  -9.4490012  21.8093875 131.1123812  -8.9788345
  23.8450012 129.9234997 -10.3860012  23.6260012 129.0074997 -10.2160012
  24.6690012 130.0634997  -9.9200012  23.9264420 129.8170520 -10.2997226
  26.3820012 130.3934997  -9.5370012  26.5950012 129.5054997  -9.8240012
  26.4460012 130.3594997  -8.5830012  26.4198232 130.2673102  -9.4472603
  29.8900012 116.0574997 -10.3930012  29.2160012 115.4284997 -10.1370012
  30.4540012 115.5734997 -10.9960012  29.8739230 115.9058744 -10.4394660
  35.0330012 114.1654997 -10.2800012  35.6370012 114.7124997 -10.7820012
  34.1630012 114.4844997 -10.5200012  34.9981241 114.2835806 -10.3812346
  36.7600012 115.3034997 -11.9470012  37.3720012 114.7894997 -12.4730012
  37.1420012 116.1814997 -11.9230012  36.8954540 115.3517140 -12.0158170
  22.2170012 114.6914997 -12.5710012  21.4400012 114.4574997 -13.0780012
  22.7470012 113.8944997 -12.5620012  22.1822330 114.5516988 -12.6392258
  21.0530012 114.4894997 -16.7670012  21.4920012 115.1004997 -17.3590012
  20.4200012 115.0274997 -16.2930012  21.0274514 114.6459257 -16.7839070
  26.7960012 114.6184997 -12.7570012  27.6710012 115.0064997 -12.7870012
  26.6600012 114.4034997 -11.8350012  26.8973695 114.6425184 -12.6363560
  32.3530012 114.6484997 -11.1080012  32.4290012 114.7434997 -12.0580012
  32.0780012 113.7404997 -10.9790012  32.3262321 114.5387867 -11.2204921
  33.7060012 114.6744997 -15.4160012  33.0040012 115.2894997 -15.6250012
  33.2620012 113.8364997 -15.2850012  33.5496330 114.6455783 -15.4269672
  20.9540012 130.4374997 -15.8690012  20.2690012 130.3994997 -16.5370012
  20.9580012 131.3504997 -15.5810012  20.8608193 130.5557016 -15.9214716
  22.9140012 116.4054997 -18.3250012  23.4060012 115.7754997 -18.8520012
  23.5380012 116.7014997 -17.6610012  23.0655446 116.3593199 -18.3074020
  27.9400012 116.6984997 -15.8680012  28.1180012 116.0524997 -15.1850012
  27.8870012 117.5324997 -15.4000012  27.9571829 116.7227985 -15.7114060
  29.8190012 131.6474997 -17.4720012  30.6850012 132.0134997 -17.6500012
  29.5720012 131.2074997 -18.2860012  29.9042392 131.6381756 -17.6063711
  36.5280012 131.2104997 -14.7930012  36.3330012 130.4624997 -15.3580012
  36.4890012 131.9684997 -15.3760012  36.4960380 131.2106099 -14.9491616
  22.1750012 115.2054997  -3.0530012  21.8090012 114.4404997  -2.6100012
  23.0880012 115.2344997  -2.7660012  22.2482790 115.1047224  -2.9535930
  24.1480012 114.5564997  -1.5170012  25.0460012 114.2824997  -1.7020012
  23.7610012 113.8134997  -1.0530012  24.2186612 114.4185914  -1.4796357
  22.7720012 131.3574997 -18.8440012  22.5050012 131.6444997 -17.9710012
  23.5440012 130.8114997 -18.6920012  22.8397488 131.3230294 -18.7038950
  32.5690012 113.8884997  -1.3350012  32.6460012 113.4624997  -0.4810012
  33.4630012 113.9024997  -1.6780012  32.7003428 113.8320879  -1.2644690
  35.7450012 129.9614997  -2.6430012  34.9630012 129.7754997  -3.1620012
  35.6730012 130.8904997  -2.4250012  35.6281777 130.0616492  -2.6845952
  50.1510012 123.8474997 -12.6120012  50.2400012 124.7914997 -12.7440012
  49.5130012 123.5724997 -13.2700012  50.0769081 123.9394830 -12.7190386
  49.0840012 123.1024997  -9.1930012  49.0460012 122.4564997  -8.4880012
  48.7620012 122.6364997  -9.9640012  49.0352333 122.9509408  -9.2007022
  41.4530012 122.7174997  -7.6000012  41.4940012 122.0914997  -6.8770012
  42.1560012 123.3414997  -7.4180012  41.5536363 122.7161196  -7.4763956
  52.7900012 126.0414997 -10.8920012  52.3500012 125.3214997 -10.4410012
  52.7770012 126.7624997 -10.2620012  52.7280226 126.0403731 -10.7451506
  42.3760012 127.1674997  -9.0650012  42.0070012 126.3654997  -9.4350012
  43.3170012 126.9984997  -9.0190012  42.4527289 127.0350153  -9.1093684
  38.9860012 120.8274997 -13.6720012  38.5390012 121.6734997 -13.6910012
  38.4250012 120.2474997 -14.1880012  38.8489900 120.8649916 -13.7443199
  39.6970012 122.9894997 -11.5460012  39.9100012 122.2194997 -11.0190012
  40.4350012 123.0784997 -12.1500012  39.8258496 122.8961394 -11.5554700
  49.9020012 131.1464997 -10.6790012  50.5220012 130.4694997 -10.9530012
  49.6940012 130.9284997  -9.7710012  49.9586904 131.0243870 -10.5936635
  47.4740012 125.5354997  -8.7870012  47.7780012 124.8494997  -9.3820012
  48.1950012 125.6534997  -8.1690012  47.6130671 125.4576305  -8.7848184
  56.1370012 117.1364997  -7.9260012  56.1860012 117.7464997  -7.1900012
  56.5620012 117.5974997  -8.6490012  56.2011824 117.2823741  -7.9229795
  50.6150012 119.9294997  -8.4590012  50.7570012 118.9834997  -8.4390012
  50.5080012 120.1364997  -9.3880012  50.6199864 119.8279534  -8.5817661
  43.7690012 118.0304997 -11.1870012  43.8130012 118.8904997 -11.6050012
  43.3120012 117.4784997 -11.8210012  43.7132185 118.0735799 -11.3299701
  51.4920012 118.1614997 -12.7860012  52.1380012 117.8324997 -12.1610012
  52.0020012 118.6794997 -13.4090012  51.6494264 118.1864611 -12.7846138
  40.3900012 120.4274997 -10.4250012  41.0430012 119.8774997  -9.9930012
  40.4140012 120.1534997 -11.3420012  40.4826683 120.3151466 -10.4897877
  45.5460012 121.9774997 -11.2100012  46.1620012 121.4514997 -10.7000012
  44.9600012 121.3374997 -11.6130012  45.5510810 121.8189208 -11.1946827
  56.5280012 118.6144997  -5.6900012  55.8400012 119.2724997  -5.7860012
  56.5440012 118.4174997  -4.7540012  56.4358525 118.6780462  -5.5765192
  42.5800012 116.9484997  -7.1130012  42.3610012 117.4784997  -7.8790012
  41.9120012 117.1754997  -6.4660012  42.4597600 117.0516906  -7.1303621
  49.9490012 126.4484997 -13.5690012  49.6530012 126.1264997 -14.4200012
  49.6240012 127.3484997 -13.5280012  49.8646371 126.5260215 -13.6798199
  45.1490012 124.6244997  -6.8260012  44.4090012 125.2224997  -6.7220012
  45.8630012 125.1784997  -7.1410012  45.1442237 124.7812831  -6.8543535
  53.2560012 117.4524997 -10.8060012  53.0400012 116.6864997 -10.2730012
  53.9110012 117.9244997 -10.2930012  53.3150632 117.4115889 -10.6637139
  42.1730012 118.8404997  -9.1610012  42.7870012 119.4734997  -8.7870012
  42.6850012 118.3684997  -9.8170012  42.3262296 118.8632370  -9.1985748
  43.5560012 126.5884997  -6.0380012  43.5510012 127.4684997  -6.4160012
  42.7030012 126.5054997  -5.6130012  43.4399464 126.6976117  -6.0322093
  39.6770012 126.2594997 -15.2560012  39.4050012 126.4884997 -16.1450012
  39.7230012 127.0974997 -14.7960012  39.6460094 126.4041213 -15.3154303
  53.3020012 127.8814997  -8.5440012  52.3610012 127.9394997  -8.3820012
  53.5790012 128.7874997  -8.6810012  53.2104679 128.0119443  -8.5403185
  53.6030012 116.1674997  -7.1260012  52.8670012 116.7784997  -7.1640012
  54.2860012 116.5824997  -7.6530012  53.5946541 116.3071374  -7.2024168
  46.6060012 114.2544997  -9.6600012  46.4890012 113.3054997  -9.7150012
  45.7510012 114.5864997  -9.3870012  46.4743733 114.1695409  -9.6306103
  51.5540012 129.6624997 -11.9180012  51.9800012 128.9554997 -12.4030012
  51.8710012 130.4634997 -12.3350012  51.6551019 129.6740994 -12.0406870
  52.7140012 127.5634997 -13.4100012  52.4560012 126.8734997 -14.0210012
  52.7850012 127.1204997 -12.5640012  52.6882856 127.4092124 -13.3793115
  54.4000012 126.1294997  -4.9320012  54.5400012 125.5384997  -5.6720012
  54.5670012 127.0024997  -5.2890012  54.4416778 126.1666426  -5.0813035
  48.8730012 123.0914997 -15.1600012  48.1610012 123.6264997 -15.5120012
  49.5640012 123.1474997 -15.8200012  48.8690132 123.1722543 -15.2973711
  48.9260012 121.5494997 -18.1210012  49.6270012 121.5714997 -17.4700012
  49.2290012 120.9214997 -18.7770012  49.0627830 121.4676566 -18.1206289
  56.2420012 122.4694997  -6.8660012  55.5890012 123.1644997  -6.7770012
  56.7070012 122.6794997  -7.6760012  56.2155390 122.5929425  -6.9633117
  52.2780012 123.3014997 -14.2080012  51.5460012 123.5294997 -13.6350012
  52.7260012 122.5874997 -13.7530012  52.2383095 123.2362571 -14.0680881
  52.1760012 121.4754997  -5.1410012  52.2560012 122.2384997  -4.5690012
  51.5740012 121.7544997  -5.8310012  52.1055756 121.6177134  -5.1559411
  43.9240012 123.9314997 -12.3260012  43.5930012 123.5614997 -13.1440012
  44.5120012 123.2614997 -11.9790012  43.9581873 123.7901156 -12.3911898
  45.2900012 127.3594997  -9.6440012  45.1960012 126.7814997 -10.4010012
  46.0200012 126.9884997  -9.1480012  45.3757981 127.2302390  -9.6805835
  44.2900012 122.7004997  -8.6920012  44.8560012 122.8214997  -9.4550012
  44.6090012 123.3374997  -8.0530012  44.4105786 122.8031884  -8.7099960
  50.5990012 128.2034997  -7.9580012  50.3590012 128.8654997  -7.3100012
  50.4010012 127.3694997  -7.5330012  50.5393808 128.1813134  -7.8118476
  45.1700012 127.0994997  -3.9750012  44.8590012 127.8814997  -3.5200012
  44.5200012 126.9464997  -4.6610012  45.0395558 127.1859105  -4.0054129
  51.1490012 122.4634997 -16.5230012  51.7290012 122.6134997 -15.7760012
  51.5630012 122.9344997 -17.2460012  51.2842830 122.5476841 -16.5185866
  42.0900012 123.2974997  -4.7460012  42.1610012 123.9484997  -4.0480012
  41.2000012 123.4004997  -5.0810012  41.9793117 123.4005936  -4.6957300
  48.8760012 129.2004997 -13.0880012  49.3500012 129.4954997 -12.3100012
  48.3130012 129.9384997 -13.3210012  48.8647653 129.3406932 -13.0129864
  43.4100012 129.1714997  -3.2120012  43.4170012 129.0354997  -4.1590012
  42.4940012 129.0534997  -2.9600012  43.2871714 129.1369430  -3.3075334
  54.8480012 114.2134997 -16.7100012  53.9480012 114.3524997 -16.4150012
  55.1000012 115.0444997 -17.1120012  54.7588702 114.3449074 -16.7239795
  42.9140012 123.0014997 -14.7360012  42.6220012 123.7694997 -15.2270012
  42.2400012 122.3414997 -14.8990012  42.7829081 123.0174406 -14.8252660
  56.0370012 128.5794997 -18.3340012  56.1110012 129.5184997 -18.1630012
  56.9430012 128.2744997 -18.3900012  56.1695100 128.6666722 -18.3181881
  39.0070012 125.3644997  -5.9210012  38.5060012 125.3364997  -6.7360012
  39.0120012 124.4584997  -5.6120012  38.9391526 125.2382278  -5.9907128
  38.7570012 128.1444997  -9.0370012  39.7030012 128.0004997  -9.0560012
  38.6450012 128.9284997  -8.5000012  38.8712727 128.2308046  -8.9669928
  56.9550012 128.8104997  -3.3550012  56.9060012 127.8554997  -3.3920012
  56.1280012 129.0784997  -2.9540012  56.8364940 128.7158998  -3.3058625
  47.9340012 128.3844997  -4.4790012  48.0210012 129.2104997  -4.0040012
  47.0700012 128.0544997  -4.2300012  47.8291964 128.4529878  -4.3803451
  48.3480012 132.1564997 -14.6730012  48.2730012 132.0354997 -15.6190012
  48.3810012 133.1064997 -14.5540012  48.3421848 132.2682500 -14.7865166
  42.0010012 130.9454997 -12.8920012  42.1540012 130.5974997 -12.0130012
  41.1510012 130.5894997 -13.1470012  41.9068962 130.8496650 -12.8061660
  51.4500012 131.3104997 -17.6710012  51.8250012 130.5664997 -18.1410012
  51.4540012 131.0404997 -16.7520012  51.5018915 131.1721486 -17.6112176
  51.1190012 131.2364997 -14.9210012  50.1830012 131.3364997 -14.7430012
  51.3990012 130.5274997 -14.3430012  51.0288255 131.1542711 -14.8184609
  54.1070012 120.3034997  -2.8750012  53.7000012 120.7844997  -3.5960012
  54.1480012 119.3984997  -3.1830012  54.0568437 120.2469374  -3.0153317
  41.2560012 126.6874997  -4.8780012  41.4720012 126.3264997  -4.0190012
  40.4010012 126.3134997  -5.0880012  41.1699292 126.5874111  -4.7886614
  43.8750012 115.1574997  -8.8830012  43.0130012 115.0704997  -9.2900012
  43.8520012 116.0134997  -8.4550012  43.7540330 115.2612765  -8.8808137
  48.5380012 114.8794997  -5.5080012  48.9580012 114.4644997  -4.7550012
  47.6050012 114.7014997  -5.3910012  48.4693644 114.7985900  -5.3890461
  51.8640012 118.6354997  -4.6550012  51.3500012 118.5094997  -3.8570012
  51.7090012 119.5474997  -4.8990012  51.7726852 118.7416132  -4.5787842
  52.6270012 123.4964997 -18.8930012  52.6690012 123.2734997 -19.8230012
  53.4760012 123.8954997 -18.7030012  52.7475396 123.5199155 -18.9946373
  48.1990012 117.3724997 -18.2230012  47.9460012 117.3914997 -17.3000012
  47.9430012 116.5004997 -18.5240012  48.1297790 117.2572437 -18.1373737
  43.9660012 120.1234997  -7.7880012  43.3240012 120.0824997  -7.0790012
  44.0030012 121.0494997  -8.0250012  43.8831324 120.2431559  -7.7230176
  43.9630012 120.3444997 -12.8760012  43.0700012 120.0034997 -12.9340012
  44.4130012 119.9674997 -13.6310012  43.9017305 120.2468484 -12.9860823
  49.4980012 120.7604997 -14.0590012  49.0890012 121.5754997 -14.3500012
  50.2190012 120.6204997 -14.6730012  49.5394537 120.8532018 -14.1818658
  48.6000012 120.9354997  -2.5710012  48.0380012 120.2314997  -2.2500012
  49.4270012 120.8154997  -2.1030012  48.6347095 120.8227883  -2.4637670
  50.5030012 120.2064997 -11.2450012  50.3080012 120.8114997 -11.9600012
  50.6840012 119.3724997 -11.6790012  50.5007614 120.1766300 -11.4015595
  41.7160012 120.4434997  -5.9210012  41.6780012 120.8434997  -5.0520012
  41.2250012 119.6264997  -5.8300012  41.6444684 120.3878069  -5.7898941
  45.0820012 117.8174997 -19.1220012  44.6510012 117.3724997 -18.3920012
  44.3640012 118.1894997 -19.6340012  44.9259438 117.8068940 -19.0913201
  38.3240012 117.5594997 -12.0700012  38.9550012 117.5304997 -11.3510012
  38.7730012 117.1344997 -12.8000012  38.4710774 117.4980492 -12.0703447
  39.5980012 118.3054997 -16.6460012  40.0720012 118.8964997 -17.2310012
  38.8810012 118.8364997 -16.2990012  39.5659341 118.4580867 -16.6791164
  49.7670012 121.8444997  -6.5730012  50.0900012 121.2134997  -7.2160012
  49.3270012 121.3094997  -5.9130012  49.7516895 121.6858441  -6.5717150
  46.5440012 117.7714997 -11.7890012  45.6330012 117.8284997 -11.5010012
  47.0500012 117.7114997 -10.9790012  46.4875413 117.7711985 -11.6399378
  41.3730012 119.4004997 -12.9630012  40.4830012 119.5004997 -13.3030012
  41.6690012 118.5584997 -13.3090012  41.2912823 119.3003546 -13.0562787
  45.0260012 119.4004997 -15.3060012  45.9570012 119.5294997 -15.1280012
  44.8110012 120.0704997 -15.9560012  45.1244247 119.5086565 -15.3694253
  50.9490012 117.0064997  -8.5250012  50.2730012 117.1374997  -7.8610012
  50.4640012 116.8514997  -9.3350012  50.7907145 117.0034905  -8.5435483
  43.7000012 120.5954997 -17.7390012  43.1570012 120.2154997 -18.4310012
  44.5330012 120.7894997 -18.1680012  43.7384399 120.5698124 -17.8915474
  54.2370012 132.6784997  -2.2480012  54.4370012 133.1024997  -3.0830012
  54.8920012 133.0214997  -1.6410012  54.3530051 132.7829648  -2.2802164
  41.8350012 125.1524997  -2.6400012  42.5670012 125.4064997  -2.0790012
  41.0550012 125.3564997  -2.1250012  41.8298232 125.2149177  -2.4934240
  47.8640012 120.5594997  -9.9020012  48.4290012 120.0124997 -10.4490012
  47.7170012 120.0374997  -9.1140012  47.9212918 120.4142024  -9.8701546
  42.8660012 116.6954997 -13.4840012  42.5490012 115.7934997 -13.5190012
  43.6480012 116.6974997 -14.0370012  42.9282284 116.5721628 -13.5635217
  46.4910012 118.9474997  -7.4880012  45.6550012 119.4014997  -7.3780012
  47.0150012 119.2234997  -6.7360012  46.4474414 119.0469376  -7.3712864
  47.0350012 125.1604997 -15.8040012  46.2900012 124.6534997 -16.1260012
  46.9010012 125.2094997 -14.8570012  46.9148776 125.0976940 -15.7201353
  54.1850012 124.2934997  -7.0170012  54.8270012 124.7504997  -7.5610012
  53.3550012 124.4064997  -7.4800012  54.1605963 124.3712704  -7.1539823
  50.9330012 117.9744997 -17.6040012  49.9940012 118.0864997 -17.7560012
  51.2300012 118.8314997 -17.2980012  50.8447666 118.1056443 -17.5834232
  48.5540012 125.3444997  -4.5670012  48.2090012 124.9634997  -3.7600012
  48.3540012 126.2784997  -4.4950012  48.4798061 125.4185228  -4.4469039
  51.6510012 119.8414997 -15.9440012  52.5430012 119.7044997 -15.6250012
  51.7080012 120.6324997 -16.4800012  51.7806285 119.9296660 -15.9728309
  42.1600012 124.4554997 -10.0340012  42.9050012 124.4534997 -10.6350012
  42.2380012 123.6324997  -9.5520012  42.2725518 124.3439315 -10.0511071
  49.1610012 126.6194997 -16.7780012  48.8650012 127.4454997 -16.3970012
  48.4580012 125.9994997 -16.5820012  49.0254914 126.6488199 -16.6993557
  39.1680012 122.9164997  -4.7190012  39.3910012 122.4984997  -3.8870012
  38.5660012 122.3034997  -5.1420012  39.1171759 122.7764668  -4.6622978
  46.1840012 122.4334997  -2.5060012  45.8880012 122.2674997  -3.4010012
  47.1160012 122.2134997  -2.5170012  46.2694166 122.3810640  -2.6299464
  50.8050012 127.8064997  -4.6160012  49.9040012 127.9894997  -4.8840012
  50.8390012 128.0654997  -3.6950012  50.6863041 127.8665512  -4.5281803
  56.5360012 120.0514997 -16.2490012  55.9820012 119.6554997 -16.9210012
  56.6360012 120.9614997 -16.5270012  56.4737059 120.1203586 -16.3785599
  56.4990012 125.8514997  -3.4120012  55.6480012 126.0894997  -3.7790012
  57.0900012 125.8344997  -4.1650012  56.4622487 125.8818258  -3.5641107
  54.8310012 128.8374997 -15.7840012  54.4580012 128.0114997 -15.4750012
  55.1090012 128.6544997 -16.6810012  54.8175630 128.6997303 -15.8630374
  51.9920012 123.6454997  -8.7630012  51.0630012 123.4134997  -8.7900012
  52.4430012 122.8684997  -9.0930012  51.9259216 123.5087238  -8.8113083
  44.5350012 127.9734997 -12.6300012  45.0620012 128.7464997 -12.8300012
  43.6550012 128.1984997 -12.9310012  44.4881773 128.1098005 -12.6980990
  40.2900012 122.8354997 -18.0430012  40.9060012 123.4624997 -17.6630012
  39.4280012 123.1514997 -17.7710012  40.2577698 122.9639430 -17.9542817
  45.9620012 125.6364997 -13.0530012  45.7210012 126.5614997 -13.0120012
  45.2210012 125.1774997 -12.6570012  45.8288409 125.7011421 -12.9938623
  46.4770012 129.7854997  -6.7380012  46.8390012 130.6404997  -6.9720012
  47.0080012 129.4934997  -5.9980012  46.5984473 129.8631060  -6.6699145
  44.6450012 130.6584997 -13.5080012  43.6950012 130.7634997 -13.4570012
  44.9970012 131.4784997 -13.1630012  44.5624203 130.7838314 -13.4543350
  50.0210012 125.8844997  -7.0380012  49.5950012 125.6574997  -6.2110012
  50.6010012 125.1464997  -7.2200012  50.0411868 125.7535299  -6.9494170
  52.2240012 126.8134997 -17.9640012  52.5770012 126.4334997 -17.1590012
  51.2750012 126.7204997 -17.8770012  52.1440441 126.7489596 -17.8421441
  52.6790012 130.4364997  -4.5680012  52.0780012 129.8814997  -5.0640012
  52.9610012 131.1034997  -5.1940012  52.6348519 130.4506841  -4.7205048
  56.7270012 131.2934997 -17.7630012  57.4710012 131.8794997 -17.9030012
  56.0330012 131.8614997 -17.4290012  56.7350292 131.4505582 -17.7370039
  40.8020012 117.6694997  -5.1610012  39.9090012 118.0084997  -5.2290012
  40.7030012 116.8144997  -4.7430012  40.6664164 117.6002588  -5.1137765
  53.0900012 125.4864997 -15.7370012  52.8120012 124.7584997 -15.1810012
  54.0170012 125.6054997 -15.5320012  53.1773124 125.4028802 -15.6331155
  40.4530012 129.4744997  -6.7260012  40.6700012 128.5424997  -6.7570012
  40.6990012 129.7484997  -5.8430012  40.5159549 129.3840636  -6.6108237
  46.3150012 127.9254997 -19.5170012  46.5540012 127.1774997 -20.0640012
  46.0460012 127.5374997 -18.6840012  46.3113675 127.7706638 -19.4793135
  45.2520012 127.4954997 -17.0600012  45.3980012 126.9754997 -16.2700012
  45.2490012 128.4024997 -16.7540012  45.2715989 127.5468853 -16.9103912
  41.7050012 124.7484997 -16.5500012  41.0190012 125.1004997 -15.9830012
  42.2270012 125.5114997 -16.7970012  41.6816852 124.8998578 -16.5057882
  49.5360012 117.4104997  -6.2710012  50.2350012 117.4844997  -5.6210012
  49.1550012 116.5464997  -6.1170012  49.5801767 117.3037624  -6.1611678
  50.3210012 117.0624997 -15.1740012  50.5410012 117.5344997 -15.9770012
  50.8790012 117.4574997 -14.5040012  50.4264968 117.1804285 -15.1932669
  47.9890012 129.1934997 -16.3110012  47.1730012 129.6904997 -16.2590012
  48.5190012 129.6684997 -16.9510012  47.9489161 129.3257722 -16.3904044
  47.5210012 118.7904997 -14.3390012  48.3330012 119.2954997 -14.2930012
  47.2760012 118.6454997 -13.4250012  47.5990520 118.8400375 -14.2091483
  48.0560012 119.7764997  -5.1540012  48.1750012 120.3504997  -4.3970012
  48.7120012 119.0884997  -5.0400012  48.1609757 119.7621079  -5.0349175
  48.4040012 115.8714997 -13.4010012  48.0580012 116.4894997 -12.7560012
  49.0630012 116.3724997 -13.8820012  48.4457826 116.0235802 -13.3779029
  45.3280012 130.2374997 -16.3290012  45.4880012 131.0364997 -16.8300012
  45.1300012 130.5434997 -15.4440012  45.3231649 130.3884469 -16.2780185
  44.0620012 116.9344997 -16.7140012  43.9790012 117.8234997 -16.3670012
  44.9520012 116.6694997 -16.4820012  44.1709469 117.0201430 -16.6352374
  54.2610012 117.6834997  -4.3190012  53.3440012 117.9464997  -4.4070012
  54.5960012 117.6804997  -5.2160012  54.1809900 117.7190224  -4.4522081
  52.8630012 121.4344997 -10.2240012  52.0650012 121.0194997 -10.5520012
  53.3080012 120.7434997  -9.7330012  52.8139885 121.2843543 -10.2025111
  42.3210012 127.3624997 -17.6530012  42.9130012 128.0614997 -17.3770012
  42.7800012 126.9294997 -18.3730012  42.4641142 127.3997049 -17.7125170
  40.6370012 120.0264997 -18.5370012  40.5920012 120.9654997 -18.3590012
  39.7490012 119.7904997 -18.8070012  40.5108574 120.1231892 -18.5491088
  53.9490012 130.6904997  -8.6010012  53.7940012 131.3684997  -9.2580012
  54.8820012 130.7624997  -8.3980012  54.0538500 130.7930170  -8.6634881
  41.4450012 114.8084997  -9.8640012  41.2160012 114.8674997 -10.7920012
  41.0020012 114.0164997  -9.5580012  41.3538530 114.7095753  -9.9495214
  40.3750012 128.7484997 -13.7040012  39.5430012 129.2214997 -13.6760012
  40.9210012 129.2584997 -14.3020012  40.3349739 128.8821871 -13.7810284
  39.6630012 131.3614997  -2.3740012  40.2040012 131.1444997  -1.6140012
  39.1820012 130.5554997  -2.5630012  39.6719345 131.2229514  -2.2956924
  44.2610012 130.2804997  -0.7530012  45.0280012 129.8214997  -0.4120012
  44.2390012 130.0544997  -1.6830012  44.3631434 130.1870409  -0.8319957
  48.3530012 129.7884997 -19.3780012  47.7090012 129.1574997 -19.0570012
  49.1150012 129.2574997 -19.6100012  48.3678077 129.6302920 -19.3653989
  50.8380012 128.6604997  -2.0240012  50.4870012 127.8044997  -1.7810012
  51.5640012 128.8034997  -1.4170012  50.8880769 128.5625636  -1.9086381
  52.9570012 129.6054997 -19.1440012  53.2400012 128.8114997 -18.6920012
  53.6970012 129.8384997 -19.7050012  53.0957486 129.5282803 -19.1579302
  39.5700012 125.1714997  -1.4190012  39.7140012 124.2694997  -1.7060012
  38.7980012 125.4574997  -1.9070012  39.4853322 125.0868261  -1.5242119
  43.9120012 125.5154997 -19.2870012  43.9760012 124.7214997 -18.7560012
  44.5650012 125.3964997 -19.9770012  44.0090241 125.3907148 -19.3075683
  46.2260012 125.1414997  -1.9870012  45.8970012 125.4124997  -2.8440012
  46.3780012 124.2004997  -2.0740012  46.2014809 125.0513862  -2.1161756
  51.9600012 125.0574997  -4.6030012  52.7060012 125.6454997  -4.7230012
  51.2030012 125.6394997  -4.5400012  51.9597554 125.2167011  -4.6109093
  40.4030012 122.3714997  -1.9990012  40.8110012 121.5144997  -2.1200012
  40.1430012 122.3864997  -1.0780012  40.4237568 122.2560807  -1.8910412
  45.0610012 123.4874997 -16.9810012  44.6010012 123.0034997 -16.2950012
  45.3160012 122.8194997 -17.6170012  45.0324902 123.3308731 -16.9730666
  44.3500012 121.3804997  -4.6250012  43.7320012 122.0554997  -4.3450012
  44.6940012 121.7014997  -5.4580012  44.3119615 121.5162721  -4.6993419
  46.1320012 121.7304997 -18.7190012  45.9520012 121.5764997 -19.6460012
  47.0820012 121.8384997 -18.6740012  46.2357776 121.7240175 -18.8398157
  49.3700012 123.8524997  -1.3480012  50.3230012 123.9354997  -1.3750012
  49.2090012 123.1404997  -0.7280012  49.4786426 123.7676746  -1.2679421
  55.5220012 124.0854997 -19.2730012  55.2480012 123.6604997 -20.0860012
  55.5610012 125.0164997 -19.4900012  55.4897699 124.1532484 -19.4136390
  44.6890012 118.7354997  -3.5430012  44.8390012 118.0064997  -4.1450012
  44.6920012 119.5124997  -4.1020012  44.7099302 118.7407851  -3.7009308
  45.1020012 117.1054997  -6.0500012  45.6380012 117.5564997  -6.7020012
  44.2500012 116.9974997  -6.4730012  45.0602178 117.1526390  -6.1964244
  46.6840012 122.5444997  -5.8110012  47.4340012 122.3884997  -6.3840012
  46.3450012 123.3964997  -6.0860012  46.7408921 122.6382968  -5.9266439
  51.0990012 120.3594997  -0.7820012  51.2920012 119.4284997  -0.8940012
  51.9570012 120.7844997  -0.7920012  51.2413020 120.2896389  -0.7986639
  52.4160012 123.1484997  -2.7050012  52.1350012 123.8574997  -3.2820012
  53.3590012 123.0754997  -2.8560012  52.5049027 123.2357646  -2.8044449
  43.1680012 119.9334997  -1.6310012  42.4010012 119.4014997  -1.8410012
  43.8470012 119.6234997  -2.2310012  43.1547022 119.8187506  -1.7408352
  45.9080012 114.5614997  -5.6190012  45.8090012 115.5084997  -5.7240012
  45.1650012 114.1894997  -6.0940012  45.7940564 114.6405902  -5.6975440
  47.1720012 118.8834997  -2.0550012  46.9360012 118.6634997  -1.1530012
  46.3880012 118.6764997  -2.5650012  47.0338628 118.8254760  -2.0006068
  49.8870012 118.0104997  -2.9790012  48.9400012 118.0424997  -2.8470012
  50.2000012 117.3854997  -2.3260012  49.7995475 117.9303207  -2.8725545
  51.5210012 116.6444997  -0.9740012  51.4250012 115.6924997  -0.9800012
  51.2000012 116.9134997  -0.1140012  51.4644070 116.5504035  -0.8584559
  41.3480012 117.8544997  -1.9270012  41.5600012 117.1474997  -2.5370012
  41.2370012 117.4164997  -1.0830012  41.3619721 117.6987084  -1.8963157
  46.1290012 113.8554997  -2.9470012  46.8410012 113.2154997  -2.9610012
  46.0280012 114.1224997  -3.8610012  46.2127939 113.8039938  -3.0724350
  46.4830012 115.5384997  -0.8940012  46.3510012 115.0624997  -1.7140012
  45.8840012 116.2824997  -0.9490012  46.3839071 115.5739618  -1.0137114
  46.0290012 132.4214997 -17.7170012  46.9620012 132.5794997 -17.5740012
  45.7650012 133.0964997 -18.3420012  46.1209510 132.5343611 -17.7819259
  39.5980012 127.0574997 -18.2350012  40.5120012 127.1364997 -17.9610012
  39.6050012 126.3704997 -18.9010012  39.7241131 126.9753961 -18.2875607
  38.2470012 132.4504997 -13.1570012  37.6000012 131.9884997 -13.6900012
  38.6010012 131.7784997 -12.5750012  38.2063849 132.2964723 -13.1512041
  39.1170012 130.5314997 -11.3530012  38.7820012 129.6514997 -11.1810012
  39.3390012 130.8764997 -10.4880012  39.1011783 130.4577501 -11.2125792
  56.6650012 131.3404997  -8.3720012  56.6440012 131.5254997  -7.4330012
  57.3560012 131.9094997  -8.7130012  56.7554618 131.4426606  -8.2896136
  56.2290012 130.9084997  -5.4500012  55.7410012 130.1724997  -5.8210012
  56.7780012 130.5144997  -4.7720012  56.2364872 130.7546249  -5.4090840
  54.6790012 126.6974997  -0.8120012  53.8130012 126.5924997  -0.4180012
  55.0560012 127.4564997  -0.3660012  54.6113308 126.7856900  -0.6977607
  55.9800012 124.9544997 -15.2980012  56.8300012 125.3754997 -15.1710012
  55.9860012 124.2144997 -14.6910012  56.0971372 124.9120803 -15.1985656
  56.3750012 123.0074997 -13.4740012  55.6480012 122.5284997 -13.0770012
  56.9560012 123.2134997 -12.7420012  56.3539375 122.9697090 -13.3205871
  56.1340012 125.7924997  -8.5270012  56.9670012 125.4144997  -8.8070012
  56.2460012 126.7354997  -8.6460012  56.2632647 125.8682218  -8.5814513
  54.6200012 128.6704997  -6.2200012  53.9730012 128.9954997  -5.5940012
  54.1030012 128.2304997  -6.8940012  54.4614029 128.6555004  -6.2254173
  56.6430012 122.9084997 -17.0830012  56.1210012 123.2654997 -17.8020012
  56.6100012 123.5834997 -16.4050012  56.5671634 123.0485413 -17.0896855
  54.9920012 120.1484997 -18.5320012  55.0880012 120.8154997 -19.2130012
  54.8520012 119.3324997 -19.0140012  54.9862135 120.1294500 -18.6901509
  54.1610012 121.5284997 -12.9110012  54.0110012 120.5834997 -12.9320012
  53.8080012 121.8094997 -12.0680012  54.0926625 121.4370441 -12.7997654
  39.1970012 123.6064997  -8.9010012  39.3810012 123.5244997  -9.8370012
  40.0460012 123.4824997  -8.4770012  39.3370139 123.5785003  -8.9718545
  55.0180012 123.4984997  -3.2730012  55.6010012 122.7644997  -3.0810012
  55.5820012 124.2704997  -3.2260012  55.1739769 123.5024227  -3.2403841
  56.5140012 121.4014997  -2.5880012  55.6510012 121.0224997  -2.7540012
  57.1190012 120.6624997  -2.6620012  56.4775979 121.2498023  -2.6207183
  54.2390012 117.5564997 -19.4150012  54.8500012 117.1854997 -18.7780012
  53.4030012 117.1354997 -19.2190012  54.2095032 117.4487554 -19.3012965
  53.8720012 119.1114997 -14.4490012  54.1520012 118.2044997 -14.3250012
  54.6310012 119.5454997 -14.8380012  54.0129277 119.0460942 -14.4846318
  54.4840012 119.6924997  -9.0130012  55.4170012 119.9044997  -9.0470012
  54.2490012 119.7944997  -8.0910012  54.5798036 119.7352769  -8.8930024
  54.5130012 120.4294997  -6.2370012  53.6700012 120.6974997  -5.8710012
  54.9550012 121.2514997  -6.4480012  54.4574158 120.5773291  -6.2154509
  38.7940012 118.8774997  -2.7600012  39.7140012 118.7554997  -2.5240012
  38.3450012 118.1274997  -2.3710012  38.8591580 118.7593727  -2.6750994
  56.7960012 114.4094997  -0.8840012  57.1460012 113.7554997  -1.4890012
  56.9430012 115.2464997  -1.3230012  56.8638419 114.4331591  -1.0262882
  54.4850012 116.3744997 -14.4010012  54.6680012 115.9254997 -13.5750012
  53.8860012 115.7894997 -14.8640012  54.4290202 116.2339975 -14.3506725
  40.0150012 117.1894997  -9.8690012  40.4610012 116.3974997  -9.5670012
  40.4820012 117.9054997  -9.4380012  40.1390172 117.1780624  -9.7695180
  38.3190012 120.1884997  -8.8000012  38.8110012 119.9674997  -9.5910012
  38.6820012 121.0294997  -8.5190012  38.4353126 120.2718357  -8.8702469
  56.3160012 116.5184997  -2.5340012  55.3980012 116.7894997  -2.5700012
  56.4390012 115.9834997  -3.3190012  56.2071066 116.4832892  -2.6449513
  56.3520012 116.4414997 -17.8730012  56.7640012 115.7204997 -18.3480012
  57.0340012 117.1114997 -17.8140012  56.5005885 116.4332368 -17.9301085
  38.6330012 116.4464997 -14.7460012  37.7080012 116.6554997 -14.8750012
  39.0870012 116.9304997 -15.4350012  38.5677368 116.5405993 -14.8568774
  53.4040012 131.4304997 -12.8000012  54.0560012 131.0834997 -13.4080012
  53.9140012 131.9194997 -12.1540012  53.5622637 131.4490597 -12.7959764
  38.5970012 115.1844997  -6.4010012  37.9320012 114.9384997  -5.7580012
  38.1540012 115.8064997  -6.9790012  38.4460956 115.2348632  -6.3910648
  40.7890012 128.3594997  -2.2570012  39.9680012 128.5344997  -2.7170012
  40.5360012 128.2864997  -1.3360012  40.6426164 128.3735622  -2.1955077
  43.7430012 129.3344997  -5.9980012  43.3180012 130.1434997  -6.2810012
  44.6470012 129.4194997  -6.3000012  43.8070271 129.4568469  -6.0776224
  48.0540012 130.7334997  -3.0390012  48.2390012 130.3994997  -2.1610012
  48.9000012 131.0424997  -3.3610012  48.1937539 130.7296047  -2.9624395
  50.3990012 132.0194997  -3.7950012  51.0760012 131.3864997  -4.0350012
  50.7210012 132.4204997  -2.9880012  50.5351637 131.9871154  -3.7187207
  55.3160012 114.6084997  -4.7150012  54.5040012 114.9334997  -5.1030012
  55.5490012 113.8484997  -5.2480012  55.2363423 114.5502436  -4.8401747
  41.1450012 132.5904997  -5.9510012  40.4240012 133.0304997  -6.4020012
  40.7790012 132.3394997  -5.1020012  40.9969804 132.6167698  -5.8980160
  43.6120012 132.1904997  -6.9210012  42.7470012 132.2624997  -6.5170012
  43.5570012 132.7374997  -7.7050012  43.4862085 132.2742685  -6.9716638
  48.3220012 132.0784997  -7.7460012  47.8660012 132.6074997  -8.4000012
  48.4850012 132.6814997  -7.0200012  48.2815585 132.2324468  -7.7374938
  50.6500012 130.9564997  -6.8010012  49.7450012 131.1214997  -7.0660012
  51.0790012 131.8094997  -6.8660012  50.5840799 131.0944483  -6.8460818
  53.2540012 132.5264997  -6.5060012  53.0720012 133.4424997  -6.7160012
  53.4310012 132.1164997  -7.3520012  53.2530210 132.5964822  -6.6492115
  40.5590012 131.2134997  -9.0410012  40.5410012 130.7884997  -8.1830012
  41.3640012 130.8954997  -9.4490012  40.6653875 131.1123812  -8.9788345
  42.7010012 129.9234997 -10.3860012  42.4820012 129.0074997 -10.2160012
  43.5250012 130.0634997  -9.9200012  42.7824420 129.8170520 -10.2997226
  45.2380012 130.3934997  -9.5370012  45.4510012 129.5054997  -9.8240012
  45.3020012 130.3594997  -8.5830012  45.2758232 130.2673102  -9.4472603
  48.7460012 116.0574997 -10.3930012  48.0720012 115.4284997 -10.1370012
  49.3100012 115.5734997 -10.9960012  48.7299230 115.9058744 -10.4394660
  53.8890012 114.1654997 -10.2800012  54.4930012 114.7124997 -10.7820012
  53.0190012 114.4844997 -10.5200012  53.8541241 114.2835806 -10.3812346
  55.6160012 115.3034997 -11.9470012  56.2280012 114.7894997 -12.4730012
  55.9980012 116.1814997 -11.9230012  55.7514540 115.3517140 -12.0158170
  41.0730012 114.6914997 -12.5710012  40.2960012 114.4574997 -13.0780012
  41.6030012 113.8944997 -12.5620012  41.0382330 114.5516988 -12.6392258
  39.9090012 114.4894997 -16.7670012  40.3480012 115.1004997 -17.3590012
  39.2760012 115.0274997 -16.2930012  39.8834514 114.6459257 -16.7839070
  45.6520012 114.6184997 -12.7570012  46.5270012 115.0064997 -12.7870012
  45.5160012 114.4034997 -11.8350012  45.7533695 114.6425184 -12.6363560
  51.2090012 114.6484997 -11.1080012  51.2850012 114.7434997 -12.0580012
  50.9340012 113.7404997 -10.9790012  51.1822321 114.5387867 -11.2204921
  52.5620012 114.6744997 -15.4160012  51.8600012 115.2894997 -15.6250012
  52.1180012 113.8364997 -15.2850012  52.4056330 114.6455783 -15.4269672
  39.8100012 130.4374997 -15.8690012  39.1250012 130.3994997 -16.5370012
  39.8140012 131.3504997 -15.5810012  39.7168193 130.5557016 -15.9214716
  41.7700012 116.4054997 -18.3250012  42.2620012 115.7754997 -18.8520012
  42.3940012 116.7014997 -17.6610012  41.9215446 116.3593199 -18.3074020
  46.7960012 116.6984997 -15.8680012  46.9740012 116.0524997 -15.1850012
  46.7430012 117.5324997 -15.4000012  46.8131829 116.7227985 -15.7114060
  48.6750012 131.6474997 -17.4720012  49.5410012 132.0134997 -17.6500012
  48.4280012 131.2074997 -18.2860012  48.7602392 131.6381756 -17.6063711
  55.3840012 131.2104997 -14.7930012  55.1890012 130.4624997 -15.3580012
  55.3450012 131.9684997 -15.3760012  55.3520380 131.2106099 -14.9491616
  41.0310012 115.2054997  -3.0530012  40.6650012 114.4404997  -2.6100012
  41.9440012 115.2344997  -2.7660012  41.1042790 115.1047224  -2.9535930
  43.0040012 114.5564997  -1.5170012  43.9020012 114.2824997  -1.7020012
  42.6170012 113.8134997  -1.0530012  43.0746612 114.4185914  -1.4796357
  41.6280012 131.3574997 -18.8440012  41.3610012 131.6444997 -17.9710012
  42.4000012 130.8114997 -18.6920012  41.6957488 131.3230294 -18.7038950
  51.4250012 113.8884997  -1.3350012  51.5020012 113.4624997  -0.4810012
  52.3190012 113.9024997  -1.6780012  51.5563428 113.8320879  -1.2644690
  54.6010012 129.9614997  -2.6430012  53.8190012 129.7754997  -3.1620012
  54.5290012 130.8904997  -2.4250012  54.4841777 130.0616492  -2.6845952
  69.0070012 123.8474997 -12.6120012  69.0960012 124.7914997 -12.7440012
  68.3690012 123.5724997 -13.2700012  68.9329081 123.9394830 -12.7190386
  67.9400012 123.1024997  -9.1930012  67.9020012 122.4564997  -8.4880012
  67.6180012 122.6364997  -9.9640012  67.8912333 122.9509408  -9.2007022
  60.3090012 122.7174997  -7.6000012  60.3500012 122.0914997  -6.8770012
  61.0120012 123.3414997  -7.4180012  60.4096363 122.7161196  -7.4763956
  71.6460012 126.0414997 -10.8920012  71.2060012 125.3214997 -10.4410012
  71.6330012 126.7624997 -10.2620012  71.5840226 126.0403731 -10.7451506
  61.2320012 127.1674997  -9.0650012  60.8630012 126.3654997  -9.4350012
  62.1730012 126.9984997  -9.0190012  61.3087289 127.0350153  -9.1093684
  57.8420012 120.8274997 -13.6720012  57.3950012 121.6734997 -13.6910012
  57.2810012 120.2474997 -14.1880012  57.7049900 120.8649916 -13.7443199
  58.5530012 122.9894997 -11.5460012  58.7660012 122.2194997 -11.0190012
  59.2910012 123.0784997 -12.1500012  58.6818496 122.8961394 -11.5554700
  68.7580012 131.1464997 -10.6790012  69.3780012 130.4694997 -10.9530012
  68.5500012 130.9284997  -9.7710012  68.8146904 131.0243870 -10.5936635
  66.3300012 125.5354997  -8.7870012  66.6340012 124.8494997  -9.3820012
  67.0510012 125.6534997  -8.1690012  66.4690671 125.4576305  -8.7848184
  74.9930012 117.1364997  -7.9260012  75.0420012 117.7464997  -7.1900012
  75.4180012 117.5974997  -8.6490012  75.0571824 117.2823741  -7.9229795
  69.4710012 119.9294997  -8.4590012  69.6130012 118.9834997  -8.4390012
  69.3640012 120.1364997  -9.3880012  69.4759864 119.8279534  -8.5817661
  62.6250012 118.0304997 -11.1870012  62.6690012 118.8904997 -11.6050012
  62.1680012 117.4784997 -11.8210012  62.5692185 118.0735799 -11.3299701
  70.3480012 118.1614997 -12.7860012  70.9940012 117.8324997 -12.1610012
  70.8580012 118.6794997 -13.4090012  70.5054264 118.1864611 -12.7846138
  59.2460012 120.4274997 -10.4250012  59.8990012 119.8774997  -9.9930012
  59.2700012 120.1534997 -11.3420012  59.3386683 120.3151466 -10.4897877
  64.4020012 121.9774997 -11.2100012  65.0180012 121.4514997 -10.7000012
  63.8160012 121.3374997 -11.6130012  64.4070810 121.8189208 -11.1946827
  75.3840012 118.6144997  -5.6900012  74.6960012 119.2724997  -5.7860012
  75.4000012 118.4174997  -4.7540012  75.2918525 118.6780462  -5.5765192
  61.4360012 116.9484997  -7.1130012  61.2170012 117.4784997  -7.8790012
  60.7680012 117.1754997  -6.4660012  61.3157600 117.0516906  -7.1303621
  68.8050012 126.4484997 -13.5690012  68.5090012 126.1264997 -14.4200012
  68.4800012 127.3484997 -13.5280012  68.7206371 126.5260215 -13.6798199
  64.0050012 124.6244997  -6.8260012  63.2650012 125.2224997  -6.7220012
  64.7190012 125.1784997  -7.1410012  64.0002237 124.7812831  -6.8543535
  72.1120012 117.4524997 -10.8060012  71.8960012 116.6864997 -10.2730012
  72.7670012 117.9244997 -10.2930012  72.1710632 117.4115889 -10.6637139
  61.0290012 118.8404997  -9.1610012  61.6430012 119.4734997  -8.7870012
  61.5410012 118.3684997  -9.8170012  61.1822296 118.8632370  -9.1985748
  62.4120012 126.5884997  -6.0380012  62.4070012 127.4684997  -6.4160012
  61.5590012 126.5054997  -5.6130012  62.2959464 126.6976117  -6.0322093
  58.5330012 126.2594997 -15.2560012  58.2610012 126.4884997 -16.1450012
  58.5790012 127.0974997 -14.7960012  58.5020094 126.4041213 -15.3154303
  72.1580012 127.8814997  -8.5440012  71.2170012 127.9394997  -8.3820012
  72.4350012 128.7874997  -8.6810012  72.0664679 128.0119443  -8.5403185
  72.4590012 116.1674997  -7.1260012  71.7230012 116.7784997  -7.1640012
  73.1420012 116.5824997  -7.6530012  72.4506541 116.3071374  -7.2024168
  65.4620012 114.2544997  -9.6600012  65.3450012 113.3054997  -9.7150012
  64.6070012 114.5864997  -9.3870012  65.3303733 114.1695409  -9.6306103
  70.4100012 129.6624997 -11.9180012  70.8360012 128.9554997 -12.4030012
  70.7270012 130.4634997 -12.3350012  70.5111019 129.6740994 -12.0406870
  71.5700012 127.5634997 -13.4100012  71.3120012 126.8734997 -14.0210012
  71.6410012 127.1204997 -12.5640012  71.5442856 127.4092124 -13.3793115
  73.2560012 126.1294997  -4.9320012  73.3960012 125.5384997  -5.6720012
  73.4230012 127.0024997  -5.2890012  73.2976778 126.1666426  -5.0813035
  67.7290012 123.0914997 -15.1600012  67.0170012 123.6264997 -15.5120012
  68.4200012 123.1474997 -15.8200012  67.7250132 123.1722543 -15.2973711
  67.7820012 121.5494997 -18.1210012  68.4830012 121.5714997 -17.4700012
  68.0850012 120.9214997 -18.7770012  67.9187830 121.4676566 -18.1206289
  75.0980012 122.4694997  -6.8660012  74.4450012 123.1644997  -6.7770012
  75.5630012 122.6794997  -7.6760012  75.0715390 122.5929425  -6.9633117
  71.1340012 123.3014997 -14.2080012  70.4020012 123.5294997 -13.6350012
  71.5820012 122.5874997 -13.7530012  71.0943095 123.2362571 -14.0680881
  71.0320012 121.4754997  -5.1410012  71.1120012 122.2384997  -4.5690012
  70.4300012 121.7544997  -5.8310012  70.9615756 121.6177134  -5.1559411
  62.7800012 123.9314997 -12.3260012  62.4490012 123.5614997 -13.1440012
  63.3680012 123.2614997 -11.9790012  62.8141873 123.7901156 -12.3911898
  64.1460012 127.3594997  -9.6440012  64.0520012 126.7814997 -10.4010012
  64.8760012 126.9884997  -9.1480012  64.2317981 127.2302390  -9.6805835
  63.1460012 122.7004997  -8.6920012  63.7120012 122.8214997  -9.4550012
  63.4650012 123.3374997  -8.0530012  63.2665786 122.8031884  -8.7099960
  69.4550012 128.2034997  -7.9580012  69.2150012 128.8654997  -7.3100012
  69.2570012 127.3694997  -7.5330012  69.3953808 128.1813134  -7.8118476
  64.0260012 127.0994997  -3.9750012  63.7150012 127.8814997  -3.5200012
  63.3760012 126.9464997  -4.6610012  63.8955558 127.1859105  -4.0054129
  70.0050012 122.4634997 -16.5230012  70.5850012 122.6134997 -15.7760012
  70.4190012 122.9344997 -17.2460012  70.1402831 122.5476841 -16.5185866
  60.9460012 123.2974997  -4.7460012  61.0170012 123.9484997  -4.0480012
  60.0560012 123.4004997  -5.0810012  60.8353117 123.4005936  -4.6957300
  67.7320012 129.2004997 -13.0880012  68.2060012 129.4954997 -12.3100012
  67.1690012 129.9384997 -13.3210012  67.7207653 129.3406932 -13.0129864
  62.2660012 129.1714997  -3.2120012  62.2730012 129.0354997  -4.1590012
  61.3500012 129.0534997  -2.9600012  62.1431714 129.1369430  -3.3075334
  73.7040012 114.2134997 -16.7100012  72.8040012 114.3524997 -16.4150012
  73.9560012 115.0444997 -17.1120012  73.6148702 114.3449074 -16.7239795
  61.7700012 123.0014997 -14.7360012  61.4780012 123.7694997 -15.2270012
  61.0960012 122.3414997 -14.8990012  61.6389081 123.0174406 -14.8252660
  74.8930012 128.5794997 -18.3340012  74.9670012 129.5184997 -18.1630012
  75.7990012 128.2744997 -18.3900012  75.0255100 128.6666722 -18.3181881
  57.8630012 125.3644997  -5.9210012  57.3620012 125.3364997  -6.7360012
  57.8680012 124.4584997  -5.6120012  57.7951526 125.2382278  -5.9907128
  57.6130012 128.1444997  -9.0370012  58.5590012 128.0004997  -9.0560012
  57.5010012 128.9284997  -8.5000012  57.7272727 128.2308046  -8.9669928
  75.8110012 128.8104997  -3.3550012  75.7620012 127.8554997  -3.3920012
  74.9840012 129.0784997  -2.9540012  75.6924940 128.7158998  -3.3058625
  66.7900012 128.3844997  -4.4790012  66.8770012 129.2104997  -4.0040012
  65.9260012 128.0544997  -4.2300012  66.6851964 128.4529878  -4.3803451
  67.2040012 132.1564997 -14.6730012  67.1290012 132.0354997 -15.6190012
  67.2370012 133.1064997 -14.5540012  67.1981848 132.2682500 -14.7865166
  60.8570012 130.9454997 -12.8920012  61.0100012 130.5974997 -12.0130012
  60.0070012 130.5894997 -13.1470012  60.7628962 130.8496650 -12.8061660
  70.3060012 131.3104997 -17.6710012  70.6810012 130.5664997 -18.1410012
  70.3100012 131.0404997 -16.7520012  70.3578915 131.1721486 -17.6112176
  69.9750012 131.2364997 -14.9210012  69.0390012 131.3364997 -14.7430012
  70.2550012 130.5274997 -14.3430012  69.8848255 131.1542711 -14.8184609
  72.9630012 120.3034997  -2.8750012  72.5560012 120.7844997  -3.5960012
  73.0040012 119.3984997  -3.1830012  72.9128437 120.2469374  -3.0153317
  60.1120012 126.6874997  -4.8780012  60.3280012 126.3264997  -4.0190012
  59.2570012 126.3134997  -5.0880012  60.0259292 126.5874111  -4.7886614
  62.7310012 115.1574997  -8.8830012  61.8690012 115.0704997  -9.2900012
  62.7080012 116.0134997  -8.4550012  62.6100330 115.2612765  -8.8808137
  67.3940012 114.8794997  -5.5080012  67.8140012 114.4644997  -4.7550012
  66.4610012 114.7014997  -5.3910012  67.3253644 114.7985900  -5.3890461
  70.7200012 118.6354997  -4.6550012  70.2060012 118.5094997  -3.8570012
  70.5650012 119.5474997  -4.8990012  70.6286852 118.7416132  -4.5787842
  71.4830012 123.4964997 -18.8930012  71.5250012 123.2734997 -19.8230012
  72.3320012 123.8954997 -18.7030012  71.6035396 123.5199155 -18.9946373
  67.0550012 117.3724997 -18.2230012  66.8020012 117.3914997 -17.3000012
  66.7990012 116.5004997 -18.5240012  66.9857790 117.2572437 -18.1373737
  62.8220012 120.1234997  -7.7880012  62.1800012 120.0824997  -7.0790012
  62.8590012 121.0494997  -8.0250012  62.7391324 120.2431559  -7.7230176
  62.8190012 120.3444997 -12.8760012  61.9260012 120.0034997 -12.9340012
  63.2690012 119.9674997 -13.6310012  62.7577305 120.2468484 -12.9860823
  68.3540012 120.7604997 -14.0590012  67.9450012 121.5754997 -14.3500012
  69.0750012 120.6204997 -14.6730012  68.3954537 120.8532018 -14.1818658
  67.4560012 120.9354997  -2.5710012  66.8940012 120.2314997  -2.2500012
  68.2830012 120.8154997  -2.1030012  67.4907095 120.8227883  -2.4637670
  69.3590012 120.2064997 -11.2450012  69.1640012 120.8114997 -11.9600012
  69.5400012 119.3724997 -11.6790012  69.3567614 120.1766300 -11.4015595
  60.5720012 120.4434997  -5.9210012  60.5340012 120.8434997  -5.0520012
  60.0810012 119.6264997  -5.8300012  60.5004684 120.3878069  -5.7898941
  63.9380012 117.8174997 -19.1220012  63.5070012 117.3724997 -18.3920012
  63.2200012 118.1894997 -19.6340012  63.7819438 117.8068940 -19.0913201
  57.1800012 117.5594997 -12.0700012  57.8110012 117.5304997 -11.3510012
  57.6290012 117.1344997 -12.8000012  57.3270774 117.4980492 -12.0703447
  58.4540012 118.3054997 -16.6460012  58.9280012 118.8964997 -17.2310012
  57.7370012 118.8364997 -16.2990012  58.4219341 118.4580867 -16.6791164
  68.6230012 121.8444997  -6.5730012  68.9460012 121.2134997  -7.2160012
  68.1830012 121.3094997  -5.9130012  68.6076895 121.6858440  -6.5717150
  65.4000012 117.7714997 -11.7890012  64.4890012 117.8284997 -11.5010012
  65.9060012 117.7114997 -10.9790012  65.3435413 117.7711985 -11.6399378
  60.2290012 119.4004997 -12.9630012  59.3390012 119.5004997 -13.3030012
  60.5250012 118.5584997 -13.3090012  60.1472823 119.3003545 -13.0562787
  63.8820012 119.4004997 -15.3060012  64.8130012 119.5294997 -15.1280012
  63.6670012 120.0704997 -15.9560012  63.9804247 119.5086565 -15.3694253
  69.8050012 117.0064997  -8.5250012  69.1290012 117.1374997  -7.8610012
  69.3200012 116.8514997  -9.3350012  69.6467145 117.0034905  -8.5435483
  62.5560012 120.5954997 -17.7390012  62.0130012 120.2154997 -18.4310012
  63.3890012 120.7894997 -18.1680012  62.5944399 120.5698124 -17.8915474
  73.0930012 132.6784997  -2.2480012  73.2930012 133.1024997  -3.0830012
  73.7480012 133.0214997  -1.6410012  73.2090051 132.7829648  -2.2802164
  60.6910012 125.1524997  -2.6400012  61.4230012 125.4064997  -2.0790012
  59.9110012 125.3564997  -2.1250012  60.6858232 125.2149177  -2.4934240
  66.7200012 120.5594997  -9.9020012  67.2850012 120.0124997 -10.4490012
  66.5730012 120.0374997  -9.1140012  66.7772918 120.4142024  -9.8701546
  61.7220012 116.6954997 -13.4840012  61.4050012 115.7934997 -13.5190012
  62.5040012 116.6974997 -14.0370012  61.7842284 116.5721628 -13.5635217
  65.3470012 118.9474997  -7.4880012  64.5110012 119.4014997  -7.3780012
  65.8710012 119.2234997  -6.7360012  65.3034414 119.0469376  -7.3712864
  65.8910012 125.1604997 -15.8040012  65.1460012 124.6534997 -16.1260012
  65.7570012 125.2094997 -14.8570012  65.7708776 125.0976940 -15.7201353
  73.0410012 124.2934997  -7.0170012  73.6830012 124.7504997  -7.5610012
  72.2110012 124.4064997  -7.4800012  73.0165963 124.3712704  -7.1539823
  69.7890012 117.9744997 -17.6040012  68.8500012 118.0864997 -17.7560012
  70.0860012 118.8314997 -17.2980012  69.7007666 118.1056443 -17.5834232
  67.4100012 125.3444997  -4.5670012  67.0650012 124.9634997  -3.7600012
  67.2100012 126.2784997  -4.4950012  67.3358061 125.4185228  -4.4469039
  70.5070012 119.8414997 -15.9440012  71.3990012 119.7044997 -15.6250012
  70.5640012 120.6324997 -16.4800012  70.6366285 119.9296660 -15.9728309
  61.0160012 124.4554997 -10.0340012  61.7610012 124.4534997 -10.6350012
  61.0940012 123.6324997  -9.5520012  61.1285518 124.3439315 -10.0511071
  68.0170012 126.6194997 -16.7780012  67.7210012 127.4454997 -16.3970012
  67.3140012 125.9994997 -16.5820012  67.8814914 126.6488199 -16.6993557
  58.0240012 122.9164997  -4.7190012  58.2470012 122.4984997  -3.8870012
  57.4220012 122.3034997  -5.1420012  57.9731759 122.7764668  -4.6622978
  65.0400012 122.4334997  -2.5060012  64.7440012 122.2674997  -3.4010012
  65.9720012 122.2134997  -2.5170012  65.1254166 122.3810640  -2.6299464
  69.6610012 127.8064997  -4.6160012  68.7600012 127.9894997  -4.8840012
  69.6950012 128.0654997  -3.6950012  69.5423041 127.8665512  -4.5281803
  75.3920012 120.0514997 -16.2490012  74.8380012 119.6554997 -16.9210012
  75.4920012 120.9614997 -16.5270012  75.3297059 120.1203586 -16.3785599
  75.3550012 125.8514997  -3.4120012  74.5040012 126.0894997  -3.7790012
  75.9460012 125.8344997  -4.1650012  75.3182487 125.8818258  -3.5641107
  73.6870012 128.8374997 -15.7840012  73.3140012 128.0114997 -15.4750012
  73.9650012 128.6544997 -16.6810012  73.6735630 128.6997303 -15.8630374
  70.8480012 123.6454997  -8.7630012  69.9190012 123.4134997  -8.7900012
  71.2990012 122.8684997  -9.0930012  70.7819216 123.5087238  -8.8113083
  63.3910012 127.9734997 -12.6300012  63.9180012 128.7464997 -12.8300012
  62.5110012 128.1984997 -12.9310012  63.3441773 128.1098005 -12.6980990
  59.1460012 122.8354997 -18.0430012  59.7620012 123.4624997 -17.6630012
  58.2840012 123.1514997 -17.7710012  59.1137698 122.9639430 -17.9542817
  64.8180012 125.6364997 -13.0530012  64.5770012 126.5614997 -13.0120012
  64.0770012 125.1774997 -12.6570012  64.6848409 125.7011421 -12.9938623
  65.3330012 129.7854997  -6.7380012  65.6950012 130.6404997  -6.9720012
  65.8640012 129.4934997  -5.9980012  65.4544473 129.8631060  -6.6699145
  63.5010012 130.6584997 -13.5080012  62.5510012 130.7634997 -13.4570012
  63.8530012 131.4784997 -13.1630012  63.4184203 130.7838314 -13.4543350
  68.8770012 125.8844997  -7.0380012  68.4510012 125.6574997  -6.2110012
  69.4570012 125.1464997  -7.2200012  68.8971868 125.7535299  -6.9494170
  71.0800012 126.8134997 -17.9640012  71.4330012 126.4334997 -17.1590012
  70.1310012 126.7204997 -17.8770012  71.0000441 126.7489596 -17.8421441
  71.5350012 130.4364997  -4.5680012  70.9340012 129.8814997  -5.0640012
  71.8170012 131.1034997  -5.1940012  71.4908519 130.4506841  -4.7205048
  75.5830012 131.2934997 -17.7630012  76.3270012 131.8794997 -17.9030012
  74.8890012 131.8614997 -17.4290012  75.5910292 131.4505582 -17.7370039
  59.6580012 117.6694997  -5.1610012  58.7650012 118.0084997  -5.2290012
  59.5590012 116.8144997  -4.7430012  59.5224164 117.6002588  -5.1137765
  71.9460012 125.4864997 -15.7370012  71.6680012 124.7584997 -15.1810012
  72.8730012 125.6054997 -15.5320012  72.0333124 125.4028802 -15.6331155
  59.3090012 129.4744997  -6.7260012  59.5260012 128.5424997  -6.7570012
  59.5550012 129.7484997  -5.8430012  59.3719549 129.3840636  -6.6108237
  65.1710012 127.9254997 -19.5170012  65.4100012 127.1774997 -20.0640012
  64.9020012 127.5374997 -18.6840012  65.1673675 127.7706638 -19.4793135
  64.1080012 127.4954997 -17.0600012  64.2540012 126.9754997 -16.2700012
  64.1050012 128.4024997 -16.7540012  64.1275989 127.5468853 -16.9103912
  60.5610012 124.7484997 -16.5500012  59.8750012 125.1004997 -15.9830012
  61.0830012 125.5114997 -16.7970012  60.5376852 124.8998578 -16.5057882
  68.3920012 117.4104997  -6.2710012  69.0910012 117.4844997  -5.6210012
  68.0110012 116.5464997  -6.1170012  68.4361767 117.3037624  -6.1611678
  69.1770012 117.0624997 -15.1740012  69.3970012 117.5344997 -15.9770012
  69.7350012 117.4574997 -14.5040012  69.2824968 117.1804285 -15.1932669
  66.8450012 129.1934997 -16.3110012  66.0290012 129.6904997 -16.2590012
  67.3750012 129.6684997 -16.9510012  66.8049161 129.3257722 -16.3904044
  66.3770012 118.7904997 -14.3390012  67.1890012 119.2954997 -14.2930012
  66.1320012 118.6454997 -13.4250012  66.4550520 118.8400375 -14.2091483
  66.9120012 119.7764997  -5.1540012  67.0310012 120.3504997  -4.3970012
  67.5680012 119.0884997  -5.0400012  67.0169757 119.7621079  -5.0349175
  67.2600012 115.8714997 -13.4010012  66.9140012 116.4894997 -12.7560012
  67.9190012 116.3724997 -13.8820012  67.3017826 116.0235802 -13.3779029
  64.1840012 130.2374997 -16.3290012  64.3440012 131.0364997 -16.8300012
  63.9860012 130.5434997 -15.4440012  64.1791649 130.3884469 -16.2780185
  62.9180012 116.9344997 -16.7140012  62.8350012 117.8234997 -16.3670012
  63.8080012 116.6694997 -16.4820012  63.0269469 117.0201430 -16.6352374
  73.1170012 117.6834997  -4.3190012  72.2000012 117.9464997  -4.4070012
  73.4520012 117.6804997  -5.2160012  73.0369900 117.7190224  -4.4522081
  71.7190012 121.4344997 -10.2240012  70.9210012 121.0194997 -10.5520012
  72.1640012 120.7434997  -9.7330012  71.6699885 121.2843543 -10.2025111
  61.1770012 127.3624997 -17.6530012  61.7690012 128.0614997 -17.3770012
  61.6360012 126.9294997 -18.3730012  61.3201142 127.3997049 -17.7125170
  59.4930012 120.0264997 -18.5370012  59.4480012 120.9654997 -18.3590012
  58.6050012 119.7904997 -18.8070012  59.3668574 120.1231892 -18.5491088
  72.8050012 130.6904997  -8.6010012  72.6500012 131.3684997  -9.2580012
  73.7380012 130.7624997  -8.3980012  72.9098500 130.7930170  -8.6634881
  60.3010012 114.8084997  -9.8640012  60.0720012 114.8674997 -10.7920012
  59.8580012 114.0164997  -9.5580012  60.2098530 114.7095753  -9.9495214
  59.2310012 128.7484997 -13.7040012  58.3990012 129.2214997 -13.6760012
  59.7770012 129.2584997 -14.3020012  59.1909739 128.8821871 -13.7810284
  58.5190012 131.3614997  -2.3740012  59.0600012 131.1444997  -1.6140012
  58.0380012 130.5554997  -2.5630012  58.5279345 131.2229514  -2.2956924
  63.1170012 130.2804997  -0.7530012  63.8840012 129.8214997  -0.4120012
  63.0950012 130.0544997  -1.6830012  63.2191434 130.1870409  -0.8319957
  67.2090012 129.7884997 -19.3780012  66.5650012 129.1574997 -19.0570012
  67.9710012 129.2574997 -19.6100012  67.2238077 129.6302920 -19.3653989
  69.6940012 128.6604997  -2.0240012  69.3430012 127.8044997  -1.7810012
  70.4200012 128.8034997  -1.4170012  69.7440769 128.5625636  -1.9086381
  71.8130012 129.6054997 -19.1440012  72.0960012 128.8114997 -18.6920012
  72.5530012 129.8384997 -19.7050012  71.9517486 129.5282803 -19.1579302
  58.4260012 125.1714997  -1.4190012  58.5700012 124.2694997  -1.7060012
  57.6540012 125.4574997  -1.9070012  58.3413322 125.0868261  -1.5242119
  62.7680012 125.5154997 -19.2870012  62.8320012 124.7214997 -18.7560012
  63.4210012 125.3964997 -19.9770012  62.8650241 125.3907148 -19.3075683
  65.0820012 125.1414997  -1.9870012  64.7530012 125.4124997  -2.8440012
  65.2340012 124.2004997  -2.0740012  65.0574809 125.0513862  -2.1161756
  70.8160012 125.0574997  -4.6030012  71.5620012 125.6454997  -4.7230012
  70.0590012 125.6394997  -4.5400012  70.8157554 125.2167011  -4.6109093
  59.2590012 122.3714997  -1.9990012  59.6670012 121.5144997  -2.1200012
  58.9990012 122.3864997  -1.0780012  59.2797568 122.2560807  -1.8910412
  63.9170012 123.4874997 -16.9810012  63.4570012 123.0034997 -16.2950012
  64.1720012 122.8194997 -17.6170012  63.8884902 123.3308731 -16.9730666
  63.2060012 121.3804997  -4.6250012  62.5880012 122.0554997  -4.3450012
  63.5500012 121.7014997  -5.4580012  63.1679615 121.5162721  -4.6993419
  64.9880012 121.7304997 -18.7190012  64.8080012 121.5764997 -19.6460012
  65.9380012 121.8384997 -18.6740012  65.0917776 121.7240175 -18.8398157
  68.2260012 123.8524997  -1.3480012  69.1790012 123.9354997  -1.3750012
  68.0650012 123.1404997  -0.7280012  68.3346426 123.7676746  -1.2679421
  74.3780012 124.0854997 -19.2730012  74.1040012 123.6604997 -20.0860012
  74.4170012 125.0164997 -19.4900012  74.3457699 124.1532484 -19.4136390
  63.5450012 118.7354997  -3.5430012  63.6950012 118.0064997  -4.1450012
  63.5480012 119.5124997  -4.1020012  63.5659302 118.7407851  -3.7009308
  63.9580012 117.1054997  -6.0500012  64.4940012 117.5564997  -6.7020012
  63.1060012 116.9974997  -6.4730012  63.9162178 117.1526390  -6.1964244
  65.5400012 122.5444997  -5.8110012  66.2900012 122.3884997  -6.3840012
  65.2010012 123.3964997  -6.0860012  65.5968921 122.6382968  -5.9266439
  69.9550012 120.3594997  -0.7820012  70.1480012 119.4284997  -0.8940012
  70.8130012 120.7844997  -0.7920012  70.0973020 120.2896389  -0.7986639
  71.2720012 123.1484997  -2.7050012  70.9910012 123.8574997  -3.2820012
  72.2150012 123.0754997  -2.8560012  71.3609027 123.2357646  -2.8044449
  62.0240012 119.9334997  -1.6310012  61.2570012 119.4014997  -1.8410012
  62.7030012 119.6234997  -2.2310012  62.0107022 119.8187506  -1.7408352
  64.7640012 114.5614997  -5.6190012  64.6650012 115.5084997  -5.7240012
  64.0210012 114.1894997  -6.0940012  64.6500564 114.6405902  -5.6975440
  66.0280012 118.8834997  -2.0550012  65.7920012 118.6634997  -1.1530012
  65.2440012 118.6764997  -2.5650012  65.8898628 118.8254760  -2.0006068
  68.7430012 118.0104997  -2.9790012  67.7960012 118.0424997  -2.8470012
  69.0560012 117.3854997  -2.3260012  68.6555475 117.9303207  -2.8725545
  70.3770012 116.6444997  -0.9740012  70.2810012 115.6924997  -0.9800012
  70.0560012 116.9134997  -0.1140012  70.3204070 116.5504035  -0.8584559
  60.2040012 117.8544997  -1.9270012  60.4160012 117.1474997  -2.5370012
  60.0930012 117.4164997  -1.0830012  60.2179721 117.6987084  -1.8963157
  64.9850012 113.8554997  -2.9470012  65.6970012 113.2154997  -2.9610012
  64.8840012 114.1224997  -3.8610012  65.0687939 113.8039938  -3.0724350
  65.3390012 115.5384997  -0.8940012  65.2070012 115.0624997  -1.7140012
  64.7400012 116.2824997  -0.9490012  65.2399071 115.5739618  -1.0137114
  64.8850012 132.4214997 -17.7170012  65.8180012 132.5794997 -17.5740012
  64.6210012 133.0964997 -18.3420012  64.9769510 132.5343611 -17.7819259
  58.4540012 127.0574997 -18.2350012  59.3680012 127.1364997 -17.9610012
  58.4610012 126.3704997 -18.9010012  58.5801131 126.9753961 -18.2875607
  57.1030012 132.4504997 -13.1570012  56.4560012 131.9884997 -13.6900012
  57.4570012 131.7784997 -12.5750012  57.0623849 132.2964723 -13.1512041
  57.9730012 130.5314997 -11.3530012  57.6380012 129.6514997 -11.1810012
  58.1950012 130.8764997 -10.4880012  57.9571783 130.4577500 -11.2125792
  75.5210012 131.3404997  -8.3720012  75.5000012 131.5254997  -7.4330012
  76.2120012 131.9094997  -8.7130012  75.6114618 131.4426606  -8.2896136
  75.0850012 130.9084997  -5.4500012  74.5970012 130.1724997  -5.8210012
  75.6340012 130.5144997  -4.7720012  75.0924872 130.7546249  -5.4090840
  73.5350012 126.6974997  -0.8120012  72.6690012 126.5924997  -0.4180012
  73.9120012 127.4564997  -0.3660012  73.4673308 126.7856900  -0.6977607
  74.8360012 124.9544997 -15.2980012  75.6860012 125.3754997 -15.1710012
  74.8420012 124.2144997 -14.6910012  74.9531372 124.9120803 -15.1985656
  75.2310012 123.0074997 -13.4740012  74.5040012 122.5284997 -13.0770012
  75.8120012 123.2134997 -12.7420012  75.2099375 122.9697090 -13.3205871
  74.9900012 125.7924997  -8.5270012  75.8230012 125.4144997  -8.8070012
  75.1020012 126.7354997  -8.6460012  75.1192647 125.8682218  -8.5814513
  73.4760012 128.6704997  -6.2200012  72.8290012 128.9954997  -5.5940012
  72.9590012 128.2304997  -6.8940012  73.3174029 128.6555004  -6.2254173
  75.4990012 122.9084997 -17.0830012  74.9770012 123.2654997 -17.8020012
  75.4660012 123.5834997 -16.4050012  75.4231634 123.0485413 -17.0896855
  73.8480012 120.1484997 -18.5320012  73.9440012 120.8154997 -19.2130012
  73.7080012 119.3324997 -19.0140012  73.8422135 120.1294500 -18.6901509
  73.0170012 121.5284997 -12.9110012  72.8670012 120.5834997 -12.9320012
  72.6640012 121.8094997 -12.0680012  72.9486625 121.4370441 -12.7997654
  58.0530012 123.6064997  -8.9010012  58.2370012 123.5244997  -9.8370012
  58.9020012 123.4824997  -8.4770012  58.1930139 123.5785003  -8.9718545
  73.8740012 123.4984997  -3.2730012  74.4570012 122.7644997  -3.0810012
  74.4380012 124.2704997  -3.2260012  74.0299769 123.5024227  -3.2403841
  75.3700012 121.4014997  -2.5880012  74.5070012 121.0224997  -2.7540012
  75.9750012 120.6624997  -2.6620012  75.3335979 121.2498023  -2.6207183
  73.0950012 117.5564997 -19.4150012  73.7060012 117.1854997 -18.7780012
  72.2590012 117.1354997 -19.2190012  73.0655032 117.4487554 -19.3012965
  72.7280012 119.1114997 -14.4490012  73.0080012 118.2044997 -14.3250012
  73.4870012 119.5454997 -14.8380012  72.8689277 119.0460942 -14.4846318
  73.3400012 119.6924997  -9.0130012  74.2730012 119.9044997  -9.0470012
  73.1050012 119.7944997  -8.0910012  73.4358036 119.7352769  -8.8930024
  73.3690012 120.4294997  -6.2370012  72.5260012 120.6974997  -5.8710012
  73.8110012 121.2514997  -6.4480012  73.3134158 120.5773291  -6.2154509
  57.6500012 118.8774997  -2.7600012  58.5700012 118.7554997  -2.5240012
  57.2010012 118.1274997  -2.3710012  57.7151580 118.7593727  -2.6750994
  75.6520012 114.4094997  -0.8840012  76.0020012 113.7554997  -1.4890012
  75.7990012 115.2464997  -1.3230012  75.7198419 114.4331591  -1.0262882
  73.3410012 116.3744997 -14.4010012  73.5240012 115.9254997 -13.5750012
  72.7420012 115.7894997 -14.8640012  73.2850202 116.2339975 -14.3506725
  58.8710012 117.1894997  -9.8690012  59.3170012 116.3974997  -9.5670012
  59.3380012 117.9054997  -9.4380012  58.9950172 117.1780624  -9.7695180
  57.1750012 120.1884997  -8.8000012  57.6670012 119.9674997  -9.5910012
  57.5380012 121.0294997  -8.5190012  57.2913126 120.2718357  -8.8702469
  75.1720012 116.5184997  -2.5340012  74.2540012 116.7894997  -2.5700012
  75.2950012 115.9834997  -3.3190012  75.0631066 116.4832892  -2.6449513
  75.2080012 116.4414997 -17.8730012  75.6200012 115.7204997 -18.3480012
  75.8900012 117.1114997 -17.8140012  75.3565885 116.4332368 -17.9301085
  57.4890012 116.4464997 -14.7460012  56.5640012 116.6554997 -14.8750012
  57.9430012 116.9304997 -15.4350012  57.4237368 116.5405993 -14.8568774
  72.2600012 131.4304997 -12.8000012  72.9120012 131.0834997 -13.4080012
  72.7700012 131.9194997 -12.1540012  72.4182637 131.4490597 -12.7959764
  57.4530012 115.1844997  -6.4010012  56.7880012 114.9384997  -5.7580012
  57.0100012 115.8064997  -6.9790012  57.3020956 115.2348632  -6.3910648
  59.6450012 128.3594997  -2.2570012  58.8240012 128.5344997  -2.7170012
  59.3920012 128.2864997  -1.3360012  59.4986164 128.3735622  -2.1955077
  62.5990012 129.3344997  -5.9980012  62.1740012 130.1434997  -6.2810012
  63.5030012 129.4194997  -6.3000012  62.6630271 129.4568469  -6.0776224
  66.9100012 130.7334997  -3.0390012  67.0950012 130.3994997  -2.1610012
  67.7560012 131.0424997  -3.3610012  67.0497539 130.7296047  -2.9624395
  69.2550012 132.0194997  -3.7950012  69.9320012 131.3864997  -4.0350012
  69.5770012 132.4204997  -2.9880012  69.3911637 131.9871154  -3.7187207
  74.1720012 114.6084997  -4.7150012  73.3600012 114.9334997  -5.1030012
  74.4050012 113.8484997  -5.2480012  74.0923423 114.5502436  -4.8401747
  60.0010012 132.5904997  -5.9510012  59.2800012 133.0304997  -6.4020012
  59.6350012 132.3394997  -5.1020012  59.8529804 132.6167698  -5.8980160
  62.4680012 132.1904997  -6.9210012  61.6030012 132.2624997  -6.5170012
  62.4130012 132.7374997  -7.7050012  62.3422085 132.2742685  -6.9716638
  67.1780012 132.0784997  -7.7460012  66.7220012 132.6074997  -8.4000012
  67.3410012 132.6814997  -7.0200012  67.1375585 132.2324468  -7.7374938
  69.5060012 130.9564997  -6.8010012  68.6010012 131.1214997  -7.0660012
  69.9350012 131.8094997  -6.8660012  69.4400799 131.0944483  -6.8460818
  72.1100012 132.5264997  -6.5060012  71.9280012 133.4424997  -6.7160012
  72.2870012 132.1164997  -7.3520012  72.1090210 132.5964822  -6.6492115
  59.4150012 131.2134997  -9.0410012  59.3970012 130.7884997  -8.1830012
  60.2200012 130.8954997  -9.4490012  59.5213875 131.1123812  -8.9788345
  61.5570012 129.9234997 -10.3860012  61.3380012 129.0074997 -10.2160012
  62.3810012 130.0634997  -9.9200012  61.6384420 129.8170520 -10.2997226
  64.0940012 130.3934997  -9.5370012  64.3070012 129.5054997  -9.8240012
  64.1580012 130.3594997  -8.5830012  64.1318232 130.2673102  -9.4472603
  67.6020012 116.0574997 -10.3930012  66.9280012 115.4284997 -10.1370012
  68.1660012 115.5734997 -10.9960012  67.5859230 115.9058744 -10.4394660
  72.7450012 114.1654997 -10.2800012  73.3490012 114.7124997 -10.7820012
  71.8750012 114.4844997 -10.5200012  72.7101241 114.2835806 -10.3812346
  74.4720012 115.3034997 -11.9470012  75.0840012 114.7894997 -12.4730012
  74.8540012 116.1814997 -11.9230012  74.6074540 115.3517140 -12.0158170
  59.9290012 114.6914997 -12.5710012  59.1520012 114.4574997 -13.0780012
  60.4590012 113.8944997 -12.5620012  59.8942330 114.5516988 -12.6392258
  58.7650012 114.4894997 -16.7670012  59.2040012 115.1004997 -17.3590012
  58.1320012 115.0274997 -16.2930012  58.7394514 114.6459257 -16.7839070
  64.5080012 114.6184997 -12.7570012  65.3830012 115.0064997 -12.7870012
  64.3720012 114.4034997 -11.8350012  64.6093695 114.6425184 -12.6363560
  70.0650012 114.6484997 -11.1080012  70.1410012 114.7434997 -12.0580012
  69.7900012 113.7404997 -10.9790012  70.0382321 114.5387867 -11.2204921
  71.4180012 114.6744997 -15.4160012  70.7160012 115.2894997 -15.6250012
  70.9740012 113.8364997 -15.2850012  71.2616330 114.6455783 -15.4269672
  58.6660012 130.4374997 -15.8690012  57.9810012 130.3994997 -16.5370012
  58.6700012 131.3504997 -15.5810012  58.5728193 130.5557016 -15.9214716
  60.6260012 116.4054997 -18.3250012  61.1180012 115.7754997 -18.8520012
  61.2500012 116.7014997 -17.6610012  60.7775446 116.3593199 -18.3074020
  65.6520012 116.6984997 -15.8680012  65.8300012 116.0524997 -15.1850012
  65.5990012 117.5324997 -15.4000012  65.6691829 116.7227985 -15.7114060
  67.5310012 131.6474997 -17.4720012  68.3970012 132.0134997 -17.6500012
  67.2840012 131.2074997 -18.2860012  67.6162392 131.6381756 -17.6063711
  74.2400012 131.2104997 -14.7930012  74.0450012 130.4624997 -15.3580012
  74.2010012 131.9684997 -15.3760012  74.2080380 131.2106099 -14.9491616
  59.8870012 115.2054997  -3.0530012  59.5210012 114.4404997  -2.6100012
  60.8000012 115.2344997  -2.7660012  59.9602790 115.1047224  -2.9535930
  61.8600012 114.5564997  -1.5170012  62.7580012 114.2824997  -1.7020012
  61.4730012 113.8134997  -1.0530012  61.9306612 114.4185914  -1.4796357
  60.4840012 131.3574997 -18.8440012  60.2170012 131.6444997 -17.9710012
  61.2560012 130.8114997 -18.6920012  60.5517488 131.3230294 -18.7038950
  70.2810012 113.8884997  -1.3350012  70.3580012 113.4624997  -0.4810012
  71.1750012 113.9024997  -1.6780012  70.4123428 113.8320879  -1.2644690
  73.4570012 129.9614997  -2.6430012  72.6750012 129.7754997  -3.1620012
  73.3850012 130.8904997  -2.4250012  73.3401777 130.0616492  -2.6845952
  87.8630012 123.8474997 -12.6120012  87.9520012 124.7914997 -12.7440012
  87.2250012 123.5724997 -13.2700012  87.7889081 123.9394830 -12.7190386
  86.7960012 123.1024997  -9.1930012  86.7580012 122.4564997  -8.4880012
  86.4740012 122.6364997  -9.9640012  86.7472333 122.9509408  -9.2007022
  79.1650012 122.7174997  -7.6000012  79.2060012 122.0914997  -6.8770012
  79.8680012 123.3414997  -7.4180012  79.2656363 122.7161196  -7.4763956
  90.5020012 126.0414997 -10.8920012  90.0620012 125.3214997 -10.4410012
  90.4890012 126.7624997 -10.2620012  90.4400226 126.0403731 -10.7451506
  80.0880012 127.1674997  -9.0650012  79.7190012 126.3654997  -9.4350012
  81.0290012 126.9984997  -9.0190012  80.1647289 127.0350153  -9.1093684
  76.6980012 120.8274997 -13.6720012  76.2510012 121.6734997 -13.6910012
  76.1370012 120.2474997 -14.1880012  76.5609900 120.8649916 -13.7443199
  77.4090012 122.9894997 -11.5460012  77.6220012 122.2194997 -11.0190012
  78.1470012 123.0784997 -12.1500012  77.5378496 122.8961394 -11.5554700
  87.6140012 131.1464997 -10.6790012  88.2340012 130.4694997 -10.9530012
  87.4060012 130.9284997  -9.7710012  87.6706904 131.0243870 -10.5936635
  85.1860012 125.5354997  -8.7870012  85.4900012 124.8494997  -9.3820012
  85.9070012 125.6534997  -8.1690012  85.3250671 125.4576305  -8.7848184
  93.8490012 117.1364997  -7.9260012  93.8980012 117.7464997  -7.1900012
  94.2740012 117.5974997  -8.6490012  93.9131824 117.2823741  -7.9229795
  88.3270012 119.9294997  -8.4590012  88.4690012 118.9834997  -8.4390012
  88.2200012 120.1364997  -9.3880012  88.3319864 119.8279534  -8.5817661
  81.4810012 118.0304997 -11.1870012  81.5250012 118.8904997 -11.6050012
  81.0240012 117.4784997 -11.8210012  81.4252185 118.0735799 -11.3299701
  89.2040012 118.1614997 -12.7860012  89.8500012 117.8324997 -12.1610012
  89.7140012 118.6794997 -13.4090012  89.3614264 118.1864611 -12.7846138
  78.1020012 120.4274997 -10.4250012  78.7550012 119.8774997  -9.9930012
  78.1260012 120.1534997 -11.3420012  78.1946683 120.3151466 -10.4897877
  83.2580012 121.9774997 -11.2100012  83.8740012 121.4514997 -10.7000012
  82.6720012 121.3374997 -11.6130012  83.2630810 121.8189208 -11.1946827
  94.2400012 118.6144997  -5.6900012  93.5520012 119.2724997  -5.7860012
  94.2560012 118.4174997  -4.7540012  94.1478525 118.6780462  -5.5765192
  80.2920012 116.9484997  -7.1130012  80.0730012 117.4784997  -7.8790012
  79.6240012 117.1754997  -6.4660012  80.1717600 117.0516906  -7.1303621
  87.6610012 126.4484997 -13.5690012  87.3650012 126.1264997 -14.4200012
  87.3360012 127.3484997 -13.5280012  87.5766371 126.5260215 -13.6798199
  82.8610012 124.6244997  -6.8260012  82.1210012 125.2224997  -6.7220012
  83.5750012 125.1784997  -7.1410012  82.8562237 124.7812831  -6.8543535
  90.9680012 117.4524997 -10.8060012  90.7520012 116.6864997 -10.2730012
  91.6230012 117.9244997 -10.2930012  91.0270632 117.4115889 -10.6637139
  79.8850012 118.8404997  -9.1610012  80.4990012 119.4734997  -8.7870012
  80.3970012 118.3684997  -9.8170012  80.0382296 118.8632370  -9.1985748
  81.2680012 126.5884997  -6.0380012  81.2630012 127.4684997  -6.4160012
  80.4150012 126.5054997  -5.6130012  81.1519464 126.6976117  -6.0322093
  77.3890012 126.2594997 -15.2560012  77.1170012 126.4884997 -16.1450012
  77.4350012 127.0974997 -14.7960012  77.3580094 126.4041213 -15.3154303
  91.0140012 127.8814997  -8.5440012  90.0730012 127.9394997  -8.3820012
  91.2910012 128.7874997  -8.6810012  90.9224679 128.0119443  -8.5403185
  91.3150012 116.1674997  -7.1260012  90.5790012 116.7784997  -7.1640012
  91.9980012 116.5824997  -7.6530012  91.3066541 116.3071374  -7.2024168
  84.3180012 114.2544997  -9.6600012  84.2010012 113.3054997  -9.7150012
  83.4630012 114.5864997  -9.3870012  84.1863733 114.1695409  -9.6306103
  89.2660012 129.6624997 -11.9180012  89.6920012 128.9554997 -12.4030012
  89.5830012 130.4634997 -12.3350012  89.3671019 129.6740994 -12.0406870
  90.4260012 127.5634997 -13.4100012  90.1680012 126.8734997 -14.0210012
  90.4970012 127.1204997 -12.5640012  90.4002856 127.4092124 -13.3793115
  92.1120012 126.1294997  -4.9320012  92.2520012 125.5384997  -5.6720012
  92.2790012 127.0024997  -5.2890012  92.1536778 126.1666426  -5.0813035
  86.5850012 123.0914997 -15.1600012  85.8730012 123.6264997 -15.5120012
  87.2760012 123.1474997 -15.8200012  86.5810132 123.1722543 -15.2973711
  86.6380012 121.5494997 -18.1210012  87.3390012 121.5714997 -17.4700012
  86.9410012 120.9214997 -18.7770012  86.7747830 121.4676566 -18.1206289
  93.9540012 122.4694997  -6.8660012  93.3010012 123.1644997  -6.7770012
  94.4190012 122.6794997  -7.6760012  93.9275390 122.5929425  -6.9633117
  89.9900012 123.3014997 -14.2080012  89.2580012 123.5294997 -13.6350012
  90.4380012 122.5874997 -13.7530012  89.9503095 123.2362571 -14.0680881
  89.8880012 121.4754997  -5.1410012  89.9680012 122.2384997  -4.5690012
  89.2860012 121.7544997  -5.8310012  89.8175756 121.6177134  -5.1559411
  81.6360012 123.9314997 -12.3260012  81.3050012 123.5614997 -13.1440012
  82.2240012 123.2614997 -11.9790012  81.6701873 123.7901156 -12.3911898
  83.0020012 127.3594997  -9.6440012  82.9080012 126.7814997 -10.4010012
  83.7320012 126.9884997  -9.1480012  83.0877981 127.2302390  -9.6805835
  82.0020012 122.7004997  -8.6920012  82.5680012 122.8214997  -9.4550012
  82.3210012 123.3374997  -8.0530012  82.1225786 122.8031884  -8.7099960
  88.3110012 128.2034997  -7.9580012  88.0710012 128.8654997  -7.3100012
  88.1130012 127.3694997  -7.5330012  88.2513808 128.1813134  -7.8118476
  82.8820012 127.0994997  -3.9750012  82.5710012 127.8814997  -3.5200012
  82.2320012 126.9464997  -4.6610012  82.7515558 127.1859105  -4.0054129
  88.8610012 122.4634997 -16.5230012  89.4410012 122.6134997 -15.7760012
  89.2750012 122.9344997 -17.2460012  88.9962830 122.5476841 -16.5185866
  79.8020012 123.2974997  -4.7460012  79.8730012 123.9484997  -4.0480012
  78.9120012 123.4004997  -5.0810012  79.6913117 123.4005936  -4.6957300
  86.5880012 129.2004997 -13.0880012  87.0620012 129.4954997 -12.3100012
  86.0250012 129.9384997 -13.3210012  86.5767653 129.3406932 -13.0129864
  81.1220012 129.1714997  -3.2120012  81.1290012 129.0354997  -4.1590012
  80.2060012 129.0534997  -2.9600012  80.9991714 129.1369430  -3.3075334
  92.5600012 114.2134997 -16.7100012  91.6600012 114.3524997 -16.4150012
  92.8120012 115.0444997 -17.1120012  92.4708702 114.3449074 -16.7239795
  80.6260012 123.0014997 -14.7360012  80.3340012 123.7694997 -15.2270012
  79.9520012 122.3414997 -14.8990012  80.4949081 123.0174406 -14.8252660
  93.7490012 128.5794997 -18.3340012  93.8230012 129.5184997 -18.1630012
  94.6550012 128.2744997 -18.3900012  93.8815100 128.6666722 -18.3181881
  76.7190012 125.3644997  -5.9210012  76.2180012 125.3364997  -6.7360012
  76.7240012 124.4584997  -5.6120012  76.6511526 125.2382278  -5.9907128
  76.4690012 128.1444997  -9.0370012  77.4150012 128.0004997  -9.0560012
  76.3570012 128.9284997  -8.5000012  76.5832727 128.2308046  -8.9669928
  94.6670012 128.8104997  -3.3550012  94.6180012 127.8554997  -3.3920012
  93.8400012 129.0784997  -2.9540012  94.5484940 128.7158998  -3.3058625
  85.6460012 128.3844997  -4.4790012  85.7330012 129.2104997  -4.0040012
  84.7820012 128.0544997  -4.2300012  85.5411964 128.4529878  -4.3803451
  86.0600012 132.1564997 -14.6730012  85.9850012 132.0354997 -15.6190012
  86.0930012 133.1064997 -14.5540012  86.0541848 132.2682500 -14.7865166
  79.7130012 130.9454997 -12.8920012  79.8660012 130.5974997 -12.0130012
  78.8630012 130.5894997 -13.1470012  79.6188962 130.8496650 -12.8061660
  89.1620012 131.3104997 -17.6710012  89.5370012 130.5664997 -18.1410012
  89.1660012 131.0404997 -16.7520012  89.2138915 131.1721486 -17.6112176
  88.8310012 131.2364997 -14.9210012  87.8950012 131.3364997 -14.7430012
  89.1110012 130.5274997 -14.3430012  88.7408255 131.1542711 -14.8184609
  91.8190012 120.3034997  -2.8750012  91.4120012 120.7844997  -3.5960012
  91.8600012 119.3984997  -3.1830012  91.7688437 120.2469374  -3.0153317
  78.9680012 126.6874997  -4.8780012  79.1840012 126.3264997  -4.0190012
  78.1130012 126.3134997  -5.0880012  78.8819292 126.5874111  -4.7886614
  81.5870012 115.1574997  -8.8830012  80.7250012 115.0704997  -9.2900012
  81.5640012 116.0134997  -8.4550012  81.4660330 115.2612765  -8.8808137
  86.2500012 114.8794997  -5.5080012  86.6700012 114.4644997  -4.7550012
  85.3170012 114.7014997  -5.3910012  86.1813644 114.7985900  -5.3890461
  89.5760012 118.6354997  -4.6550012  89.0620012 118.5094997  -3.8570012
  89.4210012 119.5474997  -4.8990012  89.4846852 118.7416132  -4.5787842
  90.3390012 123.4964997 -18.8930012  90.3810012 123.2734997 -19.8230012
  91.1880012 123.8954997 -18.7030012  90.4595396 123.5199155 -18.9946373
  85.9110012 117.3724997 -18.2230012  85.6580012 117.3914997 -17.3000012
  85.6550012 116.5004997 -18.5240012  85.8417790 117.2572437 -18.1373737
  81.6780012 120.1234997  -7.7880012  81.0360012 120.0824997  -7.0790012
  81.7150012 121.0494997  -8.0250012  81.5951324 120.2431559  -7.7230176
  81.6750012 120.3444997 -12.8760012  80.7820012 120.0034997 -12.9340012
  82.1250012 119.9674997 -13.6310012  81.6137305 120.2468484 -12.9860823
  87.2100012 120.7604997 -14.0590012  86.8010012 121.5754997 -14.3500012
  87.9310012 120.6204997 -14.6730012  87.2514537 120.8532018 -14.1818658
  86.3120012 120.9354997  -2.5710012  85.7500012 120.2314997  -2.2500012
  87.1390012 120.8154997  -2.1030012  86.3467095 120.8227883  -2.4637670
  88.2150012 120.2064997 -11.2450012  88.0200012 120.8114997 -11.9600012
  88.3960012 119.3724997 -11.6790012  88.2127614 120.1766300 -11.4015595
  79.4280012 120.4434997  -5.9210012  79.3900012 120.8434997  -5.0520012
  78.9370012 119.6264997  -5.8300012  79.3564684 120.3878069  -5.7898941
  82.7940012 117.8174997 -19.1220012  82.3630012 117.3724997 -18.3920012
  82.0760012 118.1894997 -19.6340012  82.6379438 117.8068940 -19.0913201
  76.0360012 117.5594997 -12.0700012  76.6670012 117.5304997 -11.3510012
  76.4850012 117.1344997 -12.8000012  76.1830774 117.4980492 -12.0703447
  77.3100012 118.3054997 -16.6460012  77.7840012 118.8964997 -17.2310012
  76.5930012 118.8364997 -16.2990012  77.2779341 118.4580867 -16.6791164
  87.4790012 121.8444997  -6.5730012  87.8020012 121.2134997  -7.2160012
  87.0390012 121.3094997  -5.9130012  87.4636895 121.6858441  -6.5717150
  84.2560012 117.7714997 -11.7890012  83.3450012 117.8284997 -11.5010012
  84.7620012 117.7114997 -10.9790012  84.1995413 117.7711985 -11.6399378
  79.0850012 119.4004997 -12.9630012  78.1950012 119.5004997 -13.3030012
  79.3810012 118.5584997 -13.3090012  79.0032823 119.3003545 -13.0562787
  82.7380012 119.4004997 -15.3060012  83.6690012 119.5294997 -15.1280012
  82.5230012 120.0704997 -15.9560012  82.8364247 119.5086565 -15.3694253
  88.6610012 117.0064997  -8.5250012  87.9850012 117.1374997  -7.8610012
  88.1760012 116.8514997  -9.3350012  88.5027145 117.0034905  -8.5435483
  81.4120012 120.5954997 -17.7390012  80.8690012 120.2154997 -18.4310012
  82.2450012 120.7894997 -18.1680012  81.4504399 120.5698124 -17.8915474
  91.9490012 132.6784997  -2.2480012  92.1490012 133.1024997  -3.0830012
  92.6040012 133.0214997  -1.6410012  92.0650051 132.7829648  -2.2802164
  79.5470012 125.1524997  -2.6400012  80.2790012 125.4064997  -2.0790012
  78.7670012 125.3564997  -2.1250012  79.5418232 125.2149177  -2.4934240
  85.5760012 120.5594997  -9.9020012  86.1410012 120.0124997 -10.4490012
  85.4290012 120.0374997  -9.1140012  85.6332918 120.4142024  -9.8701546
  80.5780012 116.6954997 -13.4840012  80.2610012 115.7934997 -13.5190012
  81.3600012 116.6974997 -14.0370012  80.6402284 116.5721628 -13.5635217
  84.2030012 118.9474997  -7.4880012  83.3670012 119.4014997  -7.3780012
  84.7270012 119.2234997  -6.7360012  84.1594414 119.0469376  -7.3712864
  84.7470012 125.1604997 -15.8040012  84.0020012 124.6534997 -16.1260012
  84.6130012 125.2094997 -14.8570012  84.6268776 125.0976940 -15.7201353
  91.8970012 124.2934997  -7.0170012  92.5390012 124.7504997  -7.5610012
  91.0670012 124.4064997  -7.4800012  91.8725963 124.3712704  -7.1539823
  88.6450012 117.9744997 -17.6040012  87.7060012 118.0864997 -17.7560012
  88.9420012 118.8314997 -17.2980012  88.5567666 118.1056443 -17.5834232
  86.2660012 125.3444997  -4.5670012  85.9210012 124.9634997  -3.7600012
  86.0660012 126.2784997  -4.4950012  86.1918061 125.4185228  -4.4469039
  89.3630012 119.8414997 -15.9440012  90.2550012 119.7044997 -15.6250012
  89.4200012 120.6324997 -16.4800012  89.4926285 119.9296660 -15.9728309
  79.8720012 124.4554997 -10.0340012  80.6170012 124.4534997 -10.6350012
  79.9500012 123.6324997  -9.5520012  79.9845518 124.3439315 -10.0511071
  86.8730012 126.6194997 -16.7780012  86.5770012 127.4454997 -16.3970012
  86.1700012 125.9994997 -16.5820012  86.7374914 126.6488199 -16.6993557
  76.8800012 122.9164997  -4.7190012  77.1030012 122.4984997  -3.8870012
  76.2780012 122.3034997  -5.1420012  76.8291759 122.7764668  -4.6622978
  83.8960012 122.4334997  -2.5060012  83.6000012 122.2674997  -3.4010012
  84.8280012 122.2134997  -2.5170012  83.9814166 122.3810640  -2.6299464
  88.5170012 127.8064997  -4.6160012  87.6160012 127.9894997  -4.8840012
  88.5510012 128.0654997  -3.6950012  88.3983041 127.8665512  -4.5281803
  94.2480012 120.0514997 -16.2490012  93.6940012 119.6554997 -16.9210012
  94.3480012 120.9614997 -16.5270012  94.1857059 120.1203586 -16.3785599
  94.2110012 125.8514997  -3.4120012  93.3600012 126.0894997  -3.7790012
  94.8020012 125.8344997  -4.1650012  94.1742487 125.8818258  -3.5641107
  92.5430012 128.8374997 -15.7840012  92.1700012 128.0114997 -15.4750012
  92.8210012 128.6544997 -16.6810012  92.5295630 128.6997303 -15.8630374
  89.7040012 123.6454997  -8.7630012  88.7750012 123.4134997  -8.7900012
  90.1550012 122.8684997  -9.0930012  89.6379216 123.5087238  -8.8113083
  82.2470012 127.9734997 -12.6300012  82.7740012 128.7464997 -12.8300012
  81.3670012 128.1984997 -12.9310012  82.2001773 128.1098005 -12.6980990
  78.0020012 122.8354997 -18.0430012  78.6180012 123.4624997 -17.6630012
  77.1400012 123.1514997 -17.7710012  77.9697698 122.9639430 -17.9542817
  83.6740012 125.6364997 -13.0530012  83.4330012 126.5614997 -13.0120012
  82.9330012 125.1774997 -12.6570012  83.5408409 125.7011421 -12.9938623
  84.1890012 129.7854997  -6.7380012  84.5510012 130.6404997  -6.9720012
  84.7200012 129.4934997  -5.9980012  84.3104473 129.8631060  -6.6699145
  82.3570012 130.6584997 -13.5080012  81.4070012 130.7634997 -13.4570012
  82.7090012 131.4784997 -13.1630012  82.2744203 130.7838314 -13.4543350
  87.7330012 125.8844997  -7.0380012  87.3070012 125.6574997  -6.2110012
  88.3130012 125.1464997  -7.2200012  87.7531868 125.7535299  -6.9494170
  89.9360012 126.8134997 -17.9640012  90.2890012 126.4334997 -17.1590012
  88.9870012 126.7204997 -17.8770012  89.8560441 126.7489596 -17.8421441
  90.3910012 130.4364997  -4.5680012  89.7900012 129.8814997  -5.0640012
  90.6730012 131.1034997  -5.1940012  90.3468519 130.4506841  -4.7205048
  94.4390012 131.2934997 -17.7630012  95.1830012 131.8794997 -17.9030012
  93.7450012 131.8614997 -17.4290012  94.4470292 131.4505582 -17.7370039
  78.5140012 117.6694997  -5.1610012  77.6210012 118.0084997  -5.2290012
  78.4150012 116.8144997  -4.7430012  78.3784164 117.6002588  -5.1137765
  90.8020012 125.4864997 -15.7370012  90.5240012 124.7584997 -15.1810012
  91.7290012 125.6054997 -15.5320012  90.8893124 125.4028802 -15.6331155
  78.1650012 129.4744997  -6.7260012  78.3820012 128.5424997  -6.7570012
  78.4110012 129.7484997  -5.8430012  78.2279549 129.3840636  -6.6108237
  84.0270012 127.9254997 -19.5170012  84.2660012 127.1774997 -20.0640012
  83.7580012 127.5374997 -18.6840012  84.0233675 127.7706638 -19.4793135
  82.9640012 127.4954997 -17.0600012  83.1100012 126.9754997 -16.2700012
  82.9610012 128.4024997 -16.7540012  82.9835989 127.5468853 -16.9103912
  79.4170012 124.7484997 -16.5500012  78.7310012 125.1004997 -15.9830012
  79.9390012 125.5114997 -16.7970012  79.3936852 124.8998578 -16.5057882
  87.2480012 117.4104997  -6.2710012  87.9470012 117.4844997  -5.6210012
  86.8670012 116.5464997  -6.1170012  87.2921767 117.3037624  -6.1611678
  88.0330012 117.0624997 -15.1740012  88.2530012 117.5344997 -15.9770012
  88.5910012 117.4574997 -14.5040012  88.1384968 117.1804285 -15.1932669
  85.7010012 129.1934997 -16.3110012  84.8850012 129.6904997 -16.2590012
  86.2310012 129.6684997 -16.9510012  85.6609161 129.3257722 -16.3904044
  85.2330012 118.7904997 -14.3390012  86.0450012 119.2954997 -14.2930012
  84.9880012 118.6454997 -13.4250012  85.3110520 118.8400375 -14.2091483
  85.7680012 119.7764997  -5.1540012  85.8870012 120.3504997  -4.3970012
  86.4240012 119.0884997  -5.0400012  85.8729757 119.7621079  -5.0349175
  86.1160012 115.8714997 -13.4010012  85.7700012 116.4894997 -12.7560012
  86.7750012 116.3724997 -13.8820012  86.1577826 116.0235802 -13.3779029
  83.0400012 130.2374997 -16.3290012  83.2000012 131.0364997 -16.8300012
  82.8420012 130.5434997 -15.4440012  83.0351649 130.3884469 -16.2780185
  81.7740012 116.9344997 -16.7140012  81.6910012 117.8234997 -16.3670012
  82.6640012 116.6694997 -16.4820012  81.8829469 117.0201430 -16.6352374
  91.9730012 117.6834997  -4.3190012  91.0560012 117.9464997  -4.4070012
  92.3080012 117.6804997  -5.2160012  91.8929900 117.7190224  -4.4522081
  90.5750012 121.4344997 -10.2240012  89.7770012 121.0194997 -10.5520012
  91.0200012 120.7434997  -9.7330012  90.5259885 121.2843543 -10.2025111
  80.0330012 127.3624997 -17.6530012  80.6250012 128.0614997 -17.3770012
  80.4920012 126.9294997 -18.3730012  80.1761142 127.3997049 -17.7125170
  78.3490012 120.0264997 -18.5370012  78.3040012 120.9654997 -18.3590012
  77.4610012 119.7904997 -18.8070012  78.2228574 120.1231892 -18.5491088
  91.6610012 130.6904997  -8.6010012  91.5060012 131.3684997  -9.2580012
  92.5940012 130.7624997  -8.3980012  91.7658500 130.7930170  -8.6634881
  79.1570012 114.8084997  -9.8640012  78.9280012 114.8674997 -10.7920012
  78.7140012 114.0164997  -9.5580012  79.0658530 114.7095753  -9.9495214
  78.0870012 128.7484997 -13.7040012  77.2550012 129.2214997 -13.6760012
  78.6330012 129.2584997 -14.3020012  78.0469739 128.8821871 -13.7810284
  77.3750012 131.3614997  -2.3740012  77.9160012 131.1444997  -1.6140012
  76.8940012 130.5554997  -2.5630012  77.3839345 131.2229514  -2.2956924
  81.9730012 130.2804997  -0.7530012  82.7400012 129.8214997  -0.4120012
  81.9510012 130.0544997  -1.6830012  82.0751434 130.1870409  -0.8319957
  86.0650012 129.7884997 -19.3780012  85.4210012 129.1574997 -19.0570012
  86.8270012 129.2574997 -19.6100012  86.0798077 129.6302920 -19.3653989
  88.5500012 128.6604997  -2.0240012  88.1990012 127.8044997  -1.7810012
  89.2760012 128.8034997  -1.4170012  88.6000769 128.5625636  -1.9086381
  90.6690012 129.6054997 -19.1440012  90.9520012 128.8114997 -18.6920012
  91.4090012 129.8384997 -19.7050012  90.8077486 129.5282803 -19.1579302
  77.2820012 125.1714997  -1.4190012  77.4260012 124.2694997  -1.7060012
  76.5100012 125.4574997  -1.9070012  77.1973322 125.0868261  -1.5242119
  81.6240012 125.5154997 -19.2870012  81.6880012 124.7214997 -18.7560012
  82.2770012 125.3964997 -19.9770012  81.7210241 125.3907148 -19.3075683
  83.9380012 125.1414997  -1.9870012  83.6090012 125.4124997  -2.8440012
  84.0900012 124.2004997  -2.0740012  83.9134809 125.0513862  -2.1161756
  89.6720012 125.0574997  -4.6030012  90.4180012 125.6454997  -4.7230012
  88.9150012 125.6394997  -4.5400012  89.6717554 125.2167011  -4.6109093
  78.1150012 122.3714997  -1.9990012  78.5230012 121.5144997  -2.1200012
  77.8550012 122.3864997  -1.0780012  78.1357568 122.2560807  -1.8910412
  82.7730012 123.4874997 -16.9810012  82.3130012 123.0034997 -16.2950012
  83.0280012 122.8194997 -17.6170012  82.7444902 123.3308731 -16.9730666
  82.0620012 121.3804997  -4.6250012  81.4440012 122.0554997  -4.3450012
  82.4060012 121.7014997  -5.4580012  82.0239615 121.5162721  -4.6993419
  83.8440012 121.7304997 -18.7190012  83.6640012 121.5764997 -19.6460012
  84.7940012 121.8384997 -18.6740012  83.9477776 121.7240175 -18.8398157
  87.0820012 123.8524997  -1.3480012  88.0350012 123.9354997  -1.3750012
  86.9210012 123.1404997  -0.7280012  87.1906426 123.7676746  -1.2679421
  93.2340012 124.0854997 -19.2730012  92.9600012 123.6604997 -20.0860012
  93.2730012 125.0164997 -19.4900012  93.2017699 124.1532484 -19.4136390
  82.4010012 118.7354997  -3.5430012  82.5510012 118.0064997  -4.1450012
  82.4040012 119.5124997  -4.1020012  82.4219302 118.7407851  -3.7009308
  82.8140012 117.1054997  -6.0500012  83.3500012 117.5564997  -6.7020012
  81.9620012 116.9974997  -6.4730012  82.7722178 117.1526390  -6.1964244
  84.3960012 122.5444997  -5.8110012  85.1460012 122.3884997  -6.3840012
  84.0570012 123.3964997  -6.0860012  84.4528921 122.6382968  -5.9266439
  88.8110012 120.3594997  -0.7820012  89.0040012 119.4284997  -0.8940012
  89.6690012 120.7844997  -0.7920012  88.9533020 120.2896389  -0.7986639
  90.1280012 123.1484997  -2.7050012  89.8470012 123.8574997  -3.2820012
  91.0710012 123.0754997  -2.8560012  90.2169027 123.2357646  -2.8044449
  80.8800012 119.9334997  -1.6310012  80.1130012 119.4014997  -1.8410012
  81.5590012 119.6234997  -2.2310012  80.8667022 119.8187506  -1.7408352
  83.6200012 114.5614997  -5.6190012  83.5210012 115.5084997  -5.7240012
  82.8770012 114.1894997  -6.0940012  83.5060564 114.6405902  -5.6975440
  84.8840012 118.8834997  -2.0550012  84.6480012 118.6634997  -1.1530012
  84.1000012 118.6764997  -2.5650012  84.7458628 118.8254760  -2.0006068
  87.5990012 118.0104997  -2.9790012  86.6520012 118.0424997  -2.8470012
  87.9120012 117.3854997  -2.3260012  87.5115475 117.9303207  -2.8725545
  89.2330012 116.6444997  -0.9740012  89.1370012 115.6924997  -0.9800012
  88.9120012 116.9134997  -0.1140012  89.1764070 116.5504035  -0.8584559
  79.0600012 117.8544997  -1.9270012  79.2720012 117.1474997  -2.5370012
  78.9490012 117.4164997  -1.0830012  79.0739721 117.6987084  -1.8963157
  83.8410012 113.8554997  -2.9470012  84.5530012 113.2154997  -2.9610012
  83.7400012 114.1224997  -3.8610012  83.9247939 113.8039938  -3.0724350
  84.1950012 115.5384997  -0.8940012  84.0630012 115.0624997  -1.7140012
  83.5960012 116.2824997  -0.9490012  84.0959071 115.5739618  -1.0137114
  83.7410012 132.4214997 -17.7170012  84.6740012 132.5794997 -17.5740012
  83.4770012 133.0964997 -18.3420012  83.8329510 132.5343611 -17.7819259
  77.3100012 127.0574997 -18.2350012  78.2240012 127.1364997 -17.9610012
  77.3170012 126.3704997 -18.9010012  77.4361131 126.9753961 -18.2875607
  75.9590012 132.4504997 -13.1570012  75.3120012 131.9884997 -13.6900012
  76.3130012 131.7784997 -12.5750012  75.9183849 132.2964723 -13.1512041
  76.8290012 130.5314997 -11.3530012  76.4940012 129.6514997 -11.1810012
  77.0510012 130.8764997 -10.4880012  76.8131783 130.4577500 -11.2125792
  94.3770012 131.3404997  -8.3720012  94.3560012 131.5254997  -7.4330012
  95.0680012 131.9094997  -8.7130012  94.4674618 131.4426606  -8.2896136
  93.9410012 130.9084997  -5.4500012  93.4530012 130.1724997  -5.8210012
  94.4900012 130.5144997  -4.7720012  93.9484872 130.7546249  -5.4090840
  92.3910012 126.6974997  -0.8120012  91.5250012 126.5924997  -0.4180012
  92.7680012 127.4564997  -0.3660012  92.3233308 126.7856900  -0.6977607
  93.6920012 124.9544997 -15.2980012  94.5420012 125.3754997 -15.1710012
  93.6980012 124.2144997 -14.6910012  93.8091372 124.9120803 -15.1985656
  94.0870012 123.0074997 -13.4740012  93.3600012 122.5284997 -13.0770012
  94.6680012 123.2134997 -12.7420012  94.0659375 122.9697090 -13.3205871
  93.8460012 125.7924997  -8.5270012  94.6790012 125.4144997  -8.8070012
  93.9580012 126.7354997  -8.6460012  93.9752647 125.8682218  -8.5814513
  92.3320012 128.6704997  -6.2200012  91.6850012 128.9954997  -5.5940012
  91.8150012 128.2304997  -6.8940012  92.1734029 128.6555004  -6.2254173
  94.3550012 122.9084997 -17.0830012  93.8330012 123.2654997 -17.8020012
  94.3220012 123.5834997 -16.4050012  94.2791634 123.0485413 -17.0896855
  92.7040012 120.1484997 -18.5320012  92.8000012 120.8154997 -19.2130012
  92.5640012 119.3324997 -19.0140012  92.6982135 120.1294500 -18.6901509
  91.8730012 121.5284997 -12.9110012  91.7230012 120.5834997 -12.9320012
  91.5200012 121.8094997 -12.0680012  91.8046625 121.4370441 -12.7997654
  76.9090012 123.6064997  -8.9010012  77.0930012 123.5244997  -9.8370012
  77.7580012 123.4824997  -8.4770012  77.0490139 123.5785003  -8.9718545
  92.7300012 123.4984997  -3.2730012  93.3130012 122.7644997  -3.0810012
  93.2940012 124.2704997  -3.2260012  92.8859769 123.5024227  -3.2403841
  94.2260012 121.4014997  -2.5880012  93.3630012 121.0224997  -2.7540012
  94.8310012 120.6624997  -2.6620012  94.1895979 121.2498023  -2.6207183
  91.9510012 117.5564997 -19.4150012  92.5620012 117.1854997 -18.7780012
  91.1150012 117.1354997 -19.2190012  91.9215032 117.4487554 -19.3012965
  91.5840012 119.1114997 -14.4490012  91.8640012 118.2044997 -14.3250012
  92.3430012 119.5454997 -14.8380012  91.7249277 119.0460942 -14.4846318
  92.1960012 119.6924997  -9.0130012  93.1290012 119.9044997  -9.0470012
  91.9610012 119.7944997  -8.0910012  92.2918036 119.7352769  -8.8930024
  92.2250012 120.4294997  -6.2370012  91.3820012 120.6974997  -5.8710012
  92.6670012 121.2514997  -6.4480012  92.1694158 120.5773291  -6.2154509
  76.5060012 118.8774997  -2.7600012  77.4260012 118.7554997  -2.5240012
  76.0570012 118.1274997  -2.3710012  76.5711580 118.7593727  -2.6750994
  94.5080012 114.4094997  -0.8840012  94.8580012 113.7554997  -1.4890012
  94.6550012 115.2464997  -1.3230012  94.5758419 114.4331591  -1.0262882
  92.1970012 116.3744997 -14.4010012  92.3800012 115.9254997 -13.5750012
  91.5980012 115.7894997 -14.8640012  92.1410202 116.2339975 -14.3506725
  77.7270012 117.1894997  -9.8690012  78.1730012 116.3974997  -9.5670012
  78.1940012 117.9054997  -9.4380012  77.8510172 117.1780624  -9.7695180
  76.0310012 120.1884997  -8.8000012  76.5230012 119.9674997  -9.5910012
  76.3940012 121.0294997  -8.5190012  76.1473126 120.2718357  -8.8702469
  94.0280012 116.5184997  -2.5340012  93.1100012 116.7894997  -2.5700012
  94.1510012 115.9834997  -3.3190012  93.9191066 116.4832892  -2.6449513
  94.0640012 116.4414997 -17.8730012  94.4760012 115.7204997 -18.3480012
  94.7460012 117.1114997 -17.8140012  94.2125885 116.4332368 -17.9301085
  76.3450012 116.4464997 -14.7460012  75.4200012 116.6554997 -14.8750012
  76.7990012 116.9304997 -15.4350012  76.2797368 116.5405993 -14.8568774
  91.1160012 131.4304997 -12.8000012  91.7680012 131.0834997 -13.4080012
  91.6260012 131.9194997 -12.1540012  91.2742637 131.4490597 -12.7959764
  76.3090012 115.1844997  -6.4010012  75.6440012 114.9384997  -5.7580012
  75.8660012 115.8064997  -6.9790012  76.1580956 115.2348632  -6.3910648
  78.5010012 128.3594997  -2.2570012  77.6800012 128.5344997  -2.7170012
  78.2480012 128.2864997  -1.3360012  78.3546164 128.3735622  -2.1955077
  81.4550012 129.3344997  -5.9980012  81.0300012 130.1434997  -6.2810012
  82.3590012 129.4194997  -6.3000012  81.5190271 129.4568469  -6.0776224
  85.7660012 130.7334997  -3.0390012  85.9510012 130.3994997  -2.1610012
  86.6120012 131.0424997  -3.3610012  85.9057539 130.7296047  -2.9624395
  88.1110012 132.0194997  -3.7950012  88.7880012 131.3864997  -4.0350012
  88.4330012 132.4204997  -2.9880012  88.2471637 131.9871154  -3.7187207
  93.0280012 114.6084997  -4.7150012  92.2160012 114.9334997  -5.1030012
  93.2610012 113.8484997  -5.2480012  92.9483423 114.5502436  -4.8401747
  78.8570012 132.5904997  -5.9510012  78.1360012 133.0304997  -6.4020012
  78.4910012 132.3394997  -5.1020012  78.7089804 132.6167698  -5.8980160
  81.3240012 132.1904997  -6.9210012  80.4590012 132.2624997  -6.5170012
  81.2690012 132.7374997  -7.7050012  81.1982085 132.2742685  -6.9716638
  86.0340012 132.0784997  -7.7460012  85.5780012 132.6074997  -8.4000012
  86.1970012 132.6814997  -7.0200012  85.9935585 132.2324468  -7.7374938
  88.3620012 130.9564997  -6.8010012  87.4570012 131.1214997  -7.0660012
  88.7910012 131.8094997  -6.8660012  88.2960799 131.0944483  -6.8460818
  90.9660012 132.5264997  -6.5060012  90.7840012 133.4424997  -6.7160012
  91.1430012 132.1164997  -7.3520012  90.9650210 132.5964822  -6.6492115
  78.2710012 131.2134997  -9.0410012  78.2530012 130.7884997  -8.1830012
  79.0760012 130.8954997  -9.4490012  78.3773875 131.1123812  -8.9788345
  80.4130012 129.9234997 -10.3860012  80.1940012 129.0074997 -10.2160012
  81.2370012 130.0634997  -9.9200012  80.4944420 129.8170520 -10.2997226
  82.9500012 130.3934997  -9.5370012  83.1630012 129.5054997  -9.8240012
  83.0140012 130.3594997  -8.5830012  82.9878232 130.2673102  -9.4472603
  86.4580012 116.0574997 -10.3930012  85.7840012 115.4284997 -10.1370012
  87.0220012 115.5734997 -10.9960012  86.4419230 115.9058744 -10.4394660
  91.6010012 114.1654997 -10.2800012  92.2050012 114.7124997 -10.7820012
  90.7310012 114.4844997 -10.5200012  91.5661241 114.2835806 -10.3812346
  93.3280012 115.3034997 -11.9470012  93.9400012 114.7894997 -12.4730012
  93.7100012 116.1814997 -11.9230012  93.4634540 115.3517140 -12.0158170
  78.7850012 114.6914997 -12.5710012  78.0080012 114.4574997 -13.0780012
  79.3150012 113.8944997 -12.5620012  78.7502330 114.5516988 -12.6392258
  77.6210012 114.4894997 -16.7670012  78.0600012 115.1004997 -17.3590012
  76.9880012 115.0274997 -16.2930012  77.5954514 114.6459257 -16.7839070
  83.3640012 114.6184997 -12.7570012  84.2390012 115.0064997 -12.7870012
  83.2280012 114.4034997 -11.8350012  83.4653695 114.6425184 -12.6363560
  88.9210012 114.6484997 -11.1080012  88.9970012 114.7434997 -12.0580012
  88.6460012 113.7404997 -10.9790012  88.8942321 114.5387867 -11.2204921
  90.2740012 114.6744997 -15.4160012  89.5720012 115.2894997 -15.6250012
  89.8300012 113.8364997 -15.2850012  90.1176330 114.6455783 -15.4269672
  77.5220012 130.4374997 -15.8690012  76.8370012 130.3994997 -16.5370012
  77.5260012 131.3504997 -15.5810012  77.4288193 130.5557016 -15.9214716
  79.4820012 116.4054997 -18.3250012  79.9740012 115.7754997 -18.8520012
  80.1060012 116.7014997 -17.6610012  79.6335446 116.3593199 -18.3074020
  84.5080012 116.6984997 -15.8680012  84.6860012 116.0524997 -15.1850012
  84.4550012 117.5324997 -15.4000012  84.5251829 116.7227985 -15.7114060
  86.3870012 131.6474997 -17.4720012  87.2530012 132.0134997 -17.6500012
  86.1400012 131.2074997 -18.2860012  86.4722392 131.6381756 -17.6063711
  93.0960012 131.2104997 -14.7930012  92.9010012 130.4624997 -15.3580012
  93.0570012 131.9684997 -15.3760012  93.0640380 131.2106099 -14.9491616
  78.7430012 115.2054997  -3.0530012  78.3770012 114.4404997  -2.6100012
  79.6560012 115.2344997  -2.7660012  78.8162790 115.1047224  -2.9535930
  80.7160012 114.5564997  -1.5170012  81.6140012 114.2824997  -1.7020012
  80.3290012 113.8134997  -1.0530012  80.7866612 114.4185914  -1.4796357
  79.3400012 131.3574997 -18.8440012  79.0730012 131.6444997 -17.9710012
  80.1120012 130.8114997 -18.6920012  79.4077488 131.3230294 -18.7038950
  89.1370012 113.8884997  -1.3350012  89.2140012 113.4624997  -0.4810012
  90.0310012 113.9024997  -1.6780012  89.2683428 113.8320879  -1.2644690
  92.3130012 129.9614997  -2.6430012  91.5310012 129.7754997  -3.1620012
  92.2410012 130.8904997  -2.4250012  92.1961777 130.0616492  -2.6845952
 106.7190012 123.8474997 -12.6120012 106.8080012 124.7914997 -12.7440012
 106.0810012 123.5724997 -13.2700012 106.6449081 123.9394830 -12.7190386
 105.6520012 123.1024997  -9.1930012 105.6140012 122.4564997  -8.4880012
 105.3300012 122.6364997  -9.9640012 105.6032333 122.9509408  -9.2007022
  98.0210012 122.7174997  -7.6000012  98.0620012 122.0914997  -6.8770012
  98.7240012 123.3414997  -7.4180012  98.1216363 122.7161196  -7.4763956
 109.3580012 126.0414997 -10.8920012 108.9180012 125.3214997 -10.4410012
 109.3450012 126.7624997 -10.2620012 109.2960226 126.0403731 -10.7451506
  98.9440012 127.1674997  -9.0650012  98.5750012 126.3654997  -9.4350012
  99.8850012 126.9984997  -9.0190012  99.0207289 127.0350153  -9.1093684
  95.5540012 120.8274997 -13.6720012  95.1070012 121.6734997 -13.6910012
  94.9930012 120.2474997 -14.1880012  95.4169900 120.8649916 -13.7443199
  96.2650012 122.9894997 -11.5460012  96.4780012 122.2194997 -11.0190012
  97.0030012 123.0784997 -12.1500012  96.3938496 122.8961394 -11.5554700
 106.4700012 131.1464997 -10.6790012 107.0900012 130.4694997 -10.9530012
 106.2620012 130.9284997  -9.7710012 106.5266904 131.0243870 -10.5936635
 104.0420012 125.5354997  -8.7870012 104.3460012 124.8494997  -9.3820012
 104.7630012 125.6534997  -8.1690012 104.1810671 125.4576304  -8.7848184
 112.7050012 117.1364997  -7.9260012 112.7540012 117.7464997  -7.1900012
 113.1300012 117.5974997  -8.6490012 112.7691824 117.2823741  -7.9229795
 107.1830012 119.9294997  -8.4590012 107.3250012 118.9834997  -8.4390012
 107.0760012 120.1364997  -9.3880012 107.1879864 119.8279534  -8.5817661
 100.3370012 118.0304997 -11.1870012 100.3810012 118.8904997 -11.6050012
  99.8800012 117.4784997 -11.8210012 100.2812185 118.0735799 -11.3299701
 108.0600012 118.1614997 -12.7860012 108.7060012 117.8324997 -12.1610012
 108.5700012 118.6794997 -13.4090012 108.2174264 118.1864611 -12.7846138
  96.9580012 120.4274997 -10.4250012  97.6110012 119.8774997  -9.9930012
  96.9820012 120.1534997 -11.3420012  97.0506683 120.3151466 -10.4897877
 102.1140012 121.9774997 -11.2100012 102.7300012 121.4514997 -10.7000012
 101.5280012 121.3374997 -11.6130012 102.1190810 121.8189208 -11.1946827
 113.0960012 118.6144997  -5.6900012 112.4080012 119.2724997  -5.7860012
 113.1120012 118.4174997  -4.7540012 113.0038525 118.6780462  -5.5765192
  99.1480012 116.9484997  -7.1130012  98.9290012 117.4784997  -7.8790012
  98.4800012 117.1754997  -6.4660012  99.0277600 117.0516906  -7.1303621
 106.5170012 126.4484997 -13.5690012 106.2210012 126.1264997 -14.4200012
 106.1920012 127.3484997 -13.5280012 106.4326371 126.5260215 -13.6798199
 101.7170012 124.6244997  -6.8260012 100.9770012 125.2224997  -6.7220012
 102.4310012 125.1784997  -7.1410012 101.7122237 124.7812831  -6.8543535
 109.8240012 117.4524997 -10.8060012 109.6080012 116.6864997 -10.2730012
 110.4790012 117.9244997 -10.2930012 109.8830632 117.4115889 -10.6637139
  98.7410012 118.8404997  -9.1610012  99.3550012 119.4734997  -8.7870012
  99.2530012 118.3684997  -9.8170012  98.8942296 118.8632370  -9.1985748
 100.1240012 126.5884997  -6.0380012 100.1190012 127.4684997  -6.4160012
  99.2710012 126.5054997  -5.6130012 100.0079464 126.6976117  -6.0322093
  96.2450012 126.2594997 -15.2560012  95.9730012 126.4884997 -16.1450012
  96.2910012 127.0974997 -14.7960012  96.2140094 126.4041213 -15.3154303
 109.8700012 127.8814997  -8.5440012 108.9290012 127.9394997  -8.3820012
 110.1470012 128.7874997  -8.6810012 109.7784679 128.0119443  -8.5403185
 110.1710012 116.1674997  -7.1260012 109.4350012 116.7784997  -7.1640012
 110.8540012 116.5824997  -7.6530012 110.1626541 116.3071374  -7.2024168
 103.1740012 114.2544997  -9.6600012 103.0570012 113.3054997  -9.7150012
 102.3190012 114.5864997  -9.3870012 103.0423733 114.1695409  -9.6306103
 108.1220012 129.6624997 -11.9180012 108.5480012 128.9554997 -12.4030012
 108.4390012 130.4634997 -12.3350012 108.2231019 129.6740994 -12.0406870
 109.2820012 127.5634997 -13.4100012 109.0240012 126.8734997 -14.0210012
 109.3530012 127.1204997 -12.5640012 109.2562856 127.4092124 -13.3793115
 110.9680012 126.1294997  -4.9320012 111.1080012 125.5384997  -5.6720012
 111.1350012 127.0024997  -5.2890012 111.0096778 126.1666426  -5.0813035
 105.4410012 123.0914997 -15.1600012 104.7290012 123.6264997 -15.5120012
 106.1320012 123.1474997 -15.8200012 105.4370132 123.1722543 -15.2973711
 105.4940012 121.5494997 -18.1210012 106.1950012 121.5714997 -17.4700012
 105.7970012 120.9214997 -18.7770012 105.6307830 121.4676566 -18.1206289
 112.8100012 122.4694997  -6.8660012 112.1570012 123.1644997  -6.7770012
 113.2750012 122.6794997  -7.6760012 112.7835390 122.5929425  -6.9633117
 108.8460012 123.3014997 -14.2080012 108.1140012 123.5294997 -13.6350012
 109.2940012 122.5874997 -13.7530012 108.8063095 123.2362571 -14.0680881
 108.7440012 121.4754997  -5.1410012 108.8240012 122.2384997  -4.5690012
 108.1420012 121.7544997  -5.8310012 108.6735756 121.6177134  -5.1559411
 100.4920012 123.9314997 -12.3260012 100.1610012 123.5614997 -13.1440012
 101.0800012 123.2614997 -11.9790012 100.5261873 123.7901156 -12.3911898
 101.8580012 127.3594997  -9.6440012 101.7640012 126.7814997 -10.4010012
 102.5880012 126.9884997  -9.1480012 101.9437981 127.2302390  -9.6805835
 100.8580012 122.7004997  -8.6920012 101.4240012 122.8214997  -9.4550012
 101.1770012 123.3374997  -8.0530012 100.9785786 122.8031884  -8.7099960
 107.1670012 128.2034997  -7.9580012 106.9270012 128.8654997  -7.3100012
 106.9690012 127.3694997  -7.5330012 107.1073808 128.1813134  -7.8118476
 101.7380012 127.0994997  -3.9750012 101.4270012 127.8814997  -3.5200012
 101.0880012 126.9464997  -4.6610012 101.6075558 127.1859105  -4.0054129
 107.7170012 122.4634997 -16.5230012 108.2970012 122.6134997 -15.7760012
 108.1310012 122.9344997 -17.2460012 107.8522830 122.5476841 -16.5185866
  98.6580012 123.2974997  -4.7460012  98.7290012 123.9484997  -4.0480012
  97.7680012 123.4004997  -5.0810012  98.5473117 123.4005936  -4.6957300
 105.4440012 129.2004997 -13.0880012 105.9180012 129.4954997 -12.3100012
 104.8810012 129.9384997 -13.3210012 105.4327653 129.3406932 -13.0129864
  99.9780012 129.1714997  -3.2120012  99.9850012 129.0354997  -4.1590012
  99.0620012 129.0534997  -2.9600012  99.8551714 129.1369430  -3.3075334
 111.4160012 114.2134997 -16.7100012 110.5160012 114.3524997 -16.4150012
 111.6680012 115.0444997 -17.1120012 111.3268702 114.3449074 -16.7239795
  99.4820012 123.0014997 -14.7360012  99.1900012 123.7694997 -15.2270012
  98.8080012 122.3414997 -14.8990012  99.3509081 123.0174406 -14.8252660
 112.6050012 128.5794997 -18.3340012 112.6790012 129.5184997 -18.1630012
 113.5110012 128.2744997 -18.3900012 112.7375100 128.6666722 -18.3181881
  95.5750012 125.3644997  -5.9210012  95.0740012 125.3364997  -6.7360012
  95.5800012 124.4584997  -5.6120012  95.5071526 125.2382278  -5.9907128
  95.3250012 128.1444997  -9.0370012  96.2710012 128.0004997  -9.0560012
  95.2130012 128.9284997  -8.5000012  95.4392727 128.2308046  -8.9669928
 113.5230012 128.8104997  -3.3550012 113.4740012 127.8554997  -3.3920012
 112.6960012 129.0784997  -2.9540012 113.4044940 128.7158998  -3.3058625
 104.5020012 128.3844997  -4.4790012 104.5890012 129.2104997  -4.0040012
 103.6380012 128.0544997  -4.2300012 104.3971964 128.4529878  -4.3803451
 104.9160012 132.1564997 -14.6730012 104.8410012 132.0354997 -15.6190012
 104.9490012 133.1064997 -14.5540012 104.9101848 132.2682500 -14.7865166
  98.5690012 130.9454997 -12.8920012  98.7220012 130.5974997 -12.0130012
  97.7190012 130.5894997 -13.1470012  98.4748962 130.8496650 -12.8061660
 108.0180012 131.3104997 -17.6710012 108.3930012 130.5664997 -18.1410012
 108.0220012 131.0404997 -16.7520012 108.0698915 131.1721486 -17.6112176
 107.6870012 131.2364997 -14.9210012 106.7510012 131.3364997 -14.7430012
 107.9670012 130.5274997 -14.3430012 107.5968255 131.1542711 -14.8184609
 110.6750012 120.3034997  -2.8750012 110.2680012 120.7844997  -3.5960012
 110.7160012 119.3984997  -3.1830012 110.6248437 120.2469374  -3.0153317
  97.8240012 126.6874997  -4.8780012  98.0400012 126.3264997  -4.0190012
  96.9690012 126.3134997  -5.0880012  97.7379292 126.5874111  -4.7886614
 100.4430012 115.1574997  -8.8830012  99.5810012 115.0704997  -9.2900012
 100.4200012 116.0134997  -8.4550012 100.3220330 115.2612765  -8.8808137
 105.1060012 114.8794997  -5.5080012 105.5260012 114.4644997  -4.7550012
 104.1730012 114.7014997  -5.3910012 105.0373644 114.7985900  -5.3890461
 108.4320012 118.6354997  -4.6550012 107.9180012 118.5094997  -3.8570012
 108.2770012 119.5474997  -4.8990012 108.3406852 118.7416132  -4.5787842
 109.1950012 123.4964997 -18.8930012 109.2370012 123.2734997 -19.8230012
 110.0440012 123.8954997 -18.7030012 109.3155396 123.5199155 -18.9946373
 104.7670012 117.3724997 -18.2230012 104.5140012 117.3914997 -17.3000012
 104.5110012 116.5004997 -18.5240012 104.6977790 117.2572437 -18.1373737
 100.5340012 120.1234997  -7.7880012  99.8920012 120.0824997  -7.0790012
 100.5710012 121.0494997  -8.0250012 100.4511324 120.2431559  -7.7230176
 100.5310012 120.3444997 -12.8760012  99.6380012 120.0034997 -12.9340012
 100.9810012 119.9674997 -13.6310012 100.4697305 120.2468484 -12.9860823
 106.0660012 120.7604997 -14.0590012 105.6570012 121.5754997 -14.3500012
 106.7870012 120.6204997 -14.6730012 106.1074537 120.8532018 -14.1818658
 105.1680012 120.9354997  -2.5710012 104.6060012 120.2314997  -2.2500012
 105.9950012 120.8154997  -2.1030012 105.2027095 120.8227883  -2.4637670
 107.0710012 120.2064997 -11.2450012 106.8760012 120.8114997 -11.9600012
 107.2520012 119.3724997 -11.6790012 107.0687614 120.1766300 -11.4015595
  98.2840012 120.4434997  -5.9210012  98.2460012 120.8434997  -5.0520012
  97.7930012 119.6264997  -5.8300012  98.2124684 120.3878069  -5.7898941
 101.6500012 117.8174997 -19.1220012 101.2190012 117.3724997 -18.3920012
 100.9320012 118.1894997 -19.6340012 101.4939438 117.8068940 -19.0913201
  94.8920012 117.5594997 -12.0700012  95.5230012 117.5304997 -11.3510012
  95.3410012 117.1344997 -12.8000012  95.0390774 117.4980492 -12.0703447
  96.1660012 118.3054997 -16.6460012  96.6400012 118.8964997 -17.2310012
  95.4490012 118.8364997 -16.2990012  96.1339341 118.4580867 -16.6791164
 106.3350012 121.8444997  -6.5730012 106.6580012 121.2134997  -7.2160012
 105.8950012 121.3094997  -5.9130012 106.3196895 121.6858441  -6.5717150
 103.1120012 117.7714997 -11.7890012 102.2010012 117.8284997 -11.5010012
 103.6180012 117.7114997 -10.9790012 103.0555413 117.7711985 -11.6399378
  97.9410012 119.4004997 -12.9630012  97.0510012 119.5004997 -13.3030012
  98.2370012 118.5584997 -13.3090012  97.8592823 119.3003545 -13.0562787
 101.5940012 119.4004997 -15.3060012 102.5250012 119.5294997 -15.1280012
 101.3790012 120.0704997 -15.9560012 101.6924247 119.5086565 -15.3694253
 107.5170012 117.0064997  -8.5250012 106.8410012 117.1374997  -7.8610012
 107.0320012 116.8514997  -9.3350012 107.3587145 117.0034905  -8.5435483
 100.2680012 120.5954997 -17.7390012  99.7250012 120.2154997 -18.4310012
 101.1010012 120.7894997 -18.1680012 100.3064399 120.5698124 -17.8915474
 110.8050012 132.6784997  -2.2480012 111.0050012 133.1024997  -3.0830012
 111.4600012 133.0214997  -1.6410012 110.9210051 132.7829648  -2.2802164
  98.4030012 125.1524997  -2.6400012  99.1350012 125.4064997  -2.0790012
  97.6230012 125.3564997  -2.1250012  98.3978232 125.2149177  -2.4934240
 104.4320012 120.5594997  -9.9020012 104.9970012 120.0124997 -10.4490012
 104.2850012 120.0374997  -9.1140012 104.4892918 120.4142024  -9.8701546
  99.4340012 116.6954997 -13.4840012  99.1170012 115.7934997 -13.5190012
 100.2160012 116.6974997 -14.0370012  99.4962284 116.5721628 -13.5635217
 103.0590012 118.9474997  -7.4880012 102.2230012 119.4014997  -7.3780012
 103.5830012 119.2234997  -6.7360012 103.0154414 119.0469376  -7.3712864
 103.6030012 125.1604997 -15.8040012 102.8580012 124.6534997 -16.1260012
 103.4690012 125.2094997 -14.8570012 103.4828776 125.0976940 -15.7201353
 110.7530012 124.2934997  -7.0170012 111.3950012 124.7504997  -7.5610012
 109.9230012 124.4064997  -7.4800012 110.7285963 124.3712704  -7.1539823
 107.5010012 117.9744997 -17.6040012 106.5620012 118.0864997 -17.7560012
 107.7980012 118.8314997 -17.2980012 107.4127666 118.1056443 -17.5834232
 105.1220012 125.3444997  -4.5670012 104.7770012 124.9634997  -3.7600012
 104.9220012 126.2784997  -4.4950012 105.0478061 125.4185228  -4.4469039
 108.2190012 119.8414997 -15.9440012 109.1110012 119.7044997 -15.6250012
 108.2760012 120.6324997 -16.4800012 108.3486285 119.9296660 -15.9728310
  98.7280012 124.4554997 -10.0340012  99.4730012 124.4534997 -10.6350012
  98.8060012 123.6324997  -9.5520012  98.8405518 124.3439315 -10.0511071
 105.7290012 126.6194997 -16.7780012 105.4330012 127.4454997 -16.3970012
 105.0260012 125.9994997 -16.5820012 105.5934914 126.6488199 -16.6993557
  95.7360012 122.9164997  -4.7190012  95.9590012 122.4984997  -3.8870012
  95.1340012 122.3034997  -5.1420012  95.6851759 122.7764668  -4.6622978
 102.7520012 122.4334997  -2.5060012 102.4560012 122.2674997  -3.4010012
 103.6840012 122.2134997  -2.5170012 102.8374166 122.3810640  -2.6299464
 107.3730012 127.8064997  -4.6160012 106.4720012 127.9894997  -4.8840012
 107.4070012 128.0654997  -3.6950012 107.2543041 127.8665512  -4.5281803
 113.1040012 120.0514997 -16.2490012 112.5500012 119.6554997 -16.9210012
 113.2040012 120.9614997 -16.5270012 113.0417059 120.1203586 -16.3785599
 113.0670012 125.8514997  -3.4120012 112.2160012 126.0894997  -3.7790012
 113.6580012 125.8344997  -4.1650012 113.0302487 125.8818258  -3.5641107
 111.3990012 128.8374997 -15.7840012 111.0260012 128.0114997 -15.4750012
 111.6770012 128.6544997 -16.6810012 111.3855630 128.6997303 -15.8630374
 108.5600012 123.6454997  -8.7630012 107.6310012 123.4134997  -8.7900012
 109.0110012 122.8684997  -9.0930012 108.4939216 123.5087238  -8.8113083
 101.1030012 127.9734997 -12.6300012 101.6300012 128.7464997 -12.8300012
 100.2230012 128.1984997 -12.9310012 101.0561773 128.1098005 -12.6980990
  96.8580012 122.8354997 -18.0430012  97.4740012 123.4624997 -17.6630012
  95.9960012 123.1514997 -17.7710012  96.8257698 122.9639430 -17.9542817
 102.5300012 125.6364997 -13.0530012 102.2890012 126.5614997 -13.0120012
 101.7890012 125.1774997 -12.6570012 102.3968409 125.7011421 -12.9938623
 103.0450012 129.7854997  -6.7380012 103.4070012 130.6404997  -6.9720012
 103.5760012 129.4934997  -5.9980012 103.1664473 129.8631060  -6.6699145
 101.2130012 130.6584997 -13.5080012 100.2630012 130.7634997 -13.4570012
 101.5650012 131.4784997 -13.1630012 101.1304203 130.7838314 -13.4543350
 106.5890012 125.8844997  -7.0380012 106.1630012 125.6574997  -6.2110012
 107.1690012 125.1464997  -7.2200012 106.6091868 125.7535299  -6.9494170
 108.7920012 126.8134997 -17.9640012 109.1450012 126.4334997 -17.1590012
 107.8430012 126.7204997 -17.8770012 108.7120441 126.7489596 -17.8421441
 109.2470012 130.4364997  -4.5680012 108.6460012 129.8814997  -5.0640012
 109.5290012 131.1034997  -5.1940012 109.2028519 130.4506841  -4.7205048
 113.2950012 131.2934997 -17.7630012 114.0390012 131.8794997 -17.9030012
 112.6010012 131.8614997 -17.4290012 113.3030292 131.4505582 -17.7370039
  97.3700012 117.6694997  -5.1610012  96.4770012 118.0084997  -5.2290012
  97.2710012 116.8144997  -4.7430012  97.2344164 117.6002588  -5.1137765
 109.6580012 125.4864997 -15.7370012 109.3800012 124.7584997 -15.1810012
 110.5850012 125.6054997 -15.5320012 109.7453124 125.4028802 -15.6331155
  97.0210012 129.4744997  -6.7260012  97.2380012 128.5424997  -6.7570012
  97.2670012 129.7484997  -5.8430012  97.0839549 129.3840636  -6.6108237
 102.8830012 127.9254997 -19.5170012 103.1220012 127.1774997 -20.0640012
 102.6140012 127.5374997 -18.6840012 102.8793675 127.7706638 -19.4793135
 101.8200012 127.4954997 -17.0600012 101.9660012 126.9754997 -16.2700012
 101.8170012 128.4024997 -16.7540012 101.8395989 127.5468853 -16.9103912
  98.2730012 124.7484997 -16.5500012  97.5870012 125.1004997 -15.9830012
  98.7950012 125.5114997 -16.7970012  98.2496852 124.8998578 -16.5057882
 106.1040012 117.4104997  -6.2710012 106.8030012 117.4844997  -5.6210012
 105.7230012 116.5464997  -6.1170012 106.1481767 117.3037624  -6.1611678
 106.8890012 117.0624997 -15.1740012 107.1090012 117.5344997 -15.9770012
 107.4470012 117.4574997 -14.5040012 106.9944968 117.1804285 -15.1932669
 104.5570012 129.1934997 -16.3110012 103.7410012 129.6904997 -16.2590012
 105.0870012 129.6684997 -16.9510012 104.5169161 129.3257722 -16.3904044
 104.0890012 118.7904997 -14.3390012 104.9010012 119.2954997 -14.2930012
 103.8440012 118.6454997 -13.4250012 104.1670520 118.8400375 -14.2091483
 104.6240012 119.7764997  -5.1540012 104.7430012 120.3504997  -4.3970012
 105.2800012 119.0884997  -5.0400012 104.7289757 119.7621079  -5.0349175
 104.9720012 115.8714997 -13.4010012 104.6260012 116.4894997 -12.7560012
 105.6310012 116.3724997 -13.8820012 105.0137826 116.0235802 -13.3779029
 101.8960012 130.2374997 -16.3290012 102.0560012 131.0364997 -16.8300012
 101.6980012 130.5434997 -15.4440012 101.8911649 130.3884469 -16.2780185
 100.6300012 116.9344997 -16.7140012 100.5470012 117.8234997 -16.3670012
 101.5200012 116.6694997 -16.4820012 100.7389469 117.0201430 -16.6352374
 110.8290012 117.6834997  -4.3190012 109.9120012 117.9464997  -4.4070012
 111.1640012 117.6804997  -5.2160012 110.7489900 117.7190224  -4.4522081
 109.4310012 121.4344997 -10.2240012 108.6330012 121.0194997 -10.5520012
 109.8760012 120.7434997  -9.7330012 109.3819885 121.2843543 -10.2025111
  98.8890012 127.3624997 -17.6530012  99.4810012 128.0614997 -17.3770012
  99.3480012 126.9294997 -18.3730012  99.0321142 127.3997049 -17.7125170
  97.2050012 120.0264997 -18.5370012  97.1600012 120.9654997 -18.3590012
  96.3170012 119.7904997 -18.8070012  97.0788574 120.1231892 -18.5491088
 110.5170012 130.6904997  -8.6010012 110.3620012 131.3684997  -9.2580012
 111.4500012 130.7624997  -8.3980012 110.6218500 130.7930170  -8.6634881
  98.0130012 114.8084997  -9.8640012  97.7840012 114.8674997 -10.7920012
  97.5700012 114.0164997  -9.5580012  97.9218530 114.7095753  -9.9495214
  96.9430012 128.7484997 -13.7040012  96.1110012 129.2214997 -13.6760012
  97.4890012 129.2584997 -14.3020012  96.9029739 128.8821871 -13.7810284
  96.2310012 131.3614997  -2.3740012  96.7720012 131.1444997  -1.6140012
  95.7500012 130.5554997  -2.5630012  96.2399345 131.2229514  -2.2956924
 100.8290012 130.2804997  -0.7530012 101.5960012 129.8214997  -0.4120012
 100.8070012 130.0544997  -1.6830012 100.9311434 130.1870409  -0.8319957
 104.9210012 129.7884997 -19.3780012 104.2770012 129.1574997 -19.0570012
 105.6830012 129.2574997 -19.6100012 104.9358077 129.6302920 -19.3653989
 107.4060012 128.6604997  -2.0240012 107.0550012 127.8044997  -1.7810012
 108.1320012 128.8034997  -1.4170012 107.4560769 128.5625636  -1.9086381
 109.5250012 129.6054997 -19.1440012 109.8080012 128.8114997 -18.6920012
 110.2650012 129.8384997 -19.7050012 109.6637486 129.5282803 -19.1579302
  96.1380012 125.1714997  -1.4190012  96.2820012 124.2694997  -1.7060012
  95.3660012 125.4574997  -1.9070012  96.0533322 125.0868261  -1.5242119
 100.4800012 125.5154997 -19.2870012 100.5440012 124.7214997 -18.7560012
 101.1330012 125.3964997 -19.9770012 100.5770241 125.3907148 -19.3075683
 102.7940012 125.1414997  -1.9870012 102.4650012 125.4124997  -2.8440012
 102.9460012 124.2004997  -2.0740012 102.7694809 125.0513862  -2.1161756
 108.5280012 125.0574997  -4.6030012 109.2740012 125.6454997  -4.7230012
 107.7710012 125.6394997  -4.5400012 108.5277554 125.2167011  -4.6109093
  96.9710012 122.3714997  -1.9990012  97.3790012 121.5144997  -2.1200012
  96.7110012 122.3864997  -1.0780012  96.9917568 122.2560807  -1.8910412
 101.6290012 123.4874997 -16.9810012 101.1690012 123.0034997 -16.2950012
 101.8840012 122.8194997 -17.6170012 101.6004902 123.3308731 -16.9730666
 100.9180012 121.3804997  -4.6250012 100.3000012 122.0554997  -4.3450012
 101.2620012 121.7014997  -5.4580012 100.8799615 121.5162721  -4.6993419
 102.7000012 121.7304997 -18.7190012 102.5200012 121.5764997 -19.6460012
 103.6500012 121.8384997 -18.6740012 102.8037776 121.7240175 -18.8398157
 105.9380012 123.8524997  -1.3480012 106.8910012 123.9354997  -1.3750012
 105.7770012 123.1404997  -0.7280012 106.0466426 123.7676746  -1.2679421
 112.0900012 124.0854997 -19.2730012 111.8160012 123.6604997 -20.0860012
 112.1290012 125.0164997 -19.4900012 112.0577699 124.1532484 -19.4136390
 101.2570012 118.7354997  -3.5430012 101.4070012 118.0064997  -4.1450012
 101.2600012 119.5124997  -4.1020012 101.2779302 118.7407851  -3.7009308
 101.6700012 117.1054997  -6.0500012 102.2060012 117.5564997  -6.7020012
 100.8180012 116.9974997  -6.4730012 101.6282178 117.1526390  -6.1964244
 103.2520012 122.5444997  -5.8110012 104.0020012 122.3884997  -6.3840012
 102.9130012 123.3964997  -6.0860012 103.3088921 122.6382968  -5.9266439
 107.6670012 120.3594997  -0.7820012 107.8600012 119.4284997  -0.8940012
 108.5250012 120.7844997  -0.7920012 107.8093020 120.2896389  -0.7986639
 108.9840012 123.1484997  -2.7050012 108.7030012 123.8574997  -3.2820012
 109.9270012 123.0754997  -2.8560012 109.0729027 123.2357646  -2.8044449
  99.7360012 119.9334997  -1.6310012  98.9690012 119.4014997  -1.8410012
 100.4150012 119.6234997  -2.2310012  99.7227022 119.8187506  -1.7408352
 102.4760012 114.5614997  -5.6190012 102.3770012 115.5084997  -5.7240012
 101.7330012 114.1894997  -6.0940012 102.3620564 114.6405902  -5.6975440
 103.7400012 118.8834997  -2.0550012 103.5040012 118.6634997  -1.1530012
 102.9560012 118.6764997  -2.5650012 103.6018628 118.8254760  -2.0006068
 106.4550012 118.0104997  -2.9790012 105.5080012 118.0424997  -2.8470012
 106.7680012 117.3854997  -2.3260012 106.3675475 117.9303207  -2.8725545
 108.0890012 116.6444997  -0.9740012 107.9930012 115.6924997  -0.9800012
 107.7680012 116.9134997  -0.1140012 108.0324070 116.5504035  -0.8584559
  97.9160012 117.8544997  -1.9270012  98.1280012 117.1474997  -2.5370012
  97.8050012 117.4164997  -1.0830012  97.9299721 117.6987084  -1.8963157
 102.6970012 113.8554997  -2.9470012 103.4090012 113.2154997  -2.9610012
 102.5960012 114.1224997  -3.8610012 102.7807939 113.8039938  -3.0724350
 103.0510012 115.5384997  -0.8940012 102.9190012 115.0624997  -1.7140012
 102.4520012 116.2824997  -0.9490012 102.9519071 115.5739618  -1.0137114
 102.5970012 132.4214997 -17.7170012 103.5300012 132.5794997 -17.5740012
 102.3330012 133.0964997 -18.3420012 102.6889510 132.5343611 -17.7819259
  96.1660012 127.0574997 -18.2350012  97.0800012 127.1364997 -17.9610012
  96.1730012 126.3704997 -18.9010012  96.2921131 126.9753961 -18.2875607
  94.8150012 132.4504997 -13.1570012  94.1680012 131.9884997 -13.6900012
  95.1690012 131.7784997 -12.5750012  94.7743849 132.2964723 -13.1512041
  95.6850012 130.5314997 -11.3530012  95.3500012 129.6514997 -11.1810012
  95.9070012 130.8764997 -10.4880012  95.6691783 130.4577500 -11.2125792
 113.2330012 131.3404997  -8.3720012 113.2120012 131.5254997  -7.4330012
 113.9240012 131.9094997  -8.7130012 113.3234618 131.4426606  -8.2896136
 112.7970012 130.9084997  -5.4500012 112.3090012 130.1724997  -5.8210012
 113.3460012 130.5144997  -4.7720012 112.8044872 130.7546249  -5.4090840
 111.2470012 126.6974997  -0.8120012 110.3810012 126.5924997  -0.4180012
 111.6240012 127.4564997  -0.3660012 111.1793308 126.7856900  -0.6977607
 112.5480012 124.9544997 -15.2980012 113.3980012 125.3754997 -15.1710012
 112.5540012 124.2144997 -14.6910012 112.6651372 124.9120803 -15.1985656
 112.9430012 123.0074997 -13.4740012 112.2160012 122.5284997 -13.0770012
 113.5240012 123.2134997 -12.7420012 112.9219375 122.9697090 -13.3205871
 112.7020012 125.7924997  -8.5270012 113.5350012 125.4144997  -8.8070012
 112.8140012 126.7354997  -8.6460012 112.8312647 125.8682218  -8.5814513
 111.1880012 128.6704997  -6.2200012 110.5410012 128.9954997  -5.5940012
 110.6710012 128.2304997  -6.8940012 111.0294029 128.6555004  -6.2254173
 113.2110012 122.9084997 -17.0830012 112.6890012 123.2654997 -17.8020012
 113.1780012 123.5834997 -16.4050012 113.1351634 123.0485413 -17.0896855
 111.5600012 120.1484997 -18.5320012 111.6560012 120.8154997 -19.2130012
 111.4200012 119.3324997 -19.0140012 111.5542135 120.1294500 -18.6901509
 110.7290012 121.5284997 -12.9110012 110.5790012 120.5834997 -12.9320012
 110.3760012 121.8094997 -12.0680012 110.6606625 121.4370441 -12.7997654
  95.7650012 123.6064997  -8.9010012  95.9490012 123.5244997  -9.8370012
  96.6140012 123.4824997  -8.4770012  95.9050139 123.5785003  -8.9718545
 111.5860012 123.4984997  -3.2730012 112.1690012 122.7644997  -3.0810012
 112.1500012 124.2704997  -3.2260012 111.7419769 123.5024227  -3.2403841
 113.0820012 121.4014997  -2.5880012 112.2190012 121.0224997  -2.7540012
 113.6870012 120.6624997  -2.6620012 113.0455979 121.2498023  -2.6207183
 110.8070012 117.5564997 -19.4150012 111.4180012 117.1854997 -18.7780012
 109.9710012 117.1354997 -19.2190012 110.7775032 117.4487554 -19.3012965
 110.4400012 119.1114997 -14.4490012 110.7200012 118.2044997 -14.3250012
 111.1990012 119.5454997 -14.8380012 110.5809277 119.0460942 -14.4846318
 111.0520012 119.6924997  -9.0130012 111.9850012 119.9044997  -9.0470012
 110.8170012 119.7944997  -8.0910012 111.1478036 119.7352769  -8.8930024
 111.0810012 120.4294997  -6.2370012 110.2380012 120.6974997  -5.8710012
 111.5230012 121.2514997  -6.4480012 111.0254158 120.5773291  -6.2154509
  95.3620012 118.8774997  -2.7600012  96.2820012 118.7554997  -2.5240012
  94.9130012 118.1274997  -2.3710012  95.4271580 118.7593727  -2.6750994
 113.3640012 114.4094997  -0.8840012 113.7140012 113.7554997  -1.4890012
 113.5110012 115.2464997  -1.3230012 113.4318419 114.4331591  -1.0262882
 111.0530012 116.3744997 -14.4010012 111.2360012 115.9254997 -13.5750012
 110.4540012 115.7894997 -14.8640012 110.9970202 116.2339975 -14.3506725
  96.5830012 117.1894997  -9.8690012  97.0290012 116.3974997  -9.5670012
  97.0500012 117.9054997  -9.4380012  96.7070172 117.1780624  -9.7695180
  94.8870012 120.1884997  -8.8000012  95.3790012 119.9674997  -9.5910012
  95.2500012 121.0294997  -8.5190012  95.0033126 120.2718357  -8.8702469
 112.8840012 116.5184997  -2.5340012 111.9660012 116.7894997  -2.5700012
 113.0070012 115.9834997  -3.3190012 112.7751066 116.4832892  -2.6449513
 112.9200012 116.4414997 -17.8730012 113.3320012 115.7204997 -18.3480012
 113.6020012 117.1114997 -17.8140012 113.0685885 116.4332368 -17.9301085
  95.2010012 116.4464997 -14.7460012  94.2760012 116.6554997 -14.8750012
  95.6550012 116.9304997 -15.4350012  95.1357368 116.5405993 -14.8568774
 109.9720012 131.4304997 -12.8000012 110.6240012 131.0834997 -13.4080012
 110.4820012 131.9194997 -12.1540012 110.1302637 131.4490597 -12.7959764
  95.1650012 115.1844997  -6.4010012  94.5000012 114.9384997  -5.7580012
  94.7220012 115.8064997  -6.9790012  95.0140956 115.2348632  -6.3910648
  97.3570012 128.3594997  -2.2570012  96.5360012 128.5344997  -2.7170012
  97.1040012 128.2864997  -1.3360012  97.2106164 128.3735622  -2.1955077
 100.3110012 129.3344997  -5.9980012  99.8860012 130.1434997  -6.2810012
 101.2150012 129.4194997  -6.3000012 100.3750271 129.4568469  -6.0776224
 104.6220012 130.7334997  -3.0390012 104.8070012 130.3994997  -2.1610012
 105.4680012 131.0424997  -3.3610012 104.7617539 130.7296047  -2.9624395
 106.9670012 132.0194997  -3.7950012 107.6440012 131.3864997  -4.0350012
 107.2890012 132.4204997  -2.9880012 107.1031637 131.9871154  -3.7187207
 111.8840012 114.6084997  -4.7150012 111.0720012 114.9334997  -5.1030012
 112.1170012 113.8484997  -5.2480012 111.8043423 114.5502436  -4.8401747
  97.7130012 132.5904997  -5.9510012  96.9920012 133.0304997  -6.4020012
  97.3470012 132.3394997  -5.1020012  97.5649804 132.6167698  -5.8980160
 100.1800012 132.1904997  -6.9210012  99.3150012 132.2624997  -6.5170012
 100.1250012 132.7374997  -7.7050012 100.0542085 132.2742685  -6.9716638
 104.8900012 132.0784997  -7.7460012 104.4340012 132.6074997  -8.4000012
 105.0530012 132.6814997  -7.0200012 104.8495585 132.2324468  -7.7374938
 107.2180012 130.9564997  -6.8010012 106.3130012 131.1214997  -7.0660012
 107.6470012 131.8094997  -6.8660012 107.1520799 131.0944483  -6.8460818
 109.8220012 132.5264997  -6.5060012 109.6400012 133.4424997  -6.7160012
 109.9990012 132.1164997  -7.3520012 109.8210210 132.5964822  -6.6492115
  97.1270012 131.2134997  -9.0410012  97.1090012 130.7884997  -8.1830012
  97.9320012 130.8954997  -9.4490012  97.2333875 131.1123812  -8.9788345
  99.2690012 129.9234997 -10.3860012  99.0500012 129.0074997 -10.2160012
 100.0930012 130.0634997  -9.9200012  99.3504420 129.8170520 -10.2997226
 101.8060012 130.3934997  -9.5370012 102.0190012 129.5054997  -9.8240012
 101.8700012 130.3594997  -8.5830012 101.8438232 130.2673102  -9.4472603
 105.3140012 116.0574997 -10.3930012 104.6400012 115.4284997 -10.1370012
 105.8780012 115.5734997 -10.9960012 105.2979230 115.9058744 -10.4394660
 110.4570012 114.1654997 -10.2800012 111.0610012 114.7124997 -10.7820012
 109.5870012 114.4844997 -10.5200012 110.4221241 114.2835806 -10.3812346
 112.1840012 115.3034997 -11.9470012 112.7960012 114.7894997 -12.4730012
 112.5660012 116.1814997 -11.9230012 112.3194540 115.3517140 -12.0158170
  97.6410012 114.6914997 -12.5710012  96.8640012 114.4574997 -13.0780012
  98.1710012 113.8944997 -12.5620012  97.6062330 114.5516988 -12.6392258
  96.4770012 114.4894997 -16.7670012  96.9160012 115.1004997 -17.3590012
  95.8440012 115.0274997 -16.2930012  96.4514514 114.6459257 -16.7839070
 102.2200012 114.6184997 -12.7570012 103.0950012 115.0064997 -12.7870012
 102.0840012 114.4034997 -11.8350012 102.3213695 114.6425184 -12.6363560
 107.7770012 114.6484997 -11.1080012 107.8530012 114.7434997 -12.0580012
 107.5020012 113.7404997 -10.9790012 107.7502321 114.5387867 -11.2204921
 109.1300012 114.6744997 -15.4160012 108.4280012 115.2894997 -15.6250012
 108.6860012 113.8364997 -15.2850012 108.9736330 114.6455783 -15.4269672
  96.3780012 130.4374997 -15.8690012  95.6930012 130.3994997 -16.5370012
  96.3820012 131.3504997 -15.5810012  96.2848193 130.5557016 -15.9214716
  98.3380012 116.4054997 -18.3250012  98.8300012 115.7754997 -18.8520012
  98.9620012 116.7014997 -17.6610012  98.4895446 116.3593199 -18.3074020
 103.3640012 116.6984997 -15.8680012 103.5420012 116.0524997 -15.1850012
 103.3110012 117.5324997 -15.4000012 103.3811829 116.7227985 -15.7114060
 105.2430012 131.6474997 -17.4720012 106.1090012 132.0134997 -17.6500012
 104.9960012 131.2074997 -18.2860012 105.3282392 131.6381756 -17.6063711
 111.9520012 131.2104997 -14.7930012 111.7570012 130.4624997 -15.3580012
 111.9130012 131.9684997 -15.3760012 111.9200380 131.2106099 -14.9491616
  97.5990012 115.2054997  -3.0530012  97.2330012 114.4404997  -2.6100012
  98.5120012 115.2344997  -2.7660012  97.6722790 115.1047224  -2.9535930
  99.5720012 114.5564997  -1.5170012 100.4700012 114.2824997  -1.7020012
  99.1850012 113.8134997  -1.0530012  99.6426612 114.4185914  -1.4796357
  98.1960012 131.3574997 -18.8440012  97.9290012 131.6444997 -17.9710012
  98.9680012 130.8114997 -18.6920012  98.2637488 131.3230294 -18.7038950
 107.9930012 113.8884997  -1.3350012 108.0700012 113.4624997  -0.4810012
 108.8870012 113.9024997  -1.6780012 108.1243428 113.8320879  -1.2644690
 111.1690012 129.9614997  -2.6430012 110.3870012 129.7754997  -3.1620012
 111.0970012 130.8904997  -2.4250012 111.0521777 130.0616492  -2.6845952
 125.5750012 123.8474997 -12.6120012 125.6640012 124.7914997 -12.7440012
 124.9370012 123.5724997 -13.2700012 125.5009081 123.9394830 -12.7190386
 124.5080012 123.1024997  -9.1930012 124.4700012 122.4564997  -8.4880012
 124.1860012 122.6364997  -9.9640012 124.4592333 122.9509408  -9.2007022
 116.8770012 122.7174997  -7.6000012 116.9180012 122.0914997  -6.8770012
 117.5800012 123.3414997  -7.4180012 116.9776363 122.7161196  -7.4763956
 128.2140012 126.0414997 -10.8920012 127.7740012 125.3214997 -10.4410012
 128.2010012 126.7624997 -10.2620012 128.1520226 126.0403731 -10.7451506
 117.8000012 127.1674997  -9.0650012 117.4310012 126.3654997  -9.4350012
 118.7410012 126.9984997  -9.0190012 117.8767289 127.0350153  -9.1093684
 114.4100012 120.8274997 -13.6720012 113.9630012 121.6734997 -13.6910012
 113.8490012 120.2474997 -14.1880012 114.2729900 120.8649916 -13.7443199
 115.1210012 122.9894997 -11.5460012 115.3340012 122.2194997 -11.0190012
 115.8590012 123.0784997 -12.1500012 115.2498496 122.8961394 -11.5554700
 125.3260012 131.1464997 -10.6790012 125.9460012 130.4694997 -10.9530012
 125.1180012 130.9284997  -9.7710012 125.3826904 131.0243870 -10.5936635
 122.8980012 125.5354997  -8.7870012 123.2020012 124.8494997  -9.3820012
 123.6190012 125.6534997  -8.1690012 123.0370671 125.4576305  -8.7848184
 131.5610012 117.1364997  -7.9260012 131.6100012 117.7464997  -7.1900012
 131.9860012 117.5974997  -8.6490012 131.6251824 117.2823741  -7.9229795
 126.0390012 119.9294997  -8.4590012 126.1810012 118.9834997  -8.4390012
 125.9320012 120.1364997  -9.3880012 126.0439864 119.8279534  -8.5817661
 119.1930012 118.0304997 -11.1870012 119.2370012 118.8904997 -11.6050012
 118.7360012 117.4784997 -11.8210012 119.1372185 118.0735799 -11.3299701
 126.9160012 118.1614997 -12.7860012 127.5620012 117.8324997 -12.1610012
 127.4260012 118.6794997 -13.4090012 127.0734264 118.1864611 -12.7846138
 115.8140012 120.4274997 -10.4250012 116.4670012 119.8774997  -9.9930012
 115.8380012 120.1534997 -11.3420012 115.9066683 120.3151466 -10.4897877
 120.9700012 121.9774997 -11.2100012 121.5860012 121.4514997 -10.7000012
 120.3840012 121.3374997 -11.6130012 120.9750810 121.8189208 -11.1946827
 131.9520012 118.6144997  -5.6900012 131.2640012 119.2724997  -5.7860012
 131.9680012 118.4174997  -4.7540012 131.8598525 118.6780462  -5.5765192
 118.0040012 116.9484997  -7.1130012 117.7850012 117.4784997  -7.8790012
 117.3360012 117.1754997  -6.4660012 117.8837600 117.0516906  -7.1303621
 125.3730012 126.4484997 -13.5690012 125.0770012 126.1264997 -14.4200012
 125.0480012 127.3484997 -13.5280012 125.2886371 126.5260215 -13.6798199
 120.5730012 124.6244997  -6.8260012 119.8330012 125.2224997  -6.7220012
 121.2870012 125.1784997  -7.1410012 120.5682237 124.7812831  -6.8543535
 128.6800012 117.4524997 -10.8060012 128.4640012 116.6864997 -10.2730012
 129.3350012 117.9244997 -10.2930012 128.7390632 117.4115889 -10.6637139
 117.5970012 118.8404997  -9.1610012 118.2110012 119.4734997  -8.7870012
 118.1090012 118.3684997  -9.8170012 117.7502296 118.8632370  -9.1985748
 118.9800012 126.5884997  -6.0380012 118.9750012 127.4684997  -6.4160012
 118.1270012 126.5054997  -5.6130012 118.8639464 126.6976117  -6.0322093
 115.1010012 126.2594997 -15.2560012 114.8290012 126.4884997 -16.1450012
 115.1470012 127.0974997 -14.7960012 115.0700094 126.4041213 -15.3154303
 128.7260012 127.8814997  -8.5440012 127.7850012 127.9394997  -8.3820012
 129.0030012 128.7874997  -8.6810012 128.6344679 128.0119443  -8.5403185
 129.0270012 116.1674997  -7.1260012 128.2910012 116.7784997  -7.1640012
 129.7100012 116.5824997  -7.6530012 129.0186541 116.3071374  -7.2024168
 122.0300012 114.2544997  -9.6600012 121.9130012 113.3054997  -9.7150012
 121.1750012 114.5864997  -9.3870012 121.8983733 114.1695409  -9.6306103
 126.9780012 129.6624997 -11.9180012 127.4040012 128.9554997 -12.4030012
 127.2950012 130.4634997 -12.3350012 127.0791019 129.6740994 -12.0406870
 128.1380012 127.5634997 -13.4100012 127.8800012 126.8734997 -14.0210012
 128.2090012 127.1204997 -12.5640012 128.1122856 127.4092124 -13.3793115
 129.8240012 126.1294997  -4.9320012 129.9640012 125.5384997  -5.6720012
 129.9910012 127.0024997  -5.2890012 129.8656778 126.1666426  -5.0813035
 124.2970012 123.0914997 -15.1600012 123.5850012 123.6264997 -15.5120012
 124.9880012 123.1474997 -15.8200012 124.2930132 123.1722543 -15.2973711
 124.3500012 121.5494997 -18.1210012 125.0510012 121.5714997 -17.4700012
 124.6530012 120.9214997 -18.7770012 124.4867830 121.4676566 -18.1206289
 131.6660012 122.4694997  -6.8660012 131.0130012 123.1644997  -6.7770012
 132.1310012 122.6794997  -7.6760012 131.6395390 122.5929425  -6.9633117
 127.7020012 123.3014997 -14.2080012 126.9700012 123.5294997 -13.6350012
 128.1500012 122.5874997 -13.7530012 127.6623095 123.2362571 -14.0680881
 127.6000012 121.4754997  -5.1410012 127.6800012 122.2384997  -4.5690012
 126.9980012 121.7544997  -5.8310012 127.5295756 121.6177134  -5.1559411
 119.3480012 123.9314997 -12.3260012 119.0170012 123.5614997 -13.1440012
 119.9360012 123.2614997 -11.9790012 119.3821873 123.7901156 -12.3911898
 120.7140012 127.3594997  -9.6440012 120.6200012 126.7814997 -10.4010012
 121.4440012 126.9884997  -9.1480012 120.7997981 127.2302390  -9.6805835
 119.7140012 122.7004997  -8.6920012 120.2800012 122.8214997  -9.4550012
 120.0330012 123.3374997  -8.0530012 119.8345786 122.8031884  -8.7099960
 126.0230012 128.2034997  -7.9580012 125.7830012 128.8654997  -7.3100012
 125.8250012 127.3694997  -7.5330012 125.9633808 128.1813134  -7.8118476
 120.5940012 127.0994997  -3.9750012 120.2830012 127.8814997  -3.5200012
 119.9440012 126.9464997  -4.6610012 120.4635558 127.1859105  -4.0054129
 126.5730012 122.4634997 -16.5230012 127.1530012 122.6134997 -15.7760012
 126.9870012 122.9344997 -17.2460012 126.7082830 122.5476841 -16.5185866
 117.5140012 123.2974997  -4.7460012 117.5850012 123.9484997  -4.0480012
 116.6240012 123.4004997  -5.0810012 117.4033117 123.4005936  -4.6957300
 124.3000012 129.2004997 -13.0880012 124.7740012 129.4954997 -12.3100012
 123.7370012 129.9384997 -13.3210012 124.2887653 129.3406932 -13.0129864
 118.8340012 129.1714997  -3.2120012 118.8410012 129.0354997  -4.1590012
 117.9180012 129.0534997  -2.9600012 118.7111714 129.1369430  -3.3075334
 130.2720012 114.2134997 -16.7100012 129.3720012 114.3524997 -16.4150012
 130.5240012 115.0444997 -17.1120012 130.1828702 114.3449074 -16.7239795
 118.3380012 123.0014997 -14.7360012 118.0460012 123.7694997 -15.2270012
 117.6640012 122.3414997 -14.8990012 118.2069081 123.0174406 -14.8252660
 131.4610012 128.5794997 -18.3340012 131.5350012 129.5184997 -18.1630012
 132.3670012 128.2744997 -18.3900012 131.5935100 128.6666722 -18.3181881
 114.4310012 125.3644997  -5.9210012 113.9300012 125.3364997  -6.7360012
 114.4360012 124.4584997  -5.6120012 114.3631526 125.2382278  -5.9907128
 114.1810012 128.1444997  -9.0370012 115.1270012 128.0004997  -9.0560012
 114.0690012 128.9284997  -8.5000012 114.2952727 128.2308046  -8.9669928
 132.3790012 128.8104997  -3.3550012 132.3300012 127.8554997  -3.3920012
 131.5520012 129.0784997  -2.9540012 132.2604940 128.7158998  -3.3058625
 123.3580012 128.3844997  -4.4790012 123.4450012 129.2104997  -4.0040012
 122.4940012 128.0544997  -4.2300012 123.2531964 128.4529878  -4.3803451
 123.7720012 132.1564997 -14.6730012 123.6970012 132.0354997 -15.6190012
 123.8050012 133.1064997 -14.5540012 123.7661848 132.2682500 -14.7865166
 117.4250012 130.9454997 -12.8920012 117.5780012 130.5974997 -12.0130012
 116.5750012 130.5894997 -13.1470012 117.3308962 130.8496650 -12.8061660
 126.8740012 131.3104997 -17.6710012 127.2490012 130.5664997 -18.1410012
 126.8780012 131.0404997 -16.7520012 126.9258915 131.1721486 -17.6112176
 126.5430012 131.2364997 -14.9210012 125.6070012 131.3364997 -14.7430012
 126.8230012 130.5274997 -14.3430012 126.4528255 131.1542711 -14.8184609
 129.5310012 120.3034997  -2.8750012 129.1240012 120.7844997  -3.5960012
 129.5720012 119.3984997  -3.1830012 129.4808437 120.2469374  -3.0153317
 116.6800012 126.6874997  -4.8780012 116.8960012 126.3264997  -4.0190012
 115.8250012 126.3134997  -5.0880012 116.5939292 126.5874111  -4.7886614
 119.2990012 115.1574997  -8.8830012 118.4370012 115.0704997  -9.2900012
 119.2760012 116.0134997  -8.4550012 119.1780330 115.2612765  -8.8808137
 123.9620012 114.8794997  -5.5080012 124.3820012 114.4644997  -4.7550012
 123.0290012 114.7014997  -5.3910012 123.8933644 114.7985900  -5.3890461
 127.2880012 118.6354997  -4.6550012 126.7740012 118.5094997  -3.8570012
 127.1330012 119.5474997  -4.8990012 127.1966852 118.7416132  -4.5787842
 128.0510012 123.4964997 -18.8930012 128.0930012 123.2734997 -19.8230012
 128.9000012 123.8954997 -18.7030012 128.1715396 123.5199155 -18.9946373
 123.6230012 117.3724997 -18.2230012 123.3700012 117.3914997 -17.3000012
 123.3670012 116.5004997 -18.5240012 123.5537790 117.2572437 -18.1373737
 119.3900012 120.1234997  -7.7880012 118.7480012 120.0824997  -7.0790012
 119.4270012 121.0494997  -8.0250012 119.3071324 120.2431559  -7.7230176
 119.3870012 120.3444997 -12.8760012 118.4940012 120.0034997 -12.9340012
 119.8370012 119.9674997 -13.6310012 119.3257305 120.2468484 -12.9860823
 124.9220012 120.7604997 -14.0590012 124.5130012 121.5754997 -14.3500012
 125.6430012 120.6204997 -14.6730012 124.9634537 120.8532018 -14.1818658
 124.0240012 120.9354997  -2.5710012 123.4620012 120.2314997  -2.2500012
 124.8510012 120.8154997  -2.1030012 124.0587095 120.8227883  -2.4637670
 125.9270012 120.2064997 -11.2450012 125.7320012 120.8114997 -11.9600012
 126.1080012 119.3724997 -11.6790012 125.9247614 120.1766300 -11.4015595
 117.1400012 120.4434997  -5.9210012 117.1020012 120.8434997  -5.0520012
 116.6490012 119.6264997  -5.8300012 117.0684684 120.3878069  -5.7898941
 120.5060012 117.8174997 -19.1220012 120.0750012 117.3724997 -18.3920012
 119.7880012 118.1894997 -19.6340012 120.3499438 117.8068940 -19.0913201
 113.7480012 117.5594997 -12.0700012 114.3790012 117.5304997 -11.3510012
 114.1970012 117.1344997 -12.8000012 113.8950774 117.4980492 -12.0703447
 115.0220012 118.3054997 -16.6460012 115.4960012 118.8964997 -17.2310012
 114.3050012 118.8364997 -16.2990012 114.9899341 118.4580867 -16.6791164
 125.1910012 121.8444997  -6.5730012 125.5140012 121.2134997  -7.2160012
 124.7510012 121.3094997  -5.9130012 125.1756895 121.6858441  -6.5717150
 121.9680012 117.7714997 -11.7890012 121.0570012 117.8284997 -11.5010012
 122.4740012 117.7114997 -10.9790012 121.9115413 117.7711985 -11.6399378
 116.7970012 119.4004997 -12.9630012 115.9070012 119.5004997 -13.3030012
 117.0930012 118.5584997 -13.3090012 116.7152823 119.3003545 -13.0562787
 120.4500012 119.4004997 -15.3060012 121.3810012 119.5294997 -15.1280012
 120.2350012 120.0704997 -15.9560012 120.5484247 119.5086565 -15.3694253
 126.3730012 117.0064997  -8.5250012 125.6970012 117.1374997  -7.8610012
 125.8880012 116.8514997  -9.3350012 126.2147145 117.0034905  -8.5435483
 119.1240012 120.5954997 -17.7390012 118.5810012 120.2154997 -18.4310012
 119.9570012 120.7894997 -18.1680012 119.1624399 120.5698124 -17.8915474
 129.6610012 132.6784997  -2.2480012 129.8610012 133.1024997  -3.0830012
 130.3160012 133.0214997  -1.6410012 129.7770051 132.7829648  -2.2802164
 117.2590012 125.1524997  -2.6400012 117.9910012 125.4064997  -2.0790012
 116.4790012 125.3564997  -2.1250012 117.2538232 125.2149177  -2.4934240
 123.2880012 120.5594997  -9.9020012 123.8530012 120.0124997 -10.4490012
 123.1410012 120.0374997  -9.1140012 123.3452918 120.4142024  -9.8701546
 118.2900012 116.6954997 -13.4840012 117.9730012 115.7934997 -13.5190012
 119.0720012 116.6974997 -14.0370012 118.3522284 116.5721628 -13.5635217
 121.9150012 118.9474997  -7.4880012 121.0790012 119.4014997  -7.3780012
 122.4390012 119.2234997  -6.7360012 121.8714414 119.0469376  -7.3712864
 122.4590012 125.1604997 -15.8040012 121.7140012 124.6534997 -16.1260012
 122.3250012 125.2094997 -14.8570012 122.3388776 125.0976940 -15.7201353
 129.6090012 124.2934997  -7.0170012 130.2510012 124.7504997  -7.5610012
 128.7790012 124.4064997  -7.4800012 129.5845963 124.3712704  -7.1539823
 126.3570012 117.9744997 -17.6040012 125.4180012 118.0864997 -17.7560012
 126.6540012 118.8314997 -17.2980012 126.2687666 118.1056443 -17.5834232
 123.9780012 125.3444997  -4.5670012 123.6330012 124.9634997  -3.7600012
 123.7780012 126.2784997  -4.4950012 123.9038061 125.4185228  -4.4469039
 127.0750012 119.8414997 -15.9440012 127.9670012 119.7044997 -15.6250012
 127.1320012 120.6324997 -16.4800012 127.2046285 119.9296660 -15.9728309
 117.5840012 124.4554997 -10.0340012 118.3290012 124.4534997 -10.6350012
 117.6620012 123.6324997  -9.5520012 117.6965518 124.3439315 -10.0511071
 124.5850012 126.6194997 -16.7780012 124.2890012 127.4454997 -16.3970012
 123.8820012 125.9994997 -16.5820012 124.4494914 126.6488199 -16.6993557
 114.5920012 122.9164997  -4.7190012 114.8150012 122.4984997  -3.8870012
 113.9900012 122.3034997  -5.1420012 114.5411759 122.7764668  -4.6622978
 121.6080012 122.4334997  -2.5060012 121.3120012 122.2674997  -3.4010012
 122.5400012 122.2134997  -2.5170012 121.6934166 122.3810640  -2.6299464
 126.2290012 127.8064997  -4.6160012 125.3280012 127.9894997  -4.8840012
 126.2630012 128.0654997  -3.6950012 126.1103041 127.8665512  -4.5281803
 131.9600012 120.0514997 -16.2490012 131.4060012 119.6554997 -16.9210012
 132.0600012 120.9614997 -16.5270012 131.8977059 120.1203586 -16.3785599
 131.9230012 125.8514997  -3.4120012 131.0720012 126.0894997  -3.7790012
 132.5140012 125.8344997  -4.1650012 131.8862487 125.8818258  -3.5641107
 130.2550012 128.8374997 -15.7840012 129.8820012 128.0114997 -15.4750012
 130.5330012 128.6544997 -16.6810012 130.2415630 128.6997303 -15.8630374
 127.4160012 123.6454997  -8.7630012 126.4870012 123.4134997  -8.7900012
 127.8670012 122.8684997  -9.0930012 127.3499216 123.5087238  -8.8113083
 119.9590012 127.9734997 -12.6300012 120.4860012 128.7464997 -12.8300012
 119.0790012 128.1984997 -12.9310012 119.9121773 128.1098005 -12.6980990
 115.7140012 122.8354997 -18.0430012 116.3300012 123.4624997 -17.6630012
 114.8520012 123.1514997 -17.7710012 115.6817698 122.9639430 -17.9542817
 121.3860012 125.6364997 -13.0530012 121.1450012 126.5614997 -13.0120012
 120.6450012 125.1774997 -12.6570012 121.2528409 125.7011421 -12.9938623
 121.9010012 129.7854997  -6.7380012 122.2630012 130.6404997  -6.9720012
 122.4320012 129.4934997  -5.9980012 122.0224473 129.8631060  -6.6699145
 120.0690012 130.6584997 -13.5080012 119.1190012 130.7634997 -13.4570012
 120.4210012 131.4784997 -13.1630012 119.9864203 130.7838314 -13.4543350
 125.4450012 125.8844997  -7.0380012 125.0190012 125.6574997  -6.2110012
 126.0250012 125.1464997  -7.2200012 125.4651868 125.7535299  -6.9494170
 127.6480012 126.8134997 -17.9640012 128.0010012 126.4334997 -17.1590012
 126.6990012 126.7204997 -17.8770012 127.5680441 126.7489596 -17.8421441
 128.1030012 130.4364997  -4.5680012 127.5020012 129.8814997  -5.0640012
 128.3850012 131.1034997  -5.1940012 128.0588519 130.4506841  -4.7205048
 132.1510012 131.2934997 -17.7630012 132.8950012 131.8794997 -17.9030012
 131.4570012 131.8614997 -17.4290012 132.1590292 131.4505582 -17.7370039
 116.2260012 117.6694997  -5.1610012 115.3330012 118.0084997  -5.2290012
 116.1270012 116.8144997  -4.7430012 116.0904164 117.6002588  -5.1137765
 128.5140012 125.4864997 -15.7370012 128.2360012 124.7584997 -15.1810012
 129.4410012 125.6054997 -15.5320012 128.6013124 125.4028802 -15.6331155
 115.8770012 129.4744997  -6.7260012 116.0940012 128.5424997  -6.7570012
 116.1230012 129.7484997  -5.8430012 115.9399549 129.3840636  -6.6108237
 121.7390012 127.9254997 -19.5170012 121.9780012 127.1774997 -20.0640012
 121.4700012 127.5374997 -18.6840012 121.7353675 127.7706638 -19.4793135
 120.6760012 127.4954997 -17.0600012 120.8220012 126.9754997 -16.2700012
 120.6730012 128.4024997 -16.7540012 120.6955989 127.5468853 -16.9103912
 117.1290012 124.7484997 -16.5500012 116.4430012 125.1004997 -15.9830012
 117.6510012 125.5114997 -16.7970012 117.1056852 124.8998578 -16.5057882
 124.9600012 117.4104997  -6.2710012 125.6590012 117.4844997  -5.6210012
 124.5790012 116.5464997  -6.1170012 125.0041767 117.3037624  -6.1611678
 125.7450012 117.0624997 -15.1740012 125.9650012 117.5344997 -15.9770012
 126.3030012 117.4574997 -14.5040012 125.8504968 117.1804285 -15.1932669
 123.4130012 129.1934997 -16.3110012 122.5970012 129.6904997 -16.2590012
 123.9430012 129.6684997 -16.9510012 123.3729161 129.3257722 -16.3904044
 122.9450012 118.7904997 -14.3390012 123.7570012 119.2954997 -14.2930012
 122.7000012 118.6454997 -13.4250012 123.0230520 118.8400375 -14.2091483
 123.4800012 119.7764997  -5.1540012 123.5990012 120.3504997  -4.3970012
 124.1360012 119.0884997  -5.0400012 123.5849757 119.7621079  -5.0349175
 123.8280012 115.8714997 -13.4010012 123.4820012 116.4894997 -12.7560012
 124.4870012 116.3724997 -13.8820012 123.8697826 116.0235802 -13.3779029
 120.7520012 130.2374997 -16.3290012 120.9120012 131.0364997 -16.8300012
 120.5540012 130.5434997 -15.4440012 120.7471649 130.3884469 -16.2780185
 119.4860012 116.9344997 -16.7140012 119.4030012 117.8234997 -16.3670012
 120.3760012 116.6694997 -16.4820012 119.5949469 117.0201430 -16.6352374
 129.6850012 117.6834997  -4.3190012 128.7680012 117.9464997  -4.4070012
 130.0200012 117.6804997  -5.2160012 129.6049900 117.7190224  -4.4522081
 128.2870012 121.4344997 -10.2240012 127.4890012 121.0194997 -10.5520012
 128.7320012 120.7434997  -9.7330012 128.2379885 121.2843543 -10.2025111
 117.7450012 127.3624997 -17.6530012 118.3370012 128.0614997 -17.3770012
 118.2040012 126.9294997 -18.3730012 117.8881142 127.3997049 -17.7125170
 116.0610012 120.0264997 -18.5370012 116.0160012 120.9654997 -18.3590012
 115.1730012 119.7904997 -18.8070012 115.9348574 120.1231892 -18.5491088
 129.3730012 130.6904997  -8.6010012 129.2180012 131.3684997  -9.2580012
 130.3060012 130.7624997  -8.3980012 129.4778500 130.7930170  -8.6634881
 116.8690012 114.8084997  -9.8640012 116.6400012 114.8674997 -10.7920012
 116.4260012 114.0164997  -9.5580012 116.7778530 114.7095753  -9.9495214
 115.7990012 128.7484997 -13.7040012 114.9670012 129.2214997 -13.6760012
 116.3450012 129.2584997 -14.3020012 115.7589739 128.8821871 -13.7810284
 115.0870012 131.3614997  -2.3740012 115.6280012 131.1444997  -1.6140012
 114.6060012 130.5554997  -2.5630012 115.0959345 131.2229514  -2.2956924
 119.6850012 130.2804997  -0.7530012 120.4520012 129.8214997  -0.4120012
 119.6630012 130.0544997  -1.6830012 119.7871434 130.1870409  -0.8319957
 123.7770012 129.7884997 -19.3780012 123.1330012 129.1574997 -19.0570012
 124.5390012 129.2574997 -19.6100012 123.7918077 129.6302920 -19.3653989
 126.2620012 128.6604997  -2.0240012 125.9110012 127.8044997  -1.7810012
 126.9880012 128.8034997  -1.4170012 126.3120769 128.5625636  -1.9086381
 128.3810012 129.6054997 -19.1440012 128.6640012 128.8114997 -18.6920012
 129.1210012 129.8384997 -19.7050012 128.5197486 129.5282803 -19.1579302
 114.9940012 125.1714997  -1.4190012 115.1380012 124.2694997  -1.7060012
 114.2220012 125.4574997  -1.9070012 114.9093322 125.0868261  -1.5242119
 119.3360012 125.5154997 -19.2870012 119.4000012 124.7214997 -18.7560012
 119.9890012 125.3964997 -19.9770012 119.4330241 125.3907148 -19.3075683
 121.6500012 125.1414997  -1.9870012 121.3210012 125.4124997  -2.8440012
 121.8020012 124.2004997  -2.0740012 121.6254809 125.0513862  -2.1161756
 127.3840012 125.0574997  -4.6030012 128.1300012 125.6454997  -4.7230012
 126.6270012 125.6394997  -4.5400012 127.3837554 125.2167011  -4.6109093
 115.8270012 122.3714997  -1.9990012 116.2350012 121.5144997  -2.1200012
 115.5670012 122.3864997  -1.0780012 115.8477568 122.2560807  -1.8910412
 120.4850012 123.4874997 -16.9810012 120.0250012 123.0034997 -16.2950012
 120.7400012 122.8194997 -17.6170012 120.4564902 123.3308731 -16.9730666
 119.7740012 121.3804997  -4.6250012 119.1560012 122.0554997  -4.3450012
 120.1180012 121.7014997  -5.4580012 119.7359615 121.5162721  -4.6993419
 121.5560012 121.7304997 -18.7190012 121.3760012 121.5764997 -19.6460012
 122.5060012 121.8384997 -18.6740012 121.6597776 121.7240175 -18.8398157
 124.7940012 123.8524997  -1.3480012 125.7470012 123.9354997  -1.3750012
 124.6330012 123.1404997  -0.7280012 124.9026426 123.7676746  -1.2679421
 130.9460012 124.0854997 -19.2730012 130.6720012 123.6604997 -20.0860012
 130.9850012 125.0164997 -19.4900012 130.9137699 124.1532484 -19.4136390
 120.1130012 118.7354997  -3.5430012 120.2630012 118.0064997  -4.1450012
 120.1160012 119.5124997  -4.1020012 120.1339302 118.7407851  -3.7009308
 120.5260012 117.1054997  -6.0500012 121.0620012 117.5564997  -6.7020012
 119.6740012 116.9974997  -6.4730012 120.4842178 117.1526390  -6.1964244
 122.1080012 122.5444997  -5.8110012 122.8580012 122.3884997  -6.3840012
 121.7690012 123.3964997  -6.0860012 122.1648921 122.6382968  -5.9266439
 126.5230012 120.3594997  -0.7820012 126.7160012 119.4284997  -0.8940012
 127.3810012 120.7844997  -0.7920012 126.6653020 120.2896389  -0.7986639
 127.8400012 123.1484997  -2.7050012 127.5590012 123.8574997  -3.2820012
 128.7830012 123.0754997  -2.8560012 127.9289027 123.2357646  -2.8044449
 118.5920012 119.9334997  -1.6310012 117.8250012 119.4014997  -1.8410012
 119.2710012 119.6234997  -2.2310012 118.5787022 119.8187506  -1.7408352
 121.3320012 114.5614997  -5.6190012 121.2330012 115.5084997  -5.7240012
 120.5890012 114.1894997  -6.0940012 121.2180564 114.6405902  -5.6975440
 122.5960012 118.8834997  -2.0550012 122.3600012 118.6634997  -1.1530012
 121.8120012 118.6764997  -2.5650012 122.4578628 118.8254760  -2.0006068
 125.3110012 118.0104997  -2.9790012 124.3640012 118.0424997  -2.8470012
 125.6240012 117.3854997  -2.3260012 125.2235475 117.9303207  -2.8725545
 126.9450012 116.6444997  -0.9740012 126.8490012 115.6924997  -0.9800012
 126.6240012 116.9134997  -0.1140012 126.8884070 116.5504035  -0.8584559
 116.7720012 117.8544997  -1.9270012 116.9840012 117.1474997  -2.5370012
 116.6610012 117.4164997  -1.0830012 116.7859721 117.6987084  -1.8963157
 121.5530012 113.8554997  -2.9470012 122.2650012 113.2154997  -2.9610012
 121.4520012 114.1224997  -3.8610012 121.6367939 113.8039938  -3.0724350
 121.9070012 115.5384997  -0.8940012 121.7750012 115.0624997  -1.7140012
 121.3080012 116.2824997  -0.9490012 121.8079071 115.5739618  -1.0137114
 121.4530012 132.4214997 -17.7170012 122.3860012 132.5794997 -17.5740012
 121.1890012 133.0964997 -18.3420012 121.5449510 132.5343611 -17.7819259
 115.0220012 127.0574997 -18.2350012 115.9360012 127.1364997 -17.9610012
 115.0290012 126.3704997 -18.9010012 115.1481131 126.9753961 -18.2875607
 113.6710012 132.4504997 -13.1570012 113.0240012 131.9884997 -13.6900012
 114.0250012 131.7784997 -12.5750012 113.6303849 132.2964723 -13.1512041
 114.5410012 130.5314997 -11.3530012 114.2060012 129.6514997 -11.1810012
 114.7630012 130.8764997 -10.4880012 114.5251783 130.4577500 -11.2125792
 132.0890012 131.3404997  -8.3720012 132.0680012 131.5254997  -7.4330012
 132.7800012 131.9094997  -8.7130012 132.1794618 131.4426606  -8.2896136
 131.6530012 130.9084997  -5.4500012 131.1650012 130.1724997  -5.8210012
 132.2020012 130.5144997  -4.7720012 131.6604872 130.7546249  -5.4090840
 130.1030012 126.6974997  -0.8120012 129.2370012 126.5924997  -0.4180012
 130.4800012 127.4564997  -0.3660012 130.0353308 126.7856900  -0.6977607
 131.4040012 124.9544997 -15.2980012 132.2540012 125.3754997 -15.1710012
 131.4100012 124.2144997 -14.6910012 131.5211372 124.9120803 -15.1985656
 131.7990012 123.0074997 -13.4740012 131.0720012 122.5284997 -13.0770012
 132.3800012 123.2134997 -12.7420012 131.7779375 122.9697090 -13.3205871
 131.5580012 125.7924997  -8.5270012 132.3910012 125.4144997  -8.8070012
 131.6700012 126.7354997  -8.6460012 131.6872647 125.8682218  -8.5814513
 130.0440012 128.6704997  -6.2200012 129.3970012 128.9954997  -5.5940012
 129.5270012 128.2304997  -6.8940012 129.8854029 128.6555004  -6.2254173
 132.0670012 122.9084997 -17.0830012 131.5450012 123.2654997 -17.8020012
 132.0340012 123.5834997 -16.4050012 131.9911634 123.0485413 -17.0896855
 130.4160012 120.1484997 -18.5320012 130.5120012 120.8154997 -19.2130012
 130.2760012 119.3324997 -19.0140012 130.4102135 120.1294500 -18.6901509
 129.5850012 121.5284997 -12.9110012 129.4350012 120.5834997 -12.9320012
 129.2320012 121.8094997 -12.0680012 129.5166625 121.4370441 -12.7997654
 114.6210012 123.6064997  -8.9010012 114.8050012 123.5244997  -9.8370012
 115.4700012 123.4824997  -8.4770012 114.7610139 123.5785003  -8.9718545
 130.4420012 123.4984997  -3.2730012 131.0250012 122.7644997  -3.0810012
 131.0060012 124.2704997  -3.2260012 130.5979769 123.5024227  -3.2403841
 131.9380012 121.4014997  -2.5880012 131.0750012 121.0224997  -2.7540012
 132.5430012 120.6624997  -2.6620012 131.9015979 121.2498023  -2.6207183
 129.6630012 117.5564997 -19.4150012 130.2740012 117.1854997 -18.7780012
 128.8270012 117.1354997 -19.2190012 129.6335032 117.4487554 -19.3012965
 129.2960012 119.1114997 -14.4490012 129.5760012 118.2044997 -14.3250012
 130.0550012 119.5454997 -14.8380012 129.4369277 119.0460942 -14.4846318
 129.9080012 119.6924997  -9.0130012 130.8410012 119.9044997  -9.0470012
 129.6730012 119.7944997  -8.0910012 130.0038036 119.7352769  -8.8930024
 129.9370012 120.4294997  -6.2370012 129.0940012 120.6974997  -5.8710012
 130.3790012 121.2514997  -6.4480012 129.8814158 120.5773291  -6.2154509
 114.2180012 118.8774997  -2.7600012 115.1380012 118.7554997  -2.5240012
 113.7690012 118.1274997  -2.3710012 114.2831580 118.7593727  -2.6750994
 132.2200012 114.4094997  -0.8840012 132.5700012 113.7554997  -1.4890012
 132.3670012 115.2464997  -1.3230012 132.2878419 114.4331591  -1.0262882
 129.9090012 116.3744997 -14.4010012 130.0920012 115.9254997 -13.5750012
 129.3100012 115.7894997 -14.8640012 129.8530202 116.2339975 -14.3506725
 115.4390012 117.1894997  -9.8690012 115.8850012 116.3974997  -9.5670012
 115.9060012 117.9054997  -9.4380012 115.5630172 117.1780624  -9.7695180
 113.7430012 120.1884997  -8.8000012 114.2350012 119.9674997  -9.5910012
 114.1060012 121.0294997  -8.5190012 113.8593126 120.2718357  -8.8702469
 131.7400012 116.5184997  -2.5340012 130.8220012 116.7894997  -2.5700012
 131.8630012 115.9834997  -3.3190012 131.6311066 116.4832892  -2.6449513
 131.7760012 116.4414997 -17.8730012 132.1880012 115.7204997 -18.3480012
 132.4580012 117.1114997 -17.8140012 131.9245885 116.4332368 -17.9301085
 114.0570012 116.4464997 -14.7460012 113.1320012 116.6554997 -14.8750012
 114.5110012 116.9304997 -15.4350012 113.9917368 116.5405993 -14.8568774
 128.8280012 131.4304997 -12.8000012 129.4800012 131.0834997 -13.4080012
 129.3380012 131.9194997 -12.1540012 128.9862637 131.4490597 -12.7959764
 114.0210012 115.1844997  -6.4010012 113.3560012 114.9384997  -5.7580012
 113.5780012 115.8064997  -6.9790012 113.8700956 115.2348632  -6.3910648
 116.2130012 128.3594997  -2.2570012 115.3920012 128.5344997  -2.7170012
 115.9600012 128.2864997  -1.3360012 116.0666164 128.3735622  -2.1955077
 119.1670012 129.3344997  -5.9980012 118.7420012 130.1434997  -6.2810012
 120.0710012 129.4194997  -6.3000012 119.2310271 129.4568469  -6.0776224
 123.4780012 130.7334997  -3.0390012 123.6630012 130.3994997  -2.1610012
 124.3240012 131.0424997  -3.3610012 123.6177539 130.7296047  -2.9624395
 125.8230012 132.0194997  -3.7950012 126.5000012 131.3864997  -4.0350012
 126.1450012 132.4204997  -2.9880012 125.9591637 131.9871154  -3.7187207
 130.7400012 114.6084997  -4.7150012 129.9280012 114.9334997  -5.1030012
 130.9730012 113.8484997  -5.2480012 130.6603423 114.5502436  -4.8401747
 116.5690012 132.5904997  -5.9510012 115.8480012 133.0304997  -6.4020012
 116.2030012 132.3394997  -5.1020012 116.4209804 132.6167698  -5.8980160
 119.0360012 132.1904997  -6.9210012 118.1710012 132.2624997  -6.5170012
 118.9810012 132.7374997  -7.7050012 118.9102085 132.2742685  -6.9716638
 123.7460012 132.0784997  -7.7460012 123.2900012 132.6074997  -8.4000012
 123.9090012 132.6814997  -7.0200012 123.7055585 132.2324468  -7.7374938
 126.0740012 130.9564997  -6.8010012 125.1690012 131.1214997  -7.0660012
 126.5030012 131.8094997  -6.8660012 126.0080799 131.0944483  -6.8460818
 128.6780012 132.5264997  -6.5060012 128.4960012 133.4424997  -6.7160012
 128.8550012 132.1164997  -7.3520012 128.6770210 132.5964822  -6.6492115
 115.9830012 131.2134997  -9.0410012 115.9650012 130.7884997  -8.1830012
 116.7880012 130.8954997  -9.4490012 116.0893875 131.1123812  -8.9788345
 118.1250012 129.9234997 -10.3860012 117.9060012 129.0074997 -10.2160012
 118.9490012 130.0634997  -9.9200012 118.2064420 129.8170520 -10.2997226
 120.6620012 130.3934997  -9.5370012 120.8750012 129.5054997  -9.8240012
 120.7260012 130.3594997  -8.5830012 120.6998232 130.2673102  -9.4472603
 124.1700012 116.0574997 -10.3930012 123.4960012 115.4284997 -10.1370012
 124.7340012 115.5734997 -10.9960012 124.1539230 115.9058744 -10.4394660
 129.3130012 114.1654997 -10.2800012 129.9170012 114.7124997 -10.7820012
 128.4430012 114.4844997 -10.5200012 129.2781241 114.2835806 -10.3812346
 131.0400012 115.3034997 -11.9470012 131.6520012 114.7894997 -12.4730012
 131.4220012 116.1814997 -11.9230012 131.1754540 115.3517140 -12.0158170
 116.4970012 114.6914997 -12.5710012 115.7200012 114.4574997 -13.0780012
 117.0270012 113.8944997 -12.5620012 116.4622330 114.5516988 -12.6392258
 115.3330012 114.4894997 -16.7670012 115.7720012 115.1004997 -17.3590012
 114.7000012 115.0274997 -16.2930012 115.3074514 114.6459257 -16.7839070
 121.0760012 114.6184997 -12.7570012 121.9510012 115.0064997 -12.7870012
 120.9400012 114.4034997 -11.8350012 121.1773695 114.6425184 -12.6363560
 126.6330012 114.6484997 -11.1080012 126.7090012 114.7434997 -12.0580012
 126.3580012 113.7404997 -10.9790012 126.6062321 114.5387867 -11.2204921
 127.9860012 114.6744997 -15.4160012 127.2840012 115.2894997 -15.6250012
 127.5420012 113.8364997 -15.2850012 127.8296330 114.6455783 -15.4269672
 115.2340012 130.4374997 -15.8690012 114.5490012 130.3994997 -16.5370012
 115.2380012 131.3504997 -15.5810012 115.1408193 130.5557016 -15.9214716
 117.1940012 116.4054997 -18.3250012 117.6860012 115.7754997 -18.8520012
 117.8180012 116.7014997 -17.6610012 117.3455446 116.3593199 -18.3074020
 122.2200012 116.6984997 -15.8680012 122.3980012 116.0524997 -15.1850012
 122.1670012 117.5324997 -15.4000012 122.2371829 116.7227985 -15.7114060
 124.0990012 131.6474997 -17.4720012 124.9650012 132.0134997 -17.6500012
 123.8520012 131.2074997 -18.2860012 124.1842392 131.6381756 -17.6063711
 130.8080012 131.2104997 -14.7930012 130.6130012 130.4624997 -15.3580012
 130.7690012 131.9684997 -15.3760012 130.7760380 131.2106099 -14.9491616
 116.4550012 115.2054997  -3.0530012 116.0890012 114.4404997  -2.6100012
 117.3680012 115.2344997  -2.7660012 116.5282790 115.1047224  -2.9535930
 118.4280012 114.5564997  -1.5170012 119.3260012 114.2824997  -1.7020012
 118.0410012 113.8134997  -1.0530012 118.4986612 114.4185914  -1.4796357
 117.0520012 131.3574997 -18.8440012 116.7850012 131.6444997 -17.9710012
 117.8240012 130.8114997 -18.6920012 117.1197488 131.3230294 -18.7038950
 126.8490012 113.8884997  -1.3350012 126.9260012 113.4624997  -0.4810012
 127.7430012 113.9024997  -1.6780012 126.9803428 113.8320879  -1.2644690
 130.0250012 129.9614997  -2.6430012 129.2430012 129.7754997  -3.1620012
 129.9530012 130.8904997  -2.4250012 129.9081777 130.0616492  -2.6845952
 144.4310012 123.8474997 -12.6120012 144.5200012 124.7914997 -12.7440012
 143.7930012 123.5724997 -13.2700012 144.3569081 123.9394830 -12.7190386
 143.3640012 123.1024997  -9.1930012 143.3260012 122.4564997  -8.4880012
 143.0420012 122.6364997  -9.9640012 143.3152333 122.9509408  -9.2007022
 135.7330012 122.7174997  -7.6000012 135.7740012 122.0914997  -6.8770012
 136.4360012 123.3414997  -7.4180012 135.8336363 122.7161196  -7.4763956
 136.6560012 127.1674997  -9.0650012 136.2870012 126.3654997  -9.4350012
 137.5970012 126.9984997  -9.0190012 136.7327289 127.0350153  -9.1093684
 133.2660012 120.8274997 -13.6720012 132.8190012 121.6734997 -13.6910012
 132.7050012 120.2474997 -14.1880012 133.1289900 120.8649916 -13.7443199
 133.9770012 122.9894997 -11.5460012 134.1900012 122.2194997 -11.0190012
 134.7150012 123.0784997 -12.1500012 134.1058496 122.8961394 -11.5554700
 144.1820012 131.1464997 -10.6790012 144.8020012 130.4694997 -10.9530012
 143.9740012 130.9284997  -9.7710012 144.2386904 131.0243870 -10.5936635
 141.7540012 125.5354997  -8.7870012 142.0580012 124.8494997  -9.3820012
 142.4750012 125.6534997  -8.1690012 141.8930671 125.4576305  -8.7848184
 144.8950012 119.9294997  -8.4590012 145.0370012 118.9834997  -8.4390012
 144.7880012 120.1364997  -9.3880012 144.8999864 119.8279534  -8.5817661
 138.0490012 118.0304997 -11.1870012 138.0930012 118.8904997 -11.6050012
 137.5920012 117.4784997 -11.8210012 137.9932185 118.0735799 -11.3299701
 134.6700012 120.4274997 -10.4250012 135.3230012 119.8774997  -9.9930012
 134.6940012 120.1534997 -11.3420012 134.7626683 120.3151466 -10.4897877
 139.8260012 121.9774997 -11.2100012 140.4420012 121.4514997 -10.7000012
 139.2400012 121.3374997 -11.6130012 139.8310810 121.8189208 -11.1946827
 136.8600012 116.9484997  -7.1130012 136.6410012 117.4784997  -7.8790012
 136.1920012 117.1754997  -6.4660012 136.7397600 117.0516906  -7.1303621
 144.2290012 126.4484997 -13.5690012 143.9330012 126.1264997 -14.4200012
 143.9040012 127.3484997 -13.5280012 144.1446371 126.5260215 -13.6798199
 139.4290012 124.6244997  -6.8260012 138.6890012 125.2224997  -6.7220012
 140.1430012 125.1784997  -7.1410012 139.4242237 124.7812831  -6.8543535
 136.4530012 118.8404997  -9.1610012 137.0670012 119.4734997  -8.7870012
 136.9650012 118.3684997  -9.8170012 136.6062296 118.8632370  -9.1985748
 137.8360012 126.5884997  -6.0380012 137.8310012 127.4684997  -6.4160012
 136.9830012 126.5054997  -5.6130012 137.7199464 126.6976117  -6.0322093
 133.9570012 126.2594997 -15.2560012 133.6850012 126.4884997 -16.1450012
 134.0030012 127.0974997 -14.7960012 133.9260094 126.4041213 -15.3154303
 140.8860012 114.2544997  -9.6600012 140.7690012 113.3054997  -9.7150012
 140.0310012 114.5864997  -9.3870012 140.7543733 114.1695409  -9.6306103
 143.1530012 123.0914997 -15.1600012 142.4410012 123.6264997 -15.5120012
 143.8440012 123.1474997 -15.8200012 143.1490132 123.1722543 -15.2973711
 143.2060012 121.5494997 -18.1210012 143.9070012 121.5714997 -17.4700012
 143.5090012 120.9214997 -18.7770012 143.3427830 121.4676566 -18.1206289
 138.2040012 123.9314997 -12.3260012 137.8730012 123.5614997 -13.1440012
 138.7920012 123.2614997 -11.9790012 138.2381873 123.7901156 -12.3911898
 139.5700012 127.3594997  -9.6440012 139.4760012 126.7814997 -10.4010012
 140.3000012 126.9884997  -9.1480012 139.6557981 127.2302390  -9.6805835
 138.5700012 122.7004997  -8.6920012 139.1360012 122.8214997  -9.4550012
 138.8890012 123.3374997  -8.0530012 138.6905786 122.8031884  -8.7099960
 144.8790012 128.2034997  -7.9580012 144.6390012 128.8654997  -7.3100012
 144.6810012 127.3694997  -7.5330012 144.8193808 128.1813134  -7.8118476
 139.4500012 127.0994997  -3.9750012 139.1390012 127.8814997  -3.5200012
 138.8000012 126.9464997  -4.6610012 139.3195558 127.1859105  -4.0054129
 136.3700012 123.2974997  -4.7460012 136.4410012 123.9484997  -4.0480012
 135.4800012 123.4004997  -5.0810012 136.2593117 123.4005936  -4.6957300
 143.1560012 129.2004997 -13.0880012 143.6300012 129.4954997 -12.3100012
 142.5930012 129.9384997 -13.3210012 143.1447653 129.3406932 -13.0129864
 137.6900012 129.1714997  -3.2120012 137.6970012 129.0354997  -4.1590012
 136.7740012 129.0534997  -2.9600012 137.5671714 129.1369430  -3.3075334
 137.1940012 123.0014997 -14.7360012 136.9020012 123.7694997 -15.2270012
 136.5200012 122.3414997 -14.8990012 137.0629081 123.0174406 -14.8252660
 133.2870012 125.3644997  -5.9210012 132.7860012 125.3364997  -6.7360012
 133.2920012 124.4584997  -5.6120012 133.2191526 125.2382278  -5.9907128
 133.0370012 128.1444997  -9.0370012 133.9830012 128.0004997  -9.0560012
 132.9250012 128.9284997  -8.5000012 133.1512727 128.2308046  -8.9669928
 142.2140012 128.3844997  -4.4790012 142.3010012 129.2104997  -4.0040012
 141.3500012 128.0544997  -4.2300012 142.1091964 128.4529878  -4.3803451
 142.6280012 132.1564997 -14.6730012 142.5530012 132.0354997 -15.6190012
 142.6610012 133.1064997 -14.5540012 142.6221848 132.2682500 -14.7865166
 136.2810012 130.9454997 -12.8920012 136.4340012 130.5974997 -12.0130012
 135.4310012 130.5894997 -13.1470012 136.1868962 130.8496650 -12.8061660
 135.5360012 126.6874997  -4.8780012 135.7520012 126.3264997  -4.0190012
 134.6810012 126.3134997  -5.0880012 135.4499292 126.5874111  -4.7886614
 138.1550012 115.1574997  -8.8830012 137.2930012 115.0704997  -9.2900012
 138.1320012 116.0134997  -8.4550012 138.0340330 115.2612765  -8.8808137
 142.8180012 114.8794997  -5.5080012 143.2380012 114.4644997  -4.7550012
 141.8850012 114.7014997  -5.3910012 142.7493644 114.7985900  -5.3890461
 142.4790012 117.3724997 -18.2230012 142.2260012 117.3914997 -17.3000012
 142.2230012 116.5004997 -18.5240012 142.4097790 117.2572437 -18.1373737
 138.2460012 120.1234997  -7.7880012 137.6040012 120.0824997  -7.0790012
 138.2830012 121.0494997  -8.0250012 138.1631324 120.2431559  -7.7230176
 138.2430012 120.3444997 -12.8760012 137.3500012 120.0034997 -12.9340012
 138.6930012 119.9674997 -13.6310012 138.1817305 120.2468484 -12.9860823
 143.7780012 120.7604997 -14.0590012 143.3690012 121.5754997 -14.3500012
 144.4990012 120.6204997 -14.6730012 143.8194537 120.8532018 -14.1818658
 142.8800012 120.9354997  -2.5710012 142.3180012 120.2314997  -2.2500012
 143.7070012 120.8154997  -2.1030012 142.9147095 120.8227883  -2.4637670
 144.7830012 120.2064997 -11.2450012 144.5880012 120.8114997 -11.9600012
 144.9640012 119.3724997 -11.6790012 144.7807614 120.1766300 -11.4015595
 135.9960012 120.4434997  -5.9210012 135.9580012 120.8434997  -5.0520012
 135.5050012 119.6264997  -5.8300012 135.9244684 120.3878069  -5.7898941
 139.3620012 117.8174997 -19.1220012 138.9310012 117.3724997 -18.3920012
 138.6440012 118.1894997 -19.6340012 139.2059438 117.8068940 -19.0913201
 132.6040012 117.5594997 -12.0700012 133.2350012 117.5304997 -11.3510012
 133.0530012 117.1344997 -12.8000012 132.7510774 117.4980492 -12.0703447
 133.8780012 118.3054997 -16.6460012 134.3520012 118.8964997 -17.2310012
 133.1610012 118.8364997 -16.2990012 133.8459341 118.4580867 -16.6791164
 144.0470012 121.8444997  -6.5730012 144.3700012 121.2134997  -7.2160012
 143.6070012 121.3094997  -5.9130012 144.0316895 121.6858441  -6.5717150
 140.8240012 117.7714997 -11.7890012 139.9130012 117.8284997 -11.5010012
 141.3300012 117.7114997 -10.9790012 140.7675413 117.7711985 -11.6399378
 135.6530012 119.4004997 -12.9630012 134.7630012 119.5004997 -13.3030012
 135.9490012 118.5584997 -13.3090012 135.5712823 119.3003546 -13.0562787
 139.3060012 119.4004997 -15.3060012 140.2370012 119.5294997 -15.1280012
 139.0910012 120.0704997 -15.9560012 139.4044247 119.5086565 -15.3694253
 137.9800012 120.5954997 -17.7390012 137.4370012 120.2154997 -18.4310012
 138.8130012 120.7894997 -18.1680012 138.0184399 120.5698124 -17.8915474
 136.1150012 125.1524997  -2.6400012 136.8470012 125.4064997  -2.0790012
 135.3350012 125.3564997  -2.1250012 136.1098232 125.2149177  -2.4934240
 142.1440012 120.5594997  -9.9020012 142.7090012 120.0124997 -10.4490012
 141.9970012 120.0374997  -9.1140012 142.2012918 120.4142024  -9.8701546
 137.1460012 116.6954997 -13.4840012 136.8290012 115.7934997 -13.5190012
 137.9280012 116.6974997 -14.0370012 137.2082284 116.5721628 -13.5635217
 140.7710012 118.9474997  -7.4880012 139.9350012 119.4014997  -7.3780012
 141.2950012 119.2234997  -6.7360012 140.7274414 119.0469376  -7.3712864
 141.3150012 125.1604997 -15.8040012 140.5700012 124.6534997 -16.1260012
 141.1810012 125.2094997 -14.8570012 141.1948776 125.0976940 -15.7201353
 142.8340012 125.3444997  -4.5670012 142.4890012 124.9634997  -3.7600012
 142.6340012 126.2784997  -4.4950012 142.7598061 125.4185228  -4.4469039
 136.4400012 124.4554997 -10.0340012 137.1850012 124.4534997 -10.6350012
 136.5180012 123.6324997  -9.5520012 136.5525518 124.3439315 -10.0511071
 143.4410012 126.6194997 -16.7780012 143.1450012 127.4454997 -16.3970012
 142.7380012 125.9994997 -16.5820012 143.3054914 126.6488199 -16.6993557
 133.4480012 122.9164997  -4.7190012 133.6710012 122.4984997  -3.8870012
 132.8460012 122.3034997  -5.1420012 133.3971759 122.7764668  -4.6622978
 140.4640012 122.4334997  -2.5060012 140.1680012 122.2674997  -3.4010012
 141.3960012 122.2134997  -2.5170012 140.5494166 122.3810640  -2.6299464
 138.8150012 127.9734997 -12.6300012 139.3420012 128.7464997 -12.8300012
 137.9350012 128.1984997 -12.9310012 138.7681773 128.1098005 -12.6980990
 134.5700012 122.8354997 -18.0430012 135.1860012 123.4624997 -17.6630012
 133.7080012 123.1514997 -17.7710012 134.5377698 122.9639430 -17.9542817
 140.2420012 125.6364997 -13.0530012 140.0010012 126.5614997 -13.0120012
 139.5010012 125.1774997 -12.6570012 140.1088409 125.7011421 -12.9938623
 140.7570012 129.7854997  -6.7380012 141.1190012 130.6404997  -6.9720012
 141.2880012 129.4934997  -5.9980012 140.8784473 129.8631060  -6.6699145
 138.9250012 130.6584997 -13.5080012 137.9750012 130.7634997 -13.4570012
 139.2770012 131.4784997 -13.1630012 138.8424203 130.7838314 -13.4543350
 144.3010012 125.8844997  -7.0380012 143.8750012 125.6574997  -6.2110012
 144.8810012 125.1464997  -7.2200012 144.3211868 125.7535299  -6.9494170
 135.0820012 117.6694997  -5.1610012 134.1890012 118.0084997  -5.2290012
 134.9830012 116.8144997  -4.7430012 134.9464164 117.6002588  -5.1137765
 134.7330012 129.4744997  -6.7260012 134.9500012 128.5424997  -6.7570012
 134.9790012 129.7484997  -5.8430012 134.7959549 129.3840636  -6.6108237
 140.5950012 127.9254997 -19.5170012 140.8340012 127.1774997 -20.0640012
 140.3260012 127.5374997 -18.6840012 140.5913675 127.7706638 -19.4793135
 139.5320012 127.4954997 -17.0600012 139.6780012 126.9754997 -16.2700012
 139.5290012 128.4024997 -16.7540012 139.5515989 127.5468853 -16.9103912
 135.9850012 124.7484997 -16.5500012 135.2990012 125.1004997 -15.9830012
 136.5070012 125.5114997 -16.7970012 135.9616852 124.8998578 -16.5057882
 143.8160012 117.4104997  -6.2710012 144.5150012 117.4844997  -5.6210012
 143.4350012 116.5464997  -6.1170012 143.8601767 117.3037624  -6.1611678
 144.6010012 117.0624997 -15.1740012 144.8210012 117.5344997 -15.9770012
 145.1590012 117.4574997 -14.5040012 144.7064968 117.1804285 -15.1932669
 142.2690012 129.1934997 -16.3110012 141.4530012 129.6904997 -16.2590012
 142.7990012 129.6684997 -16.9510012 142.2289161 129.3257722 -16.3904044
 141.8010012 118.7904997 -14.3390012 142.6130012 119.2954997 -14.2930012
 141.5560012 118.6454997 -13.4250012 141.8790520 118.8400375 -14.2091483
 142.3360012 119.7764997  -5.1540012 142.4550012 120.3504997  -4.3970012
 142.9920012 119.0884997  -5.0400012 142.4409757 119.7621079  -5.0349175
 142.6840012 115.8714997 -13.4010012 142.3380012 116.4894997 -12.7560012
 143.3430012 116.3724997 -13.8820012 142.7257826 116.0235802 -13.3779029
 139.6080012 130.2374997 -16.3290012 139.7680012 131.0364997 -16.8300012
 139.4100012 130.5434997 -15.4440012 139.6031649 130.3884469 -16.2780185
 138.3420012 116.9344997 -16.7140012 138.2590012 117.8234997 -16.3670012
 139.2320012 116.6694997 -16.4820012 138.4509469 117.0201430 -16.6352374
 136.6010012 127.3624997 -17.6530012 137.1930012 128.0614997 -17.3770012
 137.0600012 126.9294997 -18.3730012 136.7441142 127.3997049 -17.7125170
 134.9170012 120.0264997 -18.5370012 134.8720012 120.9654997 -18.3590012
 134.0290012 119.7904997 -18.8070012 134.7908574 120.1231892 -18.5491088
 135.7250012 114.8084997  -9.8640012 135.4960012 114.8674997 -10.7920012
 135.2820012 114.0164997  -9.5580012 135.6338530 114.7095753  -9.9495214
 134.6550012 128.7484997 -13.7040012 133.8230012 129.2214997 -13.6760012
 135.2010012 129.2584997 -14.3020012 134.6149739 128.8821871 -13.7810284
 133.9430012 131.3614997  -2.3740012 134.4840012 131.1444997  -1.6140012
 133.4620012 130.5554997  -2.5630012 133.9519345 131.2229514  -2.2956924
 138.5410012 130.2804997  -0.7530012 139.3080012 129.8214997  -0.4120012
 138.5190012 130.0544997  -1.6830012 138.6431434 130.1870409  -0.8319957
 142.6330012 129.7884997 -19.3780012 141.9890012 129.1574997 -19.0570012
 143.3950012 129.2574997 -19.6100012 142.6478077 129.6302920 -19.3653989
 133.8500012 125.1714997  -1.4190012 133.9940012 124.2694997  -1.7060012
 133.0780012 125.4574997  -1.9070012 133.7653322 125.0868261  -1.5242119
 138.1920012 125.5154997 -19.2870012 138.2560012 124.7214997 -18.7560012
 138.8450012 125.3964997 -19.9770012 138.2890241 125.3907148 -19.3075683
 140.5060012 125.1414997  -1.9870012 140.1770012 125.4124997  -2.8440012
 140.6580012 124.2004997  -2.0740012 140.4814809 125.0513862  -2.1161756
 134.6830012 122.3714997  -1.9990012 135.0910012 121.5144997  -2.1200012
 134.4230012 122.3864997  -1.0780012 134.7037568 122.2560807  -1.8910412
 139.3410012 123.4874997 -16.9810012 138.8810012 123.0034997 -16.2950012
 139.5960012 122.8194997 -17.6170012 139.3124902 123.3308731 -16.9730666
 138.6300012 121.3804997  -4.6250012 138.0120012 122.0554997  -4.3450012
 138.9740012 121.7014997  -5.4580012 138.5919615 121.5162721  -4.6993419
 140.4120012 121.7304997 -18.7190012 140.2320012 121.5764997 -19.6460012
 141.3620012 121.8384997 -18.6740012 140.5157776 121.7240175 -18.8398157
 143.6500012 123.8524997  -1.3480012 144.6030012 123.9354997  -1.3750012
 143.4890012 123.1404997  -0.7280012 143.7586426 123.7676746  -1.2679421
 138.9690012 118.7354997  -3.5430012 139.1190012 118.0064997  -4.1450012
 138.9720012 119.5124997  -4.1020012 138.9899302 118.7407851  -3.7009308
 139.3820012 117.1054997  -6.0500012 139.9180012 117.5564997  -6.7020012
 138.5300012 116.9974997  -6.4730012 139.3402178 117.1526390  -6.1964244
 140.9640012 122.5444997  -5.8110012 141.7140012 122.3884997  -6.3840012
 140.6250012 123.3964997  -6.0860012 141.0208921 122.6382968  -5.9266439
 137.4480012 119.9334997  -1.6310012 136.6810012 119.4014997  -1.8410012
 138.1270012 119.6234997  -2.2310012 137.4347022 119.8187506  -1.7408352
 140.1880012 114.5614997  -5.6190012 140.0890012 115.5084997  -5.7240012
 139.4450012 114.1894997  -6.0940012 140.0740564 114.6405902  -5.6975440
 141.4520012 118.8834997  -2.0550012 141.2160012 118.6634997  -1.1530012
 140.6680012 118.6764997  -2.5650012 141.3138628 118.8254760  -2.0006068
 144.1670012 118.0104997  -2.9790012 143.2200012 118.0424997  -2.8470012
 144.4800012 117.3854997  -2.3260012 144.0795475 117.9303207  -2.8725545
 135.6280012 117.8544997  -1.9270012 135.8400012 117.1474997  -2.5370012
 135.5170012 117.4164997  -1.0830012 135.6419721 117.6987084  -1.8963157
 140.4090012 113.8554997  -2.9470012 141.1210012 113.2154997  -2.9610012
 140.3080012 114.1224997  -3.8610012 140.4927939 113.8039938  -3.0724350
 140.7630012 115.5384997  -0.8940012 140.6310012 115.0624997  -1.7140012
 140.1640012 116.2824997  -0.9490012 140.6639071 115.5739618  -1.0137114
 140.3090012 132.4214997 -17.7170012 141.2420012 132.5794997 -17.5740012
 140.0450012 133.0964997 -18.3420012 140.4009510 132.5343611 -17.7819259
 133.8780012 127.0574997 -18.2350012 134.7920012 127.1364997 -17.9610012
 133.8850012 126.3704997 -18.9010012 134.0041131 126.9753961 -18.2875607
 132.5270012 132.4504997 -13.1570012 131.8800012 131.9884997 -13.6900012
 132.8810012 131.7784997 -12.5750012 132.4863849 132.2964723 -13.1512041
 133.3970012 130.5314997 -11.3530012 133.0620012 129.6514997 -11.1810012
 133.6190012 130.8764997 -10.4880012 133.3811783 130.4577500 -11.2125792
 133.4770012 123.6064997  -8.9010012 133.6610012 123.5244997  -9.8370012
 134.3260012 123.4824997  -8.4770012 133.6170139 123.5785003  -8.9718545
 133.0740012 118.8774997  -2.7600012 133.9940012 118.7554997  -2.5240012
 132.6250012 118.1274997  -2.3710012 133.1391580 118.7593727  -2.6750994
 134.2950012 117.1894997  -9.8690012 134.7410012 116.3974997  -9.5670012
 134.7620012 117.9054997  -9.4380012 134.4190172 117.1780624  -9.7695180
 132.5990012 120.1884997  -8.8000012 133.0910012 119.9674997  -9.5910012
 132.9620012 121.0294997  -8.5190012 132.7153126 120.2718357  -8.8702469
 132.9130012 116.4464997 -14.7460012 131.9880012 116.6554997 -14.8750012
 133.3670012 116.9304997 -15.4350012 132.8477368 116.5405993 -14.8568774
 132.8770012 115.1844997  -6.4010012 132.2120012 114.9384997  -5.7580012
 132.4340012 115.8064997  -6.9790012 132.7260956 115.2348632  -6.3910648
 135.0690012 128.3594997  -2.2570012 134.2480012 128.5344997  -2.7170012
 134.8160012 128.2864997  -1.3360012 134.9226164 128.3735622  -2.1955077
 138.0230012 129.3344997  -5.9980012 137.5980012 130.1434997  -6.2810012
 138.9270012 129.4194997  -6.3000012 138.0870271 129.4568469  -6.0776224
 142.3340012 130.7334997  -3.0390012 142.5190012 130.3994997  -2.1610012
 143.1800012 131.0424997  -3.3610012 142.4737539 130.7296047  -2.9624395
 144.6790012 132.0194997  -3.7950012 145.3560012 131.3864997  -4.0350012
 145.0010012 132.4204997  -2.9880012 144.8151637 131.9871154  -3.7187207
 135.4250012 132.5904997  -5.9510012 134.7040012 133.0304997  -6.4020012
 135.0590012 132.3394997  -5.1020012 135.2769804 132.6167698  -5.8980160
 137.8920012 132.1904997  -6.9210012 137.0270012 132.2624997  -6.5170012
 137.8370012 132.7374997  -7.7050012 137.7662085 132.2742685  -6.9716638
 142.6020012 132.0784997  -7.7460012 142.1460012 132.6074997  -8.4000012
 142.7650012 132.6814997  -7.0200012 142.5615585 132.2324468  -7.7374938
 134.8390012 131.2134997  -9.0410012 134.8210012 130.7884997  -8.1830012
 135.6440012 130.8954997  -9.4490012 134.9453875 131.1123812  -8.9788345
 136.9810012 129.9234997 -10.3860012 136.7620012 129.0074997 -10.2160012
 137.8050012 130.0634997  -9.9200012 137.0624420 129.8170520 -10.2997226
 139.5180012 130.3934997  -9.5370012 139.7310012 129.5054997  -9.8240012
 139.5820012 130.3594997  -8.5830012 139.5558231 130.2673102  -9.4472603
 143.0260012 116.0574997 -10.3930012 142.3520012 115.4284997 -10.1370012
 143.5900012 115.5734997 -10.9960012 143.0099230 115.9058744 -10.4394660
 135.3530012 114.6914997 -12.5710012 134.5760012 114.4574997 -13.0780012
 135.8830012 113.8944997 -12.5620012 135.3182330 114.5516988 -12.6392258
 134.1890012 114.4894997 -16.7670012 134.6280012 115.1004997 -17.3590012
 133.5560012 115.0274997 -16.2930012 134.1634514 114.6459257 -16.7839070
 139.9320012 114.6184997 -12.7570012 140.8070012 115.0064997 -12.7870012
 139.7960012 114.4034997 -11.8350012 140.0333695 114.6425184 -12.6363560
 134.0900012 130.4374997 -15.8690012 133.4050012 130.3994997 -16.5370012
 134.0940012 131.3504997 -15.5810012 133.9968193 130.5557016 -15.9214716
 136.0500012 116.4054997 -18.3250012 136.5420012 115.7754997 -18.8520012
 136.6740012 116.7014997 -17.6610012 136.2015446 116.3593199 -18.3074020
 141.0760012 116.6984997 -15.8680012 141.2540012 116.0524997 -15.1850012
 141.0230012 117.5324997 -15.4000012 141.0931829 116.7227985 -15.7114060
 142.9550012 131.6474997 -17.4720012 143.8210012 132.0134997 -17.6500012
 142.7080012 131.2074997 -18.2860012 143.0402392 131.6381756 -17.6063711
 135.3110012 115.2054997  -3.0530012 134.9450012 114.4404997  -2.6100012
 136.2240012 115.2344997  -2.7660012 135.3842790 115.1047224  -2.9535930
 137.2840012 114.5564997  -1.5170012 138.1820012 114.2824997  -1.7020012
 136.8970012 113.8134997  -1.0530012 137.3546612 114.4185914  -1.4796357
 135.9080012 131.3574997 -18.8440012 135.6410012 131.6444997 -17.9710012
 136.6800012 130.8114997 -18.6920012 135.9757488 131.3230294 -18.7038950
  12.4390012 142.7034997 -12.6120012  12.5280012 143.6474997 -12.7440012
  11.8010012 142.4284997 -13.2700012  12.3649081 142.7954830 -12.7190386
  11.3720012 141.9584997  -9.1930012  11.3340012 141.3124997  -8.4880012
  11.0500012 141.4924997  -9.9640012  11.3232333 141.8069408  -9.2007022
   3.7410012 141.5734997  -7.6000012   3.7820012 140.9474997  -6.8770012
   4.4440012 142.1974997  -7.4180012   3.8416363 141.5721196  -7.4763956
  15.0780012 144.8974997 -10.8920012  14.6380012 144.1774997 -10.4410012
  15.0650012 145.6184997 -10.2620012  15.0160226 144.8963731 -10.7451506
   1.2740012 139.6834997 -13.6720012   0.8270012 140.5294997 -13.6910012
   0.7130012 139.1034997 -14.1880012   1.1369900 139.7209916 -13.7443199
   1.9850012 141.8454997 -11.5460012   2.1980012 141.0754997 -11.0190012
   2.7230012 141.9344997 -12.1500012   2.1138496 141.7521394 -11.5554700
   9.7620012 144.3914997  -8.7870012  10.0660012 143.7054997  -9.3820012
  10.4830012 144.5094997  -8.1690012   9.9010671 144.3136305  -8.7848184
  18.4250012 135.9924997  -7.9260012  18.4740012 136.6024997  -7.1900012
  18.8500012 136.4534997  -8.6490012  18.4891824 136.1383741  -7.9229795
  12.9030012 138.7854997  -8.4590012  13.0450012 137.8394997  -8.4390012
  12.7960012 138.9924997  -9.3880012  12.9079863 138.6839534  -8.5817661
   6.0570012 136.8864997 -11.1870012   6.1010012 137.7464997 -11.6050012
   5.6000012 136.3344997 -11.8210012   6.0012185 136.9295799 -11.3299701
  13.7800012 137.0174997 -12.7860012  14.4260012 136.6884997 -12.1610012
  14.2900012 137.5354997 -13.4090012  13.9374264 137.0424611 -12.7846138
   2.6780012 139.2834997 -10.4250012   3.3310012 138.7334997  -9.9930012
   2.7020012 139.0094997 -11.3420012   2.7706683 139.1711466 -10.4897877
   7.8340012 140.8334997 -11.2100012   8.4500012 140.3074997 -10.7000012
   7.2480012 140.1934997 -11.6130012   7.8390810 140.6749208 -11.1946827
  18.8160012 137.4704997  -5.6900012  18.1280012 138.1284997  -5.7860012
  18.8320012 137.2734997  -4.7540012  18.7238525 137.5340462  -5.5765192
   4.8680012 135.8044997  -7.1130012   4.6490012 136.3344997  -7.8790012
   4.2000012 136.0314997  -6.4660012   4.7477600 135.9076906  -7.1303621
   7.4370012 143.4804997  -6.8260012   6.6970012 144.0784997  -6.7220012
   8.1510012 144.0344997  -7.1410012   7.4322237 143.6372831  -6.8543535
  15.5440012 136.3084997 -10.8060012  15.3280012 135.5424997 -10.2730012
  16.1990012 136.7804997 -10.2930012  15.6030632 136.2675889 -10.6637139
   4.4610012 137.6964997  -9.1610012   5.0750012 138.3294997  -8.7870012
   4.9730012 137.2244997  -9.8170012   4.6142296 137.7192370  -9.1985748
  15.8910012 135.0234997  -7.1260012  15.1550012 135.6344997  -7.1640012
  16.5740012 135.4384997  -7.6530012  15.8826541 135.1631374  -7.2024168
   8.8940012 133.1104997  -9.6600012   8.7770012 132.1614997  -9.7150012
   8.0390012 133.4424997  -9.3870012   8.7623733 133.0255409  -9.6306103
  16.6880012 144.9854997  -4.9320012  16.8280012 144.3944997  -5.6720012
  16.8550012 145.8584997  -5.2890012  16.7296778 145.0226426  -5.0813035
  11.1610012 141.9474997 -15.1600012  10.4490012 142.4824997 -15.5120012
  11.8520012 142.0034997 -15.8200012  11.1570132 142.0282543 -15.2973711
  11.2140012 140.4054997 -18.1210012  11.9150012 140.4274997 -17.4700012
  11.5170012 139.7774997 -18.7770012  11.3507830 140.3236566 -18.1206289
  18.5300012 141.3254997  -6.8660012  17.8770012 142.0204997  -6.7770012
  18.9950012 141.5354997  -7.6760012  18.5035390 141.4489425  -6.9633117
  14.5660012 142.1574997 -14.2080012  13.8340012 142.3854997 -13.6350012
  15.0140012 141.4434997 -13.7530012  14.5263095 142.0922571 -14.0680881
  14.4640012 140.3314997  -5.1410012  14.5440012 141.0944997  -4.5690012
  13.8620012 140.6104997  -5.8310012  14.3935756 140.4737134  -5.1559411
   6.2120012 142.7874997 -12.3260012   5.8810012 142.4174997 -13.1440012
   6.8000012 142.1174997 -11.9790012   6.2461873 142.6461156 -12.3911898
   6.5780012 141.5564997  -8.6920012   7.1440012 141.6774997  -9.4550012
   6.8970012 142.1934997  -8.0530012   6.6985786 141.6591884  -8.7099960
  13.4370012 141.3194997 -16.5230012  14.0170012 141.4694997 -15.7760012
  13.8510012 141.7904997 -17.2460012  13.5722831 141.4036841 -16.5185866
   4.3780012 142.1534997  -4.7460012   4.4490012 142.8044997  -4.0480012
   3.4880012 142.2564997  -5.0810012   4.2673117 142.2565936  -4.6957300
  17.1360012 133.0694997 -16.7100012  16.2360012 133.2084997 -16.4150012
  17.3880012 133.9004997 -17.1120012  17.0468702 133.2009074 -16.7239795
   5.2020012 141.8574997 -14.7360012   4.9100012 142.6254997 -15.2270012
   4.5280012 141.1974997 -14.8990012   5.0709081 141.8734406 -14.8252660
   1.2950012 144.2204997  -5.9210012   0.7940012 144.1924997  -6.7360012
   1.3000012 143.3144997  -5.6120012   1.2271526 144.0942278  -5.9907128
  16.3950012 139.1594997  -2.8750012  15.9880012 139.6404997  -3.5960012
  16.4360012 138.2544997  -3.1830012  16.3448437 139.1029374  -3.0153317
   6.1630012 134.0134997  -8.8830012   5.3010012 133.9264997  -9.2900012
   6.1400012 134.8694997  -8.4550012   6.0420330 134.1172765  -8.8808137
  10.8260012 133.7354997  -5.5080012  11.2460012 133.3204997  -4.7550012
   9.8930012 133.5574997  -5.3910012  10.7573644 133.6545900  -5.3890461
  14.1520012 137.4914997  -4.6550012  13.6380012 137.3654997  -3.8570012
  13.9970012 138.4034997  -4.8990012  14.0606852 137.5976132  -4.5787842
  14.9150012 142.3524997 -18.8930012  14.9570012 142.1294997 -19.8230012
  15.7640012 142.7514997 -18.7030012  15.0355396 142.3759155 -18.9946373
  10.4870012 136.2284997 -18.2230012  10.2340012 136.2474997 -17.3000012
  10.2310012 135.3564997 -18.5240012  10.4177790 136.1132437 -18.1373737
   6.2540012 138.9794997  -7.7880012   5.6120012 138.9384997  -7.0790012
   6.2910012 139.9054997  -8.0250012   6.1711324 139.0991559  -7.7230176
   6.2510012 139.2004997 -12.8760012   5.3580012 138.8594997 -12.9340012
   6.7010012 138.8234997 -13.6310012   6.1897305 139.1028484 -12.9860823
  11.7860012 139.6164997 -14.0590012  11.3770012 140.4314997 -14.3500012
  12.5070012 139.4764997 -14.6730012  11.8274537 139.7092018 -14.1818658
  10.8880012 139.7914997  -2.5710012  10.3260012 139.0874997  -2.2500012
  11.7150012 139.6714997  -2.1030012  10.9227095 139.6787883  -2.4637670
  12.7910012 139.0624997 -11.2450012  12.5960012 139.6674997 -11.9600012
  12.9720012 138.2284997 -11.6790012  12.7887614 139.0326300 -11.4015595
   4.0040012 139.2994997  -5.9210012   3.9660012 139.6994997  -5.0520012
   3.5130012 138.4824997  -5.8300012   3.9324684 139.2438069  -5.7898941
   7.3700012 136.6734997 -19.1220012   6.9390012 136.2284997 -18.3920012
   6.6520012 137.0454997 -19.6340012   7.2139438 136.6628940 -19.0913201
   0.6120012 136.4154997 -12.0700012   1.2430012 136.3864997 -11.3510012
   1.0610012 135.9904997 -12.8000012   0.7590774 136.3540492 -12.0703447
   1.8860012 137.1614997 -16.6460012   2.3600012 137.7524997 -17.2310012
   1.1690012 137.6924997 -16.2990012   1.8539341 137.3140867 -16.6791164
  12.0550012 140.7004997  -6.5730012  12.3780012 140.0694997  -7.2160012
  11.6150012 140.1654997  -5.9130012  12.0396895 140.5418441  -6.5717150
   8.8320012 136.6274997 -11.7890012   7.9210012 136.6844997 -11.5010012
   9.3380012 136.5674997 -10.9790012   8.7755413 136.6271985 -11.6399378
   3.6610012 138.2564997 -12.9630012   2.7710012 138.3564997 -13.3030012
   3.9570012 137.4144997 -13.3090012   3.5792823 138.1563545 -13.0562787
   7.3140012 138.2564997 -15.3060012   8.2450012 138.3854997 -15.1280012
   7.0990012 138.9264997 -15.9560012   7.4124247 138.3646565 -15.3694253
  13.2370012 135.8624997  -8.5250012  12.5610012 135.9934997  -7.8610012
  12.7520012 135.7074997  -9.3350012  13.0787145 135.8594905  -8.5435483
   5.9880012 139.4514997 -17.7390012   5.4450012 139.0714997 -18.4310012
   6.8210012 139.6454997 -18.1680012   6.0264399 139.4258124 -17.8915474
   4.1230012 144.0084997  -2.6400012   4.8550012 144.2624997  -2.0790012
   3.3430012 144.2124997  -2.1250012   4.1178232 144.0709177  -2.4934240
  10.1520012 139.4154997  -9.9020012  10.7170012 138.8684997 -10.4490012
  10.0050012 138.8934997  -9.1140012  10.2092918 139.2702024  -9.8701546
   5.1540012 135.5514997 -13.4840012   4.8370012 134.6494997 -13.5190012
   5.9360012 135.5534997 -14.0370012   5.2162284 135.4281628 -13.5635217
   8.7790012 137.8034997  -7.4880012   7.9430012 138.2574997  -7.3780012
   9.3030012 138.0794997  -6.7360012   8.7354414 137.9029376  -7.3712864
   9.3230012 144.0164997 -15.8040012   8.5780012 143.5094997 -16.1260012
   9.1890012 144.0654997 -14.8570012   9.2028776 143.9536940 -15.7201353
  16.4730012 143.1494997  -7.0170012  17.1150012 143.6064997  -7.5610012
  15.6430012 143.2624997  -7.4800012  16.4485963 143.2272704  -7.1539823
  13.2210012 136.8304997 -17.6040012  12.2820012 136.9424997 -17.7560012
  13.5180012 137.6874997 -17.2980012  13.1327666 136.9616443 -17.5834232
  10.8420012 144.2004997  -4.5670012  10.4970012 143.8194997  -3.7600012
  10.6420012 145.1344997  -4.4950012  10.7678061 144.2745228  -4.4469039
  13.9390012 138.6974997 -15.9440012  14.8310012 138.5604997 -15.6250012
  13.9960012 139.4884997 -16.4800012  14.0686285 138.7856660 -15.9728309
   4.4480012 143.3114997 -10.0340012   5.1930012 143.3094997 -10.6350012
   4.5260012 142.4884997  -9.5520012   4.5605518 143.1999315 -10.0511071
   1.4560012 141.7724997  -4.7190012   1.6790012 141.3544997  -3.8870012
   0.8540012 141.1594997  -5.1420012   1.4051759 141.6324668  -4.6622978
   8.4720012 141.2894997  -2.5060012   8.1760012 141.1234997  -3.4010012
   9.4040012 141.0694997  -2.5170012   8.5574166 141.2370640  -2.6299464
  18.8240012 138.9074997 -16.2490012  18.2700012 138.5114997 -16.9210012
  18.9240012 139.8174997 -16.5270012  18.7617059 138.9763586 -16.3785599
  18.7870012 144.7074997  -3.4120012  17.9360012 144.9454997  -3.7790012
  19.3780012 144.6904997  -4.1650012  18.7502487 144.7378258  -3.5641107
  14.2800012 142.5014997  -8.7630012  13.3510012 142.2694997  -8.7900012
  14.7310012 141.7244997  -9.0930012  14.2139216 142.3647238  -8.8113083
   2.5780012 141.6914997 -18.0430012   3.1940012 142.3184997 -17.6630012
   1.7160012 142.0074997 -17.7710012   2.5457698 141.8199430 -17.9542817
   8.2500012 144.4924997 -13.0530012   8.0090012 145.4174997 -13.0120012
   7.5090012 144.0334997 -12.6570012   8.1168409 144.5571421 -12.9938623
  12.3090012 144.7404997  -7.0380012  11.8830012 144.5134997  -6.2110012
  12.8890012 144.0024997  -7.2200012  12.3291868 144.6095299  -6.9494170
   3.0900012 136.5254997  -5.1610012   2.1970012 136.8644997  -5.2290012
   2.9910012 135.6704997  -4.7430012   2.9544164 136.4562588  -5.1137765
  15.3780012 144.3424997 -15.7370012  15.1000012 143.6144997 -15.1810012
  16.3050012 144.4614997 -15.5320012  15.4653124 144.2588802 -15.6331155
   3.9930012 143.6044997 -16.5500012   3.3070012 143.9564997 -15.9830012
   4.5150012 144.3674997 -16.7970012   3.9696852 143.7558578 -16.5057882
  11.8240012 136.2664997  -6.2710012  12.5230012 136.3404997  -5.6210012
  11.4430012 135.4024997  -6.1170012  11.8681767 136.1597624  -6.1611678
  12.6090012 135.9184997 -15.1740012  12.8290012 136.3904997 -15.9770012
  13.1670012 136.3134997 -14.5040012  12.7144968 136.0364285 -15.1932669
   9.8090012 137.6464997 -14.3390012  10.6210012 138.1514997 -14.2930012
   9.5640012 137.5014997 -13.4250012   9.8870520 137.6960375 -14.2091483
  10.3440012 138.6324997  -5.1540012  10.4630012 139.2064997  -4.3970012
  11.0000012 137.9444997  -5.0400012  10.4489757 138.6181079  -5.0349175
  10.6920012 134.7274997 -13.4010012  10.3460012 135.3454997 -12.7560012
  11.3510012 135.2284997 -13.8820012  10.7337826 134.8795802 -13.3779029
   6.3500012 135.7904997 -16.7140012   6.2670012 136.6794997 -16.3670012
   7.2400012 135.5254997 -16.4820012   6.4589469 135.8761430 -16.6352374
  16.5490012 136.5394997  -4.3190012  15.6320012 136.8024997  -4.4070012
  16.8840012 136.5364997  -5.2160012  16.4689900 136.5750224  -4.4522081
  15.1510012 140.2904997 -10.2240012  14.3530012 139.8754997 -10.5520012
  15.5960012 139.5994997  -9.7330012  15.1019885 140.1403543 -10.2025111
   2.9250012 138.8824997 -18.5370012   2.8800012 139.8214997 -18.3590012
   2.0370012 138.6464997 -18.8070012   2.7988574 138.9791892 -18.5491088
   3.7330012 133.6644997  -9.8640012   3.5040012 133.7234997 -10.7920012
   3.2900012 132.8724997  -9.5580012   3.6418530 133.5655753  -9.9495214
   1.8580012 144.0274997  -1.4190012   2.0020012 143.1254997  -1.7060012
   1.0860012 144.3134997  -1.9070012   1.7733322 143.9428261  -1.5242119
   6.2000012 144.3714997 -19.2870012   6.2640012 143.5774997 -18.7560012
   6.8530012 144.2524997 -19.9770012   6.2970241 144.2467148 -19.3075683
   8.5140012 143.9974997  -1.9870012   8.1850012 144.2684997  -2.8440012
   8.6660012 143.0564997  -2.0740012   8.4894809 143.9073862  -2.1161756
  14.2480012 143.9134997  -4.6030012  14.9940012 144.5014997  -4.7230012
  13.4910012 144.4954997  -4.5400012  14.2477554 144.0727011  -4.6109093
   2.6910012 141.2274997  -1.9990012   3.0990012 140.3704997  -2.1200012
   2.4310012 141.2424997  -1.0780012   2.7117568 141.1120807  -1.8910412
   7.3490012 142.3434997 -16.9810012   6.8890012 141.8594997 -16.2950012
   7.6040012 141.6754997 -17.6170012   7.3204902 142.1868731 -16.9730666
   6.6380012 140.2364997  -4.6250012   6.0200012 140.9114997  -4.3450012
   6.9820012 140.5574997  -5.4580012   6.5999615 140.3722721  -4.6993419
   8.4200012 140.5864997 -18.7190012   8.2400012 140.4324997 -19.6460012
   9.3700012 140.6944997 -18.6740012   8.5237776 140.5800175 -18.8398157
  11.6580012 142.7084997  -1.3480012  12.6110012 142.7914997  -1.3750012
  11.4970012 141.9964997  -0.7280012  11.7666426 142.6236746  -1.2679421
  17.8100012 142.9414997 -19.2730012  17.5360012 142.5164997 -20.0860012
  17.8490012 143.8724997 -19.4900012  17.7777699 143.0092484 -19.4136390
   6.9770012 137.5914997  -3.5430012   7.1270012 136.8624997  -4.1450012
   6.9800012 138.3684997  -4.1020012   6.9979302 137.5967851  -3.7009308
   7.3900012 135.9614997  -6.0500012   7.9260012 136.4124997  -6.7020012
   6.5380012 135.8534997  -6.4730012   7.3482178 136.0086390  -6.1964244
   8.9720012 141.4004997  -5.8110012   9.7220012 141.2444997  -6.3840012
   8.6330012 142.2524997  -6.0860012   9.0288921 141.4942968  -5.9266439
  13.3870012 139.2154997  -0.7820012  13.5800012 138.2844997  -0.8940012
  14.2450012 139.6404997  -0.7920012  13.5293020 139.1456389  -0.7986639
  14.7040012 142.0044997  -2.7050012  14.4230012 142.7134997  -3.2820012
  15.6470012 141.9314997  -2.8560012  14.7929027 142.0917646  -2.8044449
   5.4560012 138.7894997  -1.6310012   4.6890012 138.2574997  -1.8410012
   6.1350012 138.4794997  -2.2310012   5.4427022 138.6747506  -1.7408352
   8.1960012 133.4174997  -5.6190012   8.0970012 134.3644997  -5.7240012
   7.4530012 133.0454997  -6.0940012   8.0820564 133.4965902  -5.6975440
   9.4600012 137.7394997  -2.0550012   9.2240012 137.5194997  -1.1530012
   8.6760012 137.5324997  -2.5650012   9.3218628 137.6814760  -2.0006068
  12.1750012 136.8664997  -2.9790012  11.2280012 136.8984997  -2.8470012
  12.4880012 136.2414997  -2.3260012  12.0875475 136.7863207  -2.8725545
  13.8090012 135.5004997  -0.9740012  13.7130012 134.5484997  -0.9800012
  13.4880012 135.7694997  -0.1140012  13.7524070 135.4064035  -0.8584559
   3.6360012 136.7104997  -1.9270012   3.8480012 136.0034997  -2.5370012
   3.5250012 136.2724997  -1.0830012   3.6499721 136.5547084  -1.8963157
   8.4170012 132.7114997  -2.9470012   9.1290012 132.0714997  -2.9610012
   8.3160012 132.9784997  -3.8610012   8.5007939 132.6599938  -3.0724350
   8.7710012 134.3944997  -0.8940012   8.6390012 133.9184997  -1.7140012
   8.1720012 135.1384997  -0.9490012   8.6719071 134.4299618  -1.0137114
  18.2680012 143.8104997 -15.2980012  19.1180012 144.2314997 -15.1710012
  18.2740012 143.0704997 -14.6910012  18.3851372 143.7680803 -15.1985656
  18.6630012 141.8634997 -13.4740012  17.9360012 141.3844997 -13.0770012
  19.2440012 142.0694997 -12.7420012  18.6419375 141.8257090 -13.3205871
  18.4220012 144.6484997  -8.5270012  19.2550012 144.2704997  -8.8070012
  18.5340012 145.5914997  -8.6460012  18.5512647 144.7242218  -8.5814513
  18.9310012 141.7644997 -17.0830012  18.4090012 142.1214997 -17.8020012
  18.8980012 142.4394997 -16.4050012  18.8551634 141.9045413 -17.0896855
  17.2800012 139.0044997 -18.5320012  17.3760012 139.6714997 -19.2130012
  17.1400012 138.1884997 -19.0140012  17.2742135 138.9854500 -18.6901509
  16.4490012 140.3844997 -12.9110012  16.2990012 139.4394997 -12.9320012
  16.0960012 140.6654997 -12.0680012  16.3806625 140.2930441 -12.7997654
   1.4850012 142.4624997  -8.9010012   1.6690012 142.3804997  -9.8370012
   2.3340012 142.3384997  -8.4770012   1.6250139 142.4345003  -8.9718545
  17.3060012 142.3544997  -3.2730012  17.8890012 141.6204997  -3.0810012
  17.8700012 143.1264997  -3.2260012  17.4619769 142.3584227  -3.2403841
  18.8020012 140.2574997  -2.5880012  17.9390012 139.8784997  -2.7540012
  19.4070012 139.5184997  -2.6620012  18.7655979 140.1058023  -2.6207183
  16.5270012 136.4124997 -19.4150012  17.1380012 136.0414997 -18.7780012
  15.6910012 135.9914997 -19.2190012  16.4975032 136.3047554 -19.3012965
  16.1600012 137.9674997 -14.4490012  16.4400012 137.0604997 -14.3250012
  16.9190012 138.4014997 -14.8380012  16.3009277 137.9020942 -14.4846318
  16.7720012 138.5484997  -9.0130012  17.7050012 138.7604997  -9.0470012
  16.5370012 138.6504997  -8.0910012  16.8678036 138.5912769  -8.8930024
  16.8010012 139.2854997  -6.2370012  15.9580012 139.5534997  -5.8710012
  17.2430012 140.1074997  -6.4480012  16.7454158 139.4333291  -6.2154509
   1.0820012 137.7334997  -2.7600012   2.0020012 137.6114997  -2.5240012
   0.6330012 136.9834997  -2.3710012   1.1471580 137.6153727  -2.6750994
  19.0840012 133.2654997  -0.8840012  19.4340012 132.6114997  -1.4890012
  19.2310012 134.1024997  -1.3230012  19.1518419 133.2891591  -1.0262882
  16.7730012 135.2304997 -14.4010012  16.9560012 134.7814997 -13.5750012
  16.1740012 134.6454997 -14.8640012  16.7170202 135.0899975 -14.3506725
   2.3030012 136.0454997  -9.8690012   2.7490012 135.2534997  -9.5670012
   2.7700012 136.7614997  -9.4380012   2.4270172 136.0340624  -9.7695180
   0.6070012 139.0444997  -8.8000012   1.0990012 138.8234997  -9.5910012
   0.9700012 139.8854997  -8.5190012   0.7233126 139.1278357  -8.8702469
  18.6040012 135.3744997  -2.5340012  17.6860012 135.6454997  -2.5700012
  18.7270012 134.8394997  -3.3190012  18.4951066 135.3392892  -2.6449513
  18.6400012 135.2974997 -17.8730012  19.0520012 134.5764997 -18.3480012
  19.3220012 135.9674997 -17.8140012  18.7885885 135.2892368 -17.9301085
   0.9210012 135.3024997 -14.7460012  -0.0039988 135.5114997 -14.8750012
   1.3750012 135.7864997 -15.4350012   0.8557368 135.3965993 -14.8568774
   0.8850012 134.0404997  -6.4010012   0.2200012 133.7944997  -5.7580012
   0.4420012 134.6624997  -6.9790012   0.7340956 134.0908632  -6.3910648
  17.6040012 133.4644997  -4.7150012  16.7920012 133.7894997  -5.1030012
  17.8370012 132.7044997  -5.2480012  17.5243423 133.4062436  -4.8401747
  11.0340012 134.9134997 -10.3930012  10.3600012 134.2844997 -10.1370012
  11.5980012 134.4294997 -10.9960012  11.0179230 134.7618744 -10.4394660
  16.1770012 133.0214997 -10.2800012  16.7810012 133.5684997 -10.7820012
  15.3070012 133.3404997 -10.5200012  16.1421241 133.1395806 -10.3812346
  17.9040012 134.1594997 -11.9470012  18.5160012 133.6454997 -12.4730012
  18.2860012 135.0374997 -11.9230012  18.0394540 134.2077140 -12.0158170
   3.3610012 133.5474997 -12.5710012   2.5840012 133.3134997 -13.0780012
   3.8910012 132.7504997 -12.5620012   3.3262330 133.4076988 -12.6392258
   2.1970012 133.3454997 -16.7670012   2.6360012 133.9564997 -17.3590012
   1.5640012 133.8834997 -16.2930012   2.1714514 133.5019257 -16.7839070
   7.9400012 133.4744997 -12.7570012   8.8150012 133.8624997 -12.7870012
   7.8040012 133.2594997 -11.8350012   8.0413695 133.4985184 -12.6363560
  13.4970012 133.5044997 -11.1080012  13.5730012 133.5994997 -12.0580012
  13.2220012 132.5964997 -10.9790012  13.4702321 133.3947867 -11.2204921
  14.8500012 133.5304997 -15.4160012  14.1480012 134.1454997 -15.6250012
  14.4060012 132.6924997 -15.2850012  14.6936330 133.5015783 -15.4269672
   4.0580012 135.2614997 -18.3250012   4.5500012 134.6314997 -18.8520012
   4.6820012 135.5574997 -17.6610012   4.2095446 135.2153199 -18.3074020
   9.0840012 135.5544997 -15.8680012   9.2620012 134.9084997 -15.1850012
   9.0310012 136.3884997 -15.4000012   9.1011829 135.5787985 -15.7114060
   3.3190012 134.0614997  -3.0530012   2.9530012 133.2964997  -2.6100012
   4.2320012 134.0904997  -2.7660012   3.3922790 133.9607224  -2.9535930
   5.2920012 133.4124997  -1.5170012   6.1900012 133.1384997  -1.7020012
   4.9050012 132.6694997  -1.0530012   5.3626612 133.2745914  -1.4796357
  13.7130012 132.7444997  -1.3350012  13.7900012 132.3184997  -0.4810012
  14.6070012 132.7584997  -1.6780012  13.8443428 132.6880880  -1.2644690
  31.2950012 142.7034997 -12.6120012  31.3840012 143.6474997 -12.7440012
  30.6570012 142.4284997 -13.2700012  31.2209081 142.7954830 -12.7190386
  30.2280012 141.9584997  -9.1930012  30.1900012 141.3124997  -8.4880012
  29.9060012 141.4924997  -9.9640012  30.1792333 141.8069408  -9.2007022
  22.5970012 141.5734997  -7.6000012  22.6380012 140.9474997  -6.8770012
  23.3000012 142.1974997  -7.4180012  22.6976363 141.5721196  -7.4763956
  33.9340012 144.8974997 -10.8920012  33.4940012 144.1774997 -10.4410012
  33.9210012 145.6184997 -10.2620012  33.8720226 144.8963731 -10.7451506
  20.1300012 139.6834997 -13.6720012  19.6830012 140.5294997 -13.6910012
  19.5690012 139.1034997 -14.1880012  19.9929900 139.7209916 -13.7443199
  20.8410012 141.8454997 -11.5460012  21.0540012 141.0754997 -11.0190012
  21.5790012 141.9344997 -12.1500012  20.9698496 141.7521394 -11.5554700
  28.6180012 144.3914997  -8.7870012  28.9220012 143.7054997  -9.3820012
  29.3390012 144.5094997  -8.1690012  28.7570671 144.3136305  -8.7848184
  37.2810012 135.9924997  -7.9260012  37.3300012 136.6024997  -7.1900012
  37.7060012 136.4534997  -8.6490012  37.3451824 136.1383741  -7.9229795
  31.7590012 138.7854997  -8.4590012  31.9010012 137.8394997  -8.4390012
  31.6520012 138.9924997  -9.3880012  31.7639863 138.6839534  -8.5817661
  24.9130012 136.8864997 -11.1870012  24.9570012 137.7464997 -11.6050012
  24.4560012 136.3344997 -11.8210012  24.8572185 136.9295799 -11.3299701
  32.6360012 137.0174997 -12.7860012  33.2820012 136.6884997 -12.1610012
  33.1460012 137.5354997 -13.4090012  32.7934264 137.0424611 -12.7846138
  21.5340012 139.2834997 -10.4250012  22.1870012 138.7334997  -9.9930012
  21.5580012 139.0094997 -11.3420012  21.6266683 139.1711466 -10.4897877
  26.6900012 140.8334997 -11.2100012  27.3060012 140.3074997 -10.7000012
  26.1040012 140.1934997 -11.6130012  26.6950810 140.6749208 -11.1946827
  37.6720012 137.4704997  -5.6900012  36.9840012 138.1284997  -5.7860012
  37.6880012 137.2734997  -4.7540012  37.5798525 137.5340462  -5.5765192
  23.7240012 135.8044997  -7.1130012  23.5050012 136.3344997  -7.8790012
  23.0560012 136.0314997  -6.4660012  23.6037600 135.9076906  -7.1303621
  26.2930012 143.4804997  -6.8260012  25.5530012 144.0784997  -6.7220012
  27.0070012 144.0344997  -7.1410012  26.2882237 143.6372831  -6.8543535
  34.4000012 136.3084997 -10.8060012  34.1840012 135.5424997 -10.2730012
  35.0550012 136.7804997 -10.2930012  34.4590632 136.2675889 -10.6637139
  23.3170012 137.6964997  -9.1610012  23.9310012 138.3294997  -8.7870012
  23.8290012 137.2244997  -9.8170012  23.4702296 137.7192370  -9.1985748
  34.7470012 135.0234997  -7.1260012  34.0110012 135.6344997  -7.1640012
  35.4300012 135.4384997  -7.6530012  34.7386541 135.1631374  -7.2024168
  27.7500012 133.1104997  -9.6600012  27.6330012 132.1614997  -9.7150012
  26.8950012 133.4424997  -9.3870012  27.6183733 133.0255409  -9.6306103
  35.5440012 144.9854997  -4.9320012  35.6840012 144.3944997  -5.6720012
  35.7110012 145.8584997  -5.2890012  35.5856778 145.0226426  -5.0813035
  30.0170012 141.9474997 -15.1600012  29.3050012 142.4824997 -15.5120012
  30.7080012 142.0034997 -15.8200012  30.0130132 142.0282543 -15.2973711
  30.0700012 140.4054997 -18.1210012  30.7710012 140.4274997 -17.4700012
  30.3730012 139.7774997 -18.7770012  30.2067830 140.3236566 -18.1206289
  37.3860012 141.3254997  -6.8660012  36.7330012 142.0204997  -6.7770012
  37.8510012 141.5354997  -7.6760012  37.3595390 141.4489425  -6.9633117
  33.4220012 142.1574997 -14.2080012  32.6900012 142.3854997 -13.6350012
  33.8700012 141.4434997 -13.7530012  33.3823095 142.0922571 -14.0680881
  33.3200012 140.3314997  -5.1410012  33.4000012 141.0944997  -4.5690012
  32.7180012 140.6104997  -5.8310012  33.2495756 140.4737134  -5.1559411
  25.0680012 142.7874997 -12.3260012  24.7370012 142.4174997 -13.1440012
  25.6560012 142.1174997 -11.9790012  25.1021873 142.6461156 -12.3911898
  25.4340012 141.5564997  -8.6920012  26.0000012 141.6774997  -9.4550012
  25.7530012 142.1934997  -8.0530012  25.5545786 141.6591884  -8.7099960
  32.2930012 141.3194997 -16.5230012  32.8730012 141.4694997 -15.7760012
  32.7070012 141.7904997 -17.2460012  32.4282830 141.4036841 -16.5185866
  23.2340012 142.1534997  -4.7460012  23.3050012 142.8044997  -4.0480012
  22.3440012 142.2564997  -5.0810012  23.1233117 142.2565936  -4.6957300
  35.9920012 133.0694997 -16.7100012  35.0920012 133.2084997 -16.4150012
  36.2440012 133.9004997 -17.1120012  35.9028702 133.2009074 -16.7239795
  24.0580012 141.8574997 -14.7360012  23.7660012 142.6254997 -15.2270012
  23.3840012 141.1974997 -14.8990012  23.9269081 141.8734406 -14.8252660
  20.1510012 144.2204997  -5.9210012  19.6500012 144.1924997  -6.7360012
  20.1560012 143.3144997  -5.6120012  20.0831526 144.0942278  -5.9907128
  35.2510012 139.1594997  -2.8750012  34.8440012 139.6404997  -3.5960012
  35.2920012 138.2544997  -3.1830012  35.2008437 139.1029374  -3.0153317
  25.0190012 134.0134997  -8.8830012  24.1570012 133.9264997  -9.2900012
  24.9960012 134.8694997  -8.4550012  24.8980330 134.1172765  -8.8808137
  29.6820012 133.7354997  -5.5080012  30.1020012 133.3204997  -4.7550012
  28.7490012 133.5574997  -5.3910012  29.6133644 133.6545900  -5.3890461
  33.0080012 137.4914997  -4.6550012  32.4940012 137.3654997  -3.8570012
  32.8530012 138.4034997  -4.8990012  32.9166852 137.5976132  -4.5787842
  33.7710012 142.3524997 -18.8930012  33.8130012 142.1294997 -19.8230012
  34.6200012 142.7514997 -18.7030012  33.8915396 142.3759155 -18.9946373
  29.3430012 136.2284997 -18.2230012  29.0900012 136.2474997 -17.3000012
  29.0870012 135.3564997 -18.5240012  29.2737790 136.1132437 -18.1373737
  25.1100012 138.9794997  -7.7880012  24.4680012 138.9384997  -7.0790012
  25.1470012 139.9054997  -8.0250012  25.0271324 139.0991559  -7.7230176
  25.1070012 139.2004997 -12.8760012  24.2140012 138.8594997 -12.9340012
  25.5570012 138.8234997 -13.6310012  25.0457305 139.1028484 -12.9860823
  30.6420012 139.6164997 -14.0590012  30.2330012 140.4314997 -14.3500012
  31.3630012 139.4764997 -14.6730012  30.6834537 139.7092018 -14.1818658
  29.7440012 139.7914997  -2.5710012  29.1820012 139.0874997  -2.2500012
  30.5710012 139.6714997  -2.1030012  29.7787095 139.6787883  -2.4637670
  31.6470012 139.0624997 -11.2450012  31.4520012 139.6674997 -11.9600012
  31.8280012 138.2284997 -11.6790012  31.6447614 139.0326300 -11.4015595
  22.8600012 139.2994997  -5.9210012  22.8220012 139.6994997  -5.0520012
  22.3690012 138.4824997  -5.8300012  22.7884684 139.2438069  -5.7898941
  26.2260012 136.6734997 -19.1220012  25.7950012 136.2284997 -18.3920012
  25.5080012 137.0454997 -19.6340012  26.0699438 136.6628940 -19.0913201
  19.4680012 136.4154997 -12.0700012  20.0990012 136.3864997 -11.3510012
  19.9170012 135.9904997 -12.8000012  19.6150774 136.3540492 -12.0703447
  20.7420012 137.1614997 -16.6460012  21.2160012 137.7524997 -17.2310012
  20.0250012 137.6924997 -16.2990012  20.7099341 137.3140867 -16.6791164
  30.9110012 140.7004997  -6.5730012  31.2340012 140.0694997  -7.2160012
  30.4710012 140.1654997  -5.9130012  30.8956895 140.5418441  -6.5717150
  27.6880012 136.6274997 -11.7890012  26.7770012 136.6844997 -11.5010012
  28.1940012 136.5674997 -10.9790012  27.6315413 136.6271985 -11.6399378
  22.5170012 138.2564997 -12.9630012  21.6270012 138.3564997 -13.3030012
  22.8130012 137.4144997 -13.3090012  22.4352823 138.1563545 -13.0562787
  26.1700012 138.2564997 -15.3060012  27.1010012 138.3854997 -15.1280012
  25.9550012 138.9264997 -15.9560012  26.2684247 138.3646565 -15.3694253
  32.0930012 135.8624997  -8.5250012  31.4170012 135.9934997  -7.8610012
  31.6080012 135.7074997  -9.3350012  31.9347145 135.8594905  -8.5435483
  24.8440012 139.4514997 -17.7390012  24.3010012 139.0714997 -18.4310012
  25.6770012 139.6454997 -18.1680012  24.8824399 139.4258124 -17.8915474
  22.9790012 144.0084997  -2.6400012  23.7110012 144.2624997  -2.0790012
  22.1990012 144.2124997  -2.1250012  22.9738232 144.0709177  -2.4934240
  29.0080012 139.4154997  -9.9020012  29.5730012 138.8684997 -10.4490012
  28.8610012 138.8934997  -9.1140012  29.0652918 139.2702024  -9.8701546
  24.0100012 135.5514997 -13.4840012  23.6930012 134.6494997 -13.5190012
  24.7920012 135.5534997 -14.0370012  24.0722284 135.4281628 -13.5635217
  27.6350012 137.8034997  -7.4880012  26.7990012 138.2574997  -7.3780012
  28.1590012 138.0794997  -6.7360012  27.5914414 137.9029376  -7.3712864
  28.1790012 144.0164997 -15.8040012  27.4340012 143.5094997 -16.1260012
  28.0450012 144.0654997 -14.8570012  28.0588776 143.9536940 -15.7201353
  35.3290012 143.1494997  -7.0170012  35.9710012 143.6064997  -7.5610012
  34.4990012 143.2624997  -7.4800012  35.3045963 143.2272704  -7.1539823
  32.0770012 136.8304997 -17.6040012  31.1380012 136.9424997 -17.7560012
  32.3740012 137.6874997 -17.2980012  31.9887666 136.9616443 -17.5834232
  29.6980012 144.2004997  -4.5670012  29.3530012 143.8194997  -3.7600012
  29.4980012 145.1344997  -4.4950012  29.6238061 144.2745228  -4.4469039
  32.7950012 138.6974997 -15.9440012  33.6870012 138.5604997 -15.6250012
  32.8520012 139.4884997 -16.4800012  32.9246285 138.7856660 -15.9728309
  23.3040012 143.3114997 -10.0340012  24.0490012 143.3094997 -10.6350012
  23.3820012 142.4884997  -9.5520012  23.4165518 143.1999315 -10.0511071
  20.3120012 141.7724997  -4.7190012  20.5350012 141.3544997  -3.8870012
  19.7100012 141.1594997  -5.1420012  20.2611759 141.6324668  -4.6622978
  27.3280012 141.2894997  -2.5060012  27.0320012 141.1234997  -3.4010012
  28.2600012 141.0694997  -2.5170012  27.4134166 141.2370640  -2.6299464
  37.6800012 138.9074997 -16.2490012  37.1260012 138.5114997 -16.9210012
  37.7800012 139.8174997 -16.5270012  37.6177059 138.9763586 -16.3785599
  37.6430012 144.7074997  -3.4120012  36.7920012 144.9454997  -3.7790012
  38.2340012 144.6904997  -4.1650012  37.6062487 144.7378258  -3.5641107
  33.1360012 142.5014997  -8.7630012  32.2070012 142.2694997  -8.7900012
  33.5870012 141.7244997  -9.0930012  33.0699216 142.3647238  -8.8113083
  21.4340012 141.6914997 -18.0430012  22.0500012 142.3184997 -17.6630012
  20.5720012 142.0074997 -17.7710012  21.4017698 141.8199430 -17.9542817
  27.1060012 144.4924997 -13.0530012  26.8650012 145.4174997 -13.0120012
  26.3650012 144.0334997 -12.6570012  26.9728409 144.5571421 -12.9938623
  31.1650012 144.7404997  -7.0380012  30.7390012 144.5134997  -6.2110012
  31.7450012 144.0024997  -7.2200012  31.1851868 144.6095299  -6.9494170
  21.9460012 136.5254997  -5.1610012  21.0530012 136.8644997  -5.2290012
  21.8470012 135.6704997  -4.7430012  21.8104164 136.4562588  -5.1137765
  34.2340012 144.3424997 -15.7370012  33.9560012 143.6144997 -15.1810012
  35.1610012 144.4614997 -15.5320012  34.3213124 144.2588802 -15.6331155
  22.8490012 143.6044997 -16.5500012  22.1630012 143.9564997 -15.9830012
  23.3710012 144.3674997 -16.7970012  22.8256852 143.7558578 -16.5057882
  30.6800012 136.2664997  -6.2710012  31.3790012 136.3404997  -5.6210012
  30.2990012 135.4024997  -6.1170012  30.7241767 136.1597624  -6.1611678
  31.4650012 135.9184997 -15.1740012  31.6850012 136.3904997 -15.9770012
  32.0230012 136.3134997 -14.5040012  31.5704968 136.0364285 -15.1932669
  28.6650012 137.6464997 -14.3390012  29.4770012 138.1514997 -14.2930012
  28.4200012 137.5014997 -13.4250012  28.7430520 137.6960375 -14.2091483
  29.2000012 138.6324997  -5.1540012  29.3190012 139.2064997  -4.3970012
  29.8560012 137.9444997  -5.0400012  29.3049757 138.6181079  -5.0349175
  29.5480012 134.7274997 -13.4010012  29.2020012 135.3454997 -12.7560012
  30.2070012 135.2284997 -13.8820012  29.5897826 134.8795802 -13.3779029
  25.2060012 135.7904997 -16.7140012  25.1230012 136.6794997 -16.3670012
  26.0960012 135.5254997 -16.4820012  25.3149469 135.8761430 -16.6352374
  35.4050012 136.5394997  -4.3190012  34.4880012 136.8024997  -4.4070012
  35.7400012 136.5364997  -5.2160012  35.3249900 136.5750224  -4.4522081
  34.0070012 140.2904997 -10.2240012  33.2090012 139.8754997 -10.5520012
  34.4520012 139.5994997  -9.7330012  33.9579885 140.1403543 -10.2025111
  21.7810012 138.8824997 -18.5370012  21.7360012 139.8214997 -18.3590012
  20.8930012 138.6464997 -18.8070012  21.6548574 138.9791892 -18.5491088
  22.5890012 133.6644997  -9.8640012  22.3600012 133.7234997 -10.7920012
  22.1460012 132.8724997  -9.5580012  22.4978530 133.5655753  -9.9495214
  20.7140012 144.0274997  -1.4190012  20.8580012 143.1254997  -1.7060012
  19.9420012 144.3134997  -1.9070012  20.6293322 143.9428261  -1.5242119
  25.0560012 144.3714997 -19.2870012  25.1200012 143.5774997 -18.7560012
  25.7090012 144.2524997 -19.9770012  25.1530241 144.2467148 -19.3075683
  27.3700012 143.9974997  -1.9870012  27.0410012 144.2684997  -2.8440012
  27.5220012 143.0564997  -2.0740012  27.3454809 143.9073862  -2.1161756
  33.1040012 143.9134997  -4.6030012  33.8500012 144.5014997  -4.7230012
  32.3470012 144.4954997  -4.5400012  33.1037554 144.0727011  -4.6109093
  21.5470012 141.2274997  -1.9990012  21.9550012 140.3704997  -2.1200012
  21.2870012 141.2424997  -1.0780012  21.5677568 141.1120807  -1.8910412
  26.2050012 142.3434997 -16.9810012  25.7450012 141.8594997 -16.2950012
  26.4600012 141.6754997 -17.6170012  26.1764902 142.1868731 -16.9730666
  25.4940012 140.2364997  -4.6250012  24.8760012 140.9114997  -4.3450012
  25.8380012 140.5574997  -5.4580012  25.4559615 140.3722721  -4.6993419
  27.2760012 140.5864997 -18.7190012  27.0960012 140.4324997 -19.6460012
  28.2260012 140.6944997 -18.6740012  27.3797776 140.5800175 -18.8398157
  30.5140012 142.7084997  -1.3480012  31.4670012 142.7914997  -1.3750012
  30.3530012 141.9964997  -0.7280012  30.6226426 142.6236746  -1.2679421
  36.6660012 142.9414997 -19.2730012  36.3920012 142.5164997 -20.0860012
  36.7050012 143.8724997 -19.4900012  36.6337699 143.0092484 -19.4136390
  25.8330012 137.5914997  -3.5430012  25.9830012 136.8624997  -4.1450012
  25.8360012 138.3684997  -4.1020012  25.8539302 137.5967851  -3.7009308
  26.2460012 135.9614997  -6.0500012  26.7820012 136.4124997  -6.7020012
  25.3940012 135.8534997  -6.4730012  26.2042178 136.0086390  -6.1964244
  27.8280012 141.4004997  -5.8110012  28.5780012 141.2444997  -6.3840012
  27.4890012 142.2524997  -6.0860012  27.8848921 141.4942968  -5.9266439
  32.2430012 139.2154997  -0.7820012  32.4360012 138.2844997  -0.8940012
  33.1010012 139.6404997  -0.7920012  32.3853020 139.1456389  -0.7986639
  33.5600012 142.0044997  -2.7050012  33.2790012 142.7134997  -3.2820012
  34.5030012 141.9314997  -2.8560012  33.6489027 142.0917646  -2.8044449
  24.3120012 138.7894997  -1.6310012  23.5450012 138.2574997  -1.8410012
  24.9910012 138.4794997  -2.2310012  24.2987022 138.6747506  -1.7408352
  27.0520012 133.4174997  -5.6190012  26.9530012 134.3644997  -5.7240012
  26.3090012 133.0454997  -6.0940012  26.9380564 133.4965902  -5.6975440
  28.3160012 137.7394997  -2.0550012  28.0800012 137.5194997  -1.1530012
  27.5320012 137.5324997  -2.5650012  28.1778628 137.6814760  -2.0006068
  31.0310012 136.8664997  -2.9790012  30.0840012 136.8984997  -2.8470012
  31.3440012 136.2414997  -2.3260012  30.9435475 136.7863207  -2.8725545
  32.6650012 135.5004997  -0.9740012  32.5690012 134.5484997  -0.9800012
  32.3440012 135.7694997  -0.1140012  32.6084070 135.4064035  -0.8584559
  22.4920012 136.7104997  -1.9270012  22.7040012 136.0034997  -2.5370012
  22.3810012 136.2724997  -1.0830012  22.5059721 136.5547084  -1.8963157
  27.2730012 132.7114997  -2.9470012  27.9850012 132.0714997  -2.9610012
  27.1720012 132.9784997  -3.8610012  27.3567939 132.6599938  -3.0724350
  27.6270012 134.3944997  -0.8940012  27.4950012 133.9184997  -1.7140012
  27.0280012 135.1384997  -0.9490012  27.5279071 134.4299618  -1.0137114
  37.1240012 143.8104997 -15.2980012  37.9740012 144.2314997 -15.1710012
  37.1300012 143.0704997 -14.6910012  37.2411372 143.7680803 -15.1985656
  37.5190012 141.8634997 -13.4740012  36.7920012 141.3844997 -13.0770012
  38.1000012 142.0694997 -12.7420012  37.4979375 141.8257090 -13.3205871
  37.2780012 144.6484997  -8.5270012  38.1110012 144.2704997  -8.8070012
  37.3900012 145.5914997  -8.6460012  37.4072647 144.7242218  -8.5814513
  37.7870012 141.7644997 -17.0830012  37.2650012 142.1214997 -17.8020012
  37.7540012 142.4394997 -16.4050012  37.7111634 141.9045413 -17.0896855
  36.1360012 139.0044997 -18.5320012  36.2320012 139.6714997 -19.2130012
  35.9960012 138.1884997 -19.0140012  36.1302135 138.9854500 -18.6901509
  35.3050012 140.3844997 -12.9110012  35.1550012 139.4394997 -12.9320012
  34.9520012 140.6654997 -12.0680012  35.2366625 140.2930441 -12.7997654
  20.3410012 142.4624997  -8.9010012  20.5250012 142.3804997  -9.8370012
  21.1900012 142.3384997  -8.4770012  20.4810139 142.4345003  -8.9718545
  36.1620012 142.3544997  -3.2730012  36.7450012 141.6204997  -3.0810012
  36.7260012 143.1264997  -3.2260012  36.3179769 142.3584227  -3.2403841
  37.6580012 140.2574997  -2.5880012  36.7950012 139.8784997  -2.7540012
  38.2630012 139.5184997  -2.6620012  37.6215979 140.1058023  -2.6207183
  35.3830012 136.4124997 -19.4150012  35.9940012 136.0414997 -18.7780012
  34.5470012 135.9914997 -19.2190012  35.3535032 136.3047554 -19.3012965
  35.0160012 137.9674997 -14.4490012  35.2960012 137.0604997 -14.3250012
  35.7750012 138.4014997 -14.8380012  35.1569277 137.9020942 -14.4846318
  35.6280012 138.5484997  -9.0130012  36.5610012 138.7604997  -9.0470012
  35.3930012 138.6504997  -8.0910012  35.7238036 138.5912769  -8.8930024
  35.6570012 139.2854997  -6.2370012  34.8140012 139.5534997  -5.8710012
  36.0990012 140.1074997  -6.4480012  35.6014158 139.4333291  -6.2154509
  19.9380012 137.7334997  -2.7600012  20.8580012 137.6114997  -2.5240012
  19.4890012 136.9834997  -2.3710012  20.0031580 137.6153727  -2.6750994
  37.9400012 133.2654997  -0.8840012  38.2900012 132.6114997  -1.4890012
  38.0870012 134.1024997  -1.3230012  38.0078419 133.2891591  -1.0262882
  35.6290012 135.2304997 -14.4010012  35.8120012 134.7814997 -13.5750012
  35.0300012 134.6454997 -14.8640012  35.5730202 135.0899975 -14.3506725
  21.1590012 136.0454997  -9.8690012  21.6050012 135.2534997  -9.5670012
  21.6260012 136.7614997  -9.4380012  21.2830172 136.0340624  -9.7695180
  19.4630012 139.0444997  -8.8000012  19.9550012 138.8234997  -9.5910012
  19.8260012 139.8854997  -8.5190012  19.5793126 139.1278357  -8.8702469
  37.4600012 135.3744997  -2.5340012  36.5420012 135.6454997  -2.5700012
  37.5830012 134.8394997  -3.3190012  37.3511066 135.3392892  -2.6449513
  37.4960012 135.2974997 -17.8730012  37.9080012 134.5764997 -18.3480012
  38.1780012 135.9674997 -17.8140012  37.6445885 135.2892368 -17.9301085
  19.7770012 135.3024997 -14.7460012  18.8520012 135.5114997 -14.8750012
  20.2310012 135.7864997 -15.4350012  19.7117368 135.3965993 -14.8568774
  19.7410012 134.0404997  -6.4010012  19.0760012 133.7944997  -5.7580012
  19.2980012 134.6624997  -6.9790012  19.5900956 134.0908632  -6.3910648
  36.4600012 133.4644997  -4.7150012  35.6480012 133.7894997  -5.1030012
  36.6930012 132.7044997  -5.2480012  36.3803423 133.4062436  -4.8401747
  29.8900012 134.9134997 -10.3930012  29.2160012 134.2844997 -10.1370012
  30.4540012 134.4294997 -10.9960012  29.8739230 134.7618744 -10.4394660
  35.0330012 133.0214997 -10.2800012  35.6370012 133.5684997 -10.7820012
  34.1630012 133.3404997 -10.5200012  34.9981241 133.1395806 -10.3812346
  36.7600012 134.1594997 -11.9470012  37.3720012 133.6454997 -12.4730012
  37.1420012 135.0374997 -11.9230012  36.8954540 134.2077140 -12.0158170
  22.2170012 133.5474997 -12.5710012  21.4400012 133.3134997 -13.0780012
  22.7470012 132.7504997 -12.5620012  22.1822330 133.4076988 -12.6392258
  21.0530012 133.3454997 -16.7670012  21.4920012 133.9564997 -17.3590012
  20.4200012 133.8834997 -16.2930012  21.0274514 133.5019257 -16.7839070
  26.7960012 133.4744997 -12.7570012  27.6710012 133.8624997 -12.7870012
  26.6600012 133.2594997 -11.8350012  26.8973695 133.4985184 -12.6363560
  32.3530012 133.5044997 -11.1080012  32.4290012 133.5994997 -12.0580012
  32.0780012 132.5964997 -10.9790012  32.3262321 133.3947867 -11.2204921
  33.7060012 133.5304997 -15.4160012  33.0040012 134.1454997 -15.6250012
  33.2620012 132.6924997 -15.2850012  33.5496330 133.5015783 -15.4269672
  22.9140012 135.2614997 -18.3250012  23.4060012 134.6314997 -18.8520012
  23.5380012 135.5574997 -17.6610012  23.0655446 135.2153199 -18.3074020
  27.9400012 135.5544997 -15.8680012  28.1180012 134.9084997 -15.1850012
  27.8870012 136.3884997 -15.4000012  27.9571829 135.5787985 -15.7114060
  22.1750012 134.0614997  -3.0530012  21.8090012 133.2964997  -2.6100012
  23.0880012 134.0904997  -2.7660012  22.2482790 133.9607224  -2.9535930
  24.1480012 133.4124997  -1.5170012  25.0460012 133.1384997  -1.7020012
  23.7610012 132.6694997  -1.0530012  24.2186612 133.2745914  -1.4796357
  32.5690012 132.7444997  -1.3350012  32.6460012 132.3184997  -0.4810012
  33.4630012 132.7584997  -1.6780012  32.7003428 132.6880880  -1.2644690
  50.1510012 142.7034997 -12.6120012  50.2400012 143.6474997 -12.7440012
  49.5130012 142.4284997 -13.2700012  50.0769081 142.7954830 -12.7190386
  49.0840012 141.9584997  -9.1930012  49.0460012 141.3124997  -8.4880012
  48.7620012 141.4924997  -9.9640012  49.0352333 141.8069408  -9.2007022
  41.4530012 141.5734997  -7.6000012  41.4940012 140.9474997  -6.8770012
  42.1560012 142.1974997  -7.4180012  41.5536363 141.5721196  -7.4763956
  52.7900012 144.8974997 -10.8920012  52.3500012 144.1774997 -10.4410012
  52.7770012 145.6184997 -10.2620012  52.7280226 144.8963731 -10.7451506
  38.9860012 139.6834997 -13.6720012  38.5390012 140.5294997 -13.6910012
  38.4250012 139.1034997 -14.1880012  38.8489900 139.7209916 -13.7443199
  39.6970012 141.8454997 -11.5460012  39.9100012 141.0754997 -11.0190012
  40.4350012 141.9344997 -12.1500012  39.8258496 141.7521394 -11.5554700
  47.4740012 144.3914997  -8.7870012  47.7780012 143.7054997  -9.3820012
  48.1950012 144.5094997  -8.1690012  47.6130671 144.3136305  -8.7848184
  56.1370012 135.9924997  -7.9260012  56.1860012 136.6024997  -7.1900012
  56.5620012 136.4534997  -8.6490012  56.2011824 136.1383741  -7.9229795
  50.6150012 138.7854997  -8.4590012  50.7570012 137.8394997  -8.4390012
  50.5080012 138.9924997  -9.3880012  50.6199864 138.6839534  -8.5817661
  43.7690012 136.8864997 -11.1870012  43.8130012 137.7464997 -11.6050012
  43.3120012 136.3344997 -11.8210012  43.7132185 136.9295799 -11.3299701
  51.4920012 137.0174997 -12.7860012  52.1380012 136.6884997 -12.1610012
  52.0020012 137.5354997 -13.4090012  51.6494264 137.0424611 -12.7846138
  40.3900012 139.2834997 -10.4250012  41.0430012 138.7334997  -9.9930012
  40.4140012 139.0094997 -11.3420012  40.4826683 139.1711466 -10.4897877
  45.5460012 140.8334997 -11.2100012  46.1620012 140.3074997 -10.7000012
  44.9600012 140.1934997 -11.6130012  45.5510810 140.6749208 -11.1946827
  56.5280012 137.4704997  -5.6900012  55.8400012 138.1284997  -5.7860012
  56.5440012 137.2734997  -4.7540012  56.4358525 137.5340462  -5.5765192
  42.5800012 135.8044997  -7.1130012  42.3610012 136.3344997  -7.8790012
  41.9120012 136.0314997  -6.4660012  42.4597600 135.9076906  -7.1303621
  45.1490012 143.4804997  -6.8260012  44.4090012 144.0784997  -6.7220012
  45.8630012 144.0344997  -7.1410012  45.1442237 143.6372831  -6.8543535
  53.2560012 136.3084997 -10.8060012  53.0400012 135.5424997 -10.2730012
  53.9110012 136.7804997 -10.2930012  53.3150632 136.2675889 -10.6637139
  42.1730012 137.6964997  -9.1610012  42.7870012 138.3294997  -8.7870012
  42.6850012 137.2244997  -9.8170012  42.3262296 137.7192370  -9.1985748
  53.6030012 135.0234997  -7.1260012  52.8670012 135.6344997  -7.1640012
  54.2860012 135.4384997  -7.6530012  53.5946541 135.1631374  -7.2024168
  46.6060012 133.1104997  -9.6600012  46.4890012 132.1614997  -9.7150012
  45.7510012 133.4424997  -9.3870012  46.4743733 133.0255409  -9.6306103
  54.4000012 144.9854997  -4.9320012  54.5400012 144.3944997  -5.6720012
  54.5670012 145.8584997  -5.2890012  54.4416778 145.0226426  -5.0813035
  48.8730012 141.9474997 -15.1600012  48.1610012 142.4824997 -15.5120012
  49.5640012 142.0034997 -15.8200012  48.8690132 142.0282543 -15.2973711
  48.9260012 140.4054997 -18.1210012  49.6270012 140.4274997 -17.4700012
  49.2290012 139.7774997 -18.7770012  49.0627830 140.3236566 -18.1206289
  56.2420012 141.3254997  -6.8660012  55.5890012 142.0204997  -6.7770012
  56.7070012 141.5354997  -7.6760012  56.2155390 141.4489425  -6.9633117
  52.2780012 142.1574997 -14.2080012  51.5460012 142.3854997 -13.6350012
  52.7260012 141.4434997 -13.7530012  52.2383095 142.0922571 -14.0680881
  52.1760012 140.3314997  -5.1410012  52.2560012 141.0944997  -4.5690012
  51.5740012 140.6104997  -5.8310012  52.1055756 140.4737134  -5.1559411
  43.9240012 142.7874997 -12.3260012  43.5930012 142.4174997 -13.1440012
  44.5120012 142.1174997 -11.9790012  43.9581873 142.6461156 -12.3911898
  44.2900012 141.5564997  -8.6920012  44.8560012 141.6774997  -9.4550012
  44.6090012 142.1934997  -8.0530012  44.4105786 141.6591884  -8.7099960
  51.1490012 141.3194997 -16.5230012  51.7290012 141.4694997 -15.7760012
  51.5630012 141.7904997 -17.2460012  51.2842830 141.4036841 -16.5185866
  42.0900012 142.1534997  -4.7460012  42.1610012 142.8044997  -4.0480012
  41.2000012 142.2564997  -5.0810012  41.9793117 142.2565936  -4.6957300
  54.8480012 133.0694997 -16.7100012  53.9480012 133.2084997 -16.4150012
  55.1000012 133.9004997 -17.1120012  54.7588702 133.2009074 -16.7239795
  42.9140012 141.8574997 -14.7360012  42.6220012 142.6254997 -15.2270012
  42.2400012 141.1974997 -14.8990012  42.7829081 141.8734406 -14.8252660
  39.0070012 144.2204997  -5.9210012  38.5060012 144.1924997  -6.7360012
  39.0120012 143.3144997  -5.6120012  38.9391526 144.0942278  -5.9907128
  54.1070012 139.1594997  -2.8750012  53.7000012 139.6404997  -3.5960012
  54.1480012 138.2544997  -3.1830012  54.0568437 139.1029374  -3.0153317
  43.8750012 134.0134997  -8.8830012  43.0130012 133.9264997  -9.2900012
  43.8520012 134.8694997  -8.4550012  43.7540330 134.1172765  -8.8808137
  48.5380012 133.7354997  -5.5080012  48.9580012 133.3204997  -4.7550012
  47.6050012 133.5574997  -5.3910012  48.4693644 133.6545900  -5.3890461
  51.8640012 137.4914997  -4.6550012  51.3500012 137.3654997  -3.8570012
  51.7090012 138.4034997  -4.8990012  51.7726852 137.5976132  -4.5787842
  52.6270012 142.3524997 -18.8930012  52.6690012 142.1294997 -19.8230012
  53.4760012 142.7514997 -18.7030012  52.7475396 142.3759155 -18.9946373
  48.1990012 136.2284997 -18.2230012  47.9460012 136.2474997 -17.3000012
  47.9430012 135.3564997 -18.5240012  48.1297790 136.1132437 -18.1373737
  43.9660012 138.9794997  -7.7880012  43.3240012 138.9384997  -7.0790012
  44.0030012 139.9054997  -8.0250012  43.8831324 139.0991559  -7.7230176
  43.9630012 139.2004997 -12.8760012  43.0700012 138.8594997 -12.9340012
  44.4130012 138.8234997 -13.6310012  43.9017305 139.1028484 -12.9860823
  49.4980012 139.6164997 -14.0590012  49.0890012 140.4314997 -14.3500012
  50.2190012 139.4764997 -14.6730012  49.5394537 139.7092018 -14.1818658
  48.6000012 139.7914997  -2.5710012  48.0380012 139.0874997  -2.2500012
  49.4270012 139.6714997  -2.1030012  48.6347095 139.6787883  -2.4637670
  50.5030012 139.0624997 -11.2450012  50.3080012 139.6674997 -11.9600012
  50.6840012 138.2284997 -11.6790012  50.5007614 139.0326300 -11.4015595
  41.7160012 139.2994997  -5.9210012  41.6780012 139.6994997  -5.0520012
  41.2250012 138.4824997  -5.8300012  41.6444684 139.2438069  -5.7898941
  45.0820012 136.6734997 -19.1220012  44.6510012 136.2284997 -18.3920012
  44.3640012 137.0454997 -19.6340012  44.9259438 136.6628940 -19.0913201
  38.3240012 136.4154997 -12.0700012  38.9550012 136.3864997 -11.3510012
  38.7730012 135.9904997 -12.8000012  38.4710774 136.3540492 -12.0703447
  39.5980012 137.1614997 -16.6460012  40.0720012 137.7524997 -17.2310012
  38.8810012 137.6924997 -16.2990012  39.5659341 137.3140867 -16.6791164
  49.7670012 140.7004997  -6.5730012  50.0900012 140.0694997  -7.2160012
  49.3270012 140.1654997  -5.9130012  49.7516895 140.5418441  -6.5717150
  46.5440012 136.6274997 -11.7890012  45.6330012 136.6844997 -11.5010012
  47.0500012 136.5674997 -10.9790012  46.4875413 136.6271985 -11.6399378
  41.3730012 138.2564997 -12.9630012  40.4830012 138.3564997 -13.3030012
  41.6690012 137.4144997 -13.3090012  41.2912823 138.1563545 -13.0562787
  45.0260012 138.2564997 -15.3060012  45.9570012 138.3854997 -15.1280012
  44.8110012 138.9264997 -15.9560012  45.1244247 138.3646565 -15.3694253
  50.9490012 135.8624997  -8.5250012  50.2730012 135.9934997  -7.8610012
  50.4640012 135.7074997  -9.3350012  50.7907145 135.8594905  -8.5435483
  43.7000012 139.4514997 -17.7390012  43.1570012 139.0714997 -18.4310012
  44.5330012 139.6454997 -18.1680012  43.7384399 139.4258124 -17.8915474
  41.8350012 144.0084997  -2.6400012  42.5670012 144.2624997  -2.0790012
  41.0550012 144.2124997  -2.1250012  41.8298232 144.0709177  -2.4934240
  47.8640012 139.4154997  -9.9020012  48.4290012 138.8684997 -10.4490012
  47.7170012 138.8934997  -9.1140012  47.9212918 139.2702024  -9.8701546
  42.8660012 135.5514997 -13.4840012  42.5490012 134.6494997 -13.5190012
  43.6480012 135.5534997 -14.0370012  42.9282284 135.4281628 -13.5635217
  46.4910012 137.8034997  -7.4880012  45.6550012 138.2574997  -7.3780012
  47.0150012 138.0794997  -6.7360012  46.4474414 137.9029376  -7.3712864
  47.0350012 144.0164997 -15.8040012  46.2900012 143.5094997 -16.1260012
  46.9010012 144.0654997 -14.8570012  46.9148776 143.9536940 -15.7201353
  54.1850012 143.1494997  -7.0170012  54.8270012 143.6064997  -7.5610012
  53.3550012 143.2624997  -7.4800012  54.1605963 143.2272704  -7.1539823
  50.9330012 136.8304997 -17.6040012  49.9940012 136.9424997 -17.7560012
  51.2300012 137.6874997 -17.2980012  50.8447666 136.9616443 -17.5834232
  48.5540012 144.2004997  -4.5670012  48.2090012 143.8194997  -3.7600012
  48.3540012 145.1344997  -4.4950012  48.4798061 144.2745228  -4.4469039
  51.6510012 138.6974997 -15.9440012  52.5430012 138.5604997 -15.6250012
  51.7080012 139.4884997 -16.4800012  51.7806285 138.7856660 -15.9728310
  42.1600012 143.3114997 -10.0340012  42.9050012 143.3094997 -10.6350012
  42.2380012 142.4884997  -9.5520012  42.2725518 143.1999315 -10.0511071
  39.1680012 141.7724997  -4.7190012  39.3910012 141.3544997  -3.8870012
  38.5660012 141.1594997  -5.1420012  39.1171759 141.6324668  -4.6622978
  46.1840012 141.2894997  -2.5060012  45.8880012 141.1234997  -3.4010012
  47.1160012 141.0694997  -2.5170012  46.2694166 141.2370640  -2.6299464
  56.5360012 138.9074997 -16.2490012  55.9820012 138.5114997 -16.9210012
  56.6360012 139.8174997 -16.5270012  56.4737059 138.9763586 -16.3785599
  56.4990012 144.7074997  -3.4120012  55.6480012 144.9454997  -3.7790012
  57.0900012 144.6904997  -4.1650012  56.4622487 144.7378258  -3.5641107
  51.9920012 142.5014997  -8.7630012  51.0630012 142.2694997  -8.7900012
  52.4430012 141.7244997  -9.0930012  51.9259216 142.3647238  -8.8113083
  40.2900012 141.6914997 -18.0430012  40.9060012 142.3184997 -17.6630012
  39.4280012 142.0074997 -17.7710012  40.2577698 141.8199430 -17.9542817
  45.9620012 144.4924997 -13.0530012  45.7210012 145.4174997 -13.0120012
  45.2210012 144.0334997 -12.6570012  45.8288409 144.5571421 -12.9938623
  50.0210012 144.7404997  -7.0380012  49.5950012 144.5134997  -6.2110012
  50.6010012 144.0024997  -7.2200012  50.0411868 144.6095299  -6.9494170
  40.8020012 136.5254997  -5.1610012  39.9090012 136.8644997  -5.2290012
  40.7030012 135.6704997  -4.7430012  40.6664164 136.4562588  -5.1137765
  53.0900012 144.3424997 -15.7370012  52.8120012 143.6144997 -15.1810012
  54.0170012 144.4614997 -15.5320012  53.1773124 144.2588802 -15.6331155
  41.7050012 143.6044997 -16.5500012  41.0190012 143.9564997 -15.9830012
  42.2270012 144.3674997 -16.7970012  41.6816852 143.7558578 -16.5057882
  49.5360012 136.2664997  -6.2710012  50.2350012 136.3404997  -5.6210012
  49.1550012 135.4024997  -6.1170012  49.5801767 136.1597624  -6.1611678
  50.3210012 135.9184997 -15.1740012  50.5410012 136.3904997 -15.9770012
  50.8790012 136.3134997 -14.5040012  50.4264968 136.0364285 -15.1932669
  47.5210012 137.6464997 -14.3390012  48.3330012 138.1514997 -14.2930012
  47.2760012 137.5014997 -13.4250012  47.5990520 137.6960375 -14.2091483
  48.0560012 138.6324997  -5.1540012  48.1750012 139.2064997  -4.3970012
  48.7120012 137.9444997  -5.0400012  48.1609757 138.6181079  -5.0349175
  48.4040012 134.7274997 -13.4010012  48.0580012 135.3454997 -12.7560012
  49.0630012 135.2284997 -13.8820012  48.4457826 134.8795802 -13.3779029
  44.0620012 135.7904997 -16.7140012  43.9790012 136.6794997 -16.3670012
  44.9520012 135.5254997 -16.4820012  44.1709469 135.8761430 -16.6352374
  54.2610012 136.5394997  -4.3190012  53.3440012 136.8024997  -4.4070012
  54.5960012 136.5364997  -5.2160012  54.1809900 136.5750224  -4.4522081
  52.8630012 140.2904997 -10.2240012  52.0650012 139.8754997 -10.5520012
  53.3080012 139.5994997  -9.7330012  52.8139885 140.1403543 -10.2025111
  40.6370012 138.8824997 -18.5370012  40.5920012 139.8214997 -18.3590012
  39.7490012 138.6464997 -18.8070012  40.5108574 138.9791892 -18.5491088
  41.4450012 133.6644997  -9.8640012  41.2160012 133.7234997 -10.7920012
  41.0020012 132.8724997  -9.5580012  41.3538530 133.5655753  -9.9495214
  39.5700012 144.0274997  -1.4190012  39.7140012 143.1254997  -1.7060012
  38.7980012 144.3134997  -1.9070012  39.4853322 143.9428261  -1.5242119
  43.9120012 144.3714997 -19.2870012  43.9760012 143.5774997 -18.7560012
  44.5650012 144.2524997 -19.9770012  44.0090241 144.2467148 -19.3075683
  46.2260012 143.9974997  -1.9870012  45.8970012 144.2684997  -2.8440012
  46.3780012 143.0564997  -2.0740012  46.2014809 143.9073862  -2.1161756
  51.9600012 143.9134997  -4.6030012  52.7060012 144.5014997  -4.7230012
  51.2030012 144.4954997  -4.5400012  51.9597554 144.0727011  -4.6109093
  40.4030012 141.2274997  -1.9990012  40.8110012 140.3704997  -2.1200012
  40.1430012 141.2424997  -1.0780012  40.4237568 141.1120807  -1.8910412
  45.0610012 142.3434997 -16.9810012  44.6010012 141.8594997 -16.2950012
  45.3160012 141.6754997 -17.6170012  45.0324902 142.1868731 -16.9730666
  44.3500012 140.2364997  -4.6250012  43.7320012 140.9114997  -4.3450012
  44.6940012 140.5574997  -5.4580012  44.3119615 140.3722721  -4.6993419
  46.1320012 140.5864997 -18.7190012  45.9520012 140.4324997 -19.6460012
  47.0820012 140.6944997 -18.6740012  46.2357776 140.5800175 -18.8398157
  49.3700012 142.7084997  -1.3480012  50.3230012 142.7914997  -1.3750012
  49.2090012 141.9964997  -0.7280012  49.4786426 142.6236746  -1.2679421
  55.5220012 142.9414997 -19.2730012  55.2480012 142.5164997 -20.0860012
  55.5610012 143.8724997 -19.4900012  55.4897699 143.0092484 -19.4136390
  44.6890012 137.5914997  -3.5430012  44.8390012 136.8624997  -4.1450012
  44.6920012 138.3684997  -4.1020012  44.7099302 137.5967851  -3.7009308
  45.1020012 135.9614997  -6.0500012  45.6380012 136.4124997  -6.7020012
  44.2500012 135.8534997  -6.4730012  45.0602178 136.0086390  -6.1964244
  46.6840012 141.4004997  -5.8110012  47.4340012 141.2444997  -6.3840012
  46.3450012 142.2524997  -6.0860012  46.7408921 141.4942968  -5.9266439
  51.0990012 139.2154997  -0.7820012  51.2920012 138.2844997  -0.8940012
  51.9570012 139.6404997  -0.7920012  51.2413020 139.1456389  -0.7986639
  52.4160012 142.0044997  -2.7050012  52.1350012 142.7134997  -3.2820012
  53.3590012 141.9314997  -2.8560012  52.5049027 142.0917646  -2.8044449
  43.1680012 138.7894997  -1.6310012  42.4010012 138.2574997  -1.8410012
  43.8470012 138.4794997  -2.2310012  43.1547022 138.6747506  -1.7408352
  45.9080012 133.4174997  -5.6190012  45.8090012 134.3644997  -5.7240012
  45.1650012 133.0454997  -6.0940012  45.7940564 133.4965902  -5.6975440
  47.1720012 137.7394997  -2.0550012  46.9360012 137.5194997  -1.1530012
  46.3880012 137.5324997  -2.5650012  47.0338628 137.6814760  -2.0006068
  49.8870012 136.8664997  -2.9790012  48.9400012 136.8984997  -2.8470012
  50.2000012 136.2414997  -2.3260012  49.7995475 136.7863207  -2.8725545
  51.5210012 135.5004997  -0.9740012  51.4250012 134.5484997  -0.9800012
  51.2000012 135.7694997  -0.1140012  51.4644070 135.4064035  -0.8584559
  41.3480012 136.7104997  -1.9270012  41.5600012 136.0034997  -2.5370012
  41.2370012 136.2724997  -1.0830012  41.3619721 136.5547084  -1.8963157
  46.1290012 132.7114997  -2.9470012  46.8410012 132.0714997  -2.9610012
  46.0280012 132.9784997  -3.8610012  46.2127939 132.6599938  -3.0724350
  46.4830012 134.3944997  -0.8940012  46.3510012 133.9184997  -1.7140012
  45.8840012 135.1384997  -0.9490012  46.3839071 134.4299618  -1.0137114
  55.9800012 143.8104997 -15.2980012  56.8300012 144.2314997 -15.1710012
  55.9860012 143.0704997 -14.6910012  56.0971372 143.7680803 -15.1985656
  56.3750012 141.8634997 -13.4740012  55.6480012 141.3844997 -13.0770012
  56.9560012 142.0694997 -12.7420012  56.3539375 141.8257090 -13.3205871
  56.1340012 144.6484997  -8.5270012  56.9670012 144.2704997  -8.8070012
  56.2460012 145.5914997  -8.6460012  56.2632647 144.7242218  -8.5814513
  56.6430012 141.7644997 -17.0830012  56.1210012 142.1214997 -17.8020012
  56.6100012 142.4394997 -16.4050012  56.5671634 141.9045413 -17.0896855
  54.9920012 139.0044997 -18.5320012  55.0880012 139.6714997 -19.2130012
  54.8520012 138.1884997 -19.0140012  54.9862135 138.9854500 -18.6901509
  54.1610012 140.3844997 -12.9110012  54.0110012 139.4394997 -12.9320012
  53.8080012 140.6654997 -12.0680012  54.0926625 140.2930441 -12.7997654
  39.1970012 142.4624997  -8.9010012  39.3810012 142.3804997  -9.8370012
  40.0460012 142.3384997  -8.4770012  39.3370139 142.4345003  -8.9718545
  55.0180012 142.3544997  -3.2730012  55.6010012 141.6204997  -3.0810012
  55.5820012 143.1264997  -3.2260012  55.1739769 142.3584227  -3.2403841
  56.5140012 140.2574997  -2.5880012  55.6510012 139.8784997  -2.7540012
  57.1190012 139.5184997  -2.6620012  56.4775979 140.1058023  -2.6207183
  54.2390012 136.4124997 -19.4150012  54.8500012 136.0414997 -18.7780012
  53.4030012 135.9914997 -19.2190012  54.2095032 136.3047554 -19.3012965
  53.8720012 137.9674997 -14.4490012  54.1520012 137.0604997 -14.3250012
  54.6310012 138.4014997 -14.8380012  54.0129277 137.9020942 -14.4846318
  54.4840012 138.5484997  -9.0130012  55.4170012 138.7604997  -9.0470012
  54.2490012 138.6504997  -8.0910012  54.5798036 138.5912769  -8.8930024
  54.5130012 139.2854997  -6.2370012  53.6700012 139.5534997  -5.8710012
  54.9550012 140.1074997  -6.4480012  54.4574158 139.4333291  -6.2154509
  38.7940012 137.7334997  -2.7600012  39.7140012 137.6114997  -2.5240012
  38.3450012 136.9834997  -2.3710012  38.8591580 137.6153727  -2.6750994
  56.7960012 133.2654997  -0.8840012  57.1460012 132.6114997  -1.4890012
  56.9430012 134.1024997  -1.3230012  56.8638419 133.2891591  -1.0262882
  54.4850012 135.2304997 -14.4010012  54.6680012 134.7814997 -13.5750012
  53.8860012 134.6454997 -14.8640012  54.4290202 135.0899975 -14.3506725
  40.0150012 136.0454997  -9.8690012  40.4610012 135.2534997  -9.5670012
  40.4820012 136.7614997  -9.4380012  40.1390172 136.0340624  -9.7695180
  38.3190012 139.0444997  -8.8000012  38.8110012 138.8234997  -9.5910012
  38.6820012 139.8854997  -8.5190012  38.4353126 139.1278357  -8.8702469
  56.3160012 135.3744997  -2.5340012  55.3980012 135.6454997  -2.5700012
  56.4390012 134.8394997  -3.3190012  56.2071066 135.3392892  -2.6449513
  56.3520012 135.2974997 -17.8730012  56.7640012 134.5764997 -18.3480012
  57.0340012 135.9674997 -17.8140012  56.5005885 135.2892368 -17.9301085
  38.6330012 135.3024997 -14.7460012  37.7080012 135.5114997 -14.8750012
  39.0870012 135.7864997 -15.4350012  38.5677368 135.3965993 -14.8568774
  38.5970012 134.0404997  -6.4010012  37.9320012 133.7944997  -5.7580012
  38.1540012 134.6624997  -6.9790012  38.4460956 134.0908632  -6.3910648
  55.3160012 133.4644997  -4.7150012  54.5040012 133.7894997  -5.1030012
  55.5490012 132.7044997  -5.2480012  55.2363423 133.4062436  -4.8401747
  48.7460012 134.9134997 -10.3930012  48.0720012 134.2844997 -10.1370012
  49.3100012 134.4294997 -10.9960012  48.7299230 134.7618744 -10.4394660
  53.8890012 133.0214997 -10.2800012  54.4930012 133.5684997 -10.7820012
  53.0190012 133.3404997 -10.5200012  53.8541241 133.1395806 -10.3812346
  55.6160012 134.1594997 -11.9470012  56.2280012 133.6454997 -12.4730012
  55.9980012 135.0374997 -11.9230012  55.7514540 134.2077140 -12.0158170
  41.0730012 133.5474997 -12.5710012  40.2960012 133.3134997 -13.0780012
  41.6030012 132.7504997 -12.5620012  41.0382330 133.4076988 -12.6392258
  39.9090012 133.3454997 -16.7670012  40.3480012 133.9564997 -17.3590012
  39.2760012 133.8834997 -16.2930012  39.8834514 133.5019257 -16.7839070
  45.6520012 133.4744997 -12.7570012  46.5270012 133.8624997 -12.7870012
  45.5160012 133.2594997 -11.8350012  45.7533695 133.4985184 -12.6363560
  51.2090012 133.5044997 -11.1080012  51.2850012 133.5994997 -12.0580012
  50.9340012 132.5964997 -10.9790012  51.1822321 133.3947867 -11.2204921
  52.5620012 133.5304997 -15.4160012  51.8600012 134.1454997 -15.6250012
  52.1180012 132.6924997 -15.2850012  52.4056330 133.5015783 -15.4269672
  41.7700012 135.2614997 -18.3250012  42.2620012 134.6314997 -18.8520012
  42.3940012 135.5574997 -17.6610012  41.9215446 135.2153199 -18.3074020
  46.7960012 135.5544997 -15.8680012  46.9740012 134.9084997 -15.1850012
  46.7430012 136.3884997 -15.4000012  46.8131829 135.5787985 -15.7114060
  41.0310012 134.0614997  -3.0530012  40.6650012 133.2964997  -2.6100012
  41.9440012 134.0904997  -2.7660012  41.1042790 133.9607224  -2.9535930
  43.0040012 133.4124997  -1.5170012  43.9020012 133.1384997  -1.7020012
  42.6170012 132.6694997  -1.0530012  43.0746612 133.2745914  -1.4796357
  51.4250012 132.7444997  -1.3350012  51.5020012 132.3184997  -0.4810012
  52.3190012 132.7584997  -1.6780012  51.5563428 132.6880880  -1.2644690
  69.0070012 142.7034997 -12.6120012  69.0960012 143.6474997 -12.7440012
  68.3690012 142.4284997 -13.2700012  68.9329081 142.7954830 -12.7190386
  67.9400012 141.9584997  -9.1930012  67.9020012 141.3124997  -8.4880012
  67.6180012 141.4924997  -9.9640012  67.8912333 141.8069408  -9.2007022
  60.3090012 141.5734997  -7.6000012  60.3500012 140.9474997  -6.8770012
  61.0120012 142.1974997  -7.4180012  60.4096363 141.5721196  -7.4763956
  71.6460012 144.8974997 -10.8920012  71.2060012 144.1774997 -10.4410012
  71.6330012 145.6184997 -10.2620012  71.5840226 144.8963731 -10.7451506
  57.8420012 139.6834997 -13.6720012  57.3950012 140.5294997 -13.6910012
  57.2810012 139.1034997 -14.1880012  57.7049900 139.7209916 -13.7443199
  58.5530012 141.8454997 -11.5460012  58.7660012 141.0754997 -11.0190012
  59.2910012 141.9344997 -12.1500012  58.6818496 141.7521394 -11.5554700
  66.3300012 144.3914997  -8.7870012  66.6340012 143.7054997  -9.3820012
  67.0510012 144.5094997  -8.1690012  66.4690671 144.3136305  -8.7848184
  74.9930012 135.9924997  -7.9260012  75.0420012 136.6024997  -7.1900012
  75.4180012 136.4534997  -8.6490012  75.0571824 136.1383741  -7.9229795
  69.4710012 138.7854997  -8.4590012  69.6130012 137.8394997  -8.4390012
  69.3640012 138.9924997  -9.3880012  69.4759864 138.6839534  -8.5817661
  62.6250012 136.8864997 -11.1870012  62.6690012 137.7464997 -11.6050012
  62.1680012 136.3344997 -11.8210012  62.5692185 136.9295799 -11.3299701
  70.3480012 137.0174997 -12.7860012  70.9940012 136.6884997 -12.1610012
  70.8580012 137.5354997 -13.4090012  70.5054264 137.0424611 -12.7846138
  59.2460012 139.2834997 -10.4250012  59.8990012 138.7334997  -9.9930012
  59.2700012 139.0094997 -11.3420012  59.3386683 139.1711466 -10.4897877
  64.4020012 140.8334997 -11.2100012  65.0180012 140.3074997 -10.7000012
  63.8160012 140.1934997 -11.6130012  64.4070810 140.6749208 -11.1946827
  75.3840012 137.4704997  -5.6900012  74.6960012 138.1284997  -5.7860012
  75.4000012 137.2734997  -4.7540012  75.2918525 137.5340462  -5.5765192
  61.4360012 135.8044997  -7.1130012  61.2170012 136.3344997  -7.8790012
  60.7680012 136.0314997  -6.4660012  61.3157600 135.9076906  -7.1303621
  64.0050012 143.4804997  -6.8260012  63.2650012 144.0784997  -6.7220012
  64.7190012 144.0344997  -7.1410012  64.0002237 143.6372831  -6.8543535
  72.1120012 136.3084997 -10.8060012  71.8960012 135.5424997 -10.2730012
  72.7670012 136.7804997 -10.2930012  72.1710632 136.2675889 -10.6637139
  61.0290012 137.6964997  -9.1610012  61.6430012 138.3294997  -8.7870012
  61.5410012 137.2244997  -9.8170012  61.1822296 137.7192370  -9.1985748
  72.4590012 135.0234997  -7.1260012  71.7230012 135.6344997  -7.1640012
  73.1420012 135.4384997  -7.6530012  72.4506541 135.1631374  -7.2024168
  65.4620012 133.1104997  -9.6600012  65.3450012 132.1614997  -9.7150012
  64.6070012 133.4424997  -9.3870012  65.3303733 133.0255409  -9.6306103
  73.2560012 144.9854997  -4.9320012  73.3960012 144.3944997  -5.6720012
  73.4230012 145.8584997  -5.2890012  73.2976778 145.0226426  -5.0813035
  67.7290012 141.9474997 -15.1600012  67.0170012 142.4824997 -15.5120012
  68.4200012 142.0034997 -15.8200012  67.7250132 142.0282543 -15.2973711
  67.7820012 140.4054997 -18.1210012  68.4830012 140.4274997 -17.4700012
  68.0850012 139.7774997 -18.7770012  67.9187830 140.3236566 -18.1206289
  75.0980012 141.3254997  -6.8660012  74.4450012 142.0204997  -6.7770012
  75.5630012 141.5354997  -7.6760012  75.0715390 141.4489425  -6.9633117
  71.1340012 142.1574997 -14.2080012  70.4020012 142.3854997 -13.6350012
  71.5820012 141.4434997 -13.7530012  71.0943095 142.0922571 -14.0680881
  71.0320012 140.3314997  -5.1410012  71.1120012 141.0944997  -4.5690012
  70.4300012 140.6104997  -5.8310012  70.9615756 140.4737134  -5.1559411
  62.7800012 142.7874997 -12.3260012  62.4490012 142.4174997 -13.1440012
  63.3680012 142.1174997 -11.9790012  62.8141873 142.6461156 -12.3911898
  63.1460012 141.5564997  -8.6920012  63.7120012 141.6774997  -9.4550012
  63.4650012 142.1934997  -8.0530012  63.2665786 141.6591884  -8.7099960
  70.0050012 141.3194997 -16.5230012  70.5850012 141.4694997 -15.7760012
  70.4190012 141.7904997 -17.2460012  70.1402830 141.4036841 -16.5185866
  60.9460012 142.1534997  -4.7460012  61.0170012 142.8044997  -4.0480012
  60.0560012 142.2564997  -5.0810012  60.8353117 142.2565936  -4.6957300
  73.7040012 133.0694997 -16.7100012  72.8040012 133.2084997 -16.4150012
  73.9560012 133.9004997 -17.1120012  73.6148702 133.2009074 -16.7239795
  61.7700012 141.8574997 -14.7360012  61.4780012 142.6254997 -15.2270012
  61.0960012 141.1974997 -14.8990012  61.6389081 141.8734406 -14.8252660
  57.8630012 144.2204997  -5.9210012  57.3620012 144.1924997  -6.7360012
  57.8680012 143.3144997  -5.6120012  57.7951526 144.0942278  -5.9907128
  72.9630012 139.1594997  -2.8750012  72.5560012 139.6404997  -3.5960012
  73.0040012 138.2544997  -3.1830012  72.9128437 139.1029374  -3.0153317
  62.7310012 134.0134997  -8.8830012  61.8690012 133.9264997  -9.2900012
  62.7080012 134.8694997  -8.4550012  62.6100330 134.1172765  -8.8808137
  67.3940012 133.7354997  -5.5080012  67.8140012 133.3204997  -4.7550012
  66.4610012 133.5574997  -5.3910012  67.3253644 133.6545900  -5.3890461
  70.7200012 137.4914997  -4.6550012  70.2060012 137.3654997  -3.8570012
  70.5650012 138.4034997  -4.8990012  70.6286852 137.5976132  -4.5787842
  71.4830012 142.3524997 -18.8930012  71.5250012 142.1294997 -19.8230012
  72.3320012 142.7514997 -18.7030012  71.6035396 142.3759155 -18.9946373
  67.0550012 136.2284997 -18.2230012  66.8020012 136.2474997 -17.3000012
  66.7990012 135.3564997 -18.5240012  66.9857790 136.1132437 -18.1373737
  62.8220012 138.9794997  -7.7880012  62.1800012 138.9384997  -7.0790012
  62.8590012 139.9054997  -8.0250012  62.7391324 139.0991559  -7.7230176
  62.8190012 139.2004997 -12.8760012  61.9260012 138.8594997 -12.9340012
  63.2690012 138.8234997 -13.6310012  62.7577305 139.1028484 -12.9860823
  68.3540012 139.6164997 -14.0590012  67.9450012 140.4314997 -14.3500012
  69.0750012 139.4764997 -14.6730012  68.3954537 139.7092018 -14.1818658
  67.4560012 139.7914997  -2.5710012  66.8940012 139.0874997  -2.2500012
  68.2830012 139.6714997  -2.1030012  67.4907095 139.6787883  -2.4637670
  69.3590012 139.0624997 -11.2450012  69.1640012 139.6674997 -11.9600012
  69.5400012 138.2284997 -11.6790012  69.3567614 139.0326300 -11.4015595
  60.5720012 139.2994997  -5.9210012  60.5340012 139.6994997  -5.0520012
  60.0810012 138.4824997  -5.8300012  60.5004684 139.2438069  -5.7898941
  63.9380012 136.6734997 -19.1220012  63.5070012 136.2284997 -18.3920012
  63.2200012 137.0454997 -19.6340012  63.7819438 136.6628940 -19.0913201
  57.1800012 136.4154997 -12.0700012  57.8110012 136.3864997 -11.3510012
  57.6290012 135.9904997 -12.8000012  57.3270774 136.3540492 -12.0703447
  58.4540012 137.1614997 -16.6460012  58.9280012 137.7524997 -17.2310012
  57.7370012 137.6924997 -16.2990012  58.4219341 137.3140867 -16.6791164
  68.6230012 140.7004997  -6.5730012  68.9460012 140.0694997  -7.2160012
  68.1830012 140.1654997  -5.9130012  68.6076895 140.5418441  -6.5717150
  65.4000012 136.6274997 -11.7890012  64.4890012 136.6844997 -11.5010012
  65.9060012 136.5674997 -10.9790012  65.3435413 136.6271985 -11.6399378
  60.2290012 138.2564997 -12.9630012  59.3390012 138.3564997 -13.3030012
  60.5250012 137.4144997 -13.3090012  60.1472823 138.1563545 -13.0562787
  63.8820012 138.2564997 -15.3060012  64.8130012 138.3854997 -15.1280012
  63.6670012 138.9264997 -15.9560012  63.9804247 138.3646565 -15.3694253
  69.8050012 135.8624997  -8.5250012  69.1290012 135.9934997  -7.8610012
  69.3200012 135.7074997  -9.3350012  69.6467145 135.8594905  -8.5435483
  62.5560012 139.4514997 -17.7390012  62.0130012 139.0714997 -18.4310012
  63.3890012 139.6454997 -18.1680012  62.5944399 139.4258124 -17.8915474
  60.6910012 144.0084997  -2.6400012  61.4230012 144.2624997  -2.0790012
  59.9110012 144.2124997  -2.1250012  60.6858232 144.0709177  -2.4934240
  66.7200012 139.4154997  -9.9020012  67.2850012 138.8684997 -10.4490012
  66.5730012 138.8934997  -9.1140012  66.7772918 139.2702024  -9.8701546
  61.7220012 135.5514997 -13.4840012  61.4050012 134.6494997 -13.5190012
  62.5040012 135.5534997 -14.0370012  61.7842284 135.4281628 -13.5635217
  65.3470012 137.8034997  -7.4880012  64.5110012 138.2574997  -7.3780012
  65.8710012 138.0794997  -6.7360012  65.3034414 137.9029376  -7.3712864
  65.8910012 144.0164997 -15.8040012  65.1460012 143.5094997 -16.1260012
  65.7570012 144.0654997 -14.8570012  65.7708776 143.9536940 -15.7201353
  73.0410012 143.1494997  -7.0170012  73.6830012 143.6064997  -7.5610012
  72.2110012 143.2624997  -7.4800012  73.0165963 143.2272704  -7.1539823
  69.7890012 136.8304997 -17.6040012  68.8500012 136.9424997 -17.7560012
  70.0860012 137.6874997 -17.2980012  69.7007666 136.9616443 -17.5834232
  67.4100012 144.2004997  -4.5670012  67.0650012 143.8194997  -3.7600012
  67.2100012 145.1344997  -4.4950012  67.3358061 144.2745228  -4.4469039
  70.5070012 138.6974997 -15.9440012  71.3990012 138.5604997 -15.6250012
  70.5640012 139.4884997 -16.4800012  70.6366285 138.7856660 -15.9728309
  61.0160012 143.3114997 -10.0340012  61.7610012 143.3094997 -10.6350012
  61.0940012 142.4884997  -9.5520012  61.1285518 143.1999315 -10.0511071
  58.0240012 141.7724997  -4.7190012  58.2470012 141.3544997  -3.8870012
  57.4220012 141.1594997  -5.1420012  57.9731759 141.6324668  -4.6622978
  65.0400012 141.2894997  -2.5060012  64.7440012 141.1234997  -3.4010012
  65.9720012 141.0694997  -2.5170012  65.1254166 141.2370640  -2.6299464
  75.3920012 138.9074997 -16.2490012  74.8380012 138.5114997 -16.9210012
  75.4920012 139.8174997 -16.5270012  75.3297059 138.9763586 -16.3785599
  75.3550012 144.7074997  -3.4120012  74.5040012 144.9454997  -3.7790012
  75.9460012 144.6904997  -4.1650012  75.3182487 144.7378258  -3.5641107
  70.8480012 142.5014997  -8.7630012  69.9190012 142.2694997  -8.7900012
  71.2990012 141.7244997  -9.0930012  70.7819216 142.3647238  -8.8113083
  59.1460012 141.6914997 -18.0430012  59.7620012 142.3184997 -17.6630012
  58.2840012 142.0074997 -17.7710012  59.1137698 141.8199430 -17.9542817
  64.8180012 144.4924997 -13.0530012  64.5770012 145.4174997 -13.0120012
  64.0770012 144.0334997 -12.6570012  64.6848409 144.5571421 -12.9938623
  68.8770012 144.7404997  -7.0380012  68.4510012 144.5134997  -6.2110012
  69.4570012 144.0024997  -7.2200012  68.8971868 144.6095299  -6.9494170
  59.6580012 136.5254997  -5.1610012  58.7650012 136.8644997  -5.2290012
  59.5590012 135.6704997  -4.7430012  59.5224164 136.4562588  -5.1137765
  71.9460012 144.3424997 -15.7370012  71.6680012 143.6144997 -15.1810012
  72.8730012 144.4614997 -15.5320012  72.0333124 144.2588802 -15.6331155
  60.5610012 143.6044997 -16.5500012  59.8750012 143.9564997 -15.9830012
  61.0830012 144.3674997 -16.7970012  60.5376852 143.7558578 -16.5057882
  68.3920012 136.2664997  -6.2710012  69.0910012 136.3404997  -5.6210012
  68.0110012 135.4024997  -6.1170012  68.4361767 136.1597624  -6.1611678
  69.1770012 135.9184997 -15.1740012  69.3970012 136.3904997 -15.9770012
  69.7350012 136.3134997 -14.5040012  69.2824968 136.0364285 -15.1932669
  66.3770012 137.6464997 -14.3390012  67.1890012 138.1514997 -14.2930012
  66.1320012 137.5014997 -13.4250012  66.4550520 137.6960375 -14.2091483
  66.9120012 138.6324997  -5.1540012  67.0310012 139.2064997  -4.3970012
  67.5680012 137.9444997  -5.0400012  67.0169757 138.6181079  -5.0349175
  67.2600012 134.7274997 -13.4010012  66.9140012 135.3454997 -12.7560012
  67.9190012 135.2284997 -13.8820012  67.3017826 134.8795802 -13.3779029
  62.9180012 135.7904997 -16.7140012  62.8350012 136.6794997 -16.3670012
  63.8080012 135.5254997 -16.4820012  63.0269469 135.8761430 -16.6352374
  73.1170012 136.5394997  -4.3190012  72.2000012 136.8024997  -4.4070012
  73.4520012 136.5364997  -5.2160012  73.0369900 136.5750224  -4.4522081
  71.7190012 140.2904997 -10.2240012  70.9210012 139.8754997 -10.5520012
  72.1640012 139.5994997  -9.7330012  71.6699885 140.1403543 -10.2025111
  59.4930012 138.8824997 -18.5370012  59.4480012 139.8214997 -18.3590012
  58.6050012 138.6464997 -18.8070012  59.3668574 138.9791892 -18.5491088
  60.3010012 133.6644997  -9.8640012  60.0720012 133.7234997 -10.7920012
  59.8580012 132.8724997  -9.5580012  60.2098530 133.5655753  -9.9495214
  58.4260012 144.0274997  -1.4190012  58.5700012 143.1254997  -1.7060012
  57.6540012 144.3134997  -1.9070012  58.3413322 143.9428261  -1.5242119
  62.7680012 144.3714997 -19.2870012  62.8320012 143.5774997 -18.7560012
  63.4210012 144.2524997 -19.9770012  62.8650241 144.2467148 -19.3075683
  65.0820012 143.9974997  -1.9870012  64.7530012 144.2684997  -2.8440012
  65.2340012 143.0564997  -2.0740012  65.0574809 143.9073862  -2.1161756
  70.8160012 143.9134997  -4.6030012  71.5620012 144.5014997  -4.7230012
  70.0590012 144.4954997  -4.5400012  70.8157554 144.0727011  -4.6109093
  59.2590012 141.2274997  -1.9990012  59.6670012 140.3704997  -2.1200012
  58.9990012 141.2424997  -1.0780012  59.2797568 141.1120807  -1.8910412
  63.9170012 142.3434997 -16.9810012  63.4570012 141.8594997 -16.2950012
  64.1720012 141.6754997 -17.6170012  63.8884902 142.1868731 -16.9730666
  63.2060012 140.2364997  -4.6250012  62.5880012 140.9114997  -4.3450012
  63.5500012 140.5574997  -5.4580012  63.1679615 140.3722721  -4.6993419
  64.9880012 140.5864997 -18.7190012  64.8080012 140.4324997 -19.6460012
  65.9380012 140.6944997 -18.6740012  65.0917776 140.5800175 -18.8398157
  68.2260012 142.7084997  -1.3480012  69.1790012 142.7914997  -1.3750012
  68.0650012 141.9964997  -0.7280012  68.3346426 142.6236746  -1.2679421
  74.3780012 142.9414997 -19.2730012  74.1040012 142.5164997 -20.0860012
  74.4170012 143.8724997 -19.4900012  74.3457699 143.0092484 -19.4136390
  63.5450012 137.5914997  -3.5430012  63.6950012 136.8624997  -4.1450012
  63.5480012 138.3684997  -4.1020012  63.5659302 137.5967851  -3.7009308
  63.9580012 135.9614997  -6.0500012  64.4940012 136.4124997  -6.7020012
  63.1060012 135.8534997  -6.4730012  63.9162178 136.0086390  -6.1964244
  65.5400012 141.4004997  -5.8110012  66.2900012 141.2444997  -6.3840012
  65.2010012 142.2524997  -6.0860012  65.5968921 141.4942968  -5.9266439
  69.9550012 139.2154997  -0.7820012  70.1480012 138.2844997  -0.8940012
  70.8130012 139.6404997  -0.7920012  70.0973020 139.1456389  -0.7986639
  71.2720012 142.0044997  -2.7050012  70.9910012 142.7134997  -3.2820012
  72.2150012 141.9314997  -2.8560012  71.3609027 142.0917646  -2.8044449
  62.0240012 138.7894997  -1.6310012  61.2570012 138.2574997  -1.8410012
  62.7030012 138.4794997  -2.2310012  62.0107022 138.6747506  -1.7408352
  64.7640012 133.4174997  -5.6190012  64.6650012 134.3644997  -5.7240012
  64.0210012 133.0454997  -6.0940012  64.6500564 133.4965902  -5.6975440
  66.0280012 137.7394997  -2.0550012  65.7920012 137.5194997  -1.1530012
  65.2440012 137.5324997  -2.5650012  65.8898628 137.6814760  -2.0006068
  68.7430012 136.8664997  -2.9790012  67.7960012 136.8984997  -2.8470012
  69.0560012 136.2414997  -2.3260012  68.6555475 136.7863207  -2.8725545
  70.3770012 135.5004997  -0.9740012  70.2810012 134.5484997  -0.9800012
  70.0560012 135.7694997  -0.1140012  70.3204070 135.4064035  -0.8584559
  60.2040012 136.7104997  -1.9270012  60.4160012 136.0034997  -2.5370012
  60.0930012 136.2724997  -1.0830012  60.2179721 136.5547084  -1.8963157
  64.9850012 132.7114997  -2.9470012  65.6970012 132.0714997  -2.9610012
  64.8840012 132.9784997  -3.8610012  65.0687939 132.6599938  -3.0724350
  65.3390012 134.3944997  -0.8940012  65.2070012 133.9184997  -1.7140012
  64.7400012 135.1384997  -0.9490012  65.2399071 134.4299618  -1.0137114
  74.8360012 143.8104997 -15.2980012  75.6860012 144.2314997 -15.1710012
  74.8420012 143.0704997 -14.6910012  74.9531372 143.7680803 -15.1985656
  75.2310012 141.8634997 -13.4740012  74.5040012 141.3844997 -13.0770012
  75.8120012 142.0694997 -12.7420012  75.2099375 141.8257090 -13.3205871
  74.9900012 144.6484997  -8.5270012  75.8230012 144.2704997  -8.8070012
  75.1020012 145.5914997  -8.6460012  75.1192647 144.7242218  -8.5814513
  75.4990012 141.7644997 -17.0830012  74.9770012 142.1214997 -17.8020012
  75.4660012 142.4394997 -16.4050012  75.4231634 141.9045413 -17.0896855
  73.8480012 139.0044997 -18.5320012  73.9440012 139.6714997 -19.2130012
  73.7080012 138.1884997 -19.0140012  73.8422135 138.9854500 -18.6901509
  73.0170012 140.3844997 -12.9110012  72.8670012 139.4394997 -12.9320012
  72.6640012 140.6654997 -12.0680012  72.9486625 140.2930441 -12.7997654
  58.0530012 142.4624997  -8.9010012  58.2370012 142.3804997  -9.8370012
  58.9020012 142.3384997  -8.4770012  58.1930139 142.4345003  -8.9718545
  73.8740012 142.3544997  -3.2730012  74.4570012 141.6204997  -3.0810012
  74.4380012 143.1264997  -3.2260012  74.0299769 142.3584227  -3.2403841
  75.3700012 140.2574997  -2.5880012  74.5070012 139.8784997  -2.7540012
  75.9750012 139.5184997  -2.6620012  75.3335979 140.1058023  -2.6207183
  73.0950012 136.4124997 -19.4150012  73.7060012 136.0414997 -18.7780012
  72.2590012 135.9914997 -19.2190012  73.0655032 136.3047554 -19.3012965
  72.7280012 137.9674997 -14.4490012  73.0080012 137.0604997 -14.3250012
  73.4870012 138.4014997 -14.8380012  72.8689277 137.9020942 -14.4846318
  73.3400012 138.5484997  -9.0130012  74.2730012 138.7604997  -9.0470012
  73.1050012 138.6504997  -8.0910012  73.4358036 138.5912769  -8.8930024
  73.3690012 139.2854997  -6.2370012  72.5260012 139.5534997  -5.8710012
  73.8110012 140.1074997  -6.4480012  73.3134158 139.4333291  -6.2154509
  57.6500012 137.7334997  -2.7600012  58.5700012 137.6114997  -2.5240012
  57.2010012 136.9834997  -2.3710012  57.7151580 137.6153727  -2.6750994
  75.6520012 133.2654997  -0.8840012  76.0020012 132.6114997  -1.4890012
  75.7990012 134.1024997  -1.3230012  75.7198419 133.2891591  -1.0262882
  73.3410012 135.2304997 -14.4010012  73.5240012 134.7814997 -13.5750012
  72.7420012 134.6454997 -14.8640012  73.2850202 135.0899975 -14.3506725
  58.8710012 136.0454997  -9.8690012  59.3170012 135.2534997  -9.5670012
  59.3380012 136.7614997  -9.4380012  58.9950172 136.0340624  -9.7695180
  57.1750012 139.0444997  -8.8000012  57.6670012 138.8234997  -9.5910012
  57.5380012 139.8854997  -8.5190012  57.2913126 139.1278357  -8.8702469
  75.1720012 135.3744997  -2.5340012  74.2540012 135.6454997  -2.5700012
  75.2950012 134.8394997  -3.3190012  75.0631066 135.3392892  -2.6449513
  75.2080012 135.2974997 -17.8730012  75.6200012 134.5764997 -18.3480012
  75.8900012 135.9674997 -17.8140012  75.3565885 135.2892368 -17.9301085
  57.4890012 135.3024997 -14.7460012  56.5640012 135.5114997 -14.8750012
  57.9430012 135.7864997 -15.4350012  57.4237368 135.3965993 -14.8568774
  57.4530012 134.0404997  -6.4010012  56.7880012 133.7944997  -5.7580012
  57.0100012 134.6624997  -6.9790012  57.3020956 134.0908632  -6.3910648
  74.1720012 133.4644997  -4.7150012  73.3600012 133.7894997  -5.1030012
  74.4050012 132.7044997  -5.2480012  74.0923423 133.4062436  -4.8401747
  67.6020012 134.9134997 -10.3930012  66.9280012 134.2844997 -10.1370012
  68.1660012 134.4294997 -10.9960012  67.5859230 134.7618744 -10.4394660
  72.7450012 133.0214997 -10.2800012  73.3490012 133.5684997 -10.7820012
  71.8750012 133.3404997 -10.5200012  72.7101241 133.1395806 -10.3812346
  74.4720012 134.1594997 -11.9470012  75.0840012 133.6454997 -12.4730012
  74.8540012 135.0374997 -11.9230012  74.6074540 134.2077140 -12.0158170
  59.9290012 133.5474997 -12.5710012  59.1520012 133.3134997 -13.0780012
  60.4590012 132.7504997 -12.5620012  59.8942330 133.4076988 -12.6392258
  58.7650012 133.3454997 -16.7670012  59.2040012 133.9564997 -17.3590012
  58.1320012 133.8834997 -16.2930012  58.7394514 133.5019257 -16.7839070
  64.5080012 133.4744997 -12.7570012  65.3830012 133.8624997 -12.7870012
  64.3720012 133.2594997 -11.8350012  64.6093695 133.4985184 -12.6363560
  70.0650012 133.5044997 -11.1080012  70.1410012 133.5994997 -12.0580012
  69.7900012 132.5964997 -10.9790012  70.0382321 133.3947867 -11.2204921
  71.4180012 133.5304997 -15.4160012  70.7160012 134.1454997 -15.6250012
  70.9740012 132.6924997 -15.2850012  71.2616330 133.5015783 -15.4269672
  60.6260012 135.2614997 -18.3250012  61.1180012 134.6314997 -18.8520012
  61.2500012 135.5574997 -17.6610012  60.7775446 135.2153199 -18.3074020
  65.6520012 135.5544997 -15.8680012  65.8300012 134.9084997 -15.1850012
  65.5990012 136.3884997 -15.4000012  65.6691829 135.5787985 -15.7114060
  59.8870012 134.0614997  -3.0530012  59.5210012 133.2964997  -2.6100012
  60.8000012 134.0904997  -2.7660012  59.9602790 133.9607224  -2.9535930
  61.8600012 133.4124997  -1.5170012  62.7580012 133.1384997  -1.7020012
  61.4730012 132.6694997  -1.0530012  61.9306612 133.2745914  -1.4796357
  70.2810012 132.7444997  -1.3350012  70.3580012 132.3184997  -0.4810012
  71.1750012 132.7584997  -1.6780012  70.4123428 132.6880879  -1.2644690
  87.8630012 142.7034997 -12.6120012  87.9520012 143.6474997 -12.7440012
  87.2250012 142.4284997 -13.2700012  87.7889081 142.7954830 -12.7190386
  86.7960012 141.9584997  -9.1930012  86.7580012 141.3124997  -8.4880012
  86.4740012 141.4924997  -9.9640012  86.7472333 141.8069408  -9.2007022
  79.1650012 141.5734997  -7.6000012  79.2060012 140.9474997  -6.8770012
  79.8680012 142.1974997  -7.4180012  79.2656363 141.5721196  -7.4763956
  90.5020012 144.8974997 -10.8920012  90.0620012 144.1774997 -10.4410012
  90.4890012 145.6184997 -10.2620012  90.4400226 144.8963731 -10.7451506
  76.6980012 139.6834997 -13.6720012  76.2510012 140.5294997 -13.6910012
  76.1370012 139.1034997 -14.1880012  76.5609900 139.7209916 -13.7443199
  77.4090012 141.8454997 -11.5460012  77.6220012 141.0754997 -11.0190012
  78.1470012 141.9344997 -12.1500012  77.5378496 141.7521394 -11.5554700
  85.1860012 144.3914997  -8.7870012  85.4900012 143.7054997  -9.3820012
  85.9070012 144.5094997  -8.1690012  85.3250671 144.3136305  -8.7848184
  93.8490012 135.9924997  -7.9260012  93.8980012 136.6024997  -7.1900012
  94.2740012 136.4534997  -8.6490012  93.9131824 136.1383741  -7.9229795
  88.3270012 138.7854997  -8.4590012  88.4690012 137.8394997  -8.4390012
  88.2200012 138.9924997  -9.3880012  88.3319864 138.6839534  -8.5817661
  81.4810012 136.8864997 -11.1870012  81.5250012 137.7464997 -11.6050012
  81.0240012 136.3344997 -11.8210012  81.4252185 136.9295799 -11.3299701
  89.2040012 137.0174997 -12.7860012  89.8500012 136.6884997 -12.1610012
  89.7140012 137.5354997 -13.4090012  89.3614264 137.0424611 -12.7846138
  78.1020012 139.2834997 -10.4250012  78.7550012 138.7334997  -9.9930012
  78.1260012 139.0094997 -11.3420012  78.1946683 139.1711466 -10.4897877
  83.2580012 140.8334997 -11.2100012  83.8740012 140.3074997 -10.7000012
  82.6720012 140.1934997 -11.6130012  83.2630810 140.6749208 -11.1946827
  94.2400012 137.4704997  -5.6900012  93.5520012 138.1284997  -5.7860012
  94.2560012 137.2734997  -4.7540012  94.1478525 137.5340462  -5.5765192
  80.2920012 135.8044997  -7.1130012  80.0730012 136.3344997  -7.8790012
  79.6240012 136.0314997  -6.4660012  80.1717600 135.9076906  -7.1303621
  82.8610012 143.4804997  -6.8260012  82.1210012 144.0784997  -6.7220012
  83.5750012 144.0344997  -7.1410012  82.8562237 143.6372831  -6.8543535
  90.9680012 136.3084997 -10.8060012  90.7520012 135.5424997 -10.2730012
  91.6230012 136.7804997 -10.2930012  91.0270632 136.2675889 -10.6637139
  79.8850012 137.6964997  -9.1610012  80.4990012 138.3294997  -8.7870012
  80.3970012 137.2244997  -9.8170012  80.0382296 137.7192370  -9.1985748
  91.3150012 135.0234997  -7.1260012  90.5790012 135.6344997  -7.1640012
  91.9980012 135.4384997  -7.6530012  91.3066541 135.1631374  -7.2024168
  84.3180012 133.1104997  -9.6600012  84.2010012 132.1614997  -9.7150012
  83.4630012 133.4424997  -9.3870012  84.1863733 133.0255409  -9.6306103
  92.1120012 144.9854997  -4.9320012  92.2520012 144.3944997  -5.6720012
  92.2790012 145.8584997  -5.2890012  92.1536778 145.0226426  -5.0813035
  86.5850012 141.9474997 -15.1600012  85.8730012 142.4824997 -15.5120012
  87.2760012 142.0034997 -15.8200012  86.5810132 142.0282543 -15.2973711
  86.6380012 140.4054997 -18.1210012  87.3390012 140.4274997 -17.4700012
  86.9410012 139.7774997 -18.7770012  86.7747830 140.3236566 -18.1206289
  93.9540012 141.3254997  -6.8660012  93.3010012 142.0204997  -6.7770012
  94.4190012 141.5354997  -7.6760012  93.9275390 141.4489425  -6.9633117
  89.9900012 142.1574997 -14.2080012  89.2580012 142.3854997 -13.6350012
  90.4380012 141.4434997 -13.7530012  89.9503095 142.0922571 -14.0680881
  89.8880012 140.3314997  -5.1410012  89.9680012 141.0944997  -4.5690012
  89.2860012 140.6104997  -5.8310012  89.8175756 140.4737134  -5.1559411
  81.6360012 142.7874997 -12.3260012  81.3050012 142.4174997 -13.1440012
  82.2240012 142.1174997 -11.9790012  81.6701873 142.6461156 -12.3911898
  82.0020012 141.5564997  -8.6920012  82.5680012 141.6774997  -9.4550012
  82.3210012 142.1934997  -8.0530012  82.1225786 141.6591884  -8.7099960
  88.8610012 141.3194997 -16.5230012  89.4410012 141.4694997 -15.7760012
  89.2750012 141.7904997 -17.2460012  88.9962830 141.4036841 -16.5185866
  79.8020012 142.1534997  -4.7460012  79.8730012 142.8044997  -4.0480012
  78.9120012 142.2564997  -5.0810012  79.6913117 142.2565936  -4.6957300
  92.5600012 133.0694997 -16.7100012  91.6600012 133.2084997 -16.4150012
  92.8120012 133.9004997 -17.1120012  92.4708702 133.2009074 -16.7239795
  80.6260012 141.8574997 -14.7360012  80.3340012 142.6254997 -15.2270012
  79.9520012 141.1974997 -14.8990012  80.4949081 141.8734406 -14.8252660
  76.7190012 144.2204997  -5.9210012  76.2180012 144.1924997  -6.7360012
  76.7240012 143.3144997  -5.6120012  76.6511526 144.0942278  -5.9907128
  91.8190012 139.1594997  -2.8750012  91.4120012 139.6404997  -3.5960012
  91.8600012 138.2544997  -3.1830012  91.7688437 139.1029374  -3.0153317
  81.5870012 134.0134997  -8.8830012  80.7250012 133.9264997  -9.2900012
  81.5640012 134.8694997  -8.4550012  81.4660330 134.1172765  -8.8808137
  86.2500012 133.7354997  -5.5080012  86.6700012 133.3204997  -4.7550012
  85.3170012 133.5574997  -5.3910012  86.1813644 133.6545900  -5.3890461
  89.5760012 137.4914997  -4.6550012  89.0620012 137.3654997  -3.8570012
  89.4210012 138.4034997  -4.8990012  89.4846852 137.5976132  -4.5787842
  90.3390012 142.3524997 -18.8930012  90.3810012 142.1294997 -19.8230012
  91.1880012 142.7514997 -18.7030012  90.4595396 142.3759155 -18.9946373
  85.9110012 136.2284997 -18.2230012  85.6580012 136.2474997 -17.3000012
  85.6550012 135.3564997 -18.5240012  85.8417790 136.1132437 -18.1373737
  81.6780012 138.9794997  -7.7880012  81.0360012 138.9384997  -7.0790012
  81.7150012 139.9054997  -8.0250012  81.5951324 139.0991559  -7.7230176
  81.6750012 139.2004997 -12.8760012  80.7820012 138.8594997 -12.9340012
  82.1250012 138.8234997 -13.6310012  81.6137305 139.1028484 -12.9860823
  87.2100012 139.6164997 -14.0590012  86.8010012 140.4314997 -14.3500012
  87.9310012 139.4764997 -14.6730012  87.2514537 139.7092018 -14.1818658
  86.3120012 139.7914997  -2.5710012  85.7500012 139.0874997  -2.2500012
  87.1390012 139.6714997  -2.1030012  86.3467095 139.6787883  -2.4637670
  88.2150012 139.0624997 -11.2450012  88.0200012 139.6674997 -11.9600012
  88.3960012 138.2284997 -11.6790012  88.2127614 139.0326300 -11.4015595
  79.4280012 139.2994997  -5.9210012  79.3900012 139.6994997  -5.0520012
  78.9370012 138.4824997  -5.8300012  79.3564684 139.2438069  -5.7898941
  82.7940012 136.6734997 -19.1220012  82.3630012 136.2284997 -18.3920012
  82.0760012 137.0454997 -19.6340012  82.6379438 136.6628940 -19.0913201
  76.0360012 136.4154997 -12.0700012  76.6670012 136.3864997 -11.3510012
  76.4850012 135.9904997 -12.8000012  76.1830774 136.3540492 -12.0703447
  77.3100012 137.1614997 -16.6460012  77.7840012 137.7524997 -17.2310012
  76.5930012 137.6924997 -16.2990012  77.2779341 137.3140867 -16.6791164
  87.4790012 140.7004997  -6.5730012  87.8020012 140.0694997  -7.2160012
  87.0390012 140.1654997  -5.9130012  87.4636895 140.5418441  -6.5717150
  84.2560012 136.6274997 -11.7890012  83.3450012 136.6844997 -11.5010012
  84.7620012 136.5674997 -10.9790012  84.1995413 136.6271985 -11.6399378
  79.0850012 138.2564997 -12.9630012  78.1950012 138.3564997 -13.3030012
  79.3810012 137.4144997 -13.3090012  79.0032823 138.1563545 -13.0562787
  82.7380012 138.2564997 -15.3060012  83.6690012 138.3854997 -15.1280012
  82.5230012 138.9264997 -15.9560012  82.8364247 138.3646565 -15.3694253
  88.6610012 135.8624997  -8.5250012  87.9850012 135.9934997  -7.8610012
  88.1760012 135.7074997  -9.3350012  88.5027145 135.8594905  -8.5435483
  81.4120012 139.4514997 -17.7390012  80.8690012 139.0714997 -18.4310012
  82.2450012 139.6454997 -18.1680012  81.4504399 139.4258124 -17.8915474
  79.5470012 144.0084997  -2.6400012  80.2790012 144.2624997  -2.0790012
  78.7670012 144.2124997  -2.1250012  79.5418232 144.0709177  -2.4934240
  85.5760012 139.4154997  -9.9020012  86.1410012 138.8684997 -10.4490012
  85.4290012 138.8934997  -9.1140012  85.6332918 139.2702024  -9.8701546
  80.5780012 135.5514997 -13.4840012  80.2610012 134.6494997 -13.5190012
  81.3600012 135.5534997 -14.0370012  80.6402284 135.4281628 -13.5635217
  84.2030012 137.8034997  -7.4880012  83.3670012 138.2574997  -7.3780012
  84.7270012 138.0794997  -6.7360012  84.1594414 137.9029376  -7.3712864
  84.7470012 144.0164997 -15.8040012  84.0020012 143.5094997 -16.1260012
  84.6130012 144.0654997 -14.8570012  84.6268776 143.9536940 -15.7201353
  91.8970012 143.1494997  -7.0170012  92.5390012 143.6064997  -7.5610012
  91.0670012 143.2624997  -7.4800012  91.8725963 143.2272704  -7.1539823
  88.6450012 136.8304997 -17.6040012  87.7060012 136.9424997 -17.7560012
  88.9420012 137.6874997 -17.2980012  88.5567666 136.9616443 -17.5834232
  86.2660012 144.2004997  -4.5670012  85.9210012 143.8194997  -3.7600012
  86.0660012 145.1344997  -4.4950012  86.1918061 144.2745228  -4.4469039
  89.3630012 138.6974997 -15.9440012  90.2550012 138.5604997 -15.6250012
  89.4200012 139.4884997 -16.4800012  89.4926285 138.7856660 -15.9728310
  79.8720012 143.3114997 -10.0340012  80.6170012 143.3094997 -10.6350012
  79.9500012 142.4884997  -9.5520012  79.9845518 143.1999315 -10.0511071
  76.8800012 141.7724997  -4.7190012  77.1030012 141.3544997  -3.8870012
  76.2780012 141.1594997  -5.1420012  76.8291759 141.6324668  -4.6622978
  83.8960012 141.2894997  -2.5060012  83.6000012 141.1234997  -3.4010012
  84.8280012 141.0694997  -2.5170012  83.9814166 141.2370640  -2.6299464
  94.2480012 138.9074997 -16.2490012  93.6940012 138.5114997 -16.9210012
  94.3480012 139.8174997 -16.5270012  94.1857059 138.9763586 -16.3785599
  94.2110012 144.7074997  -3.4120012  93.3600012 144.9454997  -3.7790012
  94.8020012 144.6904997  -4.1650012  94.1742487 144.7378258  -3.5641107
  89.7040012 142.5014997  -8.7630012  88.7750012 142.2694997  -8.7900012
  90.1550012 141.7244997  -9.0930012  89.6379216 142.3647238  -8.8113083
  78.0020012 141.6914997 -18.0430012  78.6180012 142.3184997 -17.6630012
  77.1400012 142.0074997 -17.7710012  77.9697698 141.8199430 -17.9542817
  83.6740012 144.4924997 -13.0530012  83.4330012 145.4174997 -13.0120012
  82.9330012 144.0334997 -12.6570012  83.5408409 144.5571421 -12.9938623
  87.7330012 144.7404997  -7.0380012  87.3070012 144.5134997  -6.2110012
  88.3130012 144.0024997  -7.2200012  87.7531868 144.6095299  -6.9494170
  78.5140012 136.5254997  -5.1610012  77.6210012 136.8644997  -5.2290012
  78.4150012 135.6704997  -4.7430012  78.3784164 136.4562588  -5.1137765
  90.8020012 144.3424997 -15.7370012  90.5240012 143.6144997 -15.1810012
  91.7290012 144.4614997 -15.5320012  90.8893124 144.2588802 -15.6331155
  79.4170012 143.6044997 -16.5500012  78.7310012 143.9564997 -15.9830012
  79.9390012 144.3674997 -16.7970012  79.3936852 143.7558578 -16.5057882
  87.2480012 136.2664997  -6.2710012  87.9470012 136.3404997  -5.6210012
  86.8670012 135.4024997  -6.1170012  87.2921767 136.1597624  -6.1611678
  88.0330012 135.9184997 -15.1740012  88.2530012 136.3904997 -15.9770012
  88.5910012 136.3134997 -14.5040012  88.1384968 136.0364285 -15.1932669
  85.2330012 137.6464997 -14.3390012  86.0450012 138.1514997 -14.2930012
  84.9880012 137.5014997 -13.4250012  85.3110520 137.6960375 -14.2091483
  85.7680012 138.6324997  -5.1540012  85.8870012 139.2064997  -4.3970012
  86.4240012 137.9444997  -5.0400012  85.8729757 138.6181079  -5.0349175
  86.1160012 134.7274997 -13.4010012  85.7700012 135.3454997 -12.7560012
  86.7750012 135.2284997 -13.8820012  86.1577826 134.8795802 -13.3779029
  81.7740012 135.7904997 -16.7140012  81.6910012 136.6794997 -16.3670012
  82.6640012 135.5254997 -16.4820012  81.8829469 135.8761430 -16.6352374
  91.9730012 136.5394997  -4.3190012  91.0560012 136.8024997  -4.4070012
  92.3080012 136.5364997  -5.2160012  91.8929900 136.5750224  -4.4522081
  90.5750012 140.2904997 -10.2240012  89.7770012 139.8754997 -10.5520012
  91.0200012 139.5994997  -9.7330012  90.5259885 140.1403543 -10.2025111
  78.3490012 138.8824997 -18.5370012  78.3040012 139.8214997 -18.3590012
  77.4610012 138.6464997 -18.8070012  78.2228574 138.9791892 -18.5491088
  79.1570012 133.6644997  -9.8640012  78.9280012 133.7234997 -10.7920012
  78.7140012 132.8724997  -9.5580012  79.0658530 133.5655753  -9.9495214
  77.2820012 144.0274997  -1.4190012  77.4260012 143.1254997  -1.7060012
  76.5100012 144.3134997  -1.9070012  77.1973322 143.9428261  -1.5242119
  81.6240012 144.3714997 -19.2870012  81.6880012 143.5774997 -18.7560012
  82.2770012 144.2524997 -19.9770012  81.7210241 144.2467148 -19.3075683
  83.9380012 143.9974997  -1.9870012  83.6090012 144.2684997  -2.8440012
  84.0900012 143.0564997  -2.0740012  83.9134809 143.9073862  -2.1161756
  89.6720012 143.9134997  -4.6030012  90.4180012 144.5014997  -4.7230012
  88.9150012 144.4954997  -4.5400012  89.6717554 144.0727011  -4.6109093
  78.1150012 141.2274997  -1.9990012  78.5230012 140.3704997  -2.1200012
  77.8550012 141.2424997  -1.0780012  78.1357568 141.1120807  -1.8910412
  82.7730012 142.3434997 -16.9810012  82.3130012 141.8594997 -16.2950012
  83.0280012 141.6754997 -17.6170012  82.7444902 142.1868731 -16.9730666
  82.0620012 140.2364997  -4.6250012  81.4440012 140.9114997  -4.3450012
  82.4060012 140.5574997  -5.4580012  82.0239615 140.3722721  -4.6993419
  83.8440012 140.5864997 -18.7190012  83.6640012 140.4324997 -19.6460012
  84.7940012 140.6944997 -18.6740012  83.9477776 140.5800175 -18.8398157
  87.0820012 142.7084997  -1.3480012  88.0350012 142.7914997  -1.3750012
  86.9210012 141.9964997  -0.7280012  87.1906426 142.6236746  -1.2679421
  93.2340012 142.9414997 -19.2730012  92.9600012 142.5164997 -20.0860012
  93.2730012 143.8724997 -19.4900012  93.2017699 143.0092484 -19.4136390
  82.4010012 137.5914997  -3.5430012  82.5510012 136.8624997  -4.1450012
  82.4040012 138.3684997  -4.1020012  82.4219302 137.5967851  -3.7009308
  82.8140012 135.9614997  -6.0500012  83.3500012 136.4124997  -6.7020012
  81.9620012 135.8534997  -6.4730012  82.7722178 136.0086390  -6.1964244
  84.3960012 141.4004997  -5.8110012  85.1460012 141.2444997  -6.3840012
  84.0570012 142.2524997  -6.0860012  84.4528921 141.4942968  -5.9266439
  88.8110012 139.2154997  -0.7820012  89.0040012 138.2844997  -0.8940012
  89.6690012 139.6404997  -0.7920012  88.9533020 139.1456389  -0.7986639
  90.1280012 142.0044997  -2.7050012  89.8470012 142.7134997  -3.2820012
  91.0710012 141.9314997  -2.8560012  90.2169027 142.0917646  -2.8044449
  80.8800012 138.7894997  -1.6310012  80.1130012 138.2574997  -1.8410012
  81.5590012 138.4794997  -2.2310012  80.8667022 138.6747506  -1.7408352
  83.6200012 133.4174997  -5.6190012  83.5210012 134.3644997  -5.7240012
  82.8770012 133.0454997  -6.0940012  83.5060564 133.4965902  -5.6975440
  84.8840012 137.7394997  -2.0550012  84.6480012 137.5194997  -1.1530012
  84.1000012 137.5324997  -2.5650012  84.7458628 137.6814760  -2.0006068
  87.5990012 136.8664997  -2.9790012  86.6520012 136.8984997  -2.8470012
  87.9120012 136.2414997  -2.3260012  87.5115475 136.7863207  -2.8725545
  89.2330012 135.5004997  -0.9740012  89.1370012 134.5484997  -0.9800012
  88.9120012 135.7694997  -0.1140012  89.1764070 135.4064035  -0.8584559
  79.0600012 136.7104997  -1.9270012  79.2720012 136.0034997  -2.5370012
  78.9490012 136.2724997  -1.0830012  79.0739721 136.5547084  -1.8963157
  83.8410012 132.7114997  -2.9470012  84.5530012 132.0714997  -2.9610012
  83.7400012 132.9784997  -3.8610012  83.9247939 132.6599938  -3.0724350
  84.1950012 134.3944997  -0.8940012  84.0630012 133.9184997  -1.7140012
  83.5960012 135.1384997  -0.9490012  84.0959071 134.4299618  -1.0137114
  93.6920012 143.8104997 -15.2980012  94.5420012 144.2314997 -15.1710012
  93.6980012 143.0704997 -14.6910012  93.8091372 143.7680803 -15.1985656
  94.0870012 141.8634997 -13.4740012  93.3600012 141.3844997 -13.0770012
  94.6680012 142.0694997 -12.7420012  94.0659375 141.8257090 -13.3205871
  93.8460012 144.6484997  -8.5270012  94.6790012 144.2704997  -8.8070012
  93.9580012 145.5914997  -8.6460012  93.9752647 144.7242218  -8.5814513
  94.3550012 141.7644997 -17.0830012  93.8330012 142.1214997 -17.8020012
  94.3220012 142.4394997 -16.4050012  94.2791634 141.9045413 -17.0896855
  92.7040012 139.0044997 -18.5320012  92.8000012 139.6714997 -19.2130012
  92.5640012 138.1884997 -19.0140012  92.6982135 138.9854500 -18.6901509
  91.8730012 140.3844997 -12.9110012  91.7230012 139.4394997 -12.9320012
  91.5200012 140.6654997 -12.0680012  91.8046625 140.2930441 -12.7997654
  76.9090012 142.4624997  -8.9010012  77.0930012 142.3804997  -9.8370012
  77.7580012 142.3384997  -8.4770012  77.0490139 142.4345003  -8.9718545
  92.7300012 142.3544997  -3.2730012  93.3130012 141.6204997  -3.0810012
  93.2940012 143.1264997  -3.2260012  92.8859769 142.3584227  -3.2403841
  94.2260012 140.2574997  -2.5880012  93.3630012 139.8784997  -2.7540012
  94.8310012 139.5184997  -2.6620012  94.1895979 140.1058023  -2.6207183
  91.9510012 136.4124997 -19.4150012  92.5620012 136.0414997 -18.7780012
  91.1150012 135.9914997 -19.2190012  91.9215032 136.3047554 -19.3012965
  91.5840012 137.9674997 -14.4490012  91.8640012 137.0604997 -14.3250012
  92.3430012 138.4014997 -14.8380012  91.7249277 137.9020942 -14.4846318
  92.1960012 138.5484997  -9.0130012  93.1290012 138.7604997  -9.0470012
  91.9610012 138.6504997  -8.0910012  92.2918036 138.5912769  -8.8930024
  92.2250012 139.2854997  -6.2370012  91.3820012 139.5534997  -5.8710012
  92.6670012 140.1074997  -6.4480012  92.1694158 139.4333291  -6.2154509
  76.5060012 137.7334997  -2.7600012  77.4260012 137.6114997  -2.5240012
  76.0570012 136.9834997  -2.3710012  76.5711580 137.6153727  -2.6750994
  94.5080012 133.2654997  -0.8840012  94.8580012 132.6114997  -1.4890012
  94.6550012 134.1024997  -1.3230012  94.5758419 133.2891591  -1.0262882
  92.1970012 135.2304997 -14.4010012  92.3800012 134.7814997 -13.5750012
  91.5980012 134.6454997 -14.8640012  92.1410202 135.0899975 -14.3506725
  77.7270012 136.0454997  -9.8690012  78.1730012 135.2534997  -9.5670012
  78.1940012 136.7614997  -9.4380012  77.8510172 136.0340624  -9.7695180
  76.0310012 139.0444997  -8.8000012  76.5230012 138.8234997  -9.5910012
  76.3940012 139.8854997  -8.5190012  76.1473126 139.1278357  -8.8702469
  94.0280012 135.3744997  -2.5340012  93.1100012 135.6454997  -2.5700012
  94.1510012 134.8394997  -3.3190012  93.9191066 135.3392892  -2.6449513
  94.0640012 135.2974997 -17.8730012  94.4760012 134.5764997 -18.3480012
  94.7460012 135.9674997 -17.8140012  94.2125885 135.2892368 -17.9301085
  76.3450012 135.3024997 -14.7460012  75.4200012 135.5114997 -14.8750012
  76.7990012 135.7864997 -15.4350012  76.2797368 135.3965993 -14.8568774
  76.3090012 134.0404997  -6.4010012  75.6440012 133.7944997  -5.7580012
  75.8660012 134.6624997  -6.9790012  76.1580956 134.0908632  -6.3910648
  93.0280012 133.4644997  -4.7150012  92.2160012 133.7894997  -5.1030012
  93.2610012 132.7044997  -5.2480012  92.9483423 133.4062436  -4.8401747
  86.4580012 134.9134997 -10.3930012  85.7840012 134.2844997 -10.1370012
  87.0220012 134.4294997 -10.9960012  86.4419230 134.7618744 -10.4394660
  91.6010012 133.0214997 -10.2800012  92.2050012 133.5684997 -10.7820012
  90.7310012 133.3404997 -10.5200012  91.5661241 133.1395806 -10.3812346
  93.3280012 134.1594997 -11.9470012  93.9400012 133.6454997 -12.4730012
  93.7100012 135.0374997 -11.9230012  93.4634540 134.2077140 -12.0158170
  78.7850012 133.5474997 -12.5710012  78.0080012 133.3134997 -13.0780012
  79.3150012 132.7504997 -12.5620012  78.7502330 133.4076988 -12.6392258
  77.6210012 133.3454997 -16.7670012  78.0600012 133.9564997 -17.3590012
  76.9880012 133.8834997 -16.2930012  77.5954514 133.5019257 -16.7839070
  83.3640012 133.4744997 -12.7570012  84.2390012 133.8624997 -12.7870012
  83.2280012 133.2594997 -11.8350012  83.4653695 133.4985184 -12.6363560
  88.9210012 133.5044997 -11.1080012  88.9970012 133.5994997 -12.0580012
  88.6460012 132.5964997 -10.9790012  88.8942321 133.3947867 -11.2204921
  90.2740012 133.5304997 -15.4160012  89.5720012 134.1454997 -15.6250012
  89.8300012 132.6924997 -15.2850012  90.1176330 133.5015783 -15.4269672
  79.4820012 135.2614997 -18.3250012  79.9740012 134.6314997 -18.8520012
  80.1060012 135.5574997 -17.6610012  79.6335446 135.2153199 -18.3074020
  84.5080012 135.5544997 -15.8680012  84.6860012 134.9084997 -15.1850012
  84.4550012 136.3884997 -15.4000012  84.5251829 135.5787985 -15.7114060
  78.7430012 134.0614997  -3.0530012  78.3770012 133.2964997  -2.6100012
  79.6560012 134.0904997  -2.7660012  78.8162790 133.9607224  -2.9535930
  80.7160012 133.4124997  -1.5170012  81.6140012 133.1384997  -1.7020012
  80.3290012 132.6694997  -1.0530012  80.7866612 133.2745914  -1.4796357
  89.1370012 132.7444997  -1.3350012  89.2140012 132.3184997  -0.4810012
  90.0310012 132.7584997  -1.6780012  89.2683428 132.6880880  -1.2644690
 106.7190012 142.7034997 -12.6120012 106.8080012 143.6474997 -12.7440012
 106.0810012 142.4284997 -13.2700012 106.6449081 142.7954830 -12.7190386
 105.6520012 141.9584997  -9.1930012 105.6140012 141.3124997  -8.4880012
 105.3300012 141.4924997  -9.9640012 105.6032333 141.8069408  -9.2007022
  98.0210012 141.5734997  -7.6000012  98.0620012 140.9474997  -6.8770012
  98.7240012 142.1974997  -7.4180012  98.1216363 141.5721196  -7.4763956
 109.3580012 144.8974997 -10.8920012 108.9180012 144.1774997 -10.4410012
 109.3450012 145.6184997 -10.2620012 109.2960226 144.8963731 -10.7451506
  95.5540012 139.6834997 -13.6720012  95.1070012 140.5294997 -13.6910012
  94.9930012 139.1034997 -14.1880012  95.4169900 139.7209916 -13.7443199
  96.2650012 141.8454997 -11.5460012  96.4780012 141.0754997 -11.0190012
  97.0030012 141.9344997 -12.1500012  96.3938496 141.7521394 -11.5554700
 104.0420012 144.3914997  -8.7870012 104.3460012 143.7054997  -9.3820012
 104.7630012 144.5094997  -8.1690012 104.1810671 144.3136305  -8.7848184
 112.7050012 135.9924997  -7.9260012 112.7540012 136.6024997  -7.1900012
 113.1300012 136.4534997  -8.6490012 112.7691824 136.1383741  -7.9229795
 107.1830012 138.7854997  -8.4590012 107.3250012 137.8394997  -8.4390012
 107.0760012 138.9924997  -9.3880012 107.1879863 138.6839534  -8.5817661
 100.3370012 136.8864997 -11.1870012 100.3810012 137.7464997 -11.6050012
  99.8800012 136.3344997 -11.8210012 100.2812185 136.9295799 -11.3299701
 108.0600012 137.0174997 -12.7860012 108.7060012 136.6884997 -12.1610012
 108.5700012 137.5354997 -13.4090012 108.2174264 137.0424611 -12.7846138
  96.9580012 139.2834997 -10.4250012  97.6110012 138.7334997  -9.9930012
  96.9820012 139.0094997 -11.3420012  97.0506683 139.1711466 -10.4897877
 102.1140012 140.8334997 -11.2100012 102.7300012 140.3074997 -10.7000012
 101.5280012 140.1934997 -11.6130012 102.1190810 140.6749208 -11.1946827
 113.0960012 137.4704997  -5.6900012 112.4080012 138.1284997  -5.7860012
 113.1120012 137.2734997  -4.7540012 113.0038525 137.5340462  -5.5765192
  99.1480012 135.8044997  -7.1130012  98.9290012 136.3344997  -7.8790012
  98.4800012 136.0314997  -6.4660012  99.0277600 135.9076906  -7.1303621
 101.7170012 143.4804997  -6.8260012 100.9770012 144.0784997  -6.7220012
 102.4310012 144.0344997  -7.1410012 101.7122237 143.6372831  -6.8543535
 109.8240012 136.3084997 -10.8060012 109.6080012 135.5424997 -10.2730012
 110.4790012 136.7804997 -10.2930012 109.8830632 136.2675889 -10.6637139
  98.7410012 137.6964997  -9.1610012  99.3550012 138.3294997  -8.7870012
  99.2530012 137.2244997  -9.8170012  98.8942296 137.7192370  -9.1985748
 110.1710012 135.0234997  -7.1260012 109.4350012 135.6344997  -7.1640012
 110.8540012 135.4384997  -7.6530012 110.1626541 135.1631374  -7.2024168
 103.1740012 133.1104997  -9.6600012 103.0570012 132.1614997  -9.7150012
 102.3190012 133.4424997  -9.3870012 103.0423733 133.0255409  -9.6306103
 110.9680012 144.9854997  -4.9320012 111.1080012 144.3944997  -5.6720012
 111.1350012 145.8584997  -5.2890012 111.0096778 145.0226426  -5.0813035
 105.4410012 141.9474997 -15.1600012 104.7290012 142.4824997 -15.5120012
 106.1320012 142.0034997 -15.8200012 105.4370132 142.0282543 -15.2973711
 105.4940012 140.4054997 -18.1210012 106.1950012 140.4274997 -17.4700012
 105.7970012 139.7774997 -18.7770012 105.6307830 140.3236566 -18.1206289
 112.8100012 141.3254997  -6.8660012 112.1570012 142.0204997  -6.7770012
 113.2750012 141.5354997  -7.6760012 112.7835390 141.4489425  -6.9633117
 108.8460012 142.1574997 -14.2080012 108.1140012 142.3854997 -13.6350012
 109.2940012 141.4434997 -13.7530012 108.8063095 142.0922571 -14.0680881
 108.7440012 140.3314997  -5.1410012 108.8240012 141.0944997  -4.5690012
 108.1420012 140.6104997  -5.8310012 108.6735756 140.4737134  -5.1559411
 100.4920012 142.7874997 -12.3260012 100.1610012 142.4174997 -13.1440012
 101.0800012 142.1174997 -11.9790012 100.5261873 142.6461156 -12.3911898
 100.8580012 141.5564997  -8.6920012 101.4240012 141.6774997  -9.4550012
 101.1770012 142.1934997  -8.0530012 100.9785786 141.6591884  -8.7099960
 107.7170012 141.3194997 -16.5230012 108.2970012 141.4694997 -15.7760012
 108.1310012 141.7904997 -17.2460012 107.8522830 141.4036841 -16.5185866
  98.6580012 142.1534997  -4.7460012  98.7290012 142.8044997  -4.0480012
  97.7680012 142.2564997  -5.0810012  98.5473117 142.2565936  -4.6957300
 111.4160012 133.0694997 -16.7100012 110.5160012 133.2084997 -16.4150012
 111.6680012 133.9004997 -17.1120012 111.3268702 133.2009074 -16.7239795
  99.4820012 141.8574997 -14.7360012  99.1900012 142.6254997 -15.2270012
  98.8080012 141.1974997 -14.8990012  99.3509081 141.8734406 -14.8252660
  95.5750012 144.2204997  -5.9210012  95.0740012 144.1924997  -6.7360012
  95.5800012 143.3144997  -5.6120012  95.5071526 144.0942278  -5.9907128
 110.6750012 139.1594997  -2.8750012 110.2680012 139.6404997  -3.5960012
 110.7160012 138.2544997  -3.1830012 110.6248437 139.1029374  -3.0153317
 100.4430012 134.0134997  -8.8830012  99.5810012 133.9264997  -9.2900012
 100.4200012 134.8694997  -8.4550012 100.3220330 134.1172765  -8.8808137
 105.1060012 133.7354997  -5.5080012 105.5260012 133.3204997  -4.7550012
 104.1730012 133.5574997  -5.3910012 105.0373644 133.6545900  -5.3890461
 108.4320012 137.4914997  -4.6550012 107.9180012 137.3654997  -3.8570012
 108.2770012 138.4034997  -4.8990012 108.3406852 137.5976132  -4.5787842
 109.1950012 142.3524997 -18.8930012 109.2370012 142.1294997 -19.8230012
 110.0440012 142.7514997 -18.7030012 109.3155396 142.3759155 -18.9946373
 104.7670012 136.2284997 -18.2230012 104.5140012 136.2474997 -17.3000012
 104.5110012 135.3564997 -18.5240012 104.6977790 136.1132437 -18.1373737
 100.5340012 138.9794997  -7.7880012  99.8920012 138.9384997  -7.0790012
 100.5710012 139.9054997  -8.0250012 100.4511324 139.0991559  -7.7230176
 100.5310012 139.2004997 -12.8760012  99.6380012 138.8594997 -12.9340012
 100.9810012 138.8234997 -13.6310012 100.4697305 139.1028484 -12.9860823
 106.0660012 139.6164997 -14.0590012 105.6570012 140.4314997 -14.3500012
 106.7870012 139.4764997 -14.6730012 106.1074537 139.7092018 -14.1818658
 105.1680012 139.7914997  -2.5710012 104.6060012 139.0874997  -2.2500012
 105.9950012 139.6714997  -2.1030012 105.2027095 139.6787883  -2.4637670
 107.0710012 139.0624997 -11.2450012 106.8760012 139.6674997 -11.9600012
 107.2520012 138.2284997 -11.6790012 107.0687614 139.0326300 -11.4015595
  98.2840012 139.2994997  -5.9210012  98.2460012 139.6994997  -5.0520012
  97.7930012 138.4824997  -5.8300012  98.2124684 139.2438069  -5.7898941
 101.6500012 136.6734997 -19.1220012 101.2190012 136.2284997 -18.3920012
 100.9320012 137.0454997 -19.6340012 101.4939438 136.6628940 -19.0913201
  94.8920012 136.4154997 -12.0700012  95.5230012 136.3864997 -11.3510012
  95.3410012 135.9904997 -12.8000012  95.0390774 136.3540492 -12.0703447
  96.1660012 137.1614997 -16.6460012  96.6400012 137.7524997 -17.2310012
  95.4490012 137.6924997 -16.2990012  96.1339341 137.3140867 -16.6791164
 106.3350012 140.7004997  -6.5730012 106.6580012 140.0694997  -7.2160012
 105.8950012 140.1654997  -5.9130012 106.3196895 140.5418441  -6.5717150
 103.1120012 136.6274997 -11.7890012 102.2010012 136.6844997 -11.5010012
 103.6180012 136.5674997 -10.9790012 103.0555413 136.6271985 -11.6399378
  97.9410012 138.2564997 -12.9630012  97.0510012 138.3564997 -13.3030012
  98.2370012 137.4144997 -13.3090012  97.8592823 138.1563545 -13.0562787
 101.5940012 138.2564997 -15.3060012 102.5250012 138.3854997 -15.1280012
 101.3790012 138.9264997 -15.9560012 101.6924247 138.3646565 -15.3694253
 107.5170012 135.8624997  -8.5250012 106.8410012 135.9934997  -7.8610012
 107.0320012 135.7074997  -9.3350012 107.3587145 135.8594905  -8.5435483
 100.2680012 139.4514997 -17.7390012  99.7250012 139.0714997 -18.4310012
 101.1010012 139.6454997 -18.1680012 100.3064399 139.4258124 -17.8915474
  98.4030012 144.0084997  -2.6400012  99.1350012 144.2624997  -2.0790012
  97.6230012 144.2124997  -2.1250012  98.3978232 144.0709177  -2.4934240
 104.4320012 139.4154997  -9.9020012 104.9970012 138.8684997 -10.4490012
 104.2850012 138.8934997  -9.1140012 104.4892918 139.2702024  -9.8701546
  99.4340012 135.5514997 -13.4840012  99.1170012 134.6494997 -13.5190012
 100.2160012 135.5534997 -14.0370012  99.4962284 135.4281628 -13.5635217
 103.0590012 137.8034997  -7.4880012 102.2230012 138.2574997  -7.3780012
 103.5830012 138.0794997  -6.7360012 103.0154414 137.9029376  -7.3712864
 103.6030012 144.0164997 -15.8040012 102.8580012 143.5094997 -16.1260012
 103.4690012 144.0654997 -14.8570012 103.4828776 143.9536940 -15.7201353
 110.7530012 143.1494997  -7.0170012 111.3950012 143.6064997  -7.5610012
 109.9230012 143.2624997  -7.4800012 110.7285963 143.2272704  -7.1539823
 107.5010012 136.8304997 -17.6040012 106.5620012 136.9424997 -17.7560012
 107.7980012 137.6874997 -17.2980012 107.4127666 136.9616443 -17.5834232
 105.1220012 144.2004997  -4.5670012 104.7770012 143.8194997  -3.7600012
 104.9220012 145.1344997  -4.4950012 105.0478061 144.2745228  -4.4469039
 108.2190012 138.6974997 -15.9440012 109.1110012 138.5604997 -15.6250012
 108.2760012 139.4884997 -16.4800012 108.3486285 138.7856660 -15.9728309
  98.7280012 143.3114997 -10.0340012  99.4730012 143.3094997 -10.6350012
  98.8060012 142.4884997  -9.5520012  98.8405518 143.1999315 -10.0511071
  95.7360012 141.7724997  -4.7190012  95.9590012 141.3544997  -3.8870012
  95.1340012 141.1594997  -5.1420012  95.6851759 141.6324668  -4.6622978
 102.7520012 141.2894997  -2.5060012 102.4560012 141.1234997  -3.4010012
 103.6840012 141.0694997  -2.5170012 102.8374166 141.2370640  -2.6299464
 113.1040012 138.9074997 -16.2490012 112.5500012 138.5114997 -16.9210012
 113.2040012 139.8174997 -16.5270012 113.0417059 138.9763586 -16.3785599
 113.0670012 144.7074997  -3.4120012 112.2160012 144.9454997  -3.7790012
 113.6580012 144.6904997  -4.1650012 113.0302487 144.7378258  -3.5641107
 108.5600012 142.5014997  -8.7630012 107.6310012 142.2694997  -8.7900012
 109.0110012 141.7244997  -9.0930012 108.4939216 142.3647238  -8.8113083
  96.8580012 141.6914997 -18.0430012  97.4740012 142.3184997 -17.6630012
  95.9960012 142.0074997 -17.7710012  96.8257698 141.8199430 -17.9542817
 102.5300012 144.4924997 -13.0530012 102.2890012 145.4174997 -13.0120012
 101.7890012 144.0334997 -12.6570012 102.3968409 144.5571421 -12.9938623
 106.5890012 144.7404997  -7.0380012 106.1630012 144.5134997  -6.2110012
 107.1690012 144.0024997  -7.2200012 106.6091868 144.6095299  -6.9494170
  97.3700012 136.5254997  -5.1610012  96.4770012 136.8644997  -5.2290012
  97.2710012 135.6704997  -4.7430012  97.2344164 136.4562588  -5.1137765
 109.6580012 144.3424997 -15.7370012 109.3800012 143.6144997 -15.1810012
 110.5850012 144.4614997 -15.5320012 109.7453124 144.2588802 -15.6331155
  98.2730012 143.6044997 -16.5500012  97.5870012 143.9564997 -15.9830012
  98.7950012 144.3674997 -16.7970012  98.2496852 143.7558578 -16.5057882
 106.1040012 136.2664997  -6.2710012 106.8030012 136.3404997  -5.6210012
 105.7230012 135.4024997  -6.1170012 106.1481767 136.1597624  -6.1611678
 106.8890012 135.9184997 -15.1740012 107.1090012 136.3904997 -15.9770012
 107.4470012 136.3134997 -14.5040012 106.9944968 136.0364285 -15.1932669
 104.0890012 137.6464997 -14.3390012 104.9010012 138.1514997 -14.2930012
 103.8440012 137.5014997 -13.4250012 104.1670520 137.6960375 -14.2091483
 104.6240012 138.6324997  -5.1540012 104.7430012 139.2064997  -4.3970012
 105.2800012 137.9444997  -5.0400012 104.7289757 138.6181079  -5.0349175
 104.9720012 134.7274997 -13.4010012 104.6260012 135.3454997 -12.7560012
 105.6310012 135.2284997 -13.8820012 105.0137826 134.8795802 -13.3779029
 100.6300012 135.7904997 -16.7140012 100.5470012 136.6794997 -16.3670012
 101.5200012 135.5254997 -16.4820012 100.7389469 135.8761430 -16.6352374
 110.8290012 136.5394997  -4.3190012 109.9120012 136.8024997  -4.4070012
 111.1640012 136.5364997  -5.2160012 110.7489900 136.5750224  -4.4522081
 109.4310012 140.2904997 -10.2240012 108.6330012 139.8754997 -10.5520012
 109.8760012 139.5994997  -9.7330012 109.3819885 140.1403543 -10.2025111
  97.2050012 138.8824997 -18.5370012  97.1600012 139.8214997 -18.3590012
  96.3170012 138.6464997 -18.8070012  97.0788574 138.9791892 -18.5491088
  98.0130012 133.6644997  -9.8640012  97.7840012 133.7234997 -10.7920012
  97.5700012 132.8724997  -9.5580012  97.9218530 133.5655753  -9.9495214
  96.1380012 144.0274997  -1.4190012  96.2820012 143.1254997  -1.7060012
  95.3660012 144.3134997  -1.9070012  96.0533322 143.9428261  -1.5242119
 100.4800012 144.3714997 -19.2870012 100.5440012 143.5774997 -18.7560012
 101.1330012 144.2524997 -19.9770012 100.5770241 144.2467148 -19.3075683
 102.7940012 143.9974997  -1.9870012 102.4650012 144.2684997  -2.8440012
 102.9460012 143.0564997  -2.0740012 102.7694809 143.9073862  -2.1161756
 108.5280012 143.9134997  -4.6030012 109.2740012 144.5014997  -4.7230012
 107.7710012 144.4954997  -4.5400012 108.5277554 144.0727011  -4.6109093
  96.9710012 141.2274997  -1.9990012  97.3790012 140.3704997  -2.1200012
  96.7110012 141.2424997  -1.0780012  96.9917568 141.1120807  -1.8910412
 101.6290012 142.3434997 -16.9810012 101.1690012 141.8594997 -16.2950012
 101.8840012 141.6754997 -17.6170012 101.6004902 142.1868731 -16.9730666
 100.9180012 140.2364997  -4.6250012 100.3000012 140.9114997  -4.3450012
 101.2620012 140.5574997  -5.4580012 100.8799615 140.3722721  -4.6993419
 102.7000012 140.5864997 -18.7190012 102.5200012 140.4324997 -19.6460012
 103.6500012 140.6944997 -18.6740012 102.8037776 140.5800175 -18.8398157
 105.9380012 142.7084997  -1.3480012 106.8910012 142.7914997  -1.3750012
 105.7770012 141.9964997  -0.7280012 106.0466426 142.6236746  -1.2679421
 112.0900012 142.9414997 -19.2730012 111.8160012 142.5164997 -20.0860012
 112.1290012 143.8724997 -19.4900012 112.0577699 143.0092484 -19.4136390
 101.2570012 137.5914997  -3.5430012 101.4070012 136.8624997  -4.1450012
 101.2600012 138.3684997  -4.1020012 101.2779302 137.5967851  -3.7009308
 101.6700012 135.9614997  -6.0500012 102.2060012 136.4124997  -6.7020012
 100.8180012 135.8534997  -6.4730012 101.6282178 136.0086390  -6.1964244
 103.2520012 141.4004997  -5.8110012 104.0020012 141.2444997  -6.3840012
 102.9130012 142.2524997  -6.0860012 103.3088921 141.4942968  -5.9266439
 107.6670012 139.2154997  -0.7820012 107.8600012 138.2844997  -0.8940012
 108.5250012 139.6404997  -0.7920012 107.8093020 139.1456389  -0.7986639
 108.9840012 142.0044997  -2.7050012 108.7030012 142.7134997  -3.2820012
 109.9270012 141.9314997  -2.8560012 109.0729027 142.0917646  -2.8044449
  99.7360012 138.7894997  -1.6310012  98.9690012 138.2574997  -1.8410012
 100.4150012 138.4794997  -2.2310012  99.7227022 138.6747506  -1.7408352
 102.4760012 133.4174997  -5.6190012 102.3770012 134.3644997  -5.7240012
 101.7330012 133.0454997  -6.0940012 102.3620564 133.4965902  -5.6975440
 103.7400012 137.7394997  -2.0550012 103.5040012 137.5194997  -1.1530012
 102.9560012 137.5324997  -2.5650012 103.6018628 137.6814760  -2.0006068
 106.4550012 136.8664997  -2.9790012 105.5080012 136.8984997  -2.8470012
 106.7680012 136.2414997  -2.3260012 106.3675475 136.7863207  -2.8725545
 108.0890012 135.5004997  -0.9740012 107.9930012 134.5484997  -0.9800012
 107.7680012 135.7694997  -0.1140012 108.0324070 135.4064035  -0.8584559
  97.9160012 136.7104997  -1.9270012  98.1280012 136.0034997  -2.5370012
  97.8050012 136.2724997  -1.0830012  97.9299721 136.5547084  -1.8963157
 102.6970012 132.7114997  -2.9470012 103.4090012 132.0714997  -2.9610012
 102.5960012 132.9784997  -3.8610012 102.7807939 132.6599938  -3.0724350
 103.0510012 134.3944997  -0.8940012 102.9190012 133.9184997  -1.7140012
 102.4520012 135.1384997  -0.9490012 102.9519071 134.4299618  -1.0137114
 112.5480012 143.8104997 -15.2980012 113.3980012 144.2314997 -15.1710012
 112.5540012 143.0704997 -14.6910012 112.6651372 143.7680803 -15.1985656
 112.9430012 141.8634997 -13.4740012 112.2160012 141.3844997 -13.0770012
 113.5240012 142.0694997 -12.7420012 112.9219375 141.8257090 -13.3205871
 112.7020012 144.6484997  -8.5270012 113.5350012 144.2704997  -8.8070012
 112.8140012 145.5914997  -8.6460012 112.8312647 144.7242218  -8.5814513
 113.2110012 141.7644997 -17.0830012 112.6890012 142.1214997 -17.8020012
 113.1780012 142.4394997 -16.4050012 113.1351634 141.9045413 -17.0896855
 111.5600012 139.0044997 -18.5320012 111.6560012 139.6714997 -19.2130012
 111.4200012 138.1884997 -19.0140012 111.5542135 138.9854500 -18.6901509
 110.7290012 140.3844997 -12.9110012 110.5790012 139.4394997 -12.9320012
 110.3760012 140.6654997 -12.0680012 110.6606625 140.2930441 -12.7997654
  95.7650012 142.4624997  -8.9010012  95.9490012 142.3804997  -9.8370012
  96.6140012 142.3384997  -8.4770012  95.9050139 142.4345003  -8.9718545
 111.5860012 142.3544997  -3.2730012 112.1690012 141.6204997  -3.0810012
 112.1500012 143.1264997  -3.2260012 111.7419769 142.3584227  -3.2403841
 113.0820012 140.2574997  -2.5880012 112.2190012 139.8784997  -2.7540012
 113.6870012 139.5184997  -2.6620012 113.0455979 140.1058023  -2.6207183
 110.8070012 136.4124997 -19.4150012 111.4180012 136.0414997 -18.7780012
 109.9710012 135.9914997 -19.2190012 110.7775032 136.3047554 -19.3012965
 110.4400012 137.9674997 -14.4490012 110.7200012 137.0604997 -14.3250012
 111.1990012 138.4014997 -14.8380012 110.5809277 137.9020942 -14.4846318
 111.0520012 138.5484997  -9.0130012 111.9850012 138.7604997  -9.0470012
 110.8170012 138.6504997  -8.0910012 111.1478036 138.5912769  -8.8930024
 111.0810012 139.2854997  -6.2370012 110.2380012 139.5534997  -5.8710012
 111.5230012 140.1074997  -6.4480012 111.0254158 139.4333291  -6.2154509
  95.3620012 137.7334997  -2.7600012  96.2820012 137.6114997  -2.5240012
  94.9130012 136.9834997  -2.3710012  95.4271580 137.6153727  -2.6750994
 113.3640012 133.2654997  -0.8840012 113.7140012 132.6114997  -1.4890012
 113.5110012 134.1024997  -1.3230012 113.4318419 133.2891591  -1.0262882
 111.0530012 135.2304997 -14.4010012 111.2360012 134.7814997 -13.5750012
 110.4540012 134.6454997 -14.8640012 110.9970202 135.0899975 -14.3506725
  96.5830012 136.0454997  -9.8690012  97.0290012 135.2534997  -9.5670012
  97.0500012 136.7614997  -9.4380012  96.7070172 136.0340624  -9.7695180
  94.8870012 139.0444997  -8.8000012  95.3790012 138.8234997  -9.5910012
  95.2500012 139.8854997  -8.5190012  95.0033126 139.1278357  -8.8702469
 112.8840012 135.3744997  -2.5340012 111.9660012 135.6454997  -2.5700012
 113.0070012 134.8394997  -3.3190012 112.7751066 135.3392892  -2.6449513
 112.9200012 135.2974997 -17.8730012 113.3320012 134.5764997 -18.3480012
 113.6020012 135.9674997 -17.8140012 113.0685885 135.2892368 -17.9301085
  95.2010012 135.3024997 -14.7460012  94.2760012 135.5114997 -14.8750012
  95.6550012 135.7864997 -15.4350012  95.1357368 135.3965993 -14.8568774
  95.1650012 134.0404997  -6.4010012  94.5000012 133.7944997  -5.7580012
  94.7220012 134.6624997  -6.9790012  95.0140956 134.0908632  -6.3910648
 111.8840012 133.4644997  -4.7150012 111.0720012 133.7894997  -5.1030012
 112.1170012 132.7044997  -5.2480012 111.8043423 133.4062436  -4.8401747
 105.3140012 134.9134997 -10.3930012 104.6400012 134.2844997 -10.1370012
 105.8780012 134.4294997 -10.9960012 105.2979230 134.7618744 -10.4394660
 110.4570012 133.0214997 -10.2800012 111.0610012 133.5684997 -10.7820012
 109.5870012 133.3404997 -10.5200012 110.4221241 133.1395806 -10.3812346
 112.1840012 134.1594997 -11.9470012 112.7960012 133.6454997 -12.4730012
 112.5660012 135.0374997 -11.9230012 112.3194540 134.2077140 -12.0158170
  97.6410012 133.5474997 -12.5710012  96.8640012 133.3134997 -13.0780012
  98.1710012 132.7504997 -12.5620012  97.6062330 133.4076988 -12.6392258
  96.4770012 133.3454997 -16.7670012  96.9160012 133.9564997 -17.3590012
  95.8440012 133.8834997 -16.2930012  96.4514514 133.5019257 -16.7839070
 102.2200012 133.4744997 -12.7570012 103.0950012 133.8624997 -12.7870012
 102.0840012 133.2594997 -11.8350012 102.3213695 133.4985184 -12.6363560
 107.7770012 133.5044997 -11.1080012 107.8530012 133.5994997 -12.0580012
 107.5020012 132.5964997 -10.9790012 107.7502321 133.3947867 -11.2204921
 109.1300012 133.5304997 -15.4160012 108.4280012 134.1454997 -15.6250012
 108.6860012 132.6924997 -15.2850012 108.9736330 133.5015783 -15.4269672
  98.3380012 135.2614997 -18.3250012  98.8300012 134.6314997 -18.8520012
  98.9620012 135.5574997 -17.6610012  98.4895446 135.2153199 -18.3074020
 103.3640012 135.5544997 -15.8680012 103.5420012 134.9084997 -15.1850012
 103.3110012 136.3884997 -15.4000012 103.3811829 135.5787985 -15.7114060
  97.5990012 134.0614997  -3.0530012  97.2330012 133.2964997  -2.6100012
  98.5120012 134.0904997  -2.7660012  97.6722790 133.9607224  -2.9535930
  99.5720012 133.4124997  -1.5170012 100.4700012 133.1384997  -1.7020012
  99.1850012 132.6694997  -1.0530012  99.6426612 133.2745914  -1.4796357
 107.9930012 132.7444997  -1.3350012 108.0700012 132.3184997  -0.4810012
 108.8870012 132.7584997  -1.6780012 108.1243428 132.6880880  -1.2644690
 125.5750012 142.7034997 -12.6120012 125.6640012 143.6474997 -12.7440012
 124.9370012 142.4284997 -13.2700012 125.5009081 142.7954830 -12.7190386
 124.5080012 141.9584997  -9.1930012 124.4700012 141.3124997  -8.4880012
 124.1860012 141.4924997  -9.9640012 124.4592333 141.8069408  -9.2007022
 116.8770012 141.5734997  -7.6000012 116.9180012 140.9474997  -6.8770012
 117.5800012 142.1974997  -7.4180012 116.9776363 141.5721196  -7.4763956
 128.2140012 144.8974997 -10.8920012 127.7740012 144.1774997 -10.4410012
 128.2010012 145.6184997 -10.2620012 128.1520226 144.8963731 -10.7451506
 114.4100012 139.6834997 -13.6720012 113.9630012 140.5294997 -13.6910012
 113.8490012 139.1034997 -14.1880012 114.2729900 139.7209916 -13.7443199
 115.1210012 141.8454997 -11.5460012 115.3340012 141.0754997 -11.0190012
 115.8590012 141.9344997 -12.1500012 115.2498496 141.7521394 -11.5554700
 122.8980012 144.3914997  -8.7870012 123.2020012 143.7054997  -9.3820012
 123.6190012 144.5094997  -8.1690012 123.0370671 144.3136305  -8.7848184
 131.5610012 135.9924997  -7.9260012 131.6100012 136.6024997  -7.1900012
 131.9860012 136.4534997  -8.6490012 131.6251824 136.1383741  -7.9229795
 126.0390012 138.7854997  -8.4590012 126.1810012 137.8394997  -8.4390012
 125.9320012 138.9924997  -9.3880012 126.0439863 138.6839534  -8.5817661
 119.1930012 136.8864997 -11.1870012 119.2370012 137.7464997 -11.6050012
 118.7360012 136.3344997 -11.8210012 119.1372185 136.9295799 -11.3299701
 126.9160012 137.0174997 -12.7860012 127.5620012 136.6884997 -12.1610012
 127.4260012 137.5354997 -13.4090012 127.0734264 137.0424611 -12.7846138
 115.8140012 139.2834997 -10.4250012 116.4670012 138.7334997  -9.9930012
 115.8380012 139.0094997 -11.3420012 115.9066683 139.1711466 -10.4897877
 120.9700012 140.8334997 -11.2100012 121.5860012 140.3074997 -10.7000012
 120.3840012 140.1934997 -11.6130012 120.9750810 140.6749208 -11.1946827
 131.9520012 137.4704997  -5.6900012 131.2640012 138.1284997  -5.7860012
 131.9680012 137.2734997  -4.7540012 131.8598525 137.5340462  -5.5765192
 118.0040012 135.8044997  -7.1130012 117.7850012 136.3344997  -7.8790012
 117.3360012 136.0314997  -6.4660012 117.8837600 135.9076906  -7.1303621
 120.5730012 143.4804997  -6.8260012 119.8330012 144.0784997  -6.7220012
 121.2870012 144.0344997  -7.1410012 120.5682237 143.6372831  -6.8543535
 128.6800012 136.3084997 -10.8060012 128.4640012 135.5424997 -10.2730012
 129.3350012 136.7804997 -10.2930012 128.7390632 136.2675889 -10.6637139
 117.5970012 137.6964997  -9.1610012 118.2110012 138.3294997  -8.7870012
 118.1090012 137.2244997  -9.8170012 117.7502296 137.7192370  -9.1985748
 129.0270012 135.0234997  -7.1260012 128.2910012 135.6344997  -7.1640012
 129.7100012 135.4384997  -7.6530012 129.0186541 135.1631374  -7.2024168
 122.0300012 133.1104997  -9.6600012 121.9130012 132.1614997  -9.7150012
 121.1750012 133.4424997  -9.3870012 121.8983733 133.0255409  -9.6306103
 129.8240012 144.9854997  -4.9320012 129.9640012 144.3944997  -5.6720012
 129.9910012 145.8584997  -5.2890012 129.8656778 145.0226426  -5.0813035
 124.2970012 141.9474997 -15.1600012 123.5850012 142.4824997 -15.5120012
 124.9880012 142.0034997 -15.8200012 124.2930132 142.0282543 -15.2973711
 124.3500012 140.4054997 -18.1210012 125.0510012 140.4274997 -17.4700012
 124.6530012 139.7774997 -18.7770012 124.4867830 140.3236566 -18.1206289
 131.6660012 141.3254997  -6.8660012 131.0130012 142.0204997  -6.7770012
 132.1310012 141.5354997  -7.6760012 131.6395390 141.4489425  -6.9633117
 127.7020012 142.1574997 -14.2080012 126.9700012 142.3854997 -13.6350012
 128.1500012 141.4434997 -13.7530012 127.6623095 142.0922571 -14.0680881
 127.6000012 140.3314997  -5.1410012 127.6800012 141.0944997  -4.5690012
 126.9980012 140.6104997  -5.8310012 127.5295756 140.4737134  -5.1559411
 119.3480012 142.7874997 -12.3260012 119.0170012 142.4174997 -13.1440012
 119.9360012 142.1174997 -11.9790012 119.3821873 142.6461156 -12.3911898
 119.7140012 141.5564997  -8.6920012 120.2800012 141.6774997  -9.4550012
 120.0330012 142.1934997  -8.0530012 119.8345786 141.6591884  -8.7099960
 126.5730012 141.3194997 -16.5230012 127.1530012 141.4694997 -15.7760012
 126.9870012 141.7904997 -17.2460012 126.7082830 141.4036841 -16.5185866
 117.5140012 142.1534997  -4.7460012 117.5850012 142.8044997  -4.0480012
 116.6240012 142.2564997  -5.0810012 117.4033117 142.2565936  -4.6957300
 130.2720012 133.0694997 -16.7100012 129.3720012 133.2084997 -16.4150012
 130.5240012 133.9004997 -17.1120012 130.1828702 133.2009074 -16.7239795
 118.3380012 141.8574997 -14.7360012 118.0460012 142.6254997 -15.2270012
 117.6640012 141.1974997 -14.8990012 118.2069081 141.8734406 -14.8252660
 114.4310012 144.2204997  -5.9210012 113.9300012 144.1924997  -6.7360012
 114.4360012 143.3144997  -5.6120012 114.3631526 144.0942278  -5.9907128
 129.5310012 139.1594997  -2.8750012 129.1240012 139.6404997  -3.5960012
 129.5720012 138.2544997  -3.1830012 129.4808437 139.1029374  -3.0153317
 119.2990012 134.0134997  -8.8830012 118.4370012 133.9264997  -9.2900012
 119.2760012 134.8694997  -8.4550012 119.1780330 134.1172765  -8.8808137
 123.9620012 133.7354997  -5.5080012 124.3820012 133.3204997  -4.7550012
 123.0290012 133.5574997  -5.3910012 123.8933644 133.6545900  -5.3890461
 127.2880012 137.4914997  -4.6550012 126.7740012 137.3654997  -3.8570012
 127.1330012 138.4034997  -4.8990012 127.1966852 137.5976132  -4.5787842
 128.0510012 142.3524997 -18.8930012 128.0930012 142.1294997 -19.8230012
 128.9000012 142.7514997 -18.7030012 128.1715396 142.3759155 -18.9946373
 123.6230012 136.2284997 -18.2230012 123.3700012 136.2474997 -17.3000012
 123.3670012 135.3564997 -18.5240012 123.5537790 136.1132437 -18.1373737
 119.3900012 138.9794997  -7.7880012 118.7480012 138.9384997  -7.0790012
 119.4270012 139.9054997  -8.0250012 119.3071324 139.0991559  -7.7230176
 119.3870012 139.2004997 -12.8760012 118.4940012 138.8594997 -12.9340012
 119.8370012 138.8234997 -13.6310012 119.3257305 139.1028484 -12.9860823
 124.9220012 139.6164997 -14.0590012 124.5130012 140.4314997 -14.3500012
 125.6430012 139.4764997 -14.6730012 124.9634537 139.7092018 -14.1818658
 124.0240012 139.7914997  -2.5710012 123.4620012 139.0874997  -2.2500012
 124.8510012 139.6714997  -2.1030012 124.0587095 139.6787883  -2.4637670
 125.9270012 139.0624997 -11.2450012 125.7320012 139.6674997 -11.9600012
 126.1080012 138.2284997 -11.6790012 125.9247614 139.0326300 -11.4015595
 117.1400012 139.2994997  -5.9210012 117.1020012 139.6994997  -5.0520012
 116.6490012 138.4824997  -5.8300012 117.0684684 139.2438069  -5.7898941
 120.5060012 136.6734997 -19.1220012 120.0750012 136.2284997 -18.3920012
 119.7880012 137.0454997 -19.6340012 120.3499438 136.6628940 -19.0913201
 113.7480012 136.4154997 -12.0700012 114.3790012 136.3864997 -11.3510012
 114.1970012 135.9904997 -12.8000012 113.8950774 136.3540492 -12.0703447
 115.0220012 137.1614997 -16.6460012 115.4960012 137.7524997 -17.2310012
 114.3050012 137.6924997 -16.2990012 114.9899341 137.3140867 -16.6791164
 125.1910012 140.7004997  -6.5730012 125.5140012 140.0694997  -7.2160012
 124.7510012 140.1654997  -5.9130012 125.1756895 140.5418441  -6.5717150
 121.9680012 136.6274997 -11.7890012 121.0570012 136.6844997 -11.5010012
 122.4740012 136.5674997 -10.9790012 121.9115413 136.6271985 -11.6399378
 116.7970012 138.2564997 -12.9630012 115.9070012 138.3564997 -13.3030012
 117.0930012 137.4144997 -13.3090012 116.7152823 138.1563545 -13.0562787
 120.4500012 138.2564997 -15.3060012 121.3810012 138.3854997 -15.1280012
 120.2350012 138.9264997 -15.9560012 120.5484247 138.3646565 -15.3694253
 126.3730012 135.8624997  -8.5250012 125.6970012 135.9934997  -7.8610012
 125.8880012 135.7074997  -9.3350012 126.2147145 135.8594905  -8.5435483
 119.1240012 139.4514997 -17.7390012 118.5810012 139.0714997 -18.4310012
 119.9570012 139.6454997 -18.1680012 119.1624399 139.4258124 -17.8915474
 117.2590012 144.0084997  -2.6400012 117.9910012 144.2624997  -2.0790012
 116.4790012 144.2124997  -2.1250012 117.2538232 144.0709177  -2.4934240
 123.2880012 139.4154997  -9.9020012 123.8530012 138.8684997 -10.4490012
 123.1410012 138.8934997  -9.1140012 123.3452918 139.2702024  -9.8701546
 118.2900012 135.5514997 -13.4840012 117.9730012 134.6494997 -13.5190012
 119.0720012 135.5534997 -14.0370012 118.3522284 135.4281628 -13.5635217
 121.9150012 137.8034997  -7.4880012 121.0790012 138.2574997  -7.3780012
 122.4390012 138.0794997  -6.7360012 121.8714414 137.9029376  -7.3712864
 122.4590012 144.0164997 -15.8040012 121.7140012 143.5094997 -16.1260012
 122.3250012 144.0654997 -14.8570012 122.3388776 143.9536940 -15.7201353
 129.6090012 143.1494997  -7.0170012 130.2510012 143.6064997  -7.5610012
 128.7790012 143.2624997  -7.4800012 129.5845963 143.2272704  -7.1539823
 126.3570012 136.8304997 -17.6040012 125.4180012 136.9424997 -17.7560012
 126.6540012 137.6874997 -17.2980012 126.2687666 136.9616443 -17.5834232
 123.9780012 144.2004997  -4.5670012 123.6330012 143.8194997  -3.7600012
 123.7780012 145.1344997  -4.4950012 123.9038061 144.2745228  -4.4469039
 127.0750012 138.6974997 -15.9440012 127.9670012 138.5604997 -15.6250012
 127.1320012 139.4884997 -16.4800012 127.2046285 138.7856660 -15.9728310
 117.5840012 143.3114997 -10.0340012 118.3290012 143.3094997 -10.6350012
 117.6620012 142.4884997  -9.5520012 117.6965518 143.1999315 -10.0511071
 114.5920012 141.7724997  -4.7190012 114.8150012 141.3544997  -3.8870012
 113.9900012 141.1594997  -5.1420012 114.5411759 141.6324668  -4.6622978
 121.6080012 141.2894997  -2.5060012 121.3120012 141.1234997  -3.4010012
 122.5400012 141.0694997  -2.5170012 121.6934166 141.2370640  -2.6299464
 131.9600012 138.9074997 -16.2490012 131.4060012 138.5114997 -16.9210012
 132.0600012 139.8174997 -16.5270012 131.8977059 138.9763586 -16.3785599
 131.9230012 144.7074997  -3.4120012 131.0720012 144.9454997  -3.7790012
 132.5140012 144.6904997  -4.1650012 131.8862487 144.7378258  -3.5641107
 127.4160012 142.5014997  -8.7630012 126.4870012 142.2694997  -8.7900012
 127.8670012 141.7244997  -9.0930012 127.3499216 142.3647238  -8.8113083
 115.7140012 141.6914997 -18.0430012 116.3300012 142.3184997 -17.6630012
 114.8520012 142.0074997 -17.7710012 115.6817698 141.8199430 -17.9542817
 121.3860012 144.4924997 -13.0530012 121.1450012 145.4174997 -13.0120012
 120.6450012 144.0334997 -12.6570012 121.2528409 144.5571421 -12.9938623
 125.4450012 144.7404997  -7.0380012 125.0190012 144.5134997  -6.2110012
 126.0250012 144.0024997  -7.2200012 125.4651868 144.6095299  -6.9494170
 116.2260012 136.5254997  -5.1610012 115.3330012 136.8644997  -5.2290012
 116.1270012 135.6704997  -4.7430012 116.0904164 136.4562588  -5.1137765
 128.5140012 144.3424997 -15.7370012 128.2360012 143.6144997 -15.1810012
 129.4410012 144.4614997 -15.5320012 128.6013124 144.2588802 -15.6331155
 117.1290012 143.6044997 -16.5500012 116.4430012 143.9564997 -15.9830012
 117.6510012 144.3674997 -16.7970012 117.1056852 143.7558578 -16.5057882
 124.9600012 136.2664997  -6.2710012 125.6590012 136.3404997  -5.6210012
 124.5790012 135.4024997  -6.1170012 125.0041767 136.1597624  -6.1611678
 125.7450012 135.9184997 -15.1740012 125.9650012 136.3904997 -15.9770012
 126.3030012 136.3134997 -14.5040012 125.8504968 136.0364285 -15.1932669
 122.9450012 137.6464997 -14.3390012 123.7570012 138.1514997 -14.2930012
 122.7000012 137.5014997 -13.4250012 123.0230520 137.6960375 -14.2091483
 123.4800012 138.6324997  -5.1540012 123.5990012 139.2064997  -4.3970012
 124.1360012 137.9444997  -5.0400012 123.5849757 138.6181079  -5.0349175
 123.8280012 134.7274997 -13.4010012 123.4820012 135.3454997 -12.7560012
 124.4870012 135.2284997 -13.8820012 123.8697826 134.8795802 -13.3779029
 119.4860012 135.7904997 -16.7140012 119.4030012 136.6794997 -16.3670012
 120.3760012 135.5254997 -16.4820012 119.5949469 135.8761430 -16.6352374
 129.6850012 136.5394997  -4.3190012 128.7680012 136.8024997  -4.4070012
 130.0200012 136.5364997  -5.2160012 129.6049900 136.5750224  -4.4522081
 128.2870012 140.2904997 -10.2240012 127.4890012 139.8754997 -10.5520012
 128.7320012 139.5994997  -9.7330012 128.2379885 140.1403543 -10.2025111
 116.0610012 138.8824997 -18.5370012 116.0160012 139.8214997 -18.3590012
 115.1730012 138.6464997 -18.8070012 115.9348574 138.9791892 -18.5491088
 116.8690012 133.6644997  -9.8640012 116.6400012 133.7234997 -10.7920012
 116.4260012 132.8724997  -9.5580012 116.7778530 133.5655753  -9.9495214
 114.9940012 144.0274997  -1.4190012 115.1380012 143.1254997  -1.7060012
 114.2220012 144.3134997  -1.9070012 114.9093322 143.9428261  -1.5242119
 119.3360012 144.3714997 -19.2870012 119.4000012 143.5774997 -18.7560012
 119.9890012 144.2524997 -19.9770012 119.4330241 144.2467148 -19.3075683
 121.6500012 143.9974997  -1.9870012 121.3210012 144.2684997  -2.8440012
 121.8020012 143.0564997  -2.0740012 121.6254809 143.9073862  -2.1161756
 127.3840012 143.9134997  -4.6030012 128.1300012 144.5014997  -4.7230012
 126.6270012 144.4954997  -4.5400012 127.3837554 144.0727011  -4.6109093
 115.8270012 141.2274997  -1.9990012 116.2350012 140.3704997  -2.1200012
 115.5670012 141.2424997  -1.0780012 115.8477568 141.1120807  -1.8910412
 120.4850012 142.3434997 -16.9810012 120.0250012 141.8594997 -16.2950012
 120.7400012 141.6754997 -17.6170012 120.4564902 142.1868731 -16.9730666
 119.7740012 140.2364997  -4.6250012 119.1560012 140.9114997  -4.3450012
 120.1180012 140.5574997  -5.4580012 119.7359615 140.3722721  -4.6993419
 121.5560012 140.5864997 -18.7190012 121.3760012 140.4324997 -19.6460012
 122.5060012 140.6944997 -18.6740012 121.6597776 140.5800175 -18.8398157
 124.7940012 142.7084997  -1.3480012 125.7470012 142.7914997  -1.3750012
 124.6330012 141.9964997  -0.7280012 124.9026426 142.6236746  -1.2679421
 130.9460012 142.9414997 -19.2730012 130.6720012 142.5164997 -20.0860012
 130.9850012 143.8724997 -19.4900012 130.9137699 143.0092484 -19.4136390
 120.1130012 137.5914997  -3.5430012 120.2630012 136.8624997  -4.1450012
 120.1160012 138.3684997  -4.1020012 120.1339302 137.5967851  -3.7009308
 120.5260012 135.9614997  -6.0500012 121.0620012 136.4124997  -6.7020012
 119.6740012 135.8534997  -6.4730012 120.4842178 136.0086390  -6.1964244
 122.1080012 141.4004997  -5.8110012 122.8580012 141.2444997  -6.3840012
 121.7690012 142.2524997  -6.0860012 122.1648921 141.4942968  -5.9266439
 126.5230012 139.2154997  -0.7820012 126.7160012 138.2844997  -0.8940012
 127.3810012 139.6404997  -0.7920012 126.6653020 139.1456389  -0.7986639
 127.8400012 142.0044997  -2.7050012 127.5590012 142.7134997  -3.2820012
 128.7830012 141.9314997  -2.8560012 127.9289027 142.0917646  -2.8044449
 118.5920012 138.7894997  -1.6310012 117.8250012 138.2574997  -1.8410012
 119.2710012 138.4794997  -2.2310012 118.5787022 138.6747506  -1.7408352
 121.3320012 133.4174997  -5.6190012 121.2330012 134.3644997  -5.7240012
 120.5890012 133.0454997  -6.0940012 121.2180564 133.4965902  -5.6975440
 122.5960012 137.7394997  -2.0550012 122.3600012 137.5194997  -1.1530012
 121.8120012 137.5324997  -2.5650012 122.4578628 137.6814760  -2.0006068
 125.3110012 136.8664997  -2.9790012 124.3640012 136.8984997  -2.8470012
 125.6240012 136.2414997  -2.3260012 125.2235475 136.7863207  -2.8725545
 126.9450012 135.5004997  -0.9740012 126.8490012 134.5484997  -0.9800012
 126.6240012 135.7694997  -0.1140012 126.8884070 135.4064035  -0.8584559
 116.7720012 136.7104997  -1.9270012 116.9840012 136.0034997  -2.5370012
 116.6610012 136.2724997  -1.0830012 116.7859721 136.5547084  -1.8963157
 121.5530012 132.7114997  -2.9470012 122.2650012 132.0714997  -2.9610012
 121.4520012 132.9784997  -3.8610012 121.6367939 132.6599938  -3.0724350
 121.9070012 134.3944997  -0.8940012 121.7750012 133.9184997  -1.7140012
 121.3080012 135.1384997  -0.9490012 121.8079071 134.4299618  -1.0137114
 131.4040012 143.8104997 -15.2980012 132.2540012 144.2314997 -15.1710012
 131.4100012 143.0704997 -14.6910012 131.5211372 143.7680803 -15.1985656
 131.7990012 141.8634997 -13.4740012 131.0720012 141.3844997 -13.0770012
 132.3800012 142.0694997 -12.7420012 131.7779375 141.8257090 -13.3205871
 131.5580012 144.6484997  -8.5270012 132.3910012 144.2704997  -8.8070012
 131.6700012 145.5914997  -8.6460012 131.6872647 144.7242218  -8.5814513
 132.0670012 141.7644997 -17.0830012 131.5450012 142.1214997 -17.8020012
 132.0340012 142.4394997 -16.4050012 131.9911634 141.9045413 -17.0896855
 130.4160012 139.0044997 -18.5320012 130.5120012 139.6714997 -19.2130012
 130.2760012 138.1884997 -19.0140012 130.4102135 138.9854500 -18.6901509
 129.5850012 140.3844997 -12.9110012 129.4350012 139.4394997 -12.9320012
 129.2320012 140.6654997 -12.0680012 129.5166625 140.2930441 -12.7997654
 114.6210012 142.4624997  -8.9010012 114.8050012 142.3804997  -9.8370012
 115.4700012 142.3384997  -8.4770012 114.7610139 142.4345003  -8.9718545
 130.4420012 142.3544997  -3.2730012 131.0250012 141.6204997  -3.0810012
 131.0060012 143.1264997  -3.2260012 130.5979769 142.3584227  -3.2403841
 131.9380012 140.2574997  -2.5880012 131.0750012 139.8784997  -2.7540012
 132.5430012 139.5184997  -2.6620012 131.9015979 140.1058023  -2.6207183
 129.6630012 136.4124997 -19.4150012 130.2740012 136.0414997 -18.7780012
 128.8270012 135.9914997 -19.2190012 129.6335032 136.3047554 -19.3012965
 129.2960012 137.9674997 -14.4490012 129.5760012 137.0604997 -14.3250012
 130.0550012 138.4014997 -14.8380012 129.4369277 137.9020942 -14.4846318
 129.9080012 138.5484997  -9.0130012 130.8410012 138.7604997  -9.0470012
 129.6730012 138.6504997  -8.0910012 130.0038036 138.5912769  -8.8930024
 129.9370012 139.2854997  -6.2370012 129.0940012 139.5534997  -5.8710012
 130.3790012 140.1074997  -6.4480012 129.8814158 139.4333291  -6.2154509
 114.2180012 137.7334997  -2.7600012 115.1380012 137.6114997  -2.5240012
 113.7690012 136.9834997  -2.3710012 114.2831580 137.6153727  -2.6750994
 132.2200012 133.2654997  -0.8840012 132.5700012 132.6114997  -1.4890012
 132.3670012 134.1024997  -1.3230012 132.2878419 133.2891591  -1.0262882
 129.9090012 135.2304997 -14.4010012 130.0920012 134.7814997 -13.5750012
 129.3100012 134.6454997 -14.8640012 129.8530202 135.0899975 -14.3506725
 115.4390012 136.0454997  -9.8690012 115.8850012 135.2534997  -9.5670012
 115.9060012 136.7614997  -9.4380012 115.5630172 136.0340624  -9.7695180
 113.7430012 139.0444997  -8.8000012 114.2350012 138.8234997  -9.5910012
 114.1060012 139.8854997  -8.5190012 113.8593126 139.1278357  -8.8702469
 131.7400012 135.3744997  -2.5340012 130.8220012 135.6454997  -2.5700012
 131.8630012 134.8394997  -3.3190012 131.6311066 135.3392892  -2.6449513
 131.7760012 135.2974997 -17.8730012 132.1880012 134.5764997 -18.3480012
 132.4580012 135.9674997 -17.8140012 131.9245885 135.2892368 -17.9301085
 114.0570012 135.3024997 -14.7460012 113.1320012 135.5114997 -14.8750012
 114.5110012 135.7864997 -15.4350012 113.9917368 135.3965993 -14.8568774
 114.0210012 134.0404997  -6.4010012 113.3560012 133.7944997  -5.7580012
 113.5780012 134.6624997  -6.9790012 113.8700956 134.0908632  -6.3910648
 130.7400012 133.4644997  -4.7150012 129.9280012 133.7894997  -5.1030012
 130.9730012 132.7044997  -5.2480012 130.6603423 133.4062436  -4.8401747
 124.1700012 134.9134997 -10.3930012 123.4960012 134.2844997 -10.1370012
 124.7340012 134.4294997 -10.9960012 124.1539230 134.7618744 -10.4394660
 129.3130012 133.0214997 -10.2800012 129.9170012 133.5684997 -10.7820012
 128.4430012 133.3404997 -10.5200012 129.2781241 133.1395806 -10.3812346
 131.0400012 134.1594997 -11.9470012 131.6520012 133.6454997 -12.4730012
 131.4220012 135.0374997 -11.9230012 131.1754540 134.2077140 -12.0158170
 116.4970012 133.5474997 -12.5710012 115.7200012 133.3134997 -13.0780012
 117.0270012 132.7504997 -12.5620012 116.4622330 133.4076988 -12.6392258
 115.3330012 133.3454997 -16.7670012 115.7720012 133.9564997 -17.3590012
 114.7000012 133.8834997 -16.2930012 115.3074514 133.5019257 -16.7839070
 121.0760012 133.4744997 -12.7570012 121.9510012 133.8624997 -12.7870012
 120.9400012 133.2594997 -11.8350012 121.1773695 133.4985184 -12.6363560
 126.6330012 133.5044997 -11.1080012 126.7090012 133.5994997 -12.0580012
 126.3580012 132.5964997 -10.9790012 126.6062321 133.3947867 -11.2204921
 127.9860012 133.5304997 -15.4160012 127.2840012 134.1454997 -15.6250012
 127.5420012 132.6924997 -15.2850012 127.8296330 133.5015783 -15.4269672
 117.1940012 135.2614997 -18.3250012 117.6860012 134.6314997 -18.8520012
 117.8180012 135.5574997 -17.6610012 117.3455446 135.2153199 -18.3074020
 122.2200012 135.5544997 -15.8680012 122.3980012 134.9084997 -15.1850012
 122.1670012 136.3884997 -15.4000012 122.2371829 135.5787985 -15.7114060
 116.4550012 134.0614997  -3.0530012 116.0890012 133.2964997  -2.6100012
 117.3680012 134.0904997  -2.7660012 116.5282790 133.9607224  -2.9535930
 118.4280012 133.4124997  -1.5170012 119.3260012 133.1384997  -1.7020012
 118.0410012 132.6694997  -1.0530012 118.4986612 133.2745914  -1.4796357
 126.8490012 132.7444997  -1.3350012 126.9260012 132.3184997  -0.4810012
 127.7430012 132.7584997  -1.6780012 126.9803428 132.6880880  -1.2644690
 144.4310012 142.7034997 -12.6120012 144.5200012 143.6474997 -12.7440012
 143.7930012 142.4284997 -13.2700012 144.3569081 142.7954830 -12.7190386
 143.3640012 141.9584997  -9.1930012 143.3260012 141.3124997  -8.4880012
 143.0420012 141.4924997  -9.9640012 143.3152333 141.8069408  -9.2007022
 135.7330012 141.5734997  -7.6000012 135.7740012 140.9474997  -6.8770012
 136.4360012 142.1974997  -7.4180012 135.8336363 141.5721196  -7.4763956
 133.2660012 139.6834997 -13.6720012 132.8190012 140.5294997 -13.6910012
 132.7050012 139.1034997 -14.1880012 133.1289900 139.7209916 -13.7443199
 133.9770012 141.8454997 -11.5460012 134.1900012 141.0754997 -11.0190012
 134.7150012 141.9344997 -12.1500012 134.1058496 141.7521394 -11.5554700
 141.7540012 144.3914997  -8.7870012 142.0580012 143.7054997  -9.3820012
 142.4750012 144.5094997  -8.1690012 141.8930671 144.3136305  -8.7848184
 144.8950012 138.7854997  -8.4590012 145.0370012 137.8394997  -8.4390012
 144.7880012 138.9924997  -9.3880012 144.8999863 138.6839534  -8.5817661
 138.0490012 136.8864997 -11.1870012 138.0930012 137.7464997 -11.6050012
 137.5920012 136.3344997 -11.8210012 137.9932185 136.9295799 -11.3299701
 134.6700012 139.2834997 -10.4250012 135.3230012 138.7334997  -9.9930012
 134.6940012 139.0094997 -11.3420012 134.7626683 139.1711466 -10.4897877
 139.8260012 140.8334997 -11.2100012 140.4420012 140.3074997 -10.7000012
 139.2400012 140.1934997 -11.6130012 139.8310810 140.6749208 -11.1946827
 136.8600012 135.8044997  -7.1130012 136.6410012 136.3344997  -7.8790012
 136.1920012 136.0314997  -6.4660012 136.7397600 135.9076906  -7.1303621
 139.4290012 143.4804997  -6.8260012 138.6890012 144.0784997  -6.7220012
 140.1430012 144.0344997  -7.1410012 139.4242237 143.6372831  -6.8543535
 136.4530012 137.6964997  -9.1610012 137.0670012 138.3294997  -8.7870012
 136.9650012 137.2244997  -9.8170012 136.6062296 137.7192370  -9.1985748
 140.8860012 133.1104997  -9.6600012 140.7690012 132.1614997  -9.7150012
 140.0310012 133.4424997  -9.3870012 140.7543733 133.0255409  -9.6306103
 143.1530012 141.9474997 -15.1600012 142.4410012 142.4824997 -15.5120012
 143.8440012 142.0034997 -15.8200012 143.1490132 142.0282543 -15.2973711
 143.2060012 140.4054997 -18.1210012 143.9070012 140.4274997 -17.4700012
 143.5090012 139.7774997 -18.7770012 143.3427830 140.3236566 -18.1206289
 138.2040012 142.7874997 -12.3260012 137.8730012 142.4174997 -13.1440012
 138.7920012 142.1174997 -11.9790012 138.2381873 142.6461156 -12.3911898
 138.5700012 141.5564997  -8.6920012 139.1360012 141.6774997  -9.4550012
 138.8890012 142.1934997  -8.0530012 138.6905786 141.6591884  -8.7099960
 136.3700012 142.1534997  -4.7460012 136.4410012 142.8044997  -4.0480012
 135.4800012 142.2564997  -5.0810012 136.2593117 142.2565936  -4.6957300
 137.1940012 141.8574997 -14.7360012 136.9020012 142.6254997 -15.2270012
 136.5200012 141.1974997 -14.8990012 137.0629081 141.8734406 -14.8252660
 133.2870012 144.2204997  -5.9210012 132.7860012 144.1924997  -6.7360012
 133.2920012 143.3144997  -5.6120012 133.2191526 144.0942278  -5.9907128
 138.1550012 134.0134997  -8.8830012 137.2930012 133.9264997  -9.2900012
 138.1320012 134.8694997  -8.4550012 138.0340330 134.1172765  -8.8808137
 142.8180012 133.7354997  -5.5080012 143.2380012 133.3204997  -4.7550012
 141.8850012 133.5574997  -5.3910012 142.7493644 133.6545900  -5.3890461
 142.4790012 136.2284997 -18.2230012 142.2260012 136.2474997 -17.3000012
 142.2230012 135.3564997 -18.5240012 142.4097790 136.1132437 -18.1373737
 138.2460012 138.9794997  -7.7880012 137.6040012 138.9384997  -7.0790012
 138.2830012 139.9054997  -8.0250012 138.1631324 139.0991559  -7.7230176
 138.2430012 139.2004997 -12.8760012 137.3500012 138.8594997 -12.9340012
 138.6930012 138.8234997 -13.6310012 138.1817305 139.1028484 -12.9860823
 143.7780012 139.6164997 -14.0590012 143.3690012 140.4314997 -14.3500012
 144.4990012 139.4764997 -14.6730012 143.8194537 139.7092018 -14.1818658
 142.8800012 139.7914997  -2.5710012 142.3180012 139.0874997  -2.2500012
 143.7070012 139.6714997  -2.1030012 142.9147095 139.6787883  -2.4637670
 144.7830012 139.0624997 -11.2450012 144.5880012 139.6674997 -11.9600012
 144.9640012 138.2284997 -11.6790012 144.7807614 139.0326300 -11.4015595
 135.9960012 139.2994997  -5.9210012 135.9580012 139.6994997  -5.0520012
 135.5050012 138.4824997  -5.8300012 135.9244684 139.2438069  -5.7898941
 139.3620012 136.6734997 -19.1220012 138.9310012 136.2284997 -18.3920012
 138.6440012 137.0454997 -19.6340012 139.2059438 136.6628940 -19.0913201
 132.6040012 136.4154997 -12.0700012 133.2350012 136.3864997 -11.3510012
 133.0530012 135.9904997 -12.8000012 132.7510774 136.3540492 -12.0703447
 133.8780012 137.1614997 -16.6460012 134.3520012 137.7524997 -17.2310012
 133.1610012 137.6924997 -16.2990012 133.8459341 137.3140867 -16.6791164
 144.0470012 140.7004997  -6.5730012 144.3700012 140.0694997  -7.2160012
 143.6070012 140.1654997  -5.9130012 144.0316895 140.5418441  -6.5717150
 140.8240012 136.6274997 -11.7890012 139.9130012 136.6844997 -11.5010012
 141.3300012 136.5674997 -10.9790012 140.7675413 136.6271985 -11.6399378
 135.6530012 138.2564997 -12.9630012 134.7630012 138.3564997 -13.3030012
 135.9490012 137.4144997 -13.3090012 135.5712823 138.1563545 -13.0562787
 139.3060012 138.2564997 -15.3060012 140.2370012 138.3854997 -15.1280012
 139.0910012 138.9264997 -15.9560012 139.4044247 138.3646565 -15.3694253
 137.9800012 139.4514997 -17.7390012 137.4370012 139.0714997 -18.4310012
 138.8130012 139.6454997 -18.1680012 138.0184399 139.4258124 -17.8915474
 136.1150012 144.0084997  -2.6400012 136.8470012 144.2624997  -2.0790012
 135.3350012 144.2124997  -2.1250012 136.1098232 144.0709177  -2.4934240
 142.1440012 139.4154997  -9.9020012 142.7090012 138.8684997 -10.4490012
 141.9970012 138.8934997  -9.1140012 142.2012918 139.2702024  -9.8701546
 137.1460012 135.5514997 -13.4840012 136.8290012 134.6494997 -13.5190012
 137.9280012 135.5534997 -14.0370012 137.2082284 135.4281628 -13.5635217
 140.7710012 137.8034997  -7.4880012 139.9350012 138.2574997  -7.3780012
 141.2950012 138.0794997  -6.7360012 140.7274414 137.9029376  -7.3712864
 141.3150012 144.0164997 -15.8040012 140.5700012 143.5094997 -16.1260012
 141.1810012 144.0654997 -14.8570012 141.1948776 143.9536940 -15.7201353
 142.8340012 144.2004997  -4.5670012 142.4890012 143.8194997  -3.7600012
 142.6340012 145.1344997  -4.4950012 142.7598061 144.2745228  -4.4469039
 136.4400012 143.3114997 -10.0340012 137.1850012 143.3094997 -10.6350012
 136.5180012 142.4884997  -9.5520012 136.5525518 143.1999315 -10.0511071
 133.4480012 141.7724997  -4.7190012 133.6710012 141.3544997  -3.8870012
 132.8460012 141.1594997  -5.1420012 133.3971759 141.6324668  -4.6622978
 140.4640012 141.2894997  -2.5060012 140.1680012 141.1234997  -3.4010012
 141.3960012 141.0694997  -2.5170012 140.5494166 141.2370640  -2.6299464
 134.5700012 141.6914997 -18.0430012 135.1860012 142.3184997 -17.6630012
 133.7080012 142.0074997 -17.7710012 134.5377698 141.8199430 -17.9542817
 140.2420012 144.4924997 -13.0530012 140.0010012 145.4174997 -13.0120012
 139.5010012 144.0334997 -12.6570012 140.1088409 144.5571421 -12.9938623
 144.3010012 144.7404997  -7.0380012 143.8750012 144.5134997  -6.2110012
 144.8810012 144.0024997  -7.2200012 144.3211868 144.6095299  -6.9494170
 135.0820012 136.5254997  -5.1610012 134.1890012 136.8644997  -5.2290012
 134.9830012 135.6704997  -4.7430012 134.9464164 136.4562588  -5.1137765
 135.9850012 143.6044997 -16.5500012 135.2990012 143.9564997 -15.9830012
 136.5070012 144.3674997 -16.7970012 135.9616852 143.7558578 -16.5057882
 143.8160012 136.2664997  -6.2710012 144.5150012 136.3404997  -5.6210012
 143.4350012 135.4024997  -6.1170012 143.8601767 136.1597624  -6.1611678
 144.6010012 135.9184997 -15.1740012 144.8210012 136.3904997 -15.9770012
 145.1590012 136.3134997 -14.5040012 144.7064968 136.0364285 -15.1932669
 141.8010012 137.6464997 -14.3390012 142.6130012 138.1514997 -14.2930012
 141.5560012 137.5014997 -13.4250012 141.8790520 137.6960375 -14.2091483
 142.3360012 138.6324997  -5.1540012 142.4550012 139.2064997  -4.3970012
 142.9920012 137.9444997  -5.0400012 142.4409757 138.6181079  -5.0349175
 142.6840012 134.7274997 -13.4010012 142.3380012 135.3454997 -12.7560012
 143.3430012 135.2284997 -13.8820012 142.7257826 134.8795802 -13.3779029
 138.3420012 135.7904997 -16.7140012 138.2590012 136.6794997 -16.3670012
 139.2320012 135.5254997 -16.4820012 138.4509469 135.8761430 -16.6352374
 134.9170012 138.8824997 -18.5370012 134.8720012 139.8214997 -18.3590012
 134.0290012 138.6464997 -18.8070012 134.7908574 138.9791892 -18.5491088
 135.7250012 133.6644997  -9.8640012 135.4960012 133.7234997 -10.7920012
 135.2820012 132.8724997  -9.5580012 135.6338530 133.5655753  -9.9495214
 133.8500012 144.0274997  -1.4190012 133.9940012 143.1254997  -1.7060012
 133.0780012 144.3134997  -1.9070012 133.7653322 143.9428261  -1.5242119
 138.1920012 144.3714997 -19.2870012 138.2560012 143.5774997 -18.7560012
 138.8450012 144.2524997 -19.9770012 138.2890241 144.2467148 -19.3075683
 140.5060012 143.9974997  -1.9870012 140.1770012 144.2684997  -2.8440012
 140.6580012 143.0564997  -2.0740012 140.4814809 143.9073862  -2.1161756
 134.6830012 141.2274997  -1.9990012 135.0910012 140.3704997  -2.1200012
 134.4230012 141.2424997  -1.0780012 134.7037568 141.1120807  -1.8910412
 139.3410012 142.3434997 -16.9810012 138.8810012 141.8594997 -16.2950012
 139.5960012 141.6754997 -17.6170012 139.3124902 142.1868731 -16.9730666
 138.6300012 140.2364997  -4.6250012 138.0120012 140.9114997  -4.3450012
 138.9740012 140.5574997  -5.4580012 138.5919615 140.3722721  -4.6993419
 140.4120012 140.5864997 -18.7190012 140.2320012 140.4324997 -19.6460012
 141.3620012 140.6944997 -18.6740012 140.5157776 140.5800175 -18.8398157
 143.6500012 142.7084997  -1.3480012 144.6030012 142.7914997  -1.3750012
 143.4890012 141.9964997  -0.7280012 143.7586426 142.6236746  -1.2679421
 138.9690012 137.5914997  -3.5430012 139.1190012 136.8624997  -4.1450012
 138.9720012 138.3684997  -4.1020012 138.9899302 137.5967851  -3.7009308
 139.3820012 135.9614997  -6.0500012 139.9180012 136.4124997  -6.7020012
 138.5300012 135.8534997  -6.4730012 139.3402178 136.0086390  -6.1964244
 140.9640012 141.4004997  -5.8110012 141.7140012 141.2444997  -6.3840012
 140.6250012 142.2524997  -6.0860012 141.0208921 141.4942968  -5.9266439
 137.4480012 138.7894997  -1.6310012 136.6810012 138.2574997  -1.8410012
 138.1270012 138.4794997  -2.2310012 137.4347022 138.6747506  -1.7408352
 140.1880012 133.4174997  -5.6190012 140.0890012 134.3644997  -5.7240012
 139.4450012 133.0454997  -6.0940012 140.0740564 133.4965902  -5.6975440
 141.4520012 137.7394997  -2.0550012 141.2160012 137.5194997  -1.1530012
 140.6680012 137.5324997  -2.5650012 141.3138628 137.6814760  -2.0006068
 144.1670012 136.8664997  -2.9790012 143.2200012 136.8984997  -2.8470012
 144.4800012 136.2414997  -2.3260012 144.0795475 136.7863207  -2.8725545
 135.6280012 136.7104997  -1.9270012 135.8400012 136.0034997  -2.5370012
 135.5170012 136.2724997  -1.0830012 135.6419721 136.5547084  -1.8963157
 140.4090012 132.7114997  -2.9470012 141.1210012 132.0714997  -2.9610012
 140.3080012 132.9784997  -3.8610012 140.4927939 132.6599938  -3.0724350
 140.7630012 134.3944997  -0.8940012 140.6310012 133.9184997  -1.7140012
 140.1640012 135.1384997  -0.9490012 140.6639071 134.4299618  -1.0137114
 133.4770012 142.4624997  -8.9010012 133.6610012 142.3804997  -9.8370012
 134.3260012 142.3384997  -8.4770012 133.6170139 142.4345003  -8.9718545
 133.0740012 137.7334997  -2.7600012 133.9940012 137.6114997  -2.5240012
 132.6250012 136.9834997  -2.3710012 133.1391580 137.6153727  -2.6750994
 134.2950012 136.0454997  -9.8690012 134.7410012 135.2534997  -9.5670012
 134.7620012 136.7614997  -9.4380012 134.4190172 136.0340624  -9.7695180
 132.5990012 139.0444997  -8.8000012 133.0910012 138.8234997  -9.5910012
 132.9620012 139.8854997  -8.5190012 132.7153126 139.1278357  -8.8702469
 132.9130012 135.3024997 -14.7460012 131.9880012 135.5114997 -14.8750012
 133.3670012 135.7864997 -15.4350012 132.8477368 135.3965993 -14.8568774
 132.8770012 134.0404997  -6.4010012 132.2120012 133.7944997  -5.7580012
 132.4340012 134.6624997  -6.9790012 132.7260956 134.0908632  -6.3910648
 143.0260012 134.9134997 -10.3930012 142.3520012 134.2844997 -10.1370012
 143.5900012 134.4294997 -10.9960012 143.0099230 134.7618744 -10.4394660
 135.3530012 133.5474997 -12.5710012 134.5760012 133.3134997 -13.0780012
 135.8830012 132.7504997 -12.5620012 135.3182330 133.4076988 -12.6392258
 134.1890012 133.3454997 -16.7670012 134.6280012 133.9564997 -17.3590012
 133.5560012 133.8834997 -16.2930012 134.1634514 133.5019257 -16.7839070
 139.9320012 133.4744997 -12.7570012 140.8070012 133.8624997 -12.7870012
 139.7960012 133.2594997 -11.8350012 140.0333695 133.4985184 -12.6363560
 136.0500012 135.2614997 -18.3250012 136.5420012 134.6314997 -18.8520012
 136.6740012 135.5574997 -17.6610012 136.2015446 135.2153199 -18.3074020
 141.0760012 135.5544997 -15.8680012 141.2540012 134.9084997 -15.1850012
 141.0230012 136.3884997 -15.4000012 141.0931829 135.5787985 -15.7114060
 135.3110012 134.0614997  -3.0530012 134.9450012 133.2964997  -2.6100012
 136.2240012 134.0904997  -2.7660012 135.3842790 133.9607224  -2.9535930
 137.2840012 133.4124997  -1.5170012 138.1820012 133.1384997  -1.7020012
 136.8970012 132.6694997  -1.0530012 137.3546612 133.2745914  -1.4796357
  12.4390012  10.7114997   6.2439988  12.5280012  11.6554997   6.1119988
  11.8010012  10.4364997   5.5859988  12.3649081  10.8034830   6.1369614
  11.3720012   9.9664997   9.6629988  11.3340012   9.3204997  10.3679988
  11.0500012   9.5004997   8.8919988  11.3232333   9.8149408   9.6552978
   3.7410012   9.5814997  11.2559988   3.7820012   8.9554997  11.9789988
   4.4440012  10.2054997  11.4379988   3.8416363   9.5801196  11.3796044
  15.0780012  12.9054997   7.9639988  14.6380012  12.1854997   8.4149988
  15.0650012  13.6264997   8.5939988  15.0160226  12.9043731   8.1108494
   4.6640012  14.0314997   9.7909988   4.2950012  13.2294997   9.4209988
   5.6050012  13.8624997   9.8369988   4.7407289  13.8990153   9.7466316
   1.2740012   7.6914997   5.1839988   0.8270012   8.5374997   5.1649988
   0.7130012   7.1114997   4.6679988   1.1369900   7.7289916   5.1116801
   1.9850012   9.8534997   7.3099988   2.1980012   9.0834997   7.8369988
   2.7230012   9.9424997   6.7059988   2.1138496   9.7601394   7.3005300
  12.1900012  18.0104997   8.1769988  12.8100012  17.3334997   7.9029988
  11.9820012  17.7924997   9.0849988  12.2466904  17.8883870   8.2623365
   9.7620012  12.3994997  10.0689988  10.0660012  11.7134997   9.4739988
  10.4830012  12.5174997  10.6869988   9.9010671  12.3216305  10.0711816
  18.4250012   4.0004997  10.9299988  18.4740012   4.6104997  11.6659988
  18.8500012   4.4614997  10.2069988  18.4891824   4.1463741  10.9330205
  12.9030012   6.7934997  10.3969988  13.0450012   5.8474997  10.4169988
  12.7960012   7.0004997   9.4679988  12.9079864   6.6919534  10.2742339
   6.0570012   4.8944997   7.6689988   6.1010012   5.7544997   7.2509988
   5.6000012   4.3424997   7.0349988   6.0012185   4.9375799   7.5260299
  13.7800012   5.0254997   6.0699988  14.4260012   4.6964997   6.6949988
  14.2900012   5.5434997   5.4469988  13.9374264   5.0504611   6.0713862
   2.6780012   7.2914997   8.4309988   3.3310012   6.7414997   8.8629988
   2.7020012   7.0174997   7.5139988   2.7706683   7.1791466   8.3662123
   7.8340012   8.8414997   7.6459988   8.4500012   8.3154997   8.1559988
   7.2480012   8.2014997   7.2429988   7.8390810   8.6829208   7.6613173
  18.8160012   5.4784997  13.1659988  18.1280012   6.1364997  13.0699988
  18.8320012   5.2814997  14.1019988  18.7238525   5.5420462  13.2794808
   4.8680012   3.8124997  11.7429988   4.6490012   4.3424997  10.9769988
   4.2000012   4.0394997  12.3899988   4.7477600   3.9156906  11.7256379
  12.2370012  13.3124997   5.2869988  11.9410012  12.9904997   4.4359988
  11.9120012  14.2124997   5.3279988  12.1526371  13.3900215   5.1761801
   7.4370012  11.4884997  12.0299988   6.6970012  12.0864997  12.1339988
   8.1510012  12.0424997  11.7149988   7.4322237  11.6452831  12.0016465
  15.5440012   4.3164997   8.0499988  15.3280012   3.5504997   8.5829988
  16.1990012   4.7884997   8.5629988  15.6030632   4.2755889   8.1922861
   4.4610012   5.7044997   9.6949988   5.0750012   6.3374997  10.0689988
   4.9730012   5.2324997   9.0389988   4.6142296   5.7272370   9.6574252
   5.8440012  13.4524997  12.8179988   5.8390012  14.3324997  12.4399988
   4.9910012  13.3694997  13.2429988   5.7279464  13.5616117  12.8237907
   1.9650012  13.1234997   3.5999988   1.6930012  13.3524997   2.7109988
   2.0110012  13.9614997   4.0599988   1.9340094  13.2681213   3.5405697
  15.5900012  14.7454997  10.3119988  14.6490012  14.8034997  10.4739988
  15.8670012  15.6514997  10.1749988  15.4984679  14.8759443  10.3156815
  15.8910012   3.0314997  11.7299988  15.1550012   3.6424997  11.6919988
  16.5740012   3.4464997  11.2029988  15.8826541   3.1711374  11.6535832
   8.8940012   1.1184997   9.1959988   8.7770012   0.1694997   9.1409988
   8.0390012   1.4504997   9.4689988   8.7623733   1.0335409   9.2253897
  13.8420012  16.5264997   6.9379988  14.2680012  15.8194997   6.4529988
  14.1590012  17.3274997   6.5209988  13.9431019  16.5380994   6.8153130
  15.0020012  14.4274997   5.4459988  14.7440012  13.7374997   4.8349988
  15.0730012  13.9844997   6.2919988  14.9762856  14.2732124   5.4766885
  16.6880012  12.9934997  13.9239988  16.8280012  12.4024997  13.1839988
  16.8550012  13.8664997  13.5669988  16.7296778  13.0306426  13.7746965
  11.1610012   9.9554997   3.6959988  10.4490012  10.4904997   3.3439988
  11.8520012  10.0114997   3.0359988  11.1570132  10.0362543   3.5586289
  11.2140012   8.4134997   0.7349988  11.9150012   8.4354997   1.3859988
  11.5170012   7.7854997   0.0789988  11.3507830   8.3316566   0.7353711
  18.5300012   9.3334997  11.9899988  17.8770012  10.0284997  12.0789988
  18.9950012   9.5434997  11.1799988  18.5035390   9.4569425  11.8926883
  14.5660012  10.1654997   4.6479988  13.8340012  10.3934997   5.2209988
  15.0140012   9.4514997   5.1029988  14.5263095  10.1002571   4.7879119
  14.4640012   8.3394997  13.7149988  14.5440012   9.1024997  14.2869988
  13.8620012   8.6184997  13.0249988  14.3935756   8.4817134  13.7000589
   6.2120012  10.7954997   6.5299988   5.8810012  10.4254997   5.7119988
   6.8000012  10.1254997   6.8769988   6.2461873  10.6541156   6.4648102
   7.5780012  14.2234997   9.2119988   7.4840012  13.6454997   8.4549988
   8.3080012  13.8524997   9.7079988   7.6637981  14.0942390   9.1754165
   6.5780012   9.5644997  10.1639988   7.1440012   9.6854997   9.4009988
   6.8970012  10.2014997  10.8029988   6.6985786   9.6671884  10.1460040
  12.8870012  15.0674997  10.8979988  12.6470012  15.7294997  11.5459988
  12.6890012  14.2334997  11.3229988  12.8273808  15.0453134  11.0441524
   7.4580012  13.9634997  14.8809988   7.1470012  14.7454997  15.3359988
   6.8080012  13.8104997  14.1949988   7.3275558  14.0499105  14.8505871
  13.4370012   9.3274997   2.3329988  14.0170012   9.4774997   3.0799988
  13.8510012   9.7984997   1.6099988  13.5722830   9.4116841   2.3374134
   4.3780012  10.1614997  14.1099988   4.4490012  10.8124997  14.8079988
   3.4880012  10.2644997  13.7749988   4.2673117  10.2645936  14.1602700
  11.1640012  16.0644997   5.7679988  11.6380012  16.3594997   6.5459988
  10.6010012  16.8024997   5.5349988  11.1527653  16.2046932   5.8430136
   5.6980012  16.0354997  15.6439988   5.7050012  15.8994997  14.6969988
   4.7820012  15.9174997  15.8959988   5.5751714  16.0009430  15.5484666
  17.1360012   1.0774997   2.1459988  16.2360012   1.2164997   2.4409988
  17.3880012   1.9084997   1.7439988  17.0468702   1.2089074   2.1320205
   5.2020012   9.8654997   4.1199988   4.9100012  10.6334997   3.6289988
   4.5280012   9.2054997   3.9569988   5.0709081   9.8814406   4.0307340
  18.3250012  15.4434997   0.5219988  18.3990012  16.3824997   0.6929988
  19.2310012  15.1384997   0.4659988  18.4575100  15.5306722   0.5378119
   1.2950012  12.2284997  12.9349988   0.7940012  12.2004997  12.1199988
   1.3000012  11.3224997  13.2439988   1.2271526  12.1022278  12.8652872
   1.0450012  15.0084997   9.8189988   1.9910012  14.8644997   9.7999988
   0.9330012  15.7924997  10.3559988   1.1592727  15.0948046   9.8890072
  19.2430012  15.6744997  15.5009988  19.1940012  14.7194997  15.4639988
  18.4160012  15.9424997  15.9019988  19.1244940  15.5798998  15.5501375
  10.2220012  15.2484997  14.3769988  10.3090012  16.0744997  14.8519988
   9.3580012  14.9184997  14.6259988  10.1171964  15.3169878  14.4756549
  10.6360012  19.0204997   4.1829988  10.5610012  18.8994997   3.2369988
  10.6690012  19.9704997   4.3019988  10.6301848  19.1322500   4.0694834
   4.2890012  17.8094997   5.9639988   4.4420012  17.4614997   6.8429988
   3.4390012  17.4534997   5.7089988   4.1948962  17.7136650   6.0498340
  13.7380012  18.1744997   1.1849988  14.1130012  17.4304997   0.7149988
  13.7420012  17.9044997   2.1039988  13.7898915  18.0361486   1.2447824
  13.4070012  18.1004997   3.9349988  12.4710012  18.2004997   4.1129988
  13.6870012  17.3914997   4.5129988  13.3168255  18.0182711   4.0375391
  16.3950012   7.1674997  15.9809988  15.9880012   7.6484997  15.2599988
  16.4360012   6.2624997  15.6729988  16.3448437   7.1109374  15.8406683
   3.5440012  13.5514997  13.9779988   3.7600012  13.1904997  14.8369988
   2.6890012  13.1774997  13.7679988   3.4579292  13.4514111  14.0673386
   6.1630012   2.0214997   9.9729988   5.3010012   1.9344997   9.5659988
   6.1400012   2.8774997  10.4009988   6.0420330   2.1252765   9.9751863
  10.8260012   1.7434997  13.3479988  11.2460012   1.3284997  14.1009988
   9.8930012   1.5654997  13.4649988  10.7573644   1.6625900  13.4669539
  14.1520012   5.4994997  14.2009988  13.6380012   5.3734997  14.9989988
  13.9970012   6.4114997  13.9569988  14.0606852   5.6056132  14.2772158
  14.9150012  10.3604997  -0.0370012  14.9570012  10.1374997  -0.9670012
  15.7640012  10.7594997   0.1529988  15.0355396  10.3839155  -0.1386373
  10.4870012   4.2364997   0.6329988  10.2340012   4.2554997   1.5559988
  10.2310012   3.3644997   0.3319988  10.4177790   4.1212437   0.7186263
   6.2540012   6.9874997  11.0679988   5.6120012   6.9464997  11.7769988
   6.2910012   7.9134997  10.8309988   6.1711324   7.1071559  11.1329824
   6.2510012   7.2084997   5.9799988   5.3580012   6.8674997   5.9219988
   6.7010012   6.8314997   5.2249988   6.1897305   7.1108484   5.8699177
  11.7860012   7.6244997   4.7969988  11.3770012   8.4394997   4.5059988
  12.5070012   7.4844997   4.1829988  11.8274537   7.7172018   4.6741342
  10.8880012   7.7994997  16.2849988  10.3260012   7.0954997  16.6059988
  11.7150012   7.6794997  16.7529988  10.9227095   7.6867883  16.3922330
  12.7910012   7.0704997   7.6109988  12.5960012   7.6754997   6.8959988
  12.9720012   6.2364997   7.1769988  12.7887614   7.0406300   7.4544405
   4.0040012   7.3074997  12.9349988   3.9660012   7.7074997  13.8039988
   3.5130012   6.4904997  13.0259988   3.9324684   7.2518069  13.0661059
   7.3700012   4.6814997  -0.2660012   6.9390012   4.2364997   0.4639988
   6.6520012   5.0534997  -0.7780012   7.2139438   4.6708940  -0.2353201
   0.6120012   4.4234997   6.7859988   1.2430012   4.3944997   7.5049988
   1.0610012   3.9984997   6.0559988   0.7590774   4.3620492   6.7856553
   1.8860012   5.1694997   2.2099988   2.3600012   5.7604997   1.6249988
   1.1690012   5.7004997   2.5569988   1.8539341   5.3220867   2.1768836
  12.0550012   8.7084997  12.2829988  12.3780012   8.0774997  11.6399988
  11.6150012   8.1734997  12.9429988  12.0396895   8.5498441  12.2842850
   8.8320012   4.6354997   7.0669988   7.9210012   4.6924997   7.3549988
   9.3380012   4.5754997   7.8769988   8.7755413   4.6351985   7.2160622
   3.6610012   6.2644997   5.8929988   2.7710012   6.3644997   5.5529988
   3.9570012   5.4224997   5.5469988   3.5792823   6.1643545   5.7997213
   7.3140012   6.2644997   3.5499988   8.2450012   6.3934997   3.7279988
   7.0990012   6.9344997   2.8999988   7.4124247   6.3726565   3.4865747
  13.2370012   3.8704997  10.3309988  12.5610012   4.0014997  10.9949988
  12.7520012   3.7154997   9.5209988  13.0787145   3.8674905  10.3124517
   5.9880012   7.4594997   1.1169988   5.4450012   7.0794997   0.4249988
   6.8210012   7.6534997   0.6879988   6.0264399   7.4338124   0.9644526
  16.5250012  19.5424997  16.6079988  16.7250012  19.9664997  15.7729988
  17.1800012  19.8854997  17.2149988  16.6410051  19.6469648  16.5757836
   4.1230012  12.0164997  16.2159988   4.8550012  12.2704997  16.7769988
   3.3430012  12.2204997  16.7309988   4.1178232  12.0789177  16.3625760
  10.1520012   7.4234997   8.9539988  10.7170012   6.8764997   8.4069988
  10.0050012   6.9014997   9.7419988  10.2092918   7.2782024   8.9858454
   5.1540012   3.5594997   5.3719988   4.8370012   2.6574997   5.3369988
   5.9360012   3.5614997   4.8189988   5.2162284   3.4361628   5.2924783
   8.7790012   5.8114997  11.3679988   7.9430012   6.2654997  11.4779988
   9.3030012   6.0874997  12.1199988   8.7354414   5.9109376  11.4847136
   9.3230012  12.0244997   3.0519988   8.5780012  11.5174997   2.7299988
   9.1890012  12.0734997   3.9989988   9.2028776  11.9616940   3.1358647
  16.4730012  11.1574997  11.8389988  17.1150012  11.6144997  11.2949988
  15.6430012  11.2704997  11.3759988  16.4485963  11.2352704  11.7020177
  13.2210012   4.8384997   1.2519988  12.2820012   4.9504997   1.0999988
  13.5180012   5.6954997   1.5579988  13.1327666   4.9696443   1.2725768
  10.8420012  12.2084997  14.2889988  10.4970012  11.8274997  15.0959988
  10.6420012  13.1424997  14.3609988  10.7678061  12.2825228  14.4090961
  13.9390012   6.7054997   2.9119988  14.8310012   6.5684997   3.2309988
  13.9960012   7.4964997   2.3759988  14.0686285   6.7936660   2.8831691
   4.4480012  11.3194997   8.8219988   5.1930012  11.3174997   8.2209988
   4.5260012  10.4964997   9.3039988   4.5605518  11.2079315   8.8048929
  11.4490012  13.4834997   2.0779988  11.1530012  14.3094997   2.4589988
  10.7460012  12.8634997   2.2739988  11.3134914  13.5128199   2.1566443
   1.4560012   9.7804997  14.1369988   1.6790012   9.3624997  14.9689988
   0.8540012   9.1674997  13.7139988   1.4051759   9.6404668  14.1937022
   8.4720012   9.2974997  16.3499988   8.1760012   9.1314997  15.4549988
   9.4040012   9.0774997  16.3389988   8.5574166   9.2450640  16.2260536
  13.0930012  14.6704997  14.2399988  12.1920012  14.8534997  13.9719988
  13.1270012  14.9294997  15.1609988  12.9743041  14.7305512  14.3278197
  18.8240012   6.9154997   2.6069988  18.2700012   6.5194997   1.9349988
  18.9240012   7.8254997   2.3289988  18.7617059   6.9843586   2.4774401
  18.7870012  12.7154997  15.4439988  17.9360012  12.9534997  15.0769988
  19.3780012  12.6984997  14.6909988  18.7502487  12.7458258  15.2918893
  17.1190012  15.7014997   3.0719988  16.7460012  14.8754997   3.3809988
  17.3970012  15.5184997   2.1749988  17.1055630  15.5637303   2.9929626
  14.2800012  10.5094997  10.0929988  13.3510012  10.2774997  10.0659988
  14.7310012   9.7324997   9.7629988  14.2139216  10.3727238  10.0446917
   6.8230012  14.8374997   6.2259988   7.3500012  15.6104997   6.0259988
   5.9430012  15.0624997   5.9249988   6.7761773  14.9738005   6.1579010
   2.5780012   9.6994997   0.8129988   3.1940012  10.3264997   1.1929988
   1.7160012  10.0154997   1.0849988   2.5457698   9.8279430   0.9017183
   8.2500012  12.5004997   5.8029988   8.0090012  13.4254997   5.8439988
   7.5090012  12.0414997   6.1989988   8.1168409  12.5651421   5.8621377
   8.7650012  16.6494997  12.1179988   9.1270012  17.5044997  11.8839988
   9.2960012  16.3574997  12.8579988   8.8864473  16.7271060  12.1860855
   6.9330012  17.5224997   5.3479988   5.9830012  17.6274997   5.3989988
   7.2850012  18.3424997   5.6929988   6.8504203  17.6478314   5.4016650
  12.3090012  12.7484997  11.8179988  11.8830012  12.5214997  12.6449988
  12.8890012  12.0104997  11.6359988  12.3291868  12.6175299  11.9065830
  14.5120012  13.6774997   0.8919988  14.8650012  13.2974997   1.6969988
  13.5630012  13.5844997   0.9789988  14.4320441  13.6129596   1.0138559
  14.9670012  17.3004997  14.2879988  14.3660012  16.7454997  13.7919988
  15.2490012  17.9674997  13.6619988  14.9228519  17.3146841  14.1354952
  19.0150012  18.1574997   1.0929988  19.7590012  18.7434997   0.9529988
  18.3210012  18.7254997   1.4269988  19.0230292  18.3145582   1.1189961
   3.0900012   4.5334997  13.6949988   2.1970012   4.8724997  13.6269988
   2.9910012   3.6784997  14.1129988   2.9544164   4.4642588  13.7422235
  15.3780012  12.3504997   3.1189988  15.1000012  11.6224997   3.6749988
  16.3050012  12.4694997   3.3239988  15.4653124  12.2668802   3.2228845
   2.7410012  16.3384997  12.1299988   2.9580012  15.4064997  12.0989988
   2.9870012  16.6124997  13.0129988   2.8039549  16.2480636  12.2451763
   8.6030012  14.7894997  -0.6610012   8.8420012  14.0414997  -1.2080012
   8.3340012  14.4014997   0.1719988   8.5993675  14.6346638  -0.6233135
   7.5400012  14.3594997   1.7959988   7.6860012  13.8394997   2.5859988
   7.5370012  15.2664997   2.1019988   7.5595989  14.4108853   1.9456088
   3.9930012  11.6124997   2.3059988   3.3070012  11.9644997   2.8729988
   4.5150012  12.3754997   2.0589988   3.9696852  11.7638578   2.3502118
  11.8240012   4.2744997  12.5849988  12.5230012   4.3484997  13.2349988
  11.4430012   3.4104997  12.7389988  11.8681767   4.1677624  12.6948322
  12.6090012   3.9264997   3.6819988  12.8290012   4.3984997   2.8789988
  13.1670012   4.3214997   4.3519988  12.7144968   4.0444285   3.6627331
  10.2770012  16.0574997   2.5449988   9.4610012  16.5544997   2.5969988
  10.8070012  16.5324997   1.9049988  10.2369161  16.1897722   2.4655956
   9.8090012   5.6544997   4.5169988  10.6210012   6.1594997   4.5629988
   9.5640012   5.5094997   5.4309988   9.8870520   5.7040375   4.6468517
  10.3440012   6.6404997  13.7019988  10.4630012   7.2144997  14.4589988
  11.0000012   5.9524997  13.8159988  10.4489757   6.6261079  13.8210825
  10.6920012   2.7354997   5.4549988  10.3460012   3.3534997   6.0999988
  11.3510012   3.2364997   4.9739988  10.7337826   2.8875802   5.4780971
   7.6160012  17.1014997   2.5269988   7.7760012  17.9004997   2.0259988
   7.4180012  17.4074997   3.4119988   7.6111649  17.2524469   2.5779815
   6.3500012   3.7984997   2.1419988   6.2670012   4.6874997   2.4889988
   7.2400012   3.5334997   2.3739988   6.4589469   3.8841430   2.2207626
  16.5490012   4.5474997  14.5369988  15.6320012   4.8104997  14.4489988
  16.8840012   4.5444997  13.6399988  16.4689900   4.5830224  14.4037919
  15.1510012   8.2984997   8.6319988  14.3530012   7.8834997   8.3039988
  15.5960012   7.6074997   9.1229988  15.1019885   8.1483543   8.6534889
   4.6090012  14.2264997   1.2029988   5.2010012  14.9254997   1.4789988
   5.0680012  13.7934997   0.4829988   4.7521142  14.2637049   1.1434830
   2.9250012   6.8904997   0.3189988   2.8800012   7.8294997   0.4969988
   2.0370012   6.6544997   0.0489988   2.7988574   6.9871892   0.3068912
  16.2370012  17.5544997  10.2549988  16.0820012  18.2324997   9.5979988
  17.1700012  17.6264997  10.4579988  16.3418500  17.6570170  10.1925119
   3.7330012   1.6724997   8.9919988   3.5040012   1.7314997   8.0639988
   3.2900012   0.8804997   9.2979988   3.6418530   1.5735753   8.9064786
   2.6630012  15.6124997   5.1519988   1.8310012  16.0854997   5.1799988
   3.2090012  16.1224997   4.5539988   2.6229739  15.7461871   5.0749716
   1.9510012  18.2254997  16.4819988   2.4920012  18.0084997  17.2419988
   1.4700012  17.4194997  16.2929988   1.9599345  18.0869514  16.5603076
   6.5490012  17.1444997  18.1029988   7.3160012  16.6854997  18.4439988
   6.5270012  16.9184997  17.1729988   6.6511434  17.0510409  18.0240043
  10.6410012  16.6524997  -0.5220012   9.9970012  16.0214997  -0.2010012
  11.4030012  16.1214997  -0.7540012  10.6558077  16.4942920  -0.5093989
  13.1260012  15.5244997  16.8319988  12.7750012  14.6684997  17.0749988
  13.8520012  15.6674997  17.4389988  13.1760769  15.4265636  16.9473619
  15.2450012  16.4694997  -0.2880012  15.5280012  15.6754997   0.1639988
  15.9850012  16.7024997  -0.8490012  15.3837486  16.3922803  -0.3019302
   1.8580012  12.0354997  17.4369988   2.0020012  11.1334997  17.1499988
   1.0860012  12.3214997  16.9489988   1.7733323  11.9508261  17.3317881
   6.2000012  12.3794997  -0.4310012   6.2640012  11.5854997   0.0999988
   6.8530012  12.2604997  -1.1210012   6.2970241  12.2547148  -0.4515683
   8.5140012  12.0054997  16.8689988   8.1850012  12.2764997  16.0119988
   8.6660012  11.0644997  16.7819988   8.4894809  11.9153862  16.7398244
  11.5520012  13.4264997  -0.6950012  11.2830012  13.6064997   0.2059988
  11.3460012  12.5004997  -0.8260012  11.4873825  13.3260152  -0.5894786
  14.2480012  11.9214997  14.2529988  14.9940012  12.5094997  14.1329988
  13.4910012  12.5034997  14.3159988  14.2477554  12.0807011  14.2450907
   2.6910012   9.2354997  16.8569988   3.0990012   8.3784997  16.7359988
   2.4310012   9.2504997  17.7779988   2.7117568   9.1200807  16.9649588
   7.3490012  10.3514997   1.8749988   6.8890012   9.8674997   2.5609988
   7.6040012   9.6834997   1.2389988   7.3204902  10.1948731   1.8829334
   6.6380012   8.2444997  14.2309988   6.0200012   8.9194997  14.5109988
   6.9820012   8.5654997  13.3979988   6.5999615   8.3802721  14.1566581
   8.4200012   8.5944997   0.1369988   8.2400012   8.4404997  -0.7900012
   9.3700012   8.7024997   0.1819988   8.5237776   8.5880175   0.0161843
  11.6580012  10.7164997  17.5079988  12.6110012  10.7994997  17.4809988
  11.4970012  10.0044997  18.1279988  11.7666426  10.6316746  17.5880579
  17.8100012  10.9494997  -0.4170012  17.5360012  10.5244997  -1.2300012
  17.8490012  11.8804997  -0.6340012  17.7777699  11.0172484  -0.5576390
   6.9770012   5.5994997  15.3129988   7.1270012   4.8704997  14.7109988
   6.9800012   6.3764997  14.7539988   6.9979302   5.6047851  15.1550692
   7.3900012   3.9694997  12.8059988   7.9260012   4.4204997  12.1539988
   6.5380012   3.8614997  12.3829988   7.3482178   4.0166390  12.6595756
   8.9720012   9.4084997  13.0449988   9.7220012   9.2524997  12.4719988
   8.6330012  10.2604997  12.7699988   9.0288921   9.5022968  12.9293561
  13.3870012   7.2234997  18.0739988  13.5800012   6.2924997  17.9619988
  14.2450012   7.6484997  18.0639988  13.5293020   7.1536389  18.0573361
  14.7040012  10.0124997  16.1509988  14.4230012  10.7214997  15.5739988
  15.6470012   9.9394997  15.9999988  14.7929027  10.0997646  16.0515551
   5.4560012   6.7974997  17.2249988   4.6890012   6.2654997  17.0149988
   6.1350012   6.4874997  16.6249988   5.4427022   6.6827506  17.1151648
   8.1960012   1.4254997  13.2369988   8.0970012   2.3724997  13.1319988
   7.4530012   1.0534997  12.7619988   8.0820564   1.5045902  13.1584560
   9.4600012   5.7474997  16.8009988   9.2240012   5.5274997  17.7029988
   8.6760012   5.5404997  16.2909988   9.3218628   5.6894760  16.8553932
  12.1750012   4.8744997  15.8769988  11.2280012   4.9064997  16.0089988
  12.4880012   4.2494997  16.5299988  12.0875475   4.7943207  15.9834455
  13.8090012   3.5084997  17.8819988  13.7130012   2.5564997  17.8759988
  13.4880012   3.7774997  18.7419988  13.7524070   3.4144035  17.9975441
   3.6360012   4.7184997  16.9289988   3.8480012   4.0114997  16.3189988
   3.5250012   4.2804997  17.7729988   3.6499721   4.5627084  16.9596843
   8.4170012   0.7194997  15.9089988   9.1290012   0.0794997  15.8949988
   8.3160012   0.9864997  14.9949988   8.5007939   0.6679938  15.7835650
   8.7710012   2.4024997  17.9619988   8.6390012   1.9264997  17.1419988
   8.1720012   3.1464997  17.9069988   8.6719071   2.4379618  17.8422886
   8.3170012  19.2854997   1.1389988   9.2500012  19.4434997   1.2819988
   8.0530012  19.9604997   0.5139988   8.4089510  19.3983611   1.0740741
   1.8860012  13.9214997   0.6209988   2.8000012  14.0004997   0.8949988
   1.8930012  13.2344997  -0.0450012   2.0121131  13.8393961   0.5684393
   0.5350012  19.3144997   5.6989988  -0.1119988  18.8524997   5.1659988
   0.8890012  18.6424997   6.2809988   0.4943849  19.1604723   5.7047959
   1.4050012  17.3954997   7.5029988   1.0700012  16.5154997   7.6749988
   1.6270012  17.7404997   8.3679988   1.3891783  17.3217501   7.6434208
  18.9530012  18.2044997  10.4839988  18.9320012  18.3894997  11.4229988
  19.6440012  18.7734997  10.1429988  19.0434618  18.3066606  10.5663864
  18.5170012  17.7724997  13.4059988  18.0290012  17.0364997  13.0349988
  19.0660012  17.3784997  14.0839988  18.5244872  17.6186249  13.4469160
  16.9670012  13.5614997  18.0439988  16.1010012  13.4564997  18.4379988
  17.3440012  14.3204997  18.4899988  16.8993308  13.6496900  18.1582393
  18.2680012  11.8184997   3.5579988  19.1180012  12.2394997   3.6849988
  18.2740012  11.0784997   4.1649988  18.3851372  11.7760803   3.6574344
  18.6630012   9.8714997   5.3819988  17.9360012   9.3924997   5.7789988
  19.2440012  10.0774997   6.1139988  18.6419375   9.8337090   5.5354129
  18.4220012  12.6564997  10.3289988  19.2550012  12.2784997  10.0489988
  18.5340012  13.5994997  10.2099988  18.5512647  12.7322218  10.2745487
  16.9080012  15.5344997  12.6359988  16.2610012  15.8594997  13.2619988
  16.3910012  15.0944997  11.9619988  16.7494029  15.5195004  12.6305827
  18.9310012   9.7724997   1.7729988  18.4090012  10.1294997   1.0539988
  18.8980012  10.4474997   2.4509988  18.8551634   9.9125413   1.7663145
  17.2800012   7.0124997   0.3239988  17.3760012   7.6794997  -0.3570012
  17.1400012   6.1964997  -0.1580012  17.2742135   6.9934500   0.1658491
  16.4490012   8.3924997   5.9449988  16.2990012   7.4474997   5.9239988
  16.0960012   8.6734997   6.7879988  16.3806625   8.3010441   6.0562346
   1.4850012  10.4704997   9.9549988   1.6690012  10.3884997   9.0189988
   2.3340012  10.3464997  10.3789988   1.6250139  10.4425003   9.8841455
  17.3060012  10.3624997  15.5829988  17.8890012   9.6284997  15.7749988
  17.8700012  11.1344997  15.6299988  17.4619769  10.3664227  15.6156159
  18.8020012   8.2654997  16.2679988  17.9390012   7.8864997  16.1019988
  19.4070012   7.5264997  16.1939988  18.7655979   8.1138023  16.2352817
  16.5270012   4.4204997  -0.5590012  17.1380012   4.0494997   0.0779988
  15.6910012   3.9994997  -0.3630012  16.4975032   4.3127554  -0.4452965
  16.1600012   5.9754997   4.4069988  16.4400012   5.0684997   4.5309988
  16.9190012   6.4094997   4.0179988  16.3009277   5.9100942   4.3713682
  16.7720012   6.5564997   9.8429988  17.7050012   6.7684997   9.8089988
  16.5370012   6.6584997  10.7649988  16.8678036   6.5992769   9.9629976
  16.8010012   7.2934997  12.6189988  15.9580012   7.5614997  12.9849988
  17.2430012   8.1154997  12.4079988  16.7454158   7.4413291  12.6405491
   1.0820012   5.7414997  16.0959988   2.0020012   5.6194997  16.3319988
   0.6330012   4.9914997  16.4849988   1.1471580   5.6233727  16.1809006
  19.0840012   1.2734997  17.9719988  19.4340012   0.6194997  17.3669988
  19.2310012   2.1104997  17.5329988  19.1518419   1.2971591  17.8297118
  16.7730012   3.2384997   4.4549988  16.9560012   2.7894997   5.2809988
  16.1740012   2.6534997   3.9919988  16.7170202   3.0979975   4.5053275
   2.3030012   4.0534997   8.9869988   2.7490012   3.2614997   9.2889988
   2.7700012   4.7694997   9.4179988   2.4270172   4.0420624   9.0864820
   0.6070012   7.0524997  10.0559988   1.0990012   6.8314997   9.2649988
   0.9700012   7.8934997  10.3369988   0.7233126   7.1358357   9.9857531
  18.6040012   3.3824997  16.3219988  17.6860012   3.6534997  16.2859988
  18.7270012   2.8474997  15.5369988  18.4951066   3.3472892  16.2110487
  18.6400012   3.3054997   0.9829988  19.0520012   2.5844997   0.5079988
  19.3220012   3.9754997   1.0419988  18.7885885   3.2972368   0.9258915
   0.9210012   3.3104997   4.1099988  -0.0039988   3.5194997   3.9809988
   1.3750012   3.7944997   3.4209988   0.8557368   3.4045994   3.9991226
  15.6920012  18.2944997   6.0559988  16.3440012  17.9474997   5.4479988
  16.2020012  18.7834997   6.7019988  15.8502637  18.3130597   6.0600236
   0.8850012   2.0484997  12.4549988   0.2200012   1.8024997  13.0979988
   0.4420012   2.6704997  11.8769988   0.7340956   2.0988632  12.4649352
   3.0770012  15.2234997  16.5989988   2.2560012  15.3984997  16.1389988
   2.8240012  15.1504997  17.5199988   2.9306164  15.2375622  16.6604923
   6.0310012  16.1984997  12.8579988   5.6060012  17.0074997  12.5749988
   6.9350012  16.2834997  12.5559988   6.0950271  16.3208469  12.7783776
  10.3420012  17.5974997  15.8169988  10.5270012  17.2634997  16.6949988
  11.1880012  17.9064997  15.4949988  10.4817539  17.5936047  15.8935605
  12.6870012  18.8834997  15.0609988  13.3640012  18.2504997  14.8209988
  13.0090012  19.2844997  15.8679988  12.8231637  18.8511154  15.1372793
  17.6040012   1.4724997  14.1409988  16.7920012   1.7974997  13.7529988
  17.8370012   0.7124997  13.6079988  17.5243423   1.4142436  14.0158253
   3.4330012  19.4544997  12.9049988   2.7120012  19.8944997  12.4539988
   3.0670012  19.2034997  13.7539988   3.2849804  19.4807698  12.9579840
   5.9000012  19.0544997  11.9349988   5.0350012  19.1264997  12.3389988
   5.8450012  19.6014997  11.1509988   5.7742085  19.1382685  11.8843362
  10.6100012  18.9424997  11.1099988  10.1540012  19.4714997  10.4559988
  10.7730012  19.5454997  11.8359988  10.5695585  19.0964468  11.1185062
  12.9380012  17.8204997  12.0549988  12.0330012  17.9854997  11.7899988
  13.3670012  18.6734997  11.9899988  12.8720799  17.9584483  12.0099182
  15.5420012  19.3904997  12.3499988  15.3600012  20.3064997  12.1399988
  15.7190012  18.9804997  11.5039988  15.5410210  19.4604822  12.2067885
   2.8470012  18.0774997   9.8149988   2.8290012  17.6524997  10.6729988
   3.6520012  17.7594997   9.4069988   2.9533875  17.9763812   9.8771655
   4.9890012  16.7874997   8.4699988   4.7700012  15.8714997   8.6399988
   5.8130012  16.9274997   8.9359988   5.0704420  16.6810520   8.5562774
   7.5260012  17.2574997   9.3189988   7.7390012  16.3694997   9.0319988
   7.5900012  17.2234997  10.2729988   7.5638232  17.1313102   9.4087397
  11.0340012   2.9214997   8.4629988  10.3600012   2.2924997   8.7189988
  11.5980012   2.4374997   7.8599988  11.0179230   2.7698744   8.4165340
  16.1770012   1.0294997   8.5759988  16.7810012   1.5764997   8.0739988
  15.3070012   1.3484997   8.3359988  16.1421241   1.1475806   8.4747654
  17.9040012   2.1674997   6.9089988  18.5160012   1.6534997   6.3829988
  18.2860012   3.0454997   6.9329988  18.0394540   2.2157140   6.8401830
   3.3610012   1.5554997   6.2849988   2.5840012   1.3214997   5.7779988
   3.8910012   0.7584997   6.2939988   3.3262330   1.4156988   6.2167742
   2.1970012   1.3534997   2.0889988   2.6360012   1.9644997   1.4969988
   1.5640012   1.8914997   2.5629988   2.1714514   1.5099257   2.0720930
   7.9400012   1.4824997   6.0989988   8.8150012   1.8704997   6.0689988
   7.8040012   1.2674997   7.0209988   8.0413695   1.5065184   6.2196440
  13.4970012   1.5124997   7.7479988  13.5730012   1.6074997   6.7979988
  13.2220012   0.6044997   7.8769988  13.4702321   1.4027867   7.6355079
  14.8500012   1.5384997   3.4399988  14.1480012   2.1534997   3.2309988
  14.4060012   0.7004997   3.5709988  14.6936330   1.5095783   3.4290328
   2.0980012  17.3014997   2.9869988   1.4130012  17.2634997   2.3189988
   2.1020012  18.2144997   3.2749988   2.0048193  17.4197016   2.9345284
   4.0580012   3.2694997   0.5309988   4.5500012   2.6394997   0.0039988
   4.6820012   3.5654997   1.1949988   4.2095446   3.2233199   0.5485980
   9.0840012   3.5624997   2.9879988   9.2620012   2.9164997   3.6709988
   9.0310012   4.3964997   3.4559988   9.1011829   3.5867985   3.1445940
  10.9630012  18.5114997   1.3839988  11.8290012  18.8774997   1.2059988
  10.7160012  18.0714997   0.5699988  11.0482392  18.5021756   1.2496289
  17.6720012  18.0744997   4.0629988  17.4770012  17.3264997   3.4979988
  17.6330012  18.8324997   3.4799988  17.6400380  18.0746099   3.9068384
   3.3190012   2.0694997  15.8029988   2.9530012   1.3044997  16.2459988
   4.2320012   2.0984997  16.0899988   3.3922790   1.9687224  15.9024070
   5.2920012   1.4204997  17.3389988   6.1900012   1.1464997  17.1539988
   4.9050012   0.6774997  17.8029988   5.3626612   1.2825914  17.3763643
   3.9160012  18.2214997   0.0119988   3.6490012  18.5084997   0.8849988
   4.6880012  17.6754997   0.1639988   3.9837488  18.1870294   0.1521050
  13.7130012   0.7524997  17.5209988  13.7900012   0.3264997  18.3749988
  14.6070012   0.7664997  17.1779988  13.8443428   0.6960879  17.5915310
  16.8890012  16.8254997  16.2129988  16.1070012  16.6394997  15.6939988
  16.8170012  17.7544997  16.4309988  16.7721777  16.9256492  16.1714048
  31.2950012  10.7114997   6.2439988  31.3840012  11.6554997   6.1119988
  30.6570012  10.4364997   5.5859988  31.2209081  10.8034830   6.1369614
  30.2280012   9.9664997   9.6629988  30.1900012   9.3204997  10.3679988
  29.9060012   9.5004997   8.8919988  30.1792333   9.8149408   9.6552978
  22.5970012   9.5814997  11.2559988  22.6380012   8.9554997  11.9789988
  23.3000012  10.2054997  11.4379988  22.6976363   9.5801196  11.3796044
  33.9340012  12.9054997   7.9639988  33.4940012  12.1854997   8.4149988
  33.9210012  13.6264997   8.5939988  33.8720226  12.9043731   8.1108494
  23.5200012  14.0314997   9.7909988  23.1510012  13.2294997   9.4209988
  24.4610012  13.8624997   9.8369988  23.5967289  13.8990153   9.7466316
  20.1300012   7.6914997   5.1839988  19.6830012   8.5374997   5.1649988
  19.5690012   7.1114997   4.6679988  19.9929900   7.7289916   5.1116801
  20.8410012   9.8534997   7.3099988  21.0540012   9.0834997   7.8369988
  21.5790012   9.9424997   6.7059988  20.9698496   9.7601394   7.3005300
  31.0460012  18.0104997   8.1769988  31.6660012  17.3334997   7.9029988
  30.8380012  17.7924997   9.0849988  31.1026904  17.8883870   8.2623365
  28.6180012  12.3994997  10.0689988  28.9220012  11.7134997   9.4739988
  29.3390012  12.5174997  10.6869988  28.7570671  12.3216305  10.0711816
  37.2810012   4.0004997  10.9299988  37.3300012   4.6104997  11.6659988
  37.7060012   4.4614997  10.2069988  37.3451824   4.1463741  10.9330205
  31.7590012   6.7934997  10.3969988  31.9010012   5.8474997  10.4169988
  31.6520012   7.0004997   9.4679988  31.7639864   6.6919534  10.2742339
  24.9130012   4.8944997   7.6689988  24.9570012   5.7544997   7.2509988
  24.4560012   4.3424997   7.0349988  24.8572185   4.9375799   7.5260299
  32.6360012   5.0254997   6.0699988  33.2820012   4.6964997   6.6949988
  33.1460012   5.5434997   5.4469988  32.7934264   5.0504611   6.0713862
  21.5340012   7.2914997   8.4309988  22.1870012   6.7414997   8.8629988
  21.5580012   7.0174997   7.5139988  21.6266683   7.1791466   8.3662123
  26.6900012   8.8414997   7.6459988  27.3060012   8.3154997   8.1559988
  26.1040012   8.2014997   7.2429988  26.6950810   8.6829208   7.6613173
  37.6720012   5.4784997  13.1659988  36.9840012   6.1364997  13.0699988
  37.6880012   5.2814997  14.1019988  37.5798525   5.5420462  13.2794808
  23.7240012   3.8124997  11.7429988  23.5050012   4.3424997  10.9769988
  23.0560012   4.0394997  12.3899988  23.6037600   3.9156906  11.7256379
  31.0930012  13.3124997   5.2869988  30.7970012  12.9904997   4.4359988
  30.7680012  14.2124997   5.3279988  31.0086371  13.3900215   5.1761801
  26.2930012  11.4884997  12.0299988  25.5530012  12.0864997  12.1339988
  27.0070012  12.0424997  11.7149988  26.2882237  11.6452831  12.0016465
  34.4000012   4.3164997   8.0499988  34.1840012   3.5504997   8.5829988
  35.0550012   4.7884997   8.5629988  34.4590632   4.2755889   8.1922861
  23.3170012   5.7044997   9.6949988  23.9310012   6.3374997  10.0689988
  23.8290012   5.2324997   9.0389988  23.4702296   5.7272370   9.6574252
  24.7000012  13.4524997  12.8179988  24.6950012  14.3324997  12.4399988
  23.8470012  13.3694997  13.2429988  24.5839464  13.5616117  12.8237907
  20.8210012  13.1234997   3.5999988  20.5490012  13.3524997   2.7109988
  20.8670012  13.9614997   4.0599988  20.7900094  13.2681213   3.5405697
  34.4460012  14.7454997  10.3119988  33.5050012  14.8034997  10.4739988
  34.7230012  15.6514997  10.1749988  34.3544679  14.8759443  10.3156815
  34.7470012   3.0314997  11.7299988  34.0110012   3.6424997  11.6919988
  35.4300012   3.4464997  11.2029988  34.7386541   3.1711374  11.6535832
  27.7500012   1.1184997   9.1959988  27.6330012   0.1694997   9.1409988
  26.8950012   1.4504997   9.4689988  27.6183733   1.0335409   9.2253897
  32.6980012  16.5264997   6.9379988  33.1240012  15.8194997   6.4529988
  33.0150012  17.3274997   6.5209988  32.7991019  16.5380994   6.8153130
  33.8580012  14.4274997   5.4459988  33.6000012  13.7374997   4.8349988
  33.9290012  13.9844997   6.2919988  33.8322856  14.2732124   5.4766885
  35.5440012  12.9934997  13.9239988  35.6840012  12.4024997  13.1839988
  35.7110012  13.8664997  13.5669988  35.5856778  13.0306426  13.7746965
  30.0170012   9.9554997   3.6959988  29.3050012  10.4904997   3.3439988
  30.7080012  10.0114997   3.0359988  30.0130132  10.0362543   3.5586289
  30.0700012   8.4134997   0.7349988  30.7710012   8.4354997   1.3859988
  30.3730012   7.7854997   0.0789988  30.2067830   8.3316566   0.7353711
  37.3860012   9.3334997  11.9899988  36.7330012  10.0284997  12.0789988
  37.8510012   9.5434997  11.1799988  37.3595390   9.4569425  11.8926883
  33.4220012  10.1654997   4.6479988  32.6900012  10.3934997   5.2209988
  33.8700012   9.4514997   5.1029988  33.3823095  10.1002571   4.7879119
  33.3200012   8.3394997  13.7149988  33.4000012   9.1024997  14.2869988
  32.7180012   8.6184997  13.0249988  33.2495756   8.4817134  13.7000589
  25.0680012  10.7954997   6.5299988  24.7370012  10.4254997   5.7119988
  25.6560012  10.1254997   6.8769988  25.1021873  10.6541156   6.4648102
  26.4340012  14.2234997   9.2119988  26.3400012  13.6454997   8.4549988
  27.1640012  13.8524997   9.7079988  26.5197981  14.0942390   9.1754165
  25.4340012   9.5644997  10.1639988  26.0000012   9.6854997   9.4009988
  25.7530012  10.2014997  10.8029988  25.5545786   9.6671884  10.1460040
  31.7430012  15.0674997  10.8979988  31.5030012  15.7294997  11.5459988
  31.5450012  14.2334997  11.3229988  31.6833808  15.0453134  11.0441524
  26.3140012  13.9634997  14.8809988  26.0030012  14.7454997  15.3359988
  25.6640012  13.8104997  14.1949988  26.1835558  14.0499105  14.8505871
  32.2930012   9.3274997   2.3329988  32.8730012   9.4774997   3.0799988
  32.7070012   9.7984997   1.6099988  32.4282830   9.4116841   2.3374134
  23.2340012  10.1614997  14.1099988  23.3050012  10.8124997  14.8079988
  22.3440012  10.2644997  13.7749988  23.1233117  10.2645936  14.1602700
  30.0200012  16.0644997   5.7679988  30.4940012  16.3594997   6.5459988
  29.4570012  16.8024997   5.5349988  30.0087653  16.2046932   5.8430136
  24.5540012  16.0354997  15.6439988  24.5610012  15.8994997  14.6969988
  23.6380012  15.9174997  15.8959988  24.4311714  16.0009430  15.5484666
  35.9920012   1.0774997   2.1459988  35.0920012   1.2164997   2.4409988
  36.2440012   1.9084997   1.7439988  35.9028702   1.2089074   2.1320205
  24.0580012   9.8654997   4.1199988  23.7660012  10.6334997   3.6289988
  23.3840012   9.2054997   3.9569988  23.9269081   9.8814406   4.0307340
  37.1810012  15.4434997   0.5219988  37.2550012  16.3824997   0.6929988
  38.0870012  15.1384997   0.4659988  37.3135100  15.5306722   0.5378119
  20.1510012  12.2284997  12.9349988  19.6500012  12.2004997  12.1199988
  20.1560012  11.3224997  13.2439988  20.0831526  12.1022278  12.8652872
  19.9010012  15.0084997   9.8189988  20.8470012  14.8644997   9.7999988
  19.7890012  15.7924997  10.3559988  20.0152727  15.0948046   9.8890072
  38.0990012  15.6744997  15.5009988  38.0500012  14.7194997  15.4639988
  37.2720012  15.9424997  15.9019988  37.9804940  15.5798998  15.5501375
  29.0780012  15.2484997  14.3769988  29.1650012  16.0744997  14.8519988
  28.2140012  14.9184997  14.6259988  28.9731964  15.3169878  14.4756549
  29.4920012  19.0204997   4.1829988  29.4170012  18.8994997   3.2369988
  29.5250012  19.9704997   4.3019988  29.4861848  19.1322500   4.0694834
  23.1450012  17.8094997   5.9639988  23.2980012  17.4614997   6.8429988
  22.2950012  17.4534997   5.7089988  23.0508962  17.7136650   6.0498340
  32.5940012  18.1744997   1.1849988  32.9690012  17.4304997   0.7149988
  32.5980012  17.9044997   2.1039988  32.6458915  18.0361486   1.2447824
  32.2630012  18.1004997   3.9349988  31.3270012  18.2004997   4.1129988
  32.5430012  17.3914997   4.5129988  32.1728255  18.0182711   4.0375391
  35.2510012   7.1674997  15.9809988  34.8440012   7.6484997  15.2599988
  35.2920012   6.2624997  15.6729988  35.2008437   7.1109374  15.8406683
  22.4000012  13.5514997  13.9779988  22.6160012  13.1904997  14.8369988
  21.5450012  13.1774997  13.7679988  22.3139292  13.4514111  14.0673386
  25.0190012   2.0214997   9.9729988  24.1570012   1.9344997   9.5659988
  24.9960012   2.8774997  10.4009988  24.8980330   2.1252765   9.9751863
  29.6820012   1.7434997  13.3479988  30.1020012   1.3284997  14.1009988
  28.7490012   1.5654997  13.4649988  29.6133644   1.6625900  13.4669539
  33.0080012   5.4994997  14.2009988  32.4940012   5.3734997  14.9989988
  32.8530012   6.4114997  13.9569988  32.9166852   5.6056132  14.2772158
  33.7710012  10.3604997  -0.0370012  33.8130012  10.1374997  -0.9670012
  34.6200012  10.7594997   0.1529988  33.8915396  10.3839155  -0.1386373
  29.3430012   4.2364997   0.6329988  29.0900012   4.2554997   1.5559988
  29.0870012   3.3644997   0.3319988  29.2737790   4.1212437   0.7186263
  25.1100012   6.9874997  11.0679988  24.4680012   6.9464997  11.7769988
  25.1470012   7.9134997  10.8309988  25.0271324   7.1071559  11.1329824
  25.1070012   7.2084997   5.9799988  24.2140012   6.8674997   5.9219988
  25.5570012   6.8314997   5.2249988  25.0457305   7.1108484   5.8699177
  30.6420012   7.6244997   4.7969988  30.2330012   8.4394997   4.5059988
  31.3630012   7.4844997   4.1829988  30.6834537   7.7172018   4.6741342
  29.7440012   7.7994997  16.2849988  29.1820012   7.0954997  16.6059988
  30.5710012   7.6794997  16.7529988  29.7787095   7.6867883  16.3922330
  31.6470012   7.0704997   7.6109988  31.4520012   7.6754997   6.8959988
  31.8280012   6.2364997   7.1769988  31.6447614   7.0406300   7.4544405
  22.8600012   7.3074997  12.9349988  22.8220012   7.7074997  13.8039988
  22.3690012   6.4904997  13.0259988  22.7884684   7.2518069  13.0661059
  26.2260012   4.6814997  -0.2660012  25.7950012   4.2364997   0.4639988
  25.5080012   5.0534997  -0.7780012  26.0699438   4.6708940  -0.2353201
  19.4680012   4.4234997   6.7859988  20.0990012   4.3944997   7.5049988
  19.9170012   3.9984997   6.0559988  19.6150774   4.3620492   6.7856553
  20.7420012   5.1694997   2.2099988  21.2160012   5.7604997   1.6249988
  20.0250012   5.7004997   2.5569988  20.7099341   5.3220867   2.1768836
  30.9110012   8.7084997  12.2829988  31.2340012   8.0774997  11.6399988
  30.4710012   8.1734997  12.9429988  30.8956895   8.5498441  12.2842850
  27.6880012   4.6354997   7.0669988  26.7770012   4.6924997   7.3549988
  28.1940012   4.5754997   7.8769988  27.6315413   4.6351985   7.2160622
  22.5170012   6.2644997   5.8929988  21.6270012   6.3644997   5.5529988
  22.8130012   5.4224997   5.5469988  22.4352823   6.1643545   5.7997213
  26.1700012   6.2644997   3.5499988  27.1010012   6.3934997   3.7279988
  25.9550012   6.9344997   2.8999988  26.2684247   6.3726565   3.4865747
  32.0930012   3.8704997  10.3309988  31.4170012   4.0014997  10.9949988
  31.6080012   3.7154997   9.5209988  31.9347145   3.8674905  10.3124517
  24.8440012   7.4594997   1.1169988  24.3010012   7.0794997   0.4249988
  25.6770012   7.6534997   0.6879988  24.8824399   7.4338124   0.9644526
  35.3810012  19.5424997  16.6079988  35.5810012  19.9664997  15.7729988
  36.0360012  19.8854997  17.2149988  35.4970051  19.6469648  16.5757836
  22.9790012  12.0164997  16.2159988  23.7110012  12.2704997  16.7769988
  22.1990012  12.2204997  16.7309988  22.9738232  12.0789177  16.3625760
  29.0080012   7.4234997   8.9539988  29.5730012   6.8764997   8.4069988
  28.8610012   6.9014997   9.7419988  29.0652918   7.2782024   8.9858454
  24.0100012   3.5594997   5.3719988  23.6930012   2.6574997   5.3369988
  24.7920012   3.5614997   4.8189988  24.0722284   3.4361628   5.2924783
  27.6350012   5.8114997  11.3679988  26.7990012   6.2654997  11.4779988
  28.1590012   6.0874997  12.1199988  27.5914414   5.9109376  11.4847136
  28.1790012  12.0244997   3.0519988  27.4340012  11.5174997   2.7299988
  28.0450012  12.0734997   3.9989988  28.0588776  11.9616940   3.1358647
  35.3290012  11.1574997  11.8389988  35.9710012  11.6144997  11.2949988
  34.4990012  11.2704997  11.3759988  35.3045963  11.2352704  11.7020177
  32.0770012   4.8384997   1.2519988  31.1380012   4.9504997   1.0999988
  32.3740012   5.6954997   1.5579988  31.9887666   4.9696443   1.2725768
  29.6980012  12.2084997  14.2889988  29.3530012  11.8274997  15.0959988
  29.4980012  13.1424997  14.3609988  29.6238061  12.2825228  14.4090961
  32.7950012   6.7054997   2.9119988  33.6870012   6.5684997   3.2309988
  32.8520012   7.4964997   2.3759988  32.9246285   6.7936660   2.8831691
  23.3040012  11.3194997   8.8219988  24.0490012  11.3174997   8.2209988
  23.3820012  10.4964997   9.3039988  23.4165518  11.2079315   8.8048929
  30.3050012  13.4834997   2.0779988  30.0090012  14.3094997   2.4589988
  29.6020012  12.8634997   2.2739988  30.1694914  13.5128199   2.1566443
  20.3120012   9.7804997  14.1369988  20.5350012   9.3624997  14.9689988
  19.7100012   9.1674997  13.7139988  20.2611759   9.6404668  14.1937022
  27.3280012   9.2974997  16.3499988  27.0320012   9.1314997  15.4549988
  28.2600012   9.0774997  16.3389988  27.4134166   9.2450640  16.2260536
  31.9490012  14.6704997  14.2399988  31.0480012  14.8534997  13.9719988
  31.9830012  14.9294997  15.1609988  31.8303041  14.7305512  14.3278197
  37.6800012   6.9154997   2.6069988  37.1260012   6.5194997   1.9349988
  37.7800012   7.8254997   2.3289988  37.6177059   6.9843586   2.4774401
  37.6430012  12.7154997  15.4439988  36.7920012  12.9534997  15.0769988
  38.2340012  12.6984997  14.6909988  37.6062487  12.7458258  15.2918893
  35.9750012  15.7014997   3.0719988  35.6020012  14.8754997   3.3809988
  36.2530012  15.5184997   2.1749988  35.9615630  15.5637303   2.9929626
  33.1360012  10.5094997  10.0929988  32.2070012  10.2774997  10.0659988
  33.5870012   9.7324997   9.7629988  33.0699216  10.3727238  10.0446917
  25.6790012  14.8374997   6.2259988  26.2060012  15.6104997   6.0259988
  24.7990012  15.0624997   5.9249988  25.6321773  14.9738005   6.1579010
  21.4340012   9.6994997   0.8129988  22.0500012  10.3264997   1.1929988
  20.5720012  10.0154997   1.0849988  21.4017698   9.8279430   0.9017183
  27.1060012  12.5004997   5.8029988  26.8650012  13.4254997   5.8439988
  26.3650012  12.0414997   6.1989988  26.9728409  12.5651421   5.8621377
  27.6210012  16.6494997  12.1179988  27.9830012  17.5044997  11.8839988
  28.1520012  16.3574997  12.8579988  27.7424473  16.7271060  12.1860855
  25.7890012  17.5224997   5.3479988  24.8390012  17.6274997   5.3989988
  26.1410012  18.3424997   5.6929988  25.7064203  17.6478314   5.4016650
  31.1650012  12.7484997  11.8179988  30.7390012  12.5214997  12.6449988
  31.7450012  12.0104997  11.6359988  31.1851868  12.6175299  11.9065830
  33.3680012  13.6774997   0.8919988  33.7210012  13.2974997   1.6969988
  32.4190012  13.5844997   0.9789988  33.2880441  13.6129596   1.0138559
  33.8230012  17.3004997  14.2879988  33.2220012  16.7454997  13.7919988
  34.1050012  17.9674997  13.6619988  33.7788519  17.3146841  14.1354952
  37.8710012  18.1574997   1.0929988  38.6150012  18.7434997   0.9529988
  37.1770012  18.7254997   1.4269988  37.8790292  18.3145582   1.1189961
  21.9460012   4.5334997  13.6949988  21.0530012   4.8724997  13.6269988
  21.8470012   3.6784997  14.1129988  21.8104164   4.4642588  13.7422235
  34.2340012  12.3504997   3.1189988  33.9560012  11.6224997   3.6749988
  35.1610012  12.4694997   3.3239988  34.3213124  12.2668802   3.2228845
  21.5970012  16.3384997  12.1299988  21.8140012  15.4064997  12.0989988
  21.8430012  16.6124997  13.0129988  21.6599549  16.2480636  12.2451763
  27.4590012  14.7894997  -0.6610012  27.6980012  14.0414997  -1.2080012
  27.1900012  14.4014997   0.1719988  27.4553675  14.6346638  -0.6233135
  26.3960012  14.3594997   1.7959988  26.5420012  13.8394997   2.5859988
  26.3930012  15.2664997   2.1019988  26.4155989  14.4108853   1.9456088
  22.8490012  11.6124997   2.3059988  22.1630012  11.9644997   2.8729988
  23.3710012  12.3754997   2.0589988  22.8256852  11.7638578   2.3502118
  30.6800012   4.2744997  12.5849988  31.3790012   4.3484997  13.2349988
  30.2990012   3.4104997  12.7389988  30.7241767   4.1677624  12.6948322
  31.4650012   3.9264997   3.6819988  31.6850012   4.3984997   2.8789988
  32.0230012   4.3214997   4.3519988  31.5704968   4.0444285   3.6627331
  29.1330012  16.0574997   2.5449988  28.3170012  16.5544997   2.5969988
  29.6630012  16.5324997   1.9049988  29.0929161  16.1897722   2.4655956
  28.6650012   5.6544997   4.5169988  29.4770012   6.1594997   4.5629988
  28.4200012   5.5094997   5.4309988  28.7430520   5.7040375   4.6468517
  29.2000012   6.6404997  13.7019988  29.3190012   7.2144997  14.4589988
  29.8560012   5.9524997  13.8159988  29.3049757   6.6261079  13.8210825
  29.5480012   2.7354997   5.4549988  29.2020012   3.3534997   6.0999988
  30.2070012   3.2364997   4.9739988  29.5897826   2.8875802   5.4780971
  26.4720012  17.1014997   2.5269988  26.6320012  17.9004997   2.0259988
  26.2740012  17.4074997   3.4119988  26.4671649  17.2524469   2.5779815
  25.2060012   3.7984997   2.1419988  25.1230012   4.6874997   2.4889988
  26.0960012   3.5334997   2.3739988  25.3149469   3.8841430   2.2207626
  35.4050012   4.5474997  14.5369988  34.4880012   4.8104997  14.4489988
  35.7400012   4.5444997  13.6399988  35.3249900   4.5830224  14.4037919
  34.0070012   8.2984997   8.6319988  33.2090012   7.8834997   8.3039988
  34.4520012   7.6074997   9.1229988  33.9579885   8.1483543   8.6534889
  23.4650012  14.2264997   1.2029988  24.0570012  14.9254997   1.4789988
  23.9240012  13.7934997   0.4829988  23.6081142  14.2637049   1.1434830
  21.7810012   6.8904997   0.3189988  21.7360012   7.8294997   0.4969988
  20.8930012   6.6544997   0.0489988  21.6548574   6.9871892   0.3068912
  35.0930012  17.5544997  10.2549988  34.9380012  18.2324997   9.5979988
  36.0260012  17.6264997  10.4579988  35.1978500  17.6570170  10.1925119
  22.5890012   1.6724997   8.9919988  22.3600012   1.7314997   8.0639988
  22.1460012   0.8804997   9.2979988  22.4978530   1.5735753   8.9064786
  21.5190012  15.6124997   5.1519988  20.6870012  16.0854997   5.1799988
  22.0650012  16.1224997   4.5539988  21.4789739  15.7461871   5.0749716
  20.8070012  18.2254997  16.4819988  21.3480012  18.0084997  17.2419988
  20.3260012  17.4194997  16.2929988  20.8159345  18.0869514  16.5603076
  25.4050012  17.1444997  18.1029988  26.1720012  16.6854997  18.4439988
  25.3830012  16.9184997  17.1729988  25.5071434  17.0510409  18.0240043
  29.4970012  16.6524997  -0.5220012  28.8530012  16.0214997  -0.2010012
  30.2590012  16.1214997  -0.7540012  29.5118077  16.4942920  -0.5093989
  31.9820012  15.5244997  16.8319988  31.6310012  14.6684997  17.0749988
  32.7080012  15.6674997  17.4389988  32.0320769  15.4265636  16.9473619
  34.1010012  16.4694997  -0.2880012  34.3840012  15.6754997   0.1639988
  34.8410012  16.7024997  -0.8490012  34.2397486  16.3922803  -0.3019302
  20.7140012  12.0354997  17.4369988  20.8580012  11.1334997  17.1499988
  19.9420012  12.3214997  16.9489988  20.6293323  11.9508261  17.3317881
  25.0560012  12.3794997  -0.4310012  25.1200012  11.5854997   0.0999988
  25.7090012  12.2604997  -1.1210012  25.1530241  12.2547148  -0.4515683
  27.3700012  12.0054997  16.8689988  27.0410012  12.2764997  16.0119988
  27.5220012  11.0644997  16.7819988  27.3454809  11.9153862  16.7398244
  30.4080012  13.4264997  -0.6950012  30.1390012  13.6064997   0.2059988
  30.2020012  12.5004997  -0.8260012  30.3433825  13.3260152  -0.5894786
  33.1040012  11.9214997  14.2529988  33.8500012  12.5094997  14.1329988
  32.3470012  12.5034997  14.3159988  33.1037554  12.0807011  14.2450907
  21.5470012   9.2354997  16.8569988  21.9550012   8.3784997  16.7359988
  21.2870012   9.2504997  17.7779988  21.5677568   9.1200807  16.9649588
  26.2050012  10.3514997   1.8749988  25.7450012   9.8674997   2.5609988
  26.4600012   9.6834997   1.2389988  26.1764902  10.1948731   1.8829334
  25.4940012   8.2444997  14.2309988  24.8760012   8.9194997  14.5109988
  25.8380012   8.5654997  13.3979988  25.4559615   8.3802721  14.1566581
  27.2760012   8.5944997   0.1369988  27.0960012   8.4404997  -0.7900012
  28.2260012   8.7024997   0.1819988  27.3797776   8.5880175   0.0161843
  30.5140012  10.7164997  17.5079988  31.4670012  10.7994997  17.4809988
  30.3530012  10.0044997  18.1279988  30.6226426  10.6316746  17.5880579
  36.6660012  10.9494997  -0.4170012  36.3920012  10.5244997  -1.2300012
  36.7050012  11.8804997  -0.6340012  36.6337699  11.0172484  -0.5576390
  25.8330012   5.5994997  15.3129988  25.9830012   4.8704997  14.7109988
  25.8360012   6.3764997  14.7539988  25.8539302   5.6047851  15.1550692
  26.2460012   3.9694997  12.8059988  26.7820012   4.4204997  12.1539988
  25.3940012   3.8614997  12.3829988  26.2042178   4.0166390  12.6595756
  27.8280012   9.4084997  13.0449988  28.5780012   9.2524997  12.4719988
  27.4890012  10.2604997  12.7699988  27.8848921   9.5022968  12.9293561
  32.2430012   7.2234997  18.0739988  32.4360012   6.2924997  17.9619988
  33.1010012   7.6484997  18.0639988  32.3853020   7.1536389  18.0573361
  33.5600012  10.0124997  16.1509988  33.2790012  10.7214997  15.5739988
  34.5030012   9.9394997  15.9999988  33.6489027  10.0997646  16.0515551
  24.3120012   6.7974997  17.2249988  23.5450012   6.2654997  17.0149988
  24.9910012   6.4874997  16.6249988  24.2987022   6.6827506  17.1151648
  27.0520012   1.4254997  13.2369988  26.9530012   2.3724997  13.1319988
  26.3090012   1.0534997  12.7619988  26.9380564   1.5045902  13.1584560
  28.3160012   5.7474997  16.8009988  28.0800012   5.5274997  17.7029988
  27.5320012   5.5404997  16.2909988  28.1778628   5.6894760  16.8553932
  31.0310012   4.8744997  15.8769988  30.0840012   4.9064997  16.0089988
  31.3440012   4.2494997  16.5299988  30.9435475   4.7943207  15.9834455
  32.6650012   3.5084997  17.8819988  32.5690012   2.5564997  17.8759988
  32.3440012   3.7774997  18.7419988  32.6084070   3.4144035  17.9975441
  22.4920012   4.7184997  16.9289988  22.7040012   4.0114997  16.3189988
  22.3810012   4.2804997  17.7729988  22.5059721   4.5627084  16.9596843
  27.2730012   0.7194997  15.9089988  27.9850012   0.0794997  15.8949988
  27.1720012   0.9864997  14.9949988  27.3567939   0.6679938  15.7835650
  27.6270012   2.4024997  17.9619988  27.4950012   1.9264997  17.1419988
  27.0280012   3.1464997  17.9069988  27.5279071   2.4379618  17.8422886
  27.1730012  19.2854997   1.1389988  28.1060012  19.4434997   1.2819988
  26.9090012  19.9604997   0.5139988  27.2649510  19.3983611   1.0740741
  20.7420012  13.9214997   0.6209988  21.6560012  14.0004997   0.8949988
  20.7490012  13.2344997  -0.0450012  20.8681131  13.8393961   0.5684393
  19.3910012  19.3144997   5.6989988  18.7440012  18.8524997   5.1659988
  19.7450012  18.6424997   6.2809988  19.3503849  19.1604723   5.7047959
  20.2610012  17.3954997   7.5029988  19.9260012  16.5154997   7.6749988
  20.4830012  17.7404997   8.3679988  20.2451783  17.3217500   7.6434208
  37.8090012  18.2044997  10.4839988  37.7880012  18.3894997  11.4229988
  38.5000012  18.7734997  10.1429988  37.8994618  18.3066606  10.5663864
  37.3730012  17.7724997  13.4059988  36.8850012  17.0364997  13.0349988
  37.9220012  17.3784997  14.0839988  37.3804872  17.6186249  13.4469160
  35.8230012  13.5614997  18.0439988  34.9570012  13.4564997  18.4379988
  36.2000012  14.3204997  18.4899988  35.7553308  13.6496900  18.1582393
  37.1240012  11.8184997   3.5579988  37.9740012  12.2394997   3.6849988
  37.1300012  11.0784997   4.1649988  37.2411372  11.7760803   3.6574344
  37.5190012   9.8714997   5.3819988  36.7920012   9.3924997   5.7789988
  38.1000012  10.0774997   6.1139988  37.4979375   9.8337090   5.5354129
  37.2780012  12.6564997  10.3289988  38.1110012  12.2784997  10.0489988
  37.3900012  13.5994997  10.2099988  37.4072647  12.7322218  10.2745487
  35.7640012  15.5344997  12.6359988  35.1170012  15.8594997  13.2619988
  35.2470012  15.0944997  11.9619988  35.6054029  15.5195004  12.6305827
  37.7870012   9.7724997   1.7729988  37.2650012  10.1294997   1.0539988
  37.7540012  10.4474997   2.4509988  37.7111634   9.9125413   1.7663145
  36.1360012   7.0124997   0.3239988  36.2320012   7.6794997  -0.3570012
  35.9960012   6.1964997  -0.1580012  36.1302135   6.9934500   0.1658491
  35.3050012   8.3924997   5.9449988  35.1550012   7.4474997   5.9239988
  34.9520012   8.6734997   6.7879988  35.2366625   8.3010441   6.0562346
  20.3410012  10.4704997   9.9549988  20.5250012  10.3884997   9.0189988
  21.1900012  10.3464997  10.3789988  20.4810139  10.4425003   9.8841455
  36.1620012  10.3624997  15.5829988  36.7450012   9.6284997  15.7749988
  36.7260012  11.1344997  15.6299988  36.3179769  10.3664227  15.6156159
  37.6580012   8.2654997  16.2679988  36.7950012   7.8864997  16.1019988
  38.2630012   7.5264997  16.1939988  37.6215979   8.1138023  16.2352817
  35.3830012   4.4204997  -0.5590012  35.9940012   4.0494997   0.0779988
  34.5470012   3.9994997  -0.3630012  35.3535032   4.3127554  -0.4452965
  35.0160012   5.9754997   4.4069988  35.2960012   5.0684997   4.5309988
  35.7750012   6.4094997   4.0179988  35.1569277   5.9100942   4.3713682
  35.6280012   6.5564997   9.8429988  36.5610012   6.7684997   9.8089988
  35.3930012   6.6584997  10.7649988  35.7238036   6.5992769   9.9629976
  35.6570012   7.2934997  12.6189988  34.8140012   7.5614997  12.9849988
  36.0990012   8.1154997  12.4079988  35.6014158   7.4413291  12.6405491
  19.9380012   5.7414997  16.0959988  20.8580012   5.6194997  16.3319988
  19.4890012   4.9914997  16.4849988  20.0031580   5.6233727  16.1809006
  37.9400012   1.2734997  17.9719988  38.2900012   0.6194997  17.3669988
  38.0870012   2.1104997  17.5329988  38.0078419   1.2971591  17.8297118
  35.6290012   3.2384997   4.4549988  35.8120012   2.7894997   5.2809988
  35.0300012   2.6534997   3.9919988  35.5730202   3.0979975   4.5053275
  21.1590012   4.0534997   8.9869988  21.6050012   3.2614997   9.2889988
  21.6260012   4.7694997   9.4179988  21.2830172   4.0420624   9.0864820
  19.4630012   7.0524997  10.0559988  19.9550012   6.8314997   9.2649988
  19.8260012   7.8934997  10.3369988  19.5793126   7.1358357   9.9857531
  37.4600012   3.3824997  16.3219988  36.5420012   3.6534997  16.2859988
  37.5830012   2.8474997  15.5369988  37.3511066   3.3472892  16.2110487
  37.4960012   3.3054997   0.9829988  37.9080012   2.5844997   0.5079988
  38.1780012   3.9754997   1.0419988  37.6445885   3.2972368   0.9258915
  19.7770012   3.3104997   4.1099988  18.8520012   3.5194997   3.9809988
  20.2310012   3.7944997   3.4209988  19.7117368   3.4045993   3.9991226
  34.5480012  18.2944997   6.0559988  35.2000012  17.9474997   5.4479988
  35.0580012  18.7834997   6.7019988  34.7062637  18.3130597   6.0600236
  19.7410012   2.0484997  12.4549988  19.0760012   1.8024997  13.0979988
  19.2980012   2.6704997  11.8769988  19.5900956   2.0988632  12.4649352
  21.9330012  15.2234997  16.5989988  21.1120012  15.3984997  16.1389988
  21.6800012  15.1504997  17.5199988  21.7866164  15.2375622  16.6604923
  24.8870012  16.1984997  12.8579988  24.4620012  17.0074997  12.5749988
  25.7910012  16.2834997  12.5559988  24.9510271  16.3208469  12.7783776
  29.1980012  17.5974997  15.8169988  29.3830012  17.2634997  16.6949988
  30.0440012  17.9064997  15.4949988  29.3377539  17.5936047  15.8935605
  31.5430012  18.8834997  15.0609988  32.2200012  18.2504997  14.8209988
  31.8650012  19.2844997  15.8679988  31.6791637  18.8511154  15.1372793
  36.4600012   1.4724997  14.1409988  35.6480012   1.7974997  13.7529988
  36.6930012   0.7124997  13.6079988  36.3803423   1.4142436  14.0158253
  22.2890012  19.4544997  12.9049988  21.5680012  19.8944997  12.4539988
  21.9230012  19.2034997  13.7539988  22.1409804  19.4807698  12.9579840
  24.7560012  19.0544997  11.9349988  23.8910012  19.1264997  12.3389988
  24.7010012  19.6014997  11.1509988  24.6302085  19.1382685  11.8843362
  29.4660012  18.9424997  11.1099988  29.0100012  19.4714997  10.4559988
  29.6290012  19.5454997  11.8359988  29.4255585  19.0964468  11.1185062
  31.7940012  17.8204997  12.0549988  30.8890012  17.9854997  11.7899988
  32.2230012  18.6734997  11.9899988  31.7280799  17.9584483  12.0099182
  34.3980012  19.3904997  12.3499988  34.2160012  20.3064997  12.1399988
  34.5750012  18.9804997  11.5039988  34.3970210  19.4604822  12.2067885
  21.7030012  18.0774997   9.8149988  21.6850012  17.6524997  10.6729988
  22.5080012  17.7594997   9.4069988  21.8093875  17.9763812   9.8771655
  23.8450012  16.7874997   8.4699988  23.6260012  15.8714997   8.6399988
  24.6690012  16.9274997   8.9359988  23.9264420  16.6810520   8.5562774
  26.3820012  17.2574997   9.3189988  26.5950012  16.3694997   9.0319988
  26.4460012  17.2234997  10.2729988  26.4198232  17.1313102   9.4087397
  29.8900012   2.9214997   8.4629988  29.2160012   2.2924997   8.7189988
  30.4540012   2.4374997   7.8599988  29.8739230   2.7698744   8.4165340
  35.0330012   1.0294997   8.5759988  35.6370012   1.5764997   8.0739988
  34.1630012   1.3484997   8.3359988  34.9981241   1.1475806   8.4747654
  36.7600012   2.1674997   6.9089988  37.3720012   1.6534997   6.3829988
  37.1420012   3.0454997   6.9329988  36.8954540   2.2157140   6.8401830
  22.2170012   1.5554997   6.2849988  21.4400012   1.3214997   5.7779988
  22.7470012   0.7584997   6.2939988  22.1822330   1.4156988   6.2167742
  21.0530012   1.3534997   2.0889988  21.4920012   1.9644997   1.4969988
  20.4200012   1.8914997   2.5629988  21.0274514   1.5099257   2.0720930
  26.7960012   1.4824997   6.0989988  27.6710012   1.8704997   6.0689988
  26.6600012   1.2674997   7.0209988  26.8973695   1.5065184   6.2196440
  32.3530012   1.5124997   7.7479988  32.4290012   1.6074997   6.7979988
  32.0780012   0.6044997   7.8769988  32.3262321   1.4027867   7.6355079
  33.7060012   1.5384997   3.4399988  33.0040012   2.1534997   3.2309988
  33.2620012   0.7004997   3.5709988  33.5496330   1.5095783   3.4290328
  20.9540012  17.3014997   2.9869988  20.2690012  17.2634997   2.3189988
  20.9580012  18.2144997   3.2749988  20.8608193  17.4197016   2.9345284
  22.9140012   3.2694997   0.5309988  23.4060012   2.6394997   0.0039988
  23.5380012   3.5654997   1.1949988  23.0655446   3.2233199   0.5485980
  27.9400012   3.5624997   2.9879988  28.1180012   2.9164997   3.6709988
  27.8870012   4.3964997   3.4559988  27.9571829   3.5867985   3.1445940
  29.8190012  18.5114997   1.3839988  30.6850012  18.8774997   1.2059988
  29.5720012  18.0714997   0.5699988  29.9042392  18.5021756   1.2496289
  36.5280012  18.0744997   4.0629988  36.3330012  17.3264997   3.4979988
  36.4890012  18.8324997   3.4799988  36.4960380  18.0746099   3.9068384
  22.1750012   2.0694997  15.8029988  21.8090012   1.3044997  16.2459988
  23.0880012   2.0984997  16.0899988  22.2482790   1.9687224  15.9024070
  24.1480012   1.4204997  17.3389988  25.0460012   1.1464997  17.1539988
  23.7610012   0.6774997  17.8029988  24.2186612   1.2825914  17.3763643
  22.7720012  18.2214997   0.0119988  22.5050012  18.5084997   0.8849988
  23.5440012  17.6754997   0.1639988  22.8397488  18.1870294   0.1521050
  32.5690012   0.7524997  17.5209988  32.6460012   0.3264997  18.3749988
  33.4630012   0.7664997  17.1779988  32.7003428   0.6960879  17.5915310
  35.7450012  16.8254997  16.2129988  34.9630012  16.6394997  15.6939988
  35.6730012  17.7544997  16.4309988  35.6281777  16.9256492  16.1714048
  50.1510012  10.7114997   6.2439988  50.2400012  11.6554997   6.1119988
  49.5130012  10.4364997   5.5859988  50.0769081  10.8034830   6.1369614
  49.0840012   9.9664997   9.6629988  49.0460012   9.3204997  10.3679988
  48.7620012   9.5004997   8.8919988  49.0352333   9.8149408   9.6552978
  41.4530012   9.5814997  11.2559988  41.4940012   8.9554997  11.9789988
  42.1560012  10.2054997  11.4379988  41.5536363   9.5801196  11.3796044
  52.7900012  12.9054997   7.9639988  52.3500012  12.1854997   8.4149988
  52.7770012  13.6264997   8.5939988  52.7280226  12.9043731   8.1108494
  42.3760012  14.0314997   9.7909988  42.0070012  13.2294997   9.4209988
  43.3170012  13.8624997   9.8369988  42.4527289  13.8990153   9.7466316
  38.9860012   7.6914997   5.1839988  38.5390012   8.5374997   5.1649988
  38.4250012   7.1114997   4.6679988  38.8489900   7.7289916   5.1116801
  39.6970012   9.8534997   7.3099988  39.9100012   9.0834997   7.8369988
  40.4350012   9.9424997   6.7059988  39.8258496   9.7601394   7.3005300
  49.9020012  18.0104997   8.1769988  50.5220012  17.3334997   7.9029988
  49.6940012  17.7924997   9.0849988  49.9586904  17.8883870   8.2623365
  47.4740012  12.3994997  10.0689988  47.7780012  11.7134997   9.4739988
  48.1950012  12.5174997  10.6869988  47.6130671  12.3216305  10.0711816
  56.1370012   4.0004997  10.9299988  56.1860012   4.6104997  11.6659988
  56.5620012   4.4614997  10.2069988  56.2011824   4.1463741  10.9330205
  50.6150012   6.7934997  10.3969988  50.7570012   5.8474997  10.4169988
  50.5080012   7.0004997   9.4679988  50.6199864   6.6919534  10.2742339
  43.7690012   4.8944997   7.6689988  43.8130012   5.7544997   7.2509988
  43.3120012   4.3424997   7.0349988  43.7132185   4.9375799   7.5260299
  51.4920012   5.0254997   6.0699988  52.1380012   4.6964997   6.6949988
  52.0020012   5.5434997   5.4469988  51.6494264   5.0504611   6.0713862
  40.3900012   7.2914997   8.4309988  41.0430012   6.7414997   8.8629988
  40.4140012   7.0174997   7.5139988  40.4826683   7.1791466   8.3662123
  45.5460012   8.8414997   7.6459988  46.1620012   8.3154997   8.1559988
  44.9600012   8.2014997   7.2429988  45.5510810   8.6829208   7.6613173
  56.5280012   5.4784997  13.1659988  55.8400012   6.1364997  13.0699988
  56.5440012   5.2814997  14.1019988  56.4358525   5.5420462  13.2794808
  42.5800012   3.8124997  11.7429988  42.3610012   4.3424997  10.9769988
  41.9120012   4.0394997  12.3899988  42.4597600   3.9156906  11.7256379
  49.9490012  13.3124997   5.2869988  49.6530012  12.9904997   4.4359988
  49.6240012  14.2124997   5.3279988  49.8646371  13.3900215   5.1761801
  45.1490012  11.4884997  12.0299988  44.4090012  12.0864997  12.1339988
  45.8630012  12.0424997  11.7149988  45.1442237  11.6452831  12.0016465
  53.2560012   4.3164997   8.0499988  53.0400012   3.5504997   8.5829988
  53.9110012   4.7884997   8.5629988  53.3150632   4.2755889   8.1922861
  42.1730012   5.7044997   9.6949988  42.7870012   6.3374997  10.0689988
  42.6850012   5.2324997   9.0389988  42.3262296   5.7272370   9.6574252
  43.5560012  13.4524997  12.8179988  43.5510012  14.3324997  12.4399988
  42.7030012  13.3694997  13.2429988  43.4399464  13.5616117  12.8237907
  39.6770012  13.1234997   3.5999988  39.4050012  13.3524997   2.7109988
  39.7230012  13.9614997   4.0599988  39.6460094  13.2681213   3.5405697
  53.3020012  14.7454997  10.3119988  52.3610012  14.8034997  10.4739988
  53.5790012  15.6514997  10.1749988  53.2104679  14.8759443  10.3156815
  53.6030012   3.0314997  11.7299988  52.8670012   3.6424997  11.6919988
  54.2860012   3.4464997  11.2029988  53.5946541   3.1711374  11.6535832
  46.6060012   1.1184997   9.1959988  46.4890012   0.1694997   9.1409988
  45.7510012   1.4504997   9.4689988  46.4743733   1.0335409   9.2253897
  51.5540012  16.5264997   6.9379988  51.9800012  15.8194997   6.4529988
  51.8710012  17.3274997   6.5209988  51.6551019  16.5380994   6.8153130
  52.7140012  14.4274997   5.4459988  52.4560012  13.7374997   4.8349988
  52.7850012  13.9844997   6.2919988  52.6882856  14.2732124   5.4766885
  54.4000012  12.9934997  13.9239988  54.5400012  12.4024997  13.1839988
  54.5670012  13.8664997  13.5669988  54.4416778  13.0306426  13.7746965
  48.8730012   9.9554997   3.6959988  48.1610012  10.4904997   3.3439988
  49.5640012  10.0114997   3.0359988  48.8690132  10.0362543   3.5586289
  48.9260012   8.4134997   0.7349988  49.6270012   8.4354997   1.3859988
  49.2290012   7.7854997   0.0789988  49.0627830   8.3316566   0.7353711
  56.2420012   9.3334997  11.9899988  55.5890012  10.0284997  12.0789988
  56.7070012   9.5434997  11.1799988  56.2155390   9.4569425  11.8926883
  52.2780012  10.1654997   4.6479988  51.5460012  10.3934997   5.2209988
  52.7260012   9.4514997   5.1029988  52.2383095  10.1002571   4.7879119
  52.1760012   8.3394997  13.7149988  52.2560012   9.1024997  14.2869988
  51.5740012   8.6184997  13.0249988  52.1055756   8.4817134  13.7000589
  43.9240012  10.7954997   6.5299988  43.5930012  10.4254997   5.7119988
  44.5120012  10.1254997   6.8769988  43.9581873  10.6541156   6.4648102
  45.2900012  14.2234997   9.2119988  45.1960012  13.6454997   8.4549988
  46.0200012  13.8524997   9.7079988  45.3757981  14.0942390   9.1754165
  44.2900012   9.5644997  10.1639988  44.8560012   9.6854997   9.4009988
  44.6090012  10.2014997  10.8029988  44.4105786   9.6671884  10.1460040
  50.5990012  15.0674997  10.8979988  50.3590012  15.7294997  11.5459988
  50.4010012  14.2334997  11.3229988  50.5393808  15.0453134  11.0441524
  45.1700012  13.9634997  14.8809988  44.8590012  14.7454997  15.3359988
  44.5200012  13.8104997  14.1949988  45.0395558  14.0499105  14.8505871
  51.1490012   9.3274997   2.3329988  51.7290012   9.4774997   3.0799988
  51.5630012   9.7984997   1.6099988  51.2842830   9.4116841   2.3374134
  42.0900012  10.1614997  14.1099988  42.1610012  10.8124997  14.8079988
  41.2000012  10.2644997  13.7749988  41.9793117  10.2645936  14.1602700
  48.8760012  16.0644997   5.7679988  49.3500012  16.3594997   6.5459988
  48.3130012  16.8024997   5.5349988  48.8647653  16.2046932   5.8430136
  43.4100012  16.0354997  15.6439988  43.4170012  15.8994997  14.6969988
  42.4940012  15.9174997  15.8959988  43.2871714  16.0009430  15.5484666
  54.8480012   1.0774997   2.1459988  53.9480012   1.2164997   2.4409988
  55.1000012   1.9084997   1.7439988  54.7588702   1.2089074   2.1320205
  42.9140012   9.8654997   4.1199988  42.6220012  10.6334997   3.6289988
  42.2400012   9.2054997   3.9569988  42.7829081   9.8814406   4.0307340
  56.0370012  15.4434997   0.5219988  56.1110012  16.3824997   0.6929988
  56.9430012  15.1384997   0.4659988  56.1695100  15.5306722   0.5378119
  39.0070012  12.2284997  12.9349988  38.5060012  12.2004997  12.1199988
  39.0120012  11.3224997  13.2439988  38.9391526  12.1022278  12.8652872
  38.7570012  15.0084997   9.8189988  39.7030012  14.8644997   9.7999988
  38.6450012  15.7924997  10.3559988  38.8712727  15.0948046   9.8890072
  56.9550012  15.6744997  15.5009988  56.9060012  14.7194997  15.4639988
  56.1280012  15.9424997  15.9019988  56.8364940  15.5798998  15.5501375
  47.9340012  15.2484997  14.3769988  48.0210012  16.0744997  14.8519988
  47.0700012  14.9184997  14.6259988  47.8291964  15.3169878  14.4756549
  48.3480012  19.0204997   4.1829988  48.2730012  18.8994997   3.2369988
  48.3810012  19.9704997   4.3019988  48.3421848  19.1322500   4.0694834
  42.0010012  17.8094997   5.9639988  42.1540012  17.4614997   6.8429988
  41.1510012  17.4534997   5.7089988  41.9068962  17.7136650   6.0498340
  51.4500012  18.1744997   1.1849988  51.8250012  17.4304997   0.7149988
  51.4540012  17.9044997   2.1039988  51.5018915  18.0361486   1.2447824
  51.1190012  18.1004997   3.9349988  50.1830012  18.2004997   4.1129988
  51.3990012  17.3914997   4.5129988  51.0288255  18.0182711   4.0375391
  54.1070012   7.1674997  15.9809988  53.7000012   7.6484997  15.2599988
  54.1480012   6.2624997  15.6729988  54.0568437   7.1109374  15.8406683
  41.2560012  13.5514997  13.9779988  41.4720012  13.1904997  14.8369988
  40.4010012  13.1774997  13.7679988  41.1699292  13.4514111  14.0673386
  43.8750012   2.0214997   9.9729988  43.0130012   1.9344997   9.5659988
  43.8520012   2.8774997  10.4009988  43.7540330   2.1252765   9.9751863
  48.5380012   1.7434997  13.3479988  48.9580012   1.3284997  14.1009988
  47.6050012   1.5654997  13.4649988  48.4693644   1.6625900  13.4669539
  51.8640012   5.4994997  14.2009988  51.3500012   5.3734997  14.9989988
  51.7090012   6.4114997  13.9569988  51.7726852   5.6056132  14.2772158
  52.6270012  10.3604997  -0.0370012  52.6690012  10.1374997  -0.9670012
  53.4760012  10.7594997   0.1529988  52.7475396  10.3839155  -0.1386373
  48.1990012   4.2364997   0.6329988  47.9460012   4.2554997   1.5559988
  47.9430012   3.3644997   0.3319988  48.1297790   4.1212437   0.7186263
  43.9660012   6.9874997  11.0679988  43.3240012   6.9464997  11.7769988
  44.0030012   7.9134997  10.8309988  43.8831324   7.1071559  11.1329824
  43.9630012   7.2084997   5.9799988  43.0700012   6.8674997   5.9219988
  44.4130012   6.8314997   5.2249988  43.9017305   7.1108484   5.8699177
  49.4980012   7.6244997   4.7969988  49.0890012   8.4394997   4.5059988
  50.2190012   7.4844997   4.1829988  49.5394537   7.7172018   4.6741342
  48.6000012   7.7994997  16.2849988  48.0380012   7.0954997  16.6059988
  49.4270012   7.6794997  16.7529988  48.6347095   7.6867883  16.3922330
  50.5030012   7.0704997   7.6109988  50.3080012   7.6754997   6.8959988
  50.6840012   6.2364997   7.1769988  50.5007614   7.0406300   7.4544405
  41.7160012   7.3074997  12.9349988  41.6780012   7.7074997  13.8039988
  41.2250012   6.4904997  13.0259988  41.6444684   7.2518069  13.0661059
  45.0820012   4.6814997  -0.2660012  44.6510012   4.2364997   0.4639988
  44.3640012   5.0534997  -0.7780012  44.9259438   4.6708940  -0.2353201
  38.3240012   4.4234997   6.7859988  38.9550012   4.3944997   7.5049988
  38.7730012   3.9984997   6.0559988  38.4710774   4.3620492   6.7856553
  39.5980012   5.1694997   2.2099988  40.0720012   5.7604997   1.6249988
  38.8810012   5.7004997   2.5569988  39.5659341   5.3220867   2.1768836
  49.7670012   8.7084997  12.2829988  50.0900012   8.0774997  11.6399988
  49.3270012   8.1734997  12.9429988  49.7516895   8.5498441  12.2842850
  46.5440012   4.6354997   7.0669988  45.6330012   4.6924997   7.3549988
  47.0500012   4.5754997   7.8769988  46.4875413   4.6351985   7.2160622
  41.3730012   6.2644997   5.8929988  40.4830012   6.3644997   5.5529988
  41.6690012   5.4224997   5.5469988  41.2912823   6.1643545   5.7997213
  45.0260012   6.2644997   3.5499988  45.9570012   6.3934997   3.7279988
  44.8110012   6.9344997   2.8999988  45.1244247   6.3726565   3.4865747
  50.9490012   3.8704997  10.3309988  50.2730012   4.0014997  10.9949988
  50.4640012   3.7154997   9.5209988  50.7907145   3.8674905  10.3124517
  43.7000012   7.4594997   1.1169988  43.1570012   7.0794997   0.4249988
  44.5330012   7.6534997   0.6879988  43.7384399   7.4338124   0.9644526
  54.2370012  19.5424997  16.6079988  54.4370012  19.9664997  15.7729988
  54.8920012  19.8854997  17.2149988  54.3530051  19.6469648  16.5757836
  41.8350012  12.0164997  16.2159988  42.5670012  12.2704997  16.7769988
  41.0550012  12.2204997  16.7309988  41.8298232  12.0789177  16.3625760
  47.8640012   7.4234997   8.9539988  48.4290012   6.8764997   8.4069988
  47.7170012   6.9014997   9.7419988  47.9212918   7.2782024   8.9858454
  42.8660012   3.5594997   5.3719988  42.5490012   2.6574997   5.3369988
  43.6480012   3.5614997   4.8189988  42.9282284   3.4361628   5.2924783
  46.4910012   5.8114997  11.3679988  45.6550012   6.2654997  11.4779988
  47.0150012   6.0874997  12.1199988  46.4474414   5.9109376  11.4847136
  47.0350012  12.0244997   3.0519988  46.2900012  11.5174997   2.7299988
  46.9010012  12.0734997   3.9989988  46.9148776  11.9616940   3.1358647
  54.1850012  11.1574997  11.8389988  54.8270012  11.6144997  11.2949988
  53.3550012  11.2704997  11.3759988  54.1605963  11.2352704  11.7020177
  50.9330012   4.8384997   1.2519988  49.9940012   4.9504997   1.0999988
  51.2300012   5.6954997   1.5579988  50.8447666   4.9696443   1.2725768
  48.5540012  12.2084997  14.2889988  48.2090012  11.8274997  15.0959988
  48.3540012  13.1424997  14.3609988  48.4798061  12.2825228  14.4090961
  51.6510012   6.7054997   2.9119988  52.5430012   6.5684997   3.2309988
  51.7080012   7.4964997   2.3759988  51.7806285   6.7936660   2.8831691
  42.1600012  11.3194997   8.8219988  42.9050012  11.3174997   8.2209988
  42.2380012  10.4964997   9.3039988  42.2725518  11.2079315   8.8048929
  49.1610012  13.4834997   2.0779988  48.8650012  14.3094997   2.4589988
  48.4580012  12.8634997   2.2739988  49.0254914  13.5128199   2.1566443
  39.1680012   9.7804997  14.1369988  39.3910012   9.3624997  14.9689988
  38.5660012   9.1674997  13.7139988  39.1171759   9.6404668  14.1937022
  46.1840012   9.2974997  16.3499988  45.8880012   9.1314997  15.4549988
  47.1160012   9.0774997  16.3389988  46.2694166   9.2450640  16.2260536
  50.8050012  14.6704997  14.2399988  49.9040012  14.8534997  13.9719988
  50.8390012  14.9294997  15.1609988  50.6863041  14.7305512  14.3278197
  56.5360012   6.9154997   2.6069988  55.9820012   6.5194997   1.9349988
  56.6360012   7.8254997   2.3289988  56.4737059   6.9843586   2.4774401
  56.4990012  12.7154997  15.4439988  55.6480012  12.9534997  15.0769988
  57.0900012  12.6984997  14.6909988  56.4622487  12.7458258  15.2918893
  54.8310012  15.7014997   3.0719988  54.4580012  14.8754997   3.3809988
  55.1090012  15.5184997   2.1749988  54.8175630  15.5637303   2.9929626
  51.9920012  10.5094997  10.0929988  51.0630012  10.2774997  10.0659988
  52.4430012   9.7324997   9.7629988  51.9259216  10.3727238  10.0446917
  44.5350012  14.8374997   6.2259988  45.0620012  15.6104997   6.0259988
  43.6550012  15.0624997   5.9249988  44.4881773  14.9738005   6.1579010
  40.2900012   9.6994997   0.8129988  40.9060012  10.3264997   1.1929988
  39.4280012  10.0154997   1.0849988  40.2577698   9.8279430   0.9017183
  45.9620012  12.5004997   5.8029988  45.7210012  13.4254997   5.8439988
  45.2210012  12.0414997   6.1989988  45.8288409  12.5651421   5.8621377
  46.4770012  16.6494997  12.1179988  46.8390012  17.5044997  11.8839988
  47.0080012  16.3574997  12.8579988  46.5984473  16.7271060  12.1860855
  44.6450012  17.5224997   5.3479988  43.6950012  17.6274997   5.3989988
  44.9970012  18.3424997   5.6929988  44.5624203  17.6478314   5.4016650
  50.0210012  12.7484997  11.8179988  49.5950012  12.5214997  12.6449988
  50.6010012  12.0104997  11.6359988  50.0411868  12.6175299  11.9065830
  52.2240012  13.6774997   0.8919988  52.5770012  13.2974997   1.6969988
  51.2750012  13.5844997   0.9789988  52.1440441  13.6129596   1.0138559
  52.6790012  17.3004997  14.2879988  52.0780012  16.7454997  13.7919988
  52.9610012  17.9674997  13.6619988  52.6348519  17.3146841  14.1354952
  56.7270012  18.1574997   1.0929988  57.4710012  18.7434997   0.9529988
  56.0330012  18.7254997   1.4269988  56.7350292  18.3145582   1.1189961
  40.8020012   4.5334997  13.6949988  39.9090012   4.8724997  13.6269988
  40.7030012   3.6784997  14.1129988  40.6664164   4.4642588  13.7422235
  53.0900012  12.3504997   3.1189988  52.8120012  11.6224997   3.6749988
  54.0170012  12.4694997   3.3239988  53.1773124  12.2668802   3.2228845
  40.4530012  16.3384997  12.1299988  40.6700012  15.4064997  12.0989988
  40.6990012  16.6124997  13.0129988  40.5159549  16.2480636  12.2451763
  46.3150012  14.7894997  -0.6610012  46.5540012  14.0414997  -1.2080012
  46.0460012  14.4014997   0.1719988  46.3113675  14.6346638  -0.6233135
  45.2520012  14.3594997   1.7959988  45.3980012  13.8394997   2.5859988
  45.2490012  15.2664997   2.1019988  45.2715989  14.4108853   1.9456088
  41.7050012  11.6124997   2.3059988  41.0190012  11.9644997   2.8729988
  42.2270012  12.3754997   2.0589988  41.6816852  11.7638578   2.3502118
  49.5360012   4.2744997  12.5849988  50.2350012   4.3484997  13.2349988
  49.1550012   3.4104997  12.7389988  49.5801767   4.1677624  12.6948322
  50.3210012   3.9264997   3.6819988  50.5410012   4.3984997   2.8789988
  50.8790012   4.3214997   4.3519988  50.4264968   4.0444285   3.6627331
  47.9890012  16.0574997   2.5449988  47.1730012  16.5544997   2.5969988
  48.5190012  16.5324997   1.9049988  47.9489161  16.1897722   2.4655956
  47.5210012   5.6544997   4.5169988  48.3330012   6.1594997   4.5629988
  47.2760012   5.5094997   5.4309988  47.5990520   5.7040375   4.6468517
  48.0560012   6.6404997  13.7019988  48.1750012   7.2144997  14.4589988
  48.7120012   5.9524997  13.8159988  48.1609757   6.6261079  13.8210825
  48.4040012   2.7354997   5.4549988  48.0580012   3.3534997   6.0999988
  49.0630012   3.2364997   4.9739988  48.4457826   2.8875802   5.4780971
  45.3280012  17.1014997   2.5269988  45.4880012  17.9004997   2.0259988
  45.1300012  17.4074997   3.4119988  45.3231649  17.2524469   2.5779815
  44.0620012   3.7984997   2.1419988  43.9790012   4.6874997   2.4889988
  44.9520012   3.5334997   2.3739988  44.1709469   3.8841430   2.2207626
  54.2610012   4.5474997  14.5369988  53.3440012   4.8104997  14.4489988
  54.5960012   4.5444997  13.6399988  54.1809900   4.5830224  14.4037919
  52.8630012   8.2984997   8.6319988  52.0650012   7.8834997   8.3039988
  53.3080012   7.6074997   9.1229988  52.8139885   8.1483543   8.6534889
  42.3210012  14.2264997   1.2029988  42.9130012  14.9254997   1.4789988
  42.7800012  13.7934997   0.4829988  42.4641142  14.2637049   1.1434830
  40.6370012   6.8904997   0.3189988  40.5920012   7.8294997   0.4969988
  39.7490012   6.6544997   0.0489988  40.5108574   6.9871892   0.3068912
  53.9490012  17.5544997  10.2549988  53.7940012  18.2324997   9.5979988
  54.8820012  17.6264997  10.4579988  54.0538500  17.6570170  10.1925119
  41.4450012   1.6724997   8.9919988  41.2160012   1.7314997   8.0639988
  41.0020012   0.8804997   9.2979988  41.3538530   1.5735753   8.9064786
  40.3750012  15.6124997   5.1519988  39.5430012  16.0854997   5.1799988
  40.9210012  16.1224997   4.5539988  40.3349739  15.7461871   5.0749716
  39.6630012  18.2254997  16.4819988  40.2040012  18.0084997  17.2419988
  39.1820012  17.4194997  16.2929988  39.6719345  18.0869514  16.5603076
  44.2610012  17.1444997  18.1029988  45.0280012  16.6854997  18.4439988
  44.2390012  16.9184997  17.1729988  44.3631434  17.0510409  18.0240043
  48.3530012  16.6524997  -0.5220012  47.7090012  16.0214997  -0.2010012
  49.1150012  16.1214997  -0.7540012  48.3678077  16.4942920  -0.5093989
  50.8380012  15.5244997  16.8319988  50.4870012  14.6684997  17.0749988
  51.5640012  15.6674997  17.4389988  50.8880769  15.4265636  16.9473619
  52.9570012  16.4694997  -0.2880012  53.2400012  15.6754997   0.1639988
  53.6970012  16.7024997  -0.8490012  53.0957486  16.3922803  -0.3019302
  39.5700012  12.0354997  17.4369988  39.7140012  11.1334997  17.1499988
  38.7980012  12.3214997  16.9489988  39.4853322  11.9508261  17.3317881
  43.9120012  12.3794997  -0.4310012  43.9760012  11.5854997   0.0999988
  44.5650012  12.2604997  -1.1210012  44.0090241  12.2547148  -0.4515683
  46.2260012  12.0054997  16.8689988  45.8970012  12.2764997  16.0119988
  46.3780012  11.0644997  16.7819988  46.2014809  11.9153862  16.7398244
  49.2640012  13.4264997  -0.6950012  48.9950012  13.6064997   0.2059988
  49.0580012  12.5004997  -0.8260012  49.1993825  13.3260152  -0.5894786
  51.9600012  11.9214997  14.2529988  52.7060012  12.5094997  14.1329988
  51.2030012  12.5034997  14.3159988  51.9597554  12.0807011  14.2450907
  40.4030012   9.2354997  16.8569988  40.8110012   8.3784997  16.7359988
  40.1430012   9.2504997  17.7779988  40.4237568   9.1200807  16.9649588
  45.0610012  10.3514997   1.8749988  44.6010012   9.8674997   2.5609988
  45.3160012   9.6834997   1.2389988  45.0324902  10.1948731   1.8829334
  44.3500012   8.2444997  14.2309988  43.7320012   8.9194997  14.5109988
  44.6940012   8.5654997  13.3979988  44.3119615   8.3802721  14.1566581
  46.1320012   8.5944997   0.1369988  45.9520012   8.4404997  -0.7900012
  47.0820012   8.7024997   0.1819988  46.2357776   8.5880175   0.0161843
  49.3700012  10.7164997  17.5079988  50.3230012  10.7994997  17.4809988
  49.2090012  10.0044997  18.1279988  49.4786426  10.6316746  17.5880579
  55.5220012  10.9494997  -0.4170012  55.2480012  10.5244997  -1.2300012
  55.5610012  11.8804997  -0.6340012  55.4897699  11.0172484  -0.5576390
  44.6890012   5.5994997  15.3129988  44.8390012   4.8704997  14.7109988
  44.6920012   6.3764997  14.7539988  44.7099302   5.6047851  15.1550692
  45.1020012   3.9694997  12.8059988  45.6380012   4.4204997  12.1539988
  44.2500012   3.8614997  12.3829988  45.0602178   4.0166390  12.6595756
  46.6840012   9.4084997  13.0449988  47.4340012   9.2524997  12.4719988
  46.3450012  10.2604997  12.7699988  46.7408921   9.5022968  12.9293561
  51.0990012   7.2234997  18.0739988  51.2920012   6.2924997  17.9619988
  51.9570012   7.6484997  18.0639988  51.2413020   7.1536389  18.0573361
  52.4160012  10.0124997  16.1509988  52.1350012  10.7214997  15.5739988
  53.3590012   9.9394997  15.9999988  52.5049027  10.0997646  16.0515551
  43.1680012   6.7974997  17.2249988  42.4010012   6.2654997  17.0149988
  43.8470012   6.4874997  16.6249988  43.1547022   6.6827506  17.1151648
  45.9080012   1.4254997  13.2369988  45.8090012   2.3724997  13.1319988
  45.1650012   1.0534997  12.7619988  45.7940564   1.5045902  13.1584560
  47.1720012   5.7474997  16.8009988  46.9360012   5.5274997  17.7029988
  46.3880012   5.5404997  16.2909988  47.0338628   5.6894760  16.8553932
  49.8870012   4.8744997  15.8769988  48.9400012   4.9064997  16.0089988
  50.2000012   4.2494997  16.5299988  49.7995475   4.7943207  15.9834455
  51.5210012   3.5084997  17.8819988  51.4250012   2.5564997  17.8759988
  51.2000012   3.7774997  18.7419988  51.4644070   3.4144035  17.9975441
  41.3480012   4.7184997  16.9289988  41.5600012   4.0114997  16.3189988
  41.2370012   4.2804997  17.7729988  41.3619721   4.5627084  16.9596843
  46.1290012   0.7194997  15.9089988  46.8410012   0.0794997  15.8949988
  46.0280012   0.9864997  14.9949988  46.2127939   0.6679938  15.7835650
  46.4830012   2.4024997  17.9619988  46.3510012   1.9264997  17.1419988
  45.8840012   3.1464997  17.9069988  46.3839071   2.4379618  17.8422886
  46.0290012  19.2854997   1.1389988  46.9620012  19.4434997   1.2819988
  45.7650012  19.9604997   0.5139988  46.1209510  19.3983611   1.0740741
  39.5980012  13.9214997   0.6209988  40.5120012  14.0004997   0.8949988
  39.6050012  13.2344997  -0.0450012  39.7241131  13.8393961   0.5684393
  38.2470012  19.3144997   5.6989988  37.6000012  18.8524997   5.1659988
  38.6010012  18.6424997   6.2809988  38.2063849  19.1604723   5.7047959
  39.1170012  17.3954997   7.5029988  38.7820012  16.5154997   7.6749988
  39.3390012  17.7404997   8.3679988  39.1011783  17.3217500   7.6434208
  56.6650012  18.2044997  10.4839988  56.6440012  18.3894997  11.4229988
  57.3560012  18.7734997  10.1429988  56.7554618  18.3066606  10.5663864
  56.2290012  17.7724997  13.4059988  55.7410012  17.0364997  13.0349988
  56.7780012  17.3784997  14.0839988  56.2364872  17.6186249  13.4469160
  54.6790012  13.5614997  18.0439988  53.8130012  13.4564997  18.4379988
  55.0560012  14.3204997  18.4899988  54.6113308  13.6496900  18.1582393
  55.9800012  11.8184997   3.5579988  56.8300012  12.2394997   3.6849988
  55.9860012  11.0784997   4.1649988  56.0971372  11.7760803   3.6574344
  56.3750012   9.8714997   5.3819988  55.6480012   9.3924997   5.7789988
  56.9560012  10.0774997   6.1139988  56.3539375   9.8337090   5.5354129
  56.1340012  12.6564997  10.3289988  56.9670012  12.2784997  10.0489988
  56.2460012  13.5994997  10.2099988  56.2632647  12.7322218  10.2745487
  54.6200012  15.5344997  12.6359988  53.9730012  15.8594997  13.2619988
  54.1030012  15.0944997  11.9619988  54.4614029  15.5195004  12.6305827
  56.6430012   9.7724997   1.7729988  56.1210012  10.1294997   1.0539988
  56.6100012  10.4474997   2.4509988  56.5671634   9.9125413   1.7663145
  54.9920012   7.0124997   0.3239988  55.0880012   7.6794997  -0.3570012
  54.8520012   6.1964997  -0.1580012  54.9862135   6.9934500   0.1658491
  54.1610012   8.3924997   5.9449988  54.0110012   7.4474997   5.9239988
  53.8080012   8.6734997   6.7879988  54.0926625   8.3010441   6.0562346
  39.1970012  10.4704997   9.9549988  39.3810012  10.3884997   9.0189988
  40.0460012  10.3464997  10.3789988  39.3370139  10.4425003   9.8841455
  55.0180012  10.3624997  15.5829988  55.6010012   9.6284997  15.7749988
  55.5820012  11.1344997  15.6299988  55.1739769  10.3664227  15.6156159
  56.5140012   8.2654997  16.2679988  55.6510012   7.8864997  16.1019988
  57.1190012   7.5264997  16.1939988  56.4775979   8.1138023  16.2352817
  54.2390012   4.4204997  -0.5590012  54.8500012   4.0494997   0.0779988
  53.4030012   3.9994997  -0.3630012  54.2095032   4.3127554  -0.4452965
  53.8720012   5.9754997   4.4069988  54.1520012   5.0684997   4.5309988
  54.6310012   6.4094997   4.0179988  54.0129277   5.9100942   4.3713682
  54.4840012   6.5564997   9.8429988  55.4170012   6.7684997   9.8089988
  54.2490012   6.6584997  10.7649988  54.5798036   6.5992769   9.9629976
  54.5130012   7.2934997  12.6189988  53.6700012   7.5614997  12.9849988
  54.9550012   8.1154997  12.4079988  54.4574158   7.4413291  12.6405491
  38.7940012   5.7414997  16.0959988  39.7140012   5.6194997  16.3319988
  38.3450012   4.9914997  16.4849988  38.8591580   5.6233727  16.1809006
  56.7960012   1.2734997  17.9719988  57.1460012   0.6194997  17.3669988
  56.9430012   2.1104997  17.5329988  56.8638419   1.2971591  17.8297118
  54.4850012   3.2384997   4.4549988  54.6680012   2.7894997   5.2809988
  53.8860012   2.6534997   3.9919988  54.4290202   3.0979975   4.5053275
  40.0150012   4.0534997   8.9869988  40.4610012   3.2614997   9.2889988
  40.4820012   4.7694997   9.4179988  40.1390172   4.0420624   9.0864820
  38.3190012   7.0524997  10.0559988  38.8110012   6.8314997   9.2649988
  38.6820012   7.8934997  10.3369988  38.4353126   7.1358357   9.9857531
  56.3160012   3.3824997  16.3219988  55.3980012   3.6534997  16.2859988
  56.4390012   2.8474997  15.5369988  56.2071066   3.3472892  16.2110487
  56.3520012   3.3054997   0.9829988  56.7640012   2.5844997   0.5079988
  57.0340012   3.9754997   1.0419988  56.5005885   3.2972368   0.9258915
  38.6330012   3.3104997   4.1099988  37.7080012   3.5194997   3.9809988
  39.0870012   3.7944997   3.4209988  38.5677368   3.4045993   3.9991226
  53.4040012  18.2944997   6.0559988  54.0560012  17.9474997   5.4479988
  53.9140012  18.7834997   6.7019988  53.5622637  18.3130597   6.0600236
  38.5970012   2.0484997  12.4549988  37.9320012   1.8024997  13.0979988
  38.1540012   2.6704997  11.8769988  38.4460956   2.0988632  12.4649352
  40.7890012  15.2234997  16.5989988  39.9680012  15.3984997  16.1389988
  40.5360012  15.1504997  17.5199988  40.6426164  15.2375622  16.6604923
  43.7430012  16.1984997  12.8579988  43.3180012  17.0074997  12.5749988
  44.6470012  16.2834997  12.5559988  43.8070271  16.3208469  12.7783776
  48.0540012  17.5974997  15.8169988  48.2390012  17.2634997  16.6949988
  48.9000012  17.9064997  15.4949988  48.1937539  17.5936047  15.8935605
  50.3990012  18.8834997  15.0609988  51.0760012  18.2504997  14.8209988
  50.7210012  19.2844997  15.8679988  50.5351637  18.8511154  15.1372793
  55.3160012   1.4724997  14.1409988  54.5040012   1.7974997  13.7529988
  55.5490012   0.7124997  13.6079988  55.2363423   1.4142436  14.0158253
  41.1450012  19.4544997  12.9049988  40.4240012  19.8944997  12.4539988
  40.7790012  19.2034997  13.7539988  40.9969804  19.4807698  12.9579840
  43.6120012  19.0544997  11.9349988  42.7470012  19.1264997  12.3389988
  43.5570012  19.6014997  11.1509988  43.4862085  19.1382685  11.8843362
  48.3220012  18.9424997  11.1099988  47.8660012  19.4714997  10.4559988
  48.4850012  19.5454997  11.8359988  48.2815585  19.0964468  11.1185062
  50.6500012  17.8204997  12.0549988  49.7450012  17.9854997  11.7899988
  51.0790012  18.6734997  11.9899988  50.5840799  17.9584483  12.0099182
  53.2540012  19.3904997  12.3499988  53.0720012  20.3064997  12.1399988
  53.4310012  18.9804997  11.5039988  53.2530210  19.4604822  12.2067885
  40.5590012  18.0774997   9.8149988  40.5410012  17.6524997  10.6729988
  41.3640012  17.7594997   9.4069988  40.6653875  17.9763812   9.8771655
  42.7010012  16.7874997   8.4699988  42.4820012  15.8714997   8.6399988
  43.5250012  16.9274997   8.9359988  42.7824420  16.6810520   8.5562774
  45.2380012  17.2574997   9.3189988  45.4510012  16.3694997   9.0319988
  45.3020012  17.2234997  10.2729988  45.2758232  17.1313102   9.4087397
  48.7460012   2.9214997   8.4629988  48.0720012   2.2924997   8.7189988
  49.3100012   2.4374997   7.8599988  48.7299230   2.7698744   8.4165340
  53.8890012   1.0294997   8.5759988  54.4930012   1.5764997   8.0739988
  53.0190012   1.3484997   8.3359988  53.8541241   1.1475806   8.4747654
  55.6160012   2.1674997   6.9089988  56.2280012   1.6534997   6.3829988
  55.9980012   3.0454997   6.9329988  55.7514540   2.2157140   6.8401830
  41.0730012   1.5554997   6.2849988  40.2960012   1.3214997   5.7779988
  41.6030012   0.7584997   6.2939988  41.0382330   1.4156988   6.2167742
  39.9090012   1.3534997   2.0889988  40.3480012   1.9644997   1.4969988
  39.2760012   1.8914997   2.5629988  39.8834514   1.5099257   2.0720930
  45.6520012   1.4824997   6.0989988  46.5270012   1.8704997   6.0689988
  45.5160012   1.2674997   7.0209988  45.7533695   1.5065184   6.2196440
  51.2090012   1.5124997   7.7479988  51.2850012   1.6074997   6.7979988
  50.9340012   0.6044997   7.8769988  51.1822321   1.4027867   7.6355079
  52.5620012   1.5384997   3.4399988  51.8600012   2.1534997   3.2309988
  52.1180012   0.7004997   3.5709988  52.4056330   1.5095783   3.4290328
  39.8100012  17.3014997   2.9869988  39.1250012  17.2634997   2.3189988
  39.8140012  18.2144997   3.2749988  39.7168193  17.4197016   2.9345284
  41.7700012   3.2694997   0.5309988  42.2620012   2.6394997   0.0039988
  42.3940012   3.5654997   1.1949988  41.9215446   3.2233199   0.5485980
  46.7960012   3.5624997   2.9879988  46.9740012   2.9164997   3.6709988
  46.7430012   4.3964997   3.4559988  46.8131829   3.5867985   3.1445940
  48.6750012  18.5114997   1.3839988  49.5410012  18.8774997   1.2059988
  48.4280012  18.0714997   0.5699988  48.7602392  18.5021756   1.2496289
  55.3840012  18.0744997   4.0629988  55.1890012  17.3264997   3.4979988
  55.3450012  18.8324997   3.4799988  55.3520380  18.0746099   3.9068384
  41.0310012   2.0694997  15.8029988  40.6650012   1.3044997  16.2459988
  41.9440012   2.0984997  16.0899988  41.1042790   1.9687224  15.9024070
  43.0040012   1.4204997  17.3389988  43.9020012   1.1464997  17.1539988
  42.6170012   0.6774997  17.8029988  43.0746612   1.2825914  17.3763643
  41.6280012  18.2214997   0.0119988  41.3610012  18.5084997   0.8849988
  42.4000012  17.6754997   0.1639988  41.6957488  18.1870294   0.1521050
  51.4250012   0.7524997  17.5209988  51.5020012   0.3264997  18.3749988
  52.3190012   0.7664997  17.1779988  51.5563428   0.6960879  17.5915310
  54.6010012  16.8254997  16.2129988  53.8190012  16.6394997  15.6939988
  54.5290012  17.7544997  16.4309988  54.4841777  16.9256492  16.1714048
  69.0070012  10.7114997   6.2439988  69.0960012  11.6554997   6.1119988
  68.3690012  10.4364997   5.5859988  68.9329081  10.8034830   6.1369614
  67.9400012   9.9664997   9.6629988  67.9020012   9.3204997  10.3679988
  67.6180012   9.5004997   8.8919988  67.8912333   9.8149408   9.6552978
  60.3090012   9.5814997  11.2559988  60.3500012   8.9554997  11.9789988
  61.0120012  10.2054997  11.4379988  60.4096363   9.5801196  11.3796044
  71.6460012  12.9054997   7.9639988  71.2060012  12.1854997   8.4149988
  71.6330012  13.6264997   8.5939988  71.5840226  12.9043731   8.1108494
  61.2320012  14.0314997   9.7909988  60.8630012  13.2294997   9.4209988
  62.1730012  13.8624997   9.8369988  61.3087289  13.8990153   9.7466316
  57.8420012   7.6914997   5.1839988  57.3950012   8.5374997   5.1649988
  57.2810012   7.1114997   4.6679988  57.7049900   7.7289916   5.1116801
  58.5530012   9.8534997   7.3099988  58.7660012   9.0834997   7.8369988
  59.2910012   9.9424997   6.7059988  58.6818496   9.7601394   7.3005300
  68.7580012  18.0104997   8.1769988  69.3780012  17.3334997   7.9029988
  68.5500012  17.7924997   9.0849988  68.8146904  17.8883870   8.2623365
  66.3300012  12.3994997  10.0689988  66.6340012  11.7134997   9.4739988
  67.0510012  12.5174997  10.6869988  66.4690671  12.3216305  10.0711816
  74.9930012   4.0004997  10.9299988  75.0420012   4.6104997  11.6659988
  75.4180012   4.4614997  10.2069988  75.0571824   4.1463741  10.9330205
  69.4710012   6.7934997  10.3969988  69.6130012   5.8474997  10.4169988
  69.3640012   7.0004997   9.4679988  69.4759864   6.6919534  10.2742339
  62.6250012   4.8944997   7.6689988  62.6690012   5.7544997   7.2509988
  62.1680012   4.3424997   7.0349988  62.5692185   4.9375799   7.5260299
  70.3480012   5.0254997   6.0699988  70.9940012   4.6964997   6.6949988
  70.8580012   5.5434997   5.4469988  70.5054264   5.0504611   6.0713862
  59.2460012   7.2914997   8.4309988  59.8990012   6.7414997   8.8629988
  59.2700012   7.0174997   7.5139988  59.3386683   7.1791466   8.3662123
  64.4020012   8.8414997   7.6459988  65.0180012   8.3154997   8.1559988
  63.8160012   8.2014997   7.2429988  64.4070810   8.6829208   7.6613173
  75.3840012   5.4784997  13.1659988  74.6960012   6.1364997  13.0699988
  75.4000012   5.2814997  14.1019988  75.2918525   5.5420462  13.2794808
  61.4360012   3.8124997  11.7429988  61.2170012   4.3424997  10.9769988
  60.7680012   4.0394997  12.3899988  61.3157600   3.9156906  11.7256379
  68.8050012  13.3124997   5.2869988  68.5090012  12.9904997   4.4359988
  68.4800012  14.2124997   5.3279988  68.7206371  13.3900215   5.1761801
  64.0050012  11.4884997  12.0299988  63.2650012  12.0864997  12.1339988
  64.7190012  12.0424997  11.7149988  64.0002237  11.6452831  12.0016465
  72.1120012   4.3164997   8.0499988  71.8960012   3.5504997   8.5829988
  72.7670012   4.7884997   8.5629988  72.1710632   4.2755889   8.1922861
  61.0290012   5.7044997   9.6949988  61.6430012   6.3374997  10.0689988
  61.5410012   5.2324997   9.0389988  61.1822296   5.7272370   9.6574252
  62.4120012  13.4524997  12.8179988  62.4070012  14.3324997  12.4399988
  61.5590012  13.3694997  13.2429988  62.2959464  13.5616117  12.8237907
  58.5330012  13.1234997   3.5999988  58.2610012  13.3524997   2.7109988
  58.5790012  13.9614997   4.0599988  58.5020094  13.2681213   3.5405697
  72.1580012  14.7454997  10.3119988  71.2170012  14.8034997  10.4739988
  72.4350012  15.6514997  10.1749988  72.0664679  14.8759443  10.3156815
  72.4590012   3.0314997  11.7299988  71.7230012   3.6424997  11.6919988
  73.1420012   3.4464997  11.2029988  72.4506541   3.1711374  11.6535832
  65.4620012   1.1184997   9.1959988  65.3450012   0.1694997   9.1409988
  64.6070012   1.4504997   9.4689988  65.3303733   1.0335409   9.2253897
  70.4100012  16.5264997   6.9379988  70.8360012  15.8194997   6.4529988
  70.7270012  17.3274997   6.5209988  70.5111019  16.5380994   6.8153130
  71.5700012  14.4274997   5.4459988  71.3120012  13.7374997   4.8349988
  71.6410012  13.9844997   6.2919988  71.5442856  14.2732124   5.4766885
  73.2560012  12.9934997  13.9239988  73.3960012  12.4024997  13.1839988
  73.4230012  13.8664997  13.5669988  73.2976778  13.0306426  13.7746965
  67.7290012   9.9554997   3.6959988  67.0170012  10.4904997   3.3439988
  68.4200012  10.0114997   3.0359988  67.7250132  10.0362543   3.5586289
  67.7820012   8.4134997   0.7349988  68.4830012   8.4354997   1.3859988
  68.0850012   7.7854997   0.0789988  67.9187830   8.3316566   0.7353711
  75.0980012   9.3334997  11.9899988  74.4450012  10.0284997  12.0789988
  75.5630012   9.5434997  11.1799988  75.0715390   9.4569425  11.8926883
  71.1340012  10.1654997   4.6479988  70.4020012  10.3934997   5.2209988
  71.5820012   9.4514997   5.1029988  71.0943095  10.1002571   4.7879119
  71.0320012   8.3394997  13.7149988  71.1120012   9.1024997  14.2869988
  70.4300012   8.6184997  13.0249988  70.9615756   8.4817134  13.7000589
  62.7800012  10.7954997   6.5299988  62.4490012  10.4254997   5.7119988
  63.3680012  10.1254997   6.8769988  62.8141873  10.6541156   6.4648102
  64.1460012  14.2234997   9.2119988  64.0520012  13.6454997   8.4549988
  64.8760012  13.8524997   9.7079988  64.2317981  14.0942390   9.1754165
  63.1460012   9.5644997  10.1639988  63.7120012   9.6854997   9.4009988
  63.4650012  10.2014997  10.8029988  63.2665786   9.6671884  10.1460040
  69.4550012  15.0674997  10.8979988  69.2150012  15.7294997  11.5459988
  69.2570012  14.2334997  11.3229988  69.3953808  15.0453134  11.0441524
  64.0260012  13.9634997  14.8809988  63.7150012  14.7454997  15.3359988
  63.3760012  13.8104997  14.1949988  63.8955558  14.0499105  14.8505871
  70.0050012   9.3274997   2.3329988  70.5850012   9.4774997   3.0799988
  70.4190012   9.7984997   1.6099988  70.1402831   9.4116841   2.3374134
  60.9460012  10.1614997  14.1099988  61.0170012  10.8124997  14.8079988
  60.0560012  10.2644997  13.7749988  60.8353117  10.2645936  14.1602700
  67.7320012  16.0644997   5.7679988  68.2060012  16.3594997   6.5459988
  67.1690012  16.8024997   5.5349988  67.7207653  16.2046932   5.8430136
  62.2660012  16.0354997  15.6439988  62.2730012  15.8994997  14.6969988
  61.3500012  15.9174997  15.8959988  62.1431714  16.0009430  15.5484666
  73.7040012   1.0774997   2.1459988  72.8040012   1.2164997   2.4409988
  73.9560012   1.9084997   1.7439988  73.6148702   1.2089074   2.1320205
  61.7700012   9.8654997   4.1199988  61.4780012  10.6334997   3.6289988
  61.0960012   9.2054997   3.9569988  61.6389081   9.8814406   4.0307340
  74.8930012  15.4434997   0.5219988  74.9670012  16.3824997   0.6929988
  75.7990012  15.1384997   0.4659988  75.0255100  15.5306722   0.5378119
  57.8630012  12.2284997  12.9349988  57.3620012  12.2004997  12.1199988
  57.8680012  11.3224997  13.2439988  57.7951526  12.1022278  12.8652872
  57.6130012  15.0084997   9.8189988  58.5590012  14.8644997   9.7999988
  57.5010012  15.7924997  10.3559988  57.7272727  15.0948046   9.8890072
  75.8110012  15.6744997  15.5009988  75.7620012  14.7194997  15.4639988
  74.9840012  15.9424997  15.9019988  75.6924940  15.5798998  15.5501375
  66.7900012  15.2484997  14.3769988  66.8770012  16.0744997  14.8519988
  65.9260012  14.9184997  14.6259988  66.6851964  15.3169878  14.4756549
  67.2040012  19.0204997   4.1829988  67.1290012  18.8994997   3.2369988
  67.2370012  19.9704997   4.3019988  67.1981848  19.1322500   4.0694834
  60.8570012  17.8094997   5.9639988  61.0100012  17.4614997   6.8429988
  60.0070012  17.4534997   5.7089988  60.7628962  17.7136650   6.0498340
  70.3060012  18.1744997   1.1849988  70.6810012  17.4304997   0.7149988
  70.3100012  17.9044997   2.1039988  70.3578915  18.0361486   1.2447824
  69.9750012  18.1004997   3.9349988  69.0390012  18.2004997   4.1129988
  70.2550012  17.3914997   4.5129988  69.8848255  18.0182711   4.0375391
  72.9630012   7.1674997  15.9809988  72.5560012   7.6484997  15.2599988
  73.0040012   6.2624997  15.6729988  72.9128437   7.1109374  15.8406683
  60.1120012  13.5514997  13.9779988  60.3280012  13.1904997  14.8369988
  59.2570012  13.1774997  13.7679988  60.0259292  13.4514111  14.0673386
  62.7310012   2.0214997   9.9729988  61.8690012   1.9344997   9.5659988
  62.7080012   2.8774997  10.4009988  62.6100330   2.1252765   9.9751863
  67.3940012   1.7434997  13.3479988  67.8140012   1.3284997  14.1009988
  66.4610012   1.5654997  13.4649988  67.3253644   1.6625900  13.4669539
  70.7200012   5.4994997  14.2009988  70.2060012   5.3734997  14.9989988
  70.5650012   6.4114997  13.9569988  70.6286852   5.6056132  14.2772158
  71.4830012  10.3604997  -0.0370012  71.5250012  10.1374997  -0.9670012
  72.3320012  10.7594997   0.1529988  71.6035396  10.3839155  -0.1386373
  67.0550012   4.2364997   0.6329988  66.8020012   4.2554997   1.5559988
  66.7990012   3.3644997   0.3319988  66.9857790   4.1212437   0.7186263
  62.8220012   6.9874997  11.0679988  62.1800012   6.9464997  11.7769988
  62.8590012   7.9134997  10.8309988  62.7391324   7.1071559  11.1329824
  62.8190012   7.2084997   5.9799988  61.9260012   6.8674997   5.9219988
  63.2690012   6.8314997   5.2249988  62.7577305   7.1108484   5.8699177
  68.3540012   7.6244997   4.7969988  67.9450012   8.4394997   4.5059988
  69.0750012   7.4844997   4.1829988  68.3954537   7.7172018   4.6741342
  67.4560012   7.7994997  16.2849988  66.8940012   7.0954997  16.6059988
  68.2830012   7.6794997  16.7529988  67.4907095   7.6867883  16.3922330
  69.3590012   7.0704997   7.6109988  69.1640012   7.6754997   6.8959988
  69.5400012   6.2364997   7.1769988  69.3567614   7.0406300   7.4544405
  60.5720012   7.3074997  12.9349988  60.5340012   7.7074997  13.8039988
  60.0810012   6.4904997  13.0259988  60.5004684   7.2518069  13.0661059
  63.9380012   4.6814997  -0.2660012  63.5070012   4.2364997   0.4639988
  63.2200012   5.0534997  -0.7780012  63.7819438   4.6708940  -0.2353201
  57.1800012   4.4234997   6.7859988  57.8110012   4.3944997   7.5049988
  57.6290012   3.9984997   6.0559988  57.3270774   4.3620492   6.7856553
  58.4540012   5.1694997   2.2099988  58.9280012   5.7604997   1.6249988
  57.7370012   5.7004997   2.5569988  58.4219341   5.3220867   2.1768836
  68.6230012   8.7084997  12.2829988  68.9460012   8.0774997  11.6399988
  68.1830012   8.1734997  12.9429988  68.6076895   8.5498440  12.2842850
  65.4000012   4.6354997   7.0669988  64.4890012   4.6924997   7.3549988
  65.9060012   4.5754997   7.8769988  65.3435413   4.6351985   7.2160622
  60.2290012   6.2644997   5.8929988  59.3390012   6.3644997   5.5529988
  60.5250012   5.4224997   5.5469988  60.1472823   6.1643545   5.7997213
  63.8820012   6.2644997   3.5499988  64.8130012   6.3934997   3.7279988
  63.6670012   6.9344997   2.8999988  63.9804247   6.3726565   3.4865747
  69.8050012   3.8704997  10.3309988  69.1290012   4.0014997  10.9949988
  69.3200012   3.7154997   9.5209988  69.6467145   3.8674905  10.3124517
  62.5560012   7.4594997   1.1169988  62.0130012   7.0794997   0.4249988
  63.3890012   7.6534997   0.6879988  62.5944399   7.4338124   0.9644526
  73.0930012  19.5424997  16.6079988  73.2930012  19.9664997  15.7729988
  73.7480012  19.8854997  17.2149988  73.2090051  19.6469648  16.5757836
  60.6910012  12.0164997  16.2159988  61.4230012  12.2704997  16.7769988
  59.9110012  12.2204997  16.7309988  60.6858232  12.0789177  16.3625760
  66.7200012   7.4234997   8.9539988  67.2850012   6.8764997   8.4069988
  66.5730012   6.9014997   9.7419988  66.7772918   7.2782024   8.9858454
  61.7220012   3.5594997   5.3719988  61.4050012   2.6574997   5.3369988
  62.5040012   3.5614997   4.8189988  61.7842284   3.4361628   5.2924783
  65.3470012   5.8114997  11.3679988  64.5110012   6.2654997  11.4779988
  65.8710012   6.0874997  12.1199988  65.3034414   5.9109376  11.4847136
  65.8910012  12.0244997   3.0519988  65.1460012  11.5174997   2.7299988
  65.7570012  12.0734997   3.9989988  65.7708776  11.9616940   3.1358647
  73.0410012  11.1574997  11.8389988  73.6830012  11.6144997  11.2949988
  72.2110012  11.2704997  11.3759988  73.0165963  11.2352704  11.7020177
  69.7890012   4.8384997   1.2519988  68.8500012   4.9504997   1.0999988
  70.0860012   5.6954997   1.5579988  69.7007666   4.9696443   1.2725768
  67.4100012  12.2084997  14.2889988  67.0650012  11.8274997  15.0959988
  67.2100012  13.1424997  14.3609988  67.3358061  12.2825228  14.4090961
  70.5070012   6.7054997   2.9119988  71.3990012   6.5684997   3.2309988
  70.5640012   7.4964997   2.3759988  70.6366285   6.7936660   2.8831690
  61.0160012  11.3194997   8.8219988  61.7610012  11.3174997   8.2209988
  61.0940012  10.4964997   9.3039988  61.1285518  11.2079315   8.8048929
  68.0170012  13.4834997   2.0779988  67.7210012  14.3094997   2.4589988
  67.3140012  12.8634997   2.2739988  67.8814914  13.5128199   2.1566443
  58.0240012   9.7804997  14.1369988  58.2470012   9.3624997  14.9689988
  57.4220012   9.1674997  13.7139988  57.9731759   9.6404668  14.1937022
  65.0400012   9.2974997  16.3499988  64.7440012   9.1314997  15.4549988
  65.9720012   9.0774997  16.3389988  65.1254166   9.2450640  16.2260536
  69.6610012  14.6704997  14.2399988  68.7600012  14.8534997  13.9719988
  69.6950012  14.9294997  15.1609988  69.5423041  14.7305512  14.3278197
  75.3920012   6.9154997   2.6069988  74.8380012   6.5194997   1.9349988
  75.4920012   7.8254997   2.3289988  75.3297059   6.9843586   2.4774401
  75.3550012  12.7154997  15.4439988  74.5040012  12.9534997  15.0769988
  75.9460012  12.6984997  14.6909988  75.3182487  12.7458258  15.2918893
  73.6870012  15.7014997   3.0719988  73.3140012  14.8754997   3.3809988
  73.9650012  15.5184997   2.1749988  73.6735630  15.5637303   2.9929626
  70.8480012  10.5094997  10.0929988  69.9190012  10.2774997  10.0659988
  71.2990012   9.7324997   9.7629988  70.7819216  10.3727238  10.0446917
  63.3910012  14.8374997   6.2259988  63.9180012  15.6104997   6.0259988
  62.5110012  15.0624997   5.9249988  63.3441773  14.9738005   6.1579010
  59.1460012   9.6994997   0.8129988  59.7620012  10.3264997   1.1929988
  58.2840012  10.0154997   1.0849988  59.1137698   9.8279430   0.9017183
  64.8180012  12.5004997   5.8029988  64.5770012  13.4254997   5.8439988
  64.0770012  12.0414997   6.1989988  64.6848409  12.5651421   5.8621377
  65.3330012  16.6494997  12.1179988  65.6950012  17.5044997  11.8839988
  65.8640012  16.3574997  12.8579988  65.4544473  16.7271060  12.1860855
  63.5010012  17.5224997   5.3479988  62.5510012  17.6274997   5.3989988
  63.8530012  18.3424997   5.6929988  63.4184203  17.6478314   5.4016650
  68.8770012  12.7484997  11.8179988  68.4510012  12.5214997  12.6449988
  69.4570012  12.0104997  11.6359988  68.8971868  12.6175299  11.9065830
  71.0800012  13.6774997   0.8919988  71.4330012  13.2974997   1.6969988
  70.1310012  13.5844997   0.9789988  71.0000441  13.6129596   1.0138559
  71.5350012  17.3004997  14.2879988  70.9340012  16.7454997  13.7919988
  71.8170012  17.9674997  13.6619988  71.4908519  17.3146841  14.1354951
  75.5830012  18.1574997   1.0929988  76.3270012  18.7434997   0.9529988
  74.8890012  18.7254997   1.4269988  75.5910292  18.3145582   1.1189961
  59.6580012   4.5334997  13.6949988  58.7650012   4.8724997  13.6269988
  59.5590012   3.6784997  14.1129988  59.5224164   4.4642588  13.7422235
  71.9460012  12.3504997   3.1189988  71.6680012  11.6224997   3.6749988
  72.8730012  12.4694997   3.3239988  72.0333124  12.2668802   3.2228845
  59.3090012  16.3384997  12.1299988  59.5260012  15.4064997  12.0989988
  59.5550012  16.6124997  13.0129988  59.3719549  16.2480636  12.2451763
  65.1710012  14.7894997  -0.6610012  65.4100012  14.0414997  -1.2080012
  64.9020012  14.4014997   0.1719988  65.1673675  14.6346638  -0.6233135
  64.1080012  14.3594997   1.7959988  64.2540012  13.8394997   2.5859988
  64.1050012  15.2664997   2.1019988  64.1275989  14.4108853   1.9456088
  60.5610012  11.6124997   2.3059988  59.8750012  11.9644997   2.8729988
  61.0830012  12.3754997   2.0589988  60.5376852  11.7638578   2.3502118
  68.3920012   4.2744997  12.5849988  69.0910012   4.3484997  13.2349988
  68.0110012   3.4104997  12.7389988  68.4361767   4.1677624  12.6948322
  69.1770012   3.9264997   3.6819988  69.3970012   4.3984997   2.8789988
  69.7350012   4.3214997   4.3519988  69.2824968   4.0444285   3.6627331
  66.8450012  16.0574997   2.5449988  66.0290012  16.5544997   2.5969988
  67.3750012  16.5324997   1.9049988  66.8049161  16.1897722   2.4655956
  66.3770012   5.6544997   4.5169988  67.1890012   6.1594997   4.5629988
  66.1320012   5.5094997   5.4309988  66.4550520   5.7040375   4.6468517
  66.9120012   6.6404997  13.7019988  67.0310012   7.2144997  14.4589988
  67.5680012   5.9524997  13.8159988  67.0169757   6.6261079  13.8210825
  67.2600012   2.7354997   5.4549988  66.9140012   3.3534997   6.0999988
  67.9190012   3.2364997   4.9739988  67.3017826   2.8875802   5.4780971
  64.1840012  17.1014997   2.5269988  64.3440012  17.9004997   2.0259988
  63.9860012  17.4074997   3.4119988  64.1791649  17.2524469   2.5779815
  62.9180012   3.7984997   2.1419988  62.8350012   4.6874997   2.4889988
  63.8080012   3.5334997   2.3739988  63.0269469   3.8841430   2.2207626
  73.1170012   4.5474997  14.5369988  72.2000012   4.8104997  14.4489988
  73.4520012   4.5444997  13.6399988  73.0369900   4.5830224  14.4037919
  71.7190012   8.2984997   8.6319988  70.9210012   7.8834997   8.3039988
  72.1640012   7.6074997   9.1229988  71.6699885   8.1483543   8.6534889
  61.1770012  14.2264997   1.2029988  61.7690012  14.9254997   1.4789988
  61.6360012  13.7934997   0.4829988  61.3201142  14.2637049   1.1434830
  59.4930012   6.8904997   0.3189988  59.4480012   7.8294997   0.4969988
  58.6050012   6.6544997   0.0489988  59.3668574   6.9871892   0.3068912
  72.8050012  17.5544997  10.2549988  72.6500012  18.2324997   9.5979988
  73.7380012  17.6264997  10.4579988  72.9098500  17.6570170  10.1925119
  60.3010012   1.6724997   8.9919988  60.0720012   1.7314997   8.0639988
  59.8580012   0.8804997   9.2979988  60.2098530   1.5735753   8.9064786
  59.2310012  15.6124997   5.1519988  58.3990012  16.0854997   5.1799988
  59.7770012  16.1224997   4.5539988  59.1909739  15.7461871   5.0749716
  58.5190012  18.2254997  16.4819988  59.0600012  18.0084997  17.2419988
  58.0380012  17.4194997  16.2929988  58.5279345  18.0869514  16.5603076
  63.1170012  17.1444997  18.1029988  63.8840012  16.6854997  18.4439988
  63.0950012  16.9184997  17.1729988  63.2191434  17.0510409  18.0240043
  67.2090012  16.6524997  -0.5220012  66.5650012  16.0214997  -0.2010012
  67.9710012  16.1214997  -0.7540012  67.2238077  16.4942920  -0.5093989
  69.6940012  15.5244997  16.8319988  69.3430012  14.6684997  17.0749988
  70.4200012  15.6674997  17.4389988  69.7440769  15.4265636  16.9473619
  71.8130012  16.4694997  -0.2880012  72.0960012  15.6754997   0.1639988
  72.5530012  16.7024997  -0.8490012  71.9517486  16.3922803  -0.3019302
  58.4260012  12.0354997  17.4369988  58.5700012  11.1334997  17.1499988
  57.6540012  12.3214997  16.9489988  58.3413322  11.9508261  17.3317881
  62.7680012  12.3794997  -0.4310012  62.8320012  11.5854997   0.0999988
  63.4210012  12.2604997  -1.1210012  62.8650241  12.2547148  -0.4515683
  65.0820012  12.0054997  16.8689988  64.7530012  12.2764997  16.0119988
  65.2340012  11.0644997  16.7819988  65.0574809  11.9153862  16.7398244
  68.1200012  13.4264997  -0.6950012  67.8510012  13.6064997   0.2059988
  67.9140012  12.5004997  -0.8260012  68.0553825  13.3260152  -0.5894786
  70.8160012  11.9214997  14.2529988  71.5620012  12.5094997  14.1329988
  70.0590012  12.5034997  14.3159988  70.8157554  12.0807011  14.2450907
  59.2590012   9.2354997  16.8569988  59.6670012   8.3784997  16.7359988
  58.9990012   9.2504997  17.7779988  59.2797568   9.1200807  16.9649588
  63.9170012  10.3514997   1.8749988  63.4570012   9.8674997   2.5609988
  64.1720012   9.6834997   1.2389988  63.8884902  10.1948731   1.8829334
  63.2060012   8.2444997  14.2309988  62.5880012   8.9194997  14.5109988
  63.5500012   8.5654997  13.3979988  63.1679615   8.3802721  14.1566581
  64.9880012   8.5944997   0.1369988  64.8080012   8.4404997  -0.7900012
  65.9380012   8.7024997   0.1819988  65.0917776   8.5880175   0.0161843
  68.2260012  10.7164997  17.5079988  69.1790012  10.7994997  17.4809988
  68.0650012  10.0044997  18.1279988  68.3346426  10.6316746  17.5880579
  74.3780012  10.9494997  -0.4170012  74.1040012  10.5244997  -1.2300012
  74.4170012  11.8804997  -0.6340012  74.3457699  11.0172484  -0.5576390
  63.5450012   5.5994997  15.3129988  63.6950012   4.8704997  14.7109988
  63.5480012   6.3764997  14.7539988  63.5659302   5.6047851  15.1550692
  63.9580012   3.9694997  12.8059988  64.4940012   4.4204997  12.1539988
  63.1060012   3.8614997  12.3829988  63.9162178   4.0166390  12.6595756
  65.5400012   9.4084997  13.0449988  66.2900012   9.2524997  12.4719988
  65.2010012  10.2604997  12.7699988  65.5968921   9.5022968  12.9293561
  69.9550012   7.2234997  18.0739988  70.1480012   6.2924997  17.9619988
  70.8130012   7.6484997  18.0639988  70.0973020   7.1536389  18.0573361
  71.2720012  10.0124997  16.1509988  70.9910012  10.7214997  15.5739988
  72.2150012   9.9394997  15.9999988  71.3609027  10.0997646  16.0515551
  62.0240012   6.7974997  17.2249988  61.2570012   6.2654997  17.0149988
  62.7030012   6.4874997  16.6249988  62.0107022   6.6827506  17.1151648
  64.7640012   1.4254997  13.2369988  64.6650012   2.3724997  13.1319988
  64.0210012   1.0534997  12.7619988  64.6500563   1.5045902  13.1584560
  66.0280012   5.7474997  16.8009988  65.7920012   5.5274997  17.7029988
  65.2440012   5.5404997  16.2909988  65.8898628   5.6894760  16.8553932
  68.7430012   4.8744997  15.8769988  67.7960012   4.9064997  16.0089988
  69.0560012   4.2494997  16.5299988  68.6555475   4.7943207  15.9834455
  70.3770012   3.5084997  17.8819988  70.2810012   2.5564997  17.8759988
  70.0560012   3.7774997  18.7419988  70.3204070   3.4144035  17.9975441
  60.2040012   4.7184997  16.9289988  60.4160012   4.0114997  16.3189988
  60.0930012   4.2804997  17.7729988  60.2179721   4.5627084  16.9596843
  64.9850012   0.7194997  15.9089988  65.6970012   0.0794997  15.8949988
  64.8840012   0.9864997  14.9949988  65.0687939   0.6679938  15.7835650
  65.3390012   2.4024997  17.9619988  65.2070012   1.9264997  17.1419988
  64.7400012   3.1464997  17.9069988  65.2399071   2.4379618  17.8422886
  64.8850012  19.2854997   1.1389988  65.8180012  19.4434997   1.2819988
  64.6210012  19.9604997   0.5139988  64.9769510  19.3983611   1.0740741
  58.4540012  13.9214997   0.6209988  59.3680012  14.0004997   0.8949988
  58.4610012  13.2344997  -0.0450012  58.5801131  13.8393961   0.5684393
  57.1030012  19.3144997   5.6989988  56.4560012  18.8524997   5.1659988
  57.4570012  18.6424997   6.2809988  57.0623849  19.1604723   5.7047959
  57.9730012  17.3954997   7.5029988  57.6380012  16.5154997   7.6749988
  58.1950012  17.7404997   8.3679988  57.9571783  17.3217500   7.6434208
  75.5210012  18.2044997  10.4839988  75.5000012  18.3894997  11.4229988
  76.2120012  18.7734997  10.1429988  75.6114618  18.3066606  10.5663864
  75.0850012  17.7724997  13.4059988  74.5970012  17.0364997  13.0349988
  75.6340012  17.3784997  14.0839988  75.0924872  17.6186249  13.4469160
  73.5350012  13.5614997  18.0439988  72.6690012  13.4564997  18.4379988
  73.9120012  14.3204997  18.4899988  73.4673308  13.6496900  18.1582393
  74.8360012  11.8184997   3.5579988  75.6860012  12.2394997   3.6849988
  74.8420012  11.0784997   4.1649988  74.9531372  11.7760803   3.6574344
  75.2310012   9.8714997   5.3819988  74.5040012   9.3924997   5.7789988
  75.8120012  10.0774997   6.1139988  75.2099375   9.8337090   5.5354129
  74.9900012  12.6564997  10.3289988  75.8230012  12.2784997  10.0489988
  75.1020012  13.5994997  10.2099988  75.1192647  12.7322218  10.2745487
  73.4760012  15.5344997  12.6359988  72.8290012  15.8594997  13.2619988
  72.9590012  15.0944997  11.9619988  73.3174029  15.5195004  12.6305827
  75.4990012   9.7724997   1.7729988  74.9770012  10.1294997   1.0539988
  75.4660012  10.4474997   2.4509988  75.4231634   9.9125413   1.7663145
  73.8480012   7.0124997   0.3239988  73.9440012   7.6794997  -0.3570012
  73.7080012   6.1964997  -0.1580012  73.8422135   6.9934500   0.1658491
  73.0170012   8.3924997   5.9449988  72.8670012   7.4474997   5.9239988
  72.6640012   8.6734997   6.7879988  72.9486625   8.3010441   6.0562346
  58.0530012  10.4704997   9.9549988  58.2370012  10.3884997   9.0189988
  58.9020012  10.3464997  10.3789988  58.1930139  10.4425003   9.8841455
  73.8740012  10.3624997  15.5829988  74.4570012   9.6284997  15.7749988
  74.4380012  11.1344997  15.6299988  74.0299769  10.3664227  15.6156159
  75.3700012   8.2654997  16.2679988  74.5070012   7.8864997  16.1019988
  75.9750012   7.5264997  16.1939988  75.3335979   8.1138023  16.2352817
  73.0950012   4.4204997  -0.5590012  73.7060012   4.0494997   0.0779988
  72.2590012   3.9994997  -0.3630012  73.0655032   4.3127554  -0.4452965
  72.7280012   5.9754997   4.4069988  73.0080012   5.0684997   4.5309988
  73.4870012   6.4094997   4.0179988  72.8689277   5.9100942   4.3713682
  73.3400012   6.5564997   9.8429988  74.2730012   6.7684997   9.8089988
  73.1050012   6.6584997  10.7649988  73.4358036   6.5992769   9.9629976
  73.3690012   7.2934997  12.6189988  72.5260012   7.5614997  12.9849988
  73.8110012   8.1154997  12.4079988  73.3134158   7.4413291  12.6405491
  57.6500012   5.7414997  16.0959988  58.5700012   5.6194997  16.3319988
  57.2010012   4.9914997  16.4849988  57.7151580   5.6233727  16.1809006
  75.6520012   1.2734997  17.9719988  76.0020012   0.6194997  17.3669988
  75.7990012   2.1104997  17.5329988  75.7198419   1.2971591  17.8297118
  73.3410012   3.2384997   4.4549988  73.5240012   2.7894997   5.2809988
  72.7420012   2.6534997   3.9919988  73.2850202   3.0979975   4.5053275
  58.8710012   4.0534997   8.9869988  59.3170012   3.2614997   9.2889988
  59.3380012   4.7694997   9.4179988  58.9950172   4.0420624   9.0864820
  57.1750012   7.0524997  10.0559988  57.6670012   6.8314997   9.2649988
  57.5380012   7.8934997  10.3369988  57.2913126   7.1358357   9.9857531
  75.1720012   3.3824997  16.3219988  74.2540012   3.6534997  16.2859988
  75.2950012   2.8474997  15.5369988  75.0631066   3.3472892  16.2110487
  75.2080012   3.3054997   0.9829988  75.6200012   2.5844997   0.5079988
  75.8900012   3.9754997   1.0419988  75.3565885   3.2972368   0.9258915
  57.4890012   3.3104997   4.1099988  56.5640012   3.5194997   3.9809988
  57.9430012   3.7944997   3.4209988  57.4237368   3.4045994   3.9991226
  72.2600012  18.2944997   6.0559988  72.9120012  17.9474997   5.4479988
  72.7700012  18.7834997   6.7019988  72.4182637  18.3130597   6.0600236
  57.4530012   2.0484997  12.4549988  56.7880012   1.8024997  13.0979988
  57.0100012   2.6704997  11.8769988  57.3020956   2.0988632  12.4649352
  59.6450012  15.2234997  16.5989988  58.8240012  15.3984997  16.1389988
  59.3920012  15.1504997  17.5199988  59.4986164  15.2375622  16.6604923
  62.5990012  16.1984997  12.8579988  62.1740012  17.0074997  12.5749988
  63.5030012  16.2834997  12.5559988  62.6630271  16.3208469  12.7783776
  66.9100012  17.5974997  15.8169988  67.0950012  17.2634997  16.6949988
  67.7560012  17.9064997  15.4949988  67.0497539  17.5936047  15.8935605
  69.2550012  18.8834997  15.0609988  69.9320012  18.2504997  14.8209988
  69.5770012  19.2844997  15.8679988  69.3911637  18.8511154  15.1372793
  74.1720012   1.4724997  14.1409988  73.3600012   1.7974997  13.7529988
  74.4050012   0.7124997  13.6079988  74.0923423   1.4142436  14.0158253
  60.0010012  19.4544997  12.9049988  59.2800012  19.8944997  12.4539988
  59.6350012  19.2034997  13.7539988  59.8529804  19.4807698  12.9579840
  62.4680012  19.0544997  11.9349988  61.6030012  19.1264997  12.3389988
  62.4130012  19.6014997  11.1509988  62.3422085  19.1382685  11.8843362
  67.1780012  18.9424997  11.1099988  66.7220012  19.4714997  10.4559988
  67.3410012  19.5454997  11.8359988  67.1375585  19.0964468  11.1185062
  69.5060012  17.8204997  12.0549988  68.6010012  17.9854997  11.7899988
  69.9350012  18.6734997  11.9899988  69.4400799  17.9584483  12.0099182
  72.1100012  19.3904997  12.3499988  71.9280012  20.3064997  12.1399988
  72.2870012  18.9804997  11.5039988  72.1090210  19.4604822  12.2067885
  59.4150012  18.0774997   9.8149988  59.3970012  17.6524997  10.6729988
  60.2200012  17.7594997   9.4069988  59.5213875  17.9763812   9.8771655
  61.5570012  16.7874997   8.4699988  61.3380012  15.8714997   8.6399988
  62.3810012  16.9274997   8.9359988  61.6384420  16.6810520   8.5562774
  64.0940012  17.2574997   9.3189988  64.3070012  16.3694997   9.0319988
  64.1580012  17.2234997  10.2729988  64.1318232  17.1313102   9.4087397
  67.6020012   2.9214997   8.4629988  66.9280012   2.2924997   8.7189988
  68.1660012   2.4374997   7.8599988  67.5859230   2.7698744   8.4165340
  72.7450012   1.0294997   8.5759988  73.3490012   1.5764997   8.0739988
  71.8750012   1.3484997   8.3359988  72.7101241   1.1475806   8.4747654
  74.4720012   2.1674997   6.9089988  75.0840012   1.6534997   6.3829988
  74.8540012   3.0454997   6.9329988  74.6074540   2.2157140   6.8401830
  59.9290012   1.5554997   6.2849988  59.1520012   1.3214997   5.7779988
  60.4590012   0.7584997   6.2939988  59.8942330   1.4156988   6.2167742
  58.7650012   1.3534997   2.0889988  59.2040012   1.9644997   1.4969988
  58.1320012   1.8914997   2.5629988  58.7394514   1.5099257   2.0720930
  64.5080012   1.4824997   6.0989988  65.3830012   1.8704997   6.0689988
  64.3720012   1.2674997   7.0209988  64.6093695   1.5065184   6.2196440
  70.0650012   1.5124997   7.7479988  70.1410012   1.6074997   6.7979988
  69.7900012   0.6044997   7.8769988  70.0382321   1.4027867   7.6355079
  71.4180012   1.5384997   3.4399988  70.7160012   2.1534997   3.2309988
  70.9740012   0.7004997   3.5709988  71.2616330   1.5095783   3.4290328
  58.6660012  17.3014997   2.9869988  57.9810012  17.2634997   2.3189988
  58.6700012  18.2144997   3.2749988  58.5728193  17.4197016   2.9345284
  60.6260012   3.2694997   0.5309988  61.1180012   2.6394997   0.0039988
  61.2500012   3.5654997   1.1949988  60.7775446   3.2233199   0.5485980
  65.6520012   3.5624997   2.9879988  65.8300012   2.9164997   3.6709988
  65.5990012   4.3964997   3.4559988  65.6691829   3.5867985   3.1445940
  67.5310012  18.5114997   1.3839988  68.3970012  18.8774997   1.2059988
  67.2840012  18.0714997   0.5699988  67.6162392  18.5021756   1.2496289
  74.2400012  18.0744997   4.0629988  74.0450012  17.3264997   3.4979988
  74.2010012  18.8324997   3.4799988  74.2080380  18.0746099   3.9068384
  59.8870012   2.0694997  15.8029988  59.5210012   1.3044997  16.2459988
  60.8000012   2.0984997  16.0899988  59.9602790   1.9687224  15.9024070
  61.8600012   1.4204997  17.3389988  62.7580012   1.1464997  17.1539988
  61.4730012   0.6774997  17.8029988  61.9306612   1.2825914  17.3763643
  60.4840012  18.2214997   0.0119988  60.2170012  18.5084997   0.8849988
  61.2560012  17.6754997   0.1639988  60.5517488  18.1870294   0.1521050
  70.2810012   0.7524997  17.5209988  70.3580012   0.3264997  18.3749988
  71.1750012   0.7664997  17.1779988  70.4123428   0.6960879  17.5915310
  73.4570012  16.8254997  16.2129988  72.6750012  16.6394997  15.6939988
  73.3850012  17.7544997  16.4309988  73.3401777  16.9256492  16.1714048
  87.8630012  10.7114997   6.2439988  87.9520012  11.6554997   6.1119988
  87.2250012  10.4364997   5.5859988  87.7889081  10.8034830   6.1369614
  86.7960012   9.9664997   9.6629988  86.7580012   9.3204997  10.3679988
  86.4740012   9.5004997   8.8919988  86.7472333   9.8149408   9.6552978
  79.1650012   9.5814997  11.2559988  79.2060012   8.9554997  11.9789988
  79.8680012  10.2054997  11.4379988  79.2656363   9.5801196  11.3796044
  90.5020012  12.9054997   7.9639988  90.0620012  12.1854997   8.4149988
  90.4890012  13.6264997   8.5939988  90.4400226  12.9043731   8.1108494
  80.0880012  14.0314997   9.7909988  79.7190012  13.2294997   9.4209988
  81.0290012  13.8624997   9.8369988  80.1647289  13.8990153   9.7466316
  76.6980012   7.6914997   5.1839988  76.2510012   8.5374997   5.1649988
  76.1370012   7.1114997   4.6679988  76.5609900   7.7289916   5.1116801
  77.4090012   9.8534997   7.3099988  77.6220012   9.0834997   7.8369988
  78.1470012   9.9424997   6.7059988  77.5378496   9.7601394   7.3005300
  87.6140012  18.0104997   8.1769988  88.2340012  17.3334997   7.9029988
  87.4060012  17.7924997   9.0849988  87.6706904  17.8883870   8.2623365
  85.1860012  12.3994997  10.0689988  85.4900012  11.7134997   9.4739988
  85.9070012  12.5174997  10.6869988  85.3250671  12.3216305  10.0711816
  93.8490012   4.0004997  10.9299988  93.8980012   4.6104997  11.6659988
  94.2740012   4.4614997  10.2069988  93.9131824   4.1463741  10.9330205
  88.3270012   6.7934997  10.3969988  88.4690012   5.8474997  10.4169988
  88.2200012   7.0004997   9.4679988  88.3319864   6.6919534  10.2742339
  81.4810012   4.8944997   7.6689988  81.5250012   5.7544997   7.2509988
  81.0240012   4.3424997   7.0349988  81.4252185   4.9375799   7.5260299
  89.2040012   5.0254997   6.0699988  89.8500012   4.6964997   6.6949988
  89.7140012   5.5434997   5.4469988  89.3614264   5.0504611   6.0713862
  78.1020012   7.2914997   8.4309988  78.7550012   6.7414997   8.8629988
  78.1260012   7.0174997   7.5139988  78.1946683   7.1791466   8.3662123
  83.2580012   8.8414997   7.6459988  83.8740012   8.3154997   8.1559988
  82.6720012   8.2014997   7.2429988  83.2630810   8.6829208   7.6613173
  94.2400012   5.4784997  13.1659988  93.5520012   6.1364997  13.0699988
  94.2560012   5.2814997  14.1019988  94.1478525   5.5420462  13.2794808
  80.2920012   3.8124997  11.7429988  80.0730012   4.3424997  10.9769988
  79.6240012   4.0394997  12.3899988  80.1717600   3.9156906  11.7256379
  87.6610012  13.3124997   5.2869988  87.3650012  12.9904997   4.4359988
  87.3360012  14.2124997   5.3279988  87.5766371  13.3900215   5.1761801
  82.8610012  11.4884997  12.0299988  82.1210012  12.0864997  12.1339988
  83.5750012  12.0424997  11.7149988  82.8562237  11.6452831  12.0016465
  90.9680012   4.3164997   8.0499988  90.7520012   3.5504997   8.5829988
  91.6230012   4.7884997   8.5629988  91.0270632   4.2755889   8.1922861
  79.8850012   5.7044997   9.6949988  80.4990012   6.3374997  10.0689988
  80.3970012   5.2324997   9.0389988  80.0382296   5.7272370   9.6574252
  81.2680012  13.4524997  12.8179988  81.2630012  14.3324997  12.4399988
  80.4150012  13.3694997  13.2429988  81.1519464  13.5616117  12.8237907
  77.3890012  13.1234997   3.5999988  77.1170012  13.3524997   2.7109988
  77.4350012  13.9614997   4.0599988  77.3580094  13.2681213   3.5405697
  91.0140012  14.7454997  10.3119988  90.0730012  14.8034997  10.4739988
  91.2910012  15.6514997  10.1749988  90.9224679  14.8759443  10.3156815
  91.3150012   3.0314997  11.7299988  90.5790012   3.6424997  11.6919988
  91.9980012   3.4464997  11.2029988  91.3066541   3.1711374  11.6535832
  84.3180012   1.1184997   9.1959988  84.2010012   0.1694997   9.1409988
  83.4630012   1.4504997   9.4689988  84.1863733   1.0335409   9.2253897
  89.2660012  16.5264997   6.9379988  89.6920012  15.8194997   6.4529988
  89.5830012  17.3274997   6.5209988  89.3671019  16.5380994   6.8153130
  90.4260012  14.4274997   5.4459988  90.1680012  13.7374997   4.8349988
  90.4970012  13.9844997   6.2919988  90.4002856  14.2732124   5.4766885
  92.1120012  12.9934997  13.9239988  92.2520012  12.4024997  13.1839988
  92.2790012  13.8664997  13.5669988  92.1536778  13.0306426  13.7746965
  86.5850012   9.9554997   3.6959988  85.8730012  10.4904997   3.3439988
  87.2760012  10.0114997   3.0359988  86.5810132  10.0362543   3.5586289
  86.6380012   8.4134997   0.7349988  87.3390012   8.4354997   1.3859988
  86.9410012   7.7854997   0.0789988  86.7747830   8.3316566   0.7353711
  93.9540012   9.3334997  11.9899988  93.3010012  10.0284997  12.0789988
  94.4190012   9.5434997  11.1799988  93.9275390   9.4569425  11.8926883
  89.9900012  10.1654997   4.6479988  89.2580012  10.3934997   5.2209988
  90.4380012   9.4514997   5.1029988  89.9503095  10.1002571   4.7879119
  89.8880012   8.3394997  13.7149988  89.9680012   9.1024997  14.2869988
  89.2860012   8.6184997  13.0249988  89.8175756   8.4817134  13.7000589
  81.6360012  10.7954997   6.5299988  81.3050012  10.4254997   5.7119988
  82.2240012  10.1254997   6.8769988  81.6701873  10.6541156   6.4648102
  83.0020012  14.2234997   9.2119988  82.9080012  13.6454997   8.4549988
  83.7320012  13.8524997   9.7079988  83.0877981  14.0942390   9.1754165
  82.0020012   9.5644997  10.1639988  82.5680012   9.6854997   9.4009988
  82.3210012  10.2014997  10.8029988  82.1225786   9.6671884  10.1460040
  88.3110012  15.0674997  10.8979988  88.0710012  15.7294997  11.5459988
  88.1130012  14.2334997  11.3229988  88.2513808  15.0453134  11.0441524
  82.8820012  13.9634997  14.8809988  82.5710012  14.7454997  15.3359988
  82.2320012  13.8104997  14.1949988  82.7515558  14.0499105  14.8505871
  88.8610012   9.3274997   2.3329988  89.4410012   9.4774997   3.0799988
  89.2750012   9.7984997   1.6099988  88.9962830   9.4116841   2.3374134
  79.8020012  10.1614997  14.1099988  79.8730012  10.8124997  14.8079988
  78.9120012  10.2644997  13.7749988  79.6913117  10.2645936  14.1602700
  86.5880012  16.0644997   5.7679988  87.0620012  16.3594997   6.5459988
  86.0250012  16.8024997   5.5349988  86.5767653  16.2046932   5.8430136
  81.1220012  16.0354997  15.6439988  81.1290012  15.8994997  14.6969988
  80.2060012  15.9174997  15.8959988  80.9991714  16.0009430  15.5484666
  92.5600012   1.0774997   2.1459988  91.6600012   1.2164997   2.4409988
  92.8120012   1.9084997   1.7439988  92.4708702   1.2089074   2.1320205
  80.6260012   9.8654997   4.1199988  80.3340012  10.6334997   3.6289988
  79.9520012   9.2054997   3.9569988  80.4949081   9.8814406   4.0307340
  93.7490012  15.4434997   0.5219988  93.8230012  16.3824997   0.6929988
  94.6550012  15.1384997   0.4659988  93.8815100  15.5306722   0.5378119
  76.7190012  12.2284997  12.9349988  76.2180012  12.2004997  12.1199988
  76.7240012  11.3224997  13.2439988  76.6511526  12.1022278  12.8652872
  76.4690012  15.0084997   9.8189988  77.4150012  14.8644997   9.7999988
  76.3570012  15.7924997  10.3559988  76.5832727  15.0948046   9.8890072
  94.6670012  15.6744997  15.5009988  94.6180012  14.7194997  15.4639988
  93.8400012  15.9424997  15.9019988  94.5484940  15.5798998  15.5501375
  85.6460012  15.2484997  14.3769988  85.7330012  16.0744997  14.8519988
  84.7820012  14.9184997  14.6259988  85.5411964  15.3169878  14.4756549
  86.0600012  19.0204997   4.1829988  85.9850012  18.8994997   3.2369988
  86.0930012  19.9704997   4.3019988  86.0541848  19.1322500   4.0694834
  79.7130012  17.8094997   5.9639988  79.8660012  17.4614997   6.8429988
  78.8630012  17.4534997   5.7089988  79.6188962  17.7136650   6.0498340
  89.1620012  18.1744997   1.1849988  89.5370012  17.4304997   0.7149988
  89.1660012  17.9044997   2.1039988  89.2138915  18.0361486   1.2447824
  88.8310012  18.1004997   3.9349988  87.8950012  18.2004997   4.1129988
  89.1110012  17.3914997   4.5129988  88.7408255  18.0182711   4.0375391
  91.8190012   7.1674997  15.9809988  91.4120012   7.6484997  15.2599988
  91.8600012   6.2624997  15.6729988  91.7688437   7.1109374  15.8406683
  78.9680012  13.5514997  13.9779988  79.1840012  13.1904997  14.8369988
  78.1130012  13.1774997  13.7679988  78.8819292  13.4514111  14.0673386
  81.5870012   2.0214997   9.9729988  80.7250012   1.9344997   9.5659988
  81.5640012   2.8774997  10.4009988  81.4660330   2.1252765   9.9751863
  86.2500012   1.7434997  13.3479988  86.6700012   1.3284997  14.1009988
  85.3170012   1.5654997  13.4649988  86.1813644   1.6625900  13.4669539
  89.5760012   5.4994997  14.2009988  89.0620012   5.3734997  14.9989988
  89.4210012   6.4114997  13.9569988  89.4846852   5.6056132  14.2772158
  90.3390012  10.3604997  -0.0370012  90.3810012  10.1374997  -0.9670012
  91.1880012  10.7594997   0.1529988  90.4595396  10.3839155  -0.1386373
  85.9110012   4.2364997   0.6329988  85.6580012   4.2554997   1.5559988
  85.6550012   3.3644997   0.3319988  85.8417790   4.1212437   0.7186263
  81.6780012   6.9874997  11.0679988  81.0360012   6.9464997  11.7769988
  81.7150012   7.9134997  10.8309988  81.5951324   7.1071559  11.1329824
  81.6750012   7.2084997   5.9799988  80.7820012   6.8674997   5.9219988
  82.1250012   6.8314997   5.2249988  81.6137305   7.1108484   5.8699177
  87.2100012   7.6244997   4.7969988  86.8010012   8.4394997   4.5059988
  87.9310012   7.4844997   4.1829988  87.2514537   7.7172018   4.6741342
  86.3120012   7.7994997  16.2849988  85.7500012   7.0954997  16.6059988
  87.1390012   7.6794997  16.7529988  86.3467095   7.6867883  16.3922330
  88.2150012   7.0704997   7.6109988  88.0200012   7.6754997   6.8959988
  88.3960012   6.2364997   7.1769988  88.2127614   7.0406300   7.4544405
  79.4280012   7.3074997  12.9349988  79.3900012   7.7074997  13.8039988
  78.9370012   6.4904997  13.0259988  79.3564684   7.2518069  13.0661059
  82.7940012   4.6814997  -0.2660012  82.3630012   4.2364997   0.4639988
  82.0760012   5.0534997  -0.7780012  82.6379438   4.6708940  -0.2353201
  76.0360012   4.4234997   6.7859988  76.6670012   4.3944997   7.5049988
  76.4850012   3.9984997   6.0559988  76.1830774   4.3620492   6.7856553
  77.3100012   5.1694997   2.2099988  77.7840012   5.7604997   1.6249988
  76.5930012   5.7004997   2.5569988  77.2779341   5.3220867   2.1768836
  87.4790012   8.7084997  12.2829988  87.8020012   8.0774997  11.6399988
  87.0390012   8.1734997  12.9429988  87.4636895   8.5498441  12.2842850
  84.2560012   4.6354997   7.0669988  83.3450012   4.6924997   7.3549988
  84.7620012   4.5754997   7.8769988  84.1995413   4.6351985   7.2160622
  79.0850012   6.2644997   5.8929988  78.1950012   6.3644997   5.5529988
  79.3810012   5.4224997   5.5469988  79.0032823   6.1643545   5.7997213
  82.7380012   6.2644997   3.5499988  83.6690012   6.3934997   3.7279988
  82.5230012   6.9344997   2.8999988  82.8364247   6.3726565   3.4865747
  88.6610012   3.8704997  10.3309988  87.9850012   4.0014997  10.9949988
  88.1760012   3.7154997   9.5209988  88.5027145   3.8674905  10.3124517
  81.4120012   7.4594997   1.1169988  80.8690012   7.0794997   0.4249988
  82.2450012   7.6534997   0.6879988  81.4504399   7.4338124   0.9644526
  91.9490012  19.5424997  16.6079988  92.1490012  19.9664997  15.7729988
  92.6040012  19.8854997  17.2149988  92.0650051  19.6469648  16.5757836
  79.5470012  12.0164997  16.2159988  80.2790012  12.2704997  16.7769988
  78.7670012  12.2204997  16.7309988  79.5418232  12.0789177  16.3625760
  85.5760012   7.4234997   8.9539988  86.1410012   6.8764997   8.4069988
  85.4290012   6.9014997   9.7419988  85.6332918   7.2782024   8.9858454
  80.5780012   3.5594997   5.3719988  80.2610012   2.6574997   5.3369988
  81.3600012   3.5614997   4.8189988  80.6402284   3.4361628   5.2924783
  84.2030012   5.8114997  11.3679988  83.3670012   6.2654997  11.4779988
  84.7270012   6.0874997  12.1199988  84.1594414   5.9109376  11.4847136
  84.7470012  12.0244997   3.0519988  84.0020012  11.5174997   2.7299988
  84.6130012  12.0734997   3.9989988  84.6268776  11.9616940   3.1358647
  91.8970012  11.1574997  11.8389988  92.5390012  11.6144997  11.2949988
  91.0670012  11.2704997  11.3759988  91.8725963  11.2352704  11.7020177
  88.6450012   4.8384997   1.2519988  87.7060012   4.9504997   1.0999988
  88.9420012   5.6954997   1.5579988  88.5567666   4.9696443   1.2725768
  86.2660012  12.2084997  14.2889988  85.9210012  11.8274997  15.0959988
  86.0660012  13.1424997  14.3609988  86.1918061  12.2825228  14.4090961
  89.3630012   6.7054997   2.9119988  90.2550012   6.5684997   3.2309988
  89.4200012   7.4964997   2.3759988  89.4926285   6.7936660   2.8831691
  79.8720012  11.3194997   8.8219988  80.6170012  11.3174997   8.2209988
  79.9500012  10.4964997   9.3039988  79.9845518  11.2079315   8.8048929
  86.8730012  13.4834997   2.0779988  86.5770012  14.3094997   2.4589988
  86.1700012  12.8634997   2.2739988  86.7374914  13.5128199   2.1566443
  76.8800012   9.7804997  14.1369988  77.1030012   9.3624997  14.9689988
  76.2780012   9.1674997  13.7139988  76.8291759   9.6404668  14.1937022
  83.8960012   9.2974997  16.3499988  83.6000012   9.1314997  15.4549988
  84.8280012   9.0774997  16.3389988  83.9814166   9.2450640  16.2260536
  88.5170012  14.6704997  14.2399988  87.6160012  14.8534997  13.9719988
  88.5510012  14.9294997  15.1609988  88.3983041  14.7305512  14.3278197
  94.2480012   6.9154997   2.6069988  93.6940012   6.5194997   1.9349988
  94.3480012   7.8254997   2.3289988  94.1857059   6.9843586   2.4774401
  94.2110012  12.7154997  15.4439988  93.3600012  12.9534997  15.0769988
  94.8020012  12.6984997  14.6909988  94.1742487  12.7458258  15.2918893
  92.5430012  15.7014997   3.0719988  92.1700012  14.8754997   3.3809988
  92.8210012  15.5184997   2.1749988  92.5295630  15.5637303   2.9929626
  89.7040012  10.5094997  10.0929988  88.7750012  10.2774997  10.0659988
  90.1550012   9.7324997   9.7629988  89.6379216  10.3727238  10.0446917
  82.2470012  14.8374997   6.2259988  82.7740012  15.6104997   6.0259988
  81.3670012  15.0624997   5.9249988  82.2001773  14.9738005   6.1579010
  78.0020012   9.6994997   0.8129988  78.6180012  10.3264997   1.1929988
  77.1400012  10.0154997   1.0849988  77.9697698   9.8279430   0.9017183
  83.6740012  12.5004997   5.8029988  83.4330012  13.4254997   5.8439988
  82.9330012  12.0414997   6.1989988  83.5408409  12.5651421   5.8621377
  84.1890012  16.6494997  12.1179988  84.5510012  17.5044997  11.8839988
  84.7200012  16.3574997  12.8579988  84.3104473  16.7271060  12.1860855
  82.3570012  17.5224997   5.3479988  81.4070012  17.6274997   5.3989988
  82.7090012  18.3424997   5.6929988  82.2744203  17.6478314   5.4016650
  87.7330012  12.7484997  11.8179988  87.3070012  12.5214997  12.6449988
  88.3130012  12.0104997  11.6359988  87.7531868  12.6175299  11.9065830
  89.9360012  13.6774997   0.8919988  90.2890012  13.2974997   1.6969988
  88.9870012  13.5844997   0.9789988  89.8560441  13.6129596   1.0138559
  90.3910012  17.3004997  14.2879988  89.7900012  16.7454997  13.7919988
  90.6730012  17.9674997  13.6619988  90.3468519  17.3146841  14.1354952
  94.4390012  18.1574997   1.0929988  95.1830012  18.7434997   0.9529988
  93.7450012  18.7254997   1.4269988  94.4470292  18.3145582   1.1189961
  78.5140012   4.5334997  13.6949988  77.6210012   4.8724997  13.6269988
  78.4150012   3.6784997  14.1129988  78.3784164   4.4642588  13.7422235
  90.8020012  12.3504997   3.1189988  90.5240012  11.6224997   3.6749988
  91.7290012  12.4694997   3.3239988  90.8893124  12.2668802   3.2228845
  78.1650012  16.3384997  12.1299988  78.3820012  15.4064997  12.0989988
  78.4110012  16.6124997  13.0129988  78.2279549  16.2480636  12.2451763
  84.0270012  14.7894997  -0.6610012  84.2660012  14.0414997  -1.2080012
  83.7580012  14.4014997   0.1719988  84.0233675  14.6346638  -0.6233135
  82.9640012  14.3594997   1.7959988  83.1100012  13.8394997   2.5859988
  82.9610012  15.2664997   2.1019988  82.9835989  14.4108853   1.9456088
  79.4170012  11.6124997   2.3059988  78.7310012  11.9644997   2.8729988
  79.9390012  12.3754997   2.0589988  79.3936852  11.7638578   2.3502118
  87.2480012   4.2744997  12.5849988  87.9470012   4.3484997  13.2349988
  86.8670012   3.4104997  12.7389988  87.2921767   4.1677624  12.6948322
  88.0330012   3.9264997   3.6819988  88.2530012   4.3984997   2.8789988
  88.5910012   4.3214997   4.3519988  88.1384968   4.0444285   3.6627331
  85.7010012  16.0574997   2.5449988  84.8850012  16.5544997   2.5969988
  86.2310012  16.5324997   1.9049988  85.6609161  16.1897722   2.4655956
  85.2330012   5.6544997   4.5169988  86.0450012   6.1594997   4.5629988
  84.9880012   5.5094997   5.4309988  85.3110520   5.7040375   4.6468517
  85.7680012   6.6404997  13.7019988  85.8870012   7.2144997  14.4589988
  86.4240012   5.9524997  13.8159988  85.8729757   6.6261079  13.8210825
  86.1160012   2.7354997   5.4549988  85.7700012   3.3534997   6.0999988
  86.7750012   3.2364997   4.9739988  86.1577826   2.8875802   5.4780971
  83.0400012  17.1014997   2.5269988  83.2000012  17.9004997   2.0259988
  82.8420012  17.4074997   3.4119988  83.0351649  17.2524469   2.5779815
  81.7740012   3.7984997   2.1419988  81.6910012   4.6874997   2.4889988
  82.6640012   3.5334997   2.3739988  81.8829469   3.8841430   2.2207626
  91.9730012   4.5474997  14.5369988  91.0560012   4.8104997  14.4489988
  92.3080012   4.5444997  13.6399988  91.8929900   4.5830224  14.4037919
  90.5750012   8.2984997   8.6319988  89.7770012   7.8834997   8.3039988
  91.0200012   7.6074997   9.1229988  90.5259885   8.1483543   8.6534889
  80.0330012  14.2264997   1.2029988  80.6250012  14.9254997   1.4789988
  80.4920012  13.7934997   0.4829988  80.1761142  14.2637049   1.1434830
  78.3490012   6.8904997   0.3189988  78.3040012   7.8294997   0.4969988
  77.4610012   6.6544997   0.0489988  78.2228574   6.9871892   0.3068912
  91.6610012  17.5544997  10.2549988  91.5060012  18.2324997   9.5979988
  92.5940012  17.6264997  10.4579988  91.7658500  17.6570170  10.1925119
  79.1570012   1.6724997   8.9919988  78.9280012   1.7314997   8.0639988
  78.7140012   0.8804997   9.2979988  79.0658530   1.5735753   8.9064786
  78.0870012  15.6124997   5.1519988  77.2550012  16.0854997   5.1799988
  78.6330012  16.1224997   4.5539988  78.0469739  15.7461871   5.0749716
  77.3750012  18.2254997  16.4819988  77.9160012  18.0084997  17.2419988
  76.8940012  17.4194997  16.2929988  77.3839345  18.0869514  16.5603076
  81.9730012  17.1444997  18.1029988  82.7400012  16.6854997  18.4439988
  81.9510012  16.9184997  17.1729988  82.0751434  17.0510409  18.0240043
  86.0650012  16.6524997  -0.5220012  85.4210012  16.0214997  -0.2010012
  86.8270012  16.1214997  -0.7540012  86.0798077  16.4942920  -0.5093989
  88.5500012  15.5244997  16.8319988  88.1990012  14.6684997  17.0749988
  89.2760012  15.6674997  17.4389988  88.6000769  15.4265636  16.9473619
  90.6690012  16.4694997  -0.2880012  90.9520012  15.6754997   0.1639988
  91.4090012  16.7024997  -0.8490012  90.8077486  16.3922803  -0.3019302
  77.2820012  12.0354997  17.4369988  77.4260012  11.1334997  17.1499988
  76.5100012  12.3214997  16.9489988  77.1973322  11.9508261  17.3317881
  81.6240012  12.3794997  -0.4310012  81.6880012  11.5854997   0.0999988
  82.2770012  12.2604997  -1.1210012  81.7210241  12.2547148  -0.4515683
  83.9380012  12.0054997  16.8689988  83.6090012  12.2764997  16.0119988
  84.0900012  11.0644997  16.7819988  83.9134809  11.9153862  16.7398244
  86.9760012  13.4264997  -0.6950012  86.7070012  13.6064997   0.2059988
  86.7700012  12.5004997  -0.8260012  86.9113825  13.3260152  -0.5894786
  89.6720012  11.9214997  14.2529988  90.4180012  12.5094997  14.1329988
  88.9150012  12.5034997  14.3159988  89.6717554  12.0807011  14.2450907
  78.1150012   9.2354997  16.8569988  78.5230012   8.3784997  16.7359988
  77.8550012   9.2504997  17.7779988  78.1357568   9.1200807  16.9649588
  82.7730012  10.3514997   1.8749988  82.3130012   9.8674997   2.5609988
  83.0280012   9.6834997   1.2389988  82.7444902  10.1948731   1.8829334
  82.0620012   8.2444997  14.2309988  81.4440012   8.9194997  14.5109988
  82.4060012   8.5654997  13.3979988  82.0239615   8.3802721  14.1566581
  83.8440012   8.5944997   0.1369988  83.6640012   8.4404997  -0.7900012
  84.7940012   8.7024997   0.1819988  83.9477776   8.5880175   0.0161843
  87.0820012  10.7164997  17.5079988  88.0350012  10.7994997  17.4809988
  86.9210012  10.0044997  18.1279988  87.1906426  10.6316746  17.5880579
  93.2340012  10.9494997  -0.4170012  92.9600012  10.5244997  -1.2300012
  93.2730012  11.8804997  -0.6340012  93.2017699  11.0172484  -0.5576390
  82.4010012   5.5994997  15.3129988  82.5510012   4.8704997  14.7109988
  82.4040012   6.3764997  14.7539988  82.4219302   5.6047851  15.1550692
  82.8140012   3.9694997  12.8059988  83.3500012   4.4204997  12.1539988
  81.9620012   3.8614997  12.3829988  82.7722178   4.0166390  12.6595756
  84.3960012   9.4084997  13.0449988  85.1460012   9.2524997  12.4719988
  84.0570012  10.2604997  12.7699988  84.4528921   9.5022968  12.9293561
  88.8110012   7.2234997  18.0739988  89.0040012   6.2924997  17.9619988
  89.6690012   7.6484997  18.0639988  88.9533020   7.1536389  18.0573361
  90.1280012  10.0124997  16.1509988  89.8470012  10.7214997  15.5739988
  91.0710012   9.9394997  15.9999988  90.2169027  10.0997646  16.0515551
  80.8800012   6.7974997  17.2249988  80.1130012   6.2654997  17.0149988
  81.5590012   6.4874997  16.6249988  80.8667022   6.6827506  17.1151648
  83.6200012   1.4254997  13.2369988  83.5210012   2.3724997  13.1319988
  82.8770012   1.0534997  12.7619988  83.5060564   1.5045902  13.1584560
  84.8840012   5.7474997  16.8009988  84.6480012   5.5274997  17.7029988
  84.1000012   5.5404997  16.2909988  84.7458628   5.6894760  16.8553932
  87.5990012   4.8744997  15.8769988  86.6520012   4.9064997  16.0089988
  87.9120012   4.2494997  16.5299988  87.5115475   4.7943207  15.9834455
  89.2330012   3.5084997  17.8819988  89.1370012   2.5564997  17.8759988
  88.9120012   3.7774997  18.7419988  89.1764070   3.4144035  17.9975441
  79.0600012   4.7184997  16.9289988  79.2720012   4.0114997  16.3189988
  78.9490012   4.2804997  17.7729988  79.0739721   4.5627084  16.9596843
  83.8410012   0.7194997  15.9089988  84.5530012   0.0794997  15.8949988
  83.7400012   0.9864997  14.9949988  83.9247939   0.6679938  15.7835650
  84.1950012   2.4024997  17.9619988  84.0630012   1.9264997  17.1419988
  83.5960012   3.1464997  17.9069988  84.0959071   2.4379618  17.8422886
  83.7410012  19.2854997   1.1389988  84.6740012  19.4434997   1.2819988
  83.4770012  19.9604997   0.5139988  83.8329510  19.3983611   1.0740741
  77.3100012  13.9214997   0.6209988  78.2240012  14.0004997   0.8949988
  77.3170012  13.2344997  -0.0450012  77.4361131  13.8393961   0.5684393
  75.9590012  19.3144997   5.6989988  75.3120012  18.8524997   5.1659988
  76.3130012  18.6424997   6.2809988  75.9183849  19.1604723   5.7047959
  76.8290012  17.3954997   7.5029988  76.4940012  16.5154997   7.6749988
  77.0510012  17.7404997   8.3679988  76.8131783  17.3217500   7.6434208
  94.3770012  18.2044997  10.4839988  94.3560012  18.3894997  11.4229988
  95.0680012  18.7734997  10.1429988  94.4674618  18.3066606  10.5663864
  93.9410012  17.7724997  13.4059988  93.4530012  17.0364997  13.0349988
  94.4900012  17.3784997  14.0839988  93.9484872  17.6186249  13.4469160
  92.3910012  13.5614997  18.0439988  91.5250012  13.4564997  18.4379988
  92.7680012  14.3204997  18.4899988  92.3233308  13.6496900  18.1582393
  93.6920012  11.8184997   3.5579988  94.5420012  12.2394997   3.6849988
  93.6980012  11.0784997   4.1649988  93.8091372  11.7760803   3.6574344
  94.0870012   9.8714997   5.3819988  93.3600012   9.3924997   5.7789988
  94.6680012  10.0774997   6.1139988  94.0659375   9.8337090   5.5354129
  93.8460012  12.6564997  10.3289988  94.6790012  12.2784997  10.0489988
  93.9580012  13.5994997  10.2099988  93.9752647  12.7322218  10.2745487
  92.3320012  15.5344997  12.6359988  91.6850012  15.8594997  13.2619988
  91.8150012  15.0944997  11.9619988  92.1734029  15.5195004  12.6305827
  94.3550012   9.7724997   1.7729988  93.8330012  10.1294997   1.0539988
  94.3220012  10.4474997   2.4509988  94.2791634   9.9125413   1.7663145
  92.7040012   7.0124997   0.3239988  92.8000012   7.6794997  -0.3570012
  92.5640012   6.1964997  -0.1580012  92.6982135   6.9934500   0.1658491
  91.8730012   8.3924997   5.9449988  91.7230012   7.4474997   5.9239988
  91.5200012   8.6734997   6.7879988  91.8046625   8.3010441   6.0562346
  76.9090012  10.4704997   9.9549988  77.0930012  10.3884997   9.0189988
  77.7580012  10.3464997  10.3789988  77.0490139  10.4425003   9.8841455
  92.7300012  10.3624997  15.5829988  93.3130012   9.6284997  15.7749988
  93.2940012  11.1344997  15.6299988  92.8859769  10.3664227  15.6156159
  94.2260012   8.2654997  16.2679988  93.3630012   7.8864997  16.1019988
  94.8310012   7.5264997  16.1939988  94.1895979   8.1138023  16.2352817
  91.9510012   4.4204997  -0.5590012  92.5620012   4.0494997   0.0779988
  91.1150012   3.9994997  -0.3630012  91.9215032   4.3127554  -0.4452965
  91.5840012   5.9754997   4.4069988  91.8640012   5.0684997   4.5309988
  92.3430012   6.4094997   4.0179988  91.7249277   5.9100942   4.3713682
  92.1960012   6.5564997   9.8429988  93.1290012   6.7684997   9.8089988
  91.9610012   6.6584997  10.7649988  92.2918036   6.5992769   9.9629976
  92.2250012   7.2934997  12.6189988  91.3820012   7.5614997  12.9849988
  92.6670012   8.1154997  12.4079988  92.1694158   7.4413291  12.6405491
  76.5060012   5.7414997  16.0959988  77.4260012   5.6194997  16.3319988
  76.0570012   4.9914997  16.4849988  76.5711580   5.6233727  16.1809006
  94.5080012   1.2734997  17.9719988  94.8580012   0.6194997  17.3669988
  94.6550012   2.1104997  17.5329988  94.5758419   1.2971591  17.8297118
  92.1970012   3.2384997   4.4549988  92.3800012   2.7894997   5.2809988
  91.5980012   2.6534997   3.9919988  92.1410202   3.0979975   4.5053275
  77.7270012   4.0534997   8.9869988  78.1730012   3.2614997   9.2889988
  78.1940012   4.7694997   9.4179988  77.8510172   4.0420624   9.0864820
  76.0310012   7.0524997  10.0559988  76.5230012   6.8314997   9.2649988
  76.3940012   7.8934997  10.3369988  76.1473126   7.1358357   9.9857531
  94.0280012   3.3824997  16.3219988  93.1100012   3.6534997  16.2859988
  94.1510012   2.8474997  15.5369988  93.9191066   3.3472892  16.2110487
  94.0640012   3.3054997   0.9829988  94.4760012   2.5844997   0.5079988
  94.7460012   3.9754997   1.0419988  94.2125885   3.2972368   0.9258915
  76.3450012   3.3104997   4.1099988  75.4200012   3.5194997   3.9809988
  76.7990012   3.7944997   3.4209988  76.2797368   3.4045993   3.9991226
  91.1160012  18.2944997   6.0559988  91.7680012  17.9474997   5.4479988
  91.6260012  18.7834997   6.7019988  91.2742637  18.3130597   6.0600236
  76.3090012   2.0484997  12.4549988  75.6440012   1.8024997  13.0979988
  75.8660012   2.6704997  11.8769988  76.1580956   2.0988632  12.4649352
  78.5010012  15.2234997  16.5989988  77.6800012  15.3984997  16.1389988
  78.2480012  15.1504997  17.5199988  78.3546164  15.2375622  16.6604923
  81.4550012  16.1984997  12.8579988  81.0300012  17.0074997  12.5749988
  82.3590012  16.2834997  12.5559988  81.5190271  16.3208469  12.7783776
  85.7660012  17.5974997  15.8169988  85.9510012  17.2634997  16.6949988
  86.6120012  17.9064997  15.4949988  85.9057539  17.5936047  15.8935605
  88.1110012  18.8834997  15.0609988  88.7880012  18.2504997  14.8209988
  88.4330012  19.2844997  15.8679988  88.2471637  18.8511154  15.1372793
  93.0280012   1.4724997  14.1409988  92.2160012   1.7974997  13.7529988
  93.2610012   0.7124997  13.6079988  92.9483423   1.4142436  14.0158253
  78.8570012  19.4544997  12.9049988  78.1360012  19.8944997  12.4539988
  78.4910012  19.2034997  13.7539988  78.7089804  19.4807698  12.9579840
  81.3240012  19.0544997  11.9349988  80.4590012  19.1264997  12.3389988
  81.2690012  19.6014997  11.1509988  81.1982085  19.1382685  11.8843362
  86.0340012  18.9424997  11.1099988  85.5780012  19.4714997  10.4559988
  86.1970012  19.5454997  11.8359988  85.9935585  19.0964468  11.1185062
  88.3620012  17.8204997  12.0549988  87.4570012  17.9854997  11.7899988
  88.7910012  18.6734997  11.9899988  88.2960799  17.9584483  12.0099182
  90.9660012  19.3904997  12.3499988  90.7840012  20.3064997  12.1399988
  91.1430012  18.9804997  11.5039988  90.9650210  19.4604822  12.2067885
  78.2710012  18.0774997   9.8149988  78.2530012  17.6524997  10.6729988
  79.0760012  17.7594997   9.4069988  78.3773875  17.9763812   9.8771655
  80.4130012  16.7874997   8.4699988  80.1940012  15.8714997   8.6399988
  81.2370012  16.9274997   8.9359988  80.4944420  16.6810520   8.5562774
  82.9500012  17.2574997   9.3189988  83.1630012  16.3694997   9.0319988
  83.0140012  17.2234997  10.2729988  82.9878232  17.1313102   9.4087397
  86.4580012   2.9214997   8.4629988  85.7840012   2.2924997   8.7189988
  87.0220012   2.4374997   7.8599988  86.4419230   2.7698744   8.4165340
  91.6010012   1.0294997   8.5759988  92.2050012   1.5764997   8.0739988
  90.7310012   1.3484997   8.3359988  91.5661241   1.1475806   8.4747654
  93.3280012   2.1674997   6.9089988  93.9400012   1.6534997   6.3829988
  93.7100012   3.0454997   6.9329988  93.4634540   2.2157140   6.8401830
  78.7850012   1.5554997   6.2849988  78.0080012   1.3214997   5.7779988
  79.3150012   0.7584997   6.2939988  78.7502330   1.4156988   6.2167742
  77.6210012   1.3534997   2.0889988  78.0600012   1.9644997   1.4969988
  76.9880012   1.8914997   2.5629988  77.5954514   1.5099257   2.0720930
  83.3640012   1.4824997   6.0989988  84.2390012   1.8704997   6.0689988
  83.2280012   1.2674997   7.0209988  83.4653695   1.5065184   6.2196440
  88.9210012   1.5124997   7.7479988  88.9970012   1.6074997   6.7979988
  88.6460012   0.6044997   7.8769988  88.8942321   1.4027867   7.6355079
  90.2740012   1.5384997   3.4399988  89.5720012   2.1534997   3.2309988
  89.8300012   0.7004997   3.5709988  90.1176330   1.5095783   3.4290328
  77.5220012  17.3014997   2.9869988  76.8370012  17.2634997   2.3189988
  77.5260012  18.2144997   3.2749988  77.4288193  17.4197016   2.9345284
  79.4820012   3.2694997   0.5309988  79.9740012   2.6394997   0.0039988
  80.1060012   3.5654997   1.1949988  79.6335446   3.2233199   0.5485980
  84.5080012   3.5624997   2.9879988  84.6860012   2.9164997   3.6709988
  84.4550012   4.3964997   3.4559988  84.5251829   3.5867985   3.1445940
  86.3870012  18.5114997   1.3839988  87.2530012  18.8774997   1.2059988
  86.1400012  18.0714997   0.5699988  86.4722392  18.5021756   1.2496289
  93.0960012  18.0744997   4.0629988  92.9010012  17.3264997   3.4979988
  93.0570012  18.8324997   3.4799988  93.0640380  18.0746099   3.9068384
  78.7430012   2.0694997  15.8029988  78.3770012   1.3044997  16.2459988
  79.6560012   2.0984997  16.0899988  78.8162790   1.9687224  15.9024070
  80.7160012   1.4204997  17.3389988  81.6140012   1.1464997  17.1539988
  80.3290012   0.6774997  17.8029988  80.7866612   1.2825914  17.3763643
  79.3400012  18.2214997   0.0119988  79.0730012  18.5084997   0.8849988
  80.1120012  17.6754997   0.1639988  79.4077488  18.1870294   0.1521050
  89.1370012   0.7524997  17.5209988  89.2140012   0.3264997  18.3749988
  90.0310012   0.7664997  17.1779988  89.2683428   0.6960879  17.5915310
  92.3130012  16.8254997  16.2129988  91.5310012  16.6394997  15.6939988
  92.2410012  17.7544997  16.4309988  92.1961777  16.9256492  16.1714048
 106.7190012  10.7114997   6.2439988 106.8080012  11.6554997   6.1119988
 106.0810012  10.4364997   5.5859988 106.6449081  10.8034830   6.1369614
 105.6520012   9.9664997   9.6629988 105.6140012   9.3204997  10.3679988
 105.3300012   9.5004997   8.8919988 105.6032333   9.8149408   9.6552978
  98.0210012   9.5814997  11.2559988  98.0620012   8.9554997  11.9789988
  98.7240012  10.2054997  11.4379988  98.1216363   9.5801196  11.3796044
 109.3580012  12.9054997   7.9639988 108.9180012  12.1854997   8.4149988
 109.3450012  13.6264997   8.5939988 109.2960226  12.9043731   8.1108494
  98.9440012  14.0314997   9.7909988  98.5750012  13.2294997   9.4209988
  99.8850012  13.8624997   9.8369988  99.0207289  13.8990153   9.7466316
  95.5540012   7.6914997   5.1839988  95.1070012   8.5374997   5.1649988
  94.9930012   7.1114997   4.6679988  95.4169900   7.7289916   5.1116801
  96.2650012   9.8534997   7.3099988  96.4780012   9.0834997   7.8369988
  97.0030012   9.9424997   6.7059988  96.3938496   9.7601394   7.3005300
 106.4700012  18.0104997   8.1769988 107.0900012  17.3334997   7.9029988
 106.2620012  17.7924997   9.0849988 106.5266904  17.8883870   8.2623365
 104.0420012  12.3994997  10.0689988 104.3460012  11.7134997   9.4739988
 104.7630012  12.5174997  10.6869988 104.1810671  12.3216304  10.0711816
 112.7050012   4.0004997  10.9299988 112.7540012   4.6104997  11.6659988
 113.1300012   4.4614997  10.2069988 112.7691824   4.1463741  10.9330205
 107.1830012   6.7934997  10.3969988 107.3250012   5.8474997  10.4169988
 107.0760012   7.0004997   9.4679988 107.1879864   6.6919534  10.2742339
 100.3370012   4.8944997   7.6689988 100.3810012   5.7544997   7.2509988
  99.8800012   4.3424997   7.0349988 100.2812185   4.9375799   7.5260299
 108.0600012   5.0254997   6.0699988 108.7060012   4.6964997   6.6949988
 108.5700012   5.5434997   5.4469988 108.2174264   5.0504611   6.0713862
  96.9580012   7.2914997   8.4309988  97.6110012   6.7414997   8.8629988
  96.9820012   7.0174997   7.5139988  97.0506683   7.1791466   8.3662123
 102.1140012   8.8414997   7.6459988 102.7300012   8.3154997   8.1559988
 101.5280012   8.2014997   7.2429988 102.1190810   8.6829208   7.6613173
 113.0960012   5.4784997  13.1659988 112.4080012   6.1364997  13.0699988
 113.1120012   5.2814997  14.1019988 113.0038525   5.5420462  13.2794808
  99.1480012   3.8124997  11.7429988  98.9290012   4.3424997  10.9769988
  98.4800012   4.0394997  12.3899988  99.0277600   3.9156906  11.7256379
 106.5170012  13.3124997   5.2869988 106.2210012  12.9904997   4.4359988
 106.1920012  14.2124997   5.3279988 106.4326371  13.3900215   5.1761801
 101.7170012  11.4884997  12.0299988 100.9770012  12.0864997  12.1339988
 102.4310012  12.0424997  11.7149988 101.7122237  11.6452831  12.0016465
 109.8240012   4.3164997   8.0499988 109.6080012   3.5504997   8.5829988
 110.4790012   4.7884997   8.5629988 109.8830632   4.2755889   8.1922861
  98.7410012   5.7044997   9.6949988  99.3550012   6.3374997  10.0689988
  99.2530012   5.2324997   9.0389988  98.8942296   5.7272370   9.6574252
 100.1240012  13.4524997  12.8179988 100.1190012  14.3324997  12.4399988
  99.2710012  13.3694997  13.2429988 100.0079464  13.5616117  12.8237907
  96.2450012  13.1234997   3.5999988  95.9730012  13.3524997   2.7109988
  96.2910012  13.9614997   4.0599988  96.2140094  13.2681213   3.5405697
 109.8700012  14.7454997  10.3119988 108.9290012  14.8034997  10.4739988
 110.1470012  15.6514997  10.1749988 109.7784679  14.8759443  10.3156815
 110.1710012   3.0314997  11.7299988 109.4350012   3.6424997  11.6919988
 110.8540012   3.4464997  11.2029988 110.1626541   3.1711374  11.6535832
 103.1740012   1.1184997   9.1959988 103.0570012   0.1694997   9.1409988
 102.3190012   1.4504997   9.4689988 103.0423733   1.0335409   9.2253897
 108.1220012  16.5264997   6.9379988 108.5480012  15.8194997   6.4529988
 108.4390012  17.3274997   6.5209988 108.2231019  16.5380994   6.8153130
 109.2820012  14.4274997   5.4459988 109.0240012  13.7374997   4.8349988
 109.3530012  13.9844997   6.2919988 109.2562856  14.2732124   5.4766885
 110.9680012  12.9934997  13.9239988 111.1080012  12.4024997  13.1839988
 111.1350012  13.8664997  13.5669988 111.0096778  13.0306426  13.7746965
 105.4410012   9.9554997   3.6959988 104.7290012  10.4904997   3.3439988
 106.1320012  10.0114997   3.0359988 105.4370132  10.0362543   3.5586289
 105.4940012   8.4134997   0.7349988 106.1950012   8.4354997   1.3859988
 105.7970012   7.7854997   0.0789988 105.6307830   8.3316566   0.7353711
 112.8100012   9.3334997  11.9899988 112.1570012  10.0284997  12.0789988
 113.2750012   9.5434997  11.1799988 112.7835390   9.4569425  11.8926883
 108.8460012  10.1654997   4.6479988 108.1140012  10.3934997   5.2209988
 109.2940012   9.4514997   5.1029988 108.8063095  10.1002571   4.7879119
 108.7440012   8.3394997  13.7149988 108.8240012   9.1024997  14.2869988
 108.1420012   8.6184997  13.0249988 108.6735756   8.4817134  13.7000589
 100.4920012  10.7954997   6.5299988 100.1610012  10.4254997   5.7119988
 101.0800012  10.1254997   6.8769988 100.5261873  10.6541156   6.4648102
 101.8580012  14.2234997   9.2119988 101.7640012  13.6454997   8.4549988
 102.5880012  13.8524997   9.7079988 101.9437981  14.0942390   9.1754165
 100.8580012   9.5644997  10.1639988 101.4240012   9.6854997   9.4009988
 101.1770012  10.2014997  10.8029988 100.9785786   9.6671884  10.1460040
 107.1670012  15.0674997  10.8979988 106.9270012  15.7294997  11.5459988
 106.9690012  14.2334997  11.3229988 107.1073808  15.0453134  11.0441524
 101.7380012  13.9634997  14.8809988 101.4270012  14.7454997  15.3359988
 101.0880012  13.8104997  14.1949988 101.6075558  14.0499105  14.8505871
 107.7170012   9.3274997   2.3329988 108.2970012   9.4774997   3.0799988
 108.1310012   9.7984997   1.6099988 107.8522830   9.4116841   2.3374134
  98.6580012  10.1614997  14.1099988  98.7290012  10.8124997  14.8079988
  97.7680012  10.2644997  13.7749988  98.5473117  10.2645936  14.1602700
 105.4440012  16.0644997   5.7679988 105.9180012  16.3594997   6.5459988
 104.8810012  16.8024997   5.5349988 105.4327653  16.2046932   5.8430136
  99.9780012  16.0354997  15.6439988  99.9850012  15.8994997  14.6969988
  99.0620012  15.9174997  15.8959988  99.8551714  16.0009430  15.5484666
 111.4160012   1.0774997   2.1459988 110.5160012   1.2164997   2.4409988
 111.6680012   1.9084997   1.7439988 111.3268702   1.2089074   2.1320205
  99.4820012   9.8654997   4.1199988  99.1900012  10.6334997   3.6289988
  98.8080012   9.2054997   3.9569988  99.3509081   9.8814406   4.0307340
 112.6050012  15.4434997   0.5219988 112.6790012  16.3824997   0.6929988
 113.5110012  15.1384997   0.4659988 112.7375100  15.5306722   0.5378119
  95.5750012  12.2284997  12.9349988  95.0740012  12.2004997  12.1199988
  95.5800012  11.3224997  13.2439988  95.5071526  12.1022278  12.8652872
  95.3250012  15.0084997   9.8189988  96.2710012  14.8644997   9.7999988
  95.2130012  15.7924997  10.3559988  95.4392727  15.0948046   9.8890072
 113.5230012  15.6744997  15.5009988 113.4740012  14.7194997  15.4639988
 112.6960012  15.9424997  15.9019988 113.4044940  15.5798998  15.5501375
 104.5020012  15.2484997  14.3769988 104.5890012  16.0744997  14.8519988
 103.6380012  14.9184997  14.6259988 104.3971964  15.3169878  14.4756549
 104.9160012  19.0204997   4.1829988 104.8410012  18.8994997   3.2369988
 104.9490012  19.9704997   4.3019988 104.9101848  19.1322500   4.0694834
  98.5690012  17.8094997   5.9639988  98.7220012  17.4614997   6.8429988
  97.7190012  17.4534997   5.7089988  98.4748962  17.7136650   6.0498340
 108.0180012  18.1744997   1.1849988 108.3930012  17.4304997   0.7149988
 108.0220012  17.9044997   2.1039988 108.0698915  18.0361486   1.2447824
 107.6870012  18.1004997   3.9349988 106.7510012  18.2004997   4.1129988
 107.9670012  17.3914997   4.5129988 107.5968255  18.0182711   4.0375391
 110.6750012   7.1674997  15.9809988 110.2680012   7.6484997  15.2599988
 110.7160012   6.2624997  15.6729988 110.6248437   7.1109374  15.8406683
  97.8240012  13.5514997  13.9779988  98.0400012  13.1904997  14.8369988
  96.9690012  13.1774997  13.7679988  97.7379292  13.4514111  14.0673386
 100.4430012   2.0214997   9.9729988  99.5810012   1.9344997   9.5659988
 100.4200012   2.8774997  10.4009988 100.3220330   2.1252765   9.9751863
 105.1060012   1.7434997  13.3479988 105.5260012   1.3284997  14.1009988
 104.1730012   1.5654997  13.4649988 105.0373644   1.6625900  13.4669539
 108.4320012   5.4994997  14.2009988 107.9180012   5.3734997  14.9989988
 108.2770012   6.4114997  13.9569988 108.3406852   5.6056132  14.2772158
 109.1950012  10.3604997  -0.0370012 109.2370012  10.1374997  -0.9670012
 110.0440012  10.7594997   0.1529988 109.3155396  10.3839155  -0.1386373
 104.7670012   4.2364997   0.6329988 104.5140012   4.2554997   1.5559988
 104.5110012   3.3644997   0.3319988 104.6977790   4.1212437   0.7186263
 100.5340012   6.9874997  11.0679988  99.8920012   6.9464997  11.7769988
 100.5710012   7.9134997  10.8309988 100.4511324   7.1071559  11.1329824
 100.5310012   7.2084997   5.9799988  99.6380012   6.8674997   5.9219988
 100.9810012   6.8314997   5.2249988 100.4697305   7.1108484   5.8699177
 106.0660012   7.6244997   4.7969988 105.6570012   8.4394997   4.5059988
 106.7870012   7.4844997   4.1829988 106.1074537   7.7172018   4.6741342
 105.1680012   7.7994997  16.2849988 104.6060012   7.0954997  16.6059988
 105.9950012   7.6794997  16.7529988 105.2027095   7.6867883  16.3922330
 107.0710012   7.0704997   7.6109988 106.8760012   7.6754997   6.8959988
 107.2520012   6.2364997   7.1769988 107.0687614   7.0406300   7.4544405
  98.2840012   7.3074997  12.9349988  98.2460012   7.7074997  13.8039988
  97.7930012   6.4904997  13.0259988  98.2124684   7.2518069  13.0661059
 101.6500012   4.6814997  -0.2660012 101.2190012   4.2364997   0.4639988
 100.9320012   5.0534997  -0.7780012 101.4939438   4.6708940  -0.2353201
  94.8920012   4.4234997   6.7859988  95.5230012   4.3944997   7.5049988
  95.3410012   3.9984997   6.0559988  95.0390774   4.3620492   6.7856553
  96.1660012   5.1694997   2.2099988  96.6400012   5.7604997   1.6249988
  95.4490012   5.7004997   2.5569988  96.1339341   5.3220867   2.1768836
 106.3350012   8.7084997  12.2829988 106.6580012   8.0774997  11.6399988
 105.8950012   8.1734997  12.9429988 106.3196895   8.5498441  12.2842850
 103.1120012   4.6354997   7.0669988 102.2010012   4.6924997   7.3549988
 103.6180012   4.5754997   7.8769988 103.0555413   4.6351985   7.2160622
  97.9410012   6.2644997   5.8929988  97.0510012   6.3644997   5.5529988
  98.2370012   5.4224997   5.5469988  97.8592823   6.1643545   5.7997213
 101.5940012   6.2644997   3.5499988 102.5250012   6.3934997   3.7279988
 101.3790012   6.9344997   2.8999988 101.6924247   6.3726565   3.4865747
 107.5170012   3.8704997  10.3309988 106.8410012   4.0014997  10.9949988
 107.0320012   3.7154997   9.5209988 107.3587145   3.8674905  10.3124517
 100.2680012   7.4594997   1.1169988  99.7250012   7.0794997   0.4249988
 101.1010012   7.6534997   0.6879988 100.3064399   7.4338124   0.9644526
 110.8050012  19.5424997  16.6079988 111.0050012  19.9664997  15.7729988
 111.4600012  19.8854997  17.2149988 110.9210051  19.6469648  16.5757836
  98.4030012  12.0164997  16.2159988  99.1350012  12.2704997  16.7769988
  97.6230012  12.2204997  16.7309988  98.3978232  12.0789177  16.3625760
 104.4320012   7.4234997   8.9539988 104.9970012   6.8764997   8.4069988
 104.2850012   6.9014997   9.7419988 104.4892918   7.2782024   8.9858454
  99.4340012   3.5594997   5.3719988  99.1170012   2.6574997   5.3369988
 100.2160012   3.5614997   4.8189988  99.4962284   3.4361628   5.2924783
 103.0590012   5.8114997  11.3679988 102.2230012   6.2654997  11.4779988
 103.5830012   6.0874997  12.1199988 103.0154414   5.9109376  11.4847136
 103.6030012  12.0244997   3.0519988 102.8580012  11.5174997   2.7299988
 103.4690012  12.0734997   3.9989988 103.4828776  11.9616940   3.1358647
 110.7530012  11.1574997  11.8389988 111.3950012  11.6144997  11.2949988
 109.9230012  11.2704997  11.3759988 110.7285963  11.2352704  11.7020177
 107.5010012   4.8384997   1.2519988 106.5620012   4.9504997   1.0999988
 107.7980012   5.6954997   1.5579988 107.4127666   4.9696443   1.2725768
 105.1220012  12.2084997  14.2889988 104.7770012  11.8274997  15.0959988
 104.9220012  13.1424997  14.3609988 105.0478061  12.2825228  14.4090961
 108.2190012   6.7054997   2.9119988 109.1110012   6.5684997   3.2309988
 108.2760012   7.4964997   2.3759988 108.3486285   6.7936660   2.8831691
  98.7280012  11.3194997   8.8219988  99.4730012  11.3174997   8.2209988
  98.8060012  10.4964997   9.3039988  98.8405518  11.2079315   8.8048929
 105.7290012  13.4834997   2.0779988 105.4330012  14.3094997   2.4589988
 105.0260012  12.8634997   2.2739988 105.5934914  13.5128199   2.1566443
  95.7360012   9.7804997  14.1369988  95.9590012   9.3624997  14.9689988
  95.1340012   9.1674997  13.7139988  95.6851759   9.6404668  14.1937022
 102.7520012   9.2974997  16.3499988 102.4560012   9.1314997  15.4549988
 103.6840012   9.0774997  16.3389988 102.8374166   9.2450640  16.2260536
 107.3730012  14.6704997  14.2399988 106.4720012  14.8534997  13.9719988
 107.4070012  14.9294997  15.1609988 107.2543041  14.7305512  14.3278197
 113.1040012   6.9154997   2.6069988 112.5500012   6.5194997   1.9349988
 113.2040012   7.8254997   2.3289988 113.0417059   6.9843586   2.4774401
 113.0670012  12.7154997  15.4439988 112.2160012  12.9534997  15.0769988
 113.6580012  12.6984997  14.6909988 113.0302487  12.7458258  15.2918893
 111.3990012  15.7014997   3.0719988 111.0260012  14.8754997   3.3809988
 111.6770012  15.5184997   2.1749988 111.3855630  15.5637303   2.9929626
 108.5600012  10.5094997  10.0929988 107.6310012  10.2774997  10.0659988
 109.0110012   9.7324997   9.7629988 108.4939216  10.3727238  10.0446917
 101.1030012  14.8374997   6.2259988 101.6300012  15.6104997   6.0259988
 100.2230012  15.0624997   5.9249988 101.0561773  14.9738005   6.1579010
  96.8580012   9.6994997   0.8129988  97.4740012  10.3264997   1.1929988
  95.9960012  10.0154997   1.0849988  96.8257698   9.8279430   0.9017183
 102.5300012  12.5004997   5.8029988 102.2890012  13.4254997   5.8439988
 101.7890012  12.0414997   6.1989988 102.3968409  12.5651421   5.8621377
 103.0450012  16.6494997  12.1179988 103.4070012  17.5044997  11.8839988
 103.5760012  16.3574997  12.8579988 103.1664473  16.7271060  12.1860855
 101.2130012  17.5224997   5.3479988 100.2630012  17.6274997   5.3989988
 101.5650012  18.3424997   5.6929988 101.1304203  17.6478314   5.4016650
 106.5890012  12.7484997  11.8179988 106.1630012  12.5214997  12.6449988
 107.1690012  12.0104997  11.6359988 106.6091868  12.6175299  11.9065830
 108.7920012  13.6774997   0.8919988 109.1450012  13.2974997   1.6969988
 107.8430012  13.5844997   0.9789988 108.7120441  13.6129596   1.0138559
 109.2470012  17.3004997  14.2879988 108.6460012  16.7454997  13.7919988
 109.5290012  17.9674997  13.6619988 109.2028519  17.3146841  14.1354952
 113.2950012  18.1574997   1.0929988 114.0390012  18.7434997   0.9529988
 112.6010012  18.7254997   1.4269988 113.3030292  18.3145582   1.1189961
  97.3700012   4.5334997  13.6949988  96.4770012   4.8724997  13.6269988
  97.2710012   3.6784997  14.1129988  97.2344164   4.4642588  13.7422235
 109.6580012  12.3504997   3.1189988 109.3800012  11.6224997   3.6749988
 110.5850012  12.4694997   3.3239988 109.7453124  12.2668802   3.2228845
  97.0210012  16.3384997  12.1299988  97.2380012  15.4064997  12.0989988
  97.2670012  16.6124997  13.0129988  97.0839549  16.2480636  12.2451763
 102.8830012  14.7894997  -0.6610012 103.1220012  14.0414997  -1.2080012
 102.6140012  14.4014997   0.1719988 102.8793675  14.6346638  -0.6233135
 101.8200012  14.3594997   1.7959988 101.9660012  13.8394997   2.5859988
 101.8170012  15.2664997   2.1019988 101.8395989  14.4108853   1.9456088
  98.2730012  11.6124997   2.3059988  97.5870012  11.9644997   2.8729988
  98.7950012  12.3754997   2.0589988  98.2496852  11.7638578   2.3502118
 106.1040012   4.2744997  12.5849988 106.8030012   4.3484997  13.2349988
 105.7230012   3.4104997  12.7389988 106.1481767   4.1677624  12.6948322
 106.8890012   3.9264997   3.6819988 107.1090012   4.3984997   2.8789988
 107.4470012   4.3214997   4.3519988 106.9944968   4.0444285   3.6627331
 104.5570012  16.0574997   2.5449988 103.7410012  16.5544997   2.5969988
 105.0870012  16.5324997   1.9049988 104.5169161  16.1897722   2.4655956
 104.0890012   5.6544997   4.5169988 104.9010012   6.1594997   4.5629988
 103.8440012   5.5094997   5.4309988 104.1670520   5.7040375   4.6468517
 104.6240012   6.6404997  13.7019988 104.7430012   7.2144997  14.4589988
 105.2800012   5.9524997  13.8159988 104.7289757   6.6261079  13.8210825
 104.9720012   2.7354997   5.4549988 104.6260012   3.3534997   6.0999988
 105.6310012   3.2364997   4.9739988 105.0137826   2.8875802   5.4780971
 101.8960012  17.1014997   2.5269988 102.0560012  17.9004997   2.0259988
 101.6980012  17.4074997   3.4119988 101.8911649  17.2524469   2.5779815
 100.6300012   3.7984997   2.1419988 100.5470012   4.6874997   2.4889988
 101.5200012   3.5334997   2.3739988 100.7389469   3.8841430   2.2207626
 110.8290012   4.5474997  14.5369988 109.9120012   4.8104997  14.4489988
 111.1640012   4.5444997  13.6399988 110.7489900   4.5830224  14.4037919
 109.4310012   8.2984997   8.6319988 108.6330012   7.8834997   8.3039988
 109.8760012   7.6074997   9.1229988 109.3819885   8.1483543   8.6534889
  98.8890012  14.2264997   1.2029988  99.4810012  14.9254997   1.4789988
  99.3480012  13.7934997   0.4829988  99.0321142  14.2637049   1.1434830
  97.2050012   6.8904997   0.3189988  97.1600012   7.8294997   0.4969988
  96.3170012   6.6544997   0.0489988  97.0788574   6.9871892   0.3068912
 110.5170012  17.5544997  10.2549988 110.3620012  18.2324997   9.5979988
 111.4500012  17.6264997  10.4579988 110.6218500  17.6570170  10.1925119
  98.0130012   1.6724997   8.9919988  97.7840012   1.7314997   8.0639988
  97.5700012   0.8804997   9.2979988  97.9218530   1.5735753   8.9064786
  96.9430012  15.6124997   5.1519988  96.1110012  16.0854997   5.1799988
  97.4890012  16.1224997   4.5539988  96.9029739  15.7461871   5.0749716
  96.2310012  18.2254997  16.4819988  96.7720012  18.0084997  17.2419988
  95.7500012  17.4194997  16.2929988  96.2399345  18.0869514  16.5603076
 100.8290012  17.1444997  18.1029988 101.5960012  16.6854997  18.4439988
 100.8070012  16.9184997  17.1729988 100.9311434  17.0510409  18.0240043
 104.9210012  16.6524997  -0.5220012 104.2770012  16.0214997  -0.2010012
 105.6830012  16.1214997  -0.7540012 104.9358077  16.4942920  -0.5093989
 107.4060012  15.5244997  16.8319988 107.0550012  14.6684997  17.0749988
 108.1320012  15.6674997  17.4389988 107.4560769  15.4265636  16.9473619
 109.5250012  16.4694997  -0.2880012 109.8080012  15.6754997   0.1639988
 110.2650012  16.7024997  -0.8490012 109.6637486  16.3922803  -0.3019302
  96.1380012  12.0354997  17.4369988  96.2820012  11.1334997  17.1499988
  95.3660012  12.3214997  16.9489988  96.0533322  11.9508261  17.3317881
 100.4800012  12.3794997  -0.4310012 100.5440012  11.5854997   0.0999988
 101.1330012  12.2604997  -1.1210012 100.5770241  12.2547148  -0.4515683
 102.7940012  12.0054997  16.8689988 102.4650012  12.2764997  16.0119988
 102.9460012  11.0644997  16.7819988 102.7694809  11.9153862  16.7398244
 105.8320012  13.4264997  -0.6950012 105.5630012  13.6064997   0.2059988
 105.6260012  12.5004997  -0.8260012 105.7673825  13.3260152  -0.5894786
 108.5280012  11.9214997  14.2529988 109.2740012  12.5094997  14.1329988
 107.7710012  12.5034997  14.3159988 108.5277554  12.0807011  14.2450907
  96.9710012   9.2354997  16.8569988  97.3790012   8.3784997  16.7359988
  96.7110012   9.2504997  17.7779988  96.9917568   9.1200807  16.9649588
 101.6290012  10.3514997   1.8749988 101.1690012   9.8674997   2.5609988
 101.8840012   9.6834997   1.2389988 101.6004902  10.1948731   1.8829334
 100.9180012   8.2444997  14.2309988 100.3000012   8.9194997  14.5109988
 101.2620012   8.5654997  13.3979988 100.8799615   8.3802721  14.1566581
 102.7000012   8.5944997   0.1369988 102.5200012   8.4404997  -0.7900012
 103.6500012   8.7024997   0.1819988 102.8037776   8.5880175   0.0161843
 105.9380012  10.7164997  17.5079988 106.8910012  10.7994997  17.4809988
 105.7770012  10.0044997  18.1279988 106.0466426  10.6316746  17.5880579
 112.0900012  10.9494997  -0.4170012 111.8160012  10.5244997  -1.2300012
 112.1290012  11.8804997  -0.6340012 112.0577699  11.0172484  -0.5576390
 101.2570012   5.5994997  15.3129988 101.4070012   4.8704997  14.7109988
 101.2600012   6.3764997  14.7539988 101.2779302   5.6047851  15.1550692
 101.6700012   3.9694997  12.8059988 102.2060012   4.4204997  12.1539988
 100.8180012   3.8614997  12.3829988 101.6282178   4.0166390  12.6595756
 103.2520012   9.4084997  13.0449988 104.0020012   9.2524997  12.4719988
 102.9130012  10.2604997  12.7699988 103.3088921   9.5022968  12.9293561
 107.6670012   7.2234997  18.0739988 107.8600012   6.2924997  17.9619988
 108.5250012   7.6484997  18.0639988 107.8093020   7.1536389  18.0573361
 108.9840012  10.0124997  16.1509988 108.7030012  10.7214997  15.5739988
 109.9270012   9.9394997  15.9999988 109.0729027  10.0997646  16.0515551
  99.7360012   6.7974997  17.2249988  98.9690012   6.2654997  17.0149988
 100.4150012   6.4874997  16.6249988  99.7227022   6.6827506  17.1151648
 102.4760012   1.4254997  13.2369988 102.3770012   2.3724997  13.1319988
 101.7330012   1.0534997  12.7619988 102.3620564   1.5045902  13.1584560
 103.7400012   5.7474997  16.8009988 103.5040012   5.5274997  17.7029988
 102.9560012   5.5404997  16.2909988 103.6018628   5.6894760  16.8553932
 106.4550012   4.8744997  15.8769988 105.5080012   4.9064997  16.0089988
 106.7680012   4.2494997  16.5299988 106.3675475   4.7943207  15.9834455
 108.0890012   3.5084997  17.8819988 107.9930012   2.5564997  17.8759988
 107.7680012   3.7774997  18.7419988 108.0324070   3.4144035  17.9975441
  97.9160012   4.7184997  16.9289988  98.1280012   4.0114997  16.3189988
  97.8050012   4.2804997  17.7729988  97.9299721   4.5627084  16.9596843
 102.6970012   0.7194997  15.9089988 103.4090012   0.0794997  15.8949988
 102.5960012   0.9864997  14.9949988 102.7807939   0.6679938  15.7835650
 103.0510012   2.4024997  17.9619988 102.9190012   1.9264997  17.1419988
 102.4520012   3.1464997  17.9069988 102.9519071   2.4379618  17.8422886
 102.5970012  19.2854997   1.1389988 103.5300012  19.4434997   1.2819988
 102.3330012  19.9604997   0.5139988 102.6889510  19.3983611   1.0740741
  96.1660012  13.9214997   0.6209988  97.0800012  14.0004997   0.8949988
  96.1730012  13.2344997  -0.0450012  96.2921131  13.8393961   0.5684393
  94.8150012  19.3144997   5.6989988  94.1680012  18.8524997   5.1659988
  95.1690012  18.6424997   6.2809988  94.7743849  19.1604723   5.7047959
  95.6850012  17.3954997   7.5029988  95.3500012  16.5154997   7.6749988
  95.9070012  17.7404997   8.3679988  95.6691783  17.3217500   7.6434208
 113.2330012  18.2044997  10.4839988 113.2120012  18.3894997  11.4229988
 113.9240012  18.7734997  10.1429988 113.3234618  18.3066606  10.5663864
 112.7970012  17.7724997  13.4059988 112.3090012  17.0364997  13.0349988
 113.3460012  17.3784997  14.0839988 112.8044872  17.6186249  13.4469160
 111.2470012  13.5614997  18.0439988 110.3810012  13.4564997  18.4379988
 111.6240012  14.3204997  18.4899988 111.1793308  13.6496900  18.1582393
 112.5480012  11.8184997   3.5579988 113.3980012  12.2394997   3.6849988
 112.5540012  11.0784997   4.1649988 112.6651372  11.7760803   3.6574344
 112.9430012   9.8714997   5.3819988 112.2160012   9.3924997   5.7789988
 113.5240012  10.0774997   6.1139988 112.9219375   9.8337090   5.5354129
 112.7020012  12.6564997  10.3289988 113.5350012  12.2784997  10.0489988
 112.8140012  13.5994997  10.2099988 112.8312647  12.7322218  10.2745487
 111.1880012  15.5344997  12.6359988 110.5410012  15.8594997  13.2619988
 110.6710012  15.0944997  11.9619988 111.0294029  15.5195004  12.6305827
 113.2110012   9.7724997   1.7729988 112.6890012  10.1294997   1.0539988
 113.1780012  10.4474997   2.4509988 113.1351634   9.9125413   1.7663145
 111.5600012   7.0124997   0.3239988 111.6560012   7.6794997  -0.3570012
 111.4200012   6.1964997  -0.1580012 111.5542135   6.9934500   0.1658491
 110.7290012   8.3924997   5.9449988 110.5790012   7.4474997   5.9239988
 110.3760012   8.6734997   6.7879988 110.6606625   8.3010441   6.0562346
  95.7650012  10.4704997   9.9549988  95.9490012  10.3884997   9.0189988
  96.6140012  10.3464997  10.3789988  95.9050139  10.4425003   9.8841455
 111.5860012  10.3624997  15.5829988 112.1690012   9.6284997  15.7749988
 112.1500012  11.1344997  15.6299988 111.7419769  10.3664227  15.6156159
 113.0820012   8.2654997  16.2679988 112.2190012   7.8864997  16.1019988
 113.6870012   7.5264997  16.1939988 113.0455979   8.1138023  16.2352817
 110.8070012   4.4204997  -0.5590012 111.4180012   4.0494997   0.0779988
 109.9710012   3.9994997  -0.3630012 110.7775032   4.3127554  -0.4452965
 110.4400012   5.9754997   4.4069988 110.7200012   5.0684997   4.5309988
 111.1990012   6.4094997   4.0179988 110.5809277   5.9100942   4.3713682
 111.0520012   6.5564997   9.8429988 111.9850012   6.7684997   9.8089988
 110.8170012   6.6584997  10.7649988 111.1478036   6.5992769   9.9629976
 111.0810012   7.2934997  12.6189988 110.2380012   7.5614997  12.9849988
 111.5230012   8.1154997  12.4079988 111.0254158   7.4413291  12.6405491
  95.3620012   5.7414997  16.0959988  96.2820012   5.6194997  16.3319988
  94.9130012   4.9914997  16.4849988  95.4271580   5.6233727  16.1809006
 113.3640012   1.2734997  17.9719988 113.7140012   0.6194997  17.3669988
 113.5110012   2.1104997  17.5329988 113.4318419   1.2971591  17.8297118
 111.0530012   3.2384997   4.4549988 111.2360012   2.7894997   5.2809988
 110.4540012   2.6534997   3.9919988 110.9970202   3.0979975   4.5053275
  96.5830012   4.0534997   8.9869988  97.0290012   3.2614997   9.2889988
  97.0500012   4.7694997   9.4179988  96.7070172   4.0420624   9.0864820
  94.8870012   7.0524997  10.0559988  95.3790012   6.8314997   9.2649988
  95.2500012   7.8934997  10.3369988  95.0033126   7.1358357   9.9857531
 112.8840012   3.3824997  16.3219988 111.9660012   3.6534997  16.2859988
 113.0070012   2.8474997  15.5369988 112.7751066   3.3472892  16.2110487
 112.9200012   3.3054997   0.9829988 113.3320012   2.5844997   0.5079988
 113.6020012   3.9754997   1.0419988 113.0685885   3.2972368   0.9258915
  95.2010012   3.3104997   4.1099988  94.2760012   3.5194997   3.9809988
  95.6550012   3.7944997   3.4209988  95.1357368   3.4045993   3.9991226
 109.9720012  18.2944997   6.0559988 110.6240012  17.9474997   5.4479988
 110.4820012  18.7834997   6.7019988 110.1302637  18.3130597   6.0600236
  95.1650012   2.0484997  12.4549988  94.5000012   1.8024997  13.0979988
  94.7220012   2.6704997  11.8769988  95.0140956   2.0988632  12.4649352
  97.3570012  15.2234997  16.5989988  96.5360012  15.3984997  16.1389988
  97.1040012  15.1504997  17.5199988  97.2106164  15.2375622  16.6604923
 100.3110012  16.1984997  12.8579988  99.8860012  17.0074997  12.5749988
 101.2150012  16.2834997  12.5559988 100.3750271  16.3208469  12.7783776
 104.6220012  17.5974997  15.8169988 104.8070012  17.2634997  16.6949988
 105.4680012  17.9064997  15.4949988 104.7617539  17.5936047  15.8935605
 106.9670012  18.8834997  15.0609988 107.6440012  18.2504997  14.8209988
 107.2890012  19.2844997  15.8679988 107.1031637  18.8511154  15.1372793
 111.8840012   1.4724997  14.1409988 111.0720012   1.7974997  13.7529988
 112.1170012   0.7124997  13.6079988 111.8043423   1.4142436  14.0158253
  97.7130012  19.4544997  12.9049988  96.9920012  19.8944997  12.4539988
  97.3470012  19.2034997  13.7539988  97.5649804  19.4807698  12.9579840
 100.1800012  19.0544997  11.9349988  99.3150012  19.1264997  12.3389988
 100.1250012  19.6014997  11.1509988 100.0542085  19.1382685  11.8843362
 104.8900012  18.9424997  11.1099988 104.4340012  19.4714997  10.4559988
 105.0530012  19.5454997  11.8359988 104.8495585  19.0964468  11.1185062
 107.2180012  17.8204997  12.0549988 106.3130012  17.9854997  11.7899988
 107.6470012  18.6734997  11.9899988 107.1520799  17.9584483  12.0099182
 109.8220012  19.3904997  12.3499988 109.6400012  20.3064997  12.1399988
 109.9990012  18.9804997  11.5039988 109.8210210  19.4604822  12.2067885
  97.1270012  18.0774997   9.8149988  97.1090012  17.6524997  10.6729988
  97.9320012  17.7594997   9.4069988  97.2333875  17.9763812   9.8771655
  99.2690012  16.7874997   8.4699988  99.0500012  15.8714997   8.6399988
 100.0930012  16.9274997   8.9359988  99.3504420  16.6810520   8.5562774
 101.8060012  17.2574997   9.3189988 102.0190012  16.3694997   9.0319988
 101.8700012  17.2234997  10.2729988 101.8438232  17.1313102   9.4087397
 105.3140012   2.9214997   8.4629988 104.6400012   2.2924997   8.7189988
 105.8780012   2.4374997   7.8599988 105.2979230   2.7698744   8.4165340
 110.4570012   1.0294997   8.5759988 111.0610012   1.5764997   8.0739988
 109.5870012   1.3484997   8.3359988 110.4221241   1.1475806   8.4747654
 112.1840012   2.1674997   6.9089988 112.7960012   1.6534997   6.3829988
 112.5660012   3.0454997   6.9329988 112.3194540   2.2157140   6.8401830
  97.6410012   1.5554997   6.2849988  96.8640012   1.3214997   5.7779988
  98.1710012   0.7584997   6.2939988  97.6062330   1.4156988   6.2167742
  96.4770012   1.3534997   2.0889988  96.9160012   1.9644997   1.4969988
  95.8440012   1.8914997   2.5629988  96.4514514   1.5099257   2.0720930
 102.2200012   1.4824997   6.0989988 103.0950012   1.8704997   6.0689988
 102.0840012   1.2674997   7.0209988 102.3213695   1.5065184   6.2196440
 107.7770012   1.5124997   7.7479988 107.8530012   1.6074997   6.7979988
 107.5020012   0.6044997   7.8769988 107.7502321   1.4027867   7.6355079
 109.1300012   1.5384997   3.4399988 108.4280012   2.1534997   3.2309988
 108.6860012   0.7004997   3.5709988 108.9736330   1.5095783   3.4290328
  96.3780012  17.3014997   2.9869988  95.6930012  17.2634997   2.3189988
  96.3820012  18.2144997   3.2749988  96.2848193  17.4197016   2.9345284
  98.3380012   3.2694997   0.5309988  98.8300012   2.6394997   0.0039988
  98.9620012   3.5654997   1.1949988  98.4895446   3.2233199   0.5485980
 103.3640012   3.5624997   2.9879988 103.5420012   2.9164997   3.6709988
 103.3110012   4.3964997   3.4559988 103.3811829   3.5867985   3.1445940
 105.2430012  18.5114997   1.3839988 106.1090012  18.8774997   1.2059988
 104.9960012  18.0714997   0.5699988 105.3282392  18.5021756   1.2496289
 111.9520012  18.0744997   4.0629988 111.7570012  17.3264997   3.4979988
 111.9130012  18.8324997   3.4799988 111.9200380  18.0746099   3.9068384
  97.5990012   2.0694997  15.8029988  97.2330012   1.3044997  16.2459988
  98.5120012   2.0984997  16.0899988  97.6722790   1.9687224  15.9024070
  99.5720012   1.4204997  17.3389988 100.4700012   1.1464997  17.1539988
  99.1850012   0.6774997  17.8029988  99.6426612   1.2825914  17.3763643
  98.1960012  18.2214997   0.0119988  97.9290012  18.5084997   0.8849988
  98.9680012  17.6754997   0.1639988  98.2637488  18.1870294   0.1521050
 107.9930012   0.7524997  17.5209988 108.0700012   0.3264997  18.3749988
 108.8870012   0.7664997  17.1779988 108.1243428   0.6960879  17.5915310
 111.1690012  16.8254997  16.2129988 110.3870012  16.6394997  15.6939988
 111.0970012  17.7544997  16.4309988 111.0521777  16.9256492  16.1714048
 125.5750012  10.7114997   6.2439988 125.6640012  11.6554997   6.1119988
 124.9370012  10.4364997   5.5859988 125.5009081  10.8034830   6.1369614
 124.5080012   9.9664997   9.6629988 124.4700012   9.3204997  10.3679988
 124.1860012   9.5004997   8.8919988 124.4592333   9.8149408   9.6552978
 116.8770012   9.5814997  11.2559988 116.9180012   8.9554997  11.9789988
 117.5800012  10.2054997  11.4379988 116.9776363   9.5801196  11.3796044
 128.2140012  12.9054997   7.9639988 127.7740012  12.1854997   8.4149988
 128.2010012  13.6264997   8.5939988 128.1520226  12.9043731   8.1108494
 117.8000012  14.0314997   9.7909988 117.4310012  13.2294997   9.4209988
 118.7410012  13.8624997   9.8369988 117.8767289  13.8990153   9.7466316
 114.4100012   7.6914997   5.1839988 113.9630012   8.5374997   5.1649988
 113.8490012   7.1114997   4.6679988 114.2729900   7.7289916   5.1116801
 115.1210012   9.8534997   7.3099988 115.3340012   9.0834997   7.8369988
 115.8590012   9.9424997   6.7059988 115.2498496   9.7601394   7.3005300
 125.3260012  18.0104997   8.1769988 125.9460012  17.3334997   7.9029988
 125.1180012  17.7924997   9.0849988 125.3826904  17.8883870   8.2623365
 122.8980012  12.3994997  10.0689988 123.2020012  11.7134997   9.4739988
 123.6190012  12.5174997  10.6869988 123.0370671  12.3216305  10.0711816
 131.5610012   4.0004997  10.9299988 131.6100012   4.6104997  11.6659988
 131.9860012   4.4614997  10.2069988 131.6251824   4.1463741  10.9330205
 126.0390012   6.7934997  10.3969988 126.1810012   5.8474997  10.4169988
 125.9320012   7.0004997   9.4679988 126.0439864   6.6919534  10.2742339
 119.1930012   4.8944997   7.6689988 119.2370012   5.7544997   7.2509988
 118.7360012   4.3424997   7.0349988 119.1372185   4.9375799   7.5260299
 126.9160012   5.0254997   6.0699988 127.5620012   4.6964997   6.6949988
 127.4260012   5.5434997   5.4469988 127.0734264   5.0504611   6.0713862
 115.8140012   7.2914997   8.4309988 116.4670012   6.7414997   8.8629988
 115.8380012   7.0174997   7.5139988 115.9066683   7.1791466   8.3662123
 120.9700012   8.8414997   7.6459988 121.5860012   8.3154997   8.1559988
 120.3840012   8.2014997   7.2429988 120.9750810   8.6829208   7.6613173
 131.9520012   5.4784997  13.1659988 131.2640012   6.1364997  13.0699988
 131.9680012   5.2814997  14.1019988 131.8598525   5.5420462  13.2794808
 118.0040012   3.8124997  11.7429988 117.7850012   4.3424997  10.9769988
 117.3360012   4.0394997  12.3899988 117.8837600   3.9156906  11.7256379
 125.3730012  13.3124997   5.2869988 125.0770012  12.9904997   4.4359988
 125.0480012  14.2124997   5.3279988 125.2886371  13.3900215   5.1761801
 120.5730012  11.4884997  12.0299988 119.8330012  12.0864997  12.1339988
 121.2870012  12.0424997  11.7149988 120.5682237  11.6452831  12.0016465
 128.6800012   4.3164997   8.0499988 128.4640012   3.5504997   8.5829988
 129.3350012   4.7884997   8.5629988 128.7390632   4.2755889   8.1922861
 117.5970012   5.7044997   9.6949988 118.2110012   6.3374997  10.0689988
 118.1090012   5.2324997   9.0389988 117.7502296   5.7272370   9.6574252
 118.9800012  13.4524997  12.8179988 118.9750012  14.3324997  12.4399988
 118.1270012  13.3694997  13.2429988 118.8639464  13.5616117  12.8237907
 115.1010012  13.1234997   3.5999988 114.8290012  13.3524997   2.7109988
 115.1470012  13.9614997   4.0599988 115.0700094  13.2681213   3.5405697
 128.7260012  14.7454997  10.3119988 127.7850012  14.8034997  10.4739988
 129.0030012  15.6514997  10.1749988 128.6344679  14.8759443  10.3156815
 129.0270012   3.0314997  11.7299988 128.2910012   3.6424997  11.6919988
 129.7100012   3.4464997  11.2029988 129.0186541   3.1711374  11.6535832
 122.0300012   1.1184997   9.1959988 121.9130012   0.1694997   9.1409988
 121.1750012   1.4504997   9.4689988 121.8983733   1.0335409   9.2253897
 126.9780012  16.5264997   6.9379988 127.4040012  15.8194997   6.4529988
 127.2950012  17.3274997   6.5209988 127.0791019  16.5380994   6.8153130
 128.1380012  14.4274997   5.4459988 127.8800012  13.7374997   4.8349988
 128.2090012  13.9844997   6.2919988 128.1122856  14.2732124   5.4766885
 129.8240012  12.9934997  13.9239988 129.9640012  12.4024997  13.1839988
 129.9910012  13.8664997  13.5669988 129.8656778  13.0306426  13.7746965
 124.2970012   9.9554997   3.6959988 123.5850012  10.4904997   3.3439988
 124.9880012  10.0114997   3.0359988 124.2930132  10.0362543   3.5586289
 124.3500012   8.4134997   0.7349988 125.0510012   8.4354997   1.3859988
 124.6530012   7.7854997   0.0789988 124.4867830   8.3316566   0.7353711
 131.6660012   9.3334997  11.9899988 131.0130012  10.0284997  12.0789988
 132.1310012   9.5434997  11.1799988 131.6395390   9.4569425  11.8926883
 127.7020012  10.1654997   4.6479988 126.9700012  10.3934997   5.2209988
 128.1500012   9.4514997   5.1029988 127.6623095  10.1002571   4.7879119
 127.6000012   8.3394997  13.7149988 127.6800012   9.1024997  14.2869988
 126.9980012   8.6184997  13.0249988 127.5295756   8.4817134  13.7000589
 119.3480012  10.7954997   6.5299988 119.0170012  10.4254997   5.7119988
 119.9360012  10.1254997   6.8769988 119.3821873  10.6541156   6.4648102
 120.7140012  14.2234997   9.2119988 120.6200012  13.6454997   8.4549988
 121.4440012  13.8524997   9.7079988 120.7997981  14.0942390   9.1754165
 119.7140012   9.5644997  10.1639988 120.2800012   9.6854997   9.4009988
 120.0330012  10.2014997  10.8029988 119.8345786   9.6671884  10.1460040
 126.0230012  15.0674997  10.8979988 125.7830012  15.7294997  11.5459988
 125.8250012  14.2334997  11.3229988 125.9633808  15.0453134  11.0441524
 120.5940012  13.9634997  14.8809988 120.2830012  14.7454997  15.3359988
 119.9440012  13.8104997  14.1949988 120.4635558  14.0499105  14.8505871
 126.5730012   9.3274997   2.3329988 127.1530012   9.4774997   3.0799988
 126.9870012   9.7984997   1.6099988 126.7082830   9.4116841   2.3374134
 117.5140012  10.1614997  14.1099988 117.5850012  10.8124997  14.8079988
 116.6240012  10.2644997  13.7749988 117.4033117  10.2645936  14.1602700
 124.3000012  16.0644997   5.7679988 124.7740012  16.3594997   6.5459988
 123.7370012  16.8024997   5.5349988 124.2887653  16.2046932   5.8430136
 118.8340012  16.0354997  15.6439988 118.8410012  15.8994997  14.6969988
 117.9180012  15.9174997  15.8959988 118.7111714  16.0009430  15.5484666
 130.2720012   1.0774997   2.1459988 129.3720012   1.2164997   2.4409988
 130.5240012   1.9084997   1.7439988 130.1828702   1.2089074   2.1320205
 118.3380012   9.8654997   4.1199988 118.0460012  10.6334997   3.6289988
 117.6640012   9.2054997   3.9569988 118.2069081   9.8814406   4.0307340
 131.4610012  15.4434997   0.5219988 131.5350012  16.3824997   0.6929988
 132.3670012  15.1384997   0.4659988 131.5935100  15.5306722   0.5378119
 114.4310012  12.2284997  12.9349988 113.9300012  12.2004997  12.1199988
 114.4360012  11.3224997  13.2439988 114.3631526  12.1022278  12.8652872
 114.1810012  15.0084997   9.8189988 115.1270012  14.8644997   9.7999988
 114.0690012  15.7924997  10.3559988 114.2952727  15.0948046   9.8890072
 132.3790012  15.6744997  15.5009988 132.3300012  14.7194997  15.4639988
 131.5520012  15.9424997  15.9019988 132.2604940  15.5798998  15.5501375
 123.3580012  15.2484997  14.3769988 123.4450012  16.0744997  14.8519988
 122.4940012  14.9184997  14.6259988 123.2531964  15.3169878  14.4756549
 123.7720012  19.0204997   4.1829988 123.6970012  18.8994997   3.2369988
 123.8050012  19.9704997   4.3019988 123.7661848  19.1322500   4.0694834
 117.4250012  17.8094997   5.9639988 117.5780012  17.4614997   6.8429988
 116.5750012  17.4534997   5.7089988 117.3308962  17.7136650   6.0498340
 126.8740012  18.1744997   1.1849988 127.2490012  17.4304997   0.7149988
 126.8780012  17.9044997   2.1039988 126.9258915  18.0361486   1.2447824
 126.5430012  18.1004997   3.9349988 125.6070012  18.2004997   4.1129988
 126.8230012  17.3914997   4.5129988 126.4528255  18.0182711   4.0375391
 129.5310012   7.1674997  15.9809988 129.1240012   7.6484997  15.2599988
 129.5720012   6.2624997  15.6729988 129.4808437   7.1109374  15.8406683
 116.6800012  13.5514997  13.9779988 116.8960012  13.1904997  14.8369988
 115.8250012  13.1774997  13.7679988 116.5939292  13.4514111  14.0673386
 119.2990012   2.0214997   9.9729988 118.4370012   1.9344997   9.5659988
 119.2760012   2.8774997  10.4009988 119.1780330   2.1252765   9.9751863
 123.9620012   1.7434997  13.3479988 124.3820012   1.3284997  14.1009988
 123.0290012   1.5654997  13.4649988 123.8933644   1.6625900  13.4669539
 127.2880012   5.4994997  14.2009988 126.7740012   5.3734997  14.9989988
 127.1330012   6.4114997  13.9569988 127.1966852   5.6056132  14.2772158
 128.0510012  10.3604997  -0.0370012 128.0930012  10.1374997  -0.9670012
 128.9000012  10.7594997   0.1529988 128.1715396  10.3839155  -0.1386373
 123.6230012   4.2364997   0.6329988 123.3700012   4.2554997   1.5559988
 123.3670012   3.3644997   0.3319988 123.5537790   4.1212437   0.7186263
 119.3900012   6.9874997  11.0679988 118.7480012   6.9464997  11.7769988
 119.4270012   7.9134997  10.8309988 119.3071324   7.1071559  11.1329824
 119.3870012   7.2084997   5.9799988 118.4940012   6.8674997   5.9219988
 119.8370012   6.8314997   5.2249988 119.3257305   7.1108484   5.8699177
 124.9220012   7.6244997   4.7969988 124.5130012   8.4394997   4.5059988
 125.6430012   7.4844997   4.1829988 124.9634537   7.7172018   4.6741342
 124.0240012   7.7994997  16.2849988 123.4620012   7.0954997  16.6059988
 124.8510012   7.6794997  16.7529988 124.0587095   7.6867883  16.3922330
 125.9270012   7.0704997   7.6109988 125.7320012   7.6754997   6.8959988
 126.1080012   6.2364997   7.1769988 125.9247614   7.0406300   7.4544405
 117.1400012   7.3074997  12.9349988 117.1020012   7.7074997  13.8039988
 116.6490012   6.4904997  13.0259988 117.0684684   7.2518069  13.0661059
 120.5060012   4.6814997  -0.2660012 120.0750012   4.2364997   0.4639988
 119.7880012   5.0534997  -0.7780012 120.3499438   4.6708940  -0.2353201
 113.7480012   4.4234997   6.7859988 114.3790012   4.3944997   7.5049988
 114.1970012   3.9984997   6.0559988 113.8950774   4.3620492   6.7856553
 115.0220012   5.1694997   2.2099988 115.4960012   5.7604997   1.6249988
 114.3050012   5.7004997   2.5569988 114.9899341   5.3220867   2.1768836
 125.1910012   8.7084997  12.2829988 125.5140012   8.0774997  11.6399988
 124.7510012   8.1734997  12.9429988 125.1756895   8.5498441  12.2842850
 121.9680012   4.6354997   7.0669988 121.0570012   4.6924997   7.3549988
 122.4740012   4.5754997   7.8769988 121.9115413   4.6351985   7.2160622
 116.7970012   6.2644997   5.8929988 115.9070012   6.3644997   5.5529988
 117.0930012   5.4224997   5.5469988 116.7152823   6.1643545   5.7997213
 120.4500012   6.2644997   3.5499988 121.3810012   6.3934997   3.7279988
 120.2350012   6.9344997   2.8999988 120.5484247   6.3726565   3.4865747
 126.3730012   3.8704997  10.3309988 125.6970012   4.0014997  10.9949988
 125.8880012   3.7154997   9.5209988 126.2147145   3.8674905  10.3124517
 119.1240012   7.4594997   1.1169988 118.5810012   7.0794997   0.4249988
 119.9570012   7.6534997   0.6879988 119.1624399   7.4338124   0.9644526
 129.6610012  19.5424997  16.6079988 129.8610012  19.9664997  15.7729988
 130.3160012  19.8854997  17.2149988 129.7770051  19.6469648  16.5757836
 117.2590012  12.0164997  16.2159988 117.9910012  12.2704997  16.7769988
 116.4790012  12.2204997  16.7309988 117.2538232  12.0789177  16.3625760
 123.2880012   7.4234997   8.9539988 123.8530012   6.8764997   8.4069988
 123.1410012   6.9014997   9.7419988 123.3452918   7.2782024   8.9858454
 118.2900012   3.5594997   5.3719988 117.9730012   2.6574997   5.3369988
 119.0720012   3.5614997   4.8189988 118.3522284   3.4361628   5.2924783
 121.9150012   5.8114997  11.3679988 121.0790012   6.2654997  11.4779988
 122.4390012   6.0874997  12.1199988 121.8714414   5.9109376  11.4847136
 122.4590012  12.0244997   3.0519988 121.7140012  11.5174997   2.7299988
 122.3250012  12.0734997   3.9989988 122.3388776  11.9616940   3.1358647
 129.6090012  11.1574997  11.8389988 130.2510012  11.6144997  11.2949988
 128.7790012  11.2704997  11.3759988 129.5845963  11.2352704  11.7020177
 126.3570012   4.8384997   1.2519988 125.4180012   4.9504997   1.0999988
 126.6540012   5.6954997   1.5579988 126.2687666   4.9696443   1.2725768
 123.9780012  12.2084997  14.2889988 123.6330012  11.8274997  15.0959988
 123.7780012  13.1424997  14.3609988 123.9038061  12.2825228  14.4090961
 127.0750012   6.7054997   2.9119988 127.9670012   6.5684997   3.2309988
 127.1320012   7.4964997   2.3759988 127.2046285   6.7936660   2.8831691
 117.5840012  11.3194997   8.8219988 118.3290012  11.3174997   8.2209988
 117.6620012  10.4964997   9.3039988 117.6965518  11.2079315   8.8048929
 124.5850012  13.4834997   2.0779988 124.2890012  14.3094997   2.4589988
 123.8820012  12.8634997   2.2739988 124.4494914  13.5128199   2.1566443
 114.5920012   9.7804997  14.1369988 114.8150012   9.3624997  14.9689988
 113.9900012   9.1674997  13.7139988 114.5411759   9.6404668  14.1937022
 121.6080012   9.2974997  16.3499988 121.3120012   9.1314997  15.4549988
 122.5400012   9.0774997  16.3389988 121.6934166   9.2450640  16.2260536
 126.2290012  14.6704997  14.2399988 125.3280012  14.8534997  13.9719988
 126.2630012  14.9294997  15.1609988 126.1103041  14.7305512  14.3278197
 131.9600012   6.9154997   2.6069988 131.4060012   6.5194997   1.9349988
 132.0600012   7.8254997   2.3289988 131.8977059   6.9843586   2.4774401
 131.9230012  12.7154997  15.4439988 131.0720012  12.9534997  15.0769988
 132.5140012  12.6984997  14.6909988 131.8862487  12.7458258  15.2918893
 130.2550012  15.7014997   3.0719988 129.8820012  14.8754997   3.3809988
 130.5330012  15.5184997   2.1749988 130.2415630  15.5637303   2.9929626
 127.4160012  10.5094997  10.0929988 126.4870012  10.2774997  10.0659988
 127.8670012   9.7324997   9.7629988 127.3499216  10.3727238  10.0446917
 119.9590012  14.8374997   6.2259988 120.4860012  15.6104997   6.0259988
 119.0790012  15.0624997   5.9249988 119.9121773  14.9738005   6.1579010
 115.7140012   9.6994997   0.8129988 116.3300012  10.3264997   1.1929988
 114.8520012  10.0154997   1.0849988 115.6817698   9.8279430   0.9017183
 121.3860012  12.5004997   5.8029988 121.1450012  13.4254997   5.8439988
 120.6450012  12.0414997   6.1989988 121.2528409  12.5651421   5.8621377
 121.9010012  16.6494997  12.1179988 122.2630012  17.5044997  11.8839988
 122.4320012  16.3574997  12.8579988 122.0224473  16.7271060  12.1860855
 120.0690012  17.5224997   5.3479988 119.1190012  17.6274997   5.3989988
 120.4210012  18.3424997   5.6929988 119.9864203  17.6478314   5.4016650
 125.4450012  12.7484997  11.8179988 125.0190012  12.5214997  12.6449988
 126.0250012  12.0104997  11.6359988 125.4651868  12.6175299  11.9065830
 127.6480012  13.6774997   0.8919988 128.0010012  13.2974997   1.6969988
 126.6990012  13.5844997   0.9789988 127.5680441  13.6129596   1.0138559
 128.1030012  17.3004997  14.2879988 127.5020012  16.7454997  13.7919988
 128.3850012  17.9674997  13.6619988 128.0588519  17.3146841  14.1354952
 132.1510012  18.1574997   1.0929988 132.8950012  18.7434997   0.9529988
 131.4570012  18.7254997   1.4269988 132.1590292  18.3145582   1.1189961
 116.2260012   4.5334997  13.6949988 115.3330012   4.8724997  13.6269988
 116.1270012   3.6784997  14.1129988 116.0904164   4.4642588  13.7422235
 128.5140012  12.3504997   3.1189988 128.2360012  11.6224997   3.6749988
 129.4410012  12.4694997   3.3239988 128.6013124  12.2668802   3.2228845
 115.8770012  16.3384997  12.1299988 116.0940012  15.4064997  12.0989988
 116.1230012  16.6124997  13.0129988 115.9399549  16.2480636  12.2451763
 121.7390012  14.7894997  -0.6610012 121.9780012  14.0414997  -1.2080012
 121.4700012  14.4014997   0.1719988 121.7353675  14.6346638  -0.6233135
 120.6760012  14.3594997   1.7959988 120.8220012  13.8394997   2.5859988
 120.6730012  15.2664997   2.1019988 120.6955989  14.4108853   1.9456088
 117.1290012  11.6124997   2.3059988 116.4430012  11.9644997   2.8729988
 117.6510012  12.3754997   2.0589988 117.1056852  11.7638578   2.3502118
 124.9600012   4.2744997  12.5849988 125.6590012   4.3484997  13.2349988
 124.5790012   3.4104997  12.7389988 125.0041767   4.1677624  12.6948322
 125.7450012   3.9264997   3.6819988 125.9650012   4.3984997   2.8789988
 126.3030012   4.3214997   4.3519988 125.8504968   4.0444285   3.6627331
 123.4130012  16.0574997   2.5449988 122.5970012  16.5544997   2.5969988
 123.9430012  16.5324997   1.9049988 123.3729161  16.1897722   2.4655956
 122.9450012   5.6544997   4.5169988 123.7570012   6.1594997   4.5629988
 122.7000012   5.5094997   5.4309988 123.0230520   5.7040375   4.6468517
 123.4800012   6.6404997  13.7019988 123.5990012   7.2144997  14.4589988
 124.1360012   5.9524997  13.8159988 123.5849757   6.6261079  13.8210825
 123.8280012   2.7354997   5.4549988 123.4820012   3.3534997   6.0999988
 124.4870012   3.2364997   4.9739988 123.8697826   2.8875802   5.4780971
 120.7520012  17.1014997   2.5269988 120.9120012  17.9004997   2.0259988
 120.5540012  17.4074997   3.4119988 120.7471649  17.2524469   2.5779815
 119.4860012   3.7984997   2.1419988 119.4030012   4.6874997   2.4889988
 120.3760012   3.5334997   2.3739988 119.5949469   3.8841430   2.2207626
 129.6850012   4.5474997  14.5369988 128.7680012   4.8104997  14.4489988
 130.0200012   4.5444997  13.6399988 129.6049900   4.5830224  14.4037919
 128.2870012   8.2984997   8.6319988 127.4890012   7.8834997   8.3039988
 128.7320012   7.6074997   9.1229988 128.2379885   8.1483543   8.6534889
 117.7450012  14.2264997   1.2029988 118.3370012  14.9254997   1.4789988
 118.2040012  13.7934997   0.4829988 117.8881142  14.2637049   1.1434830
 116.0610012   6.8904997   0.3189988 116.0160012   7.8294997   0.4969988
 115.1730012   6.6544997   0.0489988 115.9348574   6.9871892   0.3068912
 129.3730012  17.5544997  10.2549988 129.2180012  18.2324997   9.5979988
 130.3060012  17.6264997  10.4579988 129.4778500  17.6570170  10.1925119
 116.8690012   1.6724997   8.9919988 116.6400012   1.7314997   8.0639988
 116.4260012   0.8804997   9.2979988 116.7778530   1.5735753   8.9064786
 115.7990012  15.6124997   5.1519988 114.9670012  16.0854997   5.1799988
 116.3450012  16.1224997   4.5539988 115.7589739  15.7461871   5.0749716
 115.0870012  18.2254997  16.4819988 115.6280012  18.0084997  17.2419988
 114.6060012  17.4194997  16.2929988 115.0959345  18.0869514  16.5603076
 119.6850012  17.1444997  18.1029988 120.4520012  16.6854997  18.4439988
 119.6630012  16.9184997  17.1729988 119.7871434  17.0510409  18.0240043
 123.7770012  16.6524997  -0.5220012 123.1330012  16.0214997  -0.2010012
 124.5390012  16.1214997  -0.7540012 123.7918077  16.4942920  -0.5093989
 126.2620012  15.5244997  16.8319988 125.9110012  14.6684997  17.0749988
 126.9880012  15.6674997  17.4389988 126.3120769  15.4265636  16.9473619
 128.3810012  16.4694997  -0.2880012 128.6640012  15.6754997   0.1639988
 129.1210012  16.7024997  -0.8490012 128.5197486  16.3922803  -0.3019302
 114.9940012  12.0354997  17.4369988 115.1380012  11.1334997  17.1499988
 114.2220012  12.3214997  16.9489988 114.9093323  11.9508261  17.3317881
 119.3360012  12.3794997  -0.4310012 119.4000012  11.5854997   0.0999988
 119.9890012  12.2604997  -1.1210012 119.4330241  12.2547148  -0.4515683
 121.6500012  12.0054997  16.8689988 121.3210012  12.2764997  16.0119988
 121.8020012  11.0644997  16.7819988 121.6254809  11.9153862  16.7398244
 124.6880012  13.4264997  -0.6950012 124.4190012  13.6064997   0.2059988
 124.4820012  12.5004997  -0.8260012 124.6233825  13.3260152  -0.5894786
 127.3840012  11.9214997  14.2529988 128.1300012  12.5094997  14.1329988
 126.6270012  12.5034997  14.3159988 127.3837554  12.0807011  14.2450907
 115.8270012   9.2354997  16.8569988 116.2350012   8.3784997  16.7359988
 115.5670012   9.2504997  17.7779988 115.8477568   9.1200807  16.9649588
 120.4850012  10.3514997   1.8749988 120.0250012   9.8674997   2.5609988
 120.7400012   9.6834997   1.2389988 120.4564902  10.1948731   1.8829334
 119.7740012   8.2444997  14.2309988 119.1560012   8.9194997  14.5109988
 120.1180012   8.5654997  13.3979988 119.7359615   8.3802721  14.1566581
 121.5560012   8.5944997   0.1369988 121.3760012   8.4404997  -0.7900012
 122.5060012   8.7024997   0.1819988 121.6597776   8.5880175   0.0161843
 124.7940012  10.7164997  17.5079988 125.7470012  10.7994997  17.4809988
 124.6330012  10.0044997  18.1279988 124.9026426  10.6316746  17.5880579
 130.9460012  10.9494997  -0.4170012 130.6720012  10.5244997  -1.2300012
 130.9850012  11.8804997  -0.6340012 130.9137699  11.0172484  -0.5576390
 120.1130012   5.5994997  15.3129988 120.2630012   4.8704997  14.7109988
 120.1160012   6.3764997  14.7539988 120.1339302   5.6047851  15.1550692
 120.5260012   3.9694997  12.8059988 121.0620012   4.4204997  12.1539988
 119.6740012   3.8614997  12.3829988 120.4842178   4.0166390  12.6595756
 122.1080012   9.4084997  13.0449988 122.8580012   9.2524997  12.4719988
 121.7690012  10.2604997  12.7699988 122.1648921   9.5022968  12.9293561
 126.5230012   7.2234997  18.0739988 126.7160012   6.2924997  17.9619988
 127.3810012   7.6484997  18.0639988 126.6653020   7.1536389  18.0573361
 127.8400012  10.0124997  16.1509988 127.5590012  10.7214997  15.5739988
 128.7830012   9.9394997  15.9999988 127.9289027  10.0997646  16.0515551
 118.5920012   6.7974997  17.2249988 117.8250012   6.2654997  17.0149988
 119.2710012   6.4874997  16.6249988 118.5787022   6.6827506  17.1151648
 121.3320012   1.4254997  13.2369988 121.2330012   2.3724997  13.1319988
 120.5890012   1.0534997  12.7619988 121.2180564   1.5045902  13.1584560
 122.5960012   5.7474997  16.8009988 122.3600012   5.5274997  17.7029988
 121.8120012   5.5404997  16.2909988 122.4578628   5.6894760  16.8553932
 125.3110012   4.8744997  15.8769988 124.3640012   4.9064997  16.0089988
 125.6240012   4.2494997  16.5299988 125.2235475   4.7943207  15.9834455
 126.9450012   3.5084997  17.8819988 126.8490012   2.5564997  17.8759988
 126.6240012   3.7774997  18.7419988 126.8884070   3.4144035  17.9975441
 116.7720012   4.7184997  16.9289988 116.9840012   4.0114997  16.3189988
 116.6610012   4.2804997  17.7729988 116.7859721   4.5627084  16.9596843
 121.5530012   0.7194997  15.9089988 122.2650012   0.0794997  15.8949988
 121.4520012   0.9864997  14.9949988 121.6367939   0.6679938  15.7835650
 121.9070012   2.4024997  17.9619988 121.7750012   1.9264997  17.1419988
 121.3080012   3.1464997  17.9069988 121.8079071   2.4379618  17.8422886
 121.4530012  19.2854997   1.1389988 122.3860012  19.4434997   1.2819988
 121.1890012  19.9604997   0.5139988 121.5449510  19.3983611   1.0740741
 115.0220012  13.9214997   0.6209988 115.9360012  14.0004997   0.8949988
 115.0290012  13.2344997  -0.0450012 115.1481131  13.8393961   0.5684393
 113.6710012  19.3144997   5.6989988 113.0240012  18.8524997   5.1659988
 114.0250012  18.6424997   6.2809988 113.6303849  19.1604723   5.7047959
 114.5410012  17.3954997   7.5029988 114.2060012  16.5154997   7.6749988
 114.7630012  17.7404997   8.3679988 114.5251783  17.3217500   7.6434208
 132.0890012  18.2044997  10.4839988 132.0680012  18.3894997  11.4229988
 132.7800012  18.7734997  10.1429988 132.1794618  18.3066606  10.5663864
 131.6530012  17.7724997  13.4059988 131.1650012  17.0364997  13.0349988
 132.2020012  17.3784997  14.0839988 131.6604872  17.6186249  13.4469160
 130.1030012  13.5614997  18.0439988 129.2370012  13.4564997  18.4379988
 130.4800012  14.3204997  18.4899988 130.0353308  13.6496900  18.1582393
 131.4040012  11.8184997   3.5579988 132.2540012  12.2394997   3.6849988
 131.4100012  11.0784997   4.1649988 131.5211372  11.7760803   3.6574344
 131.7990012   9.8714997   5.3819988 131.0720012   9.3924997   5.7789988
 132.3800012  10.0774997   6.1139988 131.7779375   9.8337090   5.5354129
 131.5580012  12.6564997  10.3289988 132.3910012  12.2784997  10.0489988
 131.6700012  13.5994997  10.2099988 131.6872647  12.7322218  10.2745487
 130.0440012  15.5344997  12.6359988 129.3970012  15.8594997  13.2619988
 129.5270012  15.0944997  11.9619988 129.8854029  15.5195004  12.6305827
 132.0670012   9.7724997   1.7729988 131.5450012  10.1294997   1.0539988
 132.0340012  10.4474997   2.4509988 131.9911634   9.9125413   1.7663145
 130.4160012   7.0124997   0.3239988 130.5120012   7.6794997  -0.3570012
 130.2760012   6.1964997  -0.1580012 130.4102135   6.9934500   0.1658491
 129.5850012   8.3924997   5.9449988 129.4350012   7.4474997   5.9239988
 129.2320012   8.6734997   6.7879988 129.5166625   8.3010441   6.0562346
 114.6210012  10.4704997   9.9549988 114.8050012  10.3884997   9.0189988
 115.4700012  10.3464997  10.3789988 114.7610139  10.4425003   9.8841455
 130.4420012  10.3624997  15.5829988 131.0250012   9.6284997  15.7749988
 131.0060012  11.1344997  15.6299988 130.5979769  10.3664227  15.6156159
 131.9380012   8.2654997  16.2679988 131.0750012   7.8864997  16.1019988
 132.5430012   7.5264997  16.1939988 131.9015979   8.1138023  16.2352817
 129.6630012   4.4204997  -0.5590012 130.2740012   4.0494997   0.0779988
 128.8270012   3.9994997  -0.3630012 129.6335032   4.3127554  -0.4452965
 129.2960012   5.9754997   4.4069988 129.5760012   5.0684997   4.5309988
 130.0550012   6.4094997   4.0179988 129.4369277   5.9100942   4.3713682
 129.9080012   6.5564997   9.8429988 130.8410012   6.7684997   9.8089988
 129.6730012   6.6584997  10.7649988 130.0038036   6.5992769   9.9629976
 129.9370012   7.2934997  12.6189988 129.0940012   7.5614997  12.9849988
 130.3790012   8.1154997  12.4079988 129.8814158   7.4413291  12.6405491
 114.2180012   5.7414997  16.0959988 115.1380012   5.6194997  16.3319988
 113.7690012   4.9914997  16.4849988 114.2831580   5.6233727  16.1809006
 132.2200012   1.2734997  17.9719988 132.5700012   0.6194997  17.3669988
 132.3670012   2.1104997  17.5329988 132.2878419   1.2971591  17.8297118
 129.9090012   3.2384997   4.4549988 130.0920012   2.7894997   5.2809988
 129.3100012   2.6534997   3.9919988 129.8530202   3.0979975   4.5053275
 115.4390012   4.0534997   8.9869988 115.8850012   3.2614997   9.2889988
 115.9060012   4.7694997   9.4179988 115.5630172   4.0420624   9.0864820
 113.7430012   7.0524997  10.0559988 114.2350012   6.8314997   9.2649988
 114.1060012   7.8934997  10.3369988 113.8593126   7.1358357   9.9857531
 131.7400012   3.3824997  16.3219988 130.8220012   3.6534997  16.2859988
 131.8630012   2.8474997  15.5369988 131.6311066   3.3472892  16.2110487
 131.7760012   3.3054997   0.9829988 132.1880012   2.5844997   0.5079988
 132.4580012   3.9754997   1.0419988 131.9245885   3.2972368   0.9258915
 114.0570012   3.3104997   4.1099988 113.1320012   3.5194997   3.9809988
 114.5110012   3.7944997   3.4209988 113.9917368   3.4045993   3.9991226
 128.8280012  18.2944997   6.0559988 129.4800012  17.9474997   5.4479988
 129.3380012  18.7834997   6.7019988 128.9862637  18.3130597   6.0600236
 114.0210012   2.0484997  12.4549988 113.3560012   1.8024997  13.0979988
 113.5780012   2.6704997  11.8769988 113.8700956   2.0988632  12.4649352
 116.2130012  15.2234997  16.5989988 115.3920012  15.3984997  16.1389988
 115.9600012  15.1504997  17.5199988 116.0666164  15.2375622  16.6604923
 119.1670012  16.1984997  12.8579988 118.7420012  17.0074997  12.5749988
 120.0710012  16.2834997  12.5559988 119.2310271  16.3208469  12.7783776
 123.4780012  17.5974997  15.8169988 123.6630012  17.2634997  16.6949988
 124.3240012  17.9064997  15.4949988 123.6177539  17.5936047  15.8935605
 125.8230012  18.8834997  15.0609988 126.5000012  18.2504997  14.8209988
 126.1450012  19.2844997  15.8679988 125.9591637  18.8511154  15.1372793
 130.7400012   1.4724997  14.1409988 129.9280012   1.7974997  13.7529988
 130.9730012   0.7124997  13.6079988 130.6603423   1.4142436  14.0158253
 116.5690012  19.4544997  12.9049988 115.8480012  19.8944997  12.4539988
 116.2030012  19.2034997  13.7539988 116.4209804  19.4807698  12.9579840
 119.0360012  19.0544997  11.9349988 118.1710012  19.1264997  12.3389988
 118.9810012  19.6014997  11.1509988 118.9102085  19.1382685  11.8843362
 123.7460012  18.9424997  11.1099988 123.2900012  19.4714997  10.4559988
 123.9090012  19.5454997  11.8359988 123.7055585  19.0964468  11.1185062
 126.0740012  17.8204997  12.0549988 125.1690012  17.9854997  11.7899988
 126.5030012  18.6734997  11.9899988 126.0080799  17.9584483  12.0099182
 128.6780012  19.3904997  12.3499988 128.4960012  20.3064997  12.1399988
 128.8550012  18.9804997  11.5039988 128.6770210  19.4604822  12.2067885
 115.9830012  18.0774997   9.8149988 115.9650012  17.6524997  10.6729988
 116.7880012  17.7594997   9.4069988 116.0893875  17.9763812   9.8771655
 118.1250012  16.7874997   8.4699988 117.9060012  15.8714997   8.6399988
 118.9490012  16.9274997   8.9359988 118.2064420  16.6810520   8.5562774
 120.6620012  17.2574997   9.3189988 120.8750012  16.3694997   9.0319988
 120.7260012  17.2234997  10.2729988 120.6998232  17.1313102   9.4087397
 124.1700012   2.9214997   8.4629988 123.4960012   2.2924997   8.7189988
 124.7340012   2.4374997   7.8599988 124.1539230   2.7698744   8.4165340
 129.3130012   1.0294997   8.5759988 129.9170012   1.5764997   8.0739988
 128.4430012   1.3484997   8.3359988 129.2781241   1.1475806   8.4747654
 131.0400012   2.1674997   6.9089988 131.6520012   1.6534997   6.3829988
 131.4220012   3.0454997   6.9329988 131.1754540   2.2157140   6.8401830
 116.4970012   1.5554997   6.2849988 115.7200012   1.3214997   5.7779988
 117.0270012   0.7584997   6.2939988 116.4622330   1.4156988   6.2167742
 115.3330012   1.3534997   2.0889988 115.7720012   1.9644997   1.4969988
 114.7000012   1.8914997   2.5629988 115.3074514   1.5099257   2.0720930
 121.0760012   1.4824997   6.0989988 121.9510012   1.8704997   6.0689988
 120.9400012   1.2674997   7.0209988 121.1773695   1.5065184   6.2196440
 126.6330012   1.5124997   7.7479988 126.7090012   1.6074997   6.7979988
 126.3580012   0.6044997   7.8769988 126.6062321   1.4027867   7.6355079
 127.9860012   1.5384997   3.4399988 127.2840012   2.1534997   3.2309988
 127.5420012   0.7004997   3.5709988 127.8296330   1.5095783   3.4290328
 115.2340012  17.3014997   2.9869988 114.5490012  17.2634997   2.3189988
 115.2380012  18.2144997   3.2749988 115.1408193  17.4197016   2.9345284
 117.1940012   3.2694997   0.5309988 117.6860012   2.6394997   0.0039988
 117.8180012   3.5654997   1.1949988 117.3455446   3.2233199   0.5485980
 122.2200012   3.5624997   2.9879988 122.3980012   2.9164997   3.6709988
 122.1670012   4.3964997   3.4559988 122.2371829   3.5867985   3.1445940
 124.0990012  18.5114997   1.3839988 124.9650012  18.8774997   1.2059988
 123.8520012  18.0714997   0.5699988 124.1842392  18.5021756   1.2496289
 130.8080012  18.0744997   4.0629988 130.6130012  17.3264997   3.4979988
 130.7690012  18.8324997   3.4799988 130.7760380  18.0746099   3.9068384
 116.4550012   2.0694997  15.8029988 116.0890012   1.3044997  16.2459988
 117.3680012   2.0984997  16.0899988 116.5282790   1.9687224  15.9024070
 118.4280012   1.4204997  17.3389988 119.3260012   1.1464997  17.1539988
 118.0410012   0.6774997  17.8029988 118.4986612   1.2825914  17.3763643
 117.0520012  18.2214997   0.0119988 116.7850012  18.5084997   0.8849988
 117.8240012  17.6754997   0.1639988 117.1197488  18.1870294   0.1521050
 126.8490012   0.7524997  17.5209988 126.9260012   0.3264997  18.3749988
 127.7430012   0.7664997  17.1779988 126.9803428   0.6960879  17.5915310
 130.0250012  16.8254997  16.2129988 129.2430012  16.6394997  15.6939988
 129.9530012  17.7544997  16.4309988 129.9081777  16.9256492  16.1714048
 144.4310012  10.7114997   6.2439988 144.5200012  11.6554997   6.1119988
 143.7930012  10.4364997   5.5859988 144.3569081  10.8034830   6.1369614
 143.3640012   9.9664997   9.6629988 143.3260012   9.3204997  10.3679988
 143.0420012   9.5004997   8.8919988 143.3152333   9.8149408   9.6552978
 135.7330012   9.5814997  11.2559988 135.7740012   8.9554997  11.9789988
 136.4360012  10.2054997  11.4379988 135.8336363   9.5801196  11.3796044
 136.6560012  14.0314997   9.7909988 136.2870012  13.2294997   9.4209988
 137.5970012  13.8624997   9.8369988 136.7327289  13.8990153   9.7466316
 133.2660012   7.6914997   5.1839988 132.8190012   8.5374997   5.1649988
 132.7050012   7.1114997   4.6679988 133.1289900   7.7289916   5.1116801
 133.9770012   9.8534997   7.3099988 134.1900012   9.0834997   7.8369988
 134.7150012   9.9424997   6.7059988 134.1058496   9.7601394   7.3005300
 144.1820012  18.0104997   8.1769988 144.8020012  17.3334997   7.9029988
 143.9740012  17.7924997   9.0849988 144.2386904  17.8883870   8.2623365
 141.7540012  12.3994997  10.0689988 142.0580012  11.7134997   9.4739988
 142.4750012  12.5174997  10.6869988 141.8930671  12.3216305  10.0711816
 144.8950012   6.7934997  10.3969988 145.0370012   5.8474997  10.4169988
 144.7880012   7.0004997   9.4679988 144.8999864   6.6919534  10.2742339
 138.0490012   4.8944997   7.6689988 138.0930012   5.7544997   7.2509988
 137.5920012   4.3424997   7.0349988 137.9932185   4.9375799   7.5260299
 134.6700012   7.2914997   8.4309988 135.3230012   6.7414997   8.8629988
 134.6940012   7.0174997   7.5139988 134.7626683   7.1791466   8.3662123
 139.8260012   8.8414997   7.6459988 140.4420012   8.3154997   8.1559988
 139.2400012   8.2014997   7.2429988 139.8310810   8.6829208   7.6613173
 136.8600012   3.8124997  11.7429988 136.6410012   4.3424997  10.9769988
 136.1920012   4.0394997  12.3899988 136.7397600   3.9156906  11.7256379
 144.2290012  13.3124997   5.2869988 143.9330012  12.9904997   4.4359988
 143.9040012  14.2124997   5.3279988 144.1446371  13.3900215   5.1761801
 139.4290012  11.4884997  12.0299988 138.6890012  12.0864997  12.1339988
 140.1430012  12.0424997  11.7149988 139.4242237  11.6452831  12.0016465
 136.4530012   5.7044997   9.6949988 137.0670012   6.3374997  10.0689988
 136.9650012   5.2324997   9.0389988 136.6062296   5.7272370   9.6574252
 137.8360012  13.4524997  12.8179988 137.8310012  14.3324997  12.4399988
 136.9830012  13.3694997  13.2429988 137.7199464  13.5616117  12.8237907
 133.9570012  13.1234997   3.5999988 133.6850012  13.3524997   2.7109988
 134.0030012  13.9614997   4.0599988 133.9260094  13.2681213   3.5405697
 140.8860012   1.1184997   9.1959988 140.7690012   0.1694997   9.1409988
 140.0310012   1.4504997   9.4689988 140.7543733   1.0335409   9.2253897
 143.1530012   9.9554997   3.6959988 142.4410012  10.4904997   3.3439988
 143.8440012  10.0114997   3.0359988 143.1490132  10.0362543   3.5586289
 143.2060012   8.4134997   0.7349988 143.9070012   8.4354997   1.3859988
 143.5090012   7.7854997   0.0789988 143.3427830   8.3316566   0.7353711
 138.2040012  10.7954997   6.5299988 137.8730012  10.4254997   5.7119988
 138.7920012  10.1254997   6.8769988 138.2381873  10.6541156   6.4648102
 139.5700012  14.2234997   9.2119988 139.4760012  13.6454997   8.4549988
 140.3000012  13.8524997   9.7079988 139.6557981  14.0942390   9.1754165
 138.5700012   9.5644997  10.1639988 139.1360012   9.6854997   9.4009988
 138.8890012  10.2014997  10.8029988 138.6905786   9.6671884  10.1460040
 144.8790012  15.0674997  10.8979988 144.6390012  15.7294997  11.5459988
 144.6810012  14.2334997  11.3229988 144.8193808  15.0453134  11.0441524
 139.4500012  13.9634997  14.8809988 139.1390012  14.7454997  15.3359988
 138.8000012  13.8104997  14.1949988 139.3195558  14.0499105  14.8505871
 136.3700012  10.1614997  14.1099988 136.4410012  10.8124997  14.8079988
 135.4800012  10.2644997  13.7749988 136.2593117  10.2645936  14.1602700
 143.1560012  16.0644997   5.7679988 143.6300012  16.3594997   6.5459988
 142.5930012  16.8024997   5.5349988 143.1447653  16.2046932   5.8430136
 137.6900012  16.0354997  15.6439988 137.6970012  15.8994997  14.6969988
 136.7740012  15.9174997  15.8959988 137.5671714  16.0009430  15.5484666
 137.1940012   9.8654997   4.1199988 136.9020012  10.6334997   3.6289988
 136.5200012   9.2054997   3.9569988 137.0629081   9.8814406   4.0307340
 133.2870012  12.2284997  12.9349988 132.7860012  12.2004997  12.1199988
 133.2920012  11.3224997  13.2439988 133.2191526  12.1022278  12.8652872
 133.0370012  15.0084997   9.8189988 133.9830012  14.8644997   9.7999988
 132.9250012  15.7924997  10.3559988 133.1512727  15.0948046   9.8890072
 142.2140012  15.2484997  14.3769988 142.3010012  16.0744997  14.8519988
 141.3500012  14.9184997  14.6259988 142.1091964  15.3169878  14.4756549
 142.6280012  19.0204997   4.1829988 142.5530012  18.8994997   3.2369988
 142.6610012  19.9704997   4.3019988 142.6221848  19.1322500   4.0694834
 136.2810012  17.8094997   5.9639988 136.4340012  17.4614997   6.8429988
 135.4310012  17.4534997   5.7089988 136.1868962  17.7136650   6.0498340
 135.5360012  13.5514997  13.9779988 135.7520012  13.1904997  14.8369988
 134.6810012  13.1774997  13.7679988 135.4499292  13.4514111  14.0673386
 138.1550012   2.0214997   9.9729988 137.2930012   1.9344997   9.5659988
 138.1320012   2.8774997  10.4009988 138.0340330   2.1252765   9.9751863
 142.8180012   1.7434997  13.3479988 143.2380012   1.3284997  14.1009988
 141.8850012   1.5654997  13.4649988 142.7493644   1.6625900  13.4669539
 142.4790012   4.2364997   0.6329988 142.2260012   4.2554997   1.5559988
 142.2230012   3.3644997   0.3319988 142.4097790   4.1212437   0.7186263
 138.2460012   6.9874997  11.0679988 137.6040012   6.9464997  11.7769988
 138.2830012   7.9134997  10.8309988 138.1631324   7.1071559  11.1329824
 138.2430012   7.2084997   5.9799988 137.3500012   6.8674997   5.9219988
 138.6930012   6.8314997   5.2249988 138.1817305   7.1108484   5.8699177
 143.7780012   7.6244997   4.7969988 143.3690012   8.4394997   4.5059988
 144.4990012   7.4844997   4.1829988 143.8194537   7.7172018   4.6741342
 142.8800012   7.7994997  16.2849988 142.3180012   7.0954997  16.6059988
 143.7070012   7.6794997  16.7529988 142.9147095   7.6867883  16.3922330
 144.7830012   7.0704997   7.6109988 144.5880012   7.6754997   6.8959988
 144.9640012   6.2364997   7.1769988 144.7807614   7.0406300   7.4544405
 135.9960012   7.3074997  12.9349988 135.9580012   7.7074997  13.8039988
 135.5050012   6.4904997  13.0259988 135.9244684   7.2518069  13.0661059
 139.3620012   4.6814997  -0.2660012 138.9310012   4.2364997   0.4639988
 138.6440012   5.0534997  -0.7780012 139.2059438   4.6708940  -0.2353201
 132.6040012   4.4234997   6.7859988 133.2350012   4.3944997   7.5049988
 133.0530012   3.9984997   6.0559988 132.7510774   4.3620492   6.7856553
 133.8780012   5.1694997   2.2099988 134.3520012   5.7604997   1.6249988
 133.1610012   5.7004997   2.5569988 133.8459341   5.3220867   2.1768836
 144.0470012   8.7084997  12.2829988 144.3700012   8.0774997  11.6399988
 143.6070012   8.1734997  12.9429988 144.0316895   8.5498441  12.2842850
 140.8240012   4.6354997   7.0669988 139.9130012   4.6924997   7.3549988
 141.3300012   4.5754997   7.8769988 140.7675413   4.6351985   7.2160622
 135.6530012   6.2644997   5.8929988 134.7630012   6.3644997   5.5529988
 135.9490012   5.4224997   5.5469988 135.5712823   6.1643545   5.7997213
 139.3060012   6.2644997   3.5499988 140.2370012   6.3934997   3.7279988
 139.0910012   6.9344997   2.8999988 139.4044247   6.3726565   3.4865747
 137.9800012   7.4594997   1.1169988 137.4370012   7.0794997   0.4249988
 138.8130012   7.6534997   0.6879988 138.0184399   7.4338124   0.9644526
 136.1150012  12.0164997  16.2159988 136.8470012  12.2704997  16.7769988
 135.3350012  12.2204997  16.7309988 136.1098232  12.0789177  16.3625760
 142.1440012   7.4234997   8.9539988 142.7090012   6.8764997   8.4069988
 141.9970012   6.9014997   9.7419988 142.2012918   7.2782024   8.9858454
 137.1460012   3.5594997   5.3719988 136.8290012   2.6574997   5.3369988
 137.9280012   3.5614997   4.8189988 137.2082284   3.4361628   5.2924783
 140.7710012   5.8114997  11.3679988 139.9350012   6.2654997  11.4779988
 141.2950012   6.0874997  12.1199988 140.7274414   5.9109376  11.4847136
 141.3150012  12.0244997   3.0519988 140.5700012  11.5174997   2.7299988
 141.1810012  12.0734997   3.9989988 141.1948776  11.9616940   3.1358647
 142.8340012  12.2084997  14.2889988 142.4890012  11.8274997  15.0959988
 142.6340012  13.1424997  14.3609988 142.7598061  12.2825228  14.4090961
 136.4400012  11.3194997   8.8219988 137.1850012  11.3174997   8.2209988
 136.5180012  10.4964997   9.3039988 136.5525518  11.2079315   8.8048929
 143.4410012  13.4834997   2.0779988 143.1450012  14.3094997   2.4589988
 142.7380012  12.8634997   2.2739988 143.3054914  13.5128199   2.1566443
 133.4480012   9.7804997  14.1369988 133.6710012   9.3624997  14.9689988
 132.8460012   9.1674997  13.7139988 133.3971759   9.6404668  14.1937022
 140.4640012   9.2974997  16.3499988 140.1680012   9.1314997  15.4549988
 141.3960012   9.0774997  16.3389988 140.5494166   9.2450640  16.2260536
 138.8150012  14.8374997   6.2259988 139.3420012  15.6104997   6.0259988
 137.9350012  15.0624997   5.9249988 138.7681773  14.9738005   6.1579010
 134.5700012   9.6994997   0.8129988 135.1860012  10.3264997   1.1929988
 133.7080012  10.0154997   1.0849988 134.5377698   9.8279430   0.9017183
 140.2420012  12.5004997   5.8029988 140.0010012  13.4254997   5.8439988
 139.5010012  12.0414997   6.1989988 140.1088409  12.5651421   5.8621377
 140.7570012  16.6494997  12.1179988 141.1190012  17.5044997  11.8839988
 141.2880012  16.3574997  12.8579988 140.8784473  16.7271060  12.1860855
 138.9250012  17.5224997   5.3479988 137.9750012  17.6274997   5.3989988
 139.2770012  18.3424997   5.6929988 138.8424203  17.6478314   5.4016650
 144.3010012  12.7484997  11.8179988 143.8750012  12.5214997  12.6449988
 144.8810012  12.0104997  11.6359988 144.3211868  12.6175299  11.9065830
 135.0820012   4.5334997  13.6949988 134.1890012   4.8724997  13.6269988
 134.9830012   3.6784997  14.1129988 134.9464164   4.4642588  13.7422235
 134.7330012  16.3384997  12.1299988 134.9500012  15.4064997  12.0989988
 134.9790012  16.6124997  13.0129988 134.7959549  16.2480636  12.2451763
 140.5950012  14.7894997  -0.6610012 140.8340012  14.0414997  -1.2080012
 140.3260012  14.4014997   0.1719988 140.5913675  14.6346638  -0.6233135
 139.5320012  14.3594997   1.7959988 139.6780012  13.8394997   2.5859988
 139.5290012  15.2664997   2.1019988 139.5515989  14.4108853   1.9456088
 135.9850012  11.6124997   2.3059988 135.2990012  11.9644997   2.8729988
 136.5070012  12.3754997   2.0589988 135.9616852  11.7638578   2.3502118
 143.8160012   4.2744997  12.5849988 144.5150012   4.3484997  13.2349988
 143.4350012   3.4104997  12.7389988 143.8601767   4.1677624  12.6948322
 144.6010012   3.9264997   3.6819988 144.8210012   4.3984997   2.8789988
 145.1590012   4.3214997   4.3519988 144.7064968   4.0444285   3.6627331
 142.2690012  16.0574997   2.5449988 141.4530012  16.5544997   2.5969988
 142.7990012  16.5324997   1.9049988 142.2289161  16.1897722   2.4655956
 141.8010012   5.6544997   4.5169988 142.6130012   6.1594997   4.5629988
 141.5560012   5.5094997   5.4309988 141.8790520   5.7040375   4.6468517
 142.3360012   6.6404997  13.7019988 142.4550012   7.2144997  14.4589988
 142.9920012   5.9524997  13.8159988 142.4409757   6.6261079  13.8210825
 142.6840012   2.7354997   5.4549988 142.3380012   3.3534997   6.0999988
 143.3430012   3.2364997   4.9739988 142.7257826   2.8875802   5.4780971
 139.6080012  17.1014997   2.5269988 139.7680012  17.9004997   2.0259988
 139.4100012  17.4074997   3.4119988 139.6031649  17.2524469   2.5779815
 138.3420012   3.7984997   2.1419988 138.2590012   4.6874997   2.4889988
 139.2320012   3.5334997   2.3739988 138.4509469   3.8841430   2.2207626
 136.6010012  14.2264997   1.2029988 137.1930012  14.9254997   1.4789988
 137.0600012  13.7934997   0.4829988 136.7441142  14.2637049   1.1434830
 134.9170012   6.8904997   0.3189988 134.8720012   7.8294997   0.4969988
 134.0290012   6.6544997   0.0489988 134.7908574   6.9871892   0.3068912
 135.7250012   1.6724997   8.9919988 135.4960012   1.7314997   8.0639988
 135.2820012   0.8804997   9.2979988 135.6338530   1.5735753   8.9064786
 134.6550012  15.6124997   5.1519988 133.8230012  16.0854997   5.1799988
 135.2010012  16.1224997   4.5539988 134.6149739  15.7461871   5.0749716
 133.9430012  18.2254997  16.4819988 134.4840012  18.0084997  17.2419988
 133.4620012  17.4194997  16.2929988 133.9519345  18.0869514  16.5603076
 138.5410012  17.1444997  18.1029988 139.3080012  16.6854997  18.4439988
 138.5190012  16.9184997  17.1729988 138.6431434  17.0510409  18.0240043
 142.6330012  16.6524997  -0.5220012 141.9890012  16.0214997  -0.2010012
 143.3950012  16.1214997  -0.7540012 142.6478077  16.4942920  -0.5093989
 133.8500012  12.0354997  17.4369988 133.9940012  11.1334997  17.1499988
 133.0780012  12.3214997  16.9489988 133.7653322  11.9508261  17.3317881
 138.1920012  12.3794997  -0.4310012 138.2560012  11.5854997   0.0999988
 138.8450012  12.2604997  -1.1210012 138.2890241  12.2547148  -0.4515683
 140.5060012  12.0054997  16.8689988 140.1770012  12.2764997  16.0119988
 140.6580012  11.0644997  16.7819988 140.4814809  11.9153862  16.7398244
 143.5440012  13.4264997  -0.6950012 143.2750012  13.6064997   0.2059988
 143.3380012  12.5004997  -0.8260012 143.4793825  13.3260152  -0.5894786
 134.6830012   9.2354997  16.8569988 135.0910012   8.3784997  16.7359988
 134.4230012   9.2504997  17.7779988 134.7037568   9.1200807  16.9649588
 139.3410012  10.3514997   1.8749988 138.8810012   9.8674997   2.5609988
 139.5960012   9.6834997   1.2389988 139.3124902  10.1948731   1.8829334
 138.6300012   8.2444997  14.2309988 138.0120012   8.9194997  14.5109988
 138.9740012   8.5654997  13.3979988 138.5919615   8.3802721  14.1566581
 140.4120012   8.5944997   0.1369988 140.2320012   8.4404997  -0.7900012
 141.3620012   8.7024997   0.1819988 140.5157776   8.5880175   0.0161843
 143.6500012  10.7164997  17.5079988 144.6030012  10.7994997  17.4809988
 143.4890012  10.0044997  18.1279988 143.7586426  10.6316746  17.5880579
 138.9690012   5.5994997  15.3129988 139.1190012   4.8704997  14.7109988
 138.9720012   6.3764997  14.7539988 138.9899302   5.6047851  15.1550692
 139.3820012   3.9694997  12.8059988 139.9180012   4.4204997  12.1539988
 138.5300012   3.8614997  12.3829988 139.3402178   4.0166390  12.6595756
 140.9640012   9.4084997  13.0449988 141.7140012   9.2524997  12.4719988
 140.6250012  10.2604997  12.7699988 141.0208921   9.5022968  12.9293561
 137.4480012   6.7974997  17.2249988 136.6810012   6.2654997  17.0149988
 138.1270012   6.4874997  16.6249988 137.4347022   6.6827506  17.1151648
 140.1880012   1.4254997  13.2369988 140.0890012   2.3724997  13.1319988
 139.4450012   1.0534997  12.7619988 140.0740564   1.5045902  13.1584560
 141.4520012   5.7474997  16.8009988 141.2160012   5.5274997  17.7029988
 140.6680012   5.5404997  16.2909988 141.3138628   5.6894760  16.8553932
 144.1670012   4.8744997  15.8769988 143.2200012   4.9064997  16.0089988
 144.4800012   4.2494997  16.5299988 144.0795475   4.7943207  15.9834455
 135.6280012   4.7184997  16.9289988 135.8400012   4.0114997  16.3189988
 135.5170012   4.2804997  17.7729988 135.6419721   4.5627084  16.9596843
 140.4090012   0.7194997  15.9089988 141.1210012   0.0794997  15.8949988
 140.3080012   0.9864997  14.9949988 140.4927939   0.6679938  15.7835650
 140.7630012   2.4024997  17.9619988 140.6310012   1.9264997  17.1419988
 140.1640012   3.1464997  17.9069988 140.6639071   2.4379618  17.8422886
 140.3090012  19.2854997   1.1389988 141.2420012  19.4434997   1.2819988
 140.0450012  19.9604997   0.5139988 140.4009510  19.3983611   1.0740741
 133.8780012  13.9214997   0.6209988 134.7920012  14.0004997   0.8949988
 133.8850012  13.2344997  -0.0450012 134.0041131  13.8393961   0.5684393
 132.5270012  19.3144997   5.6989988 131.8800012  18.8524997   5.1659988
 132.8810012  18.6424997   6.2809988 132.4863849  19.1604723   5.7047959
 133.3970012  17.3954997   7.5029988 133.0620012  16.5154997   7.6749988
 133.6190012  17.7404997   8.3679988 133.3811783  17.3217500   7.6434208
 133.4770012  10.4704997   9.9549988 133.6610012  10.3884997   9.0189988
 134.3260012  10.3464997  10.3789988 133.6170139  10.4425003   9.8841455
 133.0740012   5.7414997  16.0959988 133.9940012   5.6194997  16.3319988
 132.6250012   4.9914997  16.4849988 133.1391580   5.6233727  16.1809006
 134.2950012   4.0534997   8.9869988 134.7410012   3.2614997   9.2889988
 134.7620012   4.7694997   9.4179988 134.4190172   4.0420624   9.0864820
 132.5990012   7.0524997  10.0559988 133.0910012   6.8314997   9.2649988
 132.9620012   7.8934997  10.3369988 132.7153126   7.1358357   9.9857531
 132.9130012   3.3104997   4.1099988 131.9880012   3.5194997   3.9809988
 133.3670012   3.7944997   3.4209988 132.8477368   3.4045993   3.9991226
 132.8770012   2.0484997  12.4549988 132.2120012   1.8024997  13.0979988
 132.4340012   2.6704997  11.8769988 132.7260956   2.0988632  12.4649352
 135.0690012  15.2234997  16.5989988 134.2480012  15.3984997  16.1389988
 134.8160012  15.1504997  17.5199988 134.9226164  15.2375622  16.6604923
 138.0230012  16.1984997  12.8579988 137.5980012  17.0074997  12.5749988
 138.9270012  16.2834997  12.5559988 138.0870271  16.3208469  12.7783776
 142.3340012  17.5974997  15.8169988 142.5190012  17.2634997  16.6949988
 143.1800012  17.9064997  15.4949988 142.4737539  17.5936047  15.8935605
 144.6790012  18.8834997  15.0609988 145.3560012  18.2504997  14.8209988
 145.0010012  19.2844997  15.8679988 144.8151637  18.8511154  15.1372793
 135.4250012  19.4544997  12.9049988 134.7040012  19.8944997  12.4539988
 135.0590012  19.2034997  13.7539988 135.2769804  19.4807698  12.9579840
 137.8920012  19.0544997  11.9349988 137.0270012  19.1264997  12.3389988
 137.8370012  19.6014997  11.1509988 137.7662085  19.1382685  11.8843362
 142.6020012  18.9424997  11.1099988 142.1460012  19.4714997  10.4559988
 142.7650012  19.5454997  11.8359988 142.5615585  19.0964468  11.1185062
 134.8390012  18.0774997   9.8149988 134.8210012  17.6524997  10.6729988
 135.6440012  17.7594997   9.4069988 134.9453875  17.9763812   9.8771655
 136.9810012  16.7874997   8.4699988 136.7620012  15.8714997   8.6399988
 137.8050012  16.9274997   8.9359988 137.0624420  16.6810520   8.5562774
 139.5180012  17.2574997   9.3189988 139.7310012  16.3694997   9.0319988
 139.5820012  17.2234997  10.2729988 139.5558232  17.1313102   9.4087397
 143.0260012   2.9214997   8.4629988 142.3520012   2.2924997   8.7189988
 143.5900012   2.4374997   7.8599988 143.0099230   2.7698744   8.4165340
 135.3530012   1.5554997   6.2849988 134.5760012   1.3214997   5.7779988
 135.8830012   0.7584997   6.2939988 135.3182330   1.4156988   6.2167742
 134.1890012   1.3534997   2.0889988 134.6280012   1.9644997   1.4969988
 133.5560012   1.8914997   2.5629988 134.1634514   1.5099257   2.0720930
 139.9320012   1.4824997   6.0989988 140.8070012   1.8704997   6.0689988
 139.7960012   1.2674997   7.0209988 140.0333695   1.5065184   6.2196440
 134.0900012  17.3014997   2.9869988 133.4050012  17.2634997   2.3189988
 134.0940012  18.2144997   3.2749988 133.9968193  17.4197016   2.9345284
 136.0500012   3.2694997   0.5309988 136.5420012   2.6394997   0.0039988
 136.6740012   3.5654997   1.1949988 136.2015446   3.2233199   0.5485980
 141.0760012   3.5624997   2.9879988 141.2540012   2.9164997   3.6709988
 141.0230012   4.3964997   3.4559988 141.0931829   3.5867985   3.1445940
 142.9550012  18.5114997   1.3839988 143.8210012  18.8774997   1.2059988
 142.7080012  18.0714997   0.5699988 143.0402392  18.5021756   1.2496289
 135.3110012   2.0694997  15.8029988 134.9450012   1.3044997  16.2459988
 136.2240012   2.0984997  16.0899988 135.3842790   1.9687224  15.9024070
 137.2840012   1.4204997  17.3389988 138.1820012   1.1464997  17.1539988
 136.8970012   0.6774997  17.8029988 137.3546612   1.2825914  17.3763643
 135.9080012  18.2214997   0.0119988 135.6410012  18.5084997   0.8849988
 136.6800012  17.6754997   0.1639988 135.9757488  18.1870294   0.1521050
  12.4390012  29.5674997   6.2439988  12.5280012  30.5114997   6.1119988
  11.8010012  29.2924997   5.5859988  12.3649081  29.6594830   6.1369614
  11.3720012  28.8224997   9.6629988  11.3340012  28.1764997  10.3679988
  11.0500012  28.3564997   8.8919988  11.3232333  28.6709408   9.6552978
   3.7410012  28.4374997  11.2559988   3.7820012  27.8114997  11.9789988
   4.4440012  29.0614997  11.4379988   3.8416363  28.4361196  11.3796044
  15.0780012  31.7614997   7.9639988  14.6380012  31.0414997   8.4149988
  15.0650012  32.4824997   8.5939988  15.0160226  31.7603731   8.1108494
   4.6640012  32.8874997   9.7909988   4.2950012  32.0854997   9.4209988
   5.6050012  32.7184997   9.8369988   4.7407289  32.7550153   9.7466316
   1.2740012  26.5474997   5.1839988   0.8270012  27.3934997   5.1649988
   0.7130012  25.9674997   4.6679988   1.1369900  26.5849916   5.1116801
   1.9850012  28.7094997   7.3099988   2.1980012  27.9394997   7.8369988
   2.7230012  28.7984997   6.7059988   2.1138496  28.6161394   7.3005300
  12.1900012  36.8664997   8.1769988  12.8100012  36.1894997   7.9029988
  11.9820012  36.6484997   9.0849988  12.2466904  36.7443870   8.2623365
   9.7620012  31.2554997  10.0689988  10.0660012  30.5694997   9.4739988
  10.4830012  31.3734997  10.6869988   9.9010671  31.1776305  10.0711816
  18.4250012  22.8564997  10.9299988  18.4740012  23.4664997  11.6659988
  18.8500012  23.3174997  10.2069988  18.4891824  23.0023741  10.9330205
  12.9030012  25.6494997  10.3969988  13.0450012  24.7034997  10.4169988
  12.7960012  25.8564997   9.4679988  12.9079864  25.5479534  10.2742339
   6.0570012  23.7504997   7.6689988   6.1010012  24.6104997   7.2509988
   5.6000012  23.1984997   7.0349988   6.0012185  23.7935799   7.5260299
  13.7800012  23.8814997   6.0699988  14.4260012  23.5524997   6.6949988
  14.2900012  24.3994997   5.4469988  13.9374264  23.9064611   6.0713862
   2.6780012  26.1474997   8.4309988   3.3310012  25.5974997   8.8629988
   2.7020012  25.8734997   7.5139988   2.7706683  26.0351466   8.3662123
   7.8340012  27.6974997   7.6459988   8.4500012  27.1714997   8.1559988
   7.2480012  27.0574997   7.2429988   7.8390810  27.5389208   7.6613173
  18.8160012  24.3344997  13.1659988  18.1280012  24.9924997  13.0699988
  18.8320012  24.1374997  14.1019988  18.7238525  24.3980462  13.2794808
   4.8680012  22.6684997  11.7429988   4.6490012  23.1984997  10.9769988
   4.2000012  22.8954997  12.3899988   4.7477600  22.7716906  11.7256379
  12.2370012  32.1684997   5.2869988  11.9410012  31.8464997   4.4359988
  11.9120012  33.0684997   5.3279988  12.1526371  32.2460215   5.1761801
   7.4370012  30.3444997  12.0299988   6.6970012  30.9424997  12.1339988
   8.1510012  30.8984997  11.7149988   7.4322237  30.5012831  12.0016465
  15.5440012  23.1724997   8.0499988  15.3280012  22.4064997   8.5829988
  16.1990012  23.6444997   8.5629988  15.6030632  23.1315889   8.1922861
   4.4610012  24.5604997   9.6949988   5.0750012  25.1934997  10.0689988
   4.9730012  24.0884997   9.0389988   4.6142296  24.5832370   9.6574252
   5.8440012  32.3084997  12.8179988   5.8390012  33.1884997  12.4399988
   4.9910012  32.2254997  13.2429988   5.7279464  32.4176117  12.8237907
   1.9650012  31.9794997   3.5999988   1.6930012  32.2084997   2.7109988
   2.0110012  32.8174997   4.0599988   1.9340094  32.1241213   3.5405697
  15.5900012  33.6014997  10.3119988  14.6490012  33.6594997  10.4739988
  15.8670012  34.5074997  10.1749988  15.4984679  33.7319443  10.3156815
  15.8910012  21.8874997  11.7299988  15.1550012  22.4984997  11.6919988
  16.5740012  22.3024997  11.2029988  15.8826541  22.0271374  11.6535832
   8.8940012  19.9744997   9.1959988   8.7770012  19.0254997   9.1409988
   8.0390012  20.3064997   9.4689988   8.7623733  19.8895409   9.2253897
  13.8420012  35.3824997   6.9379988  14.2680012  34.6754997   6.4529988
  14.1590012  36.1834997   6.5209988  13.9431019  35.3940994   6.8153130
  15.0020012  33.2834997   5.4459988  14.7440012  32.5934997   4.8349988
  15.0730012  32.8404997   6.2919988  14.9762856  33.1292124   5.4766885
  16.6880012  31.8494997  13.9239988  16.8280012  31.2584997  13.1839988
  16.8550012  32.7224997  13.5669988  16.7296778  31.8866426  13.7746965
  11.1610012  28.8114997   3.6959988  10.4490012  29.3464997   3.3439988
  11.8520012  28.8674997   3.0359988  11.1570132  28.8922543   3.5586289
  11.2140012  27.2694997   0.7349988  11.9150012  27.2914997   1.3859988
  11.5170012  26.6414997   0.0789988  11.3507830  27.1876566   0.7353711
  18.5300012  28.1894997  11.9899988  17.8770012  28.8844997  12.0789988
  18.9950012  28.3994997  11.1799988  18.5035390  28.3129425  11.8926883
  14.5660012  29.0214997   4.6479988  13.8340012  29.2494997   5.2209988
  15.0140012  28.3074997   5.1029988  14.5263095  28.9562571   4.7879119
  14.4640012  27.1954997  13.7149988  14.5440012  27.9584997  14.2869988
  13.8620012  27.4744997  13.0249988  14.3935756  27.3377134  13.7000589
   6.2120012  29.6514997   6.5299988   5.8810012  29.2814997   5.7119988
   6.8000012  28.9814997   6.8769988   6.2461873  29.5101156   6.4648102
   7.5780012  33.0794997   9.2119988   7.4840012  32.5014997   8.4549988
   8.3080012  32.7084997   9.7079988   7.6637981  32.9502390   9.1754165
   6.5780012  28.4204997  10.1639988   7.1440012  28.5414997   9.4009988
   6.8970012  29.0574997  10.8029988   6.6985786  28.5231884  10.1460040
  12.8870012  33.9234997  10.8979988  12.6470012  34.5854997  11.5459988
  12.6890012  33.0894997  11.3229988  12.8273808  33.9013134  11.0441524
   7.4580012  32.8194997  14.8809988   7.1470012  33.6014997  15.3359988
   6.8080012  32.6664997  14.1949988   7.3275558  32.9059105  14.8505871
  13.4370012  28.1834997   2.3329988  14.0170012  28.3334997   3.0799988
  13.8510012  28.6544997   1.6099988  13.5722830  28.2676841   2.3374134
   4.3780012  29.0174997  14.1099988   4.4490012  29.6684997  14.8079988
   3.4880012  29.1204997  13.7749988   4.2673117  29.1205936  14.1602700
  11.1640012  34.9204997   5.7679988  11.6380012  35.2154997   6.5459988
  10.6010012  35.6584997   5.5349988  11.1527653  35.0606932   5.8430136
   5.6980012  34.8914997  15.6439988   5.7050012  34.7554997  14.6969988
   4.7820012  34.7734997  15.8959988   5.5751714  34.8569430  15.5484666
  17.1360012  19.9334997   2.1459988  16.2360012  20.0724997   2.4409988
  17.3880012  20.7644997   1.7439988  17.0468702  20.0649074   2.1320205
   5.2020012  28.7214997   4.1199988   4.9100012  29.4894997   3.6289988
   4.5280012  28.0614997   3.9569988   5.0709081  28.7374406   4.0307340
  18.3250012  34.2994997   0.5219988  18.3990012  35.2384997   0.6929988
  19.2310012  33.9944997   0.4659988  18.4575100  34.3866722   0.5378119
   1.2950012  31.0844997  12.9349988   0.7940012  31.0564997  12.1199988
   1.3000012  30.1784997  13.2439988   1.2271526  30.9582278  12.8652872
   1.0450012  33.8644997   9.8189988   1.9910012  33.7204997   9.7999988
   0.9330012  34.6484997  10.3559988   1.1592727  33.9508046   9.8890072
  19.2430012  34.5304997  15.5009988  19.1940012  33.5754997  15.4639988
  18.4160012  34.7984997  15.9019988  19.1244940  34.4358998  15.5501375
  10.2220012  34.1044997  14.3769988  10.3090012  34.9304997  14.8519988
   9.3580012  33.7744997  14.6259988  10.1171964  34.1729878  14.4756549
  10.6360012  37.8764997   4.1829988  10.5610012  37.7554997   3.2369988
  10.6690012  38.8264997   4.3019988  10.6301848  37.9882500   4.0694834
   4.2890012  36.6654997   5.9639988   4.4420012  36.3174997   6.8429988
   3.4390012  36.3094997   5.7089988   4.1948962  36.5696650   6.0498340
  13.7380012  37.0304997   1.1849988  14.1130012  36.2864997   0.7149988
  13.7420012  36.7604997   2.1039988  13.7898915  36.8921486   1.2447824
  13.4070012  36.9564997   3.9349988  12.4710012  37.0564997   4.1129988
  13.6870012  36.2474997   4.5129988  13.3168255  36.8742711   4.0375391
  16.3950012  26.0234997  15.9809988  15.9880012  26.5044997  15.2599988
  16.4360012  25.1184997  15.6729988  16.3448437  25.9669374  15.8406683
   3.5440012  32.4074997  13.9779988   3.7600012  32.0464997  14.8369988
   2.6890012  32.0334997  13.7679988   3.4579292  32.3074111  14.0673386
   6.1630012  20.8774997   9.9729988   5.3010012  20.7904997   9.5659988
   6.1400012  21.7334997  10.4009988   6.0420330  20.9812765   9.9751863
  10.8260012  20.5994997  13.3479988  11.2460012  20.1844997  14.1009988
   9.8930012  20.4214997  13.4649988  10.7573644  20.5185900  13.4669539
  14.1520012  24.3554997  14.2009988  13.6380012  24.2294997  14.9989988
  13.9970012  25.2674997  13.9569988  14.0606852  24.4616132  14.2772158
  14.9150012  29.2164997  -0.0370012  14.9570012  28.9934997  -0.9670012
  15.7640012  29.6154997   0.1529988  15.0355396  29.2399155  -0.1386373
  10.4870012  23.0924997   0.6329988  10.2340012  23.1114997   1.5559988
  10.2310012  22.2204997   0.3319988  10.4177790  22.9772437   0.7186263
   6.2540012  25.8434997  11.0679988   5.6120012  25.8024997  11.7769988
   6.2910012  26.7694997  10.8309988   6.1711324  25.9631559  11.1329824
   6.2510012  26.0644997   5.9799988   5.3580012  25.7234997   5.9219988
   6.7010012  25.6874997   5.2249988   6.1897305  25.9668484   5.8699177
  11.7860012  26.4804997   4.7969988  11.3770012  27.2954997   4.5059988
  12.5070012  26.3404997   4.1829988  11.8274537  26.5732018   4.6741342
  10.8880012  26.6554997  16.2849988  10.3260012  25.9514997  16.6059988
  11.7150012  26.5354997  16.7529988  10.9227095  26.5427883  16.3922330
  12.7910012  25.9264997   7.6109988  12.5960012  26.5314997   6.8959988
  12.9720012  25.0924997   7.1769988  12.7887614  25.8966300   7.4544405
   4.0040012  26.1634997  12.9349988   3.9660012  26.5634997  13.8039988
   3.5130012  25.3464997  13.0259988   3.9324684  26.1078069  13.0661059
   7.3700012  23.5374997  -0.2660012   6.9390012  23.0924997   0.4639988
   6.6520012  23.9094997  -0.7780012   7.2139438  23.5268940  -0.2353201
   0.6120012  23.2794997   6.7859988   1.2430012  23.2504997   7.5049988
   1.0610012  22.8544997   6.0559988   0.7590774  23.2180492   6.7856553
   1.8860012  24.0254997   2.2099988   2.3600012  24.6164997   1.6249988
   1.1690012  24.5564997   2.5569988   1.8539341  24.1780867   2.1768836
  12.0550012  27.5644997  12.2829988  12.3780012  26.9334997  11.6399988
  11.6150012  27.0294997  12.9429988  12.0396895  27.4058441  12.2842850
   8.8320012  23.4914997   7.0669988   7.9210012  23.5484997   7.3549988
   9.3380012  23.4314997   7.8769988   8.7755413  23.4911985   7.2160622
   3.6610012  25.1204997   5.8929988   2.7710012  25.2204997   5.5529988
   3.9570012  24.2784997   5.5469988   3.5792823  25.0203545   5.7997213
   7.3140012  25.1204997   3.5499988   8.2450012  25.2494997   3.7279988
   7.0990012  25.7904997   2.8999988   7.4124247  25.2286565   3.4865747
  13.2370012  22.7264997  10.3309988  12.5610012  22.8574997  10.9949988
  12.7520012  22.5714997   9.5209988  13.0787145  22.7234905  10.3124517
   5.9880012  26.3154997   1.1169988   5.4450012  25.9354997   0.4249988
   6.8210012  26.5094997   0.6879988   6.0264399  26.2898124   0.9644526
  16.5250012  38.3984997  16.6079988  16.7250012  38.8224997  15.7729988
  17.1800012  38.7414997  17.2149988  16.6410051  38.5029648  16.5757836
   4.1230012  30.8724997  16.2159988   4.8550012  31.1264997  16.7769988
   3.3430012  31.0764997  16.7309988   4.1178232  30.9349177  16.3625760
  10.1520012  26.2794997   8.9539988  10.7170012  25.7324997   8.4069988
  10.0050012  25.7574997   9.7419988  10.2092918  26.1342024   8.9858454
   5.1540012  22.4154997   5.3719988   4.8370012  21.5134997   5.3369988
   5.9360012  22.4174997   4.8189988   5.2162284  22.2921628   5.2924783
   8.7790012  24.6674997  11.3679988   7.9430012  25.1214997  11.4779988
   9.3030012  24.9434997  12.1199988   8.7354414  24.7669376  11.4847136
   9.3230012  30.8804997   3.0519988   8.5780012  30.3734997   2.7299988
   9.1890012  30.9294997   3.9989988   9.2028776  30.8176940   3.1358647
  16.4730012  30.0134997  11.8389988  17.1150012  30.4704997  11.2949988
  15.6430012  30.1264997  11.3759988  16.4485963  30.0912704  11.7020177
  13.2210012  23.6944997   1.2519988  12.2820012  23.8064997   1.0999988
  13.5180012  24.5514997   1.5579988  13.1327666  23.8256443   1.2725768
  10.8420012  31.0644997  14.2889988  10.4970012  30.6834997  15.0959988
  10.6420012  31.9984997  14.3609988  10.7678061  31.1385228  14.4090961
  13.9390012  25.5614997   2.9119988  14.8310012  25.4244997   3.2309988
  13.9960012  26.3524997   2.3759988  14.0686285  25.6496660   2.8831691
   4.4480012  30.1754997   8.8219988   5.1930012  30.1734997   8.2209988
   4.5260012  29.3524997   9.3039988   4.5605518  30.0639315   8.8048929
  11.4490012  32.3394997   2.0779988  11.1530012  33.1654997   2.4589988
  10.7460012  31.7194997   2.2739988  11.3134914  32.3688199   2.1566443
   1.4560012  28.6364997  14.1369988   1.6790012  28.2184997  14.9689988
   0.8540012  28.0234997  13.7139988   1.4051759  28.4964668  14.1937022
   8.4720012  28.1534997  16.3499988   8.1760012  27.9874997  15.4549988
   9.4040012  27.9334997  16.3389988   8.5574166  28.1010640  16.2260536
  13.0930012  33.5264997  14.2399988  12.1920012  33.7094997  13.9719988
  13.1270012  33.7854997  15.1609988  12.9743041  33.5865512  14.3278197
  18.8240012  25.7714997   2.6069988  18.2700012  25.3754997   1.9349988
  18.9240012  26.6814997   2.3289988  18.7617059  25.8403586   2.4774401
  18.7870012  31.5714997  15.4439988  17.9360012  31.8094997  15.0769988
  19.3780012  31.5544997  14.6909988  18.7502487  31.6018258  15.2918893
  17.1190012  34.5574997   3.0719988  16.7460012  33.7314997   3.3809988
  17.3970012  34.3744997   2.1749988  17.1055630  34.4197303   2.9929626
  14.2800012  29.3654997  10.0929988  13.3510012  29.1334997  10.0659988
  14.7310012  28.5884997   9.7629988  14.2139216  29.2287238  10.0446917
   6.8230012  33.6934997   6.2259988   7.3500012  34.4664997   6.0259988
   5.9430012  33.9184997   5.9249988   6.7761773  33.8298005   6.1579010
   2.5780012  28.5554997   0.8129988   3.1940012  29.1824997   1.1929988
   1.7160012  28.8714997   1.0849988   2.5457698  28.6839430   0.9017183
   8.2500012  31.3564997   5.8029988   8.0090012  32.2814997   5.8439988
   7.5090012  30.8974997   6.1989988   8.1168409  31.4211421   5.8621377
   8.7650012  35.5054997  12.1179988   9.1270012  36.3604997  11.8839988
   9.2960012  35.2134997  12.8579988   8.8864473  35.5831060  12.1860855
   6.9330012  36.3784997   5.3479988   5.9830012  36.4834997   5.3989988
   7.2850012  37.1984997   5.6929988   6.8504203  36.5038314   5.4016650
  12.3090012  31.6044997  11.8179988  11.8830012  31.3774997  12.6449988
  12.8890012  30.8664997  11.6359988  12.3291868  31.4735299  11.9065830
  14.5120012  32.5334997   0.8919988  14.8650012  32.1534997   1.6969988
  13.5630012  32.4404997   0.9789988  14.4320441  32.4689596   1.0138559
  14.9670012  36.1564997  14.2879988  14.3660012  35.6014997  13.7919988
  15.2490012  36.8234997  13.6619988  14.9228519  36.1706841  14.1354952
  19.0150012  37.0134997   1.0929988  19.7590012  37.5994997   0.9529988
  18.3210012  37.5814997   1.4269988  19.0230292  37.1705582   1.1189961
   3.0900012  23.3894997  13.6949988   2.1970012  23.7284997  13.6269988
   2.9910012  22.5344997  14.1129988   2.9544164  23.3202588  13.7422235
  15.3780012  31.2064997   3.1189988  15.1000012  30.4784997   3.6749988
  16.3050012  31.3254997   3.3239988  15.4653124  31.1228802   3.2228845
   2.7410012  35.1944997  12.1299988   2.9580012  34.2624997  12.0989988
   2.9870012  35.4684997  13.0129988   2.8039549  35.1040636  12.2451763
   8.6030012  33.6454997  -0.6610012   8.8420012  32.8974997  -1.2080012
   8.3340012  33.2574997   0.1719988   8.5993675  33.4906638  -0.6233135
   7.5400012  33.2154997   1.7959988   7.6860012  32.6954997   2.5859988
   7.5370012  34.1224997   2.1019988   7.5595989  33.2668853   1.9456088
   3.9930012  30.4684997   2.3059988   3.3070012  30.8204997   2.8729988
   4.5150012  31.2314997   2.0589988   3.9696852  30.6198578   2.3502118
  11.8240012  23.1304997  12.5849988  12.5230012  23.2044997  13.2349988
  11.4430012  22.2664997  12.7389988  11.8681767  23.0237624  12.6948322
  12.6090012  22.7824997   3.6819988  12.8290012  23.2544997   2.8789988
  13.1670012  23.1774997   4.3519988  12.7144968  22.9004285   3.6627331
  10.2770012  34.9134997   2.5449988   9.4610012  35.4104997   2.5969988
  10.8070012  35.3884997   1.9049988  10.2369161  35.0457722   2.4655956
   9.8090012  24.5104997   4.5169988  10.6210012  25.0154997   4.5629988
   9.5640012  24.3654997   5.4309988   9.8870520  24.5600375   4.6468517
  10.3440012  25.4964997  13.7019988  10.4630012  26.0704997  14.4589988
  11.0000012  24.8084997  13.8159988  10.4489757  25.4821079  13.8210825
  10.6920012  21.5914997   5.4549988  10.3460012  22.2094997   6.0999988
  11.3510012  22.0924997   4.9739988  10.7337826  21.7435802   5.4780971
   7.6160012  35.9574997   2.5269988   7.7760012  36.7564997   2.0259988
   7.4180012  36.2634997   3.4119988   7.6111649  36.1084469   2.5779815
   6.3500012  22.6544997   2.1419988   6.2670012  23.5434997   2.4889988
   7.2400012  22.3894997   2.3739988   6.4589469  22.7401430   2.2207626
  16.5490012  23.4034997  14.5369988  15.6320012  23.6664997  14.4489988
  16.8840012  23.4004997  13.6399988  16.4689900  23.4390224  14.4037919
  15.1510012  27.1544997   8.6319988  14.3530012  26.7394997   8.3039988
  15.5960012  26.4634997   9.1229988  15.1019885  27.0043543   8.6534889
   4.6090012  33.0824997   1.2029988   5.2010012  33.7814997   1.4789988
   5.0680012  32.6494997   0.4829988   4.7521142  33.1197049   1.1434830
   2.9250012  25.7464997   0.3189988   2.8800012  26.6854997   0.4969988
   2.0370012  25.5104997   0.0489988   2.7988574  25.8431892   0.3068912
  16.2370012  36.4104997  10.2549988  16.0820012  37.0884997   9.5979988
  17.1700012  36.4824997  10.4579988  16.3418500  36.5130170  10.1925119
   3.7330012  20.5284997   8.9919988   3.5040012  20.5874997   8.0639988
   3.2900012  19.7364997   9.2979988   3.6418530  20.4295753   8.9064786
   2.6630012  34.4684997   5.1519988   1.8310012  34.9414997   5.1799988
   3.2090012  34.9784997   4.5539988   2.6229739  34.6021871   5.0749716
   1.9510012  37.0814997  16.4819988   2.4920012  36.8644997  17.2419988
   1.4700012  36.2754997  16.2929988   1.9599345  36.9429514  16.5603076
   6.5490012  36.0004997  18.1029988   7.3160012  35.5414997  18.4439988
   6.5270012  35.7744997  17.1729988   6.6511434  35.9070409  18.0240043
  10.6410012  35.5084997  -0.5220012   9.9970012  34.8774997  -0.2010012
  11.4030012  34.9774997  -0.7540012  10.6558077  35.3502920  -0.5093989
  13.1260012  34.3804997  16.8319988  12.7750012  33.5244997  17.0749988
  13.8520012  34.5234997  17.4389988  13.1760769  34.2825636  16.9473619
  15.2450012  35.3254997  -0.2880012  15.5280012  34.5314997   0.1639988
  15.9850012  35.5584997  -0.8490012  15.3837486  35.2482803  -0.3019302
   1.8580012  30.8914997  17.4369988   2.0020012  29.9894997  17.1499988
   1.0860012  31.1774997  16.9489988   1.7733322  30.8068261  17.3317881
   6.2000012  31.2354997  -0.4310012   6.2640012  30.4414997   0.0999988
   6.8530012  31.1164997  -1.1210012   6.2970241  31.1107148  -0.4515683
   8.5140012  30.8614997  16.8689988   8.1850012  31.1324997  16.0119988
   8.6660012  29.9204997  16.7819988   8.4894809  30.7713862  16.7398244
  11.5520012  32.2824997  -0.6950012  11.2830012  32.4624997   0.2059988
  11.3460012  31.3564997  -0.8260012  11.4873825  32.1820152  -0.5894786
  14.2480012  30.7774997  14.2529988  14.9940012  31.3654997  14.1329988
  13.4910012  31.3594997  14.3159988  14.2477554  30.9367011  14.2450907
   2.6910012  28.0914997  16.8569988   3.0990012  27.2344997  16.7359988
   2.4310012  28.1064997  17.7779988   2.7117568  27.9760807  16.9649588
   7.3490012  29.2074997   1.8749988   6.8890012  28.7234997   2.5609988
   7.6040012  28.5394997   1.2389988   7.3204902  29.0508731   1.8829334
   6.6380012  27.1004997  14.2309988   6.0200012  27.7754997  14.5109988
   6.9820012  27.4214997  13.3979988   6.5999615  27.2362721  14.1566581
   8.4200012  27.4504997   0.1369988   8.2400012  27.2964997  -0.7900012
   9.3700012  27.5584997   0.1819988   8.5237776  27.4440175   0.0161843
  11.6580012  29.5724997  17.5079988  12.6110012  29.6554997  17.4809988
  11.4970012  28.8604997  18.1279988  11.7666426  29.4876746  17.5880579
  17.8100012  29.8054997  -0.4170012  17.5360012  29.3804997  -1.2300012
  17.8490012  30.7364997  -0.6340012  17.7777699  29.8732484  -0.5576390
   6.9770012  24.4554997  15.3129988   7.1270012  23.7264997  14.7109988
   6.9800012  25.2324997  14.7539988   6.9979302  24.4607851  15.1550692
   7.3900012  22.8254997  12.8059988   7.9260012  23.2764997  12.1539988
   6.5380012  22.7174997  12.3829988   7.3482178  22.8726390  12.6595756
   8.9720012  28.2644997  13.0449988   9.7220012  28.1084997  12.4719988
   8.6330012  29.1164997  12.7699988   9.0288921  28.3582968  12.9293561
  13.3870012  26.0794997  18.0739988  13.5800012  25.1484997  17.9619988
  14.2450012  26.5044997  18.0639988  13.5293020  26.0096389  18.0573361
  14.7040012  28.8684997  16.1509988  14.4230012  29.5774997  15.5739988
  15.6470012  28.7954997  15.9999988  14.7929027  28.9557646  16.0515551
   5.4560012  25.6534997  17.2249988   4.6890012  25.1214997  17.0149988
   6.1350012  25.3434997  16.6249988   5.4427022  25.5387506  17.1151648
   8.1960012  20.2814997  13.2369988   8.0970012  21.2284997  13.1319988
   7.4530012  19.9094997  12.7619988   8.0820564  20.3605902  13.1584560
   9.4600012  24.6034997  16.8009988   9.2240012  24.3834997  17.7029988
   8.6760012  24.3964997  16.2909988   9.3218628  24.5454760  16.8553932
  12.1750012  23.7304997  15.8769988  11.2280012  23.7624997  16.0089988
  12.4880012  23.1054997  16.5299988  12.0875475  23.6503207  15.9834455
  13.8090012  22.3644997  17.8819988  13.7130012  21.4124997  17.8759988
  13.4880012  22.6334997  18.7419988  13.7524070  22.2704035  17.9975441
   3.6360012  23.5744997  16.9289988   3.8480012  22.8674997  16.3189988
   3.5250012  23.1364997  17.7729988   3.6499721  23.4187084  16.9596843
   8.4170012  19.5754997  15.9089988   9.1290012  18.9354997  15.8949988
   8.3160012  19.8424997  14.9949988   8.5007939  19.5239938  15.7835650
   8.7710012  21.2584997  17.9619988   8.6390012  20.7824997  17.1419988
   8.1720012  22.0024997  17.9069988   8.6719071  21.2939618  17.8422886
   8.3170012  38.1414997   1.1389988   9.2500012  38.2994997   1.2819988
   8.0530012  38.8164997   0.5139988   8.4089510  38.2543611   1.0740741
   1.8860012  32.7774997   0.6209988   2.8000012  32.8564997   0.8949988
   1.8930012  32.0904997  -0.0450012   2.0121131  32.6953961   0.5684393
   0.5350012  38.1704997   5.6989988  -0.1119988  37.7084997   5.1659988
   0.8890012  37.4984997   6.2809988   0.4943849  38.0164723   5.7047959
   1.4050012  36.2514997   7.5029988   1.0700012  35.3714997   7.6749988
   1.6270012  36.5964997   8.3679988   1.3891783  36.1777501   7.6434208
  18.9530012  37.0604997  10.4839988  18.9320012  37.2454997  11.4229988
  19.6440012  37.6294997  10.1429988  19.0434618  37.1626606  10.5663864
  18.5170012  36.6284997  13.4059988  18.0290012  35.8924997  13.0349988
  19.0660012  36.2344997  14.0839988  18.5244872  36.4746249  13.4469160
  16.9670012  32.4174997  18.0439988  16.1010012  32.3124997  18.4379988
  17.3440012  33.1764997  18.4899988  16.8993308  32.5056900  18.1582393
  18.2680012  30.6744997   3.5579988  19.1180012  31.0954997   3.6849988
  18.2740012  29.9344997   4.1649988  18.3851372  30.6320803   3.6574344
  18.6630012  28.7274997   5.3819988  17.9360012  28.2484997   5.7789988
  19.2440012  28.9334997   6.1139988  18.6419375  28.6897090   5.5354129
  18.4220012  31.5124997  10.3289988  19.2550012  31.1344997  10.0489988
  18.5340012  32.4554997  10.2099988  18.5512647  31.5882218  10.2745487
  16.9080012  34.3904997  12.6359988  16.2610012  34.7154997  13.2619988
  16.3910012  33.9504997  11.9619988  16.7494029  34.3755004  12.6305827
  18.9310012  28.6284997   1.7729988  18.4090012  28.9854997   1.0539988
  18.8980012  29.3034997   2.4509988  18.8551634  28.7685413   1.7663145
  17.2800012  25.8684997   0.3239988  17.3760012  26.5354997  -0.3570012
  17.1400012  25.0524997  -0.1580012  17.2742135  25.8494500   0.1658491
  16.4490012  27.2484997   5.9449988  16.2990012  26.3034997   5.9239988
  16.0960012  27.5294997   6.7879988  16.3806625  27.1570441   6.0562346
   1.4850012  29.3264997   9.9549988   1.6690012  29.2444997   9.0189988
   2.3340012  29.2024997  10.3789988   1.6250139  29.2985003   9.8841455
  17.3060012  29.2184997  15.5829988  17.8890012  28.4844997  15.7749988
  17.8700012  29.9904997  15.6299988  17.4619769  29.2224227  15.6156159
  18.8020012  27.1214997  16.2679988  17.9390012  26.7424997  16.1019988
  19.4070012  26.3824997  16.1939988  18.7655979  26.9698023  16.2352817
  16.5270012  23.2764997  -0.5590012  17.1380012  22.9054997   0.0779988
  15.6910012  22.8554997  -0.3630012  16.4975032  23.1687554  -0.4452965
  16.1600012  24.8314997   4.4069988  16.4400012  23.9244997   4.5309988
  16.9190012  25.2654997   4.0179988  16.3009277  24.7660942   4.3713682
  16.7720012  25.4124997   9.8429988  17.7050012  25.6244997   9.8089988
  16.5370012  25.5144997  10.7649988  16.8678036  25.4552769   9.9629976
  16.8010012  26.1494997  12.6189988  15.9580012  26.4174997  12.9849988
  17.2430012  26.9714997  12.4079988  16.7454158  26.2973291  12.6405491
   1.0820012  24.5974997  16.0959988   2.0020012  24.4754997  16.3319988
   0.6330012  23.8474997  16.4849988   1.1471580  24.4793727  16.1809006
  19.0840012  20.1294997  17.9719988  19.4340012  19.4754997  17.3669988
  19.2310012  20.9664997  17.5329988  19.1518419  20.1531591  17.8297118
  16.7730012  22.0944997   4.4549988  16.9560012  21.6454997   5.2809988
  16.1740012  21.5094997   3.9919988  16.7170202  21.9539975   4.5053275
   2.3030012  22.9094997   8.9869988   2.7490012  22.1174997   9.2889988
   2.7700012  23.6254997   9.4179988   2.4270172  22.8980624   9.0864820
   0.6070012  25.9084997  10.0559988   1.0990012  25.6874997   9.2649988
   0.9700012  26.7494997  10.3369988   0.7233126  25.9918357   9.9857531
  18.6040012  22.2384997  16.3219988  17.6860012  22.5094997  16.2859988
  18.7270012  21.7034997  15.5369988  18.4951066  22.2032892  16.2110487
  18.6400012  22.1614997   0.9829988  19.0520012  21.4404997   0.5079988
  19.3220012  22.8314997   1.0419988  18.7885885  22.1532368   0.9258915
   0.9210012  22.1664997   4.1099988  -0.0039988  22.3754997   3.9809988
   1.3750012  22.6504997   3.4209988   0.8557368  22.2605993   3.9991226
  15.6920012  37.1504997   6.0559988  16.3440012  36.8034997   5.4479988
  16.2020012  37.6394997   6.7019988  15.8502637  37.1690597   6.0600236
   0.8850012  20.9044997  12.4549988   0.2200012  20.6584997  13.0979988
   0.4420012  21.5264997  11.8769988   0.7340956  20.9548632  12.4649352
   3.0770012  34.0794997  16.5989988   2.2560012  34.2544997  16.1389988
   2.8240012  34.0064997  17.5199988   2.9306164  34.0935622  16.6604923
   6.0310012  35.0544997  12.8579988   5.6060012  35.8634997  12.5749988
   6.9350012  35.1394997  12.5559988   6.0950271  35.1768469  12.7783776
  10.3420012  36.4534997  15.8169988  10.5270012  36.1194997  16.6949988
  11.1880012  36.7624997  15.4949988  10.4817539  36.4496047  15.8935605
  12.6870012  37.7394997  15.0609988  13.3640012  37.1064997  14.8209988
  13.0090012  38.1404997  15.8679988  12.8231637  37.7071154  15.1372793
  17.6040012  20.3284997  14.1409988  16.7920012  20.6534997  13.7529988
  17.8370012  19.5684997  13.6079988  17.5243423  20.2702436  14.0158253
   3.4330012  38.3104997  12.9049988   2.7120012  38.7504997  12.4539988
   3.0670012  38.0594997  13.7539988   3.2849804  38.3367698  12.9579840
   5.9000012  37.9104997  11.9349988   5.0350012  37.9824997  12.3389988
   5.8450012  38.4574997  11.1509988   5.7742085  37.9942685  11.8843362
  10.6100012  37.7984997  11.1099988  10.1540012  38.3274997  10.4559988
  10.7730012  38.4014997  11.8359988  10.5695585  37.9524468  11.1185062
  12.9380012  36.6764997  12.0549988  12.0330012  36.8414997  11.7899988
  13.3670012  37.5294997  11.9899988  12.8720799  36.8144483  12.0099182
  15.5420012  38.2464997  12.3499988  15.3600012  39.1624997  12.1399988
  15.7190012  37.8364997  11.5039988  15.5410210  38.3164822  12.2067885
   2.8470012  36.9334997   9.8149988   2.8290012  36.5084997  10.6729988
   3.6520012  36.6154997   9.4069988   2.9533875  36.8323812   9.8771655
   4.9890012  35.6434997   8.4699988   4.7700012  34.7274997   8.6399988
   5.8130012  35.7834997   8.9359988   5.0704420  35.5370520   8.5562774
   7.5260012  36.1134997   9.3189988   7.7390012  35.2254997   9.0319988
   7.5900012  36.0794997  10.2729988   7.5638232  35.9873102   9.4087397
  11.0340012  21.7774997   8.4629988  10.3600012  21.1484997   8.7189988
  11.5980012  21.2934997   7.8599988  11.0179230  21.6258744   8.4165340
  16.1770012  19.8854997   8.5759988  16.7810012  20.4324997   8.0739988
  15.3070012  20.2044997   8.3359988  16.1421241  20.0035806   8.4747654
  17.9040012  21.0234997   6.9089988  18.5160012  20.5094997   6.3829988
  18.2860012  21.9014997   6.9329988  18.0394540  21.0717140   6.8401830
   3.3610012  20.4114997   6.2849988   2.5840012  20.1774997   5.7779988
   3.8910012  19.6144997   6.2939988   3.3262330  20.2716988   6.2167742
   2.1970012  20.2094997   2.0889988   2.6360012  20.8204997   1.4969988
   1.5640012  20.7474997   2.5629988   2.1714514  20.3659257   2.0720930
   7.9400012  20.3384997   6.0989988   8.8150012  20.7264997   6.0689988
   7.8040012  20.1234997   7.0209988   8.0413695  20.3625184   6.2196440
  13.4970012  20.3684997   7.7479988  13.5730012  20.4634997   6.7979988
  13.2220012  19.4604997   7.8769988  13.4702321  20.2587867   7.6355079
  14.8500012  20.3944997   3.4399988  14.1480012  21.0094997   3.2309988
  14.4060012  19.5564997   3.5709988  14.6936330  20.3655783   3.4290328
   2.0980012  36.1574997   2.9869988   1.4130012  36.1194997   2.3189988
   2.1020012  37.0704997   3.2749988   2.0048193  36.2757016   2.9345284
   4.0580012  22.1254997   0.5309988   4.5500012  21.4954997   0.0039988
   4.6820012  22.4214997   1.1949988   4.2095446  22.0793199   0.5485980
   9.0840012  22.4184997   2.9879988   9.2620012  21.7724997   3.6709988
   9.0310012  23.2524997   3.4559988   9.1011829  22.4427985   3.1445940
  10.9630012  37.3674997   1.3839988  11.8290012  37.7334997   1.2059988
  10.7160012  36.9274997   0.5699988  11.0482392  37.3581756   1.2496289
  17.6720012  36.9304997   4.0629988  17.4770012  36.1824997   3.4979988
  17.6330012  37.6884997   3.4799988  17.6400380  36.9306099   3.9068384
   3.3190012  20.9254997  15.8029988   2.9530012  20.1604997  16.2459988
   4.2320012  20.9544997  16.0899988   3.3922790  20.8247224  15.9024070
   5.2920012  20.2764997  17.3389988   6.1900012  20.0024997  17.1539988
   4.9050012  19.5334997  17.8029988   5.3626612  20.1385914  17.3763643
   3.9160012  37.0774997   0.0119988   3.6490012  37.3644997   0.8849988
   4.6880012  36.5314997   0.1639988   3.9837488  37.0430294   0.1521050
  13.7130012  19.6084997  17.5209988  13.7900012  19.1824997  18.3749988
  14.6070012  19.6224997  17.1779988  13.8443428  19.5520879  17.5915310
  16.8890012  35.6814997  16.2129988  16.1070012  35.4954997  15.6939988
  16.8170012  36.6104997  16.4309988  16.7721777  35.7816492  16.1714048
  31.2950012  29.5674997   6.2439988  31.3840012  30.5114997   6.1119988
  30.6570012  29.2924997   5.5859988  31.2209081  29.6594830   6.1369614
  30.2280012  28.8224997   9.6629988  30.1900012  28.1764997  10.3679988
  29.9060012  28.3564997   8.8919988  30.1792333  28.6709408   9.6552978
  22.5970012  28.4374997  11.2559988  22.6380012  27.8114997  11.9789988
  23.3000012  29.0614997  11.4379988  22.6976363  28.4361196  11.3796044
  33.9340012  31.7614997   7.9639988  33.4940012  31.0414997   8.4149988
  33.9210012  32.4824997   8.5939988  33.8720226  31.7603731   8.1108494
  23.5200012  32.8874997   9.7909988  23.1510012  32.0854997   9.4209988
  24.4610012  32.7184997   9.8369988  23.5967289  32.7550153   9.7466316
  20.1300012  26.5474997   5.1839988  19.6830012  27.3934997   5.1649988
  19.5690012  25.9674997   4.6679988  19.9929900  26.5849916   5.1116801
  20.8410012  28.7094997   7.3099988  21.0540012  27.9394997   7.8369988
  21.5790012  28.7984997   6.7059988  20.9698496  28.6161394   7.3005300
  31.0460012  36.8664997   8.1769988  31.6660012  36.1894997   7.9029988
  30.8380012  36.6484997   9.0849988  31.1026904  36.7443870   8.2623365
  28.6180012  31.2554997  10.0689988  28.9220012  30.5694997   9.4739988
  29.3390012  31.3734997  10.6869988  28.7570671  31.1776305  10.0711816
  37.2810012  22.8564997  10.9299988  37.3300012  23.4664997  11.6659988
  37.7060012  23.3174997  10.2069988  37.3451824  23.0023741  10.9330205
  31.7590012  25.6494997  10.3969988  31.9010012  24.7034997  10.4169988
  31.6520012  25.8564997   9.4679988  31.7639864  25.5479534  10.2742339
  24.9130012  23.7504997   7.6689988  24.9570012  24.6104997   7.2509988
  24.4560012  23.1984997   7.0349988  24.8572185  23.7935799   7.5260299
  32.6360012  23.8814997   6.0699988  33.2820012  23.5524997   6.6949988
  33.1460012  24.3994997   5.4469988  32.7934264  23.9064611   6.0713862
  21.5340012  26.1474997   8.4309988  22.1870012  25.5974997   8.8629988
  21.5580012  25.8734997   7.5139988  21.6266683  26.0351466   8.3662123
  26.6900012  27.6974997   7.6459988  27.3060012  27.1714997   8.1559988
  26.1040012  27.0574997   7.2429988  26.6950810  27.5389208   7.6613173
  37.6720012  24.3344997  13.1659988  36.9840012  24.9924997  13.0699988
  37.6880012  24.1374997  14.1019988  37.5798525  24.3980462  13.2794808
  23.7240012  22.6684997  11.7429988  23.5050012  23.1984997  10.9769988
  23.0560012  22.8954997  12.3899988  23.6037600  22.7716906  11.7256379
  31.0930012  32.1684997   5.2869988  30.7970012  31.8464997   4.4359988
  30.7680012  33.0684997   5.3279988  31.0086371  32.2460215   5.1761801
  26.2930012  30.3444997  12.0299988  25.5530012  30.9424997  12.1339988
  27.0070012  30.8984997  11.7149988  26.2882237  30.5012831  12.0016465
  34.4000012  23.1724997   8.0499988  34.1840012  22.4064997   8.5829988
  35.0550012  23.6444997   8.5629988  34.4590632  23.1315889   8.1922861
  23.3170012  24.5604997   9.6949988  23.9310012  25.1934997  10.0689988
  23.8290012  24.0884997   9.0389988  23.4702296  24.5832370   9.6574252
  24.7000012  32.3084997  12.8179988  24.6950012  33.1884997  12.4399988
  23.8470012  32.2254997  13.2429988  24.5839464  32.4176117  12.8237907
  20.8210012  31.9794997   3.5999988  20.5490012  32.2084997   2.7109988
  20.8670012  32.8174997   4.0599988  20.7900094  32.1241213   3.5405697
  34.4460012  33.6014997  10.3119988  33.5050012  33.6594997  10.4739988
  34.7230012  34.5074997  10.1749988  34.3544679  33.7319443  10.3156815
  34.7470012  21.8874997  11.7299988  34.0110012  22.4984997  11.6919988
  35.4300012  22.3024997  11.2029988  34.7386541  22.0271374  11.6535832
  27.7500012  19.9744997   9.1959988  27.6330012  19.0254997   9.1409988
  26.8950012  20.3064997   9.4689988  27.6183733  19.8895409   9.2253897
  32.6980012  35.3824997   6.9379988  33.1240012  34.6754997   6.4529988
  33.0150012  36.1834997   6.5209988  32.7991019  35.3940994   6.8153130
  33.8580012  33.2834997   5.4459988  33.6000012  32.5934997   4.8349988
  33.9290012  32.8404997   6.2919988  33.8322856  33.1292124   5.4766885
  35.5440012  31.8494997  13.9239988  35.6840012  31.2584997  13.1839988
  35.7110012  32.7224997  13.5669988  35.5856778  31.8866426  13.7746965
  30.0170012  28.8114997   3.6959988  29.3050012  29.3464997   3.3439988
  30.7080012  28.8674997   3.0359988  30.0130132  28.8922543   3.5586289
  30.0700012  27.2694997   0.7349988  30.7710012  27.2914997   1.3859988
  30.3730012  26.6414997   0.0789988  30.2067830  27.1876566   0.7353711
  37.3860012  28.1894997  11.9899988  36.7330012  28.8844997  12.0789988
  37.8510012  28.3994997  11.1799988  37.3595390  28.3129425  11.8926883
  33.4220012  29.0214997   4.6479988  32.6900012  29.2494997   5.2209988
  33.8700012  28.3074997   5.1029988  33.3823095  28.9562571   4.7879119
  33.3200012  27.1954997  13.7149988  33.4000012  27.9584997  14.2869988
  32.7180012  27.4744997  13.0249988  33.2495756  27.3377134  13.7000589
  25.0680012  29.6514997   6.5299988  24.7370012  29.2814997   5.7119988
  25.6560012  28.9814997   6.8769988  25.1021873  29.5101156   6.4648102
  26.4340012  33.0794997   9.2119988  26.3400012  32.5014997   8.4549988
  27.1640012  32.7084997   9.7079988  26.5197981  32.9502390   9.1754165
  25.4340012  28.4204997  10.1639988  26.0000012  28.5414997   9.4009988
  25.7530012  29.0574997  10.8029988  25.5545786  28.5231884  10.1460040
  31.7430012  33.9234997  10.8979988  31.5030012  34.5854997  11.5459988
  31.5450012  33.0894997  11.3229988  31.6833808  33.9013134  11.0441524
  26.3140012  32.8194997  14.8809988  26.0030012  33.6014997  15.3359988
  25.6640012  32.6664997  14.1949988  26.1835558  32.9059105  14.8505871
  32.2930012  28.1834997   2.3329988  32.8730012  28.3334997   3.0799988
  32.7070012  28.6544997   1.6099988  32.4282830  28.2676841   2.3374134
  23.2340012  29.0174997  14.1099988  23.3050012  29.6684997  14.8079988
  22.3440012  29.1204997  13.7749988  23.1233117  29.1205936  14.1602700
  30.0200012  34.9204997   5.7679988  30.4940012  35.2154997   6.5459988
  29.4570012  35.6584997   5.5349988  30.0087653  35.0606932   5.8430136
  24.5540012  34.8914997  15.6439988  24.5610012  34.7554997  14.6969988
  23.6380012  34.7734997  15.8959988  24.4311714  34.8569430  15.5484666
  35.9920012  19.9334997   2.1459988  35.0920012  20.0724997   2.4409988
  36.2440012  20.7644997   1.7439988  35.9028702  20.0649074   2.1320205
  24.0580012  28.7214997   4.1199988  23.7660012  29.4894997   3.6289988
  23.3840012  28.0614997   3.9569988  23.9269081  28.7374406   4.0307340
  37.1810012  34.2994997   0.5219988  37.2550012  35.2384997   0.6929988
  38.0870012  33.9944997   0.4659988  37.3135100  34.3866722   0.5378119
  20.1510012  31.0844997  12.9349988  19.6500012  31.0564997  12.1199988
  20.1560012  30.1784997  13.2439988  20.0831526  30.9582278  12.8652872
  19.9010012  33.8644997   9.8189988  20.8470012  33.7204997   9.7999988
  19.7890012  34.6484997  10.3559988  20.0152727  33.9508046   9.8890072
  38.0990012  34.5304997  15.5009988  38.0500012  33.5754997  15.4639988
  37.2720012  34.7984997  15.9019988  37.9804940  34.4358998  15.5501375
  29.0780012  34.1044997  14.3769988  29.1650012  34.9304997  14.8519988
  28.2140012  33.7744997  14.6259988  28.9731964  34.1729878  14.4756549
  29.4920012  37.8764997   4.1829988  29.4170012  37.7554997   3.2369988
  29.5250012  38.8264997   4.3019988  29.4861848  37.9882500   4.0694834
  23.1450012  36.6654997   5.9639988  23.2980012  36.3174997   6.8429988
  22.2950012  36.3094997   5.7089988  23.0508962  36.5696650   6.0498340
  32.5940012  37.0304997   1.1849988  32.9690012  36.2864997   0.7149988
  32.5980012  36.7604997   2.1039988  32.6458915  36.8921486   1.2447824
  32.2630012  36.9564997   3.9349988  31.3270012  37.0564997   4.1129988
  32.5430012  36.2474997   4.5129988  32.1728255  36.8742711   4.0375391
  35.2510012  26.0234997  15.9809988  34.8440012  26.5044997  15.2599988
  35.2920012  25.1184997  15.6729988  35.2008437  25.9669374  15.8406683
  22.4000012  32.4074997  13.9779988  22.6160012  32.0464997  14.8369988
  21.5450012  32.0334997  13.7679988  22.3139292  32.3074111  14.0673386
  25.0190012  20.8774997   9.9729988  24.1570012  20.7904997   9.5659988
  24.9960012  21.7334997  10.4009988  24.8980330  20.9812765   9.9751863
  29.6820012  20.5994997  13.3479988  30.1020012  20.1844997  14.1009988
  28.7490012  20.4214997  13.4649988  29.6133644  20.5185900  13.4669539
  33.0080012  24.3554997  14.2009988  32.4940012  24.2294997  14.9989988
  32.8530012  25.2674997  13.9569988  32.9166852  24.4616132  14.2772158
  33.7710012  29.2164997  -0.0370012  33.8130012  28.9934997  -0.9670012
  34.6200012  29.6154997   0.1529988  33.8915396  29.2399155  -0.1386373
  29.3430012  23.0924997   0.6329988  29.0900012  23.1114997   1.5559988
  29.0870012  22.2204997   0.3319988  29.2737790  22.9772437   0.7186263
  25.1100012  25.8434997  11.0679988  24.4680012  25.8024997  11.7769988
  25.1470012  26.7694997  10.8309988  25.0271324  25.9631559  11.1329824
  25.1070012  26.0644997   5.9799988  24.2140012  25.7234997   5.9219988
  25.5570012  25.6874997   5.2249988  25.0457305  25.9668484   5.8699177
  30.6420012  26.4804997   4.7969988  30.2330012  27.2954997   4.5059988
  31.3630012  26.3404997   4.1829988  30.6834537  26.5732018   4.6741342
  29.7440012  26.6554997  16.2849988  29.1820012  25.9514997  16.6059988
  30.5710012  26.5354997  16.7529988  29.7787095  26.5427883  16.3922330
  31.6470012  25.9264997   7.6109988  31.4520012  26.5314997   6.8959988
  31.8280012  25.0924997   7.1769988  31.6447614  25.8966300   7.4544405
  22.8600012  26.1634997  12.9349988  22.8220012  26.5634997  13.8039988
  22.3690012  25.3464997  13.0259988  22.7884684  26.1078069  13.0661059
  26.2260012  23.5374997  -0.2660012  25.7950012  23.0924997   0.4639988
  25.5080012  23.9094997  -0.7780012  26.0699438  23.5268940  -0.2353201
  19.4680012  23.2794997   6.7859988  20.0990012  23.2504997   7.5049988
  19.9170012  22.8544997   6.0559988  19.6150774  23.2180492   6.7856553
  20.7420012  24.0254997   2.2099988  21.2160012  24.6164997   1.6249988
  20.0250012  24.5564997   2.5569988  20.7099341  24.1780867   2.1768836
  30.9110012  27.5644997  12.2829988  31.2340012  26.9334997  11.6399988
  30.4710012  27.0294997  12.9429988  30.8956895  27.4058441  12.2842850
  27.6880012  23.4914997   7.0669988  26.7770012  23.5484997   7.3549988
  28.1940012  23.4314997   7.8769988  27.6315413  23.4911985   7.2160622
  22.5170012  25.1204997   5.8929988  21.6270012  25.2204997   5.5529988
  22.8130012  24.2784997   5.5469988  22.4352823  25.0203545   5.7997213
  26.1700012  25.1204997   3.5499988  27.1010012  25.2494997   3.7279988
  25.9550012  25.7904997   2.8999988  26.2684247  25.2286565   3.4865747
  32.0930012  22.7264997  10.3309988  31.4170012  22.8574997  10.9949988
  31.6080012  22.5714997   9.5209988  31.9347145  22.7234905  10.3124517
  24.8440012  26.3154997   1.1169988  24.3010012  25.9354997   0.4249988
  25.6770012  26.5094997   0.6879988  24.8824399  26.2898124   0.9644526
  35.3810012  38.3984997  16.6079988  35.5810012  38.8224997  15.7729988
  36.0360012  38.7414997  17.2149988  35.4970051  38.5029648  16.5757836
  22.9790012  30.8724997  16.2159988  23.7110012  31.1264997  16.7769988
  22.1990012  31.0764997  16.7309988  22.9738232  30.9349177  16.3625760
  29.0080012  26.2794997   8.9539988  29.5730012  25.7324997   8.4069988
  28.8610012  25.7574997   9.7419988  29.0652918  26.1342024   8.9858454
  24.0100012  22.4154997   5.3719988  23.6930012  21.5134997   5.3369988
  24.7920012  22.4174997   4.8189988  24.0722284  22.2921628   5.2924783
  27.6350012  24.6674997  11.3679988  26.7990012  25.1214997  11.4779988
  28.1590012  24.9434997  12.1199988  27.5914414  24.7669376  11.4847136
  28.1790012  30.8804997   3.0519988  27.4340012  30.3734997   2.7299988
  28.0450012  30.9294997   3.9989988  28.0588776  30.8176940   3.1358647
  35.3290012  30.0134997  11.8389988  35.9710012  30.4704997  11.2949988
  34.4990012  30.1264997  11.3759988  35.3045963  30.0912704  11.7020177
  32.0770012  23.6944997   1.2519988  31.1380012  23.8064997   1.0999988
  32.3740012  24.5514997   1.5579988  31.9887666  23.8256443   1.2725768
  29.6980012  31.0644997  14.2889988  29.3530012  30.6834997  15.0959988
  29.4980012  31.9984997  14.3609988  29.6238061  31.1385228  14.4090961
  32.7950012  25.5614997   2.9119988  33.6870012  25.4244997   3.2309988
  32.8520012  26.3524997   2.3759988  32.9246285  25.6496660   2.8831691
  23.3040012  30.1754997   8.8219988  24.0490012  30.1734997   8.2209988
  23.3820012  29.3524997   9.3039988  23.4165518  30.0639315   8.8048929
  30.3050012  32.3394997   2.0779988  30.0090012  33.1654997   2.4589988
  29.6020012  31.7194997   2.2739988  30.1694914  32.3688199   2.1566443
  20.3120012  28.6364997  14.1369988  20.5350012  28.2184997  14.9689988
  19.7100012  28.0234997  13.7139988  20.2611759  28.4964668  14.1937022
  27.3280012  28.1534997  16.3499988  27.0320012  27.9874997  15.4549988
  28.2600012  27.9334997  16.3389988  27.4134166  28.1010640  16.2260536
  31.9490012  33.5264997  14.2399988  31.0480012  33.7094997  13.9719988
  31.9830012  33.7854997  15.1609988  31.8303041  33.5865512  14.3278197
  37.6800012  25.7714997   2.6069988  37.1260012  25.3754997   1.9349988
  37.7800012  26.6814997   2.3289988  37.6177059  25.8403586   2.4774401
  37.6430012  31.5714997  15.4439988  36.7920012  31.8094997  15.0769988
  38.2340012  31.5544997  14.6909988  37.6062487  31.6018258  15.2918893
  35.9750012  34.5574997   3.0719988  35.6020012  33.7314997   3.3809988
  36.2530012  34.3744997   2.1749988  35.9615630  34.4197303   2.9929626
  33.1360012  29.3654997  10.0929988  32.2070012  29.1334997  10.0659988
  33.5870012  28.5884997   9.7629988  33.0699216  29.2287238  10.0446917
  25.6790012  33.6934997   6.2259988  26.2060012  34.4664997   6.0259988
  24.7990012  33.9184997   5.9249988  25.6321773  33.8298005   6.1579010
  21.4340012  28.5554997   0.8129988  22.0500012  29.1824997   1.1929988
  20.5720012  28.8714997   1.0849988  21.4017698  28.6839430   0.9017183
  27.1060012  31.3564997   5.8029988  26.8650012  32.2814997   5.8439988
  26.3650012  30.8974997   6.1989988  26.9728409  31.4211421   5.8621377
  27.6210012  35.5054997  12.1179988  27.9830012  36.3604997  11.8839988
  28.1520012  35.2134997  12.8579988  27.7424473  35.5831060  12.1860855
  25.7890012  36.3784997   5.3479988  24.8390012  36.4834997   5.3989988
  26.1410012  37.1984997   5.6929988  25.7064203  36.5038314   5.4016650
  31.1650012  31.6044997  11.8179988  30.7390012  31.3774997  12.6449988
  31.7450012  30.8664997  11.6359988  31.1851868  31.4735299  11.9065830
  33.3680012  32.5334997   0.8919988  33.7210012  32.1534997   1.6969988
  32.4190012  32.4404997   0.9789988  33.2880441  32.4689596   1.0138559
  33.8230012  36.1564997  14.2879988  33.2220012  35.6014997  13.7919988
  34.1050012  36.8234997  13.6619988  33.7788519  36.1706841  14.1354952
  37.8710012  37.0134997   1.0929988  38.6150012  37.5994997   0.9529988
  37.1770012  37.5814997   1.4269988  37.8790292  37.1705582   1.1189961
  21.9460012  23.3894997  13.6949988  21.0530012  23.7284997  13.6269988
  21.8470012  22.5344997  14.1129988  21.8104164  23.3202588  13.7422235
  34.2340012  31.2064997   3.1189988  33.9560012  30.4784997   3.6749988
  35.1610012  31.3254997   3.3239988  34.3213124  31.1228802   3.2228845
  21.5970012  35.1944997  12.1299988  21.8140012  34.2624997  12.0989988
  21.8430012  35.4684997  13.0129988  21.6599549  35.1040636  12.2451763
  27.4590012  33.6454997  -0.6610012  27.6980012  32.8974997  -1.2080012
  27.1900012  33.2574997   0.1719988  27.4553675  33.4906638  -0.6233135
  26.3960012  33.2154997   1.7959988  26.5420012  32.6954997   2.5859988
  26.3930012  34.1224997   2.1019988  26.4155989  33.2668853   1.9456088
  22.8490012  30.4684997   2.3059988  22.1630012  30.8204997   2.8729988
  23.3710012  31.2314997   2.0589988  22.8256852  30.6198578   2.3502118
  30.6800012  23.1304997  12.5849988  31.3790012  23.2044997  13.2349988
  30.2990012  22.2664997  12.7389988  30.7241767  23.0237624  12.6948322
  31.4650012  22.7824997   3.6819988  31.6850012  23.2544997   2.8789988
  32.0230012  23.1774997   4.3519988  31.5704968  22.9004285   3.6627331
  29.1330012  34.9134997   2.5449988  28.3170012  35.4104997   2.5969988
  29.6630012  35.3884997   1.9049988  29.0929161  35.0457722   2.4655956
  28.6650012  24.5104997   4.5169988  29.4770012  25.0154997   4.5629988
  28.4200012  24.3654997   5.4309988  28.7430520  24.5600375   4.6468517
  29.2000012  25.4964997  13.7019988  29.3190012  26.0704997  14.4589988
  29.8560012  24.8084997  13.8159988  29.3049757  25.4821079  13.8210825
  29.5480012  21.5914997   5.4549988  29.2020012  22.2094997   6.0999988
  30.2070012  22.0924997   4.9739988  29.5897826  21.7435802   5.4780971
  26.4720012  35.9574997   2.5269988  26.6320012  36.7564997   2.0259988
  26.2740012  36.2634997   3.4119988  26.4671649  36.1084469   2.5779815
  25.2060012  22.6544997   2.1419988  25.1230012  23.5434997   2.4889988
  26.0960012  22.3894997   2.3739988  25.3149469  22.7401430   2.2207626
  35.4050012  23.4034997  14.5369988  34.4880012  23.6664997  14.4489988
  35.7400012  23.4004997  13.6399988  35.3249900  23.4390224  14.4037919
  34.0070012  27.1544997   8.6319988  33.2090012  26.7394997   8.3039988
  34.4520012  26.4634997   9.1229988  33.9579885  27.0043543   8.6534889
  23.4650012  33.0824997   1.2029988  24.0570012  33.7814997   1.4789988
  23.9240012  32.6494997   0.4829988  23.6081142  33.1197049   1.1434830
  21.7810012  25.7464997   0.3189988  21.7360012  26.6854997   0.4969988
  20.8930012  25.5104997   0.0489988  21.6548574  25.8431892   0.3068912
  35.0930012  36.4104997  10.2549988  34.9380012  37.0884997   9.5979988
  36.0260012  36.4824997  10.4579988  35.1978500  36.5130170  10.1925119
  22.5890012  20.5284997   8.9919988  22.3600012  20.5874997   8.0639988
  22.1460012  19.7364997   9.2979988  22.4978530  20.4295753   8.9064786
  21.5190012  34.4684997   5.1519988  20.6870012  34.9414997   5.1799988
  22.0650012  34.9784997   4.5539988  21.4789739  34.6021871   5.0749716
  20.8070012  37.0814997  16.4819988  21.3480012  36.8644997  17.2419988
  20.3260012  36.2754997  16.2929988  20.8159345  36.9429514  16.5603076
  25.4050012  36.0004997  18.1029988  26.1720012  35.5414997  18.4439988
  25.3830012  35.7744997  17.1729988  25.5071434  35.9070409  18.0240043
  29.4970012  35.5084997  -0.5220012  28.8530012  34.8774997  -0.2010012
  30.2590012  34.9774997  -0.7540012  29.5118077  35.3502920  -0.5093989
  31.9820012  34.3804997  16.8319988  31.6310012  33.5244997  17.0749988
  32.7080012  34.5234997  17.4389988  32.0320769  34.2825636  16.9473619
  34.1010012  35.3254997  -0.2880012  34.3840012  34.5314997   0.1639988
  34.8410012  35.5584997  -0.8490012  34.2397486  35.2482803  -0.3019302
  20.7140012  30.8914997  17.4369988  20.8580012  29.9894997  17.1499988
  19.9420012  31.1774997  16.9489988  20.6293322  30.8068261  17.3317881
  25.0560012  31.2354997  -0.4310012  25.1200012  30.4414997   0.0999988
  25.7090012  31.1164997  -1.1210012  25.1530241  31.1107148  -0.4515683
  27.3700012  30.8614997  16.8689988  27.0410012  31.1324997  16.0119988
  27.5220012  29.9204997  16.7819988  27.3454809  30.7713862  16.7398244
  30.4080012  32.2824997  -0.6950012  30.1390012  32.4624997   0.2059988
  30.2020012  31.3564997  -0.8260012  30.3433825  32.1820152  -0.5894786
  33.1040012  30.7774997  14.2529988  33.8500012  31.3654997  14.1329988
  32.3470012  31.3594997  14.3159988  33.1037554  30.9367011  14.2450907
  21.5470012  28.0914997  16.8569988  21.9550012  27.2344997  16.7359988
  21.2870012  28.1064997  17.7779988  21.5677568  27.9760807  16.9649588
  26.2050012  29.2074997   1.8749988  25.7450012  28.7234997   2.5609988
  26.4600012  28.5394997   1.2389988  26.1764902  29.0508731   1.8829334
  25.4940012  27.1004997  14.2309988  24.8760012  27.7754997  14.5109988
  25.8380012  27.4214997  13.3979988  25.4559615  27.2362721  14.1566581
  27.2760012  27.4504997   0.1369988  27.0960012  27.2964997  -0.7900012
  28.2260012  27.5584997   0.1819988  27.3797776  27.4440175   0.0161843
  30.5140012  29.5724997  17.5079988  31.4670012  29.6554997  17.4809988
  30.3530012  28.8604997  18.1279988  30.6226426  29.4876746  17.5880579
  36.6660012  29.8054997  -0.4170012  36.3920012  29.3804997  -1.2300012
  36.7050012  30.7364997  -0.6340012  36.6337699  29.8732484  -0.5576390
  25.8330012  24.4554997  15.3129988  25.9830012  23.7264997  14.7109988
  25.8360012  25.2324997  14.7539988  25.8539302  24.4607851  15.1550692
  26.2460012  22.8254997  12.8059988  26.7820012  23.2764997  12.1539988
  25.3940012  22.7174997  12.3829988  26.2042178  22.8726390  12.6595756
  27.8280012  28.2644997  13.0449988  28.5780012  28.1084997  12.4719988
  27.4890012  29.1164997  12.7699988  27.8848921  28.3582968  12.9293561
  32.2430012  26.0794997  18.0739988  32.4360012  25.1484997  17.9619988
  33.1010012  26.5044997  18.0639988  32.3853020  26.0096389  18.0573361
  33.5600012  28.8684997  16.1509988  33.2790012  29.5774997  15.5739988
  34.5030012  28.7954997  15.9999988  33.6489027  28.9557646  16.0515551
  24.3120012  25.6534997  17.2249988  23.5450012  25.1214997  17.0149988
  24.9910012  25.3434997  16.6249988  24.2987022  25.5387506  17.1151648
  27.0520012  20.2814997  13.2369988  26.9530012  21.2284997  13.1319988
  26.3090012  19.9094997  12.7619988  26.9380564  20.3605902  13.1584560
  28.3160012  24.6034997  16.8009988  28.0800012  24.3834997  17.7029988
  27.5320012  24.3964997  16.2909988  28.1778628  24.5454760  16.8553932
  31.0310012  23.7304997  15.8769988  30.0840012  23.7624997  16.0089988
  31.3440012  23.1054997  16.5299988  30.9435475  23.6503207  15.9834455
  32.6650012  22.3644997  17.8819988  32.5690012  21.4124997  17.8759988
  32.3440012  22.6334997  18.7419988  32.6084070  22.2704035  17.9975441
  22.4920012  23.5744997  16.9289988  22.7040012  22.8674997  16.3189988
  22.3810012  23.1364997  17.7729988  22.5059721  23.4187084  16.9596843
  27.2730012  19.5754997  15.9089988  27.9850012  18.9354997  15.8949988
  27.1720012  19.8424997  14.9949988  27.3567939  19.5239938  15.7835650
  27.6270012  21.2584997  17.9619988  27.4950012  20.7824997  17.1419988
  27.0280012  22.0024997  17.9069988  27.5279071  21.2939618  17.8422886
  27.1730012  38.1414997   1.1389988  28.1060012  38.2994997   1.2819988
  26.9090012  38.8164997   0.5139988  27.2649510  38.2543611   1.0740741
  20.7420012  32.7774997   0.6209988  21.6560012  32.8564997   0.8949988
  20.7490012  32.0904997  -0.0450012  20.8681131  32.6953961   0.5684393
  19.3910012  38.1704997   5.6989988  18.7440012  37.7084997   5.1659988
  19.7450012  37.4984997   6.2809988  19.3503849  38.0164723   5.7047959
  20.2610012  36.2514997   7.5029988  19.9260012  35.3714997   7.6749988
  20.4830012  36.5964997   8.3679988  20.2451783  36.1777500   7.6434208
  37.8090012  37.0604997  10.4839988  37.7880012  37.2454997  11.4229988
  38.5000012  37.6294997  10.1429988  37.8994618  37.1626606  10.5663864
  37.3730012  36.6284997  13.4059988  36.8850012  35.8924997  13.0349988
  37.9220012  36.2344997  14.0839988  37.3804872  36.4746249  13.4469160
  35.8230012  32.4174997  18.0439988  34.9570012  32.3124997  18.4379988
  36.2000012  33.1764997  18.4899988  35.7553308  32.5056900  18.1582393
  37.1240012  30.6744997   3.5579988  37.9740012  31.0954997   3.6849988
  37.1300012  29.9344997   4.1649988  37.2411372  30.6320803   3.6574344
  37.5190012  28.7274997   5.3819988  36.7920012  28.2484997   5.7789988
  38.1000012  28.9334997   6.1139988  37.4979375  28.6897090   5.5354129
  37.2780012  31.5124997  10.3289988  38.1110012  31.1344997  10.0489988
  37.3900012  32.4554997  10.2099988  37.4072647  31.5882218  10.2745487
  35.7640012  34.3904997  12.6359988  35.1170012  34.7154997  13.2619988
  35.2470012  33.9504997  11.9619988  35.6054029  34.3755004  12.6305827
  37.7870012  28.6284997   1.7729988  37.2650012  28.9854997   1.0539988
  37.7540012  29.3034997   2.4509988  37.7111634  28.7685413   1.7663145
  36.1360012  25.8684997   0.3239988  36.2320012  26.5354997  -0.3570012
  35.9960012  25.0524997  -0.1580012  36.1302135  25.8494500   0.1658491
  35.3050012  27.2484997   5.9449988  35.1550012  26.3034997   5.9239988
  34.9520012  27.5294997   6.7879988  35.2366625  27.1570441   6.0562346
  20.3410012  29.3264997   9.9549988  20.5250012  29.2444997   9.0189988
  21.1900012  29.2024997  10.3789988  20.4810139  29.2985003   9.8841455
  36.1620012  29.2184997  15.5829988  36.7450012  28.4844997  15.7749988
  36.7260012  29.9904997  15.6299988  36.3179769  29.2224227  15.6156159
  37.6580012  27.1214997  16.2679988  36.7950012  26.7424997  16.1019988
  38.2630012  26.3824997  16.1939988  37.6215979  26.9698023  16.2352817
  35.3830012  23.2764997  -0.5590012  35.9940012  22.9054997   0.0779988
  34.5470012  22.8554997  -0.3630012  35.3535032  23.1687554  -0.4452965
  35.0160012  24.8314997   4.4069988  35.2960012  23.9244997   4.5309988
  35.7750012  25.2654997   4.0179988  35.1569277  24.7660942   4.3713682
  35.6280012  25.4124997   9.8429988  36.5610012  25.6244997   9.8089988
  35.3930012  25.5144997  10.7649988  35.7238036  25.4552769   9.9629976
  35.6570012  26.1494997  12.6189988  34.8140012  26.4174997  12.9849988
  36.0990012  26.9714997  12.4079988  35.6014158  26.2973291  12.6405491
  19.9380012  24.5974997  16.0959988  20.8580012  24.4754997  16.3319988
  19.4890012  23.8474997  16.4849988  20.0031580  24.4793727  16.1809006
  37.9400012  20.1294997  17.9719988  38.2900012  19.4754997  17.3669988
  38.0870012  20.9664997  17.5329988  38.0078419  20.1531591  17.8297118
  35.6290012  22.0944997   4.4549988  35.8120012  21.6454997   5.2809988
  35.0300012  21.5094997   3.9919988  35.5730202  21.9539975   4.5053275
  21.1590012  22.9094997   8.9869988  21.6050012  22.1174997   9.2889988
  21.6260012  23.6254997   9.4179988  21.2830172  22.8980624   9.0864820
  19.4630012  25.9084997  10.0559988  19.9550012  25.6874997   9.2649988
  19.8260012  26.7494997  10.3369988  19.5793126  25.9918357   9.9857531
  37.4600012  22.2384997  16.3219988  36.5420012  22.5094997  16.2859988
  37.5830012  21.7034997  15.5369988  37.3511066  22.2032892  16.2110487
  37.4960012  22.1614997   0.9829988  37.9080012  21.4404997   0.5079988
  38.1780012  22.8314997   1.0419988  37.6445885  22.1532368   0.9258915
  19.7770012  22.1664997   4.1099988  18.8520012  22.3754997   3.9809988
  20.2310012  22.6504997   3.4209988  19.7117368  22.2605993   3.9991226
  34.5480012  37.1504997   6.0559988  35.2000012  36.8034997   5.4479988
  35.0580012  37.6394997   6.7019988  34.7062637  37.1690597   6.0600236
  19.7410012  20.9044997  12.4549988  19.0760012  20.6584997  13.0979988
  19.2980012  21.5264997  11.8769988  19.5900956  20.9548632  12.4649352
  21.9330012  34.0794997  16.5989988  21.1120012  34.2544997  16.1389988
  21.6800012  34.0064997  17.5199988  21.7866164  34.0935622  16.6604923
  24.8870012  35.0544997  12.8579988  24.4620012  35.8634997  12.5749988
  25.7910012  35.1394997  12.5559988  24.9510271  35.1768469  12.7783776
  29.1980012  36.4534997  15.8169988  29.3830012  36.1194997  16.6949988
  30.0440012  36.7624997  15.4949988  29.3377539  36.4496047  15.8935605
  31.5430012  37.7394997  15.0609988  32.2200012  37.1064997  14.8209988
  31.8650012  38.1404997  15.8679988  31.6791637  37.7071154  15.1372793
  36.4600012  20.3284997  14.1409988  35.6480012  20.6534997  13.7529988
  36.6930012  19.5684997  13.6079988  36.3803423  20.2702436  14.0158253
  22.2890012  38.3104997  12.9049988  21.5680012  38.7504997  12.4539988
  21.9230012  38.0594997  13.7539988  22.1409804  38.3367698  12.9579840
  24.7560012  37.9104997  11.9349988  23.8910012  37.9824997  12.3389988
  24.7010012  38.4574997  11.1509988  24.6302085  37.9942685  11.8843362
  29.4660012  37.7984997  11.1099988  29.0100012  38.3274997  10.4559988
  29.6290012  38.4014997  11.8359988  29.4255585  37.9524468  11.1185062
  31.7940012  36.6764997  12.0549988  30.8890012  36.8414997  11.7899988
  32.2230012  37.5294997  11.9899988  31.7280799  36.8144483  12.0099182
  34.3980012  38.2464997  12.3499988  34.2160012  39.1624997  12.1399988
  34.5750012  37.8364997  11.5039988  34.3970210  38.3164822  12.2067885
  21.7030012  36.9334997   9.8149988  21.6850012  36.5084997  10.6729988
  22.5080012  36.6154997   9.4069988  21.8093875  36.8323812   9.8771655
  23.8450012  35.6434997   8.4699988  23.6260012  34.7274997   8.6399988
  24.6690012  35.7834997   8.9359988  23.9264420  35.5370520   8.5562774
  26.3820012  36.1134997   9.3189988  26.5950012  35.2254997   9.0319988
  26.4460012  36.0794997  10.2729988  26.4198232  35.9873102   9.4087397
  29.8900012  21.7774997   8.4629988  29.2160012  21.1484997   8.7189988
  30.4540012  21.2934997   7.8599988  29.8739230  21.6258744   8.4165340
  35.0330012  19.8854997   8.5759988  35.6370012  20.4324997   8.0739988
  34.1630012  20.2044997   8.3359988  34.9981241  20.0035806   8.4747654
  36.7600012  21.0234997   6.9089988  37.3720012  20.5094997   6.3829988
  37.1420012  21.9014997   6.9329988  36.8954540  21.0717140   6.8401830
  22.2170012  20.4114997   6.2849988  21.4400012  20.1774997   5.7779988
  22.7470012  19.6144997   6.2939988  22.1822330  20.2716988   6.2167742
  21.0530012  20.2094997   2.0889988  21.4920012  20.8204997   1.4969988
  20.4200012  20.7474997   2.5629988  21.0274514  20.3659257   2.0720930
  26.7960012  20.3384997   6.0989988  27.6710012  20.7264997   6.0689988
  26.6600012  20.1234997   7.0209988  26.8973695  20.3625184   6.2196440
  32.3530012  20.3684997   7.7479988  32.4290012  20.4634997   6.7979988
  32.0780012  19.4604997   7.8769988  32.3262321  20.2587867   7.6355079
  33.7060012  20.3944997   3.4399988  33.0040012  21.0094997   3.2309988
  33.2620012  19.5564997   3.5709988  33.5496330  20.3655783   3.4290328
  20.9540012  36.1574997   2.9869988  20.2690012  36.1194997   2.3189988
  20.9580012  37.0704997   3.2749988  20.8608193  36.2757016   2.9345284
  22.9140012  22.1254997   0.5309988  23.4060012  21.4954997   0.0039988
  23.5380012  22.4214997   1.1949988  23.0655446  22.0793199   0.5485980
  27.9400012  22.4184997   2.9879988  28.1180012  21.7724997   3.6709988
  27.8870012  23.2524997   3.4559988  27.9571829  22.4427985   3.1445940
  29.8190012  37.3674997   1.3839988  30.6850012  37.7334997   1.2059988
  29.5720012  36.9274997   0.5699988  29.9042392  37.3581756   1.2496289
  36.5280012  36.9304997   4.0629988  36.3330012  36.1824997   3.4979988
  36.4890012  37.6884997   3.4799988  36.4960380  36.9306099   3.9068384
  22.1750012  20.9254997  15.8029988  21.8090012  20.1604997  16.2459988
  23.0880012  20.9544997  16.0899988  22.2482790  20.8247224  15.9024070
  24.1480012  20.2764997  17.3389988  25.0460012  20.0024997  17.1539988
  23.7610012  19.5334997  17.8029988  24.2186612  20.1385914  17.3763643
  22.7720012  37.0774997   0.0119988  22.5050012  37.3644997   0.8849988
  23.5440012  36.5314997   0.1639988  22.8397488  37.0430294   0.1521050
  32.5690012  19.6084997  17.5209988  32.6460012  19.1824997  18.3749988
  33.4630012  19.6224997  17.1779988  32.7003428  19.5520879  17.5915310
  35.7450012  35.6814997  16.2129988  34.9630012  35.4954997  15.6939988
  35.6730012  36.6104997  16.4309988  35.6281777  35.7816492  16.1714048
  50.1510012  29.5674997   6.2439988  50.2400012  30.5114997   6.1119988
  49.5130012  29.2924997   5.5859988  50.0769081  29.6594830   6.1369614
  49.0840012  28.8224997   9.6629988  49.0460012  28.1764997  10.3679988
  48.7620012  28.3564997   8.8919988  49.0352333  28.6709408   9.6552978
  41.4530012  28.4374997  11.2559988  41.4940012  27.8114997  11.9789988
  42.1560012  29.0614997  11.4379988  41.5536363  28.4361196  11.3796044
  52.7900012  31.7614997   7.9639988  52.3500012  31.0414997   8.4149988
  52.7770012  32.4824997   8.5939988  52.7280226  31.7603731   8.1108494
  42.3760012  32.8874997   9.7909988  42.0070012  32.0854997   9.4209988
  43.3170012  32.7184997   9.8369988  42.4527289  32.7550153   9.7466316
  38.9860012  26.5474997   5.1839988  38.5390012  27.3934997   5.1649988
  38.4250012  25.9674997   4.6679988  38.8489900  26.5849916   5.1116801
  39.6970012  28.7094997   7.3099988  39.9100012  27.9394997   7.8369988
  40.4350012  28.7984997   6.7059988  39.8258496  28.6161394   7.3005300
  49.9020012  36.8664997   8.1769988  50.5220012  36.1894997   7.9029988
  49.6940012  36.6484997   9.0849988  49.9586904  36.7443870   8.2623365
  47.4740012  31.2554997  10.0689988  47.7780012  30.5694997   9.4739988
  48.1950012  31.3734997  10.6869988  47.6130671  31.1776305  10.0711816
  56.1370012  22.8564997  10.9299988  56.1860012  23.4664997  11.6659988
  56.5620012  23.3174997  10.2069988  56.2011824  23.0023741  10.9330205
  50.6150012  25.6494997  10.3969988  50.7570012  24.7034997  10.4169988
  50.5080012  25.8564997   9.4679988  50.6199864  25.5479534  10.2742339
  43.7690012  23.7504997   7.6689988  43.8130012  24.6104997   7.2509988
  43.3120012  23.1984997   7.0349988  43.7132185  23.7935799   7.5260299
  51.4920012  23.8814997   6.0699988  52.1380012  23.5524997   6.6949988
  52.0020012  24.3994997   5.4469988  51.6494264  23.9064611   6.0713862
  40.3900012  26.1474997   8.4309988  41.0430012  25.5974997   8.8629988
  40.4140012  25.8734997   7.5139988  40.4826683  26.0351466   8.3662123
  45.5460012  27.6974997   7.6459988  46.1620012  27.1714997   8.1559988
  44.9600012  27.0574997   7.2429988  45.5510810  27.5389208   7.6613173
  56.5280012  24.3344997  13.1659988  55.8400012  24.9924997  13.0699988
  56.5440012  24.1374997  14.1019988  56.4358525  24.3980462  13.2794808
  42.5800012  22.6684997  11.7429988  42.3610012  23.1984997  10.9769988
  41.9120012  22.8954997  12.3899988  42.4597600  22.7716906  11.7256379
  49.9490012  32.1684997   5.2869988  49.6530012  31.8464997   4.4359988
  49.6240012  33.0684997   5.3279988  49.8646371  32.2460215   5.1761801
  45.1490012  30.3444997  12.0299988  44.4090012  30.9424997  12.1339988
  45.8630012  30.8984997  11.7149988  45.1442237  30.5012831  12.0016465
  53.2560012  23.1724997   8.0499988  53.0400012  22.4064997   8.5829988
  53.9110012  23.6444997   8.5629988  53.3150632  23.1315889   8.1922861
  42.1730012  24.5604997   9.6949988  42.7870012  25.1934997  10.0689988
  42.6850012  24.0884997   9.0389988  42.3262296  24.5832370   9.6574252
  43.5560012  32.3084997  12.8179988  43.5510012  33.1884997  12.4399988
  42.7030012  32.2254997  13.2429988  43.4399464  32.4176117  12.8237907
  39.6770012  31.9794997   3.5999988  39.4050012  32.2084997   2.7109988
  39.7230012  32.8174997   4.0599988  39.6460094  32.1241213   3.5405697
  53.3020012  33.6014997  10.3119988  52.3610012  33.6594997  10.4739988
  53.5790012  34.5074997  10.1749988  53.2104679  33.7319443  10.3156815
  53.6030012  21.8874997  11.7299988  52.8670012  22.4984997  11.6919988
  54.2860012  22.3024997  11.2029988  53.5946541  22.0271374  11.6535832
  46.6060012  19.9744997   9.1959988  46.4890012  19.0254997   9.1409988
  45.7510012  20.3064997   9.4689988  46.4743733  19.8895409   9.2253897
  51.5540012  35.3824997   6.9379988  51.9800012  34.6754997   6.4529988
  51.8710012  36.1834997   6.5209988  51.6551019  35.3940994   6.8153130
  52.7140012  33.2834997   5.4459988  52.4560012  32.5934997   4.8349988
  52.7850012  32.8404997   6.2919988  52.6882856  33.1292124   5.4766885
  54.4000012  31.8494997  13.9239988  54.5400012  31.2584997  13.1839988
  54.5670012  32.7224997  13.5669988  54.4416778  31.8866426  13.7746965
  48.8730012  28.8114997   3.6959988  48.1610012  29.3464997   3.3439988
  49.5640012  28.8674997   3.0359988  48.8690132  28.8922543   3.5586289
  48.9260012  27.2694997   0.7349988  49.6270012  27.2914997   1.3859988
  49.2290012  26.6414997   0.0789988  49.0627830  27.1876566   0.7353711
  56.2420012  28.1894997  11.9899988  55.5890012  28.8844997  12.0789988
  56.7070012  28.3994997  11.1799988  56.2155390  28.3129425  11.8926883
  52.2780012  29.0214997   4.6479988  51.5460012  29.2494997   5.2209988
  52.7260012  28.3074997   5.1029988  52.2383095  28.9562571   4.7879119
  52.1760012  27.1954997  13.7149988  52.2560012  27.9584997  14.2869988
  51.5740012  27.4744997  13.0249988  52.1055756  27.3377134  13.7000589
  43.9240012  29.6514997   6.5299988  43.5930012  29.2814997   5.7119988
  44.5120012  28.9814997   6.8769988  43.9581873  29.5101156   6.4648102
  45.2900012  33.0794997   9.2119988  45.1960012  32.5014997   8.4549988
  46.0200012  32.7084997   9.7079988  45.3757981  32.9502390   9.1754165
  44.2900012  28.4204997  10.1639988  44.8560012  28.5414997   9.4009988
  44.6090012  29.0574997  10.8029988  44.4105786  28.5231884  10.1460040
  50.5990012  33.9234997  10.8979988  50.3590012  34.5854997  11.5459988
  50.4010012  33.0894997  11.3229988  50.5393808  33.9013134  11.0441524
  45.1700012  32.8194997  14.8809988  44.8590012  33.6014997  15.3359988
  44.5200012  32.6664997  14.1949988  45.0395558  32.9059105  14.8505871
  51.1490012  28.1834997   2.3329988  51.7290012  28.3334997   3.0799988
  51.5630012  28.6544997   1.6099988  51.2842830  28.2676841   2.3374134
  42.0900012  29.0174997  14.1099988  42.1610012  29.6684997  14.8079988
  41.2000012  29.1204997  13.7749988  41.9793117  29.1205936  14.1602700
  48.8760012  34.9204997   5.7679988  49.3500012  35.2154997   6.5459988
  48.3130012  35.6584997   5.5349988  48.8647653  35.0606932   5.8430136
  43.4100012  34.8914997  15.6439988  43.4170012  34.7554997  14.6969988
  42.4940012  34.7734997  15.8959988  43.2871714  34.8569430  15.5484666
  54.8480012  19.9334997   2.1459988  53.9480012  20.0724997   2.4409988
  55.1000012  20.7644997   1.7439988  54.7588702  20.0649074   2.1320205
  42.9140012  28.7214997   4.1199988  42.6220012  29.4894997   3.6289988
  42.2400012  28.0614997   3.9569988  42.7829081  28.7374406   4.0307340
  56.0370012  34.2994997   0.5219988  56.1110012  35.2384997   0.6929988
  56.9430012  33.9944997   0.4659988  56.1695100  34.3866722   0.5378119
  39.0070012  31.0844997  12.9349988  38.5060012  31.0564997  12.1199988
  39.0120012  30.1784997  13.2439988  38.9391526  30.9582278  12.8652872
  38.7570012  33.8644997   9.8189988  39.7030012  33.7204997   9.7999988
  38.6450012  34.6484997  10.3559988  38.8712727  33.9508046   9.8890072
  56.9550012  34.5304997  15.5009988  56.9060012  33.5754997  15.4639988
  56.1280012  34.7984997  15.9019988  56.8364940  34.4358998  15.5501375
  47.9340012  34.1044997  14.3769988  48.0210012  34.9304997  14.8519988
  47.0700012  33.7744997  14.6259988  47.8291964  34.1729878  14.4756549
  48.3480012  37.8764997   4.1829988  48.2730012  37.7554997   3.2369988
  48.3810012  38.8264997   4.3019988  48.3421848  37.9882500   4.0694834
  42.0010012  36.6654997   5.9639988  42.1540012  36.3174997   6.8429988
  41.1510012  36.3094997   5.7089988  41.9068962  36.5696650   6.0498340
  51.4500012  37.0304997   1.1849988  51.8250012  36.2864997   0.7149988
  51.4540012  36.7604997   2.1039988  51.5018915  36.8921486   1.2447824
  51.1190012  36.9564997   3.9349988  50.1830012  37.0564997   4.1129988
  51.3990012  36.2474997   4.5129988  51.0288255  36.8742711   4.0375391
  54.1070012  26.0234997  15.9809988  53.7000012  26.5044997  15.2599988
  54.1480012  25.1184997  15.6729988  54.0568437  25.9669374  15.8406683
  41.2560012  32.4074997  13.9779988  41.4720012  32.0464997  14.8369988
  40.4010012  32.0334997  13.7679988  41.1699292  32.3074111  14.0673386
  43.8750012  20.8774997   9.9729988  43.0130012  20.7904997   9.5659988
  43.8520012  21.7334997  10.4009988  43.7540330  20.9812765   9.9751863
  48.5380012  20.5994997  13.3479988  48.9580012  20.1844997  14.1009988
  47.6050012  20.4214997  13.4649988  48.4693644  20.5185900  13.4669539
  51.8640012  24.3554997  14.2009988  51.3500012  24.2294997  14.9989988
  51.7090012  25.2674997  13.9569988  51.7726852  24.4616132  14.2772158
  52.6270012  29.2164997  -0.0370012  52.6690012  28.9934997  -0.9670012
  53.4760012  29.6154997   0.1529988  52.7475396  29.2399155  -0.1386373
  48.1990012  23.0924997   0.6329988  47.9460012  23.1114997   1.5559988
  47.9430012  22.2204997   0.3319988  48.1297790  22.9772437   0.7186263
  43.9660012  25.8434997  11.0679988  43.3240012  25.8024997  11.7769988
  44.0030012  26.7694997  10.8309988  43.8831324  25.9631559  11.1329824
  43.9630012  26.0644997   5.9799988  43.0700012  25.7234997   5.9219988
  44.4130012  25.6874997   5.2249988  43.9017305  25.9668484   5.8699177
  49.4980012  26.4804997   4.7969988  49.0890012  27.2954997   4.5059988
  50.2190012  26.3404997   4.1829988  49.5394537  26.5732018   4.6741342
  48.6000012  26.6554997  16.2849988  48.0380012  25.9514997  16.6059988
  49.4270012  26.5354997  16.7529988  48.6347095  26.5427883  16.3922330
  50.5030012  25.9264997   7.6109988  50.3080012  26.5314997   6.8959988
  50.6840012  25.0924997   7.1769988  50.5007614  25.8966300   7.4544405
  41.7160012  26.1634997  12.9349988  41.6780012  26.5634997  13.8039988
  41.2250012  25.3464997  13.0259988  41.6444684  26.1078069  13.0661059
  45.0820012  23.5374997  -0.2660012  44.6510012  23.0924997   0.4639988
  44.3640012  23.9094997  -0.7780012  44.9259438  23.5268940  -0.2353201
  38.3240012  23.2794997   6.7859988  38.9550012  23.2504997   7.5049988
  38.7730012  22.8544997   6.0559988  38.4710774  23.2180492   6.7856553
  39.5980012  24.0254997   2.2099988  40.0720012  24.6164997   1.6249988
  38.8810012  24.5564997   2.5569988  39.5659341  24.1780867   2.1768836
  49.7670012  27.5644997  12.2829988  50.0900012  26.9334997  11.6399988
  49.3270012  27.0294997  12.9429988  49.7516895  27.4058441  12.2842850
  46.5440012  23.4914997   7.0669988  45.6330012  23.5484997   7.3549988
  47.0500012  23.4314997   7.8769988  46.4875413  23.4911985   7.2160622
  41.3730012  25.1204997   5.8929988  40.4830012  25.2204997   5.5529988
  41.6690012  24.2784997   5.5469988  41.2912823  25.0203545   5.7997213
  45.0260012  25.1204997   3.5499988  45.9570012  25.2494997   3.7279988
  44.8110012  25.7904997   2.8999988  45.1244247  25.2286565   3.4865747
  50.9490012  22.7264997  10.3309988  50.2730012  22.8574997  10.9949988
  50.4640012  22.5714997   9.5209988  50.7907145  22.7234905  10.3124517
  43.7000012  26.3154997   1.1169988  43.1570012  25.9354997   0.4249988
  44.5330012  26.5094997   0.6879988  43.7384399  26.2898124   0.9644526
  54.2370012  38.3984997  16.6079988  54.4370012  38.8224997  15.7729988
  54.8920012  38.7414997  17.2149988  54.3530051  38.5029648  16.5757836
  41.8350012  30.8724997  16.2159988  42.5670012  31.1264997  16.7769988
  41.0550012  31.0764997  16.7309988  41.8298232  30.9349177  16.3625760
  47.8640012  26.2794997   8.9539988  48.4290012  25.7324997   8.4069988
  47.7170012  25.7574997   9.7419988  47.9212918  26.1342024   8.9858454
  42.8660012  22.4154997   5.3719988  42.5490012  21.5134997   5.3369988
  43.6480012  22.4174997   4.8189988  42.9282284  22.2921628   5.2924783
  46.4910012  24.6674997  11.3679988  45.6550012  25.1214997  11.4779988
  47.0150012  24.9434997  12.1199988  46.4474414  24.7669376  11.4847136
  47.0350012  30.8804997   3.0519988  46.2900012  30.3734997   2.7299988
  46.9010012  30.9294997   3.9989988  46.9148776  30.8176940   3.1358647
  54.1850012  30.0134997  11.8389988  54.8270012  30.4704997  11.2949988
  53.3550012  30.1264997  11.3759988  54.1605963  30.0912704  11.7020177
  50.9330012  23.6944997   1.2519988  49.9940012  23.8064997   1.0999988
  51.2300012  24.5514997   1.5579988  50.8447666  23.8256443   1.2725768
  48.5540012  31.0644997  14.2889988  48.2090012  30.6834997  15.0959988
  48.3540012  31.9984997  14.3609988  48.4798061  31.1385228  14.4090961
  51.6510012  25.5614997   2.9119988  52.5430012  25.4244997   3.2309988
  51.7080012  26.3524997   2.3759988  51.7806285  25.6496660   2.8831691
  42.1600012  30.1754997   8.8219988  42.9050012  30.1734997   8.2209988
  42.2380012  29.3524997   9.3039988  42.2725518  30.0639315   8.8048929
  49.1610012  32.3394997   2.0779988  48.8650012  33.1654997   2.4589988
  48.4580012  31.7194997   2.2739988  49.0254914  32.3688199   2.1566443
  39.1680012  28.6364997  14.1369988  39.3910012  28.2184997  14.9689988
  38.5660012  28.0234997  13.7139988  39.1171759  28.4964668  14.1937022
  46.1840012  28.1534997  16.3499988  45.8880012  27.9874997  15.4549988
  47.1160012  27.9334997  16.3389988  46.2694166  28.1010640  16.2260536
  50.8050012  33.5264997  14.2399988  49.9040012  33.7094997  13.9719988
  50.8390012  33.7854997  15.1609988  50.6863041  33.5865512  14.3278197
  56.5360012  25.7714997   2.6069988  55.9820012  25.3754997   1.9349988
  56.6360012  26.6814997   2.3289988  56.4737059  25.8403586   2.4774401
  56.4990012  31.5714997  15.4439988  55.6480012  31.8094997  15.0769988
  57.0900012  31.5544997  14.6909988  56.4622487  31.6018258  15.2918893
  54.8310012  34.5574997   3.0719988  54.4580012  33.7314997   3.3809988
  55.1090012  34.3744997   2.1749988  54.8175630  34.4197303   2.9929626
  51.9920012  29.3654997  10.0929988  51.0630012  29.1334997  10.0659988
  52.4430012  28.5884997   9.7629988  51.9259216  29.2287238  10.0446917
  44.5350012  33.6934997   6.2259988  45.0620012  34.4664997   6.0259988
  43.6550012  33.9184997   5.9249988  44.4881773  33.8298005   6.1579010
  40.2900012  28.5554997   0.8129988  40.9060012  29.1824997   1.1929988
  39.4280012  28.8714997   1.0849988  40.2577698  28.6839430   0.9017183
  45.9620012  31.3564997   5.8029988  45.7210012  32.2814997   5.8439988
  45.2210012  30.8974997   6.1989988  45.8288409  31.4211421   5.8621377
  46.4770012  35.5054997  12.1179988  46.8390012  36.3604997  11.8839988
  47.0080012  35.2134997  12.8579988  46.5984473  35.5831060  12.1860855
  44.6450012  36.3784997   5.3479988  43.6950012  36.4834997   5.3989988
  44.9970012  37.1984997   5.6929988  44.5624203  36.5038314   5.4016650
  50.0210012  31.6044997  11.8179988  49.5950012  31.3774997  12.6449988
  50.6010012  30.8664997  11.6359988  50.0411868  31.4735299  11.9065830
  52.2240012  32.5334997   0.8919988  52.5770012  32.1534997   1.6969988
  51.2750012  32.4404997   0.9789988  52.1440441  32.4689596   1.0138559
  52.6790012  36.1564997  14.2879988  52.0780012  35.6014997  13.7919988
  52.9610012  36.8234997  13.6619988  52.6348519  36.1706841  14.1354952
  56.7270012  37.0134997   1.0929988  57.4710012  37.5994997   0.9529988
  56.0330012  37.5814997   1.4269988  56.7350292  37.1705582   1.1189961
  40.8020012  23.3894997  13.6949988  39.9090012  23.7284997  13.6269988
  40.7030012  22.5344997  14.1129988  40.6664164  23.3202588  13.7422235
  53.0900012  31.2064997   3.1189988  52.8120012  30.4784997   3.6749988
  54.0170012  31.3254997   3.3239988  53.1773124  31.1228802   3.2228845
  40.4530012  35.1944997  12.1299988  40.6700012  34.2624997  12.0989988
  40.6990012  35.4684997  13.0129988  40.5159549  35.1040636  12.2451763
  46.3150012  33.6454997  -0.6610012  46.5540012  32.8974997  -1.2080012
  46.0460012  33.2574997   0.1719988  46.3113675  33.4906638  -0.6233135
  45.2520012  33.2154997   1.7959988  45.3980012  32.6954997   2.5859988
  45.2490012  34.1224997   2.1019988  45.2715989  33.2668853   1.9456088
  41.7050012  30.4684997   2.3059988  41.0190012  30.8204997   2.8729988
  42.2270012  31.2314997   2.0589988  41.6816852  30.6198578   2.3502118
  49.5360012  23.1304997  12.5849988  50.2350012  23.2044997  13.2349988
  49.1550012  22.2664997  12.7389988  49.5801767  23.0237624  12.6948322
  50.3210012  22.7824997   3.6819988  50.5410012  23.2544997   2.8789988
  50.8790012  23.1774997   4.3519988  50.4264968  22.9004285   3.6627331
  47.9890012  34.9134997   2.5449988  47.1730012  35.4104997   2.5969988
  48.5190012  35.3884997   1.9049988  47.9489161  35.0457722   2.4655956
  47.5210012  24.5104997   4.5169988  48.3330012  25.0154997   4.5629988
  47.2760012  24.3654997   5.4309988  47.5990520  24.5600375   4.6468517
  48.0560012  25.4964997  13.7019988  48.1750012  26.0704997  14.4589988
  48.7120012  24.8084997  13.8159988  48.1609757  25.4821079  13.8210825
  48.4040012  21.5914997   5.4549988  48.0580012  22.2094997   6.0999988
  49.0630012  22.0924997   4.9739988  48.4457826  21.7435802   5.4780971
  45.3280012  35.9574997   2.5269988  45.4880012  36.7564997   2.0259988
  45.1300012  36.2634997   3.4119988  45.3231649  36.1084469   2.5779815
  44.0620012  22.6544997   2.1419988  43.9790012  23.5434997   2.4889988
  44.9520012  22.3894997   2.3739988  44.1709469  22.7401430   2.2207626
  54.2610012  23.4034997  14.5369988  53.3440012  23.6664997  14.4489988
  54.5960012  23.4004997  13.6399988  54.1809900  23.4390224  14.4037919
  52.8630012  27.1544997   8.6319988  52.0650012  26.7394997   8.3039988
  53.3080012  26.4634997   9.1229988  52.8139885  27.0043543   8.6534889
  42.3210012  33.0824997   1.2029988  42.9130012  33.7814997   1.4789988
  42.7800012  32.6494997   0.4829988  42.4641142  33.1197049   1.1434830
  40.6370012  25.7464997   0.3189988  40.5920012  26.6854997   0.4969988
  39.7490012  25.5104997   0.0489988  40.5108574  25.8431892   0.3068912
  53.9490012  36.4104997  10.2549988  53.7940012  37.0884997   9.5979988
  54.8820012  36.4824997  10.4579988  54.0538500  36.5130170  10.1925119
  41.4450012  20.5284997   8.9919988  41.2160012  20.5874997   8.0639988
  41.0020012  19.7364997   9.2979988  41.3538530  20.4295753   8.9064786
  40.3750012  34.4684997   5.1519988  39.5430012  34.9414997   5.1799988
  40.9210012  34.9784997   4.5539988  40.3349739  34.6021871   5.0749716
  39.6630012  37.0814997  16.4819988  40.2040012  36.8644997  17.2419988
  39.1820012  36.2754997  16.2929988  39.6719345  36.9429514  16.5603076
  44.2610012  36.0004997  18.1029988  45.0280012  35.5414997  18.4439988
  44.2390012  35.7744997  17.1729988  44.3631434  35.9070409  18.0240043
  48.3530012  35.5084997  -0.5220012  47.7090012  34.8774997  -0.2010012
  49.1150012  34.9774997  -0.7540012  48.3678077  35.3502920  -0.5093989
  50.8380012  34.3804997  16.8319988  50.4870012  33.5244997  17.0749988
  51.5640012  34.5234997  17.4389988  50.8880769  34.2825636  16.9473619
  52.9570012  35.3254997  -0.2880012  53.2400012  34.5314997   0.1639988
  53.6970012  35.5584997  -0.8490012  53.0957486  35.2482803  -0.3019302
  39.5700012  30.8914997  17.4369988  39.7140012  29.9894997  17.1499988
  38.7980012  31.1774997  16.9489988  39.4853322  30.8068261  17.3317881
  43.9120012  31.2354997  -0.4310012  43.9760012  30.4414997   0.0999988
  44.5650012  31.1164997  -1.1210012  44.0090241  31.1107148  -0.4515683
  46.2260012  30.8614997  16.8689988  45.8970012  31.1324997  16.0119988
  46.3780012  29.9204997  16.7819988  46.2014809  30.7713862  16.7398244
  49.2640012  32.2824997  -0.6950012  48.9950012  32.4624997   0.2059988
  49.0580012  31.3564997  -0.8260012  49.1993825  32.1820152  -0.5894786
  51.9600012  30.7774997  14.2529988  52.7060012  31.3654997  14.1329988
  51.2030012  31.3594997  14.3159988  51.9597554  30.9367011  14.2450907
  40.4030012  28.0914997  16.8569988  40.8110012  27.2344997  16.7359988
  40.1430012  28.1064997  17.7779988  40.4237568  27.9760807  16.9649588
  45.0610012  29.2074997   1.8749988  44.6010012  28.7234997   2.5609988
  45.3160012  28.5394997   1.2389988  45.0324902  29.0508731   1.8829334
  44.3500012  27.1004997  14.2309988  43.7320012  27.7754997  14.5109988
  44.6940012  27.4214997  13.3979988  44.3119615  27.2362721  14.1566581
  46.1320012  27.4504997   0.1369988  45.9520012  27.2964997  -0.7900012
  47.0820012  27.5584997   0.1819988  46.2357776  27.4440175   0.0161843
  49.3700012  29.5724997  17.5079988  50.3230012  29.6554997  17.4809988
  49.2090012  28.8604997  18.1279988  49.4786426  29.4876746  17.5880579
  55.5220012  29.8054997  -0.4170012  55.2480012  29.3804997  -1.2300012
  55.5610012  30.7364997  -0.6340012  55.4897699  29.8732484  -0.5576390
  44.6890012  24.4554997  15.3129988  44.8390012  23.7264997  14.7109988
  44.6920012  25.2324997  14.7539988  44.7099302  24.4607851  15.1550692
  45.1020012  22.8254997  12.8059988  45.6380012  23.2764997  12.1539988
  44.2500012  22.7174997  12.3829988  45.0602178  22.8726390  12.6595756
  46.6840012  28.2644997  13.0449988  47.4340012  28.1084997  12.4719988
  46.3450012  29.1164997  12.7699988  46.7408921  28.3582968  12.9293561
  51.0990012  26.0794997  18.0739988  51.2920012  25.1484997  17.9619988
  51.9570012  26.5044997  18.0639988  51.2413020  26.0096389  18.0573361
  52.4160012  28.8684997  16.1509988  52.1350012  29.5774997  15.5739988
  53.3590012  28.7954997  15.9999988  52.5049027  28.9557646  16.0515551
  43.1680012  25.6534997  17.2249988  42.4010012  25.1214997  17.0149988
  43.8470012  25.3434997  16.6249988  43.1547022  25.5387506  17.1151648
  45.9080012  20.2814997  13.2369988  45.8090012  21.2284997  13.1319988
  45.1650012  19.9094997  12.7619988  45.7940564  20.3605902  13.1584560
  47.1720012  24.6034997  16.8009988  46.9360012  24.3834997  17.7029988
  46.3880012  24.3964997  16.2909988  47.0338628  24.5454760  16.8553932
  49.8870012  23.7304997  15.8769988  48.9400012  23.7624997  16.0089988
  50.2000012  23.1054997  16.5299988  49.7995475  23.6503207  15.9834455
  51.5210012  22.3644997  17.8819988  51.4250012  21.4124997  17.8759988
  51.2000012  22.6334997  18.7419988  51.4644070  22.2704035  17.9975441
  41.3480012  23.5744997  16.9289988  41.5600012  22.8674997  16.3189988
  41.2370012  23.1364997  17.7729988  41.3619721  23.4187084  16.9596843
  46.1290012  19.5754997  15.9089988  46.8410012  18.9354997  15.8949988
  46.0280012  19.8424997  14.9949988  46.2127939  19.5239938  15.7835650
  46.4830012  21.2584997  17.9619988  46.3510012  20.7824997  17.1419988
  45.8840012  22.0024997  17.9069988  46.3839071  21.2939618  17.8422886
  46.0290012  38.1414997   1.1389988  46.9620012  38.2994997   1.2819988
  45.7650012  38.8164997   0.5139988  46.1209510  38.2543611   1.0740741
  39.5980012  32.7774997   0.6209988  40.5120012  32.8564997   0.8949988
  39.6050012  32.0904997  -0.0450012  39.7241131  32.6953961   0.5684393
  38.2470012  38.1704997   5.6989988  37.6000012  37.7084997   5.1659988
  38.6010012  37.4984997   6.2809988  38.2063849  38.0164723   5.7047959
  39.1170012  36.2514997   7.5029988  38.7820012  35.3714997   7.6749988
  39.3390012  36.5964997   8.3679988  39.1011783  36.1777500   7.6434208
  56.6650012  37.0604997  10.4839988  56.6440012  37.2454997  11.4229988
  57.3560012  37.6294997  10.1429988  56.7554618  37.1626606  10.5663864
  56.2290012  36.6284997  13.4059988  55.7410012  35.8924997  13.0349988
  56.7780012  36.2344997  14.0839988  56.2364872  36.4746249  13.4469160
  54.6790012  32.4174997  18.0439988  53.8130012  32.3124997  18.4379988
  55.0560012  33.1764997  18.4899988  54.6113308  32.5056900  18.1582393
  55.9800012  30.6744997   3.5579988  56.8300012  31.0954997   3.6849988
  55.9860012  29.9344997   4.1649988  56.0971372  30.6320803   3.6574344
  56.3750012  28.7274997   5.3819988  55.6480012  28.2484997   5.7789988
  56.9560012  28.9334997   6.1139988  56.3539375  28.6897090   5.5354129
  56.1340012  31.5124997  10.3289988  56.9670012  31.1344997  10.0489988
  56.2460012  32.4554997  10.2099988  56.2632647  31.5882218  10.2745487
  54.6200012  34.3904997  12.6359988  53.9730012  34.7154997  13.2619988
  54.1030012  33.9504997  11.9619988  54.4614029  34.3755004  12.6305827
  56.6430012  28.6284997   1.7729988  56.1210012  28.9854997   1.0539988
  56.6100012  29.3034997   2.4509988  56.5671634  28.7685413   1.7663145
  54.9920012  25.8684997   0.3239988  55.0880012  26.5354997  -0.3570012
  54.8520012  25.0524997  -0.1580012  54.9862135  25.8494500   0.1658491
  54.1610012  27.2484997   5.9449988  54.0110012  26.3034997   5.9239988
  53.8080012  27.5294997   6.7879988  54.0926625  27.1570441   6.0562346
  39.1970012  29.3264997   9.9549988  39.3810012  29.2444997   9.0189988
  40.0460012  29.2024997  10.3789988  39.3370139  29.2985003   9.8841455
  55.0180012  29.2184997  15.5829988  55.6010012  28.4844997  15.7749988
  55.5820012  29.9904997  15.6299988  55.1739769  29.2224227  15.6156159
  56.5140012  27.1214997  16.2679988  55.6510012  26.7424997  16.1019988
  57.1190012  26.3824997  16.1939988  56.4775979  26.9698023  16.2352817
  54.2390012  23.2764997  -0.5590012  54.8500012  22.9054997   0.0779988
  53.4030012  22.8554997  -0.3630012  54.2095032  23.1687554  -0.4452965
  53.8720012  24.8314997   4.4069988  54.1520012  23.9244997   4.5309988
  54.6310012  25.2654997   4.0179988  54.0129277  24.7660942   4.3713682
  54.4840012  25.4124997   9.8429988  55.4170012  25.6244997   9.8089988
  54.2490012  25.5144997  10.7649988  54.5798036  25.4552769   9.9629976
  54.5130012  26.1494997  12.6189988  53.6700012  26.4174997  12.9849988
  54.9550012  26.9714997  12.4079988  54.4574158  26.2973291  12.6405491
  38.7940012  24.5974997  16.0959988  39.7140012  24.4754997  16.3319988
  38.3450012  23.8474997  16.4849988  38.8591580  24.4793727  16.1809006
  56.7960012  20.1294997  17.9719988  57.1460012  19.4754997  17.3669988
  56.9430012  20.9664997  17.5329988  56.8638419  20.1531591  17.8297118
  54.4850012  22.0944997   4.4549988  54.6680012  21.6454997   5.2809988
  53.8860012  21.5094997   3.9919988  54.4290202  21.9539975   4.5053275
  40.0150012  22.9094997   8.9869988  40.4610012  22.1174997   9.2889988
  40.4820012  23.6254997   9.4179988  40.1390172  22.8980624   9.0864820
  38.3190012  25.9084997  10.0559988  38.8110012  25.6874997   9.2649988
  38.6820012  26.7494997  10.3369988  38.4353126  25.9918357   9.9857531
  56.3160012  22.2384997  16.3219988  55.3980012  22.5094997  16.2859988
  56.4390012  21.7034997  15.5369988  56.2071066  22.2032892  16.2110487
  56.3520012  22.1614997   0.9829988  56.7640012  21.4404997   0.5079988
  57.0340012  22.8314997   1.0419988  56.5005885  22.1532368   0.9258915
  38.6330012  22.1664997   4.1099988  37.7080012  22.3754997   3.9809988
  39.0870012  22.6504997   3.4209988  38.5677368  22.2605994   3.9991226
  53.4040012  37.1504997   6.0559988  54.0560012  36.8034997   5.4479988
  53.9140012  37.6394997   6.7019988  53.5622637  37.1690597   6.0600236
  38.5970012  20.9044997  12.4549988  37.9320012  20.6584997  13.0979988
  38.1540012  21.5264997  11.8769988  38.4460956  20.9548632  12.4649352
  40.7890012  34.0794997  16.5989988  39.9680012  34.2544997  16.1389988
  40.5360012  34.0064997  17.5199988  40.6426164  34.0935622  16.6604923
  43.7430012  35.0544997  12.8579988  43.3180012  35.8634997  12.5749988
  44.6470012  35.1394997  12.5559988  43.8070271  35.1768469  12.7783776
  48.0540012  36.4534997  15.8169988  48.2390012  36.1194997  16.6949988
  48.9000012  36.7624997  15.4949988  48.1937539  36.4496047  15.8935605
  50.3990012  37.7394997  15.0609988  51.0760012  37.1064997  14.8209988
  50.7210012  38.1404997  15.8679988  50.5351637  37.7071154  15.1372793
  55.3160012  20.3284997  14.1409988  54.5040012  20.6534997  13.7529988
  55.5490012  19.5684997  13.6079988  55.2363423  20.2702436  14.0158253
  41.1450012  38.3104997  12.9049988  40.4240012  38.7504997  12.4539988
  40.7790012  38.0594997  13.7539988  40.9969804  38.3367698  12.9579840
  43.6120012  37.9104997  11.9349988  42.7470012  37.9824997  12.3389988
  43.5570012  38.4574997  11.1509988  43.4862085  37.9942685  11.8843362
  48.3220012  37.7984997  11.1099988  47.8660012  38.3274997  10.4559988
  48.4850012  38.4014997  11.8359988  48.2815585  37.9524468  11.1185062
  50.6500012  36.6764997  12.0549988  49.7450012  36.8414997  11.7899988
  51.0790012  37.5294997  11.9899988  50.5840799  36.8144483  12.0099182
  53.2540012  38.2464997  12.3499988  53.0720012  39.1624997  12.1399988
  53.4310012  37.8364997  11.5039988  53.2530210  38.3164822  12.2067885
  40.5590012  36.9334997   9.8149988  40.5410012  36.5084997  10.6729988
  41.3640012  36.6154997   9.4069988  40.6653875  36.8323812   9.8771655
  42.7010012  35.6434997   8.4699988  42.4820012  34.7274997   8.6399988
  43.5250012  35.7834997   8.9359988  42.7824420  35.5370520   8.5562774
  45.2380012  36.1134997   9.3189988  45.4510012  35.2254997   9.0319988
  45.3020012  36.0794997  10.2729988  45.2758232  35.9873102   9.4087397
  48.7460012  21.7774997   8.4629988  48.0720012  21.1484997   8.7189988
  49.3100012  21.2934997   7.8599988  48.7299230  21.6258744   8.4165340
  53.8890012  19.8854997   8.5759988  54.4930012  20.4324997   8.0739988
  53.0190012  20.2044997   8.3359988  53.8541241  20.0035806   8.4747654
  55.6160012  21.0234997   6.9089988  56.2280012  20.5094997   6.3829988
  55.9980012  21.9014997   6.9329988  55.7514540  21.0717140   6.8401830
  41.0730012  20.4114997   6.2849988  40.2960012  20.1774997   5.7779988
  41.6030012  19.6144997   6.2939988  41.0382330  20.2716988   6.2167742
  39.9090012  20.2094997   2.0889988  40.3480012  20.8204997   1.4969988
  39.2760012  20.7474997   2.5629988  39.8834514  20.3659257   2.0720930
  45.6520012  20.3384997   6.0989988  46.5270012  20.7264997   6.0689988
  45.5160012  20.1234997   7.0209988  45.7533695  20.3625184   6.2196440
  51.2090012  20.3684997   7.7479988  51.2850012  20.4634997   6.7979988
  50.9340012  19.4604997   7.8769988  51.1822321  20.2587867   7.6355079
  52.5620012  20.3944997   3.4399988  51.8600012  21.0094997   3.2309988
  52.1180012  19.5564997   3.5709988  52.4056330  20.3655783   3.4290328
  39.8100012  36.1574997   2.9869988  39.1250012  36.1194997   2.3189988
  39.8140012  37.0704997   3.2749988  39.7168193  36.2757016   2.9345284
  41.7700012  22.1254997   0.5309988  42.2620012  21.4954997   0.0039988
  42.3940012  22.4214997   1.1949988  41.9215446  22.0793199   0.5485980
  46.7960012  22.4184997   2.9879988  46.9740012  21.7724997   3.6709988
  46.7430012  23.2524997   3.4559988  46.8131829  22.4427985   3.1445940
  48.6750012  37.3674997   1.3839988  49.5410012  37.7334997   1.2059988
  48.4280012  36.9274997   0.5699988  48.7602392  37.3581756   1.2496289
  55.3840012  36.9304997   4.0629988  55.1890012  36.1824997   3.4979988
  55.3450012  37.6884997   3.4799988  55.3520380  36.9306099   3.9068384
  41.0310012  20.9254997  15.8029988  40.6650012  20.1604997  16.2459988
  41.9440012  20.9544997  16.0899988  41.1042790  20.8247224  15.9024070
  43.0040012  20.2764997  17.3389988  43.9020012  20.0024997  17.1539988
  42.6170012  19.5334997  17.8029988  43.0746612  20.1385914  17.3763643
  41.6280012  37.0774997   0.0119988  41.3610012  37.3644997   0.8849988
  42.4000012  36.5314997   0.1639988  41.6957488  37.0430294   0.1521050
  51.4250012  19.6084997  17.5209988  51.5020012  19.1824997  18.3749988
  52.3190012  19.6224997  17.1779988  51.5563428  19.5520879  17.5915310
  54.6010012  35.6814997  16.2129988  53.8190012  35.4954997  15.6939988
  54.5290012  36.6104997  16.4309988  54.4841777  35.7816492  16.1714048
  69.0070012  29.5674997   6.2439988  69.0960012  30.5114997   6.1119988
  68.3690012  29.2924997   5.5859988  68.9329081  29.6594830   6.1369614
  67.9400012  28.8224997   9.6629988  67.9020012  28.1764997  10.3679988
  67.6180012  28.3564997   8.8919988  67.8912333  28.6709408   9.6552978
  60.3090012  28.4374997  11.2559988  60.3500012  27.8114997  11.9789988
  61.0120012  29.0614997  11.4379988  60.4096363  28.4361196  11.3796044
  71.6460012  31.7614997   7.9639988  71.2060012  31.0414997   8.4149988
  71.6330012  32.4824997   8.5939988  71.5840226  31.7603731   8.1108494
  61.2320012  32.8874997   9.7909988  60.8630012  32.0854997   9.4209988
  62.1730012  32.7184997   9.8369988  61.3087289  32.7550153   9.7466316
  57.8420012  26.5474997   5.1839988  57.3950012  27.3934997   5.1649988
  57.2810012  25.9674997   4.6679988  57.7049900  26.5849916   5.1116801
  58.5530012  28.7094997   7.3099988  58.7660012  27.9394997   7.8369988
  59.2910012  28.7984997   6.7059988  58.6818496  28.6161394   7.3005300
  68.7580012  36.8664997   8.1769988  69.3780012  36.1894997   7.9029988
  68.5500012  36.6484997   9.0849988  68.8146904  36.7443870   8.2623365
  66.3300012  31.2554997  10.0689988  66.6340012  30.5694997   9.4739988
  67.0510012  31.3734997  10.6869988  66.4690671  31.1776305  10.0711816
  74.9930012  22.8564997  10.9299988  75.0420012  23.4664997  11.6659988
  75.4180012  23.3174997  10.2069988  75.0571824  23.0023741  10.9330205
  69.4710012  25.6494997  10.3969988  69.6130012  24.7034997  10.4169988
  69.3640012  25.8564997   9.4679988  69.4759863  25.5479534  10.2742339
  62.6250012  23.7504997   7.6689988  62.6690012  24.6104997   7.2509988
  62.1680012  23.1984997   7.0349988  62.5692185  23.7935799   7.5260299
  70.3480012  23.8814997   6.0699988  70.9940012  23.5524997   6.6949988
  70.8580012  24.3994997   5.4469988  70.5054264  23.9064611   6.0713862
  59.2460012  26.1474997   8.4309988  59.8990012  25.5974997   8.8629988
  59.2700012  25.8734997   7.5139988  59.3386683  26.0351466   8.3662123
  64.4020012  27.6974997   7.6459988  65.0180012  27.1714997   8.1559988
  63.8160012  27.0574997   7.2429988  64.4070810  27.5389208   7.6613173
  75.3840012  24.3344997  13.1659988  74.6960012  24.9924997  13.0699988
  75.4000012  24.1374997  14.1019988  75.2918525  24.3980462  13.2794808
  61.4360012  22.6684997  11.7429988  61.2170012  23.1984997  10.9769988
  60.7680012  22.8954997  12.3899988  61.3157600  22.7716906  11.7256379
  68.8050012  32.1684997   5.2869988  68.5090012  31.8464997   4.4359988
  68.4800012  33.0684997   5.3279988  68.7206371  32.2460215   5.1761801
  64.0050012  30.3444997  12.0299988  63.2650012  30.9424997  12.1339988
  64.7190012  30.8984997  11.7149988  64.0002237  30.5012831  12.0016465
  72.1120012  23.1724997   8.0499988  71.8960012  22.4064997   8.5829988
  72.7670012  23.6444997   8.5629988  72.1710632  23.1315889   8.1922861
  61.0290012  24.5604997   9.6949988  61.6430012  25.1934997  10.0689988
  61.5410012  24.0884997   9.0389988  61.1822296  24.5832370   9.6574252
  62.4120012  32.3084997  12.8179988  62.4070012  33.1884997  12.4399988
  61.5590012  32.2254997  13.2429988  62.2959464  32.4176117  12.8237907
  58.5330012  31.9794997   3.5999988  58.2610012  32.2084997   2.7109988
  58.5790012  32.8174997   4.0599988  58.5020094  32.1241213   3.5405697
  72.1580012  33.6014997  10.3119988  71.2170012  33.6594997  10.4739988
  72.4350012  34.5074997  10.1749988  72.0664679  33.7319443  10.3156815
  72.4590012  21.8874997  11.7299988  71.7230012  22.4984997  11.6919988
  73.1420012  22.3024997  11.2029988  72.4506541  22.0271374  11.6535832
  65.4620012  19.9744997   9.1959988  65.3450012  19.0254997   9.1409988
  64.6070012  20.3064997   9.4689988  65.3303733  19.8895409   9.2253897
  70.4100012  35.3824997   6.9379988  70.8360012  34.6754997   6.4529988
  70.7270012  36.1834997   6.5209988  70.5111019  35.3940994   6.8153130
  71.5700012  33.2834997   5.4459988  71.3120012  32.5934997   4.8349988
  71.6410012  32.8404997   6.2919988  71.5442856  33.1292124   5.4766885
  73.2560012  31.8494997  13.9239988  73.3960012  31.2584997  13.1839988
  73.4230012  32.7224997  13.5669988  73.2976778  31.8866426  13.7746965
  67.7290012  28.8114997   3.6959988  67.0170012  29.3464997   3.3439988
  68.4200012  28.8674997   3.0359988  67.7250132  28.8922543   3.5586289
  67.7820012  27.2694997   0.7349988  68.4830012  27.2914997   1.3859988
  68.0850012  26.6414997   0.0789988  67.9187830  27.1876566   0.7353711
  75.0980012  28.1894997  11.9899988  74.4450012  28.8844997  12.0789988
  75.5630012  28.3994997  11.1799988  75.0715390  28.3129425  11.8926883
  71.1340012  29.0214997   4.6479988  70.4020012  29.2494997   5.2209988
  71.5820012  28.3074997   5.1029988  71.0943095  28.9562571   4.7879119
  71.0320012  27.1954997  13.7149988  71.1120012  27.9584997  14.2869988
  70.4300012  27.4744997  13.0249988  70.9615756  27.3377134  13.7000589
  62.7800012  29.6514997   6.5299988  62.4490012  29.2814997   5.7119988
  63.3680012  28.9814997   6.8769988  62.8141873  29.5101156   6.4648102
  64.1460012  33.0794997   9.2119988  64.0520012  32.5014997   8.4549988
  64.8760012  32.7084997   9.7079988  64.2317981  32.9502390   9.1754165
  63.1460012  28.4204997  10.1639988  63.7120012  28.5414997   9.4009988
  63.4650012  29.0574997  10.8029988  63.2665786  28.5231884  10.1460040
  69.4550012  33.9234997  10.8979988  69.2150012  34.5854997  11.5459988
  69.2570012  33.0894997  11.3229988  69.3953808  33.9013134  11.0441524
  64.0260012  32.8194997  14.8809988  63.7150012  33.6014997  15.3359988
  63.3760012  32.6664997  14.1949988  63.8955558  32.9059105  14.8505871
  70.0050012  28.1834997   2.3329988  70.5850012  28.3334997   3.0799988
  70.4190012  28.6544997   1.6099988  70.1402830  28.2676841   2.3374134
  60.9460012  29.0174997  14.1099988  61.0170012  29.6684997  14.8079988
  60.0560012  29.1204997  13.7749988  60.8353117  29.1205936  14.1602700
  67.7320012  34.9204997   5.7679988  68.2060012  35.2154997   6.5459988
  67.1690012  35.6584997   5.5349988  67.7207653  35.0606932   5.8430136
  62.2660012  34.8914997  15.6439988  62.2730012  34.7554997  14.6969988
  61.3500012  34.7734997  15.8959988  62.1431714  34.8569430  15.5484666
  73.7040012  19.9334997   2.1459988  72.8040012  20.0724997   2.4409988
  73.9560012  20.7644997   1.7439988  73.6148702  20.0649074   2.1320205
  61.7700012  28.7214997   4.1199988  61.4780012  29.4894997   3.6289988
  61.0960012  28.0614997   3.9569988  61.6389081  28.7374406   4.0307340
  74.8930012  34.2994997   0.5219988  74.9670012  35.2384997   0.6929988
  75.7990012  33.9944997   0.4659988  75.0255100  34.3866722   0.5378119
  57.8630012  31.0844997  12.9349988  57.3620012  31.0564997  12.1199988
  57.8680012  30.1784997  13.2439988  57.7951526  30.9582278  12.8652872
  57.6130012  33.8644997   9.8189988  58.5590012  33.7204997   9.7999988
  57.5010012  34.6484997  10.3559988  57.7272727  33.9508046   9.8890072
  75.8110012  34.5304997  15.5009988  75.7620012  33.5754997  15.4639988
  74.9840012  34.7984997  15.9019988  75.6924940  34.4358998  15.5501375
  66.7900012  34.1044997  14.3769988  66.8770012  34.9304997  14.8519988
  65.9260012  33.7744997  14.6259988  66.6851964  34.1729878  14.4756549
  67.2040012  37.8764997   4.1829988  67.1290012  37.7554997   3.2369988
  67.2370012  38.8264997   4.3019988  67.1981848  37.9882500   4.0694834
  60.8570012  36.6654997   5.9639988  61.0100012  36.3174997   6.8429988
  60.0070012  36.3094997   5.7089988  60.7628962  36.5696650   6.0498340
  70.3060012  37.0304997   1.1849988  70.6810012  36.2864997   0.7149988
  70.3100012  36.7604997   2.1039988  70.3578915  36.8921486   1.2447824
  69.9750012  36.9564997   3.9349988  69.0390012  37.0564997   4.1129988
  70.2550012  36.2474997   4.5129988  69.8848255  36.8742711   4.0375391
  72.9630012  26.0234997  15.9809988  72.5560012  26.5044997  15.2599988
  73.0040012  25.1184997  15.6729988  72.9128437  25.9669374  15.8406683
  60.1120012  32.4074997  13.9779988  60.3280012  32.0464997  14.8369988
  59.2570012  32.0334997  13.7679988  60.0259292  32.3074111  14.0673386
  62.7310012  20.8774997   9.9729988  61.8690012  20.7904997   9.5659988
  62.7080012  21.7334997  10.4009988  62.6100330  20.9812765   9.9751863
  67.3940012  20.5994997  13.3479988  67.8140012  20.1844997  14.1009988
  66.4610012  20.4214997  13.4649988  67.3253644  20.5185900  13.4669539
  70.7200012  24.3554997  14.2009988  70.2060012  24.2294997  14.9989988
  70.5650012  25.2674997  13.9569988  70.6286852  24.4616132  14.2772158
  71.4830012  29.2164997  -0.0370012  71.5250012  28.9934997  -0.9670012
  72.3320012  29.6154997   0.1529988  71.6035396  29.2399155  -0.1386373
  67.0550012  23.0924997   0.6329988  66.8020012  23.1114997   1.5559988
  66.7990012  22.2204997   0.3319988  66.9857790  22.9772437   0.7186263
  62.8220012  25.8434997  11.0679988  62.1800012  25.8024997  11.7769988
  62.8590012  26.7694997  10.8309988  62.7391324  25.9631559  11.1329824
  62.8190012  26.0644997   5.9799988  61.9260012  25.7234997   5.9219988
  63.2690012  25.6874997   5.2249988  62.7577305  25.9668484   5.8699177
  68.3540012  26.4804997   4.7969988  67.9450012  27.2954997   4.5059988
  69.0750012  26.3404997   4.1829988  68.3954537  26.5732018   4.6741342
  67.4560012  26.6554997  16.2849988  66.8940012  25.9514997  16.6059988
  68.2830012  26.5354997  16.7529988  67.4907095  26.5427883  16.3922330
  69.3590012  25.9264997   7.6109988  69.1640012  26.5314997   6.8959988
  69.5400012  25.0924997   7.1769988  69.3567614  25.8966300   7.4544405
  60.5720012  26.1634997  12.9349988  60.5340012  26.5634997  13.8039988
  60.0810012  25.3464997  13.0259988  60.5004684  26.1078069  13.0661059
  63.9380012  23.5374997  -0.2660012  63.5070012  23.0924997   0.4639988
  63.2200012  23.9094997  -0.7780012  63.7819438  23.5268940  -0.2353201
  57.1800012  23.2794997   6.7859988  57.8110012  23.2504997   7.5049988
  57.6290012  22.8544997   6.0559988  57.3270774  23.2180492   6.7856553
  58.4540012  24.0254997   2.2099988  58.9280012  24.6164997   1.6249988
  57.7370012  24.5564997   2.5569988  58.4219341  24.1780867   2.1768836
  68.6230012  27.5644997  12.2829988  68.9460012  26.9334997  11.6399988
  68.1830012  27.0294997  12.9429988  68.6076895  27.4058440  12.2842850
  65.4000012  23.4914997   7.0669988  64.4890012  23.5484997   7.3549988
  65.9060012  23.4314997   7.8769988  65.3435413  23.4911985   7.2160622
  60.2290012  25.1204997   5.8929988  59.3390012  25.2204997   5.5529988
  60.5250012  24.2784997   5.5469988  60.1472823  25.0203545   5.7997213
  63.8820012  25.1204997   3.5499988  64.8130012  25.2494997   3.7279988
  63.6670012  25.7904997   2.8999988  63.9804247  25.2286565   3.4865747
  69.8050012  22.7264997  10.3309988  69.1290012  22.8574997  10.9949988
  69.3200012  22.5714997   9.5209988  69.6467145  22.7234905  10.3124517
  62.5560012  26.3154997   1.1169988  62.0130012  25.9354997   0.4249988
  63.3890012  26.5094997   0.6879988  62.5944399  26.2898124   0.9644526
  73.0930012  38.3984997  16.6079988  73.2930012  38.8224997  15.7729988
  73.7480012  38.7414997  17.2149988  73.2090051  38.5029648  16.5757836
  60.6910012  30.8724997  16.2159988  61.4230012  31.1264997  16.7769988
  59.9110012  31.0764997  16.7309988  60.6858232  30.9349177  16.3625760
  66.7200012  26.2794997   8.9539988  67.2850012  25.7324997   8.4069988
  66.5730012  25.7574997   9.7419988  66.7772918  26.1342024   8.9858454
  61.7220012  22.4154997   5.3719988  61.4050012  21.5134997   5.3369988
  62.5040012  22.4174997   4.8189988  61.7842284  22.2921628   5.2924783
  65.3470012  24.6674997  11.3679988  64.5110012  25.1214997  11.4779988
  65.8710012  24.9434997  12.1199988  65.3034414  24.7669376  11.4847136
  65.8910012  30.8804997   3.0519988  65.1460012  30.3734997   2.7299988
  65.7570012  30.9294997   3.9989988  65.7708776  30.8176940   3.1358647
  73.0410012  30.0134997  11.8389988  73.6830012  30.4704997  11.2949988
  72.2110012  30.1264997  11.3759988  73.0165963  30.0912704  11.7020177
  69.7890012  23.6944997   1.2519988  68.8500012  23.8064997   1.0999988
  70.0860012  24.5514997   1.5579988  69.7007666  23.8256443   1.2725768
  67.4100012  31.0644997  14.2889988  67.0650012  30.6834997  15.0959988
  67.2100012  31.9984997  14.3609988  67.3358061  31.1385228  14.4090961
  70.5070012  25.5614997   2.9119988  71.3990012  25.4244997   3.2309988
  70.5640012  26.3524997   2.3759988  70.6366285  25.6496660   2.8831691
  61.0160012  30.1754997   8.8219988  61.7610012  30.1734997   8.2209988
  61.0940012  29.3524997   9.3039988  61.1285518  30.0639315   8.8048929
  68.0170012  32.3394997   2.0779988  67.7210012  33.1654997   2.4589988
  67.3140012  31.7194997   2.2739988  67.8814914  32.3688199   2.1566443
  58.0240012  28.6364997  14.1369988  58.2470012  28.2184997  14.9689988
  57.4220012  28.0234997  13.7139988  57.9731759  28.4964668  14.1937022
  65.0400012  28.1534997  16.3499988  64.7440012  27.9874997  15.4549988
  65.9720012  27.9334997  16.3389988  65.1254166  28.1010640  16.2260536
  69.6610012  33.5264997  14.2399988  68.7600012  33.7094997  13.9719988
  69.6950012  33.7854997  15.1609988  69.5423041  33.5865512  14.3278197
  75.3920012  25.7714997   2.6069988  74.8380012  25.3754997   1.9349988
  75.4920012  26.6814997   2.3289988  75.3297059  25.8403586   2.4774401
  75.3550012  31.5714997  15.4439988  74.5040012  31.8094997  15.0769988
  75.9460012  31.5544997  14.6909988  75.3182487  31.6018258  15.2918893
  73.6870012  34.5574997   3.0719988  73.3140012  33.7314997   3.3809988
  73.9650012  34.3744997   2.1749988  73.6735630  34.4197303   2.9929626
  70.8480012  29.3654997  10.0929988  69.9190012  29.1334997  10.0659988
  71.2990012  28.5884997   9.7629988  70.7819216  29.2287238  10.0446917
  63.3910012  33.6934997   6.2259988  63.9180012  34.4664997   6.0259988
  62.5110012  33.9184997   5.9249988  63.3441773  33.8298005   6.1579010
  59.1460012  28.5554997   0.8129988  59.7620012  29.1824997   1.1929988
  58.2840012  28.8714997   1.0849988  59.1137698  28.6839430   0.9017183
  64.8180012  31.3564997   5.8029988  64.5770012  32.2814997   5.8439988
  64.0770012  30.8974997   6.1989988  64.6848409  31.4211421   5.8621377
  65.3330012  35.5054997  12.1179988  65.6950012  36.3604997  11.8839988
  65.8640012  35.2134997  12.8579988  65.4544473  35.5831060  12.1860855
  63.5010012  36.3784997   5.3479988  62.5510012  36.4834997   5.3989988
  63.8530012  37.1984997   5.6929988  63.4184203  36.5038314   5.4016650
  68.8770012  31.6044997  11.8179988  68.4510012  31.3774997  12.6449988
  69.4570012  30.8664997  11.6359988  68.8971868  31.4735299  11.9065830
  71.0800012  32.5334997   0.8919988  71.4330012  32.1534997   1.6969988
  70.1310012  32.4404997   0.9789988  71.0000441  32.4689596   1.0138559
  71.5350012  36.1564997  14.2879988  70.9340012  35.6014997  13.7919988
  71.8170012  36.8234997  13.6619988  71.4908519  36.1706841  14.1354952
  75.5830012  37.0134997   1.0929988  76.3270012  37.5994997   0.9529988
  74.8890012  37.5814997   1.4269988  75.5910292  37.1705582   1.1189961
  59.6580012  23.3894997  13.6949988  58.7650012  23.7284997  13.6269988
  59.5590012  22.5344997  14.1129988  59.5224164  23.3202588  13.7422235
  71.9460012  31.2064997   3.1189988  71.6680012  30.4784997   3.6749988
  72.8730012  31.3254997   3.3239988  72.0333124  31.1228802   3.2228845
  59.3090012  35.1944997  12.1299988  59.5260012  34.2624997  12.0989988
  59.5550012  35.4684997  13.0129988  59.3719549  35.1040636  12.2451763
  65.1710012  33.6454997  -0.6610012  65.4100012  32.8974997  -1.2080012
  64.9020012  33.2574997   0.1719988  65.1673675  33.4906638  -0.6233135
  64.1080012  33.2154997   1.7959988  64.2540012  32.6954997   2.5859988
  64.1050012  34.1224997   2.1019988  64.1275989  33.2668853   1.9456088
  60.5610012  30.4684997   2.3059988  59.8750012  30.8204997   2.8729988
  61.0830012  31.2314997   2.0589988  60.5376852  30.6198578   2.3502118
  68.3920012  23.1304997  12.5849988  69.0910012  23.2044997  13.2349988
  68.0110012  22.2664997  12.7389988  68.4361767  23.0237624  12.6948322
  69.1770012  22.7824997   3.6819988  69.3970012  23.2544997   2.8789988
  69.7350012  23.1774997   4.3519988  69.2824968  22.9004285   3.6627331
  66.8450012  34.9134997   2.5449988  66.0290012  35.4104997   2.5969988
  67.3750012  35.3884997   1.9049988  66.8049161  35.0457722   2.4655956
  66.3770012  24.5104997   4.5169988  67.1890012  25.0154997   4.5629988
  66.1320012  24.3654997   5.4309988  66.4550520  24.5600375   4.6468517
  66.9120012  25.4964997  13.7019988  67.0310012  26.0704997  14.4589988
  67.5680012  24.8084997  13.8159988  67.0169757  25.4821079  13.8210825
  67.2600012  21.5914997   5.4549988  66.9140012  22.2094997   6.0999988
  67.9190012  22.0924997   4.9739988  67.3017826  21.7435802   5.4780971
  64.1840012  35.9574997   2.5269988  64.3440012  36.7564997   2.0259988
  63.9860012  36.2634997   3.4119988  64.1791649  36.1084469   2.5779815
  62.9180012  22.6544997   2.1419988  62.8350012  23.5434997   2.4889988
  63.8080012  22.3894997   2.3739988  63.0269469  22.7401430   2.2207626
  73.1170012  23.4034997  14.5369988  72.2000012  23.6664997  14.4489988
  73.4520012  23.4004997  13.6399988  73.0369900  23.4390224  14.4037919
  71.7190012  27.1544997   8.6319988  70.9210012  26.7394997   8.3039988
  72.1640012  26.4634997   9.1229988  71.6699885  27.0043543   8.6534889
  61.1770012  33.0824997   1.2029988  61.7690012  33.7814997   1.4789988
  61.6360012  32.6494997   0.4829988  61.3201142  33.1197049   1.1434830
  59.4930012  25.7464997   0.3189988  59.4480012  26.6854997   0.4969988
  58.6050012  25.5104997   0.0489988  59.3668574  25.8431892   0.3068912
  72.8050012  36.4104997  10.2549988  72.6500012  37.0884997   9.5979988
  73.7380012  36.4824997  10.4579988  72.9098500  36.5130170  10.1925119
  60.3010012  20.5284997   8.9919988  60.0720012  20.5874997   8.0639988
  59.8580012  19.7364997   9.2979988  60.2098530  20.4295753   8.9064786
  59.2310012  34.4684997   5.1519988  58.3990012  34.9414997   5.1799988
  59.7770012  34.9784997   4.5539988  59.1909739  34.6021871   5.0749716
  58.5190012  37.0814997  16.4819988  59.0600012  36.8644997  17.2419988
  58.0380012  36.2754997  16.2929988  58.5279345  36.9429514  16.5603076
  63.1170012  36.0004997  18.1029988  63.8840012  35.5414997  18.4439988
  63.0950012  35.7744997  17.1729988  63.2191434  35.9070409  18.0240043
  67.2090012  35.5084997  -0.5220012  66.5650012  34.8774997  -0.2010012
  67.9710012  34.9774997  -0.7540012  67.2238077  35.3502920  -0.5093989
  69.6940012  34.3804997  16.8319988  69.3430012  33.5244997  17.0749988
  70.4200012  34.5234997  17.4389988  69.7440769  34.2825636  16.9473619
  71.8130012  35.3254997  -0.2880012  72.0960012  34.5314997   0.1639988
  72.5530012  35.5584997  -0.8490012  71.9517486  35.2482803  -0.3019302
  58.4260012  30.8914997  17.4369988  58.5700012  29.9894997  17.1499988
  57.6540012  31.1774997  16.9489988  58.3413322  30.8068261  17.3317881
  62.7680012  31.2354997  -0.4310012  62.8320012  30.4414997   0.0999988
  63.4210012  31.1164997  -1.1210012  62.8650241  31.1107148  -0.4515683
  65.0820012  30.8614997  16.8689988  64.7530012  31.1324997  16.0119988
  65.2340012  29.9204997  16.7819988  65.0574809  30.7713862  16.7398244
  68.1200012  32.2824997  -0.6950012  67.8510012  32.4624997   0.2059988
  67.9140012  31.3564997  -0.8260012  68.0553825  32.1820152  -0.5894786
  70.8160012  30.7774997  14.2529988  71.5620012  31.3654997  14.1329988
  70.0590012  31.3594997  14.3159988  70.8157554  30.9367011  14.2450907
  59.2590012  28.0914997  16.8569988  59.6670012  27.2344997  16.7359988
  58.9990012  28.1064997  17.7779988  59.2797568  27.9760807  16.9649588
  63.9170012  29.2074997   1.8749988  63.4570012  28.7234997   2.5609988
  64.1720012  28.5394997   1.2389988  63.8884902  29.0508731   1.8829334
  63.2060012  27.1004997  14.2309988  62.5880012  27.7754997  14.5109988
  63.5500012  27.4214997  13.3979988  63.1679615  27.2362721  14.1566581
  64.9880012  27.4504997   0.1369988  64.8080012  27.2964997  -0.7900012
  65.9380012  27.5584997   0.1819988  65.0917776  27.4440175   0.0161843
  68.2260012  29.5724997  17.5079988  69.1790012  29.6554997  17.4809988
  68.0650012  28.8604997  18.1279988  68.3346426  29.4876746  17.5880579
  74.3780012  29.8054997  -0.4170012  74.1040012  29.3804997  -1.2300012
  74.4170012  30.7364997  -0.6340012  74.3457699  29.8732484  -0.5576390
  63.5450012  24.4554997  15.3129988  63.6950012  23.7264997  14.7109988
  63.5480012  25.2324997  14.7539988  63.5659302  24.4607851  15.1550692
  63.9580012  22.8254997  12.8059988  64.4940012  23.2764997  12.1539988
  63.1060012  22.7174997  12.3829988  63.9162178  22.8726390  12.6595756
  65.5400012  28.2644997  13.0449988  66.2900012  28.1084997  12.4719988
  65.2010012  29.1164997  12.7699988  65.5968921  28.3582968  12.9293561
  69.9550012  26.0794997  18.0739988  70.1480012  25.1484997  17.9619988
  70.8130012  26.5044997  18.0639988  70.0973020  26.0096389  18.0573361
  71.2720012  28.8684997  16.1509988  70.9910012  29.5774997  15.5739988
  72.2150012  28.7954997  15.9999988  71.3609027  28.9557646  16.0515551
  62.0240012  25.6534997  17.2249988  61.2570012  25.1214997  17.0149988
  62.7030012  25.3434997  16.6249988  62.0107022  25.5387506  17.1151648
  64.7640012  20.2814997  13.2369988  64.6650012  21.2284997  13.1319988
  64.0210012  19.9094997  12.7619988  64.6500563  20.3605902  13.1584560
  66.0280012  24.6034997  16.8009988  65.7920012  24.3834997  17.7029988
  65.2440012  24.3964997  16.2909988  65.8898628  24.5454760  16.8553932
  68.7430012  23.7304997  15.8769988  67.7960012  23.7624997  16.0089988
  69.0560012  23.1054997  16.5299988  68.6555475  23.6503207  15.9834455
  70.3770012  22.3644997  17.8819988  70.2810012  21.4124997  17.8759988
  70.0560012  22.6334997  18.7419988  70.3204070  22.2704035  17.9975441
  60.2040012  23.5744997  16.9289988  60.4160012  22.8674997  16.3189988
  60.0930012  23.1364997  17.7729988  60.2179721  23.4187084  16.9596843
  64.9850012  19.5754997  15.9089988  65.6970012  18.9354997  15.8949988
  64.8840012  19.8424997  14.9949988  65.0687939  19.5239938  15.7835650
  65.3390012  21.2584997  17.9619988  65.2070012  20.7824997  17.1419988
  64.7400012  22.0024997  17.9069988  65.2399071  21.2939618  17.8422886
  64.8850012  38.1414997   1.1389988  65.8180012  38.2994997   1.2819988
  64.6210012  38.8164997   0.5139988  64.9769510  38.2543611   1.0740741
  58.4540012  32.7774997   0.6209988  59.3680012  32.8564997   0.8949988
  58.4610012  32.0904997  -0.0450012  58.5801131  32.6953961   0.5684393
  57.1030012  38.1704997   5.6989988  56.4560012  37.7084997   5.1659988
  57.4570012  37.4984997   6.2809988  57.0623849  38.0164723   5.7047959
  57.9730012  36.2514997   7.5029988  57.6380012  35.3714997   7.6749988
  58.1950012  36.5964997   8.3679988  57.9571783  36.1777500   7.6434208
  75.5210012  37.0604997  10.4839988  75.5000012  37.2454997  11.4229988
  76.2120012  37.6294997  10.1429988  75.6114618  37.1626606  10.5663864
  75.0850012  36.6284997  13.4059988  74.5970012  35.8924997  13.0349988
  75.6340012  36.2344997  14.0839988  75.0924872  36.4746249  13.4469160
  73.5350012  32.4174997  18.0439988  72.6690012  32.3124997  18.4379988
  73.9120012  33.1764997  18.4899988  73.4673308  32.5056900  18.1582393
  74.8360012  30.6744997   3.5579988  75.6860012  31.0954997   3.6849988
  74.8420012  29.9344997   4.1649988  74.9531372  30.6320803   3.6574344
  75.2310012  28.7274997   5.3819988  74.5040012  28.2484997   5.7789988
  75.8120012  28.9334997   6.1139988  75.2099375  28.6897090   5.5354129
  74.9900012  31.5124997  10.3289988  75.8230012  31.1344997  10.0489988
  75.1020012  32.4554997  10.2099988  75.1192647  31.5882218  10.2745487
  73.4760012  34.3904997  12.6359988  72.8290012  34.7154997  13.2619988
  72.9590012  33.9504997  11.9619988  73.3174029  34.3755004  12.6305827
  75.4990012  28.6284997   1.7729988  74.9770012  28.9854997   1.0539988
  75.4660012  29.3034997   2.4509988  75.4231634  28.7685413   1.7663145
  73.8480012  25.8684997   0.3239988  73.9440012  26.5354997  -0.3570012
  73.7080012  25.0524997  -0.1580012  73.8422135  25.8494500   0.1658491
  73.0170012  27.2484997   5.9449988  72.8670012  26.3034997   5.9239988
  72.6640012  27.5294997   6.7879988  72.9486625  27.1570441   6.0562346
  58.0530012  29.3264997   9.9549988  58.2370012  29.2444997   9.0189988
  58.9020012  29.2024997  10.3789988  58.1930139  29.2985003   9.8841455
  73.8740012  29.2184997  15.5829988  74.4570012  28.4844997  15.7749988
  74.4380012  29.9904997  15.6299988  74.0299769  29.2224227  15.6156159
  75.3700012  27.1214997  16.2679988  74.5070012  26.7424997  16.1019988
  75.9750012  26.3824997  16.1939988  75.3335979  26.9698023  16.2352817
  73.0950012  23.2764997  -0.5590012  73.7060012  22.9054997   0.0779988
  72.2590012  22.8554997  -0.3630012  73.0655032  23.1687554  -0.4452965
  72.7280012  24.8314997   4.4069988  73.0080012  23.9244997   4.5309988
  73.4870012  25.2654997   4.0179988  72.8689277  24.7660942   4.3713682
  73.3400012  25.4124997   9.8429988  74.2730012  25.6244997   9.8089988
  73.1050012  25.5144997  10.7649988  73.4358036  25.4552769   9.9629976
  73.3690012  26.1494997  12.6189988  72.5260012  26.4174997  12.9849988
  73.8110012  26.9714997  12.4079988  73.3134158  26.2973291  12.6405491
  57.6500012  24.5974997  16.0959988  58.5700012  24.4754997  16.3319988
  57.2010012  23.8474997  16.4849988  57.7151580  24.4793727  16.1809006
  75.6520012  20.1294997  17.9719988  76.0020012  19.4754997  17.3669988
  75.7990012  20.9664997  17.5329988  75.7198419  20.1531591  17.8297118
  73.3410012  22.0944997   4.4549988  73.5240012  21.6454997   5.2809988
  72.7420012  21.5094997   3.9919988  73.2850202  21.9539975   4.5053275
  58.8710012  22.9094997   8.9869988  59.3170012  22.1174997   9.2889988
  59.3380012  23.6254997   9.4179988  58.9950172  22.8980624   9.0864820
  57.1750012  25.9084997  10.0559988  57.6670012  25.6874997   9.2649988
  57.5380012  26.7494997  10.3369988  57.2913126  25.9918357   9.9857531
  75.1720012  22.2384997  16.3219988  74.2540012  22.5094997  16.2859988
  75.2950012  21.7034997  15.5369988  75.0631066  22.2032892  16.2110487
  75.2080012  22.1614997   0.9829988  75.6200012  21.4404997   0.5079988
  75.8900012  22.8314997   1.0419988  75.3565885  22.1532368   0.9258915
  57.4890012  22.1664997   4.1099988  56.5640012  22.3754997   3.9809988
  57.9430012  22.6504997   3.4209988  57.4237368  22.2605993   3.9991226
  72.2600012  37.1504997   6.0559988  72.9120012  36.8034997   5.4479988
  72.7700012  37.6394997   6.7019988  72.4182637  37.1690597   6.0600236
  57.4530012  20.9044997  12.4549988  56.7880012  20.6584997  13.0979988
  57.0100012  21.5264997  11.8769988  57.3020956  20.9548632  12.4649352
  59.6450012  34.0794997  16.5989988  58.8240012  34.2544997  16.1389988
  59.3920012  34.0064997  17.5199988  59.4986164  34.0935622  16.6604923
  62.5990012  35.0544997  12.8579988  62.1740012  35.8634997  12.5749988
  63.5030012  35.1394997  12.5559988  62.6630271  35.1768469  12.7783776
  66.9100012  36.4534997  15.8169988  67.0950012  36.1194997  16.6949988
  67.7560012  36.7624997  15.4949988  67.0497539  36.4496047  15.8935605
  69.2550012  37.7394997  15.0609988  69.9320012  37.1064997  14.8209988
  69.5770012  38.1404997  15.8679988  69.3911637  37.7071154  15.1372793
  74.1720012  20.3284997  14.1409988  73.3600012  20.6534997  13.7529988
  74.4050012  19.5684997  13.6079988  74.0923423  20.2702436  14.0158253
  60.0010012  38.3104997  12.9049988  59.2800012  38.7504997  12.4539988
  59.6350012  38.0594997  13.7539988  59.8529804  38.3367698  12.9579840
  62.4680012  37.9104997  11.9349988  61.6030012  37.9824997  12.3389988
  62.4130012  38.4574997  11.1509988  62.3422085  37.9942685  11.8843362
  67.1780012  37.7984997  11.1099988  66.7220012  38.3274997  10.4559988
  67.3410012  38.4014997  11.8359988  67.1375585  37.9524468  11.1185062
  69.5060012  36.6764997  12.0549988  68.6010012  36.8414997  11.7899988
  69.9350012  37.5294997  11.9899988  69.4400799  36.8144483  12.0099182
  72.1100012  38.2464997  12.3499988  71.9280012  39.1624997  12.1399988
  72.2870012  37.8364997  11.5039988  72.1090210  38.3164822  12.2067885
  59.4150012  36.9334997   9.8149988  59.3970012  36.5084997  10.6729988
  60.2200012  36.6154997   9.4069988  59.5213875  36.8323812   9.8771655
  61.5570012  35.6434997   8.4699988  61.3380012  34.7274997   8.6399988
  62.3810012  35.7834997   8.9359988  61.6384420  35.5370520   8.5562774
  64.0940012  36.1134997   9.3189988  64.3070012  35.2254997   9.0319988
  64.1580012  36.0794997  10.2729988  64.1318232  35.9873102   9.4087397
  67.6020012  21.7774997   8.4629988  66.9280012  21.1484997   8.7189988
  68.1660012  21.2934997   7.8599988  67.5859230  21.6258744   8.4165340
  72.7450012  19.8854997   8.5759988  73.3490012  20.4324997   8.0739988
  71.8750012  20.2044997   8.3359988  72.7101241  20.0035806   8.4747654
  74.4720012  21.0234997   6.9089988  75.0840012  20.5094997   6.3829988
  74.8540012  21.9014997   6.9329988  74.6074540  21.0717140   6.8401830
  59.9290012  20.4114997   6.2849988  59.1520012  20.1774997   5.7779988
  60.4590012  19.6144997   6.2939988  59.8942330  20.2716988   6.2167742
  58.7650012  20.2094997   2.0889988  59.2040012  20.8204997   1.4969988
  58.1320012  20.7474997   2.5629988  58.7394514  20.3659257   2.0720930
  64.5080012  20.3384997   6.0989988  65.3830012  20.7264997   6.0689988
  64.3720012  20.1234997   7.0209988  64.6093695  20.3625184   6.2196440
  70.0650012  20.3684997   7.7479988  70.1410012  20.4634997   6.7979988
  69.7900012  19.4604997   7.8769988  70.0382321  20.2587867   7.6355079
  71.4180012  20.3944997   3.4399988  70.7160012  21.0094997   3.2309988
  70.9740012  19.5564997   3.5709988  71.2616330  20.3655783   3.4290328
  58.6660012  36.1574997   2.9869988  57.9810012  36.1194997   2.3189988
  58.6700012  37.0704997   3.2749988  58.5728193  36.2757016   2.9345284
  60.6260012  22.1254997   0.5309988  61.1180012  21.4954997   0.0039988
  61.2500012  22.4214997   1.1949988  60.7775446  22.0793199   0.5485980
  65.6520012  22.4184997   2.9879988  65.8300012  21.7724997   3.6709988
  65.5990012  23.2524997   3.4559988  65.6691829  22.4427985   3.1445940
  67.5310012  37.3674997   1.3839988  68.3970012  37.7334997   1.2059988
  67.2840012  36.9274997   0.5699988  67.6162392  37.3581756   1.2496289
  74.2400012  36.9304997   4.0629988  74.0450012  36.1824997   3.4979988
  74.2010012  37.6884997   3.4799988  74.2080380  36.9306099   3.9068384
  59.8870012  20.9254997  15.8029988  59.5210012  20.1604997  16.2459988
  60.8000012  20.9544997  16.0899988  59.9602790  20.8247224  15.9024070
  61.8600012  20.2764997  17.3389988  62.7580012  20.0024997  17.1539988
  61.4730012  19.5334997  17.8029988  61.9306612  20.1385914  17.3763643
  60.4840012  37.0774997   0.0119988  60.2170012  37.3644997   0.8849988
  61.2560012  36.5314997   0.1639988  60.5517488  37.0430294   0.1521050
  70.2810012  19.6084997  17.5209988  70.3580012  19.1824997  18.3749988
  71.1750012  19.6224997  17.1779988  70.4123428  19.5520879  17.5915310
  73.4570012  35.6814997  16.2129988  72.6750012  35.4954997  15.6939988
  73.3850012  36.6104997  16.4309988  73.3401777  35.7816492  16.1714048
  87.8630012  29.5674997   6.2439988  87.9520012  30.5114997   6.1119988
  87.2250012  29.2924997   5.5859988  87.7889081  29.6594830   6.1369614
  86.7960012  28.8224997   9.6629988  86.7580012  28.1764997  10.3679988
  86.4740012  28.3564997   8.8919988  86.7472333  28.6709408   9.6552978
  79.1650012  28.4374997  11.2559988  79.2060012  27.8114997  11.9789988
  79.8680012  29.0614997  11.4379988  79.2656363  28.4361196  11.3796044
  90.5020012  31.7614997   7.9639988  90.0620012  31.0414997   8.4149988
  90.4890012  32.4824997   8.5939988  90.4400226  31.7603731   8.1108494
  80.0880012  32.8874997   9.7909988  79.7190012  32.0854997   9.4209988
  81.0290012  32.7184997   9.8369988  80.1647289  32.7550153   9.7466316
  76.6980012  26.5474997   5.1839988  76.2510012  27.3934997   5.1649988
  76.1370012  25.9674997   4.6679988  76.5609900  26.5849916   5.1116801
  77.4090012  28.7094997   7.3099988  77.6220012  27.9394997   7.8369988
  78.1470012  28.7984997   6.7059988  77.5378496  28.6161394   7.3005300
  87.6140012  36.8664997   8.1769988  88.2340012  36.1894997   7.9029988
  87.4060012  36.6484997   9.0849988  87.6706904  36.7443870   8.2623365
  85.1860012  31.2554997  10.0689988  85.4900012  30.5694997   9.4739988
  85.9070012  31.3734997  10.6869988  85.3250671  31.1776305  10.0711816
  93.8490012  22.8564997  10.9299988  93.8980012  23.4664997  11.6659988
  94.2740012  23.3174997  10.2069988  93.9131824  23.0023741  10.9330205
  88.3270012  25.6494997  10.3969988  88.4690012  24.7034997  10.4169988
  88.2200012  25.8564997   9.4679988  88.3319864  25.5479534  10.2742339
  81.4810012  23.7504997   7.6689988  81.5250012  24.6104997   7.2509988
  81.0240012  23.1984997   7.0349988  81.4252185  23.7935799   7.5260299
  89.2040012  23.8814997   6.0699988  89.8500012  23.5524997   6.6949988
  89.7140012  24.3994997   5.4469988  89.3614264  23.9064611   6.0713862
  78.1020012  26.1474997   8.4309988  78.7550012  25.5974997   8.8629988
  78.1260012  25.8734997   7.5139988  78.1946683  26.0351466   8.3662123
  83.2580012  27.6974997   7.6459988  83.8740012  27.1714997   8.1559988
  82.6720012  27.0574997   7.2429988  83.2630810  27.5389208   7.6613173
  94.2400012  24.3344997  13.1659988  93.5520012  24.9924997  13.0699988
  94.2560012  24.1374997  14.1019988  94.1478525  24.3980462  13.2794808
  80.2920012  22.6684997  11.7429988  80.0730012  23.1984997  10.9769988
  79.6240012  22.8954997  12.3899988  80.1717600  22.7716906  11.7256379
  87.6610012  32.1684997   5.2869988  87.3650012  31.8464997   4.4359988
  87.3360012  33.0684997   5.3279988  87.5766371  32.2460215   5.1761801
  82.8610012  30.3444997  12.0299988  82.1210012  30.9424997  12.1339988
  83.5750012  30.8984997  11.7149988  82.8562237  30.5012831  12.0016465
  90.9680012  23.1724997   8.0499988  90.7520012  22.4064997   8.5829988
  91.6230012  23.6444997   8.5629988  91.0270632  23.1315889   8.1922861
  79.8850012  24.5604997   9.6949988  80.4990012  25.1934997  10.0689988
  80.3970012  24.0884997   9.0389988  80.0382296  24.5832370   9.6574252
  81.2680012  32.3084997  12.8179988  81.2630012  33.1884997  12.4399988
  80.4150012  32.2254997  13.2429988  81.1519464  32.4176117  12.8237907
  77.3890012  31.9794997   3.5999988  77.1170012  32.2084997   2.7109988
  77.4350012  32.8174997   4.0599988  77.3580094  32.1241213   3.5405697
  91.0140012  33.6014997  10.3119988  90.0730012  33.6594997  10.4739988
  91.2910012  34.5074997  10.1749988  90.9224679  33.7319443  10.3156815
  91.3150012  21.8874997  11.7299988  90.5790012  22.4984997  11.6919988
  91.9980012  22.3024997  11.2029988  91.3066541  22.0271374  11.6535832
  84.3180012  19.9744997   9.1959988  84.2010012  19.0254997   9.1409988
  83.4630012  20.3064997   9.4689988  84.1863733  19.8895409   9.2253897
  89.2660012  35.3824997   6.9379988  89.6920012  34.6754997   6.4529988
  89.5830012  36.1834997   6.5209988  89.3671019  35.3940994   6.8153130
  90.4260012  33.2834997   5.4459988  90.1680012  32.5934997   4.8349988
  90.4970012  32.8404997   6.2919988  90.4002856  33.1292124   5.4766885
  92.1120012  31.8494997  13.9239988  92.2520012  31.2584997  13.1839988
  92.2790012  32.7224997  13.5669988  92.1536778  31.8866426  13.7746965
  86.5850012  28.8114997   3.6959988  85.8730012  29.3464997   3.3439988
  87.2760012  28.8674997   3.0359988  86.5810132  28.8922543   3.5586289
  86.6380012  27.2694997   0.7349988  87.3390012  27.2914997   1.3859988
  86.9410012  26.6414997   0.0789988  86.7747830  27.1876566   0.7353711
  93.9540012  28.1894997  11.9899988  93.3010012  28.8844997  12.0789988
  94.4190012  28.3994997  11.1799988  93.9275390  28.3129425  11.8926883
  89.9900012  29.0214997   4.6479988  89.2580012  29.2494997   5.2209988
  90.4380012  28.3074997   5.1029988  89.9503095  28.9562571   4.7879119
  89.8880012  27.1954997  13.7149988  89.9680012  27.9584997  14.2869988
  89.2860012  27.4744997  13.0249988  89.8175756  27.3377134  13.7000589
  81.6360012  29.6514997   6.5299988  81.3050012  29.2814997   5.7119988
  82.2240012  28.9814997   6.8769988  81.6701873  29.5101156   6.4648102
  83.0020012  33.0794997   9.2119988  82.9080012  32.5014997   8.4549988
  83.7320012  32.7084997   9.7079988  83.0877981  32.9502390   9.1754165
  82.0020012  28.4204997  10.1639988  82.5680012  28.5414997   9.4009988
  82.3210012  29.0574997  10.8029988  82.1225786  28.5231884  10.1460040
  88.3110012  33.9234997  10.8979988  88.0710012  34.5854997  11.5459988
  88.1130012  33.0894997  11.3229988  88.2513808  33.9013134  11.0441524
  82.8820012  32.8194997  14.8809988  82.5710012  33.6014997  15.3359988
  82.2320012  32.6664997  14.1949988  82.7515558  32.9059105  14.8505871
  88.8610012  28.1834997   2.3329988  89.4410012  28.3334997   3.0799988
  89.2750012  28.6544997   1.6099988  88.9962830  28.2676841   2.3374134
  79.8020012  29.0174997  14.1099988  79.8730012  29.6684997  14.8079988
  78.9120012  29.1204997  13.7749988  79.6913117  29.1205936  14.1602700
  86.5880012  34.9204997   5.7679988  87.0620012  35.2154997   6.5459988
  86.0250012  35.6584997   5.5349988  86.5767653  35.0606932   5.8430136
  81.1220012  34.8914997  15.6439988  81.1290012  34.7554997  14.6969988
  80.2060012  34.7734997  15.8959988  80.9991714  34.8569430  15.5484666
  92.5600012  19.9334997   2.1459988  91.6600012  20.0724997   2.4409988
  92.8120012  20.7644997   1.7439988  92.4708702  20.0649074   2.1320205
  80.6260012  28.7214997   4.1199988  80.3340012  29.4894997   3.6289988
  79.9520012  28.0614997   3.9569988  80.4949081  28.7374406   4.0307340
  93.7490012  34.2994997   0.5219988  93.8230012  35.2384997   0.6929988
  94.6550012  33.9944997   0.4659988  93.8815100  34.3866722   0.5378119
  76.7190012  31.0844997  12.9349988  76.2180012  31.0564997  12.1199988
  76.7240012  30.1784997  13.2439988  76.6511526  30.9582278  12.8652872
  76.4690012  33.8644997   9.8189988  77.4150012  33.7204997   9.7999988
  76.3570012  34.6484997  10.3559988  76.5832727  33.9508046   9.8890072
  94.6670012  34.5304997  15.5009988  94.6180012  33.5754997  15.4639988
  93.8400012  34.7984997  15.9019988  94.5484940  34.4358998  15.5501375
  85.6460012  34.1044997  14.3769988  85.7330012  34.9304997  14.8519988
  84.7820012  33.7744997  14.6259988  85.5411964  34.1729878  14.4756549
  86.0600012  37.8764997   4.1829988  85.9850012  37.7554997   3.2369988
  86.0930012  38.8264997   4.3019988  86.0541848  37.9882500   4.0694834
  79.7130012  36.6654997   5.9639988  79.8660012  36.3174997   6.8429988
  78.8630012  36.3094997   5.7089988  79.6188962  36.5696650   6.0498340
  89.1620012  37.0304997   1.1849988  89.5370012  36.2864997   0.7149988
  89.1660012  36.7604997   2.1039988  89.2138915  36.8921486   1.2447824
  88.8310012  36.9564997   3.9349988  87.8950012  37.0564997   4.1129988
  89.1110012  36.2474997   4.5129988  88.7408255  36.8742711   4.0375391
  91.8190012  26.0234997  15.9809988  91.4120012  26.5044997  15.2599988
  91.8600012  25.1184997  15.6729988  91.7688437  25.9669374  15.8406683
  78.9680012  32.4074997  13.9779988  79.1840012  32.0464997  14.8369988
  78.1130012  32.0334997  13.7679988  78.8819292  32.3074111  14.0673386
  81.5870012  20.8774997   9.9729988  80.7250012  20.7904997   9.5659988
  81.5640012  21.7334997  10.4009988  81.4660330  20.9812765   9.9751863
  86.2500012  20.5994997  13.3479988  86.6700012  20.1844997  14.1009988
  85.3170012  20.4214997  13.4649988  86.1813644  20.5185900  13.4669539
  89.5760012  24.3554997  14.2009988  89.0620012  24.2294997  14.9989988
  89.4210012  25.2674997  13.9569988  89.4846852  24.4616132  14.2772158
  90.3390012  29.2164997  -0.0370012  90.3810012  28.9934997  -0.9670012
  91.1880012  29.6154997   0.1529988  90.4595396  29.2399155  -0.1386373
  85.9110012  23.0924997   0.6329988  85.6580012  23.1114997   1.5559988
  85.6550012  22.2204997   0.3319988  85.8417790  22.9772437   0.7186263
  81.6780012  25.8434997  11.0679988  81.0360012  25.8024997  11.7769988
  81.7150012  26.7694997  10.8309988  81.5951324  25.9631559  11.1329824
  81.6750012  26.0644997   5.9799988  80.7820012  25.7234997   5.9219988
  82.1250012  25.6874997   5.2249988  81.6137305  25.9668484   5.8699177
  87.2100012  26.4804997   4.7969988  86.8010012  27.2954997   4.5059988
  87.9310012  26.3404997   4.1829988  87.2514537  26.5732018   4.6741342
  86.3120012  26.6554997  16.2849988  85.7500012  25.9514997  16.6059988
  87.1390012  26.5354997  16.7529988  86.3467095  26.5427883  16.3922330
  88.2150012  25.9264997   7.6109988  88.0200012  26.5314997   6.8959988
  88.3960012  25.0924997   7.1769988  88.2127614  25.8966300   7.4544405
  79.4280012  26.1634997  12.9349988  79.3900012  26.5634997  13.8039988
  78.9370012  25.3464997  13.0259988  79.3564684  26.1078069  13.0661059
  82.7940012  23.5374997  -0.2660012  82.3630012  23.0924997   0.4639988
  82.0760012  23.9094997  -0.7780012  82.6379438  23.5268940  -0.2353201
  76.0360012  23.2794997   6.7859988  76.6670012  23.2504997   7.5049988
  76.4850012  22.8544997   6.0559988  76.1830774  23.2180492   6.7856553
  77.3100012  24.0254997   2.2099988  77.7840012  24.6164997   1.6249988
  76.5930012  24.5564997   2.5569988  77.2779341  24.1780867   2.1768836
  87.4790012  27.5644997  12.2829988  87.8020012  26.9334997  11.6399988
  87.0390012  27.0294997  12.9429988  87.4636895  27.4058441  12.2842850
  84.2560012  23.4914997   7.0669988  83.3450012  23.5484997   7.3549988
  84.7620012  23.4314997   7.8769988  84.1995413  23.4911985   7.2160622
  79.0850012  25.1204997   5.8929988  78.1950012  25.2204997   5.5529988
  79.3810012  24.2784997   5.5469988  79.0032823  25.0203545   5.7997213
  82.7380012  25.1204997   3.5499988  83.6690012  25.2494997   3.7279988
  82.5230012  25.7904997   2.8999988  82.8364247  25.2286565   3.4865747
  88.6610012  22.7264997  10.3309988  87.9850012  22.8574997  10.9949988
  88.1760012  22.5714997   9.5209988  88.5027145  22.7234905  10.3124517
  81.4120012  26.3154997   1.1169988  80.8690012  25.9354997   0.4249988
  82.2450012  26.5094997   0.6879988  81.4504399  26.2898124   0.9644526
  91.9490012  38.3984997  16.6079988  92.1490012  38.8224997  15.7729988
  92.6040012  38.7414997  17.2149988  92.0650051  38.5029648  16.5757836
  79.5470012  30.8724997  16.2159988  80.2790012  31.1264997  16.7769988
  78.7670012  31.0764997  16.7309988  79.5418232  30.9349177  16.3625760
  85.5760012  26.2794997   8.9539988  86.1410012  25.7324997   8.4069988
  85.4290012  25.7574997   9.7419988  85.6332918  26.1342024   8.9858454
  80.5780012  22.4154997   5.3719988  80.2610012  21.5134997   5.3369988
  81.3600012  22.4174997   4.8189988  80.6402284  22.2921628   5.2924783
  84.2030012  24.6674997  11.3679988  83.3670012  25.1214997  11.4779988
  84.7270012  24.9434997  12.1199988  84.1594414  24.7669376  11.4847136
  84.7470012  30.8804997   3.0519988  84.0020012  30.3734997   2.7299988
  84.6130012  30.9294997   3.9989988  84.6268776  30.8176940   3.1358647
  91.8970012  30.0134997  11.8389988  92.5390012  30.4704997  11.2949988
  91.0670012  30.1264997  11.3759988  91.8725963  30.0912704  11.7020177
  88.6450012  23.6944997   1.2519988  87.7060012  23.8064997   1.0999988
  88.9420012  24.5514997   1.5579988  88.5567666  23.8256443   1.2725768
  86.2660012  31.0644997  14.2889988  85.9210012  30.6834997  15.0959988
  86.0660012  31.9984997  14.3609988  86.1918061  31.1385228  14.4090961
  89.3630012  25.5614997   2.9119988  90.2550012  25.4244997   3.2309988
  89.4200012  26.3524997   2.3759988  89.4926285  25.6496660   2.8831691
  79.8720012  30.1754997   8.8219988  80.6170012  30.1734997   8.2209988
  79.9500012  29.3524997   9.3039988  79.9845518  30.0639315   8.8048929
  86.8730012  32.3394997   2.0779988  86.5770012  33.1654997   2.4589988
  86.1700012  31.7194997   2.2739988  86.7374914  32.3688199   2.1566443
  76.8800012  28.6364997  14.1369988  77.1030012  28.2184997  14.9689988
  76.2780012  28.0234997  13.7139988  76.8291759  28.4964668  14.1937022
  83.8960012  28.1534997  16.3499988  83.6000012  27.9874997  15.4549988
  84.8280012  27.9334997  16.3389988  83.9814166  28.1010640  16.2260536
  88.5170012  33.5264997  14.2399988  87.6160012  33.7094997  13.9719988
  88.5510012  33.7854997  15.1609988  88.3983041  33.5865512  14.3278197
  94.2480012  25.7714997   2.6069988  93.6940012  25.3754997   1.9349988
  94.3480012  26.6814997   2.3289988  94.1857059  25.8403586   2.4774401
  94.2110012  31.5714997  15.4439988  93.3600012  31.8094997  15.0769988
  94.8020012  31.5544997  14.6909988  94.1742487  31.6018258  15.2918893
  92.5430012  34.5574997   3.0719988  92.1700012  33.7314997   3.3809988
  92.8210012  34.3744997   2.1749988  92.5295630  34.4197303   2.9929626
  89.7040012  29.3654997  10.0929988  88.7750012  29.1334997  10.0659988
  90.1550012  28.5884997   9.7629988  89.6379216  29.2287238  10.0446917
  82.2470012  33.6934997   6.2259988  82.7740012  34.4664997   6.0259988
  81.3670012  33.9184997   5.9249988  82.2001773  33.8298005   6.1579010
  78.0020012  28.5554997   0.8129988  78.6180012  29.1824997   1.1929988
  77.1400012  28.8714997   1.0849988  77.9697698  28.6839430   0.9017183
  83.6740012  31.3564997   5.8029988  83.4330012  32.2814997   5.8439988
  82.9330012  30.8974997   6.1989988  83.5408409  31.4211421   5.8621377
  84.1890012  35.5054997  12.1179988  84.5510012  36.3604997  11.8839988
  84.7200012  35.2134997  12.8579988  84.3104473  35.5831060  12.1860855
  82.3570012  36.3784997   5.3479988  81.4070012  36.4834997   5.3989988
  82.7090012  37.1984997   5.6929988  82.2744203  36.5038314   5.4016650
  87.7330012  31.6044997  11.8179988  87.3070012  31.3774997  12.6449988
  88.3130012  30.8664997  11.6359988  87.7531868  31.4735299  11.9065830
  89.9360012  32.5334997   0.8919988  90.2890012  32.1534997   1.6969988
  88.9870012  32.4404997   0.9789988  89.8560441  32.4689596   1.0138559
  90.3910012  36.1564997  14.2879988  89.7900012  35.6014997  13.7919988
  90.6730012  36.8234997  13.6619988  90.3468519  36.1706841  14.1354952
  94.4390012  37.0134997   1.0929988  95.1830012  37.5994997   0.9529988
  93.7450012  37.5814997   1.4269988  94.4470292  37.1705582   1.1189961
  78.5140012  23.3894997  13.6949988  77.6210012  23.7284997  13.6269988
  78.4150012  22.5344997  14.1129988  78.3784164  23.3202588  13.7422235
  90.8020012  31.2064997   3.1189988  90.5240012  30.4784997   3.6749988
  91.7290012  31.3254997   3.3239988  90.8893124  31.1228802   3.2228845
  78.1650012  35.1944997  12.1299988  78.3820012  34.2624997  12.0989988
  78.4110012  35.4684997  13.0129988  78.2279549  35.1040636  12.2451763
  84.0270012  33.6454997  -0.6610012  84.2660012  32.8974997  -1.2080012
  83.7580012  33.2574997   0.1719988  84.0233675  33.4906638  -0.6233135
  82.9640012  33.2154997   1.7959988  83.1100012  32.6954997   2.5859988
  82.9610012  34.1224997   2.1019988  82.9835989  33.2668853   1.9456088
  79.4170012  30.4684997   2.3059988  78.7310012  30.8204997   2.8729988
  79.9390012  31.2314997   2.0589988  79.3936852  30.6198578   2.3502118
  87.2480012  23.1304997  12.5849988  87.9470012  23.2044997  13.2349988
  86.8670012  22.2664997  12.7389988  87.2921767  23.0237624  12.6948322
  88.0330012  22.7824997   3.6819988  88.2530012  23.2544997   2.8789988
  88.5910012  23.1774997   4.3519988  88.1384968  22.9004285   3.6627331
  85.7010012  34.9134997   2.5449988  84.8850012  35.4104997   2.5969988
  86.2310012  35.3884997   1.9049988  85.6609161  35.0457722   2.4655956
  85.2330012  24.5104997   4.5169988  86.0450012  25.0154997   4.5629988
  84.9880012  24.3654997   5.4309988  85.3110520  24.5600375   4.6468517
  85.7680012  25.4964997  13.7019988  85.8870012  26.0704997  14.4589988
  86.4240012  24.8084997  13.8159988  85.8729757  25.4821079  13.8210825
  86.1160012  21.5914997   5.4549988  85.7700012  22.2094997   6.0999988
  86.7750012  22.0924997   4.9739988  86.1577826  21.7435802   5.4780971
  83.0400012  35.9574997   2.5269988  83.2000012  36.7564997   2.0259988
  82.8420012  36.2634997   3.4119988  83.0351649  36.1084469   2.5779815
  81.7740012  22.6544997   2.1419988  81.6910012  23.5434997   2.4889988
  82.6640012  22.3894997   2.3739988  81.8829469  22.7401430   2.2207626
  91.9730012  23.4034997  14.5369988  91.0560012  23.6664997  14.4489988
  92.3080012  23.4004997  13.6399988  91.8929900  23.4390224  14.4037919
  90.5750012  27.1544997   8.6319988  89.7770012  26.7394997   8.3039988
  91.0200012  26.4634997   9.1229988  90.5259885  27.0043543   8.6534889
  80.0330012  33.0824997   1.2029988  80.6250012  33.7814997   1.4789988
  80.4920012  32.6494997   0.4829988  80.1761142  33.1197049   1.1434830
  78.3490012  25.7464997   0.3189988  78.3040012  26.6854997   0.4969988
  77.4610012  25.5104997   0.0489988  78.2228574  25.8431892   0.3068912
  91.6610012  36.4104997  10.2549988  91.5060012  37.0884997   9.5979988
  92.5940012  36.4824997  10.4579988  91.7658500  36.5130170  10.1925119
  79.1570012  20.5284997   8.9919988  78.9280012  20.5874997   8.0639988
  78.7140012  19.7364997   9.2979988  79.0658530  20.4295753   8.9064786
  78.0870012  34.4684997   5.1519988  77.2550012  34.9414997   5.1799988
  78.6330012  34.9784997   4.5539988  78.0469739  34.6021871   5.0749716
  77.3750012  37.0814997  16.4819988  77.9160012  36.8644997  17.2419988
  76.8940012  36.2754997  16.2929988  77.3839345  36.9429514  16.5603076
  81.9730012  36.0004997  18.1029988  82.7400012  35.5414997  18.4439988
  81.9510012  35.7744997  17.1729988  82.0751434  35.9070409  18.0240043
  86.0650012  35.5084997  -0.5220012  85.4210012  34.8774997  -0.2010012
  86.8270012  34.9774997  -0.7540012  86.0798077  35.3502920  -0.5093989
  88.5500012  34.3804997  16.8319988  88.1990012  33.5244997  17.0749988
  89.2760012  34.5234997  17.4389988  88.6000769  34.2825636  16.9473619
  90.6690012  35.3254997  -0.2880012  90.9520012  34.5314997   0.1639988
  91.4090012  35.5584997  -0.8490012  90.8077486  35.2482803  -0.3019302
  77.2820012  30.8914997  17.4369988  77.4260012  29.9894997  17.1499988
  76.5100012  31.1774997  16.9489988  77.1973322  30.8068261  17.3317881
  81.6240012  31.2354997  -0.4310012  81.6880012  30.4414997   0.0999988
  82.2770012  31.1164997  -1.1210012  81.7210241  31.1107148  -0.4515683
  83.9380012  30.8614997  16.8689988  83.6090012  31.1324997  16.0119988
  84.0900012  29.9204997  16.7819988  83.9134809  30.7713862  16.7398244
  86.9760012  32.2824997  -0.6950012  86.7070012  32.4624997   0.2059988
  86.7700012  31.3564997  -0.8260012  86.9113825  32.1820152  -0.5894786
  89.6720012  30.7774997  14.2529988  90.4180012  31.3654997  14.1329988
  88.9150012  31.3594997  14.3159988  89.6717554  30.9367011  14.2450907
  78.1150012  28.0914997  16.8569988  78.5230012  27.2344997  16.7359988
  77.8550012  28.1064997  17.7779988  78.1357568  27.9760807  16.9649588
  82.7730012  29.2074997   1.8749988  82.3130012  28.7234997   2.5609988
  83.0280012  28.5394997   1.2389988  82.7444902  29.0508731   1.8829334
  82.0620012  27.1004997  14.2309988  81.4440012  27.7754997  14.5109988
  82.4060012  27.4214997  13.3979988  82.0239615  27.2362721  14.1566581
  83.8440012  27.4504997   0.1369988  83.6640012  27.2964997  -0.7900012
  84.7940012  27.5584997   0.1819988  83.9477776  27.4440175   0.0161843
  87.0820012  29.5724997  17.5079988  88.0350012  29.6554997  17.4809988
  86.9210012  28.8604997  18.1279988  87.1906426  29.4876746  17.5880579
  93.2340012  29.8054997  -0.4170012  92.9600012  29.3804997  -1.2300012
  93.2730012  30.7364997  -0.6340012  93.2017699  29.8732484  -0.5576390
  82.4010012  24.4554997  15.3129988  82.5510012  23.7264997  14.7109988
  82.4040012  25.2324997  14.7539988  82.4219302  24.4607851  15.1550692
  82.8140012  22.8254997  12.8059988  83.3500012  23.2764997  12.1539988
  81.9620012  22.7174997  12.3829988  82.7722178  22.8726390  12.6595756
  84.3960012  28.2644997  13.0449988  85.1460012  28.1084997  12.4719988
  84.0570012  29.1164997  12.7699988  84.4528921  28.3582968  12.9293561
  88.8110012  26.0794997  18.0739988  89.0040012  25.1484997  17.9619988
  89.6690012  26.5044997  18.0639988  88.9533020  26.0096389  18.0573361
  90.1280012  28.8684997  16.1509988  89.8470012  29.5774997  15.5739988
  91.0710012  28.7954997  15.9999988  90.2169027  28.9557646  16.0515551
  80.8800012  25.6534997  17.2249988  80.1130012  25.1214997  17.0149988
  81.5590012  25.3434997  16.6249988  80.8667022  25.5387506  17.1151648
  83.6200012  20.2814997  13.2369988  83.5210012  21.2284997  13.1319988
  82.8770012  19.9094997  12.7619988  83.5060564  20.3605902  13.1584560
  84.8840012  24.6034997  16.8009988  84.6480012  24.3834997  17.7029988
  84.1000012  24.3964997  16.2909988  84.7458628  24.5454760  16.8553932
  87.5990012  23.7304997  15.8769988  86.6520012  23.7624997  16.0089988
  87.9120012  23.1054997  16.5299988  87.5115475  23.6503207  15.9834455
  89.2330012  22.3644997  17.8819988  89.1370012  21.4124997  17.8759988
  88.9120012  22.6334997  18.7419988  89.1764070  22.2704035  17.9975441
  79.0600012  23.5744997  16.9289988  79.2720012  22.8674997  16.3189988
  78.9490012  23.1364997  17.7729988  79.0739721  23.4187084  16.9596843
  83.8410012  19.5754997  15.9089988  84.5530012  18.9354997  15.8949988
  83.7400012  19.8424997  14.9949988  83.9247939  19.5239938  15.7835650
  84.1950012  21.2584997  17.9619988  84.0630012  20.7824997  17.1419988
  83.5960012  22.0024997  17.9069988  84.0959071  21.2939618  17.8422886
  83.7410012  38.1414997   1.1389988  84.6740012  38.2994997   1.2819988
  83.4770012  38.8164997   0.5139988  83.8329510  38.2543611   1.0740741
  77.3100012  32.7774997   0.6209988  78.2240012  32.8564997   0.8949988
  77.3170012  32.0904997  -0.0450012  77.4361131  32.6953961   0.5684393
  75.9590012  38.1704997   5.6989988  75.3120012  37.7084997   5.1659988
  76.3130012  37.4984997   6.2809988  75.9183849  38.0164723   5.7047959
  76.8290012  36.2514997   7.5029988  76.4940012  35.3714997   7.6749988
  77.0510012  36.5964997   8.3679988  76.8131783  36.1777500   7.6434208
  94.3770012  37.0604997  10.4839988  94.3560012  37.2454997  11.4229988
  95.0680012  37.6294997  10.1429988  94.4674618  37.1626606  10.5663864
  93.9410012  36.6284997  13.4059988  93.4530012  35.8924997  13.0349988
  94.4900012  36.2344997  14.0839988  93.9484872  36.4746249  13.4469160
  92.3910012  32.4174997  18.0439988  91.5250012  32.3124997  18.4379988
  92.7680012  33.1764997  18.4899988  92.3233308  32.5056900  18.1582393
  93.6920012  30.6744997   3.5579988  94.5420012  31.0954997   3.6849988
  93.6980012  29.9344997   4.1649988  93.8091372  30.6320803   3.6574344
  94.0870012  28.7274997   5.3819988  93.3600012  28.2484997   5.7789988
  94.6680012  28.9334997   6.1139988  94.0659375  28.6897090   5.5354129
  93.8460012  31.5124997  10.3289988  94.6790012  31.1344997  10.0489988
  93.9580012  32.4554997  10.2099988  93.9752647  31.5882218  10.2745487
  92.3320012  34.3904997  12.6359988  91.6850012  34.7154997  13.2619988
  91.8150012  33.9504997  11.9619988  92.1734029  34.3755004  12.6305827
  94.3550012  28.6284997   1.7729988  93.8330012  28.9854997   1.0539988
  94.3220012  29.3034997   2.4509988  94.2791634  28.7685413   1.7663145
  92.7040012  25.8684997   0.3239988  92.8000012  26.5354997  -0.3570012
  92.5640012  25.0524997  -0.1580012  92.6982135  25.8494500   0.1658491
  91.8730012  27.2484997   5.9449988  91.7230012  26.3034997   5.9239988
  91.5200012  27.5294997   6.7879988  91.8046625  27.1570441   6.0562346
  76.9090012  29.3264997   9.9549988  77.0930012  29.2444997   9.0189988
  77.7580012  29.2024997  10.3789988  77.0490139  29.2985003   9.8841455
  92.7300012  29.2184997  15.5829988  93.3130012  28.4844997  15.7749988
  93.2940012  29.9904997  15.6299988  92.8859769  29.2224227  15.6156159
  94.2260012  27.1214997  16.2679988  93.3630012  26.7424997  16.1019988
  94.8310012  26.3824997  16.1939988  94.1895979  26.9698023  16.2352817
  91.9510012  23.2764997  -0.5590012  92.5620012  22.9054997   0.0779988
  91.1150012  22.8554997  -0.3630012  91.9215032  23.1687554  -0.4452965
  91.5840012  24.8314997   4.4069988  91.8640012  23.9244997   4.5309988
  92.3430012  25.2654997   4.0179988  91.7249277  24.7660942   4.3713682
  92.1960012  25.4124997   9.8429988  93.1290012  25.6244997   9.8089988
  91.9610012  25.5144997  10.7649988  92.2918036  25.4552769   9.9629976
  92.2250012  26.1494997  12.6189988  91.3820012  26.4174997  12.9849988
  92.6670012  26.9714997  12.4079988  92.1694158  26.2973291  12.6405491
  76.5060012  24.5974997  16.0959988  77.4260012  24.4754997  16.3319988
  76.0570012  23.8474997  16.4849988  76.5711580  24.4793727  16.1809006
  94.5080012  20.1294997  17.9719988  94.8580012  19.4754997  17.3669988
  94.6550012  20.9664997  17.5329988  94.5758419  20.1531591  17.8297118
  92.1970012  22.0944997   4.4549988  92.3800012  21.6454997   5.2809988
  91.5980012  21.5094997   3.9919988  92.1410202  21.9539975   4.5053275
  77.7270012  22.9094997   8.9869988  78.1730012  22.1174997   9.2889988
  78.1940012  23.6254997   9.4179988  77.8510172  22.8980624   9.0864820
  76.0310012  25.9084997  10.0559988  76.5230012  25.6874997   9.2649988
  76.3940012  26.7494997  10.3369988  76.1473126  25.9918357   9.9857531
  94.0280012  22.2384997  16.3219988  93.1100012  22.5094997  16.2859988
  94.1510012  21.7034997  15.5369988  93.9191066  22.2032892  16.2110487
  94.0640012  22.1614997   0.9829988  94.4760012  21.4404997   0.5079988
  94.7460012  22.8314997   1.0419988  94.2125885  22.1532368   0.9258915
  76.3450012  22.1664997   4.1099988  75.4200012  22.3754997   3.9809988
  76.7990012  22.6504997   3.4209988  76.2797368  22.2605993   3.9991226
  91.1160012  37.1504997   6.0559988  91.7680012  36.8034997   5.4479988
  91.6260012  37.6394997   6.7019988  91.2742637  37.1690597   6.0600236
  76.3090012  20.9044997  12.4549988  75.6440012  20.6584997  13.0979988
  75.8660012  21.5264997  11.8769988  76.1580956  20.9548632  12.4649352
  78.5010012  34.0794997  16.5989988  77.6800012  34.2544997  16.1389988
  78.2480012  34.0064997  17.5199988  78.3546164  34.0935622  16.6604923
  81.4550012  35.0544997  12.8579988  81.0300012  35.8634997  12.5749988
  82.3590012  35.1394997  12.5559988  81.5190271  35.1768469  12.7783776
  85.7660012  36.4534997  15.8169988  85.9510012  36.1194997  16.6949988
  86.6120012  36.7624997  15.4949988  85.9057539  36.4496047  15.8935605
  88.1110012  37.7394997  15.0609988  88.7880012  37.1064997  14.8209988
  88.4330012  38.1404997  15.8679988  88.2471637  37.7071154  15.1372793
  93.0280012  20.3284997  14.1409988  92.2160012  20.6534997  13.7529988
  93.2610012  19.5684997  13.6079988  92.9483423  20.2702436  14.0158253
  78.8570012  38.3104997  12.9049988  78.1360012  38.7504997  12.4539988
  78.4910012  38.0594997  13.7539988  78.7089804  38.3367698  12.9579840
  81.3240012  37.9104997  11.9349988  80.4590012  37.9824997  12.3389988
  81.2690012  38.4574997  11.1509988  81.1982085  37.9942685  11.8843362
  86.0340012  37.7984997  11.1099988  85.5780012  38.3274997  10.4559988
  86.1970012  38.4014997  11.8359988  85.9935585  37.9524468  11.1185062
  88.3620012  36.6764997  12.0549988  87.4570012  36.8414997  11.7899988
  88.7910012  37.5294997  11.9899988  88.2960799  36.8144483  12.0099182
  90.9660012  38.2464997  12.3499988  90.7840012  39.1624997  12.1399988
  91.1430012  37.8364997  11.5039988  90.9650210  38.3164822  12.2067885
  78.2710012  36.9334997   9.8149988  78.2530012  36.5084997  10.6729988
  79.0760012  36.6154997   9.4069988  78.3773875  36.8323812   9.8771655
  80.4130012  35.6434997   8.4699988  80.1940012  34.7274997   8.6399988
  81.2370012  35.7834997   8.9359988  80.4944420  35.5370520   8.5562774
  82.9500012  36.1134997   9.3189988  83.1630012  35.2254997   9.0319988
  83.0140012  36.0794997  10.2729988  82.9878232  35.9873102   9.4087397
  86.4580012  21.7774997   8.4629988  85.7840012  21.1484997   8.7189988
  87.0220012  21.2934997   7.8599988  86.4419230  21.6258744   8.4165340
  91.6010012  19.8854997   8.5759988  92.2050012  20.4324997   8.0739988
  90.7310012  20.2044997   8.3359988  91.5661241  20.0035806   8.4747654
  93.3280012  21.0234997   6.9089988  93.9400012  20.5094997   6.3829988
  93.7100012  21.9014997   6.9329988  93.4634540  21.0717140   6.8401830
  78.7850012  20.4114997   6.2849988  78.0080012  20.1774997   5.7779988
  79.3150012  19.6144997   6.2939988  78.7502330  20.2716988   6.2167742
  77.6210012  20.2094997   2.0889988  78.0600012  20.8204997   1.4969988
  76.9880012  20.7474997   2.5629988  77.5954514  20.3659257   2.0720930
  83.3640012  20.3384997   6.0989988  84.2390012  20.7264997   6.0689988
  83.2280012  20.1234997   7.0209988  83.4653695  20.3625184   6.2196440
  88.9210012  20.3684997   7.7479988  88.9970012  20.4634997   6.7979988
  88.6460012  19.4604997   7.8769988  88.8942321  20.2587867   7.6355079
  90.2740012  20.3944997   3.4399988  89.5720012  21.0094997   3.2309988
  89.8300012  19.5564997   3.5709988  90.1176330  20.3655783   3.4290328
  77.5220012  36.1574997   2.9869988  76.8370012  36.1194997   2.3189988
  77.5260012  37.0704997   3.2749988  77.4288193  36.2757016   2.9345284
  79.4820012  22.1254997   0.5309988  79.9740012  21.4954997   0.0039988
  80.1060012  22.4214997   1.1949988  79.6335446  22.0793199   0.5485980
  84.5080012  22.4184997   2.9879988  84.6860012  21.7724997   3.6709988
  84.4550012  23.2524997   3.4559988  84.5251829  22.4427985   3.1445940
  86.3870012  37.3674997   1.3839988  87.2530012  37.7334997   1.2059988
  86.1400012  36.9274997   0.5699988  86.4722392  37.3581756   1.2496289
  93.0960012  36.9304997   4.0629988  92.9010012  36.1824997   3.4979988
  93.0570012  37.6884997   3.4799988  93.0640380  36.9306099   3.9068384
  78.7430012  20.9254997  15.8029988  78.3770012  20.1604997  16.2459988
  79.6560012  20.9544997  16.0899988  78.8162790  20.8247224  15.9024070
  80.7160012  20.2764997  17.3389988  81.6140012  20.0024997  17.1539988
  80.3290012  19.5334997  17.8029988  80.7866612  20.1385914  17.3763643
  79.3400012  37.0774997   0.0119988  79.0730012  37.3644997   0.8849988
  80.1120012  36.5314997   0.1639988  79.4077488  37.0430294   0.1521050
  89.1370012  19.6084997  17.5209988  89.2140012  19.1824997  18.3749988
  90.0310012  19.6224997  17.1779988  89.2683428  19.5520879  17.5915310
  92.3130012  35.6814997  16.2129988  91.5310012  35.4954997  15.6939988
  92.2410012  36.6104997  16.4309988  92.1961777  35.7816492  16.1714048
 106.7190012  29.5674997   6.2439988 106.8080012  30.5114997   6.1119988
 106.0810012  29.2924997   5.5859988 106.6449081  29.6594830   6.1369614
 105.6520012  28.8224997   9.6629988 105.6140012  28.1764997  10.3679988
 105.3300012  28.3564997   8.8919988 105.6032333  28.6709408   9.6552978
  98.0210012  28.4374997  11.2559988  98.0620012  27.8114997  11.9789988
  98.7240012  29.0614997  11.4379988  98.1216363  28.4361196  11.3796044
 109.3580012  31.7614997   7.9639988 108.9180012  31.0414997   8.4149988
 109.3450012  32.4824997   8.5939988 109.2960226  31.7603731   8.1108494
  98.9440012  32.8874997   9.7909988  98.5750012  32.0854997   9.4209988
  99.8850012  32.7184997   9.8369988  99.0207289  32.7550153   9.7466316
  95.5540012  26.5474997   5.1839988  95.1070012  27.3934997   5.1649988
  94.9930012  25.9674997   4.6679988  95.4169900  26.5849916   5.1116801
  96.2650012  28.7094997   7.3099988  96.4780012  27.9394997   7.8369988
  97.0030012  28.7984997   6.7059988  96.3938496  28.6161394   7.3005300
 106.4700012  36.8664997   8.1769988 107.0900012  36.1894997   7.9029988
 106.2620012  36.6484997   9.0849988 106.5266904  36.7443870   8.2623365
 104.0420012  31.2554997  10.0689988 104.3460012  30.5694997   9.4739988
 104.7630012  31.3734997  10.6869988 104.1810671  31.1776304  10.0711816
 112.7050012  22.8564997  10.9299988 112.7540012  23.4664997  11.6659988
 113.1300012  23.3174997  10.2069988 112.7691824  23.0023741  10.9330205
 107.1830012  25.6494997  10.3969988 107.3250012  24.7034997  10.4169988
 107.0760012  25.8564997   9.4679988 107.1879864  25.5479534  10.2742339
 100.3370012  23.7504997   7.6689988 100.3810012  24.6104997   7.2509988
  99.8800012  23.1984997   7.0349988 100.2812185  23.7935799   7.5260299
 108.0600012  23.8814997   6.0699988 108.7060012  23.5524997   6.6949988
 108.5700012  24.3994997   5.4469988 108.2174264  23.9064611   6.0713862
  96.9580012  26.1474997   8.4309988  97.6110012  25.5974997   8.8629988
  96.9820012  25.8734997   7.5139988  97.0506683  26.0351466   8.3662123
 102.1140012  27.6974997   7.6459988 102.7300012  27.1714997   8.1559988
 101.5280012  27.0574997   7.2429988 102.1190810  27.5389208   7.6613173
 113.0960012  24.3344997  13.1659988 112.4080012  24.9924997  13.0699988
 113.1120012  24.1374997  14.1019988 113.0038525  24.3980462  13.2794808
  99.1480012  22.6684997  11.7429988  98.9290012  23.1984997  10.9769988
  98.4800012  22.8954997  12.3899988  99.0277600  22.7716906  11.7256379
 106.5170012  32.1684997   5.2869988 106.2210012  31.8464997   4.4359988
 106.1920012  33.0684997   5.3279988 106.4326371  32.2460215   5.1761801
 101.7170012  30.3444997  12.0299988 100.9770012  30.9424997  12.1339988
 102.4310012  30.8984997  11.7149988 101.7122237  30.5012831  12.0016465
 109.8240012  23.1724997   8.0499988 109.6080012  22.4064997   8.5829988
 110.4790012  23.6444997   8.5629988 109.8830632  23.1315889   8.1922861
  98.7410012  24.5604997   9.6949988  99.3550012  25.1934997  10.0689988
  99.2530012  24.0884997   9.0389988  98.8942296  24.5832370   9.6574252
 100.1240012  32.3084997  12.8179988 100.1190012  33.1884997  12.4399988
  99.2710012  32.2254997  13.2429988 100.0079464  32.4176117  12.8237907
  96.2450012  31.9794997   3.5999988  95.9730012  32.2084997   2.7109988
  96.2910012  32.8174997   4.0599988  96.2140094  32.1241213   3.5405697
 109.8700012  33.6014997  10.3119988 108.9290012  33.6594997  10.4739988
 110.1470012  34.5074997  10.1749988 109.7784679  33.7319443  10.3156815
 110.1710012  21.8874997  11.7299988 109.4350012  22.4984997  11.6919988
 110.8540012  22.3024997  11.2029988 110.1626541  22.0271374  11.6535832
 103.1740012  19.9744997   9.1959988 103.0570012  19.0254997   9.1409988
 102.3190012  20.3064997   9.4689988 103.0423733  19.8895409   9.2253897
 108.1220012  35.3824997   6.9379988 108.5480012  34.6754997   6.4529988
 108.4390012  36.1834997   6.5209988 108.2231019  35.3940994   6.8153130
 109.2820012  33.2834997   5.4459988 109.0240012  32.5934997   4.8349988
 109.3530012  32.8404997   6.2919988 109.2562856  33.1292124   5.4766885
 110.9680012  31.8494997  13.9239988 111.1080012  31.2584997  13.1839988
 111.1350012  32.7224997  13.5669988 111.0096778  31.8866426  13.7746965
 105.4410012  28.8114997   3.6959988 104.7290012  29.3464997   3.3439988
 106.1320012  28.8674997   3.0359988 105.4370132  28.8922543   3.5586289
 105.4940012  27.2694997   0.7349988 106.1950012  27.2914997   1.3859988
 105.7970012  26.6414997   0.0789988 105.6307830  27.1876566   0.7353711
 112.8100012  28.1894997  11.9899988 112.1570012  28.8844997  12.0789988
 113.2750012  28.3994997  11.1799988 112.7835390  28.3129425  11.8926883
 108.8460012  29.0214997   4.6479988 108.1140012  29.2494997   5.2209988
 109.2940012  28.3074997   5.1029988 108.8063095  28.9562571   4.7879119
 108.7440012  27.1954997  13.7149988 108.8240012  27.9584997  14.2869988
 108.1420012  27.4744997  13.0249988 108.6735756  27.3377134  13.7000589
 100.4920012  29.6514997   6.5299988 100.1610012  29.2814997   5.7119988
 101.0800012  28.9814997   6.8769988 100.5261873  29.5101156   6.4648102
 101.8580012  33.0794997   9.2119988 101.7640012  32.5014997   8.4549988
 102.5880012  32.7084997   9.7079988 101.9437981  32.9502390   9.1754165
 100.8580012  28.4204997  10.1639988 101.4240012  28.5414997   9.4009988
 101.1770012  29.0574997  10.8029988 100.9785786  28.5231884  10.1460040
 107.1670012  33.9234997  10.8979988 106.9270012  34.5854997  11.5459988
 106.9690012  33.0894997  11.3229988 107.1073808  33.9013134  11.0441524
 101.7380012  32.8194997  14.8809988 101.4270012  33.6014997  15.3359988
 101.0880012  32.6664997  14.1949988 101.6075558  32.9059105  14.8505871
 107.7170012  28.1834997   2.3329988 108.2970012  28.3334997   3.0799988
 108.1310012  28.6544997   1.6099988 107.8522830  28.2676841   2.3374134
  98.6580012  29.0174997  14.1099988  98.7290012  29.6684997  14.8079988
  97.7680012  29.1204997  13.7749988  98.5473117  29.1205936  14.1602700
 105.4440012  34.9204997   5.7679988 105.9180012  35.2154997   6.5459988
 104.8810012  35.6584997   5.5349988 105.4327653  35.0606932   5.8430136
  99.9780012  34.8914997  15.6439988  99.9850012  34.7554997  14.6969988
  99.0620012  34.7734997  15.8959988  99.8551714  34.8569430  15.5484666
 111.4160012  19.9334997   2.1459988 110.5160012  20.0724997   2.4409988
 111.6680012  20.7644997   1.7439988 111.3268702  20.0649074   2.1320205
  99.4820012  28.7214997   4.1199988  99.1900012  29.4894997   3.6289988
  98.8080012  28.0614997   3.9569988  99.3509081  28.7374406   4.0307340
 112.6050012  34.2994997   0.5219988 112.6790012  35.2384997   0.6929988
 113.5110012  33.9944997   0.4659988 112.7375100  34.3866722   0.5378119
  95.5750012  31.0844997  12.9349988  95.0740012  31.0564997  12.1199988
  95.5800012  30.1784997  13.2439988  95.5071526  30.9582278  12.8652872
  95.3250012  33.8644997   9.8189988  96.2710012  33.7204997   9.7999988
  95.2130012  34.6484997  10.3559988  95.4392727  33.9508046   9.8890072
 113.5230012  34.5304997  15.5009988 113.4740012  33.5754997  15.4639988
 112.6960012  34.7984997  15.9019988 113.4044940  34.4358998  15.5501375
 104.5020012  34.1044997  14.3769988 104.5890012  34.9304997  14.8519988
 103.6380012  33.7744997  14.6259988 104.3971964  34.1729878  14.4756549
 104.9160012  37.8764997   4.1829988 104.8410012  37.7554997   3.2369988
 104.9490012  38.8264997   4.3019988 104.9101848  37.9882500   4.0694834
  98.5690012  36.6654997   5.9639988  98.7220012  36.3174997   6.8429988
  97.7190012  36.3094997   5.7089988  98.4748962  36.5696650   6.0498340
 108.0180012  37.0304997   1.1849988 108.3930012  36.2864997   0.7149988
 108.0220012  36.7604997   2.1039988 108.0698915  36.8921486   1.2447824
 107.6870012  36.9564997   3.9349988 106.7510012  37.0564997   4.1129988
 107.9670012  36.2474997   4.5129988 107.5968255  36.8742711   4.0375391
 110.6750012  26.0234997  15.9809988 110.2680012  26.5044997  15.2599988
 110.7160012  25.1184997  15.6729988 110.6248437  25.9669374  15.8406683
  97.8240012  32.4074997  13.9779988  98.0400012  32.0464997  14.8369988
  96.9690012  32.0334997  13.7679988  97.7379292  32.3074111  14.0673386
 100.4430012  20.8774997   9.9729988  99.5810012  20.7904997   9.5659988
 100.4200012  21.7334997  10.4009988 100.3220330  20.9812765   9.9751863
 105.1060012  20.5994997  13.3479988 105.5260012  20.1844997  14.1009988
 104.1730012  20.4214997  13.4649988 105.0373644  20.5185900  13.4669539
 108.4320012  24.3554997  14.2009988 107.9180012  24.2294997  14.9989988
 108.2770012  25.2674997  13.9569988 108.3406852  24.4616132  14.2772158
 109.1950012  29.2164997  -0.0370012 109.2370012  28.9934997  -0.9670012
 110.0440012  29.6154997   0.1529988 109.3155396  29.2399155  -0.1386373
 104.7670012  23.0924997   0.6329988 104.5140012  23.1114997   1.5559988
 104.5110012  22.2204997   0.3319988 104.6977790  22.9772437   0.7186263
 100.5340012  25.8434997  11.0679988  99.8920012  25.8024997  11.7769988
 100.5710012  26.7694997  10.8309988 100.4511324  25.9631559  11.1329824
 100.5310012  26.0644997   5.9799988  99.6380012  25.7234997   5.9219988
 100.9810012  25.6874997   5.2249988 100.4697305  25.9668484   5.8699177
 106.0660012  26.4804997   4.7969988 105.6570012  27.2954997   4.5059988
 106.7870012  26.3404997   4.1829988 106.1074537  26.5732018   4.6741342
 105.1680012  26.6554997  16.2849988 104.6060012  25.9514997  16.6059988
 105.9950012  26.5354997  16.7529988 105.2027095  26.5427883  16.3922330
 107.0710012  25.9264997   7.6109988 106.8760012  26.5314997   6.8959988
 107.2520012  25.0924997   7.1769988 107.0687614  25.8966300   7.4544405
  98.2840012  26.1634997  12.9349988  98.2460012  26.5634997  13.8039988
  97.7930012  25.3464997  13.0259988  98.2124684  26.1078069  13.0661059
 101.6500012  23.5374997  -0.2660012 101.2190012  23.0924997   0.4639988
 100.9320012  23.9094997  -0.7780012 101.4939438  23.5268940  -0.2353201
  94.8920012  23.2794997   6.7859988  95.5230012  23.2504997   7.5049988
  95.3410012  22.8544997   6.0559988  95.0390774  23.2180492   6.7856553
  96.1660012  24.0254997   2.2099988  96.6400012  24.6164997   1.6249988
  95.4490012  24.5564997   2.5569988  96.1339341  24.1780867   2.1768836
 106.3350012  27.5644997  12.2829988 106.6580012  26.9334997  11.6399988
 105.8950012  27.0294997  12.9429988 106.3196895  27.4058441  12.2842850
 103.1120012  23.4914997   7.0669988 102.2010012  23.5484997   7.3549988
 103.6180012  23.4314997   7.8769988 103.0555413  23.4911985   7.2160622
  97.9410012  25.1204997   5.8929988  97.0510012  25.2204997   5.5529988
  98.2370012  24.2784997   5.5469988  97.8592823  25.0203545   5.7997213
 101.5940012  25.1204997   3.5499988 102.5250012  25.2494997   3.7279988
 101.3790012  25.7904997   2.8999988 101.6924247  25.2286565   3.4865747
 107.5170012  22.7264997  10.3309988 106.8410012  22.8574997  10.9949988
 107.0320012  22.5714997   9.5209988 107.3587145  22.7234905  10.3124517
 100.2680012  26.3154997   1.1169988  99.7250012  25.9354997   0.4249988
 101.1010012  26.5094997   0.6879988 100.3064399  26.2898124   0.9644526
 110.8050012  38.3984997  16.6079988 111.0050012  38.8224997  15.7729988
 111.4600012  38.7414997  17.2149988 110.9210051  38.5029648  16.5757836
  98.4030012  30.8724997  16.2159988  99.1350012  31.1264997  16.7769988
  97.6230012  31.0764997  16.7309988  98.3978232  30.9349177  16.3625760
 104.4320012  26.2794997   8.9539988 104.9970012  25.7324997   8.4069988
 104.2850012  25.7574997   9.7419988 104.4892918  26.1342024   8.9858454
  99.4340012  22.4154997   5.3719988  99.1170012  21.5134997   5.3369988
 100.2160012  22.4174997   4.8189988  99.4962284  22.2921628   5.2924783
 103.0590012  24.6674997  11.3679988 102.2230012  25.1214997  11.4779988
 103.5830012  24.9434997  12.1199988 103.0154414  24.7669376  11.4847136
 103.6030012  30.8804997   3.0519988 102.8580012  30.3734997   2.7299988
 103.4690012  30.9294997   3.9989988 103.4828776  30.8176940   3.1358647
 110.7530012  30.0134997  11.8389988 111.3950012  30.4704997  11.2949988
 109.9230012  30.1264997  11.3759988 110.7285963  30.0912704  11.7020177
 107.5010012  23.6944997   1.2519988 106.5620012  23.8064997   1.0999988
 107.7980012  24.5514997   1.5579988 107.4127666  23.8256443   1.2725768
 105.1220012  31.0644997  14.2889988 104.7770012  30.6834997  15.0959988
 104.9220012  31.9984997  14.3609988 105.0478061  31.1385228  14.4090961
 108.2190012  25.5614997   2.9119988 109.1110012  25.4244997   3.2309988
 108.2760012  26.3524997   2.3759988 108.3486285  25.6496660   2.8831691
  98.7280012  30.1754997   8.8219988  99.4730012  30.1734997   8.2209988
  98.8060012  29.3524997   9.3039988  98.8405518  30.0639315   8.8048929
 105.7290012  32.3394997   2.0779988 105.4330012  33.1654997   2.4589988
 105.0260012  31.7194997   2.2739988 105.5934914  32.3688199   2.1566443
  95.7360012  28.6364997  14.1369988  95.9590012  28.2184997  14.9689988
  95.1340012  28.0234997  13.7139988  95.6851759  28.4964668  14.1937022
 102.7520012  28.1534997  16.3499988 102.4560012  27.9874997  15.4549988
 103.6840012  27.9334997  16.3389988 102.8374166  28.1010640  16.2260536
 107.3730012  33.5264997  14.2399988 106.4720012  33.7094997  13.9719988
 107.4070012  33.7854997  15.1609988 107.2543041  33.5865512  14.3278197
 113.1040012  25.7714997   2.6069988 112.5500012  25.3754997   1.9349988
 113.2040012  26.6814997   2.3289988 113.0417059  25.8403586   2.4774401
 113.0670012  31.5714997  15.4439988 112.2160012  31.8094997  15.0769988
 113.6580012  31.5544997  14.6909988 113.0302487  31.6018258  15.2918893
 111.3990012  34.5574997   3.0719988 111.0260012  33.7314997   3.3809988
 111.6770012  34.3744997   2.1749988 111.3855630  34.4197303   2.9929626
 108.5600012  29.3654997  10.0929988 107.6310012  29.1334997  10.0659988
 109.0110012  28.5884997   9.7629988 108.4939216  29.2287238  10.0446917
 101.1030012  33.6934997   6.2259988 101.6300012  34.4664997   6.0259988
 100.2230012  33.9184997   5.9249988 101.0561773  33.8298005   6.1579010
  96.8580012  28.5554997   0.8129988  97.4740012  29.1824997   1.1929988
  95.9960012  28.8714997   1.0849988  96.8257698  28.6839430   0.9017183
 102.5300012  31.3564997   5.8029988 102.2890012  32.2814997   5.8439988
 101.7890012  30.8974997   6.1989988 102.3968409  31.4211421   5.8621377
 103.0450012  35.5054997  12.1179988 103.4070012  36.3604997  11.8839988
 103.5760012  35.2134997  12.8579988 103.1664473  35.5831060  12.1860855
 101.2130012  36.3784997   5.3479988 100.2630012  36.4834997   5.3989988
 101.5650012  37.1984997   5.6929988 101.1304203  36.5038314   5.4016650
 106.5890012  31.6044997  11.8179988 106.1630012  31.3774997  12.6449988
 107.1690012  30.8664997  11.6359988 106.6091868  31.4735299  11.9065830
 108.7920012  32.5334997   0.8919988 109.1450012  32.1534997   1.6969988
 107.8430012  32.4404997   0.9789988 108.7120441  32.4689596   1.0138559
 109.2470012  36.1564997  14.2879988 108.6460012  35.6014997  13.7919988
 109.5290012  36.8234997  13.6619988 109.2028519  36.1706841  14.1354952
 113.2950012  37.0134997   1.0929988 114.0390012  37.5994997   0.9529988
 112.6010012  37.5814997   1.4269988 113.3030292  37.1705582   1.1189961
  97.3700012  23.3894997  13.6949988  96.4770012  23.7284997  13.6269988
  97.2710012  22.5344997  14.1129988  97.2344164  23.3202588  13.7422235
 109.6580012  31.2064997   3.1189988 109.3800012  30.4784997   3.6749988
 110.5850012  31.3254997   3.3239988 109.7453124  31.1228802   3.2228845
  97.0210012  35.1944997  12.1299988  97.2380012  34.2624997  12.0989988
  97.2670012  35.4684997  13.0129988  97.0839549  35.1040636  12.2451763
 102.8830012  33.6454997  -0.6610012 103.1220012  32.8974997  -1.2080012
 102.6140012  33.2574997   0.1719988 102.8793675  33.4906638  -0.6233135
 101.8200012  33.2154997   1.7959988 101.9660012  32.6954997   2.5859988
 101.8170012  34.1224997   2.1019988 101.8395989  33.2668853   1.9456088
  98.2730012  30.4684997   2.3059988  97.5870012  30.8204997   2.8729988
  98.7950012  31.2314997   2.0589988  98.2496852  30.6198578   2.3502118
 106.1040012  23.1304997  12.5849988 106.8030012  23.2044997  13.2349988
 105.7230012  22.2664997  12.7389988 106.1481767  23.0237624  12.6948322
 106.8890012  22.7824997   3.6819988 107.1090012  23.2544997   2.8789988
 107.4470012  23.1774997   4.3519988 106.9944968  22.9004285   3.6627331
 104.5570012  34.9134997   2.5449988 103.7410012  35.4104997   2.5969988
 105.0870012  35.3884997   1.9049988 104.5169161  35.0457722   2.4655956
 104.0890012  24.5104997   4.5169988 104.9010012  25.0154997   4.5629988
 103.8440012  24.3654997   5.4309988 104.1670520  24.5600375   4.6468517
 104.6240012  25.4964997  13.7019988 104.7430012  26.0704997  14.4589988
 105.2800012  24.8084997  13.8159988 104.7289757  25.4821079  13.8210825
 104.9720012  21.5914997   5.4549988 104.6260012  22.2094997   6.0999988
 105.6310012  22.0924997   4.9739988 105.0137826  21.7435802   5.4780971
 101.8960012  35.9574997   2.5269988 102.0560012  36.7564997   2.0259988
 101.6980012  36.2634997   3.4119988 101.8911649  36.1084469   2.5779815
 100.6300012  22.6544997   2.1419988 100.5470012  23.5434997   2.4889988
 101.5200012  22.3894997   2.3739988 100.7389469  22.7401430   2.2207626
 110.8290012  23.4034997  14.5369988 109.9120012  23.6664997  14.4489988
 111.1640012  23.4004997  13.6399988 110.7489900  23.4390224  14.4037919
 109.4310012  27.1544997   8.6319988 108.6330012  26.7394997   8.3039988
 109.8760012  26.4634997   9.1229988 109.3819885  27.0043543   8.6534889
  98.8890012  33.0824997   1.2029988  99.4810012  33.7814997   1.4789988
  99.3480012  32.6494997   0.4829988  99.0321142  33.1197049   1.1434830
  97.2050012  25.7464997   0.3189988  97.1600012  26.6854997   0.4969988
  96.3170012  25.5104997   0.0489988  97.0788574  25.8431892   0.3068912
 110.5170012  36.4104997  10.2549988 110.3620012  37.0884997   9.5979988
 111.4500012  36.4824997  10.4579988 110.6218500  36.5130170  10.1925119
  98.0130012  20.5284997   8.9919988  97.7840012  20.5874997   8.0639988
  97.5700012  19.7364997   9.2979988  97.9218530  20.4295753   8.9064786
  96.9430012  34.4684997   5.1519988  96.1110012  34.9414997   5.1799988
  97.4890012  34.9784997   4.5539988  96.9029739  34.6021871   5.0749716
  96.2310012  37.0814997  16.4819988  96.7720012  36.8644997  17.2419988
  95.7500012  36.2754997  16.2929988  96.2399345  36.9429514  16.5603076
 100.8290012  36.0004997  18.1029988 101.5960012  35.5414997  18.4439988
 100.8070012  35.7744997  17.1729988 100.9311434  35.9070409  18.0240043
 104.9210012  35.5084997  -0.5220012 104.2770012  34.8774997  -0.2010012
 105.6830012  34.9774997  -0.7540012 104.9358077  35.3502920  -0.5093989
 107.4060012  34.3804997  16.8319988 107.0550012  33.5244997  17.0749988
 108.1320012  34.5234997  17.4389988 107.4560769  34.2825636  16.9473619
 109.5250012  35.3254997  -0.2880012 109.8080012  34.5314997   0.1639988
 110.2650012  35.5584997  -0.8490012 109.6637486  35.2482803  -0.3019302
  96.1380012  30.8914997  17.4369988  96.2820012  29.9894997  17.1499988
  95.3660012  31.1774997  16.9489988  96.0533322  30.8068261  17.3317881
 100.4800012  31.2354997  -0.4310012 100.5440012  30.4414997   0.0999988
 101.1330012  31.1164997  -1.1210012 100.5770241  31.1107148  -0.4515683
 102.7940012  30.8614997  16.8689988 102.4650012  31.1324997  16.0119988
 102.9460012  29.9204997  16.7819988 102.7694809  30.7713862  16.7398244
 105.8320012  32.2824997  -0.6950012 105.5630012  32.4624997   0.2059988
 105.6260012  31.3564997  -0.8260012 105.7673825  32.1820152  -0.5894786
 108.5280012  30.7774997  14.2529988 109.2740012  31.3654997  14.1329988
 107.7710012  31.3594997  14.3159988 108.5277554  30.9367011  14.2450907
  96.9710012  28.0914997  16.8569988  97.3790012  27.2344997  16.7359988
  96.7110012  28.1064997  17.7779988  96.9917568  27.9760807  16.9649588
 101.6290012  29.2074997   1.8749988 101.1690012  28.7234997   2.5609988
 101.8840012  28.5394997   1.2389988 101.6004902  29.0508731   1.8829334
 100.9180012  27.1004997  14.2309988 100.3000012  27.7754997  14.5109988
 101.2620012  27.4214997  13.3979988 100.8799615  27.2362721  14.1566581
 102.7000012  27.4504997   0.1369988 102.5200012  27.2964997  -0.7900012
 103.6500012  27.5584997   0.1819988 102.8037776  27.4440175   0.0161843
 105.9380012  29.5724997  17.5079988 106.8910012  29.6554997  17.4809988
 105.7770012  28.8604997  18.1279988 106.0466426  29.4876746  17.5880579
 112.0900012  29.8054997  -0.4170012 111.8160012  29.3804997  -1.2300012
 112.1290012  30.7364997  -0.6340012 112.0577699  29.8732484  -0.5576390
 101.2570012  24.4554997  15.3129988 101.4070012  23.7264997  14.7109988
 101.2600012  25.2324997  14.7539988 101.2779302  24.4607851  15.1550692
 101.6700012  22.8254997  12.8059988 102.2060012  23.2764997  12.1539988
 100.8180012  22.7174997  12.3829988 101.6282178  22.8726390  12.6595756
 103.2520012  28.2644997  13.0449988 104.0020012  28.1084997  12.4719988
 102.9130012  29.1164997  12.7699988 103.3088921  28.3582968  12.9293561
 107.6670012  26.0794997  18.0739988 107.8600012  25.1484997  17.9619988
 108.5250012  26.5044997  18.0639988 107.8093020  26.0096389  18.0573361
 108.9840012  28.8684997  16.1509988 108.7030012  29.5774997  15.5739988
 109.9270012  28.7954997  15.9999988 109.0729027  28.9557646  16.0515551
  99.7360012  25.6534997  17.2249988  98.9690012  25.1214997  17.0149988
 100.4150012  25.3434997  16.6249988  99.7227022  25.5387506  17.1151648
 102.4760012  20.2814997  13.2369988 102.3770012  21.2284997  13.1319988
 101.7330012  19.9094997  12.7619988 102.3620564  20.3605902  13.1584560
 103.7400012  24.6034997  16.8009988 103.5040012  24.3834997  17.7029988
 102.9560012  24.3964997  16.2909988 103.6018628  24.5454760  16.8553932
 106.4550012  23.7304997  15.8769988 105.5080012  23.7624997  16.0089988
 106.7680012  23.1054997  16.5299988 106.3675475  23.6503207  15.9834455
 108.0890012  22.3644997  17.8819988 107.9930012  21.4124997  17.8759988
 107.7680012  22.6334997  18.7419988 108.0324070  22.2704035  17.9975441
  97.9160012  23.5744997  16.9289988  98.1280012  22.8674997  16.3189988
  97.8050012  23.1364997  17.7729988  97.9299721  23.4187084  16.9596843
 102.6970012  19.5754997  15.9089988 103.4090012  18.9354997  15.8949988
 102.5960012  19.8424997  14.9949988 102.7807939  19.5239938  15.7835650
 103.0510012  21.2584997  17.9619988 102.9190012  20.7824997  17.1419988
 102.4520012  22.0024997  17.9069988 102.9519071  21.2939618  17.8422886
 102.5970012  38.1414997   1.1389988 103.5300012  38.2994997   1.2819988
 102.3330012  38.8164997   0.5139988 102.6889510  38.2543611   1.0740741
  96.1660012  32.7774997   0.6209988  97.0800012  32.8564997   0.8949988
  96.1730012  32.0904997  -0.0450012  96.2921131  32.6953961   0.5684393
  94.8150012  38.1704997   5.6989988  94.1680012  37.7084997   5.1659988
  95.1690012  37.4984997   6.2809988  94.7743849  38.0164723   5.7047959
  95.6850012  36.2514997   7.5029988  95.3500012  35.3714997   7.6749988
  95.9070012  36.5964997   8.3679988  95.6691783  36.1777500   7.6434208
 113.2330012  37.0604997  10.4839988 113.2120012  37.2454997  11.4229988
 113.9240012  37.6294997  10.1429988 113.3234618  37.1626606  10.5663864
 112.7970012  36.6284997  13.4059988 112.3090012  35.8924997  13.0349988
 113.3460012  36.2344997  14.0839988 112.8044872  36.4746249  13.4469160
 111.2470012  32.4174997  18.0439988 110.3810012  32.3124997  18.4379988
 111.6240012  33.1764997  18.4899988 111.1793308  32.5056900  18.1582393
 112.5480012  30.6744997   3.5579988 113.3980012  31.0954997   3.6849988
 112.5540012  29.9344997   4.1649988 112.6651372  30.6320803   3.6574344
 112.9430012  28.7274997   5.3819988 112.2160012  28.2484997   5.7789988
 113.5240012  28.9334997   6.1139988 112.9219375  28.6897090   5.5354129
 112.7020012  31.5124997  10.3289988 113.5350012  31.1344997  10.0489988
 112.8140012  32.4554997  10.2099988 112.8312647  31.5882218  10.2745487
 111.1880012  34.3904997  12.6359988 110.5410012  34.7154997  13.2619988
 110.6710012  33.9504997  11.9619988 111.0294029  34.3755004  12.6305827
 113.2110012  28.6284997   1.7729988 112.6890012  28.9854997   1.0539988
 113.1780012  29.3034997   2.4509988 113.1351634  28.7685413   1.7663145
 111.5600012  25.8684997   0.3239988 111.6560012  26.5354997  -0.3570012
 111.4200012  25.0524997  -0.1580012 111.5542135  25.8494500   0.1658491
 110.7290012  27.2484997   5.9449988 110.5790012  26.3034997   5.9239988
 110.3760012  27.5294997   6.7879988 110.6606625  27.1570441   6.0562346
  95.7650012  29.3264997   9.9549988  95.9490012  29.2444997   9.0189988
  96.6140012  29.2024997  10.3789988  95.9050139  29.2985003   9.8841455
 111.5860012  29.2184997  15.5829988 112.1690012  28.4844997  15.7749988
 112.1500012  29.9904997  15.6299988 111.7419769  29.2224227  15.6156159
 113.0820012  27.1214997  16.2679988 112.2190012  26.7424997  16.1019988
 113.6870012  26.3824997  16.1939988 113.0455979  26.9698023  16.2352817
 110.8070012  23.2764997  -0.5590012 111.4180012  22.9054997   0.0779988
 109.9710012  22.8554997  -0.3630012 110.7775032  23.1687554  -0.4452965
 110.4400012  24.8314997   4.4069988 110.7200012  23.9244997   4.5309988
 111.1990012  25.2654997   4.0179988 110.5809277  24.7660942   4.3713682
 111.0520012  25.4124997   9.8429988 111.9850012  25.6244997   9.8089988
 110.8170012  25.5144997  10.7649988 111.1478036  25.4552769   9.9629976
 111.0810012  26.1494997  12.6189988 110.2380012  26.4174997  12.9849988
 111.5230012  26.9714997  12.4079988 111.0254158  26.2973291  12.6405491
  95.3620012  24.5974997  16.0959988  96.2820012  24.4754997  16.3319988
  94.9130012  23.8474997  16.4849988  95.4271580  24.4793727  16.1809006
 113.3640012  20.1294997  17.9719988 113.7140012  19.4754997  17.3669988
 113.5110012  20.9664997  17.5329988 113.4318419  20.1531591  17.8297118
 111.0530012  22.0944997   4.4549988 111.2360012  21.6454997   5.2809988
 110.4540012  21.5094997   3.9919988 110.9970202  21.9539975   4.5053275
  96.5830012  22.9094997   8.9869988  97.0290012  22.1174997   9.2889988
  97.0500012  23.6254997   9.4179988  96.7070172  22.8980624   9.0864820
  94.8870012  25.9084997  10.0559988  95.3790012  25.6874997   9.2649988
  95.2500012  26.7494997  10.3369988  95.0033126  25.9918357   9.9857531
 112.8840012  22.2384997  16.3219988 111.9660012  22.5094997  16.2859988
 113.0070012  21.7034997  15.5369988 112.7751066  22.2032892  16.2110487
 112.9200012  22.1614997   0.9829988 113.3320012  21.4404997   0.5079988
 113.6020012  22.8314997   1.0419988 113.0685885  22.1532368   0.9258915
  95.2010012  22.1664997   4.1099988  94.2760012  22.3754997   3.9809988
  95.6550012  22.6504997   3.4209988  95.1357368  22.2605993   3.9991226
 109.9720012  37.1504997   6.0559988 110.6240012  36.8034997   5.4479988
 110.4820012  37.6394997   6.7019988 110.1302637  37.1690597   6.0600236
  95.1650012  20.9044997  12.4549988  94.5000012  20.6584997  13.0979988
  94.7220012  21.5264997  11.8769988  95.0140956  20.9548632  12.4649352
  97.3570012  34.0794997  16.5989988  96.5360012  34.2544997  16.1389988
  97.1040012  34.0064997  17.5199988  97.2106164  34.0935622  16.6604923
 100.3110012  35.0544997  12.8579988  99.8860012  35.8634997  12.5749988
 101.2150012  35.1394997  12.5559988 100.3750271  35.1768469  12.7783776
 104.6220012  36.4534997  15.8169988 104.8070012  36.1194997  16.6949988
 105.4680012  36.7624997  15.4949988 104.7617539  36.4496047  15.8935605
 106.9670012  37.7394997  15.0609988 107.6440012  37.1064997  14.8209988
 107.2890012  38.1404997  15.8679988 107.1031637  37.7071154  15.1372793
 111.8840012  20.3284997  14.1409988 111.0720012  20.6534997  13.7529988
 112.1170012  19.5684997  13.6079988 111.8043423  20.2702436  14.0158253
  97.7130012  38.3104997  12.9049988  96.9920012  38.7504997  12.4539988
  97.3470012  38.0594997  13.7539988  97.5649804  38.3367698  12.9579840
 100.1800012  37.9104997  11.9349988  99.3150012  37.9824997  12.3389988
 100.1250012  38.4574997  11.1509988 100.0542085  37.9942685  11.8843362
 104.8900012  37.7984997  11.1099988 104.4340012  38.3274997  10.4559988
 105.0530012  38.4014997  11.8359988 104.8495585  37.9524468  11.1185062
 107.2180012  36.6764997  12.0549988 106.3130012  36.8414997  11.7899988
 107.6470012  37.5294997  11.9899988 107.1520799  36.8144483  12.0099182
 109.8220012  38.2464997  12.3499988 109.6400012  39.1624997  12.1399988
 109.9990012  37.8364997  11.5039988 109.8210210  38.3164822  12.2067885
  97.1270012  36.9334997   9.8149988  97.1090012  36.5084997  10.6729988
  97.9320012  36.6154997   9.4069988  97.2333875  36.8323812   9.8771655
  99.2690012  35.6434997   8.4699988  99.0500012  34.7274997   8.6399988
 100.0930012  35.7834997   8.9359988  99.3504420  35.5370520   8.5562774
 101.8060012  36.1134997   9.3189988 102.0190012  35.2254997   9.0319988
 101.8700012  36.0794997  10.2729988 101.8438232  35.9873102   9.4087397
 105.3140012  21.7774997   8.4629988 104.6400012  21.1484997   8.7189988
 105.8780012  21.2934997   7.8599988 105.2979230  21.6258744   8.4165340
 110.4570012  19.8854997   8.5759988 111.0610012  20.4324997   8.0739988
 109.5870012  20.2044997   8.3359988 110.4221241  20.0035806   8.4747654
 112.1840012  21.0234997   6.9089988 112.7960012  20.5094997   6.3829988
 112.5660012  21.9014997   6.9329988 112.3194540  21.0717140   6.8401830
  97.6410012  20.4114997   6.2849988  96.8640012  20.1774997   5.7779988
  98.1710012  19.6144997   6.2939988  97.6062330  20.2716988   6.2167742
  96.4770012  20.2094997   2.0889988  96.9160012  20.8204997   1.4969988
  95.8440012  20.7474997   2.5629988  96.4514514  20.3659257   2.0720930
 102.2200012  20.3384997   6.0989988 103.0950012  20.7264997   6.0689988
 102.0840012  20.1234997   7.0209988 102.3213695  20.3625184   6.2196440
 107.7770012  20.3684997   7.7479988 107.8530012  20.4634997   6.7979988
 107.5020012  19.4604997   7.8769988 107.7502321  20.2587867   7.6355079
 109.1300012  20.3944997   3.4399988 108.4280012  21.0094997   3.2309988
 108.6860012  19.5564997   3.5709988 108.9736330  20.3655783   3.4290328
  96.3780012  36.1574997   2.9869988  95.6930012  36.1194997   2.3189988
  96.3820012  37.0704997   3.2749988  96.2848193  36.2757016   2.9345284
  98.3380012  22.1254997   0.5309988  98.8300012  21.4954997   0.0039988
  98.9620012  22.4214997   1.1949988  98.4895446  22.0793199   0.5485980
 103.3640012  22.4184997   2.9879988 103.5420012  21.7724997   3.6709988
 103.3110012  23.2524997   3.4559988 103.3811829  22.4427985   3.1445940
 105.2430012  37.3674997   1.3839988 106.1090012  37.7334997   1.2059988
 104.9960012  36.9274997   0.5699988 105.3282392  37.3581756   1.2496289
 111.9520012  36.9304997   4.0629988 111.7570012  36.1824997   3.4979988
 111.9130012  37.6884997   3.4799988 111.9200380  36.9306099   3.9068384
  97.5990012  20.9254997  15.8029988  97.2330012  20.1604997  16.2459988
  98.5120012  20.9544997  16.0899988  97.6722790  20.8247224  15.9024070
  99.5720012  20.2764997  17.3389988 100.4700012  20.0024997  17.1539988
  99.1850012  19.5334997  17.8029988  99.6426612  20.1385914  17.3763643
  98.1960012  37.0774997   0.0119988  97.9290012  37.3644997   0.8849988
  98.9680012  36.5314997   0.1639988  98.2637488  37.0430294   0.1521050
 107.9930012  19.6084997  17.5209988 108.0700012  19.1824997  18.3749988
 108.8870012  19.6224997  17.1779988 108.1243428  19.5520879  17.5915310
 111.1690012  35.6814997  16.2129988 110.3870012  35.4954997  15.6939988
 111.0970012  36.6104997  16.4309988 111.0521777  35.7816492  16.1714048
 125.5750012  29.5674997   6.2439988 125.6640012  30.5114997   6.1119988
 124.9370012  29.2924997   5.5859988 125.5009081  29.6594830   6.1369614
 124.5080012  28.8224997   9.6629988 124.4700012  28.1764997  10.3679988
 124.1860012  28.3564997   8.8919988 124.4592333  28.6709408   9.6552978
 116.8770012  28.4374997  11.2559988 116.9180012  27.8114997  11.9789988
 117.5800012  29.0614997  11.4379988 116.9776363  28.4361196  11.3796044
 128.2140012  31.7614997   7.9639988 127.7740012  31.0414997   8.4149988
 128.2010012  32.4824997   8.5939988 128.1520226  31.7603731   8.1108494
 117.8000012  32.8874997   9.7909988 117.4310012  32.0854997   9.4209988
 118.7410012  32.7184997   9.8369988 117.8767289  32.7550153   9.7466316
 114.4100012  26.5474997   5.1839988 113.9630012  27.3934997   5.1649988
 113.8490012  25.9674997   4.6679988 114.2729900  26.5849916   5.1116801
 115.1210012  28.7094997   7.3099988 115.3340012  27.9394997   7.8369988
 115.8590012  28.7984997   6.7059988 115.2498496  28.6161394   7.3005300
 125.3260012  36.8664997   8.1769988 125.9460012  36.1894997   7.9029988
 125.1180012  36.6484997   9.0849988 125.3826904  36.7443870   8.2623365
 122.8980012  31.2554997  10.0689988 123.2020012  30.5694997   9.4739988
 123.6190012  31.3734997  10.6869988 123.0370671  31.1776305  10.0711816
 131.5610012  22.8564997  10.9299988 131.6100012  23.4664997  11.6659988
 131.9860012  23.3174997  10.2069988 131.6251824  23.0023741  10.9330205
 126.0390012  25.6494997  10.3969988 126.1810012  24.7034997  10.4169988
 125.9320012  25.8564997   9.4679988 126.0439864  25.5479534  10.2742339
 119.1930012  23.7504997   7.6689988 119.2370012  24.6104997   7.2509988
 118.7360012  23.1984997   7.0349988 119.1372185  23.7935799   7.5260299
 126.9160012  23.8814997   6.0699988 127.5620012  23.5524997   6.6949988
 127.4260012  24.3994997   5.4469988 127.0734264  23.9064611   6.0713862
 115.8140012  26.1474997   8.4309988 116.4670012  25.5974997   8.8629988
 115.8380012  25.8734997   7.5139988 115.9066683  26.0351466   8.3662123
 120.9700012  27.6974997   7.6459988 121.5860012  27.1714997   8.1559988
 120.3840012  27.0574997   7.2429988 120.9750810  27.5389208   7.6613173
 131.9520012  24.3344997  13.1659988 131.2640012  24.9924997  13.0699988
 131.9680012  24.1374997  14.1019988 131.8598525  24.3980462  13.2794808
 118.0040012  22.6684997  11.7429988 117.7850012  23.1984997  10.9769988
 117.3360012  22.8954997  12.3899988 117.8837600  22.7716906  11.7256379
 125.3730012  32.1684997   5.2869988 125.0770012  31.8464997   4.4359988
 125.0480012  33.0684997   5.3279988 125.2886371  32.2460215   5.1761801
 120.5730012  30.3444997  12.0299988 119.8330012  30.9424997  12.1339988
 121.2870012  30.8984997  11.7149988 120.5682237  30.5012831  12.0016465
 128.6800012  23.1724997   8.0499988 128.4640012  22.4064997   8.5829988
 129.3350012  23.6444997   8.5629988 128.7390632  23.1315889   8.1922861
 117.5970012  24.5604997   9.6949988 118.2110012  25.1934997  10.0689988
 118.1090012  24.0884997   9.0389988 117.7502296  24.5832370   9.6574252
 118.9800012  32.3084997  12.8179988 118.9750012  33.1884997  12.4399988
 118.1270012  32.2254997  13.2429988 118.8639464  32.4176117  12.8237907
 115.1010012  31.9794997   3.5999988 114.8290012  32.2084997   2.7109988
 115.1470012  32.8174997   4.0599988 115.0700094  32.1241213   3.5405697
 128.7260012  33.6014997  10.3119988 127.7850012  33.6594997  10.4739988
 129.0030012  34.5074997  10.1749988 128.6344679  33.7319443  10.3156815
 129.0270012  21.8874997  11.7299988 128.2910012  22.4984997  11.6919988
 129.7100012  22.3024997  11.2029988 129.0186541  22.0271374  11.6535832
 122.0300012  19.9744997   9.1959988 121.9130012  19.0254997   9.1409988
 121.1750012  20.3064997   9.4689988 121.8983733  19.8895409   9.2253897
 126.9780012  35.3824997   6.9379988 127.4040012  34.6754997   6.4529988
 127.2950012  36.1834997   6.5209988 127.0791019  35.3940994   6.8153130
 128.1380012  33.2834997   5.4459988 127.8800012  32.5934997   4.8349988
 128.2090012  32.8404997   6.2919988 128.1122856  33.1292124   5.4766885
 129.8240012  31.8494997  13.9239988 129.9640012  31.2584997  13.1839988
 129.9910012  32.7224997  13.5669988 129.8656778  31.8866426  13.7746965
 124.2970012  28.8114997   3.6959988 123.5850012  29.3464997   3.3439988
 124.9880012  28.8674997   3.0359988 124.2930132  28.8922543   3.5586289
 124.3500012  27.2694997   0.7349988 125.0510012  27.2914997   1.3859988
 124.6530012  26.6414997   0.0789988 124.4867830  27.1876566   0.7353711
 131.6660012  28.1894997  11.9899988 131.0130012  28.8844997  12.0789988
 132.1310012  28.3994997  11.1799988 131.6395390  28.3129425  11.8926883
 127.7020012  29.0214997   4.6479988 126.9700012  29.2494997   5.2209988
 128.1500012  28.3074997   5.1029988 127.6623095  28.9562571   4.7879119
 127.6000012  27.1954997  13.7149988 127.6800012  27.9584997  14.2869988
 126.9980012  27.4744997  13.0249988 127.5295756  27.3377134  13.7000589
 119.3480012  29.6514997   6.5299988 119.0170012  29.2814997   5.7119988
 119.9360012  28.9814997   6.8769988 119.3821873  29.5101156   6.4648102
 120.7140012  33.0794997   9.2119988 120.6200012  32.5014997   8.4549988
 121.4440012  32.7084997   9.7079988 120.7997981  32.9502390   9.1754165
 119.7140012  28.4204997  10.1639988 120.2800012  28.5414997   9.4009988
 120.0330012  29.0574997  10.8029988 119.8345786  28.5231884  10.1460040
 126.0230012  33.9234997  10.8979988 125.7830012  34.5854997  11.5459988
 125.8250012  33.0894997  11.3229988 125.9633808  33.9013134  11.0441524
 120.5940012  32.8194997  14.8809988 120.2830012  33.6014997  15.3359988
 119.9440012  32.6664997  14.1949988 120.4635558  32.9059105  14.8505871
 126.5730012  28.1834997   2.3329988 127.1530012  28.3334997   3.0799988
 126.9870012  28.6544997   1.6099988 126.7082830  28.2676841   2.3374134
 117.5140012  29.0174997  14.1099988 117.5850012  29.6684997  14.8079988
 116.6240012  29.1204997  13.7749988 117.4033117  29.1205936  14.1602700
 124.3000012  34.9204997   5.7679988 124.7740012  35.2154997   6.5459988
 123.7370012  35.6584997   5.5349988 124.2887653  35.0606932   5.8430136
 118.8340012  34.8914997  15.6439988 118.8410012  34.7554997  14.6969988
 117.9180012  34.7734997  15.8959988 118.7111714  34.8569430  15.5484666
 130.2720012  19.9334997   2.1459988 129.3720012  20.0724997   2.4409988
 130.5240012  20.7644997   1.7439988 130.1828702  20.0649074   2.1320205
 118.3380012  28.7214997   4.1199988 118.0460012  29.4894997   3.6289988
 117.6640012  28.0614997   3.9569988 118.2069081  28.7374406   4.0307340
 131.4610012  34.2994997   0.5219988 131.5350012  35.2384997   0.6929988
 132.3670012  33.9944997   0.4659988 131.5935100  34.3866722   0.5378119
 114.4310012  31.0844997  12.9349988 113.9300012  31.0564997  12.1199988
 114.4360012  30.1784997  13.2439988 114.3631526  30.9582278  12.8652872
 114.1810012  33.8644997   9.8189988 115.1270012  33.7204997   9.7999988
 114.0690012  34.6484997  10.3559988 114.2952727  33.9508046   9.8890072
 132.3790012  34.5304997  15.5009988 132.3300012  33.5754997  15.4639988
 131.5520012  34.7984997  15.9019988 132.2604940  34.4358998  15.5501375
 123.3580012  34.1044997  14.3769988 123.4450012  34.9304997  14.8519988
 122.4940012  33.7744997  14.6259988 123.2531964  34.1729878  14.4756549
 123.7720012  37.8764997   4.1829988 123.6970012  37.7554997   3.2369988
 123.8050012  38.8264997   4.3019988 123.7661848  37.9882500   4.0694834
 117.4250012  36.6654997   5.9639988 117.5780012  36.3174997   6.8429988
 116.5750012  36.3094997   5.7089988 117.3308962  36.5696650   6.0498340
 126.8740012  37.0304997   1.1849988 127.2490012  36.2864997   0.7149988
 126.8780012  36.7604997   2.1039988 126.9258915  36.8921486   1.2447824
 126.5430012  36.9564997   3.9349988 125.6070012  37.0564997   4.1129988
 126.8230012  36.2474997   4.5129988 126.4528255  36.8742711   4.0375391
 129.5310012  26.0234997  15.9809988 129.1240012  26.5044997  15.2599988
 129.5720012  25.1184997  15.6729988 129.4808437  25.9669374  15.8406683
 116.6800012  32.4074997  13.9779988 116.8960012  32.0464997  14.8369988
 115.8250012  32.0334997  13.7679988 116.5939292  32.3074111  14.0673386
 119.2990012  20.8774997   9.9729988 118.4370012  20.7904997   9.5659988
 119.2760012  21.7334997  10.4009988 119.1780330  20.9812765   9.9751863
 123.9620012  20.5994997  13.3479988 124.3820012  20.1844997  14.1009988
 123.0290012  20.4214997  13.4649988 123.8933644  20.5185900  13.4669539
 127.2880012  24.3554997  14.2009988 126.7740012  24.2294997  14.9989988
 127.1330012  25.2674997  13.9569988 127.1966852  24.4616132  14.2772158
 128.0510012  29.2164997  -0.0370012 128.0930012  28.9934997  -0.9670012
 128.9000012  29.6154997   0.1529988 128.1715396  29.2399155  -0.1386373
 123.6230012  23.0924997   0.6329988 123.3700012  23.1114997   1.5559988
 123.3670012  22.2204997   0.3319988 123.5537790  22.9772437   0.7186263
 119.3900012  25.8434997  11.0679988 118.7480012  25.8024997  11.7769988
 119.4270012  26.7694997  10.8309988 119.3071324  25.9631559  11.1329824
 119.3870012  26.0644997   5.9799988 118.4940012  25.7234997   5.9219988
 119.8370012  25.6874997   5.2249988 119.3257305  25.9668484   5.8699177
 124.9220012  26.4804997   4.7969988 124.5130012  27.2954997   4.5059988
 125.6430012  26.3404997   4.1829988 124.9634537  26.5732018   4.6741342
 124.0240012  26.6554997  16.2849988 123.4620012  25.9514997  16.6059988
 124.8510012  26.5354997  16.7529988 124.0587095  26.5427883  16.3922330
 125.9270012  25.9264997   7.6109988 125.7320012  26.5314997   6.8959988
 126.1080012  25.0924997   7.1769988 125.9247614  25.8966300   7.4544405
 117.1400012  26.1634997  12.9349988 117.1020012  26.5634997  13.8039988
 116.6490012  25.3464997  13.0259988 117.0684684  26.1078069  13.0661059
 120.5060012  23.5374997  -0.2660012 120.0750012  23.0924997   0.4639988
 119.7880012  23.9094997  -0.7780012 120.3499438  23.5268940  -0.2353201
 113.7480012  23.2794997   6.7859988 114.3790012  23.2504997   7.5049988
 114.1970012  22.8544997   6.0559988 113.8950774  23.2180492   6.7856553
 115.0220012  24.0254997   2.2099988 115.4960012  24.6164997   1.6249988
 114.3050012  24.5564997   2.5569988 114.9899341  24.1780867   2.1768836
 125.1910012  27.5644997  12.2829988 125.5140012  26.9334997  11.6399988
 124.7510012  27.0294997  12.9429988 125.1756895  27.4058441  12.2842850
 121.9680012  23.4914997   7.0669988 121.0570012  23.5484997   7.3549988
 122.4740012  23.4314997   7.8769988 121.9115413  23.4911985   7.2160622
 116.7970012  25.1204997   5.8929988 115.9070012  25.2204997   5.5529988
 117.0930012  24.2784997   5.5469988 116.7152823  25.0203545   5.7997213
 120.4500012  25.1204997   3.5499988 121.3810012  25.2494997   3.7279988
 120.2350012  25.7904997   2.8999988 120.5484247  25.2286565   3.4865747
 126.3730012  22.7264997  10.3309988 125.6970012  22.8574997  10.9949988
 125.8880012  22.5714997   9.5209988 126.2147145  22.7234905  10.3124517
 119.1240012  26.3154997   1.1169988 118.5810012  25.9354997   0.4249988
 119.9570012  26.5094997   0.6879988 119.1624399  26.2898124   0.9644526
 129.6610012  38.3984997  16.6079988 129.8610012  38.8224997  15.7729988
 130.3160012  38.7414997  17.2149988 129.7770051  38.5029648  16.5757836
 117.2590012  30.8724997  16.2159988 117.9910012  31.1264997  16.7769988
 116.4790012  31.0764997  16.7309988 117.2538232  30.9349177  16.3625760
 123.2880012  26.2794997   8.9539988 123.8530012  25.7324997   8.4069988
 123.1410012  25.7574997   9.7419988 123.3452918  26.1342024   8.9858454
 118.2900012  22.4154997   5.3719988 117.9730012  21.5134997   5.3369988
 119.0720012  22.4174997   4.8189988 118.3522284  22.2921628   5.2924783
 121.9150012  24.6674997  11.3679988 121.0790012  25.1214997  11.4779988
 122.4390012  24.9434997  12.1199988 121.8714414  24.7669376  11.4847136
 122.4590012  30.8804997   3.0519988 121.7140012  30.3734997   2.7299988
 122.3250012  30.9294997   3.9989988 122.3388776  30.8176940   3.1358647
 129.6090012  30.0134997  11.8389988 130.2510012  30.4704997  11.2949988
 128.7790012  30.1264997  11.3759988 129.5845963  30.0912704  11.7020177
 126.3570012  23.6944997   1.2519988 125.4180012  23.8064997   1.0999988
 126.6540012  24.5514997   1.5579988 126.2687666  23.8256443   1.2725768
 123.9780012  31.0644997  14.2889988 123.6330012  30.6834997  15.0959988
 123.7780012  31.9984997  14.3609988 123.9038061  31.1385228  14.4090961
 127.0750012  25.5614997   2.9119988 127.9670012  25.4244997   3.2309988
 127.1320012  26.3524997   2.3759988 127.2046285  25.6496660   2.8831691
 117.5840012  30.1754997   8.8219988 118.3290012  30.1734997   8.2209988
 117.6620012  29.3524997   9.3039988 117.6965518  30.0639315   8.8048929
 124.5850012  32.3394997   2.0779988 124.2890012  33.1654997   2.4589988
 123.8820012  31.7194997   2.2739988 124.4494914  32.3688199   2.1566443
 114.5920012  28.6364997  14.1369988 114.8150012  28.2184997  14.9689988
 113.9900012  28.0234997  13.7139988 114.5411759  28.4964668  14.1937022
 121.6080012  28.1534997  16.3499988 121.3120012  27.9874997  15.4549988
 122.5400012  27.9334997  16.3389988 121.6934166  28.1010640  16.2260536
 126.2290012  33.5264997  14.2399988 125.3280012  33.7094997  13.9719988
 126.2630012  33.7854997  15.1609988 126.1103041  33.5865512  14.3278197
 131.9600012  25.7714997   2.6069988 131.4060012  25.3754997   1.9349988
 132.0600012  26.6814997   2.3289988 131.8977059  25.8403586   2.4774401
 131.9230012  31.5714997  15.4439988 131.0720012  31.8094997  15.0769988
 132.5140012  31.5544997  14.6909988 131.8862487  31.6018258  15.2918893
 130.2550012  34.5574997   3.0719988 129.8820012  33.7314997   3.3809988
 130.5330012  34.3744997   2.1749988 130.2415630  34.4197303   2.9929626
 127.4160012  29.3654997  10.0929988 126.4870012  29.1334997  10.0659988
 127.8670012  28.5884997   9.7629988 127.3499216  29.2287238  10.0446917
 119.9590012  33.6934997   6.2259988 120.4860012  34.4664997   6.0259988
 119.0790012  33.9184997   5.9249988 119.9121773  33.8298005   6.1579010
 115.7140012  28.5554997   0.8129988 116.3300012  29.1824997   1.1929988
 114.8520012  28.8714997   1.0849988 115.6817698  28.6839430   0.9017183
 121.3860012  31.3564997   5.8029988 121.1450012  32.2814997   5.8439988
 120.6450012  30.8974997   6.1989988 121.2528409  31.4211421   5.8621377
 121.9010012  35.5054997  12.1179988 122.2630012  36.3604997  11.8839988
 122.4320012  35.2134997  12.8579988 122.0224473  35.5831060  12.1860855
 120.0690012  36.3784997   5.3479988 119.1190012  36.4834997   5.3989988
 120.4210012  37.1984997   5.6929988 119.9864203  36.5038314   5.4016650
 125.4450012  31.6044997  11.8179988 125.0190012  31.3774997  12.6449988
 126.0250012  30.8664997  11.6359988 125.4651868  31.4735299  11.9065830
 127.6480012  32.5334997   0.8919988 128.0010012  32.1534997   1.6969988
 126.6990012  32.4404997   0.9789988 127.5680441  32.4689596   1.0138559
 128.1030012  36.1564997  14.2879988 127.5020012  35.6014997  13.7919988
 128.3850012  36.8234997  13.6619988 128.0588519  36.1706841  14.1354952
 132.1510012  37.0134997   1.0929988 132.8950012  37.5994997   0.9529988
 131.4570012  37.5814997   1.4269988 132.1590292  37.1705582   1.1189961
 116.2260012  23.3894997  13.6949988 115.3330012  23.7284997  13.6269988
 116.1270012  22.5344997  14.1129988 116.0904164  23.3202588  13.7422235
 128.5140012  31.2064997   3.1189988 128.2360012  30.4784997   3.6749988
 129.4410012  31.3254997   3.3239988 128.6013124  31.1228802   3.2228845
 115.8770012  35.1944997  12.1299988 116.0940012  34.2624997  12.0989988
 116.1230012  35.4684997  13.0129988 115.9399549  35.1040636  12.2451763
 121.7390012  33.6454997  -0.6610012 121.9780012  32.8974997  -1.2080012
 121.4700012  33.2574997   0.1719988 121.7353675  33.4906638  -0.6233135
 120.6760012  33.2154997   1.7959988 120.8220012  32.6954997   2.5859988
 120.6730012  34.1224997   2.1019988 120.6955989  33.2668853   1.9456088
 117.1290012  30.4684997   2.3059988 116.4430012  30.8204997   2.8729988
 117.6510012  31.2314997   2.0589988 117.1056852  30.6198578   2.3502118
 124.9600012  23.1304997  12.5849988 125.6590012  23.2044997  13.2349988
 124.5790012  22.2664997  12.7389988 125.0041767  23.0237624  12.6948322
 125.7450012  22.7824997   3.6819988 125.9650012  23.2544997   2.8789988
 126.3030012  23.1774997   4.3519988 125.8504968  22.9004285   3.6627331
 123.4130012  34.9134997   2.5449988 122.5970012  35.4104997   2.5969988
 123.9430012  35.3884997   1.9049988 123.3729161  35.0457722   2.4655956
 122.9450012  24.5104997   4.5169988 123.7570012  25.0154997   4.5629988
 122.7000012  24.3654997   5.4309988 123.0230520  24.5600375   4.6468517
 123.4800012  25.4964997  13.7019988 123.5990012  26.0704997  14.4589988
 124.1360012  24.8084997  13.8159988 123.5849757  25.4821079  13.8210825
 123.8280012  21.5914997   5.4549988 123.4820012  22.2094997   6.0999988
 124.4870012  22.0924997   4.9739988 123.8697826  21.7435802   5.4780971
 120.7520012  35.9574997   2.5269988 120.9120012  36.7564997   2.0259988
 120.5540012  36.2634997   3.4119988 120.7471649  36.1084469   2.5779815
 119.4860012  22.6544997   2.1419988 119.4030012  23.5434997   2.4889988
 120.3760012  22.3894997   2.3739988 119.5949469  22.7401430   2.2207626
 129.6850012  23.4034997  14.5369988 128.7680012  23.6664997  14.4489988
 130.0200012  23.4004997  13.6399988 129.6049900  23.4390224  14.4037919
 128.2870012  27.1544997   8.6319988 127.4890012  26.7394997   8.3039988
 128.7320012  26.4634997   9.1229988 128.2379885  27.0043543   8.6534889
 117.7450012  33.0824997   1.2029988 118.3370012  33.7814997   1.4789988
 118.2040012  32.6494997   0.4829988 117.8881142  33.1197049   1.1434830
 116.0610012  25.7464997   0.3189988 116.0160012  26.6854997   0.4969988
 115.1730012  25.5104997   0.0489988 115.9348574  25.8431892   0.3068912
 129.3730012  36.4104997  10.2549988 129.2180012  37.0884997   9.5979988
 130.3060012  36.4824997  10.4579988 129.4778500  36.5130170  10.1925119
 116.8690012  20.5284997   8.9919988 116.6400012  20.5874997   8.0639988
 116.4260012  19.7364997   9.2979988 116.7778530  20.4295753   8.9064786
 115.7990012  34.4684997   5.1519988 114.9670012  34.9414997   5.1799988
 116.3450012  34.9784997   4.5539988 115.7589739  34.6021871   5.0749716
 115.0870012  37.0814997  16.4819988 115.6280012  36.8644997  17.2419988
 114.6060012  36.2754997  16.2929988 115.0959345  36.9429514  16.5603076
 119.6850012  36.0004997  18.1029988 120.4520012  35.5414997  18.4439988
 119.6630012  35.7744997  17.1729988 119.7871434  35.9070409  18.0240043
 123.7770012  35.5084997  -0.5220012 123.1330012  34.8774997  -0.2010012
 124.5390012  34.9774997  -0.7540012 123.7918077  35.3502920  -0.5093989
 126.2620012  34.3804997  16.8319988 125.9110012  33.5244997  17.0749988
 126.9880012  34.5234997  17.4389988 126.3120769  34.2825636  16.9473619
 128.3810012  35.3254997  -0.2880012 128.6640012  34.5314997   0.1639988
 129.1210012  35.5584997  -0.8490012 128.5197486  35.2482803  -0.3019302
 114.9940012  30.8914997  17.4369988 115.1380012  29.9894997  17.1499988
 114.2220012  31.1774997  16.9489988 114.9093322  30.8068261  17.3317881
 119.3360012  31.2354997  -0.4310012 119.4000012  30.4414997   0.0999988
 119.9890012  31.1164997  -1.1210012 119.4330241  31.1107148  -0.4515683
 121.6500012  30.8614997  16.8689988 121.3210012  31.1324997  16.0119988
 121.8020012  29.9204997  16.7819988 121.6254809  30.7713862  16.7398244
 124.6880012  32.2824997  -0.6950012 124.4190012  32.4624997   0.2059988
 124.4820012  31.3564997  -0.8260012 124.6233825  32.1820152  -0.5894786
 127.3840012  30.7774997  14.2529988 128.1300012  31.3654997  14.1329988
 126.6270012  31.3594997  14.3159988 127.3837554  30.9367011  14.2450907
 115.8270012  28.0914997  16.8569988 116.2350012  27.2344997  16.7359988
 115.5670012  28.1064997  17.7779988 115.8477568  27.9760807  16.9649588
 120.4850012  29.2074997   1.8749988 120.0250012  28.7234997   2.5609988
 120.7400012  28.5394997   1.2389988 120.4564902  29.0508731   1.8829334
 119.7740012  27.1004997  14.2309988 119.1560012  27.7754997  14.5109988
 120.1180012  27.4214997  13.3979988 119.7359615  27.2362721  14.1566581
 121.5560012  27.4504997   0.1369988 121.3760012  27.2964997  -0.7900012
 122.5060012  27.5584997   0.1819988 121.6597776  27.4440175   0.0161843
 124.7940012  29.5724997  17.5079988 125.7470012  29.6554997  17.4809988
 124.6330012  28.8604997  18.1279988 124.9026426  29.4876746  17.5880579
 130.9460012  29.8054997  -0.4170012 130.6720012  29.3804997  -1.2300012
 130.9850012  30.7364997  -0.6340012 130.9137699  29.8732484  -0.5576390
 120.1130012  24.4554997  15.3129988 120.2630012  23.7264997  14.7109988
 120.1160012  25.2324997  14.7539988 120.1339302  24.4607851  15.1550692
 120.5260012  22.8254997  12.8059988 121.0620012  23.2764997  12.1539988
 119.6740012  22.7174997  12.3829988 120.4842178  22.8726390  12.6595756
 122.1080012  28.2644997  13.0449988 122.8580012  28.1084997  12.4719988
 121.7690012  29.1164997  12.7699988 122.1648921  28.3582968  12.9293561
 126.5230012  26.0794997  18.0739988 126.7160012  25.1484997  17.9619988
 127.3810012  26.5044997  18.0639988 126.6653020  26.0096389  18.0573361
 127.8400012  28.8684997  16.1509988 127.5590012  29.5774997  15.5739988
 128.7830012  28.7954997  15.9999988 127.9289027  28.9557646  16.0515551
 118.5920012  25.6534997  17.2249988 117.8250012  25.1214997  17.0149988
 119.2710012  25.3434997  16.6249988 118.5787022  25.5387506  17.1151648
 121.3320012  20.2814997  13.2369988 121.2330012  21.2284997  13.1319988
 120.5890012  19.9094997  12.7619988 121.2180564  20.3605902  13.1584560
 122.5960012  24.6034997  16.8009988 122.3600012  24.3834997  17.7029988
 121.8120012  24.3964997  16.2909988 122.4578628  24.5454760  16.8553932
 125.3110012  23.7304997  15.8769988 124.3640012  23.7624997  16.0089988
 125.6240012  23.1054997  16.5299988 125.2235475  23.6503207  15.9834455
 126.9450012  22.3644997  17.8819988 126.8490012  21.4124997  17.8759988
 126.6240012  22.6334997  18.7419988 126.8884070  22.2704035  17.9975441
 116.7720012  23.5744997  16.9289988 116.9840012  22.8674997  16.3189988
 116.6610012  23.1364997  17.7729988 116.7859721  23.4187084  16.9596843
 121.5530012  19.5754997  15.9089988 122.2650012  18.9354997  15.8949988
 121.4520012  19.8424997  14.9949988 121.6367939  19.5239938  15.7835650
 121.9070012  21.2584997  17.9619988 121.7750012  20.7824997  17.1419988
 121.3080012  22.0024997  17.9069988 121.8079071  21.2939618  17.8422886
 121.4530012  38.1414997   1.1389988 122.3860012  38.2994997   1.2819988
 121.1890012  38.8164997   0.5139988 121.5449510  38.2543611   1.0740741
 115.0220012  32.7774997   0.6209988 115.9360012  32.8564997   0.8949988
 115.0290012  32.0904997  -0.0450012 115.1481131  32.6953961   0.5684393
 113.6710012  38.1704997   5.6989988 113.0240012  37.7084997   5.1659988
 114.0250012  37.4984997   6.2809988 113.6303849  38.0164723   5.7047959
 114.5410012  36.2514997   7.5029988 114.2060012  35.3714997   7.6749988
 114.7630012  36.5964997   8.3679988 114.5251783  36.1777500   7.6434208
 132.0890012  37.0604997  10.4839988 132.0680012  37.2454997  11.4229988
 132.7800012  37.6294997  10.1429988 132.1794618  37.1626606  10.5663864
 131.6530012  36.6284997  13.4059988 131.1650012  35.8924997  13.0349988
 132.2020012  36.2344997  14.0839988 131.6604872  36.4746249  13.4469160
 130.1030012  32.4174997  18.0439988 129.2370012  32.3124997  18.4379988
 130.4800012  33.1764997  18.4899988 130.0353308  32.5056900  18.1582393
 131.4040012  30.6744997   3.5579988 132.2540012  31.0954997   3.6849988
 131.4100012  29.9344997   4.1649988 131.5211372  30.6320803   3.6574344
 131.7990012  28.7274997   5.3819988 131.0720012  28.2484997   5.7789988
 132.3800012  28.9334997   6.1139988 131.7779375  28.6897090   5.5354129
 131.5580012  31.5124997  10.3289988 132.3910012  31.1344997  10.0489988
 131.6700012  32.4554997  10.2099988 131.6872647  31.5882218  10.2745487
 130.0440012  34.3904997  12.6359988 129.3970012  34.7154997  13.2619988
 129.5270012  33.9504997  11.9619988 129.8854029  34.3755004  12.6305827
 132.0670012  28.6284997   1.7729988 131.5450012  28.9854997   1.0539988
 132.0340012  29.3034997   2.4509988 131.9911634  28.7685413   1.7663145
 130.4160012  25.8684997   0.3239988 130.5120012  26.5354997  -0.3570012
 130.2760012  25.0524997  -0.1580012 130.4102135  25.8494500   0.1658491
 129.5850012  27.2484997   5.9449988 129.4350012  26.3034997   5.9239988
 129.2320012  27.5294997   6.7879988 129.5166625  27.1570441   6.0562346
 114.6210012  29.3264997   9.9549988 114.8050012  29.2444997   9.0189988
 115.4700012  29.2024997  10.3789988 114.7610139  29.2985003   9.8841455
 130.4420012  29.2184997  15.5829988 131.0250012  28.4844997  15.7749988
 131.0060012  29.9904997  15.6299988 130.5979769  29.2224227  15.6156159
 131.9380012  27.1214997  16.2679988 131.0750012  26.7424997  16.1019988
 132.5430012  26.3824997  16.1939988 131.9015979  26.9698023  16.2352817
 129.6630012  23.2764997  -0.5590012 130.2740012  22.9054997   0.0779988
 128.8270012  22.8554997  -0.3630012 129.6335032  23.1687554  -0.4452965
 129.2960012  24.8314997   4.4069988 129.5760012  23.9244997   4.5309988
 130.0550012  25.2654997   4.0179988 129.4369277  24.7660942   4.3713682
 129.9080012  25.4124997   9.8429988 130.8410012  25.6244997   9.8089988
 129.6730012  25.5144997  10.7649988 130.0038036  25.4552769   9.9629976
 129.9370012  26.1494997  12.6189988 129.0940012  26.4174997  12.9849988
 130.3790012  26.9714997  12.4079988 129.8814158  26.2973291  12.6405491
 114.2180012  24.5974997  16.0959988 115.1380012  24.4754997  16.3319988
 113.7690012  23.8474997  16.4849988 114.2831580  24.4793727  16.1809006
 132.2200012  20.1294997  17.9719988 132.5700012  19.4754997  17.3669988
 132.3670012  20.9664997  17.5329988 132.2878419  20.1531591  17.8297118
 129.9090012  22.0944997   4.4549988 130.0920012  21.6454997   5.2809988
 129.3100012  21.5094997   3.9919988 129.8530202  21.9539975   4.5053275
 115.4390012  22.9094997   8.9869988 115.8850012  22.1174997   9.2889988
 115.9060012  23.6254997   9.4179988 115.5630172  22.8980624   9.0864820
 113.7430012  25.9084997  10.0559988 114.2350012  25.6874997   9.2649988
 114.1060012  26.7494997  10.3369988 113.8593126  25.9918357   9.9857531
 131.7400012  22.2384997  16.3219988 130.8220012  22.5094997  16.2859988
 131.8630012  21.7034997  15.5369988 131.6311066  22.2032892  16.2110487
 131.7760012  22.1614997   0.9829988 132.1880012  21.4404997   0.5079988
 132.4580012  22.8314997   1.0419988 131.9245885  22.1532368   0.9258915
 114.0570012  22.1664997   4.1099988 113.1320012  22.3754997   3.9809988
 114.5110012  22.6504997   3.4209988 113.9917368  22.2605993   3.9991226
 128.8280012  37.1504997   6.0559988 129.4800012  36.8034997   5.4479988
 129.3380012  37.6394997   6.7019988 128.9862637  37.1690597   6.0600236
 114.0210012  20.9044997  12.4549988 113.3560012  20.6584997  13.0979988
 113.5780012  21.5264997  11.8769988 113.8700956  20.9548632  12.4649352
 116.2130012  34.0794997  16.5989988 115.3920012  34.2544997  16.1389988
 115.9600012  34.0064997  17.5199988 116.0666164  34.0935622  16.6604923
 119.1670012  35.0544997  12.8579988 118.7420012  35.8634997  12.5749988
 120.0710012  35.1394997  12.5559988 119.2310271  35.1768469  12.7783776
 123.4780012  36.4534997  15.8169988 123.6630012  36.1194997  16.6949988
 124.3240012  36.7624997  15.4949988 123.6177539  36.4496047  15.8935605
 125.8230012  37.7394997  15.0609988 126.5000012  37.1064997  14.8209988
 126.1450012  38.1404997  15.8679988 125.9591637  37.7071154  15.1372793
 130.7400012  20.3284997  14.1409988 129.9280012  20.6534997  13.7529988
 130.9730012  19.5684997  13.6079988 130.6603423  20.2702436  14.0158253
 116.5690012  38.3104997  12.9049988 115.8480012  38.7504997  12.4539988
 116.2030012  38.0594997  13.7539988 116.4209804  38.3367698  12.9579840
 119.0360012  37.9104997  11.9349988 118.1710012  37.9824997  12.3389988
 118.9810012  38.4574997  11.1509988 118.9102085  37.9942685  11.8843362
 123.7460012  37.7984997  11.1099988 123.2900012  38.3274997  10.4559988
 123.9090012  38.4014997  11.8359988 123.7055585  37.9524468  11.1185062
 126.0740012  36.6764997  12.0549988 125.1690012  36.8414997  11.7899988
 126.5030012  37.5294997  11.9899988 126.0080799  36.8144483  12.0099182
 128.6780012  38.2464997  12.3499988 128.4960012  39.1624997  12.1399988
 128.8550012  37.8364997  11.5039988 128.6770210  38.3164822  12.2067885
 115.9830012  36.9334997   9.8149988 115.9650012  36.5084997  10.6729988
 116.7880012  36.6154997   9.4069988 116.0893875  36.8323812   9.8771655
 118.1250012  35.6434997   8.4699988 117.9060012  34.7274997   8.6399988
 118.9490012  35.7834997   8.9359988 118.2064420  35.5370520   8.5562774
 120.6620012  36.1134997   9.3189988 120.8750012  35.2254997   9.0319988
 120.7260012  36.0794997  10.2729988 120.6998232  35.9873102   9.4087397
 124.1700012  21.7774997   8.4629988 123.4960012  21.1484997   8.7189988
 124.7340012  21.2934997   7.8599988 124.1539230  21.6258744   8.4165340
 129.3130012  19.8854997   8.5759988 129.9170012  20.4324997   8.0739988
 128.4430012  20.2044997   8.3359988 129.2781241  20.0035806   8.4747654
 131.0400012  21.0234997   6.9089988 131.6520012  20.5094997   6.3829988
 131.4220012  21.9014997   6.9329988 131.1754540  21.0717140   6.8401830
 116.4970012  20.4114997   6.2849988 115.7200012  20.1774997   5.7779988
 117.0270012  19.6144997   6.2939988 116.4622330  20.2716988   6.2167742
 115.3330012  20.2094997   2.0889988 115.7720012  20.8204997   1.4969988
 114.7000012  20.7474997   2.5629988 115.3074514  20.3659257   2.0720930
 121.0760012  20.3384997   6.0989988 121.9510012  20.7264997   6.0689988
 120.9400012  20.1234997   7.0209988 121.1773695  20.3625184   6.2196440
 126.6330012  20.3684997   7.7479988 126.7090012  20.4634997   6.7979988
 126.3580012  19.4604997   7.8769988 126.6062321  20.2587867   7.6355079
 127.9860012  20.3944997   3.4399988 127.2840012  21.0094997   3.2309988
 127.5420012  19.5564997   3.5709988 127.8296330  20.3655783   3.4290328
 115.2340012  36.1574997   2.9869988 114.5490012  36.1194997   2.3189988
 115.2380012  37.0704997   3.2749988 115.1408193  36.2757016   2.9345284
 117.1940012  22.1254997   0.5309988 117.6860012  21.4954997   0.0039988
 117.8180012  22.4214997   1.1949988 117.3455446  22.0793199   0.5485980
 122.2200012  22.4184997   2.9879988 122.3980012  21.7724997   3.6709988
 122.1670012  23.2524997   3.4559988 122.2371829  22.4427985   3.1445940
 124.0990012  37.3674997   1.3839988 124.9650012  37.7334997   1.2059988
 123.8520012  36.9274997   0.5699988 124.1842392  37.3581756   1.2496289
 130.8080012  36.9304997   4.0629988 130.6130012  36.1824997   3.4979988
 130.7690012  37.6884997   3.4799988 130.7760380  36.9306099   3.9068384
 116.4550012  20.9254997  15.8029988 116.0890012  20.1604997  16.2459988
 117.3680012  20.9544997  16.0899988 116.5282790  20.8247224  15.9024070
 118.4280012  20.2764997  17.3389988 119.3260012  20.0024997  17.1539988
 118.0410012  19.5334997  17.8029988 118.4986612  20.1385914  17.3763643
 117.0520012  37.0774997   0.0119988 116.7850012  37.3644997   0.8849988
 117.8240012  36.5314997   0.1639988 117.1197488  37.0430294   0.1521050
 126.8490012  19.6084997  17.5209988 126.9260012  19.1824997  18.3749988
 127.7430012  19.6224997  17.1779988 126.9803428  19.5520879  17.5915310
 130.0250012  35.6814997  16.2129988 129.2430012  35.4954997  15.6939988
 129.9530012  36.6104997  16.4309988 129.9081777  35.7816492  16.1714048
 144.4310012  29.5674997   6.2439988 144.5200012  30.5114997   6.1119988
 143.7930012  29.2924997   5.5859988 144.3569081  29.6594830   6.1369614
 143.3640012  28.8224997   9.6629988 143.3260012  28.1764997  10.3679988
 143.0420012  28.3564997   8.8919988 143.3152333  28.6709408   9.6552978
 135.7330012  28.4374997  11.2559988 135.7740012  27.8114997  11.9789988
 136.4360012  29.0614997  11.4379988 135.8336363  28.4361196  11.3796044
 136.6560012  32.8874997   9.7909988 136.2870012  32.0854997   9.4209988
 137.5970012  32.7184997   9.8369988 136.7327289  32.7550153   9.7466316
 133.2660012  26.5474997   5.1839988 132.8190012  27.3934997   5.1649988
 132.7050012  25.9674997   4.6679988 133.1289900  26.5849916   5.1116801
 133.9770012  28.7094997   7.3099988 134.1900012  27.9394997   7.8369988
 134.7150012  28.7984997   6.7059988 134.1058496  28.6161394   7.3005300
 144.1820012  36.8664997   8.1769988 144.8020012  36.1894997   7.9029988
 143.9740012  36.6484997   9.0849988 144.2386904  36.7443870   8.2623365
 141.7540012  31.2554997  10.0689988 142.0580012  30.5694997   9.4739988
 142.4750012  31.3734997  10.6869988 141.8930671  31.1776305  10.0711816
 144.8950012  25.6494997  10.3969988 145.0370012  24.7034997  10.4169988
 144.7880012  25.8564997   9.4679988 144.8999863  25.5479534  10.2742339
 138.0490012  23.7504997   7.6689988 138.0930012  24.6104997   7.2509988
 137.5920012  23.1984997   7.0349988 137.9932185  23.7935799   7.5260299
 134.6700012  26.1474997   8.4309988 135.3230012  25.5974997   8.8629988
 134.6940012  25.8734997   7.5139988 134.7626683  26.0351466   8.3662123
 139.8260012  27.6974997   7.6459988 140.4420012  27.1714997   8.1559988
 139.2400012  27.0574997   7.2429988 139.8310810  27.5389208   7.6613173
 136.8600012  22.6684997  11.7429988 136.6410012  23.1984997  10.9769988
 136.1920012  22.8954997  12.3899988 136.7397600  22.7716906  11.7256379
 144.2290012  32.1684997   5.2869988 143.9330012  31.8464997   4.4359988
 143.9040012  33.0684997   5.3279988 144.1446371  32.2460215   5.1761801
 139.4290012  30.3444997  12.0299988 138.6890012  30.9424997  12.1339988
 140.1430012  30.8984997  11.7149988 139.4242237  30.5012831  12.0016465
 136.4530012  24.5604997   9.6949988 137.0670012  25.1934997  10.0689988
 136.9650012  24.0884997   9.0389988 136.6062296  24.5832370   9.6574252
 137.8360012  32.3084997  12.8179988 137.8310012  33.1884997  12.4399988
 136.9830012  32.2254997  13.2429988 137.7199464  32.4176117  12.8237907
 133.9570012  31.9794997   3.5999988 133.6850012  32.2084997   2.7109988
 134.0030012  32.8174997   4.0599988 133.9260094  32.1241213   3.5405697
 140.8860012  19.9744997   9.1959988 140.7690012  19.0254997   9.1409988
 140.0310012  20.3064997   9.4689988 140.7543733  19.8895409   9.2253897
 143.1530012  28.8114997   3.6959988 142.4410012  29.3464997   3.3439988
 143.8440012  28.8674997   3.0359988 143.1490132  28.8922543   3.5586289
 143.2060012  27.2694997   0.7349988 143.9070012  27.2914997   1.3859988
 143.5090012  26.6414997   0.0789988 143.3427830  27.1876566   0.7353711
 138.2040012  29.6514997   6.5299988 137.8730012  29.2814997   5.7119988
 138.7920012  28.9814997   6.8769988 138.2381873  29.5101156   6.4648102
 139.5700012  33.0794997   9.2119988 139.4760012  32.5014997   8.4549988
 140.3000012  32.7084997   9.7079988 139.6557981  32.9502390   9.1754165
 138.5700012  28.4204997  10.1639988 139.1360012  28.5414997   9.4009988
 138.8890012  29.0574997  10.8029988 138.6905786  28.5231884  10.1460040
 144.8790012  33.9234997  10.8979988 144.6390012  34.5854997  11.5459988
 144.6810012  33.0894997  11.3229988 144.8193808  33.9013134  11.0441524
 139.4500012  32.8194997  14.8809988 139.1390012  33.6014997  15.3359988
 138.8000012  32.6664997  14.1949988 139.3195558  32.9059105  14.8505871
 136.3700012  29.0174997  14.1099988 136.4410012  29.6684997  14.8079988
 135.4800012  29.1204997  13.7749988 136.2593117  29.1205936  14.1602700
 143.1560012  34.9204997   5.7679988 143.6300012  35.2154997   6.5459988
 142.5930012  35.6584997   5.5349988 143.1447653  35.0606932   5.8430136
 137.6900012  34.8914997  15.6439988 137.6970012  34.7554997  14.6969988
 136.7740012  34.7734997  15.8959988 137.5671714  34.8569430  15.5484666
 137.1940012  28.7214997   4.1199988 136.9020012  29.4894997   3.6289988
 136.5200012  28.0614997   3.9569988 137.0629081  28.7374406   4.0307340
 133.2870012  31.0844997  12.9349988 132.7860012  31.0564997  12.1199988
 133.2920012  30.1784997  13.2439988 133.2191526  30.9582278  12.8652872
 133.0370012  33.8644997   9.8189988 133.9830012  33.7204997   9.7999988
 132.9250012  34.6484997  10.3559988 133.1512727  33.9508046   9.8890072
 142.2140012  34.1044997  14.3769988 142.3010012  34.9304997  14.8519988
 141.3500012  33.7744997  14.6259988 142.1091964  34.1729878  14.4756549
 142.6280012  37.8764997   4.1829988 142.5530012  37.7554997   3.2369988
 142.6610012  38.8264997   4.3019988 142.6221848  37.9882500   4.0694834
 136.2810012  36.6654997   5.9639988 136.4340012  36.3174997   6.8429988
 135.4310012  36.3094997   5.7089988 136.1868962  36.5696650   6.0498340
 135.5360012  32.4074997  13.9779988 135.7520012  32.0464997  14.8369988
 134.6810012  32.0334997  13.7679988 135.4499292  32.3074111  14.0673386
 138.1550012  20.8774997   9.9729988 137.2930012  20.7904997   9.5659988
 138.1320012  21.7334997  10.4009988 138.0340330  20.9812765   9.9751863
 142.8180012  20.5994997  13.3479988 143.2380012  20.1844997  14.1009988
 141.8850012  20.4214997  13.4649988 142.7493644  20.5185900  13.4669539
 142.4790012  23.0924997   0.6329988 142.2260012  23.1114997   1.5559988
 142.2230012  22.2204997   0.3319988 142.4097790  22.9772437   0.7186263
 138.2460012  25.8434997  11.0679988 137.6040012  25.8024997  11.7769988
 138.2830012  26.7694997  10.8309988 138.1631324  25.9631559  11.1329824
 138.2430012  26.0644997   5.9799988 137.3500012  25.7234997   5.9219988
 138.6930012  25.6874997   5.2249988 138.1817305  25.9668484   5.8699177
 143.7780012  26.4804997   4.7969988 143.3690012  27.2954997   4.5059988
 144.4990012  26.3404997   4.1829988 143.8194537  26.5732018   4.6741342
 142.8800012  26.6554997  16.2849988 142.3180012  25.9514997  16.6059988
 143.7070012  26.5354997  16.7529988 142.9147095  26.5427883  16.3922330
 144.7830012  25.9264997   7.6109988 144.5880012  26.5314997   6.8959988
 144.9640012  25.0924997   7.1769988 144.7807614  25.8966300   7.4544405
 135.9960012  26.1634997  12.9349988 135.9580012  26.5634997  13.8039988
 135.5050012  25.3464997  13.0259988 135.9244684  26.1078069  13.0661059
 139.3620012  23.5374997  -0.2660012 138.9310012  23.0924997   0.4639988
 138.6440012  23.9094997  -0.7780012 139.2059438  23.5268940  -0.2353201
 132.6040012  23.2794997   6.7859988 133.2350012  23.2504997   7.5049988
 133.0530012  22.8544997   6.0559988 132.7510774  23.2180492   6.7856553
 133.8780012  24.0254997   2.2099988 134.3520012  24.6164997   1.6249988
 133.1610012  24.5564997   2.5569988 133.8459341  24.1780867   2.1768836
 144.0470012  27.5644997  12.2829988 144.3700012  26.9334997  11.6399988
 143.6070012  27.0294997  12.9429988 144.0316895  27.4058441  12.2842850
 140.8240012  23.4914997   7.0669988 139.9130012  23.5484997   7.3549988
 141.3300012  23.4314997   7.8769988 140.7675413  23.4911985   7.2160622
 135.6530012  25.1204997   5.8929988 134.7630012  25.2204997   5.5529988
 135.9490012  24.2784997   5.5469988 135.5712823  25.0203545   5.7997213
 139.3060012  25.1204997   3.5499988 140.2370012  25.2494997   3.7279988
 139.0910012  25.7904997   2.8999988 139.4044247  25.2286565   3.4865747
 137.9800012  26.3154997   1.1169988 137.4370012  25.9354997   0.4249988
 138.8130012  26.5094997   0.6879988 138.0184399  26.2898124   0.9644526
 136.1150012  30.8724997  16.2159988 136.8470012  31.1264997  16.7769988
 135.3350012  31.0764997  16.7309988 136.1098232  30.9349177  16.3625760
 142.1440012  26.2794997   8.9539988 142.7090012  25.7324997   8.4069988
 141.9970012  25.7574997   9.7419988 142.2012918  26.1342024   8.9858454
 137.1460012  22.4154997   5.3719988 136.8290012  21.5134997   5.3369988
 137.9280012  22.4174997   4.8189988 137.2082284  22.2921628   5.2924783
 140.7710012  24.6674997  11.3679988 139.9350012  25.1214997  11.4779988
 141.2950012  24.9434997  12.1199988 140.7274414  24.7669376  11.4847136
 141.3150012  30.8804997   3.0519988 140.5700012  30.3734997   2.7299988
 141.1810012  30.9294997   3.9989988 141.1948776  30.8176940   3.1358647
 142.8340012  31.0644997  14.2889988 142.4890012  30.6834997  15.0959988
 142.6340012  31.9984997  14.3609988 142.7598061  31.1385228  14.4090961
 136.4400012  30.1754997   8.8219988 137.1850012  30.1734997   8.2209988
 136.5180012  29.3524997   9.3039988 136.5525518  30.0639315   8.8048929
 143.4410012  32.3394997   2.0779988 143.1450012  33.1654997   2.4589988
 142.7380012  31.7194997   2.2739988 143.3054914  32.3688199   2.1566443
 133.4480012  28.6364997  14.1369988 133.6710012  28.2184997  14.9689988
 132.8460012  28.0234997  13.7139988 133.3971759  28.4964668  14.1937022
 140.4640012  28.1534997  16.3499988 140.1680012  27.9874997  15.4549988
 141.3960012  27.9334997  16.3389988 140.5494166  28.1010640  16.2260536
 138.8150012  33.6934997   6.2259988 139.3420012  34.4664997   6.0259988
 137.9350012  33.9184997   5.9249988 138.7681773  33.8298005   6.1579010
 134.5700012  28.5554997   0.8129988 135.1860012  29.1824997   1.1929988
 133.7080012  28.8714997   1.0849988 134.5377698  28.6839430   0.9017183
 140.2420012  31.3564997   5.8029988 140.0010012  32.2814997   5.8439988
 139.5010012  30.8974997   6.1989988 140.1088409  31.4211421   5.8621377
 140.7570012  35.5054997  12.1179988 141.1190012  36.3604997  11.8839988
 141.2880012  35.2134997  12.8579988 140.8784473  35.5831060  12.1860855
 138.9250012  36.3784997   5.3479988 137.9750012  36.4834997   5.3989988
 139.2770012  37.1984997   5.6929988 138.8424203  36.5038314   5.4016650
 144.3010012  31.6044997  11.8179988 143.8750012  31.3774997  12.6449988
 144.8810012  30.8664997  11.6359988 144.3211868  31.4735299  11.9065830
 135.0820012  23.3894997  13.6949988 134.1890012  23.7284997  13.6269988
 134.9830012  22.5344997  14.1129988 134.9464164  23.3202588  13.7422235
 134.7330012  35.1944997  12.1299988 134.9500012  34.2624997  12.0989988
 134.9790012  35.4684997  13.0129988 134.7959549  35.1040636  12.2451763
 140.5950012  33.6454997  -0.6610012 140.8340012  32.8974997  -1.2080012
 140.3260012  33.2574997   0.1719988 140.5913675  33.4906638  -0.6233135
 139.5320012  33.2154997   1.7959988 139.6780012  32.6954997   2.5859988
 139.5290012  34.1224997   2.1019988 139.5515989  33.2668853   1.9456088
 135.9850012  30.4684997   2.3059988 135.2990012  30.8204997   2.8729988
 136.5070012  31.2314997   2.0589988 135.9616852  30.6198578   2.3502118
 143.8160012  23.1304997  12.5849988 144.5150012  23.2044997  13.2349988
 143.4350012  22.2664997  12.7389988 143.8601767  23.0237624  12.6948322
 144.6010012  22.7824997   3.6819988 144.8210012  23.2544997   2.8789988
 145.1590012  23.1774997   4.3519988 144.7064968  22.9004285   3.6627331
 142.2690012  34.9134997   2.5449988 141.4530012  35.4104997   2.5969988
 142.7990012  35.3884997   1.9049988 142.2289161  35.0457722   2.4655956
 141.8010012  24.5104997   4.5169988 142.6130012  25.0154997   4.5629988
 141.5560012  24.3654997   5.4309988 141.8790520  24.5600375   4.6468517
 142.3360012  25.4964997  13.7019988 142.4550012  26.0704997  14.4589988
 142.9920012  24.8084997  13.8159988 142.4409757  25.4821079  13.8210825
 142.6840012  21.5914997   5.4549988 142.3380012  22.2094997   6.0999988
 143.3430012  22.0924997   4.9739988 142.7257826  21.7435802   5.4780971
 139.6080012  35.9574997   2.5269988 139.7680012  36.7564997   2.0259988
 139.4100012  36.2634997   3.4119988 139.6031649  36.1084469   2.5779815
 138.3420012  22.6544997   2.1419988 138.2590012  23.5434997   2.4889988
 139.2320012  22.3894997   2.3739988 138.4509469  22.7401430   2.2207626
 136.6010012  33.0824997   1.2029988 137.1930012  33.7814997   1.4789988
 137.0600012  32.6494997   0.4829988 136.7441142  33.1197049   1.1434830
 134.9170012  25.7464997   0.3189988 134.8720012  26.6854997   0.4969988
 134.0290012  25.5104997   0.0489988 134.7908574  25.8431892   0.3068912
 135.7250012  20.5284997   8.9919988 135.4960012  20.5874997   8.0639988
 135.2820012  19.7364997   9.2979988 135.6338530  20.4295753   8.9064786
 134.6550012  34.4684997   5.1519988 133.8230012  34.9414997   5.1799988
 135.2010012  34.9784997   4.5539988 134.6149739  34.6021871   5.0749716
 133.9430012  37.0814997  16.4819988 134.4840012  36.8644997  17.2419988
 133.4620012  36.2754997  16.2929988 133.9519345  36.9429514  16.5603076
 138.5410012  36.0004997  18.1029988 139.3080012  35.5414997  18.4439988
 138.5190012  35.7744997  17.1729988 138.6431434  35.9070409  18.0240043
 142.6330012  35.5084997  -0.5220012 141.9890012  34.8774997  -0.2010012
 143.3950012  34.9774997  -0.7540012 142.6478077  35.3502920  -0.5093989
 133.8500012  30.8914997  17.4369988 133.9940012  29.9894997  17.1499988
 133.0780012  31.1774997  16.9489988 133.7653322  30.8068261  17.3317881
 138.1920012  31.2354997  -0.4310012 138.2560012  30.4414997   0.0999988
 138.8450012  31.1164997  -1.1210012 138.2890241  31.1107148  -0.4515683
 140.5060012  30.8614997  16.8689988 140.1770012  31.1324997  16.0119988
 140.6580012  29.9204997  16.7819988 140.4814809  30.7713862  16.7398244
 143.5440012  32.2824997  -0.6950012 143.2750012  32.4624997   0.2059988
 143.3380012  31.3564997  -0.8260012 143.4793825  32.1820152  -0.5894786
 134.6830012  28.0914997  16.8569988 135.0910012  27.2344997  16.7359988
 134.4230012  28.1064997  17.7779988 134.7037568  27.9760807  16.9649588
 139.3410012  29.2074997   1.8749988 138.8810012  28.7234997   2.5609988
 139.5960012  28.5394997   1.2389988 139.3124902  29.0508731   1.8829334
 138.6300012  27.1004997  14.2309988 138.0120012  27.7754997  14.5109988
 138.9740012  27.4214997  13.3979988 138.5919615  27.2362721  14.1566581
 140.4120012  27.4504997   0.1369988 140.2320012  27.2964997  -0.7900012
 141.3620012  27.5584997   0.1819988 140.5157776  27.4440175   0.0161843
 143.6500012  29.5724997  17.5079988 144.6030012  29.6554997  17.4809988
 143.4890012  28.8604997  18.1279988 143.7586426  29.4876746  17.5880579
 138.9690012  24.4554997  15.3129988 139.1190012  23.7264997  14.7109988
 138.9720012  25.2324997  14.7539988 138.9899302  24.4607851  15.1550692
 139.3820012  22.8254997  12.8059988 139.9180012  23.2764997  12.1539988
 138.5300012  22.7174997  12.3829988 139.3402178  22.8726390  12.6595756
 140.9640012  28.2644997  13.0449988 141.7140012  28.1084997  12.4719988
 140.6250012  29.1164997  12.7699988 141.0208921  28.3582968  12.9293561
 137.4480012  25.6534997  17.2249988 136.6810012  25.1214997  17.0149988
 138.1270012  25.3434997  16.6249988 137.4347022  25.5387506  17.1151648
 140.1880012  20.2814997  13.2369988 140.0890012  21.2284997  13.1319988
 139.4450012  19.9094997  12.7619988 140.0740564  20.3605902  13.1584560
 141.4520012  24.6034997  16.8009988 141.2160012  24.3834997  17.7029988
 140.6680012  24.3964997  16.2909988 141.3138628  24.5454760  16.8553932
 144.1670012  23.7304997  15.8769988 143.2200012  23.7624997  16.0089988
 144.4800012  23.1054997  16.5299988 144.0795475  23.6503207  15.9834455
 135.6280012  23.5744997  16.9289988 135.8400012  22.8674997  16.3189988
 135.5170012  23.1364997  17.7729988 135.6419721  23.4187084  16.9596843
 140.4090012  19.5754997  15.9089988 141.1210012  18.9354997  15.8949988
 140.3080012  19.8424997  14.9949988 140.4927939  19.5239938  15.7835650
 140.7630012  21.2584997  17.9619988 140.6310012  20.7824997  17.1419988
 140.1640012  22.0024997  17.9069988 140.6639071  21.2939618  17.8422886
 140.3090012  38.1414997   1.1389988 141.2420012  38.2994997   1.2819988
 140.0450012  38.8164997   0.5139988 140.4009510  38.2543611   1.0740741
 133.8780012  32.7774997   0.6209988 134.7920012  32.8564997   0.8949988
 133.8850012  32.0904997  -0.0450012 134.0041131  32.6953961   0.5684393
 132.5270012  38.1704997   5.6989988 131.8800012  37.7084997   5.1659988
 132.8810012  37.4984997   6.2809988 132.4863849  38.0164723   5.7047959
 133.3970012  36.2514997   7.5029988 133.0620012  35.3714997   7.6749988
 133.6190012  36.5964997   8.3679988 133.3811783  36.1777500   7.6434208
 133.4770012  29.3264997   9.9549988 133.6610012  29.2444997   9.0189988
 134.3260012  29.2024997  10.3789988 133.6170139  29.2985003   9.8841455
 133.0740012  24.5974997  16.0959988 133.9940012  24.4754997  16.3319988
 132.6250012  23.8474997  16.4849988 133.1391580  24.4793727  16.1809006
 134.2950012  22.9094997   8.9869988 134.7410012  22.1174997   9.2889988
 134.7620012  23.6254997   9.4179988 134.4190172  22.8980624   9.0864820
 132.5990012  25.9084997  10.0559988 133.0910012  25.6874997   9.2649988
 132.9620012  26.7494997  10.3369988 132.7153126  25.9918357   9.9857531
 132.9130012  22.1664997   4.1099988 131.9880012  22.3754997   3.9809988
 133.3670012  22.6504997   3.4209988 132.8477368  22.2605994   3.9991226
 132.8770012  20.9044997  12.4549988 132.2120012  20.6584997  13.0979988
 132.4340012  21.5264997  11.8769988 132.7260956  20.9548632  12.4649352
 135.0690012  34.0794997  16.5989988 134.2480012  34.2544997  16.1389988
 134.8160012  34.0064997  17.5199988 134.9226164  34.0935622  16.6604923
 138.0230012  35.0544997  12.8579988 137.5980012  35.8634997  12.5749988
 138.9270012  35.1394997  12.5559988 138.0870271  35.1768469  12.7783776
 142.3340012  36.4534997  15.8169988 142.5190012  36.1194997  16.6949988
 143.1800012  36.7624997  15.4949988 142.4737539  36.4496047  15.8935605
 144.6790012  37.7394997  15.0609988 145.3560012  37.1064997  14.8209988
 145.0010012  38.1404997  15.8679988 144.8151637  37.7071154  15.1372793
 135.4250012  38.3104997  12.9049988 134.7040012  38.7504997  12.4539988
 135.0590012  38.0594997  13.7539988 135.2769804  38.3367698  12.9579840
 137.8920012  37.9104997  11.9349988 137.0270012  37.9824997  12.3389988
 137.8370012  38.4574997  11.1509988 137.7662085  37.9942685  11.8843362
 142.6020012  37.7984997  11.1099988 142.1460012  38.3274997  10.4559988
 142.7650012  38.4014997  11.8359988 142.5615585  37.9524468  11.1185062
 134.8390012  36.9334997   9.8149988 134.8210012  36.5084997  10.6729988
 135.6440012  36.6154997   9.4069988 134.9453875  36.8323812   9.8771655
 136.9810012  35.6434997   8.4699988 136.7620012  34.7274997   8.6399988
 137.8050012  35.7834997   8.9359988 137.0624420  35.5370520   8.5562774
 139.5180012  36.1134997   9.3189988 139.7310012  35.2254997   9.0319988
 139.5820012  36.0794997  10.2729988 139.5558232  35.9873102   9.4087397
 143.0260012  21.7774997   8.4629988 142.3520012  21.1484997   8.7189988
 143.5900012  21.2934997   7.8599988 143.0099230  21.6258744   8.4165340
 135.3530012  20.4114997   6.2849988 134.5760012  20.1774997   5.7779988
 135.8830012  19.6144997   6.2939988 135.3182330  20.2716988   6.2167742
 134.1890012  20.2094997   2.0889988 134.6280012  20.8204997   1.4969988
 133.5560012  20.7474997   2.5629988 134.1634514  20.3659257   2.0720930
 139.9320012  20.3384997   6.0989988 140.8070012  20.7264997   6.0689988
 139.7960012  20.1234997   7.0209988 140.0333695  20.3625184   6.2196440
 134.0900012  36.1574997   2.9869988 133.4050012  36.1194997   2.3189988
 134.0940012  37.0704997   3.2749988 133.9968193  36.2757016   2.9345284
 136.0500012  22.1254997   0.5309988 136.5420012  21.4954997   0.0039988
 136.6740012  22.4214997   1.1949988 136.2015446  22.0793199   0.5485980
 141.0760012  22.4184997   2.9879988 141.2540012  21.7724997   3.6709988
 141.0230012  23.2524997   3.4559988 141.0931829  22.4427985   3.1445940
 142.9550012  37.3674997   1.3839988 143.8210012  37.7334997   1.2059988
 142.7080012  36.9274997   0.5699988 143.0402392  37.3581756   1.2496289
 135.3110012  20.9254997  15.8029988 134.9450012  20.1604997  16.2459988
 136.2240012  20.9544997  16.0899988 135.3842790  20.8247224  15.9024070
 137.2840012  20.2764997  17.3389988 138.1820012  20.0024997  17.1539988
 136.8970012  19.5334997  17.8029988 137.3546612  20.1385914  17.3763643
 135.9080012  37.0774997   0.0119988 135.6410012  37.3644997   0.8849988
 136.6800012  36.5314997   0.1639988 135.9757488  37.0430294   0.1521050
  12.4390012  48.4234997   6.2439988  12.5280012  49.3674997   6.1119988
  11.8010012  48.1484997   5.5859988  12.3649081  48.5154830   6.1369614
  11.3720012  47.6784997   9.6629988  11.3340012  47.0324997  10.3679988
  11.0500012  47.2124997   8.8919988  11.3232333  47.5269408   9.6552978
   3.7410012  47.2934997  11.2559988   3.7820012  46.6674997  11.9789988
   4.4440012  47.9174997  11.4379988   3.8416363  47.2921196  11.3796044
  15.0780012  50.6174997   7.9639988  14.6380012  49.8974997   8.4149988
  15.0650012  51.3384997   8.5939988  15.0160226  50.6163731   8.1108494
   4.6640012  51.7434997   9.7909988   4.2950012  50.9414997   9.4209988
   5.6050012  51.5744997   9.8369988   4.7407289  51.6110153   9.7466316
   1.2740012  45.4034997   5.1839988   0.8270012  46.2494997   5.1649988
   0.7130012  44.8234997   4.6679988   1.1369900  45.4409916   5.1116801
   1.9850012  47.5654997   7.3099988   2.1980012  46.7954997   7.8369988
   2.7230012  47.6544997   6.7059988   2.1138496  47.4721394   7.3005300
  12.1900012  55.7224997   8.1769988  12.8100012  55.0454997   7.9029988
  11.9820012  55.5044997   9.0849988  12.2466904  55.6003870   8.2623365
   9.7620012  50.1114997  10.0689988  10.0660012  49.4254997   9.4739988
  10.4830012  50.2294997  10.6869988   9.9010671  50.0336305  10.0711816
  18.4250012  41.7124997  10.9299988  18.4740012  42.3224997  11.6659988
  18.8500012  42.1734997  10.2069988  18.4891824  41.8583741  10.9330205
  12.9030012  44.5054997  10.3969988  13.0450012  43.5594997  10.4169988
  12.7960012  44.7124997   9.4679988  12.9079864  44.4039534  10.2742339
   6.0570012  42.6064997   7.6689988   6.1010012  43.4664997   7.2509988
   5.6000012  42.0544997   7.0349988   6.0012185  42.6495799   7.5260299
  13.7800012  42.7374997   6.0699988  14.4260012  42.4084997   6.6949988
  14.2900012  43.2554997   5.4469988  13.9374264  42.7624611   6.0713862
   2.6780012  45.0034997   8.4309988   3.3310012  44.4534997   8.8629988
   2.7020012  44.7294997   7.5139988   2.7706683  44.8911466   8.3662123
   7.8340012  46.5534997   7.6459988   8.4500012  46.0274997   8.1559988
   7.2480012  45.9134997   7.2429988   7.8390810  46.3949208   7.6613173
  18.8160012  43.1904997  13.1659988  18.1280012  43.8484997  13.0699988
  18.8320012  42.9934997  14.1019988  18.7238525  43.2540462  13.2794808
   4.8680012  41.5244997  11.7429988   4.6490012  42.0544997  10.9769988
   4.2000012  41.7514997  12.3899988   4.7477600  41.6276906  11.7256379
  12.2370012  51.0244997   5.2869988  11.9410012  50.7024997   4.4359988
  11.9120012  51.9244997   5.3279988  12.1526371  51.1020215   5.1761801
   7.4370012  49.2004997  12.0299988   6.6970012  49.7984997  12.1339988
   8.1510012  49.7544997  11.7149988   7.4322237  49.3572831  12.0016465
  15.5440012  42.0284997   8.0499988  15.3280012  41.2624997   8.5829988
  16.1990012  42.5004997   8.5629988  15.6030632  41.9875889   8.1922861
   4.4610012  43.4164997   9.6949988   5.0750012  44.0494997  10.0689988
   4.9730012  42.9444997   9.0389988   4.6142296  43.4392370   9.6574252
   5.8440012  51.1644997  12.8179988   5.8390012  52.0444997  12.4399988
   4.9910012  51.0814997  13.2429988   5.7279464  51.2736117  12.8237907
   1.9650012  50.8354997   3.5999988   1.6930012  51.0644997   2.7109988
   2.0110012  51.6734997   4.0599988   1.9340094  50.9801213   3.5405697
  15.5900012  52.4574997  10.3119988  14.6490012  52.5154997  10.4739988
  15.8670012  53.3634997  10.1749988  15.4984679  52.5879443  10.3156815
  15.8910012  40.7434997  11.7299988  15.1550012  41.3544997  11.6919988
  16.5740012  41.1584997  11.2029988  15.8826541  40.8831374  11.6535832
   8.8940012  38.8304997   9.1959988   8.7770012  37.8814997   9.1409988
   8.0390012  39.1624997   9.4689988   8.7623733  38.7455409   9.2253897
  13.8420012  54.2384997   6.9379988  14.2680012  53.5314997   6.4529988
  14.1590012  55.0394997   6.5209988  13.9431019  54.2500994   6.8153130
  15.0020012  52.1394997   5.4459988  14.7440012  51.4494997   4.8349988
  15.0730012  51.6964997   6.2919988  14.9762856  51.9852124   5.4766885
  16.6880012  50.7054997  13.9239988  16.8280012  50.1144997  13.1839988
  16.8550012  51.5784997  13.5669988  16.7296778  50.7426426  13.7746965
  11.1610012  47.6674997   3.6959988  10.4490012  48.2024997   3.3439988
  11.8520012  47.7234997   3.0359988  11.1570132  47.7482543   3.5586289
  11.2140012  46.1254997   0.7349988  11.9150012  46.1474997   1.3859988
  11.5170012  45.4974997   0.0789988  11.3507830  46.0436566   0.7353711
  18.5300012  47.0454997  11.9899988  17.8770012  47.7404997  12.0789988
  18.9950012  47.2554997  11.1799988  18.5035390  47.1689425  11.8926883
  14.5660012  47.8774997   4.6479988  13.8340012  48.1054997   5.2209988
  15.0140012  47.1634997   5.1029988  14.5263095  47.8122571   4.7879119
  14.4640012  46.0514997  13.7149988  14.5440012  46.8144997  14.2869988
  13.8620012  46.3304997  13.0249988  14.3935756  46.1937134  13.7000589
   6.2120012  48.5074997   6.5299988   5.8810012  48.1374997   5.7119988
   6.8000012  47.8374997   6.8769988   6.2461873  48.3661156   6.4648102
   7.5780012  51.9354997   9.2119988   7.4840012  51.3574997   8.4549988
   8.3080012  51.5644997   9.7079988   7.6637981  51.8062390   9.1754165
   6.5780012  47.2764997  10.1639988   7.1440012  47.3974997   9.4009988
   6.8970012  47.9134997  10.8029988   6.6985786  47.3791884  10.1460040
  12.8870012  52.7794997  10.8979988  12.6470012  53.4414997  11.5459988
  12.6890012  51.9454997  11.3229988  12.8273808  52.7573134  11.0441524
   7.4580012  51.6754997  14.8809988   7.1470012  52.4574997  15.3359988
   6.8080012  51.5224997  14.1949988   7.3275558  51.7619105  14.8505871
  13.4370012  47.0394997   2.3329988  14.0170012  47.1894997   3.0799988
  13.8510012  47.5104997   1.6099988  13.5722830  47.1236841   2.3374134
   4.3780012  47.8734997  14.1099988   4.4490012  48.5244997  14.8079988
   3.4880012  47.9764997  13.7749988   4.2673117  47.9765936  14.1602700
  11.1640012  53.7764997   5.7679988  11.6380012  54.0714997   6.5459988
  10.6010012  54.5144997   5.5349988  11.1527653  53.9166932   5.8430136
   5.6980012  53.7474997  15.6439988   5.7050012  53.6114997  14.6969988
   4.7820012  53.6294997  15.8959988   5.5751714  53.7129430  15.5484666
  17.1360012  38.7894997   2.1459988  16.2360012  38.9284997   2.4409988
  17.3880012  39.6204997   1.7439988  17.0468702  38.9209074   2.1320205
   5.2020012  47.5774997   4.1199988   4.9100012  48.3454997   3.6289988
   4.5280012  46.9174997   3.9569988   5.0709081  47.5934406   4.0307340
  18.3250012  53.1554997   0.5219988  18.3990012  54.0944997   0.6929988
  19.2310012  52.8504997   0.4659988  18.4575100  53.2426722   0.5378119
   1.2950012  49.9404997  12.9349988   0.7940012  49.9124997  12.1199988
   1.3000012  49.0344997  13.2439988   1.2271526  49.8142278  12.8652872
   1.0450012  52.7204997   9.8189988   1.9910012  52.5764997   9.7999988
   0.9330012  53.5044997  10.3559988   1.1592727  52.8068046   9.8890072
  19.2430012  53.3864997  15.5009988  19.1940012  52.4314997  15.4639988
  18.4160012  53.6544997  15.9019988  19.1244940  53.2918998  15.5501375
  10.2220012  52.9604997  14.3769988  10.3090012  53.7864997  14.8519988
   9.3580012  52.6304997  14.6259988  10.1171964  53.0289878  14.4756549
  10.6360012  56.7324997   4.1829988  10.5610012  56.6114997   3.2369988
  10.6690012  57.6824997   4.3019988  10.6301848  56.8442500   4.0694834
   4.2890012  55.5214997   5.9639988   4.4420012  55.1734997   6.8429988
   3.4390012  55.1654997   5.7089988   4.1948962  55.4256650   6.0498340
  13.7380012  55.8864997   1.1849988  14.1130012  55.1424997   0.7149988
  13.7420012  55.6164997   2.1039988  13.7898915  55.7481486   1.2447824
  13.4070012  55.8124997   3.9349988  12.4710012  55.9124997   4.1129988
  13.6870012  55.1034997   4.5129988  13.3168255  55.7302711   4.0375391
  16.3950012  44.8794997  15.9809988  15.9880012  45.3604997  15.2599988
  16.4360012  43.9744997  15.6729988  16.3448437  44.8229374  15.8406683
   3.5440012  51.2634997  13.9779988   3.7600012  50.9024997  14.8369988
   2.6890012  50.8894997  13.7679988   3.4579292  51.1634111  14.0673386
   6.1630012  39.7334997   9.9729988   5.3010012  39.6464997   9.5659988
   6.1400012  40.5894997  10.4009988   6.0420330  39.8372765   9.9751863
  10.8260012  39.4554997  13.3479988  11.2460012  39.0404997  14.1009988
   9.8930012  39.2774997  13.4649988  10.7573644  39.3745900  13.4669539
  14.1520012  43.2114997  14.2009988  13.6380012  43.0854997  14.9989988
  13.9970012  44.1234997  13.9569988  14.0606852  43.3176132  14.2772158
  14.9150012  48.0724997  -0.0370012  14.9570012  47.8494997  -0.9670012
  15.7640012  48.4714997   0.1529988  15.0355396  48.0959155  -0.1386373
  10.4870012  41.9484997   0.6329988  10.2340012  41.9674997   1.5559988
  10.2310012  41.0764997   0.3319988  10.4177790  41.8332437   0.7186263
   6.2540012  44.6994997  11.0679988   5.6120012  44.6584997  11.7769988
   6.2910012  45.6254997  10.8309988   6.1711324  44.8191559  11.1329824
   6.2510012  44.9204997   5.9799988   5.3580012  44.5794997   5.9219988
   6.7010012  44.5434997   5.2249988   6.1897305  44.8228484   5.8699177
  11.7860012  45.3364997   4.7969988  11.3770012  46.1514997   4.5059988
  12.5070012  45.1964997   4.1829988  11.8274537  45.4292018   4.6741342
  10.8880012  45.5114997  16.2849988  10.3260012  44.8074997  16.6059988
  11.7150012  45.3914997  16.7529988  10.9227095  45.3987883  16.3922330
  12.7910012  44.7824997   7.6109988  12.5960012  45.3874997   6.8959988
  12.9720012  43.9484997   7.1769988  12.7887614  44.7526300   7.4544405
   4.0040012  45.0194997  12.9349988   3.9660012  45.4194997  13.8039988
   3.5130012  44.2024997  13.0259988   3.9324684  44.9638069  13.0661059
   7.3700012  42.3934997  -0.2660012   6.9390012  41.9484997   0.4639988
   6.6520012  42.7654997  -0.7780012   7.2139438  42.3828940  -0.2353201
   0.6120012  42.1354997   6.7859988   1.2430012  42.1064997   7.5049988
   1.0610012  41.7104997   6.0559988   0.7590774  42.0740492   6.7856553
   1.8860012  42.8814997   2.2099988   2.3600012  43.4724997   1.6249988
   1.1690012  43.4124997   2.5569988   1.8539341  43.0340867   2.1768836
  12.0550012  46.4204997  12.2829988  12.3780012  45.7894997  11.6399988
  11.6150012  45.8854997  12.9429988  12.0396895  46.2618441  12.2842850
   8.8320012  42.3474997   7.0669988   7.9210012  42.4044997   7.3549988
   9.3380012  42.2874997   7.8769988   8.7755413  42.3471985   7.2160622
   3.6610012  43.9764997   5.8929988   2.7710012  44.0764997   5.5529988
   3.9570012  43.1344997   5.5469988   3.5792823  43.8763545   5.7997213
   7.3140012  43.9764997   3.5499988   8.2450012  44.1054997   3.7279988
   7.0990012  44.6464997   2.8999988   7.4124247  44.0846565   3.4865747
  13.2370012  41.5824997  10.3309988  12.5610012  41.7134997  10.9949988
  12.7520012  41.4274997   9.5209988  13.0787145  41.5794905  10.3124517
   5.9880012  45.1714997   1.1169988   5.4450012  44.7914997   0.4249988
   6.8210012  45.3654997   0.6879988   6.0264399  45.1458124   0.9644526
  16.5250012  57.2544997  16.6079988  16.7250012  57.6784997  15.7729988
  17.1800012  57.5974997  17.2149988  16.6410051  57.3589648  16.5757836
   4.1230012  49.7284997  16.2159988   4.8550012  49.9824997  16.7769988
   3.3430012  49.9324997  16.7309988   4.1178232  49.7909177  16.3625760
  10.1520012  45.1354997   8.9539988  10.7170012  44.5884997   8.4069988
  10.0050012  44.6134997   9.7419988  10.2092918  44.9902024   8.9858454
   5.1540012  41.2714997   5.3719988   4.8370012  40.3694997   5.3369988
   5.9360012  41.2734997   4.8189988   5.2162284  41.1481628   5.2924783
   8.7790012  43.5234997  11.3679988   7.9430012  43.9774997  11.4779988
   9.3030012  43.7994997  12.1199988   8.7354414  43.6229376  11.4847136
   9.3230012  49.7364997   3.0519988   8.5780012  49.2294997   2.7299988
   9.1890012  49.7854997   3.9989988   9.2028776  49.6736940   3.1358647
  16.4730012  48.8694997  11.8389988  17.1150012  49.3264997  11.2949988
  15.6430012  48.9824997  11.3759988  16.4485963  48.9472704  11.7020177
  13.2210012  42.5504997   1.2519988  12.2820012  42.6624997   1.0999988
  13.5180012  43.4074997   1.5579988  13.1327666  42.6816443   1.2725768
  10.8420012  49.9204997  14.2889988  10.4970012  49.5394997  15.0959988
  10.6420012  50.8544997  14.3609988  10.7678061  49.9945228  14.4090961
  13.9390012  44.4174997   2.9119988  14.8310012  44.2804997   3.2309988
  13.9960012  45.2084997   2.3759988  14.0686285  44.5056660   2.8831690
   4.4480012  49.0314997   8.8219988   5.1930012  49.0294997   8.2209988
   4.5260012  48.2084997   9.3039988   4.5605518  48.9199315   8.8048929
  11.4490012  51.1954997   2.0779988  11.1530012  52.0214997   2.4589988
  10.7460012  50.5754997   2.2739988  11.3134914  51.2248199   2.1566443
   1.4560012  47.4924997  14.1369988   1.6790012  47.0744997  14.9689988
   0.8540012  46.8794997  13.7139988   1.4051759  47.3524668  14.1937022
   8.4720012  47.0094997  16.3499988   8.1760012  46.8434997  15.4549988
   9.4040012  46.7894997  16.3389988   8.5574166  46.9570640  16.2260536
  13.0930012  52.3824997  14.2399988  12.1920012  52.5654997  13.9719988
  13.1270012  52.6414997  15.1609988  12.9743041  52.4425512  14.3278197
  18.8240012  44.6274997   2.6069988  18.2700012  44.2314997   1.9349988
  18.9240012  45.5374997   2.3289988  18.7617059  44.6963586   2.4774401
  18.7870012  50.4274997  15.4439988  17.9360012  50.6654997  15.0769988
  19.3780012  50.4104997  14.6909988  18.7502487  50.4578258  15.2918893
  17.1190012  53.4134997   3.0719988  16.7460012  52.5874997   3.3809988
  17.3970012  53.2304997   2.1749988  17.1055630  53.2757303   2.9929626
  14.2800012  48.2214997  10.0929988  13.3510012  47.9894997  10.0659988
  14.7310012  47.4444997   9.7629988  14.2139216  48.0847238  10.0446917
   6.8230012  52.5494997   6.2259988   7.3500012  53.3224997   6.0259988
   5.9430012  52.7744997   5.9249988   6.7761773  52.6858005   6.1579010
   2.5780012  47.4114997   0.8129988   3.1940012  48.0384997   1.1929988
   1.7160012  47.7274997   1.0849988   2.5457698  47.5399430   0.9017183
   8.2500012  50.2124997   5.8029988   8.0090012  51.1374997   5.8439988
   7.5090012  49.7534997   6.1989988   8.1168409  50.2771421   5.8621377
   8.7650012  54.3614997  12.1179988   9.1270012  55.2164997  11.8839988
   9.2960012  54.0694997  12.8579988   8.8864473  54.4391060  12.1860855
   6.9330012  55.2344997   5.3479988   5.9830012  55.3394997   5.3989988
   7.2850012  56.0544997   5.6929988   6.8504203  55.3598314   5.4016650
  12.3090012  50.4604997  11.8179988  11.8830012  50.2334997  12.6449988
  12.8890012  49.7224997  11.6359988  12.3291868  50.3295299  11.9065830
  14.5120012  51.3894997   0.8919988  14.8650012  51.0094997   1.6969988
  13.5630012  51.2964997   0.9789988  14.4320441  51.3249596   1.0138559
  14.9670012  55.0124997  14.2879988  14.3660012  54.4574997  13.7919988
  15.2490012  55.6794997  13.6619988  14.9228519  55.0266841  14.1354952
  19.0150012  55.8694997   1.0929988  19.7590012  56.4554997   0.9529988
  18.3210012  56.4374997   1.4269988  19.0230292  56.0265582   1.1189961
   3.0900012  42.2454997  13.6949988   2.1970012  42.5844997  13.6269988
   2.9910012  41.3904997  14.1129988   2.9544164  42.1762588  13.7422235
  15.3780012  50.0624997   3.1189988  15.1000012  49.3344997   3.6749988
  16.3050012  50.1814997   3.3239988  15.4653124  49.9788802   3.2228845
   2.7410012  54.0504997  12.1299988   2.9580012  53.1184997  12.0989988
   2.9870012  54.3244997  13.0129988   2.8039549  53.9600636  12.2451763
   8.6030012  52.5014997  -0.6610012   8.8420012  51.7534997  -1.2080012
   8.3340012  52.1134997   0.1719988   8.5993675  52.3466638  -0.6233135
   7.5400012  52.0714997   1.7959988   7.6860012  51.5514997   2.5859988
   7.5370012  52.9784997   2.1019988   7.5595989  52.1228853   1.9456088
   3.9930012  49.3244997   2.3059988   3.3070012  49.6764997   2.8729988
   4.5150012  50.0874997   2.0589988   3.9696852  49.4758578   2.3502118
  11.8240012  41.9864997  12.5849988  12.5230012  42.0604997  13.2349988
  11.4430012  41.1224997  12.7389988  11.8681767  41.8797624  12.6948322
  12.6090012  41.6384997   3.6819988  12.8290012  42.1104997   2.8789988
  13.1670012  42.0334997   4.3519988  12.7144968  41.7564285   3.6627331
  10.2770012  53.7694997   2.5449988   9.4610012  54.2664997   2.5969988
  10.8070012  54.2444997   1.9049988  10.2369161  53.9017722   2.4655956
   9.8090012  43.3664997   4.5169988  10.6210012  43.8714997   4.5629988
   9.5640012  43.2214997   5.4309988   9.8870520  43.4160375   4.6468517
  10.3440012  44.3524997  13.7019988  10.4630012  44.9264997  14.4589988
  11.0000012  43.6644997  13.8159988  10.4489757  44.3381079  13.8210825
  10.6920012  40.4474997   5.4549988  10.3460012  41.0654997   6.0999988
  11.3510012  40.9484997   4.9739988  10.7337826  40.5995802   5.4780971
   7.6160012  54.8134997   2.5269988   7.7760012  55.6124997   2.0259988
   7.4180012  55.1194997   3.4119988   7.6111649  54.9644469   2.5779815
   6.3500012  41.5104997   2.1419988   6.2670012  42.3994997   2.4889988
   7.2400012  41.2454997   2.3739988   6.4589469  41.5961430   2.2207626
  16.5490012  42.2594997  14.5369988  15.6320012  42.5224997  14.4489988
  16.8840012  42.2564997  13.6399988  16.4689900  42.2950224  14.4037919
  15.1510012  46.0104997   8.6319988  14.3530012  45.5954997   8.3039988
  15.5960012  45.3194997   9.1229988  15.1019885  45.8603543   8.6534889
   4.6090012  51.9384997   1.2029988   5.2010012  52.6374997   1.4789988
   5.0680012  51.5054997   0.4829988   4.7521142  51.9757049   1.1434830
   2.9250012  44.6024997   0.3189988   2.8800012  45.5414997   0.4969988
   2.0370012  44.3664997   0.0489988   2.7988574  44.6991892   0.3068912
  16.2370012  55.2664997  10.2549988  16.0820012  55.9444997   9.5979988
  17.1700012  55.3384997  10.4579988  16.3418500  55.3690170  10.1925119
   3.7330012  39.3844997   8.9919988   3.5040012  39.4434997   8.0639988
   3.2900012  38.5924997   9.2979988   3.6418530  39.2855753   8.9064786
   2.6630012  53.3244997   5.1519988   1.8310012  53.7974997   5.1799988
   3.2090012  53.8344997   4.5539988   2.6229739  53.4581871   5.0749716
   1.9510012  55.9374997  16.4819988   2.4920012  55.7204997  17.2419988
   1.4700012  55.1314997  16.2929988   1.9599345  55.7989514  16.5603076
   6.5490012  54.8564997  18.1029988   7.3160012  54.3974997  18.4439988
   6.5270012  54.6304997  17.1729988   6.6511434  54.7630409  18.0240043
  10.6410012  54.3644997  -0.5220012   9.9970012  53.7334997  -0.2010012
  11.4030012  53.8334997  -0.7540012  10.6558077  54.2062920  -0.5093989
  13.1260012  53.2364997  16.8319988  12.7750012  52.3804997  17.0749988
  13.8520012  53.3794997  17.4389988  13.1760769  53.1385636  16.9473619
  15.2450012  54.1814997  -0.2880012  15.5280012  53.3874997   0.1639988
  15.9850012  54.4144997  -0.8490012  15.3837486  54.1042803  -0.3019302
   1.8580012  49.7474997  17.4369988   2.0020012  48.8454997  17.1499988
   1.0860012  50.0334997  16.9489988   1.7733322  49.6628261  17.3317881
   6.2000012  50.0914997  -0.4310012   6.2640012  49.2974997   0.0999988
   6.8530012  49.9724997  -1.1210012   6.2970241  49.9667148  -0.4515683
   8.5140012  49.7174997  16.8689988   8.1850012  49.9884997  16.0119988
   8.6660012  48.7764997  16.7819988   8.4894809  49.6273862  16.7398244
  11.5520012  51.1384997  -0.6950012  11.2830012  51.3184997   0.2059988
  11.3460012  50.2124997  -0.8260012  11.4873825  51.0380152  -0.5894786
  14.2480012  49.6334997  14.2529988  14.9940012  50.2214997  14.1329988
  13.4910012  50.2154997  14.3159988  14.2477554  49.7927011  14.2450907
   2.6910012  46.9474997  16.8569988   3.0990012  46.0904997  16.7359988
   2.4310012  46.9624997  17.7779988   2.7117568  46.8320807  16.9649588
   7.3490012  48.0634997   1.8749988   6.8890012  47.5794997   2.5609988
   7.6040012  47.3954997   1.2389988   7.3204902  47.9068731   1.8829334
   6.6380012  45.9564997  14.2309988   6.0200012  46.6314997  14.5109988
   6.9820012  46.2774997  13.3979988   6.5999615  46.0922721  14.1566581
   8.4200012  46.3064997   0.1369988   8.2400012  46.1524997  -0.7900012
   9.3700012  46.4144997   0.1819988   8.5237776  46.3000175   0.0161843
  11.6580012  48.4284997  17.5079988  12.6110012  48.5114997  17.4809988
  11.4970012  47.7164997  18.1279988  11.7666426  48.3436746  17.5880579
  17.8100012  48.6614997  -0.4170012  17.5360012  48.2364997  -1.2300012
  17.8490012  49.5924997  -0.6340012  17.7777699  48.7292484  -0.5576390
   6.9770012  43.3114997  15.3129988   7.1270012  42.5824997  14.7109988
   6.9800012  44.0884997  14.7539988   6.9979302  43.3167851  15.1550692
   7.3900012  41.6814997  12.8059988   7.9260012  42.1324997  12.1539988
   6.5380012  41.5734997  12.3829988   7.3482178  41.7286390  12.6595756
   8.9720012  47.1204997  13.0449988   9.7220012  46.9644997  12.4719988
   8.6330012  47.9724997  12.7699988   9.0288921  47.2142968  12.9293561
  13.3870012  44.9354997  18.0739988  13.5800012  44.0044997  17.9619988
  14.2450012  45.3604997  18.0639988  13.5293020  44.8656389  18.0573361
  14.7040012  47.7244997  16.1509988  14.4230012  48.4334997  15.5739988
  15.6470012  47.6514997  15.9999988  14.7929027  47.8117646  16.0515551
   5.4560012  44.5094997  17.2249988   4.6890012  43.9774997  17.0149988
   6.1350012  44.1994997  16.6249988   5.4427022  44.3947506  17.1151648
   8.1960012  39.1374997  13.2369988   8.0970012  40.0844997  13.1319988
   7.4530012  38.7654997  12.7619988   8.0820564  39.2165902  13.1584560
   9.4600012  43.4594997  16.8009988   9.2240012  43.2394997  17.7029988
   8.6760012  43.2524997  16.2909988   9.3218628  43.4014760  16.8553932
  12.1750012  42.5864997  15.8769988  11.2280012  42.6184997  16.0089988
  12.4880012  41.9614997  16.5299988  12.0875475  42.5063207  15.9834455
  13.8090012  41.2204997  17.8819988  13.7130012  40.2684997  17.8759988
  13.4880012  41.4894997  18.7419988  13.7524070  41.1264035  17.9975441
   3.6360012  42.4304997  16.9289988   3.8480012  41.7234997  16.3189988
   3.5250012  41.9924997  17.7729988   3.6499721  42.2747084  16.9596843
   8.4170012  38.4314997  15.9089988   9.1290012  37.7914997  15.8949988
   8.3160012  38.6984997  14.9949988   8.5007939  38.3799938  15.7835650
   8.7710012  40.1144997  17.9619988   8.6390012  39.6384997  17.1419988
   8.1720012  40.8584997  17.9069988   8.6719071  40.1499618  17.8422886
   8.3170012  56.9974997   1.1389988   9.2500012  57.1554997   1.2819988
   8.0530012  57.6724997   0.5139988   8.4089510  57.1103611   1.0740741
   1.8860012  51.6334997   0.6209988   2.8000012  51.7124997   0.8949988
   1.8930012  50.9464997  -0.0450012   2.0121131  51.5513961   0.5684393
   0.5350012  57.0264997   5.6989988  -0.1119988  56.5644997   5.1659988
   0.8890012  56.3544997   6.2809988   0.4943849  56.8724723   5.7047959
   1.4050012  55.1074997   7.5029988   1.0700012  54.2274997   7.6749988
   1.6270012  55.4524997   8.3679988   1.3891783  55.0337500   7.6434208
  18.9530012  55.9164997  10.4839988  18.9320012  56.1014997  11.4229988
  19.6440012  56.4854997  10.1429988  19.0434618  56.0186606  10.5663864
  18.5170012  55.4844997  13.4059988  18.0290012  54.7484997  13.0349988
  19.0660012  55.0904997  14.0839988  18.5244872  55.3306249  13.4469160
  16.9670012  51.2734997  18.0439988  16.1010012  51.1684997  18.4379988
  17.3440012  52.0324997  18.4899988  16.8993308  51.3616900  18.1582393
  18.2680012  49.5304997   3.5579988  19.1180012  49.9514997   3.6849988
  18.2740012  48.7904997   4.1649988  18.3851372  49.4880803   3.6574344
  18.6630012  47.5834997   5.3819988  17.9360012  47.1044997   5.7789988
  19.2440012  47.7894997   6.1139988  18.6419375  47.5457090   5.5354129
  18.4220012  50.3684997  10.3289988  19.2550012  49.9904997  10.0489988
  18.5340012  51.3114997  10.2099988  18.5512647  50.4442218  10.2745487
  16.9080012  53.2464997  12.6359988  16.2610012  53.5714997  13.2619988
  16.3910012  52.8064997  11.9619988  16.7494029  53.2315004  12.6305827
  18.9310012  47.4844997   1.7729988  18.4090012  47.8414997   1.0539988
  18.8980012  48.1594997   2.4509988  18.8551634  47.6245413   1.7663145
  17.2800012  44.7244997   0.3239988  17.3760012  45.3914997  -0.3570012
  17.1400012  43.9084997  -0.1580012  17.2742135  44.7054500   0.1658491
  16.4490012  46.1044997   5.9449988  16.2990012  45.1594997   5.9239988
  16.0960012  46.3854997   6.7879988  16.3806625  46.0130441   6.0562346
   1.4850012  48.1824997   9.9549988   1.6690012  48.1004997   9.0189988
   2.3340012  48.0584997  10.3789988   1.6250139  48.1545003   9.8841455
  17.3060012  48.0744997  15.5829988  17.8890012  47.3404997  15.7749988
  17.8700012  48.8464997  15.6299988  17.4619769  48.0784227  15.6156159
  18.8020012  45.9774997  16.2679988  17.9390012  45.5984997  16.1019988
  19.4070012  45.2384997  16.1939988  18.7655979  45.8258023  16.2352817
  16.5270012  42.1324997  -0.5590012  17.1380012  41.7614997   0.0779988
  15.6910012  41.7114997  -0.3630012  16.4975032  42.0247554  -0.4452965
  16.1600012  43.6874997   4.4069988  16.4400012  42.7804997   4.5309988
  16.9190012  44.1214997   4.0179988  16.3009277  43.6220942   4.3713682
  16.7720012  44.2684997   9.8429988  17.7050012  44.4804997   9.8089988
  16.5370012  44.3704997  10.7649988  16.8678036  44.3112769   9.9629976
  16.8010012  45.0054997  12.6189988  15.9580012  45.2734997  12.9849988
  17.2430012  45.8274997  12.4079988  16.7454158  45.1533291  12.6405491
   1.0820012  43.4534997  16.0959988   2.0020012  43.3314997  16.3319988
   0.6330012  42.7034997  16.4849988   1.1471580  43.3353727  16.1809006
  19.0840012  38.9854997  17.9719988  19.4340012  38.3314997  17.3669988
  19.2310012  39.8224997  17.5329988  19.1518419  39.0091591  17.8297118
  16.7730012  40.9504997   4.4549988  16.9560012  40.5014997   5.2809988
  16.1740012  40.3654997   3.9919988  16.7170202  40.8099975   4.5053275
   2.3030012  41.7654997   8.9869988   2.7490012  40.9734997   9.2889988
   2.7700012  42.4814997   9.4179988   2.4270172  41.7540624   9.0864820
   0.6070012  44.7644997  10.0559988   1.0990012  44.5434997   9.2649988
   0.9700012  45.6054997  10.3369988   0.7233126  44.8478357   9.9857531
  18.6040012  41.0944997  16.3219988  17.6860012  41.3654997  16.2859988
  18.7270012  40.5594997  15.5369988  18.4951066  41.0592892  16.2110487
  18.6400012  41.0174997   0.9829988  19.0520012  40.2964997   0.5079988
  19.3220012  41.6874997   1.0419988  18.7885885  41.0092368   0.9258915
   0.9210012  41.0224997   4.1099988  -0.0039988  41.2314997   3.9809988
   1.3750012  41.5064997   3.4209988   0.8557368  41.1165993   3.9991226
  15.6920012  56.0064997   6.0559988  16.3440012  55.6594997   5.4479988
  16.2020012  56.4954997   6.7019988  15.8502637  56.0250597   6.0600236
   0.8850012  39.7604997  12.4549988   0.2200012  39.5144997  13.0979988
   0.4420012  40.3824997  11.8769988   0.7340956  39.8108632  12.4649352
   3.0770012  52.9354997  16.5989988   2.2560012  53.1104997  16.1389988
   2.8240012  52.8624997  17.5199988   2.9306164  52.9495622  16.6604923
   6.0310012  53.9104997  12.8579988   5.6060012  54.7194997  12.5749988
   6.9350012  53.9954997  12.5559988   6.0950271  54.0328469  12.7783776
  10.3420012  55.3094997  15.8169988  10.5270012  54.9754997  16.6949988
  11.1880012  55.6184997  15.4949988  10.4817539  55.3056047  15.8935605
  12.6870012  56.5954997  15.0609988  13.3640012  55.9624997  14.8209988
  13.0090012  56.9964997  15.8679988  12.8231637  56.5631154  15.1372793
  17.6040012  39.1844997  14.1409988  16.7920012  39.5094997  13.7529988
  17.8370012  38.4244997  13.6079988  17.5243423  39.1262436  14.0158253
   3.4330012  57.1664997  12.9049988   2.7120012  57.6064997  12.4539988
   3.0670012  56.9154997  13.7539988   3.2849804  57.1927698  12.9579840
   5.9000012  56.7664997  11.9349988   5.0350012  56.8384997  12.3389988
   5.8450012  57.3134997  11.1509988   5.7742085  56.8502685  11.8843362
  10.6100012  56.6544997  11.1099988  10.1540012  57.1834997  10.4559988
  10.7730012  57.2574997  11.8359988  10.5695585  56.8084468  11.1185062
  12.9380012  55.5324997  12.0549988  12.0330012  55.6974997  11.7899988
  13.3670012  56.3854997  11.9899988  12.8720799  55.6704483  12.0099182
  15.5420012  57.1024997  12.3499988  15.3600012  58.0184997  12.1399988
  15.7190012  56.6924997  11.5039988  15.5410210  57.1724822  12.2067885
   2.8470012  55.7894997   9.8149988   2.8290012  55.3644997  10.6729988
   3.6520012  55.4714997   9.4069988   2.9533875  55.6883812   9.8771655
   4.9890012  54.4994997   8.4699988   4.7700012  53.5834997   8.6399988
   5.8130012  54.6394997   8.9359988   5.0704420  54.3930520   8.5562774
   7.5260012  54.9694997   9.3189988   7.7390012  54.0814997   9.0319988
   7.5900012  54.9354997  10.2729988   7.5638232  54.8433102   9.4087397
  11.0340012  40.6334997   8.4629988  10.3600012  40.0044997   8.7189988
  11.5980012  40.1494997   7.8599988  11.0179230  40.4818744   8.4165340
  16.1770012  38.7414997   8.5759988  16.7810012  39.2884997   8.0739988
  15.3070012  39.0604997   8.3359988  16.1421241  38.8595806   8.4747654
  17.9040012  39.8794997   6.9089988  18.5160012  39.3654997   6.3829988
  18.2860012  40.7574997   6.9329988  18.0394540  39.9277140   6.8401830
   3.3610012  39.2674997   6.2849988   2.5840012  39.0334997   5.7779988
   3.8910012  38.4704997   6.2939988   3.3262330  39.1276988   6.2167742
   2.1970012  39.0654997   2.0889988   2.6360012  39.6764997   1.4969988
   1.5640012  39.6034997   2.5629988   2.1714514  39.2219257   2.0720930
   7.9400012  39.1944997   6.0989988   8.8150012  39.5824997   6.0689988
   7.8040012  38.9794997   7.0209988   8.0413695  39.2185184   6.2196440
  13.4970012  39.2244997   7.7479988  13.5730012  39.3194997   6.7979988
  13.2220012  38.3164997   7.8769988  13.4702321  39.1147867   7.6355079
  14.8500012  39.2504997   3.4399988  14.1480012  39.8654997   3.2309988
  14.4060012  38.4124997   3.5709988  14.6936330  39.2215783   3.4290328
   2.0980012  55.0134997   2.9869988   1.4130012  54.9754997   2.3189988
   2.1020012  55.9264997   3.2749988   2.0048193  55.1317016   2.9345284
   4.0580012  40.9814997   0.5309988   4.5500012  40.3514997   0.0039988
   4.6820012  41.2774997   1.1949988   4.2095446  40.9353199   0.5485980
   9.0840012  41.2744997   2.9879988   9.2620012  40.6284997   3.6709988
   9.0310012  42.1084997   3.4559988   9.1011829  41.2987985   3.1445940
  10.9630012  56.2234997   1.3839988  11.8290012  56.5894997   1.2059988
  10.7160012  55.7834997   0.5699988  11.0482392  56.2141756   1.2496289
  17.6720012  55.7864997   4.0629988  17.4770012  55.0384997   3.4979988
  17.6330012  56.5444997   3.4799988  17.6400380  55.7866099   3.9068384
   3.3190012  39.7814997  15.8029988   2.9530012  39.0164997  16.2459988
   4.2320012  39.8104997  16.0899988   3.3922790  39.6807224  15.9024070
   5.2920012  39.1324997  17.3389988   6.1900012  38.8584997  17.1539988
   4.9050012  38.3894997  17.8029988   5.3626612  38.9945914  17.3763643
   3.9160012  55.9334997   0.0119988   3.6490012  56.2204997   0.8849988
   4.6880012  55.3874997   0.1639988   3.9837488  55.8990294   0.1521050
  13.7130012  38.4644997  17.5209988  13.7900012  38.0384997  18.3749988
  14.6070012  38.4784997  17.1779988  13.8443428  38.4080879  17.5915310
  16.8890012  54.5374997  16.2129988  16.1070012  54.3514997  15.6939988
  16.8170012  55.4664997  16.4309988  16.7721777  54.6376492  16.1714048
  31.2950012  48.4234997   6.2439988  31.3840012  49.3674997   6.1119988
  30.6570012  48.1484997   5.5859988  31.2209081  48.5154830   6.1369614
  30.2280012  47.6784997   9.6629988  30.1900012  47.0324997  10.3679988
  29.9060012  47.2124997   8.8919988  30.1792333  47.5269408   9.6552978
  22.5970012  47.2934997  11.2559988  22.6380012  46.6674997  11.9789988
  23.3000012  47.9174997  11.4379988  22.6976363  47.2921196  11.3796044
  33.9340012  50.6174997   7.9639988  33.4940012  49.8974997   8.4149988
  33.9210012  51.3384997   8.5939988  33.8720226  50.6163731   8.1108494
  23.5200012  51.7434997   9.7909988  23.1510012  50.9414997   9.4209988
  24.4610012  51.5744997   9.8369988  23.5967289  51.6110153   9.7466316
  20.1300012  45.4034997   5.1839988  19.6830012  46.2494997   5.1649988
  19.5690012  44.8234997   4.6679988  19.9929900  45.4409916   5.1116801
  20.8410012  47.5654997   7.3099988  21.0540012  46.7954997   7.8369988
  21.5790012  47.6544997   6.7059988  20.9698496  47.4721394   7.3005300
  31.0460012  55.7224997   8.1769988  31.6660012  55.0454997   7.9029988
  30.8380012  55.5044997   9.0849988  31.1026904  55.6003870   8.2623365
  28.6180012  50.1114997  10.0689988  28.9220012  49.4254997   9.4739988
  29.3390012  50.2294997  10.6869988  28.7570671  50.0336305  10.0711816
  37.2810012  41.7124997  10.9299988  37.3300012  42.3224997  11.6659988
  37.7060012  42.1734997  10.2069988  37.3451824  41.8583741  10.9330205
  31.7590012  44.5054997  10.3969988  31.9010012  43.5594997  10.4169988
  31.6520012  44.7124997   9.4679988  31.7639864  44.4039534  10.2742339
  24.9130012  42.6064997   7.6689988  24.9570012  43.4664997   7.2509988
  24.4560012  42.0544997   7.0349988  24.8572185  42.6495799   7.5260299
  32.6360012  42.7374997   6.0699988  33.2820012  42.4084997   6.6949988
  33.1460012  43.2554997   5.4469988  32.7934264  42.7624611   6.0713862
  21.5340012  45.0034997   8.4309988  22.1870012  44.4534997   8.8629988
  21.5580012  44.7294997   7.5139988  21.6266683  44.8911466   8.3662123
  26.6900012  46.5534997   7.6459988  27.3060012  46.0274997   8.1559988
  26.1040012  45.9134997   7.2429988  26.6950810  46.3949208   7.6613173
  37.6720012  43.1904997  13.1659988  36.9840012  43.8484997  13.0699988
  37.6880012  42.9934997  14.1019988  37.5798525  43.2540462  13.2794808
  23.7240012  41.5244997  11.7429988  23.5050012  42.0544997  10.9769988
  23.0560012  41.7514997  12.3899988  23.6037600  41.6276906  11.7256379
  31.0930012  51.0244997   5.2869988  30.7970012  50.7024997   4.4359988
  30.7680012  51.9244997   5.3279988  31.0086371  51.1020215   5.1761801
  26.2930012  49.2004997  12.0299988  25.5530012  49.7984997  12.1339988
  27.0070012  49.7544997  11.7149988  26.2882237  49.3572831  12.0016465
  34.4000012  42.0284997   8.0499988  34.1840012  41.2624997   8.5829988
  35.0550012  42.5004997   8.5629988  34.4590632  41.9875889   8.1922861
  23.3170012  43.4164997   9.6949988  23.9310012  44.0494997  10.0689988
  23.8290012  42.9444997   9.0389988  23.4702296  43.4392370   9.6574252
  24.7000012  51.1644997  12.8179988  24.6950012  52.0444997  12.4399988
  23.8470012  51.0814997  13.2429988  24.5839464  51.2736117  12.8237907
  20.8210012  50.8354997   3.5999988  20.5490012  51.0644997   2.7109988
  20.8670012  51.6734997   4.0599988  20.7900094  50.9801213   3.5405697
  34.4460012  52.4574997  10.3119988  33.5050012  52.5154997  10.4739988
  34.7230012  53.3634997  10.1749988  34.3544679  52.5879443  10.3156815
  34.7470012  40.7434997  11.7299988  34.0110012  41.3544997  11.6919988
  35.4300012  41.1584997  11.2029988  34.7386541  40.8831374  11.6535832
  27.7500012  38.8304997   9.1959988  27.6330012  37.8814997   9.1409988
  26.8950012  39.1624997   9.4689988  27.6183733  38.7455409   9.2253897
  32.6980012  54.2384997   6.9379988  33.1240012  53.5314997   6.4529988
  33.0150012  55.0394997   6.5209988  32.7991019  54.2500994   6.8153130
  33.8580012  52.1394997   5.4459988  33.6000012  51.4494997   4.8349988
  33.9290012  51.6964997   6.2919988  33.8322856  51.9852124   5.4766885
  35.5440012  50.7054997  13.9239988  35.6840012  50.1144997  13.1839988
  35.7110012  51.5784997  13.5669988  35.5856778  50.7426426  13.7746965
  30.0170012  47.6674997   3.6959988  29.3050012  48.2024997   3.3439988
  30.7080012  47.7234997   3.0359988  30.0130132  47.7482543   3.5586289
  30.0700012  46.1254997   0.7349988  30.7710012  46.1474997   1.3859988
  30.3730012  45.4974997   0.0789988  30.2067830  46.0436566   0.7353711
  37.3860012  47.0454997  11.9899988  36.7330012  47.7404997  12.0789988
  37.8510012  47.2554997  11.1799988  37.3595390  47.1689425  11.8926883
  33.4220012  47.8774997   4.6479988  32.6900012  48.1054997   5.2209988
  33.8700012  47.1634997   5.1029988  33.3823095  47.8122571   4.7879119
  33.3200012  46.0514997  13.7149988  33.4000012  46.8144997  14.2869988
  32.7180012  46.3304997  13.0249988  33.2495756  46.1937134  13.7000589
  25.0680012  48.5074997   6.5299988  24.7370012  48.1374997   5.7119988
  25.6560012  47.8374997   6.8769988  25.1021873  48.3661156   6.4648102
  26.4340012  51.9354997   9.2119988  26.3400012  51.3574997   8.4549988
  27.1640012  51.5644997   9.7079988  26.5197981  51.8062390   9.1754165
  25.4340012  47.2764997  10.1639988  26.0000012  47.3974997   9.4009988
  25.7530012  47.9134997  10.8029988  25.5545786  47.3791884  10.1460040
  31.7430012  52.7794997  10.8979988  31.5030012  53.4414997  11.5459988
  31.5450012  51.9454997  11.3229988  31.6833808  52.7573134  11.0441524
  26.3140012  51.6754997  14.8809988  26.0030012  52.4574997  15.3359988
  25.6640012  51.5224997  14.1949988  26.1835558  51.7619105  14.8505871
  32.2930012  47.0394997   2.3329988  32.8730012  47.1894997   3.0799988
  32.7070012  47.5104997   1.6099988  32.4282831  47.1236841   2.3374134
  23.2340012  47.8734997  14.1099988  23.3050012  48.5244997  14.8079988
  22.3440012  47.9764997  13.7749988  23.1233117  47.9765936  14.1602700
  30.0200012  53.7764997   5.7679988  30.4940012  54.0714997   6.5459988
  29.4570012  54.5144997   5.5349988  30.0087653  53.9166932   5.8430136
  24.5540012  53.7474997  15.6439988  24.5610012  53.6114997  14.6969988
  23.6380012  53.6294997  15.8959988  24.4311714  53.7129430  15.5484666
  35.9920012  38.7894997   2.1459988  35.0920012  38.9284997   2.4409988
  36.2440012  39.6204997   1.7439988  35.9028702  38.9209074   2.1320205
  24.0580012  47.5774997   4.1199988  23.7660012  48.3454997   3.6289988
  23.3840012  46.9174997   3.9569988  23.9269081  47.5934406   4.0307340
  37.1810012  53.1554997   0.5219988  37.2550012  54.0944997   0.6929988
  38.0870012  52.8504997   0.4659988  37.3135100  53.2426722   0.5378119
  20.1510012  49.9404997  12.9349988  19.6500012  49.9124997  12.1199988
  20.1560012  49.0344997  13.2439988  20.0831526  49.8142278  12.8652872
  19.9010012  52.7204997   9.8189988  20.8470012  52.5764997   9.7999988
  19.7890012  53.5044997  10.3559988  20.0152727  52.8068046   9.8890072
  38.0990012  53.3864997  15.5009988  38.0500012  52.4314997  15.4639988
  37.2720012  53.6544997  15.9019988  37.9804940  53.2918998  15.5501375
  29.0780012  52.9604997  14.3769988  29.1650012  53.7864997  14.8519988
  28.2140012  52.6304997  14.6259988  28.9731964  53.0289878  14.4756549
  29.4920012  56.7324997   4.1829988  29.4170012  56.6114997   3.2369988
  29.5250012  57.6824997   4.3019988  29.4861848  56.8442500   4.0694834
  23.1450012  55.5214997   5.9639988  23.2980012  55.1734997   6.8429988
  22.2950012  55.1654997   5.7089988  23.0508962  55.4256650   6.0498340
  32.5940012  55.8864997   1.1849988  32.9690012  55.1424997   0.7149988
  32.5980012  55.6164997   2.1039988  32.6458915  55.7481486   1.2447824
  32.2630012  55.8124997   3.9349988  31.3270012  55.9124997   4.1129988
  32.5430012  55.1034997   4.5129988  32.1728255  55.7302711   4.0375391
  35.2510012  44.8794997  15.9809988  34.8440012  45.3604997  15.2599988
  35.2920012  43.9744997  15.6729988  35.2008437  44.8229374  15.8406683
  22.4000012  51.2634997  13.9779988  22.6160012  50.9024997  14.8369988
  21.5450012  50.8894997  13.7679988  22.3139292  51.1634111  14.0673386
  25.0190012  39.7334997   9.9729988  24.1570012  39.6464997   9.5659988
  24.9960012  40.5894997  10.4009988  24.8980330  39.8372765   9.9751863
  29.6820012  39.4554997  13.3479988  30.1020012  39.0404997  14.1009988
  28.7490012  39.2774997  13.4649988  29.6133644  39.3745900  13.4669539
  33.0080012  43.2114997  14.2009988  32.4940012  43.0854997  14.9989988
  32.8530012  44.1234997  13.9569988  32.9166852  43.3176132  14.2772158
  33.7710012  48.0724997  -0.0370012  33.8130012  47.8494997  -0.9670012
  34.6200012  48.4714997   0.1529988  33.8915396  48.0959155  -0.1386373
  29.3430012  41.9484997   0.6329988  29.0900012  41.9674997   1.5559988
  29.0870012  41.0764997   0.3319988  29.2737790  41.8332437   0.7186263
  25.1100012  44.6994997  11.0679988  24.4680012  44.6584997  11.7769988
  25.1470012  45.6254997  10.8309988  25.0271324  44.8191559  11.1329824
  25.1070012  44.9204997   5.9799988  24.2140012  44.5794997   5.9219988
  25.5570012  44.5434997   5.2249988  25.0457305  44.8228484   5.8699177
  30.6420012  45.3364997   4.7969988  30.2330012  46.1514997   4.5059988
  31.3630012  45.1964997   4.1829988  30.6834537  45.4292018   4.6741342
  29.7440012  45.5114997  16.2849988  29.1820012  44.8074997  16.6059988
  30.5710012  45.3914997  16.7529988  29.7787095  45.3987883  16.3922330
  31.6470012  44.7824997   7.6109988  31.4520012  45.3874997   6.8959988
  31.8280012  43.9484997   7.1769988  31.6447614  44.7526300   7.4544405
  22.8600012  45.0194997  12.9349988  22.8220012  45.4194997  13.8039988
  22.3690012  44.2024997  13.0259988  22.7884684  44.9638069  13.0661059
  26.2260012  42.3934997  -0.2660012  25.7950012  41.9484997   0.4639988
  25.5080012  42.7654997  -0.7780012  26.0699438  42.3828940  -0.2353201
  19.4680012  42.1354997   6.7859988  20.0990012  42.1064997   7.5049988
  19.9170012  41.7104997   6.0559988  19.6150774  42.0740492   6.7856553
  20.7420012  42.8814997   2.2099988  21.2160012  43.4724997   1.6249988
  20.0250012  43.4124997   2.5569988  20.7099341  43.0340867   2.1768836
  30.9110012  46.4204997  12.2829988  31.2340012  45.7894997  11.6399988
  30.4710012  45.8854997  12.9429988  30.8956895  46.2618441  12.2842850
  27.6880012  42.3474997   7.0669988  26.7770012  42.4044997   7.3549988
  28.1940012  42.2874997   7.8769988  27.6315413  42.3471985   7.2160622
  22.5170012  43.9764997   5.8929988  21.6270012  44.0764997   5.5529988
  22.8130012  43.1344997   5.5469988  22.4352823  43.8763545   5.7997213
  26.1700012  43.9764997   3.5499988  27.1010012  44.1054997   3.7279988
  25.9550012  44.6464997   2.8999988  26.2684247  44.0846565   3.4865747
  32.0930012  41.5824997  10.3309988  31.4170012  41.7134997  10.9949988
  31.6080012  41.4274997   9.5209988  31.9347145  41.5794905  10.3124517
  24.8440012  45.1714997   1.1169988  24.3010012  44.7914997   0.4249988
  25.6770012  45.3654997   0.6879988  24.8824399  45.1458124   0.9644526
  35.3810012  57.2544997  16.6079988  35.5810012  57.6784997  15.7729988
  36.0360012  57.5974997  17.2149988  35.4970051  57.3589648  16.5757836
  22.9790012  49.7284997  16.2159988  23.7110012  49.9824997  16.7769988
  22.1990012  49.9324997  16.7309988  22.9738232  49.7909177  16.3625760
  29.0080012  45.1354997   8.9539988  29.5730012  44.5884997   8.4069988
  28.8610012  44.6134997   9.7419988  29.0652918  44.9902024   8.9858454
  24.0100012  41.2714997   5.3719988  23.6930012  40.3694997   5.3369988
  24.7920012  41.2734997   4.8189988  24.0722284  41.1481628   5.2924783
  27.6350012  43.5234997  11.3679988  26.7990012  43.9774997  11.4779988
  28.1590012  43.7994997  12.1199988  27.5914414  43.6229376  11.4847136
  28.1790012  49.7364997   3.0519988  27.4340012  49.2294997   2.7299988
  28.0450012  49.7854997   3.9989988  28.0588776  49.6736940   3.1358647
  35.3290012  48.8694997  11.8389988  35.9710012  49.3264997  11.2949988
  34.4990012  48.9824997  11.3759988  35.3045963  48.9472704  11.7020177
  32.0770012  42.5504997   1.2519988  31.1380012  42.6624997   1.0999988
  32.3740012  43.4074997   1.5579988  31.9887666  42.6816443   1.2725768
  29.6980012  49.9204997  14.2889988  29.3530012  49.5394997  15.0959988
  29.4980012  50.8544997  14.3609988  29.6238061  49.9945228  14.4090961
  32.7950012  44.4174997   2.9119988  33.6870012  44.2804997   3.2309988
  32.8520012  45.2084997   2.3759988  32.9246285  44.5056660   2.8831690
  23.3040012  49.0314997   8.8219988  24.0490012  49.0294997   8.2209988
  23.3820012  48.2084997   9.3039988  23.4165518  48.9199315   8.8048929
  30.3050012  51.1954997   2.0779988  30.0090012  52.0214997   2.4589988
  29.6020012  50.5754997   2.2739988  30.1694914  51.2248199   2.1566443
  20.3120012  47.4924997  14.1369988  20.5350012  47.0744997  14.9689988
  19.7100012  46.8794997  13.7139988  20.2611759  47.3524668  14.1937022
  27.3280012  47.0094997  16.3499988  27.0320012  46.8434997  15.4549988
  28.2600012  46.7894997  16.3389988  27.4134166  46.9570640  16.2260536
  31.9490012  52.3824997  14.2399988  31.0480012  52.5654997  13.9719988
  31.9830012  52.6414997  15.1609988  31.8303041  52.4425512  14.3278197
  37.6800012  44.6274997   2.6069988  37.1260012  44.2314997   1.9349988
  37.7800012  45.5374997   2.3289988  37.6177059  44.6963586   2.4774401
  37.6430012  50.4274997  15.4439988  36.7920012  50.6654997  15.0769988
  38.2340012  50.4104997  14.6909988  37.6062487  50.4578258  15.2918893
  35.9750012  53.4134997   3.0719988  35.6020012  52.5874997   3.3809988
  36.2530012  53.2304997   2.1749988  35.9615630  53.2757303   2.9929626
  33.1360012  48.2214997  10.0929988  32.2070012  47.9894997  10.0659988
  33.5870012  47.4444997   9.7629988  33.0699216  48.0847238  10.0446917
  25.6790012  52.5494997   6.2259988  26.2060012  53.3224997   6.0259988
  24.7990012  52.7744997   5.9249988  25.6321773  52.6858005   6.1579010
  21.4340012  47.4114997   0.8129988  22.0500012  48.0384997   1.1929988
  20.5720012  47.7274997   1.0849988  21.4017698  47.5399430   0.9017183
  27.1060012  50.2124997   5.8029988  26.8650012  51.1374997   5.8439988
  26.3650012  49.7534997   6.1989988  26.9728409  50.2771421   5.8621377
  27.6210012  54.3614997  12.1179988  27.9830012  55.2164997  11.8839988
  28.1520012  54.0694997  12.8579988  27.7424473  54.4391060  12.1860855
  25.7890012  55.2344997   5.3479988  24.8390012  55.3394997   5.3989988
  26.1410012  56.0544997   5.6929988  25.7064203  55.3598314   5.4016650
  31.1650012  50.4604997  11.8179988  30.7390012  50.2334997  12.6449988
  31.7450012  49.7224997  11.6359988  31.1851868  50.3295299  11.9065830
  33.3680012  51.3894997   0.8919988  33.7210012  51.0094997   1.6969988
  32.4190012  51.2964997   0.9789988  33.2880441  51.3249596   1.0138559
  33.8230012  55.0124997  14.2879988  33.2220012  54.4574997  13.7919988
  34.1050012  55.6794997  13.6619988  33.7788519  55.0266841  14.1354952
  37.8710012  55.8694997   1.0929988  38.6150012  56.4554997   0.9529988
  37.1770012  56.4374997   1.4269988  37.8790292  56.0265582   1.1189961
  21.9460012  42.2454997  13.6949988  21.0530012  42.5844997  13.6269988
  21.8470012  41.3904997  14.1129988  21.8104164  42.1762588  13.7422235
  34.2340012  50.0624997   3.1189988  33.9560012  49.3344997   3.6749988
  35.1610012  50.1814997   3.3239988  34.3213124  49.9788802   3.2228845
  21.5970012  54.0504997  12.1299988  21.8140012  53.1184997  12.0989988
  21.8430012  54.3244997  13.0129988  21.6599549  53.9600636  12.2451763
  27.4590012  52.5014997  -0.6610012  27.6980012  51.7534997  -1.2080012
  27.1900012  52.1134997   0.1719988  27.4553675  52.3466638  -0.6233135
  26.3960012  52.0714997   1.7959988  26.5420012  51.5514997   2.5859988
  26.3930012  52.9784997   2.1019988  26.4155989  52.1228853   1.9456088
  22.8490012  49.3244997   2.3059988  22.1630012  49.6764997   2.8729988
  23.3710012  50.0874997   2.0589988  22.8256852  49.4758578   2.3502118
  30.6800012  41.9864997  12.5849988  31.3790012  42.0604997  13.2349988
  30.2990012  41.1224997  12.7389988  30.7241767  41.8797624  12.6948322
  31.4650012  41.6384997   3.6819988  31.6850012  42.1104997   2.8789988
  32.0230012  42.0334997   4.3519988  31.5704968  41.7564285   3.6627331
  29.1330012  53.7694997   2.5449988  28.3170012  54.2664997   2.5969988
  29.6630012  54.2444997   1.9049988  29.0929161  53.9017722   2.4655956
  28.6650012  43.3664997   4.5169988  29.4770012  43.8714997   4.5629988
  28.4200012  43.2214997   5.4309988  28.7430520  43.4160375   4.6468517
  29.2000012  44.3524997  13.7019988  29.3190012  44.9264997  14.4589988
  29.8560012  43.6644997  13.8159988  29.3049757  44.3381079  13.8210825
  29.5480012  40.4474997   5.4549988  29.2020012  41.0654997   6.0999988
  30.2070012  40.9484997   4.9739988  29.5897826  40.5995802   5.4780971
  26.4720012  54.8134997   2.5269988  26.6320012  55.6124997   2.0259988
  26.2740012  55.1194997   3.4119988  26.4671649  54.9644469   2.5779815
  25.2060012  41.5104997   2.1419988  25.1230012  42.3994997   2.4889988
  26.0960012  41.2454997   2.3739988  25.3149469  41.5961430   2.2207626
  35.4050012  42.2594997  14.5369988  34.4880012  42.5224997  14.4489988
  35.7400012  42.2564997  13.6399988  35.3249900  42.2950224  14.4037919
  34.0070012  46.0104997   8.6319988  33.2090012  45.5954997   8.3039988
  34.4520012  45.3194997   9.1229988  33.9579885  45.8603543   8.6534889
  23.4650012  51.9384997   1.2029988  24.0570012  52.6374997   1.4789988
  23.9240012  51.5054997   0.4829988  23.6081142  51.9757049   1.1434830
  21.7810012  44.6024997   0.3189988  21.7360012  45.5414997   0.4969988
  20.8930012  44.3664997   0.0489988  21.6548574  44.6991892   0.3068912
  35.0930012  55.2664997  10.2549988  34.9380012  55.9444997   9.5979988
  36.0260012  55.3384997  10.4579988  35.1978500  55.3690170  10.1925119
  22.5890012  39.3844997   8.9919988  22.3600012  39.4434997   8.0639988
  22.1460012  38.5924997   9.2979988  22.4978530  39.2855753   8.9064786
  21.5190012  53.3244997   5.1519988  20.6870012  53.7974997   5.1799988
  22.0650012  53.8344997   4.5539988  21.4789739  53.4581871   5.0749716
  20.8070012  55.9374997  16.4819988  21.3480012  55.7204997  17.2419988
  20.3260012  55.1314997  16.2929988  20.8159345  55.7989514  16.5603076
  25.4050012  54.8564997  18.1029988  26.1720012  54.3974997  18.4439988
  25.3830012  54.6304997  17.1729988  25.5071434  54.7630409  18.0240043
  29.4970012  54.3644997  -0.5220012  28.8530012  53.7334997  -0.2010012
  30.2590012  53.8334997  -0.7540012  29.5118077  54.2062920  -0.5093989
  31.9820012  53.2364997  16.8319988  31.6310012  52.3804997  17.0749988
  32.7080012  53.3794997  17.4389988  32.0320769  53.1385636  16.9473619
  34.1010012  54.1814997  -0.2880012  34.3840012  53.3874997   0.1639988
  34.8410012  54.4144997  -0.8490012  34.2397486  54.1042803  -0.3019302
  20.7140012  49.7474997  17.4369988  20.8580012  48.8454997  17.1499988
  19.9420012  50.0334997  16.9489988  20.6293322  49.6628261  17.3317881
  25.0560012  50.0914997  -0.4310012  25.1200012  49.2974997   0.0999988
  25.7090012  49.9724997  -1.1210012  25.1530241  49.9667148  -0.4515683
  27.3700012  49.7174997  16.8689988  27.0410012  49.9884997  16.0119988
  27.5220012  48.7764997  16.7819988  27.3454809  49.6273862  16.7398244
  30.4080012  51.1384997  -0.6950012  30.1390012  51.3184997   0.2059988
  30.2020012  50.2124997  -0.8260012  30.3433825  51.0380152  -0.5894786
  33.1040012  49.6334997  14.2529988  33.8500012  50.2214997  14.1329988
  32.3470012  50.2154997  14.3159988  33.1037554  49.7927011  14.2450907
  21.5470012  46.9474997  16.8569988  21.9550012  46.0904997  16.7359988
  21.2870012  46.9624997  17.7779988  21.5677568  46.8320807  16.9649588
  26.2050012  48.0634997   1.8749988  25.7450012  47.5794997   2.5609988
  26.4600012  47.3954997   1.2389988  26.1764902  47.9068731   1.8829334
  25.4940012  45.9564997  14.2309988  24.8760012  46.6314997  14.5109988
  25.8380012  46.2774997  13.3979988  25.4559615  46.0922721  14.1566581
  27.2760012  46.3064997   0.1369988  27.0960012  46.1524997  -0.7900012
  28.2260012  46.4144997   0.1819988  27.3797776  46.3000175   0.0161843
  30.5140012  48.4284997  17.5079988  31.4670012  48.5114997  17.4809988
  30.3530012  47.7164997  18.1279988  30.6226426  48.3436746  17.5880579
  36.6660012  48.6614997  -0.4170012  36.3920012  48.2364997  -1.2300012
  36.7050012  49.5924997  -0.6340012  36.6337699  48.7292484  -0.5576390
  25.8330012  43.3114997  15.3129988  25.9830012  42.5824997  14.7109988
  25.8360012  44.0884997  14.7539988  25.8539302  43.3167851  15.1550692
  26.2460012  41.6814997  12.8059988  26.7820012  42.1324997  12.1539988
  25.3940012  41.5734997  12.3829988  26.2042178  41.7286390  12.6595756
  27.8280012  47.1204997  13.0449988  28.5780012  46.9644997  12.4719988
  27.4890012  47.9724997  12.7699988  27.8848921  47.2142968  12.9293561
  32.2430012  44.9354997  18.0739988  32.4360012  44.0044997  17.9619988
  33.1010012  45.3604997  18.0639988  32.3853020  44.8656389  18.0573361
  33.5600012  47.7244997  16.1509988  33.2790012  48.4334997  15.5739988
  34.5030012  47.6514997  15.9999988  33.6489027  47.8117646  16.0515551
  24.3120012  44.5094997  17.2249988  23.5450012  43.9774997  17.0149988
  24.9910012  44.1994997  16.6249988  24.2987022  44.3947506  17.1151648
  27.0520012  39.1374997  13.2369988  26.9530012  40.0844997  13.1319988
  26.3090012  38.7654997  12.7619988  26.9380564  39.2165902  13.1584560
  28.3160012  43.4594997  16.8009988  28.0800012  43.2394997  17.7029988
  27.5320012  43.2524997  16.2909988  28.1778628  43.4014760  16.8553932
  31.0310012  42.5864997  15.8769988  30.0840012  42.6184997  16.0089988
  31.3440012  41.9614997  16.5299988  30.9435475  42.5063207  15.9834455
  32.6650012  41.2204997  17.8819988  32.5690012  40.2684997  17.8759988
  32.3440012  41.4894997  18.7419988  32.6084070  41.1264035  17.9975441
  22.4920012  42.4304997  16.9289988  22.7040012  41.7234997  16.3189988
  22.3810012  41.9924997  17.7729988  22.5059721  42.2747084  16.9596843
  27.2730012  38.4314997  15.9089988  27.9850012  37.7914997  15.8949988
  27.1720012  38.6984997  14.9949988  27.3567939  38.3799938  15.7835650
  27.6270012  40.1144997  17.9619988  27.4950012  39.6384997  17.1419988
  27.0280012  40.8584997  17.9069988  27.5279071  40.1499618  17.8422886
  27.1730012  56.9974997   1.1389988  28.1060012  57.1554997   1.2819988
  26.9090012  57.6724997   0.5139988  27.2649510  57.1103611   1.0740741
  20.7420012  51.6334997   0.6209988  21.6560012  51.7124997   0.8949988
  20.7490012  50.9464997  -0.0450012  20.8681131  51.5513961   0.5684393
  19.3910012  57.0264997   5.6989988  18.7440012  56.5644997   5.1659988
  19.7450012  56.3544997   6.2809988  19.3503849  56.8724723   5.7047959
  20.2610012  55.1074997   7.5029988  19.9260012  54.2274997   7.6749988
  20.4830012  55.4524997   8.3679988  20.2451783  55.0337500   7.6434208
  37.8090012  55.9164997  10.4839988  37.7880012  56.1014997  11.4229988
  38.5000012  56.4854997  10.1429988  37.8994618  56.0186606  10.5663864
  37.3730012  55.4844997  13.4059988  36.8850012  54.7484997  13.0349988
  37.9220012  55.0904997  14.0839988  37.3804872  55.3306249  13.4469160
  35.8230012  51.2734997  18.0439988  34.9570012  51.1684997  18.4379988
  36.2000012  52.0324997  18.4899988  35.7553308  51.3616900  18.1582393
  37.1240012  49.5304997   3.5579988  37.9740012  49.9514997   3.6849988
  37.1300012  48.7904997   4.1649988  37.2411372  49.4880803   3.6574344
  37.5190012  47.5834997   5.3819988  36.7920012  47.1044997   5.7789988
  38.1000012  47.7894997   6.1139988  37.4979375  47.5457090   5.5354129
  37.2780012  50.3684997  10.3289988  38.1110012  49.9904997  10.0489988
  37.3900012  51.3114997  10.2099988  37.4072647  50.4442218  10.2745487
  35.7640012  53.2464997  12.6359988  35.1170012  53.5714997  13.2619988
  35.2470012  52.8064997  11.9619988  35.6054029  53.2315004  12.6305827
  37.7870012  47.4844997   1.7729988  37.2650012  47.8414997   1.0539988
  37.7540012  48.1594997   2.4509988  37.7111634  47.6245413   1.7663145
  36.1360012  44.7244997   0.3239988  36.2320012  45.3914997  -0.3570012
  35.9960012  43.9084997  -0.1580012  36.1302135  44.7054500   0.1658491
  35.3050012  46.1044997   5.9449988  35.1550012  45.1594997   5.9239988
  34.9520012  46.3854997   6.7879988  35.2366625  46.0130441   6.0562346
  20.3410012  48.1824997   9.9549988  20.5250012  48.1004997   9.0189988
  21.1900012  48.0584997  10.3789988  20.4810139  48.1545003   9.8841455
  36.1620012  48.0744997  15.5829988  36.7450012  47.3404997  15.7749988
  36.7260012  48.8464997  15.6299988  36.3179769  48.0784227  15.6156159
  37.6580012  45.9774997  16.2679988  36.7950012  45.5984997  16.1019988
  38.2630012  45.2384997  16.1939988  37.6215979  45.8258023  16.2352817
  35.3830012  42.1324997  -0.5590012  35.9940012  41.7614997   0.0779988
  34.5470012  41.7114997  -0.3630012  35.3535032  42.0247554  -0.4452965
  35.0160012  43.6874997   4.4069988  35.2960012  42.7804997   4.5309988
  35.7750012  44.1214997   4.0179988  35.1569277  43.6220942   4.3713682
  35.6280012  44.2684997   9.8429988  36.5610012  44.4804997   9.8089988
  35.3930012  44.3704997  10.7649988  35.7238036  44.3112769   9.9629976
  35.6570012  45.0054997  12.6189988  34.8140012  45.2734997  12.9849988
  36.0990012  45.8274997  12.4079988  35.6014158  45.1533291  12.6405491
  19.9380012  43.4534997  16.0959988  20.8580012  43.3314997  16.3319988
  19.4890012  42.7034997  16.4849988  20.0031580  43.3353727  16.1809006
  37.9400012  38.9854997  17.9719988  38.2900012  38.3314997  17.3669988
  38.0870012  39.8224997  17.5329988  38.0078419  39.0091591  17.8297118
  35.6290012  40.9504997   4.4549988  35.8120012  40.5014997   5.2809988
  35.0300012  40.3654997   3.9919988  35.5730202  40.8099975   4.5053275
  21.1590012  41.7654997   8.9869988  21.6050012  40.9734997   9.2889988
  21.6260012  42.4814997   9.4179988  21.2830172  41.7540624   9.0864820
  19.4630012  44.7644997  10.0559988  19.9550012  44.5434997   9.2649988
  19.8260012  45.6054997  10.3369988  19.5793126  44.8478357   9.9857531
  37.4600012  41.0944997  16.3219988  36.5420012  41.3654997  16.2859988
  37.5830012  40.5594997  15.5369988  37.3511066  41.0592892  16.2110487
  37.4960012  41.0174997   0.9829988  37.9080012  40.2964997   0.5079988
  38.1780012  41.6874997   1.0419988  37.6445885  41.0092368   0.9258915
  19.7770012  41.0224997   4.1099988  18.8520012  41.2314997   3.9809988
  20.2310012  41.5064997   3.4209988  19.7117368  41.1165993   3.9991226
  34.5480012  56.0064997   6.0559988  35.2000012  55.6594997   5.4479988
  35.0580012  56.4954997   6.7019988  34.7062637  56.0250597   6.0600236
  19.7410012  39.7604997  12.4549988  19.0760012  39.5144997  13.0979988
  19.2980012  40.3824997  11.8769988  19.5900956  39.8108632  12.4649352
  21.9330012  52.9354997  16.5989988  21.1120012  53.1104997  16.1389988
  21.6800012  52.8624997  17.5199988  21.7866164  52.9495622  16.6604923
  24.8870012  53.9104997  12.8579988  24.4620012  54.7194997  12.5749988
  25.7910012  53.9954997  12.5559988  24.9510271  54.0328469  12.7783776
  29.1980012  55.3094997  15.8169988  29.3830012  54.9754997  16.6949988
  30.0440012  55.6184997  15.4949988  29.3377539  55.3056047  15.8935605
  31.5430012  56.5954997  15.0609988  32.2200012  55.9624997  14.8209988
  31.8650012  56.9964997  15.8679988  31.6791637  56.5631154  15.1372793
  36.4600012  39.1844997  14.1409988  35.6480012  39.5094997  13.7529988
  36.6930012  38.4244997  13.6079988  36.3803423  39.1262436  14.0158253
  22.2890012  57.1664997  12.9049988  21.5680012  57.6064997  12.4539988
  21.9230012  56.9154997  13.7539988  22.1409804  57.1927698  12.9579840
  24.7560012  56.7664997  11.9349988  23.8910012  56.8384997  12.3389988
  24.7010012  57.3134997  11.1509988  24.6302085  56.8502685  11.8843362
  29.4660012  56.6544997  11.1099988  29.0100012  57.1834997  10.4559988
  29.6290012  57.2574997  11.8359988  29.4255585  56.8084468  11.1185062
  31.7940012  55.5324997  12.0549988  30.8890012  55.6974997  11.7899988
  32.2230012  56.3854997  11.9899988  31.7280799  55.6704483  12.0099182
  34.3980012  57.1024997  12.3499988  34.2160012  58.0184997  12.1399988
  34.5750012  56.6924997  11.5039988  34.3970210  57.1724822  12.2067885
  21.7030012  55.7894997   9.8149988  21.6850012  55.3644997  10.6729988
  22.5080012  55.4714997   9.4069988  21.8093875  55.6883812   9.8771655
  23.8450012  54.4994997   8.4699988  23.6260012  53.5834997   8.6399988
  24.6690012  54.6394997   8.9359988  23.9264420  54.3930520   8.5562774
  26.3820012  54.9694997   9.3189988  26.5950012  54.0814997   9.0319988
  26.4460012  54.9354997  10.2729988  26.4198232  54.8433102   9.4087397
  29.8900012  40.6334997   8.4629988  29.2160012  40.0044997   8.7189988
  30.4540012  40.1494997   7.8599988  29.8739230  40.4818744   8.4165340
  35.0330012  38.7414997   8.5759988  35.6370012  39.2884997   8.0739988
  34.1630012  39.0604997   8.3359988  34.9981241  38.8595806   8.4747654
  36.7600012  39.8794997   6.9089988  37.3720012  39.3654997   6.3829988
  37.1420012  40.7574997   6.9329988  36.8954540  39.9277140   6.8401830
  22.2170012  39.2674997   6.2849988  21.4400012  39.0334997   5.7779988
  22.7470012  38.4704997   6.2939988  22.1822330  39.1276988   6.2167742
  21.0530012  39.0654997   2.0889988  21.4920012  39.6764997   1.4969988
  20.4200012  39.6034997   2.5629988  21.0274514  39.2219257   2.0720930
  26.7960012  39.1944997   6.0989988  27.6710012  39.5824997   6.0689988
  26.6600012  38.9794997   7.0209988  26.8973695  39.2185184   6.2196440
  32.3530012  39.2244997   7.7479988  32.4290012  39.3194997   6.7979988
  32.0780012  38.3164997   7.8769988  32.3262321  39.1147867   7.6355079
  33.7060012  39.2504997   3.4399988  33.0040012  39.8654997   3.2309988
  33.2620012  38.4124997   3.5709988  33.5496330  39.2215783   3.4290328
  20.9540012  55.0134997   2.9869988  20.2690012  54.9754997   2.3189988
  20.9580012  55.9264997   3.2749988  20.8608193  55.1317016   2.9345284
  22.9140012  40.9814997   0.5309988  23.4060012  40.3514997   0.0039988
  23.5380012  41.2774997   1.1949988  23.0655446  40.9353199   0.5485980
  27.9400012  41.2744997   2.9879988  28.1180012  40.6284997   3.6709988
  27.8870012  42.1084997   3.4559988  27.9571829  41.2987985   3.1445940
  29.8190012  56.2234997   1.3839988  30.6850012  56.5894997   1.2059988
  29.5720012  55.7834997   0.5699988  29.9042392  56.2141756   1.2496289
  36.5280012  55.7864997   4.0629988  36.3330012  55.0384997   3.4979988
  36.4890012  56.5444997   3.4799988  36.4960380  55.7866099   3.9068384
  22.1750012  39.7814997  15.8029988  21.8090012  39.0164997  16.2459988
  23.0880012  39.8104997  16.0899988  22.2482790  39.6807224  15.9024070
  24.1480012  39.1324997  17.3389988  25.0460012  38.8584997  17.1539988
  23.7610012  38.3894997  17.8029988  24.2186612  38.9945914  17.3763643
  22.7720012  55.9334997   0.0119988  22.5050012  56.2204997   0.8849988
  23.5440012  55.3874997   0.1639988  22.8397488  55.8990294   0.1521050
  32.5690012  38.4644997  17.5209988  32.6460012  38.0384997  18.3749988
  33.4630012  38.4784997  17.1779988  32.7003428  38.4080879  17.5915310
  35.7450012  54.5374997  16.2129988  34.9630012  54.3514997  15.6939988
  35.6730012  55.4664997  16.4309988  35.6281777  54.6376492  16.1714048
  50.1510012  48.4234997   6.2439988  50.2400012  49.3674997   6.1119988
  49.5130012  48.1484997   5.5859988  50.0769081  48.5154830   6.1369614
  49.0840012  47.6784997   9.6629988  49.0460012  47.0324997  10.3679988
  48.7620012  47.2124997   8.8919988  49.0352333  47.5269408   9.6552978
  41.4530012  47.2934997  11.2559988  41.4940012  46.6674997  11.9789988
  42.1560012  47.9174997  11.4379988  41.5536363  47.2921196  11.3796044
  52.7900012  50.6174997   7.9639988  52.3500012  49.8974997   8.4149988
  52.7770012  51.3384997   8.5939988  52.7280226  50.6163731   8.1108494
  42.3760012  51.7434997   9.7909988  42.0070012  50.9414997   9.4209988
  43.3170012  51.5744997   9.8369988  42.4527289  51.6110153   9.7466316
  38.9860012  45.4034997   5.1839988  38.5390012  46.2494997   5.1649988
  38.4250012  44.8234997   4.6679988  38.8489900  45.4409916   5.1116801
  39.6970012  47.5654997   7.3099988  39.9100012  46.7954997   7.8369988
  40.4350012  47.6544997   6.7059988  39.8258496  47.4721394   7.3005300
  49.9020012  55.7224997   8.1769988  50.5220012  55.0454997   7.9029988
  49.6940012  55.5044997   9.0849988  49.9586904  55.6003870   8.2623365
  47.4740012  50.1114997  10.0689988  47.7780012  49.4254997   9.4739988
  48.1950012  50.2294997  10.6869988  47.6130671  50.0336305  10.0711816
  56.1370012  41.7124997  10.9299988  56.1860012  42.3224997  11.6659988
  56.5620012  42.1734997  10.2069988  56.2011824  41.8583741  10.9330205
  50.6150012  44.5054997  10.3969988  50.7570012  43.5594997  10.4169988
  50.5080012  44.7124997   9.4679988  50.6199864  44.4039534  10.2742339
  43.7690012  42.6064997   7.6689988  43.8130012  43.4664997   7.2509988
  43.3120012  42.0544997   7.0349988  43.7132185  42.6495799   7.5260299
  51.4920012  42.7374997   6.0699988  52.1380012  42.4084997   6.6949988
  52.0020012  43.2554997   5.4469988  51.6494264  42.7624611   6.0713862
  40.3900012  45.0034997   8.4309988  41.0430012  44.4534997   8.8629988
  40.4140012  44.7294997   7.5139988  40.4826683  44.8911466   8.3662123
  45.5460012  46.5534997   7.6459988  46.1620012  46.0274997   8.1559988
  44.9600012  45.9134997   7.2429988  45.5510810  46.3949208   7.6613173
  56.5280012  43.1904997  13.1659988  55.8400012  43.8484997  13.0699988
  56.5440012  42.9934997  14.1019988  56.4358525  43.2540462  13.2794808
  42.5800012  41.5244997  11.7429988  42.3610012  42.0544997  10.9769988
  41.9120012  41.7514997  12.3899988  42.4597600  41.6276906  11.7256379
  49.9490012  51.0244997   5.2869988  49.6530012  50.7024997   4.4359988
  49.6240012  51.9244997   5.3279988  49.8646371  51.1020215   5.1761801
  45.1490012  49.2004997  12.0299988  44.4090012  49.7984997  12.1339988
  45.8630012  49.7544997  11.7149988  45.1442237  49.3572831  12.0016465
  53.2560012  42.0284997   8.0499988  53.0400012  41.2624997   8.5829988
  53.9110012  42.5004997   8.5629988  53.3150632  41.9875889   8.1922861
  42.1730012  43.4164997   9.6949988  42.7870012  44.0494997  10.0689988
  42.6850012  42.9444997   9.0389988  42.3262296  43.4392370   9.6574252
  43.5560012  51.1644997  12.8179988  43.5510012  52.0444997  12.4399988
  42.7030012  51.0814997  13.2429988  43.4399464  51.2736117  12.8237907
  39.6770012  50.8354997   3.5999988  39.4050012  51.0644997   2.7109988
  39.7230012  51.6734997   4.0599988  39.6460094  50.9801213   3.5405697
  53.3020012  52.4574997  10.3119988  52.3610012  52.5154997  10.4739988
  53.5790012  53.3634997  10.1749988  53.2104679  52.5879443  10.3156815
  53.6030012  40.7434997  11.7299988  52.8670012  41.3544997  11.6919988
  54.2860012  41.1584997  11.2029988  53.5946541  40.8831374  11.6535832
  46.6060012  38.8304997   9.1959988  46.4890012  37.8814997   9.1409988
  45.7510012  39.1624997   9.4689988  46.4743733  38.7455409   9.2253897
  51.5540012  54.2384997   6.9379988  51.9800012  53.5314997   6.4529988
  51.8710012  55.0394997   6.5209988  51.6551019  54.2500994   6.8153130
  52.7140012  52.1394997   5.4459988  52.4560012  51.4494997   4.8349988
  52.7850012  51.6964997   6.2919988  52.6882856  51.9852124   5.4766885
  54.4000012  50.7054997  13.9239988  54.5400012  50.1144997  13.1839988
  54.5670012  51.5784997  13.5669988  54.4416778  50.7426426  13.7746965
  48.8730012  47.6674997   3.6959988  48.1610012  48.2024997   3.3439988
  49.5640012  47.7234997   3.0359988  48.8690132  47.7482543   3.5586289
  48.9260012  46.1254997   0.7349988  49.6270012  46.1474997   1.3859988
  49.2290012  45.4974997   0.0789988  49.0627830  46.0436566   0.7353711
  56.2420012  47.0454997  11.9899988  55.5890012  47.7404997  12.0789988
  56.7070012  47.2554997  11.1799988  56.2155390  47.1689425  11.8926883
  52.2780012  47.8774997   4.6479988  51.5460012  48.1054997   5.2209988
  52.7260012  47.1634997   5.1029988  52.2383095  47.8122571   4.7879119
  52.1760012  46.0514997  13.7149988  52.2560012  46.8144997  14.2869988
  51.5740012  46.3304997  13.0249988  52.1055756  46.1937134  13.7000589
  43.9240012  48.5074997   6.5299988  43.5930012  48.1374997   5.7119988
  44.5120012  47.8374997   6.8769988  43.9581873  48.3661156   6.4648102
  45.2900012  51.9354997   9.2119988  45.1960012  51.3574997   8.4549988
  46.0200012  51.5644997   9.7079988  45.3757981  51.8062390   9.1754165
  44.2900012  47.2764997  10.1639988  44.8560012  47.3974997   9.4009988
  44.6090012  47.9134997  10.8029988  44.4105786  47.3791884  10.1460040
  50.5990012  52.7794997  10.8979988  50.3590012  53.4414997  11.5459988
  50.4010012  51.9454997  11.3229988  50.5393808  52.7573134  11.0441524
  45.1700012  51.6754997  14.8809988  44.8590012  52.4574997  15.3359988
  44.5200012  51.5224997  14.1949988  45.0395558  51.7619105  14.8505871
  51.1490012  47.0394997   2.3329988  51.7290012  47.1894997   3.0799988
  51.5630012  47.5104997   1.6099988  51.2842830  47.1236841   2.3374134
  42.0900012  47.8734997  14.1099988  42.1610012  48.5244997  14.8079988
  41.2000012  47.9764997  13.7749988  41.9793117  47.9765936  14.1602700
  48.8760012  53.7764997   5.7679988  49.3500012  54.0714997   6.5459988
  48.3130012  54.5144997   5.5349988  48.8647653  53.9166932   5.8430136
  43.4100012  53.7474997  15.6439988  43.4170012  53.6114997  14.6969988
  42.4940012  53.6294997  15.8959988  43.2871714  53.7129430  15.5484666
  54.8480012  38.7894997   2.1459988  53.9480012  38.9284997   2.4409988
  55.1000012  39.6204997   1.7439988  54.7588702  38.9209074   2.1320205
  42.9140012  47.5774997   4.1199988  42.6220012  48.3454997   3.6289988
  42.2400012  46.9174997   3.9569988  42.7829081  47.5934406   4.0307340
  56.0370012  53.1554997   0.5219988  56.1110012  54.0944997   0.6929988
  56.9430012  52.8504997   0.4659988  56.1695100  53.2426722   0.5378119
  39.0070012  49.9404997  12.9349988  38.5060012  49.9124997  12.1199988
  39.0120012  49.0344997  13.2439988  38.9391526  49.8142278  12.8652872
  38.7570012  52.7204997   9.8189988  39.7030012  52.5764997   9.7999988
  38.6450012  53.5044997  10.3559988  38.8712727  52.8068046   9.8890072
  56.9550012  53.3864997  15.5009988  56.9060012  52.4314997  15.4639988
  56.1280012  53.6544997  15.9019988  56.8364940  53.2918998  15.5501375
  47.9340012  52.9604997  14.3769988  48.0210012  53.7864997  14.8519988
  47.0700012  52.6304997  14.6259988  47.8291964  53.0289878  14.4756549
  48.3480012  56.7324997   4.1829988  48.2730012  56.6114997   3.2369988
  48.3810012  57.6824997   4.3019988  48.3421848  56.8442500   4.0694834
  42.0010012  55.5214997   5.9639988  42.1540012  55.1734997   6.8429988
  41.1510012  55.1654997   5.7089988  41.9068962  55.4256650   6.0498340
  51.4500012  55.8864997   1.1849988  51.8250012  55.1424997   0.7149988
  51.4540012  55.6164997   2.1039988  51.5018915  55.7481486   1.2447824
  51.1190012  55.8124997   3.9349988  50.1830012  55.9124997   4.1129988
  51.3990012  55.1034997   4.5129988  51.0288255  55.7302711   4.0375391
  54.1070012  44.8794997  15.9809988  53.7000012  45.3604997  15.2599988
  54.1480012  43.9744997  15.6729988  54.0568437  44.8229374  15.8406683
  41.2560012  51.2634997  13.9779988  41.4720012  50.9024997  14.8369988
  40.4010012  50.8894997  13.7679988  41.1699292  51.1634111  14.0673386
  43.8750012  39.7334997   9.9729988  43.0130012  39.6464997   9.5659988
  43.8520012  40.5894997  10.4009988  43.7540330  39.8372765   9.9751863
  48.5380012  39.4554997  13.3479988  48.9580012  39.0404997  14.1009988
  47.6050012  39.2774997  13.4649988  48.4693644  39.3745900  13.4669539
  51.8640012  43.2114997  14.2009988  51.3500012  43.0854997  14.9989988
  51.7090012  44.1234997  13.9569988  51.7726852  43.3176132  14.2772158
  52.6270012  48.0724997  -0.0370012  52.6690012  47.8494997  -0.9670012
  53.4760012  48.4714997   0.1529988  52.7475396  48.0959155  -0.1386373
  48.1990012  41.9484997   0.6329988  47.9460012  41.9674997   1.5559988
  47.9430012  41.0764997   0.3319988  48.1297790  41.8332437   0.7186263
  43.9660012  44.6994997  11.0679988  43.3240012  44.6584997  11.7769988
  44.0030012  45.6254997  10.8309988  43.8831324  44.8191559  11.1329824
  43.9630012  44.9204997   5.9799988  43.0700012  44.5794997   5.9219988
  44.4130012  44.5434997   5.2249988  43.9017305  44.8228484   5.8699177
  49.4980012  45.3364997   4.7969988  49.0890012  46.1514997   4.5059988
  50.2190012  45.1964997   4.1829988  49.5394537  45.4292018   4.6741342
  48.6000012  45.5114997  16.2849988  48.0380012  44.8074997  16.6059988
  49.4270012  45.3914997  16.7529988  48.6347095  45.3987883  16.3922330
  50.5030012  44.7824997   7.6109988  50.3080012  45.3874997   6.8959988
  50.6840012  43.9484997   7.1769988  50.5007614  44.7526300   7.4544405
  41.7160012  45.0194997  12.9349988  41.6780012  45.4194997  13.8039988
  41.2250012  44.2024997  13.0259988  41.6444684  44.9638069  13.0661059
  45.0820012  42.3934997  -0.2660012  44.6510012  41.9484997   0.4639988
  44.3640012  42.7654997  -0.7780012  44.9259438  42.3828940  -0.2353201
  38.3240012  42.1354997   6.7859988  38.9550012  42.1064997   7.5049988
  38.7730012  41.7104997   6.0559988  38.4710774  42.0740492   6.7856553
  39.5980012  42.8814997   2.2099988  40.0720012  43.4724997   1.6249988
  38.8810012  43.4124997   2.5569988  39.5659341  43.0340867   2.1768836
  49.7670012  46.4204997  12.2829988  50.0900012  45.7894997  11.6399988
  49.3270012  45.8854997  12.9429988  49.7516895  46.2618441  12.2842850
  46.5440012  42.3474997   7.0669988  45.6330012  42.4044997   7.3549988
  47.0500012  42.2874997   7.8769988  46.4875413  42.3471985   7.2160622
  41.3730012  43.9764997   5.8929988  40.4830012  44.0764997   5.5529988
  41.6690012  43.1344997   5.5469988  41.2912823  43.8763545   5.7997213
  45.0260012  43.9764997   3.5499988  45.9570012  44.1054997   3.7279988
  44.8110012  44.6464997   2.8999988  45.1244247  44.0846565   3.4865747
  50.9490012  41.5824997  10.3309988  50.2730012  41.7134997  10.9949988
  50.4640012  41.4274997   9.5209988  50.7907145  41.5794905  10.3124517
  43.7000012  45.1714997   1.1169988  43.1570012  44.7914997   0.4249988
  44.5330012  45.3654997   0.6879988  43.7384399  45.1458124   0.9644526
  54.2370012  57.2544997  16.6079988  54.4370012  57.6784997  15.7729988
  54.8920012  57.5974997  17.2149988  54.3530051  57.3589648  16.5757836
  41.8350012  49.7284997  16.2159988  42.5670012  49.9824997  16.7769988
  41.0550012  49.9324997  16.7309988  41.8298232  49.7909177  16.3625760
  47.8640012  45.1354997   8.9539988  48.4290012  44.5884997   8.4069988
  47.7170012  44.6134997   9.7419988  47.9212918  44.9902024   8.9858454
  42.8660012  41.2714997   5.3719988  42.5490012  40.3694997   5.3369988
  43.6480012  41.2734997   4.8189988  42.9282284  41.1481628   5.2924783
  46.4910012  43.5234997  11.3679988  45.6550012  43.9774997  11.4779988
  47.0150012  43.7994997  12.1199988  46.4474414  43.6229376  11.4847136
  47.0350012  49.7364997   3.0519988  46.2900012  49.2294997   2.7299988
  46.9010012  49.7854997   3.9989988  46.9148776  49.6736940   3.1358647
  54.1850012  48.8694997  11.8389988  54.8270012  49.3264997  11.2949988
  53.3550012  48.9824997  11.3759988  54.1605963  48.9472704  11.7020177
  50.9330012  42.5504997   1.2519988  49.9940012  42.6624997   1.0999988
  51.2300012  43.4074997   1.5579988  50.8447666  42.6816443   1.2725768
  48.5540012  49.9204997  14.2889988  48.2090012  49.5394997  15.0959988
  48.3540012  50.8544997  14.3609988  48.4798061  49.9945228  14.4090961
  51.6510012  44.4174997   2.9119988  52.5430012  44.2804997   3.2309988
  51.7080012  45.2084997   2.3759988  51.7806285  44.5056660   2.8831691
  42.1600012  49.0314997   8.8219988  42.9050012  49.0294997   8.2209988
  42.2380012  48.2084997   9.3039988  42.2725518  48.9199315   8.8048929
  49.1610012  51.1954997   2.0779988  48.8650012  52.0214997   2.4589988
  48.4580012  50.5754997   2.2739988  49.0254914  51.2248199   2.1566443
  39.1680012  47.4924997  14.1369988  39.3910012  47.0744997  14.9689988
  38.5660012  46.8794997  13.7139988  39.1171759  47.3524668  14.1937022
  46.1840012  47.0094997  16.3499988  45.8880012  46.8434997  15.4549988
  47.1160012  46.7894997  16.3389988  46.2694166  46.9570640  16.2260536
  50.8050012  52.3824997  14.2399988  49.9040012  52.5654997  13.9719988
  50.8390012  52.6414997  15.1609988  50.6863041  52.4425512  14.3278197
  56.5360012  44.6274997   2.6069988  55.9820012  44.2314997   1.9349988
  56.6360012  45.5374997   2.3289988  56.4737059  44.6963586   2.4774401
  56.4990012  50.4274997  15.4439988  55.6480012  50.6654997  15.0769988
  57.0900012  50.4104997  14.6909988  56.4622487  50.4578258  15.2918893
  54.8310012  53.4134997   3.0719988  54.4580012  52.5874997   3.3809988
  55.1090012  53.2304997   2.1749988  54.8175630  53.2757303   2.9929626
  51.9920012  48.2214997  10.0929988  51.0630012  47.9894997  10.0659988
  52.4430012  47.4444997   9.7629988  51.9259216  48.0847238  10.0446917
  44.5350012  52.5494997   6.2259988  45.0620012  53.3224997   6.0259988
  43.6550012  52.7744997   5.9249988  44.4881773  52.6858005   6.1579010
  40.2900012  47.4114997   0.8129988  40.9060012  48.0384997   1.1929988
  39.4280012  47.7274997   1.0849988  40.2577698  47.5399430   0.9017183
  45.9620012  50.2124997   5.8029988  45.7210012  51.1374997   5.8439988
  45.2210012  49.7534997   6.1989988  45.8288409  50.2771421   5.8621377
  46.4770012  54.3614997  12.1179988  46.8390012  55.2164997  11.8839988
  47.0080012  54.0694997  12.8579988  46.5984473  54.4391060  12.1860855
  44.6450012  55.2344997   5.3479988  43.6950012  55.3394997   5.3989988
  44.9970012  56.0544997   5.6929988  44.5624203  55.3598314   5.4016650
  50.0210012  50.4604997  11.8179988  49.5950012  50.2334997  12.6449988
  50.6010012  49.7224997  11.6359988  50.0411868  50.3295299  11.9065830
  52.2240012  51.3894997   0.8919988  52.5770012  51.0094997   1.6969988
  51.2750012  51.2964997   0.9789988  52.1440441  51.3249596   1.0138559
  52.6790012  55.0124997  14.2879988  52.0780012  54.4574997  13.7919988
  52.9610012  55.6794997  13.6619988  52.6348519  55.0266841  14.1354951
  56.7270012  55.8694997   1.0929988  57.4710012  56.4554997   0.9529988
  56.0330012  56.4374997   1.4269988  56.7350292  56.0265582   1.1189961
  40.8020012  42.2454997  13.6949988  39.9090012  42.5844997  13.6269988
  40.7030012  41.3904997  14.1129988  40.6664164  42.1762588  13.7422235
  53.0900012  50.0624997   3.1189988  52.8120012  49.3344997   3.6749988
  54.0170012  50.1814997   3.3239988  53.1773124  49.9788802   3.2228845
  40.4530012  54.0504997  12.1299988  40.6700012  53.1184997  12.0989988
  40.6990012  54.3244997  13.0129988  40.5159549  53.9600636  12.2451763
  46.3150012  52.5014997  -0.6610012  46.5540012  51.7534997  -1.2080012
  46.0460012  52.1134997   0.1719988  46.3113675  52.3466638  -0.6233135
  45.2520012  52.0714997   1.7959988  45.3980012  51.5514997   2.5859988
  45.2490012  52.9784997   2.1019988  45.2715989  52.1228853   1.9456088
  41.7050012  49.3244997   2.3059988  41.0190012  49.6764997   2.8729988
  42.2270012  50.0874997   2.0589988  41.6816852  49.4758578   2.3502118
  49.5360012  41.9864997  12.5849988  50.2350012  42.0604997  13.2349988
  49.1550012  41.1224997  12.7389988  49.5801767  41.8797624  12.6948322
  50.3210012  41.6384997   3.6819988  50.5410012  42.1104997   2.8789988
  50.8790012  42.0334997   4.3519988  50.4264968  41.7564285   3.6627331
  47.9890012  53.7694997   2.5449988  47.1730012  54.2664997   2.5969988
  48.5190012  54.2444997   1.9049988  47.9489161  53.9017722   2.4655956
  47.5210012  43.3664997   4.5169988  48.3330012  43.8714997   4.5629988
  47.2760012  43.2214997   5.4309988  47.5990520  43.4160375   4.6468517
  48.0560012  44.3524997  13.7019988  48.1750012  44.9264997  14.4589988
  48.7120012  43.6644997  13.8159988  48.1609757  44.3381079  13.8210825
  48.4040012  40.4474997   5.4549988  48.0580012  41.0654997   6.0999988
  49.0630012  40.9484997   4.9739988  48.4457826  40.5995802   5.4780971
  45.3280012  54.8134997   2.5269988  45.4880012  55.6124997   2.0259988
  45.1300012  55.1194997   3.4119988  45.3231649  54.9644469   2.5779815
  44.0620012  41.5104997   2.1419988  43.9790012  42.3994997   2.4889988
  44.9520012  41.2454997   2.3739988  44.1709469  41.5961430   2.2207626
  54.2610012  42.2594997  14.5369988  53.3440012  42.5224997  14.4489988
  54.5960012  42.2564997  13.6399988  54.1809900  42.2950224  14.4037919
  52.8630012  46.0104997   8.6319988  52.0650012  45.5954997   8.3039988
  53.3080012  45.3194997   9.1229988  52.8139885  45.8603543   8.6534889
  42.3210012  51.9384997   1.2029988  42.9130012  52.6374997   1.4789988
  42.7800012  51.5054997   0.4829988  42.4641142  51.9757049   1.1434830
  40.6370012  44.6024997   0.3189988  40.5920012  45.5414997   0.4969988
  39.7490012  44.3664997   0.0489988  40.5108574  44.6991892   0.3068912
  53.9490012  55.2664997  10.2549988  53.7940012  55.9444997   9.5979988
  54.8820012  55.3384997  10.4579988  54.0538500  55.3690170  10.1925119
  41.4450012  39.3844997   8.9919988  41.2160012  39.4434997   8.0639988
  41.0020012  38.5924997   9.2979988  41.3538530  39.2855753   8.9064786
  40.3750012  53.3244997   5.1519988  39.5430012  53.7974997   5.1799988
  40.9210012  53.8344997   4.5539988  40.3349739  53.4581871   5.0749716
  39.6630012  55.9374997  16.4819988  40.2040012  55.7204997  17.2419988
  39.1820012  55.1314997  16.2929988  39.6719345  55.7989514  16.5603076
  44.2610012  54.8564997  18.1029988  45.0280012  54.3974997  18.4439988
  44.2390012  54.6304997  17.1729988  44.3631434  54.7630409  18.0240043
  48.3530012  54.3644997  -0.5220012  47.7090012  53.7334997  -0.2010012
  49.1150012  53.8334997  -0.7540012  48.3678077  54.2062920  -0.5093989
  50.8380012  53.2364997  16.8319988  50.4870012  52.3804997  17.0749988
  51.5640012  53.3794997  17.4389988  50.8880769  53.1385636  16.9473619
  52.9570012  54.1814997  -0.2880012  53.2400012  53.3874997   0.1639988
  53.6970012  54.4144997  -0.8490012  53.0957486  54.1042803  -0.3019302
  39.5700012  49.7474997  17.4369988  39.7140012  48.8454997  17.1499988
  38.7980012  50.0334997  16.9489988  39.4853322  49.6628261  17.3317881
  43.9120012  50.0914997  -0.4310012  43.9760012  49.2974997   0.0999988
  44.5650012  49.9724997  -1.1210012  44.0090241  49.9667148  -0.4515683
  46.2260012  49.7174997  16.8689988  45.8970012  49.9884997  16.0119988
  46.3780012  48.7764997  16.7819988  46.2014809  49.6273862  16.7398244
  49.2640012  51.1384997  -0.6950012  48.9950012  51.3184997   0.2059988
  49.0580012  50.2124997  -0.8260012  49.1993825  51.0380152  -0.5894786
  51.9600012  49.6334997  14.2529988  52.7060012  50.2214997  14.1329988
  51.2030012  50.2154997  14.3159988  51.9597554  49.7927011  14.2450907
  40.4030012  46.9474997  16.8569988  40.8110012  46.0904997  16.7359988
  40.1430012  46.9624997  17.7779988  40.4237568  46.8320807  16.9649588
  45.0610012  48.0634997   1.8749988  44.6010012  47.5794997   2.5609988
  45.3160012  47.3954997   1.2389988  45.0324902  47.9068731   1.8829334
  44.3500012  45.9564997  14.2309988  43.7320012  46.6314997  14.5109988
  44.6940012  46.2774997  13.3979988  44.3119615  46.0922721  14.1566581
  46.1320012  46.3064997   0.1369988  45.9520012  46.1524997  -0.7900012
  47.0820012  46.4144997   0.1819988  46.2357776  46.3000175   0.0161843
  49.3700012  48.4284997  17.5079988  50.3230012  48.5114997  17.4809988
  49.2090012  47.7164997  18.1279988  49.4786426  48.3436746  17.5880579
  55.5220012  48.6614997  -0.4170012  55.2480012  48.2364997  -1.2300012
  55.5610012  49.5924997  -0.6340012  55.4897699  48.7292484  -0.5576390
  44.6890012  43.3114997  15.3129988  44.8390012  42.5824997  14.7109988
  44.6920012  44.0884997  14.7539988  44.7099302  43.3167851  15.1550692
  45.1020012  41.6814997  12.8059988  45.6380012  42.1324997  12.1539988
  44.2500012  41.5734997  12.3829988  45.0602178  41.7286390  12.6595756
  46.6840012  47.1204997  13.0449988  47.4340012  46.9644997  12.4719988
  46.3450012  47.9724997  12.7699988  46.7408921  47.2142968  12.9293561
  51.0990012  44.9354997  18.0739988  51.2920012  44.0044997  17.9619988
  51.9570012  45.3604997  18.0639988  51.2413020  44.8656389  18.0573361
  52.4160012  47.7244997  16.1509988  52.1350012  48.4334997  15.5739988
  53.3590012  47.6514997  15.9999988  52.5049027  47.8117646  16.0515551
  43.1680012  44.5094997  17.2249988  42.4010012  43.9774997  17.0149988
  43.8470012  44.1994997  16.6249988  43.1547022  44.3947506  17.1151648
  45.9080012  39.1374997  13.2369988  45.8090012  40.0844997  13.1319988
  45.1650012  38.7654997  12.7619988  45.7940564  39.2165902  13.1584560
  47.1720012  43.4594997  16.8009988  46.9360012  43.2394997  17.7029988
  46.3880012  43.2524997  16.2909988  47.0338628  43.4014760  16.8553932
  49.8870012  42.5864997  15.8769988  48.9400012  42.6184997  16.0089988
  50.2000012  41.9614997  16.5299988  49.7995475  42.5063207  15.9834455
  51.5210012  41.2204997  17.8819988  51.4250012  40.2684997  17.8759988
  51.2000012  41.4894997  18.7419988  51.4644070  41.1264035  17.9975441
  41.3480012  42.4304997  16.9289988  41.5600012  41.7234997  16.3189988
  41.2370012  41.9924997  17.7729988  41.3619721  42.2747084  16.9596843
  46.1290012  38.4314997  15.9089988  46.8410012  37.7914997  15.8949988
  46.0280012  38.6984997  14.9949988  46.2127939  38.3799938  15.7835650
  46.4830012  40.1144997  17.9619988  46.3510012  39.6384997  17.1419988
  45.8840012  40.8584997  17.9069988  46.3839071  40.1499618  17.8422886
  46.0290012  56.9974997   1.1389988  46.9620012  57.1554997   1.2819988
  45.7650012  57.6724997   0.5139988  46.1209510  57.1103611   1.0740741
  39.5980012  51.6334997   0.6209988  40.5120012  51.7124997   0.8949988
  39.6050012  50.9464997  -0.0450012  39.7241131  51.5513961   0.5684393
  38.2470012  57.0264997   5.6989988  37.6000012  56.5644997   5.1659988
  38.6010012  56.3544997   6.2809988  38.2063849  56.8724723   5.7047959
  39.1170012  55.1074997   7.5029988  38.7820012  54.2274997   7.6749988
  39.3390012  55.4524997   8.3679988  39.1011783  55.0337500   7.6434208
  56.6650012  55.9164997  10.4839988  56.6440012  56.1014997  11.4229988
  57.3560012  56.4854997  10.1429988  56.7554618  56.0186606  10.5663864
  56.2290012  55.4844997  13.4059988  55.7410012  54.7484997  13.0349988
  56.7780012  55.0904997  14.0839988  56.2364872  55.3306249  13.4469160
  54.6790012  51.2734997  18.0439988  53.8130012  51.1684997  18.4379988
  55.0560012  52.0324997  18.4899988  54.6113308  51.3616900  18.1582393
  55.9800012  49.5304997   3.5579988  56.8300012  49.9514997   3.6849988
  55.9860012  48.7904997   4.1649988  56.0971372  49.4880803   3.6574344
  56.3750012  47.5834997   5.3819988  55.6480012  47.1044997   5.7789988
  56.9560012  47.7894997   6.1139988  56.3539375  47.5457090   5.5354129
  56.1340012  50.3684997  10.3289988  56.9670012  49.9904997  10.0489988
  56.2460012  51.3114997  10.2099988  56.2632647  50.4442218  10.2745487
  54.6200012  53.2464997  12.6359988  53.9730012  53.5714997  13.2619988
  54.1030012  52.8064997  11.9619988  54.4614029  53.2315004  12.6305827
  56.6430012  47.4844997   1.7729988  56.1210012  47.8414997   1.0539988
  56.6100012  48.1594997   2.4509988  56.5671634  47.6245413   1.7663145
  54.9920012  44.7244997   0.3239988  55.0880012  45.3914997  -0.3570012
  54.8520012  43.9084997  -0.1580012  54.9862135  44.7054500   0.1658491
  54.1610012  46.1044997   5.9449988  54.0110012  45.1594997   5.9239988
  53.8080012  46.3854997   6.7879988  54.0926625  46.0130441   6.0562346
  39.1970012  48.1824997   9.9549988  39.3810012  48.1004997   9.0189988
  40.0460012  48.0584997  10.3789988  39.3370139  48.1545003   9.8841455
  55.0180012  48.0744997  15.5829988  55.6010012  47.3404997  15.7749988
  55.5820012  48.8464997  15.6299988  55.1739769  48.0784227  15.6156159
  56.5140012  45.9774997  16.2679988  55.6510012  45.5984997  16.1019988
  57.1190012  45.2384997  16.1939988  56.4775979  45.8258023  16.2352817
  54.2390012  42.1324997  -0.5590012  54.8500012  41.7614997   0.0779988
  53.4030012  41.7114997  -0.3630012  54.2095032  42.0247554  -0.4452965
  53.8720012  43.6874997   4.4069988  54.1520012  42.7804997   4.5309988
  54.6310012  44.1214997   4.0179988  54.0129277  43.6220942   4.3713682
  54.4840012  44.2684997   9.8429988  55.4170012  44.4804997   9.8089988
  54.2490012  44.3704997  10.7649988  54.5798036  44.3112769   9.9629976
  54.5130012  45.0054997  12.6189988  53.6700012  45.2734997  12.9849988
  54.9550012  45.8274997  12.4079988  54.4574158  45.1533291  12.6405491
  38.7940012  43.4534997  16.0959988  39.7140012  43.3314997  16.3319988
  38.3450012  42.7034997  16.4849988  38.8591580  43.3353727  16.1809006
  56.7960012  38.9854997  17.9719988  57.1460012  38.3314997  17.3669988
  56.9430012  39.8224997  17.5329988  56.8638419  39.0091591  17.8297118
  54.4850012  40.9504997   4.4549988  54.6680012  40.5014997   5.2809988
  53.8860012  40.3654997   3.9919988  54.4290202  40.8099975   4.5053275
  40.0150012  41.7654997   8.9869988  40.4610012  40.9734997   9.2889988
  40.4820012  42.4814997   9.4179988  40.1390172  41.7540624   9.0864820
  38.3190012  44.7644997  10.0559988  38.8110012  44.5434997   9.2649988
  38.6820012  45.6054997  10.3369988  38.4353126  44.8478357   9.9857531
  56.3160012  41.0944997  16.3219988  55.3980012  41.3654997  16.2859988
  56.4390012  40.5594997  15.5369988  56.2071066  41.0592892  16.2110487
  56.3520012  41.0174997   0.9829988  56.7640012  40.2964997   0.5079988
  57.0340012  41.6874997   1.0419988  56.5005885  41.0092368   0.9258915
  38.6330012  41.0224997   4.1099988  37.7080012  41.2314997   3.9809988
  39.0870012  41.5064997   3.4209988  38.5677368  41.1165993   3.9991226
  53.4040012  56.0064997   6.0559988  54.0560012  55.6594997   5.4479988
  53.9140012  56.4954997   6.7019988  53.5622637  56.0250597   6.0600236
  38.5970012  39.7604997  12.4549988  37.9320012  39.5144997  13.0979988
  38.1540012  40.3824997  11.8769988  38.4460956  39.8108632  12.4649352
  40.7890012  52.9354997  16.5989988  39.9680012  53.1104997  16.1389988
  40.5360012  52.8624997  17.5199988  40.6426164  52.9495622  16.6604923
  43.7430012  53.9104997  12.8579988  43.3180012  54.7194997  12.5749988
  44.6470012  53.9954997  12.5559988  43.8070271  54.0328469  12.7783776
  48.0540012  55.3094997  15.8169988  48.2390012  54.9754997  16.6949988
  48.9000012  55.6184997  15.4949988  48.1937539  55.3056047  15.8935605
  50.3990012  56.5954997  15.0609988  51.0760012  55.9624997  14.8209988
  50.7210012  56.9964997  15.8679988  50.5351637  56.5631154  15.1372793
  55.3160012  39.1844997  14.1409988  54.5040012  39.5094997  13.7529988
  55.5490012  38.4244997  13.6079988  55.2363423  39.1262436  14.0158253
  41.1450012  57.1664997  12.9049988  40.4240012  57.6064997  12.4539988
  40.7790012  56.9154997  13.7539988  40.9969804  57.1927698  12.9579840
  43.6120012  56.7664997  11.9349988  42.7470012  56.8384997  12.3389988
  43.5570012  57.3134997  11.1509988  43.4862085  56.8502685  11.8843362
  48.3220012  56.6544997  11.1099988  47.8660012  57.1834997  10.4559988
  48.4850012  57.2574997  11.8359988  48.2815585  56.8084468  11.1185062
  50.6500012  55.5324997  12.0549988  49.7450012  55.6974997  11.7899988
  51.0790012  56.3854997  11.9899988  50.5840799  55.6704483  12.0099182
  53.2540012  57.1024997  12.3499988  53.0720012  58.0184997  12.1399988
  53.4310012  56.6924997  11.5039988  53.2530210  57.1724822  12.2067885
  40.5590012  55.7894997   9.8149988  40.5410012  55.3644997  10.6729988
  41.3640012  55.4714997   9.4069988  40.6653875  55.6883812   9.8771655
  42.7010012  54.4994997   8.4699988  42.4820012  53.5834997   8.6399988
  43.5250012  54.6394997   8.9359988  42.7824420  54.3930520   8.5562774
  45.2380012  54.9694997   9.3189988  45.4510012  54.0814997   9.0319988
  45.3020012  54.9354997  10.2729988  45.2758232  54.8433102   9.4087397
  48.7460012  40.6334997   8.4629988  48.0720012  40.0044997   8.7189988
  49.3100012  40.1494997   7.8599988  48.7299230  40.4818744   8.4165340
  53.8890012  38.7414997   8.5759988  54.4930012  39.2884997   8.0739988
  53.0190012  39.0604997   8.3359988  53.8541241  38.8595806   8.4747654
  55.6160012  39.8794997   6.9089988  56.2280012  39.3654997   6.3829988
  55.9980012  40.7574997   6.9329988  55.7514540  39.9277140   6.8401830
  41.0730012  39.2674997   6.2849988  40.2960012  39.0334997   5.7779988
  41.6030012  38.4704997   6.2939988  41.0382330  39.1276988   6.2167742
  39.9090012  39.0654997   2.0889988  40.3480012  39.6764997   1.4969988
  39.2760012  39.6034997   2.5629988  39.8834514  39.2219257   2.0720930
  45.6520012  39.1944997   6.0989988  46.5270012  39.5824997   6.0689988
  45.5160012  38.9794997   7.0209988  45.7533695  39.2185184   6.2196440
  51.2090012  39.2244997   7.7479988  51.2850012  39.3194997   6.7979988
  50.9340012  38.3164997   7.8769988  51.1822321  39.1147867   7.6355079
  52.5620012  39.2504997   3.4399988  51.8600012  39.8654997   3.2309988
  52.1180012  38.4124997   3.5709988  52.4056330  39.2215783   3.4290328
  39.8100012  55.0134997   2.9869988  39.1250012  54.9754997   2.3189988
  39.8140012  55.9264997   3.2749988  39.7168193  55.1317016   2.9345284
  41.7700012  40.9814997   0.5309988  42.2620012  40.3514997   0.0039988
  42.3940012  41.2774997   1.1949988  41.9215446  40.9353199   0.5485980
  46.7960012  41.2744997   2.9879988  46.9740012  40.6284997   3.6709988
  46.7430012  42.1084997   3.4559988  46.8131829  41.2987985   3.1445940
  48.6750012  56.2234997   1.3839988  49.5410012  56.5894997   1.2059988
  48.4280012  55.7834997   0.5699988  48.7602392  56.2141756   1.2496289
  55.3840012  55.7864997   4.0629988  55.1890012  55.0384997   3.4979988
  55.3450012  56.5444997   3.4799988  55.3520380  55.7866099   3.9068384
  41.0310012  39.7814997  15.8029988  40.6650012  39.0164997  16.2459988
  41.9440012  39.8104997  16.0899988  41.1042790  39.6807224  15.9024070
  43.0040012  39.1324997  17.3389988  43.9020012  38.8584997  17.1539988
  42.6170012  38.3894997  17.8029988  43.0746612  38.9945914  17.3763643
  41.6280012  55.9334997   0.0119988  41.3610012  56.2204997   0.8849988
  42.4000012  55.3874997   0.1639988  41.6957488  55.8990294   0.1521050
  51.4250012  38.4644997  17.5209988  51.5020012  38.0384997  18.3749988
  52.3190012  38.4784997  17.1779988  51.5563428  38.4080879  17.5915310
  54.6010012  54.5374997  16.2129988  53.8190012  54.3514997  15.6939988
  54.5290012  55.4664997  16.4309988  54.4841777  54.6376492  16.1714048
  69.0070012  48.4234997   6.2439988  69.0960012  49.3674997   6.1119988
  68.3690012  48.1484997   5.5859988  68.9329081  48.5154830   6.1369614
  67.9400012  47.6784997   9.6629988  67.9020012  47.0324997  10.3679988
  67.6180012  47.2124997   8.8919988  67.8912333  47.5269408   9.6552978
  60.3090012  47.2934997  11.2559988  60.3500012  46.6674997  11.9789988
  61.0120012  47.9174997  11.4379988  60.4096363  47.2921196  11.3796044
  71.6460012  50.6174997   7.9639988  71.2060012  49.8974997   8.4149988
  71.6330012  51.3384997   8.5939988  71.5840226  50.6163731   8.1108494
  61.2320012  51.7434997   9.7909988  60.8630012  50.9414997   9.4209988
  62.1730012  51.5744997   9.8369988  61.3087289  51.6110153   9.7466316
  57.8420012  45.4034997   5.1839988  57.3950012  46.2494997   5.1649988
  57.2810012  44.8234997   4.6679988  57.7049900  45.4409916   5.1116801
  58.5530012  47.5654997   7.3099988  58.7660012  46.7954997   7.8369988
  59.2910012  47.6544997   6.7059988  58.6818496  47.4721394   7.3005300
  68.7580012  55.7224997   8.1769988  69.3780012  55.0454997   7.9029988
  68.5500012  55.5044997   9.0849988  68.8146904  55.6003870   8.2623365
  66.3300012  50.1114997  10.0689988  66.6340012  49.4254997   9.4739988
  67.0510012  50.2294997  10.6869988  66.4690671  50.0336305  10.0711816
  74.9930012  41.7124997  10.9299988  75.0420012  42.3224997  11.6659988
  75.4180012  42.1734997  10.2069988  75.0571824  41.8583741  10.9330205
  69.4710012  44.5054997  10.3969988  69.6130012  43.5594997  10.4169988
  69.3640012  44.7124997   9.4679988  69.4759863  44.4039534  10.2742339
  62.6250012  42.6064997   7.6689988  62.6690012  43.4664997   7.2509988
  62.1680012  42.0544997   7.0349988  62.5692185  42.6495799   7.5260299
  70.3480012  42.7374997   6.0699988  70.9940012  42.4084997   6.6949988
  70.8580012  43.2554997   5.4469988  70.5054264  42.7624611   6.0713862
  59.2460012  45.0034997   8.4309988  59.8990012  44.4534997   8.8629988
  59.2700012  44.7294997   7.5139988  59.3386683  44.8911466   8.3662123
  64.4020012  46.5534997   7.6459988  65.0180012  46.0274997   8.1559988
  63.8160012  45.9134997   7.2429988  64.4070810  46.3949208   7.6613173
  75.3840012  43.1904997  13.1659988  74.6960012  43.8484997  13.0699988
  75.4000012  42.9934997  14.1019988  75.2918525  43.2540462  13.2794808
  61.4360012  41.5244997  11.7429988  61.2170012  42.0544997  10.9769988
  60.7680012  41.7514997  12.3899988  61.3157600  41.6276906  11.7256379
  68.8050012  51.0244997   5.2869988  68.5090012  50.7024997   4.4359988
  68.4800012  51.9244997   5.3279988  68.7206371  51.1020215   5.1761801
  64.0050012  49.2004997  12.0299988  63.2650012  49.7984997  12.1339988
  64.7190012  49.7544997  11.7149988  64.0002237  49.3572831  12.0016465
  72.1120012  42.0284997   8.0499988  71.8960012  41.2624997   8.5829988
  72.7670012  42.5004997   8.5629988  72.1710632  41.9875889   8.1922861
  61.0290012  43.4164997   9.6949988  61.6430012  44.0494997  10.0689988
  61.5410012  42.9444997   9.0389988  61.1822296  43.4392370   9.6574252
  62.4120012  51.1644997  12.8179988  62.4070012  52.0444997  12.4399988
  61.5590012  51.0814997  13.2429988  62.2959464  51.2736117  12.8237907
  58.5330012  50.8354997   3.5999988  58.2610012  51.0644997   2.7109988
  58.5790012  51.6734997   4.0599988  58.5020094  50.9801213   3.5405697
  72.1580012  52.4574997  10.3119988  71.2170012  52.5154997  10.4739988
  72.4350012  53.3634997  10.1749988  72.0664679  52.5879443  10.3156815
  72.4590012  40.7434997  11.7299988  71.7230012  41.3544997  11.6919988
  73.1420012  41.1584997  11.2029988  72.4506541  40.8831374  11.6535832
  65.4620012  38.8304997   9.1959988  65.3450012  37.8814997   9.1409988
  64.6070012  39.1624997   9.4689988  65.3303733  38.7455409   9.2253897
  70.4100012  54.2384997   6.9379988  70.8360012  53.5314997   6.4529988
  70.7270012  55.0394997   6.5209988  70.5111019  54.2500994   6.8153130
  71.5700012  52.1394997   5.4459988  71.3120012  51.4494997   4.8349988
  71.6410012  51.6964997   6.2919988  71.5442856  51.9852124   5.4766885
  73.2560012  50.7054997  13.9239988  73.3960012  50.1144997  13.1839988
  73.4230012  51.5784997  13.5669988  73.2976778  50.7426426  13.7746965
  67.7290012  47.6674997   3.6959988  67.0170012  48.2024997   3.3439988
  68.4200012  47.7234997   3.0359988  67.7250132  47.7482543   3.5586289
  67.7820012  46.1254997   0.7349988  68.4830012  46.1474997   1.3859988
  68.0850012  45.4974997   0.0789988  67.9187830  46.0436566   0.7353711
  75.0980012  47.0454997  11.9899988  74.4450012  47.7404997  12.0789988
  75.5630012  47.2554997  11.1799988  75.0715390  47.1689425  11.8926883
  71.1340012  47.8774997   4.6479988  70.4020012  48.1054997   5.2209988
  71.5820012  47.1634997   5.1029988  71.0943095  47.8122571   4.7879119
  71.0320012  46.0514997  13.7149988  71.1120012  46.8144997  14.2869988
  70.4300012  46.3304997  13.0249988  70.9615756  46.1937134  13.7000589
  62.7800012  48.5074997   6.5299988  62.4490012  48.1374997   5.7119988
  63.3680012  47.8374997   6.8769988  62.8141873  48.3661156   6.4648102
  64.1460012  51.9354997   9.2119988  64.0520012  51.3574997   8.4549988
  64.8760012  51.5644997   9.7079988  64.2317981  51.8062390   9.1754165
  63.1460012  47.2764997  10.1639988  63.7120012  47.3974997   9.4009988
  63.4650012  47.9134997  10.8029988  63.2665786  47.3791884  10.1460040
  69.4550012  52.7794997  10.8979988  69.2150012  53.4414997  11.5459988
  69.2570012  51.9454997  11.3229988  69.3953808  52.7573134  11.0441524
  64.0260012  51.6754997  14.8809988  63.7150012  52.4574997  15.3359988
  63.3760012  51.5224997  14.1949988  63.8955558  51.7619105  14.8505871
  70.0050012  47.0394997   2.3329988  70.5850012  47.1894997   3.0799988
  70.4190012  47.5104997   1.6099988  70.1402830  47.1236841   2.3374134
  60.9460012  47.8734997  14.1099988  61.0170012  48.5244997  14.8079988
  60.0560012  47.9764997  13.7749988  60.8353117  47.9765936  14.1602700
  67.7320012  53.7764997   5.7679988  68.2060012  54.0714997   6.5459988
  67.1690012  54.5144997   5.5349988  67.7207653  53.9166932   5.8430136
  62.2660012  53.7474997  15.6439988  62.2730012  53.6114997  14.6969988
  61.3500012  53.6294997  15.8959988  62.1431714  53.7129430  15.5484666
  73.7040012  38.7894997   2.1459988  72.8040012  38.9284997   2.4409988
  73.9560012  39.6204997   1.7439988  73.6148702  38.9209074   2.1320205
  61.7700012  47.5774997   4.1199988  61.4780012  48.3454997   3.6289988
  61.0960012  46.9174997   3.9569988  61.6389081  47.5934406   4.0307340
  74.8930012  53.1554997   0.5219988  74.9670012  54.0944997   0.6929988
  75.7990012  52.8504997   0.4659988  75.0255100  53.2426722   0.5378119
  57.8630012  49.9404997  12.9349988  57.3620012  49.9124997  12.1199988
  57.8680012  49.0344997  13.2439988  57.7951526  49.8142278  12.8652872
  57.6130012  52.7204997   9.8189988  58.5590012  52.5764997   9.7999988
  57.5010012  53.5044997  10.3559988  57.7272727  52.8068046   9.8890072
  75.8110012  53.3864997  15.5009988  75.7620012  52.4314997  15.4639988
  74.9840012  53.6544997  15.9019988  75.6924940  53.2918998  15.5501375
  66.7900012  52.9604997  14.3769988  66.8770012  53.7864997  14.8519988
  65.9260012  52.6304997  14.6259988  66.6851964  53.0289878  14.4756549
  67.2040012  56.7324997   4.1829988  67.1290012  56.6114997   3.2369988
  67.2370012  57.6824997   4.3019988  67.1981848  56.8442500   4.0694834
  60.8570012  55.5214997   5.9639988  61.0100012  55.1734997   6.8429988
  60.0070012  55.1654997   5.7089988  60.7628962  55.4256650   6.0498340
  70.3060012  55.8864997   1.1849988  70.6810012  55.1424997   0.7149988
  70.3100012  55.6164997   2.1039988  70.3578915  55.7481486   1.2447824
  69.9750012  55.8124997   3.9349988  69.0390012  55.9124997   4.1129988
  70.2550012  55.1034997   4.5129988  69.8848255  55.7302711   4.0375391
  72.9630012  44.8794997  15.9809988  72.5560012  45.3604997  15.2599988
  73.0040012  43.9744997  15.6729988  72.9128437  44.8229374  15.8406683
  60.1120012  51.2634997  13.9779988  60.3280012  50.9024997  14.8369988
  59.2570012  50.8894997  13.7679988  60.0259292  51.1634111  14.0673386
  62.7310012  39.7334997   9.9729988  61.8690012  39.6464997   9.5659988
  62.7080012  40.5894997  10.4009988  62.6100330  39.8372765   9.9751863
  67.3940012  39.4554997  13.3479988  67.8140012  39.0404997  14.1009988
  66.4610012  39.2774997  13.4649988  67.3253644  39.3745900  13.4669539
  70.7200012  43.2114997  14.2009988  70.2060012  43.0854997  14.9989988
  70.5650012  44.1234997  13.9569988  70.6286852  43.3176132  14.2772158
  71.4830012  48.0724997  -0.0370012  71.5250012  47.8494997  -0.9670012
  72.3320012  48.4714997   0.1529988  71.6035396  48.0959155  -0.1386373
  67.0550012  41.9484997   0.6329988  66.8020012  41.9674997   1.5559988
  66.7990012  41.0764997   0.3319988  66.9857790  41.8332437   0.7186263
  62.8220012  44.6994997  11.0679988  62.1800012  44.6584997  11.7769988
  62.8590012  45.6254997  10.8309988  62.7391324  44.8191559  11.1329824
  62.8190012  44.9204997   5.9799988  61.9260012  44.5794997   5.9219988
  63.2690012  44.5434997   5.2249988  62.7577305  44.8228484   5.8699177
  68.3540012  45.3364997   4.7969988  67.9450012  46.1514997   4.5059988
  69.0750012  45.1964997   4.1829988  68.3954537  45.4292018   4.6741342
  67.4560012  45.5114997  16.2849988  66.8940012  44.8074997  16.6059988
  68.2830012  45.3914997  16.7529988  67.4907095  45.3987883  16.3922330
  69.3590012  44.7824997   7.6109988  69.1640012  45.3874997   6.8959988
  69.5400012  43.9484997   7.1769988  69.3567614  44.7526300   7.4544405
  60.5720012  45.0194997  12.9349988  60.5340012  45.4194997  13.8039988
  60.0810012  44.2024997  13.0259988  60.5004684  44.9638069  13.0661059
  63.9380012  42.3934997  -0.2660012  63.5070012  41.9484997   0.4639988
  63.2200012  42.7654997  -0.7780012  63.7819438  42.3828940  -0.2353201
  57.1800012  42.1354997   6.7859988  57.8110012  42.1064997   7.5049988
  57.6290012  41.7104997   6.0559988  57.3270774  42.0740492   6.7856553
  58.4540012  42.8814997   2.2099988  58.9280012  43.4724997   1.6249988
  57.7370012  43.4124997   2.5569988  58.4219341  43.0340867   2.1768836
  68.6230012  46.4204997  12.2829988  68.9460012  45.7894997  11.6399988
  68.1830012  45.8854997  12.9429988  68.6076895  46.2618441  12.2842850
  65.4000012  42.3474997   7.0669988  64.4890012  42.4044997   7.3549988
  65.9060012  42.2874997   7.8769988  65.3435413  42.3471985   7.2160622
  60.2290012  43.9764997   5.8929988  59.3390012  44.0764997   5.5529988
  60.5250012  43.1344997   5.5469988  60.1472823  43.8763545   5.7997213
  63.8820012  43.9764997   3.5499988  64.8130012  44.1054997   3.7279988
  63.6670012  44.6464997   2.8999988  63.9804247  44.0846565   3.4865747
  69.8050012  41.5824997  10.3309988  69.1290012  41.7134997  10.9949988
  69.3200012  41.4274997   9.5209988  69.6467145  41.5794905  10.3124517
  62.5560012  45.1714997   1.1169988  62.0130012  44.7914997   0.4249988
  63.3890012  45.3654997   0.6879988  62.5944399  45.1458124   0.9644526
  73.0930012  57.2544997  16.6079988  73.2930012  57.6784997  15.7729988
  73.7480012  57.5974997  17.2149988  73.2090051  57.3589648  16.5757836
  60.6910012  49.7284997  16.2159988  61.4230012  49.9824997  16.7769988
  59.9110012  49.9324997  16.7309988  60.6858232  49.7909177  16.3625760
  66.7200012  45.1354997   8.9539988  67.2850012  44.5884997   8.4069988
  66.5730012  44.6134997   9.7419988  66.7772918  44.9902024   8.9858454
  61.7220012  41.2714997   5.3719988  61.4050012  40.3694997   5.3369988
  62.5040012  41.2734997   4.8189988  61.7842284  41.1481628   5.2924783
  65.3470012  43.5234997  11.3679988  64.5110012  43.9774997  11.4779988
  65.8710012  43.7994997  12.1199988  65.3034414  43.6229376  11.4847136
  65.8910012  49.7364997   3.0519988  65.1460012  49.2294997   2.7299988
  65.7570012  49.7854997   3.9989988  65.7708776  49.6736940   3.1358647
  73.0410012  48.8694997  11.8389988  73.6830012  49.3264997  11.2949988
  72.2110012  48.9824997  11.3759988  73.0165963  48.9472704  11.7020177
  69.7890012  42.5504997   1.2519988  68.8500012  42.6624997   1.0999988
  70.0860012  43.4074997   1.5579988  69.7007666  42.6816443   1.2725768
  67.4100012  49.9204997  14.2889988  67.0650012  49.5394997  15.0959988
  67.2100012  50.8544997  14.3609988  67.3358061  49.9945228  14.4090961
  70.5070012  44.4174997   2.9119988  71.3990012  44.2804997   3.2309988
  70.5640012  45.2084997   2.3759988  70.6366285  44.5056660   2.8831691
  61.0160012  49.0314997   8.8219988  61.7610012  49.0294997   8.2209988
  61.0940012  48.2084997   9.3039988  61.1285518  48.9199315   8.8048929
  68.0170012  51.1954997   2.0779988  67.7210012  52.0214997   2.4589988
  67.3140012  50.5754997   2.2739988  67.8814914  51.2248199   2.1566443
  58.0240012  47.4924997  14.1369988  58.2470012  47.0744997  14.9689988
  57.4220012  46.8794997  13.7139988  57.9731759  47.3524668  14.1937022
  65.0400012  47.0094997  16.3499988  64.7440012  46.8434997  15.4549988
  65.9720012  46.7894997  16.3389988  65.1254166  46.9570640  16.2260536
  69.6610012  52.3824997  14.2399988  68.7600012  52.5654997  13.9719988
  69.6950012  52.6414997  15.1609988  69.5423041  52.4425512  14.3278197
  75.3920012  44.6274997   2.6069988  74.8380012  44.2314997   1.9349988
  75.4920012  45.5374997   2.3289988  75.3297059  44.6963586   2.4774401
  75.3550012  50.4274997  15.4439988  74.5040012  50.6654997  15.0769988
  75.9460012  50.4104997  14.6909988  75.3182487  50.4578258  15.2918893
  73.6870012  53.4134997   3.0719988  73.3140012  52.5874997   3.3809988
  73.9650012  53.2304997   2.1749988  73.6735630  53.2757303   2.9929626
  70.8480012  48.2214997  10.0929988  69.9190012  47.9894997  10.0659988
  71.2990012  47.4444997   9.7629988  70.7819216  48.0847238  10.0446917
  63.3910012  52.5494997   6.2259988  63.9180012  53.3224997   6.0259988
  62.5110012  52.7744997   5.9249988  63.3441773  52.6858005   6.1579010
  59.1460012  47.4114997   0.8129988  59.7620012  48.0384997   1.1929988
  58.2840012  47.7274997   1.0849988  59.1137698  47.5399430   0.9017183
  64.8180012  50.2124997   5.8029988  64.5770012  51.1374997   5.8439988
  64.0770012  49.7534997   6.1989988  64.6848409  50.2771421   5.8621377
  65.3330012  54.3614997  12.1179988  65.6950012  55.2164997  11.8839988
  65.8640012  54.0694997  12.8579988  65.4544473  54.4391060  12.1860855
  63.5010012  55.2344997   5.3479988  62.5510012  55.3394997   5.3989988
  63.8530012  56.0544997   5.6929988  63.4184203  55.3598314   5.4016650
  68.8770012  50.4604997  11.8179988  68.4510012  50.2334997  12.6449988
  69.4570012  49.7224997  11.6359988  68.8971868  50.3295299  11.9065830
  71.0800012  51.3894997   0.8919988  71.4330012  51.0094997   1.6969988
  70.1310012  51.2964997   0.9789988  71.0000441  51.3249596   1.0138559
  71.5350012  55.0124997  14.2879988  70.9340012  54.4574997  13.7919988
  71.8170012  55.6794997  13.6619988  71.4908519  55.0266841  14.1354952
  75.5830012  55.8694997   1.0929988  76.3270012  56.4554997   0.9529988
  74.8890012  56.4374997   1.4269988  75.5910292  56.0265582   1.1189961
  59.6580012  42.2454997  13.6949988  58.7650012  42.5844997  13.6269988
  59.5590012  41.3904997  14.1129988  59.5224164  42.1762588  13.7422235
  71.9460012  50.0624997   3.1189988  71.6680012  49.3344997   3.6749988
  72.8730012  50.1814997   3.3239988  72.0333124  49.9788802   3.2228845
  59.3090012  54.0504997  12.1299988  59.5260012  53.1184997  12.0989988
  59.5550012  54.3244997  13.0129988  59.3719549  53.9600636  12.2451763
  65.1710012  52.5014997  -0.6610012  65.4100012  51.7534997  -1.2080012
  64.9020012  52.1134997   0.1719988  65.1673675  52.3466638  -0.6233135
  64.1080012  52.0714997   1.7959988  64.2540012  51.5514997   2.5859988
  64.1050012  52.9784997   2.1019988  64.1275989  52.1228853   1.9456088
  60.5610012  49.3244997   2.3059988  59.8750012  49.6764997   2.8729988
  61.0830012  50.0874997   2.0589988  60.5376852  49.4758578   2.3502118
  68.3920012  41.9864997  12.5849988  69.0910012  42.0604997  13.2349988
  68.0110012  41.1224997  12.7389988  68.4361767  41.8797624  12.6948322
  69.1770012  41.6384997   3.6819988  69.3970012  42.1104997   2.8789988
  69.7350012  42.0334997   4.3519988  69.2824968  41.7564285   3.6627331
  66.8450012  53.7694997   2.5449988  66.0290012  54.2664997   2.5969988
  67.3750012  54.2444997   1.9049988  66.8049161  53.9017722   2.4655956
  66.3770012  43.3664997   4.5169988  67.1890012  43.8714997   4.5629988
  66.1320012  43.2214997   5.4309988  66.4550520  43.4160375   4.6468517
  66.9120012  44.3524997  13.7019988  67.0310012  44.9264997  14.4589988
  67.5680012  43.6644997  13.8159988  67.0169757  44.3381079  13.8210825
  67.2600012  40.4474997   5.4549988  66.9140012  41.0654997   6.0999988
  67.9190012  40.9484997   4.9739988  67.3017826  40.5995802   5.4780971
  64.1840012  54.8134997   2.5269988  64.3440012  55.6124997   2.0259988
  63.9860012  55.1194997   3.4119988  64.1791649  54.9644469   2.5779815
  62.9180012  41.5104997   2.1419988  62.8350012  42.3994997   2.4889988
  63.8080012  41.2454997   2.3739988  63.0269469  41.5961430   2.2207626
  73.1170012  42.2594997  14.5369988  72.2000012  42.5224997  14.4489988
  73.4520012  42.2564997  13.6399988  73.0369900  42.2950224  14.4037919
  71.7190012  46.0104997   8.6319988  70.9210012  45.5954997   8.3039988
  72.1640012  45.3194997   9.1229988  71.6699885  45.8603543   8.6534889
  61.1770012  51.9384997   1.2029988  61.7690012  52.6374997   1.4789988
  61.6360012  51.5054997   0.4829988  61.3201142  51.9757049   1.1434830
  59.4930012  44.6024997   0.3189988  59.4480012  45.5414997   0.4969988
  58.6050012  44.3664997   0.0489988  59.3668574  44.6991892   0.3068912
  72.8050012  55.2664997  10.2549988  72.6500012  55.9444997   9.5979988
  73.7380012  55.3384997  10.4579988  72.9098500  55.3690170  10.1925119
  60.3010012  39.3844997   8.9919988  60.0720012  39.4434997   8.0639988
  59.8580012  38.5924997   9.2979988  60.2098530  39.2855753   8.9064786
  59.2310012  53.3244997   5.1519988  58.3990012  53.7974997   5.1799988
  59.7770012  53.8344997   4.5539988  59.1909739  53.4581871   5.0749716
  58.5190012  55.9374997  16.4819988  59.0600012  55.7204997  17.2419988
  58.0380012  55.1314997  16.2929988  58.5279345  55.7989514  16.5603076
  63.1170012  54.8564997  18.1029988  63.8840012  54.3974997  18.4439988
  63.0950012  54.6304997  17.1729988  63.2191434  54.7630409  18.0240043
  67.2090012  54.3644997  -0.5220012  66.5650012  53.7334997  -0.2010012
  67.9710012  53.8334997  -0.7540012  67.2238077  54.2062920  -0.5093989
  69.6940012  53.2364997  16.8319988  69.3430012  52.3804997  17.0749988
  70.4200012  53.3794997  17.4389988  69.7440769  53.1385636  16.9473619
  71.8130012  54.1814997  -0.2880012  72.0960012  53.3874997   0.1639988
  72.5530012  54.4144997  -0.8490012  71.9517486  54.1042803  -0.3019302
  58.4260012  49.7474997  17.4369988  58.5700012  48.8454997  17.1499988
  57.6540012  50.0334997  16.9489988  58.3413322  49.6628261  17.3317881
  62.7680012  50.0914997  -0.4310012  62.8320012  49.2974997   0.0999988
  63.4210012  49.9724997  -1.1210012  62.8650241  49.9667148  -0.4515683
  65.0820012  49.7174997  16.8689988  64.7530012  49.9884997  16.0119988
  65.2340012  48.7764997  16.7819988  65.0574809  49.6273862  16.7398244
  68.1200012  51.1384997  -0.6950012  67.8510012  51.3184997   0.2059988
  67.9140012  50.2124997  -0.8260012  68.0553825  51.0380152  -0.5894786
  70.8160012  49.6334997  14.2529988  71.5620012  50.2214997  14.1329988
  70.0590012  50.2154997  14.3159988  70.8157554  49.7927011  14.2450907
  59.2590012  46.9474997  16.8569988  59.6670012  46.0904997  16.7359988
  58.9990012  46.9624997  17.7779988  59.2797568  46.8320807  16.9649588
  63.9170012  48.0634997   1.8749988  63.4570012  47.5794997   2.5609988
  64.1720012  47.3954997   1.2389988  63.8884902  47.9068731   1.8829334
  63.2060012  45.9564997  14.2309988  62.5880012  46.6314997  14.5109988
  63.5500012  46.2774997  13.3979988  63.1679615  46.0922721  14.1566581
  64.9880012  46.3064997   0.1369988  64.8080012  46.1524997  -0.7900012
  65.9380012  46.4144997   0.1819988  65.0917776  46.3000175   0.0161843
  68.2260012  48.4284997  17.5079988  69.1790012  48.5114997  17.4809988
  68.0650012  47.7164997  18.1279988  68.3346426  48.3436746  17.5880579
  74.3780012  48.6614997  -0.4170012  74.1040012  48.2364997  -1.2300012
  74.4170012  49.5924997  -0.6340012  74.3457699  48.7292484  -0.5576390
  63.5450012  43.3114997  15.3129988  63.6950012  42.5824997  14.7109988
  63.5480012  44.0884997  14.7539988  63.5659302  43.3167851  15.1550692
  63.9580012  41.6814997  12.8059988  64.4940012  42.1324997  12.1539988
  63.1060012  41.5734997  12.3829988  63.9162178  41.7286390  12.6595756
  65.5400012  47.1204997  13.0449988  66.2900012  46.9644997  12.4719988
  65.2010012  47.9724997  12.7699988  65.5968921  47.2142968  12.9293561
  69.9550012  44.9354997  18.0739988  70.1480012  44.0044997  17.9619988
  70.8130012  45.3604997  18.0639988  70.0973020  44.8656389  18.0573361
  71.2720012  47.7244997  16.1509988  70.9910012  48.4334997  15.5739988
  72.2150012  47.6514997  15.9999988  71.3609027  47.8117646  16.0515551
  62.0240012  44.5094997  17.2249988  61.2570012  43.9774997  17.0149988
  62.7030012  44.1994997  16.6249988  62.0107022  44.3947506  17.1151648
  64.7640012  39.1374997  13.2369988  64.6650012  40.0844997  13.1319988
  64.0210012  38.7654997  12.7619988  64.6500563  39.2165902  13.1584560
  66.0280012  43.4594997  16.8009988  65.7920012  43.2394997  17.7029988
  65.2440012  43.2524997  16.2909988  65.8898628  43.4014760  16.8553932
  68.7430012  42.5864997  15.8769988  67.7960012  42.6184997  16.0089988
  69.0560012  41.9614997  16.5299988  68.6555475  42.5063207  15.9834455
  70.3770012  41.2204997  17.8819988  70.2810012  40.2684997  17.8759988
  70.0560012  41.4894997  18.7419988  70.3204070  41.1264035  17.9975441
  60.2040012  42.4304997  16.9289988  60.4160012  41.7234997  16.3189988
  60.0930012  41.9924997  17.7729988  60.2179721  42.2747084  16.9596843
  64.9850012  38.4314997  15.9089988  65.6970012  37.7914997  15.8949988
  64.8840012  38.6984997  14.9949988  65.0687939  38.3799938  15.7835650
  65.3390012  40.1144997  17.9619988  65.2070012  39.6384997  17.1419988
  64.7400012  40.8584997  17.9069988  65.2399071  40.1499618  17.8422886
  64.8850012  56.9974997   1.1389988  65.8180012  57.1554997   1.2819988
  64.6210012  57.6724997   0.5139988  64.9769510  57.1103611   1.0740741
  58.4540012  51.6334997   0.6209988  59.3680012  51.7124997   0.8949988
  58.4610012  50.9464997  -0.0450012  58.5801131  51.5513961   0.5684393
  57.1030012  57.0264997   5.6989988  56.4560012  56.5644997   5.1659988
  57.4570012  56.3544997   6.2809988  57.0623849  56.8724723   5.7047959
  57.9730012  55.1074997   7.5029988  57.6380012  54.2274997   7.6749988
  58.1950012  55.4524997   8.3679988  57.9571783  55.0337500   7.6434208
  75.5210012  55.9164997  10.4839988  75.5000012  56.1014997  11.4229988
  76.2120012  56.4854997  10.1429988  75.6114618  56.0186606  10.5663864
  75.0850012  55.4844997  13.4059988  74.5970012  54.7484997  13.0349988
  75.6340012  55.0904997  14.0839988  75.0924872  55.3306249  13.4469160
  73.5350012  51.2734997  18.0439988  72.6690012  51.1684997  18.4379988
  73.9120012  52.0324997  18.4899988  73.4673308  51.3616900  18.1582393
  74.8360012  49.5304997   3.5579988  75.6860012  49.9514997   3.6849988
  74.8420012  48.7904997   4.1649988  74.9531372  49.4880803   3.6574344
  75.2310012  47.5834997   5.3819988  74.5040012  47.1044997   5.7789988
  75.8120012  47.7894997   6.1139988  75.2099375  47.5457090   5.5354129
  74.9900012  50.3684997  10.3289988  75.8230012  49.9904997  10.0489988
  75.1020012  51.3114997  10.2099988  75.1192647  50.4442218  10.2745487
  73.4760012  53.2464997  12.6359988  72.8290012  53.5714997  13.2619988
  72.9590012  52.8064997  11.9619988  73.3174029  53.2315004  12.6305827
  75.4990012  47.4844997   1.7729988  74.9770012  47.8414997   1.0539988
  75.4660012  48.1594997   2.4509988  75.4231634  47.6245413   1.7663145
  73.8480012  44.7244997   0.3239988  73.9440012  45.3914997  -0.3570012
  73.7080012  43.9084997  -0.1580012  73.8422135  44.7054500   0.1658491
  73.0170012  46.1044997   5.9449988  72.8670012  45.1594997   5.9239988
  72.6640012  46.3854997   6.7879988  72.9486625  46.0130441   6.0562346
  58.0530012  48.1824997   9.9549988  58.2370012  48.1004997   9.0189988
  58.9020012  48.0584997  10.3789988  58.1930139  48.1545003   9.8841455
  73.8740012  48.0744997  15.5829988  74.4570012  47.3404997  15.7749988
  74.4380012  48.8464997  15.6299988  74.0299769  48.0784227  15.6156159
  75.3700012  45.9774997  16.2679988  74.5070012  45.5984997  16.1019988
  75.9750012  45.2384997  16.1939988  75.3335979  45.8258023  16.2352817
  73.0950012  42.1324997  -0.5590012  73.7060012  41.7614997   0.0779988
  72.2590012  41.7114997  -0.3630012  73.0655032  42.0247554  -0.4452965
  72.7280012  43.6874997   4.4069988  73.0080012  42.7804997   4.5309988
  73.4870012  44.1214997   4.0179988  72.8689277  43.6220942   4.3713682
  73.3400012  44.2684997   9.8429988  74.2730012  44.4804997   9.8089988
  73.1050012  44.3704997  10.7649988  73.4358036  44.3112769   9.9629976
  73.3690012  45.0054997  12.6189988  72.5260012  45.2734997  12.9849988
  73.8110012  45.8274997  12.4079988  73.3134158  45.1533291  12.6405491
  57.6500012  43.4534997  16.0959988  58.5700012  43.3314997  16.3319988
  57.2010012  42.7034997  16.4849988  57.7151580  43.3353727  16.1809006
  75.6520012  38.9854997  17.9719988  76.0020012  38.3314997  17.3669988
  75.7990012  39.8224997  17.5329988  75.7198419  39.0091591  17.8297118
  73.3410012  40.9504997   4.4549988  73.5240012  40.5014997   5.2809988
  72.7420012  40.3654997   3.9919988  73.2850202  40.8099975   4.5053275
  58.8710012  41.7654997   8.9869988  59.3170012  40.9734997   9.2889988
  59.3380012  42.4814997   9.4179988  58.9950172  41.7540624   9.0864820
  57.1750012  44.7644997  10.0559988  57.6670012  44.5434997   9.2649988
  57.5380012  45.6054997  10.3369988  57.2913126  44.8478357   9.9857531
  75.1720012  41.0944997  16.3219988  74.2540012  41.3654997  16.2859988
  75.2950012  40.5594997  15.5369988  75.0631066  41.0592892  16.2110487
  75.2080012  41.0174997   0.9829988  75.6200012  40.2964997   0.5079988
  75.8900012  41.6874997   1.0419988  75.3565885  41.0092368   0.9258915
  57.4890012  41.0224997   4.1099988  56.5640012  41.2314997   3.9809988
  57.9430012  41.5064997   3.4209988  57.4237368  41.1165993   3.9991226
  72.2600012  56.0064997   6.0559988  72.9120012  55.6594997   5.4479988
  72.7700012  56.4954997   6.7019988  72.4182637  56.0250597   6.0600236
  57.4530012  39.7604997  12.4549988  56.7880012  39.5144997  13.0979988
  57.0100012  40.3824997  11.8769988  57.3020956  39.8108632  12.4649352
  59.6450012  52.9354997  16.5989988  58.8240012  53.1104997  16.1389988
  59.3920012  52.8624997  17.5199988  59.4986164  52.9495622  16.6604923
  62.5990012  53.9104997  12.8579988  62.1740012  54.7194997  12.5749988
  63.5030012  53.9954997  12.5559988  62.6630271  54.0328469  12.7783776
  66.9100012  55.3094997  15.8169988  67.0950012  54.9754997  16.6949988
  67.7560012  55.6184997  15.4949988  67.0497539  55.3056047  15.8935605
  69.2550012  56.5954997  15.0609988  69.9320012  55.9624997  14.8209988
  69.5770012  56.9964997  15.8679988  69.3911637  56.5631154  15.1372793
  74.1720012  39.1844997  14.1409988  73.3600012  39.5094997  13.7529988
  74.4050012  38.4244997  13.6079988  74.0923423  39.1262436  14.0158253
  60.0010012  57.1664997  12.9049988  59.2800012  57.6064997  12.4539988
  59.6350012  56.9154997  13.7539988  59.8529804  57.1927698  12.9579840
  62.4680012  56.7664997  11.9349988  61.6030012  56.8384997  12.3389988
  62.4130012  57.3134997  11.1509988  62.3422085  56.8502685  11.8843362
  67.1780012  56.6544997  11.1099988  66.7220012  57.1834997  10.4559988
  67.3410012  57.2574997  11.8359988  67.1375585  56.8084468  11.1185062
  69.5060012  55.5324997  12.0549988  68.6010012  55.6974997  11.7899988
  69.9350012  56.3854997  11.9899988  69.4400799  55.6704483  12.0099182
  72.1100012  57.1024997  12.3499988  71.9280012  58.0184997  12.1399988
  72.2870012  56.6924997  11.5039988  72.1090210  57.1724822  12.2067885
  59.4150012  55.7894997   9.8149988  59.3970012  55.3644997  10.6729988
  60.2200012  55.4714997   9.4069988  59.5213875  55.6883812   9.8771655
  61.5570012  54.4994997   8.4699988  61.3380012  53.5834997   8.6399988
  62.3810012  54.6394997   8.9359988  61.6384420  54.3930520   8.5562774
  64.0940012  54.9694997   9.3189988  64.3070012  54.0814997   9.0319988
  64.1580012  54.9354997  10.2729988  64.1318232  54.8433102   9.4087397
  67.6020012  40.6334997   8.4629988  66.9280012  40.0044997   8.7189988
  68.1660012  40.1494997   7.8599988  67.5859230  40.4818744   8.4165340
  72.7450012  38.7414997   8.5759988  73.3490012  39.2884997   8.0739988
  71.8750012  39.0604997   8.3359988  72.7101241  38.8595806   8.4747654
  74.4720012  39.8794997   6.9089988  75.0840012  39.3654997   6.3829988
  74.8540012  40.7574997   6.9329988  74.6074540  39.9277140   6.8401830
  59.9290012  39.2674997   6.2849988  59.1520012  39.0334997   5.7779988
  60.4590012  38.4704997   6.2939988  59.8942330  39.1276988   6.2167742
  58.7650012  39.0654997   2.0889988  59.2040012  39.6764997   1.4969988
  58.1320012  39.6034997   2.5629988  58.7394514  39.2219257   2.0720930
  64.5080012  39.1944997   6.0989988  65.3830012  39.5824997   6.0689988
  64.3720012  38.9794997   7.0209988  64.6093695  39.2185184   6.2196440
  70.0650012  39.2244997   7.7479988  70.1410012  39.3194997   6.7979988
  69.7900012  38.3164997   7.8769988  70.0382321  39.1147867   7.6355079
  71.4180012  39.2504997   3.4399988  70.7160012  39.8654997   3.2309988
  70.9740012  38.4124997   3.5709988  71.2616330  39.2215783   3.4290328
  58.6660012  55.0134997   2.9869988  57.9810012  54.9754997   2.3189988
  58.6700012  55.9264997   3.2749988  58.5728193  55.1317016   2.9345284
  60.6260012  40.9814997   0.5309988  61.1180012  40.3514997   0.0039988
  61.2500012  41.2774997   1.1949988  60.7775446  40.9353199   0.5485980
  65.6520012  41.2744997   2.9879988  65.8300012  40.6284997   3.6709988
  65.5990012  42.1084997   3.4559988  65.6691829  41.2987985   3.1445940
  67.5310012  56.2234997   1.3839988  68.3970012  56.5894997   1.2059988
  67.2840012  55.7834997   0.5699988  67.6162392  56.2141756   1.2496289
  74.2400012  55.7864997   4.0629988  74.0450012  55.0384997   3.4979988
  74.2010012  56.5444997   3.4799988  74.2080380  55.7866099   3.9068384
  59.8870012  39.7814997  15.8029988  59.5210012  39.0164997  16.2459988
  60.8000012  39.8104997  16.0899988  59.9602790  39.6807224  15.9024070
  61.8600012  39.1324997  17.3389988  62.7580012  38.8584997  17.1539988
  61.4730012  38.3894997  17.8029988  61.9306612  38.9945914  17.3763643
  60.4840012  55.9334997   0.0119988  60.2170012  56.2204997   0.8849988
  61.2560012  55.3874997   0.1639988  60.5517488  55.8990294   0.1521050
  70.2810012  38.4644997  17.5209988  70.3580012  38.0384997  18.3749988
  71.1750012  38.4784997  17.1779988  70.4123428  38.4080879  17.5915310
  73.4570012  54.5374997  16.2129988  72.6750012  54.3514997  15.6939988
  73.3850012  55.4664997  16.4309988  73.3401777  54.6376492  16.1714048
  87.8630012  48.4234997   6.2439988  87.9520012  49.3674997   6.1119988
  87.2250012  48.1484997   5.5859988  87.7889081  48.5154830   6.1369614
  86.7960012  47.6784997   9.6629988  86.7580012  47.0324997  10.3679988
  86.4740012  47.2124997   8.8919988  86.7472333  47.5269408   9.6552978
  79.1650012  47.2934997  11.2559988  79.2060012  46.6674997  11.9789988
  79.8680012  47.9174997  11.4379988  79.2656363  47.2921196  11.3796044
  90.5020012  50.6174997   7.9639988  90.0620012  49.8974997   8.4149988
  90.4890012  51.3384997   8.5939988  90.4400226  50.6163731   8.1108494
  80.0880012  51.7434997   9.7909988  79.7190012  50.9414997   9.4209988
  81.0290012  51.5744997   9.8369988  80.1647289  51.6110153   9.7466316
  76.6980012  45.4034997   5.1839988  76.2510012  46.2494997   5.1649988
  76.1370012  44.8234997   4.6679988  76.5609900  45.4409916   5.1116801
  77.4090012  47.5654997   7.3099988  77.6220012  46.7954997   7.8369988
  78.1470012  47.6544997   6.7059988  77.5378496  47.4721394   7.3005300
  87.6140012  55.7224997   8.1769988  88.2340012  55.0454997   7.9029988
  87.4060012  55.5044997   9.0849988  87.6706904  55.6003870   8.2623365
  85.1860012  50.1114997  10.0689988  85.4900012  49.4254997   9.4739988
  85.9070012  50.2294997  10.6869988  85.3250671  50.0336305  10.0711816
  93.8490012  41.7124997  10.9299988  93.8980012  42.3224997  11.6659988
  94.2740012  42.1734997  10.2069988  93.9131824  41.8583741  10.9330205
  88.3270012  44.5054997  10.3969988  88.4690012  43.5594997  10.4169988
  88.2200012  44.7124997   9.4679988  88.3319864  44.4039534  10.2742339
  81.4810012  42.6064997   7.6689988  81.5250012  43.4664997   7.2509988
  81.0240012  42.0544997   7.0349988  81.4252185  42.6495799   7.5260299
  89.2040012  42.7374997   6.0699988  89.8500012  42.4084997   6.6949988
  89.7140012  43.2554997   5.4469988  89.3614264  42.7624611   6.0713862
  78.1020012  45.0034997   8.4309988  78.7550012  44.4534997   8.8629988
  78.1260012  44.7294997   7.5139988  78.1946683  44.8911466   8.3662123
  83.2580012  46.5534997   7.6459988  83.8740012  46.0274997   8.1559988
  82.6720012  45.9134997   7.2429988  83.2630810  46.3949208   7.6613173
  94.2400012  43.1904997  13.1659988  93.5520012  43.8484997  13.0699988
  94.2560012  42.9934997  14.1019988  94.1478525  43.2540462  13.2794808
  80.2920012  41.5244997  11.7429988  80.0730012  42.0544997  10.9769988
  79.6240012  41.7514997  12.3899988  80.1717600  41.6276906  11.7256379
  87.6610012  51.0244997   5.2869988  87.3650012  50.7024997   4.4359988
  87.3360012  51.9244997   5.3279988  87.5766371  51.1020215   5.1761801
  82.8610012  49.2004997  12.0299988  82.1210012  49.7984997  12.1339988
  83.5750012  49.7544997  11.7149988  82.8562237  49.3572831  12.0016465
  90.9680012  42.0284997   8.0499988  90.7520012  41.2624997   8.5829988
  91.6230012  42.5004997   8.5629988  91.0270632  41.9875889   8.1922861
  79.8850012  43.4164997   9.6949988  80.4990012  44.0494997  10.0689988
  80.3970012  42.9444997   9.0389988  80.0382296  43.4392370   9.6574252
  81.2680012  51.1644997  12.8179988  81.2630012  52.0444997  12.4399988
  80.4150012  51.0814997  13.2429988  81.1519464  51.2736117  12.8237907
  77.3890012  50.8354997   3.5999988  77.1170012  51.0644997   2.7109988
  77.4350012  51.6734997   4.0599988  77.3580094  50.9801213   3.5405697
  91.0140012  52.4574997  10.3119988  90.0730012  52.5154997  10.4739988
  91.2910012  53.3634997  10.1749988  90.9224679  52.5879443  10.3156815
  91.3150012  40.7434997  11.7299988  90.5790012  41.3544997  11.6919988
  91.9980012  41.1584997  11.2029988  91.3066541  40.8831374  11.6535832
  84.3180012  38.8304997   9.1959988  84.2010012  37.8814997   9.1409988
  83.4630012  39.1624997   9.4689988  84.1863733  38.7455409   9.2253897
  89.2660012  54.2384997   6.9379988  89.6920012  53.5314997   6.4529988
  89.5830012  55.0394997   6.5209988  89.3671019  54.2500994   6.8153130
  90.4260012  52.1394997   5.4459988  90.1680012  51.4494997   4.8349988
  90.4970012  51.6964997   6.2919988  90.4002856  51.9852124   5.4766885
  92.1120012  50.7054997  13.9239988  92.2520012  50.1144997  13.1839988
  92.2790012  51.5784997  13.5669988  92.1536778  50.7426426  13.7746965
  86.5850012  47.6674997   3.6959988  85.8730012  48.2024997   3.3439988
  87.2760012  47.7234997   3.0359988  86.5810132  47.7482543   3.5586289
  86.6380012  46.1254997   0.7349988  87.3390012  46.1474997   1.3859988
  86.9410012  45.4974997   0.0789988  86.7747830  46.0436566   0.7353711
  93.9540012  47.0454997  11.9899988  93.3010012  47.7404997  12.0789988
  94.4190012  47.2554997  11.1799988  93.9275390  47.1689425  11.8926883
  89.9900012  47.8774997   4.6479988  89.2580012  48.1054997   5.2209988
  90.4380012  47.1634997   5.1029988  89.9503095  47.8122571   4.7879119
  89.8880012  46.0514997  13.7149988  89.9680012  46.8144997  14.2869988
  89.2860012  46.3304997  13.0249988  89.8175756  46.1937134  13.7000589
  81.6360012  48.5074997   6.5299988  81.3050012  48.1374997   5.7119988
  82.2240012  47.8374997   6.8769988  81.6701873  48.3661156   6.4648102
  83.0020012  51.9354997   9.2119988  82.9080012  51.3574997   8.4549988
  83.7320012  51.5644997   9.7079988  83.0877981  51.8062390   9.1754165
  82.0020012  47.2764997  10.1639988  82.5680012  47.3974997   9.4009988
  82.3210012  47.9134997  10.8029988  82.1225786  47.3791884  10.1460040
  88.3110012  52.7794997  10.8979988  88.0710012  53.4414997  11.5459988
  88.1130012  51.9454997  11.3229988  88.2513808  52.7573134  11.0441524
  82.8820012  51.6754997  14.8809988  82.5710012  52.4574997  15.3359988
  82.2320012  51.5224997  14.1949988  82.7515558  51.7619105  14.8505871
  88.8610012  47.0394997   2.3329988  89.4410012  47.1894997   3.0799988
  89.2750012  47.5104997   1.6099988  88.9962830  47.1236841   2.3374134
  79.8020012  47.8734997  14.1099988  79.8730012  48.5244997  14.8079988
  78.9120012  47.9764997  13.7749988  79.6913117  47.9765936  14.1602700
  86.5880012  53.7764997   5.7679988  87.0620012  54.0714997   6.5459988
  86.0250012  54.5144997   5.5349988  86.5767653  53.9166932   5.8430136
  81.1220012  53.7474997  15.6439988  81.1290012  53.6114997  14.6969988
  80.2060012  53.6294997  15.8959988  80.9991714  53.7129430  15.5484666
  92.5600012  38.7894997   2.1459988  91.6600012  38.9284997   2.4409988
  92.8120012  39.6204997   1.7439988  92.4708702  38.9209074   2.1320205
  80.6260012  47.5774997   4.1199988  80.3340012  48.3454997   3.6289988
  79.9520012  46.9174997   3.9569988  80.4949081  47.5934406   4.0307340
  93.7490012  53.1554997   0.5219988  93.8230012  54.0944997   0.6929988
  94.6550012  52.8504997   0.4659988  93.8815100  53.2426722   0.5378119
  76.7190012  49.9404997  12.9349988  76.2180012  49.9124997  12.1199988
  76.7240012  49.0344997  13.2439988  76.6511526  49.8142278  12.8652872
  76.4690012  52.7204997   9.8189988  77.4150012  52.5764997   9.7999988
  76.3570012  53.5044997  10.3559988  76.5832727  52.8068046   9.8890072
  94.6670012  53.3864997  15.5009988  94.6180012  52.4314997  15.4639988
  93.8400012  53.6544997  15.9019988  94.5484940  53.2918998  15.5501375
  85.6460012  52.9604997  14.3769988  85.7330012  53.7864997  14.8519988
  84.7820012  52.6304997  14.6259988  85.5411964  53.0289878  14.4756549
  86.0600012  56.7324997   4.1829988  85.9850012  56.6114997   3.2369988
  86.0930012  57.6824997   4.3019988  86.0541848  56.8442500   4.0694834
  79.7130012  55.5214997   5.9639988  79.8660012  55.1734997   6.8429988
  78.8630012  55.1654997   5.7089988  79.6188962  55.4256650   6.0498340
  89.1620012  55.8864997   1.1849988  89.5370012  55.1424997   0.7149988
  89.1660012  55.6164997   2.1039988  89.2138915  55.7481486   1.2447824
  88.8310012  55.8124997   3.9349988  87.8950012  55.9124997   4.1129988
  89.1110012  55.1034997   4.5129988  88.7408255  55.7302711   4.0375391
  91.8190012  44.8794997  15.9809988  91.4120012  45.3604997  15.2599988
  91.8600012  43.9744997  15.6729988  91.7688437  44.8229374  15.8406683
  78.9680012  51.2634997  13.9779988  79.1840012  50.9024997  14.8369988
  78.1130012  50.8894997  13.7679988  78.8819292  51.1634111  14.0673386
  81.5870012  39.7334997   9.9729988  80.7250012  39.6464997   9.5659988
  81.5640012  40.5894997  10.4009988  81.4660330  39.8372765   9.9751863
  86.2500012  39.4554997  13.3479988  86.6700012  39.0404997  14.1009988
  85.3170012  39.2774997  13.4649988  86.1813644  39.3745900  13.4669539
  89.5760012  43.2114997  14.2009988  89.0620012  43.0854997  14.9989988
  89.4210012  44.1234997  13.9569988  89.4846852  43.3176132  14.2772158
  90.3390012  48.0724997  -0.0370012  90.3810012  47.8494997  -0.9670012
  91.1880012  48.4714997   0.1529988  90.4595396  48.0959155  -0.1386373
  85.9110012  41.9484997   0.6329988  85.6580012  41.9674997   1.5559988
  85.6550012  41.0764997   0.3319988  85.8417790  41.8332437   0.7186263
  81.6780012  44.6994997  11.0679988  81.0360012  44.6584997  11.7769988
  81.7150012  45.6254997  10.8309988  81.5951324  44.8191559  11.1329824
  81.6750012  44.9204997   5.9799988  80.7820012  44.5794997   5.9219988
  82.1250012  44.5434997   5.2249988  81.6137305  44.8228484   5.8699177
  87.2100012  45.3364997   4.7969988  86.8010012  46.1514997   4.5059988
  87.9310012  45.1964997   4.1829988  87.2514537  45.4292018   4.6741342
  86.3120012  45.5114997  16.2849988  85.7500012  44.8074997  16.6059988
  87.1390012  45.3914997  16.7529988  86.3467095  45.3987883  16.3922330
  88.2150012  44.7824997   7.6109988  88.0200012  45.3874997   6.8959988
  88.3960012  43.9484997   7.1769988  88.2127614  44.7526300   7.4544405
  79.4280012  45.0194997  12.9349988  79.3900012  45.4194997  13.8039988
  78.9370012  44.2024997  13.0259988  79.3564684  44.9638069  13.0661059
  82.7940012  42.3934997  -0.2660012  82.3630012  41.9484997   0.4639988
  82.0760012  42.7654997  -0.7780012  82.6379438  42.3828940  -0.2353201
  76.0360012  42.1354997   6.7859988  76.6670012  42.1064997   7.5049988
  76.4850012  41.7104997   6.0559988  76.1830774  42.0740492   6.7856553
  77.3100012  42.8814997   2.2099988  77.7840012  43.4724997   1.6249988
  76.5930012  43.4124997   2.5569988  77.2779341  43.0340867   2.1768836
  87.4790012  46.4204997  12.2829988  87.8020012  45.7894997  11.6399988
  87.0390012  45.8854997  12.9429988  87.4636895  46.2618441  12.2842850
  84.2560012  42.3474997   7.0669988  83.3450012  42.4044997   7.3549988
  84.7620012  42.2874997   7.8769988  84.1995413  42.3471985   7.2160622
  79.0850012  43.9764997   5.8929988  78.1950012  44.0764997   5.5529988
  79.3810012  43.1344997   5.5469988  79.0032823  43.8763545   5.7997213
  82.7380012  43.9764997   3.5499988  83.6690012  44.1054997   3.7279988
  82.5230012  44.6464997   2.8999988  82.8364247  44.0846565   3.4865747
  88.6610012  41.5824997  10.3309988  87.9850012  41.7134997  10.9949988
  88.1760012  41.4274997   9.5209988  88.5027145  41.5794905  10.3124517
  81.4120012  45.1714997   1.1169988  80.8690012  44.7914997   0.4249988
  82.2450012  45.3654997   0.6879988  81.4504399  45.1458124   0.9644526
  91.9490012  57.2544997  16.6079988  92.1490012  57.6784997  15.7729988
  92.6040012  57.5974997  17.2149988  92.0650051  57.3589648  16.5757836
  79.5470012  49.7284997  16.2159988  80.2790012  49.9824997  16.7769988
  78.7670012  49.9324997  16.7309988  79.5418232  49.7909177  16.3625760
  85.5760012  45.1354997   8.9539988  86.1410012  44.5884997   8.4069988
  85.4290012  44.6134997   9.7419988  85.6332918  44.9902024   8.9858454
  80.5780012  41.2714997   5.3719988  80.2610012  40.3694997   5.3369988
  81.3600012  41.2734997   4.8189988  80.6402284  41.1481628   5.2924783
  84.2030012  43.5234997  11.3679988  83.3670012  43.9774997  11.4779988
  84.7270012  43.7994997  12.1199988  84.1594414  43.6229376  11.4847136
  84.7470012  49.7364997   3.0519988  84.0020012  49.2294997   2.7299988
  84.6130012  49.7854997   3.9989988  84.6268776  49.6736940   3.1358647
  91.8970012  48.8694997  11.8389988  92.5390012  49.3264997  11.2949988
  91.0670012  48.9824997  11.3759988  91.8725963  48.9472704  11.7020177
  88.6450012  42.5504997   1.2519988  87.7060012  42.6624997   1.0999988
  88.9420012  43.4074997   1.5579988  88.5567666  42.6816443   1.2725768
  86.2660012  49.9204997  14.2889988  85.9210012  49.5394997  15.0959988
  86.0660012  50.8544997  14.3609988  86.1918061  49.9945228  14.4090961
  89.3630012  44.4174997   2.9119988  90.2550012  44.2804997   3.2309988
  89.4200012  45.2084997   2.3759988  89.4926285  44.5056660   2.8831691
  79.8720012  49.0314997   8.8219988  80.6170012  49.0294997   8.2209988
  79.9500012  48.2084997   9.3039988  79.9845518  48.9199315   8.8048929
  86.8730012  51.1954997   2.0779988  86.5770012  52.0214997   2.4589988
  86.1700012  50.5754997   2.2739988  86.7374914  51.2248199   2.1566443
  76.8800012  47.4924997  14.1369988  77.1030012  47.0744997  14.9689988
  76.2780012  46.8794997  13.7139988  76.8291759  47.3524668  14.1937022
  83.8960012  47.0094997  16.3499988  83.6000012  46.8434997  15.4549988
  84.8280012  46.7894997  16.3389988  83.9814166  46.9570640  16.2260536
  88.5170012  52.3824997  14.2399988  87.6160012  52.5654997  13.9719988
  88.5510012  52.6414997  15.1609988  88.3983041  52.4425512  14.3278197
  94.2480012  44.6274997   2.6069988  93.6940012  44.2314997   1.9349988
  94.3480012  45.5374997   2.3289988  94.1857059  44.6963586   2.4774401
  94.2110012  50.4274997  15.4439988  93.3600012  50.6654997  15.0769988
  94.8020012  50.4104997  14.6909988  94.1742487  50.4578258  15.2918893
  92.5430012  53.4134997   3.0719988  92.1700012  52.5874997   3.3809988
  92.8210012  53.2304997   2.1749988  92.5295630  53.2757303   2.9929626
  89.7040012  48.2214997  10.0929988  88.7750012  47.9894997  10.0659988
  90.1550012  47.4444997   9.7629988  89.6379216  48.0847238  10.0446917
  82.2470012  52.5494997   6.2259988  82.7740012  53.3224997   6.0259988
  81.3670012  52.7744997   5.9249988  82.2001773  52.6858005   6.1579010
  78.0020012  47.4114997   0.8129988  78.6180012  48.0384997   1.1929988
  77.1400012  47.7274997   1.0849988  77.9697698  47.5399430   0.9017183
  83.6740012  50.2124997   5.8029988  83.4330012  51.1374997   5.8439988
  82.9330012  49.7534997   6.1989988  83.5408409  50.2771421   5.8621377
  84.1890012  54.3614997  12.1179988  84.5510012  55.2164997  11.8839988
  84.7200012  54.0694997  12.8579988  84.3104473  54.4391060  12.1860855
  82.3570012  55.2344997   5.3479988  81.4070012  55.3394997   5.3989988
  82.7090012  56.0544997   5.6929988  82.2744203  55.3598314   5.4016650
  87.7330012  50.4604997  11.8179988  87.3070012  50.2334997  12.6449988
  88.3130012  49.7224997  11.6359988  87.7531868  50.3295299  11.9065830
  89.9360012  51.3894997   0.8919988  90.2890012  51.0094997   1.6969988
  88.9870012  51.2964997   0.9789988  89.8560441  51.3249596   1.0138559
  90.3910012  55.0124997  14.2879988  89.7900012  54.4574997  13.7919988
  90.6730012  55.6794997  13.6619988  90.3468519  55.0266841  14.1354951
  94.4390012  55.8694997   1.0929988  95.1830012  56.4554997   0.9529988
  93.7450012  56.4374997   1.4269988  94.4470292  56.0265582   1.1189961
  78.5140012  42.2454997  13.6949988  77.6210012  42.5844997  13.6269988
  78.4150012  41.3904997  14.1129988  78.3784164  42.1762588  13.7422235
  90.8020012  50.0624997   3.1189988  90.5240012  49.3344997   3.6749988
  91.7290012  50.1814997   3.3239988  90.8893124  49.9788802   3.2228845
  78.1650012  54.0504997  12.1299988  78.3820012  53.1184997  12.0989988
  78.4110012  54.3244997  13.0129988  78.2279549  53.9600636  12.2451763
  84.0270012  52.5014997  -0.6610012  84.2660012  51.7534997  -1.2080012
  83.7580012  52.1134997   0.1719988  84.0233675  52.3466638  -0.6233135
  82.9640012  52.0714997   1.7959988  83.1100012  51.5514997   2.5859988
  82.9610012  52.9784997   2.1019988  82.9835989  52.1228853   1.9456088
  79.4170012  49.3244997   2.3059988  78.7310012  49.6764997   2.8729988
  79.9390012  50.0874997   2.0589988  79.3936852  49.4758578   2.3502118
  87.2480012  41.9864997  12.5849988  87.9470012  42.0604997  13.2349988
  86.8670012  41.1224997  12.7389988  87.2921767  41.8797624  12.6948322
  88.0330012  41.6384997   3.6819988  88.2530012  42.1104997   2.8789988
  88.5910012  42.0334997   4.3519988  88.1384968  41.7564285   3.6627331
  85.7010012  53.7694997   2.5449988  84.8850012  54.2664997   2.5969988
  86.2310012  54.2444997   1.9049988  85.6609161  53.9017722   2.4655956
  85.2330012  43.3664997   4.5169988  86.0450012  43.8714997   4.5629988
  84.9880012  43.2214997   5.4309988  85.3110520  43.4160375   4.6468517
  85.7680012  44.3524997  13.7019988  85.8870012  44.9264997  14.4589988
  86.4240012  43.6644997  13.8159988  85.8729757  44.3381079  13.8210825
  86.1160012  40.4474997   5.4549988  85.7700012  41.0654997   6.0999988
  86.7750012  40.9484997   4.9739988  86.1577826  40.5995802   5.4780971
  83.0400012  54.8134997   2.5269988  83.2000012  55.6124997   2.0259988
  82.8420012  55.1194997   3.4119988  83.0351649  54.9644469   2.5779815
  81.7740012  41.5104997   2.1419988  81.6910012  42.3994997   2.4889988
  82.6640012  41.2454997   2.3739988  81.8829469  41.5961430   2.2207626
  91.9730012  42.2594997  14.5369988  91.0560012  42.5224997  14.4489988
  92.3080012  42.2564997  13.6399988  91.8929900  42.2950224  14.4037919
  90.5750012  46.0104997   8.6319988  89.7770012  45.5954997   8.3039988
  91.0200012  45.3194997   9.1229988  90.5259885  45.8603543   8.6534889
  80.0330012  51.9384997   1.2029988  80.6250012  52.6374997   1.4789988
  80.4920012  51.5054997   0.4829988  80.1761142  51.9757049   1.1434830
  78.3490012  44.6024997   0.3189988  78.3040012  45.5414997   0.4969988
  77.4610012  44.3664997   0.0489988  78.2228574  44.6991892   0.3068912
  91.6610012  55.2664997  10.2549988  91.5060012  55.9444997   9.5979988
  92.5940012  55.3384997  10.4579988  91.7658500  55.3690170  10.1925119
  79.1570012  39.3844997   8.9919988  78.9280012  39.4434997   8.0639988
  78.7140012  38.5924997   9.2979988  79.0658530  39.2855753   8.9064786
  78.0870012  53.3244997   5.1519988  77.2550012  53.7974997   5.1799988
  78.6330012  53.8344997   4.5539988  78.0469739  53.4581871   5.0749716
  77.3750012  55.9374997  16.4819988  77.9160012  55.7204997  17.2419988
  76.8940012  55.1314997  16.2929988  77.3839345  55.7989514  16.5603076
  81.9730012  54.8564997  18.1029988  82.7400012  54.3974997  18.4439988
  81.9510012  54.6304997  17.1729988  82.0751434  54.7630409  18.0240043
  86.0650012  54.3644997  -0.5220012  85.4210012  53.7334997  -0.2010012
  86.8270012  53.8334997  -0.7540012  86.0798077  54.2062920  -0.5093989
  88.5500012  53.2364997  16.8319988  88.1990012  52.3804997  17.0749988
  89.2760012  53.3794997  17.4389988  88.6000769  53.1385636  16.9473619
  90.6690012  54.1814997  -0.2880012  90.9520012  53.3874997   0.1639988
  91.4090012  54.4144997  -0.8490012  90.8077486  54.1042803  -0.3019302
  77.2820012  49.7474997  17.4369988  77.4260012  48.8454997  17.1499988
  76.5100012  50.0334997  16.9489988  77.1973322  49.6628261  17.3317881
  81.6240012  50.0914997  -0.4310012  81.6880012  49.2974997   0.0999988
  82.2770012  49.9724997  -1.1210012  81.7210241  49.9667148  -0.4515683
  83.9380012  49.7174997  16.8689988  83.6090012  49.9884997  16.0119988
  84.0900012  48.7764997  16.7819988  83.9134809  49.6273862  16.7398244
  86.9760012  51.1384997  -0.6950012  86.7070012  51.3184997   0.2059988
  86.7700012  50.2124997  -0.8260012  86.9113825  51.0380152  -0.5894786
  89.6720012  49.6334997  14.2529988  90.4180012  50.2214997  14.1329988
  88.9150012  50.2154997  14.3159988  89.6717554  49.7927011  14.2450907
  78.1150012  46.9474997  16.8569988  78.5230012  46.0904997  16.7359988
  77.8550012  46.9624997  17.7779988  78.1357568  46.8320807  16.9649588
  82.7730012  48.0634997   1.8749988  82.3130012  47.5794997   2.5609988
  83.0280012  47.3954997   1.2389988  82.7444902  47.9068731   1.8829334
  82.0620012  45.9564997  14.2309988  81.4440012  46.6314997  14.5109988
  82.4060012  46.2774997  13.3979988  82.0239615  46.0922721  14.1566581
  83.8440012  46.3064997   0.1369988  83.6640012  46.1524997  -0.7900012
  84.7940012  46.4144997   0.1819988  83.9477776  46.3000175   0.0161843
  87.0820012  48.4284997  17.5079988  88.0350012  48.5114997  17.4809988
  86.9210012  47.7164997  18.1279988  87.1906426  48.3436746  17.5880579
  93.2340012  48.6614997  -0.4170012  92.9600012  48.2364997  -1.2300012
  93.2730012  49.5924997  -0.6340012  93.2017699  48.7292484  -0.5576390
  82.4010012  43.3114997  15.3129988  82.5510012  42.5824997  14.7109988
  82.4040012  44.0884997  14.7539988  82.4219302  43.3167851  15.1550692
  82.8140012  41.6814997  12.8059988  83.3500012  42.1324997  12.1539988
  81.9620012  41.5734997  12.3829988  82.7722178  41.7286390  12.6595756
  84.3960012  47.1204997  13.0449988  85.1460012  46.9644997  12.4719988
  84.0570012  47.9724997  12.7699988  84.4528921  47.2142968  12.9293561
  88.8110012  44.9354997  18.0739988  89.0040012  44.0044997  17.9619988
  89.6690012  45.3604997  18.0639988  88.9533020  44.8656389  18.0573361
  90.1280012  47.7244997  16.1509988  89.8470012  48.4334997  15.5739988
  91.0710012  47.6514997  15.9999988  90.2169027  47.8117646  16.0515551
  80.8800012  44.5094997  17.2249988  80.1130012  43.9774997  17.0149988
  81.5590012  44.1994997  16.6249988  80.8667022  44.3947506  17.1151648
  83.6200012  39.1374997  13.2369988  83.5210012  40.0844997  13.1319988
  82.8770012  38.7654997  12.7619988  83.5060564  39.2165902  13.1584560
  84.8840012  43.4594997  16.8009988  84.6480012  43.2394997  17.7029988
  84.1000012  43.2524997  16.2909988  84.7458628  43.4014760  16.8553932
  87.5990012  42.5864997  15.8769988  86.6520012  42.6184997  16.0089988
  87.9120012  41.9614997  16.5299988  87.5115475  42.5063207  15.9834455
  89.2330012  41.2204997  17.8819988  89.1370012  40.2684997  17.8759988
  88.9120012  41.4894997  18.7419988  89.1764070  41.1264035  17.9975441
  79.0600012  42.4304997  16.9289988  79.2720012  41.7234997  16.3189988
  78.9490012  41.9924997  17.7729988  79.0739721  42.2747084  16.9596843
  83.8410012  38.4314997  15.9089988  84.5530012  37.7914997  15.8949988
  83.7400012  38.6984997  14.9949988  83.9247939  38.3799938  15.7835650
  84.1950012  40.1144997  17.9619988  84.0630012  39.6384997  17.1419988
  83.5960012  40.8584997  17.9069988  84.0959071  40.1499618  17.8422886
  83.7410012  56.9974997   1.1389988  84.6740012  57.1554997   1.2819988
  83.4770012  57.6724997   0.5139988  83.8329510  57.1103611   1.0740741
  77.3100012  51.6334997   0.6209988  78.2240012  51.7124997   0.8949988
  77.3170012  50.9464997  -0.0450012  77.4361131  51.5513961   0.5684393
  75.9590012  57.0264997   5.6989988  75.3120012  56.5644997   5.1659988
  76.3130012  56.3544997   6.2809988  75.9183849  56.8724723   5.7047959
  76.8290012  55.1074997   7.5029988  76.4940012  54.2274997   7.6749988
  77.0510012  55.4524997   8.3679988  76.8131783  55.0337500   7.6434208
  94.3770012  55.9164997  10.4839988  94.3560012  56.1014997  11.4229988
  95.0680012  56.4854997  10.1429988  94.4674618  56.0186606  10.5663864
  93.9410012  55.4844997  13.4059988  93.4530012  54.7484997  13.0349988
  94.4900012  55.0904997  14.0839988  93.9484872  55.3306249  13.4469160
  92.3910012  51.2734997  18.0439988  91.5250012  51.1684997  18.4379988
  92.7680012  52.0324997  18.4899988  92.3233308  51.3616900  18.1582393
  93.6920012  49.5304997   3.5579988  94.5420012  49.9514997   3.6849988
  93.6980012  48.7904997   4.1649988  93.8091372  49.4880803   3.6574344
  94.0870012  47.5834997   5.3819988  93.3600012  47.1044997   5.7789988
  94.6680012  47.7894997   6.1139988  94.0659375  47.5457090   5.5354129
  93.8460012  50.3684997  10.3289988  94.6790012  49.9904997  10.0489988
  93.9580012  51.3114997  10.2099988  93.9752647  50.4442218  10.2745487
  92.3320012  53.2464997  12.6359988  91.6850012  53.5714997  13.2619988
  91.8150012  52.8064997  11.9619988  92.1734029  53.2315004  12.6305827
  94.3550012  47.4844997   1.7729988  93.8330012  47.8414997   1.0539988
  94.3220012  48.1594997   2.4509988  94.2791634  47.6245413   1.7663145
  92.7040012  44.7244997   0.3239988  92.8000012  45.3914997  -0.3570012
  92.5640012  43.9084997  -0.1580012  92.6982135  44.7054500   0.1658491
  91.8730012  46.1044997   5.9449988  91.7230012  45.1594997   5.9239988
  91.5200012  46.3854997   6.7879988  91.8046625  46.0130441   6.0562346
  76.9090012  48.1824997   9.9549988  77.0930012  48.1004997   9.0189988
  77.7580012  48.0584997  10.3789988  77.0490139  48.1545003   9.8841455
  92.7300012  48.0744997  15.5829988  93.3130012  47.3404997  15.7749988
  93.2940012  48.8464997  15.6299988  92.8859769  48.0784227  15.6156159
  94.2260012  45.9774997  16.2679988  93.3630012  45.5984997  16.1019988
  94.8310012  45.2384997  16.1939988  94.1895979  45.8258023  16.2352817
  91.9510012  42.1324997  -0.5590012  92.5620012  41.7614997   0.0779988
  91.1150012  41.7114997  -0.3630012  91.9215032  42.0247554  -0.4452965
  91.5840012  43.6874997   4.4069988  91.8640012  42.7804997   4.5309988
  92.3430012  44.1214997   4.0179988  91.7249277  43.6220942   4.3713682
  92.1960012  44.2684997   9.8429988  93.1290012  44.4804997   9.8089988
  91.9610012  44.3704997  10.7649988  92.2918036  44.3112769   9.9629976
  92.2250012  45.0054997  12.6189988  91.3820012  45.2734997  12.9849988
  92.6670012  45.8274997  12.4079988  92.1694158  45.1533291  12.6405491
  76.5060012  43.4534997  16.0959988  77.4260012  43.3314997  16.3319988
  76.0570012  42.7034997  16.4849988  76.5711580  43.3353727  16.1809006
  94.5080012  38.9854997  17.9719988  94.8580012  38.3314997  17.3669988
  94.6550012  39.8224997  17.5329988  94.5758419  39.0091591  17.8297118
  92.1970012  40.9504997   4.4549988  92.3800012  40.5014997   5.2809988
  91.5980012  40.3654997   3.9919988  92.1410202  40.8099975   4.5053275
  77.7270012  41.7654997   8.9869988  78.1730012  40.9734997   9.2889988
  78.1940012  42.4814997   9.4179988  77.8510172  41.7540624   9.0864820
  76.0310012  44.7644997  10.0559988  76.5230012  44.5434997   9.2649988
  76.3940012  45.6054997  10.3369988  76.1473126  44.8478357   9.9857531
  94.0280012  41.0944997  16.3219988  93.1100012  41.3654997  16.2859988
  94.1510012  40.5594997  15.5369988  93.9191066  41.0592892  16.2110487
  94.0640012  41.0174997   0.9829988  94.4760012  40.2964997   0.5079988
  94.7460012  41.6874997   1.0419988  94.2125885  41.0092368   0.9258915
  76.3450012  41.0224997   4.1099988  75.4200012  41.2314997   3.9809988
  76.7990012  41.5064997   3.4209988  76.2797368  41.1165993   3.9991226
  91.1160012  56.0064997   6.0559988  91.7680012  55.6594997   5.4479988
  91.6260012  56.4954997   6.7019988  91.2742637  56.0250597   6.0600236
  76.3090012  39.7604997  12.4549988  75.6440012  39.5144997  13.0979988
  75.8660012  40.3824997  11.8769988  76.1580956  39.8108632  12.4649352
  78.5010012  52.9354997  16.5989988  77.6800012  53.1104997  16.1389988
  78.2480012  52.8624997  17.5199988  78.3546164  52.9495622  16.6604923
  81.4550012  53.9104997  12.8579988  81.0300012  54.7194997  12.5749988
  82.3590012  53.9954997  12.5559988  81.5190271  54.0328469  12.7783776
  85.7660012  55.3094997  15.8169988  85.9510012  54.9754997  16.6949988
  86.6120012  55.6184997  15.4949988  85.9057539  55.3056047  15.8935605
  88.1110012  56.5954997  15.0609988  88.7880012  55.9624997  14.8209988
  88.4330012  56.9964997  15.8679988  88.2471637  56.5631154  15.1372793
  93.0280012  39.1844997  14.1409988  92.2160012  39.5094997  13.7529988
  93.2610012  38.4244997  13.6079988  92.9483423  39.1262436  14.0158253
  78.8570012  57.1664997  12.9049988  78.1360012  57.6064997  12.4539988
  78.4910012  56.9154997  13.7539988  78.7089804  57.1927698  12.9579840
  81.3240012  56.7664997  11.9349988  80.4590012  56.8384997  12.3389988
  81.2690012  57.3134997  11.1509988  81.1982085  56.8502685  11.8843362
  86.0340012  56.6544997  11.1099988  85.5780012  57.1834997  10.4559988
  86.1970012  57.2574997  11.8359988  85.9935585  56.8084468  11.1185062
  88.3620012  55.5324997  12.0549988  87.4570012  55.6974997  11.7899988
  88.7910012  56.3854997  11.9899988  88.2960799  55.6704483  12.0099182
  90.9660012  57.1024997  12.3499988  90.7840012  58.0184997  12.1399988
  91.1430012  56.6924997  11.5039988  90.9650210  57.1724822  12.2067885
  78.2710012  55.7894997   9.8149988  78.2530012  55.3644997  10.6729988
  79.0760012  55.4714997   9.4069988  78.3773875  55.6883812   9.8771655
  80.4130012  54.4994997   8.4699988  80.1940012  53.5834997   8.6399988
  81.2370012  54.6394997   8.9359988  80.4944420  54.3930520   8.5562774
  82.9500012  54.9694997   9.3189988  83.1630012  54.0814997   9.0319988
  83.0140012  54.9354997  10.2729988  82.9878232  54.8433102   9.4087397
  86.4580012  40.6334997   8.4629988  85.7840012  40.0044997   8.7189988
  87.0220012  40.1494997   7.8599988  86.4419230  40.4818744   8.4165340
  91.6010012  38.7414997   8.5759988  92.2050012  39.2884997   8.0739988
  90.7310012  39.0604997   8.3359988  91.5661241  38.8595806   8.4747654
  93.3280012  39.8794997   6.9089988  93.9400012  39.3654997   6.3829988
  93.7100012  40.7574997   6.9329988  93.4634540  39.9277140   6.8401830
  78.7850012  39.2674997   6.2849988  78.0080012  39.0334997   5.7779988
  79.3150012  38.4704997   6.2939988  78.7502330  39.1276988   6.2167742
  77.6210012  39.0654997   2.0889988  78.0600012  39.6764997   1.4969988
  76.9880012  39.6034997   2.5629988  77.5954514  39.2219257   2.0720930
  83.3640012  39.1944997   6.0989988  84.2390012  39.5824997   6.0689988
  83.2280012  38.9794997   7.0209988  83.4653695  39.2185184   6.2196440
  88.9210012  39.2244997   7.7479988  88.9970012  39.3194997   6.7979988
  88.6460012  38.3164997   7.8769988  88.8942321  39.1147867   7.6355079
  90.2740012  39.2504997   3.4399988  89.5720012  39.8654997   3.2309988
  89.8300012  38.4124997   3.5709988  90.1176330  39.2215783   3.4290328
  77.5220012  55.0134997   2.9869988  76.8370012  54.9754997   2.3189988
  77.5260012  55.9264997   3.2749988  77.4288193  55.1317016   2.9345284
  79.4820012  40.9814997   0.5309988  79.9740012  40.3514997   0.0039988
  80.1060012  41.2774997   1.1949988  79.6335446  40.9353199   0.5485980
  84.5080012  41.2744997   2.9879988  84.6860012  40.6284997   3.6709988
  84.4550012  42.1084997   3.4559988  84.5251829  41.2987985   3.1445940
  86.3870012  56.2234997   1.3839988  87.2530012  56.5894997   1.2059988
  86.1400012  55.7834997   0.5699988  86.4722392  56.2141756   1.2496289
  93.0960012  55.7864997   4.0629988  92.9010012  55.0384997   3.4979988
  93.0570012  56.5444997   3.4799988  93.0640380  55.7866099   3.9068384
  78.7430012  39.7814997  15.8029988  78.3770012  39.0164997  16.2459988
  79.6560012  39.8104997  16.0899988  78.8162790  39.6807224  15.9024070
  80.7160012  39.1324997  17.3389988  81.6140012  38.8584997  17.1539988
  80.3290012  38.3894997  17.8029988  80.7866612  38.9945914  17.3763643
  79.3400012  55.9334997   0.0119988  79.0730012  56.2204997   0.8849988
  80.1120012  55.3874997   0.1639988  79.4077488  55.8990294   0.1521050
  89.1370012  38.4644997  17.5209988  89.2140012  38.0384997  18.3749988
  90.0310012  38.4784997  17.1779988  89.2683428  38.4080879  17.5915310
  92.3130012  54.5374997  16.2129988  91.5310012  54.3514997  15.6939988
  92.2410012  55.4664997  16.4309988  92.1961777  54.6376492  16.1714048
 106.7190012  48.4234997   6.2439988 106.8080012  49.3674997   6.1119988
 106.0810012  48.1484997   5.5859988 106.6449081  48.5154830   6.1369614
 105.6520012  47.6784997   9.6629988 105.6140012  47.0324997  10.3679988
 105.3300012  47.2124997   8.8919988 105.6032333  47.5269408   9.6552978
  98.0210012  47.2934997  11.2559988  98.0620012  46.6674997  11.9789988
  98.7240012  47.9174997  11.4379988  98.1216363  47.2921196  11.3796044
 109.3580012  50.6174997   7.9639988 108.9180012  49.8974997   8.4149988
 109.3450012  51.3384997   8.5939988 109.2960226  50.6163731   8.1108494
  98.9440012  51.7434997   9.7909988  98.5750012  50.9414997   9.4209988
  99.8850012  51.5744997   9.8369988  99.0207289  51.6110153   9.7466316
  95.5540012  45.4034997   5.1839988  95.1070012  46.2494997   5.1649988
  94.9930012  44.8234997   4.6679988  95.4169900  45.4409916   5.1116801
  96.2650012  47.5654997   7.3099988  96.4780012  46.7954997   7.8369988
  97.0030012  47.6544997   6.7059988  96.3938496  47.4721394   7.3005300
 106.4700012  55.7224997   8.1769988 107.0900012  55.0454997   7.9029988
 106.2620012  55.5044997   9.0849988 106.5266904  55.6003870   8.2623365
 104.0420012  50.1114997  10.0689988 104.3460012  49.4254997   9.4739988
 104.7630012  50.2294997  10.6869988 104.1810671  50.0336305  10.0711816
 112.7050012  41.7124997  10.9299988 112.7540012  42.3224997  11.6659988
 113.1300012  42.1734997  10.2069988 112.7691824  41.8583741  10.9330205
 107.1830012  44.5054997  10.3969988 107.3250012  43.5594997  10.4169988
 107.0760012  44.7124997   9.4679988 107.1879864  44.4039534  10.2742339
 100.3370012  42.6064997   7.6689988 100.3810012  43.4664997   7.2509988
  99.8800012  42.0544997   7.0349988 100.2812185  42.6495799   7.5260299
 108.0600012  42.7374997   6.0699988 108.7060012  42.4084997   6.6949988
 108.5700012  43.2554997   5.4469988 108.2174264  42.7624611   6.0713862
  96.9580012  45.0034997   8.4309988  97.6110012  44.4534997   8.8629988
  96.9820012  44.7294997   7.5139988  97.0506683  44.8911466   8.3662123
 102.1140012  46.5534997   7.6459988 102.7300012  46.0274997   8.1559988
 101.5280012  45.9134997   7.2429988 102.1190810  46.3949208   7.6613173
 113.0960012  43.1904997  13.1659988 112.4080012  43.8484997  13.0699988
 113.1120012  42.9934997  14.1019988 113.0038525  43.2540462  13.2794808
  99.1480012  41.5244997  11.7429988  98.9290012  42.0544997  10.9769988
  98.4800012  41.7514997  12.3899988  99.0277600  41.6276906  11.7256379
 106.5170012  51.0244997   5.2869988 106.2210012  50.7024997   4.4359988
 106.1920012  51.9244997   5.3279988 106.4326371  51.1020215   5.1761801
 101.7170012  49.2004997  12.0299988 100.9770012  49.7984997  12.1339988
 102.4310012  49.7544997  11.7149988 101.7122237  49.3572831  12.0016465
 109.8240012  42.0284997   8.0499988 109.6080012  41.2624997   8.5829988
 110.4790012  42.5004997   8.5629988 109.8830632  41.9875889   8.1922861
  98.7410012  43.4164997   9.6949988  99.3550012  44.0494997  10.0689988
  99.2530012  42.9444997   9.0389988  98.8942296  43.4392370   9.6574252
 100.1240012  51.1644997  12.8179988 100.1190012  52.0444997  12.4399988
  99.2710012  51.0814997  13.2429988 100.0079464  51.2736117  12.8237907
  96.2450012  50.8354997   3.5999988  95.9730012  51.0644997   2.7109988
  96.2910012  51.6734997   4.0599988  96.2140094  50.9801213   3.5405697
 109.8700012  52.4574997  10.3119988 108.9290012  52.5154997  10.4739988
 110.1470012  53.3634997  10.1749988 109.7784679  52.5879443  10.3156815
 110.1710012  40.7434997  11.7299988 109.4350012  41.3544997  11.6919988
 110.8540012  41.1584997  11.2029988 110.1626541  40.8831374  11.6535832
 103.1740012  38.8304997   9.1959988 103.0570012  37.8814997   9.1409988
 102.3190012  39.1624997   9.4689988 103.0423733  38.7455409   9.2253897
 108.1220012  54.2384997   6.9379988 108.5480012  53.5314997   6.4529988
 108.4390012  55.0394997   6.5209988 108.2231019  54.2500994   6.8153130
 109.2820012  52.1394997   5.4459988 109.0240012  51.4494997   4.8349988
 109.3530012  51.6964997   6.2919988 109.2562856  51.9852124   5.4766885
 110.9680012  50.7054997  13.9239988 111.1080012  50.1144997  13.1839988
 111.1350012  51.5784997  13.5669988 111.0096778  50.7426426  13.7746965
 105.4410012  47.6674997   3.6959988 104.7290012  48.2024997   3.3439988
 106.1320012  47.7234997   3.0359988 105.4370132  47.7482543   3.5586289
 105.4940012  46.1254997   0.7349988 106.1950012  46.1474997   1.3859988
 105.7970012  45.4974997   0.0789988 105.6307830  46.0436566   0.7353711
 112.8100012  47.0454997  11.9899988 112.1570012  47.7404997  12.0789988
 113.2750012  47.2554997  11.1799988 112.7835390  47.1689425  11.8926883
 108.8460012  47.8774997   4.6479988 108.1140012  48.1054997   5.2209988
 109.2940012  47.1634997   5.1029988 108.8063095  47.8122571   4.7879119
 108.7440012  46.0514997  13.7149988 108.8240012  46.8144997  14.2869988
 108.1420012  46.3304997  13.0249988 108.6735756  46.1937134  13.7000589
 100.4920012  48.5074997   6.5299988 100.1610012  48.1374997   5.7119988
 101.0800012  47.8374997   6.8769988 100.5261873  48.3661156   6.4648102
 101.8580012  51.9354997   9.2119988 101.7640012  51.3574997   8.4549988
 102.5880012  51.5644997   9.7079988 101.9437981  51.8062390   9.1754165
 100.8580012  47.2764997  10.1639988 101.4240012  47.3974997   9.4009988
 101.1770012  47.9134997  10.8029988 100.9785786  47.3791884  10.1460040
 107.1670012  52.7794997  10.8979988 106.9270012  53.4414997  11.5459988
 106.9690012  51.9454997  11.3229988 107.1073808  52.7573134  11.0441524
 101.7380012  51.6754997  14.8809988 101.4270012  52.4574997  15.3359988
 101.0880012  51.5224997  14.1949988 101.6075558  51.7619105  14.8505871
 107.7170012  47.0394997   2.3329988 108.2970012  47.1894997   3.0799988
 108.1310012  47.5104997   1.6099988 107.8522831  47.1236841   2.3374134
  98.6580012  47.8734997  14.1099988  98.7290012  48.5244997  14.8079988
  97.7680012  47.9764997  13.7749988  98.5473117  47.9765936  14.1602700
 105.4440012  53.7764997   5.7679988 105.9180012  54.0714997   6.5459988
 104.8810012  54.5144997   5.5349988 105.4327653  53.9166932   5.8430136
  99.9780012  53.7474997  15.6439988  99.9850012  53.6114997  14.6969988
  99.0620012  53.6294997  15.8959988  99.8551714  53.7129430  15.5484666
 111.4160012  38.7894997   2.1459988 110.5160012  38.9284997   2.4409988
 111.6680012  39.6204997   1.7439988 111.3268702  38.9209074   2.1320205
  99.4820012  47.5774997   4.1199988  99.1900012  48.3454997   3.6289988
  98.8080012  46.9174997   3.9569988  99.3509081  47.5934406   4.0307340
 112.6050012  53.1554997   0.5219988 112.6790012  54.0944997   0.6929988
 113.5110012  52.8504997   0.4659988 112.7375100  53.2426722   0.5378119
  95.5750012  49.9404997  12.9349988  95.0740012  49.9124997  12.1199988
  95.5800012  49.0344997  13.2439988  95.5071526  49.8142278  12.8652872
  95.3250012  52.7204997   9.8189988  96.2710012  52.5764997   9.7999988
  95.2130012  53.5044997  10.3559988  95.4392727  52.8068046   9.8890072
 113.5230012  53.3864997  15.5009988 113.4740012  52.4314997  15.4639988
 112.6960012  53.6544997  15.9019988 113.4044940  53.2918998  15.5501375
 104.5020012  52.9604997  14.3769988 104.5890012  53.7864997  14.8519988
 103.6380012  52.6304997  14.6259988 104.3971964  53.0289878  14.4756549
 104.9160012  56.7324997   4.1829988 104.8410012  56.6114997   3.2369988
 104.9490012  57.6824997   4.3019988 104.9101848  56.8442500   4.0694834
  98.5690012  55.5214997   5.9639988  98.7220012  55.1734997   6.8429988
  97.7190012  55.1654997   5.7089988  98.4748962  55.4256650   6.0498340
 108.0180012  55.8864997   1.1849988 108.3930012  55.1424997   0.7149988
 108.0220012  55.6164997   2.1039988 108.0698915  55.7481486   1.2447824
 107.6870012  55.8124997   3.9349988 106.7510012  55.9124997   4.1129988
 107.9670012  55.1034997   4.5129988 107.5968255  55.7302711   4.0375391
 110.6750012  44.8794997  15.9809988 110.2680012  45.3604997  15.2599988
 110.7160012  43.9744997  15.6729988 110.6248437  44.8229374  15.8406683
  97.8240012  51.2634997  13.9779988  98.0400012  50.9024997  14.8369988
  96.9690012  50.8894997  13.7679988  97.7379292  51.1634111  14.0673386
 100.4430012  39.7334997   9.9729988  99.5810012  39.6464997   9.5659988
 100.4200012  40.5894997  10.4009988 100.3220330  39.8372765   9.9751863
 105.1060012  39.4554997  13.3479988 105.5260012  39.0404997  14.1009988
 104.1730012  39.2774997  13.4649988 105.0373644  39.3745900  13.4669539
 108.4320012  43.2114997  14.2009988 107.9180012  43.0854997  14.9989988
 108.2770012  44.1234997  13.9569988 108.3406852  43.3176132  14.2772158
 109.1950012  48.0724997  -0.0370012 109.2370012  47.8494997  -0.9670012
 110.0440012  48.4714997   0.1529988 109.3155396  48.0959155  -0.1386373
 104.7670012  41.9484997   0.6329988 104.5140012  41.9674997   1.5559988
 104.5110012  41.0764997   0.3319988 104.6977790  41.8332437   0.7186263
 100.5340012  44.6994997  11.0679988  99.8920012  44.6584997  11.7769988
 100.5710012  45.6254997  10.8309988 100.4511324  44.8191559  11.1329824
 100.5310012  44.9204997   5.9799988  99.6380012  44.5794997   5.9219988
 100.9810012  44.5434997   5.2249988 100.4697305  44.8228484   5.8699177
 106.0660012  45.3364997   4.7969988 105.6570012  46.1514997   4.5059988
 106.7870012  45.1964997   4.1829988 106.1074537  45.4292018   4.6741342
 105.1680012  45.5114997  16.2849988 104.6060012  44.8074997  16.6059988
 105.9950012  45.3914997  16.7529988 105.2027095  45.3987883  16.3922330
 107.0710012  44.7824997   7.6109988 106.8760012  45.3874997   6.8959988
 107.2520012  43.9484997   7.1769988 107.0687614  44.7526300   7.4544405
  98.2840012  45.0194997  12.9349988  98.2460012  45.4194997  13.8039988
  97.7930012  44.2024997  13.0259988  98.2124684  44.9638069  13.0661059
 101.6500012  42.3934997  -0.2660012 101.2190012  41.9484997   0.4639988
 100.9320012  42.7654997  -0.7780012 101.4939438  42.3828940  -0.2353201
  94.8920012  42.1354997   6.7859988  95.5230012  42.1064997   7.5049988
  95.3410012  41.7104997   6.0559988  95.0390774  42.0740492   6.7856553
  96.1660012  42.8814997   2.2099988  96.6400012  43.4724997   1.6249988
  95.4490012  43.4124997   2.5569988  96.1339341  43.0340867   2.1768836
 106.3350012  46.4204997  12.2829988 106.6580012  45.7894997  11.6399988
 105.8950012  45.8854997  12.9429988 106.3196895  46.2618441  12.2842850
 103.1120012  42.3474997   7.0669988 102.2010012  42.4044997   7.3549988
 103.6180012  42.2874997   7.8769988 103.0555413  42.3471985   7.2160622
  97.9410012  43.9764997   5.8929988  97.0510012  44.0764997   5.5529988
  98.2370012  43.1344997   5.5469988  97.8592823  43.8763545   5.7997213
 101.5940012  43.9764997   3.5499988 102.5250012  44.1054997   3.7279988
 101.3790012  44.6464997   2.8999988 101.6924247  44.0846565   3.4865747
 107.5170012  41.5824997  10.3309988 106.8410012  41.7134997  10.9949988
 107.0320012  41.4274997   9.5209988 107.3587145  41.5794905  10.3124517
 100.2680012  45.1714997   1.1169988  99.7250012  44.7914997   0.4249988
 101.1010012  45.3654997   0.6879988 100.3064399  45.1458124   0.9644526
 110.8050012  57.2544997  16.6079988 111.0050012  57.6784997  15.7729988
 111.4600012  57.5974997  17.2149988 110.9210051  57.3589648  16.5757836
  98.4030012  49.7284997  16.2159988  99.1350012  49.9824997  16.7769988
  97.6230012  49.9324997  16.7309988  98.3978232  49.7909177  16.3625760
 104.4320012  45.1354997   8.9539988 104.9970012  44.5884997   8.4069988
 104.2850012  44.6134997   9.7419988 104.4892918  44.9902024   8.9858454
  99.4340012  41.2714997   5.3719988  99.1170012  40.3694997   5.3369988
 100.2160012  41.2734997   4.8189988  99.4962284  41.1481628   5.2924783
 103.0590012  43.5234997  11.3679988 102.2230012  43.9774997  11.4779988
 103.5830012  43.7994997  12.1199988 103.0154414  43.6229376  11.4847136
 103.6030012  49.7364997   3.0519988 102.8580012  49.2294997   2.7299988
 103.4690012  49.7854997   3.9989988 103.4828776  49.6736940   3.1358647
 110.7530012  48.8694997  11.8389988 111.3950012  49.3264997  11.2949988
 109.9230012  48.9824997  11.3759988 110.7285963  48.9472704  11.7020177
 107.5010012  42.5504997   1.2519988 106.5620012  42.6624997   1.0999988
 107.7980012  43.4074997   1.5579988 107.4127666  42.6816443   1.2725768
 105.1220012  49.9204997  14.2889988 104.7770012  49.5394997  15.0959988
 104.9220012  50.8544997  14.3609988 105.0478061  49.9945228  14.4090961
 108.2190012  44.4174997   2.9119988 109.1110012  44.2804997   3.2309988
 108.2760012  45.2084997   2.3759988 108.3486285  44.5056660   2.8831690
  98.7280012  49.0314997   8.8219988  99.4730012  49.0294997   8.2209988
  98.8060012  48.2084997   9.3039988  98.8405518  48.9199315   8.8048929
 105.7290012  51.1954997   2.0779988 105.4330012  52.0214997   2.4589988
 105.0260012  50.5754997   2.2739988 105.5934914  51.2248199   2.1566443
  95.7360012  47.4924997  14.1369988  95.9590012  47.0744997  14.9689988
  95.1340012  46.8794997  13.7139988  95.6851759  47.3524668  14.1937022
 102.7520012  47.0094997  16.3499988 102.4560012  46.8434997  15.4549988
 103.6840012  46.7894997  16.3389988 102.8374166  46.9570640  16.2260536
 107.3730012  52.3824997  14.2399988 106.4720012  52.5654997  13.9719988
 107.4070012  52.6414997  15.1609988 107.2543041  52.4425512  14.3278197
 113.1040012  44.6274997   2.6069988 112.5500012  44.2314997   1.9349988
 113.2040012  45.5374997   2.3289988 113.0417059  44.6963586   2.4774401
 113.0670012  50.4274997  15.4439988 112.2160012  50.6654997  15.0769988
 113.6580012  50.4104997  14.6909988 113.0302487  50.4578258  15.2918893
 111.3990012  53.4134997   3.0719988 111.0260012  52.5874997   3.3809988
 111.6770012  53.2304997   2.1749988 111.3855630  53.2757303   2.9929626
 108.5600012  48.2214997  10.0929988 107.6310012  47.9894997  10.0659988
 109.0110012  47.4444997   9.7629988 108.4939216  48.0847238  10.0446917
 101.1030012  52.5494997   6.2259988 101.6300012  53.3224997   6.0259988
 100.2230012  52.7744997   5.9249988 101.0561773  52.6858005   6.1579010
  96.8580012  47.4114997   0.8129988  97.4740012  48.0384997   1.1929988
  95.9960012  47.7274997   1.0849988  96.8257698  47.5399430   0.9017183
 102.5300012  50.2124997   5.8029988 102.2890012  51.1374997   5.8439988
 101.7890012  49.7534997   6.1989988 102.3968409  50.2771421   5.8621377
 103.0450012  54.3614997  12.1179988 103.4070012  55.2164997  11.8839988
 103.5760012  54.0694997  12.8579988 103.1664473  54.4391060  12.1860855
 101.2130012  55.2344997   5.3479988 100.2630012  55.3394997   5.3989988
 101.5650012  56.0544997   5.6929988 101.1304203  55.3598314   5.4016650
 106.5890012  50.4604997  11.8179988 106.1630012  50.2334997  12.6449988
 107.1690012  49.7224997  11.6359988 106.6091868  50.3295299  11.9065830
 108.7920012  51.3894997   0.8919988 109.1450012  51.0094997   1.6969988
 107.8430012  51.2964997   0.9789988 108.7120441  51.3249596   1.0138559
 109.2470012  55.0124997  14.2879988 108.6460012  54.4574997  13.7919988
 109.5290012  55.6794997  13.6619988 109.2028519  55.0266841  14.1354952
 113.2950012  55.8694997   1.0929988 114.0390012  56.4554997   0.9529988
 112.6010012  56.4374997   1.4269988 113.3030292  56.0265582   1.1189961
  97.3700012  42.2454997  13.6949988  96.4770012  42.5844997  13.6269988
  97.2710012  41.3904997  14.1129988  97.2344164  42.1762588  13.7422235
 109.6580012  50.0624997   3.1189988 109.3800012  49.3344997   3.6749988
 110.5850012  50.1814997   3.3239988 109.7453124  49.9788802   3.2228845
  97.0210012  54.0504997  12.1299988  97.2380012  53.1184997  12.0989988
  97.2670012  54.3244997  13.0129988  97.0839549  53.9600636  12.2451763
 102.8830012  52.5014997  -0.6610012 103.1220012  51.7534997  -1.2080012
 102.6140012  52.1134997   0.1719988 102.8793675  52.3466638  -0.6233135
 101.8200012  52.0714997   1.7959988 101.9660012  51.5514997   2.5859988
 101.8170012  52.9784997   2.1019988 101.8395989  52.1228853   1.9456088
  98.2730012  49.3244997   2.3059988  97.5870012  49.6764997   2.8729988
  98.7950012  50.0874997   2.0589988  98.2496852  49.4758578   2.3502118
 106.1040012  41.9864997  12.5849988 106.8030012  42.0604997  13.2349988
 105.7230012  41.1224997  12.7389988 106.1481767  41.8797624  12.6948322
 106.8890012  41.6384997   3.6819988 107.1090012  42.1104997   2.8789988
 107.4470012  42.0334997   4.3519988 106.9944968  41.7564285   3.6627331
 104.5570012  53.7694997   2.5449988 103.7410012  54.2664997   2.5969988
 105.0870012  54.2444997   1.9049988 104.5169161  53.9017722   2.4655956
 104.0890012  43.3664997   4.5169988 104.9010012  43.8714997   4.5629988
 103.8440012  43.2214997   5.4309988 104.1670520  43.4160375   4.6468517
 104.6240012  44.3524997  13.7019988 104.7430012  44.9264997  14.4589988
 105.2800012  43.6644997  13.8159988 104.7289757  44.3381079  13.8210825
 104.9720012  40.4474997   5.4549988 104.6260012  41.0654997   6.0999988
 105.6310012  40.9484997   4.9739988 105.0137826  40.5995802   5.4780971
 101.8960012  54.8134997   2.5269988 102.0560012  55.6124997   2.0259988
 101.6980012  55.1194997   3.4119988 101.8911649  54.9644469   2.5779815
 100.6300012  41.5104997   2.1419988 100.5470012  42.3994997   2.4889988
 101.5200012  41.2454997   2.3739988 100.7389469  41.5961430   2.2207626
 110.8290012  42.2594997  14.5369988 109.9120012  42.5224997  14.4489988
 111.1640012  42.2564997  13.6399988 110.7489900  42.2950224  14.4037919
 109.4310012  46.0104997   8.6319988 108.6330012  45.5954997   8.3039988
 109.8760012  45.3194997   9.1229988 109.3819885  45.8603543   8.6534889
  98.8890012  51.9384997   1.2029988  99.4810012  52.6374997   1.4789988
  99.3480012  51.5054997   0.4829988  99.0321142  51.9757049   1.1434830
  97.2050012  44.6024997   0.3189988  97.1600012  45.5414997   0.4969988
  96.3170012  44.3664997   0.0489988  97.0788574  44.6991892   0.3068912
 110.5170012  55.2664997  10.2549988 110.3620012  55.9444997   9.5979988
 111.4500012  55.3384997  10.4579988 110.6218500  55.3690170  10.1925119
  98.0130012  39.3844997   8.9919988  97.7840012  39.4434997   8.0639988
  97.5700012  38.5924997   9.2979988  97.9218530  39.2855753   8.9064786
  96.9430012  53.3244997   5.1519988  96.1110012  53.7974997   5.1799988
  97.4890012  53.8344997   4.5539988  96.9029739  53.4581871   5.0749716
  96.2310012  55.9374997  16.4819988  96.7720012  55.7204997  17.2419988
  95.7500012  55.1314997  16.2929988  96.2399345  55.7989514  16.5603076
 100.8290012  54.8564997  18.1029988 101.5960012  54.3974997  18.4439988
 100.8070012  54.6304997  17.1729988 100.9311434  54.7630409  18.0240043
 104.9210012  54.3644997  -0.5220012 104.2770012  53.7334997  -0.2010012
 105.6830012  53.8334997  -0.7540012 104.9358077  54.2062920  -0.5093989
 107.4060012  53.2364997  16.8319988 107.0550012  52.3804997  17.0749988
 108.1320012  53.3794997  17.4389988 107.4560769  53.1385636  16.9473619
 109.5250012  54.1814997  -0.2880012 109.8080012  53.3874997   0.1639988
 110.2650012  54.4144997  -0.8490012 109.6637486  54.1042803  -0.3019302
  96.1380012  49.7474997  17.4369988  96.2820012  48.8454997  17.1499988
  95.3660012  50.0334997  16.9489988  96.0533322  49.6628261  17.3317881
 100.4800012  50.0914997  -0.4310012 100.5440012  49.2974997   0.0999988
 101.1330012  49.9724997  -1.1210012 100.5770241  49.9667148  -0.4515683
 102.7940012  49.7174997  16.8689988 102.4650012  49.9884997  16.0119988
 102.9460012  48.7764997  16.7819988 102.7694809  49.6273862  16.7398244
 105.8320012  51.1384997  -0.6950012 105.5630012  51.3184997   0.2059988
 105.6260012  50.2124997  -0.8260012 105.7673825  51.0380152  -0.5894786
 108.5280012  49.6334997  14.2529988 109.2740012  50.2214997  14.1329988
 107.7710012  50.2154997  14.3159988 108.5277554  49.7927011  14.2450907
  96.9710012  46.9474997  16.8569988  97.3790012  46.0904997  16.7359988
  96.7110012  46.9624997  17.7779988  96.9917568  46.8320807  16.9649588
 101.6290012  48.0634997   1.8749988 101.1690012  47.5794997   2.5609988
 101.8840012  47.3954997   1.2389988 101.6004902  47.9068731   1.8829334
 100.9180012  45.9564997  14.2309988 100.3000012  46.6314997  14.5109988
 101.2620012  46.2774997  13.3979988 100.8799615  46.0922721  14.1566581
 102.7000012  46.3064997   0.1369988 102.5200012  46.1524997  -0.7900012
 103.6500012  46.4144997   0.1819988 102.8037776  46.3000175   0.0161843
 105.9380012  48.4284997  17.5079988 106.8910012  48.5114997  17.4809988
 105.7770012  47.7164997  18.1279988 106.0466426  48.3436746  17.5880579
 112.0900012  48.6614997  -0.4170012 111.8160012  48.2364997  -1.2300012
 112.1290012  49.5924997  -0.6340012 112.0577699  48.7292484  -0.5576390
 101.2570012  43.3114997  15.3129988 101.4070012  42.5824997  14.7109988
 101.2600012  44.0884997  14.7539988 101.2779302  43.3167851  15.1550692
 101.6700012  41.6814997  12.8059988 102.2060012  42.1324997  12.1539988
 100.8180012  41.5734997  12.3829988 101.6282178  41.7286390  12.6595756
 103.2520012  47.1204997  13.0449988 104.0020012  46.9644997  12.4719988
 102.9130012  47.9724997  12.7699988 103.3088921  47.2142968  12.9293561
 107.6670012  44.9354997  18.0739988 107.8600012  44.0044997  17.9619988
 108.5250012  45.3604997  18.0639988 107.8093020  44.8656389  18.0573361
 108.9840012  47.7244997  16.1509988 108.7030012  48.4334997  15.5739988
 109.9270012  47.6514997  15.9999988 109.0729027  47.8117646  16.0515551
  99.7360012  44.5094997  17.2249988  98.9690012  43.9774997  17.0149988
 100.4150012  44.1994997  16.6249988  99.7227022  44.3947506  17.1151648
 102.4760012  39.1374997  13.2369988 102.3770012  40.0844997  13.1319988
 101.7330012  38.7654997  12.7619988 102.3620564  39.2165902  13.1584560
 103.7400012  43.4594997  16.8009988 103.5040012  43.2394997  17.7029988
 102.9560012  43.2524997  16.2909988 103.6018628  43.4014760  16.8553932
 106.4550012  42.5864997  15.8769988 105.5080012  42.6184997  16.0089988
 106.7680012  41.9614997  16.5299988 106.3675475  42.5063207  15.9834455
 108.0890012  41.2204997  17.8819988 107.9930012  40.2684997  17.8759988
 107.7680012  41.4894997  18.7419988 108.0324070  41.1264035  17.9975441
  97.9160012  42.4304997  16.9289988  98.1280012  41.7234997  16.3189988
  97.8050012  41.9924997  17.7729988  97.9299721  42.2747084  16.9596843
 102.6970012  38.4314997  15.9089988 103.4090012  37.7914997  15.8949988
 102.5960012  38.6984997  14.9949988 102.7807939  38.3799938  15.7835650
 103.0510012  40.1144997  17.9619988 102.9190012  39.6384997  17.1419988
 102.4520012  40.8584997  17.9069988 102.9519071  40.1499618  17.8422886
 102.5970012  56.9974997   1.1389988 103.5300012  57.1554997   1.2819988
 102.3330012  57.6724997   0.5139988 102.6889510  57.1103611   1.0740741
  96.1660012  51.6334997   0.6209988  97.0800012  51.7124997   0.8949988
  96.1730012  50.9464997  -0.0450012  96.2921131  51.5513961   0.5684393
  94.8150012  57.0264997   5.6989988  94.1680012  56.5644997   5.1659988
  95.1690012  56.3544997   6.2809988  94.7743849  56.8724723   5.7047959
  95.6850012  55.1074997   7.5029988  95.3500012  54.2274997   7.6749988
  95.9070012  55.4524997   8.3679988  95.6691783  55.0337500   7.6434208
 113.2330012  55.9164997  10.4839988 113.2120012  56.1014997  11.4229988
 113.9240012  56.4854997  10.1429988 113.3234618  56.0186606  10.5663864
 112.7970012  55.4844997  13.4059988 112.3090012  54.7484997  13.0349988
 113.3460012  55.0904997  14.0839988 112.8044872  55.3306249  13.4469160
 111.2470012  51.2734997  18.0439988 110.3810012  51.1684997  18.4379988
 111.6240012  52.0324997  18.4899988 111.1793308  51.3616900  18.1582393
 112.5480012  49.5304997   3.5579988 113.3980012  49.9514997   3.6849988
 112.5540012  48.7904997   4.1649988 112.6651372  49.4880803   3.6574344
 112.9430012  47.5834997   5.3819988 112.2160012  47.1044997   5.7789988
 113.5240012  47.7894997   6.1139988 112.9219375  47.5457090   5.5354129
 112.7020012  50.3684997  10.3289988 113.5350012  49.9904997  10.0489988
 112.8140012  51.3114997  10.2099988 112.8312647  50.4442218  10.2745487
 111.1880012  53.2464997  12.6359988 110.5410012  53.5714997  13.2619988
 110.6710012  52.8064997  11.9619988 111.0294029  53.2315004  12.6305827
 113.2110012  47.4844997   1.7729988 112.6890012  47.8414997   1.0539988
 113.1780012  48.1594997   2.4509988 113.1351634  47.6245413   1.7663145
 111.5600012  44.7244997   0.3239988 111.6560012  45.3914997  -0.3570012
 111.4200012  43.9084997  -0.1580012 111.5542135  44.7054500   0.1658491
 110.7290012  46.1044997   5.9449988 110.5790012  45.1594997   5.9239988
 110.3760012  46.3854997   6.7879988 110.6606625  46.0130441   6.0562346
  95.7650012  48.1824997   9.9549988  95.9490012  48.1004997   9.0189988
  96.6140012  48.0584997  10.3789988  95.9050139  48.1545003   9.8841455
 111.5860012  48.0744997  15.5829988 112.1690012  47.3404997  15.7749988
 112.1500012  48.8464997  15.6299988 111.7419769  48.0784227  15.6156159
 113.0820012  45.9774997  16.2679988 112.2190012  45.5984997  16.1019988
 113.6870012  45.2384997  16.1939988 113.0455979  45.8258023  16.2352817
 110.8070012  42.1324997  -0.5590012 111.4180012  41.7614997   0.0779988
 109.9710012  41.7114997  -0.3630012 110.7775032  42.0247554  -0.4452965
 110.4400012  43.6874997   4.4069988 110.7200012  42.7804997   4.5309988
 111.1990012  44.1214997   4.0179988 110.5809277  43.6220942   4.3713682
 111.0520012  44.2684997   9.8429988 111.9850012  44.4804997   9.8089988
 110.8170012  44.3704997  10.7649988 111.1478036  44.3112769   9.9629976
 111.0810012  45.0054997  12.6189988 110.2380012  45.2734997  12.9849988
 111.5230012  45.8274997  12.4079988 111.0254158  45.1533291  12.6405491
  95.3620012  43.4534997  16.0959988  96.2820012  43.3314997  16.3319988
  94.9130012  42.7034997  16.4849988  95.4271580  43.3353727  16.1809006
 113.3640012  38.9854997  17.9719988 113.7140012  38.3314997  17.3669988
 113.5110012  39.8224997  17.5329988 113.4318419  39.0091591  17.8297118
 111.0530012  40.9504997   4.4549988 111.2360012  40.5014997   5.2809988
 110.4540012  40.3654997   3.9919988 110.9970202  40.8099975   4.5053275
  96.5830012  41.7654997   8.9869988  97.0290012  40.9734997   9.2889988
  97.0500012  42.4814997   9.4179988  96.7070172  41.7540624   9.0864820
  94.8870012  44.7644997  10.0559988  95.3790012  44.5434997   9.2649988
  95.2500012  45.6054997  10.3369988  95.0033126  44.8478357   9.9857531
 112.8840012  41.0944997  16.3219988 111.9660012  41.3654997  16.2859988
 113.0070012  40.5594997  15.5369988 112.7751066  41.0592892  16.2110487
 112.9200012  41.0174997   0.9829988 113.3320012  40.2964997   0.5079988
 113.6020012  41.6874997   1.0419988 113.0685885  41.0092368   0.9258915
  95.2010012  41.0224997   4.1099988  94.2760012  41.2314997   3.9809988
  95.6550012  41.5064997   3.4209988  95.1357368  41.1165993   3.9991226
 109.9720012  56.0064997   6.0559988 110.6240012  55.6594997   5.4479988
 110.4820012  56.4954997   6.7019988 110.1302637  56.0250597   6.0600236
  95.1650012  39.7604997  12.4549988  94.5000012  39.5144997  13.0979988
  94.7220012  40.3824997  11.8769988  95.0140956  39.8108632  12.4649352
  97.3570012  52.9354997  16.5989988  96.5360012  53.1104997  16.1389988
  97.1040012  52.8624997  17.5199988  97.2106164  52.9495622  16.6604923
 100.3110012  53.9104997  12.8579988  99.8860012  54.7194997  12.5749988
 101.2150012  53.9954997  12.5559988 100.3750271  54.0328469  12.7783776
 104.6220012  55.3094997  15.8169988 104.8070012  54.9754997  16.6949988
 105.4680012  55.6184997  15.4949988 104.7617539  55.3056047  15.8935605
 106.9670012  56.5954997  15.0609988 107.6440012  55.9624997  14.8209988
 107.2890012  56.9964997  15.8679988 107.1031637  56.5631154  15.1372793
 111.8840012  39.1844997  14.1409988 111.0720012  39.5094997  13.7529988
 112.1170012  38.4244997  13.6079988 111.8043423  39.1262436  14.0158253
  97.7130012  57.1664997  12.9049988  96.9920012  57.6064997  12.4539988
  97.3470012  56.9154997  13.7539988  97.5649804  57.1927698  12.9579840
 100.1800012  56.7664997  11.9349988  99.3150012  56.8384997  12.3389988
 100.1250012  57.3134997  11.1509988 100.0542085  56.8502685  11.8843362
 104.8900012  56.6544997  11.1099988 104.4340012  57.1834997  10.4559988
 105.0530012  57.2574997  11.8359988 104.8495585  56.8084468  11.1185062
 107.2180012  55.5324997  12.0549988 106.3130012  55.6974997  11.7899988
 107.6470012  56.3854997  11.9899988 107.1520799  55.6704483  12.0099182
 109.8220012  57.1024997  12.3499988 109.6400012  58.0184997  12.1399988
 109.9990012  56.6924997  11.5039988 109.8210210  57.1724822  12.2067885
  97.1270012  55.7894997   9.8149988  97.1090012  55.3644997  10.6729988
  97.9320012  55.4714997   9.4069988  97.2333875  55.6883812   9.8771655
  99.2690012  54.4994997   8.4699988  99.0500012  53.5834997   8.6399988
 100.0930012  54.6394997   8.9359988  99.3504420  54.3930520   8.5562774
 101.8060012  54.9694997   9.3189988 102.0190012  54.0814997   9.0319988
 101.8700012  54.9354997  10.2729988 101.8438232  54.8433102   9.4087397
 105.3140012  40.6334997   8.4629988 104.6400012  40.0044997   8.7189988
 105.8780012  40.1494997   7.8599988 105.2979230  40.4818744   8.4165340
 110.4570012  38.7414997   8.5759988 111.0610012  39.2884997   8.0739988
 109.5870012  39.0604997   8.3359988 110.4221241  38.8595806   8.4747654
 112.1840012  39.8794997   6.9089988 112.7960012  39.3654997   6.3829988
 112.5660012  40.7574997   6.9329988 112.3194540  39.9277140   6.8401830
  97.6410012  39.2674997   6.2849988  96.8640012  39.0334997   5.7779988
  98.1710012  38.4704997   6.2939988  97.6062330  39.1276988   6.2167742
  96.4770012  39.0654997   2.0889988  96.9160012  39.6764997   1.4969988
  95.8440012  39.6034997   2.5629988  96.4514514  39.2219257   2.0720930
 102.2200012  39.1944997   6.0989988 103.0950012  39.5824997   6.0689988
 102.0840012  38.9794997   7.0209988 102.3213695  39.2185184   6.2196440
 107.7770012  39.2244997   7.7479988 107.8530012  39.3194997   6.7979988
 107.5020012  38.3164997   7.8769988 107.7502321  39.1147867   7.6355079
 109.1300012  39.2504997   3.4399988 108.4280012  39.8654997   3.2309988
 108.6860012  38.4124997   3.5709988 108.9736330  39.2215783   3.4290328
  96.3780012  55.0134997   2.9869988  95.6930012  54.9754997   2.3189988
  96.3820012  55.9264997   3.2749988  96.2848193  55.1317016   2.9345284
  98.3380012  40.9814997   0.5309988  98.8300012  40.3514997   0.0039988
  98.9620012  41.2774997   1.1949988  98.4895446  40.9353199   0.5485980
 103.3640012  41.2744997   2.9879988 103.5420012  40.6284997   3.6709988
 103.3110012  42.1084997   3.4559988 103.3811829  41.2987985   3.1445940
 105.2430012  56.2234997   1.3839988 106.1090012  56.5894997   1.2059988
 104.9960012  55.7834997   0.5699988 105.3282392  56.2141756   1.2496289
 111.9520012  55.7864997   4.0629988 111.7570012  55.0384997   3.4979988
 111.9130012  56.5444997   3.4799988 111.9200380  55.7866099   3.9068384
  97.5990012  39.7814997  15.8029988  97.2330012  39.0164997  16.2459988
  98.5120012  39.8104997  16.0899988  97.6722790  39.6807224  15.9024070
  99.5720012  39.1324997  17.3389988 100.4700012  38.8584997  17.1539988
  99.1850012  38.3894997  17.8029988  99.6426612  38.9945914  17.3763643
  98.1960012  55.9334997   0.0119988  97.9290012  56.2204997   0.8849988
  98.9680012  55.3874997   0.1639988  98.2637488  55.8990294   0.1521050
 107.9930012  38.4644997  17.5209988 108.0700012  38.0384997  18.3749988
 108.8870012  38.4784997  17.1779988 108.1243428  38.4080879  17.5915310
 111.1690012  54.5374997  16.2129988 110.3870012  54.3514997  15.6939988
 111.0970012  55.4664997  16.4309988 111.0521777  54.6376492  16.1714048
 125.5750012  48.4234997   6.2439988 125.6640012  49.3674997   6.1119988
 124.9370012  48.1484997   5.5859988 125.5009081  48.5154830   6.1369614
 124.5080012  47.6784997   9.6629988 124.4700012  47.0324997  10.3679988
 124.1860012  47.2124997   8.8919988 124.4592333  47.5269408   9.6552978
 116.8770012  47.2934997  11.2559988 116.9180012  46.6674997  11.9789988
 117.5800012  47.9174997  11.4379988 116.9776363  47.2921196  11.3796044
 128.2140012  50.6174997   7.9639988 127.7740012  49.8974997   8.4149988
 128.2010012  51.3384997   8.5939988 128.1520226  50.6163731   8.1108494
 117.8000012  51.7434997   9.7909988 117.4310012  50.9414997   9.4209988
 118.7410012  51.5744997   9.8369988 117.8767289  51.6110153   9.7466316
 114.4100012  45.4034997   5.1839988 113.9630012  46.2494997   5.1649988
 113.8490012  44.8234997   4.6679988 114.2729900  45.4409916   5.1116801
 115.1210012  47.5654997   7.3099988 115.3340012  46.7954997   7.8369988
 115.8590012  47.6544997   6.7059988 115.2498496  47.4721394   7.3005300
 125.3260012  55.7224997   8.1769988 125.9460012  55.0454997   7.9029988
 125.1180012  55.5044997   9.0849988 125.3826904  55.6003870   8.2623365
 122.8980012  50.1114997  10.0689988 123.2020012  49.4254997   9.4739988
 123.6190012  50.2294997  10.6869988 123.0370671  50.0336305  10.0711816
 131.5610012  41.7124997  10.9299988 131.6100012  42.3224997  11.6659988
 131.9860012  42.1734997  10.2069988 131.6251824  41.8583741  10.9330205
 126.0390012  44.5054997  10.3969988 126.1810012  43.5594997  10.4169988
 125.9320012  44.7124997   9.4679988 126.0439864  44.4039534  10.2742339
 119.1930012  42.6064997   7.6689988 119.2370012  43.4664997   7.2509988
 118.7360012  42.0544997   7.0349988 119.1372185  42.6495799   7.5260299
 126.9160012  42.7374997   6.0699988 127.5620012  42.4084997   6.6949988
 127.4260012  43.2554997   5.4469988 127.0734264  42.7624611   6.0713862
 115.8140012  45.0034997   8.4309988 116.4670012  44.4534997   8.8629988
 115.8380012  44.7294997   7.5139988 115.9066683  44.8911466   8.3662123
 120.9700012  46.5534997   7.6459988 121.5860012  46.0274997   8.1559988
 120.3840012  45.9134997   7.2429988 120.9750810  46.3949208   7.6613173
 131.9520012  43.1904997  13.1659988 131.2640012  43.8484997  13.0699988
 131.9680012  42.9934997  14.1019988 131.8598525  43.2540462  13.2794808
 118.0040012  41.5244997  11.7429988 117.7850012  42.0544997  10.9769988
 117.3360012  41.7514997  12.3899988 117.8837600  41.6276906  11.7256379
 125.3730012  51.0244997   5.2869988 125.0770012  50.7024997   4.4359988
 125.0480012  51.9244997   5.3279988 125.2886371  51.1020215   5.1761801
 120.5730012  49.2004997  12.0299988 119.8330012  49.7984997  12.1339988
 121.2870012  49.7544997  11.7149988 120.5682237  49.3572831  12.0016465
 128.6800012  42.0284997   8.0499988 128.4640012  41.2624997   8.5829988
 129.3350012  42.5004997   8.5629988 128.7390632  41.9875889   8.1922861
 117.5970012  43.4164997   9.6949988 118.2110012  44.0494997  10.0689988
 118.1090012  42.9444997   9.0389988 117.7502296  43.4392370   9.6574252
 118.9800012  51.1644997  12.8179988 118.9750012  52.0444997  12.4399988
 118.1270012  51.0814997  13.2429988 118.8639464  51.2736117  12.8237907
 115.1010012  50.8354997   3.5999988 114.8290012  51.0644997   2.7109988
 115.1470012  51.6734997   4.0599988 115.0700094  50.9801213   3.5405697
 128.7260012  52.4574997  10.3119988 127.7850012  52.5154997  10.4739988
 129.0030012  53.3634997  10.1749988 128.6344679  52.5879443  10.3156815
 129.0270012  40.7434997  11.7299988 128.2910012  41.3544997  11.6919988
 129.7100012  41.1584997  11.2029988 129.0186541  40.8831374  11.6535832
 122.0300012  38.8304997   9.1959988 121.9130012  37.8814997   9.1409988
 121.1750012  39.1624997   9.4689988 121.8983733  38.7455409   9.2253897
 126.9780012  54.2384997   6.9379988 127.4040012  53.5314997   6.4529988
 127.2950012  55.0394997   6.5209988 127.0791019  54.2500994   6.8153130
 128.1380012  52.1394997   5.4459988 127.8800012  51.4494997   4.8349988
 128.2090012  51.6964997   6.2919988 128.1122856  51.9852124   5.4766885
 129.8240012  50.7054997  13.9239988 129.9640012  50.1144997  13.1839988
 129.9910012  51.5784997  13.5669988 129.8656778  50.7426426  13.7746965
 124.2970012  47.6674997   3.6959988 123.5850012  48.2024997   3.3439988
 124.9880012  47.7234997   3.0359988 124.2930132  47.7482543   3.5586289
 124.3500012  46.1254997   0.7349988 125.0510012  46.1474997   1.3859988
 124.6530012  45.4974997   0.0789988 124.4867830  46.0436566   0.7353711
 131.6660012  47.0454997  11.9899988 131.0130012  47.7404997  12.0789988
 132.1310012  47.2554997  11.1799988 131.6395390  47.1689425  11.8926883
 127.7020012  47.8774997   4.6479988 126.9700012  48.1054997   5.2209988
 128.1500012  47.1634997   5.1029988 127.6623095  47.8122571   4.7879119
 127.6000012  46.0514997  13.7149988 127.6800012  46.8144997  14.2869988
 126.9980012  46.3304997  13.0249988 127.5295756  46.1937134  13.7000589
 119.3480012  48.5074997   6.5299988 119.0170012  48.1374997   5.7119988
 119.9360012  47.8374997   6.8769988 119.3821873  48.3661156   6.4648102
 120.7140012  51.9354997   9.2119988 120.6200012  51.3574997   8.4549988
 121.4440012  51.5644997   9.7079988 120.7997981  51.8062390   9.1754165
 119.7140012  47.2764997  10.1639988 120.2800012  47.3974997   9.4009988
 120.0330012  47.9134997  10.8029988 119.8345786  47.3791884  10.1460040
 126.0230012  52.7794997  10.8979988 125.7830012  53.4414997  11.5459988
 125.8250012  51.9454997  11.3229988 125.9633808  52.7573134  11.0441524
 120.5940012  51.6754997  14.8809988 120.2830012  52.4574997  15.3359988
 119.9440012  51.5224997  14.1949988 120.4635558  51.7619105  14.8505871
 126.5730012  47.0394997   2.3329988 127.1530012  47.1894997   3.0799988
 126.9870012  47.5104997   1.6099988 126.7082830  47.1236841   2.3374134
 117.5140012  47.8734997  14.1099988 117.5850012  48.5244997  14.8079988
 116.6240012  47.9764997  13.7749988 117.4033117  47.9765936  14.1602700
 124.3000012  53.7764997   5.7679988 124.7740012  54.0714997   6.5459988
 123.7370012  54.5144997   5.5349988 124.2887653  53.9166932   5.8430136
 118.8340012  53.7474997  15.6439988 118.8410012  53.6114997  14.6969988
 117.9180012  53.6294997  15.8959988 118.7111714  53.7129430  15.5484666
 130.2720012  38.7894997   2.1459988 129.3720012  38.9284997   2.4409988
 130.5240012  39.6204997   1.7439988 130.1828702  38.9209074   2.1320205
 118.3380012  47.5774997   4.1199988 118.0460012  48.3454997   3.6289988
 117.6640012  46.9174997   3.9569988 118.2069081  47.5934406   4.0307340
 131.4610012  53.1554997   0.5219988 131.5350012  54.0944997   0.6929988
 132.3670012  52.8504997   0.4659988 131.5935100  53.2426722   0.5378119
 114.4310012  49.9404997  12.9349988 113.9300012  49.9124997  12.1199988
 114.4360012  49.0344997  13.2439988 114.3631526  49.8142278  12.8652872
 114.1810012  52.7204997   9.8189988 115.1270012  52.5764997   9.7999988
 114.0690012  53.5044997  10.3559988 114.2952727  52.8068046   9.8890072
 132.3790012  53.3864997  15.5009988 132.3300012  52.4314997  15.4639988
 131.5520012  53.6544997  15.9019988 132.2604940  53.2918998  15.5501375
 123.3580012  52.9604997  14.3769988 123.4450012  53.7864997  14.8519988
 122.4940012  52.6304997  14.6259988 123.2531964  53.0289878  14.4756549
 123.7720012  56.7324997   4.1829988 123.6970012  56.6114997   3.2369988
 123.8050012  57.6824997   4.3019988 123.7661848  56.8442500   4.0694834
 117.4250012  55.5214997   5.9639988 117.5780012  55.1734997   6.8429988
 116.5750012  55.1654997   5.7089988 117.3308962  55.4256650   6.0498340
 126.8740012  55.8864997   1.1849988 127.2490012  55.1424997   0.7149988
 126.8780012  55.6164997   2.1039988 126.9258915  55.7481486   1.2447824
 126.5430012  55.8124997   3.9349988 125.6070012  55.9124997   4.1129988
 126.8230012  55.1034997   4.5129988 126.4528255  55.7302711   4.0375391
 129.5310012  44.8794997  15.9809988 129.1240012  45.3604997  15.2599988
 129.5720012  43.9744997  15.6729988 129.4808437  44.8229374  15.8406683
 116.6800012  51.2634997  13.9779988 116.8960012  50.9024997  14.8369988
 115.8250012  50.8894997  13.7679988 116.5939292  51.1634111  14.0673386
 119.2990012  39.7334997   9.9729988 118.4370012  39.6464997   9.5659988
 119.2760012  40.5894997  10.4009988 119.1780330  39.8372765   9.9751863
 123.9620012  39.4554997  13.3479988 124.3820012  39.0404997  14.1009988
 123.0290012  39.2774997  13.4649988 123.8933644  39.3745900  13.4669539
 127.2880012  43.2114997  14.2009988 126.7740012  43.0854997  14.9989988
 127.1330012  44.1234997  13.9569988 127.1966852  43.3176132  14.2772158
 128.0510012  48.0724997  -0.0370012 128.0930012  47.8494997  -0.9670012
 128.9000012  48.4714997   0.1529988 128.1715396  48.0959155  -0.1386373
 123.6230012  41.9484997   0.6329988 123.3700012  41.9674997   1.5559988
 123.3670012  41.0764997   0.3319988 123.5537790  41.8332437   0.7186263
 119.3900012  44.6994997  11.0679988 118.7480012  44.6584997  11.7769988
 119.4270012  45.6254997  10.8309988 119.3071324  44.8191559  11.1329824
 119.3870012  44.9204997   5.9799988 118.4940012  44.5794997   5.9219988
 119.8370012  44.5434997   5.2249988 119.3257305  44.8228484   5.8699177
 124.9220012  45.3364997   4.7969988 124.5130012  46.1514997   4.5059988
 125.6430012  45.1964997   4.1829988 124.9634537  45.4292018   4.6741342
 124.0240012  45.5114997  16.2849988 123.4620012  44.8074997  16.6059988
 124.8510012  45.3914997  16.7529988 124.0587095  45.3987883  16.3922330
 125.9270012  44.7824997   7.6109988 125.7320012  45.3874997   6.8959988
 126.1080012  43.9484997   7.1769988 125.9247614  44.7526300   7.4544405
 117.1400012  45.0194997  12.9349988 117.1020012  45.4194997  13.8039988
 116.6490012  44.2024997  13.0259988 117.0684684  44.9638069  13.0661059
 120.5060012  42.3934997  -0.2660012 120.0750012  41.9484997   0.4639988
 119.7880012  42.7654997  -0.7780012 120.3499438  42.3828940  -0.2353201
 113.7480012  42.1354997   6.7859988 114.3790012  42.1064997   7.5049988
 114.1970012  41.7104997   6.0559988 113.8950774  42.0740492   6.7856553
 115.0220012  42.8814997   2.2099988 115.4960012  43.4724997   1.6249988
 114.3050012  43.4124997   2.5569988 114.9899341  43.0340867   2.1768836
 125.1910012  46.4204997  12.2829988 125.5140012  45.7894997  11.6399988
 124.7510012  45.8854997  12.9429988 125.1756895  46.2618441  12.2842850
 121.9680012  42.3474997   7.0669988 121.0570012  42.4044997   7.3549988
 122.4740012  42.2874997   7.8769988 121.9115413  42.3471985   7.2160622
 116.7970012  43.9764997   5.8929988 115.9070012  44.0764997   5.5529988
 117.0930012  43.1344997   5.5469988 116.7152823  43.8763545   5.7997213
 120.4500012  43.9764997   3.5499988 121.3810012  44.1054997   3.7279988
 120.2350012  44.6464997   2.8999988 120.5484247  44.0846565   3.4865747
 126.3730012  41.5824997  10.3309988 125.6970012  41.7134997  10.9949988
 125.8880012  41.4274997   9.5209988 126.2147145  41.5794905  10.3124517
 119.1240012  45.1714997   1.1169988 118.5810012  44.7914997   0.4249988
 119.9570012  45.3654997   0.6879988 119.1624399  45.1458124   0.9644526
 129.6610012  57.2544997  16.6079988 129.8610012  57.6784997  15.7729988
 130.3160012  57.5974997  17.2149988 129.7770051  57.3589648  16.5757836
 117.2590012  49.7284997  16.2159988 117.9910012  49.9824997  16.7769988
 116.4790012  49.9324997  16.7309988 117.2538232  49.7909177  16.3625760
 123.2880012  45.1354997   8.9539988 123.8530012  44.5884997   8.4069988
 123.1410012  44.6134997   9.7419988 123.3452918  44.9902024   8.9858454
 118.2900012  41.2714997   5.3719988 117.9730012  40.3694997   5.3369988
 119.0720012  41.2734997   4.8189988 118.3522284  41.1481628   5.2924783
 121.9150012  43.5234997  11.3679988 121.0790012  43.9774997  11.4779988
 122.4390012  43.7994997  12.1199988 121.8714414  43.6229376  11.4847136
 122.4590012  49.7364997   3.0519988 121.7140012  49.2294997   2.7299988
 122.3250012  49.7854997   3.9989988 122.3388776  49.6736940   3.1358647
 129.6090012  48.8694997  11.8389988 130.2510012  49.3264997  11.2949988
 128.7790012  48.9824997  11.3759988 129.5845963  48.9472704  11.7020177
 126.3570012  42.5504997   1.2519988 125.4180012  42.6624997   1.0999988
 126.6540012  43.4074997   1.5579988 126.2687666  42.6816443   1.2725768
 123.9780012  49.9204997  14.2889988 123.6330012  49.5394997  15.0959988
 123.7780012  50.8544997  14.3609988 123.9038061  49.9945228  14.4090961
 127.0750012  44.4174997   2.9119988 127.9670012  44.2804997   3.2309988
 127.1320012  45.2084997   2.3759988 127.2046285  44.5056660   2.8831691
 117.5840012  49.0314997   8.8219988 118.3290012  49.0294997   8.2209988
 117.6620012  48.2084997   9.3039988 117.6965518  48.9199315   8.8048929
 124.5850012  51.1954997   2.0779988 124.2890012  52.0214997   2.4589988
 123.8820012  50.5754997   2.2739988 124.4494914  51.2248199   2.1566443
 114.5920012  47.4924997  14.1369988 114.8150012  47.0744997  14.9689988
 113.9900012  46.8794997  13.7139988 114.5411759  47.3524668  14.1937022
 121.6080012  47.0094997  16.3499988 121.3120012  46.8434997  15.4549988
 122.5400012  46.7894997  16.3389988 121.6934166  46.9570640  16.2260536
 126.2290012  52.3824997  14.2399988 125.3280012  52.5654997  13.9719988
 126.2630012  52.6414997  15.1609988 126.1103041  52.4425512  14.3278197
 131.9600012  44.6274997   2.6069988 131.4060012  44.2314997   1.9349988
 132.0600012  45.5374997   2.3289988 131.8977059  44.6963586   2.4774401
 131.9230012  50.4274997  15.4439988 131.0720012  50.6654997  15.0769988
 132.5140012  50.4104997  14.6909988 131.8862487  50.4578258  15.2918893
 130.2550012  53.4134997   3.0719988 129.8820012  52.5874997   3.3809988
 130.5330012  53.2304997   2.1749988 130.2415630  53.2757303   2.9929626
 127.4160012  48.2214997  10.0929988 126.4870012  47.9894997  10.0659988
 127.8670012  47.4444997   9.7629988 127.3499216  48.0847238  10.0446917
 119.9590012  52.5494997   6.2259988 120.4860012  53.3224997   6.0259988
 119.0790012  52.7744997   5.9249988 119.9121773  52.6858005   6.1579010
 115.7140012  47.4114997   0.8129988 116.3300012  48.0384997   1.1929988
 114.8520012  47.7274997   1.0849988 115.6817698  47.5399430   0.9017183
 121.3860012  50.2124997   5.8029988 121.1450012  51.1374997   5.8439988
 120.6450012  49.7534997   6.1989988 121.2528409  50.2771421   5.8621377
 121.9010012  54.3614997  12.1179988 122.2630012  55.2164997  11.8839988
 122.4320012  54.0694997  12.8579988 122.0224473  54.4391060  12.1860855
 120.0690012  55.2344997   5.3479988 119.1190012  55.3394997   5.3989988
 120.4210012  56.0544997   5.6929988 119.9864203  55.3598314   5.4016650
 125.4450012  50.4604997  11.8179988 125.0190012  50.2334997  12.6449988
 126.0250012  49.7224997  11.6359988 125.4651868  50.3295299  11.9065830
 127.6480012  51.3894997   0.8919988 128.0010012  51.0094997   1.6969988
 126.6990012  51.2964997   0.9789988 127.5680441  51.3249596   1.0138559
 128.1030012  55.0124997  14.2879988 127.5020012  54.4574997  13.7919988
 128.3850012  55.6794997  13.6619988 128.0588519  55.0266841  14.1354952
 132.1510012  55.8694997   1.0929988 132.8950012  56.4554997   0.9529988
 131.4570012  56.4374997   1.4269988 132.1590292  56.0265582   1.1189961
 116.2260012  42.2454997  13.6949988 115.3330012  42.5844997  13.6269988
 116.1270012  41.3904997  14.1129988 116.0904164  42.1762588  13.7422235
 128.5140012  50.0624997   3.1189988 128.2360012  49.3344997   3.6749988
 129.4410012  50.1814997   3.3239988 128.6013124  49.9788802   3.2228845
 115.8770012  54.0504997  12.1299988 116.0940012  53.1184997  12.0989988
 116.1230012  54.3244997  13.0129988 115.9399549  53.9600636  12.2451763
 121.7390012  52.5014997  -0.6610012 121.9780012  51.7534997  -1.2080012
 121.4700012  52.1134997   0.1719988 121.7353675  52.3466638  -0.6233135
 120.6760012  52.0714997   1.7959988 120.8220012  51.5514997   2.5859988
 120.6730012  52.9784997   2.1019988 120.6955989  52.1228853   1.9456088
 117.1290012  49.3244997   2.3059988 116.4430012  49.6764997   2.8729988
 117.6510012  50.0874997   2.0589988 117.1056852  49.4758578   2.3502118
 124.9600012  41.9864997  12.5849988 125.6590012  42.0604997  13.2349988
 124.5790012  41.1224997  12.7389988 125.0041767  41.8797624  12.6948322
 125.7450012  41.6384997   3.6819988 125.9650012  42.1104997   2.8789988
 126.3030012  42.0334997   4.3519988 125.8504968  41.7564285   3.6627331
 123.4130012  53.7694997   2.5449988 122.5970012  54.2664997   2.5969988
 123.9430012  54.2444997   1.9049988 123.3729161  53.9017722   2.4655956
 122.9450012  43.3664997   4.5169988 123.7570012  43.8714997   4.5629988
 122.7000012  43.2214997   5.4309988 123.0230520  43.4160375   4.6468517
 123.4800012  44.3524997  13.7019988 123.5990012  44.9264997  14.4589988
 124.1360012  43.6644997  13.8159988 123.5849757  44.3381079  13.8210825
 123.8280012  40.4474997   5.4549988 123.4820012  41.0654997   6.0999988
 124.4870012  40.9484997   4.9739988 123.8697826  40.5995802   5.4780971
 120.7520012  54.8134997   2.5269988 120.9120012  55.6124997   2.0259988
 120.5540012  55.1194997   3.4119988 120.7471649  54.9644469   2.5779815
 119.4860012  41.5104997   2.1419988 119.4030012  42.3994997   2.4889988
 120.3760012  41.2454997   2.3739988 119.5949469  41.5961430   2.2207626
 129.6850012  42.2594997  14.5369988 128.7680012  42.5224997  14.4489988
 130.0200012  42.2564997  13.6399988 129.6049900  42.2950224  14.4037919
 128.2870012  46.0104997   8.6319988 127.4890012  45.5954997   8.3039988
 128.7320012  45.3194997   9.1229988 128.2379885  45.8603543   8.6534889
 117.7450012  51.9384997   1.2029988 118.3370012  52.6374997   1.4789988
 118.2040012  51.5054997   0.4829988 117.8881142  51.9757049   1.1434830
 116.0610012  44.6024997   0.3189988 116.0160012  45.5414997   0.4969988
 115.1730012  44.3664997   0.0489988 115.9348574  44.6991892   0.3068912
 129.3730012  55.2664997  10.2549988 129.2180012  55.9444997   9.5979988
 130.3060012  55.3384997  10.4579988 129.4778500  55.3690170  10.1925119
 116.8690012  39.3844997   8.9919988 116.6400012  39.4434997   8.0639988
 116.4260012  38.5924997   9.2979988 116.7778530  39.2855753   8.9064786
 115.7990012  53.3244997   5.1519988 114.9670012  53.7974997   5.1799988
 116.3450012  53.8344997   4.5539988 115.7589739  53.4581871   5.0749716
 115.0870012  55.9374997  16.4819988 115.6280012  55.7204997  17.2419988
 114.6060012  55.1314997  16.2929988 115.0959345  55.7989514  16.5603076
 119.6850012  54.8564997  18.1029988 120.4520012  54.3974997  18.4439988
 119.6630012  54.6304997  17.1729988 119.7871434  54.7630409  18.0240043
 123.7770012  54.3644997  -0.5220012 123.1330012  53.7334997  -0.2010012
 124.5390012  53.8334997  -0.7540012 123.7918077  54.2062920  -0.5093989
 126.2620012  53.2364997  16.8319988 125.9110012  52.3804997  17.0749988
 126.9880012  53.3794997  17.4389988 126.3120769  53.1385636  16.9473619
 128.3810012  54.1814997  -0.2880012 128.6640012  53.3874997   0.1639988
 129.1210012  54.4144997  -0.8490012 128.5197486  54.1042803  -0.3019302
 114.9940012  49.7474997  17.4369988 115.1380012  48.8454997  17.1499988
 114.2220012  50.0334997  16.9489988 114.9093322  49.6628261  17.3317881
 119.3360012  50.0914997  -0.4310012 119.4000012  49.2974997   0.0999988
 119.9890012  49.9724997  -1.1210012 119.4330241  49.9667148  -0.4515683
 121.6500012  49.7174997  16.8689988 121.3210012  49.9884997  16.0119988
 121.8020012  48.7764997  16.7819988 121.6254809  49.6273862  16.7398244
 124.6880012  51.1384997  -0.6950012 124.4190012  51.3184997   0.2059988
 124.4820012  50.2124997  -0.8260012 124.6233825  51.0380152  -0.5894786
 127.3840012  49.6334997  14.2529988 128.1300012  50.2214997  14.1329988
 126.6270012  50.2154997  14.3159988 127.3837554  49.7927011  14.2450907
 115.8270012  46.9474997  16.8569988 116.2350012  46.0904997  16.7359988
 115.5670012  46.9624997  17.7779988 115.8477568  46.8320807  16.9649588
 120.4850012  48.0634997   1.8749988 120.0250012  47.5794997   2.5609988
 120.7400012  47.3954997   1.2389988 120.4564902  47.9068731   1.8829334
 119.7740012  45.9564997  14.2309988 119.1560012  46.6314997  14.5109988
 120.1180012  46.2774997  13.3979988 119.7359615  46.0922721  14.1566581
 121.5560012  46.3064997   0.1369988 121.3760012  46.1524997  -0.7900012
 122.5060012  46.4144997   0.1819988 121.6597776  46.3000175   0.0161843
 124.7940012  48.4284997  17.5079988 125.7470012  48.5114997  17.4809988
 124.6330012  47.7164997  18.1279988 124.9026426  48.3436746  17.5880579
 130.9460012  48.6614997  -0.4170012 130.6720012  48.2364997  -1.2300012
 130.9850012  49.5924997  -0.6340012 130.9137699  48.7292484  -0.5576390
 120.1130012  43.3114997  15.3129988 120.2630012  42.5824997  14.7109988
 120.1160012  44.0884997  14.7539988 120.1339302  43.3167851  15.1550692
 120.5260012  41.6814997  12.8059988 121.0620012  42.1324997  12.1539988
 119.6740012  41.5734997  12.3829988 120.4842178  41.7286390  12.6595756
 122.1080012  47.1204997  13.0449988 122.8580012  46.9644997  12.4719988
 121.7690012  47.9724997  12.7699988 122.1648921  47.2142968  12.9293561
 126.5230012  44.9354997  18.0739988 126.7160012  44.0044997  17.9619988
 127.3810012  45.3604997  18.0639988 126.6653020  44.8656389  18.0573361
 127.8400012  47.7244997  16.1509988 127.5590012  48.4334997  15.5739988
 128.7830012  47.6514997  15.9999988 127.9289027  47.8117646  16.0515551
 118.5920012  44.5094997  17.2249988 117.8250012  43.9774997  17.0149988
 119.2710012  44.1994997  16.6249988 118.5787022  44.3947506  17.1151648
 121.3320012  39.1374997  13.2369988 121.2330012  40.0844997  13.1319988
 120.5890012  38.7654997  12.7619988 121.2180564  39.2165902  13.1584560
 122.5960012  43.4594997  16.8009988 122.3600012  43.2394997  17.7029988
 121.8120012  43.2524997  16.2909988 122.4578628  43.4014760  16.8553932
 125.3110012  42.5864997  15.8769988 124.3640012  42.6184997  16.0089988
 125.6240012  41.9614997  16.5299988 125.2235475  42.5063207  15.9834455
 126.9450012  41.2204997  17.8819988 126.8490012  40.2684997  17.8759988
 126.6240012  41.4894997  18.7419988 126.8884070  41.1264035  17.9975441
 116.7720012  42.4304997  16.9289988 116.9840012  41.7234997  16.3189988
 116.6610012  41.9924997  17.7729988 116.7859721  42.2747084  16.9596843
 121.5530012  38.4314997  15.9089988 122.2650012  37.7914997  15.8949988
 121.4520012  38.6984997  14.9949988 121.6367939  38.3799938  15.7835650
 121.9070012  40.1144997  17.9619988 121.7750012  39.6384997  17.1419988
 121.3080012  40.8584997  17.9069988 121.8079071  40.1499618  17.8422886
 121.4530012  56.9974997   1.1389988 122.3860012  57.1554997   1.2819988
 121.1890012  57.6724997   0.5139988 121.5449510  57.1103611   1.0740741
 115.0220012  51.6334997   0.6209988 115.9360012  51.7124997   0.8949988
 115.0290012  50.9464997  -0.0450012 115.1481131  51.5513961   0.5684393
 113.6710012  57.0264997   5.6989988 113.0240012  56.5644997   5.1659988
 114.0250012  56.3544997   6.2809988 113.6303849  56.8724723   5.7047959
 114.5410012  55.1074997   7.5029988 114.2060012  54.2274997   7.6749988
 114.7630012  55.4524997   8.3679988 114.5251783  55.0337500   7.6434208
 132.0890012  55.9164997  10.4839988 132.0680012  56.1014997  11.4229988
 132.7800012  56.4854997  10.1429988 132.1794618  56.0186606  10.5663864
 131.6530012  55.4844997  13.4059988 131.1650012  54.7484997  13.0349988
 132.2020012  55.0904997  14.0839988 131.6604872  55.3306249  13.4469160
 130.1030012  51.2734997  18.0439988 129.2370012  51.1684997  18.4379988
 130.4800012  52.0324997  18.4899988 130.0353308  51.3616900  18.1582393
 131.4040012  49.5304997   3.5579988 132.2540012  49.9514997   3.6849988
 131.4100012  48.7904997   4.1649988 131.5211372  49.4880803   3.6574344
 131.7990012  47.5834997   5.3819988 131.0720012  47.1044997   5.7789988
 132.3800012  47.7894997   6.1139988 131.7779375  47.5457090   5.5354129
 131.5580012  50.3684997  10.3289988 132.3910012  49.9904997  10.0489988
 131.6700012  51.3114997  10.2099988 131.6872647  50.4442218  10.2745487
 130.0440012  53.2464997  12.6359988 129.3970012  53.5714997  13.2619988
 129.5270012  52.8064997  11.9619988 129.8854029  53.2315004  12.6305827
 132.0670012  47.4844997   1.7729988 131.5450012  47.8414997   1.0539988
 132.0340012  48.1594997   2.4509988 131.9911634  47.6245413   1.7663145
 130.4160012  44.7244997   0.3239988 130.5120012  45.3914997  -0.3570012
 130.2760012  43.9084997  -0.1580012 130.4102135  44.7054500   0.1658491
 129.5850012  46.1044997   5.9449988 129.4350012  45.1594997   5.9239988
 129.2320012  46.3854997   6.7879988 129.5166625  46.0130441   6.0562346
 114.6210012  48.1824997   9.9549988 114.8050012  48.1004997   9.0189988
 115.4700012  48.0584997  10.3789988 114.7610139  48.1545003   9.8841455
 130.4420012  48.0744997  15.5829988 131.0250012  47.3404997  15.7749988
 131.0060012  48.8464997  15.6299988 130.5979769  48.0784227  15.6156159
 131.9380012  45.9774997  16.2679988 131.0750012  45.5984997  16.1019988
 132.5430012  45.2384997  16.1939988 131.9015979  45.8258023  16.2352817
 129.6630012  42.1324997  -0.5590012 130.2740012  41.7614997   0.0779988
 128.8270012  41.7114997  -0.3630012 129.6335032  42.0247554  -0.4452965
 129.2960012  43.6874997   4.4069988 129.5760012  42.7804997   4.5309988
 130.0550012  44.1214997   4.0179988 129.4369277  43.6220942   4.3713682
 129.9080012  44.2684997   9.8429988 130.8410012  44.4804997   9.8089988
 129.6730012  44.3704997  10.7649988 130.0038036  44.3112769   9.9629976
 129.9370012  45.0054997  12.6189988 129.0940012  45.2734997  12.9849988
 130.3790012  45.8274997  12.4079988 129.8814158  45.1533291  12.6405491
 114.2180012  43.4534997  16.0959988 115.1380012  43.3314997  16.3319988
 113.7690012  42.7034997  16.4849988 114.2831580  43.3353727  16.1809006
 132.2200012  38.9854997  17.9719988 132.5700012  38.3314997  17.3669988
 132.3670012  39.8224997  17.5329988 132.2878419  39.0091591  17.8297118
 129.9090012  40.9504997   4.4549988 130.0920012  40.5014997   5.2809988
 129.3100012  40.3654997   3.9919988 129.8530202  40.8099975   4.5053275
 115.4390012  41.7654997   8.9869988 115.8850012  40.9734997   9.2889988
 115.9060012  42.4814997   9.4179988 115.5630172  41.7540624   9.0864820
 113.7430012  44.7644997  10.0559988 114.2350012  44.5434997   9.2649988
 114.1060012  45.6054997  10.3369988 113.8593126  44.8478357   9.9857531
 131.7400012  41.0944997  16.3219988 130.8220012  41.3654997  16.2859988
 131.8630012  40.5594997  15.5369988 131.6311066  41.0592892  16.2110487
 131.7760012  41.0174997   0.9829988 132.1880012  40.2964997   0.5079988
 132.4580012  41.6874997   1.0419988 131.9245885  41.0092368   0.9258915
 114.0570012  41.0224997   4.1099988 113.1320012  41.2314997   3.9809988
 114.5110012  41.5064997   3.4209988 113.9917368  41.1165993   3.9991226
 128.8280012  56.0064997   6.0559988 129.4800012  55.6594997   5.4479988
 129.3380012  56.4954997   6.7019988 128.9862637  56.0250597   6.0600236
 114.0210012  39.7604997  12.4549988 113.3560012  39.5144997  13.0979988
 113.5780012  40.3824997  11.8769988 113.8700956  39.8108632  12.4649352
 116.2130012  52.9354997  16.5989988 115.3920012  53.1104997  16.1389988
 115.9600012  52.8624997  17.5199988 116.0666164  52.9495622  16.6604923
 119.1670012  53.9104997  12.8579988 118.7420012  54.7194997  12.5749988
 120.0710012  53.9954997  12.5559988 119.2310271  54.0328469  12.7783776
 123.4780012  55.3094997  15.8169988 123.6630012  54.9754997  16.6949988
 124.3240012  55.6184997  15.4949988 123.6177539  55.3056047  15.8935605
 125.8230012  56.5954997  15.0609988 126.5000012  55.9624997  14.8209988
 126.1450012  56.9964997  15.8679988 125.9591637  56.5631154  15.1372793
 130.7400012  39.1844997  14.1409988 129.9280012  39.5094997  13.7529988
 130.9730012  38.4244997  13.6079988 130.6603423  39.1262436  14.0158253
 116.5690012  57.1664997  12.9049988 115.8480012  57.6064997  12.4539988
 116.2030012  56.9154997  13.7539988 116.4209804  57.1927698  12.9579840
 119.0360012  56.7664997  11.9349988 118.1710012  56.8384997  12.3389988
 118.9810012  57.3134997  11.1509988 118.9102085  56.8502685  11.8843362
 123.7460012  56.6544997  11.1099988 123.2900012  57.1834997  10.4559988
 123.9090012  57.2574997  11.8359988 123.7055585  56.8084468  11.1185062
 126.0740012  55.5324997  12.0549988 125.1690012  55.6974997  11.7899988
 126.5030012  56.3854997  11.9899988 126.0080799  55.6704483  12.0099182
 128.6780012  57.1024997  12.3499988 128.4960012  58.0184997  12.1399988
 128.8550012  56.6924997  11.5039988 128.6770210  57.1724822  12.2067885
 115.9830012  55.7894997   9.8149988 115.9650012  55.3644997  10.6729988
 116.7880012  55.4714997   9.4069988 116.0893875  55.6883812   9.8771655
 118.1250012  54.4994997   8.4699988 117.9060012  53.5834997   8.6399988
 118.9490012  54.6394997   8.9359988 118.2064420  54.3930520   8.5562774
 120.6620012  54.9694997   9.3189988 120.8750012  54.0814997   9.0319988
 120.7260012  54.9354997  10.2729988 120.6998232  54.8433102   9.4087397
 124.1700012  40.6334997   8.4629988 123.4960012  40.0044997   8.7189988
 124.7340012  40.1494997   7.8599988 124.1539230  40.4818744   8.4165340
 129.3130012  38.7414997   8.5759988 129.9170012  39.2884997   8.0739988
 128.4430012  39.0604997   8.3359988 129.2781241  38.8595806   8.4747654
 131.0400012  39.8794997   6.9089988 131.6520012  39.3654997   6.3829988
 131.4220012  40.7574997   6.9329988 131.1754540  39.9277140   6.8401830
 116.4970012  39.2674997   6.2849988 115.7200012  39.0334997   5.7779988
 117.0270012  38.4704997   6.2939988 116.4622330  39.1276988   6.2167742
 115.3330012  39.0654997   2.0889988 115.7720012  39.6764997   1.4969988
 114.7000012  39.6034997   2.5629988 115.3074514  39.2219257   2.0720930
 121.0760012  39.1944997   6.0989988 121.9510012  39.5824997   6.0689988
 120.9400012  38.9794997   7.0209988 121.1773695  39.2185184   6.2196440
 126.6330012  39.2244997   7.7479988 126.7090012  39.3194997   6.7979988
 126.3580012  38.3164997   7.8769988 126.6062321  39.1147867   7.6355079
 127.9860012  39.2504997   3.4399988 127.2840012  39.8654997   3.2309988
 127.5420012  38.4124997   3.5709988 127.8296330  39.2215783   3.4290328
 115.2340012  55.0134997   2.9869988 114.5490012  54.9754997   2.3189988
 115.2380012  55.9264997   3.2749988 115.1408193  55.1317016   2.9345284
 117.1940012  40.9814997   0.5309988 117.6860012  40.3514997   0.0039988
 117.8180012  41.2774997   1.1949988 117.3455446  40.9353199   0.5485980
 122.2200012  41.2744997   2.9879988 122.3980012  40.6284997   3.6709988
 122.1670012  42.1084997   3.4559988 122.2371829  41.2987985   3.1445940
 124.0990012  56.2234997   1.3839988 124.9650012  56.5894997   1.2059988
 123.8520012  55.7834997   0.5699988 124.1842392  56.2141756   1.2496289
 130.8080012  55.7864997   4.0629988 130.6130012  55.0384997   3.4979988
 130.7690012  56.5444997   3.4799988 130.7760380  55.7866099   3.9068384
 116.4550012  39.7814997  15.8029988 116.0890012  39.0164997  16.2459988
 117.3680012  39.8104997  16.0899988 116.5282790  39.6807224  15.9024070
 118.4280012  39.1324997  17.3389988 119.3260012  38.8584997  17.1539988
 118.0410012  38.3894997  17.8029988 118.4986612  38.9945914  17.3763643
 117.0520012  55.9334997   0.0119988 116.7850012  56.2204997   0.8849988
 117.8240012  55.3874997   0.1639988 117.1197488  55.8990294   0.1521050
 126.8490012  38.4644997  17.5209988 126.9260012  38.0384997  18.3749988
 127.7430012  38.4784997  17.1779988 126.9803428  38.4080879  17.5915310
 130.0250012  54.5374997  16.2129988 129.2430012  54.3514997  15.6939988
 129.9530012  55.4664997  16.4309988 129.9081777  54.6376492  16.1714048
 144.4310012  48.4234997   6.2439988 144.5200012  49.3674997   6.1119988
 143.7930012  48.1484997   5.5859988 144.3569081  48.5154830   6.1369614
 143.3640012  47.6784997   9.6629988 143.3260012  47.0324997  10.3679988
 143.0420012  47.2124997   8.8919988 143.3152333  47.5269408   9.6552978
 135.7330012  47.2934997  11.2559988 135.7740012  46.6674997  11.9789988
 136.4360012  47.9174997  11.4379988 135.8336363  47.2921196  11.3796044
 136.6560012  51.7434997   9.7909988 136.2870012  50.9414997   9.4209988
 137.5970012  51.5744997   9.8369988 136.7327289  51.6110153   9.7466316
 133.2660012  45.4034997   5.1839988 132.8190012  46.2494997   5.1649988
 132.7050012  44.8234997   4.6679988 133.1289900  45.4409916   5.1116801
 133.9770012  47.5654997   7.3099988 134.1900012  46.7954997   7.8369988
 134.7150012  47.6544997   6.7059988 134.1058496  47.4721394   7.3005300
 144.1820012  55.7224997   8.1769988 144.8020012  55.0454997   7.9029988
 143.9740012  55.5044997   9.0849988 144.2386904  55.6003870   8.2623365
 141.7540012  50.1114997  10.0689988 142.0580012  49.4254997   9.4739988
 142.4750012  50.2294997  10.6869988 141.8930671  50.0336305  10.0711816
 144.8950012  44.5054997  10.3969988 145.0370012  43.5594997  10.4169988
 144.7880012  44.7124997   9.4679988 144.8999863  44.4039534  10.2742339
 138.0490012  42.6064997   7.6689988 138.0930012  43.4664997   7.2509988
 137.5920012  42.0544997   7.0349988 137.9932185  42.6495799   7.5260299
 134.6700012  45.0034997   8.4309988 135.3230012  44.4534997   8.8629988
 134.6940012  44.7294997   7.5139988 134.7626683  44.8911466   8.3662123
 139.8260012  46.5534997   7.6459988 140.4420012  46.0274997   8.1559988
 139.2400012  45.9134997   7.2429988 139.8310810  46.3949208   7.6613173
 136.8600012  41.5244997  11.7429988 136.6410012  42.0544997  10.9769988
 136.1920012  41.7514997  12.3899988 136.7397600  41.6276906  11.7256379
 144.2290012  51.0244997   5.2869988 143.9330012  50.7024997   4.4359988
 143.9040012  51.9244997   5.3279988 144.1446371  51.1020215   5.1761801
 139.4290012  49.2004997  12.0299988 138.6890012  49.7984997  12.1339988
 140.1430012  49.7544997  11.7149988 139.4242237  49.3572831  12.0016465
 136.4530012  43.4164997   9.6949988 137.0670012  44.0494997  10.0689988
 136.9650012  42.9444997   9.0389988 136.6062296  43.4392370   9.6574252
 137.8360012  51.1644997  12.8179988 137.8310012  52.0444997  12.4399988
 136.9830012  51.0814997  13.2429988 137.7199464  51.2736117  12.8237907
 133.9570012  50.8354997   3.5999988 133.6850012  51.0644997   2.7109988
 134.0030012  51.6734997   4.0599988 133.9260094  50.9801213   3.5405697
 140.8860012  38.8304997   9.1959988 140.7690012  37.8814997   9.1409988
 140.0310012  39.1624997   9.4689988 140.7543733  38.7455409   9.2253897
 143.1530012  47.6674997   3.6959988 142.4410012  48.2024997   3.3439988
 143.8440012  47.7234997   3.0359988 143.1490132  47.7482543   3.5586289
 143.2060012  46.1254997   0.7349988 143.9070012  46.1474997   1.3859988
 143.5090012  45.4974997   0.0789988 143.3427830  46.0436566   0.7353711
 138.2040012  48.5074997   6.5299988 137.8730012  48.1374997   5.7119988
 138.7920012  47.8374997   6.8769988 138.2381873  48.3661156   6.4648102
 139.5700012  51.9354997   9.2119988 139.4760012  51.3574997   8.4549988
 140.3000012  51.5644997   9.7079988 139.6557981  51.8062390   9.1754165
 138.5700012  47.2764997  10.1639988 139.1360012  47.3974997   9.4009988
 138.8890012  47.9134997  10.8029988 138.6905786  47.3791884  10.1460040
 144.8790012  52.7794997  10.8979988 144.6390012  53.4414997  11.5459988
 144.6810012  51.9454997  11.3229988 144.8193808  52.7573134  11.0441524
 139.4500012  51.6754997  14.8809988 139.1390012  52.4574997  15.3359988
 138.8000012  51.5224997  14.1949988 139.3195558  51.7619105  14.8505871
 136.3700012  47.8734997  14.1099988 136.4410012  48.5244997  14.8079988
 135.4800012  47.9764997  13.7749988 136.2593117  47.9765936  14.1602700
 143.1560012  53.7764997   5.7679988 143.6300012  54.0714997   6.5459988
 142.5930012  54.5144997   5.5349988 143.1447653  53.9166932   5.8430136
 137.6900012  53.7474997  15.6439988 137.6970012  53.6114997  14.6969988
 136.7740012  53.6294997  15.8959988 137.5671714  53.7129430  15.5484666
 137.1940012  47.5774997   4.1199988 136.9020012  48.3454997   3.6289988
 136.5200012  46.9174997   3.9569988 137.0629081  47.5934406   4.0307340
 133.2870012  49.9404997  12.9349988 132.7860012  49.9124997  12.1199988
 133.2920012  49.0344997  13.2439988 133.2191526  49.8142278  12.8652872
 133.0370012  52.7204997   9.8189988 133.9830012  52.5764997   9.7999988
 132.9250012  53.5044997  10.3559988 133.1512727  52.8068046   9.8890072
 142.2140012  52.9604997  14.3769988 142.3010012  53.7864997  14.8519988
 141.3500012  52.6304997  14.6259988 142.1091964  53.0289878  14.4756549
 142.6280012  56.7324997   4.1829988 142.5530012  56.6114997   3.2369988
 142.6610012  57.6824997   4.3019988 142.6221848  56.8442500   4.0694834
 136.2810012  55.5214997   5.9639988 136.4340012  55.1734997   6.8429988
 135.4310012  55.1654997   5.7089988 136.1868962  55.4256650   6.0498340
 135.5360012  51.2634997  13.9779988 135.7520012  50.9024997  14.8369988
 134.6810012  50.8894997  13.7679988 135.4499292  51.1634111  14.0673386
 138.1550012  39.7334997   9.9729988 137.2930012  39.6464997   9.5659988
 138.1320012  40.5894997  10.4009988 138.0340330  39.8372765   9.9751863
 142.8180012  39.4554997  13.3479988 143.2380012  39.0404997  14.1009988
 141.8850012  39.2774997  13.4649988 142.7493644  39.3745900  13.4669539
 142.4790012  41.9484997   0.6329988 142.2260012  41.9674997   1.5559988
 142.2230012  41.0764997   0.3319988 142.4097790  41.8332437   0.7186263
 138.2460012  44.6994997  11.0679988 137.6040012  44.6584997  11.7769988
 138.2830012  45.6254997  10.8309988 138.1631324  44.8191559  11.1329824
 138.2430012  44.9204997   5.9799988 137.3500012  44.5794997   5.9219988
 138.6930012  44.5434997   5.2249988 138.1817305  44.8228484   5.8699177
 143.7780012  45.3364997   4.7969988 143.3690012  46.1514997   4.5059988
 144.4990012  45.1964997   4.1829988 143.8194537  45.4292018   4.6741342
 142.8800012  45.5114997  16.2849988 142.3180012  44.8074997  16.6059988
 143.7070012  45.3914997  16.7529988 142.9147095  45.3987883  16.3922330
 144.7830012  44.7824997   7.6109988 144.5880012  45.3874997   6.8959988
 144.9640012  43.9484997   7.1769988 144.7807614  44.7526300   7.4544405
 135.9960012  45.0194997  12.9349988 135.9580012  45.4194997  13.8039988
 135.5050012  44.2024997  13.0259988 135.9244684  44.9638069  13.0661059
 139.3620012  42.3934997  -0.2660012 138.9310012  41.9484997   0.4639988
 138.6440012  42.7654997  -0.7780012 139.2059438  42.3828940  -0.2353201
 132.6040012  42.1354997   6.7859988 133.2350012  42.1064997   7.5049988
 133.0530012  41.7104997   6.0559988 132.7510774  42.0740492   6.7856553
 133.8780012  42.8814997   2.2099988 134.3520012  43.4724997   1.6249988
 133.1610012  43.4124997   2.5569988 133.8459341  43.0340867   2.1768836
 144.0470012  46.4204997  12.2829988 144.3700012  45.7894997  11.6399988
 143.6070012  45.8854997  12.9429988 144.0316895  46.2618441  12.2842850
 140.8240012  42.3474997   7.0669988 139.9130012  42.4044997   7.3549988
 141.3300012  42.2874997   7.8769988 140.7675413  42.3471985   7.2160622
 135.6530012  43.9764997   5.8929988 134.7630012  44.0764997   5.5529988
 135.9490012  43.1344997   5.5469988 135.5712823  43.8763545   5.7997213
 139.3060012  43.9764997   3.5499988 140.2370012  44.1054997   3.7279988
 139.0910012  44.6464997   2.8999988 139.4044247  44.0846565   3.4865747
 137.9800012  45.1714997   1.1169988 137.4370012  44.7914997   0.4249988
 138.8130012  45.3654997   0.6879988 138.0184399  45.1458124   0.9644526
 136.1150012  49.7284997  16.2159988 136.8470012  49.9824997  16.7769988
 135.3350012  49.9324997  16.7309988 136.1098232  49.7909177  16.3625760
 142.1440012  45.1354997   8.9539988 142.7090012  44.5884997   8.4069988
 141.9970012  44.6134997   9.7419988 142.2012918  44.9902024   8.9858454
 137.1460012  41.2714997   5.3719988 136.8290012  40.3694997   5.3369988
 137.9280012  41.2734997   4.8189988 137.2082284  41.1481628   5.2924783
 140.7710012  43.5234997  11.3679988 139.9350012  43.9774997  11.4779988
 141.2950012  43.7994997  12.1199988 140.7274414  43.6229376  11.4847136
 141.3150012  49.7364997   3.0519988 140.5700012  49.2294997   2.7299988
 141.1810012  49.7854997   3.9989988 141.1948776  49.6736940   3.1358647
 142.8340012  49.9204997  14.2889988 142.4890012  49.5394997  15.0959988
 142.6340012  50.8544997  14.3609988 142.7598061  49.9945228  14.4090961
 136.4400012  49.0314997   8.8219988 137.1850012  49.0294997   8.2209988
 136.5180012  48.2084997   9.3039988 136.5525518  48.9199315   8.8048929
 143.4410012  51.1954997   2.0779988 143.1450012  52.0214997   2.4589988
 142.7380012  50.5754997   2.2739988 143.3054914  51.2248199   2.1566443
 133.4480012  47.4924997  14.1369988 133.6710012  47.0744997  14.9689988
 132.8460012  46.8794997  13.7139988 133.3971759  47.3524668  14.1937022
 140.4640012  47.0094997  16.3499988 140.1680012  46.8434997  15.4549988
 141.3960012  46.7894997  16.3389988 140.5494166  46.9570640  16.2260536
 138.8150012  52.5494997   6.2259988 139.3420012  53.3224997   6.0259988
 137.9350012  52.7744997   5.9249988 138.7681773  52.6858005   6.1579010
 134.5700012  47.4114997   0.8129988 135.1860012  48.0384997   1.1929988
 133.7080012  47.7274997   1.0849988 134.5377698  47.5399430   0.9017183
 140.2420012  50.2124997   5.8029988 140.0010012  51.1374997   5.8439988
 139.5010012  49.7534997   6.1989988 140.1088409  50.2771421   5.8621377
 140.7570012  54.3614997  12.1179988 141.1190012  55.2164997  11.8839988
 141.2880012  54.0694997  12.8579988 140.8784473  54.4391060  12.1860855
 138.9250012  55.2344997   5.3479988 137.9750012  55.3394997   5.3989988
 139.2770012  56.0544997   5.6929988 138.8424203  55.3598314   5.4016650
 144.3010012  50.4604997  11.8179988 143.8750012  50.2334997  12.6449988
 144.8810012  49.7224997  11.6359988 144.3211868  50.3295299  11.9065830
 135.0820012  42.2454997  13.6949988 134.1890012  42.5844997  13.6269988
 134.9830012  41.3904997  14.1129988 134.9464164  42.1762588  13.7422235
 134.7330012  54.0504997  12.1299988 134.9500012  53.1184997  12.0989988
 134.9790012  54.3244997  13.0129988 134.7959549  53.9600636  12.2451763
 140.5950012  52.5014997  -0.6610012 140.8340012  51.7534997  -1.2080012
 140.3260012  52.1134997   0.1719988 140.5913675  52.3466638  -0.6233135
 139.5320012  52.0714997   1.7959988 139.6780012  51.5514997   2.5859988
 139.5290012  52.9784997   2.1019988 139.5515989  52.1228853   1.9456088
 135.9850012  49.3244997   2.3059988 135.2990012  49.6764997   2.8729988
 136.5070012  50.0874997   2.0589988 135.9616852  49.4758578   2.3502118
 143.8160012  41.9864997  12.5849988 144.5150012  42.0604997  13.2349988
 143.4350012  41.1224997  12.7389988 143.8601767  41.8797624  12.6948322
 144.6010012  41.6384997   3.6819988 144.8210012  42.1104997   2.8789988
 145.1590012  42.0334997   4.3519988 144.7064968  41.7564285   3.6627331
 142.2690012  53.7694997   2.5449988 141.4530012  54.2664997   2.5969988
 142.7990012  54.2444997   1.9049988 142.2289161  53.9017722   2.4655956
 141.8010012  43.3664997   4.5169988 142.6130012  43.8714997   4.5629988
 141.5560012  43.2214997   5.4309988 141.8790520  43.4160375   4.6468517
 142.3360012  44.3524997  13.7019988 142.4550012  44.9264997  14.4589988
 142.9920012  43.6644997  13.8159988 142.4409757  44.3381079  13.8210825
 142.6840012  40.4474997   5.4549988 142.3380012  41.0654997   6.0999988
 143.3430012  40.9484997   4.9739988 142.7257826  40.5995802   5.4780971
 139.6080012  54.8134997   2.5269988 139.7680012  55.6124997   2.0259988
 139.4100012  55.1194997   3.4119988 139.6031649  54.9644469   2.5779815
 138.3420012  41.5104997   2.1419988 138.2590012  42.3994997   2.4889988
 139.2320012  41.2454997   2.3739988 138.4509469  41.5961430   2.2207626
 136.6010012  51.9384997   1.2029988 137.1930012  52.6374997   1.4789988
 137.0600012  51.5054997   0.4829988 136.7441142  51.9757049   1.1434830
 134.9170012  44.6024997   0.3189988 134.8720012  45.5414997   0.4969988
 134.0290012  44.3664997   0.0489988 134.7908574  44.6991892   0.3068912
 135.7250012  39.3844997   8.9919988 135.4960012  39.4434997   8.0639988
 135.2820012  38.5924997   9.2979988 135.6338530  39.2855753   8.9064786
 134.6550012  53.3244997   5.1519988 133.8230012  53.7974997   5.1799988
 135.2010012  53.8344997   4.5539988 134.6149739  53.4581871   5.0749716
 133.9430012  55.9374997  16.4819988 134.4840012  55.7204997  17.2419988
 133.4620012  55.1314997  16.2929988 133.9519345  55.7989514  16.5603076
 138.5410012  54.8564997  18.1029988 139.3080012  54.3974997  18.4439988
 138.5190012  54.6304997  17.1729988 138.6431434  54.7630409  18.0240043
 142.6330012  54.3644997  -0.5220012 141.9890012  53.7334997  -0.2010012
 143.3950012  53.8334997  -0.7540012 142.6478077  54.2062920  -0.5093989
 133.8500012  49.7474997  17.4369988 133.9940012  48.8454997  17.1499988
 133.0780012  50.0334997  16.9489988 133.7653322  49.6628261  17.3317881
 138.1920012  50.0914997  -0.4310012 138.2560012  49.2974997   0.0999988
 138.8450012  49.9724997  -1.1210012 138.2890241  49.9667148  -0.4515683
 140.5060012  49.7174997  16.8689988 140.1770012  49.9884997  16.0119988
 140.6580012  48.7764997  16.7819988 140.4814809  49.6273862  16.7398244
 143.5440012  51.1384997  -0.6950012 143.2750012  51.3184997   0.2059988
 143.3380012  50.2124997  -0.8260012 143.4793825  51.0380152  -0.5894786
 134.6830012  46.9474997  16.8569988 135.0910012  46.0904997  16.7359988
 134.4230012  46.9624997  17.7779988 134.7037568  46.8320807  16.9649588
 139.3410012  48.0634997   1.8749988 138.8810012  47.5794997   2.5609988
 139.5960012  47.3954997   1.2389988 139.3124902  47.9068731   1.8829334
 138.6300012  45.9564997  14.2309988 138.0120012  46.6314997  14.5109988
 138.9740012  46.2774997  13.3979988 138.5919615  46.0922721  14.1566581
 140.4120012  46.3064997   0.1369988 140.2320012  46.1524997  -0.7900012
 141.3620012  46.4144997   0.1819988 140.5157776  46.3000175   0.0161843
 143.6500012  48.4284997  17.5079988 144.6030012  48.5114997  17.4809988
 143.4890012  47.7164997  18.1279988 143.7586426  48.3436746  17.5880579
 138.9690012  43.3114997  15.3129988 139.1190012  42.5824997  14.7109988
 138.9720012  44.0884997  14.7539988 138.9899302  43.3167851  15.1550692
 139.3820012  41.6814997  12.8059988 139.9180012  42.1324997  12.1539988
 138.5300012  41.5734997  12.3829988 139.3402178  41.7286390  12.6595756
 140.9640012  47.1204997  13.0449988 141.7140012  46.9644997  12.4719988
 140.6250012  47.9724997  12.7699988 141.0208921  47.2142968  12.9293561
 137.4480012  44.5094997  17.2249988 136.6810012  43.9774997  17.0149988
 138.1270012  44.1994997  16.6249988 137.4347022  44.3947506  17.1151648
 140.1880012  39.1374997  13.2369988 140.0890012  40.0844997  13.1319988
 139.4450012  38.7654997  12.7619988 140.0740564  39.2165902  13.1584560
 141.4520012  43.4594997  16.8009988 141.2160012  43.2394997  17.7029988
 140.6680012  43.2524997  16.2909988 141.3138628  43.4014760  16.8553932
 144.1670012  42.5864997  15.8769988 143.2200012  42.6184997  16.0089988
 144.4800012  41.9614997  16.5299988 144.0795475  42.5063207  15.9834455
 135.6280012  42.4304997  16.9289988 135.8400012  41.7234997  16.3189988
 135.5170012  41.9924997  17.7729988 135.6419721  42.2747084  16.9596843
 140.4090012  38.4314997  15.9089988 141.1210012  37.7914997  15.8949988
 140.3080012  38.6984997  14.9949988 140.4927939  38.3799938  15.7835650
 140.7630012  40.1144997  17.9619988 140.6310012  39.6384997  17.1419988
 140.1640012  40.8584997  17.9069988 140.6639071  40.1499618  17.8422886
 140.3090012  56.9974997   1.1389988 141.2420012  57.1554997   1.2819988
 140.0450012  57.6724997   0.5139988 140.4009510  57.1103611   1.0740741
 133.8780012  51.6334997   0.6209988 134.7920012  51.7124997   0.8949988
 133.8850012  50.9464997  -0.0450012 134.0041131  51.5513961   0.5684393
 132.5270012  57.0264997   5.6989988 131.8800012  56.5644997   5.1659988
 132.8810012  56.3544997   6.2809988 132.4863849  56.8724723   5.7047959
 133.3970012  55.1074997   7.5029988 133.0620012  54.2274997   7.6749988
 133.6190012  55.4524997   8.3679988 133.3811783  55.0337500   7.6434208
 133.4770012  48.1824997   9.9549988 133.6610012  48.1004997   9.0189988
 134.3260012  48.0584997  10.3789988 133.6170139  48.1545003   9.8841455
 133.0740012  43.4534997  16.0959988 133.9940012  43.3314997  16.3319988
 132.6250012  42.7034997  16.4849988 133.1391580  43.3353727  16.1809006
 134.2950012  41.7654997   8.9869988 134.7410012  40.9734997   9.2889988
 134.7620012  42.4814997   9.4179988 134.4190172  41.7540624   9.0864820
 132.5990012  44.7644997  10.0559988 133.0910012  44.5434997   9.2649988
 132.9620012  45.6054997  10.3369988 132.7153126  44.8478357   9.9857531
 132.9130012  41.0224997   4.1099988 131.9880012  41.2314997   3.9809988
 133.3670012  41.5064997   3.4209988 132.8477368  41.1165993   3.9991226
 132.8770012  39.7604997  12.4549988 132.2120012  39.5144997  13.0979988
 132.4340012  40.3824997  11.8769988 132.7260956  39.8108632  12.4649352
 135.0690012  52.9354997  16.5989988 134.2480012  53.1104997  16.1389988
 134.8160012  52.8624997  17.5199988 134.9226164  52.9495622  16.6604923
 138.0230012  53.9104997  12.8579988 137.5980012  54.7194997  12.5749988
 138.9270012  53.9954997  12.5559988 138.0870271  54.0328469  12.7783776
 142.3340012  55.3094997  15.8169988 142.5190012  54.9754997  16.6949988
 143.1800012  55.6184997  15.4949988 142.4737539  55.3056047  15.8935605
 144.6790012  56.5954997  15.0609988 145.3560012  55.9624997  14.8209988
 145.0010012  56.9964997  15.8679988 144.8151637  56.5631154  15.1372793
 135.4250012  57.1664997  12.9049988 134.7040012  57.6064997  12.4539988
 135.0590012  56.9154997  13.7539988 135.2769804  57.1927698  12.9579840
 137.8920012  56.7664997  11.9349988 137.0270012  56.8384997  12.3389988
 137.8370012  57.3134997  11.1509988 137.7662085  56.8502685  11.8843362
 142.6020012  56.6544997  11.1099988 142.1460012  57.1834997  10.4559988
 142.7650012  57.2574997  11.8359988 142.5615585  56.8084468  11.1185062
 134.8390012  55.7894997   9.8149988 134.8210012  55.3644997  10.6729988
 135.6440012  55.4714997   9.4069988 134.9453875  55.6883812   9.8771655
 136.9810012  54.4994997   8.4699988 136.7620012  53.5834997   8.6399988
 137.8050012  54.6394997   8.9359988 137.0624420  54.3930520   8.5562774
 139.5180012  54.9694997   9.3189988 139.7310012  54.0814997   9.0319988
 139.5820012  54.9354997  10.2729988 139.5558232  54.8433102   9.4087397
 143.0260012  40.6334997   8.4629988 142.3520012  40.0044997   8.7189988
 143.5900012  40.1494997   7.8599988 143.0099230  40.4818744   8.4165340
 135.3530012  39.2674997   6.2849988 134.5760012  39.0334997   5.7779988
 135.8830012  38.4704997   6.2939988 135.3182330  39.1276988   6.2167742
 134.1890012  39.0654997   2.0889988 134.6280012  39.6764997   1.4969988
 133.5560012  39.6034997   2.5629988 134.1634514  39.2219257   2.0720930
 139.9320012  39.1944997   6.0989988 140.8070012  39.5824997   6.0689988
 139.7960012  38.9794997   7.0209988 140.0333695  39.2185184   6.2196440
 134.0900012  55.0134997   2.9869988 133.4050012  54.9754997   2.3189988
 134.0940012  55.9264997   3.2749988 133.9968193  55.1317016   2.9345284
 136.0500012  40.9814997   0.5309988 136.5420012  40.3514997   0.0039988
 136.6740012  41.2774997   1.1949988 136.2015446  40.9353199   0.5485980
 141.0760012  41.2744997   2.9879988 141.2540012  40.6284997   3.6709988
 141.0230012  42.1084997   3.4559988 141.0931829  41.2987985   3.1445940
 142.9550012  56.2234997   1.3839988 143.8210012  56.5894997   1.2059988
 142.7080012  55.7834997   0.5699988 143.0402392  56.2141756   1.2496289
 135.3110012  39.7814997  15.8029988 134.9450012  39.0164997  16.2459988
 136.2240012  39.8104997  16.0899988 135.3842790  39.6807224  15.9024070
 137.2840012  39.1324997  17.3389988 138.1820012  38.8584997  17.1539988
 136.8970012  38.3894997  17.8029988 137.3546612  38.9945914  17.3763643
 135.9080012  55.9334997   0.0119988 135.6410012  56.2204997   0.8849988
 136.6800012  55.3874997   0.1639988 135.9757488  55.8990294   0.1521050
  12.4390012  67.2794997   6.2439988  12.5280012  68.2234997   6.1119988
  11.8010012  67.0044997   5.5859988  12.3649081  67.3714830   6.1369614
  11.3720012  66.5344997   9.6629988  11.3340012  65.8884997  10.3679988
  11.0500012  66.0684997   8.8919988  11.3232333  66.3829408   9.6552978
   3.7410012  66.1494997  11.2559988   3.7820012  65.5234997  11.9789988
   4.4440012  66.7734997  11.4379988   3.8416363  66.1481196  11.3796044
  15.0780012  69.4734997   7.9639988  14.6380012  68.7534997   8.4149988
  15.0650012  70.1944997   8.5939988  15.0160226  69.4723731   8.1108494
   4.6640012  70.5994997   9.7909988   4.2950012  69.7974997   9.4209988
   5.6050012  70.4304997   9.8369988   4.7407289  70.4670153   9.7466316
   1.2740012  64.2594997   5.1839988   0.8270012  65.1054997   5.1649988
   0.7130012  63.6794997   4.6679988   1.1369900  64.2969916   5.1116801
   1.9850012  66.4214997   7.3099988   2.1980012  65.6514997   7.8369988
   2.7230012  66.5104997   6.7059988   2.1138496  66.3281394   7.3005300
  12.1900012  74.5784997   8.1769988  12.8100012  73.9014997   7.9029988
  11.9820012  74.3604997   9.0849988  12.2466904  74.4563870   8.2623365
   9.7620012  68.9674997  10.0689988  10.0660012  68.2814997   9.4739988
  10.4830012  69.0854997  10.6869988   9.9010671  68.8896305  10.0711816
  18.4250012  60.5684997  10.9299988  18.4740012  61.1784997  11.6659988
  18.8500012  61.0294997  10.2069988  18.4891824  60.7143741  10.9330205
  12.9030012  63.3614997  10.3969988  13.0450012  62.4154997  10.4169988
  12.7960012  63.5684997   9.4679988  12.9079864  63.2599534  10.2742339
   6.0570012  61.4624997   7.6689988   6.1010012  62.3224997   7.2509988
   5.6000012  60.9104997   7.0349988   6.0012185  61.5055799   7.5260299
  13.7800012  61.5934997   6.0699988  14.4260012  61.2644997   6.6949988
  14.2900012  62.1114997   5.4469988  13.9374264  61.6184611   6.0713862
   2.6780012  63.8594997   8.4309988   3.3310012  63.3094997   8.8629988
   2.7020012  63.5854997   7.5139988   2.7706683  63.7471466   8.3662123
   7.8340012  65.4094997   7.6459988   8.4500012  64.8834997   8.1559988
   7.2480012  64.7694997   7.2429988   7.8390810  65.2509208   7.6613173
  18.8160012  62.0464997  13.1659988  18.1280012  62.7044997  13.0699988
  18.8320012  61.8494997  14.1019988  18.7238525  62.1100462  13.2794808
   4.8680012  60.3804997  11.7429988   4.6490012  60.9104997  10.9769988
   4.2000012  60.6074997  12.3899988   4.7477600  60.4836906  11.7256379
  12.2370012  69.8804997   5.2869988  11.9410012  69.5584997   4.4359988
  11.9120012  70.7804997   5.3279988  12.1526371  69.9580215   5.1761801
   7.4370012  68.0564997  12.0299988   6.6970012  68.6544997  12.1339988
   8.1510012  68.6104997  11.7149988   7.4322237  68.2132831  12.0016465
  15.5440012  60.8844997   8.0499988  15.3280012  60.1184997   8.5829988
  16.1990012  61.3564997   8.5629988  15.6030632  60.8435889   8.1922861
   4.4610012  62.2724997   9.6949988   5.0750012  62.9054997  10.0689988
   4.9730012  61.8004997   9.0389988   4.6142296  62.2952370   9.6574252
   5.8440012  70.0204997  12.8179988   5.8390012  70.9004997  12.4399988
   4.9910012  69.9374997  13.2429988   5.7279464  70.1296117  12.8237907
   1.9650012  69.6914997   3.5999988   1.6930012  69.9204997   2.7109988
   2.0110012  70.5294997   4.0599988   1.9340094  69.8361213   3.5405697
  15.5900012  71.3134997  10.3119988  14.6490012  71.3714997  10.4739988
  15.8670012  72.2194997  10.1749988  15.4984679  71.4439443  10.3156815
  15.8910012  59.5994997  11.7299988  15.1550012  60.2104997  11.6919988
  16.5740012  60.0144997  11.2029988  15.8826541  59.7391374  11.6535832
   8.8940012  57.6864997   9.1959988   8.7770012  56.7374997   9.1409988
   8.0390012  58.0184997   9.4689988   8.7623733  57.6015409   9.2253897
  13.8420012  73.0944997   6.9379988  14.2680012  72.3874997   6.4529988
  14.1590012  73.8954997   6.5209988  13.9431019  73.1060994   6.8153130
  15.0020012  70.9954997   5.4459988  14.7440012  70.3054997   4.8349988
  15.0730012  70.5524997   6.2919988  14.9762856  70.8412124   5.4766885
  16.6880012  69.5614997  13.9239988  16.8280012  68.9704997  13.1839988
  16.8550012  70.4344997  13.5669988  16.7296778  69.5986426  13.7746965
  11.1610012  66.5234997   3.6959988  10.4490012  67.0584997   3.3439988
  11.8520012  66.5794997   3.0359988  11.1570132  66.6042543   3.5586289
  11.2140012  64.9814997   0.7349988  11.9150012  65.0034997   1.3859988
  11.5170012  64.3534997   0.0789988  11.3507830  64.8996566   0.7353711
  18.5300012  65.9014997  11.9899988  17.8770012  66.5964997  12.0789988
  18.9950012  66.1114997  11.1799988  18.5035390  66.0249425  11.8926883
  14.5660012  66.7334997   4.6479988  13.8340012  66.9614997   5.2209988
  15.0140012  66.0194997   5.1029988  14.5263095  66.6682571   4.7879119
  14.4640012  64.9074997  13.7149988  14.5440012  65.6704997  14.2869988
  13.8620012  65.1864997  13.0249988  14.3935756  65.0497134  13.7000589
   6.2120012  67.3634997   6.5299988   5.8810012  66.9934997   5.7119988
   6.8000012  66.6934997   6.8769988   6.2461873  67.2221156   6.4648102
   7.5780012  70.7914997   9.2119988   7.4840012  70.2134997   8.4549988
   8.3080012  70.4204997   9.7079988   7.6637981  70.6622390   9.1754165
   6.5780012  66.1324997  10.1639988   7.1440012  66.2534997   9.4009988
   6.8970012  66.7694997  10.8029988   6.6985786  66.2351884  10.1460040
  12.8870012  71.6354997  10.8979988  12.6470012  72.2974997  11.5459988
  12.6890012  70.8014997  11.3229988  12.8273808  71.6133134  11.0441524
   7.4580012  70.5314997  14.8809988   7.1470012  71.3134997  15.3359988
   6.8080012  70.3784997  14.1949988   7.3275558  70.6179105  14.8505871
  13.4370012  65.8954997   2.3329988  14.0170012  66.0454997   3.0799988
  13.8510012  66.3664997   1.6099988  13.5722830  65.9796841   2.3374134
   4.3780012  66.7294997  14.1099988   4.4490012  67.3804997  14.8079988
   3.4880012  66.8324997  13.7749988   4.2673117  66.8325936  14.1602700
  11.1640012  72.6324997   5.7679988  11.6380012  72.9274997   6.5459988
  10.6010012  73.3704997   5.5349988  11.1527653  72.7726932   5.8430136
   5.6980012  72.6034997  15.6439988   5.7050012  72.4674997  14.6969988
   4.7820012  72.4854997  15.8959988   5.5751714  72.5689430  15.5484666
  17.1360012  57.6454997   2.1459988  16.2360012  57.7844997   2.4409988
  17.3880012  58.4764997   1.7439988  17.0468702  57.7769074   2.1320205
   5.2020012  66.4334997   4.1199988   4.9100012  67.2014997   3.6289988
   4.5280012  65.7734997   3.9569988   5.0709081  66.4494406   4.0307340
  18.3250012  72.0114997   0.5219988  18.3990012  72.9504997   0.6929988
  19.2310012  71.7064997   0.4659988  18.4575100  72.0986722   0.5378119
   1.2950012  68.7964997  12.9349988   0.7940012  68.7684997  12.1199988
   1.3000012  67.8904997  13.2439988   1.2271526  68.6702278  12.8652872
   1.0450012  71.5764997   9.8189988   1.9910012  71.4324997   9.7999988
   0.9330012  72.3604997  10.3559988   1.1592727  71.6628046   9.8890072
  19.2430012  72.2424997  15.5009988  19.1940012  71.2874997  15.4639988
  18.4160012  72.5104997  15.9019988  19.1244940  72.1478998  15.5501375
  10.2220012  71.8164997  14.3769988  10.3090012  72.6424997  14.8519988
   9.3580012  71.4864997  14.6259988  10.1171964  71.8849878  14.4756549
  10.6360012  75.5884997   4.1829988  10.5610012  75.4674997   3.2369988
  10.6690012  76.5384997   4.3019988  10.6301848  75.7002500   4.0694834
   4.2890012  74.3774997   5.9639988   4.4420012  74.0294997   6.8429988
   3.4390012  74.0214997   5.7089988   4.1948962  74.2816650   6.0498340
  13.7380012  74.7424997   1.1849988  14.1130012  73.9984997   0.7149988
  13.7420012  74.4724997   2.1039988  13.7898915  74.6041486   1.2447824
  13.4070012  74.6684997   3.9349988  12.4710012  74.7684997   4.1129988
  13.6870012  73.9594997   4.5129988  13.3168255  74.5862711   4.0375391
  16.3950012  63.7354997  15.9809988  15.9880012  64.2164997  15.2599988
  16.4360012  62.8304997  15.6729988  16.3448437  63.6789374  15.8406683
   3.5440012  70.1194997  13.9779988   3.7600012  69.7584997  14.8369988
   2.6890012  69.7454997  13.7679988   3.4579292  70.0194111  14.0673386
   6.1630012  58.5894997   9.9729988   5.3010012  58.5024997   9.5659988
   6.1400012  59.4454997  10.4009988   6.0420330  58.6932765   9.9751863
  10.8260012  58.3114997  13.3479988  11.2460012  57.8964997  14.1009988
   9.8930012  58.1334997  13.4649988  10.7573644  58.2305900  13.4669539
  14.1520012  62.0674997  14.2009988  13.6380012  61.9414997  14.9989988
  13.9970012  62.9794997  13.9569988  14.0606852  62.1736132  14.2772158
  14.9150012  66.9284997  -0.0370012  14.9570012  66.7054997  -0.9670012
  15.7640012  67.3274997   0.1529988  15.0355396  66.9519155  -0.1386373
  10.4870012  60.8044997   0.6329988  10.2340012  60.8234997   1.5559988
  10.2310012  59.9324997   0.3319988  10.4177790  60.6892437   0.7186263
   6.2540012  63.5554997  11.0679988   5.6120012  63.5144997  11.7769988
   6.2910012  64.4814997  10.8309988   6.1711324  63.6751559  11.1329824
   6.2510012  63.7764997   5.9799988   5.3580012  63.4354997   5.9219988
   6.7010012  63.3994997   5.2249988   6.1897305  63.6788484   5.8699177
  11.7860012  64.1924997   4.7969988  11.3770012  65.0074997   4.5059988
  12.5070012  64.0524997   4.1829988  11.8274537  64.2852018   4.6741342
  10.8880012  64.3674997  16.2849988  10.3260012  63.6634997  16.6059988
  11.7150012  64.2474997  16.7529988  10.9227095  64.2547883  16.3922330
  12.7910012  63.6384997   7.6109988  12.5960012  64.2434997   6.8959988
  12.9720012  62.8044997   7.1769988  12.7887614  63.6086300   7.4544405
   4.0040012  63.8754997  12.9349988   3.9660012  64.2754997  13.8039988
   3.5130012  63.0584997  13.0259988   3.9324684  63.8198069  13.0661059
   7.3700012  61.2494997  -0.2660012   6.9390012  60.8044997   0.4639988
   6.6520012  61.6214997  -0.7780012   7.2139438  61.2388940  -0.2353201
   0.6120012  60.9914997   6.7859988   1.2430012  60.9624997   7.5049988
   1.0610012  60.5664997   6.0559988   0.7590774  60.9300492   6.7856553
   1.8860012  61.7374997   2.2099988   2.3600012  62.3284997   1.6249988
   1.1690012  62.2684997   2.5569988   1.8539341  61.8900867   2.1768836
  12.0550012  65.2764997  12.2829988  12.3780012  64.6454997  11.6399988
  11.6150012  64.7414997  12.9429988  12.0396895  65.1178441  12.2842850
   8.8320012  61.2034997   7.0669988   7.9210012  61.2604997   7.3549988
   9.3380012  61.1434997   7.8769988   8.7755413  61.2031985   7.2160622
   3.6610012  62.8324997   5.8929988   2.7710012  62.9324997   5.5529988
   3.9570012  61.9904997   5.5469988   3.5792823  62.7323545   5.7997213
   7.3140012  62.8324997   3.5499988   8.2450012  62.9614997   3.7279988
   7.0990012  63.5024997   2.8999988   7.4124247  62.9406565   3.4865747
  13.2370012  60.4384997  10.3309988  12.5610012  60.5694997  10.9949988
  12.7520012  60.2834997   9.5209988  13.0787145  60.4354905  10.3124517
   5.9880012  64.0274997   1.1169988   5.4450012  63.6474997   0.4249988
   6.8210012  64.2214997   0.6879988   6.0264399  64.0018124   0.9644526
  16.5250012  76.1104997  16.6079988  16.7250012  76.5344997  15.7729988
  17.1800012  76.4534997  17.2149988  16.6410051  76.2149648  16.5757836
   4.1230012  68.5844997  16.2159988   4.8550012  68.8384997  16.7769988
   3.3430012  68.7884997  16.7309988   4.1178232  68.6469177  16.3625760
  10.1520012  63.9914997   8.9539988  10.7170012  63.4444997   8.4069988
  10.0050012  63.4694997   9.7419988  10.2092918  63.8462024   8.9858454
   5.1540012  60.1274997   5.3719988   4.8370012  59.2254997   5.3369988
   5.9360012  60.1294997   4.8189988   5.2162284  60.0041628   5.2924783
   8.7790012  62.3794997  11.3679988   7.9430012  62.8334997  11.4779988
   9.3030012  62.6554997  12.1199988   8.7354414  62.4789376  11.4847136
   9.3230012  68.5924997   3.0519988   8.5780012  68.0854997   2.7299988
   9.1890012  68.6414997   3.9989988   9.2028776  68.5296940   3.1358647
  16.4730012  67.7254997  11.8389988  17.1150012  68.1824997  11.2949988
  15.6430012  67.8384997  11.3759988  16.4485963  67.8032704  11.7020177
  13.2210012  61.4064997   1.2519988  12.2820012  61.5184997   1.0999988
  13.5180012  62.2634997   1.5579988  13.1327666  61.5376443   1.2725768
  10.8420012  68.7764997  14.2889988  10.4970012  68.3954997  15.0959988
  10.6420012  69.7104997  14.3609988  10.7678061  68.8505228  14.4090961
  13.9390012  63.2734997   2.9119988  14.8310012  63.1364997   3.2309988
  13.9960012  64.0644997   2.3759988  14.0686285  63.3616660   2.8831690
   4.4480012  67.8874997   8.8219988   5.1930012  67.8854997   8.2209988
   4.5260012  67.0644997   9.3039988   4.5605518  67.7759315   8.8048929
  11.4490012  70.0514997   2.0779988  11.1530012  70.8774997   2.4589988
  10.7460012  69.4314997   2.2739988  11.3134914  70.0808199   2.1566443
   1.4560012  66.3484997  14.1369988   1.6790012  65.9304997  14.9689988
   0.8540012  65.7354997  13.7139988   1.4051759  66.2084668  14.1937022
   8.4720012  65.8654997  16.3499988   8.1760012  65.6994997  15.4549988
   9.4040012  65.6454997  16.3389988   8.5574166  65.8130640  16.2260536
  13.0930012  71.2384997  14.2399988  12.1920012  71.4214997  13.9719988
  13.1270012  71.4974997  15.1609988  12.9743041  71.2985512  14.3278197
  18.8240012  63.4834997   2.6069988  18.2700012  63.0874997   1.9349988
  18.9240012  64.3934997   2.3289988  18.7617059  63.5523586   2.4774401
  18.7870012  69.2834997  15.4439988  17.9360012  69.5214997  15.0769988
  19.3780012  69.2664997  14.6909988  18.7502487  69.3138258  15.2918893
  17.1190012  72.2694997   3.0719988  16.7460012  71.4434997   3.3809988
  17.3970012  72.0864997   2.1749988  17.1055630  72.1317303   2.9929626
  14.2800012  67.0774997  10.0929988  13.3510012  66.8454997  10.0659988
  14.7310012  66.3004997   9.7629988  14.2139216  66.9407238  10.0446917
   6.8230012  71.4054997   6.2259988   7.3500012  72.1784997   6.0259988
   5.9430012  71.6304997   5.9249988   6.7761773  71.5418005   6.1579010
   2.5780012  66.2674997   0.8129988   3.1940012  66.8944997   1.1929988
   1.7160012  66.5834997   1.0849988   2.5457698  66.3959430   0.9017183
   8.2500012  69.0684997   5.8029988   8.0090012  69.9934997   5.8439988
   7.5090012  68.6094997   6.1989988   8.1168409  69.1331421   5.8621377
   8.7650012  73.2174997  12.1179988   9.1270012  74.0724997  11.8839988
   9.2960012  72.9254997  12.8579988   8.8864473  73.2951060  12.1860855
   6.9330012  74.0904997   5.3479988   5.9830012  74.1954997   5.3989988
   7.2850012  74.9104997   5.6929988   6.8504203  74.2158314   5.4016650
  12.3090012  69.3164997  11.8179988  11.8830012  69.0894997  12.6449988
  12.8890012  68.5784997  11.6359988  12.3291868  69.1855299  11.9065830
  14.5120012  70.2454997   0.8919988  14.8650012  69.8654997   1.6969988
  13.5630012  70.1524997   0.9789988  14.4320441  70.1809596   1.0138559
  14.9670012  73.8684997  14.2879988  14.3660012  73.3134997  13.7919988
  15.2490012  74.5354997  13.6619988  14.9228519  73.8826841  14.1354952
  19.0150012  74.7254997   1.0929988  19.7590012  75.3114997   0.9529988
  18.3210012  75.2934997   1.4269988  19.0230292  74.8825582   1.1189961
   3.0900012  61.1014997  13.6949988   2.1970012  61.4404997  13.6269988
   2.9910012  60.2464997  14.1129988   2.9544164  61.0322588  13.7422235
  15.3780012  68.9184997   3.1189988  15.1000012  68.1904997   3.6749988
  16.3050012  69.0374997   3.3239988  15.4653124  68.8348802   3.2228845
   2.7410012  72.9064997  12.1299988   2.9580012  71.9744997  12.0989988
   2.9870012  73.1804997  13.0129988   2.8039549  72.8160636  12.2451763
   8.6030012  71.3574997  -0.6610012   8.8420012  70.6094997  -1.2080012
   8.3340012  70.9694997   0.1719988   8.5993675  71.2026638  -0.6233135
   7.5400012  70.9274997   1.7959988   7.6860012  70.4074997   2.5859988
   7.5370012  71.8344997   2.1019988   7.5595989  70.9788853   1.9456088
   3.9930012  68.1804997   2.3059988   3.3070012  68.5324997   2.8729988
   4.5150012  68.9434997   2.0589988   3.9696852  68.3318578   2.3502118
  11.8240012  60.8424997  12.5849988  12.5230012  60.9164997  13.2349988
  11.4430012  59.9784997  12.7389988  11.8681767  60.7357624  12.6948322
  12.6090012  60.4944997   3.6819988  12.8290012  60.9664997   2.8789988
  13.1670012  60.8894997   4.3519988  12.7144968  60.6124285   3.6627331
  10.2770012  72.6254997   2.5449988   9.4610012  73.1224997   2.5969988
  10.8070012  73.1004997   1.9049988  10.2369161  72.7577722   2.4655956
   9.8090012  62.2224997   4.5169988  10.6210012  62.7274997   4.5629988
   9.5640012  62.0774997   5.4309988   9.8870520  62.2720375   4.6468517
  10.3440012  63.2084997  13.7019988  10.4630012  63.7824997  14.4589988
  11.0000012  62.5204997  13.8159988  10.4489757  63.1941079  13.8210825
  10.6920012  59.3034997   5.4549988  10.3460012  59.9214997   6.0999988
  11.3510012  59.8044997   4.9739988  10.7337826  59.4555802   5.4780971
   7.6160012  73.6694997   2.5269988   7.7760012  74.4684997   2.0259988
   7.4180012  73.9754997   3.4119988   7.6111649  73.8204469   2.5779815
   6.3500012  60.3664997   2.1419988   6.2670012  61.2554997   2.4889988
   7.2400012  60.1014997   2.3739988   6.4589469  60.4521430   2.2207626
  16.5490012  61.1154997  14.5369988  15.6320012  61.3784997  14.4489988
  16.8840012  61.1124997  13.6399988  16.4689900  61.1510224  14.4037919
  15.1510012  64.8664997   8.6319988  14.3530012  64.4514997   8.3039988
  15.5960012  64.1754997   9.1229988  15.1019885  64.7163543   8.6534889
   4.6090012  70.7944997   1.2029988   5.2010012  71.4934997   1.4789988
   5.0680012  70.3614997   0.4829988   4.7521142  70.8317049   1.1434830
   2.9250012  63.4584997   0.3189988   2.8800012  64.3974997   0.4969988
   2.0370012  63.2224997   0.0489988   2.7988574  63.5551892   0.3068912
  16.2370012  74.1224997  10.2549988  16.0820012  74.8004997   9.5979988
  17.1700012  74.1944997  10.4579988  16.3418500  74.2250170  10.1925119
   3.7330012  58.2404997   8.9919988   3.5040012  58.2994997   8.0639988
   3.2900012  57.4484997   9.2979988   3.6418530  58.1415753   8.9064786
   2.6630012  72.1804997   5.1519988   1.8310012  72.6534997   5.1799988
   3.2090012  72.6904997   4.5539988   2.6229739  72.3141871   5.0749716
   1.9510012  74.7934997  16.4819988   2.4920012  74.5764997  17.2419988
   1.4700012  73.9874997  16.2929988   1.9599345  74.6549514  16.5603076
   6.5490012  73.7124997  18.1029988   7.3160012  73.2534997  18.4439988
   6.5270012  73.4864997  17.1729988   6.6511434  73.6190409  18.0240043
  10.6410012  73.2204997  -0.5220012   9.9970012  72.5894997  -0.2010012
  11.4030012  72.6894997  -0.7540012  10.6558077  73.0622920  -0.5093989
  13.1260012  72.0924997  16.8319988  12.7750012  71.2364997  17.0749988
  13.8520012  72.2354997  17.4389988  13.1760769  71.9945636  16.9473619
  15.2450012  73.0374997  -0.2880012  15.5280012  72.2434997   0.1639988
  15.9850012  73.2704997  -0.8490012  15.3837486  72.9602803  -0.3019302
   1.8580012  68.6034997  17.4369988   2.0020012  67.7014997  17.1499988
   1.0860012  68.8894997  16.9489988   1.7733322  68.5188261  17.3317881
   6.2000012  68.9474997  -0.4310012   6.2640012  68.1534997   0.0999988
   6.8530012  68.8284997  -1.1210012   6.2970241  68.8227148  -0.4515683
   8.5140012  68.5734997  16.8689988   8.1850012  68.8444997  16.0119988
   8.6660012  67.6324997  16.7819988   8.4894809  68.4833862  16.7398244
  11.5520012  69.9944997  -0.6950012  11.2830012  70.1744997   0.2059988
  11.3460012  69.0684997  -0.8260012  11.4873825  69.8940152  -0.5894786
  14.2480012  68.4894997  14.2529988  14.9940012  69.0774997  14.1329988
  13.4910012  69.0714997  14.3159988  14.2477554  68.6487011  14.2450907
   2.6910012  65.8034997  16.8569988   3.0990012  64.9464997  16.7359988
   2.4310012  65.8184997  17.7779988   2.7117568  65.6880807  16.9649588
   7.3490012  66.9194997   1.8749988   6.8890012  66.4354997   2.5609988
   7.6040012  66.2514997   1.2389988   7.3204902  66.7628731   1.8829334
   6.6380012  64.8124997  14.2309988   6.0200012  65.4874997  14.5109988
   6.9820012  65.1334997  13.3979988   6.5999615  64.9482721  14.1566581
   8.4200012  65.1624997   0.1369988   8.2400012  65.0084997  -0.7900012
   9.3700012  65.2704997   0.1819988   8.5237776  65.1560175   0.0161843
  11.6580012  67.2844997  17.5079988  12.6110012  67.3674997  17.4809988
  11.4970012  66.5724997  18.1279988  11.7666426  67.1996746  17.5880578
  17.8100012  67.5174997  -0.4170012  17.5360012  67.0924997  -1.2300012
  17.8490012  68.4484997  -0.6340012  17.7777699  67.5852484  -0.5576390
   6.9770012  62.1674997  15.3129988   7.1270012  61.4384997  14.7109988
   6.9800012  62.9444997  14.7539988   6.9979302  62.1727851  15.1550692
   7.3900012  60.5374997  12.8059988   7.9260012  60.9884997  12.1539988
   6.5380012  60.4294997  12.3829988   7.3482178  60.5846390  12.6595756
   8.9720012  65.9764997  13.0449988   9.7220012  65.8204997  12.4719988
   8.6330012  66.8284997  12.7699988   9.0288921  66.0702968  12.9293561
  13.3870012  63.7914997  18.0739988  13.5800012  62.8604997  17.9619988
  14.2450012  64.2164997  18.0639988  13.5293020  63.7216389  18.0573361
  14.7040012  66.5804997  16.1509988  14.4230012  67.2894997  15.5739988
  15.6470012  66.5074997  15.9999988  14.7929027  66.6677646  16.0515551
   5.4560012  63.3654997  17.2249988   4.6890012  62.8334997  17.0149988
   6.1350012  63.0554997  16.6249988   5.4427022  63.2507506  17.1151648
   8.1960012  57.9934997  13.2369988   8.0970012  58.9404997  13.1319988
   7.4530012  57.6214997  12.7619988   8.0820564  58.0725902  13.1584560
   9.4600012  62.3154997  16.8009988   9.2240012  62.0954997  17.7029988
   8.6760012  62.1084997  16.2909988   9.3218628  62.2574760  16.8553932
  12.1750012  61.4424997  15.8769988  11.2280012  61.4744997  16.0089988
  12.4880012  60.8174997  16.5299988  12.0875475  61.3623207  15.9834455
  13.8090012  60.0764997  17.8819988  13.7130012  59.1244997  17.8759988
  13.4880012  60.3454997  18.7419988  13.7524070  59.9824035  17.9975441
   3.6360012  61.2864997  16.9289988   3.8480012  60.5794997  16.3189988
   3.5250012  60.8484997  17.7729988   3.6499721  61.1307084  16.9596843
   8.4170012  57.2874997  15.9089988   9.1290012  56.6474997  15.8949988
   8.3160012  57.5544997  14.9949988   8.5007939  57.2359938  15.7835650
   8.7710012  58.9704997  17.9619988   8.6390012  58.4944997  17.1419988
   8.1720012  59.7144997  17.9069988   8.6719071  59.0059618  17.8422886
   8.3170012  75.8534997   1.1389988   9.2500012  76.0114997   1.2819988
   8.0530012  76.5284997   0.5139988   8.4089510  75.9663611   1.0740741
   1.8860012  70.4894997   0.6209988   2.8000012  70.5684997   0.8949988
   1.8930012  69.8024997  -0.0450012   2.0121131  70.4073961   0.5684393
   0.5350012  75.8824997   5.6989988  -0.1119988  75.4204997   5.1659988
   0.8890012  75.2104997   6.2809988   0.4943849  75.7284723   5.7047959
   1.4050012  73.9634997   7.5029988   1.0700012  73.0834997   7.6749988
   1.6270012  74.3084997   8.3679988   1.3891783  73.8897500   7.6434208
  18.9530012  74.7724997  10.4839988  18.9320012  74.9574997  11.4229988
  19.6440012  75.3414997  10.1429988  19.0434618  74.8746606  10.5663864
  18.5170012  74.3404997  13.4059988  18.0290012  73.6044997  13.0349988
  19.0660012  73.9464997  14.0839988  18.5244872  74.1866249  13.4469160
  16.9670012  70.1294997  18.0439988  16.1010012  70.0244997  18.4379988
  17.3440012  70.8884997  18.4899988  16.8993308  70.2176900  18.1582393
  18.2680012  68.3864997   3.5579988  19.1180012  68.8074997   3.6849988
  18.2740012  67.6464997   4.1649988  18.3851372  68.3440803   3.6574344
  18.6630012  66.4394997   5.3819988  17.9360012  65.9604997   5.7789988
  19.2440012  66.6454997   6.1139988  18.6419375  66.4017090   5.5354129
  18.4220012  69.2244997  10.3289988  19.2550012  68.8464997  10.0489988
  18.5340012  70.1674997  10.2099988  18.5512647  69.3002218  10.2745487
  16.9080012  72.1024997  12.6359988  16.2610012  72.4274997  13.2619988
  16.3910012  71.6624997  11.9619988  16.7494029  72.0875004  12.6305827
  18.9310012  66.3404997   1.7729988  18.4090012  66.6974997   1.0539988
  18.8980012  67.0154997   2.4509988  18.8551634  66.4805413   1.7663145
  17.2800012  63.5804997   0.3239988  17.3760012  64.2474997  -0.3570012
  17.1400012  62.7644997  -0.1580012  17.2742135  63.5614500   0.1658491
  16.4490012  64.9604997   5.9449988  16.2990012  64.0154997   5.9239988
  16.0960012  65.2414997   6.7879988  16.3806625  64.8690441   6.0562346
   1.4850012  67.0384997   9.9549988   1.6690012  66.9564997   9.0189988
   2.3340012  66.9144997  10.3789988   1.6250139  67.0105003   9.8841455
  17.3060012  66.9304997  15.5829988  17.8890012  66.1964997  15.7749988
  17.8700012  67.7024997  15.6299988  17.4619769  66.9344227  15.6156159
  18.8020012  64.8334997  16.2679988  17.9390012  64.4544997  16.1019988
  19.4070012  64.0944997  16.1939988  18.7655979  64.6818023  16.2352817
  16.5270012  60.9884997  -0.5590012  17.1380012  60.6174997   0.0779988
  15.6910012  60.5674997  -0.3630012  16.4975032  60.8807554  -0.4452965
  16.1600012  62.5434997   4.4069988  16.4400012  61.6364997   4.5309988
  16.9190012  62.9774997   4.0179988  16.3009277  62.4780942   4.3713682
  16.7720012  63.1244997   9.8429988  17.7050012  63.3364997   9.8089988
  16.5370012  63.2264997  10.7649988  16.8678036  63.1672769   9.9629976
  16.8010012  63.8614997  12.6189988  15.9580012  64.1294997  12.9849988
  17.2430012  64.6834997  12.4079988  16.7454158  64.0093291  12.6405491
   1.0820012  62.3094997  16.0959988   2.0020012  62.1874997  16.3319988
   0.6330012  61.5594997  16.4849988   1.1471580  62.1913727  16.1809006
  19.0840012  57.8414997  17.9719988  19.4340012  57.1874997  17.3669988
  19.2310012  58.6784997  17.5329988  19.1518419  57.8651591  17.8297118
  16.7730012  59.8064997   4.4549988  16.9560012  59.3574997   5.2809988
  16.1740012  59.2214997   3.9919988  16.7170202  59.6659975   4.5053275
   2.3030012  60.6214997   8.9869988   2.7490012  59.8294997   9.2889988
   2.7700012  61.3374997   9.4179988   2.4270172  60.6100624   9.0864820
   0.6070012  63.6204997  10.0559988   1.0990012  63.3994997   9.2649988
   0.9700012  64.4614997  10.3369988   0.7233126  63.7038357   9.9857531
  18.6040012  59.9504997  16.3219988  17.6860012  60.2214997  16.2859988
  18.7270012  59.4154997  15.5369988  18.4951066  59.9152892  16.2110487
  18.6400012  59.8734997   0.9829988  19.0520012  59.1524997   0.5079988
  19.3220012  60.5434997   1.0419988  18.7885885  59.8652368   0.9258915
   0.9210012  59.8784997   4.1099988  -0.0039988  60.0874997   3.9809988
   1.3750012  60.3624997   3.4209988   0.8557368  59.9725993   3.9991226
  15.6920012  74.8624997   6.0559988  16.3440012  74.5154997   5.4479988
  16.2020012  75.3514997   6.7019988  15.8502637  74.8810597   6.0600236
   0.8850012  58.6164997  12.4549988   0.2200012  58.3704997  13.0979988
   0.4420012  59.2384997  11.8769988   0.7340956  58.6668632  12.4649352
   3.0770012  71.7914997  16.5989988   2.2560012  71.9664997  16.1389988
   2.8240012  71.7184997  17.5199988   2.9306164  71.8055622  16.6604923
   6.0310012  72.7664997  12.8579988   5.6060012  73.5754997  12.5749988
   6.9350012  72.8514997  12.5559988   6.0950271  72.8888469  12.7783776
  10.3420012  74.1654997  15.8169988  10.5270012  73.8314997  16.6949988
  11.1880012  74.4744997  15.4949988  10.4817539  74.1616047  15.8935605
  12.6870012  75.4514997  15.0609988  13.3640012  74.8184997  14.8209988
  13.0090012  75.8524997  15.8679988  12.8231637  75.4191154  15.1372793
  17.6040012  58.0404997  14.1409988  16.7920012  58.3654997  13.7529988
  17.8370012  57.2804997  13.6079988  17.5243423  57.9822436  14.0158253
   3.4330012  76.0224997  12.9049988   2.7120012  76.4624997  12.4539988
   3.0670012  75.7714997  13.7539988   3.2849804  76.0487698  12.9579840
   5.9000012  75.6224997  11.9349988   5.0350012  75.6944997  12.3389988
   5.8450012  76.1694997  11.1509988   5.7742085  75.7062685  11.8843362
  10.6100012  75.5104997  11.1099988  10.1540012  76.0394997  10.4559988
  10.7730012  76.1134997  11.8359988  10.5695585  75.6644468  11.1185062
  12.9380012  74.3884997  12.0549988  12.0330012  74.5534997  11.7899988
  13.3670012  75.2414997  11.9899988  12.8720799  74.5264483  12.0099182
  15.5420012  75.9584997  12.3499988  15.3600012  76.8744997  12.1399988
  15.7190012  75.5484997  11.5039988  15.5410210  76.0284822  12.2067885
   2.8470012  74.6454997   9.8149988   2.8290012  74.2204997  10.6729988
   3.6520012  74.3274997   9.4069988   2.9533875  74.5443812   9.8771655
   4.9890012  73.3554997   8.4699988   4.7700012  72.4394997   8.6399988
   5.8130012  73.4954997   8.9359988   5.0704420  73.2490520   8.5562774
   7.5260012  73.8254997   9.3189988   7.7390012  72.9374997   9.0319988
   7.5900012  73.7914997  10.2729988   7.5638231  73.6993102   9.4087397
  11.0340012  59.4894997   8.4629988  10.3600012  58.8604997   8.7189988
  11.5980012  59.0054997   7.8599988  11.0179230  59.3378744   8.4165340
  16.1770012  57.5974997   8.5759988  16.7810012  58.1444997   8.0739988
  15.3070012  57.9164997   8.3359988  16.1421241  57.7155806   8.4747654
  17.9040012  58.7354997   6.9089988  18.5160012  58.2214997   6.3829988
  18.2860012  59.6134997   6.9329988  18.0394540  58.7837140   6.8401830
   3.3610012  58.1234997   6.2849988   2.5840012  57.8894997   5.7779988
   3.8910012  57.3264997   6.2939988   3.3262330  57.9836988   6.2167742
   2.1970012  57.9214997   2.0889988   2.6360012  58.5324997   1.4969988
   1.5640012  58.4594997   2.5629988   2.1714514  58.0779257   2.0720930
   7.9400012  58.0504997   6.0989988   8.8150012  58.4384997   6.0689988
   7.8040012  57.8354997   7.0209988   8.0413695  58.0745184   6.2196440
  13.4970012  58.0804997   7.7479988  13.5730012  58.1754997   6.7979988
  13.2220012  57.1724997   7.8769988  13.4702321  57.9707867   7.6355079
  14.8500012  58.1064997   3.4399988  14.1480012  58.7214997   3.2309988
  14.4060012  57.2684997   3.5709988  14.6936330  58.0775783   3.4290328
   2.0980012  73.8694997   2.9869988   1.4130012  73.8314997   2.3189988
   2.1020012  74.7824997   3.2749988   2.0048193  73.9877016   2.9345284
   4.0580012  59.8374997   0.5309988   4.5500012  59.2074997   0.0039988
   4.6820012  60.1334997   1.1949988   4.2095446  59.7913199   0.5485980
   9.0840012  60.1304997   2.9879988   9.2620012  59.4844997   3.6709988
   9.0310012  60.9644997   3.4559988   9.1011829  60.1547985   3.1445940
  10.9630012  75.0794997   1.3839988  11.8290012  75.4454997   1.2059988
  10.7160012  74.6394997   0.5699988  11.0482392  75.0701756   1.2496289
  17.6720012  74.6424997   4.0629988  17.4770012  73.8944997   3.4979988
  17.6330012  75.4004997   3.4799988  17.6400380  74.6426099   3.9068384
   3.3190012  58.6374997  15.8029988   2.9530012  57.8724997  16.2459988
   4.2320012  58.6664997  16.0899988   3.3922790  58.5367224  15.9024070
   5.2920012  57.9884997  17.3389988   6.1900012  57.7144997  17.1539988
   4.9050012  57.2454997  17.8029988   5.3626612  57.8505914  17.3763643
   3.9160012  74.7894997   0.0119988   3.6490012  75.0764997   0.8849988
   4.6880012  74.2434997   0.1639988   3.9837488  74.7550294   0.1521050
  13.7130012  57.3204997  17.5209988  13.7900012  56.8944997  18.3749988
  14.6070012  57.3344997  17.1779988  13.8443428  57.2640879  17.5915310
  16.8890012  73.3934997  16.2129988  16.1070012  73.2074997  15.6939988
  16.8170012  74.3224997  16.4309988  16.7721777  73.4936492  16.1714048
  31.2950012  67.2794997   6.2439988  31.3840012  68.2234997   6.1119988
  30.6570012  67.0044997   5.5859988  31.2209081  67.3714830   6.1369614
  30.2280012  66.5344997   9.6629988  30.1900012  65.8884997  10.3679988
  29.9060012  66.0684997   8.8919988  30.1792333  66.3829408   9.6552978
  22.5970012  66.1494997  11.2559988  22.6380012  65.5234997  11.9789988
  23.3000012  66.7734997  11.4379988  22.6976363  66.1481196  11.3796044
  33.9340012  69.4734997   7.9639988  33.4940012  68.7534997   8.4149988
  33.9210012  70.1944997   8.5939988  33.8720226  69.4723731   8.1108494
  23.5200012  70.5994997   9.7909988  23.1510012  69.7974997   9.4209988
  24.4610012  70.4304997   9.8369988  23.5967289  70.4670153   9.7466316
  20.1300012  64.2594997   5.1839988  19.6830012  65.1054997   5.1649988
  19.5690012  63.6794997   4.6679988  19.9929900  64.2969916   5.1116801
  20.8410012  66.4214997   7.3099988  21.0540012  65.6514997   7.8369988
  21.5790012  66.5104997   6.7059988  20.9698496  66.3281394   7.3005300
  31.0460012  74.5784997   8.1769988  31.6660012  73.9014997   7.9029988
  30.8380012  74.3604997   9.0849988  31.1026904  74.4563870   8.2623365
  28.6180012  68.9674997  10.0689988  28.9220012  68.2814997   9.4739988
  29.3390012  69.0854997  10.6869988  28.7570671  68.8896305  10.0711816
  37.2810012  60.5684997  10.9299988  37.3300012  61.1784997  11.6659988
  37.7060012  61.0294997  10.2069988  37.3451824  60.7143741  10.9330205
  31.7590012  63.3614997  10.3969988  31.9010012  62.4154997  10.4169988
  31.6520012  63.5684997   9.4679988  31.7639864  63.2599534  10.2742339
  24.9130012  61.4624997   7.6689988  24.9570012  62.3224997   7.2509988
  24.4560012  60.9104997   7.0349988  24.8572185  61.5055799   7.5260299
  32.6360012  61.5934997   6.0699988  33.2820012  61.2644997   6.6949988
  33.1460012  62.1114997   5.4469988  32.7934264  61.6184611   6.0713862
  21.5340012  63.8594997   8.4309988  22.1870012  63.3094997   8.8629988
  21.5580012  63.5854997   7.5139988  21.6266683  63.7471466   8.3662123
  26.6900012  65.4094997   7.6459988  27.3060012  64.8834997   8.1559988
  26.1040012  64.7694997   7.2429988  26.6950810  65.2509208   7.6613173
  37.6720012  62.0464997  13.1659988  36.9840012  62.7044997  13.0699988
  37.6880012  61.8494997  14.1019988  37.5798525  62.1100462  13.2794808
  23.7240012  60.3804997  11.7429988  23.5050012  60.9104997  10.9769988
  23.0560012  60.6074997  12.3899988  23.6037600  60.4836906  11.7256379
  31.0930012  69.8804997   5.2869988  30.7970012  69.5584997   4.4359988
  30.7680012  70.7804997   5.3279988  31.0086371  69.9580215   5.1761801
  26.2930012  68.0564997  12.0299988  25.5530012  68.6544997  12.1339988
  27.0070012  68.6104997  11.7149988  26.2882237  68.2132831  12.0016465
  34.4000012  60.8844997   8.0499988  34.1840012  60.1184997   8.5829988
  35.0550012  61.3564997   8.5629988  34.4590632  60.8435889   8.1922861
  23.3170012  62.2724997   9.6949988  23.9310012  62.9054997  10.0689988
  23.8290012  61.8004997   9.0389988  23.4702296  62.2952370   9.6574252
  24.7000012  70.0204997  12.8179988  24.6950012  70.9004997  12.4399988
  23.8470012  69.9374997  13.2429988  24.5839464  70.1296117  12.8237907
  20.8210012  69.6914997   3.5999988  20.5490012  69.9204997   2.7109988
  20.8670012  70.5294997   4.0599988  20.7900094  69.8361213   3.5405697
  34.4460012  71.3134997  10.3119988  33.5050012  71.3714997  10.4739988
  34.7230012  72.2194997  10.1749988  34.3544679  71.4439443  10.3156815
  34.7470012  59.5994997  11.7299988  34.0110012  60.2104997  11.6919988
  35.4300012  60.0144997  11.2029988  34.7386541  59.7391374  11.6535832
  27.7500012  57.6864997   9.1959988  27.6330012  56.7374997   9.1409988
  26.8950012  58.0184997   9.4689988  27.6183733  57.6015409   9.2253897
  32.6980012  73.0944997   6.9379988  33.1240012  72.3874997   6.4529988
  33.0150012  73.8954997   6.5209988  32.7991019  73.1060994   6.8153130
  33.8580012  70.9954997   5.4459988  33.6000012  70.3054997   4.8349988
  33.9290012  70.5524997   6.2919988  33.8322856  70.8412124   5.4766885
  35.5440012  69.5614997  13.9239988  35.6840012  68.9704997  13.1839988
  35.7110012  70.4344997  13.5669988  35.5856778  69.5986426  13.7746965
  30.0170012  66.5234997   3.6959988  29.3050012  67.0584997   3.3439988
  30.7080012  66.5794997   3.0359988  30.0130132  66.6042543   3.5586289
  30.0700012  64.9814997   0.7349988  30.7710012  65.0034997   1.3859988
  30.3730012  64.3534997   0.0789988  30.2067830  64.8996566   0.7353711
  37.3860012  65.9014997  11.9899988  36.7330012  66.5964997  12.0789988
  37.8510012  66.1114997  11.1799988  37.3595390  66.0249425  11.8926883
  33.4220012  66.7334997   4.6479988  32.6900012  66.9614997   5.2209988
  33.8700012  66.0194997   5.1029988  33.3823095  66.6682571   4.7879119
  33.3200012  64.9074997  13.7149988  33.4000012  65.6704997  14.2869988
  32.7180012  65.1864997  13.0249988  33.2495756  65.0497134  13.7000589
  25.0680012  67.3634997   6.5299988  24.7370012  66.9934997   5.7119988
  25.6560012  66.6934997   6.8769988  25.1021873  67.2221156   6.4648102
  26.4340012  70.7914997   9.2119988  26.3400012  70.2134997   8.4549988
  27.1640012  70.4204997   9.7079988  26.5197981  70.6622390   9.1754165
  25.4340012  66.1324997  10.1639988  26.0000012  66.2534997   9.4009988
  25.7530012  66.7694997  10.8029988  25.5545786  66.2351884  10.1460040
  31.7430012  71.6354997  10.8979988  31.5030012  72.2974997  11.5459988
  31.5450012  70.8014997  11.3229988  31.6833808  71.6133134  11.0441524
  26.3140012  70.5314997  14.8809988  26.0030012  71.3134997  15.3359988
  25.6640012  70.3784997  14.1949988  26.1835558  70.6179105  14.8505871
  32.2930012  65.8954997   2.3329988  32.8730012  66.0454997   3.0799988
  32.7070012  66.3664997   1.6099988  32.4282830  65.9796841   2.3374134
  23.2340012  66.7294997  14.1099988  23.3050012  67.3804997  14.8079988
  22.3440012  66.8324997  13.7749988  23.1233117  66.8325936  14.1602700
  30.0200012  72.6324997   5.7679988  30.4940012  72.9274997   6.5459988
  29.4570012  73.3704997   5.5349988  30.0087653  72.7726932   5.8430136
  24.5540012  72.6034997  15.6439988  24.5610012  72.4674997  14.6969988
  23.6380012  72.4854997  15.8959988  24.4311714  72.5689430  15.5484666
  35.9920012  57.6454997   2.1459988  35.0920012  57.7844997   2.4409988
  36.2440012  58.4764997   1.7439988  35.9028702  57.7769074   2.1320205
  24.0580012  66.4334997   4.1199988  23.7660012  67.2014997   3.6289988
  23.3840012  65.7734997   3.9569988  23.9269081  66.4494406   4.0307340
  37.1810012  72.0114997   0.5219988  37.2550012  72.9504997   0.6929988
  38.0870012  71.7064997   0.4659988  37.3135100  72.0986722   0.5378119
  20.1510012  68.7964997  12.9349988  19.6500012  68.7684997  12.1199988
  20.1560012  67.8904997  13.2439988  20.0831526  68.6702278  12.8652872
  19.9010012  71.5764997   9.8189988  20.8470012  71.4324997   9.7999988
  19.7890012  72.3604997  10.3559988  20.0152727  71.6628046   9.8890072
  38.0990012  72.2424997  15.5009988  38.0500012  71.2874997  15.4639988
  37.2720012  72.5104997  15.9019988  37.9804940  72.1478998  15.5501375
  29.0780012  71.8164997  14.3769988  29.1650012  72.6424997  14.8519988
  28.2140012  71.4864997  14.6259988  28.9731964  71.8849878  14.4756549
  29.4920012  75.5884997   4.1829988  29.4170012  75.4674997   3.2369988
  29.5250012  76.5384997   4.3019988  29.4861848  75.7002500   4.0694834
  23.1450012  74.3774997   5.9639988  23.2980012  74.0294997   6.8429988
  22.2950012  74.0214997   5.7089988  23.0508962  74.2816650   6.0498340
  32.5940012  74.7424997   1.1849988  32.9690012  73.9984997   0.7149988
  32.5980012  74.4724997   2.1039988  32.6458915  74.6041486   1.2447824
  32.2630012  74.6684997   3.9349988  31.3270012  74.7684997   4.1129988
  32.5430012  73.9594997   4.5129988  32.1728255  74.5862711   4.0375391
  35.2510012  63.7354997  15.9809988  34.8440012  64.2164997  15.2599988
  35.2920012  62.8304997  15.6729988  35.2008437  63.6789374  15.8406683
  22.4000012  70.1194997  13.9779988  22.6160012  69.7584997  14.8369988
  21.5450012  69.7454997  13.7679988  22.3139292  70.0194111  14.0673386
  25.0190012  58.5894997   9.9729988  24.1570012  58.5024997   9.5659988
  24.9960012  59.4454997  10.4009988  24.8980330  58.6932765   9.9751863
  29.6820012  58.3114997  13.3479988  30.1020012  57.8964997  14.1009988
  28.7490012  58.1334997  13.4649988  29.6133644  58.2305900  13.4669539
  33.0080012  62.0674997  14.2009988  32.4940012  61.9414997  14.9989988
  32.8530012  62.9794997  13.9569988  32.9166852  62.1736132  14.2772158
  33.7710012  66.9284997  -0.0370012  33.8130012  66.7054997  -0.9670012
  34.6200012  67.3274997   0.1529988  33.8915396  66.9519155  -0.1386373
  29.3430012  60.8044997   0.6329988  29.0900012  60.8234997   1.5559988
  29.0870012  59.9324997   0.3319988  29.2737790  60.6892437   0.7186263
  25.1100012  63.5554997  11.0679988  24.4680012  63.5144997  11.7769988
  25.1470012  64.4814997  10.8309988  25.0271324  63.6751559  11.1329824
  25.1070012  63.7764997   5.9799988  24.2140012  63.4354997   5.9219988
  25.5570012  63.3994997   5.2249988  25.0457305  63.6788484   5.8699177
  30.6420012  64.1924997   4.7969988  30.2330012  65.0074997   4.5059988
  31.3630012  64.0524997   4.1829988  30.6834537  64.2852018   4.6741342
  29.7440012  64.3674997  16.2849988  29.1820012  63.6634997  16.6059988
  30.5710012  64.2474997  16.7529988  29.7787095  64.2547883  16.3922330
  31.6470012  63.6384997   7.6109988  31.4520012  64.2434997   6.8959988
  31.8280012  62.8044997   7.1769988  31.6447614  63.6086300   7.4544405
  22.8600012  63.8754997  12.9349988  22.8220012  64.2754997  13.8039988
  22.3690012  63.0584997  13.0259988  22.7884684  63.8198069  13.0661059
  26.2260012  61.2494997  -0.2660012  25.7950012  60.8044997   0.4639988
  25.5080012  61.6214997  -0.7780012  26.0699438  61.2388940  -0.2353201
  19.4680012  60.9914997   6.7859988  20.0990012  60.9624997   7.5049988
  19.9170012  60.5664997   6.0559988  19.6150774  60.9300492   6.7856553
  20.7420012  61.7374997   2.2099988  21.2160012  62.3284997   1.6249988
  20.0250012  62.2684997   2.5569988  20.7099341  61.8900867   2.1768836
  30.9110012  65.2764997  12.2829988  31.2340012  64.6454997  11.6399988
  30.4710012  64.7414997  12.9429988  30.8956895  65.1178441  12.2842850
  27.6880012  61.2034997   7.0669988  26.7770012  61.2604997   7.3549988
  28.1940012  61.1434997   7.8769988  27.6315413  61.2031985   7.2160622
  22.5170012  62.8324997   5.8929988  21.6270012  62.9324997   5.5529988
  22.8130012  61.9904997   5.5469988  22.4352823  62.7323545   5.7997213
  26.1700012  62.8324997   3.5499988  27.1010012  62.9614997   3.7279988
  25.9550012  63.5024997   2.8999988  26.2684247  62.9406565   3.4865747
  32.0930012  60.4384997  10.3309988  31.4170012  60.5694997  10.9949988
  31.6080012  60.2834997   9.5209988  31.9347145  60.4354905  10.3124517
  24.8440012  64.0274997   1.1169988  24.3010012  63.6474997   0.4249988
  25.6770012  64.2214997   0.6879988  24.8824399  64.0018124   0.9644526
  35.3810012  76.1104997  16.6079988  35.5810012  76.5344997  15.7729988
  36.0360012  76.4534997  17.2149988  35.4970051  76.2149648  16.5757836
  22.9790012  68.5844997  16.2159988  23.7110012  68.8384997  16.7769988
  22.1990012  68.7884997  16.7309988  22.9738232  68.6469177  16.3625760
  29.0080012  63.9914997   8.9539988  29.5730012  63.4444997   8.4069988
  28.8610012  63.4694997   9.7419988  29.0652918  63.8462024   8.9858454
  24.0100012  60.1274997   5.3719988  23.6930012  59.2254997   5.3369988
  24.7920012  60.1294997   4.8189988  24.0722284  60.0041628   5.2924783
  27.6350012  62.3794997  11.3679988  26.7990012  62.8334997  11.4779988
  28.1590012  62.6554997  12.1199988  27.5914414  62.4789376  11.4847136
  28.1790012  68.5924997   3.0519988  27.4340012  68.0854997   2.7299988
  28.0450012  68.6414997   3.9989988  28.0588776  68.5296940   3.1358647
  35.3290012  67.7254997  11.8389988  35.9710012  68.1824997  11.2949988
  34.4990012  67.8384997  11.3759988  35.3045963  67.8032704  11.7020177
  32.0770012  61.4064997   1.2519988  31.1380012  61.5184997   1.0999988
  32.3740012  62.2634997   1.5579988  31.9887666  61.5376443   1.2725768
  29.6980012  68.7764997  14.2889988  29.3530012  68.3954997  15.0959988
  29.4980012  69.7104997  14.3609988  29.6238061  68.8505228  14.4090961
  32.7950012  63.2734997   2.9119988  33.6870012  63.1364997   3.2309988
  32.8520012  64.0644997   2.3759988  32.9246285  63.3616660   2.8831690
  23.3040012  67.8874997   8.8219988  24.0490012  67.8854997   8.2209988
  23.3820012  67.0644997   9.3039988  23.4165518  67.7759315   8.8048929
  30.3050012  70.0514997   2.0779988  30.0090012  70.8774997   2.4589988
  29.6020012  69.4314997   2.2739988  30.1694914  70.0808199   2.1566443
  20.3120012  66.3484997  14.1369988  20.5350012  65.9304997  14.9689988
  19.7100012  65.7354997  13.7139988  20.2611759  66.2084668  14.1937022
  27.3280012  65.8654997  16.3499988  27.0320012  65.6994997  15.4549988
  28.2600012  65.6454997  16.3389988  27.4134166  65.8130640  16.2260536
  31.9490012  71.2384997  14.2399988  31.0480012  71.4214997  13.9719988
  31.9830012  71.4974997  15.1609988  31.8303041  71.2985512  14.3278197
  37.6800012  63.4834997   2.6069988  37.1260012  63.0874997   1.9349988
  37.7800012  64.3934997   2.3289988  37.6177059  63.5523586   2.4774401
  37.6430012  69.2834997  15.4439988  36.7920012  69.5214997  15.0769988
  38.2340012  69.2664997  14.6909988  37.6062487  69.3138258  15.2918893
  35.9750012  72.2694997   3.0719988  35.6020012  71.4434997   3.3809988
  36.2530012  72.0864997   2.1749988  35.9615630  72.1317303   2.9929626
  33.1360012  67.0774997  10.0929988  32.2070012  66.8454997  10.0659988
  33.5870012  66.3004997   9.7629988  33.0699216  66.9407238  10.0446917
  25.6790012  71.4054997   6.2259988  26.2060012  72.1784997   6.0259988
  24.7990012  71.6304997   5.9249988  25.6321773  71.5418005   6.1579010
  21.4340012  66.2674997   0.8129988  22.0500012  66.8944997   1.1929988
  20.5720012  66.5834997   1.0849988  21.4017698  66.3959430   0.9017183
  27.1060012  69.0684997   5.8029988  26.8650012  69.9934997   5.8439988
  26.3650012  68.6094997   6.1989988  26.9728409  69.1331421   5.8621377
  27.6210012  73.2174997  12.1179988  27.9830012  74.0724997  11.8839988
  28.1520012  72.9254997  12.8579988  27.7424473  73.2951060  12.1860855
  25.7890012  74.0904997   5.3479988  24.8390012  74.1954997   5.3989988
  26.1410012  74.9104997   5.6929988  25.7064203  74.2158314   5.4016650
  31.1650012  69.3164997  11.8179988  30.7390012  69.0894997  12.6449988
  31.7450012  68.5784997  11.6359988  31.1851868  69.1855299  11.9065830
  33.3680012  70.2454997   0.8919988  33.7210012  69.8654997   1.6969988
  32.4190012  70.1524997   0.9789988  33.2880441  70.1809596   1.0138559
  33.8230012  73.8684997  14.2879988  33.2220012  73.3134997  13.7919988
  34.1050012  74.5354997  13.6619988  33.7788519  73.8826841  14.1354952
  37.8710012  74.7254997   1.0929988  38.6150012  75.3114997   0.9529988
  37.1770012  75.2934997   1.4269988  37.8790292  74.8825582   1.1189961
  21.9460012  61.1014997  13.6949988  21.0530012  61.4404997  13.6269988
  21.8470012  60.2464997  14.1129988  21.8104164  61.0322588  13.7422235
  34.2340012  68.9184997   3.1189988  33.9560012  68.1904997   3.6749988
  35.1610012  69.0374997   3.3239988  34.3213124  68.8348802   3.2228845
  21.5970012  72.9064997  12.1299988  21.8140012  71.9744997  12.0989988
  21.8430012  73.1804997  13.0129988  21.6599549  72.8160636  12.2451763
  27.4590012  71.3574997  -0.6610012  27.6980012  70.6094997  -1.2080012
  27.1900012  70.9694997   0.1719988  27.4553675  71.2026638  -0.6233135
  26.3960012  70.9274997   1.7959988  26.5420012  70.4074997   2.5859988
  26.3930012  71.8344997   2.1019988  26.4155989  70.9788853   1.9456088
  22.8490012  68.1804997   2.3059988  22.1630012  68.5324997   2.8729988
  23.3710012  68.9434997   2.0589988  22.8256852  68.3318578   2.3502118
  30.6800012  60.8424997  12.5849988  31.3790012  60.9164997  13.2349988
  30.2990012  59.9784997  12.7389988  30.7241767  60.7357624  12.6948322
  31.4650012  60.4944997   3.6819988  31.6850012  60.9664997   2.8789988
  32.0230012  60.8894997   4.3519988  31.5704968  60.6124285   3.6627331
  29.1330012  72.6254997   2.5449988  28.3170012  73.1224997   2.5969988
  29.6630012  73.1004997   1.9049988  29.0929161  72.7577722   2.4655956
  28.6650012  62.2224997   4.5169988  29.4770012  62.7274997   4.5629988
  28.4200012  62.0774997   5.4309988  28.7430520  62.2720375   4.6468517
  29.2000012  63.2084997  13.7019988  29.3190012  63.7824997  14.4589988
  29.8560012  62.5204997  13.8159988  29.3049757  63.1941079  13.8210825
  29.5480012  59.3034997   5.4549988  29.2020012  59.9214997   6.0999988
  30.2070012  59.8044997   4.9739988  29.5897826  59.4555802   5.4780971
  26.4720012  73.6694997   2.5269988  26.6320012  74.4684997   2.0259988
  26.2740012  73.9754997   3.4119988  26.4671649  73.8204469   2.5779815
  25.2060012  60.3664997   2.1419988  25.1230012  61.2554997   2.4889988
  26.0960012  60.1014997   2.3739988  25.3149469  60.4521430   2.2207626
  35.4050012  61.1154997  14.5369988  34.4880012  61.3784997  14.4489988
  35.7400012  61.1124997  13.6399988  35.3249900  61.1510224  14.4037919
  34.0070012  64.8664997   8.6319988  33.2090012  64.4514997   8.3039988
  34.4520012  64.1754997   9.1229988  33.9579885  64.7163543   8.6534889
  23.4650012  70.7944997   1.2029988  24.0570012  71.4934997   1.4789988
  23.9240012  70.3614997   0.4829988  23.6081142  70.8317049   1.1434830
  21.7810012  63.4584997   0.3189988  21.7360012  64.3974997   0.4969988
  20.8930012  63.2224997   0.0489988  21.6548574  63.5551892   0.3068912
  35.0930012  74.1224997  10.2549988  34.9380012  74.8004997   9.5979988
  36.0260012  74.1944997  10.4579988  35.1978500  74.2250170  10.1925119
  22.5890012  58.2404997   8.9919988  22.3600012  58.2994997   8.0639988
  22.1460012  57.4484997   9.2979988  22.4978530  58.1415753   8.9064786
  21.5190012  72.1804997   5.1519988  20.6870012  72.6534997   5.1799988
  22.0650012  72.6904997   4.5539988  21.4789739  72.3141871   5.0749716
  20.8070012  74.7934997  16.4819988  21.3480012  74.5764997  17.2419988
  20.3260012  73.9874997  16.2929988  20.8159345  74.6549514  16.5603076
  25.4050012  73.7124997  18.1029988  26.1720012  73.2534997  18.4439988
  25.3830012  73.4864997  17.1729988  25.5071434  73.6190409  18.0240043
  29.4970012  73.2204997  -0.5220012  28.8530012  72.5894997  -0.2010012
  30.2590012  72.6894997  -0.7540012  29.5118077  73.0622920  -0.5093989
  31.9820012  72.0924997  16.8319988  31.6310012  71.2364997  17.0749988
  32.7080012  72.2354997  17.4389988  32.0320769  71.9945636  16.9473619
  34.1010012  73.0374997  -0.2880012  34.3840012  72.2434997   0.1639988
  34.8410012  73.2704997  -0.8490012  34.2397486  72.9602803  -0.3019302
  20.7140012  68.6034997  17.4369988  20.8580012  67.7014997  17.1499988
  19.9420012  68.8894997  16.9489988  20.6293322  68.5188261  17.3317881
  25.0560012  68.9474997  -0.4310012  25.1200012  68.1534997   0.0999988
  25.7090012  68.8284997  -1.1210012  25.1530241  68.8227148  -0.4515683
  27.3700012  68.5734997  16.8689988  27.0410012  68.8444997  16.0119988
  27.5220012  67.6324997  16.7819988  27.3454809  68.4833862  16.7398244
  30.4080012  69.9944997  -0.6950012  30.1390012  70.1744997   0.2059988
  30.2020012  69.0684997  -0.8260012  30.3433825  69.8940152  -0.5894786
  33.1040012  68.4894997  14.2529988  33.8500012  69.0774997  14.1329988
  32.3470012  69.0714997  14.3159988  33.1037554  68.6487011  14.2450907
  21.5470012  65.8034997  16.8569988  21.9550012  64.9464997  16.7359988
  21.2870012  65.8184997  17.7779988  21.5677568  65.6880807  16.9649588
  26.2050012  66.9194997   1.8749988  25.7450012  66.4354997   2.5609988
  26.4600012  66.2514997   1.2389988  26.1764902  66.7628731   1.8829334
  25.4940012  64.8124997  14.2309988  24.8760012  65.4874997  14.5109988
  25.8380012  65.1334997  13.3979988  25.4559615  64.9482721  14.1566581
  27.2760012  65.1624997   0.1369988  27.0960012  65.0084997  -0.7900012
  28.2260012  65.2704997   0.1819988  27.3797776  65.1560175   0.0161843
  30.5140012  67.2844997  17.5079988  31.4670012  67.3674997  17.4809988
  30.3530012  66.5724997  18.1279988  30.6226426  67.1996746  17.5880578
  36.6660012  67.5174997  -0.4170012  36.3920012  67.0924997  -1.2300012
  36.7050012  68.4484997  -0.6340012  36.6337699  67.5852484  -0.5576390
  25.8330012  62.1674997  15.3129988  25.9830012  61.4384997  14.7109988
  25.8360012  62.9444997  14.7539988  25.8539302  62.1727851  15.1550692
  26.2460012  60.5374997  12.8059988  26.7820012  60.9884997  12.1539988
  25.3940012  60.4294997  12.3829988  26.2042178  60.5846390  12.6595756
  27.8280012  65.9764997  13.0449988  28.5780012  65.8204997  12.4719988
  27.4890012  66.8284997  12.7699988  27.8848921  66.0702968  12.9293561
  32.2430012  63.7914997  18.0739988  32.4360012  62.8604997  17.9619988
  33.1010012  64.2164997  18.0639988  32.3853020  63.7216389  18.0573361
  33.5600012  66.5804997  16.1509988  33.2790012  67.2894997  15.5739988
  34.5030012  66.5074997  15.9999988  33.6489027  66.6677646  16.0515551
  24.3120012  63.3654997  17.2249988  23.5450012  62.8334997  17.0149988
  24.9910012  63.0554997  16.6249988  24.2987022  63.2507506  17.1151648
  27.0520012  57.9934997  13.2369988  26.9530012  58.9404997  13.1319988
  26.3090012  57.6214997  12.7619988  26.9380564  58.0725902  13.1584560
  28.3160012  62.3154997  16.8009988  28.0800012  62.0954997  17.7029988
  27.5320012  62.1084997  16.2909988  28.1778628  62.2574760  16.8553932
  31.0310012  61.4424997  15.8769988  30.0840012  61.4744997  16.0089988
  31.3440012  60.8174997  16.5299988  30.9435475  61.3623207  15.9834455
  32.6650012  60.0764997  17.8819988  32.5690012  59.1244997  17.8759988
  32.3440012  60.3454997  18.7419988  32.6084070  59.9824035  17.9975441
  22.4920012  61.2864997  16.9289988  22.7040012  60.5794997  16.3189988
  22.3810012  60.8484997  17.7729988  22.5059721  61.1307084  16.9596843
  27.2730012  57.2874997  15.9089988  27.9850012  56.6474997  15.8949988
  27.1720012  57.5544997  14.9949988  27.3567939  57.2359938  15.7835650
  27.6270012  58.9704997  17.9619988  27.4950012  58.4944997  17.1419988
  27.0280012  59.7144997  17.9069988  27.5279071  59.0059618  17.8422886
  27.1730012  75.8534997   1.1389988  28.1060012  76.0114997   1.2819988
  26.9090012  76.5284997   0.5139988  27.2649510  75.9663611   1.0740741
  20.7420012  70.4894997   0.6209988  21.6560012  70.5684997   0.8949988
  20.7490012  69.8024997  -0.0450012  20.8681131  70.4073961   0.5684393
  19.3910012  75.8824997   5.6989988  18.7440012  75.4204997   5.1659988
  19.7450012  75.2104997   6.2809988  19.3503849  75.7284723   5.7047959
  20.2610012  73.9634997   7.5029988  19.9260012  73.0834997   7.6749988
  20.4830012  74.3084997   8.3679988  20.2451783  73.8897500   7.6434208
  37.8090012  74.7724997  10.4839988  37.7880012  74.9574997  11.4229988
  38.5000012  75.3414997  10.1429988  37.8994618  74.8746606  10.5663864
  37.3730012  74.3404997  13.4059988  36.8850012  73.6044997  13.0349988
  37.9220012  73.9464997  14.0839988  37.3804872  74.1866249  13.4469160
  35.8230012  70.1294997  18.0439988  34.9570012  70.0244997  18.4379988
  36.2000012  70.8884997  18.4899988  35.7553308  70.2176900  18.1582393
  37.1240012  68.3864997   3.5579988  37.9740012  68.8074997   3.6849988
  37.1300012  67.6464997   4.1649988  37.2411372  68.3440803   3.6574344
  37.5190012  66.4394997   5.3819988  36.7920012  65.9604997   5.7789988
  38.1000012  66.6454997   6.1139988  37.4979375  66.4017090   5.5354129
  37.2780012  69.2244997  10.3289988  38.1110012  68.8464997  10.0489988
  37.3900012  70.1674997  10.2099988  37.4072647  69.3002218  10.2745487
  35.7640012  72.1024997  12.6359988  35.1170012  72.4274997  13.2619988
  35.2470012  71.6624997  11.9619988  35.6054029  72.0875004  12.6305827
  37.7870012  66.3404997   1.7729988  37.2650012  66.6974997   1.0539988
  37.7540012  67.0154997   2.4509988  37.7111634  66.4805413   1.7663145
  36.1360012  63.5804997   0.3239988  36.2320012  64.2474997  -0.3570012
  35.9960012  62.7644997  -0.1580012  36.1302135  63.5614500   0.1658491
  35.3050012  64.9604997   5.9449988  35.1550012  64.0154997   5.9239988
  34.9520012  65.2414997   6.7879988  35.2366625  64.8690441   6.0562346
  20.3410012  67.0384997   9.9549988  20.5250012  66.9564997   9.0189988
  21.1900012  66.9144997  10.3789988  20.4810139  67.0105003   9.8841455
  36.1620012  66.9304997  15.5829988  36.7450012  66.1964997  15.7749988
  36.7260012  67.7024997  15.6299988  36.3179769  66.9344227  15.6156159
  37.6580012  64.8334997  16.2679988  36.7950012  64.4544997  16.1019988
  38.2630012  64.0944997  16.1939988  37.6215979  64.6818023  16.2352817
  35.3830012  60.9884997  -0.5590012  35.9940012  60.6174997   0.0779988
  34.5470012  60.5674997  -0.3630012  35.3535032  60.8807554  -0.4452965
  35.0160012  62.5434997   4.4069988  35.2960012  61.6364997   4.5309988
  35.7750012  62.9774997   4.0179988  35.1569277  62.4780942   4.3713682
  35.6280012  63.1244997   9.8429988  36.5610012  63.3364997   9.8089988
  35.3930012  63.2264997  10.7649988  35.7238036  63.1672769   9.9629976
  35.6570012  63.8614997  12.6189988  34.8140012  64.1294997  12.9849988
  36.0990012  64.6834997  12.4079988  35.6014158  64.0093291  12.6405491
  19.9380012  62.3094997  16.0959988  20.8580012  62.1874997  16.3319988
  19.4890012  61.5594997  16.4849988  20.0031580  62.1913727  16.1809006
  37.9400012  57.8414997  17.9719988  38.2900012  57.1874997  17.3669988
  38.0870012  58.6784997  17.5329988  38.0078419  57.8651591  17.8297118
  35.6290012  59.8064997   4.4549988  35.8120012  59.3574997   5.2809988
  35.0300012  59.2214997   3.9919988  35.5730202  59.6659975   4.5053275
  21.1590012  60.6214997   8.9869988  21.6050012  59.8294997   9.2889988
  21.6260012  61.3374997   9.4179988  21.2830172  60.6100624   9.0864820
  19.4630012  63.6204997  10.0559988  19.9550012  63.3994997   9.2649988
  19.8260012  64.4614997  10.3369988  19.5793126  63.7038357   9.9857531
  37.4600012  59.9504997  16.3219988  36.5420012  60.2214997  16.2859988
  37.5830012  59.4154997  15.5369988  37.3511066  59.9152892  16.2110487
  37.4960012  59.8734997   0.9829988  37.9080012  59.1524997   0.5079988
  38.1780012  60.5434997   1.0419988  37.6445885  59.8652368   0.9258915
  19.7770012  59.8784997   4.1099988  18.8520012  60.0874997   3.9809988
  20.2310012  60.3624997   3.4209988  19.7117368  59.9725993   3.9991226
  34.5480012  74.8624997   6.0559988  35.2000012  74.5154997   5.4479988
  35.0580012  75.3514997   6.7019988  34.7062637  74.8810597   6.0600236
  19.7410012  58.6164997  12.4549988  19.0760012  58.3704997  13.0979988
  19.2980012  59.2384997  11.8769988  19.5900956  58.6668632  12.4649352
  21.9330012  71.7914997  16.5989988  21.1120012  71.9664997  16.1389988
  21.6800012  71.7184997  17.5199988  21.7866164  71.8055622  16.6604923
  24.8870012  72.7664997  12.8579988  24.4620012  73.5754997  12.5749988
  25.7910012  72.8514997  12.5559988  24.9510271  72.8888469  12.7783776
  29.1980012  74.1654997  15.8169988  29.3830012  73.8314997  16.6949988
  30.0440012  74.4744997  15.4949988  29.3377539  74.1616047  15.8935605
  31.5430012  75.4514997  15.0609988  32.2200012  74.8184997  14.8209988
  31.8650012  75.8524997  15.8679988  31.6791637  75.4191154  15.1372793
  36.4600012  58.0404997  14.1409988  35.6480012  58.3654997  13.7529988
  36.6930012  57.2804997  13.6079988  36.3803423  57.9822436  14.0158253
  22.2890012  76.0224997  12.9049988  21.5680012  76.4624997  12.4539988
  21.9230012  75.7714997  13.7539988  22.1409804  76.0487698  12.9579840
  24.7560012  75.6224997  11.9349988  23.8910012  75.6944997  12.3389988
  24.7010012  76.1694997  11.1509988  24.6302085  75.7062685  11.8843362
  29.4660012  75.5104997  11.1099988  29.0100012  76.0394997  10.4559988
  29.6290012  76.1134997  11.8359988  29.4255585  75.6644468  11.1185062
  31.7940012  74.3884997  12.0549988  30.8890012  74.5534997  11.7899988
  32.2230012  75.2414997  11.9899988  31.7280799  74.5264483  12.0099182
  34.3980012  75.9584997  12.3499988  34.2160012  76.8744997  12.1399988
  34.5750012  75.5484997  11.5039988  34.3970210  76.0284822  12.2067885
  21.7030012  74.6454997   9.8149988  21.6850012  74.2204997  10.6729988
  22.5080012  74.3274997   9.4069988  21.8093875  74.5443812   9.8771655
  23.8450012  73.3554997   8.4699988  23.6260012  72.4394997   8.6399988
  24.6690012  73.4954997   8.9359988  23.9264420  73.2490520   8.5562774
  26.3820012  73.8254997   9.3189988  26.5950012  72.9374997   9.0319988
  26.4460012  73.7914997  10.2729988  26.4198231  73.6993102   9.4087397
  29.8900012  59.4894997   8.4629988  29.2160012  58.8604997   8.7189988
  30.4540012  59.0054997   7.8599988  29.8739230  59.3378744   8.4165340
  35.0330012  57.5974997   8.5759988  35.6370012  58.1444997   8.0739988
  34.1630012  57.9164997   8.3359988  34.9981241  57.7155806   8.4747654
  36.7600012  58.7354997   6.9089988  37.3720012  58.2214997   6.3829988
  37.1420012  59.6134997   6.9329988  36.8954540  58.7837140   6.8401830
  22.2170012  58.1234997   6.2849988  21.4400012  57.8894997   5.7779988
  22.7470012  57.3264997   6.2939988  22.1822330  57.9836988   6.2167742
  21.0530012  57.9214997   2.0889988  21.4920012  58.5324997   1.4969988
  20.4200012  58.4594997   2.5629988  21.0274514  58.0779257   2.0720930
  26.7960012  58.0504997   6.0989988  27.6710012  58.4384997   6.0689988
  26.6600012  57.8354997   7.0209988  26.8973695  58.0745184   6.2196440
  32.3530012  58.0804997   7.7479988  32.4290012  58.1754997   6.7979988
  32.0780012  57.1724997   7.8769988  32.3262321  57.9707867   7.6355079
  33.7060012  58.1064997   3.4399988  33.0040012  58.7214997   3.2309988
  33.2620012  57.2684997   3.5709988  33.5496330  58.0775783   3.4290328
  20.9540012  73.8694997   2.9869988  20.2690012  73.8314997   2.3189988
  20.9580012  74.7824997   3.2749988  20.8608193  73.9877016   2.9345284
  22.9140012  59.8374997   0.5309988  23.4060012  59.2074997   0.0039988
  23.5380012  60.1334997   1.1949988  23.0655446  59.7913199   0.5485980
  27.9400012  60.1304997   2.9879988  28.1180012  59.4844997   3.6709988
  27.8870012  60.9644997   3.4559988  27.9571829  60.1547985   3.1445940
  29.8190012  75.0794997   1.3839988  30.6850012  75.4454997   1.2059988
  29.5720012  74.6394997   0.5699988  29.9042392  75.0701756   1.2496289
  36.5280012  74.6424997   4.0629988  36.3330012  73.8944997   3.4979988
  36.4890012  75.4004997   3.4799988  36.4960380  74.6426099   3.9068384
  22.1750012  58.6374997  15.8029988  21.8090012  57.8724997  16.2459988
  23.0880012  58.6664997  16.0899988  22.2482790  58.5367224  15.9024070
  24.1480012  57.9884997  17.3389988  25.0460012  57.7144997  17.1539988
  23.7610012  57.2454997  17.8029988  24.2186612  57.8505914  17.3763643
  22.7720012  74.7894997   0.0119988  22.5050012  75.0764997   0.8849988
  23.5440012  74.2434997   0.1639988  22.8397488  74.7550294   0.1521050
  32.5690012  57.3204997  17.5209988  32.6460012  56.8944997  18.3749988
  33.4630012  57.3344997  17.1779988  32.7003428  57.2640879  17.5915310
  35.7450012  73.3934997  16.2129988  34.9630012  73.2074997  15.6939988
  35.6730012  74.3224997  16.4309988  35.6281777  73.4936492  16.1714048
  50.1510012  67.2794997   6.2439988  50.2400012  68.2234997   6.1119988
  49.5130012  67.0044997   5.5859988  50.0769081  67.3714830   6.1369614
  49.0840012  66.5344997   9.6629988  49.0460012  65.8884997  10.3679988
  48.7620012  66.0684997   8.8919988  49.0352333  66.3829408   9.6552978
  41.4530012  66.1494997  11.2559988  41.4940012  65.5234997  11.9789988
  42.1560012  66.7734997  11.4379988  41.5536363  66.1481196  11.3796044
  52.7900012  69.4734997   7.9639988  52.3500012  68.7534997   8.4149988
  52.7770012  70.1944997   8.5939988  52.7280226  69.4723731   8.1108494
  42.3760012  70.5994997   9.7909988  42.0070012  69.7974997   9.4209988
  43.3170012  70.4304997   9.8369988  42.4527289  70.4670153   9.7466316
  38.9860012  64.2594997   5.1839988  38.5390012  65.1054997   5.1649988
  38.4250012  63.6794997   4.6679988  38.8489900  64.2969916   5.1116801
  39.6970012  66.4214997   7.3099988  39.9100012  65.6514997   7.8369988
  40.4350012  66.5104997   6.7059988  39.8258496  66.3281394   7.3005300
  49.9020012  74.5784997   8.1769988  50.5220012  73.9014997   7.9029988
  49.6940012  74.3604997   9.0849988  49.9586904  74.4563870   8.2623365
  47.4740012  68.9674997  10.0689988  47.7780012  68.2814997   9.4739988
  48.1950012  69.0854997  10.6869988  47.6130671  68.8896305  10.0711816
  56.1370012  60.5684997  10.9299988  56.1860012  61.1784997  11.6659988
  56.5620012  61.0294997  10.2069988  56.2011824  60.7143741  10.9330205
  50.6150012  63.3614997  10.3969988  50.7570012  62.4154997  10.4169988
  50.5080012  63.5684997   9.4679988  50.6199864  63.2599534  10.2742339
  43.7690012  61.4624997   7.6689988  43.8130012  62.3224997   7.2509988
  43.3120012  60.9104997   7.0349988  43.7132185  61.5055799   7.5260299
  51.4920012  61.5934997   6.0699988  52.1380012  61.2644997   6.6949988
  52.0020012  62.1114997   5.4469988  51.6494264  61.6184611   6.0713862
  40.3900012  63.8594997   8.4309988  41.0430012  63.3094997   8.8629988
  40.4140012  63.5854997   7.5139988  40.4826683  63.7471466   8.3662123
  45.5460012  65.4094997   7.6459988  46.1620012  64.8834997   8.1559988
  44.9600012  64.7694997   7.2429988  45.5510810  65.2509208   7.6613173
  56.5280012  62.0464997  13.1659988  55.8400012  62.7044997  13.0699988
  56.5440012  61.8494997  14.1019988  56.4358525  62.1100462  13.2794808
  42.5800012  60.3804997  11.7429988  42.3610012  60.9104997  10.9769988
  41.9120012  60.6074997  12.3899988  42.4597600  60.4836906  11.7256379
  49.9490012  69.8804997   5.2869988  49.6530012  69.5584997   4.4359988
  49.6240012  70.7804997   5.3279988  49.8646371  69.9580215   5.1761801
  45.1490012  68.0564997  12.0299988  44.4090012  68.6544997  12.1339988
  45.8630012  68.6104997  11.7149988  45.1442237  68.2132831  12.0016465
  53.2560012  60.8844997   8.0499988  53.0400012  60.1184997   8.5829988
  53.9110012  61.3564997   8.5629988  53.3150632  60.8435889   8.1922861
  42.1730012  62.2724997   9.6949988  42.7870012  62.9054997  10.0689988
  42.6850012  61.8004997   9.0389988  42.3262296  62.2952370   9.6574252
  43.5560012  70.0204997  12.8179988  43.5510012  70.9004997  12.4399988
  42.7030012  69.9374997  13.2429988  43.4399464  70.1296117  12.8237907
  39.6770012  69.6914997   3.5999988  39.4050012  69.9204997   2.7109988
  39.7230012  70.5294997   4.0599988  39.6460094  69.8361213   3.5405697
  53.3020012  71.3134997  10.3119988  52.3610012  71.3714997  10.4739988
  53.5790012  72.2194997  10.1749988  53.2104679  71.4439443  10.3156815
  53.6030012  59.5994997  11.7299988  52.8670012  60.2104997  11.6919988
  54.2860012  60.0144997  11.2029988  53.5946541  59.7391374  11.6535832
  46.6060012  57.6864997   9.1959988  46.4890012  56.7374997   9.1409988
  45.7510012  58.0184997   9.4689988  46.4743733  57.6015409   9.2253897
  51.5540012  73.0944997   6.9379988  51.9800012  72.3874997   6.4529988
  51.8710012  73.8954997   6.5209988  51.6551019  73.1060994   6.8153130
  52.7140012  70.9954997   5.4459988  52.4560012  70.3054997   4.8349988
  52.7850012  70.5524997   6.2919988  52.6882856  70.8412124   5.4766885
  54.4000012  69.5614997  13.9239988  54.5400012  68.9704997  13.1839988
  54.5670012  70.4344997  13.5669988  54.4416778  69.5986426  13.7746965
  48.8730012  66.5234997   3.6959988  48.1610012  67.0584997   3.3439988
  49.5640012  66.5794997   3.0359988  48.8690132  66.6042543   3.5586289
  48.9260012  64.9814997   0.7349988  49.6270012  65.0034997   1.3859988
  49.2290012  64.3534997   0.0789988  49.0627830  64.8996566   0.7353711
  56.2420012  65.9014997  11.9899988  55.5890012  66.5964997  12.0789988
  56.7070012  66.1114997  11.1799988  56.2155390  66.0249425  11.8926883
  52.2780012  66.7334997   4.6479988  51.5460012  66.9614997   5.2209988
  52.7260012  66.0194997   5.1029988  52.2383095  66.6682571   4.7879119
  52.1760012  64.9074997  13.7149988  52.2560012  65.6704997  14.2869988
  51.5740012  65.1864997  13.0249988  52.1055756  65.0497134  13.7000589
  43.9240012  67.3634997   6.5299988  43.5930012  66.9934997   5.7119988
  44.5120012  66.6934997   6.8769988  43.9581873  67.2221156   6.4648102
  45.2900012  70.7914997   9.2119988  45.1960012  70.2134997   8.4549988
  46.0200012  70.4204997   9.7079988  45.3757981  70.6622390   9.1754165
  44.2900012  66.1324997  10.1639988  44.8560012  66.2534997   9.4009988
  44.6090012  66.7694997  10.8029988  44.4105786  66.2351884  10.1460040
  50.5990012  71.6354997  10.8979988  50.3590012  72.2974997  11.5459988
  50.4010012  70.8014997  11.3229988  50.5393808  71.6133134  11.0441524
  45.1700012  70.5314997  14.8809988  44.8590012  71.3134997  15.3359988
  44.5200012  70.3784997  14.1949988  45.0395558  70.6179105  14.8505871
  51.1490012  65.8954997   2.3329988  51.7290012  66.0454997   3.0799988
  51.5630012  66.3664997   1.6099988  51.2842830  65.9796841   2.3374134
  42.0900012  66.7294997  14.1099988  42.1610012  67.3804997  14.8079988
  41.2000012  66.8324997  13.7749988  41.9793117  66.8325936  14.1602700
  48.8760012  72.6324997   5.7679988  49.3500012  72.9274997   6.5459988
  48.3130012  73.3704997   5.5349988  48.8647653  72.7726932   5.8430136
  43.4100012  72.6034997  15.6439988  43.4170012  72.4674997  14.6969988
  42.4940012  72.4854997  15.8959988  43.2871714  72.5689430  15.5484666
  54.8480012  57.6454997   2.1459988  53.9480012  57.7844997   2.4409988
  55.1000012  58.4764997   1.7439988  54.7588702  57.7769074   2.1320205
  42.9140012  66.4334997   4.1199988  42.6220012  67.2014997   3.6289988
  42.2400012  65.7734997   3.9569988  42.7829081  66.4494406   4.0307340
  56.0370012  72.0114997   0.5219988  56.1110012  72.9504997   0.6929988
  56.9430012  71.7064997   0.4659988  56.1695100  72.0986722   0.5378119
  39.0070012  68.7964997  12.9349988  38.5060012  68.7684997  12.1199988
  39.0120012  67.8904997  13.2439988  38.9391526  68.6702278  12.8652872
  38.7570012  71.5764997   9.8189988  39.7030012  71.4324997   9.7999988
  38.6450012  72.3604997  10.3559988  38.8712727  71.6628046   9.8890072
  56.9550012  72.2424997  15.5009988  56.9060012  71.2874997  15.4639988
  56.1280012  72.5104997  15.9019988  56.8364940  72.1478998  15.5501375
  47.9340012  71.8164997  14.3769988  48.0210012  72.6424997  14.8519988
  47.0700012  71.4864997  14.6259988  47.8291964  71.8849878  14.4756549
  48.3480012  75.5884997   4.1829988  48.2730012  75.4674997   3.2369988
  48.3810012  76.5384997   4.3019988  48.3421848  75.7002500   4.0694834
  42.0010012  74.3774997   5.9639988  42.1540012  74.0294997   6.8429988
  41.1510012  74.0214997   5.7089988  41.9068962  74.2816650   6.0498340
  51.4500012  74.7424997   1.1849988  51.8250012  73.9984997   0.7149988
  51.4540012  74.4724997   2.1039988  51.5018915  74.6041486   1.2447824
  51.1190012  74.6684997   3.9349988  50.1830012  74.7684997   4.1129988
  51.3990012  73.9594997   4.5129988  51.0288255  74.5862711   4.0375391
  54.1070012  63.7354997  15.9809988  53.7000012  64.2164997  15.2599988
  54.1480012  62.8304997  15.6729988  54.0568437  63.6789374  15.8406683
  41.2560012  70.1194997  13.9779988  41.4720012  69.7584997  14.8369988
  40.4010012  69.7454997  13.7679988  41.1699292  70.0194111  14.0673386
  43.8750012  58.5894997   9.9729988  43.0130012  58.5024997   9.5659988
  43.8520012  59.4454997  10.4009988  43.7540330  58.6932765   9.9751863
  48.5380012  58.3114997  13.3479988  48.9580012  57.8964997  14.1009988
  47.6050012  58.1334997  13.4649988  48.4693644  58.2305900  13.4669539
  51.8640012  62.0674997  14.2009988  51.3500012  61.9414997  14.9989988
  51.7090012  62.9794997  13.9569988  51.7726852  62.1736132  14.2772158
  52.6270012  66.9284997  -0.0370012  52.6690012  66.7054997  -0.9670012
  53.4760012  67.3274997   0.1529988  52.7475396  66.9519155  -0.1386373
  48.1990012  60.8044997   0.6329988  47.9460012  60.8234997   1.5559988
  47.9430012  59.9324997   0.3319988  48.1297790  60.6892437   0.7186263
  43.9660012  63.5554997  11.0679988  43.3240012  63.5144997  11.7769988
  44.0030012  64.4814997  10.8309988  43.8831324  63.6751559  11.1329824
  43.9630012  63.7764997   5.9799988  43.0700012  63.4354997   5.9219988
  44.4130012  63.3994997   5.2249988  43.9017305  63.6788484   5.8699177
  49.4980012  64.1924997   4.7969988  49.0890012  65.0074997   4.5059988
  50.2190012  64.0524997   4.1829988  49.5394537  64.2852018   4.6741342
  48.6000012  64.3674997  16.2849988  48.0380012  63.6634997  16.6059988
  49.4270012  64.2474997  16.7529988  48.6347095  64.2547883  16.3922330
  50.5030012  63.6384997   7.6109988  50.3080012  64.2434997   6.8959988
  50.6840012  62.8044997   7.1769988  50.5007614  63.6086300   7.4544405
  41.7160012  63.8754997  12.9349988  41.6780012  64.2754997  13.8039988
  41.2250012  63.0584997  13.0259988  41.6444684  63.8198069  13.0661059
  45.0820012  61.2494997  -0.2660012  44.6510012  60.8044997   0.4639988
  44.3640012  61.6214997  -0.7780012  44.9259438  61.2388940  -0.2353201
  38.3240012  60.9914997   6.7859988  38.9550012  60.9624997   7.5049988
  38.7730012  60.5664997   6.0559988  38.4710774  60.9300492   6.7856553
  39.5980012  61.7374997   2.2099988  40.0720012  62.3284997   1.6249988
  38.8810012  62.2684997   2.5569988  39.5659341  61.8900867   2.1768836
  49.7670012  65.2764997  12.2829988  50.0900012  64.6454997  11.6399988
  49.3270012  64.7414997  12.9429988  49.7516895  65.1178441  12.2842850
  46.5440012  61.2034997   7.0669988  45.6330012  61.2604997   7.3549988
  47.0500012  61.1434997   7.8769988  46.4875413  61.2031985   7.2160622
  41.3730012  62.8324997   5.8929988  40.4830012  62.9324997   5.5529988
  41.6690012  61.9904997   5.5469988  41.2912823  62.7323545   5.7997213
  45.0260012  62.8324997   3.5499988  45.9570012  62.9614997   3.7279988
  44.8110012  63.5024997   2.8999988  45.1244247  62.9406565   3.4865747
  50.9490012  60.4384997  10.3309988  50.2730012  60.5694997  10.9949988
  50.4640012  60.2834997   9.5209988  50.7907145  60.4354905  10.3124517
  43.7000012  64.0274997   1.1169988  43.1570012  63.6474997   0.4249988
  44.5330012  64.2214997   0.6879988  43.7384399  64.0018124   0.9644526
  54.2370012  76.1104997  16.6079988  54.4370012  76.5344997  15.7729988
  54.8920012  76.4534997  17.2149988  54.3530051  76.2149648  16.5757836
  41.8350012  68.5844997  16.2159988  42.5670012  68.8384997  16.7769988
  41.0550012  68.7884997  16.7309988  41.8298232  68.6469177  16.3625760
  47.8640012  63.9914997   8.9539988  48.4290012  63.4444997   8.4069988
  47.7170012  63.4694997   9.7419988  47.9212918  63.8462024   8.9858454
  42.8660012  60.1274997   5.3719988  42.5490012  59.2254997   5.3369988
  43.6480012  60.1294997   4.8189988  42.9282284  60.0041628   5.2924783
  46.4910012  62.3794997  11.3679988  45.6550012  62.8334997  11.4779988
  47.0150012  62.6554997  12.1199988  46.4474414  62.4789376  11.4847136
  47.0350012  68.5924997   3.0519988  46.2900012  68.0854997   2.7299988
  46.9010012  68.6414997   3.9989988  46.9148776  68.5296940   3.1358647
  54.1850012  67.7254997  11.8389988  54.8270012  68.1824997  11.2949988
  53.3550012  67.8384997  11.3759988  54.1605963  67.8032704  11.7020177
  50.9330012  61.4064997   1.2519988  49.9940012  61.5184997   1.0999988
  51.2300012  62.2634997   1.5579988  50.8447666  61.5376443   1.2725768
  48.5540012  68.7764997  14.2889988  48.2090012  68.3954997  15.0959988
  48.3540012  69.7104997  14.3609988  48.4798061  68.8505228  14.4090961
  51.6510012  63.2734997   2.9119988  52.5430012  63.1364997   3.2309988
  51.7080012  64.0644997   2.3759988  51.7806285  63.3616660   2.8831691
  42.1600012  67.8874997   8.8219988  42.9050012  67.8854997   8.2209988
  42.2380012  67.0644997   9.3039988  42.2725518  67.7759315   8.8048929
  49.1610012  70.0514997   2.0779988  48.8650012  70.8774997   2.4589988
  48.4580012  69.4314997   2.2739988  49.0254914  70.0808199   2.1566443
  39.1680012  66.3484997  14.1369988  39.3910012  65.9304997  14.9689988
  38.5660012  65.7354997  13.7139988  39.1171759  66.2084668  14.1937022
  46.1840012  65.8654997  16.3499988  45.8880012  65.6994997  15.4549988
  47.1160012  65.6454997  16.3389988  46.2694166  65.8130640  16.2260536
  50.8050012  71.2384997  14.2399988  49.9040012  71.4214997  13.9719988
  50.8390012  71.4974997  15.1609988  50.6863041  71.2985512  14.3278197
  56.5360012  63.4834997   2.6069988  55.9820012  63.0874997   1.9349988
  56.6360012  64.3934997   2.3289988  56.4737059  63.5523586   2.4774401
  56.4990012  69.2834997  15.4439988  55.6480012  69.5214997  15.0769988
  57.0900012  69.2664997  14.6909988  56.4622487  69.3138258  15.2918893
  54.8310012  72.2694997   3.0719988  54.4580012  71.4434997   3.3809988
  55.1090012  72.0864997   2.1749988  54.8175630  72.1317303   2.9929626
  51.9920012  67.0774997  10.0929988  51.0630012  66.8454997  10.0659988
  52.4430012  66.3004997   9.7629988  51.9259216  66.9407238  10.0446917
  44.5350012  71.4054997   6.2259988  45.0620012  72.1784997   6.0259988
  43.6550012  71.6304997   5.9249988  44.4881773  71.5418005   6.1579010
  40.2900012  66.2674997   0.8129988  40.9060012  66.8944997   1.1929988
  39.4280012  66.5834997   1.0849988  40.2577698  66.3959430   0.9017183
  45.9620012  69.0684997   5.8029988  45.7210012  69.9934997   5.8439988
  45.2210012  68.6094997   6.1989988  45.8288409  69.1331421   5.8621377
  46.4770012  73.2174997  12.1179988  46.8390012  74.0724997  11.8839988
  47.0080012  72.9254997  12.8579988  46.5984473  73.2951060  12.1860855
  44.6450012  74.0904997   5.3479988  43.6950012  74.1954997   5.3989988
  44.9970012  74.9104997   5.6929988  44.5624203  74.2158314   5.4016650
  50.0210012  69.3164997  11.8179988  49.5950012  69.0894997  12.6449988
  50.6010012  68.5784997  11.6359988  50.0411868  69.1855299  11.9065830
  52.2240012  70.2454997   0.8919988  52.5770012  69.8654997   1.6969988
  51.2750012  70.1524997   0.9789988  52.1440441  70.1809596   1.0138559
  52.6790012  73.8684997  14.2879988  52.0780012  73.3134997  13.7919988
  52.9610012  74.5354997  13.6619988  52.6348519  73.8826841  14.1354951
  56.7270012  74.7254997   1.0929988  57.4710012  75.3114997   0.9529988
  56.0330012  75.2934997   1.4269988  56.7350292  74.8825582   1.1189961
  40.8020012  61.1014997  13.6949988  39.9090012  61.4404997  13.6269988
  40.7030012  60.2464997  14.1129988  40.6664164  61.0322588  13.7422235
  53.0900012  68.9184997   3.1189988  52.8120012  68.1904997   3.6749988
  54.0170012  69.0374997   3.3239988  53.1773124  68.8348802   3.2228845
  40.4530012  72.9064997  12.1299988  40.6700012  71.9744997  12.0989988
  40.6990012  73.1804997  13.0129988  40.5159549  72.8160636  12.2451763
  46.3150012  71.3574997  -0.6610012  46.5540012  70.6094997  -1.2080012
  46.0460012  70.9694997   0.1719988  46.3113675  71.2026638  -0.6233135
  45.2520012  70.9274997   1.7959988  45.3980012  70.4074997   2.5859988
  45.2490012  71.8344997   2.1019988  45.2715989  70.9788853   1.9456088
  41.7050012  68.1804997   2.3059988  41.0190012  68.5324997   2.8729988
  42.2270012  68.9434997   2.0589988  41.6816852  68.3318578   2.3502118
  49.5360012  60.8424997  12.5849988  50.2350012  60.9164997  13.2349988
  49.1550012  59.9784997  12.7389988  49.5801767  60.7357624  12.6948322
  50.3210012  60.4944997   3.6819988  50.5410012  60.9664997   2.8789988
  50.8790012  60.8894997   4.3519988  50.4264968  60.6124285   3.6627331
  47.9890012  72.6254997   2.5449988  47.1730012  73.1224997   2.5969988
  48.5190012  73.1004997   1.9049988  47.9489161  72.7577722   2.4655956
  47.5210012  62.2224997   4.5169988  48.3330012  62.7274997   4.5629988
  47.2760012  62.0774997   5.4309988  47.5990520  62.2720375   4.6468517
  48.0560012  63.2084997  13.7019988  48.1750012  63.7824997  14.4589988
  48.7120012  62.5204997  13.8159988  48.1609757  63.1941079  13.8210825
  48.4040012  59.3034997   5.4549988  48.0580012  59.9214997   6.0999988
  49.0630012  59.8044997   4.9739988  48.4457826  59.4555802   5.4780971
  45.3280012  73.6694997   2.5269988  45.4880012  74.4684997   2.0259988
  45.1300012  73.9754997   3.4119988  45.3231649  73.8204469   2.5779815
  44.0620012  60.3664997   2.1419988  43.9790012  61.2554997   2.4889988
  44.9520012  60.1014997   2.3739988  44.1709469  60.4521430   2.2207626
  54.2610012  61.1154997  14.5369988  53.3440012  61.3784997  14.4489988
  54.5960012  61.1124997  13.6399988  54.1809900  61.1510224  14.4037919
  52.8630012  64.8664997   8.6319988  52.0650012  64.4514997   8.3039988
  53.3080012  64.1754997   9.1229988  52.8139885  64.7163543   8.6534889
  42.3210012  70.7944997   1.2029988  42.9130012  71.4934997   1.4789988
  42.7800012  70.3614997   0.4829988  42.4641142  70.8317049   1.1434830
  40.6370012  63.4584997   0.3189988  40.5920012  64.3974997   0.4969988
  39.7490012  63.2224997   0.0489988  40.5108574  63.5551892   0.3068912
  53.9490012  74.1224997  10.2549988  53.7940012  74.8004997   9.5979988
  54.8820012  74.1944997  10.4579988  54.0538500  74.2250170  10.1925119
  41.4450012  58.2404997   8.9919988  41.2160012  58.2994997   8.0639988
  41.0020012  57.4484997   9.2979988  41.3538530  58.1415753   8.9064786
  40.3750012  72.1804997   5.1519988  39.5430012  72.6534997   5.1799988
  40.9210012  72.6904997   4.5539988  40.3349739  72.3141871   5.0749716
  39.6630012  74.7934997  16.4819988  40.2040012  74.5764997  17.2419988
  39.1820012  73.9874997  16.2929988  39.6719345  74.6549514  16.5603076
  44.2610012  73.7124997  18.1029988  45.0280012  73.2534997  18.4439988
  44.2390012  73.4864997  17.1729988  44.3631434  73.6190409  18.0240043
  48.3530012  73.2204997  -0.5220012  47.7090012  72.5894997  -0.2010012
  49.1150012  72.6894997  -0.7540012  48.3678077  73.0622920  -0.5093989
  50.8380012  72.0924997  16.8319988  50.4870012  71.2364997  17.0749988
  51.5640012  72.2354997  17.4389988  50.8880769  71.9945636  16.9473619
  52.9570012  73.0374997  -0.2880012  53.2400012  72.2434997   0.1639988
  53.6970012  73.2704997  -0.8490012  53.0957486  72.9602803  -0.3019302
  39.5700012  68.6034997  17.4369988  39.7140012  67.7014997  17.1499988
  38.7980012  68.8894997  16.9489988  39.4853322  68.5188261  17.3317881
  43.9120012  68.9474997  -0.4310012  43.9760012  68.1534997   0.0999988
  44.5650012  68.8284997  -1.1210012  44.0090241  68.8227148  -0.4515683
  46.2260012  68.5734997  16.8689988  45.8970012  68.8444997  16.0119988
  46.3780012  67.6324997  16.7819988  46.2014809  68.4833862  16.7398244
  49.2640012  69.9944997  -0.6950012  48.9950012  70.1744997   0.2059988
  49.0580012  69.0684997  -0.8260012  49.1993825  69.8940152  -0.5894786
  51.9600012  68.4894997  14.2529988  52.7060012  69.0774997  14.1329988
  51.2030012  69.0714997  14.3159988  51.9597554  68.6487011  14.2450907
  40.4030012  65.8034997  16.8569988  40.8110012  64.9464997  16.7359988
  40.1430012  65.8184997  17.7779988  40.4237568  65.6880807  16.9649588
  45.0610012  66.9194997   1.8749988  44.6010012  66.4354997   2.5609988
  45.3160012  66.2514997   1.2389988  45.0324902  66.7628731   1.8829334
  44.3500012  64.8124997  14.2309988  43.7320012  65.4874997  14.5109988
  44.6940012  65.1334997  13.3979988  44.3119615  64.9482721  14.1566581
  46.1320012  65.1624997   0.1369988  45.9520012  65.0084997  -0.7900012
  47.0820012  65.2704997   0.1819988  46.2357776  65.1560175   0.0161843
  49.3700012  67.2844997  17.5079988  50.3230012  67.3674997  17.4809988
  49.2090012  66.5724997  18.1279988  49.4786426  67.1996746  17.5880579
  55.5220012  67.5174997  -0.4170012  55.2480012  67.0924997  -1.2300012
  55.5610012  68.4484997  -0.6340012  55.4897699  67.5852484  -0.5576390
  44.6890012  62.1674997  15.3129988  44.8390012  61.4384997  14.7109988
  44.6920012  62.9444997  14.7539988  44.7099302  62.1727851  15.1550692
  45.1020012  60.5374997  12.8059988  45.6380012  60.9884997  12.1539988
  44.2500012  60.4294997  12.3829988  45.0602178  60.5846390  12.6595756
  46.6840012  65.9764997  13.0449988  47.4340012  65.8204997  12.4719988
  46.3450012  66.8284997  12.7699988  46.7408921  66.0702968  12.9293561
  51.0990012  63.7914997  18.0739988  51.2920012  62.8604997  17.9619988
  51.9570012  64.2164997  18.0639988  51.2413020  63.7216389  18.0573361
  52.4160012  66.5804997  16.1509988  52.1350012  67.2894997  15.5739988
  53.3590012  66.5074997  15.9999988  52.5049027  66.6677646  16.0515551
  43.1680012  63.3654997  17.2249988  42.4010012  62.8334997  17.0149988
  43.8470012  63.0554997  16.6249988  43.1547022  63.2507506  17.1151648
  45.9080012  57.9934997  13.2369988  45.8090012  58.9404997  13.1319988
  45.1650012  57.6214997  12.7619988  45.7940564  58.0725902  13.1584560
  47.1720012  62.3154997  16.8009988  46.9360012  62.0954997  17.7029988
  46.3880012  62.1084997  16.2909988  47.0338628  62.2574760  16.8553932
  49.8870012  61.4424997  15.8769988  48.9400012  61.4744997  16.0089988
  50.2000012  60.8174997  16.5299988  49.7995475  61.3623207  15.9834455
  51.5210012  60.0764997  17.8819988  51.4250012  59.1244997  17.8759988
  51.2000012  60.3454997  18.7419988  51.4644070  59.9824035  17.9975441
  41.3480012  61.2864997  16.9289988  41.5600012  60.5794997  16.3189988
  41.2370012  60.8484997  17.7729988  41.3619721  61.1307084  16.9596843
  46.1290012  57.2874997  15.9089988  46.8410012  56.6474997  15.8949988
  46.0280012  57.5544997  14.9949988  46.2127939  57.2359938  15.7835650
  46.4830012  58.9704997  17.9619988  46.3510012  58.4944997  17.1419988
  45.8840012  59.7144997  17.9069988  46.3839071  59.0059618  17.8422886
  46.0290012  75.8534997   1.1389988  46.9620012  76.0114997   1.2819988
  45.7650012  76.5284997   0.5139988  46.1209510  75.9663611   1.0740741
  39.5980012  70.4894997   0.6209988  40.5120012  70.5684997   0.8949988
  39.6050012  69.8024997  -0.0450012  39.7241131  70.4073961   0.5684393
  38.2470012  75.8824997   5.6989988  37.6000012  75.4204997   5.1659988
  38.6010012  75.2104997   6.2809988  38.2063849  75.7284723   5.7047959
  39.1170012  73.9634997   7.5029988  38.7820012  73.0834997   7.6749988
  39.3390012  74.3084997   8.3679988  39.1011783  73.8897500   7.6434208
  56.6650012  74.7724997  10.4839988  56.6440012  74.9574997  11.4229988
  57.3560012  75.3414997  10.1429988  56.7554618  74.8746606  10.5663864
  56.2290012  74.3404997  13.4059988  55.7410012  73.6044997  13.0349988
  56.7780012  73.9464997  14.0839988  56.2364872  74.1866249  13.4469160
  54.6790012  70.1294997  18.0439988  53.8130012  70.0244997  18.4379988
  55.0560012  70.8884997  18.4899988  54.6113308  70.2176900  18.1582393
  55.9800012  68.3864997   3.5579988  56.8300012  68.8074997   3.6849988
  55.9860012  67.6464997   4.1649988  56.0971372  68.3440803   3.6574344
  56.3750012  66.4394997   5.3819988  55.6480012  65.9604997   5.7789988
  56.9560012  66.6454997   6.1139988  56.3539375  66.4017090   5.5354129
  56.1340012  69.2244997  10.3289988  56.9670012  68.8464997  10.0489988
  56.2460012  70.1674997  10.2099988  56.2632647  69.3002218  10.2745487
  54.6200012  72.1024997  12.6359988  53.9730012  72.4274997  13.2619988
  54.1030012  71.6624997  11.9619988  54.4614029  72.0875004  12.6305827
  56.6430012  66.3404997   1.7729988  56.1210012  66.6974997   1.0539988
  56.6100012  67.0154997   2.4509988  56.5671634  66.4805413   1.7663145
  54.9920012  63.5804997   0.3239988  55.0880012  64.2474997  -0.3570012
  54.8520012  62.7644997  -0.1580012  54.9862135  63.5614500   0.1658491
  54.1610012  64.9604997   5.9449988  54.0110012  64.0154997   5.9239988
  53.8080012  65.2414997   6.7879988  54.0926625  64.8690441   6.0562346
  39.1970012  67.0384997   9.9549988  39.3810012  66.9564997   9.0189988
  40.0460012  66.9144997  10.3789988  39.3370139  67.0105003   9.8841455
  55.0180012  66.9304997  15.5829988  55.6010012  66.1964997  15.7749988
  55.5820012  67.7024997  15.6299988  55.1739769  66.9344227  15.6156159
  56.5140012  64.8334997  16.2679988  55.6510012  64.4544997  16.1019988
  57.1190012  64.0944997  16.1939988  56.4775979  64.6818023  16.2352817
  54.2390012  60.9884997  -0.5590012  54.8500012  60.6174997   0.0779988
  53.4030012  60.5674997  -0.3630012  54.2095032  60.8807554  -0.4452965
  53.8720012  62.5434997   4.4069988  54.1520012  61.6364997   4.5309988
  54.6310012  62.9774997   4.0179988  54.0129277  62.4780942   4.3713682
  54.4840012  63.1244997   9.8429988  55.4170012  63.3364997   9.8089988
  54.2490012  63.2264997  10.7649988  54.5798036  63.1672769   9.9629976
  54.5130012  63.8614997  12.6189988  53.6700012  64.1294997  12.9849988
  54.9550012  64.6834997  12.4079988  54.4574158  64.0093291  12.6405491
  38.7940012  62.3094997  16.0959988  39.7140012  62.1874997  16.3319988
  38.3450012  61.5594997  16.4849988  38.8591580  62.1913727  16.1809006
  56.7960012  57.8414997  17.9719988  57.1460012  57.1874997  17.3669988
  56.9430012  58.6784997  17.5329988  56.8638419  57.8651591  17.8297118
  54.4850012  59.8064997   4.4549988  54.6680012  59.3574997   5.2809988
  53.8860012  59.2214997   3.9919988  54.4290202  59.6659975   4.5053275
  40.0150012  60.6214997   8.9869988  40.4610012  59.8294997   9.2889988
  40.4820012  61.3374997   9.4179988  40.1390172  60.6100624   9.0864820
  38.3190012  63.6204997  10.0559988  38.8110012  63.3994997   9.2649988
  38.6820012  64.4614997  10.3369988  38.4353126  63.7038357   9.9857531
  56.3160012  59.9504997  16.3219988  55.3980012  60.2214997  16.2859988
  56.4390012  59.4154997  15.5369988  56.2071066  59.9152892  16.2110487
  56.3520012  59.8734997   0.9829988  56.7640012  59.1524997   0.5079988
  57.0340012  60.5434997   1.0419988  56.5005885  59.8652368   0.9258915
  38.6330012  59.8784997   4.1099988  37.7080012  60.0874997   3.9809988
  39.0870012  60.3624997   3.4209988  38.5677368  59.9725993   3.9991226
  53.4040012  74.8624997   6.0559988  54.0560012  74.5154997   5.4479988
  53.9140012  75.3514997   6.7019988  53.5622637  74.8810597   6.0600236
  38.5970012  58.6164997  12.4549988  37.9320012  58.3704997  13.0979988
  38.1540012  59.2384997  11.8769988  38.4460956  58.6668632  12.4649352
  40.7890012  71.7914997  16.5989988  39.9680012  71.9664997  16.1389988
  40.5360012  71.7184997  17.5199988  40.6426164  71.8055622  16.6604923
  43.7430012  72.7664997  12.8579988  43.3180012  73.5754997  12.5749988
  44.6470012  72.8514997  12.5559988  43.8070271  72.8888469  12.7783776
  48.0540012  74.1654997  15.8169988  48.2390012  73.8314997  16.6949988
  48.9000012  74.4744997  15.4949988  48.1937539  74.1616047  15.8935605
  50.3990012  75.4514997  15.0609988  51.0760012  74.8184997  14.8209988
  50.7210012  75.8524997  15.8679988  50.5351637  75.4191154  15.1372793
  55.3160012  58.0404997  14.1409988  54.5040012  58.3654997  13.7529988
  55.5490012  57.2804997  13.6079988  55.2363423  57.9822436  14.0158253
  41.1450012  76.0224997  12.9049988  40.4240012  76.4624997  12.4539988
  40.7790012  75.7714997  13.7539988  40.9969804  76.0487698  12.9579840
  43.6120012  75.6224997  11.9349988  42.7470012  75.6944997  12.3389988
  43.5570012  76.1694997  11.1509988  43.4862085  75.7062685  11.8843362
  48.3220012  75.5104997  11.1099988  47.8660012  76.0394997  10.4559988
  48.4850012  76.1134997  11.8359988  48.2815585  75.6644468  11.1185062
  50.6500012  74.3884997  12.0549988  49.7450012  74.5534997  11.7899988
  51.0790012  75.2414997  11.9899988  50.5840799  74.5264483  12.0099182
  53.2540012  75.9584997  12.3499988  53.0720012  76.8744997  12.1399988
  53.4310012  75.5484997  11.5039988  53.2530210  76.0284822  12.2067885
  40.5590012  74.6454997   9.8149988  40.5410012  74.2204997  10.6729988
  41.3640012  74.3274997   9.4069988  40.6653875  74.5443812   9.8771655
  42.7010012  73.3554997   8.4699988  42.4820012  72.4394997   8.6399988
  43.5250012  73.4954997   8.9359988  42.7824420  73.2490520   8.5562774
  45.2380012  73.8254997   9.3189988  45.4510012  72.9374997   9.0319988
  45.3020012  73.7914997  10.2729988  45.2758232  73.6993102   9.4087397
  48.7460012  59.4894997   8.4629988  48.0720012  58.8604997   8.7189988
  49.3100012  59.0054997   7.8599988  48.7299230  59.3378744   8.4165340
  53.8890012  57.5974997   8.5759988  54.4930012  58.1444997   8.0739988
  53.0190012  57.9164997   8.3359988  53.8541241  57.7155806   8.4747654
  55.6160012  58.7354997   6.9089988  56.2280012  58.2214997   6.3829988
  55.9980012  59.6134997   6.9329988  55.7514540  58.7837140   6.8401830
  41.0730012  58.1234997   6.2849988  40.2960012  57.8894997   5.7779988
  41.6030012  57.3264997   6.2939988  41.0382330  57.9836988   6.2167742
  39.9090012  57.9214997   2.0889988  40.3480012  58.5324997   1.4969988
  39.2760012  58.4594997   2.5629988  39.8834514  58.0779257   2.0720930
  45.6520012  58.0504997   6.0989988  46.5270012  58.4384997   6.0689988
  45.5160012  57.8354997   7.0209988  45.7533695  58.0745184   6.2196440
  51.2090012  58.0804997   7.7479988  51.2850012  58.1754997   6.7979988
  50.9340012  57.1724997   7.8769988  51.1822321  57.9707867   7.6355079
  52.5620012  58.1064997   3.4399988  51.8600012  58.7214997   3.2309988
  52.1180012  57.2684997   3.5709988  52.4056330  58.0775783   3.4290328
  39.8100012  73.8694997   2.9869988  39.1250012  73.8314997   2.3189988
  39.8140012  74.7824997   3.2749988  39.7168193  73.9877016   2.9345284
  41.7700012  59.8374997   0.5309988  42.2620012  59.2074997   0.0039988
  42.3940012  60.1334997   1.1949988  41.9215446  59.7913199   0.5485980
  46.7960012  60.1304997   2.9879988  46.9740012  59.4844997   3.6709988
  46.7430012  60.9644997   3.4559988  46.8131829  60.1547985   3.1445940
  48.6750012  75.0794997   1.3839988  49.5410012  75.4454997   1.2059988
  48.4280012  74.6394997   0.5699988  48.7602392  75.0701756   1.2496289
  55.3840012  74.6424997   4.0629988  55.1890012  73.8944997   3.4979988
  55.3450012  75.4004997   3.4799988  55.3520380  74.6426099   3.9068384
  41.0310012  58.6374997  15.8029988  40.6650012  57.8724997  16.2459988
  41.9440012  58.6664997  16.0899988  41.1042790  58.5367224  15.9024070
  43.0040012  57.9884997  17.3389988  43.9020012  57.7144997  17.1539988
  42.6170012  57.2454997  17.8029988  43.0746612  57.8505914  17.3763643
  41.6280012  74.7894997   0.0119988  41.3610012  75.0764997   0.8849988
  42.4000012  74.2434997   0.1639988  41.6957488  74.7550294   0.1521050
  51.4250012  57.3204997  17.5209988  51.5020012  56.8944997  18.3749988
  52.3190012  57.3344997  17.1779988  51.5563428  57.2640879  17.5915310
  54.6010012  73.3934997  16.2129988  53.8190012  73.2074997  15.6939988
  54.5290012  74.3224997  16.4309988  54.4841777  73.4936492  16.1714048
  69.0070012  67.2794997   6.2439988  69.0960012  68.2234997   6.1119988
  68.3690012  67.0044997   5.5859988  68.9329081  67.3714830   6.1369614
  67.9400012  66.5344997   9.6629988  67.9020012  65.8884997  10.3679988
  67.6180012  66.0684997   8.8919988  67.8912333  66.3829408   9.6552978
  60.3090012  66.1494997  11.2559988  60.3500012  65.5234997  11.9789988
  61.0120012  66.7734997  11.4379988  60.4096363  66.1481196  11.3796044
  71.6460012  69.4734997   7.9639988  71.2060012  68.7534997   8.4149988
  71.6330012  70.1944997   8.5939988  71.5840226  69.4723731   8.1108494
  61.2320012  70.5994997   9.7909988  60.8630012  69.7974997   9.4209988
  62.1730012  70.4304997   9.8369988  61.3087289  70.4670153   9.7466316
  57.8420012  64.2594997   5.1839988  57.3950012  65.1054997   5.1649988
  57.2810012  63.6794997   4.6679988  57.7049900  64.2969916   5.1116801
  58.5530012  66.4214997   7.3099988  58.7660012  65.6514997   7.8369988
  59.2910012  66.5104997   6.7059988  58.6818496  66.3281394   7.3005300
  68.7580012  74.5784997   8.1769988  69.3780012  73.9014997   7.9029988
  68.5500012  74.3604997   9.0849988  68.8146904  74.4563870   8.2623365
  66.3300012  68.9674997  10.0689988  66.6340012  68.2814997   9.4739988
  67.0510012  69.0854997  10.6869988  66.4690671  68.8896305  10.0711816
  74.9930012  60.5684997  10.9299988  75.0420012  61.1784997  11.6659988
  75.4180012  61.0294997  10.2069988  75.0571824  60.7143741  10.9330205
  69.4710012  63.3614997  10.3969988  69.6130012  62.4154997  10.4169988
  69.3640012  63.5684997   9.4679988  69.4759864  63.2599534  10.2742339
  62.6250012  61.4624997   7.6689988  62.6690012  62.3224997   7.2509988
  62.1680012  60.9104997   7.0349988  62.5692185  61.5055799   7.5260299
  70.3480012  61.5934997   6.0699988  70.9940012  61.2644997   6.6949988
  70.8580012  62.1114997   5.4469988  70.5054264  61.6184611   6.0713862
  59.2460012  63.8594997   8.4309988  59.8990012  63.3094997   8.8629988
  59.2700012  63.5854997   7.5139988  59.3386683  63.7471466   8.3662123
  64.4020012  65.4094997   7.6459988  65.0180012  64.8834997   8.1559988
  63.8160012  64.7694997   7.2429988  64.4070810  65.2509208   7.6613173
  75.3840012  62.0464997  13.1659988  74.6960012  62.7044997  13.0699988
  75.4000012  61.8494997  14.1019988  75.2918525  62.1100462  13.2794808
  61.4360012  60.3804997  11.7429988  61.2170012  60.9104997  10.9769988
  60.7680012  60.6074997  12.3899988  61.3157600  60.4836906  11.7256379
  68.8050012  69.8804997   5.2869988  68.5090012  69.5584997   4.4359988
  68.4800012  70.7804997   5.3279988  68.7206371  69.9580215   5.1761801
  64.0050012  68.0564997  12.0299988  63.2650012  68.6544997  12.1339988
  64.7190012  68.6104997  11.7149988  64.0002237  68.2132831  12.0016465
  72.1120012  60.8844997   8.0499988  71.8960012  60.1184997   8.5829988
  72.7670012  61.3564997   8.5629988  72.1710632  60.8435889   8.1922861
  61.0290012  62.2724997   9.6949988  61.6430012  62.9054997  10.0689988
  61.5410012  61.8004997   9.0389988  61.1822296  62.2952370   9.6574252
  62.4120012  70.0204997  12.8179988  62.4070012  70.9004997  12.4399988
  61.5590012  69.9374997  13.2429988  62.2959464  70.1296117  12.8237907
  58.5330012  69.6914997   3.5999988  58.2610012  69.9204997   2.7109988
  58.5790012  70.5294997   4.0599988  58.5020094  69.8361213   3.5405697
  72.1580012  71.3134997  10.3119988  71.2170012  71.3714997  10.4739988
  72.4350012  72.2194997  10.1749988  72.0664679  71.4439443  10.3156815
  72.4590012  59.5994997  11.7299988  71.7230012  60.2104997  11.6919988
  73.1420012  60.0144997  11.2029988  72.4506541  59.7391374  11.6535832
  65.4620012  57.6864997   9.1959988  65.3450012  56.7374997   9.1409988
  64.6070012  58.0184997   9.4689988  65.3303733  57.6015409   9.2253897
  70.4100012  73.0944997   6.9379988  70.8360012  72.3874997   6.4529988
  70.7270012  73.8954997   6.5209988  70.5111019  73.1060994   6.8153130
  71.5700012  70.9954997   5.4459988  71.3120012  70.3054997   4.8349988
  71.6410012  70.5524997   6.2919988  71.5442856  70.8412124   5.4766885
  67.7290012  66.5234997   3.6959988  67.0170012  67.0584997   3.3439988
  68.4200012  66.5794997   3.0359988  67.7250132  66.6042543   3.5586289
  67.7820012  64.9814997   0.7349988  68.4830012  65.0034997   1.3859988
  68.0850012  64.3534997   0.0789988  67.9187830  64.8996566   0.7353711
  75.0980012  65.9014997  11.9899988  74.4450012  66.5964997  12.0789988
  75.5630012  66.1114997  11.1799988  75.0715390  66.0249425  11.8926883
  71.1340012  66.7334997   4.6479988  70.4020012  66.9614997   5.2209988
  71.5820012  66.0194997   5.1029988  71.0943095  66.6682571   4.7879119
  71.0320012  64.9074997  13.7149988  71.1120012  65.6704997  14.2869988
  70.4300012  65.1864997  13.0249988  70.9615756  65.0497134  13.7000589
  62.7800012  67.3634997   6.5299988  62.4490012  66.9934997   5.7119988
  63.3680012  66.6934997   6.8769988  62.8141873  67.2221156   6.4648102
  64.1460012  70.7914997   9.2119988  64.0520012  70.2134997   8.4549988
  64.8760012  70.4204997   9.7079988  64.2317981  70.6622390   9.1754165
  63.1460012  66.1324997  10.1639988  63.7120012  66.2534997   9.4009988
  63.4650012  66.7694997  10.8029988  63.2665786  66.2351884  10.1460040
  69.4550012  71.6354997  10.8979988  69.2150012  72.2974997  11.5459988
  69.2570012  70.8014997  11.3229988  69.3953808  71.6133134  11.0441524
  64.0260012  70.5314997  14.8809988  63.7150012  71.3134997  15.3359988
  63.3760012  70.3784997  14.1949988  63.8955558  70.6179105  14.8505871
  70.0050012  65.8954997   2.3329988  70.5850012  66.0454997   3.0799988
  70.4190012  66.3664997   1.6099988  70.1402830  65.9796841   2.3374134
  60.9460012  66.7294997  14.1099988  61.0170012  67.3804997  14.8079988
  60.0560012  66.8324997  13.7749988  60.8353117  66.8325936  14.1602700
  67.7320012  72.6324997   5.7679988  68.2060012  72.9274997   6.5459988
  67.1690012  73.3704997   5.5349988  67.7207653  72.7726932   5.8430136
  62.2660012  72.6034997  15.6439988  62.2730012  72.4674997  14.6969988
  61.3500012  72.4854997  15.8959988  62.1431714  72.5689430  15.5484666
  73.7040012  57.6454997   2.1459988  72.8040012  57.7844997   2.4409988
  73.9560012  58.4764997   1.7439988  73.6148702  57.7769074   2.1320205
  61.7700012  66.4334997   4.1199988  61.4780012  67.2014997   3.6289988
  61.0960012  65.7734997   3.9569988  61.6389081  66.4494406   4.0307340
  74.8930012  72.0114997   0.5219988  74.9670012  72.9504997   0.6929988
  75.7990012  71.7064997   0.4659988  75.0255100  72.0986722   0.5378119
  57.8630012  68.7964997  12.9349988  57.3620012  68.7684997  12.1199988
  57.8680012  67.8904997  13.2439988  57.7951526  68.6702278  12.8652872
  57.6130012  71.5764997   9.8189988  58.5590012  71.4324997   9.7999988
  57.5010012  72.3604997  10.3559988  57.7272727  71.6628046   9.8890072
  66.7900012  71.8164997  14.3769988  66.8770012  72.6424997  14.8519988
  65.9260012  71.4864997  14.6259988  66.6851964  71.8849878  14.4756549
  67.2040012  75.5884997   4.1829988  67.1290012  75.4674997   3.2369988
  67.2370012  76.5384997   4.3019988  67.1981848  75.7002500   4.0694834
  60.8570012  74.3774997   5.9639988  61.0100012  74.0294997   6.8429988
  60.0070012  74.0214997   5.7089988  60.7628962  74.2816650   6.0498340
  70.3060012  74.7424997   1.1849988  70.6810012  73.9984997   0.7149988
  70.3100012  74.4724997   2.1039988  70.3578915  74.6041486   1.2447824
  69.9750012  74.6684997   3.9349988  69.0390012  74.7684997   4.1129988
  70.2550012  73.9594997   4.5129988  69.8848255  74.5862711   4.0375391
  72.9630012  63.7354997  15.9809988  72.5560012  64.2164997  15.2599988
  73.0040012  62.8304997  15.6729988  72.9128437  63.6789374  15.8406683
  60.1120012  70.1194997  13.9779988  60.3280012  69.7584997  14.8369988
  59.2570012  69.7454997  13.7679988  60.0259292  70.0194111  14.0673386
  62.7310012  58.5894997   9.9729988  61.8690012  58.5024997   9.5659988
  62.7080012  59.4454997  10.4009988  62.6100330  58.6932765   9.9751863
  67.3940012  58.3114997  13.3479988  67.8140012  57.8964997  14.1009988
  66.4610012  58.1334997  13.4649988  67.3253644  58.2305900  13.4669539
  70.7200012  62.0674997  14.2009988  70.2060012  61.9414997  14.9989988
  70.5650012  62.9794997  13.9569988  70.6286852  62.1736132  14.2772158
  71.4830012  66.9284997  -0.0370012  71.5250012  66.7054997  -0.9670012
  72.3320012  67.3274997   0.1529988  71.6035396  66.9519155  -0.1386373
  67.0550012  60.8044997   0.6329988  66.8020012  60.8234997   1.5559988
  66.7990012  59.9324997   0.3319988  66.9857790  60.6892437   0.7186263
  62.8220012  63.5554997  11.0679988  62.1800012  63.5144997  11.7769988
  62.8590012  64.4814997  10.8309988  62.7391324  63.6751559  11.1329824
  62.8190012  63.7764997   5.9799988  61.9260012  63.4354997   5.9219988
  63.2690012  63.3994997   5.2249988  62.7577305  63.6788484   5.8699177
  68.3540012  64.1924997   4.7969988  67.9450012  65.0074997   4.5059988
  69.0750012  64.0524997   4.1829988  68.3954537  64.2852018   4.6741342
  67.4560012  64.3674997  16.2849988  66.8940012  63.6634997  16.6059988
  68.2830012  64.2474997  16.7529988  67.4907095  64.2547883  16.3922330
  69.3590012  63.6384997   7.6109988  69.1640012  64.2434997   6.8959988
  69.5400012  62.8044997   7.1769988  69.3567614  63.6086300   7.4544405
  60.5720012  63.8754997  12.9349988  60.5340012  64.2754997  13.8039988
  60.0810012  63.0584997  13.0259988  60.5004684  63.8198069  13.0661059
  63.9380012  61.2494997  -0.2660012  63.5070012  60.8044997   0.4639988
  63.2200012  61.6214997  -0.7780012  63.7819438  61.2388940  -0.2353201
  57.1800012  60.9914997   6.7859988  57.8110012  60.9624997   7.5049988
  57.6290012  60.5664997   6.0559988  57.3270774  60.9300492   6.7856553
  58.4540012  61.7374997   2.2099988  58.9280012  62.3284997   1.6249988
  57.7370012  62.2684997   2.5569988  58.4219341  61.8900867   2.1768836
  68.6230012  65.2764997  12.2829988  68.9460012  64.6454997  11.6399988
  68.1830012  64.7414997  12.9429988  68.6076895  65.1178440  12.2842850
  65.4000012  61.2034997   7.0669988  64.4890012  61.2604997   7.3549988
  65.9060012  61.1434997   7.8769988  65.3435413  61.2031985   7.2160622
  60.2290012  62.8324997   5.8929988  59.3390012  62.9324997   5.5529988
  60.5250012  61.9904997   5.5469988  60.1472823  62.7323545   5.7997213
  63.8820012  62.8324997   3.5499988  64.8130012  62.9614997   3.7279988
  63.6670012  63.5024997   2.8999988  63.9804247  62.9406565   3.4865747
  69.8050012  60.4384997  10.3309988  69.1290012  60.5694997  10.9949988
  69.3200012  60.2834997   9.5209988  69.6467145  60.4354905  10.3124517
  62.5560012  64.0274997   1.1169988  62.0130012  63.6474997   0.4249988
  63.3890012  64.2214997   0.6879988  62.5944399  64.0018124   0.9644526
  60.6910012  68.5844997  16.2159988  61.4230012  68.8384997  16.7769988
  59.9110012  68.7884997  16.7309988  60.6858232  68.6469177  16.3625760
  66.7200012  63.9914997   8.9539988  67.2850012  63.4444997   8.4069988
  66.5730012  63.4694997   9.7419988  66.7772918  63.8462024   8.9858454
  61.7220012  60.1274997   5.3719988  61.4050012  59.2254997   5.3369988
  62.5040012  60.1294997   4.8189988  61.7842284  60.0041628   5.2924783
  65.3470012  62.3794997  11.3679988  64.5110012  62.8334997  11.4779988
  65.8710012  62.6554997  12.1199988  65.3034414  62.4789376  11.4847136
  65.8910012  68.5924997   3.0519988  65.1460012  68.0854997   2.7299988
  65.7570012  68.6414997   3.9989988  65.7708776  68.5296940   3.1358647
  73.0410012  67.7254997  11.8389988  73.6830012  68.1824997  11.2949988
  72.2110012  67.8384997  11.3759988  73.0165963  67.8032704  11.7020177
  69.7890012  61.4064997   1.2519988  68.8500012  61.5184997   1.0999988
  70.0860012  62.2634997   1.5579988  69.7007666  61.5376443   1.2725768
  67.4100012  68.7764997  14.2889988  67.0650012  68.3954997  15.0959988
  67.2100012  69.7104997  14.3609988  67.3358061  68.8505228  14.4090961
  70.5070012  63.2734997   2.9119988  71.3990012  63.1364997   3.2309988
  70.5640012  64.0644997   2.3759988  70.6366285  63.3616660   2.8831691
  61.0160012  67.8874997   8.8219988  61.7610012  67.8854997   8.2209988
  61.0940012  67.0644997   9.3039988  61.1285518  67.7759315   8.8048929
  68.0170012  70.0514997   2.0779988  67.7210012  70.8774997   2.4589988
  67.3140012  69.4314997   2.2739988  67.8814914  70.0808199   2.1566443
  58.0240012  66.3484997  14.1369988  58.2470012  65.9304997  14.9689988
  57.4220012  65.7354997  13.7139988  57.9731759  66.2084668  14.1937022
  65.0400012  65.8654997  16.3499988  64.7440012  65.6994997  15.4549988
  65.9720012  65.6454997  16.3389988  65.1254166  65.8130640  16.2260536
  69.6610012  71.2384997  14.2399988  68.7600012  71.4214997  13.9719988
  69.6950012  71.4974997  15.1609988  69.5423041  71.2985512  14.3278197
  75.3920012  63.4834997   2.6069988  74.8380012  63.0874997   1.9349988
  75.4920012  64.3934997   2.3289988  75.3297059  63.5523586   2.4774401
  73.6870012  72.2694997   3.0719988  73.3140012  71.4434997   3.3809988
  73.9650012  72.0864997   2.1749988  73.6735630  72.1317303   2.9929626
  70.8480012  67.0774997  10.0929988  69.9190012  66.8454997  10.0659988
  71.2990012  66.3004997   9.7629988  70.7819216  66.9407238  10.0446917
  63.3910012  71.4054997   6.2259988  63.9180012  72.1784997   6.0259988
  62.5110012  71.6304997   5.9249988  63.3441773  71.5418005   6.1579010
  59.1460012  66.2674997   0.8129988  59.7620012  66.8944997   1.1929988
  58.2840012  66.5834997   1.0849988  59.1137698  66.3959430   0.9017183
  64.8180012  69.0684997   5.8029988  64.5770012  69.9934997   5.8439988
  64.0770012  68.6094997   6.1989988  64.6848409  69.1331421   5.8621377
  65.3330012  73.2174997  12.1179988  65.6950012  74.0724997  11.8839988
  65.8640012  72.9254997  12.8579988  65.4544473  73.2951060  12.1860855
  63.5010012  74.0904997   5.3479988  62.5510012  74.1954997   5.3989988
  63.8530012  74.9104997   5.6929988  63.4184203  74.2158314   5.4016650
  68.8770012  69.3164997  11.8179988  68.4510012  69.0894997  12.6449988
  69.4570012  68.5784997  11.6359988  68.8971868  69.1855299  11.9065830
  71.0800012  70.2454997   0.8919988  71.4330012  69.8654997   1.6969988
  70.1310012  70.1524997   0.9789988  71.0000441  70.1809596   1.0138559
  71.5350012  73.8684997  14.2879988  70.9340012  73.3134997  13.7919988
  71.8170012  74.5354997  13.6619988  71.4908519  73.8826841  14.1354952
  75.5830012  74.7254997   1.0929988  76.3270012  75.3114997   0.9529988
  74.8890012  75.2934997   1.4269988  75.5910292  74.8825582   1.1189961
  59.6580012  61.1014997  13.6949988  58.7650012  61.4404997  13.6269988
  59.5590012  60.2464997  14.1129988  59.5224164  61.0322588  13.7422235
  71.9460012  68.9184997   3.1189988  71.6680012  68.1904997   3.6749988
  72.8730012  69.0374997   3.3239988  72.0333124  68.8348802   3.2228845
  59.3090012  72.9064997  12.1299988  59.5260012  71.9744997  12.0989988
  59.5550012  73.1804997  13.0129988  59.3719549  72.8160636  12.2451763
  65.1710012  71.3574997  -0.6610012  65.4100012  70.6094997  -1.2080012
  64.9020012  70.9694997   0.1719988  65.1673675  71.2026638  -0.6233135
  64.1080012  70.9274997   1.7959988  64.2540012  70.4074997   2.5859988
  64.1050012  71.8344997   2.1019988  64.1275989  70.9788853   1.9456088
  60.5610012  68.1804997   2.3059988  59.8750012  68.5324997   2.8729988
  61.0830012  68.9434997   2.0589988  60.5376852  68.3318578   2.3502118
  68.3920012  60.8424997  12.5849988  69.0910012  60.9164997  13.2349988
  68.0110012  59.9784997  12.7389988  68.4361767  60.7357624  12.6948322
  69.1770012  60.4944997   3.6819988  69.3970012  60.9664997   2.8789988
  69.7350012  60.8894997   4.3519988  69.2824968  60.6124285   3.6627331
  66.8450012  72.6254997   2.5449988  66.0290012  73.1224997   2.5969988
  67.3750012  73.1004997   1.9049988  66.8049161  72.7577722   2.4655956
  66.3770012  62.2224997   4.5169988  67.1890012  62.7274997   4.5629988
  66.1320012  62.0774997   5.4309988  66.4550520  62.2720375   4.6468517
  66.9120012  63.2084997  13.7019988  67.0310012  63.7824997  14.4589988
  67.5680012  62.5204997  13.8159988  67.0169757  63.1941079  13.8210825
  67.2600012  59.3034997   5.4549988  66.9140012  59.9214997   6.0999988
  67.9190012  59.8044997   4.9739988  67.3017826  59.4555802   5.4780971
  64.1840012  73.6694997   2.5269988  64.3440012  74.4684997   2.0259988
  63.9860012  73.9754997   3.4119988  64.1791649  73.8204469   2.5779815
  62.9180012  60.3664997   2.1419988  62.8350012  61.2554997   2.4889988
  63.8080012  60.1014997   2.3739988  63.0269469  60.4521430   2.2207626
  73.1170012  61.1154997  14.5369988  72.2000012  61.3784997  14.4489988
  73.4520012  61.1124997  13.6399988  73.0369900  61.1510224  14.4037919
  71.7190012  64.8664997   8.6319988  70.9210012  64.4514997   8.3039988
  72.1640012  64.1754997   9.1229988  71.6699885  64.7163543   8.6534889
  61.1770012  70.7944997   1.2029988  61.7690012  71.4934997   1.4789988
  61.6360012  70.3614997   0.4829988  61.3201142  70.8317049   1.1434830
  59.4930012  63.4584997   0.3189988  59.4480012  64.3974997   0.4969988
  58.6050012  63.2224997   0.0489988  59.3668574  63.5551892   0.3068912
  72.8050012  74.1224997  10.2549988  72.6500012  74.8004997   9.5979988
  73.7380012  74.1944997  10.4579988  72.9098500  74.2250170  10.1925119
  60.3010012  58.2404997   8.9919988  60.0720012  58.2994997   8.0639988
  59.8580012  57.4484997   9.2979988  60.2098530  58.1415753   8.9064786
  59.2310012  72.1804997   5.1519988  58.3990012  72.6534997   5.1799988
  59.7770012  72.6904997   4.5539988  59.1909739  72.3141871   5.0749716
  58.5190012  74.7934997  16.4819988  59.0600012  74.5764997  17.2419988
  58.0380012  73.9874997  16.2929988  58.5279345  74.6549514  16.5603076
  63.1170012  73.7124997  18.1029988  63.8840012  73.2534997  18.4439988
  63.0950012  73.4864997  17.1729988  63.2191434  73.6190409  18.0240043
  67.2090012  73.2204997  -0.5220012  66.5650012  72.5894997  -0.2010012
  67.9710012  72.6894997  -0.7540012  67.2238077  73.0622920  -0.5093989
  69.6940012  72.0924997  16.8319988  69.3430012  71.2364997  17.0749988
  70.4200012  72.2354997  17.4389988  69.7440769  71.9945636  16.9473619
  71.8130012  73.0374997  -0.2880012  72.0960012  72.2434997   0.1639988
  72.5530012  73.2704997  -0.8490012  71.9517486  72.9602803  -0.3019302
  58.4260012  68.6034997  17.4369988  58.5700012  67.7014997  17.1499988
  57.6540012  68.8894997  16.9489988  58.3413322  68.5188261  17.3317881
  62.7680012  68.9474997  -0.4310012  62.8320012  68.1534997   0.0999988
  63.4210012  68.8284997  -1.1210012  62.8650241  68.8227148  -0.4515683
  65.0820012  68.5734997  16.8689988  64.7530012  68.8444997  16.0119988
  65.2340012  67.6324997  16.7819988  65.0574809  68.4833862  16.7398244
  68.1200012  69.9944997  -0.6950012  67.8510012  70.1744997   0.2059988
  67.9140012  69.0684997  -0.8260012  68.0553825  69.8940152  -0.5894786
  59.2590012  65.8034997  16.8569988  59.6670012  64.9464997  16.7359988
  58.9990012  65.8184997  17.7779988  59.2797568  65.6880807  16.9649588
  63.9170012  66.9194997   1.8749988  63.4570012  66.4354997   2.5609988
  64.1720012  66.2514997   1.2389988  63.8884902  66.7628731   1.8829334
  63.2060012  64.8124997  14.2309988  62.5880012  65.4874997  14.5109988
  63.5500012  65.1334997  13.3979988  63.1679615  64.9482721  14.1566581
  64.9880012  65.1624997   0.1369988  64.8080012  65.0084997  -0.7900012
  65.9380012  65.2704997   0.1819988  65.0917776  65.1560175   0.0161843
  68.2260012  67.2844997  17.5079988  69.1790012  67.3674997  17.4809988
  68.0650012  66.5724997  18.1279988  68.3346426  67.1996746  17.5880579
  74.3780012  67.5174997  -0.4170012  74.1040012  67.0924997  -1.2300012
  74.4170012  68.4484997  -0.6340012  74.3457699  67.5852484  -0.5576390
  63.5450012  62.1674997  15.3129988  63.6950012  61.4384997  14.7109988
  63.5480012  62.9444997  14.7539988  63.5659302  62.1727851  15.1550692
  63.9580012  60.5374997  12.8059988  64.4940012  60.9884997  12.1539988
  63.1060012  60.4294997  12.3829988  63.9162178  60.5846390  12.6595756
  65.5400012  65.9764997  13.0449988  66.2900012  65.8204997  12.4719988
  65.2010012  66.8284997  12.7699988  65.5968921  66.0702968  12.9293561
  69.9550012  63.7914997  18.0739988  70.1480012  62.8604997  17.9619988
  70.8130012  64.2164997  18.0639988  70.0973020  63.7216389  18.0573361
  62.0240012  63.3654997  17.2249988  61.2570012  62.8334997  17.0149988
  62.7030012  63.0554997  16.6249988  62.0107022  63.2507506  17.1151648
  64.7640012  57.9934997  13.2369988  64.6650012  58.9404997  13.1319988
  64.0210012  57.6214997  12.7619988  64.6500564  58.0725902  13.1584560
  66.0280012  62.3154997  16.8009988  65.7920012  62.0954997  17.7029988
  65.2440012  62.1084997  16.2909988  65.8898628  62.2574760  16.8553932
  68.7430012  61.4424997  15.8769988  67.7960012  61.4744997  16.0089988
  69.0560012  60.8174997  16.5299988  68.6555475  61.3623207  15.9834455
  70.3770012  60.0764997  17.8819988  70.2810012  59.1244997  17.8759988
  70.0560012  60.3454997  18.7419988  70.3204070  59.9824035  17.9975441
  60.2040012  61.2864997  16.9289988  60.4160012  60.5794997  16.3189988
  60.0930012  60.8484997  17.7729988  60.2179721  61.1307084  16.9596843
  64.9850012  57.2874997  15.9089988  65.6970012  56.6474997  15.8949988
  64.8840012  57.5544997  14.9949988  65.0687939  57.2359938  15.7835650
  65.3390012  58.9704997  17.9619988  65.2070012  58.4944997  17.1419988
  64.7400012  59.7144997  17.9069988  65.2399071  59.0059618  17.8422886
  64.8850012  75.8534997   1.1389988  65.8180012  76.0114997   1.2819988
  64.6210012  76.5284997   0.5139988  64.9769510  75.9663611   1.0740741
  58.4540012  70.4894997   0.6209988  59.3680012  70.5684997   0.8949988
  58.4610012  69.8024997  -0.0450012  58.5801131  70.4073961   0.5684393
  57.1030012  75.8824997   5.6989988  56.4560012  75.4204997   5.1659988
  57.4570012  75.2104997   6.2809988  57.0623849  75.7284723   5.7047959
  57.9730012  73.9634997   7.5029988  57.6380012  73.0834997   7.6749988
  58.1950012  74.3084997   8.3679988  57.9571783  73.8897500   7.6434208
  75.5210012  74.7724997  10.4839988  75.5000012  74.9574997  11.4229988
  76.2120012  75.3414997  10.1429988  75.6114618  74.8746606  10.5663864
  75.0850012  74.3404997  13.4059988  74.5970012  73.6044997  13.0349988
  75.6340012  73.9464997  14.0839988  75.0924872  74.1866249  13.4469160
  74.8360012  68.3864997   3.5579988  75.6860012  68.8074997   3.6849988
  74.8420012  67.6464997   4.1649988  74.9531372  68.3440803   3.6574344
  75.2310012  66.4394997   5.3819988  74.5040012  65.9604997   5.7789988
  75.8120012  66.6454997   6.1139988  75.2099375  66.4017090   5.5354129
  74.9900012  69.2244997  10.3289988  75.8230012  68.8464997  10.0489988
  75.1020012  70.1674997  10.2099988  75.1192647  69.3002218  10.2745487
  75.4990012  66.3404997   1.7729988  74.9770012  66.6974997   1.0539988
  75.4660012  67.0154997   2.4509988  75.4231634  66.4805413   1.7663145
  73.8480012  63.5804997   0.3239988  73.9440012  64.2474997  -0.3570012
  73.7080012  62.7644997  -0.1580012  73.8422135  63.5614500   0.1658491
  73.0170012  64.9604997   5.9449988  72.8670012  64.0154997   5.9239988
  72.6640012  65.2414997   6.7879988  72.9486625  64.8690441   6.0562346
  58.0530012  67.0384997   9.9549988  58.2370012  66.9564997   9.0189988
  58.9020012  66.9144997  10.3789988  58.1930139  67.0105003   9.8841455
  73.0950012  60.9884997  -0.5590012  73.7060012  60.6174997   0.0779988
  72.2590012  60.5674997  -0.3630012  73.0655032  60.8807554  -0.4452965
  72.7280012  62.5434997   4.4069988  73.0080012  61.6364997   4.5309988
  73.4870012  62.9774997   4.0179988  72.8689277  62.4780942   4.3713682
  73.3400012  63.1244997   9.8429988  74.2730012  63.3364997   9.8089988
  73.1050012  63.2264997  10.7649988  73.4358036  63.1672769   9.9629976
  73.3690012  63.8614997  12.6189988  72.5260012  64.1294997  12.9849988
  73.8110012  64.6834997  12.4079988  73.3134158  64.0093291  12.6405491
  57.6500012  62.3094997  16.0959988  58.5700012  62.1874997  16.3319988
  57.2010012  61.5594997  16.4849988  57.7151580  62.1913727  16.1809006
  75.6520012  57.8414997  17.9719988  76.0020012  57.1874997  17.3669988
  75.7990012  58.6784997  17.5329988  75.7198419  57.8651591  17.8297118
  73.3410012  59.8064997   4.4549988  73.5240012  59.3574997   5.2809988
  72.7420012  59.2214997   3.9919988  73.2850202  59.6659975   4.5053275
  58.8710012  60.6214997   8.9869988  59.3170012  59.8294997   9.2889988
  59.3380012  61.3374997   9.4179988  58.9950172  60.6100624   9.0864820
  57.1750012  63.6204997  10.0559988  57.6670012  63.3994997   9.2649988
  57.5380012  64.4614997  10.3369988  57.2913126  63.7038357   9.9857531
  75.1720012  59.9504997  16.3219988  74.2540012  60.2214997  16.2859988
  75.2950012  59.4154997  15.5369988  75.0631066  59.9152892  16.2110487
  75.2080012  59.8734997   0.9829988  75.6200012  59.1524997   0.5079988
  75.8900012  60.5434997   1.0419988  75.3565885  59.8652368   0.9258915
  57.4890012  59.8784997   4.1099988  56.5640012  60.0874997   3.9809988
  57.9430012  60.3624997   3.4209988  57.4237368  59.9725993   3.9991226
  72.2600012  74.8624997   6.0559988  72.9120012  74.5154997   5.4479988
  72.7700012  75.3514997   6.7019988  72.4182637  74.8810597   6.0600236
  57.4530012  58.6164997  12.4549988  56.7880012  58.3704997  13.0979988
  57.0100012  59.2384997  11.8769988  57.3020956  58.6668632  12.4649352
  59.6450012  71.7914997  16.5989988  58.8240012  71.9664997  16.1389988
  59.3920012  71.7184997  17.5199988  59.4986164  71.8055622  16.6604923
  62.5990012  72.7664997  12.8579988  62.1740012  73.5754997  12.5749988
  63.5030012  72.8514997  12.5559988  62.6630271  72.8888469  12.7783776
  66.9100012  74.1654997  15.8169988  67.0950012  73.8314997  16.6949988
  67.7560012  74.4744997  15.4949988  67.0497539  74.1616047  15.8935605
  69.2550012  75.4514997  15.0609988  69.9320012  74.8184997  14.8209988
  69.5770012  75.8524997  15.8679988  69.3911637  75.4191154  15.1372793
  74.1720012  58.0404997  14.1409988  73.3600012  58.3654997  13.7529988
  74.4050012  57.2804997  13.6079988  74.0923423  57.9822436  14.0158253
  60.0010012  76.0224997  12.9049988  59.2800012  76.4624997  12.4539988
  59.6350012  75.7714997  13.7539988  59.8529804  76.0487698  12.9579840
  62.4680012  75.6224997  11.9349988  61.6030012  75.6944997  12.3389988
  62.4130012  76.1694997  11.1509988  62.3422085  75.7062685  11.8843362
  67.1780012  75.5104997  11.1099988  66.7220012  76.0394997  10.4559988
  67.3410012  76.1134997  11.8359988  67.1375585  75.6644468  11.1185062
  69.5060012  74.3884997  12.0549988  68.6010012  74.5534997  11.7899988
  69.9350012  75.2414997  11.9899988  69.4400799  74.5264483  12.0099182
  72.1100012  75.9584997  12.3499988  71.9280012  76.8744997  12.1399988
  72.2870012  75.5484997  11.5039988  72.1090210  76.0284822  12.2067885
  59.4150012  74.6454997   9.8149988  59.3970012  74.2204997  10.6729988
  60.2200012  74.3274997   9.4069988  59.5213875  74.5443812   9.8771655
  61.5570012  73.3554997   8.4699988  61.3380012  72.4394997   8.6399988
  62.3810012  73.4954997   8.9359988  61.6384420  73.2490520   8.5562774
  64.0940012  73.8254997   9.3189988  64.3070012  72.9374997   9.0319988
  64.1580012  73.7914997  10.2729988  64.1318231  73.6993102   9.4087397
  67.6020012  59.4894997   8.4629988  66.9280012  58.8604997   8.7189988
  68.1660012  59.0054997   7.8599988  67.5859230  59.3378744   8.4165340
  72.7450012  57.5974997   8.5759988  73.3490012  58.1444997   8.0739988
  71.8750012  57.9164997   8.3359988  72.7101241  57.7155806   8.4747654
  74.4720012  58.7354997   6.9089988  75.0840012  58.2214997   6.3829988
  74.8540012  59.6134997   6.9329988  74.6074540  58.7837140   6.8401830
  59.9290012  58.1234997   6.2849988  59.1520012  57.8894997   5.7779988
  60.4590012  57.3264997   6.2939988  59.8942330  57.9836988   6.2167742
  58.7650012  57.9214997   2.0889988  59.2040012  58.5324997   1.4969988
  58.1320012  58.4594997   2.5629988  58.7394514  58.0779257   2.0720930
  64.5080012  58.0504997   6.0989988  65.3830012  58.4384997   6.0689988
  64.3720012  57.8354997   7.0209988  64.6093695  58.0745184   6.2196440
  70.0650012  58.0804997   7.7479988  70.1410012  58.1754997   6.7979988
  69.7900012  57.1724997   7.8769988  70.0382321  57.9707867   7.6355079
  71.4180012  58.1064997   3.4399988  70.7160012  58.7214997   3.2309988
  70.9740012  57.2684997   3.5709988  71.2616330  58.0775783   3.4290328
  58.6660012  73.8694997   2.9869988  57.9810012  73.8314997   2.3189988
  58.6700012  74.7824997   3.2749988  58.5728193  73.9877016   2.9345284
  60.6260012  59.8374997   0.5309988  61.1180012  59.2074997   0.0039988
  61.2500012  60.1334997   1.1949988  60.7775446  59.7913199   0.5485980
  65.6520012  60.1304997   2.9879988  65.8300012  59.4844997   3.6709988
  65.5990012  60.9644997   3.4559988  65.6691829  60.1547985   3.1445940
  67.5310012  75.0794997   1.3839988  68.3970012  75.4454997   1.2059988
  67.2840012  74.6394997   0.5699988  67.6162392  75.0701756   1.2496289
  74.2400012  74.6424997   4.0629988  74.0450012  73.8944997   3.4979988
  74.2010012  75.4004997   3.4799988  74.2080380  74.6426099   3.9068384
  59.8870012  58.6374997  15.8029988  59.5210012  57.8724997  16.2459988
  60.8000012  58.6664997  16.0899988  59.9602790  58.5367224  15.9024070
  61.8600012  57.9884997  17.3389988  62.7580012  57.7144997  17.1539988
  61.4730012  57.2454997  17.8029988  61.9306612  57.8505914  17.3763643
  60.4840012  74.7894997   0.0119988  60.2170012  75.0764997   0.8849988
  61.2560012  74.2434997   0.1639988  60.5517488  74.7550294   0.1521050
  70.2810012  57.3204997  17.5209988  70.3580012  56.8944997  18.3749988
  71.1750012  57.3344997  17.1779988  70.4123428  57.2640879  17.5915310
  87.8630012  67.2794997   6.2439988  87.9520012  68.2234997   6.1119988
  87.2250012  67.0044997   5.5859988  87.7889081  67.3714830   6.1369614
  86.7960012  66.5344997   9.6629988  86.7580012  65.8884997  10.3679988
  86.4740012  66.0684997   8.8919988  86.7472333  66.3829408   9.6552978
  79.1650012  66.1494997  11.2559988  79.2060012  65.5234997  11.9789988
  79.8680012  66.7734997  11.4379988  79.2656363  66.1481196  11.3796044
  90.5020012  69.4734997   7.9639988  90.0620012  68.7534997   8.4149988
  90.4890012  70.1944997   8.5939988  90.4400226  69.4723731   8.1108494
  80.0880012  70.5994997   9.7909988  79.7190012  69.7974997   9.4209988
  81.0290012  70.4304997   9.8369988  80.1647289  70.4670153   9.7466316
  76.6980012  64.2594997   5.1839988  76.2510012  65.1054997   5.1649988
  76.1370012  63.6794997   4.6679988  76.5609900  64.2969916   5.1116801
  77.4090012  66.4214997   7.3099988  77.6220012  65.6514997   7.8369988
  78.1470012  66.5104997   6.7059988  77.5378496  66.3281394   7.3005300
  87.6140012  74.5784997   8.1769988  88.2340012  73.9014997   7.9029988
  87.4060012  74.3604997   9.0849988  87.6706904  74.4563870   8.2623365
  85.1860012  68.9674997  10.0689988  85.4900012  68.2814997   9.4739988
  85.9070012  69.0854997  10.6869988  85.3250671  68.8896305  10.0711816
  93.8490012  60.5684997  10.9299988  93.8980012  61.1784997  11.6659988
  94.2740012  61.0294997  10.2069988  93.9131824  60.7143741  10.9330205
  88.3270012  63.3614997  10.3969988  88.4690012  62.4154997  10.4169988
  88.2200012  63.5684997   9.4679988  88.3319864  63.2599534  10.2742339
  81.4810012  61.4624997   7.6689988  81.5250012  62.3224997   7.2509988
  81.0240012  60.9104997   7.0349988  81.4252185  61.5055799   7.5260299
  89.2040012  61.5934997   6.0699988  89.8500012  61.2644997   6.6949988
  89.7140012  62.1114997   5.4469988  89.3614264  61.6184611   6.0713862
  78.1020012  63.8594997   8.4309988  78.7550012  63.3094997   8.8629988
  78.1260012  63.5854997   7.5139988  78.1946683  63.7471466   8.3662123
  83.2580012  65.4094997   7.6459988  83.8740012  64.8834997   8.1559988
  82.6720012  64.7694997   7.2429988  83.2630810  65.2509208   7.6613173
  94.2400012  62.0464997  13.1659988  93.5520012  62.7044997  13.0699988
  94.2560012  61.8494997  14.1019988  94.1478525  62.1100462  13.2794808
  80.2920012  60.3804997  11.7429988  80.0730012  60.9104997  10.9769988
  79.6240012  60.6074997  12.3899988  80.1717600  60.4836906  11.7256379
  87.6610012  69.8804997   5.2869988  87.3650012  69.5584997   4.4359988
  87.3360012  70.7804997   5.3279988  87.5766371  69.9580215   5.1761801
  82.8610012  68.0564997  12.0299988  82.1210012  68.6544997  12.1339988
  83.5750012  68.6104997  11.7149988  82.8562237  68.2132831  12.0016465
  90.9680012  60.8844997   8.0499988  90.7520012  60.1184997   8.5829988
  91.6230012  61.3564997   8.5629988  91.0270632  60.8435889   8.1922861
  79.8850012  62.2724997   9.6949988  80.4990012  62.9054997  10.0689988
  80.3970012  61.8004997   9.0389988  80.0382296  62.2952370   9.6574252
  81.2680012  70.0204997  12.8179988  81.2630012  70.9004997  12.4399988
  80.4150012  69.9374997  13.2429988  81.1519464  70.1296117  12.8237907
  77.3890012  69.6914997   3.5999988  77.1170012  69.9204997   2.7109988
  77.4350012  70.5294997   4.0599988  77.3580094  69.8361213   3.5405697
  91.0140012  71.3134997  10.3119988  90.0730012  71.3714997  10.4739988
  91.2910012  72.2194997  10.1749988  90.9224679  71.4439443  10.3156815
  91.3150012  59.5994997  11.7299988  90.5790012  60.2104997  11.6919988
  91.9980012  60.0144997  11.2029988  91.3066541  59.7391374  11.6535832
  84.3180012  57.6864997   9.1959988  84.2010012  56.7374997   9.1409988
  83.4630012  58.0184997   9.4689988  84.1863733  57.6015409   9.2253897
  89.2660012  73.0944997   6.9379988  89.6920012  72.3874997   6.4529988
  89.5830012  73.8954997   6.5209988  89.3671019  73.1060994   6.8153130
  90.4260012  70.9954997   5.4459988  90.1680012  70.3054997   4.8349988
  90.4970012  70.5524997   6.2919988  90.4002856  70.8412124   5.4766885
  92.1120012  69.5614997  13.9239988  92.2520012  68.9704997  13.1839988
  92.2790012  70.4344997  13.5669988  92.1536778  69.5986426  13.7746965
  86.5850012  66.5234997   3.6959988  85.8730012  67.0584997   3.3439988
  87.2760012  66.5794997   3.0359988  86.5810132  66.6042543   3.5586289
  86.6380012  64.9814997   0.7349988  87.3390012  65.0034997   1.3859988
  86.9410012  64.3534997   0.0789988  86.7747830  64.8996566   0.7353711
  93.9540012  65.9014997  11.9899988  93.3010012  66.5964997  12.0789988
  94.4190012  66.1114997  11.1799988  93.9275390  66.0249425  11.8926883
  89.9900012  66.7334997   4.6479988  89.2580012  66.9614997   5.2209988
  90.4380012  66.0194997   5.1029988  89.9503095  66.6682571   4.7879119
  89.8880012  64.9074997  13.7149988  89.9680012  65.6704997  14.2869988
  89.2860012  65.1864997  13.0249988  89.8175756  65.0497134  13.7000589
  81.6360012  67.3634997   6.5299988  81.3050012  66.9934997   5.7119988
  82.2240012  66.6934997   6.8769988  81.6701873  67.2221156   6.4648102
  83.0020012  70.7914997   9.2119988  82.9080012  70.2134997   8.4549988
  83.7320012  70.4204997   9.7079988  83.0877981  70.6622390   9.1754165
  82.0020012  66.1324997  10.1639988  82.5680012  66.2534997   9.4009988
  82.3210012  66.7694997  10.8029988  82.1225786  66.2351884  10.1460040
  88.3110012  71.6354997  10.8979988  88.0710012  72.2974997  11.5459988
  88.1130012  70.8014997  11.3229988  88.2513808  71.6133134  11.0441524
  88.8610012  65.8954997   2.3329988  89.4410012  66.0454997   3.0799988
  89.2750012  66.3664997   1.6099988  88.9962830  65.9796841   2.3374134
  79.8020012  66.7294997  14.1099988  79.8730012  67.3804997  14.8079988
  78.9120012  66.8324997  13.7749988  79.6913117  66.8325936  14.1602700
  86.5880012  72.6324997   5.7679988  87.0620012  72.9274997   6.5459988
  86.0250012  73.3704997   5.5349988  86.5767653  72.7726932   5.8430136
  92.5600012  57.6454997   2.1459988  91.6600012  57.7844997   2.4409988
  92.8120012  58.4764997   1.7439988  92.4708702  57.7769074   2.1320205
  80.6260012  66.4334997   4.1199988  80.3340012  67.2014997   3.6289988
  79.9520012  65.7734997   3.9569988  80.4949081  66.4494406   4.0307340
  93.7490012  72.0114997   0.5219988  93.8230012  72.9504997   0.6929988
  94.6550012  71.7064997   0.4659988  93.8815100  72.0986722   0.5378119
  76.7190012  68.7964997  12.9349988  76.2180012  68.7684997  12.1199988
  76.7240012  67.8904997  13.2439988  76.6511526  68.6702278  12.8652872
  76.4690012  71.5764997   9.8189988  77.4150012  71.4324997   9.7999988
  76.3570012  72.3604997  10.3559988  76.5832727  71.6628046   9.8890072
  94.6670012  72.2424997  15.5009988  94.6180012  71.2874997  15.4639988
  93.8400012  72.5104997  15.9019988  94.5484940  72.1478998  15.5501375
  85.6460012  71.8164997  14.3769988  85.7330012  72.6424997  14.8519988
  84.7820012  71.4864997  14.6259988  85.5411964  71.8849878  14.4756549
  86.0600012  75.5884997   4.1829988  85.9850012  75.4674997   3.2369988
  86.0930012  76.5384997   4.3019988  86.0541848  75.7002500   4.0694834
  79.7130012  74.3774997   5.9639988  79.8660012  74.0294997   6.8429988
  78.8630012  74.0214997   5.7089988  79.6188962  74.2816650   6.0498340
  89.1620012  74.7424997   1.1849988  89.5370012  73.9984997   0.7149988
  89.1660012  74.4724997   2.1039988  89.2138915  74.6041486   1.2447824
  88.8310012  74.6684997   3.9349988  87.8950012  74.7684997   4.1129988
  89.1110012  73.9594997   4.5129988  88.7408255  74.5862711   4.0375391
  91.8190012  63.7354997  15.9809988  91.4120012  64.2164997  15.2599988
  91.8600012  62.8304997  15.6729988  91.7688437  63.6789374  15.8406683
  81.5870012  58.5894997   9.9729988  80.7250012  58.5024997   9.5659988
  81.5640012  59.4454997  10.4009988  81.4660330  58.6932765   9.9751863
  86.2500012  58.3114997  13.3479988  86.6700012  57.8964997  14.1009988
  85.3170012  58.1334997  13.4649988  86.1813644  58.2305900  13.4669539
  89.5760012  62.0674997  14.2009988  89.0620012  61.9414997  14.9989988
  89.4210012  62.9794997  13.9569988  89.4846852  62.1736132  14.2772158
  90.3390012  66.9284997  -0.0370012  90.3810012  66.7054997  -0.9670012
  91.1880012  67.3274997   0.1529988  90.4595396  66.9519155  -0.1386373
  85.9110012  60.8044997   0.6329988  85.6580012  60.8234997   1.5559988
  85.6550012  59.9324997   0.3319988  85.8417790  60.6892437   0.7186263
  81.6780012  63.5554997  11.0679988  81.0360012  63.5144997  11.7769988
  81.7150012  64.4814997  10.8309988  81.5951324  63.6751559  11.1329824
  81.6750012  63.7764997   5.9799988  80.7820012  63.4354997   5.9219988
  82.1250012  63.3994997   5.2249988  81.6137305  63.6788484   5.8699177
  87.2100012  64.1924997   4.7969988  86.8010012  65.0074997   4.5059988
  87.9310012  64.0524997   4.1829988  87.2514537  64.2852018   4.6741342
  86.3120012  64.3674997  16.2849988  85.7500012  63.6634997  16.6059988
  87.1390012  64.2474997  16.7529988  86.3467095  64.2547883  16.3922330
  88.2150012  63.6384997   7.6109988  88.0200012  64.2434997   6.8959988
  88.3960012  62.8044997   7.1769988  88.2127614  63.6086300   7.4544405
  79.4280012  63.8754997  12.9349988  79.3900012  64.2754997  13.8039988
  78.9370012  63.0584997  13.0259988  79.3564684  63.8198069  13.0661059
  82.7940012  61.2494997  -0.2660012  82.3630012  60.8044997   0.4639988
  82.0760012  61.6214997  -0.7780012  82.6379438  61.2388940  -0.2353201
  76.0360012  60.9914997   6.7859988  76.6670012  60.9624997   7.5049988
  76.4850012  60.5664997   6.0559988  76.1830774  60.9300492   6.7856553
  77.3100012  61.7374997   2.2099988  77.7840012  62.3284997   1.6249988
  76.5930012  62.2684997   2.5569988  77.2779341  61.8900867   2.1768836
  87.4790012  65.2764997  12.2829988  87.8020012  64.6454997  11.6399988
  87.0390012  64.7414997  12.9429988  87.4636895  65.1178441  12.2842850
  84.2560012  61.2034997   7.0669988  83.3450012  61.2604997   7.3549988
  84.7620012  61.1434997   7.8769988  84.1995413  61.2031985   7.2160622
  79.0850012  62.8324997   5.8929988  78.1950012  62.9324997   5.5529988
  79.3810012  61.9904997   5.5469988  79.0032823  62.7323545   5.7997213
  82.7380012  62.8324997   3.5499988  83.6690012  62.9614997   3.7279988
  82.5230012  63.5024997   2.8999988  82.8364247  62.9406565   3.4865747
  88.6610012  60.4384997  10.3309988  87.9850012  60.5694997  10.9949988
  88.1760012  60.2834997   9.5209988  88.5027145  60.4354905  10.3124517
  81.4120012  64.0274997   1.1169988  80.8690012  63.6474997   0.4249988
  82.2450012  64.2214997   0.6879988  81.4504399  64.0018124   0.9644526
  91.9490012  76.1104997  16.6079988  92.1490012  76.5344997  15.7729988
  92.6040012  76.4534997  17.2149988  92.0650051  76.2149648  16.5757836
  85.5760012  63.9914997   8.9539988  86.1410012  63.4444997   8.4069988
  85.4290012  63.4694997   9.7419988  85.6332918  63.8462024   8.9858454
  80.5780012  60.1274997   5.3719988  80.2610012  59.2254997   5.3369988
  81.3600012  60.1294997   4.8189988  80.6402284  60.0041628   5.2924783
  84.2030012  62.3794997  11.3679988  83.3670012  62.8334997  11.4779988
  84.7270012  62.6554997  12.1199988  84.1594414  62.4789376  11.4847136
  84.7470012  68.5924997   3.0519988  84.0020012  68.0854997   2.7299988
  84.6130012  68.6414997   3.9989988  84.6268776  68.5296940   3.1358647
  91.8970012  67.7254997  11.8389988  92.5390012  68.1824997  11.2949988
  91.0670012  67.8384997  11.3759988  91.8725963  67.8032704  11.7020177
  88.6450012  61.4064997   1.2519988  87.7060012  61.5184997   1.0999988
  88.9420012  62.2634997   1.5579988  88.5567666  61.5376443   1.2725768
  86.2660012  68.7764997  14.2889988  85.9210012  68.3954997  15.0959988
  86.0660012  69.7104997  14.3609988  86.1918061  68.8505228  14.4090961
  89.3630012  63.2734997   2.9119988  90.2550012  63.1364997   3.2309988
  89.4200012  64.0644997   2.3759988  89.4926285  63.3616660   2.8831691
  79.8720012  67.8874997   8.8219988  80.6170012  67.8854997   8.2209988
  79.9500012  67.0644997   9.3039988  79.9845518  67.7759315   8.8048929
  86.8730012  70.0514997   2.0779988  86.5770012  70.8774997   2.4589988
  86.1700012  69.4314997   2.2739988  86.7374914  70.0808199   2.1566443
  83.8960012  65.8654997  16.3499988  83.6000012  65.6994997  15.4549988
  84.8280012  65.6454997  16.3389988  83.9814166  65.8130640  16.2260536
  88.5170012  71.2384997  14.2399988  87.6160012  71.4214997  13.9719988
  88.5510012  71.4974997  15.1609988  88.3983041  71.2985512  14.3278197
  94.2480012  63.4834997   2.6069988  93.6940012  63.0874997   1.9349988
  94.3480012  64.3934997   2.3289988  94.1857059  63.5523586   2.4774401
  94.2110012  69.2834997  15.4439988  93.3600012  69.5214997  15.0769988
  94.8020012  69.2664997  14.6909988  94.1742487  69.3138258  15.2918893
  92.5430012  72.2694997   3.0719988  92.1700012  71.4434997   3.3809988
  92.8210012  72.0864997   2.1749988  92.5295630  72.1317303   2.9929626
  89.7040012  67.0774997  10.0929988  88.7750012  66.8454997  10.0659988
  90.1550012  66.3004997   9.7629988  89.6379216  66.9407238  10.0446917
  82.2470012  71.4054997   6.2259988  82.7740012  72.1784997   6.0259988
  81.3670012  71.6304997   5.9249988  82.2001773  71.5418005   6.1579010
  78.0020012  66.2674997   0.8129988  78.6180012  66.8944997   1.1929988
  77.1400012  66.5834997   1.0849988  77.9697698  66.3959430   0.9017183
  83.6740012  69.0684997   5.8029988  83.4330012  69.9934997   5.8439988
  82.9330012  68.6094997   6.1989988  83.5408409  69.1331421   5.8621377
  84.1890012  73.2174997  12.1179988  84.5510012  74.0724997  11.8839988
  84.7200012  72.9254997  12.8579988  84.3104473  73.2951060  12.1860855
  82.3570012  74.0904997   5.3479988  81.4070012  74.1954997   5.3989988
  82.7090012  74.9104997   5.6929988  82.2744203  74.2158314   5.4016650
  87.7330012  69.3164997  11.8179988  87.3070012  69.0894997  12.6449988
  88.3130012  68.5784997  11.6359988  87.7531868  69.1855299  11.9065830
  89.9360012  70.2454997   0.8919988  90.2890012  69.8654997   1.6969988
  88.9870012  70.1524997   0.9789988  89.8560441  70.1809596   1.0138559
  90.3910012  73.8684997  14.2879988  89.7900012  73.3134997  13.7919988
  90.6730012  74.5354997  13.6619988  90.3468519  73.8826841  14.1354951
  94.4390012  74.7254997   1.0929988  95.1830012  75.3114997   0.9529988
  93.7450012  75.2934997   1.4269988  94.4470292  74.8825582   1.1189961
  78.5140012  61.1014997  13.6949988  77.6210012  61.4404997  13.6269988
  78.4150012  60.2464997  14.1129988  78.3784164  61.0322588  13.7422235
  90.8020012  68.9184997   3.1189988  90.5240012  68.1904997   3.6749988
  91.7290012  69.0374997   3.3239988  90.8893124  68.8348802   3.2228845
  78.1650012  72.9064997  12.1299988  78.3820012  71.9744997  12.0989988
  78.4110012  73.1804997  13.0129988  78.2279549  72.8160636  12.2451763
  84.0270012  71.3574997  -0.6610012  84.2660012  70.6094997  -1.2080012
  83.7580012  70.9694997   0.1719988  84.0233675  71.2026638  -0.6233135
  82.9640012  70.9274997   1.7959988  83.1100012  70.4074997   2.5859988
  82.9610012  71.8344997   2.1019988  82.9835989  70.9788853   1.9456088
  79.4170012  68.1804997   2.3059988  78.7310012  68.5324997   2.8729988
  79.9390012  68.9434997   2.0589988  79.3936852  68.3318578   2.3502118
  87.2480012  60.8424997  12.5849988  87.9470012  60.9164997  13.2349988
  86.8670012  59.9784997  12.7389988  87.2921767  60.7357624  12.6948322
  88.0330012  60.4944997   3.6819988  88.2530012  60.9664997   2.8789988
  88.5910012  60.8894997   4.3519988  88.1384968  60.6124285   3.6627331
  85.7010012  72.6254997   2.5449988  84.8850012  73.1224997   2.5969988
  86.2310012  73.1004997   1.9049988  85.6609161  72.7577722   2.4655956
  85.2330012  62.2224997   4.5169988  86.0450012  62.7274997   4.5629988
  84.9880012  62.0774997   5.4309988  85.3110520  62.2720375   4.6468517
  85.7680012  63.2084997  13.7019988  85.8870012  63.7824997  14.4589988
  86.4240012  62.5204997  13.8159988  85.8729757  63.1941079  13.8210825
  86.1160012  59.3034997   5.4549988  85.7700012  59.9214997   6.0999988
  86.7750012  59.8044997   4.9739988  86.1577826  59.4555802   5.4780971
  83.0400012  73.6694997   2.5269988  83.2000012  74.4684997   2.0259988
  82.8420012  73.9754997   3.4119988  83.0351649  73.8204469   2.5779815
  81.7740012  60.3664997   2.1419988  81.6910012  61.2554997   2.4889988
  82.6640012  60.1014997   2.3739988  81.8829469  60.4521430   2.2207626
  91.9730012  61.1154997  14.5369988  91.0560012  61.3784997  14.4489988
  92.3080012  61.1124997  13.6399988  91.8929900  61.1510224  14.4037919
  90.5750012  64.8664997   8.6319988  89.7770012  64.4514997   8.3039988
  91.0200012  64.1754997   9.1229988  90.5259885  64.7163543   8.6534889
  80.0330012  70.7944997   1.2029988  80.6250012  71.4934997   1.4789988
  80.4920012  70.3614997   0.4829988  80.1761142  70.8317049   1.1434830
  78.3490012  63.4584997   0.3189988  78.3040012  64.3974997   0.4969988
  77.4610012  63.2224997   0.0489988  78.2228574  63.5551892   0.3068912
  91.6610012  74.1224997  10.2549988  91.5060012  74.8004997   9.5979988
  92.5940012  74.1944997  10.4579988  91.7658500  74.2250170  10.1925119
  79.1570012  58.2404997   8.9919988  78.9280012  58.2994997   8.0639988
  78.7140012  57.4484997   9.2979988  79.0658530  58.1415753   8.9064786
  78.0870012  72.1804997   5.1519988  77.2550012  72.6534997   5.1799988
  78.6330012  72.6904997   4.5539988  78.0469739  72.3141871   5.0749716
  86.0650012  73.2204997  -0.5220012  85.4210012  72.5894997  -0.2010012
  86.8270012  72.6894997  -0.7540012  86.0798077  73.0622920  -0.5093989
  88.5500012  72.0924997  16.8319988  88.1990012  71.2364997  17.0749988
  89.2760012  72.2354997  17.4389988  88.6000769  71.9945636  16.9473619
  90.6690012  73.0374997  -0.2880012  90.9520012  72.2434997   0.1639988
  91.4090012  73.2704997  -0.8490012  90.8077486  72.9602803  -0.3019302
  81.6240012  68.9474997  -0.4310012  81.6880012  68.1534997   0.0999988
  82.2770012  68.8284997  -1.1210012  81.7210241  68.8227148  -0.4515683
  86.9760012  69.9944997  -0.6950012  86.7070012  70.1744997   0.2059988
  86.7700012  69.0684997  -0.8260012  86.9113825  69.8940152  -0.5894786
  89.6720012  68.4894997  14.2529988  90.4180012  69.0774997  14.1329988
  88.9150012  69.0714997  14.3159988  89.6717554  68.6487011  14.2450907
  82.7730012  66.9194997   1.8749988  82.3130012  66.4354997   2.5609988
  83.0280012  66.2514997   1.2389988  82.7444902  66.7628731   1.8829334
  82.0620012  64.8124997  14.2309988  81.4440012  65.4874997  14.5109988
  82.4060012  65.1334997  13.3979988  82.0239615  64.9482721  14.1566581
  83.8440012  65.1624997   0.1369988  83.6640012  65.0084997  -0.7900012
  84.7940012  65.2704997   0.1819988  83.9477776  65.1560175   0.0161843
  87.0820012  67.2844997  17.5079988  88.0350012  67.3674997  17.4809988
  86.9210012  66.5724997  18.1279988  87.1906426  67.1996746  17.5880579
  93.2340012  67.5174997  -0.4170012  92.9600012  67.0924997  -1.2300012
  93.2730012  68.4484997  -0.6340012  93.2017699  67.5852484  -0.5576390
  82.4010012  62.1674997  15.3129988  82.5510012  61.4384997  14.7109988
  82.4040012  62.9444997  14.7539988  82.4219302  62.1727851  15.1550692
  82.8140012  60.5374997  12.8059988  83.3500012  60.9884997  12.1539988
  81.9620012  60.4294997  12.3829988  82.7722178  60.5846390  12.6595756
  84.3960012  65.9764997  13.0449988  85.1460012  65.8204997  12.4719988
  84.0570012  66.8284997  12.7699988  84.4528921  66.0702968  12.9293561
  88.8110012  63.7914997  18.0739988  89.0040012  62.8604997  17.9619988
  89.6690012  64.2164997  18.0639988  88.9533020  63.7216389  18.0573361
  90.1280012  66.5804997  16.1509988  89.8470012  67.2894997  15.5739988
  91.0710012  66.5074997  15.9999988  90.2169027  66.6677646  16.0515551
  80.8800012  63.3654997  17.2249988  80.1130012  62.8334997  17.0149988
  81.5590012  63.0554997  16.6249988  80.8667022  63.2507506  17.1151648
  83.6200012  57.9934997  13.2369988  83.5210012  58.9404997  13.1319988
  82.8770012  57.6214997  12.7619988  83.5060564  58.0725902  13.1584560
  84.8840012  62.3154997  16.8009988  84.6480012  62.0954997  17.7029988
  84.1000012  62.1084997  16.2909988  84.7458628  62.2574760  16.8553932
  87.5990012  61.4424997  15.8769988  86.6520012  61.4744997  16.0089988
  87.9120012  60.8174997  16.5299988  87.5115475  61.3623207  15.9834455
  89.2330012  60.0764997  17.8819988  89.1370012  59.1244997  17.8759988
  88.9120012  60.3454997  18.7419988  89.1764070  59.9824035  17.9975441
  79.0600012  61.2864997  16.9289988  79.2720012  60.5794997  16.3189988
  78.9490012  60.8484997  17.7729988  79.0739721  61.1307084  16.9596843
  83.8410012  57.2874997  15.9089988  84.5530012  56.6474997  15.8949988
  83.7400012  57.5544997  14.9949988  83.9247939  57.2359938  15.7835650
  84.1950012  58.9704997  17.9619988  84.0630012  58.4944997  17.1419988
  83.5960012  59.7144997  17.9069988  84.0959071  59.0059618  17.8422886
  83.7410012  75.8534997   1.1389988  84.6740012  76.0114997   1.2819988
  83.4770012  76.5284997   0.5139988  83.8329510  75.9663611   1.0740741
  77.3100012  70.4894997   0.6209988  78.2240012  70.5684997   0.8949988
  77.3170012  69.8024997  -0.0450012  77.4361131  70.4073961   0.5684393
  75.9590012  75.8824997   5.6989988  75.3120012  75.4204997   5.1659988
  76.3130012  75.2104997   6.2809988  75.9183849  75.7284723   5.7047959
  76.8290012  73.9634997   7.5029988  76.4940012  73.0834997   7.6749988
  77.0510012  74.3084997   8.3679988  76.8131783  73.8897500   7.6434208
  94.3770012  74.7724997  10.4839988  94.3560012  74.9574997  11.4229988
  95.0680012  75.3414997  10.1429988  94.4674618  74.8746606  10.5663864
  93.9410012  74.3404997  13.4059988  93.4530012  73.6044997  13.0349988
  94.4900012  73.9464997  14.0839988  93.9484872  74.1866249  13.4469160
  92.3910012  70.1294997  18.0439988  91.5250012  70.0244997  18.4379988
  92.7680012  70.8884997  18.4899988  92.3233308  70.2176900  18.1582393
  93.6920012  68.3864997   3.5579988  94.5420012  68.8074997   3.6849988
  93.6980012  67.6464997   4.1649988  93.8091372  68.3440803   3.6574344
  94.0870012  66.4394997   5.3819988  93.3600012  65.9604997   5.7789988
  94.6680012  66.6454997   6.1139988  94.0659375  66.4017090   5.5354129
  93.8460012  69.2244997  10.3289988  94.6790012  68.8464997  10.0489988
  93.9580012  70.1674997  10.2099988  93.9752647  69.3002218  10.2745487
  92.3320012  72.1024997  12.6359988  91.6850012  72.4274997  13.2619988
  91.8150012  71.6624997  11.9619988  92.1734029  72.0875004  12.6305827
  94.3550012  66.3404997   1.7729988  93.8330012  66.6974997   1.0539988
  94.3220012  67.0154997   2.4509988  94.2791634  66.4805413   1.7663145
  92.7040012  63.5804997   0.3239988  92.8000012  64.2474997  -0.3570012
  92.5640012  62.7644997  -0.1580012  92.6982135  63.5614500   0.1658491
  91.8730012  64.9604997   5.9449988  91.7230012  64.0154997   5.9239988
  91.5200012  65.2414997   6.7879988  91.8046625  64.8690441   6.0562346
  76.9090012  67.0384997   9.9549988  77.0930012  66.9564997   9.0189988
  77.7580012  66.9144997  10.3789988  77.0490139  67.0105003   9.8841455
  92.7300012  66.9304997  15.5829988  93.3130012  66.1964997  15.7749988
  93.2940012  67.7024997  15.6299988  92.8859769  66.9344227  15.6156159
  94.2260012  64.8334997  16.2679988  93.3630012  64.4544997  16.1019988
  94.8310012  64.0944997  16.1939988  94.1895979  64.6818023  16.2352817
  91.9510012  60.9884997  -0.5590012  92.5620012  60.6174997   0.0779988
  91.1150012  60.5674997  -0.3630012  91.9215032  60.8807554  -0.4452965
  91.5840012  62.5434997   4.4069988  91.8640012  61.6364997   4.5309988
  92.3430012  62.9774997   4.0179988  91.7249277  62.4780942   4.3713682
  92.1960012  63.1244997   9.8429988  93.1290012  63.3364997   9.8089988
  91.9610012  63.2264997  10.7649988  92.2918036  63.1672769   9.9629976
  92.2250012  63.8614997  12.6189988  91.3820012  64.1294997  12.9849988
  92.6670012  64.6834997  12.4079988  92.1694158  64.0093291  12.6405491
  76.5060012  62.3094997  16.0959988  77.4260012  62.1874997  16.3319988
  76.0570012  61.5594997  16.4849988  76.5711580  62.1913727  16.1809006
  94.5080012  57.8414997  17.9719988  94.8580012  57.1874997  17.3669988
  94.6550012  58.6784997  17.5329988  94.5758419  57.8651591  17.8297118
  92.1970012  59.8064997   4.4549988  92.3800012  59.3574997   5.2809988
  91.5980012  59.2214997   3.9919988  92.1410202  59.6659975   4.5053275
  77.7270012  60.6214997   8.9869988  78.1730012  59.8294997   9.2889988
  78.1940012  61.3374997   9.4179988  77.8510172  60.6100624   9.0864820
  76.0310012  63.6204997  10.0559988  76.5230012  63.3994997   9.2649988
  76.3940012  64.4614997  10.3369988  76.1473126  63.7038357   9.9857531
  94.0280012  59.9504997  16.3219988  93.1100012  60.2214997  16.2859988
  94.1510012  59.4154997  15.5369988  93.9191066  59.9152892  16.2110487
  94.0640012  59.8734997   0.9829988  94.4760012  59.1524997   0.5079988
  94.7460012  60.5434997   1.0419988  94.2125885  59.8652368   0.9258915
  76.3450012  59.8784997   4.1099988  75.4200012  60.0874997   3.9809988
  76.7990012  60.3624997   3.4209988  76.2797368  59.9725993   3.9991226
  91.1160012  74.8624997   6.0559988  91.7680012  74.5154997   5.4479988
  91.6260012  75.3514997   6.7019988  91.2742637  74.8810597   6.0600236
  76.3090012  58.6164997  12.4549988  75.6440012  58.3704997  13.0979988
  75.8660012  59.2384997  11.8769988  76.1580956  58.6668632  12.4649352
  81.4550012  72.7664997  12.8579988  81.0300012  73.5754997  12.5749988
  82.3590012  72.8514997  12.5559988  81.5190271  72.8888469  12.7783776
  85.7660012  74.1654997  15.8169988  85.9510012  73.8314997  16.6949988
  86.6120012  74.4744997  15.4949988  85.9057539  74.1616047  15.8935605
  88.1110012  75.4514997  15.0609988  88.7880012  74.8184997  14.8209988
  88.4330012  75.8524997  15.8679988  88.2471637  75.4191154  15.1372793
  93.0280012  58.0404997  14.1409988  92.2160012  58.3654997  13.7529988
  93.2610012  57.2804997  13.6079988  92.9483423  57.9822436  14.0158253
  78.8570012  76.0224997  12.9049988  78.1360012  76.4624997  12.4539988
  78.4910012  75.7714997  13.7539988  78.7089804  76.0487698  12.9579840
  81.3240012  75.6224997  11.9349988  80.4590012  75.6944997  12.3389988
  81.2690012  76.1694997  11.1509988  81.1982085  75.7062685  11.8843362
  86.0340012  75.5104997  11.1099988  85.5780012  76.0394997  10.4559988
  86.1970012  76.1134997  11.8359988  85.9935585  75.6644468  11.1185062
  88.3620012  74.3884997  12.0549988  87.4570012  74.5534997  11.7899988
  88.7910012  75.2414997  11.9899988  88.2960799  74.5264483  12.0099182
  90.9660012  75.9584997  12.3499988  90.7840012  76.8744997  12.1399988
  91.1430012  75.5484997  11.5039988  90.9650210  76.0284822  12.2067885
  78.2710012  74.6454997   9.8149988  78.2530012  74.2204997  10.6729988
  79.0760012  74.3274997   9.4069988  78.3773875  74.5443812   9.8771655
  80.4130012  73.3554997   8.4699988  80.1940012  72.4394997   8.6399988
  81.2370012  73.4954997   8.9359988  80.4944420  73.2490520   8.5562774
  82.9500012  73.8254997   9.3189988  83.1630012  72.9374997   9.0319988
  83.0140012  73.7914997  10.2729988  82.9878231  73.6993102   9.4087397
  86.4580012  59.4894997   8.4629988  85.7840012  58.8604997   8.7189988
  87.0220012  59.0054997   7.8599988  86.4419230  59.3378744   8.4165340
  91.6010012  57.5974997   8.5759988  92.2050012  58.1444997   8.0739988
  90.7310012  57.9164997   8.3359988  91.5661241  57.7155806   8.4747654
  93.3280012  58.7354997   6.9089988  93.9400012  58.2214997   6.3829988
  93.7100012  59.6134997   6.9329988  93.4634540  58.7837140   6.8401830
  78.7850012  58.1234997   6.2849988  78.0080012  57.8894997   5.7779988
  79.3150012  57.3264997   6.2939988  78.7502330  57.9836988   6.2167742
  77.6210012  57.9214997   2.0889988  78.0600012  58.5324997   1.4969988
  76.9880012  58.4594997   2.5629988  77.5954514  58.0779257   2.0720930
  83.3640012  58.0504997   6.0989988  84.2390012  58.4384997   6.0689988
  83.2280012  57.8354997   7.0209988  83.4653695  58.0745184   6.2196440
  88.9210012  58.0804997   7.7479988  88.9970012  58.1754997   6.7979988
  88.6460012  57.1724997   7.8769988  88.8942321  57.9707867   7.6355079
  90.2740012  58.1064997   3.4399988  89.5720012  58.7214997   3.2309988
  89.8300012  57.2684997   3.5709988  90.1176330  58.0775783   3.4290328
  77.5220012  73.8694997   2.9869988  76.8370012  73.8314997   2.3189988
  77.5260012  74.7824997   3.2749988  77.4288193  73.9877016   2.9345284
  79.4820012  59.8374997   0.5309988  79.9740012  59.2074997   0.0039988
  80.1060012  60.1334997   1.1949988  79.6335446  59.7913199   0.5485980
  84.5080012  60.1304997   2.9879988  84.6860012  59.4844997   3.6709988
  84.4550012  60.9644997   3.4559988  84.5251829  60.1547985   3.1445940
  86.3870012  75.0794997   1.3839988  87.2530012  75.4454997   1.2059988
  86.1400012  74.6394997   0.5699988  86.4722392  75.0701756   1.2496289
  93.0960012  74.6424997   4.0629988  92.9010012  73.8944997   3.4979988
  93.0570012  75.4004997   3.4799988  93.0640380  74.6426099   3.9068384
  78.7430012  58.6374997  15.8029988  78.3770012  57.8724997  16.2459988
  79.6560012  58.6664997  16.0899988  78.8162790  58.5367224  15.9024070
  80.7160012  57.9884997  17.3389988  81.6140012  57.7144997  17.1539988
  80.3290012  57.2454997  17.8029988  80.7866612  57.8505914  17.3763643
  79.3400012  74.7894997   0.0119988  79.0730012  75.0764997   0.8849988
  80.1120012  74.2434997   0.1639988  79.4077488  74.7550294   0.1521050
  89.1370012  57.3204997  17.5209988  89.2140012  56.8944997  18.3749988
  90.0310012  57.3344997  17.1779988  89.2683428  57.2640879  17.5915310
  92.3130012  73.3934997  16.2129988  91.5310012  73.2074997  15.6939988
  92.2410012  74.3224997  16.4309988  92.1961777  73.4936492  16.1714048
 106.7190012  67.2794997   6.2439988 106.8080012  68.2234997   6.1119988
 106.0810012  67.0044997   5.5859988 106.6449081  67.3714830   6.1369614
 105.6520012  66.5344997   9.6629988 105.6140012  65.8884997  10.3679988
 105.3300012  66.0684997   8.8919988 105.6032333  66.3829408   9.6552978
  98.0210012  66.1494997  11.2559988  98.0620012  65.5234997  11.9789988
  98.7240012  66.7734997  11.4379988  98.1216363  66.1481196  11.3796044
 109.3580012  69.4734997   7.9639988 108.9180012  68.7534997   8.4149988
 109.3450012  70.1944997   8.5939988 109.2960226  69.4723731   8.1108494
  98.9440012  70.5994997   9.7909988  98.5750012  69.7974997   9.4209988
  99.8850012  70.4304997   9.8369988  99.0207289  70.4670153   9.7466316
  95.5540012  64.2594997   5.1839988  95.1070012  65.1054997   5.1649988
  94.9930012  63.6794997   4.6679988  95.4169900  64.2969916   5.1116801
  96.2650012  66.4214997   7.3099988  96.4780012  65.6514997   7.8369988
  97.0030012  66.5104997   6.7059988  96.3938496  66.3281394   7.3005300
 106.4700012  74.5784997   8.1769988 107.0900012  73.9014997   7.9029988
 106.2620012  74.3604997   9.0849988 106.5266904  74.4563870   8.2623365
 104.0420012  68.9674997  10.0689988 104.3460012  68.2814997   9.4739988
 104.7630012  69.0854997  10.6869988 104.1810671  68.8896305  10.0711816
 112.7050012  60.5684997  10.9299988 112.7540012  61.1784997  11.6659988
 113.1300012  61.0294997  10.2069988 112.7691824  60.7143741  10.9330205
 107.1830012  63.3614997  10.3969988 107.3250012  62.4154997  10.4169988
 107.0760012  63.5684997   9.4679988 107.1879864  63.2599534  10.2742339
 100.3370012  61.4624997   7.6689988 100.3810012  62.3224997   7.2509988
  99.8800012  60.9104997   7.0349988 100.2812185  61.5055799   7.5260299
 108.0600012  61.5934997   6.0699988 108.7060012  61.2644997   6.6949988
 108.5700012  62.1114997   5.4469988 108.2174264  61.6184611   6.0713862
  96.9580012  63.8594997   8.4309988  97.6110012  63.3094997   8.8629988
  96.9820012  63.5854997   7.5139988  97.0506683  63.7471466   8.3662123
 102.1140012  65.4094997   7.6459988 102.7300012  64.8834997   8.1559988
 101.5280012  64.7694997   7.2429988 102.1190810  65.2509208   7.6613173
 113.0960012  62.0464997  13.1659988 112.4080012  62.7044997  13.0699988
 113.1120012  61.8494997  14.1019988 113.0038525  62.1100462  13.2794808
  99.1480012  60.3804997  11.7429988  98.9290012  60.9104997  10.9769988
  98.4800012  60.6074997  12.3899988  99.0277600  60.4836906  11.7256379
 106.5170012  69.8804997   5.2869988 106.2210012  69.5584997   4.4359988
 106.1920012  70.7804997   5.3279988 106.4326371  69.9580215   5.1761801
 101.7170012  68.0564997  12.0299988 100.9770012  68.6544997  12.1339988
 102.4310012  68.6104997  11.7149988 101.7122237  68.2132831  12.0016465
 109.8240012  60.8844997   8.0499988 109.6080012  60.1184997   8.5829988
 110.4790012  61.3564997   8.5629988 109.8830632  60.8435889   8.1922861
  98.7410012  62.2724997   9.6949988  99.3550012  62.9054997  10.0689988
  99.2530012  61.8004997   9.0389988  98.8942296  62.2952370   9.6574252
 100.1240012  70.0204997  12.8179988 100.1190012  70.9004997  12.4399988
  99.2710012  69.9374997  13.2429988 100.0079464  70.1296117  12.8237907
  96.2450012  69.6914997   3.5999988  95.9730012  69.9204997   2.7109988
  96.2910012  70.5294997   4.0599988  96.2140094  69.8361213   3.5405697
 109.8700012  71.3134997  10.3119988 108.9290012  71.3714997  10.4739988
 110.1470012  72.2194997  10.1749988 109.7784679  71.4439443  10.3156815
 110.1710012  59.5994997  11.7299988 109.4350012  60.2104997  11.6919988
 110.8540012  60.0144997  11.2029988 110.1626541  59.7391374  11.6535832
 103.1740012  57.6864997   9.1959988 103.0570012  56.7374997   9.1409988
 102.3190012  58.0184997   9.4689988 103.0423733  57.6015409   9.2253897
 108.1220012  73.0944997   6.9379988 108.5480012  72.3874997   6.4529988
 108.4390012  73.8954997   6.5209988 108.2231019  73.1060994   6.8153130
 109.2820012  70.9954997   5.4459988 109.0240012  70.3054997   4.8349988
 109.3530012  70.5524997   6.2919988 109.2562856  70.8412124   5.4766885
 110.9680012  69.5614997  13.9239988 111.1080012  68.9704997  13.1839988
 111.1350012  70.4344997  13.5669988 111.0096778  69.5986426  13.7746965
 105.4410012  66.5234997   3.6959988 104.7290012  67.0584997   3.3439988
 106.1320012  66.5794997   3.0359988 105.4370132  66.6042543   3.5586289
 105.4940012  64.9814997   0.7349988 106.1950012  65.0034997   1.3859988
 105.7970012  64.3534997   0.0789988 105.6307830  64.8996566   0.7353711
 112.8100012  65.9014997  11.9899988 112.1570012  66.5964997  12.0789988
 113.2750012  66.1114997  11.1799988 112.7835390  66.0249425  11.8926883
 108.8460012  66.7334997   4.6479988 108.1140012  66.9614997   5.2209988
 109.2940012  66.0194997   5.1029988 108.8063095  66.6682571   4.7879119
 108.7440012  64.9074997  13.7149988 108.8240012  65.6704997  14.2869988
 108.1420012  65.1864997  13.0249988 108.6735756  65.0497134  13.7000589
 100.4920012  67.3634997   6.5299988 100.1610012  66.9934997   5.7119988
 101.0800012  66.6934997   6.8769988 100.5261873  67.2221156   6.4648102
 101.8580012  70.7914997   9.2119988 101.7640012  70.2134997   8.4549988
 102.5880012  70.4204997   9.7079988 101.9437981  70.6622390   9.1754165
 100.8580012  66.1324997  10.1639988 101.4240012  66.2534997   9.4009988
 101.1770012  66.7694997  10.8029988 100.9785786  66.2351884  10.1460040
 107.1670012  71.6354997  10.8979988 106.9270012  72.2974997  11.5459988
 106.9690012  70.8014997  11.3229988 107.1073808  71.6133134  11.0441524
 101.7380012  70.5314997  14.8809988 101.4270012  71.3134997  15.3359988
 101.0880012  70.3784997  14.1949988 101.6075558  70.6179105  14.8505871
 107.7170012  65.8954997   2.3329988 108.2970012  66.0454997   3.0799988
 108.1310012  66.3664997   1.6099988 107.8522830  65.9796841   2.3374134
  98.6580012  66.7294997  14.1099988  98.7290012  67.3804997  14.8079988
  97.7680012  66.8324997  13.7749988  98.5473117  66.8325936  14.1602700
 105.4440012  72.6324997   5.7679988 105.9180012  72.9274997   6.5459988
 104.8810012  73.3704997   5.5349988 105.4327653  72.7726932   5.8430136
  99.9780012  72.6034997  15.6439988  99.9850012  72.4674997  14.6969988
  99.0620012  72.4854997  15.8959988  99.8551714  72.5689430  15.5484666
 111.4160012  57.6454997   2.1459988 110.5160012  57.7844997   2.4409988
 111.6680012  58.4764997   1.7439988 111.3268702  57.7769074   2.1320205
  99.4820012  66.4334997   4.1199988  99.1900012  67.2014997   3.6289988
  98.8080012  65.7734997   3.9569988  99.3509081  66.4494406   4.0307340
 112.6050012  72.0114997   0.5219988 112.6790012  72.9504997   0.6929988
 113.5110012  71.7064997   0.4659988 112.7375100  72.0986722   0.5378119
  95.5750012  68.7964997  12.9349988  95.0740012  68.7684997  12.1199988
  95.5800012  67.8904997  13.2439988  95.5071526  68.6702278  12.8652872
  95.3250012  71.5764997   9.8189988  96.2710012  71.4324997   9.7999988
  95.2130012  72.3604997  10.3559988  95.4392727  71.6628046   9.8890072
 113.5230012  72.2424997  15.5009988 113.4740012  71.2874997  15.4639988
 112.6960012  72.5104997  15.9019988 113.4044940  72.1478998  15.5501375
 104.5020012  71.8164997  14.3769988 104.5890012  72.6424997  14.8519988
 103.6380012  71.4864997  14.6259988 104.3971964  71.8849878  14.4756549
 104.9160012  75.5884997   4.1829988 104.8410012  75.4674997   3.2369988
 104.9490012  76.5384997   4.3019988 104.9101848  75.7002500   4.0694834
  98.5690012  74.3774997   5.9639988  98.7220012  74.0294997   6.8429988
  97.7190012  74.0214997   5.7089988  98.4748962  74.2816650   6.0498340
 108.0180012  74.7424997   1.1849988 108.3930012  73.9984997   0.7149988
 108.0220012  74.4724997   2.1039988 108.0698915  74.6041486   1.2447824
 107.6870012  74.6684997   3.9349988 106.7510012  74.7684997   4.1129988
 107.9670012  73.9594997   4.5129988 107.5968255  74.5862711   4.0375391
 110.6750012  63.7354997  15.9809988 110.2680012  64.2164997  15.2599988
 110.7160012  62.8304997  15.6729988 110.6248437  63.6789374  15.8406683
  97.8240012  70.1194997  13.9779988  98.0400012  69.7584997  14.8369988
  96.9690012  69.7454997  13.7679988  97.7379292  70.0194111  14.0673386
 100.4430012  58.5894997   9.9729988  99.5810012  58.5024997   9.5659988
 100.4200012  59.4454997  10.4009988 100.3220330  58.6932765   9.9751863
 105.1060012  58.3114997  13.3479988 105.5260012  57.8964997  14.1009988
 104.1730012  58.1334997  13.4649988 105.0373644  58.2305900  13.4669539
 108.4320012  62.0674997  14.2009988 107.9180012  61.9414997  14.9989988
 108.2770012  62.9794997  13.9569988 108.3406852  62.1736132  14.2772158
 109.1950012  66.9284997  -0.0370012 109.2370012  66.7054997  -0.9670012
 110.0440012  67.3274997   0.1529988 109.3155396  66.9519155  -0.1386373
 104.7670012  60.8044997   0.6329988 104.5140012  60.8234997   1.5559988
 104.5110012  59.9324997   0.3319988 104.6977790  60.6892437   0.7186263
 100.5340012  63.5554997  11.0679988  99.8920012  63.5144997  11.7769988
 100.5710012  64.4814997  10.8309988 100.4511324  63.6751559  11.1329824
 100.5310012  63.7764997   5.9799988  99.6380012  63.4354997   5.9219988
 100.9810012  63.3994997   5.2249988 100.4697305  63.6788484   5.8699177
 106.0660012  64.1924997   4.7969988 105.6570012  65.0074997   4.5059988
 106.7870012  64.0524997   4.1829988 106.1074537  64.2852018   4.6741342
 105.1680012  64.3674997  16.2849988 104.6060012  63.6634997  16.6059988
 105.9950012  64.2474997  16.7529988 105.2027095  64.2547883  16.3922330
 107.0710012  63.6384997   7.6109988 106.8760012  64.2434997   6.8959988
 107.2520012  62.8044997   7.1769988 107.0687614  63.6086300   7.4544405
  98.2840012  63.8754997  12.9349988  98.2460012  64.2754997  13.8039988
  97.7930012  63.0584997  13.0259988  98.2124684  63.8198069  13.0661059
 101.6500012  61.2494997  -0.2660012 101.2190012  60.8044997   0.4639988
 100.9320012  61.6214997  -0.7780012 101.4939438  61.2388940  -0.2353201
  94.8920012  60.9914997   6.7859988  95.5230012  60.9624997   7.5049988
  95.3410012  60.5664997   6.0559988  95.0390774  60.9300492   6.7856553
  96.1660012  61.7374997   2.2099988  96.6400012  62.3284997   1.6249988
  95.4490012  62.2684997   2.5569988  96.1339341  61.8900867   2.1768836
 106.3350012  65.2764997  12.2829988 106.6580012  64.6454997  11.6399988
 105.8950012  64.7414997  12.9429988 106.3196895  65.1178441  12.2842850
 103.1120012  61.2034997   7.0669988 102.2010012  61.2604997   7.3549988
 103.6180012  61.1434997   7.8769988 103.0555413  61.2031985   7.2160622
  97.9410012  62.8324997   5.8929988  97.0510012  62.9324997   5.5529988
  98.2370012  61.9904997   5.5469988  97.8592823  62.7323545   5.7997213
 101.5940012  62.8324997   3.5499988 102.5250012  62.9614997   3.7279988
 101.3790012  63.5024997   2.8999988 101.6924247  62.9406565   3.4865747
 107.5170012  60.4384997  10.3309988 106.8410012  60.5694997  10.9949988
 107.0320012  60.2834997   9.5209988 107.3587145  60.4354905  10.3124517
 100.2680012  64.0274997   1.1169988  99.7250012  63.6474997   0.4249988
 101.1010012  64.2214997   0.6879988 100.3064399  64.0018124   0.9644526
 110.8050012  76.1104997  16.6079988 111.0050012  76.5344997  15.7729988
 111.4600012  76.4534997  17.2149988 110.9210051  76.2149648  16.5757836
  98.4030012  68.5844997  16.2159988  99.1350012  68.8384997  16.7769988
  97.6230012  68.7884997  16.7309988  98.3978232  68.6469177  16.3625760
 104.4320012  63.9914997   8.9539988 104.9970012  63.4444997   8.4069988
 104.2850012  63.4694997   9.7419988 104.4892918  63.8462024   8.9858454
  99.4340012  60.1274997   5.3719988  99.1170012  59.2254997   5.3369988
 100.2160012  60.1294997   4.8189988  99.4962284  60.0041628   5.2924783
 103.0590012  62.3794997  11.3679988 102.2230012  62.8334997  11.4779988
 103.5830012  62.6554997  12.1199988 103.0154414  62.4789376  11.4847136
 103.6030012  68.5924997   3.0519988 102.8580012  68.0854997   2.7299988
 103.4690012  68.6414997   3.9989988 103.4828776  68.5296940   3.1358647
 110.7530012  67.7254997  11.8389988 111.3950012  68.1824997  11.2949988
 109.9230012  67.8384997  11.3759988 110.7285963  67.8032704  11.7020177
 107.5010012  61.4064997   1.2519988 106.5620012  61.5184997   1.0999988
 107.7980012  62.2634997   1.5579988 107.4127666  61.5376443   1.2725768
 105.1220012  68.7764997  14.2889988 104.7770012  68.3954997  15.0959988
 104.9220012  69.7104997  14.3609988 105.0478061  68.8505228  14.4090961
 108.2190012  63.2734997   2.9119988 109.1110012  63.1364997   3.2309988
 108.2760012  64.0644997   2.3759988 108.3486285  63.3616660   2.8831690
  98.7280012  67.8874997   8.8219988  99.4730012  67.8854997   8.2209988
  98.8060012  67.0644997   9.3039988  98.8405518  67.7759315   8.8048929
 105.7290012  70.0514997   2.0779988 105.4330012  70.8774997   2.4589988
 105.0260012  69.4314997   2.2739988 105.5934914  70.0808199   2.1566443
  95.7360012  66.3484997  14.1369988  95.9590012  65.9304997  14.9689988
  95.1340012  65.7354997  13.7139988  95.6851759  66.2084668  14.1937022
 102.7520012  65.8654997  16.3499988 102.4560012  65.6994997  15.4549988
 103.6840012  65.6454997  16.3389988 102.8374166  65.8130640  16.2260536
 107.3730012  71.2384997  14.2399988 106.4720012  71.4214997  13.9719988
 107.4070012  71.4974997  15.1609988 107.2543041  71.2985512  14.3278197
 113.1040012  63.4834997   2.6069988 112.5500012  63.0874997   1.9349988
 113.2040012  64.3934997   2.3289988 113.0417059  63.5523586   2.4774401
 113.0670012  69.2834997  15.4439988 112.2160012  69.5214997  15.0769988
 113.6580012  69.2664997  14.6909988 113.0302487  69.3138258  15.2918893
 111.3990012  72.2694997   3.0719988 111.0260012  71.4434997   3.3809988
 111.6770012  72.0864997   2.1749988 111.3855630  72.1317303   2.9929626
 108.5600012  67.0774997  10.0929988 107.6310012  66.8454997  10.0659988
 109.0110012  66.3004997   9.7629988 108.4939216  66.9407238  10.0446917
 101.1030012  71.4054997   6.2259988 101.6300012  72.1784997   6.0259988
 100.2230012  71.6304997   5.9249988 101.0561773  71.5418005   6.1579010
  96.8580012  66.2674997   0.8129988  97.4740012  66.8944997   1.1929988
  95.9960012  66.5834997   1.0849988  96.8257698  66.3959430   0.9017183
 102.5300012  69.0684997   5.8029988 102.2890012  69.9934997   5.8439988
 101.7890012  68.6094997   6.1989988 102.3968409  69.1331421   5.8621377
 103.0450012  73.2174997  12.1179988 103.4070012  74.0724997  11.8839988
 103.5760012  72.9254997  12.8579988 103.1664473  73.2951060  12.1860855
 101.2130012  74.0904997   5.3479988 100.2630012  74.1954997   5.3989988
 101.5650012  74.9104997   5.6929988 101.1304203  74.2158314   5.4016650
 106.5890012  69.3164997  11.8179988 106.1630012  69.0894997  12.6449988
 107.1690012  68.5784997  11.6359988 106.6091868  69.1855299  11.9065830
 108.7920012  70.2454997   0.8919988 109.1450012  69.8654997   1.6969988
 107.8430012  70.1524997   0.9789988 108.7120441  70.1809596   1.0138559
 109.2470012  73.8684997  14.2879988 108.6460012  73.3134997  13.7919988
 109.5290012  74.5354997  13.6619988 109.2028519  73.8826841  14.1354952
 113.2950012  74.7254997   1.0929988 114.0390012  75.3114997   0.9529988
 112.6010012  75.2934997   1.4269988 113.3030292  74.8825582   1.1189961
  97.3700012  61.1014997  13.6949988  96.4770012  61.4404997  13.6269988
  97.2710012  60.2464997  14.1129988  97.2344164  61.0322588  13.7422235
 109.6580012  68.9184997   3.1189988 109.3800012  68.1904997   3.6749988
 110.5850012  69.0374997   3.3239988 109.7453124  68.8348802   3.2228845
  97.0210012  72.9064997  12.1299988  97.2380012  71.9744997  12.0989988
  97.2670012  73.1804997  13.0129988  97.0839549  72.8160636  12.2451763
 102.8830012  71.3574997  -0.6610012 103.1220012  70.6094997  -1.2080012
 102.6140012  70.9694997   0.1719988 102.8793675  71.2026638  -0.6233135
 101.8200012  70.9274997   1.7959988 101.9660012  70.4074997   2.5859988
 101.8170012  71.8344997   2.1019988 101.8395989  70.9788853   1.9456088
  98.2730012  68.1804997   2.3059988  97.5870012  68.5324997   2.8729988
  98.7950012  68.9434997   2.0589988  98.2496852  68.3318578   2.3502118
 106.1040012  60.8424997  12.5849988 106.8030012  60.9164997  13.2349988
 105.7230012  59.9784997  12.7389988 106.1481767  60.7357624  12.6948322
 106.8890012  60.4944997   3.6819988 107.1090012  60.9664997   2.8789988
 107.4470012  60.8894997   4.3519988 106.9944968  60.6124285   3.6627331
 104.5570012  72.6254997   2.5449988 103.7410012  73.1224997   2.5969988
 105.0870012  73.1004997   1.9049988 104.5169161  72.7577722   2.4655956
 104.0890012  62.2224997   4.5169988 104.9010012  62.7274997   4.5629988
 103.8440012  62.0774997   5.4309988 104.1670520  62.2720375   4.6468517
 104.6240012  63.2084997  13.7019988 104.7430012  63.7824997  14.4589988
 105.2800012  62.5204997  13.8159988 104.7289757  63.1941079  13.8210825
 104.9720012  59.3034997   5.4549988 104.6260012  59.9214997   6.0999988
 105.6310012  59.8044997   4.9739988 105.0137826  59.4555802   5.4780971
 101.8960012  73.6694997   2.5269988 102.0560012  74.4684997   2.0259988
 101.6980012  73.9754997   3.4119988 101.8911649  73.8204469   2.5779815
 100.6300012  60.3664997   2.1419988 100.5470012  61.2554997   2.4889988
 101.5200012  60.1014997   2.3739988 100.7389469  60.4521430   2.2207626
 110.8290012  61.1154997  14.5369988 109.9120012  61.3784997  14.4489988
 111.1640012  61.1124997  13.6399988 110.7489900  61.1510224  14.4037919
 109.4310012  64.8664997   8.6319988 108.6330012  64.4514997   8.3039988
 109.8760012  64.1754997   9.1229988 109.3819885  64.7163543   8.6534889
  98.8890012  70.7944997   1.2029988  99.4810012  71.4934997   1.4789988
  99.3480012  70.3614997   0.4829988  99.0321142  70.8317049   1.1434830
  97.2050012  63.4584997   0.3189988  97.1600012  64.3974997   0.4969988
  96.3170012  63.2224997   0.0489988  97.0788574  63.5551892   0.3068912
 110.5170012  74.1224997  10.2549988 110.3620012  74.8004997   9.5979988
 111.4500012  74.1944997  10.4579988 110.6218500  74.2250170  10.1925119
  98.0130012  58.2404997   8.9919988  97.7840012  58.2994997   8.0639988
  97.5700012  57.4484997   9.2979988  97.9218530  58.1415753   8.9064786
  96.9430012  72.1804997   5.1519988  96.1110012  72.6534997   5.1799988
  97.4890012  72.6904997   4.5539988  96.9029739  72.3141871   5.0749716
  96.2310012  74.7934997  16.4819988  96.7720012  74.5764997  17.2419988
  95.7500012  73.9874997  16.2929988  96.2399345  74.6549514  16.5603076
 100.8290012  73.7124997  18.1029988 101.5960012  73.2534997  18.4439988
 100.8070012  73.4864997  17.1729988 100.9311434  73.6190409  18.0240043
 104.9210012  73.2204997  -0.5220012 104.2770012  72.5894997  -0.2010012
 105.6830012  72.6894997  -0.7540012 104.9358077  73.0622920  -0.5093989
 107.4060012  72.0924997  16.8319988 107.0550012  71.2364997  17.0749988
 108.1320012  72.2354997  17.4389988 107.4560769  71.9945636  16.9473619
 109.5250012  73.0374997  -0.2880012 109.8080012  72.2434997   0.1639988
 110.2650012  73.2704997  -0.8490012 109.6637486  72.9602803  -0.3019302
  96.1380012  68.6034997  17.4369988  96.2820012  67.7014997  17.1499988
  95.3660012  68.8894997  16.9489988  96.0533322  68.5188261  17.3317881
 100.4800012  68.9474997  -0.4310012 100.5440012  68.1534997   0.0999988
 101.1330012  68.8284997  -1.1210012 100.5770241  68.8227148  -0.4515683
 102.7940012  68.5734997  16.8689988 102.4650012  68.8444997  16.0119988
 102.9460012  67.6324997  16.7819988 102.7694809  68.4833862  16.7398244
 105.8320012  69.9944997  -0.6950012 105.5630012  70.1744997   0.2059988
 105.6260012  69.0684997  -0.8260012 105.7673825  69.8940152  -0.5894786
 108.5280012  68.4894997  14.2529988 109.2740012  69.0774997  14.1329988
 107.7710012  69.0714997  14.3159988 108.5277554  68.6487011  14.2450907
  96.9710012  65.8034997  16.8569988  97.3790012  64.9464997  16.7359988
  96.7110012  65.8184997  17.7779988  96.9917568  65.6880807  16.9649588
 101.6290012  66.9194997   1.8749988 101.1690012  66.4354997   2.5609988
 101.8840012  66.2514997   1.2389988 101.6004902  66.7628731   1.8829334
 100.9180012  64.8124997  14.2309988 100.3000012  65.4874997  14.5109988
 101.2620012  65.1334997  13.3979988 100.8799615  64.9482721  14.1566581
 102.7000012  65.1624997   0.1369988 102.5200012  65.0084997  -0.7900012
 103.6500012  65.2704997   0.1819988 102.8037776  65.1560175   0.0161843
 105.9380012  67.2844997  17.5079988 106.8910012  67.3674997  17.4809988
 105.7770012  66.5724997  18.1279988 106.0466426  67.1996746  17.5880578
 112.0900012  67.5174997  -0.4170012 111.8160012  67.0924997  -1.2300012
 112.1290012  68.4484997  -0.6340012 112.0577699  67.5852484  -0.5576390
 101.2570012  62.1674997  15.3129988 101.4070012  61.4384997  14.7109988
 101.2600012  62.9444997  14.7539988 101.2779302  62.1727851  15.1550692
 101.6700012  60.5374997  12.8059988 102.2060012  60.9884997  12.1539988
 100.8180012  60.4294997  12.3829988 101.6282178  60.5846390  12.6595756
 103.2520012  65.9764997  13.0449988 104.0020012  65.8204997  12.4719988
 102.9130012  66.8284997  12.7699988 103.3088921  66.0702968  12.9293561
 107.6670012  63.7914997  18.0739988 107.8600012  62.8604997  17.9619988
 108.5250012  64.2164997  18.0639988 107.8093020  63.7216389  18.0573361
 108.9840012  66.5804997  16.1509988 108.7030012  67.2894997  15.5739988
 109.9270012  66.5074997  15.9999988 109.0729027  66.6677646  16.0515551
  99.7360012  63.3654997  17.2249988  98.9690012  62.8334997  17.0149988
 100.4150012  63.0554997  16.6249988  99.7227022  63.2507506  17.1151648
 102.4760012  57.9934997  13.2369988 102.3770012  58.9404997  13.1319988
 101.7330012  57.6214997  12.7619988 102.3620564  58.0725902  13.1584560
 103.7400012  62.3154997  16.8009988 103.5040012  62.0954997  17.7029988
 102.9560012  62.1084997  16.2909988 103.6018628  62.2574760  16.8553932
 106.4550012  61.4424997  15.8769988 105.5080012  61.4744997  16.0089988
 106.7680012  60.8174997  16.5299988 106.3675475  61.3623207  15.9834455
 108.0890012  60.0764997  17.8819988 107.9930012  59.1244997  17.8759988
 107.7680012  60.3454997  18.7419988 108.0324070  59.9824035  17.9975441
  97.9160012  61.2864997  16.9289988  98.1280012  60.5794997  16.3189988
  97.8050012  60.8484997  17.7729988  97.9299721  61.1307084  16.9596843
 102.6970012  57.2874997  15.9089988 103.4090012  56.6474997  15.8949988
 102.5960012  57.5544997  14.9949988 102.7807939  57.2359938  15.7835650
 103.0510012  58.9704997  17.9619988 102.9190012  58.4944997  17.1419988
 102.4520012  59.7144997  17.9069988 102.9519071  59.0059618  17.8422886
 102.5970012  75.8534997   1.1389988 103.5300012  76.0114997   1.2819988
 102.3330012  76.5284997   0.5139988 102.6889510  75.9663611   1.0740741
  96.1660012  70.4894997   0.6209988  97.0800012  70.5684997   0.8949988
  96.1730012  69.8024997  -0.0450012  96.2921131  70.4073961   0.5684393
  94.8150012  75.8824997   5.6989988  94.1680012  75.4204997   5.1659988
  95.1690012  75.2104997   6.2809988  94.7743849  75.7284723   5.7047959
  95.6850012  73.9634997   7.5029988  95.3500012  73.0834997   7.6749988
  95.9070012  74.3084997   8.3679988  95.6691783  73.8897500   7.6434208
 113.2330012  74.7724997  10.4839988 113.2120012  74.9574997  11.4229988
 113.9240012  75.3414997  10.1429988 113.3234618  74.8746606  10.5663864
 112.7970012  74.3404997  13.4059988 112.3090012  73.6044997  13.0349988
 113.3460012  73.9464997  14.0839988 112.8044872  74.1866249  13.4469160
 111.2470012  70.1294997  18.0439988 110.3810012  70.0244997  18.4379988
 111.6240012  70.8884997  18.4899988 111.1793308  70.2176900  18.1582393
 112.5480012  68.3864997   3.5579988 113.3980012  68.8074997   3.6849988
 112.5540012  67.6464997   4.1649988 112.6651372  68.3440803   3.6574344
 112.9430012  66.4394997   5.3819988 112.2160012  65.9604997   5.7789988
 113.5240012  66.6454997   6.1139988 112.9219375  66.4017090   5.5354129
 112.7020012  69.2244997  10.3289988 113.5350012  68.8464997  10.0489988
 112.8140012  70.1674997  10.2099988 112.8312647  69.3002218  10.2745487
 111.1880012  72.1024997  12.6359988 110.5410012  72.4274997  13.2619988
 110.6710012  71.6624997  11.9619988 111.0294029  72.0875004  12.6305827
 113.2110012  66.3404997   1.7729988 112.6890012  66.6974997   1.0539988
 113.1780012  67.0154997   2.4509988 113.1351634  66.4805413   1.7663145
 111.5600012  63.5804997   0.3239988 111.6560012  64.2474997  -0.3570012
 111.4200012  62.7644997  -0.1580012 111.5542135  63.5614500   0.1658491
 110.7290012  64.9604997   5.9449988 110.5790012  64.0154997   5.9239988
 110.3760012  65.2414997   6.7879988 110.6606625  64.8690441   6.0562346
  95.7650012  67.0384997   9.9549988  95.9490012  66.9564997   9.0189988
  96.6140012  66.9144997  10.3789988  95.9050139  67.0105003   9.8841455
 111.5860012  66.9304997  15.5829988 112.1690012  66.1964997  15.7749988
 112.1500012  67.7024997  15.6299988 111.7419769  66.9344227  15.6156159
 113.0820012  64.8334997  16.2679988 112.2190012  64.4544997  16.1019988
 113.6870012  64.0944997  16.1939988 113.0455979  64.6818023  16.2352817
 110.8070012  60.9884997  -0.5590012 111.4180012  60.6174997   0.0779988
 109.9710012  60.5674997  -0.3630012 110.7775032  60.8807554  -0.4452965
 110.4400012  62.5434997   4.4069988 110.7200012  61.6364997   4.5309988
 111.1990012  62.9774997   4.0179988 110.5809277  62.4780942   4.3713682
 111.0520012  63.1244997   9.8429988 111.9850012  63.3364997   9.8089988
 110.8170012  63.2264997  10.7649988 111.1478036  63.1672769   9.9629976
 111.0810012  63.8614997  12.6189988 110.2380012  64.1294997  12.9849988
 111.5230012  64.6834997  12.4079988 111.0254158  64.0093291  12.6405491
  95.3620012  62.3094997  16.0959988  96.2820012  62.1874997  16.3319988
  94.9130012  61.5594997  16.4849988  95.4271580  62.1913727  16.1809006
 113.3640012  57.8414997  17.9719988 113.7140012  57.1874997  17.3669988
 113.5110012  58.6784997  17.5329988 113.4318419  57.8651591  17.8297118
 111.0530012  59.8064997   4.4549988 111.2360012  59.3574997   5.2809988
 110.4540012  59.2214997   3.9919988 110.9970202  59.6659975   4.5053275
  96.5830012  60.6214997   8.9869988  97.0290012  59.8294997   9.2889988
  97.0500012  61.3374997   9.4179988  96.7070172  60.6100624   9.0864820
  94.8870012  63.6204997  10.0559988  95.3790012  63.3994997   9.2649988
  95.2500012  64.4614997  10.3369988  95.0033126  63.7038357   9.9857531
 112.8840012  59.9504997  16.3219988 111.9660012  60.2214997  16.2859988
 113.0070012  59.4154997  15.5369988 112.7751066  59.9152892  16.2110487
 112.9200012  59.8734997   0.9829988 113.3320012  59.1524997   0.5079988
 113.6020012  60.5434997   1.0419988 113.0685885  59.8652368   0.9258915
  95.2010012  59.8784997   4.1099988  94.2760012  60.0874997   3.9809988
  95.6550012  60.3624997   3.4209988  95.1357368  59.9725993   3.9991226
 109.9720012  74.8624997   6.0559988 110.6240012  74.5154997   5.4479988
 110.4820012  75.3514997   6.7019988 110.1302637  74.8810597   6.0600236
  95.1650012  58.6164997  12.4549988  94.5000012  58.3704997  13.0979988
  94.7220012  59.2384997  11.8769988  95.0140956  58.6668632  12.4649352
  97.3570012  71.7914997  16.5989988  96.5360012  71.9664997  16.1389988
  97.1040012  71.7184997  17.5199988  97.2106164  71.8055622  16.6604923
 100.3110012  72.7664997  12.8579988  99.8860012  73.5754997  12.5749988
 101.2150012  72.8514997  12.5559988 100.3750271  72.8888469  12.7783776
 104.6220012  74.1654997  15.8169988 104.8070012  73.8314997  16.6949988
 105.4680012  74.4744997  15.4949988 104.7617539  74.1616047  15.8935605
 106.9670012  75.4514997  15.0609988 107.6440012  74.8184997  14.8209988
 107.2890012  75.8524997  15.8679988 107.1031637  75.4191154  15.1372793
 111.8840012  58.0404997  14.1409988 111.0720012  58.3654997  13.7529988
 112.1170012  57.2804997  13.6079988 111.8043423  57.9822436  14.0158253
  97.7130012  76.0224997  12.9049988  96.9920012  76.4624997  12.4539988
  97.3470012  75.7714997  13.7539988  97.5649804  76.0487698  12.9579840
 100.1800012  75.6224997  11.9349988  99.3150012  75.6944997  12.3389988
 100.1250012  76.1694997  11.1509988 100.0542085  75.7062685  11.8843362
 104.8900012  75.5104997  11.1099988 104.4340012  76.0394997  10.4559988
 105.0530012  76.1134997  11.8359988 104.8495585  75.6644468  11.1185062
 107.2180012  74.3884997  12.0549988 106.3130012  74.5534997  11.7899988
 107.6470012  75.2414997  11.9899988 107.1520799  74.5264483  12.0099182
 109.8220012  75.9584997  12.3499988 109.6400012  76.8744997  12.1399988
 109.9990012  75.5484997  11.5039988 109.8210210  76.0284822  12.2067885
  97.1270012  74.6454997   9.8149988  97.1090012  74.2204997  10.6729988
  97.9320012  74.3274997   9.4069988  97.2333875  74.5443812   9.8771655
  99.2690012  73.3554997   8.4699988  99.0500012  72.4394997   8.6399988
 100.0930012  73.4954997   8.9359988  99.3504420  73.2490520   8.5562774
 101.8060012  73.8254997   9.3189988 102.0190012  72.9374997   9.0319988
 101.8700012  73.7914997  10.2729988 101.8438231  73.6993102   9.4087397
 105.3140012  59.4894997   8.4629988 104.6400012  58.8604997   8.7189988
 105.8780012  59.0054997   7.8599988 105.2979230  59.3378744   8.4165340
 110.4570012  57.5974997   8.5759988 111.0610012  58.1444997   8.0739988
 109.5870012  57.9164997   8.3359988 110.4221241  57.7155806   8.4747654
 112.1840012  58.7354997   6.9089988 112.7960012  58.2214997   6.3829988
 112.5660012  59.6134997   6.9329988 112.3194540  58.7837140   6.8401830
  97.6410012  58.1234997   6.2849988  96.8640012  57.8894997   5.7779988
  98.1710012  57.3264997   6.2939988  97.6062330  57.9836988   6.2167742
  96.4770012  57.9214997   2.0889988  96.9160012  58.5324997   1.4969988
  95.8440012  58.4594997   2.5629988  96.4514514  58.0779257   2.0720930
 102.2200012  58.0504997   6.0989988 103.0950012  58.4384997   6.0689988
 102.0840012  57.8354997   7.0209988 102.3213695  58.0745184   6.2196440
 107.7770012  58.0804997   7.7479988 107.8530012  58.1754997   6.7979988
 107.5020012  57.1724997   7.8769988 107.7502321  57.9707867   7.6355079
 109.1300012  58.1064997   3.4399988 108.4280012  58.7214997   3.2309988
 108.6860012  57.2684997   3.5709988 108.9736330  58.0775783   3.4290328
  96.3780012  73.8694997   2.9869988  95.6930012  73.8314997   2.3189988
  96.3820012  74.7824997   3.2749988  96.2848193  73.9877016   2.9345284
  98.3380012  59.8374997   0.5309988  98.8300012  59.2074997   0.0039988
  98.9620012  60.1334997   1.1949988  98.4895446  59.7913199   0.5485980
 103.3640012  60.1304997   2.9879988 103.5420012  59.4844997   3.6709988
 103.3110012  60.9644997   3.4559988 103.3811829  60.1547985   3.1445940
 105.2430012  75.0794997   1.3839988 106.1090012  75.4454997   1.2059988
 104.9960012  74.6394997   0.5699988 105.3282392  75.0701756   1.2496289
 111.9520012  74.6424997   4.0629988 111.7570012  73.8944997   3.4979988
 111.9130012  75.4004997   3.4799988 111.9200380  74.6426099   3.9068384
  97.5990012  58.6374997  15.8029988  97.2330012  57.8724997  16.2459988
  98.5120012  58.6664997  16.0899988  97.6722790  58.5367224  15.9024070
  99.5720012  57.9884997  17.3389988 100.4700012  57.7144997  17.1539988
  99.1850012  57.2454997  17.8029988  99.6426612  57.8505914  17.3763643
  98.1960012  74.7894997   0.0119988  97.9290012  75.0764997   0.8849988
  98.9680012  74.2434997   0.1639988  98.2637488  74.7550294   0.1521050
 107.9930012  57.3204997  17.5209988 108.0700012  56.8944997  18.3749988
 108.8870012  57.3344997  17.1779988 108.1243428  57.2640879  17.5915310
 111.1690012  73.3934997  16.2129988 110.3870012  73.2074997  15.6939988
 111.0970012  74.3224997  16.4309988 111.0521777  73.4936492  16.1714048
 125.5750012  67.2794997   6.2439988 125.6640012  68.2234997   6.1119988
 124.9370012  67.0044997   5.5859988 125.5009081  67.3714830   6.1369614
 124.5080012  66.5344997   9.6629988 124.4700012  65.8884997  10.3679988
 124.1860012  66.0684997   8.8919988 124.4592333  66.3829408   9.6552978
 116.8770012  66.1494997  11.2559988 116.9180012  65.5234997  11.9789988
 117.5800012  66.7734997  11.4379988 116.9776363  66.1481196  11.3796044
 128.2140012  69.4734997   7.9639988 127.7740012  68.7534997   8.4149988
 128.2010012  70.1944997   8.5939988 128.1520226  69.4723731   8.1108494
 117.8000012  70.5994997   9.7909988 117.4310012  69.7974997   9.4209988
 118.7410012  70.4304997   9.8369988 117.8767289  70.4670153   9.7466316
 114.4100012  64.2594997   5.1839988 113.9630012  65.1054997   5.1649988
 113.8490012  63.6794997   4.6679988 114.2729900  64.2969916   5.1116801
 115.1210012  66.4214997   7.3099988 115.3340012  65.6514997   7.8369988
 115.8590012  66.5104997   6.7059988 115.2498496  66.3281394   7.3005300
 125.3260012  74.5784997   8.1769988 125.9460012  73.9014997   7.9029988
 125.1180012  74.3604997   9.0849988 125.3826904  74.4563870   8.2623365
 122.8980012  68.9674997  10.0689988 123.2020012  68.2814997   9.4739988
 123.6190012  69.0854997  10.6869988 123.0370671  68.8896305  10.0711816
 131.5610012  60.5684997  10.9299988 131.6100012  61.1784997  11.6659988
 131.9860012  61.0294997  10.2069988 131.6251824  60.7143741  10.9330205
 126.0390012  63.3614997  10.3969988 126.1810012  62.4154997  10.4169988
 125.9320012  63.5684997   9.4679988 126.0439864  63.2599534  10.2742339
 119.1930012  61.4624997   7.6689988 119.2370012  62.3224997   7.2509988
 118.7360012  60.9104997   7.0349988 119.1372185  61.5055799   7.5260299
 126.9160012  61.5934997   6.0699988 127.5620012  61.2644997   6.6949988
 127.4260012  62.1114997   5.4469988 127.0734264  61.6184611   6.0713862
 115.8140012  63.8594997   8.4309988 116.4670012  63.3094997   8.8629988
 115.8380012  63.5854997   7.5139988 115.9066683  63.7471466   8.3662123
 120.9700012  65.4094997   7.6459988 121.5860012  64.8834997   8.1559988
 120.3840012  64.7694997   7.2429988 120.9750810  65.2509208   7.6613173
 131.9520012  62.0464997  13.1659988 131.2640012  62.7044997  13.0699988
 131.9680012  61.8494997  14.1019988 131.8598525  62.1100462  13.2794808
 118.0040012  60.3804997  11.7429988 117.7850012  60.9104997  10.9769988
 117.3360012  60.6074997  12.3899988 117.8837600  60.4836906  11.7256379
 125.3730012  69.8804997   5.2869988 125.0770012  69.5584997   4.4359988
 125.0480012  70.7804997   5.3279988 125.2886371  69.9580215   5.1761801
 120.5730012  68.0564997  12.0299988 119.8330012  68.6544997  12.1339988
 121.2870012  68.6104997  11.7149988 120.5682237  68.2132831  12.0016465
 128.6800012  60.8844997   8.0499988 128.4640012  60.1184997   8.5829988
 129.3350012  61.3564997   8.5629988 128.7390632  60.8435889   8.1922861
 117.5970012  62.2724997   9.6949988 118.2110012  62.9054997  10.0689988
 118.1090012  61.8004997   9.0389988 117.7502296  62.2952370   9.6574252
 118.9800012  70.0204997  12.8179988 118.9750012  70.9004997  12.4399988
 118.1270012  69.9374997  13.2429988 118.8639464  70.1296117  12.8237907
 115.1010012  69.6914997   3.5999988 114.8290012  69.9204997   2.7109988
 115.1470012  70.5294997   4.0599988 115.0700094  69.8361213   3.5405697
 128.7260012  71.3134997  10.3119988 127.7850012  71.3714997  10.4739988
 129.0030012  72.2194997  10.1749988 128.6344679  71.4439443  10.3156815
 129.0270012  59.5994997  11.7299988 128.2910012  60.2104997  11.6919988
 129.7100012  60.0144997  11.2029988 129.0186541  59.7391374  11.6535832
 122.0300012  57.6864997   9.1959988 121.9130012  56.7374997   9.1409988
 121.1750012  58.0184997   9.4689988 121.8983733  57.6015409   9.2253897
 126.9780012  73.0944997   6.9379988 127.4040012  72.3874997   6.4529988
 127.2950012  73.8954997   6.5209988 127.0791019  73.1060994   6.8153130
 128.1380012  70.9954997   5.4459988 127.8800012  70.3054997   4.8349988
 128.2090012  70.5524997   6.2919988 128.1122856  70.8412124   5.4766885
 129.8240012  69.5614997  13.9239988 129.9640012  68.9704997  13.1839988
 129.9910012  70.4344997  13.5669988 129.8656778  69.5986426  13.7746965
 124.2970012  66.5234997   3.6959988 123.5850012  67.0584997   3.3439988
 124.9880012  66.5794997   3.0359988 124.2930132  66.6042543   3.5586289
 124.3500012  64.9814997   0.7349988 125.0510012  65.0034997   1.3859988
 124.6530012  64.3534997   0.0789988 124.4867830  64.8996566   0.7353711
 131.6660012  65.9014997  11.9899988 131.0130012  66.5964997  12.0789988
 132.1310012  66.1114997  11.1799988 131.6395390  66.0249425  11.8926883
 127.7020012  66.7334997   4.6479988 126.9700012  66.9614997   5.2209988
 128.1500012  66.0194997   5.1029988 127.6623095  66.6682571   4.7879119
 127.6000012  64.9074997  13.7149988 127.6800012  65.6704997  14.2869988
 126.9980012  65.1864997  13.0249988 127.5295756  65.0497134  13.7000589
 119.3480012  67.3634997   6.5299988 119.0170012  66.9934997   5.7119988
 119.9360012  66.6934997   6.8769988 119.3821873  67.2221156   6.4648102
 120.7140012  70.7914997   9.2119988 120.6200012  70.2134997   8.4549988
 121.4440012  70.4204997   9.7079988 120.7997981  70.6622390   9.1754165
 119.7140012  66.1324997  10.1639988 120.2800012  66.2534997   9.4009988
 120.0330012  66.7694997  10.8029988 119.8345786  66.2351884  10.1460040
 126.0230012  71.6354997  10.8979988 125.7830012  72.2974997  11.5459988
 125.8250012  70.8014997  11.3229988 125.9633808  71.6133134  11.0441524
 120.5940012  70.5314997  14.8809988 120.2830012  71.3134997  15.3359988
 119.9440012  70.3784997  14.1949988 120.4635558  70.6179105  14.8505871
 126.5730012  65.8954997   2.3329988 127.1530012  66.0454997   3.0799988
 126.9870012  66.3664997   1.6099988 126.7082830  65.9796841   2.3374134
 117.5140012  66.7294997  14.1099988 117.5850012  67.3804997  14.8079988
 116.6240012  66.8324997  13.7749988 117.4033117  66.8325936  14.1602700
 124.3000012  72.6324997   5.7679988 124.7740012  72.9274997   6.5459988
 123.7370012  73.3704997   5.5349988 124.2887653  72.7726932   5.8430136
 118.8340012  72.6034997  15.6439988 118.8410012  72.4674997  14.6969988
 117.9180012  72.4854997  15.8959988 118.7111714  72.5689430  15.5484666
 130.2720012  57.6454997   2.1459988 129.3720012  57.7844997   2.4409988
 130.5240012  58.4764997   1.7439988 130.1828702  57.7769074   2.1320205
 118.3380012  66.4334997   4.1199988 118.0460012  67.2014997   3.6289988
 117.6640012  65.7734997   3.9569988 118.2069081  66.4494406   4.0307340
 131.4610012  72.0114997   0.5219988 131.5350012  72.9504997   0.6929988
 132.3670012  71.7064997   0.4659988 131.5935100  72.0986722   0.5378119
 114.4310012  68.7964997  12.9349988 113.9300012  68.7684997  12.1199988
 114.4360012  67.8904997  13.2439988 114.3631526  68.6702278  12.8652872
 114.1810012  71.5764997   9.8189988 115.1270012  71.4324997   9.7999988
 114.0690012  72.3604997  10.3559988 114.2952727  71.6628046   9.8890072
 132.3790012  72.2424997  15.5009988 132.3300012  71.2874997  15.4639988
 131.5520012  72.5104997  15.9019988 132.2604940  72.1478998  15.5501375
 123.3580012  71.8164997  14.3769988 123.4450012  72.6424997  14.8519988
 122.4940012  71.4864997  14.6259988 123.2531964  71.8849878  14.4756549
 123.7720012  75.5884997   4.1829988 123.6970012  75.4674997   3.2369988
 123.8050012  76.5384997   4.3019988 123.7661848  75.7002500   4.0694834
 117.4250012  74.3774997   5.9639988 117.5780012  74.0294997   6.8429988
 116.5750012  74.0214997   5.7089988 117.3308962  74.2816650   6.0498340
 126.8740012  74.7424997   1.1849988 127.2490012  73.9984997   0.7149988
 126.8780012  74.4724997   2.1039988 126.9258915  74.6041486   1.2447824
 126.5430012  74.6684997   3.9349988 125.6070012  74.7684997   4.1129988
 126.8230012  73.9594997   4.5129988 126.4528255  74.5862711   4.0375391
 129.5310012  63.7354997  15.9809988 129.1240012  64.2164997  15.2599988
 129.5720012  62.8304997  15.6729988 129.4808437  63.6789374  15.8406683
 116.6800012  70.1194997  13.9779988 116.8960012  69.7584997  14.8369988
 115.8250012  69.7454997  13.7679988 116.5939292  70.0194111  14.0673386
 119.2990012  58.5894997   9.9729988 118.4370012  58.5024997   9.5659988
 119.2760012  59.4454997  10.4009988 119.1780330  58.6932765   9.9751863
 123.9620012  58.3114997  13.3479988 124.3820012  57.8964997  14.1009988
 123.0290012  58.1334997  13.4649988 123.8933644  58.2305900  13.4669539
 127.2880012  62.0674997  14.2009988 126.7740012  61.9414997  14.9989988
 127.1330012  62.9794997  13.9569988 127.1966852  62.1736132  14.2772158
 128.0510012  66.9284997  -0.0370012 128.0930012  66.7054997  -0.9670012
 128.9000012  67.3274997   0.1529988 128.1715396  66.9519155  -0.1386373
 123.6230012  60.8044997   0.6329988 123.3700012  60.8234997   1.5559988
 123.3670012  59.9324997   0.3319988 123.5537790  60.6892437   0.7186263
 119.3900012  63.5554997  11.0679988 118.7480012  63.5144997  11.7769988
 119.4270012  64.4814997  10.8309988 119.3071324  63.6751559  11.1329824
 119.3870012  63.7764997   5.9799988 118.4940012  63.4354997   5.9219988
 119.8370012  63.3994997   5.2249988 119.3257305  63.6788484   5.8699177
 124.9220012  64.1924997   4.7969988 124.5130012  65.0074997   4.5059988
 125.6430012  64.0524997   4.1829988 124.9634537  64.2852018   4.6741342
 124.0240012  64.3674997  16.2849988 123.4620012  63.6634997  16.6059988
 124.8510012  64.2474997  16.7529988 124.0587095  64.2547883  16.3922330
 125.9270012  63.6384997   7.6109988 125.7320012  64.2434997   6.8959988
 126.1080012  62.8044997   7.1769988 125.9247614  63.6086300   7.4544405
 117.1400012  63.8754997  12.9349988 117.1020012  64.2754997  13.8039988
 116.6490012  63.0584997  13.0259988 117.0684684  63.8198069  13.0661059
 120.5060012  61.2494997  -0.2660012 120.0750012  60.8044997   0.4639988
 119.7880012  61.6214997  -0.7780012 120.3499438  61.2388940  -0.2353201
 113.7480012  60.9914997   6.7859988 114.3790012  60.9624997   7.5049988
 114.1970012  60.5664997   6.0559988 113.8950774  60.9300492   6.7856553
 115.0220012  61.7374997   2.2099988 115.4960012  62.3284997   1.6249988
 114.3050012  62.2684997   2.5569988 114.9899341  61.8900867   2.1768836
 125.1910012  65.2764997  12.2829988 125.5140012  64.6454997  11.6399988
 124.7510012  64.7414997  12.9429988 125.1756895  65.1178441  12.2842850
 121.9680012  61.2034997   7.0669988 121.0570012  61.2604997   7.3549988
 122.4740012  61.1434997   7.8769988 121.9115413  61.2031985   7.2160622
 116.7970012  62.8324997   5.8929988 115.9070012  62.9324997   5.5529988
 117.0930012  61.9904997   5.5469988 116.7152823  62.7323545   5.7997213
 120.4500012  62.8324997   3.5499988 121.3810012  62.9614997   3.7279988
 120.2350012  63.5024997   2.8999988 120.5484247  62.9406565   3.4865747
 126.3730012  60.4384997  10.3309988 125.6970012  60.5694997  10.9949988
 125.8880012  60.2834997   9.5209988 126.2147145  60.4354905  10.3124517
 119.1240012  64.0274997   1.1169988 118.5810012  63.6474997   0.4249988
 119.9570012  64.2214997   0.6879988 119.1624399  64.0018124   0.9644526
 129.6610012  76.1104997  16.6079988 129.8610012  76.5344997  15.7729988
 130.3160012  76.4534997  17.2149988 129.7770051  76.2149648  16.5757836
 117.2590012  68.5844997  16.2159988 117.9910012  68.8384997  16.7769988
 116.4790012  68.7884997  16.7309988 117.2538232  68.6469177  16.3625760
 123.2880012  63.9914997   8.9539988 123.8530012  63.4444997   8.4069988
 123.1410012  63.4694997   9.7419988 123.3452918  63.8462024   8.9858454
 118.2900012  60.1274997   5.3719988 117.9730012  59.2254997   5.3369988
 119.0720012  60.1294997   4.8189988 118.3522284  60.0041628   5.2924783
 121.9150012  62.3794997  11.3679988 121.0790012  62.8334997  11.4779988
 122.4390012  62.6554997  12.1199988 121.8714414  62.4789376  11.4847136
 122.4590012  68.5924997   3.0519988 121.7140012  68.0854997   2.7299988
 122.3250012  68.6414997   3.9989988 122.3388776  68.5296940   3.1358647
 129.6090012  67.7254997  11.8389988 130.2510012  68.1824997  11.2949988
 128.7790012  67.8384997  11.3759988 129.5845963  67.8032704  11.7020177
 126.3570012  61.4064997   1.2519988 125.4180012  61.5184997   1.0999988
 126.6540012  62.2634997   1.5579988 126.2687666  61.5376443   1.2725768
 123.9780012  68.7764997  14.2889988 123.6330012  68.3954997  15.0959988
 123.7780012  69.7104997  14.3609988 123.9038061  68.8505228  14.4090961
 127.0750012  63.2734997   2.9119988 127.9670012  63.1364997   3.2309988
 127.1320012  64.0644997   2.3759988 127.2046285  63.3616660   2.8831691
 117.5840012  67.8874997   8.8219988 118.3290012  67.8854997   8.2209988
 117.6620012  67.0644997   9.3039988 117.6965518  67.7759315   8.8048929
 124.5850012  70.0514997   2.0779988 124.2890012  70.8774997   2.4589988
 123.8820012  69.4314997   2.2739988 124.4494914  70.0808199   2.1566443
 114.5920012  66.3484997  14.1369988 114.8150012  65.9304997  14.9689988
 113.9900012  65.7354997  13.7139988 114.5411759  66.2084668  14.1937022
 121.6080012  65.8654997  16.3499988 121.3120012  65.6994997  15.4549988
 122.5400012  65.6454997  16.3389988 121.6934166  65.8130640  16.2260536
 126.2290012  71.2384997  14.2399988 125.3280012  71.4214997  13.9719988
 126.2630012  71.4974997  15.1609988 126.1103041  71.2985512  14.3278197
 131.9600012  63.4834997   2.6069988 131.4060012  63.0874997   1.9349988
 132.0600012  64.3934997   2.3289988 131.8977059  63.5523586   2.4774401
 131.9230012  69.2834997  15.4439988 131.0720012  69.5214997  15.0769988
 132.5140012  69.2664997  14.6909988 131.8862487  69.3138258  15.2918893
 130.2550012  72.2694997   3.0719988 129.8820012  71.4434997   3.3809988
 130.5330012  72.0864997   2.1749988 130.2415630  72.1317303   2.9929626
 127.4160012  67.0774997  10.0929988 126.4870012  66.8454997  10.0659988
 127.8670012  66.3004997   9.7629988 127.3499216  66.9407238  10.0446917
 119.9590012  71.4054997   6.2259988 120.4860012  72.1784997   6.0259988
 119.0790012  71.6304997   5.9249988 119.9121773  71.5418005   6.1579010
 115.7140012  66.2674997   0.8129988 116.3300012  66.8944997   1.1929988
 114.8520012  66.5834997   1.0849988 115.6817698  66.3959430   0.9017183
 121.3860012  69.0684997   5.8029988 121.1450012  69.9934997   5.8439988
 120.6450012  68.6094997   6.1989988 121.2528409  69.1331421   5.8621377
 121.9010012  73.2174997  12.1179988 122.2630012  74.0724997  11.8839988
 122.4320012  72.9254997  12.8579988 122.0224473  73.2951060  12.1860855
 120.0690012  74.0904997   5.3479988 119.1190012  74.1954997   5.3989988
 120.4210012  74.9104997   5.6929988 119.9864203  74.2158314   5.4016650
 125.4450012  69.3164997  11.8179988 125.0190012  69.0894997  12.6449988
 126.0250012  68.5784997  11.6359988 125.4651868  69.1855299  11.9065830
 127.6480012  70.2454997   0.8919988 128.0010012  69.8654997   1.6969988
 126.6990012  70.1524997   0.9789988 127.5680441  70.1809596   1.0138559
 128.1030012  73.8684997  14.2879988 127.5020012  73.3134997  13.7919988
 128.3850012  74.5354997  13.6619988 128.0588519  73.8826841  14.1354952
 132.1510012  74.7254997   1.0929988 132.8950012  75.3114997   0.9529988
 131.4570012  75.2934997   1.4269988 132.1590292  74.8825582   1.1189961
 116.2260012  61.1014997  13.6949988 115.3330012  61.4404997  13.6269988
 116.1270012  60.2464997  14.1129988 116.0904164  61.0322588  13.7422235
 128.5140012  68.9184997   3.1189988 128.2360012  68.1904997   3.6749988
 129.4410012  69.0374997   3.3239988 128.6013124  68.8348802   3.2228845
 115.8770012  72.9064997  12.1299988 116.0940012  71.9744997  12.0989988
 116.1230012  73.1804997  13.0129988 115.9399549  72.8160636  12.2451763
 121.7390012  71.3574997  -0.6610012 121.9780012  70.6094997  -1.2080012
 121.4700012  70.9694997   0.1719988 121.7353675  71.2026638  -0.6233135
 120.6760012  70.9274997   1.7959988 120.8220012  70.4074997   2.5859988
 120.6730012  71.8344997   2.1019988 120.6955989  70.9788853   1.9456088
 117.1290012  68.1804997   2.3059988 116.4430012  68.5324997   2.8729988
 117.6510012  68.9434997   2.0589988 117.1056852  68.3318578   2.3502118
 124.9600012  60.8424997  12.5849988 125.6590012  60.9164997  13.2349988
 124.5790012  59.9784997  12.7389988 125.0041767  60.7357624  12.6948322
 125.7450012  60.4944997   3.6819988 125.9650012  60.9664997   2.8789988
 126.3030012  60.8894997   4.3519988 125.8504968  60.6124285   3.6627331
 123.4130012  72.6254997   2.5449988 122.5970012  73.1224997   2.5969988
 123.9430012  73.1004997   1.9049988 123.3729161  72.7577722   2.4655956
 122.9450012  62.2224997   4.5169988 123.7570012  62.7274997   4.5629988
 122.7000012  62.0774997   5.4309988 123.0230520  62.2720375   4.6468517
 123.4800012  63.2084997  13.7019988 123.5990012  63.7824997  14.4589988
 124.1360012  62.5204997  13.8159988 123.5849757  63.1941079  13.8210825
 123.8280012  59.3034997   5.4549988 123.4820012  59.9214997   6.0999988
 124.4870012  59.8044997   4.9739988 123.8697826  59.4555802   5.4780971
 120.7520012  73.6694997   2.5269988 120.9120012  74.4684997   2.0259988
 120.5540012  73.9754997   3.4119988 120.7471649  73.8204469   2.5779815
 119.4860012  60.3664997   2.1419988 119.4030012  61.2554997   2.4889988
 120.3760012  60.1014997   2.3739988 119.5949469  60.4521430   2.2207626
 129.6850012  61.1154997  14.5369988 128.7680012  61.3784997  14.4489988
 130.0200012  61.1124997  13.6399988 129.6049900  61.1510224  14.4037919
 128.2870012  64.8664997   8.6319988 127.4890012  64.4514997   8.3039988
 128.7320012  64.1754997   9.1229988 128.2379885  64.7163543   8.6534889
 117.7450012  70.7944997   1.2029988 118.3370012  71.4934997   1.4789988
 118.2040012  70.3614997   0.4829988 117.8881142  70.8317049   1.1434830
 116.0610012  63.4584997   0.3189988 116.0160012  64.3974997   0.4969988
 115.1730012  63.2224997   0.0489988 115.9348574  63.5551892   0.3068912
 129.3730012  74.1224997  10.2549988 129.2180012  74.8004997   9.5979988
 130.3060012  74.1944997  10.4579988 129.4778500  74.2250170  10.1925119
 116.8690012  58.2404997   8.9919988 116.6400012  58.2994997   8.0639988
 116.4260012  57.4484997   9.2979988 116.7778530  58.1415753   8.9064786
 115.7990012  72.1804997   5.1519988 114.9670012  72.6534997   5.1799988
 116.3450012  72.6904997   4.5539988 115.7589739  72.3141871   5.0749716
 115.0870012  74.7934997  16.4819988 115.6280012  74.5764997  17.2419988
 114.6060012  73.9874997  16.2929988 115.0959345  74.6549514  16.5603076
 119.6850012  73.7124997  18.1029988 120.4520012  73.2534997  18.4439988
 119.6630012  73.4864997  17.1729988 119.7871434  73.6190409  18.0240043
 123.7770012  73.2204997  -0.5220012 123.1330012  72.5894997  -0.2010012
 124.5390012  72.6894997  -0.7540012 123.7918077  73.0622920  -0.5093989
 126.2620012  72.0924997  16.8319988 125.9110012  71.2364997  17.0749988
 126.9880012  72.2354997  17.4389988 126.3120769  71.9945636  16.9473619
 128.3810012  73.0374997  -0.2880012 128.6640012  72.2434997   0.1639988
 129.1210012  73.2704997  -0.8490012 128.5197486  72.9602803  -0.3019302
 114.9940012  68.6034997  17.4369988 115.1380012  67.7014997  17.1499988
 114.2220012  68.8894997  16.9489988 114.9093322  68.5188261  17.3317881
 119.3360012  68.9474997  -0.4310012 119.4000012  68.1534997   0.0999988
 119.9890012  68.8284997  -1.1210012 119.4330241  68.8227148  -0.4515683
 121.6500012  68.5734997  16.8689988 121.3210012  68.8444997  16.0119988
 121.8020012  67.6324997  16.7819988 121.6254809  68.4833862  16.7398244
 124.6880012  69.9944997  -0.6950012 124.4190012  70.1744997   0.2059988
 124.4820012  69.0684997  -0.8260012 124.6233825  69.8940152  -0.5894786
 127.3840012  68.4894997  14.2529988 128.1300012  69.0774997  14.1329988
 126.6270012  69.0714997  14.3159988 127.3837554  68.6487011  14.2450907
 115.8270012  65.8034997  16.8569988 116.2350012  64.9464997  16.7359988
 115.5670012  65.8184997  17.7779988 115.8477568  65.6880807  16.9649588
 120.4850012  66.9194997   1.8749988 120.0250012  66.4354997   2.5609988
 120.7400012  66.2514997   1.2389988 120.4564902  66.7628731   1.8829334
 119.7740012  64.8124997  14.2309988 119.1560012  65.4874997  14.5109988
 120.1180012  65.1334997  13.3979988 119.7359615  64.9482721  14.1566581
 121.5560012  65.1624997   0.1369988 121.3760012  65.0084997  -0.7900012
 122.5060012  65.2704997   0.1819988 121.6597776  65.1560175   0.0161843
 124.7940012  67.2844997  17.5079988 125.7470012  67.3674997  17.4809988
 124.6330012  66.5724997  18.1279988 124.9026426  67.1996746  17.5880578
 130.9460012  67.5174997  -0.4170012 130.6720012  67.0924997  -1.2300012
 130.9850012  68.4484997  -0.6340012 130.9137699  67.5852484  -0.5576390
 120.1130012  62.1674997  15.3129988 120.2630012  61.4384997  14.7109988
 120.1160012  62.9444997  14.7539988 120.1339302  62.1727851  15.1550692
 120.5260012  60.5374997  12.8059988 121.0620012  60.9884997  12.1539988
 119.6740012  60.4294997  12.3829988 120.4842178  60.5846390  12.6595756
 122.1080012  65.9764997  13.0449988 122.8580012  65.8204997  12.4719988
 121.7690012  66.8284997  12.7699988 122.1648921  66.0702968  12.9293561
 126.5230012  63.7914997  18.0739988 126.7160012  62.8604997  17.9619988
 127.3810012  64.2164997  18.0639988 126.6653020  63.7216389  18.0573361
 127.8400012  66.5804997  16.1509988 127.5590012  67.2894997  15.5739988
 128.7830012  66.5074997  15.9999988 127.9289027  66.6677646  16.0515551
 118.5920012  63.3654997  17.2249988 117.8250012  62.8334997  17.0149988
 119.2710012  63.0554997  16.6249988 118.5787022  63.2507506  17.1151648
 121.3320012  57.9934997  13.2369988 121.2330012  58.9404997  13.1319988
 120.5890012  57.6214997  12.7619988 121.2180564  58.0725902  13.1584560
 122.5960012  62.3154997  16.8009988 122.3600012  62.0954997  17.7029988
 121.8120012  62.1084997  16.2909988 122.4578628  62.2574760  16.8553932
 125.3110012  61.4424997  15.8769988 124.3640012  61.4744997  16.0089988
 125.6240012  60.8174997  16.5299988 125.2235475  61.3623207  15.9834455
 126.9450012  60.0764997  17.8819988 126.8490012  59.1244997  17.8759988
 126.6240012  60.3454997  18.7419988 126.8884070  59.9824035  17.9975441
 116.7720012  61.2864997  16.9289988 116.9840012  60.5794997  16.3189988
 116.6610012  60.8484997  17.7729988 116.7859721  61.1307084  16.9596843
 121.5530012  57.2874997  15.9089988 122.2650012  56.6474997  15.8949988
 121.4520012  57.5544997  14.9949988 121.6367939  57.2359938  15.7835650
 121.9070012  58.9704997  17.9619988 121.7750012  58.4944997  17.1419988
 121.3080012  59.7144997  17.9069988 121.8079071  59.0059618  17.8422886
 121.4530012  75.8534997   1.1389988 122.3860012  76.0114997   1.2819988
 121.1890012  76.5284997   0.5139988 121.5449510  75.9663611   1.0740741
 115.0220012  70.4894997   0.6209988 115.9360012  70.5684997   0.8949988
 115.0290012  69.8024997  -0.0450012 115.1481131  70.4073961   0.5684393
 113.6710012  75.8824997   5.6989988 113.0240012  75.4204997   5.1659988
 114.0250012  75.2104997   6.2809988 113.6303849  75.7284723   5.7047959
 114.5410012  73.9634997   7.5029988 114.2060012  73.0834997   7.6749988
 114.7630012  74.3084997   8.3679988 114.5251783  73.8897500   7.6434208
 132.0890012  74.7724997  10.4839988 132.0680012  74.9574997  11.4229988
 132.7800012  75.3414997  10.1429988 132.1794618  74.8746606  10.5663864
 131.6530012  74.3404997  13.4059988 131.1650012  73.6044997  13.0349988
 132.2020012  73.9464997  14.0839988 131.6604872  74.1866249  13.4469160
 130.1030012  70.1294997  18.0439988 129.2370012  70.0244997  18.4379988
 130.4800012  70.8884997  18.4899988 130.0353308  70.2176900  18.1582393
 131.4040012  68.3864997   3.5579988 132.2540012  68.8074997   3.6849988
 131.4100012  67.6464997   4.1649988 131.5211372  68.3440803   3.6574344
 131.7990012  66.4394997   5.3819988 131.0720012  65.9604997   5.7789988
 132.3800012  66.6454997   6.1139988 131.7779375  66.4017090   5.5354129
 131.5580012  69.2244997  10.3289988 132.3910012  68.8464997  10.0489988
 131.6700012  70.1674997  10.2099988 131.6872647  69.3002218  10.2745487
 130.0440012  72.1024997  12.6359988 129.3970012  72.4274997  13.2619988
 129.5270012  71.6624997  11.9619988 129.8854029  72.0875004  12.6305827
 132.0670012  66.3404997   1.7729988 131.5450012  66.6974997   1.0539988
 132.0340012  67.0154997   2.4509988 131.9911634  66.4805413   1.7663145
 130.4160012  63.5804997   0.3239988 130.5120012  64.2474997  -0.3570012
 130.2760012  62.7644997  -0.1580012 130.4102135  63.5614500   0.1658491
 129.5850012  64.9604997   5.9449988 129.4350012  64.0154997   5.9239988
 129.2320012  65.2414997   6.7879988 129.5166625  64.8690441   6.0562346
 114.6210012  67.0384997   9.9549988 114.8050012  66.9564997   9.0189988
 115.4700012  66.9144997  10.3789988 114.7610139  67.0105003   9.8841455
 130.4420012  66.9304997  15.5829988 131.0250012  66.1964997  15.7749988
 131.0060012  67.7024997  15.6299988 130.5979769  66.9344227  15.6156159
 131.9380012  64.8334997  16.2679988 131.0750012  64.4544997  16.1019988
 132.5430012  64.0944997  16.1939988 131.9015979  64.6818023  16.2352817
 129.6630012  60.9884997  -0.5590012 130.2740012  60.6174997   0.0779988
 128.8270012  60.5674997  -0.3630012 129.6335032  60.8807554  -0.4452965
 129.2960012  62.5434997   4.4069988 129.5760012  61.6364997   4.5309988
 130.0550012  62.9774997   4.0179988 129.4369277  62.4780942   4.3713682
 129.9080012  63.1244997   9.8429988 130.8410012  63.3364997   9.8089988
 129.6730012  63.2264997  10.7649988 130.0038036  63.1672769   9.9629976
 129.9370012  63.8614997  12.6189988 129.0940012  64.1294997  12.9849988
 130.3790012  64.6834997  12.4079988 129.8814158  64.0093291  12.6405491
 114.2180012  62.3094997  16.0959988 115.1380012  62.1874997  16.3319988
 113.7690012  61.5594997  16.4849988 114.2831580  62.1913727  16.1809006
 132.2200012  57.8414997  17.9719988 132.5700012  57.1874997  17.3669988
 132.3670012  58.6784997  17.5329988 132.2878419  57.8651591  17.8297118
 129.9090012  59.8064997   4.4549988 130.0920012  59.3574997   5.2809988
 129.3100012  59.2214997   3.9919988 129.8530202  59.6659975   4.5053275
 115.4390012  60.6214997   8.9869988 115.8850012  59.8294997   9.2889988
 115.9060012  61.3374997   9.4179988 115.5630172  60.6100624   9.0864820
 113.7430012  63.6204997  10.0559988 114.2350012  63.3994997   9.2649988
 114.1060012  64.4614997  10.3369988 113.8593126  63.7038357   9.9857531
 131.7400012  59.9504997  16.3219988 130.8220012  60.2214997  16.2859988
 131.8630012  59.4154997  15.5369988 131.6311066  59.9152892  16.2110487
 131.7760012  59.8734997   0.9829988 132.1880012  59.1524997   0.5079988
 132.4580012  60.5434997   1.0419988 131.9245885  59.8652368   0.9258915
 114.0570012  59.8784997   4.1099988 113.1320012  60.0874997   3.9809988
 114.5110012  60.3624997   3.4209988 113.9917368  59.9725993   3.9991226
 128.8280012  74.8624997   6.0559988 129.4800012  74.5154997   5.4479988
 129.3380012  75.3514997   6.7019988 128.9862637  74.8810597   6.0600236
 114.0210012  58.6164997  12.4549988 113.3560012  58.3704997  13.0979988
 113.5780012  59.2384997  11.8769988 113.8700956  58.6668632  12.4649352
 116.2130012  71.7914997  16.5989988 115.3920012  71.9664997  16.1389988
 115.9600012  71.7184997  17.5199988 116.0666164  71.8055622  16.6604923
 119.1670012  72.7664997  12.8579988 118.7420012  73.5754997  12.5749988
 120.0710012  72.8514997  12.5559988 119.2310271  72.8888469  12.7783776
 123.4780012  74.1654997  15.8169988 123.6630012  73.8314997  16.6949988
 124.3240012  74.4744997  15.4949988 123.6177539  74.1616047  15.8935605
 125.8230012  75.4514997  15.0609988 126.5000012  74.8184997  14.8209988
 126.1450012  75.8524997  15.8679988 125.9591637  75.4191154  15.1372793
 130.7400012  58.0404997  14.1409988 129.9280012  58.3654997  13.7529988
 130.9730012  57.2804997  13.6079988 130.6603423  57.9822436  14.0158253
 116.5690012  76.0224997  12.9049988 115.8480012  76.4624997  12.4539988
 116.2030012  75.7714997  13.7539988 116.4209804  76.0487698  12.9579840
 119.0360012  75.6224997  11.9349988 118.1710012  75.6944997  12.3389988
 118.9810012  76.1694997  11.1509988 118.9102085  75.7062685  11.8843362
 123.7460012  75.5104997  11.1099988 123.2900012  76.0394997  10.4559988
 123.9090012  76.1134997  11.8359988 123.7055585  75.6644468  11.1185062
 126.0740012  74.3884997  12.0549988 125.1690012  74.5534997  11.7899988
 126.5030012  75.2414997  11.9899988 126.0080799  74.5264483  12.0099182
 128.6780012  75.9584997  12.3499988 128.4960012  76.8744997  12.1399988
 128.8550012  75.5484997  11.5039988 128.6770210  76.0284822  12.2067885
 115.9830012  74.6454997   9.8149988 115.9650012  74.2204997  10.6729988
 116.7880012  74.3274997   9.4069988 116.0893875  74.5443812   9.8771655
 118.1250012  73.3554997   8.4699988 117.9060012  72.4394997   8.6399988
 118.9490012  73.4954997   8.9359988 118.2064420  73.2490520   8.5562774
 120.6620012  73.8254997   9.3189988 120.8750012  72.9374997   9.0319988
 120.7260012  73.7914997  10.2729988 120.6998231  73.6993102   9.4087397
 124.1700012  59.4894997   8.4629988 123.4960012  58.8604997   8.7189988
 124.7340012  59.0054997   7.8599988 124.1539230  59.3378744   8.4165340
 129.3130012  57.5974997   8.5759988 129.9170012  58.1444997   8.0739988
 128.4430012  57.9164997   8.3359988 129.2781241  57.7155806   8.4747654
 131.0400012  58.7354997   6.9089988 131.6520012  58.2214997   6.3829988
 131.4220012  59.6134997   6.9329988 131.1754540  58.7837140   6.8401830
 116.4970012  58.1234997   6.2849988 115.7200012  57.8894997   5.7779988
 117.0270012  57.3264997   6.2939988 116.4622330  57.9836988   6.2167742
 115.3330012  57.9214997   2.0889988 115.7720012  58.5324997   1.4969988
 114.7000012  58.4594997   2.5629988 115.3074514  58.0779257   2.0720930
 121.0760012  58.0504997   6.0989988 121.9510012  58.4384997   6.0689988
 120.9400012  57.8354997   7.0209988 121.1773695  58.0745184   6.2196440
 126.6330012  58.0804997   7.7479988 126.7090012  58.1754997   6.7979988
 126.3580012  57.1724997   7.8769988 126.6062321  57.9707867   7.6355079
 127.9860012  58.1064997   3.4399988 127.2840012  58.7214997   3.2309988
 127.5420012  57.2684997   3.5709988 127.8296330  58.0775783   3.4290328
 115.2340012  73.8694997   2.9869988 114.5490012  73.8314997   2.3189988
 115.2380012  74.7824997   3.2749988 115.1408193  73.9877016   2.9345284
 117.1940012  59.8374997   0.5309988 117.6860012  59.2074997   0.0039988
 117.8180012  60.1334997   1.1949988 117.3455446  59.7913199   0.5485980
 122.2200012  60.1304997   2.9879988 122.3980012  59.4844997   3.6709988
 122.1670012  60.9644997   3.4559988 122.2371829  60.1547985   3.1445940
 124.0990012  75.0794997   1.3839988 124.9650012  75.4454997   1.2059988
 123.8520012  74.6394997   0.5699988 124.1842392  75.0701756   1.2496289
 130.8080012  74.6424997   4.0629988 130.6130012  73.8944997   3.4979988
 130.7690012  75.4004997   3.4799988 130.7760380  74.6426099   3.9068384
 116.4550012  58.6374997  15.8029988 116.0890012  57.8724997  16.2459988
 117.3680012  58.6664997  16.0899988 116.5282790  58.5367224  15.9024070
 118.4280012  57.9884997  17.3389988 119.3260012  57.7144997  17.1539988
 118.0410012  57.2454997  17.8029988 118.4986612  57.8505914  17.3763643
 117.0520012  74.7894997   0.0119988 116.7850012  75.0764997   0.8849988
 117.8240012  74.2434997   0.1639988 117.1197488  74.7550294   0.1521050
 126.8490012  57.3204997  17.5209988 126.9260012  56.8944997  18.3749988
 127.7430012  57.3344997  17.1779988 126.9803428  57.2640879  17.5915310
 130.0250012  73.3934997  16.2129988 129.2430012  73.2074997  15.6939988
 129.9530012  74.3224997  16.4309988 129.9081777  73.4936492  16.1714048
 144.4310012  67.2794997   6.2439988 144.5200012  68.2234997   6.1119988
 143.7930012  67.0044997   5.5859988 144.3569081  67.3714830   6.1369614
 143.3640012  66.5344997   9.6629988 143.3260012  65.8884997  10.3679988
 143.0420012  66.0684997   8.8919988 143.3152333  66.3829408   9.6552978
 135.7330012  66.1494997  11.2559988 135.7740012  65.5234997  11.9789988
 136.4360012  66.7734997  11.4379988 135.8336363  66.1481196  11.3796044
 136.6560012  70.5994997   9.7909988 136.2870012  69.7974997   9.4209988
 137.5970012  70.4304997   9.8369988 136.7327289  70.4670153   9.7466316
 133.2660012  64.2594997   5.1839988 132.8190012  65.1054997   5.1649988
 132.7050012  63.6794997   4.6679988 133.1289900  64.2969916   5.1116801
 133.9770012  66.4214997   7.3099988 134.1900012  65.6514997   7.8369988
 134.7150012  66.5104997   6.7059988 134.1058496  66.3281394   7.3005300
 144.1820012  74.5784997   8.1769988 144.8020012  73.9014997   7.9029988
 143.9740012  74.3604997   9.0849988 144.2386904  74.4563870   8.2623365
 141.7540012  68.9674997  10.0689988 142.0580012  68.2814997   9.4739988
 142.4750012  69.0854997  10.6869988 141.8930671  68.8896305  10.0711816
 144.8950012  63.3614997  10.3969988 145.0370012  62.4154997  10.4169988
 144.7880012  63.5684997   9.4679988 144.8999864  63.2599534  10.2742339
 138.0490012  61.4624997   7.6689988 138.0930012  62.3224997   7.2509988
 137.5920012  60.9104997   7.0349988 137.9932185  61.5055799   7.5260299
 134.6700012  63.8594997   8.4309988 135.3230012  63.3094997   8.8629988
 134.6940012  63.5854997   7.5139988 134.7626683  63.7471466   8.3662123
 139.8260012  65.4094997   7.6459988 140.4420012  64.8834997   8.1559988
 139.2400012  64.7694997   7.2429988 139.8310810  65.2509208   7.6613173
 136.8600012  60.3804997  11.7429988 136.6410012  60.9104997  10.9769988
 136.1920012  60.6074997  12.3899988 136.7397600  60.4836906  11.7256379
 144.2290012  69.8804997   5.2869988 143.9330012  69.5584997   4.4359988
 143.9040012  70.7804997   5.3279988 144.1446371  69.9580215   5.1761801
 139.4290012  68.0564997  12.0299988 138.6890012  68.6544997  12.1339988
 140.1430012  68.6104997  11.7149988 139.4242237  68.2132831  12.0016465
 136.4530012  62.2724997   9.6949988 137.0670012  62.9054997  10.0689988
 136.9650012  61.8004997   9.0389988 136.6062296  62.2952370   9.6574252
 137.8360012  70.0204997  12.8179988 137.8310012  70.9004997  12.4399988
 136.9830012  69.9374997  13.2429988 137.7199464  70.1296117  12.8237907
 133.9570012  69.6914997   3.5999988 133.6850012  69.9204997   2.7109988
 134.0030012  70.5294997   4.0599988 133.9260094  69.8361213   3.5405697
 140.8860012  57.6864997   9.1959988 140.7690012  56.7374997   9.1409988
 140.0310012  58.0184997   9.4689988 140.7543733  57.6015409   9.2253897
 143.1530012  66.5234997   3.6959988 142.4410012  67.0584997   3.3439988
 143.8440012  66.5794997   3.0359988 143.1490132  66.6042543   3.5586289
 143.2060012  64.9814997   0.7349988 143.9070012  65.0034997   1.3859988
 143.5090012  64.3534997   0.0789988 143.3427830  64.8996566   0.7353711
 138.2040012  67.3634997   6.5299988 137.8730012  66.9934997   5.7119988
 138.7920012  66.6934997   6.8769988 138.2381873  67.2221156   6.4648102
 139.5700012  70.7914997   9.2119988 139.4760012  70.2134997   8.4549988
 140.3000012  70.4204997   9.7079988 139.6557981  70.6622390   9.1754165
 138.5700012  66.1324997  10.1639988 139.1360012  66.2534997   9.4009988
 138.8890012  66.7694997  10.8029988 138.6905786  66.2351884  10.1460040
 144.8790012  71.6354997  10.8979988 144.6390012  72.2974997  11.5459988
 144.6810012  70.8014997  11.3229988 144.8193808  71.6133134  11.0441524
 139.4500012  70.5314997  14.8809988 139.1390012  71.3134997  15.3359988
 138.8000012  70.3784997  14.1949988 139.3195558  70.6179105  14.8505871
 136.3700012  66.7294997  14.1099988 136.4410012  67.3804997  14.8079988
 135.4800012  66.8324997  13.7749988 136.2593117  66.8325936  14.1602700
 143.1560012  72.6324997   5.7679988 143.6300012  72.9274997   6.5459988
 142.5930012  73.3704997   5.5349988 143.1447653  72.7726932   5.8430136
 137.6900012  72.6034997  15.6439988 137.6970012  72.4674997  14.6969988
 136.7740012  72.4854997  15.8959988 137.5671714  72.5689430  15.5484666
 137.1940012  66.4334997   4.1199988 136.9020012  67.2014997   3.6289988
 136.5200012  65.7734997   3.9569988 137.0629081  66.4494406   4.0307340
 133.2870012  68.7964997  12.9349988 132.7860012  68.7684997  12.1199988
 133.2920012  67.8904997  13.2439988 133.2191526  68.6702278  12.8652872
 133.0370012  71.5764997   9.8189988 133.9830012  71.4324997   9.7999988
 132.9250012  72.3604997  10.3559988 133.1512727  71.6628046   9.8890072
 142.2140012  71.8164997  14.3769988 142.3010012  72.6424997  14.8519988
 141.3500012  71.4864997  14.6259988 142.1091964  71.8849878  14.4756549
 142.6280012  75.5884997   4.1829988 142.5530012  75.4674997   3.2369988
 142.6610012  76.5384997   4.3019988 142.6221848  75.7002500   4.0694834
 136.2810012  74.3774997   5.9639988 136.4340012  74.0294997   6.8429988
 135.4310012  74.0214997   5.7089988 136.1868962  74.2816650   6.0498340
 135.5360012  70.1194997  13.9779988 135.7520012  69.7584997  14.8369988
 134.6810012  69.7454997  13.7679988 135.4499292  70.0194111  14.0673386
 138.1550012  58.5894997   9.9729988 137.2930012  58.5024997   9.5659988
 138.1320012  59.4454997  10.4009988 138.0340330  58.6932765   9.9751863
 142.8180012  58.3114997  13.3479988 143.2380012  57.8964997  14.1009988
 141.8850012  58.1334997  13.4649988 142.7493644  58.2305900  13.4669539
 142.4790012  60.8044997   0.6329988 142.2260012  60.8234997   1.5559988
 142.2230012  59.9324997   0.3319988 142.4097790  60.6892437   0.7186263
 138.2460012  63.5554997  11.0679988 137.6040012  63.5144997  11.7769988
 138.2830012  64.4814997  10.8309988 138.1631324  63.6751559  11.1329824
 138.2430012  63.7764997   5.9799988 137.3500012  63.4354997   5.9219988
 138.6930012  63.3994997   5.2249988 138.1817305  63.6788484   5.8699177
 143.7780012  64.1924997   4.7969988 143.3690012  65.0074997   4.5059988
 144.4990012  64.0524997   4.1829988 143.8194537  64.2852018   4.6741342
 142.8800012  64.3674997  16.2849988 142.3180012  63.6634997  16.6059988
 143.7070012  64.2474997  16.7529988 142.9147095  64.2547883  16.3922330
 144.7830012  63.6384997   7.6109988 144.5880012  64.2434997   6.8959988
 144.9640012  62.8044997   7.1769988 144.7807614  63.6086300   7.4544405
 135.9960012  63.8754997  12.9349988 135.9580012  64.2754997  13.8039988
 135.5050012  63.0584997  13.0259988 135.9244684  63.8198069  13.0661059
 139.3620012  61.2494997  -0.2660012 138.9310012  60.8044997   0.4639988
 138.6440012  61.6214997  -0.7780012 139.2059438  61.2388940  -0.2353201
 132.6040012  60.9914997   6.7859988 133.2350012  60.9624997   7.5049988
 133.0530012  60.5664997   6.0559988 132.7510774  60.9300492   6.7856553
 133.8780012  61.7374997   2.2099988 134.3520012  62.3284997   1.6249988
 133.1610012  62.2684997   2.5569988 133.8459341  61.8900867   2.1768836
 144.0470012  65.2764997  12.2829988 144.3700012  64.6454997  11.6399988
 143.6070012  64.7414997  12.9429988 144.0316895  65.1178440  12.2842850
 140.8240012  61.2034997   7.0669988 139.9130012  61.2604997   7.3549988
 141.3300012  61.1434997   7.8769988 140.7675413  61.2031985   7.2160622
 135.6530012  62.8324997   5.8929988 134.7630012  62.9324997   5.5529988
 135.9490012  61.9904997   5.5469988 135.5712823  62.7323545   5.7997213
 139.3060012  62.8324997   3.5499988 140.2370012  62.9614997   3.7279988
 139.0910012  63.5024997   2.8999988 139.4044247  62.9406565   3.4865747
 137.9800012  64.0274997   1.1169988 137.4370012  63.6474997   0.4249988
 138.8130012  64.2214997   0.6879988 138.0184399  64.0018124   0.9644526
 136.1150012  68.5844997  16.2159988 136.8470012  68.8384997  16.7769988
 135.3350012  68.7884997  16.7309988 136.1098232  68.6469177  16.3625760
 142.1440012  63.9914997   8.9539988 142.7090012  63.4444997   8.4069988
 141.9970012  63.4694997   9.7419988 142.2012918  63.8462024   8.9858454
 137.1460012  60.1274997   5.3719988 136.8290012  59.2254997   5.3369988
 137.9280012  60.1294997   4.8189988 137.2082284  60.0041628   5.2924783
 140.7710012  62.3794997  11.3679988 139.9350012  62.8334997  11.4779988
 141.2950012  62.6554997  12.1199988 140.7274414  62.4789376  11.4847136
 141.3150012  68.5924997   3.0519988 140.5700012  68.0854997   2.7299988
 141.1810012  68.6414997   3.9989988 141.1948776  68.5296940   3.1358647
 142.8340012  68.7764997  14.2889988 142.4890012  68.3954997  15.0959988
 142.6340012  69.7104997  14.3609988 142.7598061  68.8505228  14.4090961
 136.4400012  67.8874997   8.8219988 137.1850012  67.8854997   8.2209988
 136.5180012  67.0644997   9.3039988 136.5525518  67.7759315   8.8048929
 143.4410012  70.0514997   2.0779988 143.1450012  70.8774997   2.4589988
 142.7380012  69.4314997   2.2739988 143.3054914  70.0808199   2.1566443
 133.4480012  66.3484997  14.1369988 133.6710012  65.9304997  14.9689988
 132.8460012  65.7354997  13.7139988 133.3971759  66.2084668  14.1937022
 140.4640012  65.8654997  16.3499988 140.1680012  65.6994997  15.4549988
 141.3960012  65.6454997  16.3389988 140.5494166  65.8130640  16.2260536
 138.8150012  71.4054997   6.2259988 139.3420012  72.1784997   6.0259988
 137.9350012  71.6304997   5.9249988 138.7681773  71.5418005   6.1579010
 134.5700012  66.2674997   0.8129988 135.1860012  66.8944997   1.1929988
 133.7080012  66.5834997   1.0849988 134.5377698  66.3959430   0.9017183
 140.2420012  69.0684997   5.8029988 140.0010012  69.9934997   5.8439988
 139.5010012  68.6094997   6.1989988 140.1088409  69.1331421   5.8621377
 140.7570012  73.2174997  12.1179988 141.1190012  74.0724997  11.8839988
 141.2880012  72.9254997  12.8579988 140.8784473  73.2951060  12.1860855
 138.9250012  74.0904997   5.3479988 137.9750012  74.1954997   5.3989988
 139.2770012  74.9104997   5.6929988 138.8424203  74.2158314   5.4016650
 144.3010012  69.3164997  11.8179988 143.8750012  69.0894997  12.6449988
 144.8810012  68.5784997  11.6359988 144.3211868  69.1855299  11.9065830
 135.0820012  61.1014997  13.6949988 134.1890012  61.4404997  13.6269988
 134.9830012  60.2464997  14.1129988 134.9464164  61.0322588  13.7422235
 134.7330012  72.9064997  12.1299988 134.9500012  71.9744997  12.0989988
 134.9790012  73.1804997  13.0129988 134.7959549  72.8160636  12.2451763
 140.5950012  71.3574997  -0.6610012 140.8340012  70.6094997  -1.2080012
 140.3260012  70.9694997   0.1719988 140.5913675  71.2026638  -0.6233135
 139.5320012  70.9274997   1.7959988 139.6780012  70.4074997   2.5859988
 139.5290012  71.8344997   2.1019988 139.5515989  70.9788853   1.9456088
 135.9850012  68.1804997   2.3059988 135.2990012  68.5324997   2.8729988
 136.5070012  68.9434997   2.0589988 135.9616852  68.3318578   2.3502118
 143.8160012  60.8424997  12.5849988 144.5150012  60.9164997  13.2349988
 143.4350012  59.9784997  12.7389988 143.8601767  60.7357624  12.6948322
 144.6010012  60.4944997   3.6819988 144.8210012  60.9664997   2.8789988
 145.1590012  60.8894997   4.3519988 144.7064968  60.6124285   3.6627331
 142.2690012  72.6254997   2.5449988 141.4530012  73.1224997   2.5969988
 142.7990012  73.1004997   1.9049988 142.2289161  72.7577722   2.4655956
 141.8010012  62.2224997   4.5169988 142.6130012  62.7274997   4.5629988
 141.5560012  62.0774997   5.4309988 141.8790520  62.2720375   4.6468517
 142.3360012  63.2084997  13.7019988 142.4550012  63.7824997  14.4589988
 142.9920012  62.5204997  13.8159988 142.4409757  63.1941079  13.8210825
 142.6840012  59.3034997   5.4549988 142.3380012  59.9214997   6.0999988
 143.3430012  59.8044997   4.9739988 142.7257826  59.4555802   5.4780971
 139.6080012  73.6694997   2.5269988 139.7680012  74.4684997   2.0259988
 139.4100012  73.9754997   3.4119988 139.6031649  73.8204469   2.5779815
 138.3420012  60.3664997   2.1419988 138.2590012  61.2554997   2.4889988
 139.2320012  60.1014997   2.3739988 138.4509469  60.4521430   2.2207626
 136.6010012  70.7944997   1.2029988 137.1930012  71.4934997   1.4789988
 137.0600012  70.3614997   0.4829988 136.7441142  70.8317049   1.1434830
 134.9170012  63.4584997   0.3189988 134.8720012  64.3974997   0.4969988
 134.0290012  63.2224997   0.0489988 134.7908574  63.5551892   0.3068912
 135.7250012  58.2404997   8.9919988 135.4960012  58.2994997   8.0639988
 135.2820012  57.4484997   9.2979988 135.6338530  58.1415753   8.9064786
 134.6550012  72.1804997   5.1519988 133.8230012  72.6534997   5.1799988
 135.2010012  72.6904997   4.5539988 134.6149739  72.3141871   5.0749716
 133.9430012  74.7934997  16.4819988 134.4840012  74.5764997  17.2419988
 133.4620012  73.9874997  16.2929988 133.9519345  74.6549514  16.5603076
 138.5410012  73.7124997  18.1029988 139.3080012  73.2534997  18.4439988
 138.5190012  73.4864997  17.1729988 138.6431434  73.6190409  18.0240043
 142.6330012  73.2204997  -0.5220012 141.9890012  72.5894997  -0.2010012
 143.3950012  72.6894997  -0.7540012 142.6478077  73.0622920  -0.5093989
 133.8500012  68.6034997  17.4369988 133.9940012  67.7014997  17.1499988
 133.0780012  68.8894997  16.9489988 133.7653322  68.5188261  17.3317881
 138.1920012  68.9474997  -0.4310012 138.2560012  68.1534997   0.0999988
 138.8450012  68.8284997  -1.1210012 138.2890241  68.8227148  -0.4515683
 140.5060012  68.5734997  16.8689988 140.1770012  68.8444997  16.0119988
 140.6580012  67.6324997  16.7819988 140.4814809  68.4833862  16.7398244
 143.5440012  69.9944997  -0.6950012 143.2750012  70.1744997   0.2059988
 143.3380012  69.0684997  -0.8260012 143.4793825  69.8940152  -0.5894786
 134.6830012  65.8034997  16.8569988 135.0910012  64.9464997  16.7359988
 134.4230012  65.8184997  17.7779988 134.7037568  65.6880807  16.9649588
 139.3410012  66.9194997   1.8749988 138.8810012  66.4354997   2.5609988
 139.5960012  66.2514997   1.2389988 139.3124902  66.7628731   1.8829334
 138.6300012  64.8124997  14.2309988 138.0120012  65.4874997  14.5109988
 138.9740012  65.1334997  13.3979988 138.5919615  64.9482721  14.1566581
 140.4120012  65.1624997   0.1369988 140.2320012  65.0084997  -0.7900012
 141.3620012  65.2704997   0.1819988 140.5157776  65.1560175   0.0161843
 143.6500012  67.2844997  17.5079988 144.6030012  67.3674997  17.4809988
 143.4890012  66.5724997  18.1279988 143.7586426  67.1996746  17.5880578
 138.9690012  62.1674997  15.3129988 139.1190012  61.4384997  14.7109988
 138.9720012  62.9444997  14.7539988 138.9899302  62.1727851  15.1550692
 139.3820012  60.5374997  12.8059988 139.9180012  60.9884997  12.1539988
 138.5300012  60.4294997  12.3829988 139.3402178  60.5846390  12.6595756
 140.9640012  65.9764997  13.0449988 141.7140012  65.8204997  12.4719988
 140.6250012  66.8284997  12.7699988 141.0208921  66.0702968  12.9293561
 137.4480012  63.3654997  17.2249988 136.6810012  62.8334997  17.0149988
 138.1270012  63.0554997  16.6249988 137.4347022  63.2507506  17.1151648
 140.1880012  57.9934997  13.2369988 140.0890012  58.9404997  13.1319988
 139.4450012  57.6214997  12.7619988 140.0740564  58.0725902  13.1584560
 141.4520012  62.3154997  16.8009988 141.2160012  62.0954997  17.7029988
 140.6680012  62.1084997  16.2909988 141.3138628  62.2574760  16.8553932
 144.1670012  61.4424997  15.8769988 143.2200012  61.4744997  16.0089988
 144.4800012  60.8174997  16.5299988 144.0795475  61.3623207  15.9834455
 135.6280012  61.2864997  16.9289988 135.8400012  60.5794997  16.3189988
 135.5170012  60.8484997  17.7729988 135.6419721  61.1307084  16.9596843
 140.4090012  57.2874997  15.9089988 141.1210012  56.6474997  15.8949988
 140.3080012  57.5544997  14.9949988 140.4927939  57.2359938  15.7835650
 140.7630012  58.9704997  17.9619988 140.6310012  58.4944997  17.1419988
 140.1640012  59.7144997  17.9069988 140.6639071  59.0059618  17.8422886
 140.3090012  75.8534997   1.1389988 141.2420012  76.0114997   1.2819988
 140.0450012  76.5284997   0.5139988 140.4009510  75.9663611   1.0740741
 133.8780012  70.4894997   0.6209988 134.7920012  70.5684997   0.8949988
 133.8850012  69.8024997  -0.0450012 134.0041131  70.4073961   0.5684393
 132.5270012  75.8824997   5.6989988 131.8800012  75.4204997   5.1659988
 132.8810012  75.2104997   6.2809988 132.4863849  75.7284723   5.7047959
 133.3970012  73.9634997   7.5029988 133.0620012  73.0834997   7.6749988
 133.6190012  74.3084997   8.3679988 133.3811783  73.8897500   7.6434208
 133.4770012  67.0384997   9.9549988 133.6610012  66.9564997   9.0189988
 134.3260012  66.9144997  10.3789988 133.6170139  67.0105003   9.8841455
 133.0740012  62.3094997  16.0959988 133.9940012  62.1874997  16.3319988
 132.6250012  61.5594997  16.4849988 133.1391580  62.1913727  16.1809006
 134.2950012  60.6214997   8.9869988 134.7410012  59.8294997   9.2889988
 134.7620012  61.3374997   9.4179988 134.4190172  60.6100624   9.0864820
 132.5990012  63.6204997  10.0559988 133.0910012  63.3994997   9.2649988
 132.9620012  64.4614997  10.3369988 132.7153126  63.7038357   9.9857531
 132.9130012  59.8784997   4.1099988 131.9880012  60.0874997   3.9809988
 133.3670012  60.3624997   3.4209988 132.8477368  59.9725993   3.9991226
 132.8770012  58.6164997  12.4549988 132.2120012  58.3704997  13.0979988
 132.4340012  59.2384997  11.8769988 132.7260956  58.6668632  12.4649352
 135.0690012  71.7914997  16.5989988 134.2480012  71.9664997  16.1389988
 134.8160012  71.7184997  17.5199988 134.9226164  71.8055622  16.6604923
 138.0230012  72.7664997  12.8579988 137.5980012  73.5754997  12.5749988
 138.9270012  72.8514997  12.5559988 138.0870271  72.8888469  12.7783776
 142.3340012  74.1654997  15.8169988 142.5190012  73.8314997  16.6949988
 143.1800012  74.4744997  15.4949988 142.4737539  74.1616047  15.8935605
 144.6790012  75.4514997  15.0609988 145.3560012  74.8184997  14.8209988
 145.0010012  75.8524997  15.8679988 144.8151637  75.4191154  15.1372793
 135.4250012  76.0224997  12.9049988 134.7040012  76.4624997  12.4539988
 135.0590012  75.7714997  13.7539988 135.2769804  76.0487698  12.9579840
 137.8920012  75.6224997  11.9349988 137.0270012  75.6944997  12.3389988
 137.8370012  76.1694997  11.1509988 137.7662085  75.7062685  11.8843362
 142.6020012  75.5104997  11.1099988 142.1460012  76.0394997  10.4559988
 142.7650012  76.1134997  11.8359988 142.5615585  75.6644468  11.1185062
 134.8390012  74.6454997   9.8149988 134.8210012  74.2204997  10.6729988
 135.6440012  74.3274997   9.4069988 134.9453875  74.5443812   9.8771655
 136.9810012  73.3554997   8.4699988 136.7620012  72.4394997   8.6399988
 137.8050012  73.4954997   8.9359988 137.0624420  73.2490520   8.5562774
 139.5180012  73.8254997   9.3189988 139.7310012  72.9374997   9.0319988
 139.5820012  73.7914997  10.2729988 139.5558231  73.6993102   9.4087397
 143.0260012  59.4894997   8.4629988 142.3520012  58.8604997   8.7189988
 143.5900012  59.0054997   7.8599988 143.0099230  59.3378744   8.4165340
 135.3530012  58.1234997   6.2849988 134.5760012  57.8894997   5.7779988
 135.8830012  57.3264997   6.2939988 135.3182330  57.9836988   6.2167742
 134.1890012  57.9214997   2.0889988 134.6280012  58.5324997   1.4969988
 133.5560012  58.4594997   2.5629988 134.1634514  58.0779257   2.0720930
 139.9320012  58.0504997   6.0989988 140.8070012  58.4384997   6.0689988
 139.7960012  57.8354997   7.0209988 140.0333695  58.0745184   6.2196440
 134.0900012  73.8694997   2.9869988 133.4050012  73.8314997   2.3189988
 134.0940012  74.7824997   3.2749988 133.9968193  73.9877016   2.9345284
 136.0500012  59.8374997   0.5309988 136.5420012  59.2074997   0.0039988
 136.6740012  60.1334997   1.1949988 136.2015446  59.7913199   0.5485980
 141.0760012  60.1304997   2.9879988 141.2540012  59.4844997   3.6709988
 141.0230012  60.9644997   3.4559988 141.0931829  60.1547985   3.1445940
 142.9550012  75.0794997   1.3839988 143.8210012  75.4454997   1.2059988
 142.7080012  74.6394997   0.5699988 143.0402392  75.0701756   1.2496289
 135.3110012  58.6374997  15.8029988 134.9450012  57.8724997  16.2459988
 136.2240012  58.6664997  16.0899988 135.3842790  58.5367224  15.9024070
 137.2840012  57.9884997  17.3389988 138.1820012  57.7144997  17.1539988
 136.8970012  57.2454997  17.8029988 137.3546612  57.8505914  17.3763643
 135.9080012  74.7894997   0.0119988 135.6410012  75.0764997   0.8849988
 136.6800012  74.2434997   0.1639988 135.9757488  74.7550294   0.1521050
  12.4390012  86.1354997   6.2439988  12.5280012  87.0794997   6.1119988
  11.8010012  85.8604997   5.5859988  12.3649081  86.2274830   6.1369614
  11.3720012  85.3904997   9.6629988  11.3340012  84.7444997  10.3679988
  11.0500012  84.9244997   8.8919988  11.3232333  85.2389408   9.6552978
   3.7410012  85.0054997  11.2559988   3.7820012  84.3794997  11.9789988
   4.4440012  85.6294997  11.4379988   3.8416363  85.0041196  11.3796044
  15.0780012  88.3294997   7.9639988  14.6380012  87.6094997   8.4149988
  15.0650012  89.0504997   8.5939988  15.0160226  88.3283731   8.1108494
   4.6640012  89.4554997   9.7909988   4.2950012  88.6534997   9.4209988
   5.6050012  89.2864997   9.8369988   4.7407289  89.3230153   9.7466316
   1.2740012  83.1154997   5.1839988   0.8270012  83.9614997   5.1649988
   0.7130012  82.5354997   4.6679988   1.1369900  83.1529916   5.1116801
   1.9850012  85.2774997   7.3099988   2.1980012  84.5074997   7.8369988
   2.7230012  85.3664997   6.7059988   2.1138496  85.1841394   7.3005300
  12.1900012  93.4344997   8.1769988  12.8100012  92.7574997   7.9029988
  11.9820012  93.2164997   9.0849988  12.2466904  93.3123870   8.2623365
   9.7620012  87.8234997  10.0689988  10.0660012  87.1374997   9.4739988
  10.4830012  87.9414997  10.6869988   9.9010671  87.7456305  10.0711816
  18.4250012  79.4244997  10.9299988  18.4740012  80.0344997  11.6659988
  18.8500012  79.8854997  10.2069988  18.4891824  79.5703741  10.9330205
  12.9030012  82.2174997  10.3969988  13.0450012  81.2714997  10.4169988
  12.7960012  82.4244997   9.4679988  12.9079864  82.1159534  10.2742339
   6.0570012  80.3184997   7.6689988   6.1010012  81.1784997   7.2509988
   5.6000012  79.7664997   7.0349988   6.0012185  80.3615799   7.5260299
  13.7800012  80.4494997   6.0699988  14.4260012  80.1204997   6.6949988
  14.2900012  80.9674997   5.4469988  13.9374264  80.4744611   6.0713862
   2.6780012  82.7154997   8.4309988   3.3310012  82.1654997   8.8629988
   2.7020012  82.4414997   7.5139988   2.7706683  82.6031466   8.3662123
   7.8340012  84.2654997   7.6459988   8.4500012  83.7394997   8.1559988
   7.2480012  83.6254997   7.2429988   7.8390810  84.1069208   7.6613173
  18.8160012  80.9024997  13.1659988  18.1280012  81.5604997  13.0699988
  18.8320012  80.7054997  14.1019988  18.7238525  80.9660462  13.2794808
   4.8680012  79.2364997  11.7429988   4.6490012  79.7664997  10.9769988
   4.2000012  79.4634997  12.3899988   4.7477600  79.3396906  11.7256379
  12.2370012  88.7364997   5.2869988  11.9410012  88.4144997   4.4359988
  11.9120012  89.6364997   5.3279988  12.1526371  88.8140215   5.1761801
   7.4370012  86.9124997  12.0299988   6.6970012  87.5104997  12.1339988
   8.1510012  87.4664997  11.7149988   7.4322237  87.0692831  12.0016465
  15.5440012  79.7404997   8.0499988  15.3280012  78.9744997   8.5829988
  16.1990012  80.2124997   8.5629988  15.6030632  79.6995889   8.1922861
   4.4610012  81.1284997   9.6949988   5.0750012  81.7614997  10.0689988
   4.9730012  80.6564997   9.0389988   4.6142296  81.1512370   9.6574252
   5.8440012  88.8764997  12.8179988   5.8390012  89.7564997  12.4399988
   4.9910012  88.7934997  13.2429988   5.7279464  88.9856117  12.8237907
   1.9650012  88.5474997   3.5999988   1.6930012  88.7764997   2.7109988
   2.0110012  89.3854997   4.0599988   1.9340094  88.6921213   3.5405697
  15.5900012  90.1694997  10.3119988  14.6490012  90.2274997  10.4739988
  15.8670012  91.0754997  10.1749988  15.4984679  90.2999443  10.3156815
  15.8910012  78.4554997  11.7299988  15.1550012  79.0664997  11.6919988
  16.5740012  78.8704997  11.2029988  15.8826541  78.5951374  11.6535832
   8.8940012  76.5424997   9.1959988   8.7770012  75.5934997   9.1409988
   8.0390012  76.8744997   9.4689988   8.7623733  76.4575409   9.2253897
  13.8420012  91.9504997   6.9379988  14.2680012  91.2434997   6.4529988
  14.1590012  92.7514997   6.5209988  13.9431019  91.9620994   6.8153130
  15.0020012  89.8514997   5.4459988  14.7440012  89.1614997   4.8349988
  15.0730012  89.4084997   6.2919988  14.9762856  89.6972124   5.4766885
  16.6880012  88.4174997  13.9239988  16.8280012  87.8264997  13.1839988
  16.8550012  89.2904997  13.5669988  16.7296778  88.4546426  13.7746965
  11.1610012  85.3794997   3.6959988  10.4490012  85.9144997   3.3439988
  11.8520012  85.4354997   3.0359988  11.1570132  85.4602543   3.5586289
  11.2140012  83.8374997   0.7349988  11.9150012  83.8594997   1.3859988
  11.5170012  83.2094997   0.0789988  11.3507830  83.7556566   0.7353711
  18.5300012  84.7574997  11.9899988  17.8770012  85.4524997  12.0789988
  18.9950012  84.9674997  11.1799988  18.5035390  84.8809425  11.8926883
  14.5660012  85.5894997   4.6479988  13.8340012  85.8174997   5.2209988
  15.0140012  84.8754997   5.1029988  14.5263095  85.5242571   4.7879119
  14.4640012  83.7634997  13.7149988  14.5440012  84.5264997  14.2869988
  13.8620012  84.0424997  13.0249988  14.3935756  83.9057134  13.7000589
   6.2120012  86.2194997   6.5299988   5.8810012  85.8494997   5.7119988
   6.8000012  85.5494997   6.8769988   6.2461873  86.0781156   6.4648102
   7.5780012  89.6474997   9.2119988   7.4840012  89.0694997   8.4549988
   8.3080012  89.2764997   9.7079988   7.6637981  89.5182390   9.1754165
   6.5780012  84.9884997  10.1639988   7.1440012  85.1094997   9.4009988
   6.8970012  85.6254997  10.8029988   6.6985786  85.0911884  10.1460040
  12.8870012  90.4914997  10.8979988  12.6470012  91.1534997  11.5459988
  12.6890012  89.6574997  11.3229988  12.8273808  90.4693134  11.0441524
   7.4580012  89.3874997  14.8809988   7.1470012  90.1694997  15.3359988
   6.8080012  89.2344997  14.1949988   7.3275558  89.4739105  14.8505871
  13.4370012  84.7514997   2.3329988  14.0170012  84.9014997   3.0799988
  13.8510012  85.2224997   1.6099988  13.5722830  84.8356841   2.3374134
   4.3780012  85.5854997  14.1099988   4.4490012  86.2364997  14.8079988
   3.4880012  85.6884997  13.7749988   4.2673117  85.6885936  14.1602700
  11.1640012  91.4884997   5.7679988  11.6380012  91.7834997   6.5459988
  10.6010012  92.2264997   5.5349988  11.1527653  91.6286932   5.8430136
   5.6980012  91.4594997  15.6439988   5.7050012  91.3234997  14.6969988
   4.7820012  91.3414997  15.8959988   5.5751714  91.4249430  15.5484666
  17.1360012  76.5014997   2.1459988  16.2360012  76.6404997   2.4409988
  17.3880012  77.3324997   1.7439988  17.0468702  76.6329074   2.1320205
   5.2020012  85.2894997   4.1199988   4.9100012  86.0574997   3.6289988
   4.5280012  84.6294997   3.9569988   5.0709081  85.3054406   4.0307340
  18.3250012  90.8674997   0.5219988  18.3990012  91.8064997   0.6929988
  19.2310012  90.5624997   0.4659988  18.4575100  90.9546722   0.5378119
   1.2950012  87.6524997  12.9349988   0.7940012  87.6244997  12.1199988
   1.3000012  86.7464997  13.2439988   1.2271526  87.5262278  12.8652872
   1.0450012  90.4324997   9.8189988   1.9910012  90.2884997   9.7999988
   0.9330012  91.2164997  10.3559988   1.1592727  90.5188046   9.8890072
  19.2430012  91.0984997  15.5009988  19.1940012  90.1434997  15.4639988
  18.4160012  91.3664997  15.9019988  19.1244940  91.0038998  15.5501375
  10.2220012  90.6724997  14.3769988  10.3090012  91.4984997  14.8519988
   9.3580012  90.3424997  14.6259988  10.1171964  90.7409878  14.4756549
  10.6360012  94.4444997   4.1829988  10.5610012  94.3234997   3.2369988
  10.6690012  95.3944997   4.3019988  10.6301848  94.5562500   4.0694834
   4.2890012  93.2334997   5.9639988   4.4420012  92.8854997   6.8429988
   3.4390012  92.8774997   5.7089988   4.1948962  93.1376650   6.0498340
  13.7380012  93.5984997   1.1849988  14.1130012  92.8544997   0.7149988
  13.7420012  93.3284997   2.1039988  13.7898915  93.4601486   1.2447824
  13.4070012  93.5244997   3.9349988  12.4710012  93.6244997   4.1129988
  13.6870012  92.8154997   4.5129988  13.3168255  93.4422711   4.0375391
  16.3950012  82.5914997  15.9809988  15.9880012  83.0724997  15.2599988
  16.4360012  81.6864997  15.6729988  16.3448437  82.5349374  15.8406683
   3.5440012  88.9754997  13.9779988   3.7600012  88.6144997  14.8369988
   2.6890012  88.6014997  13.7679988   3.4579292  88.8754111  14.0673386
   6.1630012  77.4454997   9.9729988   5.3010012  77.3584997   9.5659988
   6.1400012  78.3014997  10.4009988   6.0420330  77.5492765   9.9751863
  10.8260012  77.1674997  13.3479988  11.2460012  76.7524997  14.1009988
   9.8930012  76.9894997  13.4649988  10.7573644  77.0865900  13.4669539
  14.1520012  80.9234997  14.2009988  13.6380012  80.7974997  14.9989988
  13.9970012  81.8354997  13.9569988  14.0606852  81.0296132  14.2772158
  14.9150012  85.7844997  -0.0370012  14.9570012  85.5614997  -0.9670012
  15.7640012  86.1834997   0.1529988  15.0355396  85.8079155  -0.1386373
  10.4870012  79.6604997   0.6329988  10.2340012  79.6794997   1.5559988
  10.2310012  78.7884997   0.3319988  10.4177790  79.5452437   0.7186263
   6.2540012  82.4114997  11.0679988   5.6120012  82.3704997  11.7769988
   6.2910012  83.3374997  10.8309988   6.1711324  82.5311559  11.1329824
   6.2510012  82.6324997   5.9799988   5.3580012  82.2914997   5.9219988
   6.7010012  82.2554997   5.2249988   6.1897305  82.5348484   5.8699177
  11.7860012  83.0484997   4.7969988  11.3770012  83.8634997   4.5059988
  12.5070012  82.9084997   4.1829988  11.8274537  83.1412018   4.6741342
  10.8880012  83.2234997  16.2849988  10.3260012  82.5194997  16.6059988
  11.7150012  83.1034997  16.7529988  10.9227095  83.1107883  16.3922330
  12.7910012  82.4944997   7.6109988  12.5960012  83.0994997   6.8959988
  12.9720012  81.6604997   7.1769988  12.7887614  82.4646300   7.4544405
   4.0040012  82.7314997  12.9349988   3.9660012  83.1314997  13.8039988
   3.5130012  81.9144997  13.0259988   3.9324684  82.6758069  13.0661059
   7.3700012  80.1054997  -0.2660012   6.9390012  79.6604997   0.4639988
   6.6520012  80.4774997  -0.7780012   7.2139438  80.0948940  -0.2353201
   0.6120012  79.8474997   6.7859988   1.2430012  79.8184997   7.5049988
   1.0610012  79.4224997   6.0559988   0.7590774  79.7860492   6.7856553
   1.8860012  80.5934997   2.2099988   2.3600012  81.1844997   1.6249988
   1.1690012  81.1244997   2.5569988   1.8539341  80.7460867   2.1768836
  12.0550012  84.1324997  12.2829988  12.3780012  83.5014997  11.6399988
  11.6150012  83.5974997  12.9429988  12.0396895  83.9738441  12.2842850
   8.8320012  80.0594997   7.0669988   7.9210012  80.1164997   7.3549988
   9.3380012  79.9994997   7.8769988   8.7755413  80.0591985   7.2160622
   3.6610012  81.6884997   5.8929988   2.7710012  81.7884997   5.5529988
   3.9570012  80.8464997   5.5469988   3.5792823  81.5883546   5.7997213
   7.3140012  81.6884997   3.5499988   8.2450012  81.8174997   3.7279988
   7.0990012  82.3584997   2.8999988   7.4124247  81.7966565   3.4865747
  13.2370012  79.2944997  10.3309988  12.5610012  79.4254997  10.9949988
  12.7520012  79.1394997   9.5209988  13.0787145  79.2914905  10.3124517
   5.9880012  82.8834997   1.1169988   5.4450012  82.5034997   0.4249988
   6.8210012  83.0774997   0.6879988   6.0264399  82.8578124   0.9644526
  16.5250012  94.9664997  16.6079988  16.7250012  95.3904997  15.7729988
  17.1800012  95.3094997  17.2149988  16.6410051  95.0709648  16.5757836
   4.1230012  87.4404997  16.2159988   4.8550012  87.6944997  16.7769988
   3.3430012  87.6444997  16.7309988   4.1178232  87.5029177  16.3625760
  10.1520012  82.8474997   8.9539988  10.7170012  82.3004997   8.4069988
  10.0050012  82.3254997   9.7419988  10.2092918  82.7022024   8.9858454
   5.1540012  78.9834997   5.3719988   4.8370012  78.0814997   5.3369988
   5.9360012  78.9854997   4.8189988   5.2162284  78.8601628   5.2924783
   8.7790012  81.2354997  11.3679988   7.9430012  81.6894997  11.4779988
   9.3030012  81.5114997  12.1199988   8.7354414  81.3349376  11.4847136
   9.3230012  87.4484997   3.0519988   8.5780012  86.9414997   2.7299988
   9.1890012  87.4974997   3.9989988   9.2028776  87.3856940   3.1358647
  16.4730012  86.5814997  11.8389988  17.1150012  87.0384997  11.2949988
  15.6430012  86.6944997  11.3759988  16.4485963  86.6592704  11.7020177
  13.2210012  80.2624997   1.2519988  12.2820012  80.3744997   1.0999988
  13.5180012  81.1194997   1.5579988  13.1327666  80.3936443   1.2725768
  10.8420012  87.6324997  14.2889988  10.4970012  87.2514997  15.0959988
  10.6420012  88.5664997  14.3609988  10.7678061  87.7065228  14.4090961
  13.9390012  82.1294997   2.9119988  14.8310012  81.9924997   3.2309988
  13.9960012  82.9204997   2.3759988  14.0686285  82.2176660   2.8831690
   4.4480012  86.7434997   8.8219988   5.1930012  86.7414997   8.2209988
   4.5260012  85.9204997   9.3039988   4.5605518  86.6319315   8.8048929
  11.4490012  88.9074997   2.0779988  11.1530012  89.7334997   2.4589988
  10.7460012  88.2874997   2.2739988  11.3134914  88.9368199   2.1566443
   1.4560012  85.2044997  14.1369988   1.6790012  84.7864997  14.9689988
   0.8540012  84.5914997  13.7139988   1.4051759  85.0644668  14.1937022
   8.4720012  84.7214997  16.3499988   8.1760012  84.5554997  15.4549988
   9.4040012  84.5014997  16.3389988   8.5574166  84.6690640  16.2260536
  13.0930012  90.0944997  14.2399988  12.1920012  90.2774997  13.9719988
  13.1270012  90.3534997  15.1609988  12.9743041  90.1545512  14.3278197
  18.8240012  82.3394997   2.6069988  18.2700012  81.9434997   1.9349988
  18.9240012  83.2494997   2.3289988  18.7617059  82.4083586   2.4774401
  18.7870012  88.1394997  15.4439988  17.9360012  88.3774997  15.0769988
  19.3780012  88.1224997  14.6909988  18.7502487  88.1698258  15.2918893
  17.1190012  91.1254997   3.0719988  16.7460012  90.2994997   3.3809988
  17.3970012  90.9424997   2.1749988  17.1055630  90.9877303   2.9929626
  14.2800012  85.9334997  10.0929988  13.3510012  85.7014997  10.0659988
  14.7310012  85.1564997   9.7629988  14.2139216  85.7967238  10.0446917
   6.8230012  90.2614997   6.2259988   7.3500012  91.0344997   6.0259988
   5.9430012  90.4864997   5.9249988   6.7761773  90.3978005   6.1579010
   2.5780012  85.1234997   0.8129988   3.1940012  85.7504997   1.1929988
   1.7160012  85.4394997   1.0849988   2.5457698  85.2519430   0.9017183
   8.2500012  87.9244997   5.8029988   8.0090012  88.8494997   5.8439988
   7.5090012  87.4654997   6.1989988   8.1168409  87.9891421   5.8621377
   8.7650012  92.0734997  12.1179988   9.1270012  92.9284997  11.8839988
   9.2960012  91.7814997  12.8579988   8.8864473  92.1511060  12.1860855
   6.9330012  92.9464997   5.3479988   5.9830012  93.0514997   5.3989988
   7.2850012  93.7664997   5.6929988   6.8504203  93.0718314   5.4016650
  12.3090012  88.1724997  11.8179988  11.8830012  87.9454997  12.6449988
  12.8890012  87.4344997  11.6359988  12.3291868  88.0415299  11.9065830
  14.5120012  89.1014997   0.8919988  14.8650012  88.7214997   1.6969988
  13.5630012  89.0084997   0.9789988  14.4320441  89.0369596   1.0138559
  14.9670012  92.7244997  14.2879988  14.3660012  92.1694997  13.7919988
  15.2490012  93.3914997  13.6619988  14.9228519  92.7386841  14.1354952
  19.0150012  93.5814997   1.0929988  19.7590012  94.1674997   0.9529988
  18.3210012  94.1494997   1.4269988  19.0230292  93.7385582   1.1189961
   3.0900012  79.9574997  13.6949988   2.1970012  80.2964997  13.6269988
   2.9910012  79.1024997  14.1129988   2.9544164  79.8882588  13.7422235
  15.3780012  87.7744997   3.1189988  15.1000012  87.0464997   3.6749988
  16.3050012  87.8934997   3.3239988  15.4653124  87.6908802   3.2228845
   2.7410012  91.7624997  12.1299988   2.9580012  90.8304997  12.0989988
   2.9870012  92.0364997  13.0129988   2.8039549  91.6720636  12.2451763
   8.6030012  90.2134997  -0.6610012   8.8420012  89.4654997  -1.2080012
   8.3340012  89.8254997   0.1719988   8.5993675  90.0586638  -0.6233135
   7.5400012  89.7834997   1.7959988   7.6860012  89.2634997   2.5859988
   7.5370012  90.6904997   2.1019988   7.5595989  89.8348853   1.9456088
   3.9930012  87.0364997   2.3059988   3.3070012  87.3884997   2.8729988
   4.5150012  87.7994997   2.0589988   3.9696852  87.1878578   2.3502118
  11.8240012  79.6984997  12.5849988  12.5230012  79.7724997  13.2349988
  11.4430012  78.8344997  12.7389988  11.8681767  79.5917624  12.6948322
  12.6090012  79.3504997   3.6819988  12.8290012  79.8224997   2.8789988
  13.1670012  79.7454997   4.3519988  12.7144968  79.4684285   3.6627331
  10.2770012  91.4814997   2.5449988   9.4610012  91.9784997   2.5969988
  10.8070012  91.9564997   1.9049988  10.2369161  91.6137722   2.4655956
   9.8090012  81.0784997   4.5169988  10.6210012  81.5834997   4.5629988
   9.5640012  80.9334997   5.4309988   9.8870520  81.1280375   4.6468517
  10.3440012  82.0644997  13.7019988  10.4630012  82.6384997  14.4589988
  11.0000012  81.3764997  13.8159988  10.4489757  82.0501079  13.8210825
  10.6920012  78.1594997   5.4549988  10.3460012  78.7774997   6.0999988
  11.3510012  78.6604997   4.9739988  10.7337826  78.3115802   5.4780971
   7.6160012  92.5254997   2.5269988   7.7760012  93.3244997   2.0259988
   7.4180012  92.8314997   3.4119988   7.6111649  92.6764469   2.5779815
   6.3500012  79.2224997   2.1419988   6.2670012  80.1114997   2.4889988
   7.2400012  78.9574997   2.3739988   6.4589469  79.3081430   2.2207626
  16.5490012  79.9714997  14.5369988  15.6320012  80.2344997  14.4489988
  16.8840012  79.9684997  13.6399988  16.4689900  80.0070224  14.4037919
  15.1510012  83.7224997   8.6319988  14.3530012  83.3074997   8.3039988
  15.5960012  83.0314997   9.1229988  15.1019885  83.5723543   8.6534889
   4.6090012  89.6504997   1.2029988   5.2010012  90.3494997   1.4789988
   5.0680012  89.2174997   0.4829988   4.7521142  89.6877049   1.1434830
   2.9250012  82.3144997   0.3189988   2.8800012  83.2534997   0.4969988
   2.0370012  82.0784997   0.0489988   2.7988574  82.4111892   0.3068912
  16.2370012  92.9784997  10.2549988  16.0820012  93.6564997   9.5979988
  17.1700012  93.0504997  10.4579988  16.3418500  93.0810170  10.1925119
   3.7330012  77.0964997   8.9919988   3.5040012  77.1554997   8.0639988
   3.2900012  76.3044997   9.2979988   3.6418530  76.9975753   8.9064786
   2.6630012  91.0364997   5.1519988   1.8310012  91.5094997   5.1799988
   3.2090012  91.5464997   4.5539988   2.6229739  91.1701871   5.0749716
   1.9510012  93.6494997  16.4819988   2.4920012  93.4324997  17.2419988
   1.4700012  92.8434997  16.2929988   1.9599345  93.5109514  16.5603076
   6.5490012  92.5684997  18.1029988   7.3160012  92.1094997  18.4439988
   6.5270012  92.3424997  17.1729988   6.6511434  92.4750409  18.0240043
  10.6410012  92.0764997  -0.5220012   9.9970012  91.4454997  -0.2010012
  11.4030012  91.5454997  -0.7540012  10.6558077  91.9182920  -0.5093989
  13.1260012  90.9484997  16.8319988  12.7750012  90.0924997  17.0749988
  13.8520012  91.0914997  17.4389988  13.1760769  90.8505636  16.9473619
  15.2450012  91.8934997  -0.2880012  15.5280012  91.0994997   0.1639988
  15.9850012  92.1264997  -0.8490012  15.3837486  91.8162803  -0.3019302
   1.8580012  87.4594997  17.4369988   2.0020012  86.5574997  17.1499988
   1.0860012  87.7454997  16.9489988   1.7733322  87.3748261  17.3317881
   6.2000012  87.8034997  -0.4310012   6.2640012  87.0094997   0.0999988
   6.8530012  87.6844997  -1.1210012   6.2970241  87.6787148  -0.4515683
   8.5140012  87.4294997  16.8689988   8.1850012  87.7004997  16.0119988
   8.6660012  86.4884997  16.7819988   8.4894809  87.3393862  16.7398244
  11.5520012  88.8504997  -0.6950012  11.2830012  89.0304997   0.2059988
  11.3460012  87.9244997  -0.8260012  11.4873825  88.7500152  -0.5894786
  14.2480012  87.3454997  14.2529988  14.9940012  87.9334997  14.1329988
  13.4910012  87.9274997  14.3159988  14.2477554  87.5047011  14.2450907
   2.6910012  84.6594997  16.8569988   3.0990012  83.8024997  16.7359988
   2.4310012  84.6744997  17.7779988   2.7117568  84.5440807  16.9649588
   7.3490012  85.7754997   1.8749988   6.8890012  85.2914997   2.5609988
   7.6040012  85.1074997   1.2389988   7.3204902  85.6188731   1.8829334
   6.6380012  83.6684997  14.2309988   6.0200012  84.3434997  14.5109988
   6.9820012  83.9894997  13.3979988   6.5999615  83.8042721  14.1566581
   8.4200012  84.0184997   0.1369988   8.2400012  83.8644997  -0.7900012
   9.3700012  84.1264997   0.1819988   8.5237776  84.0120175   0.0161843
  11.6580012  86.1404997  17.5079988  12.6110012  86.2234997  17.4809988
  11.4970012  85.4284997  18.1279988  11.7666426  86.0556746  17.5880578
  17.8100012  86.3734997  -0.4170012  17.5360012  85.9484997  -1.2300012
  17.8490012  87.3044997  -0.6340012  17.7777699  86.4412484  -0.5576390
   6.9770012  81.0234997  15.3129988   7.1270012  80.2944997  14.7109988
   6.9800012  81.8004997  14.7539988   6.9979302  81.0287851  15.1550692
   7.3900012  79.3934997  12.8059988   7.9260012  79.8444997  12.1539988
   6.5380012  79.2854997  12.3829988   7.3482178  79.4406390  12.6595756
   8.9720012  84.8324997  13.0449988   9.7220012  84.6764997  12.4719988
   8.6330012  85.6844997  12.7699988   9.0288921  84.9262968  12.9293561
  13.3870012  82.6474997  18.0739988  13.5800012  81.7164997  17.9619988
  14.2450012  83.0724997  18.0639988  13.5293020  82.5776389  18.0573361
  14.7040012  85.4364997  16.1509988  14.4230012  86.1454997  15.5739988
  15.6470012  85.3634997  15.9999988  14.7929027  85.5237646  16.0515551
   5.4560012  82.2214997  17.2249988   4.6890012  81.6894997  17.0149988
   6.1350012  81.9114997  16.6249988   5.4427022  82.1067506  17.1151648
   8.1960012  76.8494997  13.2369988   8.0970012  77.7964997  13.1319988
   7.4530012  76.4774997  12.7619988   8.0820564  76.9285902  13.1584560
   9.4600012  81.1714997  16.8009988   9.2240012  80.9514997  17.7029988
   8.6760012  80.9644997  16.2909988   9.3218628  81.1134760  16.8553932
  12.1750012  80.2984997  15.8769988  11.2280012  80.3304997  16.0089988
  12.4880012  79.6734997  16.5299988  12.0875475  80.2183207  15.9834455
  13.8090012  78.9324997  17.8819988  13.7130012  77.9804997  17.8759988
  13.4880012  79.2014997  18.7419988  13.7524070  78.8384035  17.9975441
   3.6360012  80.1424997  16.9289988   3.8480012  79.4354997  16.3189988
   3.5250012  79.7044997  17.7729988   3.6499721  79.9867084  16.9596843
   8.4170012  76.1434997  15.9089988   9.1290012  75.5034997  15.8949988
   8.3160012  76.4104997  14.9949988   8.5007939  76.0919938  15.7835650
   8.7710012  77.8264997  17.9619988   8.6390012  77.3504997  17.1419988
   8.1720012  78.5704997  17.9069988   8.6719071  77.8619618  17.8422886
   8.3170012  94.7094997   1.1389988   9.2500012  94.8674997   1.2819988
   8.0530012  95.3844997   0.5139988   8.4089510  94.8223611   1.0740741
   1.8860012  89.3454997   0.6209988   2.8000012  89.4244997   0.8949988
   1.8930012  88.6584997  -0.0450012   2.0121131  89.2633961   0.5684393
   0.5350012  94.7384997   5.6989988  -0.1119988  94.2764997   5.1659988
   0.8890012  94.0664997   6.2809988   0.4943849  94.5844723   5.7047959
   1.4050012  92.8194997   7.5029988   1.0700012  91.9394997   7.6749988
   1.6270012  93.1644997   8.3679988   1.3891783  92.7457500   7.6434208
  18.9530012  93.6284997  10.4839988  18.9320012  93.8134997  11.4229988
  19.6440012  94.1974997  10.1429988  19.0434618  93.7306606  10.5663864
  18.5170012  93.1964997  13.4059988  18.0290012  92.4604997  13.0349988
  19.0660012  92.8024997  14.0839988  18.5244872  93.0426249  13.4469160
  16.9670012  88.9854997  18.0439988  16.1010012  88.8804997  18.4379988
  17.3440012  89.7444997  18.4899988  16.8993308  89.0736900  18.1582393
  18.2680012  87.2424997   3.5579988  19.1180012  87.6634997   3.6849988
  18.2740012  86.5024997   4.1649988  18.3851372  87.2000803   3.6574344
  18.6630012  85.2954997   5.3819988  17.9360012  84.8164997   5.7789988
  19.2440012  85.5014997   6.1139988  18.6419375  85.2577090   5.5354129
  18.4220012  88.0804997  10.3289988  19.2550012  87.7024997  10.0489988
  18.5340012  89.0234997  10.2099988  18.5512647  88.1562218  10.2745487
  16.9080012  90.9584997  12.6359988  16.2610012  91.2834997  13.2619988
  16.3910012  90.5184997  11.9619988  16.7494029  90.9435004  12.6305827
  18.9310012  85.1964997   1.7729988  18.4090012  85.5534997   1.0539988
  18.8980012  85.8714997   2.4509988  18.8551634  85.3365413   1.7663145
  17.2800012  82.4364997   0.3239988  17.3760012  83.1034997  -0.3570012
  17.1400012  81.6204997  -0.1580012  17.2742135  82.4174500   0.1658491
  16.4490012  83.8164997   5.9449988  16.2990012  82.8714997   5.9239988
  16.0960012  84.0974997   6.7879988  16.3806625  83.7250441   6.0562346
   1.4850012  85.8944997   9.9549988   1.6690012  85.8124997   9.0189988
   2.3340012  85.7704997  10.3789988   1.6250139  85.8665003   9.8841455
  17.3060012  85.7864997  15.5829988  17.8890012  85.0524997  15.7749988
  17.8700012  86.5584997  15.6299988  17.4619769  85.7904227  15.6156159
  18.8020012  83.6894997  16.2679988  17.9390012  83.3104997  16.1019988
  19.4070012  82.9504997  16.1939988  18.7655979  83.5378023  16.2352817
  16.5270012  79.8444997  -0.5590012  17.1380012  79.4734997   0.0779988
  15.6910012  79.4234997  -0.3630012  16.4975032  79.7367554  -0.4452965
  16.1600012  81.3994997   4.4069988  16.4400012  80.4924997   4.5309988
  16.9190012  81.8334997   4.0179988  16.3009277  81.3340942   4.3713682
  16.7720012  81.9804997   9.8429988  17.7050012  82.1924997   9.8089988
  16.5370012  82.0824997  10.7649988  16.8678036  82.0232769   9.9629976
  16.8010012  82.7174997  12.6189988  15.9580012  82.9854997  12.9849988
  17.2430012  83.5394997  12.4079988  16.7454158  82.8653291  12.6405491
   1.0820012  81.1654997  16.0959988   2.0020012  81.0434997  16.3319988
   0.6330012  80.4154997  16.4849988   1.1471580  81.0473727  16.1809006
  19.0840012  76.6974997  17.9719988  19.4340012  76.0434997  17.3669988
  19.2310012  77.5344997  17.5329988  19.1518419  76.7211591  17.8297118
  16.7730012  78.6624997   4.4549988  16.9560012  78.2134997   5.2809988
  16.1740012  78.0774997   3.9919988  16.7170202  78.5219975   4.5053275
   2.3030012  79.4774997   8.9869988   2.7490012  78.6854997   9.2889988
   2.7700012  80.1934997   9.4179988   2.4270172  79.4660624   9.0864820
   0.6070012  82.4764997  10.0559988   1.0990012  82.2554997   9.2649988
   0.9700012  83.3174997  10.3369988   0.7233126  82.5598357   9.9857531
  18.6040012  78.8064997  16.3219988  17.6860012  79.0774997  16.2859988
  18.7270012  78.2714997  15.5369988  18.4951066  78.7712892  16.2110487
  18.6400012  78.7294997   0.9829988  19.0520012  78.0084997   0.5079988
  19.3220012  79.3994997   1.0419988  18.7885885  78.7212368   0.9258915
   0.9210012  78.7344997   4.1099988  -0.0039988  78.9434997   3.9809988
   1.3750012  79.2184997   3.4209988   0.8557368  78.8285993   3.9991226
  15.6920012  93.7184997   6.0559988  16.3440012  93.3714997   5.4479988
  16.2020012  94.2074997   6.7019988  15.8502637  93.7370597   6.0600236
   0.8850012  77.4724997  12.4549988   0.2200012  77.2264997  13.0979988
   0.4420012  78.0944997  11.8769988   0.7340956  77.5228632  12.4649352
   3.0770012  90.6474997  16.5989988   2.2560012  90.8224997  16.1389988
   2.8240012  90.5744997  17.5199988   2.9306164  90.6615622  16.6604923
   6.0310012  91.6224997  12.8579988   5.6060012  92.4314997  12.5749988
   6.9350012  91.7074997  12.5559988   6.0950271  91.7448469  12.7783776
  10.3420012  93.0214997  15.8169988  10.5270012  92.6874997  16.6949988
  11.1880012  93.3304997  15.4949988  10.4817539  93.0176047  15.8935605
  12.6870012  94.3074997  15.0609988  13.3640012  93.6744997  14.8209988
  13.0090012  94.7084997  15.8679988  12.8231637  94.2751154  15.1372793
  17.6040012  76.8964997  14.1409988  16.7920012  77.2214997  13.7529988
  17.8370012  76.1364997  13.6079988  17.5243423  76.8382436  14.0158253
   3.4330012  94.8784997  12.9049988   2.7120012  95.3184997  12.4539988
   3.0670012  94.6274997  13.7539988   3.2849804  94.9047698  12.9579840
   5.9000012  94.4784997  11.9349988   5.0350012  94.5504997  12.3389988
   5.8450012  95.0254997  11.1509988   5.7742085  94.5622685  11.8843362
  10.6100012  94.3664997  11.1099988  10.1540012  94.8954997  10.4559988
  10.7730012  94.9694997  11.8359988  10.5695585  94.5204468  11.1185062
  12.9380012  93.2444997  12.0549988  12.0330012  93.4094997  11.7899988
  13.3670012  94.0974997  11.9899988  12.8720799  93.3824483  12.0099182
  15.5420012  94.8144997  12.3499988  15.3600012  95.7304997  12.1399988
  15.7190012  94.4044997  11.5039988  15.5410210  94.8844822  12.2067885
   2.8470012  93.5014997   9.8149988   2.8290012  93.0764997  10.6729988
   3.6520012  93.1834997   9.4069988   2.9533875  93.4003812   9.8771655
   4.9890012  92.2114997   8.4699988   4.7700012  91.2954997   8.6399988
   5.8130012  92.3514997   8.9359988   5.0704420  92.1050520   8.5562774
   7.5260012  92.6814997   9.3189988   7.7390012  91.7934997   9.0319988
   7.5900012  92.6474997  10.2729988   7.5638232  92.5553102   9.4087397
  11.0340012  78.3454997   8.4629988  10.3600012  77.7164997   8.7189988
  11.5980012  77.8614997   7.8599988  11.0179230  78.1938744   8.4165340
  16.1770012  76.4534997   8.5759988  16.7810012  77.0004997   8.0739988
  15.3070012  76.7724997   8.3359988  16.1421241  76.5715806   8.4747654
  17.9040012  77.5914997   6.9089988  18.5160012  77.0774997   6.3829988
  18.2860012  78.4694997   6.9329988  18.0394540  77.6397140   6.8401830
   3.3610012  76.9794997   6.2849988   2.5840012  76.7454997   5.7779988
   3.8910012  76.1824997   6.2939988   3.3262330  76.8396988   6.2167742
   2.1970012  76.7774997   2.0889988   2.6360012  77.3884997   1.4969988
   1.5640012  77.3154997   2.5629988   2.1714514  76.9339257   2.0720930
   7.9400012  76.9064997   6.0989988   8.8150012  77.2944997   6.0689988
   7.8040012  76.6914997   7.0209988   8.0413695  76.9305184   6.2196440
  13.4970012  76.9364997   7.7479988  13.5730012  77.0314997   6.7979988
  13.2220012  76.0284997   7.8769988  13.4702321  76.8267867   7.6355079
  14.8500012  76.9624997   3.4399988  14.1480012  77.5774997   3.2309988
  14.4060012  76.1244997   3.5709988  14.6936330  76.9335783   3.4290328
   2.0980012  92.7254997   2.9869988   1.4130012  92.6874997   2.3189988
   2.1020012  93.6384997   3.2749988   2.0048193  92.8437016   2.9345284
   4.0580012  78.6934997   0.5309988   4.5500012  78.0634997   0.0039988
   4.6820012  78.9894997   1.1949988   4.2095446  78.6473199   0.5485980
   9.0840012  78.9864997   2.9879988   9.2620012  78.3404997   3.6709988
   9.0310012  79.8204997   3.4559988   9.1011829  79.0107985   3.1445940
  10.9630012  93.9354997   1.3839988  11.8290012  94.3014997   1.2059988
  10.7160012  93.4954997   0.5699988  11.0482392  93.9261756   1.2496289
  17.6720012  93.4984997   4.0629988  17.4770012  92.7504997   3.4979988
  17.6330012  94.2564997   3.4799988  17.6400380  93.4986099   3.9068384
   3.3190012  77.4934997  15.8029988   2.9530012  76.7284997  16.2459988
   4.2320012  77.5224997  16.0899988   3.3922790  77.3927224  15.9024070
   5.2920012  76.8444997  17.3389988   6.1900012  76.5704997  17.1539988
   4.9050012  76.1014997  17.8029988   5.3626612  76.7065914  17.3763643
   3.9160012  93.6454997   0.0119988   3.6490012  93.9324997   0.8849988
   4.6880012  93.0994997   0.1639988   3.9837488  93.6110294   0.1521050
  13.7130012  76.1764997  17.5209988  13.7900012  75.7504997  18.3749988
  14.6070012  76.1904997  17.1779988  13.8443428  76.1200879  17.5915310
  16.8890012  92.2494997  16.2129988  16.1070012  92.0634997  15.6939988
  16.8170012  93.1784997  16.4309988  16.7721777  92.3496492  16.1714048
  31.2950012  86.1354997   6.2439988  31.3840012  87.0794997   6.1119988
  30.6570012  85.8604997   5.5859988  31.2209081  86.2274830   6.1369614
  30.2280012  85.3904997   9.6629988  30.1900012  84.7444997  10.3679988
  29.9060012  84.9244997   8.8919988  30.1792333  85.2389408   9.6552978
  22.5970012  85.0054997  11.2559988  22.6380012  84.3794997  11.9789988
  23.3000012  85.6294997  11.4379988  22.6976363  85.0041196  11.3796044
  33.9340012  88.3294997   7.9639988  33.4940012  87.6094997   8.4149988
  33.9210012  89.0504997   8.5939988  33.8720226  88.3283731   8.1108494
  23.5200012  89.4554997   9.7909988  23.1510012  88.6534997   9.4209988
  24.4610012  89.2864997   9.8369988  23.5967289  89.3230153   9.7466316
  20.1300012  83.1154997   5.1839988  19.6830012  83.9614997   5.1649988
  19.5690012  82.5354997   4.6679988  19.9929900  83.1529916   5.1116801
  20.8410012  85.2774997   7.3099988  21.0540012  84.5074997   7.8369988
  21.5790012  85.3664997   6.7059988  20.9698496  85.1841394   7.3005300
  31.0460012  93.4344997   8.1769988  31.6660012  92.7574997   7.9029988
  30.8380012  93.2164997   9.0849988  31.1026904  93.3123870   8.2623365
  28.6180012  87.8234997  10.0689988  28.9220012  87.1374997   9.4739988
  29.3390012  87.9414997  10.6869988  28.7570671  87.7456304  10.0711816
  37.2810012  79.4244997  10.9299988  37.3300012  80.0344997  11.6659988
  37.7060012  79.8854997  10.2069988  37.3451824  79.5703741  10.9330205
  31.7590012  82.2174997  10.3969988  31.9010012  81.2714997  10.4169988
  31.6520012  82.4244997   9.4679988  31.7639864  82.1159534  10.2742339
  24.9130012  80.3184997   7.6689988  24.9570012  81.1784997   7.2509988
  24.4560012  79.7664997   7.0349988  24.8572185  80.3615799   7.5260299
  32.6360012  80.4494997   6.0699988  33.2820012  80.1204997   6.6949988
  33.1460012  80.9674997   5.4469988  32.7934264  80.4744611   6.0713862
  21.5340012  82.7154997   8.4309988  22.1870012  82.1654997   8.8629988
  21.5580012  82.4414997   7.5139988  21.6266683  82.6031466   8.3662123
  26.6900012  84.2654997   7.6459988  27.3060012  83.7394997   8.1559988
  26.1040012  83.6254997   7.2429988  26.6950810  84.1069208   7.6613173
  37.6720012  80.9024997  13.1659988  36.9840012  81.5604997  13.0699988
  37.6880012  80.7054997  14.1019988  37.5798525  80.9660462  13.2794808
  23.7240012  79.2364997  11.7429988  23.5050012  79.7664997  10.9769988
  23.0560012  79.4634997  12.3899988  23.6037600  79.3396906  11.7256379
  31.0930012  88.7364997   5.2869988  30.7970012  88.4144997   4.4359988
  30.7680012  89.6364997   5.3279988  31.0086371  88.8140215   5.1761801
  26.2930012  86.9124997  12.0299988  25.5530012  87.5104997  12.1339988
  27.0070012  87.4664997  11.7149988  26.2882237  87.0692831  12.0016465
  34.4000012  79.7404997   8.0499988  34.1840012  78.9744997   8.5829988
  35.0550012  80.2124997   8.5629988  34.4590632  79.6995889   8.1922861
  23.3170012  81.1284997   9.6949988  23.9310012  81.7614997  10.0689988
  23.8290012  80.6564997   9.0389988  23.4702296  81.1512370   9.6574252
  24.7000012  88.8764997  12.8179988  24.6950012  89.7564997  12.4399988
  23.8470012  88.7934997  13.2429988  24.5839464  88.9856117  12.8237907
  20.8210012  88.5474997   3.5999988  20.5490012  88.7764997   2.7109988
  20.8670012  89.3854997   4.0599988  20.7900094  88.6921213   3.5405697
  34.4460012  90.1694997  10.3119988  33.5050012  90.2274997  10.4739988
  34.7230012  91.0754997  10.1749988  34.3544679  90.2999443  10.3156815
  34.7470012  78.4554997  11.7299988  34.0110012  79.0664997  11.6919988
  35.4300012  78.8704997  11.2029988  34.7386541  78.5951374  11.6535832
  27.7500012  76.5424997   9.1959988  27.6330012  75.5934997   9.1409988
  26.8950012  76.8744997   9.4689988  27.6183733  76.4575409   9.2253897
  32.6980012  91.9504997   6.9379988  33.1240012  91.2434997   6.4529988
  33.0150012  92.7514997   6.5209988  32.7991019  91.9620994   6.8153130
  33.8580012  89.8514997   5.4459988  33.6000012  89.1614997   4.8349988
  33.9290012  89.4084997   6.2919988  33.8322856  89.6972124   5.4766885
  35.5440012  88.4174997  13.9239988  35.6840012  87.8264997  13.1839988
  35.7110012  89.2904997  13.5669988  35.5856778  88.4546426  13.7746965
  30.0170012  85.3794997   3.6959988  29.3050012  85.9144997   3.3439988
  30.7080012  85.4354997   3.0359988  30.0130132  85.4602543   3.5586289
  30.0700012  83.8374997   0.7349988  30.7710012  83.8594997   1.3859988
  30.3730012  83.2094997   0.0789988  30.2067830  83.7556566   0.7353711
  37.3860012  84.7574997  11.9899988  36.7330012  85.4524997  12.0789988
  37.8510012  84.9674997  11.1799988  37.3595390  84.8809425  11.8926883
  33.4220012  85.5894997   4.6479988  32.6900012  85.8174997   5.2209988
  33.8700012  84.8754997   5.1029988  33.3823095  85.5242571   4.7879119
  33.3200012  83.7634997  13.7149988  33.4000012  84.5264997  14.2869988
  32.7180012  84.0424997  13.0249988  33.2495756  83.9057134  13.7000589
  25.0680012  86.2194997   6.5299988  24.7370012  85.8494997   5.7119988
  25.6560012  85.5494997   6.8769988  25.1021873  86.0781156   6.4648102
  26.4340012  89.6474997   9.2119988  26.3400012  89.0694997   8.4549988
  27.1640012  89.2764997   9.7079988  26.5197981  89.5182390   9.1754165
  25.4340012  84.9884997  10.1639988  26.0000012  85.1094997   9.4009988
  25.7530012  85.6254997  10.8029988  25.5545786  85.0911884  10.1460040
  31.7430012  90.4914997  10.8979988  31.5030012  91.1534997  11.5459988
  31.5450012  89.6574997  11.3229988  31.6833808  90.4693134  11.0441524
  26.3140012  89.3874997  14.8809988  26.0030012  90.1694997  15.3359988
  25.6640012  89.2344997  14.1949988  26.1835558  89.4739105  14.8505871
  32.2930012  84.7514997   2.3329988  32.8730012  84.9014997   3.0799988
  32.7070012  85.2224997   1.6099988  32.4282830  84.8356841   2.3374134
  23.2340012  85.5854997  14.1099988  23.3050012  86.2364997  14.8079988
  22.3440012  85.6884997  13.7749988  23.1233117  85.6885936  14.1602700
  30.0200012  91.4884997   5.7679988  30.4940012  91.7834997   6.5459988
  29.4570012  92.2264997   5.5349988  30.0087653  91.6286932   5.8430136
  24.5540012  91.4594997  15.6439988  24.5610012  91.3234997  14.6969988
  23.6380012  91.3414997  15.8959988  24.4311714  91.4249430  15.5484666
  35.9920012  76.5014997   2.1459988  35.0920012  76.6404997   2.4409988
  36.2440012  77.3324997   1.7439988  35.9028702  76.6329074   2.1320205
  24.0580012  85.2894997   4.1199988  23.7660012  86.0574997   3.6289988
  23.3840012  84.6294997   3.9569988  23.9269081  85.3054406   4.0307339
  37.1810012  90.8674997   0.5219988  37.2550012  91.8064997   0.6929988
  38.0870012  90.5624997   0.4659988  37.3135100  90.9546722   0.5378119
  20.1510012  87.6524997  12.9349988  19.6500012  87.6244997  12.1199988
  20.1560012  86.7464997  13.2439988  20.0831526  87.5262278  12.8652872
  19.9010012  90.4324997   9.8189988  20.8470012  90.2884997   9.7999988
  19.7890012  91.2164997  10.3559988  20.0152727  90.5188046   9.8890072
  38.0990012  91.0984997  15.5009988  38.0500012  90.1434997  15.4639988
  37.2720012  91.3664997  15.9019988  37.9804940  91.0038998  15.5501375
  29.0780012  90.6724997  14.3769988  29.1650012  91.4984997  14.8519988
  28.2140012  90.3424997  14.6259988  28.9731964  90.7409878  14.4756549
  29.4920012  94.4444997   4.1829988  29.4170012  94.3234997   3.2369988
  29.5250012  95.3944997   4.3019988  29.4861848  94.5562500   4.0694834
  23.1450012  93.2334997   5.9639988  23.2980012  92.8854997   6.8429988
  22.2950012  92.8774997   5.7089988  23.0508962  93.1376650   6.0498340
  32.5940012  93.5984997   1.1849988  32.9690012  92.8544997   0.7149988
  32.5980012  93.3284997   2.1039988  32.6458915  93.4601486   1.2447824
  32.2630012  93.5244997   3.9349988  31.3270012  93.6244997   4.1129988
  32.5430012  92.8154997   4.5129988  32.1728255  93.4422711   4.0375391
  35.2510012  82.5914997  15.9809988  34.8440012  83.0724997  15.2599988
  35.2920012  81.6864997  15.6729988  35.2008437  82.5349374  15.8406683
  22.4000012  88.9754997  13.9779988  22.6160012  88.6144997  14.8369988
  21.5450012  88.6014997  13.7679988  22.3139292  88.8754111  14.0673386
  25.0190012  77.4454997   9.9729988  24.1570012  77.3584997   9.5659988
  24.9960012  78.3014997  10.4009988  24.8980330  77.5492765   9.9751863
  29.6820012  77.1674997  13.3479988  30.1020012  76.7524997  14.1009988
  28.7490012  76.9894997  13.4649988  29.6133644  77.0865900  13.4669539
  33.0080012  80.9234997  14.2009988  32.4940012  80.7974997  14.9989988
  32.8530012  81.8354997  13.9569988  32.9166852  81.0296132  14.2772158
  33.7710012  85.7844997  -0.0370012  33.8130012  85.5614997  -0.9670012
  34.6200012  86.1834997   0.1529988  33.8915396  85.8079155  -0.1386373
  29.3430012  79.6604997   0.6329988  29.0900012  79.6794997   1.5559988
  29.0870012  78.7884997   0.3319988  29.2737790  79.5452437   0.7186263
  25.1100012  82.4114997  11.0679988  24.4680012  82.3704997  11.7769988
  25.1470012  83.3374997  10.8309988  25.0271324  82.5311559  11.1329824
  25.1070012  82.6324997   5.9799988  24.2140012  82.2914997   5.9219988
  25.5570012  82.2554997   5.2249988  25.0457305  82.5348484   5.8699177
  30.6420012  83.0484997   4.7969988  30.2330012  83.8634997   4.5059988
  31.3630012  82.9084997   4.1829988  30.6834537  83.1412018   4.6741342
  29.7440012  83.2234997  16.2849988  29.1820012  82.5194997  16.6059988
  30.5710012  83.1034997  16.7529988  29.7787095  83.1107883  16.3922330
  31.6470012  82.4944997   7.6109988  31.4520012  83.0994997   6.8959988
  31.8280012  81.6604997   7.1769988  31.6447614  82.4646300   7.4544405
  22.8600012  82.7314997  12.9349988  22.8220012  83.1314997  13.8039988
  22.3690012  81.9144997  13.0259988  22.7884684  82.6758069  13.0661059
  26.2260012  80.1054997  -0.2660012  25.7950012  79.6604997   0.4639988
  25.5080012  80.4774997  -0.7780012  26.0699438  80.0948940  -0.2353201
  19.4680012  79.8474997   6.7859988  20.0990012  79.8184997   7.5049988
  19.9170012  79.4224997   6.0559988  19.6150774  79.7860492   6.7856553
  20.7420012  80.5934997   2.2099988  21.2160012  81.1844997   1.6249988
  20.0250012  81.1244997   2.5569988  20.7099341  80.7460867   2.1768836
  30.9110012  84.1324997  12.2829988  31.2340012  83.5014997  11.6399988
  30.4710012  83.5974997  12.9429988  30.8956895  83.9738441  12.2842850
  27.6880012  80.0594997   7.0669988  26.7770012  80.1164997   7.3549988
  28.1940012  79.9994997   7.8769988  27.6315413  80.0591985   7.2160622
  22.5170012  81.6884997   5.8929988  21.6270012  81.7884997   5.5529988
  22.8130012  80.8464997   5.5469988  22.4352823  81.5883545   5.7997213
  26.1700012  81.6884997   3.5499988  27.1010012  81.8174997   3.7279988
  25.9550012  82.3584997   2.8999988  26.2684247  81.7966565   3.4865747
  32.0930012  79.2944997  10.3309988  31.4170012  79.4254997  10.9949988
  31.6080012  79.1394997   9.5209988  31.9347145  79.2914905  10.3124517
  24.8440012  82.8834997   1.1169988  24.3010012  82.5034997   0.4249988
  25.6770012  83.0774997   0.6879988  24.8824399  82.8578124   0.9644526
  35.3810012  94.9664997  16.6079988  35.5810012  95.3904997  15.7729988
  36.0360012  95.3094997  17.2149988  35.4970051  95.0709648  16.5757836
  22.9790012  87.4404997  16.2159988  23.7110012  87.6944997  16.7769988
  22.1990012  87.6444997  16.7309988  22.9738232  87.5029177  16.3625760
  29.0080012  82.8474997   8.9539988  29.5730012  82.3004997   8.4069988
  28.8610012  82.3254997   9.7419988  29.0652918  82.7022024   8.9858454
  24.0100012  78.9834997   5.3719988  23.6930012  78.0814997   5.3369988
  24.7920012  78.9854997   4.8189988  24.0722284  78.8601628   5.2924783
  27.6350012  81.2354997  11.3679988  26.7990012  81.6894997  11.4779988
  28.1590012  81.5114997  12.1199988  27.5914414  81.3349376  11.4847136
  28.1790012  87.4484997   3.0519988  27.4340012  86.9414997   2.7299988
  28.0450012  87.4974997   3.9989988  28.0588776  87.3856940   3.1358647
  35.3290012  86.5814997  11.8389988  35.9710012  87.0384997  11.2949988
  34.4990012  86.6944997  11.3759988  35.3045963  86.6592704  11.7020177
  32.0770012  80.2624997   1.2519988  31.1380012  80.3744997   1.0999988
  32.3740012  81.1194997   1.5579988  31.9887666  80.3936443   1.2725768
  29.6980012  87.6324997  14.2889988  29.3530012  87.2514997  15.0959988
  29.4980012  88.5664997  14.3609988  29.6238061  87.7065228  14.4090961
  32.7950012  82.1294997   2.9119988  33.6870012  81.9924997   3.2309988
  32.8520012  82.9204997   2.3759988  32.9246285  82.2176660   2.8831690
  23.3040012  86.7434997   8.8219988  24.0490012  86.7414997   8.2209988
  23.3820012  85.9204997   9.3039988  23.4165518  86.6319315   8.8048929
  30.3050012  88.9074997   2.0779988  30.0090012  89.7334997   2.4589988
  29.6020012  88.2874997   2.2739988  30.1694914  88.9368199   2.1566443
  20.3120012  85.2044997  14.1369988  20.5350012  84.7864997  14.9689988
  19.7100012  84.5914997  13.7139988  20.2611759  85.0644668  14.1937022
  27.3280012  84.7214997  16.3499988  27.0320012  84.5554997  15.4549988
  28.2600012  84.5014997  16.3389988  27.4134166  84.6690640  16.2260536
  31.9490012  90.0944997  14.2399988  31.0480012  90.2774997  13.9719988
  31.9830012  90.3534997  15.1609988  31.8303041  90.1545512  14.3278197
  37.6800012  82.3394997   2.6069988  37.1260012  81.9434997   1.9349988
  37.7800012  83.2494997   2.3289988  37.6177059  82.4083586   2.4774401
  37.6430012  88.1394997  15.4439988  36.7920012  88.3774997  15.0769988
  38.2340012  88.1224997  14.6909988  37.6062487  88.1698258  15.2918893
  35.9750012  91.1254997   3.0719988  35.6020012  90.2994997   3.3809988
  36.2530012  90.9424997   2.1749988  35.9615630  90.9877303   2.9929626
  33.1360012  85.9334997  10.0929988  32.2070012  85.7014997  10.0659988
  33.5870012  85.1564997   9.7629988  33.0699216  85.7967238  10.0446917
  25.6790012  90.2614997   6.2259988  26.2060012  91.0344997   6.0259988
  24.7990012  90.4864997   5.9249988  25.6321773  90.3978005   6.1579010
  21.4340012  85.1234997   0.8129988  22.0500012  85.7504997   1.1929988
  20.5720012  85.4394997   1.0849988  21.4017698  85.2519430   0.9017183
  27.1060012  87.9244997   5.8029988  26.8650012  88.8494997   5.8439988
  26.3650012  87.4654997   6.1989988  26.9728409  87.9891421   5.8621377
  27.6210012  92.0734997  12.1179988  27.9830012  92.9284997  11.8839988
  28.1520012  91.7814997  12.8579988  27.7424473  92.1511060  12.1860855
  25.7890012  92.9464997   5.3479988  24.8390012  93.0514997   5.3989988
  26.1410012  93.7664997   5.6929988  25.7064203  93.0718314   5.4016650
  31.1650012  88.1724997  11.8179988  30.7390012  87.9454997  12.6449988
  31.7450012  87.4344997  11.6359988  31.1851868  88.0415299  11.9065830
  33.3680012  89.1014997   0.8919988  33.7210012  88.7214997   1.6969988
  32.4190012  89.0084997   0.9789988  33.2880441  89.0369596   1.0138559
  33.8230012  92.7244997  14.2879988  33.2220012  92.1694997  13.7919988
  34.1050012  93.3914997  13.6619988  33.7788519  92.7386841  14.1354952
  37.8710012  93.5814997   1.0929988  38.6150012  94.1674997   0.9529988
  37.1770012  94.1494997   1.4269988  37.8790292  93.7385582   1.1189961
  21.9460012  79.9574997  13.6949988  21.0530012  80.2964997  13.6269988
  21.8470012  79.1024997  14.1129988  21.8104164  79.8882588  13.7422235
  34.2340012  87.7744997   3.1189988  33.9560012  87.0464997   3.6749988
  35.1610012  87.8934997   3.3239988  34.3213124  87.6908802   3.2228845
  21.5970012  91.7624997  12.1299988  21.8140012  90.8304997  12.0989988
  21.8430012  92.0364997  13.0129988  21.6599549  91.6720636  12.2451763
  27.4590012  90.2134997  -0.6610012  27.6980012  89.4654997  -1.2080012
  27.1900012  89.8254997   0.1719988  27.4553675  90.0586638  -0.6233135
  26.3960012  89.7834997   1.7959988  26.5420012  89.2634997   2.5859988
  26.3930012  90.6904997   2.1019988  26.4155989  89.8348853   1.9456088
  22.8490012  87.0364997   2.3059988  22.1630012  87.3884997   2.8729988
  23.3710012  87.7994997   2.0589988  22.8256852  87.1878578   2.3502118
  30.6800012  79.6984997  12.5849988  31.3790012  79.7724997  13.2349988
  30.2990012  78.8344997  12.7389988  30.7241767  79.5917624  12.6948322
  31.4650012  79.3504997   3.6819988  31.6850012  79.8224997   2.8789988
  32.0230012  79.7454997   4.3519988  31.5704968  79.4684285   3.6627331
  29.1330012  91.4814997   2.5449988  28.3170012  91.9784997   2.5969988
  29.6630012  91.9564997   1.9049988  29.0929161  91.6137722   2.4655956
  28.6650012  81.0784997   4.5169988  29.4770012  81.5834997   4.5629988
  28.4200012  80.9334997   5.4309988  28.7430520  81.1280375   4.6468517
  29.2000012  82.0644997  13.7019988  29.3190012  82.6384997  14.4589988
  29.8560012  81.3764997  13.8159988  29.3049757  82.0501079  13.8210825
  29.5480012  78.1594997   5.4549988  29.2020012  78.7774997   6.0999988
  30.2070012  78.6604997   4.9739988  29.5897826  78.3115802   5.4780971
  26.4720012  92.5254997   2.5269988  26.6320012  93.3244997   2.0259988
  26.2740012  92.8314997   3.4119988  26.4671649  92.6764469   2.5779815
  25.2060012  79.2224997   2.1419988  25.1230012  80.1114997   2.4889988
  26.0960012  78.9574997   2.3739988  25.3149469  79.3081430   2.2207626
  35.4050012  79.9714997  14.5369988  34.4880012  80.2344997  14.4489988
  35.7400012  79.9684997  13.6399988  35.3249900  80.0070224  14.4037919
  34.0070012  83.7224997   8.6319988  33.2090012  83.3074997   8.3039988
  34.4520012  83.0314997   9.1229988  33.9579885  83.5723543   8.6534889
  23.4650012  89.6504997   1.2029988  24.0570012  90.3494997   1.4789988
  23.9240012  89.2174997   0.4829988  23.6081142  89.6877049   1.1434830
  21.7810012  82.3144997   0.3189988  21.7360012  83.2534997   0.4969988
  20.8930012  82.0784997   0.0489988  21.6548574  82.4111892   0.3068912
  35.0930012  92.9784997  10.2549988  34.9380012  93.6564997   9.5979988
  36.0260012  93.0504997  10.4579988  35.1978500  93.0810170  10.1925119
  22.5890012  77.0964997   8.9919988  22.3600012  77.1554997   8.0639988
  22.1460012  76.3044997   9.2979988  22.4978530  76.9975753   8.9064786
  21.5190012  91.0364997   5.1519988  20.6870012  91.5094997   5.1799988
  22.0650012  91.5464997   4.5539988  21.4789739  91.1701871   5.0749716
  20.8070012  93.6494997  16.4819988  21.3480012  93.4324997  17.2419988
  20.3260012  92.8434997  16.2929988  20.8159345  93.5109514  16.5603076
  25.4050012  92.5684997  18.1029988  26.1720012  92.1094997  18.4439988
  25.3830012  92.3424997  17.1729988  25.5071434  92.4750409  18.0240043
  29.4970012  92.0764997  -0.5220012  28.8530012  91.4454997  -0.2010012
  30.2590012  91.5454997  -0.7540012  29.5118077  91.9182920  -0.5093989
  31.9820012  90.9484997  16.8319988  31.6310012  90.0924997  17.0749988
  32.7080012  91.0914997  17.4389988  32.0320769  90.8505636  16.9473619
  34.1010012  91.8934997  -0.2880012  34.3840012  91.0994997   0.1639988
  34.8410012  92.1264997  -0.8490012  34.2397486  91.8162803  -0.3019302
  20.7140012  87.4594997  17.4369988  20.8580012  86.5574997  17.1499988
  19.9420012  87.7454997  16.9489988  20.6293322  87.3748261  17.3317881
  25.0560012  87.8034997  -0.4310012  25.1200012  87.0094997   0.0999988
  25.7090012  87.6844997  -1.1210012  25.1530241  87.6787148  -0.4515683
  27.3700012  87.4294997  16.8689988  27.0410012  87.7004997  16.0119988
  27.5220012  86.4884997  16.7819988  27.3454809  87.3393862  16.7398244
  30.4080012  88.8504997  -0.6950012  30.1390012  89.0304997   0.2059988
  30.2020012  87.9244997  -0.8260012  30.3433825  88.7500152  -0.5894786
  33.1040012  87.3454997  14.2529988  33.8500012  87.9334997  14.1329988
  32.3470012  87.9274997  14.3159988  33.1037554  87.5047011  14.2450907
  21.5470012  84.6594997  16.8569988  21.9550012  83.8024997  16.7359988
  21.2870012  84.6744997  17.7779988  21.5677568  84.5440807  16.9649588
  26.2050012  85.7754997   1.8749988  25.7450012  85.2914997   2.5609988
  26.4600012  85.1074997   1.2389988  26.1764902  85.6188731   1.8829334
  25.4940012  83.6684997  14.2309988  24.8760012  84.3434997  14.5109988
  25.8380012  83.9894997  13.3979988  25.4559615  83.8042721  14.1566581
  27.2760012  84.0184997   0.1369988  27.0960012  83.8644997  -0.7900012
  28.2260012  84.1264997   0.1819988  27.3797776  84.0120175   0.0161843
  30.5140012  86.1404997  17.5079988  31.4670012  86.2234997  17.4809988
  30.3530012  85.4284997  18.1279988  30.6226426  86.0556746  17.5880578
  36.6660012  86.3734997  -0.4170012  36.3920012  85.9484997  -1.2300012
  36.7050012  87.3044997  -0.6340012  36.6337699  86.4412484  -0.5576390
  25.8330012  81.0234997  15.3129988  25.9830012  80.2944997  14.7109988
  25.8360012  81.8004997  14.7539988  25.8539302  81.0287851  15.1550692
  26.2460012  79.3934997  12.8059988  26.7820012  79.8444997  12.1539988
  25.3940012  79.2854997  12.3829988  26.2042178  79.4406390  12.6595756
  27.8280012  84.8324997  13.0449988  28.5780012  84.6764997  12.4719988
  27.4890012  85.6844997  12.7699988  27.8848921  84.9262968  12.9293561
  32.2430012  82.6474997  18.0739988  32.4360012  81.7164997  17.9619988
  33.1010012  83.0724997  18.0639988  32.3853020  82.5776389  18.0573361
  33.5600012  85.4364997  16.1509988  33.2790012  86.1454997  15.5739988
  34.5030012  85.3634997  15.9999988  33.6489027  85.5237646  16.0515551
  24.3120012  82.2214997  17.2249988  23.5450012  81.6894997  17.0149988
  24.9910012  81.9114997  16.6249988  24.2987022  82.1067506  17.1151648
  27.0520012  76.8494997  13.2369988  26.9530012  77.7964997  13.1319988
  26.3090012  76.4774997  12.7619988  26.9380564  76.9285902  13.1584560
  28.3160012  81.1714997  16.8009988  28.0800012  80.9514997  17.7029988
  27.5320012  80.9644997  16.2909988  28.1778628  81.1134760  16.8553932
  31.0310012  80.2984997  15.8769988  30.0840012  80.3304997  16.0089988
  31.3440012  79.6734997  16.5299988  30.9435475  80.2183207  15.9834455
  32.6650012  78.9324997  17.8819988  32.5690012  77.9804997  17.8759988
  32.3440012  79.2014997  18.7419988  32.6084070  78.8384035  17.9975441
  22.4920012  80.1424997  16.9289988  22.7040012  79.4354997  16.3189988
  22.3810012  79.7044997  17.7729988  22.5059721  79.9867084  16.9596843
  27.2730012  76.1434997  15.9089988  27.9850012  75.5034997  15.8949988
  27.1720012  76.4104997  14.9949988  27.3567939  76.0919938  15.7835650
  27.6270012  77.8264997  17.9619988  27.4950012  77.3504997  17.1419988
  27.0280012  78.5704997  17.9069988  27.5279071  77.8619618  17.8422886
  27.1730012  94.7094997   1.1389988  28.1060012  94.8674997   1.2819988
  26.9090012  95.3844997   0.5139988  27.2649510  94.8223611   1.0740741
  20.7420012  89.3454997   0.6209988  21.6560012  89.4244997   0.8949988
  20.7490012  88.6584997  -0.0450012  20.8681131  89.2633961   0.5684393
  19.3910012  94.7384997   5.6989988  18.7440012  94.2764997   5.1659988
  19.7450012  94.0664997   6.2809988  19.3503849  94.5844723   5.7047959
  20.2610012  92.8194997   7.5029988  19.9260012  91.9394997   7.6749988
  20.4830012  93.1644997   8.3679988  20.2451783  92.7457500   7.6434208
  37.8090012  93.6284997  10.4839988  37.7880012  93.8134997  11.4229988
  38.5000012  94.1974997  10.1429988  37.8994618  93.7306606  10.5663864
  37.3730012  93.1964997  13.4059988  36.8850012  92.4604997  13.0349988
  37.9220012  92.8024997  14.0839988  37.3804872  93.0426249  13.4469160
  35.8230012  88.9854997  18.0439988  34.9570012  88.8804997  18.4379988
  36.2000012  89.7444997  18.4899988  35.7553308  89.0736900  18.1582393
  37.1240012  87.2424997   3.5579988  37.9740012  87.6634997   3.6849988
  37.1300012  86.5024997   4.1649988  37.2411372  87.2000803   3.6574344
  37.5190012  85.2954997   5.3819988  36.7920012  84.8164997   5.7789988
  38.1000012  85.5014997   6.1139988  37.4979375  85.2577090   5.5354129
  37.2780012  88.0804997  10.3289988  38.1110012  87.7024997  10.0489988
  37.3900012  89.0234997  10.2099988  37.4072647  88.1562218  10.2745487
  35.7640012  90.9584997  12.6359988  35.1170012  91.2834997  13.2619988
  35.2470012  90.5184997  11.9619988  35.6054029  90.9435004  12.6305827
  37.7870012  85.1964997   1.7729988  37.2650012  85.5534997   1.0539988
  37.7540012  85.8714997   2.4509988  37.7111634  85.3365413   1.7663145
  36.1360012  82.4364997   0.3239988  36.2320012  83.1034997  -0.3570012
  35.9960012  81.6204997  -0.1580012  36.1302135  82.4174500   0.1658491
  35.3050012  83.8164997   5.9449988  35.1550012  82.8714997   5.9239988
  34.9520012  84.0974997   6.7879988  35.2366625  83.7250441   6.0562346
  20.3410012  85.8944997   9.9549988  20.5250012  85.8124997   9.0189988
  21.1900012  85.7704997  10.3789988  20.4810139  85.8665003   9.8841455
  36.1620012  85.7864997  15.5829988  36.7450012  85.0524997  15.7749988
  36.7260012  86.5584997  15.6299988  36.3179769  85.7904227  15.6156159
  37.6580012  83.6894997  16.2679988  36.7950012  83.3104997  16.1019988
  38.2630012  82.9504997  16.1939988  37.6215979  83.5378023  16.2352817
  35.3830012  79.8444997  -0.5590012  35.9940012  79.4734997   0.0779988
  34.5470012  79.4234997  -0.3630012  35.3535032  79.7367554  -0.4452965
  35.0160012  81.3994997   4.4069988  35.2960012  80.4924997   4.5309988
  35.7750012  81.8334997   4.0179988  35.1569277  81.3340942   4.3713682
  35.6280012  81.9804997   9.8429988  36.5610012  82.1924997   9.8089988
  35.3930012  82.0824997  10.7649988  35.7238036  82.0232769   9.9629976
  35.6570012  82.7174997  12.6189988  34.8140012  82.9854997  12.9849988
  36.0990012  83.5394997  12.4079988  35.6014158  82.8653291  12.6405491
  19.9380012  81.1654997  16.0959988  20.8580012  81.0434997  16.3319988
  19.4890012  80.4154997  16.4849988  20.0031580  81.0473727  16.1809006
  37.9400012  76.6974997  17.9719988  38.2900012  76.0434997  17.3669988
  38.0870012  77.5344997  17.5329988  38.0078419  76.7211591  17.8297118
  35.6290012  78.6624997   4.4549988  35.8120012  78.2134997   5.2809988
  35.0300012  78.0774997   3.9919988  35.5730202  78.5219975   4.5053275
  21.1590012  79.4774997   8.9869988  21.6050012  78.6854997   9.2889988
  21.6260012  80.1934997   9.4179988  21.2830172  79.4660624   9.0864820
  19.4630012  82.4764997  10.0559988  19.9550012  82.2554997   9.2649988
  19.8260012  83.3174997  10.3369988  19.5793126  82.5598357   9.9857531
  37.4600012  78.8064997  16.3219988  36.5420012  79.0774997  16.2859988
  37.5830012  78.2714997  15.5369988  37.3511066  78.7712892  16.2110487
  37.4960012  78.7294997   0.9829988  37.9080012  78.0084997   0.5079988
  38.1780012  79.3994997   1.0419988  37.6445885  78.7212368   0.9258915
  19.7770012  78.7344997   4.1099988  18.8520012  78.9434997   3.9809988
  20.2310012  79.2184997   3.4209988  19.7117368  78.8285993   3.9991226
  34.5480012  93.7184997   6.0559988  35.2000012  93.3714997   5.4479988
  35.0580012  94.2074997   6.7019988  34.7062637  93.7370597   6.0600236
  19.7410012  77.4724997  12.4549988  19.0760012  77.2264997  13.0979988
  19.2980012  78.0944997  11.8769988  19.5900956  77.5228632  12.4649352
  21.9330012  90.6474997  16.5989988  21.1120012  90.8224997  16.1389988
  21.6800012  90.5744997  17.5199988  21.7866164  90.6615622  16.6604923
  24.8870012  91.6224997  12.8579988  24.4620012  92.4314997  12.5749988
  25.7910012  91.7074997  12.5559988  24.9510271  91.7448469  12.7783776
  29.1980012  93.0214997  15.8169988  29.3830012  92.6874997  16.6949988
  30.0440012  93.3304997  15.4949988  29.3377539  93.0176047  15.8935605
  31.5430012  94.3074997  15.0609988  32.2200012  93.6744997  14.8209988
  31.8650012  94.7084997  15.8679988  31.6791637  94.2751154  15.1372793
  36.4600012  76.8964997  14.1409988  35.6480012  77.2214997  13.7529988
  36.6930012  76.1364997  13.6079988  36.3803423  76.8382436  14.0158253
  22.2890012  94.8784997  12.9049988  21.5680012  95.3184997  12.4539988
  21.9230012  94.6274997  13.7539988  22.1409804  94.9047698  12.9579840
  24.7560012  94.4784997  11.9349988  23.8910012  94.5504997  12.3389988
  24.7010012  95.0254997  11.1509988  24.6302085  94.5622685  11.8843362
  29.4660012  94.3664997  11.1099988  29.0100012  94.8954997  10.4559988
  29.6290012  94.9694997  11.8359988  29.4255585  94.5204468  11.1185062
  31.7940012  93.2444997  12.0549988  30.8890012  93.4094997  11.7899988
  32.2230012  94.0974997  11.9899988  31.7280799  93.3824483  12.0099182
  34.3980012  94.8144997  12.3499988  34.2160012  95.7304997  12.1399988
  34.5750012  94.4044997  11.5039988  34.3970210  94.8844822  12.2067885
  21.7030012  93.5014997   9.8149988  21.6850012  93.0764997  10.6729988
  22.5080012  93.1834997   9.4069988  21.8093875  93.4003812   9.8771655
  23.8450012  92.2114997   8.4699988  23.6260012  91.2954997   8.6399988
  24.6690012  92.3514997   8.9359988  23.9264420  92.1050520   8.5562774
  26.3820012  92.6814997   9.3189988  26.5950012  91.7934997   9.0319988
  26.4460012  92.6474997  10.2729988  26.4198232  92.5553102   9.4087397
  29.8900012  78.3454997   8.4629988  29.2160012  77.7164997   8.7189988
  30.4540012  77.8614997   7.8599988  29.8739230  78.1938744   8.4165340
  35.0330012  76.4534997   8.5759988  35.6370012  77.0004997   8.0739988
  34.1630012  76.7724997   8.3359988  34.9981241  76.5715806   8.4747654
  36.7600012  77.5914997   6.9089988  37.3720012  77.0774997   6.3829988
  37.1420012  78.4694997   6.9329988  36.8954540  77.6397140   6.8401830
  22.2170012  76.9794997   6.2849988  21.4400012  76.7454997   5.7779988
  22.7470012  76.1824997   6.2939988  22.1822330  76.8396988   6.2167742
  21.0530012  76.7774997   2.0889988  21.4920012  77.3884997   1.4969988
  20.4200012  77.3154997   2.5629988  21.0274514  76.9339257   2.0720930
  26.7960012  76.9064997   6.0989988  27.6710012  77.2944997   6.0689988
  26.6600012  76.6914997   7.0209988  26.8973695  76.9305184   6.2196440
  32.3530012  76.9364997   7.7479988  32.4290012  77.0314997   6.7979988
  32.0780012  76.0284997   7.8769988  32.3262321  76.8267867   7.6355079
  33.7060012  76.9624997   3.4399988  33.0040012  77.5774997   3.2309988
  33.2620012  76.1244997   3.5709988  33.5496330  76.9335783   3.4290328
  20.9540012  92.7254997   2.9869988  20.2690012  92.6874997   2.3189988
  20.9580012  93.6384997   3.2749988  20.8608193  92.8437016   2.9345284
  22.9140012  78.6934997   0.5309988  23.4060012  78.0634997   0.0039988
  23.5380012  78.9894997   1.1949988  23.0655446  78.6473199   0.5485980
  27.9400012  78.9864997   2.9879988  28.1180012  78.3404997   3.6709988
  27.8870012  79.8204997   3.4559988  27.9571829  79.0107985   3.1445940
  29.8190012  93.9354997   1.3839988  30.6850012  94.3014997   1.2059988
  29.5720012  93.4954997   0.5699988  29.9042392  93.9261756   1.2496289
  36.5280012  93.4984997   4.0629988  36.3330012  92.7504997   3.4979988
  36.4890012  94.2564997   3.4799988  36.4960380  93.4986099   3.9068384
  22.1750012  77.4934997  15.8029988  21.8090012  76.7284997  16.2459988
  23.0880012  77.5224997  16.0899988  22.2482790  77.3927224  15.9024070
  24.1480012  76.8444997  17.3389988  25.0460012  76.5704997  17.1539988
  23.7610012  76.1014997  17.8029988  24.2186612  76.7065914  17.3763643
  22.7720012  93.6454997   0.0119988  22.5050012  93.9324997   0.8849988
  23.5440012  93.0994997   0.1639988  22.8397488  93.6110294   0.1521050
  32.5690012  76.1764997  17.5209988  32.6460012  75.7504997  18.3749988
  33.4630012  76.1904997  17.1779988  32.7003428  76.1200879  17.5915310
  35.7450012  92.2494997  16.2129988  34.9630012  92.0634997  15.6939988
  35.6730012  93.1784997  16.4309988  35.6281777  92.3496492  16.1714048
  50.1510012  86.1354997   6.2439988  50.2400012  87.0794997   6.1119988
  49.5130012  85.8604997   5.5859988  50.0769081  86.2274830   6.1369614
  49.0840012  85.3904997   9.6629988  49.0460012  84.7444997  10.3679988
  48.7620012  84.9244997   8.8919988  49.0352333  85.2389408   9.6552978
  41.4530012  85.0054997  11.2559988  41.4940012  84.3794997  11.9789988
  42.1560012  85.6294997  11.4379988  41.5536363  85.0041196  11.3796044
  52.7900012  88.3294997   7.9639988  52.3500012  87.6094997   8.4149988
  52.7770012  89.0504997   8.5939988  52.7280226  88.3283731   8.1108494
  42.3760012  89.4554997   9.7909988  42.0070012  88.6534997   9.4209988
  43.3170012  89.2864997   9.8369988  42.4527289  89.3230153   9.7466316
  38.9860012  83.1154997   5.1839988  38.5390012  83.9614997   5.1649988
  38.4250012  82.5354997   4.6679988  38.8489900  83.1529916   5.1116801
  39.6970012  85.2774997   7.3099988  39.9100012  84.5074997   7.8369988
  40.4350012  85.3664997   6.7059988  39.8258496  85.1841394   7.3005300
  49.9020012  93.4344997   8.1769988  50.5220012  92.7574997   7.9029988
  49.6940012  93.2164997   9.0849988  49.9586904  93.3123870   8.2623365
  47.4740012  87.8234997  10.0689988  47.7780012  87.1374997   9.4739988
  48.1950012  87.9414997  10.6869988  47.6130671  87.7456305  10.0711816
  56.1370012  79.4244997  10.9299988  56.1860012  80.0344997  11.6659988
  56.5620012  79.8854997  10.2069988  56.2011824  79.5703741  10.9330205
  50.6150012  82.2174997  10.3969988  50.7570012  81.2714997  10.4169988
  50.5080012  82.4244997   9.4679988  50.6199864  82.1159534  10.2742339
  43.7690012  80.3184997   7.6689988  43.8130012  81.1784997   7.2509988
  43.3120012  79.7664997   7.0349988  43.7132185  80.3615799   7.5260299
  51.4920012  80.4494997   6.0699988  52.1380012  80.1204997   6.6949988
  52.0020012  80.9674997   5.4469988  51.6494264  80.4744611   6.0713862
  40.3900012  82.7154997   8.4309988  41.0430012  82.1654997   8.8629988
  40.4140012  82.4414997   7.5139988  40.4826683  82.6031466   8.3662123
  45.5460012  84.2654997   7.6459988  46.1620012  83.7394997   8.1559988
  44.9600012  83.6254997   7.2429988  45.5510810  84.1069208   7.6613173
  56.5280012  80.9024997  13.1659988  55.8400012  81.5604997  13.0699988
  56.5440012  80.7054997  14.1019988  56.4358525  80.9660462  13.2794808
  42.5800012  79.2364997  11.7429988  42.3610012  79.7664997  10.9769988
  41.9120012  79.4634997  12.3899988  42.4597600  79.3396906  11.7256379
  49.9490012  88.7364997   5.2869988  49.6530012  88.4144997   4.4359988
  49.6240012  89.6364997   5.3279988  49.8646371  88.8140215   5.1761801
  45.1490012  86.9124997  12.0299988  44.4090012  87.5104997  12.1339988
  45.8630012  87.4664997  11.7149988  45.1442237  87.0692831  12.0016465
  53.2560012  79.7404997   8.0499988  53.0400012  78.9744997   8.5829988
  53.9110012  80.2124997   8.5629988  53.3150632  79.6995889   8.1922861
  42.1730012  81.1284997   9.6949988  42.7870012  81.7614997  10.0689988
  42.6850012  80.6564997   9.0389988  42.3262296  81.1512370   9.6574252
  43.5560012  88.8764997  12.8179988  43.5510012  89.7564997  12.4399988
  42.7030012  88.7934997  13.2429988  43.4399464  88.9856117  12.8237907
  39.6770012  88.5474997   3.5999988  39.4050012  88.7764997   2.7109988
  39.7230012  89.3854997   4.0599988  39.6460094  88.6921213   3.5405697
  53.3020012  90.1694997  10.3119988  52.3610012  90.2274997  10.4739988
  53.5790012  91.0754997  10.1749988  53.2104679  90.2999443  10.3156815
  53.6030012  78.4554997  11.7299988  52.8670012  79.0664997  11.6919988
  54.2860012  78.8704997  11.2029988  53.5946541  78.5951374  11.6535832
  46.6060012  76.5424997   9.1959988  46.4890012  75.5934997   9.1409988
  45.7510012  76.8744997   9.4689988  46.4743733  76.4575409   9.2253897
  51.5540012  91.9504997   6.9379988  51.9800012  91.2434997   6.4529988
  51.8710012  92.7514997   6.5209988  51.6551019  91.9620994   6.8153130
  52.7140012  89.8514997   5.4459988  52.4560012  89.1614997   4.8349988
  52.7850012  89.4084997   6.2919988  52.6882856  89.6972124   5.4766885
  54.4000012  88.4174997  13.9239988  54.5400012  87.8264997  13.1839988
  54.5670012  89.2904997  13.5669988  54.4416778  88.4546426  13.7746965
  48.8730012  85.3794997   3.6959988  48.1610012  85.9144997   3.3439988
  49.5640012  85.4354997   3.0359988  48.8690132  85.4602543   3.5586289
  48.9260012  83.8374997   0.7349988  49.6270012  83.8594997   1.3859988
  49.2290012  83.2094997   0.0789988  49.0627830  83.7556566   0.7353711
  56.2420012  84.7574997  11.9899988  55.5890012  85.4524997  12.0789988
  56.7070012  84.9674997  11.1799988  56.2155390  84.8809425  11.8926883
  52.2780012  85.5894997   4.6479988  51.5460012  85.8174997   5.2209988
  52.7260012  84.8754997   5.1029988  52.2383095  85.5242571   4.7879119
  52.1760012  83.7634997  13.7149988  52.2560012  84.5264997  14.2869988
  51.5740012  84.0424997  13.0249988  52.1055756  83.9057134  13.7000589
  43.9240012  86.2194997   6.5299988  43.5930012  85.8494997   5.7119988
  44.5120012  85.5494997   6.8769988  43.9581873  86.0781156   6.4648102
  45.2900012  89.6474997   9.2119988  45.1960012  89.0694997   8.4549988
  46.0200012  89.2764997   9.7079988  45.3757981  89.5182390   9.1754165
  44.2900012  84.9884997  10.1639988  44.8560012  85.1094997   9.4009988
  44.6090012  85.6254997  10.8029988  44.4105786  85.0911884  10.1460040
  50.5990012  90.4914997  10.8979988  50.3590012  91.1534997  11.5459988
  50.4010012  89.6574997  11.3229988  50.5393808  90.4693134  11.0441524
  45.1700012  89.3874997  14.8809988  44.8590012  90.1694997  15.3359988
  44.5200012  89.2344997  14.1949988  45.0395558  89.4739105  14.8505871
  51.1490012  84.7514997   2.3329988  51.7290012  84.9014997   3.0799988
  51.5630012  85.2224997   1.6099988  51.2842830  84.8356841   2.3374134
  42.0900012  85.5854997  14.1099988  42.1610012  86.2364997  14.8079988
  41.2000012  85.6884997  13.7749988  41.9793117  85.6885936  14.1602700
  48.8760012  91.4884997   5.7679988  49.3500012  91.7834997   6.5459988
  48.3130012  92.2264997   5.5349988  48.8647653  91.6286932   5.8430136
  43.4100012  91.4594997  15.6439988  43.4170012  91.3234997  14.6969988
  42.4940012  91.3414997  15.8959988  43.2871714  91.4249430  15.5484666
  54.8480012  76.5014997   2.1459988  53.9480012  76.6404997   2.4409988
  55.1000012  77.3324997   1.7439988  54.7588702  76.6329074   2.1320205
  42.9140012  85.2894997   4.1199988  42.6220012  86.0574997   3.6289988
  42.2400012  84.6294997   3.9569988  42.7829081  85.3054406   4.0307340
  56.0370012  90.8674997   0.5219988  56.1110012  91.8064997   0.6929988
  56.9430012  90.5624997   0.4659988  56.1695100  90.9546722   0.5378119
  39.0070012  87.6524997  12.9349988  38.5060012  87.6244997  12.1199988
  39.0120012  86.7464997  13.2439988  38.9391526  87.5262278  12.8652872
  38.7570012  90.4324997   9.8189988  39.7030012  90.2884997   9.7999988
  38.6450012  91.2164997  10.3559988  38.8712727  90.5188046   9.8890072
  56.9550012  91.0984997  15.5009988  56.9060012  90.1434997  15.4639988
  56.1280012  91.3664997  15.9019988  56.8364940  91.0038998  15.5501375
  47.9340012  90.6724997  14.3769988  48.0210012  91.4984997  14.8519988
  47.0700012  90.3424997  14.6259988  47.8291964  90.7409878  14.4756549
  48.3480012  94.4444997   4.1829988  48.2730012  94.3234997   3.2369988
  48.3810012  95.3944997   4.3019988  48.3421848  94.5562500   4.0694834
  42.0010012  93.2334997   5.9639988  42.1540012  92.8854997   6.8429988
  41.1510012  92.8774997   5.7089988  41.9068962  93.1376650   6.0498340
  51.4500012  93.5984997   1.1849988  51.8250012  92.8544997   0.7149988
  51.4540012  93.3284997   2.1039988  51.5018915  93.4601486   1.2447824
  51.1190012  93.5244997   3.9349988  50.1830012  93.6244997   4.1129988
  51.3990012  92.8154997   4.5129988  51.0288255  93.4422711   4.0375391
  54.1070012  82.5914997  15.9809988  53.7000012  83.0724997  15.2599988
  54.1480012  81.6864997  15.6729988  54.0568437  82.5349374  15.8406683
  41.2560012  88.9754997  13.9779988  41.4720012  88.6144997  14.8369988
  40.4010012  88.6014997  13.7679988  41.1699292  88.8754111  14.0673386
  43.8750012  77.4454997   9.9729988  43.0130012  77.3584997   9.5659988
  43.8520012  78.3014997  10.4009988  43.7540330  77.5492765   9.9751863
  48.5380012  77.1674997  13.3479988  48.9580012  76.7524997  14.1009988
  47.6050012  76.9894997  13.4649988  48.4693644  77.0865900  13.4669539
  51.8640012  80.9234997  14.2009988  51.3500012  80.7974997  14.9989988
  51.7090012  81.8354997  13.9569988  51.7726852  81.0296132  14.2772158
  52.6270012  85.7844997  -0.0370012  52.6690012  85.5614997  -0.9670012
  53.4760012  86.1834997   0.1529988  52.7475396  85.8079155  -0.1386373
  48.1990012  79.6604997   0.6329988  47.9460012  79.6794997   1.5559988
  47.9430012  78.7884997   0.3319988  48.1297790  79.5452437   0.7186263
  43.9660012  82.4114997  11.0679988  43.3240012  82.3704997  11.7769988
  44.0030012  83.3374997  10.8309988  43.8831324  82.5311559  11.1329824
  43.9630012  82.6324997   5.9799988  43.0700012  82.2914997   5.9219988
  44.4130012  82.2554997   5.2249988  43.9017305  82.5348484   5.8699177
  49.4980012  83.0484997   4.7969988  49.0890012  83.8634997   4.5059988
  50.2190012  82.9084997   4.1829988  49.5394537  83.1412018   4.6741342
  48.6000012  83.2234997  16.2849988  48.0380012  82.5194997  16.6059988
  49.4270012  83.1034997  16.7529988  48.6347095  83.1107883  16.3922330
  50.5030012  82.4944997   7.6109988  50.3080012  83.0994997   6.8959988
  50.6840012  81.6604997   7.1769988  50.5007614  82.4646300   7.4544405
  41.7160012  82.7314997  12.9349988  41.6780012  83.1314997  13.8039988
  41.2250012  81.9144997  13.0259988  41.6444684  82.6758069  13.0661059
  45.0820012  80.1054997  -0.2660012  44.6510012  79.6604997   0.4639988
  44.3640012  80.4774997  -0.7780012  44.9259438  80.0948940  -0.2353201
  38.3240012  79.8474997   6.7859988  38.9550012  79.8184997   7.5049988
  38.7730012  79.4224997   6.0559988  38.4710774  79.7860492   6.7856553
  39.5980012  80.5934997   2.2099988  40.0720012  81.1844997   1.6249988
  38.8810012  81.1244997   2.5569988  39.5659341  80.7460867   2.1768836
  49.7670012  84.1324997  12.2829988  50.0900012  83.5014997  11.6399988
  49.3270012  83.5974997  12.9429988  49.7516895  83.9738441  12.2842850
  46.5440012  80.0594997   7.0669988  45.6330012  80.1164997   7.3549988
  47.0500012  79.9994997   7.8769988  46.4875413  80.0591985   7.2160622
  41.3730012  81.6884997   5.8929988  40.4830012  81.7884997   5.5529988
  41.6690012  80.8464997   5.5469988  41.2912823  81.5883545   5.7997213
  45.0260012  81.6884997   3.5499988  45.9570012  81.8174997   3.7279988
  44.8110012  82.3584997   2.8999988  45.1244247  81.7966565   3.4865747
  50.9490012  79.2944997  10.3309988  50.2730012  79.4254997  10.9949988
  50.4640012  79.1394997   9.5209988  50.7907145  79.2914905  10.3124517
  43.7000012  82.8834997   1.1169988  43.1570012  82.5034997   0.4249988
  44.5330012  83.0774997   0.6879988  43.7384399  82.8578124   0.9644526
  54.2370012  94.9664997  16.6079988  54.4370012  95.3904997  15.7729988
  54.8920012  95.3094997  17.2149988  54.3530051  95.0709648  16.5757836
  41.8350012  87.4404997  16.2159988  42.5670012  87.6944997  16.7769988
  41.0550012  87.6444997  16.7309988  41.8298232  87.5029177  16.3625760
  47.8640012  82.8474997   8.9539988  48.4290012  82.3004997   8.4069988
  47.7170012  82.3254997   9.7419988  47.9212918  82.7022024   8.9858454
  42.8660012  78.9834997   5.3719988  42.5490012  78.0814997   5.3369988
  43.6480012  78.9854997   4.8189988  42.9282284  78.8601628   5.2924783
  46.4910012  81.2354997  11.3679988  45.6550012  81.6894997  11.4779988
  47.0150012  81.5114997  12.1199988  46.4474414  81.3349376  11.4847136
  47.0350012  87.4484997   3.0519988  46.2900012  86.9414997   2.7299988
  46.9010012  87.4974997   3.9989988  46.9148776  87.3856940   3.1358647
  54.1850012  86.5814997  11.8389988  54.8270012  87.0384997  11.2949988
  53.3550012  86.6944997  11.3759988  54.1605963  86.6592704  11.7020177
  50.9330012  80.2624997   1.2519988  49.9940012  80.3744997   1.0999988
  51.2300012  81.1194997   1.5579988  50.8447666  80.3936443   1.2725768
  48.5540012  87.6324997  14.2889988  48.2090012  87.2514997  15.0959988
  48.3540012  88.5664997  14.3609988  48.4798061  87.7065228  14.4090961
  51.6510012  82.1294997   2.9119988  52.5430012  81.9924997   3.2309988
  51.7080012  82.9204997   2.3759988  51.7806285  82.2176660   2.8831691
  42.1600012  86.7434997   8.8219988  42.9050012  86.7414997   8.2209988
  42.2380012  85.9204997   9.3039988  42.2725518  86.6319315   8.8048929
  49.1610012  88.9074997   2.0779988  48.8650012  89.7334997   2.4589988
  48.4580012  88.2874997   2.2739988  49.0254914  88.9368199   2.1566443
  39.1680012  85.2044997  14.1369988  39.3910012  84.7864997  14.9689988
  38.5660012  84.5914997  13.7139988  39.1171759  85.0644668  14.1937022
  46.1840012  84.7214997  16.3499988  45.8880012  84.5554997  15.4549988
  47.1160012  84.5014997  16.3389988  46.2694166  84.6690640  16.2260536
  50.8050012  90.0944997  14.2399988  49.9040012  90.2774997  13.9719988
  50.8390012  90.3534997  15.1609988  50.6863041  90.1545512  14.3278197
  56.5360012  82.3394997   2.6069988  55.9820012  81.9434997   1.9349988
  56.6360012  83.2494997   2.3289988  56.4737059  82.4083586   2.4774401
  56.4990012  88.1394997  15.4439988  55.6480012  88.3774997  15.0769988
  57.0900012  88.1224997  14.6909988  56.4622487  88.1698258  15.2918893
  54.8310012  91.1254997   3.0719988  54.4580012  90.2994997   3.3809988
  55.1090012  90.9424997   2.1749988  54.8175630  90.9877303   2.9929626
  51.9920012  85.9334997  10.0929988  51.0630012  85.7014997  10.0659988
  52.4430012  85.1564997   9.7629988  51.9259216  85.7967238  10.0446917
  44.5350012  90.2614997   6.2259988  45.0620012  91.0344997   6.0259988
  43.6550012  90.4864997   5.9249988  44.4881773  90.3978005   6.1579010
  40.2900012  85.1234997   0.8129988  40.9060012  85.7504997   1.1929988
  39.4280012  85.4394997   1.0849988  40.2577698  85.2519430   0.9017183
  45.9620012  87.9244997   5.8029988  45.7210012  88.8494997   5.8439988
  45.2210012  87.4654997   6.1989988  45.8288409  87.9891421   5.8621377
  46.4770012  92.0734997  12.1179988  46.8390012  92.9284997  11.8839988
  47.0080012  91.7814997  12.8579988  46.5984473  92.1511060  12.1860855
  44.6450012  92.9464997   5.3479988  43.6950012  93.0514997   5.3989988
  44.9970012  93.7664997   5.6929988  44.5624203  93.0718314   5.4016650
  50.0210012  88.1724997  11.8179988  49.5950012  87.9454997  12.6449988
  50.6010012  87.4344997  11.6359988  50.0411868  88.0415299  11.9065830
  52.2240012  89.1014997   0.8919988  52.5770012  88.7214997   1.6969988
  51.2750012  89.0084997   0.9789988  52.1440441  89.0369596   1.0138559
  52.6790012  92.7244997  14.2879988  52.0780012  92.1694997  13.7919988
  52.9610012  93.3914997  13.6619988  52.6348519  92.7386841  14.1354951
  56.7270012  93.5814997   1.0929988  57.4710012  94.1674997   0.9529988
  56.0330012  94.1494997   1.4269988  56.7350292  93.7385582   1.1189961
  40.8020012  79.9574997  13.6949988  39.9090012  80.2964997  13.6269988
  40.7030012  79.1024997  14.1129988  40.6664164  79.8882588  13.7422235
  53.0900012  87.7744997   3.1189988  52.8120012  87.0464997   3.6749988
  54.0170012  87.8934997   3.3239988  53.1773124  87.6908802   3.2228845
  40.4530012  91.7624997  12.1299988  40.6700012  90.8304997  12.0989988
  40.6990012  92.0364997  13.0129988  40.5159549  91.6720636  12.2451763
  46.3150012  90.2134997  -0.6610012  46.5540012  89.4654997  -1.2080012
  46.0460012  89.8254997   0.1719988  46.3113675  90.0586638  -0.6233135
  45.2520012  89.7834997   1.7959988  45.3980012  89.2634997   2.5859988
  45.2490012  90.6904997   2.1019988  45.2715989  89.8348853   1.9456088
  41.7050012  87.0364997   2.3059988  41.0190012  87.3884997   2.8729988
  42.2270012  87.7994997   2.0589988  41.6816852  87.1878578   2.3502118
  49.5360012  79.6984997  12.5849988  50.2350012  79.7724997  13.2349988
  49.1550012  78.8344997  12.7389988  49.5801767  79.5917624  12.6948322
  50.3210012  79.3504997   3.6819988  50.5410012  79.8224997   2.8789988
  50.8790012  79.7454997   4.3519988  50.4264968  79.4684285   3.6627331
  47.9890012  91.4814997   2.5449988  47.1730012  91.9784997   2.5969988
  48.5190012  91.9564997   1.9049988  47.9489161  91.6137722   2.4655956
  47.5210012  81.0784997   4.5169988  48.3330012  81.5834997   4.5629988
  47.2760012  80.9334997   5.4309988  47.5990520  81.1280375   4.6468517
  48.0560012  82.0644997  13.7019988  48.1750012  82.6384997  14.4589988
  48.7120012  81.3764997  13.8159988  48.1609757  82.0501079  13.8210825
  48.4040012  78.1594997   5.4549988  48.0580012  78.7774997   6.0999988
  49.0630012  78.6604997   4.9739988  48.4457826  78.3115802   5.4780971
  45.3280012  92.5254997   2.5269988  45.4880012  93.3244997   2.0259988
  45.1300012  92.8314997   3.4119988  45.3231649  92.6764469   2.5779815
  44.0620012  79.2224997   2.1419988  43.9790012  80.1114997   2.4889988
  44.9520012  78.9574997   2.3739988  44.1709469  79.3081430   2.2207626
  54.2610012  79.9714997  14.5369988  53.3440012  80.2344997  14.4489988
  54.5960012  79.9684997  13.6399988  54.1809900  80.0070224  14.4037919
  52.8630012  83.7224997   8.6319988  52.0650012  83.3074997   8.3039988
  53.3080012  83.0314997   9.1229988  52.8139885  83.5723543   8.6534889
  42.3210012  89.6504997   1.2029988  42.9130012  90.3494997   1.4789988
  42.7800012  89.2174997   0.4829988  42.4641142  89.6877049   1.1434830
  40.6370012  82.3144997   0.3189988  40.5920012  83.2534997   0.4969988
  39.7490012  82.0784997   0.0489988  40.5108574  82.4111892   0.3068912
  53.9490012  92.9784997  10.2549988  53.7940012  93.6564997   9.5979988
  54.8820012  93.0504997  10.4579988  54.0538500  93.0810170  10.1925119
  41.4450012  77.0964997   8.9919988  41.2160012  77.1554997   8.0639988
  41.0020012  76.3044997   9.2979988  41.3538530  76.9975753   8.9064786
  40.3750012  91.0364997   5.1519988  39.5430012  91.5094997   5.1799988
  40.9210012  91.5464997   4.5539988  40.3349739  91.1701871   5.0749716
  39.6630012  93.6494997  16.4819988  40.2040012  93.4324997  17.2419988
  39.1820012  92.8434997  16.2929988  39.6719345  93.5109514  16.5603076
  44.2610012  92.5684997  18.1029988  45.0280012  92.1094997  18.4439988
  44.2390012  92.3424997  17.1729988  44.3631434  92.4750409  18.0240043
  48.3530012  92.0764997  -0.5220012  47.7090012  91.4454997  -0.2010012
  49.1150012  91.5454997  -0.7540012  48.3678077  91.9182920  -0.5093989
  50.8380012  90.9484997  16.8319988  50.4870012  90.0924997  17.0749988
  51.5640012  91.0914997  17.4389988  50.8880769  90.8505636  16.9473619
  52.9570012  91.8934997  -0.2880012  53.2400012  91.0994997   0.1639988
  53.6970012  92.1264997  -0.8490012  53.0957486  91.8162803  -0.3019302
  39.5700012  87.4594997  17.4369988  39.7140012  86.5574997  17.1499988
  38.7980012  87.7454997  16.9489988  39.4853322  87.3748261  17.3317881
  43.9120012  87.8034997  -0.4310012  43.9760012  87.0094997   0.0999988
  44.5650012  87.6844997  -1.1210012  44.0090241  87.6787148  -0.4515683
  46.2260012  87.4294997  16.8689988  45.8970012  87.7004997  16.0119988
  46.3780012  86.4884997  16.7819988  46.2014809  87.3393862  16.7398244
  49.2640012  88.8504997  -0.6950012  48.9950012  89.0304997   0.2059988
  49.0580012  87.9244997  -0.8260012  49.1993825  88.7500152  -0.5894786
  51.9600012  87.3454997  14.2529988  52.7060012  87.9334997  14.1329988
  51.2030012  87.9274997  14.3159988  51.9597554  87.5047011  14.2450907
  40.4030012  84.6594997  16.8569988  40.8110012  83.8024997  16.7359988
  40.1430012  84.6744997  17.7779988  40.4237568  84.5440807  16.9649588
  45.0610012  85.7754997   1.8749988  44.6010012  85.2914997   2.5609988
  45.3160012  85.1074997   1.2389988  45.0324902  85.6188731   1.8829334
  44.3500012  83.6684997  14.2309988  43.7320012  84.3434997  14.5109988
  44.6940012  83.9894997  13.3979988  44.3119615  83.8042721  14.1566581
  46.1320012  84.0184997   0.1369988  45.9520012  83.8644997  -0.7900012
  47.0820012  84.1264997   0.1819988  46.2357776  84.0120175   0.0161843
  49.3700012  86.1404997  17.5079988  50.3230012  86.2234997  17.4809988
  49.2090012  85.4284997  18.1279988  49.4786426  86.0556746  17.5880579
  55.5220012  86.3734997  -0.4170012  55.2480012  85.9484997  -1.2300012
  55.5610012  87.3044997  -0.6340012  55.4897699  86.4412484  -0.5576390
  44.6890012  81.0234997  15.3129988  44.8390012  80.2944997  14.7109988
  44.6920012  81.8004997  14.7539988  44.7099302  81.0287851  15.1550692
  45.1020012  79.3934997  12.8059988  45.6380012  79.8444997  12.1539988
  44.2500012  79.2854997  12.3829988  45.0602178  79.4406390  12.6595756
  46.6840012  84.8324997  13.0449988  47.4340012  84.6764997  12.4719988
  46.3450012  85.6844997  12.7699988  46.7408921  84.9262968  12.9293561
  51.0990012  82.6474997  18.0739988  51.2920012  81.7164997  17.9619988
  51.9570012  83.0724997  18.0639988  51.2413020  82.5776389  18.0573361
  52.4160012  85.4364997  16.1509988  52.1350012  86.1454997  15.5739988
  53.3590012  85.3634997  15.9999988  52.5049027  85.5237646  16.0515551
  43.1680012  82.2214997  17.2249988  42.4010012  81.6894997  17.0149988
  43.8470012  81.9114997  16.6249988  43.1547022  82.1067506  17.1151648
  45.9080012  76.8494997  13.2369988  45.8090012  77.7964997  13.1319988
  45.1650012  76.4774997  12.7619988  45.7940564  76.9285902  13.1584560
  47.1720012  81.1714997  16.8009988  46.9360012  80.9514997  17.7029988
  46.3880012  80.9644997  16.2909988  47.0338628  81.1134760  16.8553932
  49.8870012  80.2984997  15.8769988  48.9400012  80.3304997  16.0089988
  50.2000012  79.6734997  16.5299988  49.7995475  80.2183207  15.9834455
  51.5210012  78.9324997  17.8819988  51.4250012  77.9804997  17.8759988
  51.2000012  79.2014997  18.7419988  51.4644070  78.8384035  17.9975441
  41.3480012  80.1424997  16.9289988  41.5600012  79.4354997  16.3189988
  41.2370012  79.7044997  17.7729988  41.3619721  79.9867084  16.9596843
  46.1290012  76.1434997  15.9089988  46.8410012  75.5034997  15.8949988
  46.0280012  76.4104997  14.9949988  46.2127939  76.0919938  15.7835650
  46.4830012  77.8264997  17.9619988  46.3510012  77.3504997  17.1419988
  45.8840012  78.5704997  17.9069988  46.3839071  77.8619618  17.8422886
  46.0290012  94.7094997   1.1389988  46.9620012  94.8674997   1.2819988
  45.7650012  95.3844997   0.5139988  46.1209510  94.8223611   1.0740741
  39.5980012  89.3454997   0.6209988  40.5120012  89.4244997   0.8949988
  39.6050012  88.6584997  -0.0450012  39.7241131  89.2633961   0.5684393
  38.2470012  94.7384997   5.6989988  37.6000012  94.2764997   5.1659988
  38.6010012  94.0664997   6.2809988  38.2063849  94.5844723   5.7047959
  39.1170012  92.8194997   7.5029988  38.7820012  91.9394997   7.6749988
  39.3390012  93.1644997   8.3679988  39.1011783  92.7457500   7.6434208
  56.6650012  93.6284997  10.4839988  56.6440012  93.8134997  11.4229988
  57.3560012  94.1974997  10.1429988  56.7554618  93.7306606  10.5663864
  56.2290012  93.1964997  13.4059988  55.7410012  92.4604997  13.0349988
  56.7780012  92.8024997  14.0839988  56.2364872  93.0426249  13.4469160
  54.6790012  88.9854997  18.0439988  53.8130012  88.8804997  18.4379988
  55.0560012  89.7444997  18.4899988  54.6113308  89.0736900  18.1582393
  55.9800012  87.2424997   3.5579988  56.8300012  87.6634997   3.6849988
  55.9860012  86.5024997   4.1649988  56.0971372  87.2000803   3.6574344
  56.3750012  85.2954997   5.3819988  55.6480012  84.8164997   5.7789988
  56.9560012  85.5014997   6.1139988  56.3539375  85.2577090   5.5354129
  56.1340012  88.0804997  10.3289988  56.9670012  87.7024997  10.0489988
  56.2460012  89.0234997  10.2099988  56.2632647  88.1562218  10.2745487
  54.6200012  90.9584997  12.6359988  53.9730012  91.2834997  13.2619988
  54.1030012  90.5184997  11.9619988  54.4614029  90.9435004  12.6305827
  56.6430012  85.1964997   1.7729988  56.1210012  85.5534997   1.0539988
  56.6100012  85.8714997   2.4509988  56.5671634  85.3365413   1.7663145
  54.9920012  82.4364997   0.3239988  55.0880012  83.1034997  -0.3570012
  54.8520012  81.6204997  -0.1580012  54.9862135  82.4174500   0.1658491
  54.1610012  83.8164997   5.9449988  54.0110012  82.8714997   5.9239988
  53.8080012  84.0974997   6.7879988  54.0926625  83.7250441   6.0562346
  39.1970012  85.8944997   9.9549988  39.3810012  85.8124997   9.0189988
  40.0460012  85.7704997  10.3789988  39.3370139  85.8665003   9.8841455
  55.0180012  85.7864997  15.5829988  55.6010012  85.0524997  15.7749988
  55.5820012  86.5584997  15.6299988  55.1739769  85.7904227  15.6156159
  56.5140012  83.6894997  16.2679988  55.6510012  83.3104997  16.1019988
  57.1190012  82.9504997  16.1939988  56.4775979  83.5378023  16.2352817
  54.2390012  79.8444997  -0.5590012  54.8500012  79.4734997   0.0779988
  53.4030012  79.4234997  -0.3630012  54.2095032  79.7367554  -0.4452965
  53.8720012  81.3994997   4.4069988  54.1520012  80.4924997   4.5309988
  54.6310012  81.8334997   4.0179988  54.0129277  81.3340942   4.3713682
  54.4840012  81.9804997   9.8429988  55.4170012  82.1924997   9.8089988
  54.2490012  82.0824997  10.7649988  54.5798036  82.0232769   9.9629976
  54.5130012  82.7174997  12.6189988  53.6700012  82.9854997  12.9849988
  54.9550012  83.5394997  12.4079988  54.4574158  82.8653291  12.6405491
  38.7940012  81.1654997  16.0959988  39.7140012  81.0434997  16.3319988
  38.3450012  80.4154997  16.4849988  38.8591580  81.0473727  16.1809006
  56.7960012  76.6974997  17.9719988  57.1460012  76.0434997  17.3669988
  56.9430012  77.5344997  17.5329988  56.8638419  76.7211591  17.8297118
  54.4850012  78.6624997   4.4549988  54.6680012  78.2134997   5.2809988
  53.8860012  78.0774997   3.9919988  54.4290202  78.5219975   4.5053275
  40.0150012  79.4774997   8.9869988  40.4610012  78.6854997   9.2889988
  40.4820012  80.1934997   9.4179988  40.1390172  79.4660624   9.0864820
  38.3190012  82.4764997  10.0559988  38.8110012  82.2554997   9.2649988
  38.6820012  83.3174997  10.3369988  38.4353126  82.5598357   9.9857531
  56.3160012  78.8064997  16.3219988  55.3980012  79.0774997  16.2859988
  56.4390012  78.2714997  15.5369988  56.2071066  78.7712892  16.2110487
  56.3520012  78.7294997   0.9829988  56.7640012  78.0084997   0.5079988
  57.0340012  79.3994997   1.0419988  56.5005885  78.7212368   0.9258915
  38.6330012  78.7344997   4.1099988  37.7080012  78.9434997   3.9809988
  39.0870012  79.2184997   3.4209988  38.5677368  78.8285993   3.9991226
  53.4040012  93.7184997   6.0559988  54.0560012  93.3714997   5.4479988
  53.9140012  94.2074997   6.7019988  53.5622637  93.7370597   6.0600236
  38.5970012  77.4724997  12.4549988  37.9320012  77.2264997  13.0979988
  38.1540012  78.0944997  11.8769988  38.4460956  77.5228632  12.4649352
  40.7890012  90.6474997  16.5989988  39.9680012  90.8224997  16.1389988
  40.5360012  90.5744997  17.5199988  40.6426164  90.6615622  16.6604923
  43.7430012  91.6224997  12.8579988  43.3180012  92.4314997  12.5749988
  44.6470012  91.7074997  12.5559988  43.8070271  91.7448469  12.7783776
  48.0540012  93.0214997  15.8169988  48.2390012  92.6874997  16.6949988
  48.9000012  93.3304997  15.4949988  48.1937539  93.0176047  15.8935605
  50.3990012  94.3074997  15.0609988  51.0760012  93.6744997  14.8209988
  50.7210012  94.7084997  15.8679988  50.5351637  94.2751154  15.1372793
  55.3160012  76.8964997  14.1409988  54.5040012  77.2214997  13.7529988
  55.5490012  76.1364997  13.6079988  55.2363423  76.8382436  14.0158253
  41.1450012  94.8784997  12.9049988  40.4240012  95.3184997  12.4539988
  40.7790012  94.6274997  13.7539988  40.9969804  94.9047698  12.9579840
  43.6120012  94.4784997  11.9349988  42.7470012  94.5504997  12.3389988
  43.5570012  95.0254997  11.1509988  43.4862085  94.5622685  11.8843362
  48.3220012  94.3664997  11.1099988  47.8660012  94.8954997  10.4559988
  48.4850012  94.9694997  11.8359988  48.2815585  94.5204468  11.1185062
  50.6500012  93.2444997  12.0549988  49.7450012  93.4094997  11.7899988
  51.0790012  94.0974997  11.9899988  50.5840799  93.3824483  12.0099182
  53.2540012  94.8144997  12.3499988  53.0720012  95.7304997  12.1399988
  53.4310012  94.4044997  11.5039988  53.2530210  94.8844822  12.2067885
  40.5590012  93.5014997   9.8149988  40.5410012  93.0764997  10.6729988
  41.3640012  93.1834997   9.4069988  40.6653875  93.4003812   9.8771655
  42.7010012  92.2114997   8.4699988  42.4820012  91.2954997   8.6399988
  43.5250012  92.3514997   8.9359988  42.7824420  92.1050520   8.5562774
  45.2380012  92.6814997   9.3189988  45.4510012  91.7934997   9.0319988
  45.3020012  92.6474997  10.2729988  45.2758232  92.5553102   9.4087397
  48.7460012  78.3454997   8.4629988  48.0720012  77.7164997   8.7189988
  49.3100012  77.8614997   7.8599988  48.7299230  78.1938744   8.4165340
  53.8890012  76.4534997   8.5759988  54.4930012  77.0004997   8.0739988
  53.0190012  76.7724997   8.3359988  53.8541241  76.5715806   8.4747654
  55.6160012  77.5914997   6.9089988  56.2280012  77.0774997   6.3829988
  55.9980012  78.4694997   6.9329988  55.7514540  77.6397140   6.8401830
  41.0730012  76.9794997   6.2849988  40.2960012  76.7454997   5.7779988
  41.6030012  76.1824997   6.2939988  41.0382330  76.8396988   6.2167742
  39.9090012  76.7774997   2.0889988  40.3480012  77.3884997   1.4969988
  39.2760012  77.3154997   2.5629988  39.8834514  76.9339257   2.0720930
  45.6520012  76.9064997   6.0989988  46.5270012  77.2944997   6.0689988
  45.5160012  76.6914997   7.0209988  45.7533695  76.9305184   6.2196440
  51.2090012  76.9364997   7.7479988  51.2850012  77.0314997   6.7979988
  50.9340012  76.0284997   7.8769988  51.1822321  76.8267867   7.6355079
  52.5620012  76.9624997   3.4399988  51.8600012  77.5774997   3.2309988
  52.1180012  76.1244997   3.5709988  52.4056330  76.9335783   3.4290328
  39.8100012  92.7254997   2.9869988  39.1250012  92.6874997   2.3189988
  39.8140012  93.6384997   3.2749988  39.7168193  92.8437016   2.9345284
  41.7700012  78.6934997   0.5309988  42.2620012  78.0634997   0.0039988
  42.3940012  78.9894997   1.1949988  41.9215446  78.6473199   0.5485980
  46.7960012  78.9864997   2.9879988  46.9740012  78.3404997   3.6709988
  46.7430012  79.8204997   3.4559988  46.8131829  79.0107985   3.1445940
  48.6750012  93.9354997   1.3839988  49.5410012  94.3014997   1.2059988
  48.4280012  93.4954997   0.5699988  48.7602392  93.9261756   1.2496289
  55.3840012  93.4984997   4.0629988  55.1890012  92.7504997   3.4979988
  55.3450012  94.2564997   3.4799988  55.3520380  93.4986099   3.9068384
  41.0310012  77.4934997  15.8029988  40.6650012  76.7284997  16.2459988
  41.9440012  77.5224997  16.0899988  41.1042790  77.3927224  15.9024070
  43.0040012  76.8444997  17.3389988  43.9020012  76.5704997  17.1539988
  42.6170012  76.1014997  17.8029988  43.0746612  76.7065914  17.3763643
  41.6280012  93.6454997   0.0119988  41.3610012  93.9324997   0.8849988
  42.4000012  93.0994997   0.1639988  41.6957488  93.6110294   0.1521050
  51.4250012  76.1764997  17.5209988  51.5020012  75.7504997  18.3749988
  52.3190012  76.1904997  17.1779988  51.5563428  76.1200879  17.5915310
  54.6010012  92.2494997  16.2129988  53.8190012  92.0634997  15.6939988
  54.5290012  93.1784997  16.4309988  54.4841777  92.3496492  16.1714048
  69.0070012  86.1354997   6.2439988  69.0960012  87.0794997   6.1119988
  68.3690012  85.8604997   5.5859988  68.9329081  86.2274830   6.1369614
  67.9400012  85.3904997   9.6629988  67.9020012  84.7444997  10.3679988
  67.6180012  84.9244997   8.8919988  67.8912333  85.2389408   9.6552978
  60.3090012  85.0054997  11.2559988  60.3500012  84.3794997  11.9789988
  61.0120012  85.6294997  11.4379988  60.4096363  85.0041196  11.3796044
  71.6460012  88.3294997   7.9639988  71.2060012  87.6094997   8.4149988
  71.6330012  89.0504997   8.5939988  71.5840226  88.3283731   8.1108494
  61.2320012  89.4554997   9.7909988  60.8630012  88.6534997   9.4209988
  62.1730012  89.2864997   9.8369988  61.3087289  89.3230153   9.7466316
  57.8420012  83.1154997   5.1839988  57.3950012  83.9614997   5.1649988
  57.2810012  82.5354997   4.6679988  57.7049900  83.1529916   5.1116801
  58.5530012  85.2774997   7.3099988  58.7660012  84.5074997   7.8369988
  59.2910012  85.3664997   6.7059988  58.6818496  85.1841394   7.3005300
  68.7580012  93.4344997   8.1769988  69.3780012  92.7574997   7.9029988
  68.5500012  93.2164997   9.0849988  68.8146904  93.3123870   8.2623365
  66.3300012  87.8234997  10.0689988  66.6340012  87.1374997   9.4739988
  67.0510012  87.9414997  10.6869988  66.4690671  87.7456305  10.0711816
  74.9930012  79.4244997  10.9299988  75.0420012  80.0344997  11.6659988
  75.4180012  79.8854997  10.2069988  75.0571824  79.5703741  10.9330205
  69.4710012  82.2174997  10.3969988  69.6130012  81.2714997  10.4169988
  69.3640012  82.4244997   9.4679988  69.4759864  82.1159534  10.2742339
  62.6250012  80.3184997   7.6689988  62.6690012  81.1784997   7.2509988
  62.1680012  79.7664997   7.0349988  62.5692185  80.3615799   7.5260299
  70.3480012  80.4494997   6.0699988  70.9940012  80.1204997   6.6949988
  70.8580012  80.9674997   5.4469988  70.5054264  80.4744611   6.0713862
  59.2460012  82.7154997   8.4309988  59.8990012  82.1654997   8.8629988
  59.2700012  82.4414997   7.5139988  59.3386683  82.6031466   8.3662123
  64.4020012  84.2654997   7.6459988  65.0180012  83.7394997   8.1559988
  63.8160012  83.6254997   7.2429988  64.4070810  84.1069208   7.6613173
  75.3840012  80.9024997  13.1659988  74.6960012  81.5604997  13.0699988
  75.4000012  80.7054997  14.1019988  75.2918525  80.9660462  13.2794808
  61.4360012  79.2364997  11.7429988  61.2170012  79.7664997  10.9769988
  60.7680012  79.4634997  12.3899988  61.3157600  79.3396906  11.7256379
  68.8050012  88.7364997   5.2869988  68.5090012  88.4144997   4.4359988
  68.4800012  89.6364997   5.3279988  68.7206371  88.8140215   5.1761801
  64.0050012  86.9124997  12.0299988  63.2650012  87.5104997  12.1339988
  64.7190012  87.4664997  11.7149988  64.0002237  87.0692831  12.0016465
  72.1120012  79.7404997   8.0499988  71.8960012  78.9744997   8.5829988
  72.7670012  80.2124997   8.5629988  72.1710632  79.6995889   8.1922861
  61.0290012  81.1284997   9.6949988  61.6430012  81.7614997  10.0689988
  61.5410012  80.6564997   9.0389988  61.1822296  81.1512370   9.6574252
  62.4120012  88.8764997  12.8179988  62.4070012  89.7564997  12.4399988
  61.5590012  88.7934997  13.2429988  62.2959464  88.9856117  12.8237907
  58.5330012  88.5474997   3.5999988  58.2610012  88.7764997   2.7109988
  58.5790012  89.3854997   4.0599988  58.5020094  88.6921213   3.5405697
  72.1580012  90.1694997  10.3119988  71.2170012  90.2274997  10.4739988
  72.4350012  91.0754997  10.1749988  72.0664679  90.2999443  10.3156815
  72.4590012  78.4554997  11.7299988  71.7230012  79.0664997  11.6919988
  73.1420012  78.8704997  11.2029988  72.4506541  78.5951374  11.6535832
  65.4620012  76.5424997   9.1959988  65.3450012  75.5934997   9.1409988
  64.6070012  76.8744997   9.4689988  65.3303733  76.4575409   9.2253897
  70.4100012  91.9504997   6.9379988  70.8360012  91.2434997   6.4529988
  70.7270012  92.7514997   6.5209988  70.5111019  91.9620994   6.8153130
  71.5700012  89.8514997   5.4459988  71.3120012  89.1614997   4.8349988
  71.6410012  89.4084997   6.2919988  71.5442856  89.6972124   5.4766885
  73.2560012  88.4174997  13.9239988  73.3960012  87.8264997  13.1839988
  73.4230012  89.2904997  13.5669988  73.2976778  88.4546426  13.7746965
  67.7290012  85.3794997   3.6959988  67.0170012  85.9144997   3.3439988
  68.4200012  85.4354997   3.0359988  67.7250132  85.4602543   3.5586289
  67.7820012  83.8374997   0.7349988  68.4830012  83.8594997   1.3859988
  68.0850012  83.2094997   0.0789988  67.9187830  83.7556566   0.7353711
  75.0980012  84.7574997  11.9899988  74.4450012  85.4524997  12.0789988
  75.5630012  84.9674997  11.1799988  75.0715390  84.8809425  11.8926883
  71.1340012  85.5894997   4.6479988  70.4020012  85.8174997   5.2209988
  71.5820012  84.8754997   5.1029988  71.0943095  85.5242571   4.7879119
  71.0320012  83.7634997  13.7149988  71.1120012  84.5264997  14.2869988
  70.4300012  84.0424997  13.0249988  70.9615756  83.9057134  13.7000589
  62.7800012  86.2194997   6.5299988  62.4490012  85.8494997   5.7119988
  63.3680012  85.5494997   6.8769988  62.8141873  86.0781156   6.4648102
  64.1460012  89.6474997   9.2119988  64.0520012  89.0694997   8.4549988
  64.8760012  89.2764997   9.7079988  64.2317981  89.5182390   9.1754165
  63.1460012  84.9884997  10.1639988  63.7120012  85.1094997   9.4009988
  63.4650012  85.6254997  10.8029988  63.2665786  85.0911884  10.1460040
  69.4550012  90.4914997  10.8979988  69.2150012  91.1534997  11.5459988
  69.2570012  89.6574997  11.3229988  69.3953808  90.4693134  11.0441524
  64.0260012  89.3874997  14.8809988  63.7150012  90.1694997  15.3359988
  63.3760012  89.2344997  14.1949988  63.8955558  89.4739105  14.8505871
  70.0050012  84.7514997   2.3329988  70.5850012  84.9014997   3.0799988
  70.4190012  85.2224997   1.6099988  70.1402830  84.8356841   2.3374134
  60.9460012  85.5854997  14.1099988  61.0170012  86.2364997  14.8079988
  60.0560012  85.6884997  13.7749988  60.8353117  85.6885936  14.1602700
  67.7320012  91.4884997   5.7679988  68.2060012  91.7834997   6.5459988
  67.1690012  92.2264997   5.5349988  67.7207653  91.6286932   5.8430136
  62.2660012  91.4594997  15.6439988  62.2730012  91.3234997  14.6969988
  61.3500012  91.3414997  15.8959988  62.1431714  91.4249430  15.5484666
  73.7040012  76.5014997   2.1459988  72.8040012  76.6404997   2.4409988
  73.9560012  77.3324997   1.7439988  73.6148702  76.6329074   2.1320205
  61.7700012  85.2894997   4.1199988  61.4780012  86.0574997   3.6289988
  61.0960012  84.6294997   3.9569988  61.6389081  85.3054406   4.0307340
  74.8930012  90.8674997   0.5219988  74.9670012  91.8064997   0.6929988
  75.7990012  90.5624997   0.4659988  75.0255100  90.9546722   0.5378119
  57.8630012  87.6524997  12.9349988  57.3620012  87.6244997  12.1199988
  57.8680012  86.7464997  13.2439988  57.7951526  87.5262278  12.8652872
  57.6130012  90.4324997   9.8189988  58.5590012  90.2884997   9.7999988
  57.5010012  91.2164997  10.3559988  57.7272727  90.5188046   9.8890072
  75.8110012  91.0984997  15.5009988  75.7620012  90.1434997  15.4639988
  74.9840012  91.3664997  15.9019988  75.6924940  91.0038998  15.5501375
  66.7900012  90.6724997  14.3769988  66.8770012  91.4984997  14.8519988
  65.9260012  90.3424997  14.6259988  66.6851964  90.7409878  14.4756549
  67.2040012  94.4444997   4.1829988  67.1290012  94.3234997   3.2369988
  67.2370012  95.3944997   4.3019988  67.1981848  94.5562500   4.0694834
  60.8570012  93.2334997   5.9639988  61.0100012  92.8854997   6.8429988
  60.0070012  92.8774997   5.7089988  60.7628962  93.1376650   6.0498340
  70.3060012  93.5984997   1.1849988  70.6810012  92.8544997   0.7149988
  70.3100012  93.3284997   2.1039988  70.3578915  93.4601486   1.2447824
  69.9750012  93.5244997   3.9349988  69.0390012  93.6244997   4.1129988
  70.2550012  92.8154997   4.5129988  69.8848255  93.4422711   4.0375391
  72.9630012  82.5914997  15.9809988  72.5560012  83.0724997  15.2599988
  73.0040012  81.6864997  15.6729988  72.9128437  82.5349374  15.8406683
  60.1120012  88.9754997  13.9779988  60.3280012  88.6144997  14.8369988
  59.2570012  88.6014997  13.7679988  60.0259292  88.8754111  14.0673386
  62.7310012  77.4454997   9.9729988  61.8690012  77.3584997   9.5659988
  62.7080012  78.3014997  10.4009988  62.6100330  77.5492765   9.9751863
  67.3940012  77.1674997  13.3479988  67.8140012  76.7524997  14.1009988
  66.4610012  76.9894997  13.4649988  67.3253644  77.0865900  13.4669539
  70.7200012  80.9234997  14.2009988  70.2060012  80.7974997  14.9989988
  70.5650012  81.8354997  13.9569988  70.6286852  81.0296132  14.2772158
  71.4830012  85.7844997  -0.0370012  71.5250012  85.5614997  -0.9670012
  72.3320012  86.1834997   0.1529988  71.6035396  85.8079155  -0.1386373
  67.0550012  79.6604997   0.6329988  66.8020012  79.6794997   1.5559988
  66.7990012  78.7884997   0.3319988  66.9857790  79.5452437   0.7186263
  62.8220012  82.4114997  11.0679988  62.1800012  82.3704997  11.7769988
  62.8590012  83.3374997  10.8309988  62.7391324  82.5311559  11.1329824
  62.8190012  82.6324997   5.9799988  61.9260012  82.2914997   5.9219988
  63.2690012  82.2554997   5.2249988  62.7577305  82.5348484   5.8699177
  68.3540012  83.0484997   4.7969988  67.9450012  83.8634997   4.5059988
  69.0750012  82.9084997   4.1829988  68.3954537  83.1412018   4.6741342
  67.4560012  83.2234997  16.2849988  66.8940012  82.5194997  16.6059988
  68.2830012  83.1034997  16.7529988  67.4907095  83.1107883  16.3922330
  69.3590012  82.4944997   7.6109988  69.1640012  83.0994997   6.8959988
  69.5400012  81.6604997   7.1769988  69.3567614  82.4646300   7.4544405
  60.5720012  82.7314997  12.9349988  60.5340012  83.1314997  13.8039988
  60.0810012  81.9144997  13.0259988  60.5004684  82.6758069  13.0661059
  63.9380012  80.1054997  -0.2660012  63.5070012  79.6604997   0.4639988
  63.2200012  80.4774997  -0.7780012  63.7819438  80.0948940  -0.2353201
  57.1800012  79.8474997   6.7859988  57.8110012  79.8184997   7.5049988
  57.6290012  79.4224997   6.0559988  57.3270774  79.7860492   6.7856553
  58.4540012  80.5934997   2.2099988  58.9280012  81.1844997   1.6249988
  57.7370012  81.1244997   2.5569988  58.4219341  80.7460867   2.1768836
  68.6230012  84.1324997  12.2829988  68.9460012  83.5014997  11.6399988
  68.1830012  83.5974997  12.9429988  68.6076895  83.9738441  12.2842850
  65.4000012  80.0594997   7.0669988  64.4890012  80.1164997   7.3549988
  65.9060012  79.9994997   7.8769988  65.3435413  80.0591985   7.2160622
  60.2290012  81.6884997   5.8929988  59.3390012  81.7884997   5.5529988
  60.5250012  80.8464997   5.5469988  60.1472823  81.5883545   5.7997213
  63.8820012  81.6884997   3.5499988  64.8130012  81.8174997   3.7279988
  63.6670012  82.3584997   2.8999988  63.9804247  81.7966565   3.4865747
  69.8050012  79.2944997  10.3309988  69.1290012  79.4254997  10.9949988
  69.3200012  79.1394997   9.5209988  69.6467145  79.2914905  10.3124517
  62.5560012  82.8834997   1.1169988  62.0130012  82.5034997   0.4249988
  63.3890012  83.0774997   0.6879988  62.5944399  82.8578124   0.9644526
  73.0930012  94.9664997  16.6079988  73.2930012  95.3904997  15.7729988
  73.7480012  95.3094997  17.2149988  73.2090051  95.0709648  16.5757836
  60.6910012  87.4404997  16.2159988  61.4230012  87.6944997  16.7769988
  59.9110012  87.6444997  16.7309988  60.6858232  87.5029177  16.3625760
  66.7200012  82.8474997   8.9539988  67.2850012  82.3004997   8.4069988
  66.5730012  82.3254997   9.7419988  66.7772918  82.7022024   8.9858454
  61.7220012  78.9834997   5.3719988  61.4050012  78.0814997   5.3369988
  62.5040012  78.9854997   4.8189988  61.7842284  78.8601628   5.2924783
  65.3470012  81.2354997  11.3679988  64.5110012  81.6894997  11.4779988
  65.8710012  81.5114997  12.1199988  65.3034414  81.3349376  11.4847136
  65.8910012  87.4484997   3.0519988  65.1460012  86.9414997   2.7299988
  65.7570012  87.4974997   3.9989988  65.7708776  87.3856940   3.1358647
  73.0410012  86.5814997  11.8389988  73.6830012  87.0384997  11.2949988
  72.2110012  86.6944997  11.3759988  73.0165963  86.6592704  11.7020177
  69.7890012  80.2624997   1.2519988  68.8500012  80.3744997   1.0999988
  70.0860012  81.1194997   1.5579988  69.7007666  80.3936443   1.2725768
  67.4100012  87.6324997  14.2889988  67.0650012  87.2514997  15.0959988
  67.2100012  88.5664997  14.3609988  67.3358061  87.7065228  14.4090961
  70.5070012  82.1294997   2.9119988  71.3990012  81.9924997   3.2309988
  70.5640012  82.9204997   2.3759988  70.6366285  82.2176660   2.8831691
  61.0160012  86.7434997   8.8219988  61.7610012  86.7414997   8.2209988
  61.0940012  85.9204997   9.3039988  61.1285518  86.6319315   8.8048929
  68.0170012  88.9074997   2.0779988  67.7210012  89.7334997   2.4589988
  67.3140012  88.2874997   2.2739988  67.8814914  88.9368199   2.1566443
  58.0240012  85.2044997  14.1369988  58.2470012  84.7864997  14.9689988
  57.4220012  84.5914997  13.7139988  57.9731759  85.0644668  14.1937022
  65.0400012  84.7214997  16.3499988  64.7440012  84.5554997  15.4549988
  65.9720012  84.5014997  16.3389988  65.1254166  84.6690640  16.2260536
  69.6610012  90.0944997  14.2399988  68.7600012  90.2774997  13.9719988
  69.6950012  90.3534997  15.1609988  69.5423041  90.1545512  14.3278197
  75.3920012  82.3394997   2.6069988  74.8380012  81.9434997   1.9349988
  75.4920012  83.2494997   2.3289988  75.3297059  82.4083586   2.4774401
  75.3550012  88.1394997  15.4439988  74.5040012  88.3774997  15.0769988
  75.9460012  88.1224997  14.6909988  75.3182487  88.1698258  15.2918893
  73.6870012  91.1254997   3.0719988  73.3140012  90.2994997   3.3809988
  73.9650012  90.9424997   2.1749988  73.6735630  90.9877303   2.9929626
  70.8480012  85.9334997  10.0929988  69.9190012  85.7014997  10.0659988
  71.2990012  85.1564997   9.7629988  70.7819216  85.7967238  10.0446917
  63.3910012  90.2614997   6.2259988  63.9180012  91.0344997   6.0259988
  62.5110012  90.4864997   5.9249988  63.3441773  90.3978005   6.1579010
  59.1460012  85.1234997   0.8129988  59.7620012  85.7504997   1.1929988
  58.2840012  85.4394997   1.0849988  59.1137698  85.2519430   0.9017183
  64.8180012  87.9244997   5.8029988  64.5770012  88.8494997   5.8439988
  64.0770012  87.4654997   6.1989988  64.6848409  87.9891421   5.8621377
  65.3330012  92.0734997  12.1179988  65.6950012  92.9284997  11.8839988
  65.8640012  91.7814997  12.8579988  65.4544473  92.1511060  12.1860855
  63.5010012  92.9464997   5.3479988  62.5510012  93.0514997   5.3989988
  63.8530012  93.7664997   5.6929988  63.4184203  93.0718314   5.4016650
  68.8770012  88.1724997  11.8179988  68.4510012  87.9454997  12.6449988
  69.4570012  87.4344997  11.6359988  68.8971868  88.0415299  11.9065830
  71.0800012  89.1014997   0.8919988  71.4330012  88.7214997   1.6969988
  70.1310012  89.0084997   0.9789988  71.0000441  89.0369596   1.0138559
  71.5350012  92.7244997  14.2879988  70.9340012  92.1694997  13.7919988
  71.8170012  93.3914997  13.6619988  71.4908519  92.7386841  14.1354952
  75.5830012  93.5814997   1.0929988  76.3270012  94.1674997   0.9529988
  74.8890012  94.1494997   1.4269988  75.5910292  93.7385582   1.1189961
  59.6580012  79.9574997  13.6949988  58.7650012  80.2964997  13.6269988
  59.5590012  79.1024997  14.1129988  59.5224164  79.8882588  13.7422235
  71.9460012  87.7744997   3.1189988  71.6680012  87.0464997   3.6749988
  72.8730012  87.8934997   3.3239988  72.0333124  87.6908802   3.2228845
  59.3090012  91.7624997  12.1299988  59.5260012  90.8304997  12.0989988
  59.5550012  92.0364997  13.0129988  59.3719549  91.6720636  12.2451763
  65.1710012  90.2134997  -0.6610012  65.4100012  89.4654997  -1.2080012
  64.9020012  89.8254997   0.1719988  65.1673675  90.0586638  -0.6233135
  64.1080012  89.7834997   1.7959988  64.2540012  89.2634997   2.5859988
  64.1050012  90.6904997   2.1019988  64.1275989  89.8348853   1.9456088
  60.5610012  87.0364997   2.3059988  59.8750012  87.3884997   2.8729988
  61.0830012  87.7994997   2.0589988  60.5376852  87.1878578   2.3502118
  68.3920012  79.6984997  12.5849988  69.0910012  79.7724997  13.2349988
  68.0110012  78.8344997  12.7389988  68.4361767  79.5917624  12.6948322
  69.1770012  79.3504997   3.6819988  69.3970012  79.8224997   2.8789988
  69.7350012  79.7454997   4.3519988  69.2824968  79.4684285   3.6627331
  66.8450012  91.4814997   2.5449988  66.0290012  91.9784997   2.5969988
  67.3750012  91.9564997   1.9049988  66.8049161  91.6137722   2.4655956
  66.3770012  81.0784997   4.5169988  67.1890012  81.5834997   4.5629988
  66.1320012  80.9334997   5.4309988  66.4550520  81.1280375   4.6468517
  66.9120012  82.0644997  13.7019988  67.0310012  82.6384997  14.4589988
  67.5680012  81.3764997  13.8159988  67.0169757  82.0501079  13.8210825
  67.2600012  78.1594997   5.4549988  66.9140012  78.7774997   6.0999988
  67.9190012  78.6604997   4.9739988  67.3017826  78.3115802   5.4780971
  64.1840012  92.5254997   2.5269988  64.3440012  93.3244997   2.0259988
  63.9860012  92.8314997   3.4119988  64.1791649  92.6764469   2.5779815
  62.9180012  79.2224997   2.1419988  62.8350012  80.1114997   2.4889988
  63.8080012  78.9574997   2.3739988  63.0269469  79.3081430   2.2207626
  73.1170012  79.9714997  14.5369988  72.2000012  80.2344997  14.4489988
  73.4520012  79.9684997  13.6399988  73.0369900  80.0070224  14.4037919
  71.7190012  83.7224997   8.6319988  70.9210012  83.3074997   8.3039988
  72.1640012  83.0314997   9.1229988  71.6699885  83.5723543   8.6534889
  61.1770012  89.6504997   1.2029988  61.7690012  90.3494997   1.4789988
  61.6360012  89.2174997   0.4829988  61.3201142  89.6877049   1.1434830
  59.4930012  82.3144997   0.3189988  59.4480012  83.2534997   0.4969988
  58.6050012  82.0784997   0.0489988  59.3668574  82.4111892   0.3068912
  72.8050012  92.9784997  10.2549988  72.6500012  93.6564997   9.5979988
  73.7380012  93.0504997  10.4579988  72.9098500  93.0810170  10.1925119
  60.3010012  77.0964997   8.9919988  60.0720012  77.1554997   8.0639988
  59.8580012  76.3044997   9.2979988  60.2098530  76.9975753   8.9064786
  59.2310012  91.0364997   5.1519988  58.3990012  91.5094997   5.1799988
  59.7770012  91.5464997   4.5539988  59.1909739  91.1701871   5.0749716
  58.5190012  93.6494997  16.4819988  59.0600012  93.4324997  17.2419988
  58.0380012  92.8434997  16.2929988  58.5279345  93.5109514  16.5603076
  63.1170012  92.5684997  18.1029988  63.8840012  92.1094997  18.4439988
  63.0950012  92.3424997  17.1729988  63.2191434  92.4750409  18.0240043
  67.2090012  92.0764997  -0.5220012  66.5650012  91.4454997  -0.2010012
  67.9710012  91.5454997  -0.7540012  67.2238077  91.9182920  -0.5093989
  69.6940012  90.9484997  16.8319988  69.3430012  90.0924997  17.0749988
  70.4200012  91.0914997  17.4389988  69.7440769  90.8505636  16.9473619
  71.8130012  91.8934997  -0.2880012  72.0960012  91.0994997   0.1639988
  72.5530012  92.1264997  -0.8490012  71.9517486  91.8162803  -0.3019302
  58.4260012  87.4594997  17.4369988  58.5700012  86.5574997  17.1499988
  57.6540012  87.7454997  16.9489988  58.3413322  87.3748261  17.3317881
  62.7680012  87.8034997  -0.4310012  62.8320012  87.0094997   0.0999988
  63.4210012  87.6844997  -1.1210012  62.8650241  87.6787148  -0.4515683
  65.0820012  87.4294997  16.8689988  64.7530012  87.7004997  16.0119988
  65.2340012  86.4884997  16.7819988  65.0574809  87.3393862  16.7398244
  68.1200012  88.8504997  -0.6950012  67.8510012  89.0304997   0.2059988
  67.9140012  87.9244997  -0.8260012  68.0553825  88.7500152  -0.5894786
  70.8160012  87.3454997  14.2529988  71.5620012  87.9334997  14.1329988
  70.0590012  87.9274997  14.3159988  70.8157554  87.5047011  14.2450907
  59.2590012  84.6594997  16.8569988  59.6670012  83.8024997  16.7359988
  58.9990012  84.6744997  17.7779988  59.2797568  84.5440807  16.9649588
  63.9170012  85.7754997   1.8749988  63.4570012  85.2914997   2.5609988
  64.1720012  85.1074997   1.2389988  63.8884902  85.6188731   1.8829334
  63.2060012  83.6684997  14.2309988  62.5880012  84.3434997  14.5109988
  63.5500012  83.9894997  13.3979988  63.1679615  83.8042721  14.1566581
  64.9880012  84.0184997   0.1369988  64.8080012  83.8644997  -0.7900012
  65.9380012  84.1264997   0.1819988  65.0917776  84.0120175   0.0161843
  68.2260012  86.1404997  17.5079988  69.1790012  86.2234997  17.4809988
  68.0650012  85.4284997  18.1279988  68.3346426  86.0556746  17.5880579
  74.3780012  86.3734997  -0.4170012  74.1040012  85.9484997  -1.2300012
  74.4170012  87.3044997  -0.6340012  74.3457699  86.4412484  -0.5576390
  63.5450012  81.0234997  15.3129988  63.6950012  80.2944997  14.7109988
  63.5480012  81.8004997  14.7539988  63.5659302  81.0287851  15.1550692
  63.9580012  79.3934997  12.8059988  64.4940012  79.8444997  12.1539988
  63.1060012  79.2854997  12.3829988  63.9162178  79.4406390  12.6595756
  65.5400012  84.8324997  13.0449988  66.2900012  84.6764997  12.4719988
  65.2010012  85.6844997  12.7699988  65.5968921  84.9262968  12.9293561
  69.9550012  82.6474997  18.0739988  70.1480012  81.7164997  17.9619988
  70.8130012  83.0724997  18.0639988  70.0973020  82.5776389  18.0573361
  71.2720012  85.4364997  16.1509988  70.9910012  86.1454997  15.5739988
  72.2150012  85.3634997  15.9999988  71.3609027  85.5237646  16.0515551
  62.0240012  82.2214997  17.2249988  61.2570012  81.6894997  17.0149988
  62.7030012  81.9114997  16.6249988  62.0107022  82.1067506  17.1151648
  64.7640012  76.8494997  13.2369988  64.6650012  77.7964997  13.1319988
  64.0210012  76.4774997  12.7619988  64.6500564  76.9285902  13.1584560
  66.0280012  81.1714997  16.8009988  65.7920012  80.9514997  17.7029988
  65.2440012  80.9644997  16.2909988  65.8898628  81.1134760  16.8553932
  68.7430012  80.2984997  15.8769988  67.7960012  80.3304997  16.0089988
  69.0560012  79.6734997  16.5299988  68.6555475  80.2183207  15.9834455
  60.2040012  80.1424997  16.9289988  60.4160012  79.4354997  16.3189988
  60.0930012  79.7044997  17.7729988  60.2179721  79.9867084  16.9596843
  64.9850012  76.1434997  15.9089988  65.6970012  75.5034997  15.8949988
  64.8840012  76.4104997  14.9949988  65.0687939  76.0919938  15.7835650
  65.3390012  77.8264997  17.9619988  65.2070012  77.3504997  17.1419988
  64.7400012  78.5704997  17.9069988  65.2399071  77.8619618  17.8422886
  64.8850012  94.7094997   1.1389988  65.8180012  94.8674997   1.2819988
  64.6210012  95.3844997   0.5139988  64.9769510  94.8223611   1.0740741
  58.4540012  89.3454997   0.6209988  59.3680012  89.4244997   0.8949988
  58.4610012  88.6584997  -0.0450012  58.5801131  89.2633961   0.5684393
  57.1030012  94.7384997   5.6989988  56.4560012  94.2764997   5.1659988
  57.4570012  94.0664997   6.2809988  57.0623849  94.5844723   5.7047959
  57.9730012  92.8194997   7.5029988  57.6380012  91.9394997   7.6749988
  58.1950012  93.1644997   8.3679988  57.9571783  92.7457500   7.6434208
  75.5210012  93.6284997  10.4839988  75.5000012  93.8134997  11.4229988
  76.2120012  94.1974997  10.1429988  75.6114618  93.7306606  10.5663864
  75.0850012  93.1964997  13.4059988  74.5970012  92.4604997  13.0349988
  75.6340012  92.8024997  14.0839988  75.0924872  93.0426249  13.4469160
  73.5350012  88.9854997  18.0439988  72.6690012  88.8804997  18.4379988
  73.9120012  89.7444997  18.4899988  73.4673308  89.0736900  18.1582393
  74.8360012  87.2424997   3.5579988  75.6860012  87.6634997   3.6849988
  74.8420012  86.5024997   4.1649988  74.9531372  87.2000803   3.6574344
  75.2310012  85.2954997   5.3819988  74.5040012  84.8164997   5.7789988
  75.8120012  85.5014997   6.1139988  75.2099375  85.2577090   5.5354129
  74.9900012  88.0804997  10.3289988  75.8230012  87.7024997  10.0489988
  75.1020012  89.0234997  10.2099988  75.1192647  88.1562218  10.2745487
  73.4760012  90.9584997  12.6359988  72.8290012  91.2834997  13.2619988
  72.9590012  90.5184997  11.9619988  73.3174029  90.9435004  12.6305827
  75.4990012  85.1964997   1.7729988  74.9770012  85.5534997   1.0539988
  75.4660012  85.8714997   2.4509988  75.4231634  85.3365413   1.7663145
  73.8480012  82.4364997   0.3239988  73.9440012  83.1034997  -0.3570012
  73.7080012  81.6204997  -0.1580012  73.8422135  82.4174500   0.1658491
  73.0170012  83.8164997   5.9449988  72.8670012  82.8714997   5.9239988
  72.6640012  84.0974997   6.7879988  72.9486625  83.7250441   6.0562346
  58.0530012  85.8944997   9.9549988  58.2370012  85.8124997   9.0189988
  58.9020012  85.7704997  10.3789988  58.1930139  85.8665003   9.8841455
  73.8740012  85.7864997  15.5829988  74.4570012  85.0524997  15.7749988
  74.4380012  86.5584997  15.6299988  74.0299769  85.7904227  15.6156159
  75.3700012  83.6894997  16.2679988  74.5070012  83.3104997  16.1019988
  75.9750012  82.9504997  16.1939988  75.3335979  83.5378023  16.2352817
  73.0950012  79.8444997  -0.5590012  73.7060012  79.4734997   0.0779988
  72.2590012  79.4234997  -0.3630012  73.0655032  79.7367554  -0.4452965
  72.7280012  81.3994997   4.4069988  73.0080012  80.4924997   4.5309988
  73.4870012  81.8334997   4.0179988  72.8689277  81.3340942   4.3713682
  73.3400012  81.9804997   9.8429988  74.2730012  82.1924997   9.8089988
  73.1050012  82.0824997  10.7649988  73.4358036  82.0232769   9.9629976
  73.3690012  82.7174997  12.6189988  72.5260012  82.9854997  12.9849988
  73.8110012  83.5394997  12.4079988  73.3134158  82.8653291  12.6405491
  57.6500012  81.1654997  16.0959988  58.5700012  81.0434997  16.3319988
  57.2010012  80.4154997  16.4849988  57.7151580  81.0473727  16.1809006
  73.3410012  78.6624997   4.4549988  73.5240012  78.2134997   5.2809988
  72.7420012  78.0774997   3.9919988  73.2850202  78.5219975   4.5053275
  58.8710012  79.4774997   8.9869988  59.3170012  78.6854997   9.2889988
  59.3380012  80.1934997   9.4179988  58.9950172  79.4660624   9.0864820
  57.1750012  82.4764997  10.0559988  57.6670012  82.2554997   9.2649988
  57.5380012  83.3174997  10.3369988  57.2913126  82.5598357   9.9857531
  75.1720012  78.8064997  16.3219988  74.2540012  79.0774997  16.2859988
  75.2950012  78.2714997  15.5369988  75.0631066  78.7712892  16.2110487
  75.2080012  78.7294997   0.9829988  75.6200012  78.0084997   0.5079988
  75.8900012  79.3994997   1.0419988  75.3565885  78.7212368   0.9258915
  57.4890012  78.7344997   4.1099988  56.5640012  78.9434997   3.9809988
  57.9430012  79.2184997   3.4209988  57.4237368  78.8285993   3.9991226
  72.2600012  93.7184997   6.0559988  72.9120012  93.3714997   5.4479988
  72.7700012  94.2074997   6.7019988  72.4182637  93.7370597   6.0600236
  57.4530012  77.4724997  12.4549988  56.7880012  77.2264997  13.0979988
  57.0100012  78.0944997  11.8769988  57.3020956  77.5228632  12.4649352
  59.6450012  90.6474997  16.5989988  58.8240012  90.8224997  16.1389988
  59.3920012  90.5744997  17.5199988  59.4986164  90.6615622  16.6604923
  62.5990012  91.6224997  12.8579988  62.1740012  92.4314997  12.5749988
  63.5030012  91.7074997  12.5559988  62.6630271  91.7448469  12.7783776
  66.9100012  93.0214997  15.8169988  67.0950012  92.6874997  16.6949988
  67.7560012  93.3304997  15.4949988  67.0497539  93.0176047  15.8935605
  69.2550012  94.3074997  15.0609988  69.9320012  93.6744997  14.8209988
  69.5770012  94.7084997  15.8679988  69.3911637  94.2751154  15.1372793
  74.1720012  76.8964997  14.1409988  73.3600012  77.2214997  13.7529988
  74.4050012  76.1364997  13.6079988  74.0923423  76.8382436  14.0158253
  60.0010012  94.8784997  12.9049988  59.2800012  95.3184997  12.4539988
  59.6350012  94.6274997  13.7539988  59.8529804  94.9047698  12.9579840
  62.4680012  94.4784997  11.9349988  61.6030012  94.5504997  12.3389988
  62.4130012  95.0254997  11.1509988  62.3422085  94.5622685  11.8843362
  67.1780012  94.3664997  11.1099988  66.7220012  94.8954997  10.4559988
  67.3410012  94.9694997  11.8359988  67.1375585  94.5204468  11.1185062
  69.5060012  93.2444997  12.0549988  68.6010012  93.4094997  11.7899988
  69.9350012  94.0974997  11.9899988  69.4400799  93.3824483  12.0099182
  72.1100012  94.8144997  12.3499988  71.9280012  95.7304997  12.1399988
  72.2870012  94.4044997  11.5039988  72.1090210  94.8844822  12.2067885
  59.4150012  93.5014997   9.8149988  59.3970012  93.0764997  10.6729988
  60.2200012  93.1834997   9.4069988  59.5213875  93.4003812   9.8771655
  61.5570012  92.2114997   8.4699988  61.3380012  91.2954997   8.6399988
  62.3810012  92.3514997   8.9359988  61.6384420  92.1050520   8.5562774
  64.0940012  92.6814997   9.3189988  64.3070012  91.7934997   9.0319988
  64.1580012  92.6474997  10.2729988  64.1318232  92.5553102   9.4087397
  67.6020012  78.3454997   8.4629988  66.9280012  77.7164997   8.7189988
  68.1660012  77.8614997   7.8599988  67.5859230  78.1938744   8.4165340
  72.7450012  76.4534997   8.5759988  73.3490012  77.0004997   8.0739988
  71.8750012  76.7724997   8.3359988  72.7101241  76.5715806   8.4747654
  74.4720012  77.5914997   6.9089988  75.0840012  77.0774997   6.3829988
  74.8540012  78.4694997   6.9329988  74.6074540  77.6397140   6.8401830
  59.9290012  76.9794997   6.2849988  59.1520012  76.7454997   5.7779988
  60.4590012  76.1824997   6.2939988  59.8942330  76.8396988   6.2167742
  58.7650012  76.7774997   2.0889988  59.2040012  77.3884997   1.4969988
  58.1320012  77.3154997   2.5629988  58.7394514  76.9339257   2.0720930
  64.5080012  76.9064997   6.0989988  65.3830012  77.2944997   6.0689988
  64.3720012  76.6914997   7.0209988  64.6093695  76.9305184   6.2196440
  70.0650012  76.9364997   7.7479988  70.1410012  77.0314997   6.7979988
  69.7900012  76.0284997   7.8769988  70.0382321  76.8267867   7.6355079
  71.4180012  76.9624997   3.4399988  70.7160012  77.5774997   3.2309988
  70.9740012  76.1244997   3.5709988  71.2616330  76.9335783   3.4290328
  58.6660012  92.7254997   2.9869988  57.9810012  92.6874997   2.3189988
  58.6700012  93.6384997   3.2749988  58.5728193  92.8437016   2.9345284
  60.6260012  78.6934997   0.5309988  61.1180012  78.0634997   0.0039988
  61.2500012  78.9894997   1.1949988  60.7775446  78.6473199   0.5485980
  65.6520012  78.9864997   2.9879988  65.8300012  78.3404997   3.6709988
  65.5990012  79.8204997   3.4559988  65.6691829  79.0107985   3.1445940
  67.5310012  93.9354997   1.3839988  68.3970012  94.3014997   1.2059988
  67.2840012  93.4954997   0.5699988  67.6162392  93.9261756   1.2496289
  74.2400012  93.4984997   4.0629988  74.0450012  92.7504997   3.4979988
  74.2010012  94.2564997   3.4799988  74.2080380  93.4986099   3.9068384
  59.8870012  77.4934997  15.8029988  59.5210012  76.7284997  16.2459988
  60.8000012  77.5224997  16.0899988  59.9602790  77.3927224  15.9024070
  61.8600012  76.8444997  17.3389988  62.7580012  76.5704997  17.1539988
  61.4730012  76.1014997  17.8029988  61.9306612  76.7065914  17.3763643
  60.4840012  93.6454997   0.0119988  60.2170012  93.9324997   0.8849988
  61.2560012  93.0994997   0.1639988  60.5517488  93.6110294   0.1521050
  73.4570012  92.2494997  16.2129988  72.6750012  92.0634997  15.6939988
  73.3850012  93.1784997  16.4309988  73.3401777  92.3496492  16.1714048
  87.8630012  86.1354997   6.2439988  87.9520012  87.0794997   6.1119988
  87.2250012  85.8604997   5.5859988  87.7889081  86.2274830   6.1369614
  86.7960012  85.3904997   9.6629988  86.7580012  84.7444997  10.3679988
  86.4740012  84.9244997   8.8919988  86.7472333  85.2389408   9.6552978
  79.1650012  85.0054997  11.2559988  79.2060012  84.3794997  11.9789988
  79.8680012  85.6294997  11.4379988  79.2656363  85.0041196  11.3796044
  90.5020012  88.3294997   7.9639988  90.0620012  87.6094997   8.4149988
  90.4890012  89.0504997   8.5939988  90.4400226  88.3283731   8.1108494
  80.0880012  89.4554997   9.7909988  79.7190012  88.6534997   9.4209988
  81.0290012  89.2864997   9.8369988  80.1647289  89.3230153   9.7466316
  76.6980012  83.1154997   5.1839988  76.2510012  83.9614997   5.1649988
  76.1370012  82.5354997   4.6679988  76.5609900  83.1529916   5.1116801
  77.4090012  85.2774997   7.3099988  77.6220012  84.5074997   7.8369988
  78.1470012  85.3664997   6.7059988  77.5378496  85.1841394   7.3005300
  87.6140012  93.4344997   8.1769988  88.2340012  92.7574997   7.9029988
  87.4060012  93.2164997   9.0849988  87.6706904  93.3123870   8.2623365
  85.1860012  87.8234997  10.0689988  85.4900012  87.1374997   9.4739988
  85.9070012  87.9414997  10.6869988  85.3250671  87.7456305  10.0711816
  93.8490012  79.4244997  10.9299988  93.8980012  80.0344997  11.6659988
  94.2740012  79.8854997  10.2069988  93.9131824  79.5703741  10.9330205
  88.3270012  82.2174997  10.3969988  88.4690012  81.2714997  10.4169988
  88.2200012  82.4244997   9.4679988  88.3319864  82.1159534  10.2742339
  81.4810012  80.3184997   7.6689988  81.5250012  81.1784997   7.2509988
  81.0240012  79.7664997   7.0349988  81.4252185  80.3615799   7.5260299
  89.2040012  80.4494997   6.0699988  89.8500012  80.1204997   6.6949988
  89.7140012  80.9674997   5.4469988  89.3614264  80.4744611   6.0713862
  78.1020012  82.7154997   8.4309988  78.7550012  82.1654997   8.8629988
  78.1260012  82.4414997   7.5139988  78.1946683  82.6031466   8.3662123
  83.2580012  84.2654997   7.6459988  83.8740012  83.7394997   8.1559988
  82.6720012  83.6254997   7.2429988  83.2630810  84.1069208   7.6613173
  94.2400012  80.9024997  13.1659988  93.5520012  81.5604997  13.0699988
  94.2560012  80.7054997  14.1019988  94.1478525  80.9660462  13.2794808
  80.2920012  79.2364997  11.7429988  80.0730012  79.7664997  10.9769988
  79.6240012  79.4634997  12.3899988  80.1717600  79.3396906  11.7256379
  87.6610012  88.7364997   5.2869988  87.3650012  88.4144997   4.4359988
  87.3360012  89.6364997   5.3279988  87.5766371  88.8140215   5.1761801
  82.8610012  86.9124997  12.0299988  82.1210012  87.5104997  12.1339988
  83.5750012  87.4664997  11.7149988  82.8562237  87.0692831  12.0016465
  90.9680012  79.7404997   8.0499988  90.7520012  78.9744997   8.5829988
  91.6230012  80.2124997   8.5629988  91.0270632  79.6995889   8.1922861
  79.8850012  81.1284997   9.6949988  80.4990012  81.7614997  10.0689988
  80.3970012  80.6564997   9.0389988  80.0382296  81.1512370   9.6574252
  81.2680012  88.8764997  12.8179988  81.2630012  89.7564997  12.4399988
  80.4150012  88.7934997  13.2429988  81.1519464  88.9856117  12.8237907
  77.3890012  88.5474997   3.5999988  77.1170012  88.7764997   2.7109988
  77.4350012  89.3854997   4.0599988  77.3580094  88.6921213   3.5405697
  91.0140012  90.1694997  10.3119988  90.0730012  90.2274997  10.4739988
  91.2910012  91.0754997  10.1749988  90.9224679  90.2999443  10.3156815
  91.3150012  78.4554997  11.7299988  90.5790012  79.0664997  11.6919988
  91.9980012  78.8704997  11.2029988  91.3066541  78.5951374  11.6535832
  84.3180012  76.5424997   9.1959988  84.2010012  75.5934997   9.1409988
  83.4630012  76.8744997   9.4689988  84.1863733  76.4575409   9.2253897
  89.2660012  91.9504997   6.9379988  89.6920012  91.2434997   6.4529988
  89.5830012  92.7514997   6.5209988  89.3671019  91.9620994   6.8153130
  90.4260012  89.8514997   5.4459988  90.1680012  89.1614997   4.8349988
  90.4970012  89.4084997   6.2919988  90.4002856  89.6972124   5.4766885
  92.1120012  88.4174997  13.9239988  92.2520012  87.8264997  13.1839988
  92.2790012  89.2904997  13.5669988  92.1536778  88.4546426  13.7746965
  86.5850012  85.3794997   3.6959988  85.8730012  85.9144997   3.3439988
  87.2760012  85.4354997   3.0359988  86.5810132  85.4602543   3.5586289
  86.6380012  83.8374997   0.7349988  87.3390012  83.8594997   1.3859988
  86.9410012  83.2094997   0.0789988  86.7747830  83.7556566   0.7353711
  93.9540012  84.7574997  11.9899988  93.3010012  85.4524997  12.0789988
  94.4190012  84.9674997  11.1799988  93.9275390  84.8809425  11.8926883
  89.9900012  85.5894997   4.6479988  89.2580012  85.8174997   5.2209988
  90.4380012  84.8754997   5.1029988  89.9503095  85.5242571   4.7879119
  89.8880012  83.7634997  13.7149988  89.9680012  84.5264997  14.2869988
  89.2860012  84.0424997  13.0249988  89.8175756  83.9057134  13.7000589
  81.6360012  86.2194997   6.5299988  81.3050012  85.8494997   5.7119988
  82.2240012  85.5494997   6.8769988  81.6701873  86.0781156   6.4648102
  83.0020012  89.6474997   9.2119988  82.9080012  89.0694997   8.4549988
  83.7320012  89.2764997   9.7079988  83.0877981  89.5182390   9.1754165
  82.0020012  84.9884997  10.1639988  82.5680012  85.1094997   9.4009988
  82.3210012  85.6254997  10.8029988  82.1225786  85.0911884  10.1460040
  88.3110012  90.4914997  10.8979988  88.0710012  91.1534997  11.5459988
  88.1130012  89.6574997  11.3229988  88.2513808  90.4693134  11.0441524
  82.8820012  89.3874997  14.8809988  82.5710012  90.1694997  15.3359988
  82.2320012  89.2344997  14.1949988  82.7515558  89.4739105  14.8505871
  88.8610012  84.7514997   2.3329988  89.4410012  84.9014997   3.0799988
  89.2750012  85.2224997   1.6099988  88.9962830  84.8356841   2.3374134
  79.8020012  85.5854997  14.1099988  79.8730012  86.2364997  14.8079988
  78.9120012  85.6884997  13.7749988  79.6913117  85.6885936  14.1602700
  86.5880012  91.4884997   5.7679988  87.0620012  91.7834997   6.5459988
  86.0250012  92.2264997   5.5349988  86.5767653  91.6286932   5.8430136
  81.1220012  91.4594997  15.6439988  81.1290012  91.3234997  14.6969988
  80.2060012  91.3414997  15.8959988  80.9991714  91.4249430  15.5484666
  92.5600012  76.5014997   2.1459988  91.6600012  76.6404997   2.4409988
  92.8120012  77.3324997   1.7439988  92.4708702  76.6329074   2.1320205
  80.6260012  85.2894997   4.1199988  80.3340012  86.0574997   3.6289988
  79.9520012  84.6294997   3.9569988  80.4949081  85.3054406   4.0307340
  93.7490012  90.8674997   0.5219988  93.8230012  91.8064997   0.6929988
  94.6550012  90.5624997   0.4659988  93.8815100  90.9546722   0.5378119
  76.7190012  87.6524997  12.9349988  76.2180012  87.6244997  12.1199988
  76.7240012  86.7464997  13.2439988  76.6511526  87.5262278  12.8652872
  76.4690012  90.4324997   9.8189988  77.4150012  90.2884997   9.7999988
  76.3570012  91.2164997  10.3559988  76.5832727  90.5188046   9.8890072
  94.6670012  91.0984997  15.5009988  94.6180012  90.1434997  15.4639988
  93.8400012  91.3664997  15.9019988  94.5484940  91.0038998  15.5501375
  85.6460012  90.6724997  14.3769988  85.7330012  91.4984997  14.8519988
  84.7820012  90.3424997  14.6259988  85.5411964  90.7409878  14.4756549
  86.0600012  94.4444997   4.1829988  85.9850012  94.3234997   3.2369988
  86.0930012  95.3944997   4.3019988  86.0541848  94.5562500   4.0694834
  79.7130012  93.2334997   5.9639988  79.8660012  92.8854997   6.8429988
  78.8630012  92.8774997   5.7089988  79.6188962  93.1376650   6.0498340
  89.1620012  93.5984997   1.1849988  89.5370012  92.8544997   0.7149988
  89.1660012  93.3284997   2.1039988  89.2138915  93.4601486   1.2447824
  88.8310012  93.5244997   3.9349988  87.8950012  93.6244997   4.1129988
  89.1110012  92.8154997   4.5129988  88.7408255  93.4422711   4.0375391
  91.8190012  82.5914997  15.9809988  91.4120012  83.0724997  15.2599988
  91.8600012  81.6864997  15.6729988  91.7688437  82.5349374  15.8406683
  78.9680012  88.9754997  13.9779988  79.1840012  88.6144997  14.8369988
  78.1130012  88.6014997  13.7679988  78.8819292  88.8754111  14.0673386
  81.5870012  77.4454997   9.9729988  80.7250012  77.3584997   9.5659988
  81.5640012  78.3014997  10.4009988  81.4660330  77.5492765   9.9751863
  86.2500012  77.1674997  13.3479988  86.6700012  76.7524997  14.1009988
  85.3170012  76.9894997  13.4649988  86.1813644  77.0865900  13.4669539
  89.5760012  80.9234997  14.2009988  89.0620012  80.7974997  14.9989988
  89.4210012  81.8354997  13.9569988  89.4846852  81.0296132  14.2772158
  90.3390012  85.7844997  -0.0370012  90.3810012  85.5614997  -0.9670012
  91.1880012  86.1834997   0.1529988  90.4595396  85.8079155  -0.1386373
  85.9110012  79.6604997   0.6329988  85.6580012  79.6794997   1.5559988
  85.6550012  78.7884997   0.3319988  85.8417790  79.5452437   0.7186263
  81.6780012  82.4114997  11.0679988  81.0360012  82.3704997  11.7769988
  81.7150012  83.3374997  10.8309988  81.5951324  82.5311559  11.1329824
  81.6750012  82.6324997   5.9799988  80.7820012  82.2914997   5.9219988
  82.1250012  82.2554997   5.2249988  81.6137305  82.5348484   5.8699177
  87.2100012  83.0484997   4.7969988  86.8010012  83.8634997   4.5059988
  87.9310012  82.9084997   4.1829988  87.2514537  83.1412018   4.6741342
  86.3120012  83.2234997  16.2849988  85.7500012  82.5194997  16.6059988
  87.1390012  83.1034997  16.7529988  86.3467095  83.1107883  16.3922330
  88.2150012  82.4944997   7.6109988  88.0200012  83.0994997   6.8959988
  88.3960012  81.6604997   7.1769988  88.2127614  82.4646300   7.4544405
  79.4280012  82.7314997  12.9349988  79.3900012  83.1314997  13.8039988
  78.9370012  81.9144997  13.0259988  79.3564684  82.6758069  13.0661059
  82.7940012  80.1054997  -0.2660012  82.3630012  79.6604997   0.4639988
  82.0760012  80.4774997  -0.7780012  82.6379438  80.0948940  -0.2353201
  76.0360012  79.8474997   6.7859988  76.6670012  79.8184997   7.5049988
  76.4850012  79.4224997   6.0559988  76.1830774  79.7860492   6.7856553
  77.3100012  80.5934997   2.2099988  77.7840012  81.1844997   1.6249988
  76.5930012  81.1244997   2.5569988  77.2779341  80.7460867   2.1768836
  87.4790012  84.1324997  12.2829988  87.8020012  83.5014997  11.6399988
  87.0390012  83.5974997  12.9429988  87.4636895  83.9738441  12.2842850
  84.2560012  80.0594997   7.0669988  83.3450012  80.1164997   7.3549988
  84.7620012  79.9994997   7.8769988  84.1995413  80.0591985   7.2160622
  79.0850012  81.6884997   5.8929988  78.1950012  81.7884997   5.5529988
  79.3810012  80.8464997   5.5469988  79.0032823  81.5883545   5.7997213
  82.7380012  81.6884997   3.5499988  83.6690012  81.8174997   3.7279988
  82.5230012  82.3584997   2.8999988  82.8364247  81.7966565   3.4865747
  88.6610012  79.2944997  10.3309988  87.9850012  79.4254997  10.9949988
  88.1760012  79.1394997   9.5209988  88.5027145  79.2914905  10.3124517
  81.4120012  82.8834997   1.1169988  80.8690012  82.5034997   0.4249988
  82.2450012  83.0774997   0.6879988  81.4504399  82.8578124   0.9644526
  91.9490012  94.9664997  16.6079988  92.1490012  95.3904997  15.7729988
  92.6040012  95.3094997  17.2149988  92.0650051  95.0709648  16.5757836
  79.5470012  87.4404997  16.2159988  80.2790012  87.6944997  16.7769988
  78.7670012  87.6444997  16.7309988  79.5418232  87.5029177  16.3625760
  85.5760012  82.8474997   8.9539988  86.1410012  82.3004997   8.4069988
  85.4290012  82.3254997   9.7419988  85.6332918  82.7022024   8.9858454
  80.5780012  78.9834997   5.3719988  80.2610012  78.0814997   5.3369988
  81.3600012  78.9854997   4.8189988  80.6402284  78.8601628   5.2924783
  84.2030012  81.2354997  11.3679988  83.3670012  81.6894997  11.4779988
  84.7270012  81.5114997  12.1199988  84.1594414  81.3349376  11.4847136
  84.7470012  87.4484997   3.0519988  84.0020012  86.9414997   2.7299988
  84.6130012  87.4974997   3.9989988  84.6268776  87.3856940   3.1358647
  91.8970012  86.5814997  11.8389988  92.5390012  87.0384997  11.2949988
  91.0670012  86.6944997  11.3759988  91.8725963  86.6592704  11.7020177
  88.6450012  80.2624997   1.2519988  87.7060012  80.3744997   1.0999988
  88.9420012  81.1194997   1.5579988  88.5567666  80.3936443   1.2725768
  86.2660012  87.6324997  14.2889988  85.9210012  87.2514997  15.0959988
  86.0660012  88.5664997  14.3609988  86.1918061  87.7065228  14.4090961
  89.3630012  82.1294997   2.9119988  90.2550012  81.9924997   3.2309988
  89.4200012  82.9204997   2.3759988  89.4926285  82.2176660   2.8831691
  79.8720012  86.7434997   8.8219988  80.6170012  86.7414997   8.2209988
  79.9500012  85.9204997   9.3039988  79.9845518  86.6319315   8.8048929
  86.8730012  88.9074997   2.0779988  86.5770012  89.7334997   2.4589988
  86.1700012  88.2874997   2.2739988  86.7374914  88.9368199   2.1566443
  76.8800012  85.2044997  14.1369988  77.1030012  84.7864997  14.9689988
  76.2780012  84.5914997  13.7139988  76.8291759  85.0644668  14.1937022
  83.8960012  84.7214997  16.3499988  83.6000012  84.5554997  15.4549988
  84.8280012  84.5014997  16.3389988  83.9814166  84.6690640  16.2260536
  88.5170012  90.0944997  14.2399988  87.6160012  90.2774997  13.9719988
  88.5510012  90.3534997  15.1609988  88.3983041  90.1545512  14.3278197
  94.2480012  82.3394997   2.6069988  93.6940012  81.9434997   1.9349988
  94.3480012  83.2494997   2.3289988  94.1857059  82.4083586   2.4774401
  94.2110012  88.1394997  15.4439988  93.3600012  88.3774997  15.0769988
  94.8020012  88.1224997  14.6909988  94.1742487  88.1698258  15.2918893
  92.5430012  91.1254997   3.0719988  92.1700012  90.2994997   3.3809988
  92.8210012  90.9424997   2.1749988  92.5295630  90.9877303   2.9929626
  89.7040012  85.9334997  10.0929988  88.7750012  85.7014997  10.0659988
  90.1550012  85.1564997   9.7629988  89.6379216  85.7967238  10.0446917
  82.2470012  90.2614997   6.2259988  82.7740012  91.0344997   6.0259988
  81.3670012  90.4864997   5.9249988  82.2001773  90.3978005   6.1579010
  78.0020012  85.1234997   0.8129988  78.6180012  85.7504997   1.1929988
  77.1400012  85.4394997   1.0849988  77.9697698  85.2519430   0.9017183
  83.6740012  87.9244997   5.8029988  83.4330012  88.8494997   5.8439988
  82.9330012  87.4654997   6.1989988  83.5408409  87.9891421   5.8621377
  84.1890012  92.0734997  12.1179988  84.5510012  92.9284997  11.8839988
  84.7200012  91.7814997  12.8579988  84.3104473  92.1511060  12.1860855
  82.3570012  92.9464997   5.3479988  81.4070012  93.0514997   5.3989988
  82.7090012  93.7664997   5.6929988  82.2744203  93.0718314   5.4016650
  87.7330012  88.1724997  11.8179988  87.3070012  87.9454997  12.6449988
  88.3130012  87.4344997  11.6359988  87.7531868  88.0415299  11.9065830
  89.9360012  89.1014997   0.8919988  90.2890012  88.7214997   1.6969988
  88.9870012  89.0084997   0.9789988  89.8560441  89.0369596   1.0138559
  90.3910012  92.7244997  14.2879988  89.7900012  92.1694997  13.7919988
  90.6730012  93.3914997  13.6619988  90.3468519  92.7386841  14.1354951
  94.4390012  93.5814997   1.0929988  95.1830012  94.1674997   0.9529988
  93.7450012  94.1494997   1.4269988  94.4470292  93.7385582   1.1189961
  78.5140012  79.9574997  13.6949988  77.6210012  80.2964997  13.6269988
  78.4150012  79.1024997  14.1129988  78.3784164  79.8882588  13.7422235
  90.8020012  87.7744997   3.1189988  90.5240012  87.0464997   3.6749988
  91.7290012  87.8934997   3.3239988  90.8893124  87.6908802   3.2228845
  78.1650012  91.7624997  12.1299988  78.3820012  90.8304997  12.0989988
  78.4110012  92.0364997  13.0129988  78.2279549  91.6720636  12.2451763
  84.0270012  90.2134997  -0.6610012  84.2660012  89.4654997  -1.2080012
  83.7580012  89.8254997   0.1719988  84.0233675  90.0586638  -0.6233135
  82.9640012  89.7834997   1.7959988  83.1100012  89.2634997   2.5859988
  82.9610012  90.6904997   2.1019988  82.9835989  89.8348853   1.9456088
  79.4170012  87.0364997   2.3059988  78.7310012  87.3884997   2.8729988
  79.9390012  87.7994997   2.0589988  79.3936852  87.1878578   2.3502118
  87.2480012  79.6984997  12.5849988  87.9470012  79.7724997  13.2349988
  86.8670012  78.8344997  12.7389988  87.2921767  79.5917624  12.6948322
  88.0330012  79.3504997   3.6819988  88.2530012  79.8224997   2.8789988
  88.5910012  79.7454997   4.3519988  88.1384968  79.4684285   3.6627331
  85.7010012  91.4814997   2.5449988  84.8850012  91.9784997   2.5969988
  86.2310012  91.9564997   1.9049988  85.6609161  91.6137722   2.4655956
  85.2330012  81.0784997   4.5169988  86.0450012  81.5834997   4.5629988
  84.9880012  80.9334997   5.4309988  85.3110520  81.1280375   4.6468517
  85.7680012  82.0644997  13.7019988  85.8870012  82.6384997  14.4589988
  86.4240012  81.3764997  13.8159988  85.8729757  82.0501079  13.8210825
  86.1160012  78.1594997   5.4549988  85.7700012  78.7774997   6.0999988
  86.7750012  78.6604997   4.9739988  86.1577826  78.3115802   5.4780971
  83.0400012  92.5254997   2.5269988  83.2000012  93.3244997   2.0259988
  82.8420012  92.8314997   3.4119988  83.0351649  92.6764469   2.5779815
  81.7740012  79.2224997   2.1419988  81.6910012  80.1114997   2.4889988
  82.6640012  78.9574997   2.3739988  81.8829469  79.3081430   2.2207626
  91.9730012  79.9714997  14.5369988  91.0560012  80.2344997  14.4489988
  92.3080012  79.9684997  13.6399988  91.8929900  80.0070224  14.4037919
  90.5750012  83.7224997   8.6319988  89.7770012  83.3074997   8.3039988
  91.0200012  83.0314997   9.1229988  90.5259885  83.5723543   8.6534889
  80.0330012  89.6504997   1.2029988  80.6250012  90.3494997   1.4789988
  80.4920012  89.2174997   0.4829988  80.1761142  89.6877049   1.1434830
  78.3490012  82.3144997   0.3189988  78.3040012  83.2534997   0.4969988
  77.4610012  82.0784997   0.0489988  78.2228574  82.4111892   0.3068912
  91.6610012  92.9784997  10.2549988  91.5060012  93.6564997   9.5979988
  92.5940012  93.0504997  10.4579988  91.7658500  93.0810170  10.1925119
  79.1570012  77.0964997   8.9919988  78.9280012  77.1554997   8.0639988
  78.7140012  76.3044997   9.2979988  79.0658530  76.9975753   8.9064786
  78.0870012  91.0364997   5.1519988  77.2550012  91.5094997   5.1799988
  78.6330012  91.5464997   4.5539988  78.0469739  91.1701871   5.0749716
  77.3750012  93.6494997  16.4819988  77.9160012  93.4324997  17.2419988
  76.8940012  92.8434997  16.2929988  77.3839345  93.5109514  16.5603076
  81.9730012  92.5684997  18.1029988  82.7400012  92.1094997  18.4439988
  81.9510012  92.3424997  17.1729988  82.0751434  92.4750409  18.0240043
  86.0650012  92.0764997  -0.5220012  85.4210012  91.4454997  -0.2010012
  86.8270012  91.5454997  -0.7540012  86.0798077  91.9182920  -0.5093989
  88.5500012  90.9484997  16.8319988  88.1990012  90.0924997  17.0749988
  89.2760012  91.0914997  17.4389988  88.6000769  90.8505636  16.9473619
  90.6690012  91.8934997  -0.2880012  90.9520012  91.0994997   0.1639988
  91.4090012  92.1264997  -0.8490012  90.8077486  91.8162803  -0.3019302
  77.2820012  87.4594997  17.4369988  77.4260012  86.5574997  17.1499988
  76.5100012  87.7454997  16.9489988  77.1973322  87.3748261  17.3317881
  81.6240012  87.8034997  -0.4310012  81.6880012  87.0094997   0.0999988
  82.2770012  87.6844997  -1.1210012  81.7210241  87.6787148  -0.4515683
  83.9380012  87.4294997  16.8689988  83.6090012  87.7004997  16.0119988
  84.0900012  86.4884997  16.7819988  83.9134809  87.3393862  16.7398244
  86.9760012  88.8504997  -0.6950012  86.7070012  89.0304997   0.2059988
  86.7700012  87.9244997  -0.8260012  86.9113825  88.7500152  -0.5894786
  89.6720012  87.3454997  14.2529988  90.4180012  87.9334997  14.1329988
  88.9150012  87.9274997  14.3159988  89.6717554  87.5047011  14.2450907
  78.1150012  84.6594997  16.8569988  78.5230012  83.8024997  16.7359988
  77.8550012  84.6744997  17.7779988  78.1357568  84.5440807  16.9649588
  82.7730012  85.7754997   1.8749988  82.3130012  85.2914997   2.5609988
  83.0280012  85.1074997   1.2389988  82.7444902  85.6188731   1.8829334
  82.0620012  83.6684997  14.2309988  81.4440012  84.3434997  14.5109988
  82.4060012  83.9894997  13.3979988  82.0239615  83.8042721  14.1566581
  83.8440012  84.0184997   0.1369988  83.6640012  83.8644997  -0.7900012
  84.7940012  84.1264997   0.1819988  83.9477776  84.0120175   0.0161843
  87.0820012  86.1404997  17.5079988  88.0350012  86.2234997  17.4809988
  86.9210012  85.4284997  18.1279988  87.1906426  86.0556746  17.5880579
  93.2340012  86.3734997  -0.4170012  92.9600012  85.9484997  -1.2300012
  93.2730012  87.3044997  -0.6340012  93.2017699  86.4412484  -0.5576390
  82.4010012  81.0234997  15.3129988  82.5510012  80.2944997  14.7109988
  82.4040012  81.8004997  14.7539988  82.4219302  81.0287851  15.1550692
  82.8140012  79.3934997  12.8059988  83.3500012  79.8444997  12.1539988
  81.9620012  79.2854997  12.3829988  82.7722178  79.4406390  12.6595756
  84.3960012  84.8324997  13.0449988  85.1460012  84.6764997  12.4719988
  84.0570012  85.6844997  12.7699988  84.4528921  84.9262968  12.9293561
  88.8110012  82.6474997  18.0739988  89.0040012  81.7164997  17.9619988
  89.6690012  83.0724997  18.0639988  88.9533020  82.5776389  18.0573361
  90.1280012  85.4364997  16.1509988  89.8470012  86.1454997  15.5739988
  91.0710012  85.3634997  15.9999988  90.2169027  85.5237646  16.0515551
  80.8800012  82.2214997  17.2249988  80.1130012  81.6894997  17.0149988
  81.5590012  81.9114997  16.6249988  80.8667022  82.1067506  17.1151648
  83.6200012  76.8494997  13.2369988  83.5210012  77.7964997  13.1319988
  82.8770012  76.4774997  12.7619988  83.5060564  76.9285902  13.1584560
  84.8840012  81.1714997  16.8009988  84.6480012  80.9514997  17.7029988
  84.1000012  80.9644997  16.2909988  84.7458628  81.1134760  16.8553932
  87.5990012  80.2984997  15.8769988  86.6520012  80.3304997  16.0089988
  87.9120012  79.6734997  16.5299988  87.5115475  80.2183207  15.9834455
  89.2330012  78.9324997  17.8819988  89.1370012  77.9804997  17.8759988
  88.9120012  79.2014997  18.7419988  89.1764070  78.8384035  17.9975441
  79.0600012  80.1424997  16.9289988  79.2720012  79.4354997  16.3189988
  78.9490012  79.7044997  17.7729988  79.0739721  79.9867084  16.9596843
  83.7410012  94.7094997   1.1389988  84.6740012  94.8674997   1.2819988
  83.4770012  95.3844997   0.5139988  83.8329510  94.8223611   1.0740741
  77.3100012  89.3454997   0.6209988  78.2240012  89.4244997   0.8949988
  77.3170012  88.6584997  -0.0450012  77.4361131  89.2633961   0.5684393
  75.9590012  94.7384997   5.6989988  75.3120012  94.2764997   5.1659988
  76.3130012  94.0664997   6.2809988  75.9183849  94.5844723   5.7047959
  76.8290012  92.8194997   7.5029988  76.4940012  91.9394997   7.6749988
  77.0510012  93.1644997   8.3679988  76.8131783  92.7457500   7.6434208
  94.3770012  93.6284997  10.4839988  94.3560012  93.8134997  11.4229988
  95.0680012  94.1974997  10.1429988  94.4674618  93.7306606  10.5663864
  93.9410012  93.1964997  13.4059988  93.4530012  92.4604997  13.0349988
  94.4900012  92.8024997  14.0839988  93.9484872  93.0426249  13.4469160
  92.3910012  88.9854997  18.0439988  91.5250012  88.8804997  18.4379988
  92.7680012  89.7444997  18.4899988  92.3233308  89.0736900  18.1582393
  93.6920012  87.2424997   3.5579988  94.5420012  87.6634997   3.6849988
  93.6980012  86.5024997   4.1649988  93.8091372  87.2000803   3.6574344
  94.0870012  85.2954997   5.3819988  93.3600012  84.8164997   5.7789988
  94.6680012  85.5014997   6.1139988  94.0659375  85.2577090   5.5354129
  93.8460012  88.0804997  10.3289988  94.6790012  87.7024997  10.0489988
  93.9580012  89.0234997  10.2099988  93.9752647  88.1562218  10.2745487
  92.3320012  90.9584997  12.6359988  91.6850012  91.2834997  13.2619988
  91.8150012  90.5184997  11.9619988  92.1734029  90.9435004  12.6305827
  94.3550012  85.1964997   1.7729988  93.8330012  85.5534997   1.0539988
  94.3220012  85.8714997   2.4509988  94.2791634  85.3365413   1.7663145
  92.7040012  82.4364997   0.3239988  92.8000012  83.1034997  -0.3570012
  92.5640012  81.6204997  -0.1580012  92.6982135  82.4174500   0.1658491
  91.8730012  83.8164997   5.9449988  91.7230012  82.8714997   5.9239988
  91.5200012  84.0974997   6.7879988  91.8046625  83.7250441   6.0562346
  76.9090012  85.8944997   9.9549988  77.0930012  85.8124997   9.0189988
  77.7580012  85.7704997  10.3789988  77.0490139  85.8665003   9.8841455
  92.7300012  85.7864997  15.5829988  93.3130012  85.0524997  15.7749988
  93.2940012  86.5584997  15.6299988  92.8859769  85.7904227  15.6156159
  94.2260012  83.6894997  16.2679988  93.3630012  83.3104997  16.1019988
  94.8310012  82.9504997  16.1939988  94.1895979  83.5378023  16.2352817
  91.9510012  79.8444997  -0.5590012  92.5620012  79.4734997   0.0779988
  91.1150012  79.4234997  -0.3630012  91.9215032  79.7367554  -0.4452965
  91.5840012  81.3994997   4.4069988  91.8640012  80.4924997   4.5309988
  92.3430012  81.8334997   4.0179988  91.7249277  81.3340942   4.3713682
  92.1960012  81.9804997   9.8429988  93.1290012  82.1924997   9.8089988
  91.9610012  82.0824997  10.7649988  92.2918036  82.0232769   9.9629976
  92.2250012  82.7174997  12.6189988  91.3820012  82.9854997  12.9849988
  92.6670012  83.5394997  12.4079988  92.1694158  82.8653291  12.6405491
  76.5060012  81.1654997  16.0959988  77.4260012  81.0434997  16.3319988
  76.0570012  80.4154997  16.4849988  76.5711580  81.0473727  16.1809006
  94.5080012  76.6974997  17.9719988  94.8580012  76.0434997  17.3669988
  94.6550012  77.5344997  17.5329988  94.5758419  76.7211591  17.8297118
  92.1970012  78.6624997   4.4549988  92.3800012  78.2134997   5.2809988
  91.5980012  78.0774997   3.9919988  92.1410202  78.5219975   4.5053275
  77.7270012  79.4774997   8.9869988  78.1730012  78.6854997   9.2889988
  78.1940012  80.1934997   9.4179988  77.8510172  79.4660624   9.0864820
  76.0310012  82.4764997  10.0559988  76.5230012  82.2554997   9.2649988
  76.3940012  83.3174997  10.3369988  76.1473126  82.5598357   9.9857531
  94.0280012  78.8064997  16.3219988  93.1100012  79.0774997  16.2859988
  94.1510012  78.2714997  15.5369988  93.9191066  78.7712892  16.2110487
  94.0640012  78.7294997   0.9829988  94.4760012  78.0084997   0.5079988
  94.7460012  79.3994997   1.0419988  94.2125885  78.7212368   0.9258915
  76.3450012  78.7344997   4.1099988  75.4200012  78.9434997   3.9809988
  76.7990012  79.2184997   3.4209988  76.2797368  78.8285993   3.9991226
  91.1160012  93.7184997   6.0559988  91.7680012  93.3714997   5.4479988
  91.6260012  94.2074997   6.7019988  91.2742637  93.7370597   6.0600236
  76.3090012  77.4724997  12.4549988  75.6440012  77.2264997  13.0979988
  75.8660012  78.0944997  11.8769988  76.1580956  77.5228632  12.4649352
  78.5010012  90.6474997  16.5989988  77.6800012  90.8224997  16.1389988
  78.2480012  90.5744997  17.5199988  78.3546164  90.6615622  16.6604923
  81.4550012  91.6224997  12.8579988  81.0300012  92.4314997  12.5749988
  82.3590012  91.7074997  12.5559988  81.5190271  91.7448469  12.7783776
  85.7660012  93.0214997  15.8169988  85.9510012  92.6874997  16.6949988
  86.6120012  93.3304997  15.4949988  85.9057539  93.0176047  15.8935605
  88.1110012  94.3074997  15.0609988  88.7880012  93.6744997  14.8209988
  88.4330012  94.7084997  15.8679988  88.2471637  94.2751154  15.1372793
  93.0280012  76.8964997  14.1409988  92.2160012  77.2214997  13.7529988
  93.2610012  76.1364997  13.6079988  92.9483423  76.8382436  14.0158253
  78.8570012  94.8784997  12.9049988  78.1360012  95.3184997  12.4539988
  78.4910012  94.6274997  13.7539988  78.7089804  94.9047698  12.9579840
  81.3240012  94.4784997  11.9349988  80.4590012  94.5504997  12.3389988
  81.2690012  95.0254997  11.1509988  81.1982085  94.5622685  11.8843362
  86.0340012  94.3664997  11.1099988  85.5780012  94.8954997  10.4559988
  86.1970012  94.9694997  11.8359988  85.9935585  94.5204468  11.1185062
  88.3620012  93.2444997  12.0549988  87.4570012  93.4094997  11.7899988
  88.7910012  94.0974997  11.9899988  88.2960799  93.3824483  12.0099182
  90.9660012  94.8144997  12.3499988  90.7840012  95.7304997  12.1399988
  91.1430012  94.4044997  11.5039988  90.9650210  94.8844822  12.2067885
  78.2710012  93.5014997   9.8149988  78.2530012  93.0764997  10.6729988
  79.0760012  93.1834997   9.4069988  78.3773875  93.4003812   9.8771655
  80.4130012  92.2114997   8.4699988  80.1940012  91.2954997   8.6399988
  81.2370012  92.3514997   8.9359988  80.4944420  92.1050520   8.5562774
  82.9500012  92.6814997   9.3189988  83.1630012  91.7934997   9.0319988
  83.0140012  92.6474997  10.2729988  82.9878232  92.5553102   9.4087397
  86.4580012  78.3454997   8.4629988  85.7840012  77.7164997   8.7189988
  87.0220012  77.8614997   7.8599988  86.4419230  78.1938744   8.4165340
  91.6010012  76.4534997   8.5759988  92.2050012  77.0004997   8.0739988
  90.7310012  76.7724997   8.3359988  91.5661241  76.5715806   8.4747654
  93.3280012  77.5914997   6.9089988  93.9400012  77.0774997   6.3829988
  93.7100012  78.4694997   6.9329988  93.4634540  77.6397140   6.8401830
  78.7850012  76.9794997   6.2849988  78.0080012  76.7454997   5.7779988
  79.3150012  76.1824997   6.2939988  78.7502330  76.8396988   6.2167742
  77.6210012  76.7774997   2.0889988  78.0600012  77.3884997   1.4969988
  76.9880012  77.3154997   2.5629988  77.5954514  76.9339257   2.0720930
  83.3640012  76.9064997   6.0989988  84.2390012  77.2944997   6.0689988
  83.2280012  76.6914997   7.0209988  83.4653695  76.9305184   6.2196440
  88.9210012  76.9364997   7.7479988  88.9970012  77.0314997   6.7979988
  88.6460012  76.0284997   7.8769988  88.8942321  76.8267867   7.6355079
  90.2740012  76.9624997   3.4399988  89.5720012  77.5774997   3.2309988
  89.8300012  76.1244997   3.5709988  90.1176330  76.9335783   3.4290328
  77.5220012  92.7254997   2.9869988  76.8370012  92.6874997   2.3189988
  77.5260012  93.6384997   3.2749988  77.4288193  92.8437016   2.9345284
  79.4820012  78.6934997   0.5309988  79.9740012  78.0634997   0.0039988
  80.1060012  78.9894997   1.1949988  79.6335446  78.6473199   0.5485980
  84.5080012  78.9864997   2.9879988  84.6860012  78.3404997   3.6709988
  84.4550012  79.8204997   3.4559988  84.5251829  79.0107985   3.1445940
  86.3870012  93.9354997   1.3839988  87.2530012  94.3014997   1.2059988
  86.1400012  93.4954997   0.5699988  86.4722392  93.9261756   1.2496289
  93.0960012  93.4984997   4.0629988  92.9010012  92.7504997   3.4979988
  93.0570012  94.2564997   3.4799988  93.0640380  93.4986099   3.9068384
  79.3400012  93.6454997   0.0119988  79.0730012  93.9324997   0.8849988
  80.1120012  93.0994997   0.1639988  79.4077488  93.6110294   0.1521050
  89.1370012  76.1764997  17.5209988  89.2140012  75.7504997  18.3749988
  90.0310012  76.1904997  17.1779988  89.2683428  76.1200879  17.5915310
  92.3130012  92.2494997  16.2129988  91.5310012  92.0634997  15.6939988
  92.2410012  93.1784997  16.4309988  92.1961777  92.3496492  16.1714048
 106.7190012  86.1354997   6.2439988 106.8080012  87.0794997   6.1119988
 106.0810012  85.8604997   5.5859988 106.6449081  86.2274830   6.1369614
 105.6520012  85.3904997   9.6629988 105.6140012  84.7444997  10.3679988
 105.3300012  84.9244997   8.8919988 105.6032333  85.2389408   9.6552978
  98.0210012  85.0054997  11.2559988  98.0620012  84.3794997  11.9789988
  98.7240012  85.6294997  11.4379988  98.1216363  85.0041196  11.3796044
 109.3580012  88.3294997   7.9639988 108.9180012  87.6094997   8.4149988
 109.3450012  89.0504997   8.5939988 109.2960226  88.3283731   8.1108494
  98.9440012  89.4554997   9.7909988  98.5750012  88.6534997   9.4209988
  99.8850012  89.2864997   9.8369988  99.0207289  89.3230153   9.7466316
  95.5540012  83.1154997   5.1839988  95.1070012  83.9614997   5.1649988
  94.9930012  82.5354997   4.6679988  95.4169900  83.1529916   5.1116801
  96.2650012  85.2774997   7.3099988  96.4780012  84.5074997   7.8369988
  97.0030012  85.3664997   6.7059988  96.3938496  85.1841394   7.3005300
 106.4700012  93.4344997   8.1769988 107.0900012  92.7574997   7.9029988
 106.2620012  93.2164997   9.0849988 106.5266904  93.3123870   8.2623365
 104.0420012  87.8234997  10.0689988 104.3460012  87.1374997   9.4739988
 104.7630012  87.9414997  10.6869988 104.1810671  87.7456305  10.0711816
 112.7050012  79.4244997  10.9299988 112.7540012  80.0344997  11.6659988
 113.1300012  79.8854997  10.2069988 112.7691824  79.5703741  10.9330205
 107.1830012  82.2174997  10.3969988 107.3250012  81.2714997  10.4169988
 107.0760012  82.4244997   9.4679988 107.1879864  82.1159534  10.2742339
 100.3370012  80.3184997   7.6689988 100.3810012  81.1784997   7.2509988
  99.8800012  79.7664997   7.0349988 100.2812185  80.3615799   7.5260299
 108.0600012  80.4494997   6.0699988 108.7060012  80.1204997   6.6949988
 108.5700012  80.9674997   5.4469988 108.2174264  80.4744611   6.0713862
  96.9580012  82.7154997   8.4309988  97.6110012  82.1654997   8.8629988
  96.9820012  82.4414997   7.5139988  97.0506683  82.6031466   8.3662123
 102.1140012  84.2654997   7.6459988 102.7300012  83.7394997   8.1559988
 101.5280012  83.6254997   7.2429988 102.1190810  84.1069208   7.6613173
 113.0960012  80.9024997  13.1659988 112.4080012  81.5604997  13.0699988
 113.1120012  80.7054997  14.1019988 113.0038525  80.9660462  13.2794808
  99.1480012  79.2364997  11.7429988  98.9290012  79.7664997  10.9769988
  98.4800012  79.4634997  12.3899988  99.0277600  79.3396906  11.7256379
 106.5170012  88.7364997   5.2869988 106.2210012  88.4144997   4.4359988
 106.1920012  89.6364997   5.3279988 106.4326371  88.8140215   5.1761801
 101.7170012  86.9124997  12.0299988 100.9770012  87.5104997  12.1339988
 102.4310012  87.4664997  11.7149988 101.7122237  87.0692831  12.0016465
 109.8240012  79.7404997   8.0499988 109.6080012  78.9744997   8.5829988
 110.4790012  80.2124997   8.5629988 109.8830632  79.6995889   8.1922861
  98.7410012  81.1284997   9.6949988  99.3550012  81.7614997  10.0689988
  99.2530012  80.6564997   9.0389988  98.8942296  81.1512370   9.6574252
 100.1240012  88.8764997  12.8179988 100.1190012  89.7564997  12.4399988
  99.2710012  88.7934997  13.2429988 100.0079464  88.9856117  12.8237907
  96.2450012  88.5474997   3.5999988  95.9730012  88.7764997   2.7109988
  96.2910012  89.3854997   4.0599988  96.2140094  88.6921213   3.5405697
 109.8700012  90.1694997  10.3119988 108.9290012  90.2274997  10.4739988
 110.1470012  91.0754997  10.1749988 109.7784679  90.2999443  10.3156815
 110.1710012  78.4554997  11.7299988 109.4350012  79.0664997  11.6919988
 110.8540012  78.8704997  11.2029988 110.1626541  78.5951374  11.6535832
 103.1740012  76.5424997   9.1959988 103.0570012  75.5934997   9.1409988
 102.3190012  76.8744997   9.4689988 103.0423733  76.4575409   9.2253897
 108.1220012  91.9504997   6.9379988 108.5480012  91.2434997   6.4529988
 108.4390012  92.7514997   6.5209988 108.2231019  91.9620994   6.8153130
 109.2820012  89.8514997   5.4459988 109.0240012  89.1614997   4.8349988
 109.3530012  89.4084997   6.2919988 109.2562856  89.6972124   5.4766885
 110.9680012  88.4174997  13.9239988 111.1080012  87.8264997  13.1839988
 111.1350012  89.2904997  13.5669988 111.0096778  88.4546426  13.7746965
 105.4410012  85.3794997   3.6959988 104.7290012  85.9144997   3.3439988
 106.1320012  85.4354997   3.0359988 105.4370132  85.4602543   3.5586289
 105.4940012  83.8374997   0.7349988 106.1950012  83.8594997   1.3859988
 105.7970012  83.2094997   0.0789988 105.6307830  83.7556566   0.7353711
 112.8100012  84.7574997  11.9899988 112.1570012  85.4524997  12.0789988
 113.2750012  84.9674997  11.1799988 112.7835390  84.8809425  11.8926883
 108.8460012  85.5894997   4.6479988 108.1140012  85.8174997   5.2209988
 109.2940012  84.8754997   5.1029988 108.8063095  85.5242571   4.7879119
 108.7440012  83.7634997  13.7149988 108.8240012  84.5264997  14.2869988
 108.1420012  84.0424997  13.0249988 108.6735756  83.9057134  13.7000589
 100.4920012  86.2194997   6.5299988 100.1610012  85.8494997   5.7119988
 101.0800012  85.5494997   6.8769988 100.5261873  86.0781156   6.4648102
 101.8580012  89.6474997   9.2119988 101.7640012  89.0694997   8.4549988
 102.5880012  89.2764997   9.7079988 101.9437981  89.5182390   9.1754165
 100.8580012  84.9884997  10.1639988 101.4240012  85.1094997   9.4009988
 101.1770012  85.6254997  10.8029988 100.9785786  85.0911884  10.1460040
 107.1670012  90.4914997  10.8979988 106.9270012  91.1534997  11.5459988
 106.9690012  89.6574997  11.3229988 107.1073808  90.4693134  11.0441524
 101.7380012  89.3874997  14.8809988 101.4270012  90.1694997  15.3359988
 101.0880012  89.2344997  14.1949988 101.6075558  89.4739105  14.8505871
 107.7170012  84.7514997   2.3329988 108.2970012  84.9014997   3.0799988
 108.1310012  85.2224997   1.6099988 107.8522830  84.8356841   2.3374134
  98.6580012  85.5854997  14.1099988  98.7290012  86.2364997  14.8079988
  97.7680012  85.6884997  13.7749988  98.5473117  85.6885936  14.1602700
 105.4440012  91.4884997   5.7679988 105.9180012  91.7834997   6.5459988
 104.8810012  92.2264997   5.5349988 105.4327653  91.6286932   5.8430136
  99.9780012  91.4594997  15.6439988  99.9850012  91.3234997  14.6969988
  99.0620012  91.3414997  15.8959988  99.8551714  91.4249430  15.5484666
 111.4160012  76.5014997   2.1459988 110.5160012  76.6404997   2.4409988
 111.6680012  77.3324997   1.7439988 111.3268702  76.6329074   2.1320205
  99.4820012  85.2894997   4.1199988  99.1900012  86.0574997   3.6289988
  98.8080012  84.6294997   3.9569988  99.3509081  85.3054406   4.0307339
 112.6050012  90.8674997   0.5219988 112.6790012  91.8064997   0.6929988
 113.5110012  90.5624997   0.4659988 112.7375100  90.9546722   0.5378119
  95.5750012  87.6524997  12.9349988  95.0740012  87.6244997  12.1199988
  95.5800012  86.7464997  13.2439988  95.5071526  87.5262278  12.8652872
  95.3250012  90.4324997   9.8189988  96.2710012  90.2884997   9.7999988
  95.2130012  91.2164997  10.3559988  95.4392727  90.5188046   9.8890072
 113.5230012  91.0984997  15.5009988 113.4740012  90.1434997  15.4639988
 112.6960012  91.3664997  15.9019988 113.4044940  91.0038998  15.5501375
 104.5020012  90.6724997  14.3769988 104.5890012  91.4984997  14.8519988
 103.6380012  90.3424997  14.6259988 104.3971964  90.7409878  14.4756549
 104.9160012  94.4444997   4.1829988 104.8410012  94.3234997   3.2369988
 104.9490012  95.3944997   4.3019988 104.9101848  94.5562500   4.0694834
  98.5690012  93.2334997   5.9639988  98.7220012  92.8854997   6.8429988
  97.7190012  92.8774997   5.7089988  98.4748962  93.1376650   6.0498340
 108.0180012  93.5984997   1.1849988 108.3930012  92.8544997   0.7149988
 108.0220012  93.3284997   2.1039988 108.0698915  93.4601486   1.2447824
 107.6870012  93.5244997   3.9349988 106.7510012  93.6244997   4.1129988
 107.9670012  92.8154997   4.5129988 107.5968255  93.4422711   4.0375391
 110.6750012  82.5914997  15.9809988 110.2680012  83.0724997  15.2599988
 110.7160012  81.6864997  15.6729988 110.6248437  82.5349374  15.8406683
  97.8240012  88.9754997  13.9779988  98.0400012  88.6144997  14.8369988
  96.9690012  88.6014997  13.7679988  97.7379292  88.8754111  14.0673386
 100.4430012  77.4454997   9.9729988  99.5810012  77.3584997   9.5659988
 100.4200012  78.3014997  10.4009988 100.3220330  77.5492765   9.9751863
 105.1060012  77.1674997  13.3479988 105.5260012  76.7524997  14.1009988
 104.1730012  76.9894997  13.4649988 105.0373644  77.0865900  13.4669539
 108.4320012  80.9234997  14.2009988 107.9180012  80.7974997  14.9989988
 108.2770012  81.8354997  13.9569988 108.3406852  81.0296132  14.2772158
 109.1950012  85.7844997  -0.0370012 109.2370012  85.5614997  -0.9670012
 110.0440012  86.1834997   0.1529988 109.3155396  85.8079155  -0.1386373
 104.7670012  79.6604997   0.6329988 104.5140012  79.6794997   1.5559988
 104.5110012  78.7884997   0.3319988 104.6977790  79.5452437   0.7186263
 100.5340012  82.4114997  11.0679988  99.8920012  82.3704997  11.7769988
 100.5710012  83.3374997  10.8309988 100.4511324  82.5311559  11.1329824
 100.5310012  82.6324997   5.9799988  99.6380012  82.2914997   5.9219988
 100.9810012  82.2554997   5.2249988 100.4697305  82.5348484   5.8699177
 106.0660012  83.0484997   4.7969988 105.6570012  83.8634997   4.5059988
 106.7870012  82.9084997   4.1829988 106.1074537  83.1412018   4.6741342
 105.1680012  83.2234997  16.2849988 104.6060012  82.5194997  16.6059988
 105.9950012  83.1034997  16.7529988 105.2027095  83.1107883  16.3922330
 107.0710012  82.4944997   7.6109988 106.8760012  83.0994997   6.8959988
 107.2520012  81.6604997   7.1769988 107.0687614  82.4646300   7.4544405
  98.2840012  82.7314997  12.9349988  98.2460012  83.1314997  13.8039988
  97.7930012  81.9144997  13.0259988  98.2124684  82.6758069  13.0661059
 101.6500012  80.1054997  -0.2660012 101.2190012  79.6604997   0.4639988
 100.9320012  80.4774997  -0.7780012 101.4939438  80.0948940  -0.2353201
  94.8920012  79.8474997   6.7859988  95.5230012  79.8184997   7.5049988
  95.3410012  79.4224997   6.0559988  95.0390774  79.7860492   6.7856553
  96.1660012  80.5934997   2.2099988  96.6400012  81.1844997   1.6249988
  95.4490012  81.1244997   2.5569988  96.1339341  80.7460867   2.1768836
 106.3350012  84.1324997  12.2829988 106.6580012  83.5014997  11.6399988
 105.8950012  83.5974997  12.9429988 106.3196895  83.9738441  12.2842850
 103.1120012  80.0594997   7.0669988 102.2010012  80.1164997   7.3549988
 103.6180012  79.9994997   7.8769988 103.0555413  80.0591985   7.2160622
  97.9410012  81.6884997   5.8929988  97.0510012  81.7884997   5.5529988
  98.2370012  80.8464997   5.5469988  97.8592823  81.5883545   5.7997213
 101.5940012  81.6884997   3.5499988 102.5250012  81.8174997   3.7279988
 101.3790012  82.3584997   2.8999988 101.6924247  81.7966565   3.4865747
 107.5170012  79.2944997  10.3309988 106.8410012  79.4254997  10.9949988
 107.0320012  79.1394997   9.5209988 107.3587145  79.2914905  10.3124517
 100.2680012  82.8834997   1.1169988  99.7250012  82.5034997   0.4249988
 101.1010012  83.0774997   0.6879988 100.3064399  82.8578124   0.9644526
 110.8050012  94.9664997  16.6079988 111.0050012  95.3904997  15.7729988
 111.4600012  95.3094997  17.2149988 110.9210051  95.0709648  16.5757836
  98.4030012  87.4404997  16.2159988  99.1350012  87.6944997  16.7769988
  97.6230012  87.6444997  16.7309988  98.3978232  87.5029177  16.3625760
 104.4320012  82.8474997   8.9539988 104.9970012  82.3004997   8.4069988
 104.2850012  82.3254997   9.7419988 104.4892918  82.7022024   8.9858454
  99.4340012  78.9834997   5.3719988  99.1170012  78.0814997   5.3369988
 100.2160012  78.9854997   4.8189988  99.4962284  78.8601628   5.2924783
 103.0590012  81.2354997  11.3679988 102.2230012  81.6894997  11.4779988
 103.5830012  81.5114997  12.1199988 103.0154414  81.3349376  11.4847136
 103.6030012  87.4484997   3.0519988 102.8580012  86.9414997   2.7299988
 103.4690012  87.4974997   3.9989988 103.4828776  87.3856940   3.1358647
 110.7530012  86.5814997  11.8389988 111.3950012  87.0384997  11.2949988
 109.9230012  86.6944997  11.3759988 110.7285963  86.6592704  11.7020177
 107.5010012  80.2624997   1.2519988 106.5620012  80.3744997   1.0999988
 107.7980012  81.1194997   1.5579988 107.4127666  80.3936443   1.2725768
 105.1220012  87.6324997  14.2889988 104.7770012  87.2514997  15.0959988
 104.9220012  88.5664997  14.3609988 105.0478061  87.7065228  14.4090961
 108.2190012  82.1294997   2.9119988 109.1110012  81.9924997   3.2309988
 108.2760012  82.9204997   2.3759988 108.3486285  82.2176660   2.8831690
  98.7280012  86.7434997   8.8219988  99.4730012  86.7414997   8.2209988
  98.8060012  85.9204997   9.3039988  98.8405518  86.6319315   8.8048929
 105.7290012  88.9074997   2.0779988 105.4330012  89.7334997   2.4589988
 105.0260012  88.2874997   2.2739988 105.5934914  88.9368199   2.1566443
  95.7360012  85.2044997  14.1369988  95.9590012  84.7864997  14.9689988
  95.1340012  84.5914997  13.7139988  95.6851759  85.0644668  14.1937022
 102.7520012  84.7214997  16.3499988 102.4560012  84.5554997  15.4549988
 103.6840012  84.5014997  16.3389988 102.8374166  84.6690640  16.2260536
 107.3730012  90.0944997  14.2399988 106.4720012  90.2774997  13.9719988
 107.4070012  90.3534997  15.1609988 107.2543041  90.1545512  14.3278197
 113.1040012  82.3394997   2.6069988 112.5500012  81.9434997   1.9349988
 113.2040012  83.2494997   2.3289988 113.0417059  82.4083586   2.4774401
 113.0670012  88.1394997  15.4439988 112.2160012  88.3774997  15.0769988
 113.6580012  88.1224997  14.6909988 113.0302487  88.1698258  15.2918893
 111.3990012  91.1254997   3.0719988 111.0260012  90.2994997   3.3809988
 111.6770012  90.9424997   2.1749988 111.3855630  90.9877303   2.9929626
 108.5600012  85.9334997  10.0929988 107.6310012  85.7014997  10.0659988
 109.0110012  85.1564997   9.7629988 108.4939216  85.7967238  10.0446917
 101.1030012  90.2614997   6.2259988 101.6300012  91.0344997   6.0259988
 100.2230012  90.4864997   5.9249988 101.0561773  90.3978005   6.1579010
  96.8580012  85.1234997   0.8129988  97.4740012  85.7504997   1.1929988
  95.9960012  85.4394997   1.0849988  96.8257698  85.2519430   0.9017183
 102.5300012  87.9244997   5.8029988 102.2890012  88.8494997   5.8439988
 101.7890012  87.4654997   6.1989988 102.3968409  87.9891421   5.8621377
 103.0450012  92.0734997  12.1179988 103.4070012  92.9284997  11.8839988
 103.5760012  91.7814997  12.8579988 103.1664473  92.1511060  12.1860855
 101.2130012  92.9464997   5.3479988 100.2630012  93.0514997   5.3989988
 101.5650012  93.7664997   5.6929988 101.1304203  93.0718314   5.4016650
 106.5890012  88.1724997  11.8179988 106.1630012  87.9454997  12.6449988
 107.1690012  87.4344997  11.6359988 106.6091868  88.0415299  11.9065830
 108.7920012  89.1014997   0.8919988 109.1450012  88.7214997   1.6969988
 107.8430012  89.0084997   0.9789988 108.7120441  89.0369596   1.0138559
 109.2470012  92.7244997  14.2879988 108.6460012  92.1694997  13.7919988
 109.5290012  93.3914997  13.6619988 109.2028519  92.7386841  14.1354952
 113.2950012  93.5814997   1.0929988 114.0390012  94.1674997   0.9529988
 112.6010012  94.1494997   1.4269988 113.3030292  93.7385582   1.1189961
  97.3700012  79.9574997  13.6949988  96.4770012  80.2964997  13.6269988
  97.2710012  79.1024997  14.1129988  97.2344164  79.8882588  13.7422235
 109.6580012  87.7744997   3.1189988 109.3800012  87.0464997   3.6749988
 110.5850012  87.8934997   3.3239988 109.7453124  87.6908802   3.2228845
  97.0210012  91.7624997  12.1299988  97.2380012  90.8304997  12.0989988
  97.2670012  92.0364997  13.0129988  97.0839549  91.6720636  12.2451763
 102.8830012  90.2134997  -0.6610012 103.1220012  89.4654997  -1.2080012
 102.6140012  89.8254997   0.1719988 102.8793675  90.0586638  -0.6233135
 101.8200012  89.7834997   1.7959988 101.9660012  89.2634997   2.5859988
 101.8170012  90.6904997   2.1019988 101.8395989  89.8348853   1.9456088
  98.2730012  87.0364997   2.3059988  97.5870012  87.3884997   2.8729988
  98.7950012  87.7994997   2.0589988  98.2496852  87.1878578   2.3502118
 106.1040012  79.6984997  12.5849988 106.8030012  79.7724997  13.2349988
 105.7230012  78.8344997  12.7389988 106.1481767  79.5917624  12.6948322
 106.8890012  79.3504997   3.6819988 107.1090012  79.8224997   2.8789988
 107.4470012  79.7454997   4.3519988 106.9944968  79.4684285   3.6627331
 104.5570012  91.4814997   2.5449988 103.7410012  91.9784997   2.5969988
 105.0870012  91.9564997   1.9049988 104.5169161  91.6137722   2.4655956
 104.0890012  81.0784997   4.5169988 104.9010012  81.5834997   4.5629988
 103.8440012  80.9334997   5.4309988 104.1670520  81.1280375   4.6468517
 104.6240012  82.0644997  13.7019988 104.7430012  82.6384997  14.4589988
 105.2800012  81.3764997  13.8159988 104.7289757  82.0501079  13.8210825
 104.9720012  78.1594997   5.4549988 104.6260012  78.7774997   6.0999988
 105.6310012  78.6604997   4.9739988 105.0137826  78.3115802   5.4780971
 101.8960012  92.5254997   2.5269988 102.0560012  93.3244997   2.0259988
 101.6980012  92.8314997   3.4119988 101.8911649  92.6764469   2.5779815
 100.6300012  79.2224997   2.1419988 100.5470012  80.1114997   2.4889988
 101.5200012  78.9574997   2.3739988 100.7389469  79.3081430   2.2207626
 110.8290012  79.9714997  14.5369988 109.9120012  80.2344997  14.4489988
 111.1640012  79.9684997  13.6399988 110.7489900  80.0070224  14.4037919
 109.4310012  83.7224997   8.6319988 108.6330012  83.3074997   8.3039988
 109.8760012  83.0314997   9.1229988 109.3819885  83.5723543   8.6534889
  98.8890012  89.6504997   1.2029988  99.4810012  90.3494997   1.4789988
  99.3480012  89.2174997   0.4829988  99.0321142  89.6877049   1.1434830
  97.2050012  82.3144997   0.3189988  97.1600012  83.2534997   0.4969988
  96.3170012  82.0784997   0.0489988  97.0788574  82.4111892   0.3068912
 110.5170012  92.9784997  10.2549988 110.3620012  93.6564997   9.5979988
 111.4500012  93.0504997  10.4579988 110.6218500  93.0810170  10.1925119
  98.0130012  77.0964997   8.9919988  97.7840012  77.1554997   8.0639988
  97.5700012  76.3044997   9.2979988  97.9218530  76.9975753   8.9064786
  96.9430012  91.0364997   5.1519988  96.1110012  91.5094997   5.1799988
  97.4890012  91.5464997   4.5539988  96.9029739  91.1701871   5.0749716
  96.2310012  93.6494997  16.4819988  96.7720012  93.4324997  17.2419988
  95.7500012  92.8434997  16.2929988  96.2399345  93.5109514  16.5603076
 100.8290012  92.5684997  18.1029988 101.5960012  92.1094997  18.4439988
 100.8070012  92.3424997  17.1729988 100.9311434  92.4750409  18.0240043
 104.9210012  92.0764997  -0.5220012 104.2770012  91.4454997  -0.2010012
 105.6830012  91.5454997  -0.7540012 104.9358077  91.9182920  -0.5093989
 107.4060012  90.9484997  16.8319988 107.0550012  90.0924997  17.0749988
 108.1320012  91.0914997  17.4389988 107.4560769  90.8505636  16.9473619
 109.5250012  91.8934997  -0.2880012 109.8080012  91.0994997   0.1639988
 110.2650012  92.1264997  -0.8490012 109.6637486  91.8162803  -0.3019302
  96.1380012  87.4594997  17.4369988  96.2820012  86.5574997  17.1499988
  95.3660012  87.7454997  16.9489988  96.0533322  87.3748261  17.3317881
 100.4800012  87.8034997  -0.4310012 100.5440012  87.0094997   0.0999988
 101.1330012  87.6844997  -1.1210012 100.5770241  87.6787148  -0.4515683
 102.7940012  87.4294997  16.8689988 102.4650012  87.7004997  16.0119988
 102.9460012  86.4884997  16.7819988 102.7694809  87.3393862  16.7398244
 105.8320012  88.8504997  -0.6950012 105.5630012  89.0304997   0.2059988
 105.6260012  87.9244997  -0.8260012 105.7673825  88.7500152  -0.5894786
 108.5280012  87.3454997  14.2529988 109.2740012  87.9334997  14.1329988
 107.7710012  87.9274997  14.3159988 108.5277554  87.5047011  14.2450907
  96.9710012  84.6594997  16.8569988  97.3790012  83.8024997  16.7359988
  96.7110012  84.6744997  17.7779988  96.9917568  84.5440807  16.9649588
 101.6290012  85.7754997   1.8749988 101.1690012  85.2914997   2.5609988
 101.8840012  85.1074997   1.2389988 101.6004902  85.6188731   1.8829334
 100.9180012  83.6684997  14.2309988 100.3000012  84.3434997  14.5109988
 101.2620012  83.9894997  13.3979988 100.8799615  83.8042721  14.1566581
 102.7000012  84.0184997   0.1369988 102.5200012  83.8644997  -0.7900012
 103.6500012  84.1264997   0.1819988 102.8037776  84.0120175   0.0161843
 105.9380012  86.1404997  17.5079988 106.8910012  86.2234997  17.4809988
 105.7770012  85.4284997  18.1279988 106.0466426  86.0556746  17.5880578
 112.0900012  86.3734997  -0.4170012 111.8160012  85.9484997  -1.2300012
 112.1290012  87.3044997  -0.6340012 112.0577699  86.4412484  -0.5576390
 101.2570012  81.0234997  15.3129988 101.4070012  80.2944997  14.7109988
 101.2600012  81.8004997  14.7539988 101.2779302  81.0287851  15.1550692
 101.6700012  79.3934997  12.8059988 102.2060012  79.8444997  12.1539988
 100.8180012  79.2854997  12.3829988 101.6282178  79.4406390  12.6595756
 103.2520012  84.8324997  13.0449988 104.0020012  84.6764997  12.4719988
 102.9130012  85.6844997  12.7699988 103.3088921  84.9262968  12.9293561
 107.6670012  82.6474997  18.0739988 107.8600012  81.7164997  17.9619988
 108.5250012  83.0724997  18.0639988 107.8093020  82.5776389  18.0573361
 108.9840012  85.4364997  16.1509988 108.7030012  86.1454997  15.5739988
 109.9270012  85.3634997  15.9999988 109.0729027  85.5237646  16.0515551
  99.7360012  82.2214997  17.2249988  98.9690012  81.6894997  17.0149988
 100.4150012  81.9114997  16.6249988  99.7227022  82.1067506  17.1151648
 102.4760012  76.8494997  13.2369988 102.3770012  77.7964997  13.1319988
 101.7330012  76.4774997  12.7619988 102.3620564  76.9285902  13.1584560
 103.7400012  81.1714997  16.8009988 103.5040012  80.9514997  17.7029988
 102.9560012  80.9644997  16.2909988 103.6018628  81.1134760  16.8553932
 106.4550012  80.2984997  15.8769988 105.5080012  80.3304997  16.0089988
 106.7680012  79.6734997  16.5299988 106.3675475  80.2183207  15.9834455
 108.0890012  78.9324997  17.8819988 107.9930012  77.9804997  17.8759988
 107.7680012  79.2014997  18.7419988 108.0324070  78.8384035  17.9975441
  97.9160012  80.1424997  16.9289988  98.1280012  79.4354997  16.3189988
  97.8050012  79.7044997  17.7729988  97.9299721  79.9867084  16.9596843
 102.6970012  76.1434997  15.9089988 103.4090012  75.5034997  15.8949988
 102.5960012  76.4104997  14.9949988 102.7807939  76.0919938  15.7835650
 103.0510012  77.8264997  17.9619988 102.9190012  77.3504997  17.1419988
 102.4520012  78.5704997  17.9069988 102.9519071  77.8619618  17.8422886
 102.5970012  94.7094997   1.1389988 103.5300012  94.8674997   1.2819988
 102.3330012  95.3844997   0.5139988 102.6889510  94.8223611   1.0740741
  96.1660012  89.3454997   0.6209988  97.0800012  89.4244997   0.8949988
  96.1730012  88.6584997  -0.0450012  96.2921131  89.2633961   0.5684393
  94.8150012  94.7384997   5.6989988  94.1680012  94.2764997   5.1659988
  95.1690012  94.0664997   6.2809988  94.7743849  94.5844723   5.7047959
  95.6850012  92.8194997   7.5029988  95.3500012  91.9394997   7.6749988
  95.9070012  93.1644997   8.3679988  95.6691783  92.7457500   7.6434208
 113.2330012  93.6284997  10.4839988 113.2120012  93.8134997  11.4229988
 113.9240012  94.1974997  10.1429988 113.3234618  93.7306606  10.5663864
 112.7970012  93.1964997  13.4059988 112.3090012  92.4604997  13.0349988
 113.3460012  92.8024997  14.0839988 112.8044872  93.0426249  13.4469160
 111.2470012  88.9854997  18.0439988 110.3810012  88.8804997  18.4379988
 111.6240012  89.7444997  18.4899988 111.1793308  89.0736900  18.1582393
 112.5480012  87.2424997   3.5579988 113.3980012  87.6634997   3.6849988
 112.5540012  86.5024997   4.1649988 112.6651372  87.2000803   3.6574344
 112.9430012  85.2954997   5.3819988 112.2160012  84.8164997   5.7789988
 113.5240012  85.5014997   6.1139988 112.9219375  85.2577090   5.5354129
 112.7020012  88.0804997  10.3289988 113.5350012  87.7024997  10.0489988
 112.8140012  89.0234997  10.2099988 112.8312647  88.1562218  10.2745487
 111.1880012  90.9584997  12.6359988 110.5410012  91.2834997  13.2619988
 110.6710012  90.5184997  11.9619988 111.0294029  90.9435004  12.6305827
 113.2110012  85.1964997   1.7729988 112.6890012  85.5534997   1.0539988
 113.1780012  85.8714997   2.4509988 113.1351634  85.3365413   1.7663145
 111.5600012  82.4364997   0.3239988 111.6560012  83.1034997  -0.3570012
 111.4200012  81.6204997  -0.1580012 111.5542135  82.4174500   0.1658491
 110.7290012  83.8164997   5.9449988 110.5790012  82.8714997   5.9239988
 110.3760012  84.0974997   6.7879988 110.6606625  83.7250441   6.0562346
  95.7650012  85.8944997   9.9549988  95.9490012  85.8124997   9.0189988
  96.6140012  85.7704997  10.3789988  95.9050139  85.8665003   9.8841455
 111.5860012  85.7864997  15.5829988 112.1690012  85.0524997  15.7749988
 112.1500012  86.5584997  15.6299988 111.7419769  85.7904227  15.6156159
 113.0820012  83.6894997  16.2679988 112.2190012  83.3104997  16.1019988
 113.6870012  82.9504997  16.1939988 113.0455979  83.5378023  16.2352817
 110.8070012  79.8444997  -0.5590012 111.4180012  79.4734997   0.0779988
 109.9710012  79.4234997  -0.3630012 110.7775032  79.7367554  -0.4452965
 110.4400012  81.3994997   4.4069988 110.7200012  80.4924997   4.5309988
 111.1990012  81.8334997   4.0179988 110.5809277  81.3340942   4.3713682
 111.0520012  81.9804997   9.8429988 111.9850012  82.1924997   9.8089988
 110.8170012  82.0824997  10.7649988 111.1478036  82.0232769   9.9629976
 111.0810012  82.7174997  12.6189988 110.2380012  82.9854997  12.9849988
 111.5230012  83.5394997  12.4079988 111.0254158  82.8653291  12.6405491
  95.3620012  81.1654997  16.0959988  96.2820012  81.0434997  16.3319988
  94.9130012  80.4154997  16.4849988  95.4271580  81.0473727  16.1809006
 113.3640012  76.6974997  17.9719988 113.7140012  76.0434997  17.3669988
 113.5110012  77.5344997  17.5329988 113.4318419  76.7211591  17.8297118
 111.0530012  78.6624997   4.4549988 111.2360012  78.2134997   5.2809988
 110.4540012  78.0774997   3.9919988 110.9970202  78.5219975   4.5053275
  96.5830012  79.4774997   8.9869988  97.0290012  78.6854997   9.2889988
  97.0500012  80.1934997   9.4179988  96.7070172  79.4660624   9.0864820
  94.8870012  82.4764997  10.0559988  95.3790012  82.2554997   9.2649988
  95.2500012  83.3174997  10.3369988  95.0033126  82.5598357   9.9857531
 112.8840012  78.8064997  16.3219988 111.9660012  79.0774997  16.2859988
 113.0070012  78.2714997  15.5369988 112.7751066  78.7712892  16.2110487
 112.9200012  78.7294997   0.9829988 113.3320012  78.0084997   0.5079988
 113.6020012  79.3994997   1.0419988 113.0685885  78.7212368   0.9258915
  95.2010012  78.7344997   4.1099988  94.2760012  78.9434997   3.9809988
  95.6550012  79.2184997   3.4209988  95.1357368  78.8285993   3.9991226
 109.9720012  93.7184997   6.0559988 110.6240012  93.3714997   5.4479988
 110.4820012  94.2074997   6.7019988 110.1302637  93.7370597   6.0600236
  95.1650012  77.4724997  12.4549988  94.5000012  77.2264997  13.0979988
  94.7220012  78.0944997  11.8769988  95.0140956  77.5228632  12.4649352
  97.3570012  90.6474997  16.5989988  96.5360012  90.8224997  16.1389988
  97.1040012  90.5744997  17.5199988  97.2106164  90.6615622  16.6604923
 100.3110012  91.6224997  12.8579988  99.8860012  92.4314997  12.5749988
 101.2150012  91.7074997  12.5559988 100.3750271  91.7448469  12.7783776
 104.6220012  93.0214997  15.8169988 104.8070012  92.6874997  16.6949988
 105.4680012  93.3304997  15.4949988 104.7617539  93.0176047  15.8935605
 106.9670012  94.3074997  15.0609988 107.6440012  93.6744997  14.8209988
 107.2890012  94.7084997  15.8679988 107.1031637  94.2751154  15.1372793
 111.8840012  76.8964997  14.1409988 111.0720012  77.2214997  13.7529988
 112.1170012  76.1364997  13.6079988 111.8043423  76.8382436  14.0158253
  97.7130012  94.8784997  12.9049988  96.9920012  95.3184997  12.4539988
  97.3470012  94.6274997  13.7539988  97.5649804  94.9047698  12.9579840
 100.1800012  94.4784997  11.9349988  99.3150012  94.5504997  12.3389988
 100.1250012  95.0254997  11.1509988 100.0542085  94.5622685  11.8843362
 104.8900012  94.3664997  11.1099988 104.4340012  94.8954997  10.4559988
 105.0530012  94.9694997  11.8359988 104.8495585  94.5204468  11.1185062
 107.2180012  93.2444997  12.0549988 106.3130012  93.4094997  11.7899988
 107.6470012  94.0974997  11.9899988 107.1520799  93.3824483  12.0099182
 109.8220012  94.8144997  12.3499988 109.6400012  95.7304997  12.1399988
 109.9990012  94.4044997  11.5039988 109.8210210  94.8844822  12.2067885
  97.1270012  93.5014997   9.8149988  97.1090012  93.0764997  10.6729988
  97.9320012  93.1834997   9.4069988  97.2333875  93.4003812   9.8771655
  99.2690012  92.2114997   8.4699988  99.0500012  91.2954997   8.6399988
 100.0930012  92.3514997   8.9359988  99.3504420  92.1050520   8.5562774
 101.8060012  92.6814997   9.3189988 102.0190012  91.7934997   9.0319988
 101.8700012  92.6474997  10.2729988 101.8438232  92.5553102   9.4087397
 105.3140012  78.3454997   8.4629988 104.6400012  77.7164997   8.7189988
 105.8780012  77.8614997   7.8599988 105.2979230  78.1938744   8.4165340
 110.4570012  76.4534997   8.5759988 111.0610012  77.0004997   8.0739988
 109.5870012  76.7724997   8.3359988 110.4221241  76.5715806   8.4747654
 112.1840012  77.5914997   6.9089988 112.7960012  77.0774997   6.3829988
 112.5660012  78.4694997   6.9329988 112.3194540  77.6397140   6.8401830
  97.6410012  76.9794997   6.2849988  96.8640012  76.7454997   5.7779988
  98.1710012  76.1824997   6.2939988  97.6062330  76.8396988   6.2167742
  96.4770012  76.7774997   2.0889988  96.9160012  77.3884997   1.4969988
  95.8440012  77.3154997   2.5629988  96.4514514  76.9339257   2.0720930
 102.2200012  76.9064997   6.0989988 103.0950012  77.2944997   6.0689988
 102.0840012  76.6914997   7.0209988 102.3213695  76.9305184   6.2196440
 107.7770012  76.9364997   7.7479988 107.8530012  77.0314997   6.7979988
 107.5020012  76.0284997   7.8769988 107.7502321  76.8267867   7.6355079
 109.1300012  76.9624997   3.4399988 108.4280012  77.5774997   3.2309988
 108.6860012  76.1244997   3.5709988 108.9736330  76.9335783   3.4290328
  96.3780012  92.7254997   2.9869988  95.6930012  92.6874997   2.3189988
  96.3820012  93.6384997   3.2749988  96.2848193  92.8437016   2.9345284
  98.3380012  78.6934997   0.5309988  98.8300012  78.0634997   0.0039988
  98.9620012  78.9894997   1.1949988  98.4895446  78.6473199   0.5485980
 103.3640012  78.9864997   2.9879988 103.5420012  78.3404997   3.6709988
 103.3110012  79.8204997   3.4559988 103.3811829  79.0107985   3.1445940
 105.2430012  93.9354997   1.3839988 106.1090012  94.3014997   1.2059988
 104.9960012  93.4954997   0.5699988 105.3282392  93.9261756   1.2496289
 111.9520012  93.4984997   4.0629988 111.7570012  92.7504997   3.4979988
 111.9130012  94.2564997   3.4799988 111.9200380  93.4986099   3.9068384
  97.5990012  77.4934997  15.8029988  97.2330012  76.7284997  16.2459988
  98.5120012  77.5224997  16.0899988  97.6722790  77.3927224  15.9024070
  99.5720012  76.8444997  17.3389988 100.4700012  76.5704997  17.1539988
  99.1850012  76.1014997  17.8029988  99.6426612  76.7065914  17.3763643
  98.1960012  93.6454997   0.0119988  97.9290012  93.9324997   0.8849988
  98.9680012  93.0994997   0.1639988  98.2637488  93.6110294   0.1521050
 107.9930012  76.1764997  17.5209988 108.0700012  75.7504997  18.3749988
 108.8870012  76.1904997  17.1779988 108.1243428  76.1200879  17.5915310
 111.1690012  92.2494997  16.2129988 110.3870012  92.0634997  15.6939988
 111.0970012  93.1784997  16.4309988 111.0521777  92.3496492  16.1714048
 125.5750012  86.1354997   6.2439988 125.6640012  87.0794997   6.1119988
 124.9370012  85.8604997   5.5859988 125.5009081  86.2274830   6.1369614
 124.5080012  85.3904997   9.6629988 124.4700012  84.7444997  10.3679988
 124.1860012  84.9244997   8.8919988 124.4592333  85.2389408   9.6552978
 116.8770012  85.0054997  11.2559988 116.9180012  84.3794997  11.9789988
 117.5800012  85.6294997  11.4379988 116.9776363  85.0041196  11.3796044
 128.2140012  88.3294997   7.9639988 127.7740012  87.6094997   8.4149988
 128.2010012  89.0504997   8.5939988 128.1520226  88.3283731   8.1108494
 117.8000012  89.4554997   9.7909988 117.4310012  88.6534997   9.4209988
 118.7410012  89.2864997   9.8369988 117.8767289  89.3230153   9.7466316
 114.4100012  83.1154997   5.1839988 113.9630012  83.9614997   5.1649988
 113.8490012  82.5354997   4.6679988 114.2729900  83.1529916   5.1116801
 115.1210012  85.2774997   7.3099988 115.3340012  84.5074997   7.8369988
 115.8590012  85.3664997   6.7059988 115.2498496  85.1841394   7.3005300
 125.3260012  93.4344997   8.1769988 125.9460012  92.7574997   7.9029988
 125.1180012  93.2164997   9.0849988 125.3826904  93.3123870   8.2623365
 122.8980012  87.8234997  10.0689988 123.2020012  87.1374997   9.4739988
 123.6190012  87.9414997  10.6869988 123.0370671  87.7456304  10.0711816
 131.5610012  79.4244997  10.9299988 131.6100012  80.0344997  11.6659988
 131.9860012  79.8854997  10.2069988 131.6251824  79.5703741  10.9330205
 126.0390012  82.2174997  10.3969988 126.1810012  81.2714997  10.4169988
 125.9320012  82.4244997   9.4679988 126.0439864  82.1159534  10.2742339
 119.1930012  80.3184997   7.6689988 119.2370012  81.1784997   7.2509988
 118.7360012  79.7664997   7.0349988 119.1372185  80.3615799   7.5260299
 126.9160012  80.4494997   6.0699988 127.5620012  80.1204997   6.6949988
 127.4260012  80.9674997   5.4469988 127.0734264  80.4744611   6.0713862
 115.8140012  82.7154997   8.4309988 116.4670012  82.1654997   8.8629988
 115.8380012  82.4414997   7.5139988 115.9066683  82.6031466   8.3662123
 120.9700012  84.2654997   7.6459988 121.5860012  83.7394997   8.1559988
 120.3840012  83.6254997   7.2429988 120.9750810  84.1069208   7.6613173
 131.9520012  80.9024997  13.1659988 131.2640012  81.5604997  13.0699988
 131.9680012  80.7054997  14.1019988 131.8598525  80.9660462  13.2794808
 118.0040012  79.2364997  11.7429988 117.7850012  79.7664997  10.9769988
 117.3360012  79.4634997  12.3899988 117.8837600  79.3396906  11.7256379
 125.3730012  88.7364997   5.2869988 125.0770012  88.4144997   4.4359988
 125.0480012  89.6364997   5.3279988 125.2886371  88.8140215   5.1761801
 120.5730012  86.9124997  12.0299988 119.8330012  87.5104997  12.1339988
 121.2870012  87.4664997  11.7149988 120.5682237  87.0692831  12.0016465
 128.6800012  79.7404997   8.0499988 128.4640012  78.9744997   8.5829988
 129.3350012  80.2124997   8.5629988 128.7390632  79.6995889   8.1922861
 117.5970012  81.1284997   9.6949988 118.2110012  81.7614997  10.0689988
 118.1090012  80.6564997   9.0389988 117.7502296  81.1512370   9.6574252
 118.9800012  88.8764997  12.8179988 118.9750012  89.7564997  12.4399988
 118.1270012  88.7934997  13.2429988 118.8639464  88.9856117  12.8237907
 115.1010012  88.5474997   3.5999988 114.8290012  88.7764997   2.7109988
 115.1470012  89.3854997   4.0599988 115.0700094  88.6921213   3.5405697
 128.7260012  90.1694997  10.3119988 127.7850012  90.2274997  10.4739988
 129.0030012  91.0754997  10.1749988 128.6344679  90.2999443  10.3156815
 129.0270012  78.4554997  11.7299988 128.2910012  79.0664997  11.6919988
 129.7100012  78.8704997  11.2029988 129.0186541  78.5951374  11.6535832
 122.0300012  76.5424997   9.1959988 121.9130012  75.5934997   9.1409988
 121.1750012  76.8744997   9.4689988 121.8983733  76.4575409   9.2253897
 126.9780012  91.9504997   6.9379988 127.4040012  91.2434997   6.4529988
 127.2950012  92.7514997   6.5209988 127.0791019  91.9620994   6.8153130
 128.1380012  89.8514997   5.4459988 127.8800012  89.1614997   4.8349988
 128.2090012  89.4084997   6.2919988 128.1122856  89.6972124   5.4766885
 129.8240012  88.4174997  13.9239988 129.9640012  87.8264997  13.1839988
 129.9910012  89.2904997  13.5669988 129.8656778  88.4546426  13.7746965
 124.2970012  85.3794997   3.6959988 123.5850012  85.9144997   3.3439988
 124.9880012  85.4354997   3.0359988 124.2930132  85.4602543   3.5586289
 124.3500012  83.8374997   0.7349988 125.0510012  83.8594997   1.3859988
 124.6530012  83.2094997   0.0789988 124.4867830  83.7556566   0.7353711
 131.6660012  84.7574997  11.9899988 131.0130012  85.4524997  12.0789988
 132.1310012  84.9674997  11.1799988 131.6395390  84.8809425  11.8926883
 127.7020012  85.5894997   4.6479988 126.9700012  85.8174997   5.2209988
 128.1500012  84.8754997   5.1029988 127.6623095  85.5242571   4.7879119
 127.6000012  83.7634997  13.7149988 127.6800012  84.5264997  14.2869988
 126.9980012  84.0424997  13.0249988 127.5295756  83.9057134  13.7000589
 119.3480012  86.2194997   6.5299988 119.0170012  85.8494997   5.7119988
 119.9360012  85.5494997   6.8769988 119.3821873  86.0781156   6.4648102
 120.7140012  89.6474997   9.2119988 120.6200012  89.0694997   8.4549988
 121.4440012  89.2764997   9.7079988 120.7997981  89.5182390   9.1754165
 119.7140012  84.9884997  10.1639988 120.2800012  85.1094997   9.4009988
 120.0330012  85.6254997  10.8029988 119.8345786  85.0911884  10.1460040
 126.0230012  90.4914997  10.8979988 125.7830012  91.1534997  11.5459988
 125.8250012  89.6574997  11.3229988 125.9633808  90.4693134  11.0441524
 120.5940012  89.3874997  14.8809988 120.2830012  90.1694997  15.3359988
 119.9440012  89.2344997  14.1949988 120.4635558  89.4739105  14.8505871
 126.5730012  84.7514997   2.3329988 127.1530012  84.9014997   3.0799988
 126.9870012  85.2224997   1.6099988 126.7082830  84.8356841   2.3374134
 117.5140012  85.5854997  14.1099988 117.5850012  86.2364997  14.8079988
 116.6240012  85.6884997  13.7749988 117.4033117  85.6885936  14.1602700
 124.3000012  91.4884997   5.7679988 124.7740012  91.7834997   6.5459988
 123.7370012  92.2264997   5.5349988 124.2887653  91.6286932   5.8430136
 118.8340012  91.4594997  15.6439988 118.8410012  91.3234997  14.6969988
 117.9180012  91.3414997  15.8959988 118.7111714  91.4249430  15.5484666
 130.2720012  76.5014997   2.1459988 129.3720012  76.6404997   2.4409988
 130.5240012  77.3324997   1.7439988 130.1828702  76.6329074   2.1320205
 118.3380012  85.2894997   4.1199988 118.0460012  86.0574997   3.6289988
 117.6640012  84.6294997   3.9569988 118.2069081  85.3054406   4.0307339
 131.4610012  90.8674997   0.5219988 131.5350012  91.8064997   0.6929988
 132.3670012  90.5624997   0.4659988 131.5935100  90.9546722   0.5378119
 114.4310012  87.6524997  12.9349988 113.9300012  87.6244997  12.1199988
 114.4360012  86.7464997  13.2439988 114.3631526  87.5262278  12.8652872
 114.1810012  90.4324997   9.8189988 115.1270012  90.2884997   9.7999988
 114.0690012  91.2164997  10.3559988 114.2952727  90.5188046   9.8890072
 132.3790012  91.0984997  15.5009988 132.3300012  90.1434997  15.4639988
 131.5520012  91.3664997  15.9019988 132.2604940  91.0038998  15.5501375
 123.3580012  90.6724997  14.3769988 123.4450012  91.4984997  14.8519988
 122.4940012  90.3424997  14.6259988 123.2531964  90.7409878  14.4756549
 123.7720012  94.4444997   4.1829988 123.6970012  94.3234997   3.2369988
 123.8050012  95.3944997   4.3019988 123.7661848  94.5562500   4.0694834
 117.4250012  93.2334997   5.9639988 117.5780012  92.8854997   6.8429988
 116.5750012  92.8774997   5.7089988 117.3308962  93.1376650   6.0498340
 126.8740012  93.5984997   1.1849988 127.2490012  92.8544997   0.7149988
 126.8780012  93.3284997   2.1039988 126.9258915  93.4601486   1.2447824
 126.5430012  93.5244997   3.9349988 125.6070012  93.6244997   4.1129988
 126.8230012  92.8154997   4.5129988 126.4528255  93.4422711   4.0375391
 129.5310012  82.5914997  15.9809988 129.1240012  83.0724997  15.2599988
 129.5720012  81.6864997  15.6729988 129.4808437  82.5349374  15.8406683
 116.6800012  88.9754997  13.9779988 116.8960012  88.6144997  14.8369988
 115.8250012  88.6014997  13.7679988 116.5939292  88.8754111  14.0673386
 119.2990012  77.4454997   9.9729988 118.4370012  77.3584997   9.5659988
 119.2760012  78.3014997  10.4009988 119.1780330  77.5492765   9.9751863
 123.9620012  77.1674997  13.3479988 124.3820012  76.7524997  14.1009988
 123.0290012  76.9894997  13.4649988 123.8933644  77.0865900  13.4669539
 127.2880012  80.9234997  14.2009988 126.7740012  80.7974997  14.9989988
 127.1330012  81.8354997  13.9569988 127.1966852  81.0296132  14.2772158
 128.0510012  85.7844997  -0.0370012 128.0930012  85.5614997  -0.9670012
 128.9000012  86.1834997   0.1529988 128.1715396  85.8079155  -0.1386373
 123.6230012  79.6604997   0.6329988 123.3700012  79.6794997   1.5559988
 123.3670012  78.7884997   0.3319988 123.5537790  79.5452437   0.7186263
 119.3900012  82.4114997  11.0679988 118.7480012  82.3704997  11.7769988
 119.4270012  83.3374997  10.8309988 119.3071324  82.5311559  11.1329824
 119.3870012  82.6324997   5.9799988 118.4940012  82.2914997   5.9219988
 119.8370012  82.2554997   5.2249988 119.3257305  82.5348484   5.8699177
 124.9220012  83.0484997   4.7969988 124.5130012  83.8634997   4.5059988
 125.6430012  82.9084997   4.1829988 124.9634537  83.1412018   4.6741342
 124.0240012  83.2234997  16.2849988 123.4620012  82.5194997  16.6059988
 124.8510012  83.1034997  16.7529988 124.0587095  83.1107883  16.3922330
 125.9270012  82.4944997   7.6109988 125.7320012  83.0994997   6.8959988
 126.1080012  81.6604997   7.1769988 125.9247614  82.4646300   7.4544405
 117.1400012  82.7314997  12.9349988 117.1020012  83.1314997  13.8039988
 116.6490012  81.9144997  13.0259988 117.0684684  82.6758069  13.0661059
 120.5060012  80.1054997  -0.2660012 120.0750012  79.6604997   0.4639988
 119.7880012  80.4774997  -0.7780012 120.3499438  80.0948940  -0.2353201
 113.7480012  79.8474997   6.7859988 114.3790012  79.8184997   7.5049988
 114.1970012  79.4224997   6.0559988 113.8950774  79.7860492   6.7856553
 115.0220012  80.5934997   2.2099988 115.4960012  81.1844997   1.6249988
 114.3050012  81.1244997   2.5569988 114.9899341  80.7460867   2.1768836
 125.1910012  84.1324997  12.2829988 125.5140012  83.5014997  11.6399988
 124.7510012  83.5974997  12.9429988 125.1756895  83.9738441  12.2842850
 121.9680012  80.0594997   7.0669988 121.0570012  80.1164997   7.3549988
 122.4740012  79.9994997   7.8769988 121.9115413  80.0591985   7.2160622
 116.7970012  81.6884997   5.8929988 115.9070012  81.7884997   5.5529988
 117.0930012  80.8464997   5.5469988 116.7152823  81.5883545   5.7997213
 120.4500012  81.6884997   3.5499988 121.3810012  81.8174997   3.7279988
 120.2350012  82.3584997   2.8999988 120.5484247  81.7966565   3.4865747
 126.3730012  79.2944997  10.3309988 125.6970012  79.4254997  10.9949988
 125.8880012  79.1394997   9.5209988 126.2147145  79.2914905  10.3124517
 119.1240012  82.8834997   1.1169988 118.5810012  82.5034997   0.4249988
 119.9570012  83.0774997   0.6879988 119.1624399  82.8578124   0.9644526
 129.6610012  94.9664997  16.6079988 129.8610012  95.3904997  15.7729988
 130.3160012  95.3094997  17.2149988 129.7770051  95.0709648  16.5757836
 117.2590012  87.4404997  16.2159988 117.9910012  87.6944997  16.7769988
 116.4790012  87.6444997  16.7309988 117.2538232  87.5029177  16.3625760
 123.2880012  82.8474997   8.9539988 123.8530012  82.3004997   8.4069988
 123.1410012  82.3254997   9.7419988 123.3452918  82.7022024   8.9858454
 118.2900012  78.9834997   5.3719988 117.9730012  78.0814997   5.3369988
 119.0720012  78.9854997   4.8189988 118.3522284  78.8601628   5.2924783
 121.9150012  81.2354997  11.3679988 121.0790012  81.6894997  11.4779988
 122.4390012  81.5114997  12.1199988 121.8714414  81.3349376  11.4847136
 122.4590012  87.4484997   3.0519988 121.7140012  86.9414997   2.7299988
 122.3250012  87.4974997   3.9989988 122.3388776  87.3856940   3.1358647
 129.6090012  86.5814997  11.8389988 130.2510012  87.0384997  11.2949988
 128.7790012  86.6944997  11.3759988 129.5845963  86.6592704  11.7020177
 126.3570012  80.2624997   1.2519988 125.4180012  80.3744997   1.0999988
 126.6540012  81.1194997   1.5579988 126.2687666  80.3936443   1.2725768
 123.9780012  87.6324997  14.2889988 123.6330012  87.2514997  15.0959988
 123.7780012  88.5664997  14.3609988 123.9038061  87.7065228  14.4090961
 127.0750012  82.1294997   2.9119988 127.9670012  81.9924997   3.2309988
 127.1320012  82.9204997   2.3759988 127.2046285  82.2176660   2.8831691
 117.5840012  86.7434997   8.8219988 118.3290012  86.7414997   8.2209988
 117.6620012  85.9204997   9.3039988 117.6965518  86.6319315   8.8048929
 124.5850012  88.9074997   2.0779988 124.2890012  89.7334997   2.4589988
 123.8820012  88.2874997   2.2739988 124.4494914  88.9368199   2.1566443
 114.5920012  85.2044997  14.1369988 114.8150012  84.7864997  14.9689988
 113.9900012  84.5914997  13.7139988 114.5411759  85.0644668  14.1937022
 121.6080012  84.7214997  16.3499988 121.3120012  84.5554997  15.4549988
 122.5400012  84.5014997  16.3389988 121.6934166  84.6690640  16.2260536
 126.2290012  90.0944997  14.2399988 125.3280012  90.2774997  13.9719988
 126.2630012  90.3534997  15.1609988 126.1103041  90.1545512  14.3278197
 131.9600012  82.3394997   2.6069988 131.4060012  81.9434997   1.9349988
 132.0600012  83.2494997   2.3289988 131.8977059  82.4083586   2.4774401
 131.9230012  88.1394997  15.4439988 131.0720012  88.3774997  15.0769988
 132.5140012  88.1224997  14.6909988 131.8862487  88.1698258  15.2918893
 130.2550012  91.1254997   3.0719988 129.8820012  90.2994997   3.3809988
 130.5330012  90.9424997   2.1749988 130.2415630  90.9877303   2.9929626
 127.4160012  85.9334997  10.0929988 126.4870012  85.7014997  10.0659988
 127.8670012  85.1564997   9.7629988 127.3499216  85.7967238  10.0446917
 119.9590012  90.2614997   6.2259988 120.4860012  91.0344997   6.0259988
 119.0790012  90.4864997   5.9249988 119.9121773  90.3978005   6.1579010
 115.7140012  85.1234997   0.8129988 116.3300012  85.7504997   1.1929988
 114.8520012  85.4394997   1.0849988 115.6817698  85.2519430   0.9017183
 121.3860012  87.9244997   5.8029988 121.1450012  88.8494997   5.8439988
 120.6450012  87.4654997   6.1989988 121.2528409  87.9891421   5.8621377
 121.9010012  92.0734997  12.1179988 122.2630012  92.9284997  11.8839988
 122.4320012  91.7814997  12.8579988 122.0224473  92.1511060  12.1860855
 120.0690012  92.9464997   5.3479988 119.1190012  93.0514997   5.3989988
 120.4210012  93.7664997   5.6929988 119.9864203  93.0718314   5.4016650
 125.4450012  88.1724997  11.8179988 125.0190012  87.9454997  12.6449988
 126.0250012  87.4344997  11.6359988 125.4651868  88.0415299  11.9065830
 127.6480012  89.1014997   0.8919988 128.0010012  88.7214997   1.6969988
 126.6990012  89.0084997   0.9789988 127.5680441  89.0369596   1.0138559
 128.1030012  92.7244997  14.2879988 127.5020012  92.1694997  13.7919988
 128.3850012  93.3914997  13.6619988 128.0588519  92.7386841  14.1354952
 132.1510012  93.5814997   1.0929988 132.8950012  94.1674997   0.9529988
 131.4570012  94.1494997   1.4269988 132.1590292  93.7385582   1.1189961
 116.2260012  79.9574997  13.6949988 115.3330012  80.2964997  13.6269988
 116.1270012  79.1024997  14.1129988 116.0904164  79.8882588  13.7422235
 128.5140012  87.7744997   3.1189988 128.2360012  87.0464997   3.6749988
 129.4410012  87.8934997   3.3239988 128.6013124  87.6908802   3.2228845
 115.8770012  91.7624997  12.1299988 116.0940012  90.8304997  12.0989988
 116.1230012  92.0364997  13.0129988 115.9399549  91.6720636  12.2451763
 121.7390012  90.2134997  -0.6610012 121.9780012  89.4654997  -1.2080012
 121.4700012  89.8254997   0.1719988 121.7353675  90.0586638  -0.6233135
 120.6760012  89.7834997   1.7959988 120.8220012  89.2634997   2.5859988
 120.6730012  90.6904997   2.1019988 120.6955989  89.8348853   1.9456088
 117.1290012  87.0364997   2.3059988 116.4430012  87.3884997   2.8729988
 117.6510012  87.7994997   2.0589988 117.1056852  87.1878578   2.3502118
 124.9600012  79.6984997  12.5849988 125.6590012  79.7724997  13.2349988
 124.5790012  78.8344997  12.7389988 125.0041767  79.5917624  12.6948322
 125.7450012  79.3504997   3.6819988 125.9650012  79.8224997   2.8789988
 126.3030012  79.7454997   4.3519988 125.8504968  79.4684285   3.6627331
 123.4130012  91.4814997   2.5449988 122.5970012  91.9784997   2.5969988
 123.9430012  91.9564997   1.9049988 123.3729161  91.6137722   2.4655956
 122.9450012  81.0784997   4.5169988 123.7570012  81.5834997   4.5629988
 122.7000012  80.9334997   5.4309988 123.0230520  81.1280375   4.6468517
 123.4800012  82.0644997  13.7019988 123.5990012  82.6384997  14.4589988
 124.1360012  81.3764997  13.8159988 123.5849757  82.0501079  13.8210825
 123.8280012  78.1594997   5.4549988 123.4820012  78.7774997   6.0999988
 124.4870012  78.6604997   4.9739988 123.8697826  78.3115802   5.4780971
 120.7520012  92.5254997   2.5269988 120.9120012  93.3244997   2.0259988
 120.5540012  92.8314997   3.4119988 120.7471649  92.6764469   2.5779815
 119.4860012  79.2224997   2.1419988 119.4030012  80.1114997   2.4889988
 120.3760012  78.9574997   2.3739988 119.5949469  79.3081430   2.2207626
 129.6850012  79.9714997  14.5369988 128.7680012  80.2344997  14.4489988
 130.0200012  79.9684997  13.6399988 129.6049900  80.0070224  14.4037919
 128.2870012  83.7224997   8.6319988 127.4890012  83.3074997   8.3039988
 128.7320012  83.0314997   9.1229988 128.2379885  83.5723543   8.6534889
 117.7450012  89.6504997   1.2029988 118.3370012  90.3494997   1.4789988
 118.2040012  89.2174997   0.4829988 117.8881142  89.6877049   1.1434830
 116.0610012  82.3144997   0.3189988 116.0160012  83.2534997   0.4969988
 115.1730012  82.0784997   0.0489988 115.9348574  82.4111892   0.3068912
 129.3730012  92.9784997  10.2549988 129.2180012  93.6564997   9.5979988
 130.3060012  93.0504997  10.4579988 129.4778500  93.0810170  10.1925119
 116.8690012  77.0964997   8.9919988 116.6400012  77.1554997   8.0639988
 116.4260012  76.3044997   9.2979988 116.7778530  76.9975753   8.9064786
 115.7990012  91.0364997   5.1519988 114.9670012  91.5094997   5.1799988
 116.3450012  91.5464997   4.5539988 115.7589739  91.1701871   5.0749716
 115.0870012  93.6494997  16.4819988 115.6280012  93.4324997  17.2419988
 114.6060012  92.8434997  16.2929988 115.0959345  93.5109514  16.5603076
 119.6850012  92.5684997  18.1029988 120.4520012  92.1094997  18.4439988
 119.6630012  92.3424997  17.1729988 119.7871434  92.4750409  18.0240043
 123.7770012  92.0764997  -0.5220012 123.1330012  91.4454997  -0.2010012
 124.5390012  91.5454997  -0.7540012 123.7918077  91.9182920  -0.5093989
 126.2620012  90.9484997  16.8319988 125.9110012  90.0924997  17.0749988
 126.9880012  91.0914997  17.4389988 126.3120769  90.8505636  16.9473619
 128.3810012  91.8934997  -0.2880012 128.6640012  91.0994997   0.1639988
 129.1210012  92.1264997  -0.8490012 128.5197486  91.8162803  -0.3019302
 114.9940012  87.4594997  17.4369988 115.1380012  86.5574997  17.1499988
 114.2220012  87.7454997  16.9489988 114.9093322  87.3748261  17.3317881
 119.3360012  87.8034997  -0.4310012 119.4000012  87.0094997   0.0999988
 119.9890012  87.6844997  -1.1210012 119.4330241  87.6787148  -0.4515683
 121.6500012  87.4294997  16.8689988 121.3210012  87.7004997  16.0119988
 121.8020012  86.4884997  16.7819988 121.6254809  87.3393862  16.7398244
 124.6880012  88.8504997  -0.6950012 124.4190012  89.0304997   0.2059988
 124.4820012  87.9244997  -0.8260012 124.6233825  88.7500152  -0.5894786
 127.3840012  87.3454997  14.2529988 128.1300012  87.9334997  14.1329988
 126.6270012  87.9274997  14.3159988 127.3837554  87.5047011  14.2450907
 115.8270012  84.6594997  16.8569988 116.2350012  83.8024997  16.7359988
 115.5670012  84.6744997  17.7779988 115.8477568  84.5440807  16.9649588
 120.4850012  85.7754997   1.8749988 120.0250012  85.2914997   2.5609988
 120.7400012  85.1074997   1.2389988 120.4564902  85.6188731   1.8829334
 119.7740012  83.6684997  14.2309988 119.1560012  84.3434997  14.5109988
 120.1180012  83.9894997  13.3979988 119.7359615  83.8042721  14.1566581
 121.5560012  84.0184997   0.1369988 121.3760012  83.8644997  -0.7900012
 122.5060012  84.1264997   0.1819988 121.6597776  84.0120175   0.0161843
 124.7940012  86.1404997  17.5079988 125.7470012  86.2234997  17.4809988
 124.6330012  85.4284997  18.1279988 124.9026426  86.0556746  17.5880578
 130.9460012  86.3734997  -0.4170012 130.6720012  85.9484997  -1.2300012
 130.9850012  87.3044997  -0.6340012 130.9137699  86.4412484  -0.5576390
 120.1130012  81.0234997  15.3129988 120.2630012  80.2944997  14.7109988
 120.1160012  81.8004997  14.7539988 120.1339302  81.0287851  15.1550692
 120.5260012  79.3934997  12.8059988 121.0620012  79.8444997  12.1539988
 119.6740012  79.2854997  12.3829988 120.4842178  79.4406390  12.6595756
 122.1080012  84.8324997  13.0449988 122.8580012  84.6764997  12.4719988
 121.7690012  85.6844997  12.7699988 122.1648921  84.9262968  12.9293561
 126.5230012  82.6474997  18.0739988 126.7160012  81.7164997  17.9619988
 127.3810012  83.0724997  18.0639988 126.6653020  82.5776389  18.0573361
 127.8400012  85.4364997  16.1509988 127.5590012  86.1454997  15.5739988
 128.7830012  85.3634997  15.9999988 127.9289027  85.5237646  16.0515551
 118.5920012  82.2214997  17.2249988 117.8250012  81.6894997  17.0149988
 119.2710012  81.9114997  16.6249988 118.5787022  82.1067506  17.1151648
 121.3320012  76.8494997  13.2369988 121.2330012  77.7964997  13.1319988
 120.5890012  76.4774997  12.7619988 121.2180564  76.9285902  13.1584560
 122.5960012  81.1714997  16.8009988 122.3600012  80.9514997  17.7029988
 121.8120012  80.9644997  16.2909988 122.4578628  81.1134760  16.8553932
 125.3110012  80.2984997  15.8769988 124.3640012  80.3304997  16.0089988
 125.6240012  79.6734997  16.5299988 125.2235475  80.2183207  15.9834455
 126.9450012  78.9324997  17.8819988 126.8490012  77.9804997  17.8759988
 126.6240012  79.2014997  18.7419988 126.8884070  78.8384035  17.9975441
 116.7720012  80.1424997  16.9289988 116.9840012  79.4354997  16.3189988
 116.6610012  79.7044997  17.7729988 116.7859721  79.9867084  16.9596843
 121.5530012  76.1434997  15.9089988 122.2650012  75.5034997  15.8949988
 121.4520012  76.4104997  14.9949988 121.6367939  76.0919938  15.7835650
 121.9070012  77.8264997  17.9619988 121.7750012  77.3504997  17.1419988
 121.3080012  78.5704997  17.9069988 121.8079071  77.8619618  17.8422886
 121.4530012  94.7094997   1.1389988 122.3860012  94.8674997   1.2819988
 121.1890012  95.3844997   0.5139988 121.5449510  94.8223611   1.0740741
 115.0220012  89.3454997   0.6209988 115.9360012  89.4244997   0.8949988
 115.0290012  88.6584997  -0.0450012 115.1481131  89.2633961   0.5684393
 113.6710012  94.7384997   5.6989988 113.0240012  94.2764997   5.1659988
 114.0250012  94.0664997   6.2809988 113.6303849  94.5844723   5.7047959
 114.5410012  92.8194997   7.5029988 114.2060012  91.9394997   7.6749988
 114.7630012  93.1644997   8.3679988 114.5251783  92.7457500   7.6434208
 132.0890012  93.6284997  10.4839988 132.0680012  93.8134997  11.4229988
 132.7800012  94.1974997  10.1429988 132.1794618  93.7306606  10.5663864
 131.6530012  93.1964997  13.4059988 131.1650012  92.4604997  13.0349988
 132.2020012  92.8024997  14.0839988 131.6604872  93.0426249  13.4469160
 130.1030012  88.9854997  18.0439988 129.2370012  88.8804997  18.4379988
 130.4800012  89.7444997  18.4899988 130.0353308  89.0736900  18.1582393
 131.4040012  87.2424997   3.5579988 132.2540012  87.6634997   3.6849988
 131.4100012  86.5024997   4.1649988 131.5211372  87.2000803   3.6574344
 131.7990012  85.2954997   5.3819988 131.0720012  84.8164997   5.7789988
 132.3800012  85.5014997   6.1139988 131.7779375  85.2577090   5.5354129
 131.5580012  88.0804997  10.3289988 132.3910012  87.7024997  10.0489988
 131.6700012  89.0234997  10.2099988 131.6872647  88.1562218  10.2745487
 130.0440012  90.9584997  12.6359988 129.3970012  91.2834997  13.2619988
 129.5270012  90.5184997  11.9619988 129.8854029  90.9435004  12.6305827
 132.0670012  85.1964997   1.7729988 131.5450012  85.5534997   1.0539988
 132.0340012  85.8714997   2.4509988 131.9911634  85.3365413   1.7663145
 130.4160012  82.4364997   0.3239988 130.5120012  83.1034997  -0.3570012
 130.2760012  81.6204997  -0.1580012 130.4102135  82.4174500   0.1658491
 129.5850012  83.8164997   5.9449988 129.4350012  82.8714997   5.9239988
 129.2320012  84.0974997   6.7879988 129.5166625  83.7250441   6.0562346
 114.6210012  85.8944997   9.9549988 114.8050012  85.8124997   9.0189988
 115.4700012  85.7704997  10.3789988 114.7610139  85.8665003   9.8841455
 130.4420012  85.7864997  15.5829988 131.0250012  85.0524997  15.7749988
 131.0060012  86.5584997  15.6299988 130.5979769  85.7904227  15.6156159
 131.9380012  83.6894997  16.2679988 131.0750012  83.3104997  16.1019988
 132.5430012  82.9504997  16.1939988 131.9015979  83.5378023  16.2352817
 129.6630012  79.8444997  -0.5590012 130.2740012  79.4734997   0.0779988
 128.8270012  79.4234997  -0.3630012 129.6335032  79.7367554  -0.4452965
 129.2960012  81.3994997   4.4069988 129.5760012  80.4924997   4.5309988
 130.0550012  81.8334997   4.0179988 129.4369277  81.3340942   4.3713682
 129.9080012  81.9804997   9.8429988 130.8410012  82.1924997   9.8089988
 129.6730012  82.0824997  10.7649988 130.0038036  82.0232769   9.9629976
 129.9370012  82.7174997  12.6189988 129.0940012  82.9854997  12.9849988
 130.3790012  83.5394997  12.4079988 129.8814158  82.8653291  12.6405491
 114.2180012  81.1654997  16.0959988 115.1380012  81.0434997  16.3319988
 113.7690012  80.4154997  16.4849988 114.2831580  81.0473727  16.1809006
 132.2200012  76.6974997  17.9719988 132.5700012  76.0434997  17.3669988
 132.3670012  77.5344997  17.5329988 132.2878419  76.7211591  17.8297118
 129.9090012  78.6624997   4.4549988 130.0920012  78.2134997   5.2809988
 129.3100012  78.0774997   3.9919988 129.8530202  78.5219975   4.5053275
 115.4390012  79.4774997   8.9869988 115.8850012  78.6854997   9.2889988
 115.9060012  80.1934997   9.4179988 115.5630172  79.4660624   9.0864820
 113.7430012  82.4764997  10.0559988 114.2350012  82.2554997   9.2649988
 114.1060012  83.3174997  10.3369988 113.8593126  82.5598357   9.9857531
 131.7400012  78.8064997  16.3219988 130.8220012  79.0774997  16.2859988
 131.8630012  78.2714997  15.5369988 131.6311066  78.7712892  16.2110487
 131.7760012  78.7294997   0.9829988 132.1880012  78.0084997   0.5079988
 132.4580012  79.3994997   1.0419988 131.9245885  78.7212368   0.9258915
 114.0570012  78.7344997   4.1099988 113.1320012  78.9434997   3.9809988
 114.5110012  79.2184997   3.4209988 113.9917368  78.8285993   3.9991226
 128.8280012  93.7184997   6.0559988 129.4800012  93.3714997   5.4479988
 129.3380012  94.2074997   6.7019988 128.9862637  93.7370597   6.0600236
 114.0210012  77.4724997  12.4549988 113.3560012  77.2264997  13.0979988
 113.5780012  78.0944997  11.8769988 113.8700956  77.5228632  12.4649352
 116.2130012  90.6474997  16.5989988 115.3920012  90.8224997  16.1389988
 115.9600012  90.5744997  17.5199988 116.0666164  90.6615622  16.6604923
 119.1670012  91.6224997  12.8579988 118.7420012  92.4314997  12.5749988
 120.0710012  91.7074997  12.5559988 119.2310271  91.7448469  12.7783776
 123.4780012  93.0214997  15.8169988 123.6630012  92.6874997  16.6949988
 124.3240012  93.3304997  15.4949988 123.6177539  93.0176047  15.8935605
 125.8230012  94.3074997  15.0609988 126.5000012  93.6744997  14.8209988
 126.1450012  94.7084997  15.8679988 125.9591637  94.2751154  15.1372793
 130.7400012  76.8964997  14.1409988 129.9280012  77.2214997  13.7529988
 130.9730012  76.1364997  13.6079988 130.6603423  76.8382436  14.0158253
 116.5690012  94.8784997  12.9049988 115.8480012  95.3184997  12.4539988
 116.2030012  94.6274997  13.7539988 116.4209804  94.9047698  12.9579840
 119.0360012  94.4784997  11.9349988 118.1710012  94.5504997  12.3389988
 118.9810012  95.0254997  11.1509988 118.9102085  94.5622685  11.8843362
 123.7460012  94.3664997  11.1099988 123.2900012  94.8954997  10.4559988
 123.9090012  94.9694997  11.8359988 123.7055585  94.5204468  11.1185062
 126.0740012  93.2444997  12.0549988 125.1690012  93.4094997  11.7899988
 126.5030012  94.0974997  11.9899988 126.0080799  93.3824483  12.0099182
 128.6780012  94.8144997  12.3499988 128.4960012  95.7304997  12.1399988
 128.8550012  94.4044997  11.5039988 128.6770210  94.8844822  12.2067885
 115.9830012  93.5014997   9.8149988 115.9650012  93.0764997  10.6729988
 116.7880012  93.1834997   9.4069988 116.0893875  93.4003812   9.8771655
 118.1250012  92.2114997   8.4699988 117.9060012  91.2954997   8.6399988
 118.9490012  92.3514997   8.9359988 118.2064420  92.1050520   8.5562774
 120.6620012  92.6814997   9.3189988 120.8750012  91.7934997   9.0319988
 120.7260012  92.6474997  10.2729988 120.6998232  92.5553102   9.4087397
 124.1700012  78.3454997   8.4629988 123.4960012  77.7164997   8.7189988
 124.7340012  77.8614997   7.8599988 124.1539230  78.1938744   8.4165340
 129.3130012  76.4534997   8.5759988 129.9170012  77.0004997   8.0739988
 128.4430012  76.7724997   8.3359988 129.2781241  76.5715806   8.4747654
 131.0400012  77.5914997   6.9089988 131.6520012  77.0774997   6.3829988
 131.4220012  78.4694997   6.9329988 131.1754540  77.6397140   6.8401830
 116.4970012  76.9794997   6.2849988 115.7200012  76.7454997   5.7779988
 117.0270012  76.1824997   6.2939988 116.4622330  76.8396988   6.2167742
 115.3330012  76.7774997   2.0889988 115.7720012  77.3884997   1.4969988
 114.7000012  77.3154997   2.5629988 115.3074514  76.9339257   2.0720930
 121.0760012  76.9064997   6.0989988 121.9510012  77.2944997   6.0689988
 120.9400012  76.6914997   7.0209988 121.1773695  76.9305184   6.2196440
 126.6330012  76.9364997   7.7479988 126.7090012  77.0314997   6.7979988
 126.3580012  76.0284997   7.8769988 126.6062321  76.8267867   7.6355079
 127.9860012  76.9624997   3.4399988 127.2840012  77.5774997   3.2309988
 127.5420012  76.1244997   3.5709988 127.8296330  76.9335783   3.4290328
 115.2340012  92.7254997   2.9869988 114.5490012  92.6874997   2.3189988
 115.2380012  93.6384997   3.2749988 115.1408193  92.8437016   2.9345284
 117.1940012  78.6934997   0.5309988 117.6860012  78.0634997   0.0039988
 117.8180012  78.9894997   1.1949988 117.3455446  78.6473199   0.5485980
 122.2200012  78.9864997   2.9879988 122.3980012  78.3404997   3.6709988
 122.1670012  79.8204997   3.4559988 122.2371829  79.0107985   3.1445940
 124.0990012  93.9354997   1.3839988 124.9650012  94.3014997   1.2059988
 123.8520012  93.4954997   0.5699988 124.1842392  93.9261756   1.2496289
 130.8080012  93.4984997   4.0629988 130.6130012  92.7504997   3.4979988
 130.7690012  94.2564997   3.4799988 130.7760380  93.4986099   3.9068384
 116.4550012  77.4934997  15.8029988 116.0890012  76.7284997  16.2459988
 117.3680012  77.5224997  16.0899988 116.5282790  77.3927224  15.9024070
 118.4280012  76.8444997  17.3389988 119.3260012  76.5704997  17.1539988
 118.0410012  76.1014997  17.8029988 118.4986612  76.7065914  17.3763643
 117.0520012  93.6454997   0.0119988 116.7850012  93.9324997   0.8849988
 117.8240012  93.0994997   0.1639988 117.1197488  93.6110294   0.1521050
 126.8490012  76.1764997  17.5209988 126.9260012  75.7504997  18.3749988
 127.7430012  76.1904997  17.1779988 126.9803428  76.1200879  17.5915310
 130.0250012  92.2494997  16.2129988 129.2430012  92.0634997  15.6939988
 129.9530012  93.1784997  16.4309988 129.9081777  92.3496492  16.1714048
 144.4310012  86.1354997   6.2439988 144.5200012  87.0794997   6.1119988
 143.7930012  85.8604997   5.5859988 144.3569081  86.2274830   6.1369614
 143.3640012  85.3904997   9.6629988 143.3260012  84.7444997  10.3679988
 143.0420012  84.9244997   8.8919988 143.3152333  85.2389408   9.6552978
 135.7330012  85.0054997  11.2559988 135.7740012  84.3794997  11.9789988
 136.4360012  85.6294997  11.4379988 135.8336363  85.0041196  11.3796044
 136.6560012  89.4554997   9.7909988 136.2870012  88.6534997   9.4209988
 137.5970012  89.2864997   9.8369988 136.7327289  89.3230153   9.7466316
 133.2660012  83.1154997   5.1839988 132.8190012  83.9614997   5.1649988
 132.7050012  82.5354997   4.6679988 133.1289900  83.1529916   5.1116801
 133.9770012  85.2774997   7.3099988 134.1900012  84.5074997   7.8369988
 134.7150012  85.3664997   6.7059988 134.1058496  85.1841394   7.3005300
 144.1820012  93.4344997   8.1769988 144.8020012  92.7574997   7.9029988
 143.9740012  93.2164997   9.0849988 144.2386904  93.3123870   8.2623365
 141.7540012  87.8234997  10.0689988 142.0580012  87.1374997   9.4739988
 142.4750012  87.9414997  10.6869988 141.8930671  87.7456305  10.0711816
 144.8950012  82.2174997  10.3969988 145.0370012  81.2714997  10.4169988
 144.7880012  82.4244997   9.4679988 144.8999864  82.1159534  10.2742339
 138.0490012  80.3184997   7.6689988 138.0930012  81.1784997   7.2509988
 137.5920012  79.7664997   7.0349988 137.9932185  80.3615799   7.5260299
 134.6700012  82.7154997   8.4309988 135.3230012  82.1654997   8.8629988
 134.6940012  82.4414997   7.5139988 134.7626683  82.6031466   8.3662123
 139.8260012  84.2654997   7.6459988 140.4420012  83.7394997   8.1559988
 139.2400012  83.6254997   7.2429988 139.8310810  84.1069208   7.6613173
 136.8600012  79.2364997  11.7429988 136.6410012  79.7664997  10.9769988
 136.1920012  79.4634997  12.3899988 136.7397600  79.3396906  11.7256379
 144.2290012  88.7364997   5.2869988 143.9330012  88.4144997   4.4359988
 143.9040012  89.6364997   5.3279988 144.1446371  88.8140215   5.1761801
 139.4290012  86.9124997  12.0299988 138.6890012  87.5104997  12.1339988
 140.1430012  87.4664997  11.7149988 139.4242237  87.0692831  12.0016465
 136.4530012  81.1284997   9.6949988 137.0670012  81.7614997  10.0689988
 136.9650012  80.6564997   9.0389988 136.6062296  81.1512370   9.6574252
 137.8360012  88.8764997  12.8179988 137.8310012  89.7564997  12.4399988
 136.9830012  88.7934997  13.2429988 137.7199464  88.9856117  12.8237907
 133.9570012  88.5474997   3.5999988 133.6850012  88.7764997   2.7109988
 134.0030012  89.3854997   4.0599988 133.9260094  88.6921213   3.5405697
 140.8860012  76.5424997   9.1959988 140.7690012  75.5934997   9.1409988
 140.0310012  76.8744997   9.4689988 140.7543733  76.4575409   9.2253897
 143.1530012  85.3794997   3.6959988 142.4410012  85.9144997   3.3439988
 143.8440012  85.4354997   3.0359988 143.1490132  85.4602543   3.5586289
 143.2060012  83.8374997   0.7349988 143.9070012  83.8594997   1.3859988
 143.5090012  83.2094997   0.0789988 143.3427830  83.7556566   0.7353711
 138.2040012  86.2194997   6.5299988 137.8730012  85.8494997   5.7119988
 138.7920012  85.5494997   6.8769988 138.2381873  86.0781156   6.4648102
 139.5700012  89.6474997   9.2119988 139.4760012  89.0694997   8.4549988
 140.3000012  89.2764997   9.7079988 139.6557981  89.5182390   9.1754165
 138.5700012  84.9884997  10.1639988 139.1360012  85.1094997   9.4009988
 138.8890012  85.6254997  10.8029988 138.6905786  85.0911884  10.1460040
 144.8790012  90.4914997  10.8979988 144.6390012  91.1534997  11.5459988
 144.6810012  89.6574997  11.3229988 144.8193808  90.4693134  11.0441524
 139.4500012  89.3874997  14.8809988 139.1390012  90.1694997  15.3359988
 138.8000012  89.2344997  14.1949988 139.3195558  89.4739105  14.8505871
 136.3700012  85.5854997  14.1099988 136.4410012  86.2364997  14.8079988
 135.4800012  85.6884997  13.7749988 136.2593117  85.6885936  14.1602700
 143.1560012  91.4884997   5.7679988 143.6300012  91.7834997   6.5459988
 142.5930012  92.2264997   5.5349988 143.1447653  91.6286932   5.8430136
 137.6900012  91.4594997  15.6439988 137.6970012  91.3234997  14.6969988
 136.7740012  91.3414997  15.8959988 137.5671714  91.4249430  15.5484666
 137.1940012  85.2894997   4.1199988 136.9020012  86.0574997   3.6289988
 136.5200012  84.6294997   3.9569988 137.0629081  85.3054406   4.0307340
 133.2870012  87.6524997  12.9349988 132.7860012  87.6244997  12.1199988
 133.2920012  86.7464997  13.2439988 133.2191526  87.5262278  12.8652872
 133.0370012  90.4324997   9.8189988 133.9830012  90.2884997   9.7999988
 132.9250012  91.2164997  10.3559988 133.1512727  90.5188046   9.8890072
 142.2140012  90.6724997  14.3769988 142.3010012  91.4984997  14.8519988
 141.3500012  90.3424997  14.6259988 142.1091964  90.7409878  14.4756549
 142.6280012  94.4444997   4.1829988 142.5530012  94.3234997   3.2369988
 142.6610012  95.3944997   4.3019988 142.6221848  94.5562500   4.0694834
 136.2810012  93.2334997   5.9639988 136.4340012  92.8854997   6.8429988
 135.4310012  92.8774997   5.7089988 136.1868962  93.1376650   6.0498340
 135.5360012  88.9754997  13.9779988 135.7520012  88.6144997  14.8369988
 134.6810012  88.6014997  13.7679988 135.4499292  88.8754111  14.0673386
 138.1550012  77.4454997   9.9729988 137.2930012  77.3584997   9.5659988
 138.1320012  78.3014997  10.4009988 138.0340330  77.5492765   9.9751863
 142.8180012  77.1674997  13.3479988 143.2380012  76.7524997  14.1009988
 141.8850012  76.9894997  13.4649988 142.7493644  77.0865900  13.4669539
 142.4790012  79.6604997   0.6329988 142.2260012  79.6794997   1.5559988
 142.2230012  78.7884997   0.3319988 142.4097790  79.5452437   0.7186263
 138.2460012  82.4114997  11.0679988 137.6040012  82.3704997  11.7769988
 138.2830012  83.3374997  10.8309988 138.1631324  82.5311559  11.1329824
 138.2430012  82.6324997   5.9799988 137.3500012  82.2914997   5.9219988
 138.6930012  82.2554997   5.2249988 138.1817305  82.5348484   5.8699177
 143.7780012  83.0484997   4.7969988 143.3690012  83.8634997   4.5059988
 144.4990012  82.9084997   4.1829988 143.8194537  83.1412018   4.6741342
 142.8800012  83.2234997  16.2849988 142.3180012  82.5194997  16.6059988
 143.7070012  83.1034997  16.7529988 142.9147095  83.1107883  16.3922330
 144.7830012  82.4944997   7.6109988 144.5880012  83.0994997   6.8959988
 144.9640012  81.6604997   7.1769988 144.7807614  82.4646300   7.4544405
 135.9960012  82.7314997  12.9349988 135.9580012  83.1314997  13.8039988
 135.5050012  81.9144997  13.0259988 135.9244684  82.6758069  13.0661059
 139.3620012  80.1054997  -0.2660012 138.9310012  79.6604997   0.4639988
 138.6440012  80.4774997  -0.7780012 139.2059438  80.0948940  -0.2353201
 132.6040012  79.8474997   6.7859988 133.2350012  79.8184997   7.5049988
 133.0530012  79.4224997   6.0559988 132.7510774  79.7860492   6.7856553
 133.8780012  80.5934997   2.2099988 134.3520012  81.1844997   1.6249988
 133.1610012  81.1244997   2.5569988 133.8459341  80.7460867   2.1768836
 144.0470012  84.1324997  12.2829988 144.3700012  83.5014997  11.6399988
 143.6070012  83.5974997  12.9429988 144.0316895  83.9738441  12.2842850
 140.8240012  80.0594997   7.0669988 139.9130012  80.1164997   7.3549988
 141.3300012  79.9994997   7.8769988 140.7675413  80.0591985   7.2160622
 135.6530012  81.6884997   5.8929988 134.7630012  81.7884997   5.5529988
 135.9490012  80.8464997   5.5469988 135.5712823  81.5883546   5.7997213
 139.3060012  81.6884997   3.5499988 140.2370012  81.8174997   3.7279988
 139.0910012  82.3584997   2.8999988 139.4044247  81.7966565   3.4865747
 137.9800012  82.8834997   1.1169988 137.4370012  82.5034997   0.4249988
 138.8130012  83.0774997   0.6879988 138.0184399  82.8578124   0.9644526
 136.1150012  87.4404997  16.2159988 136.8470012  87.6944997  16.7769988
 135.3350012  87.6444997  16.7309988 136.1098232  87.5029177  16.3625760
 142.1440012  82.8474997   8.9539988 142.7090012  82.3004997   8.4069988
 141.9970012  82.3254997   9.7419988 142.2012918  82.7022024   8.9858454
 137.1460012  78.9834997   5.3719988 136.8290012  78.0814997   5.3369988
 137.9280012  78.9854997   4.8189988 137.2082284  78.8601628   5.2924783
 140.7710012  81.2354997  11.3679988 139.9350012  81.6894997  11.4779988
 141.2950012  81.5114997  12.1199988 140.7274414  81.3349376  11.4847136
 141.3150012  87.4484997   3.0519988 140.5700012  86.9414997   2.7299988
 141.1810012  87.4974997   3.9989988 141.1948776  87.3856940   3.1358647
 142.8340012  87.6324997  14.2889988 142.4890012  87.2514997  15.0959988
 142.6340012  88.5664997  14.3609988 142.7598061  87.7065228  14.4090961
 136.4400012  86.7434997   8.8219988 137.1850012  86.7414997   8.2209988
 136.5180012  85.9204997   9.3039988 136.5525518  86.6319315   8.8048929
 143.4410012  88.9074997   2.0779988 143.1450012  89.7334997   2.4589988
 142.7380012  88.2874997   2.2739988 143.3054914  88.9368199   2.1566443
 133.4480012  85.2044997  14.1369988 133.6710012  84.7864997  14.9689988
 132.8460012  84.5914997  13.7139988 133.3971759  85.0644668  14.1937022
 140.4640012  84.7214997  16.3499988 140.1680012  84.5554997  15.4549988
 141.3960012  84.5014997  16.3389988 140.5494166  84.6690640  16.2260536
 138.8150012  90.2614997   6.2259988 139.3420012  91.0344997   6.0259988
 137.9350012  90.4864997   5.9249988 138.7681773  90.3978005   6.1579010
 134.5700012  85.1234997   0.8129988 135.1860012  85.7504997   1.1929988
 133.7080012  85.4394997   1.0849988 134.5377698  85.2519430   0.9017183
 140.2420012  87.9244997   5.8029988 140.0010012  88.8494997   5.8439988
 139.5010012  87.4654997   6.1989988 140.1088409  87.9891421   5.8621377
 140.7570012  92.0734997  12.1179988 141.1190012  92.9284997  11.8839988
 141.2880012  91.7814997  12.8579988 140.8784473  92.1511060  12.1860855
 138.9250012  92.9464997   5.3479988 137.9750012  93.0514997   5.3989988
 139.2770012  93.7664997   5.6929988 138.8424203  93.0718314   5.4016650
 144.3010012  88.1724997  11.8179988 143.8750012  87.9454997  12.6449988
 144.8810012  87.4344997  11.6359988 144.3211868  88.0415299  11.9065830
 135.0820012  79.9574997  13.6949988 134.1890012  80.2964997  13.6269988
 134.9830012  79.1024997  14.1129988 134.9464164  79.8882588  13.7422235
 134.7330012  91.7624997  12.1299988 134.9500012  90.8304997  12.0989988
 134.9790012  92.0364997  13.0129988 134.7959549  91.6720636  12.2451763
 140.5950012  90.2134997  -0.6610012 140.8340012  89.4654997  -1.2080012
 140.3260012  89.8254997   0.1719988 140.5913675  90.0586638  -0.6233135
 139.5320012  89.7834997   1.7959988 139.6780012  89.2634997   2.5859988
 139.5290012  90.6904997   2.1019988 139.5515989  89.8348853   1.9456088
 135.9850012  87.0364997   2.3059988 135.2990012  87.3884997   2.8729988
 136.5070012  87.7994997   2.0589988 135.9616852  87.1878578   2.3502118
 143.8160012  79.6984997  12.5849988 144.5150012  79.7724997  13.2349988
 143.4350012  78.8344997  12.7389988 143.8601767  79.5917624  12.6948322
 144.6010012  79.3504997   3.6819988 144.8210012  79.8224997   2.8789988
 145.1590012  79.7454997   4.3519988 144.7064968  79.4684285   3.6627331
 142.2690012  91.4814997   2.5449988 141.4530012  91.9784997   2.5969988
 142.7990012  91.9564997   1.9049988 142.2289161  91.6137722   2.4655956
 141.8010012  81.0784997   4.5169988 142.6130012  81.5834997   4.5629988
 141.5560012  80.9334997   5.4309988 141.8790520  81.1280375   4.6468517
 142.3360012  82.0644997  13.7019988 142.4550012  82.6384997  14.4589988
 142.9920012  81.3764997  13.8159988 142.4409757  82.0501079  13.8210825
 142.6840012  78.1594997   5.4549988 142.3380012  78.7774997   6.0999988
 143.3430012  78.6604997   4.9739988 142.7257826  78.3115802   5.4780971
 139.6080012  92.5254997   2.5269988 139.7680012  93.3244997   2.0259988
 139.4100012  92.8314997   3.4119988 139.6031649  92.6764469   2.5779815
 138.3420012  79.2224997   2.1419988 138.2590012  80.1114997   2.4889988
 139.2320012  78.9574997   2.3739988 138.4509469  79.3081430   2.2207626
 136.6010012  89.6504997   1.2029988 137.1930012  90.3494997   1.4789988
 137.0600012  89.2174997   0.4829988 136.7441142  89.6877049   1.1434830
 134.9170012  82.3144997   0.3189988 134.8720012  83.2534997   0.4969988
 134.0290012  82.0784997   0.0489988 134.7908574  82.4111892   0.3068912
 135.7250012  77.0964997   8.9919988 135.4960012  77.1554997   8.0639988
 135.2820012  76.3044997   9.2979988 135.6338530  76.9975753   8.9064786
 134.6550012  91.0364997   5.1519988 133.8230012  91.5094997   5.1799988
 135.2010012  91.5464997   4.5539988 134.6149739  91.1701871   5.0749716
 133.9430012  93.6494997  16.4819988 134.4840012  93.4324997  17.2419988
 133.4620012  92.8434997  16.2929988 133.9519345  93.5109514  16.5603076
 138.5410012  92.5684997  18.1029988 139.3080012  92.1094997  18.4439988
 138.5190012  92.3424997  17.1729988 138.6431434  92.4750409  18.0240043
 142.6330012  92.0764997  -0.5220012 141.9890012  91.4454997  -0.2010012
 143.3950012  91.5454997  -0.7540012 142.6478077  91.9182920  -0.5093989
 133.8500012  87.4594997  17.4369988 133.9940012  86.5574997  17.1499988
 133.0780012  87.7454997  16.9489988 133.7653322  87.3748261  17.3317881
 138.1920012  87.8034997  -0.4310012 138.2560012  87.0094997   0.0999988
 138.8450012  87.6844997  -1.1210012 138.2890241  87.6787148  -0.4515683
 140.5060012  87.4294997  16.8689988 140.1770012  87.7004997  16.0119988
 140.6580012  86.4884997  16.7819988 140.4814809  87.3393862  16.7398244
 143.5440012  88.8504997  -0.6950012 143.2750012  89.0304997   0.2059988
 143.3380012  87.9244997  -0.8260012 143.4793825  88.7500152  -0.5894786
 134.6830012  84.6594997  16.8569988 135.0910012  83.8024997  16.7359988
 134.4230012  84.6744997  17.7779988 134.7037568  84.5440807  16.9649588
 139.3410012  85.7754997   1.8749988 138.8810012  85.2914997   2.5609988
 139.5960012  85.1074997   1.2389988 139.3124902  85.6188731   1.8829334
 138.6300012  83.6684997  14.2309988 138.0120012  84.3434997  14.5109988
 138.9740012  83.9894997  13.3979988 138.5919615  83.8042721  14.1566581
 140.4120012  84.0184997   0.1369988 140.2320012  83.8644997  -0.7900012
 141.3620012  84.1264997   0.1819988 140.5157776  84.0120175   0.0161843
 143.6500012  86.1404997  17.5079988 144.6030012  86.2234997  17.4809988
 143.4890012  85.4284997  18.1279988 143.7586426  86.0556746  17.5880578
 138.9690012  81.0234997  15.3129988 139.1190012  80.2944997  14.7109988
 138.9720012  81.8004997  14.7539988 138.9899302  81.0287851  15.1550692
 139.3820012  79.3934997  12.8059988 139.9180012  79.8444997  12.1539988
 138.5300012  79.2854997  12.3829988 139.3402178  79.4406390  12.6595756
 140.9640012  84.8324997  13.0449988 141.7140012  84.6764997  12.4719988
 140.6250012  85.6844997  12.7699988 141.0208921  84.9262968  12.9293561
 137.4480012  82.2214997  17.2249988 136.6810012  81.6894997  17.0149988
 138.1270012  81.9114997  16.6249988 137.4347022  82.1067506  17.1151648
 140.1880012  76.8494997  13.2369988 140.0890012  77.7964997  13.1319988
 139.4450012  76.4774997  12.7619988 140.0740564  76.9285902  13.1584560
 141.4520012  81.1714997  16.8009988 141.2160012  80.9514997  17.7029988
 140.6680012  80.9644997  16.2909988 141.3138628  81.1134760  16.8553932
 144.1670012  80.2984997  15.8769988 143.2200012  80.3304997  16.0089988
 144.4800012  79.6734997  16.5299988 144.0795475  80.2183207  15.9834455
 135.6280012  80.1424997  16.9289988 135.8400012  79.4354997  16.3189988
 135.5170012  79.7044997  17.7729988 135.6419721  79.9867084  16.9596843
 140.4090012  76.1434997  15.9089988 141.1210012  75.5034997  15.8949988
 140.3080012  76.4104997  14.9949988 140.4927939  76.0919938  15.7835650
 140.7630012  77.8264997  17.9619988 140.6310012  77.3504997  17.1419988
 140.1640012  78.5704997  17.9069988 140.6639071  77.8619618  17.8422886
 140.3090012  94.7094997   1.1389988 141.2420012  94.8674997   1.2819988
 140.0450012  95.3844997   0.5139988 140.4009510  94.8223611   1.0740741
 133.8780012  89.3454997   0.6209988 134.7920012  89.4244997   0.8949988
 133.8850012  88.6584997  -0.0450012 134.0041131  89.2633961   0.5684393
 132.5270012  94.7384997   5.6989988 131.8800012  94.2764997   5.1659988
 132.8810012  94.0664997   6.2809988 132.4863849  94.5844723   5.7047959
 133.3970012  92.8194997   7.5029988 133.0620012  91.9394997   7.6749988
 133.6190012  93.1644997   8.3679988 133.3811783  92.7457500   7.6434208
 133.4770012  85.8944997   9.9549988 133.6610012  85.8124997   9.0189988
 134.3260012  85.7704997  10.3789988 133.6170139  85.8665003   9.8841455
 133.0740012  81.1654997  16.0959988 133.9940012  81.0434997  16.3319988
 132.6250012  80.4154997  16.4849988 133.1391580  81.0473727  16.1809006
 134.2950012  79.4774997   8.9869988 134.7410012  78.6854997   9.2889988
 134.7620012  80.1934997   9.4179988 134.4190172  79.4660624   9.0864820
 132.5990012  82.4764997  10.0559988 133.0910012  82.2554997   9.2649988
 132.9620012  83.3174997  10.3369988 132.7153126  82.5598357   9.9857531
 132.9130012  78.7344997   4.1099988 131.9880012  78.9434997   3.9809988
 133.3670012  79.2184997   3.4209988 132.8477368  78.8285993   3.9991226
 132.8770012  77.4724997  12.4549988 132.2120012  77.2264997  13.0979988
 132.4340012  78.0944997  11.8769988 132.7260956  77.5228632  12.4649352
 135.0690012  90.6474997  16.5989988 134.2480012  90.8224997  16.1389988
 134.8160012  90.5744997  17.5199988 134.9226164  90.6615622  16.6604923
 138.0230012  91.6224997  12.8579988 137.5980012  92.4314997  12.5749988
 138.9270012  91.7074997  12.5559988 138.0870271  91.7448469  12.7783776
 142.3340012  93.0214997  15.8169988 142.5190012  92.6874997  16.6949988
 143.1800012  93.3304997  15.4949988 142.4737539  93.0176047  15.8935605
 144.6790012  94.3074997  15.0609988 145.3560012  93.6744997  14.8209988
 145.0010012  94.7084997  15.8679988 144.8151637  94.2751154  15.1372793
 135.4250012  94.8784997  12.9049988 134.7040012  95.3184997  12.4539988
 135.0590012  94.6274997  13.7539988 135.2769804  94.9047698  12.9579840
 137.8920012  94.4784997  11.9349988 137.0270012  94.5504997  12.3389988
 137.8370012  95.0254997  11.1509988 137.7662085  94.5622685  11.8843362
 142.6020012  94.3664997  11.1099988 142.1460012  94.8954997  10.4559988
 142.7650012  94.9694997  11.8359988 142.5615585  94.5204468  11.1185062
 134.8390012  93.5014997   9.8149988 134.8210012  93.0764997  10.6729988
 135.6440012  93.1834997   9.4069988 134.9453875  93.4003812   9.8771655
 136.9810012  92.2114997   8.4699988 136.7620012  91.2954997   8.6399988
 137.8050012  92.3514997   8.9359988 137.0624420  92.1050520   8.5562774
 139.5180012  92.6814997   9.3189988 139.7310012  91.7934997   9.0319988
 139.5820012  92.6474997  10.2729988 139.5558232  92.5553102   9.4087397
 143.0260012  78.3454997   8.4629988 142.3520012  77.7164997   8.7189988
 143.5900012  77.8614997   7.8599988 143.0099230  78.1938744   8.4165340
 135.3530012  76.9794997   6.2849988 134.5760012  76.7454997   5.7779988
 135.8830012  76.1824997   6.2939988 135.3182330  76.8396988   6.2167742
 134.1890012  76.7774997   2.0889988 134.6280012  77.3884997   1.4969988
 133.5560012  77.3154997   2.5629988 134.1634514  76.9339257   2.0720930
 139.9320012  76.9064997   6.0989988 140.8070012  77.2944997   6.0689988
 139.7960012  76.6914997   7.0209988 140.0333695  76.9305184   6.2196440
 134.0900012  92.7254997   2.9869988 133.4050012  92.6874997   2.3189988
 134.0940012  93.6384997   3.2749988 133.9968193  92.8437016   2.9345284
 136.0500012  78.6934997   0.5309988 136.5420012  78.0634997   0.0039988
 136.6740012  78.9894997   1.1949988 136.2015446  78.6473199   0.5485980
 141.0760012  78.9864997   2.9879988 141.2540012  78.3404997   3.6709988
 141.0230012  79.8204997   3.4559988 141.0931829  79.0107985   3.1445940
 142.9550012  93.9354997   1.3839988 143.8210012  94.3014997   1.2059988
 142.7080012  93.4954997   0.5699988 143.0402392  93.9261756   1.2496289
 135.3110012  77.4934997  15.8029988 134.9450012  76.7284997  16.2459988
 136.2240012  77.5224997  16.0899988 135.3842790  77.3927224  15.9024070
 137.2840012  76.8444997  17.3389988 138.1820012  76.5704997  17.1539988
 136.8970012  76.1014997  17.8029988 137.3546612  76.7065914  17.3763643
 135.9080012  93.6454997   0.0119988 135.6410012  93.9324997   0.8849988
 136.6800012  93.0994997   0.1639988 135.9757488  93.6110294   0.1521050
  12.4390012 104.9914997   6.2439988  12.5280012 105.9354997   6.1119988
  11.8010012 104.7164997   5.5859988  12.3649081 105.0834830   6.1369614
  11.3720012 104.2464997   9.6629988  11.3340012 103.6004997  10.3679988
  11.0500012 103.7804997   8.8919988  11.3232333 104.0949408   9.6552978
   3.7410012 103.8614997  11.2559988   3.7820012 103.2354997  11.9789988
   4.4440012 104.4854997  11.4379988   3.8416363 103.8601196  11.3796044
  15.0780012 107.1854997   7.9639988  14.6380012 106.4654997   8.4149988
  15.0650012 107.9064997   8.5939988  15.0160226 107.1843731   8.1108494
   4.6640012 108.3114997   9.7909988   4.2950012 107.5094997   9.4209988
   5.6050012 108.1424997   9.8369988   4.7407289 108.1790153   9.7466316
   1.2740012 101.9714997   5.1839988   0.8270012 102.8174997   5.1649988
   0.7130012 101.3914997   4.6679988   1.1369900 102.0089916   5.1116801
   1.9850012 104.1334997   7.3099988   2.1980012 103.3634997   7.8369988
   2.7230012 104.2224997   6.7059988   2.1138496 104.0401394   7.3005300
  12.1900012 112.2904997   8.1769988  12.8100012 111.6134997   7.9029988
  11.9820012 112.0724997   9.0849988  12.2466904 112.1683870   8.2623365
   9.7620012 106.6794997  10.0689988  10.0660012 105.9934997   9.4739988
  10.4830012 106.7974997  10.6869988   9.9010671 106.6016305  10.0711816
  18.4250012  98.2804997  10.9299988  18.4740012  98.8904997  11.6659988
  18.8500012  98.7414997  10.2069988  18.4891824  98.4263741  10.9330205
  12.9030012 101.0734997  10.3969988  13.0450012 100.1274997  10.4169988
  12.7960012 101.2804997   9.4679988  12.9079863 100.9719534  10.2742339
   6.0570012  99.1744997   7.6689988   6.1010012 100.0344997   7.2509988
   5.6000012  98.6224997   7.0349988   6.0012185  99.2175799   7.5260299
  13.7800012  99.3054997   6.0699988  14.4260012  98.9764997   6.6949988
  14.2900012  99.8234997   5.4469988  13.9374264  99.3304611   6.0713862
   2.6780012 101.5714997   8.4309988   3.3310012 101.0214997   8.8629988
   2.7020012 101.2974997   7.5139988   2.7706683 101.4591466   8.3662123
   7.8340012 103.1214997   7.6459988   8.4500012 102.5954997   8.1559988
   7.2480012 102.4814997   7.2429988   7.8390810 102.9629208   7.6613173
  18.8160012  99.7584997  13.1659988  18.1280012 100.4164997  13.0699988
  18.8320012  99.5614997  14.1019988  18.7238525  99.8220462  13.2794808
   4.8680012  98.0924997  11.7429988   4.6490012  98.6224997  10.9769988
   4.2000012  98.3194997  12.3899988   4.7477600  98.1956906  11.7256379
  12.2370012 107.5924997   5.2869988  11.9410012 107.2704997   4.4359988
  11.9120012 108.4924997   5.3279988  12.1526371 107.6700215   5.1761801
   7.4370012 105.7684997  12.0299988   6.6970012 106.3664997  12.1339988
   8.1510012 106.3224997  11.7149988   7.4322237 105.9252831  12.0016465
  15.5440012  98.5964997   8.0499988  15.3280012  97.8304997   8.5829988
  16.1990012  99.0684997   8.5629988  15.6030632  98.5555889   8.1922861
   4.4610012  99.9844997   9.6949988   5.0750012 100.6174997  10.0689988
   4.9730012  99.5124997   9.0389988   4.6142296 100.0072370   9.6574252
   5.8440012 107.7324997  12.8179988   5.8390012 108.6124997  12.4399988
   4.9910012 107.6494997  13.2429988   5.7279464 107.8416117  12.8237907
   1.9650012 107.4034997   3.5999988   1.6930012 107.6324997   2.7109988
   2.0110012 108.2414997   4.0599988   1.9340094 107.5481213   3.5405697
  15.5900012 109.0254997  10.3119988  14.6490012 109.0834997  10.4739988
  15.8670012 109.9314997  10.1749988  15.4984679 109.1559443  10.3156815
  15.8910012  97.3114997  11.7299988  15.1550012  97.9224997  11.6919988
  16.5740012  97.7264997  11.2029988  15.8826541  97.4511374  11.6535832
   8.8940012  95.3984997   9.1959988   8.7770012  94.4494997   9.1409988
   8.0390012  95.7304997   9.4689988   8.7623733  95.3135409   9.2253897
  13.8420012 110.8064997   6.9379988  14.2680012 110.0994997   6.4529988
  14.1590012 111.6074997   6.5209988  13.9431019 110.8180994   6.8153130
  15.0020012 108.7074997   5.4459988  14.7440012 108.0174997   4.8349988
  15.0730012 108.2644997   6.2919988  14.9762856 108.5532124   5.4766885
  16.6880012 107.2734997  13.9239988  16.8280012 106.6824997  13.1839988
  16.8550012 108.1464997  13.5669988  16.7296778 107.3106426  13.7746965
  11.1610012 104.2354997   3.6959988  10.4490012 104.7704997   3.3439988
  11.8520012 104.2914997   3.0359988  11.1570132 104.3162543   3.5586289
  11.2140012 102.6934997   0.7349988  11.9150012 102.7154997   1.3859988
  11.5170012 102.0654997   0.0789988  11.3507830 102.6116566   0.7353711
  18.5300012 103.6134997  11.9899988  17.8770012 104.3084997  12.0789988
  18.9950012 103.8234997  11.1799988  18.5035390 103.7369425  11.8926883
  14.5660012 104.4454997   4.6479988  13.8340012 104.6734997   5.2209988
  15.0140012 103.7314997   5.1029988  14.5263095 104.3802571   4.7879119
  14.4640012 102.6194997  13.7149988  14.5440012 103.3824997  14.2869988
  13.8620012 102.8984997  13.0249988  14.3935756 102.7617134  13.7000589
   6.2120012 105.0754997   6.5299988   5.8810012 104.7054997   5.7119988
   6.8000012 104.4054997   6.8769988   6.2461873 104.9341156   6.4648102
   7.5780012 108.5034997   9.2119988   7.4840012 107.9254997   8.4549988
   8.3080012 108.1324997   9.7079988   7.6637981 108.3742390   9.1754165
   6.5780012 103.8444997  10.1639988   7.1440012 103.9654997   9.4009988
   6.8970012 104.4814997  10.8029988   6.6985786 103.9471884  10.1460040
  12.8870012 109.3474997  10.8979988  12.6470012 110.0094997  11.5459988
  12.6890012 108.5134997  11.3229988  12.8273808 109.3253134  11.0441524
   7.4580012 108.2434997  14.8809988   7.1470012 109.0254997  15.3359988
   6.8080012 108.0904997  14.1949988   7.3275558 108.3299105  14.8505871
  13.4370012 103.6074997   2.3329988  14.0170012 103.7574997   3.0799988
  13.8510012 104.0784997   1.6099988  13.5722830 103.6916841   2.3374134
   4.3780012 104.4414997  14.1099988   4.4490012 105.0924997  14.8079988
   3.4880012 104.5444997  13.7749988   4.2673117 104.5445936  14.1602700
  11.1640012 110.3444997   5.7679988  11.6380012 110.6394997   6.5459988
  10.6010012 111.0824997   5.5349988  11.1527653 110.4846932   5.8430136
   5.6980012 110.3154997  15.6439988   5.7050012 110.1794997  14.6969988
   4.7820012 110.1974997  15.8959988   5.5751714 110.2809430  15.5484666
  17.1360012  95.3574997   2.1459988  16.2360012  95.4964997   2.4409988
  17.3880012  96.1884997   1.7439988  17.0468702  95.4889074   2.1320205
   5.2020012 104.1454997   4.1199988   4.9100012 104.9134997   3.6289988
   4.5280012 103.4854997   3.9569988   5.0709081 104.1614406   4.0307340
  18.3250012 109.7234997   0.5219988  18.3990012 110.6624997   0.6929988
  19.2310012 109.4184997   0.4659988  18.4575100 109.8106722   0.5378119
   1.2950012 106.5084997  12.9349988   0.7940012 106.4804997  12.1199988
   1.3000012 105.6024997  13.2439988   1.2271526 106.3822278  12.8652872
   1.0450012 109.2884997   9.8189988   1.9910012 109.1444997   9.7999988
   0.9330012 110.0724997  10.3559988   1.1592727 109.3748046   9.8890072
  19.2430012 109.9544997  15.5009988  19.1940012 108.9994997  15.4639988
  18.4160012 110.2224997  15.9019988  19.1244940 109.8598998  15.5501375
  10.2220012 109.5284997  14.3769988  10.3090012 110.3544997  14.8519988
   9.3580012 109.1984997  14.6259988  10.1171964 109.5969878  14.4756549
  10.6360012 113.3004997   4.1829988  10.5610012 113.1794997   3.2369988
  10.6690012 114.2504997   4.3019988  10.6301848 113.4122500   4.0694834
   4.2890012 112.0894997   5.9639988   4.4420012 111.7414997   6.8429988
   3.4390012 111.7334997   5.7089988   4.1948962 111.9936650   6.0498340
  13.7380012 112.4544997   1.1849988  14.1130012 111.7104997   0.7149988
  13.7420012 112.1844997   2.1039988  13.7898915 112.3161486   1.2447824
  13.4070012 112.3804997   3.9349988  12.4710012 112.4804997   4.1129988
  13.6870012 111.6714997   4.5129988  13.3168255 112.2982711   4.0375391
  16.3950012 101.4474997  15.9809988  15.9880012 101.9284997  15.2599988
  16.4360012 100.5424997  15.6729988  16.3448437 101.3909374  15.8406683
   3.5440012 107.8314997  13.9779988   3.7600012 107.4704997  14.8369988
   2.6890012 107.4574997  13.7679988   3.4579292 107.7314111  14.0673386
   6.1630012  96.3014997   9.9729988   5.3010012  96.2144997   9.5659988
   6.1400012  97.1574997  10.4009988   6.0420330  96.4052765   9.9751863
  10.8260012  96.0234997  13.3479988  11.2460012  95.6084997  14.1009988
   9.8930012  95.8454997  13.4649988  10.7573644  95.9425900  13.4669539
  14.1520012  99.7794997  14.2009988  13.6380012  99.6534997  14.9989988
  13.9970012 100.6914997  13.9569988  14.0606852  99.8856132  14.2772158
  14.9150012 104.6404997  -0.0370012  14.9570012 104.4174997  -0.9670012
  15.7640012 105.0394997   0.1529988  15.0355396 104.6639155  -0.1386373
  10.4870012  98.5164997   0.6329988  10.2340012  98.5354997   1.5559988
  10.2310012  97.6444997   0.3319988  10.4177790  98.4012437   0.7186263
   6.2540012 101.2674997  11.0679988   5.6120012 101.2264997  11.7769988
   6.2910012 102.1934997  10.8309988   6.1711324 101.3871559  11.1329824
   6.2510012 101.4884997   5.9799988   5.3580012 101.1474997   5.9219988
   6.7010012 101.1114997   5.2249988   6.1897305 101.3908484   5.8699177
  11.7860012 101.9044997   4.7969988  11.3770012 102.7194997   4.5059988
  12.5070012 101.7644997   4.1829988  11.8274537 101.9972018   4.6741342
  10.8880012 102.0794997  16.2849988  10.3260012 101.3754997  16.6059988
  11.7150012 101.9594997  16.7529988  10.9227095 101.9667883  16.3922330
  12.7910012 101.3504997   7.6109988  12.5960012 101.9554997   6.8959988
  12.9720012 100.5164997   7.1769988  12.7887614 101.3206300   7.4544405
   4.0040012 101.5874997  12.9349988   3.9660012 101.9874997  13.8039988
   3.5130012 100.7704997  13.0259988   3.9324684 101.5318069  13.0661059
   7.3700012  98.9614997  -0.2660012   6.9390012  98.5164997   0.4639988
   6.6520012  99.3334997  -0.7780012   7.2139438  98.9508940  -0.2353201
   0.6120012  98.7034997   6.7859988   1.2430012  98.6744997   7.5049988
   1.0610012  98.2784997   6.0559988   0.7590774  98.6420492   6.7856553
   1.8860012  99.4494997   2.2099988   2.3600012 100.0404997   1.6249988
   1.1690012  99.9804997   2.5569988   1.8539341  99.6020867   2.1768836
  12.0550012 102.9884997  12.2829988  12.3780012 102.3574997  11.6399988
  11.6150012 102.4534997  12.9429988  12.0396895 102.8298441  12.2842850
   8.8320012  98.9154997   7.0669988   7.9210012  98.9724997   7.3549988
   9.3380012  98.8554997   7.8769988   8.7755413  98.9151985   7.2160622
   3.6610012 100.5444997   5.8929988   2.7710012 100.6444997   5.5529988
   3.9570012  99.7024997   5.5469988   3.5792823 100.4443545   5.7997213
   7.3140012 100.5444997   3.5499988   8.2450012 100.6734997   3.7279988
   7.0990012 101.2144997   2.8999988   7.4124247 100.6526565   3.4865747
  13.2370012  98.1504997  10.3309988  12.5610012  98.2814997  10.9949988
  12.7520012  97.9954997   9.5209988  13.0787145  98.1474905  10.3124517
   5.9880012 101.7394997   1.1169988   5.4450012 101.3594997   0.4249988
   6.8210012 101.9334997   0.6879988   6.0264399 101.7138124   0.9644526
  16.5250012 113.8224997  16.6079988  16.7250012 114.2464997  15.7729988
  17.1800012 114.1654997  17.2149988  16.6410051 113.9269648  16.5757836
   4.1230012 106.2964997  16.2159988   4.8550012 106.5504997  16.7769988
   3.3430012 106.5004997  16.7309988   4.1178232 106.3589177  16.3625760
  10.1520012 101.7034997   8.9539988  10.7170012 101.1564997   8.4069988
  10.0050012 101.1814997   9.7419988  10.2092918 101.5582024   8.9858454
   5.1540012  97.8394997   5.3719988   4.8370012  96.9374997   5.3369988
   5.9360012  97.8414997   4.8189988   5.2162284  97.7161628   5.2924783
   8.7790012 100.0914997  11.3679988   7.9430012 100.5454997  11.4779988
   9.3030012 100.3674997  12.1199988   8.7354414 100.1909376  11.4847136
   9.3230012 106.3044997   3.0519988   8.5780012 105.7974997   2.7299988
   9.1890012 106.3534997   3.9989988   9.2028776 106.2416940   3.1358647
  16.4730012 105.4374997  11.8389988  17.1150012 105.8944997  11.2949988
  15.6430012 105.5504997  11.3759988  16.4485963 105.5152704  11.7020177
  13.2210012  99.1184997   1.2519988  12.2820012  99.2304997   1.0999988
  13.5180012  99.9754997   1.5579988  13.1327666  99.2496443   1.2725768
  10.8420012 106.4884997  14.2889988  10.4970012 106.1074997  15.0959988
  10.6420012 107.4224997  14.3609988  10.7678061 106.5625228  14.4090961
  13.9390012 100.9854997   2.9119988  14.8310012 100.8484997   3.2309988
  13.9960012 101.7764997   2.3759988  14.0686285 101.0736660   2.8831690
   4.4480012 105.5994997   8.8219988   5.1930012 105.5974997   8.2209988
   4.5260012 104.7764997   9.3039988   4.5605518 105.4879315   8.8048929
  11.4490012 107.7634997   2.0779988  11.1530012 108.5894997   2.4589988
  10.7460012 107.1434997   2.2739988  11.3134914 107.7928199   2.1566443
   1.4560012 104.0604997  14.1369988   1.6790012 103.6424997  14.9689988
   0.8540012 103.4474997  13.7139988   1.4051759 103.9204668  14.1937022
   8.4720012 103.5774997  16.3499988   8.1760012 103.4114997  15.4549988
   9.4040012 103.3574997  16.3389988   8.5574166 103.5250640  16.2260536
  13.0930012 108.9504997  14.2399988  12.1920012 109.1334997  13.9719988
  13.1270012 109.2094997  15.1609988  12.9743041 109.0105512  14.3278197
  18.8240012 101.1954997   2.6069988  18.2700012 100.7994997   1.9349988
  18.9240012 102.1054997   2.3289988  18.7617059 101.2643586   2.4774401
  18.7870012 106.9954997  15.4439988  17.9360012 107.2334997  15.0769988
  19.3780012 106.9784997  14.6909988  18.7502487 107.0258258  15.2918893
  17.1190012 109.9814997   3.0719988  16.7460012 109.1554997   3.3809988
  17.3970012 109.7984997   2.1749988  17.1055630 109.8437303   2.9929626
  14.2800012 104.7894997  10.0929988  13.3510012 104.5574997  10.0659988
  14.7310012 104.0124997   9.7629988  14.2139216 104.6527238  10.0446917
   6.8230012 109.1174997   6.2259988   7.3500012 109.8904997   6.0259988
   5.9430012 109.3424997   5.9249988   6.7761773 109.2538005   6.1579010
   2.5780012 103.9794997   0.8129988   3.1940012 104.6064997   1.1929988
   1.7160012 104.2954997   1.0849988   2.5457698 104.1079430   0.9017183
   8.2500012 106.7804997   5.8029988   8.0090012 107.7054997   5.8439988
   7.5090012 106.3214997   6.1989988   8.1168409 106.8451421   5.8621377
   8.7650012 110.9294997  12.1179988   9.1270012 111.7844997  11.8839988
   9.2960012 110.6374997  12.8579988   8.8864473 111.0071060  12.1860855
   6.9330012 111.8024997   5.3479988   5.9830012 111.9074997   5.3989988
   7.2850012 112.6224997   5.6929988   6.8504203 111.9278314   5.4016650
  12.3090012 107.0284997  11.8179988  11.8830012 106.8014997  12.6449988
  12.8890012 106.2904997  11.6359988  12.3291868 106.8975299  11.9065830
  14.5120012 107.9574997   0.8919988  14.8650012 107.5774997   1.6969988
  13.5630012 107.8644997   0.9789988  14.4320441 107.8929596   1.0138559
  14.9670012 111.5804997  14.2879988  14.3660012 111.0254997  13.7919988
  15.2490012 112.2474997  13.6619988  14.9228519 111.5946841  14.1354952
  19.0150012 112.4374997   1.0929988  19.7590012 113.0234997   0.9529988
  18.3210012 113.0054997   1.4269988  19.0230292 112.5945582   1.1189961
   3.0900012  98.8134997  13.6949988   2.1970012  99.1524997  13.6269988
   2.9910012  97.9584997  14.1129988   2.9544164  98.7442588  13.7422235
  15.3780012 106.6304997   3.1189988  15.1000012 105.9024997   3.6749988
  16.3050012 106.7494997   3.3239988  15.4653124 106.5468802   3.2228845
   2.7410012 110.6184997  12.1299988   2.9580012 109.6864997  12.0989988
   2.9870012 110.8924997  13.0129988   2.8039549 110.5280636  12.2451763
   8.6030012 109.0694997  -0.6610012   8.8420012 108.3214997  -1.2080012
   8.3340012 108.6814997   0.1719988   8.5993675 108.9146638  -0.6233135
   7.5400012 108.6394997   1.7959988   7.6860012 108.1194997   2.5859988
   7.5370012 109.5464997   2.1019988   7.5595989 108.6908853   1.9456088
   3.9930012 105.8924997   2.3059988   3.3070012 106.2444997   2.8729988
   4.5150012 106.6554997   2.0589988   3.9696852 106.0438578   2.3502118
  11.8240012  98.5544997  12.5849988  12.5230012  98.6284997  13.2349988
  11.4430012  97.6904997  12.7389988  11.8681767  98.4477624  12.6948322
  12.6090012  98.2064997   3.6819988  12.8290012  98.6784997   2.8789988
  13.1670012  98.6014997   4.3519988  12.7144968  98.3244285   3.6627331
  10.2770012 110.3374997   2.5449988   9.4610012 110.8344997   2.5969988
  10.8070012 110.8124997   1.9049988  10.2369161 110.4697722   2.4655956
   9.8090012  99.9344997   4.5169988  10.6210012 100.4394997   4.5629988
   9.5640012  99.7894997   5.4309988   9.8870520  99.9840375   4.6468517
  10.3440012 100.9204997  13.7019988  10.4630012 101.4944997  14.4589988
  11.0000012 100.2324997  13.8159988  10.4489757 100.9061079  13.8210825
  10.6920012  97.0154997   5.4549988  10.3460012  97.6334997   6.0999988
  11.3510012  97.5164997   4.9739988  10.7337826  97.1675802   5.4780971
   7.6160012 111.3814997   2.5269988   7.7760012 112.1804997   2.0259988
   7.4180012 111.6874997   3.4119988   7.6111649 111.5324469   2.5779815
   6.3500012  98.0784997   2.1419988   6.2670012  98.9674997   2.4889988
   7.2400012  97.8134997   2.3739988   6.4589469  98.1641430   2.2207626
  16.5490012  98.8274997  14.5369988  15.6320012  99.0904997  14.4489988
  16.8840012  98.8244997  13.6399988  16.4689900  98.8630224  14.4037919
  15.1510012 102.5784997   8.6319988  14.3530012 102.1634997   8.3039988
  15.5960012 101.8874997   9.1229988  15.1019885 102.4283543   8.6534889
   4.6090012 108.5064997   1.2029988   5.2010012 109.2054997   1.4789988
   5.0680012 108.0734997   0.4829988   4.7521142 108.5437049   1.1434830
   2.9250012 101.1704997   0.3189988   2.8800012 102.1094997   0.4969988
   2.0370012 100.9344997   0.0489988   2.7988574 101.2671892   0.3068912
  16.2370012 111.8344997  10.2549988  16.0820012 112.5124997   9.5979988
  17.1700012 111.9064997  10.4579988  16.3418500 111.9370170  10.1925119
   3.7330012  95.9524997   8.9919988   3.5040012  96.0114997   8.0639988
   3.2900012  95.1604997   9.2979988   3.6418530  95.8535753   8.9064786
   2.6630012 109.8924997   5.1519988   1.8310012 110.3654997   5.1799988
   3.2090012 110.4024997   4.5539988   2.6229739 110.0261871   5.0749716
   1.9510012 112.5054997  16.4819988   2.4920012 112.2884997  17.2419988
   1.4700012 111.6994997  16.2929988   1.9599345 112.3669514  16.5603076
   6.5490012 111.4244997  18.1029988   7.3160012 110.9654997  18.4439988
   6.5270012 111.1984997  17.1729988   6.6511434 111.3310409  18.0240043
  10.6410012 110.9324997  -0.5220012   9.9970012 110.3014997  -0.2010012
  11.4030012 110.4014997  -0.7540012  10.6558077 110.7742920  -0.5093989
  13.1260012 109.8044997  16.8319988  12.7750012 108.9484997  17.0749988
  13.8520012 109.9474997  17.4389988  13.1760769 109.7065636  16.9473619
  15.2450012 110.7494997  -0.2880012  15.5280012 109.9554997   0.1639988
  15.9850012 110.9824997  -0.8490012  15.3837486 110.6722803  -0.3019302
   1.8580012 106.3154997  17.4369988   2.0020012 105.4134997  17.1499988
   1.0860012 106.6014997  16.9489988   1.7733323 106.2308261  17.3317881
   6.2000012 106.6594997  -0.4310012   6.2640012 105.8654997   0.0999988
   6.8530012 106.5404997  -1.1210012   6.2970241 106.5347148  -0.4515683
   8.5140012 106.2854997  16.8689988   8.1850012 106.5564997  16.0119988
   8.6660012 105.3444997  16.7819988   8.4894809 106.1953862  16.7398244
  11.5520012 107.7064997  -0.6950012  11.2830012 107.8864997   0.2059988
  11.3460012 106.7804997  -0.8260012  11.4873825 107.6060152  -0.5894786
  14.2480012 106.2014997  14.2529988  14.9940012 106.7894997  14.1329988
  13.4910012 106.7834997  14.3159988  14.2477554 106.3607011  14.2450907
   2.6910012 103.5154997  16.8569988   3.0990012 102.6584997  16.7359988
   2.4310012 103.5304997  17.7779988   2.7117568 103.4000807  16.9649588
   7.3490012 104.6314997   1.8749988   6.8890012 104.1474997   2.5609988
   7.6040012 103.9634997   1.2389988   7.3204902 104.4748731   1.8829334
   6.6380012 102.5244997  14.2309988   6.0200012 103.1994997  14.5109988
   6.9820012 102.8454997  13.3979988   6.5999615 102.6602721  14.1566581
   8.4200012 102.8744997   0.1369988   8.2400012 102.7204997  -0.7900012
   9.3700012 102.9824997   0.1819988   8.5237776 102.8680175   0.0161843
  11.6580012 104.9964997  17.5079988  12.6110012 105.0794997  17.4809988
  11.4970012 104.2844997  18.1279988  11.7666426 104.9116746  17.5880579
  17.8100012 105.2294997  -0.4170012  17.5360012 104.8044997  -1.2300012
  17.8490012 106.1604997  -0.6340012  17.7777699 105.2972484  -0.5576390
   6.9770012  99.8794997  15.3129988   7.1270012  99.1504997  14.7109988
   6.9800012 100.6564997  14.7539988   6.9979302  99.8847851  15.1550692
   7.3900012  98.2494997  12.8059988   7.9260012  98.7004997  12.1539988
   6.5380012  98.1414997  12.3829988   7.3482178  98.2966390  12.6595756
   8.9720012 103.6884997  13.0449988   9.7220012 103.5324997  12.4719988
   8.6330012 104.5404997  12.7699988   9.0288921 103.7822968  12.9293561
  13.3870012 101.5034997  18.0739988  13.5800012 100.5724997  17.9619988
  14.2450012 101.9284997  18.0639988  13.5293020 101.4336389  18.0573361
  14.7040012 104.2924997  16.1509988  14.4230012 105.0014997  15.5739988
  15.6470012 104.2194997  15.9999988  14.7929027 104.3797646  16.0515551
   5.4560012 101.0774997  17.2249988   4.6890012 100.5454997  17.0149988
   6.1350012 100.7674997  16.6249988   5.4427022 100.9627506  17.1151648
   8.1960012  95.7054997  13.2369988   8.0970012  96.6524997  13.1319988
   7.4530012  95.3334997  12.7619988   8.0820564  95.7845902  13.1584560
   9.4600012 100.0274997  16.8009988   9.2240012  99.8074997  17.7029988
   8.6760012  99.8204997  16.2909988   9.3218628  99.9694760  16.8553932
  12.1750012  99.1544997  15.8769988  11.2280012  99.1864997  16.0089988
  12.4880012  98.5294997  16.5299988  12.0875475  99.0743207  15.9834455
  13.8090012  97.7884997  17.8819988  13.7130012  96.8364997  17.8759988
  13.4880012  98.0574997  18.7419988  13.7524070  97.6944035  17.9975441
   3.6360012  98.9984997  16.9289988   3.8480012  98.2914997  16.3189988
   3.5250012  98.5604997  17.7729988   3.6499721  98.8427084  16.9596843
   8.4170012  94.9994997  15.9089988   9.1290012  94.3594997  15.8949988
   8.3160012  95.2664997  14.9949988   8.5007939  94.9479938  15.7835650
   8.7710012  96.6824997  17.9619988   8.6390012  96.2064997  17.1419988
   8.1720012  97.4264997  17.9069988   8.6719071  96.7179618  17.8422886
   8.3170012 113.5654997   1.1389988   9.2500012 113.7234997   1.2819988
   8.0530012 114.2404997   0.5139988   8.4089510 113.6783611   1.0740741
   1.8860012 108.2014997   0.6209988   2.8000012 108.2804997   0.8949988
   1.8930012 107.5144997  -0.0450012   2.0121131 108.1193961   0.5684393
   0.5350012 113.5944997   5.6989988  -0.1119988 113.1324997   5.1659988
   0.8890012 112.9224997   6.2809988   0.4943849 113.4404723   5.7047959
   1.4050012 111.6754997   7.5029988   1.0700012 110.7954997   7.6749988
   1.6270012 112.0204997   8.3679988   1.3891783 111.6017501   7.6434208
  18.9530012 112.4844997  10.4839988  18.9320012 112.6694997  11.4229988
  19.6440012 113.0534997  10.1429988  19.0434618 112.5866606  10.5663864
  18.5170012 112.0524997  13.4059988  18.0290012 111.3164997  13.0349988
  19.0660012 111.6584997  14.0839988  18.5244872 111.8986249  13.4469160
  16.9670012 107.8414997  18.0439988  16.1010012 107.7364997  18.4379988
  17.3440012 108.6004997  18.4899988  16.8993308 107.9296900  18.1582393
  18.2680012 106.0984997   3.5579988  19.1180012 106.5194997   3.6849988
  18.2740012 105.3584997   4.1649988  18.3851372 106.0560803   3.6574344
  18.6630012 104.1514997   5.3819988  17.9360012 103.6724997   5.7789988
  19.2440012 104.3574997   6.1139988  18.6419375 104.1137090   5.5354129
  18.4220012 106.9364997  10.3289988  19.2550012 106.5584997  10.0489988
  18.5340012 107.8794997  10.2099988  18.5512647 107.0122218  10.2745487
  16.9080012 109.8144997  12.6359988  16.2610012 110.1394997  13.2619988
  16.3910012 109.3744997  11.9619988  16.7494029 109.7995004  12.6305827
  18.9310012 104.0524997   1.7729988  18.4090012 104.4094997   1.0539988
  18.8980012 104.7274997   2.4509988  18.8551634 104.1925413   1.7663145
  17.2800012 101.2924997   0.3239988  17.3760012 101.9594997  -0.3570012
  17.1400012 100.4764997  -0.1580012  17.2742135 101.2734500   0.1658491
  16.4490012 102.6724997   5.9449988  16.2990012 101.7274997   5.9239988
  16.0960012 102.9534997   6.7879988  16.3806625 102.5810441   6.0562346
   1.4850012 104.7504997   9.9549988   1.6690012 104.6684997   9.0189988
   2.3340012 104.6264997  10.3789988   1.6250139 104.7225003   9.8841455
  17.3060012 104.6424997  15.5829988  17.8890012 103.9084997  15.7749988
  17.8700012 105.4144997  15.6299988  17.4619769 104.6464227  15.6156159
  18.8020012 102.5454997  16.2679988  17.9390012 102.1664997  16.1019988
  19.4070012 101.8064997  16.1939988  18.7655979 102.3938023  16.2352817
  16.5270012  98.7004997  -0.5590012  17.1380012  98.3294997   0.0779988
  15.6910012  98.2794997  -0.3630012  16.4975032  98.5927554  -0.4452965
  16.1600012 100.2554997   4.4069988  16.4400012  99.3484997   4.5309988
  16.9190012 100.6894997   4.0179988  16.3009277 100.1900942   4.3713682
  16.7720012 100.8364997   9.8429988  17.7050012 101.0484997   9.8089988
  16.5370012 100.9384997  10.7649988  16.8678036 100.8792769   9.9629976
  16.8010012 101.5734997  12.6189988  15.9580012 101.8414997  12.9849988
  17.2430012 102.3954997  12.4079988  16.7454158 101.7213291  12.6405491
   1.0820012 100.0214997  16.0959988   2.0020012  99.8994997  16.3319988
   0.6330012  99.2714997  16.4849988   1.1471580  99.9033727  16.1809006
  19.0840012  95.5534997  17.9719988  19.4340012  94.8994997  17.3669988
  19.2310012  96.3904997  17.5329988  19.1518419  95.5771591  17.8297118
  16.7730012  97.5184997   4.4549988  16.9560012  97.0694997   5.2809988
  16.1740012  96.9334997   3.9919988  16.7170202  97.3779975   4.5053275
   2.3030012  98.3334997   8.9869988   2.7490012  97.5414997   9.2889988
   2.7700012  99.0494997   9.4179988   2.4270172  98.3220624   9.0864820
   0.6070012 101.3324997  10.0559988   1.0990012 101.1114997   9.2649988
   0.9700012 102.1734997  10.3369988   0.7233126 101.4158357   9.9857531
  18.6040012  97.6624997  16.3219988  17.6860012  97.9334997  16.2859988
  18.7270012  97.1274997  15.5369988  18.4951066  97.6272892  16.2110487
  18.6400012  97.5854997   0.9829988  19.0520012  96.8644997   0.5079988
  19.3220012  98.2554997   1.0419988  18.7885885  97.5772368   0.9258915
   0.9210012  97.5904997   4.1099988  -0.0039988  97.7994997   3.9809988
   1.3750012  98.0744997   3.4209988   0.8557368  97.6845994   3.9991226
  15.6920012 112.5744997   6.0559988  16.3440012 112.2274997   5.4479988
  16.2020012 113.0634997   6.7019988  15.8502637 112.5930597   6.0600236
   0.8850012  96.3284997  12.4549988   0.2200012  96.0824997  13.0979988
   0.4420012  96.9504997  11.8769988   0.7340956  96.3788632  12.4649352
   3.0770012 109.5034997  16.5989988   2.2560012 109.6784997  16.1389988
   2.8240012 109.4304997  17.5199988   2.9306164 109.5175622  16.6604923
   6.0310012 110.4784997  12.8579988   5.6060012 111.2874997  12.5749988
   6.9350012 110.5634997  12.5559988   6.0950271 110.6008469  12.7783776
  10.3420012 111.8774997  15.8169988  10.5270012 111.5434997  16.6949988
  11.1880012 112.1864997  15.4949988  10.4817539 111.8736047  15.8935605
  12.6870012 113.1634997  15.0609988  13.3640012 112.5304997  14.8209988
  13.0090012 113.5644997  15.8679988  12.8231637 113.1311154  15.1372793
  17.6040012  95.7524997  14.1409988  16.7920012  96.0774997  13.7529988
  17.8370012  94.9924997  13.6079988  17.5243423  95.6942436  14.0158253
   3.4330012 113.7344997  12.9049988   2.7120012 114.1744997  12.4539988
   3.0670012 113.4834997  13.7539988   3.2849804 113.7607698  12.9579840
   5.9000012 113.3344997  11.9349988   5.0350012 113.4064997  12.3389988
   5.8450012 113.8814997  11.1509988   5.7742085 113.4182685  11.8843362
  10.6100012 113.2224997  11.1099988  10.1540012 113.7514997  10.4559988
  10.7730012 113.8254997  11.8359988  10.5695585 113.3764468  11.1185062
  12.9380012 112.1004997  12.0549988  12.0330012 112.2654997  11.7899988
  13.3670012 112.9534997  11.9899988  12.8720799 112.2384483  12.0099182
  15.5420012 113.6704997  12.3499988  15.3600012 114.5864997  12.1399988
  15.7190012 113.2604997  11.5039988  15.5410210 113.7404822  12.2067885
   2.8470012 112.3574997   9.8149988   2.8290012 111.9324997  10.6729988
   3.6520012 112.0394997   9.4069988   2.9533875 112.2563812   9.8771655
   4.9890012 111.0674997   8.4699988   4.7700012 110.1514997   8.6399988
   5.8130012 111.2074997   8.9359988   5.0704420 110.9610520   8.5562774
   7.5260012 111.5374997   9.3189988   7.7390012 110.6494997   9.0319988
   7.5900012 111.5034997  10.2729988   7.5638232 111.4113102   9.4087397
  11.0340012  97.2014997   8.4629988  10.3600012  96.5724997   8.7189988
  11.5980012  96.7174997   7.8599988  11.0179230  97.0498744   8.4165340
  16.1770012  95.3094997   8.5759988  16.7810012  95.8564997   8.0739988
  15.3070012  95.6284997   8.3359988  16.1421241  95.4275806   8.4747654
  17.9040012  96.4474997   6.9089988  18.5160012  95.9334997   6.3829988
  18.2860012  97.3254997   6.9329988  18.0394540  96.4957140   6.8401830
   3.3610012  95.8354997   6.2849988   2.5840012  95.6014997   5.7779988
   3.8910012  95.0384997   6.2939988   3.3262330  95.6956988   6.2167742
   2.1970012  95.6334997   2.0889988   2.6360012  96.2444997   1.4969988
   1.5640012  96.1714997   2.5629988   2.1714514  95.7899257   2.0720930
   7.9400012  95.7624997   6.0989988   8.8150012  96.1504997   6.0689988
   7.8040012  95.5474997   7.0209988   8.0413695  95.7865184   6.2196440
  13.4970012  95.7924997   7.7479988  13.5730012  95.8874997   6.7979988
  13.2220012  94.8844997   7.8769988  13.4702321  95.6827867   7.6355079
  14.8500012  95.8184997   3.4399988  14.1480012  96.4334997   3.2309988
  14.4060012  94.9804997   3.5709988  14.6936330  95.7895783   3.4290328
   2.0980012 111.5814997   2.9869988   1.4130012 111.5434997   2.3189988
   2.1020012 112.4944997   3.2749988   2.0048193 111.6997016   2.9345284
   4.0580012  97.5494997   0.5309988   4.5500012  96.9194997   0.0039988
   4.6820012  97.8454997   1.1949988   4.2095446  97.5033199   0.5485980
   9.0840012  97.8424997   2.9879988   9.2620012  97.1964997   3.6709988
   9.0310012  98.6764997   3.4559988   9.1011829  97.8667985   3.1445940
  10.9630012 112.7914997   1.3839988  11.8290012 113.1574997   1.2059988
  10.7160012 112.3514997   0.5699988  11.0482392 112.7821756   1.2496289
  17.6720012 112.3544997   4.0629988  17.4770012 111.6064997   3.4979988
  17.6330012 113.1124997   3.4799988  17.6400380 112.3546099   3.9068384
   3.3190012  96.3494997  15.8029988   2.9530012  95.5844997  16.2459988
   4.2320012  96.3784997  16.0899988   3.3922790  96.2487224  15.9024070
   5.2920012  95.7004997  17.3389988   6.1900012  95.4264997  17.1539988
   4.9050012  94.9574997  17.8029988   5.3626612  95.5625914  17.3763643
   3.9160012 112.5014997   0.0119988   3.6490012 112.7884997   0.8849988
   4.6880012 111.9554997   0.1639988   3.9837488 112.4670294   0.1521050
  13.7130012  95.0324997  17.5209988  13.7900012  94.6064997  18.3749988
  14.6070012  95.0464997  17.1779988  13.8443428  94.9760879  17.5915310
  16.8890012 111.1054997  16.2129988  16.1070012 110.9194997  15.6939988
  16.8170012 112.0344997  16.4309988  16.7721777 111.2056492  16.1714048
  31.2950012 104.9914997   6.2439988  31.3840012 105.9354997   6.1119988
  30.6570012 104.7164997   5.5859988  31.2209081 105.0834830   6.1369614
  30.2280012 104.2464997   9.6629988  30.1900012 103.6004997  10.3679988
  29.9060012 103.7804997   8.8919988  30.1792333 104.0949408   9.6552978
  22.5970012 103.8614997  11.2559988  22.6380012 103.2354997  11.9789988
  23.3000012 104.4854997  11.4379988  22.6976363 103.8601196  11.3796044
  33.9340012 107.1854997   7.9639988  33.4940012 106.4654997   8.4149988
  33.9210012 107.9064997   8.5939988  33.8720226 107.1843731   8.1108494
  23.5200012 108.3114997   9.7909988  23.1510012 107.5094997   9.4209988
  24.4610012 108.1424997   9.8369988  23.5967289 108.1790153   9.7466316
  20.1300012 101.9714997   5.1839988  19.6830012 102.8174997   5.1649988
  19.5690012 101.3914997   4.6679988  19.9929900 102.0089916   5.1116801
  20.8410012 104.1334997   7.3099988  21.0540012 103.3634997   7.8369988
  21.5790012 104.2224997   6.7059988  20.9698496 104.0401394   7.3005300
  31.0460012 112.2904997   8.1769988  31.6660012 111.6134997   7.9029988
  30.8380012 112.0724997   9.0849988  31.1026904 112.1683870   8.2623365
  28.6180012 106.6794997  10.0689988  28.9220012 105.9934997   9.4739988
  29.3390012 106.7974997  10.6869988  28.7570671 106.6016305  10.0711816
  37.2810012  98.2804997  10.9299988  37.3300012  98.8904997  11.6659988
  37.7060012  98.7414997  10.2069988  37.3451824  98.4263741  10.9330205
  31.7590012 101.0734997  10.3969988  31.9010012 100.1274997  10.4169988
  31.6520012 101.2804997   9.4679988  31.7639863 100.9719534  10.2742339
  24.9130012  99.1744997   7.6689988  24.9570012 100.0344997   7.2509988
  24.4560012  98.6224997   7.0349988  24.8572185  99.2175799   7.5260299
  32.6360012  99.3054997   6.0699988  33.2820012  98.9764997   6.6949988
  33.1460012  99.8234997   5.4469988  32.7934264  99.3304611   6.0713862
  21.5340012 101.5714997   8.4309988  22.1870012 101.0214997   8.8629988
  21.5580012 101.2974997   7.5139988  21.6266683 101.4591466   8.3662123
  26.6900012 103.1214997   7.6459988  27.3060012 102.5954997   8.1559988
  26.1040012 102.4814997   7.2429988  26.6950810 102.9629208   7.6613173
  37.6720012  99.7584997  13.1659988  36.9840012 100.4164997  13.0699988
  37.6880012  99.5614997  14.1019988  37.5798525  99.8220462  13.2794808
  23.7240012  98.0924997  11.7429988  23.5050012  98.6224997  10.9769988
  23.0560012  98.3194997  12.3899988  23.6037600  98.1956906  11.7256379
  31.0930012 107.5924997   5.2869988  30.7970012 107.2704997   4.4359988
  30.7680012 108.4924997   5.3279988  31.0086371 107.6700215   5.1761801
  26.2930012 105.7684997  12.0299988  25.5530012 106.3664997  12.1339988
  27.0070012 106.3224997  11.7149988  26.2882237 105.9252831  12.0016465
  34.4000012  98.5964997   8.0499988  34.1840012  97.8304997   8.5829988
  35.0550012  99.0684997   8.5629988  34.4590632  98.5555889   8.1922861
  23.3170012  99.9844997   9.6949988  23.9310012 100.6174997  10.0689988
  23.8290012  99.5124997   9.0389988  23.4702296 100.0072370   9.6574252
  24.7000012 107.7324997  12.8179988  24.6950012 108.6124997  12.4399988
  23.8470012 107.6494997  13.2429988  24.5839464 107.8416117  12.8237907
  20.8210012 107.4034997   3.5999988  20.5490012 107.6324997   2.7109988
  20.8670012 108.2414997   4.0599988  20.7900094 107.5481213   3.5405697
  34.4460012 109.0254997  10.3119988  33.5050012 109.0834997  10.4739988
  34.7230012 109.9314997  10.1749988  34.3544679 109.1559443  10.3156815
  34.7470012  97.3114997  11.7299988  34.0110012  97.9224997  11.6919988
  35.4300012  97.7264997  11.2029988  34.7386541  97.4511374  11.6535832
  27.7500012  95.3984997   9.1959988  27.6330012  94.4494997   9.1409988
  26.8950012  95.7304997   9.4689988  27.6183733  95.3135409   9.2253897
  32.6980012 110.8064997   6.9379988  33.1240012 110.0994997   6.4529988
  33.0150012 111.6074997   6.5209988  32.7991019 110.8180994   6.8153130
  33.8580012 108.7074997   5.4459988  33.6000012 108.0174997   4.8349988
  33.9290012 108.2644997   6.2919988  33.8322856 108.5532124   5.4766885
  35.5440012 107.2734997  13.9239988  35.6840012 106.6824997  13.1839988
  35.7110012 108.1464997  13.5669988  35.5856778 107.3106426  13.7746965
  30.0170012 104.2354997   3.6959988  29.3050012 104.7704997   3.3439988
  30.7080012 104.2914997   3.0359988  30.0130132 104.3162543   3.5586289
  30.0700012 102.6934997   0.7349988  30.7710012 102.7154997   1.3859988
  30.3730012 102.0654997   0.0789988  30.2067830 102.6116566   0.7353711
  37.3860012 103.6134997  11.9899988  36.7330012 104.3084997  12.0789988
  37.8510012 103.8234997  11.1799988  37.3595390 103.7369425  11.8926883
  33.4220012 104.4454997   4.6479988  32.6900012 104.6734997   5.2209988
  33.8700012 103.7314997   5.1029988  33.3823095 104.3802571   4.7879119
  33.3200012 102.6194997  13.7149988  33.4000012 103.3824997  14.2869988
  32.7180012 102.8984997  13.0249988  33.2495756 102.7617134  13.7000589
  25.0680012 105.0754997   6.5299988  24.7370012 104.7054997   5.7119988
  25.6560012 104.4054997   6.8769988  25.1021873 104.9341156   6.4648102
  26.4340012 108.5034997   9.2119988  26.3400012 107.9254997   8.4549988
  27.1640012 108.1324997   9.7079988  26.5197981 108.3742390   9.1754165
  25.4340012 103.8444997  10.1639988  26.0000012 103.9654997   9.4009988
  25.7530012 104.4814997  10.8029988  25.5545786 103.9471884  10.1460040
  31.7430012 109.3474997  10.8979988  31.5030012 110.0094997  11.5459988
  31.5450012 108.5134997  11.3229988  31.6833808 109.3253134  11.0441524
  26.3140012 108.2434997  14.8809988  26.0030012 109.0254997  15.3359988
  25.6640012 108.0904997  14.1949988  26.1835558 108.3299105  14.8505871
  32.2930012 103.6074997   2.3329988  32.8730012 103.7574997   3.0799988
  32.7070012 104.0784997   1.6099988  32.4282830 103.6916841   2.3374134
  23.2340012 104.4414997  14.1099988  23.3050012 105.0924997  14.8079988
  22.3440012 104.5444997  13.7749988  23.1233117 104.5445936  14.1602700
  30.0200012 110.3444997   5.7679988  30.4940012 110.6394997   6.5459988
  29.4570012 111.0824997   5.5349988  30.0087653 110.4846932   5.8430136
  24.5540012 110.3154997  15.6439988  24.5610012 110.1794997  14.6969988
  23.6380012 110.1974997  15.8959988  24.4311714 110.2809430  15.5484666
  35.9920012  95.3574997   2.1459988  35.0920012  95.4964997   2.4409988
  36.2440012  96.1884997   1.7439988  35.9028702  95.4889074   2.1320205
  24.0580012 104.1454997   4.1199988  23.7660012 104.9134997   3.6289988
  23.3840012 103.4854997   3.9569988  23.9269081 104.1614406   4.0307340
  37.1810012 109.7234997   0.5219988  37.2550012 110.6624997   0.6929988
  38.0870012 109.4184997   0.4659988  37.3135100 109.8106722   0.5378119
  20.1510012 106.5084997  12.9349988  19.6500012 106.4804997  12.1199988
  20.1560012 105.6024997  13.2439988  20.0831526 106.3822278  12.8652872
  19.9010012 109.2884997   9.8189988  20.8470012 109.1444997   9.7999988
  19.7890012 110.0724997  10.3559988  20.0152727 109.3748046   9.8890072
  38.0990012 109.9544997  15.5009988  38.0500012 108.9994997  15.4639988
  37.2720012 110.2224997  15.9019988  37.9804940 109.8598998  15.5501375
  29.0780012 109.5284997  14.3769988  29.1650012 110.3544997  14.8519988
  28.2140012 109.1984997  14.6259988  28.9731964 109.5969878  14.4756549
  29.4920012 113.3004997   4.1829988  29.4170012 113.1794997   3.2369988
  29.5250012 114.2504997   4.3019988  29.4861848 113.4122500   4.0694834
  23.1450012 112.0894997   5.9639988  23.2980012 111.7414997   6.8429988
  22.2950012 111.7334997   5.7089988  23.0508962 111.9936650   6.0498340
  32.5940012 112.4544997   1.1849988  32.9690012 111.7104997   0.7149988
  32.5980012 112.1844997   2.1039988  32.6458915 112.3161486   1.2447824
  32.2630012 112.3804997   3.9349988  31.3270012 112.4804997   4.1129988
  32.5430012 111.6714997   4.5129988  32.1728255 112.2982711   4.0375391
  35.2510012 101.4474997  15.9809988  34.8440012 101.9284997  15.2599988
  35.2920012 100.5424997  15.6729988  35.2008437 101.3909374  15.8406683
  22.4000012 107.8314997  13.9779988  22.6160012 107.4704997  14.8369988
  21.5450012 107.4574997  13.7679988  22.3139292 107.7314111  14.0673386
  25.0190012  96.3014997   9.9729988  24.1570012  96.2144997   9.5659988
  24.9960012  97.1574997  10.4009988  24.8980330  96.4052765   9.9751863
  29.6820012  96.0234997  13.3479988  30.1020012  95.6084997  14.1009988
  28.7490012  95.8454997  13.4649988  29.6133644  95.9425900  13.4669539
  33.0080012  99.7794997  14.2009988  32.4940012  99.6534997  14.9989988
  32.8530012 100.6914997  13.9569988  32.9166852  99.8856132  14.2772158
  33.7710012 104.6404997  -0.0370012  33.8130012 104.4174997  -0.9670012
  34.6200012 105.0394997   0.1529988  33.8915396 104.6639155  -0.1386373
  29.3430012  98.5164997   0.6329988  29.0900012  98.5354997   1.5559988
  29.0870012  97.6444997   0.3319988  29.2737790  98.4012437   0.7186263
  25.1100012 101.2674997  11.0679988  24.4680012 101.2264997  11.7769988
  25.1470012 102.1934997  10.8309988  25.0271324 101.3871559  11.1329824
  25.1070012 101.4884997   5.9799988  24.2140012 101.1474997   5.9219988
  25.5570012 101.1114997   5.2249988  25.0457305 101.3908484   5.8699177
  30.6420012 101.9044997   4.7969988  30.2330012 102.7194997   4.5059988
  31.3630012 101.7644997   4.1829988  30.6834537 101.9972018   4.6741342
  29.7440012 102.0794997  16.2849988  29.1820012 101.3754997  16.6059988
  30.5710012 101.9594997  16.7529988  29.7787095 101.9667883  16.3922330
  31.6470012 101.3504997   7.6109988  31.4520012 101.9554997   6.8959988
  31.8280012 100.5164997   7.1769988  31.6447614 101.3206300   7.4544405
  22.8600012 101.5874997  12.9349988  22.8220012 101.9874997  13.8039988
  22.3690012 100.7704997  13.0259988  22.7884684 101.5318069  13.0661059
  26.2260012  98.9614997  -0.2660012  25.7950012  98.5164997   0.4639988
  25.5080012  99.3334997  -0.7780012  26.0699438  98.9508940  -0.2353201
  19.4680012  98.7034997   6.7859988  20.0990012  98.6744997   7.5049988
  19.9170012  98.2784997   6.0559988  19.6150774  98.6420492   6.7856553
  20.7420012  99.4494997   2.2099988  21.2160012 100.0404997   1.6249988
  20.0250012  99.9804997   2.5569988  20.7099341  99.6020867   2.1768836
  30.9110012 102.9884997  12.2829988  31.2340012 102.3574997  11.6399988
  30.4710012 102.4534997  12.9429988  30.8956895 102.8298441  12.2842850
  27.6880012  98.9154997   7.0669988  26.7770012  98.9724997   7.3549988
  28.1940012  98.8554997   7.8769988  27.6315413  98.9151985   7.2160622
  22.5170012 100.5444997   5.8929988  21.6270012 100.6444997   5.5529988
  22.8130012  99.7024997   5.5469988  22.4352823 100.4443546   5.7997213
  26.1700012 100.5444997   3.5499988  27.1010012 100.6734997   3.7279988
  25.9550012 101.2144997   2.8999988  26.2684247 100.6526565   3.4865747
  32.0930012  98.1504997  10.3309988  31.4170012  98.2814997  10.9949988
  31.6080012  97.9954997   9.5209988  31.9347145  98.1474905  10.3124517
  24.8440012 101.7394997   1.1169988  24.3010012 101.3594997   0.4249988
  25.6770012 101.9334997   0.6879988  24.8824399 101.7138124   0.9644526
  35.3810012 113.8224997  16.6079988  35.5810012 114.2464997  15.7729988
  36.0360012 114.1654997  17.2149988  35.4970051 113.9269648  16.5757836
  22.9790012 106.2964997  16.2159988  23.7110012 106.5504997  16.7769988
  22.1990012 106.5004997  16.7309988  22.9738232 106.3589177  16.3625760
  29.0080012 101.7034997   8.9539988  29.5730012 101.1564997   8.4069988
  28.8610012 101.1814997   9.7419988  29.0652918 101.5582024   8.9858454
  24.0100012  97.8394997   5.3719988  23.6930012  96.9374997   5.3369988
  24.7920012  97.8414997   4.8189988  24.0722284  97.7161628   5.2924783
  27.6350012 100.0914997  11.3679988  26.7990012 100.5454997  11.4779988
  28.1590012 100.3674997  12.1199988  27.5914414 100.1909376  11.4847136
  28.1790012 106.3044997   3.0519988  27.4340012 105.7974997   2.7299988
  28.0450012 106.3534997   3.9989988  28.0588776 106.2416940   3.1358647
  35.3290012 105.4374997  11.8389988  35.9710012 105.8944997  11.2949988
  34.4990012 105.5504997  11.3759988  35.3045963 105.5152704  11.7020177
  32.0770012  99.1184997   1.2519988  31.1380012  99.2304997   1.0999988
  32.3740012  99.9754997   1.5579988  31.9887666  99.2496443   1.2725768
  29.6980012 106.4884997  14.2889988  29.3530012 106.1074997  15.0959988
  29.4980012 107.4224997  14.3609988  29.6238061 106.5625228  14.4090961
  32.7950012 100.9854997   2.9119988  33.6870012 100.8484997   3.2309988
  32.8520012 101.7764997   2.3759988  32.9246285 101.0736660   2.8831690
  23.3040012 105.5994997   8.8219988  24.0490012 105.5974997   8.2209988
  23.3820012 104.7764997   9.3039988  23.4165518 105.4879315   8.8048929
  30.3050012 107.7634997   2.0779988  30.0090012 108.5894997   2.4589988
  29.6020012 107.1434997   2.2739988  30.1694914 107.7928199   2.1566443
  20.3120012 104.0604997  14.1369988  20.5350012 103.6424997  14.9689988
  19.7100012 103.4474997  13.7139988  20.2611759 103.9204668  14.1937022
  27.3280012 103.5774997  16.3499988  27.0320012 103.4114997  15.4549988
  28.2600012 103.3574997  16.3389988  27.4134166 103.5250640  16.2260536
  31.9490012 108.9504997  14.2399988  31.0480012 109.1334997  13.9719988
  31.9830012 109.2094997  15.1609988  31.8303041 109.0105512  14.3278197
  37.6800012 101.1954997   2.6069988  37.1260012 100.7994997   1.9349988
  37.7800012 102.1054997   2.3289988  37.6177059 101.2643586   2.4774401
  37.6430012 106.9954997  15.4439988  36.7920012 107.2334997  15.0769988
  38.2340012 106.9784997  14.6909988  37.6062487 107.0258258  15.2918893
  35.9750012 109.9814997   3.0719988  35.6020012 109.1554997   3.3809988
  36.2530012 109.7984997   2.1749988  35.9615630 109.8437303   2.9929626
  33.1360012 104.7894997  10.0929988  32.2070012 104.5574997  10.0659988
  33.5870012 104.0124997   9.7629988  33.0699216 104.6527238  10.0446917
  25.6790012 109.1174997   6.2259988  26.2060012 109.8904997   6.0259988
  24.7990012 109.3424997   5.9249988  25.6321773 109.2538005   6.1579010
  21.4340012 103.9794997   0.8129988  22.0500012 104.6064997   1.1929988
  20.5720012 104.2954997   1.0849988  21.4017698 104.1079430   0.9017183
  27.1060012 106.7804997   5.8029988  26.8650012 107.7054997   5.8439988
  26.3650012 106.3214997   6.1989988  26.9728409 106.8451421   5.8621377
  27.6210012 110.9294997  12.1179988  27.9830012 111.7844997  11.8839988
  28.1520012 110.6374997  12.8579988  27.7424473 111.0071060  12.1860855
  25.7890012 111.8024997   5.3479988  24.8390012 111.9074997   5.3989988
  26.1410012 112.6224997   5.6929988  25.7064203 111.9278314   5.4016650
  31.1650012 107.0284997  11.8179988  30.7390012 106.8014997  12.6449988
  31.7450012 106.2904997  11.6359988  31.1851868 106.8975299  11.9065830
  33.3680012 107.9574997   0.8919988  33.7210012 107.5774997   1.6969988
  32.4190012 107.8644997   0.9789988  33.2880441 107.8929596   1.0138559
  33.8230012 111.5804997  14.2879988  33.2220012 111.0254997  13.7919988
  34.1050012 112.2474997  13.6619988  33.7788519 111.5946841  14.1354952
  37.8710012 112.4374997   1.0929988  38.6150012 113.0234997   0.9529988
  37.1770012 113.0054997   1.4269988  37.8790292 112.5945582   1.1189961
  21.9460012  98.8134997  13.6949988  21.0530012  99.1524997  13.6269988
  21.8470012  97.9584997  14.1129988  21.8104164  98.7442588  13.7422235
  34.2340012 106.6304997   3.1189988  33.9560012 105.9024997   3.6749988
  35.1610012 106.7494997   3.3239988  34.3213124 106.5468802   3.2228845
  21.5970012 110.6184997  12.1299988  21.8140012 109.6864997  12.0989988
  21.8430012 110.8924997  13.0129988  21.6599549 110.5280636  12.2451763
  27.4590012 109.0694997  -0.6610012  27.6980012 108.3214997  -1.2080012
  27.1900012 108.6814997   0.1719988  27.4553675 108.9146638  -0.6233135
  26.3960012 108.6394997   1.7959988  26.5420012 108.1194997   2.5859988
  26.3930012 109.5464997   2.1019988  26.4155989 108.6908853   1.9456088
  22.8490012 105.8924997   2.3059988  22.1630012 106.2444997   2.8729988
  23.3710012 106.6554997   2.0589988  22.8256852 106.0438578   2.3502118
  30.6800012  98.5544997  12.5849988  31.3790012  98.6284997  13.2349988
  30.2990012  97.6904997  12.7389988  30.7241767  98.4477624  12.6948322
  31.4650012  98.2064997   3.6819988  31.6850012  98.6784997   2.8789988
  32.0230012  98.6014997   4.3519988  31.5704968  98.3244285   3.6627331
  29.1330012 110.3374997   2.5449988  28.3170012 110.8344997   2.5969988
  29.6630012 110.8124997   1.9049988  29.0929161 110.4697722   2.4655956
  28.6650012  99.9344997   4.5169988  29.4770012 100.4394997   4.5629988
  28.4200012  99.7894997   5.4309988  28.7430520  99.9840375   4.6468517
  29.2000012 100.9204997  13.7019988  29.3190012 101.4944997  14.4589988
  29.8560012 100.2324997  13.8159988  29.3049757 100.9061079  13.8210825
  29.5480012  97.0154997   5.4549988  29.2020012  97.6334997   6.0999988
  30.2070012  97.5164997   4.9739988  29.5897826  97.1675802   5.4780971
  26.4720012 111.3814997   2.5269988  26.6320012 112.1804997   2.0259988
  26.2740012 111.6874997   3.4119988  26.4671649 111.5324469   2.5779815
  25.2060012  98.0784997   2.1419988  25.1230012  98.9674997   2.4889988
  26.0960012  97.8134997   2.3739988  25.3149469  98.1641430   2.2207626
  35.4050012  98.8274997  14.5369988  34.4880012  99.0904997  14.4489988
  35.7400012  98.8244997  13.6399988  35.3249900  98.8630224  14.4037919
  34.0070012 102.5784997   8.6319988  33.2090012 102.1634997   8.3039988
  34.4520012 101.8874997   9.1229988  33.9579885 102.4283543   8.6534889
  23.4650012 108.5064997   1.2029988  24.0570012 109.2054997   1.4789988
  23.9240012 108.0734997   0.4829988  23.6081142 108.5437049   1.1434830
  21.7810012 101.1704997   0.3189988  21.7360012 102.1094997   0.4969988
  20.8930012 100.9344997   0.0489988  21.6548574 101.2671892   0.3068912
  35.0930012 111.8344997  10.2549988  34.9380012 112.5124997   9.5979988
  36.0260012 111.9064997  10.4579988  35.1978500 111.9370170  10.1925119
  22.5890012  95.9524997   8.9919988  22.3600012  96.0114997   8.0639988
  22.1460012  95.1604997   9.2979988  22.4978530  95.8535753   8.9064786
  21.5190012 109.8924997   5.1519988  20.6870012 110.3654997   5.1799988
  22.0650012 110.4024997   4.5539988  21.4789739 110.0261871   5.0749716
  20.8070012 112.5054997  16.4819988  21.3480012 112.2884997  17.2419988
  20.3260012 111.6994997  16.2929988  20.8159345 112.3669514  16.5603076
  25.4050012 111.4244997  18.1029988  26.1720012 110.9654997  18.4439988
  25.3830012 111.1984997  17.1729988  25.5071434 111.3310409  18.0240043
  29.4970012 110.9324997  -0.5220012  28.8530012 110.3014997  -0.2010012
  30.2590012 110.4014997  -0.7540012  29.5118077 110.7742920  -0.5093989
  31.9820012 109.8044997  16.8319988  31.6310012 108.9484997  17.0749988
  32.7080012 109.9474997  17.4389988  32.0320769 109.7065636  16.9473619
  34.1010012 110.7494997  -0.2880012  34.3840012 109.9554997   0.1639988
  34.8410012 110.9824997  -0.8490012  34.2397486 110.6722803  -0.3019302
  20.7140012 106.3154997  17.4369988  20.8580012 105.4134997  17.1499988
  19.9420012 106.6014997  16.9489988  20.6293323 106.2308261  17.3317881
  25.0560012 106.6594997  -0.4310012  25.1200012 105.8654997   0.0999988
  25.7090012 106.5404997  -1.1210012  25.1530241 106.5347148  -0.4515683
  27.3700012 106.2854997  16.8689988  27.0410012 106.5564997  16.0119988
  27.5220012 105.3444997  16.7819988  27.3454809 106.1953862  16.7398244
  30.4080012 107.7064997  -0.6950012  30.1390012 107.8864997   0.2059988
  30.2020012 106.7804997  -0.8260012  30.3433825 107.6060152  -0.5894786
  33.1040012 106.2014997  14.2529988  33.8500012 106.7894997  14.1329988
  32.3470012 106.7834997  14.3159988  33.1037554 106.3607011  14.2450907
  21.5470012 103.5154997  16.8569988  21.9550012 102.6584997  16.7359988
  21.2870012 103.5304997  17.7779988  21.5677568 103.4000807  16.9649588
  26.2050012 104.6314997   1.8749988  25.7450012 104.1474997   2.5609988
  26.4600012 103.9634997   1.2389988  26.1764902 104.4748731   1.8829334
  25.4940012 102.5244997  14.2309988  24.8760012 103.1994997  14.5109988
  25.8380012 102.8454997  13.3979988  25.4559615 102.6602721  14.1566581
  27.2760012 102.8744997   0.1369988  27.0960012 102.7204997  -0.7900012
  28.2260012 102.9824997   0.1819988  27.3797776 102.8680175   0.0161843
  30.5140012 104.9964997  17.5079988  31.4670012 105.0794997  17.4809988
  30.3530012 104.2844997  18.1279988  30.6226426 104.9116746  17.5880579
  36.6660012 105.2294997  -0.4170012  36.3920012 104.8044997  -1.2300012
  36.7050012 106.1604997  -0.6340012  36.6337699 105.2972484  -0.5576390
  25.8330012  99.8794997  15.3129988  25.9830012  99.1504997  14.7109988
  25.8360012 100.6564997  14.7539988  25.8539302  99.8847851  15.1550692
  26.2460012  98.2494997  12.8059988  26.7820012  98.7004997  12.1539988
  25.3940012  98.1414997  12.3829988  26.2042178  98.2966390  12.6595756
  27.8280012 103.6884997  13.0449988  28.5780012 103.5324997  12.4719988
  27.4890012 104.5404997  12.7699988  27.8848921 103.7822968  12.9293561
  32.2430012 101.5034997  18.0739988  32.4360012 100.5724997  17.9619988
  33.1010012 101.9284997  18.0639988  32.3853020 101.4336389  18.0573361
  33.5600012 104.2924997  16.1509988  33.2790012 105.0014997  15.5739988
  34.5030012 104.2194997  15.9999988  33.6489027 104.3797646  16.0515551
  24.3120012 101.0774997  17.2249988  23.5450012 100.5454997  17.0149988
  24.9910012 100.7674997  16.6249988  24.2987022 100.9627506  17.1151648
  27.0520012  95.7054997  13.2369988  26.9530012  96.6524997  13.1319988
  26.3090012  95.3334997  12.7619988  26.9380564  95.7845902  13.1584560
  28.3160012 100.0274997  16.8009988  28.0800012  99.8074997  17.7029988
  27.5320012  99.8204997  16.2909988  28.1778628  99.9694760  16.8553932
  31.0310012  99.1544997  15.8769988  30.0840012  99.1864997  16.0089988
  31.3440012  98.5294997  16.5299988  30.9435475  99.0743207  15.9834455
  32.6650012  97.7884997  17.8819988  32.5690012  96.8364997  17.8759988
  32.3440012  98.0574997  18.7419988  32.6084070  97.6944035  17.9975441
  22.4920012  98.9984997  16.9289988  22.7040012  98.2914997  16.3189988
  22.3810012  98.5604997  17.7729988  22.5059721  98.8427084  16.9596843
  27.2730012  94.9994997  15.9089988  27.9850012  94.3594997  15.8949988
  27.1720012  95.2664997  14.9949988  27.3567939  94.9479938  15.7835650
  27.6270012  96.6824997  17.9619988  27.4950012  96.2064997  17.1419988
  27.0280012  97.4264997  17.9069988  27.5279071  96.7179618  17.8422886
  27.1730012 113.5654997   1.1389988  28.1060012 113.7234997   1.2819988
  26.9090012 114.2404997   0.5139988  27.2649510 113.6783611   1.0740741
  20.7420012 108.2014997   0.6209988  21.6560012 108.2804997   0.8949988
  20.7490012 107.5144997  -0.0450012  20.8681131 108.1193961   0.5684393
  19.3910012 113.5944997   5.6989988  18.7440012 113.1324997   5.1659988
  19.7450012 112.9224997   6.2809988  19.3503849 113.4404723   5.7047959
  20.2610012 111.6754997   7.5029988  19.9260012 110.7954997   7.6749988
  20.4830012 112.0204997   8.3679988  20.2451783 111.6017500   7.6434208
  37.8090012 112.4844997  10.4839988  37.7880012 112.6694997  11.4229988
  38.5000012 113.0534997  10.1429988  37.8994618 112.5866606  10.5663864
  37.3730012 112.0524997  13.4059988  36.8850012 111.3164997  13.0349988
  37.9220012 111.6584997  14.0839988  37.3804872 111.8986249  13.4469160
  35.8230012 107.8414997  18.0439988  34.9570012 107.7364997  18.4379988
  36.2000012 108.6004997  18.4899988  35.7553308 107.9296900  18.1582393
  37.1240012 106.0984997   3.5579988  37.9740012 106.5194997   3.6849988
  37.1300012 105.3584997   4.1649988  37.2411372 106.0560803   3.6574344
  37.5190012 104.1514997   5.3819988  36.7920012 103.6724997   5.7789988
  38.1000012 104.3574997   6.1139988  37.4979375 104.1137090   5.5354129
  37.2780012 106.9364997  10.3289988  38.1110012 106.5584997  10.0489988
  37.3900012 107.8794997  10.2099988  37.4072647 107.0122218  10.2745487
  35.7640012 109.8144997  12.6359988  35.1170012 110.1394997  13.2619988
  35.2470012 109.3744997  11.9619988  35.6054029 109.7995004  12.6305827
  37.7870012 104.0524997   1.7729988  37.2650012 104.4094997   1.0539988
  37.7540012 104.7274997   2.4509988  37.7111634 104.1925413   1.7663145
  36.1360012 101.2924997   0.3239988  36.2320012 101.9594997  -0.3570012
  35.9960012 100.4764997  -0.1580012  36.1302135 101.2734500   0.1658491
  35.3050012 102.6724997   5.9449988  35.1550012 101.7274997   5.9239988
  34.9520012 102.9534997   6.7879988  35.2366625 102.5810441   6.0562346
  20.3410012 104.7504997   9.9549988  20.5250012 104.6684997   9.0189988
  21.1900012 104.6264997  10.3789988  20.4810139 104.7225003   9.8841455
  36.1620012 104.6424997  15.5829988  36.7450012 103.9084997  15.7749988
  36.7260012 105.4144997  15.6299988  36.3179769 104.6464227  15.6156159
  37.6580012 102.5454997  16.2679988  36.7950012 102.1664997  16.1019988
  38.2630012 101.8064997  16.1939988  37.6215979 102.3938023  16.2352817
  35.3830012  98.7004997  -0.5590012  35.9940012  98.3294997   0.0779988
  34.5470012  98.2794997  -0.3630012  35.3535032  98.5927554  -0.4452965
  35.0160012 100.2554997   4.4069988  35.2960012  99.3484997   4.5309988
  35.7750012 100.6894997   4.0179988  35.1569277 100.1900942   4.3713682
  35.6280012 100.8364997   9.8429988  36.5610012 101.0484997   9.8089988
  35.3930012 100.9384997  10.7649988  35.7238036 100.8792769   9.9629976
  35.6570012 101.5734997  12.6189988  34.8140012 101.8414997  12.9849988
  36.0990012 102.3954997  12.4079988  35.6014158 101.7213291  12.6405491
  19.9380012 100.0214997  16.0959988  20.8580012  99.8994997  16.3319988
  19.4890012  99.2714997  16.4849988  20.0031580  99.9033727  16.1809006
  37.9400012  95.5534997  17.9719988  38.2900012  94.8994997  17.3669988
  38.0870012  96.3904997  17.5329988  38.0078419  95.5771591  17.8297118
  35.6290012  97.5184997   4.4549988  35.8120012  97.0694997   5.2809988
  35.0300012  96.9334997   3.9919988  35.5730202  97.3779975   4.5053275
  21.1590012  98.3334997   8.9869988  21.6050012  97.5414997   9.2889988
  21.6260012  99.0494997   9.4179988  21.2830172  98.3220624   9.0864820
  19.4630012 101.3324997  10.0559988  19.9550012 101.1114997   9.2649988
  19.8260012 102.1734997  10.3369988  19.5793126 101.4158357   9.9857531
  37.4600012  97.6624997  16.3219988  36.5420012  97.9334997  16.2859988
  37.5830012  97.1274997  15.5369988  37.3511066  97.6272892  16.2110487
  37.4960012  97.5854997   0.9829988  37.9080012  96.8644997   0.5079988
  38.1780012  98.2554997   1.0419988  37.6445885  97.5772368   0.9258915
  19.7770012  97.5904997   4.1099988  18.8520012  97.7994997   3.9809988
  20.2310012  98.0744997   3.4209988  19.7117368  97.6845993   3.9991226
  34.5480012 112.5744997   6.0559988  35.2000012 112.2274997   5.4479988
  35.0580012 113.0634997   6.7019988  34.7062637 112.5930597   6.0600236
  19.7410012  96.3284997  12.4549988  19.0760012  96.0824997  13.0979988
  19.2980012  96.9504997  11.8769988  19.5900956  96.3788632  12.4649352
  21.9330012 109.5034997  16.5989988  21.1120012 109.6784997  16.1389988
  21.6800012 109.4304997  17.5199988  21.7866164 109.5175622  16.6604923
  24.8870012 110.4784997  12.8579988  24.4620012 111.2874997  12.5749988
  25.7910012 110.5634997  12.5559988  24.9510271 110.6008469  12.7783776
  29.1980012 111.8774997  15.8169988  29.3830012 111.5434997  16.6949988
  30.0440012 112.1864997  15.4949988  29.3377539 111.8736047  15.8935605
  31.5430012 113.1634997  15.0609988  32.2200012 112.5304997  14.8209988
  31.8650012 113.5644997  15.8679988  31.6791637 113.1311154  15.1372793
  36.4600012  95.7524997  14.1409988  35.6480012  96.0774997  13.7529988
  36.6930012  94.9924997  13.6079988  36.3803423  95.6942436  14.0158253
  22.2890012 113.7344997  12.9049988  21.5680012 114.1744997  12.4539988
  21.9230012 113.4834997  13.7539988  22.1409804 113.7607698  12.9579840
  24.7560012 113.3344997  11.9349988  23.8910012 113.4064997  12.3389988
  24.7010012 113.8814997  11.1509988  24.6302085 113.4182685  11.8843362
  29.4660012 113.2224997  11.1099988  29.0100012 113.7514997  10.4559988
  29.6290012 113.8254997  11.8359988  29.4255585 113.3764468  11.1185062
  31.7940012 112.1004997  12.0549988  30.8890012 112.2654997  11.7899988
  32.2230012 112.9534997  11.9899988  31.7280799 112.2384483  12.0099182
  34.3980012 113.6704997  12.3499988  34.2160012 114.5864997  12.1399988
  34.5750012 113.2604997  11.5039988  34.3970210 113.7404822  12.2067885
  21.7030012 112.3574997   9.8149988  21.6850012 111.9324997  10.6729988
  22.5080012 112.0394997   9.4069988  21.8093875 112.2563812   9.8771655
  23.8450012 111.0674997   8.4699988  23.6260012 110.1514997   8.6399988
  24.6690012 111.2074997   8.9359988  23.9264420 110.9610520   8.5562774
  26.3820012 111.5374997   9.3189988  26.5950012 110.6494997   9.0319988
  26.4460012 111.5034997  10.2729988  26.4198232 111.4113102   9.4087397
  29.8900012  97.2014997   8.4629988  29.2160012  96.5724997   8.7189988
  30.4540012  96.7174997   7.8599988  29.8739230  97.0498744   8.4165340
  35.0330012  95.3094997   8.5759988  35.6370012  95.8564997   8.0739988
  34.1630012  95.6284997   8.3359988  34.9981241  95.4275806   8.4747654
  36.7600012  96.4474997   6.9089988  37.3720012  95.9334997   6.3829988
  37.1420012  97.3254997   6.9329988  36.8954540  96.4957140   6.8401830
  22.2170012  95.8354997   6.2849988  21.4400012  95.6014997   5.7779988
  22.7470012  95.0384997   6.2939988  22.1822330  95.6956988   6.2167742
  21.0530012  95.6334997   2.0889988  21.4920012  96.2444997   1.4969988
  20.4200012  96.1714997   2.5629988  21.0274514  95.7899257   2.0720930
  26.7960012  95.7624997   6.0989988  27.6710012  96.1504997   6.0689988
  26.6600012  95.5474997   7.0209988  26.8973695  95.7865184   6.2196440
  32.3530012  95.7924997   7.7479988  32.4290012  95.8874997   6.7979988
  32.0780012  94.8844997   7.8769988  32.3262321  95.6827867   7.6355079
  33.7060012  95.8184997   3.4399988  33.0040012  96.4334997   3.2309988
  33.2620012  94.9804997   3.5709988  33.5496330  95.7895783   3.4290328
  20.9540012 111.5814997   2.9869988  20.2690012 111.5434997   2.3189988
  20.9580012 112.4944997   3.2749988  20.8608193 111.6997016   2.9345284
  22.9140012  97.5494997   0.5309988  23.4060012  96.9194997   0.0039988
  23.5380012  97.8454997   1.1949988  23.0655446  97.5033199   0.5485980
  27.9400012  97.8424997   2.9879988  28.1180012  97.1964997   3.6709988
  27.8870012  98.6764997   3.4559988  27.9571829  97.8667985   3.1445940
  29.8190012 112.7914997   1.3839988  30.6850012 113.1574997   1.2059988
  29.5720012 112.3514997   0.5699988  29.9042392 112.7821756   1.2496289
  36.5280012 112.3544997   4.0629988  36.3330012 111.6064997   3.4979988
  36.4890012 113.1124997   3.4799988  36.4960380 112.3546099   3.9068384
  22.1750012  96.3494997  15.8029988  21.8090012  95.5844997  16.2459988
  23.0880012  96.3784997  16.0899988  22.2482790  96.2487224  15.9024070
  24.1480012  95.7004997  17.3389988  25.0460012  95.4264997  17.1539988
  23.7610012  94.9574997  17.8029988  24.2186612  95.5625914  17.3763643
  22.7720012 112.5014997   0.0119988  22.5050012 112.7884997   0.8849988
  23.5440012 111.9554997   0.1639988  22.8397488 112.4670294   0.1521050
  32.5690012  95.0324997  17.5209988  32.6460012  94.6064997  18.3749988
  33.4630012  95.0464997  17.1779988  32.7003428  94.9760879  17.5915310
  35.7450012 111.1054997  16.2129988  34.9630012 110.9194997  15.6939988
  35.6730012 112.0344997  16.4309988  35.6281777 111.2056492  16.1714048
  50.1510012 104.9914997   6.2439988  50.2400012 105.9354997   6.1119988
  49.5130012 104.7164997   5.5859988  50.0769081 105.0834830   6.1369614
  49.0840012 104.2464997   9.6629988  49.0460012 103.6004997  10.3679988
  48.7620012 103.7804997   8.8919988  49.0352333 104.0949408   9.6552978
  41.4530012 103.8614997  11.2559988  41.4940012 103.2354997  11.9789988
  42.1560012 104.4854997  11.4379988  41.5536363 103.8601196  11.3796044
  52.7900012 107.1854997   7.9639988  52.3500012 106.4654997   8.4149988
  52.7770012 107.9064997   8.5939988  52.7280226 107.1843731   8.1108494
  42.3760012 108.3114997   9.7909988  42.0070012 107.5094997   9.4209988
  43.3170012 108.1424997   9.8369988  42.4527289 108.1790153   9.7466316
  38.9860012 101.9714997   5.1839988  38.5390012 102.8174997   5.1649988
  38.4250012 101.3914997   4.6679988  38.8489900 102.0089916   5.1116801
  39.6970012 104.1334997   7.3099988  39.9100012 103.3634997   7.8369988
  40.4350012 104.2224997   6.7059988  39.8258496 104.0401394   7.3005300
  49.9020012 112.2904997   8.1769988  50.5220012 111.6134997   7.9029988
  49.6940012 112.0724997   9.0849988  49.9586904 112.1683870   8.2623365
  47.4740012 106.6794997  10.0689988  47.7780012 105.9934997   9.4739988
  48.1950012 106.7974997  10.6869988  47.6130671 106.6016305  10.0711816
  56.1370012  98.2804997  10.9299988  56.1860012  98.8904997  11.6659988
  56.5620012  98.7414997  10.2069988  56.2011824  98.4263741  10.9330205
  50.6150012 101.0734997  10.3969988  50.7570012 100.1274997  10.4169988
  50.5080012 101.2804997   9.4679988  50.6199864 100.9719534  10.2742339
  43.7690012  99.1744997   7.6689988  43.8130012 100.0344997   7.2509988
  43.3120012  98.6224997   7.0349988  43.7132185  99.2175799   7.5260299
  51.4920012  99.3054997   6.0699988  52.1380012  98.9764997   6.6949988
  52.0020012  99.8234997   5.4469988  51.6494264  99.3304611   6.0713862
  40.3900012 101.5714997   8.4309988  41.0430012 101.0214997   8.8629988
  40.4140012 101.2974997   7.5139988  40.4826683 101.4591466   8.3662123
  45.5460012 103.1214997   7.6459988  46.1620012 102.5954997   8.1559988
  44.9600012 102.4814997   7.2429988  45.5510810 102.9629208   7.6613173
  56.5280012  99.7584997  13.1659988  55.8400012 100.4164997  13.0699988
  56.5440012  99.5614997  14.1019988  56.4358525  99.8220462  13.2794808
  42.5800012  98.0924997  11.7429988  42.3610012  98.6224997  10.9769988
  41.9120012  98.3194997  12.3899988  42.4597600  98.1956906  11.7256379
  49.9490012 107.5924997   5.2869988  49.6530012 107.2704997   4.4359988
  49.6240012 108.4924997   5.3279988  49.8646371 107.6700215   5.1761801
  45.1490012 105.7684997  12.0299988  44.4090012 106.3664997  12.1339988
  45.8630012 106.3224997  11.7149988  45.1442237 105.9252831  12.0016465
  53.2560012  98.5964997   8.0499988  53.0400012  97.8304997   8.5829988
  53.9110012  99.0684997   8.5629988  53.3150632  98.5555889   8.1922861
  42.1730012  99.9844997   9.6949988  42.7870012 100.6174997  10.0689988
  42.6850012  99.5124997   9.0389988  42.3262296 100.0072370   9.6574252
  43.5560012 107.7324997  12.8179988  43.5510012 108.6124997  12.4399988
  42.7030012 107.6494997  13.2429988  43.4399464 107.8416117  12.8237907
  39.6770012 107.4034997   3.5999988  39.4050012 107.6324997   2.7109988
  39.7230012 108.2414997   4.0599988  39.6460094 107.5481213   3.5405697
  53.3020012 109.0254997  10.3119988  52.3610012 109.0834997  10.4739988
  53.5790012 109.9314997  10.1749988  53.2104679 109.1559443  10.3156815
  53.6030012  97.3114997  11.7299988  52.8670012  97.9224997  11.6919988
  54.2860012  97.7264997  11.2029988  53.5946541  97.4511374  11.6535832
  46.6060012  95.3984997   9.1959988  46.4890012  94.4494997   9.1409988
  45.7510012  95.7304997   9.4689988  46.4743733  95.3135409   9.2253897
  51.5540012 110.8064997   6.9379988  51.9800012 110.0994997   6.4529988
  51.8710012 111.6074997   6.5209988  51.6551019 110.8180994   6.8153130
  52.7140012 108.7074997   5.4459988  52.4560012 108.0174997   4.8349988
  52.7850012 108.2644997   6.2919988  52.6882856 108.5532124   5.4766885
  54.4000012 107.2734997  13.9239988  54.5400012 106.6824997  13.1839988
  54.5670012 108.1464997  13.5669988  54.4416778 107.3106426  13.7746965
  48.8730012 104.2354997   3.6959988  48.1610012 104.7704997   3.3439988
  49.5640012 104.2914997   3.0359988  48.8690132 104.3162543   3.5586289
  48.9260012 102.6934997   0.7349988  49.6270012 102.7154997   1.3859988
  49.2290012 102.0654997   0.0789988  49.0627830 102.6116566   0.7353711
  56.2420012 103.6134997  11.9899988  55.5890012 104.3084997  12.0789988
  56.7070012 103.8234997  11.1799988  56.2155390 103.7369425  11.8926883
  52.2780012 104.4454997   4.6479988  51.5460012 104.6734997   5.2209988
  52.7260012 103.7314997   5.1029988  52.2383095 104.3802571   4.7879119
  52.1760012 102.6194997  13.7149988  52.2560012 103.3824997  14.2869988
  51.5740012 102.8984997  13.0249988  52.1055756 102.7617134  13.7000589
  43.9240012 105.0754997   6.5299988  43.5930012 104.7054997   5.7119988
  44.5120012 104.4054997   6.8769988  43.9581873 104.9341156   6.4648102
  45.2900012 108.5034997   9.2119988  45.1960012 107.9254997   8.4549988
  46.0200012 108.1324997   9.7079988  45.3757981 108.3742390   9.1754165
  44.2900012 103.8444997  10.1639988  44.8560012 103.9654997   9.4009988
  44.6090012 104.4814997  10.8029988  44.4105786 103.9471884  10.1460040
  50.5990012 109.3474997  10.8979988  50.3590012 110.0094997  11.5459988
  50.4010012 108.5134997  11.3229988  50.5393808 109.3253134  11.0441524
  45.1700012 108.2434997  14.8809988  44.8590012 109.0254997  15.3359988
  44.5200012 108.0904997  14.1949988  45.0395558 108.3299105  14.8505871
  51.1490012 103.6074997   2.3329988  51.7290012 103.7574997   3.0799988
  51.5630012 104.0784997   1.6099988  51.2842830 103.6916841   2.3374134
  42.0900012 104.4414997  14.1099988  42.1610012 105.0924997  14.8079988
  41.2000012 104.5444997  13.7749988  41.9793117 104.5445936  14.1602700
  48.8760012 110.3444997   5.7679988  49.3500012 110.6394997   6.5459988
  48.3130012 111.0824997   5.5349988  48.8647653 110.4846932   5.8430136
  43.4100012 110.3154997  15.6439988  43.4170012 110.1794997  14.6969988
  42.4940012 110.1974997  15.8959988  43.2871714 110.2809430  15.5484666
  54.8480012  95.3574997   2.1459988  53.9480012  95.4964997   2.4409988
  55.1000012  96.1884997   1.7439988  54.7588702  95.4889074   2.1320205
  42.9140012 104.1454997   4.1199988  42.6220012 104.9134997   3.6289988
  42.2400012 103.4854997   3.9569988  42.7829081 104.1614406   4.0307340
  56.0370012 109.7234997   0.5219988  56.1110012 110.6624997   0.6929988
  56.9430012 109.4184997   0.4659988  56.1695100 109.8106722   0.5378119
  39.0070012 106.5084997  12.9349988  38.5060012 106.4804997  12.1199988
  39.0120012 105.6024997  13.2439988  38.9391526 106.3822278  12.8652872
  38.7570012 109.2884997   9.8189988  39.7030012 109.1444997   9.7999988
  38.6450012 110.0724997  10.3559988  38.8712727 109.3748046   9.8890072
  56.9550012 109.9544997  15.5009988  56.9060012 108.9994997  15.4639988
  56.1280012 110.2224997  15.9019988  56.8364940 109.8598998  15.5501375
  47.9340012 109.5284997  14.3769988  48.0210012 110.3544997  14.8519988
  47.0700012 109.1984997  14.6259988  47.8291964 109.5969878  14.4756549
  48.3480012 113.3004997   4.1829988  48.2730012 113.1794997   3.2369988
  48.3810012 114.2504997   4.3019988  48.3421848 113.4122500   4.0694834
  42.0010012 112.0894997   5.9639988  42.1540012 111.7414997   6.8429988
  41.1510012 111.7334997   5.7089988  41.9068962 111.9936650   6.0498340
  51.4500012 112.4544997   1.1849988  51.8250012 111.7104997   0.7149988
  51.4540012 112.1844997   2.1039988  51.5018915 112.3161486   1.2447824
  51.1190012 112.3804997   3.9349988  50.1830012 112.4804997   4.1129988
  51.3990012 111.6714997   4.5129988  51.0288255 112.2982711   4.0375391
  54.1070012 101.4474997  15.9809988  53.7000012 101.9284997  15.2599988
  54.1480012 100.5424997  15.6729988  54.0568437 101.3909374  15.8406683
  41.2560012 107.8314997  13.9779988  41.4720012 107.4704997  14.8369988
  40.4010012 107.4574997  13.7679988  41.1699292 107.7314111  14.0673386
  43.8750012  96.3014997   9.9729988  43.0130012  96.2144997   9.5659988
  43.8520012  97.1574997  10.4009988  43.7540330  96.4052765   9.9751863
  48.5380012  96.0234997  13.3479988  48.9580012  95.6084997  14.1009988
  47.6050012  95.8454997  13.4649988  48.4693644  95.9425900  13.4669539
  51.8640012  99.7794997  14.2009988  51.3500012  99.6534997  14.9989988
  51.7090012 100.6914997  13.9569988  51.7726852  99.8856132  14.2772158
  52.6270012 104.6404997  -0.0370012  52.6690012 104.4174997  -0.9670012
  53.4760012 105.0394997   0.1529988  52.7475396 104.6639155  -0.1386373
  48.1990012  98.5164997   0.6329988  47.9460012  98.5354997   1.5559988
  47.9430012  97.6444997   0.3319988  48.1297790  98.4012437   0.7186263
  43.9660012 101.2674997  11.0679988  43.3240012 101.2264997  11.7769988
  44.0030012 102.1934997  10.8309988  43.8831324 101.3871559  11.1329824
  43.9630012 101.4884997   5.9799988  43.0700012 101.1474997   5.9219988
  44.4130012 101.1114997   5.2249988  43.9017305 101.3908484   5.8699177
  49.4980012 101.9044997   4.7969988  49.0890012 102.7194997   4.5059988
  50.2190012 101.7644997   4.1829988  49.5394537 101.9972018   4.6741342
  48.6000012 102.0794997  16.2849988  48.0380012 101.3754997  16.6059988
  49.4270012 101.9594997  16.7529988  48.6347095 101.9667883  16.3922330
  50.5030012 101.3504997   7.6109988  50.3080012 101.9554997   6.8959988
  50.6840012 100.5164997   7.1769988  50.5007614 101.3206300   7.4544405
  41.7160012 101.5874997  12.9349988  41.6780012 101.9874997  13.8039988
  41.2250012 100.7704997  13.0259988  41.6444684 101.5318069  13.0661059
  45.0820012  98.9614997  -0.2660012  44.6510012  98.5164997   0.4639988
  44.3640012  99.3334997  -0.7780012  44.9259438  98.9508940  -0.2353201
  38.3240012  98.7034997   6.7859988  38.9550012  98.6744997   7.5049988
  38.7730012  98.2784997   6.0559988  38.4710774  98.6420492   6.7856553
  39.5980012  99.4494997   2.2099988  40.0720012 100.0404997   1.6249988
  38.8810012  99.9804997   2.5569988  39.5659341  99.6020867   2.1768836
  49.7670012 102.9884997  12.2829988  50.0900012 102.3574997  11.6399988
  49.3270012 102.4534997  12.9429988  49.7516895 102.8298441  12.2842850
  46.5440012  98.9154997   7.0669988  45.6330012  98.9724997   7.3549988
  47.0500012  98.8554997   7.8769988  46.4875413  98.9151985   7.2160622
  41.3730012 100.5444997   5.8929988  40.4830012 100.6444997   5.5529988
  41.6690012  99.7024997   5.5469988  41.2912823 100.4443546   5.7997213
  45.0260012 100.5444997   3.5499988  45.9570012 100.6734997   3.7279988
  44.8110012 101.2144997   2.8999988  45.1244247 100.6526565   3.4865747
  50.9490012  98.1504997  10.3309988  50.2730012  98.2814997  10.9949988
  50.4640012  97.9954997   9.5209988  50.7907145  98.1474905  10.3124517
  43.7000012 101.7394997   1.1169988  43.1570012 101.3594997   0.4249988
  44.5330012 101.9334997   0.6879988  43.7384399 101.7138124   0.9644526
  54.2370012 113.8224997  16.6079988  54.4370012 114.2464997  15.7729988
  54.8920012 114.1654997  17.2149988  54.3530051 113.9269648  16.5757836
  41.8350012 106.2964997  16.2159988  42.5670012 106.5504997  16.7769988
  41.0550012 106.5004997  16.7309988  41.8298232 106.3589177  16.3625760
  47.8640012 101.7034997   8.9539988  48.4290012 101.1564997   8.4069988
  47.7170012 101.1814997   9.7419988  47.9212918 101.5582024   8.9858454
  42.8660012  97.8394997   5.3719988  42.5490012  96.9374997   5.3369988
  43.6480012  97.8414997   4.8189988  42.9282284  97.7161628   5.2924783
  46.4910012 100.0914997  11.3679988  45.6550012 100.5454997  11.4779988
  47.0150012 100.3674997  12.1199988  46.4474414 100.1909376  11.4847136
  47.0350012 106.3044997   3.0519988  46.2900012 105.7974997   2.7299988
  46.9010012 106.3534997   3.9989988  46.9148776 106.2416940   3.1358647
  54.1850012 105.4374997  11.8389988  54.8270012 105.8944997  11.2949988
  53.3550012 105.5504997  11.3759988  54.1605963 105.5152704  11.7020177
  50.9330012  99.1184997   1.2519988  49.9940012  99.2304997   1.0999988
  51.2300012  99.9754997   1.5579988  50.8447666  99.2496443   1.2725768
  48.5540012 106.4884997  14.2889988  48.2090012 106.1074997  15.0959988
  48.3540012 107.4224997  14.3609988  48.4798061 106.5625228  14.4090961
  51.6510012 100.9854997   2.9119988  52.5430012 100.8484997   3.2309988
  51.7080012 101.7764997   2.3759988  51.7806285 101.0736660   2.8831691
  42.1600012 105.5994997   8.8219988  42.9050012 105.5974997   8.2209988
  42.2380012 104.7764997   9.3039988  42.2725518 105.4879315   8.8048929
  49.1610012 107.7634997   2.0779988  48.8650012 108.5894997   2.4589988
  48.4580012 107.1434997   2.2739988  49.0254914 107.7928199   2.1566443
  39.1680012 104.0604997  14.1369988  39.3910012 103.6424997  14.9689988
  38.5660012 103.4474997  13.7139988  39.1171759 103.9204668  14.1937022
  46.1840012 103.5774997  16.3499988  45.8880012 103.4114997  15.4549988
  47.1160012 103.3574997  16.3389988  46.2694166 103.5250640  16.2260536
  50.8050012 108.9504997  14.2399988  49.9040012 109.1334997  13.9719988
  50.8390012 109.2094997  15.1609988  50.6863041 109.0105512  14.3278197
  56.5360012 101.1954997   2.6069988  55.9820012 100.7994997   1.9349988
  56.6360012 102.1054997   2.3289988  56.4737059 101.2643586   2.4774401
  56.4990012 106.9954997  15.4439988  55.6480012 107.2334997  15.0769988
  57.0900012 106.9784997  14.6909988  56.4622487 107.0258258  15.2918893
  54.8310012 109.9814997   3.0719988  54.4580012 109.1554997   3.3809988
  55.1090012 109.7984997   2.1749988  54.8175630 109.8437303   2.9929626
  51.9920012 104.7894997  10.0929988  51.0630012 104.5574997  10.0659988
  52.4430012 104.0124997   9.7629988  51.9259216 104.6527238  10.0446917
  44.5350012 109.1174997   6.2259988  45.0620012 109.8904997   6.0259988
  43.6550012 109.3424997   5.9249988  44.4881773 109.2538005   6.1579010
  40.2900012 103.9794997   0.8129988  40.9060012 104.6064997   1.1929988
  39.4280012 104.2954997   1.0849988  40.2577698 104.1079430   0.9017183
  45.9620012 106.7804997   5.8029988  45.7210012 107.7054997   5.8439988
  45.2210012 106.3214997   6.1989988  45.8288409 106.8451421   5.8621377
  46.4770012 110.9294997  12.1179988  46.8390012 111.7844997  11.8839988
  47.0080012 110.6374997  12.8579988  46.5984473 111.0071060  12.1860855
  44.6450012 111.8024997   5.3479988  43.6950012 111.9074997   5.3989988
  44.9970012 112.6224997   5.6929988  44.5624203 111.9278314   5.4016650
  50.0210012 107.0284997  11.8179988  49.5950012 106.8014997  12.6449988
  50.6010012 106.2904997  11.6359988  50.0411868 106.8975299  11.9065830
  52.2240012 107.9574997   0.8919988  52.5770012 107.5774997   1.6969988
  51.2750012 107.8644997   0.9789988  52.1440441 107.8929596   1.0138559
  52.6790012 111.5804997  14.2879988  52.0780012 111.0254997  13.7919988
  52.9610012 112.2474997  13.6619988  52.6348519 111.5946841  14.1354952
  56.7270012 112.4374997   1.0929988  57.4710012 113.0234997   0.9529988
  56.0330012 113.0054997   1.4269988  56.7350292 112.5945582   1.1189961
  40.8020012  98.8134997  13.6949988  39.9090012  99.1524997  13.6269988
  40.7030012  97.9584997  14.1129988  40.6664164  98.7442588  13.7422235
  53.0900012 106.6304997   3.1189988  52.8120012 105.9024997   3.6749988
  54.0170012 106.7494997   3.3239988  53.1773124 106.5468802   3.2228845
  40.4530012 110.6184997  12.1299988  40.6700012 109.6864997  12.0989988
  40.6990012 110.8924997  13.0129988  40.5159549 110.5280636  12.2451763
  46.3150012 109.0694997  -0.6610012  46.5540012 108.3214997  -1.2080012
  46.0460012 108.6814997   0.1719988  46.3113675 108.9146638  -0.6233135
  45.2520012 108.6394997   1.7959988  45.3980012 108.1194997   2.5859988
  45.2490012 109.5464997   2.1019988  45.2715989 108.6908853   1.9456088
  41.7050012 105.8924997   2.3059988  41.0190012 106.2444997   2.8729988
  42.2270012 106.6554997   2.0589988  41.6816852 106.0438578   2.3502118
  49.5360012  98.5544997  12.5849988  50.2350012  98.6284997  13.2349988
  49.1550012  97.6904997  12.7389988  49.5801767  98.4477624  12.6948322
  50.3210012  98.2064997   3.6819988  50.5410012  98.6784997   2.8789988
  50.8790012  98.6014997   4.3519988  50.4264968  98.3244285   3.6627331
  47.9890012 110.3374997   2.5449988  47.1730012 110.8344997   2.5969988
  48.5190012 110.8124997   1.9049988  47.9489161 110.4697722   2.4655956
  47.5210012  99.9344997   4.5169988  48.3330012 100.4394997   4.5629988
  47.2760012  99.7894997   5.4309988  47.5990520  99.9840375   4.6468517
  48.0560012 100.9204997  13.7019988  48.1750012 101.4944997  14.4589988
  48.7120012 100.2324997  13.8159988  48.1609757 100.9061079  13.8210825
  48.4040012  97.0154997   5.4549988  48.0580012  97.6334997   6.0999988
  49.0630012  97.5164997   4.9739988  48.4457826  97.1675802   5.4780971
  45.3280012 111.3814997   2.5269988  45.4880012 112.1804997   2.0259988
  45.1300012 111.6874997   3.4119988  45.3231649 111.5324469   2.5779815
  44.0620012  98.0784997   2.1419988  43.9790012  98.9674997   2.4889988
  44.9520012  97.8134997   2.3739988  44.1709469  98.1641430   2.2207626
  54.2610012  98.8274997  14.5369988  53.3440012  99.0904997  14.4489988
  54.5960012  98.8244997  13.6399988  54.1809900  98.8630224  14.4037919
  52.8630012 102.5784997   8.6319988  52.0650012 102.1634997   8.3039988
  53.3080012 101.8874997   9.1229988  52.8139885 102.4283543   8.6534889
  42.3210012 108.5064997   1.2029988  42.9130012 109.2054997   1.4789988
  42.7800012 108.0734997   0.4829988  42.4641142 108.5437049   1.1434830
  40.6370012 101.1704997   0.3189988  40.5920012 102.1094997   0.4969988
  39.7490012 100.9344997   0.0489988  40.5108574 101.2671892   0.3068912
  53.9490012 111.8344997  10.2549988  53.7940012 112.5124997   9.5979988
  54.8820012 111.9064997  10.4579988  54.0538500 111.9370170  10.1925119
  41.4450012  95.9524997   8.9919988  41.2160012  96.0114997   8.0639988
  41.0020012  95.1604997   9.2979988  41.3538530  95.8535753   8.9064786
  40.3750012 109.8924997   5.1519988  39.5430012 110.3654997   5.1799988
  40.9210012 110.4024997   4.5539988  40.3349739 110.0261871   5.0749716
  39.6630012 112.5054997  16.4819988  40.2040012 112.2884997  17.2419988
  39.1820012 111.6994997  16.2929988  39.6719345 112.3669514  16.5603076
  44.2610012 111.4244997  18.1029988  45.0280012 110.9654997  18.4439988
  44.2390012 111.1984997  17.1729988  44.3631434 111.3310409  18.0240043
  48.3530012 110.9324997  -0.5220012  47.7090012 110.3014997  -0.2010012
  49.1150012 110.4014997  -0.7540012  48.3678077 110.7742920  -0.5093989
  50.8380012 109.8044997  16.8319988  50.4870012 108.9484997  17.0749988
  51.5640012 109.9474997  17.4389988  50.8880769 109.7065636  16.9473619
  52.9570012 110.7494997  -0.2880012  53.2400012 109.9554997   0.1639988
  53.6970012 110.9824997  -0.8490012  53.0957486 110.6722803  -0.3019302
  39.5700012 106.3154997  17.4369988  39.7140012 105.4134997  17.1499988
  38.7980012 106.6014997  16.9489988  39.4853322 106.2308261  17.3317881
  43.9120012 106.6594997  -0.4310012  43.9760012 105.8654997   0.0999988
  44.5650012 106.5404997  -1.1210012  44.0090241 106.5347148  -0.4515683
  46.2260012 106.2854997  16.8689988  45.8970012 106.5564997  16.0119988
  46.3780012 105.3444997  16.7819988  46.2014809 106.1953862  16.7398244
  49.2640012 107.7064997  -0.6950012  48.9950012 107.8864997   0.2059988
  49.0580012 106.7804997  -0.8260012  49.1993825 107.6060152  -0.5894786
  51.9600012 106.2014997  14.2529988  52.7060012 106.7894997  14.1329988
  51.2030012 106.7834997  14.3159988  51.9597554 106.3607011  14.2450907
  40.4030012 103.5154997  16.8569988  40.8110012 102.6584997  16.7359988
  40.1430012 103.5304997  17.7779988  40.4237568 103.4000807  16.9649588
  45.0610012 104.6314997   1.8749988  44.6010012 104.1474997   2.5609988
  45.3160012 103.9634997   1.2389988  45.0324902 104.4748731   1.8829334
  44.3500012 102.5244997  14.2309988  43.7320012 103.1994997  14.5109988
  44.6940012 102.8454997  13.3979988  44.3119615 102.6602721  14.1566581
  46.1320012 102.8744997   0.1369988  45.9520012 102.7204997  -0.7900012
  47.0820012 102.9824997   0.1819988  46.2357776 102.8680175   0.0161843
  49.3700012 104.9964997  17.5079988  50.3230012 105.0794997  17.4809988
  49.2090012 104.2844997  18.1279988  49.4786426 104.9116746  17.5880579
  55.5220012 105.2294997  -0.4170012  55.2480012 104.8044997  -1.2300012
  55.5610012 106.1604997  -0.6340012  55.4897699 105.2972484  -0.5576390
  44.6890012  99.8794997  15.3129988  44.8390012  99.1504997  14.7109988
  44.6920012 100.6564997  14.7539988  44.7099302  99.8847851  15.1550692
  45.1020012  98.2494997  12.8059988  45.6380012  98.7004997  12.1539988
  44.2500012  98.1414997  12.3829988  45.0602178  98.2966390  12.6595756
  46.6840012 103.6884997  13.0449988  47.4340012 103.5324997  12.4719988
  46.3450012 104.5404997  12.7699988  46.7408921 103.7822968  12.9293561
  51.0990012 101.5034997  18.0739988  51.2920012 100.5724997  17.9619988
  51.9570012 101.9284997  18.0639988  51.2413020 101.4336389  18.0573361
  52.4160012 104.2924997  16.1509988  52.1350012 105.0014997  15.5739988
  53.3590012 104.2194997  15.9999988  52.5049027 104.3797646  16.0515551
  43.1680012 101.0774997  17.2249988  42.4010012 100.5454997  17.0149988
  43.8470012 100.7674997  16.6249988  43.1547022 100.9627506  17.1151648
  45.9080012  95.7054997  13.2369988  45.8090012  96.6524997  13.1319988
  45.1650012  95.3334997  12.7619988  45.7940564  95.7845902  13.1584560
  47.1720012 100.0274997  16.8009988  46.9360012  99.8074997  17.7029988
  46.3880012  99.8204997  16.2909988  47.0338628  99.9694760  16.8553932
  49.8870012  99.1544997  15.8769988  48.9400012  99.1864997  16.0089988
  50.2000012  98.5294997  16.5299988  49.7995475  99.0743207  15.9834455
  51.5210012  97.7884997  17.8819988  51.4250012  96.8364997  17.8759988
  51.2000012  98.0574997  18.7419988  51.4644070  97.6944035  17.9975441
  41.3480012  98.9984997  16.9289988  41.5600012  98.2914997  16.3189988
  41.2370012  98.5604997  17.7729988  41.3619721  98.8427084  16.9596843
  46.1290012  94.9994997  15.9089988  46.8410012  94.3594997  15.8949988
  46.0280012  95.2664997  14.9949988  46.2127939  94.9479938  15.7835650
  46.4830012  96.6824997  17.9619988  46.3510012  96.2064997  17.1419988
  45.8840012  97.4264997  17.9069988  46.3839071  96.7179618  17.8422886
  46.0290012 113.5654997   1.1389988  46.9620012 113.7234997   1.2819988
  45.7650012 114.2404997   0.5139988  46.1209510 113.6783611   1.0740741
  39.5980012 108.2014997   0.6209988  40.5120012 108.2804997   0.8949988
  39.6050012 107.5144997  -0.0450012  39.7241131 108.1193961   0.5684393
  38.2470012 113.5944997   5.6989988  37.6000012 113.1324997   5.1659988
  38.6010012 112.9224997   6.2809988  38.2063849 113.4404723   5.7047959
  39.1170012 111.6754997   7.5029988  38.7820012 110.7954997   7.6749988
  39.3390012 112.0204997   8.3679988  39.1011783 111.6017500   7.6434208
  56.6650012 112.4844997  10.4839988  56.6440012 112.6694997  11.4229988
  57.3560012 113.0534997  10.1429988  56.7554618 112.5866606  10.5663864
  56.2290012 112.0524997  13.4059988  55.7410012 111.3164997  13.0349988
  56.7780012 111.6584997  14.0839988  56.2364872 111.8986249  13.4469160
  54.6790012 107.8414997  18.0439988  53.8130012 107.7364997  18.4379988
  55.0560012 108.6004997  18.4899988  54.6113308 107.9296900  18.1582393
  55.9800012 106.0984997   3.5579988  56.8300012 106.5194997   3.6849988
  55.9860012 105.3584997   4.1649988  56.0971372 106.0560803   3.6574344
  56.3750012 104.1514997   5.3819988  55.6480012 103.6724997   5.7789988
  56.9560012 104.3574997   6.1139988  56.3539375 104.1137090   5.5354129
  56.1340012 106.9364997  10.3289988  56.9670012 106.5584997  10.0489988
  56.2460012 107.8794997  10.2099988  56.2632647 107.0122218  10.2745487
  54.6200012 109.8144997  12.6359988  53.9730012 110.1394997  13.2619988
  54.1030012 109.3744997  11.9619988  54.4614029 109.7995004  12.6305827
  56.6430012 104.0524997   1.7729988  56.1210012 104.4094997   1.0539988
  56.6100012 104.7274997   2.4509988  56.5671634 104.1925413   1.7663145
  54.9920012 101.2924997   0.3239988  55.0880012 101.9594997  -0.3570012
  54.8520012 100.4764997  -0.1580012  54.9862135 101.2734500   0.1658491
  54.1610012 102.6724997   5.9449988  54.0110012 101.7274997   5.9239988
  53.8080012 102.9534997   6.7879988  54.0926625 102.5810441   6.0562346
  39.1970012 104.7504997   9.9549988  39.3810012 104.6684997   9.0189988
  40.0460012 104.6264997  10.3789988  39.3370139 104.7225003   9.8841455
  55.0180012 104.6424997  15.5829988  55.6010012 103.9084997  15.7749988
  55.5820012 105.4144997  15.6299988  55.1739769 104.6464227  15.6156159
  56.5140012 102.5454997  16.2679988  55.6510012 102.1664997  16.1019988
  57.1190012 101.8064997  16.1939988  56.4775979 102.3938023  16.2352817
  54.2390012  98.7004997  -0.5590012  54.8500012  98.3294997   0.0779988
  53.4030012  98.2794997  -0.3630012  54.2095032  98.5927554  -0.4452965
  53.8720012 100.2554997   4.4069988  54.1520012  99.3484997   4.5309988
  54.6310012 100.6894997   4.0179988  54.0129277 100.1900942   4.3713682
  54.4840012 100.8364997   9.8429988  55.4170012 101.0484997   9.8089988
  54.2490012 100.9384997  10.7649988  54.5798036 100.8792769   9.9629976
  54.5130012 101.5734997  12.6189988  53.6700012 101.8414997  12.9849988
  54.9550012 102.3954997  12.4079988  54.4574158 101.7213291  12.6405491
  38.7940012 100.0214997  16.0959988  39.7140012  99.8994997  16.3319988
  38.3450012  99.2714997  16.4849988  38.8591580  99.9033727  16.1809006
  56.7960012  95.5534997  17.9719988  57.1460012  94.8994997  17.3669988
  56.9430012  96.3904997  17.5329988  56.8638419  95.5771591  17.8297118
  54.4850012  97.5184997   4.4549988  54.6680012  97.0694997   5.2809988
  53.8860012  96.9334997   3.9919988  54.4290202  97.3779975   4.5053275
  40.0150012  98.3334997   8.9869988  40.4610012  97.5414997   9.2889988
  40.4820012  99.0494997   9.4179988  40.1390172  98.3220624   9.0864820
  38.3190012 101.3324997  10.0559988  38.8110012 101.1114997   9.2649988
  38.6820012 102.1734997  10.3369988  38.4353126 101.4158357   9.9857531
  56.3160012  97.6624997  16.3219988  55.3980012  97.9334997  16.2859988
  56.4390012  97.1274997  15.5369988  56.2071066  97.6272892  16.2110487
  56.3520012  97.5854997   0.9829988  56.7640012  96.8644997   0.5079988
  57.0340012  98.2554997   1.0419988  56.5005885  97.5772368   0.9258915
  38.6330012  97.5904997   4.1099988  37.7080012  97.7994997   3.9809988
  39.0870012  98.0744997   3.4209988  38.5677368  97.6845993   3.9991226
  53.4040012 112.5744997   6.0559988  54.0560012 112.2274997   5.4479988
  53.9140012 113.0634997   6.7019988  53.5622637 112.5930597   6.0600236
  38.5970012  96.3284997  12.4549988  37.9320012  96.0824997  13.0979988
  38.1540012  96.9504997  11.8769988  38.4460956  96.3788632  12.4649352
  40.7890012 109.5034997  16.5989988  39.9680012 109.6784997  16.1389988
  40.5360012 109.4304997  17.5199988  40.6426164 109.5175622  16.6604923
  43.7430012 110.4784997  12.8579988  43.3180012 111.2874997  12.5749988
  44.6470012 110.5634997  12.5559988  43.8070271 110.6008469  12.7783776
  48.0540012 111.8774997  15.8169988  48.2390012 111.5434997  16.6949988
  48.9000012 112.1864997  15.4949988  48.1937539 111.8736047  15.8935605
  50.3990012 113.1634997  15.0609988  51.0760012 112.5304997  14.8209988
  50.7210012 113.5644997  15.8679988  50.5351637 113.1311154  15.1372793
  55.3160012  95.7524997  14.1409988  54.5040012  96.0774997  13.7529988
  55.5490012  94.9924997  13.6079988  55.2363423  95.6942436  14.0158253
  41.1450012 113.7344997  12.9049988  40.4240012 114.1744997  12.4539988
  40.7790012 113.4834997  13.7539988  40.9969804 113.7607698  12.9579840
  43.6120012 113.3344997  11.9349988  42.7470012 113.4064997  12.3389988
  43.5570012 113.8814997  11.1509988  43.4862085 113.4182685  11.8843362
  48.3220012 113.2224997  11.1099988  47.8660012 113.7514997  10.4559988
  48.4850012 113.8254997  11.8359988  48.2815585 113.3764468  11.1185062
  50.6500012 112.1004997  12.0549988  49.7450012 112.2654997  11.7899988
  51.0790012 112.9534997  11.9899988  50.5840799 112.2384483  12.0099182
  53.2540012 113.6704997  12.3499988  53.0720012 114.5864997  12.1399988
  53.4310012 113.2604997  11.5039988  53.2530210 113.7404822  12.2067885
  40.5590012 112.3574997   9.8149988  40.5410012 111.9324997  10.6729988
  41.3640012 112.0394997   9.4069988  40.6653875 112.2563812   9.8771655
  42.7010012 111.0674997   8.4699988  42.4820012 110.1514997   8.6399988
  43.5250012 111.2074997   8.9359988  42.7824420 110.9610520   8.5562774
  45.2380012 111.5374997   9.3189988  45.4510012 110.6494997   9.0319988
  45.3020012 111.5034997  10.2729988  45.2758232 111.4113102   9.4087397
  48.7460012  97.2014997   8.4629988  48.0720012  96.5724997   8.7189988
  49.3100012  96.7174997   7.8599988  48.7299230  97.0498744   8.4165340
  53.8890012  95.3094997   8.5759988  54.4930012  95.8564997   8.0739988
  53.0190012  95.6284997   8.3359988  53.8541241  95.4275806   8.4747654
  55.6160012  96.4474997   6.9089988  56.2280012  95.9334997   6.3829988
  55.9980012  97.3254997   6.9329988  55.7514540  96.4957140   6.8401830
  41.0730012  95.8354997   6.2849988  40.2960012  95.6014997   5.7779988
  41.6030012  95.0384997   6.2939988  41.0382330  95.6956988   6.2167742
  39.9090012  95.6334997   2.0889988  40.3480012  96.2444997   1.4969988
  39.2760012  96.1714997   2.5629988  39.8834514  95.7899257   2.0720930
  45.6520012  95.7624997   6.0989988  46.5270012  96.1504997   6.0689988
  45.5160012  95.5474997   7.0209988  45.7533695  95.7865184   6.2196440
  51.2090012  95.7924997   7.7479988  51.2850012  95.8874997   6.7979988
  50.9340012  94.8844997   7.8769988  51.1822321  95.6827867   7.6355079
  52.5620012  95.8184997   3.4399988  51.8600012  96.4334997   3.2309988
  52.1180012  94.9804997   3.5709988  52.4056330  95.7895783   3.4290328
  39.8100012 111.5814997   2.9869988  39.1250012 111.5434997   2.3189988
  39.8140012 112.4944997   3.2749988  39.7168193 111.6997016   2.9345284
  41.7700012  97.5494997   0.5309988  42.2620012  96.9194997   0.0039988
  42.3940012  97.8454997   1.1949988  41.9215446  97.5033199   0.5485980
  46.7960012  97.8424997   2.9879988  46.9740012  97.1964997   3.6709988
  46.7430012  98.6764997   3.4559988  46.8131829  97.8667985   3.1445940
  48.6750012 112.7914997   1.3839988  49.5410012 113.1574997   1.2059988
  48.4280012 112.3514997   0.5699988  48.7602392 112.7821756   1.2496289
  55.3840012 112.3544997   4.0629988  55.1890012 111.6064997   3.4979988
  55.3450012 113.1124997   3.4799988  55.3520380 112.3546099   3.9068384
  41.0310012  96.3494997  15.8029988  40.6650012  95.5844997  16.2459988
  41.9440012  96.3784997  16.0899988  41.1042790  96.2487224  15.9024070
  43.0040012  95.7004997  17.3389988  43.9020012  95.4264997  17.1539988
  42.6170012  94.9574997  17.8029988  43.0746612  95.5625914  17.3763643
  41.6280012 112.5014997   0.0119988  41.3610012 112.7884997   0.8849988
  42.4000012 111.9554997   0.1639988  41.6957488 112.4670294   0.1521050
  51.4250012  95.0324997  17.5209988  51.5020012  94.6064997  18.3749988
  52.3190012  95.0464997  17.1779988  51.5563428  94.9760879  17.5915310
  54.6010012 111.1054997  16.2129988  53.8190012 110.9194997  15.6939988
  54.5290012 112.0344997  16.4309988  54.4841777 111.2056492  16.1714048
  69.0070012 104.9914997   6.2439988  69.0960012 105.9354997   6.1119988
  68.3690012 104.7164997   5.5859988  68.9329081 105.0834830   6.1369614
  67.9400012 104.2464997   9.6629988  67.9020012 103.6004997  10.3679988
  67.6180012 103.7804997   8.8919988  67.8912333 104.0949408   9.6552978
  60.3090012 103.8614997  11.2559988  60.3500012 103.2354997  11.9789988
  61.0120012 104.4854997  11.4379988  60.4096363 103.8601196  11.3796044
  71.6460012 107.1854997   7.9639988  71.2060012 106.4654997   8.4149988
  71.6330012 107.9064997   8.5939988  71.5840226 107.1843731   8.1108494
  61.2320012 108.3114997   9.7909988  60.8630012 107.5094997   9.4209988
  62.1730012 108.1424997   9.8369988  61.3087289 108.1790153   9.7466316
  57.8420012 101.9714997   5.1839988  57.3950012 102.8174997   5.1649988
  57.2810012 101.3914997   4.6679988  57.7049900 102.0089916   5.1116801
  58.5530012 104.1334997   7.3099988  58.7660012 103.3634997   7.8369988
  59.2910012 104.2224997   6.7059988  58.6818496 104.0401394   7.3005300
  68.7580012 112.2904997   8.1769988  69.3780012 111.6134997   7.9029988
  68.5500012 112.0724997   9.0849988  68.8146904 112.1683870   8.2623365
  66.3300012 106.6794997  10.0689988  66.6340012 105.9934997   9.4739988
  67.0510012 106.7974997  10.6869988  66.4690671 106.6016305  10.0711816
  74.9930012  98.2804997  10.9299988  75.0420012  98.8904997  11.6659988
  75.4180012  98.7414997  10.2069988  75.0571824  98.4263741  10.9330205
  69.4710012 101.0734997  10.3969988  69.6130012 100.1274997  10.4169988
  69.3640012 101.2804997   9.4679988  69.4759864 100.9719534  10.2742339
  62.6250012  99.1744997   7.6689988  62.6690012 100.0344997   7.2509988
  62.1680012  98.6224997   7.0349988  62.5692185  99.2175799   7.5260299
  70.3480012  99.3054997   6.0699988  70.9940012  98.9764997   6.6949988
  70.8580012  99.8234997   5.4469988  70.5054264  99.3304611   6.0713862
  59.2460012 101.5714997   8.4309988  59.8990012 101.0214997   8.8629988
  59.2700012 101.2974997   7.5139988  59.3386683 101.4591466   8.3662123
  64.4020012 103.1214997   7.6459988  65.0180012 102.5954997   8.1559988
  63.8160012 102.4814997   7.2429988  64.4070810 102.9629208   7.6613173
  75.3840012  99.7584997  13.1659988  74.6960012 100.4164997  13.0699988
  75.4000012  99.5614997  14.1019988  75.2918525  99.8220462  13.2794808
  61.4360012  98.0924997  11.7429988  61.2170012  98.6224997  10.9769988
  60.7680012  98.3194997  12.3899988  61.3157600  98.1956906  11.7256379
  68.8050012 107.5924997   5.2869988  68.5090012 107.2704997   4.4359988
  68.4800012 108.4924997   5.3279988  68.7206371 107.6700215   5.1761801
  64.0050012 105.7684997  12.0299988  63.2650012 106.3664997  12.1339988
  64.7190012 106.3224997  11.7149988  64.0002237 105.9252831  12.0016465
  72.1120012  98.5964997   8.0499988  71.8960012  97.8304997   8.5829988
  72.7670012  99.0684997   8.5629988  72.1710632  98.5555889   8.1922861
  61.0290012  99.9844997   9.6949988  61.6430012 100.6174997  10.0689988
  61.5410012  99.5124997   9.0389988  61.1822296 100.0072370   9.6574252
  62.4120012 107.7324997  12.8179988  62.4070012 108.6124997  12.4399988
  61.5590012 107.6494997  13.2429988  62.2959464 107.8416117  12.8237907
  58.5330012 107.4034997   3.5999988  58.2610012 107.6324997   2.7109988
  58.5790012 108.2414997   4.0599988  58.5020094 107.5481213   3.5405697
  72.1580012 109.0254997  10.3119988  71.2170012 109.0834997  10.4739988
  72.4350012 109.9314997  10.1749988  72.0664679 109.1559443  10.3156815
  72.4590012  97.3114997  11.7299988  71.7230012  97.9224997  11.6919988
  73.1420012  97.7264997  11.2029988  72.4506541  97.4511374  11.6535832
  65.4620012  95.3984997   9.1959988  65.3450012  94.4494997   9.1409988
  64.6070012  95.7304997   9.4689988  65.3303733  95.3135409   9.2253897
  70.4100012 110.8064997   6.9379988  70.8360012 110.0994997   6.4529988
  70.7270012 111.6074997   6.5209988  70.5111019 110.8180994   6.8153130
  71.5700012 108.7074997   5.4459988  71.3120012 108.0174997   4.8349988
  71.6410012 108.2644997   6.2919988  71.5442856 108.5532124   5.4766885
  73.2560012 107.2734997  13.9239988  73.3960012 106.6824997  13.1839988
  73.4230012 108.1464997  13.5669988  73.2976778 107.3106426  13.7746965
  67.7290012 104.2354997   3.6959988  67.0170012 104.7704997   3.3439988
  68.4200012 104.2914997   3.0359988  67.7250132 104.3162543   3.5586289
  67.7820012 102.6934997   0.7349988  68.4830012 102.7154997   1.3859988
  68.0850012 102.0654997   0.0789988  67.9187830 102.6116566   0.7353711
  75.0980012 103.6134997  11.9899988  74.4450012 104.3084997  12.0789988
  75.5630012 103.8234997  11.1799988  75.0715390 103.7369425  11.8926883
  71.1340012 104.4454997   4.6479988  70.4020012 104.6734997   5.2209988
  71.5820012 103.7314997   5.1029988  71.0943095 104.3802571   4.7879119
  71.0320012 102.6194997  13.7149988  71.1120012 103.3824997  14.2869988
  70.4300012 102.8984997  13.0249988  70.9615756 102.7617134  13.7000589
  62.7800012 105.0754997   6.5299988  62.4490012 104.7054997   5.7119988
  63.3680012 104.4054997   6.8769988  62.8141873 104.9341156   6.4648102
  64.1460012 108.5034997   9.2119988  64.0520012 107.9254997   8.4549988
  64.8760012 108.1324997   9.7079988  64.2317981 108.3742390   9.1754165
  63.1460012 103.8444997  10.1639988  63.7120012 103.9654997   9.4009988
  63.4650012 104.4814997  10.8029988  63.2665786 103.9471884  10.1460040
  69.4550012 109.3474997  10.8979988  69.2150012 110.0094997  11.5459988
  69.2570012 108.5134997  11.3229988  69.3953808 109.3253134  11.0441524
  64.0260012 108.2434997  14.8809988  63.7150012 109.0254997  15.3359988
  63.3760012 108.0904997  14.1949988  63.8955558 108.3299105  14.8505871
  70.0050012 103.6074997   2.3329988  70.5850012 103.7574997   3.0799988
  70.4190012 104.0784997   1.6099988  70.1402830 103.6916841   2.3374134
  60.9460012 104.4414997  14.1099988  61.0170012 105.0924997  14.8079988
  60.0560012 104.5444997  13.7749988  60.8353117 104.5445936  14.1602700
  67.7320012 110.3444997   5.7679988  68.2060012 110.6394997   6.5459988
  67.1690012 111.0824997   5.5349988  67.7207653 110.4846932   5.8430136
  62.2660012 110.3154997  15.6439988  62.2730012 110.1794997  14.6969988
  61.3500012 110.1974997  15.8959988  62.1431714 110.2809430  15.5484666
  73.7040012  95.3574997   2.1459988  72.8040012  95.4964997   2.4409988
  73.9560012  96.1884997   1.7439988  73.6148702  95.4889074   2.1320205
  61.7700012 104.1454997   4.1199988  61.4780012 104.9134997   3.6289988
  61.0960012 103.4854997   3.9569988  61.6389081 104.1614406   4.0307340
  74.8930012 109.7234997   0.5219988  74.9670012 110.6624997   0.6929988
  75.7990012 109.4184997   0.4659988  75.0255100 109.8106722   0.5378119
  57.8630012 106.5084997  12.9349988  57.3620012 106.4804997  12.1199988
  57.8680012 105.6024997  13.2439988  57.7951526 106.3822278  12.8652872
  57.6130012 109.2884997   9.8189988  58.5590012 109.1444997   9.7999988
  57.5010012 110.0724997  10.3559988  57.7272727 109.3748046   9.8890072
  75.8110012 109.9544997  15.5009988  75.7620012 108.9994997  15.4639988
  74.9840012 110.2224997  15.9019988  75.6924940 109.8598998  15.5501375
  66.7900012 109.5284997  14.3769988  66.8770012 110.3544997  14.8519988
  65.9260012 109.1984997  14.6259988  66.6851964 109.5969878  14.4756549
  67.2040012 113.3004997   4.1829988  67.1290012 113.1794997   3.2369988
  67.2370012 114.2504997   4.3019988  67.1981848 113.4122500   4.0694834
  60.8570012 112.0894997   5.9639988  61.0100012 111.7414997   6.8429988
  60.0070012 111.7334997   5.7089988  60.7628962 111.9936650   6.0498340
  70.3060012 112.4544997   1.1849988  70.6810012 111.7104997   0.7149988
  70.3100012 112.1844997   2.1039988  70.3578915 112.3161486   1.2447824
  69.9750012 112.3804997   3.9349988  69.0390012 112.4804997   4.1129988
  70.2550012 111.6714997   4.5129988  69.8848255 112.2982711   4.0375391
  72.9630012 101.4474997  15.9809988  72.5560012 101.9284997  15.2599988
  73.0040012 100.5424997  15.6729988  72.9128437 101.3909374  15.8406683
  60.1120012 107.8314997  13.9779988  60.3280012 107.4704997  14.8369988
  59.2570012 107.4574997  13.7679988  60.0259292 107.7314111  14.0673386
  62.7310012  96.3014997   9.9729988  61.8690012  96.2144997   9.5659988
  62.7080012  97.1574997  10.4009988  62.6100330  96.4052765   9.9751863
  67.3940012  96.0234997  13.3479988  67.8140012  95.6084997  14.1009988
  66.4610012  95.8454997  13.4649988  67.3253644  95.9425900  13.4669539
  70.7200012  99.7794997  14.2009988  70.2060012  99.6534997  14.9989988
  70.5650012 100.6914997  13.9569988  70.6286852  99.8856132  14.2772158
  71.4830012 104.6404997  -0.0370012  71.5250012 104.4174997  -0.9670012
  72.3320012 105.0394997   0.1529988  71.6035396 104.6639155  -0.1386373
  67.0550012  98.5164997   0.6329988  66.8020012  98.5354997   1.5559988
  66.7990012  97.6444997   0.3319988  66.9857790  98.4012437   0.7186263
  62.8220012 101.2674997  11.0679988  62.1800012 101.2264997  11.7769988
  62.8590012 102.1934997  10.8309988  62.7391324 101.3871559  11.1329824
  62.8190012 101.4884997   5.9799988  61.9260012 101.1474997   5.9219988
  63.2690012 101.1114997   5.2249988  62.7577305 101.3908484   5.8699177
  68.3540012 101.9044997   4.7969988  67.9450012 102.7194997   4.5059988
  69.0750012 101.7644997   4.1829988  68.3954537 101.9972018   4.6741342
  67.4560012 102.0794997  16.2849988  66.8940012 101.3754997  16.6059988
  68.2830012 101.9594997  16.7529988  67.4907095 101.9667883  16.3922330
  69.3590012 101.3504997   7.6109988  69.1640012 101.9554997   6.8959988
  69.5400012 100.5164997   7.1769988  69.3567614 101.3206300   7.4544405
  60.5720012 101.5874997  12.9349988  60.5340012 101.9874997  13.8039988
  60.0810012 100.7704997  13.0259988  60.5004684 101.5318069  13.0661059
  63.9380012  98.9614997  -0.2660012  63.5070012  98.5164997   0.4639988
  63.2200012  99.3334997  -0.7780012  63.7819438  98.9508940  -0.2353201
  57.1800012  98.7034997   6.7859988  57.8110012  98.6744997   7.5049988
  57.6290012  98.2784997   6.0559988  57.3270774  98.6420492   6.7856553
  58.4540012  99.4494997   2.2099988  58.9280012 100.0404997   1.6249988
  57.7370012  99.9804997   2.5569988  58.4219341  99.6020867   2.1768836
  68.6230012 102.9884997  12.2829988  68.9460012 102.3574997  11.6399988
  68.1830012 102.4534997  12.9429988  68.6076895 102.8298441  12.2842850
  65.4000012  98.9154997   7.0669988  64.4890012  98.9724997   7.3549988
  65.9060012  98.8554997   7.8769988  65.3435413  98.9151985   7.2160622
  60.2290012 100.5444997   5.8929988  59.3390012 100.6444997   5.5529988
  60.5250012  99.7024997   5.5469988  60.1472823 100.4443545   5.7997213
  63.8820012 100.5444997   3.5499988  64.8130012 100.6734997   3.7279988
  63.6670012 101.2144997   2.8999988  63.9804247 100.6526565   3.4865747
  69.8050012  98.1504997  10.3309988  69.1290012  98.2814997  10.9949988
  69.3200012  97.9954997   9.5209988  69.6467145  98.1474905  10.3124517
  62.5560012 101.7394997   1.1169988  62.0130012 101.3594997   0.4249988
  63.3890012 101.9334997   0.6879988  62.5944399 101.7138124   0.9644526
  73.0930012 113.8224997  16.6079988  73.2930012 114.2464997  15.7729988
  73.7480012 114.1654997  17.2149988  73.2090051 113.9269648  16.5757836
  60.6910012 106.2964997  16.2159988  61.4230012 106.5504997  16.7769988
  59.9110012 106.5004997  16.7309988  60.6858232 106.3589177  16.3625760
  66.7200012 101.7034997   8.9539988  67.2850012 101.1564997   8.4069988
  66.5730012 101.1814997   9.7419988  66.7772918 101.5582024   8.9858454
  61.7220012  97.8394997   5.3719988  61.4050012  96.9374997   5.3369988
  62.5040012  97.8414997   4.8189988  61.7842284  97.7161628   5.2924783
  65.3470012 100.0914997  11.3679988  64.5110012 100.5454997  11.4779988
  65.8710012 100.3674997  12.1199988  65.3034414 100.1909376  11.4847136
  65.8910012 106.3044997   3.0519988  65.1460012 105.7974997   2.7299988
  65.7570012 106.3534997   3.9989988  65.7708776 106.2416940   3.1358647
  73.0410012 105.4374997  11.8389988  73.6830012 105.8944997  11.2949988
  72.2110012 105.5504997  11.3759988  73.0165963 105.5152704  11.7020177
  69.7890012  99.1184997   1.2519988  68.8500012  99.2304997   1.0999988
  70.0860012  99.9754997   1.5579988  69.7007666  99.2496443   1.2725768
  67.4100012 106.4884997  14.2889988  67.0650012 106.1074997  15.0959988
  67.2100012 107.4224997  14.3609988  67.3358061 106.5625228  14.4090961
  70.5070012 100.9854997   2.9119988  71.3990012 100.8484997   3.2309988
  70.5640012 101.7764997   2.3759988  70.6366285 101.0736660   2.8831691
  61.0160012 105.5994997   8.8219988  61.7610012 105.5974997   8.2209988
  61.0940012 104.7764997   9.3039988  61.1285518 105.4879315   8.8048929
  68.0170012 107.7634997   2.0779988  67.7210012 108.5894997   2.4589988
  67.3140012 107.1434997   2.2739988  67.8814914 107.7928199   2.1566443
  58.0240012 104.0604997  14.1369988  58.2470012 103.6424997  14.9689988
  57.4220012 103.4474997  13.7139988  57.9731759 103.9204668  14.1937022
  65.0400012 103.5774997  16.3499988  64.7440012 103.4114997  15.4549988
  65.9720012 103.3574997  16.3389988  65.1254166 103.5250640  16.2260536
  69.6610012 108.9504997  14.2399988  68.7600012 109.1334997  13.9719988
  69.6950012 109.2094997  15.1609988  69.5423041 109.0105512  14.3278197
  75.3920012 101.1954997   2.6069988  74.8380012 100.7994997   1.9349988
  75.4920012 102.1054997   2.3289988  75.3297059 101.2643586   2.4774401
  75.3550012 106.9954997  15.4439988  74.5040012 107.2334997  15.0769988
  75.9460012 106.9784997  14.6909988  75.3182487 107.0258258  15.2918893
  73.6870012 109.9814997   3.0719988  73.3140012 109.1554997   3.3809988
  73.9650012 109.7984997   2.1749988  73.6735630 109.8437303   2.9929626
  70.8480012 104.7894997  10.0929988  69.9190012 104.5574997  10.0659988
  71.2990012 104.0124997   9.7629988  70.7819216 104.6527238  10.0446917
  63.3910012 109.1174997   6.2259988  63.9180012 109.8904997   6.0259988
  62.5110012 109.3424997   5.9249988  63.3441773 109.2538005   6.1579010
  59.1460012 103.9794997   0.8129988  59.7620012 104.6064997   1.1929988
  58.2840012 104.2954997   1.0849988  59.1137698 104.1079430   0.9017183
  64.8180012 106.7804997   5.8029988  64.5770012 107.7054997   5.8439988
  64.0770012 106.3214997   6.1989988  64.6848409 106.8451421   5.8621377
  65.3330012 110.9294997  12.1179988  65.6950012 111.7844997  11.8839988
  65.8640012 110.6374997  12.8579988  65.4544473 111.0071060  12.1860855
  63.5010012 111.8024997   5.3479988  62.5510012 111.9074997   5.3989988
  63.8530012 112.6224997   5.6929988  63.4184203 111.9278314   5.4016650
  68.8770012 107.0284997  11.8179988  68.4510012 106.8014997  12.6449988
  69.4570012 106.2904997  11.6359988  68.8971868 106.8975299  11.9065830
  71.0800012 107.9574997   0.8919988  71.4330012 107.5774997   1.6969988
  70.1310012 107.8644997   0.9789988  71.0000441 107.8929596   1.0138559
  71.5350012 111.5804997  14.2879988  70.9340012 111.0254997  13.7919988
  71.8170012 112.2474997  13.6619988  71.4908519 111.5946841  14.1354952
  75.5830012 112.4374997   1.0929988  76.3270012 113.0234997   0.9529988
  74.8890012 113.0054997   1.4269988  75.5910292 112.5945582   1.1189961
  59.6580012  98.8134997  13.6949988  58.7650012  99.1524997  13.6269988
  59.5590012  97.9584997  14.1129988  59.5224164  98.7442588  13.7422235
  71.9460012 106.6304997   3.1189988  71.6680012 105.9024997   3.6749988
  72.8730012 106.7494997   3.3239988  72.0333124 106.5468802   3.2228845
  59.3090012 110.6184997  12.1299988  59.5260012 109.6864997  12.0989988
  59.5550012 110.8924997  13.0129988  59.3719549 110.5280636  12.2451763
  65.1710012 109.0694997  -0.6610012  65.4100012 108.3214997  -1.2080012
  64.9020012 108.6814997   0.1719988  65.1673675 108.9146638  -0.6233135
  64.1080012 108.6394997   1.7959988  64.2540012 108.1194997   2.5859988
  64.1050012 109.5464997   2.1019988  64.1275989 108.6908853   1.9456088
  60.5610012 105.8924997   2.3059988  59.8750012 106.2444997   2.8729988
  61.0830012 106.6554997   2.0589988  60.5376852 106.0438578   2.3502118
  68.3920012  98.5544997  12.5849988  69.0910012  98.6284997  13.2349988
  68.0110012  97.6904997  12.7389988  68.4361767  98.4477624  12.6948322
  69.1770012  98.2064997   3.6819988  69.3970012  98.6784997   2.8789988
  69.7350012  98.6014997   4.3519988  69.2824968  98.3244285   3.6627331
  66.8450012 110.3374997   2.5449988  66.0290012 110.8344997   2.5969988
  67.3750012 110.8124997   1.9049988  66.8049161 110.4697722   2.4655956
  66.3770012  99.9344997   4.5169988  67.1890012 100.4394997   4.5629988
  66.1320012  99.7894997   5.4309988  66.4550520  99.9840375   4.6468517
  66.9120012 100.9204997  13.7019988  67.0310012 101.4944997  14.4589988
  67.5680012 100.2324997  13.8159988  67.0169757 100.9061079  13.8210825
  67.2600012  97.0154997   5.4549988  66.9140012  97.6334997   6.0999988
  67.9190012  97.5164997   4.9739988  67.3017826  97.1675802   5.4780971
  64.1840012 111.3814997   2.5269988  64.3440012 112.1804997   2.0259988
  63.9860012 111.6874997   3.4119988  64.1791649 111.5324469   2.5779815
  62.9180012  98.0784997   2.1419988  62.8350012  98.9674997   2.4889988
  63.8080012  97.8134997   2.3739988  63.0269469  98.1641430   2.2207626
  73.1170012  98.8274997  14.5369988  72.2000012  99.0904997  14.4489988
  73.4520012  98.8244997  13.6399988  73.0369900  98.8630224  14.4037919
  71.7190012 102.5784997   8.6319988  70.9210012 102.1634997   8.3039988
  72.1640012 101.8874997   9.1229988  71.6699885 102.4283543   8.6534889
  61.1770012 108.5064997   1.2029988  61.7690012 109.2054997   1.4789988
  61.6360012 108.0734997   0.4829988  61.3201142 108.5437049   1.1434830
  59.4930012 101.1704997   0.3189988  59.4480012 102.1094997   0.4969988
  58.6050012 100.9344997   0.0489988  59.3668574 101.2671892   0.3068912
  72.8050012 111.8344997  10.2549988  72.6500012 112.5124997   9.5979988
  73.7380012 111.9064997  10.4579988  72.9098500 111.9370170  10.1925119
  60.3010012  95.9524997   8.9919988  60.0720012  96.0114997   8.0639988
  59.8580012  95.1604997   9.2979988  60.2098530  95.8535753   8.9064786
  59.2310012 109.8924997   5.1519988  58.3990012 110.3654997   5.1799988
  59.7770012 110.4024997   4.5539988  59.1909739 110.0261871   5.0749716
  58.5190012 112.5054997  16.4819988  59.0600012 112.2884997  17.2419988
  58.0380012 111.6994997  16.2929988  58.5279345 112.3669514  16.5603076
  63.1170012 111.4244997  18.1029988  63.8840012 110.9654997  18.4439988
  63.0950012 111.1984997  17.1729988  63.2191434 111.3310409  18.0240043
  67.2090012 110.9324997  -0.5220012  66.5650012 110.3014997  -0.2010012
  67.9710012 110.4014997  -0.7540012  67.2238077 110.7742920  -0.5093989
  69.6940012 109.8044997  16.8319988  69.3430012 108.9484997  17.0749988
  70.4200012 109.9474997  17.4389988  69.7440769 109.7065636  16.9473619
  71.8130012 110.7494997  -0.2880012  72.0960012 109.9554997   0.1639988
  72.5530012 110.9824997  -0.8490012  71.9517486 110.6722803  -0.3019302
  58.4260012 106.3154997  17.4369988  58.5700012 105.4134997  17.1499988
  57.6540012 106.6014997  16.9489988  58.3413322 106.2308261  17.3317881
  62.7680012 106.6594997  -0.4310012  62.8320012 105.8654997   0.0999988
  63.4210012 106.5404997  -1.1210012  62.8650241 106.5347148  -0.4515683
  65.0820012 106.2854997  16.8689988  64.7530012 106.5564997  16.0119988
  65.2340012 105.3444997  16.7819988  65.0574809 106.1953862  16.7398244
  68.1200012 107.7064997  -0.6950012  67.8510012 107.8864997   0.2059988
  67.9140012 106.7804997  -0.8260012  68.0553825 107.6060152  -0.5894786
  70.8160012 106.2014997  14.2529988  71.5620012 106.7894997  14.1329988
  70.0590012 106.7834997  14.3159988  70.8157554 106.3607011  14.2450907
  59.2590012 103.5154997  16.8569988  59.6670012 102.6584997  16.7359988
  58.9990012 103.5304997  17.7779988  59.2797568 103.4000807  16.9649588
  63.9170012 104.6314997   1.8749988  63.4570012 104.1474997   2.5609988
  64.1720012 103.9634997   1.2389988  63.8884902 104.4748731   1.8829334
  63.2060012 102.5244997  14.2309988  62.5880012 103.1994997  14.5109988
  63.5500012 102.8454997  13.3979988  63.1679615 102.6602721  14.1566581
  64.9880012 102.8744997   0.1369988  64.8080012 102.7204997  -0.7900012
  65.9380012 102.9824997   0.1819988  65.0917776 102.8680175   0.0161843
  68.2260012 104.9964997  17.5079988  69.1790012 105.0794997  17.4809988
  68.0650012 104.2844997  18.1279988  68.3346426 104.9116746  17.5880579
  74.3780012 105.2294997  -0.4170012  74.1040012 104.8044997  -1.2300012
  74.4170012 106.1604997  -0.6340012  74.3457699 105.2972484  -0.5576390
  63.5450012  99.8794997  15.3129988  63.6950012  99.1504997  14.7109988
  63.5480012 100.6564997  14.7539988  63.5659302  99.8847851  15.1550692
  63.9580012  98.2494997  12.8059988  64.4940012  98.7004997  12.1539988
  63.1060012  98.1414997  12.3829988  63.9162178  98.2966390  12.6595756
  65.5400012 103.6884997  13.0449988  66.2900012 103.5324997  12.4719988
  65.2010012 104.5404997  12.7699988  65.5968921 103.7822968  12.9293561
  69.9550012 101.5034997  18.0739988  70.1480012 100.5724997  17.9619988
  70.8130012 101.9284997  18.0639988  70.0973020 101.4336389  18.0573361
  71.2720012 104.2924997  16.1509988  70.9910012 105.0014997  15.5739988
  72.2150012 104.2194997  15.9999988  71.3609027 104.3797646  16.0515551
  62.0240012 101.0774997  17.2249988  61.2570012 100.5454997  17.0149988
  62.7030012 100.7674997  16.6249988  62.0107022 100.9627506  17.1151648
  64.7640012  95.7054997  13.2369988  64.6650012  96.6524997  13.1319988
  64.0210012  95.3334997  12.7619988  64.6500563  95.7845902  13.1584560
  66.0280012 100.0274997  16.8009988  65.7920012  99.8074997  17.7029988
  65.2440012  99.8204997  16.2909988  65.8898628  99.9694760  16.8553932
  68.7430012  99.1544997  15.8769988  67.7960012  99.1864997  16.0089988
  69.0560012  98.5294997  16.5299988  68.6555475  99.0743207  15.9834455
  70.3770012  97.7884997  17.8819988  70.2810012  96.8364997  17.8759988
  70.0560012  98.0574997  18.7419988  70.3204070  97.6944035  17.9975441
  60.2040012  98.9984997  16.9289988  60.4160012  98.2914997  16.3189988
  60.0930012  98.5604997  17.7729988  60.2179721  98.8427084  16.9596843
  64.9850012  94.9994997  15.9089988  65.6970012  94.3594997  15.8949988
  64.8840012  95.2664997  14.9949988  65.0687939  94.9479938  15.7835650
  65.3390012  96.6824997  17.9619988  65.2070012  96.2064997  17.1419988
  64.7400012  97.4264997  17.9069988  65.2399071  96.7179618  17.8422886
  64.8850012 113.5654997   1.1389988  65.8180012 113.7234997   1.2819988
  64.6210012 114.2404997   0.5139988  64.9769510 113.6783611   1.0740741
  58.4540012 108.2014997   0.6209988  59.3680012 108.2804997   0.8949988
  58.4610012 107.5144997  -0.0450012  58.5801131 108.1193961   0.5684393
  57.1030012 113.5944997   5.6989988  56.4560012 113.1324997   5.1659988
  57.4570012 112.9224997   6.2809988  57.0623849 113.4404723   5.7047959
  57.9730012 111.6754997   7.5029988  57.6380012 110.7954997   7.6749988
  58.1950012 112.0204997   8.3679988  57.9571783 111.6017500   7.6434208
  75.5210012 112.4844997  10.4839988  75.5000012 112.6694997  11.4229988
  76.2120012 113.0534997  10.1429988  75.6114618 112.5866606  10.5663864
  75.0850012 112.0524997  13.4059988  74.5970012 111.3164997  13.0349988
  75.6340012 111.6584997  14.0839988  75.0924872 111.8986249  13.4469160
  73.5350012 107.8414997  18.0439988  72.6690012 107.7364997  18.4379988
  73.9120012 108.6004997  18.4899988  73.4673308 107.9296900  18.1582393
  74.8360012 106.0984997   3.5579988  75.6860012 106.5194997   3.6849988
  74.8420012 105.3584997   4.1649988  74.9531372 106.0560803   3.6574344
  75.2310012 104.1514997   5.3819988  74.5040012 103.6724997   5.7789988
  75.8120012 104.3574997   6.1139988  75.2099375 104.1137090   5.5354129
  74.9900012 106.9364997  10.3289988  75.8230012 106.5584997  10.0489988
  75.1020012 107.8794997  10.2099988  75.1192647 107.0122218  10.2745487
  73.4760012 109.8144997  12.6359988  72.8290012 110.1394997  13.2619988
  72.9590012 109.3744997  11.9619988  73.3174029 109.7995004  12.6305827
  75.4990012 104.0524997   1.7729988  74.9770012 104.4094997   1.0539988
  75.4660012 104.7274997   2.4509988  75.4231634 104.1925413   1.7663145
  73.8480012 101.2924997   0.3239988  73.9440012 101.9594997  -0.3570012
  73.7080012 100.4764997  -0.1580012  73.8422135 101.2734500   0.1658491
  73.0170012 102.6724997   5.9449988  72.8670012 101.7274997   5.9239988
  72.6640012 102.9534997   6.7879988  72.9486625 102.5810441   6.0562346
  58.0530012 104.7504997   9.9549988  58.2370012 104.6684997   9.0189988
  58.9020012 104.6264997  10.3789988  58.1930139 104.7225003   9.8841455
  73.8740012 104.6424997  15.5829988  74.4570012 103.9084997  15.7749988
  74.4380012 105.4144997  15.6299988  74.0299769 104.6464227  15.6156159
  75.3700012 102.5454997  16.2679988  74.5070012 102.1664997  16.1019988
  75.9750012 101.8064997  16.1939988  75.3335979 102.3938023  16.2352817
  73.0950012  98.7004997  -0.5590012  73.7060012  98.3294997   0.0779988
  72.2590012  98.2794997  -0.3630012  73.0655032  98.5927554  -0.4452965
  72.7280012 100.2554997   4.4069988  73.0080012  99.3484997   4.5309988
  73.4870012 100.6894997   4.0179988  72.8689277 100.1900942   4.3713682
  73.3400012 100.8364997   9.8429988  74.2730012 101.0484997   9.8089988
  73.1050012 100.9384997  10.7649988  73.4358036 100.8792769   9.9629976
  73.3690012 101.5734997  12.6189988  72.5260012 101.8414997  12.9849988
  73.8110012 102.3954997  12.4079988  73.3134158 101.7213291  12.6405491
  57.6500012 100.0214997  16.0959988  58.5700012  99.8994997  16.3319988
  57.2010012  99.2714997  16.4849988  57.7151580  99.9033727  16.1809006
  75.6520012  95.5534997  17.9719988  76.0020012  94.8994997  17.3669988
  75.7990012  96.3904997  17.5329988  75.7198419  95.5771591  17.8297118
  73.3410012  97.5184997   4.4549988  73.5240012  97.0694997   5.2809988
  72.7420012  96.9334997   3.9919988  73.2850202  97.3779975   4.5053275
  58.8710012  98.3334997   8.9869988  59.3170012  97.5414997   9.2889988
  59.3380012  99.0494997   9.4179988  58.9950172  98.3220624   9.0864820
  57.1750012 101.3324997  10.0559988  57.6670012 101.1114997   9.2649988
  57.5380012 102.1734997  10.3369988  57.2913126 101.4158357   9.9857531
  75.1720012  97.6624997  16.3219988  74.2540012  97.9334997  16.2859988
  75.2950012  97.1274997  15.5369988  75.0631066  97.6272892  16.2110487
  75.2080012  97.5854997   0.9829988  75.6200012  96.8644997   0.5079988
  75.8900012  98.2554997   1.0419988  75.3565885  97.5772368   0.9258915
  57.4890012  97.5904997   4.1099988  56.5640012  97.7994997   3.9809988
  57.9430012  98.0744997   3.4209988  57.4237368  97.6845993   3.9991226
  72.2600012 112.5744997   6.0559988  72.9120012 112.2274997   5.4479988
  72.7700012 113.0634997   6.7019988  72.4182637 112.5930597   6.0600236
  57.4530012  96.3284997  12.4549988  56.7880012  96.0824997  13.0979988
  57.0100012  96.9504997  11.8769988  57.3020956  96.3788632  12.4649352
  59.6450012 109.5034997  16.5989988  58.8240012 109.6784997  16.1389988
  59.3920012 109.4304997  17.5199988  59.4986164 109.5175622  16.6604923
  62.5990012 110.4784997  12.8579988  62.1740012 111.2874997  12.5749988
  63.5030012 110.5634997  12.5559988  62.6630271 110.6008469  12.7783776
  66.9100012 111.8774997  15.8169988  67.0950012 111.5434997  16.6949988
  67.7560012 112.1864997  15.4949988  67.0497539 111.8736047  15.8935605
  69.2550012 113.1634997  15.0609988  69.9320012 112.5304997  14.8209988
  69.5770012 113.5644997  15.8679988  69.3911637 113.1311154  15.1372793
  74.1720012  95.7524997  14.1409988  73.3600012  96.0774997  13.7529988
  74.4050012  94.9924997  13.6079988  74.0923423  95.6942436  14.0158253
  60.0010012 113.7344997  12.9049988  59.2800012 114.1744997  12.4539988
  59.6350012 113.4834997  13.7539988  59.8529804 113.7607698  12.9579840
  62.4680012 113.3344997  11.9349988  61.6030012 113.4064997  12.3389988
  62.4130012 113.8814997  11.1509988  62.3422085 113.4182685  11.8843362
  67.1780012 113.2224997  11.1099988  66.7220012 113.7514997  10.4559988
  67.3410012 113.8254997  11.8359988  67.1375585 113.3764468  11.1185062
  69.5060012 112.1004997  12.0549988  68.6010012 112.2654997  11.7899988
  69.9350012 112.9534997  11.9899988  69.4400799 112.2384483  12.0099182
  72.1100012 113.6704997  12.3499988  71.9280012 114.5864997  12.1399988
  72.2870012 113.2604997  11.5039988  72.1090210 113.7404822  12.2067885
  59.4150012 112.3574997   9.8149988  59.3970012 111.9324997  10.6729988
  60.2200012 112.0394997   9.4069988  59.5213875 112.2563812   9.8771655
  61.5570012 111.0674997   8.4699988  61.3380012 110.1514997   8.6399988
  62.3810012 111.2074997   8.9359988  61.6384420 110.9610520   8.5562774
  64.0940012 111.5374997   9.3189988  64.3070012 110.6494997   9.0319988
  64.1580012 111.5034997  10.2729988  64.1318232 111.4113102   9.4087397
  67.6020012  97.2014997   8.4629988  66.9280012  96.5724997   8.7189988
  68.1660012  96.7174997   7.8599988  67.5859230  97.0498744   8.4165340
  72.7450012  95.3094997   8.5759988  73.3490012  95.8564997   8.0739988
  71.8750012  95.6284997   8.3359988  72.7101241  95.4275806   8.4747654
  74.4720012  96.4474997   6.9089988  75.0840012  95.9334997   6.3829988
  74.8540012  97.3254997   6.9329988  74.6074540  96.4957140   6.8401830
  59.9290012  95.8354997   6.2849988  59.1520012  95.6014997   5.7779988
  60.4590012  95.0384997   6.2939988  59.8942330  95.6956988   6.2167742
  58.7650012  95.6334997   2.0889988  59.2040012  96.2444997   1.4969988
  58.1320012  96.1714997   2.5629988  58.7394514  95.7899257   2.0720930
  64.5080012  95.7624997   6.0989988  65.3830012  96.1504997   6.0689988
  64.3720012  95.5474997   7.0209988  64.6093695  95.7865184   6.2196440
  70.0650012  95.7924997   7.7479988  70.1410012  95.8874997   6.7979988
  69.7900012  94.8844997   7.8769988  70.0382321  95.6827867   7.6355079
  71.4180012  95.8184997   3.4399988  70.7160012  96.4334997   3.2309988
  70.9740012  94.9804997   3.5709988  71.2616330  95.7895783   3.4290328
  58.6660012 111.5814997   2.9869988  57.9810012 111.5434997   2.3189988
  58.6700012 112.4944997   3.2749988  58.5728193 111.6997016   2.9345284
  60.6260012  97.5494997   0.5309988  61.1180012  96.9194997   0.0039988
  61.2500012  97.8454997   1.1949988  60.7775446  97.5033199   0.5485980
  65.6520012  97.8424997   2.9879988  65.8300012  97.1964997   3.6709988
  65.5990012  98.6764997   3.4559988  65.6691829  97.8667985   3.1445940
  67.5310012 112.7914997   1.3839988  68.3970012 113.1574997   1.2059988
  67.2840012 112.3514997   0.5699988  67.6162392 112.7821756   1.2496289
  74.2400012 112.3544997   4.0629988  74.0450012 111.6064997   3.4979988
  74.2010012 113.1124997   3.4799988  74.2080380 112.3546099   3.9068384
  59.8870012  96.3494997  15.8029988  59.5210012  95.5844997  16.2459988
  60.8000012  96.3784997  16.0899988  59.9602790  96.2487224  15.9024070
  61.8600012  95.7004997  17.3389988  62.7580012  95.4264997  17.1539988
  61.4730012  94.9574997  17.8029988  61.9306612  95.5625914  17.3763643
  60.4840012 112.5014997   0.0119988  60.2170012 112.7884997   0.8849988
  61.2560012 111.9554997   0.1639988  60.5517488 112.4670294   0.1521050
  70.2810012  95.0324997  17.5209988  70.3580012  94.6064997  18.3749988
  71.1750012  95.0464997  17.1779988  70.4123428  94.9760879  17.5915310
  73.4570012 111.1054997  16.2129988  72.6750012 110.9194997  15.6939988
  73.3850012 112.0344997  16.4309988  73.3401777 111.2056492  16.1714048
  87.8630012 104.9914997   6.2439988  87.9520012 105.9354997   6.1119988
  87.2250012 104.7164997   5.5859988  87.7889081 105.0834830   6.1369614
  86.7960012 104.2464997   9.6629988  86.7580012 103.6004997  10.3679988
  86.4740012 103.7804997   8.8919988  86.7472333 104.0949408   9.6552978
  79.1650012 103.8614997  11.2559988  79.2060012 103.2354997  11.9789988
  79.8680012 104.4854997  11.4379988  79.2656363 103.8601196  11.3796044
  90.5020012 107.1854997   7.9639988  90.0620012 106.4654997   8.4149988
  90.4890012 107.9064997   8.5939988  90.4400226 107.1843731   8.1108494
  80.0880012 108.3114997   9.7909988  79.7190012 107.5094997   9.4209988
  81.0290012 108.1424997   9.8369988  80.1647289 108.1790153   9.7466316
  76.6980012 101.9714997   5.1839988  76.2510012 102.8174997   5.1649988
  76.1370012 101.3914997   4.6679988  76.5609900 102.0089916   5.1116801
  77.4090012 104.1334997   7.3099988  77.6220012 103.3634997   7.8369988
  78.1470012 104.2224997   6.7059988  77.5378496 104.0401394   7.3005300
  87.6140012 112.2904997   8.1769988  88.2340012 111.6134997   7.9029988
  87.4060012 112.0724997   9.0849988  87.6706904 112.1683870   8.2623365
  85.1860012 106.6794997  10.0689988  85.4900012 105.9934997   9.4739988
  85.9070012 106.7974997  10.6869988  85.3250671 106.6016305  10.0711816
  93.8490012  98.2804997  10.9299988  93.8980012  98.8904997  11.6659988
  94.2740012  98.7414997  10.2069988  93.9131824  98.4263741  10.9330205
  88.3270012 101.0734997  10.3969988  88.4690012 100.1274997  10.4169988
  88.2200012 101.2804997   9.4679988  88.3319864 100.9719534  10.2742339
  81.4810012  99.1744997   7.6689988  81.5250012 100.0344997   7.2509988
  81.0240012  98.6224997   7.0349988  81.4252185  99.2175799   7.5260299
  89.2040012  99.3054997   6.0699988  89.8500012  98.9764997   6.6949988
  89.7140012  99.8234997   5.4469988  89.3614264  99.3304611   6.0713862
  78.1020012 101.5714997   8.4309988  78.7550012 101.0214997   8.8629988
  78.1260012 101.2974997   7.5139988  78.1946683 101.4591466   8.3662123
  83.2580012 103.1214997   7.6459988  83.8740012 102.5954997   8.1559988
  82.6720012 102.4814997   7.2429988  83.2630810 102.9629208   7.6613173
  94.2400012  99.7584997  13.1659988  93.5520012 100.4164997  13.0699988
  94.2560012  99.5614997  14.1019988  94.1478525  99.8220462  13.2794808
  80.2920012  98.0924997  11.7429988  80.0730012  98.6224997  10.9769988
  79.6240012  98.3194997  12.3899988  80.1717600  98.1956906  11.7256379
  87.6610012 107.5924997   5.2869988  87.3650012 107.2704997   4.4359988
  87.3360012 108.4924997   5.3279988  87.5766371 107.6700215   5.1761801
  82.8610012 105.7684997  12.0299988  82.1210012 106.3664997  12.1339988
  83.5750012 106.3224997  11.7149988  82.8562237 105.9252831  12.0016465
  90.9680012  98.5964997   8.0499988  90.7520012  97.8304997   8.5829988
  91.6230012  99.0684997   8.5629988  91.0270632  98.5555889   8.1922861
  79.8850012  99.9844997   9.6949988  80.4990012 100.6174997  10.0689988
  80.3970012  99.5124997   9.0389988  80.0382296 100.0072370   9.6574252
  81.2680012 107.7324997  12.8179988  81.2630012 108.6124997  12.4399988
  80.4150012 107.6494997  13.2429988  81.1519464 107.8416117  12.8237907
  77.3890012 107.4034997   3.5999988  77.1170012 107.6324997   2.7109988
  77.4350012 108.2414997   4.0599988  77.3580094 107.5481213   3.5405697
  91.0140012 109.0254997  10.3119988  90.0730012 109.0834997  10.4739988
  91.2910012 109.9314997  10.1749988  90.9224679 109.1559443  10.3156815
  91.3150012  97.3114997  11.7299988  90.5790012  97.9224997  11.6919988
  91.9980012  97.7264997  11.2029988  91.3066541  97.4511374  11.6535832
  84.3180012  95.3984997   9.1959988  84.2010012  94.4494997   9.1409988
  83.4630012  95.7304997   9.4689988  84.1863733  95.3135409   9.2253897
  89.2660012 110.8064997   6.9379988  89.6920012 110.0994997   6.4529988
  89.5830012 111.6074997   6.5209988  89.3671019 110.8180994   6.8153130
  90.4260012 108.7074997   5.4459988  90.1680012 108.0174997   4.8349988
  90.4970012 108.2644997   6.2919988  90.4002856 108.5532124   5.4766885
  92.1120012 107.2734997  13.9239988  92.2520012 106.6824997  13.1839988
  92.2790012 108.1464997  13.5669988  92.1536778 107.3106426  13.7746965
  86.5850012 104.2354997   3.6959988  85.8730012 104.7704997   3.3439988
  87.2760012 104.2914997   3.0359988  86.5810132 104.3162543   3.5586289
  86.6380012 102.6934997   0.7349988  87.3390012 102.7154997   1.3859988
  86.9410012 102.0654997   0.0789988  86.7747830 102.6116566   0.7353711
  93.9540012 103.6134997  11.9899988  93.3010012 104.3084997  12.0789988
  94.4190012 103.8234997  11.1799988  93.9275390 103.7369425  11.8926883
  89.9900012 104.4454997   4.6479988  89.2580012 104.6734997   5.2209988
  90.4380012 103.7314997   5.1029988  89.9503095 104.3802571   4.7879119
  89.8880012 102.6194997  13.7149988  89.9680012 103.3824997  14.2869988
  89.2860012 102.8984997  13.0249988  89.8175756 102.7617134  13.7000589
  81.6360012 105.0754997   6.5299988  81.3050012 104.7054997   5.7119988
  82.2240012 104.4054997   6.8769988  81.6701873 104.9341156   6.4648102
  83.0020012 108.5034997   9.2119988  82.9080012 107.9254997   8.4549988
  83.7320012 108.1324997   9.7079988  83.0877981 108.3742390   9.1754165
  82.0020012 103.8444997  10.1639988  82.5680012 103.9654997   9.4009988
  82.3210012 104.4814997  10.8029988  82.1225786 103.9471884  10.1460040
  88.3110012 109.3474997  10.8979988  88.0710012 110.0094997  11.5459988
  88.1130012 108.5134997  11.3229988  88.2513808 109.3253134  11.0441524
  82.8820012 108.2434997  14.8809988  82.5710012 109.0254997  15.3359988
  82.2320012 108.0904997  14.1949988  82.7515558 108.3299105  14.8505871
  88.8610012 103.6074997   2.3329988  89.4410012 103.7574997   3.0799988
  89.2750012 104.0784997   1.6099988  88.9962830 103.6916841   2.3374134
  79.8020012 104.4414997  14.1099988  79.8730012 105.0924997  14.8079988
  78.9120012 104.5444997  13.7749988  79.6913117 104.5445936  14.1602700
  86.5880012 110.3444997   5.7679988  87.0620012 110.6394997   6.5459988
  86.0250012 111.0824997   5.5349988  86.5767653 110.4846932   5.8430136
  81.1220012 110.3154997  15.6439988  81.1290012 110.1794997  14.6969988
  80.2060012 110.1974997  15.8959988  80.9991714 110.2809430  15.5484666
  92.5600012  95.3574997   2.1459988  91.6600012  95.4964997   2.4409988
  92.8120012  96.1884997   1.7439988  92.4708702  95.4889074   2.1320205
  80.6260012 104.1454997   4.1199988  80.3340012 104.9134997   3.6289988
  79.9520012 103.4854997   3.9569988  80.4949081 104.1614406   4.0307340
  93.7490012 109.7234997   0.5219988  93.8230012 110.6624997   0.6929988
  94.6550012 109.4184997   0.4659988  93.8815100 109.8106722   0.5378119
  76.7190012 106.5084997  12.9349988  76.2180012 106.4804997  12.1199988
  76.7240012 105.6024997  13.2439988  76.6511526 106.3822278  12.8652872
  76.4690012 109.2884997   9.8189988  77.4150012 109.1444997   9.7999988
  76.3570012 110.0724997  10.3559988  76.5832727 109.3748046   9.8890072
  94.6670012 109.9544997  15.5009988  94.6180012 108.9994997  15.4639988
  93.8400012 110.2224997  15.9019988  94.5484940 109.8598998  15.5501375
  85.6460012 109.5284997  14.3769988  85.7330012 110.3544997  14.8519988
  84.7820012 109.1984997  14.6259988  85.5411964 109.5969878  14.4756549
  86.0600012 113.3004997   4.1829988  85.9850012 113.1794997   3.2369988
  86.0930012 114.2504997   4.3019988  86.0541848 113.4122500   4.0694834
  79.7130012 112.0894997   5.9639988  79.8660012 111.7414997   6.8429988
  78.8630012 111.7334997   5.7089988  79.6188962 111.9936650   6.0498340
  89.1620012 112.4544997   1.1849988  89.5370012 111.7104997   0.7149988
  89.1660012 112.1844997   2.1039988  89.2138915 112.3161486   1.2447824
  88.8310012 112.3804997   3.9349988  87.8950012 112.4804997   4.1129988
  89.1110012 111.6714997   4.5129988  88.7408255 112.2982711   4.0375391
  91.8190012 101.4474997  15.9809988  91.4120012 101.9284997  15.2599988
  91.8600012 100.5424997  15.6729988  91.7688437 101.3909374  15.8406683
  78.9680012 107.8314997  13.9779988  79.1840012 107.4704997  14.8369988
  78.1130012 107.4574997  13.7679988  78.8819292 107.7314111  14.0673386
  81.5870012  96.3014997   9.9729988  80.7250012  96.2144997   9.5659988
  81.5640012  97.1574997  10.4009988  81.4660330  96.4052765   9.9751863
  86.2500012  96.0234997  13.3479988  86.6700012  95.6084997  14.1009988
  85.3170012  95.8454997  13.4649988  86.1813644  95.9425900  13.4669539
  89.5760012  99.7794997  14.2009988  89.0620012  99.6534997  14.9989988
  89.4210012 100.6914997  13.9569988  89.4846852  99.8856132  14.2772158
  90.3390012 104.6404997  -0.0370012  90.3810012 104.4174997  -0.9670012
  91.1880012 105.0394997   0.1529988  90.4595396 104.6639155  -0.1386373
  85.9110012  98.5164997   0.6329988  85.6580012  98.5354997   1.5559988
  85.6550012  97.6444997   0.3319988  85.8417790  98.4012437   0.7186263
  81.6780012 101.2674997  11.0679988  81.0360012 101.2264997  11.7769988
  81.7150012 102.1934997  10.8309988  81.5951324 101.3871559  11.1329824
  81.6750012 101.4884997   5.9799988  80.7820012 101.1474997   5.9219988
  82.1250012 101.1114997   5.2249988  81.6137305 101.3908484   5.8699177
  87.2100012 101.9044997   4.7969988  86.8010012 102.7194997   4.5059988
  87.9310012 101.7644997   4.1829988  87.2514537 101.9972018   4.6741342
  86.3120012 102.0794997  16.2849988  85.7500012 101.3754997  16.6059988
  87.1390012 101.9594997  16.7529988  86.3467095 101.9667883  16.3922330
  88.2150012 101.3504997   7.6109988  88.0200012 101.9554997   6.8959988
  88.3960012 100.5164997   7.1769988  88.2127614 101.3206300   7.4544405
  79.4280012 101.5874997  12.9349988  79.3900012 101.9874997  13.8039988
  78.9370012 100.7704997  13.0259988  79.3564684 101.5318069  13.0661059
  82.7940012  98.9614997  -0.2660012  82.3630012  98.5164997   0.4639988
  82.0760012  99.3334997  -0.7780012  82.6379438  98.9508940  -0.2353201
  76.0360012  98.7034997   6.7859988  76.6670012  98.6744997   7.5049988
  76.4850012  98.2784997   6.0559988  76.1830774  98.6420492   6.7856553
  77.3100012  99.4494997   2.2099988  77.7840012 100.0404997   1.6249988
  76.5930012  99.9804997   2.5569988  77.2779341  99.6020867   2.1768836
  87.4790012 102.9884997  12.2829988  87.8020012 102.3574997  11.6399988
  87.0390012 102.4534997  12.9429988  87.4636895 102.8298441  12.2842850
  84.2560012  98.9154997   7.0669988  83.3450012  98.9724997   7.3549988
  84.7620012  98.8554997   7.8769988  84.1995413  98.9151985   7.2160622
  79.0850012 100.5444997   5.8929988  78.1950012 100.6444997   5.5529988
  79.3810012  99.7024997   5.5469988  79.0032823 100.4443545   5.7997213
  82.7380012 100.5444997   3.5499988  83.6690012 100.6734997   3.7279988
  82.5230012 101.2144997   2.8999988  82.8364247 100.6526565   3.4865747
  88.6610012  98.1504997  10.3309988  87.9850012  98.2814997  10.9949988
  88.1760012  97.9954997   9.5209988  88.5027145  98.1474905  10.3124517
  81.4120012 101.7394997   1.1169988  80.8690012 101.3594997   0.4249988
  82.2450012 101.9334997   0.6879988  81.4504399 101.7138124   0.9644526
  91.9490012 113.8224997  16.6079988  92.1490012 114.2464997  15.7729988
  92.6040012 114.1654997  17.2149988  92.0650051 113.9269648  16.5757836
  79.5470012 106.2964997  16.2159988  80.2790012 106.5504997  16.7769988
  78.7670012 106.5004997  16.7309988  79.5418232 106.3589177  16.3625760
  85.5760012 101.7034997   8.9539988  86.1410012 101.1564997   8.4069988
  85.4290012 101.1814997   9.7419988  85.6332918 101.5582024   8.9858454
  80.5780012  97.8394997   5.3719988  80.2610012  96.9374997   5.3369988
  81.3600012  97.8414997   4.8189988  80.6402284  97.7161628   5.2924783
  84.2030012 100.0914997  11.3679988  83.3670012 100.5454997  11.4779988
  84.7270012 100.3674997  12.1199988  84.1594414 100.1909376  11.4847136
  84.7470012 106.3044997   3.0519988  84.0020012 105.7974997   2.7299988
  84.6130012 106.3534997   3.9989988  84.6268776 106.2416940   3.1358647
  91.8970012 105.4374997  11.8389988  92.5390012 105.8944997  11.2949988
  91.0670012 105.5504997  11.3759988  91.8725963 105.5152704  11.7020177
  88.6450012  99.1184997   1.2519988  87.7060012  99.2304997   1.0999988
  88.9420012  99.9754997   1.5579988  88.5567666  99.2496443   1.2725768
  86.2660012 106.4884997  14.2889988  85.9210012 106.1074997  15.0959988
  86.0660012 107.4224997  14.3609988  86.1918061 106.5625228  14.4090961
  89.3630012 100.9854997   2.9119988  90.2550012 100.8484997   3.2309988
  89.4200012 101.7764997   2.3759988  89.4926285 101.0736660   2.8831691
  79.8720012 105.5994997   8.8219988  80.6170012 105.5974997   8.2209988
  79.9500012 104.7764997   9.3039988  79.9845518 105.4879315   8.8048929
  86.8730012 107.7634997   2.0779988  86.5770012 108.5894997   2.4589988
  86.1700012 107.1434997   2.2739988  86.7374914 107.7928199   2.1566443
  76.8800012 104.0604997  14.1369988  77.1030012 103.6424997  14.9689988
  76.2780012 103.4474997  13.7139988  76.8291759 103.9204668  14.1937022
  83.8960012 103.5774997  16.3499988  83.6000012 103.4114997  15.4549988
  84.8280012 103.3574997  16.3389988  83.9814166 103.5250640  16.2260536
  88.5170012 108.9504997  14.2399988  87.6160012 109.1334997  13.9719988
  88.5510012 109.2094997  15.1609988  88.3983041 109.0105512  14.3278197
  94.2480012 101.1954997   2.6069988  93.6940012 100.7994997   1.9349988
  94.3480012 102.1054997   2.3289988  94.1857059 101.2643586   2.4774401
  94.2110012 106.9954997  15.4439988  93.3600012 107.2334997  15.0769988
  94.8020012 106.9784997  14.6909988  94.1742487 107.0258258  15.2918893
  92.5430012 109.9814997   3.0719988  92.1700012 109.1554997   3.3809988
  92.8210012 109.7984997   2.1749988  92.5295630 109.8437303   2.9929626
  89.7040012 104.7894997  10.0929988  88.7750012 104.5574997  10.0659988
  90.1550012 104.0124997   9.7629988  89.6379216 104.6527238  10.0446917
  82.2470012 109.1174997   6.2259988  82.7740012 109.8904997   6.0259988
  81.3670012 109.3424997   5.9249988  82.2001773 109.2538005   6.1579010
  78.0020012 103.9794997   0.8129988  78.6180012 104.6064997   1.1929988
  77.1400012 104.2954997   1.0849988  77.9697698 104.1079430   0.9017183
  83.6740012 106.7804997   5.8029988  83.4330012 107.7054997   5.8439988
  82.9330012 106.3214997   6.1989988  83.5408409 106.8451421   5.8621377
  84.1890012 110.9294997  12.1179988  84.5510012 111.7844997  11.8839988
  84.7200012 110.6374997  12.8579988  84.3104473 111.0071060  12.1860855
  82.3570012 111.8024997   5.3479988  81.4070012 111.9074997   5.3989988
  82.7090012 112.6224997   5.6929988  82.2744203 111.9278314   5.4016650
  87.7330012 107.0284997  11.8179988  87.3070012 106.8014997  12.6449988
  88.3130012 106.2904997  11.6359988  87.7531868 106.8975299  11.9065830
  89.9360012 107.9574997   0.8919988  90.2890012 107.5774997   1.6969988
  88.9870012 107.8644997   0.9789988  89.8560441 107.8929596   1.0138559
  90.3910012 111.5804997  14.2879988  89.7900012 111.0254997  13.7919988
  90.6730012 112.2474997  13.6619988  90.3468519 111.5946841  14.1354952
  94.4390012 112.4374997   1.0929988  95.1830012 113.0234997   0.9529988
  93.7450012 113.0054997   1.4269988  94.4470292 112.5945582   1.1189961
  78.5140012  98.8134997  13.6949988  77.6210012  99.1524997  13.6269988
  78.4150012  97.9584997  14.1129988  78.3784164  98.7442588  13.7422235
  90.8020012 106.6304997   3.1189988  90.5240012 105.9024997   3.6749988
  91.7290012 106.7494997   3.3239988  90.8893124 106.5468802   3.2228845
  78.1650012 110.6184997  12.1299988  78.3820012 109.6864997  12.0989988
  78.4110012 110.8924997  13.0129988  78.2279549 110.5280636  12.2451763
  84.0270012 109.0694997  -0.6610012  84.2660012 108.3214997  -1.2080012
  83.7580012 108.6814997   0.1719988  84.0233675 108.9146638  -0.6233135
  82.9640012 108.6394997   1.7959988  83.1100012 108.1194997   2.5859988
  82.9610012 109.5464997   2.1019988  82.9835989 108.6908853   1.9456088
  79.4170012 105.8924997   2.3059988  78.7310012 106.2444997   2.8729988
  79.9390012 106.6554997   2.0589988  79.3936852 106.0438578   2.3502118
  87.2480012  98.5544997  12.5849988  87.9470012  98.6284997  13.2349988
  86.8670012  97.6904997  12.7389988  87.2921767  98.4477624  12.6948322
  88.0330012  98.2064997   3.6819988  88.2530012  98.6784997   2.8789988
  88.5910012  98.6014997   4.3519988  88.1384968  98.3244285   3.6627331
  85.7010012 110.3374997   2.5449988  84.8850012 110.8344997   2.5969988
  86.2310012 110.8124997   1.9049988  85.6609161 110.4697722   2.4655956
  85.2330012  99.9344997   4.5169988  86.0450012 100.4394997   4.5629988
  84.9880012  99.7894997   5.4309988  85.3110520  99.9840375   4.6468517
  85.7680012 100.9204997  13.7019988  85.8870012 101.4944997  14.4589988
  86.4240012 100.2324997  13.8159988  85.8729757 100.9061079  13.8210825
  86.1160012  97.0154997   5.4549988  85.7700012  97.6334997   6.0999988
  86.7750012  97.5164997   4.9739988  86.1577826  97.1675802   5.4780971
  83.0400012 111.3814997   2.5269988  83.2000012 112.1804997   2.0259988
  82.8420012 111.6874997   3.4119988  83.0351649 111.5324469   2.5779815
  81.7740012  98.0784997   2.1419988  81.6910012  98.9674997   2.4889988
  82.6640012  97.8134997   2.3739988  81.8829469  98.1641430   2.2207626
  91.9730012  98.8274997  14.5369988  91.0560012  99.0904997  14.4489988
  92.3080012  98.8244997  13.6399988  91.8929900  98.8630224  14.4037919
  90.5750012 102.5784997   8.6319988  89.7770012 102.1634997   8.3039988
  91.0200012 101.8874997   9.1229988  90.5259885 102.4283543   8.6534889
  80.0330012 108.5064997   1.2029988  80.6250012 109.2054997   1.4789988
  80.4920012 108.0734997   0.4829988  80.1761142 108.5437049   1.1434830
  78.3490012 101.1704997   0.3189988  78.3040012 102.1094997   0.4969988
  77.4610012 100.9344997   0.0489988  78.2228574 101.2671892   0.3068912
  91.6610012 111.8344997  10.2549988  91.5060012 112.5124997   9.5979988
  92.5940012 111.9064997  10.4579988  91.7658500 111.9370170  10.1925119
  79.1570012  95.9524997   8.9919988  78.9280012  96.0114997   8.0639988
  78.7140012  95.1604997   9.2979988  79.0658530  95.8535753   8.9064786
  78.0870012 109.8924997   5.1519988  77.2550012 110.3654997   5.1799988
  78.6330012 110.4024997   4.5539988  78.0469739 110.0261871   5.0749716
  77.3750012 112.5054997  16.4819988  77.9160012 112.2884997  17.2419988
  76.8940012 111.6994997  16.2929988  77.3839345 112.3669514  16.5603076
  81.9730012 111.4244997  18.1029988  82.7400012 110.9654997  18.4439988
  81.9510012 111.1984997  17.1729988  82.0751434 111.3310409  18.0240043
  86.0650012 110.9324997  -0.5220012  85.4210012 110.3014997  -0.2010012
  86.8270012 110.4014997  -0.7540012  86.0798077 110.7742920  -0.5093989
  88.5500012 109.8044997  16.8319988  88.1990012 108.9484997  17.0749988
  89.2760012 109.9474997  17.4389988  88.6000769 109.7065636  16.9473619
  90.6690012 110.7494997  -0.2880012  90.9520012 109.9554997   0.1639988
  91.4090012 110.9824997  -0.8490012  90.8077486 110.6722803  -0.3019302
  77.2820012 106.3154997  17.4369988  77.4260012 105.4134997  17.1499988
  76.5100012 106.6014997  16.9489988  77.1973322 106.2308261  17.3317881
  81.6240012 106.6594997  -0.4310012  81.6880012 105.8654997   0.0999988
  82.2770012 106.5404997  -1.1210012  81.7210241 106.5347148  -0.4515683
  83.9380012 106.2854997  16.8689988  83.6090012 106.5564997  16.0119988
  84.0900012 105.3444997  16.7819988  83.9134809 106.1953862  16.7398244
  86.9760012 107.7064997  -0.6950012  86.7070012 107.8864997   0.2059988
  86.7700012 106.7804997  -0.8260012  86.9113825 107.6060152  -0.5894786
  89.6720012 106.2014997  14.2529988  90.4180012 106.7894997  14.1329988
  88.9150012 106.7834997  14.3159988  89.6717554 106.3607011  14.2450907
  78.1150012 103.5154997  16.8569988  78.5230012 102.6584997  16.7359988
  77.8550012 103.5304997  17.7779988  78.1357568 103.4000807  16.9649588
  82.7730012 104.6314997   1.8749988  82.3130012 104.1474997   2.5609988
  83.0280012 103.9634997   1.2389988  82.7444902 104.4748731   1.8829334
  82.0620012 102.5244997  14.2309988  81.4440012 103.1994997  14.5109988
  82.4060012 102.8454997  13.3979988  82.0239615 102.6602721  14.1566581
  83.8440012 102.8744997   0.1369988  83.6640012 102.7204997  -0.7900012
  84.7940012 102.9824997   0.1819988  83.9477776 102.8680175   0.0161843
  87.0820012 104.9964997  17.5079988  88.0350012 105.0794997  17.4809988
  86.9210012 104.2844997  18.1279988  87.1906426 104.9116746  17.5880579
  93.2340012 105.2294997  -0.4170012  92.9600012 104.8044997  -1.2300012
  93.2730012 106.1604997  -0.6340012  93.2017699 105.2972484  -0.5576390
  82.4010012  99.8794997  15.3129988  82.5510012  99.1504997  14.7109988
  82.4040012 100.6564997  14.7539988  82.4219302  99.8847851  15.1550692
  82.8140012  98.2494997  12.8059988  83.3500012  98.7004997  12.1539988
  81.9620012  98.1414997  12.3829988  82.7722178  98.2966390  12.6595756
  84.3960012 103.6884997  13.0449988  85.1460012 103.5324997  12.4719988
  84.0570012 104.5404997  12.7699988  84.4528921 103.7822968  12.9293561
  88.8110012 101.5034997  18.0739988  89.0040012 100.5724997  17.9619988
  89.6690012 101.9284997  18.0639988  88.9533020 101.4336389  18.0573361
  90.1280012 104.2924997  16.1509988  89.8470012 105.0014997  15.5739988
  91.0710012 104.2194997  15.9999988  90.2169027 104.3797646  16.0515551
  80.8800012 101.0774997  17.2249988  80.1130012 100.5454997  17.0149988
  81.5590012 100.7674997  16.6249988  80.8667022 100.9627506  17.1151648
  83.6200012  95.7054997  13.2369988  83.5210012  96.6524997  13.1319988
  82.8770012  95.3334997  12.7619988  83.5060564  95.7845902  13.1584560
  84.8840012 100.0274997  16.8009988  84.6480012  99.8074997  17.7029988
  84.1000012  99.8204997  16.2909988  84.7458628  99.9694760  16.8553932
  87.5990012  99.1544997  15.8769988  86.6520012  99.1864997  16.0089988
  87.9120012  98.5294997  16.5299988  87.5115475  99.0743207  15.9834455
  89.2330012  97.7884997  17.8819988  89.1370012  96.8364997  17.8759988
  88.9120012  98.0574997  18.7419988  89.1764070  97.6944035  17.9975441
  79.0600012  98.9984997  16.9289988  79.2720012  98.2914997  16.3189988
  78.9490012  98.5604997  17.7729988  79.0739721  98.8427084  16.9596843
  83.8410012  94.9994997  15.9089988  84.5530012  94.3594997  15.8949988
  83.7400012  95.2664997  14.9949988  83.9247939  94.9479938  15.7835650
  84.1950012  96.6824997  17.9619988  84.0630012  96.2064997  17.1419988
  83.5960012  97.4264997  17.9069988  84.0959071  96.7179618  17.8422886
  83.7410012 113.5654997   1.1389988  84.6740012 113.7234997   1.2819988
  83.4770012 114.2404997   0.5139988  83.8329510 113.6783611   1.0740741
  77.3100012 108.2014997   0.6209988  78.2240012 108.2804997   0.8949988
  77.3170012 107.5144997  -0.0450012  77.4361131 108.1193961   0.5684393
  75.9590012 113.5944997   5.6989988  75.3120012 113.1324997   5.1659988
  76.3130012 112.9224997   6.2809988  75.9183849 113.4404723   5.7047959
  76.8290012 111.6754997   7.5029988  76.4940012 110.7954997   7.6749988
  77.0510012 112.0204997   8.3679988  76.8131783 111.6017500   7.6434208
  94.3770012 112.4844997  10.4839988  94.3560012 112.6694997  11.4229988
  95.0680012 113.0534997  10.1429988  94.4674618 112.5866606  10.5663864
  93.9410012 112.0524997  13.4059988  93.4530012 111.3164997  13.0349988
  94.4900012 111.6584997  14.0839988  93.9484872 111.8986249  13.4469160
  92.3910012 107.8414997  18.0439988  91.5250012 107.7364997  18.4379988
  92.7680012 108.6004997  18.4899988  92.3233308 107.9296900  18.1582393
  93.6920012 106.0984997   3.5579988  94.5420012 106.5194997   3.6849988
  93.6980012 105.3584997   4.1649988  93.8091372 106.0560803   3.6574344
  94.0870012 104.1514997   5.3819988  93.3600012 103.6724997   5.7789988
  94.6680012 104.3574997   6.1139988  94.0659375 104.1137090   5.5354129
  93.8460012 106.9364997  10.3289988  94.6790012 106.5584997  10.0489988
  93.9580012 107.8794997  10.2099988  93.9752647 107.0122218  10.2745487
  92.3320012 109.8144997  12.6359988  91.6850012 110.1394997  13.2619988
  91.8150012 109.3744997  11.9619988  92.1734029 109.7995004  12.6305827
  94.3550012 104.0524997   1.7729988  93.8330012 104.4094997   1.0539988
  94.3220012 104.7274997   2.4509988  94.2791634 104.1925413   1.7663145
  92.7040012 101.2924997   0.3239988  92.8000012 101.9594997  -0.3570012
  92.5640012 100.4764997  -0.1580012  92.6982135 101.2734500   0.1658491
  91.8730012 102.6724997   5.9449988  91.7230012 101.7274997   5.9239988
  91.5200012 102.9534997   6.7879988  91.8046625 102.5810441   6.0562346
  76.9090012 104.7504997   9.9549988  77.0930012 104.6684997   9.0189988
  77.7580012 104.6264997  10.3789988  77.0490139 104.7225003   9.8841455
  92.7300012 104.6424997  15.5829988  93.3130012 103.9084997  15.7749988
  93.2940012 105.4144997  15.6299988  92.8859769 104.6464227  15.6156159
  94.2260012 102.5454997  16.2679988  93.3630012 102.1664997  16.1019988
  94.8310012 101.8064997  16.1939988  94.1895979 102.3938023  16.2352817
  91.9510012  98.7004997  -0.5590012  92.5620012  98.3294997   0.0779988
  91.1150012  98.2794997  -0.3630012  91.9215032  98.5927554  -0.4452965
  91.5840012 100.2554997   4.4069988  91.8640012  99.3484997   4.5309988
  92.3430012 100.6894997   4.0179988  91.7249277 100.1900942   4.3713682
  92.1960012 100.8364997   9.8429988  93.1290012 101.0484997   9.8089988
  91.9610012 100.9384997  10.7649988  92.2918036 100.8792769   9.9629976
  92.2250012 101.5734997  12.6189988  91.3820012 101.8414997  12.9849988
  92.6670012 102.3954997  12.4079988  92.1694158 101.7213291  12.6405491
  76.5060012 100.0214997  16.0959988  77.4260012  99.8994997  16.3319988
  76.0570012  99.2714997  16.4849988  76.5711580  99.9033727  16.1809006
  94.5080012  95.5534997  17.9719988  94.8580012  94.8994997  17.3669988
  94.6550012  96.3904997  17.5329988  94.5758419  95.5771591  17.8297118
  92.1970012  97.5184997   4.4549988  92.3800012  97.0694997   5.2809988
  91.5980012  96.9334997   3.9919988  92.1410202  97.3779975   4.5053275
  77.7270012  98.3334997   8.9869988  78.1730012  97.5414997   9.2889988
  78.1940012  99.0494997   9.4179988  77.8510172  98.3220624   9.0864820
  76.0310012 101.3324997  10.0559988  76.5230012 101.1114997   9.2649988
  76.3940012 102.1734997  10.3369988  76.1473126 101.4158357   9.9857531
  94.0280012  97.6624997  16.3219988  93.1100012  97.9334997  16.2859988
  94.1510012  97.1274997  15.5369988  93.9191066  97.6272892  16.2110487
  94.0640012  97.5854997   0.9829988  94.4760012  96.8644997   0.5079988
  94.7460012  98.2554997   1.0419988  94.2125885  97.5772368   0.9258915
  76.3450012  97.5904997   4.1099988  75.4200012  97.7994997   3.9809988
  76.7990012  98.0744997   3.4209988  76.2797368  97.6845993   3.9991226
  91.1160012 112.5744997   6.0559988  91.7680012 112.2274997   5.4479988
  91.6260012 113.0634997   6.7019988  91.2742637 112.5930597   6.0600236
  76.3090012  96.3284997  12.4549988  75.6440012  96.0824997  13.0979988
  75.8660012  96.9504997  11.8769988  76.1580956  96.3788632  12.4649352
  78.5010012 109.5034997  16.5989988  77.6800012 109.6784997  16.1389988
  78.2480012 109.4304997  17.5199988  78.3546164 109.5175622  16.6604923
  81.4550012 110.4784997  12.8579988  81.0300012 111.2874997  12.5749988
  82.3590012 110.5634997  12.5559988  81.5190271 110.6008469  12.7783776
  85.7660012 111.8774997  15.8169988  85.9510012 111.5434997  16.6949988
  86.6120012 112.1864997  15.4949988  85.9057539 111.8736047  15.8935605
  88.1110012 113.1634997  15.0609988  88.7880012 112.5304997  14.8209988
  88.4330012 113.5644997  15.8679988  88.2471637 113.1311154  15.1372793
  93.0280012  95.7524997  14.1409988  92.2160012  96.0774997  13.7529988
  93.2610012  94.9924997  13.6079988  92.9483423  95.6942436  14.0158253
  78.8570012 113.7344997  12.9049988  78.1360012 114.1744997  12.4539988
  78.4910012 113.4834997  13.7539988  78.7089804 113.7607698  12.9579840
  81.3240012 113.3344997  11.9349988  80.4590012 113.4064997  12.3389988
  81.2690012 113.8814997  11.1509988  81.1982085 113.4182685  11.8843362
  86.0340012 113.2224997  11.1099988  85.5780012 113.7514997  10.4559988
  86.1970012 113.8254997  11.8359988  85.9935585 113.3764468  11.1185062
  88.3620012 112.1004997  12.0549988  87.4570012 112.2654997  11.7899988
  88.7910012 112.9534997  11.9899988  88.2960799 112.2384483  12.0099182
  90.9660012 113.6704997  12.3499988  90.7840012 114.5864997  12.1399988
  91.1430012 113.2604997  11.5039988  90.9650210 113.7404822  12.2067885
  78.2710012 112.3574997   9.8149988  78.2530012 111.9324997  10.6729988
  79.0760012 112.0394997   9.4069988  78.3773875 112.2563812   9.8771655
  80.4130012 111.0674997   8.4699988  80.1940012 110.1514997   8.6399988
  81.2370012 111.2074997   8.9359988  80.4944420 110.9610520   8.5562774
  82.9500012 111.5374997   9.3189988  83.1630012 110.6494997   9.0319988
  83.0140012 111.5034997  10.2729988  82.9878232 111.4113102   9.4087397
  86.4580012  97.2014997   8.4629988  85.7840012  96.5724997   8.7189988
  87.0220012  96.7174997   7.8599988  86.4419230  97.0498744   8.4165340
  91.6010012  95.3094997   8.5759988  92.2050012  95.8564997   8.0739988
  90.7310012  95.6284997   8.3359988  91.5661241  95.4275806   8.4747654
  93.3280012  96.4474997   6.9089988  93.9400012  95.9334997   6.3829988
  93.7100012  97.3254997   6.9329988  93.4634540  96.4957140   6.8401830
  78.7850012  95.8354997   6.2849988  78.0080012  95.6014997   5.7779988
  79.3150012  95.0384997   6.2939988  78.7502330  95.6956988   6.2167742
  77.6210012  95.6334997   2.0889988  78.0600012  96.2444997   1.4969988
  76.9880012  96.1714997   2.5629988  77.5954514  95.7899257   2.0720930
  83.3640012  95.7624997   6.0989988  84.2390012  96.1504997   6.0689988
  83.2280012  95.5474997   7.0209988  83.4653695  95.7865184   6.2196440
  88.9210012  95.7924997   7.7479988  88.9970012  95.8874997   6.7979988
  88.6460012  94.8844997   7.8769988  88.8942321  95.6827867   7.6355079
  90.2740012  95.8184997   3.4399988  89.5720012  96.4334997   3.2309988
  89.8300012  94.9804997   3.5709988  90.1176330  95.7895783   3.4290328
  77.5220012 111.5814997   2.9869988  76.8370012 111.5434997   2.3189988
  77.5260012 112.4944997   3.2749988  77.4288193 111.6997016   2.9345284
  79.4820012  97.5494997   0.5309988  79.9740012  96.9194997   0.0039988
  80.1060012  97.8454997   1.1949988  79.6335446  97.5033199   0.5485980
  84.5080012  97.8424997   2.9879988  84.6860012  97.1964997   3.6709988
  84.4550012  98.6764997   3.4559988  84.5251829  97.8667985   3.1445940
  86.3870012 112.7914997   1.3839988  87.2530012 113.1574997   1.2059988
  86.1400012 112.3514997   0.5699988  86.4722392 112.7821756   1.2496289
  93.0960012 112.3544997   4.0629988  92.9010012 111.6064997   3.4979988
  93.0570012 113.1124997   3.4799988  93.0640380 112.3546099   3.9068384
  78.7430012  96.3494997  15.8029988  78.3770012  95.5844997  16.2459988
  79.6560012  96.3784997  16.0899988  78.8162790  96.2487224  15.9024070
  80.7160012  95.7004997  17.3389988  81.6140012  95.4264997  17.1539988
  80.3290012  94.9574997  17.8029988  80.7866612  95.5625914  17.3763643
  79.3400012 112.5014997   0.0119988  79.0730012 112.7884997   0.8849988
  80.1120012 111.9554997   0.1639988  79.4077488 112.4670294   0.1521050
  89.1370012  95.0324997  17.5209988  89.2140012  94.6064997  18.3749988
  90.0310012  95.0464997  17.1779988  89.2683428  94.9760879  17.5915310
  92.3130012 111.1054997  16.2129988  91.5310012 110.9194997  15.6939988
  92.2410012 112.0344997  16.4309988  92.1961777 111.2056492  16.1714048
 106.7190012 104.9914997   6.2439988 106.8080012 105.9354997   6.1119988
 106.0810012 104.7164997   5.5859988 106.6449081 105.0834830   6.1369614
 105.6520012 104.2464997   9.6629988 105.6140012 103.6004997  10.3679988
 105.3300012 103.7804997   8.8919988 105.6032333 104.0949408   9.6552978
  98.0210012 103.8614997  11.2559988  98.0620012 103.2354997  11.9789988
  98.7240012 104.4854997  11.4379988  98.1216363 103.8601196  11.3796044
 109.3580012 107.1854997   7.9639988 108.9180012 106.4654997   8.4149988
 109.3450012 107.9064997   8.5939988 109.2960226 107.1843731   8.1108494
  98.9440012 108.3114997   9.7909988  98.5750012 107.5094997   9.4209988
  99.8850012 108.1424997   9.8369988  99.0207289 108.1790153   9.7466316
  95.5540012 101.9714997   5.1839988  95.1070012 102.8174997   5.1649988
  94.9930012 101.3914997   4.6679988  95.4169900 102.0089916   5.1116801
  96.2650012 104.1334997   7.3099988  96.4780012 103.3634997   7.8369988
  97.0030012 104.2224997   6.7059988  96.3938496 104.0401394   7.3005300
 106.4700012 112.2904997   8.1769988 107.0900012 111.6134997   7.9029988
 106.2620012 112.0724997   9.0849988 106.5266904 112.1683870   8.2623365
 104.0420012 106.6794997  10.0689988 104.3460012 105.9934997   9.4739988
 104.7630012 106.7974997  10.6869988 104.1810671 106.6016304  10.0711816
 112.7050012  98.2804997  10.9299988 112.7540012  98.8904997  11.6659988
 113.1300012  98.7414997  10.2069988 112.7691824  98.4263741  10.9330205
 107.1830012 101.0734997  10.3969988 107.3250012 100.1274997  10.4169988
 107.0760012 101.2804997   9.4679988 107.1879863 100.9719534  10.2742339
 100.3370012  99.1744997   7.6689988 100.3810012 100.0344997   7.2509988
  99.8800012  98.6224997   7.0349988 100.2812185  99.2175799   7.5260299
 108.0600012  99.3054997   6.0699988 108.7060012  98.9764997   6.6949988
 108.5700012  99.8234997   5.4469988 108.2174264  99.3304611   6.0713862
  96.9580012 101.5714997   8.4309988  97.6110012 101.0214997   8.8629988
  96.9820012 101.2974997   7.5139988  97.0506683 101.4591466   8.3662123
 102.1140012 103.1214997   7.6459988 102.7300012 102.5954997   8.1559988
 101.5280012 102.4814997   7.2429988 102.1190810 102.9629208   7.6613173
 113.0960012  99.7584997  13.1659988 112.4080012 100.4164997  13.0699988
 113.1120012  99.5614997  14.1019988 113.0038525  99.8220462  13.2794808
  99.1480012  98.0924997  11.7429988  98.9290012  98.6224997  10.9769988
  98.4800012  98.3194997  12.3899988  99.0277600  98.1956906  11.7256379
 106.5170012 107.5924997   5.2869988 106.2210012 107.2704997   4.4359988
 106.1920012 108.4924997   5.3279988 106.4326371 107.6700215   5.1761801
 101.7170012 105.7684997  12.0299988 100.9770012 106.3664997  12.1339988
 102.4310012 106.3224997  11.7149988 101.7122237 105.9252831  12.0016465
 109.8240012  98.5964997   8.0499988 109.6080012  97.8304997   8.5829988
 110.4790012  99.0684997   8.5629988 109.8830632  98.5555889   8.1922861
  98.7410012  99.9844997   9.6949988  99.3550012 100.6174997  10.0689988
  99.2530012  99.5124997   9.0389988  98.8942296 100.0072370   9.6574252
 100.1240012 107.7324997  12.8179988 100.1190012 108.6124997  12.4399988
  99.2710012 107.6494997  13.2429988 100.0079464 107.8416117  12.8237907
  96.2450012 107.4034997   3.5999988  95.9730012 107.6324997   2.7109988
  96.2910012 108.2414997   4.0599988  96.2140094 107.5481213   3.5405697
 109.8700012 109.0254997  10.3119988 108.9290012 109.0834997  10.4739988
 110.1470012 109.9314997  10.1749988 109.7784679 109.1559443  10.3156815
 110.1710012  97.3114997  11.7299988 109.4350012  97.9224997  11.6919988
 110.8540012  97.7264997  11.2029988 110.1626541  97.4511374  11.6535832
 103.1740012  95.3984997   9.1959988 103.0570012  94.4494997   9.1409988
 102.3190012  95.7304997   9.4689988 103.0423733  95.3135409   9.2253897
 108.1220012 110.8064997   6.9379988 108.5480012 110.0994997   6.4529988
 108.4390012 111.6074997   6.5209988 108.2231019 110.8180994   6.8153130
 109.2820012 108.7074997   5.4459988 109.0240012 108.0174997   4.8349988
 109.3530012 108.2644997   6.2919988 109.2562856 108.5532124   5.4766885
 110.9680012 107.2734997  13.9239988 111.1080012 106.6824997  13.1839988
 111.1350012 108.1464997  13.5669988 111.0096778 107.3106426  13.7746965
 105.4410012 104.2354997   3.6959988 104.7290012 104.7704997   3.3439988
 106.1320012 104.2914997   3.0359988 105.4370132 104.3162543   3.5586289
 105.4940012 102.6934997   0.7349988 106.1950012 102.7154997   1.3859988
 105.7970012 102.0654997   0.0789988 105.6307830 102.6116566   0.7353711
 112.8100012 103.6134997  11.9899988 112.1570012 104.3084997  12.0789988
 113.2750012 103.8234997  11.1799988 112.7835390 103.7369425  11.8926883
 108.8460012 104.4454997   4.6479988 108.1140012 104.6734997   5.2209988
 109.2940012 103.7314997   5.1029988 108.8063095 104.3802571   4.7879119
 108.7440012 102.6194997  13.7149988 108.8240012 103.3824997  14.2869988
 108.1420012 102.8984997  13.0249988 108.6735756 102.7617134  13.7000589
 100.4920012 105.0754997   6.5299988 100.1610012 104.7054997   5.7119988
 101.0800012 104.4054997   6.8769988 100.5261873 104.9341156   6.4648102
 101.8580012 108.5034997   9.2119988 101.7640012 107.9254997   8.4549988
 102.5880012 108.1324997   9.7079988 101.9437981 108.3742390   9.1754165
 100.8580012 103.8444997  10.1639988 101.4240012 103.9654997   9.4009988
 101.1770012 104.4814997  10.8029988 100.9785786 103.9471884  10.1460040
 107.1670012 109.3474997  10.8979988 106.9270012 110.0094997  11.5459988
 106.9690012 108.5134997  11.3229988 107.1073808 109.3253134  11.0441524
 101.7380012 108.2434997  14.8809988 101.4270012 109.0254997  15.3359988
 101.0880012 108.0904997  14.1949988 101.6075558 108.3299105  14.8505871
 107.7170012 103.6074997   2.3329988 108.2970012 103.7574997   3.0799988
 108.1310012 104.0784997   1.6099988 107.8522830 103.6916841   2.3374134
  98.6580012 104.4414997  14.1099988  98.7290012 105.0924997  14.8079988
  97.7680012 104.5444997  13.7749988  98.5473117 104.5445936  14.1602700
 105.4440012 110.3444997   5.7679988 105.9180012 110.6394997   6.5459988
 104.8810012 111.0824997   5.5349988 105.4327653 110.4846932   5.8430136
  99.9780012 110.3154997  15.6439988  99.9850012 110.1794997  14.6969988
  99.0620012 110.1974997  15.8959988  99.8551714 110.2809430  15.5484666
 111.4160012  95.3574997   2.1459988 110.5160012  95.4964997   2.4409988
 111.6680012  96.1884997   1.7439988 111.3268702  95.4889074   2.1320205
  99.4820012 104.1454997   4.1199988  99.1900012 104.9134997   3.6289988
  98.8080012 103.4854997   3.9569988  99.3509081 104.1614406   4.0307340
 112.6050012 109.7234997   0.5219988 112.6790012 110.6624997   0.6929988
 113.5110012 109.4184997   0.4659988 112.7375100 109.8106722   0.5378119
  95.5750012 106.5084997  12.9349988  95.0740012 106.4804997  12.1199988
  95.5800012 105.6024997  13.2439988  95.5071526 106.3822278  12.8652872
  95.3250012 109.2884997   9.8189988  96.2710012 109.1444997   9.7999988
  95.2130012 110.0724997  10.3559988  95.4392727 109.3748046   9.8890072
 113.5230012 109.9544997  15.5009988 113.4740012 108.9994997  15.4639988
 112.6960012 110.2224997  15.9019988 113.4044940 109.8598998  15.5501375
 104.5020012 109.5284997  14.3769988 104.5890012 110.3544997  14.8519988
 103.6380012 109.1984997  14.6259988 104.3971964 109.5969878  14.4756549
 104.9160012 113.3004997   4.1829988 104.8410012 113.1794997   3.2369988
 104.9490012 114.2504997   4.3019988 104.9101848 113.4122500   4.0694834
  98.5690012 112.0894997   5.9639988  98.7220012 111.7414997   6.8429988
  97.7190012 111.7334997   5.7089988  98.4748962 111.9936650   6.0498340
 108.0180012 112.4544997   1.1849988 108.3930012 111.7104997   0.7149988
 108.0220012 112.1844997   2.1039988 108.0698915 112.3161486   1.2447824
 107.6870012 112.3804997   3.9349988 106.7510012 112.4804997   4.1129988
 107.9670012 111.6714997   4.5129988 107.5968255 112.2982711   4.0375391
 110.6750012 101.4474997  15.9809988 110.2680012 101.9284997  15.2599988
 110.7160012 100.5424997  15.6729988 110.6248437 101.3909374  15.8406683
  97.8240012 107.8314997  13.9779988  98.0400012 107.4704997  14.8369988
  96.9690012 107.4574997  13.7679988  97.7379292 107.7314111  14.0673386
 100.4430012  96.3014997   9.9729988  99.5810012  96.2144997   9.5659988
 100.4200012  97.1574997  10.4009988 100.3220330  96.4052765   9.9751863
 105.1060012  96.0234997  13.3479988 105.5260012  95.6084997  14.1009988
 104.1730012  95.8454997  13.4649988 105.0373644  95.9425900  13.4669539
 108.4320012  99.7794997  14.2009988 107.9180012  99.6534997  14.9989988
 108.2770012 100.6914997  13.9569988 108.3406852  99.8856132  14.2772158
 109.1950012 104.6404997  -0.0370012 109.2370012 104.4174997  -0.9670012
 110.0440012 105.0394997   0.1529988 109.3155396 104.6639155  -0.1386373
 104.7670012  98.5164997   0.6329988 104.5140012  98.5354997   1.5559988
 104.5110012  97.6444997   0.3319988 104.6977790  98.4012437   0.7186263
 100.5340012 101.2674997  11.0679988  99.8920012 101.2264997  11.7769988
 100.5710012 102.1934997  10.8309988 100.4511324 101.3871559  11.1329824
 100.5310012 101.4884997   5.9799988  99.6380012 101.1474997   5.9219988
 100.9810012 101.1114997   5.2249988 100.4697305 101.3908484   5.8699177
 106.0660012 101.9044997   4.7969988 105.6570012 102.7194997   4.5059988
 106.7870012 101.7644997   4.1829988 106.1074537 101.9972018   4.6741342
 105.1680012 102.0794997  16.2849988 104.6060012 101.3754997  16.6059988
 105.9950012 101.9594997  16.7529988 105.2027095 101.9667883  16.3922330
 107.0710012 101.3504997   7.6109988 106.8760012 101.9554997   6.8959988
 107.2520012 100.5164997   7.1769988 107.0687614 101.3206300   7.4544405
  98.2840012 101.5874997  12.9349988  98.2460012 101.9874997  13.8039988
  97.7930012 100.7704997  13.0259988  98.2124684 101.5318069  13.0661059
 101.6500012  98.9614997  -0.2660012 101.2190012  98.5164997   0.4639988
 100.9320012  99.3334997  -0.7780012 101.4939438  98.9508940  -0.2353201
  94.8920012  98.7034997   6.7859988  95.5230012  98.6744997   7.5049988
  95.3410012  98.2784997   6.0559988  95.0390774  98.6420492   6.7856553
  96.1660012  99.4494997   2.2099988  96.6400012 100.0404997   1.6249988
  95.4490012  99.9804997   2.5569988  96.1339341  99.6020867   2.1768836
 106.3350012 102.9884997  12.2829988 106.6580012 102.3574997  11.6399988
 105.8950012 102.4534997  12.9429988 106.3196895 102.8298441  12.2842850
 103.1120012  98.9154997   7.0669988 102.2010012  98.9724997   7.3549988
 103.6180012  98.8554997   7.8769988 103.0555413  98.9151985   7.2160622
  97.9410012 100.5444997   5.8929988  97.0510012 100.6444997   5.5529988
  98.2370012  99.7024997   5.5469988  97.8592823 100.4443546   5.7997213
 101.5940012 100.5444997   3.5499988 102.5250012 100.6734997   3.7279988
 101.3790012 101.2144997   2.8999988 101.6924247 100.6526565   3.4865747
 107.5170012  98.1504997  10.3309988 106.8410012  98.2814997  10.9949988
 107.0320012  97.9954997   9.5209988 107.3587145  98.1474905  10.3124517
 100.2680012 101.7394997   1.1169988  99.7250012 101.3594997   0.4249988
 101.1010012 101.9334997   0.6879988 100.3064399 101.7138124   0.9644526
 110.8050012 113.8224997  16.6079988 111.0050012 114.2464997  15.7729988
 111.4600012 114.1654997  17.2149988 110.9210051 113.9269648  16.5757836
  98.4030012 106.2964997  16.2159988  99.1350012 106.5504997  16.7769988
  97.6230012 106.5004997  16.7309988  98.3978232 106.3589177  16.3625760
 104.4320012 101.7034997   8.9539988 104.9970012 101.1564997   8.4069988
 104.2850012 101.1814997   9.7419988 104.4892918 101.5582024   8.9858454
  99.4340012  97.8394997   5.3719988  99.1170012  96.9374997   5.3369988
 100.2160012  97.8414997   4.8189988  99.4962284  97.7161628   5.2924783
 103.0590012 100.0914997  11.3679988 102.2230012 100.5454997  11.4779988
 103.5830012 100.3674997  12.1199988 103.0154414 100.1909376  11.4847136
 103.6030012 106.3044997   3.0519988 102.8580012 105.7974997   2.7299988
 103.4690012 106.3534997   3.9989988 103.4828776 106.2416940   3.1358647
 110.7530012 105.4374997  11.8389988 111.3950012 105.8944997  11.2949988
 109.9230012 105.5504997  11.3759988 110.7285963 105.5152704  11.7020177
 107.5010012  99.1184997   1.2519988 106.5620012  99.2304997   1.0999988
 107.7980012  99.9754997   1.5579988 107.4127666  99.2496443   1.2725768
 105.1220012 106.4884997  14.2889988 104.7770012 106.1074997  15.0959988
 104.9220012 107.4224997  14.3609988 105.0478061 106.5625228  14.4090961
 108.2190012 100.9854997   2.9119988 109.1110012 100.8484997   3.2309988
 108.2760012 101.7764997   2.3759988 108.3486285 101.0736660   2.8831690
  98.7280012 105.5994997   8.8219988  99.4730012 105.5974997   8.2209988
  98.8060012 104.7764997   9.3039988  98.8405518 105.4879315   8.8048929
 105.7290012 107.7634997   2.0779988 105.4330012 108.5894997   2.4589988
 105.0260012 107.1434997   2.2739988 105.5934914 107.7928199   2.1566443
  95.7360012 104.0604997  14.1369988  95.9590012 103.6424997  14.9689988
  95.1340012 103.4474997  13.7139988  95.6851759 103.9204668  14.1937022
 102.7520012 103.5774997  16.3499988 102.4560012 103.4114997  15.4549988
 103.6840012 103.3574997  16.3389988 102.8374166 103.5250640  16.2260536
 107.3730012 108.9504997  14.2399988 106.4720012 109.1334997  13.9719988
 107.4070012 109.2094997  15.1609988 107.2543041 109.0105512  14.3278197
 113.1040012 101.1954997   2.6069988 112.5500012 100.7994997   1.9349988
 113.2040012 102.1054997   2.3289988 113.0417059 101.2643586   2.4774401
 113.0670012 106.9954997  15.4439988 112.2160012 107.2334997  15.0769988
 113.6580012 106.9784997  14.6909988 113.0302487 107.0258258  15.2918893
 111.3990012 109.9814997   3.0719988 111.0260012 109.1554997   3.3809988
 111.6770012 109.7984997   2.1749988 111.3855630 109.8437303   2.9929626
 108.5600012 104.7894997  10.0929988 107.6310012 104.5574997  10.0659988
 109.0110012 104.0124997   9.7629988 108.4939216 104.6527238  10.0446917
 101.1030012 109.1174997   6.2259988 101.6300012 109.8904997   6.0259988
 100.2230012 109.3424997   5.9249988 101.0561773 109.2538005   6.1579010
  96.8580012 103.9794997   0.8129988  97.4740012 104.6064997   1.1929988
  95.9960012 104.2954997   1.0849988  96.8257698 104.1079430   0.9017183
 102.5300012 106.7804997   5.8029988 102.2890012 107.7054997   5.8439988
 101.7890012 106.3214997   6.1989988 102.3968409 106.8451421   5.8621377
 103.0450012 110.9294997  12.1179988 103.4070012 111.7844997  11.8839988
 103.5760012 110.6374997  12.8579988 103.1664473 111.0071060  12.1860855
 101.2130012 111.8024997   5.3479988 100.2630012 111.9074997   5.3989988
 101.5650012 112.6224997   5.6929988 101.1304203 111.9278314   5.4016650
 106.5890012 107.0284997  11.8179988 106.1630012 106.8014997  12.6449988
 107.1690012 106.2904997  11.6359988 106.6091868 106.8975299  11.9065830
 108.7920012 107.9574997   0.8919988 109.1450012 107.5774997   1.6969988
 107.8430012 107.8644997   0.9789988 108.7120441 107.8929596   1.0138559
 109.2470012 111.5804997  14.2879988 108.6460012 111.0254997  13.7919988
 109.5290012 112.2474997  13.6619988 109.2028519 111.5946841  14.1354952
 113.2950012 112.4374997   1.0929988 114.0390012 113.0234997   0.9529988
 112.6010012 113.0054997   1.4269988 113.3030292 112.5945582   1.1189961
  97.3700012  98.8134997  13.6949988  96.4770012  99.1524997  13.6269988
  97.2710012  97.9584997  14.1129988  97.2344164  98.7442588  13.7422235
 109.6580012 106.6304997   3.1189988 109.3800012 105.9024997   3.6749988
 110.5850012 106.7494997   3.3239988 109.7453124 106.5468802   3.2228845
  97.0210012 110.6184997  12.1299988  97.2380012 109.6864997  12.0989988
  97.2670012 110.8924997  13.0129988  97.0839549 110.5280636  12.2451763
 102.8830012 109.0694997  -0.6610012 103.1220012 108.3214997  -1.2080012
 102.6140012 108.6814997   0.1719988 102.8793675 108.9146638  -0.6233135
 101.8200012 108.6394997   1.7959988 101.9660012 108.1194997   2.5859988
 101.8170012 109.5464997   2.1019988 101.8395989 108.6908853   1.9456088
  98.2730012 105.8924997   2.3059988  97.5870012 106.2444997   2.8729988
  98.7950012 106.6554997   2.0589988  98.2496852 106.0438578   2.3502118
 106.1040012  98.5544997  12.5849988 106.8030012  98.6284997  13.2349988
 105.7230012  97.6904997  12.7389988 106.1481767  98.4477624  12.6948322
 106.8890012  98.2064997   3.6819988 107.1090012  98.6784997   2.8789988
 107.4470012  98.6014997   4.3519988 106.9944968  98.3244285   3.6627331
 104.5570012 110.3374997   2.5449988 103.7410012 110.8344997   2.5969988
 105.0870012 110.8124997   1.9049988 104.5169161 110.4697722   2.4655956
 104.0890012  99.9344997   4.5169988 104.9010012 100.4394997   4.5629988
 103.8440012  99.7894997   5.4309988 104.1670520  99.9840375   4.6468517
 104.6240012 100.9204997  13.7019988 104.7430012 101.4944997  14.4589988
 105.2800012 100.2324997  13.8159988 104.7289757 100.9061079  13.8210825
 104.9720012  97.0154997   5.4549988 104.6260012  97.6334997   6.0999988
 105.6310012  97.5164997   4.9739988 105.0137826  97.1675802   5.4780971
 101.8960012 111.3814997   2.5269988 102.0560012 112.1804997   2.0259988
 101.6980012 111.6874997   3.4119988 101.8911649 111.5324469   2.5779815
 100.6300012  98.0784997   2.1419988 100.5470012  98.9674997   2.4889988
 101.5200012  97.8134997   2.3739988 100.7389469  98.1641430   2.2207626
 110.8290012  98.8274997  14.5369988 109.9120012  99.0904997  14.4489988
 111.1640012  98.8244997  13.6399988 110.7489900  98.8630224  14.4037919
 109.4310012 102.5784997   8.6319988 108.6330012 102.1634997   8.3039988
 109.8760012 101.8874997   9.1229988 109.3819885 102.4283543   8.6534889
  98.8890012 108.5064997   1.2029988  99.4810012 109.2054997   1.4789988
  99.3480012 108.0734997   0.4829988  99.0321142 108.5437049   1.1434830
  97.2050012 101.1704997   0.3189988  97.1600012 102.1094997   0.4969988
  96.3170012 100.9344997   0.0489988  97.0788574 101.2671892   0.3068912
 110.5170012 111.8344997  10.2549988 110.3620012 112.5124997   9.5979988
 111.4500012 111.9064997  10.4579988 110.6218500 111.9370170  10.1925119
  98.0130012  95.9524997   8.9919988  97.7840012  96.0114997   8.0639988
  97.5700012  95.1604997   9.2979988  97.9218530  95.8535753   8.9064786
  96.9430012 109.8924997   5.1519988  96.1110012 110.3654997   5.1799988
  97.4890012 110.4024997   4.5539988  96.9029739 110.0261871   5.0749716
  96.2310012 112.5054997  16.4819988  96.7720012 112.2884997  17.2419988
  95.7500012 111.6994997  16.2929988  96.2399345 112.3669514  16.5603076
 100.8290012 111.4244997  18.1029988 101.5960012 110.9654997  18.4439988
 100.8070012 111.1984997  17.1729988 100.9311434 111.3310409  18.0240043
 104.9210012 110.9324997  -0.5220012 104.2770012 110.3014997  -0.2010012
 105.6830012 110.4014997  -0.7540012 104.9358077 110.7742920  -0.5093989
 107.4060012 109.8044997  16.8319988 107.0550012 108.9484997  17.0749988
 108.1320012 109.9474997  17.4389988 107.4560769 109.7065636  16.9473619
 109.5250012 110.7494997  -0.2880012 109.8080012 109.9554997   0.1639988
 110.2650012 110.9824997  -0.8490012 109.6637486 110.6722803  -0.3019302
  96.1380012 106.3154997  17.4369988  96.2820012 105.4134997  17.1499988
  95.3660012 106.6014997  16.9489988  96.0533322 106.2308261  17.3317881
 100.4800012 106.6594997  -0.4310012 100.5440012 105.8654997   0.0999988
 101.1330012 106.5404997  -1.1210012 100.5770241 106.5347148  -0.4515683
 102.7940012 106.2854997  16.8689988 102.4650012 106.5564997  16.0119988
 102.9460012 105.3444997  16.7819988 102.7694809 106.1953862  16.7398244
 105.8320012 107.7064997  -0.6950012 105.5630012 107.8864997   0.2059988
 105.6260012 106.7804997  -0.8260012 105.7673825 107.6060152  -0.5894786
 108.5280012 106.2014997  14.2529988 109.2740012 106.7894997  14.1329988
 107.7710012 106.7834997  14.3159988 108.5277554 106.3607011  14.2450907
  96.9710012 103.5154997  16.8569988  97.3790012 102.6584997  16.7359988
  96.7110012 103.5304997  17.7779988  96.9917568 103.4000807  16.9649588
 101.6290012 104.6314997   1.8749988 101.1690012 104.1474997   2.5609988
 101.8840012 103.9634997   1.2389988 101.6004902 104.4748731   1.8829334
 100.9180012 102.5244997  14.2309988 100.3000012 103.1994997  14.5109988
 101.2620012 102.8454997  13.3979988 100.8799615 102.6602721  14.1566581
 102.7000012 102.8744997   0.1369988 102.5200012 102.7204997  -0.7900012
 103.6500012 102.9824997   0.1819988 102.8037776 102.8680175   0.0161843
 105.9380012 104.9964997  17.5079988 106.8910012 105.0794997  17.4809988
 105.7770012 104.2844997  18.1279988 106.0466426 104.9116746  17.5880579
 112.0900012 105.2294997  -0.4170012 111.8160012 104.8044997  -1.2300012
 112.1290012 106.1604997  -0.6340012 112.0577699 105.2972484  -0.5576390
 101.2570012  99.8794997  15.3129988 101.4070012  99.1504997  14.7109988
 101.2600012 100.6564997  14.7539988 101.2779302  99.8847851  15.1550692
 101.6700012  98.2494997  12.8059988 102.2060012  98.7004997  12.1539988
 100.8180012  98.1414997  12.3829988 101.6282178  98.2966390  12.6595756
 103.2520012 103.6884997  13.0449988 104.0020012 103.5324997  12.4719988
 102.9130012 104.5404997  12.7699988 103.3088921 103.7822968  12.9293561
 107.6670012 101.5034997  18.0739988 107.8600012 100.5724997  17.9619988
 108.5250012 101.9284997  18.0639988 107.8093020 101.4336389  18.0573361
 108.9840012 104.2924997  16.1509988 108.7030012 105.0014997  15.5739988
 109.9270012 104.2194997  15.9999988 109.0729027 104.3797646  16.0515551
  99.7360012 101.0774997  17.2249988  98.9690012 100.5454997  17.0149988
 100.4150012 100.7674997  16.6249988  99.7227022 100.9627506  17.1151648
 102.4760012  95.7054997  13.2369988 102.3770012  96.6524997  13.1319988
 101.7330012  95.3334997  12.7619988 102.3620564  95.7845902  13.1584560
 103.7400012 100.0274997  16.8009988 103.5040012  99.8074997  17.7029988
 102.9560012  99.8204997  16.2909988 103.6018628  99.9694760  16.8553932
 106.4550012  99.1544997  15.8769988 105.5080012  99.1864997  16.0089988
 106.7680012  98.5294997  16.5299988 106.3675475  99.0743207  15.9834455
 108.0890012  97.7884997  17.8819988 107.9930012  96.8364997  17.8759988
 107.7680012  98.0574997  18.7419988 108.0324070  97.6944035  17.9975441
  97.9160012  98.9984997  16.9289988  98.1280012  98.2914997  16.3189988
  97.8050012  98.5604997  17.7729988  97.9299721  98.8427084  16.9596843
 102.6970012  94.9994997  15.9089988 103.4090012  94.3594997  15.8949988
 102.5960012  95.2664997  14.9949988 102.7807939  94.9479938  15.7835650
 103.0510012  96.6824997  17.9619988 102.9190012  96.2064997  17.1419988
 102.4520012  97.4264997  17.9069988 102.9519071  96.7179618  17.8422886
 102.5970012 113.5654997   1.1389988 103.5300012 113.7234997   1.2819988
 102.3330012 114.2404997   0.5139988 102.6889510 113.6783611   1.0740741
  96.1660012 108.2014997   0.6209988  97.0800012 108.2804997   0.8949988
  96.1730012 107.5144997  -0.0450012  96.2921131 108.1193961   0.5684393
  94.8150012 113.5944997   5.6989988  94.1680012 113.1324997   5.1659988
  95.1690012 112.9224997   6.2809988  94.7743849 113.4404723   5.7047959
  95.6850012 111.6754997   7.5029988  95.3500012 110.7954997   7.6749988
  95.9070012 112.0204997   8.3679988  95.6691783 111.6017500   7.6434208
 113.2330012 112.4844997  10.4839988 113.2120012 112.6694997  11.4229988
 113.9240012 113.0534997  10.1429988 113.3234618 112.5866606  10.5663864
 112.7970012 112.0524997  13.4059988 112.3090012 111.3164997  13.0349988
 113.3460012 111.6584997  14.0839988 112.8044872 111.8986249  13.4469160
 111.2470012 107.8414997  18.0439988 110.3810012 107.7364997  18.4379988
 111.6240012 108.6004997  18.4899988 111.1793308 107.9296900  18.1582393
 112.5480012 106.0984997   3.5579988 113.3980012 106.5194997   3.6849988
 112.5540012 105.3584997   4.1649988 112.6651372 106.0560803   3.6574344
 112.9430012 104.1514997   5.3819988 112.2160012 103.6724997   5.7789988
 113.5240012 104.3574997   6.1139988 112.9219375 104.1137090   5.5354129
 112.7020012 106.9364997  10.3289988 113.5350012 106.5584997  10.0489988
 112.8140012 107.8794997  10.2099988 112.8312647 107.0122218  10.2745487
 111.1880012 109.8144997  12.6359988 110.5410012 110.1394997  13.2619988
 110.6710012 109.3744997  11.9619988 111.0294029 109.7995004  12.6305827
 113.2110012 104.0524997   1.7729988 112.6890012 104.4094997   1.0539988
 113.1780012 104.7274997   2.4509988 113.1351634 104.1925413   1.7663145
 111.5600012 101.2924997   0.3239988 111.6560012 101.9594997  -0.3570012
 111.4200012 100.4764997  -0.1580012 111.5542135 101.2734500   0.1658491
 110.7290012 102.6724997   5.9449988 110.5790012 101.7274997   5.9239988
 110.3760012 102.9534997   6.7879988 110.6606625 102.5810441   6.0562346
  95.7650012 104.7504997   9.9549988  95.9490012 104.6684997   9.0189988
  96.6140012 104.6264997  10.3789988  95.9050139 104.7225003   9.8841455
 111.5860012 104.6424997  15.5829988 112.1690012 103.9084997  15.7749988
 112.1500012 105.4144997  15.6299988 111.7419769 104.6464227  15.6156159
 113.0820012 102.5454997  16.2679988 112.2190012 102.1664997  16.1019988
 113.6870012 101.8064997  16.1939988 113.0455979 102.3938023  16.2352817
 110.8070012  98.7004997  -0.5590012 111.4180012  98.3294997   0.0779988
 109.9710012  98.2794997  -0.3630012 110.7775032  98.5927554  -0.4452965
 110.4400012 100.2554997   4.4069988 110.7200012  99.3484997   4.5309988
 111.1990012 100.6894997   4.0179988 110.5809277 100.1900942   4.3713682
 111.0520012 100.8364997   9.8429988 111.9850012 101.0484997   9.8089988
 110.8170012 100.9384997  10.7649988 111.1478036 100.8792769   9.9629976
 111.0810012 101.5734997  12.6189988 110.2380012 101.8414997  12.9849988
 111.5230012 102.3954997  12.4079988 111.0254158 101.7213291  12.6405491
  95.3620012 100.0214997  16.0959988  96.2820012  99.8994997  16.3319988
  94.9130012  99.2714997  16.4849988  95.4271580  99.9033727  16.1809006
 113.3640012  95.5534997  17.9719988 113.7140012  94.8994997  17.3669988
 113.5110012  96.3904997  17.5329988 113.4318419  95.5771591  17.8297118
 111.0530012  97.5184997   4.4549988 111.2360012  97.0694997   5.2809988
 110.4540012  96.9334997   3.9919988 110.9970202  97.3779975   4.5053275
  96.5830012  98.3334997   8.9869988  97.0290012  97.5414997   9.2889988
  97.0500012  99.0494997   9.4179988  96.7070172  98.3220624   9.0864820
  94.8870012 101.3324997  10.0559988  95.3790012 101.1114997   9.2649988
  95.2500012 102.1734997  10.3369988  95.0033126 101.4158357   9.9857531
 112.8840012  97.6624997  16.3219988 111.9660012  97.9334997  16.2859988
 113.0070012  97.1274997  15.5369988 112.7751066  97.6272892  16.2110487
 112.9200012  97.5854997   0.9829988 113.3320012  96.8644997   0.5079988
 113.6020012  98.2554997   1.0419988 113.0685885  97.5772368   0.9258915
  95.2010012  97.5904997   4.1099988  94.2760012  97.7994997   3.9809988
  95.6550012  98.0744997   3.4209988  95.1357368  97.6845993   3.9991226
 109.9720012 112.5744997   6.0559988 110.6240012 112.2274997   5.4479988
 110.4820012 113.0634997   6.7019988 110.1302637 112.5930597   6.0600236
  95.1650012  96.3284997  12.4549988  94.5000012  96.0824997  13.0979988
  94.7220012  96.9504997  11.8769988  95.0140956  96.3788632  12.4649352
  97.3570012 109.5034997  16.5989988  96.5360012 109.6784997  16.1389988
  97.1040012 109.4304997  17.5199988  97.2106164 109.5175622  16.6604923
 100.3110012 110.4784997  12.8579988  99.8860012 111.2874997  12.5749988
 101.2150012 110.5634997  12.5559988 100.3750271 110.6008469  12.7783776
 104.6220012 111.8774997  15.8169988 104.8070012 111.5434997  16.6949988
 105.4680012 112.1864997  15.4949988 104.7617539 111.8736047  15.8935605
 106.9670012 113.1634997  15.0609988 107.6440012 112.5304997  14.8209988
 107.2890012 113.5644997  15.8679988 107.1031637 113.1311154  15.1372793
 111.8840012  95.7524997  14.1409988 111.0720012  96.0774997  13.7529988
 112.1170012  94.9924997  13.6079988 111.8043423  95.6942436  14.0158253
  97.7130012 113.7344997  12.9049988  96.9920012 114.1744997  12.4539988
  97.3470012 113.4834997  13.7539988  97.5649804 113.7607698  12.9579840
 100.1800012 113.3344997  11.9349988  99.3150012 113.4064997  12.3389988
 100.1250012 113.8814997  11.1509988 100.0542085 113.4182685  11.8843362
 104.8900012 113.2224997  11.1099988 104.4340012 113.7514997  10.4559988
 105.0530012 113.8254997  11.8359988 104.8495585 113.3764468  11.1185062
 107.2180012 112.1004997  12.0549988 106.3130012 112.2654997  11.7899988
 107.6470012 112.9534997  11.9899988 107.1520799 112.2384483  12.0099182
 109.8220012 113.6704997  12.3499988 109.6400012 114.5864997  12.1399988
 109.9990012 113.2604997  11.5039988 109.8210210 113.7404822  12.2067885
  97.1270012 112.3574997   9.8149988  97.1090012 111.9324997  10.6729988
  97.9320012 112.0394997   9.4069988  97.2333875 112.2563812   9.8771655
  99.2690012 111.0674997   8.4699988  99.0500012 110.1514997   8.6399988
 100.0930012 111.2074997   8.9359988  99.3504420 110.9610520   8.5562774
 101.8060012 111.5374997   9.3189988 102.0190012 110.6494997   9.0319988
 101.8700012 111.5034997  10.2729988 101.8438232 111.4113102   9.4087397
 105.3140012  97.2014997   8.4629988 104.6400012  96.5724997   8.7189988
 105.8780012  96.7174997   7.8599988 105.2979230  97.0498744   8.4165340
 110.4570012  95.3094997   8.5759988 111.0610012  95.8564997   8.0739988
 109.5870012  95.6284997   8.3359988 110.4221241  95.4275806   8.4747654
 112.1840012  96.4474997   6.9089988 112.7960012  95.9334997   6.3829988
 112.5660012  97.3254997   6.9329988 112.3194540  96.4957140   6.8401830
  97.6410012  95.8354997   6.2849988  96.8640012  95.6014997   5.7779988
  98.1710012  95.0384997   6.2939988  97.6062330  95.6956988   6.2167742
  96.4770012  95.6334997   2.0889988  96.9160012  96.2444997   1.4969988
  95.8440012  96.1714997   2.5629988  96.4514514  95.7899257   2.0720930
 102.2200012  95.7624997   6.0989988 103.0950012  96.1504997   6.0689988
 102.0840012  95.5474997   7.0209988 102.3213695  95.7865184   6.2196440
 107.7770012  95.7924997   7.7479988 107.8530012  95.8874997   6.7979988
 107.5020012  94.8844997   7.8769988 107.7502321  95.6827867   7.6355079
 109.1300012  95.8184997   3.4399988 108.4280012  96.4334997   3.2309988
 108.6860012  94.9804997   3.5709988 108.9736330  95.7895783   3.4290328
  96.3780012 111.5814997   2.9869988  95.6930012 111.5434997   2.3189988
  96.3820012 112.4944997   3.2749988  96.2848193 111.6997016   2.9345284
  98.3380012  97.5494997   0.5309988  98.8300012  96.9194997   0.0039988
  98.9620012  97.8454997   1.1949988  98.4895446  97.5033199   0.5485980
 103.3640012  97.8424997   2.9879988 103.5420012  97.1964997   3.6709988
 103.3110012  98.6764997   3.4559988 103.3811829  97.8667985   3.1445940
 105.2430012 112.7914997   1.3839988 106.1090012 113.1574997   1.2059988
 104.9960012 112.3514997   0.5699988 105.3282392 112.7821756   1.2496289
 111.9520012 112.3544997   4.0629988 111.7570012 111.6064997   3.4979988
 111.9130012 113.1124997   3.4799988 111.9200380 112.3546099   3.9068384
  97.5990012  96.3494997  15.8029988  97.2330012  95.5844997  16.2459988
  98.5120012  96.3784997  16.0899988  97.6722790  96.2487224  15.9024070
  99.5720012  95.7004997  17.3389988 100.4700012  95.4264997  17.1539988
  99.1850012  94.9574997  17.8029988  99.6426612  95.5625914  17.3763643
  98.1960012 112.5014997   0.0119988  97.9290012 112.7884997   0.8849988
  98.9680012 111.9554997   0.1639988  98.2637488 112.4670294   0.1521050
 107.9930012  95.0324997  17.5209988 108.0700012  94.6064997  18.3749988
 108.8870012  95.0464997  17.1779988 108.1243428  94.9760879  17.5915310
 111.1690012 111.1054997  16.2129988 110.3870012 110.9194997  15.6939988
 111.0970012 112.0344997  16.4309988 111.0521777 111.2056492  16.1714048
 125.5750012 104.9914997   6.2439988 125.6640012 105.9354997   6.1119988
 124.9370012 104.7164997   5.5859988 125.5009081 105.0834830   6.1369614
 124.5080012 104.2464997   9.6629988 124.4700012 103.6004997  10.3679988
 124.1860012 103.7804997   8.8919988 124.4592333 104.0949408   9.6552978
 116.8770012 103.8614997  11.2559988 116.9180012 103.2354997  11.9789988
 117.5800012 104.4854997  11.4379988 116.9776363 103.8601196  11.3796044
 128.2140012 107.1854997   7.9639988 127.7740012 106.4654997   8.4149988
 128.2010012 107.9064997   8.5939988 128.1520226 107.1843731   8.1108494
 117.8000012 108.3114997   9.7909988 117.4310012 107.5094997   9.4209988
 118.7410012 108.1424997   9.8369988 117.8767289 108.1790153   9.7466316
 114.4100012 101.9714997   5.1839988 113.9630012 102.8174997   5.1649988
 113.8490012 101.3914997   4.6679988 114.2729900 102.0089916   5.1116801
 115.1210012 104.1334997   7.3099988 115.3340012 103.3634997   7.8369988
 115.8590012 104.2224997   6.7059988 115.2498496 104.0401394   7.3005300
 125.3260012 112.2904997   8.1769988 125.9460012 111.6134997   7.9029988
 125.1180012 112.0724997   9.0849988 125.3826904 112.1683870   8.2623365
 122.8980012 106.6794997  10.0689988 123.2020012 105.9934997   9.4739988
 123.6190012 106.7974997  10.6869988 123.0370671 106.6016305  10.0711816
 131.5610012  98.2804997  10.9299988 131.6100012  98.8904997  11.6659988
 131.9860012  98.7414997  10.2069988 131.6251824  98.4263741  10.9330205
 126.0390012 101.0734997  10.3969988 126.1810012 100.1274997  10.4169988
 125.9320012 101.2804997   9.4679988 126.0439863 100.9719534  10.2742339
 119.1930012  99.1744997   7.6689988 119.2370012 100.0344997   7.2509988
 118.7360012  98.6224997   7.0349988 119.1372185  99.2175799   7.5260299
 126.9160012  99.3054997   6.0699988 127.5620012  98.9764997   6.6949988
 127.4260012  99.8234997   5.4469988 127.0734264  99.3304611   6.0713862
 115.8140012 101.5714997   8.4309988 116.4670012 101.0214997   8.8629988
 115.8380012 101.2974997   7.5139988 115.9066683 101.4591466   8.3662123
 120.9700012 103.1214997   7.6459988 121.5860012 102.5954997   8.1559988
 120.3840012 102.4814997   7.2429988 120.9750810 102.9629208   7.6613173
 131.9520012  99.7584997  13.1659988 131.2640012 100.4164997  13.0699988
 131.9680012  99.5614997  14.1019988 131.8598525  99.8220462  13.2794808
 118.0040012  98.0924997  11.7429988 117.7850012  98.6224997  10.9769988
 117.3360012  98.3194997  12.3899988 117.8837600  98.1956906  11.7256379
 125.3730012 107.5924997   5.2869988 125.0770012 107.2704997   4.4359988
 125.0480012 108.4924997   5.3279988 125.2886371 107.6700215   5.1761801
 120.5730012 105.7684997  12.0299988 119.8330012 106.3664997  12.1339988
 121.2870012 106.3224997  11.7149988 120.5682237 105.9252831  12.0016465
 128.6800012  98.5964997   8.0499988 128.4640012  97.8304997   8.5829988
 129.3350012  99.0684997   8.5629988 128.7390632  98.5555889   8.1922861
 117.5970012  99.9844997   9.6949988 118.2110012 100.6174997  10.0689988
 118.1090012  99.5124997   9.0389988 117.7502296 100.0072370   9.6574252
 118.9800012 107.7324997  12.8179988 118.9750012 108.6124997  12.4399988
 118.1270012 107.6494997  13.2429988 118.8639464 107.8416117  12.8237907
 115.1010012 107.4034997   3.5999988 114.8290012 107.6324997   2.7109988
 115.1470012 108.2414997   4.0599988 115.0700094 107.5481213   3.5405697
 128.7260012 109.0254997  10.3119988 127.7850012 109.0834997  10.4739988
 129.0030012 109.9314997  10.1749988 128.6344679 109.1559443  10.3156815
 129.0270012  97.3114997  11.7299988 128.2910012  97.9224997  11.6919988
 129.7100012  97.7264997  11.2029988 129.0186541  97.4511374  11.6535832
 122.0300012  95.3984997   9.1959988 121.9130012  94.4494997   9.1409988
 121.1750012  95.7304997   9.4689988 121.8983733  95.3135409   9.2253897
 126.9780012 110.8064997   6.9379988 127.4040012 110.0994997   6.4529988
 127.2950012 111.6074997   6.5209988 127.0791019 110.8180994   6.8153130
 128.1380012 108.7074997   5.4459988 127.8800012 108.0174997   4.8349988
 128.2090012 108.2644997   6.2919988 128.1122856 108.5532124   5.4766885
 129.8240012 107.2734997  13.9239988 129.9640012 106.6824997  13.1839988
 129.9910012 108.1464997  13.5669988 129.8656778 107.3106426  13.7746965
 124.2970012 104.2354997   3.6959988 123.5850012 104.7704997   3.3439988
 124.9880012 104.2914997   3.0359988 124.2930132 104.3162543   3.5586289
 124.3500012 102.6934997   0.7349988 125.0510012 102.7154997   1.3859988
 124.6530012 102.0654997   0.0789988 124.4867830 102.6116566   0.7353711
 131.6660012 103.6134997  11.9899988 131.0130012 104.3084997  12.0789988
 132.1310012 103.8234997  11.1799988 131.6395390 103.7369425  11.8926883
 127.7020012 104.4454997   4.6479988 126.9700012 104.6734997   5.2209988
 128.1500012 103.7314997   5.1029988 127.6623095 104.3802571   4.7879119
 127.6000012 102.6194997  13.7149988 127.6800012 103.3824997  14.2869988
 126.9980012 102.8984997  13.0249988 127.5295756 102.7617134  13.7000589
 119.3480012 105.0754997   6.5299988 119.0170012 104.7054997   5.7119988
 119.9360012 104.4054997   6.8769988 119.3821873 104.9341156   6.4648102
 120.7140012 108.5034997   9.2119988 120.6200012 107.9254997   8.4549988
 121.4440012 108.1324997   9.7079988 120.7997981 108.3742390   9.1754165
 119.7140012 103.8444997  10.1639988 120.2800012 103.9654997   9.4009988
 120.0330012 104.4814997  10.8029988 119.8345786 103.9471884  10.1460040
 126.0230012 109.3474997  10.8979988 125.7830012 110.0094997  11.5459988
 125.8250012 108.5134997  11.3229988 125.9633808 109.3253134  11.0441524
 120.5940012 108.2434997  14.8809988 120.2830012 109.0254997  15.3359988
 119.9440012 108.0904997  14.1949988 120.4635558 108.3299105  14.8505871
 126.5730012 103.6074997   2.3329988 127.1530012 103.7574997   3.0799988
 126.9870012 104.0784997   1.6099988 126.7082830 103.6916841   2.3374134
 117.5140012 104.4414997  14.1099988 117.5850012 105.0924997  14.8079988
 116.6240012 104.5444997  13.7749988 117.4033117 104.5445936  14.1602700
 124.3000012 110.3444997   5.7679988 124.7740012 110.6394997   6.5459988
 123.7370012 111.0824997   5.5349988 124.2887653 110.4846932   5.8430136
 118.8340012 110.3154997  15.6439988 118.8410012 110.1794997  14.6969988
 117.9180012 110.1974997  15.8959988 118.7111714 110.2809430  15.5484666
 130.2720012  95.3574997   2.1459988 129.3720012  95.4964997   2.4409988
 130.5240012  96.1884997   1.7439988 130.1828702  95.4889074   2.1320205
 118.3380012 104.1454997   4.1199988 118.0460012 104.9134997   3.6289988
 117.6640012 103.4854997   3.9569988 118.2069081 104.1614406   4.0307340
 131.4610012 109.7234997   0.5219988 131.5350012 110.6624997   0.6929988
 132.3670012 109.4184997   0.4659988 131.5935100 109.8106722   0.5378119
 114.4310012 106.5084997  12.9349988 113.9300012 106.4804997  12.1199988
 114.4360012 105.6024997  13.2439988 114.3631526 106.3822278  12.8652872
 114.1810012 109.2884997   9.8189988 115.1270012 109.1444997   9.7999988
 114.0690012 110.0724997  10.3559988 114.2952727 109.3748046   9.8890072
 132.3790012 109.9544997  15.5009988 132.3300012 108.9994997  15.4639988
 131.5520012 110.2224997  15.9019988 132.2604940 109.8598998  15.5501375
 123.3580012 109.5284997  14.3769988 123.4450012 110.3544997  14.8519988
 122.4940012 109.1984997  14.6259988 123.2531964 109.5969878  14.4756549
 123.7720012 113.3004997   4.1829988 123.6970012 113.1794997   3.2369988
 123.8050012 114.2504997   4.3019988 123.7661848 113.4122500   4.0694834
 117.4250012 112.0894997   5.9639988 117.5780012 111.7414997   6.8429988
 116.5750012 111.7334997   5.7089988 117.3308962 111.9936650   6.0498340
 126.8740012 112.4544997   1.1849988 127.2490012 111.7104997   0.7149988
 126.8780012 112.1844997   2.1039988 126.9258915 112.3161486   1.2447824
 126.5430012 112.3804997   3.9349988 125.6070012 112.4804997   4.1129988
 126.8230012 111.6714997   4.5129988 126.4528255 112.2982711   4.0375391
 129.5310012 101.4474997  15.9809988 129.1240012 101.9284997  15.2599988
 129.5720012 100.5424997  15.6729988 129.4808437 101.3909374  15.8406683
 116.6800012 107.8314997  13.9779988 116.8960012 107.4704997  14.8369988
 115.8250012 107.4574997  13.7679988 116.5939292 107.7314111  14.0673386
 119.2990012  96.3014997   9.9729988 118.4370012  96.2144997   9.5659988
 119.2760012  97.1574997  10.4009988 119.1780330  96.4052765   9.9751863
 123.9620012  96.0234997  13.3479988 124.3820012  95.6084997  14.1009988
 123.0290012  95.8454997  13.4649988 123.8933644  95.9425900  13.4669539
 127.2880012  99.7794997  14.2009988 126.7740012  99.6534997  14.9989988
 127.1330012 100.6914997  13.9569988 127.1966852  99.8856132  14.2772158
 128.0510012 104.6404997  -0.0370012 128.0930012 104.4174997  -0.9670012
 128.9000012 105.0394997   0.1529988 128.1715396 104.6639155  -0.1386373
 123.6230012  98.5164997   0.6329988 123.3700012  98.5354997   1.5559988
 123.3670012  97.6444997   0.3319988 123.5537790  98.4012437   0.7186263
 119.3900012 101.2674997  11.0679988 118.7480012 101.2264997  11.7769988
 119.4270012 102.1934997  10.8309988 119.3071324 101.3871559  11.1329824
 119.3870012 101.4884997   5.9799988 118.4940012 101.1474997   5.9219988
 119.8370012 101.1114997   5.2249988 119.3257305 101.3908484   5.8699177
 124.9220012 101.9044997   4.7969988 124.5130012 102.7194997   4.5059988
 125.6430012 101.7644997   4.1829988 124.9634537 101.9972018   4.6741342
 124.0240012 102.0794997  16.2849988 123.4620012 101.3754997  16.6059988
 124.8510012 101.9594997  16.7529988 124.0587095 101.9667883  16.3922330
 125.9270012 101.3504997   7.6109988 125.7320012 101.9554997   6.8959988
 126.1080012 100.5164997   7.1769988 125.9247614 101.3206300   7.4544405
 117.1400012 101.5874997  12.9349988 117.1020012 101.9874997  13.8039988
 116.6490012 100.7704997  13.0259988 117.0684684 101.5318069  13.0661059
 120.5060012  98.9614997  -0.2660012 120.0750012  98.5164997   0.4639988
 119.7880012  99.3334997  -0.7780012 120.3499438  98.9508940  -0.2353201
 113.7480012  98.7034997   6.7859988 114.3790012  98.6744997   7.5049988
 114.1970012  98.2784997   6.0559988 113.8950774  98.6420492   6.7856553
 115.0220012  99.4494997   2.2099988 115.4960012 100.0404997   1.6249988
 114.3050012  99.9804997   2.5569988 114.9899341  99.6020867   2.1768836
 125.1910012 102.9884997  12.2829988 125.5140012 102.3574997  11.6399988
 124.7510012 102.4534997  12.9429988 125.1756895 102.8298441  12.2842850
 121.9680012  98.9154997   7.0669988 121.0570012  98.9724997   7.3549988
 122.4740012  98.8554997   7.8769988 121.9115413  98.9151985   7.2160622
 116.7970012 100.5444997   5.8929988 115.9070012 100.6444997   5.5529988
 117.0930012  99.7024997   5.5469988 116.7152823 100.4443546   5.7997213
 120.4500012 100.5444997   3.5499988 121.3810012 100.6734997   3.7279988
 120.2350012 101.2144997   2.8999988 120.5484247 100.6526565   3.4865747
 126.3730012  98.1504997  10.3309988 125.6970012  98.2814997  10.9949988
 125.8880012  97.9954997   9.5209988 126.2147145  98.1474905  10.3124517
 119.1240012 101.7394997   1.1169988 118.5810012 101.3594997   0.4249988
 119.9570012 101.9334997   0.6879988 119.1624399 101.7138124   0.9644526
 129.6610012 113.8224997  16.6079988 129.8610012 114.2464997  15.7729988
 130.3160012 114.1654997  17.2149988 129.7770051 113.9269648  16.5757836
 117.2590012 106.2964997  16.2159988 117.9910012 106.5504997  16.7769988
 116.4790012 106.5004997  16.7309988 117.2538232 106.3589177  16.3625760
 123.2880012 101.7034997   8.9539988 123.8530012 101.1564997   8.4069988
 123.1410012 101.1814997   9.7419988 123.3452918 101.5582024   8.9858454
 118.2900012  97.8394997   5.3719988 117.9730012  96.9374997   5.3369988
 119.0720012  97.8414997   4.8189988 118.3522284  97.7161628   5.2924783
 121.9150012 100.0914997  11.3679988 121.0790012 100.5454997  11.4779988
 122.4390012 100.3674997  12.1199988 121.8714414 100.1909376  11.4847136
 122.4590012 106.3044997   3.0519988 121.7140012 105.7974997   2.7299988
 122.3250012 106.3534997   3.9989988 122.3388776 106.2416940   3.1358647
 129.6090012 105.4374997  11.8389988 130.2510012 105.8944997  11.2949988
 128.7790012 105.5504997  11.3759988 129.5845963 105.5152704  11.7020177
 126.3570012  99.1184997   1.2519988 125.4180012  99.2304997   1.0999988
 126.6540012  99.9754997   1.5579988 126.2687666  99.2496443   1.2725768
 123.9780012 106.4884997  14.2889988 123.6330012 106.1074997  15.0959988
 123.7780012 107.4224997  14.3609988 123.9038061 106.5625228  14.4090961
 127.0750012 100.9854997   2.9119988 127.9670012 100.8484997   3.2309988
 127.1320012 101.7764997   2.3759988 127.2046285 101.0736660   2.8831691
 117.5840012 105.5994997   8.8219988 118.3290012 105.5974997   8.2209988
 117.6620012 104.7764997   9.3039988 117.6965518 105.4879315   8.8048929
 124.5850012 107.7634997   2.0779988 124.2890012 108.5894997   2.4589988
 123.8820012 107.1434997   2.2739988 124.4494914 107.7928199   2.1566443
 114.5920012 104.0604997  14.1369988 114.8150012 103.6424997  14.9689988
 113.9900012 103.4474997  13.7139988 114.5411759 103.9204668  14.1937022
 121.6080012 103.5774997  16.3499988 121.3120012 103.4114997  15.4549988
 122.5400012 103.3574997  16.3389988 121.6934166 103.5250640  16.2260536
 126.2290012 108.9504997  14.2399988 125.3280012 109.1334997  13.9719988
 126.2630012 109.2094997  15.1609988 126.1103041 109.0105512  14.3278197
 131.9600012 101.1954997   2.6069988 131.4060012 100.7994997   1.9349988
 132.0600012 102.1054997   2.3289988 131.8977059 101.2643586   2.4774401
 131.9230012 106.9954997  15.4439988 131.0720012 107.2334997  15.0769988
 132.5140012 106.9784997  14.6909988 131.8862487 107.0258258  15.2918893
 130.2550012 109.9814997   3.0719988 129.8820012 109.1554997   3.3809988
 130.5330012 109.7984997   2.1749988 130.2415630 109.8437303   2.9929626
 127.4160012 104.7894997  10.0929988 126.4870012 104.5574997  10.0659988
 127.8670012 104.0124997   9.7629988 127.3499216 104.6527238  10.0446917
 119.9590012 109.1174997   6.2259988 120.4860012 109.8904997   6.0259988
 119.0790012 109.3424997   5.9249988 119.9121773 109.2538005   6.1579010
 115.7140012 103.9794997   0.8129988 116.3300012 104.6064997   1.1929988
 114.8520012 104.2954997   1.0849988 115.6817698 104.1079430   0.9017183
 121.3860012 106.7804997   5.8029988 121.1450012 107.7054997   5.8439988
 120.6450012 106.3214997   6.1989988 121.2528409 106.8451421   5.8621377
 121.9010012 110.9294997  12.1179988 122.2630012 111.7844997  11.8839988
 122.4320012 110.6374997  12.8579988 122.0224473 111.0071060  12.1860855
 120.0690012 111.8024997   5.3479988 119.1190012 111.9074997   5.3989988
 120.4210012 112.6224997   5.6929988 119.9864203 111.9278314   5.4016650
 125.4450012 107.0284997  11.8179988 125.0190012 106.8014997  12.6449988
 126.0250012 106.2904997  11.6359988 125.4651868 106.8975299  11.9065830
 127.6480012 107.9574997   0.8919988 128.0010012 107.5774997   1.6969988
 126.6990012 107.8644997   0.9789988 127.5680441 107.8929596   1.0138559
 128.1030012 111.5804997  14.2879988 127.5020012 111.0254997  13.7919988
 128.3850012 112.2474997  13.6619988 128.0588519 111.5946841  14.1354952
 132.1510012 112.4374997   1.0929988 132.8950012 113.0234997   0.9529988
 131.4570012 113.0054997   1.4269988 132.1590292 112.5945582   1.1189961
 116.2260012  98.8134997  13.6949988 115.3330012  99.1524997  13.6269988
 116.1270012  97.9584997  14.1129988 116.0904164  98.7442588  13.7422235
 128.5140012 106.6304997   3.1189988 128.2360012 105.9024997   3.6749988
 129.4410012 106.7494997   3.3239988 128.6013124 106.5468802   3.2228845
 115.8770012 110.6184997  12.1299988 116.0940012 109.6864997  12.0989988
 116.1230012 110.8924997  13.0129988 115.9399549 110.5280636  12.2451763
 121.7390012 109.0694997  -0.6610012 121.9780012 108.3214997  -1.2080012
 121.4700012 108.6814997   0.1719988 121.7353675 108.9146638  -0.6233135
 120.6760012 108.6394997   1.7959988 120.8220012 108.1194997   2.5859988
 120.6730012 109.5464997   2.1019988 120.6955989 108.6908853   1.9456088
 117.1290012 105.8924997   2.3059988 116.4430012 106.2444997   2.8729988
 117.6510012 106.6554997   2.0589988 117.1056852 106.0438578   2.3502118
 124.9600012  98.5544997  12.5849988 125.6590012  98.6284997  13.2349988
 124.5790012  97.6904997  12.7389988 125.0041767  98.4477624  12.6948322
 125.7450012  98.2064997   3.6819988 125.9650012  98.6784997   2.8789988
 126.3030012  98.6014997   4.3519988 125.8504968  98.3244285   3.6627331
 123.4130012 110.3374997   2.5449988 122.5970012 110.8344997   2.5969988
 123.9430012 110.8124997   1.9049988 123.3729161 110.4697722   2.4655956
 122.9450012  99.9344997   4.5169988 123.7570012 100.4394997   4.5629988
 122.7000012  99.7894997   5.4309988 123.0230520  99.9840375   4.6468517
 123.4800012 100.9204997  13.7019988 123.5990012 101.4944997  14.4589988
 124.1360012 100.2324997  13.8159988 123.5849757 100.9061079  13.8210825
 123.8280012  97.0154997   5.4549988 123.4820012  97.6334997   6.0999988
 124.4870012  97.5164997   4.9739988 123.8697826  97.1675802   5.4780971
 120.7520012 111.3814997   2.5269988 120.9120012 112.1804997   2.0259988
 120.5540012 111.6874997   3.4119988 120.7471649 111.5324469   2.5779815
 119.4860012  98.0784997   2.1419988 119.4030012  98.9674997   2.4889988
 120.3760012  97.8134997   2.3739988 119.5949469  98.1641430   2.2207626
 129.6850012  98.8274997  14.5369988 128.7680012  99.0904997  14.4489988
 130.0200012  98.8244997  13.6399988 129.6049900  98.8630224  14.4037919
 128.2870012 102.5784997   8.6319988 127.4890012 102.1634997   8.3039988
 128.7320012 101.8874997   9.1229988 128.2379885 102.4283543   8.6534889
 117.7450012 108.5064997   1.2029988 118.3370012 109.2054997   1.4789988
 118.2040012 108.0734997   0.4829988 117.8881142 108.5437049   1.1434830
 116.0610012 101.1704997   0.3189988 116.0160012 102.1094997   0.4969988
 115.1730012 100.9344997   0.0489988 115.9348574 101.2671892   0.3068912
 129.3730012 111.8344997  10.2549988 129.2180012 112.5124997   9.5979988
 130.3060012 111.9064997  10.4579988 129.4778500 111.9370170  10.1925119
 116.8690012  95.9524997   8.9919988 116.6400012  96.0114997   8.0639988
 116.4260012  95.1604997   9.2979988 116.7778530  95.8535753   8.9064786
 115.7990012 109.8924997   5.1519988 114.9670012 110.3654997   5.1799988
 116.3450012 110.4024997   4.5539988 115.7589739 110.0261871   5.0749716
 115.0870012 112.5054997  16.4819988 115.6280012 112.2884997  17.2419988
 114.6060012 111.6994997  16.2929988 115.0959345 112.3669514  16.5603076
 119.6850012 111.4244997  18.1029988 120.4520012 110.9654997  18.4439988
 119.6630012 111.1984997  17.1729988 119.7871434 111.3310409  18.0240043
 123.7770012 110.9324997  -0.5220012 123.1330012 110.3014997  -0.2010012
 124.5390012 110.4014997  -0.7540012 123.7918077 110.7742920  -0.5093989
 126.2620012 109.8044997  16.8319988 125.9110012 108.9484997  17.0749988
 126.9880012 109.9474997  17.4389988 126.3120769 109.7065636  16.9473619
 128.3810012 110.7494997  -0.2880012 128.6640012 109.9554997   0.1639988
 129.1210012 110.9824997  -0.8490012 128.5197486 110.6722803  -0.3019302
 114.9940012 106.3154997  17.4369988 115.1380012 105.4134997  17.1499988
 114.2220012 106.6014997  16.9489988 114.9093323 106.2308261  17.3317881
 119.3360012 106.6594997  -0.4310012 119.4000012 105.8654997   0.0999988
 119.9890012 106.5404997  -1.1210012 119.4330241 106.5347148  -0.4515683
 121.6500012 106.2854997  16.8689988 121.3210012 106.5564997  16.0119988
 121.8020012 105.3444997  16.7819988 121.6254809 106.1953862  16.7398244
 124.6880012 107.7064997  -0.6950012 124.4190012 107.8864997   0.2059988
 124.4820012 106.7804997  -0.8260012 124.6233825 107.6060152  -0.5894786
 127.3840012 106.2014997  14.2529988 128.1300012 106.7894997  14.1329988
 126.6270012 106.7834997  14.3159988 127.3837554 106.3607011  14.2450907
 115.8270012 103.5154997  16.8569988 116.2350012 102.6584997  16.7359988
 115.5670012 103.5304997  17.7779988 115.8477568 103.4000807  16.9649588
 120.4850012 104.6314997   1.8749988 120.0250012 104.1474997   2.5609988
 120.7400012 103.9634997   1.2389988 120.4564902 104.4748731   1.8829334
 119.7740012 102.5244997  14.2309988 119.1560012 103.1994997  14.5109988
 120.1180012 102.8454997  13.3979988 119.7359615 102.6602721  14.1566581
 121.5560012 102.8744997   0.1369988 121.3760012 102.7204997  -0.7900012
 122.5060012 102.9824997   0.1819988 121.6597776 102.8680175   0.0161843
 124.7940012 104.9964997  17.5079988 125.7470012 105.0794997  17.4809988
 124.6330012 104.2844997  18.1279988 124.9026426 104.9116746  17.5880579
 130.9460012 105.2294997  -0.4170012 130.6720012 104.8044997  -1.2300012
 130.9850012 106.1604997  -0.6340012 130.9137699 105.2972484  -0.5576390
 120.1130012  99.8794997  15.3129988 120.2630012  99.1504997  14.7109988
 120.1160012 100.6564997  14.7539988 120.1339302  99.8847851  15.1550692
 120.5260012  98.2494997  12.8059988 121.0620012  98.7004997  12.1539988
 119.6740012  98.1414997  12.3829988 120.4842178  98.2966390  12.6595756
 122.1080012 103.6884997  13.0449988 122.8580012 103.5324997  12.4719988
 121.7690012 104.5404997  12.7699988 122.1648921 103.7822968  12.9293561
 126.5230012 101.5034997  18.0739988 126.7160012 100.5724997  17.9619988
 127.3810012 101.9284997  18.0639988 126.6653020 101.4336389  18.0573361
 127.8400012 104.2924997  16.1509988 127.5590012 105.0014997  15.5739988
 128.7830012 104.2194997  15.9999988 127.9289027 104.3797646  16.0515551
 118.5920012 101.0774997  17.2249988 117.8250012 100.5454997  17.0149988
 119.2710012 100.7674997  16.6249988 118.5787022 100.9627506  17.1151648
 121.3320012  95.7054997  13.2369988 121.2330012  96.6524997  13.1319988
 120.5890012  95.3334997  12.7619988 121.2180564  95.7845902  13.1584560
 122.5960012 100.0274997  16.8009988 122.3600012  99.8074997  17.7029988
 121.8120012  99.8204997  16.2909988 122.4578628  99.9694760  16.8553932
 125.3110012  99.1544997  15.8769988 124.3640012  99.1864997  16.0089988
 125.6240012  98.5294997  16.5299988 125.2235475  99.0743207  15.9834455
 126.9450012  97.7884997  17.8819988 126.8490012  96.8364997  17.8759988
 126.6240012  98.0574997  18.7419988 126.8884070  97.6944035  17.9975441
 116.7720012  98.9984997  16.9289988 116.9840012  98.2914997  16.3189988
 116.6610012  98.5604997  17.7729988 116.7859721  98.8427084  16.9596843
 121.5530012  94.9994997  15.9089988 122.2650012  94.3594997  15.8949988
 121.4520012  95.2664997  14.9949988 121.6367939  94.9479938  15.7835650
 121.9070012  96.6824997  17.9619988 121.7750012  96.2064997  17.1419988
 121.3080012  97.4264997  17.9069988 121.8079071  96.7179618  17.8422886
 121.4530012 113.5654997   1.1389988 122.3860012 113.7234997   1.2819988
 121.1890012 114.2404997   0.5139988 121.5449510 113.6783611   1.0740741
 115.0220012 108.2014997   0.6209988 115.9360012 108.2804997   0.8949988
 115.0290012 107.5144997  -0.0450012 115.1481131 108.1193961   0.5684393
 113.6710012 113.5944997   5.6989988 113.0240012 113.1324997   5.1659988
 114.0250012 112.9224997   6.2809988 113.6303849 113.4404723   5.7047959
 114.5410012 111.6754997   7.5029988 114.2060012 110.7954997   7.6749988
 114.7630012 112.0204997   8.3679988 114.5251783 111.6017500   7.6434208
 132.0890012 112.4844997  10.4839988 132.0680012 112.6694997  11.4229988
 132.7800012 113.0534997  10.1429988 132.1794618 112.5866606  10.5663864
 131.6530012 112.0524997  13.4059988 131.1650012 111.3164997  13.0349988
 132.2020012 111.6584997  14.0839988 131.6604872 111.8986249  13.4469160
 130.1030012 107.8414997  18.0439988 129.2370012 107.7364997  18.4379988
 130.4800012 108.6004997  18.4899988 130.0353308 107.9296900  18.1582393
 131.4040012 106.0984997   3.5579988 132.2540012 106.5194997   3.6849988
 131.4100012 105.3584997   4.1649988 131.5211372 106.0560803   3.6574344
 131.7990012 104.1514997   5.3819988 131.0720012 103.6724997   5.7789988
 132.3800012 104.3574997   6.1139988 131.7779375 104.1137090   5.5354129
 131.5580012 106.9364997  10.3289988 132.3910012 106.5584997  10.0489988
 131.6700012 107.8794997  10.2099988 131.6872647 107.0122218  10.2745487
 130.0440012 109.8144997  12.6359988 129.3970012 110.1394997  13.2619988
 129.5270012 109.3744997  11.9619988 129.8854029 109.7995004  12.6305827
 132.0670012 104.0524997   1.7729988 131.5450012 104.4094997   1.0539988
 132.0340012 104.7274997   2.4509988 131.9911634 104.1925413   1.7663145
 130.4160012 101.2924997   0.3239988 130.5120012 101.9594997  -0.3570012
 130.2760012 100.4764997  -0.1580012 130.4102135 101.2734500   0.1658491
 129.5850012 102.6724997   5.9449988 129.4350012 101.7274997   5.9239988
 129.2320012 102.9534997   6.7879988 129.5166625 102.5810441   6.0562346
 114.6210012 104.7504997   9.9549988 114.8050012 104.6684997   9.0189988
 115.4700012 104.6264997  10.3789988 114.7610139 104.7225003   9.8841455
 130.4420012 104.6424997  15.5829988 131.0250012 103.9084997  15.7749988
 131.0060012 105.4144997  15.6299988 130.5979769 104.6464227  15.6156159
 131.9380012 102.5454997  16.2679988 131.0750012 102.1664997  16.1019988
 132.5430012 101.8064997  16.1939988 131.9015979 102.3938023  16.2352817
 129.6630012  98.7004997  -0.5590012 130.2740012  98.3294997   0.0779988
 128.8270012  98.2794997  -0.3630012 129.6335032  98.5927554  -0.4452965
 129.2960012 100.2554997   4.4069988 129.5760012  99.3484997   4.5309988
 130.0550012 100.6894997   4.0179988 129.4369277 100.1900942   4.3713682
 129.9080012 100.8364997   9.8429988 130.8410012 101.0484997   9.8089988
 129.6730012 100.9384997  10.7649988 130.0038036 100.8792769   9.9629976
 129.9370012 101.5734997  12.6189988 129.0940012 101.8414997  12.9849988
 130.3790012 102.3954997  12.4079988 129.8814158 101.7213291  12.6405491
 114.2180012 100.0214997  16.0959988 115.1380012  99.8994997  16.3319988
 113.7690012  99.2714997  16.4849988 114.2831580  99.9033727  16.1809006
 132.2200012  95.5534997  17.9719988 132.5700012  94.8994997  17.3669988
 132.3670012  96.3904997  17.5329988 132.2878419  95.5771591  17.8297118
 129.9090012  97.5184997   4.4549988 130.0920012  97.0694997   5.2809988
 129.3100012  96.9334997   3.9919988 129.8530202  97.3779975   4.5053275
 115.4390012  98.3334997   8.9869988 115.8850012  97.5414997   9.2889988
 115.9060012  99.0494997   9.4179988 115.5630172  98.3220624   9.0864820
 113.7430012 101.3324997  10.0559988 114.2350012 101.1114997   9.2649988
 114.1060012 102.1734997  10.3369988 113.8593126 101.4158357   9.9857531
 131.7400012  97.6624997  16.3219988 130.8220012  97.9334997  16.2859988
 131.8630012  97.1274997  15.5369988 131.6311066  97.6272892  16.2110487
 131.7760012  97.5854997   0.9829988 132.1880012  96.8644997   0.5079988
 132.4580012  98.2554997   1.0419988 131.9245885  97.5772368   0.9258915
 114.0570012  97.5904997   4.1099988 113.1320012  97.7994997   3.9809988
 114.5110012  98.0744997   3.4209988 113.9917368  97.6845993   3.9991226
 128.8280012 112.5744997   6.0559988 129.4800012 112.2274997   5.4479988
 129.3380012 113.0634997   6.7019988 128.9862637 112.5930597   6.0600236
 114.0210012  96.3284997  12.4549988 113.3560012  96.0824997  13.0979988
 113.5780012  96.9504997  11.8769988 113.8700956  96.3788632  12.4649352
 116.2130012 109.5034997  16.5989988 115.3920012 109.6784997  16.1389988
 115.9600012 109.4304997  17.5199988 116.0666164 109.5175622  16.6604923
 119.1670012 110.4784997  12.8579988 118.7420012 111.2874997  12.5749988
 120.0710012 110.5634997  12.5559988 119.2310271 110.6008469  12.7783776
 123.4780012 111.8774997  15.8169988 123.6630012 111.5434997  16.6949988
 124.3240012 112.1864997  15.4949988 123.6177539 111.8736047  15.8935605
 125.8230012 113.1634997  15.0609988 126.5000012 112.5304997  14.8209988
 126.1450012 113.5644997  15.8679988 125.9591637 113.1311154  15.1372793
 130.7400012  95.7524997  14.1409988 129.9280012  96.0774997  13.7529988
 130.9730012  94.9924997  13.6079988 130.6603423  95.6942436  14.0158253
 116.5690012 113.7344997  12.9049988 115.8480012 114.1744997  12.4539988
 116.2030012 113.4834997  13.7539988 116.4209804 113.7607698  12.9579840
 119.0360012 113.3344997  11.9349988 118.1710012 113.4064997  12.3389988
 118.9810012 113.8814997  11.1509988 118.9102085 113.4182685  11.8843362
 123.7460012 113.2224997  11.1099988 123.2900012 113.7514997  10.4559988
 123.9090012 113.8254997  11.8359988 123.7055585 113.3764468  11.1185062
 126.0740012 112.1004997  12.0549988 125.1690012 112.2654997  11.7899988
 126.5030012 112.9534997  11.9899988 126.0080799 112.2384483  12.0099182
 128.6780012 113.6704997  12.3499988 128.4960012 114.5864997  12.1399988
 128.8550012 113.2604997  11.5039988 128.6770210 113.7404822  12.2067885
 115.9830012 112.3574997   9.8149988 115.9650012 111.9324997  10.6729988
 116.7880012 112.0394997   9.4069988 116.0893875 112.2563812   9.8771655
 118.1250012 111.0674997   8.4699988 117.9060012 110.1514997   8.6399988
 118.9490012 111.2074997   8.9359988 118.2064420 110.9610520   8.5562774
 120.6620012 111.5374997   9.3189988 120.8750012 110.6494997   9.0319988
 120.7260012 111.5034997  10.2729988 120.6998232 111.4113102   9.4087397
 124.1700012  97.2014997   8.4629988 123.4960012  96.5724997   8.7189988
 124.7340012  96.7174997   7.8599988 124.1539230  97.0498744   8.4165340
 129.3130012  95.3094997   8.5759988 129.9170012  95.8564997   8.0739988
 128.4430012  95.6284997   8.3359988 129.2781241  95.4275806   8.4747654
 131.0400012  96.4474997   6.9089988 131.6520012  95.9334997   6.3829988
 131.4220012  97.3254997   6.9329988 131.1754540  96.4957140   6.8401830
 116.4970012  95.8354997   6.2849988 115.7200012  95.6014997   5.7779988
 117.0270012  95.0384997   6.2939988 116.4622330  95.6956988   6.2167742
 115.3330012  95.6334997   2.0889988 115.7720012  96.2444997   1.4969988
 114.7000012  96.1714997   2.5629988 115.3074514  95.7899257   2.0720930
 121.0760012  95.7624997   6.0989988 121.9510012  96.1504997   6.0689988
 120.9400012  95.5474997   7.0209988 121.1773695  95.7865184   6.2196440
 126.6330012  95.7924997   7.7479988 126.7090012  95.8874997   6.7979988
 126.3580012  94.8844997   7.8769988 126.6062321  95.6827867   7.6355079
 127.9860012  95.8184997   3.4399988 127.2840012  96.4334997   3.2309988
 127.5420012  94.9804997   3.5709988 127.8296330  95.7895783   3.4290328
 115.2340012 111.5814997   2.9869988 114.5490012 111.5434997   2.3189988
 115.2380012 112.4944997   3.2749988 115.1408193 111.6997016   2.9345284
 117.1940012  97.5494997   0.5309988 117.6860012  96.9194997   0.0039988
 117.8180012  97.8454997   1.1949988 117.3455446  97.5033199   0.5485980
 122.2200012  97.8424997   2.9879988 122.3980012  97.1964997   3.6709988
 122.1670012  98.6764997   3.4559988 122.2371829  97.8667985   3.1445940
 124.0990012 112.7914997   1.3839988 124.9650012 113.1574997   1.2059988
 123.8520012 112.3514997   0.5699988 124.1842392 112.7821756   1.2496289
 130.8080012 112.3544997   4.0629988 130.6130012 111.6064997   3.4979988
 130.7690012 113.1124997   3.4799988 130.7760380 112.3546099   3.9068384
 116.4550012  96.3494997  15.8029988 116.0890012  95.5844997  16.2459988
 117.3680012  96.3784997  16.0899988 116.5282790  96.2487224  15.9024070
 118.4280012  95.7004997  17.3389988 119.3260012  95.4264997  17.1539988
 118.0410012  94.9574997  17.8029988 118.4986612  95.5625914  17.3763643
 117.0520012 112.5014997   0.0119988 116.7850012 112.7884997   0.8849988
 117.8240012 111.9554997   0.1639988 117.1197488 112.4670294   0.1521050
 126.8490012  95.0324997  17.5209988 126.9260012  94.6064997  18.3749988
 127.7430012  95.0464997  17.1779988 126.9803428  94.9760879  17.5915310
 130.0250012 111.1054997  16.2129988 129.2430012 110.9194997  15.6939988
 129.9530012 112.0344997  16.4309988 129.9081777 111.2056492  16.1714048
 144.4310012 104.9914997   6.2439988 144.5200012 105.9354997   6.1119988
 143.7930012 104.7164997   5.5859988 144.3569081 105.0834830   6.1369614
 143.3640012 104.2464997   9.6629988 143.3260012 103.6004997  10.3679988
 143.0420012 103.7804997   8.8919988 143.3152333 104.0949408   9.6552978
 135.7330012 103.8614997  11.2559988 135.7740012 103.2354997  11.9789988
 136.4360012 104.4854997  11.4379988 135.8336363 103.8601196  11.3796044
 136.6560012 108.3114997   9.7909988 136.2870012 107.5094997   9.4209988
 137.5970012 108.1424997   9.8369988 136.7327289 108.1790153   9.7466316
 133.2660012 101.9714997   5.1839988 132.8190012 102.8174997   5.1649988
 132.7050012 101.3914997   4.6679988 133.1289900 102.0089916   5.1116801
 133.9770012 104.1334997   7.3099988 134.1900012 103.3634997   7.8369988
 134.7150012 104.2224997   6.7059988 134.1058496 104.0401394   7.3005300
 144.1820012 112.2904997   8.1769988 144.8020012 111.6134997   7.9029988
 143.9740012 112.0724997   9.0849988 144.2386904 112.1683870   8.2623365
 141.7540012 106.6794997  10.0689988 142.0580012 105.9934997   9.4739988
 142.4750012 106.7974997  10.6869988 141.8930671 106.6016305  10.0711816
 144.8950012 101.0734997  10.3969988 145.0370012 100.1274997  10.4169988
 144.7880012 101.2804997   9.4679988 144.8999863 100.9719534  10.2742339
 138.0490012  99.1744997   7.6689988 138.0930012 100.0344997   7.2509988
 137.5920012  98.6224997   7.0349988 137.9932185  99.2175799   7.5260299
 134.6700012 101.5714997   8.4309988 135.3230012 101.0214997   8.8629988
 134.6940012 101.2974997   7.5139988 134.7626683 101.4591466   8.3662123
 139.8260012 103.1214997   7.6459988 140.4420012 102.5954997   8.1559988
 139.2400012 102.4814997   7.2429988 139.8310810 102.9629208   7.6613173
 136.8600012  98.0924997  11.7429988 136.6410012  98.6224997  10.9769988
 136.1920012  98.3194997  12.3899988 136.7397600  98.1956906  11.7256379
 144.2290012 107.5924997   5.2869988 143.9330012 107.2704997   4.4359988
 143.9040012 108.4924997   5.3279988 144.1446371 107.6700215   5.1761801
 139.4290012 105.7684997  12.0299988 138.6890012 106.3664997  12.1339988
 140.1430012 106.3224997  11.7149988 139.4242237 105.9252831  12.0016465
 136.4530012  99.9844997   9.6949988 137.0670012 100.6174997  10.0689988
 136.9650012  99.5124997   9.0389988 136.6062296 100.0072370   9.6574252
 137.8360012 107.7324997  12.8179988 137.8310012 108.6124997  12.4399988
 136.9830012 107.6494997  13.2429988 137.7199464 107.8416117  12.8237907
 133.9570012 107.4034997   3.5999988 133.6850012 107.6324997   2.7109988
 134.0030012 108.2414997   4.0599988 133.9260094 107.5481213   3.5405697
 140.8860012  95.3984997   9.1959988 140.7690012  94.4494997   9.1409988
 140.0310012  95.7304997   9.4689988 140.7543733  95.3135409   9.2253897
 143.1530012 104.2354997   3.6959988 142.4410012 104.7704997   3.3439988
 143.8440012 104.2914997   3.0359988 143.1490132 104.3162543   3.5586289
 143.2060012 102.6934997   0.7349988 143.9070012 102.7154997   1.3859988
 143.5090012 102.0654997   0.0789988 143.3427830 102.6116566   0.7353711
 138.2040012 105.0754997   6.5299988 137.8730012 104.7054997   5.7119988
 138.7920012 104.4054997   6.8769988 138.2381873 104.9341156   6.4648102
 139.5700012 108.5034997   9.2119988 139.4760012 107.9254997   8.4549988
 140.3000012 108.1324997   9.7079988 139.6557981 108.3742390   9.1754165
 138.5700012 103.8444997  10.1639988 139.1360012 103.9654997   9.4009988
 138.8890012 104.4814997  10.8029988 138.6905786 103.9471884  10.1460040
 144.8790012 109.3474997  10.8979988 144.6390012 110.0094997  11.5459988
 144.6810012 108.5134997  11.3229988 144.8193808 109.3253134  11.0441524
 139.4500012 108.2434997  14.8809988 139.1390012 109.0254997  15.3359988
 138.8000012 108.0904997  14.1949988 139.3195558 108.3299105  14.8505871
 136.3700012 104.4414997  14.1099988 136.4410012 105.0924997  14.8079988
 135.4800012 104.5444997  13.7749988 136.2593117 104.5445936  14.1602700
 143.1560012 110.3444997   5.7679988 143.6300012 110.6394997   6.5459988
 142.5930012 111.0824997   5.5349988 143.1447653 110.4846932   5.8430136
 137.6900012 110.3154997  15.6439988 137.6970012 110.1794997  14.6969988
 136.7740012 110.1974997  15.8959988 137.5671714 110.2809430  15.5484666
 137.1940012 104.1454997   4.1199988 136.9020012 104.9134997   3.6289988
 136.5200012 103.4854997   3.9569988 137.0629081 104.1614406   4.0307340
 133.2870012 106.5084997  12.9349988 132.7860012 106.4804997  12.1199988
 133.2920012 105.6024997  13.2439988 133.2191526 106.3822278  12.8652872
 133.0370012 109.2884997   9.8189988 133.9830012 109.1444997   9.7999988
 132.9250012 110.0724997  10.3559988 133.1512727 109.3748046   9.8890072
 142.2140012 109.5284997  14.3769988 142.3010012 110.3544997  14.8519988
 141.3500012 109.1984997  14.6259988 142.1091964 109.5969878  14.4756549
 142.6280012 113.3004997   4.1829988 142.5530012 113.1794997   3.2369988
 142.6610012 114.2504997   4.3019988 142.6221848 113.4122500   4.0694834
 136.2810012 112.0894997   5.9639988 136.4340012 111.7414997   6.8429988
 135.4310012 111.7334997   5.7089988 136.1868962 111.9936650   6.0498340
 135.5360012 107.8314997  13.9779988 135.7520012 107.4704997  14.8369988
 134.6810012 107.4574997  13.7679988 135.4499292 107.7314111  14.0673386
 138.1550012  96.3014997   9.9729988 137.2930012  96.2144997   9.5659988
 138.1320012  97.1574997  10.4009988 138.0340330  96.4052765   9.9751863
 142.8180012  96.0234997  13.3479988 143.2380012  95.6084997  14.1009988
 141.8850012  95.8454997  13.4649988 142.7493644  95.9425900  13.4669539
 142.4790012  98.5164997   0.6329988 142.2260012  98.5354997   1.5559988
 142.2230012  97.6444997   0.3319988 142.4097790  98.4012437   0.7186263
 138.2460012 101.2674997  11.0679988 137.6040012 101.2264997  11.7769988
 138.2830012 102.1934997  10.8309988 138.1631324 101.3871559  11.1329824
 138.2430012 101.4884997   5.9799988 137.3500012 101.1474997   5.9219988
 138.6930012 101.1114997   5.2249988 138.1817305 101.3908484   5.8699177
 143.7780012 101.9044997   4.7969988 143.3690012 102.7194997   4.5059988
 144.4990012 101.7644997   4.1829988 143.8194537 101.9972018   4.6741342
 142.8800012 102.0794997  16.2849988 142.3180012 101.3754997  16.6059988
 143.7070012 101.9594997  16.7529988 142.9147095 101.9667883  16.3922330
 144.7830012 101.3504997   7.6109988 144.5880012 101.9554997   6.8959988
 144.9640012 100.5164997   7.1769988 144.7807614 101.3206300   7.4544405
 135.9960012 101.5874997  12.9349988 135.9580012 101.9874997  13.8039988
 135.5050012 100.7704997  13.0259988 135.9244684 101.5318069  13.0661059
 139.3620012  98.9614997  -0.2660012 138.9310012  98.5164997   0.4639988
 138.6440012  99.3334997  -0.7780012 139.2059438  98.9508940  -0.2353201
 132.6040012  98.7034997   6.7859988 133.2350012  98.6744997   7.5049988
 133.0530012  98.2784997   6.0559988 132.7510774  98.6420492   6.7856553
 133.8780012  99.4494997   2.2099988 134.3520012 100.0404997   1.6249988
 133.1610012  99.9804997   2.5569988 133.8459341  99.6020867   2.1768836
 144.0470012 102.9884997  12.2829988 144.3700012 102.3574997  11.6399988
 143.6070012 102.4534997  12.9429988 144.0316895 102.8298441  12.2842850
 140.8240012  98.9154997   7.0669988 139.9130012  98.9724997   7.3549988
 141.3300012  98.8554997   7.8769988 140.7675413  98.9151985   7.2160622
 135.6530012 100.5444997   5.8929988 134.7630012 100.6444997   5.5529988
 135.9490012  99.7024997   5.5469988 135.5712823 100.4443546   5.7997213
 139.3060012 100.5444997   3.5499988 140.2370012 100.6734997   3.7279988
 139.0910012 101.2144997   2.8999988 139.4044247 100.6526565   3.4865747
 137.9800012 101.7394997   1.1169988 137.4370012 101.3594997   0.4249988
 138.8130012 101.9334997   0.6879988 138.0184399 101.7138124   0.9644526
 136.1150012 106.2964997  16.2159988 136.8470012 106.5504997  16.7769988
 135.3350012 106.5004997  16.7309988 136.1098232 106.3589177  16.3625760
 142.1440012 101.7034997   8.9539988 142.7090012 101.1564997   8.4069988
 141.9970012 101.1814997   9.7419988 142.2012918 101.5582024   8.9858454
 137.1460012  97.8394997   5.3719988 136.8290012  96.9374997   5.3369988
 137.9280012  97.8414997   4.8189988 137.2082284  97.7161628   5.2924783
 140.7710012 100.0914997  11.3679988 139.9350012 100.5454997  11.4779988
 141.2950012 100.3674997  12.1199988 140.7274414 100.1909376  11.4847136
 141.3150012 106.3044997   3.0519988 140.5700012 105.7974997   2.7299988
 141.1810012 106.3534997   3.9989988 141.1948776 106.2416940   3.1358647
 142.8340012 106.4884997  14.2889988 142.4890012 106.1074997  15.0959988
 142.6340012 107.4224997  14.3609988 142.7598061 106.5625228  14.4090961
 136.4400012 105.5994997   8.8219988 137.1850012 105.5974997   8.2209988
 136.5180012 104.7764997   9.3039988 136.5525518 105.4879315   8.8048929
 143.4410012 107.7634997   2.0779988 143.1450012 108.5894997   2.4589988
 142.7380012 107.1434997   2.2739988 143.3054914 107.7928199   2.1566443
 133.4480012 104.0604997  14.1369988 133.6710012 103.6424997  14.9689988
 132.8460012 103.4474997  13.7139988 133.3971759 103.9204668  14.1937022
 140.4640012 103.5774997  16.3499988 140.1680012 103.4114997  15.4549988
 141.3960012 103.3574997  16.3389988 140.5494166 103.5250640  16.2260536
 138.8150012 109.1174997   6.2259988 139.3420012 109.8904997   6.0259988
 137.9350012 109.3424997   5.9249988 138.7681773 109.2538005   6.1579010
 134.5700012 103.9794997   0.8129988 135.1860012 104.6064997   1.1929988
 133.7080012 104.2954997   1.0849988 134.5377698 104.1079430   0.9017183
 140.2420012 106.7804997   5.8029988 140.0010012 107.7054997   5.8439988
 139.5010012 106.3214997   6.1989988 140.1088409 106.8451421   5.8621377
 140.7570012 110.9294997  12.1179988 141.1190012 111.7844997  11.8839988
 141.2880012 110.6374997  12.8579988 140.8784473 111.0071060  12.1860855
 138.9250012 111.8024997   5.3479988 137.9750012 111.9074997   5.3989988
 139.2770012 112.6224997   5.6929988 138.8424203 111.9278314   5.4016650
 144.3010012 107.0284997  11.8179988 143.8750012 106.8014997  12.6449988
 144.8810012 106.2904997  11.6359988 144.3211868 106.8975299  11.9065830
 135.0820012  98.8134997  13.6949988 134.1890012  99.1524997  13.6269988
 134.9830012  97.9584997  14.1129988 134.9464164  98.7442588  13.7422235
 134.7330012 110.6184997  12.1299988 134.9500012 109.6864997  12.0989988
 134.9790012 110.8924997  13.0129988 134.7959549 110.5280636  12.2451763
 140.5950012 109.0694997  -0.6610012 140.8340012 108.3214997  -1.2080012
 140.3260012 108.6814997   0.1719988 140.5913675 108.9146638  -0.6233135
 139.5320012 108.6394997   1.7959988 139.6780012 108.1194997   2.5859988
 139.5290012 109.5464997   2.1019988 139.5515989 108.6908853   1.9456088
 135.9850012 105.8924997   2.3059988 135.2990012 106.2444997   2.8729988
 136.5070012 106.6554997   2.0589988 135.9616852 106.0438578   2.3502118
 143.8160012  98.5544997  12.5849988 144.5150012  98.6284997  13.2349988
 143.4350012  97.6904997  12.7389988 143.8601767  98.4477624  12.6948322
 144.6010012  98.2064997   3.6819988 144.8210012  98.6784997   2.8789988
 145.1590012  98.6014997   4.3519988 144.7064968  98.3244285   3.6627331
 142.2690012 110.3374997   2.5449988 141.4530012 110.8344997   2.5969988
 142.7990012 110.8124997   1.9049988 142.2289161 110.4697722   2.4655956
 141.8010012  99.9344997   4.5169988 142.6130012 100.4394997   4.5629988
 141.5560012  99.7894997   5.4309988 141.8790520  99.9840375   4.6468517
 142.3360012 100.9204997  13.7019988 142.4550012 101.4944997  14.4589988
 142.9920012 100.2324997  13.8159988 142.4409757 100.9061079  13.8210825
 142.6840012  97.0154997   5.4549988 142.3380012  97.6334997   6.0999988
 143.3430012  97.5164997   4.9739988 142.7257826  97.1675802   5.4780971
 139.6080012 111.3814997   2.5269988 139.7680012 112.1804997   2.0259988
 139.4100012 111.6874997   3.4119988 139.6031649 111.5324469   2.5779815
 138.3420012  98.0784997   2.1419988 138.2590012  98.9674997   2.4889988
 139.2320012  97.8134997   2.3739988 138.4509469  98.1641430   2.2207626
 136.6010012 108.5064997   1.2029988 137.1930012 109.2054997   1.4789988
 137.0600012 108.0734997   0.4829988 136.7441142 108.5437049   1.1434830
 134.9170012 101.1704997   0.3189988 134.8720012 102.1094997   0.4969988
 134.0290012 100.9344997   0.0489988 134.7908574 101.2671892   0.3068912
 135.7250012  95.9524997   8.9919988 135.4960012  96.0114997   8.0639988
 135.2820012  95.1604997   9.2979988 135.6338530  95.8535753   8.9064786
 134.6550012 109.8924997   5.1519988 133.8230012 110.3654997   5.1799988
 135.2010012 110.4024997   4.5539988 134.6149739 110.0261871   5.0749716
 133.9430012 112.5054997  16.4819988 134.4840012 112.2884997  17.2419988
 133.4620012 111.6994997  16.2929988 133.9519345 112.3669514  16.5603076
 138.5410012 111.4244997  18.1029988 139.3080012 110.9654997  18.4439988
 138.5190012 111.1984997  17.1729988 138.6431434 111.3310409  18.0240043
 142.6330012 110.9324997  -0.5220012 141.9890012 110.3014997  -0.2010012
 143.3950012 110.4014997  -0.7540012 142.6478077 110.7742920  -0.5093989
 133.8500012 106.3154997  17.4369988 133.9940012 105.4134997  17.1499988
 133.0780012 106.6014997  16.9489988 133.7653322 106.2308261  17.3317881
 138.1920012 106.6594997  -0.4310012 138.2560012 105.8654997   0.0999988
 138.8450012 106.5404997  -1.1210012 138.2890241 106.5347148  -0.4515683
 140.5060012 106.2854997  16.8689988 140.1770012 106.5564997  16.0119988
 140.6580012 105.3444997  16.7819988 140.4814809 106.1953862  16.7398244
 143.5440012 107.7064997  -0.6950012 143.2750012 107.8864997   0.2059988
 143.3380012 106.7804997  -0.8260012 143.4793825 107.6060152  -0.5894786
 134.6830012 103.5154997  16.8569988 135.0910012 102.6584997  16.7359988
 134.4230012 103.5304997  17.7779988 134.7037568 103.4000807  16.9649588
 139.3410012 104.6314997   1.8749988 138.8810012 104.1474997   2.5609988
 139.5960012 103.9634997   1.2389988 139.3124902 104.4748731   1.8829334
 138.6300012 102.5244997  14.2309988 138.0120012 103.1994997  14.5109988
 138.9740012 102.8454997  13.3979988 138.5919615 102.6602721  14.1566581
 140.4120012 102.8744997   0.1369988 140.2320012 102.7204997  -0.7900012
 141.3620012 102.9824997   0.1819988 140.5157776 102.8680175   0.0161843
 143.6500012 104.9964997  17.5079988 144.6030012 105.0794997  17.4809988
 143.4890012 104.2844997  18.1279988 143.7586426 104.9116746  17.5880579
 138.9690012  99.8794997  15.3129988 139.1190012  99.1504997  14.7109988
 138.9720012 100.6564997  14.7539988 138.9899302  99.8847851  15.1550692
 139.3820012  98.2494997  12.8059988 139.9180012  98.7004997  12.1539988
 138.5300012  98.1414997  12.3829988 139.3402178  98.2966390  12.6595756
 140.9640012 103.6884997  13.0449988 141.7140012 103.5324997  12.4719988
 140.6250012 104.5404997  12.7699988 141.0208921 103.7822968  12.9293561
 137.4480012 101.0774997  17.2249988 136.6810012 100.5454997  17.0149988
 138.1270012 100.7674997  16.6249988 137.4347022 100.9627506  17.1151648
 140.1880012  95.7054997  13.2369988 140.0890012  96.6524997  13.1319988
 139.4450012  95.3334997  12.7619988 140.0740564  95.7845902  13.1584560
 141.4520012 100.0274997  16.8009988 141.2160012  99.8074997  17.7029988
 140.6680012  99.8204997  16.2909988 141.3138628  99.9694760  16.8553932
 144.1670012  99.1544997  15.8769988 143.2200012  99.1864997  16.0089988
 144.4800012  98.5294997  16.5299988 144.0795475  99.0743207  15.9834455
 135.6280012  98.9984997  16.9289988 135.8400012  98.2914997  16.3189988
 135.5170012  98.5604997  17.7729988 135.6419721  98.8427084  16.9596843
 140.4090012  94.9994997  15.9089988 141.1210012  94.3594997  15.8949988
 140.3080012  95.2664997  14.9949988 140.4927939  94.9479938  15.7835650
 140.7630012  96.6824997  17.9619988 140.6310012  96.2064997  17.1419988
 140.1640012  97.4264997  17.9069988 140.6639071  96.7179618  17.8422886
 140.3090012 113.5654997   1.1389988 141.2420012 113.7234997   1.2819988
 140.0450012 114.2404997   0.5139988 140.4009510 113.6783611   1.0740741
 133.8780012 108.2014997   0.6209988 134.7920012 108.2804997   0.8949988
 133.8850012 107.5144997  -0.0450012 134.0041131 108.1193961   0.5684393
 132.5270012 113.5944997   5.6989988 131.8800012 113.1324997   5.1659988
 132.8810012 112.9224997   6.2809988 132.4863849 113.4404723   5.7047959
 133.3970012 111.6754997   7.5029988 133.0620012 110.7954997   7.6749988
 133.6190012 112.0204997   8.3679988 133.3811783 111.6017500   7.6434208
 133.4770012 104.7504997   9.9549988 133.6610012 104.6684997   9.0189988
 134.3260012 104.6264997  10.3789988 133.6170139 104.7225003   9.8841455
 133.0740012 100.0214997  16.0959988 133.9940012  99.8994997  16.3319988
 132.6250012  99.2714997  16.4849988 133.1391580  99.9033727  16.1809006
 134.2950012  98.3334997   8.9869988 134.7410012  97.5414997   9.2889988
 134.7620012  99.0494997   9.4179988 134.4190172  98.3220624   9.0864820
 132.5990012 101.3324997  10.0559988 133.0910012 101.1114997   9.2649988
 132.9620012 102.1734997  10.3369988 132.7153126 101.4158357   9.9857531
 132.9130012  97.5904997   4.1099988 131.9880012  97.7994997   3.9809988
 133.3670012  98.0744997   3.4209988 132.8477368  97.6845993   3.9991226
 132.8770012  96.3284997  12.4549988 132.2120012  96.0824997  13.0979988
 132.4340012  96.9504997  11.8769988 132.7260956  96.3788632  12.4649352
 135.0690012 109.5034997  16.5989988 134.2480012 109.6784997  16.1389988
 134.8160012 109.4304997  17.5199988 134.9226164 109.5175622  16.6604923
 138.0230012 110.4784997  12.8579988 137.5980012 111.2874997  12.5749988
 138.9270012 110.5634997  12.5559988 138.0870271 110.6008469  12.7783776
 142.3340012 111.8774997  15.8169988 142.5190012 111.5434997  16.6949988
 143.1800012 112.1864997  15.4949988 142.4737539 111.8736047  15.8935605
 144.6790012 113.1634997  15.0609988 145.3560012 112.5304997  14.8209988
 145.0010012 113.5644997  15.8679988 144.8151637 113.1311154  15.1372793
 135.4250012 113.7344997  12.9049988 134.7040012 114.1744997  12.4539988
 135.0590012 113.4834997  13.7539988 135.2769804 113.7607698  12.9579840
 137.8920012 113.3344997  11.9349988 137.0270012 113.4064997  12.3389988
 137.8370012 113.8814997  11.1509988 137.7662085 113.4182685  11.8843362
 142.6020012 113.2224997  11.1099988 142.1460012 113.7514997  10.4559988
 142.7650012 113.8254997  11.8359988 142.5615585 113.3764468  11.1185062
 134.8390012 112.3574997   9.8149988 134.8210012 111.9324997  10.6729988
 135.6440012 112.0394997   9.4069988 134.9453875 112.2563812   9.8771655
 136.9810012 111.0674997   8.4699988 136.7620012 110.1514997   8.6399988
 137.8050012 111.2074997   8.9359988 137.0624420 110.9610520   8.5562774
 139.5180012 111.5374997   9.3189988 139.7310012 110.6494997   9.0319988
 139.5820012 111.5034997  10.2729988 139.5558232 111.4113102   9.4087397
 143.0260012  97.2014997   8.4629988 142.3520012  96.5724997   8.7189988
 143.5900012  96.7174997   7.8599988 143.0099230  97.0498744   8.4165340
 135.3530012  95.8354997   6.2849988 134.5760012  95.6014997   5.7779988
 135.8830012  95.0384997   6.2939988 135.3182330  95.6956988   6.2167742
 134.1890012  95.6334997   2.0889988 134.6280012  96.2444997   1.4969988
 133.5560012  96.1714997   2.5629988 134.1634514  95.7899257   2.0720930
 139.9320012  95.7624997   6.0989988 140.8070012  96.1504997   6.0689988
 139.7960012  95.5474997   7.0209988 140.0333695  95.7865184   6.2196440
 134.0900012 111.5814997   2.9869988 133.4050012 111.5434997   2.3189988
 134.0940012 112.4944997   3.2749988 133.9968193 111.6997016   2.9345284
 136.0500012  97.5494997   0.5309988 136.5420012  96.9194997   0.0039988
 136.6740012  97.8454997   1.1949988 136.2015446  97.5033199   0.5485980
 141.0760012  97.8424997   2.9879988 141.2540012  97.1964997   3.6709988
 141.0230012  98.6764997   3.4559988 141.0931829  97.8667985   3.1445940
 142.9550012 112.7914997   1.3839988 143.8210012 113.1574997   1.2059988
 142.7080012 112.3514997   0.5699988 143.0402392 112.7821756   1.2496289
 135.3110012  96.3494997  15.8029988 134.9450012  95.5844997  16.2459988
 136.2240012  96.3784997  16.0899988 135.3842790  96.2487224  15.9024070
 137.2840012  95.7004997  17.3389988 138.1820012  95.4264997  17.1539988
 136.8970012  94.9574997  17.8029988 137.3546612  95.5625914  17.3763643
 135.9080012 112.5014997   0.0119988 135.6410012 112.7884997   0.8849988
 136.6800012 111.9554997   0.1639988 135.9757488 112.4670294   0.1521050
  12.4390012 123.8474997   6.2439988  12.5280012 124.7914997   6.1119988
  11.8010012 123.5724997   5.5859988  12.3649081 123.9394830   6.1369614
  11.3720012 123.1024997   9.6629988  11.3340012 122.4564997  10.3679988
  11.0500012 122.6364997   8.8919988  11.3232333 122.9509408   9.6552978
   3.7410012 122.7174997  11.2559988   3.7820012 122.0914997  11.9789988
   4.4440012 123.3414997  11.4379988   3.8416363 122.7161196  11.3796044
  15.0780012 126.0414997   7.9639988  14.6380012 125.3214997   8.4149988
  15.0650012 126.7624997   8.5939988  15.0160226 126.0403731   8.1108494
   4.6640012 127.1674997   9.7909988   4.2950012 126.3654997   9.4209988
   5.6050012 126.9984997   9.8369988   4.7407289 127.0350153   9.7466316
   1.2740012 120.8274997   5.1839988   0.8270012 121.6734997   5.1649988
   0.7130012 120.2474997   4.6679988   1.1369900 120.8649916   5.1116801
   1.9850012 122.9894997   7.3099988   2.1980012 122.2194997   7.8369988
   2.7230012 123.0784997   6.7059988   2.1138496 122.8961394   7.3005300
  12.1900012 131.1464997   8.1769988  12.8100012 130.4694997   7.9029988
  11.9820012 130.9284997   9.0849988  12.2466904 131.0243870   8.2623365
   9.7620012 125.5354997  10.0689988  10.0660012 124.8494997   9.4739988
  10.4830012 125.6534997  10.6869988   9.9010671 125.4576305  10.0711816
  18.4250012 117.1364997  10.9299988  18.4740012 117.7464997  11.6659988
  18.8500012 117.5974997  10.2069988  18.4891824 117.2823741  10.9330205
  12.9030012 119.9294997  10.3969988  13.0450012 118.9834997  10.4169988
  12.7960012 120.1364997   9.4679988  12.9079864 119.8279534  10.2742339
   6.0570012 118.0304997   7.6689988   6.1010012 118.8904997   7.2509988
   5.6000012 117.4784997   7.0349988   6.0012185 118.0735799   7.5260299
  13.7800012 118.1614997   6.0699988  14.4260012 117.8324997   6.6949988
  14.2900012 118.6794997   5.4469988  13.9374264 118.1864611   6.0713862
   2.6780012 120.4274997   8.4309988   3.3310012 119.8774997   8.8629988
   2.7020012 120.1534997   7.5139988   2.7706683 120.3151466   8.3662123
   7.8340012 121.9774997   7.6459988   8.4500012 121.4514997   8.1559988
   7.2480012 121.3374997   7.2429988   7.8390810 121.8189208   7.6613173
  18.8160012 118.6144997  13.1659988  18.1280012 119.2724997  13.0699988
  18.8320012 118.4174997  14.1019988  18.7238525 118.6780462  13.2794808
   4.8680012 116.9484997  11.7429988   4.6490012 117.4784997  10.9769988
   4.2000012 117.1754997  12.3899988   4.7477600 117.0516906  11.7256379
  12.2370012 126.4484997   5.2869988  11.9410012 126.1264997   4.4359988
  11.9120012 127.3484997   5.3279988  12.1526371 126.5260215   5.1761801
   7.4370012 124.6244997  12.0299988   6.6970012 125.2224997  12.1339988
   8.1510012 125.1784997  11.7149988   7.4322237 124.7812831  12.0016465
  15.5440012 117.4524997   8.0499988  15.3280012 116.6864997   8.5829988
  16.1990012 117.9244997   8.5629988  15.6030632 117.4115889   8.1922861
   4.4610012 118.8404997   9.6949988   5.0750012 119.4734997  10.0689988
   4.9730012 118.3684997   9.0389988   4.6142296 118.8632370   9.6574252
   5.8440012 126.5884997  12.8179988   5.8390012 127.4684997  12.4399988
   4.9910012 126.5054997  13.2429988   5.7279464 126.6976117  12.8237907
   1.9650012 126.2594997   3.5999988   1.6930012 126.4884997   2.7109988
   2.0110012 127.0974997   4.0599988   1.9340094 126.4041213   3.5405697
  15.5900012 127.8814997  10.3119988  14.6490012 127.9394997  10.4739988
  15.8670012 128.7874997  10.1749988  15.4984679 128.0119443  10.3156815
  15.8910012 116.1674997  11.7299988  15.1550012 116.7784997  11.6919988
  16.5740012 116.5824997  11.2029988  15.8826541 116.3071374  11.6535832
   8.8940012 114.2544997   9.1959988   8.7770012 113.3054997   9.1409988
   8.0390012 114.5864997   9.4689988   8.7623733 114.1695409   9.2253897
  13.8420012 129.6624997   6.9379988  14.2680012 128.9554997   6.4529988
  14.1590012 130.4634997   6.5209988  13.9431019 129.6740994   6.8153130
  15.0020012 127.5634997   5.4459988  14.7440012 126.8734997   4.8349988
  15.0730012 127.1204997   6.2919988  14.9762856 127.4092124   5.4766885
  16.6880012 126.1294997  13.9239988  16.8280012 125.5384997  13.1839988
  16.8550012 127.0024997  13.5669988  16.7296778 126.1666426  13.7746965
  11.1610012 123.0914997   3.6959988  10.4490012 123.6264997   3.3439988
  11.8520012 123.1474997   3.0359988  11.1570132 123.1722543   3.5586289
  11.2140012 121.5494997   0.7349988  11.9150012 121.5714997   1.3859988
  11.5170012 120.9214997   0.0789988  11.3507830 121.4676566   0.7353711
  18.5300012 122.4694997  11.9899988  17.8770012 123.1644997  12.0789988
  18.9950012 122.6794997  11.1799988  18.5035390 122.5929425  11.8926883
  14.5660012 123.3014997   4.6479988  13.8340012 123.5294997   5.2209988
  15.0140012 122.5874997   5.1029988  14.5263095 123.2362571   4.7879119
  14.4640012 121.4754997  13.7149988  14.5440012 122.2384997  14.2869988
  13.8620012 121.7544997  13.0249988  14.3935756 121.6177134  13.7000589
   6.2120012 123.9314997   6.5299988   5.8810012 123.5614997   5.7119988
   6.8000012 123.2614997   6.8769988   6.2461873 123.7901156   6.4648102
   7.5780012 127.3594997   9.2119988   7.4840012 126.7814997   8.4549988
   8.3080012 126.9884997   9.7079988   7.6637981 127.2302390   9.1754165
   6.5780012 122.7004997  10.1639988   7.1440012 122.8214997   9.4009988
   6.8970012 123.3374997  10.8029988   6.6985786 122.8031884  10.1460040
  12.8870012 128.2034997  10.8979988  12.6470012 128.8654997  11.5459988
  12.6890012 127.3694997  11.3229988  12.8273808 128.1813134  11.0441524
   7.4580012 127.0994997  14.8809988   7.1470012 127.8814997  15.3359988
   6.8080012 126.9464997  14.1949988   7.3275558 127.1859105  14.8505871
  13.4370012 122.4634997   2.3329988  14.0170012 122.6134997   3.0799988
  13.8510012 122.9344997   1.6099988  13.5722831 122.5476841   2.3374134
   4.3780012 123.2974997  14.1099988   4.4490012 123.9484997  14.8079988
   3.4880012 123.4004997  13.7749988   4.2673117 123.4005936  14.1602700
  11.1640012 129.2004997   5.7679988  11.6380012 129.4954997   6.5459988
  10.6010012 129.9384997   5.5349988  11.1527653 129.3406932   5.8430136
   5.6980012 129.1714997  15.6439988   5.7050012 129.0354997  14.6969988
   4.7820012 129.0534997  15.8959988   5.5751714 129.1369430  15.5484666
  17.1360012 114.2134997   2.1459988  16.2360012 114.3524997   2.4409988
  17.3880012 115.0444997   1.7439988  17.0468702 114.3449074   2.1320205
   5.2020012 123.0014997   4.1199988   4.9100012 123.7694997   3.6289988
   4.5280012 122.3414997   3.9569988   5.0709081 123.0174406   4.0307340
  18.3250012 128.5794997   0.5219988  18.3990012 129.5184997   0.6929988
  19.2310012 128.2744997   0.4659988  18.4575100 128.6666722   0.5378119
   1.2950012 125.3644997  12.9349988   0.7940012 125.3364997  12.1199988
   1.3000012 124.4584997  13.2439988   1.2271526 125.2382278  12.8652872
   1.0450012 128.1444997   9.8189988   1.9910012 128.0004997   9.7999988
   0.9330012 128.9284997  10.3559988   1.1592727 128.2308046   9.8890072
  19.2430012 128.8104997  15.5009988  19.1940012 127.8554997  15.4639988
  18.4160012 129.0784997  15.9019988  19.1244940 128.7158998  15.5501375
  10.2220012 128.3844997  14.3769988  10.3090012 129.2104997  14.8519988
   9.3580012 128.0544997  14.6259988  10.1171964 128.4529878  14.4756549
  10.6360012 132.1564997   4.1829988  10.5610012 132.0354997   3.2369988
  10.6690012 133.1064997   4.3019988  10.6301848 132.2682500   4.0694834
   4.2890012 130.9454997   5.9639988   4.4420012 130.5974997   6.8429988
   3.4390012 130.5894997   5.7089988   4.1948962 130.8496650   6.0498340
  13.7380012 131.3104997   1.1849988  14.1130012 130.5664997   0.7149988
  13.7420012 131.0404997   2.1039988  13.7898915 131.1721486   1.2447824
  13.4070012 131.2364997   3.9349988  12.4710012 131.3364997   4.1129988
  13.6870012 130.5274997   4.5129988  13.3168255 131.1542711   4.0375391
  16.3950012 120.3034997  15.9809988  15.9880012 120.7844997  15.2599988
  16.4360012 119.3984997  15.6729988  16.3448437 120.2469374  15.8406683
   3.5440012 126.6874997  13.9779988   3.7600012 126.3264997  14.8369988
   2.6890012 126.3134997  13.7679988   3.4579292 126.5874111  14.0673386
   6.1630012 115.1574997   9.9729988   5.3010012 115.0704997   9.5659988
   6.1400012 116.0134997  10.4009988   6.0420330 115.2612765   9.9751863
  10.8260012 114.8794997  13.3479988  11.2460012 114.4644997  14.1009988
   9.8930012 114.7014997  13.4649988  10.7573644 114.7985900  13.4669539
  14.1520012 118.6354997  14.2009988  13.6380012 118.5094997  14.9989988
  13.9970012 119.5474997  13.9569988  14.0606852 118.7416132  14.2772158
  14.9150012 123.4964997  -0.0370012  14.9570012 123.2734997  -0.9670012
  15.7640012 123.8954997   0.1529988  15.0355396 123.5199155  -0.1386373
  10.4870012 117.3724997   0.6329988  10.2340012 117.3914997   1.5559988
  10.2310012 116.5004997   0.3319988  10.4177790 117.2572437   0.7186263
   6.2540012 120.1234997  11.0679988   5.6120012 120.0824997  11.7769988
   6.2910012 121.0494997  10.8309988   6.1711324 120.2431559  11.1329824
   6.2510012 120.3444997   5.9799988   5.3580012 120.0034997   5.9219988
   6.7010012 119.9674997   5.2249988   6.1897305 120.2468484   5.8699177
  11.7860012 120.7604997   4.7969988  11.3770012 121.5754997   4.5059988
  12.5070012 120.6204997   4.1829988  11.8274537 120.8532018   4.6741342
  10.8880012 120.9354997  16.2849988  10.3260012 120.2314997  16.6059988
  11.7150012 120.8154997  16.7529988  10.9227095 120.8227883  16.3922330
  12.7910012 120.2064997   7.6109988  12.5960012 120.8114997   6.8959988
  12.9720012 119.3724997   7.1769988  12.7887614 120.1766300   7.4544405
   4.0040012 120.4434997  12.9349988   3.9660012 120.8434997  13.8039988
   3.5130012 119.6264997  13.0259988   3.9324684 120.3878069  13.0661059
   7.3700012 117.8174997  -0.2660012   6.9390012 117.3724997   0.4639988
   6.6520012 118.1894997  -0.7780012   7.2139438 117.8068940  -0.2353201
   0.6120012 117.5594997   6.7859988   1.2430012 117.5304997   7.5049988
   1.0610012 117.1344997   6.0559988   0.7590774 117.4980492   6.7856553
   1.8860012 118.3054997   2.2099988   2.3600012 118.8964997   1.6249988
   1.1690012 118.8364997   2.5569988   1.8539341 118.4580867   2.1768836
  12.0550012 121.8444997  12.2829988  12.3780012 121.2134997  11.6399988
  11.6150012 121.3094997  12.9429988  12.0396895 121.6858441  12.2842850
   8.8320012 117.7714997   7.0669988   7.9210012 117.8284997   7.3549988
   9.3380012 117.7114997   7.8769988   8.7755413 117.7711985   7.2160622
   3.6610012 119.4004997   5.8929988   2.7710012 119.5004997   5.5529988
   3.9570012 118.5584997   5.5469988   3.5792823 119.3003545   5.7997213
   7.3140012 119.4004997   3.5499988   8.2450012 119.5294997   3.7279988
   7.0990012 120.0704997   2.8999988   7.4124247 119.5086565   3.4865747
  13.2370012 117.0064997  10.3309988  12.5610012 117.1374997  10.9949988
  12.7520012 116.8514997   9.5209988  13.0787145 117.0034905  10.3124517
   5.9880012 120.5954997   1.1169988   5.4450012 120.2154997   0.4249988
   6.8210012 120.7894997   0.6879988   6.0264399 120.5698124   0.9644526
  16.5250012 132.6784997  16.6079988  16.7250012 133.1024997  15.7729988
  17.1800012 133.0214997  17.2149988  16.6410051 132.7829648  16.5757836
   4.1230012 125.1524997  16.2159988   4.8550012 125.4064997  16.7769988
   3.3430012 125.3564997  16.7309988   4.1178232 125.2149177  16.3625760
  10.1520012 120.5594997   8.9539988  10.7170012 120.0124997   8.4069988
  10.0050012 120.0374997   9.7419988  10.2092918 120.4142024   8.9858454
   5.1540012 116.6954997   5.3719988   4.8370012 115.7934997   5.3369988
   5.9360012 116.6974997   4.8189988   5.2162284 116.5721628   5.2924783
   8.7790012 118.9474997  11.3679988   7.9430012 119.4014997  11.4779988
   9.3030012 119.2234997  12.1199988   8.7354414 119.0469376  11.4847136
   9.3230012 125.1604997   3.0519988   8.5780012 124.6534997   2.7299988
   9.1890012 125.2094997   3.9989988   9.2028776 125.0976940   3.1358647
  16.4730012 124.2934997  11.8389988  17.1150012 124.7504997  11.2949988
  15.6430012 124.4064997  11.3759988  16.4485963 124.3712704  11.7020177
  13.2210012 117.9744997   1.2519988  12.2820012 118.0864997   1.0999988
  13.5180012 118.8314997   1.5579988  13.1327666 118.1056443   1.2725768
  10.8420012 125.3444997  14.2889988  10.4970012 124.9634997  15.0959988
  10.6420012 126.2784997  14.3609988  10.7678061 125.4185228  14.4090961
  13.9390012 119.8414997   2.9119988  14.8310012 119.7044997   3.2309988
  13.9960012 120.6324997   2.3759988  14.0686285 119.9296660   2.8831691
   4.4480012 124.4554997   8.8219988   5.1930012 124.4534997   8.2209988
   4.5260012 123.6324997   9.3039988   4.5605518 124.3439315   8.8048929
  11.4490012 126.6194997   2.0779988  11.1530012 127.4454997   2.4589988
  10.7460012 125.9994997   2.2739988  11.3134914 126.6488199   2.1566443
   1.4560012 122.9164997  14.1369988   1.6790012 122.4984997  14.9689988
   0.8540012 122.3034997  13.7139988   1.4051759 122.7764668  14.1937022
   8.4720012 122.4334997  16.3499988   8.1760012 122.2674997  15.4549988
   9.4040012 122.2134997  16.3389988   8.5574166 122.3810640  16.2260536
  13.0930012 127.8064997  14.2399988  12.1920012 127.9894997  13.9719988
  13.1270012 128.0654997  15.1609988  12.9743041 127.8665512  14.3278197
  18.8240012 120.0514997   2.6069988  18.2700012 119.6554997   1.9349988
  18.9240012 120.9614997   2.3289988  18.7617059 120.1203586   2.4774401
  18.7870012 125.8514997  15.4439988  17.9360012 126.0894997  15.0769988
  19.3780012 125.8344997  14.6909988  18.7502487 125.8818258  15.2918893
  17.1190012 128.8374997   3.0719988  16.7460012 128.0114997   3.3809988
  17.3970012 128.6544997   2.1749988  17.1055630 128.6997303   2.9929626
  14.2800012 123.6454997  10.0929988  13.3510012 123.4134997  10.0659988
  14.7310012 122.8684997   9.7629988  14.2139216 123.5087238  10.0446917
   6.8230012 127.9734997   6.2259988   7.3500012 128.7464997   6.0259988
   5.9430012 128.1984997   5.9249988   6.7761773 128.1098005   6.1579010
   2.5780012 122.8354997   0.8129988   3.1940012 123.4624997   1.1929988
   1.7160012 123.1514997   1.0849988   2.5457698 122.9639430   0.9017183
   8.2500012 125.6364997   5.8029988   8.0090012 126.5614997   5.8439988
   7.5090012 125.1774997   6.1989988   8.1168409 125.7011421   5.8621377
   8.7650012 129.7854997  12.1179988   9.1270012 130.6404997  11.8839988
   9.2960012 129.4934997  12.8579988   8.8864473 129.8631060  12.1860855
   6.9330012 130.6584997   5.3479988   5.9830012 130.7634997   5.3989988
   7.2850012 131.4784997   5.6929988   6.8504203 130.7838314   5.4016650
  12.3090012 125.8844997  11.8179988  11.8830012 125.6574997  12.6449988
  12.8890012 125.1464997  11.6359988  12.3291868 125.7535299  11.9065830
  14.5120012 126.8134997   0.8919988  14.8650012 126.4334997   1.6969988
  13.5630012 126.7204997   0.9789988  14.4320441 126.7489596   1.0138559
  14.9670012 130.4364997  14.2879988  14.3660012 129.8814997  13.7919988
  15.2490012 131.1034997  13.6619988  14.9228519 130.4506841  14.1354952
  19.0150012 131.2934997   1.0929988  19.7590012 131.8794997   0.9529988
  18.3210012 131.8614997   1.4269988  19.0230292 131.4505582   1.1189961
   3.0900012 117.6694997  13.6949988   2.1970012 118.0084997  13.6269988
   2.9910012 116.8144997  14.1129988   2.9544164 117.6002588  13.7422235
  15.3780012 125.4864997   3.1189988  15.1000012 124.7584997   3.6749988
  16.3050012 125.6054997   3.3239988  15.4653124 125.4028802   3.2228845
   2.7410012 129.4744997  12.1299988   2.9580012 128.5424997  12.0989988
   2.9870012 129.7484997  13.0129988   2.8039549 129.3840636  12.2451763
   8.6030012 127.9254997  -0.6610012   8.8420012 127.1774997  -1.2080012
   8.3340012 127.5374997   0.1719988   8.5993675 127.7706638  -0.6233135
   7.5400012 127.4954997   1.7959988   7.6860012 126.9754997   2.5859988
   7.5370012 128.4024997   2.1019988   7.5595989 127.5468853   1.9456088
   3.9930012 124.7484997   2.3059988   3.3070012 125.1004997   2.8729988
   4.5150012 125.5114997   2.0589988   3.9696852 124.8998578   2.3502118
  11.8240012 117.4104997  12.5849988  12.5230012 117.4844997  13.2349988
  11.4430012 116.5464997  12.7389988  11.8681767 117.3037624  12.6948322
  12.6090012 117.0624997   3.6819988  12.8290012 117.5344997   2.8789988
  13.1670012 117.4574997   4.3519988  12.7144968 117.1804285   3.6627331
  10.2770012 129.1934997   2.5449988   9.4610012 129.6904997   2.5969988
  10.8070012 129.6684997   1.9049988  10.2369161 129.3257722   2.4655956
   9.8090012 118.7904997   4.5169988  10.6210012 119.2954997   4.5629988
   9.5640012 118.6454997   5.4309988   9.8870520 118.8400375   4.6468517
  10.3440012 119.7764997  13.7019988  10.4630012 120.3504997  14.4589988
  11.0000012 119.0884997  13.8159988  10.4489757 119.7621079  13.8210825
  10.6920012 115.8714997   5.4549988  10.3460012 116.4894997   6.0999988
  11.3510012 116.3724997   4.9739988  10.7337826 116.0235802   5.4780971
   7.6160012 130.2374997   2.5269988   7.7760012 131.0364997   2.0259988
   7.4180012 130.5434997   3.4119988   7.6111649 130.3884469   2.5779815
   6.3500012 116.9344997   2.1419988   6.2670012 117.8234997   2.4889988
   7.2400012 116.6694997   2.3739988   6.4589469 117.0201430   2.2207626
  16.5490012 117.6834997  14.5369988  15.6320012 117.9464997  14.4489988
  16.8840012 117.6804997  13.6399988  16.4689900 117.7190224  14.4037919
  15.1510012 121.4344997   8.6319988  14.3530012 121.0194997   8.3039988
  15.5960012 120.7434997   9.1229988  15.1019885 121.2843543   8.6534889
   4.6090012 127.3624997   1.2029988   5.2010012 128.0614997   1.4789988
   5.0680012 126.9294997   0.4829988   4.7521142 127.3997049   1.1434830
   2.9250012 120.0264997   0.3189988   2.8800012 120.9654997   0.4969988
   2.0370012 119.7904997   0.0489988   2.7988574 120.1231892   0.3068912
  16.2370012 130.6904997  10.2549988  16.0820012 131.3684997   9.5979988
  17.1700012 130.7624997  10.4579988  16.3418500 130.7930170  10.1925119
   3.7330012 114.8084997   8.9919988   3.5040012 114.8674997   8.0639988
   3.2900012 114.0164997   9.2979988   3.6418530 114.7095753   8.9064786
   2.6630012 128.7484997   5.1519988   1.8310012 129.2214997   5.1799988
   3.2090012 129.2584997   4.5539988   2.6229739 128.8821871   5.0749716
   1.9510012 131.3614997  16.4819988   2.4920012 131.1444997  17.2419988
   1.4700012 130.5554997  16.2929988   1.9599345 131.2229514  16.5603076
   6.5490012 130.2804997  18.1029988   7.3160012 129.8214997  18.4439988
   6.5270012 130.0544997  17.1729988   6.6511434 130.1870409  18.0240043
  10.6410012 129.7884997  -0.5220012   9.9970012 129.1574997  -0.2010012
  11.4030012 129.2574997  -0.7540012  10.6558077 129.6302920  -0.5093989
  13.1260012 128.6604997  16.8319988  12.7750012 127.8044997  17.0749988
  13.8520012 128.8034997  17.4389988  13.1760769 128.5625636  16.9473619
  15.2450012 129.6054997  -0.2880012  15.5280012 128.8114997   0.1639988
  15.9850012 129.8384997  -0.8490012  15.3837486 129.5282803  -0.3019302
   1.8580012 125.1714997  17.4369988   2.0020012 124.2694997  17.1499988
   1.0860012 125.4574997  16.9489988   1.7733322 125.0868261  17.3317881
   6.2000012 125.5154997  -0.4310012   6.2640012 124.7214997   0.0999988
   6.8530012 125.3964997  -1.1210012   6.2970241 125.3907148  -0.4515683
   8.5140012 125.1414997  16.8689988   8.1850012 125.4124997  16.0119988
   8.6660012 124.2004997  16.7819988   8.4894809 125.0513862  16.7398244
  11.5520012 126.5624997  -0.6950012  11.2830012 126.7424997   0.2059988
  11.3460012 125.6364997  -0.8260012  11.4873825 126.4620152  -0.5894786
  14.2480012 125.0574997  14.2529988  14.9940012 125.6454997  14.1329988
  13.4910012 125.6394997  14.3159988  14.2477554 125.2167011  14.2450907
   2.6910012 122.3714997  16.8569988   3.0990012 121.5144997  16.7359988
   2.4310012 122.3864997  17.7779988   2.7117568 122.2560807  16.9649588
   7.3490012 123.4874997   1.8749988   6.8890012 123.0034997   2.5609988
   7.6040012 122.8194997   1.2389988   7.3204902 123.3308731   1.8829334
   6.6380012 121.3804997  14.2309988   6.0200012 122.0554997  14.5109988
   6.9820012 121.7014997  13.3979988   6.5999615 121.5162721  14.1566581
   8.4200012 121.7304997   0.1369988   8.2400012 121.5764997  -0.7900012
   9.3700012 121.8384997   0.1819988   8.5237776 121.7240175   0.0161843
  11.6580012 123.8524997  17.5079988  12.6110012 123.9354997  17.4809988
  11.4970012 123.1404997  18.1279988  11.7666426 123.7676746  17.5880579
  17.8100012 124.0854997  -0.4170012  17.5360012 123.6604997  -1.2300012
  17.8490012 125.0164997  -0.6340012  17.7777699 124.1532484  -0.5576390
   6.9770012 118.7354997  15.3129988   7.1270012 118.0064997  14.7109988
   6.9800012 119.5124997  14.7539988   6.9979302 118.7407851  15.1550692
   7.3900012 117.1054997  12.8059988   7.9260012 117.5564997  12.1539988
   6.5380012 116.9974997  12.3829988   7.3482178 117.1526390  12.6595756
   8.9720012 122.5444997  13.0449988   9.7220012 122.3884997  12.4719988
   8.6330012 123.3964997  12.7699988   9.0288921 122.6382968  12.9293561
  13.3870012 120.3594997  18.0739988  13.5800012 119.4284997  17.9619988
  14.2450012 120.7844997  18.0639988  13.5293020 120.2896389  18.0573361
  14.7040012 123.1484997  16.1509988  14.4230012 123.8574997  15.5739988
  15.6470012 123.0754997  15.9999988  14.7929027 123.2357646  16.0515551
   5.4560012 119.9334997  17.2249988   4.6890012 119.4014997  17.0149988
   6.1350012 119.6234997  16.6249988   5.4427022 119.8187506  17.1151648
   8.1960012 114.5614997  13.2369988   8.0970012 115.5084997  13.1319988
   7.4530012 114.1894997  12.7619988   8.0820564 114.6405902  13.1584560
   9.4600012 118.8834997  16.8009988   9.2240012 118.6634997  17.7029988
   8.6760012 118.6764997  16.2909988   9.3218628 118.8254760  16.8553932
  12.1750012 118.0104997  15.8769988  11.2280012 118.0424997  16.0089988
  12.4880012 117.3854997  16.5299988  12.0875475 117.9303207  15.9834455
  13.8090012 116.6444997  17.8819988  13.7130012 115.6924997  17.8759988
  13.4880012 116.9134997  18.7419988  13.7524070 116.5504035  17.9975441
   3.6360012 117.8544997  16.9289988   3.8480012 117.1474997  16.3189988
   3.5250012 117.4164997  17.7729988   3.6499721 117.6987084  16.9596843
   8.4170012 113.8554997  15.9089988   9.1290012 113.2154997  15.8949988
   8.3160012 114.1224997  14.9949988   8.5007939 113.8039938  15.7835650
   8.7710012 115.5384997  17.9619988   8.6390012 115.0624997  17.1419988
   8.1720012 116.2824997  17.9069988   8.6719071 115.5739618  17.8422886
   8.3170012 132.4214997   1.1389988   9.2500012 132.5794997   1.2819988
   8.0530012 133.0964997   0.5139988   8.4089510 132.5343611   1.0740741
   1.8860012 127.0574997   0.6209988   2.8000012 127.1364997   0.8949988
   1.8930012 126.3704997  -0.0450012   2.0121131 126.9753961   0.5684393
   0.5350012 132.4504997   5.6989988  -0.1119988 131.9884997   5.1659988
   0.8890012 131.7784997   6.2809988   0.4943849 132.2964723   5.7047959
   1.4050012 130.5314997   7.5029988   1.0700012 129.6514997   7.6749988
   1.6270012 130.8764997   8.3679988   1.3891783 130.4577501   7.6434208
  18.9530012 131.3404997  10.4839988  18.9320012 131.5254997  11.4229988
  19.6440012 131.9094997  10.1429988  19.0434618 131.4426606  10.5663864
  18.5170012 130.9084997  13.4059988  18.0290012 130.1724997  13.0349988
  19.0660012 130.5144997  14.0839988  18.5244872 130.7546249  13.4469160
  16.9670012 126.6974997  18.0439988  16.1010012 126.5924997  18.4379988
  17.3440012 127.4564997  18.4899988  16.8993308 126.7856900  18.1582393
  18.2680012 124.9544997   3.5579988  19.1180012 125.3754997   3.6849988
  18.2740012 124.2144997   4.1649988  18.3851372 124.9120803   3.6574344
  18.6630012 123.0074997   5.3819988  17.9360012 122.5284997   5.7789988
  19.2440012 123.2134997   6.1139988  18.6419375 122.9697090   5.5354129
  18.4220012 125.7924997  10.3289988  19.2550012 125.4144997  10.0489988
  18.5340012 126.7354997  10.2099988  18.5512647 125.8682218  10.2745487
  16.9080012 128.6704997  12.6359988  16.2610012 128.9954997  13.2619988
  16.3910012 128.2304997  11.9619988  16.7494029 128.6555004  12.6305827
  18.9310012 122.9084997   1.7729988  18.4090012 123.2654997   1.0539988
  18.8980012 123.5834997   2.4509988  18.8551634 123.0485413   1.7663145
  17.2800012 120.1484997   0.3239988  17.3760012 120.8154997  -0.3570012
  17.1400012 119.3324997  -0.1580012  17.2742135 120.1294500   0.1658491
  16.4490012 121.5284997   5.9449988  16.2990012 120.5834997   5.9239988
  16.0960012 121.8094997   6.7879988  16.3806625 121.4370441   6.0562346
   1.4850012 123.6064997   9.9549988   1.6690012 123.5244997   9.0189988
   2.3340012 123.4824997  10.3789988   1.6250139 123.5785003   9.8841455
  17.3060012 123.4984997  15.5829988  17.8890012 122.7644997  15.7749988
  17.8700012 124.2704997  15.6299988  17.4619769 123.5024227  15.6156159
  18.8020012 121.4014997  16.2679988  17.9390012 121.0224997  16.1019988
  19.4070012 120.6624997  16.1939988  18.7655979 121.2498023  16.2352817
  16.5270012 117.5564997  -0.5590012  17.1380012 117.1854997   0.0779988
  15.6910012 117.1354997  -0.3630012  16.4975032 117.4487554  -0.4452965
  16.1600012 119.1114997   4.4069988  16.4400012 118.2044997   4.5309988
  16.9190012 119.5454997   4.0179988  16.3009277 119.0460942   4.3713682
  16.7720012 119.6924997   9.8429988  17.7050012 119.9044997   9.8089988
  16.5370012 119.7944997  10.7649988  16.8678036 119.7352769   9.9629976
  16.8010012 120.4294997  12.6189988  15.9580012 120.6974997  12.9849988
  17.2430012 121.2514997  12.4079988  16.7454158 120.5773291  12.6405491
   1.0820012 118.8774997  16.0959988   2.0020012 118.7554997  16.3319988
   0.6330012 118.1274997  16.4849988   1.1471580 118.7593727  16.1809006
  19.0840012 114.4094997  17.9719988  19.4340012 113.7554997  17.3669988
  19.2310012 115.2464997  17.5329988  19.1518419 114.4331591  17.8297118
  16.7730012 116.3744997   4.4549988  16.9560012 115.9254997   5.2809988
  16.1740012 115.7894997   3.9919988  16.7170202 116.2339975   4.5053275
   2.3030012 117.1894997   8.9869988   2.7490012 116.3974997   9.2889988
   2.7700012 117.9054997   9.4179988   2.4270172 117.1780624   9.0864820
   0.6070012 120.1884997  10.0559988   1.0990012 119.9674997   9.2649988
   0.9700012 121.0294997  10.3369988   0.7233126 120.2718357   9.9857531
  18.6040012 116.5184997  16.3219988  17.6860012 116.7894997  16.2859988
  18.7270012 115.9834997  15.5369988  18.4951066 116.4832892  16.2110487
  18.6400012 116.4414997   0.9829988  19.0520012 115.7204997   0.5079988
  19.3220012 117.1114997   1.0419988  18.7885885 116.4332368   0.9258915
   0.9210012 116.4464997   4.1099988  -0.0039988 116.6554997   3.9809988
   1.3750012 116.9304997   3.4209988   0.8557368 116.5405993   3.9991226
  15.6920012 131.4304997   6.0559988  16.3440012 131.0834997   5.4479988
  16.2020012 131.9194997   6.7019988  15.8502637 131.4490597   6.0600236
   0.8850012 115.1844997  12.4549988   0.2200012 114.9384997  13.0979988
   0.4420012 115.8064997  11.8769988   0.7340956 115.2348632  12.4649352
   3.0770012 128.3594997  16.5989988   2.2560012 128.5344997  16.1389988
   2.8240012 128.2864997  17.5199988   2.9306164 128.3735622  16.6604923
   6.0310012 129.3344997  12.8579988   5.6060012 130.1434997  12.5749988
   6.9350012 129.4194997  12.5559988   6.0950271 129.4568469  12.7783776
  10.3420012 130.7334997  15.8169988  10.5270012 130.3994997  16.6949988
  11.1880012 131.0424997  15.4949988  10.4817539 130.7296047  15.8935605
  12.6870012 132.0194997  15.0609988  13.3640012 131.3864997  14.8209988
  13.0090012 132.4204997  15.8679988  12.8231637 131.9871154  15.1372793
  17.6040012 114.6084997  14.1409988  16.7920012 114.9334997  13.7529988
  17.8370012 113.8484997  13.6079988  17.5243423 114.5502436  14.0158253
   3.4330012 132.5904997  12.9049988   2.7120012 133.0304997  12.4539988
   3.0670012 132.3394997  13.7539988   3.2849804 132.6167698  12.9579840
   5.9000012 132.1904997  11.9349988   5.0350012 132.2624997  12.3389988
   5.8450012 132.7374997  11.1509988   5.7742085 132.2742685  11.8843362
  10.6100012 132.0784997  11.1099988  10.1540012 132.6074997  10.4559988
  10.7730012 132.6814997  11.8359988  10.5695585 132.2324468  11.1185062
  12.9380012 130.9564997  12.0549988  12.0330012 131.1214997  11.7899988
  13.3670012 131.8094997  11.9899988  12.8720799 131.0944483  12.0099182
  15.5420012 132.5264997  12.3499988  15.3600012 133.4424997  12.1399988
  15.7190012 132.1164997  11.5039988  15.5410210 132.5964822  12.2067885
   2.8470012 131.2134997   9.8149988   2.8290012 130.7884997  10.6729988
   3.6520012 130.8954997   9.4069988   2.9533875 131.1123812   9.8771655
   4.9890012 129.9234997   8.4699988   4.7700012 129.0074997   8.6399988
   5.8130012 130.0634997   8.9359988   5.0704420 129.8170520   8.5562774
   7.5260012 130.3934997   9.3189988   7.7390012 129.5054997   9.0319988
   7.5900012 130.3594997  10.2729988   7.5638232 130.2673102   9.4087397
  11.0340012 116.0574997   8.4629988  10.3600012 115.4284997   8.7189988
  11.5980012 115.5734997   7.8599988  11.0179230 115.9058744   8.4165340
  16.1770012 114.1654997   8.5759988  16.7810012 114.7124997   8.0739988
  15.3070012 114.4844997   8.3359988  16.1421241 114.2835806   8.4747654
  17.9040012 115.3034997   6.9089988  18.5160012 114.7894997   6.3829988
  18.2860012 116.1814997   6.9329988  18.0394540 115.3517140   6.8401830
   3.3610012 114.6914997   6.2849988   2.5840012 114.4574997   5.7779988
   3.8910012 113.8944997   6.2939988   3.3262330 114.5516988   6.2167742
   2.1970012 114.4894997   2.0889988   2.6360012 115.1004997   1.4969988
   1.5640012 115.0274997   2.5629988   2.1714514 114.6459257   2.0720930
   7.9400012 114.6184997   6.0989988   8.8150012 115.0064997   6.0689988
   7.8040012 114.4034997   7.0209988   8.0413695 114.6425184   6.2196440
  13.4970012 114.6484997   7.7479988  13.5730012 114.7434997   6.7979988
  13.2220012 113.7404997   7.8769988  13.4702321 114.5387867   7.6355079
  14.8500012 114.6744997   3.4399988  14.1480012 115.2894997   3.2309988
  14.4060012 113.8364997   3.5709988  14.6936330 114.6455783   3.4290328
   2.0980012 130.4374997   2.9869988   1.4130012 130.3994997   2.3189988
   2.1020012 131.3504997   3.2749988   2.0048193 130.5557016   2.9345284
   4.0580012 116.4054997   0.5309988   4.5500012 115.7754997   0.0039988
   4.6820012 116.7014997   1.1949988   4.2095446 116.3593199   0.5485980
   9.0840012 116.6984997   2.9879988   9.2620012 116.0524997   3.6709988
   9.0310012 117.5324997   3.4559988   9.1011829 116.7227985   3.1445940
  10.9630012 131.6474997   1.3839988  11.8290012 132.0134997   1.2059988
  10.7160012 131.2074997   0.5699988  11.0482392 131.6381756   1.2496289
  17.6720012 131.2104997   4.0629988  17.4770012 130.4624997   3.4979988
  17.6330012 131.9684997   3.4799988  17.6400380 131.2106099   3.9068384
   3.3190012 115.2054997  15.8029988   2.9530012 114.4404997  16.2459988
   4.2320012 115.2344997  16.0899988   3.3922790 115.1047224  15.9024070
   5.2920012 114.5564997  17.3389988   6.1900012 114.2824997  17.1539988
   4.9050012 113.8134997  17.8029988   5.3626612 114.4185914  17.3763643
   3.9160012 131.3574997   0.0119988   3.6490012 131.6444997   0.8849988
   4.6880012 130.8114997   0.1639988   3.9837488 131.3230294   0.1521050
  13.7130012 113.8884997  17.5209988  13.7900012 113.4624997  18.3749988
  14.6070012 113.9024997  17.1779988  13.8443428 113.8320879  17.5915310
  16.8890012 129.9614997  16.2129988  16.1070012 129.7754997  15.6939988
  16.8170012 130.8904997  16.4309988  16.7721777 130.0616492  16.1714048
  31.2950012 123.8474997   6.2439988  31.3840012 124.7914997   6.1119988
  30.6570012 123.5724997   5.5859988  31.2209081 123.9394830   6.1369614
  30.2280012 123.1024997   9.6629988  30.1900012 122.4564997  10.3679988
  29.9060012 122.6364997   8.8919988  30.1792333 122.9509408   9.6552978
  22.5970012 122.7174997  11.2559988  22.6380012 122.0914997  11.9789988
  23.3000012 123.3414997  11.4379988  22.6976363 122.7161196  11.3796044
  33.9340012 126.0414997   7.9639988  33.4940012 125.3214997   8.4149988
  33.9210012 126.7624997   8.5939988  33.8720226 126.0403731   8.1108494
  23.5200012 127.1674997   9.7909988  23.1510012 126.3654997   9.4209988
  24.4610012 126.9984997   9.8369988  23.5967289 127.0350153   9.7466316
  20.1300012 120.8274997   5.1839988  19.6830012 121.6734997   5.1649988
  19.5690012 120.2474997   4.6679988  19.9929900 120.8649916   5.1116801
  20.8410012 122.9894997   7.3099988  21.0540012 122.2194997   7.8369988
  21.5790012 123.0784997   6.7059988  20.9698496 122.8961394   7.3005300
  31.0460012 131.1464997   8.1769988  31.6660012 130.4694997   7.9029988
  30.8380012 130.9284997   9.0849988  31.1026904 131.0243870   8.2623365
  28.6180012 125.5354997  10.0689988  28.9220012 124.8494997   9.4739988
  29.3390012 125.6534997  10.6869988  28.7570671 125.4576305  10.0711816
  37.2810012 117.1364997  10.9299988  37.3300012 117.7464997  11.6659988
  37.7060012 117.5974997  10.2069988  37.3451824 117.2823741  10.9330205
  31.7590012 119.9294997  10.3969988  31.9010012 118.9834997  10.4169988
  31.6520012 120.1364997   9.4679988  31.7639864 119.8279534  10.2742339
  24.9130012 118.0304997   7.6689988  24.9570012 118.8904997   7.2509988
  24.4560012 117.4784997   7.0349988  24.8572185 118.0735799   7.5260299
  32.6360012 118.1614997   6.0699988  33.2820012 117.8324997   6.6949988
  33.1460012 118.6794997   5.4469988  32.7934264 118.1864611   6.0713862
  21.5340012 120.4274997   8.4309988  22.1870012 119.8774997   8.8629988
  21.5580012 120.1534997   7.5139988  21.6266683 120.3151466   8.3662123
  26.6900012 121.9774997   7.6459988  27.3060012 121.4514997   8.1559988
  26.1040012 121.3374997   7.2429988  26.6950810 121.8189208   7.6613173
  37.6720012 118.6144997  13.1659988  36.9840012 119.2724997  13.0699988
  37.6880012 118.4174997  14.1019988  37.5798525 118.6780462  13.2794808
  23.7240012 116.9484997  11.7429988  23.5050012 117.4784997  10.9769988
  23.0560012 117.1754997  12.3899988  23.6037600 117.0516906  11.7256379
  31.0930012 126.4484997   5.2869988  30.7970012 126.1264997   4.4359988
  30.7680012 127.3484997   5.3279988  31.0086371 126.5260215   5.1761801
  26.2930012 124.6244997  12.0299988  25.5530012 125.2224997  12.1339988
  27.0070012 125.1784997  11.7149988  26.2882237 124.7812831  12.0016465
  34.4000012 117.4524997   8.0499988  34.1840012 116.6864997   8.5829988
  35.0550012 117.9244997   8.5629988  34.4590632 117.4115889   8.1922861
  23.3170012 118.8404997   9.6949988  23.9310012 119.4734997  10.0689988
  23.8290012 118.3684997   9.0389988  23.4702296 118.8632370   9.6574252
  24.7000012 126.5884997  12.8179988  24.6950012 127.4684997  12.4399988
  23.8470012 126.5054997  13.2429988  24.5839464 126.6976117  12.8237907
  20.8210012 126.2594997   3.5999988  20.5490012 126.4884997   2.7109988
  20.8670012 127.0974997   4.0599988  20.7900094 126.4041213   3.5405697
  34.4460012 127.8814997  10.3119988  33.5050012 127.9394997  10.4739988
  34.7230012 128.7874997  10.1749988  34.3544679 128.0119443  10.3156815
  34.7470012 116.1674997  11.7299988  34.0110012 116.7784997  11.6919988
  35.4300012 116.5824997  11.2029988  34.7386541 116.3071374  11.6535832
  27.7500012 114.2544997   9.1959988  27.6330012 113.3054997   9.1409988
  26.8950012 114.5864997   9.4689988  27.6183733 114.1695409   9.2253897
  32.6980012 129.6624997   6.9379988  33.1240012 128.9554997   6.4529988
  33.0150012 130.4634997   6.5209988  32.7991019 129.6740994   6.8153130
  33.8580012 127.5634997   5.4459988  33.6000012 126.8734997   4.8349988
  33.9290012 127.1204997   6.2919988  33.8322856 127.4092124   5.4766885
  35.5440012 126.1294997  13.9239988  35.6840012 125.5384997  13.1839988
  35.7110012 127.0024997  13.5669988  35.5856778 126.1666426  13.7746965
  30.0170012 123.0914997   3.6959988  29.3050012 123.6264997   3.3439988
  30.7080012 123.1474997   3.0359988  30.0130132 123.1722543   3.5586289
  30.0700012 121.5494997   0.7349988  30.7710012 121.5714997   1.3859988
  30.3730012 120.9214997   0.0789988  30.2067830 121.4676566   0.7353711
  37.3860012 122.4694997  11.9899988  36.7330012 123.1644997  12.0789988
  37.8510012 122.6794997  11.1799988  37.3595390 122.5929425  11.8926883
  33.4220012 123.3014997   4.6479988  32.6900012 123.5294997   5.2209988
  33.8700012 122.5874997   5.1029988  33.3823095 123.2362571   4.7879119
  33.3200012 121.4754997  13.7149988  33.4000012 122.2384997  14.2869988
  32.7180012 121.7544997  13.0249988  33.2495756 121.6177134  13.7000589
  25.0680012 123.9314997   6.5299988  24.7370012 123.5614997   5.7119988
  25.6560012 123.2614997   6.8769988  25.1021873 123.7901156   6.4648102
  26.4340012 127.3594997   9.2119988  26.3400012 126.7814997   8.4549988
  27.1640012 126.9884997   9.7079988  26.5197981 127.2302390   9.1754165
  25.4340012 122.7004997  10.1639988  26.0000012 122.8214997   9.4009988
  25.7530012 123.3374997  10.8029988  25.5545786 122.8031884  10.1460040
  31.7430012 128.2034997  10.8979988  31.5030012 128.8654997  11.5459988
  31.5450012 127.3694997  11.3229988  31.6833808 128.1813134  11.0441524
  26.3140012 127.0994997  14.8809988  26.0030012 127.8814997  15.3359988
  25.6640012 126.9464997  14.1949988  26.1835558 127.1859105  14.8505871
  32.2930012 122.4634997   2.3329988  32.8730012 122.6134997   3.0799988
  32.7070012 122.9344997   1.6099988  32.4282830 122.5476841   2.3374134
  23.2340012 123.2974997  14.1099988  23.3050012 123.9484997  14.8079988
  22.3440012 123.4004997  13.7749988  23.1233117 123.4005936  14.1602700
  30.0200012 129.2004997   5.7679988  30.4940012 129.4954997   6.5459988
  29.4570012 129.9384997   5.5349988  30.0087653 129.3406932   5.8430136
  24.5540012 129.1714997  15.6439988  24.5610012 129.0354997  14.6969988
  23.6380012 129.0534997  15.8959988  24.4311714 129.1369430  15.5484666
  35.9920012 114.2134997   2.1459988  35.0920012 114.3524997   2.4409988
  36.2440012 115.0444997   1.7439988  35.9028702 114.3449074   2.1320205
  24.0580012 123.0014997   4.1199988  23.7660012 123.7694997   3.6289988
  23.3840012 122.3414997   3.9569988  23.9269081 123.0174406   4.0307340
  37.1810012 128.5794997   0.5219988  37.2550012 129.5184997   0.6929988
  38.0870012 128.2744997   0.4659988  37.3135100 128.6666722   0.5378119
  20.1510012 125.3644997  12.9349988  19.6500012 125.3364997  12.1199988
  20.1560012 124.4584997  13.2439988  20.0831526 125.2382278  12.8652872
  19.9010012 128.1444997   9.8189988  20.8470012 128.0004997   9.7999988
  19.7890012 128.9284997  10.3559988  20.0152727 128.2308046   9.8890072
  38.0990012 128.8104997  15.5009988  38.0500012 127.8554997  15.4639988
  37.2720012 129.0784997  15.9019988  37.9804940 128.7158998  15.5501375
  29.0780012 128.3844997  14.3769988  29.1650012 129.2104997  14.8519988
  28.2140012 128.0544997  14.6259988  28.9731964 128.4529878  14.4756549
  29.4920012 132.1564997   4.1829988  29.4170012 132.0354997   3.2369988
  29.5250012 133.1064997   4.3019988  29.4861848 132.2682500   4.0694834
  23.1450012 130.9454997   5.9639988  23.2980012 130.5974997   6.8429988
  22.2950012 130.5894997   5.7089988  23.0508962 130.8496650   6.0498340
  32.5940012 131.3104997   1.1849988  32.9690012 130.5664997   0.7149988
  32.5980012 131.0404997   2.1039988  32.6458915 131.1721486   1.2447824
  32.2630012 131.2364997   3.9349988  31.3270012 131.3364997   4.1129988
  32.5430012 130.5274997   4.5129988  32.1728255 131.1542711   4.0375391
  35.2510012 120.3034997  15.9809988  34.8440012 120.7844997  15.2599988
  35.2920012 119.3984997  15.6729988  35.2008437 120.2469374  15.8406683
  22.4000012 126.6874997  13.9779988  22.6160012 126.3264997  14.8369988
  21.5450012 126.3134997  13.7679988  22.3139292 126.5874111  14.0673386
  25.0190012 115.1574997   9.9729988  24.1570012 115.0704997   9.5659988
  24.9960012 116.0134997  10.4009988  24.8980330 115.2612765   9.9751863
  29.6820012 114.8794997  13.3479988  30.1020012 114.4644997  14.1009988
  28.7490012 114.7014997  13.4649988  29.6133644 114.7985900  13.4669539
  33.0080012 118.6354997  14.2009988  32.4940012 118.5094997  14.9989988
  32.8530012 119.5474997  13.9569988  32.9166852 118.7416132  14.2772158
  33.7710012 123.4964997  -0.0370012  33.8130012 123.2734997  -0.9670012
  34.6200012 123.8954997   0.1529988  33.8915396 123.5199155  -0.1386373
  29.3430012 117.3724997   0.6329988  29.0900012 117.3914997   1.5559988
  29.0870012 116.5004997   0.3319988  29.2737790 117.2572437   0.7186263
  25.1100012 120.1234997  11.0679988  24.4680012 120.0824997  11.7769988
  25.1470012 121.0494997  10.8309988  25.0271324 120.2431559  11.1329824
  25.1070012 120.3444997   5.9799988  24.2140012 120.0034997   5.9219988
  25.5570012 119.9674997   5.2249988  25.0457305 120.2468484   5.8699177
  30.6420012 120.7604997   4.7969988  30.2330012 121.5754997   4.5059988
  31.3630012 120.6204997   4.1829988  30.6834537 120.8532018   4.6741342
  29.7440012 120.9354997  16.2849988  29.1820012 120.2314997  16.6059988
  30.5710012 120.8154997  16.7529988  29.7787095 120.8227883  16.3922330
  31.6470012 120.2064997   7.6109988  31.4520012 120.8114997   6.8959988
  31.8280012 119.3724997   7.1769988  31.6447614 120.1766300   7.4544405
  22.8600012 120.4434997  12.9349988  22.8220012 120.8434997  13.8039988
  22.3690012 119.6264997  13.0259988  22.7884684 120.3878069  13.0661059
  26.2260012 117.8174997  -0.2660012  25.7950012 117.3724997   0.4639988
  25.5080012 118.1894997  -0.7780012  26.0699438 117.8068940  -0.2353201
  19.4680012 117.5594997   6.7859988  20.0990012 117.5304997   7.5049988
  19.9170012 117.1344997   6.0559988  19.6150774 117.4980492   6.7856553
  20.7420012 118.3054997   2.2099988  21.2160012 118.8964997   1.6249988
  20.0250012 118.8364997   2.5569988  20.7099341 118.4580867   2.1768836
  30.9110012 121.8444997  12.2829988  31.2340012 121.2134997  11.6399988
  30.4710012 121.3094997  12.9429988  30.8956895 121.6858441  12.2842850
  27.6880012 117.7714997   7.0669988  26.7770012 117.8284997   7.3549988
  28.1940012 117.7114997   7.8769988  27.6315413 117.7711985   7.2160622
  22.5170012 119.4004997   5.8929988  21.6270012 119.5004997   5.5529988
  22.8130012 118.5584997   5.5469988  22.4352823 119.3003545   5.7997213
  26.1700012 119.4004997   3.5499988  27.1010012 119.5294997   3.7279988
  25.9550012 120.0704997   2.8999988  26.2684247 119.5086565   3.4865747
  32.0930012 117.0064997  10.3309988  31.4170012 117.1374997  10.9949988
  31.6080012 116.8514997   9.5209988  31.9347145 117.0034905  10.3124517
  24.8440012 120.5954997   1.1169988  24.3010012 120.2154997   0.4249988
  25.6770012 120.7894997   0.6879988  24.8824399 120.5698124   0.9644526
  35.3810012 132.6784997  16.6079988  35.5810012 133.1024997  15.7729988
  36.0360012 133.0214997  17.2149988  35.4970051 132.7829648  16.5757836
  22.9790012 125.1524997  16.2159988  23.7110012 125.4064997  16.7769988
  22.1990012 125.3564997  16.7309988  22.9738232 125.2149177  16.3625760
  29.0080012 120.5594997   8.9539988  29.5730012 120.0124997   8.4069988
  28.8610012 120.0374997   9.7419988  29.0652918 120.4142024   8.9858454
  24.0100012 116.6954997   5.3719988  23.6930012 115.7934997   5.3369988
  24.7920012 116.6974997   4.8189988  24.0722284 116.5721628   5.2924783
  27.6350012 118.9474997  11.3679988  26.7990012 119.4014997  11.4779988
  28.1590012 119.2234997  12.1199988  27.5914414 119.0469376  11.4847136
  28.1790012 125.1604997   3.0519988  27.4340012 124.6534997   2.7299988
  28.0450012 125.2094997   3.9989988  28.0588776 125.0976940   3.1358647
  35.3290012 124.2934997  11.8389988  35.9710012 124.7504997  11.2949988
  34.4990012 124.4064997  11.3759988  35.3045963 124.3712704  11.7020177
  32.0770012 117.9744997   1.2519988  31.1380012 118.0864997   1.0999988
  32.3740012 118.8314997   1.5579988  31.9887666 118.1056443   1.2725768
  29.6980012 125.3444997  14.2889988  29.3530012 124.9634997  15.0959988
  29.4980012 126.2784997  14.3609988  29.6238061 125.4185228  14.4090961
  32.7950012 119.8414997   2.9119988  33.6870012 119.7044997   3.2309988
  32.8520012 120.6324997   2.3759988  32.9246285 119.9296660   2.8831691
  23.3040012 124.4554997   8.8219988  24.0490012 124.4534997   8.2209988
  23.3820012 123.6324997   9.3039988  23.4165518 124.3439315   8.8048929
  30.3050012 126.6194997   2.0779988  30.0090012 127.4454997   2.4589988
  29.6020012 125.9994997   2.2739988  30.1694914 126.6488199   2.1566443
  20.3120012 122.9164997  14.1369988  20.5350012 122.4984997  14.9689988
  19.7100012 122.3034997  13.7139988  20.2611759 122.7764668  14.1937022
  27.3280012 122.4334997  16.3499988  27.0320012 122.2674997  15.4549988
  28.2600012 122.2134997  16.3389988  27.4134166 122.3810640  16.2260536
  31.9490012 127.8064997  14.2399988  31.0480012 127.9894997  13.9719988
  31.9830012 128.0654997  15.1609988  31.8303041 127.8665512  14.3278197
  37.6800012 120.0514997   2.6069988  37.1260012 119.6554997   1.9349988
  37.7800012 120.9614997   2.3289988  37.6177059 120.1203586   2.4774401
  37.6430012 125.8514997  15.4439988  36.7920012 126.0894997  15.0769988
  38.2340012 125.8344997  14.6909988  37.6062487 125.8818258  15.2918893
  35.9750012 128.8374997   3.0719988  35.6020012 128.0114997   3.3809988
  36.2530012 128.6544997   2.1749988  35.9615630 128.6997303   2.9929626
  33.1360012 123.6454997  10.0929988  32.2070012 123.4134997  10.0659988
  33.5870012 122.8684997   9.7629988  33.0699216 123.5087238  10.0446917
  25.6790012 127.9734997   6.2259988  26.2060012 128.7464997   6.0259988
  24.7990012 128.1984997   5.9249988  25.6321773 128.1098005   6.1579010
  21.4340012 122.8354997   0.8129988  22.0500012 123.4624997   1.1929988
  20.5720012 123.1514997   1.0849988  21.4017698 122.9639430   0.9017183
  27.1060012 125.6364997   5.8029988  26.8650012 126.5614997   5.8439988
  26.3650012 125.1774997   6.1989988  26.9728409 125.7011421   5.8621377
  27.6210012 129.7854997  12.1179988  27.9830012 130.6404997  11.8839988
  28.1520012 129.4934997  12.8579988  27.7424473 129.8631060  12.1860855
  25.7890012 130.6584997   5.3479988  24.8390012 130.7634997   5.3989988
  26.1410012 131.4784997   5.6929988  25.7064203 130.7838314   5.4016650
  31.1650012 125.8844997  11.8179988  30.7390012 125.6574997  12.6449988
  31.7450012 125.1464997  11.6359988  31.1851868 125.7535299  11.9065830
  33.3680012 126.8134997   0.8919988  33.7210012 126.4334997   1.6969988
  32.4190012 126.7204997   0.9789988  33.2880441 126.7489596   1.0138559
  33.8230012 130.4364997  14.2879988  33.2220012 129.8814997  13.7919988
  34.1050012 131.1034997  13.6619988  33.7788519 130.4506841  14.1354952
  37.8710012 131.2934997   1.0929988  38.6150012 131.8794997   0.9529988
  37.1770012 131.8614997   1.4269988  37.8790292 131.4505582   1.1189961
  21.9460012 117.6694997  13.6949988  21.0530012 118.0084997  13.6269988
  21.8470012 116.8144997  14.1129988  21.8104164 117.6002588  13.7422235
  34.2340012 125.4864997   3.1189988  33.9560012 124.7584997   3.6749988
  35.1610012 125.6054997   3.3239988  34.3213124 125.4028802   3.2228845
  21.5970012 129.4744997  12.1299988  21.8140012 128.5424997  12.0989988
  21.8430012 129.7484997  13.0129988  21.6599549 129.3840636  12.2451763
  27.4590012 127.9254997  -0.6610012  27.6980012 127.1774997  -1.2080012
  27.1900012 127.5374997   0.1719988  27.4553675 127.7706638  -0.6233135
  26.3960012 127.4954997   1.7959988  26.5420012 126.9754997   2.5859988
  26.3930012 128.4024997   2.1019988  26.4155989 127.5468853   1.9456088
  22.8490012 124.7484997   2.3059988  22.1630012 125.1004997   2.8729988
  23.3710012 125.5114997   2.0589988  22.8256852 124.8998578   2.3502118
  30.6800012 117.4104997  12.5849988  31.3790012 117.4844997  13.2349988
  30.2990012 116.5464997  12.7389988  30.7241767 117.3037624  12.6948322
  31.4650012 117.0624997   3.6819988  31.6850012 117.5344997   2.8789988
  32.0230012 117.4574997   4.3519988  31.5704968 117.1804285   3.6627331
  29.1330012 129.1934997   2.5449988  28.3170012 129.6904997   2.5969988
  29.6630012 129.6684997   1.9049988  29.0929161 129.3257722   2.4655956
  28.6650012 118.7904997   4.5169988  29.4770012 119.2954997   4.5629988
  28.4200012 118.6454997   5.4309988  28.7430520 118.8400375   4.6468517
  29.2000012 119.7764997  13.7019988  29.3190012 120.3504997  14.4589988
  29.8560012 119.0884997  13.8159988  29.3049757 119.7621079  13.8210825
  29.5480012 115.8714997   5.4549988  29.2020012 116.4894997   6.0999988
  30.2070012 116.3724997   4.9739988  29.5897826 116.0235802   5.4780971
  26.4720012 130.2374997   2.5269988  26.6320012 131.0364997   2.0259988
  26.2740012 130.5434997   3.4119988  26.4671649 130.3884469   2.5779815
  25.2060012 116.9344997   2.1419988  25.1230012 117.8234997   2.4889988
  26.0960012 116.6694997   2.3739988  25.3149469 117.0201430   2.2207626
  35.4050012 117.6834997  14.5369988  34.4880012 117.9464997  14.4489988
  35.7400012 117.6804997  13.6399988  35.3249900 117.7190224  14.4037919
  34.0070012 121.4344997   8.6319988  33.2090012 121.0194997   8.3039988
  34.4520012 120.7434997   9.1229988  33.9579885 121.2843543   8.6534889
  23.4650012 127.3624997   1.2029988  24.0570012 128.0614997   1.4789988
  23.9240012 126.9294997   0.4829988  23.6081142 127.3997049   1.1434830
  21.7810012 120.0264997   0.3189988  21.7360012 120.9654997   0.4969988
  20.8930012 119.7904997   0.0489988  21.6548574 120.1231892   0.3068912
  35.0930012 130.6904997  10.2549988  34.9380012 131.3684997   9.5979988
  36.0260012 130.7624997  10.4579988  35.1978500 130.7930170  10.1925119
  22.5890012 114.8084997   8.9919988  22.3600012 114.8674997   8.0639988
  22.1460012 114.0164997   9.2979988  22.4978530 114.7095753   8.9064786
  21.5190012 128.7484997   5.1519988  20.6870012 129.2214997   5.1799988
  22.0650012 129.2584997   4.5539988  21.4789739 128.8821871   5.0749716
  20.8070012 131.3614997  16.4819988  21.3480012 131.1444997  17.2419988
  20.3260012 130.5554997  16.2929988  20.8159345 131.2229514  16.5603076
  25.4050012 130.2804997  18.1029988  26.1720012 129.8214997  18.4439988
  25.3830012 130.0544997  17.1729988  25.5071434 130.1870409  18.0240043
  29.4970012 129.7884997  -0.5220012  28.8530012 129.1574997  -0.2010012
  30.2590012 129.2574997  -0.7540012  29.5118077 129.6302920  -0.5093989
  31.9820012 128.6604997  16.8319988  31.6310012 127.8044997  17.0749988
  32.7080012 128.8034997  17.4389988  32.0320769 128.5625636  16.9473619
  34.1010012 129.6054997  -0.2880012  34.3840012 128.8114997   0.1639988
  34.8410012 129.8384997  -0.8490012  34.2397486 129.5282803  -0.3019302
  20.7140012 125.1714997  17.4369988  20.8580012 124.2694997  17.1499988
  19.9420012 125.4574997  16.9489988  20.6293322 125.0868261  17.3317881
  25.0560012 125.5154997  -0.4310012  25.1200012 124.7214997   0.0999988
  25.7090012 125.3964997  -1.1210012  25.1530241 125.3907148  -0.4515683
  27.3700012 125.1414997  16.8689988  27.0410012 125.4124997  16.0119988
  27.5220012 124.2004997  16.7819988  27.3454809 125.0513862  16.7398244
  30.4080012 126.5624997  -0.6950012  30.1390012 126.7424997   0.2059988
  30.2020012 125.6364997  -0.8260012  30.3433825 126.4620152  -0.5894786
  33.1040012 125.0574997  14.2529988  33.8500012 125.6454997  14.1329988
  32.3470012 125.6394997  14.3159988  33.1037554 125.2167011  14.2450907
  21.5470012 122.3714997  16.8569988  21.9550012 121.5144997  16.7359988
  21.2870012 122.3864997  17.7779988  21.5677568 122.2560807  16.9649588
  26.2050012 123.4874997   1.8749988  25.7450012 123.0034997   2.5609988
  26.4600012 122.8194997   1.2389988  26.1764902 123.3308731   1.8829334
  25.4940012 121.3804997  14.2309988  24.8760012 122.0554997  14.5109988
  25.8380012 121.7014997  13.3979988  25.4559615 121.5162721  14.1566581
  27.2760012 121.7304997   0.1369988  27.0960012 121.5764997  -0.7900012
  28.2260012 121.8384997   0.1819988  27.3797776 121.7240175   0.0161843
  30.5140012 123.8524997  17.5079988  31.4670012 123.9354997  17.4809988
  30.3530012 123.1404997  18.1279988  30.6226426 123.7676746  17.5880579
  36.6660012 124.0854997  -0.4170012  36.3920012 123.6604997  -1.2300012
  36.7050012 125.0164997  -0.6340012  36.6337699 124.1532484  -0.5576390
  25.8330012 118.7354997  15.3129988  25.9830012 118.0064997  14.7109988
  25.8360012 119.5124997  14.7539988  25.8539302 118.7407851  15.1550692
  26.2460012 117.1054997  12.8059988  26.7820012 117.5564997  12.1539988
  25.3940012 116.9974997  12.3829988  26.2042178 117.1526390  12.6595756
  27.8280012 122.5444997  13.0449988  28.5780012 122.3884997  12.4719988
  27.4890012 123.3964997  12.7699988  27.8848921 122.6382968  12.9293561
  32.2430012 120.3594997  18.0739988  32.4360012 119.4284997  17.9619988
  33.1010012 120.7844997  18.0639988  32.3853020 120.2896389  18.0573361
  33.5600012 123.1484997  16.1509988  33.2790012 123.8574997  15.5739988
  34.5030012 123.0754997  15.9999988  33.6489027 123.2357646  16.0515551
  24.3120012 119.9334997  17.2249988  23.5450012 119.4014997  17.0149988
  24.9910012 119.6234997  16.6249988  24.2987022 119.8187506  17.1151648
  27.0520012 114.5614997  13.2369988  26.9530012 115.5084997  13.1319988
  26.3090012 114.1894997  12.7619988  26.9380564 114.6405902  13.1584560
  28.3160012 118.8834997  16.8009988  28.0800012 118.6634997  17.7029988
  27.5320012 118.6764997  16.2909988  28.1778628 118.8254760  16.8553932
  31.0310012 118.0104997  15.8769988  30.0840012 118.0424997  16.0089988
  31.3440012 117.3854997  16.5299988  30.9435475 117.9303207  15.9834455
  32.6650012 116.6444997  17.8819988  32.5690012 115.6924997  17.8759988
  32.3440012 116.9134997  18.7419988  32.6084070 116.5504035  17.9975441
  22.4920012 117.8544997  16.9289988  22.7040012 117.1474997  16.3189988
  22.3810012 117.4164997  17.7729988  22.5059721 117.6987084  16.9596843
  27.2730012 113.8554997  15.9089988  27.9850012 113.2154997  15.8949988
  27.1720012 114.1224997  14.9949988  27.3567939 113.8039938  15.7835650
  27.6270012 115.5384997  17.9619988  27.4950012 115.0624997  17.1419988
  27.0280012 116.2824997  17.9069988  27.5279071 115.5739618  17.8422886
  27.1730012 132.4214997   1.1389988  28.1060012 132.5794997   1.2819988
  26.9090012 133.0964997   0.5139988  27.2649510 132.5343611   1.0740741
  20.7420012 127.0574997   0.6209988  21.6560012 127.1364997   0.8949988
  20.7490012 126.3704997  -0.0450012  20.8681131 126.9753961   0.5684393
  19.3910012 132.4504997   5.6989988  18.7440012 131.9884997   5.1659988
  19.7450012 131.7784997   6.2809988  19.3503849 132.2964723   5.7047959
  20.2610012 130.5314997   7.5029988  19.9260012 129.6514997   7.6749988
  20.4830012 130.8764997   8.3679988  20.2451783 130.4577500   7.6434208
  37.8090012 131.3404997  10.4839988  37.7880012 131.5254997  11.4229988
  38.5000012 131.9094997  10.1429988  37.8994618 131.4426606  10.5663864
  37.3730012 130.9084997  13.4059988  36.8850012 130.1724997  13.0349988
  37.9220012 130.5144997  14.0839988  37.3804872 130.7546249  13.4469160
  35.8230012 126.6974997  18.0439988  34.9570012 126.5924997  18.4379988
  36.2000012 127.4564997  18.4899988  35.7553308 126.7856900  18.1582393
  37.1240012 124.9544997   3.5579988  37.9740012 125.3754997   3.6849988
  37.1300012 124.2144997   4.1649988  37.2411372 124.9120803   3.6574344
  37.5190012 123.0074997   5.3819988  36.7920012 122.5284997   5.7789988
  38.1000012 123.2134997   6.1139988  37.4979375 122.9697090   5.5354129
  37.2780012 125.7924997  10.3289988  38.1110012 125.4144997  10.0489988
  37.3900012 126.7354997  10.2099988  37.4072647 125.8682218  10.2745487
  35.7640012 128.6704997  12.6359988  35.1170012 128.9954997  13.2619988
  35.2470012 128.2304997  11.9619988  35.6054029 128.6555004  12.6305827
  37.7870012 122.9084997   1.7729988  37.2650012 123.2654997   1.0539988
  37.7540012 123.5834997   2.4509988  37.7111634 123.0485413   1.7663145
  36.1360012 120.1484997   0.3239988  36.2320012 120.8154997  -0.3570012
  35.9960012 119.3324997  -0.1580012  36.1302135 120.1294500   0.1658491
  35.3050012 121.5284997   5.9449988  35.1550012 120.5834997   5.9239988
  34.9520012 121.8094997   6.7879988  35.2366625 121.4370441   6.0562346
  20.3410012 123.6064997   9.9549988  20.5250012 123.5244997   9.0189988
  21.1900012 123.4824997  10.3789988  20.4810139 123.5785003   9.8841455
  36.1620012 123.4984997  15.5829988  36.7450012 122.7644997  15.7749988
  36.7260012 124.2704997  15.6299988  36.3179769 123.5024227  15.6156159
  37.6580012 121.4014997  16.2679988  36.7950012 121.0224997  16.1019988
  38.2630012 120.6624997  16.1939988  37.6215979 121.2498023  16.2352817
  35.3830012 117.5564997  -0.5590012  35.9940012 117.1854997   0.0779988
  34.5470012 117.1354997  -0.3630012  35.3535032 117.4487554  -0.4452965
  35.0160012 119.1114997   4.4069988  35.2960012 118.2044997   4.5309988
  35.7750012 119.5454997   4.0179988  35.1569277 119.0460942   4.3713682
  35.6280012 119.6924997   9.8429988  36.5610012 119.9044997   9.8089988
  35.3930012 119.7944997  10.7649988  35.7238036 119.7352769   9.9629976
  35.6570012 120.4294997  12.6189988  34.8140012 120.6974997  12.9849988
  36.0990012 121.2514997  12.4079988  35.6014158 120.5773291  12.6405491
  19.9380012 118.8774997  16.0959988  20.8580012 118.7554997  16.3319988
  19.4890012 118.1274997  16.4849988  20.0031580 118.7593727  16.1809006
  37.9400012 114.4094997  17.9719988  38.2900012 113.7554997  17.3669988
  38.0870012 115.2464997  17.5329988  38.0078419 114.4331591  17.8297118
  35.6290012 116.3744997   4.4549988  35.8120012 115.9254997   5.2809988
  35.0300012 115.7894997   3.9919988  35.5730202 116.2339975   4.5053275
  21.1590012 117.1894997   8.9869988  21.6050012 116.3974997   9.2889988
  21.6260012 117.9054997   9.4179988  21.2830172 117.1780624   9.0864820
  19.4630012 120.1884997  10.0559988  19.9550012 119.9674997   9.2649988
  19.8260012 121.0294997  10.3369988  19.5793126 120.2718357   9.9857531
  37.4600012 116.5184997  16.3219988  36.5420012 116.7894997  16.2859988
  37.5830012 115.9834997  15.5369988  37.3511066 116.4832892  16.2110487
  37.4960012 116.4414997   0.9829988  37.9080012 115.7204997   0.5079988
  38.1780012 117.1114997   1.0419988  37.6445885 116.4332368   0.9258915
  19.7770012 116.4464997   4.1099988  18.8520012 116.6554997   3.9809988
  20.2310012 116.9304997   3.4209988  19.7117368 116.5405993   3.9991226
  34.5480012 131.4304997   6.0559988  35.2000012 131.0834997   5.4479988
  35.0580012 131.9194997   6.7019988  34.7062637 131.4490597   6.0600236
  19.7410012 115.1844997  12.4549988  19.0760012 114.9384997  13.0979988
  19.2980012 115.8064997  11.8769988  19.5900956 115.2348632  12.4649352
  21.9330012 128.3594997  16.5989988  21.1120012 128.5344997  16.1389988
  21.6800012 128.2864997  17.5199988  21.7866164 128.3735622  16.6604923
  24.8870012 129.3344997  12.8579988  24.4620012 130.1434997  12.5749988
  25.7910012 129.4194997  12.5559988  24.9510271 129.4568469  12.7783776
  29.1980012 130.7334997  15.8169988  29.3830012 130.3994997  16.6949988
  30.0440012 131.0424997  15.4949988  29.3377539 130.7296047  15.8935605
  31.5430012 132.0194997  15.0609988  32.2200012 131.3864997  14.8209988
  31.8650012 132.4204997  15.8679988  31.6791637 131.9871154  15.1372793
  36.4600012 114.6084997  14.1409988  35.6480012 114.9334997  13.7529988
  36.6930012 113.8484997  13.6079988  36.3803423 114.5502436  14.0158253
  22.2890012 132.5904997  12.9049988  21.5680012 133.0304997  12.4539988
  21.9230012 132.3394997  13.7539988  22.1409804 132.6167698  12.9579840
  24.7560012 132.1904997  11.9349988  23.8910012 132.2624997  12.3389988
  24.7010012 132.7374997  11.1509988  24.6302085 132.2742685  11.8843362
  29.4660012 132.0784997  11.1099988  29.0100012 132.6074997  10.4559988
  29.6290012 132.6814997  11.8359988  29.4255585 132.2324468  11.1185062
  31.7940012 130.9564997  12.0549988  30.8890012 131.1214997  11.7899988
  32.2230012 131.8094997  11.9899988  31.7280799 131.0944483  12.0099182
  34.3980012 132.5264997  12.3499988  34.2160012 133.4424997  12.1399988
  34.5750012 132.1164997  11.5039988  34.3970210 132.5964822  12.2067885
  21.7030012 131.2134997   9.8149988  21.6850012 130.7884997  10.6729988
  22.5080012 130.8954997   9.4069988  21.8093875 131.1123812   9.8771655
  23.8450012 129.9234997   8.4699988  23.6260012 129.0074997   8.6399988
  24.6690012 130.0634997   8.9359988  23.9264420 129.8170520   8.5562774
  26.3820012 130.3934997   9.3189988  26.5950012 129.5054997   9.0319988
  26.4460012 130.3594997  10.2729988  26.4198232 130.2673102   9.4087397
  29.8900012 116.0574997   8.4629988  29.2160012 115.4284997   8.7189988
  30.4540012 115.5734997   7.8599988  29.8739230 115.9058744   8.4165340
  35.0330012 114.1654997   8.5759988  35.6370012 114.7124997   8.0739988
  34.1630012 114.4844997   8.3359988  34.9981241 114.2835806   8.4747654
  36.7600012 115.3034997   6.9089988  37.3720012 114.7894997   6.3829988
  37.1420012 116.1814997   6.9329988  36.8954540 115.3517140   6.8401830
  22.2170012 114.6914997   6.2849988  21.4400012 114.4574997   5.7779988
  22.7470012 113.8944997   6.2939988  22.1822330 114.5516988   6.2167742
  21.0530012 114.4894997   2.0889988  21.4920012 115.1004997   1.4969988
  20.4200012 115.0274997   2.5629988  21.0274514 114.6459257   2.0720930
  26.7960012 114.6184997   6.0989988  27.6710012 115.0064997   6.0689988
  26.6600012 114.4034997   7.0209988  26.8973695 114.6425184   6.2196440
  32.3530012 114.6484997   7.7479988  32.4290012 114.7434997   6.7979988
  32.0780012 113.7404997   7.8769988  32.3262321 114.5387867   7.6355079
  33.7060012 114.6744997   3.4399988  33.0040012 115.2894997   3.2309988
  33.2620012 113.8364997   3.5709988  33.5496330 114.6455783   3.4290328
  20.9540012 130.4374997   2.9869988  20.2690012 130.3994997   2.3189988
  20.9580012 131.3504997   3.2749988  20.8608193 130.5557016   2.9345284
  22.9140012 116.4054997   0.5309988  23.4060012 115.7754997   0.0039988
  23.5380012 116.7014997   1.1949988  23.0655446 116.3593199   0.5485980
  27.9400012 116.6984997   2.9879988  28.1180012 116.0524997   3.6709988
  27.8870012 117.5324997   3.4559988  27.9571829 116.7227985   3.1445940
  29.8190012 131.6474997   1.3839988  30.6850012 132.0134997   1.2059988
  29.5720012 131.2074997   0.5699988  29.9042392 131.6381756   1.2496289
  36.5280012 131.2104997   4.0629988  36.3330012 130.4624997   3.4979988
  36.4890012 131.9684997   3.4799988  36.4960380 131.2106099   3.9068384
  22.1750012 115.2054997  15.8029988  21.8090012 114.4404997  16.2459988
  23.0880012 115.2344997  16.0899988  22.2482790 115.1047224  15.9024070
  24.1480012 114.5564997  17.3389988  25.0460012 114.2824997  17.1539988
  23.7610012 113.8134997  17.8029988  24.2186612 114.4185914  17.3763643
  22.7720012 131.3574997   0.0119988  22.5050012 131.6444997   0.8849988
  23.5440012 130.8114997   0.1639988  22.8397488 131.3230294   0.1521050
  32.5690012 113.8884997  17.5209988  32.6460012 113.4624997  18.3749988
  33.4630012 113.9024997  17.1779988  32.7003428 113.8320879  17.5915310
  35.7450012 129.9614997  16.2129988  34.9630012 129.7754997  15.6939988
  35.6730012 130.8904997  16.4309988  35.6281777 130.0616492  16.1714048
  50.1510012 123.8474997   6.2439988  50.2400012 124.7914997   6.1119988
  49.5130012 123.5724997   5.5859988  50.0769081 123.9394830   6.1369614
  49.0840012 123.1024997   9.6629988  49.0460012 122.4564997  10.3679988
  48.7620012 122.6364997   8.8919988  49.0352333 122.9509408   9.6552978
  41.4530012 122.7174997  11.2559988  41.4940012 122.0914997  11.9789988
  42.1560012 123.3414997  11.4379988  41.5536363 122.7161196  11.3796044
  52.7900012 126.0414997   7.9639988  52.3500012 125.3214997   8.4149988
  52.7770012 126.7624997   8.5939988  52.7280226 126.0403731   8.1108494
  42.3760012 127.1674997   9.7909988  42.0070012 126.3654997   9.4209988
  43.3170012 126.9984997   9.8369988  42.4527289 127.0350153   9.7466316
  38.9860012 120.8274997   5.1839988  38.5390012 121.6734997   5.1649988
  38.4250012 120.2474997   4.6679988  38.8489900 120.8649916   5.1116801
  39.6970012 122.9894997   7.3099988  39.9100012 122.2194997   7.8369988
  40.4350012 123.0784997   6.7059988  39.8258496 122.8961394   7.3005300
  49.9020012 131.1464997   8.1769988  50.5220012 130.4694997   7.9029988
  49.6940012 130.9284997   9.0849988  49.9586904 131.0243870   8.2623365
  47.4740012 125.5354997  10.0689988  47.7780012 124.8494997   9.4739988
  48.1950012 125.6534997  10.6869988  47.6130671 125.4576305  10.0711816
  56.1370012 117.1364997  10.9299988  56.1860012 117.7464997  11.6659988
  56.5620012 117.5974997  10.2069988  56.2011824 117.2823741  10.9330205
  50.6150012 119.9294997  10.3969988  50.7570012 118.9834997  10.4169988
  50.5080012 120.1364997   9.4679988  50.6199864 119.8279534  10.2742339
  43.7690012 118.0304997   7.6689988  43.8130012 118.8904997   7.2509988
  43.3120012 117.4784997   7.0349988  43.7132185 118.0735799   7.5260299
  51.4920012 118.1614997   6.0699988  52.1380012 117.8324997   6.6949988
  52.0020012 118.6794997   5.4469988  51.6494264 118.1864611   6.0713862
  40.3900012 120.4274997   8.4309988  41.0430012 119.8774997   8.8629988
  40.4140012 120.1534997   7.5139988  40.4826683 120.3151466   8.3662123
  45.5460012 121.9774997   7.6459988  46.1620012 121.4514997   8.1559988
  44.9600012 121.3374997   7.2429988  45.5510810 121.8189208   7.6613173
  56.5280012 118.6144997  13.1659988  55.8400012 119.2724997  13.0699988
  56.5440012 118.4174997  14.1019988  56.4358525 118.6780462  13.2794808
  42.5800012 116.9484997  11.7429988  42.3610012 117.4784997  10.9769988
  41.9120012 117.1754997  12.3899988  42.4597600 117.0516906  11.7256379
  49.9490012 126.4484997   5.2869988  49.6530012 126.1264997   4.4359988
  49.6240012 127.3484997   5.3279988  49.8646371 126.5260215   5.1761801
  45.1490012 124.6244997  12.0299988  44.4090012 125.2224997  12.1339988
  45.8630012 125.1784997  11.7149988  45.1442237 124.7812831  12.0016465
  53.2560012 117.4524997   8.0499988  53.0400012 116.6864997   8.5829988
  53.9110012 117.9244997   8.5629988  53.3150632 117.4115889   8.1922861
  42.1730012 118.8404997   9.6949988  42.7870012 119.4734997  10.0689988
  42.6850012 118.3684997   9.0389988  42.3262296 118.8632370   9.6574252
  43.5560012 126.5884997  12.8179988  43.5510012 127.4684997  12.4399988
  42.7030012 126.5054997  13.2429988  43.4399464 126.6976117  12.8237907
  39.6770012 126.2594997   3.5999988  39.4050012 126.4884997   2.7109988
  39.7230012 127.0974997   4.0599988  39.6460094 126.4041213   3.5405697
  53.3020012 127.8814997  10.3119988  52.3610012 127.9394997  10.4739988
  53.5790012 128.7874997  10.1749988  53.2104679 128.0119443  10.3156815
  53.6030012 116.1674997  11.7299988  52.8670012 116.7784997  11.6919988
  54.2860012 116.5824997  11.2029988  53.5946541 116.3071374  11.6535832
  46.6060012 114.2544997   9.1959988  46.4890012 113.3054997   9.1409988
  45.7510012 114.5864997   9.4689988  46.4743733 114.1695409   9.2253897
  51.5540012 129.6624997   6.9379988  51.9800012 128.9554997   6.4529988
  51.8710012 130.4634997   6.5209988  51.6551019 129.6740994   6.8153130
  52.7140012 127.5634997   5.4459988  52.4560012 126.8734997   4.8349988
  52.7850012 127.1204997   6.2919988  52.6882856 127.4092124   5.4766885
  54.4000012 126.1294997  13.9239988  54.5400012 125.5384997  13.1839988
  54.5670012 127.0024997  13.5669988  54.4416778 126.1666426  13.7746965
  48.8730012 123.0914997   3.6959988  48.1610012 123.6264997   3.3439988
  49.5640012 123.1474997   3.0359988  48.8690132 123.1722543   3.5586289
  48.9260012 121.5494997   0.7349988  49.6270012 121.5714997   1.3859988
  49.2290012 120.9214997   0.0789988  49.0627830 121.4676566   0.7353711
  56.2420012 122.4694997  11.9899988  55.5890012 123.1644997  12.0789988
  56.7070012 122.6794997  11.1799988  56.2155390 122.5929425  11.8926883
  52.2780012 123.3014997   4.6479988  51.5460012 123.5294997   5.2209988
  52.7260012 122.5874997   5.1029988  52.2383095 123.2362571   4.7879119
  52.1760012 121.4754997  13.7149988  52.2560012 122.2384997  14.2869988
  51.5740012 121.7544997  13.0249988  52.1055756 121.6177134  13.7000589
  43.9240012 123.9314997   6.5299988  43.5930012 123.5614997   5.7119988
  44.5120012 123.2614997   6.8769988  43.9581873 123.7901156   6.4648102
  45.2900012 127.3594997   9.2119988  45.1960012 126.7814997   8.4549988
  46.0200012 126.9884997   9.7079988  45.3757981 127.2302390   9.1754165
  44.2900012 122.7004997  10.1639988  44.8560012 122.8214997   9.4009988
  44.6090012 123.3374997  10.8029988  44.4105786 122.8031884  10.1460040
  50.5990012 128.2034997  10.8979988  50.3590012 128.8654997  11.5459988
  50.4010012 127.3694997  11.3229988  50.5393808 128.1813134  11.0441524
  45.1700012 127.0994997  14.8809988  44.8590012 127.8814997  15.3359988
  44.5200012 126.9464997  14.1949988  45.0395558 127.1859105  14.8505871
  51.1490012 122.4634997   2.3329988  51.7290012 122.6134997   3.0799988
  51.5630012 122.9344997   1.6099988  51.2842830 122.5476841   2.3374134
  42.0900012 123.2974997  14.1099988  42.1610012 123.9484997  14.8079988
  41.2000012 123.4004997  13.7749988  41.9793117 123.4005936  14.1602700
  48.8760012 129.2004997   5.7679988  49.3500012 129.4954997   6.5459988
  48.3130012 129.9384997   5.5349988  48.8647653 129.3406932   5.8430136
  43.4100012 129.1714997  15.6439988  43.4170012 129.0354997  14.6969988
  42.4940012 129.0534997  15.8959988  43.2871714 129.1369430  15.5484666
  54.8480012 114.2134997   2.1459988  53.9480012 114.3524997   2.4409988
  55.1000012 115.0444997   1.7439988  54.7588702 114.3449074   2.1320205
  42.9140012 123.0014997   4.1199988  42.6220012 123.7694997   3.6289988
  42.2400012 122.3414997   3.9569988  42.7829081 123.0174406   4.0307340
  56.0370012 128.5794997   0.5219988  56.1110012 129.5184997   0.6929988
  56.9430012 128.2744997   0.4659988  56.1695100 128.6666722   0.5378119
  39.0070012 125.3644997  12.9349988  38.5060012 125.3364997  12.1199988
  39.0120012 124.4584997  13.2439988  38.9391526 125.2382278  12.8652872
  38.7570012 128.1444997   9.8189988  39.7030012 128.0004997   9.7999988
  38.6450012 128.9284997  10.3559988  38.8712727 128.2308046   9.8890072
  56.9550012 128.8104997  15.5009988  56.9060012 127.8554997  15.4639988
  56.1280012 129.0784997  15.9019988  56.8364940 128.7158998  15.5501375
  47.9340012 128.3844997  14.3769988  48.0210012 129.2104997  14.8519988
  47.0700012 128.0544997  14.6259988  47.8291964 128.4529878  14.4756549
  48.3480012 132.1564997   4.1829988  48.2730012 132.0354997   3.2369988
  48.3810012 133.1064997   4.3019988  48.3421848 132.2682500   4.0694834
  42.0010012 130.9454997   5.9639988  42.1540012 130.5974997   6.8429988
  41.1510012 130.5894997   5.7089988  41.9068962 130.8496650   6.0498340
  51.4500012 131.3104997   1.1849988  51.8250012 130.5664997   0.7149988
  51.4540012 131.0404997   2.1039988  51.5018915 131.1721486   1.2447824
  51.1190012 131.2364997   3.9349988  50.1830012 131.3364997   4.1129988
  51.3990012 130.5274997   4.5129988  51.0288255 131.1542711   4.0375391
  54.1070012 120.3034997  15.9809988  53.7000012 120.7844997  15.2599988
  54.1480012 119.3984997  15.6729988  54.0568437 120.2469374  15.8406683
  41.2560012 126.6874997  13.9779988  41.4720012 126.3264997  14.8369988
  40.4010012 126.3134997  13.7679988  41.1699292 126.5874111  14.0673386
  43.8750012 115.1574997   9.9729988  43.0130012 115.0704997   9.5659988
  43.8520012 116.0134997  10.4009988  43.7540330 115.2612765   9.9751863
  48.5380012 114.8794997  13.3479988  48.9580012 114.4644997  14.1009988
  47.6050012 114.7014997  13.4649988  48.4693644 114.7985900  13.4669539
  51.8640012 118.6354997  14.2009988  51.3500012 118.5094997  14.9989988
  51.7090012 119.5474997  13.9569988  51.7726852 118.7416132  14.2772158
  52.6270012 123.4964997  -0.0370012  52.6690012 123.2734997  -0.9670012
  53.4760012 123.8954997   0.1529988  52.7475396 123.5199155  -0.1386373
  48.1990012 117.3724997   0.6329988  47.9460012 117.3914997   1.5559988
  47.9430012 116.5004997   0.3319988  48.1297790 117.2572437   0.7186263
  43.9660012 120.1234997  11.0679988  43.3240012 120.0824997  11.7769988
  44.0030012 121.0494997  10.8309988  43.8831324 120.2431559  11.1329824
  43.9630012 120.3444997   5.9799988  43.0700012 120.0034997   5.9219988
  44.4130012 119.9674997   5.2249988  43.9017305 120.2468484   5.8699177
  49.4980012 120.7604997   4.7969988  49.0890012 121.5754997   4.5059988
  50.2190012 120.6204997   4.1829988  49.5394537 120.8532018   4.6741342
  48.6000012 120.9354997  16.2849988  48.0380012 120.2314997  16.6059988
  49.4270012 120.8154997  16.7529988  48.6347095 120.8227883  16.3922330
  50.5030012 120.2064997   7.6109988  50.3080012 120.8114997   6.8959988
  50.6840012 119.3724997   7.1769988  50.5007614 120.1766300   7.4544405
  41.7160012 120.4434997  12.9349988  41.6780012 120.8434997  13.8039988
  41.2250012 119.6264997  13.0259988  41.6444684 120.3878069  13.0661059
  45.0820012 117.8174997  -0.2660012  44.6510012 117.3724997   0.4639988
  44.3640012 118.1894997  -0.7780012  44.9259438 117.8068940  -0.2353201
  38.3240012 117.5594997   6.7859988  38.9550012 117.5304997   7.5049988
  38.7730012 117.1344997   6.0559988  38.4710774 117.4980492   6.7856553
  39.5980012 118.3054997   2.2099988  40.0720012 118.8964997   1.6249988
  38.8810012 118.8364997   2.5569988  39.5659341 118.4580867   2.1768836
  49.7670012 121.8444997  12.2829988  50.0900012 121.2134997  11.6399988
  49.3270012 121.3094997  12.9429988  49.7516895 121.6858441  12.2842850
  46.5440012 117.7714997   7.0669988  45.6330012 117.8284997   7.3549988
  47.0500012 117.7114997   7.8769988  46.4875413 117.7711985   7.2160622
  41.3730012 119.4004997   5.8929988  40.4830012 119.5004997   5.5529988
  41.6690012 118.5584997   5.5469988  41.2912823 119.3003546   5.7997213
  45.0260012 119.4004997   3.5499988  45.9570012 119.5294997   3.7279988
  44.8110012 120.0704997   2.8999988  45.1244247 119.5086565   3.4865747
  50.9490012 117.0064997  10.3309988  50.2730012 117.1374997  10.9949988
  50.4640012 116.8514997   9.5209988  50.7907145 117.0034905  10.3124517
  43.7000012 120.5954997   1.1169988  43.1570012 120.2154997   0.4249988
  44.5330012 120.7894997   0.6879988  43.7384399 120.5698124   0.9644526
  54.2370012 132.6784997  16.6079988  54.4370012 133.1024997  15.7729988
  54.8920012 133.0214997  17.2149988  54.3530051 132.7829648  16.5757836
  41.8350012 125.1524997  16.2159988  42.5670012 125.4064997  16.7769988
  41.0550012 125.3564997  16.7309988  41.8298232 125.2149177  16.3625760
  47.8640012 120.5594997   8.9539988  48.4290012 120.0124997   8.4069988
  47.7170012 120.0374997   9.7419988  47.9212918 120.4142024   8.9858454
  42.8660012 116.6954997   5.3719988  42.5490012 115.7934997   5.3369988
  43.6480012 116.6974997   4.8189988  42.9282284 116.5721628   5.2924783
  46.4910012 118.9474997  11.3679988  45.6550012 119.4014997  11.4779988
  47.0150012 119.2234997  12.1199988  46.4474414 119.0469376  11.4847136
  47.0350012 125.1604997   3.0519988  46.2900012 124.6534997   2.7299988
  46.9010012 125.2094997   3.9989988  46.9148776 125.0976940   3.1358647
  54.1850012 124.2934997  11.8389988  54.8270012 124.7504997  11.2949988
  53.3550012 124.4064997  11.3759988  54.1605963 124.3712704  11.7020177
  50.9330012 117.9744997   1.2519988  49.9940012 118.0864997   1.0999988
  51.2300012 118.8314997   1.5579988  50.8447666 118.1056443   1.2725768
  48.5540012 125.3444997  14.2889988  48.2090012 124.9634997  15.0959988
  48.3540012 126.2784997  14.3609988  48.4798061 125.4185228  14.4090961
  51.6510012 119.8414997   2.9119988  52.5430012 119.7044997   3.2309988
  51.7080012 120.6324997   2.3759988  51.7806285 119.9296660   2.8831691
  42.1600012 124.4554997   8.8219988  42.9050012 124.4534997   8.2209988
  42.2380012 123.6324997   9.3039988  42.2725518 124.3439315   8.8048929
  49.1610012 126.6194997   2.0779988  48.8650012 127.4454997   2.4589988
  48.4580012 125.9994997   2.2739988  49.0254914 126.6488199   2.1566443
  39.1680012 122.9164997  14.1369988  39.3910012 122.4984997  14.9689988
  38.5660012 122.3034997  13.7139988  39.1171759 122.7764668  14.1937022
  46.1840012 122.4334997  16.3499988  45.8880012 122.2674997  15.4549988
  47.1160012 122.2134997  16.3389988  46.2694166 122.3810640  16.2260536
  50.8050012 127.8064997  14.2399988  49.9040012 127.9894997  13.9719988
  50.8390012 128.0654997  15.1609988  50.6863041 127.8665512  14.3278197
  56.5360012 120.0514997   2.6069988  55.9820012 119.6554997   1.9349988
  56.6360012 120.9614997   2.3289988  56.4737059 120.1203586   2.4774401
  56.4990012 125.8514997  15.4439988  55.6480012 126.0894997  15.0769988
  57.0900012 125.8344997  14.6909988  56.4622487 125.8818258  15.2918893
  54.8310012 128.8374997   3.0719988  54.4580012 128.0114997   3.3809988
  55.1090012 128.6544997   2.1749988  54.8175630 128.6997303   2.9929626
  51.9920012 123.6454997  10.0929988  51.0630012 123.4134997  10.0659988
  52.4430012 122.8684997   9.7629988  51.9259216 123.5087238  10.0446917
  44.5350012 127.9734997   6.2259988  45.0620012 128.7464997   6.0259988
  43.6550012 128.1984997   5.9249988  44.4881773 128.1098005   6.1579010
  40.2900012 122.8354997   0.8129988  40.9060012 123.4624997   1.1929988
  39.4280012 123.1514997   1.0849988  40.2577698 122.9639430   0.9017183
  45.9620012 125.6364997   5.8029988  45.7210012 126.5614997   5.8439988
  45.2210012 125.1774997   6.1989988  45.8288409 125.7011421   5.8621377
  46.4770012 129.7854997  12.1179988  46.8390012 130.6404997  11.8839988
  47.0080012 129.4934997  12.8579988  46.5984473 129.8631060  12.1860855
  44.6450012 130.6584997   5.3479988  43.6950012 130.7634997   5.3989988
  44.9970012 131.4784997   5.6929988  44.5624203 130.7838314   5.4016650
  50.0210012 125.8844997  11.8179988  49.5950012 125.6574997  12.6449988
  50.6010012 125.1464997  11.6359988  50.0411868 125.7535299  11.9065830
  52.2240012 126.8134997   0.8919988  52.5770012 126.4334997   1.6969988
  51.2750012 126.7204997   0.9789988  52.1440441 126.7489596   1.0138559
  52.6790012 130.4364997  14.2879988  52.0780012 129.8814997  13.7919988
  52.9610012 131.1034997  13.6619988  52.6348519 130.4506841  14.1354952
  56.7270012 131.2934997   1.0929988  57.4710012 131.8794997   0.9529988
  56.0330012 131.8614997   1.4269988  56.7350292 131.4505582   1.1189961
  40.8020012 117.6694997  13.6949988  39.9090012 118.0084997  13.6269988
  40.7030012 116.8144997  14.1129988  40.6664164 117.6002588  13.7422235
  53.0900012 125.4864997   3.1189988  52.8120012 124.7584997   3.6749988
  54.0170012 125.6054997   3.3239988  53.1773124 125.4028802   3.2228845
  40.4530012 129.4744997  12.1299988  40.6700012 128.5424997  12.0989988
  40.6990012 129.7484997  13.0129988  40.5159549 129.3840636  12.2451763
  46.3150012 127.9254997  -0.6610012  46.5540012 127.1774997  -1.2080012
  46.0460012 127.5374997   0.1719988  46.3113675 127.7706638  -0.6233135
  45.2520012 127.4954997   1.7959988  45.3980012 126.9754997   2.5859988
  45.2490012 128.4024997   2.1019988  45.2715989 127.5468853   1.9456088
  41.7050012 124.7484997   2.3059988  41.0190012 125.1004997   2.8729988
  42.2270012 125.5114997   2.0589988  41.6816852 124.8998578   2.3502118
  49.5360012 117.4104997  12.5849988  50.2350012 117.4844997  13.2349988
  49.1550012 116.5464997  12.7389988  49.5801767 117.3037624  12.6948322
  50.3210012 117.0624997   3.6819988  50.5410012 117.5344997   2.8789988
  50.8790012 117.4574997   4.3519988  50.4264968 117.1804285   3.6627331
  47.9890012 129.1934997   2.5449988  47.1730012 129.6904997   2.5969988
  48.5190012 129.6684997   1.9049988  47.9489161 129.3257722   2.4655956
  47.5210012 118.7904997   4.5169988  48.3330012 119.2954997   4.5629988
  47.2760012 118.6454997   5.4309988  47.5990520 118.8400375   4.6468517
  48.0560012 119.7764997  13.7019988  48.1750012 120.3504997  14.4589988
  48.7120012 119.0884997  13.8159988  48.1609757 119.7621079  13.8210825
  48.4040012 115.8714997   5.4549988  48.0580012 116.4894997   6.0999988
  49.0630012 116.3724997   4.9739988  48.4457826 116.0235802   5.4780971
  45.3280012 130.2374997   2.5269988  45.4880012 131.0364997   2.0259988
  45.1300012 130.5434997   3.4119988  45.3231649 130.3884469   2.5779815
  44.0620012 116.9344997   2.1419988  43.9790012 117.8234997   2.4889988
  44.9520012 116.6694997   2.3739988  44.1709469 117.0201430   2.2207626
  54.2610012 117.6834997  14.5369988  53.3440012 117.9464997  14.4489988
  54.5960012 117.6804997  13.6399988  54.1809900 117.7190224  14.4037919
  52.8630012 121.4344997   8.6319988  52.0650012 121.0194997   8.3039988
  53.3080012 120.7434997   9.1229988  52.8139885 121.2843543   8.6534889
  42.3210012 127.3624997   1.2029988  42.9130012 128.0614997   1.4789988
  42.7800012 126.9294997   0.4829988  42.4641142 127.3997049   1.1434830
  40.6370012 120.0264997   0.3189988  40.5920012 120.9654997   0.4969988
  39.7490012 119.7904997   0.0489988  40.5108574 120.1231892   0.3068912
  53.9490012 130.6904997  10.2549988  53.7940012 131.3684997   9.5979988
  54.8820012 130.7624997  10.4579988  54.0538500 130.7930170  10.1925119
  41.4450012 114.8084997   8.9919988  41.2160012 114.8674997   8.0639988
  41.0020012 114.0164997   9.2979988  41.3538530 114.7095753   8.9064786
  40.3750012 128.7484997   5.1519988  39.5430012 129.2214997   5.1799988
  40.9210012 129.2584997   4.5539988  40.3349739 128.8821871   5.0749716
  39.6630012 131.3614997  16.4819988  40.2040012 131.1444997  17.2419988
  39.1820012 130.5554997  16.2929988  39.6719345 131.2229514  16.5603076
  44.2610012 130.2804997  18.1029988  45.0280012 129.8214997  18.4439988
  44.2390012 130.0544997  17.1729988  44.3631434 130.1870409  18.0240043
  48.3530012 129.7884997  -0.5220012  47.7090012 129.1574997  -0.2010012
  49.1150012 129.2574997  -0.7540012  48.3678077 129.6302920  -0.5093989
  50.8380012 128.6604997  16.8319988  50.4870012 127.8044997  17.0749988
  51.5640012 128.8034997  17.4389988  50.8880769 128.5625636  16.9473619
  52.9570012 129.6054997  -0.2880012  53.2400012 128.8114997   0.1639988
  53.6970012 129.8384997  -0.8490012  53.0957486 129.5282803  -0.3019302
  39.5700012 125.1714997  17.4369988  39.7140012 124.2694997  17.1499988
  38.7980012 125.4574997  16.9489988  39.4853322 125.0868261  17.3317881
  43.9120012 125.5154997  -0.4310012  43.9760012 124.7214997   0.0999988
  44.5650012 125.3964997  -1.1210012  44.0090241 125.3907148  -0.4515683
  46.2260012 125.1414997  16.8689988  45.8970012 125.4124997  16.0119988
  46.3780012 124.2004997  16.7819988  46.2014809 125.0513862  16.7398244
  49.2640012 126.5624997  -0.6950012  48.9950012 126.7424997   0.2059988
  49.0580012 125.6364997  -0.8260012  49.1993825 126.4620152  -0.5894786
  51.9600012 125.0574997  14.2529988  52.7060012 125.6454997  14.1329988
  51.2030012 125.6394997  14.3159988  51.9597554 125.2167011  14.2450907
  40.4030012 122.3714997  16.8569988  40.8110012 121.5144997  16.7359988
  40.1430012 122.3864997  17.7779988  40.4237568 122.2560807  16.9649588
  45.0610012 123.4874997   1.8749988  44.6010012 123.0034997   2.5609988
  45.3160012 122.8194997   1.2389988  45.0324902 123.3308731   1.8829334
  44.3500012 121.3804997  14.2309988  43.7320012 122.0554997  14.5109988
  44.6940012 121.7014997  13.3979988  44.3119615 121.5162721  14.1566581
  46.1320012 121.7304997   0.1369988  45.9520012 121.5764997  -0.7900012
  47.0820012 121.8384997   0.1819988  46.2357776 121.7240175   0.0161843
  49.3700012 123.8524997  17.5079988  50.3230012 123.9354997  17.4809988
  49.2090012 123.1404997  18.1279988  49.4786426 123.7676746  17.5880579
  55.5220012 124.0854997  -0.4170012  55.2480012 123.6604997  -1.2300012
  55.5610012 125.0164997  -0.6340012  55.4897699 124.1532484  -0.5576390
  44.6890012 118.7354997  15.3129988  44.8390012 118.0064997  14.7109988
  44.6920012 119.5124997  14.7539988  44.7099302 118.7407851  15.1550692
  45.1020012 117.1054997  12.8059988  45.6380012 117.5564997  12.1539988
  44.2500012 116.9974997  12.3829988  45.0602178 117.1526390  12.6595756
  46.6840012 122.5444997  13.0449988  47.4340012 122.3884997  12.4719988
  46.3450012 123.3964997  12.7699988  46.7408921 122.6382968  12.9293561
  51.0990012 120.3594997  18.0739988  51.2920012 119.4284997  17.9619988
  51.9570012 120.7844997  18.0639988  51.2413020 120.2896389  18.0573361
  52.4160012 123.1484997  16.1509988  52.1350012 123.8574997  15.5739988
  53.3590012 123.0754997  15.9999988  52.5049027 123.2357646  16.0515551
  43.1680012 119.9334997  17.2249988  42.4010012 119.4014997  17.0149988
  43.8470012 119.6234997  16.6249988  43.1547022 119.8187506  17.1151648
  45.9080012 114.5614997  13.2369988  45.8090012 115.5084997  13.1319988
  45.1650012 114.1894997  12.7619988  45.7940564 114.6405902  13.1584560
  47.1720012 118.8834997  16.8009988  46.9360012 118.6634997  17.7029988
  46.3880012 118.6764997  16.2909988  47.0338628 118.8254760  16.8553932
  49.8870012 118.0104997  15.8769988  48.9400012 118.0424997  16.0089988
  50.2000012 117.3854997  16.5299988  49.7995475 117.9303207  15.9834455
  51.5210012 116.6444997  17.8819988  51.4250012 115.6924997  17.8759988
  51.2000012 116.9134997  18.7419988  51.4644070 116.5504035  17.9975441
  41.3480012 117.8544997  16.9289988  41.5600012 117.1474997  16.3189988
  41.2370012 117.4164997  17.7729988  41.3619721 117.6987084  16.9596843
  46.1290012 113.8554997  15.9089988  46.8410012 113.2154997  15.8949988
  46.0280012 114.1224997  14.9949988  46.2127939 113.8039938  15.7835650
  46.4830012 115.5384997  17.9619988  46.3510012 115.0624997  17.1419988
  45.8840012 116.2824997  17.9069988  46.3839071 115.5739618  17.8422886
  46.0290012 132.4214997   1.1389988  46.9620012 132.5794997   1.2819988
  45.7650012 133.0964997   0.5139988  46.1209510 132.5343611   1.0740741
  39.5980012 127.0574997   0.6209988  40.5120012 127.1364997   0.8949988
  39.6050012 126.3704997  -0.0450012  39.7241131 126.9753961   0.5684393
  38.2470012 132.4504997   5.6989988  37.6000012 131.9884997   5.1659988
  38.6010012 131.7784997   6.2809988  38.2063849 132.2964723   5.7047959
  39.1170012 130.5314997   7.5029988  38.7820012 129.6514997   7.6749988
  39.3390012 130.8764997   8.3679988  39.1011783 130.4577500   7.6434208
  56.6650012 131.3404997  10.4839988  56.6440012 131.5254997  11.4229988
  57.3560012 131.9094997  10.1429988  56.7554618 131.4426606  10.5663864
  56.2290012 130.9084997  13.4059988  55.7410012 130.1724997  13.0349988
  56.7780012 130.5144997  14.0839988  56.2364872 130.7546249  13.4469160
  54.6790012 126.6974997  18.0439988  53.8130012 126.5924997  18.4379988
  55.0560012 127.4564997  18.4899988  54.6113308 126.7856900  18.1582393
  55.9800012 124.9544997   3.5579988  56.8300012 125.3754997   3.6849988
  55.9860012 124.2144997   4.1649988  56.0971372 124.9120803   3.6574344
  56.3750012 123.0074997   5.3819988  55.6480012 122.5284997   5.7789988
  56.9560012 123.2134997   6.1139988  56.3539375 122.9697090   5.5354129
  56.1340012 125.7924997  10.3289988  56.9670012 125.4144997  10.0489988
  56.2460012 126.7354997  10.2099988  56.2632647 125.8682218  10.2745487
  54.6200012 128.6704997  12.6359988  53.9730012 128.9954997  13.2619988
  54.1030012 128.2304997  11.9619988  54.4614029 128.6555004  12.6305827
  56.6430012 122.9084997   1.7729988  56.1210012 123.2654997   1.0539988
  56.6100012 123.5834997   2.4509988  56.5671634 123.0485413   1.7663145
  54.9920012 120.1484997   0.3239988  55.0880012 120.8154997  -0.3570012
  54.8520012 119.3324997  -0.1580012  54.9862135 120.1294500   0.1658491
  54.1610012 121.5284997   5.9449988  54.0110012 120.5834997   5.9239988
  53.8080012 121.8094997   6.7879988  54.0926625 121.4370441   6.0562346
  39.1970012 123.6064997   9.9549988  39.3810012 123.5244997   9.0189988
  40.0460012 123.4824997  10.3789988  39.3370139 123.5785003   9.8841455
  55.0180012 123.4984997  15.5829988  55.6010012 122.7644997  15.7749988
  55.5820012 124.2704997  15.6299988  55.1739769 123.5024227  15.6156159
  56.5140012 121.4014997  16.2679988  55.6510012 121.0224997  16.1019988
  57.1190012 120.6624997  16.1939988  56.4775979 121.2498023  16.2352817
  54.2390012 117.5564997  -0.5590012  54.8500012 117.1854997   0.0779988
  53.4030012 117.1354997  -0.3630012  54.2095032 117.4487554  -0.4452965
  53.8720012 119.1114997   4.4069988  54.1520012 118.2044997   4.5309988
  54.6310012 119.5454997   4.0179988  54.0129277 119.0460942   4.3713682
  54.4840012 119.6924997   9.8429988  55.4170012 119.9044997   9.8089988
  54.2490012 119.7944997  10.7649988  54.5798036 119.7352769   9.9629976
  54.5130012 120.4294997  12.6189988  53.6700012 120.6974997  12.9849988
  54.9550012 121.2514997  12.4079988  54.4574158 120.5773291  12.6405491
  38.7940012 118.8774997  16.0959988  39.7140012 118.7554997  16.3319988
  38.3450012 118.1274997  16.4849988  38.8591580 118.7593727  16.1809006
  56.7960012 114.4094997  17.9719988  57.1460012 113.7554997  17.3669988
  56.9430012 115.2464997  17.5329988  56.8638419 114.4331591  17.8297118
  54.4850012 116.3744997   4.4549988  54.6680012 115.9254997   5.2809988
  53.8860012 115.7894997   3.9919988  54.4290202 116.2339975   4.5053275
  40.0150012 117.1894997   8.9869988  40.4610012 116.3974997   9.2889988
  40.4820012 117.9054997   9.4179988  40.1390172 117.1780624   9.0864820
  38.3190012 120.1884997  10.0559988  38.8110012 119.9674997   9.2649988
  38.6820012 121.0294997  10.3369988  38.4353126 120.2718357   9.9857531
  56.3160012 116.5184997  16.3219988  55.3980012 116.7894997  16.2859988
  56.4390012 115.9834997  15.5369988  56.2071066 116.4832892  16.2110487
  56.3520012 116.4414997   0.9829988  56.7640012 115.7204997   0.5079988
  57.0340012 117.1114997   1.0419988  56.5005885 116.4332368   0.9258915
  38.6330012 116.4464997   4.1099988  37.7080012 116.6554997   3.9809988
  39.0870012 116.9304997   3.4209988  38.5677368 116.5405993   3.9991226
  53.4040012 131.4304997   6.0559988  54.0560012 131.0834997   5.4479988
  53.9140012 131.9194997   6.7019988  53.5622637 131.4490597   6.0600236
  38.5970012 115.1844997  12.4549988  37.9320012 114.9384997  13.0979988
  38.1540012 115.8064997  11.8769988  38.4460956 115.2348632  12.4649352
  40.7890012 128.3594997  16.5989988  39.9680012 128.5344997  16.1389988
  40.5360012 128.2864997  17.5199988  40.6426164 128.3735622  16.6604923
  43.7430012 129.3344997  12.8579988  43.3180012 130.1434997  12.5749988
  44.6470012 129.4194997  12.5559988  43.8070271 129.4568469  12.7783776
  48.0540012 130.7334997  15.8169988  48.2390012 130.3994997  16.6949988
  48.9000012 131.0424997  15.4949988  48.1937539 130.7296047  15.8935605
  50.3990012 132.0194997  15.0609988  51.0760012 131.3864997  14.8209988
  50.7210012 132.4204997  15.8679988  50.5351637 131.9871154  15.1372793
  55.3160012 114.6084997  14.1409988  54.5040012 114.9334997  13.7529988
  55.5490012 113.8484997  13.6079988  55.2363423 114.5502436  14.0158253
  41.1450012 132.5904997  12.9049988  40.4240012 133.0304997  12.4539988
  40.7790012 132.3394997  13.7539988  40.9969804 132.6167698  12.9579840
  43.6120012 132.1904997  11.9349988  42.7470012 132.2624997  12.3389988
  43.5570012 132.7374997  11.1509988  43.4862085 132.2742685  11.8843362
  48.3220012 132.0784997  11.1099988  47.8660012 132.6074997  10.4559988
  48.4850012 132.6814997  11.8359988  48.2815585 132.2324468  11.1185062
  50.6500012 130.9564997  12.0549988  49.7450012 131.1214997  11.7899988
  51.0790012 131.8094997  11.9899988  50.5840799 131.0944483  12.0099182
  53.2540012 132.5264997  12.3499988  53.0720012 133.4424997  12.1399988
  53.4310012 132.1164997  11.5039988  53.2530210 132.5964822  12.2067885
  40.5590012 131.2134997   9.8149988  40.5410012 130.7884997  10.6729988
  41.3640012 130.8954997   9.4069988  40.6653875 131.1123812   9.8771655
  42.7010012 129.9234997   8.4699988  42.4820012 129.0074997   8.6399988
  43.5250012 130.0634997   8.9359988  42.7824420 129.8170520   8.5562774
  45.2380012 130.3934997   9.3189988  45.4510012 129.5054997   9.0319988
  45.3020012 130.3594997  10.2729988  45.2758232 130.2673102   9.4087397
  48.7460012 116.0574997   8.4629988  48.0720012 115.4284997   8.7189988
  49.3100012 115.5734997   7.8599988  48.7299230 115.9058744   8.4165340
  53.8890012 114.1654997   8.5759988  54.4930012 114.7124997   8.0739988
  53.0190012 114.4844997   8.3359988  53.8541241 114.2835806   8.4747654
  55.6160012 115.3034997   6.9089988  56.2280012 114.7894997   6.3829988
  55.9980012 116.1814997   6.9329988  55.7514540 115.3517140   6.8401830
  41.0730012 114.6914997   6.2849988  40.2960012 114.4574997   5.7779988
  41.6030012 113.8944997   6.2939988  41.0382330 114.5516988   6.2167742
  39.9090012 114.4894997   2.0889988  40.3480012 115.1004997   1.4969988
  39.2760012 115.0274997   2.5629988  39.8834514 114.6459257   2.0720930
  45.6520012 114.6184997   6.0989988  46.5270012 115.0064997   6.0689988
  45.5160012 114.4034997   7.0209988  45.7533695 114.6425184   6.2196440
  51.2090012 114.6484997   7.7479988  51.2850012 114.7434997   6.7979988
  50.9340012 113.7404997   7.8769988  51.1822321 114.5387867   7.6355079
  52.5620012 114.6744997   3.4399988  51.8600012 115.2894997   3.2309988
  52.1180012 113.8364997   3.5709988  52.4056330 114.6455783   3.4290328
  39.8100012 130.4374997   2.9869988  39.1250012 130.3994997   2.3189988
  39.8140012 131.3504997   3.2749988  39.7168193 130.5557016   2.9345284
  41.7700012 116.4054997   0.5309988  42.2620012 115.7754997   0.0039988
  42.3940012 116.7014997   1.1949988  41.9215446 116.3593199   0.5485980
  46.7960012 116.6984997   2.9879988  46.9740012 116.0524997   3.6709988
  46.7430012 117.5324997   3.4559988  46.8131829 116.7227985   3.1445940
  48.6750012 131.6474997   1.3839988  49.5410012 132.0134997   1.2059988
  48.4280012 131.2074997   0.5699988  48.7602392 131.6381756   1.2496289
  55.3840012 131.2104997   4.0629988  55.1890012 130.4624997   3.4979988
  55.3450012 131.9684997   3.4799988  55.3520380 131.2106099   3.9068384
  41.0310012 115.2054997  15.8029988  40.6650012 114.4404997  16.2459988
  41.9440012 115.2344997  16.0899988  41.1042790 115.1047224  15.9024070
  43.0040012 114.5564997  17.3389988  43.9020012 114.2824997  17.1539988
  42.6170012 113.8134997  17.8029988  43.0746612 114.4185914  17.3763643
  41.6280012 131.3574997   0.0119988  41.3610012 131.6444997   0.8849988
  42.4000012 130.8114997   0.1639988  41.6957488 131.3230294   0.1521050
  51.4250012 113.8884997  17.5209988  51.5020012 113.4624997  18.3749988
  52.3190012 113.9024997  17.1779988  51.5563428 113.8320879  17.5915310
  54.6010012 129.9614997  16.2129988  53.8190012 129.7754997  15.6939988
  54.5290012 130.8904997  16.4309988  54.4841777 130.0616492  16.1714048
  69.0070012 123.8474997   6.2439988  69.0960012 124.7914997   6.1119988
  68.3690012 123.5724997   5.5859988  68.9329081 123.9394830   6.1369614
  67.9400012 123.1024997   9.6629988  67.9020012 122.4564997  10.3679988
  67.6180012 122.6364997   8.8919988  67.8912333 122.9509408   9.6552978
  60.3090012 122.7174997  11.2559988  60.3500012 122.0914997  11.9789988
  61.0120012 123.3414997  11.4379988  60.4096363 122.7161196  11.3796044
  71.6460012 126.0414997   7.9639988  71.2060012 125.3214997   8.4149988
  71.6330012 126.7624997   8.5939988  71.5840226 126.0403731   8.1108494
  61.2320012 127.1674997   9.7909988  60.8630012 126.3654997   9.4209988
  62.1730012 126.9984997   9.8369988  61.3087289 127.0350153   9.7466316
  57.8420012 120.8274997   5.1839988  57.3950012 121.6734997   5.1649988
  57.2810012 120.2474997   4.6679988  57.7049900 120.8649916   5.1116801
  58.5530012 122.9894997   7.3099988  58.7660012 122.2194997   7.8369988
  59.2910012 123.0784997   6.7059988  58.6818496 122.8961394   7.3005300
  68.7580012 131.1464997   8.1769988  69.3780012 130.4694997   7.9029988
  68.5500012 130.9284997   9.0849988  68.8146904 131.0243870   8.2623365
  66.3300012 125.5354997  10.0689988  66.6340012 124.8494997   9.4739988
  67.0510012 125.6534997  10.6869988  66.4690671 125.4576305  10.0711816
  74.9930012 117.1364997  10.9299988  75.0420012 117.7464997  11.6659988
  75.4180012 117.5974997  10.2069988  75.0571824 117.2823741  10.9330205
  69.4710012 119.9294997  10.3969988  69.6130012 118.9834997  10.4169988
  69.3640012 120.1364997   9.4679988  69.4759863 119.8279534  10.2742339
  62.6250012 118.0304997   7.6689988  62.6690012 118.8904997   7.2509988
  62.1680012 117.4784997   7.0349988  62.5692185 118.0735799   7.5260299
  70.3480012 118.1614997   6.0699988  70.9940012 117.8324997   6.6949988
  70.8580012 118.6794997   5.4469988  70.5054264 118.1864611   6.0713862
  59.2460012 120.4274997   8.4309988  59.8990012 119.8774997   8.8629988
  59.2700012 120.1534997   7.5139988  59.3386683 120.3151466   8.3662123
  64.4020012 121.9774997   7.6459988  65.0180012 121.4514997   8.1559988
  63.8160012 121.3374997   7.2429988  64.4070810 121.8189208   7.6613173
  75.3840012 118.6144997  13.1659988  74.6960012 119.2724997  13.0699988
  75.4000012 118.4174997  14.1019988  75.2918525 118.6780462  13.2794808
  61.4360012 116.9484997  11.7429988  61.2170012 117.4784997  10.9769988
  60.7680012 117.1754997  12.3899988  61.3157600 117.0516906  11.7256379
  68.8050012 126.4484997   5.2869988  68.5090012 126.1264997   4.4359988
  68.4800012 127.3484997   5.3279988  68.7206371 126.5260215   5.1761801
  64.0050012 124.6244997  12.0299988  63.2650012 125.2224997  12.1339988
  64.7190012 125.1784997  11.7149988  64.0002237 124.7812831  12.0016465
  72.1120012 117.4524997   8.0499988  71.8960012 116.6864997   8.5829988
  72.7670012 117.9244997   8.5629988  72.1710632 117.4115889   8.1922861
  61.0290012 118.8404997   9.6949988  61.6430012 119.4734997  10.0689988
  61.5410012 118.3684997   9.0389988  61.1822296 118.8632370   9.6574252
  62.4120012 126.5884997  12.8179988  62.4070012 127.4684997  12.4399988
  61.5590012 126.5054997  13.2429988  62.2959464 126.6976117  12.8237907
  58.5330012 126.2594997   3.5999988  58.2610012 126.4884997   2.7109988
  58.5790012 127.0974997   4.0599988  58.5020094 126.4041213   3.5405697
  72.1580012 127.8814997  10.3119988  71.2170012 127.9394997  10.4739988
  72.4350012 128.7874997  10.1749988  72.0664679 128.0119443  10.3156815
  72.4590012 116.1674997  11.7299988  71.7230012 116.7784997  11.6919988
  73.1420012 116.5824997  11.2029988  72.4506541 116.3071374  11.6535832
  65.4620012 114.2544997   9.1959988  65.3450012 113.3054997   9.1409988
  64.6070012 114.5864997   9.4689988  65.3303733 114.1695409   9.2253897
  70.4100012 129.6624997   6.9379988  70.8360012 128.9554997   6.4529988
  70.7270012 130.4634997   6.5209988  70.5111019 129.6740994   6.8153130
  71.5700012 127.5634997   5.4459988  71.3120012 126.8734997   4.8349988
  71.6410012 127.1204997   6.2919988  71.5442856 127.4092124   5.4766885
  73.2560012 126.1294997  13.9239988  73.3960012 125.5384997  13.1839988
  73.4230012 127.0024997  13.5669988  73.2976778 126.1666426  13.7746965
  67.7290012 123.0914997   3.6959988  67.0170012 123.6264997   3.3439988
  68.4200012 123.1474997   3.0359988  67.7250132 123.1722543   3.5586289
  67.7820012 121.5494997   0.7349988  68.4830012 121.5714997   1.3859988
  68.0850012 120.9214997   0.0789988  67.9187830 121.4676566   0.7353711
  75.0980012 122.4694997  11.9899988  74.4450012 123.1644997  12.0789988
  75.5630012 122.6794997  11.1799988  75.0715390 122.5929425  11.8926883
  71.1340012 123.3014997   4.6479988  70.4020012 123.5294997   5.2209988
  71.5820012 122.5874997   5.1029988  71.0943095 123.2362571   4.7879119
  71.0320012 121.4754997  13.7149988  71.1120012 122.2384997  14.2869988
  70.4300012 121.7544997  13.0249988  70.9615756 121.6177134  13.7000589
  62.7800012 123.9314997   6.5299988  62.4490012 123.5614997   5.7119988
  63.3680012 123.2614997   6.8769988  62.8141873 123.7901156   6.4648102
  64.1460012 127.3594997   9.2119988  64.0520012 126.7814997   8.4549988
  64.8760012 126.9884997   9.7079988  64.2317981 127.2302390   9.1754165
  63.1460012 122.7004997  10.1639988  63.7120012 122.8214997   9.4009988
  63.4650012 123.3374997  10.8029988  63.2665786 122.8031884  10.1460040
  69.4550012 128.2034997  10.8979988  69.2150012 128.8654997  11.5459988
  69.2570012 127.3694997  11.3229988  69.3953808 128.1813134  11.0441524
  64.0260012 127.0994997  14.8809988  63.7150012 127.8814997  15.3359988
  63.3760012 126.9464997  14.1949988  63.8955558 127.1859105  14.8505871
  70.0050012 122.4634997   2.3329988  70.5850012 122.6134997   3.0799988
  70.4190012 122.9344997   1.6099988  70.1402831 122.5476841   2.3374134
  60.9460012 123.2974997  14.1099988  61.0170012 123.9484997  14.8079988
  60.0560012 123.4004997  13.7749988  60.8353117 123.4005936  14.1602700
  67.7320012 129.2004997   5.7679988  68.2060012 129.4954997   6.5459988
  67.1690012 129.9384997   5.5349988  67.7207653 129.3406932   5.8430136
  62.2660012 129.1714997  15.6439988  62.2730012 129.0354997  14.6969988
  61.3500012 129.0534997  15.8959988  62.1431714 129.1369430  15.5484666
  73.7040012 114.2134997   2.1459988  72.8040012 114.3524997   2.4409988
  73.9560012 115.0444997   1.7439988  73.6148702 114.3449074   2.1320205
  61.7700012 123.0014997   4.1199988  61.4780012 123.7694997   3.6289988
  61.0960012 122.3414997   3.9569988  61.6389081 123.0174406   4.0307340
  74.8930012 128.5794997   0.5219988  74.9670012 129.5184997   0.6929988
  75.7990012 128.2744997   0.4659988  75.0255100 128.6666722   0.5378119
  57.8630012 125.3644997  12.9349988  57.3620012 125.3364997  12.1199988
  57.8680012 124.4584997  13.2439988  57.7951526 125.2382278  12.8652872
  57.6130012 128.1444997   9.8189988  58.5590012 128.0004997   9.7999988
  57.5010012 128.9284997  10.3559988  57.7272727 128.2308046   9.8890072
  75.8110012 128.8104997  15.5009988  75.7620012 127.8554997  15.4639988
  74.9840012 129.0784997  15.9019988  75.6924940 128.7158998  15.5501375
  66.7900012 128.3844997  14.3769988  66.8770012 129.2104997  14.8519988
  65.9260012 128.0544997  14.6259988  66.6851964 128.4529878  14.4756549
  67.2040012 132.1564997   4.1829988  67.1290012 132.0354997   3.2369988
  67.2370012 133.1064997   4.3019988  67.1981848 132.2682500   4.0694834
  60.8570012 130.9454997   5.9639988  61.0100012 130.5974997   6.8429988
  60.0070012 130.5894997   5.7089988  60.7628962 130.8496650   6.0498340
  70.3060012 131.3104997   1.1849988  70.6810012 130.5664997   0.7149988
  70.3100012 131.0404997   2.1039988  70.3578915 131.1721486   1.2447824
  69.9750012 131.2364997   3.9349988  69.0390012 131.3364997   4.1129988
  70.2550012 130.5274997   4.5129988  69.8848255 131.1542711   4.0375391
  72.9630012 120.3034997  15.9809988  72.5560012 120.7844997  15.2599988
  73.0040012 119.3984997  15.6729988  72.9128437 120.2469374  15.8406683
  60.1120012 126.6874997  13.9779988  60.3280012 126.3264997  14.8369988
  59.2570012 126.3134997  13.7679988  60.0259292 126.5874111  14.0673386
  62.7310012 115.1574997   9.9729988  61.8690012 115.0704997   9.5659988
  62.7080012 116.0134997  10.4009988  62.6100330 115.2612765   9.9751863
  67.3940012 114.8794997  13.3479988  67.8140012 114.4644997  14.1009988
  66.4610012 114.7014997  13.4649988  67.3253644 114.7985900  13.4669539
  70.7200012 118.6354997  14.2009988  70.2060012 118.5094997  14.9989988
  70.5650012 119.5474997  13.9569988  70.6286852 118.7416132  14.2772158
  71.4830012 123.4964997  -0.0370012  71.5250012 123.2734997  -0.9670012
  72.3320012 123.8954997   0.1529988  71.6035396 123.5199155  -0.1386373
  67.0550012 117.3724997   0.6329988  66.8020012 117.3914997   1.5559988
  66.7990012 116.5004997   0.3319988  66.9857790 117.2572437   0.7186263
  62.8220012 120.1234997  11.0679988  62.1800012 120.0824997  11.7769988
  62.8590012 121.0494997  10.8309988  62.7391324 120.2431559  11.1329824
  62.8190012 120.3444997   5.9799988  61.9260012 120.0034997   5.9219988
  63.2690012 119.9674997   5.2249988  62.7577305 120.2468484   5.8699177
  68.3540012 120.7604997   4.7969988  67.9450012 121.5754997   4.5059988
  69.0750012 120.6204997   4.1829988  68.3954537 120.8532018   4.6741342
  67.4560012 120.9354997  16.2849988  66.8940012 120.2314997  16.6059988
  68.2830012 120.8154997  16.7529988  67.4907095 120.8227883  16.3922330
  69.3590012 120.2064997   7.6109988  69.1640012 120.8114997   6.8959988
  69.5400012 119.3724997   7.1769988  69.3567614 120.1766300   7.4544405
  60.5720012 120.4434997  12.9349988  60.5340012 120.8434997  13.8039988
  60.0810012 119.6264997  13.0259988  60.5004684 120.3878069  13.0661059
  63.9380012 117.8174997  -0.2660012  63.5070012 117.3724997   0.4639988
  63.2200012 118.1894997  -0.7780012  63.7819438 117.8068940  -0.2353201
  57.1800012 117.5594997   6.7859988  57.8110012 117.5304997   7.5049988
  57.6290012 117.1344997   6.0559988  57.3270774 117.4980492   6.7856553
  58.4540012 118.3054997   2.2099988  58.9280012 118.8964997   1.6249988
  57.7370012 118.8364997   2.5569988  58.4219341 118.4580867   2.1768836
  68.6230012 121.8444997  12.2829988  68.9460012 121.2134997  11.6399988
  68.1830012 121.3094997  12.9429988  68.6076895 121.6858440  12.2842850
  65.4000012 117.7714997   7.0669988  64.4890012 117.8284997   7.3549988
  65.9060012 117.7114997   7.8769988  65.3435413 117.7711985   7.2160622
  60.2290012 119.4004997   5.8929988  59.3390012 119.5004997   5.5529988
  60.5250012 118.5584997   5.5469988  60.1472823 119.3003545   5.7997213
  63.8820012 119.4004997   3.5499988  64.8130012 119.5294997   3.7279988
  63.6670012 120.0704997   2.8999988  63.9804247 119.5086565   3.4865747
  69.8050012 117.0064997  10.3309988  69.1290012 117.1374997  10.9949988
  69.3200012 116.8514997   9.5209988  69.6467145 117.0034905  10.3124517
  62.5560012 120.5954997   1.1169988  62.0130012 120.2154997   0.4249988
  63.3890012 120.7894997   0.6879988  62.5944399 120.5698124   0.9644526
  73.0930012 132.6784997  16.6079988  73.2930012 133.1024997  15.7729988
  73.7480012 133.0214997  17.2149988  73.2090051 132.7829648  16.5757836
  60.6910012 125.1524997  16.2159988  61.4230012 125.4064997  16.7769988
  59.9110012 125.3564997  16.7309988  60.6858232 125.2149177  16.3625760
  66.7200012 120.5594997   8.9539988  67.2850012 120.0124997   8.4069988
  66.5730012 120.0374997   9.7419988  66.7772918 120.4142024   8.9858454
  61.7220012 116.6954997   5.3719988  61.4050012 115.7934997   5.3369988
  62.5040012 116.6974997   4.8189988  61.7842284 116.5721628   5.2924783
  65.3470012 118.9474997  11.3679988  64.5110012 119.4014997  11.4779988
  65.8710012 119.2234997  12.1199988  65.3034414 119.0469376  11.4847136
  65.8910012 125.1604997   3.0519988  65.1460012 124.6534997   2.7299988
  65.7570012 125.2094997   3.9989988  65.7708776 125.0976940   3.1358647
  73.0410012 124.2934997  11.8389988  73.6830012 124.7504997  11.2949988
  72.2110012 124.4064997  11.3759988  73.0165963 124.3712704  11.7020177
  69.7890012 117.9744997   1.2519988  68.8500012 118.0864997   1.0999988
  70.0860012 118.8314997   1.5579988  69.7007666 118.1056443   1.2725768
  67.4100012 125.3444997  14.2889988  67.0650012 124.9634997  15.0959988
  67.2100012 126.2784997  14.3609988  67.3358061 125.4185228  14.4090961
  70.5070012 119.8414997   2.9119988  71.3990012 119.7044997   3.2309988
  70.5640012 120.6324997   2.3759988  70.6366285 119.9296660   2.8831691
  61.0160012 124.4554997   8.8219988  61.7610012 124.4534997   8.2209988
  61.0940012 123.6324997   9.3039988  61.1285518 124.3439315   8.8048929
  68.0170012 126.6194997   2.0779988  67.7210012 127.4454997   2.4589988
  67.3140012 125.9994997   2.2739988  67.8814914 126.6488199   2.1566443
  58.0240012 122.9164997  14.1369988  58.2470012 122.4984997  14.9689988
  57.4220012 122.3034997  13.7139988  57.9731759 122.7764668  14.1937022
  65.0400012 122.4334997  16.3499988  64.7440012 122.2674997  15.4549988
  65.9720012 122.2134997  16.3389988  65.1254166 122.3810640  16.2260536
  69.6610012 127.8064997  14.2399988  68.7600012 127.9894997  13.9719988
  69.6950012 128.0654997  15.1609988  69.5423041 127.8665512  14.3278197
  75.3920012 120.0514997   2.6069988  74.8380012 119.6554997   1.9349988
  75.4920012 120.9614997   2.3289988  75.3297059 120.1203586   2.4774401
  75.3550012 125.8514997  15.4439988  74.5040012 126.0894997  15.0769988
  75.9460012 125.8344997  14.6909988  75.3182487 125.8818258  15.2918893
  73.6870012 128.8374997   3.0719988  73.3140012 128.0114997   3.3809988
  73.9650012 128.6544997   2.1749988  73.6735630 128.6997303   2.9929626
  70.8480012 123.6454997  10.0929988  69.9190012 123.4134997  10.0659988
  71.2990012 122.8684997   9.7629988  70.7819216 123.5087238  10.0446917
  63.3910012 127.9734997   6.2259988  63.9180012 128.7464997   6.0259988
  62.5110012 128.1984997   5.9249988  63.3441773 128.1098005   6.1579010
  59.1460012 122.8354997   0.8129988  59.7620012 123.4624997   1.1929988
  58.2840012 123.1514997   1.0849988  59.1137698 122.9639430   0.9017183
  64.8180012 125.6364997   5.8029988  64.5770012 126.5614997   5.8439988
  64.0770012 125.1774997   6.1989988  64.6848409 125.7011421   5.8621377
  65.3330012 129.7854997  12.1179988  65.6950012 130.6404997  11.8839988
  65.8640012 129.4934997  12.8579988  65.4544473 129.8631060  12.1860855
  63.5010012 130.6584997   5.3479988  62.5510012 130.7634997   5.3989988
  63.8530012 131.4784997   5.6929988  63.4184203 130.7838314   5.4016650
  68.8770012 125.8844997  11.8179988  68.4510012 125.6574997  12.6449988
  69.4570012 125.1464997  11.6359988  68.8971868 125.7535299  11.9065830
  71.0800012 126.8134997   0.8919988  71.4330012 126.4334997   1.6969988
  70.1310012 126.7204997   0.9789988  71.0000441 126.7489596   1.0138559
  71.5350012 130.4364997  14.2879988  70.9340012 129.8814997  13.7919988
  71.8170012 131.1034997  13.6619988  71.4908519 130.4506841  14.1354951
  75.5830012 131.2934997   1.0929988  76.3270012 131.8794997   0.9529988
  74.8890012 131.8614997   1.4269988  75.5910292 131.4505582   1.1189961
  59.6580012 117.6694997  13.6949988  58.7650012 118.0084997  13.6269988
  59.5590012 116.8144997  14.1129988  59.5224164 117.6002588  13.7422235
  71.9460012 125.4864997   3.1189988  71.6680012 124.7584997   3.6749988
  72.8730012 125.6054997   3.3239988  72.0333124 125.4028802   3.2228845
  59.3090012 129.4744997  12.1299988  59.5260012 128.5424997  12.0989988
  59.5550012 129.7484997  13.0129988  59.3719549 129.3840636  12.2451763
  65.1710012 127.9254997  -0.6610012  65.4100012 127.1774997  -1.2080012
  64.9020012 127.5374997   0.1719988  65.1673675 127.7706638  -0.6233135
  64.1080012 127.4954997   1.7959988  64.2540012 126.9754997   2.5859988
  64.1050012 128.4024997   2.1019988  64.1275989 127.5468853   1.9456088
  60.5610012 124.7484997   2.3059988  59.8750012 125.1004997   2.8729988
  61.0830012 125.5114997   2.0589988  60.5376852 124.8998578   2.3502118
  68.3920012 117.4104997  12.5849988  69.0910012 117.4844997  13.2349988
  68.0110012 116.5464997  12.7389988  68.4361767 117.3037624  12.6948322
  69.1770012 117.0624997   3.6819988  69.3970012 117.5344997   2.8789988
  69.7350012 117.4574997   4.3519988  69.2824968 117.1804285   3.6627331
  66.8450012 129.1934997   2.5449988  66.0290012 129.6904997   2.5969988
  67.3750012 129.6684997   1.9049988  66.8049161 129.3257722   2.4655956
  66.3770012 118.7904997   4.5169988  67.1890012 119.2954997   4.5629988
  66.1320012 118.6454997   5.4309988  66.4550520 118.8400375   4.6468517
  66.9120012 119.7764997  13.7019988  67.0310012 120.3504997  14.4589988
  67.5680012 119.0884997  13.8159988  67.0169757 119.7621079  13.8210825
  67.2600012 115.8714997   5.4549988  66.9140012 116.4894997   6.0999988
  67.9190012 116.3724997   4.9739988  67.3017826 116.0235802   5.4780971
  64.1840012 130.2374997   2.5269988  64.3440012 131.0364997   2.0259988
  63.9860012 130.5434997   3.4119988  64.1791649 130.3884469   2.5779815
  62.9180012 116.9344997   2.1419988  62.8350012 117.8234997   2.4889988
  63.8080012 116.6694997   2.3739988  63.0269469 117.0201430   2.2207626
  73.1170012 117.6834997  14.5369988  72.2000012 117.9464997  14.4489988
  73.4520012 117.6804997  13.6399988  73.0369900 117.7190224  14.4037919
  71.7190012 121.4344997   8.6319988  70.9210012 121.0194997   8.3039988
  72.1640012 120.7434997   9.1229988  71.6699885 121.2843543   8.6534889
  61.1770012 127.3624997   1.2029988  61.7690012 128.0614997   1.4789988
  61.6360012 126.9294997   0.4829988  61.3201142 127.3997049   1.1434830
  59.4930012 120.0264997   0.3189988  59.4480012 120.9654997   0.4969988
  58.6050012 119.7904997   0.0489988  59.3668574 120.1231892   0.3068912
  72.8050012 130.6904997  10.2549988  72.6500012 131.3684997   9.5979988
  73.7380012 130.7624997  10.4579988  72.9098500 130.7930170  10.1925119
  60.3010012 114.8084997   8.9919988  60.0720012 114.8674997   8.0639988
  59.8580012 114.0164997   9.2979988  60.2098530 114.7095753   8.9064786
  59.2310012 128.7484997   5.1519988  58.3990012 129.2214997   5.1799988
  59.7770012 129.2584997   4.5539988  59.1909739 128.8821871   5.0749716
  58.5190012 131.3614997  16.4819988  59.0600012 131.1444997  17.2419988
  58.0380012 130.5554997  16.2929988  58.5279345 131.2229514  16.5603076
  63.1170012 130.2804997  18.1029988  63.8840012 129.8214997  18.4439988
  63.0950012 130.0544997  17.1729988  63.2191434 130.1870409  18.0240043
  67.2090012 129.7884997  -0.5220012  66.5650012 129.1574997  -0.2010012
  67.9710012 129.2574997  -0.7540012  67.2238077 129.6302920  -0.5093989
  69.6940012 128.6604997  16.8319988  69.3430012 127.8044997  17.0749988
  70.4200012 128.8034997  17.4389988  69.7440769 128.5625636  16.9473619
  71.8130012 129.6054997  -0.2880012  72.0960012 128.8114997   0.1639988
  72.5530012 129.8384997  -0.8490012  71.9517486 129.5282803  -0.3019302
  58.4260012 125.1714997  17.4369988  58.5700012 124.2694997  17.1499988
  57.6540012 125.4574997  16.9489988  58.3413322 125.0868261  17.3317881
  62.7680012 125.5154997  -0.4310012  62.8320012 124.7214997   0.0999988
  63.4210012 125.3964997  -1.1210012  62.8650241 125.3907148  -0.4515683
  65.0820012 125.1414997  16.8689988  64.7530012 125.4124997  16.0119988
  65.2340012 124.2004997  16.7819988  65.0574809 125.0513862  16.7398244
  68.1200012 126.5624997  -0.6950012  67.8510012 126.7424997   0.2059988
  67.9140012 125.6364997  -0.8260012  68.0553825 126.4620152  -0.5894786
  70.8160012 125.0574997  14.2529988  71.5620012 125.6454997  14.1329988
  70.0590012 125.6394997  14.3159988  70.8157554 125.2167011  14.2450907
  59.2590012 122.3714997  16.8569988  59.6670012 121.5144997  16.7359988
  58.9990012 122.3864997  17.7779988  59.2797568 122.2560807  16.9649588
  63.9170012 123.4874997   1.8749988  63.4570012 123.0034997   2.5609988
  64.1720012 122.8194997   1.2389988  63.8884902 123.3308731   1.8829334
  63.2060012 121.3804997  14.2309988  62.5880012 122.0554997  14.5109988
  63.5500012 121.7014997  13.3979988  63.1679615 121.5162721  14.1566581
  64.9880012 121.7304997   0.1369988  64.8080012 121.5764997  -0.7900012
  65.9380012 121.8384997   0.1819988  65.0917776 121.7240175   0.0161843
  68.2260012 123.8524997  17.5079988  69.1790012 123.9354997  17.4809988
  68.0650012 123.1404997  18.1279988  68.3346426 123.7676746  17.5880579
  74.3780012 124.0854997  -0.4170012  74.1040012 123.6604997  -1.2300012
  74.4170012 125.0164997  -0.6340012  74.3457699 124.1532484  -0.5576390
  63.5450012 118.7354997  15.3129988  63.6950012 118.0064997  14.7109988
  63.5480012 119.5124997  14.7539988  63.5659302 118.7407851  15.1550692
  63.9580012 117.1054997  12.8059988  64.4940012 117.5564997  12.1539988
  63.1060012 116.9974997  12.3829988  63.9162178 117.1526390  12.6595756
  65.5400012 122.5444997  13.0449988  66.2900012 122.3884997  12.4719988
  65.2010012 123.3964997  12.7699988  65.5968921 122.6382968  12.9293561
  69.9550012 120.3594997  18.0739988  70.1480012 119.4284997  17.9619988
  70.8130012 120.7844997  18.0639988  70.0973020 120.2896389  18.0573361
  71.2720012 123.1484997  16.1509988  70.9910012 123.8574997  15.5739988
  72.2150012 123.0754997  15.9999988  71.3609027 123.2357646  16.0515551
  62.0240012 119.9334997  17.2249988  61.2570012 119.4014997  17.0149988
  62.7030012 119.6234997  16.6249988  62.0107022 119.8187506  17.1151648
  64.7640012 114.5614997  13.2369988  64.6650012 115.5084997  13.1319988
  64.0210012 114.1894997  12.7619988  64.6500563 114.6405902  13.1584560
  66.0280012 118.8834997  16.8009988  65.7920012 118.6634997  17.7029988
  65.2440012 118.6764997  16.2909988  65.8898628 118.8254760  16.8553932
  68.7430012 118.0104997  15.8769988  67.7960012 118.0424997  16.0089988
  69.0560012 117.3854997  16.5299988  68.6555475 117.9303207  15.9834455
  70.3770012 116.6444997  17.8819988  70.2810012 115.6924997  17.8759988
  70.0560012 116.9134997  18.7419988  70.3204070 116.5504035  17.9975441
  60.2040012 117.8544997  16.9289988  60.4160012 117.1474997  16.3189988
  60.0930012 117.4164997  17.7729988  60.2179721 117.6987084  16.9596843
  64.9850012 113.8554997  15.9089988  65.6970012 113.2154997  15.8949988
  64.8840012 114.1224997  14.9949988  65.0687939 113.8039938  15.7835650
  65.3390012 115.5384997  17.9619988  65.2070012 115.0624997  17.1419988
  64.7400012 116.2824997  17.9069988  65.2399071 115.5739618  17.8422886
  64.8850012 132.4214997   1.1389988  65.8180012 132.5794997   1.2819988
  64.6210012 133.0964997   0.5139988  64.9769510 132.5343611   1.0740741
  58.4540012 127.0574997   0.6209988  59.3680012 127.1364997   0.8949988
  58.4610012 126.3704997  -0.0450012  58.5801131 126.9753961   0.5684393
  57.1030012 132.4504997   5.6989988  56.4560012 131.9884997   5.1659988
  57.4570012 131.7784997   6.2809988  57.0623849 132.2964723   5.7047959
  57.9730012 130.5314997   7.5029988  57.6380012 129.6514997   7.6749988
  58.1950012 130.8764997   8.3679988  57.9571783 130.4577500   7.6434208
  75.5210012 131.3404997  10.4839988  75.5000012 131.5254997  11.4229988
  76.2120012 131.9094997  10.1429988  75.6114618 131.4426606  10.5663864
  75.0850012 130.9084997  13.4059988  74.5970012 130.1724997  13.0349988
  75.6340012 130.5144997  14.0839988  75.0924872 130.7546249  13.4469160
  73.5350012 126.6974997  18.0439988  72.6690012 126.5924997  18.4379988
  73.9120012 127.4564997  18.4899988  73.4673308 126.7856900  18.1582393
  74.8360012 124.9544997   3.5579988  75.6860012 125.3754997   3.6849988
  74.8420012 124.2144997   4.1649988  74.9531372 124.9120803   3.6574344
  75.2310012 123.0074997   5.3819988  74.5040012 122.5284997   5.7789988
  75.8120012 123.2134997   6.1139988  75.2099375 122.9697090   5.5354129
  74.9900012 125.7924997  10.3289988  75.8230012 125.4144997  10.0489988
  75.1020012 126.7354997  10.2099988  75.1192647 125.8682218  10.2745487
  73.4760012 128.6704997  12.6359988  72.8290012 128.9954997  13.2619988
  72.9590012 128.2304997  11.9619988  73.3174029 128.6555004  12.6305827
  75.4990012 122.9084997   1.7729988  74.9770012 123.2654997   1.0539988
  75.4660012 123.5834997   2.4509988  75.4231634 123.0485413   1.7663145
  73.8480012 120.1484997   0.3239988  73.9440012 120.8154997  -0.3570012
  73.7080012 119.3324997  -0.1580012  73.8422135 120.1294500   0.1658491
  73.0170012 121.5284997   5.9449988  72.8670012 120.5834997   5.9239988
  72.6640012 121.8094997   6.7879988  72.9486625 121.4370441   6.0562346
  58.0530012 123.6064997   9.9549988  58.2370012 123.5244997   9.0189988
  58.9020012 123.4824997  10.3789988  58.1930139 123.5785003   9.8841455
  73.8740012 123.4984997  15.5829988  74.4570012 122.7644997  15.7749988
  74.4380012 124.2704997  15.6299988  74.0299769 123.5024227  15.6156159
  75.3700012 121.4014997  16.2679988  74.5070012 121.0224997  16.1019988
  75.9750012 120.6624997  16.1939988  75.3335979 121.2498023  16.2352817
  73.0950012 117.5564997  -0.5590012  73.7060012 117.1854997   0.0779988
  72.2590012 117.1354997  -0.3630012  73.0655032 117.4487554  -0.4452965
  72.7280012 119.1114997   4.4069988  73.0080012 118.2044997   4.5309988
  73.4870012 119.5454997   4.0179988  72.8689277 119.0460942   4.3713682
  73.3400012 119.6924997   9.8429988  74.2730012 119.9044997   9.8089988
  73.1050012 119.7944997  10.7649988  73.4358036 119.7352769   9.9629976
  73.3690012 120.4294997  12.6189988  72.5260012 120.6974997  12.9849988
  73.8110012 121.2514997  12.4079988  73.3134158 120.5773291  12.6405491
  57.6500012 118.8774997  16.0959988  58.5700012 118.7554997  16.3319988
  57.2010012 118.1274997  16.4849988  57.7151580 118.7593727  16.1809006
  75.6520012 114.4094997  17.9719988  76.0020012 113.7554997  17.3669988
  75.7990012 115.2464997  17.5329988  75.7198419 114.4331591  17.8297118
  73.3410012 116.3744997   4.4549988  73.5240012 115.9254997   5.2809988
  72.7420012 115.7894997   3.9919988  73.2850202 116.2339975   4.5053275
  58.8710012 117.1894997   8.9869988  59.3170012 116.3974997   9.2889988
  59.3380012 117.9054997   9.4179988  58.9950172 117.1780624   9.0864820
  57.1750012 120.1884997  10.0559988  57.6670012 119.9674997   9.2649988
  57.5380012 121.0294997  10.3369988  57.2913126 120.2718357   9.9857531
  75.1720012 116.5184997  16.3219988  74.2540012 116.7894997  16.2859988
  75.2950012 115.9834997  15.5369988  75.0631066 116.4832892  16.2110487
  75.2080012 116.4414997   0.9829988  75.6200012 115.7204997   0.5079988
  75.8900012 117.1114997   1.0419988  75.3565885 116.4332368   0.9258915
  57.4890012 116.4464997   4.1099988  56.5640012 116.6554997   3.9809988
  57.9430012 116.9304997   3.4209988  57.4237368 116.5405993   3.9991226
  72.2600012 131.4304997   6.0559988  72.9120012 131.0834997   5.4479988
  72.7700012 131.9194997   6.7019988  72.4182637 131.4490597   6.0600236
  57.4530012 115.1844997  12.4549988  56.7880012 114.9384997  13.0979988
  57.0100012 115.8064997  11.8769988  57.3020956 115.2348632  12.4649352
  59.6450012 128.3594997  16.5989988  58.8240012 128.5344997  16.1389988
  59.3920012 128.2864997  17.5199988  59.4986164 128.3735622  16.6604923
  62.5990012 129.3344997  12.8579988  62.1740012 130.1434997  12.5749988
  63.5030012 129.4194997  12.5559988  62.6630271 129.4568469  12.7783776
  66.9100012 130.7334997  15.8169988  67.0950012 130.3994997  16.6949988
  67.7560012 131.0424997  15.4949988  67.0497539 130.7296047  15.8935605
  69.2550012 132.0194997  15.0609988  69.9320012 131.3864997  14.8209988
  69.5770012 132.4204997  15.8679988  69.3911637 131.9871154  15.1372793
  74.1720012 114.6084997  14.1409988  73.3600012 114.9334997  13.7529988
  74.4050012 113.8484997  13.6079988  74.0923423 114.5502436  14.0158253
  60.0010012 132.5904997  12.9049988  59.2800012 133.0304997  12.4539988
  59.6350012 132.3394997  13.7539988  59.8529804 132.6167698  12.9579840
  62.4680012 132.1904997  11.9349988  61.6030012 132.2624997  12.3389988
  62.4130012 132.7374997  11.1509988  62.3422085 132.2742685  11.8843362
  67.1780012 132.0784997  11.1099988  66.7220012 132.6074997  10.4559988
  67.3410012 132.6814997  11.8359988  67.1375585 132.2324468  11.1185062
  69.5060012 130.9564997  12.0549988  68.6010012 131.1214997  11.7899988
  69.9350012 131.8094997  11.9899988  69.4400799 131.0944483  12.0099182
  72.1100012 132.5264997  12.3499988  71.9280012 133.4424997  12.1399988
  72.2870012 132.1164997  11.5039988  72.1090210 132.5964822  12.2067885
  59.4150012 131.2134997   9.8149988  59.3970012 130.7884997  10.6729988
  60.2200012 130.8954997   9.4069988  59.5213875 131.1123812   9.8771655
  61.5570012 129.9234997   8.4699988  61.3380012 129.0074997   8.6399988
  62.3810012 130.0634997   8.9359988  61.6384420 129.8170520   8.5562774
  64.0940012 130.3934997   9.3189988  64.3070012 129.5054997   9.0319988
  64.1580012 130.3594997  10.2729988  64.1318232 130.2673102   9.4087397
  67.6020012 116.0574997   8.4629988  66.9280012 115.4284997   8.7189988
  68.1660012 115.5734997   7.8599988  67.5859230 115.9058744   8.4165340
  72.7450012 114.1654997   8.5759988  73.3490012 114.7124997   8.0739988
  71.8750012 114.4844997   8.3359988  72.7101241 114.2835806   8.4747654
  74.4720012 115.3034997   6.9089988  75.0840012 114.7894997   6.3829988
  74.8540012 116.1814997   6.9329988  74.6074540 115.3517140   6.8401830
  59.9290012 114.6914997   6.2849988  59.1520012 114.4574997   5.7779988
  60.4590012 113.8944997   6.2939988  59.8942330 114.5516988   6.2167742
  58.7650012 114.4894997   2.0889988  59.2040012 115.1004997   1.4969988
  58.1320012 115.0274997   2.5629988  58.7394514 114.6459257   2.0720930
  64.5080012 114.6184997   6.0989988  65.3830012 115.0064997   6.0689988
  64.3720012 114.4034997   7.0209988  64.6093695 114.6425184   6.2196440
  70.0650012 114.6484997   7.7479988  70.1410012 114.7434997   6.7979988
  69.7900012 113.7404997   7.8769988  70.0382321 114.5387867   7.6355079
  71.4180012 114.6744997   3.4399988  70.7160012 115.2894997   3.2309988
  70.9740012 113.8364997   3.5709988  71.2616330 114.6455783   3.4290328
  58.6660012 130.4374997   2.9869988  57.9810012 130.3994997   2.3189988
  58.6700012 131.3504997   3.2749988  58.5728193 130.5557016   2.9345284
  60.6260012 116.4054997   0.5309988  61.1180012 115.7754997   0.0039988
  61.2500012 116.7014997   1.1949988  60.7775446 116.3593199   0.5485980
  65.6520012 116.6984997   2.9879988  65.8300012 116.0524997   3.6709988
  65.5990012 117.5324997   3.4559988  65.6691829 116.7227985   3.1445940
  67.5310012 131.6474997   1.3839988  68.3970012 132.0134997   1.2059988
  67.2840012 131.2074997   0.5699988  67.6162392 131.6381756   1.2496289
  74.2400012 131.2104997   4.0629988  74.0450012 130.4624997   3.4979988
  74.2010012 131.9684997   3.4799988  74.2080380 131.2106099   3.9068384
  59.8870012 115.2054997  15.8029988  59.5210012 114.4404997  16.2459988
  60.8000012 115.2344997  16.0899988  59.9602790 115.1047224  15.9024070
  61.8600012 114.5564997  17.3389988  62.7580012 114.2824997  17.1539988
  61.4730012 113.8134997  17.8029988  61.9306612 114.4185914  17.3763643
  60.4840012 131.3574997   0.0119988  60.2170012 131.6444997   0.8849988
  61.2560012 130.8114997   0.1639988  60.5517488 131.3230294   0.1521050
  70.2810012 113.8884997  17.5209988  70.3580012 113.4624997  18.3749988
  71.1750012 113.9024997  17.1779988  70.4123428 113.8320879  17.5915310
  73.4570012 129.9614997  16.2129988  72.6750012 129.7754997  15.6939988
  73.3850012 130.8904997  16.4309988  73.3401777 130.0616492  16.1714048
  87.8630012 123.8474997   6.2439988  87.9520012 124.7914997   6.1119988
  87.2250012 123.5724997   5.5859988  87.7889081 123.9394830   6.1369614
  86.7960012 123.1024997   9.6629988  86.7580012 122.4564997  10.3679988
  86.4740012 122.6364997   8.8919988  86.7472333 122.9509408   9.6552978
  79.1650012 122.7174997  11.2559988  79.2060012 122.0914997  11.9789988
  79.8680012 123.3414997  11.4379988  79.2656363 122.7161196  11.3796044
  90.5020012 126.0414997   7.9639988  90.0620012 125.3214997   8.4149988
  90.4890012 126.7624997   8.5939988  90.4400226 126.0403731   8.1108494
  80.0880012 127.1674997   9.7909988  79.7190012 126.3654997   9.4209988
  81.0290012 126.9984997   9.8369988  80.1647289 127.0350153   9.7466316
  76.6980012 120.8274997   5.1839988  76.2510012 121.6734997   5.1649988
  76.1370012 120.2474997   4.6679988  76.5609900 120.8649916   5.1116801
  77.4090012 122.9894997   7.3099988  77.6220012 122.2194997   7.8369988
  78.1470012 123.0784997   6.7059988  77.5378496 122.8961394   7.3005300
  87.6140012 131.1464997   8.1769988  88.2340012 130.4694997   7.9029988
  87.4060012 130.9284997   9.0849988  87.6706904 131.0243870   8.2623365
  85.1860012 125.5354997  10.0689988  85.4900012 124.8494997   9.4739988
  85.9070012 125.6534997  10.6869988  85.3250671 125.4576305  10.0711816
  93.8490012 117.1364997  10.9299988  93.8980012 117.7464997  11.6659988
  94.2740012 117.5974997  10.2069988  93.9131824 117.2823741  10.9330205
  88.3270012 119.9294997  10.3969988  88.4690012 118.9834997  10.4169988
  88.2200012 120.1364997   9.4679988  88.3319864 119.8279534  10.2742339
  81.4810012 118.0304997   7.6689988  81.5250012 118.8904997   7.2509988
  81.0240012 117.4784997   7.0349988  81.4252185 118.0735799   7.5260299
  89.2040012 118.1614997   6.0699988  89.8500012 117.8324997   6.6949988
  89.7140012 118.6794997   5.4469988  89.3614264 118.1864611   6.0713862
  78.1020012 120.4274997   8.4309988  78.7550012 119.8774997   8.8629988
  78.1260012 120.1534997   7.5139988  78.1946683 120.3151466   8.3662123
  83.2580012 121.9774997   7.6459988  83.8740012 121.4514997   8.1559988
  82.6720012 121.3374997   7.2429988  83.2630810 121.8189208   7.6613173
  94.2400012 118.6144997  13.1659988  93.5520012 119.2724997  13.0699988
  94.2560012 118.4174997  14.1019988  94.1478525 118.6780462  13.2794808
  80.2920012 116.9484997  11.7429988  80.0730012 117.4784997  10.9769988
  79.6240012 117.1754997  12.3899988  80.1717600 117.0516906  11.7256379
  87.6610012 126.4484997   5.2869988  87.3650012 126.1264997   4.4359988
  87.3360012 127.3484997   5.3279988  87.5766371 126.5260215   5.1761801
  82.8610012 124.6244997  12.0299988  82.1210012 125.2224997  12.1339988
  83.5750012 125.1784997  11.7149988  82.8562237 124.7812831  12.0016465
  90.9680012 117.4524997   8.0499988  90.7520012 116.6864997   8.5829988
  91.6230012 117.9244997   8.5629988  91.0270632 117.4115889   8.1922861
  79.8850012 118.8404997   9.6949988  80.4990012 119.4734997  10.0689988
  80.3970012 118.3684997   9.0389988  80.0382296 118.8632370   9.6574252
  81.2680012 126.5884997  12.8179988  81.2630012 127.4684997  12.4399988
  80.4150012 126.5054997  13.2429988  81.1519464 126.6976117  12.8237907
  77.3890012 126.2594997   3.5999988  77.1170012 126.4884997   2.7109988
  77.4350012 127.0974997   4.0599988  77.3580094 126.4041213   3.5405697
  91.0140012 127.8814997  10.3119988  90.0730012 127.9394997  10.4739988
  91.2910012 128.7874997  10.1749988  90.9224679 128.0119443  10.3156815
  91.3150012 116.1674997  11.7299988  90.5790012 116.7784997  11.6919988
  91.9980012 116.5824997  11.2029988  91.3066541 116.3071374  11.6535832
  84.3180012 114.2544997   9.1959988  84.2010012 113.3054997   9.1409988
  83.4630012 114.5864997   9.4689988  84.1863733 114.1695409   9.2253897
  89.2660012 129.6624997   6.9379988  89.6920012 128.9554997   6.4529988
  89.5830012 130.4634997   6.5209988  89.3671019 129.6740994   6.8153130
  90.4260012 127.5634997   5.4459988  90.1680012 126.8734997   4.8349988
  90.4970012 127.1204997   6.2919988  90.4002856 127.4092124   5.4766885
  92.1120012 126.1294997  13.9239988  92.2520012 125.5384997  13.1839988
  92.2790012 127.0024997  13.5669988  92.1536778 126.1666426  13.7746965
  86.5850012 123.0914997   3.6959988  85.8730012 123.6264997   3.3439988
  87.2760012 123.1474997   3.0359988  86.5810132 123.1722543   3.5586289
  86.6380012 121.5494997   0.7349988  87.3390012 121.5714997   1.3859988
  86.9410012 120.9214997   0.0789988  86.7747830 121.4676566   0.7353711
  93.9540012 122.4694997  11.9899988  93.3010012 123.1644997  12.0789988
  94.4190012 122.6794997  11.1799988  93.9275390 122.5929425  11.8926883
  89.9900012 123.3014997   4.6479988  89.2580012 123.5294997   5.2209988
  90.4380012 122.5874997   5.1029988  89.9503095 123.2362571   4.7879119
  89.8880012 121.4754997  13.7149988  89.9680012 122.2384997  14.2869988
  89.2860012 121.7544997  13.0249988  89.8175756 121.6177134  13.7000589
  81.6360012 123.9314997   6.5299988  81.3050012 123.5614997   5.7119988
  82.2240012 123.2614997   6.8769988  81.6701873 123.7901156   6.4648102
  83.0020012 127.3594997   9.2119988  82.9080012 126.7814997   8.4549988
  83.7320012 126.9884997   9.7079988  83.0877981 127.2302390   9.1754165
  82.0020012 122.7004997  10.1639988  82.5680012 122.8214997   9.4009988
  82.3210012 123.3374997  10.8029988  82.1225786 122.8031884  10.1460040
  88.3110012 128.2034997  10.8979988  88.0710012 128.8654997  11.5459988
  88.1130012 127.3694997  11.3229988  88.2513808 128.1813134  11.0441524
  82.8820012 127.0994997  14.8809988  82.5710012 127.8814997  15.3359988
  82.2320012 126.9464997  14.1949988  82.7515558 127.1859105  14.8505871
  88.8610012 122.4634997   2.3329988  89.4410012 122.6134997   3.0799988
  89.2750012 122.9344997   1.6099988  88.9962830 122.5476841   2.3374134
  79.8020012 123.2974997  14.1099988  79.8730012 123.9484997  14.8079988
  78.9120012 123.4004997  13.7749988  79.6913117 123.4005936  14.1602700
  86.5880012 129.2004997   5.7679988  87.0620012 129.4954997   6.5459988
  86.0250012 129.9384997   5.5349988  86.5767653 129.3406932   5.8430136
  81.1220012 129.1714997  15.6439988  81.1290012 129.0354997  14.6969988
  80.2060012 129.0534997  15.8959988  80.9991714 129.1369430  15.5484666
  92.5600012 114.2134997   2.1459988  91.6600012 114.3524997   2.4409988
  92.8120012 115.0444997   1.7439988  92.4708702 114.3449074   2.1320205
  80.6260012 123.0014997   4.1199988  80.3340012 123.7694997   3.6289988
  79.9520012 122.3414997   3.9569988  80.4949081 123.0174406   4.0307340
  93.7490012 128.5794997   0.5219988  93.8230012 129.5184997   0.6929988
  94.6550012 128.2744997   0.4659988  93.8815100 128.6666722   0.5378119
  76.7190012 125.3644997  12.9349988  76.2180012 125.3364997  12.1199988
  76.7240012 124.4584997  13.2439988  76.6511526 125.2382278  12.8652872
  76.4690012 128.1444997   9.8189988  77.4150012 128.0004997   9.7999988
  76.3570012 128.9284997  10.3559988  76.5832727 128.2308046   9.8890072
  94.6670012 128.8104997  15.5009988  94.6180012 127.8554997  15.4639988
  93.8400012 129.0784997  15.9019988  94.5484940 128.7158998  15.5501375
  85.6460012 128.3844997  14.3769988  85.7330012 129.2104997  14.8519988
  84.7820012 128.0544997  14.6259988  85.5411964 128.4529878  14.4756549
  86.0600012 132.1564997   4.1829988  85.9850012 132.0354997   3.2369988
  86.0930012 133.1064997   4.3019988  86.0541848 132.2682500   4.0694834
  79.7130012 130.9454997   5.9639988  79.8660012 130.5974997   6.8429988
  78.8630012 130.5894997   5.7089988  79.6188962 130.8496650   6.0498340
  89.1620012 131.3104997   1.1849988  89.5370012 130.5664997   0.7149988
  89.1660012 131.0404997   2.1039988  89.2138915 131.1721486   1.2447824
  88.8310012 131.2364997   3.9349988  87.8950012 131.3364997   4.1129988
  89.1110012 130.5274997   4.5129988  88.7408255 131.1542711   4.0375391
  91.8190012 120.3034997  15.9809988  91.4120012 120.7844997  15.2599988
  91.8600012 119.3984997  15.6729988  91.7688437 120.2469374  15.8406683
  78.9680012 126.6874997  13.9779988  79.1840012 126.3264997  14.8369988
  78.1130012 126.3134997  13.7679988  78.8819292 126.5874111  14.0673386
  81.5870012 115.1574997   9.9729988  80.7250012 115.0704997   9.5659988
  81.5640012 116.0134997  10.4009988  81.4660330 115.2612765   9.9751863
  86.2500012 114.8794997  13.3479988  86.6700012 114.4644997  14.1009988
  85.3170012 114.7014997  13.4649988  86.1813644 114.7985900  13.4669539
  89.5760012 118.6354997  14.2009988  89.0620012 118.5094997  14.9989988
  89.4210012 119.5474997  13.9569988  89.4846852 118.7416132  14.2772158
  90.3390012 123.4964997  -0.0370012  90.3810012 123.2734997  -0.9670012
  91.1880012 123.8954997   0.1529988  90.4595396 123.5199155  -0.1386373
  85.9110012 117.3724997   0.6329988  85.6580012 117.3914997   1.5559988
  85.6550012 116.5004997   0.3319988  85.8417790 117.2572437   0.7186263
  81.6780012 120.1234997  11.0679988  81.0360012 120.0824997  11.7769988
  81.7150012 121.0494997  10.8309988  81.5951324 120.2431559  11.1329824
  81.6750012 120.3444997   5.9799988  80.7820012 120.0034997   5.9219988
  82.1250012 119.9674997   5.2249988  81.6137305 120.2468484   5.8699177
  87.2100012 120.7604997   4.7969988  86.8010012 121.5754997   4.5059988
  87.9310012 120.6204997   4.1829988  87.2514537 120.8532018   4.6741342
  86.3120012 120.9354997  16.2849988  85.7500012 120.2314997  16.6059988
  87.1390012 120.8154997  16.7529988  86.3467095 120.8227883  16.3922330
  88.2150012 120.2064997   7.6109988  88.0200012 120.8114997   6.8959988
  88.3960012 119.3724997   7.1769988  88.2127614 120.1766300   7.4544405
  79.4280012 120.4434997  12.9349988  79.3900012 120.8434997  13.8039988
  78.9370012 119.6264997  13.0259988  79.3564684 120.3878069  13.0661059
  82.7940012 117.8174997  -0.2660012  82.3630012 117.3724997   0.4639988
  82.0760012 118.1894997  -0.7780012  82.6379438 117.8068940  -0.2353201
  76.0360012 117.5594997   6.7859988  76.6670012 117.5304997   7.5049988
  76.4850012 117.1344997   6.0559988  76.1830774 117.4980492   6.7856553
  77.3100012 118.3054997   2.2099988  77.7840012 118.8964997   1.6249988
  76.5930012 118.8364997   2.5569988  77.2779341 118.4580867   2.1768836
  87.4790012 121.8444997  12.2829988  87.8020012 121.2134997  11.6399988
  87.0390012 121.3094997  12.9429988  87.4636895 121.6858441  12.2842850
  84.2560012 117.7714997   7.0669988  83.3450012 117.8284997   7.3549988
  84.7620012 117.7114997   7.8769988  84.1995413 117.7711985   7.2160622
  79.0850012 119.4004997   5.8929988  78.1950012 119.5004997   5.5529988
  79.3810012 118.5584997   5.5469988  79.0032823 119.3003545   5.7997213
  82.7380012 119.4004997   3.5499988  83.6690012 119.5294997   3.7279988
  82.5230012 120.0704997   2.8999988  82.8364247 119.5086565   3.4865747
  88.6610012 117.0064997  10.3309988  87.9850012 117.1374997  10.9949988
  88.1760012 116.8514997   9.5209988  88.5027145 117.0034905  10.3124517
  81.4120012 120.5954997   1.1169988  80.8690012 120.2154997   0.4249988
  82.2450012 120.7894997   0.6879988  81.4504399 120.5698124   0.9644526
  91.9490012 132.6784997  16.6079988  92.1490012 133.1024997  15.7729988
  92.6040012 133.0214997  17.2149988  92.0650051 132.7829648  16.5757836
  79.5470012 125.1524997  16.2159988  80.2790012 125.4064997  16.7769988
  78.7670012 125.3564997  16.7309988  79.5418232 125.2149177  16.3625760
  85.5760012 120.5594997   8.9539988  86.1410012 120.0124997   8.4069988
  85.4290012 120.0374997   9.7419988  85.6332918 120.4142024   8.9858454
  80.5780012 116.6954997   5.3719988  80.2610012 115.7934997   5.3369988
  81.3600012 116.6974997   4.8189988  80.6402284 116.5721628   5.2924783
  84.2030012 118.9474997  11.3679988  83.3670012 119.4014997  11.4779988
  84.7270012 119.2234997  12.1199988  84.1594414 119.0469376  11.4847136
  84.7470012 125.1604997   3.0519988  84.0020012 124.6534997   2.7299988
  84.6130012 125.2094997   3.9989988  84.6268776 125.0976940   3.1358647
  91.8970012 124.2934997  11.8389988  92.5390012 124.7504997  11.2949988
  91.0670012 124.4064997  11.3759988  91.8725963 124.3712704  11.7020177
  88.6450012 117.9744997   1.2519988  87.7060012 118.0864997   1.0999988
  88.9420012 118.8314997   1.5579988  88.5567666 118.1056443   1.2725768
  86.2660012 125.3444997  14.2889988  85.9210012 124.9634997  15.0959988
  86.0660012 126.2784997  14.3609988  86.1918061 125.4185228  14.4090961
  89.3630012 119.8414997   2.9119988  90.2550012 119.7044997   3.2309988
  89.4200012 120.6324997   2.3759988  89.4926285 119.9296660   2.8831691
  79.8720012 124.4554997   8.8219988  80.6170012 124.4534997   8.2209988
  79.9500012 123.6324997   9.3039988  79.9845518 124.3439315   8.8048929
  86.8730012 126.6194997   2.0779988  86.5770012 127.4454997   2.4589988
  86.1700012 125.9994997   2.2739988  86.7374914 126.6488199   2.1566443
  76.8800012 122.9164997  14.1369988  77.1030012 122.4984997  14.9689988
  76.2780012 122.3034997  13.7139988  76.8291759 122.7764668  14.1937022
  83.8960012 122.4334997  16.3499988  83.6000012 122.2674997  15.4549988
  84.8280012 122.2134997  16.3389988  83.9814166 122.3810640  16.2260536
  88.5170012 127.8064997  14.2399988  87.6160012 127.9894997  13.9719988
  88.5510012 128.0654997  15.1609988  88.3983041 127.8665512  14.3278197
  94.2480012 120.0514997   2.6069988  93.6940012 119.6554997   1.9349988
  94.3480012 120.9614997   2.3289988  94.1857059 120.1203586   2.4774401
  94.2110012 125.8514997  15.4439988  93.3600012 126.0894997  15.0769988
  94.8020012 125.8344997  14.6909988  94.1742487 125.8818258  15.2918893
  92.5430012 128.8374997   3.0719988  92.1700012 128.0114997   3.3809988
  92.8210012 128.6544997   2.1749988  92.5295630 128.6997303   2.9929626
  89.7040012 123.6454997  10.0929988  88.7750012 123.4134997  10.0659988
  90.1550012 122.8684997   9.7629988  89.6379216 123.5087238  10.0446917
  82.2470012 127.9734997   6.2259988  82.7740012 128.7464997   6.0259988
  81.3670012 128.1984997   5.9249988  82.2001773 128.1098005   6.1579010
  78.0020012 122.8354997   0.8129988  78.6180012 123.4624997   1.1929988
  77.1400012 123.1514997   1.0849988  77.9697698 122.9639430   0.9017183
  83.6740012 125.6364997   5.8029988  83.4330012 126.5614997   5.8439988
  82.9330012 125.1774997   6.1989988  83.5408409 125.7011421   5.8621377
  84.1890012 129.7854997  12.1179988  84.5510012 130.6404997  11.8839988
  84.7200012 129.4934997  12.8579988  84.3104473 129.8631060  12.1860855
  82.3570012 130.6584997   5.3479988  81.4070012 130.7634997   5.3989988
  82.7090012 131.4784997   5.6929988  82.2744203 130.7838314   5.4016650
  87.7330012 125.8844997  11.8179988  87.3070012 125.6574997  12.6449988
  88.3130012 125.1464997  11.6359988  87.7531868 125.7535299  11.9065830
  89.9360012 126.8134997   0.8919988  90.2890012 126.4334997   1.6969988
  88.9870012 126.7204997   0.9789988  89.8560441 126.7489596   1.0138559
  90.3910012 130.4364997  14.2879988  89.7900012 129.8814997  13.7919988
  90.6730012 131.1034997  13.6619988  90.3468519 130.4506841  14.1354952
  94.4390012 131.2934997   1.0929988  95.1830012 131.8794997   0.9529988
  93.7450012 131.8614997   1.4269988  94.4470292 131.4505582   1.1189961
  78.5140012 117.6694997  13.6949988  77.6210012 118.0084997  13.6269988
  78.4150012 116.8144997  14.1129988  78.3784164 117.6002588  13.7422235
  90.8020012 125.4864997   3.1189988  90.5240012 124.7584997   3.6749988
  91.7290012 125.6054997   3.3239988  90.8893124 125.4028802   3.2228845
  78.1650012 129.4744997  12.1299988  78.3820012 128.5424997  12.0989988
  78.4110012 129.7484997  13.0129988  78.2279549 129.3840636  12.2451763
  84.0270012 127.9254997  -0.6610012  84.2660012 127.1774997  -1.2080012
  83.7580012 127.5374997   0.1719988  84.0233675 127.7706638  -0.6233135
  82.9640012 127.4954997   1.7959988  83.1100012 126.9754997   2.5859988
  82.9610012 128.4024997   2.1019988  82.9835989 127.5468853   1.9456088
  79.4170012 124.7484997   2.3059988  78.7310012 125.1004997   2.8729988
  79.9390012 125.5114997   2.0589988  79.3936852 124.8998578   2.3502118
  87.2480012 117.4104997  12.5849988  87.9470012 117.4844997  13.2349988
  86.8670012 116.5464997  12.7389988  87.2921767 117.3037624  12.6948322
  88.0330012 117.0624997   3.6819988  88.2530012 117.5344997   2.8789988
  88.5910012 117.4574997   4.3519988  88.1384968 117.1804285   3.6627331
  85.7010012 129.1934997   2.5449988  84.8850012 129.6904997   2.5969988
  86.2310012 129.6684997   1.9049988  85.6609161 129.3257722   2.4655956
  85.2330012 118.7904997   4.5169988  86.0450012 119.2954997   4.5629988
  84.9880012 118.6454997   5.4309988  85.3110520 118.8400375   4.6468517
  85.7680012 119.7764997  13.7019988  85.8870012 120.3504997  14.4589988
  86.4240012 119.0884997  13.8159988  85.8729757 119.7621079  13.8210825
  86.1160012 115.8714997   5.4549988  85.7700012 116.4894997   6.0999988
  86.7750012 116.3724997   4.9739988  86.1577826 116.0235802   5.4780971
  83.0400012 130.2374997   2.5269988  83.2000012 131.0364997   2.0259988
  82.8420012 130.5434997   3.4119988  83.0351649 130.3884469   2.5779815
  81.7740012 116.9344997   2.1419988  81.6910012 117.8234997   2.4889988
  82.6640012 116.6694997   2.3739988  81.8829469 117.0201430   2.2207626
  91.9730012 117.6834997  14.5369988  91.0560012 117.9464997  14.4489988
  92.3080012 117.6804997  13.6399988  91.8929900 117.7190224  14.4037919
  90.5750012 121.4344997   8.6319988  89.7770012 121.0194997   8.3039988
  91.0200012 120.7434997   9.1229988  90.5259885 121.2843543   8.6534889
  80.0330012 127.3624997   1.2029988  80.6250012 128.0614997   1.4789988
  80.4920012 126.9294997   0.4829988  80.1761142 127.3997049   1.1434830
  78.3490012 120.0264997   0.3189988  78.3040012 120.9654997   0.4969988
  77.4610012 119.7904997   0.0489988  78.2228574 120.1231892   0.3068912
  91.6610012 130.6904997  10.2549988  91.5060012 131.3684997   9.5979988
  92.5940012 130.7624997  10.4579988  91.7658500 130.7930170  10.1925119
  79.1570012 114.8084997   8.9919988  78.9280012 114.8674997   8.0639988
  78.7140012 114.0164997   9.2979988  79.0658530 114.7095753   8.9064786
  78.0870012 128.7484997   5.1519988  77.2550012 129.2214997   5.1799988
  78.6330012 129.2584997   4.5539988  78.0469739 128.8821871   5.0749716
  77.3750012 131.3614997  16.4819988  77.9160012 131.1444997  17.2419988
  76.8940012 130.5554997  16.2929988  77.3839345 131.2229514  16.5603076
  81.9730012 130.2804997  18.1029988  82.7400012 129.8214997  18.4439988
  81.9510012 130.0544997  17.1729988  82.0751434 130.1870409  18.0240043
  86.0650012 129.7884997  -0.5220012  85.4210012 129.1574997  -0.2010012
  86.8270012 129.2574997  -0.7540012  86.0798077 129.6302920  -0.5093989
  88.5500012 128.6604997  16.8319988  88.1990012 127.8044997  17.0749988
  89.2760012 128.8034997  17.4389988  88.6000769 128.5625636  16.9473619
  90.6690012 129.6054997  -0.2880012  90.9520012 128.8114997   0.1639988
  91.4090012 129.8384997  -0.8490012  90.8077486 129.5282803  -0.3019302
  77.2820012 125.1714997  17.4369988  77.4260012 124.2694997  17.1499988
  76.5100012 125.4574997  16.9489988  77.1973322 125.0868261  17.3317881
  81.6240012 125.5154997  -0.4310012  81.6880012 124.7214997   0.0999988
  82.2770012 125.3964997  -1.1210012  81.7210241 125.3907148  -0.4515683
  83.9380012 125.1414997  16.8689988  83.6090012 125.4124997  16.0119988
  84.0900012 124.2004997  16.7819988  83.9134809 125.0513862  16.7398244
  86.9760012 126.5624997  -0.6950012  86.7070012 126.7424997   0.2059988
  86.7700012 125.6364997  -0.8260012  86.9113825 126.4620152  -0.5894786
  89.6720012 125.0574997  14.2529988  90.4180012 125.6454997  14.1329988
  88.9150012 125.6394997  14.3159988  89.6717554 125.2167011  14.2450907
  78.1150012 122.3714997  16.8569988  78.5230012 121.5144997  16.7359988
  77.8550012 122.3864997  17.7779988  78.1357568 122.2560807  16.9649588
  82.7730012 123.4874997   1.8749988  82.3130012 123.0034997   2.5609988
  83.0280012 122.8194997   1.2389988  82.7444902 123.3308731   1.8829334
  82.0620012 121.3804997  14.2309988  81.4440012 122.0554997  14.5109988
  82.4060012 121.7014997  13.3979988  82.0239615 121.5162721  14.1566581
  83.8440012 121.7304997   0.1369988  83.6640012 121.5764997  -0.7900012
  84.7940012 121.8384997   0.1819988  83.9477776 121.7240175   0.0161843
  87.0820012 123.8524997  17.5079988  88.0350012 123.9354997  17.4809988
  86.9210012 123.1404997  18.1279988  87.1906426 123.7676746  17.5880579
  93.2340012 124.0854997  -0.4170012  92.9600012 123.6604997  -1.2300012
  93.2730012 125.0164997  -0.6340012  93.2017699 124.1532484  -0.5576390
  82.4010012 118.7354997  15.3129988  82.5510012 118.0064997  14.7109988
  82.4040012 119.5124997  14.7539988  82.4219302 118.7407851  15.1550692
  82.8140012 117.1054997  12.8059988  83.3500012 117.5564997  12.1539988
  81.9620012 116.9974997  12.3829988  82.7722178 117.1526390  12.6595756
  84.3960012 122.5444997  13.0449988  85.1460012 122.3884997  12.4719988
  84.0570012 123.3964997  12.7699988  84.4528921 122.6382968  12.9293561
  88.8110012 120.3594997  18.0739988  89.0040012 119.4284997  17.9619988
  89.6690012 120.7844997  18.0639988  88.9533020 120.2896389  18.0573361
  90.1280012 123.1484997  16.1509988  89.8470012 123.8574997  15.5739988
  91.0710012 123.0754997  15.9999988  90.2169027 123.2357646  16.0515551
  80.8800012 119.9334997  17.2249988  80.1130012 119.4014997  17.0149988
  81.5590012 119.6234997  16.6249988  80.8667022 119.8187506  17.1151648
  83.6200012 114.5614997  13.2369988  83.5210012 115.5084997  13.1319988
  82.8770012 114.1894997  12.7619988  83.5060564 114.6405902  13.1584560
  84.8840012 118.8834997  16.8009988  84.6480012 118.6634997  17.7029988
  84.1000012 118.6764997  16.2909988  84.7458628 118.8254760  16.8553932
  87.5990012 118.0104997  15.8769988  86.6520012 118.0424997  16.0089988
  87.9120012 117.3854997  16.5299988  87.5115475 117.9303207  15.9834455
  89.2330012 116.6444997  17.8819988  89.1370012 115.6924997  17.8759988
  88.9120012 116.9134997  18.7419988  89.1764070 116.5504035  17.9975441
  79.0600012 117.8544997  16.9289988  79.2720012 117.1474997  16.3189988
  78.9490012 117.4164997  17.7729988  79.0739721 117.6987084  16.9596843
  83.8410012 113.8554997  15.9089988  84.5530012 113.2154997  15.8949988
  83.7400012 114.1224997  14.9949988  83.9247939 113.8039938  15.7835650
  84.1950012 115.5384997  17.9619988  84.0630012 115.0624997  17.1419988
  83.5960012 116.2824997  17.9069988  84.0959071 115.5739618  17.8422886
  83.7410012 132.4214997   1.1389988  84.6740012 132.5794997   1.2819988
  83.4770012 133.0964997   0.5139988  83.8329510 132.5343611   1.0740741
  77.3100012 127.0574997   0.6209988  78.2240012 127.1364997   0.8949988
  77.3170012 126.3704997  -0.0450012  77.4361131 126.9753961   0.5684393
  75.9590012 132.4504997   5.6989988  75.3120012 131.9884997   5.1659988
  76.3130012 131.7784997   6.2809988  75.9183849 132.2964723   5.7047959
  76.8290012 130.5314997   7.5029988  76.4940012 129.6514997   7.6749988
  77.0510012 130.8764997   8.3679988  76.8131783 130.4577500   7.6434208
  94.3770012 131.3404997  10.4839988  94.3560012 131.5254997  11.4229988
  95.0680012 131.9094997  10.1429988  94.4674618 131.4426606  10.5663864
  93.9410012 130.9084997  13.4059988  93.4530012 130.1724997  13.0349988
  94.4900012 130.5144997  14.0839988  93.9484872 130.7546249  13.4469160
  92.3910012 126.6974997  18.0439988  91.5250012 126.5924997  18.4379988
  92.7680012 127.4564997  18.4899988  92.3233308 126.7856900  18.1582393
  93.6920012 124.9544997   3.5579988  94.5420012 125.3754997   3.6849988
  93.6980012 124.2144997   4.1649988  93.8091372 124.9120803   3.6574344
  94.0870012 123.0074997   5.3819988  93.3600012 122.5284997   5.7789988
  94.6680012 123.2134997   6.1139988  94.0659375 122.9697090   5.5354129
  93.8460012 125.7924997  10.3289988  94.6790012 125.4144997  10.0489988
  93.9580012 126.7354997  10.2099988  93.9752647 125.8682218  10.2745487
  92.3320012 128.6704997  12.6359988  91.6850012 128.9954997  13.2619988
  91.8150012 128.2304997  11.9619988  92.1734029 128.6555004  12.6305827
  94.3550012 122.9084997   1.7729988  93.8330012 123.2654997   1.0539988
  94.3220012 123.5834997   2.4509988  94.2791634 123.0485413   1.7663145
  92.7040012 120.1484997   0.3239988  92.8000012 120.8154997  -0.3570012
  92.5640012 119.3324997  -0.1580012  92.6982135 120.1294500   0.1658491
  91.8730012 121.5284997   5.9449988  91.7230012 120.5834997   5.9239988
  91.5200012 121.8094997   6.7879988  91.8046625 121.4370441   6.0562346
  76.9090012 123.6064997   9.9549988  77.0930012 123.5244997   9.0189988
  77.7580012 123.4824997  10.3789988  77.0490139 123.5785003   9.8841455
  92.7300012 123.4984997  15.5829988  93.3130012 122.7644997  15.7749988
  93.2940012 124.2704997  15.6299988  92.8859769 123.5024227  15.6156159
  94.2260012 121.4014997  16.2679988  93.3630012 121.0224997  16.1019988
  94.8310012 120.6624997  16.1939988  94.1895979 121.2498023  16.2352817
  91.9510012 117.5564997  -0.5590012  92.5620012 117.1854997   0.0779988
  91.1150012 117.1354997  -0.3630012  91.9215032 117.4487554  -0.4452965
  91.5840012 119.1114997   4.4069988  91.8640012 118.2044997   4.5309988
  92.3430012 119.5454997   4.0179988  91.7249277 119.0460942   4.3713682
  92.1960012 119.6924997   9.8429988  93.1290012 119.9044997   9.8089988
  91.9610012 119.7944997  10.7649988  92.2918036 119.7352769   9.9629976
  92.2250012 120.4294997  12.6189988  91.3820012 120.6974997  12.9849988
  92.6670012 121.2514997  12.4079988  92.1694158 120.5773291  12.6405491
  76.5060012 118.8774997  16.0959988  77.4260012 118.7554997  16.3319988
  76.0570012 118.1274997  16.4849988  76.5711580 118.7593727  16.1809006
  94.5080012 114.4094997  17.9719988  94.8580012 113.7554997  17.3669988
  94.6550012 115.2464997  17.5329988  94.5758419 114.4331591  17.8297118
  92.1970012 116.3744997   4.4549988  92.3800012 115.9254997   5.2809988
  91.5980012 115.7894997   3.9919988  92.1410202 116.2339975   4.5053275
  77.7270012 117.1894997   8.9869988  78.1730012 116.3974997   9.2889988
  78.1940012 117.9054997   9.4179988  77.8510172 117.1780624   9.0864820
  76.0310012 120.1884997  10.0559988  76.5230012 119.9674997   9.2649988
  76.3940012 121.0294997  10.3369988  76.1473126 120.2718357   9.9857531
  94.0280012 116.5184997  16.3219988  93.1100012 116.7894997  16.2859988
  94.1510012 115.9834997  15.5369988  93.9191066 116.4832892  16.2110487
  94.0640012 116.4414997   0.9829988  94.4760012 115.7204997   0.5079988
  94.7460012 117.1114997   1.0419988  94.2125885 116.4332368   0.9258915
  76.3450012 116.4464997   4.1099988  75.4200012 116.6554997   3.9809988
  76.7990012 116.9304997   3.4209988  76.2797368 116.5405993   3.9991226
  91.1160012 131.4304997   6.0559988  91.7680012 131.0834997   5.4479988
  91.6260012 131.9194997   6.7019988  91.2742637 131.4490597   6.0600236
  76.3090012 115.1844997  12.4549988  75.6440012 114.9384997  13.0979988
  75.8660012 115.8064997  11.8769988  76.1580956 115.2348632  12.4649352
  78.5010012 128.3594997  16.5989988  77.6800012 128.5344997  16.1389988
  78.2480012 128.2864997  17.5199988  78.3546164 128.3735622  16.6604923
  81.4550012 129.3344997  12.8579988  81.0300012 130.1434997  12.5749988
  82.3590012 129.4194997  12.5559988  81.5190271 129.4568469  12.7783776
  85.7660012 130.7334997  15.8169988  85.9510012 130.3994997  16.6949988
  86.6120012 131.0424997  15.4949988  85.9057539 130.7296047  15.8935605
  88.1110012 132.0194997  15.0609988  88.7880012 131.3864997  14.8209988
  88.4330012 132.4204997  15.8679988  88.2471637 131.9871154  15.1372793
  93.0280012 114.6084997  14.1409988  92.2160012 114.9334997  13.7529988
  93.2610012 113.8484997  13.6079988  92.9483423 114.5502436  14.0158253
  78.8570012 132.5904997  12.9049988  78.1360012 133.0304997  12.4539988
  78.4910012 132.3394997  13.7539988  78.7089804 132.6167698  12.9579840
  81.3240012 132.1904997  11.9349988  80.4590012 132.2624997  12.3389988
  81.2690012 132.7374997  11.1509988  81.1982085 132.2742685  11.8843362
  86.0340012 132.0784997  11.1099988  85.5780012 132.6074997  10.4559988
  86.1970012 132.6814997  11.8359988  85.9935585 132.2324468  11.1185062
  88.3620012 130.9564997  12.0549988  87.4570012 131.1214997  11.7899988
  88.7910012 131.8094997  11.9899988  88.2960799 131.0944483  12.0099182
  90.9660012 132.5264997  12.3499988  90.7840012 133.4424997  12.1399988
  91.1430012 132.1164997  11.5039988  90.9650210 132.5964822  12.2067885
  78.2710012 131.2134997   9.8149988  78.2530012 130.7884997  10.6729988
  79.0760012 130.8954997   9.4069988  78.3773875 131.1123812   9.8771655
  80.4130012 129.9234997   8.4699988  80.1940012 129.0074997   8.6399988
  81.2370012 130.0634997   8.9359988  80.4944420 129.8170520   8.5562774
  82.9500012 130.3934997   9.3189988  83.1630012 129.5054997   9.0319988
  83.0140012 130.3594997  10.2729988  82.9878232 130.2673102   9.4087397
  86.4580012 116.0574997   8.4629988  85.7840012 115.4284997   8.7189988
  87.0220012 115.5734997   7.8599988  86.4419230 115.9058744   8.4165340
  91.6010012 114.1654997   8.5759988  92.2050012 114.7124997   8.0739988
  90.7310012 114.4844997   8.3359988  91.5661241 114.2835806   8.4747654
  93.3280012 115.3034997   6.9089988  93.9400012 114.7894997   6.3829988
  93.7100012 116.1814997   6.9329988  93.4634540 115.3517140   6.8401830
  78.7850012 114.6914997   6.2849988  78.0080012 114.4574997   5.7779988
  79.3150012 113.8944997   6.2939988  78.7502330 114.5516988   6.2167742
  77.6210012 114.4894997   2.0889988  78.0600012 115.1004997   1.4969988
  76.9880012 115.0274997   2.5629988  77.5954514 114.6459257   2.0720930
  83.3640012 114.6184997   6.0989988  84.2390012 115.0064997   6.0689988
  83.2280012 114.4034997   7.0209988  83.4653695 114.6425184   6.2196440
  88.9210012 114.6484997   7.7479988  88.9970012 114.7434997   6.7979988
  88.6460012 113.7404997   7.8769988  88.8942321 114.5387867   7.6355079
  90.2740012 114.6744997   3.4399988  89.5720012 115.2894997   3.2309988
  89.8300012 113.8364997   3.5709988  90.1176330 114.6455783   3.4290328
  77.5220012 130.4374997   2.9869988  76.8370012 130.3994997   2.3189988
  77.5260012 131.3504997   3.2749988  77.4288193 130.5557016   2.9345284
  79.4820012 116.4054997   0.5309988  79.9740012 115.7754997   0.0039988
  80.1060012 116.7014997   1.1949988  79.6335446 116.3593199   0.5485980
  84.5080012 116.6984997   2.9879988  84.6860012 116.0524997   3.6709988
  84.4550012 117.5324997   3.4559988  84.5251829 116.7227985   3.1445940
  86.3870012 131.6474997   1.3839988  87.2530012 132.0134997   1.2059988
  86.1400012 131.2074997   0.5699988  86.4722392 131.6381756   1.2496289
  93.0960012 131.2104997   4.0629988  92.9010012 130.4624997   3.4979988
  93.0570012 131.9684997   3.4799988  93.0640380 131.2106099   3.9068384
  78.7430012 115.2054997  15.8029988  78.3770012 114.4404997  16.2459988
  79.6560012 115.2344997  16.0899988  78.8162790 115.1047224  15.9024070
  80.7160012 114.5564997  17.3389988  81.6140012 114.2824997  17.1539988
  80.3290012 113.8134997  17.8029988  80.7866612 114.4185914  17.3763643
  79.3400012 131.3574997   0.0119988  79.0730012 131.6444997   0.8849988
  80.1120012 130.8114997   0.1639988  79.4077488 131.3230294   0.1521050
  89.1370012 113.8884997  17.5209988  89.2140012 113.4624997  18.3749988
  90.0310012 113.9024997  17.1779988  89.2683428 113.8320879  17.5915310
  92.3130012 129.9614997  16.2129988  91.5310012 129.7754997  15.6939988
  92.2410012 130.8904997  16.4309988  92.1961777 130.0616492  16.1714048
 106.7190012 123.8474997   6.2439988 106.8080012 124.7914997   6.1119988
 106.0810012 123.5724997   5.5859988 106.6449081 123.9394830   6.1369614
 105.6520012 123.1024997   9.6629988 105.6140012 122.4564997  10.3679988
 105.3300012 122.6364997   8.8919988 105.6032333 122.9509408   9.6552978
  98.0210012 122.7174997  11.2559988  98.0620012 122.0914997  11.9789988
  98.7240012 123.3414997  11.4379988  98.1216363 122.7161196  11.3796044
 109.3580012 126.0414997   7.9639988 108.9180012 125.3214997   8.4149988
 109.3450012 126.7624997   8.5939988 109.2960226 126.0403731   8.1108494
  98.9440012 127.1674997   9.7909988  98.5750012 126.3654997   9.4209988
  99.8850012 126.9984997   9.8369988  99.0207289 127.0350153   9.7466316
  95.5540012 120.8274997   5.1839988  95.1070012 121.6734997   5.1649988
  94.9930012 120.2474997   4.6679988  95.4169900 120.8649916   5.1116801
  96.2650012 122.9894997   7.3099988  96.4780012 122.2194997   7.8369988
  97.0030012 123.0784997   6.7059988  96.3938496 122.8961394   7.3005300
 106.4700012 131.1464997   8.1769988 107.0900012 130.4694997   7.9029988
 106.2620012 130.9284997   9.0849988 106.5266904 131.0243870   8.2623365
 104.0420012 125.5354997  10.0689988 104.3460012 124.8494997   9.4739988
 104.7630012 125.6534997  10.6869988 104.1810671 125.4576304  10.0711816
 112.7050012 117.1364997  10.9299988 112.7540012 117.7464997  11.6659988
 113.1300012 117.5974997  10.2069988 112.7691824 117.2823741  10.9330205
 107.1830012 119.9294997  10.3969988 107.3250012 118.9834997  10.4169988
 107.0760012 120.1364997   9.4679988 107.1879864 119.8279534  10.2742339
 100.3370012 118.0304997   7.6689988 100.3810012 118.8904997   7.2509988
  99.8800012 117.4784997   7.0349988 100.2812185 118.0735799   7.5260299
 108.0600012 118.1614997   6.0699988 108.7060012 117.8324997   6.6949988
 108.5700012 118.6794997   5.4469988 108.2174264 118.1864611   6.0713862
  96.9580012 120.4274997   8.4309988  97.6110012 119.8774997   8.8629988
  96.9820012 120.1534997   7.5139988  97.0506683 120.3151466   8.3662123
 102.1140012 121.9774997   7.6459988 102.7300012 121.4514997   8.1559988
 101.5280012 121.3374997   7.2429988 102.1190810 121.8189208   7.6613173
 113.0960012 118.6144997  13.1659988 112.4080012 119.2724997  13.0699988
 113.1120012 118.4174997  14.1019988 113.0038525 118.6780462  13.2794808
  99.1480012 116.9484997  11.7429988  98.9290012 117.4784997  10.9769988
  98.4800012 117.1754997  12.3899988  99.0277600 117.0516906  11.7256379
 106.5170012 126.4484997   5.2869988 106.2210012 126.1264997   4.4359988
 106.1920012 127.3484997   5.3279988 106.4326371 126.5260215   5.1761801
 101.7170012 124.6244997  12.0299988 100.9770012 125.2224997  12.1339988
 102.4310012 125.1784997  11.7149988 101.7122237 124.7812831  12.0016465
 109.8240012 117.4524997   8.0499988 109.6080012 116.6864997   8.5829988
 110.4790012 117.9244997   8.5629988 109.8830632 117.4115889   8.1922861
  98.7410012 118.8404997   9.6949988  99.3550012 119.4734997  10.0689988
  99.2530012 118.3684997   9.0389988  98.8942296 118.8632370   9.6574252
 100.1240012 126.5884997  12.8179988 100.1190012 127.4684997  12.4399988
  99.2710012 126.5054997  13.2429988 100.0079464 126.6976117  12.8237907
  96.2450012 126.2594997   3.5999988  95.9730012 126.4884997   2.7109988
  96.2910012 127.0974997   4.0599988  96.2140094 126.4041213   3.5405697
 109.8700012 127.8814997  10.3119988 108.9290012 127.9394997  10.4739988
 110.1470012 128.7874997  10.1749988 109.7784679 128.0119443  10.3156815
 110.1710012 116.1674997  11.7299988 109.4350012 116.7784997  11.6919988
 110.8540012 116.5824997  11.2029988 110.1626541 116.3071374  11.6535832
 103.1740012 114.2544997   9.1959988 103.0570012 113.3054997   9.1409988
 102.3190012 114.5864997   9.4689988 103.0423733 114.1695409   9.2253897
 108.1220012 129.6624997   6.9379988 108.5480012 128.9554997   6.4529988
 108.4390012 130.4634997   6.5209988 108.2231019 129.6740994   6.8153130
 109.2820012 127.5634997   5.4459988 109.0240012 126.8734997   4.8349988
 109.3530012 127.1204997   6.2919988 109.2562856 127.4092124   5.4766885
 110.9680012 126.1294997  13.9239988 111.1080012 125.5384997  13.1839988
 111.1350012 127.0024997  13.5669988 111.0096778 126.1666426  13.7746965
 105.4410012 123.0914997   3.6959988 104.7290012 123.6264997   3.3439988
 106.1320012 123.1474997   3.0359988 105.4370132 123.1722543   3.5586289
 105.4940012 121.5494997   0.7349988 106.1950012 121.5714997   1.3859988
 105.7970012 120.9214997   0.0789988 105.6307830 121.4676566   0.7353711
 112.8100012 122.4694997  11.9899988 112.1570012 123.1644997  12.0789988
 113.2750012 122.6794997  11.1799988 112.7835390 122.5929425  11.8926883
 108.8460012 123.3014997   4.6479988 108.1140012 123.5294997   5.2209988
 109.2940012 122.5874997   5.1029988 108.8063095 123.2362571   4.7879119
 108.7440012 121.4754997  13.7149988 108.8240012 122.2384997  14.2869988
 108.1420012 121.7544997  13.0249988 108.6735756 121.6177134  13.7000589
 100.4920012 123.9314997   6.5299988 100.1610012 123.5614997   5.7119988
 101.0800012 123.2614997   6.8769988 100.5261873 123.7901156   6.4648102
 101.8580012 127.3594997   9.2119988 101.7640012 126.7814997   8.4549988
 102.5880012 126.9884997   9.7079988 101.9437981 127.2302390   9.1754165
 100.8580012 122.7004997  10.1639988 101.4240012 122.8214997   9.4009988
 101.1770012 123.3374997  10.8029988 100.9785786 122.8031884  10.1460040
 107.1670012 128.2034997  10.8979988 106.9270012 128.8654997  11.5459988
 106.9690012 127.3694997  11.3229988 107.1073808 128.1813134  11.0441524
 101.7380012 127.0994997  14.8809988 101.4270012 127.8814997  15.3359988
 101.0880012 126.9464997  14.1949988 101.6075558 127.1859105  14.8505871
 107.7170012 122.4634997   2.3329988 108.2970012 122.6134997   3.0799988
 108.1310012 122.9344997   1.6099988 107.8522830 122.5476841   2.3374134
  98.6580012 123.2974997  14.1099988  98.7290012 123.9484997  14.8079988
  97.7680012 123.4004997  13.7749988  98.5473117 123.4005936  14.1602700
 105.4440012 129.2004997   5.7679988 105.9180012 129.4954997   6.5459988
 104.8810012 129.9384997   5.5349988 105.4327653 129.3406932   5.8430136
  99.9780012 129.1714997  15.6439988  99.9850012 129.0354997  14.6969988
  99.0620012 129.0534997  15.8959988  99.8551714 129.1369430  15.5484666
 111.4160012 114.2134997   2.1459988 110.5160012 114.3524997   2.4409988
 111.6680012 115.0444997   1.7439988 111.3268702 114.3449074   2.1320205
  99.4820012 123.0014997   4.1199988  99.1900012 123.7694997   3.6289988
  98.8080012 122.3414997   3.9569988  99.3509081 123.0174406   4.0307340
 112.6050012 128.5794997   0.5219988 112.6790012 129.5184997   0.6929988
 113.5110012 128.2744997   0.4659988 112.7375100 128.6666722   0.5378119
  95.5750012 125.3644997  12.9349988  95.0740012 125.3364997  12.1199988
  95.5800012 124.4584997  13.2439988  95.5071526 125.2382278  12.8652872
  95.3250012 128.1444997   9.8189988  96.2710012 128.0004997   9.7999988
  95.2130012 128.9284997  10.3559988  95.4392727 128.2308046   9.8890072
 113.5230012 128.8104997  15.5009988 113.4740012 127.8554997  15.4639988
 112.6960012 129.0784997  15.9019988 113.4044940 128.7158998  15.5501375
 104.5020012 128.3844997  14.3769988 104.5890012 129.2104997  14.8519988
 103.6380012 128.0544997  14.6259988 104.3971964 128.4529878  14.4756549
 104.9160012 132.1564997   4.1829988 104.8410012 132.0354997   3.2369988
 104.9490012 133.1064997   4.3019988 104.9101848 132.2682500   4.0694834
  98.5690012 130.9454997   5.9639988  98.7220012 130.5974997   6.8429988
  97.7190012 130.5894997   5.7089988  98.4748962 130.8496650   6.0498340
 108.0180012 131.3104997   1.1849988 108.3930012 130.5664997   0.7149988
 108.0220012 131.0404997   2.1039988 108.0698915 131.1721486   1.2447824
 107.6870012 131.2364997   3.9349988 106.7510012 131.3364997   4.1129988
 107.9670012 130.5274997   4.5129988 107.5968255 131.1542711   4.0375391
 110.6750012 120.3034997  15.9809988 110.2680012 120.7844997  15.2599988
 110.7160012 119.3984997  15.6729988 110.6248437 120.2469374  15.8406683
  97.8240012 126.6874997  13.9779988  98.0400012 126.3264997  14.8369988
  96.9690012 126.3134997  13.7679988  97.7379292 126.5874111  14.0673386
 100.4430012 115.1574997   9.9729988  99.5810012 115.0704997   9.5659988
 100.4200012 116.0134997  10.4009988 100.3220330 115.2612765   9.9751863
 105.1060012 114.8794997  13.3479988 105.5260012 114.4644997  14.1009988
 104.1730012 114.7014997  13.4649988 105.0373644 114.7985900  13.4669539
 108.4320012 118.6354997  14.2009988 107.9180012 118.5094997  14.9989988
 108.2770012 119.5474997  13.9569988 108.3406852 118.7416132  14.2772158
 109.1950012 123.4964997  -0.0370012 109.2370012 123.2734997  -0.9670012
 110.0440012 123.8954997   0.1529988 109.3155396 123.5199155  -0.1386373
 104.7670012 117.3724997   0.6329988 104.5140012 117.3914997   1.5559988
 104.5110012 116.5004997   0.3319988 104.6977790 117.2572437   0.7186263
 100.5340012 120.1234997  11.0679988  99.8920012 120.0824997  11.7769988
 100.5710012 121.0494997  10.8309988 100.4511324 120.2431559  11.1329824
 100.5310012 120.3444997   5.9799988  99.6380012 120.0034997   5.9219988
 100.9810012 119.9674997   5.2249988 100.4697305 120.2468484   5.8699177
 106.0660012 120.7604997   4.7969988 105.6570012 121.5754997   4.5059988
 106.7870012 120.6204997   4.1829988 106.1074537 120.8532018   4.6741342
 105.1680012 120.9354997  16.2849988 104.6060012 120.2314997  16.6059988
 105.9950012 120.8154997  16.7529988 105.2027095 120.8227883  16.3922330
 107.0710012 120.2064997   7.6109988 106.8760012 120.8114997   6.8959988
 107.2520012 119.3724997   7.1769988 107.0687614 120.1766300   7.4544405
  98.2840012 120.4434997  12.9349988  98.2460012 120.8434997  13.8039988
  97.7930012 119.6264997  13.0259988  98.2124684 120.3878069  13.0661059
 101.6500012 117.8174997  -0.2660012 101.2190012 117.3724997   0.4639988
 100.9320012 118.1894997  -0.7780012 101.4939438 117.8068940  -0.2353201
  94.8920012 117.5594997   6.7859988  95.5230012 117.5304997   7.5049988
  95.3410012 117.1344997   6.0559988  95.0390774 117.4980492   6.7856553
  96.1660012 118.3054997   2.2099988  96.6400012 118.8964997   1.6249988
  95.4490012 118.8364997   2.5569988  96.1339341 118.4580867   2.1768836
 106.3350012 121.8444997  12.2829988 106.6580012 121.2134997  11.6399988
 105.8950012 121.3094997  12.9429988 106.3196895 121.6858441  12.2842850
 103.1120012 117.7714997   7.0669988 102.2010012 117.8284997   7.3549988
 103.6180012 117.7114997   7.8769988 103.0555413 117.7711985   7.2160622
  97.9410012 119.4004997   5.8929988  97.0510012 119.5004997   5.5529988
  98.2370012 118.5584997   5.5469988  97.8592823 119.3003545   5.7997213
 101.5940012 119.4004997   3.5499988 102.5250012 119.5294997   3.7279988
 101.3790012 120.0704997   2.8999988 101.6924247 119.5086565   3.4865747
 107.5170012 117.0064997  10.3309988 106.8410012 117.1374997  10.9949988
 107.0320012 116.8514997   9.5209988 107.3587145 117.0034905  10.3124517
 100.2680012 120.5954997   1.1169988  99.7250012 120.2154997   0.4249988
 101.1010012 120.7894997   0.6879988 100.3064399 120.5698124   0.9644526
 110.8050012 132.6784997  16.6079988 111.0050012 133.1024997  15.7729988
 111.4600012 133.0214997  17.2149988 110.9210051 132.7829648  16.5757836
  98.4030012 125.1524997  16.2159988  99.1350012 125.4064997  16.7769988
  97.6230012 125.3564997  16.7309988  98.3978232 125.2149177  16.3625760
 104.4320012 120.5594997   8.9539988 104.9970012 120.0124997   8.4069988
 104.2850012 120.0374997   9.7419988 104.4892918 120.4142024   8.9858454
  99.4340012 116.6954997   5.3719988  99.1170012 115.7934997   5.3369988
 100.2160012 116.6974997   4.8189988  99.4962284 116.5721628   5.2924783
 103.0590012 118.9474997  11.3679988 102.2230012 119.4014997  11.4779988
 103.5830012 119.2234997  12.1199988 103.0154414 119.0469376  11.4847136
 103.6030012 125.1604997   3.0519988 102.8580012 124.6534997   2.7299988
 103.4690012 125.2094997   3.9989988 103.4828776 125.0976940   3.1358647
 110.7530012 124.2934997  11.8389988 111.3950012 124.7504997  11.2949988
 109.9230012 124.4064997  11.3759988 110.7285963 124.3712704  11.7020177
 107.5010012 117.9744997   1.2519988 106.5620012 118.0864997   1.0999988
 107.7980012 118.8314997   1.5579988 107.4127666 118.1056443   1.2725768
 105.1220012 125.3444997  14.2889988 104.7770012 124.9634997  15.0959988
 104.9220012 126.2784997  14.3609988 105.0478061 125.4185228  14.4090961
 108.2190012 119.8414997   2.9119988 109.1110012 119.7044997   3.2309988
 108.2760012 120.6324997   2.3759988 108.3486285 119.9296660   2.8831691
  98.7280012 124.4554997   8.8219988  99.4730012 124.4534997   8.2209988
  98.8060012 123.6324997   9.3039988  98.8405518 124.3439315   8.8048929
 105.7290012 126.6194997   2.0779988 105.4330012 127.4454997   2.4589988
 105.0260012 125.9994997   2.2739988 105.5934914 126.6488199   2.1566443
  95.7360012 122.9164997  14.1369988  95.9590012 122.4984997  14.9689988
  95.1340012 122.3034997  13.7139988  95.6851759 122.7764668  14.1937022
 102.7520012 122.4334997  16.3499988 102.4560012 122.2674997  15.4549988
 103.6840012 122.2134997  16.3389988 102.8374166 122.3810640  16.2260536
 107.3730012 127.8064997  14.2399988 106.4720012 127.9894997  13.9719988
 107.4070012 128.0654997  15.1609988 107.2543041 127.8665512  14.3278197
 113.1040012 120.0514997   2.6069988 112.5500012 119.6554997   1.9349988
 113.2040012 120.9614997   2.3289988 113.0417059 120.1203586   2.4774401
 113.0670012 125.8514997  15.4439988 112.2160012 126.0894997  15.0769988
 113.6580012 125.8344997  14.6909988 113.0302487 125.8818258  15.2918893
 111.3990012 128.8374997   3.0719988 111.0260012 128.0114997   3.3809988
 111.6770012 128.6544997   2.1749988 111.3855630 128.6997303   2.9929626
 108.5600012 123.6454997  10.0929988 107.6310012 123.4134997  10.0659988
 109.0110012 122.8684997   9.7629988 108.4939216 123.5087238  10.0446917
 101.1030012 127.9734997   6.2259988 101.6300012 128.7464997   6.0259988
 100.2230012 128.1984997   5.9249988 101.0561773 128.1098005   6.1579010
  96.8580012 122.8354997   0.8129988  97.4740012 123.4624997   1.1929988
  95.9960012 123.1514997   1.0849988  96.8257698 122.9639430   0.9017183
 102.5300012 125.6364997   5.8029988 102.2890012 126.5614997   5.8439988
 101.7890012 125.1774997   6.1989988 102.3968409 125.7011421   5.8621377
 103.0450012 129.7854997  12.1179988 103.4070012 130.6404997  11.8839988
 103.5760012 129.4934997  12.8579988 103.1664473 129.8631060  12.1860855
 101.2130012 130.6584997   5.3479988 100.2630012 130.7634997   5.3989988
 101.5650012 131.4784997   5.6929988 101.1304203 130.7838314   5.4016650
 106.5890012 125.8844997  11.8179988 106.1630012 125.6574997  12.6449988
 107.1690012 125.1464997  11.6359988 106.6091868 125.7535299  11.9065830
 108.7920012 126.8134997   0.8919988 109.1450012 126.4334997   1.6969988
 107.8430012 126.7204997   0.9789988 108.7120441 126.7489596   1.0138559
 109.2470012 130.4364997  14.2879988 108.6460012 129.8814997  13.7919988
 109.5290012 131.1034997  13.6619988 109.2028519 130.4506841  14.1354952
 113.2950012 131.2934997   1.0929988 114.0390012 131.8794997   0.9529988
 112.6010012 131.8614997   1.4269988 113.3030292 131.4505582   1.1189961
  97.3700012 117.6694997  13.6949988  96.4770012 118.0084997  13.6269988
  97.2710012 116.8144997  14.1129988  97.2344164 117.6002588  13.7422235
 109.6580012 125.4864997   3.1189988 109.3800012 124.7584997   3.6749988
 110.5850012 125.6054997   3.3239988 109.7453124 125.4028802   3.2228845
  97.0210012 129.4744997  12.1299988  97.2380012 128.5424997  12.0989988
  97.2670012 129.7484997  13.0129988  97.0839549 129.3840636  12.2451763
 102.8830012 127.9254997  -0.6610012 103.1220012 127.1774997  -1.2080012
 102.6140012 127.5374997   0.1719988 102.8793675 127.7706638  -0.6233135
 101.8200012 127.4954997   1.7959988 101.9660012 126.9754997   2.5859988
 101.8170012 128.4024997   2.1019988 101.8395989 127.5468853   1.9456088
  98.2730012 124.7484997   2.3059988  97.5870012 125.1004997   2.8729988
  98.7950012 125.5114997   2.0589988  98.2496852 124.8998578   2.3502118
 106.1040012 117.4104997  12.5849988 106.8030012 117.4844997  13.2349988
 105.7230012 116.5464997  12.7389988 106.1481767 117.3037624  12.6948322
 106.8890012 117.0624997   3.6819988 107.1090012 117.5344997   2.8789988
 107.4470012 117.4574997   4.3519988 106.9944968 117.1804285   3.6627331
 104.5570012 129.1934997   2.5449988 103.7410012 129.6904997   2.5969988
 105.0870012 129.6684997   1.9049988 104.5169161 129.3257722   2.4655956
 104.0890012 118.7904997   4.5169988 104.9010012 119.2954997   4.5629988
 103.8440012 118.6454997   5.4309988 104.1670520 118.8400375   4.6468517
 104.6240012 119.7764997  13.7019988 104.7430012 120.3504997  14.4589988
 105.2800012 119.0884997  13.8159988 104.7289757 119.7621079  13.8210825
 104.9720012 115.8714997   5.4549988 104.6260012 116.4894997   6.0999988
 105.6310012 116.3724997   4.9739988 105.0137826 116.0235802   5.4780971
 101.8960012 130.2374997   2.5269988 102.0560012 131.0364997   2.0259988
 101.6980012 130.5434997   3.4119988 101.8911649 130.3884469   2.5779815
 100.6300012 116.9344997   2.1419988 100.5470012 117.8234997   2.4889988
 101.5200012 116.6694997   2.3739988 100.7389469 117.0201430   2.2207626
 110.8290012 117.6834997  14.5369988 109.9120012 117.9464997  14.4489988
 111.1640012 117.6804997  13.6399988 110.7489900 117.7190224  14.4037919
 109.4310012 121.4344997   8.6319988 108.6330012 121.0194997   8.3039988
 109.8760012 120.7434997   9.1229988 109.3819885 121.2843543   8.6534889
  98.8890012 127.3624997   1.2029988  99.4810012 128.0614997   1.4789988
  99.3480012 126.9294997   0.4829988  99.0321142 127.3997049   1.1434830
  97.2050012 120.0264997   0.3189988  97.1600012 120.9654997   0.4969988
  96.3170012 119.7904997   0.0489988  97.0788574 120.1231892   0.3068912
 110.5170012 130.6904997  10.2549988 110.3620012 131.3684997   9.5979988
 111.4500012 130.7624997  10.4579988 110.6218500 130.7930170  10.1925119
  98.0130012 114.8084997   8.9919988  97.7840012 114.8674997   8.0639988
  97.5700012 114.0164997   9.2979988  97.9218530 114.7095753   8.9064786
  96.9430012 128.7484997   5.1519988  96.1110012 129.2214997   5.1799988
  97.4890012 129.2584997   4.5539988  96.9029739 128.8821871   5.0749716
  96.2310012 131.3614997  16.4819988  96.7720012 131.1444997  17.2419988
  95.7500012 130.5554997  16.2929988  96.2399345 131.2229514  16.5603076
 100.8290012 130.2804997  18.1029988 101.5960012 129.8214997  18.4439988
 100.8070012 130.0544997  17.1729988 100.9311434 130.1870409  18.0240043
 104.9210012 129.7884997  -0.5220012 104.2770012 129.1574997  -0.2010012
 105.6830012 129.2574997  -0.7540012 104.9358077 129.6302920  -0.5093989
 107.4060012 128.6604997  16.8319988 107.0550012 127.8044997  17.0749988
 108.1320012 128.8034997  17.4389988 107.4560769 128.5625636  16.9473619
 109.5250012 129.6054997  -0.2880012 109.8080012 128.8114997   0.1639988
 110.2650012 129.8384997  -0.8490012 109.6637486 129.5282803  -0.3019302
  96.1380012 125.1714997  17.4369988  96.2820012 124.2694997  17.1499988
  95.3660012 125.4574997  16.9489988  96.0533322 125.0868261  17.3317881
 100.4800012 125.5154997  -0.4310012 100.5440012 124.7214997   0.0999988
 101.1330012 125.3964997  -1.1210012 100.5770241 125.3907148  -0.4515683
 102.7940012 125.1414997  16.8689988 102.4650012 125.4124997  16.0119988
 102.9460012 124.2004997  16.7819988 102.7694809 125.0513862  16.7398244
 105.8320012 126.5624997  -0.6950012 105.5630012 126.7424997   0.2059988
 105.6260012 125.6364997  -0.8260012 105.7673825 126.4620152  -0.5894786
 108.5280012 125.0574997  14.2529988 109.2740012 125.6454997  14.1329988
 107.7710012 125.6394997  14.3159988 108.5277554 125.2167011  14.2450907
  96.9710012 122.3714997  16.8569988  97.3790012 121.5144997  16.7359988
  96.7110012 122.3864997  17.7779988  96.9917568 122.2560807  16.9649588
 101.6290012 123.4874997   1.8749988 101.1690012 123.0034997   2.5609988
 101.8840012 122.8194997   1.2389988 101.6004902 123.3308731   1.8829334
 100.9180012 121.3804997  14.2309988 100.3000012 122.0554997  14.5109988
 101.2620012 121.7014997  13.3979988 100.8799615 121.5162721  14.1566581
 102.7000012 121.7304997   0.1369988 102.5200012 121.5764997  -0.7900012
 103.6500012 121.8384997   0.1819988 102.8037776 121.7240175   0.0161843
 105.9380012 123.8524997  17.5079988 106.8910012 123.9354997  17.4809988
 105.7770012 123.1404997  18.1279988 106.0466426 123.7676746  17.5880579
 112.0900012 124.0854997  -0.4170012 111.8160012 123.6604997  -1.2300012
 112.1290012 125.0164997  -0.6340012 112.0577699 124.1532484  -0.5576390
 101.2570012 118.7354997  15.3129988 101.4070012 118.0064997  14.7109988
 101.2600012 119.5124997  14.7539988 101.2779302 118.7407851  15.1550692
 101.6700012 117.1054997  12.8059988 102.2060012 117.5564997  12.1539988
 100.8180012 116.9974997  12.3829988 101.6282178 117.1526390  12.6595756
 103.2520012 122.5444997  13.0449988 104.0020012 122.3884997  12.4719988
 102.9130012 123.3964997  12.7699988 103.3088921 122.6382968  12.9293561
 107.6670012 120.3594997  18.0739988 107.8600012 119.4284997  17.9619988
 108.5250012 120.7844997  18.0639988 107.8093020 120.2896389  18.0573361
 108.9840012 123.1484997  16.1509988 108.7030012 123.8574997  15.5739988
 109.9270012 123.0754997  15.9999988 109.0729027 123.2357646  16.0515551
  99.7360012 119.9334997  17.2249988  98.9690012 119.4014997  17.0149988
 100.4150012 119.6234997  16.6249988  99.7227022 119.8187506  17.1151648
 102.4760012 114.5614997  13.2369988 102.3770012 115.5084997  13.1319988
 101.7330012 114.1894997  12.7619988 102.3620564 114.6405902  13.1584560
 103.7400012 118.8834997  16.8009988 103.5040012 118.6634997  17.7029988
 102.9560012 118.6764997  16.2909988 103.6018628 118.8254760  16.8553932
 106.4550012 118.0104997  15.8769988 105.5080012 118.0424997  16.0089988
 106.7680012 117.3854997  16.5299988 106.3675475 117.9303207  15.9834455
 108.0890012 116.6444997  17.8819988 107.9930012 115.6924997  17.8759988
 107.7680012 116.9134997  18.7419988 108.0324070 116.5504035  17.9975441
  97.9160012 117.8544997  16.9289988  98.1280012 117.1474997  16.3189988
  97.8050012 117.4164997  17.7729988  97.9299721 117.6987084  16.9596843
 102.6970012 113.8554997  15.9089988 103.4090012 113.2154997  15.8949988
 102.5960012 114.1224997  14.9949988 102.7807939 113.8039938  15.7835650
 103.0510012 115.5384997  17.9619988 102.9190012 115.0624997  17.1419988
 102.4520012 116.2824997  17.9069988 102.9519071 115.5739618  17.8422886
 102.5970012 132.4214997   1.1389988 103.5300012 132.5794997   1.2819988
 102.3330012 133.0964997   0.5139988 102.6889510 132.5343611   1.0740741
  96.1660012 127.0574997   0.6209988  97.0800012 127.1364997   0.8949988
  96.1730012 126.3704997  -0.0450012  96.2921131 126.9753961   0.5684393
  94.8150012 132.4504997   5.6989988  94.1680012 131.9884997   5.1659988
  95.1690012 131.7784997   6.2809988  94.7743849 132.2964723   5.7047959
  95.6850012 130.5314997   7.5029988  95.3500012 129.6514997   7.6749988
  95.9070012 130.8764997   8.3679988  95.6691783 130.4577500   7.6434208
 113.2330012 131.3404997  10.4839988 113.2120012 131.5254997  11.4229988
 113.9240012 131.9094997  10.1429988 113.3234618 131.4426606  10.5663864
 112.7970012 130.9084997  13.4059988 112.3090012 130.1724997  13.0349988
 113.3460012 130.5144997  14.0839988 112.8044872 130.7546249  13.4469160
 111.2470012 126.6974997  18.0439988 110.3810012 126.5924997  18.4379988
 111.6240012 127.4564997  18.4899988 111.1793308 126.7856900  18.1582393
 112.5480012 124.9544997   3.5579988 113.3980012 125.3754997   3.6849988
 112.5540012 124.2144997   4.1649988 112.6651372 124.9120803   3.6574344
 112.9430012 123.0074997   5.3819988 112.2160012 122.5284997   5.7789988
 113.5240012 123.2134997   6.1139988 112.9219375 122.9697090   5.5354129
 112.7020012 125.7924997  10.3289988 113.5350012 125.4144997  10.0489988
 112.8140012 126.7354997  10.2099988 112.8312647 125.8682218  10.2745487
 111.1880012 128.6704997  12.6359988 110.5410012 128.9954997  13.2619988
 110.6710012 128.2304997  11.9619988 111.0294029 128.6555004  12.6305827
 113.2110012 122.9084997   1.7729988 112.6890012 123.2654997   1.0539988
 113.1780012 123.5834997   2.4509988 113.1351634 123.0485413   1.7663145
 111.5600012 120.1484997   0.3239988 111.6560012 120.8154997  -0.3570012
 111.4200012 119.3324997  -0.1580012 111.5542135 120.1294500   0.1658491
 110.7290012 121.5284997   5.9449988 110.5790012 120.5834997   5.9239988
 110.3760012 121.8094997   6.7879988 110.6606625 121.4370441   6.0562346
  95.7650012 123.6064997   9.9549988  95.9490012 123.5244997   9.0189988
  96.6140012 123.4824997  10.3789988  95.9050139 123.5785003   9.8841455
 111.5860012 123.4984997  15.5829988 112.1690012 122.7644997  15.7749988
 112.1500012 124.2704997  15.6299988 111.7419769 123.5024227  15.6156159
 113.0820012 121.4014997  16.2679988 112.2190012 121.0224997  16.1019988
 113.6870012 120.6624997  16.1939988 113.0455979 121.2498023  16.2352817
 110.8070012 117.5564997  -0.5590012 111.4180012 117.1854997   0.0779988
 109.9710012 117.1354997  -0.3630012 110.7775032 117.4487554  -0.4452965
 110.4400012 119.1114997   4.4069988 110.7200012 118.2044997   4.5309988
 111.1990012 119.5454997   4.0179988 110.5809277 119.0460942   4.3713682
 111.0520012 119.6924997   9.8429988 111.9850012 119.9044997   9.8089988
 110.8170012 119.7944997  10.7649988 111.1478036 119.7352769   9.9629976
 111.0810012 120.4294997  12.6189988 110.2380012 120.6974997  12.9849988
 111.5230012 121.2514997  12.4079988 111.0254158 120.5773291  12.6405491
  95.3620012 118.8774997  16.0959988  96.2820012 118.7554997  16.3319988
  94.9130012 118.1274997  16.4849988  95.4271580 118.7593727  16.1809006
 113.3640012 114.4094997  17.9719988 113.7140012 113.7554997  17.3669988
 113.5110012 115.2464997  17.5329988 113.4318419 114.4331591  17.8297118
 111.0530012 116.3744997   4.4549988 111.2360012 115.9254997   5.2809988
 110.4540012 115.7894997   3.9919988 110.9970202 116.2339975   4.5053275
  96.5830012 117.1894997   8.9869988  97.0290012 116.3974997   9.2889988
  97.0500012 117.9054997   9.4179988  96.7070172 117.1780624   9.0864820
  94.8870012 120.1884997  10.0559988  95.3790012 119.9674997   9.2649988
  95.2500012 121.0294997  10.3369988  95.0033126 120.2718357   9.9857531
 112.8840012 116.5184997  16.3219988 111.9660012 116.7894997  16.2859988
 113.0070012 115.9834997  15.5369988 112.7751066 116.4832892  16.2110487
 112.9200012 116.4414997   0.9829988 113.3320012 115.7204997   0.5079988
 113.6020012 117.1114997   1.0419988 113.0685885 116.4332368   0.9258915
  95.2010012 116.4464997   4.1099988  94.2760012 116.6554997   3.9809988
  95.6550012 116.9304997   3.4209988  95.1357368 116.5405993   3.9991226
 109.9720012 131.4304997   6.0559988 110.6240012 131.0834997   5.4479988
 110.4820012 131.9194997   6.7019988 110.1302637 131.4490597   6.0600236
  95.1650012 115.1844997  12.4549988  94.5000012 114.9384997  13.0979988
  94.7220012 115.8064997  11.8769988  95.0140956 115.2348632  12.4649352
  97.3570012 128.3594997  16.5989988  96.5360012 128.5344997  16.1389988
  97.1040012 128.2864997  17.5199988  97.2106164 128.3735622  16.6604923
 100.3110012 129.3344997  12.8579988  99.8860012 130.1434997  12.5749988
 101.2150012 129.4194997  12.5559988 100.3750271 129.4568469  12.7783776
 104.6220012 130.7334997  15.8169988 104.8070012 130.3994997  16.6949988
 105.4680012 131.0424997  15.4949988 104.7617539 130.7296047  15.8935605
 106.9670012 132.0194997  15.0609988 107.6440012 131.3864997  14.8209988
 107.2890012 132.4204997  15.8679988 107.1031637 131.9871154  15.1372793
 111.8840012 114.6084997  14.1409988 111.0720012 114.9334997  13.7529988
 112.1170012 113.8484997  13.6079988 111.8043423 114.5502436  14.0158253
  97.7130012 132.5904997  12.9049988  96.9920012 133.0304997  12.4539988
  97.3470012 132.3394997  13.7539988  97.5649804 132.6167698  12.9579840
 100.1800012 132.1904997  11.9349988  99.3150012 132.2624997  12.3389988
 100.1250012 132.7374997  11.1509988 100.0542085 132.2742685  11.8843362
 104.8900012 132.0784997  11.1099988 104.4340012 132.6074997  10.4559988
 105.0530012 132.6814997  11.8359988 104.8495585 132.2324468  11.1185062
 107.2180012 130.9564997  12.0549988 106.3130012 131.1214997  11.7899988
 107.6470012 131.8094997  11.9899988 107.1520799 131.0944483  12.0099182
 109.8220012 132.5264997  12.3499988 109.6400012 133.4424997  12.1399988
 109.9990012 132.1164997  11.5039988 109.8210210 132.5964822  12.2067885
  97.1270012 131.2134997   9.8149988  97.1090012 130.7884997  10.6729988
  97.9320012 130.8954997   9.4069988  97.2333875 131.1123812   9.8771655
  99.2690012 129.9234997   8.4699988  99.0500012 129.0074997   8.6399988
 100.0930012 130.0634997   8.9359988  99.3504420 129.8170520   8.5562774
 101.8060012 130.3934997   9.3189988 102.0190012 129.5054997   9.0319988
 101.8700012 130.3594997  10.2729988 101.8438232 130.2673102   9.4087397
 105.3140012 116.0574997   8.4629988 104.6400012 115.4284997   8.7189988
 105.8780012 115.5734997   7.8599988 105.2979230 115.9058744   8.4165340
 110.4570012 114.1654997   8.5759988 111.0610012 114.7124997   8.0739988
 109.5870012 114.4844997   8.3359988 110.4221241 114.2835806   8.4747654
 112.1840012 115.3034997   6.9089988 112.7960012 114.7894997   6.3829988
 112.5660012 116.1814997   6.9329988 112.3194540 115.3517140   6.8401830
  97.6410012 114.6914997   6.2849988  96.8640012 114.4574997   5.7779988
  98.1710012 113.8944997   6.2939988  97.6062330 114.5516988   6.2167742
  96.4770012 114.4894997   2.0889988  96.9160012 115.1004997   1.4969988
  95.8440012 115.0274997   2.5629988  96.4514514 114.6459257   2.0720930
 102.2200012 114.6184997   6.0989988 103.0950012 115.0064997   6.0689988
 102.0840012 114.4034997   7.0209988 102.3213695 114.6425184   6.2196440
 107.7770012 114.6484997   7.7479988 107.8530012 114.7434997   6.7979988
 107.5020012 113.7404997   7.8769988 107.7502321 114.5387867   7.6355079
 109.1300012 114.6744997   3.4399988 108.4280012 115.2894997   3.2309988
 108.6860012 113.8364997   3.5709988 108.9736330 114.6455783   3.4290328
  96.3780012 130.4374997   2.9869988  95.6930012 130.3994997   2.3189988
  96.3820012 131.3504997   3.2749988  96.2848193 130.5557016   2.9345284
  98.3380012 116.4054997   0.5309988  98.8300012 115.7754997   0.0039988
  98.9620012 116.7014997   1.1949988  98.4895446 116.3593199   0.5485980
 103.3640012 116.6984997   2.9879988 103.5420012 116.0524997   3.6709988
 103.3110012 117.5324997   3.4559988 103.3811829 116.7227985   3.1445940
 105.2430012 131.6474997   1.3839988 106.1090012 132.0134997   1.2059988
 104.9960012 131.2074997   0.5699988 105.3282392 131.6381756   1.2496289
 111.9520012 131.2104997   4.0629988 111.7570012 130.4624997   3.4979988
 111.9130012 131.9684997   3.4799988 111.9200380 131.2106099   3.9068384
  97.5990012 115.2054997  15.8029988  97.2330012 114.4404997  16.2459988
  98.5120012 115.2344997  16.0899988  97.6722790 115.1047224  15.9024070
  99.5720012 114.5564997  17.3389988 100.4700012 114.2824997  17.1539988
  99.1850012 113.8134997  17.8029988  99.6426612 114.4185914  17.3763643
  98.1960012 131.3574997   0.0119988  97.9290012 131.6444997   0.8849988
  98.9680012 130.8114997   0.1639988  98.2637488 131.3230294   0.1521050
 107.9930012 113.8884997  17.5209988 108.0700012 113.4624997  18.3749988
 108.8870012 113.9024997  17.1779988 108.1243428 113.8320879  17.5915310
 111.1690012 129.9614997  16.2129988 110.3870012 129.7754997  15.6939988
 111.0970012 130.8904997  16.4309988 111.0521777 130.0616492  16.1714048
 125.5750012 123.8474997   6.2439988 125.6640012 124.7914997   6.1119988
 124.9370012 123.5724997   5.5859988 125.5009081 123.9394830   6.1369614
 124.5080012 123.1024997   9.6629988 124.4700012 122.4564997  10.3679988
 124.1860012 122.6364997   8.8919988 124.4592333 122.9509408   9.6552978
 116.8770012 122.7174997  11.2559988 116.9180012 122.0914997  11.9789988
 117.5800012 123.3414997  11.4379988 116.9776363 122.7161196  11.3796044
 128.2140012 126.0414997   7.9639988 127.7740012 125.3214997   8.4149988
 128.2010012 126.7624997   8.5939988 128.1520226 126.0403731   8.1108494
 117.8000012 127.1674997   9.7909988 117.4310012 126.3654997   9.4209988
 118.7410012 126.9984997   9.8369988 117.8767289 127.0350153   9.7466316
 114.4100012 120.8274997   5.1839988 113.9630012 121.6734997   5.1649988
 113.8490012 120.2474997   4.6679988 114.2729900 120.8649916   5.1116801
 115.1210012 122.9894997   7.3099988 115.3340012 122.2194997   7.8369988
 115.8590012 123.0784997   6.7059988 115.2498496 122.8961394   7.3005300
 125.3260012 131.1464997   8.1769988 125.9460012 130.4694997   7.9029988
 125.1180012 130.9284997   9.0849988 125.3826904 131.0243870   8.2623365
 122.8980012 125.5354997  10.0689988 123.2020012 124.8494997   9.4739988
 123.6190012 125.6534997  10.6869988 123.0370671 125.4576305  10.0711816
 131.5610012 117.1364997  10.9299988 131.6100012 117.7464997  11.6659988
 131.9860012 117.5974997  10.2069988 131.6251824 117.2823741  10.9330205
 126.0390012 119.9294997  10.3969988 126.1810012 118.9834997  10.4169988
 125.9320012 120.1364997   9.4679988 126.0439864 119.8279534  10.2742339
 119.1930012 118.0304997   7.6689988 119.2370012 118.8904997   7.2509988
 118.7360012 117.4784997   7.0349988 119.1372185 118.0735799   7.5260299
 126.9160012 118.1614997   6.0699988 127.5620012 117.8324997   6.6949988
 127.4260012 118.6794997   5.4469988 127.0734264 118.1864611   6.0713862
 115.8140012 120.4274997   8.4309988 116.4670012 119.8774997   8.8629988
 115.8380012 120.1534997   7.5139988 115.9066683 120.3151466   8.3662123
 120.9700012 121.9774997   7.6459988 121.5860012 121.4514997   8.1559988
 120.3840012 121.3374997   7.2429988 120.9750810 121.8189208   7.6613173
 131.9520012 118.6144997  13.1659988 131.2640012 119.2724997  13.0699988
 131.9680012 118.4174997  14.1019988 131.8598525 118.6780462  13.2794808
 118.0040012 116.9484997  11.7429988 117.7850012 117.4784997  10.9769988
 117.3360012 117.1754997  12.3899988 117.8837600 117.0516906  11.7256379
 125.3730012 126.4484997   5.2869988 125.0770012 126.1264997   4.4359988
 125.0480012 127.3484997   5.3279988 125.2886371 126.5260215   5.1761801
 120.5730012 124.6244997  12.0299988 119.8330012 125.2224997  12.1339988
 121.2870012 125.1784997  11.7149988 120.5682237 124.7812831  12.0016465
 128.6800012 117.4524997   8.0499988 128.4640012 116.6864997   8.5829988
 129.3350012 117.9244997   8.5629988 128.7390632 117.4115889   8.1922861
 117.5970012 118.8404997   9.6949988 118.2110012 119.4734997  10.0689988
 118.1090012 118.3684997   9.0389988 117.7502296 118.8632370   9.6574252
 118.9800012 126.5884997  12.8179988 118.9750012 127.4684997  12.4399988
 118.1270012 126.5054997  13.2429988 118.8639464 126.6976117  12.8237907
 115.1010012 126.2594997   3.5999988 114.8290012 126.4884997   2.7109988
 115.1470012 127.0974997   4.0599988 115.0700094 126.4041213   3.5405697
 128.7260012 127.8814997  10.3119988 127.7850012 127.9394997  10.4739988
 129.0030012 128.7874997  10.1749988 128.6344679 128.0119443  10.3156815
 129.0270012 116.1674997  11.7299988 128.2910012 116.7784997  11.6919988
 129.7100012 116.5824997  11.2029988 129.0186541 116.3071374  11.6535832
 122.0300012 114.2544997   9.1959988 121.9130012 113.3054997   9.1409988
 121.1750012 114.5864997   9.4689988 121.8983733 114.1695409   9.2253897
 126.9780012 129.6624997   6.9379988 127.4040012 128.9554997   6.4529988
 127.2950012 130.4634997   6.5209988 127.0791019 129.6740994   6.8153130
 128.1380012 127.5634997   5.4459988 127.8800012 126.8734997   4.8349988
 128.2090012 127.1204997   6.2919988 128.1122856 127.4092124   5.4766885
 129.8240012 126.1294997  13.9239988 129.9640012 125.5384997  13.1839988
 129.9910012 127.0024997  13.5669988 129.8656778 126.1666426  13.7746965
 124.2970012 123.0914997   3.6959988 123.5850012 123.6264997   3.3439988
 124.9880012 123.1474997   3.0359988 124.2930132 123.1722543   3.5586289
 124.3500012 121.5494997   0.7349988 125.0510012 121.5714997   1.3859988
 124.6530012 120.9214997   0.0789988 124.4867830 121.4676566   0.7353711
 131.6660012 122.4694997  11.9899988 131.0130012 123.1644997  12.0789988
 132.1310012 122.6794997  11.1799988 131.6395390 122.5929425  11.8926883
 127.7020012 123.3014997   4.6479988 126.9700012 123.5294997   5.2209988
 128.1500012 122.5874997   5.1029988 127.6623095 123.2362571   4.7879119
 127.6000012 121.4754997  13.7149988 127.6800012 122.2384997  14.2869988
 126.9980012 121.7544997  13.0249988 127.5295756 121.6177134  13.7000589
 119.3480012 123.9314997   6.5299988 119.0170012 123.5614997   5.7119988
 119.9360012 123.2614997   6.8769988 119.3821873 123.7901156   6.4648102
 120.7140012 127.3594997   9.2119988 120.6200012 126.7814997   8.4549988
 121.4440012 126.9884997   9.7079988 120.7997981 127.2302390   9.1754165
 119.7140012 122.7004997  10.1639988 120.2800012 122.8214997   9.4009988
 120.0330012 123.3374997  10.8029988 119.8345786 122.8031884  10.1460040
 126.0230012 128.2034997  10.8979988 125.7830012 128.8654997  11.5459988
 125.8250012 127.3694997  11.3229988 125.9633808 128.1813134  11.0441524
 120.5940012 127.0994997  14.8809988 120.2830012 127.8814997  15.3359988
 119.9440012 126.9464997  14.1949988 120.4635558 127.1859105  14.8505871
 126.5730012 122.4634997   2.3329988 127.1530012 122.6134997   3.0799988
 126.9870012 122.9344997   1.6099988 126.7082830 122.5476841   2.3374134
 117.5140012 123.2974997  14.1099988 117.5850012 123.9484997  14.8079988
 116.6240012 123.4004997  13.7749988 117.4033117 123.4005936  14.1602700
 124.3000012 129.2004997   5.7679988 124.7740012 129.4954997   6.5459988
 123.7370012 129.9384997   5.5349988 124.2887653 129.3406932   5.8430136
 118.8340012 129.1714997  15.6439988 118.8410012 129.0354997  14.6969988
 117.9180012 129.0534997  15.8959988 118.7111714 129.1369430  15.5484666
 130.2720012 114.2134997   2.1459988 129.3720012 114.3524997   2.4409988
 130.5240012 115.0444997   1.7439988 130.1828702 114.3449074   2.1320205
 118.3380012 123.0014997   4.1199988 118.0460012 123.7694997   3.6289988
 117.6640012 122.3414997   3.9569988 118.2069081 123.0174406   4.0307340
 131.4610012 128.5794997   0.5219988 131.5350012 129.5184997   0.6929988
 132.3670012 128.2744997   0.4659988 131.5935100 128.6666722   0.5378119
 114.4310012 125.3644997  12.9349988 113.9300012 125.3364997  12.1199988
 114.4360012 124.4584997  13.2439988 114.3631526 125.2382278  12.8652872
 114.1810012 128.1444997   9.8189988 115.1270012 128.0004997   9.7999988
 114.0690012 128.9284997  10.3559988 114.2952727 128.2308046   9.8890072
 132.3790012 128.8104997  15.5009988 132.3300012 127.8554997  15.4639988
 131.5520012 129.0784997  15.9019988 132.2604940 128.7158998  15.5501375
 123.3580012 128.3844997  14.3769988 123.4450012 129.2104997  14.8519988
 122.4940012 128.0544997  14.6259988 123.2531964 128.4529878  14.4756549
 123.7720012 132.1564997   4.1829988 123.6970012 132.0354997   3.2369988
 123.8050012 133.1064997   4.3019988 123.7661848 132.2682500   4.0694834
 117.4250012 130.9454997   5.9639988 117.5780012 130.5974997   6.8429988
 116.5750012 130.5894997   5.7089988 117.3308962 130.8496650   6.0498340
 126.8740012 131.3104997   1.1849988 127.2490012 130.5664997   0.7149988
 126.8780012 131.0404997   2.1039988 126.9258915 131.1721486   1.2447824
 126.5430012 131.2364997   3.9349988 125.6070012 131.3364997   4.1129988
 126.8230012 130.5274997   4.5129988 126.4528255 131.1542711   4.0375391
 129.5310012 120.3034997  15.9809988 129.1240012 120.7844997  15.2599988
 129.5720012 119.3984997  15.6729988 129.4808437 120.2469374  15.8406683
 116.6800012 126.6874997  13.9779988 116.8960012 126.3264997  14.8369988
 115.8250012 126.3134997  13.7679988 116.5939292 126.5874111  14.0673386
 119.2990012 115.1574997   9.9729988 118.4370012 115.0704997   9.5659988
 119.2760012 116.0134997  10.4009988 119.1780330 115.2612765   9.9751863
 123.9620012 114.8794997  13.3479988 124.3820012 114.4644997  14.1009988
 123.0290012 114.7014997  13.4649988 123.8933644 114.7985900  13.4669539
 127.2880012 118.6354997  14.2009988 126.7740012 118.5094997  14.9989988
 127.1330012 119.5474997  13.9569988 127.1966852 118.7416132  14.2772158
 128.0510012 123.4964997  -0.0370012 128.0930012 123.2734997  -0.9670012
 128.9000012 123.8954997   0.1529988 128.1715396 123.5199155  -0.1386373
 123.6230012 117.3724997   0.6329988 123.3700012 117.3914997   1.5559988
 123.3670012 116.5004997   0.3319988 123.5537790 117.2572437   0.7186263
 119.3900012 120.1234997  11.0679988 118.7480012 120.0824997  11.7769988
 119.4270012 121.0494997  10.8309988 119.3071324 120.2431559  11.1329824
 119.3870012 120.3444997   5.9799988 118.4940012 120.0034997   5.9219988
 119.8370012 119.9674997   5.2249988 119.3257305 120.2468484   5.8699177
 124.9220012 120.7604997   4.7969988 124.5130012 121.5754997   4.5059988
 125.6430012 120.6204997   4.1829988 124.9634537 120.8532018   4.6741342
 124.0240012 120.9354997  16.2849988 123.4620012 120.2314997  16.6059988
 124.8510012 120.8154997  16.7529988 124.0587095 120.8227883  16.3922330
 125.9270012 120.2064997   7.6109988 125.7320012 120.8114997   6.8959988
 126.1080012 119.3724997   7.1769988 125.9247614 120.1766300   7.4544405
 117.1400012 120.4434997  12.9349988 117.1020012 120.8434997  13.8039988
 116.6490012 119.6264997  13.0259988 117.0684684 120.3878069  13.0661059
 120.5060012 117.8174997  -0.2660012 120.0750012 117.3724997   0.4639988
 119.7880012 118.1894997  -0.7780012 120.3499438 117.8068940  -0.2353201
 113.7480012 117.5594997   6.7859988 114.3790012 117.5304997   7.5049988
 114.1970012 117.1344997   6.0559988 113.8950774 117.4980492   6.7856553
 115.0220012 118.3054997   2.2099988 115.4960012 118.8964997   1.6249988
 114.3050012 118.8364997   2.5569988 114.9899341 118.4580867   2.1768836
 125.1910012 121.8444997  12.2829988 125.5140012 121.2134997  11.6399988
 124.7510012 121.3094997  12.9429988 125.1756895 121.6858441  12.2842850
 121.9680012 117.7714997   7.0669988 121.0570012 117.8284997   7.3549988
 122.4740012 117.7114997   7.8769988 121.9115413 117.7711985   7.2160622
 116.7970012 119.4004997   5.8929988 115.9070012 119.5004997   5.5529988
 117.0930012 118.5584997   5.5469988 116.7152823 119.3003545   5.7997213
 120.4500012 119.4004997   3.5499988 121.3810012 119.5294997   3.7279988
 120.2350012 120.0704997   2.8999988 120.5484247 119.5086565   3.4865747
 126.3730012 117.0064997  10.3309988 125.6970012 117.1374997  10.9949988
 125.8880012 116.8514997   9.5209988 126.2147145 117.0034905  10.3124517
 119.1240012 120.5954997   1.1169988 118.5810012 120.2154997   0.4249988
 119.9570012 120.7894997   0.6879988 119.1624399 120.5698124   0.9644526
 129.6610012 132.6784997  16.6079988 129.8610012 133.1024997  15.7729988
 130.3160012 133.0214997  17.2149988 129.7770051 132.7829648  16.5757836
 117.2590012 125.1524997  16.2159988 117.9910012 125.4064997  16.7769988
 116.4790012 125.3564997  16.7309988 117.2538232 125.2149177  16.3625760
 123.2880012 120.5594997   8.9539988 123.8530012 120.0124997   8.4069988
 123.1410012 120.0374997   9.7419988 123.3452918 120.4142024   8.9858454
 118.2900012 116.6954997   5.3719988 117.9730012 115.7934997   5.3369988
 119.0720012 116.6974997   4.8189988 118.3522284 116.5721628   5.2924783
 121.9150012 118.9474997  11.3679988 121.0790012 119.4014997  11.4779988
 122.4390012 119.2234997  12.1199988 121.8714414 119.0469376  11.4847136
 122.4590012 125.1604997   3.0519988 121.7140012 124.6534997   2.7299988
 122.3250012 125.2094997   3.9989988 122.3388776 125.0976940   3.1358647
 129.6090012 124.2934997  11.8389988 130.2510012 124.7504997  11.2949988
 128.7790012 124.4064997  11.3759988 129.5845963 124.3712704  11.7020177
 126.3570012 117.9744997   1.2519988 125.4180012 118.0864997   1.0999988
 126.6540012 118.8314997   1.5579988 126.2687666 118.1056443   1.2725768
 123.9780012 125.3444997  14.2889988 123.6330012 124.9634997  15.0959988
 123.7780012 126.2784997  14.3609988 123.9038061 125.4185228  14.4090961
 127.0750012 119.8414997   2.9119988 127.9670012 119.7044997   3.2309988
 127.1320012 120.6324997   2.3759988 127.2046285 119.9296660   2.8831691
 117.5840012 124.4554997   8.8219988 118.3290012 124.4534997   8.2209988
 117.6620012 123.6324997   9.3039988 117.6965518 124.3439315   8.8048929
 124.5850012 126.6194997   2.0779988 124.2890012 127.4454997   2.4589988
 123.8820012 125.9994997   2.2739988 124.4494914 126.6488199   2.1566443
 114.5920012 122.9164997  14.1369988 114.8150012 122.4984997  14.9689988
 113.9900012 122.3034997  13.7139988 114.5411759 122.7764668  14.1937022
 121.6080012 122.4334997  16.3499988 121.3120012 122.2674997  15.4549988
 122.5400012 122.2134997  16.3389988 121.6934166 122.3810640  16.2260536
 126.2290012 127.8064997  14.2399988 125.3280012 127.9894997  13.9719988
 126.2630012 128.0654997  15.1609988 126.1103041 127.8665512  14.3278197
 131.9600012 120.0514997   2.6069988 131.4060012 119.6554997   1.9349988
 132.0600012 120.9614997   2.3289988 131.8977059 120.1203586   2.4774401
 131.9230012 125.8514997  15.4439988 131.0720012 126.0894997  15.0769988
 132.5140012 125.8344997  14.6909988 131.8862487 125.8818258  15.2918893
 130.2550012 128.8374997   3.0719988 129.8820012 128.0114997   3.3809988
 130.5330012 128.6544997   2.1749988 130.2415630 128.6997303   2.9929626
 127.4160012 123.6454997  10.0929988 126.4870012 123.4134997  10.0659988
 127.8670012 122.8684997   9.7629988 127.3499216 123.5087238  10.0446917
 119.9590012 127.9734997   6.2259988 120.4860012 128.7464997   6.0259988
 119.0790012 128.1984997   5.9249988 119.9121773 128.1098005   6.1579010
 115.7140012 122.8354997   0.8129988 116.3300012 123.4624997   1.1929988
 114.8520012 123.1514997   1.0849988 115.6817698 122.9639430   0.9017183
 121.3860012 125.6364997   5.8029988 121.1450012 126.5614997   5.8439988
 120.6450012 125.1774997   6.1989988 121.2528409 125.7011421   5.8621377
 121.9010012 129.7854997  12.1179988 122.2630012 130.6404997  11.8839988
 122.4320012 129.4934997  12.8579988 122.0224473 129.8631060  12.1860855
 120.0690012 130.6584997   5.3479988 119.1190012 130.7634997   5.3989988
 120.4210012 131.4784997   5.6929988 119.9864203 130.7838314   5.4016650
 125.4450012 125.8844997  11.8179988 125.0190012 125.6574997  12.6449988
 126.0250012 125.1464997  11.6359988 125.4651868 125.7535299  11.9065830
 127.6480012 126.8134997   0.8919988 128.0010012 126.4334997   1.6969988
 126.6990012 126.7204997   0.9789988 127.5680441 126.7489596   1.0138559
 128.1030012 130.4364997  14.2879988 127.5020012 129.8814997  13.7919988
 128.3850012 131.1034997  13.6619988 128.0588519 130.4506841  14.1354952
 132.1510012 131.2934997   1.0929988 132.8950012 131.8794997   0.9529988
 131.4570012 131.8614997   1.4269988 132.1590292 131.4505582   1.1189961
 116.2260012 117.6694997  13.6949988 115.3330012 118.0084997  13.6269988
 116.1270012 116.8144997  14.1129988 116.0904164 117.6002588  13.7422235
 128.5140012 125.4864997   3.1189988 128.2360012 124.7584997   3.6749988
 129.4410012 125.6054997   3.3239988 128.6013124 125.4028802   3.2228845
 115.8770012 129.4744997  12.1299988 116.0940012 128.5424997  12.0989988
 116.1230012 129.7484997  13.0129988 115.9399549 129.3840636  12.2451763
 121.7390012 127.9254997  -0.6610012 121.9780012 127.1774997  -1.2080012
 121.4700012 127.5374997   0.1719988 121.7353675 127.7706638  -0.6233135
 120.6760012 127.4954997   1.7959988 120.8220012 126.9754997   2.5859988
 120.6730012 128.4024997   2.1019988 120.6955989 127.5468853   1.9456088
 117.1290012 124.7484997   2.3059988 116.4430012 125.1004997   2.8729988
 117.6510012 125.5114997   2.0589988 117.1056852 124.8998578   2.3502118
 124.9600012 117.4104997  12.5849988 125.6590012 117.4844997  13.2349988
 124.5790012 116.5464997  12.7389988 125.0041767 117.3037624  12.6948322
 125.7450012 117.0624997   3.6819988 125.9650012 117.5344997   2.8789988
 126.3030012 117.4574997   4.3519988 125.8504968 117.1804285   3.6627331
 123.4130012 129.1934997   2.5449988 122.5970012 129.6904997   2.5969988
 123.9430012 129.6684997   1.9049988 123.3729161 129.3257722   2.4655956
 122.9450012 118.7904997   4.5169988 123.7570012 119.2954997   4.5629988
 122.7000012 118.6454997   5.4309988 123.0230520 118.8400375   4.6468517
 123.4800012 119.7764997  13.7019988 123.5990012 120.3504997  14.4589988
 124.1360012 119.0884997  13.8159988 123.5849757 119.7621079  13.8210825
 123.8280012 115.8714997   5.4549988 123.4820012 116.4894997   6.0999988
 124.4870012 116.3724997   4.9739988 123.8697826 116.0235802   5.4780971
 120.7520012 130.2374997   2.5269988 120.9120012 131.0364997   2.0259988
 120.5540012 130.5434997   3.4119988 120.7471649 130.3884469   2.5779815
 119.4860012 116.9344997   2.1419988 119.4030012 117.8234997   2.4889988
 120.3760012 116.6694997   2.3739988 119.5949469 117.0201430   2.2207626
 129.6850012 117.6834997  14.5369988 128.7680012 117.9464997  14.4489988
 130.0200012 117.6804997  13.6399988 129.6049900 117.7190224  14.4037919
 128.2870012 121.4344997   8.6319988 127.4890012 121.0194997   8.3039988
 128.7320012 120.7434997   9.1229988 128.2379885 121.2843543   8.6534889
 117.7450012 127.3624997   1.2029988 118.3370012 128.0614997   1.4789988
 118.2040012 126.9294997   0.4829988 117.8881142 127.3997049   1.1434830
 116.0610012 120.0264997   0.3189988 116.0160012 120.9654997   0.4969988
 115.1730012 119.7904997   0.0489988 115.9348574 120.1231892   0.3068912
 129.3730012 130.6904997  10.2549988 129.2180012 131.3684997   9.5979988
 130.3060012 130.7624997  10.4579988 129.4778500 130.7930170  10.1925119
 116.8690012 114.8084997   8.9919988 116.6400012 114.8674997   8.0639988
 116.4260012 114.0164997   9.2979988 116.7778530 114.7095753   8.9064786
 115.7990012 128.7484997   5.1519988 114.9670012 129.2214997   5.1799988
 116.3450012 129.2584997   4.5539988 115.7589739 128.8821871   5.0749716
 115.0870012 131.3614997  16.4819988 115.6280012 131.1444997  17.2419988
 114.6060012 130.5554997  16.2929988 115.0959345 131.2229514  16.5603076
 119.6850012 130.2804997  18.1029988 120.4520012 129.8214997  18.4439988
 119.6630012 130.0544997  17.1729988 119.7871434 130.1870409  18.0240043
 123.7770012 129.7884997  -0.5220012 123.1330012 129.1574997  -0.2010012
 124.5390012 129.2574997  -0.7540012 123.7918077 129.6302920  -0.5093989
 126.2620012 128.6604997  16.8319988 125.9110012 127.8044997  17.0749988
 126.9880012 128.8034997  17.4389988 126.3120769 128.5625636  16.9473619
 128.3810012 129.6054997  -0.2880012 128.6640012 128.8114997   0.1639988
 129.1210012 129.8384997  -0.8490012 128.5197486 129.5282803  -0.3019302
 114.9940012 125.1714997  17.4369988 115.1380012 124.2694997  17.1499988
 114.2220012 125.4574997  16.9489988 114.9093322 125.0868261  17.3317881
 119.3360012 125.5154997  -0.4310012 119.4000012 124.7214997   0.0999988
 119.9890012 125.3964997  -1.1210012 119.4330241 125.3907148  -0.4515683
 121.6500012 125.1414997  16.8689988 121.3210012 125.4124997  16.0119988
 121.8020012 124.2004997  16.7819988 121.6254809 125.0513862  16.7398244
 124.6880012 126.5624997  -0.6950012 124.4190012 126.7424997   0.2059988
 124.4820012 125.6364997  -0.8260012 124.6233825 126.4620152  -0.5894786
 127.3840012 125.0574997  14.2529988 128.1300012 125.6454997  14.1329988
 126.6270012 125.6394997  14.3159988 127.3837554 125.2167011  14.2450907
 115.8270012 122.3714997  16.8569988 116.2350012 121.5144997  16.7359988
 115.5670012 122.3864997  17.7779988 115.8477568 122.2560807  16.9649588
 120.4850012 123.4874997   1.8749988 120.0250012 123.0034997   2.5609988
 120.7400012 122.8194997   1.2389988 120.4564902 123.3308731   1.8829334
 119.7740012 121.3804997  14.2309988 119.1560012 122.0554997  14.5109988
 120.1180012 121.7014997  13.3979988 119.7359615 121.5162721  14.1566581
 121.5560012 121.7304997   0.1369988 121.3760012 121.5764997  -0.7900012
 122.5060012 121.8384997   0.1819988 121.6597776 121.7240175   0.0161843
 124.7940012 123.8524997  17.5079988 125.7470012 123.9354997  17.4809988
 124.6330012 123.1404997  18.1279988 124.9026426 123.7676746  17.5880579
 130.9460012 124.0854997  -0.4170012 130.6720012 123.6604997  -1.2300012
 130.9850012 125.0164997  -0.6340012 130.9137699 124.1532484  -0.5576390
 120.1130012 118.7354997  15.3129988 120.2630012 118.0064997  14.7109988
 120.1160012 119.5124997  14.7539988 120.1339302 118.7407851  15.1550692
 120.5260012 117.1054997  12.8059988 121.0620012 117.5564997  12.1539988
 119.6740012 116.9974997  12.3829988 120.4842178 117.1526390  12.6595756
 122.1080012 122.5444997  13.0449988 122.8580012 122.3884997  12.4719988
 121.7690012 123.3964997  12.7699988 122.1648921 122.6382968  12.9293561
 126.5230012 120.3594997  18.0739988 126.7160012 119.4284997  17.9619988
 127.3810012 120.7844997  18.0639988 126.6653020 120.2896389  18.0573361
 127.8400012 123.1484997  16.1509988 127.5590012 123.8574997  15.5739988
 128.7830012 123.0754997  15.9999988 127.9289027 123.2357646  16.0515551
 118.5920012 119.9334997  17.2249988 117.8250012 119.4014997  17.0149988
 119.2710012 119.6234997  16.6249988 118.5787022 119.8187506  17.1151648
 121.3320012 114.5614997  13.2369988 121.2330012 115.5084997  13.1319988
 120.5890012 114.1894997  12.7619988 121.2180564 114.6405902  13.1584560
 122.5960012 118.8834997  16.8009988 122.3600012 118.6634997  17.7029988
 121.8120012 118.6764997  16.2909988 122.4578628 118.8254760  16.8553932
 125.3110012 118.0104997  15.8769988 124.3640012 118.0424997  16.0089988
 125.6240012 117.3854997  16.5299988 125.2235475 117.9303207  15.9834455
 126.9450012 116.6444997  17.8819988 126.8490012 115.6924997  17.8759988
 126.6240012 116.9134997  18.7419988 126.8884070 116.5504035  17.9975441
 116.7720012 117.8544997  16.9289988 116.9840012 117.1474997  16.3189988
 116.6610012 117.4164997  17.7729988 116.7859721 117.6987084  16.9596843
 121.5530012 113.8554997  15.9089988 122.2650012 113.2154997  15.8949988
 121.4520012 114.1224997  14.9949988 121.6367939 113.8039938  15.7835650
 121.9070012 115.5384997  17.9619988 121.7750012 115.0624997  17.1419988
 121.3080012 116.2824997  17.9069988 121.8079071 115.5739618  17.8422886
 121.4530012 132.4214997   1.1389988 122.3860012 132.5794997   1.2819988
 121.1890012 133.0964997   0.5139988 121.5449510 132.5343611   1.0740741
 115.0220012 127.0574997   0.6209988 115.9360012 127.1364997   0.8949988
 115.0290012 126.3704997  -0.0450012 115.1481131 126.9753961   0.5684393
 113.6710012 132.4504997   5.6989988 113.0240012 131.9884997   5.1659988
 114.0250012 131.7784997   6.2809988 113.6303849 132.2964723   5.7047959
 114.5410012 130.5314997   7.5029988 114.2060012 129.6514997   7.6749988
 114.7630012 130.8764997   8.3679988 114.5251783 130.4577500   7.6434208
 132.0890012 131.3404997  10.4839988 132.0680012 131.5254997  11.4229988
 132.7800012 131.9094997  10.1429988 132.1794618 131.4426606  10.5663864
 131.6530012 130.9084997  13.4059988 131.1650012 130.1724997  13.0349988
 132.2020012 130.5144997  14.0839988 131.6604872 130.7546249  13.4469160
 130.1030012 126.6974997  18.0439988 129.2370012 126.5924997  18.4379988
 130.4800012 127.4564997  18.4899988 130.0353308 126.7856900  18.1582393
 131.4040012 124.9544997   3.5579988 132.2540012 125.3754997   3.6849988
 131.4100012 124.2144997   4.1649988 131.5211372 124.9120803   3.6574344
 131.7990012 123.0074997   5.3819988 131.0720012 122.5284997   5.7789988
 132.3800012 123.2134997   6.1139988 131.7779375 122.9697090   5.5354129
 131.5580012 125.7924997  10.3289988 132.3910012 125.4144997  10.0489988
 131.6700012 126.7354997  10.2099988 131.6872647 125.8682218  10.2745487
 130.0440012 128.6704997  12.6359988 129.3970012 128.9954997  13.2619988
 129.5270012 128.2304997  11.9619988 129.8854029 128.6555004  12.6305827
 132.0670012 122.9084997   1.7729988 131.5450012 123.2654997   1.0539988
 132.0340012 123.5834997   2.4509988 131.9911634 123.0485413   1.7663145
 130.4160012 120.1484997   0.3239988 130.5120012 120.8154997  -0.3570012
 130.2760012 119.3324997  -0.1580012 130.4102135 120.1294500   0.1658491
 129.5850012 121.5284997   5.9449988 129.4350012 120.5834997   5.9239988
 129.2320012 121.8094997   6.7879988 129.5166625 121.4370441   6.0562346
 114.6210012 123.6064997   9.9549988 114.8050012 123.5244997   9.0189988
 115.4700012 123.4824997  10.3789988 114.7610139 123.5785003   9.8841455
 130.4420012 123.4984997  15.5829988 131.0250012 122.7644997  15.7749988
 131.0060012 124.2704997  15.6299988 130.5979769 123.5024227  15.6156159
 131.9380012 121.4014997  16.2679988 131.0750012 121.0224997  16.1019988
 132.5430012 120.6624997  16.1939988 131.9015979 121.2498023  16.2352817
 129.6630012 117.5564997  -0.5590012 130.2740012 117.1854997   0.0779988
 128.8270012 117.1354997  -0.3630012 129.6335032 117.4487554  -0.4452965
 129.2960012 119.1114997   4.4069988 129.5760012 118.2044997   4.5309988
 130.0550012 119.5454997   4.0179988 129.4369277 119.0460942   4.3713682
 129.9080012 119.6924997   9.8429988 130.8410012 119.9044997   9.8089988
 129.6730012 119.7944997  10.7649988 130.0038036 119.7352769   9.9629976
 129.9370012 120.4294997  12.6189988 129.0940012 120.6974997  12.9849988
 130.3790012 121.2514997  12.4079988 129.8814158 120.5773291  12.6405491
 114.2180012 118.8774997  16.0959988 115.1380012 118.7554997  16.3319988
 113.7690012 118.1274997  16.4849988 114.2831580 118.7593727  16.1809006
 132.2200012 114.4094997  17.9719988 132.5700012 113.7554997  17.3669988
 132.3670012 115.2464997  17.5329988 132.2878419 114.4331591  17.8297118
 129.9090012 116.3744997   4.4549988 130.0920012 115.9254997   5.2809988
 129.3100012 115.7894997   3.9919988 129.8530202 116.2339975   4.5053275
 115.4390012 117.1894997   8.9869988 115.8850012 116.3974997   9.2889988
 115.9060012 117.9054997   9.4179988 115.5630172 117.1780624   9.0864820
 113.7430012 120.1884997  10.0559988 114.2350012 119.9674997   9.2649988
 114.1060012 121.0294997  10.3369988 113.8593126 120.2718357   9.9857531
 131.7400012 116.5184997  16.3219988 130.8220012 116.7894997  16.2859988
 131.8630012 115.9834997  15.5369988 131.6311066 116.4832892  16.2110487
 131.7760012 116.4414997   0.9829988 132.1880012 115.7204997   0.5079988
 132.4580012 117.1114997   1.0419988 131.9245885 116.4332368   0.9258915
 114.0570012 116.4464997   4.1099988 113.1320012 116.6554997   3.9809988
 114.5110012 116.9304997   3.4209988 113.9917368 116.5405993   3.9991226
 128.8280012 131.4304997   6.0559988 129.4800012 131.0834997   5.4479988
 129.3380012 131.9194997   6.7019988 128.9862637 131.4490597   6.0600236
 114.0210012 115.1844997  12.4549988 113.3560012 114.9384997  13.0979988
 113.5780012 115.8064997  11.8769988 113.8700956 115.2348632  12.4649352
 116.2130012 128.3594997  16.5989988 115.3920012 128.5344997  16.1389988
 115.9600012 128.2864997  17.5199988 116.0666164 128.3735622  16.6604923
 119.1670012 129.3344997  12.8579988 118.7420012 130.1434997  12.5749988
 120.0710012 129.4194997  12.5559988 119.2310271 129.4568469  12.7783776
 123.4780012 130.7334997  15.8169988 123.6630012 130.3994997  16.6949988
 124.3240012 131.0424997  15.4949988 123.6177539 130.7296047  15.8935605
 125.8230012 132.0194997  15.0609988 126.5000012 131.3864997  14.8209988
 126.1450012 132.4204997  15.8679988 125.9591637 131.9871154  15.1372793
 130.7400012 114.6084997  14.1409988 129.9280012 114.9334997  13.7529988
 130.9730012 113.8484997  13.6079988 130.6603423 114.5502436  14.0158253
 116.5690012 132.5904997  12.9049988 115.8480012 133.0304997  12.4539988
 116.2030012 132.3394997  13.7539988 116.4209804 132.6167698  12.9579840
 119.0360012 132.1904997  11.9349988 118.1710012 132.2624997  12.3389988
 118.9810012 132.7374997  11.1509988 118.9102085 132.2742685  11.8843362
 123.7460012 132.0784997  11.1099988 123.2900012 132.6074997  10.4559988
 123.9090012 132.6814997  11.8359988 123.7055585 132.2324468  11.1185062
 126.0740012 130.9564997  12.0549988 125.1690012 131.1214997  11.7899988
 126.5030012 131.8094997  11.9899988 126.0080799 131.0944483  12.0099182
 128.6780012 132.5264997  12.3499988 128.4960012 133.4424997  12.1399988
 128.8550012 132.1164997  11.5039988 128.6770210 132.5964822  12.2067885
 115.9830012 131.2134997   9.8149988 115.9650012 130.7884997  10.6729988
 116.7880012 130.8954997   9.4069988 116.0893875 131.1123812   9.8771655
 118.1250012 129.9234997   8.4699988 117.9060012 129.0074997   8.6399988
 118.9490012 130.0634997   8.9359988 118.2064420 129.8170520   8.5562774
 120.6620012 130.3934997   9.3189988 120.8750012 129.5054997   9.0319988
 120.7260012 130.3594997  10.2729988 120.6998232 130.2673102   9.4087397
 124.1700012 116.0574997   8.4629988 123.4960012 115.4284997   8.7189988
 124.7340012 115.5734997   7.8599988 124.1539230 115.9058744   8.4165340
 129.3130012 114.1654997   8.5759988 129.9170012 114.7124997   8.0739988
 128.4430012 114.4844997   8.3359988 129.2781241 114.2835806   8.4747654
 131.0400012 115.3034997   6.9089988 131.6520012 114.7894997   6.3829988
 131.4220012 116.1814997   6.9329988 131.1754540 115.3517140   6.8401830
 116.4970012 114.6914997   6.2849988 115.7200012 114.4574997   5.7779988
 117.0270012 113.8944997   6.2939988 116.4622330 114.5516988   6.2167742
 115.3330012 114.4894997   2.0889988 115.7720012 115.1004997   1.4969988
 114.7000012 115.0274997   2.5629988 115.3074514 114.6459257   2.0720930
 121.0760012 114.6184997   6.0989988 121.9510012 115.0064997   6.0689988
 120.9400012 114.4034997   7.0209988 121.1773695 114.6425184   6.2196440
 126.6330012 114.6484997   7.7479988 126.7090012 114.7434997   6.7979988
 126.3580012 113.7404997   7.8769988 126.6062321 114.5387867   7.6355079
 127.9860012 114.6744997   3.4399988 127.2840012 115.2894997   3.2309988
 127.5420012 113.8364997   3.5709988 127.8296330 114.6455783   3.4290328
 115.2340012 130.4374997   2.9869988 114.5490012 130.3994997   2.3189988
 115.2380012 131.3504997   3.2749988 115.1408193 130.5557016   2.9345284
 117.1940012 116.4054997   0.5309988 117.6860012 115.7754997   0.0039988
 117.8180012 116.7014997   1.1949988 117.3455446 116.3593199   0.5485980
 122.2200012 116.6984997   2.9879988 122.3980012 116.0524997   3.6709988
 122.1670012 117.5324997   3.4559988 122.2371829 116.7227985   3.1445940
 124.0990012 131.6474997   1.3839988 124.9650012 132.0134997   1.2059988
 123.8520012 131.2074997   0.5699988 124.1842392 131.6381756   1.2496289
 130.8080012 131.2104997   4.0629988 130.6130012 130.4624997   3.4979988
 130.7690012 131.9684997   3.4799988 130.7760380 131.2106099   3.9068384
 116.4550012 115.2054997  15.8029988 116.0890012 114.4404997  16.2459988
 117.3680012 115.2344997  16.0899988 116.5282790 115.1047224  15.9024070
 118.4280012 114.5564997  17.3389988 119.3260012 114.2824997  17.1539988
 118.0410012 113.8134997  17.8029988 118.4986612 114.4185914  17.3763643
 117.0520012 131.3574997   0.0119988 116.7850012 131.6444997   0.8849988
 117.8240012 130.8114997   0.1639988 117.1197488 131.3230294   0.1521050
 126.8490012 113.8884997  17.5209988 126.9260012 113.4624997  18.3749988
 127.7430012 113.9024997  17.1779988 126.9803428 113.8320879  17.5915310
 130.0250012 129.9614997  16.2129988 129.2430012 129.7754997  15.6939988
 129.9530012 130.8904997  16.4309988 129.9081777 130.0616492  16.1714048
 144.4310012 123.8474997   6.2439988 144.5200012 124.7914997   6.1119988
 143.7930012 123.5724997   5.5859988 144.3569081 123.9394830   6.1369614
 143.3640012 123.1024997   9.6629988 143.3260012 122.4564997  10.3679988
 143.0420012 122.6364997   8.8919988 143.3152333 122.9509408   9.6552978
 135.7330012 122.7174997  11.2559988 135.7740012 122.0914997  11.9789988
 136.4360012 123.3414997  11.4379988 135.8336363 122.7161196  11.3796044
 136.6560012 127.1674997   9.7909988 136.2870012 126.3654997   9.4209988
 137.5970012 126.9984997   9.8369988 136.7327289 127.0350153   9.7466316
 133.2660012 120.8274997   5.1839988 132.8190012 121.6734997   5.1649988
 132.7050012 120.2474997   4.6679988 133.1289900 120.8649916   5.1116801
 133.9770012 122.9894997   7.3099988 134.1900012 122.2194997   7.8369988
 134.7150012 123.0784997   6.7059988 134.1058496 122.8961394   7.3005300
 144.1820012 131.1464997   8.1769988 144.8020012 130.4694997   7.9029988
 143.9740012 130.9284997   9.0849988 144.2386904 131.0243870   8.2623365
 141.7540012 125.5354997  10.0689988 142.0580012 124.8494997   9.4739988
 142.4750012 125.6534997  10.6869988 141.8930671 125.4576305  10.0711816
 144.8950012 119.9294997  10.3969988 145.0370012 118.9834997  10.4169988
 144.7880012 120.1364997   9.4679988 144.8999863 119.8279534  10.2742339
 138.0490012 118.0304997   7.6689988 138.0930012 118.8904997   7.2509988
 137.5920012 117.4784997   7.0349988 137.9932185 118.0735799   7.5260299
 134.6700012 120.4274997   8.4309988 135.3230012 119.8774997   8.8629988
 134.6940012 120.1534997   7.5139988 134.7626683 120.3151466   8.3662123
 139.8260012 121.9774997   7.6459988 140.4420012 121.4514997   8.1559988
 139.2400012 121.3374997   7.2429988 139.8310810 121.8189208   7.6613173
 136.8600012 116.9484997  11.7429988 136.6410012 117.4784997  10.9769988
 136.1920012 117.1754997  12.3899988 136.7397600 117.0516906  11.7256379
 144.2290012 126.4484997   5.2869988 143.9330012 126.1264997   4.4359988
 143.9040012 127.3484997   5.3279988 144.1446371 126.5260215   5.1761801
 139.4290012 124.6244997  12.0299988 138.6890012 125.2224997  12.1339988
 140.1430012 125.1784997  11.7149988 139.4242237 124.7812831  12.0016465
 136.4530012 118.8404997   9.6949988 137.0670012 119.4734997  10.0689988
 136.9650012 118.3684997   9.0389988 136.6062296 118.8632370   9.6574252
 137.8360012 126.5884997  12.8179988 137.8310012 127.4684997  12.4399988
 136.9830012 126.5054997  13.2429988 137.7199464 126.6976117  12.8237907
 133.9570012 126.2594997   3.5999988 133.6850012 126.4884997   2.7109988
 134.0030012 127.0974997   4.0599988 133.9260094 126.4041213   3.5405697
 140.8860012 114.2544997   9.1959988 140.7690012 113.3054997   9.1409988
 140.0310012 114.5864997   9.4689988 140.7543733 114.1695409   9.2253897
 143.1530012 123.0914997   3.6959988 142.4410012 123.6264997   3.3439988
 143.8440012 123.1474997   3.0359988 143.1490132 123.1722543   3.5586289
 143.2060012 121.5494997   0.7349988 143.9070012 121.5714997   1.3859988
 143.5090012 120.9214997   0.0789988 143.3427830 121.4676566   0.7353711
 138.2040012 123.9314997   6.5299988 137.8730012 123.5614997   5.7119988
 138.7920012 123.2614997   6.8769988 138.2381873 123.7901156   6.4648102
 139.5700012 127.3594997   9.2119988 139.4760012 126.7814997   8.4549988
 140.3000012 126.9884997   9.7079988 139.6557981 127.2302390   9.1754165
 138.5700012 122.7004997  10.1639988 139.1360012 122.8214997   9.4009988
 138.8890012 123.3374997  10.8029988 138.6905786 122.8031884  10.1460040
 144.8790012 128.2034997  10.8979988 144.6390012 128.8654997  11.5459988
 144.6810012 127.3694997  11.3229988 144.8193808 128.1813134  11.0441524
 139.4500012 127.0994997  14.8809988 139.1390012 127.8814997  15.3359988
 138.8000012 126.9464997  14.1949988 139.3195558 127.1859105  14.8505871
 136.3700012 123.2974997  14.1099988 136.4410012 123.9484997  14.8079988
 135.4800012 123.4004997  13.7749988 136.2593117 123.4005936  14.1602700
 143.1560012 129.2004997   5.7679988 143.6300012 129.4954997   6.5459988
 142.5930012 129.9384997   5.5349988 143.1447653 129.3406932   5.8430136
 137.6900012 129.1714997  15.6439988 137.6970012 129.0354997  14.6969988
 136.7740012 129.0534997  15.8959988 137.5671714 129.1369430  15.5484666
 137.1940012 123.0014997   4.1199988 136.9020012 123.7694997   3.6289988
 136.5200012 122.3414997   3.9569988 137.0629081 123.0174406   4.0307340
 133.2870012 125.3644997  12.9349988 132.7860012 125.3364997  12.1199988
 133.2920012 124.4584997  13.2439988 133.2191526 125.2382278  12.8652872
 133.0370012 128.1444997   9.8189988 133.9830012 128.0004997   9.7999988
 132.9250012 128.9284997  10.3559988 133.1512727 128.2308046   9.8890072
 142.2140012 128.3844997  14.3769988 142.3010012 129.2104997  14.8519988
 141.3500012 128.0544997  14.6259988 142.1091964 128.4529878  14.4756549
 142.6280012 132.1564997   4.1829988 142.5530012 132.0354997   3.2369988
 142.6610012 133.1064997   4.3019988 142.6221848 132.2682500   4.0694834
 136.2810012 130.9454997   5.9639988 136.4340012 130.5974997   6.8429988
 135.4310012 130.5894997   5.7089988 136.1868962 130.8496650   6.0498340
 135.5360012 126.6874997  13.9779988 135.7520012 126.3264997  14.8369988
 134.6810012 126.3134997  13.7679988 135.4499292 126.5874111  14.0673386
 138.1550012 115.1574997   9.9729988 137.2930012 115.0704997   9.5659988
 138.1320012 116.0134997  10.4009988 138.0340330 115.2612765   9.9751863
 142.8180012 114.8794997  13.3479988 143.2380012 114.4644997  14.1009988
 141.8850012 114.7014997  13.4649988 142.7493644 114.7985900  13.4669539
 142.4790012 117.3724997   0.6329988 142.2260012 117.3914997   1.5559988
 142.2230012 116.5004997   0.3319988 142.4097790 117.2572437   0.7186263
 138.2460012 120.1234997  11.0679988 137.6040012 120.0824997  11.7769988
 138.2830012 121.0494997  10.8309988 138.1631324 120.2431559  11.1329824
 138.2430012 120.3444997   5.9799988 137.3500012 120.0034997   5.9219988
 138.6930012 119.9674997   5.2249988 138.1817305 120.2468484   5.8699177
 143.7780012 120.7604997   4.7969988 143.3690012 121.5754997   4.5059988
 144.4990012 120.6204997   4.1829988 143.8194537 120.8532018   4.6741342
 142.8800012 120.9354997  16.2849988 142.3180012 120.2314997  16.6059988
 143.7070012 120.8154997  16.7529988 142.9147095 120.8227883  16.3922330
 144.7830012 120.2064997   7.6109988 144.5880012 120.8114997   6.8959988
 144.9640012 119.3724997   7.1769988 144.7807614 120.1766300   7.4544405
 135.9960012 120.4434997  12.9349988 135.9580012 120.8434997  13.8039988
 135.5050012 119.6264997  13.0259988 135.9244684 120.3878069  13.0661059
 139.3620012 117.8174997  -0.2660012 138.9310012 117.3724997   0.4639988
 138.6440012 118.1894997  -0.7780012 139.2059438 117.8068940  -0.2353201
 132.6040012 117.5594997   6.7859988 133.2350012 117.5304997   7.5049988
 133.0530012 117.1344997   6.0559988 132.7510774 117.4980492   6.7856553
 133.8780012 118.3054997   2.2099988 134.3520012 118.8964997   1.6249988
 133.1610012 118.8364997   2.5569988 133.8459341 118.4580867   2.1768836
 144.0470012 121.8444997  12.2829988 144.3700012 121.2134997  11.6399988
 143.6070012 121.3094997  12.9429988 144.0316895 121.6858441  12.2842850
 140.8240012 117.7714997   7.0669988 139.9130012 117.8284997   7.3549988
 141.3300012 117.7114997   7.8769988 140.7675413 117.7711985   7.2160622
 135.6530012 119.4004997   5.8929988 134.7630012 119.5004997   5.5529988
 135.9490012 118.5584997   5.5469988 135.5712823 119.3003546   5.7997213
 139.3060012 119.4004997   3.5499988 140.2370012 119.5294997   3.7279988
 139.0910012 120.0704997   2.8999988 139.4044247 119.5086565   3.4865747
 137.9800012 120.5954997   1.1169988 137.4370012 120.2154997   0.4249988
 138.8130012 120.7894997   0.6879988 138.0184399 120.5698124   0.9644526
 136.1150012 125.1524997  16.2159988 136.8470012 125.4064997  16.7769988
 135.3350012 125.3564997  16.7309988 136.1098232 125.2149177  16.3625760
 142.1440012 120.5594997   8.9539988 142.7090012 120.0124997   8.4069988
 141.9970012 120.0374997   9.7419988 142.2012918 120.4142024   8.9858454
 137.1460012 116.6954997   5.3719988 136.8290012 115.7934997   5.3369988
 137.9280012 116.6974997   4.8189988 137.2082284 116.5721628   5.2924783
 140.7710012 118.9474997  11.3679988 139.9350012 119.4014997  11.4779988
 141.2950012 119.2234997  12.1199988 140.7274414 119.0469376  11.4847136
 141.3150012 125.1604997   3.0519988 140.5700012 124.6534997   2.7299988
 141.1810012 125.2094997   3.9989988 141.1948776 125.0976940   3.1358647
 142.8340012 125.3444997  14.2889988 142.4890012 124.9634997  15.0959988
 142.6340012 126.2784997  14.3609988 142.7598061 125.4185228  14.4090961
 136.4400012 124.4554997   8.8219988 137.1850012 124.4534997   8.2209988
 136.5180012 123.6324997   9.3039988 136.5525518 124.3439315   8.8048929
 143.4410012 126.6194997   2.0779988 143.1450012 127.4454997   2.4589988
 142.7380012 125.9994997   2.2739988 143.3054914 126.6488199   2.1566443
 133.4480012 122.9164997  14.1369988 133.6710012 122.4984997  14.9689988
 132.8460012 122.3034997  13.7139988 133.3971759 122.7764668  14.1937022
 140.4640012 122.4334997  16.3499988 140.1680012 122.2674997  15.4549988
 141.3960012 122.2134997  16.3389988 140.5494166 122.3810640  16.2260536
 138.8150012 127.9734997   6.2259988 139.3420012 128.7464997   6.0259988
 137.9350012 128.1984997   5.9249988 138.7681773 128.1098005   6.1579010
 134.5700012 122.8354997   0.8129988 135.1860012 123.4624997   1.1929988
 133.7080012 123.1514997   1.0849988 134.5377698 122.9639430   0.9017183
 140.2420012 125.6364997   5.8029988 140.0010012 126.5614997   5.8439988
 139.5010012 125.1774997   6.1989988 140.1088409 125.7011421   5.8621377
 140.7570012 129.7854997  12.1179988 141.1190012 130.6404997  11.8839988
 141.2880012 129.4934997  12.8579988 140.8784473 129.8631060  12.1860855
 138.9250012 130.6584997   5.3479988 137.9750012 130.7634997   5.3989988
 139.2770012 131.4784997   5.6929988 138.8424203 130.7838314   5.4016650
 144.3010012 125.8844997  11.8179988 143.8750012 125.6574997  12.6449988
 144.8810012 125.1464997  11.6359988 144.3211868 125.7535299  11.9065830
 135.0820012 117.6694997  13.6949988 134.1890012 118.0084997  13.6269988
 134.9830012 116.8144997  14.1129988 134.9464164 117.6002588  13.7422235
 134.7330012 129.4744997  12.1299988 134.9500012 128.5424997  12.0989988
 134.9790012 129.7484997  13.0129988 134.7959549 129.3840636  12.2451763
 140.5950012 127.9254997  -0.6610012 140.8340012 127.1774997  -1.2080012
 140.3260012 127.5374997   0.1719988 140.5913675 127.7706638  -0.6233135
 139.5320012 127.4954997   1.7959988 139.6780012 126.9754997   2.5859988
 139.5290012 128.4024997   2.1019988 139.5515989 127.5468853   1.9456088
 135.9850012 124.7484997   2.3059988 135.2990012 125.1004997   2.8729988
 136.5070012 125.5114997   2.0589988 135.9616852 124.8998578   2.3502118
 143.8160012 117.4104997  12.5849988 144.5150012 117.4844997  13.2349988
 143.4350012 116.5464997  12.7389988 143.8601767 117.3037624  12.6948322
 144.6010012 117.0624997   3.6819988 144.8210012 117.5344997   2.8789988
 145.1590012 117.4574997   4.3519988 144.7064968 117.1804285   3.6627331
 142.2690012 129.1934997   2.5449988 141.4530012 129.6904997   2.5969988
 142.7990012 129.6684997   1.9049988 142.2289161 129.3257722   2.4655956
 141.8010012 118.7904997   4.5169988 142.6130012 119.2954997   4.5629988
 141.5560012 118.6454997   5.4309988 141.8790520 118.8400375   4.6468517
 142.3360012 119.7764997  13.7019988 142.4550012 120.3504997  14.4589988
 142.9920012 119.0884997  13.8159988 142.4409757 119.7621079  13.8210825
 142.6840012 115.8714997   5.4549988 142.3380012 116.4894997   6.0999988
 143.3430012 116.3724997   4.9739988 142.7257826 116.0235802   5.4780971
 139.6080012 130.2374997   2.5269988 139.7680012 131.0364997   2.0259988
 139.4100012 130.5434997   3.4119988 139.6031649 130.3884469   2.5779815
 138.3420012 116.9344997   2.1419988 138.2590012 117.8234997   2.4889988
 139.2320012 116.6694997   2.3739988 138.4509469 117.0201430   2.2207626
 136.6010012 127.3624997   1.2029988 137.1930012 128.0614997   1.4789988
 137.0600012 126.9294997   0.4829988 136.7441142 127.3997049   1.1434830
 134.9170012 120.0264997   0.3189988 134.8720012 120.9654997   0.4969988
 134.0290012 119.7904997   0.0489988 134.7908574 120.1231892   0.3068912
 135.7250012 114.8084997   8.9919988 135.4960012 114.8674997   8.0639988
 135.2820012 114.0164997   9.2979988 135.6338530 114.7095753   8.9064786
 134.6550012 128.7484997   5.1519988 133.8230012 129.2214997   5.1799988
 135.2010012 129.2584997   4.5539988 134.6149739 128.8821871   5.0749716
 133.9430012 131.3614997  16.4819988 134.4840012 131.1444997  17.2419988
 133.4620012 130.5554997  16.2929988 133.9519345 131.2229514  16.5603076
 138.5410012 130.2804997  18.1029988 139.3080012 129.8214997  18.4439988
 138.5190012 130.0544997  17.1729988 138.6431434 130.1870409  18.0240043
 142.6330012 129.7884997  -0.5220012 141.9890012 129.1574997  -0.2010012
 143.3950012 129.2574997  -0.7540012 142.6478077 129.6302920  -0.5093989
 133.8500012 125.1714997  17.4369988 133.9940012 124.2694997  17.1499988
 133.0780012 125.4574997  16.9489988 133.7653322 125.0868261  17.3317881
 138.1920012 125.5154997  -0.4310012 138.2560012 124.7214997   0.0999988
 138.8450012 125.3964997  -1.1210012 138.2890241 125.3907148  -0.4515683
 140.5060012 125.1414997  16.8689988 140.1770012 125.4124997  16.0119988
 140.6580012 124.2004997  16.7819988 140.4814809 125.0513862  16.7398244
 143.5440012 126.5624997  -0.6950012 143.2750012 126.7424997   0.2059988
 143.3380012 125.6364997  -0.8260012 143.4793825 126.4620152  -0.5894786
 134.6830012 122.3714997  16.8569988 135.0910012 121.5144997  16.7359988
 134.4230012 122.3864997  17.7779988 134.7037568 122.2560807  16.9649588
 139.3410012 123.4874997   1.8749988 138.8810012 123.0034997   2.5609988
 139.5960012 122.8194997   1.2389988 139.3124902 123.3308731   1.8829334
 138.6300012 121.3804997  14.2309988 138.0120012 122.0554997  14.5109988
 138.9740012 121.7014997  13.3979988 138.5919615 121.5162721  14.1566581
 140.4120012 121.7304997   0.1369988 140.2320012 121.5764997  -0.7900012
 141.3620012 121.8384997   0.1819988 140.5157776 121.7240175   0.0161843
 143.6500012 123.8524997  17.5079988 144.6030012 123.9354997  17.4809988
 143.4890012 123.1404997  18.1279988 143.7586426 123.7676746  17.5880579
 138.9690012 118.7354997  15.3129988 139.1190012 118.0064997  14.7109988
 138.9720012 119.5124997  14.7539988 138.9899302 118.7407851  15.1550692
 139.3820012 117.1054997  12.8059988 139.9180012 117.5564997  12.1539988
 138.5300012 116.9974997  12.3829988 139.3402178 117.1526390  12.6595756
 140.9640012 122.5444997  13.0449988 141.7140012 122.3884997  12.4719988
 140.6250012 123.3964997  12.7699988 141.0208921 122.6382968  12.9293561
 137.4480012 119.9334997  17.2249988 136.6810012 119.4014997  17.0149988
 138.1270012 119.6234997  16.6249988 137.4347022 119.8187506  17.1151648
 140.1880012 114.5614997  13.2369988 140.0890012 115.5084997  13.1319988
 139.4450012 114.1894997  12.7619988 140.0740564 114.6405902  13.1584560
 141.4520012 118.8834997  16.8009988 141.2160012 118.6634997  17.7029988
 140.6680012 118.6764997  16.2909988 141.3138628 118.8254760  16.8553932
 144.1670012 118.0104997  15.8769988 143.2200012 118.0424997  16.0089988
 144.4800012 117.3854997  16.5299988 144.0795475 117.9303207  15.9834455
 135.6280012 117.8544997  16.9289988 135.8400012 117.1474997  16.3189988
 135.5170012 117.4164997  17.7729988 135.6419721 117.6987084  16.9596843
 140.4090012 113.8554997  15.9089988 141.1210012 113.2154997  15.8949988
 140.3080012 114.1224997  14.9949988 140.4927939 113.8039938  15.7835650
 140.7630012 115.5384997  17.9619988 140.6310012 115.0624997  17.1419988
 140.1640012 116.2824997  17.9069988 140.6639071 115.5739618  17.8422886
 140.3090012 132.4214997   1.1389988 141.2420012 132.5794997   1.2819988
 140.0450012 133.0964997   0.5139988 140.4009510 132.5343611   1.0740741
 133.8780012 127.0574997   0.6209988 134.7920012 127.1364997   0.8949988
 133.8850012 126.3704997  -0.0450012 134.0041131 126.9753961   0.5684393
 132.5270012 132.4504997   5.6989988 131.8800012 131.9884997   5.1659988
 132.8810012 131.7784997   6.2809988 132.4863849 132.2964723   5.7047959
 133.3970012 130.5314997   7.5029988 133.0620012 129.6514997   7.6749988
 133.6190012 130.8764997   8.3679988 133.3811783 130.4577500   7.6434208
 133.4770012 123.6064997   9.9549988 133.6610012 123.5244997   9.0189988
 134.3260012 123.4824997  10.3789988 133.6170139 123.5785003   9.8841455
 133.0740012 118.8774997  16.0959988 133.9940012 118.7554997  16.3319988
 132.6250012 118.1274997  16.4849988 133.1391580 118.7593727  16.1809006
 134.2950012 117.1894997   8.9869988 134.7410012 116.3974997   9.2889988
 134.7620012 117.9054997   9.4179988 134.4190172 117.1780624   9.0864820
 132.5990012 120.1884997  10.0559988 133.0910012 119.9674997   9.2649988
 132.9620012 121.0294997  10.3369988 132.7153126 120.2718357   9.9857531
 132.9130012 116.4464997   4.1099988 131.9880012 116.6554997   3.9809988
 133.3670012 116.9304997   3.4209988 132.8477368 116.5405993   3.9991226
 132.8770012 115.1844997  12.4549988 132.2120012 114.9384997  13.0979988
 132.4340012 115.8064997  11.8769988 132.7260956 115.2348632  12.4649352
 135.0690012 128.3594997  16.5989988 134.2480012 128.5344997  16.1389988
 134.8160012 128.2864997  17.5199988 134.9226164 128.3735622  16.6604923
 138.0230012 129.3344997  12.8579988 137.5980012 130.1434997  12.5749988
 138.9270012 129.4194997  12.5559988 138.0870271 129.4568469  12.7783776
 142.3340012 130.7334997  15.8169988 142.5190012 130.3994997  16.6949988
 143.1800012 131.0424997  15.4949988 142.4737539 130.7296047  15.8935605
 144.6790012 132.0194997  15.0609988 145.3560012 131.3864997  14.8209988
 145.0010012 132.4204997  15.8679988 144.8151637 131.9871154  15.1372793
 135.4250012 132.5904997  12.9049988 134.7040012 133.0304997  12.4539988
 135.0590012 132.3394997  13.7539988 135.2769804 132.6167698  12.9579840
 137.8920012 132.1904997  11.9349988 137.0270012 132.2624997  12.3389988
 137.8370012 132.7374997  11.1509988 137.7662085 132.2742685  11.8843362
 142.6020012 132.0784997  11.1099988 142.1460012 132.6074997  10.4559988
 142.7650012 132.6814997  11.8359988 142.5615585 132.2324468  11.1185062
 134.8390012 131.2134997   9.8149988 134.8210012 130.7884997  10.6729988
 135.6440012 130.8954997   9.4069988 134.9453875 131.1123812   9.8771655
 136.9810012 129.9234997   8.4699988 136.7620012 129.0074997   8.6399988
 137.8050012 130.0634997   8.9359988 137.0624420 129.8170520   8.5562774
 139.5180012 130.3934997   9.3189988 139.7310012 129.5054997   9.0319988
 139.5820012 130.3594997  10.2729988 139.5558232 130.2673102   9.4087397
 143.0260012 116.0574997   8.4629988 142.3520012 115.4284997   8.7189988
 143.5900012 115.5734997   7.8599988 143.0099230 115.9058744   8.4165340
 135.3530012 114.6914997   6.2849988 134.5760012 114.4574997   5.7779988
 135.8830012 113.8944997   6.2939988 135.3182330 114.5516988   6.2167742
 134.1890012 114.4894997   2.0889988 134.6280012 115.1004997   1.4969988
 133.5560012 115.0274997   2.5629988 134.1634514 114.6459257   2.0720930
 139.9320012 114.6184997   6.0989988 140.8070012 115.0064997   6.0689988
 139.7960012 114.4034997   7.0209988 140.0333695 114.6425184   6.2196440
 134.0900012 130.4374997   2.9869988 133.4050012 130.3994997   2.3189988
 134.0940012 131.3504997   3.2749988 133.9968193 130.5557016   2.9345284
 136.0500012 116.4054997   0.5309988 136.5420012 115.7754997   0.0039988
 136.6740012 116.7014997   1.1949988 136.2015446 116.3593199   0.5485980
 141.0760012 116.6984997   2.9879988 141.2540012 116.0524997   3.6709988
 141.0230012 117.5324997   3.4559988 141.0931829 116.7227985   3.1445940
 142.9550012 131.6474997   1.3839988 143.8210012 132.0134997   1.2059988
 142.7080012 131.2074997   0.5699988 143.0402392 131.6381756   1.2496289
 135.3110012 115.2054997  15.8029988 134.9450012 114.4404997  16.2459988
 136.2240012 115.2344997  16.0899988 135.3842790 115.1047224  15.9024070
 137.2840012 114.5564997  17.3389988 138.1820012 114.2824997  17.1539988
 136.8970012 113.8134997  17.8029988 137.3546612 114.4185914  17.3763643
 135.9080012 131.3574997   0.0119988 135.6410012 131.6444997   0.8849988
 136.6800012 130.8114997   0.1639988 135.9757488 131.3230294   0.1521050
  12.4390012 142.7034997   6.2439988  12.5280012 143.6474997   6.1119988
  11.8010012 142.4284997   5.5859988  12.3649081 142.7954830   6.1369614
  11.3720012 141.9584997   9.6629988  11.3340012 141.3124997  10.3679988
  11.0500012 141.4924997   8.8919988  11.3232333 141.8069408   9.6552978
   3.7410012 141.5734997  11.2559988   3.7820012 140.9474997  11.9789988
   4.4440012 142.1974997  11.4379988   3.8416363 141.5721196  11.3796044
  15.0780012 144.8974997   7.9639988  14.6380012 144.1774997   8.4149988
  15.0650012 145.6184997   8.5939988  15.0160226 144.8963731   8.1108494
   1.2740012 139.6834997   5.1839988   0.8270012 140.5294997   5.1649988
   0.7130012 139.1034997   4.6679988   1.1369900 139.7209916   5.1116801
   1.9850012 141.8454997   7.3099988   2.1980012 141.0754997   7.8369988
   2.7230012 141.9344997   6.7059988   2.1138496 141.7521394   7.3005300
   9.7620012 144.3914997  10.0689988  10.0660012 143.7054997   9.4739988
  10.4830012 144.5094997  10.6869988   9.9010671 144.3136305  10.0711816
  18.4250012 135.9924997  10.9299988  18.4740012 136.6024997  11.6659988
  18.8500012 136.4534997  10.2069988  18.4891824 136.1383741  10.9330205
  12.9030012 138.7854997  10.3969988  13.0450012 137.8394997  10.4169988
  12.7960012 138.9924997   9.4679988  12.9079864 138.6839534  10.2742339
   6.0570012 136.8864997   7.6689988   6.1010012 137.7464997   7.2509988
   5.6000012 136.3344997   7.0349988   6.0012185 136.9295799   7.5260299
  13.7800012 137.0174997   6.0699988  14.4260012 136.6884997   6.6949988
  14.2900012 137.5354997   5.4469988  13.9374264 137.0424611   6.0713862
   2.6780012 139.2834997   8.4309988   3.3310012 138.7334997   8.8629988
   2.7020012 139.0094997   7.5139988   2.7706683 139.1711466   8.3662123
   7.8340012 140.8334997   7.6459988   8.4500012 140.3074997   8.1559988
   7.2480012 140.1934997   7.2429988   7.8390810 140.6749208   7.6613173
  18.8160012 137.4704997  13.1659988  18.1280012 138.1284997  13.0699988
  18.8320012 137.2734997  14.1019988  18.7238525 137.5340462  13.2794808
   4.8680012 135.8044997  11.7429988   4.6490012 136.3344997  10.9769988
   4.2000012 136.0314997  12.3899988   4.7477600 135.9076906  11.7256379
   7.4370012 143.4804997  12.0299988   6.6970012 144.0784997  12.1339988
   8.1510012 144.0344997  11.7149988   7.4322237 143.6372831  12.0016465
  15.5440012 136.3084997   8.0499988  15.3280012 135.5424997   8.5829988
  16.1990012 136.7804997   8.5629988  15.6030632 136.2675889   8.1922861
   4.4610012 137.6964997   9.6949988   5.0750012 138.3294997  10.0689988
   4.9730012 137.2244997   9.0389988   4.6142296 137.7192370   9.6574252
  15.8910012 135.0234997  11.7299988  15.1550012 135.6344997  11.6919988
  16.5740012 135.4384997  11.2029988  15.8826541 135.1631374  11.6535832
   8.8940012 133.1104997   9.1959988   8.7770012 132.1614997   9.1409988
   8.0390012 133.4424997   9.4689988   8.7623733 133.0255409   9.2253897
  16.6880012 144.9854997  13.9239988  16.8280012 144.3944997  13.1839988
  16.8550012 145.8584997  13.5669988  16.7296778 145.0226426  13.7746965
  11.1610012 141.9474997   3.6959988  10.4490012 142.4824997   3.3439988
  11.8520012 142.0034997   3.0359988  11.1570132 142.0282543   3.5586289
  11.2140012 140.4054997   0.7349988  11.9150012 140.4274997   1.3859988
  11.5170012 139.7774997   0.0789988  11.3507830 140.3236566   0.7353711
  18.5300012 141.3254997  11.9899988  17.8770012 142.0204997  12.0789988
  18.9950012 141.5354997  11.1799988  18.5035390 141.4489425  11.8926883
  14.5660012 142.1574997   4.6479988  13.8340012 142.3854997   5.2209988
  15.0140012 141.4434997   5.1029988  14.5263095 142.0922571   4.7879119
  14.4640012 140.3314997  13.7149988  14.5440012 141.0944997  14.2869988
  13.8620012 140.6104997  13.0249988  14.3935756 140.4737134  13.7000589
   6.2120012 142.7874997   6.5299988   5.8810012 142.4174997   5.7119988
   6.8000012 142.1174997   6.8769988   6.2461873 142.6461156   6.4648102
   6.5780012 141.5564997  10.1639988   7.1440012 141.6774997   9.4009988
   6.8970012 142.1934997  10.8029988   6.6985786 141.6591884  10.1460040
  13.4370012 141.3194997   2.3329988  14.0170012 141.4694997   3.0799988
  13.8510012 141.7904997   1.6099988  13.5722831 141.4036841   2.3374134
   4.3780012 142.1534997  14.1099988   4.4490012 142.8044997  14.8079988
   3.4880012 142.2564997  13.7749988   4.2673117 142.2565936  14.1602700
  17.1360012 133.0694997   2.1459988  16.2360012 133.2084997   2.4409988
  17.3880012 133.9004997   1.7439988  17.0468702 133.2009074   2.1320205
   5.2020012 141.8574997   4.1199988   4.9100012 142.6254997   3.6289988
   4.5280012 141.1974997   3.9569988   5.0709081 141.8734406   4.0307340
   1.2950012 144.2204997  12.9349988   0.7940012 144.1924997  12.1199988
   1.3000012 143.3144997  13.2439988   1.2271526 144.0942278  12.8652872
  16.3950012 139.1594997  15.9809988  15.9880012 139.6404997  15.2599988
  16.4360012 138.2544997  15.6729988  16.3448437 139.1029374  15.8406683
   6.1630012 134.0134997   9.9729988   5.3010012 133.9264997   9.5659988
   6.1400012 134.8694997  10.4009988   6.0420330 134.1172765   9.9751863
  10.8260012 133.7354997  13.3479988  11.2460012 133.3204997  14.1009988
   9.8930012 133.5574997  13.4649988  10.7573644 133.6545900  13.4669539
  14.1520012 137.4914997  14.2009988  13.6380012 137.3654997  14.9989988
  13.9970012 138.4034997  13.9569988  14.0606852 137.5976132  14.2772158
  14.9150012 142.3524997  -0.0370012  14.9570012 142.1294997  -0.9670012
  15.7640012 142.7514997   0.1529988  15.0355396 142.3759155  -0.1386373
  10.4870012 136.2284997   0.6329988  10.2340012 136.2474997   1.5559988
  10.2310012 135.3564997   0.3319988  10.4177790 136.1132437   0.7186263
   6.2540012 138.9794997  11.0679988   5.6120012 138.9384997  11.7769988
   6.2910012 139.9054997  10.8309988   6.1711324 139.0991559  11.1329824
   6.2510012 139.2004997   5.9799988   5.3580012 138.8594997   5.9219988
   6.7010012 138.8234997   5.2249988   6.1897305 139.1028484   5.8699177
  11.7860012 139.6164997   4.7969988  11.3770012 140.4314997   4.5059988
  12.5070012 139.4764997   4.1829988  11.8274537 139.7092018   4.6741342
  10.8880012 139.7914997  16.2849988  10.3260012 139.0874997  16.6059988
  11.7150012 139.6714997  16.7529988  10.9227095 139.6787883  16.3922330
  12.7910012 139.0624997   7.6109988  12.5960012 139.6674997   6.8959988
  12.9720012 138.2284997   7.1769988  12.7887614 139.0326300   7.4544405
   4.0040012 139.2994997  12.9349988   3.9660012 139.6994997  13.8039988
   3.5130012 138.4824997  13.0259988   3.9324684 139.2438069  13.0661059
   7.3700012 136.6734997  -0.2660012   6.9390012 136.2284997   0.4639988
   6.6520012 137.0454997  -0.7780012   7.2139438 136.6628940  -0.2353201
   0.6120012 136.4154997   6.7859988   1.2430012 136.3864997   7.5049988
   1.0610012 135.9904997   6.0559988   0.7590774 136.3540492   6.7856553
   1.8860012 137.1614997   2.2099988   2.3600012 137.7524997   1.6249988
   1.1690012 137.6924997   2.5569988   1.8539341 137.3140867   2.1768836
  12.0550012 140.7004997  12.2829988  12.3780012 140.0694997  11.6399988
  11.6150012 140.1654997  12.9429988  12.0396895 140.5418441  12.2842850
   8.8320012 136.6274997   7.0669988   7.9210012 136.6844997   7.3549988
   9.3380012 136.5674997   7.8769988   8.7755413 136.6271985   7.2160622
   3.6610012 138.2564997   5.8929988   2.7710012 138.3564997   5.5529988
   3.9570012 137.4144997   5.5469988   3.5792823 138.1563545   5.7997213
   7.3140012 138.2564997   3.5499988   8.2450012 138.3854997   3.7279988
   7.0990012 138.9264997   2.8999988   7.4124247 138.3646565   3.4865747
  13.2370012 135.8624997  10.3309988  12.5610012 135.9934997  10.9949988
  12.7520012 135.7074997   9.5209988  13.0787145 135.8594905  10.3124517
   5.9880012 139.4514997   1.1169988   5.4450012 139.0714997   0.4249988
   6.8210012 139.6454997   0.6879988   6.0264399 139.4258124   0.9644526
   4.1230012 144.0084997  16.2159988   4.8550012 144.2624997  16.7769988
   3.3430012 144.2124997  16.7309988   4.1178232 144.0709177  16.3625760
  10.1520012 139.4154997   8.9539988  10.7170012 138.8684997   8.4069988
  10.0050012 138.8934997   9.7419988  10.2092918 139.2702024   8.9858454
   5.1540012 135.5514997   5.3719988   4.8370012 134.6494997   5.3369988
   5.9360012 135.5534997   4.8189988   5.2162284 135.4281628   5.2924783
   8.7790012 137.8034997  11.3679988   7.9430012 138.2574997  11.4779988
   9.3030012 138.0794997  12.1199988   8.7354414 137.9029376  11.4847136
   9.3230012 144.0164997   3.0519988   8.5780012 143.5094997   2.7299988
   9.1890012 144.0654997   3.9989988   9.2028776 143.9536940   3.1358647
  16.4730012 143.1494997  11.8389988  17.1150012 143.6064997  11.2949988
  15.6430012 143.2624997  11.3759988  16.4485963 143.2272704  11.7020177
  13.2210012 136.8304997   1.2519988  12.2820012 136.9424997   1.0999988
  13.5180012 137.6874997   1.5579988  13.1327666 136.9616443   1.2725768
  10.8420012 144.2004997  14.2889988  10.4970012 143.8194997  15.0959988
  10.6420012 145.1344997  14.3609988  10.7678061 144.2745228  14.4090961
  13.9390012 138.6974997   2.9119988  14.8310012 138.5604997   3.2309988
  13.9960012 139.4884997   2.3759988  14.0686285 138.7856660   2.8831691
   4.4480012 143.3114997   8.8219988   5.1930012 143.3094997   8.2209988
   4.5260012 142.4884997   9.3039988   4.5605518 143.1999315   8.8048929
   1.4560012 141.7724997  14.1369988   1.6790012 141.3544997  14.9689988
   0.8540012 141.1594997  13.7139988   1.4051759 141.6324668  14.1937022
   8.4720012 141.2894997  16.3499988   8.1760012 141.1234997  15.4549988
   9.4040012 141.0694997  16.3389988   8.5574166 141.2370640  16.2260536
  18.8240012 138.9074997   2.6069988  18.2700012 138.5114997   1.9349988
  18.9240012 139.8174997   2.3289988  18.7617059 138.9763586   2.4774401
  18.7870012 144.7074997  15.4439988  17.9360012 144.9454997  15.0769988
  19.3780012 144.6904997  14.6909988  18.7502487 144.7378258  15.2918893
  14.2800012 142.5014997  10.0929988  13.3510012 142.2694997  10.0659988
  14.7310012 141.7244997   9.7629988  14.2139216 142.3647238  10.0446917
   2.5780012 141.6914997   0.8129988   3.1940012 142.3184997   1.1929988
   1.7160012 142.0074997   1.0849988   2.5457698 141.8199430   0.9017183
   8.2500012 144.4924997   5.8029988   8.0090012 145.4174997   5.8439988
   7.5090012 144.0334997   6.1989988   8.1168409 144.5571421   5.8621377
  12.3090012 144.7404997  11.8179988  11.8830012 144.5134997  12.6449988
  12.8890012 144.0024997  11.6359988  12.3291868 144.6095299  11.9065830
   3.0900012 136.5254997  13.6949988   2.1970012 136.8644997  13.6269988
   2.9910012 135.6704997  14.1129988   2.9544164 136.4562588  13.7422235
  15.3780012 144.3424997   3.1189988  15.1000012 143.6144997   3.6749988
  16.3050012 144.4614997   3.3239988  15.4653124 144.2588802   3.2228845
   3.9930012 143.6044997   2.3059988   3.3070012 143.9564997   2.8729988
   4.5150012 144.3674997   2.0589988   3.9696852 143.7558578   2.3502118
  11.8240012 136.2664997  12.5849988  12.5230012 136.3404997  13.2349988
  11.4430012 135.4024997  12.7389988  11.8681767 136.1597624  12.6948322
  12.6090012 135.9184997   3.6819988  12.8290012 136.3904997   2.8789988
  13.1670012 136.3134997   4.3519988  12.7144968 136.0364285   3.6627331
   9.8090012 137.6464997   4.5169988  10.6210012 138.1514997   4.5629988
   9.5640012 137.5014997   5.4309988   9.8870520 137.6960375   4.6468517
  10.3440012 138.6324997  13.7019988  10.4630012 139.2064997  14.4589988
  11.0000012 137.9444997  13.8159988  10.4489757 138.6181079  13.8210825
  10.6920012 134.7274997   5.4549988  10.3460012 135.3454997   6.0999988
  11.3510012 135.2284997   4.9739988  10.7337826 134.8795802   5.4780971
   6.3500012 135.7904997   2.1419988   6.2670012 136.6794997   2.4889988
   7.2400012 135.5254997   2.3739988   6.4589469 135.8761430   2.2207626
  16.5490012 136.5394997  14.5369988  15.6320012 136.8024997  14.4489988
  16.8840012 136.5364997  13.6399988  16.4689900 136.5750224  14.4037919
  15.1510012 140.2904997   8.6319988  14.3530012 139.8754997   8.3039988
  15.5960012 139.5994997   9.1229988  15.1019885 140.1403543   8.6534889
   2.9250012 138.8824997   0.3189988   2.8800012 139.8214997   0.4969988
   2.0370012 138.6464997   0.0489988   2.7988574 138.9791892   0.3068912
   3.7330012 133.6644997   8.9919988   3.5040012 133.7234997   8.0639988
   3.2900012 132.8724997   9.2979988   3.6418530 133.5655753   8.9064786
   1.8580012 144.0274997  17.4369988   2.0020012 143.1254997  17.1499988
   1.0860012 144.3134997  16.9489988   1.7733323 143.9428261  17.3317881
   6.2000012 144.3714997  -0.4310012   6.2640012 143.5774997   0.0999988
   6.8530012 144.2524997  -1.1210012   6.2970241 144.2467148  -0.4515683
   8.5140012 143.9974997  16.8689988   8.1850012 144.2684997  16.0119988
   8.6660012 143.0564997  16.7819988   8.4894809 143.9073862  16.7398244
  14.2480012 143.9134997  14.2529988  14.9940012 144.5014997  14.1329988
  13.4910012 144.4954997  14.3159988  14.2477554 144.0727011  14.2450907
   2.6910012 141.2274997  16.8569988   3.0990012 140.3704997  16.7359988
   2.4310012 141.2424997  17.7779988   2.7117568 141.1120807  16.9649588
   7.3490012 142.3434997   1.8749988   6.8890012 141.8594997   2.5609988
   7.6040012 141.6754997   1.2389988   7.3204902 142.1868731   1.8829334
   6.6380012 140.2364997  14.2309988   6.0200012 140.9114997  14.5109988
   6.9820012 140.5574997  13.3979988   6.5999615 140.3722721  14.1566581
   8.4200012 140.5864997   0.1369988   8.2400012 140.4324997  -0.7900012
   9.3700012 140.6944997   0.1819988   8.5237776 140.5800175   0.0161843
  11.6580012 142.7084997  17.5079988  12.6110012 142.7914997  17.4809988
  11.4970012 141.9964997  18.1279988  11.7666426 142.6236746  17.5880579
  17.8100012 142.9414997  -0.4170012  17.5360012 142.5164997  -1.2300012
  17.8490012 143.8724997  -0.6340012  17.7777699 143.0092484  -0.5576390
   6.9770012 137.5914997  15.3129988   7.1270012 136.8624997  14.7109988
   6.9800012 138.3684997  14.7539988   6.9979302 137.5967851  15.1550692
   7.3900012 135.9614997  12.8059988   7.9260012 136.4124997  12.1539988
   6.5380012 135.8534997  12.3829988   7.3482178 136.0086390  12.6595756
   8.9720012 141.4004997  13.0449988   9.7220012 141.2444997  12.4719988
   8.6330012 142.2524997  12.7699988   9.0288921 141.4942968  12.9293561
  13.3870012 139.2154997  18.0739988  13.5800012 138.2844997  17.9619988
  14.2450012 139.6404997  18.0639988  13.5293020 139.1456389  18.0573361
  14.7040012 142.0044997  16.1509988  14.4230012 142.7134997  15.5739988
  15.6470012 141.9314997  15.9999988  14.7929027 142.0917646  16.0515551
   5.4560012 138.7894997  17.2249988   4.6890012 138.2574997  17.0149988
   6.1350012 138.4794997  16.6249988   5.4427022 138.6747506  17.1151648
   8.1960012 133.4174997  13.2369988   8.0970012 134.3644997  13.1319988
   7.4530012 133.0454997  12.7619988   8.0820564 133.4965902  13.1584560
   9.4600012 137.7394997  16.8009988   9.2240012 137.5194997  17.7029988
   8.6760012 137.5324997  16.2909988   9.3218628 137.6814760  16.8553932
  12.1750012 136.8664997  15.8769988  11.2280012 136.8984997  16.0089988
  12.4880012 136.2414997  16.5299988  12.0875475 136.7863207  15.9834455
  13.8090012 135.5004997  17.8819988  13.7130012 134.5484997  17.8759988
  13.4880012 135.7694997  18.7419988  13.7524070 135.4064035  17.9975441
   3.6360012 136.7104997  16.9289988   3.8480012 136.0034997  16.3189988
   3.5250012 136.2724997  17.7729988   3.6499721 136.5547084  16.9596843
   8.4170012 132.7114997  15.9089988   9.1290012 132.0714997  15.8949988
   8.3160012 132.9784997  14.9949988   8.5007939 132.6599938  15.7835650
   8.7710012 134.3944997  17.9619988   8.6390012 133.9184997  17.1419988
   8.1720012 135.1384997  17.9069988   8.6719071 134.4299618  17.8422886
  18.2680012 143.8104997   3.5579988  19.1180012 144.2314997   3.6849988
  18.2740012 143.0704997   4.1649988  18.3851372 143.7680803   3.6574344
  18.6630012 141.8634997   5.3819988  17.9360012 141.3844997   5.7789988
  19.2440012 142.0694997   6.1139988  18.6419375 141.8257090   5.5354129
  18.4220012 144.6484997  10.3289988  19.2550012 144.2704997  10.0489988
  18.5340012 145.5914997  10.2099988  18.5512647 144.7242218  10.2745487
  18.9310012 141.7644997   1.7729988  18.4090012 142.1214997   1.0539988
  18.8980012 142.4394997   2.4509988  18.8551634 141.9045413   1.7663145
  17.2800012 139.0044997   0.3239988  17.3760012 139.6714997  -0.3570012
  17.1400012 138.1884997  -0.1580012  17.2742135 138.9854500   0.1658491
  16.4490012 140.3844997   5.9449988  16.2990012 139.4394997   5.9239988
  16.0960012 140.6654997   6.7879988  16.3806625 140.2930441   6.0562346
   1.4850012 142.4624997   9.9549988   1.6690012 142.3804997   9.0189988
   2.3340012 142.3384997  10.3789988   1.6250139 142.4345003   9.8841455
  17.3060012 142.3544997  15.5829988  17.8890012 141.6204997  15.7749988
  17.8700012 143.1264997  15.6299988  17.4619769 142.3584227  15.6156159
  18.8020012 140.2574997  16.2679988  17.9390012 139.8784997  16.1019988
  19.4070012 139.5184997  16.1939988  18.7655979 140.1058023  16.2352817
  16.5270012 136.4124997  -0.5590012  17.1380012 136.0414997   0.0779988
  15.6910012 135.9914997  -0.3630012  16.4975032 136.3047554  -0.4452965
  16.1600012 137.9674997   4.4069988  16.4400012 137.0604997   4.5309988
  16.9190012 138.4014997   4.0179988  16.3009277 137.9020942   4.3713682
  16.7720012 138.5484997   9.8429988  17.7050012 138.7604997   9.8089988
  16.5370012 138.6504997  10.7649988  16.8678036 138.5912769   9.9629976
  16.8010012 139.2854997  12.6189988  15.9580012 139.5534997  12.9849988
  17.2430012 140.1074997  12.4079988  16.7454158 139.4333291  12.6405491
   1.0820012 137.7334997  16.0959988   2.0020012 137.6114997  16.3319988
   0.6330012 136.9834997  16.4849988   1.1471580 137.6153727  16.1809006
  19.0840012 133.2654997  17.9719988  19.4340012 132.6114997  17.3669988
  19.2310012 134.1024997  17.5329988  19.1518419 133.2891591  17.8297118
  16.7730012 135.2304997   4.4549988  16.9560012 134.7814997   5.2809988
  16.1740012 134.6454997   3.9919988  16.7170202 135.0899975   4.5053275
   2.3030012 136.0454997   8.9869988   2.7490012 135.2534997   9.2889988
   2.7700012 136.7614997   9.4179988   2.4270172 136.0340624   9.0864820
   0.6070012 139.0444997  10.0559988   1.0990012 138.8234997   9.2649988
   0.9700012 139.8854997  10.3369988   0.7233126 139.1278357   9.9857531
  18.6040012 135.3744997  16.3219988  17.6860012 135.6454997  16.2859988
  18.7270012 134.8394997  15.5369988  18.4951066 135.3392892  16.2110487
  18.6400012 135.2974997   0.9829988  19.0520012 134.5764997   0.5079988
  19.3220012 135.9674997   1.0419988  18.7885885 135.2892368   0.9258915
   0.9210012 135.3024997   4.1099988  -0.0039988 135.5114997   3.9809988
   1.3750012 135.7864997   3.4209988   0.8557368 135.3965993   3.9991226
   0.8850012 134.0404997  12.4549988   0.2200012 133.7944997  13.0979988
   0.4420012 134.6624997  11.8769988   0.7340956 134.0908632  12.4649352
  17.6040012 133.4644997  14.1409988  16.7920012 133.7894997  13.7529988
  17.8370012 132.7044997  13.6079988  17.5243423 133.4062436  14.0158253
  11.0340012 134.9134997   8.4629988  10.3600012 134.2844997   8.7189988
  11.5980012 134.4294997   7.8599988  11.0179230 134.7618744   8.4165340
  16.1770012 133.0214997   8.5759988  16.7810012 133.5684997   8.0739988
  15.3070012 133.3404997   8.3359988  16.1421241 133.1395806   8.4747654
  17.9040012 134.1594997   6.9089988  18.5160012 133.6454997   6.3829988
  18.2860012 135.0374997   6.9329988  18.0394540 134.2077140   6.8401830
   3.3610012 133.5474997   6.2849988   2.5840012 133.3134997   5.7779988
   3.8910012 132.7504997   6.2939988   3.3262330 133.4076988   6.2167742
   2.1970012 133.3454997   2.0889988   2.6360012 133.9564997   1.4969988
   1.5640012 133.8834997   2.5629988   2.1714514 133.5019257   2.0720930
   7.9400012 133.4744997   6.0989988   8.8150012 133.8624997   6.0689988
   7.8040012 133.2594997   7.0209988   8.0413695 133.4985184   6.2196440
  13.4970012 133.5044997   7.7479988  13.5730012 133.5994997   6.7979988
  13.2220012 132.5964997   7.8769988  13.4702321 133.3947867   7.6355079
  14.8500012 133.5304997   3.4399988  14.1480012 134.1454997   3.2309988
  14.4060012 132.6924997   3.5709988  14.6936330 133.5015783   3.4290328
   4.0580012 135.2614997   0.5309988   4.5500012 134.6314997   0.0039988
   4.6820012 135.5574997   1.1949988   4.2095446 135.2153199   0.5485980
   9.0840012 135.5544997   2.9879988   9.2620012 134.9084997   3.6709988
   9.0310012 136.3884997   3.4559988   9.1011829 135.5787985   3.1445940
   3.3190012 134.0614997  15.8029988   2.9530012 133.2964997  16.2459988
   4.2320012 134.0904997  16.0899988   3.3922790 133.9607224  15.9024070
   5.2920012 133.4124997  17.3389988   6.1900012 133.1384997  17.1539988
   4.9050012 132.6694997  17.8029988   5.3626612 133.2745914  17.3763643
  13.7130012 132.7444997  17.5209988  13.7900012 132.3184997  18.3749988
  14.6070012 132.7584997  17.1779988  13.8443428 132.6880880  17.5915310
  31.2950012 142.7034997   6.2439988  31.3840012 143.6474997   6.1119988
  30.6570012 142.4284997   5.5859988  31.2209081 142.7954830   6.1369614
  30.2280012 141.9584997   9.6629988  30.1900012 141.3124997  10.3679988
  29.9060012 141.4924997   8.8919988  30.1792333 141.8069408   9.6552978
  22.5970012 141.5734997  11.2559988  22.6380012 140.9474997  11.9789988
  23.3000012 142.1974997  11.4379988  22.6976363 141.5721196  11.3796044
  33.9340012 144.8974997   7.9639988  33.4940012 144.1774997   8.4149988
  33.9210012 145.6184997   8.5939988  33.8720226 144.8963731   8.1108494
  20.1300012 139.6834997   5.1839988  19.6830012 140.5294997   5.1649988
  19.5690012 139.1034997   4.6679988  19.9929900 139.7209916   5.1116801
  20.8410012 141.8454997   7.3099988  21.0540012 141.0754997   7.8369988
  21.5790012 141.9344997   6.7059988  20.9698496 141.7521394   7.3005300
  28.6180012 144.3914997  10.0689988  28.9220012 143.7054997   9.4739988
  29.3390012 144.5094997  10.6869988  28.7570671 144.3136305  10.0711816
  37.2810012 135.9924997  10.9299988  37.3300012 136.6024997  11.6659988
  37.7060012 136.4534997  10.2069988  37.3451824 136.1383741  10.9330205
  31.7590012 138.7854997  10.3969988  31.9010012 137.8394997  10.4169988
  31.6520012 138.9924997   9.4679988  31.7639864 138.6839534  10.2742339
  24.9130012 136.8864997   7.6689988  24.9570012 137.7464997   7.2509988
  24.4560012 136.3344997   7.0349988  24.8572185 136.9295799   7.5260299
  32.6360012 137.0174997   6.0699988  33.2820012 136.6884997   6.6949988
  33.1460012 137.5354997   5.4469988  32.7934264 137.0424611   6.0713862
  21.5340012 139.2834997   8.4309988  22.1870012 138.7334997   8.8629988
  21.5580012 139.0094997   7.5139988  21.6266683 139.1711466   8.3662123
  26.6900012 140.8334997   7.6459988  27.3060012 140.3074997   8.1559988
  26.1040012 140.1934997   7.2429988  26.6950810 140.6749208   7.6613173
  37.6720012 137.4704997  13.1659988  36.9840012 138.1284997  13.0699988
  37.6880012 137.2734997  14.1019988  37.5798525 137.5340462  13.2794808
  23.7240012 135.8044997  11.7429988  23.5050012 136.3344997  10.9769988
  23.0560012 136.0314997  12.3899988  23.6037600 135.9076906  11.7256379
  26.2930012 143.4804997  12.0299988  25.5530012 144.0784997  12.1339988
  27.0070012 144.0344997  11.7149988  26.2882237 143.6372831  12.0016465
  34.4000012 136.3084997   8.0499988  34.1840012 135.5424997   8.5829988
  35.0550012 136.7804997   8.5629988  34.4590632 136.2675889   8.1922861
  23.3170012 137.6964997   9.6949988  23.9310012 138.3294997  10.0689988
  23.8290012 137.2244997   9.0389988  23.4702296 137.7192370   9.6574252
  34.7470012 135.0234997  11.7299988  34.0110012 135.6344997  11.6919988
  35.4300012 135.4384997  11.2029988  34.7386541 135.1631374  11.6535832
  27.7500012 133.1104997   9.1959988  27.6330012 132.1614997   9.1409988
  26.8950012 133.4424997   9.4689988  27.6183733 133.0255409   9.2253897
  35.5440012 144.9854997  13.9239988  35.6840012 144.3944997  13.1839988
  35.7110012 145.8584997  13.5669988  35.5856778 145.0226426  13.7746965
  30.0170012 141.9474997   3.6959988  29.3050012 142.4824997   3.3439988
  30.7080012 142.0034997   3.0359988  30.0130132 142.0282543   3.5586289
  30.0700012 140.4054997   0.7349988  30.7710012 140.4274997   1.3859988
  30.3730012 139.7774997   0.0789988  30.2067830 140.3236566   0.7353711
  37.3860012 141.3254997  11.9899988  36.7330012 142.0204997  12.0789988
  37.8510012 141.5354997  11.1799988  37.3595390 141.4489425  11.8926883
  33.4220012 142.1574997   4.6479988  32.6900012 142.3854997   5.2209988
  33.8700012 141.4434997   5.1029988  33.3823095 142.0922571   4.7879119
  33.3200012 140.3314997  13.7149988  33.4000012 141.0944997  14.2869988
  32.7180012 140.6104997  13.0249988  33.2495756 140.4737134  13.7000589
  25.0680012 142.7874997   6.5299988  24.7370012 142.4174997   5.7119988
  25.6560012 142.1174997   6.8769988  25.1021873 142.6461156   6.4648102
  25.4340012 141.5564997  10.1639988  26.0000012 141.6774997   9.4009988
  25.7530012 142.1934997  10.8029988  25.5545786 141.6591884  10.1460040
  32.2930012 141.3194997   2.3329988  32.8730012 141.4694997   3.0799988
  32.7070012 141.7904997   1.6099988  32.4282830 141.4036841   2.3374134
  23.2340012 142.1534997  14.1099988  23.3050012 142.8044997  14.8079988
  22.3440012 142.2564997  13.7749988  23.1233117 142.2565936  14.1602700
  35.9920012 133.0694997   2.1459988  35.0920012 133.2084997   2.4409988
  36.2440012 133.9004997   1.7439988  35.9028702 133.2009074   2.1320205
  24.0580012 141.8574997   4.1199988  23.7660012 142.6254997   3.6289988
  23.3840012 141.1974997   3.9569988  23.9269081 141.8734406   4.0307340
  20.1510012 144.2204997  12.9349988  19.6500012 144.1924997  12.1199988
  20.1560012 143.3144997  13.2439988  20.0831526 144.0942278  12.8652872
  35.2510012 139.1594997  15.9809988  34.8440012 139.6404997  15.2599988
  35.2920012 138.2544997  15.6729988  35.2008437 139.1029374  15.8406683
  25.0190012 134.0134997   9.9729988  24.1570012 133.9264997   9.5659988
  24.9960012 134.8694997  10.4009988  24.8980330 134.1172765   9.9751863
  29.6820012 133.7354997  13.3479988  30.1020012 133.3204997  14.1009988
  28.7490012 133.5574997  13.4649988  29.6133644 133.6545900  13.4669539
  33.0080012 137.4914997  14.2009988  32.4940012 137.3654997  14.9989988
  32.8530012 138.4034997  13.9569988  32.9166852 137.5976132  14.2772158
  33.7710012 142.3524997  -0.0370012  33.8130012 142.1294997  -0.9670012
  34.6200012 142.7514997   0.1529988  33.8915396 142.3759155  -0.1386373
  29.3430012 136.2284997   0.6329988  29.0900012 136.2474997   1.5559988
  29.0870012 135.3564997   0.3319988  29.2737790 136.1132437   0.7186263
  25.1100012 138.9794997  11.0679988  24.4680012 138.9384997  11.7769988
  25.1470012 139.9054997  10.8309988  25.0271324 139.0991559  11.1329824
  25.1070012 139.2004997   5.9799988  24.2140012 138.8594997   5.9219988
  25.5570012 138.8234997   5.2249988  25.0457305 139.1028484   5.8699177
  30.6420012 139.6164997   4.7969988  30.2330012 140.4314997   4.5059988
  31.3630012 139.4764997   4.1829988  30.6834537 139.7092018   4.6741342
  29.7440012 139.7914997  16.2849988  29.1820012 139.0874997  16.6059988
  30.5710012 139.6714997  16.7529988  29.7787095 139.6787883  16.3922330
  31.6470012 139.0624997   7.6109988  31.4520012 139.6674997   6.8959988
  31.8280012 138.2284997   7.1769988  31.6447614 139.0326300   7.4544405
  22.8600012 139.2994997  12.9349988  22.8220012 139.6994997  13.8039988
  22.3690012 138.4824997  13.0259988  22.7884684 139.2438069  13.0661059
  26.2260012 136.6734997  -0.2660012  25.7950012 136.2284997   0.4639988
  25.5080012 137.0454997  -0.7780012  26.0699438 136.6628940  -0.2353201
  19.4680012 136.4154997   6.7859988  20.0990012 136.3864997   7.5049988
  19.9170012 135.9904997   6.0559988  19.6150774 136.3540492   6.7856553
  20.7420012 137.1614997   2.2099988  21.2160012 137.7524997   1.6249988
  20.0250012 137.6924997   2.5569988  20.7099341 137.3140867   2.1768836
  30.9110012 140.7004997  12.2829988  31.2340012 140.0694997  11.6399988
  30.4710012 140.1654997  12.9429988  30.8956895 140.5418441  12.2842850
  27.6880012 136.6274997   7.0669988  26.7770012 136.6844997   7.3549988
  28.1940012 136.5674997   7.8769988  27.6315413 136.6271985   7.2160622
  22.5170012 138.2564997   5.8929988  21.6270012 138.3564997   5.5529988
  22.8130012 137.4144997   5.5469988  22.4352823 138.1563545   5.7997213
  26.1700012 138.2564997   3.5499988  27.1010012 138.3854997   3.7279988
  25.9550012 138.9264997   2.8999988  26.2684247 138.3646565   3.4865747
  32.0930012 135.8624997  10.3309988  31.4170012 135.9934997  10.9949988
  31.6080012 135.7074997   9.5209988  31.9347145 135.8594905  10.3124517
  24.8440012 139.4514997   1.1169988  24.3010012 139.0714997   0.4249988
  25.6770012 139.6454997   0.6879988  24.8824399 139.4258124   0.9644526
  22.9790012 144.0084997  16.2159988  23.7110012 144.2624997  16.7769988
  22.1990012 144.2124997  16.7309988  22.9738232 144.0709177  16.3625760
  29.0080012 139.4154997   8.9539988  29.5730012 138.8684997   8.4069988
  28.8610012 138.8934997   9.7419988  29.0652918 139.2702024   8.9858454
  24.0100012 135.5514997   5.3719988  23.6930012 134.6494997   5.3369988
  24.7920012 135.5534997   4.8189988  24.0722284 135.4281628   5.2924783
  27.6350012 137.8034997  11.3679988  26.7990012 138.2574997  11.4779988
  28.1590012 138.0794997  12.1199988  27.5914414 137.9029376  11.4847136
  28.1790012 144.0164997   3.0519988  27.4340012 143.5094997   2.7299988
  28.0450012 144.0654997   3.9989988  28.0588776 143.9536940   3.1358647
  35.3290012 143.1494997  11.8389988  35.9710012 143.6064997  11.2949988
  34.4990012 143.2624997  11.3759988  35.3045963 143.2272704  11.7020177
  32.0770012 136.8304997   1.2519988  31.1380012 136.9424997   1.0999988
  32.3740012 137.6874997   1.5579988  31.9887666 136.9616443   1.2725768
  29.6980012 144.2004997  14.2889988  29.3530012 143.8194997  15.0959988
  29.4980012 145.1344997  14.3609988  29.6238061 144.2745228  14.4090961
  32.7950012 138.6974997   2.9119988  33.6870012 138.5604997   3.2309988
  32.8520012 139.4884997   2.3759988  32.9246285 138.7856660   2.8831691
  23.3040012 143.3114997   8.8219988  24.0490012 143.3094997   8.2209988
  23.3820012 142.4884997   9.3039988  23.4165518 143.1999315   8.8048929
  20.3120012 141.7724997  14.1369988  20.5350012 141.3544997  14.9689988
  19.7100012 141.1594997  13.7139988  20.2611759 141.6324668  14.1937022
  27.3280012 141.2894997  16.3499988  27.0320012 141.1234997  15.4549988
  28.2600012 141.0694997  16.3389988  27.4134166 141.2370640  16.2260536
  37.6800012 138.9074997   2.6069988  37.1260012 138.5114997   1.9349988
  37.7800012 139.8174997   2.3289988  37.6177059 138.9763586   2.4774401
  37.6430012 144.7074997  15.4439988  36.7920012 144.9454997  15.0769988
  38.2340012 144.6904997  14.6909988  37.6062487 144.7378258  15.2918893
  33.1360012 142.5014997  10.0929988  32.2070012 142.2694997  10.0659988
  33.5870012 141.7244997   9.7629988  33.0699216 142.3647238  10.0446917
  21.4340012 141.6914997   0.8129988  22.0500012 142.3184997   1.1929988
  20.5720012 142.0074997   1.0849988  21.4017698 141.8199430   0.9017183
  27.1060012 144.4924997   5.8029988  26.8650012 145.4174997   5.8439988
  26.3650012 144.0334997   6.1989988  26.9728409 144.5571421   5.8621377
  31.1650012 144.7404997  11.8179988  30.7390012 144.5134997  12.6449988
  31.7450012 144.0024997  11.6359988  31.1851868 144.6095299  11.9065830
  21.9460012 136.5254997  13.6949988  21.0530012 136.8644997  13.6269988
  21.8470012 135.6704997  14.1129988  21.8104164 136.4562588  13.7422235
  34.2340012 144.3424997   3.1189988  33.9560012 143.6144997   3.6749988
  35.1610012 144.4614997   3.3239988  34.3213124 144.2588802   3.2228845
  22.8490012 143.6044997   2.3059988  22.1630012 143.9564997   2.8729988
  23.3710012 144.3674997   2.0589988  22.8256852 143.7558578   2.3502118
  30.6800012 136.2664997  12.5849988  31.3790012 136.3404997  13.2349988
  30.2990012 135.4024997  12.7389988  30.7241767 136.1597624  12.6948322
  31.4650012 135.9184997   3.6819988  31.6850012 136.3904997   2.8789988
  32.0230012 136.3134997   4.3519988  31.5704968 136.0364285   3.6627331
  28.6650012 137.6464997   4.5169988  29.4770012 138.1514997   4.5629988
  28.4200012 137.5014997   5.4309988  28.7430520 137.6960375   4.6468517
  29.2000012 138.6324997  13.7019988  29.3190012 139.2064997  14.4589988
  29.8560012 137.9444997  13.8159988  29.3049757 138.6181079  13.8210825
  29.5480012 134.7274997   5.4549988  29.2020012 135.3454997   6.0999988
  30.2070012 135.2284997   4.9739988  29.5897826 134.8795802   5.4780971
  25.2060012 135.7904997   2.1419988  25.1230012 136.6794997   2.4889988
  26.0960012 135.5254997   2.3739988  25.3149469 135.8761430   2.2207626
  35.4050012 136.5394997  14.5369988  34.4880012 136.8024997  14.4489988
  35.7400012 136.5364997  13.6399988  35.3249900 136.5750224  14.4037919
  34.0070012 140.2904997   8.6319988  33.2090012 139.8754997   8.3039988
  34.4520012 139.5994997   9.1229988  33.9579885 140.1403543   8.6534889
  21.7810012 138.8824997   0.3189988  21.7360012 139.8214997   0.4969988
  20.8930012 138.6464997   0.0489988  21.6548574 138.9791892   0.3068912
  22.5890012 133.6644997   8.9919988  22.3600012 133.7234997   8.0639988
  22.1460012 132.8724997   9.2979988  22.4978530 133.5655753   8.9064786
  20.7140012 144.0274997  17.4369988  20.8580012 143.1254997  17.1499988
  19.9420012 144.3134997  16.9489988  20.6293323 143.9428261  17.3317881
  25.0560012 144.3714997  -0.4310012  25.1200012 143.5774997   0.0999988
  25.7090012 144.2524997  -1.1210012  25.1530241 144.2467148  -0.4515683
  27.3700012 143.9974997  16.8689988  27.0410012 144.2684997  16.0119988
  27.5220012 143.0564997  16.7819988  27.3454809 143.9073862  16.7398244
  33.1040012 143.9134997  14.2529988  33.8500012 144.5014997  14.1329988
  32.3470012 144.4954997  14.3159988  33.1037554 144.0727011  14.2450907
  21.5470012 141.2274997  16.8569988  21.9550012 140.3704997  16.7359988
  21.2870012 141.2424997  17.7779988  21.5677568 141.1120807  16.9649588
  26.2050012 142.3434997   1.8749988  25.7450012 141.8594997   2.5609988
  26.4600012 141.6754997   1.2389988  26.1764902 142.1868731   1.8829334
  25.4940012 140.2364997  14.2309988  24.8760012 140.9114997  14.5109988
  25.8380012 140.5574997  13.3979988  25.4559615 140.3722721  14.1566581
  27.2760012 140.5864997   0.1369988  27.0960012 140.4324997  -0.7900012
  28.2260012 140.6944997   0.1819988  27.3797776 140.5800175   0.0161843
  30.5140012 142.7084997  17.5079988  31.4670012 142.7914997  17.4809988
  30.3530012 141.9964997  18.1279988  30.6226426 142.6236746  17.5880579
  36.6660012 142.9414997  -0.4170012  36.3920012 142.5164997  -1.2300012
  36.7050012 143.8724997  -0.6340012  36.6337699 143.0092484  -0.5576390
  25.8330012 137.5914997  15.3129988  25.9830012 136.8624997  14.7109988
  25.8360012 138.3684997  14.7539988  25.8539302 137.5967851  15.1550692
  26.2460012 135.9614997  12.8059988  26.7820012 136.4124997  12.1539988
  25.3940012 135.8534997  12.3829988  26.2042178 136.0086390  12.6595756
  27.8280012 141.4004997  13.0449988  28.5780012 141.2444997  12.4719988
  27.4890012 142.2524997  12.7699988  27.8848921 141.4942968  12.9293561
  32.2430012 139.2154997  18.0739988  32.4360012 138.2844997  17.9619988
  33.1010012 139.6404997  18.0639988  32.3853020 139.1456389  18.0573361
  33.5600012 142.0044997  16.1509988  33.2790012 142.7134997  15.5739988
  34.5030012 141.9314997  15.9999988  33.6489027 142.0917646  16.0515551
  24.3120012 138.7894997  17.2249988  23.5450012 138.2574997  17.0149988
  24.9910012 138.4794997  16.6249988  24.2987022 138.6747506  17.1151648
  27.0520012 133.4174997  13.2369988  26.9530012 134.3644997  13.1319988
  26.3090012 133.0454997  12.7619988  26.9380564 133.4965902  13.1584560
  28.3160012 137.7394997  16.8009988  28.0800012 137.5194997  17.7029988
  27.5320012 137.5324997  16.2909988  28.1778628 137.6814760  16.8553932
  31.0310012 136.8664997  15.8769988  30.0840012 136.8984997  16.0089988
  31.3440012 136.2414997  16.5299988  30.9435475 136.7863207  15.9834455
  32.6650012 135.5004997  17.8819988  32.5690012 134.5484997  17.8759988
  32.3440012 135.7694997  18.7419988  32.6084070 135.4064035  17.9975441
  22.4920012 136.7104997  16.9289988  22.7040012 136.0034997  16.3189988
  22.3810012 136.2724997  17.7729988  22.5059721 136.5547084  16.9596843
  27.2730012 132.7114997  15.9089988  27.9850012 132.0714997  15.8949988
  27.1720012 132.9784997  14.9949988  27.3567939 132.6599938  15.7835650
  27.6270012 134.3944997  17.9619988  27.4950012 133.9184997  17.1419988
  27.0280012 135.1384997  17.9069988  27.5279071 134.4299618  17.8422886
  37.1240012 143.8104997   3.5579988  37.9740012 144.2314997   3.6849988
  37.1300012 143.0704997   4.1649988  37.2411372 143.7680803   3.6574344
  37.5190012 141.8634997   5.3819988  36.7920012 141.3844997   5.7789988
  38.1000012 142.0694997   6.1139988  37.4979375 141.8257090   5.5354129
  37.2780012 144.6484997  10.3289988  38.1110012 144.2704997  10.0489988
  37.3900012 145.5914997  10.2099988  37.4072647 144.7242218  10.2745487
  37.7870012 141.7644997   1.7729988  37.2650012 142.1214997   1.0539988
  37.7540012 142.4394997   2.4509988  37.7111634 141.9045413   1.7663145
  36.1360012 139.0044997   0.3239988  36.2320012 139.6714997  -0.3570012
  35.9960012 138.1884997  -0.1580012  36.1302135 138.9854500   0.1658491
  35.3050012 140.3844997   5.9449988  35.1550012 139.4394997   5.9239988
  34.9520012 140.6654997   6.7879988  35.2366625 140.2930441   6.0562346
  20.3410012 142.4624997   9.9549988  20.5250012 142.3804997   9.0189988
  21.1900012 142.3384997  10.3789988  20.4810139 142.4345003   9.8841455
  36.1620012 142.3544997  15.5829988  36.7450012 141.6204997  15.7749988
  36.7260012 143.1264997  15.6299988  36.3179769 142.3584227  15.6156159
  37.6580012 140.2574997  16.2679988  36.7950012 139.8784997  16.1019988
  38.2630012 139.5184997  16.1939988  37.6215979 140.1058023  16.2352817
  35.3830012 136.4124997  -0.5590012  35.9940012 136.0414997   0.0779988
  34.5470012 135.9914997  -0.3630012  35.3535032 136.3047554  -0.4452965
  35.0160012 137.9674997   4.4069988  35.2960012 137.0604997   4.5309988
  35.7750012 138.4014997   4.0179988  35.1569277 137.9020942   4.3713682
  35.6280012 138.5484997   9.8429988  36.5610012 138.7604997   9.8089988
  35.3930012 138.6504997  10.7649988  35.7238036 138.5912769   9.9629976
  35.6570012 139.2854997  12.6189988  34.8140012 139.5534997  12.9849988
  36.0990012 140.1074997  12.4079988  35.6014158 139.4333291  12.6405491
  19.9380012 137.7334997  16.0959988  20.8580012 137.6114997  16.3319988
  19.4890012 136.9834997  16.4849988  20.0031580 137.6153727  16.1809006
  37.9400012 133.2654997  17.9719988  38.2900012 132.6114997  17.3669988
  38.0870012 134.1024997  17.5329988  38.0078419 133.2891591  17.8297118
  35.6290012 135.2304997   4.4549988  35.8120012 134.7814997   5.2809988
  35.0300012 134.6454997   3.9919988  35.5730202 135.0899975   4.5053275
  21.1590012 136.0454997   8.9869988  21.6050012 135.2534997   9.2889988
  21.6260012 136.7614997   9.4179988  21.2830172 136.0340624   9.0864820
  19.4630012 139.0444997  10.0559988  19.9550012 138.8234997   9.2649988
  19.8260012 139.8854997  10.3369988  19.5793126 139.1278357   9.9857531
  37.4600012 135.3744997  16.3219988  36.5420012 135.6454997  16.2859988
  37.5830012 134.8394997  15.5369988  37.3511066 135.3392892  16.2110487
  37.4960012 135.2974997   0.9829988  37.9080012 134.5764997   0.5079988
  38.1780012 135.9674997   1.0419988  37.6445885 135.2892368   0.9258915
  19.7770012 135.3024997   4.1099988  18.8520012 135.5114997   3.9809988
  20.2310012 135.7864997   3.4209988  19.7117368 135.3965993   3.9991226
  19.7410012 134.0404997  12.4549988  19.0760012 133.7944997  13.0979988
  19.2980012 134.6624997  11.8769988  19.5900956 134.0908632  12.4649352
  36.4600012 133.4644997  14.1409988  35.6480012 133.7894997  13.7529988
  36.6930012 132.7044997  13.6079988  36.3803423 133.4062436  14.0158253
  29.8900012 134.9134997   8.4629988  29.2160012 134.2844997   8.7189988
  30.4540012 134.4294997   7.8599988  29.8739230 134.7618744   8.4165340
  35.0330012 133.0214997   8.5759988  35.6370012 133.5684997   8.0739988
  34.1630012 133.3404997   8.3359988  34.9981241 133.1395806   8.4747654
  36.7600012 134.1594997   6.9089988  37.3720012 133.6454997   6.3829988
  37.1420012 135.0374997   6.9329988  36.8954540 134.2077140   6.8401830
  22.2170012 133.5474997   6.2849988  21.4400012 133.3134997   5.7779988
  22.7470012 132.7504997   6.2939988  22.1822330 133.4076988   6.2167742
  21.0530012 133.3454997   2.0889988  21.4920012 133.9564997   1.4969988
  20.4200012 133.8834997   2.5629988  21.0274514 133.5019257   2.0720930
  26.7960012 133.4744997   6.0989988  27.6710012 133.8624997   6.0689988
  26.6600012 133.2594997   7.0209988  26.8973695 133.4985184   6.2196440
  32.3530012 133.5044997   7.7479988  32.4290012 133.5994997   6.7979988
  32.0780012 132.5964997   7.8769988  32.3262321 133.3947867   7.6355079
  33.7060012 133.5304997   3.4399988  33.0040012 134.1454997   3.2309988
  33.2620012 132.6924997   3.5709988  33.5496330 133.5015783   3.4290328
  22.9140012 135.2614997   0.5309988  23.4060012 134.6314997   0.0039988
  23.5380012 135.5574997   1.1949988  23.0655446 135.2153199   0.5485980
  27.9400012 135.5544997   2.9879988  28.1180012 134.9084997   3.6709988
  27.8870012 136.3884997   3.4559988  27.9571829 135.5787985   3.1445940
  22.1750012 134.0614997  15.8029988  21.8090012 133.2964997  16.2459988
  23.0880012 134.0904997  16.0899988  22.2482790 133.9607224  15.9024070
  24.1480012 133.4124997  17.3389988  25.0460012 133.1384997  17.1539988
  23.7610012 132.6694997  17.8029988  24.2186612 133.2745914  17.3763643
  32.5690012 132.7444997  17.5209988  32.6460012 132.3184997  18.3749988
  33.4630012 132.7584997  17.1779988  32.7003428 132.6880880  17.5915310
  50.1510012 142.7034997   6.2439988  50.2400012 143.6474997   6.1119988
  49.5130012 142.4284997   5.5859988  50.0769081 142.7954830   6.1369614
  49.0840012 141.9584997   9.6629988  49.0460012 141.3124997  10.3679988
  48.7620012 141.4924997   8.8919988  49.0352333 141.8069408   9.6552978
  41.4530012 141.5734997  11.2559988  41.4940012 140.9474997  11.9789988
  42.1560012 142.1974997  11.4379988  41.5536363 141.5721196  11.3796044
  52.7900012 144.8974997   7.9639988  52.3500012 144.1774997   8.4149988
  52.7770012 145.6184997   8.5939988  52.7280226 144.8963731   8.1108494
  38.9860012 139.6834997   5.1839988  38.5390012 140.5294997   5.1649988
  38.4250012 139.1034997   4.6679988  38.8489900 139.7209916   5.1116801
  39.6970012 141.8454997   7.3099988  39.9100012 141.0754997   7.8369988
  40.4350012 141.9344997   6.7059988  39.8258496 141.7521394   7.3005300
  47.4740012 144.3914997  10.0689988  47.7780012 143.7054997   9.4739988
  48.1950012 144.5094997  10.6869988  47.6130671 144.3136305  10.0711816
  56.1370012 135.9924997  10.9299988  56.1860012 136.6024997  11.6659988
  56.5620012 136.4534997  10.2069988  56.2011824 136.1383741  10.9330205
  50.6150012 138.7854997  10.3969988  50.7570012 137.8394997  10.4169988
  50.5080012 138.9924997   9.4679988  50.6199864 138.6839534  10.2742339
  43.7690012 136.8864997   7.6689988  43.8130012 137.7464997   7.2509988
  43.3120012 136.3344997   7.0349988  43.7132185 136.9295799   7.5260299
  51.4920012 137.0174997   6.0699988  52.1380012 136.6884997   6.6949988
  52.0020012 137.5354997   5.4469988  51.6494264 137.0424611   6.0713862
  40.3900012 139.2834997   8.4309988  41.0430012 138.7334997   8.8629988
  40.4140012 139.0094997   7.5139988  40.4826683 139.1711466   8.3662123
  45.5460012 140.8334997   7.6459988  46.1620012 140.3074997   8.1559988
  44.9600012 140.1934997   7.2429988  45.5510810 140.6749208   7.6613173
  56.5280012 137.4704997  13.1659988  55.8400012 138.1284997  13.0699988
  56.5440012 137.2734997  14.1019988  56.4358525 137.5340462  13.2794808
  42.5800012 135.8044997  11.7429988  42.3610012 136.3344997  10.9769988
  41.9120012 136.0314997  12.3899988  42.4597600 135.9076906  11.7256379
  45.1490012 143.4804997  12.0299988  44.4090012 144.0784997  12.1339988
  45.8630012 144.0344997  11.7149988  45.1442237 143.6372831  12.0016465
  53.2560012 136.3084997   8.0499988  53.0400012 135.5424997   8.5829988
  53.9110012 136.7804997   8.5629988  53.3150632 136.2675889   8.1922861
  42.1730012 137.6964997   9.6949988  42.7870012 138.3294997  10.0689988
  42.6850012 137.2244997   9.0389988  42.3262296 137.7192370   9.6574252
  53.6030012 135.0234997  11.7299988  52.8670012 135.6344997  11.6919988
  54.2860012 135.4384997  11.2029988  53.5946541 135.1631374  11.6535832
  46.6060012 133.1104997   9.1959988  46.4890012 132.1614997   9.1409988
  45.7510012 133.4424997   9.4689988  46.4743733 133.0255409   9.2253897
  54.4000012 144.9854997  13.9239988  54.5400012 144.3944997  13.1839988
  54.5670012 145.8584997  13.5669988  54.4416778 145.0226426  13.7746965
  48.8730012 141.9474997   3.6959988  48.1610012 142.4824997   3.3439988
  49.5640012 142.0034997   3.0359988  48.8690132 142.0282543   3.5586289
  48.9260012 140.4054997   0.7349988  49.6270012 140.4274997   1.3859988
  49.2290012 139.7774997   0.0789988  49.0627830 140.3236566   0.7353711
  56.2420012 141.3254997  11.9899988  55.5890012 142.0204997  12.0789988
  56.7070012 141.5354997  11.1799988  56.2155390 141.4489425  11.8926883
  52.2780012 142.1574997   4.6479988  51.5460012 142.3854997   5.2209988
  52.7260012 141.4434997   5.1029988  52.2383095 142.0922571   4.7879119
  52.1760012 140.3314997  13.7149988  52.2560012 141.0944997  14.2869988
  51.5740012 140.6104997  13.0249988  52.1055756 140.4737134  13.7000589
  43.9240012 142.7874997   6.5299988  43.5930012 142.4174997   5.7119988
  44.5120012 142.1174997   6.8769988  43.9581873 142.6461156   6.4648102
  44.2900012 141.5564997  10.1639988  44.8560012 141.6774997   9.4009988
  44.6090012 142.1934997  10.8029988  44.4105786 141.6591884  10.1460040
  51.1490012 141.3194997   2.3329988  51.7290012 141.4694997   3.0799988
  51.5630012 141.7904997   1.6099988  51.2842830 141.4036841   2.3374134
  42.0900012 142.1534997  14.1099988  42.1610012 142.8044997  14.8079988
  41.2000012 142.2564997  13.7749988  41.9793117 142.2565936  14.1602700
  54.8480012 133.0694997   2.1459988  53.9480012 133.2084997   2.4409988
  55.1000012 133.9004997   1.7439988  54.7588702 133.2009074   2.1320205
  42.9140012 141.8574997   4.1199988  42.6220012 142.6254997   3.6289988
  42.2400012 141.1974997   3.9569988  42.7829081 141.8734406   4.0307340
  39.0070012 144.2204997  12.9349988  38.5060012 144.1924997  12.1199988
  39.0120012 143.3144997  13.2439988  38.9391526 144.0942278  12.8652872
  54.1070012 139.1594997  15.9809988  53.7000012 139.6404997  15.2599988
  54.1480012 138.2544997  15.6729988  54.0568437 139.1029374  15.8406683
  43.8750012 134.0134997   9.9729988  43.0130012 133.9264997   9.5659988
  43.8520012 134.8694997  10.4009988  43.7540330 134.1172765   9.9751863
  48.5380012 133.7354997  13.3479988  48.9580012 133.3204997  14.1009988
  47.6050012 133.5574997  13.4649988  48.4693644 133.6545900  13.4669539
  51.8640012 137.4914997  14.2009988  51.3500012 137.3654997  14.9989988
  51.7090012 138.4034997  13.9569988  51.7726852 137.5976132  14.2772158
  52.6270012 142.3524997  -0.0370012  52.6690012 142.1294997  -0.9670012
  53.4760012 142.7514997   0.1529988  52.7475396 142.3759155  -0.1386373
  48.1990012 136.2284997   0.6329988  47.9460012 136.2474997   1.5559988
  47.9430012 135.3564997   0.3319988  48.1297790 136.1132437   0.7186263
  43.9660012 138.9794997  11.0679988  43.3240012 138.9384997  11.7769988
  44.0030012 139.9054997  10.8309988  43.8831324 139.0991559  11.1329824
  43.9630012 139.2004997   5.9799988  43.0700012 138.8594997   5.9219988
  44.4130012 138.8234997   5.2249988  43.9017305 139.1028484   5.8699177
  49.4980012 139.6164997   4.7969988  49.0890012 140.4314997   4.5059988
  50.2190012 139.4764997   4.1829988  49.5394537 139.7092018   4.6741342
  48.6000012 139.7914997  16.2849988  48.0380012 139.0874997  16.6059988
  49.4270012 139.6714997  16.7529988  48.6347095 139.6787883  16.3922330
  50.5030012 139.0624997   7.6109988  50.3080012 139.6674997   6.8959988
  50.6840012 138.2284997   7.1769988  50.5007614 139.0326300   7.4544405
  41.7160012 139.2994997  12.9349988  41.6780012 139.6994997  13.8039988
  41.2250012 138.4824997  13.0259988  41.6444684 139.2438069  13.0661059
  45.0820012 136.6734997  -0.2660012  44.6510012 136.2284997   0.4639988
  44.3640012 137.0454997  -0.7780012  44.9259438 136.6628940  -0.2353201
  38.3240012 136.4154997   6.7859988  38.9550012 136.3864997   7.5049988
  38.7730012 135.9904997   6.0559988  38.4710774 136.3540492   6.7856553
  39.5980012 137.1614997   2.2099988  40.0720012 137.7524997   1.6249988
  38.8810012 137.6924997   2.5569988  39.5659341 137.3140867   2.1768836
  49.7670012 140.7004997  12.2829988  50.0900012 140.0694997  11.6399988
  49.3270012 140.1654997  12.9429988  49.7516895 140.5418441  12.2842850
  46.5440012 136.6274997   7.0669988  45.6330012 136.6844997   7.3549988
  47.0500012 136.5674997   7.8769988  46.4875413 136.6271985   7.2160622
  41.3730012 138.2564997   5.8929988  40.4830012 138.3564997   5.5529988
  41.6690012 137.4144997   5.5469988  41.2912823 138.1563545   5.7997213
  45.0260012 138.2564997   3.5499988  45.9570012 138.3854997   3.7279988
  44.8110012 138.9264997   2.8999988  45.1244247 138.3646565   3.4865747
  50.9490012 135.8624997  10.3309988  50.2730012 135.9934997  10.9949988
  50.4640012 135.7074997   9.5209988  50.7907145 135.8594905  10.3124517
  43.7000012 139.4514997   1.1169988  43.1570012 139.0714997   0.4249988
  44.5330012 139.6454997   0.6879988  43.7384399 139.4258124   0.9644526
  41.8350012 144.0084997  16.2159988  42.5670012 144.2624997  16.7769988
  41.0550012 144.2124997  16.7309988  41.8298232 144.0709177  16.3625760
  47.8640012 139.4154997   8.9539988  48.4290012 138.8684997   8.4069988
  47.7170012 138.8934997   9.7419988  47.9212918 139.2702024   8.9858454
  42.8660012 135.5514997   5.3719988  42.5490012 134.6494997   5.3369988
  43.6480012 135.5534997   4.8189988  42.9282284 135.4281628   5.2924783
  46.4910012 137.8034997  11.3679988  45.6550012 138.2574997  11.4779988
  47.0150012 138.0794997  12.1199988  46.4474414 137.9029376  11.4847136
  47.0350012 144.0164997   3.0519988  46.2900012 143.5094997   2.7299988
  46.9010012 144.0654997   3.9989988  46.9148776 143.9536940   3.1358647
  54.1850012 143.1494997  11.8389988  54.8270012 143.6064997  11.2949988
  53.3550012 143.2624997  11.3759988  54.1605963 143.2272704  11.7020177
  50.9330012 136.8304997   1.2519988  49.9940012 136.9424997   1.0999988
  51.2300012 137.6874997   1.5579988  50.8447666 136.9616443   1.2725768
  48.5540012 144.2004997  14.2889988  48.2090012 143.8194997  15.0959988
  48.3540012 145.1344997  14.3609988  48.4798061 144.2745228  14.4090961
  51.6510012 138.6974997   2.9119988  52.5430012 138.5604997   3.2309988
  51.7080012 139.4884997   2.3759988  51.7806285 138.7856660   2.8831691
  42.1600012 143.3114997   8.8219988  42.9050012 143.3094997   8.2209988
  42.2380012 142.4884997   9.3039988  42.2725518 143.1999315   8.8048929
  39.1680012 141.7724997  14.1369988  39.3910012 141.3544997  14.9689988
  38.5660012 141.1594997  13.7139988  39.1171759 141.6324668  14.1937022
  46.1840012 141.2894997  16.3499988  45.8880012 141.1234997  15.4549988
  47.1160012 141.0694997  16.3389988  46.2694166 141.2370640  16.2260536
  56.5360012 138.9074997   2.6069988  55.9820012 138.5114997   1.9349988
  56.6360012 139.8174997   2.3289988  56.4737059 138.9763586   2.4774401
  56.4990012 144.7074997  15.4439988  55.6480012 144.9454997  15.0769988
  57.0900012 144.6904997  14.6909988  56.4622487 144.7378258  15.2918893
  51.9920012 142.5014997  10.0929988  51.0630012 142.2694997  10.0659988
  52.4430012 141.7244997   9.7629988  51.9259216 142.3647238  10.0446917
  40.2900012 141.6914997   0.8129988  40.9060012 142.3184997   1.1929988
  39.4280012 142.0074997   1.0849988  40.2577698 141.8199430   0.9017183
  45.9620012 144.4924997   5.8029988  45.7210012 145.4174997   5.8439988
  45.2210012 144.0334997   6.1989988  45.8288409 144.5571421   5.8621377
  50.0210012 144.7404997  11.8179988  49.5950012 144.5134997  12.6449988
  50.6010012 144.0024997  11.6359988  50.0411868 144.6095299  11.9065830
  40.8020012 136.5254997  13.6949988  39.9090012 136.8644997  13.6269988
  40.7030012 135.6704997  14.1129988  40.6664164 136.4562588  13.7422235
  53.0900012 144.3424997   3.1189988  52.8120012 143.6144997   3.6749988
  54.0170012 144.4614997   3.3239988  53.1773124 144.2588802   3.2228845
  41.7050012 143.6044997   2.3059988  41.0190012 143.9564997   2.8729988
  42.2270012 144.3674997   2.0589988  41.6816852 143.7558578   2.3502118
  49.5360012 136.2664997  12.5849988  50.2350012 136.3404997  13.2349988
  49.1550012 135.4024997  12.7389988  49.5801767 136.1597624  12.6948322
  50.3210012 135.9184997   3.6819988  50.5410012 136.3904997   2.8789988
  50.8790012 136.3134997   4.3519988  50.4264968 136.0364285   3.6627331
  47.5210012 137.6464997   4.5169988  48.3330012 138.1514997   4.5629988
  47.2760012 137.5014997   5.4309988  47.5990520 137.6960375   4.6468517
  48.0560012 138.6324997  13.7019988  48.1750012 139.2064997  14.4589988
  48.7120012 137.9444997  13.8159988  48.1609757 138.6181079  13.8210825
  48.4040012 134.7274997   5.4549988  48.0580012 135.3454997   6.0999988
  49.0630012 135.2284997   4.9739988  48.4457826 134.8795802   5.4780971
  44.0620012 135.7904997   2.1419988  43.9790012 136.6794997   2.4889988
  44.9520012 135.5254997   2.3739988  44.1709469 135.8761430   2.2207626
  54.2610012 136.5394997  14.5369988  53.3440012 136.8024997  14.4489988
  54.5960012 136.5364997  13.6399988  54.1809900 136.5750224  14.4037919
  52.8630012 140.2904997   8.6319988  52.0650012 139.8754997   8.3039988
  53.3080012 139.5994997   9.1229988  52.8139885 140.1403543   8.6534889
  40.6370012 138.8824997   0.3189988  40.5920012 139.8214997   0.4969988
  39.7490012 138.6464997   0.0489988  40.5108574 138.9791892   0.3068912
  41.4450012 133.6644997   8.9919988  41.2160012 133.7234997   8.0639988
  41.0020012 132.8724997   9.2979988  41.3538530 133.5655753   8.9064786
  39.5700012 144.0274997  17.4369988  39.7140012 143.1254997  17.1499988
  38.7980012 144.3134997  16.9489988  39.4853322 143.9428261  17.3317881
  43.9120012 144.3714997  -0.4310012  43.9760012 143.5774997   0.0999988
  44.5650012 144.2524997  -1.1210012  44.0090241 144.2467148  -0.4515683
  46.2260012 143.9974997  16.8689988  45.8970012 144.2684997  16.0119988
  46.3780012 143.0564997  16.7819988  46.2014809 143.9073862  16.7398244
  51.9600012 143.9134997  14.2529988  52.7060012 144.5014997  14.1329988
  51.2030012 144.4954997  14.3159988  51.9597554 144.0727011  14.2450907
  40.4030012 141.2274997  16.8569988  40.8110012 140.3704997  16.7359988
  40.1430012 141.2424997  17.7779988  40.4237568 141.1120807  16.9649588
  45.0610012 142.3434997   1.8749988  44.6010012 141.8594997   2.5609988
  45.3160012 141.6754997   1.2389988  45.0324902 142.1868731   1.8829334
  44.3500012 140.2364997  14.2309988  43.7320012 140.9114997  14.5109988
  44.6940012 140.5574997  13.3979988  44.3119615 140.3722721  14.1566581
  46.1320012 140.5864997   0.1369988  45.9520012 140.4324997  -0.7900012
  47.0820012 140.6944997   0.1819988  46.2357776 140.5800175   0.0161843
  49.3700012 142.7084997  17.5079988  50.3230012 142.7914997  17.4809988
  49.2090012 141.9964997  18.1279988  49.4786426 142.6236746  17.5880579
  55.5220012 142.9414997  -0.4170012  55.2480012 142.5164997  -1.2300012
  55.5610012 143.8724997  -0.6340012  55.4897699 143.0092484  -0.5576390
  44.6890012 137.5914997  15.3129988  44.8390012 136.8624997  14.7109988
  44.6920012 138.3684997  14.7539988  44.7099302 137.5967851  15.1550692
  45.1020012 135.9614997  12.8059988  45.6380012 136.4124997  12.1539988
  44.2500012 135.8534997  12.3829988  45.0602178 136.0086390  12.6595756
  46.6840012 141.4004997  13.0449988  47.4340012 141.2444997  12.4719988
  46.3450012 142.2524997  12.7699988  46.7408921 141.4942968  12.9293561
  51.0990012 139.2154997  18.0739988  51.2920012 138.2844997  17.9619988
  51.9570012 139.6404997  18.0639988  51.2413020 139.1456389  18.0573361
  52.4160012 142.0044997  16.1509988  52.1350012 142.7134997  15.5739988
  53.3590012 141.9314997  15.9999988  52.5049027 142.0917646  16.0515551
  43.1680012 138.7894997  17.2249988  42.4010012 138.2574997  17.0149988
  43.8470012 138.4794997  16.6249988  43.1547022 138.6747506  17.1151648
  45.9080012 133.4174997  13.2369988  45.8090012 134.3644997  13.1319988
  45.1650012 133.0454997  12.7619988  45.7940564 133.4965902  13.1584560
  47.1720012 137.7394997  16.8009988  46.9360012 137.5194997  17.7029988
  46.3880012 137.5324997  16.2909988  47.0338628 137.6814760  16.8553932
  49.8870012 136.8664997  15.8769988  48.9400012 136.8984997  16.0089988
  50.2000012 136.2414997  16.5299988  49.7995475 136.7863207  15.9834455
  51.5210012 135.5004997  17.8819988  51.4250012 134.5484997  17.8759988
  51.2000012 135.7694997  18.7419988  51.4644070 135.4064035  17.9975441
  41.3480012 136.7104997  16.9289988  41.5600012 136.0034997  16.3189988
  41.2370012 136.2724997  17.7729988  41.3619721 136.5547084  16.9596843
  46.1290012 132.7114997  15.9089988  46.8410012 132.0714997  15.8949988
  46.0280012 132.9784997  14.9949988  46.2127939 132.6599938  15.7835650
  46.4830012 134.3944997  17.9619988  46.3510012 133.9184997  17.1419988
  45.8840012 135.1384997  17.9069988  46.3839071 134.4299618  17.8422886
  55.9800012 143.8104997   3.5579988  56.8300012 144.2314997   3.6849988
  55.9860012 143.0704997   4.1649988  56.0971372 143.7680803   3.6574344
  56.3750012 141.8634997   5.3819988  55.6480012 141.3844997   5.7789988
  56.9560012 142.0694997   6.1139988  56.3539375 141.8257090   5.5354129
  56.1340012 144.6484997  10.3289988  56.9670012 144.2704997  10.0489988
  56.2460012 145.5914997  10.2099988  56.2632647 144.7242218  10.2745487
  56.6430012 141.7644997   1.7729988  56.1210012 142.1214997   1.0539988
  56.6100012 142.4394997   2.4509988  56.5671634 141.9045413   1.7663145
  54.9920012 139.0044997   0.3239988  55.0880012 139.6714997  -0.3570012
  54.8520012 138.1884997  -0.1580012  54.9862135 138.9854500   0.1658491
  54.1610012 140.3844997   5.9449988  54.0110012 139.4394997   5.9239988
  53.8080012 140.6654997   6.7879988  54.0926625 140.2930441   6.0562346
  39.1970012 142.4624997   9.9549988  39.3810012 142.3804997   9.0189988
  40.0460012 142.3384997  10.3789988  39.3370139 142.4345003   9.8841455
  55.0180012 142.3544997  15.5829988  55.6010012 141.6204997  15.7749988
  55.5820012 143.1264997  15.6299988  55.1739769 142.3584227  15.6156159
  56.5140012 140.2574997  16.2679988  55.6510012 139.8784997  16.1019988
  57.1190012 139.5184997  16.1939988  56.4775979 140.1058023  16.2352817
  54.2390012 136.4124997  -0.5590012  54.8500012 136.0414997   0.0779988
  53.4030012 135.9914997  -0.3630012  54.2095032 136.3047554  -0.4452965
  53.8720012 137.9674997   4.4069988  54.1520012 137.0604997   4.5309988
  54.6310012 138.4014997   4.0179988  54.0129277 137.9020942   4.3713682
  54.4840012 138.5484997   9.8429988  55.4170012 138.7604997   9.8089988
  54.2490012 138.6504997  10.7649988  54.5798036 138.5912769   9.9629976
  54.5130012 139.2854997  12.6189988  53.6700012 139.5534997  12.9849988
  54.9550012 140.1074997  12.4079988  54.4574158 139.4333291  12.6405491
  38.7940012 137.7334997  16.0959988  39.7140012 137.6114997  16.3319988
  38.3450012 136.9834997  16.4849988  38.8591580 137.6153727  16.1809006
  56.7960012 133.2654997  17.9719988  57.1460012 132.6114997  17.3669988
  56.9430012 134.1024997  17.5329988  56.8638419 133.2891591  17.8297118
  54.4850012 135.2304997   4.4549988  54.6680012 134.7814997   5.2809988
  53.8860012 134.6454997   3.9919988  54.4290202 135.0899975   4.5053275
  40.0150012 136.0454997   8.9869988  40.4610012 135.2534997   9.2889988
  40.4820012 136.7614997   9.4179988  40.1390172 136.0340624   9.0864820
  38.3190012 139.0444997  10.0559988  38.8110012 138.8234997   9.2649988
  38.6820012 139.8854997  10.3369988  38.4353126 139.1278357   9.9857531
  56.3160012 135.3744997  16.3219988  55.3980012 135.6454997  16.2859988
  56.4390012 134.8394997  15.5369988  56.2071066 135.3392892  16.2110487
  56.3520012 135.2974997   0.9829988  56.7640012 134.5764997   0.5079988
  57.0340012 135.9674997   1.0419988  56.5005885 135.2892368   0.9258915
  38.6330012 135.3024997   4.1099988  37.7080012 135.5114997   3.9809988
  39.0870012 135.7864997   3.4209988  38.5677368 135.3965993   3.9991226
  38.5970012 134.0404997  12.4549988  37.9320012 133.7944997  13.0979988
  38.1540012 134.6624997  11.8769988  38.4460956 134.0908632  12.4649352
  55.3160012 133.4644997  14.1409988  54.5040012 133.7894997  13.7529988
  55.5490012 132.7044997  13.6079988  55.2363423 133.4062436  14.0158253
  48.7460012 134.9134997   8.4629988  48.0720012 134.2844997   8.7189988
  49.3100012 134.4294997   7.8599988  48.7299230 134.7618744   8.4165340
  53.8890012 133.0214997   8.5759988  54.4930012 133.5684997   8.0739988
  53.0190012 133.3404997   8.3359988  53.8541241 133.1395806   8.4747654
  55.6160012 134.1594997   6.9089988  56.2280012 133.6454997   6.3829988
  55.9980012 135.0374997   6.9329988  55.7514540 134.2077140   6.8401830
  41.0730012 133.5474997   6.2849988  40.2960012 133.3134997   5.7779988
  41.6030012 132.7504997   6.2939988  41.0382330 133.4076988   6.2167742
  39.9090012 133.3454997   2.0889988  40.3480012 133.9564997   1.4969988
  39.2760012 133.8834997   2.5629988  39.8834514 133.5019257   2.0720930
  45.6520012 133.4744997   6.0989988  46.5270012 133.8624997   6.0689988
  45.5160012 133.2594997   7.0209988  45.7533695 133.4985184   6.2196440
  51.2090012 133.5044997   7.7479988  51.2850012 133.5994997   6.7979988
  50.9340012 132.5964997   7.8769988  51.1822321 133.3947867   7.6355079
  52.5620012 133.5304997   3.4399988  51.8600012 134.1454997   3.2309988
  52.1180012 132.6924997   3.5709988  52.4056330 133.5015783   3.4290328
  41.7700012 135.2614997   0.5309988  42.2620012 134.6314997   0.0039988
  42.3940012 135.5574997   1.1949988  41.9215446 135.2153199   0.5485980
  46.7960012 135.5544997   2.9879988  46.9740012 134.9084997   3.6709988
  46.7430012 136.3884997   3.4559988  46.8131829 135.5787985   3.1445940
  41.0310012 134.0614997  15.8029988  40.6650012 133.2964997  16.2459988
  41.9440012 134.0904997  16.0899988  41.1042790 133.9607224  15.9024070
  43.0040012 133.4124997  17.3389988  43.9020012 133.1384997  17.1539988
  42.6170012 132.6694997  17.8029988  43.0746612 133.2745914  17.3763643
  51.4250012 132.7444997  17.5209988  51.5020012 132.3184997  18.3749988
  52.3190012 132.7584997  17.1779988  51.5563428 132.6880880  17.5915310
  69.0070012 142.7034997   6.2439988  69.0960012 143.6474997   6.1119988
  68.3690012 142.4284997   5.5859988  68.9329081 142.7954830   6.1369614
  67.9400012 141.9584997   9.6629988  67.9020012 141.3124997  10.3679988
  67.6180012 141.4924997   8.8919988  67.8912333 141.8069408   9.6552978
  60.3090012 141.5734997  11.2559988  60.3500012 140.9474997  11.9789988
  61.0120012 142.1974997  11.4379988  60.4096363 141.5721196  11.3796044
  71.6460012 144.8974997   7.9639988  71.2060012 144.1774997   8.4149988
  71.6330012 145.6184997   8.5939988  71.5840226 144.8963731   8.1108494
  57.8420012 139.6834997   5.1839988  57.3950012 140.5294997   5.1649988
  57.2810012 139.1034997   4.6679988  57.7049900 139.7209916   5.1116801
  58.5530012 141.8454997   7.3099988  58.7660012 141.0754997   7.8369988
  59.2910012 141.9344997   6.7059988  58.6818496 141.7521394   7.3005300
  66.3300012 144.3914997  10.0689988  66.6340012 143.7054997   9.4739988
  67.0510012 144.5094997  10.6869988  66.4690671 144.3136305  10.0711816
  74.9930012 135.9924997  10.9299988  75.0420012 136.6024997  11.6659988
  75.4180012 136.4534997  10.2069988  75.0571824 136.1383741  10.9330205
  69.4710012 138.7854997  10.3969988  69.6130012 137.8394997  10.4169988
  69.3640012 138.9924997   9.4679988  69.4759863 138.6839534  10.2742339
  62.6250012 136.8864997   7.6689988  62.6690012 137.7464997   7.2509988
  62.1680012 136.3344997   7.0349988  62.5692185 136.9295799   7.5260299
  70.3480012 137.0174997   6.0699988  70.9940012 136.6884997   6.6949988
  70.8580012 137.5354997   5.4469988  70.5054264 137.0424611   6.0713862
  59.2460012 139.2834997   8.4309988  59.8990012 138.7334997   8.8629988
  59.2700012 139.0094997   7.5139988  59.3386683 139.1711466   8.3662123
  64.4020012 140.8334997   7.6459988  65.0180012 140.3074997   8.1559988
  63.8160012 140.1934997   7.2429988  64.4070810 140.6749208   7.6613173
  75.3840012 137.4704997  13.1659988  74.6960012 138.1284997  13.0699988
  75.4000012 137.2734997  14.1019988  75.2918525 137.5340462  13.2794808
  61.4360012 135.8044997  11.7429988  61.2170012 136.3344997  10.9769988
  60.7680012 136.0314997  12.3899988  61.3157600 135.9076906  11.7256379
  64.0050012 143.4804997  12.0299988  63.2650012 144.0784997  12.1339988
  64.7190012 144.0344997  11.7149988  64.0002237 143.6372831  12.0016465
  72.1120012 136.3084997   8.0499988  71.8960012 135.5424997   8.5829988
  72.7670012 136.7804997   8.5629988  72.1710632 136.2675889   8.1922861
  61.0290012 137.6964997   9.6949988  61.6430012 138.3294997  10.0689988
  61.5410012 137.2244997   9.0389988  61.1822296 137.7192370   9.6574252
  72.4590012 135.0234997  11.7299988  71.7230012 135.6344997  11.6919988
  73.1420012 135.4384997  11.2029988  72.4506541 135.1631374  11.6535832
  65.4620012 133.1104997   9.1959988  65.3450012 132.1614997   9.1409988
  64.6070012 133.4424997   9.4689988  65.3303733 133.0255409   9.2253897
  73.2560012 144.9854997  13.9239988  73.3960012 144.3944997  13.1839988
  73.4230012 145.8584997  13.5669988  73.2976778 145.0226426  13.7746965
  67.7290012 141.9474997   3.6959988  67.0170012 142.4824997   3.3439988
  68.4200012 142.0034997   3.0359988  67.7250132 142.0282543   3.5586289
  67.7820012 140.4054997   0.7349988  68.4830012 140.4274997   1.3859988
  68.0850012 139.7774997   0.0789988  67.9187830 140.3236566   0.7353711
  75.0980012 141.3254997  11.9899988  74.4450012 142.0204997  12.0789988
  75.5630012 141.5354997  11.1799988  75.0715390 141.4489425  11.8926883
  71.1340012 142.1574997   4.6479988  70.4020012 142.3854997   5.2209988
  71.5820012 141.4434997   5.1029988  71.0943095 142.0922571   4.7879119
  71.0320012 140.3314997  13.7149988  71.1120012 141.0944997  14.2869988
  70.4300012 140.6104997  13.0249988  70.9615756 140.4737134  13.7000589
  62.7800012 142.7874997   6.5299988  62.4490012 142.4174997   5.7119988
  63.3680012 142.1174997   6.8769988  62.8141873 142.6461156   6.4648102
  63.1460012 141.5564997  10.1639988  63.7120012 141.6774997   9.4009988
  63.4650012 142.1934997  10.8029988  63.2665786 141.6591884  10.1460040
  70.0050012 141.3194997   2.3329988  70.5850012 141.4694997   3.0799988
  70.4190012 141.7904997   1.6099988  70.1402830 141.4036841   2.3374134
  60.9460012 142.1534997  14.1099988  61.0170012 142.8044997  14.8079988
  60.0560012 142.2564997  13.7749988  60.8353117 142.2565936  14.1602700
  73.7040012 133.0694997   2.1459988  72.8040012 133.2084997   2.4409988
  73.9560012 133.9004997   1.7439988  73.6148702 133.2009074   2.1320205
  61.7700012 141.8574997   4.1199988  61.4780012 142.6254997   3.6289988
  61.0960012 141.1974997   3.9569988  61.6389081 141.8734406   4.0307340
  57.8630012 144.2204997  12.9349988  57.3620012 144.1924997  12.1199988
  57.8680012 143.3144997  13.2439988  57.7951526 144.0942278  12.8652872
  72.9630012 139.1594997  15.9809988  72.5560012 139.6404997  15.2599988
  73.0040012 138.2544997  15.6729988  72.9128437 139.1029374  15.8406683
  62.7310012 134.0134997   9.9729988  61.8690012 133.9264997   9.5659988
  62.7080012 134.8694997  10.4009988  62.6100330 134.1172765   9.9751863
  67.3940012 133.7354997  13.3479988  67.8140012 133.3204997  14.1009988
  66.4610012 133.5574997  13.4649988  67.3253644 133.6545900  13.4669539
  70.7200012 137.4914997  14.2009988  70.2060012 137.3654997  14.9989988
  70.5650012 138.4034997  13.9569988  70.6286852 137.5976132  14.2772158
  71.4830012 142.3524997  -0.0370012  71.5250012 142.1294997  -0.9670012
  72.3320012 142.7514997   0.1529988  71.6035396 142.3759155  -0.1386373
  67.0550012 136.2284997   0.6329988  66.8020012 136.2474997   1.5559988
  66.7990012 135.3564997   0.3319988  66.9857790 136.1132437   0.7186263
  62.8220012 138.9794997  11.0679988  62.1800012 138.9384997  11.7769988
  62.8590012 139.9054997  10.8309988  62.7391324 139.0991559  11.1329824
  62.8190012 139.2004997   5.9799988  61.9260012 138.8594997   5.9219988
  63.2690012 138.8234997   5.2249988  62.7577305 139.1028484   5.8699177
  68.3540012 139.6164997   4.7969988  67.9450012 140.4314997   4.5059988
  69.0750012 139.4764997   4.1829988  68.3954537 139.7092018   4.6741342
  67.4560012 139.7914997  16.2849988  66.8940012 139.0874997  16.6059988
  68.2830012 139.6714997  16.7529988  67.4907095 139.6787883  16.3922330
  69.3590012 139.0624997   7.6109988  69.1640012 139.6674997   6.8959988
  69.5400012 138.2284997   7.1769988  69.3567614 139.0326300   7.4544405
  60.5720012 139.2994997  12.9349988  60.5340012 139.6994997  13.8039988
  60.0810012 138.4824997  13.0259988  60.5004684 139.2438069  13.0661059
  63.9380012 136.6734997  -0.2660012  63.5070012 136.2284997   0.4639988
  63.2200012 137.0454997  -0.7780012  63.7819438 136.6628940  -0.2353201
  57.1800012 136.4154997   6.7859988  57.8110012 136.3864997   7.5049988
  57.6290012 135.9904997   6.0559988  57.3270774 136.3540492   6.7856553
  58.4540012 137.1614997   2.2099988  58.9280012 137.7524997   1.6249988
  57.7370012 137.6924997   2.5569988  58.4219341 137.3140867   2.1768836
  68.6230012 140.7004997  12.2829988  68.9460012 140.0694997  11.6399988
  68.1830012 140.1654997  12.9429988  68.6076895 140.5418441  12.2842850
  65.4000012 136.6274997   7.0669988  64.4890012 136.6844997   7.3549988
  65.9060012 136.5674997   7.8769988  65.3435413 136.6271985   7.2160622
  60.2290012 138.2564997   5.8929988  59.3390012 138.3564997   5.5529988
  60.5250012 137.4144997   5.5469988  60.1472823 138.1563545   5.7997213
  63.8820012 138.2564997   3.5499988  64.8130012 138.3854997   3.7279988
  63.6670012 138.9264997   2.8999988  63.9804247 138.3646565   3.4865747
  69.8050012 135.8624997  10.3309988  69.1290012 135.9934997  10.9949988
  69.3200012 135.7074997   9.5209988  69.6467145 135.8594905  10.3124517
  62.5560012 139.4514997   1.1169988  62.0130012 139.0714997   0.4249988
  63.3890012 139.6454997   0.6879988  62.5944399 139.4258124   0.9644526
  60.6910012 144.0084997  16.2159988  61.4230012 144.2624997  16.7769988
  59.9110012 144.2124997  16.7309988  60.6858232 144.0709177  16.3625760
  66.7200012 139.4154997   8.9539988  67.2850012 138.8684997   8.4069988
  66.5730012 138.8934997   9.7419988  66.7772918 139.2702024   8.9858454
  61.7220012 135.5514997   5.3719988  61.4050012 134.6494997   5.3369988
  62.5040012 135.5534997   4.8189988  61.7842284 135.4281628   5.2924783
  65.3470012 137.8034997  11.3679988  64.5110012 138.2574997  11.4779988
  65.8710012 138.0794997  12.1199988  65.3034414 137.9029376  11.4847136
  65.8910012 144.0164997   3.0519988  65.1460012 143.5094997   2.7299988
  65.7570012 144.0654997   3.9989988  65.7708776 143.9536940   3.1358647
  73.0410012 143.1494997  11.8389988  73.6830012 143.6064997  11.2949988
  72.2110012 143.2624997  11.3759988  73.0165963 143.2272704  11.7020177
  69.7890012 136.8304997   1.2519988  68.8500012 136.9424997   1.0999988
  70.0860012 137.6874997   1.5579988  69.7007666 136.9616443   1.2725768
  67.4100012 144.2004997  14.2889988  67.0650012 143.8194997  15.0959988
  67.2100012 145.1344997  14.3609988  67.3358061 144.2745228  14.4090961
  70.5070012 138.6974997   2.9119988  71.3990012 138.5604997   3.2309988
  70.5640012 139.4884997   2.3759988  70.6366285 138.7856660   2.8831690
  61.0160012 143.3114997   8.8219988  61.7610012 143.3094997   8.2209988
  61.0940012 142.4884997   9.3039988  61.1285518 143.1999315   8.8048929
  58.0240012 141.7724997  14.1369988  58.2470012 141.3544997  14.9689988
  57.4220012 141.1594997  13.7139988  57.9731759 141.6324668  14.1937022
  65.0400012 141.2894997  16.3499988  64.7440012 141.1234997  15.4549988
  65.9720012 141.0694997  16.3389988  65.1254166 141.2370640  16.2260536
  75.3920012 138.9074997   2.6069988  74.8380012 138.5114997   1.9349988
  75.4920012 139.8174997   2.3289988  75.3297059 138.9763586   2.4774401
  75.3550012 144.7074997  15.4439988  74.5040012 144.9454997  15.0769988
  75.9460012 144.6904997  14.6909988  75.3182487 144.7378258  15.2918893
  70.8480012 142.5014997  10.0929988  69.9190012 142.2694997  10.0659988
  71.2990012 141.7244997   9.7629988  70.7819216 142.3647238  10.0446917
  59.1460012 141.6914997   0.8129988  59.7620012 142.3184997   1.1929988
  58.2840012 142.0074997   1.0849988  59.1137698 141.8199430   0.9017183
  64.8180012 144.4924997   5.8029988  64.5770012 145.4174997   5.8439988
  64.0770012 144.0334997   6.1989988  64.6848409 144.5571421   5.8621377
  68.8770012 144.7404997  11.8179988  68.4510012 144.5134997  12.6449988
  69.4570012 144.0024997  11.6359988  68.8971868 144.6095299  11.9065830
  59.6580012 136.5254997  13.6949988  58.7650012 136.8644997  13.6269988
  59.5590012 135.6704997  14.1129988  59.5224164 136.4562588  13.7422235
  71.9460012 144.3424997   3.1189988  71.6680012 143.6144997   3.6749988
  72.8730012 144.4614997   3.3239988  72.0333124 144.2588802   3.2228845
  60.5610012 143.6044997   2.3059988  59.8750012 143.9564997   2.8729988
  61.0830012 144.3674997   2.0589988  60.5376852 143.7558578   2.3502118
  68.3920012 136.2664997  12.5849988  69.0910012 136.3404997  13.2349988
  68.0110012 135.4024997  12.7389988  68.4361767 136.1597624  12.6948322
  69.1770012 135.9184997   3.6819988  69.3970012 136.3904997   2.8789988
  69.7350012 136.3134997   4.3519988  69.2824968 136.0364285   3.6627331
  66.3770012 137.6464997   4.5169988  67.1890012 138.1514997   4.5629988
  66.1320012 137.5014997   5.4309988  66.4550520 137.6960375   4.6468517
  66.9120012 138.6324997  13.7019988  67.0310012 139.2064997  14.4589988
  67.5680012 137.9444997  13.8159988  67.0169757 138.6181079  13.8210825
  67.2600012 134.7274997   5.4549988  66.9140012 135.3454997   6.0999988
  67.9190012 135.2284997   4.9739988  67.3017826 134.8795802   5.4780971
  62.9180012 135.7904997   2.1419988  62.8350012 136.6794997   2.4889988
  63.8080012 135.5254997   2.3739988  63.0269469 135.8761430   2.2207626
  73.1170012 136.5394997  14.5369988  72.2000012 136.8024997  14.4489988
  73.4520012 136.5364997  13.6399988  73.0369900 136.5750224  14.4037919
  71.7190012 140.2904997   8.6319988  70.9210012 139.8754997   8.3039988
  72.1640012 139.5994997   9.1229988  71.6699885 140.1403543   8.6534889
  59.4930012 138.8824997   0.3189988  59.4480012 139.8214997   0.4969988
  58.6050012 138.6464997   0.0489988  59.3668574 138.9791892   0.3068912
  60.3010012 133.6644997   8.9919988  60.0720012 133.7234997   8.0639988
  59.8580012 132.8724997   9.2979988  60.2098530 133.5655753   8.9064786
  58.4260012 144.0274997  17.4369988  58.5700012 143.1254997  17.1499988
  57.6540012 144.3134997  16.9489988  58.3413322 143.9428261  17.3317881
  62.7680012 144.3714997  -0.4310012  62.8320012 143.5774997   0.0999988
  63.4210012 144.2524997  -1.1210012  62.8650241 144.2467148  -0.4515683
  65.0820012 143.9974997  16.8689988  64.7530012 144.2684997  16.0119988
  65.2340012 143.0564997  16.7819988  65.0574809 143.9073862  16.7398244
  70.8160012 143.9134997  14.2529988  71.5620012 144.5014997  14.1329988
  70.0590012 144.4954997  14.3159988  70.8157554 144.0727011  14.2450907
  59.2590012 141.2274997  16.8569988  59.6670012 140.3704997  16.7359988
  58.9990012 141.2424997  17.7779988  59.2797568 141.1120807  16.9649588
  63.9170012 142.3434997   1.8749988  63.4570012 141.8594997   2.5609988
  64.1720012 141.6754997   1.2389988  63.8884902 142.1868731   1.8829334
  63.2060012 140.2364997  14.2309988  62.5880012 140.9114997  14.5109988
  63.5500012 140.5574997  13.3979988  63.1679615 140.3722721  14.1566581
  64.9880012 140.5864997   0.1369988  64.8080012 140.4324997  -0.7900012
  65.9380012 140.6944997   0.1819988  65.0917776 140.5800175   0.0161843
  68.2260012 142.7084997  17.5079988  69.1790012 142.7914997  17.4809988
  68.0650012 141.9964997  18.1279988  68.3346426 142.6236746  17.5880579
  74.3780012 142.9414997  -0.4170012  74.1040012 142.5164997  -1.2300012
  74.4170012 143.8724997  -0.6340012  74.3457699 143.0092484  -0.5576390
  63.5450012 137.5914997  15.3129988  63.6950012 136.8624997  14.7109988
  63.5480012 138.3684997  14.7539988  63.5659302 137.5967851  15.1550692
  63.9580012 135.9614997  12.8059988  64.4940012 136.4124997  12.1539988
  63.1060012 135.8534997  12.3829988  63.9162178 136.0086390  12.6595756
  65.5400012 141.4004997  13.0449988  66.2900012 141.2444997  12.4719988
  65.2010012 142.2524997  12.7699988  65.5968921 141.4942968  12.9293561
  69.9550012 139.2154997  18.0739988  70.1480012 138.2844997  17.9619988
  70.8130012 139.6404997  18.0639988  70.0973020 139.1456389  18.0573361
  71.2720012 142.0044997  16.1509988  70.9910012 142.7134997  15.5739988
  72.2150012 141.9314997  15.9999988  71.3609027 142.0917646  16.0515551
  62.0240012 138.7894997  17.2249988  61.2570012 138.2574997  17.0149988
  62.7030012 138.4794997  16.6249988  62.0107022 138.6747506  17.1151648
  64.7640012 133.4174997  13.2369988  64.6650012 134.3644997  13.1319988
  64.0210012 133.0454997  12.7619988  64.6500563 133.4965902  13.1584560
  66.0280012 137.7394997  16.8009988  65.7920012 137.5194997  17.7029988
  65.2440012 137.5324997  16.2909988  65.8898628 137.6814760  16.8553932
  68.7430012 136.8664997  15.8769988  67.7960012 136.8984997  16.0089988
  69.0560012 136.2414997  16.5299988  68.6555475 136.7863207  15.9834455
  70.3770012 135.5004997  17.8819988  70.2810012 134.5484997  17.8759988
  70.0560012 135.7694997  18.7419988  70.3204070 135.4064035  17.9975441
  60.2040012 136.7104997  16.9289988  60.4160012 136.0034997  16.3189988
  60.0930012 136.2724997  17.7729988  60.2179721 136.5547084  16.9596843
  64.9850012 132.7114997  15.9089988  65.6970012 132.0714997  15.8949988
  64.8840012 132.9784997  14.9949988  65.0687939 132.6599938  15.7835650
  65.3390012 134.3944997  17.9619988  65.2070012 133.9184997  17.1419988
  64.7400012 135.1384997  17.9069988  65.2399071 134.4299618  17.8422886
  74.8360012 143.8104997   3.5579988  75.6860012 144.2314997   3.6849988
  74.8420012 143.0704997   4.1649988  74.9531372 143.7680803   3.6574344
  75.2310012 141.8634997   5.3819988  74.5040012 141.3844997   5.7789988
  75.8120012 142.0694997   6.1139988  75.2099375 141.8257090   5.5354129
  74.9900012 144.6484997  10.3289988  75.8230012 144.2704997  10.0489988
  75.1020012 145.5914997  10.2099988  75.1192647 144.7242218  10.2745487
  75.4990012 141.7644997   1.7729988  74.9770012 142.1214997   1.0539988
  75.4660012 142.4394997   2.4509988  75.4231634 141.9045413   1.7663145
  73.8480012 139.0044997   0.3239988  73.9440012 139.6714997  -0.3570012
  73.7080012 138.1884997  -0.1580012  73.8422135 138.9854500   0.1658491
  73.0170012 140.3844997   5.9449988  72.8670012 139.4394997   5.9239988
  72.6640012 140.6654997   6.7879988  72.9486625 140.2930441   6.0562346
  58.0530012 142.4624997   9.9549988  58.2370012 142.3804997   9.0189988
  58.9020012 142.3384997  10.3789988  58.1930139 142.4345003   9.8841455
  73.8740012 142.3544997  15.5829988  74.4570012 141.6204997  15.7749988
  74.4380012 143.1264997  15.6299988  74.0299769 142.3584227  15.6156159
  75.3700012 140.2574997  16.2679988  74.5070012 139.8784997  16.1019988
  75.9750012 139.5184997  16.1939988  75.3335979 140.1058023  16.2352817
  73.0950012 136.4124997  -0.5590012  73.7060012 136.0414997   0.0779988
  72.2590012 135.9914997  -0.3630012  73.0655032 136.3047554  -0.4452965
  72.7280012 137.9674997   4.4069988  73.0080012 137.0604997   4.5309988
  73.4870012 138.4014997   4.0179988  72.8689277 137.9020942   4.3713682
  73.3400012 138.5484997   9.8429988  74.2730012 138.7604997   9.8089988
  73.1050012 138.6504997  10.7649988  73.4358036 138.5912769   9.9629976
  73.3690012 139.2854997  12.6189988  72.5260012 139.5534997  12.9849988
  73.8110012 140.1074997  12.4079988  73.3134158 139.4333291  12.6405491
  57.6500012 137.7334997  16.0959988  58.5700012 137.6114997  16.3319988
  57.2010012 136.9834997  16.4849988  57.7151580 137.6153727  16.1809006
  75.6520012 133.2654997  17.9719988  76.0020012 132.6114997  17.3669988
  75.7990012 134.1024997  17.5329988  75.7198419 133.2891591  17.8297118
  73.3410012 135.2304997   4.4549988  73.5240012 134.7814997   5.2809988
  72.7420012 134.6454997   3.9919988  73.2850202 135.0899975   4.5053275
  58.8710012 136.0454997   8.9869988  59.3170012 135.2534997   9.2889988
  59.3380012 136.7614997   9.4179988  58.9950172 136.0340624   9.0864820
  57.1750012 139.0444997  10.0559988  57.6670012 138.8234997   9.2649988
  57.5380012 139.8854997  10.3369988  57.2913126 139.1278357   9.9857531
  75.1720012 135.3744997  16.3219988  74.2540012 135.6454997  16.2859988
  75.2950012 134.8394997  15.5369988  75.0631066 135.3392892  16.2110487
  75.2080012 135.2974997   0.9829988  75.6200012 134.5764997   0.5079988
  75.8900012 135.9674997   1.0419988  75.3565885 135.2892368   0.9258915
  57.4890012 135.3024997   4.1099988  56.5640012 135.5114997   3.9809988
  57.9430012 135.7864997   3.4209988  57.4237368 135.3965994   3.9991226
  57.4530012 134.0404997  12.4549988  56.7880012 133.7944997  13.0979988
  57.0100012 134.6624997  11.8769988  57.3020956 134.0908632  12.4649352
  74.1720012 133.4644997  14.1409988  73.3600012 133.7894997  13.7529988
  74.4050012 132.7044997  13.6079988  74.0923423 133.4062436  14.0158253
  67.6020012 134.9134997   8.4629988  66.9280012 134.2844997   8.7189988
  68.1660012 134.4294997   7.8599988  67.5859230 134.7618744   8.4165340
  72.7450012 133.0214997   8.5759988  73.3490012 133.5684997   8.0739988
  71.8750012 133.3404997   8.3359988  72.7101241 133.1395806   8.4747654
  74.4720012 134.1594997   6.9089988  75.0840012 133.6454997   6.3829988
  74.8540012 135.0374997   6.9329988  74.6074540 134.2077140   6.8401830
  59.9290012 133.5474997   6.2849988  59.1520012 133.3134997   5.7779988
  60.4590012 132.7504997   6.2939988  59.8942330 133.4076988   6.2167742
  58.7650012 133.3454997   2.0889988  59.2040012 133.9564997   1.4969988
  58.1320012 133.8834997   2.5629988  58.7394514 133.5019257   2.0720930
  64.5080012 133.4744997   6.0989988  65.3830012 133.8624997   6.0689988
  64.3720012 133.2594997   7.0209988  64.6093695 133.4985184   6.2196440
  70.0650012 133.5044997   7.7479988  70.1410012 133.5994997   6.7979988
  69.7900012 132.5964997   7.8769988  70.0382321 133.3947867   7.6355079
  71.4180012 133.5304997   3.4399988  70.7160012 134.1454997   3.2309988
  70.9740012 132.6924997   3.5709988  71.2616330 133.5015783   3.4290328
  60.6260012 135.2614997   0.5309988  61.1180012 134.6314997   0.0039988
  61.2500012 135.5574997   1.1949988  60.7775446 135.2153199   0.5485980
  65.6520012 135.5544997   2.9879988  65.8300012 134.9084997   3.6709988
  65.5990012 136.3884997   3.4559988  65.6691829 135.5787985   3.1445940
  59.8870012 134.0614997  15.8029988  59.5210012 133.2964997  16.2459988
  60.8000012 134.0904997  16.0899988  59.9602790 133.9607224  15.9024070
  61.8600012 133.4124997  17.3389988  62.7580012 133.1384997  17.1539988
  61.4730012 132.6694997  17.8029988  61.9306612 133.2745914  17.3763643
  70.2810012 132.7444997  17.5209988  70.3580012 132.3184997  18.3749988
  71.1750012 132.7584997  17.1779988  70.4123428 132.6880879  17.5915310
  87.8630012 142.7034997   6.2439988  87.9520012 143.6474997   6.1119988
  87.2250012 142.4284997   5.5859988  87.7889081 142.7954830   6.1369614
  86.7960012 141.9584997   9.6629988  86.7580012 141.3124997  10.3679988
  86.4740012 141.4924997   8.8919988  86.7472333 141.8069408   9.6552978
  79.1650012 141.5734997  11.2559988  79.2060012 140.9474997  11.9789988
  79.8680012 142.1974997  11.4379988  79.2656363 141.5721196  11.3796044
  90.5020012 144.8974997   7.9639988  90.0620012 144.1774997   8.4149988
  90.4890012 145.6184997   8.5939988  90.4400226 144.8963731   8.1108494
  76.6980012 139.6834997   5.1839988  76.2510012 140.5294997   5.1649988
  76.1370012 139.1034997   4.6679988  76.5609900 139.7209916   5.1116801
  77.4090012 141.8454997   7.3099988  77.6220012 141.0754997   7.8369988
  78.1470012 141.9344997   6.7059988  77.5378496 141.7521394   7.3005300
  85.1860012 144.3914997  10.0689988  85.4900012 143.7054997   9.4739988
  85.9070012 144.5094997  10.6869988  85.3250671 144.3136305  10.0711816
  93.8490012 135.9924997  10.9299988  93.8980012 136.6024997  11.6659988
  94.2740012 136.4534997  10.2069988  93.9131824 136.1383741  10.9330205
  88.3270012 138.7854997  10.3969988  88.4690012 137.8394997  10.4169988
  88.2200012 138.9924997   9.4679988  88.3319864 138.6839534  10.2742339
  81.4810012 136.8864997   7.6689988  81.5250012 137.7464997   7.2509988
  81.0240012 136.3344997   7.0349988  81.4252185 136.9295799   7.5260299
  89.2040012 137.0174997   6.0699988  89.8500012 136.6884997   6.6949988
  89.7140012 137.5354997   5.4469988  89.3614264 137.0424611   6.0713862
  78.1020012 139.2834997   8.4309988  78.7550012 138.7334997   8.8629988
  78.1260012 139.0094997   7.5139988  78.1946683 139.1711466   8.3662123
  83.2580012 140.8334997   7.6459988  83.8740012 140.3074997   8.1559988
  82.6720012 140.1934997   7.2429988  83.2630810 140.6749208   7.6613173
  94.2400012 137.4704997  13.1659988  93.5520012 138.1284997  13.0699988
  94.2560012 137.2734997  14.1019988  94.1478525 137.5340462  13.2794808
  80.2920012 135.8044997  11.7429988  80.0730012 136.3344997  10.9769988
  79.6240012 136.0314997  12.3899988  80.1717600 135.9076906  11.7256379
  82.8610012 143.4804997  12.0299988  82.1210012 144.0784997  12.1339988
  83.5750012 144.0344997  11.7149988  82.8562237 143.6372831  12.0016465
  90.9680012 136.3084997   8.0499988  90.7520012 135.5424997   8.5829988
  91.6230012 136.7804997   8.5629988  91.0270632 136.2675889   8.1922861
  79.8850012 137.6964997   9.6949988  80.4990012 138.3294997  10.0689988
  80.3970012 137.2244997   9.0389988  80.0382296 137.7192370   9.6574252
  91.3150012 135.0234997  11.7299988  90.5790012 135.6344997  11.6919988
  91.9980012 135.4384997  11.2029988  91.3066541 135.1631374  11.6535832
  84.3180012 133.1104997   9.1959988  84.2010012 132.1614997   9.1409988
  83.4630012 133.4424997   9.4689988  84.1863733 133.0255409   9.2253897
  92.1120012 144.9854997  13.9239988  92.2520012 144.3944997  13.1839988
  92.2790012 145.8584997  13.5669988  92.1536778 145.0226426  13.7746965
  86.5850012 141.9474997   3.6959988  85.8730012 142.4824997   3.3439988
  87.2760012 142.0034997   3.0359988  86.5810132 142.0282543   3.5586289
  86.6380012 140.4054997   0.7349988  87.3390012 140.4274997   1.3859988
  86.9410012 139.7774997   0.0789988  86.7747830 140.3236566   0.7353711
  93.9540012 141.3254997  11.9899988  93.3010012 142.0204997  12.0789988
  94.4190012 141.5354997  11.1799988  93.9275390 141.4489425  11.8926883
  89.9900012 142.1574997   4.6479988  89.2580012 142.3854997   5.2209988
  90.4380012 141.4434997   5.1029988  89.9503095 142.0922571   4.7879119
  89.8880012 140.3314997  13.7149988  89.9680012 141.0944997  14.2869988
  89.2860012 140.6104997  13.0249988  89.8175756 140.4737134  13.7000589
  81.6360012 142.7874997   6.5299988  81.3050012 142.4174997   5.7119988
  82.2240012 142.1174997   6.8769988  81.6701873 142.6461156   6.4648102
  82.0020012 141.5564997  10.1639988  82.5680012 141.6774997   9.4009988
  82.3210012 142.1934997  10.8029988  82.1225786 141.6591884  10.1460040
  88.8610012 141.3194997   2.3329988  89.4410012 141.4694997   3.0799988
  89.2750012 141.7904997   1.6099988  88.9962830 141.4036841   2.3374134
  79.8020012 142.1534997  14.1099988  79.8730012 142.8044997  14.8079988
  78.9120012 142.2564997  13.7749988  79.6913117 142.2565936  14.1602700
  92.5600012 133.0694997   2.1459988  91.6600012 133.2084997   2.4409988
  92.8120012 133.9004997   1.7439988  92.4708702 133.2009074   2.1320205
  80.6260012 141.8574997   4.1199988  80.3340012 142.6254997   3.6289988
  79.9520012 141.1974997   3.9569988  80.4949081 141.8734406   4.0307340
  76.7190012 144.2204997  12.9349988  76.2180012 144.1924997  12.1199988
  76.7240012 143.3144997  13.2439988  76.6511526 144.0942278  12.8652872
  91.8190012 139.1594997  15.9809988  91.4120012 139.6404997  15.2599988
  91.8600012 138.2544997  15.6729988  91.7688437 139.1029374  15.8406683
  81.5870012 134.0134997   9.9729988  80.7250012 133.9264997   9.5659988
  81.5640012 134.8694997  10.4009988  81.4660330 134.1172765   9.9751863
  86.2500012 133.7354997  13.3479988  86.6700012 133.3204997  14.1009988
  85.3170012 133.5574997  13.4649988  86.1813644 133.6545900  13.4669539
  89.5760012 137.4914997  14.2009988  89.0620012 137.3654997  14.9989988
  89.4210012 138.4034997  13.9569988  89.4846852 137.5976132  14.2772158
  90.3390012 142.3524997  -0.0370012  90.3810012 142.1294997  -0.9670012
  91.1880012 142.7514997   0.1529988  90.4595396 142.3759155  -0.1386373
  85.9110012 136.2284997   0.6329988  85.6580012 136.2474997   1.5559988
  85.6550012 135.3564997   0.3319988  85.8417790 136.1132437   0.7186263
  81.6780012 138.9794997  11.0679988  81.0360012 138.9384997  11.7769988
  81.7150012 139.9054997  10.8309988  81.5951324 139.0991559  11.1329824
  81.6750012 139.2004997   5.9799988  80.7820012 138.8594997   5.9219988
  82.1250012 138.8234997   5.2249988  81.6137305 139.1028484   5.8699177
  87.2100012 139.6164997   4.7969988  86.8010012 140.4314997   4.5059988
  87.9310012 139.4764997   4.1829988  87.2514537 139.7092018   4.6741342
  86.3120012 139.7914997  16.2849988  85.7500012 139.0874997  16.6059988
  87.1390012 139.6714997  16.7529988  86.3467095 139.6787883  16.3922330
  88.2150012 139.0624997   7.6109988  88.0200012 139.6674997   6.8959988
  88.3960012 138.2284997   7.1769988  88.2127614 139.0326300   7.4544405
  79.4280012 139.2994997  12.9349988  79.3900012 139.6994997  13.8039988
  78.9370012 138.4824997  13.0259988  79.3564684 139.2438069  13.0661059
  82.7940012 136.6734997  -0.2660012  82.3630012 136.2284997   0.4639988
  82.0760012 137.0454997  -0.7780012  82.6379438 136.6628940  -0.2353201
  76.0360012 136.4154997   6.7859988  76.6670012 136.3864997   7.5049988
  76.4850012 135.9904997   6.0559988  76.1830774 136.3540492   6.7856553
  77.3100012 137.1614997   2.2099988  77.7840012 137.7524997   1.6249988
  76.5930012 137.6924997   2.5569988  77.2779341 137.3140867   2.1768836
  87.4790012 140.7004997  12.2829988  87.8020012 140.0694997  11.6399988
  87.0390012 140.1654997  12.9429988  87.4636895 140.5418441  12.2842850
  84.2560012 136.6274997   7.0669988  83.3450012 136.6844997   7.3549988
  84.7620012 136.5674997   7.8769988  84.1995413 136.6271985   7.2160622
  79.0850012 138.2564997   5.8929988  78.1950012 138.3564997   5.5529988
  79.3810012 137.4144997   5.5469988  79.0032823 138.1563545   5.7997213
  82.7380012 138.2564997   3.5499988  83.6690012 138.3854997   3.7279988
  82.5230012 138.9264997   2.8999988  82.8364247 138.3646565   3.4865747
  88.6610012 135.8624997  10.3309988  87.9850012 135.9934997  10.9949988
  88.1760012 135.7074997   9.5209988  88.5027145 135.8594905  10.3124517
  81.4120012 139.4514997   1.1169988  80.8690012 139.0714997   0.4249988
  82.2450012 139.6454997   0.6879988  81.4504399 139.4258124   0.9644526
  79.5470012 144.0084997  16.2159988  80.2790012 144.2624997  16.7769988
  78.7670012 144.2124997  16.7309988  79.5418232 144.0709177  16.3625760
  85.5760012 139.4154997   8.9539988  86.1410012 138.8684997   8.4069988
  85.4290012 138.8934997   9.7419988  85.6332918 139.2702024   8.9858454
  80.5780012 135.5514997   5.3719988  80.2610012 134.6494997   5.3369988
  81.3600012 135.5534997   4.8189988  80.6402284 135.4281628   5.2924783
  84.2030012 137.8034997  11.3679988  83.3670012 138.2574997  11.4779988
  84.7270012 138.0794997  12.1199988  84.1594414 137.9029376  11.4847136
  84.7470012 144.0164997   3.0519988  84.0020012 143.5094997   2.7299988
  84.6130012 144.0654997   3.9989988  84.6268776 143.9536940   3.1358647
  91.8970012 143.1494997  11.8389988  92.5390012 143.6064997  11.2949988
  91.0670012 143.2624997  11.3759988  91.8725963 143.2272704  11.7020177
  88.6450012 136.8304997   1.2519988  87.7060012 136.9424997   1.0999988
  88.9420012 137.6874997   1.5579988  88.5567666 136.9616443   1.2725768
  86.2660012 144.2004997  14.2889988  85.9210012 143.8194997  15.0959988
  86.0660012 145.1344997  14.3609988  86.1918061 144.2745228  14.4090961
  89.3630012 138.6974997   2.9119988  90.2550012 138.5604997   3.2309988
  89.4200012 139.4884997   2.3759988  89.4926285 138.7856660   2.8831691
  79.8720012 143.3114997   8.8219988  80.6170012 143.3094997   8.2209988
  79.9500012 142.4884997   9.3039988  79.9845518 143.1999315   8.8048929
  76.8800012 141.7724997  14.1369988  77.1030012 141.3544997  14.9689988
  76.2780012 141.1594997  13.7139988  76.8291759 141.6324668  14.1937022
  83.8960012 141.2894997  16.3499988  83.6000012 141.1234997  15.4549988
  84.8280012 141.0694997  16.3389988  83.9814166 141.2370640  16.2260536
  94.2480012 138.9074997   2.6069988  93.6940012 138.5114997   1.9349988
  94.3480012 139.8174997   2.3289988  94.1857059 138.9763586   2.4774401
  94.2110012 144.7074997  15.4439988  93.3600012 144.9454997  15.0769988
  94.8020012 144.6904997  14.6909988  94.1742487 144.7378258  15.2918893
  89.7040012 142.5014997  10.0929988  88.7750012 142.2694997  10.0659988
  90.1550012 141.7244997   9.7629988  89.6379216 142.3647238  10.0446917
  78.0020012 141.6914997   0.8129988  78.6180012 142.3184997   1.1929988
  77.1400012 142.0074997   1.0849988  77.9697698 141.8199430   0.9017183
  83.6740012 144.4924997   5.8029988  83.4330012 145.4174997   5.8439988
  82.9330012 144.0334997   6.1989988  83.5408409 144.5571421   5.8621377
  87.7330012 144.7404997  11.8179988  87.3070012 144.5134997  12.6449988
  88.3130012 144.0024997  11.6359988  87.7531868 144.6095299  11.9065830
  78.5140012 136.5254997  13.6949988  77.6210012 136.8644997  13.6269988
  78.4150012 135.6704997  14.1129988  78.3784164 136.4562588  13.7422235
  90.8020012 144.3424997   3.1189988  90.5240012 143.6144997   3.6749988
  91.7290012 144.4614997   3.3239988  90.8893124 144.2588802   3.2228845
  79.4170012 143.6044997   2.3059988  78.7310012 143.9564997   2.8729988
  79.9390012 144.3674997   2.0589988  79.3936852 143.7558578   2.3502118
  87.2480012 136.2664997  12.5849988  87.9470012 136.3404997  13.2349988
  86.8670012 135.4024997  12.7389988  87.2921767 136.1597624  12.6948322
  88.0330012 135.9184997   3.6819988  88.2530012 136.3904997   2.8789988
  88.5910012 136.3134997   4.3519988  88.1384968 136.0364285   3.6627331
  85.2330012 137.6464997   4.5169988  86.0450012 138.1514997   4.5629988
  84.9880012 137.5014997   5.4309988  85.3110520 137.6960375   4.6468517
  85.7680012 138.6324997  13.7019988  85.8870012 139.2064997  14.4589988
  86.4240012 137.9444997  13.8159988  85.8729757 138.6181079  13.8210825
  86.1160012 134.7274997   5.4549988  85.7700012 135.3454997   6.0999988
  86.7750012 135.2284997   4.9739988  86.1577826 134.8795802   5.4780971
  81.7740012 135.7904997   2.1419988  81.6910012 136.6794997   2.4889988
  82.6640012 135.5254997   2.3739988  81.8829469 135.8761430   2.2207626
  91.9730012 136.5394997  14.5369988  91.0560012 136.8024997  14.4489988
  92.3080012 136.5364997  13.6399988  91.8929900 136.5750224  14.4037919
  90.5750012 140.2904997   8.6319988  89.7770012 139.8754997   8.3039988
  91.0200012 139.5994997   9.1229988  90.5259885 140.1403543   8.6534889
  78.3490012 138.8824997   0.3189988  78.3040012 139.8214997   0.4969988
  77.4610012 138.6464997   0.0489988  78.2228574 138.9791892   0.3068912
  79.1570012 133.6644997   8.9919988  78.9280012 133.7234997   8.0639988
  78.7140012 132.8724997   9.2979988  79.0658530 133.5655753   8.9064786
  77.2820012 144.0274997  17.4369988  77.4260012 143.1254997  17.1499988
  76.5100012 144.3134997  16.9489988  77.1973322 143.9428261  17.3317881
  81.6240012 144.3714997  -0.4310012  81.6880012 143.5774997   0.0999988
  82.2770012 144.2524997  -1.1210012  81.7210241 144.2467148  -0.4515683
  83.9380012 143.9974997  16.8689988  83.6090012 144.2684997  16.0119988
  84.0900012 143.0564997  16.7819988  83.9134809 143.9073862  16.7398244
  89.6720012 143.9134997  14.2529988  90.4180012 144.5014997  14.1329988
  88.9150012 144.4954997  14.3159988  89.6717554 144.0727011  14.2450907
  78.1150012 141.2274997  16.8569988  78.5230012 140.3704997  16.7359988
  77.8550012 141.2424997  17.7779988  78.1357568 141.1120807  16.9649588
  82.7730012 142.3434997   1.8749988  82.3130012 141.8594997   2.5609988
  83.0280012 141.6754997   1.2389988  82.7444902 142.1868731   1.8829334
  82.0620012 140.2364997  14.2309988  81.4440012 140.9114997  14.5109988
  82.4060012 140.5574997  13.3979988  82.0239615 140.3722721  14.1566581
  83.8440012 140.5864997   0.1369988  83.6640012 140.4324997  -0.7900012
  84.7940012 140.6944997   0.1819988  83.9477776 140.5800175   0.0161843
  87.0820012 142.7084997  17.5079988  88.0350012 142.7914997  17.4809988
  86.9210012 141.9964997  18.1279988  87.1906426 142.6236746  17.5880579
  93.2340012 142.9414997  -0.4170012  92.9600012 142.5164997  -1.2300012
  93.2730012 143.8724997  -0.6340012  93.2017699 143.0092484  -0.5576390
  82.4010012 137.5914997  15.3129988  82.5510012 136.8624997  14.7109988
  82.4040012 138.3684997  14.7539988  82.4219302 137.5967851  15.1550692
  82.8140012 135.9614997  12.8059988  83.3500012 136.4124997  12.1539988
  81.9620012 135.8534997  12.3829988  82.7722178 136.0086390  12.6595756
  84.3960012 141.4004997  13.0449988  85.1460012 141.2444997  12.4719988
  84.0570012 142.2524997  12.7699988  84.4528921 141.4942968  12.9293561
  88.8110012 139.2154997  18.0739988  89.0040012 138.2844997  17.9619988
  89.6690012 139.6404997  18.0639988  88.9533020 139.1456389  18.0573361
  90.1280012 142.0044997  16.1509988  89.8470012 142.7134997  15.5739988
  91.0710012 141.9314997  15.9999988  90.2169027 142.0917646  16.0515551
  80.8800012 138.7894997  17.2249988  80.1130012 138.2574997  17.0149988
  81.5590012 138.4794997  16.6249988  80.8667022 138.6747506  17.1151648
  83.6200012 133.4174997  13.2369988  83.5210012 134.3644997  13.1319988
  82.8770012 133.0454997  12.7619988  83.5060564 133.4965902  13.1584560
  84.8840012 137.7394997  16.8009988  84.6480012 137.5194997  17.7029988
  84.1000012 137.5324997  16.2909988  84.7458628 137.6814760  16.8553932
  87.5990012 136.8664997  15.8769988  86.6520012 136.8984997  16.0089988
  87.9120012 136.2414997  16.5299988  87.5115475 136.7863207  15.9834455
  89.2330012 135.5004997  17.8819988  89.1370012 134.5484997  17.8759988
  88.9120012 135.7694997  18.7419988  89.1764070 135.4064035  17.9975441
  79.0600012 136.7104997  16.9289988  79.2720012 136.0034997  16.3189988
  78.9490012 136.2724997  17.7729988  79.0739721 136.5547084  16.9596843
  83.8410012 132.7114997  15.9089988  84.5530012 132.0714997  15.8949988
  83.7400012 132.9784997  14.9949988  83.9247939 132.6599938  15.7835650
  84.1950012 134.3944997  17.9619988  84.0630012 133.9184997  17.1419988
  83.5960012 135.1384997  17.9069988  84.0959071 134.4299618  17.8422886
  93.6920012 143.8104997   3.5579988  94.5420012 144.2314997   3.6849988
  93.6980012 143.0704997   4.1649988  93.8091372 143.7680803   3.6574344
  94.0870012 141.8634997   5.3819988  93.3600012 141.3844997   5.7789988
  94.6680012 142.0694997   6.1139988  94.0659375 141.8257090   5.5354129
  93.8460012 144.6484997  10.3289988  94.6790012 144.2704997  10.0489988
  93.9580012 145.5914997  10.2099988  93.9752647 144.7242218  10.2745487
  94.3550012 141.7644997   1.7729988  93.8330012 142.1214997   1.0539988
  94.3220012 142.4394997   2.4509988  94.2791634 141.9045413   1.7663145
  92.7040012 139.0044997   0.3239988  92.8000012 139.6714997  -0.3570012
  92.5640012 138.1884997  -0.1580012  92.6982135 138.9854500   0.1658491
  91.8730012 140.3844997   5.9449988  91.7230012 139.4394997   5.9239988
  91.5200012 140.6654997   6.7879988  91.8046625 140.2930441   6.0562346
  76.9090012 142.4624997   9.9549988  77.0930012 142.3804997   9.0189988
  77.7580012 142.3384997  10.3789988  77.0490139 142.4345003   9.8841455
  92.7300012 142.3544997  15.5829988  93.3130012 141.6204997  15.7749988
  93.2940012 143.1264997  15.6299988  92.8859769 142.3584227  15.6156159
  94.2260012 140.2574997  16.2679988  93.3630012 139.8784997  16.1019988
  94.8310012 139.5184997  16.1939988  94.1895979 140.1058023  16.2352817
  91.9510012 136.4124997  -0.5590012  92.5620012 136.0414997   0.0779988
  91.1150012 135.9914997  -0.3630012  91.9215032 136.3047554  -0.4452965
  91.5840012 137.9674997   4.4069988  91.8640012 137.0604997   4.5309988
  92.3430012 138.4014997   4.0179988  91.7249277 137.9020942   4.3713682
  92.1960012 138.5484997   9.8429988  93.1290012 138.7604997   9.8089988
  91.9610012 138.6504997  10.7649988  92.2918036 138.5912769   9.9629976
  92.2250012 139.2854997  12.6189988  91.3820012 139.5534997  12.9849988
  92.6670012 140.1074997  12.4079988  92.1694158 139.4333291  12.6405491
  76.5060012 137.7334997  16.0959988  77.4260012 137.6114997  16.3319988
  76.0570012 136.9834997  16.4849988  76.5711580 137.6153727  16.1809006
  94.5080012 133.2654997  17.9719988  94.8580012 132.6114997  17.3669988
  94.6550012 134.1024997  17.5329988  94.5758419 133.2891591  17.8297118
  92.1970012 135.2304997   4.4549988  92.3800012 134.7814997   5.2809988
  91.5980012 134.6454997   3.9919988  92.1410202 135.0899975   4.5053275
  77.7270012 136.0454997   8.9869988  78.1730012 135.2534997   9.2889988
  78.1940012 136.7614997   9.4179988  77.8510172 136.0340624   9.0864820
  76.0310012 139.0444997  10.0559988  76.5230012 138.8234997   9.2649988
  76.3940012 139.8854997  10.3369988  76.1473126 139.1278357   9.9857531
  94.0280012 135.3744997  16.3219988  93.1100012 135.6454997  16.2859988
  94.1510012 134.8394997  15.5369988  93.9191066 135.3392892  16.2110487
  94.0640012 135.2974997   0.9829988  94.4760012 134.5764997   0.5079988
  94.7460012 135.9674997   1.0419988  94.2125885 135.2892368   0.9258915
  76.3450012 135.3024997   4.1099988  75.4200012 135.5114997   3.9809988
  76.7990012 135.7864997   3.4209988  76.2797368 135.3965993   3.9991226
  76.3090012 134.0404997  12.4549988  75.6440012 133.7944997  13.0979988
  75.8660012 134.6624997  11.8769988  76.1580956 134.0908632  12.4649352
  93.0280012 133.4644997  14.1409988  92.2160012 133.7894997  13.7529988
  93.2610012 132.7044997  13.6079988  92.9483423 133.4062436  14.0158253
  86.4580012 134.9134997   8.4629988  85.7840012 134.2844997   8.7189988
  87.0220012 134.4294997   7.8599988  86.4419230 134.7618744   8.4165340
  91.6010012 133.0214997   8.5759988  92.2050012 133.5684997   8.0739988
  90.7310012 133.3404997   8.3359988  91.5661241 133.1395806   8.4747654
  93.3280012 134.1594997   6.9089988  93.9400012 133.6454997   6.3829988
  93.7100012 135.0374997   6.9329988  93.4634540 134.2077140   6.8401830
  78.7850012 133.5474997   6.2849988  78.0080012 133.3134997   5.7779988
  79.3150012 132.7504997   6.2939988  78.7502330 133.4076988   6.2167742
  77.6210012 133.3454997   2.0889988  78.0600012 133.9564997   1.4969988
  76.9880012 133.8834997   2.5629988  77.5954514 133.5019257   2.0720930
  83.3640012 133.4744997   6.0989988  84.2390012 133.8624997   6.0689988
  83.2280012 133.2594997   7.0209988  83.4653695 133.4985184   6.2196440
  88.9210012 133.5044997   7.7479988  88.9970012 133.5994997   6.7979988
  88.6460012 132.5964997   7.8769988  88.8942321 133.3947867   7.6355079
  90.2740012 133.5304997   3.4399988  89.5720012 134.1454997   3.2309988
  89.8300012 132.6924997   3.5709988  90.1176330 133.5015783   3.4290328
  79.4820012 135.2614997   0.5309988  79.9740012 134.6314997   0.0039988
  80.1060012 135.5574997   1.1949988  79.6335446 135.2153199   0.5485980
  84.5080012 135.5544997   2.9879988  84.6860012 134.9084997   3.6709988
  84.4550012 136.3884997   3.4559988  84.5251829 135.5787985   3.1445940
  78.7430012 134.0614997  15.8029988  78.3770012 133.2964997  16.2459988
  79.6560012 134.0904997  16.0899988  78.8162790 133.9607224  15.9024070
  80.7160012 133.4124997  17.3389988  81.6140012 133.1384997  17.1539988
  80.3290012 132.6694997  17.8029988  80.7866612 133.2745914  17.3763643
  89.1370012 132.7444997  17.5209988  89.2140012 132.3184997  18.3749988
  90.0310012 132.7584997  17.1779988  89.2683428 132.6880880  17.5915310
 106.7190012 142.7034997   6.2439988 106.8080012 143.6474997   6.1119988
 106.0810012 142.4284997   5.5859988 106.6449081 142.7954830   6.1369614
 105.6520012 141.9584997   9.6629988 105.6140012 141.3124997  10.3679988
 105.3300012 141.4924997   8.8919988 105.6032333 141.8069408   9.6552978
  98.0210012 141.5734997  11.2559988  98.0620012 140.9474997  11.9789988
  98.7240012 142.1974997  11.4379988  98.1216363 141.5721196  11.3796044
 109.3580012 144.8974997   7.9639988 108.9180012 144.1774997   8.4149988
 109.3450012 145.6184997   8.5939988 109.2960226 144.8963731   8.1108494
  95.5540012 139.6834997   5.1839988  95.1070012 140.5294997   5.1649988
  94.9930012 139.1034997   4.6679988  95.4169900 139.7209916   5.1116801
  96.2650012 141.8454997   7.3099988  96.4780012 141.0754997   7.8369988
  97.0030012 141.9344997   6.7059988  96.3938496 141.7521394   7.3005300
 104.0420012 144.3914997  10.0689988 104.3460012 143.7054997   9.4739988
 104.7630012 144.5094997  10.6869988 104.1810671 144.3136305  10.0711816
 112.7050012 135.9924997  10.9299988 112.7540012 136.6024997  11.6659988
 113.1300012 136.4534997  10.2069988 112.7691824 136.1383741  10.9330205
 107.1830012 138.7854997  10.3969988 107.3250012 137.8394997  10.4169988
 107.0760012 138.9924997   9.4679988 107.1879864 138.6839534  10.2742339
 100.3370012 136.8864997   7.6689988 100.3810012 137.7464997   7.2509988
  99.8800012 136.3344997   7.0349988 100.2812185 136.9295799   7.5260299
 108.0600012 137.0174997   6.0699988 108.7060012 136.6884997   6.6949988
 108.5700012 137.5354997   5.4469988 108.2174264 137.0424611   6.0713862
  96.9580012 139.2834997   8.4309988  97.6110012 138.7334997   8.8629988
  96.9820012 139.0094997   7.5139988  97.0506683 139.1711466   8.3662123
 102.1140012 140.8334997   7.6459988 102.7300012 140.3074997   8.1559988
 101.5280012 140.1934997   7.2429988 102.1190810 140.6749208   7.6613173
 113.0960012 137.4704997  13.1659988 112.4080012 138.1284997  13.0699988
 113.1120012 137.2734997  14.1019988 113.0038525 137.5340462  13.2794808
  99.1480012 135.8044997  11.7429988  98.9290012 136.3344997  10.9769988
  98.4800012 136.0314997  12.3899988  99.0277600 135.9076906  11.7256379
 101.7170012 143.4804997  12.0299988 100.9770012 144.0784997  12.1339988
 102.4310012 144.0344997  11.7149988 101.7122237 143.6372831  12.0016465
 109.8240012 136.3084997   8.0499988 109.6080012 135.5424997   8.5829988
 110.4790012 136.7804997   8.5629988 109.8830632 136.2675889   8.1922861
  98.7410012 137.6964997   9.6949988  99.3550012 138.3294997  10.0689988
  99.2530012 137.2244997   9.0389988  98.8942296 137.7192370   9.6574252
 110.1710012 135.0234997  11.7299988 109.4350012 135.6344997  11.6919988
 110.8540012 135.4384997  11.2029988 110.1626541 135.1631374  11.6535832
 103.1740012 133.1104997   9.1959988 103.0570012 132.1614997   9.1409988
 102.3190012 133.4424997   9.4689988 103.0423733 133.0255409   9.2253897
 110.9680012 144.9854997  13.9239988 111.1080012 144.3944997  13.1839988
 111.1350012 145.8584997  13.5669988 111.0096778 145.0226426  13.7746965
 105.4410012 141.9474997   3.6959988 104.7290012 142.4824997   3.3439988
 106.1320012 142.0034997   3.0359988 105.4370132 142.0282543   3.5586289
 105.4940012 140.4054997   0.7349988 106.1950012 140.4274997   1.3859988
 105.7970012 139.7774997   0.0789988 105.6307830 140.3236566   0.7353711
 112.8100012 141.3254997  11.9899988 112.1570012 142.0204997  12.0789988
 113.2750012 141.5354997  11.1799988 112.7835390 141.4489425  11.8926883
 108.8460012 142.1574997   4.6479988 108.1140012 142.3854997   5.2209988
 109.2940012 141.4434997   5.1029988 108.8063095 142.0922571   4.7879119
 108.7440012 140.3314997  13.7149988 108.8240012 141.0944997  14.2869988
 108.1420012 140.6104997  13.0249988 108.6735756 140.4737134  13.7000589
 100.4920012 142.7874997   6.5299988 100.1610012 142.4174997   5.7119988
 101.0800012 142.1174997   6.8769988 100.5261873 142.6461156   6.4648102
 100.8580012 141.5564997  10.1639988 101.4240012 141.6774997   9.4009988
 101.1770012 142.1934997  10.8029988 100.9785786 141.6591884  10.1460040
 107.7170012 141.3194997   2.3329988 108.2970012 141.4694997   3.0799988
 108.1310012 141.7904997   1.6099988 107.8522830 141.4036841   2.3374134
  98.6580012 142.1534997  14.1099988  98.7290012 142.8044997  14.8079988
  97.7680012 142.2564997  13.7749988  98.5473117 142.2565936  14.1602700
 111.4160012 133.0694997   2.1459988 110.5160012 133.2084997   2.4409988
 111.6680012 133.9004997   1.7439988 111.3268702 133.2009074   2.1320205
  99.4820012 141.8574997   4.1199988  99.1900012 142.6254997   3.6289988
  98.8080012 141.1974997   3.9569988  99.3509081 141.8734406   4.0307340
  95.5750012 144.2204997  12.9349988  95.0740012 144.1924997  12.1199988
  95.5800012 143.3144997  13.2439988  95.5071526 144.0942278  12.8652872
 110.6750012 139.1594997  15.9809988 110.2680012 139.6404997  15.2599988
 110.7160012 138.2544997  15.6729988 110.6248437 139.1029374  15.8406683
 100.4430012 134.0134997   9.9729988  99.5810012 133.9264997   9.5659988
 100.4200012 134.8694997  10.4009988 100.3220330 134.1172765   9.9751863
 105.1060012 133.7354997  13.3479988 105.5260012 133.3204997  14.1009988
 104.1730012 133.5574997  13.4649988 105.0373644 133.6545900  13.4669539
 108.4320012 137.4914997  14.2009988 107.9180012 137.3654997  14.9989988
 108.2770012 138.4034997  13.9569988 108.3406852 137.5976132  14.2772158
 109.1950012 142.3524997  -0.0370012 109.2370012 142.1294997  -0.9670012
 110.0440012 142.7514997   0.1529988 109.3155396 142.3759155  -0.1386373
 104.7670012 136.2284997   0.6329988 104.5140012 136.2474997   1.5559988
 104.5110012 135.3564997   0.3319988 104.6977790 136.1132437   0.7186263
 100.5340012 138.9794997  11.0679988  99.8920012 138.9384997  11.7769988
 100.5710012 139.9054997  10.8309988 100.4511324 139.0991559  11.1329824
 100.5310012 139.2004997   5.9799988  99.6380012 138.8594997   5.9219988
 100.9810012 138.8234997   5.2249988 100.4697305 139.1028484   5.8699177
 106.0660012 139.6164997   4.7969988 105.6570012 140.4314997   4.5059988
 106.7870012 139.4764997   4.1829988 106.1074537 139.7092018   4.6741342
 105.1680012 139.7914997  16.2849988 104.6060012 139.0874997  16.6059988
 105.9950012 139.6714997  16.7529988 105.2027095 139.6787883  16.3922330
 107.0710012 139.0624997   7.6109988 106.8760012 139.6674997   6.8959988
 107.2520012 138.2284997   7.1769988 107.0687614 139.0326300   7.4544405
  98.2840012 139.2994997  12.9349988  98.2460012 139.6994997  13.8039988
  97.7930012 138.4824997  13.0259988  98.2124684 139.2438069  13.0661059
 101.6500012 136.6734997  -0.2660012 101.2190012 136.2284997   0.4639988
 100.9320012 137.0454997  -0.7780012 101.4939438 136.6628940  -0.2353201
  94.8920012 136.4154997   6.7859988  95.5230012 136.3864997   7.5049988
  95.3410012 135.9904997   6.0559988  95.0390774 136.3540492   6.7856553
  96.1660012 137.1614997   2.2099988  96.6400012 137.7524997   1.6249988
  95.4490012 137.6924997   2.5569988  96.1339341 137.3140867   2.1768836
 106.3350012 140.7004997  12.2829988 106.6580012 140.0694997  11.6399988
 105.8950012 140.1654997  12.9429988 106.3196895 140.5418441  12.2842850
 103.1120012 136.6274997   7.0669988 102.2010012 136.6844997   7.3549988
 103.6180012 136.5674997   7.8769988 103.0555413 136.6271985   7.2160622
  97.9410012 138.2564997   5.8929988  97.0510012 138.3564997   5.5529988
  98.2370012 137.4144997   5.5469988  97.8592823 138.1563545   5.7997213
 101.5940012 138.2564997   3.5499988 102.5250012 138.3854997   3.7279988
 101.3790012 138.9264997   2.8999988 101.6924247 138.3646565   3.4865747
 107.5170012 135.8624997  10.3309988 106.8410012 135.9934997  10.9949988
 107.0320012 135.7074997   9.5209988 107.3587145 135.8594905  10.3124517
 100.2680012 139.4514997   1.1169988  99.7250012 139.0714997   0.4249988
 101.1010012 139.6454997   0.6879988 100.3064399 139.4258124   0.9644526
  98.4030012 144.0084997  16.2159988  99.1350012 144.2624997  16.7769988
  97.6230012 144.2124997  16.7309988  98.3978232 144.0709177  16.3625760
 104.4320012 139.4154997   8.9539988 104.9970012 138.8684997   8.4069988
 104.2850012 138.8934997   9.7419988 104.4892918 139.2702024   8.9858454
  99.4340012 135.5514997   5.3719988  99.1170012 134.6494997   5.3369988
 100.2160012 135.5534997   4.8189988  99.4962284 135.4281628   5.2924783
 103.0590012 137.8034997  11.3679988 102.2230012 138.2574997  11.4779988
 103.5830012 138.0794997  12.1199988 103.0154414 137.9029376  11.4847136
 103.6030012 144.0164997   3.0519988 102.8580012 143.5094997   2.7299988
 103.4690012 144.0654997   3.9989988 103.4828776 143.9536940   3.1358647
 110.7530012 143.1494997  11.8389988 111.3950012 143.6064997  11.2949988
 109.9230012 143.2624997  11.3759988 110.7285963 143.2272704  11.7020177
 107.5010012 136.8304997   1.2519988 106.5620012 136.9424997   1.0999988
 107.7980012 137.6874997   1.5579988 107.4127666 136.9616443   1.2725768
 105.1220012 144.2004997  14.2889988 104.7770012 143.8194997  15.0959988
 104.9220012 145.1344997  14.3609988 105.0478061 144.2745228  14.4090961
 108.2190012 138.6974997   2.9119988 109.1110012 138.5604997   3.2309988
 108.2760012 139.4884997   2.3759988 108.3486285 138.7856660   2.8831691
  98.7280012 143.3114997   8.8219988  99.4730012 143.3094997   8.2209988
  98.8060012 142.4884997   9.3039988  98.8405518 143.1999315   8.8048929
  95.7360012 141.7724997  14.1369988  95.9590012 141.3544997  14.9689988
  95.1340012 141.1594997  13.7139988  95.6851759 141.6324668  14.1937022
 102.7520012 141.2894997  16.3499988 102.4560012 141.1234997  15.4549988
 103.6840012 141.0694997  16.3389988 102.8374166 141.2370640  16.2260536
 113.1040012 138.9074997   2.6069988 112.5500012 138.5114997   1.9349988
 113.2040012 139.8174997   2.3289988 113.0417059 138.9763586   2.4774401
 113.0670012 144.7074997  15.4439988 112.2160012 144.9454997  15.0769988
 113.6580012 144.6904997  14.6909988 113.0302487 144.7378258  15.2918893
 108.5600012 142.5014997  10.0929988 107.6310012 142.2694997  10.0659988
 109.0110012 141.7244997   9.7629988 108.4939216 142.3647238  10.0446917
  96.8580012 141.6914997   0.8129988  97.4740012 142.3184997   1.1929988
  95.9960012 142.0074997   1.0849988  96.8257698 141.8199430   0.9017183
 102.5300012 144.4924997   5.8029988 102.2890012 145.4174997   5.8439988
 101.7890012 144.0334997   6.1989988 102.3968409 144.5571421   5.8621377
 106.5890012 144.7404997  11.8179988 106.1630012 144.5134997  12.6449988
 107.1690012 144.0024997  11.6359988 106.6091868 144.6095299  11.9065830
  97.3700012 136.5254997  13.6949988  96.4770012 136.8644997  13.6269988
  97.2710012 135.6704997  14.1129988  97.2344164 136.4562588  13.7422235
 109.6580012 144.3424997   3.1189988 109.3800012 143.6144997   3.6749988
 110.5850012 144.4614997   3.3239988 109.7453124 144.2588802   3.2228845
  98.2730012 143.6044997   2.3059988  97.5870012 143.9564997   2.8729988
  98.7950012 144.3674997   2.0589988  98.2496852 143.7558578   2.3502118
 106.1040012 136.2664997  12.5849988 106.8030012 136.3404997  13.2349988
 105.7230012 135.4024997  12.7389988 106.1481767 136.1597624  12.6948322
 106.8890012 135.9184997   3.6819988 107.1090012 136.3904997   2.8789988
 107.4470012 136.3134997   4.3519988 106.9944968 136.0364285   3.6627331
 104.0890012 137.6464997   4.5169988 104.9010012 138.1514997   4.5629988
 103.8440012 137.5014997   5.4309988 104.1670520 137.6960375   4.6468517
 104.6240012 138.6324997  13.7019988 104.7430012 139.2064997  14.4589988
 105.2800012 137.9444997  13.8159988 104.7289757 138.6181079  13.8210825
 104.9720012 134.7274997   5.4549988 104.6260012 135.3454997   6.0999988
 105.6310012 135.2284997   4.9739988 105.0137826 134.8795802   5.4780971
 100.6300012 135.7904997   2.1419988 100.5470012 136.6794997   2.4889988
 101.5200012 135.5254997   2.3739988 100.7389469 135.8761430   2.2207626
 110.8290012 136.5394997  14.5369988 109.9120012 136.8024997  14.4489988
 111.1640012 136.5364997  13.6399988 110.7489900 136.5750224  14.4037919
 109.4310012 140.2904997   8.6319988 108.6330012 139.8754997   8.3039988
 109.8760012 139.5994997   9.1229988 109.3819885 140.1403543   8.6534889
  97.2050012 138.8824997   0.3189988  97.1600012 139.8214997   0.4969988
  96.3170012 138.6464997   0.0489988  97.0788574 138.9791892   0.3068912
  98.0130012 133.6644997   8.9919988  97.7840012 133.7234997   8.0639988
  97.5700012 132.8724997   9.2979988  97.9218530 133.5655753   8.9064786
  96.1380012 144.0274997  17.4369988  96.2820012 143.1254997  17.1499988
  95.3660012 144.3134997  16.9489988  96.0533322 143.9428261  17.3317881
 100.4800012 144.3714997  -0.4310012 100.5440012 143.5774997   0.0999988
 101.1330012 144.2524997  -1.1210012 100.5770241 144.2467148  -0.4515683
 102.7940012 143.9974997  16.8689988 102.4650012 144.2684997  16.0119988
 102.9460012 143.0564997  16.7819988 102.7694809 143.9073862  16.7398244
 108.5280012 143.9134997  14.2529988 109.2740012 144.5014997  14.1329988
 107.7710012 144.4954997  14.3159988 108.5277554 144.0727011  14.2450907
  96.9710012 141.2274997  16.8569988  97.3790012 140.3704997  16.7359988
  96.7110012 141.2424997  17.7779988  96.9917568 141.1120807  16.9649588
 101.6290012 142.3434997   1.8749988 101.1690012 141.8594997   2.5609988
 101.8840012 141.6754997   1.2389988 101.6004902 142.1868731   1.8829334
 100.9180012 140.2364997  14.2309988 100.3000012 140.9114997  14.5109988
 101.2620012 140.5574997  13.3979988 100.8799615 140.3722721  14.1566581
 102.7000012 140.5864997   0.1369988 102.5200012 140.4324997  -0.7900012
 103.6500012 140.6944997   0.1819988 102.8037776 140.5800175   0.0161843
 105.9380012 142.7084997  17.5079988 106.8910012 142.7914997  17.4809988
 105.7770012 141.9964997  18.1279988 106.0466426 142.6236746  17.5880579
 112.0900012 142.9414997  -0.4170012 111.8160012 142.5164997  -1.2300012
 112.1290012 143.8724997  -0.6340012 112.0577699 143.0092484  -0.5576390
 101.2570012 137.5914997  15.3129988 101.4070012 136.8624997  14.7109988
 101.2600012 138.3684997  14.7539988 101.2779302 137.5967851  15.1550692
 101.6700012 135.9614997  12.8059988 102.2060012 136.4124997  12.1539988
 100.8180012 135.8534997  12.3829988 101.6282178 136.0086390  12.6595756
 103.2520012 141.4004997  13.0449988 104.0020012 141.2444997  12.4719988
 102.9130012 142.2524997  12.7699988 103.3088921 141.4942968  12.9293561
 107.6670012 139.2154997  18.0739988 107.8600012 138.2844997  17.9619988
 108.5250012 139.6404997  18.0639988 107.8093020 139.1456389  18.0573361
 108.9840012 142.0044997  16.1509988 108.7030012 142.7134997  15.5739988
 109.9270012 141.9314997  15.9999988 109.0729027 142.0917646  16.0515551
  99.7360012 138.7894997  17.2249988  98.9690012 138.2574997  17.0149988
 100.4150012 138.4794997  16.6249988  99.7227022 138.6747506  17.1151648
 102.4760012 133.4174997  13.2369988 102.3770012 134.3644997  13.1319988
 101.7330012 133.0454997  12.7619988 102.3620564 133.4965902  13.1584560
 103.7400012 137.7394997  16.8009988 103.5040012 137.5194997  17.7029988
 102.9560012 137.5324997  16.2909988 103.6018628 137.6814760  16.8553932
 106.4550012 136.8664997  15.8769988 105.5080012 136.8984997  16.0089988
 106.7680012 136.2414997  16.5299988 106.3675475 136.7863207  15.9834455
 108.0890012 135.5004997  17.8819988 107.9930012 134.5484997  17.8759988
 107.7680012 135.7694997  18.7419988 108.0324070 135.4064035  17.9975441
  97.9160012 136.7104997  16.9289988  98.1280012 136.0034997  16.3189988
  97.8050012 136.2724997  17.7729988  97.9299721 136.5547084  16.9596843
 102.6970012 132.7114997  15.9089988 103.4090012 132.0714997  15.8949988
 102.5960012 132.9784997  14.9949988 102.7807939 132.6599938  15.7835650
 103.0510012 134.3944997  17.9619988 102.9190012 133.9184997  17.1419988
 102.4520012 135.1384997  17.9069988 102.9519071 134.4299618  17.8422886
 112.9430012 141.8634997   5.3819988 112.2160012 141.3844997   5.7789988
 113.5240012 142.0694997   6.1139988 112.9219375 141.8257090   5.5354129
 112.7020012 144.6484997  10.3289988 113.5350012 144.2704997  10.0489988
 112.8140012 145.5914997  10.2099988 112.8312647 144.7242218  10.2745487
 113.2110012 141.7644997   1.7729988 112.6890012 142.1214997   1.0539988
 113.1780012 142.4394997   2.4509988 113.1351634 141.9045413   1.7663145
 111.5600012 139.0044997   0.3239988 111.6560012 139.6714997  -0.3570012
 111.4200012 138.1884997  -0.1580012 111.5542135 138.9854500   0.1658491
 110.7290012 140.3844997   5.9449988 110.5790012 139.4394997   5.9239988
 110.3760012 140.6654997   6.7879988 110.6606625 140.2930441   6.0562346
  95.7650012 142.4624997   9.9549988  95.9490012 142.3804997   9.0189988
  96.6140012 142.3384997  10.3789988  95.9050139 142.4345003   9.8841455
 111.5860012 142.3544997  15.5829988 112.1690012 141.6204997  15.7749988
 112.1500012 143.1264997  15.6299988 111.7419769 142.3584227  15.6156159
 113.0820012 140.2574997  16.2679988 112.2190012 139.8784997  16.1019988
 113.6870012 139.5184997  16.1939988 113.0455979 140.1058023  16.2352817
 110.8070012 136.4124997  -0.5590012 111.4180012 136.0414997   0.0779988
 109.9710012 135.9914997  -0.3630012 110.7775032 136.3047554  -0.4452965
 110.4400012 137.9674997   4.4069988 110.7200012 137.0604997   4.5309988
 111.1990012 138.4014997   4.0179988 110.5809277 137.9020942   4.3713682
 111.0520012 138.5484997   9.8429988 111.9850012 138.7604997   9.8089988
 110.8170012 138.6504997  10.7649988 111.1478036 138.5912769   9.9629976
 111.0810012 139.2854997  12.6189988 110.2380012 139.5534997  12.9849988
 111.5230012 140.1074997  12.4079988 111.0254158 139.4333291  12.6405491
  95.3620012 137.7334997  16.0959988  96.2820012 137.6114997  16.3319988
  94.9130012 136.9834997  16.4849988  95.4271580 137.6153727  16.1809006
 113.3640012 133.2654997  17.9719988 113.7140012 132.6114997  17.3669988
 113.5110012 134.1024997  17.5329988 113.4318419 133.2891591  17.8297118
 111.0530012 135.2304997   4.4549988 111.2360012 134.7814997   5.2809988
 110.4540012 134.6454997   3.9919988 110.9970202 135.0899975   4.5053275
  96.5830012 136.0454997   8.9869988  97.0290012 135.2534997   9.2889988
  97.0500012 136.7614997   9.4179988  96.7070172 136.0340624   9.0864820
  94.8870012 139.0444997  10.0559988  95.3790012 138.8234997   9.2649988
  95.2500012 139.8854997  10.3369988  95.0033126 139.1278357   9.9857531
 112.8840012 135.3744997  16.3219988 111.9660012 135.6454997  16.2859988
 113.0070012 134.8394997  15.5369988 112.7751066 135.3392892  16.2110487
 112.9200012 135.2974997   0.9829988 113.3320012 134.5764997   0.5079988
 113.6020012 135.9674997   1.0419988 113.0685885 135.2892368   0.9258915
  95.2010012 135.3024997   4.1099988  94.2760012 135.5114997   3.9809988
  95.6550012 135.7864997   3.4209988  95.1357368 135.3965993   3.9991226
  95.1650012 134.0404997  12.4549988  94.5000012 133.7944997  13.0979988
  94.7220012 134.6624997  11.8769988  95.0140956 134.0908632  12.4649352
 111.8840012 133.4644997  14.1409988 111.0720012 133.7894997  13.7529988
 112.1170012 132.7044997  13.6079988 111.8043423 133.4062436  14.0158253
 105.3140012 134.9134997   8.4629988 104.6400012 134.2844997   8.7189988
 105.8780012 134.4294997   7.8599988 105.2979230 134.7618744   8.4165340
 110.4570012 133.0214997   8.5759988 111.0610012 133.5684997   8.0739988
 109.5870012 133.3404997   8.3359988 110.4221241 133.1395806   8.4747654
 112.1840012 134.1594997   6.9089988 112.7960012 133.6454997   6.3829988
 112.5660012 135.0374997   6.9329988 112.3194540 134.2077140   6.8401830
  97.6410012 133.5474997   6.2849988  96.8640012 133.3134997   5.7779988
  98.1710012 132.7504997   6.2939988  97.6062330 133.4076988   6.2167742
  96.4770012 133.3454997   2.0889988  96.9160012 133.9564997   1.4969988
  95.8440012 133.8834997   2.5629988  96.4514514 133.5019257   2.0720930
 102.2200012 133.4744997   6.0989988 103.0950012 133.8624997   6.0689988
 102.0840012 133.2594997   7.0209988 102.3213695 133.4985184   6.2196440
 107.7770012 133.5044997   7.7479988 107.8530012 133.5994997   6.7979988
 107.5020012 132.5964997   7.8769988 107.7502321 133.3947867   7.6355079
 109.1300012 133.5304997   3.4399988 108.4280012 134.1454997   3.2309988
 108.6860012 132.6924997   3.5709988 108.9736330 133.5015783   3.4290328
  98.3380012 135.2614997   0.5309988  98.8300012 134.6314997   0.0039988
  98.9620012 135.5574997   1.1949988  98.4895446 135.2153199   0.5485980
 103.3640012 135.5544997   2.9879988 103.5420012 134.9084997   3.6709988
 103.3110012 136.3884997   3.4559988 103.3811829 135.5787985   3.1445940
  97.5990012 134.0614997  15.8029988  97.2330012 133.2964997  16.2459988
  98.5120012 134.0904997  16.0899988  97.6722790 133.9607224  15.9024070
  99.5720012 133.4124997  17.3389988 100.4700012 133.1384997  17.1539988
  99.1850012 132.6694997  17.8029988  99.6426612 133.2745914  17.3763643
 107.9930012 132.7444997  17.5209988 108.0700012 132.3184997  18.3749988
 108.8870012 132.7584997  17.1779988 108.1243428 132.6880880  17.5915310
 125.5750012 142.7034997   6.2439988 125.6640012 143.6474997   6.1119988
 124.9370012 142.4284997   5.5859988 125.5009081 142.7954830   6.1369614
 124.5080012 141.9584997   9.6629988 124.4700012 141.3124997  10.3679988
 124.1860012 141.4924997   8.8919988 124.4592333 141.8069408   9.6552978
 116.8770012 141.5734997  11.2559988 116.9180012 140.9474997  11.9789988
 117.5800012 142.1974997  11.4379988 116.9776363 141.5721196  11.3796044
 128.2140012 144.8974997   7.9639988 127.7740012 144.1774997   8.4149988
 128.2010012 145.6184997   8.5939988 128.1520226 144.8963731   8.1108494
 114.4100012 139.6834997   5.1839988 113.9630012 140.5294997   5.1649988
 113.8490012 139.1034997   4.6679988 114.2729900 139.7209916   5.1116801
 115.1210012 141.8454997   7.3099988 115.3340012 141.0754997   7.8369988
 115.8590012 141.9344997   6.7059988 115.2498496 141.7521394   7.3005300
 122.8980012 144.3914997  10.0689988 123.2020012 143.7054997   9.4739988
 123.6190012 144.5094997  10.6869988 123.0370671 144.3136305  10.0711816
 131.5610012 135.9924997  10.9299988 131.6100012 136.6024997  11.6659988
 131.9860012 136.4534997  10.2069988 131.6251824 136.1383741  10.9330205
 126.0390012 138.7854997  10.3969988 126.1810012 137.8394997  10.4169988
 125.9320012 138.9924997   9.4679988 126.0439864 138.6839534  10.2742339
 119.1930012 136.8864997   7.6689988 119.2370012 137.7464997   7.2509988
 118.7360012 136.3344997   7.0349988 119.1372185 136.9295799   7.5260299
 126.9160012 137.0174997   6.0699988 127.5620012 136.6884997   6.6949988
 127.4260012 137.5354997   5.4469988 127.0734264 137.0424611   6.0713862
 115.8140012 139.2834997   8.4309988 116.4670012 138.7334997   8.8629988
 115.8380012 139.0094997   7.5139988 115.9066683 139.1711466   8.3662123
 120.9700012 140.8334997   7.6459988 121.5860012 140.3074997   8.1559988
 120.3840012 140.1934997   7.2429988 120.9750810 140.6749208   7.6613173
 131.9520012 137.4704997  13.1659988 131.2640012 138.1284997  13.0699988
 131.9680012 137.2734997  14.1019988 131.8598525 137.5340462  13.2794808
 118.0040012 135.8044997  11.7429988 117.7850012 136.3344997  10.9769988
 117.3360012 136.0314997  12.3899988 117.8837600 135.9076906  11.7256379
 120.5730012 143.4804997  12.0299988 119.8330012 144.0784997  12.1339988
 121.2870012 144.0344997  11.7149988 120.5682237 143.6372831  12.0016465
 128.6800012 136.3084997   8.0499988 128.4640012 135.5424997   8.5829988
 129.3350012 136.7804997   8.5629988 128.7390632 136.2675889   8.1922861
 117.5970012 137.6964997   9.6949988 118.2110012 138.3294997  10.0689988
 118.1090012 137.2244997   9.0389988 117.7502296 137.7192370   9.6574252
 129.0270012 135.0234997  11.7299988 128.2910012 135.6344997  11.6919988
 129.7100012 135.4384997  11.2029988 129.0186541 135.1631374  11.6535832
 122.0300012 133.1104997   9.1959988 121.9130012 132.1614997   9.1409988
 121.1750012 133.4424997   9.4689988 121.8983733 133.0255409   9.2253897
 129.8240012 144.9854997  13.9239988 129.9640012 144.3944997  13.1839988
 129.9910012 145.8584997  13.5669988 129.8656778 145.0226426  13.7746965
 124.2970012 141.9474997   3.6959988 123.5850012 142.4824997   3.3439988
 124.9880012 142.0034997   3.0359988 124.2930132 142.0282543   3.5586289
 124.3500012 140.4054997   0.7349988 125.0510012 140.4274997   1.3859988
 124.6530012 139.7774997   0.0789988 124.4867830 140.3236566   0.7353711
 131.6660012 141.3254997  11.9899988 131.0130012 142.0204997  12.0789988
 132.1310012 141.5354997  11.1799988 131.6395390 141.4489425  11.8926883
 127.7020012 142.1574997   4.6479988 126.9700012 142.3854997   5.2209988
 128.1500012 141.4434997   5.1029988 127.6623095 142.0922571   4.7879119
 127.6000012 140.3314997  13.7149988 127.6800012 141.0944997  14.2869988
 126.9980012 140.6104997  13.0249988 127.5295756 140.4737134  13.7000589
 119.3480012 142.7874997   6.5299988 119.0170012 142.4174997   5.7119988
 119.9360012 142.1174997   6.8769988 119.3821873 142.6461156   6.4648102
 119.7140012 141.5564997  10.1639988 120.2800012 141.6774997   9.4009988
 120.0330012 142.1934997  10.8029988 119.8345786 141.6591884  10.1460040
 126.5730012 141.3194997   2.3329988 127.1530012 141.4694997   3.0799988
 126.9870012 141.7904997   1.6099988 126.7082830 141.4036841   2.3374134
 117.5140012 142.1534997  14.1099988 117.5850012 142.8044997  14.8079988
 116.6240012 142.2564997  13.7749988 117.4033117 142.2565936  14.1602700
 130.2720012 133.0694997   2.1459988 129.3720012 133.2084997   2.4409988
 130.5240012 133.9004997   1.7439988 130.1828702 133.2009074   2.1320205
 118.3380012 141.8574997   4.1199988 118.0460012 142.6254997   3.6289988
 117.6640012 141.1974997   3.9569988 118.2069081 141.8734406   4.0307340
 114.4310012 144.2204997  12.9349988 113.9300012 144.1924997  12.1199988
 114.4360012 143.3144997  13.2439988 114.3631526 144.0942278  12.8652872
 129.5310012 139.1594997  15.9809988 129.1240012 139.6404997  15.2599988
 129.5720012 138.2544997  15.6729988 129.4808437 139.1029374  15.8406683
 119.2990012 134.0134997   9.9729988 118.4370012 133.9264997   9.5659988
 119.2760012 134.8694997  10.4009988 119.1780330 134.1172765   9.9751863
 123.9620012 133.7354997  13.3479988 124.3820012 133.3204997  14.1009988
 123.0290012 133.5574997  13.4649988 123.8933644 133.6545900  13.4669539
 127.2880012 137.4914997  14.2009988 126.7740012 137.3654997  14.9989988
 127.1330012 138.4034997  13.9569988 127.1966852 137.5976132  14.2772158
 128.0510012 142.3524997  -0.0370012 128.0930012 142.1294997  -0.9670012
 128.9000012 142.7514997   0.1529988 128.1715396 142.3759155  -0.1386373
 123.6230012 136.2284997   0.6329988 123.3700012 136.2474997   1.5559988
 123.3670012 135.3564997   0.3319988 123.5537790 136.1132437   0.7186263
 119.3900012 138.9794997  11.0679988 118.7480012 138.9384997  11.7769988
 119.4270012 139.9054997  10.8309988 119.3071324 139.0991559  11.1329824
 119.3870012 139.2004997   5.9799988 118.4940012 138.8594997   5.9219988
 119.8370012 138.8234997   5.2249988 119.3257305 139.1028484   5.8699177
 124.9220012 139.6164997   4.7969988 124.5130012 140.4314997   4.5059988
 125.6430012 139.4764997   4.1829988 124.9634537 139.7092018   4.6741342
 124.0240012 139.7914997  16.2849988 123.4620012 139.0874997  16.6059988
 124.8510012 139.6714997  16.7529988 124.0587095 139.6787883  16.3922330
 125.9270012 139.0624997   7.6109988 125.7320012 139.6674997   6.8959988
 126.1080012 138.2284997   7.1769988 125.9247614 139.0326300   7.4544405
 117.1400012 139.2994997  12.9349988 117.1020012 139.6994997  13.8039988
 116.6490012 138.4824997  13.0259988 117.0684684 139.2438069  13.0661059
 120.5060012 136.6734997  -0.2660012 120.0750012 136.2284997   0.4639988
 119.7880012 137.0454997  -0.7780012 120.3499438 136.6628940  -0.2353201
 113.7480012 136.4154997   6.7859988 114.3790012 136.3864997   7.5049988
 114.1970012 135.9904997   6.0559988 113.8950774 136.3540492   6.7856553
 115.0220012 137.1614997   2.2099988 115.4960012 137.7524997   1.6249988
 114.3050012 137.6924997   2.5569988 114.9899341 137.3140867   2.1768836
 125.1910012 140.7004997  12.2829988 125.5140012 140.0694997  11.6399988
 124.7510012 140.1654997  12.9429988 125.1756895 140.5418441  12.2842850
 121.9680012 136.6274997   7.0669988 121.0570012 136.6844997   7.3549988
 122.4740012 136.5674997   7.8769988 121.9115413 136.6271985   7.2160622
 116.7970012 138.2564997   5.8929988 115.9070012 138.3564997   5.5529988
 117.0930012 137.4144997   5.5469988 116.7152823 138.1563545   5.7997213
 120.4500012 138.2564997   3.5499988 121.3810012 138.3854997   3.7279988
 120.2350012 138.9264997   2.8999988 120.5484247 138.3646565   3.4865747
 126.3730012 135.8624997  10.3309988 125.6970012 135.9934997  10.9949988
 125.8880012 135.7074997   9.5209988 126.2147145 135.8594905  10.3124517
 119.1240012 139.4514997   1.1169988 118.5810012 139.0714997   0.4249988
 119.9570012 139.6454997   0.6879988 119.1624399 139.4258124   0.9644526
 117.2590012 144.0084997  16.2159988 117.9910012 144.2624997  16.7769988
 116.4790012 144.2124997  16.7309988 117.2538232 144.0709177  16.3625760
 123.2880012 139.4154997   8.9539988 123.8530012 138.8684997   8.4069988
 123.1410012 138.8934997   9.7419988 123.3452918 139.2702024   8.9858454
 118.2900012 135.5514997   5.3719988 117.9730012 134.6494997   5.3369988
 119.0720012 135.5534997   4.8189988 118.3522284 135.4281628   5.2924783
 121.9150012 137.8034997  11.3679988 121.0790012 138.2574997  11.4779988
 122.4390012 138.0794997  12.1199988 121.8714414 137.9029376  11.4847136
 122.4590012 144.0164997   3.0519988 121.7140012 143.5094997   2.7299988
 122.3250012 144.0654997   3.9989988 122.3388776 143.9536940   3.1358647
 129.6090012 143.1494997  11.8389988 130.2510012 143.6064997  11.2949988
 128.7790012 143.2624997  11.3759988 129.5845963 143.2272704  11.7020177
 126.3570012 136.8304997   1.2519988 125.4180012 136.9424997   1.0999988
 126.6540012 137.6874997   1.5579988 126.2687666 136.9616443   1.2725768
 123.9780012 144.2004997  14.2889988 123.6330012 143.8194997  15.0959988
 123.7780012 145.1344997  14.3609988 123.9038061 144.2745228  14.4090961
 127.0750012 138.6974997   2.9119988 127.9670012 138.5604997   3.2309988
 127.1320012 139.4884997   2.3759988 127.2046285 138.7856660   2.8831691
 117.5840012 143.3114997   8.8219988 118.3290012 143.3094997   8.2209988
 117.6620012 142.4884997   9.3039988 117.6965518 143.1999315   8.8048929
 114.5920012 141.7724997  14.1369988 114.8150012 141.3544997  14.9689988
 113.9900012 141.1594997  13.7139988 114.5411759 141.6324668  14.1937022
 121.6080012 141.2894997  16.3499988 121.3120012 141.1234997  15.4549988
 122.5400012 141.0694997  16.3389988 121.6934166 141.2370640  16.2260536
 131.9600012 138.9074997   2.6069988 131.4060012 138.5114997   1.9349988
 132.0600012 139.8174997   2.3289988 131.8977059 138.9763586   2.4774401
 131.9230012 144.7074997  15.4439988 131.0720012 144.9454997  15.0769988
 132.5140012 144.6904997  14.6909988 131.8862487 144.7378258  15.2918893
 127.4160012 142.5014997  10.0929988 126.4870012 142.2694997  10.0659988
 127.8670012 141.7244997   9.7629988 127.3499216 142.3647238  10.0446917
 115.7140012 141.6914997   0.8129988 116.3300012 142.3184997   1.1929988
 114.8520012 142.0074997   1.0849988 115.6817698 141.8199430   0.9017183
 121.3860012 144.4924997   5.8029988 121.1450012 145.4174997   5.8439988
 120.6450012 144.0334997   6.1989988 121.2528409 144.5571421   5.8621377
 125.4450012 144.7404997  11.8179988 125.0190012 144.5134997  12.6449988
 126.0250012 144.0024997  11.6359988 125.4651868 144.6095299  11.9065830
 116.2260012 136.5254997  13.6949988 115.3330012 136.8644997  13.6269988
 116.1270012 135.6704997  14.1129988 116.0904164 136.4562588  13.7422235
 128.5140012 144.3424997   3.1189988 128.2360012 143.6144997   3.6749988
 129.4410012 144.4614997   3.3239988 128.6013124 144.2588802   3.2228845
 117.1290012 143.6044997   2.3059988 116.4430012 143.9564997   2.8729988
 117.6510012 144.3674997   2.0589988 117.1056852 143.7558578   2.3502118
 124.9600012 136.2664997  12.5849988 125.6590012 136.3404997  13.2349988
 124.5790012 135.4024997  12.7389988 125.0041767 136.1597624  12.6948322
 125.7450012 135.9184997   3.6819988 125.9650012 136.3904997   2.8789988
 126.3030012 136.3134997   4.3519988 125.8504968 136.0364285   3.6627331
 122.9450012 137.6464997   4.5169988 123.7570012 138.1514997   4.5629988
 122.7000012 137.5014997   5.4309988 123.0230520 137.6960375   4.6468517
 123.4800012 138.6324997  13.7019988 123.5990012 139.2064997  14.4589988
 124.1360012 137.9444997  13.8159988 123.5849757 138.6181079  13.8210825
 123.8280012 134.7274997   5.4549988 123.4820012 135.3454997   6.0999988
 124.4870012 135.2284997   4.9739988 123.8697826 134.8795802   5.4780971
 119.4860012 135.7904997   2.1419988 119.4030012 136.6794997   2.4889988
 120.3760012 135.5254997   2.3739988 119.5949469 135.8761430   2.2207626
 129.6850012 136.5394997  14.5369988 128.7680012 136.8024997  14.4489988
 130.0200012 136.5364997  13.6399988 129.6049900 136.5750224  14.4037919
 128.2870012 140.2904997   8.6319988 127.4890012 139.8754997   8.3039988
 128.7320012 139.5994997   9.1229988 128.2379885 140.1403543   8.6534889
 116.0610012 138.8824997   0.3189988 116.0160012 139.8214997   0.4969988
 115.1730012 138.6464997   0.0489988 115.9348574 138.9791892   0.3068912
 116.8690012 133.6644997   8.9919988 116.6400012 133.7234997   8.0639988
 116.4260012 132.8724997   9.2979988 116.7778530 133.5655753   8.9064786
 114.9940012 144.0274997  17.4369988 115.1380012 143.1254997  17.1499988
 114.2220012 144.3134997  16.9489988 114.9093323 143.9428261  17.3317881
 119.3360012 144.3714997  -0.4310012 119.4000012 143.5774997   0.0999988
 119.9890012 144.2524997  -1.1210012 119.4330241 144.2467148  -0.4515683
 121.6500012 143.9974997  16.8689988 121.3210012 144.2684997  16.0119988
 121.8020012 143.0564997  16.7819988 121.6254809 143.9073862  16.7398244
 127.3840012 143.9134997  14.2529988 128.1300012 144.5014997  14.1329988
 126.6270012 144.4954997  14.3159988 127.3837554 144.0727011  14.2450907
 115.8270012 141.2274997  16.8569988 116.2350012 140.3704997  16.7359988
 115.5670012 141.2424997  17.7779988 115.8477568 141.1120807  16.9649588
 120.4850012 142.3434997   1.8749988 120.0250012 141.8594997   2.5609988
 120.7400012 141.6754997   1.2389988 120.4564902 142.1868731   1.8829334
 119.7740012 140.2364997  14.2309988 119.1560012 140.9114997  14.5109988
 120.1180012 140.5574997  13.3979988 119.7359615 140.3722721  14.1566581
 121.5560012 140.5864997   0.1369988 121.3760012 140.4324997  -0.7900012
 122.5060012 140.6944997   0.1819988 121.6597776 140.5800175   0.0161843
 124.7940012 142.7084997  17.5079988 125.7470012 142.7914997  17.4809988
 124.6330012 141.9964997  18.1279988 124.9026426 142.6236746  17.5880579
 130.9460012 142.9414997  -0.4170012 130.6720012 142.5164997  -1.2300012
 130.9850012 143.8724997  -0.6340012 130.9137699 143.0092484  -0.5576390
 120.1130012 137.5914997  15.3129988 120.2630012 136.8624997  14.7109988
 120.1160012 138.3684997  14.7539988 120.1339302 137.5967851  15.1550692
 120.5260012 135.9614997  12.8059988 121.0620012 136.4124997  12.1539988
 119.6740012 135.8534997  12.3829988 120.4842178 136.0086390  12.6595756
 122.1080012 141.4004997  13.0449988 122.8580012 141.2444997  12.4719988
 121.7690012 142.2524997  12.7699988 122.1648921 141.4942968  12.9293561
 126.5230012 139.2154997  18.0739988 126.7160012 138.2844997  17.9619988
 127.3810012 139.6404997  18.0639988 126.6653020 139.1456389  18.0573361
 127.8400012 142.0044997  16.1509988 127.5590012 142.7134997  15.5739988
 128.7830012 141.9314997  15.9999988 127.9289027 142.0917646  16.0515551
 118.5920012 138.7894997  17.2249988 117.8250012 138.2574997  17.0149988
 119.2710012 138.4794997  16.6249988 118.5787022 138.6747506  17.1151648
 121.3320012 133.4174997  13.2369988 121.2330012 134.3644997  13.1319988
 120.5890012 133.0454997  12.7619988 121.2180564 133.4965902  13.1584560
 122.5960012 137.7394997  16.8009988 122.3600012 137.5194997  17.7029988
 121.8120012 137.5324997  16.2909988 122.4578628 137.6814760  16.8553932
 125.3110012 136.8664997  15.8769988 124.3640012 136.8984997  16.0089988
 125.6240012 136.2414997  16.5299988 125.2235475 136.7863207  15.9834455
 126.9450012 135.5004997  17.8819988 126.8490012 134.5484997  17.8759988
 126.6240012 135.7694997  18.7419988 126.8884070 135.4064035  17.9975441
 116.7720012 136.7104997  16.9289988 116.9840012 136.0034997  16.3189988
 116.6610012 136.2724997  17.7729988 116.7859721 136.5547084  16.9596843
 121.5530012 132.7114997  15.9089988 122.2650012 132.0714997  15.8949988
 121.4520012 132.9784997  14.9949988 121.6367939 132.6599938  15.7835650
 121.9070012 134.3944997  17.9619988 121.7750012 133.9184997  17.1419988
 121.3080012 135.1384997  17.9069988 121.8079071 134.4299618  17.8422886
 131.4040012 143.8104997   3.5579988 132.2540012 144.2314997   3.6849988
 131.4100012 143.0704997   4.1649988 131.5211372 143.7680803   3.6574344
 131.7990012 141.8634997   5.3819988 131.0720012 141.3844997   5.7789988
 132.3800012 142.0694997   6.1139988 131.7779375 141.8257090   5.5354129
 131.5580012 144.6484997  10.3289988 132.3910012 144.2704997  10.0489988
 131.6700012 145.5914997  10.2099988 131.6872647 144.7242218  10.2745487
 132.0670012 141.7644997   1.7729988 131.5450012 142.1214997   1.0539988
 132.0340012 142.4394997   2.4509988 131.9911634 141.9045413   1.7663145
 130.4160012 139.0044997   0.3239988 130.5120012 139.6714997  -0.3570012
 130.2760012 138.1884997  -0.1580012 130.4102135 138.9854500   0.1658491
 129.5850012 140.3844997   5.9449988 129.4350012 139.4394997   5.9239988
 129.2320012 140.6654997   6.7879988 129.5166625 140.2930441   6.0562346
 114.6210012 142.4624997   9.9549988 114.8050012 142.3804997   9.0189988
 115.4700012 142.3384997  10.3789988 114.7610139 142.4345003   9.8841455
 130.4420012 142.3544997  15.5829988 131.0250012 141.6204997  15.7749988
 131.0060012 143.1264997  15.6299988 130.5979769 142.3584227  15.6156159
 131.9380012 140.2574997  16.2679988 131.0750012 139.8784997  16.1019988
 132.5430012 139.5184997  16.1939988 131.9015979 140.1058023  16.2352817
 129.6630012 136.4124997  -0.5590012 130.2740012 136.0414997   0.0779988
 128.8270012 135.9914997  -0.3630012 129.6335032 136.3047554  -0.4452965
 129.2960012 137.9674997   4.4069988 129.5760012 137.0604997   4.5309988
 130.0550012 138.4014997   4.0179988 129.4369277 137.9020942   4.3713682
 129.9080012 138.5484997   9.8429988 130.8410012 138.7604997   9.8089988
 129.6730012 138.6504997  10.7649988 130.0038036 138.5912769   9.9629976
 129.9370012 139.2854997  12.6189988 129.0940012 139.5534997  12.9849988
 130.3790012 140.1074997  12.4079988 129.8814158 139.4333291  12.6405491
 114.2180012 137.7334997  16.0959988 115.1380012 137.6114997  16.3319988
 113.7690012 136.9834997  16.4849988 114.2831580 137.6153727  16.1809006
 132.2200012 133.2654997  17.9719988 132.5700012 132.6114997  17.3669988
 132.3670012 134.1024997  17.5329988 132.2878419 133.2891591  17.8297118
 129.9090012 135.2304997   4.4549988 130.0920012 134.7814997   5.2809988
 129.3100012 134.6454997   3.9919988 129.8530202 135.0899975   4.5053275
 115.4390012 136.0454997   8.9869988 115.8850012 135.2534997   9.2889988
 115.9060012 136.7614997   9.4179988 115.5630172 136.0340624   9.0864820
 113.7430012 139.0444997  10.0559988 114.2350012 138.8234997   9.2649988
 114.1060012 139.8854997  10.3369988 113.8593126 139.1278357   9.9857531
 131.7400012 135.3744997  16.3219988 130.8220012 135.6454997  16.2859988
 131.8630012 134.8394997  15.5369988 131.6311066 135.3392892  16.2110487
 131.7760012 135.2974997   0.9829988 132.1880012 134.5764997   0.5079988
 132.4580012 135.9674997   1.0419988 131.9245885 135.2892368   0.9258915
 114.0570012 135.3024997   4.1099988 113.1320012 135.5114997   3.9809988
 114.5110012 135.7864997   3.4209988 113.9917368 135.3965993   3.9991226
 114.0210012 134.0404997  12.4549988 113.3560012 133.7944997  13.0979988
 113.5780012 134.6624997  11.8769988 113.8700956 134.0908632  12.4649352
 130.7400012 133.4644997  14.1409988 129.9280012 133.7894997  13.7529988
 130.9730012 132.7044997  13.6079988 130.6603423 133.4062436  14.0158253
 124.1700012 134.9134997   8.4629988 123.4960012 134.2844997   8.7189988
 124.7340012 134.4294997   7.8599988 124.1539230 134.7618744   8.4165340
 129.3130012 133.0214997   8.5759988 129.9170012 133.5684997   8.0739988
 128.4430012 133.3404997   8.3359988 129.2781241 133.1395806   8.4747654
 131.0400012 134.1594997   6.9089988 131.6520012 133.6454997   6.3829988
 131.4220012 135.0374997   6.9329988 131.1754540 134.2077140   6.8401830
 116.4970012 133.5474997   6.2849988 115.7200012 133.3134997   5.7779988
 117.0270012 132.7504997   6.2939988 116.4622330 133.4076988   6.2167742
 115.3330012 133.3454997   2.0889988 115.7720012 133.9564997   1.4969988
 114.7000012 133.8834997   2.5629988 115.3074514 133.5019257   2.0720930
 121.0760012 133.4744997   6.0989988 121.9510012 133.8624997   6.0689988
 120.9400012 133.2594997   7.0209988 121.1773695 133.4985184   6.2196440
 126.6330012 133.5044997   7.7479988 126.7090012 133.5994997   6.7979988
 126.3580012 132.5964997   7.8769988 126.6062321 133.3947867   7.6355079
 127.9860012 133.5304997   3.4399988 127.2840012 134.1454997   3.2309988
 127.5420012 132.6924997   3.5709988 127.8296330 133.5015783   3.4290328
 117.1940012 135.2614997   0.5309988 117.6860012 134.6314997   0.0039988
 117.8180012 135.5574997   1.1949988 117.3455446 135.2153199   0.5485980
 122.2200012 135.5544997   2.9879988 122.3980012 134.9084997   3.6709988
 122.1670012 136.3884997   3.4559988 122.2371829 135.5787985   3.1445940
 116.4550012 134.0614997  15.8029988 116.0890012 133.2964997  16.2459988
 117.3680012 134.0904997  16.0899988 116.5282790 133.9607224  15.9024070
 118.4280012 133.4124997  17.3389988 119.3260012 133.1384997  17.1539988
 118.0410012 132.6694997  17.8029988 118.4986612 133.2745914  17.3763643
 126.8490012 132.7444997  17.5209988 126.9260012 132.3184997  18.3749988
 127.7430012 132.7584997  17.1779988 126.9803428 132.6880880  17.5915310
 144.4310012 142.7034997   6.2439988 144.5200012 143.6474997   6.1119988
 143.7930012 142.4284997   5.5859988 144.3569081 142.7954830   6.1369614
 143.3640012 141.9584997   9.6629988 143.3260012 141.3124997  10.3679988
 143.0420012 141.4924997   8.8919988 143.3152333 141.8069408   9.6552978
 135.7330012 141.5734997  11.2559988 135.7740012 140.9474997  11.9789988
 136.4360012 142.1974997  11.4379988 135.8336363 141.5721196  11.3796044
 133.2660012 139.6834997   5.1839988 132.8190012 140.5294997   5.1649988
 132.7050012 139.1034997   4.6679988 133.1289900 139.7209916   5.1116801
 133.9770012 141.8454997   7.3099988 134.1900012 141.0754997   7.8369988
 134.7150012 141.9344997   6.7059988 134.1058496 141.7521394   7.3005300
 141.7540012 144.3914997  10.0689988 142.0580012 143.7054997   9.4739988
 142.4750012 144.5094997  10.6869988 141.8930671 144.3136305  10.0711816
 144.8950012 138.7854997  10.3969988 145.0370012 137.8394997  10.4169988
 144.7880012 138.9924997   9.4679988 144.8999863 138.6839534  10.2742339
 138.0490012 136.8864997   7.6689988 138.0930012 137.7464997   7.2509988
 137.5920012 136.3344997   7.0349988 137.9932185 136.9295799   7.5260299
 134.6700012 139.2834997   8.4309988 135.3230012 138.7334997   8.8629988
 134.6940012 139.0094997   7.5139988 134.7626683 139.1711466   8.3662123
 139.8260012 140.8334997   7.6459988 140.4420012 140.3074997   8.1559988
 139.2400012 140.1934997   7.2429988 139.8310810 140.6749208   7.6613173
 136.8600012 135.8044997  11.7429988 136.6410012 136.3344997  10.9769988
 136.1920012 136.0314997  12.3899988 136.7397600 135.9076906  11.7256379
 139.4290012 143.4804997  12.0299988 138.6890012 144.0784997  12.1339988
 140.1430012 144.0344997  11.7149988 139.4242237 143.6372831  12.0016465
 136.4530012 137.6964997   9.6949988 137.0670012 138.3294997  10.0689988
 136.9650012 137.2244997   9.0389988 136.6062296 137.7192370   9.6574252
 140.8860012 133.1104997   9.1959988 140.7690012 132.1614997   9.1409988
 140.0310012 133.4424997   9.4689988 140.7543733 133.0255409   9.2253897
 143.1530012 141.9474997   3.6959988 142.4410012 142.4824997   3.3439988
 143.8440012 142.0034997   3.0359988 143.1490132 142.0282543   3.5586289
 143.2060012 140.4054997   0.7349988 143.9070012 140.4274997   1.3859988
 143.5090012 139.7774997   0.0789988 143.3427830 140.3236566   0.7353711
 138.2040012 142.7874997   6.5299988 137.8730012 142.4174997   5.7119988
 138.7920012 142.1174997   6.8769988 138.2381873 142.6461156   6.4648102
 138.5700012 141.5564997  10.1639988 139.1360012 141.6774997   9.4009988
 138.8890012 142.1934997  10.8029988 138.6905786 141.6591884  10.1460040
 136.3700012 142.1534997  14.1099988 136.4410012 142.8044997  14.8079988
 135.4800012 142.2564997  13.7749988 136.2593117 142.2565936  14.1602700
 137.1940012 141.8574997   4.1199988 136.9020012 142.6254997   3.6289988
 136.5200012 141.1974997   3.9569988 137.0629081 141.8734406   4.0307340
 133.2870012 144.2204997  12.9349988 132.7860012 144.1924997  12.1199988
 133.2920012 143.3144997  13.2439988 133.2191526 144.0942278  12.8652872
 138.1550012 134.0134997   9.9729988 137.2930012 133.9264997   9.5659988
 138.1320012 134.8694997  10.4009988 138.0340330 134.1172765   9.9751863
 142.8180012 133.7354997  13.3479988 143.2380012 133.3204997  14.1009988
 141.8850012 133.5574997  13.4649988 142.7493644 133.6545900  13.4669539
 142.4790012 136.2284997   0.6329988 142.2260012 136.2474997   1.5559988
 142.2230012 135.3564997   0.3319988 142.4097790 136.1132437   0.7186263
 138.2460012 138.9794997  11.0679988 137.6040012 138.9384997  11.7769988
 138.2830012 139.9054997  10.8309988 138.1631324 139.0991559  11.1329824
 138.2430012 139.2004997   5.9799988 137.3500012 138.8594997   5.9219988
 138.6930012 138.8234997   5.2249988 138.1817305 139.1028484   5.8699177
 143.7780012 139.6164997   4.7969988 143.3690012 140.4314997   4.5059988
 144.4990012 139.4764997   4.1829988 143.8194537 139.7092018   4.6741342
 142.8800012 139.7914997  16.2849988 142.3180012 139.0874997  16.6059988
 143.7070012 139.6714997  16.7529988 142.9147095 139.6787883  16.3922330
 144.7830012 139.0624997   7.6109988 144.5880012 139.6674997   6.8959988
 144.9640012 138.2284997   7.1769988 144.7807614 139.0326300   7.4544405
 135.9960012 139.2994997  12.9349988 135.9580012 139.6994997  13.8039988
 135.5050012 138.4824997  13.0259988 135.9244684 139.2438069  13.0661059
 139.3620012 136.6734997  -0.2660012 138.9310012 136.2284997   0.4639988
 138.6440012 137.0454997  -0.7780012 139.2059438 136.6628940  -0.2353201
 132.6040012 136.4154997   6.7859988 133.2350012 136.3864997   7.5049988
 133.0530012 135.9904997   6.0559988 132.7510774 136.3540492   6.7856553
 133.8780012 137.1614997   2.2099988 134.3520012 137.7524997   1.6249988
 133.1610012 137.6924997   2.5569988 133.8459341 137.3140867   2.1768836
 144.0470012 140.7004997  12.2829988 144.3700012 140.0694997  11.6399988
 143.6070012 140.1654997  12.9429988 144.0316895 140.5418441  12.2842850
 140.8240012 136.6274997   7.0669988 139.9130012 136.6844997   7.3549988
 141.3300012 136.5674997   7.8769988 140.7675413 136.6271985   7.2160622
 135.6530012 138.2564997   5.8929988 134.7630012 138.3564997   5.5529988
 135.9490012 137.4144997   5.5469988 135.5712823 138.1563545   5.7997213
 139.3060012 138.2564997   3.5499988 140.2370012 138.3854997   3.7279988
 139.0910012 138.9264997   2.8999988 139.4044247 138.3646565   3.4865747
 137.9800012 139.4514997   1.1169988 137.4370012 139.0714997   0.4249988
 138.8130012 139.6454997   0.6879988 138.0184399 139.4258124   0.9644526
 136.1150012 144.0084997  16.2159988 136.8470012 144.2624997  16.7769988
 135.3350012 144.2124997  16.7309988 136.1098232 144.0709177  16.3625760
 142.1440012 139.4154997   8.9539988 142.7090012 138.8684997   8.4069988
 141.9970012 138.8934997   9.7419988 142.2012918 139.2702024   8.9858454
 137.1460012 135.5514997   5.3719988 136.8290012 134.6494997   5.3369988
 137.9280012 135.5534997   4.8189988 137.2082284 135.4281628   5.2924783
 140.7710012 137.8034997  11.3679988 139.9350012 138.2574997  11.4779988
 141.2950012 138.0794997  12.1199988 140.7274414 137.9029376  11.4847136
 141.3150012 144.0164997   3.0519988 140.5700012 143.5094997   2.7299988
 141.1810012 144.0654997   3.9989988 141.1948776 143.9536940   3.1358647
 142.8340012 144.2004997  14.2889988 142.4890012 143.8194997  15.0959988
 142.6340012 145.1344997  14.3609988 142.7598061 144.2745228  14.4090961
 136.4400012 143.3114997   8.8219988 137.1850012 143.3094997   8.2209988
 136.5180012 142.4884997   9.3039988 136.5525518 143.1999315   8.8048929
 133.4480012 141.7724997  14.1369988 133.6710012 141.3544997  14.9689988
 132.8460012 141.1594997  13.7139988 133.3971759 141.6324668  14.1937022
 140.4640012 141.2894997  16.3499988 140.1680012 141.1234997  15.4549988
 141.3960012 141.0694997  16.3389988 140.5494166 141.2370640  16.2260536
 134.5700012 141.6914997   0.8129988 135.1860012 142.3184997   1.1929988
 133.7080012 142.0074997   1.0849988 134.5377698 141.8199430   0.9017183
 140.2420012 144.4924997   5.8029988 140.0010012 145.4174997   5.8439988
 139.5010012 144.0334997   6.1989988 140.1088409 144.5571421   5.8621377
 144.3010012 144.7404997  11.8179988 143.8750012 144.5134997  12.6449988
 144.8810012 144.0024997  11.6359988 144.3211868 144.6095299  11.9065830
 135.0820012 136.5254997  13.6949988 134.1890012 136.8644997  13.6269988
 134.9830012 135.6704997  14.1129988 134.9464164 136.4562588  13.7422235
 135.9850012 143.6044997   2.3059988 135.2990012 143.9564997   2.8729988
 136.5070012 144.3674997   2.0589988 135.9616852 143.7558578   2.3502118
 143.8160012 136.2664997  12.5849988 144.5150012 136.3404997  13.2349988
 143.4350012 135.4024997  12.7389988 143.8601767 136.1597624  12.6948322
 144.6010012 135.9184997   3.6819988 144.8210012 136.3904997   2.8789988
 145.1590012 136.3134997   4.3519988 144.7064968 136.0364285   3.6627331
 141.8010012 137.6464997   4.5169988 142.6130012 138.1514997   4.5629988
 141.5560012 137.5014997   5.4309988 141.8790520 137.6960375   4.6468517
 142.3360012 138.6324997  13.7019988 142.4550012 139.2064997  14.4589988
 142.9920012 137.9444997  13.8159988 142.4409757 138.6181079  13.8210825
 142.6840012 134.7274997   5.4549988 142.3380012 135.3454997   6.0999988
 143.3430012 135.2284997   4.9739988 142.7257826 134.8795802   5.4780971
 138.3420012 135.7904997   2.1419988 138.2590012 136.6794997   2.4889988
 139.2320012 135.5254997   2.3739988 138.4509469 135.8761430   2.2207626
 134.9170012 138.8824997   0.3189988 134.8720012 139.8214997   0.4969988
 134.0290012 138.6464997   0.0489988 134.7908574 138.9791892   0.3068912
 135.7250012 133.6644997   8.9919988 135.4960012 133.7234997   8.0639988
 135.2820012 132.8724997   9.2979988 135.6338530 133.5655753   8.9064786
 133.8500012 144.0274997  17.4369988 133.9940012 143.1254997  17.1499988
 133.0780012 144.3134997  16.9489988 133.7653322 143.9428261  17.3317881
 138.1920012 144.3714997  -0.4310012 138.2560012 143.5774997   0.0999988
 138.8450012 144.2524997  -1.1210012 138.2890241 144.2467148  -0.4515683
 140.5060012 143.9974997  16.8689988 140.1770012 144.2684997  16.0119988
 140.6580012 143.0564997  16.7819988 140.4814809 143.9073862  16.7398244
 134.6830012 141.2274997  16.8569988 135.0910012 140.3704997  16.7359988
 134.4230012 141.2424997  17.7779988 134.7037568 141.1120807  16.9649588
 139.3410012 142.3434997   1.8749988 138.8810012 141.8594997   2.5609988
 139.5960012 141.6754997   1.2389988 139.3124902 142.1868731   1.8829334
 138.6300012 140.2364997  14.2309988 138.0120012 140.9114997  14.5109988
 138.9740012 140.5574997  13.3979988 138.5919615 140.3722721  14.1566581
 140.4120012 140.5864997   0.1369988 140.2320012 140.4324997  -0.7900012
 141.3620012 140.6944997   0.1819988 140.5157776 140.5800175   0.0161843
 143.6500012 142.7084997  17.5079988 144.6030012 142.7914997  17.4809988
 143.4890012 141.9964997  18.1279988 143.7586426 142.6236746  17.5880579
 138.9690012 137.5914997  15.3129988 139.1190012 136.8624997  14.7109988
 138.9720012 138.3684997  14.7539988 138.9899302 137.5967851  15.1550692
 139.3820012 135.9614997  12.8059988 139.9180012 136.4124997  12.1539988
 138.5300012 135.8534997  12.3829988 139.3402178 136.0086390  12.6595756
 140.9640012 141.4004997  13.0449988 141.7140012 141.2444997  12.4719988
 140.6250012 142.2524997  12.7699988 141.0208921 141.4942968  12.9293561
 137.4480012 138.7894997  17.2249988 136.6810012 138.2574997  17.0149988
 138.1270012 138.4794997  16.6249988 137.4347022 138.6747506  17.1151648
 140.1880012 133.4174997  13.2369988 140.0890012 134.3644997  13.1319988
 139.4450012 133.0454997  12.7619988 140.0740564 133.4965902  13.1584560
 141.4520012 137.7394997  16.8009988 141.2160012 137.5194997  17.7029988
 140.6680012 137.5324997  16.2909988 141.3138628 137.6814760  16.8553932
 144.1670012 136.8664997  15.8769988 143.2200012 136.8984997  16.0089988
 144.4800012 136.2414997  16.5299988 144.0795475 136.7863207  15.9834455
 135.6280012 136.7104997  16.9289988 135.8400012 136.0034997  16.3189988
 135.5170012 136.2724997  17.7729988 135.6419721 136.5547084  16.9596843
 140.4090012 132.7114997  15.9089988 141.1210012 132.0714997  15.8949988
 140.3080012 132.9784997  14.9949988 140.4927939 132.6599938  15.7835650
 140.7630012 134.3944997  17.9619988 140.6310012 133.9184997  17.1419988
 140.1640012 135.1384997  17.9069988 140.6639071 134.4299618  17.8422886
 133.4770012 142.4624997   9.9549988 133.6610012 142.3804997   9.0189988
 134.3260012 142.3384997  10.3789988 133.6170139 142.4345003   9.8841455
 133.0740012 137.7334997  16.0959988 133.9940012 137.6114997  16.3319988
 132.6250012 136.9834997  16.4849988 133.1391580 137.6153727  16.1809006
 134.2950012 136.0454997   8.9869988 134.7410012 135.2534997   9.2889988
 134.7620012 136.7614997   9.4179988 134.4190172 136.0340624   9.0864820
 132.5990012 139.0444997  10.0559988 133.0910012 138.8234997   9.2649988
 132.9620012 139.8854997  10.3369988 132.7153126 139.1278357   9.9857531
 132.9130012 135.3024997   4.1099988 131.9880012 135.5114997   3.9809988
 133.3670012 135.7864997   3.4209988 132.8477368 135.3965993   3.9991226
 132.8770012 134.0404997  12.4549988 132.2120012 133.7944997  13.0979988
 132.4340012 134.6624997  11.8769988 132.7260956 134.0908632  12.4649352
 143.0260012 134.9134997   8.4629988 142.3520012 134.2844997   8.7189988
 143.5900012 134.4294997   7.8599988 143.0099230 134.7618744   8.4165340
 135.3530012 133.5474997   6.2849988 134.5760012 133.3134997   5.7779988
 135.8830012 132.7504997   6.2939988 135.3182330 133.4076988   6.2167742
 134.1890012 133.3454997   2.0889988 134.6280012 133.9564997   1.4969988
 133.5560012 133.8834997   2.5629988 134.1634514 133.5019257   2.0720930
 139.9320012 133.4744997   6.0989988 140.8070012 133.8624997   6.0689988
 139.7960012 133.2594997   7.0209988 140.0333695 133.4985184   6.2196440
 136.0500012 135.2614997   0.5309988 136.5420012 134.6314997   0.0039988
 136.6740012 135.5574997   1.1949988 136.2015446 135.2153199   0.5485980
 141.0760012 135.5544997   2.9879988 141.2540012 134.9084997   3.6709988
 141.0230012 136.3884997   3.4559988 141.0931829 135.5787985   3.1445940
 135.3110012 134.0614997  15.8029988 134.9450012 133.2964997  16.2459988
 136.2240012 134.0904997  16.0899988 135.3842790 133.9607224  15.9024070
 137.2840012 133.4124997  17.3389988 138.1820012 133.1384997  17.1539988
 136.8970012 132.6694997  17.8029988 137.3546612 133.2745914  17.3763643
  12.4390012  10.7114997  25.0999988  12.5280012  11.6554997  24.9679988
  11.8010012  10.4364997  24.4419988  12.3649081  10.8034830  24.9929614
  11.3720012   9.9664997  28.5189988  11.3340012   9.3204997  29.2239988
  11.0500012   9.5004997  27.7479988  11.3232333   9.8149408  28.5112978
   3.7410012   9.5814997  30.1119988   3.7820012   8.9554997  30.8349988
   4.4440012  10.2054997  30.2939988   3.8416363   9.5801196  30.2356044
  15.0780012  12.9054997  26.8199988  14.6380012  12.1854997  27.2709988
  15.0650012  13.6264997  27.4499988  15.0160226  12.9043731  26.9668494
   4.6640012  14.0314997  28.6469988   4.2950012  13.2294997  28.2769988
   5.6050012  13.8624997  28.6929988   4.7407289  13.8990153  28.6026316
   1.2740012   7.6914997  24.0399988   0.8270012   8.5374997  24.0209988
   0.7130012   7.1114997  23.5239988   1.1369900   7.7289916  23.9676801
   1.9850012   9.8534997  26.1659988   2.1980012   9.0834997  26.6929988
   2.7230012   9.9424997  25.5619988   2.1138496   9.7601394  26.1565300
  12.1900012  18.0104997  27.0329988  12.8100012  17.3334997  26.7589988
  11.9820012  17.7924997  27.9409988  12.2466904  17.8883870  27.1183365
   9.7620012  12.3994997  28.9249988  10.0660012  11.7134997  28.3299988
  10.4830012  12.5174997  29.5429988   9.9010671  12.3216304  28.9271816
  18.4250012   4.0004997  29.7859988  18.4740012   4.6104997  30.5219988
  18.8500012   4.4614997  29.0629988  18.4891824   4.1463741  29.7890205
  12.9030012   6.7934997  29.2529988  13.0450012   5.8474997  29.2729988
  12.7960012   7.0004997  28.3239988  12.9079864   6.6919534  29.1302339
   6.0570012   4.8944997  26.5249988   6.1010012   5.7544997  26.1069988
   5.6000012   4.3424997  25.8909988   6.0012185   4.9375799  26.3820299
  13.7800012   5.0254997  24.9259988  14.4260012   4.6964997  25.5509988
  14.2900012   5.5434997  24.3029988  13.9374264   5.0504611  24.9273862
   2.6780012   7.2914997  27.2869988   3.3310012   6.7414997  27.7189988
   2.7020012   7.0174997  26.3699988   2.7706683   7.1791466  27.2222123
   7.8340012   8.8414997  26.5019988   8.4500012   8.3154997  27.0119988
   7.2480012   8.2014997  26.0989988   7.8390810   8.6829208  26.5173173
  18.8160012   5.4784997  32.0219988  18.1280012   6.1364997  31.9259988
  18.8320012   5.2814997  32.9579988  18.7238525   5.5420462  32.1354808
   4.8680012   3.8124997  30.5989988   4.6490012   4.3424997  29.8329988
   4.2000012   4.0394997  31.2459988   4.7477600   3.9156906  30.5816379
  12.2370012  13.3124997  24.1429988  11.9410012  12.9904997  23.2919988
  11.9120012  14.2124997  24.1839988  12.1526371  13.3900215  24.0321801
   7.4370012  11.4884997  30.8859988   6.6970012  12.0864997  30.9899988
   8.1510012  12.0424997  30.5709988   7.4322237  11.6452831  30.8576465
  15.5440012   4.3164997  26.9059988  15.3280012   3.5504997  27.4389988
  16.1990012   4.7884997  27.4189988  15.6030632   4.2755889  27.0482861
   4.4610012   5.7044997  28.5509988   5.0750012   6.3374997  28.9249988
   4.9730012   5.2324997  27.8949988   4.6142296   5.7272370  28.5134252
   5.8440012  13.4524997  31.6739988   5.8390012  14.3324997  31.2959988
   4.9910012  13.3694997  32.0989988   5.7279464  13.5616117  31.6797907
   1.9650012  13.1234997  22.4559988   1.6930012  13.3524997  21.5669988
   2.0110012  13.9614997  22.9159988   1.9340094  13.2681213  22.3965697
  15.5900012  14.7454997  29.1679988  14.6490012  14.8034997  29.3299988
  15.8670012  15.6514997  29.0309988  15.4984679  14.8759443  29.1716815
  15.8910012   3.0314997  30.5859988  15.1550012   3.6424997  30.5479988
  16.5740012   3.4464997  30.0589988  15.8826541   3.1711374  30.5095832
   8.8940012   1.1184997  28.0519988   8.7770012   0.1694997  27.9969988
   8.0390012   1.4504997  28.3249988   8.7623733   1.0335409  28.0813897
  13.8420012  16.5264997  25.7939988  14.2680012  15.8194997  25.3089988
  14.1590012  17.3274997  25.3769988  13.9431019  16.5380994  25.6713130
  15.0020012  14.4274997  24.3019988  14.7440012  13.7374997  23.6909988
  15.0730012  13.9844997  25.1479988  14.9762856  14.2732124  24.3326885
  16.6880012  12.9934997  32.7799988  16.8280012  12.4024997  32.0399988
  16.8550012  13.8664997  32.4229988  16.7296778  13.0306426  32.6306965
  11.1610012   9.9554997  22.5519988  10.4490012  10.4904997  22.1999988
  11.8520012  10.0114997  21.8919988  11.1570132  10.0362543  22.4146289
  11.2140012   8.4134997  19.5909988  11.9150012   8.4354997  20.2419988
  11.5170012   7.7854997  18.9349988  11.3507830   8.3316566  19.5913711
  18.5300012   9.3334997  30.8459988  17.8770012  10.0284997  30.9349988
  18.9950012   9.5434997  30.0359988  18.5035390   9.4569425  30.7486883
  14.5660012  10.1654997  23.5039988  13.8340012  10.3934997  24.0769988
  15.0140012   9.4514997  23.9589988  14.5263095  10.1002571  23.6439119
  14.4640012   8.3394997  32.5709988  14.5440012   9.1024997  33.1429988
  13.8620012   8.6184997  31.8809988  14.3935756   8.4817134  32.5560589
   6.2120012  10.7954997  25.3859988   5.8810012  10.4254997  24.5679988
   6.8000012  10.1254997  25.7329988   6.2461873  10.6541156  25.3208102
   7.5780012  14.2234997  28.0679988   7.4840012  13.6454997  27.3109988
   8.3080012  13.8524997  28.5639988   7.6637981  14.0942390  28.0314165
   6.5780012   9.5644997  29.0199988   7.1440012   9.6854997  28.2569988
   6.8970012  10.2014997  29.6589988   6.6985786   9.6671884  29.0020040
  12.8870012  15.0674997  29.7539988  12.6470012  15.7294997  30.4019988
  12.6890012  14.2334997  30.1789988  12.8273808  15.0453134  29.9001524
   7.4580012  13.9634997  33.7369988   7.1470012  14.7454997  34.1919988
   6.8080012  13.8104997  33.0509988   7.3275558  14.0499105  33.7065871
  13.4370012   9.3274997  21.1889988  14.0170012   9.4774997  21.9359988
  13.8510012   9.7984997  20.4659988  13.5722830   9.4116841  21.1934134
   4.3780012  10.1614997  32.9659988   4.4490012  10.8124997  33.6639988
   3.4880012  10.2644997  32.6309988   4.2673117  10.2645936  33.0162700
  11.1640012  16.0644997  24.6239988  11.6380012  16.3594997  25.4019988
  10.6010012  16.8024997  24.3909988  11.1527653  16.2046932  24.6990136
   5.6980012  16.0354997  34.4999988   5.7050012  15.8994997  33.5529988
   4.7820012  15.9174997  34.7519988   5.5751714  16.0009430  34.4044666
  17.1360012   1.0774997  21.0019988  16.2360012   1.2164997  21.2969988
  17.3880012   1.9084997  20.5999988  17.0468702   1.2089074  20.9880205
   5.2020012   9.8654997  22.9759988   4.9100012  10.6334997  22.4849988
   4.5280012   9.2054997  22.8129988   5.0709081   9.8814406  22.8867340
  18.3250012  15.4434997  19.3779988  18.3990012  16.3824997  19.5489988
  19.2310012  15.1384997  19.3219988  18.4575100  15.5306722  19.3938119
   1.2950012  12.2284997  31.7909988   0.7940012  12.2004997  30.9759988
   1.3000012  11.3224997  32.0999988   1.2271526  12.1022278  31.7212872
   1.0450012  15.0084997  28.6749988   1.9910012  14.8644997  28.6559988
   0.9330012  15.7924997  29.2119988   1.1592727  15.0948046  28.7450072
  19.2430012  15.6744997  34.3569988  19.1940012  14.7194997  34.3199988
  18.4160012  15.9424997  34.7579988  19.1244940  15.5798998  34.4061375
  10.2220012  15.2484997  33.2329988  10.3090012  16.0744997  33.7079988
   9.3580012  14.9184997  33.4819988  10.1171964  15.3169878  33.3316549
  10.6360012  19.0204997  23.0389988  10.5610012  18.8994997  22.0929988
  10.6690012  19.9704997  23.1579988  10.6301848  19.1322500  22.9254834
   4.2890012  17.8094997  24.8199988   4.4420012  17.4614997  25.6989988
   3.4390012  17.4534997  24.5649988   4.1948962  17.7136650  24.9058340
  13.7380012  18.1744997  20.0409988  14.1130012  17.4304997  19.5709988
  13.7420012  17.9044997  20.9599988  13.7898915  18.0361486  20.1007824
  13.4070012  18.1004997  22.7909988  12.4710012  18.2004997  22.9689988
  13.6870012  17.3914997  23.3689988  13.3168255  18.0182711  22.8935391
  16.3950012   7.1674997  34.8369988  15.9880012   7.6484997  34.1159988
  16.4360012   6.2624997  34.5289988  16.3448437   7.1109374  34.6966683
   3.5440012  13.5514997  32.8339988   3.7600012  13.1904997  33.6929988
   2.6890012  13.1774997  32.6239988   3.4579292  13.4514111  32.9233386
   6.1630012   2.0214997  28.8289988   5.3010012   1.9344997  28.4219988
   6.1400012   2.8774997  29.2569988   6.0420330   2.1252765  28.8311863
  10.8260012   1.7434997  32.2039988  11.2460012   1.3284997  32.9569988
   9.8930012   1.5654997  32.3209988  10.7573644   1.6625900  32.3229539
  14.1520012   5.4994997  33.0569988  13.6380012   5.3734997  33.8549988
  13.9970012   6.4114997  32.8129988  14.0606852   5.6056132  33.1332158
  14.9150012  10.3604997  18.8189988  14.9570012  10.1374997  17.8889988
  15.7640012  10.7594997  19.0089988  15.0355396  10.3839155  18.7173627
  10.4870012   4.2364997  19.4889988  10.2340012   4.2554997  20.4119988
  10.2310012   3.3644997  19.1879988  10.4177790   4.1212437  19.5746263
   6.2540012   6.9874997  29.9239988   5.6120012   6.9464997  30.6329988
   6.2910012   7.9134997  29.6869988   6.1711324   7.1071559  29.9889824
   6.2510012   7.2084997  24.8359988   5.3580012   6.8674997  24.7779988
   6.7010012   6.8314997  24.0809988   6.1897305   7.1108484  24.7259177
  11.7860012   7.6244997  23.6529988  11.3770012   8.4394997  23.3619988
  12.5070012   7.4844997  23.0389988  11.8274537   7.7172018  23.5301342
  10.8880012   7.7994997  35.1409988  10.3260012   7.0954997  35.4619988
  11.7150012   7.6794997  35.6089988  10.9227095   7.6867883  35.2482330
  12.7910012   7.0704997  26.4669988  12.5960012   7.6754997  25.7519988
  12.9720012   6.2364997  26.0329988  12.7887614   7.0406300  26.3104405
   4.0040012   7.3074997  31.7909988   3.9660012   7.7074997  32.6599988
   3.5130012   6.4904997  31.8819988   3.9324684   7.2518069  31.9221059
   7.3700012   4.6814997  18.5899988   6.9390012   4.2364997  19.3199988
   6.6520012   5.0534997  18.0779988   7.2139438   4.6708940  18.6206799
   0.6120012   4.4234997  25.6419988   1.2430012   4.3944997  26.3609988
   1.0610012   3.9984997  24.9119988   0.7590774   4.3620492  25.6416553
   1.8860012   5.1694997  21.0659988   2.3600012   5.7604997  20.4809988
   1.1690012   5.7004997  21.4129988   1.8539341   5.3220867  21.0328836
  12.0550012   8.7084997  31.1389988  12.3780012   8.0774997  30.4959988
  11.6150012   8.1734997  31.7989988  12.0396895   8.5498441  31.1402850
   8.8320012   4.6354997  25.9229988   7.9210012   4.6924997  26.2109988
   9.3380012   4.5754997  26.7329988   8.7755413   4.6351985  26.0720622
   3.6610012   6.2644997  24.7489988   2.7710012   6.3644997  24.4089988
   3.9570012   5.4224997  24.4029988   3.5792823   6.1643546  24.6557213
   7.3140012   6.2644997  22.4059988   8.2450012   6.3934997  22.5839988
   7.0990012   6.9344997  21.7559988   7.4124247   6.3726565  22.3425747
  13.2370012   3.8704997  29.1869988  12.5610012   4.0014997  29.8509988
  12.7520012   3.7154997  28.3769988  13.0787145   3.8674905  29.1684517
   5.9880012   7.4594997  19.9729988   5.4450012   7.0794997  19.2809988
   6.8210012   7.6534997  19.5439988   6.0264399   7.4338124  19.8204526
  16.5250012  19.5424997  35.4639988  16.7250012  19.9664997  34.6289988
  17.1800012  19.8854997  36.0709988  16.6410051  19.6469648  35.4317836
   4.1230012  12.0164997  35.0719988   4.8550012  12.2704997  35.6329988
   3.3430012  12.2204997  35.5869988   4.1178232  12.0789177  35.2185760
  10.1520012   7.4234997  27.8099988  10.7170012   6.8764997  27.2629988
  10.0050012   6.9014997  28.5979988  10.2092918   7.2782024  27.8418454
   5.1540012   3.5594997  24.2279988   4.8370012   2.6574997  24.1929988
   5.9360012   3.5614997  23.6749988   5.2162284   3.4361628  24.1484783
   8.7790012   5.8114997  30.2239988   7.9430012   6.2654997  30.3339988
   9.3030012   6.0874997  30.9759988   8.7354414   5.9109376  30.3407136
   9.3230012  12.0244997  21.9079988   8.5780012  11.5174997  21.5859988
   9.1890012  12.0734997  22.8549988   9.2028776  11.9616940  21.9918647
  16.4730012  11.1574997  30.6949988  17.1150012  11.6144997  30.1509988
  15.6430012  11.2704997  30.2319988  16.4485963  11.2352704  30.5580177
  13.2210012   4.8384997  20.1079988  12.2820012   4.9504997  19.9559988
  13.5180012   5.6954997  20.4139988  13.1327666   4.9696443  20.1285768
  10.8420012  12.2084997  33.1449988  10.4970012  11.8274997  33.9519988
  10.6420012  13.1424997  33.2169988  10.7678061  12.2825228  33.2650961
  13.9390012   6.7054997  21.7679988  14.8310012   6.5684997  22.0869988
  13.9960012   7.4964997  21.2319988  14.0686285   6.7936660  21.7391691
   4.4480012  11.3194997  27.6779988   5.1930012  11.3174997  27.0769988
   4.5260012  10.4964997  28.1599988   4.5605518  11.2079315  27.6608929
  11.4490012  13.4834997  20.9339988  11.1530012  14.3094997  21.3149988
  10.7460012  12.8634997  21.1299988  11.3134914  13.5128199  21.0126443
   1.4560012   9.7804997  32.9929988   1.6790012   9.3624997  33.8249988
   0.8540012   9.1674997  32.5699988   1.4051759   9.6404668  33.0497022
   8.4720012   9.2974997  35.2059988   8.1760012   9.1314997  34.3109988
   9.4040012   9.0774997  35.1949988   8.5574166   9.2450640  35.0820536
  13.0930012  14.6704997  33.0959988  12.1920012  14.8534997  32.8279988
  13.1270012  14.9294997  34.0169988  12.9743041  14.7305512  33.1838197
  18.8240012   6.9154997  21.4629988  18.2700012   6.5194997  20.7909988
  18.9240012   7.8254997  21.1849988  18.7617059   6.9843586  21.3334401
  18.7870012  12.7154997  34.2999988  17.9360012  12.9534997  33.9329988
  19.3780012  12.6984997  33.5469988  18.7502487  12.7458258  34.1478893
  17.1190012  15.7014997  21.9279988  16.7460012  14.8754997  22.2369988
  17.3970012  15.5184997  21.0309988  17.1055630  15.5637303  21.8489626
  14.2800012  10.5094997  28.9489988  13.3510012  10.2774997  28.9219988
  14.7310012   9.7324997  28.6189988  14.2139216  10.3727238  28.9006917
   6.8230012  14.8374997  25.0819988   7.3500012  15.6104997  24.8819988
   5.9430012  15.0624997  24.7809988   6.7761773  14.9738005  25.0139010
   2.5780012   9.6994997  19.6689988   3.1940012  10.3264997  20.0489988
   1.7160012  10.0154997  19.9409988   2.5457698   9.8279430  19.7577183
   8.2500012  12.5004997  24.6589988   8.0090012  13.4254997  24.6999988
   7.5090012  12.0414997  25.0549988   8.1168409  12.5651421  24.7181377
   8.7650012  16.6494997  30.9739988   9.1270012  17.5044997  30.7399988
   9.2960012  16.3574997  31.7139988   8.8864473  16.7271060  31.0420855
   6.9330012  17.5224997  24.2039988   5.9830012  17.6274997  24.2549988
   7.2850012  18.3424997  24.5489988   6.8504203  17.6478314  24.2576650
  12.3090012  12.7484997  30.6739988  11.8830012  12.5214997  31.5009988
  12.8890012  12.0104997  30.4919988  12.3291868  12.6175299  30.7625830
  14.5120012  13.6774997  19.7479988  14.8650012  13.2974997  20.5529988
  13.5630012  13.5844997  19.8349988  14.4320441  13.6129596  19.8698559
  14.9670012  17.3004997  33.1439988  14.3660012  16.7454997  32.6479988
  15.2490012  17.9674997  32.5179988  14.9228519  17.3146841  32.9914952
  19.0150012  18.1574997  19.9489988  19.7590012  18.7434997  19.8089988
  18.3210012  18.7254997  20.2829988  19.0230292  18.3145582  19.9749961
   3.0900012   4.5334997  32.5509988   2.1970012   4.8724997  32.4829988
   2.9910012   3.6784997  32.9689988   2.9544164   4.4642588  32.5982235
  15.3780012  12.3504997  21.9749988  15.1000012  11.6224997  22.5309988
  16.3050012  12.4694997  22.1799988  15.4653124  12.2668802  22.0788845
   2.7410012  16.3384997  30.9859988   2.9580012  15.4064997  30.9549988
   2.9870012  16.6124997  31.8689988   2.8039549  16.2480636  31.1011763
   8.6030012  14.7894997  18.1949988   8.8420012  14.0414997  17.6479988
   8.3340012  14.4014997  19.0279988   8.5993675  14.6346638  18.2326865
   7.5400012  14.3594997  20.6519988   7.6860012  13.8394997  21.4419988
   7.5370012  15.2664997  20.9579988   7.5595989  14.4108853  20.8016088
   3.9930012  11.6124997  21.1619988   3.3070012  11.9644997  21.7289988
   4.5150012  12.3754997  20.9149988   3.9696852  11.7638578  21.2062118
  11.8240012   4.2744997  31.4409988  12.5230012   4.3484997  32.0909988
  11.4430012   3.4104997  31.5949988  11.8681767   4.1677624  31.5508322
  12.6090012   3.9264997  22.5379988  12.8290012   4.3984997  21.7349988
  13.1670012   4.3214997  23.2079988  12.7144968   4.0444285  22.5187331
  10.2770012  16.0574997  21.4009988   9.4610012  16.5544997  21.4529988
  10.8070012  16.5324997  20.7609988  10.2369161  16.1897722  21.3215956
   9.8090012   5.6544997  23.3729988  10.6210012   6.1594997  23.4189988
   9.5640012   5.5094997  24.2869988   9.8870520   5.7040375  23.5028517
  10.3440012   6.6404997  32.5579988  10.4630012   7.2144997  33.3149988
  11.0000012   5.9524997  32.6719988  10.4489757   6.6261079  32.6770825
  10.6920012   2.7354997  24.3109988  10.3460012   3.3534997  24.9559988
  11.3510012   3.2364997  23.8299988  10.7337826   2.8875802  24.3340971
   7.6160012  17.1014997  21.3829988   7.7760012  17.9004997  20.8819988
   7.4180012  17.4074997  22.2679988   7.6111649  17.2524469  21.4339815
   6.3500012   3.7984997  20.9979988   6.2670012   4.6874997  21.3449988
   7.2400012   3.5334997  21.2299988   6.4589469   3.8841430  21.0767626
  16.5490012   4.5474997  33.3929988  15.6320012   4.8104997  33.3049988
  16.8840012   4.5444997  32.4959988  16.4689900   4.5830224  33.2597919
  15.1510012   8.2984997  27.4879988  14.3530012   7.8834997  27.1599988
  15.5960012   7.6074997  27.9789988  15.1019885   8.1483543  27.5094889
   4.6090012  14.2264997  20.0589988   5.2010012  14.9254997  20.3349988
   5.0680012  13.7934997  19.3389988   4.7521142  14.2637049  19.9994830
   2.9250012   6.8904997  19.1749988   2.8800012   7.8294997  19.3529988
   2.0370012   6.6544997  18.9049988   2.7988574   6.9871892  19.1628912
  16.2370012  17.5544997  29.1109988  16.0820012  18.2324997  28.4539988
  17.1700012  17.6264997  29.3139988  16.3418500  17.6570170  29.0485119
   3.7330012   1.6724997  27.8479988   3.5040012   1.7314997  26.9199988
   3.2900012   0.8804997  28.1539988   3.6418530   1.5735753  27.7624786
   2.6630012  15.6124997  24.0079988   1.8310012  16.0854997  24.0359988
   3.2090012  16.1224997  23.4099988   2.6229739  15.7461871  23.9309716
   1.9510012  18.2254997  35.3379988   2.4920012  18.0084997  36.0979988
   1.4700012  17.4194997  35.1489988   1.9599345  18.0869514  35.4163076
   6.5490012  17.1444997  36.9589988   7.3160012  16.6854997  37.2999988
   6.5270012  16.9184997  36.0289988   6.6511434  17.0510409  36.8800043
  10.6410012  16.6524997  18.3339988   9.9970012  16.0214997  18.6549988
  11.4030012  16.1214997  18.1019988  10.6558077  16.4942920  18.3466011
  13.1260012  15.5244997  35.6879988  12.7750012  14.6684997  35.9309988
  13.8520012  15.6674997  36.2949988  13.1760769  15.4265636  35.8033619
  15.2450012  16.4694997  18.5679988  15.5280012  15.6754997  19.0199988
  15.9850012  16.7024997  18.0069988  15.3837486  16.3922803  18.5540698
   1.8580012  12.0354997  36.2929988   2.0020012  11.1334997  36.0059988
   1.0860012  12.3214997  35.8049988   1.7733322  11.9508261  36.1877881
   6.2000012  12.3794997  18.4249988   6.2640012  11.5854997  18.9559988
   6.8530012  12.2604997  17.7349988   6.2970241  12.2547148  18.4044317
   8.5140012  12.0054997  35.7249988   8.1850012  12.2764997  34.8679988
   8.6660012  11.0644997  35.6379988   8.4894809  11.9153862  35.5958244
  11.5520012  13.4264997  18.1609988  11.2830012  13.6064997  19.0619988
  11.3460012  12.5004997  18.0299988  11.4873825  13.3260152  18.2665214
  14.2480012  11.9214997  33.1089988  14.9940012  12.5094997  32.9889988
  13.4910012  12.5034997  33.1719988  14.2477554  12.0807011  33.1010907
   2.6910012   9.2354997  35.7129988   3.0990012   8.3784997  35.5919988
   2.4310012   9.2504997  36.6339988   2.7117568   9.1200807  35.8209588
   7.3490012  10.3514997  20.7309988   6.8890012   9.8674997  21.4169988
   7.6040012   9.6834997  20.0949988   7.3204902  10.1948731  20.7389334
   6.6380012   8.2444997  33.0869988   6.0200012   8.9194997  33.3669988
   6.9820012   8.5654997  32.2539988   6.5999615   8.3802721  33.0126581
   8.4200012   8.5944997  18.9929988   8.2400012   8.4404997  18.0659988
   9.3700012   8.7024997  19.0379988   8.5237776   8.5880175  18.8721843
  11.6580012  10.7164997  36.3639988  12.6110012  10.7994997  36.3369988
  11.4970012  10.0044997  36.9839988  11.7666426  10.6316746  36.4440579
  17.8100012  10.9494997  18.4389988  17.5360012  10.5244997  17.6259988
  17.8490012  11.8804997  18.2219988  17.7777699  11.0172484  18.2983610
   6.9770012   5.5994997  34.1689988   7.1270012   4.8704997  33.5669988
   6.9800012   6.3764997  33.6099988   6.9979302   5.6047851  34.0110692
   7.3900012   3.9694997  31.6619988   7.9260012   4.4204997  31.0099988
   6.5380012   3.8614997  31.2389988   7.3482178   4.0166390  31.5155756
   8.9720012   9.4084997  31.9009988   9.7220012   9.2524997  31.3279988
   8.6330012  10.2604997  31.6259988   9.0288921   9.5022968  31.7853561
  13.3870012   7.2234997  36.9299988  13.5800012   6.2924997  36.8179988
  14.2450012   7.6484997  36.9199988  13.5293020   7.1536389  36.9133361
  14.7040012  10.0124997  35.0069988  14.4230012  10.7214997  34.4299988
  15.6470012   9.9394997  34.8559988  14.7929027  10.0997646  34.9075551
   5.4560012   6.7974997  36.0809988   4.6890012   6.2654997  35.8709988
   6.1350012   6.4874997  35.4809988   5.4427022   6.6827506  35.9711648
   8.1960012   1.4254997  32.0929988   8.0970012   2.3724997  31.9879988
   7.4530012   1.0534997  31.6179988   8.0820563   1.5045902  32.0144560
   9.4600012   5.7474997  35.6569988   9.2240012   5.5274997  36.5589988
   8.6760012   5.5404997  35.1469988   9.3218628   5.6894760  35.7113932
  12.1750012   4.8744997  34.7329988  11.2280012   4.9064997  34.8649988
  12.4880012   4.2494997  35.3859988  12.0875475   4.7943207  34.8394455
  13.8090012   3.5084997  36.7379988  13.7130012   2.5564997  36.7319988
  13.4880012   3.7774997  37.5979988  13.7524070   3.4144035  36.8535441
   3.6360012   4.7184997  35.7849988   3.8480012   4.0114997  35.1749988
   3.5250012   4.2804997  36.6289988   3.6499721   4.5627084  35.8156843
   8.4170012   0.7194997  34.7649988   9.1290012   0.0794997  34.7509988
   8.3160012   0.9864997  33.8509988   8.5007939   0.6679938  34.6395650
   8.7710012   2.4024997  36.8179988   8.6390012   1.9264997  35.9979988
   8.1720012   3.1464997  36.7629988   8.6719071   2.4379618  36.6982886
   8.3170012  19.2854997  19.9949988   9.2500012  19.4434997  20.1379988
   8.0530012  19.9604997  19.3699988   8.4089510  19.3983611  19.9300741
   1.8860012  13.9214997  19.4769988   2.8000012  14.0004997  19.7509988
   1.8930012  13.2344997  18.8109988   2.0121131  13.8393961  19.4244393
   0.5350012  19.3144997  24.5549988  -0.1119988  18.8524997  24.0219988
   0.8890012  18.6424997  25.1369988   0.4943849  19.1604723  24.5607959
   1.4050012  17.3954997  26.3589988   1.0700012  16.5154997  26.5309988
   1.6270012  17.7404997  27.2239988   1.3891783  17.3217501  26.4994208
  18.9530012  18.2044997  29.3399988  18.9320012  18.3894997  30.2789988
  19.6440012  18.7734997  28.9989988  19.0434618  18.3066606  29.4223864
  18.5170012  17.7724997  32.2619988  18.0290012  17.0364997  31.8909988
  19.0660012  17.3784997  32.9399988  18.5244872  17.6186249  32.3029160
  16.9670012  13.5614997  36.8999988  16.1010012  13.4564997  37.2939988
  17.3440012  14.3204997  37.3459988  16.8993308  13.6496900  37.0142393
  18.2680012  11.8184997  22.4139988  19.1180012  12.2394997  22.5409988
  18.2740012  11.0784997  23.0209988  18.3851372  11.7760803  22.5134344
  18.6630012   9.8714997  24.2379988  17.9360012   9.3924997  24.6349988
  19.2440012  10.0774997  24.9699988  18.6419375   9.8337090  24.3914129
  18.4220012  12.6564997  29.1849988  19.2550012  12.2784997  28.9049988
  18.5340012  13.5994997  29.0659988  18.5512647  12.7322218  29.1305487
  16.9080012  15.5344997  31.4919988  16.2610012  15.8594997  32.1179988
  16.3910012  15.0944997  30.8179988  16.7494029  15.5195004  31.4865827
  18.9310012   9.7724997  20.6289988  18.4090012  10.1294997  19.9099988
  18.8980012  10.4474997  21.3069988  18.8551634   9.9125413  20.6223145
  17.2800012   7.0124997  19.1799988  17.3760012   7.6794997  18.4989988
  17.1400012   6.1964997  18.6979988  17.2742135   6.9934500  19.0218491
  16.4490012   8.3924997  24.8009988  16.2990012   7.4474997  24.7799988
  16.0960012   8.6734997  25.6439988  16.3806625   8.3010441  24.9122346
   1.4850012  10.4704997  28.8109988   1.6690012  10.3884997  27.8749988
   2.3340012  10.3464997  29.2349988   1.6250139  10.4425003  28.7401455
  17.3060012  10.3624997  34.4389988  17.8890012   9.6284997  34.6309988
  17.8700012  11.1344997  34.4859988  17.4619769  10.3664227  34.4716159
  18.8020012   8.2654997  35.1239988  17.9390012   7.8864997  34.9579988
  19.4070012   7.5264997  35.0499988  18.7655979   8.1138023  35.0912817
  16.5270012   4.4204997  18.2969988  17.1380012   4.0494997  18.9339988
  15.6910012   3.9994997  18.4929988  16.4975032   4.3127554  18.4107035
  16.1600012   5.9754997  23.2629988  16.4400012   5.0684997  23.3869988
  16.9190012   6.4094997  22.8739988  16.3009277   5.9100942  23.2273682
  16.7720012   6.5564997  28.6989988  17.7050012   6.7684997  28.6649988
  16.5370012   6.6584997  29.6209988  16.8678036   6.5992769  28.8189976
  16.8010012   7.2934997  31.4749988  15.9580012   7.5614997  31.8409988
  17.2430012   8.1154997  31.2639988  16.7454158   7.4413291  31.4965491
   1.0820012   5.7414997  34.9519988   2.0020012   5.6194997  35.1879988
   0.6330012   4.9914997  35.3409988   1.1471580   5.6233727  35.0369006
  19.0840012   1.2734997  36.8279988  19.4340012   0.6194997  36.2229988
  19.2310012   2.1104997  36.3889988  19.1518419   1.2971591  36.6857118
  16.7730012   3.2384997  23.3109988  16.9560012   2.7894997  24.1369988
  16.1740012   2.6534997  22.8479988  16.7170202   3.0979975  23.3613275
   2.3030012   4.0534997  27.8429988   2.7490012   3.2614997  28.1449988
   2.7700012   4.7694997  28.2739988   2.4270172   4.0420624  27.9424820
   0.6070012   7.0524997  28.9119988   1.0990012   6.8314997  28.1209988
   0.9700012   7.8934997  29.1929988   0.7233126   7.1358357  28.8417531
  18.6040012   3.3824997  35.1779988  17.6860012   3.6534997  35.1419988
  18.7270012   2.8474997  34.3929988  18.4951066   3.3472892  35.0670487
  18.6400012   3.3054997  19.8389988  19.0520012   2.5844997  19.3639988
  19.3220012   3.9754997  19.8979988  18.7885885   3.2972368  19.7818915
   0.9210012   3.3104997  22.9659988  -0.0039988   3.5194997  22.8369988
   1.3750012   3.7944997  22.2769988   0.8557368   3.4045993  22.8551226
  15.6920012  18.2944997  24.9119988  16.3440012  17.9474997  24.3039988
  16.2020012  18.7834997  25.5579988  15.8502637  18.3130597  24.9160236
   0.8850012   2.0484997  31.3109988   0.2200012   1.8024997  31.9539988
   0.4420012   2.6704997  30.7329988   0.7340956   2.0988632  31.3209352
   3.0770012  15.2234997  35.4549988   2.2560012  15.3984997  34.9949988
   2.8240012  15.1504997  36.3759988   2.9306164  15.2375622  35.5164923
   6.0310012  16.1984997  31.7139988   5.6060012  17.0074997  31.4309988
   6.9350012  16.2834997  31.4119988   6.0950271  16.3208469  31.6343776
  10.3420012  17.5974997  34.6729988  10.5270012  17.2634997  35.5509988
  11.1880012  17.9064997  34.3509988  10.4817539  17.5936047  34.7495605
  12.6870012  18.8834997  33.9169988  13.3640012  18.2504997  33.6769988
  13.0090012  19.2844997  34.7239988  12.8231637  18.8511154  33.9932793
  17.6040012   1.4724997  32.9969988  16.7920012   1.7974997  32.6089988
  17.8370012   0.7124997  32.4639988  17.5243423   1.4142436  32.8718253
   3.4330012  19.4544997  31.7609988   2.7120012  19.8944997  31.3099988
   3.0670012  19.2034997  32.6099988   3.2849804  19.4807698  31.8139840
   5.9000012  19.0544997  30.7909988   5.0350012  19.1264997  31.1949988
   5.8450012  19.6014997  30.0069988   5.7742085  19.1382685  30.7403362
  10.6100012  18.9424997  29.9659988  10.1540012  19.4714997  29.3119988
  10.7730012  19.5454997  30.6919988  10.5695585  19.0964468  29.9745062
  12.9380012  17.8204997  30.9109988  12.0330012  17.9854997  30.6459988
  13.3670012  18.6734997  30.8459988  12.8720799  17.9584483  30.8659182
  15.5420012  19.3904997  31.2059988  15.3600012  20.3064997  30.9959988
  15.7190012  18.9804997  30.3599988  15.5410210  19.4604822  31.0627885
   2.8470012  18.0774997  28.6709988   2.8290012  17.6524997  29.5289988
   3.6520012  17.7594997  28.2629988   2.9533875  17.9763812  28.7331655
   4.9890012  16.7874997  27.3259988   4.7700012  15.8714997  27.4959988
   5.8130012  16.9274997  27.7919988   5.0704420  16.6810520  27.4122774
   7.5260012  17.2574997  28.1749988   7.7390012  16.3694997  27.8879988
   7.5900012  17.2234997  29.1289988   7.5638232  17.1313102  28.2647397
  11.0340012   2.9214997  27.3189988  10.3600012   2.2924997  27.5749988
  11.5980012   2.4374997  26.7159988  11.0179230   2.7698744  27.2725340
  16.1770012   1.0294997  27.4319988  16.7810012   1.5764997  26.9299988
  15.3070012   1.3484997  27.1919988  16.1421241   1.1475806  27.3307654
  17.9040012   2.1674997  25.7649988  18.5160012   1.6534997  25.2389988
  18.2860012   3.0454997  25.7889988  18.0394540   2.2157140  25.6961830
   3.3610012   1.5554997  25.1409988   2.5840012   1.3214997  24.6339988
   3.8910012   0.7584997  25.1499988   3.3262330   1.4156988  25.0727742
   2.1970012   1.3534997  20.9449988   2.6360012   1.9644997  20.3529988
   1.5640012   1.8914997  21.4189988   2.1714514   1.5099257  20.9280930
   7.9400012   1.4824997  24.9549988   8.8150012   1.8704997  24.9249988
   7.8040012   1.2674997  25.8769988   8.0413695   1.5065184  25.0756440
  13.4970012   1.5124997  26.6039988  13.5730012   1.6074997  25.6539988
  13.2220012   0.6044997  26.7329988  13.4702321   1.4027867  26.4915079
  14.8500012   1.5384997  22.2959988  14.1480012   2.1534997  22.0869988
  14.4060012   0.7004997  22.4269988  14.6936330   1.5095783  22.2850328
   2.0980012  17.3014997  21.8429988   1.4130012  17.2634997  21.1749988
   2.1020012  18.2144997  22.1309988   2.0048193  17.4197016  21.7905284
   4.0580012   3.2694997  19.3869988   4.5500012   2.6394997  18.8599988
   4.6820012   3.5654997  20.0509988   4.2095446   3.2233199  19.4045980
   9.0840012   3.5624997  21.8439988   9.2620012   2.9164997  22.5269988
   9.0310012   4.3964997  22.3119988   9.1011829   3.5867985  22.0005940
  10.9630012  18.5114997  20.2399988  11.8290012  18.8774997  20.0619988
  10.7160012  18.0714997  19.4259988  11.0482392  18.5021756  20.1056289
  17.6720012  18.0744997  22.9189988  17.4770012  17.3264997  22.3539988
  17.6330012  18.8324997  22.3359988  17.6400380  18.0746099  22.7628384
   3.3190012   2.0694997  34.6589988   2.9530012   1.3044997  35.1019988
   4.2320012   2.0984997  34.9459988   3.3922790   1.9687224  34.7584070
   5.2920012   1.4204997  36.1949988   6.1900012   1.1464997  36.0099988
   4.9050012   0.6774997  36.6589988   5.3626612   1.2825914  36.2323643
   3.9160012  18.2214997  18.8679988   3.6490012  18.5084997  19.7409988
   4.6880012  17.6754997  19.0199988   3.9837488  18.1870294  19.0081050
  13.7130012   0.7524997  36.3769988  13.7900012   0.3264997  37.2309988
  14.6070012   0.7664997  36.0339988  13.8443428   0.6960879  36.4475310
  16.8890012  16.8254997  35.0689988  16.1070012  16.6394997  34.5499988
  16.8170012  17.7544997  35.2869988  16.7721777  16.9256492  35.0274048
  31.2950012  10.7114997  25.0999988  31.3840012  11.6554997  24.9679988
  30.6570012  10.4364997  24.4419988  31.2209081  10.8034830  24.9929614
  30.2280012   9.9664997  28.5189988  30.1900012   9.3204997  29.2239988
  29.9060012   9.5004997  27.7479988  30.1792333   9.8149408  28.5112978
  22.5970012   9.5814997  30.1119988  22.6380012   8.9554997  30.8349988
  23.3000012  10.2054997  30.2939988  22.6976363   9.5801196  30.2356044
  33.9340012  12.9054997  26.8199988  33.4940012  12.1854997  27.2709988
  33.9210012  13.6264997  27.4499988  33.8720226  12.9043731  26.9668494
  23.5200012  14.0314997  28.6469988  23.1510012  13.2294997  28.2769988
  24.4610012  13.8624997  28.6929988  23.5967289  13.8990153  28.6026316
  20.1300012   7.6914997  24.0399988  19.6830012   8.5374997  24.0209988
  19.5690012   7.1114997  23.5239988  19.9929900   7.7289916  23.9676801
  20.8410012   9.8534997  26.1659988  21.0540012   9.0834997  26.6929988
  21.5790012   9.9424997  25.5619988  20.9698496   9.7601394  26.1565300
  31.0460012  18.0104997  27.0329988  31.6660012  17.3334997  26.7589988
  30.8380012  17.7924997  27.9409988  31.1026904  17.8883870  27.1183365
  28.6180012  12.3994997  28.9249988  28.9220012  11.7134997  28.3299988
  29.3390012  12.5174997  29.5429988  28.7570671  12.3216305  28.9271816
  37.2810012   4.0004997  29.7859988  37.3300012   4.6104997  30.5219988
  37.7060012   4.4614997  29.0629988  37.3451824   4.1463741  29.7890205
  31.7590012   6.7934997  29.2529988  31.9010012   5.8474997  29.2729988
  31.6520012   7.0004997  28.3239988  31.7639864   6.6919534  29.1302339
  24.9130012   4.8944997  26.5249988  24.9570012   5.7544997  26.1069988
  24.4560012   4.3424997  25.8909988  24.8572185   4.9375799  26.3820299
  32.6360012   5.0254997  24.9259988  33.2820012   4.6964997  25.5509988
  33.1460012   5.5434997  24.3029988  32.7934264   5.0504611  24.9273862
  21.5340012   7.2914997  27.2869988  22.1870012   6.7414997  27.7189988
  21.5580012   7.0174997  26.3699988  21.6266683   7.1791466  27.2222123
  26.6900012   8.8414997  26.5019988  27.3060012   8.3154997  27.0119988
  26.1040012   8.2014997  26.0989988  26.6950810   8.6829208  26.5173173
  37.6720012   5.4784997  32.0219988  36.9840012   6.1364997  31.9259988
  37.6880012   5.2814997  32.9579988  37.5798525   5.5420462  32.1354808
  23.7240012   3.8124997  30.5989988  23.5050012   4.3424997  29.8329988
  23.0560012   4.0394997  31.2459988  23.6037600   3.9156906  30.5816379
  31.0930012  13.3124997  24.1429988  30.7970012  12.9904997  23.2919988
  30.7680012  14.2124997  24.1839988  31.0086371  13.3900215  24.0321801
  26.2930012  11.4884997  30.8859988  25.5530012  12.0864997  30.9899988
  27.0070012  12.0424997  30.5709988  26.2882237  11.6452831  30.8576465
  34.4000012   4.3164997  26.9059988  34.1840012   3.5504997  27.4389988
  35.0550012   4.7884997  27.4189988  34.4590632   4.2755889  27.0482861
  23.3170012   5.7044997  28.5509988  23.9310012   6.3374997  28.9249988
  23.8290012   5.2324997  27.8949988  23.4702296   5.7272370  28.5134252
  24.7000012  13.4524997  31.6739988  24.6950012  14.3324997  31.2959988
  23.8470012  13.3694997  32.0989988  24.5839464  13.5616117  31.6797907
  20.8210012  13.1234997  22.4559988  20.5490012  13.3524997  21.5669988
  20.8670012  13.9614997  22.9159988  20.7900094  13.2681213  22.3965697
  34.4460012  14.7454997  29.1679988  33.5050012  14.8034997  29.3299988
  34.7230012  15.6514997  29.0309988  34.3544679  14.8759443  29.1716815
  34.7470012   3.0314997  30.5859988  34.0110012   3.6424997  30.5479988
  35.4300012   3.4464997  30.0589988  34.7386541   3.1711374  30.5095832
  27.7500012   1.1184997  28.0519988  27.6330012   0.1694997  27.9969988
  26.8950012   1.4504997  28.3249988  27.6183733   1.0335409  28.0813897
  32.6980012  16.5264997  25.7939988  33.1240012  15.8194997  25.3089988
  33.0150012  17.3274997  25.3769988  32.7991019  16.5380994  25.6713130
  33.8580012  14.4274997  24.3019988  33.6000012  13.7374997  23.6909988
  33.9290012  13.9844997  25.1479988  33.8322856  14.2732124  24.3326885
  35.5440012  12.9934997  32.7799988  35.6840012  12.4024997  32.0399988
  35.7110012  13.8664997  32.4229988  35.5856778  13.0306426  32.6306965
  30.0170012   9.9554997  22.5519988  29.3050012  10.4904997  22.1999988
  30.7080012  10.0114997  21.8919988  30.0130132  10.0362543  22.4146289
  30.0700012   8.4134997  19.5909988  30.7710012   8.4354997  20.2419988
  30.3730012   7.7854997  18.9349988  30.2067830   8.3316566  19.5913711
  37.3860012   9.3334997  30.8459988  36.7330012  10.0284997  30.9349988
  37.8510012   9.5434997  30.0359988  37.3595390   9.4569425  30.7486883
  33.4220012  10.1654997  23.5039988  32.6900012  10.3934997  24.0769988
  33.8700012   9.4514997  23.9589988  33.3823095  10.1002571  23.6439119
  33.3200012   8.3394997  32.5709988  33.4000012   9.1024997  33.1429988
  32.7180012   8.6184997  31.8809988  33.2495756   8.4817134  32.5560589
  25.0680012  10.7954997  25.3859988  24.7370012  10.4254997  24.5679988
  25.6560012  10.1254997  25.7329988  25.1021873  10.6541156  25.3208102
  26.4340012  14.2234997  28.0679988  26.3400012  13.6454997  27.3109988
  27.1640012  13.8524997  28.5639988  26.5197981  14.0942390  28.0314165
  25.4340012   9.5644997  29.0199988  26.0000012   9.6854997  28.2569988
  25.7530012  10.2014997  29.6589988  25.5545786   9.6671884  29.0020040
  31.7430012  15.0674997  29.7539988  31.5030012  15.7294997  30.4019988
  31.5450012  14.2334997  30.1789988  31.6833808  15.0453134  29.9001524
  26.3140012  13.9634997  33.7369988  26.0030012  14.7454997  34.1919988
  25.6640012  13.8104997  33.0509988  26.1835558  14.0499105  33.7065871
  32.2930012   9.3274997  21.1889988  32.8730012   9.4774997  21.9359988
  32.7070012   9.7984997  20.4659988  32.4282830   9.4116841  21.1934134
  23.2340012  10.1614997  32.9659988  23.3050012  10.8124997  33.6639988
  22.3440012  10.2644997  32.6309988  23.1233117  10.2645936  33.0162700
  30.0200012  16.0644997  24.6239988  30.4940012  16.3594997  25.4019988
  29.4570012  16.8024997  24.3909988  30.0087653  16.2046932  24.6990136
  24.5540012  16.0354997  34.4999988  24.5610012  15.8994997  33.5529988
  23.6380012  15.9174997  34.7519988  24.4311714  16.0009430  34.4044666
  35.9920012   1.0774997  21.0019988  35.0920012   1.2164997  21.2969988
  36.2440012   1.9084997  20.5999988  35.9028702   1.2089074  20.9880205
  24.0580012   9.8654997  22.9759988  23.7660012  10.6334997  22.4849988
  23.3840012   9.2054997  22.8129988  23.9269081   9.8814406  22.8867340
  37.1810012  15.4434997  19.3779988  37.2550012  16.3824997  19.5489988
  38.0870012  15.1384997  19.3219988  37.3135100  15.5306722  19.3938119
  20.1510012  12.2284997  31.7909988  19.6500012  12.2004997  30.9759988
  20.1560012  11.3224997  32.0999988  20.0831526  12.1022278  31.7212872
  19.9010012  15.0084997  28.6749988  20.8470012  14.8644997  28.6559988
  19.7890012  15.7924997  29.2119988  20.0152727  15.0948046  28.7450072
  38.0990012  15.6744997  34.3569988  38.0500012  14.7194997  34.3199988
  37.2720012  15.9424997  34.7579988  37.9804940  15.5798998  34.4061375
  29.0780012  15.2484997  33.2329988  29.1650012  16.0744997  33.7079988
  28.2140012  14.9184997  33.4819988  28.9731964  15.3169878  33.3316549
  29.4920012  19.0204997  23.0389988  29.4170012  18.8994997  22.0929988
  29.5250012  19.9704997  23.1579988  29.4861848  19.1322500  22.9254834
  23.1450012  17.8094997  24.8199988  23.2980012  17.4614997  25.6989988
  22.2950012  17.4534997  24.5649988  23.0508962  17.7136650  24.9058340
  32.5940012  18.1744997  20.0409988  32.9690012  17.4304997  19.5709988
  32.5980012  17.9044997  20.9599988  32.6458915  18.0361486  20.1007824
  32.2630012  18.1004997  22.7909988  31.3270012  18.2004997  22.9689988
  32.5430012  17.3914997  23.3689988  32.1728255  18.0182711  22.8935391
  35.2510012   7.1674997  34.8369988  34.8440012   7.6484997  34.1159988
  35.2920012   6.2624997  34.5289988  35.2008437   7.1109374  34.6966683
  22.4000012  13.5514997  32.8339988  22.6160012  13.1904997  33.6929988
  21.5450012  13.1774997  32.6239988  22.3139292  13.4514111  32.9233386
  25.0190012   2.0214997  28.8289988  24.1570012   1.9344997  28.4219988
  24.9960012   2.8774997  29.2569988  24.8980330   2.1252765  28.8311863
  29.6820012   1.7434997  32.2039988  30.1020012   1.3284997  32.9569988
  28.7490012   1.5654997  32.3209988  29.6133644   1.6625900  32.3229539
  33.0080012   5.4994997  33.0569988  32.4940012   5.3734997  33.8549988
  32.8530012   6.4114997  32.8129988  32.9166852   5.6056132  33.1332158
  33.7710012  10.3604997  18.8189988  33.8130012  10.1374997  17.8889988
  34.6200012  10.7594997  19.0089988  33.8915396  10.3839155  18.7173627
  29.3430012   4.2364997  19.4889988  29.0900012   4.2554997  20.4119988
  29.0870012   3.3644997  19.1879988  29.2737790   4.1212437  19.5746263
  25.1100012   6.9874997  29.9239988  24.4680012   6.9464997  30.6329988
  25.1470012   7.9134997  29.6869988  25.0271324   7.1071559  29.9889824
  25.1070012   7.2084997  24.8359988  24.2140012   6.8674997  24.7779988
  25.5570012   6.8314997  24.0809988  25.0457305   7.1108484  24.7259177
  30.6420012   7.6244997  23.6529988  30.2330012   8.4394997  23.3619988
  31.3630012   7.4844997  23.0389988  30.6834537   7.7172018  23.5301342
  29.7440012   7.7994997  35.1409988  29.1820012   7.0954997  35.4619988
  30.5710012   7.6794997  35.6089988  29.7787095   7.6867883  35.2482330
  31.6470012   7.0704997  26.4669988  31.4520012   7.6754997  25.7519988
  31.8280012   6.2364997  26.0329988  31.6447614   7.0406300  26.3104405
  22.8600012   7.3074997  31.7909988  22.8220012   7.7074997  32.6599988
  22.3690012   6.4904997  31.8819988  22.7884684   7.2518069  31.9221059
  26.2260012   4.6814997  18.5899988  25.7950012   4.2364997  19.3199988
  25.5080012   5.0534997  18.0779988  26.0699438   4.6708940  18.6206799
  19.4680012   4.4234997  25.6419988  20.0990012   4.3944997  26.3609988
  19.9170012   3.9984997  24.9119988  19.6150774   4.3620492  25.6416553
  20.7420012   5.1694997  21.0659988  21.2160012   5.7604997  20.4809988
  20.0250012   5.7004997  21.4129988  20.7099341   5.3220867  21.0328836
  30.9110012   8.7084997  31.1389988  31.2340012   8.0774997  30.4959988
  30.4710012   8.1734997  31.7989988  30.8956895   8.5498441  31.1402850
  27.6880012   4.6354997  25.9229988  26.7770012   4.6924997  26.2109988
  28.1940012   4.5754997  26.7329988  27.6315413   4.6351985  26.0720622
  22.5170012   6.2644997  24.7489988  21.6270012   6.3644997  24.4089988
  22.8130012   5.4224997  24.4029988  22.4352823   6.1643545  24.6557213
  26.1700012   6.2644997  22.4059988  27.1010012   6.3934997  22.5839988
  25.9550012   6.9344997  21.7559988  26.2684247   6.3726565  22.3425747
  32.0930012   3.8704997  29.1869988  31.4170012   4.0014997  29.8509988
  31.6080012   3.7154997  28.3769988  31.9347145   3.8674905  29.1684517
  24.8440012   7.4594997  19.9729988  24.3010012   7.0794997  19.2809988
  25.6770012   7.6534997  19.5439988  24.8824399   7.4338124  19.8204526
  35.3810012  19.5424997  35.4639988  35.5810012  19.9664997  34.6289988
  36.0360012  19.8854997  36.0709988  35.4970051  19.6469648  35.4317836
  22.9790012  12.0164997  35.0719988  23.7110012  12.2704997  35.6329988
  22.1990012  12.2204997  35.5869988  22.9738232  12.0789177  35.2185760
  29.0080012   7.4234997  27.8099988  29.5730012   6.8764997  27.2629988
  28.8610012   6.9014997  28.5979988  29.0652918   7.2782024  27.8418454
  24.0100012   3.5594997  24.2279988  23.6930012   2.6574997  24.1929988
  24.7920012   3.5614997  23.6749988  24.0722284   3.4361628  24.1484783
  27.6350012   5.8114997  30.2239988  26.7990012   6.2654997  30.3339988
  28.1590012   6.0874997  30.9759988  27.5914414   5.9109376  30.3407136
  28.1790012  12.0244997  21.9079988  27.4340012  11.5174997  21.5859988
  28.0450012  12.0734997  22.8549988  28.0588776  11.9616940  21.9918647
  35.3290012  11.1574997  30.6949988  35.9710012  11.6144997  30.1509988
  34.4990012  11.2704997  30.2319988  35.3045963  11.2352704  30.5580177
  32.0770012   4.8384997  20.1079988  31.1380012   4.9504997  19.9559988
  32.3740012   5.6954997  20.4139988  31.9887666   4.9696443  20.1285768
  29.6980012  12.2084997  33.1449988  29.3530012  11.8274997  33.9519988
  29.4980012  13.1424997  33.2169988  29.6238061  12.2825228  33.2650961
  32.7950012   6.7054997  21.7679988  33.6870012   6.5684997  22.0869988
  32.8520012   7.4964997  21.2319988  32.9246285   6.7936660  21.7391691
  23.3040012  11.3194997  27.6779988  24.0490012  11.3174997  27.0769988
  23.3820012  10.4964997  28.1599988  23.4165518  11.2079315  27.6608929
  30.3050012  13.4834997  20.9339988  30.0090012  14.3094997  21.3149988
  29.6020012  12.8634997  21.1299988  30.1694914  13.5128199  21.0126443
  20.3120012   9.7804997  32.9929988  20.5350012   9.3624997  33.8249988
  19.7100012   9.1674997  32.5699988  20.2611759   9.6404668  33.0497022
  27.3280012   9.2974997  35.2059988  27.0320012   9.1314997  34.3109988
  28.2600012   9.0774997  35.1949988  27.4134166   9.2450640  35.0820536
  31.9490012  14.6704997  33.0959988  31.0480012  14.8534997  32.8279988
  31.9830012  14.9294997  34.0169988  31.8303041  14.7305512  33.1838197
  37.6800012   6.9154997  21.4629988  37.1260012   6.5194997  20.7909988
  37.7800012   7.8254997  21.1849988  37.6177059   6.9843586  21.3334401
  37.6430012  12.7154997  34.2999988  36.7920012  12.9534997  33.9329988
  38.2340012  12.6984997  33.5469988  37.6062487  12.7458258  34.1478893
  35.9750012  15.7014997  21.9279988  35.6020012  14.8754997  22.2369988
  36.2530012  15.5184997  21.0309988  35.9615630  15.5637303  21.8489626
  33.1360012  10.5094997  28.9489988  32.2070012  10.2774997  28.9219988
  33.5870012   9.7324997  28.6189988  33.0699216  10.3727238  28.9006917
  25.6790012  14.8374997  25.0819988  26.2060012  15.6104997  24.8819988
  24.7990012  15.0624997  24.7809988  25.6321773  14.9738005  25.0139010
  21.4340012   9.6994997  19.6689988  22.0500012  10.3264997  20.0489988
  20.5720012  10.0154997  19.9409988  21.4017698   9.8279430  19.7577183
  27.1060012  12.5004997  24.6589988  26.8650012  13.4254997  24.6999988
  26.3650012  12.0414997  25.0549988  26.9728409  12.5651421  24.7181377
  27.6210012  16.6494997  30.9739988  27.9830012  17.5044997  30.7399988
  28.1520012  16.3574997  31.7139988  27.7424473  16.7271060  31.0420855
  25.7890012  17.5224997  24.2039988  24.8390012  17.6274997  24.2549988
  26.1410012  18.3424997  24.5489988  25.7064203  17.6478314  24.2576650
  31.1650012  12.7484997  30.6739988  30.7390012  12.5214997  31.5009988
  31.7450012  12.0104997  30.4919988  31.1851868  12.6175299  30.7625830
  33.3680012  13.6774997  19.7479988  33.7210012  13.2974997  20.5529988
  32.4190012  13.5844997  19.8349988  33.2880441  13.6129596  19.8698559
  33.8230012  17.3004997  33.1439988  33.2220012  16.7454997  32.6479988
  34.1050012  17.9674997  32.5179988  33.7788519  17.3146841  32.9914952
  37.8710012  18.1574997  19.9489988  38.6150012  18.7434997  19.8089988
  37.1770012  18.7254997  20.2829988  37.8790292  18.3145582  19.9749961
  21.9460012   4.5334997  32.5509988  21.0530012   4.8724997  32.4829988
  21.8470012   3.6784997  32.9689988  21.8104164   4.4642588  32.5982235
  34.2340012  12.3504997  21.9749988  33.9560012  11.6224997  22.5309988
  35.1610012  12.4694997  22.1799988  34.3213124  12.2668802  22.0788845
  21.5970012  16.3384997  30.9859988  21.8140012  15.4064997  30.9549988
  21.8430012  16.6124997  31.8689988  21.6599549  16.2480636  31.1011763
  27.4590012  14.7894997  18.1949988  27.6980012  14.0414997  17.6479988
  27.1900012  14.4014997  19.0279988  27.4553675  14.6346638  18.2326865
  26.3960012  14.3594997  20.6519988  26.5420012  13.8394997  21.4419988
  26.3930012  15.2664997  20.9579988  26.4155989  14.4108853  20.8016088
  22.8490012  11.6124997  21.1619988  22.1630012  11.9644997  21.7289988
  23.3710012  12.3754997  20.9149988  22.8256852  11.7638578  21.2062118
  30.6800012   4.2744997  31.4409988  31.3790012   4.3484997  32.0909988
  30.2990012   3.4104997  31.5949988  30.7241767   4.1677624  31.5508322
  31.4650012   3.9264997  22.5379988  31.6850012   4.3984997  21.7349988
  32.0230012   4.3214997  23.2079988  31.5704968   4.0444285  22.5187331
  29.1330012  16.0574997  21.4009988  28.3170012  16.5544997  21.4529988
  29.6630012  16.5324997  20.7609988  29.0929161  16.1897722  21.3215956
  28.6650012   5.6544997  23.3729988  29.4770012   6.1594997  23.4189988
  28.4200012   5.5094997  24.2869988  28.7430520   5.7040375  23.5028517
  29.2000012   6.6404997  32.5579988  29.3190012   7.2144997  33.3149988
  29.8560012   5.9524997  32.6719988  29.3049757   6.6261079  32.6770825
  29.5480012   2.7354997  24.3109988  29.2020012   3.3534997  24.9559988
  30.2070012   3.2364997  23.8299988  29.5897826   2.8875802  24.3340971
  26.4720012  17.1014997  21.3829988  26.6320012  17.9004997  20.8819988
  26.2740012  17.4074997  22.2679988  26.4671649  17.2524469  21.4339815
  25.2060012   3.7984997  20.9979988  25.1230012   4.6874997  21.3449988
  26.0960012   3.5334997  21.2299988  25.3149469   3.8841430  21.0767626
  35.4050012   4.5474997  33.3929988  34.4880012   4.8104997  33.3049988
  35.7400012   4.5444997  32.4959988  35.3249900   4.5830224  33.2597919
  34.0070012   8.2984997  27.4879988  33.2090012   7.8834997  27.1599988
  34.4520012   7.6074997  27.9789988  33.9579885   8.1483543  27.5094889
  23.4650012  14.2264997  20.0589988  24.0570012  14.9254997  20.3349988
  23.9240012  13.7934997  19.3389988  23.6081142  14.2637049  19.9994830
  21.7810012   6.8904997  19.1749988  21.7360012   7.8294997  19.3529988
  20.8930012   6.6544997  18.9049988  21.6548574   6.9871892  19.1628912
  35.0930012  17.5544997  29.1109988  34.9380012  18.2324997  28.4539988
  36.0260012  17.6264997  29.3139988  35.1978500  17.6570170  29.0485119
  22.5890012   1.6724997  27.8479988  22.3600012   1.7314997  26.9199988
  22.1460012   0.8804997  28.1539988  22.4978530   1.5735753  27.7624786
  21.5190012  15.6124997  24.0079988  20.6870012  16.0854997  24.0359988
  22.0650012  16.1224997  23.4099988  21.4789739  15.7461871  23.9309716
  20.8070012  18.2254997  35.3379988  21.3480012  18.0084997  36.0979988
  20.3260012  17.4194997  35.1489988  20.8159345  18.0869514  35.4163076
  25.4050012  17.1444997  36.9589988  26.1720012  16.6854997  37.2999988
  25.3830012  16.9184997  36.0289988  25.5071434  17.0510409  36.8800043
  29.4970012  16.6524997  18.3339988  28.8530012  16.0214997  18.6549988
  30.2590012  16.1214997  18.1019988  29.5118077  16.4942920  18.3466011
  31.9820012  15.5244997  35.6879988  31.6310012  14.6684997  35.9309988
  32.7080012  15.6674997  36.2949988  32.0320769  15.4265636  35.8033619
  34.1010012  16.4694997  18.5679988  34.3840012  15.6754997  19.0199988
  34.8410012  16.7024997  18.0069988  34.2397486  16.3922803  18.5540698
  20.7140012  12.0354997  36.2929988  20.8580012  11.1334997  36.0059988
  19.9420012  12.3214997  35.8049988  20.6293322  11.9508261  36.1877881
  25.0560012  12.3794997  18.4249988  25.1200012  11.5854997  18.9559988
  25.7090012  12.2604997  17.7349988  25.1530241  12.2547148  18.4044317
  27.3700012  12.0054997  35.7249988  27.0410012  12.2764997  34.8679988
  27.5220012  11.0644997  35.6379988  27.3454809  11.9153862  35.5958244
  30.4080012  13.4264997  18.1609988  30.1390012  13.6064997  19.0619988
  30.2020012  12.5004997  18.0299988  30.3433825  13.3260152  18.2665214
  33.1040012  11.9214997  33.1089988  33.8500012  12.5094997  32.9889988
  32.3470012  12.5034997  33.1719988  33.1037554  12.0807011  33.1010907
  21.5470012   9.2354997  35.7129988  21.9550012   8.3784997  35.5919988
  21.2870012   9.2504997  36.6339988  21.5677568   9.1200807  35.8209588
  26.2050012  10.3514997  20.7309988  25.7450012   9.8674997  21.4169988
  26.4600012   9.6834997  20.0949988  26.1764902  10.1948731  20.7389334
  25.4940012   8.2444997  33.0869988  24.8760012   8.9194997  33.3669988
  25.8380012   8.5654997  32.2539988  25.4559615   8.3802721  33.0126581
  27.2760012   8.5944997  18.9929988  27.0960012   8.4404997  18.0659988
  28.2260012   8.7024997  19.0379988  27.3797776   8.5880175  18.8721843
  30.5140012  10.7164997  36.3639988  31.4670012  10.7994997  36.3369988
  30.3530012  10.0044997  36.9839988  30.6226426  10.6316746  36.4440579
  36.6660012  10.9494997  18.4389988  36.3920012  10.5244997  17.6259988
  36.7050012  11.8804997  18.2219988  36.6337699  11.0172484  18.2983610
  25.8330012   5.5994997  34.1689988  25.9830012   4.8704997  33.5669988
  25.8360012   6.3764997  33.6099988  25.8539302   5.6047851  34.0110692
  26.2460012   3.9694997  31.6619988  26.7820012   4.4204997  31.0099988
  25.3940012   3.8614997  31.2389988  26.2042178   4.0166390  31.5155756
  27.8280012   9.4084997  31.9009988  28.5780012   9.2524997  31.3279988
  27.4890012  10.2604997  31.6259988  27.8848921   9.5022968  31.7853561
  32.2430012   7.2234997  36.9299988  32.4360012   6.2924997  36.8179988
  33.1010012   7.6484997  36.9199988  32.3853020   7.1536389  36.9133361
  33.5600012  10.0124997  35.0069988  33.2790012  10.7214997  34.4299988
  34.5030012   9.9394997  34.8559988  33.6489027  10.0997646  34.9075551
  24.3120012   6.7974997  36.0809988  23.5450012   6.2654997  35.8709988
  24.9910012   6.4874997  35.4809988  24.2987022   6.6827506  35.9711648
  27.0520012   1.4254997  32.0929988  26.9530012   2.3724997  31.9879988
  26.3090012   1.0534997  31.6179988  26.9380563   1.5045902  32.0144560
  28.3160012   5.7474997  35.6569988  28.0800012   5.5274997  36.5589988
  27.5320012   5.5404997  35.1469988  28.1778628   5.6894760  35.7113932
  31.0310012   4.8744997  34.7329988  30.0840012   4.9064997  34.8649988
  31.3440012   4.2494997  35.3859988  30.9435475   4.7943207  34.8394455
  32.6650012   3.5084997  36.7379988  32.5690012   2.5564997  36.7319988
  32.3440012   3.7774997  37.5979988  32.6084070   3.4144035  36.8535441
  22.4920012   4.7184997  35.7849988  22.7040012   4.0114997  35.1749988
  22.3810012   4.2804997  36.6289988  22.5059721   4.5627084  35.8156843
  27.2730012   0.7194997  34.7649988  27.9850012   0.0794997  34.7509988
  27.1720012   0.9864997  33.8509988  27.3567939   0.6679938  34.6395650
  27.6270012   2.4024997  36.8179988  27.4950012   1.9264997  35.9979988
  27.0280012   3.1464997  36.7629988  27.5279071   2.4379618  36.6982886
  27.1730012  19.2854997  19.9949988  28.1060012  19.4434997  20.1379988
  26.9090012  19.9604997  19.3699988  27.2649510  19.3983611  19.9300741
  20.7420012  13.9214997  19.4769988  21.6560012  14.0004997  19.7509988
  20.7490012  13.2344997  18.8109988  20.8681131  13.8393961  19.4244393
  19.3910012  19.3144997  24.5549988  18.7440012  18.8524997  24.0219988
  19.7450012  18.6424997  25.1369988  19.3503849  19.1604723  24.5607959
  20.2610012  17.3954997  26.3589988  19.9260012  16.5154997  26.5309988
  20.4830012  17.7404997  27.2239988  20.2451783  17.3217500  26.4994208
  37.8090012  18.2044997  29.3399988  37.7880012  18.3894997  30.2789988
  38.5000012  18.7734997  28.9989988  37.8994618  18.3066606  29.4223864
  37.3730012  17.7724997  32.2619988  36.8850012  17.0364997  31.8909988
  37.9220012  17.3784997  32.9399988  37.3804872  17.6186249  32.3029160
  35.8230012  13.5614997  36.8999988  34.9570012  13.4564997  37.2939988
  36.2000012  14.3204997  37.3459988  35.7553308  13.6496900  37.0142393
  37.1240012  11.8184997  22.4139988  37.9740012  12.2394997  22.5409988
  37.1300012  11.0784997  23.0209988  37.2411372  11.7760803  22.5134344
  37.5190012   9.8714997  24.2379988  36.7920012   9.3924997  24.6349988
  38.1000012  10.0774997  24.9699988  37.4979375   9.8337090  24.3914129
  37.2780012  12.6564997  29.1849988  38.1110012  12.2784997  28.9049988
  37.3900012  13.5994997  29.0659988  37.4072647  12.7322218  29.1305487
  35.7640012  15.5344997  31.4919988  35.1170012  15.8594997  32.1179988
  35.2470012  15.0944997  30.8179988  35.6054029  15.5195004  31.4865827
  37.7870012   9.7724997  20.6289988  37.2650012  10.1294997  19.9099988
  37.7540012  10.4474997  21.3069988  37.7111634   9.9125413  20.6223145
  36.1360012   7.0124997  19.1799988  36.2320012   7.6794997  18.4989988
  35.9960012   6.1964997  18.6979988  36.1302135   6.9934500  19.0218491
  35.3050012   8.3924997  24.8009988  35.1550012   7.4474997  24.7799988
  34.9520012   8.6734997  25.6439988  35.2366625   8.3010441  24.9122346
  20.3410012  10.4704997  28.8109988  20.5250012  10.3884997  27.8749988
  21.1900012  10.3464997  29.2349988  20.4810139  10.4425003  28.7401455
  36.1620012  10.3624997  34.4389988  36.7450012   9.6284997  34.6309988
  36.7260012  11.1344997  34.4859988  36.3179769  10.3664227  34.4716159
  37.6580012   8.2654997  35.1239988  36.7950012   7.8864997  34.9579988
  38.2630012   7.5264997  35.0499988  37.6215979   8.1138023  35.0912817
  35.3830012   4.4204997  18.2969988  35.9940012   4.0494997  18.9339988
  34.5470012   3.9994997  18.4929988  35.3535032   4.3127554  18.4107035
  35.0160012   5.9754997  23.2629988  35.2960012   5.0684997  23.3869988
  35.7750012   6.4094997  22.8739988  35.1569277   5.9100942  23.2273682
  35.6280012   6.5564997  28.6989988  36.5610012   6.7684997  28.6649988
  35.3930012   6.6584997  29.6209988  35.7238036   6.5992769  28.8189976
  35.6570012   7.2934997  31.4749988  34.8140012   7.5614997  31.8409988
  36.0990012   8.1154997  31.2639988  35.6014158   7.4413291  31.4965491
  19.9380012   5.7414997  34.9519988  20.8580012   5.6194997  35.1879988
  19.4890012   4.9914997  35.3409988  20.0031580   5.6233727  35.0369006
  37.9400012   1.2734997  36.8279988  38.2900012   0.6194997  36.2229988
  38.0870012   2.1104997  36.3889988  38.0078419   1.2971591  36.6857118
  35.6290012   3.2384997  23.3109988  35.8120012   2.7894997  24.1369988
  35.0300012   2.6534997  22.8479988  35.5730202   3.0979975  23.3613275
  21.1590012   4.0534997  27.8429988  21.6050012   3.2614997  28.1449988
  21.6260012   4.7694997  28.2739988  21.2830172   4.0420624  27.9424820
  19.4630012   7.0524997  28.9119988  19.9550012   6.8314997  28.1209988
  19.8260012   7.8934997  29.1929988  19.5793126   7.1358357  28.8417531
  37.4600012   3.3824997  35.1779988  36.5420012   3.6534997  35.1419988
  37.5830012   2.8474997  34.3929988  37.3511066   3.3472892  35.0670487
  37.4960012   3.3054997  19.8389988  37.9080012   2.5844997  19.3639988
  38.1780012   3.9754997  19.8979988  37.6445885   3.2972368  19.7818915
  19.7770012   3.3104997  22.9659988  18.8520012   3.5194997  22.8369988
  20.2310012   3.7944997  22.2769988  19.7117368   3.4045993  22.8551226
  34.5480012  18.2944997  24.9119988  35.2000012  17.9474997  24.3039988
  35.0580012  18.7834997  25.5579988  34.7062637  18.3130597  24.9160236
  19.7410012   2.0484997  31.3109988  19.0760012   1.8024997  31.9539988
  19.2980012   2.6704997  30.7329988  19.5900956   2.0988632  31.3209352
  21.9330012  15.2234997  35.4549988  21.1120012  15.3984997  34.9949988
  21.6800012  15.1504997  36.3759988  21.7866164  15.2375622  35.5164923
  24.8870012  16.1984997  31.7139988  24.4620012  17.0074997  31.4309988
  25.7910012  16.2834997  31.4119988  24.9510271  16.3208469  31.6343776
  29.1980012  17.5974997  34.6729988  29.3830012  17.2634997  35.5509988
  30.0440012  17.9064997  34.3509988  29.3377539  17.5936047  34.7495605
  31.5430012  18.8834997  33.9169988  32.2200012  18.2504997  33.6769988
  31.8650012  19.2844997  34.7239988  31.6791637  18.8511154  33.9932793
  36.4600012   1.4724997  32.9969988  35.6480012   1.7974997  32.6089988
  36.6930012   0.7124997  32.4639988  36.3803423   1.4142436  32.8718253
  22.2890012  19.4544997  31.7609988  21.5680012  19.8944997  31.3099988
  21.9230012  19.2034997  32.6099988  22.1409804  19.4807698  31.8139840
  24.7560012  19.0544997  30.7909988  23.8910012  19.1264997  31.1949988
  24.7010012  19.6014997  30.0069988  24.6302085  19.1382685  30.7403362
  29.4660012  18.9424997  29.9659988  29.0100012  19.4714997  29.3119988
  29.6290012  19.5454997  30.6919988  29.4255585  19.0964468  29.9745062
  31.7940012  17.8204997  30.9109988  30.8890012  17.9854997  30.6459988
  32.2230012  18.6734997  30.8459988  31.7280799  17.9584483  30.8659182
  34.3980012  19.3904997  31.2059988  34.2160012  20.3064997  30.9959988
  34.5750012  18.9804997  30.3599988  34.3970210  19.4604822  31.0627885
  21.7030012  18.0774997  28.6709988  21.6850012  17.6524997  29.5289988
  22.5080012  17.7594997  28.2629988  21.8093875  17.9763812  28.7331655
  23.8450012  16.7874997  27.3259988  23.6260012  15.8714997  27.4959988
  24.6690012  16.9274997  27.7919988  23.9264420  16.6810520  27.4122774
  26.3820012  17.2574997  28.1749988  26.5950012  16.3694997  27.8879988
  26.4460012  17.2234997  29.1289988  26.4198232  17.1313102  28.2647397
  29.8900012   2.9214997  27.3189988  29.2160012   2.2924997  27.5749988
  30.4540012   2.4374997  26.7159988  29.8739230   2.7698744  27.2725340
  35.0330012   1.0294997  27.4319988  35.6370012   1.5764997  26.9299988
  34.1630012   1.3484997  27.1919988  34.9981241   1.1475806  27.3307654
  36.7600012   2.1674997  25.7649988  37.3720012   1.6534997  25.2389988
  37.1420012   3.0454997  25.7889988  36.8954540   2.2157140  25.6961830
  22.2170012   1.5554997  25.1409988  21.4400012   1.3214997  24.6339988
  22.7470012   0.7584997  25.1499988  22.1822330   1.4156988  25.0727742
  21.0530012   1.3534997  20.9449988  21.4920012   1.9644997  20.3529988
  20.4200012   1.8914997  21.4189988  21.0274514   1.5099257  20.9280930
  26.7960012   1.4824997  24.9549988  27.6710012   1.8704997  24.9249988
  26.6600012   1.2674997  25.8769988  26.8973695   1.5065184  25.0756440
  32.3530012   1.5124997  26.6039988  32.4290012   1.6074997  25.6539988
  32.0780012   0.6044997  26.7329988  32.3262321   1.4027867  26.4915079
  33.7060012   1.5384997  22.2959988  33.0040012   2.1534997  22.0869988
  33.2620012   0.7004997  22.4269988  33.5496330   1.5095783  22.2850328
  20.9540012  17.3014997  21.8429988  20.2690012  17.2634997  21.1749988
  20.9580012  18.2144997  22.1309988  20.8608193  17.4197016  21.7905284
  22.9140012   3.2694997  19.3869988  23.4060012   2.6394997  18.8599988
  23.5380012   3.5654997  20.0509988  23.0655446   3.2233199  19.4045980
  27.9400012   3.5624997  21.8439988  28.1180012   2.9164997  22.5269988
  27.8870012   4.3964997  22.3119988  27.9571829   3.5867985  22.0005940
  29.8190012  18.5114997  20.2399988  30.6850012  18.8774997  20.0619988
  29.5720012  18.0714997  19.4259988  29.9042392  18.5021756  20.1056289
  36.5280012  18.0744997  22.9189988  36.3330012  17.3264997  22.3539988
  36.4890012  18.8324997  22.3359988  36.4960380  18.0746099  22.7628384
  22.1750012   2.0694997  34.6589988  21.8090012   1.3044997  35.1019988
  23.0880012   2.0984997  34.9459988  22.2482790   1.9687224  34.7584070
  24.1480012   1.4204997  36.1949988  25.0460012   1.1464997  36.0099988
  23.7610012   0.6774997  36.6589988  24.2186612   1.2825914  36.2323643
  22.7720012  18.2214997  18.8679988  22.5050012  18.5084997  19.7409988
  23.5440012  17.6754997  19.0199988  22.8397488  18.1870294  19.0081050
  32.5690012   0.7524997  36.3769988  32.6460012   0.3264997  37.2309988
  33.4630012   0.7664997  36.0339988  32.7003428   0.6960879  36.4475310
  35.7450012  16.8254997  35.0689988  34.9630012  16.6394997  34.5499988
  35.6730012  17.7544997  35.2869988  35.6281777  16.9256492  35.0274048
  50.1510012  10.7114997  25.0999988  50.2400012  11.6554997  24.9679988
  49.5130012  10.4364997  24.4419988  50.0769081  10.8034830  24.9929614
  49.0840012   9.9664997  28.5189988  49.0460012   9.3204997  29.2239988
  48.7620012   9.5004997  27.7479988  49.0352333   9.8149408  28.5112978
  41.4530012   9.5814997  30.1119988  41.4940012   8.9554997  30.8349988
  42.1560012  10.2054997  30.2939988  41.5536363   9.5801196  30.2356044
  52.7900012  12.9054997  26.8199988  52.3500012  12.1854997  27.2709988
  52.7770012  13.6264997  27.4499988  52.7280226  12.9043731  26.9668494
  42.3760012  14.0314997  28.6469988  42.0070012  13.2294997  28.2769988
  43.3170012  13.8624997  28.6929988  42.4527289  13.8990153  28.6026316
  38.9860012   7.6914997  24.0399988  38.5390012   8.5374997  24.0209988
  38.4250012   7.1114997  23.5239988  38.8489900   7.7289916  23.9676801
  39.6970012   9.8534997  26.1659988  39.9100012   9.0834997  26.6929988
  40.4350012   9.9424997  25.5619988  39.8258496   9.7601394  26.1565300
  49.9020012  18.0104997  27.0329988  50.5220012  17.3334997  26.7589988
  49.6940012  17.7924997  27.9409988  49.9586904  17.8883870  27.1183365
  47.4740012  12.3994997  28.9249988  47.7780012  11.7134997  28.3299988
  48.1950012  12.5174997  29.5429988  47.6130671  12.3216304  28.9271816
  56.1370012   4.0004997  29.7859988  56.1860012   4.6104997  30.5219988
  56.5620012   4.4614997  29.0629988  56.2011824   4.1463741  29.7890205
  50.6150012   6.7934997  29.2529988  50.7570012   5.8474997  29.2729988
  50.5080012   7.0004997  28.3239988  50.6199864   6.6919534  29.1302339
  43.7690012   4.8944997  26.5249988  43.8130012   5.7544997  26.1069988
  43.3120012   4.3424997  25.8909988  43.7132185   4.9375799  26.3820299
  51.4920012   5.0254997  24.9259988  52.1380012   4.6964997  25.5509988
  52.0020012   5.5434997  24.3029988  51.6494264   5.0504611  24.9273862
  40.3900012   7.2914997  27.2869988  41.0430012   6.7414997  27.7189988
  40.4140012   7.0174997  26.3699988  40.4826683   7.1791466  27.2222123
  45.5460012   8.8414997  26.5019988  46.1620012   8.3154997  27.0119988
  44.9600012   8.2014997  26.0989988  45.5510810   8.6829208  26.5173173
  56.5280012   5.4784997  32.0219988  55.8400012   6.1364997  31.9259988
  56.5440012   5.2814997  32.9579988  56.4358525   5.5420462  32.1354808
  42.5800012   3.8124997  30.5989988  42.3610012   4.3424997  29.8329988
  41.9120012   4.0394997  31.2459988  42.4597600   3.9156906  30.5816379
  49.9490012  13.3124997  24.1429988  49.6530012  12.9904997  23.2919988
  49.6240012  14.2124997  24.1839988  49.8646371  13.3900215  24.0321801
  45.1490012  11.4884997  30.8859988  44.4090012  12.0864997  30.9899988
  45.8630012  12.0424997  30.5709988  45.1442237  11.6452831  30.8576465
  53.2560012   4.3164997  26.9059988  53.0400012   3.5504997  27.4389988
  53.9110012   4.7884997  27.4189988  53.3150632   4.2755889  27.0482861
  42.1730012   5.7044997  28.5509988  42.7870012   6.3374997  28.9249988
  42.6850012   5.2324997  27.8949988  42.3262296   5.7272370  28.5134252
  43.5560012  13.4524997  31.6739988  43.5510012  14.3324997  31.2959988
  42.7030012  13.3694997  32.0989988  43.4399464  13.5616117  31.6797907
  39.6770012  13.1234997  22.4559988  39.4050012  13.3524997  21.5669988
  39.7230012  13.9614997  22.9159988  39.6460094  13.2681213  22.3965697
  53.3020012  14.7454997  29.1679988  52.3610012  14.8034997  29.3299988
  53.5790012  15.6514997  29.0309988  53.2104679  14.8759443  29.1716815
  53.6030012   3.0314997  30.5859988  52.8670012   3.6424997  30.5479988
  54.2860012   3.4464997  30.0589988  53.5946541   3.1711374  30.5095832
  46.6060012   1.1184997  28.0519988  46.4890012   0.1694997  27.9969988
  45.7510012   1.4504997  28.3249988  46.4743733   1.0335409  28.0813897
  51.5540012  16.5264997  25.7939988  51.9800012  15.8194997  25.3089988
  51.8710012  17.3274997  25.3769988  51.6551019  16.5380994  25.6713130
  52.7140012  14.4274997  24.3019988  52.4560012  13.7374997  23.6909988
  52.7850012  13.9844997  25.1479988  52.6882856  14.2732124  24.3326885
  54.4000012  12.9934997  32.7799988  54.5400012  12.4024997  32.0399988
  54.5670012  13.8664997  32.4229988  54.4416778  13.0306426  32.6306965
  48.8730012   9.9554997  22.5519988  48.1610012  10.4904997  22.1999988
  49.5640012  10.0114997  21.8919988  48.8690132  10.0362543  22.4146289
  48.9260012   8.4134997  19.5909988  49.6270012   8.4354997  20.2419988
  49.2290012   7.7854997  18.9349988  49.0627830   8.3316566  19.5913711
  56.2420012   9.3334997  30.8459988  55.5890012  10.0284997  30.9349988
  56.7070012   9.5434997  30.0359988  56.2155390   9.4569425  30.7486883
  52.2780012  10.1654997  23.5039988  51.5460012  10.3934997  24.0769988
  52.7260012   9.4514997  23.9589988  52.2383095  10.1002571  23.6439119
  52.1760012   8.3394997  32.5709988  52.2560012   9.1024997  33.1429988
  51.5740012   8.6184997  31.8809988  52.1055756   8.4817134  32.5560589
  43.9240012  10.7954997  25.3859988  43.5930012  10.4254997  24.5679988
  44.5120012  10.1254997  25.7329988  43.9581873  10.6541156  25.3208102
  45.2900012  14.2234997  28.0679988  45.1960012  13.6454997  27.3109988
  46.0200012  13.8524997  28.5639988  45.3757981  14.0942390  28.0314165
  44.2900012   9.5644997  29.0199988  44.8560012   9.6854997  28.2569988
  44.6090012  10.2014997  29.6589988  44.4105786   9.6671884  29.0020040
  50.5990012  15.0674997  29.7539988  50.3590012  15.7294997  30.4019988
  50.4010012  14.2334997  30.1789988  50.5393808  15.0453134  29.9001524
  45.1700012  13.9634997  33.7369988  44.8590012  14.7454997  34.1919988
  44.5200012  13.8104997  33.0509988  45.0395558  14.0499105  33.7065871
  51.1490012   9.3274997  21.1889988  51.7290012   9.4774997  21.9359988
  51.5630012   9.7984997  20.4659988  51.2842830   9.4116841  21.1934134
  42.0900012  10.1614997  32.9659988  42.1610012  10.8124997  33.6639988
  41.2000012  10.2644997  32.6309988  41.9793117  10.2645936  33.0162700
  48.8760012  16.0644997  24.6239988  49.3500012  16.3594997  25.4019988
  48.3130012  16.8024997  24.3909988  48.8647653  16.2046932  24.6990136
  43.4100012  16.0354997  34.4999988  43.4170012  15.8994997  33.5529988
  42.4940012  15.9174997  34.7519988  43.2871714  16.0009430  34.4044666
  54.8480012   1.0774997  21.0019988  53.9480012   1.2164997  21.2969988
  55.1000012   1.9084997  20.5999988  54.7588702   1.2089074  20.9880205
  42.9140012   9.8654997  22.9759988  42.6220012  10.6334997  22.4849988
  42.2400012   9.2054997  22.8129988  42.7829081   9.8814406  22.8867340
  56.0370012  15.4434997  19.3779988  56.1110012  16.3824997  19.5489988
  56.9430012  15.1384997  19.3219988  56.1695100  15.5306722  19.3938119
  39.0070012  12.2284997  31.7909988  38.5060012  12.2004997  30.9759988
  39.0120012  11.3224997  32.0999988  38.9391526  12.1022278  31.7212872
  38.7570012  15.0084997  28.6749988  39.7030012  14.8644997  28.6559988
  38.6450012  15.7924997  29.2119988  38.8712727  15.0948046  28.7450072
  56.9550012  15.6744997  34.3569988  56.9060012  14.7194997  34.3199988
  56.1280012  15.9424997  34.7579988  56.8364940  15.5798998  34.4061375
  47.9340012  15.2484997  33.2329988  48.0210012  16.0744997  33.7079988
  47.0700012  14.9184997  33.4819988  47.8291964  15.3169878  33.3316549
  48.3480012  19.0204997  23.0389988  48.2730012  18.8994997  22.0929988
  48.3810012  19.9704997  23.1579988  48.3421848  19.1322500  22.9254834
  42.0010012  17.8094997  24.8199988  42.1540012  17.4614997  25.6989988
  41.1510012  17.4534997  24.5649988  41.9068962  17.7136650  24.9058340
  51.4500012  18.1744997  20.0409988  51.8250012  17.4304997  19.5709988
  51.4540012  17.9044997  20.9599988  51.5018915  18.0361486  20.1007824
  51.1190012  18.1004997  22.7909988  50.1830012  18.2004997  22.9689988
  51.3990012  17.3914997  23.3689988  51.0288255  18.0182711  22.8935391
  54.1070012   7.1674997  34.8369988  53.7000012   7.6484997  34.1159988
  54.1480012   6.2624997  34.5289988  54.0568437   7.1109374  34.6966683
  41.2560012  13.5514997  32.8339988  41.4720012  13.1904997  33.6929988
  40.4010012  13.1774997  32.6239988  41.1699292  13.4514111  32.9233386
  43.8750012   2.0214997  28.8289988  43.0130012   1.9344997  28.4219988
  43.8520012   2.8774997  29.2569988  43.7540330   2.1252765  28.8311863
  48.5380012   1.7434997  32.2039988  48.9580012   1.3284997  32.9569988
  47.6050012   1.5654997  32.3209988  48.4693644   1.6625900  32.3229539
  51.8640012   5.4994997  33.0569988  51.3500012   5.3734997  33.8549988
  51.7090012   6.4114997  32.8129988  51.7726852   5.6056132  33.1332158
  52.6270012  10.3604997  18.8189988  52.6690012  10.1374997  17.8889988
  53.4760012  10.7594997  19.0089988  52.7475396  10.3839155  18.7173627
  48.1990012   4.2364997  19.4889988  47.9460012   4.2554997  20.4119988
  47.9430012   3.3644997  19.1879988  48.1297790   4.1212437  19.5746263
  43.9660012   6.9874997  29.9239988  43.3240012   6.9464997  30.6329988
  44.0030012   7.9134997  29.6869988  43.8831324   7.1071559  29.9889824
  43.9630012   7.2084997  24.8359988  43.0700012   6.8674997  24.7779988
  44.4130012   6.8314997  24.0809988  43.9017305   7.1108484  24.7259177
  49.4980012   7.6244997  23.6529988  49.0890012   8.4394997  23.3619988
  50.2190012   7.4844997  23.0389988  49.5394537   7.7172018  23.5301342
  48.6000012   7.7994997  35.1409988  48.0380012   7.0954997  35.4619988
  49.4270012   7.6794997  35.6089988  48.6347095   7.6867883  35.2482330
  50.5030012   7.0704997  26.4669988  50.3080012   7.6754997  25.7519988
  50.6840012   6.2364997  26.0329988  50.5007614   7.0406300  26.3104405
  41.7160012   7.3074997  31.7909988  41.6780012   7.7074997  32.6599988
  41.2250012   6.4904997  31.8819988  41.6444684   7.2518069  31.9221059
  45.0820012   4.6814997  18.5899988  44.6510012   4.2364997  19.3199988
  44.3640012   5.0534997  18.0779988  44.9259438   4.6708940  18.6206799
  38.3240012   4.4234997  25.6419988  38.9550012   4.3944997  26.3609988
  38.7730012   3.9984997  24.9119988  38.4710774   4.3620492  25.6416553
  39.5980012   5.1694997  21.0659988  40.0720012   5.7604997  20.4809988
  38.8810012   5.7004997  21.4129988  39.5659341   5.3220867  21.0328836
  49.7670012   8.7084997  31.1389988  50.0900012   8.0774997  30.4959988
  49.3270012   8.1734997  31.7989988  49.7516895   8.5498440  31.1402850
  46.5440012   4.6354997  25.9229988  45.6330012   4.6924997  26.2109988
  47.0500012   4.5754997  26.7329988  46.4875413   4.6351985  26.0720622
  41.3730012   6.2644997  24.7489988  40.4830012   6.3644997  24.4089988
  41.6690012   5.4224997  24.4029988  41.2912823   6.1643546  24.6557213
  45.0260012   6.2644997  22.4059988  45.9570012   6.3934997  22.5839988
  44.8110012   6.9344997  21.7559988  45.1244247   6.3726565  22.3425747
  50.9490012   3.8704997  29.1869988  50.2730012   4.0014997  29.8509988
  50.4640012   3.7154997  28.3769988  50.7907145   3.8674905  29.1684517
  43.7000012   7.4594997  19.9729988  43.1570012   7.0794997  19.2809988
  44.5330012   7.6534997  19.5439988  43.7384399   7.4338124  19.8204526
  54.2370012  19.5424997  35.4639988  54.4370012  19.9664997  34.6289988
  54.8920012  19.8854997  36.0709988  54.3530051  19.6469648  35.4317836
  41.8350012  12.0164997  35.0719988  42.5670012  12.2704997  35.6329988
  41.0550012  12.2204997  35.5869988  41.8298232  12.0789177  35.2185760
  47.8640012   7.4234997  27.8099988  48.4290012   6.8764997  27.2629988
  47.7170012   6.9014997  28.5979988  47.9212918   7.2782024  27.8418454
  42.8660012   3.5594997  24.2279988  42.5490012   2.6574997  24.1929988
  43.6480012   3.5614997  23.6749988  42.9282284   3.4361628  24.1484783
  46.4910012   5.8114997  30.2239988  45.6550012   6.2654997  30.3339988
  47.0150012   6.0874997  30.9759988  46.4474414   5.9109376  30.3407136
  47.0350012  12.0244997  21.9079988  46.2900012  11.5174997  21.5859988
  46.9010012  12.0734997  22.8549988  46.9148776  11.9616940  21.9918647
  54.1850012  11.1574997  30.6949988  54.8270012  11.6144997  30.1509988
  53.3550012  11.2704997  30.2319988  54.1605963  11.2352704  30.5580177
  50.9330012   4.8384997  20.1079988  49.9940012   4.9504997  19.9559988
  51.2300012   5.6954997  20.4139988  50.8447666   4.9696443  20.1285768
  48.5540012  12.2084997  33.1449988  48.2090012  11.8274997  33.9519988
  48.3540012  13.1424997  33.2169988  48.4798061  12.2825228  33.2650961
  51.6510012   6.7054997  21.7679988  52.5430012   6.5684997  22.0869988
  51.7080012   7.4964997  21.2319988  51.7806285   6.7936660  21.7391691
  42.1600012  11.3194997  27.6779988  42.9050012  11.3174997  27.0769988
  42.2380012  10.4964997  28.1599988  42.2725518  11.2079315  27.6608929
  49.1610012  13.4834997  20.9339988  48.8650012  14.3094997  21.3149988
  48.4580012  12.8634997  21.1299988  49.0254914  13.5128199  21.0126443
  39.1680012   9.7804997  32.9929988  39.3910012   9.3624997  33.8249988
  38.5660012   9.1674997  32.5699988  39.1171759   9.6404668  33.0497022
  46.1840012   9.2974997  35.2059988  45.8880012   9.1314997  34.3109988
  47.1160012   9.0774997  35.1949988  46.2694166   9.2450640  35.0820536
  50.8050012  14.6704997  33.0959988  49.9040012  14.8534997  32.8279988
  50.8390012  14.9294997  34.0169988  50.6863041  14.7305512  33.1838197
  56.5360012   6.9154997  21.4629988  55.9820012   6.5194997  20.7909988
  56.6360012   7.8254997  21.1849988  56.4737059   6.9843586  21.3334401
  56.4990012  12.7154997  34.2999988  55.6480012  12.9534997  33.9329988
  57.0900012  12.6984997  33.5469988  56.4622487  12.7458258  34.1478893
  54.8310012  15.7014997  21.9279988  54.4580012  14.8754997  22.2369988
  55.1090012  15.5184997  21.0309988  54.8175630  15.5637303  21.8489626
  51.9920012  10.5094997  28.9489988  51.0630012  10.2774997  28.9219988
  52.4430012   9.7324997  28.6189988  51.9259216  10.3727238  28.9006917
  44.5350012  14.8374997  25.0819988  45.0620012  15.6104997  24.8819988
  43.6550012  15.0624997  24.7809988  44.4881773  14.9738005  25.0139010
  40.2900012   9.6994997  19.6689988  40.9060012  10.3264997  20.0489988
  39.4280012  10.0154997  19.9409988  40.2577698   9.8279430  19.7577183
  45.9620012  12.5004997  24.6589988  45.7210012  13.4254997  24.6999988
  45.2210012  12.0414997  25.0549988  45.8288409  12.5651421  24.7181377
  46.4770012  16.6494997  30.9739988  46.8390012  17.5044997  30.7399988
  47.0080012  16.3574997  31.7139988  46.5984473  16.7271060  31.0420855
  44.6450012  17.5224997  24.2039988  43.6950012  17.6274997  24.2549988
  44.9970012  18.3424997  24.5489988  44.5624203  17.6478314  24.2576650
  50.0210012  12.7484997  30.6739988  49.5950012  12.5214997  31.5009988
  50.6010012  12.0104997  30.4919988  50.0411868  12.6175299  30.7625830
  52.2240012  13.6774997  19.7479988  52.5770012  13.2974997  20.5529988
  51.2750012  13.5844997  19.8349988  52.1440441  13.6129596  19.8698559
  52.6790012  17.3004997  33.1439988  52.0780012  16.7454997  32.6479988
  52.9610012  17.9674997  32.5179988  52.6348519  17.3146841  32.9914952
  56.7270012  18.1574997  19.9489988  57.4710012  18.7434997  19.8089988
  56.0330012  18.7254997  20.2829988  56.7350292  18.3145582  19.9749961
  40.8020012   4.5334997  32.5509988  39.9090012   4.8724997  32.4829988
  40.7030012   3.6784997  32.9689988  40.6664164   4.4642588  32.5982235
  53.0900012  12.3504997  21.9749988  52.8120012  11.6224997  22.5309988
  54.0170012  12.4694997  22.1799988  53.1773124  12.2668802  22.0788845
  40.4530012  16.3384997  30.9859988  40.6700012  15.4064997  30.9549988
  40.6990012  16.6124997  31.8689988  40.5159549  16.2480636  31.1011763
  46.3150012  14.7894997  18.1949988  46.5540012  14.0414997  17.6479988
  46.0460012  14.4014997  19.0279988  46.3113675  14.6346638  18.2326865
  45.2520012  14.3594997  20.6519988  45.3980012  13.8394997  21.4419988
  45.2490012  15.2664997  20.9579988  45.2715989  14.4108853  20.8016088
  41.7050012  11.6124997  21.1619988  41.0190012  11.9644997  21.7289988
  42.2270012  12.3754997  20.9149988  41.6816852  11.7638578  21.2062118
  49.5360012   4.2744997  31.4409988  50.2350012   4.3484997  32.0909988
  49.1550012   3.4104997  31.5949988  49.5801767   4.1677624  31.5508322
  50.3210012   3.9264997  22.5379988  50.5410012   4.3984997  21.7349988
  50.8790012   4.3214997  23.2079988  50.4264968   4.0444285  22.5187331
  47.9890012  16.0574997  21.4009988  47.1730012  16.5544997  21.4529988
  48.5190012  16.5324997  20.7609988  47.9489161  16.1897722  21.3215956
  47.5210012   5.6544997  23.3729988  48.3330012   6.1594997  23.4189988
  47.2760012   5.5094997  24.2869988  47.5990520   5.7040375  23.5028517
  48.0560012   6.6404997  32.5579988  48.1750012   7.2144997  33.3149988
  48.7120012   5.9524997  32.6719988  48.1609757   6.6261079  32.6770825
  48.4040012   2.7354997  24.3109988  48.0580012   3.3534997  24.9559988
  49.0630012   3.2364997  23.8299988  48.4457826   2.8875802  24.3340971
  45.3280012  17.1014997  21.3829988  45.4880012  17.9004997  20.8819988
  45.1300012  17.4074997  22.2679988  45.3231649  17.2524469  21.4339815
  44.0620012   3.7984997  20.9979988  43.9790012   4.6874997  21.3449988
  44.9520012   3.5334997  21.2299988  44.1709469   3.8841430  21.0767626
  54.2610012   4.5474997  33.3929988  53.3440012   4.8104997  33.3049988
  54.5960012   4.5444997  32.4959988  54.1809900   4.5830224  33.2597919
  52.8630012   8.2984997  27.4879988  52.0650012   7.8834997  27.1599988
  53.3080012   7.6074997  27.9789988  52.8139885   8.1483543  27.5094889
  42.3210012  14.2264997  20.0589988  42.9130012  14.9254997  20.3349988
  42.7800012  13.7934997  19.3389988  42.4641142  14.2637049  19.9994830
  40.6370012   6.8904997  19.1749988  40.5920012   7.8294997  19.3529988
  39.7490012   6.6544997  18.9049988  40.5108574   6.9871892  19.1628912
  53.9490012  17.5544997  29.1109988  53.7940012  18.2324997  28.4539988
  54.8820012  17.6264997  29.3139988  54.0538500  17.6570170  29.0485119
  41.4450012   1.6724997  27.8479988  41.2160012   1.7314997  26.9199988
  41.0020012   0.8804997  28.1539988  41.3538530   1.5735753  27.7624786
  40.3750012  15.6124997  24.0079988  39.5430012  16.0854997  24.0359988
  40.9210012  16.1224997  23.4099988  40.3349739  15.7461871  23.9309716
  39.6630012  18.2254997  35.3379988  40.2040012  18.0084997  36.0979988
  39.1820012  17.4194997  35.1489988  39.6719345  18.0869514  35.4163076
  44.2610012  17.1444997  36.9589988  45.0280012  16.6854997  37.2999988
  44.2390012  16.9184997  36.0289988  44.3631434  17.0510409  36.8800043
  48.3530012  16.6524997  18.3339988  47.7090012  16.0214997  18.6549988
  49.1150012  16.1214997  18.1019988  48.3678077  16.4942920  18.3466011
  50.8380012  15.5244997  35.6879988  50.4870012  14.6684997  35.9309988
  51.5640012  15.6674997  36.2949988  50.8880769  15.4265636  35.8033619
  52.9570012  16.4694997  18.5679988  53.2400012  15.6754997  19.0199988
  53.6970012  16.7024997  18.0069988  53.0957486  16.3922803  18.5540698
  39.5700012  12.0354997  36.2929988  39.7140012  11.1334997  36.0059988
  38.7980012  12.3214997  35.8049988  39.4853322  11.9508261  36.1877881
  43.9120012  12.3794997  18.4249988  43.9760012  11.5854997  18.9559988
  44.5650012  12.2604997  17.7349988  44.0090241  12.2547148  18.4044317
  46.2260012  12.0054997  35.7249988  45.8970012  12.2764997  34.8679988
  46.3780012  11.0644997  35.6379988  46.2014809  11.9153862  35.5958244
  49.2640012  13.4264997  18.1609988  48.9950012  13.6064997  19.0619988
  49.0580012  12.5004997  18.0299988  49.1993825  13.3260152  18.2665214
  51.9600012  11.9214997  33.1089988  52.7060012  12.5094997  32.9889988
  51.2030012  12.5034997  33.1719988  51.9597554  12.0807011  33.1010907
  40.4030012   9.2354997  35.7129988  40.8110012   8.3784997  35.5919988
  40.1430012   9.2504997  36.6339988  40.4237568   9.1200807  35.8209588
  45.0610012  10.3514997  20.7309988  44.6010012   9.8674997  21.4169988
  45.3160012   9.6834997  20.0949988  45.0324902  10.1948731  20.7389334
  44.3500012   8.2444997  33.0869988  43.7320012   8.9194997  33.3669988
  44.6940012   8.5654997  32.2539988  44.3119615   8.3802721  33.0126581
  46.1320012   8.5944997  18.9929988  45.9520012   8.4404997  18.0659988
  47.0820012   8.7024997  19.0379988  46.2357776   8.5880175  18.8721843
  49.3700012  10.7164997  36.3639988  50.3230012  10.7994997  36.3369988
  49.2090012  10.0044997  36.9839988  49.4786426  10.6316746  36.4440579
  55.5220012  10.9494997  18.4389988  55.2480012  10.5244997  17.6259988
  55.5610012  11.8804997  18.2219988  55.4897699  11.0172484  18.2983610
  44.6890012   5.5994997  34.1689988  44.8390012   4.8704997  33.5669988
  44.6920012   6.3764997  33.6099988  44.7099302   5.6047851  34.0110692
  45.1020012   3.9694997  31.6619988  45.6380012   4.4204997  31.0099988
  44.2500012   3.8614997  31.2389988  45.0602178   4.0166390  31.5155756
  46.6840012   9.4084997  31.9009988  47.4340012   9.2524997  31.3279988
  46.3450012  10.2604997  31.6259988  46.7408921   9.5022968  31.7853561
  51.0990012   7.2234997  36.9299988  51.2920012   6.2924997  36.8179988
  51.9570012   7.6484997  36.9199988  51.2413020   7.1536389  36.9133361
  52.4160012  10.0124997  35.0069988  52.1350012  10.7214997  34.4299988
  53.3590012   9.9394997  34.8559988  52.5049027  10.0997646  34.9075551
  43.1680012   6.7974997  36.0809988  42.4010012   6.2654997  35.8709988
  43.8470012   6.4874997  35.4809988  43.1547022   6.6827506  35.9711648
  45.9080012   1.4254997  32.0929988  45.8090012   2.3724997  31.9879988
  45.1650012   1.0534997  31.6179988  45.7940563   1.5045902  32.0144560
  47.1720012   5.7474997  35.6569988  46.9360012   5.5274997  36.5589988
  46.3880012   5.5404997  35.1469988  47.0338628   5.6894760  35.7113932
  49.8870012   4.8744997  34.7329988  48.9400012   4.9064997  34.8649988
  50.2000012   4.2494997  35.3859988  49.7995475   4.7943207  34.8394455
  51.5210012   3.5084997  36.7379988  51.4250012   2.5564997  36.7319988
  51.2000012   3.7774997  37.5979988  51.4644070   3.4144035  36.8535441
  41.3480012   4.7184997  35.7849988  41.5600012   4.0114997  35.1749988
  41.2370012   4.2804997  36.6289988  41.3619721   4.5627084  35.8156843
  46.1290012   0.7194997  34.7649988  46.8410012   0.0794997  34.7509988
  46.0280012   0.9864997  33.8509988  46.2127939   0.6679938  34.6395650
  46.4830012   2.4024997  36.8179988  46.3510012   1.9264997  35.9979988
  45.8840012   3.1464997  36.7629988  46.3839071   2.4379618  36.6982886
  46.0290012  19.2854997  19.9949988  46.9620012  19.4434997  20.1379988
  45.7650012  19.9604997  19.3699988  46.1209510  19.3983611  19.9300741
  39.5980012  13.9214997  19.4769988  40.5120012  14.0004997  19.7509988
  39.6050012  13.2344997  18.8109988  39.7241131  13.8393961  19.4244393
  38.2470012  19.3144997  24.5549988  37.6000012  18.8524997  24.0219988
  38.6010012  18.6424997  25.1369988  38.2063849  19.1604723  24.5607959
  39.1170012  17.3954997  26.3589988  38.7820012  16.5154997  26.5309988
  39.3390012  17.7404997  27.2239988  39.1011783  17.3217500  26.4994208
  56.6650012  18.2044997  29.3399988  56.6440012  18.3894997  30.2789988
  57.3560012  18.7734997  28.9989988  56.7554618  18.3066606  29.4223864
  56.2290012  17.7724997  32.2619988  55.7410012  17.0364997  31.8909988
  56.7780012  17.3784997  32.9399988  56.2364872  17.6186249  32.3029160
  54.6790012  13.5614997  36.8999988  53.8130012  13.4564997  37.2939988
  55.0560012  14.3204997  37.3459988  54.6113308  13.6496900  37.0142393
  55.9800012  11.8184997  22.4139988  56.8300012  12.2394997  22.5409988
  55.9860012  11.0784997  23.0209988  56.0971372  11.7760803  22.5134344
  56.3750012   9.8714997  24.2379988  55.6480012   9.3924997  24.6349988
  56.9560012  10.0774997  24.9699988  56.3539375   9.8337090  24.3914129
  56.1340012  12.6564997  29.1849988  56.9670012  12.2784997  28.9049988
  56.2460012  13.5994997  29.0659988  56.2632647  12.7322218  29.1305487
  54.6200012  15.5344997  31.4919988  53.9730012  15.8594997  32.1179988
  54.1030012  15.0944997  30.8179988  54.4614029  15.5195004  31.4865827
  56.6430012   9.7724997  20.6289988  56.1210012  10.1294997  19.9099988
  56.6100012  10.4474997  21.3069988  56.5671634   9.9125413  20.6223145
  54.9920012   7.0124997  19.1799988  55.0880012   7.6794997  18.4989988
  54.8520012   6.1964997  18.6979988  54.9862135   6.9934500  19.0218491
  54.1610012   8.3924997  24.8009988  54.0110012   7.4474997  24.7799988
  53.8080012   8.6734997  25.6439988  54.0926625   8.3010441  24.9122346
  39.1970012  10.4704997  28.8109988  39.3810012  10.3884997  27.8749988
  40.0460012  10.3464997  29.2349988  39.3370139  10.4425003  28.7401455
  55.0180012  10.3624997  34.4389988  55.6010012   9.6284997  34.6309988
  55.5820012  11.1344997  34.4859988  55.1739769  10.3664227  34.4716159
  56.5140012   8.2654997  35.1239988  55.6510012   7.8864997  34.9579988
  57.1190012   7.5264997  35.0499988  56.4775979   8.1138023  35.0912817
  54.2390012   4.4204997  18.2969988  54.8500012   4.0494997  18.9339988
  53.4030012   3.9994997  18.4929988  54.2095032   4.3127554  18.4107035
  53.8720012   5.9754997  23.2629988  54.1520012   5.0684997  23.3869988
  54.6310012   6.4094997  22.8739988  54.0129277   5.9100942  23.2273682
  54.4840012   6.5564997  28.6989988  55.4170012   6.7684997  28.6649988
  54.2490012   6.6584997  29.6209988  54.5798036   6.5992769  28.8189976
  54.5130012   7.2934997  31.4749988  53.6700012   7.5614997  31.8409988
  54.9550012   8.1154997  31.2639988  54.4574158   7.4413291  31.4965491
  38.7940012   5.7414997  34.9519988  39.7140012   5.6194997  35.1879988
  38.3450012   4.9914997  35.3409988  38.8591580   5.6233727  35.0369006
  56.7960012   1.2734997  36.8279988  57.1460012   0.6194997  36.2229988
  56.9430012   2.1104997  36.3889988  56.8638419   1.2971591  36.6857118
  54.4850012   3.2384997  23.3109988  54.6680012   2.7894997  24.1369988
  53.8860012   2.6534997  22.8479988  54.4290202   3.0979975  23.3613275
  40.0150012   4.0534997  27.8429988  40.4610012   3.2614997  28.1449988
  40.4820012   4.7694997  28.2739988  40.1390172   4.0420624  27.9424820
  38.3190012   7.0524997  28.9119988  38.8110012   6.8314997  28.1209988
  38.6820012   7.8934997  29.1929988  38.4353126   7.1358357  28.8417531
  56.3160012   3.3824997  35.1779988  55.3980012   3.6534997  35.1419988
  56.4390012   2.8474997  34.3929988  56.2071066   3.3472892  35.0670487
  56.3520012   3.3054997  19.8389988  56.7640012   2.5844997  19.3639988
  57.0340012   3.9754997  19.8979988  56.5005885   3.2972368  19.7818915
  38.6330012   3.3104997  22.9659988  37.7080012   3.5194997  22.8369988
  39.0870012   3.7944997  22.2769988  38.5677368   3.4045993  22.8551226
  53.4040012  18.2944997  24.9119988  54.0560012  17.9474997  24.3039988
  53.9140012  18.7834997  25.5579988  53.5622637  18.3130597  24.9160236
  38.5970012   2.0484997  31.3109988  37.9320012   1.8024997  31.9539988
  38.1540012   2.6704997  30.7329988  38.4460956   2.0988632  31.3209352
  40.7890012  15.2234997  35.4549988  39.9680012  15.3984997  34.9949988
  40.5360012  15.1504997  36.3759988  40.6426164  15.2375622  35.5164923
  43.7430012  16.1984997  31.7139988  43.3180012  17.0074997  31.4309988
  44.6470012  16.2834997  31.4119988  43.8070271  16.3208469  31.6343776
  48.0540012  17.5974997  34.6729988  48.2390012  17.2634997  35.5509988
  48.9000012  17.9064997  34.3509988  48.1937539  17.5936047  34.7495605
  50.3990012  18.8834997  33.9169988  51.0760012  18.2504997  33.6769988
  50.7210012  19.2844997  34.7239988  50.5351637  18.8511154  33.9932793
  55.3160012   1.4724997  32.9969988  54.5040012   1.7974997  32.6089988
  55.5490012   0.7124997  32.4639988  55.2363423   1.4142436  32.8718253
  41.1450012  19.4544997  31.7609988  40.4240012  19.8944997  31.3099988
  40.7790012  19.2034997  32.6099988  40.9969804  19.4807698  31.8139840
  43.6120012  19.0544997  30.7909988  42.7470012  19.1264997  31.1949988
  43.5570012  19.6014997  30.0069988  43.4862085  19.1382685  30.7403362
  48.3220012  18.9424997  29.9659988  47.8660012  19.4714997  29.3119988
  48.4850012  19.5454997  30.6919988  48.2815585  19.0964468  29.9745062
  50.6500012  17.8204997  30.9109988  49.7450012  17.9854997  30.6459988
  51.0790012  18.6734997  30.8459988  50.5840799  17.9584483  30.8659182
  53.2540012  19.3904997  31.2059988  53.0720012  20.3064997  30.9959988
  53.4310012  18.9804997  30.3599988  53.2530210  19.4604822  31.0627885
  40.5590012  18.0774997  28.6709988  40.5410012  17.6524997  29.5289988
  41.3640012  17.7594997  28.2629988  40.6653875  17.9763812  28.7331655
  42.7010012  16.7874997  27.3259988  42.4820012  15.8714997  27.4959988
  43.5250012  16.9274997  27.7919988  42.7824420  16.6810520  27.4122774
  45.2380012  17.2574997  28.1749988  45.4510012  16.3694997  27.8879988
  45.3020012  17.2234997  29.1289988  45.2758232  17.1313102  28.2647397
  48.7460012   2.9214997  27.3189988  48.0720012   2.2924997  27.5749988
  49.3100012   2.4374997  26.7159988  48.7299230   2.7698744  27.2725340
  53.8890012   1.0294997  27.4319988  54.4930012   1.5764997  26.9299988
  53.0190012   1.3484997  27.1919988  53.8541241   1.1475806  27.3307654
  55.6160012   2.1674997  25.7649988  56.2280012   1.6534997  25.2389988
  55.9980012   3.0454997  25.7889988  55.7514540   2.2157140  25.6961830
  41.0730012   1.5554997  25.1409988  40.2960012   1.3214997  24.6339988
  41.6030012   0.7584997  25.1499988  41.0382330   1.4156988  25.0727742
  39.9090012   1.3534997  20.9449988  40.3480012   1.9644997  20.3529988
  39.2760012   1.8914997  21.4189988  39.8834514   1.5099257  20.9280930
  45.6520012   1.4824997  24.9549988  46.5270012   1.8704997  24.9249988
  45.5160012   1.2674997  25.8769988  45.7533695   1.5065184  25.0756440
  51.2090012   1.5124997  26.6039988  51.2850012   1.6074997  25.6539988
  50.9340012   0.6044997  26.7329988  51.1822321   1.4027867  26.4915079
  52.5620012   1.5384997  22.2959988  51.8600012   2.1534997  22.0869988
  52.1180012   0.7004997  22.4269988  52.4056330   1.5095783  22.2850328
  39.8100012  17.3014997  21.8429988  39.1250012  17.2634997  21.1749988
  39.8140012  18.2144997  22.1309988  39.7168193  17.4197016  21.7905284
  41.7700012   3.2694997  19.3869988  42.2620012   2.6394997  18.8599988
  42.3940012   3.5654997  20.0509988  41.9215446   3.2233199  19.4045980
  46.7960012   3.5624997  21.8439988  46.9740012   2.9164997  22.5269988
  46.7430012   4.3964997  22.3119988  46.8131829   3.5867985  22.0005940
  48.6750012  18.5114997  20.2399988  49.5410012  18.8774997  20.0619988
  48.4280012  18.0714997  19.4259988  48.7602392  18.5021756  20.1056289
  55.3840012  18.0744997  22.9189988  55.1890012  17.3264997  22.3539988
  55.3450012  18.8324997  22.3359988  55.3520380  18.0746099  22.7628384
  41.0310012   2.0694997  34.6589988  40.6650012   1.3044997  35.1019988
  41.9440012   2.0984997  34.9459988  41.1042790   1.9687224  34.7584070
  43.0040012   1.4204997  36.1949988  43.9020012   1.1464997  36.0099988
  42.6170012   0.6774997  36.6589988  43.0746612   1.2825914  36.2323643
  41.6280012  18.2214997  18.8679988  41.3610012  18.5084997  19.7409988
  42.4000012  17.6754997  19.0199988  41.6957488  18.1870294  19.0081050
  51.4250012   0.7524997  36.3769988  51.5020012   0.3264997  37.2309988
  52.3190012   0.7664997  36.0339988  51.5563428   0.6960879  36.4475310
  54.6010012  16.8254997  35.0689988  53.8190012  16.6394997  34.5499988
  54.5290012  17.7544997  35.2869988  54.4841777  16.9256492  35.0274048
  69.0070012  10.7114997  25.0999988  69.0960012  11.6554997  24.9679988
  68.3690012  10.4364997  24.4419988  68.9329081  10.8034830  24.9929614
  67.9400012   9.9664997  28.5189988  67.9020012   9.3204997  29.2239988
  67.6180012   9.5004997  27.7479988  67.8912333   9.8149408  28.5112978
  60.3090012   9.5814997  30.1119988  60.3500012   8.9554997  30.8349988
  61.0120012  10.2054997  30.2939988  60.4096363   9.5801196  30.2356044
  71.6460012  12.9054997  26.8199988  71.2060012  12.1854997  27.2709988
  71.6330012  13.6264997  27.4499988  71.5840226  12.9043731  26.9668494
  61.2320012  14.0314997  28.6469988  60.8630012  13.2294997  28.2769988
  62.1730012  13.8624997  28.6929988  61.3087289  13.8990153  28.6026316
  57.8420012   7.6914997  24.0399988  57.3950012   8.5374997  24.0209988
  57.2810012   7.1114997  23.5239988  57.7049900   7.7289916  23.9676801
  58.5530012   9.8534997  26.1659988  58.7660012   9.0834997  26.6929988
  59.2910012   9.9424997  25.5619988  58.6818496   9.7601394  26.1565300
  68.7580012  18.0104997  27.0329988  69.3780012  17.3334997  26.7589988
  68.5500012  17.7924997  27.9409988  68.8146904  17.8883870  27.1183365
  66.3300012  12.3994997  28.9249988  66.6340012  11.7134997  28.3299988
  67.0510012  12.5174997  29.5429988  66.4690671  12.3216305  28.9271816
  74.9930012   4.0004997  29.7859988  75.0420012   4.6104997  30.5219988
  75.4180012   4.4614997  29.0629988  75.0571824   4.1463741  29.7890205
  69.4710012   6.7934997  29.2529988  69.6130012   5.8474997  29.2729988
  69.3640012   7.0004997  28.3239988  69.4759864   6.6919534  29.1302339
  62.6250012   4.8944997  26.5249988  62.6690012   5.7544997  26.1069988
  62.1680012   4.3424997  25.8909988  62.5692185   4.9375799  26.3820299
  70.3480012   5.0254997  24.9259988  70.9940012   4.6964997  25.5509988
  70.8580012   5.5434997  24.3029988  70.5054264   5.0504611  24.9273862
  59.2460012   7.2914997  27.2869988  59.8990012   6.7414997  27.7189988
  59.2700012   7.0174997  26.3699988  59.3386683   7.1791466  27.2222123
  64.4020012   8.8414997  26.5019988  65.0180012   8.3154997  27.0119988
  63.8160012   8.2014997  26.0989988  64.4070810   8.6829208  26.5173173
  75.3840012   5.4784997  32.0219988  74.6960012   6.1364997  31.9259988
  75.4000012   5.2814997  32.9579988  75.2918525   5.5420462  32.1354808
  61.4360012   3.8124997  30.5989988  61.2170012   4.3424997  29.8329988
  60.7680012   4.0394997  31.2459988  61.3157600   3.9156906  30.5816379
  68.8050012  13.3124997  24.1429988  68.5090012  12.9904997  23.2919988
  68.4800012  14.2124997  24.1839988  68.7206371  13.3900215  24.0321801
  64.0050012  11.4884997  30.8859988  63.2650012  12.0864997  30.9899988
  64.7190012  12.0424997  30.5709988  64.0002237  11.6452831  30.8576465
  72.1120012   4.3164997  26.9059988  71.8960012   3.5504997  27.4389988
  72.7670012   4.7884997  27.4189988  72.1710632   4.2755889  27.0482861
  61.0290012   5.7044997  28.5509988  61.6430012   6.3374997  28.9249988
  61.5410012   5.2324997  27.8949988  61.1822296   5.7272370  28.5134252
  62.4120012  13.4524997  31.6739988  62.4070012  14.3324997  31.2959988
  61.5590012  13.3694997  32.0989988  62.2959464  13.5616117  31.6797907
  58.5330012  13.1234997  22.4559988  58.2610012  13.3524997  21.5669988
  58.5790012  13.9614997  22.9159988  58.5020094  13.2681213  22.3965697
  72.1580012  14.7454997  29.1679988  71.2170012  14.8034997  29.3299988
  72.4350012  15.6514997  29.0309988  72.0664679  14.8759443  29.1716815
  72.4590012   3.0314997  30.5859988  71.7230012   3.6424997  30.5479988
  73.1420012   3.4464997  30.0589988  72.4506541   3.1711374  30.5095832
  65.4620012   1.1184997  28.0519988  65.3450012   0.1694997  27.9969988
  64.6070012   1.4504997  28.3249988  65.3303733   1.0335409  28.0813897
  70.4100012  16.5264997  25.7939988  70.8360012  15.8194997  25.3089988
  70.7270012  17.3274997  25.3769988  70.5111019  16.5380994  25.6713130
  71.5700012  14.4274997  24.3019988  71.3120012  13.7374997  23.6909988
  71.6410012  13.9844997  25.1479988  71.5442856  14.2732124  24.3326885
  73.2560012  12.9934997  32.7799988  73.3960012  12.4024997  32.0399988
  73.4230012  13.8664997  32.4229988  73.2976778  13.0306426  32.6306965
  67.7290012   9.9554997  22.5519988  67.0170012  10.4904997  22.1999988
  68.4200012  10.0114997  21.8919988  67.7250132  10.0362543  22.4146289
  67.7820012   8.4134997  19.5909988  68.4830012   8.4354997  20.2419988
  68.0850012   7.7854997  18.9349988  67.9187830   8.3316566  19.5913711
  75.0980012   9.3334997  30.8459988  74.4450012  10.0284997  30.9349988
  75.5630012   9.5434997  30.0359988  75.0715390   9.4569425  30.7486883
  71.1340012  10.1654997  23.5039988  70.4020012  10.3934997  24.0769988
  71.5820012   9.4514997  23.9589988  71.0943095  10.1002571  23.6439119
  71.0320012   8.3394997  32.5709988  71.1120012   9.1024997  33.1429988
  70.4300012   8.6184997  31.8809988  70.9615756   8.4817134  32.5560589
  62.7800012  10.7954997  25.3859988  62.4490012  10.4254997  24.5679988
  63.3680012  10.1254997  25.7329988  62.8141873  10.6541156  25.3208102
  64.1460012  14.2234997  28.0679988  64.0520012  13.6454997  27.3109988
  64.8760012  13.8524997  28.5639988  64.2317981  14.0942390  28.0314165
  63.1460012   9.5644997  29.0199988  63.7120012   9.6854997  28.2569988
  63.4650012  10.2014997  29.6589988  63.2665786   9.6671884  29.0020040
  69.4550012  15.0674997  29.7539988  69.2150012  15.7294997  30.4019988
  69.2570012  14.2334997  30.1789988  69.3953808  15.0453134  29.9001524
  64.0260012  13.9634997  33.7369988  63.7150012  14.7454997  34.1919988
  63.3760012  13.8104997  33.0509988  63.8955558  14.0499105  33.7065871
  70.0050012   9.3274997  21.1889988  70.5850012   9.4774997  21.9359988
  70.4190012   9.7984997  20.4659988  70.1402831   9.4116841  21.1934134
  60.9460012  10.1614997  32.9659988  61.0170012  10.8124997  33.6639988
  60.0560012  10.2644997  32.6309988  60.8353117  10.2645936  33.0162700
  67.7320012  16.0644997  24.6239988  68.2060012  16.3594997  25.4019988
  67.1690012  16.8024997  24.3909988  67.7207653  16.2046932  24.6990136
  62.2660012  16.0354997  34.4999988  62.2730012  15.8994997  33.5529988
  61.3500012  15.9174997  34.7519988  62.1431714  16.0009430  34.4044666
  73.7040012   1.0774997  21.0019988  72.8040012   1.2164997  21.2969988
  73.9560012   1.9084997  20.5999988  73.6148702   1.2089074  20.9880205
  61.7700012   9.8654997  22.9759988  61.4780012  10.6334997  22.4849988
  61.0960012   9.2054997  22.8129988  61.6389081   9.8814406  22.8867340
  74.8930012  15.4434997  19.3779988  74.9670012  16.3824997  19.5489988
  75.7990012  15.1384997  19.3219988  75.0255100  15.5306722  19.3938119
  57.8630012  12.2284997  31.7909988  57.3620012  12.2004997  30.9759988
  57.8680012  11.3224997  32.0999988  57.7951526  12.1022278  31.7212872
  57.6130012  15.0084997  28.6749988  58.5590012  14.8644997  28.6559988
  57.5010012  15.7924997  29.2119988  57.7272727  15.0948046  28.7450072
  75.8110012  15.6744997  34.3569988  75.7620012  14.7194997  34.3199988
  74.9840012  15.9424997  34.7579988  75.6924940  15.5798998  34.4061375
  66.7900012  15.2484997  33.2329988  66.8770012  16.0744997  33.7079988
  65.9260012  14.9184997  33.4819988  66.6851964  15.3169878  33.3316549
  67.2040012  19.0204997  23.0389988  67.1290012  18.8994997  22.0929988
  67.2370012  19.9704997  23.1579988  67.1981848  19.1322500  22.9254834
  60.8570012  17.8094997  24.8199988  61.0100012  17.4614997  25.6989988
  60.0070012  17.4534997  24.5649988  60.7628962  17.7136650  24.9058340
  70.3060012  18.1744997  20.0409988  70.6810012  17.4304997  19.5709988
  70.3100012  17.9044997  20.9599988  70.3578915  18.0361486  20.1007824
  69.9750012  18.1004997  22.7909988  69.0390012  18.2004997  22.9689988
  70.2550012  17.3914997  23.3689988  69.8848255  18.0182711  22.8935391
  72.9630012   7.1674997  34.8369988  72.5560012   7.6484997  34.1159988
  73.0040012   6.2624997  34.5289988  72.9128437   7.1109374  34.6966683
  60.1120012  13.5514997  32.8339988  60.3280012  13.1904997  33.6929988
  59.2570012  13.1774997  32.6239988  60.0259292  13.4514111  32.9233386
  62.7310012   2.0214997  28.8289988  61.8690012   1.9344997  28.4219988
  62.7080012   2.8774997  29.2569988  62.6100330   2.1252765  28.8311863
  67.3940012   1.7434997  32.2039988  67.8140012   1.3284997  32.9569988
  66.4610012   1.5654997  32.3209988  67.3253644   1.6625900  32.3229539
  70.7200012   5.4994997  33.0569988  70.2060012   5.3734997  33.8549988
  70.5650012   6.4114997  32.8129988  70.6286852   5.6056132  33.1332158
  71.4830012  10.3604997  18.8189988  71.5250012  10.1374997  17.8889988
  72.3320012  10.7594997  19.0089988  71.6035396  10.3839155  18.7173627
  67.0550012   4.2364997  19.4889988  66.8020012   4.2554997  20.4119988
  66.7990012   3.3644997  19.1879988  66.9857790   4.1212437  19.5746263
  62.8220012   6.9874997  29.9239988  62.1800012   6.9464997  30.6329988
  62.8590012   7.9134997  29.6869988  62.7391324   7.1071559  29.9889824
  62.8190012   7.2084997  24.8359988  61.9260012   6.8674997  24.7779988
  63.2690012   6.8314997  24.0809988  62.7577305   7.1108484  24.7259177
  68.3540012   7.6244997  23.6529988  67.9450012   8.4394997  23.3619988
  69.0750012   7.4844997  23.0389988  68.3954537   7.7172018  23.5301342
  67.4560012   7.7994997  35.1409988  66.8940012   7.0954997  35.4619988
  68.2830012   7.6794997  35.6089988  67.4907095   7.6867883  35.2482330
  69.3590012   7.0704997  26.4669988  69.1640012   7.6754997  25.7519988
  69.5400012   6.2364997  26.0329988  69.3567614   7.0406300  26.3104405
  60.5720012   7.3074997  31.7909988  60.5340012   7.7074997  32.6599988
  60.0810012   6.4904997  31.8819988  60.5004684   7.2518069  31.9221059
  63.9380012   4.6814997  18.5899988  63.5070012   4.2364997  19.3199988
  63.2200012   5.0534997  18.0779988  63.7819438   4.6708940  18.6206799
  57.1800012   4.4234997  25.6419988  57.8110012   4.3944997  26.3609988
  57.6290012   3.9984997  24.9119988  57.3270774   4.3620492  25.6416553
  58.4540012   5.1694997  21.0659988  58.9280012   5.7604997  20.4809988
  57.7370012   5.7004997  21.4129988  58.4219341   5.3220867  21.0328836
  68.6230012   8.7084997  31.1389988  68.9460012   8.0774997  30.4959988
  68.1830012   8.1734997  31.7989988  68.6076895   8.5498440  31.1402850
  65.4000012   4.6354997  25.9229988  64.4890012   4.6924997  26.2109988
  65.9060012   4.5754997  26.7329988  65.3435413   4.6351985  26.0720622
  60.2290012   6.2644997  24.7489988  59.3390012   6.3644997  24.4089988
  60.5250012   5.4224997  24.4029988  60.1472823   6.1643546  24.6557213
  63.8820012   6.2644997  22.4059988  64.8130012   6.3934997  22.5839988
  63.6670012   6.9344997  21.7559988  63.9804247   6.3726565  22.3425747
  69.8050012   3.8704997  29.1869988  69.1290012   4.0014997  29.8509988
  69.3200012   3.7154997  28.3769988  69.6467145   3.8674905  29.1684517
  62.5560012   7.4594997  19.9729988  62.0130012   7.0794997  19.2809988
  63.3890012   7.6534997  19.5439988  62.5944399   7.4338124  19.8204526
  73.0930012  19.5424997  35.4639988  73.2930012  19.9664997  34.6289988
  73.7480012  19.8854997  36.0709988  73.2090051  19.6469648  35.4317836
  60.6910012  12.0164997  35.0719988  61.4230012  12.2704997  35.6329988
  59.9110012  12.2204997  35.5869988  60.6858232  12.0789177  35.2185760
  66.7200012   7.4234997  27.8099988  67.2850012   6.8764997  27.2629988
  66.5730012   6.9014997  28.5979988  66.7772918   7.2782024  27.8418454
  61.7220012   3.5594997  24.2279988  61.4050012   2.6574997  24.1929988
  62.5040012   3.5614997  23.6749988  61.7842284   3.4361628  24.1484783
  65.3470012   5.8114997  30.2239988  64.5110012   6.2654997  30.3339988
  65.8710012   6.0874997  30.9759988  65.3034414   5.9109376  30.3407136
  65.8910012  12.0244997  21.9079988  65.1460012  11.5174997  21.5859988
  65.7570012  12.0734997  22.8549988  65.7708776  11.9616940  21.9918647
  73.0410012  11.1574997  30.6949988  73.6830012  11.6144997  30.1509988
  72.2110012  11.2704997  30.2319988  73.0165963  11.2352704  30.5580177
  69.7890012   4.8384997  20.1079988  68.8500012   4.9504997  19.9559988
  70.0860012   5.6954997  20.4139988  69.7007666   4.9696443  20.1285768
  67.4100012  12.2084997  33.1449988  67.0650012  11.8274997  33.9519988
  67.2100012  13.1424997  33.2169988  67.3358061  12.2825228  33.2650961
  70.5070012   6.7054997  21.7679988  71.3990012   6.5684997  22.0869988
  70.5640012   7.4964997  21.2319988  70.6366285   6.7936660  21.7391691
  61.0160012  11.3194997  27.6779988  61.7610012  11.3174997  27.0769988
  61.0940012  10.4964997  28.1599988  61.1285518  11.2079315  27.6608929
  68.0170012  13.4834997  20.9339988  67.7210012  14.3094997  21.3149988
  67.3140012  12.8634997  21.1299988  67.8814914  13.5128199  21.0126443
  58.0240012   9.7804997  32.9929988  58.2470012   9.3624997  33.8249988
  57.4220012   9.1674997  32.5699988  57.9731759   9.6404668  33.0497022
  65.0400012   9.2974997  35.2059988  64.7440012   9.1314997  34.3109988
  65.9720012   9.0774997  35.1949988  65.1254166   9.2450640  35.0820536
  69.6610012  14.6704997  33.0959988  68.7600012  14.8534997  32.8279988
  69.6950012  14.9294997  34.0169988  69.5423041  14.7305512  33.1838197
  75.3920012   6.9154997  21.4629988  74.8380012   6.5194997  20.7909988
  75.4920012   7.8254997  21.1849988  75.3297059   6.9843586  21.3334401
  75.3550012  12.7154997  34.2999988  74.5040012  12.9534997  33.9329988
  75.9460012  12.6984997  33.5469988  75.3182487  12.7458258  34.1478893
  73.6870012  15.7014997  21.9279988  73.3140012  14.8754997  22.2369988
  73.9650012  15.5184997  21.0309988  73.6735630  15.5637303  21.8489626
  70.8480012  10.5094997  28.9489988  69.9190012  10.2774997  28.9219988
  71.2990012   9.7324997  28.6189988  70.7819216  10.3727238  28.9006917
  63.3910012  14.8374997  25.0819988  63.9180012  15.6104997  24.8819988
  62.5110012  15.0624997  24.7809988  63.3441773  14.9738005  25.0139010
  59.1460012   9.6994997  19.6689988  59.7620012  10.3264997  20.0489988
  58.2840012  10.0154997  19.9409988  59.1137698   9.8279430  19.7577183
  64.8180012  12.5004997  24.6589988  64.5770012  13.4254997  24.6999988
  64.0770012  12.0414997  25.0549988  64.6848409  12.5651421  24.7181377
  65.3330012  16.6494997  30.9739988  65.6950012  17.5044997  30.7399988
  65.8640012  16.3574997  31.7139988  65.4544473  16.7271060  31.0420855
  63.5010012  17.5224997  24.2039988  62.5510012  17.6274997  24.2549988
  63.8530012  18.3424997  24.5489988  63.4184203  17.6478314  24.2576650
  68.8770012  12.7484997  30.6739988  68.4510012  12.5214997  31.5009988
  69.4570012  12.0104997  30.4919988  68.8971868  12.6175299  30.7625830
  71.0800012  13.6774997  19.7479988  71.4330012  13.2974997  20.5529988
  70.1310012  13.5844997  19.8349988  71.0000441  13.6129596  19.8698559
  71.5350012  17.3004997  33.1439988  70.9340012  16.7454997  32.6479988
  71.8170012  17.9674997  32.5179988  71.4908519  17.3146841  32.9914952
  75.5830012  18.1574997  19.9489988  76.3270012  18.7434997  19.8089988
  74.8890012  18.7254997  20.2829988  75.5910292  18.3145582  19.9749961
  59.6580012   4.5334997  32.5509988  58.7650012   4.8724997  32.4829988
  59.5590012   3.6784997  32.9689988  59.5224164   4.4642588  32.5982235
  71.9460012  12.3504997  21.9749988  71.6680012  11.6224997  22.5309988
  72.8730012  12.4694997  22.1799988  72.0333124  12.2668802  22.0788845
  59.3090012  16.3384997  30.9859988  59.5260012  15.4064997  30.9549988
  59.5550012  16.6124997  31.8689988  59.3719549  16.2480636  31.1011763
  65.1710012  14.7894997  18.1949988  65.4100012  14.0414997  17.6479988
  64.9020012  14.4014997  19.0279988  65.1673675  14.6346638  18.2326865
  64.1080012  14.3594997  20.6519988  64.2540012  13.8394997  21.4419988
  64.1050012  15.2664997  20.9579988  64.1275989  14.4108853  20.8016088
  60.5610012  11.6124997  21.1619988  59.8750012  11.9644997  21.7289988
  61.0830012  12.3754997  20.9149988  60.5376852  11.7638578  21.2062118
  68.3920012   4.2744997  31.4409988  69.0910012   4.3484997  32.0909988
  68.0110012   3.4104997  31.5949988  68.4361767   4.1677624  31.5508322
  69.1770012   3.9264997  22.5379988  69.3970012   4.3984997  21.7349988
  69.7350012   4.3214997  23.2079988  69.2824968   4.0444285  22.5187331
  66.8450012  16.0574997  21.4009988  66.0290012  16.5544997  21.4529988
  67.3750012  16.5324997  20.7609988  66.8049161  16.1897722  21.3215956
  66.3770012   5.6544997  23.3729988  67.1890012   6.1594997  23.4189988
  66.1320012   5.5094997  24.2869988  66.4550520   5.7040375  23.5028517
  66.9120012   6.6404997  32.5579988  67.0310012   7.2144997  33.3149988
  67.5680012   5.9524997  32.6719988  67.0169757   6.6261079  32.6770825
  67.2600012   2.7354997  24.3109988  66.9140012   3.3534997  24.9559988
  67.9190012   3.2364997  23.8299988  67.3017826   2.8875802  24.3340971
  64.1840012  17.1014997  21.3829988  64.3440012  17.9004997  20.8819988
  63.9860012  17.4074997  22.2679988  64.1791649  17.2524469  21.4339815
  62.9180012   3.7984997  20.9979988  62.8350012   4.6874997  21.3449988
  63.8080012   3.5334997  21.2299988  63.0269469   3.8841430  21.0767626
  73.1170012   4.5474997  33.3929988  72.2000012   4.8104997  33.3049988
  73.4520012   4.5444997  32.4959988  73.0369900   4.5830224  33.2597919
  71.7190012   8.2984997  27.4879988  70.9210012   7.8834997  27.1599988
  72.1640012   7.6074997  27.9789988  71.6699885   8.1483543  27.5094889
  61.1770012  14.2264997  20.0589988  61.7690012  14.9254997  20.3349988
  61.6360012  13.7934997  19.3389988  61.3201142  14.2637049  19.9994830
  59.4930012   6.8904997  19.1749988  59.4480012   7.8294997  19.3529988
  58.6050012   6.6544997  18.9049988  59.3668574   6.9871892  19.1628912
  72.8050012  17.5544997  29.1109988  72.6500012  18.2324997  28.4539988
  73.7380012  17.6264997  29.3139988  72.9098500  17.6570170  29.0485119
  60.3010012   1.6724997  27.8479988  60.0720012   1.7314997  26.9199988
  59.8580012   0.8804997  28.1539988  60.2098530   1.5735753  27.7624786
  59.2310012  15.6124997  24.0079988  58.3990012  16.0854997  24.0359988
  59.7770012  16.1224997  23.4099988  59.1909739  15.7461871  23.9309716
  58.5190012  18.2254997  35.3379988  59.0600012  18.0084997  36.0979988
  58.0380012  17.4194997  35.1489988  58.5279345  18.0869514  35.4163076
  63.1170012  17.1444997  36.9589988  63.8840012  16.6854997  37.2999988
  63.0950012  16.9184997  36.0289988  63.2191434  17.0510409  36.8800043
  67.2090012  16.6524997  18.3339988  66.5650012  16.0214997  18.6549988
  67.9710012  16.1214997  18.1019988  67.2238077  16.4942920  18.3466011
  69.6940012  15.5244997  35.6879988  69.3430012  14.6684997  35.9309988
  70.4200012  15.6674997  36.2949988  69.7440769  15.4265636  35.8033619
  71.8130012  16.4694997  18.5679988  72.0960012  15.6754997  19.0199988
  72.5530012  16.7024997  18.0069988  71.9517486  16.3922803  18.5540698
  58.4260012  12.0354997  36.2929988  58.5700012  11.1334997  36.0059988
  57.6540012  12.3214997  35.8049988  58.3413322  11.9508261  36.1877881
  62.7680012  12.3794997  18.4249988  62.8320012  11.5854997  18.9559988
  63.4210012  12.2604997  17.7349988  62.8650241  12.2547148  18.4044317
  65.0820012  12.0054997  35.7249988  64.7530012  12.2764997  34.8679988
  65.2340012  11.0644997  35.6379988  65.0574809  11.9153862  35.5958244
  68.1200012  13.4264997  18.1609988  67.8510012  13.6064997  19.0619988
  67.9140012  12.5004997  18.0299988  68.0553825  13.3260152  18.2665214
  70.8160012  11.9214997  33.1089988  71.5620012  12.5094997  32.9889988
  70.0590012  12.5034997  33.1719988  70.8157554  12.0807011  33.1010907
  59.2590012   9.2354997  35.7129988  59.6670012   8.3784997  35.5919988
  58.9990012   9.2504997  36.6339988  59.2797568   9.1200807  35.8209588
  63.9170012  10.3514997  20.7309988  63.4570012   9.8674997  21.4169988
  64.1720012   9.6834997  20.0949988  63.8884902  10.1948731  20.7389334
  63.2060012   8.2444997  33.0869988  62.5880012   8.9194997  33.3669988
  63.5500012   8.5654997  32.2539988  63.1679615   8.3802721  33.0126581
  64.9880012   8.5944997  18.9929988  64.8080012   8.4404997  18.0659988
  65.9380012   8.7024997  19.0379988  65.0917776   8.5880175  18.8721843
  68.2260012  10.7164997  36.3639988  69.1790012  10.7994997  36.3369988
  68.0650012  10.0044997  36.9839988  68.3346426  10.6316746  36.4440579
  74.3780012  10.9494997  18.4389988  74.1040012  10.5244997  17.6259988
  74.4170012  11.8804997  18.2219988  74.3457699  11.0172484  18.2983610
  63.5450012   5.5994997  34.1689988  63.6950012   4.8704997  33.5669988
  63.5480012   6.3764997  33.6099988  63.5659302   5.6047851  34.0110692
  63.9580012   3.9694997  31.6619988  64.4940012   4.4204997  31.0099988
  63.1060012   3.8614997  31.2389988  63.9162178   4.0166390  31.5155756
  65.5400012   9.4084997  31.9009988  66.2900012   9.2524997  31.3279988
  65.2010012  10.2604997  31.6259988  65.5968921   9.5022968  31.7853561
  69.9550012   7.2234997  36.9299988  70.1480012   6.2924997  36.8179988
  70.8130012   7.6484997  36.9199988  70.0973020   7.1536389  36.9133361
  71.2720012  10.0124997  35.0069988  70.9910012  10.7214997  34.4299988
  72.2150012   9.9394997  34.8559988  71.3609027  10.0997646  34.9075551
  62.0240012   6.7974997  36.0809988  61.2570012   6.2654997  35.8709988
  62.7030012   6.4874997  35.4809988  62.0107022   6.6827506  35.9711648
  64.7640012   1.4254997  32.0929988  64.6650012   2.3724997  31.9879988
  64.0210012   1.0534997  31.6179988  64.6500564   1.5045902  32.0144560
  66.0280012   5.7474997  35.6569988  65.7920012   5.5274997  36.5589988
  65.2440012   5.5404997  35.1469988  65.8898628   5.6894760  35.7113932
  68.7430012   4.8744997  34.7329988  67.7960012   4.9064997  34.8649988
  69.0560012   4.2494997  35.3859988  68.6555475   4.7943207  34.8394455
  70.3770012   3.5084997  36.7379988  70.2810012   2.5564997  36.7319988
  70.0560012   3.7774997  37.5979988  70.3204070   3.4144035  36.8535441
  60.2040012   4.7184997  35.7849988  60.4160012   4.0114997  35.1749988
  60.0930012   4.2804997  36.6289988  60.2179721   4.5627084  35.8156843
  64.9850012   0.7194997  34.7649988  65.6970012   0.0794997  34.7509988
  64.8840012   0.9864997  33.8509988  65.0687939   0.6679938  34.6395650
  65.3390012   2.4024997  36.8179988  65.2070012   1.9264997  35.9979988
  64.7400012   3.1464997  36.7629988  65.2399071   2.4379618  36.6982886
  64.8850012  19.2854997  19.9949988  65.8180012  19.4434997  20.1379988
  64.6210012  19.9604997  19.3699988  64.9769510  19.3983611  19.9300741
  58.4540012  13.9214997  19.4769988  59.3680012  14.0004997  19.7509988
  58.4610012  13.2344997  18.8109988  58.5801131  13.8393961  19.4244393
  57.1030012  19.3144997  24.5549988  56.4560012  18.8524997  24.0219988
  57.4570012  18.6424997  25.1369988  57.0623849  19.1604723  24.5607959
  57.9730012  17.3954997  26.3589988  57.6380012  16.5154997  26.5309988
  58.1950012  17.7404997  27.2239988  57.9571783  17.3217500  26.4994208
  75.5210012  18.2044997  29.3399988  75.5000012  18.3894997  30.2789988
  76.2120012  18.7734997  28.9989988  75.6114618  18.3066606  29.4223864
  75.0850012  17.7724997  32.2619988  74.5970012  17.0364997  31.8909988
  75.6340012  17.3784997  32.9399988  75.0924872  17.6186249  32.3029160
  73.5350012  13.5614997  36.8999988  72.6690012  13.4564997  37.2939988
  73.9120012  14.3204997  37.3459988  73.4673308  13.6496900  37.0142393
  74.8360012  11.8184997  22.4139988  75.6860012  12.2394997  22.5409988
  74.8420012  11.0784997  23.0209988  74.9531372  11.7760803  22.5134344
  75.2310012   9.8714997  24.2379988  74.5040012   9.3924997  24.6349988
  75.8120012  10.0774997  24.9699988  75.2099375   9.8337090  24.3914129
  74.9900012  12.6564997  29.1849988  75.8230012  12.2784997  28.9049988
  75.1020012  13.5994997  29.0659988  75.1192647  12.7322218  29.1305487
  73.4760012  15.5344997  31.4919988  72.8290012  15.8594997  32.1179988
  72.9590012  15.0944997  30.8179988  73.3174029  15.5195004  31.4865827
  75.4990012   9.7724997  20.6289988  74.9770012  10.1294997  19.9099988
  75.4660012  10.4474997  21.3069988  75.4231634   9.9125413  20.6223145
  73.8480012   7.0124997  19.1799988  73.9440012   7.6794997  18.4989988
  73.7080012   6.1964997  18.6979988  73.8422135   6.9934500  19.0218491
  73.0170012   8.3924997  24.8009988  72.8670012   7.4474997  24.7799988
  72.6640012   8.6734997  25.6439988  72.9486625   8.3010441  24.9122346
  58.0530012  10.4704997  28.8109988  58.2370012  10.3884997  27.8749988
  58.9020012  10.3464997  29.2349988  58.1930139  10.4425003  28.7401455
  73.8740012  10.3624997  34.4389988  74.4570012   9.6284997  34.6309988
  74.4380012  11.1344997  34.4859988  74.0299769  10.3664227  34.4716159
  75.3700012   8.2654997  35.1239988  74.5070012   7.8864997  34.9579988
  75.9750012   7.5264997  35.0499988  75.3335979   8.1138023  35.0912817
  73.0950012   4.4204997  18.2969988  73.7060012   4.0494997  18.9339988
  72.2590012   3.9994997  18.4929988  73.0655032   4.3127554  18.4107035
  72.7280012   5.9754997  23.2629988  73.0080012   5.0684997  23.3869988
  73.4870012   6.4094997  22.8739988  72.8689277   5.9100942  23.2273682
  73.3400012   6.5564997  28.6989988  74.2730012   6.7684997  28.6649988
  73.1050012   6.6584997  29.6209988  73.4358036   6.5992769  28.8189976
  73.3690012   7.2934997  31.4749988  72.5260012   7.5614997  31.8409988
  73.8110012   8.1154997  31.2639988  73.3134158   7.4413291  31.4965491
  57.6500012   5.7414997  34.9519988  58.5700012   5.6194997  35.1879988
  57.2010012   4.9914997  35.3409988  57.7151580   5.6233727  35.0369006
  75.6520012   1.2734997  36.8279988  76.0020012   0.6194997  36.2229988
  75.7990012   2.1104997  36.3889988  75.7198419   1.2971591  36.6857118
  73.3410012   3.2384997  23.3109988  73.5240012   2.7894997  24.1369988
  72.7420012   2.6534997  22.8479988  73.2850202   3.0979975  23.3613275
  58.8710012   4.0534997  27.8429988  59.3170012   3.2614997  28.1449988
  59.3380012   4.7694997  28.2739988  58.9950172   4.0420624  27.9424820
  57.1750012   7.0524997  28.9119988  57.6670012   6.8314997  28.1209988
  57.5380012   7.8934997  29.1929988  57.2913126   7.1358357  28.8417531
  75.1720012   3.3824997  35.1779988  74.2540012   3.6534997  35.1419988
  75.2950012   2.8474997  34.3929988  75.0631066   3.3472892  35.0670487
  75.2080012   3.3054997  19.8389988  75.6200012   2.5844997  19.3639988
  75.8900012   3.9754997  19.8979988  75.3565885   3.2972368  19.7818915
  57.4890012   3.3104997  22.9659988  56.5640012   3.5194997  22.8369988
  57.9430012   3.7944997  22.2769988  57.4237368   3.4045993  22.8551226
  72.2600012  18.2944997  24.9119988  72.9120012  17.9474997  24.3039988
  72.7700012  18.7834997  25.5579988  72.4182637  18.3130597  24.9160236
  57.4530012   2.0484997  31.3109988  56.7880012   1.8024997  31.9539988
  57.0100012   2.6704997  30.7329988  57.3020956   2.0988632  31.3209352
  59.6450012  15.2234997  35.4549988  58.8240012  15.3984997  34.9949988
  59.3920012  15.1504997  36.3759988  59.4986164  15.2375622  35.5164923
  62.5990012  16.1984997  31.7139988  62.1740012  17.0074997  31.4309988
  63.5030012  16.2834997  31.4119988  62.6630271  16.3208469  31.6343776
  66.9100012  17.5974997  34.6729988  67.0950012  17.2634997  35.5509988
  67.7560012  17.9064997  34.3509988  67.0497539  17.5936047  34.7495605
  69.2550012  18.8834997  33.9169988  69.9320012  18.2504997  33.6769988
  69.5770012  19.2844997  34.7239988  69.3911637  18.8511154  33.9932793
  74.1720012   1.4724997  32.9969988  73.3600012   1.7974997  32.6089988
  74.4050012   0.7124997  32.4639988  74.0923423   1.4142436  32.8718253
  60.0010012  19.4544997  31.7609988  59.2800012  19.8944997  31.3099988
  59.6350012  19.2034997  32.6099988  59.8529804  19.4807698  31.8139840
  62.4680012  19.0544997  30.7909988  61.6030012  19.1264997  31.1949988
  62.4130012  19.6014997  30.0069988  62.3422085  19.1382685  30.7403362
  67.1780012  18.9424997  29.9659988  66.7220012  19.4714997  29.3119988
  67.3410012  19.5454997  30.6919988  67.1375585  19.0964468  29.9745062
  69.5060012  17.8204997  30.9109988  68.6010012  17.9854997  30.6459988
  69.9350012  18.6734997  30.8459988  69.4400799  17.9584483  30.8659182
  72.1100012  19.3904997  31.2059988  71.9280012  20.3064997  30.9959988
  72.2870012  18.9804997  30.3599988  72.1090210  19.4604822  31.0627885
  59.4150012  18.0774997  28.6709988  59.3970012  17.6524997  29.5289988
  60.2200012  17.7594997  28.2629988  59.5213875  17.9763812  28.7331655
  61.5570012  16.7874997  27.3259988  61.3380012  15.8714997  27.4959988
  62.3810012  16.9274997  27.7919988  61.6384420  16.6810520  27.4122774
  64.0940012  17.2574997  28.1749988  64.3070012  16.3694997  27.8879988
  64.1580012  17.2234997  29.1289988  64.1318232  17.1313102  28.2647397
  67.6020012   2.9214997  27.3189988  66.9280012   2.2924997  27.5749988
  68.1660012   2.4374997  26.7159988  67.5859230   2.7698744  27.2725340
  72.7450012   1.0294997  27.4319988  73.3490012   1.5764997  26.9299988
  71.8750012   1.3484997  27.1919988  72.7101241   1.1475806  27.3307654
  74.4720012   2.1674997  25.7649988  75.0840012   1.6534997  25.2389988
  74.8540012   3.0454997  25.7889988  74.6074540   2.2157140  25.6961830
  59.9290012   1.5554997  25.1409988  59.1520012   1.3214997  24.6339988
  60.4590012   0.7584997  25.1499988  59.8942330   1.4156988  25.0727742
  58.7650012   1.3534997  20.9449988  59.2040012   1.9644997  20.3529988
  58.1320012   1.8914997  21.4189988  58.7394514   1.5099257  20.9280930
  64.5080012   1.4824997  24.9549988  65.3830012   1.8704997  24.9249988
  64.3720012   1.2674997  25.8769988  64.6093695   1.5065184  25.0756440
  70.0650012   1.5124997  26.6039988  70.1410012   1.6074997  25.6539988
  69.7900012   0.6044997  26.7329988  70.0382321   1.4027867  26.4915079
  71.4180012   1.5384997  22.2959988  70.7160012   2.1534997  22.0869988
  70.9740012   0.7004997  22.4269988  71.2616330   1.5095783  22.2850328
  58.6660012  17.3014997  21.8429988  57.9810012  17.2634997  21.1749988
  58.6700012  18.2144997  22.1309988  58.5728193  17.4197016  21.7905284
  60.6260012   3.2694997  19.3869988  61.1180012   2.6394997  18.8599988
  61.2500012   3.5654997  20.0509988  60.7775446   3.2233199  19.4045980
  65.6520012   3.5624997  21.8439988  65.8300012   2.9164997  22.5269988
  65.5990012   4.3964997  22.3119988  65.6691829   3.5867985  22.0005940
  67.5310012  18.5114997  20.2399988  68.3970012  18.8774997  20.0619988
  67.2840012  18.0714997  19.4259988  67.6162392  18.5021756  20.1056289
  74.2400012  18.0744997  22.9189988  74.0450012  17.3264997  22.3539988
  74.2010012  18.8324997  22.3359988  74.2080380  18.0746099  22.7628384
  59.8870012   2.0694997  34.6589988  59.5210012   1.3044997  35.1019988
  60.8000012   2.0984997  34.9459988  59.9602790   1.9687224  34.7584070
  61.8600012   1.4204997  36.1949988  62.7580012   1.1464997  36.0099988
  61.4730012   0.6774997  36.6589988  61.9306612   1.2825914  36.2323643
  60.4840012  18.2214997  18.8679988  60.2170012  18.5084997  19.7409988
  61.2560012  17.6754997  19.0199988  60.5517488  18.1870294  19.0081050
  70.2810012   0.7524997  36.3769988  70.3580012   0.3264997  37.2309988
  71.1750012   0.7664997  36.0339988  70.4123428   0.6960879  36.4475310
  73.4570012  16.8254997  35.0689988  72.6750012  16.6394997  34.5499988
  73.3850012  17.7544997  35.2869988  73.3401777  16.9256492  35.0274048
  87.8630012  10.7114997  25.0999988  87.9520012  11.6554997  24.9679988
  87.2250012  10.4364997  24.4419988  87.7889081  10.8034830  24.9929614
  86.7960012   9.9664997  28.5189988  86.7580012   9.3204997  29.2239988
  86.4740012   9.5004997  27.7479988  86.7472333   9.8149408  28.5112978
  79.1650012   9.5814997  30.1119988  79.2060012   8.9554997  30.8349988
  79.8680012  10.2054997  30.2939988  79.2656363   9.5801196  30.2356044
  90.5020012  12.9054997  26.8199988  90.0620012  12.1854997  27.2709988
  90.4890012  13.6264997  27.4499988  90.4400226  12.9043731  26.9668494
  80.0880012  14.0314997  28.6469988  79.7190012  13.2294997  28.2769988
  81.0290012  13.8624997  28.6929988  80.1647289  13.8990153  28.6026316
  76.6980012   7.6914997  24.0399988  76.2510012   8.5374997  24.0209988
  76.1370012   7.1114997  23.5239988  76.5609900   7.7289916  23.9676801
  77.4090012   9.8534997  26.1659988  77.6220012   9.0834997  26.6929988
  78.1470012   9.9424997  25.5619988  77.5378496   9.7601394  26.1565300
  87.6140012  18.0104997  27.0329988  88.2340012  17.3334997  26.7589988
  87.4060012  17.7924997  27.9409988  87.6706904  17.8883870  27.1183365
  85.1860012  12.3994997  28.9249988  85.4900012  11.7134997  28.3299988
  85.9070012  12.5174997  29.5429988  85.3250671  12.3216305  28.9271816
  93.8490012   4.0004997  29.7859988  93.8980012   4.6104997  30.5219988
  94.2740012   4.4614997  29.0629988  93.9131824   4.1463741  29.7890205
  88.3270012   6.7934997  29.2529988  88.4690012   5.8474997  29.2729988
  88.2200012   7.0004997  28.3239988  88.3319864   6.6919534  29.1302339
  81.4810012   4.8944997  26.5249988  81.5250012   5.7544997  26.1069988
  81.0240012   4.3424997  25.8909988  81.4252185   4.9375799  26.3820299
  89.2040012   5.0254997  24.9259988  89.8500012   4.6964997  25.5509988
  89.7140012   5.5434997  24.3029988  89.3614264   5.0504611  24.9273862
  78.1020012   7.2914997  27.2869988  78.7550012   6.7414997  27.7189988
  78.1260012   7.0174997  26.3699988  78.1946683   7.1791466  27.2222123
  83.2580012   8.8414997  26.5019988  83.8740012   8.3154997  27.0119988
  82.6720012   8.2014997  26.0989988  83.2630810   8.6829208  26.5173173
  94.2400012   5.4784997  32.0219988  93.5520012   6.1364997  31.9259988
  94.2560012   5.2814997  32.9579988  94.1478525   5.5420462  32.1354808
  80.2920012   3.8124997  30.5989988  80.0730012   4.3424997  29.8329988
  79.6240012   4.0394997  31.2459988  80.1717600   3.9156906  30.5816379
  87.6610012  13.3124997  24.1429988  87.3650012  12.9904997  23.2919988
  87.3360012  14.2124997  24.1839988  87.5766371  13.3900215  24.0321801
  82.8610012  11.4884997  30.8859988  82.1210012  12.0864997  30.9899988
  83.5750012  12.0424997  30.5709988  82.8562237  11.6452831  30.8576465
  90.9680012   4.3164997  26.9059988  90.7520012   3.5504997  27.4389988
  91.6230012   4.7884997  27.4189988  91.0270632   4.2755889  27.0482861
  79.8850012   5.7044997  28.5509988  80.4990012   6.3374997  28.9249988
  80.3970012   5.2324997  27.8949988  80.0382296   5.7272370  28.5134252
  81.2680012  13.4524997  31.6739988  81.2630012  14.3324997  31.2959988
  80.4150012  13.3694997  32.0989988  81.1519464  13.5616117  31.6797907
  77.3890012  13.1234997  22.4559988  77.1170012  13.3524997  21.5669988
  77.4350012  13.9614997  22.9159988  77.3580094  13.2681213  22.3965697
  91.0140012  14.7454997  29.1679988  90.0730012  14.8034997  29.3299988
  91.2910012  15.6514997  29.0309988  90.9224679  14.8759443  29.1716815
  91.3150012   3.0314997  30.5859988  90.5790012   3.6424997  30.5479988
  91.9980012   3.4464997  30.0589988  91.3066541   3.1711374  30.5095832
  84.3180012   1.1184997  28.0519988  84.2010012   0.1694997  27.9969988
  83.4630012   1.4504997  28.3249988  84.1863733   1.0335409  28.0813897
  89.2660012  16.5264997  25.7939988  89.6920012  15.8194997  25.3089988
  89.5830012  17.3274997  25.3769988  89.3671019  16.5380994  25.6713130
  90.4260012  14.4274997  24.3019988  90.1680012  13.7374997  23.6909988
  90.4970012  13.9844997  25.1479988  90.4002856  14.2732124  24.3326885
  92.1120012  12.9934997  32.7799988  92.2520012  12.4024997  32.0399988
  92.2790012  13.8664997  32.4229988  92.1536778  13.0306426  32.6306965
  86.5850012   9.9554997  22.5519988  85.8730012  10.4904997  22.1999988
  87.2760012  10.0114997  21.8919988  86.5810132  10.0362543  22.4146289
  86.6380012   8.4134997  19.5909988  87.3390012   8.4354997  20.2419988
  86.9410012   7.7854997  18.9349988  86.7747830   8.3316566  19.5913711
  93.9540012   9.3334997  30.8459988  93.3010012  10.0284997  30.9349988
  94.4190012   9.5434997  30.0359988  93.9275390   9.4569425  30.7486883
  89.9900012  10.1654997  23.5039988  89.2580012  10.3934997  24.0769988
  90.4380012   9.4514997  23.9589988  89.9503095  10.1002571  23.6439119
  89.8880012   8.3394997  32.5709988  89.9680012   9.1024997  33.1429988
  89.2860012   8.6184997  31.8809988  89.8175756   8.4817134  32.5560589
  81.6360012  10.7954997  25.3859988  81.3050012  10.4254997  24.5679988
  82.2240012  10.1254997  25.7329988  81.6701873  10.6541156  25.3208102
  83.0020012  14.2234997  28.0679988  82.9080012  13.6454997  27.3109988
  83.7320012  13.8524997  28.5639988  83.0877981  14.0942390  28.0314165
  82.0020012   9.5644997  29.0199988  82.5680012   9.6854997  28.2569988
  82.3210012  10.2014997  29.6589988  82.1225786   9.6671884  29.0020040
  88.3110012  15.0674997  29.7539988  88.0710012  15.7294997  30.4019988
  88.1130012  14.2334997  30.1789988  88.2513808  15.0453134  29.9001524
  82.8820012  13.9634997  33.7369988  82.5710012  14.7454997  34.1919988
  82.2320012  13.8104997  33.0509988  82.7515558  14.0499105  33.7065871
  88.8610012   9.3274997  21.1889988  89.4410012   9.4774997  21.9359988
  89.2750012   9.7984997  20.4659988  88.9962830   9.4116841  21.1934134
  79.8020012  10.1614997  32.9659988  79.8730012  10.8124997  33.6639988
  78.9120012  10.2644997  32.6309988  79.6913117  10.2645936  33.0162700
  86.5880012  16.0644997  24.6239988  87.0620012  16.3594997  25.4019988
  86.0250012  16.8024997  24.3909988  86.5767653  16.2046932  24.6990136
  81.1220012  16.0354997  34.4999988  81.1290012  15.8994997  33.5529988
  80.2060012  15.9174997  34.7519988  80.9991714  16.0009430  34.4044666
  92.5600012   1.0774997  21.0019988  91.6600012   1.2164997  21.2969988
  92.8120012   1.9084997  20.5999988  92.4708702   1.2089074  20.9880205
  80.6260012   9.8654997  22.9759988  80.3340012  10.6334997  22.4849988
  79.9520012   9.2054997  22.8129988  80.4949081   9.8814406  22.8867340
  93.7490012  15.4434997  19.3779988  93.8230012  16.3824997  19.5489988
  94.6550012  15.1384997  19.3219988  93.8815100  15.5306722  19.3938119
  76.7190012  12.2284997  31.7909988  76.2180012  12.2004997  30.9759988
  76.7240012  11.3224997  32.0999988  76.6511526  12.1022278  31.7212872
  76.4690012  15.0084997  28.6749988  77.4150012  14.8644997  28.6559988
  76.3570012  15.7924997  29.2119988  76.5832727  15.0948046  28.7450072
  94.6670012  15.6744997  34.3569988  94.6180012  14.7194997  34.3199988
  93.8400012  15.9424997  34.7579988  94.5484940  15.5798998  34.4061375
  85.6460012  15.2484997  33.2329988  85.7330012  16.0744997  33.7079988
  84.7820012  14.9184997  33.4819988  85.5411964  15.3169878  33.3316549
  86.0600012  19.0204997  23.0389988  85.9850012  18.8994997  22.0929988
  86.0930012  19.9704997  23.1579988  86.0541848  19.1322500  22.9254834
  79.7130012  17.8094997  24.8199988  79.8660012  17.4614997  25.6989988
  78.8630012  17.4534997  24.5649988  79.6188962  17.7136650  24.9058340
  89.1620012  18.1744997  20.0409988  89.5370012  17.4304997  19.5709988
  89.1660012  17.9044997  20.9599988  89.2138915  18.0361486  20.1007824
  88.8310012  18.1004997  22.7909988  87.8950012  18.2004997  22.9689988
  89.1110012  17.3914997  23.3689988  88.7408255  18.0182711  22.8935391
  91.8190012   7.1674997  34.8369988  91.4120012   7.6484997  34.1159988
  91.8600012   6.2624997  34.5289988  91.7688437   7.1109374  34.6966683
  78.9680012  13.5514997  32.8339988  79.1840012  13.1904997  33.6929988
  78.1130012  13.1774997  32.6239988  78.8819292  13.4514111  32.9233386
  81.5870012   2.0214997  28.8289988  80.7250012   1.9344997  28.4219988
  81.5640012   2.8774997  29.2569988  81.4660330   2.1252765  28.8311863
  86.2500012   1.7434997  32.2039988  86.6700012   1.3284997  32.9569988
  85.3170012   1.5654997  32.3209988  86.1813644   1.6625900  32.3229539
  89.5760012   5.4994997  33.0569988  89.0620012   5.3734997  33.8549988
  89.4210012   6.4114997  32.8129988  89.4846852   5.6056132  33.1332158
  90.3390012  10.3604997  18.8189988  90.3810012  10.1374997  17.8889988
  91.1880012  10.7594997  19.0089988  90.4595396  10.3839155  18.7173627
  85.9110012   4.2364997  19.4889988  85.6580012   4.2554997  20.4119988
  85.6550012   3.3644997  19.1879988  85.8417790   4.1212437  19.5746263
  81.6780012   6.9874997  29.9239988  81.0360012   6.9464997  30.6329988
  81.7150012   7.9134997  29.6869988  81.5951324   7.1071559  29.9889824
  81.6750012   7.2084997  24.8359988  80.7820012   6.8674997  24.7779988
  82.1250012   6.8314997  24.0809988  81.6137305   7.1108484  24.7259177
  87.2100012   7.6244997  23.6529988  86.8010012   8.4394997  23.3619988
  87.9310012   7.4844997  23.0389988  87.2514537   7.7172018  23.5301342
  86.3120012   7.7994997  35.1409988  85.7500012   7.0954997  35.4619988
  87.1390012   7.6794997  35.6089988  86.3467095   7.6867883  35.2482330
  88.2150012   7.0704997  26.4669988  88.0200012   7.6754997  25.7519988
  88.3960012   6.2364997  26.0329988  88.2127614   7.0406300  26.3104405
  79.4280012   7.3074997  31.7909988  79.3900012   7.7074997  32.6599988
  78.9370012   6.4904997  31.8819988  79.3564684   7.2518069  31.9221059
  82.7940012   4.6814997  18.5899988  82.3630012   4.2364997  19.3199988
  82.0760012   5.0534997  18.0779988  82.6379438   4.6708940  18.6206799
  76.0360012   4.4234997  25.6419988  76.6670012   4.3944997  26.3609988
  76.4850012   3.9984997  24.9119988  76.1830774   4.3620492  25.6416553
  77.3100012   5.1694997  21.0659988  77.7840012   5.7604997  20.4809988
  76.5930012   5.7004997  21.4129988  77.2779341   5.3220867  21.0328836
  87.4790012   8.7084997  31.1389988  87.8020012   8.0774997  30.4959988
  87.0390012   8.1734997  31.7989988  87.4636895   8.5498441  31.1402850
  84.2560012   4.6354997  25.9229988  83.3450012   4.6924997  26.2109988
  84.7620012   4.5754997  26.7329988  84.1995413   4.6351985  26.0720622
  79.0850012   6.2644997  24.7489988  78.1950012   6.3644997  24.4089988
  79.3810012   5.4224997  24.4029988  79.0032823   6.1643545  24.6557213
  82.7380012   6.2644997  22.4059988  83.6690012   6.3934997  22.5839988
  82.5230012   6.9344997  21.7559988  82.8364247   6.3726565  22.3425747
  88.6610012   3.8704997  29.1869988  87.9850012   4.0014997  29.8509988
  88.1760012   3.7154997  28.3769988  88.5027145   3.8674905  29.1684517
  81.4120012   7.4594997  19.9729988  80.8690012   7.0794997  19.2809988
  82.2450012   7.6534997  19.5439988  81.4504399   7.4338124  19.8204526
  91.9490012  19.5424997  35.4639988  92.1490012  19.9664997  34.6289988
  92.6040012  19.8854997  36.0709988  92.0650051  19.6469648  35.4317836
  79.5470012  12.0164997  35.0719988  80.2790012  12.2704997  35.6329988
  78.7670012  12.2204997  35.5869988  79.5418232  12.0789177  35.2185760
  85.5760012   7.4234997  27.8099988  86.1410012   6.8764997  27.2629988
  85.4290012   6.9014997  28.5979988  85.6332918   7.2782024  27.8418454
  80.5780012   3.5594997  24.2279988  80.2610012   2.6574997  24.1929988
  81.3600012   3.5614997  23.6749988  80.6402284   3.4361628  24.1484783
  84.2030012   5.8114997  30.2239988  83.3670012   6.2654997  30.3339988
  84.7270012   6.0874997  30.9759988  84.1594414   5.9109376  30.3407136
  84.7470012  12.0244997  21.9079988  84.0020012  11.5174997  21.5859988
  84.6130012  12.0734997  22.8549988  84.6268776  11.9616940  21.9918647
  91.8970012  11.1574997  30.6949988  92.5390012  11.6144997  30.1509988
  91.0670012  11.2704997  30.2319988  91.8725963  11.2352704  30.5580177
  88.6450012   4.8384997  20.1079988  87.7060012   4.9504997  19.9559988
  88.9420012   5.6954997  20.4139988  88.5567666   4.9696443  20.1285768
  86.2660012  12.2084997  33.1449988  85.9210012  11.8274997  33.9519988
  86.0660012  13.1424997  33.2169988  86.1918061  12.2825228  33.2650961
  89.3630012   6.7054997  21.7679988  90.2550012   6.5684997  22.0869988
  89.4200012   7.4964997  21.2319988  89.4926285   6.7936660  21.7391691
  79.8720012  11.3194997  27.6779988  80.6170012  11.3174997  27.0769988
  79.9500012  10.4964997  28.1599988  79.9845518  11.2079315  27.6608929
  86.8730012  13.4834997  20.9339988  86.5770012  14.3094997  21.3149988
  86.1700012  12.8634997  21.1299988  86.7374914  13.5128199  21.0126443
  76.8800012   9.7804997  32.9929988  77.1030012   9.3624997  33.8249988
  76.2780012   9.1674997  32.5699988  76.8291759   9.6404668  33.0497022
  83.8960012   9.2974997  35.2059988  83.6000012   9.1314997  34.3109988
  84.8280012   9.0774997  35.1949988  83.9814166   9.2450640  35.0820536
  88.5170012  14.6704997  33.0959988  87.6160012  14.8534997  32.8279988
  88.5510012  14.9294997  34.0169988  88.3983041  14.7305512  33.1838197
  94.2480012   6.9154997  21.4629988  93.6940012   6.5194997  20.7909988
  94.3480012   7.8254997  21.1849988  94.1857059   6.9843586  21.3334401
  94.2110012  12.7154997  34.2999988  93.3600012  12.9534997  33.9329988
  94.8020012  12.6984997  33.5469988  94.1742487  12.7458258  34.1478893
  92.5430012  15.7014997  21.9279988  92.1700012  14.8754997  22.2369988
  92.8210012  15.5184997  21.0309988  92.5295630  15.5637303  21.8489626
  89.7040012  10.5094997  28.9489988  88.7750012  10.2774997  28.9219988
  90.1550012   9.7324997  28.6189988  89.6379216  10.3727238  28.9006917
  82.2470012  14.8374997  25.0819988  82.7740012  15.6104997  24.8819988
  81.3670012  15.0624997  24.7809988  82.2001773  14.9738005  25.0139010
  78.0020012   9.6994997  19.6689988  78.6180012  10.3264997  20.0489988
  77.1400012  10.0154997  19.9409988  77.9697698   9.8279430  19.7577183
  83.6740012  12.5004997  24.6589988  83.4330012  13.4254997  24.6999988
  82.9330012  12.0414997  25.0549988  83.5408409  12.5651421  24.7181377
  84.1890012  16.6494997  30.9739988  84.5510012  17.5044997  30.7399988
  84.7200012  16.3574997  31.7139988  84.3104473  16.7271060  31.0420855
  82.3570012  17.5224997  24.2039988  81.4070012  17.6274997  24.2549988
  82.7090012  18.3424997  24.5489988  82.2744203  17.6478314  24.2576650
  87.7330012  12.7484997  30.6739988  87.3070012  12.5214997  31.5009988
  88.3130012  12.0104997  30.4919988  87.7531868  12.6175299  30.7625830
  89.9360012  13.6774997  19.7479988  90.2890012  13.2974997  20.5529988
  88.9870012  13.5844997  19.8349988  89.8560441  13.6129596  19.8698559
  90.3910012  17.3004997  33.1439988  89.7900012  16.7454997  32.6479988
  90.6730012  17.9674997  32.5179988  90.3468519  17.3146841  32.9914952
  94.4390012  18.1574997  19.9489988  95.1830012  18.7434997  19.8089988
  93.7450012  18.7254997  20.2829988  94.4470292  18.3145582  19.9749961
  78.5140012   4.5334997  32.5509988  77.6210012   4.8724997  32.4829988
  78.4150012   3.6784997  32.9689988  78.3784164   4.4642588  32.5982235
  90.8020012  12.3504997  21.9749988  90.5240012  11.6224997  22.5309988
  91.7290012  12.4694997  22.1799988  90.8893124  12.2668802  22.0788845
  78.1650012  16.3384997  30.9859988  78.3820012  15.4064997  30.9549988
  78.4110012  16.6124997  31.8689988  78.2279549  16.2480636  31.1011763
  84.0270012  14.7894997  18.1949988  84.2660012  14.0414997  17.6479988
  83.7580012  14.4014997  19.0279988  84.0233675  14.6346638  18.2326865
  82.9640012  14.3594997  20.6519988  83.1100012  13.8394997  21.4419988
  82.9610012  15.2664997  20.9579988  82.9835989  14.4108853  20.8016088
  79.4170012  11.6124997  21.1619988  78.7310012  11.9644997  21.7289988
  79.9390012  12.3754997  20.9149988  79.3936852  11.7638578  21.2062118
  87.2480012   4.2744997  31.4409988  87.9470012   4.3484997  32.0909988
  86.8670012   3.4104997  31.5949988  87.2921767   4.1677624  31.5508322
  88.0330012   3.9264997  22.5379988  88.2530012   4.3984997  21.7349988
  88.5910012   4.3214997  23.2079988  88.1384968   4.0444285  22.5187331
  85.7010012  16.0574997  21.4009988  84.8850012  16.5544997  21.4529988
  86.2310012  16.5324997  20.7609988  85.6609161  16.1897722  21.3215956
  85.2330012   5.6544997  23.3729988  86.0450012   6.1594997  23.4189988
  84.9880012   5.5094997  24.2869988  85.3110520   5.7040375  23.5028517
  85.7680012   6.6404997  32.5579988  85.8870012   7.2144997  33.3149988
  86.4240012   5.9524997  32.6719988  85.8729757   6.6261079  32.6770825
  86.1160012   2.7354997  24.3109988  85.7700012   3.3534997  24.9559988
  86.7750012   3.2364997  23.8299988  86.1577826   2.8875802  24.3340971
  83.0400012  17.1014997  21.3829988  83.2000012  17.9004997  20.8819988
  82.8420012  17.4074997  22.2679988  83.0351649  17.2524469  21.4339815
  81.7740012   3.7984997  20.9979988  81.6910012   4.6874997  21.3449988
  82.6640012   3.5334997  21.2299988  81.8829469   3.8841430  21.0767626
  91.9730012   4.5474997  33.3929988  91.0560012   4.8104997  33.3049988
  92.3080012   4.5444997  32.4959988  91.8929900   4.5830224  33.2597919
  90.5750012   8.2984997  27.4879988  89.7770012   7.8834997  27.1599988
  91.0200012   7.6074997  27.9789988  90.5259885   8.1483543  27.5094889
  80.0330012  14.2264997  20.0589988  80.6250012  14.9254997  20.3349988
  80.4920012  13.7934997  19.3389988  80.1761142  14.2637049  19.9994830
  78.3490012   6.8904997  19.1749988  78.3040012   7.8294997  19.3529988
  77.4610012   6.6544997  18.9049988  78.2228574   6.9871892  19.1628912
  91.6610012  17.5544997  29.1109988  91.5060012  18.2324997  28.4539988
  92.5940012  17.6264997  29.3139988  91.7658500  17.6570170  29.0485119
  79.1570012   1.6724997  27.8479988  78.9280012   1.7314997  26.9199988
  78.7140012   0.8804997  28.1539988  79.0658530   1.5735753  27.7624786
  78.0870012  15.6124997  24.0079988  77.2550012  16.0854997  24.0359988
  78.6330012  16.1224997  23.4099988  78.0469739  15.7461871  23.9309716
  77.3750012  18.2254997  35.3379988  77.9160012  18.0084997  36.0979988
  76.8940012  17.4194997  35.1489988  77.3839345  18.0869514  35.4163076
  81.9730012  17.1444997  36.9589988  82.7400012  16.6854997  37.2999988
  81.9510012  16.9184997  36.0289988  82.0751434  17.0510409  36.8800043
  86.0650012  16.6524997  18.3339988  85.4210012  16.0214997  18.6549988
  86.8270012  16.1214997  18.1019988  86.0798077  16.4942920  18.3466011
  88.5500012  15.5244997  35.6879988  88.1990012  14.6684997  35.9309988
  89.2760012  15.6674997  36.2949988  88.6000769  15.4265636  35.8033619
  90.6690012  16.4694997  18.5679988  90.9520012  15.6754997  19.0199988
  91.4090012  16.7024997  18.0069988  90.8077486  16.3922803  18.5540698
  77.2820012  12.0354997  36.2929988  77.4260012  11.1334997  36.0059988
  76.5100012  12.3214997  35.8049988  77.1973322  11.9508261  36.1877881
  81.6240012  12.3794997  18.4249988  81.6880012  11.5854997  18.9559988
  82.2770012  12.2604997  17.7349988  81.7210241  12.2547148  18.4044317
  83.9380012  12.0054997  35.7249988  83.6090012  12.2764997  34.8679988
  84.0900012  11.0644997  35.6379988  83.9134809  11.9153862  35.5958244
  86.9760012  13.4264997  18.1609988  86.7070012  13.6064997  19.0619988
  86.7700012  12.5004997  18.0299988  86.9113825  13.3260152  18.2665214
  89.6720012  11.9214997  33.1089988  90.4180012  12.5094997  32.9889988
  88.9150012  12.5034997  33.1719988  89.6717554  12.0807011  33.1010907
  78.1150012   9.2354997  35.7129988  78.5230012   8.3784997  35.5919988
  77.8550012   9.2504997  36.6339988  78.1357568   9.1200807  35.8209588
  82.7730012  10.3514997  20.7309988  82.3130012   9.8674997  21.4169988
  83.0280012   9.6834997  20.0949988  82.7444902  10.1948731  20.7389334
  82.0620012   8.2444997  33.0869988  81.4440012   8.9194997  33.3669988
  82.4060012   8.5654997  32.2539988  82.0239615   8.3802721  33.0126581
  83.8440012   8.5944997  18.9929988  83.6640012   8.4404997  18.0659988
  84.7940012   8.7024997  19.0379988  83.9477776   8.5880175  18.8721843
  87.0820012  10.7164997  36.3639988  88.0350012  10.7994997  36.3369988
  86.9210012  10.0044997  36.9839988  87.1906426  10.6316746  36.4440579
  93.2340012  10.9494997  18.4389988  92.9600012  10.5244997  17.6259988
  93.2730012  11.8804997  18.2219988  93.2017699  11.0172484  18.2983610
  82.4010012   5.5994997  34.1689988  82.5510012   4.8704997  33.5669988
  82.4040012   6.3764997  33.6099988  82.4219302   5.6047851  34.0110692
  82.8140012   3.9694997  31.6619988  83.3500012   4.4204997  31.0099988
  81.9620012   3.8614997  31.2389988  82.7722178   4.0166390  31.5155756
  84.3960012   9.4084997  31.9009988  85.1460012   9.2524997  31.3279988
  84.0570012  10.2604997  31.6259988  84.4528921   9.5022968  31.7853561
  88.8110012   7.2234997  36.9299988  89.0040012   6.2924997  36.8179988
  89.6690012   7.6484997  36.9199988  88.9533020   7.1536389  36.9133361
  90.1280012  10.0124997  35.0069988  89.8470012  10.7214997  34.4299988
  91.0710012   9.9394997  34.8559988  90.2169027  10.0997646  34.9075551
  80.8800012   6.7974997  36.0809988  80.1130012   6.2654997  35.8709988
  81.5590012   6.4874997  35.4809988  80.8667022   6.6827506  35.9711648
  83.6200012   1.4254997  32.0929988  83.5210012   2.3724997  31.9879988
  82.8770012   1.0534997  31.6179988  83.5060564   1.5045902  32.0144560
  84.8840012   5.7474997  35.6569988  84.6480012   5.5274997  36.5589988
  84.1000012   5.5404997  35.1469988  84.7458628   5.6894760  35.7113932
  87.5990012   4.8744997  34.7329988  86.6520012   4.9064997  34.8649988
  87.9120012   4.2494997  35.3859988  87.5115475   4.7943207  34.8394455
  89.2330012   3.5084997  36.7379988  89.1370012   2.5564997  36.7319988
  88.9120012   3.7774997  37.5979988  89.1764070   3.4144035  36.8535441
  79.0600012   4.7184997  35.7849988  79.2720012   4.0114997  35.1749988
  78.9490012   4.2804997  36.6289988  79.0739721   4.5627084  35.8156843
  83.8410012   0.7194997  34.7649988  84.5530012   0.0794997  34.7509988
  83.7400012   0.9864997  33.8509988  83.9247939   0.6679938  34.6395650
  84.1950012   2.4024997  36.8179988  84.0630012   1.9264997  35.9979988
  83.5960012   3.1464997  36.7629988  84.0959071   2.4379618  36.6982886
  83.7410012  19.2854997  19.9949988  84.6740012  19.4434997  20.1379988
  83.4770012  19.9604997  19.3699988  83.8329510  19.3983611  19.9300741
  77.3100012  13.9214997  19.4769988  78.2240012  14.0004997  19.7509988
  77.3170012  13.2344997  18.8109988  77.4361131  13.8393961  19.4244393
  75.9590012  19.3144997  24.5549988  75.3120012  18.8524997  24.0219988
  76.3130012  18.6424997  25.1369988  75.9183849  19.1604723  24.5607959
  76.8290012  17.3954997  26.3589988  76.4940012  16.5154997  26.5309988
  77.0510012  17.7404997  27.2239988  76.8131783  17.3217500  26.4994208
  94.3770012  18.2044997  29.3399988  94.3560012  18.3894997  30.2789988
  95.0680012  18.7734997  28.9989988  94.4674618  18.3066606  29.4223864
  93.9410012  17.7724997  32.2619988  93.4530012  17.0364997  31.8909988
  94.4900012  17.3784997  32.9399988  93.9484872  17.6186249  32.3029160
  92.3910012  13.5614997  36.8999988  91.5250012  13.4564997  37.2939988
  92.7680012  14.3204997  37.3459988  92.3233308  13.6496900  37.0142393
  93.6920012  11.8184997  22.4139988  94.5420012  12.2394997  22.5409988
  93.6980012  11.0784997  23.0209988  93.8091372  11.7760803  22.5134344
  94.0870012   9.8714997  24.2379988  93.3600012   9.3924997  24.6349988
  94.6680012  10.0774997  24.9699988  94.0659375   9.8337090  24.3914129
  93.8460012  12.6564997  29.1849988  94.6790012  12.2784997  28.9049988
  93.9580012  13.5994997  29.0659988  93.9752647  12.7322218  29.1305487
  92.3320012  15.5344997  31.4919988  91.6850012  15.8594997  32.1179988
  91.8150012  15.0944997  30.8179988  92.1734029  15.5195004  31.4865827
  94.3550012   9.7724997  20.6289988  93.8330012  10.1294997  19.9099988
  94.3220012  10.4474997  21.3069988  94.2791634   9.9125413  20.6223145
  92.7040012   7.0124997  19.1799988  92.8000012   7.6794997  18.4989988
  92.5640012   6.1964997  18.6979988  92.6982135   6.9934500  19.0218491
  91.8730012   8.3924997  24.8009988  91.7230012   7.4474997  24.7799988
  91.5200012   8.6734997  25.6439988  91.8046625   8.3010441  24.9122346
  76.9090012  10.4704997  28.8109988  77.0930012  10.3884997  27.8749988
  77.7580012  10.3464997  29.2349988  77.0490139  10.4425003  28.7401455
  92.7300012  10.3624997  34.4389988  93.3130012   9.6284997  34.6309988
  93.2940012  11.1344997  34.4859988  92.8859769  10.3664227  34.4716159
  94.2260012   8.2654997  35.1239988  93.3630012   7.8864997  34.9579988
  94.8310012   7.5264997  35.0499988  94.1895979   8.1138023  35.0912817
  91.9510012   4.4204997  18.2969988  92.5620012   4.0494997  18.9339988
  91.1150012   3.9994997  18.4929988  91.9215032   4.3127554  18.4107035
  91.5840012   5.9754997  23.2629988  91.8640012   5.0684997  23.3869988
  92.3430012   6.4094997  22.8739988  91.7249277   5.9100942  23.2273682
  92.1960012   6.5564997  28.6989988  93.1290012   6.7684997  28.6649988
  91.9610012   6.6584997  29.6209988  92.2918036   6.5992769  28.8189976
  92.2250012   7.2934997  31.4749988  91.3820012   7.5614997  31.8409988
  92.6670012   8.1154997  31.2639988  92.1694158   7.4413291  31.4965491
  76.5060012   5.7414997  34.9519988  77.4260012   5.6194997  35.1879988
  76.0570012   4.9914997  35.3409988  76.5711580   5.6233727  35.0369006
  94.5080012   1.2734997  36.8279988  94.8580012   0.6194997  36.2229988
  94.6550012   2.1104997  36.3889988  94.5758419   1.2971591  36.6857118
  92.1970012   3.2384997  23.3109988  92.3800012   2.7894997  24.1369988
  91.5980012   2.6534997  22.8479988  92.1410202   3.0979975  23.3613275
  77.7270012   4.0534997  27.8429988  78.1730012   3.2614997  28.1449988
  78.1940012   4.7694997  28.2739988  77.8510172   4.0420624  27.9424820
  76.0310012   7.0524997  28.9119988  76.5230012   6.8314997  28.1209988
  76.3940012   7.8934997  29.1929988  76.1473126   7.1358357  28.8417531
  94.0280012   3.3824997  35.1779988  93.1100012   3.6534997  35.1419988
  94.1510012   2.8474997  34.3929988  93.9191066   3.3472892  35.0670487
  94.0640012   3.3054997  19.8389988  94.4760012   2.5844997  19.3639988
  94.7460012   3.9754997  19.8979988  94.2125885   3.2972368  19.7818915
  76.3450012   3.3104997  22.9659988  75.4200012   3.5194997  22.8369988
  76.7990012   3.7944997  22.2769988  76.2797368   3.4045993  22.8551226
  91.1160012  18.2944997  24.9119988  91.7680012  17.9474997  24.3039988
  91.6260012  18.7834997  25.5579988  91.2742637  18.3130597  24.9160236
  76.3090012   2.0484997  31.3109988  75.6440012   1.8024997  31.9539988
  75.8660012   2.6704997  30.7329988  76.1580956   2.0988632  31.3209352
  78.5010012  15.2234997  35.4549988  77.6800012  15.3984997  34.9949988
  78.2480012  15.1504997  36.3759988  78.3546164  15.2375622  35.5164923
  81.4550012  16.1984997  31.7139988  81.0300012  17.0074997  31.4309988
  82.3590012  16.2834997  31.4119988  81.5190271  16.3208469  31.6343776
  85.7660012  17.5974997  34.6729988  85.9510012  17.2634997  35.5509988
  86.6120012  17.9064997  34.3509988  85.9057539  17.5936047  34.7495605
  88.1110012  18.8834997  33.9169988  88.7880012  18.2504997  33.6769988
  88.4330012  19.2844997  34.7239988  88.2471637  18.8511154  33.9932793
  93.0280012   1.4724997  32.9969988  92.2160012   1.7974997  32.6089988
  93.2610012   0.7124997  32.4639988  92.9483423   1.4142436  32.8718253
  78.8570012  19.4544997  31.7609988  78.1360012  19.8944997  31.3099988
  78.4910012  19.2034997  32.6099988  78.7089804  19.4807698  31.8139840
  81.3240012  19.0544997  30.7909988  80.4590012  19.1264997  31.1949988
  81.2690012  19.6014997  30.0069988  81.1982085  19.1382685  30.7403362
  86.0340012  18.9424997  29.9659988  85.5780012  19.4714997  29.3119988
  86.1970012  19.5454997  30.6919988  85.9935585  19.0964468  29.9745062
  88.3620012  17.8204997  30.9109988  87.4570012  17.9854997  30.6459988
  88.7910012  18.6734997  30.8459988  88.2960799  17.9584483  30.8659182
  90.9660012  19.3904997  31.2059988  90.7840012  20.3064997  30.9959988
  91.1430012  18.9804997  30.3599988  90.9650210  19.4604822  31.0627885
  78.2710012  18.0774997  28.6709988  78.2530012  17.6524997  29.5289988
  79.0760012  17.7594997  28.2629988  78.3773875  17.9763812  28.7331655
  80.4130012  16.7874997  27.3259988  80.1940012  15.8714997  27.4959988
  81.2370012  16.9274997  27.7919988  80.4944420  16.6810520  27.4122774
  82.9500012  17.2574997  28.1749988  83.1630012  16.3694997  27.8879988
  83.0140012  17.2234997  29.1289988  82.9878232  17.1313102  28.2647397
  86.4580012   2.9214997  27.3189988  85.7840012   2.2924997  27.5749988
  87.0220012   2.4374997  26.7159988  86.4419230   2.7698744  27.2725340
  91.6010012   1.0294997  27.4319988  92.2050012   1.5764997  26.9299988
  90.7310012   1.3484997  27.1919988  91.5661241   1.1475806  27.3307654
  93.3280012   2.1674997  25.7649988  93.9400012   1.6534997  25.2389988
  93.7100012   3.0454997  25.7889988  93.4634540   2.2157140  25.6961830
  78.7850012   1.5554997  25.1409988  78.0080012   1.3214997  24.6339988
  79.3150012   0.7584997  25.1499988  78.7502330   1.4156988  25.0727742
  77.6210012   1.3534997  20.9449988  78.0600012   1.9644997  20.3529988
  76.9880012   1.8914997  21.4189988  77.5954514   1.5099257  20.9280930
  83.3640012   1.4824997  24.9549988  84.2390012   1.8704997  24.9249988
  83.2280012   1.2674997  25.8769988  83.4653695   1.5065184  25.0756440
  88.9210012   1.5124997  26.6039988  88.9970012   1.6074997  25.6539988
  88.6460012   0.6044997  26.7329988  88.8942321   1.4027867  26.4915079
  90.2740012   1.5384997  22.2959988  89.5720012   2.1534997  22.0869988
  89.8300012   0.7004997  22.4269988  90.1176330   1.5095783  22.2850328
  77.5220012  17.3014997  21.8429988  76.8370012  17.2634997  21.1749988
  77.5260012  18.2144997  22.1309988  77.4288193  17.4197016  21.7905284
  79.4820012   3.2694997  19.3869988  79.9740012   2.6394997  18.8599988
  80.1060012   3.5654997  20.0509988  79.6335446   3.2233199  19.4045980
  84.5080012   3.5624997  21.8439988  84.6860012   2.9164997  22.5269988
  84.4550012   4.3964997  22.3119988  84.5251829   3.5867985  22.0005940
  86.3870012  18.5114997  20.2399988  87.2530012  18.8774997  20.0619988
  86.1400012  18.0714997  19.4259988  86.4722392  18.5021756  20.1056289
  93.0960012  18.0744997  22.9189988  92.9010012  17.3264997  22.3539988
  93.0570012  18.8324997  22.3359988  93.0640380  18.0746099  22.7628384
  78.7430012   2.0694997  34.6589988  78.3770012   1.3044997  35.1019988
  79.6560012   2.0984997  34.9459988  78.8162790   1.9687224  34.7584070
  80.7160012   1.4204997  36.1949988  81.6140012   1.1464997  36.0099988
  80.3290012   0.6774997  36.6589988  80.7866612   1.2825914  36.2323643
  79.3400012  18.2214997  18.8679988  79.0730012  18.5084997  19.7409988
  80.1120012  17.6754997  19.0199988  79.4077488  18.1870294  19.0081050
  89.1370012   0.7524997  36.3769988  89.2140012   0.3264997  37.2309988
  90.0310012   0.7664997  36.0339988  89.2683428   0.6960879  36.4475310
  92.3130012  16.8254997  35.0689988  91.5310012  16.6394997  34.5499988
  92.2410012  17.7544997  35.2869988  92.1961777  16.9256492  35.0274048
 106.7190012  10.7114997  25.0999988 106.8080012  11.6554997  24.9679988
 106.0810012  10.4364997  24.4419988 106.6449081  10.8034830  24.9929614
 105.6520012   9.9664997  28.5189988 105.6140012   9.3204997  29.2239988
 105.3300012   9.5004997  27.7479988 105.6032333   9.8149408  28.5112978
  98.0210012   9.5814997  30.1119988  98.0620012   8.9554997  30.8349988
  98.7240012  10.2054997  30.2939988  98.1216363   9.5801196  30.2356044
 109.3580012  12.9054997  26.8199988 108.9180012  12.1854997  27.2709988
 109.3450012  13.6264997  27.4499988 109.2960226  12.9043731  26.9668494
  98.9440012  14.0314997  28.6469988  98.5750012  13.2294997  28.2769988
  99.8850012  13.8624997  28.6929988  99.0207289  13.8990153  28.6026316
  95.5540012   7.6914997  24.0399988  95.1070012   8.5374997  24.0209988
  94.9930012   7.1114997  23.5239988  95.4169900   7.7289916  23.9676801
  96.2650012   9.8534997  26.1659988  96.4780012   9.0834997  26.6929988
  97.0030012   9.9424997  25.5619988  96.3938496   9.7601394  26.1565300
 106.4700012  18.0104997  27.0329988 107.0900012  17.3334997  26.7589988
 106.2620012  17.7924997  27.9409988 106.5266904  17.8883870  27.1183365
 104.0420012  12.3994997  28.9249988 104.3460012  11.7134997  28.3299988
 104.7630012  12.5174997  29.5429988 104.1810671  12.3216305  28.9271816
 112.7050012   4.0004997  29.7859988 112.7540012   4.6104997  30.5219988
 113.1300012   4.4614997  29.0629988 112.7691824   4.1463741  29.7890205
 107.1830012   6.7934997  29.2529988 107.3250012   5.8474997  29.2729988
 107.0760012   7.0004997  28.3239988 107.1879864   6.6919534  29.1302339
 100.3370012   4.8944997  26.5249988 100.3810012   5.7544997  26.1069988
  99.8800012   4.3424997  25.8909988 100.2812185   4.9375799  26.3820299
 108.0600012   5.0254997  24.9259988 108.7060012   4.6964997  25.5509988
 108.5700012   5.5434997  24.3029988 108.2174264   5.0504611  24.9273862
  96.9580012   7.2914997  27.2869988  97.6110012   6.7414997  27.7189988
  96.9820012   7.0174997  26.3699988  97.0506683   7.1791466  27.2222123
 102.1140012   8.8414997  26.5019988 102.7300012   8.3154997  27.0119988
 101.5280012   8.2014997  26.0989988 102.1190810   8.6829208  26.5173173
 113.0960012   5.4784997  32.0219988 112.4080012   6.1364997  31.9259988
 113.1120012   5.2814997  32.9579988 113.0038525   5.5420462  32.1354808
  99.1480012   3.8124997  30.5989988  98.9290012   4.3424997  29.8329988
  98.4800012   4.0394997  31.2459988  99.0277600   3.9156906  30.5816379
 106.5170012  13.3124997  24.1429988 106.2210012  12.9904997  23.2919988
 106.1920012  14.2124997  24.1839988 106.4326371  13.3900215  24.0321801
 101.7170012  11.4884997  30.8859988 100.9770012  12.0864997  30.9899988
 102.4310012  12.0424997  30.5709988 101.7122237  11.6452831  30.8576465
 109.8240012   4.3164997  26.9059988 109.6080012   3.5504997  27.4389988
 110.4790012   4.7884997  27.4189988 109.8830632   4.2755889  27.0482861
  98.7410012   5.7044997  28.5509988  99.3550012   6.3374997  28.9249988
  99.2530012   5.2324997  27.8949988  98.8942296   5.7272370  28.5134252
 100.1240012  13.4524997  31.6739988 100.1190012  14.3324997  31.2959988
  99.2710012  13.3694997  32.0989988 100.0079464  13.5616117  31.6797907
  96.2450012  13.1234997  22.4559988  95.9730012  13.3524997  21.5669988
  96.2910012  13.9614997  22.9159988  96.2140094  13.2681213  22.3965697
 109.8700012  14.7454997  29.1679988 108.9290012  14.8034997  29.3299988
 110.1470012  15.6514997  29.0309988 109.7784679  14.8759443  29.1716815
 110.1710012   3.0314997  30.5859988 109.4350012   3.6424997  30.5479988
 110.8540012   3.4464997  30.0589988 110.1626541   3.1711374  30.5095832
 103.1740012   1.1184997  28.0519988 103.0570012   0.1694997  27.9969988
 102.3190012   1.4504997  28.3249988 103.0423733   1.0335409  28.0813897
 108.1220012  16.5264997  25.7939988 108.5480012  15.8194997  25.3089988
 108.4390012  17.3274997  25.3769988 108.2231019  16.5380994  25.6713130
 109.2820012  14.4274997  24.3019988 109.0240012  13.7374997  23.6909988
 109.3530012  13.9844997  25.1479988 109.2562856  14.2732124  24.3326885
 110.9680012  12.9934997  32.7799988 111.1080012  12.4024997  32.0399988
 111.1350012  13.8664997  32.4229988 111.0096778  13.0306426  32.6306965
 105.4410012   9.9554997  22.5519988 104.7290012  10.4904997  22.1999988
 106.1320012  10.0114997  21.8919988 105.4370132  10.0362543  22.4146289
 105.4940012   8.4134997  19.5909988 106.1950012   8.4354997  20.2419988
 105.7970012   7.7854997  18.9349988 105.6307830   8.3316566  19.5913711
 112.8100012   9.3334997  30.8459988 112.1570012  10.0284997  30.9349988
 113.2750012   9.5434997  30.0359988 112.7835390   9.4569425  30.7486883
 108.8460012  10.1654997  23.5039988 108.1140012  10.3934997  24.0769988
 109.2940012   9.4514997  23.9589988 108.8063095  10.1002571  23.6439119
 108.7440012   8.3394997  32.5709988 108.8240012   9.1024997  33.1429988
 108.1420012   8.6184997  31.8809988 108.6735756   8.4817134  32.5560589
 100.4920012  10.7954997  25.3859988 100.1610012  10.4254997  24.5679988
 101.0800012  10.1254997  25.7329988 100.5261873  10.6541156  25.3208102
 101.8580012  14.2234997  28.0679988 101.7640012  13.6454997  27.3109988
 102.5880012  13.8524997  28.5639988 101.9437981  14.0942390  28.0314165
 100.8580012   9.5644997  29.0199988 101.4240012   9.6854997  28.2569988
 101.1770012  10.2014997  29.6589988 100.9785786   9.6671884  29.0020040
 107.1670012  15.0674997  29.7539988 106.9270012  15.7294997  30.4019988
 106.9690012  14.2334997  30.1789988 107.1073808  15.0453134  29.9001524
 101.7380012  13.9634997  33.7369988 101.4270012  14.7454997  34.1919988
 101.0880012  13.8104997  33.0509988 101.6075558  14.0499105  33.7065871
 107.7170012   9.3274997  21.1889988 108.2970012   9.4774997  21.9359988
 108.1310012   9.7984997  20.4659988 107.8522830   9.4116841  21.1934134
  98.6580012  10.1614997  32.9659988  98.7290012  10.8124997  33.6639988
  97.7680012  10.2644997  32.6309988  98.5473117  10.2645936  33.0162700
 105.4440012  16.0644997  24.6239988 105.9180012  16.3594997  25.4019988
 104.8810012  16.8024997  24.3909988 105.4327653  16.2046932  24.6990136
  99.9780012  16.0354997  34.4999988  99.9850012  15.8994997  33.5529988
  99.0620012  15.9174997  34.7519988  99.8551714  16.0009430  34.4044666
 111.4160012   1.0774997  21.0019988 110.5160012   1.2164997  21.2969988
 111.6680012   1.9084997  20.5999988 111.3268702   1.2089074  20.9880205
  99.4820012   9.8654997  22.9759988  99.1900012  10.6334997  22.4849988
  98.8080012   9.2054997  22.8129988  99.3509081   9.8814406  22.8867340
 112.6050012  15.4434997  19.3779988 112.6790012  16.3824997  19.5489988
 113.5110012  15.1384997  19.3219988 112.7375100  15.5306722  19.3938119
  95.5750012  12.2284997  31.7909988  95.0740012  12.2004997  30.9759988
  95.5800012  11.3224997  32.0999988  95.5071526  12.1022278  31.7212872
  95.3250012  15.0084997  28.6749988  96.2710012  14.8644997  28.6559988
  95.2130012  15.7924997  29.2119988  95.4392727  15.0948046  28.7450072
 113.5230012  15.6744997  34.3569988 113.4740012  14.7194997  34.3199988
 112.6960012  15.9424997  34.7579988 113.4044940  15.5798998  34.4061375
 104.5020012  15.2484997  33.2329988 104.5890012  16.0744997  33.7079988
 103.6380012  14.9184997  33.4819988 104.3971964  15.3169878  33.3316549
 104.9160012  19.0204997  23.0389988 104.8410012  18.8994997  22.0929988
 104.9490012  19.9704997  23.1579988 104.9101848  19.1322500  22.9254834
  98.5690012  17.8094997  24.8199988  98.7220012  17.4614997  25.6989988
  97.7190012  17.4534997  24.5649988  98.4748962  17.7136650  24.9058340
 108.0180012  18.1744997  20.0409988 108.3930012  17.4304997  19.5709988
 108.0220012  17.9044997  20.9599988 108.0698915  18.0361486  20.1007824
 107.6870012  18.1004997  22.7909988 106.7510012  18.2004997  22.9689988
 107.9670012  17.3914997  23.3689988 107.5968255  18.0182711  22.8935391
 110.6750012   7.1674997  34.8369988 110.2680012   7.6484997  34.1159988
 110.7160012   6.2624997  34.5289988 110.6248437   7.1109374  34.6966683
  97.8240012  13.5514997  32.8339988  98.0400012  13.1904997  33.6929988
  96.9690012  13.1774997  32.6239988  97.7379292  13.4514111  32.9233386
 100.4430012   2.0214997  28.8289988  99.5810012   1.9344997  28.4219988
 100.4200012   2.8774997  29.2569988 100.3220330   2.1252765  28.8311863
 105.1060012   1.7434997  32.2039988 105.5260012   1.3284997  32.9569988
 104.1730012   1.5654997  32.3209988 105.0373644   1.6625900  32.3229539
 108.4320012   5.4994997  33.0569988 107.9180012   5.3734997  33.8549988
 108.2770012   6.4114997  32.8129988 108.3406852   5.6056132  33.1332158
 109.1950012  10.3604997  18.8189988 109.2370012  10.1374997  17.8889988
 110.0440012  10.7594997  19.0089988 109.3155396  10.3839155  18.7173627
 104.7670012   4.2364997  19.4889988 104.5140012   4.2554997  20.4119988
 104.5110012   3.3644997  19.1879988 104.6977790   4.1212437  19.5746263
 100.5340012   6.9874997  29.9239988  99.8920012   6.9464997  30.6329988
 100.5710012   7.9134997  29.6869988 100.4511324   7.1071559  29.9889824
 100.5310012   7.2084997  24.8359988  99.6380012   6.8674997  24.7779988
 100.9810012   6.8314997  24.0809988 100.4697305   7.1108484  24.7259177
 106.0660012   7.6244997  23.6529988 105.6570012   8.4394997  23.3619988
 106.7870012   7.4844997  23.0389988 106.1074537   7.7172018  23.5301342
 105.1680012   7.7994997  35.1409988 104.6060012   7.0954997  35.4619988
 105.9950012   7.6794997  35.6089988 105.2027095   7.6867883  35.2482330
 107.0710012   7.0704997  26.4669988 106.8760012   7.6754997  25.7519988
 107.2520012   6.2364997  26.0329988 107.0687614   7.0406300  26.3104405
  98.2840012   7.3074997  31.7909988  98.2460012   7.7074997  32.6599988
  97.7930012   6.4904997  31.8819988  98.2124684   7.2518069  31.9221059
 101.6500012   4.6814997  18.5899988 101.2190012   4.2364997  19.3199988
 100.9320012   5.0534997  18.0779988 101.4939438   4.6708940  18.6206799
  94.8920012   4.4234997  25.6419988  95.5230012   4.3944997  26.3609988
  95.3410012   3.9984997  24.9119988  95.0390774   4.3620492  25.6416553
  96.1660012   5.1694997  21.0659988  96.6400012   5.7604997  20.4809988
  95.4490012   5.7004997  21.4129988  96.1339341   5.3220867  21.0328836
 106.3350012   8.7084997  31.1389988 106.6580012   8.0774997  30.4959988
 105.8950012   8.1734997  31.7989988 106.3196895   8.5498441  31.1402850
 103.1120012   4.6354997  25.9229988 102.2010012   4.6924997  26.2109988
 103.6180012   4.5754997  26.7329988 103.0555413   4.6351985  26.0720622
  97.9410012   6.2644997  24.7489988  97.0510012   6.3644997  24.4089988
  98.2370012   5.4224997  24.4029988  97.8592823   6.1643545  24.6557213
 101.5940012   6.2644997  22.4059988 102.5250012   6.3934997  22.5839988
 101.3790012   6.9344997  21.7559988 101.6924247   6.3726565  22.3425747
 107.5170012   3.8704997  29.1869988 106.8410012   4.0014997  29.8509988
 107.0320012   3.7154997  28.3769988 107.3587145   3.8674905  29.1684517
 100.2680012   7.4594997  19.9729988  99.7250012   7.0794997  19.2809988
 101.1010012   7.6534997  19.5439988 100.3064399   7.4338124  19.8204526
 110.8050012  19.5424997  35.4639988 111.0050012  19.9664997  34.6289988
 111.4600012  19.8854997  36.0709988 110.9210051  19.6469648  35.4317836
  98.4030012  12.0164997  35.0719988  99.1350012  12.2704997  35.6329988
  97.6230012  12.2204997  35.5869988  98.3978232  12.0789177  35.2185760
 104.4320012   7.4234997  27.8099988 104.9970012   6.8764997  27.2629988
 104.2850012   6.9014997  28.5979988 104.4892918   7.2782024  27.8418454
  99.4340012   3.5594997  24.2279988  99.1170012   2.6574997  24.1929988
 100.2160012   3.5614997  23.6749988  99.4962284   3.4361628  24.1484783
 103.0590012   5.8114997  30.2239988 102.2230012   6.2654997  30.3339988
 103.5830012   6.0874997  30.9759988 103.0154414   5.9109376  30.3407136
 103.6030012  12.0244997  21.9079988 102.8580012  11.5174997  21.5859988
 103.4690012  12.0734997  22.8549988 103.4828776  11.9616940  21.9918647
 110.7530012  11.1574997  30.6949988 111.3950012  11.6144997  30.1509988
 109.9230012  11.2704997  30.2319988 110.7285963  11.2352704  30.5580177
 107.5010012   4.8384997  20.1079988 106.5620012   4.9504997  19.9559988
 107.7980012   5.6954997  20.4139988 107.4127666   4.9696443  20.1285768
 105.1220012  12.2084997  33.1449988 104.7770012  11.8274997  33.9519988
 104.9220012  13.1424997  33.2169988 105.0478061  12.2825228  33.2650961
 108.2190012   6.7054997  21.7679988 109.1110012   6.5684997  22.0869988
 108.2760012   7.4964997  21.2319988 108.3486285   6.7936660  21.7391691
  98.7280012  11.3194997  27.6779988  99.4730012  11.3174997  27.0769988
  98.8060012  10.4964997  28.1599988  98.8405518  11.2079315  27.6608929
 105.7290012  13.4834997  20.9339988 105.4330012  14.3094997  21.3149988
 105.0260012  12.8634997  21.1299988 105.5934914  13.5128199  21.0126443
  95.7360012   9.7804997  32.9929988  95.9590012   9.3624997  33.8249988
  95.1340012   9.1674997  32.5699988  95.6851759   9.6404668  33.0497022
 102.7520012   9.2974997  35.2059988 102.4560012   9.1314997  34.3109988
 103.6840012   9.0774997  35.1949988 102.8374166   9.2450640  35.0820536
 107.3730012  14.6704997  33.0959988 106.4720012  14.8534997  32.8279988
 107.4070012  14.9294997  34.0169988 107.2543041  14.7305512  33.1838197
 113.1040012   6.9154997  21.4629988 112.5500012   6.5194997  20.7909988
 113.2040012   7.8254997  21.1849988 113.0417059   6.9843586  21.3334401
 113.0670012  12.7154997  34.2999988 112.2160012  12.9534997  33.9329988
 113.6580012  12.6984997  33.5469988 113.0302487  12.7458258  34.1478893
 111.3990012  15.7014997  21.9279988 111.0260012  14.8754997  22.2369988
 111.6770012  15.5184997  21.0309988 111.3855630  15.5637303  21.8489626
 108.5600012  10.5094997  28.9489988 107.6310012  10.2774997  28.9219988
 109.0110012   9.7324997  28.6189988 108.4939216  10.3727238  28.9006917
 101.1030012  14.8374997  25.0819988 101.6300012  15.6104997  24.8819988
 100.2230012  15.0624997  24.7809988 101.0561773  14.9738005  25.0139010
  96.8580012   9.6994997  19.6689988  97.4740012  10.3264997  20.0489988
  95.9960012  10.0154997  19.9409988  96.8257698   9.8279430  19.7577183
 102.5300012  12.5004997  24.6589988 102.2890012  13.4254997  24.6999988
 101.7890012  12.0414997  25.0549988 102.3968409  12.5651421  24.7181377
 103.0450012  16.6494997  30.9739988 103.4070012  17.5044997  30.7399988
 103.5760012  16.3574997  31.7139988 103.1664473  16.7271060  31.0420855
 101.2130012  17.5224997  24.2039988 100.2630012  17.6274997  24.2549988
 101.5650012  18.3424997  24.5489988 101.1304203  17.6478314  24.2576650
 106.5890012  12.7484997  30.6739988 106.1630012  12.5214997  31.5009988
 107.1690012  12.0104997  30.4919988 106.6091868  12.6175299  30.7625830
 108.7920012  13.6774997  19.7479988 109.1450012  13.2974997  20.5529988
 107.8430012  13.5844997  19.8349988 108.7120441  13.6129596  19.8698559
 109.2470012  17.3004997  33.1439988 108.6460012  16.7454997  32.6479988
 109.5290012  17.9674997  32.5179988 109.2028519  17.3146841  32.9914952
 113.2950012  18.1574997  19.9489988 114.0390012  18.7434997  19.8089988
 112.6010012  18.7254997  20.2829988 113.3030292  18.3145582  19.9749961
  97.3700012   4.5334997  32.5509988  96.4770012   4.8724997  32.4829988
  97.2710012   3.6784997  32.9689988  97.2344164   4.4642588  32.5982235
 109.6580012  12.3504997  21.9749988 109.3800012  11.6224997  22.5309988
 110.5850012  12.4694997  22.1799988 109.7453124  12.2668802  22.0788845
  97.0210012  16.3384997  30.9859988  97.2380012  15.4064997  30.9549988
  97.2670012  16.6124997  31.8689988  97.0839549  16.2480636  31.1011763
 102.8830012  14.7894997  18.1949988 103.1220012  14.0414997  17.6479988
 102.6140012  14.4014997  19.0279988 102.8793675  14.6346638  18.2326865
 101.8200012  14.3594997  20.6519988 101.9660012  13.8394997  21.4419988
 101.8170012  15.2664997  20.9579988 101.8395989  14.4108853  20.8016088
  98.2730012  11.6124997  21.1619988  97.5870012  11.9644997  21.7289988
  98.7950012  12.3754997  20.9149988  98.2496852  11.7638578  21.2062118
 106.1040012   4.2744997  31.4409988 106.8030012   4.3484997  32.0909988
 105.7230012   3.4104997  31.5949988 106.1481767   4.1677624  31.5508322
 106.8890012   3.9264997  22.5379988 107.1090012   4.3984997  21.7349988
 107.4470012   4.3214997  23.2079988 106.9944968   4.0444285  22.5187331
 104.5570012  16.0574997  21.4009988 103.7410012  16.5544997  21.4529988
 105.0870012  16.5324997  20.7609988 104.5169161  16.1897722  21.3215956
 104.0890012   5.6544997  23.3729988 104.9010012   6.1594997  23.4189988
 103.8440012   5.5094997  24.2869988 104.1670520   5.7040375  23.5028517
 104.6240012   6.6404997  32.5579988 104.7430012   7.2144997  33.3149988
 105.2800012   5.9524997  32.6719988 104.7289757   6.6261079  32.6770825
 104.9720012   2.7354997  24.3109988 104.6260012   3.3534997  24.9559988
 105.6310012   3.2364997  23.8299988 105.0137826   2.8875802  24.3340971
 101.8960012  17.1014997  21.3829988 102.0560012  17.9004997  20.8819988
 101.6980012  17.4074997  22.2679988 101.8911649  17.2524469  21.4339815
 100.6300012   3.7984997  20.9979988 100.5470012   4.6874997  21.3449988
 101.5200012   3.5334997  21.2299988 100.7389469   3.8841430  21.0767626
 110.8290012   4.5474997  33.3929988 109.9120012   4.8104997  33.3049988
 111.1640012   4.5444997  32.4959988 110.7489900   4.5830224  33.2597919
 109.4310012   8.2984997  27.4879988 108.6330012   7.8834997  27.1599988
 109.8760012   7.6074997  27.9789988 109.3819885   8.1483543  27.5094889
  98.8890012  14.2264997  20.0589988  99.4810012  14.9254997  20.3349988
  99.3480012  13.7934997  19.3389988  99.0321142  14.2637049  19.9994830
  97.2050012   6.8904997  19.1749988  97.1600012   7.8294997  19.3529988
  96.3170012   6.6544997  18.9049988  97.0788574   6.9871892  19.1628912
 110.5170012  17.5544997  29.1109988 110.3620012  18.2324997  28.4539988
 111.4500012  17.6264997  29.3139988 110.6218500  17.6570170  29.0485119
  98.0130012   1.6724997  27.8479988  97.7840012   1.7314997  26.9199988
  97.5700012   0.8804997  28.1539988  97.9218530   1.5735753  27.7624786
  96.9430012  15.6124997  24.0079988  96.1110012  16.0854997  24.0359988
  97.4890012  16.1224997  23.4099988  96.9029739  15.7461871  23.9309716
  96.2310012  18.2254997  35.3379988  96.7720012  18.0084997  36.0979988
  95.7500012  17.4194997  35.1489988  96.2399345  18.0869514  35.4163076
 100.8290012  17.1444997  36.9589988 101.5960012  16.6854997  37.2999988
 100.8070012  16.9184997  36.0289988 100.9311434  17.0510409  36.8800043
 104.9210012  16.6524997  18.3339988 104.2770012  16.0214997  18.6549988
 105.6830012  16.1214997  18.1019988 104.9358077  16.4942920  18.3466011
 107.4060012  15.5244997  35.6879988 107.0550012  14.6684997  35.9309988
 108.1320012  15.6674997  36.2949988 107.4560769  15.4265636  35.8033619
 109.5250012  16.4694997  18.5679988 109.8080012  15.6754997  19.0199988
 110.2650012  16.7024997  18.0069988 109.6637486  16.3922803  18.5540698
  96.1380012  12.0354997  36.2929988  96.2820012  11.1334997  36.0059988
  95.3660012  12.3214997  35.8049988  96.0533322  11.9508261  36.1877881
 100.4800012  12.3794997  18.4249988 100.5440012  11.5854997  18.9559988
 101.1330012  12.2604997  17.7349988 100.5770241  12.2547148  18.4044317
 102.7940012  12.0054997  35.7249988 102.4650012  12.2764997  34.8679988
 102.9460012  11.0644997  35.6379988 102.7694809  11.9153862  35.5958244
 105.8320012  13.4264997  18.1609988 105.5630012  13.6064997  19.0619988
 105.6260012  12.5004997  18.0299988 105.7673825  13.3260152  18.2665214
 108.5280012  11.9214997  33.1089988 109.2740012  12.5094997  32.9889988
 107.7710012  12.5034997  33.1719988 108.5277554  12.0807011  33.1010907
  96.9710012   9.2354997  35.7129988  97.3790012   8.3784997  35.5919988
  96.7110012   9.2504997  36.6339988  96.9917568   9.1200807  35.8209588
 101.6290012  10.3514997  20.7309988 101.1690012   9.8674997  21.4169988
 101.8840012   9.6834997  20.0949988 101.6004902  10.1948731  20.7389334
 100.9180012   8.2444997  33.0869988 100.3000012   8.9194997  33.3669988
 101.2620012   8.5654997  32.2539988 100.8799615   8.3802721  33.0126581
 102.7000012   8.5944997  18.9929988 102.5200012   8.4404997  18.0659988
 103.6500012   8.7024997  19.0379988 102.8037776   8.5880175  18.8721843
 105.9380012  10.7164997  36.3639988 106.8910012  10.7994997  36.3369988
 105.7770012  10.0044997  36.9839988 106.0466426  10.6316746  36.4440579
 112.0900012  10.9494997  18.4389988 111.8160012  10.5244997  17.6259988
 112.1290012  11.8804997  18.2219988 112.0577699  11.0172484  18.2983610
 101.2570012   5.5994997  34.1689988 101.4070012   4.8704997  33.5669988
 101.2600012   6.3764997  33.6099988 101.2779302   5.6047851  34.0110692
 101.6700012   3.9694997  31.6619988 102.2060012   4.4204997  31.0099988
 100.8180012   3.8614997  31.2389988 101.6282178   4.0166390  31.5155756
 103.2520012   9.4084997  31.9009988 104.0020012   9.2524997  31.3279988
 102.9130012  10.2604997  31.6259988 103.3088921   9.5022968  31.7853561
 107.6670012   7.2234997  36.9299988 107.8600012   6.2924997  36.8179988
 108.5250012   7.6484997  36.9199988 107.8093020   7.1536389  36.9133361
 108.9840012  10.0124997  35.0069988 108.7030012  10.7214997  34.4299988
 109.9270012   9.9394997  34.8559988 109.0729027  10.0997646  34.9075551
  99.7360012   6.7974997  36.0809988  98.9690012   6.2654997  35.8709988
 100.4150012   6.4874997  35.4809988  99.7227022   6.6827506  35.9711648
 102.4760012   1.4254997  32.0929988 102.3770012   2.3724997  31.9879988
 101.7330012   1.0534997  31.6179988 102.3620564   1.5045902  32.0144560
 103.7400012   5.7474997  35.6569988 103.5040012   5.5274997  36.5589988
 102.9560012   5.5404997  35.1469988 103.6018628   5.6894760  35.7113932
 106.4550012   4.8744997  34.7329988 105.5080012   4.9064997  34.8649988
 106.7680012   4.2494997  35.3859988 106.3675475   4.7943207  34.8394455
 108.0890012   3.5084997  36.7379988 107.9930012   2.5564997  36.7319988
 107.7680012   3.7774997  37.5979988 108.0324070   3.4144035  36.8535441
  97.9160012   4.7184997  35.7849988  98.1280012   4.0114997  35.1749988
  97.8050012   4.2804997  36.6289988  97.9299721   4.5627084  35.8156843
 102.6970012   0.7194997  34.7649988 103.4090012   0.0794997  34.7509988
 102.5960012   0.9864997  33.8509988 102.7807939   0.6679938  34.6395650
 103.0510012   2.4024997  36.8179988 102.9190012   1.9264997  35.9979988
 102.4520012   3.1464997  36.7629988 102.9519071   2.4379618  36.6982886
 102.5970012  19.2854997  19.9949988 103.5300012  19.4434997  20.1379988
 102.3330012  19.9604997  19.3699988 102.6889510  19.3983611  19.9300741
  96.1660012  13.9214997  19.4769988  97.0800012  14.0004997  19.7509988
  96.1730012  13.2344997  18.8109988  96.2921131  13.8393961  19.4244393
  94.8150012  19.3144997  24.5549988  94.1680012  18.8524997  24.0219988
  95.1690012  18.6424997  25.1369988  94.7743849  19.1604723  24.5607959
  95.6850012  17.3954997  26.3589988  95.3500012  16.5154997  26.5309988
  95.9070012  17.7404997  27.2239988  95.6691783  17.3217501  26.4994208
 113.2330012  18.2044997  29.3399988 113.2120012  18.3894997  30.2789988
 113.9240012  18.7734997  28.9989988 113.3234618  18.3066606  29.4223864
 112.7970012  17.7724997  32.2619988 112.3090012  17.0364997  31.8909988
 113.3460012  17.3784997  32.9399988 112.8044872  17.6186249  32.3029160
 111.2470012  13.5614997  36.8999988 110.3810012  13.4564997  37.2939988
 111.6240012  14.3204997  37.3459988 111.1793308  13.6496900  37.0142393
 112.5480012  11.8184997  22.4139988 113.3980012  12.2394997  22.5409988
 112.5540012  11.0784997  23.0209988 112.6651372  11.7760803  22.5134344
 112.9430012   9.8714997  24.2379988 112.2160012   9.3924997  24.6349988
 113.5240012  10.0774997  24.9699988 112.9219375   9.8337090  24.3914129
 112.7020012  12.6564997  29.1849988 113.5350012  12.2784997  28.9049988
 112.8140012  13.5994997  29.0659988 112.8312647  12.7322218  29.1305487
 111.1880012  15.5344997  31.4919988 110.5410012  15.8594997  32.1179988
 110.6710012  15.0944997  30.8179988 111.0294029  15.5195004  31.4865827
 113.2110012   9.7724997  20.6289988 112.6890012  10.1294997  19.9099988
 113.1780012  10.4474997  21.3069988 113.1351634   9.9125413  20.6223145
 111.5600012   7.0124997  19.1799988 111.6560012   7.6794997  18.4989988
 111.4200012   6.1964997  18.6979988 111.5542135   6.9934500  19.0218491
 110.7290012   8.3924997  24.8009988 110.5790012   7.4474997  24.7799988
 110.3760012   8.6734997  25.6439988 110.6606625   8.3010441  24.9122346
  95.7650012  10.4704997  28.8109988  95.9490012  10.3884997  27.8749988
  96.6140012  10.3464997  29.2349988  95.9050139  10.4425003  28.7401455
 111.5860012  10.3624997  34.4389988 112.1690012   9.6284997  34.6309988
 112.1500012  11.1344997  34.4859988 111.7419769  10.3664227  34.4716159
 113.0820012   8.2654997  35.1239988 112.2190012   7.8864997  34.9579988
 113.6870012   7.5264997  35.0499988 113.0455979   8.1138023  35.0912817
 110.8070012   4.4204997  18.2969988 111.4180012   4.0494997  18.9339988
 109.9710012   3.9994997  18.4929988 110.7775032   4.3127554  18.4107035
 110.4400012   5.9754997  23.2629988 110.7200012   5.0684997  23.3869988
 111.1990012   6.4094997  22.8739988 110.5809277   5.9100942  23.2273682
 111.0520012   6.5564997  28.6989988 111.9850012   6.7684997  28.6649988
 110.8170012   6.6584997  29.6209988 111.1478036   6.5992769  28.8189976
 111.0810012   7.2934997  31.4749988 110.2380012   7.5614997  31.8409988
 111.5230012   8.1154997  31.2639988 111.0254158   7.4413291  31.4965491
  95.3620012   5.7414997  34.9519988  96.2820012   5.6194997  35.1879988
  94.9130012   4.9914997  35.3409988  95.4271580   5.6233727  35.0369006
 113.3640012   1.2734997  36.8279988 113.7140012   0.6194997  36.2229988
 113.5110012   2.1104997  36.3889988 113.4318419   1.2971591  36.6857118
 111.0530012   3.2384997  23.3109988 111.2360012   2.7894997  24.1369988
 110.4540012   2.6534997  22.8479988 110.9970202   3.0979975  23.3613275
  96.5830012   4.0534997  27.8429988  97.0290012   3.2614997  28.1449988
  97.0500012   4.7694997  28.2739988  96.7070172   4.0420624  27.9424820
  94.8870012   7.0524997  28.9119988  95.3790012   6.8314997  28.1209988
  95.2500012   7.8934997  29.1929988  95.0033126   7.1358357  28.8417531
 112.8840012   3.3824997  35.1779988 111.9660012   3.6534997  35.1419988
 113.0070012   2.8474997  34.3929988 112.7751066   3.3472892  35.0670487
 112.9200012   3.3054997  19.8389988 113.3320012   2.5844997  19.3639988
 113.6020012   3.9754997  19.8979988 113.0685885   3.2972368  19.7818915
  95.2010012   3.3104997  22.9659988  94.2760012   3.5194997  22.8369988
  95.6550012   3.7944997  22.2769988  95.1357368   3.4045993  22.8551226
 109.9720012  18.2944997  24.9119988 110.6240012  17.9474997  24.3039988
 110.4820012  18.7834997  25.5579988 110.1302637  18.3130597  24.9160236
  95.1650012   2.0484997  31.3109988  94.5000012   1.8024997  31.9539988
  94.7220012   2.6704997  30.7329988  95.0140956   2.0988632  31.3209352
  97.3570012  15.2234997  35.4549988  96.5360012  15.3984997  34.9949988
  97.1040012  15.1504997  36.3759988  97.2106164  15.2375622  35.5164923
 100.3110012  16.1984997  31.7139988  99.8860012  17.0074997  31.4309988
 101.2150012  16.2834997  31.4119988 100.3750271  16.3208469  31.6343776
 104.6220012  17.5974997  34.6729988 104.8070012  17.2634997  35.5509988
 105.4680012  17.9064997  34.3509988 104.7617539  17.5936047  34.7495605
 106.9670012  18.8834997  33.9169988 107.6440012  18.2504997  33.6769988
 107.2890012  19.2844997  34.7239988 107.1031637  18.8511154  33.9932793
 111.8840012   1.4724997  32.9969988 111.0720012   1.7974997  32.6089988
 112.1170012   0.7124997  32.4639988 111.8043423   1.4142436  32.8718253
  97.7130012  19.4544997  31.7609988  96.9920012  19.8944997  31.3099988
  97.3470012  19.2034997  32.6099988  97.5649804  19.4807698  31.8139840
 100.1800012  19.0544997  30.7909988  99.3150012  19.1264997  31.1949988
 100.1250012  19.6014997  30.0069988 100.0542085  19.1382685  30.7403362
 104.8900012  18.9424997  29.9659988 104.4340012  19.4714997  29.3119988
 105.0530012  19.5454997  30.6919988 104.8495585  19.0964468  29.9745062
 107.2180012  17.8204997  30.9109988 106.3130012  17.9854997  30.6459988
 107.6470012  18.6734997  30.8459988 107.1520799  17.9584483  30.8659182
 109.8220012  19.3904997  31.2059988 109.6400012  20.3064997  30.9959988
 109.9990012  18.9804997  30.3599988 109.8210210  19.4604822  31.0627885
  97.1270012  18.0774997  28.6709988  97.1090012  17.6524997  29.5289988
  97.9320012  17.7594997  28.2629988  97.2333875  17.9763812  28.7331655
  99.2690012  16.7874997  27.3259988  99.0500012  15.8714997  27.4959988
 100.0930012  16.9274997  27.7919988  99.3504420  16.6810520  27.4122774
 101.8060012  17.2574997  28.1749988 102.0190012  16.3694997  27.8879988
 101.8700012  17.2234997  29.1289988 101.8438232  17.1313102  28.2647397
 105.3140012   2.9214997  27.3189988 104.6400012   2.2924997  27.5749988
 105.8780012   2.4374997  26.7159988 105.2979230   2.7698744  27.2725340
 110.4570012   1.0294997  27.4319988 111.0610012   1.5764997  26.9299988
 109.5870012   1.3484997  27.1919988 110.4221241   1.1475806  27.3307654
 112.1840012   2.1674997  25.7649988 112.7960012   1.6534997  25.2389988
 112.5660012   3.0454997  25.7889988 112.3194540   2.2157140  25.6961830
  97.6410012   1.5554997  25.1409988  96.8640012   1.3214997  24.6339988
  98.1710012   0.7584997  25.1499988  97.6062330   1.4156988  25.0727742
  96.4770012   1.3534997  20.9449988  96.9160012   1.9644997  20.3529988
  95.8440012   1.8914997  21.4189988  96.4514514   1.5099257  20.9280930
 102.2200012   1.4824997  24.9549988 103.0950012   1.8704997  24.9249988
 102.0840012   1.2674997  25.8769988 102.3213695   1.5065184  25.0756440
 107.7770012   1.5124997  26.6039988 107.8530012   1.6074997  25.6539988
 107.5020012   0.6044997  26.7329988 107.7502321   1.4027867  26.4915079
 109.1300012   1.5384997  22.2959988 108.4280012   2.1534997  22.0869988
 108.6860012   0.7004997  22.4269988 108.9736330   1.5095783  22.2850328
  96.3780012  17.3014997  21.8429988  95.6930012  17.2634997  21.1749988
  96.3820012  18.2144997  22.1309988  96.2848193  17.4197016  21.7905284
  98.3380012   3.2694997  19.3869988  98.8300012   2.6394997  18.8599988
  98.9620012   3.5654997  20.0509988  98.4895446   3.2233199  19.4045980
 103.3640012   3.5624997  21.8439988 103.5420012   2.9164997  22.5269988
 103.3110012   4.3964997  22.3119988 103.3811829   3.5867985  22.0005940
 105.2430012  18.5114997  20.2399988 106.1090012  18.8774997  20.0619988
 104.9960012  18.0714997  19.4259988 105.3282392  18.5021756  20.1056289
 111.9520012  18.0744997  22.9189988 111.7570012  17.3264997  22.3539988
 111.9130012  18.8324997  22.3359988 111.9200380  18.0746099  22.7628384
  97.5990012   2.0694997  34.6589988  97.2330012   1.3044997  35.1019988
  98.5120012   2.0984997  34.9459988  97.6722790   1.9687224  34.7584070
  99.5720012   1.4204997  36.1949988 100.4700012   1.1464997  36.0099988
  99.1850012   0.6774997  36.6589988  99.6426612   1.2825914  36.2323643
  98.1960012  18.2214997  18.8679988  97.9290012  18.5084997  19.7409988
  98.9680012  17.6754997  19.0199988  98.2637488  18.1870294  19.0081050
 107.9930012   0.7524997  36.3769988 108.0700012   0.3264997  37.2309988
 108.8870012   0.7664997  36.0339988 108.1243428   0.6960879  36.4475310
 111.1690012  16.8254997  35.0689988 110.3870012  16.6394997  34.5499988
 111.0970012  17.7544997  35.2869988 111.0521777  16.9256492  35.0274048
 125.5750012  10.7114997  25.0999988 125.6640012  11.6554997  24.9679988
 124.9370012  10.4364997  24.4419988 125.5009081  10.8034830  24.9929614
 124.5080012   9.9664997  28.5189988 124.4700012   9.3204997  29.2239988
 124.1860012   9.5004997  27.7479988 124.4592333   9.8149408  28.5112978
 116.8770012   9.5814997  30.1119988 116.9180012   8.9554997  30.8349988
 117.5800012  10.2054997  30.2939988 116.9776363   9.5801196  30.2356044
 128.2140012  12.9054997  26.8199988 127.7740012  12.1854997  27.2709988
 128.2010012  13.6264997  27.4499988 128.1520226  12.9043731  26.9668494
 117.8000012  14.0314997  28.6469988 117.4310012  13.2294997  28.2769988
 118.7410012  13.8624997  28.6929988 117.8767289  13.8990153  28.6026316
 114.4100012   7.6914997  24.0399988 113.9630012   8.5374997  24.0209988
 113.8490012   7.1114997  23.5239988 114.2729900   7.7289916  23.9676801
 115.1210012   9.8534997  26.1659988 115.3340012   9.0834997  26.6929988
 115.8590012   9.9424997  25.5619988 115.2498496   9.7601394  26.1565300
 125.3260012  18.0104997  27.0329988 125.9460012  17.3334997  26.7589988
 125.1180012  17.7924997  27.9409988 125.3826904  17.8883870  27.1183365
 122.8980012  12.3994997  28.9249988 123.2020012  11.7134997  28.3299988
 123.6190012  12.5174997  29.5429988 123.0370671  12.3216305  28.9271816
 131.5610012   4.0004997  29.7859988 131.6100012   4.6104997  30.5219988
 131.9860012   4.4614997  29.0629988 131.6251824   4.1463741  29.7890205
 126.0390012   6.7934997  29.2529988 126.1810012   5.8474997  29.2729988
 125.9320012   7.0004997  28.3239988 126.0439864   6.6919534  29.1302339
 119.1930012   4.8944997  26.5249988 119.2370012   5.7544997  26.1069988
 118.7360012   4.3424997  25.8909988 119.1372185   4.9375799  26.3820299
 126.9160012   5.0254997  24.9259988 127.5620012   4.6964997  25.5509988
 127.4260012   5.5434997  24.3029988 127.0734264   5.0504611  24.9273862
 115.8140012   7.2914997  27.2869988 116.4670012   6.7414997  27.7189988
 115.8380012   7.0174997  26.3699988 115.9066683   7.1791466  27.2222123
 120.9700012   8.8414997  26.5019988 121.5860012   8.3154997  27.0119988
 120.3840012   8.2014997  26.0989988 120.9750810   8.6829208  26.5173173
 131.9520012   5.4784997  32.0219988 131.2640012   6.1364997  31.9259988
 131.9680012   5.2814997  32.9579988 131.8598525   5.5420462  32.1354808
 118.0040012   3.8124997  30.5989988 117.7850012   4.3424997  29.8329988
 117.3360012   4.0394997  31.2459988 117.8837600   3.9156906  30.5816379
 125.3730012  13.3124997  24.1429988 125.0770012  12.9904997  23.2919988
 125.0480012  14.2124997  24.1839988 125.2886371  13.3900215  24.0321801
 120.5730012  11.4884997  30.8859988 119.8330012  12.0864997  30.9899988
 121.2870012  12.0424997  30.5709988 120.5682237  11.6452831  30.8576465
 128.6800012   4.3164997  26.9059988 128.4640012   3.5504997  27.4389988
 129.3350012   4.7884997  27.4189988 128.7390632   4.2755889  27.0482861
 117.5970012   5.7044997  28.5509988 118.2110012   6.3374997  28.9249988
 118.1090012   5.2324997  27.8949988 117.7502296   5.7272370  28.5134252
 118.9800012  13.4524997  31.6739988 118.9750012  14.3324997  31.2959988
 118.1270012  13.3694997  32.0989988 118.8639464  13.5616117  31.6797907
 115.1010012  13.1234997  22.4559988 114.8290012  13.3524997  21.5669988
 115.1470012  13.9614997  22.9159988 115.0700094  13.2681213  22.3965697
 128.7260012  14.7454997  29.1679988 127.7850012  14.8034997  29.3299988
 129.0030012  15.6514997  29.0309988 128.6344679  14.8759443  29.1716815
 129.0270012   3.0314997  30.5859988 128.2910012   3.6424997  30.5479988
 129.7100012   3.4464997  30.0589988 129.0186541   3.1711374  30.5095832
 122.0300012   1.1184997  28.0519988 121.9130012   0.1694997  27.9969988
 121.1750012   1.4504997  28.3249988 121.8983733   1.0335409  28.0813897
 126.9780012  16.5264997  25.7939988 127.4040012  15.8194997  25.3089988
 127.2950012  17.3274997  25.3769988 127.0791019  16.5380994  25.6713130
 128.1380012  14.4274997  24.3019988 127.8800012  13.7374997  23.6909988
 128.2090012  13.9844997  25.1479988 128.1122856  14.2732124  24.3326885
 129.8240012  12.9934997  32.7799988 129.9640012  12.4024997  32.0399988
 129.9910012  13.8664997  32.4229988 129.8656778  13.0306426  32.6306965
 124.2970012   9.9554997  22.5519988 123.5850012  10.4904997  22.1999988
 124.9880012  10.0114997  21.8919988 124.2930132  10.0362543  22.4146289
 124.3500012   8.4134997  19.5909988 125.0510012   8.4354997  20.2419988
 124.6530012   7.7854997  18.9349988 124.4867830   8.3316566  19.5913711
 131.6660012   9.3334997  30.8459988 131.0130012  10.0284997  30.9349988
 132.1310012   9.5434997  30.0359988 131.6395390   9.4569425  30.7486883
 127.7020012  10.1654997  23.5039988 126.9700012  10.3934997  24.0769988
 128.1500012   9.4514997  23.9589988 127.6623095  10.1002571  23.6439119
 127.6000012   8.3394997  32.5709988 127.6800012   9.1024997  33.1429988
 126.9980012   8.6184997  31.8809988 127.5295756   8.4817134  32.5560589
 119.3480012  10.7954997  25.3859988 119.0170012  10.4254997  24.5679988
 119.9360012  10.1254997  25.7329988 119.3821873  10.6541156  25.3208102
 120.7140012  14.2234997  28.0679988 120.6200012  13.6454997  27.3109988
 121.4440012  13.8524997  28.5639988 120.7997981  14.0942390  28.0314165
 119.7140012   9.5644997  29.0199988 120.2800012   9.6854997  28.2569988
 120.0330012  10.2014997  29.6589988 119.8345786   9.6671884  29.0020040
 126.0230012  15.0674997  29.7539988 125.7830012  15.7294997  30.4019988
 125.8250012  14.2334997  30.1789988 125.9633808  15.0453134  29.9001524
 120.5940012  13.9634997  33.7369988 120.2830012  14.7454997  34.1919988
 119.9440012  13.8104997  33.0509988 120.4635558  14.0499105  33.7065871
 126.5730012   9.3274997  21.1889988 127.1530012   9.4774997  21.9359988
 126.9870012   9.7984997  20.4659988 126.7082830   9.4116841  21.1934134
 117.5140012  10.1614997  32.9659988 117.5850012  10.8124997  33.6639988
 116.6240012  10.2644997  32.6309988 117.4033117  10.2645936  33.0162700
 124.3000012  16.0644997  24.6239988 124.7740012  16.3594997  25.4019988
 123.7370012  16.8024997  24.3909988 124.2887653  16.2046932  24.6990136
 118.8340012  16.0354997  34.4999988 118.8410012  15.8994997  33.5529988
 117.9180012  15.9174997  34.7519988 118.7111714  16.0009430  34.4044666
 130.2720012   1.0774997  21.0019988 129.3720012   1.2164997  21.2969988
 130.5240012   1.9084997  20.5999988 130.1828702   1.2089074  20.9880205
 118.3380012   9.8654997  22.9759988 118.0460012  10.6334997  22.4849988
 117.6640012   9.2054997  22.8129988 118.2069081   9.8814406  22.8867340
 131.4610012  15.4434997  19.3779988 131.5350012  16.3824997  19.5489988
 132.3670012  15.1384997  19.3219988 131.5935100  15.5306722  19.3938119
 114.4310012  12.2284997  31.7909988 113.9300012  12.2004997  30.9759988
 114.4360012  11.3224997  32.0999988 114.3631526  12.1022278  31.7212872
 114.1810012  15.0084997  28.6749988 115.1270012  14.8644997  28.6559988
 114.0690012  15.7924997  29.2119988 114.2952727  15.0948046  28.7450072
 132.3790012  15.6744997  34.3569988 132.3300012  14.7194997  34.3199988
 131.5520012  15.9424997  34.7579988 132.2604940  15.5798998  34.4061375
 123.3580012  15.2484997  33.2329988 123.4450012  16.0744997  33.7079988
 122.4940012  14.9184997  33.4819988 123.2531964  15.3169878  33.3316549
 123.7720012  19.0204997  23.0389988 123.6970012  18.8994997  22.0929988
 123.8050012  19.9704997  23.1579988 123.7661848  19.1322500  22.9254834
 117.4250012  17.8094997  24.8199988 117.5780012  17.4614997  25.6989988
 116.5750012  17.4534997  24.5649988 117.3308962  17.7136650  24.9058340
 126.8740012  18.1744997  20.0409988 127.2490012  17.4304997  19.5709988
 126.8780012  17.9044997  20.9599988 126.9258915  18.0361486  20.1007824
 126.5430012  18.1004997  22.7909988 125.6070012  18.2004997  22.9689988
 126.8230012  17.3914997  23.3689988 126.4528255  18.0182711  22.8935391
 129.5310012   7.1674997  34.8369988 129.1240012   7.6484997  34.1159988
 129.5720012   6.2624997  34.5289988 129.4808437   7.1109374  34.6966683
 116.6800012  13.5514997  32.8339988 116.8960012  13.1904997  33.6929988
 115.8250012  13.1774997  32.6239988 116.5939292  13.4514111  32.9233386
 119.2990012   2.0214997  28.8289988 118.4370012   1.9344997  28.4219988
 119.2760012   2.8774997  29.2569988 119.1780330   2.1252765  28.8311863
 123.9620012   1.7434997  32.2039988 124.3820012   1.3284997  32.9569988
 123.0290012   1.5654997  32.3209988 123.8933644   1.6625900  32.3229539
 127.2880012   5.4994997  33.0569988 126.7740012   5.3734997  33.8549988
 127.1330012   6.4114997  32.8129988 127.1966852   5.6056132  33.1332158
 128.0510012  10.3604997  18.8189988 128.0930012  10.1374997  17.8889988
 128.9000012  10.7594997  19.0089988 128.1715396  10.3839155  18.7173627
 123.6230012   4.2364997  19.4889988 123.3700012   4.2554997  20.4119988
 123.3670012   3.3644997  19.1879988 123.5537790   4.1212437  19.5746263
 119.3900012   6.9874997  29.9239988 118.7480012   6.9464997  30.6329988
 119.4270012   7.9134997  29.6869988 119.3071324   7.1071559  29.9889824
 119.3870012   7.2084997  24.8359988 118.4940012   6.8674997  24.7779988
 119.8370012   6.8314997  24.0809988 119.3257305   7.1108484  24.7259177
 124.9220012   7.6244997  23.6529988 124.5130012   8.4394997  23.3619988
 125.6430012   7.4844997  23.0389988 124.9634537   7.7172018  23.5301342
 124.0240012   7.7994997  35.1409988 123.4620012   7.0954997  35.4619988
 124.8510012   7.6794997  35.6089988 124.0587095   7.6867883  35.2482330
 125.9270012   7.0704997  26.4669988 125.7320012   7.6754997  25.7519988
 126.1080012   6.2364997  26.0329988 125.9247614   7.0406300  26.3104405
 117.1400012   7.3074997  31.7909988 117.1020012   7.7074997  32.6599988
 116.6490012   6.4904997  31.8819988 117.0684684   7.2518069  31.9221059
 120.5060012   4.6814997  18.5899988 120.0750012   4.2364997  19.3199988
 119.7880012   5.0534997  18.0779988 120.3499438   4.6708940  18.6206799
 113.7480012   4.4234997  25.6419988 114.3790012   4.3944997  26.3609988
 114.1970012   3.9984997  24.9119988 113.8950774   4.3620492  25.6416553
 115.0220012   5.1694997  21.0659988 115.4960012   5.7604997  20.4809988
 114.3050012   5.7004997  21.4129988 114.9899341   5.3220867  21.0328836
 125.1910012   8.7084997  31.1389988 125.5140012   8.0774997  30.4959988
 124.7510012   8.1734997  31.7989988 125.1756895   8.5498441  31.1402850
 121.9680012   4.6354997  25.9229988 121.0570012   4.6924997  26.2109988
 122.4740012   4.5754997  26.7329988 121.9115413   4.6351985  26.0720622
 116.7970012   6.2644997  24.7489988 115.9070012   6.3644997  24.4089988
 117.0930012   5.4224997  24.4029988 116.7152823   6.1643545  24.6557213
 120.4500012   6.2644997  22.4059988 121.3810012   6.3934997  22.5839988
 120.2350012   6.9344997  21.7559988 120.5484247   6.3726565  22.3425747
 126.3730012   3.8704997  29.1869988 125.6970012   4.0014997  29.8509988
 125.8880012   3.7154997  28.3769988 126.2147145   3.8674905  29.1684517
 119.1240012   7.4594997  19.9729988 118.5810012   7.0794997  19.2809988
 119.9570012   7.6534997  19.5439988 119.1624399   7.4338124  19.8204526
 129.6610012  19.5424997  35.4639988 129.8610012  19.9664997  34.6289988
 130.3160012  19.8854997  36.0709988 129.7770051  19.6469648  35.4317836
 117.2590012  12.0164997  35.0719988 117.9910012  12.2704997  35.6329988
 116.4790012  12.2204997  35.5869988 117.2538232  12.0789177  35.2185760
 123.2880012   7.4234997  27.8099988 123.8530012   6.8764997  27.2629988
 123.1410012   6.9014997  28.5979988 123.3452918   7.2782024  27.8418454
 118.2900012   3.5594997  24.2279988 117.9730012   2.6574997  24.1929988
 119.0720012   3.5614997  23.6749988 118.3522284   3.4361628  24.1484783
 121.9150012   5.8114997  30.2239988 121.0790012   6.2654997  30.3339988
 122.4390012   6.0874997  30.9759988 121.8714414   5.9109376  30.3407136
 122.4590012  12.0244997  21.9079988 121.7140012  11.5174997  21.5859988
 122.3250012  12.0734997  22.8549988 122.3388776  11.9616940  21.9918647
 129.6090012  11.1574997  30.6949988 130.2510012  11.6144997  30.1509988
 128.7790012  11.2704997  30.2319988 129.5845963  11.2352704  30.5580177
 126.3570012   4.8384997  20.1079988 125.4180012   4.9504997  19.9559988
 126.6540012   5.6954997  20.4139988 126.2687666   4.9696443  20.1285768
 123.9780012  12.2084997  33.1449988 123.6330012  11.8274997  33.9519988
 123.7780012  13.1424997  33.2169988 123.9038061  12.2825228  33.2650961
 127.0750012   6.7054997  21.7679988 127.9670012   6.5684997  22.0869988
 127.1320012   7.4964997  21.2319988 127.2046285   6.7936660  21.7391690
 117.5840012  11.3194997  27.6779988 118.3290012  11.3174997  27.0769988
 117.6620012  10.4964997  28.1599988 117.6965518  11.2079315  27.6608929
 124.5850012  13.4834997  20.9339988 124.2890012  14.3094997  21.3149988
 123.8820012  12.8634997  21.1299988 124.4494914  13.5128199  21.0126443
 114.5920012   9.7804997  32.9929988 114.8150012   9.3624997  33.8249988
 113.9900012   9.1674997  32.5699988 114.5411759   9.6404668  33.0497022
 121.6080012   9.2974997  35.2059988 121.3120012   9.1314997  34.3109988
 122.5400012   9.0774997  35.1949988 121.6934166   9.2450640  35.0820536
 126.2290012  14.6704997  33.0959988 125.3280012  14.8534997  32.8279988
 126.2630012  14.9294997  34.0169988 126.1103041  14.7305512  33.1838197
 131.9600012   6.9154997  21.4629988 131.4060012   6.5194997  20.7909988
 132.0600012   7.8254997  21.1849988 131.8977059   6.9843586  21.3334401
 131.9230012  12.7154997  34.2999988 131.0720012  12.9534997  33.9329988
 132.5140012  12.6984997  33.5469988 131.8862487  12.7458258  34.1478893
 130.2550012  15.7014997  21.9279988 129.8820012  14.8754997  22.2369988
 130.5330012  15.5184997  21.0309988 130.2415630  15.5637303  21.8489626
 127.4160012  10.5094997  28.9489988 126.4870012  10.2774997  28.9219988
 127.8670012   9.7324997  28.6189988 127.3499216  10.3727238  28.9006917
 119.9590012  14.8374997  25.0819988 120.4860012  15.6104997  24.8819988
 119.0790012  15.0624997  24.7809988 119.9121773  14.9738005  25.0139010
 115.7140012   9.6994997  19.6689988 116.3300012  10.3264997  20.0489988
 114.8520012  10.0154997  19.9409988 115.6817698   9.8279430  19.7577183
 121.3860012  12.5004997  24.6589988 121.1450012  13.4254997  24.6999988
 120.6450012  12.0414997  25.0549988 121.2528409  12.5651421  24.7181377
 121.9010012  16.6494997  30.9739988 122.2630012  17.5044997  30.7399988
 122.4320012  16.3574997  31.7139988 122.0224473  16.7271060  31.0420855
 120.0690012  17.5224997  24.2039988 119.1190012  17.6274997  24.2549988
 120.4210012  18.3424997  24.5489988 119.9864203  17.6478314  24.2576650
 125.4450012  12.7484997  30.6739988 125.0190012  12.5214997  31.5009988
 126.0250012  12.0104997  30.4919988 125.4651868  12.6175299  30.7625830
 127.6480012  13.6774997  19.7479988 128.0010012  13.2974997  20.5529988
 126.6990012  13.5844997  19.8349988 127.5680441  13.6129596  19.8698559
 128.1030012  17.3004997  33.1439988 127.5020012  16.7454997  32.6479988
 128.3850012  17.9674997  32.5179988 128.0588519  17.3146841  32.9914952
 132.1510012  18.1574997  19.9489988 132.8950012  18.7434997  19.8089988
 131.4570012  18.7254997  20.2829988 132.1590292  18.3145582  19.9749961
 116.2260012   4.5334997  32.5509988 115.3330012   4.8724997  32.4829988
 116.1270012   3.6784997  32.9689988 116.0904164   4.4642588  32.5982235
 128.5140012  12.3504997  21.9749988 128.2360012  11.6224997  22.5309988
 129.4410012  12.4694997  22.1799988 128.6013124  12.2668802  22.0788845
 115.8770012  16.3384997  30.9859988 116.0940012  15.4064997  30.9549988
 116.1230012  16.6124997  31.8689988 115.9399549  16.2480636  31.1011763
 121.7390012  14.7894997  18.1949988 121.9780012  14.0414997  17.6479988
 121.4700012  14.4014997  19.0279988 121.7353675  14.6346638  18.2326865
 120.6760012  14.3594997  20.6519988 120.8220012  13.8394997  21.4419988
 120.6730012  15.2664997  20.9579988 120.6955989  14.4108853  20.8016088
 117.1290012  11.6124997  21.1619988 116.4430012  11.9644997  21.7289988
 117.6510012  12.3754997  20.9149988 117.1056852  11.7638578  21.2062118
 124.9600012   4.2744997  31.4409988 125.6590012   4.3484997  32.0909988
 124.5790012   3.4104997  31.5949988 125.0041767   4.1677624  31.5508322
 125.7450012   3.9264997  22.5379988 125.9650012   4.3984997  21.7349988
 126.3030012   4.3214997  23.2079988 125.8504968   4.0444285  22.5187331
 123.4130012  16.0574997  21.4009988 122.5970012  16.5544997  21.4529988
 123.9430012  16.5324997  20.7609988 123.3729161  16.1897722  21.3215956
 122.9450012   5.6544997  23.3729988 123.7570012   6.1594997  23.4189988
 122.7000012   5.5094997  24.2869988 123.0230520   5.7040375  23.5028517
 123.4800012   6.6404997  32.5579988 123.5990012   7.2144997  33.3149988
 124.1360012   5.9524997  32.6719988 123.5849757   6.6261079  32.6770825
 123.8280012   2.7354997  24.3109988 123.4820012   3.3534997  24.9559988
 124.4870012   3.2364997  23.8299988 123.8697826   2.8875802  24.3340971
 120.7520012  17.1014997  21.3829988 120.9120012  17.9004997  20.8819988
 120.5540012  17.4074997  22.2679988 120.7471649  17.2524469  21.4339815
 119.4860012   3.7984997  20.9979988 119.4030012   4.6874997  21.3449988
 120.3760012   3.5334997  21.2299988 119.5949469   3.8841430  21.0767626
 129.6850012   4.5474997  33.3929988 128.7680012   4.8104997  33.3049988
 130.0200012   4.5444997  32.4959988 129.6049900   4.5830224  33.2597919
 128.2870012   8.2984997  27.4879988 127.4890012   7.8834997  27.1599988
 128.7320012   7.6074997  27.9789988 128.2379885   8.1483543  27.5094889
 117.7450012  14.2264997  20.0589988 118.3370012  14.9254997  20.3349988
 118.2040012  13.7934997  19.3389988 117.8881142  14.2637049  19.9994830
 116.0610012   6.8904997  19.1749988 116.0160012   7.8294997  19.3529988
 115.1730012   6.6544997  18.9049988 115.9348574   6.9871892  19.1628912
 129.3730012  17.5544997  29.1109988 129.2180012  18.2324997  28.4539988
 130.3060012  17.6264997  29.3139988 129.4778500  17.6570170  29.0485119
 116.8690012   1.6724997  27.8479988 116.6400012   1.7314997  26.9199988
 116.4260012   0.8804997  28.1539988 116.7778530   1.5735753  27.7624786
 115.7990012  15.6124997  24.0079988 114.9670012  16.0854997  24.0359988
 116.3450012  16.1224997  23.4099988 115.7589739  15.7461871  23.9309716
 115.0870012  18.2254997  35.3379988 115.6280012  18.0084997  36.0979988
 114.6060012  17.4194997  35.1489988 115.0959345  18.0869514  35.4163076
 119.6850012  17.1444997  36.9589988 120.4520012  16.6854997  37.2999988
 119.6630012  16.9184997  36.0289988 119.7871434  17.0510409  36.8800043
 123.7770012  16.6524997  18.3339988 123.1330012  16.0214997  18.6549988
 124.5390012  16.1214997  18.1019988 123.7918077  16.4942920  18.3466011
 126.2620012  15.5244997  35.6879988 125.9110012  14.6684997  35.9309988
 126.9880012  15.6674997  36.2949988 126.3120769  15.4265636  35.8033619
 128.3810012  16.4694997  18.5679988 128.6640012  15.6754997  19.0199988
 129.1210012  16.7024997  18.0069988 128.5197486  16.3922803  18.5540698
 114.9940012  12.0354997  36.2929988 115.1380012  11.1334997  36.0059988
 114.2220012  12.3214997  35.8049988 114.9093322  11.9508261  36.1877881
 119.3360012  12.3794997  18.4249988 119.4000012  11.5854997  18.9559988
 119.9890012  12.2604997  17.7349988 119.4330241  12.2547148  18.4044317
 121.6500012  12.0054997  35.7249988 121.3210012  12.2764997  34.8679988
 121.8020012  11.0644997  35.6379988 121.6254809  11.9153862  35.5958244
 124.6880012  13.4264997  18.1609988 124.4190012  13.6064997  19.0619988
 124.4820012  12.5004997  18.0299988 124.6233825  13.3260152  18.2665214
 127.3840012  11.9214997  33.1089988 128.1300012  12.5094997  32.9889988
 126.6270012  12.5034997  33.1719988 127.3837554  12.0807011  33.1010907
 115.8270012   9.2354997  35.7129988 116.2350012   8.3784997  35.5919988
 115.5670012   9.2504997  36.6339988 115.8477568   9.1200807  35.8209588
 120.4850012  10.3514997  20.7309988 120.0250012   9.8674997  21.4169988
 120.7400012   9.6834997  20.0949988 120.4564902  10.1948731  20.7389334
 119.7740012   8.2444997  33.0869988 119.1560012   8.9194997  33.3669988
 120.1180012   8.5654997  32.2539988 119.7359615   8.3802721  33.0126581
 121.5560012   8.5944997  18.9929988 121.3760012   8.4404997  18.0659988
 122.5060012   8.7024997  19.0379988 121.6597776   8.5880175  18.8721843
 124.7940012  10.7164997  36.3639988 125.7470012  10.7994997  36.3369988
 124.6330012  10.0044997  36.9839988 124.9026426  10.6316746  36.4440579
 130.9460012  10.9494997  18.4389988 130.6720012  10.5244997  17.6259988
 130.9850012  11.8804997  18.2219988 130.9137699  11.0172484  18.2983610
 120.1130012   5.5994997  34.1689988 120.2630012   4.8704997  33.5669988
 120.1160012   6.3764997  33.6099988 120.1339302   5.6047851  34.0110692
 120.5260012   3.9694997  31.6619988 121.0620012   4.4204997  31.0099988
 119.6740012   3.8614997  31.2389988 120.4842178   4.0166390  31.5155756
 122.1080012   9.4084997  31.9009988 122.8580012   9.2524997  31.3279988
 121.7690012  10.2604997  31.6259988 122.1648921   9.5022968  31.7853561
 126.5230012   7.2234997  36.9299988 126.7160012   6.2924997  36.8179988
 127.3810012   7.6484997  36.9199988 126.6653020   7.1536389  36.9133361
 127.8400012  10.0124997  35.0069988 127.5590012  10.7214997  34.4299988
 128.7830012   9.9394997  34.8559988 127.9289027  10.0997646  34.9075551
 118.5920012   6.7974997  36.0809988 117.8250012   6.2654997  35.8709988
 119.2710012   6.4874997  35.4809988 118.5787022   6.6827506  35.9711648
 121.3320012   1.4254997  32.0929988 121.2330012   2.3724997  31.9879988
 120.5890012   1.0534997  31.6179988 121.2180564   1.5045902  32.0144560
 122.5960012   5.7474997  35.6569988 122.3600012   5.5274997  36.5589988
 121.8120012   5.5404997  35.1469988 122.4578628   5.6894760  35.7113932
 125.3110012   4.8744997  34.7329988 124.3640012   4.9064997  34.8649988
 125.6240012   4.2494997  35.3859988 125.2235475   4.7943207  34.8394455
 126.9450012   3.5084997  36.7379988 126.8490012   2.5564997  36.7319988
 126.6240012   3.7774997  37.5979988 126.8884070   3.4144035  36.8535441
 116.7720012   4.7184997  35.7849988 116.9840012   4.0114997  35.1749988
 116.6610012   4.2804997  36.6289988 116.7859721   4.5627084  35.8156843
 121.5530012   0.7194997  34.7649988 122.2650012   0.0794997  34.7509988
 121.4520012   0.9864997  33.8509988 121.6367939   0.6679938  34.6395650
 121.9070012   2.4024997  36.8179988 121.7750012   1.9264997  35.9979988
 121.3080012   3.1464997  36.7629988 121.8079071   2.4379618  36.6982886
 121.4530012  19.2854997  19.9949988 122.3860012  19.4434997  20.1379988
 121.1890012  19.9604997  19.3699988 121.5449510  19.3983611  19.9300741
 115.0220012  13.9214997  19.4769988 115.9360012  14.0004997  19.7509988
 115.0290012  13.2344997  18.8109988 115.1481131  13.8393961  19.4244393
 113.6710012  19.3144997  24.5549988 113.0240012  18.8524997  24.0219988
 114.0250012  18.6424997  25.1369988 113.6303849  19.1604723  24.5607959
 114.5410012  17.3954997  26.3589988 114.2060012  16.5154997  26.5309988
 114.7630012  17.7404997  27.2239988 114.5251783  17.3217500  26.4994208
 132.0890012  18.2044997  29.3399988 132.0680012  18.3894997  30.2789988
 132.7800012  18.7734997  28.9989988 132.1794618  18.3066606  29.4223864
 131.6530012  17.7724997  32.2619988 131.1650012  17.0364997  31.8909988
 132.2020012  17.3784997  32.9399988 131.6604872  17.6186249  32.3029160
 130.1030012  13.5614997  36.8999988 129.2370012  13.4564997  37.2939988
 130.4800012  14.3204997  37.3459988 130.0353308  13.6496900  37.0142393
 131.4040012  11.8184997  22.4139988 132.2540012  12.2394997  22.5409988
 131.4100012  11.0784997  23.0209988 131.5211372  11.7760803  22.5134344
 131.7990012   9.8714997  24.2379988 131.0720012   9.3924997  24.6349988
 132.3800012  10.0774997  24.9699988 131.7779375   9.8337090  24.3914129
 131.5580012  12.6564997  29.1849988 132.3910012  12.2784997  28.9049988
 131.6700012  13.5994997  29.0659988 131.6872647  12.7322218  29.1305487
 130.0440012  15.5344997  31.4919988 129.3970012  15.8594997  32.1179988
 129.5270012  15.0944997  30.8179988 129.8854029  15.5195004  31.4865827
 132.0670012   9.7724997  20.6289988 131.5450012  10.1294997  19.9099988
 132.0340012  10.4474997  21.3069988 131.9911634   9.9125413  20.6223145
 130.4160012   7.0124997  19.1799988 130.5120012   7.6794997  18.4989988
 130.2760012   6.1964997  18.6979988 130.4102135   6.9934500  19.0218491
 129.5850012   8.3924997  24.8009988 129.4350012   7.4474997  24.7799988
 129.2320012   8.6734997  25.6439988 129.5166625   8.3010441  24.9122346
 114.6210012  10.4704997  28.8109988 114.8050012  10.3884997  27.8749988
 115.4700012  10.3464997  29.2349988 114.7610139  10.4425003  28.7401455
 130.4420012  10.3624997  34.4389988 131.0250012   9.6284997  34.6309988
 131.0060012  11.1344997  34.4859988 130.5979769  10.3664227  34.4716159
 131.9380012   8.2654997  35.1239988 131.0750012   7.8864997  34.9579988
 132.5430012   7.5264997  35.0499988 131.9015979   8.1138023  35.0912817
 129.6630012   4.4204997  18.2969988 130.2740012   4.0494997  18.9339988
 128.8270012   3.9994997  18.4929988 129.6335032   4.3127554  18.4107035
 129.2960012   5.9754997  23.2629988 129.5760012   5.0684997  23.3869988
 130.0550012   6.4094997  22.8739988 129.4369277   5.9100942  23.2273682
 129.9080012   6.5564997  28.6989988 130.8410012   6.7684997  28.6649988
 129.6730012   6.6584997  29.6209988 130.0038036   6.5992769  28.8189976
 129.9370012   7.2934997  31.4749988 129.0940012   7.5614997  31.8409988
 130.3790012   8.1154997  31.2639988 129.8814158   7.4413291  31.4965491
 114.2180012   5.7414997  34.9519988 115.1380012   5.6194997  35.1879988
 113.7690012   4.9914997  35.3409988 114.2831580   5.6233727  35.0369006
 132.2200012   1.2734997  36.8279988 132.5700012   0.6194997  36.2229988
 132.3670012   2.1104997  36.3889988 132.2878419   1.2971591  36.6857118
 129.9090012   3.2384997  23.3109988 130.0920012   2.7894997  24.1369988
 129.3100012   2.6534997  22.8479988 129.8530202   3.0979975  23.3613275
 115.4390012   4.0534997  27.8429988 115.8850012   3.2614997  28.1449988
 115.9060012   4.7694997  28.2739988 115.5630172   4.0420624  27.9424820
 113.7430012   7.0524997  28.9119988 114.2350012   6.8314997  28.1209988
 114.1060012   7.8934997  29.1929988 113.8593126   7.1358357  28.8417531
 131.7400012   3.3824997  35.1779988 130.8220012   3.6534997  35.1419988
 131.8630012   2.8474997  34.3929988 131.6311066   3.3472892  35.0670487
 131.7760012   3.3054997  19.8389988 132.1880012   2.5844997  19.3639988
 132.4580012   3.9754997  19.8979988 131.9245885   3.2972368  19.7818915
 114.0570012   3.3104997  22.9659988 113.1320012   3.5194997  22.8369988
 114.5110012   3.7944997  22.2769988 113.9917368   3.4045993  22.8551226
 128.8280012  18.2944997  24.9119988 129.4800012  17.9474997  24.3039988
 129.3380012  18.7834997  25.5579988 128.9862637  18.3130597  24.9160236
 114.0210012   2.0484997  31.3109988 113.3560012   1.8024997  31.9539988
 113.5780012   2.6704997  30.7329988 113.8700956   2.0988632  31.3209352
 116.2130012  15.2234997  35.4549988 115.3920012  15.3984997  34.9949988
 115.9600012  15.1504997  36.3759988 116.0666164  15.2375622  35.5164923
 119.1670012  16.1984997  31.7139988 118.7420012  17.0074997  31.4309988
 120.0710012  16.2834997  31.4119988 119.2310271  16.3208469  31.6343776
 123.4780012  17.5974997  34.6729988 123.6630012  17.2634997  35.5509988
 124.3240012  17.9064997  34.3509988 123.6177539  17.5936047  34.7495605
 125.8230012  18.8834997  33.9169988 126.5000012  18.2504997  33.6769988
 126.1450012  19.2844997  34.7239988 125.9591637  18.8511154  33.9932793
 130.7400012   1.4724997  32.9969988 129.9280012   1.7974997  32.6089988
 130.9730012   0.7124997  32.4639988 130.6603423   1.4142436  32.8718253
 116.5690012  19.4544997  31.7609988 115.8480012  19.8944997  31.3099988
 116.2030012  19.2034997  32.6099988 116.4209804  19.4807698  31.8139840
 119.0360012  19.0544997  30.7909988 118.1710012  19.1264997  31.1949988
 118.9810012  19.6014997  30.0069988 118.9102085  19.1382685  30.7403362
 123.7460012  18.9424997  29.9659988 123.2900012  19.4714997  29.3119988
 123.9090012  19.5454997  30.6919988 123.7055585  19.0964468  29.9745062
 126.0740012  17.8204997  30.9109988 125.1690012  17.9854997  30.6459988
 126.5030012  18.6734997  30.8459988 126.0080799  17.9584483  30.8659182
 128.6780012  19.3904997  31.2059988 128.4960012  20.3064997  30.9959988
 128.8550012  18.9804997  30.3599988 128.6770210  19.4604822  31.0627885
 115.9830012  18.0774997  28.6709988 115.9650012  17.6524997  29.5289988
 116.7880012  17.7594997  28.2629988 116.0893875  17.9763812  28.7331655
 118.1250012  16.7874997  27.3259988 117.9060012  15.8714997  27.4959988
 118.9490012  16.9274997  27.7919988 118.2064420  16.6810520  27.4122774
 120.6620012  17.2574997  28.1749988 120.8750012  16.3694997  27.8879988
 120.7260012  17.2234997  29.1289988 120.6998232  17.1313102  28.2647397
 124.1700012   2.9214997  27.3189988 123.4960012   2.2924997  27.5749988
 124.7340012   2.4374997  26.7159988 124.1539230   2.7698744  27.2725340
 129.3130012   1.0294997  27.4319988 129.9170012   1.5764997  26.9299988
 128.4430012   1.3484997  27.1919988 129.2781241   1.1475806  27.3307654
 131.0400012   2.1674997  25.7649988 131.6520012   1.6534997  25.2389988
 131.4220012   3.0454997  25.7889988 131.1754540   2.2157140  25.6961830
 116.4970012   1.5554997  25.1409988 115.7200012   1.3214997  24.6339988
 117.0270012   0.7584997  25.1499988 116.4622330   1.4156988  25.0727742
 115.3330012   1.3534997  20.9449988 115.7720012   1.9644997  20.3529988
 114.7000012   1.8914997  21.4189988 115.3074514   1.5099257  20.9280930
 121.0760012   1.4824997  24.9549988 121.9510012   1.8704997  24.9249988
 120.9400012   1.2674997  25.8769988 121.1773695   1.5065184  25.0756440
 126.6330012   1.5124997  26.6039988 126.7090012   1.6074997  25.6539988
 126.3580012   0.6044997  26.7329988 126.6062321   1.4027867  26.4915079
 127.9860012   1.5384997  22.2959988 127.2840012   2.1534997  22.0869988
 127.5420012   0.7004997  22.4269988 127.8296330   1.5095783  22.2850328
 115.2340012  17.3014997  21.8429988 114.5490012  17.2634997  21.1749988
 115.2380012  18.2144997  22.1309988 115.1408193  17.4197016  21.7905284
 117.1940012   3.2694997  19.3869988 117.6860012   2.6394997  18.8599988
 117.8180012   3.5654997  20.0509988 117.3455446   3.2233199  19.4045980
 122.2200012   3.5624997  21.8439988 122.3980012   2.9164997  22.5269988
 122.1670012   4.3964997  22.3119988 122.2371829   3.5867985  22.0005940
 124.0990012  18.5114997  20.2399988 124.9650012  18.8774997  20.0619988
 123.8520012  18.0714997  19.4259988 124.1842392  18.5021756  20.1056289
 130.8080012  18.0744997  22.9189988 130.6130012  17.3264997  22.3539988
 130.7690012  18.8324997  22.3359988 130.7760380  18.0746099  22.7628384
 116.4550012   2.0694997  34.6589988 116.0890012   1.3044997  35.1019988
 117.3680012   2.0984997  34.9459988 116.5282790   1.9687224  34.7584070
 118.4280012   1.4204997  36.1949988 119.3260012   1.1464997  36.0099988
 118.0410012   0.6774997  36.6589988 118.4986612   1.2825914  36.2323643
 117.0520012  18.2214997  18.8679988 116.7850012  18.5084997  19.7409988
 117.8240012  17.6754997  19.0199988 117.1197488  18.1870294  19.0081050
 126.8490012   0.7524997  36.3769988 126.9260012   0.3264997  37.2309988
 127.7430012   0.7664997  36.0339988 126.9803428   0.6960879  36.4475310
 130.0250012  16.8254997  35.0689988 129.2430012  16.6394997  34.5499988
 129.9530012  17.7544997  35.2869988 129.9081777  16.9256492  35.0274048
 144.4310012  10.7114997  25.0999988 144.5200012  11.6554997  24.9679988
 143.7930012  10.4364997  24.4419988 144.3569081  10.8034830  24.9929614
 143.3640012   9.9664997  28.5189988 143.3260012   9.3204997  29.2239988
 143.0420012   9.5004997  27.7479988 143.3152333   9.8149408  28.5112978
 135.7330012   9.5814997  30.1119988 135.7740012   8.9554997  30.8349988
 136.4360012  10.2054997  30.2939988 135.8336363   9.5801196  30.2356044
 136.6560012  14.0314997  28.6469988 136.2870012  13.2294997  28.2769988
 137.5970012  13.8624997  28.6929988 136.7327289  13.8990153  28.6026316
 133.2660012   7.6914997  24.0399988 132.8190012   8.5374997  24.0209988
 132.7050012   7.1114997  23.5239988 133.1289900   7.7289916  23.9676801
 133.9770012   9.8534997  26.1659988 134.1900012   9.0834997  26.6929988
 134.7150012   9.9424997  25.5619988 134.1058496   9.7601394  26.1565300
 144.1820012  18.0104997  27.0329988 144.8020012  17.3334997  26.7589988
 143.9740012  17.7924997  27.9409988 144.2386904  17.8883870  27.1183365
 141.7540012  12.3994997  28.9249988 142.0580012  11.7134997  28.3299988
 142.4750012  12.5174997  29.5429988 141.8930671  12.3216304  28.9271816
 144.8950012   6.7934997  29.2529988 145.0370012   5.8474997  29.2729988
 144.7880012   7.0004997  28.3239988 144.8999863   6.6919534  29.1302339
 138.0490012   4.8944997  26.5249988 138.0930012   5.7544997  26.1069988
 137.5920012   4.3424997  25.8909988 137.9932185   4.9375799  26.3820299
 134.6700012   7.2914997  27.2869988 135.3230012   6.7414997  27.7189988
 134.6940012   7.0174997  26.3699988 134.7626683   7.1791466  27.2222123
 139.8260012   8.8414997  26.5019988 140.4420012   8.3154997  27.0119988
 139.2400012   8.2014997  26.0989988 139.8310810   8.6829208  26.5173173
 136.8600012   3.8124997  30.5989988 136.6410012   4.3424997  29.8329988
 136.1920012   4.0394997  31.2459988 136.7397600   3.9156906  30.5816379
 144.2290012  13.3124997  24.1429988 143.9330012  12.9904997  23.2919988
 143.9040012  14.2124997  24.1839988 144.1446371  13.3900215  24.0321801
 139.4290012  11.4884997  30.8859988 138.6890012  12.0864997  30.9899988
 140.1430012  12.0424997  30.5709988 139.4242237  11.6452831  30.8576465
 136.4530012   5.7044997  28.5509988 137.0670012   6.3374997  28.9249988
 136.9650012   5.2324997  27.8949988 136.6062296   5.7272370  28.5134252
 137.8360012  13.4524997  31.6739988 137.8310012  14.3324997  31.2959988
 136.9830012  13.3694997  32.0989988 137.7199464  13.5616117  31.6797907
 133.9570012  13.1234997  22.4559988 133.6850012  13.3524997  21.5669988
 134.0030012  13.9614997  22.9159988 133.9260094  13.2681213  22.3965697
 140.8860012   1.1184997  28.0519988 140.7690012   0.1694997  27.9969988
 140.0310012   1.4504997  28.3249988 140.7543733   1.0335409  28.0813897
 143.1530012   9.9554997  22.5519988 142.4410012  10.4904997  22.1999988
 143.8440012  10.0114997  21.8919988 143.1490132  10.0362543  22.4146289
 143.2060012   8.4134997  19.5909988 143.9070012   8.4354997  20.2419988
 143.5090012   7.7854997  18.9349988 143.3427830   8.3316566  19.5913711
 138.2040012  10.7954997  25.3859988 137.8730012  10.4254997  24.5679988
 138.7920012  10.1254997  25.7329988 138.2381873  10.6541156  25.3208102
 139.5700012  14.2234997  28.0679988 139.4760012  13.6454997  27.3109988
 140.3000012  13.8524997  28.5639988 139.6557981  14.0942390  28.0314165
 138.5700012   9.5644997  29.0199988 139.1360012   9.6854997  28.2569988
 138.8890012  10.2014997  29.6589988 138.6905786   9.6671884  29.0020040
 144.8790012  15.0674997  29.7539988 144.6390012  15.7294997  30.4019988
 144.6810012  14.2334997  30.1789988 144.8193808  15.0453134  29.9001524
 139.4500012  13.9634997  33.7369988 139.1390012  14.7454997  34.1919988
 138.8000012  13.8104997  33.0509988 139.3195558  14.0499105  33.7065871
 136.3700012  10.1614997  32.9659988 136.4410012  10.8124997  33.6639988
 135.4800012  10.2644997  32.6309988 136.2593117  10.2645936  33.0162700
 143.1560012  16.0644997  24.6239988 143.6300012  16.3594997  25.4019988
 142.5930012  16.8024997  24.3909988 143.1447653  16.2046932  24.6990136
 137.6900012  16.0354997  34.4999988 137.6970012  15.8994997  33.5529988
 136.7740012  15.9174997  34.7519988 137.5671714  16.0009430  34.4044666
 137.1940012   9.8654997  22.9759988 136.9020012  10.6334997  22.4849988
 136.5200012   9.2054997  22.8129988 137.0629081   9.8814406  22.8867340
 133.2870012  12.2284997  31.7909988 132.7860012  12.2004997  30.9759988
 133.2920012  11.3224997  32.0999988 133.2191526  12.1022278  31.7212872
 133.0370012  15.0084997  28.6749988 133.9830012  14.8644997  28.6559988
 132.9250012  15.7924997  29.2119988 133.1512727  15.0948046  28.7450072
 142.2140012  15.2484997  33.2329988 142.3010012  16.0744997  33.7079988
 141.3500012  14.9184997  33.4819988 142.1091964  15.3169878  33.3316549
 142.6280012  19.0204997  23.0389988 142.5530012  18.8994997  22.0929988
 142.6610012  19.9704997  23.1579988 142.6221848  19.1322500  22.9254834
 136.2810012  17.8094997  24.8199988 136.4340012  17.4614997  25.6989988
 135.4310012  17.4534997  24.5649988 136.1868962  17.7136650  24.9058340
 135.5360012  13.5514997  32.8339988 135.7520012  13.1904997  33.6929988
 134.6810012  13.1774997  32.6239988 135.4499292  13.4514111  32.9233386
 138.1550012   2.0214997  28.8289988 137.2930012   1.9344997  28.4219988
 138.1320012   2.8774997  29.2569988 138.0340330   2.1252765  28.8311863
 142.8180012   1.7434997  32.2039988 143.2380012   1.3284997  32.9569988
 141.8850012   1.5654997  32.3209988 142.7493644   1.6625900  32.3229539
 142.4790012   4.2364997  19.4889988 142.2260012   4.2554997  20.4119988
 142.2230012   3.3644997  19.1879988 142.4097790   4.1212437  19.5746263
 138.2460012   6.9874997  29.9239988 137.6040012   6.9464997  30.6329988
 138.2830012   7.9134997  29.6869988 138.1631324   7.1071559  29.9889824
 138.2430012   7.2084997  24.8359988 137.3500012   6.8674997  24.7779988
 138.6930012   6.8314997  24.0809988 138.1817305   7.1108484  24.7259177
 143.7780012   7.6244997  23.6529988 143.3690012   8.4394997  23.3619988
 144.4990012   7.4844997  23.0389988 143.8194537   7.7172018  23.5301342
 142.8800012   7.7994997  35.1409988 142.3180012   7.0954997  35.4619988
 143.7070012   7.6794997  35.6089988 142.9147095   7.6867883  35.2482330
 144.7830012   7.0704997  26.4669988 144.5880012   7.6754997  25.7519988
 144.9640012   6.2364997  26.0329988 144.7807614   7.0406300  26.3104405
 135.9960012   7.3074997  31.7909988 135.9580012   7.7074997  32.6599988
 135.5050012   6.4904997  31.8819988 135.9244684   7.2518069  31.9221059
 139.3620012   4.6814997  18.5899988 138.9310012   4.2364997  19.3199988
 138.6440012   5.0534997  18.0779988 139.2059438   4.6708940  18.6206799
 132.6040012   4.4234997  25.6419988 133.2350012   4.3944997  26.3609988
 133.0530012   3.9984997  24.9119988 132.7510774   4.3620492  25.6416553
 133.8780012   5.1694997  21.0659988 134.3520012   5.7604997  20.4809988
 133.1610012   5.7004997  21.4129988 133.8459341   5.3220867  21.0328836
 144.0470012   8.7084997  31.1389988 144.3700012   8.0774997  30.4959988
 143.6070012   8.1734997  31.7989988 144.0316895   8.5498440  31.1402850
 140.8240012   4.6354997  25.9229988 139.9130012   4.6924997  26.2109988
 141.3300012   4.5754997  26.7329988 140.7675413   4.6351985  26.0720622
 135.6530012   6.2644997  24.7489988 134.7630012   6.3644997  24.4089988
 135.9490012   5.4224997  24.4029988 135.5712823   6.1643546  24.6557213
 139.3060012   6.2644997  22.4059988 140.2370012   6.3934997  22.5839988
 139.0910012   6.9344997  21.7559988 139.4044247   6.3726565  22.3425747
 137.9800012   7.4594997  19.9729988 137.4370012   7.0794997  19.2809988
 138.8130012   7.6534997  19.5439988 138.0184399   7.4338124  19.8204526
 136.1150012  12.0164997  35.0719988 136.8470012  12.2704997  35.6329988
 135.3350012  12.2204997  35.5869988 136.1098232  12.0789177  35.2185760
 142.1440012   7.4234997  27.8099988 142.7090012   6.8764997  27.2629988
 141.9970012   6.9014997  28.5979988 142.2012918   7.2782024  27.8418454
 137.1460012   3.5594997  24.2279988 136.8290012   2.6574997  24.1929988
 137.9280012   3.5614997  23.6749988 137.2082284   3.4361628  24.1484783
 140.7710012   5.8114997  30.2239988 139.9350012   6.2654997  30.3339988
 141.2950012   6.0874997  30.9759988 140.7274414   5.9109376  30.3407136
 141.3150012  12.0244997  21.9079988 140.5700012  11.5174997  21.5859988
 141.1810012  12.0734997  22.8549988 141.1948776  11.9616940  21.9918647
 142.8340012  12.2084997  33.1449988 142.4890012  11.8274997  33.9519988
 142.6340012  13.1424997  33.2169988 142.7598061  12.2825228  33.2650961
 136.4400012  11.3194997  27.6779988 137.1850012  11.3174997  27.0769988
 136.5180012  10.4964997  28.1599988 136.5525518  11.2079315  27.6608929
 143.4410012  13.4834997  20.9339988 143.1450012  14.3094997  21.3149988
 142.7380012  12.8634997  21.1299988 143.3054914  13.5128199  21.0126443
 133.4480012   9.7804997  32.9929988 133.6710012   9.3624997  33.8249988
 132.8460012   9.1674997  32.5699988 133.3971759   9.6404668  33.0497022
 140.4640012   9.2974997  35.2059988 140.1680012   9.1314997  34.3109988
 141.3960012   9.0774997  35.1949988 140.5494166   9.2450640  35.0820536
 138.8150012  14.8374997  25.0819988 139.3420012  15.6104997  24.8819988
 137.9350012  15.0624997  24.7809988 138.7681773  14.9738005  25.0139010
 134.5700012   9.6994997  19.6689988 135.1860012  10.3264997  20.0489988
 133.7080012  10.0154997  19.9409988 134.5377698   9.8279430  19.7577183
 140.2420012  12.5004997  24.6589988 140.0010012  13.4254997  24.6999988
 139.5010012  12.0414997  25.0549988 140.1088409  12.5651421  24.7181377
 140.7570012  16.6494997  30.9739988 141.1190012  17.5044997  30.7399988
 141.2880012  16.3574997  31.7139988 140.8784473  16.7271060  31.0420855
 138.9250012  17.5224997  24.2039988 137.9750012  17.6274997  24.2549988
 139.2770012  18.3424997  24.5489988 138.8424203  17.6478314  24.2576650
 144.3010012  12.7484997  30.6739988 143.8750012  12.5214997  31.5009988
 144.8810012  12.0104997  30.4919988 144.3211868  12.6175299  30.7625830
 135.0820012   4.5334997  32.5509988 134.1890012   4.8724997  32.4829988
 134.9830012   3.6784997  32.9689988 134.9464164   4.4642588  32.5982235
 134.7330012  16.3384997  30.9859988 134.9500012  15.4064997  30.9549988
 134.9790012  16.6124997  31.8689988 134.7959549  16.2480636  31.1011763
 140.5950012  14.7894997  18.1949988 140.8340012  14.0414997  17.6479988
 140.3260012  14.4014997  19.0279988 140.5913675  14.6346638  18.2326865
 139.5320012  14.3594997  20.6519988 139.6780012  13.8394997  21.4419988
 139.5290012  15.2664997  20.9579988 139.5515989  14.4108853  20.8016088
 135.9850012  11.6124997  21.1619988 135.2990012  11.9644997  21.7289988
 136.5070012  12.3754997  20.9149988 135.9616852  11.7638578  21.2062118
 143.8160012   4.2744997  31.4409988 144.5150012   4.3484997  32.0909988
 143.4350012   3.4104997  31.5949988 143.8601767   4.1677624  31.5508322
 144.6010012   3.9264997  22.5379988 144.8210012   4.3984997  21.7349988
 145.1590012   4.3214997  23.2079988 144.7064968   4.0444285  22.5187331
 142.2690012  16.0574997  21.4009988 141.4530012  16.5544997  21.4529988
 142.7990012  16.5324997  20.7609988 142.2289161  16.1897722  21.3215956
 141.8010012   5.6544997  23.3729988 142.6130012   6.1594997  23.4189988
 141.5560012   5.5094997  24.2869988 141.8790520   5.7040375  23.5028517
 142.3360012   6.6404997  32.5579988 142.4550012   7.2144997  33.3149988
 142.9920012   5.9524997  32.6719988 142.4409757   6.6261079  32.6770825
 142.6840012   2.7354997  24.3109988 142.3380012   3.3534997  24.9559988
 143.3430012   3.2364997  23.8299988 142.7257826   2.8875802  24.3340971
 139.6080012  17.1014997  21.3829988 139.7680012  17.9004997  20.8819988
 139.4100012  17.4074997  22.2679988 139.6031649  17.2524469  21.4339815
 138.3420012   3.7984997  20.9979988 138.2590012   4.6874997  21.3449988
 139.2320012   3.5334997  21.2299988 138.4509469   3.8841430  21.0767626
 136.6010012  14.2264997  20.0589988 137.1930012  14.9254997  20.3349988
 137.0600012  13.7934997  19.3389988 136.7441142  14.2637049  19.9994830
 134.9170012   6.8904997  19.1749988 134.8720012   7.8294997  19.3529988
 134.0290012   6.6544997  18.9049988 134.7908574   6.9871892  19.1628912
 135.7250012   1.6724997  27.8479988 135.4960012   1.7314997  26.9199988
 135.2820012   0.8804997  28.1539988 135.6338530   1.5735753  27.7624786
 134.6550012  15.6124997  24.0079988 133.8230012  16.0854997  24.0359988
 135.2010012  16.1224997  23.4099988 134.6149739  15.7461871  23.9309716
 133.9430012  18.2254997  35.3379988 134.4840012  18.0084997  36.0979988
 133.4620012  17.4194997  35.1489988 133.9519345  18.0869514  35.4163076
 138.5410012  17.1444997  36.9589988 139.3080012  16.6854997  37.2999988
 138.5190012  16.9184997  36.0289988 138.6431434  17.0510409  36.8800043
 142.6330012  16.6524997  18.3339988 141.9890012  16.0214997  18.6549988
 143.3950012  16.1214997  18.1019988 142.6478077  16.4942920  18.3466011
 133.8500012  12.0354997  36.2929988 133.9940012  11.1334997  36.0059988
 133.0780012  12.3214997  35.8049988 133.7653322  11.9508261  36.1877881
 138.1920012  12.3794997  18.4249988 138.2560012  11.5854997  18.9559988
 138.8450012  12.2604997  17.7349988 138.2890241  12.2547148  18.4044317
 140.5060012  12.0054997  35.7249988 140.1770012  12.2764997  34.8679988
 140.6580012  11.0644997  35.6379988 140.4814809  11.9153862  35.5958244
 143.5440012  13.4264997  18.1609988 143.2750012  13.6064997  19.0619988
 143.3380012  12.5004997  18.0299988 143.4793825  13.3260152  18.2665214
 134.6830012   9.2354997  35.7129988 135.0910012   8.3784997  35.5919988
 134.4230012   9.2504997  36.6339988 134.7037568   9.1200807  35.8209588
 139.3410012  10.3514997  20.7309988 138.8810012   9.8674997  21.4169988
 139.5960012   9.6834997  20.0949988 139.3124902  10.1948731  20.7389334
 138.6300012   8.2444997  33.0869988 138.0120012   8.9194997  33.3669988
 138.9740012   8.5654997  32.2539988 138.5919615   8.3802721  33.0126581
 140.4120012   8.5944997  18.9929988 140.2320012   8.4404997  18.0659988
 141.3620012   8.7024997  19.0379988 140.5157776   8.5880175  18.8721843
 143.6500012  10.7164997  36.3639988 144.6030012  10.7994997  36.3369988
 143.4890012  10.0044997  36.9839988 143.7586426  10.6316746  36.4440579
 138.9690012   5.5994997  34.1689988 139.1190012   4.8704997  33.5669988
 138.9720012   6.3764997  33.6099988 138.9899302   5.6047851  34.0110692
 139.3820012   3.9694997  31.6619988 139.9180012   4.4204997  31.0099988
 138.5300012   3.8614997  31.2389988 139.3402178   4.0166390  31.5155756
 140.9640012   9.4084997  31.9009988 141.7140012   9.2524997  31.3279988
 140.6250012  10.2604997  31.6259988 141.0208921   9.5022968  31.7853561
 137.4480012   6.7974997  36.0809988 136.6810012   6.2654997  35.8709988
 138.1270012   6.4874997  35.4809988 137.4347022   6.6827506  35.9711648
 140.1880012   1.4254997  32.0929988 140.0890012   2.3724997  31.9879988
 139.4450012   1.0534997  31.6179988 140.0740564   1.5045902  32.0144560
 141.4520012   5.7474997  35.6569988 141.2160012   5.5274997  36.5589988
 140.6680012   5.5404997  35.1469988 141.3138628   5.6894760  35.7113932
 144.1670012   4.8744997  34.7329988 143.2200012   4.9064997  34.8649988
 144.4800012   4.2494997  35.3859988 144.0795475   4.7943207  34.8394455
 135.6280012   4.7184997  35.7849988 135.8400012   4.0114997  35.1749988
 135.5170012   4.2804997  36.6289988 135.6419721   4.5627084  35.8156843
 140.4090012   0.7194997  34.7649988 141.1210012   0.0794997  34.7509988
 140.3080012   0.9864997  33.8509988 140.4927939   0.6679938  34.6395650
 140.7630012   2.4024997  36.8179988 140.6310012   1.9264997  35.9979988
 140.1640012   3.1464997  36.7629988 140.6639071   2.4379618  36.6982886
 140.3090012  19.2854997  19.9949988 141.2420012  19.4434997  20.1379988
 140.0450012  19.9604997  19.3699988 140.4009510  19.3983611  19.9300741
 133.8780012  13.9214997  19.4769988 134.7920012  14.0004997  19.7509988
 133.8850012  13.2344997  18.8109988 134.0041131  13.8393961  19.4244393
 132.5270012  19.3144997  24.5549988 131.8800012  18.8524997  24.0219988
 132.8810012  18.6424997  25.1369988 132.4863849  19.1604723  24.5607959
 133.3970012  17.3954997  26.3589988 133.0620012  16.5154997  26.5309988
 133.6190012  17.7404997  27.2239988 133.3811783  17.3217501  26.4994208
 133.4770012  10.4704997  28.8109988 133.6610012  10.3884997  27.8749988
 134.3260012  10.3464997  29.2349988 133.6170139  10.4425003  28.7401455
 133.0740012   5.7414997  34.9519988 133.9940012   5.6194997  35.1879988
 132.6250012   4.9914997  35.3409988 133.1391580   5.6233727  35.0369006
 134.2950012   4.0534997  27.8429988 134.7410012   3.2614997  28.1449988
 134.7620012   4.7694997  28.2739988 134.4190172   4.0420624  27.9424820
 132.5990012   7.0524997  28.9119988 133.0910012   6.8314997  28.1209988
 132.9620012   7.8934997  29.1929988 132.7153126   7.1358357  28.8417531
 132.9130012   3.3104997  22.9659988 131.9880012   3.5194997  22.8369988
 133.3670012   3.7944997  22.2769988 132.8477368   3.4045993  22.8551226
 132.8770012   2.0484997  31.3109988 132.2120012   1.8024997  31.9539988
 132.4340012   2.6704997  30.7329988 132.7260956   2.0988632  31.3209352
 135.0690012  15.2234997  35.4549988 134.2480012  15.3984997  34.9949988
 134.8160012  15.1504997  36.3759988 134.9226164  15.2375622  35.5164923
 138.0230012  16.1984997  31.7139988 137.5980012  17.0074997  31.4309988
 138.9270012  16.2834997  31.4119988 138.0870271  16.3208469  31.6343776
 142.3340012  17.5974997  34.6729988 142.5190012  17.2634997  35.5509988
 143.1800012  17.9064997  34.3509988 142.4737539  17.5936047  34.7495605
 144.6790012  18.8834997  33.9169988 145.3560012  18.2504997  33.6769988
 145.0010012  19.2844997  34.7239988 144.8151637  18.8511154  33.9932793
 135.4250012  19.4544997  31.7609988 134.7040012  19.8944997  31.3099988
 135.0590012  19.2034997  32.6099988 135.2769804  19.4807698  31.8139840
 137.8920012  19.0544997  30.7909988 137.0270012  19.1264997  31.1949988
 137.8370012  19.6014997  30.0069988 137.7662085  19.1382685  30.7403362
 142.6020012  18.9424997  29.9659988 142.1460012  19.4714997  29.3119988
 142.7650012  19.5454997  30.6919988 142.5615585  19.0964468  29.9745062
 134.8390012  18.0774997  28.6709988 134.8210012  17.6524997  29.5289988
 135.6440012  17.7594997  28.2629988 134.9453875  17.9763812  28.7331655
 136.9810012  16.7874997  27.3259988 136.7620012  15.8714997  27.4959988
 137.8050012  16.9274997  27.7919988 137.0624420  16.6810520  27.4122774
 139.5180012  17.2574997  28.1749988 139.7310012  16.3694997  27.8879988
 139.5820012  17.2234997  29.1289988 139.5558232  17.1313102  28.2647397
 143.0260012   2.9214997  27.3189988 142.3520012   2.2924997  27.5749988
 143.5900012   2.4374997  26.7159988 143.0099230   2.7698744  27.2725340
 135.3530012   1.5554997  25.1409988 134.5760012   1.3214997  24.6339988
 135.8830012   0.7584997  25.1499988 135.3182330   1.4156988  25.0727742
 134.1890012   1.3534997  20.9449988 134.6280012   1.9644997  20.3529988
 133.5560012   1.8914997  21.4189988 134.1634514   1.5099257  20.9280930
 139.9320012   1.4824997  24.9549988 140.8070012   1.8704997  24.9249988
 139.7960012   1.2674997  25.8769988 140.0333695   1.5065184  25.0756440
 134.0900012  17.3014997  21.8429988 133.4050012  17.2634997  21.1749988
 134.0940012  18.2144997  22.1309988 133.9968193  17.4197016  21.7905284
 136.0500012   3.2694997  19.3869988 136.5420012   2.6394997  18.8599988
 136.6740012   3.5654997  20.0509988 136.2015446   3.2233199  19.4045980
 141.0760012   3.5624997  21.8439988 141.2540012   2.9164997  22.5269988
 141.0230012   4.3964997  22.3119988 141.0931829   3.5867985  22.0005940
 142.9550012  18.5114997  20.2399988 143.8210012  18.8774997  20.0619988
 142.7080012  18.0714997  19.4259988 143.0402392  18.5021756  20.1056289
 135.3110012   2.0694997  34.6589988 134.9450012   1.3044997  35.1019988
 136.2240012   2.0984997  34.9459988 135.3842790   1.9687224  34.7584070
 137.2840012   1.4204997  36.1949988 138.1820012   1.1464997  36.0099988
 136.8970012   0.6774997  36.6589988 137.3546612   1.2825914  36.2323643
 135.9080012  18.2214997  18.8679988 135.6410012  18.5084997  19.7409988
 136.6800012  17.6754997  19.0199988 135.9757488  18.1870294  19.0081050
  12.4390012  29.5674997  25.0999988  12.5280012  30.5114997  24.9679988
  11.8010012  29.2924997  24.4419988  12.3649081  29.6594830  24.9929614
  11.3720012  28.8224997  28.5189988  11.3340012  28.1764997  29.2239988
  11.0500012  28.3564997  27.7479988  11.3232333  28.6709408  28.5112978
   3.7410012  28.4374997  30.1119988   3.7820012  27.8114997  30.8349988
   4.4440012  29.0614997  30.2939988   3.8416363  28.4361196  30.2356044
  15.0780012  31.7614997  26.8199988  14.6380012  31.0414997  27.2709988
  15.0650012  32.4824997  27.4499988  15.0160226  31.7603731  26.9668494
   4.6640012  32.8874997  28.6469988   4.2950012  32.0854997  28.2769988
   5.6050012  32.7184997  28.6929988   4.7407289  32.7550153  28.6026316
   1.2740012  26.5474997  24.0399988   0.8270012  27.3934997  24.0209988
   0.7130012  25.9674997  23.5239988   1.1369900  26.5849916  23.9676801
   1.9850012  28.7094997  26.1659988   2.1980012  27.9394997  26.6929988
   2.7230012  28.7984997  25.5619988   2.1138496  28.6161394  26.1565300
  12.1900012  36.8664997  27.0329988  12.8100012  36.1894997  26.7589988
  11.9820012  36.6484997  27.9409988  12.2466904  36.7443870  27.1183365
   9.7620012  31.2554997  28.9249988  10.0660012  30.5694997  28.3299988
  10.4830012  31.3734997  29.5429988   9.9010671  31.1776304  28.9271816
  18.4250012  22.8564997  29.7859988  18.4740012  23.4664997  30.5219988
  18.8500012  23.3174997  29.0629988  18.4891824  23.0023741  29.7890205
  12.9030012  25.6494997  29.2529988  13.0450012  24.7034997  29.2729988
  12.7960012  25.8564997  28.3239988  12.9079864  25.5479534  29.1302339
   6.0570012  23.7504997  26.5249988   6.1010012  24.6104997  26.1069988
   5.6000012  23.1984997  25.8909988   6.0012185  23.7935799  26.3820299
  13.7800012  23.8814997  24.9259988  14.4260012  23.5524997  25.5509988
  14.2900012  24.3994997  24.3029988  13.9374264  23.9064611  24.9273862
   2.6780012  26.1474997  27.2869988   3.3310012  25.5974997  27.7189988
   2.7020012  25.8734997  26.3699988   2.7706683  26.0351466  27.2222123
   7.8340012  27.6974997  26.5019988   8.4500012  27.1714997  27.0119988
   7.2480012  27.0574997  26.0989988   7.8390810  27.5389208  26.5173173
  18.8160012  24.3344997  32.0219988  18.1280012  24.9924997  31.9259988
  18.8320012  24.1374997  32.9579988  18.7238525  24.3980462  32.1354808
   4.8680012  22.6684997  30.5989988   4.6490012  23.1984997  29.8329988
   4.2000012  22.8954997  31.2459988   4.7477600  22.7716906  30.5816379
  12.2370012  32.1684997  24.1429988  11.9410012  31.8464997  23.2919988
  11.9120012  33.0684997  24.1839988  12.1526371  32.2460215  24.0321801
   7.4370012  30.3444997  30.8859988   6.6970012  30.9424997  30.9899988
   8.1510012  30.8984997  30.5709988   7.4322237  30.5012831  30.8576465
  15.5440012  23.1724997  26.9059988  15.3280012  22.4064997  27.4389988
  16.1990012  23.6444997  27.4189988  15.6030632  23.1315889  27.0482861
   4.4610012  24.5604997  28.5509988   5.0750012  25.1934997  28.9249988
   4.9730012  24.0884997  27.8949988   4.6142296  24.5832370  28.5134252
   5.8440012  32.3084997  31.6739988   5.8390012  33.1884997  31.2959988
   4.9910012  32.2254997  32.0989988   5.7279464  32.4176117  31.6797907
   1.9650012  31.9794997  22.4559988   1.6930012  32.2084997  21.5669988
   2.0110012  32.8174997  22.9159988   1.9340094  32.1241213  22.3965697
  15.5900012  33.6014997  29.1679988  14.6490012  33.6594997  29.3299988
  15.8670012  34.5074997  29.0309988  15.4984679  33.7319443  29.1716815
  15.8910012  21.8874997  30.5859988  15.1550012  22.4984997  30.5479988
  16.5740012  22.3024997  30.0589988  15.8826541  22.0271374  30.5095832
   8.8940012  19.9744997  28.0519988   8.7770012  19.0254997  27.9969988
   8.0390012  20.3064997  28.3249988   8.7623733  19.8895409  28.0813897
  13.8420012  35.3824997  25.7939988  14.2680012  34.6754997  25.3089988
  14.1590012  36.1834997  25.3769988  13.9431019  35.3940994  25.6713130
  15.0020012  33.2834997  24.3019988  14.7440012  32.5934997  23.6909988
  15.0730012  32.8404997  25.1479988  14.9762856  33.1292124  24.3326885
  16.6880012  31.8494997  32.7799988  16.8280012  31.2584997  32.0399988
  16.8550012  32.7224997  32.4229988  16.7296778  31.8866426  32.6306965
  11.1610012  28.8114997  22.5519988  10.4490012  29.3464997  22.1999988
  11.8520012  28.8674997  21.8919988  11.1570132  28.8922543  22.4146289
  11.2140012  27.2694997  19.5909988  11.9150012  27.2914997  20.2419988
  11.5170012  26.6414997  18.9349988  11.3507830  27.1876566  19.5913711
  18.5300012  28.1894997  30.8459988  17.8770012  28.8844997  30.9349988
  18.9950012  28.3994997  30.0359988  18.5035390  28.3129425  30.7486883
  14.5660012  29.0214997  23.5039988  13.8340012  29.2494997  24.0769988
  15.0140012  28.3074997  23.9589988  14.5263095  28.9562571  23.6439119
  14.4640012  27.1954997  32.5709988  14.5440012  27.9584997  33.1429988
  13.8620012  27.4744997  31.8809988  14.3935756  27.3377134  32.5560589
   6.2120012  29.6514997  25.3859988   5.8810012  29.2814997  24.5679988
   6.8000012  28.9814997  25.7329988   6.2461873  29.5101156  25.3208102
   7.5780012  33.0794997  28.0679988   7.4840012  32.5014997  27.3109988
   8.3080012  32.7084997  28.5639988   7.6637981  32.9502390  28.0314165
   6.5780012  28.4204997  29.0199988   7.1440012  28.5414997  28.2569988
   6.8970012  29.0574997  29.6589988   6.6985786  28.5231884  29.0020040
  12.8870012  33.9234997  29.7539988  12.6470012  34.5854997  30.4019988
  12.6890012  33.0894997  30.1789988  12.8273808  33.9013134  29.9001524
   7.4580012  32.8194997  33.7369988   7.1470012  33.6014997  34.1919988
   6.8080012  32.6664997  33.0509988   7.3275558  32.9059105  33.7065871
  13.4370012  28.1834997  21.1889988  14.0170012  28.3334997  21.9359988
  13.8510012  28.6544997  20.4659988  13.5722830  28.2676841  21.1934134
   4.3780012  29.0174997  32.9659988   4.4490012  29.6684997  33.6639988
   3.4880012  29.1204997  32.6309988   4.2673117  29.1205936  33.0162700
  11.1640012  34.9204997  24.6239988  11.6380012  35.2154997  25.4019988
  10.6010012  35.6584997  24.3909988  11.1527653  35.0606932  24.6990136
   5.6980012  34.8914997  34.4999988   5.7050012  34.7554997  33.5529988
   4.7820012  34.7734997  34.7519988   5.5751714  34.8569430  34.4044666
  17.1360012  19.9334997  21.0019988  16.2360012  20.0724997  21.2969988
  17.3880012  20.7644997  20.5999988  17.0468702  20.0649074  20.9880205
   5.2020012  28.7214997  22.9759988   4.9100012  29.4894997  22.4849988
   4.5280012  28.0614997  22.8129988   5.0709081  28.7374406  22.8867340
  18.3250012  34.2994997  19.3779988  18.3990012  35.2384997  19.5489988
  19.2310012  33.9944997  19.3219988  18.4575100  34.3866722  19.3938119
   1.2950012  31.0844997  31.7909988   0.7940012  31.0564997  30.9759988
   1.3000012  30.1784997  32.0999988   1.2271526  30.9582278  31.7212872
   1.0450012  33.8644997  28.6749988   1.9910012  33.7204997  28.6559988
   0.9330012  34.6484997  29.2119988   1.1592727  33.9508046  28.7450072
  19.2430012  34.5304997  34.3569988  19.1940012  33.5754997  34.3199988
  18.4160012  34.7984997  34.7579988  19.1244940  34.4358998  34.4061375
  10.2220012  34.1044997  33.2329988  10.3090012  34.9304997  33.7079988
   9.3580012  33.7744997  33.4819988  10.1171964  34.1729878  33.3316549
  10.6360012  37.8764997  23.0389988  10.5610012  37.7554997  22.0929988
  10.6690012  38.8264997  23.1579988  10.6301848  37.9882500  22.9254834
   4.2890012  36.6654997  24.8199988   4.4420012  36.3174997  25.6989988
   3.4390012  36.3094997  24.5649988   4.1948962  36.5696650  24.9058340
  13.7380012  37.0304997  20.0409988  14.1130012  36.2864997  19.5709988
  13.7420012  36.7604997  20.9599988  13.7898915  36.8921486  20.1007824
  13.4070012  36.9564997  22.7909988  12.4710012  37.0564997  22.9689988
  13.6870012  36.2474997  23.3689988  13.3168255  36.8742711  22.8935391
  16.3950012  26.0234997  34.8369988  15.9880012  26.5044997  34.1159988
  16.4360012  25.1184997  34.5289988  16.3448437  25.9669374  34.6966683
   3.5440012  32.4074997  32.8339988   3.7600012  32.0464997  33.6929988
   2.6890012  32.0334997  32.6239988   3.4579292  32.3074111  32.9233386
   6.1630012  20.8774997  28.8289988   5.3010012  20.7904997  28.4219988
   6.1400012  21.7334997  29.2569988   6.0420330  20.9812765  28.8311863
  10.8260012  20.5994997  32.2039988  11.2460012  20.1844997  32.9569988
   9.8930012  20.4214997  32.3209988  10.7573644  20.5185900  32.3229539
  14.1520012  24.3554997  33.0569988  13.6380012  24.2294997  33.8549988
  13.9970012  25.2674997  32.8129988  14.0606852  24.4616132  33.1332158
  14.9150012  29.2164997  18.8189988  14.9570012  28.9934997  17.8889988
  15.7640012  29.6154997  19.0089988  15.0355396  29.2399155  18.7173627
  10.4870012  23.0924997  19.4889988  10.2340012  23.1114997  20.4119988
  10.2310012  22.2204997  19.1879988  10.4177790  22.9772437  19.5746263
   6.2540012  25.8434997  29.9239988   5.6120012  25.8024997  30.6329988
   6.2910012  26.7694997  29.6869988   6.1711324  25.9631559  29.9889824
   6.2510012  26.0644997  24.8359988   5.3580012  25.7234997  24.7779988
   6.7010012  25.6874997  24.0809988   6.1897305  25.9668484  24.7259177
  11.7860012  26.4804997  23.6529988  11.3770012  27.2954997  23.3619988
  12.5070012  26.3404997  23.0389988  11.8274537  26.5732018  23.5301342
  10.8880012  26.6554997  35.1409988  10.3260012  25.9514997  35.4619988
  11.7150012  26.5354997  35.6089988  10.9227095  26.5427883  35.2482330
  12.7910012  25.9264997  26.4669988  12.5960012  26.5314997  25.7519988
  12.9720012  25.0924997  26.0329988  12.7887614  25.8966300  26.3104405
   4.0040012  26.1634997  31.7909988   3.9660012  26.5634997  32.6599988
   3.5130012  25.3464997  31.8819988   3.9324684  26.1078069  31.9221059
   7.3700012  23.5374997  18.5899988   6.9390012  23.0924997  19.3199988
   6.6520012  23.9094997  18.0779988   7.2139438  23.5268940  18.6206799
   0.6120012  23.2794997  25.6419988   1.2430012  23.2504997  26.3609988
   1.0610012  22.8544997  24.9119988   0.7590774  23.2180492  25.6416553
   1.8860012  24.0254997  21.0659988   2.3600012  24.6164997  20.4809988
   1.1690012  24.5564997  21.4129988   1.8539341  24.1780867  21.0328836
  12.0550012  27.5644997  31.1389988  12.3780012  26.9334997  30.4959988
  11.6150012  27.0294997  31.7989988  12.0396895  27.4058441  31.1402850
   8.8320012  23.4914997  25.9229988   7.9210012  23.5484997  26.2109988
   9.3380012  23.4314997  26.7329988   8.7755413  23.4911985  26.0720622
   3.6610012  25.1204997  24.7489988   2.7710012  25.2204997  24.4089988
   3.9570012  24.2784997  24.4029988   3.5792823  25.0203545  24.6557213
   7.3140012  25.1204997  22.4059988   8.2450012  25.2494997  22.5839988
   7.0990012  25.7904997  21.7559988   7.4124247  25.2286565  22.3425747
  13.2370012  22.7264997  29.1869988  12.5610012  22.8574997  29.8509988
  12.7520012  22.5714997  28.3769988  13.0787145  22.7234905  29.1684517
   5.9880012  26.3154997  19.9729988   5.4450012  25.9354997  19.2809988
   6.8210012  26.5094997  19.5439988   6.0264399  26.2898124  19.8204526
  16.5250012  38.3984997  35.4639988  16.7250012  38.8224997  34.6289988
  17.1800012  38.7414997  36.0709988  16.6410051  38.5029648  35.4317836
   4.1230012  30.8724997  35.0719988   4.8550012  31.1264997  35.6329988
   3.3430012  31.0764997  35.5869988   4.1178232  30.9349177  35.2185760
  10.1520012  26.2794997  27.8099988  10.7170012  25.7324997  27.2629988
  10.0050012  25.7574997  28.5979988  10.2092918  26.1342024  27.8418454
   5.1540012  22.4154997  24.2279988   4.8370012  21.5134997  24.1929988
   5.9360012  22.4174997  23.6749988   5.2162284  22.2921628  24.1484783
   8.7790012  24.6674997  30.2239988   7.9430012  25.1214997  30.3339988
   9.3030012  24.9434997  30.9759988   8.7354414  24.7669376  30.3407136
   9.3230012  30.8804997  21.9079988   8.5780012  30.3734997  21.5859988
   9.1890012  30.9294997  22.8549988   9.2028776  30.8176940  21.9918647
  16.4730012  30.0134997  30.6949988  17.1150012  30.4704997  30.1509988
  15.6430012  30.1264997  30.2319988  16.4485963  30.0912704  30.5580177
  13.2210012  23.6944997  20.1079988  12.2820012  23.8064997  19.9559988
  13.5180012  24.5514997  20.4139988  13.1327666  23.8256443  20.1285768
  10.8420012  31.0644997  33.1449988  10.4970012  30.6834997  33.9519988
  10.6420012  31.9984997  33.2169988  10.7678061  31.1385228  33.2650961
  13.9390012  25.5614997  21.7679988  14.8310012  25.4244997  22.0869988
  13.9960012  26.3524997  21.2319988  14.0686285  25.6496660  21.7391690
   4.4480012  30.1754997  27.6779988   5.1930012  30.1734997  27.0769988
   4.5260012  29.3524997  28.1599988   4.5605518  30.0639315  27.6608929
  11.4490012  32.3394997  20.9339988  11.1530012  33.1654997  21.3149988
  10.7460012  31.7194997  21.1299988  11.3134914  32.3688199  21.0126443
   1.4560012  28.6364997  32.9929988   1.6790012  28.2184997  33.8249988
   0.8540012  28.0234997  32.5699988   1.4051759  28.4964668  33.0497022
   8.4720012  28.1534997  35.2059988   8.1760012  27.9874997  34.3109988
   9.4040012  27.9334997  35.1949988   8.5574166  28.1010640  35.0820536
  13.0930012  33.5264997  33.0959988  12.1920012  33.7094997  32.8279988
  13.1270012  33.7854997  34.0169988  12.9743041  33.5865512  33.1838197
  18.8240012  25.7714997  21.4629988  18.2700012  25.3754997  20.7909988
  18.9240012  26.6814997  21.1849988  18.7617059  25.8403586  21.3334401
  18.7870012  31.5714997  34.2999988  17.9360012  31.8094997  33.9329988
  19.3780012  31.5544997  33.5469988  18.7502487  31.6018258  34.1478893
  17.1190012  34.5574997  21.9279988  16.7460012  33.7314997  22.2369988
  17.3970012  34.3744997  21.0309988  17.1055630  34.4197303  21.8489626
  14.2800012  29.3654997  28.9489988  13.3510012  29.1334997  28.9219988
  14.7310012  28.5884997  28.6189988  14.2139216  29.2287238  28.9006917
   6.8230012  33.6934997  25.0819988   7.3500012  34.4664997  24.8819988
   5.9430012  33.9184997  24.7809988   6.7761773  33.8298005  25.0139010
   2.5780012  28.5554997  19.6689988   3.1940012  29.1824997  20.0489988
   1.7160012  28.8714997  19.9409988   2.5457698  28.6839430  19.7577183
   8.2500012  31.3564997  24.6589988   8.0090012  32.2814997  24.6999988
   7.5090012  30.8974997  25.0549988   8.1168409  31.4211421  24.7181377
   8.7650012  35.5054997  30.9739988   9.1270012  36.3604997  30.7399988
   9.2960012  35.2134997  31.7139988   8.8864473  35.5831060  31.0420855
   6.9330012  36.3784997  24.2039988   5.9830012  36.4834997  24.2549988
   7.2850012  37.1984997  24.5489988   6.8504203  36.5038314  24.2576650
  12.3090012  31.6044997  30.6739988  11.8830012  31.3774997  31.5009988
  12.8890012  30.8664997  30.4919988  12.3291868  31.4735299  30.7625830
  14.5120012  32.5334997  19.7479988  14.8650012  32.1534997  20.5529988
  13.5630012  32.4404997  19.8349988  14.4320441  32.4689596  19.8698559
  14.9670012  36.1564997  33.1439988  14.3660012  35.6014997  32.6479988
  15.2490012  36.8234997  32.5179988  14.9228519  36.1706841  32.9914952
  19.0150012  37.0134997  19.9489988  19.7590012  37.5994997  19.8089988
  18.3210012  37.5814997  20.2829988  19.0230292  37.1705582  19.9749961
   3.0900012  23.3894997  32.5509988   2.1970012  23.7284997  32.4829988
   2.9910012  22.5344997  32.9689988   2.9544164  23.3202588  32.5982235
  15.3780012  31.2064997  21.9749988  15.1000012  30.4784997  22.5309988
  16.3050012  31.3254997  22.1799988  15.4653124  31.1228802  22.0788845
   2.7410012  35.1944997  30.9859988   2.9580012  34.2624997  30.9549988
   2.9870012  35.4684997  31.8689988   2.8039549  35.1040636  31.1011763
   8.6030012  33.6454997  18.1949988   8.8420012  32.8974997  17.6479988
   8.3340012  33.2574997  19.0279988   8.5993675  33.4906638  18.2326865
   7.5400012  33.2154997  20.6519988   7.6860012  32.6954997  21.4419988
   7.5370012  34.1224997  20.9579988   7.5595989  33.2668853  20.8016088
   3.9930012  30.4684997  21.1619988   3.3070012  30.8204997  21.7289988
   4.5150012  31.2314997  20.9149988   3.9696852  30.6198578  21.2062118
  11.8240012  23.1304997  31.4409988  12.5230012  23.2044997  32.0909988
  11.4430012  22.2664997  31.5949988  11.8681767  23.0237624  31.5508322
  12.6090012  22.7824997  22.5379988  12.8290012  23.2544997  21.7349988
  13.1670012  23.1774997  23.2079988  12.7144968  22.9004285  22.5187331
  10.2770012  34.9134997  21.4009988   9.4610012  35.4104997  21.4529988
  10.8070012  35.3884997  20.7609988  10.2369161  35.0457722  21.3215956
   9.8090012  24.5104997  23.3729988  10.6210012  25.0154997  23.4189988
   9.5640012  24.3654997  24.2869988   9.8870520  24.5600375  23.5028517
  10.3440012  25.4964997  32.5579988  10.4630012  26.0704997  33.3149988
  11.0000012  24.8084997  32.6719988  10.4489757  25.4821079  32.6770825
  10.6920012  21.5914997  24.3109988  10.3460012  22.2094997  24.9559988
  11.3510012  22.0924997  23.8299988  10.7337826  21.7435802  24.3340971
   7.6160012  35.9574997  21.3829988   7.7760012  36.7564997  20.8819988
   7.4180012  36.2634997  22.2679988   7.6111649  36.1084469  21.4339815
   6.3500012  22.6544997  20.9979988   6.2670012  23.5434997  21.3449988
   7.2400012  22.3894997  21.2299988   6.4589469  22.7401430  21.0767626
  16.5490012  23.4034997  33.3929988  15.6320012  23.6664997  33.3049988
  16.8840012  23.4004997  32.4959988  16.4689900  23.4390224  33.2597919
  15.1510012  27.1544997  27.4879988  14.3530012  26.7394997  27.1599988
  15.5960012  26.4634997  27.9789988  15.1019885  27.0043543  27.5094889
   4.6090012  33.0824997  20.0589988   5.2010012  33.7814997  20.3349988
   5.0680012  32.6494997  19.3389988   4.7521142  33.1197049  19.9994830
   2.9250012  25.7464997  19.1749988   2.8800012  26.6854997  19.3529988
   2.0370012  25.5104997  18.9049988   2.7988574  25.8431892  19.1628912
  16.2370012  36.4104997  29.1109988  16.0820012  37.0884997  28.4539988
  17.1700012  36.4824997  29.3139988  16.3418500  36.5130170  29.0485119
   3.7330012  20.5284997  27.8479988   3.5040012  20.5874997  26.9199988
   3.2900012  19.7364997  28.1539988   3.6418530  20.4295753  27.7624786
   2.6630012  34.4684997  24.0079988   1.8310012  34.9414997  24.0359988
   3.2090012  34.9784997  23.4099988   2.6229739  34.6021871  23.9309716
   1.9510012  37.0814997  35.3379988   2.4920012  36.8644997  36.0979988
   1.4700012  36.2754997  35.1489988   1.9599345  36.9429514  35.4163076
   6.5490012  36.0004997  36.9589988   7.3160012  35.5414997  37.2999988
   6.5270012  35.7744997  36.0289988   6.6511434  35.9070409  36.8800043
  10.6410012  35.5084997  18.3339988   9.9970012  34.8774997  18.6549988
  11.4030012  34.9774997  18.1019988  10.6558077  35.3502920  18.3466011
  13.1260012  34.3804997  35.6879988  12.7750012  33.5244997  35.9309988
  13.8520012  34.5234997  36.2949988  13.1760769  34.2825636  35.8033619
  15.2450012  35.3254997  18.5679988  15.5280012  34.5314997  19.0199988
  15.9850012  35.5584997  18.0069988  15.3837486  35.2482803  18.5540698
   1.8580012  30.8914997  36.2929988   2.0020012  29.9894997  36.0059988
   1.0860012  31.1774997  35.8049988   1.7733323  30.8068261  36.1877881
   6.2000012  31.2354997  18.4249988   6.2640012  30.4414997  18.9559988
   6.8530012  31.1164997  17.7349988   6.2970241  31.1107148  18.4044317
   8.5140012  30.8614997  35.7249988   8.1850012  31.1324997  34.8679988
   8.6660012  29.9204997  35.6379988   8.4894809  30.7713862  35.5958244
  11.5520012  32.2824997  18.1609988  11.2830012  32.4624997  19.0619988
  11.3460012  31.3564997  18.0299988  11.4873825  32.1820152  18.2665214
  14.2480012  30.7774997  33.1089988  14.9940012  31.3654997  32.9889988
  13.4910012  31.3594997  33.1719988  14.2477554  30.9367011  33.1010907
   2.6910012  28.0914997  35.7129988   3.0990012  27.2344997  35.5919988
   2.4310012  28.1064997  36.6339988   2.7117568  27.9760807  35.8209588
   7.3490012  29.2074997  20.7309988   6.8890012  28.7234997  21.4169988
   7.6040012  28.5394997  20.0949988   7.3204902  29.0508731  20.7389334
   6.6380012  27.1004997  33.0869988   6.0200012  27.7754997  33.3669988
   6.9820012  27.4214997  32.2539988   6.5999615  27.2362721  33.0126581
   8.4200012  27.4504997  18.9929988   8.2400012  27.2964997  18.0659988
   9.3700012  27.5584997  19.0379988   8.5237776  27.4440175  18.8721843
  11.6580012  29.5724997  36.3639988  12.6110012  29.6554997  36.3369988
  11.4970012  28.8604997  36.9839988  11.7666426  29.4876746  36.4440579
  17.8100012  29.8054997  18.4389988  17.5360012  29.3804997  17.6259988
  17.8490012  30.7364997  18.2219988  17.7777699  29.8732484  18.2983610
   6.9770012  24.4554997  34.1689988   7.1270012  23.7264997  33.5669988
   6.9800012  25.2324997  33.6099988   6.9979302  24.4607851  34.0110692
   7.3900012  22.8254997  31.6619988   7.9260012  23.2764997  31.0099988
   6.5380012  22.7174997  31.2389988   7.3482178  22.8726390  31.5155756
   8.9720012  28.2644997  31.9009988   9.7220012  28.1084997  31.3279988
   8.6330012  29.1164997  31.6259988   9.0288921  28.3582968  31.7853561
  13.3870012  26.0794997  36.9299988  13.5800012  25.1484997  36.8179988
  14.2450012  26.5044997  36.9199988  13.5293020  26.0096389  36.9133361
  14.7040012  28.8684997  35.0069988  14.4230012  29.5774997  34.4299988
  15.6470012  28.7954997  34.8559988  14.7929027  28.9557646  34.9075551
   5.4560012  25.6534997  36.0809988   4.6890012  25.1214997  35.8709988
   6.1350012  25.3434997  35.4809988   5.4427022  25.5387506  35.9711648
   8.1960012  20.2814997  32.0929988   8.0970012  21.2284997  31.9879988
   7.4530012  19.9094997  31.6179988   8.0820564  20.3605902  32.0144560
   9.4600012  24.6034997  35.6569988   9.2240012  24.3834997  36.5589988
   8.6760012  24.3964997  35.1469988   9.3218628  24.5454760  35.7113932
  12.1750012  23.7304997  34.7329988  11.2280012  23.7624997  34.8649988
  12.4880012  23.1054997  35.3859988  12.0875475  23.6503207  34.8394455
  13.8090012  22.3644997  36.7379988  13.7130012  21.4124997  36.7319988
  13.4880012  22.6334997  37.5979988  13.7524070  22.2704035  36.8535441
   3.6360012  23.5744997  35.7849988   3.8480012  22.8674997  35.1749988
   3.5250012  23.1364997  36.6289988   3.6499721  23.4187084  35.8156843
   8.4170012  19.5754997  34.7649988   9.1290012  18.9354997  34.7509988
   8.3160012  19.8424997  33.8509988   8.5007939  19.5239938  34.6395650
   8.7710012  21.2584997  36.8179988   8.6390012  20.7824997  35.9979988
   8.1720012  22.0024997  36.7629988   8.6719071  21.2939618  36.6982886
   8.3170012  38.1414997  19.9949988   9.2500012  38.2994997  20.1379988
   8.0530012  38.8164997  19.3699988   8.4089510  38.2543611  19.9300741
   1.8860012  32.7774997  19.4769988   2.8000012  32.8564997  19.7509988
   1.8930012  32.0904997  18.8109988   2.0121131  32.6953961  19.4244393
   0.5350012  38.1704997  24.5549988  -0.1119988  37.7084997  24.0219988
   0.8890012  37.4984997  25.1369988   0.4943849  38.0164723  24.5607959
   1.4050012  36.2514997  26.3589988   1.0700012  35.3714997  26.5309988
   1.6270012  36.5964997  27.2239988   1.3891783  36.1777501  26.4994208
  18.9530012  37.0604997  29.3399988  18.9320012  37.2454997  30.2789988
  19.6440012  37.6294997  28.9989988  19.0434618  37.1626606  29.4223864
  18.5170012  36.6284997  32.2619988  18.0290012  35.8924997  31.8909988
  19.0660012  36.2344997  32.9399988  18.5244872  36.4746249  32.3029160
  16.9670012  32.4174997  36.8999988  16.1010012  32.3124997  37.2939988
  17.3440012  33.1764997  37.3459988  16.8993308  32.5056900  37.0142393
  18.2680012  30.6744997  22.4139988  19.1180012  31.0954997  22.5409988
  18.2740012  29.9344997  23.0209988  18.3851372  30.6320803  22.5134344
  18.6630012  28.7274997  24.2379988  17.9360012  28.2484997  24.6349988
  19.2440012  28.9334997  24.9699988  18.6419375  28.6897090  24.3914129
  18.4220012  31.5124997  29.1849988  19.2550012  31.1344997  28.9049988
  18.5340012  32.4554997  29.0659988  18.5512647  31.5882218  29.1305487
  16.9080012  34.3904997  31.4919988  16.2610012  34.7154997  32.1179988
  16.3910012  33.9504997  30.8179988  16.7494029  34.3755004  31.4865827
  18.9310012  28.6284997  20.6289988  18.4090012  28.9854997  19.9099988
  18.8980012  29.3034997  21.3069988  18.8551634  28.7685413  20.6223145
  17.2800012  25.8684997  19.1799988  17.3760012  26.5354997  18.4989988
  17.1400012  25.0524997  18.6979988  17.2742135  25.8494500  19.0218491
  16.4490012  27.2484997  24.8009988  16.2990012  26.3034997  24.7799988
  16.0960012  27.5294997  25.6439988  16.3806625  27.1570441  24.9122346
   1.4850012  29.3264997  28.8109988   1.6690012  29.2444997  27.8749988
   2.3340012  29.2024997  29.2349988   1.6250139  29.2985003  28.7401455
  17.3060012  29.2184997  34.4389988  17.8890012  28.4844997  34.6309988
  17.8700012  29.9904997  34.4859988  17.4619769  29.2224227  34.4716159
  18.8020012  27.1214997  35.1239988  17.9390012  26.7424997  34.9579988
  19.4070012  26.3824997  35.0499988  18.7655979  26.9698023  35.0912817
  16.5270012  23.2764997  18.2969988  17.1380012  22.9054997  18.9339988
  15.6910012  22.8554997  18.4929988  16.4975032  23.1687554  18.4107035
  16.1600012  24.8314997  23.2629988  16.4400012  23.9244997  23.3869988
  16.9190012  25.2654997  22.8739988  16.3009277  24.7660942  23.2273682
  16.7720012  25.4124997  28.6989988  17.7050012  25.6244997  28.6649988
  16.5370012  25.5144997  29.6209988  16.8678036  25.4552769  28.8189976
  16.8010012  26.1494997  31.4749988  15.9580012  26.4174997  31.8409988
  17.2430012  26.9714997  31.2639988  16.7454158  26.2973291  31.4965491
   1.0820012  24.5974997  34.9519988   2.0020012  24.4754997  35.1879988
   0.6330012  23.8474997  35.3409988   1.1471580  24.4793727  35.0369006
  19.0840012  20.1294997  36.8279988  19.4340012  19.4754997  36.2229988
  19.2310012  20.9664997  36.3889988  19.1518419  20.1531591  36.6857118
  16.7730012  22.0944997  23.3109988  16.9560012  21.6454997  24.1369988
  16.1740012  21.5094997  22.8479988  16.7170202  21.9539975  23.3613275
   2.3030012  22.9094997  27.8429988   2.7490012  22.1174997  28.1449988
   2.7700012  23.6254997  28.2739988   2.4270172  22.8980624  27.9424820
   0.6070012  25.9084997  28.9119988   1.0990012  25.6874997  28.1209988
   0.9700012  26.7494997  29.1929988   0.7233126  25.9918357  28.8417531
  18.6040012  22.2384997  35.1779988  17.6860012  22.5094997  35.1419988
  18.7270012  21.7034997  34.3929988  18.4951066  22.2032892  35.0670487
  18.6400012  22.1614997  19.8389988  19.0520012  21.4404997  19.3639988
  19.3220012  22.8314997  19.8979988  18.7885885  22.1532368  19.7818915
   0.9210012  22.1664997  22.9659988  -0.0039988  22.3754997  22.8369988
   1.3750012  22.6504997  22.2769988   0.8557368  22.2605993  22.8551226
  15.6920012  37.1504997  24.9119988  16.3440012  36.8034997  24.3039988
  16.2020012  37.6394997  25.5579988  15.8502637  37.1690597  24.9160236
   0.8850012  20.9044997  31.3109988   0.2200012  20.6584997  31.9539988
   0.4420012  21.5264997  30.7329988   0.7340956  20.9548632  31.3209352
   3.0770012  34.0794997  35.4549988   2.2560012  34.2544997  34.9949988
   2.8240012  34.0064997  36.3759988   2.9306164  34.0935622  35.5164923
   6.0310012  35.0544997  31.7139988   5.6060012  35.8634997  31.4309988
   6.9350012  35.1394997  31.4119988   6.0950271  35.1768469  31.6343776
  10.3420012  36.4534997  34.6729988  10.5270012  36.1194997  35.5509988
  11.1880012  36.7624997  34.3509988  10.4817539  36.4496047  34.7495605
  12.6870012  37.7394997  33.9169988  13.3640012  37.1064997  33.6769988
  13.0090012  38.1404997  34.7239988  12.8231637  37.7071154  33.9932793
  17.6040012  20.3284997  32.9969988  16.7920012  20.6534997  32.6089988
  17.8370012  19.5684997  32.4639988  17.5243423  20.2702436  32.8718253
   3.4330012  38.3104997  31.7609988   2.7120012  38.7504997  31.3099988
   3.0670012  38.0594997  32.6099988   3.2849804  38.3367698  31.8139840
   5.9000012  37.9104997  30.7909988   5.0350012  37.9824997  31.1949988
   5.8450012  38.4574997  30.0069988   5.7742085  37.9942685  30.7403362
  10.6100012  37.7984997  29.9659988  10.1540012  38.3274997  29.3119988
  10.7730012  38.4014997  30.6919988  10.5695585  37.9524468  29.9745062
  12.9380012  36.6764997  30.9109988  12.0330012  36.8414997  30.6459988
  13.3670012  37.5294997  30.8459988  12.8720799  36.8144483  30.8659182
  15.5420012  38.2464997  31.2059988  15.3600012  39.1624997  30.9959988
  15.7190012  37.8364997  30.3599988  15.5410210  38.3164822  31.0627885
   2.8470012  36.9334997  28.6709988   2.8290012  36.5084997  29.5289988
   3.6520012  36.6154997  28.2629988   2.9533875  36.8323812  28.7331655
   4.9890012  35.6434997  27.3259988   4.7700012  34.7274997  27.4959988
   5.8130012  35.7834997  27.7919988   5.0704420  35.5370520  27.4122774
   7.5260012  36.1134997  28.1749988   7.7390012  35.2254997  27.8879988
   7.5900012  36.0794997  29.1289988   7.5638231  35.9873102  28.2647397
  11.0340012  21.7774997  27.3189988  10.3600012  21.1484997  27.5749988
  11.5980012  21.2934997  26.7159988  11.0179230  21.6258744  27.2725340
  16.1770012  19.8854997  27.4319988  16.7810012  20.4324997  26.9299988
  15.3070012  20.2044997  27.1919988  16.1421241  20.0035806  27.3307654
  17.9040012  21.0234997  25.7649988  18.5160012  20.5094997  25.2389988
  18.2860012  21.9014997  25.7889988  18.0394540  21.0717140  25.6961830
   3.3610012  20.4114997  25.1409988   2.5840012  20.1774997  24.6339988
   3.8910012  19.6144997  25.1499988   3.3262330  20.2716988  25.0727742
   2.1970012  20.2094997  20.9449988   2.6360012  20.8204997  20.3529988
   1.5640012  20.7474997  21.4189988   2.1714514  20.3659257  20.9280930
   7.9400012  20.3384997  24.9549988   8.8150012  20.7264997  24.9249988
   7.8040012  20.1234997  25.8769988   8.0413695  20.3625184  25.0756440
  13.4970012  20.3684997  26.6039988  13.5730012  20.4634997  25.6539988
  13.2220012  19.4604997  26.7329988  13.4702321  20.2587867  26.4915079
  14.8500012  20.3944997  22.2959988  14.1480012  21.0094997  22.0869988
  14.4060012  19.5564997  22.4269988  14.6936330  20.3655783  22.2850328
   2.0980012  36.1574997  21.8429988   1.4130012  36.1194997  21.1749988
   2.1020012  37.0704997  22.1309988   2.0048193  36.2757016  21.7905284
   4.0580012  22.1254997  19.3869988   4.5500012  21.4954997  18.8599988
   4.6820012  22.4214997  20.0509988   4.2095446  22.0793199  19.4045980
   9.0840012  22.4184997  21.8439988   9.2620012  21.7724997  22.5269988
   9.0310012  23.2524997  22.3119988   9.1011829  22.4427985  22.0005940
  10.9630012  37.3674997  20.2399988  11.8290012  37.7334997  20.0619988
  10.7160012  36.9274997  19.4259988  11.0482392  37.3581756  20.1056289
  17.6720012  36.9304997  22.9189988  17.4770012  36.1824997  22.3539988
  17.6330012  37.6884997  22.3359988  17.6400380  36.9306099  22.7628384
   3.3190012  20.9254997  34.6589988   2.9530012  20.1604997  35.1019988
   4.2320012  20.9544997  34.9459988   3.3922790  20.8247224  34.7584070
   5.2920012  20.2764997  36.1949988   6.1900012  20.0024997  36.0099988
   4.9050012  19.5334997  36.6589988   5.3626612  20.1385914  36.2323643
   3.9160012  37.0774997  18.8679988   3.6490012  37.3644997  19.7409988
   4.6880012  36.5314997  19.0199988   3.9837488  37.0430294  19.0081050
  13.7130012  19.6084997  36.3769988  13.7900012  19.1824997  37.2309988
  14.6070012  19.6224997  36.0339988  13.8443428  19.5520879  36.4475310
  16.8890012  35.6814997  35.0689988  16.1070012  35.4954997  34.5499988
  16.8170012  36.6104997  35.2869988  16.7721777  35.7816492  35.0274048
  31.2950012  29.5674997  25.0999988  31.3840012  30.5114997  24.9679988
  30.6570012  29.2924997  24.4419988  31.2209081  29.6594830  24.9929614
  30.2280012  28.8224997  28.5189988  30.1900012  28.1764997  29.2239988
  29.9060012  28.3564997  27.7479988  30.1792333  28.6709408  28.5112978
  22.5970012  28.4374997  30.1119988  22.6380012  27.8114997  30.8349988
  23.3000012  29.0614997  30.2939988  22.6976363  28.4361196  30.2356044
  33.9340012  31.7614997  26.8199988  33.4940012  31.0414997  27.2709988
  33.9210012  32.4824997  27.4499988  33.8720226  31.7603731  26.9668494
  23.5200012  32.8874997  28.6469988  23.1510012  32.0854997  28.2769988
  24.4610012  32.7184997  28.6929988  23.5967289  32.7550153  28.6026316
  20.1300012  26.5474997  24.0399988  19.6830012  27.3934997  24.0209988
  19.5690012  25.9674997  23.5239988  19.9929900  26.5849916  23.9676801
  20.8410012  28.7094997  26.1659988  21.0540012  27.9394997  26.6929988
  21.5790012  28.7984997  25.5619988  20.9698496  28.6161394  26.1565300
  31.0460012  36.8664997  27.0329988  31.6660012  36.1894997  26.7589988
  30.8380012  36.6484997  27.9409988  31.1026904  36.7443870  27.1183365
  28.6180012  31.2554997  28.9249988  28.9220012  30.5694997  28.3299988
  29.3390012  31.3734997  29.5429988  28.7570671  31.1776305  28.9271816
  37.2810012  22.8564997  29.7859988  37.3300012  23.4664997  30.5219988
  37.7060012  23.3174997  29.0629988  37.3451824  23.0023741  29.7890205
  31.7590012  25.6494997  29.2529988  31.9010012  24.7034997  29.2729988
  31.6520012  25.8564997  28.3239988  31.7639864  25.5479534  29.1302339
  24.9130012  23.7504997  26.5249988  24.9570012  24.6104997  26.1069988
  24.4560012  23.1984997  25.8909988  24.8572185  23.7935799  26.3820299
  32.6360012  23.8814997  24.9259988  33.2820012  23.5524997  25.5509988
  33.1460012  24.3994997  24.3029988  32.7934264  23.9064611  24.9273862
  21.5340012  26.1474997  27.2869988  22.1870012  25.5974997  27.7189988
  21.5580012  25.8734997  26.3699988  21.6266683  26.0351466  27.2222123
  26.6900012  27.6974997  26.5019988  27.3060012  27.1714997  27.0119988
  26.1040012  27.0574997  26.0989988  26.6950810  27.5389208  26.5173173
  37.6720012  24.3344997  32.0219988  36.9840012  24.9924997  31.9259988
  37.6880012  24.1374997  32.9579988  37.5798525  24.3980462  32.1354808
  23.7240012  22.6684997  30.5989988  23.5050012  23.1984997  29.8329988
  23.0560012  22.8954997  31.2459988  23.6037600  22.7716906  30.5816379
  31.0930012  32.1684997  24.1429988  30.7970012  31.8464997  23.2919988
  30.7680012  33.0684997  24.1839988  31.0086371  32.2460215  24.0321801
  26.2930012  30.3444997  30.8859988  25.5530012  30.9424997  30.9899988
  27.0070012  30.8984997  30.5709988  26.2882237  30.5012831  30.8576465
  34.4000012  23.1724997  26.9059988  34.1840012  22.4064997  27.4389988
  35.0550012  23.6444997  27.4189988  34.4590632  23.1315889  27.0482861
  23.3170012  24.5604997  28.5509988  23.9310012  25.1934997  28.9249988
  23.8290012  24.0884997  27.8949988  23.4702296  24.5832370  28.5134252
  24.7000012  32.3084997  31.6739988  24.6950012  33.1884997  31.2959988
  23.8470012  32.2254997  32.0989988  24.5839464  32.4176117  31.6797907
  20.8210012  31.9794997  22.4559988  20.5490012  32.2084997  21.5669988
  20.8670012  32.8174997  22.9159988  20.7900094  32.1241213  22.3965697
  34.4460012  33.6014997  29.1679988  33.5050012  33.6594997  29.3299988
  34.7230012  34.5074997  29.0309988  34.3544679  33.7319443  29.1716815
  34.7470012  21.8874997  30.5859988  34.0110012  22.4984997  30.5479988
  35.4300012  22.3024997  30.0589988  34.7386541  22.0271374  30.5095832
  27.7500012  19.9744997  28.0519988  27.6330012  19.0254997  27.9969988
  26.8950012  20.3064997  28.3249988  27.6183733  19.8895409  28.0813897
  32.6980012  35.3824997  25.7939988  33.1240012  34.6754997  25.3089988
  33.0150012  36.1834997  25.3769988  32.7991019  35.3940994  25.6713130
  33.8580012  33.2834997  24.3019988  33.6000012  32.5934997  23.6909988
  33.9290012  32.8404997  25.1479988  33.8322856  33.1292124  24.3326885
  35.5440012  31.8494997  32.7799988  35.6840012  31.2584997  32.0399988
  35.7110012  32.7224997  32.4229988  35.5856778  31.8866426  32.6306965
  30.0170012  28.8114997  22.5519988  29.3050012  29.3464997  22.1999988
  30.7080012  28.8674997  21.8919988  30.0130132  28.8922543  22.4146289
  30.0700012  27.2694997  19.5909988  30.7710012  27.2914997  20.2419988
  30.3730012  26.6414997  18.9349988  30.2067830  27.1876566  19.5913711
  37.3860012  28.1894997  30.8459988  36.7330012  28.8844997  30.9349988
  37.8510012  28.3994997  30.0359988  37.3595390  28.3129425  30.7486883
  33.4220012  29.0214997  23.5039988  32.6900012  29.2494997  24.0769988
  33.8700012  28.3074997  23.9589988  33.3823095  28.9562571  23.6439119
  33.3200012  27.1954997  32.5709988  33.4000012  27.9584997  33.1429988
  32.7180012  27.4744997  31.8809988  33.2495756  27.3377134  32.5560589
  25.0680012  29.6514997  25.3859988  24.7370012  29.2814997  24.5679988
  25.6560012  28.9814997  25.7329988  25.1021873  29.5101156  25.3208102
  26.4340012  33.0794997  28.0679988  26.3400012  32.5014997  27.3109988
  27.1640012  32.7084997  28.5639988  26.5197981  32.9502390  28.0314165
  25.4340012  28.4204997  29.0199988  26.0000012  28.5414997  28.2569988
  25.7530012  29.0574997  29.6589988  25.5545786  28.5231884  29.0020040
  31.7430012  33.9234997  29.7539988  31.5030012  34.5854997  30.4019988
  31.5450012  33.0894997  30.1789988  31.6833808  33.9013134  29.9001524
  26.3140012  32.8194997  33.7369988  26.0030012  33.6014997  34.1919988
  25.6640012  32.6664997  33.0509988  26.1835558  32.9059105  33.7065871
  32.2930012  28.1834997  21.1889988  32.8730012  28.3334997  21.9359988
  32.7070012  28.6544997  20.4659988  32.4282830  28.2676841  21.1934134
  23.2340012  29.0174997  32.9659988  23.3050012  29.6684997  33.6639988
  22.3440012  29.1204997  32.6309988  23.1233117  29.1205936  33.0162700
  30.0200012  34.9204997  24.6239988  30.4940012  35.2154997  25.4019988
  29.4570012  35.6584997  24.3909988  30.0087653  35.0606932  24.6990136
  24.5540012  34.8914997  34.4999988  24.5610012  34.7554997  33.5529988
  23.6380012  34.7734997  34.7519988  24.4311714  34.8569430  34.4044666
  35.9920012  19.9334997  21.0019988  35.0920012  20.0724997  21.2969988
  36.2440012  20.7644997  20.5999988  35.9028702  20.0649074  20.9880205
  24.0580012  28.7214997  22.9759988  23.7660012  29.4894997  22.4849988
  23.3840012  28.0614997  22.8129988  23.9269081  28.7374406  22.8867340
  37.1810012  34.2994997  19.3779988  37.2550012  35.2384997  19.5489988
  38.0870012  33.9944997  19.3219988  37.3135100  34.3866722  19.3938119
  20.1510012  31.0844997  31.7909988  19.6500012  31.0564997  30.9759988
  20.1560012  30.1784997  32.0999988  20.0831526  30.9582278  31.7212872
  19.9010012  33.8644997  28.6749988  20.8470012  33.7204997  28.6559988
  19.7890012  34.6484997  29.2119988  20.0152727  33.9508046  28.7450072
  38.0990012  34.5304997  34.3569988  38.0500012  33.5754997  34.3199988
  37.2720012  34.7984997  34.7579988  37.9804940  34.4358998  34.4061375
  29.0780012  34.1044997  33.2329988  29.1650012  34.9304997  33.7079988
  28.2140012  33.7744997  33.4819988  28.9731964  34.1729878  33.3316549
  29.4920012  37.8764997  23.0389988  29.4170012  37.7554997  22.0929988
  29.5250012  38.8264997  23.1579988  29.4861848  37.9882500  22.9254834
  23.1450012  36.6654997  24.8199988  23.2980012  36.3174997  25.6989988
  22.2950012  36.3094997  24.5649988  23.0508962  36.5696650  24.9058340
  32.5940012  37.0304997  20.0409988  32.9690012  36.2864997  19.5709988
  32.5980012  36.7604997  20.9599988  32.6458915  36.8921486  20.1007824
  32.2630012  36.9564997  22.7909988  31.3270012  37.0564997  22.9689988
  32.5430012  36.2474997  23.3689988  32.1728255  36.8742711  22.8935391
  35.2510012  26.0234997  34.8369988  34.8440012  26.5044997  34.1159988
  35.2920012  25.1184997  34.5289988  35.2008437  25.9669374  34.6966683
  22.4000012  32.4074997  32.8339988  22.6160012  32.0464997  33.6929988
  21.5450012  32.0334997  32.6239988  22.3139292  32.3074111  32.9233386
  25.0190012  20.8774997  28.8289988  24.1570012  20.7904997  28.4219988
  24.9960012  21.7334997  29.2569988  24.8980330  20.9812765  28.8311863
  29.6820012  20.5994997  32.2039988  30.1020012  20.1844997  32.9569988
  28.7490012  20.4214997  32.3209988  29.6133644  20.5185900  32.3229539
  33.0080012  24.3554997  33.0569988  32.4940012  24.2294997  33.8549988
  32.8530012  25.2674997  32.8129988  32.9166852  24.4616132  33.1332158
  33.7710012  29.2164997  18.8189988  33.8130012  28.9934997  17.8889988
  34.6200012  29.6154997  19.0089988  33.8915396  29.2399155  18.7173627
  29.3430012  23.0924997  19.4889988  29.0900012  23.1114997  20.4119988
  29.0870012  22.2204997  19.1879988  29.2737790  22.9772437  19.5746263
  25.1100012  25.8434997  29.9239988  24.4680012  25.8024997  30.6329988
  25.1470012  26.7694997  29.6869988  25.0271324  25.9631559  29.9889824
  25.1070012  26.0644997  24.8359988  24.2140012  25.7234997  24.7779988
  25.5570012  25.6874997  24.0809988  25.0457305  25.9668484  24.7259177
  30.6420012  26.4804997  23.6529988  30.2330012  27.2954997  23.3619988
  31.3630012  26.3404997  23.0389988  30.6834537  26.5732018  23.5301342
  29.7440012  26.6554997  35.1409988  29.1820012  25.9514997  35.4619988
  30.5710012  26.5354997  35.6089988  29.7787095  26.5427883  35.2482330
  31.6470012  25.9264997  26.4669988  31.4520012  26.5314997  25.7519988
  31.8280012  25.0924997  26.0329988  31.6447614  25.8966300  26.3104405
  22.8600012  26.1634997  31.7909988  22.8220012  26.5634997  32.6599988
  22.3690012  25.3464997  31.8819988  22.7884684  26.1078069  31.9221059
  26.2260012  23.5374997  18.5899988  25.7950012  23.0924997  19.3199988
  25.5080012  23.9094997  18.0779988  26.0699438  23.5268940  18.6206799
  19.4680012  23.2794997  25.6419988  20.0990012  23.2504997  26.3609988
  19.9170012  22.8544997  24.9119988  19.6150774  23.2180492  25.6416553
  20.7420012  24.0254997  21.0659988  21.2160012  24.6164997  20.4809988
  20.0250012  24.5564997  21.4129988  20.7099341  24.1780867  21.0328836
  30.9110012  27.5644997  31.1389988  31.2340012  26.9334997  30.4959988
  30.4710012  27.0294997  31.7989988  30.8956895  27.4058441  31.1402850
  27.6880012  23.4914997  25.9229988  26.7770012  23.5484997  26.2109988
  28.1940012  23.4314997  26.7329988  27.6315413  23.4911985  26.0720622
  22.5170012  25.1204997  24.7489988  21.6270012  25.2204997  24.4089988
  22.8130012  24.2784997  24.4029988  22.4352823  25.0203545  24.6557213
  26.1700012  25.1204997  22.4059988  27.1010012  25.2494997  22.5839988
  25.9550012  25.7904997  21.7559988  26.2684247  25.2286565  22.3425747
  32.0930012  22.7264997  29.1869988  31.4170012  22.8574997  29.8509988
  31.6080012  22.5714997  28.3769988  31.9347145  22.7234905  29.1684517
  24.8440012  26.3154997  19.9729988  24.3010012  25.9354997  19.2809988
  25.6770012  26.5094997  19.5439988  24.8824399  26.2898124  19.8204526
  35.3810012  38.3984997  35.4639988  35.5810012  38.8224997  34.6289988
  36.0360012  38.7414997  36.0709988  35.4970051  38.5029648  35.4317836
  22.9790012  30.8724997  35.0719988  23.7110012  31.1264997  35.6329988
  22.1990012  31.0764997  35.5869988  22.9738232  30.9349177  35.2185760
  29.0080012  26.2794997  27.8099988  29.5730012  25.7324997  27.2629988
  28.8610012  25.7574997  28.5979988  29.0652918  26.1342024  27.8418454
  24.0100012  22.4154997  24.2279988  23.6930012  21.5134997  24.1929988
  24.7920012  22.4174997  23.6749988  24.0722284  22.2921628  24.1484783
  27.6350012  24.6674997  30.2239988  26.7990012  25.1214997  30.3339988
  28.1590012  24.9434997  30.9759988  27.5914414  24.7669376  30.3407136
  28.1790012  30.8804997  21.9079988  27.4340012  30.3734997  21.5859988
  28.0450012  30.9294997  22.8549988  28.0588776  30.8176940  21.9918647
  35.3290012  30.0134997  30.6949988  35.9710012  30.4704997  30.1509988
  34.4990012  30.1264997  30.2319988  35.3045963  30.0912704  30.5580177
  32.0770012  23.6944997  20.1079988  31.1380012  23.8064997  19.9559988
  32.3740012  24.5514997  20.4139988  31.9887666  23.8256443  20.1285768
  29.6980012  31.0644997  33.1449988  29.3530012  30.6834997  33.9519988
  29.4980012  31.9984997  33.2169988  29.6238061  31.1385228  33.2650961
  32.7950012  25.5614997  21.7679988  33.6870012  25.4244997  22.0869988
  32.8520012  26.3524997  21.2319988  32.9246285  25.6496660  21.7391690
  23.3040012  30.1754997  27.6779988  24.0490012  30.1734997  27.0769988
  23.3820012  29.3524997  28.1599988  23.4165518  30.0639315  27.6608929
  30.3050012  32.3394997  20.9339988  30.0090012  33.1654997  21.3149988
  29.6020012  31.7194997  21.1299988  30.1694914  32.3688199  21.0126443
  20.3120012  28.6364997  32.9929988  20.5350012  28.2184997  33.8249988
  19.7100012  28.0234997  32.5699988  20.2611759  28.4964668  33.0497022
  27.3280012  28.1534997  35.2059988  27.0320012  27.9874997  34.3109988
  28.2600012  27.9334997  35.1949988  27.4134166  28.1010640  35.0820536
  31.9490012  33.5264997  33.0959988  31.0480012  33.7094997  32.8279988
  31.9830012  33.7854997  34.0169988  31.8303041  33.5865512  33.1838197
  37.6800012  25.7714997  21.4629988  37.1260012  25.3754997  20.7909988
  37.7800012  26.6814997  21.1849988  37.6177059  25.8403586  21.3334401
  37.6430012  31.5714997  34.2999988  36.7920012  31.8094997  33.9329988
  38.2340012  31.5544997  33.5469988  37.6062487  31.6018258  34.1478893
  35.9750012  34.5574997  21.9279988  35.6020012  33.7314997  22.2369988
  36.2530012  34.3744997  21.0309988  35.9615630  34.4197303  21.8489626
  33.1360012  29.3654997  28.9489988  32.2070012  29.1334997  28.9219988
  33.5870012  28.5884997  28.6189988  33.0699216  29.2287238  28.9006917
  25.6790012  33.6934997  25.0819988  26.2060012  34.4664997  24.8819988
  24.7990012  33.9184997  24.7809988  25.6321773  33.8298005  25.0139010
  21.4340012  28.5554997  19.6689988  22.0500012  29.1824997  20.0489988
  20.5720012  28.8714997  19.9409988  21.4017698  28.6839430  19.7577183
  27.1060012  31.3564997  24.6589988  26.8650012  32.2814997  24.6999988
  26.3650012  30.8974997  25.0549988  26.9728409  31.4211421  24.7181377
  27.6210012  35.5054997  30.9739988  27.9830012  36.3604997  30.7399988
  28.1520012  35.2134997  31.7139988  27.7424473  35.5831060  31.0420855
  25.7890012  36.3784997  24.2039988  24.8390012  36.4834997  24.2549988
  26.1410012  37.1984997  24.5489988  25.7064203  36.5038314  24.2576650
  31.1650012  31.6044997  30.6739988  30.7390012  31.3774997  31.5009988
  31.7450012  30.8664997  30.4919988  31.1851868  31.4735299  30.7625830
  33.3680012  32.5334997  19.7479988  33.7210012  32.1534997  20.5529988
  32.4190012  32.4404997  19.8349988  33.2880441  32.4689596  19.8698559
  33.8230012  36.1564997  33.1439988  33.2220012  35.6014997  32.6479988
  34.1050012  36.8234997  32.5179988  33.7788519  36.1706841  32.9914952
  37.8710012  37.0134997  19.9489988  38.6150012  37.5994997  19.8089988
  37.1770012  37.5814997  20.2829988  37.8790292  37.1705582  19.9749961
  21.9460012  23.3894997  32.5509988  21.0530012  23.7284997  32.4829988
  21.8470012  22.5344997  32.9689988  21.8104164  23.3202588  32.5982235
  34.2340012  31.2064997  21.9749988  33.9560012  30.4784997  22.5309988
  35.1610012  31.3254997  22.1799988  34.3213124  31.1228802  22.0788845
  21.5970012  35.1944997  30.9859988  21.8140012  34.2624997  30.9549988
  21.8430012  35.4684997  31.8689988  21.6599549  35.1040636  31.1011763
  27.4590012  33.6454997  18.1949988  27.6980012  32.8974997  17.6479988
  27.1900012  33.2574997  19.0279988  27.4553675  33.4906638  18.2326865
  26.3960012  33.2154997  20.6519988  26.5420012  32.6954997  21.4419988
  26.3930012  34.1224997  20.9579988  26.4155989  33.2668853  20.8016088
  22.8490012  30.4684997  21.1619988  22.1630012  30.8204997  21.7289988
  23.3710012  31.2314997  20.9149988  22.8256852  30.6198578  21.2062118
  30.6800012  23.1304997  31.4409988  31.3790012  23.2044997  32.0909988
  30.2990012  22.2664997  31.5949988  30.7241767  23.0237624  31.5508322
  31.4650012  22.7824997  22.5379988  31.6850012  23.2544997  21.7349988
  32.0230012  23.1774997  23.2079988  31.5704968  22.9004285  22.5187331
  29.1330012  34.9134997  21.4009988  28.3170012  35.4104997  21.4529988
  29.6630012  35.3884997  20.7609988  29.0929161  35.0457722  21.3215956
  28.6650012  24.5104997  23.3729988  29.4770012  25.0154997  23.4189988
  28.4200012  24.3654997  24.2869988  28.7430520  24.5600375  23.5028517
  29.2000012  25.4964997  32.5579988  29.3190012  26.0704997  33.3149988
  29.8560012  24.8084997  32.6719988  29.3049757  25.4821079  32.6770825
  29.5480012  21.5914997  24.3109988  29.2020012  22.2094997  24.9559988
  30.2070012  22.0924997  23.8299988  29.5897826  21.7435802  24.3340971
  26.4720012  35.9574997  21.3829988  26.6320012  36.7564997  20.8819988
  26.2740012  36.2634997  22.2679988  26.4671649  36.1084469  21.4339815
  25.2060012  22.6544997  20.9979988  25.1230012  23.5434997  21.3449988
  26.0960012  22.3894997  21.2299988  25.3149469  22.7401430  21.0767626
  35.4050012  23.4034997  33.3929988  34.4880012  23.6664997  33.3049988
  35.7400012  23.4004997  32.4959988  35.3249900  23.4390224  33.2597919
  34.0070012  27.1544997  27.4879988  33.2090012  26.7394997  27.1599988
  34.4520012  26.4634997  27.9789988  33.9579885  27.0043543  27.5094889
  23.4650012  33.0824997  20.0589988  24.0570012  33.7814997  20.3349988
  23.9240012  32.6494997  19.3389988  23.6081142  33.1197049  19.9994830
  21.7810012  25.7464997  19.1749988  21.7360012  26.6854997  19.3529988
  20.8930012  25.5104997  18.9049988  21.6548574  25.8431892  19.1628912
  35.0930012  36.4104997  29.1109988  34.9380012  37.0884997  28.4539988
  36.0260012  36.4824997  29.3139988  35.1978500  36.5130170  29.0485119
  22.5890012  20.5284997  27.8479988  22.3600012  20.5874997  26.9199988
  22.1460012  19.7364997  28.1539988  22.4978530  20.4295753  27.7624786
  21.5190012  34.4684997  24.0079988  20.6870012  34.9414997  24.0359988
  22.0650012  34.9784997  23.4099988  21.4789739  34.6021871  23.9309716
  20.8070012  37.0814997  35.3379988  21.3480012  36.8644997  36.0979988
  20.3260012  36.2754997  35.1489988  20.8159345  36.9429514  35.4163076
  25.4050012  36.0004997  36.9589988  26.1720012  35.5414997  37.2999988
  25.3830012  35.7744997  36.0289988  25.5071434  35.9070409  36.8800043
  29.4970012  35.5084997  18.3339988  28.8530012  34.8774997  18.6549988
  30.2590012  34.9774997  18.1019988  29.5118077  35.3502920  18.3466011
  31.9820012  34.3804997  35.6879988  31.6310012  33.5244997  35.9309988
  32.7080012  34.5234997  36.2949988  32.0320769  34.2825636  35.8033619
  34.1010012  35.3254997  18.5679988  34.3840012  34.5314997  19.0199988
  34.8410012  35.5584997  18.0069988  34.2397486  35.2482803  18.5540698
  20.7140012  30.8914997  36.2929988  20.8580012  29.9894997  36.0059988
  19.9420012  31.1774997  35.8049988  20.6293322  30.8068261  36.1877881
  25.0560012  31.2354997  18.4249988  25.1200012  30.4414997  18.9559988
  25.7090012  31.1164997  17.7349988  25.1530241  31.1107148  18.4044317
  27.3700012  30.8614997  35.7249988  27.0410012  31.1324997  34.8679988
  27.5220012  29.9204997  35.6379988  27.3454809  30.7713862  35.5958244
  30.4080012  32.2824997  18.1609988  30.1390012  32.4624997  19.0619988
  30.2020012  31.3564997  18.0299988  30.3433825  32.1820152  18.2665214
  33.1040012  30.7774997  33.1089988  33.8500012  31.3654997  32.9889988
  32.3470012  31.3594997  33.1719988  33.1037554  30.9367011  33.1010907
  21.5470012  28.0914997  35.7129988  21.9550012  27.2344997  35.5919988
  21.2870012  28.1064997  36.6339988  21.5677568  27.9760807  35.8209588
  26.2050012  29.2074997  20.7309988  25.7450012  28.7234997  21.4169988
  26.4600012  28.5394997  20.0949988  26.1764902  29.0508731  20.7389334
  25.4940012  27.1004997  33.0869988  24.8760012  27.7754997  33.3669988
  25.8380012  27.4214997  32.2539988  25.4559615  27.2362721  33.0126581
  27.2760012  27.4504997  18.9929988  27.0960012  27.2964997  18.0659988
  28.2260012  27.5584997  19.0379988  27.3797776  27.4440175  18.8721843
  30.5140012  29.5724997  36.3639988  31.4670012  29.6554997  36.3369988
  30.3530012  28.8604997  36.9839988  30.6226426  29.4876746  36.4440579
  36.6660012  29.8054997  18.4389988  36.3920012  29.3804997  17.6259988
  36.7050012  30.7364997  18.2219988  36.6337699  29.8732484  18.2983610
  25.8330012  24.4554997  34.1689988  25.9830012  23.7264997  33.5669988
  25.8360012  25.2324997  33.6099988  25.8539302  24.4607851  34.0110692
  26.2460012  22.8254997  31.6619988  26.7820012  23.2764997  31.0099988
  25.3940012  22.7174997  31.2389988  26.2042178  22.8726390  31.5155756
  27.8280012  28.2644997  31.9009988  28.5780012  28.1084997  31.3279988
  27.4890012  29.1164997  31.6259988  27.8848921  28.3582968  31.7853561
  32.2430012  26.0794997  36.9299988  32.4360012  25.1484997  36.8179988
  33.1010012  26.5044997  36.9199988  32.3853020  26.0096389  36.9133361
  33.5600012  28.8684997  35.0069988  33.2790012  29.5774997  34.4299988
  34.5030012  28.7954997  34.8559988  33.6489027  28.9557646  34.9075551
  24.3120012  25.6534997  36.0809988  23.5450012  25.1214997  35.8709988
  24.9910012  25.3434997  35.4809988  24.2987022  25.5387506  35.9711648
  27.0520012  20.2814997  32.0929988  26.9530012  21.2284997  31.9879988
  26.3090012  19.9094997  31.6179988  26.9380564  20.3605902  32.0144560
  28.3160012  24.6034997  35.6569988  28.0800012  24.3834997  36.5589988
  27.5320012  24.3964997  35.1469988  28.1778628  24.5454760  35.7113932
  31.0310012  23.7304997  34.7329988  30.0840012  23.7624997  34.8649988
  31.3440012  23.1054997  35.3859988  30.9435475  23.6503207  34.8394455
  32.6650012  22.3644997  36.7379988  32.5690012  21.4124997  36.7319988
  32.3440012  22.6334997  37.5979988  32.6084070  22.2704035  36.8535441
  22.4920012  23.5744997  35.7849988  22.7040012  22.8674997  35.1749988
  22.3810012  23.1364997  36.6289988  22.5059721  23.4187084  35.8156843
  27.2730012  19.5754997  34.7649988  27.9850012  18.9354997  34.7509988
  27.1720012  19.8424997  33.8509988  27.3567939  19.5239938  34.6395650
  27.6270012  21.2584997  36.8179988  27.4950012  20.7824997  35.9979988
  27.0280012  22.0024997  36.7629988  27.5279071  21.2939618  36.6982886
  27.1730012  38.1414997  19.9949988  28.1060012  38.2994997  20.1379988
  26.9090012  38.8164997  19.3699988  27.2649510  38.2543611  19.9300741
  20.7420012  32.7774997  19.4769988  21.6560012  32.8564997  19.7509988
  20.7490012  32.0904997  18.8109988  20.8681131  32.6953961  19.4244393
  19.3910012  38.1704997  24.5549988  18.7440012  37.7084997  24.0219988
  19.7450012  37.4984997  25.1369988  19.3503849  38.0164723  24.5607959
  20.2610012  36.2514997  26.3589988  19.9260012  35.3714997  26.5309988
  20.4830012  36.5964997  27.2239988  20.2451783  36.1777500  26.4994208
  37.8090012  37.0604997  29.3399988  37.7880012  37.2454997  30.2789988
  38.5000012  37.6294997  28.9989988  37.8994618  37.1626606  29.4223864
  37.3730012  36.6284997  32.2619988  36.8850012  35.8924997  31.8909988
  37.9220012  36.2344997  32.9399988  37.3804872  36.4746249  32.3029160
  35.8230012  32.4174997  36.8999988  34.9570012  32.3124997  37.2939988
  36.2000012  33.1764997  37.3459988  35.7553308  32.5056900  37.0142393
  37.1240012  30.6744997  22.4139988  37.9740012  31.0954997  22.5409988
  37.1300012  29.9344997  23.0209988  37.2411372  30.6320803  22.5134344
  37.5190012  28.7274997  24.2379988  36.7920012  28.2484997  24.6349988
  38.1000012  28.9334997  24.9699988  37.4979375  28.6897090  24.3914129
  37.2780012  31.5124997  29.1849988  38.1110012  31.1344997  28.9049988
  37.3900012  32.4554997  29.0659988  37.4072647  31.5882218  29.1305487
  35.7640012  34.3904997  31.4919988  35.1170012  34.7154997  32.1179988
  35.2470012  33.9504997  30.8179988  35.6054029  34.3755004  31.4865827
  37.7870012  28.6284997  20.6289988  37.2650012  28.9854997  19.9099988
  37.7540012  29.3034997  21.3069988  37.7111634  28.7685413  20.6223145
  36.1360012  25.8684997  19.1799988  36.2320012  26.5354997  18.4989988
  35.9960012  25.0524997  18.6979988  36.1302135  25.8494500  19.0218491
  35.3050012  27.2484997  24.8009988  35.1550012  26.3034997  24.7799988
  34.9520012  27.5294997  25.6439988  35.2366625  27.1570441  24.9122346
  20.3410012  29.3264997  28.8109988  20.5250012  29.2444997  27.8749988
  21.1900012  29.2024997  29.2349988  20.4810139  29.2985003  28.7401455
  36.1620012  29.2184997  34.4389988  36.7450012  28.4844997  34.6309988
  36.7260012  29.9904997  34.4859988  36.3179769  29.2224227  34.4716159
  37.6580012  27.1214997  35.1239988  36.7950012  26.7424997  34.9579988
  38.2630012  26.3824997  35.0499988  37.6215979  26.9698023  35.0912817
  35.3830012  23.2764997  18.2969988  35.9940012  22.9054997  18.9339988
  34.5470012  22.8554997  18.4929988  35.3535032  23.1687554  18.4107035
  35.0160012  24.8314997  23.2629988  35.2960012  23.9244997  23.3869988
  35.7750012  25.2654997  22.8739988  35.1569277  24.7660942  23.2273682
  35.6280012  25.4124997  28.6989988  36.5610012  25.6244997  28.6649988
  35.3930012  25.5144997  29.6209988  35.7238036  25.4552769  28.8189976
  35.6570012  26.1494997  31.4749988  34.8140012  26.4174997  31.8409988
  36.0990012  26.9714997  31.2639988  35.6014158  26.2973291  31.4965491
  19.9380012  24.5974997  34.9519988  20.8580012  24.4754997  35.1879988
  19.4890012  23.8474997  35.3409988  20.0031580  24.4793727  35.0369006
  37.9400012  20.1294997  36.8279988  38.2900012  19.4754997  36.2229988
  38.0870012  20.9664997  36.3889988  38.0078419  20.1531591  36.6857118
  35.6290012  22.0944997  23.3109988  35.8120012  21.6454997  24.1369988
  35.0300012  21.5094997  22.8479988  35.5730202  21.9539975  23.3613275
  21.1590012  22.9094997  27.8429988  21.6050012  22.1174997  28.1449988
  21.6260012  23.6254997  28.2739988  21.2830172  22.8980624  27.9424820
  19.4630012  25.9084997  28.9119988  19.9550012  25.6874997  28.1209988
  19.8260012  26.7494997  29.1929988  19.5793126  25.9918357  28.8417531
  37.4600012  22.2384997  35.1779988  36.5420012  22.5094997  35.1419988
  37.5830012  21.7034997  34.3929988  37.3511066  22.2032892  35.0670487
  37.4960012  22.1614997  19.8389988  37.9080012  21.4404997  19.3639988
  38.1780012  22.8314997  19.8979988  37.6445885  22.1532368  19.7818915
  19.7770012  22.1664997  22.9659988  18.8520012  22.3754997  22.8369988
  20.2310012  22.6504997  22.2769988  19.7117368  22.2605993  22.8551226
  34.5480012  37.1504997  24.9119988  35.2000012  36.8034997  24.3039988
  35.0580012  37.6394997  25.5579988  34.7062637  37.1690597  24.9160236
  19.7410012  20.9044997  31.3109988  19.0760012  20.6584997  31.9539988
  19.2980012  21.5264997  30.7329988  19.5900956  20.9548632  31.3209352
  21.9330012  34.0794997  35.4549988  21.1120012  34.2544997  34.9949988
  21.6800012  34.0064997  36.3759988  21.7866164  34.0935622  35.5164923
  24.8870012  35.0544997  31.7139988  24.4620012  35.8634997  31.4309988
  25.7910012  35.1394997  31.4119988  24.9510271  35.1768469  31.6343776
  29.1980012  36.4534997  34.6729988  29.3830012  36.1194997  35.5509988
  30.0440012  36.7624997  34.3509988  29.3377539  36.4496047  34.7495605
  31.5430012  37.7394997  33.9169988  32.2200012  37.1064997  33.6769988
  31.8650012  38.1404997  34.7239988  31.6791637  37.7071154  33.9932793
  36.4600012  20.3284997  32.9969988  35.6480012  20.6534997  32.6089988
  36.6930012  19.5684997  32.4639988  36.3803423  20.2702436  32.8718253
  22.2890012  38.3104997  31.7609988  21.5680012  38.7504997  31.3099988
  21.9230012  38.0594997  32.6099988  22.1409804  38.3367698  31.8139840
  24.7560012  37.9104997  30.7909988  23.8910012  37.9824997  31.1949988
  24.7010012  38.4574997  30.0069988  24.6302085  37.9942685  30.7403362
  29.4660012  37.7984997  29.9659988  29.0100012  38.3274997  29.3119988
  29.6290012  38.4014997  30.6919988  29.4255585  37.9524468  29.9745062
  31.7940012  36.6764997  30.9109988  30.8890012  36.8414997  30.6459988
  32.2230012  37.5294997  30.8459988  31.7280799  36.8144483  30.8659182
  34.3980012  38.2464997  31.2059988  34.2160012  39.1624997  30.9959988
  34.5750012  37.8364997  30.3599988  34.3970210  38.3164822  31.0627885
  21.7030012  36.9334997  28.6709988  21.6850012  36.5084997  29.5289988
  22.5080012  36.6154997  28.2629988  21.8093875  36.8323812  28.7331655
  23.8450012  35.6434997  27.3259988  23.6260012  34.7274997  27.4959988
  24.6690012  35.7834997  27.7919988  23.9264420  35.5370520  27.4122773
  26.3820012  36.1134997  28.1749988  26.5950012  35.2254997  27.8879988
  26.4460012  36.0794997  29.1289988  26.4198231  35.9873102  28.2647397
  29.8900012  21.7774997  27.3189988  29.2160012  21.1484997  27.5749988
  30.4540012  21.2934997  26.7159988  29.8739230  21.6258744  27.2725340
  35.0330012  19.8854997  27.4319988  35.6370012  20.4324997  26.9299988
  34.1630012  20.2044997  27.1919988  34.9981241  20.0035806  27.3307654
  36.7600012  21.0234997  25.7649988  37.3720012  20.5094997  25.2389988
  37.1420012  21.9014997  25.7889988  36.8954540  21.0717140  25.6961830
  22.2170012  20.4114997  25.1409988  21.4400012  20.1774997  24.6339988
  22.7470012  19.6144997  25.1499988  22.1822330  20.2716988  25.0727742
  21.0530012  20.2094997  20.9449988  21.4920012  20.8204997  20.3529988
  20.4200012  20.7474997  21.4189988  21.0274514  20.3659257  20.9280930
  26.7960012  20.3384997  24.9549988  27.6710012  20.7264997  24.9249988
  26.6600012  20.1234997  25.8769988  26.8973695  20.3625184  25.0756440
  32.3530012  20.3684997  26.6039988  32.4290012  20.4634997  25.6539988
  32.0780012  19.4604997  26.7329988  32.3262321  20.2587867  26.4915079
  33.7060012  20.3944997  22.2959988  33.0040012  21.0094997  22.0869988
  33.2620012  19.5564997  22.4269988  33.5496330  20.3655783  22.2850328
  20.9540012  36.1574997  21.8429988  20.2690012  36.1194997  21.1749988
  20.9580012  37.0704997  22.1309988  20.8608193  36.2757016  21.7905284
  22.9140012  22.1254997  19.3869988  23.4060012  21.4954997  18.8599988
  23.5380012  22.4214997  20.0509988  23.0655446  22.0793199  19.4045980
  27.9400012  22.4184997  21.8439988  28.1180012  21.7724997  22.5269988
  27.8870012  23.2524997  22.3119988  27.9571829  22.4427985  22.0005940
  29.8190012  37.3674997  20.2399988  30.6850012  37.7334997  20.0619988
  29.5720012  36.9274997  19.4259988  29.9042392  37.3581756  20.1056289
  36.5280012  36.9304997  22.9189988  36.3330012  36.1824997  22.3539988
  36.4890012  37.6884997  22.3359988  36.4960380  36.9306099  22.7628384
  22.1750012  20.9254997  34.6589988  21.8090012  20.1604997  35.1019988
  23.0880012  20.9544997  34.9459988  22.2482790  20.8247224  34.7584070
  24.1480012  20.2764997  36.1949988  25.0460012  20.0024997  36.0099988
  23.7610012  19.5334997  36.6589988  24.2186612  20.1385914  36.2323643
  22.7720012  37.0774997  18.8679988  22.5050012  37.3644997  19.7409988
  23.5440012  36.5314997  19.0199988  22.8397488  37.0430294  19.0081050
  32.5690012  19.6084997  36.3769988  32.6460012  19.1824997  37.2309988
  33.4630012  19.6224997  36.0339988  32.7003428  19.5520879  36.4475310
  35.7450012  35.6814997  35.0689988  34.9630012  35.4954997  34.5499988
  35.6730012  36.6104997  35.2869988  35.6281777  35.7816492  35.0274048
  50.1510012  29.5674997  25.0999988  50.2400012  30.5114997  24.9679988
  49.5130012  29.2924997  24.4419988  50.0769081  29.6594830  24.9929614
  49.0840012  28.8224997  28.5189988  49.0460012  28.1764997  29.2239988
  48.7620012  28.3564997  27.7479988  49.0352333  28.6709408  28.5112978
  41.4530012  28.4374997  30.1119988  41.4940012  27.8114997  30.8349988
  42.1560012  29.0614997  30.2939988  41.5536363  28.4361196  30.2356044
  52.7900012  31.7614997  26.8199988  52.3500012  31.0414997  27.2709988
  52.7770012  32.4824997  27.4499988  52.7280226  31.7603731  26.9668494
  42.3760012  32.8874997  28.6469988  42.0070012  32.0854997  28.2769988
  43.3170012  32.7184997  28.6929988  42.4527289  32.7550153  28.6026316
  38.9860012  26.5474997  24.0399988  38.5390012  27.3934997  24.0209988
  38.4250012  25.9674997  23.5239988  38.8489900  26.5849916  23.9676801
  39.6970012  28.7094997  26.1659988  39.9100012  27.9394997  26.6929988
  40.4350012  28.7984997  25.5619988  39.8258496  28.6161394  26.1565300
  49.9020012  36.8664997  27.0329988  50.5220012  36.1894997  26.7589988
  49.6940012  36.6484997  27.9409988  49.9586904  36.7443870  27.1183365
  47.4740012  31.2554997  28.9249988  47.7780012  30.5694997  28.3299988
  48.1950012  31.3734997  29.5429988  47.6130671  31.1776304  28.9271816
  56.1370012  22.8564997  29.7859988  56.1860012  23.4664997  30.5219988
  56.5620012  23.3174997  29.0629988  56.2011824  23.0023741  29.7890205
  50.6150012  25.6494997  29.2529988  50.7570012  24.7034997  29.2729988
  50.5080012  25.8564997  28.3239988  50.6199864  25.5479534  29.1302339
  43.7690012  23.7504997  26.5249988  43.8130012  24.6104997  26.1069988
  43.3120012  23.1984997  25.8909988  43.7132185  23.7935799  26.3820299
  51.4920012  23.8814997  24.9259988  52.1380012  23.5524997  25.5509988
  52.0020012  24.3994997  24.3029988  51.6494264  23.9064611  24.9273862
  40.3900012  26.1474997  27.2869988  41.0430012  25.5974997  27.7189988
  40.4140012  25.8734997  26.3699988  40.4826683  26.0351466  27.2222123
  45.5460012  27.6974997  26.5019988  46.1620012  27.1714997  27.0119988
  44.9600012  27.0574997  26.0989988  45.5510810  27.5389208  26.5173173
  56.5280012  24.3344997  32.0219988  55.8400012  24.9924997  31.9259988
  56.5440012  24.1374997  32.9579988  56.4358525  24.3980462  32.1354808
  42.5800012  22.6684997  30.5989988  42.3610012  23.1984997  29.8329988
  41.9120012  22.8954997  31.2459988  42.4597600  22.7716906  30.5816379
  49.9490012  32.1684997  24.1429988  49.6530012  31.8464997  23.2919988
  49.6240012  33.0684997  24.1839988  49.8646371  32.2460215  24.0321801
  45.1490012  30.3444997  30.8859988  44.4090012  30.9424997  30.9899988
  45.8630012  30.8984997  30.5709988  45.1442237  30.5012831  30.8576465
  53.2560012  23.1724997  26.9059988  53.0400012  22.4064997  27.4389988
  53.9110012  23.6444997  27.4189988  53.3150632  23.1315889  27.0482861
  42.1730012  24.5604997  28.5509988  42.7870012  25.1934997  28.9249988
  42.6850012  24.0884997  27.8949988  42.3262296  24.5832370  28.5134252
  43.5560012  32.3084997  31.6739988  43.5510012  33.1884997  31.2959988
  42.7030012  32.2254997  32.0989988  43.4399464  32.4176117  31.6797907
  39.6770012  31.9794997  22.4559988  39.4050012  32.2084997  21.5669988
  39.7230012  32.8174997  22.9159988  39.6460094  32.1241213  22.3965697
  53.3020012  33.6014997  29.1679988  52.3610012  33.6594997  29.3299988
  53.5790012  34.5074997  29.0309988  53.2104679  33.7319443  29.1716815
  53.6030012  21.8874997  30.5859988  52.8670012  22.4984997  30.5479988
  54.2860012  22.3024997  30.0589988  53.5946541  22.0271374  30.5095832
  46.6060012  19.9744997  28.0519988  46.4890012  19.0254997  27.9969988
  45.7510012  20.3064997  28.3249988  46.4743733  19.8895409  28.0813897
  51.5540012  35.3824997  25.7939988  51.9800012  34.6754997  25.3089988
  51.8710012  36.1834997  25.3769988  51.6551019  35.3940994  25.6713130
  52.7140012  33.2834997  24.3019988  52.4560012  32.5934997  23.6909988
  52.7850012  32.8404997  25.1479988  52.6882856  33.1292124  24.3326885
  54.4000012  31.8494997  32.7799988  54.5400012  31.2584997  32.0399988
  54.5670012  32.7224997  32.4229988  54.4416778  31.8866426  32.6306965
  48.8730012  28.8114997  22.5519988  48.1610012  29.3464997  22.1999988
  49.5640012  28.8674997  21.8919988  48.8690132  28.8922543  22.4146289
  48.9260012  27.2694997  19.5909988  49.6270012  27.2914997  20.2419988
  49.2290012  26.6414997  18.9349988  49.0627830  27.1876566  19.5913711
  56.2420012  28.1894997  30.8459988  55.5890012  28.8844997  30.9349988
  56.7070012  28.3994997  30.0359988  56.2155390  28.3129425  30.7486883
  52.2780012  29.0214997  23.5039988  51.5460012  29.2494997  24.0769988
  52.7260012  28.3074997  23.9589988  52.2383095  28.9562571  23.6439119
  52.1760012  27.1954997  32.5709988  52.2560012  27.9584997  33.1429988
  51.5740012  27.4744997  31.8809988  52.1055756  27.3377134  32.5560589
  43.9240012  29.6514997  25.3859988  43.5930012  29.2814997  24.5679988
  44.5120012  28.9814997  25.7329988  43.9581873  29.5101156  25.3208102
  45.2900012  33.0794997  28.0679988  45.1960012  32.5014997  27.3109988
  46.0200012  32.7084997  28.5639988  45.3757981  32.9502390  28.0314165
  44.2900012  28.4204997  29.0199988  44.8560012  28.5414997  28.2569988
  44.6090012  29.0574997  29.6589988  44.4105786  28.5231884  29.0020040
  50.5990012  33.9234997  29.7539988  50.3590012  34.5854997  30.4019988
  50.4010012  33.0894997  30.1789988  50.5393808  33.9013134  29.9001524
  45.1700012  32.8194997  33.7369988  44.8590012  33.6014997  34.1919988
  44.5200012  32.6664997  33.0509988  45.0395558  32.9059105  33.7065871
  51.1490012  28.1834997  21.1889988  51.7290012  28.3334997  21.9359988
  51.5630012  28.6544997  20.4659988  51.2842830  28.2676841  21.1934134
  42.0900012  29.0174997  32.9659988  42.1610012  29.6684997  33.6639988
  41.2000012  29.1204997  32.6309988  41.9793117  29.1205936  33.0162700
  48.8760012  34.9204997  24.6239988  49.3500012  35.2154997  25.4019988
  48.3130012  35.6584997  24.3909988  48.8647653  35.0606932  24.6990136
  43.4100012  34.8914997  34.4999988  43.4170012  34.7554997  33.5529988
  42.4940012  34.7734997  34.7519988  43.2871714  34.8569430  34.4044666
  54.8480012  19.9334997  21.0019988  53.9480012  20.0724997  21.2969988
  55.1000012  20.7644997  20.5999988  54.7588702  20.0649074  20.9880205
  42.9140012  28.7214997  22.9759988  42.6220012  29.4894997  22.4849988
  42.2400012  28.0614997  22.8129988  42.7829081  28.7374406  22.8867340
  56.0370012  34.2994997  19.3779988  56.1110012  35.2384997  19.5489988
  56.9430012  33.9944997  19.3219988  56.1695100  34.3866722  19.3938119
  39.0070012  31.0844997  31.7909988  38.5060012  31.0564997  30.9759988
  39.0120012  30.1784997  32.0999988  38.9391526  30.9582278  31.7212872
  38.7570012  33.8644997  28.6749988  39.7030012  33.7204997  28.6559988
  38.6450012  34.6484997  29.2119988  38.8712727  33.9508046  28.7450072
  56.9550012  34.5304997  34.3569988  56.9060012  33.5754997  34.3199988
  56.1280012  34.7984997  34.7579988  56.8364940  34.4358998  34.4061375
  47.9340012  34.1044997  33.2329988  48.0210012  34.9304997  33.7079988
  47.0700012  33.7744997  33.4819988  47.8291964  34.1729878  33.3316549
  48.3480012  37.8764997  23.0389988  48.2730012  37.7554997  22.0929988
  48.3810012  38.8264997  23.1579988  48.3421848  37.9882500  22.9254834
  42.0010012  36.6654997  24.8199988  42.1540012  36.3174997  25.6989988
  41.1510012  36.3094997  24.5649988  41.9068962  36.5696650  24.9058340
  51.4500012  37.0304997  20.0409988  51.8250012  36.2864997  19.5709988
  51.4540012  36.7604997  20.9599988  51.5018915  36.8921486  20.1007824
  51.1190012  36.9564997  22.7909988  50.1830012  37.0564997  22.9689988
  51.3990012  36.2474997  23.3689988  51.0288255  36.8742711  22.8935391
  54.1070012  26.0234997  34.8369988  53.7000012  26.5044997  34.1159988
  54.1480012  25.1184997  34.5289988  54.0568437  25.9669374  34.6966683
  41.2560012  32.4074997  32.8339988  41.4720012  32.0464997  33.6929988
  40.4010012  32.0334997  32.6239988  41.1699292  32.3074111  32.9233386
  43.8750012  20.8774997  28.8289988  43.0130012  20.7904997  28.4219988
  43.8520012  21.7334997  29.2569988  43.7540330  20.9812765  28.8311863
  48.5380012  20.5994997  32.2039988  48.9580012  20.1844997  32.9569988
  47.6050012  20.4214997  32.3209988  48.4693644  20.5185900  32.3229539
  51.8640012  24.3554997  33.0569988  51.3500012  24.2294997  33.8549988
  51.7090012  25.2674997  32.8129988  51.7726852  24.4616132  33.1332158
  52.6270012  29.2164997  18.8189988  52.6690012  28.9934997  17.8889988
  53.4760012  29.6154997  19.0089988  52.7475396  29.2399155  18.7173627
  48.1990012  23.0924997  19.4889988  47.9460012  23.1114997  20.4119988
  47.9430012  22.2204997  19.1879988  48.1297790  22.9772437  19.5746263
  43.9660012  25.8434997  29.9239988  43.3240012  25.8024997  30.6329988
  44.0030012  26.7694997  29.6869988  43.8831324  25.9631559  29.9889824
  43.9630012  26.0644997  24.8359988  43.0700012  25.7234997  24.7779988
  44.4130012  25.6874997  24.0809988  43.9017305  25.9668484  24.7259177
  49.4980012  26.4804997  23.6529988  49.0890012  27.2954997  23.3619988
  50.2190012  26.3404997  23.0389988  49.5394537  26.5732018  23.5301342
  48.6000012  26.6554997  35.1409988  48.0380012  25.9514997  35.4619988
  49.4270012  26.5354997  35.6089988  48.6347095  26.5427883  35.2482330
  50.5030012  25.9264997  26.4669988  50.3080012  26.5314997  25.7519988
  50.6840012  25.0924997  26.0329988  50.5007614  25.8966300  26.3104405
  41.7160012  26.1634997  31.7909988  41.6780012  26.5634997  32.6599988
  41.2250012  25.3464997  31.8819988  41.6444684  26.1078069  31.9221059
  45.0820012  23.5374997  18.5899988  44.6510012  23.0924997  19.3199988
  44.3640012  23.9094997  18.0779988  44.9259438  23.5268940  18.6206799
  38.3240012  23.2794997  25.6419988  38.9550012  23.2504997  26.3609988
  38.7730012  22.8544997  24.9119988  38.4710774  23.2180492  25.6416553
  39.5980012  24.0254997  21.0659988  40.0720012  24.6164997  20.4809988
  38.8810012  24.5564997  21.4129988  39.5659341  24.1780867  21.0328836
  49.7670012  27.5644997  31.1389988  50.0900012  26.9334997  30.4959988
  49.3270012  27.0294997  31.7989988  49.7516895  27.4058440  31.1402850
  46.5440012  23.4914997  25.9229988  45.6330012  23.5484997  26.2109988
  47.0500012  23.4314997  26.7329988  46.4875413  23.4911985  26.0720622
  41.3730012  25.1204997  24.7489988  40.4830012  25.2204997  24.4089988
  41.6690012  24.2784997  24.4029988  41.2912823  25.0203546  24.6557213
  45.0260012  25.1204997  22.4059988  45.9570012  25.2494997  22.5839988
  44.8110012  25.7904997  21.7559988  45.1244247  25.2286565  22.3425747
  50.9490012  22.7264997  29.1869988  50.2730012  22.8574997  29.8509988
  50.4640012  22.5714997  28.3769988  50.7907145  22.7234905  29.1684517
  43.7000012  26.3154997  19.9729988  43.1570012  25.9354997  19.2809988
  44.5330012  26.5094997  19.5439988  43.7384399  26.2898124  19.8204526
  54.2370012  38.3984997  35.4639988  54.4370012  38.8224997  34.6289988
  54.8920012  38.7414997  36.0709988  54.3530051  38.5029648  35.4317836
  41.8350012  30.8724997  35.0719988  42.5670012  31.1264997  35.6329988
  41.0550012  31.0764997  35.5869988  41.8298232  30.9349177  35.2185760
  47.8640012  26.2794997  27.8099988  48.4290012  25.7324997  27.2629988
  47.7170012  25.7574997  28.5979988  47.9212918  26.1342024  27.8418454
  42.8660012  22.4154997  24.2279988  42.5490012  21.5134997  24.1929988
  43.6480012  22.4174997  23.6749988  42.9282284  22.2921628  24.1484783
  46.4910012  24.6674997  30.2239988  45.6550012  25.1214997  30.3339988
  47.0150012  24.9434997  30.9759988  46.4474414  24.7669376  30.3407136
  47.0350012  30.8804997  21.9079988  46.2900012  30.3734997  21.5859988
  46.9010012  30.9294997  22.8549988  46.9148776  30.8176940  21.9918647
  54.1850012  30.0134997  30.6949988  54.8270012  30.4704997  30.1509988
  53.3550012  30.1264997  30.2319988  54.1605963  30.0912704  30.5580177
  50.9330012  23.6944997  20.1079988  49.9940012  23.8064997  19.9559988
  51.2300012  24.5514997  20.4139988  50.8447666  23.8256443  20.1285768
  48.5540012  31.0644997  33.1449988  48.2090012  30.6834997  33.9519988
  48.3540012  31.9984997  33.2169988  48.4798061  31.1385228  33.2650961
  51.6510012  25.5614997  21.7679988  52.5430012  25.4244997  22.0869988
  51.7080012  26.3524997  21.2319988  51.7806285  25.6496660  21.7391691
  42.1600012  30.1754997  27.6779988  42.9050012  30.1734997  27.0769988
  42.2380012  29.3524997  28.1599988  42.2725518  30.0639315  27.6608929
  49.1610012  32.3394997  20.9339988  48.8650012  33.1654997  21.3149988
  48.4580012  31.7194997  21.1299988  49.0254914  32.3688199  21.0126443
  39.1680012  28.6364997  32.9929988  39.3910012  28.2184997  33.8249988
  38.5660012  28.0234997  32.5699988  39.1171759  28.4964668  33.0497022
  46.1840012  28.1534997  35.2059988  45.8880012  27.9874997  34.3109988
  47.1160012  27.9334997  35.1949988  46.2694166  28.1010640  35.0820536
  50.8050012  33.5264997  33.0959988  49.9040012  33.7094997  32.8279988
  50.8390012  33.7854997  34.0169988  50.6863041  33.5865512  33.1838197
  56.5360012  25.7714997  21.4629988  55.9820012  25.3754997  20.7909988
  56.6360012  26.6814997  21.1849988  56.4737059  25.8403586  21.3334401
  56.4990012  31.5714997  34.2999988  55.6480012  31.8094997  33.9329988
  57.0900012  31.5544997  33.5469988  56.4622487  31.6018258  34.1478893
  54.8310012  34.5574997  21.9279988  54.4580012  33.7314997  22.2369988
  55.1090012  34.3744997  21.0309988  54.8175630  34.4197303  21.8489626
  51.9920012  29.3654997  28.9489988  51.0630012  29.1334997  28.9219988
  52.4430012  28.5884997  28.6189988  51.9259216  29.2287238  28.9006917
  44.5350012  33.6934997  25.0819988  45.0620012  34.4664997  24.8819988
  43.6550012  33.9184997  24.7809988  44.4881773  33.8298005  25.0139010
  40.2900012  28.5554997  19.6689988  40.9060012  29.1824997  20.0489988
  39.4280012  28.8714997  19.9409988  40.2577698  28.6839430  19.7577183
  45.9620012  31.3564997  24.6589988  45.7210012  32.2814997  24.6999988
  45.2210012  30.8974997  25.0549988  45.8288409  31.4211421  24.7181377
  46.4770012  35.5054997  30.9739988  46.8390012  36.3604997  30.7399988
  47.0080012  35.2134997  31.7139988  46.5984473  35.5831060  31.0420855
  44.6450012  36.3784997  24.2039988  43.6950012  36.4834997  24.2549988
  44.9970012  37.1984997  24.5489988  44.5624203  36.5038314  24.2576650
  50.0210012  31.6044997  30.6739988  49.5950012  31.3774997  31.5009988
  50.6010012  30.8664997  30.4919988  50.0411868  31.4735299  30.7625830
  52.2240012  32.5334997  19.7479988  52.5770012  32.1534997  20.5529988
  51.2750012  32.4404997  19.8349988  52.1440441  32.4689596  19.8698559
  52.6790012  36.1564997  33.1439988  52.0780012  35.6014997  32.6479988
  52.9610012  36.8234997  32.5179988  52.6348519  36.1706841  32.9914952
  56.7270012  37.0134997  19.9489988  57.4710012  37.5994997  19.8089988
  56.0330012  37.5814997  20.2829988  56.7350292  37.1705582  19.9749961
  40.8020012  23.3894997  32.5509988  39.9090012  23.7284997  32.4829988
  40.7030012  22.5344997  32.9689988  40.6664164  23.3202588  32.5982235
  53.0900012  31.2064997  21.9749988  52.8120012  30.4784997  22.5309988
  54.0170012  31.3254997  22.1799988  53.1773124  31.1228802  22.0788845
  40.4530012  35.1944997  30.9859988  40.6700012  34.2624997  30.9549988
  40.6990012  35.4684997  31.8689988  40.5159549  35.1040636  31.1011763
  46.3150012  33.6454997  18.1949988  46.5540012  32.8974997  17.6479988
  46.0460012  33.2574997  19.0279988  46.3113675  33.4906638  18.2326865
  45.2520012  33.2154997  20.6519988  45.3980012  32.6954997  21.4419988
  45.2490012  34.1224997  20.9579988  45.2715989  33.2668853  20.8016088
  41.7050012  30.4684997  21.1619988  41.0190012  30.8204997  21.7289988
  42.2270012  31.2314997  20.9149988  41.6816852  30.6198578  21.2062118
  49.5360012  23.1304997  31.4409988  50.2350012  23.2044997  32.0909988
  49.1550012  22.2664997  31.5949988  49.5801767  23.0237624  31.5508322
  50.3210012  22.7824997  22.5379988  50.5410012  23.2544997  21.7349988
  50.8790012  23.1774997  23.2079988  50.4264968  22.9004285  22.5187331
  47.9890012  34.9134997  21.4009988  47.1730012  35.4104997  21.4529988
  48.5190012  35.3884997  20.7609988  47.9489161  35.0457722  21.3215956
  47.5210012  24.5104997  23.3729988  48.3330012  25.0154997  23.4189988
  47.2760012  24.3654997  24.2869988  47.5990520  24.5600375  23.5028517
  48.0560012  25.4964997  32.5579988  48.1750012  26.0704997  33.3149988
  48.7120012  24.8084997  32.6719988  48.1609757  25.4821079  32.6770825
  48.4040012  21.5914997  24.3109988  48.0580012  22.2094997  24.9559988
  49.0630012  22.0924997  23.8299988  48.4457826  21.7435802  24.3340971
  45.3280012  35.9574997  21.3829988  45.4880012  36.7564997  20.8819988
  45.1300012  36.2634997  22.2679988  45.3231649  36.1084469  21.4339815
  44.0620012  22.6544997  20.9979988  43.9790012  23.5434997  21.3449988
  44.9520012  22.3894997  21.2299988  44.1709469  22.7401430  21.0767626
  54.2610012  23.4034997  33.3929988  53.3440012  23.6664997  33.3049988
  54.5960012  23.4004997  32.4959988  54.1809900  23.4390224  33.2597919
  52.8630012  27.1544997  27.4879988  52.0650012  26.7394997  27.1599988
  53.3080012  26.4634997  27.9789988  52.8139885  27.0043543  27.5094889
  42.3210012  33.0824997  20.0589988  42.9130012  33.7814997  20.3349988
  42.7800012  32.6494997  19.3389988  42.4641142  33.1197049  19.9994830
  40.6370012  25.7464997  19.1749988  40.5920012  26.6854997  19.3529988
  39.7490012  25.5104997  18.9049988  40.5108574  25.8431892  19.1628912
  53.9490012  36.4104997  29.1109988  53.7940012  37.0884997  28.4539988
  54.8820012  36.4824997  29.3139988  54.0538500  36.5130170  29.0485119
  41.4450012  20.5284997  27.8479988  41.2160012  20.5874997  26.9199988
  41.0020012  19.7364997  28.1539988  41.3538530  20.4295753  27.7624786
  40.3750012  34.4684997  24.0079988  39.5430012  34.9414997  24.0359988
  40.9210012  34.9784997  23.4099988  40.3349739  34.6021871  23.9309716
  39.6630012  37.0814997  35.3379988  40.2040012  36.8644997  36.0979988
  39.1820012  36.2754997  35.1489988  39.6719345  36.9429514  35.4163076
  44.2610012  36.0004997  36.9589988  45.0280012  35.5414997  37.2999988
  44.2390012  35.7744997  36.0289988  44.3631434  35.9070409  36.8800043
  48.3530012  35.5084997  18.3339988  47.7090012  34.8774997  18.6549988
  49.1150012  34.9774997  18.1019988  48.3678077  35.3502920  18.3466011
  50.8380012  34.3804997  35.6879988  50.4870012  33.5244997  35.9309988
  51.5640012  34.5234997  36.2949988  50.8880769  34.2825636  35.8033619
  52.9570012  35.3254997  18.5679988  53.2400012  34.5314997  19.0199988
  53.6970012  35.5584997  18.0069988  53.0957486  35.2482803  18.5540698
  39.5700012  30.8914997  36.2929988  39.7140012  29.9894997  36.0059988
  38.7980012  31.1774997  35.8049988  39.4853322  30.8068261  36.1877881
  43.9120012  31.2354997  18.4249988  43.9760012  30.4414997  18.9559988
  44.5650012  31.1164997  17.7349988  44.0090241  31.1107148  18.4044317
  46.2260012  30.8614997  35.7249988  45.8970012  31.1324997  34.8679988
  46.3780012  29.9204997  35.6379988  46.2014809  30.7713862  35.5958244
  49.2640012  32.2824997  18.1609988  48.9950012  32.4624997  19.0619988
  49.0580012  31.3564997  18.0299988  49.1993825  32.1820152  18.2665214
  51.9600012  30.7774997  33.1089988  52.7060012  31.3654997  32.9889988
  51.2030012  31.3594997  33.1719988  51.9597554  30.9367011  33.1010907
  40.4030012  28.0914997  35.7129988  40.8110012  27.2344997  35.5919988
  40.1430012  28.1064997  36.6339988  40.4237568  27.9760807  35.8209588
  45.0610012  29.2074997  20.7309988  44.6010012  28.7234997  21.4169988
  45.3160012  28.5394997  20.0949988  45.0324902  29.0508731  20.7389334
  44.3500012  27.1004997  33.0869988  43.7320012  27.7754997  33.3669988
  44.6940012  27.4214997  32.2539988  44.3119615  27.2362721  33.0126581
  46.1320012  27.4504997  18.9929988  45.9520012  27.2964997  18.0659988
  47.0820012  27.5584997  19.0379988  46.2357776  27.4440175  18.8721843
  49.3700012  29.5724997  36.3639988  50.3230012  29.6554997  36.3369988
  49.2090012  28.8604997  36.9839988  49.4786426  29.4876746  36.4440579
  55.5220012  29.8054997  18.4389988  55.2480012  29.3804997  17.6259988
  55.5610012  30.7364997  18.2219988  55.4897699  29.8732484  18.2983610
  44.6890012  24.4554997  34.1689988  44.8390012  23.7264997  33.5669988
  44.6920012  25.2324997  33.6099988  44.7099302  24.4607851  34.0110692
  45.1020012  22.8254997  31.6619988  45.6380012  23.2764997  31.0099988
  44.2500012  22.7174997  31.2389988  45.0602178  22.8726390  31.5155756
  46.6840012  28.2644997  31.9009988  47.4340012  28.1084997  31.3279988
  46.3450012  29.1164997  31.6259988  46.7408921  28.3582968  31.7853561
  51.0990012  26.0794997  36.9299988  51.2920012  25.1484997  36.8179988
  51.9570012  26.5044997  36.9199988  51.2413020  26.0096389  36.9133361
  52.4160012  28.8684997  35.0069988  52.1350012  29.5774997  34.4299988
  53.3590012  28.7954997  34.8559988  52.5049027  28.9557646  34.9075551
  43.1680012  25.6534997  36.0809988  42.4010012  25.1214997  35.8709988
  43.8470012  25.3434997  35.4809988  43.1547022  25.5387506  35.9711648
  45.9080012  20.2814997  32.0929988  45.8090012  21.2284997  31.9879988
  45.1650012  19.9094997  31.6179988  45.7940564  20.3605902  32.0144560
  47.1720012  24.6034997  35.6569988  46.9360012  24.3834997  36.5589988
  46.3880012  24.3964997  35.1469988  47.0338628  24.5454760  35.7113932
  49.8870012  23.7304997  34.7329988  48.9400012  23.7624997  34.8649988
  50.2000012  23.1054997  35.3859988  49.7995475  23.6503207  34.8394455
  51.5210012  22.3644997  36.7379988  51.4250012  21.4124997  36.7319988
  51.2000012  22.6334997  37.5979988  51.4644070  22.2704035  36.8535441
  41.3480012  23.5744997  35.7849988  41.5600012  22.8674997  35.1749988
  41.2370012  23.1364997  36.6289988  41.3619721  23.4187084  35.8156843
  46.1290012  19.5754997  34.7649988  46.8410012  18.9354997  34.7509988
  46.0280012  19.8424997  33.8509988  46.2127939  19.5239938  34.6395650
  46.4830012  21.2584997  36.8179988  46.3510012  20.7824997  35.9979988
  45.8840012  22.0024997  36.7629988  46.3839071  21.2939618  36.6982886
  46.0290012  38.1414997  19.9949988  46.9620012  38.2994997  20.1379988
  45.7650012  38.8164997  19.3699988  46.1209510  38.2543611  19.9300741
  39.5980012  32.7774997  19.4769988  40.5120012  32.8564997  19.7509988
  39.6050012  32.0904997  18.8109988  39.7241131  32.6953961  19.4244393
  38.2470012  38.1704997  24.5549988  37.6000012  37.7084997  24.0219988
  38.6010012  37.4984997  25.1369988  38.2063849  38.0164723  24.5607959
  39.1170012  36.2514997  26.3589988  38.7820012  35.3714997  26.5309988
  39.3390012  36.5964997  27.2239988  39.1011783  36.1777500  26.4994208
  56.6650012  37.0604997  29.3399988  56.6440012  37.2454997  30.2789988
  57.3560012  37.6294997  28.9989988  56.7554618  37.1626606  29.4223864
  56.2290012  36.6284997  32.2619988  55.7410012  35.8924997  31.8909988
  56.7780012  36.2344997  32.9399988  56.2364872  36.4746249  32.3029160
  54.6790012  32.4174997  36.8999988  53.8130012  32.3124997  37.2939988
  55.0560012  33.1764997  37.3459988  54.6113308  32.5056900  37.0142393
  55.9800012  30.6744997  22.4139988  56.8300012  31.0954997  22.5409988
  55.9860012  29.9344997  23.0209988  56.0971372  30.6320803  22.5134344
  56.3750012  28.7274997  24.2379988  55.6480012  28.2484997  24.6349988
  56.9560012  28.9334997  24.9699988  56.3539375  28.6897090  24.3914129
  56.1340012  31.5124997  29.1849988  56.9670012  31.1344997  28.9049988
  56.2460012  32.4554997  29.0659988  56.2632647  31.5882218  29.1305487
  54.6200012  34.3904997  31.4919988  53.9730012  34.7154997  32.1179988
  54.1030012  33.9504997  30.8179988  54.4614029  34.3755004  31.4865827
  56.6430012  28.6284997  20.6289988  56.1210012  28.9854997  19.9099988
  56.6100012  29.3034997  21.3069988  56.5671634  28.7685413  20.6223145
  54.9920012  25.8684997  19.1799988  55.0880012  26.5354997  18.4989988
  54.8520012  25.0524997  18.6979988  54.9862135  25.8494500  19.0218491
  54.1610012  27.2484997  24.8009988  54.0110012  26.3034997  24.7799988
  53.8080012  27.5294997  25.6439988  54.0926625  27.1570441  24.9122346
  39.1970012  29.3264997  28.8109988  39.3810012  29.2444997  27.8749988
  40.0460012  29.2024997  29.2349988  39.3370139  29.2985003  28.7401455
  55.0180012  29.2184997  34.4389988  55.6010012  28.4844997  34.6309988
  55.5820012  29.9904997  34.4859988  55.1739769  29.2224227  34.4716159
  56.5140012  27.1214997  35.1239988  55.6510012  26.7424997  34.9579988
  57.1190012  26.3824997  35.0499988  56.4775979  26.9698023  35.0912817
  54.2390012  23.2764997  18.2969988  54.8500012  22.9054997  18.9339988
  53.4030012  22.8554997  18.4929988  54.2095032  23.1687554  18.4107035
  53.8720012  24.8314997  23.2629988  54.1520012  23.9244997  23.3869988
  54.6310012  25.2654997  22.8739988  54.0129277  24.7660942  23.2273682
  54.4840012  25.4124997  28.6989988  55.4170012  25.6244997  28.6649988
  54.2490012  25.5144997  29.6209988  54.5798036  25.4552769  28.8189976
  54.5130012  26.1494997  31.4749988  53.6700012  26.4174997  31.8409988
  54.9550012  26.9714997  31.2639988  54.4574158  26.2973291  31.4965491
  38.7940012  24.5974997  34.9519988  39.7140012  24.4754997  35.1879988
  38.3450012  23.8474997  35.3409988  38.8591580  24.4793727  35.0369006
  56.7960012  20.1294997  36.8279988  57.1460012  19.4754997  36.2229988
  56.9430012  20.9664997  36.3889988  56.8638419  20.1531591  36.6857118
  54.4850012  22.0944997  23.3109988  54.6680012  21.6454997  24.1369988
  53.8860012  21.5094997  22.8479988  54.4290202  21.9539975  23.3613275
  40.0150012  22.9094997  27.8429988  40.4610012  22.1174997  28.1449988
  40.4820012  23.6254997  28.2739988  40.1390172  22.8980624  27.9424820
  38.3190012  25.9084997  28.9119988  38.8110012  25.6874997  28.1209988
  38.6820012  26.7494997  29.1929988  38.4353126  25.9918357  28.8417531
  56.3160012  22.2384997  35.1779988  55.3980012  22.5094997  35.1419988
  56.4390012  21.7034997  34.3929988  56.2071066  22.2032892  35.0670487
  56.3520012  22.1614997  19.8389988  56.7640012  21.4404997  19.3639988
  57.0340012  22.8314997  19.8979988  56.5005885  22.1532368  19.7818915
  38.6330012  22.1664997  22.9659988  37.7080012  22.3754997  22.8369988
  39.0870012  22.6504997  22.2769988  38.5677368  22.2605993  22.8551226
  53.4040012  37.1504997  24.9119988  54.0560012  36.8034997  24.3039988
  53.9140012  37.6394997  25.5579988  53.5622637  37.1690597  24.9160236
  38.5970012  20.9044997  31.3109988  37.9320012  20.6584997  31.9539988
  38.1540012  21.5264997  30.7329988  38.4460956  20.9548632  31.3209352
  40.7890012  34.0794997  35.4549988  39.9680012  34.2544997  34.9949988
  40.5360012  34.0064997  36.3759988  40.6426164  34.0935622  35.5164923
  43.7430012  35.0544997  31.7139988  43.3180012  35.8634997  31.4309988
  44.6470012  35.1394997  31.4119988  43.8070271  35.1768469  31.6343776
  48.0540012  36.4534997  34.6729988  48.2390012  36.1194997  35.5509988
  48.9000012  36.7624997  34.3509988  48.1937539  36.4496047  34.7495605
  50.3990012  37.7394997  33.9169988  51.0760012  37.1064997  33.6769988
  50.7210012  38.1404997  34.7239988  50.5351637  37.7071154  33.9932793
  55.3160012  20.3284997  32.9969988  54.5040012  20.6534997  32.6089988
  55.5490012  19.5684997  32.4639988  55.2363423  20.2702436  32.8718253
  41.1450012  38.3104997  31.7609988  40.4240012  38.7504997  31.3099988
  40.7790012  38.0594997  32.6099988  40.9969804  38.3367698  31.8139840
  43.6120012  37.9104997  30.7909988  42.7470012  37.9824997  31.1949988
  43.5570012  38.4574997  30.0069988  43.4862085  37.9942685  30.7403362
  48.3220012  37.7984997  29.9659988  47.8660012  38.3274997  29.3119988
  48.4850012  38.4014997  30.6919988  48.2815585  37.9524468  29.9745062
  50.6500012  36.6764997  30.9109988  49.7450012  36.8414997  30.6459988
  51.0790012  37.5294997  30.8459988  50.5840799  36.8144483  30.8659182
  53.2540012  38.2464997  31.2059988  53.0720012  39.1624997  30.9959988
  53.4310012  37.8364997  30.3599988  53.2530210  38.3164822  31.0627885
  40.5590012  36.9334997  28.6709988  40.5410012  36.5084997  29.5289988
  41.3640012  36.6154997  28.2629988  40.6653875  36.8323812  28.7331655
  42.7010012  35.6434997  27.3259988  42.4820012  34.7274997  27.4959988
  43.5250012  35.7834997  27.7919988  42.7824420  35.5370520  27.4122774
  45.2380012  36.1134997  28.1749988  45.4510012  35.2254997  27.8879988
  45.3020012  36.0794997  29.1289988  45.2758232  35.9873102  28.2647397
  48.7460012  21.7774997  27.3189988  48.0720012  21.1484997  27.5749988
  49.3100012  21.2934997  26.7159988  48.7299230  21.6258744  27.2725340
  53.8890012  19.8854997  27.4319988  54.4930012  20.4324997  26.9299988
  53.0190012  20.2044997  27.1919988  53.8541241  20.0035806  27.3307654
  55.6160012  21.0234997  25.7649988  56.2280012  20.5094997  25.2389988
  55.9980012  21.9014997  25.7889988  55.7514540  21.0717140  25.6961830
  41.0730012  20.4114997  25.1409988  40.2960012  20.1774997  24.6339988
  41.6030012  19.6144997  25.1499988  41.0382330  20.2716988  25.0727742
  39.9090012  20.2094997  20.9449988  40.3480012  20.8204997  20.3529988
  39.2760012  20.7474997  21.4189988  39.8834514  20.3659257  20.9280930
  45.6520012  20.3384997  24.9549988  46.5270012  20.7264997  24.9249988
  45.5160012  20.1234997  25.8769988  45.7533695  20.3625184  25.0756440
  51.2090012  20.3684997  26.6039988  51.2850012  20.4634997  25.6539988
  50.9340012  19.4604997  26.7329988  51.1822321  20.2587867  26.4915079
  52.5620012  20.3944997  22.2959988  51.8600012  21.0094997  22.0869988
  52.1180012  19.5564997  22.4269988  52.4056330  20.3655783  22.2850328
  39.8100012  36.1574997  21.8429988  39.1250012  36.1194997  21.1749988
  39.8140012  37.0704997  22.1309988  39.7168193  36.2757016  21.7905284
  41.7700012  22.1254997  19.3869988  42.2620012  21.4954997  18.8599988
  42.3940012  22.4214997  20.0509988  41.9215446  22.0793199  19.4045980
  46.7960012  22.4184997  21.8439988  46.9740012  21.7724997  22.5269988
  46.7430012  23.2524997  22.3119988  46.8131829  22.4427985  22.0005940
  48.6750012  37.3674997  20.2399988  49.5410012  37.7334997  20.0619988
  48.4280012  36.9274997  19.4259988  48.7602392  37.3581756  20.1056289
  55.3840012  36.9304997  22.9189988  55.1890012  36.1824997  22.3539988
  55.3450012  37.6884997  22.3359988  55.3520380  36.9306099  22.7628384
  41.0310012  20.9254997  34.6589988  40.6650012  20.1604997  35.1019988
  41.9440012  20.9544997  34.9459988  41.1042790  20.8247224  34.7584070
  43.0040012  20.2764997  36.1949988  43.9020012  20.0024997  36.0099988
  42.6170012  19.5334997  36.6589988  43.0746612  20.1385914  36.2323643
  41.6280012  37.0774997  18.8679988  41.3610012  37.3644997  19.7409988
  42.4000012  36.5314997  19.0199988  41.6957488  37.0430294  19.0081050
  51.4250012  19.6084997  36.3769988  51.5020012  19.1824997  37.2309988
  52.3190012  19.6224997  36.0339988  51.5563428  19.5520879  36.4475310
  54.6010012  35.6814997  35.0689988  53.8190012  35.4954997  34.5499988
  54.5290012  36.6104997  35.2869988  54.4841777  35.7816492  35.0274048
  69.0070012  29.5674997  25.0999988  69.0960012  30.5114997  24.9679988
  68.3690012  29.2924997  24.4419988  68.9329081  29.6594830  24.9929614
  67.9400012  28.8224997  28.5189988  67.9020012  28.1764997  29.2239988
  67.6180012  28.3564997  27.7479988  67.8912333  28.6709408  28.5112978
  60.3090012  28.4374997  30.1119988  60.3500012  27.8114997  30.8349988
  61.0120012  29.0614997  30.2939988  60.4096363  28.4361196  30.2356044
  71.6460012  31.7614997  26.8199988  71.2060012  31.0414997  27.2709988
  71.6330012  32.4824997  27.4499988  71.5840226  31.7603731  26.9668494
  61.2320012  32.8874997  28.6469988  60.8630012  32.0854997  28.2769988
  62.1730012  32.7184997  28.6929988  61.3087289  32.7550153  28.6026316
  57.8420012  26.5474997  24.0399988  57.3950012  27.3934997  24.0209988
  57.2810012  25.9674997  23.5239988  57.7049900  26.5849916  23.9676801
  58.5530012  28.7094997  26.1659988  58.7660012  27.9394997  26.6929988
  59.2910012  28.7984997  25.5619988  58.6818496  28.6161394  26.1565300
  68.7580012  36.8664997  27.0329988  69.3780012  36.1894997  26.7589988
  68.5500012  36.6484997  27.9409988  68.8146904  36.7443870  27.1183365
  66.3300012  31.2554997  28.9249988  66.6340012  30.5694997  28.3299988
  67.0510012  31.3734997  29.5429988  66.4690671  31.1776305  28.9271816
  74.9930012  22.8564997  29.7859988  75.0420012  23.4664997  30.5219988
  75.4180012  23.3174997  29.0629988  75.0571824  23.0023741  29.7890205
  69.4710012  25.6494997  29.2529988  69.6130012  24.7034997  29.2729988
  69.3640012  25.8564997  28.3239988  69.4759864  25.5479534  29.1302339
  62.6250012  23.7504997  26.5249988  62.6690012  24.6104997  26.1069988
  62.1680012  23.1984997  25.8909988  62.5692185  23.7935799  26.3820299
  70.3480012  23.8814997  24.9259988  70.9940012  23.5524997  25.5509988
  70.8580012  24.3994997  24.3029988  70.5054264  23.9064611  24.9273862
  59.2460012  26.1474997  27.2869988  59.8990012  25.5974997  27.7189988
  59.2700012  25.8734997  26.3699988  59.3386683  26.0351466  27.2222123
  64.4020012  27.6974997  26.5019988  65.0180012  27.1714997  27.0119988
  63.8160012  27.0574997  26.0989988  64.4070810  27.5389208  26.5173173
  75.3840012  24.3344997  32.0219988  74.6960012  24.9924997  31.9259988
  75.4000012  24.1374997  32.9579988  75.2918525  24.3980462  32.1354808
  61.4360012  22.6684997  30.5989988  61.2170012  23.1984997  29.8329988
  60.7680012  22.8954997  31.2459988  61.3157600  22.7716906  30.5816379
  68.8050012  32.1684997  24.1429988  68.5090012  31.8464997  23.2919988
  68.4800012  33.0684997  24.1839988  68.7206371  32.2460215  24.0321801
  64.0050012  30.3444997  30.8859988  63.2650012  30.9424997  30.9899988
  64.7190012  30.8984997  30.5709988  64.0002237  30.5012831  30.8576465
  72.1120012  23.1724997  26.9059988  71.8960012  22.4064997  27.4389988
  72.7670012  23.6444997  27.4189988  72.1710632  23.1315889  27.0482861
  61.0290012  24.5604997  28.5509988  61.6430012  25.1934997  28.9249988
  61.5410012  24.0884997  27.8949988  61.1822296  24.5832370  28.5134252
  62.4120012  32.3084997  31.6739988  62.4070012  33.1884997  31.2959988
  61.5590012  32.2254997  32.0989988  62.2959464  32.4176117  31.6797907
  58.5330012  31.9794997  22.4559988  58.2610012  32.2084997  21.5669988
  58.5790012  32.8174997  22.9159988  58.5020094  32.1241213  22.3965697
  72.1580012  33.6014997  29.1679988  71.2170012  33.6594997  29.3299988
  72.4350012  34.5074997  29.0309988  72.0664679  33.7319443  29.1716815
  72.4590012  21.8874997  30.5859988  71.7230012  22.4984997  30.5479988
  73.1420012  22.3024997  30.0589988  72.4506541  22.0271374  30.5095832
  65.4620012  19.9744997  28.0519988  65.3450012  19.0254997  27.9969988
  64.6070012  20.3064997  28.3249988  65.3303733  19.8895409  28.0813897
  70.4100012  35.3824997  25.7939988  70.8360012  34.6754997  25.3089988
  70.7270012  36.1834997  25.3769988  70.5111019  35.3940994  25.6713130
  71.5700012  33.2834997  24.3019988  71.3120012  32.5934997  23.6909988
  71.6410012  32.8404997  25.1479988  71.5442856  33.1292124  24.3326885
  73.2560012  31.8494997  32.7799988  73.3960012  31.2584997  32.0399988
  73.4230012  32.7224997  32.4229988  73.2976778  31.8866426  32.6306965
  67.7290012  28.8114997  22.5519988  67.0170012  29.3464997  22.1999988
  68.4200012  28.8674997  21.8919988  67.7250132  28.8922543  22.4146289
  67.7820012  27.2694997  19.5909988  68.4830012  27.2914997  20.2419988
  68.0850012  26.6414997  18.9349988  67.9187830  27.1876566  19.5913711
  75.0980012  28.1894997  30.8459988  74.4450012  28.8844997  30.9349988
  75.5630012  28.3994997  30.0359988  75.0715390  28.3129425  30.7486883
  71.1340012  29.0214997  23.5039988  70.4020012  29.2494997  24.0769988
  71.5820012  28.3074997  23.9589988  71.0943095  28.9562571  23.6439119
  71.0320012  27.1954997  32.5709988  71.1120012  27.9584997  33.1429988
  70.4300012  27.4744997  31.8809988  70.9615756  27.3377134  32.5560589
  62.7800012  29.6514997  25.3859988  62.4490012  29.2814997  24.5679988
  63.3680012  28.9814997  25.7329988  62.8141873  29.5101156  25.3208102
  64.1460012  33.0794997  28.0679988  64.0520012  32.5014997  27.3109988
  64.8760012  32.7084997  28.5639988  64.2317981  32.9502390  28.0314165
  63.1460012  28.4204997  29.0199988  63.7120012  28.5414997  28.2569988
  63.4650012  29.0574997  29.6589988  63.2665786  28.5231884  29.0020040
  69.4550012  33.9234997  29.7539988  69.2150012  34.5854997  30.4019988
  69.2570012  33.0894997  30.1789988  69.3953808  33.9013134  29.9001524
  64.0260012  32.8194997  33.7369988  63.7150012  33.6014997  34.1919988
  63.3760012  32.6664997  33.0509988  63.8955558  32.9059105  33.7065871
  70.0050012  28.1834997  21.1889988  70.5850012  28.3334997  21.9359988
  70.4190012  28.6544997  20.4659988  70.1402830  28.2676841  21.1934134
  60.9460012  29.0174997  32.9659988  61.0170012  29.6684997  33.6639988
  60.0560012  29.1204997  32.6309988  60.8353117  29.1205936  33.0162700
  67.7320012  34.9204997  24.6239988  68.2060012  35.2154997  25.4019988
  67.1690012  35.6584997  24.3909988  67.7207653  35.0606932  24.6990136
  62.2660012  34.8914997  34.4999988  62.2730012  34.7554997  33.5529988
  61.3500012  34.7734997  34.7519988  62.1431714  34.8569430  34.4044666
  73.7040012  19.9334997  21.0019988  72.8040012  20.0724997  21.2969988
  73.9560012  20.7644997  20.5999988  73.6148702  20.0649074  20.9880205
  61.7700012  28.7214997  22.9759988  61.4780012  29.4894997  22.4849988
  61.0960012  28.0614997  22.8129988  61.6389081  28.7374406  22.8867340
  74.8930012  34.2994997  19.3779988  74.9670012  35.2384997  19.5489988
  75.7990012  33.9944997  19.3219988  75.0255100  34.3866722  19.3938119
  57.8630012  31.0844997  31.7909988  57.3620012  31.0564997  30.9759988
  57.8680012  30.1784997  32.0999988  57.7951526  30.9582278  31.7212872
  57.6130012  33.8644997  28.6749988  58.5590012  33.7204997  28.6559988
  57.5010012  34.6484997  29.2119988  57.7272727  33.9508046  28.7450072
  75.8110012  34.5304997  34.3569988  75.7620012  33.5754997  34.3199988
  74.9840012  34.7984997  34.7579988  75.6924940  34.4358998  34.4061375
  66.7900012  34.1044997  33.2329988  66.8770012  34.9304997  33.7079988
  65.9260012  33.7744997  33.4819988  66.6851964  34.1729878  33.3316549
  67.2040012  37.8764997  23.0389988  67.1290012  37.7554997  22.0929988
  67.2370012  38.8264997  23.1579988  67.1981848  37.9882500  22.9254834
  60.8570012  36.6654997  24.8199988  61.0100012  36.3174997  25.6989988
  60.0070012  36.3094997  24.5649988  60.7628962  36.5696650  24.9058340
  70.3060012  37.0304997  20.0409988  70.6810012  36.2864997  19.5709988
  70.3100012  36.7604997  20.9599988  70.3578915  36.8921486  20.1007824
  69.9750012  36.9564997  22.7909988  69.0390012  37.0564997  22.9689988
  70.2550012  36.2474997  23.3689988  69.8848255  36.8742711  22.8935391
  72.9630012  26.0234997  34.8369988  72.5560012  26.5044997  34.1159988
  73.0040012  25.1184997  34.5289988  72.9128437  25.9669374  34.6966683
  60.1120012  32.4074997  32.8339988  60.3280012  32.0464997  33.6929988
  59.2570012  32.0334997  32.6239988  60.0259292  32.3074111  32.9233386
  62.7310012  20.8774997  28.8289988  61.8690012  20.7904997  28.4219988
  62.7080012  21.7334997  29.2569988  62.6100330  20.9812765  28.8311863
  67.3940012  20.5994997  32.2039988  67.8140012  20.1844997  32.9569988
  66.4610012  20.4214997  32.3209988  67.3253644  20.5185900  32.3229539
  70.7200012  24.3554997  33.0569988  70.2060012  24.2294997  33.8549988
  70.5650012  25.2674997  32.8129988  70.6286852  24.4616132  33.1332158
  71.4830012  29.2164997  18.8189988  71.5250012  28.9934997  17.8889988
  72.3320012  29.6154997  19.0089988  71.6035396  29.2399155  18.7173627
  67.0550012  23.0924997  19.4889988  66.8020012  23.1114997  20.4119988
  66.7990012  22.2204997  19.1879988  66.9857790  22.9772437  19.5746263
  62.8220012  25.8434997  29.9239988  62.1800012  25.8024997  30.6329988
  62.8590012  26.7694997  29.6869988  62.7391324  25.9631559  29.9889824
  62.8190012  26.0644997  24.8359988  61.9260012  25.7234997  24.7779988
  63.2690012  25.6874997  24.0809988  62.7577305  25.9668484  24.7259177
  68.3540012  26.4804997  23.6529988  67.9450012  27.2954997  23.3619988
  69.0750012  26.3404997  23.0389988  68.3954537  26.5732018  23.5301342
  67.4560012  26.6554997  35.1409988  66.8940012  25.9514997  35.4619988
  68.2830012  26.5354997  35.6089988  67.4907095  26.5427883  35.2482330
  69.3590012  25.9264997  26.4669988  69.1640012  26.5314997  25.7519988
  69.5400012  25.0924997  26.0329988  69.3567614  25.8966300  26.3104405
  60.5720012  26.1634997  31.7909988  60.5340012  26.5634997  32.6599988
  60.0810012  25.3464997  31.8819988  60.5004684  26.1078069  31.9221059
  63.9380012  23.5374997  18.5899988  63.5070012  23.0924997  19.3199988
  63.2200012  23.9094997  18.0779988  63.7819438  23.5268940  18.6206799
  57.1800012  23.2794997  25.6419988  57.8110012  23.2504997  26.3609988
  57.6290012  22.8544997  24.9119988  57.3270774  23.2180492  25.6416553
  58.4540012  24.0254997  21.0659988  58.9280012  24.6164997  20.4809988
  57.7370012  24.5564997  21.4129988  58.4219341  24.1780867  21.0328836
  68.6230012  27.5644997  31.1389988  68.9460012  26.9334997  30.4959988
  68.1830012  27.0294997  31.7989988  68.6076895  27.4058440  31.1402850
  65.4000012  23.4914997  25.9229988  64.4890012  23.5484997  26.2109988
  65.9060012  23.4314997  26.7329988  65.3435413  23.4911985  26.0720622
  60.2290012  25.1204997  24.7489988  59.3390012  25.2204997  24.4089988
  60.5250012  24.2784997  24.4029988  60.1472823  25.0203545  24.6557213
  63.8820012  25.1204997  22.4059988  64.8130012  25.2494997  22.5839988
  63.6670012  25.7904997  21.7559988  63.9804247  25.2286565  22.3425747
  69.8050012  22.7264997  29.1869988  69.1290012  22.8574997  29.8509988
  69.3200012  22.5714997  28.3769988  69.6467145  22.7234905  29.1684517
  62.5560012  26.3154997  19.9729988  62.0130012  25.9354997  19.2809988
  63.3890012  26.5094997  19.5439988  62.5944399  26.2898124  19.8204526
  73.0930012  38.3984997  35.4639988  73.2930012  38.8224997  34.6289988
  73.7480012  38.7414997  36.0709988  73.2090051  38.5029648  35.4317836
  60.6910012  30.8724997  35.0719988  61.4230012  31.1264997  35.6329988
  59.9110012  31.0764997  35.5869988  60.6858232  30.9349177  35.2185760
  66.7200012  26.2794997  27.8099988  67.2850012  25.7324997  27.2629988
  66.5730012  25.7574997  28.5979988  66.7772918  26.1342024  27.8418454
  61.7220012  22.4154997  24.2279988  61.4050012  21.5134997  24.1929988
  62.5040012  22.4174997  23.6749988  61.7842284  22.2921628  24.1484783
  65.3470012  24.6674997  30.2239988  64.5110012  25.1214997  30.3339988
  65.8710012  24.9434997  30.9759988  65.3034414  24.7669376  30.3407136
  65.8910012  30.8804997  21.9079988  65.1460012  30.3734997  21.5859988
  65.7570012  30.9294997  22.8549988  65.7708776  30.8176940  21.9918647
  73.0410012  30.0134997  30.6949988  73.6830012  30.4704997  30.1509988
  72.2110012  30.1264997  30.2319988  73.0165963  30.0912704  30.5580177
  69.7890012  23.6944997  20.1079988  68.8500012  23.8064997  19.9559988
  70.0860012  24.5514997  20.4139988  69.7007666  23.8256443  20.1285768
  67.4100012  31.0644997  33.1449988  67.0650012  30.6834997  33.9519988
  67.2100012  31.9984997  33.2169988  67.3358061  31.1385228  33.2650961
  70.5070012  25.5614997  21.7679988  71.3990012  25.4244997  22.0869988
  70.5640012  26.3524997  21.2319988  70.6366285  25.6496660  21.7391691
  61.0160012  30.1754997  27.6779988  61.7610012  30.1734997  27.0769988
  61.0940012  29.3524997  28.1599988  61.1285518  30.0639315  27.6608929
  68.0170012  32.3394997  20.9339988  67.7210012  33.1654997  21.3149988
  67.3140012  31.7194997  21.1299988  67.8814914  32.3688199  21.0126443
  58.0240012  28.6364997  32.9929988  58.2470012  28.2184997  33.8249988
  57.4220012  28.0234997  32.5699988  57.9731759  28.4964668  33.0497022
  65.0400012  28.1534997  35.2059988  64.7440012  27.9874997  34.3109988
  65.9720012  27.9334997  35.1949988  65.1254166  28.1010640  35.0820536
  69.6610012  33.5264997  33.0959988  68.7600012  33.7094997  32.8279988
  69.6950012  33.7854997  34.0169988  69.5423041  33.5865512  33.1838197
  75.3920012  25.7714997  21.4629988  74.8380012  25.3754997  20.7909988
  75.4920012  26.6814997  21.1849988  75.3297059  25.8403586  21.3334401
  75.3550012  31.5714997  34.2999988  74.5040012  31.8094997  33.9329988
  75.9460012  31.5544997  33.5469988  75.3182487  31.6018258  34.1478893
  73.6870012  34.5574997  21.9279988  73.3140012  33.7314997  22.2369988
  73.9650012  34.3744997  21.0309988  73.6735630  34.4197303  21.8489626
  70.8480012  29.3654997  28.9489988  69.9190012  29.1334997  28.9219988
  71.2990012  28.5884997  28.6189988  70.7819216  29.2287238  28.9006917
  63.3910012  33.6934997  25.0819988  63.9180012  34.4664997  24.8819988
  62.5110012  33.9184997  24.7809988  63.3441773  33.8298005  25.0139010
  59.1460012  28.5554997  19.6689988  59.7620012  29.1824997  20.0489988
  58.2840012  28.8714997  19.9409988  59.1137698  28.6839430  19.7577183
  64.8180012  31.3564997  24.6589988  64.5770012  32.2814997  24.6999988
  64.0770012  30.8974997  25.0549988  64.6848409  31.4211421  24.7181377
  65.3330012  35.5054997  30.9739988  65.6950012  36.3604997  30.7399988
  65.8640012  35.2134997  31.7139988  65.4544473  35.5831060  31.0420855
  63.5010012  36.3784997  24.2039988  62.5510012  36.4834997  24.2549988
  63.8530012  37.1984997  24.5489988  63.4184203  36.5038314  24.2576650
  68.8770012  31.6044997  30.6739988  68.4510012  31.3774997  31.5009988
  69.4570012  30.8664997  30.4919988  68.8971868  31.4735299  30.7625830
  71.0800012  32.5334997  19.7479988  71.4330012  32.1534997  20.5529988
  70.1310012  32.4404997  19.8349988  71.0000441  32.4689596  19.8698559
  71.5350012  36.1564997  33.1439988  70.9340012  35.6014997  32.6479988
  71.8170012  36.8234997  32.5179988  71.4908519  36.1706841  32.9914952
  75.5830012  37.0134997  19.9489988  76.3270012  37.5994997  19.8089988
  74.8890012  37.5814997  20.2829988  75.5910292  37.1705582  19.9749961
  59.6580012  23.3894997  32.5509988  58.7650012  23.7284997  32.4829988
  59.5590012  22.5344997  32.9689988  59.5224164  23.3202588  32.5982235
  71.9460012  31.2064997  21.9749988  71.6680012  30.4784997  22.5309988
  72.8730012  31.3254997  22.1799988  72.0333124  31.1228802  22.0788845
  59.3090012  35.1944997  30.9859988  59.5260012  34.2624997  30.9549988
  59.5550012  35.4684997  31.8689988  59.3719549  35.1040636  31.1011763
  65.1710012  33.6454997  18.1949988  65.4100012  32.8974997  17.6479988
  64.9020012  33.2574997  19.0279988  65.1673675  33.4906638  18.2326865
  64.1080012  33.2154997  20.6519988  64.2540012  32.6954997  21.4419988
  64.1050012  34.1224997  20.9579988  64.1275989  33.2668853  20.8016088
  60.5610012  30.4684997  21.1619988  59.8750012  30.8204997  21.7289988
  61.0830012  31.2314997  20.9149988  60.5376852  30.6198578  21.2062118
  68.3920012  23.1304997  31.4409988  69.0910012  23.2044997  32.0909988
  68.0110012  22.2664997  31.5949988  68.4361767  23.0237624  31.5508322
  69.1770012  22.7824997  22.5379988  69.3970012  23.2544997  21.7349988
  69.7350012  23.1774997  23.2079988  69.2824968  22.9004285  22.5187331
  66.8450012  34.9134997  21.4009988  66.0290012  35.4104997  21.4529988
  67.3750012  35.3884997  20.7609988  66.8049161  35.0457722  21.3215956
  66.3770012  24.5104997  23.3729988  67.1890012  25.0154997  23.4189988
  66.1320012  24.3654997  24.2869988  66.4550520  24.5600375  23.5028517
  66.9120012  25.4964997  32.5579988  67.0310012  26.0704997  33.3149988
  67.5680012  24.8084997  32.6719988  67.0169757  25.4821079  32.6770825
  67.2600012  21.5914997  24.3109988  66.9140012  22.2094997  24.9559988
  67.9190012  22.0924997  23.8299988  67.3017826  21.7435802  24.3340971
  64.1840012  35.9574997  21.3829988  64.3440012  36.7564997  20.8819988
  63.9860012  36.2634997  22.2679988  64.1791649  36.1084469  21.4339815
  62.9180012  22.6544997  20.9979988  62.8350012  23.5434997  21.3449988
  63.8080012  22.3894997  21.2299988  63.0269469  22.7401430  21.0767626
  73.1170012  23.4034997  33.3929988  72.2000012  23.6664997  33.3049988
  73.4520012  23.4004997  32.4959988  73.0369900  23.4390224  33.2597919
  71.7190012  27.1544997  27.4879988  70.9210012  26.7394997  27.1599988
  72.1640012  26.4634997  27.9789988  71.6699885  27.0043543  27.5094889
  61.1770012  33.0824997  20.0589988  61.7690012  33.7814997  20.3349988
  61.6360012  32.6494997  19.3389988  61.3201142  33.1197049  19.9994830
  59.4930012  25.7464997  19.1749988  59.4480012  26.6854997  19.3529988
  58.6050012  25.5104997  18.9049988  59.3668574  25.8431892  19.1628912
  72.8050012  36.4104997  29.1109988  72.6500012  37.0884997  28.4539988
  73.7380012  36.4824997  29.3139988  72.9098500  36.5130170  29.0485119
  60.3010012  20.5284997  27.8479988  60.0720012  20.5874997  26.9199988
  59.8580012  19.7364997  28.1539988  60.2098530  20.4295753  27.7624786
  59.2310012  34.4684997  24.0079988  58.3990012  34.9414997  24.0359988
  59.7770012  34.9784997  23.4099988  59.1909739  34.6021871  23.9309716
  58.5190012  37.0814997  35.3379988  59.0600012  36.8644997  36.0979988
  58.0380012  36.2754997  35.1489988  58.5279345  36.9429514  35.4163076
  63.1170012  36.0004997  36.9589988  63.8840012  35.5414997  37.2999988
  63.0950012  35.7744997  36.0289988  63.2191434  35.9070409  36.8800043
  67.2090012  35.5084997  18.3339988  66.5650012  34.8774997  18.6549988
  67.9710012  34.9774997  18.1019988  67.2238077  35.3502920  18.3466011
  69.6940012  34.3804997  35.6879988  69.3430012  33.5244997  35.9309988
  70.4200012  34.5234997  36.2949988  69.7440769  34.2825636  35.8033619
  71.8130012  35.3254997  18.5679988  72.0960012  34.5314997  19.0199988
  72.5530012  35.5584997  18.0069988  71.9517486  35.2482803  18.5540698
  58.4260012  30.8914997  36.2929988  58.5700012  29.9894997  36.0059988
  57.6540012  31.1774997  35.8049988  58.3413323  30.8068261  36.1877881
  62.7680012  31.2354997  18.4249988  62.8320012  30.4414997  18.9559988
  63.4210012  31.1164997  17.7349988  62.8650241  31.1107148  18.4044317
  65.0820012  30.8614997  35.7249988  64.7530012  31.1324997  34.8679988
  65.2340012  29.9204997  35.6379988  65.0574809  30.7713862  35.5958244
  68.1200012  32.2824997  18.1609988  67.8510012  32.4624997  19.0619988
  67.9140012  31.3564997  18.0299988  68.0553825  32.1820152  18.2665214
  70.8160012  30.7774997  33.1089988  71.5620012  31.3654997  32.9889988
  70.0590012  31.3594997  33.1719988  70.8157554  30.9367011  33.1010907
  59.2590012  28.0914997  35.7129988  59.6670012  27.2344997  35.5919988
  58.9990012  28.1064997  36.6339988  59.2797568  27.9760807  35.8209588
  63.9170012  29.2074997  20.7309988  63.4570012  28.7234997  21.4169988
  64.1720012  28.5394997  20.0949988  63.8884902  29.0508731  20.7389334
  63.2060012  27.1004997  33.0869988  62.5880012  27.7754997  33.3669988
  63.5500012  27.4214997  32.2539988  63.1679615  27.2362721  33.0126581
  64.9880012  27.4504997  18.9929988  64.8080012  27.2964997  18.0659988
  65.9380012  27.5584997  19.0379988  65.0917776  27.4440175  18.8721843
  68.2260012  29.5724997  36.3639988  69.1790012  29.6554997  36.3369988
  68.0650012  28.8604997  36.9839988  68.3346426  29.4876746  36.4440579
  74.3780012  29.8054997  18.4389988  74.1040012  29.3804997  17.6259988
  74.4170012  30.7364997  18.2219988  74.3457699  29.8732484  18.2983610
  63.5450012  24.4554997  34.1689988  63.6950012  23.7264997  33.5669988
  63.5480012  25.2324997  33.6099988  63.5659302  24.4607851  34.0110692
  63.9580012  22.8254997  31.6619988  64.4940012  23.2764997  31.0099988
  63.1060012  22.7174997  31.2389988  63.9162178  22.8726390  31.5155756
  65.5400012  28.2644997  31.9009988  66.2900012  28.1084997  31.3279988
  65.2010012  29.1164997  31.6259988  65.5968921  28.3582968  31.7853561
  69.9550012  26.0794997  36.9299988  70.1480012  25.1484997  36.8179988
  70.8130012  26.5044997  36.9199988  70.0973020  26.0096389  36.9133361
  71.2720012  28.8684997  35.0069988  70.9910012  29.5774997  34.4299988
  72.2150012  28.7954997  34.8559988  71.3609027  28.9557646  34.9075551
  62.0240012  25.6534997  36.0809988  61.2570012  25.1214997  35.8709988
  62.7030012  25.3434997  35.4809988  62.0107022  25.5387506  35.9711648
  64.7640012  20.2814997  32.0929988  64.6650012  21.2284997  31.9879988
  64.0210012  19.9094997  31.6179988  64.6500564  20.3605902  32.0144560
  66.0280012  24.6034997  35.6569988  65.7920012  24.3834997  36.5589988
  65.2440012  24.3964997  35.1469988  65.8898628  24.5454760  35.7113932
  68.7430012  23.7304997  34.7329988  67.7960012  23.7624997  34.8649988
  69.0560012  23.1054997  35.3859988  68.6555475  23.6503207  34.8394455
  70.3770012  22.3644997  36.7379988  70.2810012  21.4124997  36.7319988
  70.0560012  22.6334997  37.5979988  70.3204070  22.2704035  36.8535441
  60.2040012  23.5744997  35.7849988  60.4160012  22.8674997  35.1749988
  60.0930012  23.1364997  36.6289988  60.2179721  23.4187084  35.8156843
  64.9850012  19.5754997  34.7649988  65.6970012  18.9354997  34.7509988
  64.8840012  19.8424997  33.8509988  65.0687939  19.5239938  34.6395650
  65.3390012  21.2584997  36.8179988  65.2070012  20.7824997  35.9979988
  64.7400012  22.0024997  36.7629988  65.2399071  21.2939618  36.6982886
  64.8850012  38.1414997  19.9949988  65.8180012  38.2994997  20.1379988
  64.6210012  38.8164997  19.3699988  64.9769510  38.2543611  19.9300741
  58.4540012  32.7774997  19.4769988  59.3680012  32.8564997  19.7509988
  58.4610012  32.0904997  18.8109988  58.5801131  32.6953961  19.4244393
  57.1030012  38.1704997  24.5549988  56.4560012  37.7084997  24.0219988
  57.4570012  37.4984997  25.1369988  57.0623849  38.0164723  24.5607959
  57.9730012  36.2514997  26.3589988  57.6380012  35.3714997  26.5309988
  58.1950012  36.5964997  27.2239988  57.9571783  36.1777500  26.4994208
  75.5210012  37.0604997  29.3399988  75.5000012  37.2454997  30.2789988
  76.2120012  37.6294997  28.9989988  75.6114618  37.1626606  29.4223864
  75.0850012  36.6284997  32.2619988  74.5970012  35.8924997  31.8909988
  75.6340012  36.2344997  32.9399988  75.0924872  36.4746249  32.3029160
  73.5350012  32.4174997  36.8999988  72.6690012  32.3124997  37.2939988
  73.9120012  33.1764997  37.3459988  73.4673308  32.5056900  37.0142393
  74.8360012  30.6744997  22.4139988  75.6860012  31.0954997  22.5409988
  74.8420012  29.9344997  23.0209988  74.9531372  30.6320803  22.5134344
  75.2310012  28.7274997  24.2379988  74.5040012  28.2484997  24.6349988
  75.8120012  28.9334997  24.9699988  75.2099375  28.6897090  24.3914129
  74.9900012  31.5124997  29.1849988  75.8230012  31.1344997  28.9049988
  75.1020012  32.4554997  29.0659988  75.1192647  31.5882218  29.1305487
  73.4760012  34.3904997  31.4919988  72.8290012  34.7154997  32.1179988
  72.9590012  33.9504997  30.8179988  73.3174029  34.3755004  31.4865827
  75.4990012  28.6284997  20.6289988  74.9770012  28.9854997  19.9099988
  75.4660012  29.3034997  21.3069988  75.4231634  28.7685413  20.6223145
  73.8480012  25.8684997  19.1799988  73.9440012  26.5354997  18.4989988
  73.7080012  25.0524997  18.6979988  73.8422135  25.8494500  19.0218491
  73.0170012  27.2484997  24.8009988  72.8670012  26.3034997  24.7799988
  72.6640012  27.5294997  25.6439988  72.9486625  27.1570441  24.9122346
  58.0530012  29.3264997  28.8109988  58.2370012  29.2444997  27.8749988
  58.9020012  29.2024997  29.2349988  58.1930139  29.2985003  28.7401455
  73.8740012  29.2184997  34.4389988  74.4570012  28.4844997  34.6309988
  74.4380012  29.9904997  34.4859988  74.0299769  29.2224227  34.4716159
  75.3700012  27.1214997  35.1239988  74.5070012  26.7424997  34.9579988
  75.9750012  26.3824997  35.0499988  75.3335979  26.9698023  35.0912817
  73.0950012  23.2764997  18.2969988  73.7060012  22.9054997  18.9339988
  72.2590012  22.8554997  18.4929988  73.0655032  23.1687554  18.4107035
  72.7280012  24.8314997  23.2629988  73.0080012  23.9244997  23.3869988
  73.4870012  25.2654997  22.8739988  72.8689277  24.7660942  23.2273682
  73.3400012  25.4124997  28.6989988  74.2730012  25.6244997  28.6649988
  73.1050012  25.5144997  29.6209988  73.4358036  25.4552769  28.8189976
  73.3690012  26.1494997  31.4749988  72.5260012  26.4174997  31.8409988
  73.8110012  26.9714997  31.2639988  73.3134158  26.2973291  31.4965491
  57.6500012  24.5974997  34.9519988  58.5700012  24.4754997  35.1879988
  57.2010012  23.8474997  35.3409988  57.7151580  24.4793727  35.0369006
  75.6520012  20.1294997  36.8279988  76.0020012  19.4754997  36.2229988
  75.7990012  20.9664997  36.3889988  75.7198419  20.1531591  36.6857118
  73.3410012  22.0944997  23.3109988  73.5240012  21.6454997  24.1369988
  72.7420012  21.5094997  22.8479988  73.2850202  21.9539975  23.3613275
  58.8710012  22.9094997  27.8429988  59.3170012  22.1174997  28.1449988
  59.3380012  23.6254997  28.2739988  58.9950172  22.8980624  27.9424820
  57.1750012  25.9084997  28.9119988  57.6670012  25.6874997  28.1209988
  57.5380012  26.7494997  29.1929988  57.2913126  25.9918357  28.8417531
  75.1720012  22.2384997  35.1779988  74.2540012  22.5094997  35.1419988
  75.2950012  21.7034997  34.3929988  75.0631066  22.2032892  35.0670487
  75.2080012  22.1614997  19.8389988  75.6200012  21.4404997  19.3639988
  75.8900012  22.8314997  19.8979988  75.3565885  22.1532368  19.7818915
  57.4890012  22.1664997  22.9659988  56.5640012  22.3754997  22.8369988
  57.9430012  22.6504997  22.2769988  57.4237368  22.2605993  22.8551226
  72.2600012  37.1504997  24.9119988  72.9120012  36.8034997  24.3039988
  72.7700012  37.6394997  25.5579988  72.4182637  37.1690597  24.9160236
  57.4530012  20.9044997  31.3109988  56.7880012  20.6584997  31.9539988
  57.0100012  21.5264997  30.7329988  57.3020956  20.9548632  31.3209352
  59.6450012  34.0794997  35.4549988  58.8240012  34.2544997  34.9949988
  59.3920012  34.0064997  36.3759988  59.4986164  34.0935622  35.5164923
  62.5990012  35.0544997  31.7139988  62.1740012  35.8634997  31.4309988
  63.5030012  35.1394997  31.4119988  62.6630271  35.1768469  31.6343776
  66.9100012  36.4534997  34.6729988  67.0950012  36.1194997  35.5509988
  67.7560012  36.7624997  34.3509988  67.0497539  36.4496047  34.7495605
  69.2550012  37.7394997  33.9169988  69.9320012  37.1064997  33.6769988
  69.5770012  38.1404997  34.7239988  69.3911637  37.7071154  33.9932793
  74.1720012  20.3284997  32.9969988  73.3600012  20.6534997  32.6089988
  74.4050012  19.5684997  32.4639988  74.0923423  20.2702436  32.8718253
  60.0010012  38.3104997  31.7609988  59.2800012  38.7504997  31.3099988
  59.6350012  38.0594997  32.6099988  59.8529804  38.3367698  31.8139840
  62.4680012  37.9104997  30.7909988  61.6030012  37.9824997  31.1949988
  62.4130012  38.4574997  30.0069988  62.3422085  37.9942685  30.7403362
  67.1780012  37.7984997  29.9659988  66.7220012  38.3274997  29.3119988
  67.3410012  38.4014997  30.6919988  67.1375585  37.9524468  29.9745062
  69.5060012  36.6764997  30.9109988  68.6010012  36.8414997  30.6459988
  69.9350012  37.5294997  30.8459988  69.4400799  36.8144483  30.8659182
  72.1100012  38.2464997  31.2059988  71.9280012  39.1624997  30.9959988
  72.2870012  37.8364997  30.3599988  72.1090210  38.3164822  31.0627885
  59.4150012  36.9334997  28.6709988  59.3970012  36.5084997  29.5289988
  60.2200012  36.6154997  28.2629988  59.5213875  36.8323812  28.7331655
  61.5570012  35.6434997  27.3259988  61.3380012  34.7274997  27.4959988
  62.3810012  35.7834997  27.7919988  61.6384420  35.5370520  27.4122774
  64.0940012  36.1134997  28.1749988  64.3070012  35.2254997  27.8879988
  64.1580012  36.0794997  29.1289988  64.1318232  35.9873102  28.2647397
  67.6020012  21.7774997  27.3189988  66.9280012  21.1484997  27.5749988
  68.1660012  21.2934997  26.7159988  67.5859230  21.6258744  27.2725340
  72.7450012  19.8854997  27.4319988  73.3490012  20.4324997  26.9299988
  71.8750012  20.2044997  27.1919988  72.7101241  20.0035806  27.3307654
  74.4720012  21.0234997  25.7649988  75.0840012  20.5094997  25.2389988
  74.8540012  21.9014997  25.7889988  74.6074540  21.0717140  25.6961830
  59.9290012  20.4114997  25.1409988  59.1520012  20.1774997  24.6339988
  60.4590012  19.6144997  25.1499988  59.8942330  20.2716988  25.0727742
  58.7650012  20.2094997  20.9449988  59.2040012  20.8204997  20.3529988
  58.1320012  20.7474997  21.4189988  58.7394514  20.3659257  20.9280930
  64.5080012  20.3384997  24.9549988  65.3830012  20.7264997  24.9249988
  64.3720012  20.1234997  25.8769988  64.6093695  20.3625184  25.0756440
  70.0650012  20.3684997  26.6039988  70.1410012  20.4634997  25.6539988
  69.7900012  19.4604997  26.7329988  70.0382321  20.2587867  26.4915079
  71.4180012  20.3944997  22.2959988  70.7160012  21.0094997  22.0869988
  70.9740012  19.5564997  22.4269988  71.2616330  20.3655783  22.2850328
  58.6660012  36.1574997  21.8429988  57.9810012  36.1194997  21.1749988
  58.6700012  37.0704997  22.1309988  58.5728193  36.2757016  21.7905284
  60.6260012  22.1254997  19.3869988  61.1180012  21.4954997  18.8599988
  61.2500012  22.4214997  20.0509988  60.7775446  22.0793199  19.4045980
  65.6520012  22.4184997  21.8439988  65.8300012  21.7724997  22.5269988
  65.5990012  23.2524997  22.3119988  65.6691829  22.4427985  22.0005940
  67.5310012  37.3674997  20.2399988  68.3970012  37.7334997  20.0619988
  67.2840012  36.9274997  19.4259988  67.6162392  37.3581756  20.1056289
  74.2400012  36.9304997  22.9189988  74.0450012  36.1824997  22.3539988
  74.2010012  37.6884997  22.3359988  74.2080380  36.9306099  22.7628384
  59.8870012  20.9254997  34.6589988  59.5210012  20.1604997  35.1019988
  60.8000012  20.9544997  34.9459988  59.9602790  20.8247224  34.7584070
  61.8600012  20.2764997  36.1949988  62.7580012  20.0024997  36.0099988
  61.4730012  19.5334997  36.6589988  61.9306612  20.1385914  36.2323643
  60.4840012  37.0774997  18.8679988  60.2170012  37.3644997  19.7409988
  61.2560012  36.5314997  19.0199988  60.5517488  37.0430294  19.0081050
  70.2810012  19.6084997  36.3769988  70.3580012  19.1824997  37.2309988
  71.1750012  19.6224997  36.0339988  70.4123428  19.5520879  36.4475310
  73.4570012  35.6814997  35.0689988  72.6750012  35.4954997  34.5499988
  73.3850012  36.6104997  35.2869988  73.3401777  35.7816492  35.0274048
  87.8630012  29.5674997  25.0999988  87.9520012  30.5114997  24.9679988
  87.2250012  29.2924997  24.4419988  87.7889081  29.6594830  24.9929614
  86.7960012  28.8224997  28.5189988  86.7580012  28.1764997  29.2239988
  86.4740012  28.3564997  27.7479988  86.7472333  28.6709408  28.5112978
  79.1650012  28.4374997  30.1119988  79.2060012  27.8114997  30.8349988
  79.8680012  29.0614997  30.2939988  79.2656363  28.4361196  30.2356044
  90.5020012  31.7614997  26.8199988  90.0620012  31.0414997  27.2709988
  90.4890012  32.4824997  27.4499988  90.4400226  31.7603731  26.9668494
  80.0880012  32.8874997  28.6469988  79.7190012  32.0854997  28.2769988
  81.0290012  32.7184997  28.6929988  80.1647289  32.7550153  28.6026316
  76.6980012  26.5474997  24.0399988  76.2510012  27.3934997  24.0209988
  76.1370012  25.9674997  23.5239988  76.5609900  26.5849916  23.9676801
  77.4090012  28.7094997  26.1659988  77.6220012  27.9394997  26.6929988
  78.1470012  28.7984997  25.5619988  77.5378496  28.6161394  26.1565300
  87.6140012  36.8664997  27.0329988  88.2340012  36.1894997  26.7589988
  87.4060012  36.6484997  27.9409988  87.6706904  36.7443870  27.1183365
  85.1860012  31.2554997  28.9249988  85.4900012  30.5694997  28.3299988
  85.9070012  31.3734997  29.5429988  85.3250671  31.1776305  28.9271816
  93.8490012  22.8564997  29.7859988  93.8980012  23.4664997  30.5219988
  94.2740012  23.3174997  29.0629988  93.9131824  23.0023741  29.7890205
  88.3270012  25.6494997  29.2529988  88.4690012  24.7034997  29.2729988
  88.2200012  25.8564997  28.3239988  88.3319864  25.5479534  29.1302339
  81.4810012  23.7504997  26.5249988  81.5250012  24.6104997  26.1069988
  81.0240012  23.1984997  25.8909988  81.4252185  23.7935799  26.3820299
  89.2040012  23.8814997  24.9259988  89.8500012  23.5524997  25.5509988
  89.7140012  24.3994997  24.3029988  89.3614264  23.9064611  24.9273862
  78.1020012  26.1474997  27.2869988  78.7550012  25.5974997  27.7189988
  78.1260012  25.8734997  26.3699988  78.1946683  26.0351466  27.2222123
  83.2580012  27.6974997  26.5019988  83.8740012  27.1714997  27.0119988
  82.6720012  27.0574997  26.0989988  83.2630810  27.5389208  26.5173173
  94.2400012  24.3344997  32.0219988  93.5520012  24.9924997  31.9259988
  94.2560012  24.1374997  32.9579988  94.1478525  24.3980462  32.1354808
  80.2920012  22.6684997  30.5989988  80.0730012  23.1984997  29.8329988
  79.6240012  22.8954997  31.2459988  80.1717600  22.7716906  30.5816379
  87.6610012  32.1684997  24.1429988  87.3650012  31.8464997  23.2919988
  87.3360012  33.0684997  24.1839988  87.5766371  32.2460215  24.0321801
  82.8610012  30.3444997  30.8859988  82.1210012  30.9424997  30.9899988
  83.5750012  30.8984997  30.5709988  82.8562237  30.5012831  30.8576465
  90.9680012  23.1724997  26.9059988  90.7520012  22.4064997  27.4389988
  91.6230012  23.6444997  27.4189988  91.0270633  23.1315889  27.0482861
  79.8850012  24.5604997  28.5509988  80.4990012  25.1934997  28.9249988
  80.3970012  24.0884997  27.8949988  80.0382296  24.5832370  28.5134252
  81.2680012  32.3084997  31.6739988  81.2630012  33.1884997  31.2959988
  80.4150012  32.2254997  32.0989988  81.1519464  32.4176117  31.6797907
  77.3890012  31.9794997  22.4559988  77.1170012  32.2084997  21.5669988
  77.4350012  32.8174997  22.9159988  77.3580094  32.1241213  22.3965697
  91.0140012  33.6014997  29.1679988  90.0730012  33.6594997  29.3299988
  91.2910012  34.5074997  29.0309988  90.9224679  33.7319443  29.1716815
  91.3150012  21.8874997  30.5859988  90.5790012  22.4984997  30.5479988
  91.9980012  22.3024997  30.0589988  91.3066541  22.0271374  30.5095832
  84.3180012  19.9744997  28.0519988  84.2010012  19.0254997  27.9969988
  83.4630012  20.3064997  28.3249988  84.1863733  19.8895409  28.0813897
  89.2660012  35.3824997  25.7939988  89.6920012  34.6754997  25.3089988
  89.5830012  36.1834997  25.3769988  89.3671019  35.3940994  25.6713130
  90.4260012  33.2834997  24.3019988  90.1680012  32.5934997  23.6909988
  90.4970012  32.8404997  25.1479988  90.4002856  33.1292124  24.3326885
  92.1120012  31.8494997  32.7799988  92.2520012  31.2584997  32.0399988
  92.2790012  32.7224997  32.4229988  92.1536778  31.8866426  32.6306965
  86.5850012  28.8114997  22.5519988  85.8730012  29.3464997  22.1999988
  87.2760012  28.8674997  21.8919988  86.5810132  28.8922543  22.4146289
  86.6380012  27.2694997  19.5909988  87.3390012  27.2914997  20.2419988
  86.9410012  26.6414997  18.9349988  86.7747830  27.1876566  19.5913711
  93.9540012  28.1894997  30.8459988  93.3010012  28.8844997  30.9349988
  94.4190012  28.3994997  30.0359988  93.9275390  28.3129425  30.7486883
  89.9900012  29.0214997  23.5039988  89.2580012  29.2494997  24.0769988
  90.4380012  28.3074997  23.9589988  89.9503095  28.9562571  23.6439119
  89.8880012  27.1954997  32.5709988  89.9680012  27.9584997  33.1429988
  89.2860012  27.4744997  31.8809988  89.8175756  27.3377134  32.5560589
  81.6360012  29.6514997  25.3859988  81.3050012  29.2814997  24.5679988
  82.2240012  28.9814997  25.7329988  81.6701873  29.5101156  25.3208102
  83.0020012  33.0794997  28.0679988  82.9080012  32.5014997  27.3109988
  83.7320012  32.7084997  28.5639988  83.0877981  32.9502390  28.0314165
  82.0020012  28.4204997  29.0199988  82.5680012  28.5414997  28.2569988
  82.3210012  29.0574997  29.6589988  82.1225786  28.5231884  29.0020040
  88.3110012  33.9234997  29.7539988  88.0710012  34.5854997  30.4019988
  88.1130012  33.0894997  30.1789988  88.2513808  33.9013134  29.9001524
  82.8820012  32.8194997  33.7369988  82.5710012  33.6014997  34.1919988
  82.2320012  32.6664997  33.0509988  82.7515558  32.9059105  33.7065871
  88.8610012  28.1834997  21.1889988  89.4410012  28.3334997  21.9359988
  89.2750012  28.6544997  20.4659988  88.9962830  28.2676841  21.1934134
  79.8020012  29.0174997  32.9659988  79.8730012  29.6684997  33.6639988
  78.9120012  29.1204997  32.6309988  79.6913117  29.1205936  33.0162700
  86.5880012  34.9204997  24.6239988  87.0620012  35.2154997  25.4019988
  86.0250012  35.6584997  24.3909988  86.5767653  35.0606932  24.6990136
  81.1220012  34.8914997  34.4999988  81.1290012  34.7554997  33.5529988
  80.2060012  34.7734997  34.7519988  80.9991714  34.8569430  34.4044666
  92.5600012  19.9334997  21.0019988  91.6600012  20.0724997  21.2969988
  92.8120012  20.7644997  20.5999988  92.4708702  20.0649074  20.9880205
  80.6260012  28.7214997  22.9759988  80.3340012  29.4894997  22.4849988
  79.9520012  28.0614997  22.8129988  80.4949081  28.7374406  22.8867340
  93.7490012  34.2994997  19.3779988  93.8230012  35.2384997  19.5489988
  94.6550012  33.9944997  19.3219988  93.8815100  34.3866722  19.3938119
  76.7190012  31.0844997  31.7909988  76.2180012  31.0564997  30.9759988
  76.7240012  30.1784997  32.0999988  76.6511526  30.9582278  31.7212872
  76.4690012  33.8644997  28.6749988  77.4150012  33.7204997  28.6559988
  76.3570012  34.6484997  29.2119988  76.5832727  33.9508046  28.7450072
  94.6670012  34.5304997  34.3569988  94.6180012  33.5754997  34.3199988
  93.8400012  34.7984997  34.7579988  94.5484940  34.4358998  34.4061375
  85.6460012  34.1044997  33.2329988  85.7330012  34.9304997  33.7079988
  84.7820012  33.7744997  33.4819988  85.5411964  34.1729878  33.3316549
  86.0600012  37.8764997  23.0389988  85.9850012  37.7554997  22.0929988
  86.0930012  38.8264997  23.1579988  86.0541848  37.9882500  22.9254834
  79.7130012  36.6654997  24.8199988  79.8660012  36.3174997  25.6989988
  78.8630012  36.3094997  24.5649988  79.6188962  36.5696650  24.9058340
  89.1620012  37.0304997  20.0409988  89.5370012  36.2864997  19.5709988
  89.1660012  36.7604997  20.9599988  89.2138915  36.8921486  20.1007824
  88.8310012  36.9564997  22.7909988  87.8950012  37.0564997  22.9689988
  89.1110012  36.2474997  23.3689988  88.7408255  36.8742711  22.8935391
  91.8190012  26.0234997  34.8369988  91.4120012  26.5044997  34.1159988
  91.8600012  25.1184997  34.5289988  91.7688437  25.9669374  34.6966683
  78.9680012  32.4074997  32.8339988  79.1840012  32.0464997  33.6929988
  78.1130012  32.0334997  32.6239988  78.8819292  32.3074111  32.9233386
  81.5870012  20.8774997  28.8289988  80.7250012  20.7904997  28.4219988
  81.5640012  21.7334997  29.2569988  81.4660330  20.9812765  28.8311863
  86.2500012  20.5994997  32.2039988  86.6700012  20.1844997  32.9569988
  85.3170012  20.4214997  32.3209988  86.1813644  20.5185900  32.3229539
  89.5760012  24.3554997  33.0569988  89.0620012  24.2294997  33.8549988
  89.4210012  25.2674997  32.8129988  89.4846852  24.4616132  33.1332158
  90.3390012  29.2164997  18.8189988  90.3810012  28.9934997  17.8889988
  91.1880012  29.6154997  19.0089988  90.4595396  29.2399155  18.7173627
  85.9110012  23.0924997  19.4889988  85.6580012  23.1114997  20.4119988
  85.6550012  22.2204997  19.1879988  85.8417790  22.9772437  19.5746263
  81.6780012  25.8434997  29.9239988  81.0360012  25.8024997  30.6329988
  81.7150012  26.7694997  29.6869988  81.5951324  25.9631559  29.9889824
  81.6750012  26.0644997  24.8359988  80.7820012  25.7234997  24.7779988
  82.1250012  25.6874997  24.0809988  81.6137305  25.9668484  24.7259177
  87.2100012  26.4804997  23.6529988  86.8010012  27.2954997  23.3619988
  87.9310012  26.3404997  23.0389988  87.2514537  26.5732018  23.5301342
  86.3120012  26.6554997  35.1409988  85.7500012  25.9514997  35.4619988
  87.1390012  26.5354997  35.6089988  86.3467095  26.5427883  35.2482330
  88.2150012  25.9264997  26.4669988  88.0200012  26.5314997  25.7519988
  88.3960012  25.0924997  26.0329988  88.2127614  25.8966300  26.3104405
  79.4280012  26.1634997  31.7909988  79.3900012  26.5634997  32.6599988
  78.9370012  25.3464997  31.8819988  79.3564684  26.1078069  31.9221059
  82.7940012  23.5374997  18.5899988  82.3630012  23.0924997  19.3199988
  82.0760012  23.9094997  18.0779988  82.6379438  23.5268940  18.6206799
  76.0360012  23.2794997  25.6419988  76.6670012  23.2504997  26.3609988
  76.4850012  22.8544997  24.9119988  76.1830774  23.2180492  25.6416553
  77.3100012  24.0254997  21.0659988  77.7840012  24.6164997  20.4809988
  76.5930012  24.5564997  21.4129988  77.2779341  24.1780867  21.0328836
  87.4790012  27.5644997  31.1389988  87.8020012  26.9334997  30.4959988
  87.0390012  27.0294997  31.7989988  87.4636895  27.4058441  31.1402850
  84.2560012  23.4914997  25.9229988  83.3450012  23.5484997  26.2109988
  84.7620012  23.4314997  26.7329988  84.1995413  23.4911985  26.0720622
  79.0850012  25.1204997  24.7489988  78.1950012  25.2204997  24.4089988
  79.3810012  24.2784997  24.4029988  79.0032823  25.0203546  24.6557213
  82.7380012  25.1204997  22.4059988  83.6690012  25.2494997  22.5839988
  82.5230012  25.7904997  21.7559988  82.8364247  25.2286565  22.3425747
  88.6610012  22.7264997  29.1869988  87.9850012  22.8574997  29.8509988
  88.1760012  22.5714997  28.3769988  88.5027145  22.7234905  29.1684517
  81.4120012  26.3154997  19.9729988  80.8690012  25.9354997  19.2809988
  82.2450012  26.5094997  19.5439988  81.4504399  26.2898124  19.8204526
  91.9490012  38.3984997  35.4639988  92.1490012  38.8224997  34.6289988
  92.6040012  38.7414997  36.0709988  92.0650051  38.5029648  35.4317836
  79.5470012  30.8724997  35.0719988  80.2790012  31.1264997  35.6329988
  78.7670012  31.0764997  35.5869988  79.5418232  30.9349177  35.2185760
  85.5760012  26.2794997  27.8099988  86.1410012  25.7324997  27.2629988
  85.4290012  25.7574997  28.5979988  85.6332918  26.1342024  27.8418454
  80.5780012  22.4154997  24.2279988  80.2610012  21.5134997  24.1929988
  81.3600012  22.4174997  23.6749988  80.6402284  22.2921628  24.1484783
  84.2030012  24.6674997  30.2239988  83.3670012  25.1214997  30.3339988
  84.7270012  24.9434997  30.9759988  84.1594414  24.7669376  30.3407136
  84.7470012  30.8804997  21.9079988  84.0020012  30.3734997  21.5859988
  84.6130012  30.9294997  22.8549988  84.6268776  30.8176940  21.9918647
  91.8970012  30.0134997  30.6949988  92.5390012  30.4704997  30.1509988
  91.0670012  30.1264997  30.2319988  91.8725963  30.0912704  30.5580177
  88.6450012  23.6944997  20.1079988  87.7060012  23.8064997  19.9559988
  88.9420012  24.5514997  20.4139988  88.5567666  23.8256443  20.1285768
  86.2660012  31.0644997  33.1449988  85.9210012  30.6834997  33.9519988
  86.0660012  31.9984997  33.2169988  86.1918061  31.1385228  33.2650961
  89.3630012  25.5614997  21.7679988  90.2550012  25.4244997  22.0869988
  89.4200012  26.3524997  21.2319988  89.4926285  25.6496660  21.7391691
  79.8720012  30.1754997  27.6779988  80.6170012  30.1734997  27.0769988
  79.9500012  29.3524997  28.1599988  79.9845518  30.0639315  27.6608929
  86.8730012  32.3394997  20.9339988  86.5770012  33.1654997  21.3149988
  86.1700012  31.7194997  21.1299988  86.7374914  32.3688199  21.0126443
  76.8800012  28.6364997  32.9929988  77.1030012  28.2184997  33.8249988
  76.2780012  28.0234997  32.5699988  76.8291759  28.4964668  33.0497022
  83.8960012  28.1534997  35.2059988  83.6000012  27.9874997  34.3109988
  84.8280012  27.9334997  35.1949988  83.9814166  28.1010640  35.0820536
  88.5170012  33.5264997  33.0959988  87.6160012  33.7094997  32.8279988
  88.5510012  33.7854997  34.0169988  88.3983041  33.5865512  33.1838197
  94.2480012  25.7714997  21.4629988  93.6940012  25.3754997  20.7909988
  94.3480012  26.6814997  21.1849988  94.1857059  25.8403586  21.3334401
  94.2110012  31.5714997  34.2999988  93.3600012  31.8094997  33.9329988
  94.8020012  31.5544997  33.5469988  94.1742487  31.6018258  34.1478893
  92.5430012  34.5574997  21.9279988  92.1700012  33.7314997  22.2369988
  92.8210012  34.3744997  21.0309988  92.5295630  34.4197303  21.8489626
  89.7040012  29.3654997  28.9489988  88.7750012  29.1334997  28.9219988
  90.1550012  28.5884997  28.6189988  89.6379216  29.2287238  28.9006917
  82.2470012  33.6934997  25.0819988  82.7740012  34.4664997  24.8819988
  81.3670012  33.9184997  24.7809988  82.2001773  33.8298005  25.0139010
  78.0020012  28.5554997  19.6689988  78.6180012  29.1824997  20.0489988
  77.1400012  28.8714997  19.9409988  77.9697698  28.6839430  19.7577183
  83.6740012  31.3564997  24.6589988  83.4330012  32.2814997  24.6999988
  82.9330012  30.8974997  25.0549988  83.5408409  31.4211421  24.7181377
  84.1890012  35.5054997  30.9739988  84.5510012  36.3604997  30.7399988
  84.7200012  35.2134997  31.7139988  84.3104473  35.5831060  31.0420855
  82.3570012  36.3784997  24.2039988  81.4070012  36.4834997  24.2549988
  82.7090012  37.1984997  24.5489988  82.2744203  36.5038314  24.2576650
  87.7330012  31.6044997  30.6739988  87.3070012  31.3774997  31.5009988
  88.3130012  30.8664997  30.4919988  87.7531868  31.4735299  30.7625830
  89.9360012  32.5334997  19.7479988  90.2890012  32.1534997  20.5529988
  88.9870012  32.4404997  19.8349988  89.8560441  32.4689596  19.8698559
  90.3910012  36.1564997  33.1439988  89.7900012  35.6014997  32.6479988
  90.6730012  36.8234997  32.5179988  90.3468519  36.1706841  32.9914952
  94.4390012  37.0134997  19.9489988  95.1830012  37.5994997  19.8089988
  93.7450012  37.5814997  20.2829988  94.4470292  37.1705582  19.9749961
  78.5140012  23.3894997  32.5509988  77.6210012  23.7284997  32.4829988
  78.4150012  22.5344997  32.9689988  78.3784164  23.3202588  32.5982235
  90.8020012  31.2064997  21.9749988  90.5240012  30.4784997  22.5309988
  91.7290012  31.3254997  22.1799988  90.8893124  31.1228802  22.0788845
  78.1650012  35.1944997  30.9859988  78.3820012  34.2624997  30.9549988
  78.4110012  35.4684997  31.8689988  78.2279549  35.1040636  31.1011763
  84.0270012  33.6454997  18.1949988  84.2660012  32.8974997  17.6479988
  83.7580012  33.2574997  19.0279988  84.0233675  33.4906638  18.2326865
  82.9640012  33.2154997  20.6519988  83.1100012  32.6954997  21.4419988
  82.9610012  34.1224997  20.9579988  82.9835989  33.2668853  20.8016088
  79.4170012  30.4684997  21.1619988  78.7310012  30.8204997  21.7289988
  79.9390012  31.2314997  20.9149988  79.3936852  30.6198578  21.2062118
  87.2480012  23.1304997  31.4409988  87.9470012  23.2044997  32.0909988
  86.8670012  22.2664997  31.5949988  87.2921767  23.0237624  31.5508322
  88.0330012  22.7824997  22.5379988  88.2530012  23.2544997  21.7349988
  88.5910012  23.1774997  23.2079988  88.1384968  22.9004285  22.5187331
  85.7010012  34.9134997  21.4009988  84.8850012  35.4104997  21.4529988
  86.2310012  35.3884997  20.7609988  85.6609161  35.0457722  21.3215956
  85.2330012  24.5104997  23.3729988  86.0450012  25.0154997  23.4189988
  84.9880012  24.3654997  24.2869988  85.3110520  24.5600375  23.5028517
  85.7680012  25.4964997  32.5579988  85.8870012  26.0704997  33.3149988
  86.4240012  24.8084997  32.6719988  85.8729757  25.4821079  32.6770825
  86.1160012  21.5914997  24.3109988  85.7700012  22.2094997  24.9559988
  86.7750012  22.0924997  23.8299988  86.1577826  21.7435802  24.3340971
  83.0400012  35.9574997  21.3829988  83.2000012  36.7564997  20.8819988
  82.8420012  36.2634997  22.2679988  83.0351649  36.1084469  21.4339815
  81.7740012  22.6544997  20.9979988  81.6910012  23.5434997  21.3449988
  82.6640012  22.3894997  21.2299988  81.8829469  22.7401430  21.0767626
  91.9730012  23.4034997  33.3929988  91.0560012  23.6664997  33.3049988
  92.3080012  23.4004997  32.4959988  91.8929900  23.4390224  33.2597919
  90.5750012  27.1544997  27.4879988  89.7770012  26.7394997  27.1599988
  91.0200012  26.4634997  27.9789988  90.5259885  27.0043543  27.5094889
  80.0330012  33.0824997  20.0589988  80.6250012  33.7814997  20.3349988
  80.4920012  32.6494997  19.3389988  80.1761142  33.1197049  19.9994830
  78.3490012  25.7464997  19.1749988  78.3040012  26.6854997  19.3529988
  77.4610012  25.5104997  18.9049988  78.2228574  25.8431892  19.1628912
  91.6610012  36.4104997  29.1109988  91.5060012  37.0884997  28.4539988
  92.5940012  36.4824997  29.3139988  91.7658500  36.5130170  29.0485119
  79.1570012  20.5284997  27.8479988  78.9280012  20.5874997  26.9199988
  78.7140012  19.7364997  28.1539988  79.0658530  20.4295753  27.7624786
  78.0870012  34.4684997  24.0079988  77.2550012  34.9414997  24.0359988
  78.6330012  34.9784997  23.4099988  78.0469739  34.6021871  23.9309716
  77.3750012  37.0814997  35.3379988  77.9160012  36.8644997  36.0979988
  76.8940012  36.2754997  35.1489988  77.3839345  36.9429514  35.4163076
  81.9730012  36.0004997  36.9589988  82.7400012  35.5414997  37.2999988
  81.9510012  35.7744997  36.0289988  82.0751434  35.9070409  36.8800043
  86.0650012  35.5084997  18.3339988  85.4210012  34.8774997  18.6549988
  86.8270012  34.9774997  18.1019988  86.0798077  35.3502920  18.3466011
  88.5500012  34.3804997  35.6879988  88.1990012  33.5244997  35.9309988
  89.2760012  34.5234997  36.2949988  88.6000769  34.2825636  35.8033619
  90.6690012  35.3254997  18.5679988  90.9520012  34.5314997  19.0199988
  91.4090012  35.5584997  18.0069988  90.8077486  35.2482803  18.5540698
  77.2820012  30.8914997  36.2929988  77.4260012  29.9894997  36.0059988
  76.5100012  31.1774997  35.8049988  77.1973323  30.8068261  36.1877881
  81.6240012  31.2354997  18.4249988  81.6880012  30.4414997  18.9559988
  82.2770012  31.1164997  17.7349988  81.7210241  31.1107148  18.4044317
  83.9380012  30.8614997  35.7249988  83.6090012  31.1324997  34.8679988
  84.0900012  29.9204997  35.6379988  83.9134809  30.7713862  35.5958244
  86.9760012  32.2824997  18.1609988  86.7070012  32.4624997  19.0619988
  86.7700012  31.3564997  18.0299988  86.9113825  32.1820152  18.2665214
  89.6720012  30.7774997  33.1089988  90.4180012  31.3654997  32.9889988
  88.9150012  31.3594997  33.1719988  89.6717554  30.9367011  33.1010907
  78.1150012  28.0914997  35.7129988  78.5230012  27.2344997  35.5919988
  77.8550012  28.1064997  36.6339988  78.1357568  27.9760807  35.8209588
  82.7730012  29.2074997  20.7309988  82.3130012  28.7234997  21.4169988
  83.0280012  28.5394997  20.0949988  82.7444902  29.0508731  20.7389334
  82.0620012  27.1004997  33.0869988  81.4440012  27.7754997  33.3669988
  82.4060012  27.4214997  32.2539988  82.0239615  27.2362721  33.0126581
  83.8440012  27.4504997  18.9929988  83.6640012  27.2964997  18.0659988
  84.7940012  27.5584997  19.0379988  83.9477776  27.4440175  18.8721843
  87.0820012  29.5724997  36.3639988  88.0350012  29.6554997  36.3369988
  86.9210012  28.8604997  36.9839988  87.1906426  29.4876746  36.4440579
  93.2340012  29.8054997  18.4389988  92.9600012  29.3804997  17.6259988
  93.2730012  30.7364997  18.2219988  93.2017699  29.8732484  18.2983610
  82.4010012  24.4554997  34.1689988  82.5510012  23.7264997  33.5669988
  82.4040012  25.2324997  33.6099988  82.4219302  24.4607851  34.0110692
  82.8140012  22.8254997  31.6619988  83.3500012  23.2764997  31.0099988
  81.9620012  22.7174997  31.2389988  82.7722178  22.8726390  31.5155756
  84.3960012  28.2644997  31.9009988  85.1460012  28.1084997  31.3279988
  84.0570012  29.1164997  31.6259988  84.4528921  28.3582968  31.7853561
  88.8110012  26.0794997  36.9299988  89.0040012  25.1484997  36.8179988
  89.6690012  26.5044997  36.9199988  88.9533020  26.0096389  36.9133361
  90.1280012  28.8684997  35.0069988  89.8470012  29.5774997  34.4299988
  91.0710012  28.7954997  34.8559988  90.2169027  28.9557646  34.9075551
  80.8800012  25.6534997  36.0809988  80.1130012  25.1214997  35.8709988
  81.5590012  25.3434997  35.4809988  80.8667022  25.5387506  35.9711648
  83.6200012  20.2814997  32.0929988  83.5210012  21.2284997  31.9879988
  82.8770012  19.9094997  31.6179988  83.5060564  20.3605902  32.0144560
  84.8840012  24.6034997  35.6569988  84.6480012  24.3834997  36.5589988
  84.1000012  24.3964997  35.1469988  84.7458628  24.5454760  35.7113932
  87.5990012  23.7304997  34.7329988  86.6520012  23.7624997  34.8649988
  87.9120012  23.1054997  35.3859988  87.5115475  23.6503207  34.8394455
  89.2330012  22.3644997  36.7379988  89.1370012  21.4124997  36.7319988
  88.9120012  22.6334997  37.5979988  89.1764070  22.2704035  36.8535441
  79.0600012  23.5744997  35.7849988  79.2720012  22.8674997  35.1749988
  78.9490012  23.1364997  36.6289988  79.0739721  23.4187084  35.8156843
  83.8410012  19.5754997  34.7649988  84.5530012  18.9354997  34.7509988
  83.7400012  19.8424997  33.8509988  83.9247939  19.5239938  34.6395650
  84.1950012  21.2584997  36.8179988  84.0630012  20.7824997  35.9979988
  83.5960012  22.0024997  36.7629988  84.0959071  21.2939618  36.6982886
  83.7410012  38.1414997  19.9949988  84.6740012  38.2994997  20.1379988
  83.4770012  38.8164997  19.3699988  83.8329510  38.2543611  19.9300741
  77.3100012  32.7774997  19.4769988  78.2240012  32.8564997  19.7509988
  77.3170012  32.0904997  18.8109988  77.4361131  32.6953961  19.4244393
  75.9590012  38.1704997  24.5549988  75.3120012  37.7084997  24.0219988
  76.3130012  37.4984997  25.1369988  75.9183849  38.0164723  24.5607959
  76.8290012  36.2514997  26.3589988  76.4940012  35.3714997  26.5309988
  77.0510012  36.5964997  27.2239988  76.8131783  36.1777500  26.4994208
  94.3770012  37.0604997  29.3399988  94.3560012  37.2454997  30.2789988
  95.0680012  37.6294997  28.9989988  94.4674618  37.1626606  29.4223864
  93.9410012  36.6284997  32.2619988  93.4530012  35.8924997  31.8909988
  94.4900012  36.2344997  32.9399988  93.9484872  36.4746249  32.3029160
  92.3910012  32.4174997  36.8999988  91.5250012  32.3124997  37.2939988
  92.7680012  33.1764997  37.3459988  92.3233308  32.5056900  37.0142393
  93.6920012  30.6744997  22.4139988  94.5420012  31.0954997  22.5409988
  93.6980012  29.9344997  23.0209988  93.8091372  30.6320803  22.5134344
  94.0870012  28.7274997  24.2379988  93.3600012  28.2484997  24.6349988
  94.6680012  28.9334997  24.9699988  94.0659375  28.6897090  24.3914129
  93.8460012  31.5124997  29.1849988  94.6790012  31.1344997  28.9049988
  93.9580012  32.4554997  29.0659988  93.9752647  31.5882218  29.1305487
  92.3320012  34.3904997  31.4919988  91.6850012  34.7154997  32.1179988
  91.8150012  33.9504997  30.8179988  92.1734029  34.3755004  31.4865827
  94.3550012  28.6284997  20.6289988  93.8330012  28.9854997  19.9099988
  94.3220012  29.3034997  21.3069988  94.2791634  28.7685413  20.6223145
  92.7040012  25.8684997  19.1799988  92.8000012  26.5354997  18.4989988
  92.5640012  25.0524997  18.6979988  92.6982135  25.8494500  19.0218491
  91.8730012  27.2484997  24.8009988  91.7230012  26.3034997  24.7799988
  91.5200012  27.5294997  25.6439988  91.8046625  27.1570441  24.9122346
  76.9090012  29.3264997  28.8109988  77.0930012  29.2444997  27.8749988
  77.7580012  29.2024997  29.2349988  77.0490139  29.2985003  28.7401455
  92.7300012  29.2184997  34.4389988  93.3130012  28.4844997  34.6309988
  93.2940012  29.9904997  34.4859988  92.8859769  29.2224227  34.4716159
  94.2260012  27.1214997  35.1239988  93.3630012  26.7424997  34.9579988
  94.8310012  26.3824997  35.0499988  94.1895979  26.9698023  35.0912817
  91.9510012  23.2764997  18.2969988  92.5620012  22.9054997  18.9339988
  91.1150012  22.8554997  18.4929988  91.9215032  23.1687554  18.4107035
  91.5840012  24.8314997  23.2629988  91.8640012  23.9244997  23.3869988
  92.3430012  25.2654997  22.8739988  91.7249277  24.7660942  23.2273682
  92.1960012  25.4124997  28.6989988  93.1290012  25.6244997  28.6649988
  91.9610012  25.5144997  29.6209988  92.2918036  25.4552769  28.8189976
  92.2250012  26.1494997  31.4749988  91.3820012  26.4174997  31.8409988
  92.6670012  26.9714997  31.2639988  92.1694158  26.2973291  31.4965491
  76.5060012  24.5974997  34.9519988  77.4260012  24.4754997  35.1879988
  76.0570012  23.8474997  35.3409988  76.5711580  24.4793727  35.0369006
  94.5080012  20.1294997  36.8279988  94.8580012  19.4754997  36.2229988
  94.6550012  20.9664997  36.3889988  94.5758419  20.1531591  36.6857118
  92.1970012  22.0944997  23.3109988  92.3800012  21.6454997  24.1369988
  91.5980012  21.5094997  22.8479988  92.1410202  21.9539975  23.3613275
  77.7270012  22.9094997  27.8429988  78.1730012  22.1174997  28.1449988
  78.1940012  23.6254997  28.2739988  77.8510172  22.8980624  27.9424820
  76.0310012  25.9084997  28.9119988  76.5230012  25.6874997  28.1209988
  76.3940012  26.7494997  29.1929988  76.1473126  25.9918357  28.8417531
  94.0280012  22.2384997  35.1779988  93.1100012  22.5094997  35.1419988
  94.1510012  21.7034997  34.3929988  93.9191066  22.2032892  35.0670487
  94.0640012  22.1614997  19.8389988  94.4760012  21.4404997  19.3639988
  94.7460012  22.8314997  19.8979988  94.2125885  22.1532368  19.7818915
  76.3450012  22.1664997  22.9659988  75.4200012  22.3754997  22.8369988
  76.7990012  22.6504997  22.2769988  76.2797368  22.2605993  22.8551226
  91.1160012  37.1504997  24.9119988  91.7680012  36.8034997  24.3039988
  91.6260012  37.6394997  25.5579988  91.2742637  37.1690597  24.9160236
  76.3090012  20.9044997  31.3109988  75.6440012  20.6584997  31.9539988
  75.8660012  21.5264997  30.7329988  76.1580956  20.9548632  31.3209352
  78.5010012  34.0794997  35.4549988  77.6800012  34.2544997  34.9949988
  78.2480012  34.0064997  36.3759988  78.3546164  34.0935622  35.5164923
  81.4550012  35.0544997  31.7139988  81.0300012  35.8634997  31.4309988
  82.3590012  35.1394997  31.4119988  81.5190271  35.1768469  31.6343776
  85.7660012  36.4534997  34.6729988  85.9510012  36.1194997  35.5509988
  86.6120012  36.7624997  34.3509988  85.9057539  36.4496047  34.7495605
  88.1110012  37.7394997  33.9169988  88.7880012  37.1064997  33.6769988
  88.4330012  38.1404997  34.7239988  88.2471637  37.7071154  33.9932793
  93.0280012  20.3284997  32.9969988  92.2160012  20.6534997  32.6089988
  93.2610012  19.5684997  32.4639988  92.9483423  20.2702436  32.8718253
  78.8570012  38.3104997  31.7609988  78.1360012  38.7504997  31.3099988
  78.4910012  38.0594997  32.6099988  78.7089804  38.3367698  31.8139840
  81.3240012  37.9104997  30.7909988  80.4590012  37.9824997  31.1949988
  81.2690012  38.4574997  30.0069988  81.1982085  37.9942685  30.7403362
  86.0340012  37.7984997  29.9659988  85.5780012  38.3274997  29.3119988
  86.1970012  38.4014997  30.6919988  85.9935585  37.9524468  29.9745062
  88.3620012  36.6764997  30.9109988  87.4570012  36.8414997  30.6459988
  88.7910012  37.5294997  30.8459988  88.2960799  36.8144483  30.8659182
  90.9660012  38.2464997  31.2059988  90.7840012  39.1624997  30.9959988
  91.1430012  37.8364997  30.3599988  90.9650210  38.3164822  31.0627885
  78.2710012  36.9334997  28.6709988  78.2530012  36.5084997  29.5289988
  79.0760012  36.6154997  28.2629988  78.3773875  36.8323812  28.7331655
  80.4130012  35.6434997  27.3259988  80.1940012  34.7274997  27.4959988
  81.2370012  35.7834997  27.7919988  80.4944420  35.5370520  27.4122774
  82.9500012  36.1134997  28.1749988  83.1630012  35.2254997  27.8879988
  83.0140012  36.0794997  29.1289988  82.9878232  35.9873102  28.2647397
  86.4580012  21.7774997  27.3189988  85.7840012  21.1484997  27.5749988
  87.0220012  21.2934997  26.7159988  86.4419230  21.6258744  27.2725340
  91.6010012  19.8854997  27.4319988  92.2050012  20.4324997  26.9299988
  90.7310012  20.2044997  27.1919988  91.5661241  20.0035806  27.3307654
  93.3280012  21.0234997  25.7649988  93.9400012  20.5094997  25.2389988
  93.7100012  21.9014997  25.7889988  93.4634540  21.0717140  25.6961830
  78.7850012  20.4114997  25.1409988  78.0080012  20.1774997  24.6339988
  79.3150012  19.6144997  25.1499988  78.7502330  20.2716988  25.0727742
  77.6210012  20.2094997  20.9449988  78.0600012  20.8204997  20.3529988
  76.9880012  20.7474997  21.4189988  77.5954514  20.3659257  20.9280930
  83.3640012  20.3384997  24.9549988  84.2390012  20.7264997  24.9249988
  83.2280012  20.1234997  25.8769988  83.4653695  20.3625184  25.0756440
  88.9210012  20.3684997  26.6039988  88.9970012  20.4634997  25.6539988
  88.6460012  19.4604997  26.7329988  88.8942321  20.2587867  26.4915079
  90.2740012  20.3944997  22.2959988  89.5720012  21.0094997  22.0869988
  89.8300012  19.5564997  22.4269988  90.1176330  20.3655783  22.2850328
  77.5220012  36.1574997  21.8429988  76.8370012  36.1194997  21.1749988
  77.5260012  37.0704997  22.1309988  77.4288193  36.2757016  21.7905284
  79.4820012  22.1254997  19.3869988  79.9740012  21.4954997  18.8599988
  80.1060012  22.4214997  20.0509988  79.6335446  22.0793199  19.4045980
  84.5080012  22.4184997  21.8439988  84.6860012  21.7724997  22.5269988
  84.4550012  23.2524997  22.3119988  84.5251829  22.4427985  22.0005940
  86.3870012  37.3674997  20.2399988  87.2530012  37.7334997  20.0619988
  86.1400012  36.9274997  19.4259988  86.4722392  37.3581756  20.1056289
  93.0960012  36.9304997  22.9189988  92.9010012  36.1824997  22.3539988
  93.0570012  37.6884997  22.3359988  93.0640380  36.9306099  22.7628384
  78.7430012  20.9254997  34.6589988  78.3770012  20.1604997  35.1019988
  79.6560012  20.9544997  34.9459988  78.8162790  20.8247224  34.7584070
  80.7160012  20.2764997  36.1949988  81.6140012  20.0024997  36.0099988
  80.3290012  19.5334997  36.6589988  80.7866612  20.1385914  36.2323643
  79.3400012  37.0774997  18.8679988  79.0730012  37.3644997  19.7409988
  80.1120012  36.5314997  19.0199988  79.4077488  37.0430294  19.0081050
  89.1370012  19.6084997  36.3769988  89.2140012  19.1824997  37.2309988
  90.0310012  19.6224997  36.0339988  89.2683428  19.5520879  36.4475310
  92.3130012  35.6814997  35.0689988  91.5310012  35.4954997  34.5499988
  92.2410012  36.6104997  35.2869988  92.1961777  35.7816492  35.0274048
 106.7190012  29.5674997  25.0999988 106.8080012  30.5114997  24.9679988
 106.0810012  29.2924997  24.4419988 106.6449081  29.6594830  24.9929614
 105.6520012  28.8224997  28.5189988 105.6140012  28.1764997  29.2239988
 105.3300012  28.3564997  27.7479988 105.6032333  28.6709408  28.5112978
  98.0210012  28.4374997  30.1119988  98.0620012  27.8114997  30.8349988
  98.7240012  29.0614997  30.2939988  98.1216363  28.4361196  30.2356044
 109.3580012  31.7614997  26.8199988 108.9180012  31.0414997  27.2709988
 109.3450012  32.4824997  27.4499988 109.2960226  31.7603731  26.9668494
  98.9440012  32.8874997  28.6469988  98.5750012  32.0854997  28.2769988
  99.8850012  32.7184997  28.6929988  99.0207289  32.7550153  28.6026316
  95.5540012  26.5474997  24.0399988  95.1070012  27.3934997  24.0209988
  94.9930012  25.9674997  23.5239988  95.4169900  26.5849916  23.9676801
  96.2650012  28.7094997  26.1659988  96.4780012  27.9394997  26.6929988
  97.0030012  28.7984997  25.5619988  96.3938496  28.6161394  26.1565300
 106.4700012  36.8664997  27.0329988 107.0900012  36.1894997  26.7589988
 106.2620012  36.6484997  27.9409988 106.5266904  36.7443870  27.1183365
 104.0420012  31.2554997  28.9249988 104.3460012  30.5694997  28.3299988
 104.7630012  31.3734997  29.5429988 104.1810671  31.1776305  28.9271816
 112.7050012  22.8564997  29.7859988 112.7540012  23.4664997  30.5219988
 113.1300012  23.3174997  29.0629988 112.7691824  23.0023741  29.7890205
 107.1830012  25.6494997  29.2529988 107.3250012  24.7034997  29.2729988
 107.0760012  25.8564997  28.3239988 107.1879864  25.5479534  29.1302339
 100.3370012  23.7504997  26.5249988 100.3810012  24.6104997  26.1069988
  99.8800012  23.1984997  25.8909988 100.2812185  23.7935799  26.3820299
 108.0600012  23.8814997  24.9259988 108.7060012  23.5524997  25.5509988
 108.5700012  24.3994997  24.3029988 108.2174264  23.9064611  24.9273862
  96.9580012  26.1474997  27.2869988  97.6110012  25.5974997  27.7189988
  96.9820012  25.8734997  26.3699988  97.0506683  26.0351466  27.2222123
 102.1140012  27.6974997  26.5019988 102.7300012  27.1714997  27.0119988
 101.5280012  27.0574997  26.0989988 102.1190810  27.5389208  26.5173173
 113.0960012  24.3344997  32.0219988 112.4080012  24.9924997  31.9259988
 113.1120012  24.1374997  32.9579988 113.0038525  24.3980462  32.1354808
  99.1480012  22.6684997  30.5989988  98.9290012  23.1984997  29.8329988
  98.4800012  22.8954997  31.2459988  99.0277600  22.7716906  30.5816379
 106.5170012  32.1684997  24.1429988 106.2210012  31.8464997  23.2919988
 106.1920012  33.0684997  24.1839988 106.4326371  32.2460215  24.0321801
 101.7170012  30.3444997  30.8859988 100.9770012  30.9424997  30.9899988
 102.4310012  30.8984997  30.5709988 101.7122237  30.5012831  30.8576465
 109.8240012  23.1724997  26.9059988 109.6080012  22.4064997  27.4389988
 110.4790012  23.6444997  27.4189988 109.8830632  23.1315889  27.0482861
  98.7410012  24.5604997  28.5509988  99.3550012  25.1934997  28.9249988
  99.2530012  24.0884997  27.8949988  98.8942296  24.5832370  28.5134252
 100.1240012  32.3084997  31.6739988 100.1190012  33.1884997  31.2959988
  99.2710012  32.2254997  32.0989988 100.0079464  32.4176117  31.6797907
  96.2450012  31.9794997  22.4559988  95.9730012  32.2084997  21.5669988
  96.2910012  32.8174997  22.9159988  96.2140094  32.1241213  22.3965697
 109.8700012  33.6014997  29.1679988 108.9290012  33.6594997  29.3299988
 110.1470012  34.5074997  29.0309988 109.7784679  33.7319443  29.1716815
 110.1710012  21.8874997  30.5859988 109.4350012  22.4984997  30.5479988
 110.8540012  22.3024997  30.0589988 110.1626541  22.0271374  30.5095832
 103.1740012  19.9744997  28.0519988 103.0570012  19.0254997  27.9969988
 102.3190012  20.3064997  28.3249988 103.0423733  19.8895409  28.0813897
 108.1220012  35.3824997  25.7939988 108.5480012  34.6754997  25.3089988
 108.4390012  36.1834997  25.3769988 108.2231019  35.3940994  25.6713130
 109.2820012  33.2834997  24.3019988 109.0240012  32.5934997  23.6909988
 109.3530012  32.8404997  25.1479988 109.2562856  33.1292124  24.3326885
 110.9680012  31.8494997  32.7799988 111.1080012  31.2584997  32.0399988
 111.1350012  32.7224997  32.4229988 111.0096778  31.8866426  32.6306965
 105.4410012  28.8114997  22.5519988 104.7290012  29.3464997  22.1999988
 106.1320012  28.8674997  21.8919988 105.4370132  28.8922543  22.4146289
 105.4940012  27.2694997  19.5909988 106.1950012  27.2914997  20.2419988
 105.7970012  26.6414997  18.9349988 105.6307830  27.1876566  19.5913711
 112.8100012  28.1894997  30.8459988 112.1570012  28.8844997  30.9349988
 113.2750012  28.3994997  30.0359988 112.7835390  28.3129425  30.7486883
 108.8460012  29.0214997  23.5039988 108.1140012  29.2494997  24.0769988
 109.2940012  28.3074997  23.9589988 108.8063095  28.9562571  23.6439119
 108.7440012  27.1954997  32.5709988 108.8240012  27.9584997  33.1429988
 108.1420012  27.4744997  31.8809988 108.6735756  27.3377134  32.5560589
 100.4920012  29.6514997  25.3859988 100.1610012  29.2814997  24.5679988
 101.0800012  28.9814997  25.7329988 100.5261873  29.5101156  25.3208102
 101.8580012  33.0794997  28.0679988 101.7640012  32.5014997  27.3109988
 102.5880012  32.7084997  28.5639988 101.9437981  32.9502390  28.0314165
 100.8580012  28.4204997  29.0199988 101.4240012  28.5414997  28.2569988
 101.1770012  29.0574997  29.6589988 100.9785786  28.5231884  29.0020040
 107.1670012  33.9234997  29.7539988 106.9270012  34.5854997  30.4019988
 106.9690012  33.0894997  30.1789988 107.1073808  33.9013134  29.9001524
 101.7380012  32.8194997  33.7369988 101.4270012  33.6014997  34.1919988
 101.0880012  32.6664997  33.0509988 101.6075558  32.9059105  33.7065871
 107.7170012  28.1834997  21.1889988 108.2970012  28.3334997  21.9359988
 108.1310012  28.6544997  20.4659988 107.8522830  28.2676841  21.1934134
  98.6580012  29.0174997  32.9659988  98.7290012  29.6684997  33.6639988
  97.7680012  29.1204997  32.6309988  98.5473117  29.1205936  33.0162700
 105.4440012  34.9204997  24.6239988 105.9180012  35.2154997  25.4019988
 104.8810012  35.6584997  24.3909988 105.4327653  35.0606932  24.6990136
  99.9780012  34.8914997  34.4999988  99.9850012  34.7554997  33.5529988
  99.0620012  34.7734997  34.7519988  99.8551714  34.8569430  34.4044666
 111.4160012  19.9334997  21.0019988 110.5160012  20.0724997  21.2969988
 111.6680012  20.7644997  20.5999988 111.3268702  20.0649074  20.9880205
  99.4820012  28.7214997  22.9759988  99.1900012  29.4894997  22.4849988
  98.8080012  28.0614997  22.8129988  99.3509081  28.7374406  22.8867340
 112.6050012  34.2994997  19.3779988 112.6790012  35.2384997  19.5489988
 113.5110012  33.9944997  19.3219988 112.7375100  34.3866722  19.3938119
  95.5750012  31.0844997  31.7909988  95.0740012  31.0564997  30.9759988
  95.5800012  30.1784997  32.0999988  95.5071526  30.9582278  31.7212872
  95.3250012  33.8644997  28.6749988  96.2710012  33.7204997  28.6559988
  95.2130012  34.6484997  29.2119988  95.4392727  33.9508046  28.7450072
 113.5230012  34.5304997  34.3569988 113.4740012  33.5754997  34.3199988
 112.6960012  34.7984997  34.7579988 113.4044940  34.4358998  34.4061375
 104.5020012  34.1044997  33.2329988 104.5890012  34.9304997  33.7079988
 103.6380012  33.7744997  33.4819988 104.3971964  34.1729878  33.3316549
 104.9160012  37.8764997  23.0389988 104.8410012  37.7554997  22.0929988
 104.9490012  38.8264997  23.1579988 104.9101848  37.9882500  22.9254834
  98.5690012  36.6654997  24.8199988  98.7220012  36.3174997  25.6989988
  97.7190012  36.3094997  24.5649988  98.4748962  36.5696650  24.9058340
 108.0180012  37.0304997  20.0409988 108.3930012  36.2864997  19.5709988
 108.0220012  36.7604997  20.9599988 108.0698915  36.8921486  20.1007824
 107.6870012  36.9564997  22.7909988 106.7510012  37.0564997  22.9689988
 107.9670012  36.2474997  23.3689988 107.5968255  36.8742711  22.8935391
 110.6750012  26.0234997  34.8369988 110.2680012  26.5044997  34.1159988
 110.7160012  25.1184997  34.5289988 110.6248437  25.9669374  34.6966683
  97.8240012  32.4074997  32.8339988  98.0400012  32.0464997  33.6929988
  96.9690012  32.0334997  32.6239988  97.7379292  32.3074111  32.9233386
 100.4430012  20.8774997  28.8289988  99.5810012  20.7904997  28.4219988
 100.4200012  21.7334997  29.2569988 100.3220330  20.9812765  28.8311863
 105.1060012  20.5994997  32.2039988 105.5260012  20.1844997  32.9569988
 104.1730012  20.4214997  32.3209988 105.0373644  20.5185900  32.3229539
 108.4320012  24.3554997  33.0569988 107.9180012  24.2294997  33.8549988
 108.2770012  25.2674997  32.8129988 108.3406852  24.4616132  33.1332158
 109.1950012  29.2164997  18.8189988 109.2370012  28.9934997  17.8889988
 110.0440012  29.6154997  19.0089988 109.3155396  29.2399155  18.7173627
 104.7670012  23.0924997  19.4889988 104.5140012  23.1114997  20.4119988
 104.5110012  22.2204997  19.1879988 104.6977790  22.9772437  19.5746263
 100.5340012  25.8434997  29.9239988  99.8920012  25.8024997  30.6329988
 100.5710012  26.7694997  29.6869988 100.4511324  25.9631559  29.9889824
 100.5310012  26.0644997  24.8359988  99.6380012  25.7234997  24.7779988
 100.9810012  25.6874997  24.0809988 100.4697305  25.9668484  24.7259177
 106.0660012  26.4804997  23.6529988 105.6570012  27.2954997  23.3619988
 106.7870012  26.3404997  23.0389988 106.1074537  26.5732018  23.5301342
 105.1680012  26.6554997  35.1409988 104.6060012  25.9514997  35.4619988
 105.9950012  26.5354997  35.6089988 105.2027095  26.5427883  35.2482330
 107.0710012  25.9264997  26.4669988 106.8760012  26.5314997  25.7519988
 107.2520012  25.0924997  26.0329988 107.0687614  25.8966300  26.3104405
  98.2840012  26.1634997  31.7909988  98.2460012  26.5634997  32.6599988
  97.7930012  25.3464997  31.8819988  98.2124684  26.1078069  31.9221059
 101.6500012  23.5374997  18.5899988 101.2190012  23.0924997  19.3199988
 100.9320012  23.9094997  18.0779988 101.4939438  23.5268940  18.6206799
  94.8920012  23.2794997  25.6419988  95.5230012  23.2504997  26.3609988
  95.3410012  22.8544997  24.9119988  95.0390774  23.2180492  25.6416553
  96.1660012  24.0254997  21.0659988  96.6400012  24.6164997  20.4809988
  95.4490012  24.5564997  21.4129988  96.1339341  24.1780867  21.0328836
 106.3350012  27.5644997  31.1389988 106.6580012  26.9334997  30.4959988
 105.8950012  27.0294997  31.7989988 106.3196895  27.4058441  31.1402850
 103.1120012  23.4914997  25.9229988 102.2010012  23.5484997  26.2109988
 103.6180012  23.4314997  26.7329988 103.0555413  23.4911985  26.0720622
  97.9410012  25.1204997  24.7489988  97.0510012  25.2204997  24.4089988
  98.2370012  24.2784997  24.4029988  97.8592823  25.0203545  24.6557213
 101.5940012  25.1204997  22.4059988 102.5250012  25.2494997  22.5839988
 101.3790012  25.7904997  21.7559988 101.6924247  25.2286565  22.3425747
 107.5170012  22.7264997  29.1869988 106.8410012  22.8574997  29.8509988
 107.0320012  22.5714997  28.3769988 107.3587145  22.7234905  29.1684517
 100.2680012  26.3154997  19.9729988  99.7250012  25.9354997  19.2809988
 101.1010012  26.5094997  19.5439988 100.3064399  26.2898124  19.8204526
 110.8050012  38.3984997  35.4639988 111.0050012  38.8224997  34.6289988
 111.4600012  38.7414997  36.0709988 110.9210051  38.5029648  35.4317836
  98.4030012  30.8724997  35.0719988  99.1350012  31.1264997  35.6329988
  97.6230012  31.0764997  35.5869988  98.3978232  30.9349177  35.2185760
 104.4320012  26.2794997  27.8099988 104.9970012  25.7324997  27.2629988
 104.2850012  25.7574997  28.5979988 104.4892918  26.1342024  27.8418454
  99.4340012  22.4154997  24.2279988  99.1170012  21.5134997  24.1929988
 100.2160012  22.4174997  23.6749988  99.4962284  22.2921628  24.1484783
 103.0590012  24.6674997  30.2239988 102.2230012  25.1214997  30.3339988
 103.5830012  24.9434997  30.9759988 103.0154414  24.7669376  30.3407136
 103.6030012  30.8804997  21.9079988 102.8580012  30.3734997  21.5859988
 103.4690012  30.9294997  22.8549988 103.4828776  30.8176940  21.9918647
 110.7530012  30.0134997  30.6949988 111.3950012  30.4704997  30.1509988
 109.9230012  30.1264997  30.2319988 110.7285963  30.0912704  30.5580177
 107.5010012  23.6944997  20.1079988 106.5620012  23.8064997  19.9559988
 107.7980012  24.5514997  20.4139988 107.4127666  23.8256443  20.1285768
 105.1220012  31.0644997  33.1449988 104.7770012  30.6834997  33.9519988
 104.9220012  31.9984997  33.2169988 105.0478061  31.1385228  33.2650961
 108.2190012  25.5614997  21.7679988 109.1110012  25.4244997  22.0869988
 108.2760012  26.3524997  21.2319988 108.3486285  25.6496660  21.7391690
  98.7280012  30.1754997  27.6779988  99.4730012  30.1734997  27.0769988
  98.8060012  29.3524997  28.1599988  98.8405518  30.0639315  27.6608929
 105.7290012  32.3394997  20.9339988 105.4330012  33.1654997  21.3149988
 105.0260012  31.7194997  21.1299988 105.5934914  32.3688199  21.0126443
  95.7360012  28.6364997  32.9929988  95.9590012  28.2184997  33.8249988
  95.1340012  28.0234997  32.5699988  95.6851759  28.4964668  33.0497022
 102.7520012  28.1534997  35.2059988 102.4560012  27.9874997  34.3109988
 103.6840012  27.9334997  35.1949988 102.8374166  28.1010640  35.0820536
 107.3730012  33.5264997  33.0959988 106.4720012  33.7094997  32.8279988
 107.4070012  33.7854997  34.0169988 107.2543041  33.5865512  33.1838197
 113.1040012  25.7714997  21.4629988 112.5500012  25.3754997  20.7909988
 113.2040012  26.6814997  21.1849988 113.0417059  25.8403586  21.3334401
 113.0670012  31.5714997  34.2999988 112.2160012  31.8094997  33.9329988
 113.6580012  31.5544997  33.5469988 113.0302487  31.6018258  34.1478893
 111.3990012  34.5574997  21.9279988 111.0260012  33.7314997  22.2369988
 111.6770012  34.3744997  21.0309988 111.3855630  34.4197303  21.8489626
 108.5600012  29.3654997  28.9489988 107.6310012  29.1334997  28.9219988
 109.0110012  28.5884997  28.6189988 108.4939216  29.2287238  28.9006917
 101.1030012  33.6934997  25.0819988 101.6300012  34.4664997  24.8819988
 100.2230012  33.9184997  24.7809988 101.0561773  33.8298005  25.0139010
  96.8580012  28.5554997  19.6689988  97.4740012  29.1824997  20.0489988
  95.9960012  28.8714997  19.9409988  96.8257698  28.6839430  19.7577183
 102.5300012  31.3564997  24.6589988 102.2890012  32.2814997  24.6999988
 101.7890012  30.8974997  25.0549988 102.3968409  31.4211421  24.7181377
 103.0450012  35.5054997  30.9739988 103.4070012  36.3604997  30.7399988
 103.5760012  35.2134997  31.7139988 103.1664473  35.5831060  31.0420855
 101.2130012  36.3784997  24.2039988 100.2630012  36.4834997  24.2549988
 101.5650012  37.1984997  24.5489988 101.1304203  36.5038314  24.2576650
 106.5890012  31.6044997  30.6739988 106.1630012  31.3774997  31.5009988
 107.1690012  30.8664997  30.4919988 106.6091868  31.4735299  30.7625830
 108.7920012  32.5334997  19.7479988 109.1450012  32.1534997  20.5529988
 107.8430012  32.4404997  19.8349988 108.7120441  32.4689596  19.8698559
 109.2470012  36.1564997  33.1439988 108.6460012  35.6014997  32.6479988
 109.5290012  36.8234997  32.5179988 109.2028519  36.1706841  32.9914952
 113.2950012  37.0134997  19.9489988 114.0390012  37.5994997  19.8089988
 112.6010012  37.5814997  20.2829988 113.3030292  37.1705582  19.9749961
  97.3700012  23.3894997  32.5509988  96.4770012  23.7284997  32.4829988
  97.2710012  22.5344997  32.9689988  97.2344164  23.3202588  32.5982235
 109.6580012  31.2064997  21.9749988 109.3800012  30.4784997  22.5309988
 110.5850012  31.3254997  22.1799988 109.7453124  31.1228802  22.0788845
  97.0210012  35.1944997  30.9859988  97.2380012  34.2624997  30.9549988
  97.2670012  35.4684997  31.8689988  97.0839549  35.1040636  31.1011763
 102.8830012  33.6454997  18.1949988 103.1220012  32.8974997  17.6479988
 102.6140012  33.2574997  19.0279988 102.8793675  33.4906638  18.2326865
 101.8200012  33.2154997  20.6519988 101.9660012  32.6954997  21.4419988
 101.8170012  34.1224997  20.9579988 101.8395989  33.2668853  20.8016088
  98.2730012  30.4684997  21.1619988  97.5870012  30.8204997  21.7289988
  98.7950012  31.2314997  20.9149988  98.2496852  30.6198578  21.2062118
 106.1040012  23.1304997  31.4409988 106.8030012  23.2044997  32.0909988
 105.7230012  22.2664997  31.5949988 106.1481767  23.0237624  31.5508322
 106.8890012  22.7824997  22.5379988 107.1090012  23.2544997  21.7349988
 107.4470012  23.1774997  23.2079988 106.9944968  22.9004285  22.5187331
 104.5570012  34.9134997  21.4009988 103.7410012  35.4104997  21.4529988
 105.0870012  35.3884997  20.7609988 104.5169161  35.0457722  21.3215956
 104.0890012  24.5104997  23.3729988 104.9010012  25.0154997  23.4189988
 103.8440012  24.3654997  24.2869988 104.1670520  24.5600375  23.5028517
 104.6240012  25.4964997  32.5579988 104.7430012  26.0704997  33.3149988
 105.2800012  24.8084997  32.6719988 104.7289757  25.4821079  32.6770825
 104.9720012  21.5914997  24.3109988 104.6260012  22.2094997  24.9559988
 105.6310012  22.0924997  23.8299988 105.0137826  21.7435802  24.3340971
 101.8960012  35.9574997  21.3829988 102.0560012  36.7564997  20.8819988
 101.6980012  36.2634997  22.2679988 101.8911649  36.1084469  21.4339815
 100.6300012  22.6544997  20.9979988 100.5470012  23.5434997  21.3449988
 101.5200012  22.3894997  21.2299988 100.7389469  22.7401430  21.0767626
 110.8290012  23.4034997  33.3929988 109.9120012  23.6664997  33.3049988
 111.1640012  23.4004997  32.4959988 110.7489900  23.4390224  33.2597919
 109.4310012  27.1544997  27.4879988 108.6330012  26.7394997  27.1599988
 109.8760012  26.4634997  27.9789988 109.3819885  27.0043543  27.5094889
  98.8890012  33.0824997  20.0589988  99.4810012  33.7814997  20.3349988
  99.3480012  32.6494997  19.3389988  99.0321142  33.1197049  19.9994830
  97.2050012  25.7464997  19.1749988  97.1600012  26.6854997  19.3529988
  96.3170012  25.5104997  18.9049988  97.0788574  25.8431892  19.1628912
 110.5170012  36.4104997  29.1109988 110.3620012  37.0884997  28.4539988
 111.4500012  36.4824997  29.3139988 110.6218500  36.5130170  29.0485119
  98.0130012  20.5284997  27.8479988  97.7840012  20.5874997  26.9199988
  97.5700012  19.7364997  28.1539988  97.9218530  20.4295753  27.7624786
  96.9430012  34.4684997  24.0079988  96.1110012  34.9414997  24.0359988
  97.4890012  34.9784997  23.4099988  96.9029739  34.6021871  23.9309716
  96.2310012  37.0814997  35.3379988  96.7720012  36.8644997  36.0979988
  95.7500012  36.2754997  35.1489988  96.2399345  36.9429514  35.4163076
 100.8290012  36.0004997  36.9589988 101.5960012  35.5414997  37.2999988
 100.8070012  35.7744997  36.0289988 100.9311434  35.9070409  36.8800043
 104.9210012  35.5084997  18.3339988 104.2770012  34.8774997  18.6549988
 105.6830012  34.9774997  18.1019988 104.9358077  35.3502920  18.3466011
 107.4060012  34.3804997  35.6879988 107.0550012  33.5244997  35.9309988
 108.1320012  34.5234997  36.2949988 107.4560769  34.2825636  35.8033619
 109.5250012  35.3254997  18.5679988 109.8080012  34.5314997  19.0199988
 110.2650012  35.5584997  18.0069988 109.6637486  35.2482803  18.5540698
  96.1380012  30.8914997  36.2929988  96.2820012  29.9894997  36.0059988
  95.3660012  31.1774997  35.8049988  96.0533322  30.8068261  36.1877881
 100.4800012  31.2354997  18.4249988 100.5440012  30.4414997  18.9559988
 101.1330012  31.1164997  17.7349988 100.5770241  31.1107148  18.4044317
 102.7940012  30.8614997  35.7249988 102.4650012  31.1324997  34.8679988
 102.9460012  29.9204997  35.6379988 102.7694809  30.7713862  35.5958244
 105.8320012  32.2824997  18.1609988 105.5630012  32.4624997  19.0619988
 105.6260012  31.3564997  18.0299988 105.7673825  32.1820152  18.2665214
 108.5280012  30.7774997  33.1089988 109.2740012  31.3654997  32.9889988
 107.7710012  31.3594997  33.1719988 108.5277554  30.9367011  33.1010907
  96.9710012  28.0914997  35.7129988  97.3790012  27.2344997  35.5919988
  96.7110012  28.1064997  36.6339988  96.9917568  27.9760807  35.8209588
 101.6290012  29.2074997  20.7309988 101.1690012  28.7234997  21.4169988
 101.8840012  28.5394997  20.0949988 101.6004902  29.0508731  20.7389334
 100.9180012  27.1004997  33.0869988 100.3000012  27.7754997  33.3669988
 101.2620012  27.4214997  32.2539988 100.8799615  27.2362721  33.0126581
 102.7000012  27.4504997  18.9929988 102.5200012  27.2964997  18.0659988
 103.6500012  27.5584997  19.0379988 102.8037776  27.4440175  18.8721843
 105.9380012  29.5724997  36.3639988 106.8910012  29.6554997  36.3369988
 105.7770012  28.8604997  36.9839988 106.0466426  29.4876746  36.4440579
 112.0900012  29.8054997  18.4389988 111.8160012  29.3804997  17.6259988
 112.1290012  30.7364997  18.2219988 112.0577699  29.8732484  18.2983610
 101.2570012  24.4554997  34.1689988 101.4070012  23.7264997  33.5669988
 101.2600012  25.2324997  33.6099988 101.2779302  24.4607851  34.0110692
 101.6700012  22.8254997  31.6619988 102.2060012  23.2764997  31.0099988
 100.8180012  22.7174997  31.2389988 101.6282178  22.8726390  31.5155756
 103.2520012  28.2644997  31.9009988 104.0020012  28.1084997  31.3279988
 102.9130012  29.1164997  31.6259988 103.3088921  28.3582968  31.7853561
 107.6670012  26.0794997  36.9299988 107.8600012  25.1484997  36.8179988
 108.5250012  26.5044997  36.9199988 107.8093020  26.0096389  36.9133361
 108.9840012  28.8684997  35.0069988 108.7030012  29.5774997  34.4299988
 109.9270012  28.7954997  34.8559988 109.0729027  28.9557646  34.9075551
  99.7360012  25.6534997  36.0809988  98.9690012  25.1214997  35.8709988
 100.4150012  25.3434997  35.4809988  99.7227022  25.5387506  35.9711648
 102.4760012  20.2814997  32.0929988 102.3770012  21.2284997  31.9879988
 101.7330012  19.9094997  31.6179988 102.3620564  20.3605902  32.0144560
 103.7400012  24.6034997  35.6569988 103.5040012  24.3834997  36.5589988
 102.9560012  24.3964997  35.1469988 103.6018628  24.5454760  35.7113932
 106.4550012  23.7304997  34.7329988 105.5080012  23.7624997  34.8649988
 106.7680012  23.1054997  35.3859988 106.3675475  23.6503207  34.8394455
 108.0890012  22.3644997  36.7379988 107.9930012  21.4124997  36.7319988
 107.7680012  22.6334997  37.5979988 108.0324070  22.2704035  36.8535441
  97.9160012  23.5744997  35.7849988  98.1280012  22.8674997  35.1749988
  97.8050012  23.1364997  36.6289988  97.9299721  23.4187084  35.8156843
 102.6970012  19.5754997  34.7649988 103.4090012  18.9354997  34.7509988
 102.5960012  19.8424997  33.8509988 102.7807939  19.5239938  34.6395650
 103.0510012  21.2584997  36.8179988 102.9190012  20.7824997  35.9979988
 102.4520012  22.0024997  36.7629988 102.9519071  21.2939618  36.6982886
 102.5970012  38.1414997  19.9949988 103.5300012  38.2994997  20.1379988
 102.3330012  38.8164997  19.3699988 102.6889510  38.2543611  19.9300741
  96.1660012  32.7774997  19.4769988  97.0800012  32.8564997  19.7509988
  96.1730012  32.0904997  18.8109988  96.2921131  32.6953961  19.4244393
  94.8150012  38.1704997  24.5549988  94.1680012  37.7084997  24.0219988
  95.1690012  37.4984997  25.1369988  94.7743849  38.0164723  24.5607959
  95.6850012  36.2514997  26.3589988  95.3500012  35.3714997  26.5309988
  95.9070012  36.5964997  27.2239988  95.6691783  36.1777501  26.4994208
 113.2330012  37.0604997  29.3399988 113.2120012  37.2454997  30.2789988
 113.9240012  37.6294997  28.9989988 113.3234618  37.1626606  29.4223864
 112.7970012  36.6284997  32.2619988 112.3090012  35.8924997  31.8909988
 113.3460012  36.2344997  32.9399988 112.8044872  36.4746249  32.3029160
 111.2470012  32.4174997  36.8999988 110.3810012  32.3124997  37.2939988
 111.6240012  33.1764997  37.3459988 111.1793308  32.5056900  37.0142393
 112.5480012  30.6744997  22.4139988 113.3980012  31.0954997  22.5409988
 112.5540012  29.9344997  23.0209988 112.6651372  30.6320803  22.5134344
 112.9430012  28.7274997  24.2379988 112.2160012  28.2484997  24.6349988
 113.5240012  28.9334997  24.9699988 112.9219375  28.6897090  24.3914129
 112.7020012  31.5124997  29.1849988 113.5350012  31.1344997  28.9049988
 112.8140012  32.4554997  29.0659988 112.8312647  31.5882218  29.1305487
 111.1880012  34.3904997  31.4919988 110.5410012  34.7154997  32.1179988
 110.6710012  33.9504997  30.8179988 111.0294029  34.3755004  31.4865827
 113.2110012  28.6284997  20.6289988 112.6890012  28.9854997  19.9099988
 113.1780012  29.3034997  21.3069988 113.1351634  28.7685413  20.6223145
 111.5600012  25.8684997  19.1799988 111.6560012  26.5354997  18.4989988
 111.4200012  25.0524997  18.6979988 111.5542135  25.8494500  19.0218491
 110.7290012  27.2484997  24.8009988 110.5790012  26.3034997  24.7799988
 110.3760012  27.5294997  25.6439988 110.6606625  27.1570441  24.9122346
  95.7650012  29.3264997  28.8109988  95.9490012  29.2444997  27.8749988
  96.6140012  29.2024997  29.2349988  95.9050139  29.2985003  28.7401455
 111.5860012  29.2184997  34.4389988 112.1690012  28.4844997  34.6309988
 112.1500012  29.9904997  34.4859988 111.7419769  29.2224227  34.4716159
 113.0820012  27.1214997  35.1239988 112.2190012  26.7424997  34.9579988
 113.6870012  26.3824997  35.0499988 113.0455979  26.9698023  35.0912817
 110.8070012  23.2764997  18.2969988 111.4180012  22.9054997  18.9339988
 109.9710012  22.8554997  18.4929988 110.7775032  23.1687554  18.4107035
 110.4400012  24.8314997  23.2629988 110.7200012  23.9244997  23.3869988
 111.1990012  25.2654997  22.8739988 110.5809277  24.7660942  23.2273682
 111.0520012  25.4124997  28.6989988 111.9850012  25.6244997  28.6649988
 110.8170012  25.5144997  29.6209988 111.1478036  25.4552769  28.8189976
 111.0810012  26.1494997  31.4749988 110.2380012  26.4174997  31.8409988
 111.5230012  26.9714997  31.2639988 111.0254158  26.2973291  31.4965491
  95.3620012  24.5974997  34.9519988  96.2820012  24.4754997  35.1879988
  94.9130012  23.8474997  35.3409988  95.4271580  24.4793727  35.0369006
 113.3640012  20.1294997  36.8279988 113.7140012  19.4754997  36.2229988
 113.5110012  20.9664997  36.3889988 113.4318419  20.1531591  36.6857118
 111.0530012  22.0944997  23.3109988 111.2360012  21.6454997  24.1369988
 110.4540012  21.5094997  22.8479988 110.9970202  21.9539975  23.3613275
  96.5830012  22.9094997  27.8429988  97.0290012  22.1174997  28.1449988
  97.0500012  23.6254997  28.2739988  96.7070172  22.8980624  27.9424820
  94.8870012  25.9084997  28.9119988  95.3790012  25.6874997  28.1209988
  95.2500012  26.7494997  29.1929988  95.0033126  25.9918357  28.8417531
 112.8840012  22.2384997  35.1779988 111.9660012  22.5094997  35.1419988
 113.0070012  21.7034997  34.3929988 112.7751066  22.2032892  35.0670487
 112.9200012  22.1614997  19.8389988 113.3320012  21.4404997  19.3639988
 113.6020012  22.8314997  19.8979988 113.0685885  22.1532368  19.7818915
  95.2010012  22.1664997  22.9659988  94.2760012  22.3754997  22.8369988
  95.6550012  22.6504997  22.2769988  95.1357368  22.2605993  22.8551226
 109.9720012  37.1504997  24.9119988 110.6240012  36.8034997  24.3039988
 110.4820012  37.6394997  25.5579988 110.1302637  37.1690597  24.9160236
  95.1650012  20.9044997  31.3109988  94.5000012  20.6584997  31.9539988
  94.7220012  21.5264997  30.7329988  95.0140956  20.9548632  31.3209352
  97.3570012  34.0794997  35.4549988  96.5360012  34.2544997  34.9949988
  97.1040012  34.0064997  36.3759988  97.2106164  34.0935622  35.5164923
 100.3110012  35.0544997  31.7139988  99.8860012  35.8634997  31.4309988
 101.2150012  35.1394997  31.4119988 100.3750271  35.1768469  31.6343776
 104.6220012  36.4534997  34.6729988 104.8070012  36.1194997  35.5509988
 105.4680012  36.7624997  34.3509988 104.7617539  36.4496047  34.7495605
 106.9670012  37.7394997  33.9169988 107.6440012  37.1064997  33.6769988
 107.2890012  38.1404997  34.7239988 107.1031637  37.7071154  33.9932793
 111.8840012  20.3284997  32.9969988 111.0720012  20.6534997  32.6089988
 112.1170012  19.5684997  32.4639988 111.8043423  20.2702436  32.8718253
  97.7130012  38.3104997  31.7609988  96.9920012  38.7504997  31.3099988
  97.3470012  38.0594997  32.6099988  97.5649804  38.3367698  31.8139840
 100.1800012  37.9104997  30.7909988  99.3150012  37.9824997  31.1949988
 100.1250012  38.4574997  30.0069988 100.0542085  37.9942685  30.7403362
 104.8900012  37.7984997  29.9659988 104.4340012  38.3274997  29.3119988
 105.0530012  38.4014997  30.6919988 104.8495585  37.9524468  29.9745062
 107.2180012  36.6764997  30.9109988 106.3130012  36.8414997  30.6459988
 107.6470012  37.5294997  30.8459988 107.1520799  36.8144483  30.8659182
 109.8220012  38.2464997  31.2059988 109.6400012  39.1624997  30.9959988
 109.9990012  37.8364997  30.3599988 109.8210210  38.3164822  31.0627885
  97.1270012  36.9334997  28.6709988  97.1090012  36.5084997  29.5289988
  97.9320012  36.6154997  28.2629988  97.2333875  36.8323812  28.7331655
  99.2690012  35.6434997  27.3259988  99.0500012  34.7274997  27.4959988
 100.0930012  35.7834997  27.7919988  99.3504420  35.5370520  27.4122774
 101.8060012  36.1134997  28.1749988 102.0190012  35.2254997  27.8879988
 101.8700012  36.0794997  29.1289988 101.8438232  35.9873102  28.2647397
 105.3140012  21.7774997  27.3189988 104.6400012  21.1484997  27.5749988
 105.8780012  21.2934997  26.7159988 105.2979230  21.6258744  27.2725340
 110.4570012  19.8854997  27.4319988 111.0610012  20.4324997  26.9299988
 109.5870012  20.2044997  27.1919988 110.4221241  20.0035806  27.3307654
 112.1840012  21.0234997  25.7649988 112.7960012  20.5094997  25.2389988
 112.5660012  21.9014997  25.7889988 112.3194540  21.0717140  25.6961830
  97.6410012  20.4114997  25.1409988  96.8640012  20.1774997  24.6339988
  98.1710012  19.6144997  25.1499988  97.6062330  20.2716988  25.0727742
  96.4770012  20.2094997  20.9449988  96.9160012  20.8204997  20.3529988
  95.8440012  20.7474997  21.4189988  96.4514514  20.3659257  20.9280930
 102.2200012  20.3384997  24.9549988 103.0950012  20.7264997  24.9249988
 102.0840012  20.1234997  25.8769988 102.3213695  20.3625184  25.0756440
 107.7770012  20.3684997  26.6039988 107.8530012  20.4634997  25.6539988
 107.5020012  19.4604997  26.7329988 107.7502321  20.2587867  26.4915079
 109.1300012  20.3944997  22.2959988 108.4280012  21.0094997  22.0869988
 108.6860012  19.5564997  22.4269988 108.9736330  20.3655783  22.2850328
  96.3780012  36.1574997  21.8429988  95.6930012  36.1194997  21.1749988
  96.3820012  37.0704997  22.1309988  96.2848193  36.2757016  21.7905284
  98.3380012  22.1254997  19.3869988  98.8300012  21.4954997  18.8599988
  98.9620012  22.4214997  20.0509988  98.4895446  22.0793199  19.4045980
 103.3640012  22.4184997  21.8439988 103.5420012  21.7724997  22.5269988
 103.3110012  23.2524997  22.3119988 103.3811829  22.4427985  22.0005940
 105.2430012  37.3674997  20.2399988 106.1090012  37.7334997  20.0619988
 104.9960012  36.9274997  19.4259988 105.3282392  37.3581756  20.1056289
 111.9520012  36.9304997  22.9189988 111.7570012  36.1824997  22.3539988
 111.9130012  37.6884997  22.3359988 111.9200380  36.9306099  22.7628384
  97.5990012  20.9254997  34.6589988  97.2330012  20.1604997  35.1019988
  98.5120012  20.9544997  34.9459988  97.6722790  20.8247224  34.7584070
  99.5720012  20.2764997  36.1949988 100.4700012  20.0024997  36.0099988
  99.1850012  19.5334997  36.6589988  99.6426612  20.1385914  36.2323643
  98.1960012  37.0774997  18.8679988  97.9290012  37.3644997  19.7409988
  98.9680012  36.5314997  19.0199988  98.2637488  37.0430294  19.0081050
 107.9930012  19.6084997  36.3769988 108.0700012  19.1824997  37.2309988
 108.8870012  19.6224997  36.0339988 108.1243428  19.5520879  36.4475310
 111.1690012  35.6814997  35.0689988 110.3870012  35.4954997  34.5499988
 111.0970012  36.6104997  35.2869988 111.0521777  35.7816492  35.0274048
 125.5750012  29.5674997  25.0999988 125.6640012  30.5114997  24.9679988
 124.9370012  29.2924997  24.4419988 125.5009081  29.6594830  24.9929614
 124.5080012  28.8224997  28.5189988 124.4700012  28.1764997  29.2239988
 124.1860012  28.3564997  27.7479988 124.4592333  28.6709408  28.5112978
 116.8770012  28.4374997  30.1119988 116.9180012  27.8114997  30.8349988
 117.5800012  29.0614997  30.2939988 116.9776363  28.4361196  30.2356044
 128.2140012  31.7614997  26.8199988 127.7740012  31.0414997  27.2709988
 128.2010012  32.4824997  27.4499988 128.1520226  31.7603731  26.9668494
 117.8000012  32.8874997  28.6469988 117.4310012  32.0854997  28.2769988
 118.7410012  32.7184997  28.6929988 117.8767289  32.7550153  28.6026316
 114.4100012  26.5474997  24.0399988 113.9630012  27.3934997  24.0209988
 113.8490012  25.9674997  23.5239988 114.2729900  26.5849916  23.9676801
 115.1210012  28.7094997  26.1659988 115.3340012  27.9394997  26.6929988
 115.8590012  28.7984997  25.5619988 115.2498496  28.6161394  26.1565300
 125.3260012  36.8664997  27.0329988 125.9460012  36.1894997  26.7589988
 125.1180012  36.6484997  27.9409988 125.3826904  36.7443870  27.1183365
 122.8980012  31.2554997  28.9249988 123.2020012  30.5694997  28.3299988
 123.6190012  31.3734997  29.5429988 123.0370671  31.1776305  28.9271816
 131.5610012  22.8564997  29.7859988 131.6100012  23.4664997  30.5219988
 131.9860012  23.3174997  29.0629988 131.6251824  23.0023741  29.7890205
 126.0390012  25.6494997  29.2529988 126.1810012  24.7034997  29.2729988
 125.9320012  25.8564997  28.3239988 126.0439864  25.5479534  29.1302339
 119.1930012  23.7504997  26.5249988 119.2370012  24.6104997  26.1069988
 118.7360012  23.1984997  25.8909988 119.1372185  23.7935799  26.3820299
 126.9160012  23.8814997  24.9259988 127.5620012  23.5524997  25.5509988
 127.4260012  24.3994997  24.3029988 127.0734264  23.9064611  24.9273862
 115.8140012  26.1474997  27.2869988 116.4670012  25.5974997  27.7189988
 115.8380012  25.8734997  26.3699988 115.9066683  26.0351466  27.2222123
 120.9700012  27.6974997  26.5019988 121.5860012  27.1714997  27.0119988
 120.3840012  27.0574997  26.0989988 120.9750810  27.5389208  26.5173173
 131.9520012  24.3344997  32.0219988 131.2640012  24.9924997  31.9259988
 131.9680012  24.1374997  32.9579988 131.8598525  24.3980462  32.1354808
 118.0040012  22.6684997  30.5989988 117.7850012  23.1984997  29.8329988
 117.3360012  22.8954997  31.2459988 117.8837600  22.7716906  30.5816379
 125.3730012  32.1684997  24.1429988 125.0770012  31.8464997  23.2919988
 125.0480012  33.0684997  24.1839988 125.2886371  32.2460215  24.0321801
 120.5730012  30.3444997  30.8859988 119.8330012  30.9424997  30.9899988
 121.2870012  30.8984997  30.5709988 120.5682237  30.5012831  30.8576465
 128.6800012  23.1724997  26.9059988 128.4640012  22.4064997  27.4389988
 129.3350012  23.6444997  27.4189988 128.7390632  23.1315889  27.0482861
 117.5970012  24.5604997  28.5509988 118.2110012  25.1934997  28.9249988
 118.1090012  24.0884997  27.8949988 117.7502296  24.5832370  28.5134252
 118.9800012  32.3084997  31.6739988 118.9750012  33.1884997  31.2959988
 118.1270012  32.2254997  32.0989988 118.8639464  32.4176117  31.6797907
 115.1010012  31.9794997  22.4559988 114.8290012  32.2084997  21.5669988
 115.1470012  32.8174997  22.9159988 115.0700094  32.1241213  22.3965697
 128.7260012  33.6014997  29.1679988 127.7850012  33.6594997  29.3299988
 129.0030012  34.5074997  29.0309988 128.6344679  33.7319443  29.1716815
 129.0270012  21.8874997  30.5859988 128.2910012  22.4984997  30.5479988
 129.7100012  22.3024997  30.0589988 129.0186541  22.0271374  30.5095832
 122.0300012  19.9744997  28.0519988 121.9130012  19.0254997  27.9969988
 121.1750012  20.3064997  28.3249988 121.8983733  19.8895409  28.0813897
 126.9780012  35.3824997  25.7939988 127.4040012  34.6754997  25.3089988
 127.2950012  36.1834997  25.3769988 127.0791019  35.3940994  25.6713130
 128.1380012  33.2834997  24.3019988 127.8800012  32.5934997  23.6909988
 128.2090012  32.8404997  25.1479988 128.1122856  33.1292124  24.3326885
 129.8240012  31.8494997  32.7799988 129.9640012  31.2584997  32.0399988
 129.9910012  32.7224997  32.4229988 129.8656778  31.8866426  32.6306965
 124.2970012  28.8114997  22.5519988 123.5850012  29.3464997  22.1999988
 124.9880012  28.8674997  21.8919988 124.2930132  28.8922543  22.4146289
 124.3500012  27.2694997  19.5909988 125.0510012  27.2914997  20.2419988
 124.6530012  26.6414997  18.9349988 124.4867830  27.1876566  19.5913711
 131.6660012  28.1894997  30.8459988 131.0130012  28.8844997  30.9349988
 132.1310012  28.3994997  30.0359988 131.6395390  28.3129425  30.7486883
 127.7020012  29.0214997  23.5039988 126.9700012  29.2494997  24.0769988
 128.1500012  28.3074997  23.9589988 127.6623095  28.9562571  23.6439119
 127.6000012  27.1954997  32.5709988 127.6800012  27.9584997  33.1429988
 126.9980012  27.4744997  31.8809988 127.5295756  27.3377134  32.5560589
 119.3480012  29.6514997  25.3859988 119.0170012  29.2814997  24.5679988
 119.9360012  28.9814997  25.7329988 119.3821873  29.5101156  25.3208102
 120.7140012  33.0794997  28.0679988 120.6200012  32.5014997  27.3109988
 121.4440012  32.7084997  28.5639988 120.7997981  32.9502390  28.0314165
 119.7140012  28.4204997  29.0199988 120.2800012  28.5414997  28.2569988
 120.0330012  29.0574997  29.6589988 119.8345786  28.5231884  29.0020040
 126.0230012  33.9234997  29.7539988 125.7830012  34.5854997  30.4019988
 125.8250012  33.0894997  30.1789988 125.9633808  33.9013134  29.9001524
 120.5940012  32.8194997  33.7369988 120.2830012  33.6014997  34.1919988
 119.9440012  32.6664997  33.0509988 120.4635558  32.9059105  33.7065871
 126.5730012  28.1834997  21.1889988 127.1530012  28.3334997  21.9359988
 126.9870012  28.6544997  20.4659988 126.7082830  28.2676841  21.1934134
 117.5140012  29.0174997  32.9659988 117.5850012  29.6684997  33.6639988
 116.6240012  29.1204997  32.6309988 117.4033117  29.1205936  33.0162700
 124.3000012  34.9204997  24.6239988 124.7740012  35.2154997  25.4019988
 123.7370012  35.6584997  24.3909988 124.2887653  35.0606932  24.6990136
 118.8340012  34.8914997  34.4999988 118.8410012  34.7554997  33.5529988
 117.9180012  34.7734997  34.7519988 118.7111714  34.8569430  34.4044666
 130.2720012  19.9334997  21.0019988 129.3720012  20.0724997  21.2969988
 130.5240012  20.7644997  20.5999988 130.1828702  20.0649074  20.9880205
 118.3380012  28.7214997  22.9759988 118.0460012  29.4894997  22.4849988
 117.6640012  28.0614997  22.8129988 118.2069081  28.7374406  22.8867340
 131.4610012  34.2994997  19.3779988 131.5350012  35.2384997  19.5489988
 132.3670012  33.9944997  19.3219988 131.5935100  34.3866722  19.3938119
 114.4310012  31.0844997  31.7909988 113.9300012  31.0564997  30.9759988
 114.4360012  30.1784997  32.0999988 114.3631526  30.9582278  31.7212872
 114.1810012  33.8644997  28.6749988 115.1270012  33.7204997  28.6559988
 114.0690012  34.6484997  29.2119988 114.2952727  33.9508046  28.7450072
 132.3790012  34.5304997  34.3569988 132.3300012  33.5754997  34.3199988
 131.5520012  34.7984997  34.7579988 132.2604940  34.4358998  34.4061375
 123.3580012  34.1044997  33.2329988 123.4450012  34.9304997  33.7079988
 122.4940012  33.7744997  33.4819988 123.2531964  34.1729878  33.3316549
 123.7720012  37.8764997  23.0389988 123.6970012  37.7554997  22.0929988
 123.8050012  38.8264997  23.1579988 123.7661848  37.9882500  22.9254834
 117.4250012  36.6654997  24.8199988 117.5780012  36.3174997  25.6989988
 116.5750012  36.3094997  24.5649988 117.3308962  36.5696650  24.9058340
 126.8740012  37.0304997  20.0409988 127.2490012  36.2864997  19.5709988
 126.8780012  36.7604997  20.9599988 126.9258915  36.8921486  20.1007824
 126.5430012  36.9564997  22.7909988 125.6070012  37.0564997  22.9689988
 126.8230012  36.2474997  23.3689988 126.4528255  36.8742711  22.8935391
 129.5310012  26.0234997  34.8369988 129.1240012  26.5044997  34.1159988
 129.5720012  25.1184997  34.5289988 129.4808437  25.9669374  34.6966683
 116.6800012  32.4074997  32.8339988 116.8960012  32.0464997  33.6929988
 115.8250012  32.0334997  32.6239988 116.5939292  32.3074111  32.9233386
 119.2990012  20.8774997  28.8289988 118.4370012  20.7904997  28.4219988
 119.2760012  21.7334997  29.2569988 119.1780330  20.9812765  28.8311863
 123.9620012  20.5994997  32.2039988 124.3820012  20.1844997  32.9569988
 123.0290012  20.4214997  32.3209988 123.8933644  20.5185900  32.3229539
 127.2880012  24.3554997  33.0569988 126.7740012  24.2294997  33.8549988
 127.1330012  25.2674997  32.8129988 127.1966852  24.4616132  33.1332158
 128.0510012  29.2164997  18.8189988 128.0930012  28.9934997  17.8889988
 128.9000012  29.6154997  19.0089988 128.1715396  29.2399155  18.7173627
 123.6230012  23.0924997  19.4889988 123.3700012  23.1114997  20.4119988
 123.3670012  22.2204997  19.1879988 123.5537790  22.9772437  19.5746263
 119.3900012  25.8434997  29.9239988 118.7480012  25.8024997  30.6329988
 119.4270012  26.7694997  29.6869988 119.3071324  25.9631559  29.9889824
 119.3870012  26.0644997  24.8359988 118.4940012  25.7234997  24.7779988
 119.8370012  25.6874997  24.0809988 119.3257305  25.9668484  24.7259177
 124.9220012  26.4804997  23.6529988 124.5130012  27.2954997  23.3619988
 125.6430012  26.3404997  23.0389988 124.9634537  26.5732018  23.5301342
 124.0240012  26.6554997  35.1409988 123.4620012  25.9514997  35.4619988
 124.8510012  26.5354997  35.6089988 124.0587095  26.5427883  35.2482330
 125.9270012  25.9264997  26.4669988 125.7320012  26.5314997  25.7519988
 126.1080012  25.0924997  26.0329988 125.9247614  25.8966300  26.3104405
 117.1400012  26.1634997  31.7909988 117.1020012  26.5634997  32.6599988
 116.6490012  25.3464997  31.8819988 117.0684684  26.1078069  31.9221059
 120.5060012  23.5374997  18.5899988 120.0750012  23.0924997  19.3199988
 119.7880012  23.9094997  18.0779988 120.3499438  23.5268940  18.6206799
 113.7480012  23.2794997  25.6419988 114.3790012  23.2504997  26.3609988
 114.1970012  22.8544997  24.9119988 113.8950774  23.2180492  25.6416553
 115.0220012  24.0254997  21.0659988 115.4960012  24.6164997  20.4809988
 114.3050012  24.5564997  21.4129988 114.9899341  24.1780867  21.0328836
 125.1910012  27.5644997  31.1389988 125.5140012  26.9334997  30.4959988
 124.7510012  27.0294997  31.7989988 125.1756895  27.4058441  31.1402850
 121.9680012  23.4914997  25.9229988 121.0570012  23.5484997  26.2109988
 122.4740012  23.4314997  26.7329988 121.9115413  23.4911985  26.0720622
 116.7970012  25.1204997  24.7489988 115.9070012  25.2204997  24.4089988
 117.0930012  24.2784997  24.4029988 116.7152823  25.0203545  24.6557213
 120.4500012  25.1204997  22.4059988 121.3810012  25.2494997  22.5839988
 120.2350012  25.7904997  21.7559988 120.5484247  25.2286565  22.3425747
 126.3730012  22.7264997  29.1869988 125.6970012  22.8574997  29.8509988
 125.8880012  22.5714997  28.3769988 126.2147145  22.7234905  29.1684517
 119.1240012  26.3154997  19.9729988 118.5810012  25.9354997  19.2809988
 119.9570012  26.5094997  19.5439988 119.1624399  26.2898124  19.8204526
 129.6610012  38.3984997  35.4639988 129.8610012  38.8224997  34.6289988
 130.3160012  38.7414997  36.0709988 129.7770051  38.5029648  35.4317836
 117.2590012  30.8724997  35.0719988 117.9910012  31.1264997  35.6329988
 116.4790012  31.0764997  35.5869988 117.2538232  30.9349177  35.2185760
 123.2880012  26.2794997  27.8099988 123.8530012  25.7324997  27.2629988
 123.1410012  25.7574997  28.5979988 123.3452918  26.1342024  27.8418454
 118.2900012  22.4154997  24.2279988 117.9730012  21.5134997  24.1929988
 119.0720012  22.4174997  23.6749988 118.3522284  22.2921628  24.1484783
 121.9150012  24.6674997  30.2239988 121.0790012  25.1214997  30.3339988
 122.4390012  24.9434997  30.9759988 121.8714414  24.7669376  30.3407136
 122.4590012  30.8804997  21.9079988 121.7140012  30.3734997  21.5859988
 122.3250012  30.9294997  22.8549988 122.3388776  30.8176940  21.9918647
 129.6090012  30.0134997  30.6949988 130.2510012  30.4704997  30.1509988
 128.7790012  30.1264997  30.2319988 129.5845963  30.0912704  30.5580177
 126.3570012  23.6944997  20.1079988 125.4180012  23.8064997  19.9559988
 126.6540012  24.5514997  20.4139988 126.2687666  23.8256443  20.1285768
 123.9780012  31.0644997  33.1449988 123.6330012  30.6834997  33.9519988
 123.7780012  31.9984997  33.2169988 123.9038061  31.1385228  33.2650961
 127.0750012  25.5614997  21.7679988 127.9670012  25.4244997  22.0869988
 127.1320012  26.3524997  21.2319988 127.2046285  25.6496660  21.7391691
 117.5840012  30.1754997  27.6779988 118.3290012  30.1734997  27.0769988
 117.6620012  29.3524997  28.1599988 117.6965518  30.0639315  27.6608929
 124.5850012  32.3394997  20.9339988 124.2890012  33.1654997  21.3149988
 123.8820012  31.7194997  21.1299988 124.4494914  32.3688199  21.0126443
 114.5920012  28.6364997  32.9929988 114.8150012  28.2184997  33.8249988
 113.9900012  28.0234997  32.5699988 114.5411759  28.4964668  33.0497022
 121.6080012  28.1534997  35.2059988 121.3120012  27.9874997  34.3109988
 122.5400012  27.9334997  35.1949988 121.6934166  28.1010640  35.0820536
 126.2290012  33.5264997  33.0959988 125.3280012  33.7094997  32.8279988
 126.2630012  33.7854997  34.0169988 126.1103041  33.5865512  33.1838197
 131.9600012  25.7714997  21.4629988 131.4060012  25.3754997  20.7909988
 132.0600012  26.6814997  21.1849988 131.8977059  25.8403586  21.3334401
 131.9230012  31.5714997  34.2999988 131.0720012  31.8094997  33.9329988
 132.5140012  31.5544997  33.5469988 131.8862487  31.6018258  34.1478893
 130.2550012  34.5574997  21.9279988 129.8820012  33.7314997  22.2369988
 130.5330012  34.3744997  21.0309988 130.2415630  34.4197303  21.8489626
 127.4160012  29.3654997  28.9489988 126.4870012  29.1334997  28.9219988
 127.8670012  28.5884997  28.6189988 127.3499216  29.2287238  28.9006917
 119.9590012  33.6934997  25.0819988 120.4860012  34.4664997  24.8819988
 119.0790012  33.9184997  24.7809988 119.9121773  33.8298005  25.0139010
 115.7140012  28.5554997  19.6689988 116.3300012  29.1824997  20.0489988
 114.8520012  28.8714997  19.9409988 115.6817698  28.6839430  19.7577183
 121.3860012  31.3564997  24.6589988 121.1450012  32.2814997  24.6999988
 120.6450012  30.8974997  25.0549988 121.2528409  31.4211421  24.7181377
 121.9010012  35.5054997  30.9739988 122.2630012  36.3604997  30.7399988
 122.4320012  35.2134997  31.7139988 122.0224473  35.5831060  31.0420855
 120.0690012  36.3784997  24.2039988 119.1190012  36.4834997  24.2549988
 120.4210012  37.1984997  24.5489988 119.9864203  36.5038314  24.2576650
 125.4450012  31.6044997  30.6739988 125.0190012  31.3774997  31.5009988
 126.0250012  30.8664997  30.4919988 125.4651868  31.4735299  30.7625830
 127.6480012  32.5334997  19.7479988 128.0010012  32.1534997  20.5529988
 126.6990012  32.4404997  19.8349988 127.5680441  32.4689596  19.8698559
 128.1030012  36.1564997  33.1439988 127.5020012  35.6014997  32.6479988
 128.3850012  36.8234997  32.5179988 128.0588519  36.1706841  32.9914952
 132.1510012  37.0134997  19.9489988 132.8950012  37.5994997  19.8089988
 131.4570012  37.5814997  20.2829988 132.1590292  37.1705582  19.9749961
 116.2260012  23.3894997  32.5509988 115.3330012  23.7284997  32.4829988
 116.1270012  22.5344997  32.9689988 116.0904164  23.3202588  32.5982235
 128.5140012  31.2064997  21.9749988 128.2360012  30.4784997  22.5309988
 129.4410012  31.3254997  22.1799988 128.6013124  31.1228802  22.0788845
 115.8770012  35.1944997  30.9859988 116.0940012  34.2624997  30.9549988
 116.1230012  35.4684997  31.8689988 115.9399549  35.1040636  31.1011763
 121.7390012  33.6454997  18.1949988 121.9780012  32.8974997  17.6479988
 121.4700012  33.2574997  19.0279988 121.7353675  33.4906638  18.2326865
 120.6760012  33.2154997  20.6519988 120.8220012  32.6954997  21.4419988
 120.6730012  34.1224997  20.9579988 120.6955989  33.2668853  20.8016088
 117.1290012  30.4684997  21.1619988 116.4430012  30.8204997  21.7289988
 117.6510012  31.2314997  20.9149988 117.1056852  30.6198578  21.2062118
 124.9600012  23.1304997  31.4409988 125.6590012  23.2044997  32.0909988
 124.5790012  22.2664997  31.5949988 125.0041767  23.0237624  31.5508322
 125.7450012  22.7824997  22.5379988 125.9650012  23.2544997  21.7349988
 126.3030012  23.1774997  23.2079988 125.8504968  22.9004285  22.5187331
 123.4130012  34.9134997  21.4009988 122.5970012  35.4104997  21.4529988
 123.9430012  35.3884997  20.7609988 123.3729161  35.0457722  21.3215956
 122.9450012  24.5104997  23.3729988 123.7570012  25.0154997  23.4189988
 122.7000012  24.3654997  24.2869988 123.0230520  24.5600375  23.5028517
 123.4800012  25.4964997  32.5579988 123.5990012  26.0704997  33.3149988
 124.1360012  24.8084997  32.6719988 123.5849757  25.4821079  32.6770825
 123.8280012  21.5914997  24.3109988 123.4820012  22.2094997  24.9559988
 124.4870012  22.0924997  23.8299988 123.8697826  21.7435802  24.3340971
 120.7520012  35.9574997  21.3829988 120.9120012  36.7564997  20.8819988
 120.5540012  36.2634997  22.2679988 120.7471649  36.1084469  21.4339815
 119.4860012  22.6544997  20.9979988 119.4030012  23.5434997  21.3449988
 120.3760012  22.3894997  21.2299988 119.5949469  22.7401430  21.0767626
 129.6850012  23.4034997  33.3929988 128.7680012  23.6664997  33.3049988
 130.0200012  23.4004997  32.4959988 129.6049900  23.4390224  33.2597919
 128.2870012  27.1544997  27.4879988 127.4890012  26.7394997  27.1599988
 128.7320012  26.4634997  27.9789988 128.2379885  27.0043543  27.5094889
 117.7450012  33.0824997  20.0589988 118.3370012  33.7814997  20.3349988
 118.2040012  32.6494997  19.3389988 117.8881142  33.1197049  19.9994830
 116.0610012  25.7464997  19.1749988 116.0160012  26.6854997  19.3529988
 115.1730012  25.5104997  18.9049988 115.9348574  25.8431892  19.1628912
 129.3730012  36.4104997  29.1109988 129.2180012  37.0884997  28.4539988
 130.3060012  36.4824997  29.3139988 129.4778500  36.5130170  29.0485119
 116.8690012  20.5284997  27.8479988 116.6400012  20.5874997  26.9199988
 116.4260012  19.7364997  28.1539988 116.7778530  20.4295753  27.7624786
 115.7990012  34.4684997  24.0079988 114.9670012  34.9414997  24.0359988
 116.3450012  34.9784997  23.4099988 115.7589739  34.6021871  23.9309716
 115.0870012  37.0814997  35.3379988 115.6280012  36.8644997  36.0979988
 114.6060012  36.2754997  35.1489988 115.0959345  36.9429514  35.4163076
 119.6850012  36.0004997  36.9589988 120.4520012  35.5414997  37.2999988
 119.6630012  35.7744997  36.0289988 119.7871434  35.9070409  36.8800043
 123.7770012  35.5084997  18.3339988 123.1330012  34.8774997  18.6549988
 124.5390012  34.9774997  18.1019988 123.7918077  35.3502920  18.3466011
 126.2620012  34.3804997  35.6879988 125.9110012  33.5244997  35.9309988
 126.9880012  34.5234997  36.2949988 126.3120769  34.2825636  35.8033619
 128.3810012  35.3254997  18.5679988 128.6640012  34.5314997  19.0199988
 129.1210012  35.5584997  18.0069988 128.5197486  35.2482803  18.5540698
 114.9940012  30.8914997  36.2929988 115.1380012  29.9894997  36.0059988
 114.2220012  31.1774997  35.8049988 114.9093322  30.8068261  36.1877881
 119.3360012  31.2354997  18.4249988 119.4000012  30.4414997  18.9559988
 119.9890012  31.1164997  17.7349988 119.4330241  31.1107148  18.4044317
 121.6500012  30.8614997  35.7249988 121.3210012  31.1324997  34.8679988
 121.8020012  29.9204997  35.6379988 121.6254809  30.7713862  35.5958244
 124.6880012  32.2824997  18.1609988 124.4190012  32.4624997  19.0619988
 124.4820012  31.3564997  18.0299988 124.6233825  32.1820152  18.2665214
 127.3840012  30.7774997  33.1089988 128.1300012  31.3654997  32.9889988
 126.6270012  31.3594997  33.1719988 127.3837554  30.9367011  33.1010907
 115.8270012  28.0914997  35.7129988 116.2350012  27.2344997  35.5919988
 115.5670012  28.1064997  36.6339988 115.8477568  27.9760807  35.8209588
 120.4850012  29.2074997  20.7309988 120.0250012  28.7234997  21.4169988
 120.7400012  28.5394997  20.0949988 120.4564902  29.0508731  20.7389334
 119.7740012  27.1004997  33.0869988 119.1560012  27.7754997  33.3669988
 120.1180012  27.4214997  32.2539988 119.7359615  27.2362721  33.0126581
 121.5560012  27.4504997  18.9929988 121.3760012  27.2964997  18.0659988
 122.5060012  27.5584997  19.0379988 121.6597776  27.4440175  18.8721843
 124.7940012  29.5724997  36.3639988 125.7470012  29.6554997  36.3369988
 124.6330012  28.8604997  36.9839988 124.9026426  29.4876746  36.4440579
 130.9460012  29.8054997  18.4389988 130.6720012  29.3804997  17.6259988
 130.9850012  30.7364997  18.2219988 130.9137699  29.8732484  18.2983610
 120.1130012  24.4554997  34.1689988 120.2630012  23.7264997  33.5669988
 120.1160012  25.2324997  33.6099988 120.1339302  24.4607851  34.0110692
 120.5260012  22.8254997  31.6619988 121.0620012  23.2764997  31.0099988
 119.6740012  22.7174997  31.2389988 120.4842178  22.8726390  31.5155756
 122.1080012  28.2644997  31.9009988 122.8580012  28.1084997  31.3279988
 121.7690012  29.1164997  31.6259988 122.1648921  28.3582968  31.7853561
 126.5230012  26.0794997  36.9299988 126.7160012  25.1484997  36.8179988
 127.3810012  26.5044997  36.9199988 126.6653020  26.0096389  36.9133361
 127.8400012  28.8684997  35.0069988 127.5590012  29.5774997  34.4299988
 128.7830012  28.7954997  34.8559988 127.9289027  28.9557646  34.9075551
 118.5920012  25.6534997  36.0809988 117.8250012  25.1214997  35.8709988
 119.2710012  25.3434997  35.4809988 118.5787022  25.5387506  35.9711648
 121.3320012  20.2814997  32.0929988 121.2330012  21.2284997  31.9879988
 120.5890012  19.9094997  31.6179988 121.2180563  20.3605902  32.0144560
 122.5960012  24.6034997  35.6569988 122.3600012  24.3834997  36.5589988
 121.8120012  24.3964997  35.1469988 122.4578628  24.5454760  35.7113932
 125.3110012  23.7304997  34.7329988 124.3640012  23.7624997  34.8649988
 125.6240012  23.1054997  35.3859988 125.2235475  23.6503207  34.8394455
 126.9450012  22.3644997  36.7379988 126.8490012  21.4124997  36.7319988
 126.6240012  22.6334997  37.5979988 126.8884070  22.2704035  36.8535441
 116.7720012  23.5744997  35.7849988 116.9840012  22.8674997  35.1749988
 116.6610012  23.1364997  36.6289988 116.7859721  23.4187084  35.8156843
 121.5530012  19.5754997  34.7649988 122.2650012  18.9354997  34.7509988
 121.4520012  19.8424997  33.8509988 121.6367939  19.5239938  34.6395650
 121.9070012  21.2584997  36.8179988 121.7750012  20.7824997  35.9979988
 121.3080012  22.0024997  36.7629988 121.8079071  21.2939618  36.6982886
 121.4530012  38.1414997  19.9949988 122.3860012  38.2994997  20.1379988
 121.1890012  38.8164997  19.3699988 121.5449510  38.2543611  19.9300741
 115.0220012  32.7774997  19.4769988 115.9360012  32.8564997  19.7509988
 115.0290012  32.0904997  18.8109988 115.1481131  32.6953961  19.4244393
 113.6710012  38.1704997  24.5549988 113.0240012  37.7084997  24.0219988
 114.0250012  37.4984997  25.1369988 113.6303849  38.0164723  24.5607959
 114.5410012  36.2514997  26.3589988 114.2060012  35.3714997  26.5309988
 114.7630012  36.5964997  27.2239988 114.5251783  36.1777500  26.4994208
 132.0890012  37.0604997  29.3399988 132.0680012  37.2454997  30.2789988
 132.7800012  37.6294997  28.9989988 132.1794618  37.1626606  29.4223864
 131.6530012  36.6284997  32.2619988 131.1650012  35.8924997  31.8909988
 132.2020012  36.2344997  32.9399988 131.6604872  36.4746249  32.3029160
 130.1030012  32.4174997  36.8999988 129.2370012  32.3124997  37.2939988
 130.4800012  33.1764997  37.3459988 130.0353308  32.5056900  37.0142393
 131.4040012  30.6744997  22.4139988 132.2540012  31.0954997  22.5409988
 131.4100012  29.9344997  23.0209988 131.5211372  30.6320803  22.5134344
 131.7990012  28.7274997  24.2379988 131.0720012  28.2484997  24.6349988
 132.3800012  28.9334997  24.9699988 131.7779375  28.6897090  24.3914129
 131.5580012  31.5124997  29.1849988 132.3910012  31.1344997  28.9049988
 131.6700012  32.4554997  29.0659988 131.6872647  31.5882218  29.1305487
 130.0440012  34.3904997  31.4919988 129.3970012  34.7154997  32.1179988
 129.5270012  33.9504997  30.8179988 129.8854029  34.3755004  31.4865827
 132.0670012  28.6284997  20.6289988 131.5450012  28.9854997  19.9099988
 132.0340012  29.3034997  21.3069988 131.9911634  28.7685413  20.6223145
 130.4160012  25.8684997  19.1799988 130.5120012  26.5354997  18.4989988
 130.2760012  25.0524997  18.6979988 130.4102135  25.8494500  19.0218491
 129.5850012  27.2484997  24.8009988 129.4350012  26.3034997  24.7799988
 129.2320012  27.5294997  25.6439988 129.5166625  27.1570441  24.9122346
 114.6210012  29.3264997  28.8109988 114.8050012  29.2444997  27.8749988
 115.4700012  29.2024997  29.2349988 114.7610139  29.2985003  28.7401455
 130.4420012  29.2184997  34.4389988 131.0250012  28.4844997  34.6309988
 131.0060012  29.9904997  34.4859988 130.5979769  29.2224227  34.4716159
 131.9380012  27.1214997  35.1239988 131.0750012  26.7424997  34.9579988
 132.5430012  26.3824997  35.0499988 131.9015979  26.9698023  35.0912817
 129.6630012  23.2764997  18.2969988 130.2740012  22.9054997  18.9339988
 128.8270012  22.8554997  18.4929988 129.6335032  23.1687554  18.4107035
 129.2960012  24.8314997  23.2629988 129.5760012  23.9244997  23.3869988
 130.0550012  25.2654997  22.8739988 129.4369277  24.7660942  23.2273682
 129.9080012  25.4124997  28.6989988 130.8410012  25.6244997  28.6649988
 129.6730012  25.5144997  29.6209988 130.0038036  25.4552769  28.8189976
 129.9370012  26.1494997  31.4749988 129.0940012  26.4174997  31.8409988
 130.3790012  26.9714997  31.2639988 129.8814158  26.2973291  31.4965491
 114.2180012  24.5974997  34.9519988 115.1380012  24.4754997  35.1879988
 113.7690012  23.8474997  35.3409988 114.2831580  24.4793727  35.0369006
 132.2200012  20.1294997  36.8279988 132.5700012  19.4754997  36.2229988
 132.3670012  20.9664997  36.3889988 132.2878419  20.1531591  36.6857118
 129.9090012  22.0944997  23.3109988 130.0920012  21.6454997  24.1369988
 129.3100012  21.5094997  22.8479988 129.8530202  21.9539975  23.3613275
 115.4390012  22.9094997  27.8429988 115.8850012  22.1174997  28.1449988
 115.9060012  23.6254997  28.2739988 115.5630172  22.8980624  27.9424820
 113.7430012  25.9084997  28.9119988 114.2350012  25.6874997  28.1209988
 114.1060012  26.7494997  29.1929988 113.8593126  25.9918357  28.8417531
 131.7400012  22.2384997  35.1779988 130.8220012  22.5094997  35.1419988
 131.8630012  21.7034997  34.3929988 131.6311066  22.2032892  35.0670487
 131.7760012  22.1614997  19.8389988 132.1880012  21.4404997  19.3639988
 132.4580012  22.8314997  19.8979988 131.9245885  22.1532368  19.7818915
 114.0570012  22.1664997  22.9659988 113.1320012  22.3754997  22.8369988
 114.5110012  22.6504997  22.2769988 113.9917368  22.2605993  22.8551226
 128.8280012  37.1504997  24.9119988 129.4800012  36.8034997  24.3039988
 129.3380012  37.6394997  25.5579988 128.9862637  37.1690597  24.9160236
 114.0210012  20.9044997  31.3109988 113.3560012  20.6584997  31.9539988
 113.5780012  21.5264997  30.7329988 113.8700956  20.9548632  31.3209352
 116.2130012  34.0794997  35.4549988 115.3920012  34.2544997  34.9949988
 115.9600012  34.0064997  36.3759988 116.0666164  34.0935622  35.5164923
 119.1670012  35.0544997  31.7139988 118.7420012  35.8634997  31.4309988
 120.0710012  35.1394997  31.4119988 119.2310271  35.1768469  31.6343776
 123.4780012  36.4534997  34.6729988 123.6630012  36.1194997  35.5509988
 124.3240012  36.7624997  34.3509988 123.6177539  36.4496047  34.7495605
 125.8230012  37.7394997  33.9169988 126.5000012  37.1064997  33.6769988
 126.1450012  38.1404997  34.7239988 125.9591637  37.7071154  33.9932793
 130.7400012  20.3284997  32.9969988 129.9280012  20.6534997  32.6089988
 130.9730012  19.5684997  32.4639988 130.6603423  20.2702436  32.8718253
 116.5690012  38.3104997  31.7609988 115.8480012  38.7504997  31.3099988
 116.2030012  38.0594997  32.6099988 116.4209804  38.3367698  31.8139840
 119.0360012  37.9104997  30.7909988 118.1710012  37.9824997  31.1949988
 118.9810012  38.4574997  30.0069988 118.9102085  37.9942685  30.7403362
 123.7460012  37.7984997  29.9659988 123.2900012  38.3274997  29.3119988
 123.9090012  38.4014997  30.6919988 123.7055585  37.9524468  29.9745062
 126.0740012  36.6764997  30.9109988 125.1690012  36.8414997  30.6459988
 126.5030012  37.5294997  30.8459988 126.0080799  36.8144483  30.8659182
 128.6780012  38.2464997  31.2059988 128.4960012  39.1624997  30.9959988
 128.8550012  37.8364997  30.3599988 128.6770210  38.3164822  31.0627885
 115.9830012  36.9334997  28.6709988 115.9650012  36.5084997  29.5289988
 116.7880012  36.6154997  28.2629988 116.0893875  36.8323812  28.7331655
 118.1250012  35.6434997  27.3259988 117.9060012  34.7274997  27.4959988
 118.9490012  35.7834997  27.7919988 118.2064420  35.5370520  27.4122774
 120.6620012  36.1134997  28.1749988 120.8750012  35.2254997  27.8879988
 120.7260012  36.0794997  29.1289988 120.6998232  35.9873102  28.2647397
 124.1700012  21.7774997  27.3189988 123.4960012  21.1484997  27.5749988
 124.7340012  21.2934997  26.7159988 124.1539230  21.6258744  27.2725340
 129.3130012  19.8854997  27.4319988 129.9170012  20.4324997  26.9299988
 128.4430012  20.2044997  27.1919988 129.2781241  20.0035806  27.3307654
 131.0400012  21.0234997  25.7649988 131.6520012  20.5094997  25.2389988
 131.4220012  21.9014997  25.7889988 131.1754540  21.0717140  25.6961830
 116.4970012  20.4114997  25.1409988 115.7200012  20.1774997  24.6339988
 117.0270012  19.6144997  25.1499988 116.4622330  20.2716988  25.0727742
 115.3330012  20.2094997  20.9449988 115.7720012  20.8204997  20.3529988
 114.7000012  20.7474997  21.4189988 115.3074514  20.3659257  20.9280930
 121.0760012  20.3384997  24.9549988 121.9510012  20.7264997  24.9249988
 120.9400012  20.1234997  25.8769988 121.1773695  20.3625184  25.0756440
 126.6330012  20.3684997  26.6039988 126.7090012  20.4634997  25.6539988
 126.3580012  19.4604997  26.7329988 126.6062321  20.2587867  26.4915079
 127.9860012  20.3944997  22.2959988 127.2840012  21.0094997  22.0869988
 127.5420012  19.5564997  22.4269988 127.8296330  20.3655783  22.2850328
 115.2340012  36.1574997  21.8429988 114.5490012  36.1194997  21.1749988
 115.2380012  37.0704997  22.1309988 115.1408193  36.2757016  21.7905284
 117.1940012  22.1254997  19.3869988 117.6860012  21.4954997  18.8599988
 117.8180012  22.4214997  20.0509988 117.3455446  22.0793199  19.4045980
 122.2200012  22.4184997  21.8439988 122.3980012  21.7724997  22.5269988
 122.1670012  23.2524997  22.3119988 122.2371829  22.4427985  22.0005940
 124.0990012  37.3674997  20.2399988 124.9650012  37.7334997  20.0619988
 123.8520012  36.9274997  19.4259988 124.1842392  37.3581756  20.1056289
 130.8080012  36.9304997  22.9189988 130.6130012  36.1824997  22.3539988
 130.7690012  37.6884997  22.3359988 130.7760380  36.9306099  22.7628384
 116.4550012  20.9254997  34.6589988 116.0890012  20.1604997  35.1019988
 117.3680012  20.9544997  34.9459988 116.5282790  20.8247224  34.7584070
 118.4280012  20.2764997  36.1949988 119.3260012  20.0024997  36.0099988
 118.0410012  19.5334997  36.6589988 118.4986612  20.1385914  36.2323643
 117.0520012  37.0774997  18.8679988 116.7850012  37.3644997  19.7409988
 117.8240012  36.5314997  19.0199988 117.1197488  37.0430294  19.0081050
 126.8490012  19.6084997  36.3769988 126.9260012  19.1824997  37.2309988
 127.7430012  19.6224997  36.0339988 126.9803428  19.5520879  36.4475310
 130.0250012  35.6814997  35.0689988 129.2430012  35.4954997  34.5499988
 129.9530012  36.6104997  35.2869988 129.9081777  35.7816492  35.0274048
 144.4310012  29.5674997  25.0999988 144.5200012  30.5114997  24.9679988
 143.7930012  29.2924997  24.4419988 144.3569081  29.6594830  24.9929614
 143.3640012  28.8224997  28.5189988 143.3260012  28.1764997  29.2239988
 143.0420012  28.3564997  27.7479988 143.3152333  28.6709408  28.5112978
 135.7330012  28.4374997  30.1119988 135.7740012  27.8114997  30.8349988
 136.4360012  29.0614997  30.2939988 135.8336363  28.4361196  30.2356044
 136.6560012  32.8874997  28.6469988 136.2870012  32.0854997  28.2769988
 137.5970012  32.7184997  28.6929988 136.7327289  32.7550153  28.6026316
 133.2660012  26.5474997  24.0399988 132.8190012  27.3934997  24.0209988
 132.7050012  25.9674997  23.5239988 133.1289900  26.5849916  23.9676801
 133.9770012  28.7094997  26.1659988 134.1900012  27.9394997  26.6929988
 134.7150012  28.7984997  25.5619988 134.1058496  28.6161394  26.1565300
 144.1820012  36.8664997  27.0329988 144.8020012  36.1894997  26.7589988
 143.9740012  36.6484997  27.9409988 144.2386904  36.7443870  27.1183365
 141.7540012  31.2554997  28.9249988 142.0580012  30.5694997  28.3299988
 142.4750012  31.3734997  29.5429988 141.8930671  31.1776304  28.9271816
 144.8950012  25.6494997  29.2529988 145.0370012  24.7034997  29.2729988
 144.7880012  25.8564997  28.3239988 144.8999863  25.5479534  29.1302339
 138.0490012  23.7504997  26.5249988 138.0930012  24.6104997  26.1069988
 137.5920012  23.1984997  25.8909988 137.9932185  23.7935799  26.3820299
 134.6700012  26.1474997  27.2869988 135.3230012  25.5974997  27.7189988
 134.6940012  25.8734997  26.3699988 134.7626683  26.0351466  27.2222123
 139.8260012  27.6974997  26.5019988 140.4420012  27.1714997  27.0119988
 139.2400012  27.0574997  26.0989988 139.8310810  27.5389208  26.5173173
 136.8600012  22.6684997  30.5989988 136.6410012  23.1984997  29.8329988
 136.1920012  22.8954997  31.2459988 136.7397600  22.7716906  30.5816379
 144.2290012  32.1684997  24.1429988 143.9330012  31.8464997  23.2919988
 143.9040012  33.0684997  24.1839988 144.1446371  32.2460215  24.0321801
 139.4290012  30.3444997  30.8859988 138.6890012  30.9424997  30.9899988
 140.1430012  30.8984997  30.5709988 139.4242237  30.5012831  30.8576465
 136.4530012  24.5604997  28.5509988 137.0670012  25.1934997  28.9249988
 136.9650012  24.0884997  27.8949988 136.6062296  24.5832370  28.5134252
 137.8360012  32.3084997  31.6739988 137.8310012  33.1884997  31.2959988
 136.9830012  32.2254997  32.0989988 137.7199464  32.4176117  31.6797907
 133.9570012  31.9794997  22.4559988 133.6850012  32.2084997  21.5669988
 134.0030012  32.8174997  22.9159988 133.9260094  32.1241213  22.3965697
 140.8860012  19.9744997  28.0519988 140.7690012  19.0254997  27.9969988
 140.0310012  20.3064997  28.3249988 140.7543733  19.8895409  28.0813897
 143.1530012  28.8114997  22.5519988 142.4410012  29.3464997  22.1999988
 143.8440012  28.8674997  21.8919988 143.1490132  28.8922543  22.4146289
 143.2060012  27.2694997  19.5909988 143.9070012  27.2914997  20.2419988
 143.5090012  26.6414997  18.9349988 143.3427830  27.1876566  19.5913711
 138.2040012  29.6514997  25.3859988 137.8730012  29.2814997  24.5679988
 138.7920012  28.9814997  25.7329988 138.2381873  29.5101156  25.3208102
 139.5700012  33.0794997  28.0679988 139.4760012  32.5014997  27.3109988
 140.3000012  32.7084997  28.5639988 139.6557981  32.9502390  28.0314165
 138.5700012  28.4204997  29.0199988 139.1360012  28.5414997  28.2569988
 138.8890012  29.0574997  29.6589988 138.6905786  28.5231884  29.0020040
 144.8790012  33.9234997  29.7539988 144.6390012  34.5854997  30.4019988
 144.6810012  33.0894997  30.1789988 144.8193808  33.9013134  29.9001524
 139.4500012  32.8194997  33.7369988 139.1390012  33.6014997  34.1919988
 138.8000012  32.6664997  33.0509988 139.3195558  32.9059105  33.7065871
 136.3700012  29.0174997  32.9659988 136.4410012  29.6684997  33.6639988
 135.4800012  29.1204997  32.6309988 136.2593117  29.1205936  33.0162700
 143.1560012  34.9204997  24.6239988 143.6300012  35.2154997  25.4019988
 142.5930012  35.6584997  24.3909988 143.1447653  35.0606932  24.6990136
 137.6900012  34.8914997  34.4999988 137.6970012  34.7554997  33.5529988
 136.7740012  34.7734997  34.7519988 137.5671714  34.8569430  34.4044666
 137.1940012  28.7214997  22.9759988 136.9020012  29.4894997  22.4849988
 136.5200012  28.0614997  22.8129988 137.0629081  28.7374406  22.8867340
 133.2870012  31.0844997  31.7909988 132.7860012  31.0564997  30.9759988
 133.2920012  30.1784997  32.0999988 133.2191526  30.9582278  31.7212872
 133.0370012  33.8644997  28.6749988 133.9830012  33.7204997  28.6559988
 132.9250012  34.6484997  29.2119988 133.1512727  33.9508046  28.7450072
 142.2140012  34.1044997  33.2329988 142.3010012  34.9304997  33.7079988
 141.3500012  33.7744997  33.4819988 142.1091964  34.1729878  33.3316549
 142.6280012  37.8764997  23.0389988 142.5530012  37.7554997  22.0929988
 142.6610012  38.8264997  23.1579988 142.6221848  37.9882500  22.9254834
 136.2810012  36.6654997  24.8199988 136.4340012  36.3174997  25.6989988
 135.4310012  36.3094997  24.5649988 136.1868962  36.5696650  24.9058340
 135.5360012  32.4074997  32.8339988 135.7520012  32.0464997  33.6929988
 134.6810012  32.0334997  32.6239988 135.4499292  32.3074111  32.9233386
 138.1550012  20.8774997  28.8289988 137.2930012  20.7904997  28.4219988
 138.1320012  21.7334997  29.2569988 138.0340330  20.9812765  28.8311863
 142.8180012  20.5994997  32.2039988 143.2380012  20.1844997  32.9569988
 141.8850012  20.4214997  32.3209988 142.7493644  20.5185900  32.3229539
 142.4790012  23.0924997  19.4889988 142.2260012  23.1114997  20.4119988
 142.2230012  22.2204997  19.1879988 142.4097790  22.9772437  19.5746263
 138.2460012  25.8434997  29.9239988 137.6040012  25.8024997  30.6329988
 138.2830012  26.7694997  29.6869988 138.1631324  25.9631559  29.9889824
 138.2430012  26.0644997  24.8359988 137.3500012  25.7234997  24.7779988
 138.6930012  25.6874997  24.0809988 138.1817305  25.9668484  24.7259177
 143.7780012  26.4804997  23.6529988 143.3690012  27.2954997  23.3619988
 144.4990012  26.3404997  23.0389988 143.8194537  26.5732018  23.5301342
 142.8800012  26.6554997  35.1409988 142.3180012  25.9514997  35.4619988
 143.7070012  26.5354997  35.6089988 142.9147095  26.5427883  35.2482330
 144.7830012  25.9264997  26.4669988 144.5880012  26.5314997  25.7519988
 144.9640012  25.0924997  26.0329988 144.7807614  25.8966300  26.3104405
 135.9960012  26.1634997  31.7909988 135.9580012  26.5634997  32.6599988
 135.5050012  25.3464997  31.8819988 135.9244684  26.1078069  31.9221059
 139.3620012  23.5374997  18.5899988 138.9310012  23.0924997  19.3199988
 138.6440012  23.9094997  18.0779988 139.2059438  23.5268940  18.6206799
 132.6040012  23.2794997  25.6419988 133.2350012  23.2504997  26.3609988
 133.0530012  22.8544997  24.9119988 132.7510774  23.2180492  25.6416553
 133.8780012  24.0254997  21.0659988 134.3520012  24.6164997  20.4809988
 133.1610012  24.5564997  21.4129988 133.8459341  24.1780867  21.0328836
 144.0470012  27.5644997  31.1389988 144.3700012  26.9334997  30.4959988
 143.6070012  27.0294997  31.7989988 144.0316895  27.4058440  31.1402850
 140.8240012  23.4914997  25.9229988 139.9130012  23.5484997  26.2109988
 141.3300012  23.4314997  26.7329988 140.7675413  23.4911985  26.0720622
 135.6530012  25.1204997  24.7489988 134.7630012  25.2204997  24.4089988
 135.9490012  24.2784997  24.4029988 135.5712823  25.0203545  24.6557213
 139.3060012  25.1204997  22.4059988 140.2370012  25.2494997  22.5839988
 139.0910012  25.7904997  21.7559988 139.4044247  25.2286565  22.3425747
 137.9800012  26.3154997  19.9729988 137.4370012  25.9354997  19.2809988
 138.8130012  26.5094997  19.5439988 138.0184399  26.2898124  19.8204526
 136.1150012  30.8724997  35.0719988 136.8470012  31.1264997  35.6329988
 135.3350012  31.0764997  35.5869988 136.1098232  30.9349177  35.2185760
 142.1440012  26.2794997  27.8099988 142.7090012  25.7324997  27.2629988
 141.9970012  25.7574997  28.5979988 142.2012918  26.1342024  27.8418454
 137.1460012  22.4154997  24.2279988 136.8290012  21.5134997  24.1929988
 137.9280012  22.4174997  23.6749988 137.2082284  22.2921628  24.1484783
 140.7710012  24.6674997  30.2239988 139.9350012  25.1214997  30.3339988
 141.2950012  24.9434997  30.9759988 140.7274414  24.7669376  30.3407136
 141.3150012  30.8804997  21.9079988 140.5700012  30.3734997  21.5859988
 141.1810012  30.9294997  22.8549988 141.1948776  30.8176940  21.9918647
 142.8340012  31.0644997  33.1449988 142.4890012  30.6834997  33.9519988
 142.6340012  31.9984997  33.2169988 142.7598061  31.1385228  33.2650961
 136.4400012  30.1754997  27.6779988 137.1850012  30.1734997  27.0769988
 136.5180012  29.3524997  28.1599988 136.5525518  30.0639315  27.6608929
 143.4410012  32.3394997  20.9339988 143.1450012  33.1654997  21.3149988
 142.7380012  31.7194997  21.1299988 143.3054914  32.3688199  21.0126443
 133.4480012  28.6364997  32.9929988 133.6710012  28.2184997  33.8249988
 132.8460012  28.0234997  32.5699988 133.3971759  28.4964668  33.0497022
 140.4640012  28.1534997  35.2059988 140.1680012  27.9874997  34.3109988
 141.3960012  27.9334997  35.1949988 140.5494166  28.1010640  35.0820536
 138.8150012  33.6934997  25.0819988 139.3420012  34.4664997  24.8819988
 137.9350012  33.9184997  24.7809988 138.7681773  33.8298005  25.0139010
 134.5700012  28.5554997  19.6689988 135.1860012  29.1824997  20.0489988
 133.7080012  28.8714997  19.9409988 134.5377698  28.6839430  19.7577183
 140.2420012  31.3564997  24.6589988 140.0010012  32.2814997  24.6999988
 139.5010012  30.8974997  25.0549988 140.1088409  31.4211421  24.7181377
 140.7570012  35.5054997  30.9739988 141.1190012  36.3604997  30.7399988
 141.2880012  35.2134997  31.7139988 140.8784473  35.5831060  31.0420855
 138.9250012  36.3784997  24.2039988 137.9750012  36.4834997  24.2549988
 139.2770012  37.1984997  24.5489988 138.8424203  36.5038314  24.2576650
 144.3010012  31.6044997  30.6739988 143.8750012  31.3774997  31.5009988
 144.8810012  30.8664997  30.4919988 144.3211868  31.4735299  30.7625830
 135.0820012  23.3894997  32.5509988 134.1890012  23.7284997  32.4829988
 134.9830012  22.5344997  32.9689988 134.9464164  23.3202588  32.5982235
 134.7330012  35.1944997  30.9859988 134.9500012  34.2624997  30.9549988
 134.9790012  35.4684997  31.8689988 134.7959549  35.1040636  31.1011763
 140.5950012  33.6454997  18.1949988 140.8340012  32.8974997  17.6479988
 140.3260012  33.2574997  19.0279988 140.5913675  33.4906638  18.2326865
 139.5320012  33.2154997  20.6519988 139.6780012  32.6954997  21.4419988
 139.5290012  34.1224997  20.9579988 139.5515989  33.2668853  20.8016088
 135.9850012  30.4684997  21.1619988 135.2990012  30.8204997  21.7289988
 136.5070012  31.2314997  20.9149988 135.9616852  30.6198578  21.2062118
 143.8160012  23.1304997  31.4409988 144.5150012  23.2044997  32.0909988
 143.4350012  22.2664997  31.5949988 143.8601767  23.0237624  31.5508322
 144.6010012  22.7824997  22.5379988 144.8210012  23.2544997  21.7349988
 145.1590012  23.1774997  23.2079988 144.7064968  22.9004285  22.5187331
 142.2690012  34.9134997  21.4009988 141.4530012  35.4104997  21.4529988
 142.7990012  35.3884997  20.7609988 142.2289161  35.0457722  21.3215956
 141.8010012  24.5104997  23.3729988 142.6130012  25.0154997  23.4189988
 141.5560012  24.3654997  24.2869988 141.8790520  24.5600375  23.5028517
 142.3360012  25.4964997  32.5579988 142.4550012  26.0704997  33.3149988
 142.9920012  24.8084997  32.6719988 142.4409757  25.4821079  32.6770825
 142.6840012  21.5914997  24.3109988 142.3380012  22.2094997  24.9559988
 143.3430012  22.0924997  23.8299988 142.7257826  21.7435802  24.3340971
 139.6080012  35.9574997  21.3829988 139.7680012  36.7564997  20.8819988
 139.4100012  36.2634997  22.2679988 139.6031649  36.1084469  21.4339815
 138.3420012  22.6544997  20.9979988 138.2590012  23.5434997  21.3449988
 139.2320012  22.3894997  21.2299988 138.4509469  22.7401430  21.0767626
 136.6010012  33.0824997  20.0589988 137.1930012  33.7814997  20.3349988
 137.0600012  32.6494997  19.3389988 136.7441142  33.1197049  19.9994830
 134.9170012  25.7464997  19.1749988 134.8720012  26.6854997  19.3529988
 134.0290012  25.5104997  18.9049988 134.7908574  25.8431892  19.1628912
 135.7250012  20.5284997  27.8479988 135.4960012  20.5874997  26.9199988
 135.2820012  19.7364997  28.1539988 135.6338530  20.4295753  27.7624786
 134.6550012  34.4684997  24.0079988 133.8230012  34.9414997  24.0359988
 135.2010012  34.9784997  23.4099988 134.6149739  34.6021871  23.9309716
 133.9430012  37.0814997  35.3379988 134.4840012  36.8644997  36.0979988
 133.4620012  36.2754997  35.1489988 133.9519345  36.9429514  35.4163076
 138.5410012  36.0004997  36.9589988 139.3080012  35.5414997  37.2999988
 138.5190012  35.7744997  36.0289988 138.6431434  35.9070409  36.8800043
 142.6330012  35.5084997  18.3339988 141.9890012  34.8774997  18.6549988
 143.3950012  34.9774997  18.1019988 142.6478077  35.3502920  18.3466011
 133.8500012  30.8914997  36.2929988 133.9940012  29.9894997  36.0059988
 133.0780012  31.1774997  35.8049988 133.7653322  30.8068261  36.1877881
 138.1920012  31.2354997  18.4249988 138.2560012  30.4414997  18.9559988
 138.8450012  31.1164997  17.7349988 138.2890241  31.1107148  18.4044317
 140.5060012  30.8614997  35.7249988 140.1770012  31.1324997  34.8679988
 140.6580012  29.9204997  35.6379988 140.4814809  30.7713862  35.5958244
 143.5440012  32.2824997  18.1609988 143.2750012  32.4624997  19.0619988
 143.3380012  31.3564997  18.0299988 143.4793825  32.1820152  18.2665214
 134.6830012  28.0914997  35.7129988 135.0910012  27.2344997  35.5919988
 134.4230012  28.1064997  36.6339988 134.7037568  27.9760807  35.8209588
 139.3410012  29.2074997  20.7309988 138.8810012  28.7234997  21.4169988
 139.5960012  28.5394997  20.0949988 139.3124902  29.0508731  20.7389334
 138.6300012  27.1004997  33.0869988 138.0120012  27.7754997  33.3669988
 138.9740012  27.4214997  32.2539988 138.5919615  27.2362721  33.0126581
 140.4120012  27.4504997  18.9929988 140.2320012  27.2964997  18.0659988
 141.3620012  27.5584997  19.0379988 140.5157776  27.4440175  18.8721843
 143.6500012  29.5724997  36.3639988 144.6030012  29.6554997  36.3369988
 143.4890012  28.8604997  36.9839988 143.7586426  29.4876746  36.4440579
 138.9690012  24.4554997  34.1689988 139.1190012  23.7264997  33.5669988
 138.9720012  25.2324997  33.6099988 138.9899302  24.4607851  34.0110692
 139.3820012  22.8254997  31.6619988 139.9180012  23.2764997  31.0099988
 138.5300012  22.7174997  31.2389988 139.3402178  22.8726390  31.5155756
 140.9640012  28.2644997  31.9009988 141.7140012  28.1084997  31.3279988
 140.6250012  29.1164997  31.6259988 141.0208921  28.3582968  31.7853561
 137.4480012  25.6534997  36.0809988 136.6810012  25.1214997  35.8709988
 138.1270012  25.3434997  35.4809988 137.4347022  25.5387506  35.9711648
 140.1880012  20.2814997  32.0929988 140.0890012  21.2284997  31.9879988
 139.4450012  19.9094997  31.6179988 140.0740564  20.3605902  32.0144560
 141.4520012  24.6034997  35.6569988 141.2160012  24.3834997  36.5589988
 140.6680012  24.3964997  35.1469988 141.3138628  24.5454760  35.7113932
 144.1670012  23.7304997  34.7329988 143.2200012  23.7624997  34.8649988
 144.4800012  23.1054997  35.3859988 144.0795475  23.6503207  34.8394455
 135.6280012  23.5744997  35.7849988 135.8400012  22.8674997  35.1749988
 135.5170012  23.1364997  36.6289988 135.6419721  23.4187084  35.8156843
 140.4090012  19.5754997  34.7649988 141.1210012  18.9354997  34.7509988
 140.3080012  19.8424997  33.8509988 140.4927939  19.5239938  34.6395650
 140.7630012  21.2584997  36.8179988 140.6310012  20.7824997  35.9979988
 140.1640012  22.0024997  36.7629988 140.6639071  21.2939618  36.6982886
 140.3090012  38.1414997  19.9949988 141.2420012  38.2994997  20.1379988
 140.0450012  38.8164997  19.3699988 140.4009510  38.2543611  19.9300741
 133.8780012  32.7774997  19.4769988 134.7920012  32.8564997  19.7509988
 133.8850012  32.0904997  18.8109988 134.0041131  32.6953961  19.4244393
 132.5270012  38.1704997  24.5549988 131.8800012  37.7084997  24.0219988
 132.8810012  37.4984997  25.1369988 132.4863849  38.0164723  24.5607959
 133.3970012  36.2514997  26.3589988 133.0620012  35.3714997  26.5309988
 133.6190012  36.5964997  27.2239988 133.3811783  36.1777501  26.4994208
 133.4770012  29.3264997  28.8109988 133.6610012  29.2444997  27.8749988
 134.3260012  29.2024997  29.2349988 133.6170139  29.2985003  28.7401455
 133.0740012  24.5974997  34.9519988 133.9940012  24.4754997  35.1879988
 132.6250012  23.8474997  35.3409988 133.1391580  24.4793727  35.0369006
 134.2950012  22.9094997  27.8429988 134.7410012  22.1174997  28.1449988
 134.7620012  23.6254997  28.2739988 134.4190172  22.8980624  27.9424820
 132.5990012  25.9084997  28.9119988 133.0910012  25.6874997  28.1209988
 132.9620012  26.7494997  29.1929988 132.7153126  25.9918357  28.8417531
 132.9130012  22.1664997  22.9659988 131.9880012  22.3754997  22.8369988
 133.3670012  22.6504997  22.2769988 132.8477368  22.2605993  22.8551226
 132.8770012  20.9044997  31.3109988 132.2120012  20.6584997  31.9539988
 132.4340012  21.5264997  30.7329988 132.7260956  20.9548632  31.3209352
 135.0690012  34.0794997  35.4549988 134.2480012  34.2544997  34.9949988
 134.8160012  34.0064997  36.3759988 134.9226164  34.0935622  35.5164923
 138.0230012  35.0544997  31.7139988 137.5980012  35.8634997  31.4309988
 138.9270012  35.1394997  31.4119988 138.0870271  35.1768469  31.6343776
 142.3340012  36.4534997  34.6729988 142.5190012  36.1194997  35.5509988
 143.1800012  36.7624997  34.3509988 142.4737539  36.4496047  34.7495605
 144.6790012  37.7394997  33.9169988 145.3560012  37.1064997  33.6769988
 145.0010012  38.1404997  34.7239988 144.8151637  37.7071154  33.9932793
 135.4250012  38.3104997  31.7609988 134.7040012  38.7504997  31.3099988
 135.0590012  38.0594997  32.6099988 135.2769804  38.3367698  31.8139840
 137.8920012  37.9104997  30.7909988 137.0270012  37.9824997  31.1949988
 137.8370012  38.4574997  30.0069988 137.7662085  37.9942685  30.7403362
 142.6020012  37.7984997  29.9659988 142.1460012  38.3274997  29.3119988
 142.7650012  38.4014997  30.6919988 142.5615585  37.9524468  29.9745062
 134.8390012  36.9334997  28.6709988 134.8210012  36.5084997  29.5289988
 135.6440012  36.6154997  28.2629988 134.9453875  36.8323812  28.7331655
 136.9810012  35.6434997  27.3259988 136.7620012  34.7274997  27.4959988
 137.8050012  35.7834997  27.7919988 137.0624420  35.5370520  27.4122774
 139.5180012  36.1134997  28.1749988 139.7310012  35.2254997  27.8879988
 139.5820012  36.0794997  29.1289988 139.5558231  35.9873102  28.2647397
 143.0260012  21.7774997  27.3189988 142.3520012  21.1484997  27.5749988
 143.5900012  21.2934997  26.7159988 143.0099230  21.6258744  27.2725340
 135.3530012  20.4114997  25.1409988 134.5760012  20.1774997  24.6339988
 135.8830012  19.6144997  25.1499988 135.3182330  20.2716988  25.0727742
 134.1890012  20.2094997  20.9449988 134.6280012  20.8204997  20.3529988
 133.5560012  20.7474997  21.4189988 134.1634514  20.3659257  20.9280930
 139.9320012  20.3384997  24.9549988 140.8070012  20.7264997  24.9249988
 139.7960012  20.1234997  25.8769988 140.0333695  20.3625184  25.0756440
 134.0900012  36.1574997  21.8429988 133.4050012  36.1194997  21.1749988
 134.0940012  37.0704997  22.1309988 133.9968193  36.2757016  21.7905284
 136.0500012  22.1254997  19.3869988 136.5420012  21.4954997  18.8599988
 136.6740012  22.4214997  20.0509988 136.2015446  22.0793199  19.4045980
 141.0760012  22.4184997  21.8439988 141.2540012  21.7724997  22.5269988
 141.0230012  23.2524997  22.3119988 141.0931829  22.4427985  22.0005940
 142.9550012  37.3674997  20.2399988 143.8210012  37.7334997  20.0619988
 142.7080012  36.9274997  19.4259988 143.0402392  37.3581756  20.1056289
 135.3110012  20.9254997  34.6589988 134.9450012  20.1604997  35.1019988
 136.2240012  20.9544997  34.9459988 135.3842790  20.8247224  34.7584070
 137.2840012  20.2764997  36.1949988 138.1820012  20.0024997  36.0099988
 136.8970012  19.5334997  36.6589988 137.3546612  20.1385914  36.2323643
 135.9080012  37.0774997  18.8679988 135.6410012  37.3644997  19.7409988
 136.6800012  36.5314997  19.0199988 135.9757488  37.0430294  19.0081050
  12.4390012  48.4234997  25.0999988  12.5280012  49.3674997  24.9679988
  11.8010012  48.1484997  24.4419988  12.3649081  48.5154830  24.9929614
  11.3720012  47.6784997  28.5189988  11.3340012  47.0324997  29.2239988
  11.0500012  47.2124997  27.7479988  11.3232333  47.5269408  28.5112978
   3.7410012  47.2934997  30.1119988   3.7820012  46.6674997  30.8349988
   4.4440012  47.9174997  30.2939988   3.8416363  47.2921196  30.2356044
  15.0780012  50.6174997  26.8199988  14.6380012  49.8974997  27.2709988
  15.0650012  51.3384997  27.4499988  15.0160226  50.6163731  26.9668494
   4.6640012  51.7434997  28.6469988   4.2950012  50.9414997  28.2769988
   5.6050012  51.5744997  28.6929988   4.7407289  51.6110153  28.6026316
   1.2740012  45.4034997  24.0399988   0.8270012  46.2494997  24.0209988
   0.7130012  44.8234997  23.5239988   1.1369900  45.4409916  23.9676801
   1.9850012  47.5654997  26.1659988   2.1980012  46.7954997  26.6929988
   2.7230012  47.6544997  25.5619988   2.1138496  47.4721394  26.1565300
  12.1900012  55.7224997  27.0329988  12.8100012  55.0454997  26.7589988
  11.9820012  55.5044997  27.9409988  12.2466904  55.6003870  27.1183365
   9.7620012  50.1114997  28.9249988  10.0660012  49.4254997  28.3299988
  10.4830012  50.2294997  29.5429988   9.9010671  50.0336305  28.9271816
  18.4250012  41.7124997  29.7859988  18.4740012  42.3224997  30.5219988
  18.8500012  42.1734997  29.0629988  18.4891824  41.8583741  29.7890205
  12.9030012  44.5054997  29.2529988  13.0450012  43.5594997  29.2729988
  12.7960012  44.7124997  28.3239988  12.9079864  44.4039534  29.1302339
   6.0570012  42.6064997  26.5249988   6.1010012  43.4664997  26.1069988
   5.6000012  42.0544997  25.8909988   6.0012185  42.6495799  26.3820299
  13.7800012  42.7374997  24.9259988  14.4260012  42.4084997  25.5509988
  14.2900012  43.2554997  24.3029988  13.9374264  42.7624611  24.9273862
   2.6780012  45.0034997  27.2869988   3.3310012  44.4534997  27.7189988
   2.7020012  44.7294997  26.3699988   2.7706683  44.8911466  27.2222123
   7.8340012  46.5534997  26.5019988   8.4500012  46.0274997  27.0119988
   7.2480012  45.9134997  26.0989988   7.8390810  46.3949208  26.5173173
  18.8160012  43.1904997  32.0219988  18.1280012  43.8484997  31.9259988
  18.8320012  42.9934997  32.9579988  18.7238525  43.2540462  32.1354808
   4.8680012  41.5244997  30.5989988   4.6490012  42.0544997  29.8329988
   4.2000012  41.7514997  31.2459988   4.7477600  41.6276906  30.5816379
  12.2370012  51.0244997  24.1429988  11.9410012  50.7024997  23.2919988
  11.9120012  51.9244997  24.1839988  12.1526371  51.1020215  24.0321801
   7.4370012  49.2004997  30.8859988   6.6970012  49.7984997  30.9899988
   8.1510012  49.7544997  30.5709988   7.4322237  49.3572831  30.8576465
  15.5440012  42.0284997  26.9059988  15.3280012  41.2624997  27.4389988
  16.1990012  42.5004997  27.4189988  15.6030632  41.9875889  27.0482861
   4.4610012  43.4164997  28.5509988   5.0750012  44.0494997  28.9249988
   4.9730012  42.9444997  27.8949988   4.6142296  43.4392370  28.5134252
   5.8440012  51.1644997  31.6739988   5.8390012  52.0444997  31.2959988
   4.9910012  51.0814997  32.0989988   5.7279464  51.2736117  31.6797907
   1.9650012  50.8354997  22.4559988   1.6930012  51.0644997  21.5669988
   2.0110012  51.6734997  22.9159988   1.9340094  50.9801213  22.3965697
  15.5900012  52.4574997  29.1679988  14.6490012  52.5154997  29.3299988
  15.8670012  53.3634997  29.0309988  15.4984679  52.5879443  29.1716815
  15.8910012  40.7434997  30.5859988  15.1550012  41.3544997  30.5479988
  16.5740012  41.1584997  30.0589988  15.8826541  40.8831374  30.5095832
   8.8940012  38.8304997  28.0519988   8.7770012  37.8814997  27.9969988
   8.0390012  39.1624997  28.3249988   8.7623733  38.7455409  28.0813897
  13.8420012  54.2384997  25.7939988  14.2680012  53.5314997  25.3089988
  14.1590012  55.0394997  25.3769988  13.9431019  54.2500994  25.6713130
  15.0020012  52.1394997  24.3019988  14.7440012  51.4494997  23.6909988
  15.0730012  51.6964997  25.1479988  14.9762856  51.9852124  24.3326885
  16.6880012  50.7054997  32.7799988  16.8280012  50.1144997  32.0399988
  16.8550012  51.5784997  32.4229988  16.7296778  50.7426426  32.6306965
  11.1610012  47.6674997  22.5519988  10.4490012  48.2024997  22.1999988
  11.8520012  47.7234997  21.8919988  11.1570132  47.7482543  22.4146289
  11.2140012  46.1254997  19.5909988  11.9150012  46.1474997  20.2419988
  11.5170012  45.4974997  18.9349988  11.3507830  46.0436566  19.5913711
  18.5300012  47.0454997  30.8459988  17.8770012  47.7404997  30.9349988
  18.9950012  47.2554997  30.0359988  18.5035390  47.1689425  30.7486883
  14.5660012  47.8774997  23.5039988  13.8340012  48.1054997  24.0769988
  15.0140012  47.1634997  23.9589988  14.5263095  47.8122571  23.6439119
  14.4640012  46.0514997  32.5709988  14.5440012  46.8144997  33.1429988
  13.8620012  46.3304997  31.8809988  14.3935756  46.1937134  32.5560589
   6.2120012  48.5074997  25.3859988   5.8810012  48.1374997  24.5679988
   6.8000012  47.8374997  25.7329988   6.2461873  48.3661156  25.3208102
   7.5780012  51.9354997  28.0679988   7.4840012  51.3574997  27.3109988
   8.3080012  51.5644997  28.5639988   7.6637981  51.8062390  28.0314165
   6.5780012  47.2764997  29.0199988   7.1440012  47.3974997  28.2569988
   6.8970012  47.9134997  29.6589988   6.6985786  47.3791884  29.0020040
  12.8870012  52.7794997  29.7539988  12.6470012  53.4414997  30.4019988
  12.6890012  51.9454997  30.1789988  12.8273808  52.7573134  29.9001524
   7.4580012  51.6754997  33.7369988   7.1470012  52.4574997  34.1919988
   6.8080012  51.5224997  33.0509988   7.3275558  51.7619105  33.7065871
  13.4370012  47.0394997  21.1889988  14.0170012  47.1894997  21.9359988
  13.8510012  47.5104997  20.4659988  13.5722830  47.1236841  21.1934134
   4.3780012  47.8734997  32.9659988   4.4490012  48.5244997  33.6639988
   3.4880012  47.9764997  32.6309988   4.2673117  47.9765936  33.0162700
  11.1640012  53.7764997  24.6239988  11.6380012  54.0714997  25.4019988
  10.6010012  54.5144997  24.3909988  11.1527653  53.9166932  24.6990136
   5.6980012  53.7474997  34.4999988   5.7050012  53.6114997  33.5529988
   4.7820012  53.6294997  34.7519988   5.5751714  53.7129430  34.4044666
  17.1360012  38.7894997  21.0019988  16.2360012  38.9284997  21.2969988
  17.3880012  39.6204997  20.5999988  17.0468702  38.9209074  20.9880205
   5.2020012  47.5774997  22.9759988   4.9100012  48.3454997  22.4849988
   4.5280012  46.9174997  22.8129988   5.0709081  47.5934406  22.8867340
  18.3250012  53.1554997  19.3779988  18.3990012  54.0944997  19.5489988
  19.2310012  52.8504997  19.3219988  18.4575100  53.2426722  19.3938119
   1.2950012  49.9404997  31.7909988   0.7940012  49.9124997  30.9759988
   1.3000012  49.0344997  32.0999988   1.2271526  49.8142278  31.7212872
   1.0450012  52.7204997  28.6749988   1.9910012  52.5764997  28.6559988
   0.9330012  53.5044997  29.2119988   1.1592727  52.8068046  28.7450072
  19.2430012  53.3864997  34.3569988  19.1940012  52.4314997  34.3199988
  18.4160012  53.6544997  34.7579988  19.1244940  53.2918998  34.4061375
  10.2220012  52.9604997  33.2329988  10.3090012  53.7864997  33.7079988
   9.3580012  52.6304997  33.4819988  10.1171964  53.0289878  33.3316549
  10.6360012  56.7324997  23.0389988  10.5610012  56.6114997  22.0929988
  10.6690012  57.6824997  23.1579988  10.6301848  56.8442500  22.9254834
   4.2890012  55.5214997  24.8199988   4.4420012  55.1734997  25.6989988
   3.4390012  55.1654997  24.5649988   4.1948962  55.4256650  24.9058340
  13.7380012  55.8864997  20.0409988  14.1130012  55.1424997  19.5709988
  13.7420012  55.6164997  20.9599988  13.7898915  55.7481486  20.1007824
  13.4070012  55.8124997  22.7909988  12.4710012  55.9124997  22.9689988
  13.6870012  55.1034997  23.3689988  13.3168255  55.7302711  22.8935391
  16.3950012  44.8794997  34.8369988  15.9880012  45.3604997  34.1159988
  16.4360012  43.9744997  34.5289988  16.3448437  44.8229374  34.6966683
   3.5440012  51.2634997  32.8339988   3.7600012  50.9024997  33.6929988
   2.6890012  50.8894997  32.6239988   3.4579292  51.1634111  32.9233386
   6.1630012  39.7334997  28.8289988   5.3010012  39.6464997  28.4219988
   6.1400012  40.5894997  29.2569988   6.0420330  39.8372765  28.8311863
  10.8260012  39.4554997  32.2039988  11.2460012  39.0404997  32.9569988
   9.8930012  39.2774997  32.3209988  10.7573644  39.3745900  32.3229539
  14.1520012  43.2114997  33.0569988  13.6380012  43.0854997  33.8549988
  13.9970012  44.1234997  32.8129988  14.0606852  43.3176132  33.1332158
  14.9150012  48.0724997  18.8189988  14.9570012  47.8494997  17.8889988
  15.7640012  48.4714997  19.0089988  15.0355396  48.0959155  18.7173627
  10.4870012  41.9484997  19.4889988  10.2340012  41.9674997  20.4119988
  10.2310012  41.0764997  19.1879988  10.4177790  41.8332437  19.5746263
   6.2540012  44.6994997  29.9239988   5.6120012  44.6584997  30.6329988
   6.2910012  45.6254997  29.6869988   6.1711324  44.8191559  29.9889824
   6.2510012  44.9204997  24.8359988   5.3580012  44.5794997  24.7779988
   6.7010012  44.5434997  24.0809988   6.1897305  44.8228484  24.7259177
  11.7860012  45.3364997  23.6529988  11.3770012  46.1514997  23.3619988
  12.5070012  45.1964997  23.0389988  11.8274537  45.4292018  23.5301342
  10.8880012  45.5114997  35.1409988  10.3260012  44.8074997  35.4619988
  11.7150012  45.3914997  35.6089988  10.9227095  45.3987883  35.2482330
  12.7910012  44.7824997  26.4669988  12.5960012  45.3874997  25.7519988
  12.9720012  43.9484997  26.0329988  12.7887614  44.7526300  26.3104405
   4.0040012  45.0194997  31.7909988   3.9660012  45.4194997  32.6599988
   3.5130012  44.2024997  31.8819988   3.9324684  44.9638069  31.9221059
   7.3700012  42.3934997  18.5899988   6.9390012  41.9484997  19.3199988
   6.6520012  42.7654997  18.0779988   7.2139438  42.3828940  18.6206799
   0.6120012  42.1354997  25.6419988   1.2430012  42.1064997  26.3609988
   1.0610012  41.7104997  24.9119988   0.7590774  42.0740492  25.6416553
   1.8860012  42.8814997  21.0659988   2.3600012  43.4724997  20.4809988
   1.1690012  43.4124997  21.4129988   1.8539341  43.0340867  21.0328836
  12.0550012  46.4204997  31.1389988  12.3780012  45.7894997  30.4959988
  11.6150012  45.8854997  31.7989988  12.0396895  46.2618441  31.1402850
   8.8320012  42.3474997  25.9229988   7.9210012  42.4044997  26.2109988
   9.3380012  42.2874997  26.7329988   8.7755413  42.3471985  26.0720622
   3.6610012  43.9764997  24.7489988   2.7710012  44.0764997  24.4089988
   3.9570012  43.1344997  24.4029988   3.5792823  43.8763545  24.6557213
   7.3140012  43.9764997  22.4059988   8.2450012  44.1054997  22.5839988
   7.0990012  44.6464997  21.7559988   7.4124247  44.0846565  22.3425747
  13.2370012  41.5824997  29.1869988  12.5610012  41.7134997  29.8509988
  12.7520012  41.4274997  28.3769988  13.0787145  41.5794905  29.1684517
   5.9880012  45.1714997  19.9729988   5.4450012  44.7914997  19.2809988
   6.8210012  45.3654997  19.5439988   6.0264399  45.1458124  19.8204526
  16.5250012  57.2544997  35.4639988  16.7250012  57.6784997  34.6289988
  17.1800012  57.5974997  36.0709988  16.6410051  57.3589648  35.4317836
   4.1230012  49.7284997  35.0719988   4.8550012  49.9824997  35.6329988
   3.3430012  49.9324997  35.5869988   4.1178232  49.7909177  35.2185760
  10.1520012  45.1354997  27.8099988  10.7170012  44.5884997  27.2629988
  10.0050012  44.6134997  28.5979988  10.2092918  44.9902024  27.8418454
   5.1540012  41.2714997  24.2279988   4.8370012  40.3694997  24.1929988
   5.9360012  41.2734997  23.6749988   5.2162284  41.1481628  24.1484783
   8.7790012  43.5234997  30.2239988   7.9430012  43.9774997  30.3339988
   9.3030012  43.7994997  30.9759988   8.7354414  43.6229376  30.3407136
   9.3230012  49.7364997  21.9079988   8.5780012  49.2294997  21.5859988
   9.1890012  49.7854997  22.8549988   9.2028776  49.6736940  21.9918647
  16.4730012  48.8694997  30.6949988  17.1150012  49.3264997  30.1509988
  15.6430012  48.9824997  30.2319988  16.4485963  48.9472704  30.5580177
  13.2210012  42.5504997  20.1079988  12.2820012  42.6624997  19.9559988
  13.5180012  43.4074997  20.4139988  13.1327666  42.6816443  20.1285768
  10.8420012  49.9204997  33.1449988  10.4970012  49.5394997  33.9519988
  10.6420012  50.8544997  33.2169988  10.7678061  49.9945228  33.2650961
  13.9390012  44.4174997  21.7679988  14.8310012  44.2804997  22.0869988
  13.9960012  45.2084997  21.2319988  14.0686285  44.5056660  21.7391691
   4.4480012  49.0314997  27.6779988   5.1930012  49.0294997  27.0769988
   4.5260012  48.2084997  28.1599988   4.5605518  48.9199315  27.6608929
  11.4490012  51.1954997  20.9339988  11.1530012  52.0214997  21.3149988
  10.7460012  50.5754997  21.1299988  11.3134914  51.2248199  21.0126443
   1.4560012  47.4924997  32.9929988   1.6790012  47.0744997  33.8249988
   0.8540012  46.8794997  32.5699988   1.4051759  47.3524668  33.0497022
   8.4720012  47.0094997  35.2059988   8.1760012  46.8434997  34.3109988
   9.4040012  46.7894997  35.1949988   8.5574166  46.9570640  35.0820536
  13.0930012  52.3824997  33.0959988  12.1920012  52.5654997  32.8279988
  13.1270012  52.6414997  34.0169988  12.9743041  52.4425512  33.1838197
  18.8240012  44.6274997  21.4629988  18.2700012  44.2314997  20.7909988
  18.9240012  45.5374997  21.1849988  18.7617059  44.6963586  21.3334401
  18.7870012  50.4274997  34.2999988  17.9360012  50.6654997  33.9329988
  19.3780012  50.4104997  33.5469988  18.7502487  50.4578258  34.1478893
  17.1190012  53.4134997  21.9279988  16.7460012  52.5874997  22.2369988
  17.3970012  53.2304997  21.0309988  17.1055630  53.2757303  21.8489626
  14.2800012  48.2214997  28.9489988  13.3510012  47.9894997  28.9219988
  14.7310012  47.4444997  28.6189988  14.2139216  48.0847238  28.9006917
   6.8230012  52.5494997  25.0819988   7.3500012  53.3224997  24.8819988
   5.9430012  52.7744997  24.7809988   6.7761773  52.6858005  25.0139010
   2.5780012  47.4114997  19.6689988   3.1940012  48.0384997  20.0489988
   1.7160012  47.7274997  19.9409988   2.5457698  47.5399430  19.7577183
   8.2500012  50.2124997  24.6589988   8.0090012  51.1374997  24.6999988
   7.5090012  49.7534997  25.0549988   8.1168409  50.2771421  24.7181377
   8.7650012  54.3614997  30.9739988   9.1270012  55.2164997  30.7399988
   9.2960012  54.0694997  31.7139988   8.8864473  54.4391060  31.0420855
   6.9330012  55.2344997  24.2039988   5.9830012  55.3394997  24.2549988
   7.2850012  56.0544997  24.5489988   6.8504203  55.3598314  24.2576650
  12.3090012  50.4604997  30.6739988  11.8830012  50.2334997  31.5009988
  12.8890012  49.7224997  30.4919988  12.3291868  50.3295299  30.7625830
  14.5120012  51.3894997  19.7479988  14.8650012  51.0094997  20.5529988
  13.5630012  51.2964997  19.8349988  14.4320441  51.3249596  19.8698559
  14.9670012  55.0124997  33.1439988  14.3660012  54.4574997  32.6479988
  15.2490012  55.6794997  32.5179988  14.9228519  55.0266841  32.9914952
  19.0150012  55.8694997  19.9489988  19.7590012  56.4554997  19.8089988
  18.3210012  56.4374997  20.2829988  19.0230292  56.0265582  19.9749961
   3.0900012  42.2454997  32.5509988   2.1970012  42.5844997  32.4829988
   2.9910012  41.3904997  32.9689988   2.9544164  42.1762588  32.5982235
  15.3780012  50.0624997  21.9749988  15.1000012  49.3344997  22.5309988
  16.3050012  50.1814997  22.1799988  15.4653124  49.9788802  22.0788845
   2.7410012  54.0504997  30.9859988   2.9580012  53.1184997  30.9549988
   2.9870012  54.3244997  31.8689988   2.8039549  53.9600636  31.1011763
   8.6030012  52.5014997  18.1949988   8.8420012  51.7534997  17.6479988
   8.3340012  52.1134997  19.0279988   8.5993675  52.3466638  18.2326865
   7.5400012  52.0714997  20.6519988   7.6860012  51.5514997  21.4419988
   7.5370012  52.9784997  20.9579988   7.5595989  52.1228853  20.8016088
   3.9930012  49.3244997  21.1619988   3.3070012  49.6764997  21.7289988
   4.5150012  50.0874997  20.9149988   3.9696852  49.4758578  21.2062118
  11.8240012  41.9864997  31.4409988  12.5230012  42.0604997  32.0909988
  11.4430012  41.1224997  31.5949988  11.8681767  41.8797624  31.5508322
  12.6090012  41.6384997  22.5379988  12.8290012  42.1104997  21.7349988
  13.1670012  42.0334997  23.2079988  12.7144968  41.7564285  22.5187331
  10.2770012  53.7694997  21.4009988   9.4610012  54.2664997  21.4529988
  10.8070012  54.2444997  20.7609988  10.2369161  53.9017722  21.3215956
   9.8090012  43.3664997  23.3729988  10.6210012  43.8714997  23.4189988
   9.5640012  43.2214997  24.2869988   9.8870520  43.4160375  23.5028517
  10.3440012  44.3524997  32.5579988  10.4630012  44.9264997  33.3149988
  11.0000012  43.6644997  32.6719988  10.4489757  44.3381079  32.6770825
  10.6920012  40.4474997  24.3109988  10.3460012  41.0654997  24.9559988
  11.3510012  40.9484997  23.8299988  10.7337826  40.5995802  24.3340971
   7.6160012  54.8134997  21.3829988   7.7760012  55.6124997  20.8819988
   7.4180012  55.1194997  22.2679988   7.6111649  54.9644469  21.4339815
   6.3500012  41.5104997  20.9979988   6.2670012  42.3994997  21.3449988
   7.2400012  41.2454997  21.2299988   6.4589469  41.5961430  21.0767626
  16.5490012  42.2594997  33.3929988  15.6320012  42.5224997  33.3049988
  16.8840012  42.2564997  32.4959988  16.4689900  42.2950224  33.2597919
  15.1510012  46.0104997  27.4879988  14.3530012  45.5954997  27.1599988
  15.5960012  45.3194997  27.9789988  15.1019885  45.8603543  27.5094889
   4.6090012  51.9384997  20.0589988   5.2010012  52.6374997  20.3349988
   5.0680012  51.5054997  19.3389988   4.7521142  51.9757049  19.9994830
   2.9250012  44.6024997  19.1749988   2.8800012  45.5414997  19.3529988
   2.0370012  44.3664997  18.9049988   2.7988574  44.6991892  19.1628912
  16.2370012  55.2664997  29.1109988  16.0820012  55.9444997  28.4539988
  17.1700012  55.3384997  29.3139988  16.3418500  55.3690170  29.0485119
   3.7330012  39.3844997  27.8479988   3.5040012  39.4434997  26.9199988
   3.2900012  38.5924997  28.1539988   3.6418530  39.2855753  27.7624786
   2.6630012  53.3244997  24.0079988   1.8310012  53.7974997  24.0359988
   3.2090012  53.8344997  23.4099988   2.6229739  53.4581871  23.9309716
   1.9510012  55.9374997  35.3379988   2.4920012  55.7204997  36.0979988
   1.4700012  55.1314997  35.1489988   1.9599345  55.7989514  35.4163076
   6.5490012  54.8564997  36.9589988   7.3160012  54.3974997  37.2999988
   6.5270012  54.6304997  36.0289988   6.6511434  54.7630409  36.8800043
  10.6410012  54.3644997  18.3339988   9.9970012  53.7334997  18.6549988
  11.4030012  53.8334997  18.1019988  10.6558077  54.2062920  18.3466011
  13.1260012  53.2364997  35.6879988  12.7750012  52.3804997  35.9309988
  13.8520012  53.3794997  36.2949988  13.1760769  53.1385636  35.8033619
  15.2450012  54.1814997  18.5679988  15.5280012  53.3874997  19.0199988
  15.9850012  54.4144997  18.0069988  15.3837486  54.1042803  18.5540698
   1.8580012  49.7474997  36.2929988   2.0020012  48.8454997  36.0059988
   1.0860012  50.0334997  35.8049988   1.7733322  49.6628261  36.1877881
   6.2000012  50.0914997  18.4249988   6.2640012  49.2974997  18.9559988
   6.8530012  49.9724997  17.7349988   6.2970241  49.9667148  18.4044317
   8.5140012  49.7174997  35.7249988   8.1850012  49.9884997  34.8679988
   8.6660012  48.7764997  35.6379988   8.4894809  49.6273862  35.5958244
  11.5520012  51.1384997  18.1609988  11.2830012  51.3184997  19.0619988
  11.3460012  50.2124997  18.0299988  11.4873825  51.0380152  18.2665214
  14.2480012  49.6334997  33.1089988  14.9940012  50.2214997  32.9889988
  13.4910012  50.2154997  33.1719988  14.2477554  49.7927011  33.1010907
   2.6910012  46.9474997  35.7129988   3.0990012  46.0904997  35.5919988
   2.4310012  46.9624997  36.6339988   2.7117568  46.8320807  35.8209588
   7.3490012  48.0634997  20.7309988   6.8890012  47.5794997  21.4169988
   7.6040012  47.3954997  20.0949988   7.3204902  47.9068731  20.7389334
   6.6380012  45.9564997  33.0869988   6.0200012  46.6314997  33.3669988
   6.9820012  46.2774997  32.2539988   6.5999615  46.0922721  33.0126581
   8.4200012  46.3064997  18.9929988   8.2400012  46.1524997  18.0659988
   9.3700012  46.4144997  19.0379988   8.5237776  46.3000175  18.8721843
  11.6580012  48.4284997  36.3639988  12.6110012  48.5114997  36.3369988
  11.4970012  47.7164997  36.9839988  11.7666426  48.3436746  36.4440579
  17.8100012  48.6614997  18.4389988  17.5360012  48.2364997  17.6259988
  17.8490012  49.5924997  18.2219988  17.7777699  48.7292484  18.2983610
   6.9770012  43.3114997  34.1689988   7.1270012  42.5824997  33.5669988
   6.9800012  44.0884997  33.6099988   6.9979302  43.3167851  34.0110692
   7.3900012  41.6814997  31.6619988   7.9260012  42.1324997  31.0099988
   6.5380012  41.5734997  31.2389988   7.3482178  41.7286390  31.5155756
   8.9720012  47.1204997  31.9009988   9.7220012  46.9644997  31.3279988
   8.6330012  47.9724997  31.6259988   9.0288921  47.2142968  31.7853561
  13.3870012  44.9354997  36.9299988  13.5800012  44.0044997  36.8179988
  14.2450012  45.3604997  36.9199988  13.5293020  44.8656389  36.9133361
  14.7040012  47.7244997  35.0069988  14.4230012  48.4334997  34.4299988
  15.6470012  47.6514997  34.8559988  14.7929027  47.8117646  34.9075551
   5.4560012  44.5094997  36.0809988   4.6890012  43.9774997  35.8709988
   6.1350012  44.1994997  35.4809988   5.4427022  44.3947506  35.9711648
   8.1960012  39.1374997  32.0929988   8.0970012  40.0844997  31.9879988
   7.4530012  38.7654997  31.6179988   8.0820563  39.2165902  32.0144560
   9.4600012  43.4594997  35.6569988   9.2240012  43.2394997  36.5589988
   8.6760012  43.2524997  35.1469988   9.3218628  43.4014760  35.7113932
  12.1750012  42.5864997  34.7329988  11.2280012  42.6184997  34.8649988
  12.4880012  41.9614997  35.3859988  12.0875475  42.5063207  34.8394455
  13.8090012  41.2204997  36.7379988  13.7130012  40.2684997  36.7319988
  13.4880012  41.4894997  37.5979988  13.7524070  41.1264035  36.8535441
   3.6360012  42.4304997  35.7849988   3.8480012  41.7234997  35.1749988
   3.5250012  41.9924997  36.6289988   3.6499721  42.2747084  35.8156843
   8.4170012  38.4314997  34.7649988   9.1290012  37.7914997  34.7509988
   8.3160012  38.6984997  33.8509988   8.5007939  38.3799938  34.6395650
   8.7710012  40.1144997  36.8179988   8.6390012  39.6384997  35.9979988
   8.1720012  40.8584997  36.7629988   8.6719071  40.1499618  36.6982886
   8.3170012  56.9974997  19.9949988   9.2500012  57.1554997  20.1379988
   8.0530012  57.6724997  19.3699988   8.4089510  57.1103611  19.9300741
   1.8860012  51.6334997  19.4769988   2.8000012  51.7124997  19.7509988
   1.8930012  50.9464997  18.8109988   2.0121131  51.5513961  19.4244393
   0.5350012  57.0264997  24.5549988  -0.1119988  56.5644997  24.0219988
   0.8890012  56.3544997  25.1369988   0.4943849  56.8724723  24.5607959
   1.4050012  55.1074997  26.3589988   1.0700012  54.2274997  26.5309988
   1.6270012  55.4524997  27.2239988   1.3891783  55.0337500  26.4994208
  18.9530012  55.9164997  29.3399988  18.9320012  56.1014997  30.2789988
  19.6440012  56.4854997  28.9989988  19.0434618  56.0186606  29.4223864
  18.5170012  55.4844997  32.2619988  18.0290012  54.7484997  31.8909988
  19.0660012  55.0904997  32.9399988  18.5244872  55.3306249  32.3029160
  16.9670012  51.2734997  36.8999988  16.1010012  51.1684997  37.2939988
  17.3440012  52.0324997  37.3459988  16.8993308  51.3616900  37.0142393
  18.2680012  49.5304997  22.4139988  19.1180012  49.9514997  22.5409988
  18.2740012  48.7904997  23.0209988  18.3851372  49.4880803  22.5134344
  18.6630012  47.5834997  24.2379988  17.9360012  47.1044997  24.6349988
  19.2440012  47.7894997  24.9699988  18.6419375  47.5457090  24.3914129
  18.4220012  50.3684997  29.1849988  19.2550012  49.9904997  28.9049988
  18.5340012  51.3114997  29.0659988  18.5512647  50.4442218  29.1305487
  16.9080012  53.2464997  31.4919988  16.2610012  53.5714997  32.1179988
  16.3910012  52.8064997  30.8179988  16.7494029  53.2315004  31.4865827
  18.9310012  47.4844997  20.6289988  18.4090012  47.8414997  19.9099988
  18.8980012  48.1594997  21.3069988  18.8551634  47.6245413  20.6223145
  17.2800012  44.7244997  19.1799988  17.3760012  45.3914997  18.4989988
  17.1400012  43.9084997  18.6979988  17.2742135  44.7054500  19.0218491
  16.4490012  46.1044997  24.8009988  16.2990012  45.1594997  24.7799988
  16.0960012  46.3854997  25.6439988  16.3806625  46.0130441  24.9122346
   1.4850012  48.1824997  28.8109988   1.6690012  48.1004997  27.8749988
   2.3340012  48.0584997  29.2349988   1.6250139  48.1545003  28.7401455
  17.3060012  48.0744997  34.4389988  17.8890012  47.3404997  34.6309988
  17.8700012  48.8464997  34.4859988  17.4619769  48.0784227  34.4716159
  18.8020012  45.9774997  35.1239988  17.9390012  45.5984997  34.9579988
  19.4070012  45.2384997  35.0499988  18.7655979  45.8258023  35.0912817
  16.5270012  42.1324997  18.2969988  17.1380012  41.7614997  18.9339988
  15.6910012  41.7114997  18.4929988  16.4975032  42.0247554  18.4107035
  16.1600012  43.6874997  23.2629988  16.4400012  42.7804997  23.3869988
  16.9190012  44.1214997  22.8739988  16.3009277  43.6220942  23.2273682
  16.7720012  44.2684997  28.6989988  17.7050012  44.4804997  28.6649988
  16.5370012  44.3704997  29.6209988  16.8678036  44.3112769  28.8189976
  16.8010012  45.0054997  31.4749988  15.9580012  45.2734997  31.8409988
  17.2430012  45.8274997  31.2639988  16.7454158  45.1533291  31.4965491
   1.0820012  43.4534997  34.9519988   2.0020012  43.3314997  35.1879988
   0.6330012  42.7034997  35.3409988   1.1471580  43.3353727  35.0369006
  19.0840012  38.9854997  36.8279988  19.4340012  38.3314997  36.2229988
  19.2310012  39.8224997  36.3889988  19.1518419  39.0091591  36.6857118
  16.7730012  40.9504997  23.3109988  16.9560012  40.5014997  24.1369988
  16.1740012  40.3654997  22.8479988  16.7170202  40.8099975  23.3613275
   2.3030012  41.7654997  27.8429988   2.7490012  40.9734997  28.1449988
   2.7700012  42.4814997  28.2739988   2.4270172  41.7540624  27.9424820
   0.6070012  44.7644997  28.9119988   1.0990012  44.5434997  28.1209988
   0.9700012  45.6054997  29.1929988   0.7233126  44.8478357  28.8417531
  18.6040012  41.0944997  35.1779988  17.6860012  41.3654997  35.1419988
  18.7270012  40.5594997  34.3929988  18.4951066  41.0592892  35.0670487
  18.6400012  41.0174997  19.8389988  19.0520012  40.2964997  19.3639988
  19.3220012  41.6874997  19.8979988  18.7885885  41.0092368  19.7818915
   0.9210012  41.0224997  22.9659988  -0.0039988  41.2314997  22.8369988
   1.3750012  41.5064997  22.2769988   0.8557368  41.1165993  22.8551226
  15.6920012  56.0064997  24.9119988  16.3440012  55.6594997  24.3039988
  16.2020012  56.4954997  25.5579988  15.8502637  56.0250597  24.9160236
   0.8850012  39.7604997  31.3109988   0.2200012  39.5144997  31.9539988
   0.4420012  40.3824997  30.7329988   0.7340956  39.8108632  31.3209352
   3.0770012  52.9354997  35.4549988   2.2560012  53.1104997  34.9949988
   2.8240012  52.8624997  36.3759988   2.9306164  52.9495622  35.5164923
   6.0310012  53.9104997  31.7139988   5.6060012  54.7194997  31.4309988
   6.9350012  53.9954997  31.4119988   6.0950271  54.0328469  31.6343776
  10.3420012  55.3094997  34.6729988  10.5270012  54.9754997  35.5509988
  11.1880012  55.6184997  34.3509988  10.4817539  55.3056047  34.7495605
  12.6870012  56.5954997  33.9169988  13.3640012  55.9624997  33.6769988
  13.0090012  56.9964997  34.7239988  12.8231637  56.5631154  33.9932793
  17.6040012  39.1844997  32.9969988  16.7920012  39.5094997  32.6089988
  17.8370012  38.4244997  32.4639988  17.5243423  39.1262436  32.8718253
   3.4330012  57.1664997  31.7609988   2.7120012  57.6064997  31.3099988
   3.0670012  56.9154997  32.6099988   3.2849804  57.1927698  31.8139840
   5.9000012  56.7664997  30.7909988   5.0350012  56.8384997  31.1949988
   5.8450012  57.3134997  30.0069988   5.7742085  56.8502685  30.7403362
  10.6100012  56.6544997  29.9659988  10.1540012  57.1834997  29.3119988
  10.7730012  57.2574997  30.6919988  10.5695585  56.8084468  29.9745062
  12.9380012  55.5324997  30.9109988  12.0330012  55.6974997  30.6459988
  13.3670012  56.3854997  30.8459988  12.8720799  55.6704483  30.8659182
  15.5420012  57.1024997  31.2059988  15.3600012  58.0184997  30.9959988
  15.7190012  56.6924997  30.3599988  15.5410210  57.1724822  31.0627885
   2.8470012  55.7894997  28.6709988   2.8290012  55.3644997  29.5289988
   3.6520012  55.4714997  28.2629988   2.9533875  55.6883812  28.7331655
   4.9890012  54.4994997  27.3259988   4.7700012  53.5834997  27.4959988
   5.8130012  54.6394997  27.7919988   5.0704420  54.3930520  27.4122774
   7.5260012  54.9694997  28.1749988   7.7390012  54.0814997  27.8879988
   7.5900012  54.9354997  29.1289988   7.5638231  54.8433102  28.2647397
  11.0340012  40.6334997  27.3189988  10.3600012  40.0044997  27.5749988
  11.5980012  40.1494997  26.7159988  11.0179230  40.4818744  27.2725340
  16.1770012  38.7414997  27.4319988  16.7810012  39.2884997  26.9299988
  15.3070012  39.0604997  27.1919988  16.1421241  38.8595806  27.3307654
  17.9040012  39.8794997  25.7649988  18.5160012  39.3654997  25.2389988
  18.2860012  40.7574997  25.7889988  18.0394540  39.9277140  25.6961830
   3.3610012  39.2674997  25.1409988   2.5840012  39.0334997  24.6339988
   3.8910012  38.4704997  25.1499988   3.3262330  39.1276988  25.0727742
   2.1970012  39.0654997  20.9449988   2.6360012  39.6764997  20.3529988
   1.5640012  39.6034997  21.4189988   2.1714514  39.2219257  20.9280930
   7.9400012  39.1944997  24.9549988   8.8150012  39.5824997  24.9249988
   7.8040012  38.9794997  25.8769988   8.0413695  39.2185184  25.0756440
  13.4970012  39.2244997  26.6039988  13.5730012  39.3194997  25.6539988
  13.2220012  38.3164997  26.7329988  13.4702321  39.1147867  26.4915079
  14.8500012  39.2504997  22.2959988  14.1480012  39.8654997  22.0869988
  14.4060012  38.4124997  22.4269988  14.6936330  39.2215783  22.2850328
   2.0980012  55.0134997  21.8429988   1.4130012  54.9754997  21.1749988
   2.1020012  55.9264997  22.1309988   2.0048193  55.1317016  21.7905284
   4.0580012  40.9814997  19.3869988   4.5500012  40.3514997  18.8599988
   4.6820012  41.2774997  20.0509988   4.2095446  40.9353199  19.4045980
   9.0840012  41.2744997  21.8439988   9.2620012  40.6284997  22.5269988
   9.0310012  42.1084997  22.3119988   9.1011829  41.2987985  22.0005940
  10.9630012  56.2234997  20.2399988  11.8290012  56.5894997  20.0619988
  10.7160012  55.7834997  19.4259988  11.0482392  56.2141756  20.1056289
  17.6720012  55.7864997  22.9189988  17.4770012  55.0384997  22.3539988
  17.6330012  56.5444997  22.3359988  17.6400380  55.7866099  22.7628384
   3.3190012  39.7814997  34.6589988   2.9530012  39.0164997  35.1019988
   4.2320012  39.8104997  34.9459988   3.3922790  39.6807224  34.7584070
   5.2920012  39.1324997  36.1949988   6.1900012  38.8584997  36.0099988
   4.9050012  38.3894997  36.6589988   5.3626612  38.9945914  36.2323643
   3.9160012  55.9334997  18.8679988   3.6490012  56.2204997  19.7409988
   4.6880012  55.3874997  19.0199988   3.9837488  55.8990294  19.0081050
  13.7130012  38.4644997  36.3769988  13.7900012  38.0384997  37.2309988
  14.6070012  38.4784997  36.0339988  13.8443428  38.4080879  36.4475310
  16.8890012  54.5374997  35.0689988  16.1070012  54.3514997  34.5499988
  16.8170012  55.4664997  35.2869988  16.7721777  54.6376492  35.0274048
  31.2950012  48.4234997  25.0999988  31.3840012  49.3674997  24.9679988
  30.6570012  48.1484997  24.4419988  31.2209081  48.5154830  24.9929614
  30.2280012  47.6784997  28.5189988  30.1900012  47.0324997  29.2239988
  29.9060012  47.2124997  27.7479988  30.1792333  47.5269408  28.5112978
  22.5970012  47.2934997  30.1119988  22.6380012  46.6674997  30.8349988
  23.3000012  47.9174997  30.2939988  22.6976363  47.2921196  30.2356044
  33.9340012  50.6174997  26.8199988  33.4940012  49.8974997  27.2709988
  33.9210012  51.3384997  27.4499988  33.8720226  50.6163731  26.9668494
  23.5200012  51.7434997  28.6469988  23.1510012  50.9414997  28.2769988
  24.4610012  51.5744997  28.6929988  23.5967289  51.6110153  28.6026316
  20.1300012  45.4034997  24.0399988  19.6830012  46.2494997  24.0209988
  19.5690012  44.8234997  23.5239988  19.9929900  45.4409916  23.9676801
  20.8410012  47.5654997  26.1659988  21.0540012  46.7954997  26.6929988
  21.5790012  47.6544997  25.5619988  20.9698496  47.4721394  26.1565300
  31.0460012  55.7224997  27.0329988  31.6660012  55.0454997  26.7589988
  30.8380012  55.5044997  27.9409988  31.1026904  55.6003870  27.1183365
  28.6180012  50.1114997  28.9249988  28.9220012  49.4254997  28.3299988
  29.3390012  50.2294997  29.5429988  28.7570671  50.0336305  28.9271816
  37.2810012  41.7124997  29.7859988  37.3300012  42.3224997  30.5219988
  37.7060012  42.1734997  29.0629988  37.3451824  41.8583741  29.7890205
  31.7590012  44.5054997  29.2529988  31.9010012  43.5594997  29.2729988
  31.6520012  44.7124997  28.3239988  31.7639864  44.4039534  29.1302339
  24.9130012  42.6064997  26.5249988  24.9570012  43.4664997  26.1069988
  24.4560012  42.0544997  25.8909988  24.8572185  42.6495799  26.3820299
  32.6360012  42.7374997  24.9259988  33.2820012  42.4084997  25.5509988
  33.1460012  43.2554997  24.3029988  32.7934264  42.7624611  24.9273862
  21.5340012  45.0034997  27.2869988  22.1870012  44.4534997  27.7189988
  21.5580012  44.7294997  26.3699988  21.6266683  44.8911466  27.2222123
  26.6900012  46.5534997  26.5019988  27.3060012  46.0274997  27.0119988
  26.1040012  45.9134997  26.0989988  26.6950810  46.3949208  26.5173173
  37.6720012  43.1904997  32.0219988  36.9840012  43.8484997  31.9259988
  37.6880012  42.9934997  32.9579988  37.5798525  43.2540462  32.1354808
  23.7240012  41.5244997  30.5989988  23.5050012  42.0544997  29.8329988
  23.0560012  41.7514997  31.2459988  23.6037600  41.6276906  30.5816379
  31.0930012  51.0244997  24.1429988  30.7970012  50.7024997  23.2919988
  30.7680012  51.9244997  24.1839988  31.0086371  51.1020215  24.0321801
  26.2930012  49.2004997  30.8859988  25.5530012  49.7984997  30.9899988
  27.0070012  49.7544997  30.5709988  26.2882237  49.3572831  30.8576465
  34.4000012  42.0284997  26.9059988  34.1840012  41.2624997  27.4389988
  35.0550012  42.5004997  27.4189988  34.4590632  41.9875889  27.0482861
  23.3170012  43.4164997  28.5509988  23.9310012  44.0494997  28.9249988
  23.8290012  42.9444997  27.8949988  23.4702296  43.4392370  28.5134252
  24.7000012  51.1644997  31.6739988  24.6950012  52.0444997  31.2959988
  23.8470012  51.0814997  32.0989988  24.5839464  51.2736117  31.6797907
  20.8210012  50.8354997  22.4559988  20.5490012  51.0644997  21.5669988
  20.8670012  51.6734997  22.9159988  20.7900094  50.9801213  22.3965697
  34.4460012  52.4574997  29.1679988  33.5050012  52.5154997  29.3299988
  34.7230012  53.3634997  29.0309988  34.3544679  52.5879443  29.1716815
  34.7470012  40.7434997  30.5859988  34.0110012  41.3544997  30.5479988
  35.4300012  41.1584997  30.0589988  34.7386541  40.8831374  30.5095832
  27.7500012  38.8304997  28.0519988  27.6330012  37.8814997  27.9969988
  26.8950012  39.1624997  28.3249988  27.6183733  38.7455409  28.0813897
  32.6980012  54.2384997  25.7939988  33.1240012  53.5314997  25.3089988
  33.0150012  55.0394997  25.3769988  32.7991019  54.2500994  25.6713130
  33.8580012  52.1394997  24.3019988  33.6000012  51.4494997  23.6909988
  33.9290012  51.6964997  25.1479988  33.8322856  51.9852124  24.3326885
  35.5440012  50.7054997  32.7799988  35.6840012  50.1144997  32.0399988
  35.7110012  51.5784997  32.4229988  35.5856778  50.7426426  32.6306965
  30.0170012  47.6674997  22.5519988  29.3050012  48.2024997  22.1999988
  30.7080012  47.7234997  21.8919988  30.0130132  47.7482543  22.4146289
  30.0700012  46.1254997  19.5909988  30.7710012  46.1474997  20.2419988
  30.3730012  45.4974997  18.9349988  30.2067830  46.0436566  19.5913711
  37.3860012  47.0454997  30.8459988  36.7330012  47.7404997  30.9349988
  37.8510012  47.2554997  30.0359988  37.3595390  47.1689425  30.7486883
  33.4220012  47.8774997  23.5039988  32.6900012  48.1054997  24.0769988
  33.8700012  47.1634997  23.9589988  33.3823095  47.8122571  23.6439119
  33.3200012  46.0514997  32.5709988  33.4000012  46.8144997  33.1429988
  32.7180012  46.3304997  31.8809988  33.2495756  46.1937134  32.5560589
  25.0680012  48.5074997  25.3859988  24.7370012  48.1374997  24.5679988
  25.6560012  47.8374997  25.7329988  25.1021873  48.3661156  25.3208102
  26.4340012  51.9354997  28.0679988  26.3400012  51.3574997  27.3109988
  27.1640012  51.5644997  28.5639988  26.5197981  51.8062390  28.0314165
  25.4340012  47.2764997  29.0199988  26.0000012  47.3974997  28.2569988
  25.7530012  47.9134997  29.6589988  25.5545786  47.3791884  29.0020040
  31.7430012  52.7794997  29.7539988  31.5030012  53.4414997  30.4019988
  31.5450012  51.9454997  30.1789988  31.6833808  52.7573134  29.9001524
  26.3140012  51.6754997  33.7369988  26.0030012  52.4574997  34.1919988
  25.6640012  51.5224997  33.0509988  26.1835558  51.7619105  33.7065871
  32.2930012  47.0394997  21.1889988  32.8730012  47.1894997  21.9359988
  32.7070012  47.5104997  20.4659988  32.4282830  47.1236841  21.1934134
  23.2340012  47.8734997  32.9659988  23.3050012  48.5244997  33.6639988
  22.3440012  47.9764997  32.6309988  23.1233117  47.9765936  33.0162700
  30.0200012  53.7764997  24.6239988  30.4940012  54.0714997  25.4019988
  29.4570012  54.5144997  24.3909988  30.0087653  53.9166932  24.6990136
  24.5540012  53.7474997  34.4999988  24.5610012  53.6114997  33.5529988
  23.6380012  53.6294997  34.7519988  24.4311714  53.7129430  34.4044666
  35.9920012  38.7894997  21.0019988  35.0920012  38.9284997  21.2969988
  36.2440012  39.6204997  20.5999988  35.9028702  38.9209074  20.9880205
  24.0580012  47.5774997  22.9759988  23.7660012  48.3454997  22.4849988
  23.3840012  46.9174997  22.8129988  23.9269081  47.5934406  22.8867340
  37.1810012  53.1554997  19.3779988  37.2550012  54.0944997  19.5489988
  38.0870012  52.8504997  19.3219988  37.3135100  53.2426722  19.3938119
  20.1510012  49.9404997  31.7909988  19.6500012  49.9124997  30.9759988
  20.1560012  49.0344997  32.0999988  20.0831526  49.8142278  31.7212872
  19.9010012  52.7204997  28.6749988  20.8470012  52.5764997  28.6559988
  19.7890012  53.5044997  29.2119988  20.0152727  52.8068046  28.7450072
  38.0990012  53.3864997  34.3569988  38.0500012  52.4314997  34.3199988
  37.2720012  53.6544997  34.7579988  37.9804940  53.2918998  34.4061375
  29.0780012  52.9604997  33.2329988  29.1650012  53.7864997  33.7079988
  28.2140012  52.6304997  33.4819988  28.9731964  53.0289878  33.3316549
  29.4920012  56.7324997  23.0389988  29.4170012  56.6114997  22.0929988
  29.5250012  57.6824997  23.1579988  29.4861848  56.8442500  22.9254834
  23.1450012  55.5214997  24.8199988  23.2980012  55.1734997  25.6989988
  22.2950012  55.1654997  24.5649988  23.0508962  55.4256650  24.9058340
  32.5940012  55.8864997  20.0409988  32.9690012  55.1424997  19.5709988
  32.5980012  55.6164997  20.9599988  32.6458915  55.7481486  20.1007824
  32.2630012  55.8124997  22.7909988  31.3270012  55.9124997  22.9689988
  32.5430012  55.1034997  23.3689988  32.1728255  55.7302711  22.8935391
  35.2510012  44.8794997  34.8369988  34.8440012  45.3604997  34.1159988
  35.2920012  43.9744997  34.5289988  35.2008437  44.8229374  34.6966683
  22.4000012  51.2634997  32.8339988  22.6160012  50.9024997  33.6929988
  21.5450012  50.8894997  32.6239988  22.3139292  51.1634111  32.9233386
  25.0190012  39.7334997  28.8289988  24.1570012  39.6464997  28.4219988
  24.9960012  40.5894997  29.2569988  24.8980330  39.8372765  28.8311863
  29.6820012  39.4554997  32.2039988  30.1020012  39.0404997  32.9569988
  28.7490012  39.2774997  32.3209988  29.6133644  39.3745900  32.3229539
  33.0080012  43.2114997  33.0569988  32.4940012  43.0854997  33.8549988
  32.8530012  44.1234997  32.8129988  32.9166852  43.3176132  33.1332158
  33.7710012  48.0724997  18.8189988  33.8130012  47.8494997  17.8889988
  34.6200012  48.4714997  19.0089988  33.8915396  48.0959155  18.7173627
  29.3430012  41.9484997  19.4889988  29.0900012  41.9674997  20.4119988
  29.0870012  41.0764997  19.1879988  29.2737790  41.8332437  19.5746263
  25.1100012  44.6994997  29.9239988  24.4680012  44.6584997  30.6329988
  25.1470012  45.6254997  29.6869988  25.0271324  44.8191559  29.9889824
  25.1070012  44.9204997  24.8359988  24.2140012  44.5794997  24.7779988
  25.5570012  44.5434997  24.0809988  25.0457305  44.8228484  24.7259177
  30.6420012  45.3364997  23.6529988  30.2330012  46.1514997  23.3619988
  31.3630012  45.1964997  23.0389988  30.6834537  45.4292018  23.5301342
  29.7440012  45.5114997  35.1409988  29.1820012  44.8074997  35.4619988
  30.5710012  45.3914997  35.6089988  29.7787095  45.3987883  35.2482330
  31.6470012  44.7824997  26.4669988  31.4520012  45.3874997  25.7519988
  31.8280012  43.9484997  26.0329988  31.6447614  44.7526300  26.3104405
  22.8600012  45.0194997  31.7909988  22.8220012  45.4194997  32.6599988
  22.3690012  44.2024997  31.8819988  22.7884684  44.9638069  31.9221059
  26.2260012  42.3934997  18.5899988  25.7950012  41.9484997  19.3199988
  25.5080012  42.7654997  18.0779988  26.0699438  42.3828940  18.6206799
  19.4680012  42.1354997  25.6419988  20.0990012  42.1064997  26.3609988
  19.9170012  41.7104997  24.9119988  19.6150774  42.0740492  25.6416553
  20.7420012  42.8814997  21.0659988  21.2160012  43.4724997  20.4809988
  20.0250012  43.4124997  21.4129988  20.7099341  43.0340867  21.0328836
  30.9110012  46.4204997  31.1389988  31.2340012  45.7894997  30.4959988
  30.4710012  45.8854997  31.7989988  30.8956895  46.2618441  31.1402850
  27.6880012  42.3474997  25.9229988  26.7770012  42.4044997  26.2109988
  28.1940012  42.2874997  26.7329988  27.6315413  42.3471985  26.0720622
  22.5170012  43.9764997  24.7489988  21.6270012  44.0764997  24.4089988
  22.8130012  43.1344997  24.4029988  22.4352823  43.8763545  24.6557213
  26.1700012  43.9764997  22.4059988  27.1010012  44.1054997  22.5839988
  25.9550012  44.6464997  21.7559988  26.2684247  44.0846565  22.3425747
  32.0930012  41.5824997  29.1869988  31.4170012  41.7134997  29.8509988
  31.6080012  41.4274997  28.3769988  31.9347145  41.5794905  29.1684517
  24.8440012  45.1714997  19.9729988  24.3010012  44.7914997  19.2809988
  25.6770012  45.3654997  19.5439988  24.8824399  45.1458124  19.8204526
  35.3810012  57.2544997  35.4639988  35.5810012  57.6784997  34.6289988
  36.0360012  57.5974997  36.0709988  35.4970051  57.3589648  35.4317836
  22.9790012  49.7284997  35.0719988  23.7110012  49.9824997  35.6329988
  22.1990012  49.9324997  35.5869988  22.9738232  49.7909177  35.2185760
  29.0080012  45.1354997  27.8099988  29.5730012  44.5884997  27.2629988
  28.8610012  44.6134997  28.5979988  29.0652918  44.9902024  27.8418454
  24.0100012  41.2714997  24.2279988  23.6930012  40.3694997  24.1929988
  24.7920012  41.2734997  23.6749988  24.0722284  41.1481628  24.1484783
  27.6350012  43.5234997  30.2239988  26.7990012  43.9774997  30.3339988
  28.1590012  43.7994997  30.9759988  27.5914414  43.6229376  30.3407136
  28.1790012  49.7364997  21.9079988  27.4340012  49.2294997  21.5859988
  28.0450012  49.7854997  22.8549988  28.0588776  49.6736940  21.9918647
  35.3290012  48.8694997  30.6949988  35.9710012  49.3264997  30.1509988
  34.4990012  48.9824997  30.2319988  35.3045963  48.9472704  30.5580177
  32.0770012  42.5504997  20.1079988  31.1380012  42.6624997  19.9559988
  32.3740012  43.4074997  20.4139988  31.9887666  42.6816443  20.1285768
  29.6980012  49.9204997  33.1449988  29.3530012  49.5394997  33.9519988
  29.4980012  50.8544997  33.2169988  29.6238061  49.9945228  33.2650961
  32.7950012  44.4174997  21.7679988  33.6870012  44.2804997  22.0869988
  32.8520012  45.2084997  21.2319988  32.9246285  44.5056660  21.7391691
  23.3040012  49.0314997  27.6779988  24.0490012  49.0294997  27.0769988
  23.3820012  48.2084997  28.1599988  23.4165518  48.9199315  27.6608929
  30.3050012  51.1954997  20.9339988  30.0090012  52.0214997  21.3149988
  29.6020012  50.5754997  21.1299988  30.1694914  51.2248199  21.0126443
  20.3120012  47.4924997  32.9929988  20.5350012  47.0744997  33.8249988
  19.7100012  46.8794997  32.5699988  20.2611759  47.3524668  33.0497022
  27.3280012  47.0094997  35.2059988  27.0320012  46.8434997  34.3109988
  28.2600012  46.7894997  35.1949988  27.4134166  46.9570640  35.0820536
  31.9490012  52.3824997  33.0959988  31.0480012  52.5654997  32.8279988
  31.9830012  52.6414997  34.0169988  31.8303041  52.4425512  33.1838197
  37.6800012  44.6274997  21.4629988  37.1260012  44.2314997  20.7909988
  37.7800012  45.5374997  21.1849988  37.6177059  44.6963586  21.3334401
  37.6430012  50.4274997  34.2999988  36.7920012  50.6654997  33.9329988
  38.2340012  50.4104997  33.5469988  37.6062487  50.4578258  34.1478893
  35.9750012  53.4134997  21.9279988  35.6020012  52.5874997  22.2369988
  36.2530012  53.2304997  21.0309988  35.9615630  53.2757303  21.8489626
  33.1360012  48.2214997  28.9489988  32.2070012  47.9894997  28.9219988
  33.5870012  47.4444997  28.6189988  33.0699216  48.0847238  28.9006917
  25.6790012  52.5494997  25.0819988  26.2060012  53.3224997  24.8819988
  24.7990012  52.7744997  24.7809988  25.6321773  52.6858005  25.0139010
  21.4340012  47.4114997  19.6689988  22.0500012  48.0384997  20.0489988
  20.5720012  47.7274997  19.9409988  21.4017698  47.5399430  19.7577183
  27.1060012  50.2124997  24.6589988  26.8650012  51.1374997  24.6999988
  26.3650012  49.7534997  25.0549988  26.9728409  50.2771421  24.7181377
  27.6210012  54.3614997  30.9739988  27.9830012  55.2164997  30.7399988
  28.1520012  54.0694997  31.7139988  27.7424473  54.4391060  31.0420855
  25.7890012  55.2344997  24.2039988  24.8390012  55.3394997  24.2549988
  26.1410012  56.0544997  24.5489988  25.7064203  55.3598314  24.2576650
  31.1650012  50.4604997  30.6739988  30.7390012  50.2334997  31.5009988
  31.7450012  49.7224997  30.4919988  31.1851868  50.3295299  30.7625830
  33.3680012  51.3894997  19.7479988  33.7210012  51.0094997  20.5529988
  32.4190012  51.2964997  19.8349988  33.2880441  51.3249596  19.8698559
  33.8230012  55.0124997  33.1439988  33.2220012  54.4574997  32.6479988
  34.1050012  55.6794997  32.5179988  33.7788519  55.0266841  32.9914952
  37.8710012  55.8694997  19.9489988  38.6150012  56.4554997  19.8089988
  37.1770012  56.4374997  20.2829988  37.8790292  56.0265582  19.9749961
  21.9460012  42.2454997  32.5509988  21.0530012  42.5844997  32.4829988
  21.8470012  41.3904997  32.9689988  21.8104164  42.1762588  32.5982235
  34.2340012  50.0624997  21.9749988  33.9560012  49.3344997  22.5309988
  35.1610012  50.1814997  22.1799988  34.3213124  49.9788802  22.0788845
  21.5970012  54.0504997  30.9859988  21.8140012  53.1184997  30.9549988
  21.8430012  54.3244997  31.8689988  21.6599549  53.9600636  31.1011763
  27.4590012  52.5014997  18.1949988  27.6980012  51.7534997  17.6479988
  27.1900012  52.1134997  19.0279988  27.4553675  52.3466638  18.2326865
  26.3960012  52.0714997  20.6519988  26.5420012  51.5514997  21.4419988
  26.3930012  52.9784997  20.9579988  26.4155989  52.1228853  20.8016088
  22.8490012  49.3244997  21.1619988  22.1630012  49.6764997  21.7289988
  23.3710012  50.0874997  20.9149988  22.8256852  49.4758578  21.2062118
  30.6800012  41.9864997  31.4409988  31.3790012  42.0604997  32.0909988
  30.2990012  41.1224997  31.5949988  30.7241767  41.8797624  31.5508322
  31.4650012  41.6384997  22.5379988  31.6850012  42.1104997  21.7349988
  32.0230012  42.0334997  23.2079988  31.5704968  41.7564285  22.5187331
  29.1330012  53.7694997  21.4009988  28.3170012  54.2664997  21.4529988
  29.6630012  54.2444997  20.7609988  29.0929161  53.9017722  21.3215956
  28.6650012  43.3664997  23.3729988  29.4770012  43.8714997  23.4189988
  28.4200012  43.2214997  24.2869988  28.7430520  43.4160375  23.5028517
  29.2000012  44.3524997  32.5579988  29.3190012  44.9264997  33.3149988
  29.8560012  43.6644997  32.6719988  29.3049757  44.3381079  32.6770825
  29.5480012  40.4474997  24.3109988  29.2020012  41.0654997  24.9559988
  30.2070012  40.9484997  23.8299988  29.5897826  40.5995802  24.3340971
  26.4720012  54.8134997  21.3829988  26.6320012  55.6124997  20.8819988
  26.2740012  55.1194997  22.2679988  26.4671649  54.9644469  21.4339815
  25.2060012  41.5104997  20.9979988  25.1230012  42.3994997  21.3449988
  26.0960012  41.2454997  21.2299988  25.3149469  41.5961430  21.0767626
  35.4050012  42.2594997  33.3929988  34.4880012  42.5224997  33.3049988
  35.7400012  42.2564997  32.4959988  35.3249900  42.2950224  33.2597919
  34.0070012  46.0104997  27.4879988  33.2090012  45.5954997  27.1599988
  34.4520012  45.3194997  27.9789988  33.9579885  45.8603543  27.5094889
  23.4650012  51.9384997  20.0589988  24.0570012  52.6374997  20.3349988
  23.9240012  51.5054997  19.3389988  23.6081142  51.9757049  19.9994830
  21.7810012  44.6024997  19.1749988  21.7360012  45.5414997  19.3529988
  20.8930012  44.3664997  18.9049988  21.6548574  44.6991892  19.1628912
  35.0930012  55.2664997  29.1109988  34.9380012  55.9444997  28.4539988
  36.0260012  55.3384997  29.3139988  35.1978500  55.3690170  29.0485119
  22.5890012  39.3844997  27.8479988  22.3600012  39.4434997  26.9199988
  22.1460012  38.5924997  28.1539988  22.4978530  39.2855753  27.7624786
  21.5190012  53.3244997  24.0079988  20.6870012  53.7974997  24.0359988
  22.0650012  53.8344997  23.4099988  21.4789739  53.4581871  23.9309716
  20.8070012  55.9374997  35.3379988  21.3480012  55.7204997  36.0979988
  20.3260012  55.1314997  35.1489988  20.8159345  55.7989514  35.4163076
  25.4050012  54.8564997  36.9589988  26.1720012  54.3974997  37.2999988
  25.3830012  54.6304997  36.0289988  25.5071434  54.7630409  36.8800043
  29.4970012  54.3644997  18.3339988  28.8530012  53.7334997  18.6549988
  30.2590012  53.8334997  18.1019988  29.5118077  54.2062920  18.3466011
  31.9820012  53.2364997  35.6879988  31.6310012  52.3804997  35.9309988
  32.7080012  53.3794997  36.2949988  32.0320769  53.1385636  35.8033619
  34.1010012  54.1814997  18.5679988  34.3840012  53.3874997  19.0199988
  34.8410012  54.4144997  18.0069988  34.2397486  54.1042803  18.5540698
  20.7140012  49.7474997  36.2929988  20.8580012  48.8454997  36.0059988
  19.9420012  50.0334997  35.8049988  20.6293322  49.6628261  36.1877881
  25.0560012  50.0914997  18.4249988  25.1200012  49.2974997  18.9559988
  25.7090012  49.9724997  17.7349988  25.1530241  49.9667148  18.4044317
  27.3700012  49.7174997  35.7249988  27.0410012  49.9884997  34.8679988
  27.5220012  48.7764997  35.6379988  27.3454809  49.6273862  35.5958244
  30.4080012  51.1384997  18.1609988  30.1390012  51.3184997  19.0619988
  30.2020012  50.2124997  18.0299988  30.3433825  51.0380152  18.2665214
  33.1040012  49.6334997  33.1089988  33.8500012  50.2214997  32.9889988
  32.3470012  50.2154997  33.1719988  33.1037554  49.7927011  33.1010907
  21.5470012  46.9474997  35.7129988  21.9550012  46.0904997  35.5919988
  21.2870012  46.9624997  36.6339988  21.5677568  46.8320807  35.8209588
  26.2050012  48.0634997  20.7309988  25.7450012  47.5794997  21.4169988
  26.4600012  47.3954997  20.0949988  26.1764902  47.9068731  20.7389334
  25.4940012  45.9564997  33.0869988  24.8760012  46.6314997  33.3669988
  25.8380012  46.2774997  32.2539988  25.4559615  46.0922721  33.0126581
  27.2760012  46.3064997  18.9929988  27.0960012  46.1524997  18.0659988
  28.2260012  46.4144997  19.0379988  27.3797776  46.3000175  18.8721843
  30.5140012  48.4284997  36.3639988  31.4670012  48.5114997  36.3369988
  30.3530012  47.7164997  36.9839988  30.6226426  48.3436746  36.4440579
  36.6660012  48.6614997  18.4389988  36.3920012  48.2364997  17.6259988
  36.7050012  49.5924997  18.2219988  36.6337699  48.7292484  18.2983610
  25.8330012  43.3114997  34.1689988  25.9830012  42.5824997  33.5669988
  25.8360012  44.0884997  33.6099988  25.8539302  43.3167851  34.0110692
  26.2460012  41.6814997  31.6619988  26.7820012  42.1324997  31.0099988
  25.3940012  41.5734997  31.2389988  26.2042178  41.7286390  31.5155756
  27.8280012  47.1204997  31.9009988  28.5780012  46.9644997  31.3279988
  27.4890012  47.9724997  31.6259988  27.8848921  47.2142968  31.7853561
  32.2430012  44.9354997  36.9299988  32.4360012  44.0044997  36.8179988
  33.1010012  45.3604997  36.9199988  32.3853020  44.8656389  36.9133361
  33.5600012  47.7244997  35.0069988  33.2790012  48.4334997  34.4299988
  34.5030012  47.6514997  34.8559988  33.6489027  47.8117646  34.9075551
  24.3120012  44.5094997  36.0809988  23.5450012  43.9774997  35.8709988
  24.9910012  44.1994997  35.4809988  24.2987022  44.3947506  35.9711648
  27.0520012  39.1374997  32.0929988  26.9530012  40.0844997  31.9879988
  26.3090012  38.7654997  31.6179988  26.9380563  39.2165902  32.0144560
  28.3160012  43.4594997  35.6569988  28.0800012  43.2394997  36.5589988
  27.5320012  43.2524997  35.1469988  28.1778628  43.4014760  35.7113932
  31.0310012  42.5864997  34.7329988  30.0840012  42.6184997  34.8649988
  31.3440012  41.9614997  35.3859988  30.9435475  42.5063207  34.8394455
  32.6650012  41.2204997  36.7379988  32.5690012  40.2684997  36.7319988
  32.3440012  41.4894997  37.5979988  32.6084070  41.1264035  36.8535441
  22.4920012  42.4304997  35.7849988  22.7040012  41.7234997  35.1749988
  22.3810012  41.9924997  36.6289988  22.5059721  42.2747084  35.8156843
  27.2730012  38.4314997  34.7649988  27.9850012  37.7914997  34.7509988
  27.1720012  38.6984997  33.8509988  27.3567939  38.3799938  34.6395650
  27.6270012  40.1144997  36.8179988  27.4950012  39.6384997  35.9979988
  27.0280012  40.8584997  36.7629988  27.5279071  40.1499618  36.6982886
  27.1730012  56.9974997  19.9949988  28.1060012  57.1554997  20.1379988
  26.9090012  57.6724997  19.3699988  27.2649510  57.1103611  19.9300741
  20.7420012  51.6334997  19.4769988  21.6560012  51.7124997  19.7509988
  20.7490012  50.9464997  18.8109988  20.8681131  51.5513961  19.4244393
  19.3910012  57.0264997  24.5549988  18.7440012  56.5644997  24.0219988
  19.7450012  56.3544997  25.1369988  19.3503849  56.8724723  24.5607959
  20.2610012  55.1074997  26.3589988  19.9260012  54.2274997  26.5309988
  20.4830012  55.4524997  27.2239988  20.2451783  55.0337500  26.4994208
  37.8090012  55.9164997  29.3399988  37.7880012  56.1014997  30.2789988
  38.5000012  56.4854997  28.9989988  37.8994618  56.0186606  29.4223864
  37.3730012  55.4844997  32.2619988  36.8850012  54.7484997  31.8909988
  37.9220012  55.0904997  32.9399988  37.3804872  55.3306249  32.3029160
  35.8230012  51.2734997  36.8999988  34.9570012  51.1684997  37.2939988
  36.2000012  52.0324997  37.3459988  35.7553308  51.3616900  37.0142393
  37.1240012  49.5304997  22.4139988  37.9740012  49.9514997  22.5409988
  37.1300012  48.7904997  23.0209988  37.2411372  49.4880803  22.5134344
  37.5190012  47.5834997  24.2379988  36.7920012  47.1044997  24.6349988
  38.1000012  47.7894997  24.9699988  37.4979375  47.5457090  24.3914129
  37.2780012  50.3684997  29.1849988  38.1110012  49.9904997  28.9049988
  37.3900012  51.3114997  29.0659988  37.4072647  50.4442218  29.1305487
  35.7640012  53.2464997  31.4919988  35.1170012  53.5714997  32.1179988
  35.2470012  52.8064997  30.8179988  35.6054029  53.2315004  31.4865827
  37.7870012  47.4844997  20.6289988  37.2650012  47.8414997  19.9099988
  37.7540012  48.1594997  21.3069988  37.7111634  47.6245413  20.6223145
  36.1360012  44.7244997  19.1799988  36.2320012  45.3914997  18.4989988
  35.9960012  43.9084997  18.6979988  36.1302135  44.7054500  19.0218491
  35.3050012  46.1044997  24.8009988  35.1550012  45.1594997  24.7799988
  34.9520012  46.3854997  25.6439988  35.2366625  46.0130441  24.9122346
  20.3410012  48.1824997  28.8109988  20.5250012  48.1004997  27.8749988
  21.1900012  48.0584997  29.2349988  20.4810139  48.1545003  28.7401455
  36.1620012  48.0744997  34.4389988  36.7450012  47.3404997  34.6309988
  36.7260012  48.8464997  34.4859988  36.3179769  48.0784227  34.4716159
  37.6580012  45.9774997  35.1239988  36.7950012  45.5984997  34.9579988
  38.2630012  45.2384997  35.0499988  37.6215979  45.8258023  35.0912817
  35.3830012  42.1324997  18.2969988  35.9940012  41.7614997  18.9339988
  34.5470012  41.7114997  18.4929988  35.3535032  42.0247554  18.4107035
  35.0160012  43.6874997  23.2629988  35.2960012  42.7804997  23.3869988
  35.7750012  44.1214997  22.8739988  35.1569277  43.6220942  23.2273682
  35.6280012  44.2684997  28.6989988  36.5610012  44.4804997  28.6649988
  35.3930012  44.3704997  29.6209988  35.7238036  44.3112769  28.8189976
  35.6570012  45.0054997  31.4749988  34.8140012  45.2734997  31.8409988
  36.0990012  45.8274997  31.2639988  35.6014158  45.1533291  31.4965491
  19.9380012  43.4534997  34.9519988  20.8580012  43.3314997  35.1879988
  19.4890012  42.7034997  35.3409988  20.0031580  43.3353727  35.0369006
  37.9400012  38.9854997  36.8279988  38.2900012  38.3314997  36.2229988
  38.0870012  39.8224997  36.3889988  38.0078419  39.0091591  36.6857118
  35.6290012  40.9504997  23.3109988  35.8120012  40.5014997  24.1369988
  35.0300012  40.3654997  22.8479988  35.5730202  40.8099975  23.3613275
  21.1590012  41.7654997  27.8429988  21.6050012  40.9734997  28.1449988
  21.6260012  42.4814997  28.2739988  21.2830172  41.7540624  27.9424820
  19.4630012  44.7644997  28.9119988  19.9550012  44.5434997  28.1209988
  19.8260012  45.6054997  29.1929988  19.5793126  44.8478357  28.8417531
  37.4600012  41.0944997  35.1779988  36.5420012  41.3654997  35.1419988
  37.5830012  40.5594997  34.3929988  37.3511066  41.0592892  35.0670487
  37.4960012  41.0174997  19.8389988  37.9080012  40.2964997  19.3639988
  38.1780012  41.6874997  19.8979988  37.6445885  41.0092368  19.7818915
  19.7770012  41.0224997  22.9659988  18.8520012  41.2314997  22.8369988
  20.2310012  41.5064997  22.2769988  19.7117368  41.1165993  22.8551226
  34.5480012  56.0064997  24.9119988  35.2000012  55.6594997  24.3039988
  35.0580012  56.4954997  25.5579988  34.7062637  56.0250597  24.9160236
  19.7410012  39.7604997  31.3109988  19.0760012  39.5144997  31.9539988
  19.2980012  40.3824997  30.7329988  19.5900956  39.8108632  31.3209352
  21.9330012  52.9354997  35.4549988  21.1120012  53.1104997  34.9949988
  21.6800012  52.8624997  36.3759988  21.7866164  52.9495622  35.5164923
  24.8870012  53.9104997  31.7139988  24.4620012  54.7194997  31.4309988
  25.7910012  53.9954997  31.4119988  24.9510271  54.0328469  31.6343776
  29.1980012  55.3094997  34.6729988  29.3830012  54.9754997  35.5509988
  30.0440012  55.6184997  34.3509988  29.3377539  55.3056047  34.7495605
  31.5430012  56.5954997  33.9169988  32.2200012  55.9624997  33.6769988
  31.8650012  56.9964997  34.7239988  31.6791637  56.5631154  33.9932793
  36.4600012  39.1844997  32.9969988  35.6480012  39.5094997  32.6089988
  36.6930012  38.4244997  32.4639988  36.3803423  39.1262436  32.8718253
  22.2890012  57.1664997  31.7609988  21.5680012  57.6064997  31.3099988
  21.9230012  56.9154997  32.6099988  22.1409804  57.1927698  31.8139840
  24.7560012  56.7664997  30.7909988  23.8910012  56.8384997  31.1949988
  24.7010012  57.3134997  30.0069988  24.6302085  56.8502685  30.7403362
  29.4660012  56.6544997  29.9659988  29.0100012  57.1834997  29.3119988
  29.6290012  57.2574997  30.6919988  29.4255585  56.8084468  29.9745062
  31.7940012  55.5324997  30.9109988  30.8890012  55.6974997  30.6459988
  32.2230012  56.3854997  30.8459988  31.7280799  55.6704483  30.8659182
  34.3980012  57.1024997  31.2059988  34.2160012  58.0184997  30.9959988
  34.5750012  56.6924997  30.3599988  34.3970210  57.1724822  31.0627885
  21.7030012  55.7894997  28.6709988  21.6850012  55.3644997  29.5289988
  22.5080012  55.4714997  28.2629988  21.8093875  55.6883812  28.7331655
  23.8450012  54.4994997  27.3259988  23.6260012  53.5834997  27.4959988
  24.6690012  54.6394997  27.7919988  23.9264420  54.3930520  27.4122774
  26.3820012  54.9694997  28.1749988  26.5950012  54.0814997  27.8879988
  26.4460012  54.9354997  29.1289988  26.4198231  54.8433102  28.2647397
  29.8900012  40.6334997  27.3189988  29.2160012  40.0044997  27.5749988
  30.4540012  40.1494997  26.7159988  29.8739230  40.4818744  27.2725340
  35.0330012  38.7414997  27.4319988  35.6370012  39.2884997  26.9299988
  34.1630012  39.0604997  27.1919988  34.9981241  38.8595806  27.3307654
  36.7600012  39.8794997  25.7649988  37.3720012  39.3654997  25.2389988
  37.1420012  40.7574997  25.7889988  36.8954540  39.9277140  25.6961830
  22.2170012  39.2674997  25.1409988  21.4400012  39.0334997  24.6339988
  22.7470012  38.4704997  25.1499988  22.1822330  39.1276988  25.0727742
  21.0530012  39.0654997  20.9449988  21.4920012  39.6764997  20.3529988
  20.4200012  39.6034997  21.4189988  21.0274514  39.2219257  20.9280930
  26.7960012  39.1944997  24.9549988  27.6710012  39.5824997  24.9249988
  26.6600012  38.9794997  25.8769988  26.8973695  39.2185184  25.0756440
  32.3530012  39.2244997  26.6039988  32.4290012  39.3194997  25.6539988
  32.0780012  38.3164997  26.7329988  32.3262321  39.1147867  26.4915079
  33.7060012  39.2504997  22.2959988  33.0040012  39.8654997  22.0869988
  33.2620012  38.4124997  22.4269988  33.5496330  39.2215783  22.2850328
  20.9540012  55.0134997  21.8429988  20.2690012  54.9754997  21.1749988
  20.9580012  55.9264997  22.1309988  20.8608193  55.1317016  21.7905284
  22.9140012  40.9814997  19.3869988  23.4060012  40.3514997  18.8599988
  23.5380012  41.2774997  20.0509988  23.0655446  40.9353199  19.4045980
  27.9400012  41.2744997  21.8439988  28.1180012  40.6284997  22.5269988
  27.8870012  42.1084997  22.3119988  27.9571829  41.2987985  22.0005940
  29.8190012  56.2234997  20.2399988  30.6850012  56.5894997  20.0619988
  29.5720012  55.7834997  19.4259988  29.9042392  56.2141756  20.1056289
  36.5280012  55.7864997  22.9189988  36.3330012  55.0384997  22.3539988
  36.4890012  56.5444997  22.3359988  36.4960380  55.7866099  22.7628384
  22.1750012  39.7814997  34.6589988  21.8090012  39.0164997  35.1019988
  23.0880012  39.8104997  34.9459988  22.2482790  39.6807224  34.7584070
  24.1480012  39.1324997  36.1949988  25.0460012  38.8584997  36.0099988
  23.7610012  38.3894997  36.6589988  24.2186612  38.9945914  36.2323643
  22.7720012  55.9334997  18.8679988  22.5050012  56.2204997  19.7409988
  23.5440012  55.3874997  19.0199988  22.8397488  55.8990294  19.0081050
  32.5690012  38.4644997  36.3769988  32.6460012  38.0384997  37.2309988
  33.4630012  38.4784997  36.0339988  32.7003428  38.4080879  36.4475310
  35.7450012  54.5374997  35.0689988  34.9630012  54.3514997  34.5499988
  35.6730012  55.4664997  35.2869988  35.6281777  54.6376492  35.0274048
  50.1510012  48.4234997  25.0999988  50.2400012  49.3674997  24.9679988
  49.5130012  48.1484997  24.4419988  50.0769081  48.5154830  24.9929614
  49.0840012  47.6784997  28.5189988  49.0460012  47.0324997  29.2239988
  48.7620012  47.2124997  27.7479988  49.0352333  47.5269408  28.5112978
  41.4530012  47.2934997  30.1119988  41.4940012  46.6674997  30.8349988
  42.1560012  47.9174997  30.2939988  41.5536363  47.2921196  30.2356044
  52.7900012  50.6174997  26.8199988  52.3500012  49.8974997  27.2709988
  52.7770012  51.3384997  27.4499988  52.7280226  50.6163731  26.9668494
  42.3760012  51.7434997  28.6469988  42.0070012  50.9414997  28.2769988
  43.3170012  51.5744997  28.6929988  42.4527289  51.6110153  28.6026316
  38.9860012  45.4034997  24.0399988  38.5390012  46.2494997  24.0209988
  38.4250012  44.8234997  23.5239988  38.8489900  45.4409916  23.9676801
  39.6970012  47.5654997  26.1659988  39.9100012  46.7954997  26.6929988
  40.4350012  47.6544997  25.5619988  39.8258496  47.4721394  26.1565300
  49.9020012  55.7224997  27.0329988  50.5220012  55.0454997  26.7589988
  49.6940012  55.5044997  27.9409988  49.9586904  55.6003870  27.1183365
  47.4740012  50.1114997  28.9249988  47.7780012  49.4254997  28.3299988
  48.1950012  50.2294997  29.5429988  47.6130671  50.0336304  28.9271816
  56.1370012  41.7124997  29.7859988  56.1860012  42.3224997  30.5219988
  56.5620012  42.1734997  29.0629988  56.2011824  41.8583741  29.7890205
  50.6150012  44.5054997  29.2529988  50.7570012  43.5594997  29.2729988
  50.5080012  44.7124997  28.3239988  50.6199864  44.4039534  29.1302339
  43.7690012  42.6064997  26.5249988  43.8130012  43.4664997  26.1069988
  43.3120012  42.0544997  25.8909988  43.7132185  42.6495799  26.3820299
  51.4920012  42.7374997  24.9259988  52.1380012  42.4084997  25.5509988
  52.0020012  43.2554997  24.3029988  51.6494264  42.7624611  24.9273862
  40.3900012  45.0034997  27.2869988  41.0430012  44.4534997  27.7189988
  40.4140012  44.7294997  26.3699988  40.4826683  44.8911466  27.2222123
  45.5460012  46.5534997  26.5019988  46.1620012  46.0274997  27.0119988
  44.9600012  45.9134997  26.0989988  45.5510810  46.3949208  26.5173173
  56.5280012  43.1904997  32.0219988  55.8400012  43.8484997  31.9259988
  56.5440012  42.9934997  32.9579988  56.4358525  43.2540462  32.1354808
  42.5800012  41.5244997  30.5989988  42.3610012  42.0544997  29.8329988
  41.9120012  41.7514997  31.2459988  42.4597600  41.6276906  30.5816379
  49.9490012  51.0244997  24.1429988  49.6530012  50.7024997  23.2919988
  49.6240012  51.9244997  24.1839988  49.8646371  51.1020215  24.0321801
  45.1490012  49.2004997  30.8859988  44.4090012  49.7984997  30.9899988
  45.8630012  49.7544997  30.5709988  45.1442237  49.3572831  30.8576465
  53.2560012  42.0284997  26.9059988  53.0400012  41.2624997  27.4389988
  53.9110012  42.5004997  27.4189988  53.3150632  41.9875889  27.0482861
  42.1730012  43.4164997  28.5509988  42.7870012  44.0494997  28.9249988
  42.6850012  42.9444997  27.8949988  42.3262296  43.4392370  28.5134252
  43.5560012  51.1644997  31.6739988  43.5510012  52.0444997  31.2959988
  42.7030012  51.0814997  32.0989988  43.4399464  51.2736117  31.6797907
  39.6770012  50.8354997  22.4559988  39.4050012  51.0644997  21.5669988
  39.7230012  51.6734997  22.9159988  39.6460094  50.9801213  22.3965697
  53.3020012  52.4574997  29.1679988  52.3610012  52.5154997  29.3299988
  53.5790012  53.3634997  29.0309988  53.2104679  52.5879443  29.1716815
  53.6030012  40.7434997  30.5859988  52.8670012  41.3544997  30.5479988
  54.2860012  41.1584997  30.0589988  53.5946541  40.8831374  30.5095832
  46.6060012  38.8304997  28.0519988  46.4890012  37.8814997  27.9969988
  45.7510012  39.1624997  28.3249988  46.4743733  38.7455409  28.0813897
  51.5540012  54.2384997  25.7939988  51.9800012  53.5314997  25.3089988
  51.8710012  55.0394997  25.3769988  51.6551019  54.2500994  25.6713130
  52.7140012  52.1394997  24.3019988  52.4560012  51.4494997  23.6909988
  52.7850012  51.6964997  25.1479988  52.6882856  51.9852124  24.3326885
  54.4000012  50.7054997  32.7799988  54.5400012  50.1144997  32.0399988
  54.5670012  51.5784997  32.4229988  54.4416778  50.7426426  32.6306965
  48.8730012  47.6674997  22.5519988  48.1610012  48.2024997  22.1999988
  49.5640012  47.7234997  21.8919988  48.8690132  47.7482543  22.4146289
  48.9260012  46.1254997  19.5909988  49.6270012  46.1474997  20.2419988
  49.2290012  45.4974997  18.9349988  49.0627830  46.0436566  19.5913711
  56.2420012  47.0454997  30.8459988  55.5890012  47.7404997  30.9349988
  56.7070012  47.2554997  30.0359988  56.2155390  47.1689425  30.7486883
  52.2780012  47.8774997  23.5039988  51.5460012  48.1054997  24.0769988
  52.7260012  47.1634997  23.9589988  52.2383095  47.8122571  23.6439119
  52.1760012  46.0514997  32.5709988  52.2560012  46.8144997  33.1429988
  51.5740012  46.3304997  31.8809988  52.1055756  46.1937134  32.5560589
  43.9240012  48.5074997  25.3859988  43.5930012  48.1374997  24.5679988
  44.5120012  47.8374997  25.7329988  43.9581873  48.3661156  25.3208102
  45.2900012  51.9354997  28.0679988  45.1960012  51.3574997  27.3109988
  46.0200012  51.5644997  28.5639988  45.3757981  51.8062390  28.0314165
  44.2900012  47.2764997  29.0199988  44.8560012  47.3974997  28.2569988
  44.6090012  47.9134997  29.6589988  44.4105786  47.3791884  29.0020040
  50.5990012  52.7794997  29.7539988  50.3590012  53.4414997  30.4019988
  50.4010012  51.9454997  30.1789988  50.5393808  52.7573134  29.9001524
  45.1700012  51.6754997  33.7369988  44.8590012  52.4574997  34.1919988
  44.5200012  51.5224997  33.0509988  45.0395558  51.7619105  33.7065871
  51.1490012  47.0394997  21.1889988  51.7290012  47.1894997  21.9359988
  51.5630012  47.5104997  20.4659988  51.2842830  47.1236841  21.1934134
  42.0900012  47.8734997  32.9659988  42.1610012  48.5244997  33.6639988
  41.2000012  47.9764997  32.6309988  41.9793117  47.9765936  33.0162700
  48.8760012  53.7764997  24.6239988  49.3500012  54.0714997  25.4019988
  48.3130012  54.5144997  24.3909988  48.8647653  53.9166932  24.6990136
  43.4100012  53.7474997  34.4999988  43.4170012  53.6114997  33.5529988
  42.4940012  53.6294997  34.7519988  43.2871714  53.7129430  34.4044666
  54.8480012  38.7894997  21.0019988  53.9480012  38.9284997  21.2969988
  55.1000012  39.6204997  20.5999988  54.7588702  38.9209074  20.9880205
  42.9140012  47.5774997  22.9759988  42.6220012  48.3454997  22.4849988
  42.2400012  46.9174997  22.8129988  42.7829081  47.5934406  22.8867340
  56.0370012  53.1554997  19.3779988  56.1110012  54.0944997  19.5489988
  56.9430012  52.8504997  19.3219988  56.1695100  53.2426722  19.3938119
  39.0070012  49.9404997  31.7909988  38.5060012  49.9124997  30.9759988
  39.0120012  49.0344997  32.0999988  38.9391526  49.8142278  31.7212872
  38.7570012  52.7204997  28.6749988  39.7030012  52.5764997  28.6559988
  38.6450012  53.5044997  29.2119988  38.8712727  52.8068046  28.7450072
  56.9550012  53.3864997  34.3569988  56.9060012  52.4314997  34.3199988
  56.1280012  53.6544997  34.7579988  56.8364940  53.2918998  34.4061375
  47.9340012  52.9604997  33.2329988  48.0210012  53.7864997  33.7079988
  47.0700012  52.6304997  33.4819988  47.8291964  53.0289878  33.3316549
  48.3480012  56.7324997  23.0389988  48.2730012  56.6114997  22.0929988
  48.3810012  57.6824997  23.1579988  48.3421848  56.8442500  22.9254834
  42.0010012  55.5214997  24.8199988  42.1540012  55.1734997  25.6989988
  41.1510012  55.1654997  24.5649988  41.9068962  55.4256650  24.9058340
  51.4500012  55.8864997  20.0409988  51.8250012  55.1424997  19.5709988
  51.4540012  55.6164997  20.9599988  51.5018915  55.7481486  20.1007824
  51.1190012  55.8124997  22.7909988  50.1830012  55.9124997  22.9689988
  51.3990012  55.1034997  23.3689988  51.0288255  55.7302711  22.8935391
  54.1070012  44.8794997  34.8369988  53.7000012  45.3604997  34.1159988
  54.1480012  43.9744997  34.5289988  54.0568437  44.8229374  34.6966683
  41.2560012  51.2634997  32.8339988  41.4720012  50.9024997  33.6929988
  40.4010012  50.8894997  32.6239988  41.1699292  51.1634111  32.9233386
  43.8750012  39.7334997  28.8289988  43.0130012  39.6464997  28.4219988
  43.8520012  40.5894997  29.2569988  43.7540330  39.8372765  28.8311863
  48.5380012  39.4554997  32.2039988  48.9580012  39.0404997  32.9569988
  47.6050012  39.2774997  32.3209988  48.4693644  39.3745900  32.3229539
  51.8640012  43.2114997  33.0569988  51.3500012  43.0854997  33.8549988
  51.7090012  44.1234997  32.8129988  51.7726852  43.3176132  33.1332158
  52.6270012  48.0724997  18.8189988  52.6690012  47.8494997  17.8889988
  53.4760012  48.4714997  19.0089988  52.7475396  48.0959155  18.7173627
  48.1990012  41.9484997  19.4889988  47.9460012  41.9674997  20.4119988
  47.9430012  41.0764997  19.1879988  48.1297790  41.8332437  19.5746263
  43.9660012  44.6994997  29.9239988  43.3240012  44.6584997  30.6329988
  44.0030012  45.6254997  29.6869988  43.8831324  44.8191559  29.9889824
  43.9630012  44.9204997  24.8359988  43.0700012  44.5794997  24.7779988
  44.4130012  44.5434997  24.0809988  43.9017305  44.8228484  24.7259177
  49.4980012  45.3364997  23.6529988  49.0890012  46.1514997  23.3619988
  50.2190012  45.1964997  23.0389988  49.5394537  45.4292018  23.5301342
  48.6000012  45.5114997  35.1409988  48.0380012  44.8074997  35.4619988
  49.4270012  45.3914997  35.6089988  48.6347095  45.3987883  35.2482330
  50.5030012  44.7824997  26.4669988  50.3080012  45.3874997  25.7519988
  50.6840012  43.9484997  26.0329988  50.5007614  44.7526300  26.3104405
  41.7160012  45.0194997  31.7909988  41.6780012  45.4194997  32.6599988
  41.2250012  44.2024997  31.8819988  41.6444684  44.9638069  31.9221059
  45.0820012  42.3934997  18.5899988  44.6510012  41.9484997  19.3199988
  44.3640012  42.7654997  18.0779988  44.9259438  42.3828940  18.6206799
  38.3240012  42.1354997  25.6419988  38.9550012  42.1064997  26.3609988
  38.7730012  41.7104997  24.9119988  38.4710774  42.0740492  25.6416553
  39.5980012  42.8814997  21.0659988  40.0720012  43.4724997  20.4809988
  38.8810012  43.4124997  21.4129988  39.5659341  43.0340867  21.0328836
  49.7670012  46.4204997  31.1389988  50.0900012  45.7894997  30.4959988
  49.3270012  45.8854997  31.7989988  49.7516895  46.2618441  31.1402850
  46.5440012  42.3474997  25.9229988  45.6330012  42.4044997  26.2109988
  47.0500012  42.2874997  26.7329988  46.4875413  42.3471985  26.0720622
  41.3730012  43.9764997  24.7489988  40.4830012  44.0764997  24.4089988
  41.6690012  43.1344997  24.4029988  41.2912823  43.8763546  24.6557213
  45.0260012  43.9764997  22.4059988  45.9570012  44.1054997  22.5839988
  44.8110012  44.6464997  21.7559988  45.1244247  44.0846565  22.3425747
  50.9490012  41.5824997  29.1869988  50.2730012  41.7134997  29.8509988
  50.4640012  41.4274997  28.3769988  50.7907145  41.5794905  29.1684517
  43.7000012  45.1714997  19.9729988  43.1570012  44.7914997  19.2809988
  44.5330012  45.3654997  19.5439988  43.7384399  45.1458124  19.8204526
  54.2370012  57.2544997  35.4639988  54.4370012  57.6784997  34.6289988
  54.8920012  57.5974997  36.0709988  54.3530051  57.3589648  35.4317836
  41.8350012  49.7284997  35.0719988  42.5670012  49.9824997  35.6329988
  41.0550012  49.9324997  35.5869988  41.8298232  49.7909177  35.2185760
  47.8640012  45.1354997  27.8099988  48.4290012  44.5884997  27.2629988
  47.7170012  44.6134997  28.5979988  47.9212918  44.9902024  27.8418454
  42.8660012  41.2714997  24.2279988  42.5490012  40.3694997  24.1929988
  43.6480012  41.2734997  23.6749988  42.9282284  41.1481628  24.1484783
  46.4910012  43.5234997  30.2239988  45.6550012  43.9774997  30.3339988
  47.0150012  43.7994997  30.9759988  46.4474414  43.6229376  30.3407136
  47.0350012  49.7364997  21.9079988  46.2900012  49.2294997  21.5859988
  46.9010012  49.7854997  22.8549988  46.9148776  49.6736940  21.9918647
  54.1850012  48.8694997  30.6949988  54.8270012  49.3264997  30.1509988
  53.3550012  48.9824997  30.2319988  54.1605963  48.9472704  30.5580177
  50.9330012  42.5504997  20.1079988  49.9940012  42.6624997  19.9559988
  51.2300012  43.4074997  20.4139988  50.8447666  42.6816443  20.1285768
  48.5540012  49.9204997  33.1449988  48.2090012  49.5394997  33.9519988
  48.3540012  50.8544997  33.2169988  48.4798061  49.9945228  33.2650961
  51.6510012  44.4174997  21.7679988  52.5430012  44.2804997  22.0869988
  51.7080012  45.2084997  21.2319988  51.7806285  44.5056660  21.7391691
  42.1600012  49.0314997  27.6779988  42.9050012  49.0294997  27.0769988
  42.2380012  48.2084997  28.1599988  42.2725518  48.9199315  27.6608929
  49.1610012  51.1954997  20.9339988  48.8650012  52.0214997  21.3149988
  48.4580012  50.5754997  21.1299988  49.0254914  51.2248199  21.0126443
  39.1680012  47.4924997  32.9929988  39.3910012  47.0744997  33.8249988
  38.5660012  46.8794997  32.5699988  39.1171759  47.3524668  33.0497022
  46.1840012  47.0094997  35.2059988  45.8880012  46.8434997  34.3109988
  47.1160012  46.7894997  35.1949988  46.2694166  46.9570640  35.0820536
  50.8050012  52.3824997  33.0959988  49.9040012  52.5654997  32.8279988
  50.8390012  52.6414997  34.0169988  50.6863041  52.4425512  33.1838197
  56.5360012  44.6274997  21.4629988  55.9820012  44.2314997  20.7909988
  56.6360012  45.5374997  21.1849988  56.4737059  44.6963586  21.3334401
  56.4990012  50.4274997  34.2999988  55.6480012  50.6654997  33.9329988
  57.0900012  50.4104997  33.5469988  56.4622487  50.4578258  34.1478893
  54.8310012  53.4134997  21.9279988  54.4580012  52.5874997  22.2369988
  55.1090012  53.2304997  21.0309988  54.8175630  53.2757303  21.8489626
  51.9920012  48.2214997  28.9489988  51.0630012  47.9894997  28.9219988
  52.4430012  47.4444997  28.6189988  51.9259216  48.0847238  28.9006917
  44.5350012  52.5494997  25.0819988  45.0620012  53.3224997  24.8819988
  43.6550012  52.7744997  24.7809988  44.4881773  52.6858005  25.0139010
  40.2900012  47.4114997  19.6689988  40.9060012  48.0384997  20.0489988
  39.4280012  47.7274997  19.9409988  40.2577698  47.5399430  19.7577183
  45.9620012  50.2124997  24.6589988  45.7210012  51.1374997  24.6999988
  45.2210012  49.7534997  25.0549988  45.8288409  50.2771421  24.7181377
  46.4770012  54.3614997  30.9739988  46.8390012  55.2164997  30.7399988
  47.0080012  54.0694997  31.7139988  46.5984473  54.4391060  31.0420855
  44.6450012  55.2344997  24.2039988  43.6950012  55.3394997  24.2549988
  44.9970012  56.0544997  24.5489988  44.5624203  55.3598314  24.2576650
  50.0210012  50.4604997  30.6739988  49.5950012  50.2334997  31.5009988
  50.6010012  49.7224997  30.4919988  50.0411868  50.3295299  30.7625830
  52.2240012  51.3894997  19.7479988  52.5770012  51.0094997  20.5529988
  51.2750012  51.2964997  19.8349988  52.1440441  51.3249596  19.8698559
  52.6790012  55.0124997  33.1439988  52.0780012  54.4574997  32.6479988
  52.9610012  55.6794997  32.5179988  52.6348519  55.0266841  32.9914952
  56.7270012  55.8694997  19.9489988  57.4710012  56.4554997  19.8089988
  56.0330012  56.4374997  20.2829988  56.7350292  56.0265582  19.9749961
  40.8020012  42.2454997  32.5509988  39.9090012  42.5844997  32.4829988
  40.7030012  41.3904997  32.9689988  40.6664164  42.1762588  32.5982235
  53.0900012  50.0624997  21.9749988  52.8120012  49.3344997  22.5309988
  54.0170012  50.1814997  22.1799988  53.1773124  49.9788802  22.0788845
  40.4530012  54.0504997  30.9859988  40.6700012  53.1184997  30.9549988
  40.6990012  54.3244997  31.8689988  40.5159549  53.9600636  31.1011763
  46.3150012  52.5014997  18.1949988  46.5540012  51.7534997  17.6479988
  46.0460012  52.1134997  19.0279988  46.3113675  52.3466638  18.2326865
  45.2520012  52.0714997  20.6519988  45.3980012  51.5514997  21.4419988
  45.2490012  52.9784997  20.9579988  45.2715989  52.1228853  20.8016088
  41.7050012  49.3244997  21.1619988  41.0190012  49.6764997  21.7289988
  42.2270012  50.0874997  20.9149988  41.6816852  49.4758578  21.2062118
  49.5360012  41.9864997  31.4409988  50.2350012  42.0604997  32.0909988
  49.1550012  41.1224997  31.5949988  49.5801767  41.8797624  31.5508322
  50.3210012  41.6384997  22.5379988  50.5410012  42.1104997  21.7349988
  50.8790012  42.0334997  23.2079988  50.4264968  41.7564285  22.5187331
  47.9890012  53.7694997  21.4009988  47.1730012  54.2664997  21.4529988
  48.5190012  54.2444997  20.7609988  47.9489161  53.9017722  21.3215956
  47.5210012  43.3664997  23.3729988  48.3330012  43.8714997  23.4189988
  47.2760012  43.2214997  24.2869988  47.5990520  43.4160375  23.5028517
  48.0560012  44.3524997  32.5579988  48.1750012  44.9264997  33.3149988
  48.7120012  43.6644997  32.6719988  48.1609757  44.3381079  32.6770825
  48.4040012  40.4474997  24.3109988  48.0580012  41.0654997  24.9559988
  49.0630012  40.9484997  23.8299988  48.4457826  40.5995802  24.3340971
  45.3280012  54.8134997  21.3829988  45.4880012  55.6124997  20.8819988
  45.1300012  55.1194997  22.2679988  45.3231649  54.9644469  21.4339815
  44.0620012  41.5104997  20.9979988  43.9790012  42.3994997  21.3449988
  44.9520012  41.2454997  21.2299988  44.1709469  41.5961430  21.0767626
  54.2610012  42.2594997  33.3929988  53.3440012  42.5224997  33.3049988
  54.5960012  42.2564997  32.4959988  54.1809900  42.2950224  33.2597919
  52.8630012  46.0104997  27.4879988  52.0650012  45.5954997  27.1599988
  53.3080012  45.3194997  27.9789988  52.8139885  45.8603543  27.5094889
  42.3210012  51.9384997  20.0589988  42.9130012  52.6374997  20.3349988
  42.7800012  51.5054997  19.3389988  42.4641142  51.9757049  19.9994830
  40.6370012  44.6024997  19.1749988  40.5920012  45.5414997  19.3529988
  39.7490012  44.3664997  18.9049988  40.5108574  44.6991892  19.1628912
  53.9490012  55.2664997  29.1109988  53.7940012  55.9444997  28.4539988
  54.8820012  55.3384997  29.3139988  54.0538500  55.3690170  29.0485119
  41.4450012  39.3844997  27.8479988  41.2160012  39.4434997  26.9199988
  41.0020012  38.5924997  28.1539988  41.3538530  39.2855753  27.7624786
  40.3750012  53.3244997  24.0079988  39.5430012  53.7974997  24.0359988
  40.9210012  53.8344997  23.4099988  40.3349739  53.4581871  23.9309716
  39.6630012  55.9374997  35.3379988  40.2040012  55.7204997  36.0979988
  39.1820012  55.1314997  35.1489988  39.6719345  55.7989514  35.4163076
  44.2610012  54.8564997  36.9589988  45.0280012  54.3974997  37.2999988
  44.2390012  54.6304997  36.0289988  44.3631434  54.7630409  36.8800043
  48.3530012  54.3644997  18.3339988  47.7090012  53.7334997  18.6549988
  49.1150012  53.8334997  18.1019988  48.3678077  54.2062920  18.3466011
  50.8380012  53.2364997  35.6879988  50.4870012  52.3804997  35.9309988
  51.5640012  53.3794997  36.2949988  50.8880769  53.1385636  35.8033619
  52.9570012  54.1814997  18.5679988  53.2400012  53.3874997  19.0199988
  53.6970012  54.4144997  18.0069988  53.0957486  54.1042803  18.5540698
  39.5700012  49.7474997  36.2929988  39.7140012  48.8454997  36.0059988
  38.7980012  50.0334997  35.8049988  39.4853322  49.6628261  36.1877881
  43.9120012  50.0914997  18.4249988  43.9760012  49.2974997  18.9559988
  44.5650012  49.9724997  17.7349988  44.0090241  49.9667148  18.4044317
  46.2260012  49.7174997  35.7249988  45.8970012  49.9884997  34.8679988
  46.3780012  48.7764997  35.6379988  46.2014809  49.6273862  35.5958244
  49.2640012  51.1384997  18.1609988  48.9950012  51.3184997  19.0619988
  49.0580012  50.2124997  18.0299988  49.1993825  51.0380152  18.2665214
  51.9600012  49.6334997  33.1089988  52.7060012  50.2214997  32.9889988
  51.2030012  50.2154997  33.1719988  51.9597554  49.7927011  33.1010907
  40.4030012  46.9474997  35.7129988  40.8110012  46.0904997  35.5919988
  40.1430012  46.9624997  36.6339988  40.4237568  46.8320807  35.8209588
  45.0610012  48.0634997  20.7309988  44.6010012  47.5794997  21.4169988
  45.3160012  47.3954997  20.0949988  45.0324902  47.9068731  20.7389334
  44.3500012  45.9564997  33.0869988  43.7320012  46.6314997  33.3669988
  44.6940012  46.2774997  32.2539988  44.3119615  46.0922721  33.0126581
  46.1320012  46.3064997  18.9929988  45.9520012  46.1524997  18.0659988
  47.0820012  46.4144997  19.0379988  46.2357776  46.3000175  18.8721843
  49.3700012  48.4284997  36.3639988  50.3230012  48.5114997  36.3369988
  49.2090012  47.7164997  36.9839988  49.4786426  48.3436746  36.4440579
  55.5220012  48.6614997  18.4389988  55.2480012  48.2364997  17.6259988
  55.5610012  49.5924997  18.2219988  55.4897699  48.7292484  18.2983610
  44.6890012  43.3114997  34.1689988  44.8390012  42.5824997  33.5669988
  44.6920012  44.0884997  33.6099988  44.7099302  43.3167851  34.0110692
  45.1020012  41.6814997  31.6619988  45.6380012  42.1324997  31.0099988
  44.2500012  41.5734997  31.2389988  45.0602178  41.7286390  31.5155756
  46.6840012  47.1204997  31.9009988  47.4340012  46.9644997  31.3279988
  46.3450012  47.9724997  31.6259988  46.7408921  47.2142968  31.7853561
  51.0990012  44.9354997  36.9299988  51.2920012  44.0044997  36.8179988
  51.9570012  45.3604997  36.9199988  51.2413020  44.8656389  36.9133361
  52.4160012  47.7244997  35.0069988  52.1350012  48.4334997  34.4299988
  53.3590012  47.6514997  34.8559988  52.5049027  47.8117646  34.9075551
  43.1680012  44.5094997  36.0809988  42.4010012  43.9774997  35.8709988
  43.8470012  44.1994997  35.4809988  43.1547022  44.3947506  35.9711648
  45.9080012  39.1374997  32.0929988  45.8090012  40.0844997  31.9879988
  45.1650012  38.7654997  31.6179988  45.7940563  39.2165902  32.0144560
  47.1720012  43.4594997  35.6569988  46.9360012  43.2394997  36.5589988
  46.3880012  43.2524997  35.1469988  47.0338628  43.4014760  35.7113932
  49.8870012  42.5864997  34.7329988  48.9400012  42.6184997  34.8649988
  50.2000012  41.9614997  35.3859988  49.7995475  42.5063207  34.8394455
  51.5210012  41.2204997  36.7379988  51.4250012  40.2684997  36.7319988
  51.2000012  41.4894997  37.5979988  51.4644070  41.1264035  36.8535441
  41.3480012  42.4304997  35.7849988  41.5600012  41.7234997  35.1749988
  41.2370012  41.9924997  36.6289988  41.3619721  42.2747084  35.8156843
  46.1290012  38.4314997  34.7649988  46.8410012  37.7914997  34.7509988
  46.0280012  38.6984997  33.8509988  46.2127939  38.3799938  34.6395650
  46.4830012  40.1144997  36.8179988  46.3510012  39.6384997  35.9979988
  45.8840012  40.8584997  36.7629988  46.3839071  40.1499618  36.6982886
  46.0290012  56.9974997  19.9949988  46.9620012  57.1554997  20.1379988
  45.7650012  57.6724997  19.3699988  46.1209510  57.1103611  19.9300741
  39.5980012  51.6334997  19.4769988  40.5120012  51.7124997  19.7509988
  39.6050012  50.9464997  18.8109988  39.7241131  51.5513961  19.4244393
  38.2470012  57.0264997  24.5549988  37.6000012  56.5644997  24.0219988
  38.6010012  56.3544997  25.1369988  38.2063849  56.8724723  24.5607959
  39.1170012  55.1074997  26.3589988  38.7820012  54.2274997  26.5309988
  39.3390012  55.4524997  27.2239988  39.1011783  55.0337500  26.4994208
  56.6650012  55.9164997  29.3399988  56.6440012  56.1014997  30.2789988
  57.3560012  56.4854997  28.9989988  56.7554618  56.0186606  29.4223864
  56.2290012  55.4844997  32.2619988  55.7410012  54.7484997  31.8909988
  56.7780012  55.0904997  32.9399988  56.2364872  55.3306249  32.3029160
  54.6790012  51.2734997  36.8999988  53.8130012  51.1684997  37.2939988
  55.0560012  52.0324997  37.3459988  54.6113308  51.3616900  37.0142393
  55.9800012  49.5304997  22.4139988  56.8300012  49.9514997  22.5409988
  55.9860012  48.7904997  23.0209988  56.0971372  49.4880803  22.5134344
  56.3750012  47.5834997  24.2379988  55.6480012  47.1044997  24.6349988
  56.9560012  47.7894997  24.9699988  56.3539375  47.5457090  24.3914129
  56.1340012  50.3684997  29.1849988  56.9670012  49.9904997  28.9049988
  56.2460012  51.3114997  29.0659988  56.2632647  50.4442218  29.1305487
  54.6200012  53.2464997  31.4919988  53.9730012  53.5714997  32.1179988
  54.1030012  52.8064997  30.8179988  54.4614029  53.2315004  31.4865827
  56.6430012  47.4844997  20.6289988  56.1210012  47.8414997  19.9099988
  56.6100012  48.1594997  21.3069988  56.5671634  47.6245413  20.6223145
  54.9920012  44.7244997  19.1799988  55.0880012  45.3914997  18.4989988
  54.8520012  43.9084997  18.6979988  54.9862135  44.7054500  19.0218491
  54.1610012  46.1044997  24.8009988  54.0110012  45.1594997  24.7799988
  53.8080012  46.3854997  25.6439988  54.0926625  46.0130441  24.9122346
  39.1970012  48.1824997  28.8109988  39.3810012  48.1004997  27.8749988
  40.0460012  48.0584997  29.2349988  39.3370139  48.1545003  28.7401455
  55.0180012  48.0744997  34.4389988  55.6010012  47.3404997  34.6309988
  55.5820012  48.8464997  34.4859988  55.1739769  48.0784227  34.4716159
  56.5140012  45.9774997  35.1239988  55.6510012  45.5984997  34.9579988
  57.1190012  45.2384997  35.0499988  56.4775979  45.8258023  35.0912817
  54.2390012  42.1324997  18.2969988  54.8500012  41.7614997  18.9339988
  53.4030012  41.7114997  18.4929988  54.2095032  42.0247554  18.4107035
  53.8720012  43.6874997  23.2629988  54.1520012  42.7804997  23.3869988
  54.6310012  44.1214997  22.8739988  54.0129277  43.6220942  23.2273682
  54.4840012  44.2684997  28.6989988  55.4170012  44.4804997  28.6649988
  54.2490012  44.3704997  29.6209988  54.5798036  44.3112769  28.8189976
  54.5130012  45.0054997  31.4749988  53.6700012  45.2734997  31.8409988
  54.9550012  45.8274997  31.2639988  54.4574158  45.1533291  31.4965491
  38.7940012  43.4534997  34.9519988  39.7140012  43.3314997  35.1879988
  38.3450012  42.7034997  35.3409988  38.8591580  43.3353727  35.0369006
  56.7960012  38.9854997  36.8279988  57.1460012  38.3314997  36.2229988
  56.9430012  39.8224997  36.3889988  56.8638419  39.0091591  36.6857118
  54.4850012  40.9504997  23.3109988  54.6680012  40.5014997  24.1369988
  53.8860012  40.3654997  22.8479988  54.4290202  40.8099975  23.3613275
  40.0150012  41.7654997  27.8429988  40.4610012  40.9734997  28.1449988
  40.4820012  42.4814997  28.2739988  40.1390172  41.7540624  27.9424820
  38.3190012  44.7644997  28.9119988  38.8110012  44.5434997  28.1209988
  38.6820012  45.6054997  29.1929988  38.4353126  44.8478357  28.8417531
  56.3160012  41.0944997  35.1779988  55.3980012  41.3654997  35.1419988
  56.4390012  40.5594997  34.3929988  56.2071066  41.0592892  35.0670487
  56.3520012  41.0174997  19.8389988  56.7640012  40.2964997  19.3639988
  57.0340012  41.6874997  19.8979988  56.5005885  41.0092368  19.7818915
  38.6330012  41.0224997  22.9659988  37.7080012  41.2314997  22.8369988
  39.0870012  41.5064997  22.2769988  38.5677368  41.1165993  22.8551226
  53.4040012  56.0064997  24.9119988  54.0560012  55.6594997  24.3039988
  53.9140012  56.4954997  25.5579988  53.5622637  56.0250597  24.9160236
  38.5970012  39.7604997  31.3109988  37.9320012  39.5144997  31.9539988
  38.1540012  40.3824997  30.7329988  38.4460956  39.8108632  31.3209352
  40.7890012  52.9354997  35.4549988  39.9680012  53.1104997  34.9949988
  40.5360012  52.8624997  36.3759988  40.6426164  52.9495622  35.5164923
  43.7430012  53.9104997  31.7139988  43.3180012  54.7194997  31.4309988
  44.6470012  53.9954997  31.4119988  43.8070271  54.0328469  31.6343776
  48.0540012  55.3094997  34.6729988  48.2390012  54.9754997  35.5509988
  48.9000012  55.6184997  34.3509988  48.1937539  55.3056047  34.7495605
  50.3990012  56.5954997  33.9169988  51.0760012  55.9624997  33.6769988
  50.7210012  56.9964997  34.7239988  50.5351637  56.5631154  33.9932793
  55.3160012  39.1844997  32.9969988  54.5040012  39.5094997  32.6089988
  55.5490012  38.4244997  32.4639988  55.2363423  39.1262436  32.8718253
  41.1450012  57.1664997  31.7609988  40.4240012  57.6064997  31.3099988
  40.7790012  56.9154997  32.6099988  40.9969804  57.1927698  31.8139840
  43.6120012  56.7664997  30.7909988  42.7470012  56.8384997  31.1949988
  43.5570012  57.3134997  30.0069988  43.4862085  56.8502685  30.7403362
  48.3220012  56.6544997  29.9659988  47.8660012  57.1834997  29.3119988
  48.4850012  57.2574997  30.6919988  48.2815585  56.8084468  29.9745062
  50.6500012  55.5324997  30.9109988  49.7450012  55.6974997  30.6459988
  51.0790012  56.3854997  30.8459988  50.5840799  55.6704483  30.8659182
  53.2540012  57.1024997  31.2059988  53.0720012  58.0184997  30.9959988
  53.4310012  56.6924997  30.3599988  53.2530210  57.1724822  31.0627885
  40.5590012  55.7894997  28.6709988  40.5410012  55.3644997  29.5289988
  41.3640012  55.4714997  28.2629988  40.6653875  55.6883812  28.7331655
  42.7010012  54.4994997  27.3259988  42.4820012  53.5834997  27.4959988
  43.5250012  54.6394997  27.7919988  42.7824420  54.3930520  27.4122774
  45.2380012  54.9694997  28.1749988  45.4510012  54.0814997  27.8879988
  45.3020012  54.9354997  29.1289988  45.2758232  54.8433102  28.2647397
  48.7460012  40.6334997  27.3189988  48.0720012  40.0044997  27.5749988
  49.3100012  40.1494997  26.7159988  48.7299230  40.4818744  27.2725340
  53.8890012  38.7414997  27.4319988  54.4930012  39.2884997  26.9299988
  53.0190012  39.0604997  27.1919988  53.8541241  38.8595806  27.3307654
  55.6160012  39.8794997  25.7649988  56.2280012  39.3654997  25.2389988
  55.9980012  40.7574997  25.7889988  55.7514540  39.9277140  25.6961830
  41.0730012  39.2674997  25.1409988  40.2960012  39.0334997  24.6339988
  41.6030012  38.4704997  25.1499988  41.0382330  39.1276988  25.0727742
  39.9090012  39.0654997  20.9449988  40.3480012  39.6764997  20.3529988
  39.2760012  39.6034997  21.4189988  39.8834514  39.2219257  20.9280930
  45.6520012  39.1944997  24.9549988  46.5270012  39.5824997  24.9249988
  45.5160012  38.9794997  25.8769988  45.7533695  39.2185184  25.0756440
  51.2090012  39.2244997  26.6039988  51.2850012  39.3194997  25.6539988
  50.9340012  38.3164997  26.7329988  51.1822321  39.1147867  26.4915079
  52.5620012  39.2504997  22.2959988  51.8600012  39.8654997  22.0869988
  52.1180012  38.4124997  22.4269988  52.4056330  39.2215783  22.2850328
  39.8100012  55.0134997  21.8429988  39.1250012  54.9754997  21.1749988
  39.8140012  55.9264997  22.1309988  39.7168193  55.1317016  21.7905284
  41.7700012  40.9814997  19.3869988  42.2620012  40.3514997  18.8599988
  42.3940012  41.2774997  20.0509988  41.9215446  40.9353199  19.4045980
  46.7960012  41.2744997  21.8439988  46.9740012  40.6284997  22.5269988
  46.7430012  42.1084997  22.3119988  46.8131829  41.2987985  22.0005940
  48.6750012  56.2234997  20.2399988  49.5410012  56.5894997  20.0619988
  48.4280012  55.7834997  19.4259988  48.7602392  56.2141756  20.1056289
  55.3840012  55.7864997  22.9189988  55.1890012  55.0384997  22.3539988
  55.3450012  56.5444997  22.3359988  55.3520380  55.7866099  22.7628384
  41.0310012  39.7814997  34.6589988  40.6650012  39.0164997  35.1019988
  41.9440012  39.8104997  34.9459988  41.1042790  39.6807224  34.7584070
  43.0040012  39.1324997  36.1949988  43.9020012  38.8584997  36.0099988
  42.6170012  38.3894997  36.6589988  43.0746612  38.9945914  36.2323643
  41.6280012  55.9334997  18.8679988  41.3610012  56.2204997  19.7409988
  42.4000012  55.3874997  19.0199988  41.6957488  55.8990294  19.0081050
  51.4250012  38.4644997  36.3769988  51.5020012  38.0384997  37.2309988
  52.3190012  38.4784997  36.0339988  51.5563428  38.4080879  36.4475310
  54.6010012  54.5374997  35.0689988  53.8190012  54.3514997  34.5499988
  54.5290012  55.4664997  35.2869988  54.4841777  54.6376492  35.0274048
  69.0070012  48.4234997  25.0999988  69.0960012  49.3674997  24.9679988
  68.3690012  48.1484997  24.4419988  68.9329081  48.5154830  24.9929614
  67.9400012  47.6784997  28.5189988  67.9020012  47.0324997  29.2239988
  67.6180012  47.2124997  27.7479988  67.8912333  47.5269408  28.5112978
  60.3090012  47.2934997  30.1119988  60.3500012  46.6674997  30.8349988
  61.0120012  47.9174997  30.2939988  60.4096363  47.2921196  30.2356044
  71.6460012  50.6174997  26.8199988  71.2060012  49.8974997  27.2709988
  71.6330012  51.3384997  27.4499988  71.5840226  50.6163731  26.9668494
  61.2320012  51.7434997  28.6469988  60.8630012  50.9414997  28.2769988
  62.1730012  51.5744997  28.6929988  61.3087289  51.6110153  28.6026316
  57.8420012  45.4034997  24.0399988  57.3950012  46.2494997  24.0209988
  57.2810012  44.8234997  23.5239988  57.7049900  45.4409916  23.9676801
  58.5530012  47.5654997  26.1659988  58.7660012  46.7954997  26.6929988
  59.2910012  47.6544997  25.5619988  58.6818496  47.4721394  26.1565300
  74.9930012  41.7124997  29.7859988  75.0420012  42.3224997  30.5219988
  75.4180012  42.1734997  29.0629988  75.0571824  41.8583741  29.7890205
  69.4710012  44.5054997  29.2529988  69.6130012  43.5594997  29.2729988
  69.3640012  44.7124997  28.3239988  69.4759864  44.4039534  29.1302339
  62.6250012  42.6064997  26.5249988  62.6690012  43.4664997  26.1069988
  62.1680012  42.0544997  25.8909988  62.5692185  42.6495799  26.3820299
  70.3480012  42.7374997  24.9259988  70.9940012  42.4084997  25.5509988
  70.8580012  43.2554997  24.3029988  70.5054264  42.7624611  24.9273862
  59.2460012  45.0034997  27.2869988  59.8990012  44.4534997  27.7189988
  59.2700012  44.7294997  26.3699988  59.3386683  44.8911466  27.2222123
  64.4020012  46.5534997  26.5019988  65.0180012  46.0274997  27.0119988
  63.8160012  45.9134997  26.0989988  64.4070810  46.3949208  26.5173173
  75.3840012  43.1904997  32.0219988  74.6960012  43.8484997  31.9259988
  75.4000012  42.9934997  32.9579988  75.2918525  43.2540462  32.1354808
  61.4360012  41.5244997  30.5989988  61.2170012  42.0544997  29.8329988
  60.7680012  41.7514997  31.2459988  61.3157600  41.6276906  30.5816379
  68.8050012  51.0244997  24.1429988  68.5090012  50.7024997  23.2919988
  68.4800012  51.9244997  24.1839988  68.7206371  51.1020215  24.0321801
  72.1120012  42.0284997  26.9059988  71.8960012  41.2624997  27.4389988
  72.7670012  42.5004997  27.4189988  72.1710632  41.9875889  27.0482861
  61.0290012  43.4164997  28.5509988  61.6430012  44.0494997  28.9249988
  61.5410012  42.9444997  27.8949988  61.1822296  43.4392370  28.5134252
  58.5330012  50.8354997  22.4559988  58.2610012  51.0644997  21.5669988
  58.5790012  51.6734997  22.9159988  58.5020094  50.9801213  22.3965697
  72.4590012  40.7434997  30.5859988  71.7230012  41.3544997  30.5479988
  73.1420012  41.1584997  30.0589988  72.4506541  40.8831374  30.5095832
  65.4620012  38.8304997  28.0519988  65.3450012  37.8814997  27.9969988
  64.6070012  39.1624997  28.3249988  65.3303733  38.7455409  28.0813897
  70.4100012  54.2384997  25.7939988  70.8360012  53.5314997  25.3089988
  70.7270012  55.0394997  25.3769988  70.5111019  54.2500994  25.6713130
  71.5700012  52.1394997  24.3019988  71.3120012  51.4494997  23.6909988
  71.6410012  51.6964997  25.1479988  71.5442856  51.9852124  24.3326885
  67.7290012  47.6674997  22.5519988  67.0170012  48.2024997  22.1999988
  68.4200012  47.7234997  21.8919988  67.7250132  47.7482543  22.4146289
  67.7820012  46.1254997  19.5909988  68.4830012  46.1474997  20.2419988
  68.0850012  45.4974997  18.9349988  67.9187830  46.0436566  19.5913711
  75.0980012  47.0454997  30.8459988  74.4450012  47.7404997  30.9349988
  75.5630012  47.2554997  30.0359988  75.0715390  47.1689425  30.7486883
  71.1340012  47.8774997  23.5039988  70.4020012  48.1054997  24.0769988
  71.5820012  47.1634997  23.9589988  71.0943095  47.8122571  23.6439119
  62.7800012  48.5074997  25.3859988  62.4490012  48.1374997  24.5679988
  63.3680012  47.8374997  25.7329988  62.8141873  48.3661156  25.3208102
  64.1460012  51.9354997  28.0679988  64.0520012  51.3574997  27.3109988
  64.8760012  51.5644997  28.5639988  64.2317981  51.8062390  28.0314165
  63.1460012  47.2764997  29.0199988  63.7120012  47.3974997  28.2569988
  63.4650012  47.9134997  29.6589988  63.2665786  47.3791884  29.0020040
  70.0050012  47.0394997  21.1889988  70.5850012  47.1894997  21.9359988
  70.4190012  47.5104997  20.4659988  70.1402830  47.1236841  21.1934134
  60.9460012  47.8734997  32.9659988  61.0170012  48.5244997  33.6639988
  60.0560012  47.9764997  32.6309988  60.8353117  47.9765936  33.0162700
  67.7320012  53.7764997  24.6239988  68.2060012  54.0714997  25.4019988
  67.1690012  54.5144997  24.3909988  67.7207653  53.9166932  24.6990136
  73.7040012  38.7894997  21.0019988  72.8040012  38.9284997  21.2969988
  73.9560012  39.6204997  20.5999988  73.6148702  38.9209074  20.9880205
  61.7700012  47.5774997  22.9759988  61.4780012  48.3454997  22.4849988
  61.0960012  46.9174997  22.8129988  61.6389081  47.5934406  22.8867340
  74.8930012  53.1554997  19.3779988  74.9670012  54.0944997  19.5489988
  75.7990012  52.8504997  19.3219988  75.0255100  53.2426722  19.3938119
  57.8630012  49.9404997  31.7909988  57.3620012  49.9124997  30.9759988
  57.8680012  49.0344997  32.0999988  57.7951526  49.8142278  31.7212872
  57.6130012  52.7204997  28.6749988  58.5590012  52.5764997  28.6559988
  57.5010012  53.5044997  29.2119988  57.7272727  52.8068046  28.7450072
  67.2040012  56.7324997  23.0389988  67.1290012  56.6114997  22.0929988
  67.2370012  57.6824997  23.1579988  67.1981848  56.8442500  22.9254834
  60.8570012  55.5214997  24.8199988  61.0100012  55.1734997  25.6989988
  60.0070012  55.1654997  24.5649988  60.7628962  55.4256650  24.9058340
  70.3060012  55.8864997  20.0409988  70.6810012  55.1424997  19.5709988
  70.3100012  55.6164997  20.9599988  70.3578915  55.7481486  20.1007824
  69.9750012  55.8124997  22.7909988  69.0390012  55.9124997  22.9689988
  70.2550012  55.1034997  23.3689988  69.8848255  55.7302711  22.8935391
  72.9630012  44.8794997  34.8369988  72.5560012  45.3604997  34.1159988
  73.0040012  43.9744997  34.5289988  72.9128437  44.8229374  34.6966683
  60.1120012  51.2634997  32.8339988  60.3280012  50.9024997  33.6929988
  59.2570012  50.8894997  32.6239988  60.0259292  51.1634111  32.9233386
  62.7310012  39.7334997  28.8289988  61.8690012  39.6464997  28.4219988
  62.7080012  40.5894997  29.2569988  62.6100330  39.8372765  28.8311863
  67.3940012  39.4554997  32.2039988  67.8140012  39.0404997  32.9569988
  66.4610012  39.2774997  32.3209988  67.3253644  39.3745900  32.3229539
  70.7200012  43.2114997  33.0569988  70.2060012  43.0854997  33.8549988
  70.5650012  44.1234997  32.8129988  70.6286852  43.3176132  33.1332158
  71.4830012  48.0724997  18.8189988  71.5250012  47.8494997  17.8889988
  72.3320012  48.4714997  19.0089988  71.6035396  48.0959155  18.7173627
  67.0550012  41.9484997  19.4889988  66.8020012  41.9674997  20.4119988
  66.7990012  41.0764997  19.1879988  66.9857790  41.8332437  19.5746263
  62.8220012  44.6994997  29.9239988  62.1800012  44.6584997  30.6329988
  62.8590012  45.6254997  29.6869988  62.7391324  44.8191559  29.9889824
  62.8190012  44.9204997  24.8359988  61.9260012  44.5794997  24.7779988
  63.2690012  44.5434997  24.0809988  62.7577305  44.8228484  24.7259177
  68.3540012  45.3364997  23.6529988  67.9450012  46.1514997  23.3619988
  69.0750012  45.1964997  23.0389988  68.3954537  45.4292018  23.5301342
  69.3590012  44.7824997  26.4669988  69.1640012  45.3874997  25.7519988
  69.5400012  43.9484997  26.0329988  69.3567614  44.7526300  26.3104405
  60.5720012  45.0194997  31.7909988  60.5340012  45.4194997  32.6599988
  60.0810012  44.2024997  31.8819988  60.5004684  44.9638069  31.9221059
  63.9380012  42.3934997  18.5899988  63.5070012  41.9484997  19.3199988
  63.2200012  42.7654997  18.0779988  63.7819438  42.3828940  18.6206799
  57.1800012  42.1354997  25.6419988  57.8110012  42.1064997  26.3609988
  57.6290012  41.7104997  24.9119988  57.3270774  42.0740492  25.6416553
  58.4540012  42.8814997  21.0659988  58.9280012  43.4724997  20.4809988
  57.7370012  43.4124997  21.4129988  58.4219341  43.0340867  21.0328836
  65.4000012  42.3474997  25.9229988  64.4890012  42.4044997  26.2109988
  65.9060012  42.2874997  26.7329988  65.3435413  42.3471985  26.0720622
  60.2290012  43.9764997  24.7489988  59.3390012  44.0764997  24.4089988
  60.5250012  43.1344997  24.4029988  60.1472823  43.8763545  24.6557213
  63.8820012  43.9764997  22.4059988  64.8130012  44.1054997  22.5839988
  63.6670012  44.6464997  21.7559988  63.9804247  44.0846565  22.3425747
  69.8050012  41.5824997  29.1869988  69.1290012  41.7134997  29.8509988
  69.3200012  41.4274997  28.3769988  69.6467145  41.5794905  29.1684517
  62.5560012  45.1714997  19.9729988  62.0130012  44.7914997  19.2809988
  63.3890012  45.3654997  19.5439988  62.5944399  45.1458124  19.8204526
  60.6910012  49.7284997  35.0719988  61.4230012  49.9824997  35.6329988
  59.9110012  49.9324997  35.5869988  60.6858232  49.7909177  35.2185760
  66.7200012  45.1354997  27.8099988  67.2850012  44.5884997  27.2629988
  66.5730012  44.6134997  28.5979988  66.7772918  44.9902024  27.8418454
  61.7220012  41.2714997  24.2279988  61.4050012  40.3694997  24.1929988
  62.5040012  41.2734997  23.6749988  61.7842284  41.1481628  24.1484783
  65.3470012  43.5234997  30.2239988  64.5110012  43.9774997  30.3339988
  65.8710012  43.7994997  30.9759988  65.3034414  43.6229376  30.3407136
  65.8910012  49.7364997  21.9079988  65.1460012  49.2294997  21.5859988
  65.7570012  49.7854997  22.8549988  65.7708776  49.6736940  21.9918647
  69.7890012  42.5504997  20.1079988  68.8500012  42.6624997  19.9559988
  70.0860012  43.4074997  20.4139988  69.7007666  42.6816443  20.1285768
  70.5070012  44.4174997  21.7679988  71.3990012  44.2804997  22.0869988
  70.5640012  45.2084997  21.2319988  70.6366285  44.5056660  21.7391691
  61.0160012  49.0314997  27.6779988  61.7610012  49.0294997  27.0769988
  61.0940012  48.2084997  28.1599988  61.1285518  48.9199315  27.6608929
  68.0170012  51.1954997  20.9339988  67.7210012  52.0214997  21.3149988
  67.3140012  50.5754997  21.1299988  67.8814914  51.2248199  21.0126443
  58.0240012  47.4924997  32.9929988  58.2470012  47.0744997  33.8249988
  57.4220012  46.8794997  32.5699988  57.9731759  47.3524668  33.0497022
  75.3920012  44.6274997  21.4629988  74.8380012  44.2314997  20.7909988
  75.4920012  45.5374997  21.1849988  75.3297059  44.6963586  21.3334401
  73.6870012  53.4134997  21.9279988  73.3140012  52.5874997  22.2369988
  73.9650012  53.2304997  21.0309988  73.6735630  53.2757303  21.8489626
  70.8480012  48.2214997  28.9489988  69.9190012  47.9894997  28.9219988
  71.2990012  47.4444997  28.6189988  70.7819216  48.0847238  28.9006917
  63.3910012  52.5494997  25.0819988  63.9180012  53.3224997  24.8819988
  62.5110012  52.7744997  24.7809988  63.3441773  52.6858005  25.0139010
  59.1460012  47.4114997  19.6689988  59.7620012  48.0384997  20.0489988
  58.2840012  47.7274997  19.9409988  59.1137698  47.5399430  19.7577183
  64.8180012  50.2124997  24.6589988  64.5770012  51.1374997  24.6999988
  64.0770012  49.7534997  25.0549988  64.6848409  50.2771421  24.7181377
  63.5010012  55.2344997  24.2039988  62.5510012  55.3394997  24.2549988
  63.8530012  56.0544997  24.5489988  63.4184203  55.3598314  24.2576650
  71.0800012  51.3894997  19.7479988  71.4330012  51.0094997  20.5529988
  70.1310012  51.2964997  19.8349988  71.0000441  51.3249596  19.8698559
  75.5830012  55.8694997  19.9489988  76.3270012  56.4554997  19.8089988
  74.8890012  56.4374997  20.2829988  75.5910292  56.0265582  19.9749961
  59.6580012  42.2454997  32.5509988  58.7650012  42.5844997  32.4829988
  59.5590012  41.3904997  32.9689988  59.5224164  42.1762588  32.5982235
  71.9460012  50.0624997  21.9749988  71.6680012  49.3344997  22.5309988
  72.8730012  50.1814997  22.1799988  72.0333124  49.9788802  22.0788845
  59.3090012  54.0504997  30.9859988  59.5260012  53.1184997  30.9549988
  59.5550012  54.3244997  31.8689988  59.3719549  53.9600636  31.1011763
  65.1710012  52.5014997  18.1949988  65.4100012  51.7534997  17.6479988
  64.9020012  52.1134997  19.0279988  65.1673675  52.3466638  18.2326865
  64.1080012  52.0714997  20.6519988  64.2540012  51.5514997  21.4419988
  64.1050012  52.9784997  20.9579988  64.1275989  52.1228853  20.8016088
  60.5610012  49.3244997  21.1619988  59.8750012  49.6764997  21.7289988
  61.0830012  50.0874997  20.9149988  60.5376852  49.4758578  21.2062118
  68.3920012  41.9864997  31.4409988  69.0910012  42.0604997  32.0909988
  68.0110012  41.1224997  31.5949988  68.4361767  41.8797624  31.5508322
  69.1770012  41.6384997  22.5379988  69.3970012  42.1104997  21.7349988
  69.7350012  42.0334997  23.2079988  69.2824968  41.7564285  22.5187331
  66.8450012  53.7694997  21.4009988  66.0290012  54.2664997  21.4529988
  67.3750012  54.2444997  20.7609988  66.8049161  53.9017722  21.3215956
  66.3770012  43.3664997  23.3729988  67.1890012  43.8714997  23.4189988
  66.1320012  43.2214997  24.2869988  66.4550520  43.4160375  23.5028517
  66.9120012  44.3524997  32.5579988  67.0310012  44.9264997  33.3149988
  67.5680012  43.6644997  32.6719988  67.0169757  44.3381079  32.6770825
  67.2600012  40.4474997  24.3109988  66.9140012  41.0654997  24.9559988
  67.9190012  40.9484997  23.8299988  67.3017826  40.5995802  24.3340971
  64.1840012  54.8134997  21.3829988  64.3440012  55.6124997  20.8819988
  63.9860012  55.1194997  22.2679988  64.1791649  54.9644469  21.4339815
  62.9180012  41.5104997  20.9979988  62.8350012  42.3994997  21.3449988
  63.8080012  41.2454997  21.2299988  63.0269469  41.5961430  21.0767626
  73.1170012  42.2594997  33.3929988  72.2000012  42.5224997  33.3049988
  73.4520012  42.2564997  32.4959988  73.0369900  42.2950224  33.2597919
  71.7190012  46.0104997  27.4879988  70.9210012  45.5954997  27.1599988
  72.1640012  45.3194997  27.9789988  71.6699885  45.8603543  27.5094889
  61.1770012  51.9384997  20.0589988  61.7690012  52.6374997  20.3349988
  61.6360012  51.5054997  19.3389988  61.3201142  51.9757049  19.9994830
  59.4930012  44.6024997  19.1749988  59.4480012  45.5414997  19.3529988
  58.6050012  44.3664997  18.9049988  59.3668574  44.6991892  19.1628912
  60.3010012  39.3844997  27.8479988  60.0720012  39.4434997  26.9199988
  59.8580012  38.5924997  28.1539988  60.2098530  39.2855753  27.7624786
  59.2310012  53.3244997  24.0079988  58.3990012  53.7974997  24.0359988
  59.7770012  53.8344997  23.4099988  59.1909739  53.4581871  23.9309716
  67.2090012  54.3644997  18.3339988  66.5650012  53.7334997  18.6549988
  67.9710012  53.8334997  18.1019988  67.2238077  54.2062920  18.3466011
  71.8130012  54.1814997  18.5679988  72.0960012  53.3874997  19.0199988
  72.5530012  54.4144997  18.0069988  71.9517486  54.1042803  18.5540698
  58.4260012  49.7474997  36.2929988  58.5700012  48.8454997  36.0059988
  57.6540012  50.0334997  35.8049988  58.3413322  49.6628261  36.1877881
  62.7680012  50.0914997  18.4249988  62.8320012  49.2974997  18.9559988
  63.4210012  49.9724997  17.7349988  62.8650241  49.9667148  18.4044317
  68.1200012  51.1384997  18.1609988  67.8510012  51.3184997  19.0619988
  67.9140012  50.2124997  18.0299988  68.0553825  51.0380152  18.2665214
  59.2590012  46.9474997  35.7129988  59.6670012  46.0904997  35.5919988
  58.9990012  46.9624997  36.6339988  59.2797568  46.8320807  35.8209588
  63.9170012  48.0634997  20.7309988  63.4570012  47.5794997  21.4169988
  64.1720012  47.3954997  20.0949988  63.8884902  47.9068731  20.7389334
  63.2060012  45.9564997  33.0869988  62.5880012  46.6314997  33.3669988
  63.5500012  46.2774997  32.2539988  63.1679615  46.0922721  33.0126581
  64.9880012  46.3064997  18.9929988  64.8080012  46.1524997  18.0659988
  65.9380012  46.4144997  19.0379988  65.0917776  46.3000175  18.8721843
  74.3780012  48.6614997  18.4389988  74.1040012  48.2364997  17.6259988
  74.4170012  49.5924997  18.2219988  74.3457699  48.7292484  18.2983610
  63.5450012  43.3114997  34.1689988  63.6950012  42.5824997  33.5669988
  63.5480012  44.0884997  33.6099988  63.5659302  43.3167851  34.0110692
  63.9580012  41.6814997  31.6619988  64.4940012  42.1324997  31.0099988
  63.1060012  41.5734997  31.2389988  63.9162178  41.7286390  31.5155756
  65.5400012  47.1204997  31.9009988  66.2900012  46.9644997  31.3279988
  65.2010012  47.9724997  31.6259988  65.5968921  47.2142968  31.7853561
  69.9550012  44.9354997  36.9299988  70.1480012  44.0044997  36.8179988
  70.8130012  45.3604997  36.9199988  70.0973020  44.8656389  36.9133361
  62.0240012  44.5094997  36.0809988  61.2570012  43.9774997  35.8709988
  62.7030012  44.1994997  35.4809988  62.0107022  44.3947506  35.9711648
  64.7640012  39.1374997  32.0929988  64.6650012  40.0844997  31.9879988
  64.0210012  38.7654997  31.6179988  64.6500564  39.2165902  32.0144560
  66.0280012  43.4594997  35.6569988  65.7920012  43.2394997  36.5589988
  65.2440012  43.2524997  35.1469988  65.8898628  43.4014760  35.7113932
  68.7430012  42.5864997  34.7329988  67.7960012  42.6184997  34.8649988
  69.0560012  41.9614997  35.3859988  68.6555475  42.5063207  34.8394455
  70.3770012  41.2204997  36.7379988  70.2810012  40.2684997  36.7319988
  70.0560012  41.4894997  37.5979988  70.3204070  41.1264035  36.8535441
  60.2040012  42.4304997  35.7849988  60.4160012  41.7234997  35.1749988
  60.0930012  41.9924997  36.6289988  60.2179721  42.2747084  35.8156843
  64.9850012  38.4314997  34.7649988  65.6970012  37.7914997  34.7509988
  64.8840012  38.6984997  33.8509988  65.0687939  38.3799938  34.6395650
  65.3390012  40.1144997  36.8179988  65.2070012  39.6384997  35.9979988
  64.7400012  40.8584997  36.7629988  65.2399071  40.1499618  36.6982886
  64.8850012  56.9974997  19.9949988  65.8180012  57.1554997  20.1379988
  64.6210012  57.6724997  19.3699988  64.9769510  57.1103611  19.9300741
  58.4540012  51.6334997  19.4769988  59.3680012  51.7124997  19.7509988
  58.4610012  50.9464997  18.8109988  58.5801131  51.5513961  19.4244393
  57.1030012  57.0264997  24.5549988  56.4560012  56.5644997  24.0219988
  57.4570012  56.3544997  25.1369988  57.0623849  56.8724723  24.5607959
  57.9730012  55.1074997  26.3589988  57.6380012  54.2274997  26.5309988
  58.1950012  55.4524997  27.2239988  57.9571783  55.0337500  26.4994208
  74.8360012  49.5304997  22.4139988  75.6860012  49.9514997  22.5409988
  74.8420012  48.7904997  23.0209988  74.9531372  49.4880803  22.5134344
  75.2310012  47.5834997  24.2379988  74.5040012  47.1044997  24.6349988
  75.8120012  47.7894997  24.9699988  75.2099375  47.5457090  24.3914129
  74.9900012  50.3684997  29.1849988  75.8230012  49.9904997  28.9049988
  75.1020012  51.3114997  29.0659988  75.1192647  50.4442218  29.1305487
  75.4990012  47.4844997  20.6289988  74.9770012  47.8414997  19.9099988
  75.4660012  48.1594997  21.3069988  75.4231634  47.6245413  20.6223145
  73.8480012  44.7244997  19.1799988  73.9440012  45.3914997  18.4989988
  73.7080012  43.9084997  18.6979988  73.8422135  44.7054500  19.0218491
  73.0170012  46.1044997  24.8009988  72.8670012  45.1594997  24.7799988
  72.6640012  46.3854997  25.6439988  72.9486625  46.0130441  24.9122346
  58.0530012  48.1824997  28.8109988  58.2370012  48.1004997  27.8749988
  58.9020012  48.0584997  29.2349988  58.1930139  48.1545003  28.7401455
  75.3700012  45.9774997  35.1239988  74.5070012  45.5984997  34.9579988
  75.9750012  45.2384997  35.0499988  75.3335979  45.8258023  35.0912817
  73.0950012  42.1324997  18.2969988  73.7060012  41.7614997  18.9339988
  72.2590012  41.7114997  18.4929988  73.0655032  42.0247554  18.4107035
  72.7280012  43.6874997  23.2629988  73.0080012  42.7804997  23.3869988
  73.4870012  44.1214997  22.8739988  72.8689277  43.6220942  23.2273682
  73.3400012  44.2684997  28.6989988  74.2730012  44.4804997  28.6649988
  73.1050012  44.3704997  29.6209988  73.4358036  44.3112769  28.8189976
  73.3690012  45.0054997  31.4749988  72.5260012  45.2734997  31.8409988
  73.8110012  45.8274997  31.2639988  73.3134158  45.1533291  31.4965491
  57.6500012  43.4534997  34.9519988  58.5700012  43.3314997  35.1879988
  57.2010012  42.7034997  35.3409988  57.7151580  43.3353727  35.0369006
  75.6520012  38.9854997  36.8279988  76.0020012  38.3314997  36.2229988
  75.7990012  39.8224997  36.3889988  75.7198419  39.0091591  36.6857118
  73.3410012  40.9504997  23.3109988  73.5240012  40.5014997  24.1369988
  72.7420012  40.3654997  22.8479988  73.2850202  40.8099975  23.3613275
  58.8710012  41.7654997  27.8429988  59.3170012  40.9734997  28.1449988
  59.3380012  42.4814997  28.2739988  58.9950172  41.7540624  27.9424820
  57.1750012  44.7644997  28.9119988  57.6670012  44.5434997  28.1209988
  57.5380012  45.6054997  29.1929988  57.2913126  44.8478357  28.8417531
  75.1720012  41.0944997  35.1779988  74.2540012  41.3654997  35.1419988
  75.2950012  40.5594997  34.3929988  75.0631066  41.0592892  35.0670487
  75.2080012  41.0174997  19.8389988  75.6200012  40.2964997  19.3639988
  75.8900012  41.6874997  19.8979988  75.3565885  41.0092368  19.7818915
  57.4890012  41.0224997  22.9659988  56.5640012  41.2314997  22.8369988
  57.9430012  41.5064997  22.2769988  57.4237368  41.1165993  22.8551226
  72.2600012  56.0064997  24.9119988  72.9120012  55.6594997  24.3039988
  72.7700012  56.4954997  25.5579988  72.4182637  56.0250597  24.9160236
  57.4530012  39.7604997  31.3109988  56.7880012  39.5144997  31.9539988
  57.0100012  40.3824997  30.7329988  57.3020956  39.8108632  31.3209352
  59.6450012  52.9354997  35.4549988  58.8240012  53.1104997  34.9949988
  59.3920012  52.8624997  36.3759988  59.4986164  52.9495622  35.5164923
  74.1720012  39.1844997  32.9969988  73.3600012  39.5094997  32.6089988
  74.4050012  38.4244997  32.4639988  74.0923423  39.1262436  32.8718253
  59.4150012  55.7894997  28.6709988  59.3970012  55.3644997  29.5289988
  60.2200012  55.4714997  28.2629988  59.5213875  55.6883812  28.7331655
  61.5570012  54.4994997  27.3259988  61.3380012  53.5834997  27.4959988
  62.3810012  54.6394997  27.7919988  61.6384420  54.3930520  27.4122774
  64.0940012  54.9694997  28.1749988  64.3070012  54.0814997  27.8879988
  64.1580012  54.9354997  29.1289988  64.1318232  54.8433102  28.2647397
  67.6020012  40.6334997  27.3189988  66.9280012  40.0044997  27.5749988
  68.1660012  40.1494997  26.7159988  67.5859230  40.4818744  27.2725340
  72.7450012  38.7414997  27.4319988  73.3490012  39.2884997  26.9299988
  71.8750012  39.0604997  27.1919988  72.7101241  38.8595806  27.3307654
  74.4720012  39.8794997  25.7649988  75.0840012  39.3654997  25.2389988
  74.8540012  40.7574997  25.7889988  74.6074540  39.9277140  25.6961830
  59.9290012  39.2674997  25.1409988  59.1520012  39.0334997  24.6339988
  60.4590012  38.4704997  25.1499988  59.8942330  39.1276988  25.0727742
  58.7650012  39.0654997  20.9449988  59.2040012  39.6764997  20.3529988
  58.1320012  39.6034997  21.4189988  58.7394514  39.2219257  20.9280930
  64.5080012  39.1944997  24.9549988  65.3830012  39.5824997  24.9249988
  64.3720012  38.9794997  25.8769988  64.6093695  39.2185184  25.0756440
  70.0650012  39.2244997  26.6039988  70.1410012  39.3194997  25.6539988
  69.7900012  38.3164997  26.7329988  70.0382321  39.1147867  26.4915079
  71.4180012  39.2504997  22.2959988  70.7160012  39.8654997  22.0869988
  70.9740012  38.4124997  22.4269988  71.2616330  39.2215783  22.2850328
  58.6660012  55.0134997  21.8429988  57.9810012  54.9754997  21.1749988
  58.6700012  55.9264997  22.1309988  58.5728193  55.1317016  21.7905284
  60.6260012  40.9814997  19.3869988  61.1180012  40.3514997  18.8599988
  61.2500012  41.2774997  20.0509988  60.7775446  40.9353199  19.4045980
  65.6520012  41.2744997  21.8439988  65.8300012  40.6284997  22.5269988
  65.5990012  42.1084997  22.3119988  65.6691829  41.2987985  22.0005940
  67.5310012  56.2234997  20.2399988  68.3970012  56.5894997  20.0619988
  67.2840012  55.7834997  19.4259988  67.6162392  56.2141756  20.1056289
  74.2400012  55.7864997  22.9189988  74.0450012  55.0384997  22.3539988
  74.2010012  56.5444997  22.3359988  74.2080380  55.7866099  22.7628384
  59.8870012  39.7814997  34.6589988  59.5210012  39.0164997  35.1019988
  60.8000012  39.8104997  34.9459988  59.9602790  39.6807224  34.7584070
  61.8600012  39.1324997  36.1949988  62.7580012  38.8584997  36.0099988
  61.4730012  38.3894997  36.6589988  61.9306612  38.9945914  36.2323643
  60.4840012  55.9334997  18.8679988  60.2170012  56.2204997  19.7409988
  61.2560012  55.3874997  19.0199988  60.5517488  55.8990294  19.0081050
  70.2810012  38.4644997  36.3769988  70.3580012  38.0384997  37.2309988
  71.1750012  38.4784997  36.0339988  70.4123428  38.4080879  36.4475310
  87.8630012  48.4234997  25.0999988  87.9520012  49.3674997  24.9679988
  87.2250012  48.1484997  24.4419988  87.7889081  48.5154830  24.9929614
  86.7960012  47.6784997  28.5189988  86.7580012  47.0324997  29.2239988
  86.4740012  47.2124997  27.7479988  86.7472333  47.5269408  28.5112978
  79.1650012  47.2934997  30.1119988  79.2060012  46.6674997  30.8349988
  79.8680012  47.9174997  30.2939988  79.2656363  47.2921196  30.2356044
  90.5020012  50.6174997  26.8199988  90.0620012  49.8974997  27.2709988
  90.4890012  51.3384997  27.4499988  90.4400226  50.6163731  26.9668494
  80.0880012  51.7434997  28.6469988  79.7190012  50.9414997  28.2769988
  81.0290012  51.5744997  28.6929988  80.1647289  51.6110153  28.6026316
  76.6980012  45.4034997  24.0399988  76.2510012  46.2494997  24.0209988
  76.1370012  44.8234997  23.5239988  76.5609900  45.4409916  23.9676801
  77.4090012  47.5654997  26.1659988  77.6220012  46.7954997  26.6929988
  78.1470012  47.6544997  25.5619988  77.5378496  47.4721394  26.1565300
  87.6140012  55.7224997  27.0329988  88.2340012  55.0454997  26.7589988
  87.4060012  55.5044997  27.9409988  87.6706904  55.6003870  27.1183365
  85.1860012  50.1114997  28.9249988  85.4900012  49.4254997  28.3299988
  85.9070012  50.2294997  29.5429988  85.3250671  50.0336304  28.9271816
  93.8490012  41.7124997  29.7859988  93.8980012  42.3224997  30.5219988
  94.2740012  42.1734997  29.0629988  93.9131824  41.8583741  29.7890205
  88.3270012  44.5054997  29.2529988  88.4690012  43.5594997  29.2729988
  88.2200012  44.7124997  28.3239988  88.3319864  44.4039534  29.1302339
  81.4810012  42.6064997  26.5249988  81.5250012  43.4664997  26.1069988
  81.0240012  42.0544997  25.8909988  81.4252185  42.6495799  26.3820299
  89.2040012  42.7374997  24.9259988  89.8500012  42.4084997  25.5509988
  89.7140012  43.2554997  24.3029988  89.3614264  42.7624611  24.9273862
  78.1020012  45.0034997  27.2869988  78.7550012  44.4534997  27.7189988
  78.1260012  44.7294997  26.3699988  78.1946683  44.8911466  27.2222123
  83.2580012  46.5534997  26.5019988  83.8740012  46.0274997  27.0119988
  82.6720012  45.9134997  26.0989988  83.2630810  46.3949208  26.5173173
  94.2400012  43.1904997  32.0219988  93.5520012  43.8484997  31.9259988
  94.2560012  42.9934997  32.9579988  94.1478525  43.2540462  32.1354808
  80.2920012  41.5244997  30.5989988  80.0730012  42.0544997  29.8329988
  79.6240012  41.7514997  31.2459988  80.1717600  41.6276906  30.5816379
  87.6610012  51.0244997  24.1429988  87.3650012  50.7024997  23.2919988
  87.3360012  51.9244997  24.1839988  87.5766371  51.1020215  24.0321801
  82.8610012  49.2004997  30.8859988  82.1210012  49.7984997  30.9899988
  83.5750012  49.7544997  30.5709988  82.8562237  49.3572831  30.8576465
  90.9680012  42.0284997  26.9059988  90.7520012  41.2624997  27.4389988
  91.6230012  42.5004997  27.4189988  91.0270633  41.9875889  27.0482861
  79.8850012  43.4164997  28.5509988  80.4990012  44.0494997  28.9249988
  80.3970012  42.9444997  27.8949988  80.0382296  43.4392370  28.5134252
  81.2680012  51.1644997  31.6739988  81.2630012  52.0444997  31.2959988
  80.4150012  51.0814997  32.0989988  81.1519464  51.2736117  31.6797907
  77.3890012  50.8354997  22.4559988  77.1170012  51.0644997  21.5669988
  77.4350012  51.6734997  22.9159988  77.3580094  50.9801213  22.3965697
  91.0140012  52.4574997  29.1679988  90.0730012  52.5154997  29.3299988
  91.2910012  53.3634997  29.0309988  90.9224679  52.5879443  29.1716815
  91.3150012  40.7434997  30.5859988  90.5790012  41.3544997  30.5479988
  91.9980012  41.1584997  30.0589988  91.3066541  40.8831374  30.5095832
  84.3180012  38.8304997  28.0519988  84.2010012  37.8814997  27.9969988
  83.4630012  39.1624997  28.3249988  84.1863733  38.7455409  28.0813897
  89.2660012  54.2384997  25.7939988  89.6920012  53.5314997  25.3089988
  89.5830012  55.0394997  25.3769988  89.3671019  54.2500994  25.6713130
  90.4260012  52.1394997  24.3019988  90.1680012  51.4494997  23.6909988
  90.4970012  51.6964997  25.1479988  90.4002856  51.9852124  24.3326885
  92.1120012  50.7054997  32.7799988  92.2520012  50.1144997  32.0399988
  92.2790012  51.5784997  32.4229988  92.1536778  50.7426426  32.6306965
  86.5850012  47.6674997  22.5519988  85.8730012  48.2024997  22.1999988
  87.2760012  47.7234997  21.8919988  86.5810132  47.7482543  22.4146289
  86.6380012  46.1254997  19.5909988  87.3390012  46.1474997  20.2419988
  86.9410012  45.4974997  18.9349988  86.7747830  46.0436566  19.5913711
  93.9540012  47.0454997  30.8459988  93.3010012  47.7404997  30.9349988
  94.4190012  47.2554997  30.0359988  93.9275390  47.1689425  30.7486883
  89.9900012  47.8774997  23.5039988  89.2580012  48.1054997  24.0769988
  90.4380012  47.1634997  23.9589988  89.9503095  47.8122571  23.6439119
  89.8880012  46.0514997  32.5709988  89.9680012  46.8144997  33.1429988
  89.2860012  46.3304997  31.8809988  89.8175756  46.1937134  32.5560589
  81.6360012  48.5074997  25.3859988  81.3050012  48.1374997  24.5679988
  82.2240012  47.8374997  25.7329988  81.6701873  48.3661156  25.3208102
  83.0020012  51.9354997  28.0679988  82.9080012  51.3574997  27.3109988
  83.7320012  51.5644997  28.5639988  83.0877981  51.8062390  28.0314165
  82.0020012  47.2764997  29.0199988  82.5680012  47.3974997  28.2569988
  82.3210012  47.9134997  29.6589988  82.1225786  47.3791884  29.0020040
  88.3110012  52.7794997  29.7539988  88.0710012  53.4414997  30.4019988
  88.1130012  51.9454997  30.1789988  88.2513808  52.7573134  29.9001524
  82.8820012  51.6754997  33.7369988  82.5710012  52.4574997  34.1919988
  82.2320012  51.5224997  33.0509988  82.7515558  51.7619105  33.7065871
  88.8610012  47.0394997  21.1889988  89.4410012  47.1894997  21.9359988
  89.2750012  47.5104997  20.4659988  88.9962830  47.1236841  21.1934134
  79.8020012  47.8734997  32.9659988  79.8730012  48.5244997  33.6639988
  78.9120012  47.9764997  32.6309988  79.6913117  47.9765936  33.0162700
  86.5880012  53.7764997  24.6239988  87.0620012  54.0714997  25.4019988
  86.0250012  54.5144997  24.3909988  86.5767653  53.9166932  24.6990136
  92.5600012  38.7894997  21.0019988  91.6600012  38.9284997  21.2969988
  92.8120012  39.6204997  20.5999988  92.4708702  38.9209074  20.9880205
  80.6260012  47.5774997  22.9759988  80.3340012  48.3454997  22.4849988
  79.9520012  46.9174997  22.8129988  80.4949081  47.5934406  22.8867340
  93.7490012  53.1554997  19.3779988  93.8230012  54.0944997  19.5489988
  94.6550012  52.8504997  19.3219988  93.8815100  53.2426722  19.3938119
  94.6670012  53.3864997  34.3569988  94.6180012  52.4314997  34.3199988
  93.8400012  53.6544997  34.7579988  94.5484940  53.2918998  34.4061375
  85.6460012  52.9604997  33.2329988  85.7330012  53.7864997  33.7079988
  84.7820012  52.6304997  33.4819988  85.5411964  53.0289878  33.3316549
  86.0600012  56.7324997  23.0389988  85.9850012  56.6114997  22.0929988
  86.0930012  57.6824997  23.1579988  86.0541848  56.8442500  22.9254834
  79.7130012  55.5214997  24.8199988  79.8660012  55.1734997  25.6989988
  78.8630012  55.1654997  24.5649988  79.6188962  55.4256650  24.9058340
  89.1620012  55.8864997  20.0409988  89.5370012  55.1424997  19.5709988
  89.1660012  55.6164997  20.9599988  89.2138915  55.7481486  20.1007824
  88.8310012  55.8124997  22.7909988  87.8950012  55.9124997  22.9689988
  89.1110012  55.1034997  23.3689988  88.7408255  55.7302711  22.8935391
  91.8190012  44.8794997  34.8369988  91.4120012  45.3604997  34.1159988
  91.8600012  43.9744997  34.5289988  91.7688437  44.8229374  34.6966683
  81.5870012  39.7334997  28.8289988  80.7250012  39.6464997  28.4219988
  81.5640012  40.5894997  29.2569988  81.4660330  39.8372765  28.8311863
  86.2500012  39.4554997  32.2039988  86.6700012  39.0404997  32.9569988
  85.3170012  39.2774997  32.3209988  86.1813644  39.3745900  32.3229539
  89.5760012  43.2114997  33.0569988  89.0620012  43.0854997  33.8549988
  89.4210012  44.1234997  32.8129988  89.4846852  43.3176132  33.1332158
  90.3390012  48.0724997  18.8189988  90.3810012  47.8494997  17.8889988
  91.1880012  48.4714997  19.0089988  90.4595396  48.0959155  18.7173627
  85.9110012  41.9484997  19.4889988  85.6580012  41.9674997  20.4119988
  85.6550012  41.0764997  19.1879988  85.8417790  41.8332437  19.5746263
  81.6780012  44.6994997  29.9239988  81.0360012  44.6584997  30.6329988
  81.7150012  45.6254997  29.6869988  81.5951324  44.8191559  29.9889824
  81.6750012  44.9204997  24.8359988  80.7820012  44.5794997  24.7779988
  82.1250012  44.5434997  24.0809988  81.6137305  44.8228484  24.7259177
  87.2100012  45.3364997  23.6529988  86.8010012  46.1514997  23.3619988
  87.9310012  45.1964997  23.0389988  87.2514537  45.4292018  23.5301342
  86.3120012  45.5114997  35.1409988  85.7500012  44.8074997  35.4619988
  87.1390012  45.3914997  35.6089988  86.3467095  45.3987883  35.2482330
  88.2150012  44.7824997  26.4669988  88.0200012  45.3874997  25.7519988
  88.3960012  43.9484997  26.0329988  88.2127614  44.7526300  26.3104405
  79.4280012  45.0194997  31.7909988  79.3900012  45.4194997  32.6599988
  78.9370012  44.2024997  31.8819988  79.3564684  44.9638069  31.9221059
  82.7940012  42.3934997  18.5899988  82.3630012  41.9484997  19.3199988
  82.0760012  42.7654997  18.0779988  82.6379438  42.3828940  18.6206799
  76.0360012  42.1354997  25.6419988  76.6670012  42.1064997  26.3609988
  76.4850012  41.7104997  24.9119988  76.1830774  42.0740492  25.6416553
  77.3100012  42.8814997  21.0659988  77.7840012  43.4724997  20.4809988
  76.5930012  43.4124997  21.4129988  77.2779341  43.0340867  21.0328836
  87.4790012  46.4204997  31.1389988  87.8020012  45.7894997  30.4959988
  87.0390012  45.8854997  31.7989988  87.4636895  46.2618441  31.1402850
  84.2560012  42.3474997  25.9229988  83.3450012  42.4044997  26.2109988
  84.7620012  42.2874997  26.7329988  84.1995413  42.3471985  26.0720622
  79.0850012  43.9764997  24.7489988  78.1950012  44.0764997  24.4089988
  79.3810012  43.1344997  24.4029988  79.0032823  43.8763546  24.6557213
  82.7380012  43.9764997  22.4059988  83.6690012  44.1054997  22.5839988
  82.5230012  44.6464997  21.7559988  82.8364247  44.0846565  22.3425747
  88.6610012  41.5824997  29.1869988  87.9850012  41.7134997  29.8509988
  88.1760012  41.4274997  28.3769988  88.5027145  41.5794905  29.1684517
  81.4120012  45.1714997  19.9729988  80.8690012  44.7914997  19.2809988
  82.2450012  45.3654997  19.5439988  81.4504399  45.1458124  19.8204526
  91.9490012  57.2544997  35.4639988  92.1490012  57.6784997  34.6289988
  92.6040012  57.5974997  36.0709988  92.0650051  57.3589648  35.4317836
  85.5760012  45.1354997  27.8099988  86.1410012  44.5884997  27.2629988
  85.4290012  44.6134997  28.5979988  85.6332918  44.9902024  27.8418454
  80.5780012  41.2714997  24.2279988  80.2610012  40.3694997  24.1929988
  81.3600012  41.2734997  23.6749988  80.6402284  41.1481628  24.1484783
  84.2030012  43.5234997  30.2239988  83.3670012  43.9774997  30.3339988
  84.7270012  43.7994997  30.9759988  84.1594414  43.6229376  30.3407136
  84.7470012  49.7364997  21.9079988  84.0020012  49.2294997  21.5859988
  84.6130012  49.7854997  22.8549988  84.6268776  49.6736940  21.9918647
  91.8970012  48.8694997  30.6949988  92.5390012  49.3264997  30.1509988
  91.0670012  48.9824997  30.2319988  91.8725963  48.9472704  30.5580177
  88.6450012  42.5504997  20.1079988  87.7060012  42.6624997  19.9559988
  88.9420012  43.4074997  20.4139988  88.5567666  42.6816443  20.1285768
  86.2660012  49.9204997  33.1449988  85.9210012  49.5394997  33.9519988
  86.0660012  50.8544997  33.2169988  86.1918061  49.9945228  33.2650961
  89.3630012  44.4174997  21.7679988  90.2550012  44.2804997  22.0869988
  89.4200012  45.2084997  21.2319988  89.4926285  44.5056660  21.7391691
  79.8720012  49.0314997  27.6779988  80.6170012  49.0294997  27.0769988
  79.9500012  48.2084997  28.1599988  79.9845518  48.9199315  27.6608929
  86.8730012  51.1954997  20.9339988  86.5770012  52.0214997  21.3149988
  86.1700012  50.5754997  21.1299988  86.7374914  51.2248199  21.0126443
  83.8960012  47.0094997  35.2059988  83.6000012  46.8434997  34.3109988
  84.8280012  46.7894997  35.1949988  83.9814166  46.9570640  35.0820536
  88.5170012  52.3824997  33.0959988  87.6160012  52.5654997  32.8279988
  88.5510012  52.6414997  34.0169988  88.3983041  52.4425512  33.1838197
  94.2480012  44.6274997  21.4629988  93.6940012  44.2314997  20.7909988
  94.3480012  45.5374997  21.1849988  94.1857059  44.6963586  21.3334401
  94.2110012  50.4274997  34.2999988  93.3600012  50.6654997  33.9329988
  94.8020012  50.4104997  33.5469988  94.1742487  50.4578258  34.1478893
  92.5430012  53.4134997  21.9279988  92.1700012  52.5874997  22.2369988
  92.8210012  53.2304997  21.0309988  92.5295630  53.2757303  21.8489626
  89.7040012  48.2214997  28.9489988  88.7750012  47.9894997  28.9219988
  90.1550012  47.4444997  28.6189988  89.6379216  48.0847238  28.9006917
  82.2470012  52.5494997  25.0819988  82.7740012  53.3224997  24.8819988
  81.3670012  52.7744997  24.7809988  82.2001773  52.6858005  25.0139010
  78.0020012  47.4114997  19.6689988  78.6180012  48.0384997  20.0489988
  77.1400012  47.7274997  19.9409988  77.9697698  47.5399430  19.7577183
  83.6740012  50.2124997  24.6589988  83.4330012  51.1374997  24.6999988
  82.9330012  49.7534997  25.0549988  83.5408409  50.2771421  24.7181377
  84.1890012  54.3614997  30.9739988  84.5510012  55.2164997  30.7399988
  84.7200012  54.0694997  31.7139988  84.3104473  54.4391060  31.0420855
  82.3570012  55.2344997  24.2039988  81.4070012  55.3394997  24.2549988
  82.7090012  56.0544997  24.5489988  82.2744203  55.3598314  24.2576650
  87.7330012  50.4604997  30.6739988  87.3070012  50.2334997  31.5009988
  88.3130012  49.7224997  30.4919988  87.7531868  50.3295299  30.7625830
  89.9360012  51.3894997  19.7479988  90.2890012  51.0094997  20.5529988
  88.9870012  51.2964997  19.8349988  89.8560441  51.3249596  19.8698559
  90.3910012  55.0124997  33.1439988  89.7900012  54.4574997  32.6479988
  90.6730012  55.6794997  32.5179988  90.3468519  55.0266841  32.9914952
  94.4390012  55.8694997  19.9489988  95.1830012  56.4554997  19.8089988
  93.7450012  56.4374997  20.2829988  94.4470292  56.0265582  19.9749961
  78.5140012  42.2454997  32.5509988  77.6210012  42.5844997  32.4829988
  78.4150012  41.3904997  32.9689988  78.3784164  42.1762588  32.5982235
  90.8020012  50.0624997  21.9749988  90.5240012  49.3344997  22.5309988
  91.7290012  50.1814997  22.1799988  90.8893124  49.9788802  22.0788845
  84.0270012  52.5014997  18.1949988  84.2660012  51.7534997  17.6479988
  83.7580012  52.1134997  19.0279988  84.0233675  52.3466638  18.2326865
  82.9640012  52.0714997  20.6519988  83.1100012  51.5514997  21.4419988
  82.9610012  52.9784997  20.9579988  82.9835989  52.1228853  20.8016088
  79.4170012  49.3244997  21.1619988  78.7310012  49.6764997  21.7289988
  79.9390012  50.0874997  20.9149988  79.3936852  49.4758578  21.2062118
  87.2480012  41.9864997  31.4409988  87.9470012  42.0604997  32.0909988
  86.8670012  41.1224997  31.5949988  87.2921767  41.8797624  31.5508322
  88.0330012  41.6384997  22.5379988  88.2530012  42.1104997  21.7349988
  88.5910012  42.0334997  23.2079988  88.1384968  41.7564285  22.5187331
  85.7010012  53.7694997  21.4009988  84.8850012  54.2664997  21.4529988
  86.2310012  54.2444997  20.7609988  85.6609161  53.9017722  21.3215956
  85.2330012  43.3664997  23.3729988  86.0450012  43.8714997  23.4189988
  84.9880012  43.2214997  24.2869988  85.3110520  43.4160375  23.5028517
  85.7680012  44.3524997  32.5579988  85.8870012  44.9264997  33.3149988
  86.4240012  43.6644997  32.6719988  85.8729757  44.3381079  32.6770825
  86.1160012  40.4474997  24.3109988  85.7700012  41.0654997  24.9559988
  86.7750012  40.9484997  23.8299988  86.1577826  40.5995802  24.3340971
  83.0400012  54.8134997  21.3829988  83.2000012  55.6124997  20.8819988
  82.8420012  55.1194997  22.2679988  83.0351649  54.9644469  21.4339815
  81.7740012  41.5104997  20.9979988  81.6910012  42.3994997  21.3449988
  82.6640012  41.2454997  21.2299988  81.8829469  41.5961430  21.0767626
  91.9730012  42.2594997  33.3929988  91.0560012  42.5224997  33.3049988
  92.3080012  42.2564997  32.4959988  91.8929900  42.2950224  33.2597919
  90.5750012  46.0104997  27.4879988  89.7770012  45.5954997  27.1599988
  91.0200012  45.3194997  27.9789988  90.5259885  45.8603543  27.5094889
  80.0330012  51.9384997  20.0589988  80.6250012  52.6374997  20.3349988
  80.4920012  51.5054997  19.3389988  80.1761142  51.9757049  19.9994830
  78.3490012  44.6024997  19.1749988  78.3040012  45.5414997  19.3529988
  77.4610012  44.3664997  18.9049988  78.2228574  44.6991892  19.1628912
  91.6610012  55.2664997  29.1109988  91.5060012  55.9444997  28.4539988
  92.5940012  55.3384997  29.3139988  91.7658500  55.3690170  29.0485119
  79.1570012  39.3844997  27.8479988  78.9280012  39.4434997  26.9199988
  78.7140012  38.5924997  28.1539988  79.0658530  39.2855753  27.7624786
  78.0870012  53.3244997  24.0079988  77.2550012  53.7974997  24.0359988
  78.6330012  53.8344997  23.4099988  78.0469739  53.4581871  23.9309716
  86.0650012  54.3644997  18.3339988  85.4210012  53.7334997  18.6549988
  86.8270012  53.8334997  18.1019988  86.0798077  54.2062920  18.3466011
  88.5500012  53.2364997  35.6879988  88.1990012  52.3804997  35.9309988
  89.2760012  53.3794997  36.2949988  88.6000769  53.1385636  35.8033619
  90.6690012  54.1814997  18.5679988  90.9520012  53.3874997  19.0199988
  91.4090012  54.4144997  18.0069988  90.8077486  54.1042803  18.5540698
  81.6240012  50.0914997  18.4249988  81.6880012  49.2974997  18.9559988
  82.2770012  49.9724997  17.7349988  81.7210241  49.9667148  18.4044317
  83.9380012  49.7174997  35.7249988  83.6090012  49.9884997  34.8679988
  84.0900012  48.7764997  35.6379988  83.9134809  49.6273862  35.5958244
  86.9760012  51.1384997  18.1609988  86.7070012  51.3184997  19.0619988
  86.7700012  50.2124997  18.0299988  86.9113825  51.0380152  18.2665214
  89.6720012  49.6334997  33.1089988  90.4180012  50.2214997  32.9889988
  88.9150012  50.2154997  33.1719988  89.6717554  49.7927011  33.1010907
  78.1150012  46.9474997  35.7129988  78.5230012  46.0904997  35.5919988
  77.8550012  46.9624997  36.6339988  78.1357568  46.8320807  35.8209588
  82.7730012  48.0634997  20.7309988  82.3130012  47.5794997  21.4169988
  83.0280012  47.3954997  20.0949988  82.7444902  47.9068731  20.7389334
  82.0620012  45.9564997  33.0869988  81.4440012  46.6314997  33.3669988
  82.4060012  46.2774997  32.2539988  82.0239615  46.0922721  33.0126581
  83.8440012  46.3064997  18.9929988  83.6640012  46.1524997  18.0659988
  84.7940012  46.4144997  19.0379988  83.9477776  46.3000175  18.8721843
  87.0820012  48.4284997  36.3639988  88.0350012  48.5114997  36.3369988
  86.9210012  47.7164997  36.9839988  87.1906426  48.3436746  36.4440579
  93.2340012  48.6614997  18.4389988  92.9600012  48.2364997  17.6259988
  93.2730012  49.5924997  18.2219988  93.2017699  48.7292484  18.2983610
  82.4010012  43.3114997  34.1689988  82.5510012  42.5824997  33.5669988
  82.4040012  44.0884997  33.6099988  82.4219302  43.3167851  34.0110692
  82.8140012  41.6814997  31.6619988  83.3500012  42.1324997  31.0099988
  81.9620012  41.5734997  31.2389988  82.7722178  41.7286390  31.5155756
  84.3960012  47.1204997  31.9009988  85.1460012  46.9644997  31.3279988
  84.0570012  47.9724997  31.6259988  84.4528921  47.2142968  31.7853561
  88.8110012  44.9354997  36.9299988  89.0040012  44.0044997  36.8179988
  89.6690012  45.3604997  36.9199988  88.9533020  44.8656389  36.9133361
  90.1280012  47.7244997  35.0069988  89.8470012  48.4334997  34.4299988
  91.0710012  47.6514997  34.8559988  90.2169027  47.8117646  34.9075551
  80.8800012  44.5094997  36.0809988  80.1130012  43.9774997  35.8709988
  81.5590012  44.1994997  35.4809988  80.8667022  44.3947506  35.9711648
  83.6200012  39.1374997  32.0929988  83.5210012  40.0844997  31.9879988
  82.8770012  38.7654997  31.6179988  83.5060564  39.2165902  32.0144560
  84.8840012  43.4594997  35.6569988  84.6480012  43.2394997  36.5589988
  84.1000012  43.2524997  35.1469988  84.7458628  43.4014760  35.7113932
  87.5990012  42.5864997  34.7329988  86.6520012  42.6184997  34.8649988
  87.9120012  41.9614997  35.3859988  87.5115475  42.5063207  34.8394455
  89.2330012  41.2204997  36.7379988  89.1370012  40.2684997  36.7319988
  88.9120012  41.4894997  37.5979988  89.1764070  41.1264035  36.8535441
  79.0600012  42.4304997  35.7849988  79.2720012  41.7234997  35.1749988
  78.9490012  41.9924997  36.6289988  79.0739721  42.2747084  35.8156843
  83.8410012  38.4314997  34.7649988  84.5530012  37.7914997  34.7509988
  83.7400012  38.6984997  33.8509988  83.9247939  38.3799938  34.6395650
  84.1950012  40.1144997  36.8179988  84.0630012  39.6384997  35.9979988
  83.5960012  40.8584997  36.7629988  84.0959071  40.1499618  36.6982886
  83.7410012  56.9974997  19.9949988  84.6740012  57.1554997  20.1379988
  83.4770012  57.6724997  19.3699988  83.8329510  57.1103611  19.9300741
  77.3100012  51.6334997  19.4769988  78.2240012  51.7124997  19.7509988
  77.3170012  50.9464997  18.8109988  77.4361131  51.5513961  19.4244393
  75.9590012  57.0264997  24.5549988  75.3120012  56.5644997  24.0219988
  76.3130012  56.3544997  25.1369988  75.9183849  56.8724723  24.5607959
  76.8290012  55.1074997  26.3589988  76.4940012  54.2274997  26.5309988
  77.0510012  55.4524997  27.2239988  76.8131783  55.0337500  26.4994208
  94.3770012  55.9164997  29.3399988  94.3560012  56.1014997  30.2789988
  95.0680012  56.4854997  28.9989988  94.4674618  56.0186606  29.4223864
  93.9410012  55.4844997  32.2619988  93.4530012  54.7484997  31.8909988
  94.4900012  55.0904997  32.9399988  93.9484872  55.3306249  32.3029160
  92.3910012  51.2734997  36.8999988  91.5250012  51.1684997  37.2939988
  92.7680012  52.0324997  37.3459988  92.3233308  51.3616900  37.0142393
  93.6920012  49.5304997  22.4139988  94.5420012  49.9514997  22.5409988
  93.6980012  48.7904997  23.0209988  93.8091372  49.4880803  22.5134344
  94.0870012  47.5834997  24.2379988  93.3600012  47.1044997  24.6349988
  94.6680012  47.7894997  24.9699988  94.0659375  47.5457090  24.3914129
  93.8460012  50.3684997  29.1849988  94.6790012  49.9904997  28.9049988
  93.9580012  51.3114997  29.0659988  93.9752647  50.4442218  29.1305487
  92.3320012  53.2464997  31.4919988  91.6850012  53.5714997  32.1179988
  91.8150012  52.8064997  30.8179988  92.1734029  53.2315004  31.4865827
  94.3550012  47.4844997  20.6289988  93.8330012  47.8414997  19.9099988
  94.3220012  48.1594997  21.3069988  94.2791634  47.6245413  20.6223145
  92.7040012  44.7244997  19.1799988  92.8000012  45.3914997  18.4989988
  92.5640012  43.9084997  18.6979988  92.6982135  44.7054500  19.0218491
  91.8730012  46.1044997  24.8009988  91.7230012  45.1594997  24.7799988
  91.5200012  46.3854997  25.6439988  91.8046625  46.0130441  24.9122346
  76.9090012  48.1824997  28.8109988  77.0930012  48.1004997  27.8749988
  77.7580012  48.0584997  29.2349988  77.0490139  48.1545003  28.7401455
  92.7300012  48.0744997  34.4389988  93.3130012  47.3404997  34.6309988
  93.2940012  48.8464997  34.4859988  92.8859769  48.0784227  34.4716159
  94.2260012  45.9774997  35.1239988  93.3630012  45.5984997  34.9579988
  94.8310012  45.2384997  35.0499988  94.1895979  45.8258023  35.0912817
  91.9510012  42.1324997  18.2969988  92.5620012  41.7614997  18.9339988
  91.1150012  41.7114997  18.4929988  91.9215032  42.0247554  18.4107035
  91.5840012  43.6874997  23.2629988  91.8640012  42.7804997  23.3869988
  92.3430012  44.1214997  22.8739988  91.7249277  43.6220942  23.2273682
  92.1960012  44.2684997  28.6989988  93.1290012  44.4804997  28.6649988
  91.9610012  44.3704997  29.6209988  92.2918036  44.3112769  28.8189976
  92.2250012  45.0054997  31.4749988  91.3820012  45.2734997  31.8409988
  92.6670012  45.8274997  31.2639988  92.1694158  45.1533291  31.4965491
  76.5060012  43.4534997  34.9519988  77.4260012  43.3314997  35.1879988
  76.0570012  42.7034997  35.3409988  76.5711580  43.3353727  35.0369006
  94.5080012  38.9854997  36.8279988  94.8580012  38.3314997  36.2229988
  94.6550012  39.8224997  36.3889988  94.5758419  39.0091591  36.6857118
  92.1970012  40.9504997  23.3109988  92.3800012  40.5014997  24.1369988
  91.5980012  40.3654997  22.8479988  92.1410202  40.8099975  23.3613275
  77.7270012  41.7654997  27.8429988  78.1730012  40.9734997  28.1449988
  78.1940012  42.4814997  28.2739988  77.8510172  41.7540624  27.9424820
  76.0310012  44.7644997  28.9119988  76.5230012  44.5434997  28.1209988
  76.3940012  45.6054997  29.1929988  76.1473126  44.8478357  28.8417531
  94.0280012  41.0944997  35.1779988  93.1100012  41.3654997  35.1419988
  94.1510012  40.5594997  34.3929988  93.9191066  41.0592892  35.0670487
  94.0640012  41.0174997  19.8389988  94.4760012  40.2964997  19.3639988
  94.7460012  41.6874997  19.8979988  94.2125885  41.0092368  19.7818915
  76.3450012  41.0224997  22.9659988  75.4200012  41.2314997  22.8369988
  76.7990012  41.5064997  22.2769988  76.2797368  41.1165993  22.8551226
  91.1160012  56.0064997  24.9119988  91.7680012  55.6594997  24.3039988
  91.6260012  56.4954997  25.5579988  91.2742637  56.0250597  24.9160236
  76.3090012  39.7604997  31.3109988  75.6440012  39.5144997  31.9539988
  75.8660012  40.3824997  30.7329988  76.1580956  39.8108632  31.3209352
  81.4550012  53.9104997  31.7139988  81.0300012  54.7194997  31.4309988
  82.3590012  53.9954997  31.4119988  81.5190271  54.0328469  31.6343776
  85.7660012  55.3094997  34.6729988  85.9510012  54.9754997  35.5509988
  86.6120012  55.6184997  34.3509988  85.9057539  55.3056047  34.7495605
  88.1110012  56.5954997  33.9169988  88.7880012  55.9624997  33.6769988
  88.4330012  56.9964997  34.7239988  88.2471637  56.5631154  33.9932793
  93.0280012  39.1844997  32.9969988  92.2160012  39.5094997  32.6089988
  93.2610012  38.4244997  32.4639988  92.9483423  39.1262436  32.8718253
  81.3240012  56.7664997  30.7909988  80.4590012  56.8384997  31.1949988
  81.2690012  57.3134997  30.0069988  81.1982085  56.8502685  30.7403362
  86.0340012  56.6544997  29.9659988  85.5780012  57.1834997  29.3119988
  86.1970012  57.2574997  30.6919988  85.9935585  56.8084468  29.9745062
  88.3620012  55.5324997  30.9109988  87.4570012  55.6974997  30.6459988
  88.7910012  56.3854997  30.8459988  88.2960799  55.6704483  30.8659182
  90.9660012  57.1024997  31.2059988  90.7840012  58.0184997  30.9959988
  91.1430012  56.6924997  30.3599988  90.9650210  57.1724822  31.0627885
  80.4130012  54.4994997  27.3259988  80.1940012  53.5834997  27.4959988
  81.2370012  54.6394997  27.7919988  80.4944420  54.3930520  27.4122774
  82.9500012  54.9694997  28.1749988  83.1630012  54.0814997  27.8879988
  83.0140012  54.9354997  29.1289988  82.9878232  54.8433102  28.2647397
  86.4580012  40.6334997  27.3189988  85.7840012  40.0044997  27.5749988
  87.0220012  40.1494997  26.7159988  86.4419230  40.4818744  27.2725340
  91.6010012  38.7414997  27.4319988  92.2050012  39.2884997  26.9299988
  90.7310012  39.0604997  27.1919988  91.5661241  38.8595806  27.3307654
  93.3280012  39.8794997  25.7649988  93.9400012  39.3654997  25.2389988
  93.7100012  40.7574997  25.7889988  93.4634540  39.9277140  25.6961830
  78.7850012  39.2674997  25.1409988  78.0080012  39.0334997  24.6339988
  79.3150012  38.4704997  25.1499988  78.7502330  39.1276988  25.0727742
  77.6210012  39.0654997  20.9449988  78.0600012  39.6764997  20.3529988
  76.9880012  39.6034997  21.4189988  77.5954514  39.2219257  20.9280930
  83.3640012  39.1944997  24.9549988  84.2390012  39.5824997  24.9249988
  83.2280012  38.9794997  25.8769988  83.4653695  39.2185184  25.0756440
  88.9210012  39.2244997  26.6039988  88.9970012  39.3194997  25.6539988
  88.6460012  38.3164997  26.7329988  88.8942321  39.1147867  26.4915079
  90.2740012  39.2504997  22.2959988  89.5720012  39.8654997  22.0869988
  89.8300012  38.4124997  22.4269988  90.1176330  39.2215783  22.2850328
  77.5220012  55.0134997  21.8429988  76.8370012  54.9754997  21.1749988
  77.5260012  55.9264997  22.1309988  77.4288193  55.1317016  21.7905284
  79.4820012  40.9814997  19.3869988  79.9740012  40.3514997  18.8599988
  80.1060012  41.2774997  20.0509988  79.6335446  40.9353199  19.4045980
  84.5080012  41.2744997  21.8439988  84.6860012  40.6284997  22.5269988
  84.4550012  42.1084997  22.3119988  84.5251829  41.2987985  22.0005940
  86.3870012  56.2234997  20.2399988  87.2530012  56.5894997  20.0619988
  86.1400012  55.7834997  19.4259988  86.4722392  56.2141756  20.1056289
  93.0960012  55.7864997  22.9189988  92.9010012  55.0384997  22.3539988
  93.0570012  56.5444997  22.3359988  93.0640380  55.7866099  22.7628384
  78.7430012  39.7814997  34.6589988  78.3770012  39.0164997  35.1019988
  79.6560012  39.8104997  34.9459988  78.8162790  39.6807224  34.7584070
  80.7160012  39.1324997  36.1949988  81.6140012  38.8584997  36.0099988
  80.3290012  38.3894997  36.6589988  80.7866612  38.9945914  36.2323643
  79.3400012  55.9334997  18.8679988  79.0730012  56.2204997  19.7409988
  80.1120012  55.3874997  19.0199988  79.4077488  55.8990294  19.0081050
  89.1370012  38.4644997  36.3769988  89.2140012  38.0384997  37.2309988
  90.0310012  38.4784997  36.0339988  89.2683428  38.4080879  36.4475310
  92.3130012  54.5374997  35.0689988  91.5310012  54.3514997  34.5499988
  92.2410012  55.4664997  35.2869988  92.1961777  54.6376492  35.0274048
 106.7190012  48.4234997  25.0999988 106.8080012  49.3674997  24.9679988
 106.0810012  48.1484997  24.4419988 106.6449081  48.5154830  24.9929614
 105.6520012  47.6784997  28.5189988 105.6140012  47.0324997  29.2239988
 105.3300012  47.2124997  27.7479988 105.6032333  47.5269408  28.5112978
  98.0210012  47.2934997  30.1119988  98.0620012  46.6674997  30.8349988
  98.7240012  47.9174997  30.2939988  98.1216363  47.2921196  30.2356044
 109.3580012  50.6174997  26.8199988 108.9180012  49.8974997  27.2709988
 109.3450012  51.3384997  27.4499988 109.2960226  50.6163731  26.9668494
  98.9440012  51.7434997  28.6469988  98.5750012  50.9414997  28.2769988
  99.8850012  51.5744997  28.6929988  99.0207289  51.6110153  28.6026316
  95.5540012  45.4034997  24.0399988  95.1070012  46.2494997  24.0209988
  94.9930012  44.8234997  23.5239988  95.4169900  45.4409916  23.9676801
  96.2650012  47.5654997  26.1659988  96.4780012  46.7954997  26.6929988
  97.0030012  47.6544997  25.5619988  96.3938496  47.4721394  26.1565300
 106.4700012  55.7224997  27.0329988 107.0900012  55.0454997  26.7589988
 106.2620012  55.5044997  27.9409988 106.5266904  55.6003870  27.1183365
 104.0420012  50.1114997  28.9249988 104.3460012  49.4254997  28.3299988
 104.7630012  50.2294997  29.5429988 104.1810671  50.0336305  28.9271816
 112.7050012  41.7124997  29.7859988 112.7540012  42.3224997  30.5219988
 113.1300012  42.1734997  29.0629988 112.7691824  41.8583741  29.7890205
 107.1830012  44.5054997  29.2529988 107.3250012  43.5594997  29.2729988
 107.0760012  44.7124997  28.3239988 107.1879864  44.4039534  29.1302339
 100.3370012  42.6064997  26.5249988 100.3810012  43.4664997  26.1069988
  99.8800012  42.0544997  25.8909988 100.2812185  42.6495799  26.3820299
 108.0600012  42.7374997  24.9259988 108.7060012  42.4084997  25.5509988
 108.5700012  43.2554997  24.3029988 108.2174264  42.7624611  24.9273862
  96.9580012  45.0034997  27.2869988  97.6110012  44.4534997  27.7189988
  96.9820012  44.7294997  26.3699988  97.0506683  44.8911466  27.2222123
 102.1140012  46.5534997  26.5019988 102.7300012  46.0274997  27.0119988
 101.5280012  45.9134997  26.0989988 102.1190810  46.3949208  26.5173173
 113.0960012  43.1904997  32.0219988 112.4080012  43.8484997  31.9259988
 113.1120012  42.9934997  32.9579988 113.0038525  43.2540462  32.1354808
  99.1480012  41.5244997  30.5989988  98.9290012  42.0544997  29.8329988
  98.4800012  41.7514997  31.2459988  99.0277600  41.6276906  30.5816379
 106.5170012  51.0244997  24.1429988 106.2210012  50.7024997  23.2919988
 106.1920012  51.9244997  24.1839988 106.4326371  51.1020215  24.0321801
 101.7170012  49.2004997  30.8859988 100.9770012  49.7984997  30.9899988
 102.4310012  49.7544997  30.5709988 101.7122237  49.3572831  30.8576465
 109.8240012  42.0284997  26.9059988 109.6080012  41.2624997  27.4389988
 110.4790012  42.5004997  27.4189988 109.8830632  41.9875889  27.0482861
  98.7410012  43.4164997  28.5509988  99.3550012  44.0494997  28.9249988
  99.2530012  42.9444997  27.8949988  98.8942296  43.4392370  28.5134252
 100.1240012  51.1644997  31.6739988 100.1190012  52.0444997  31.2959988
  99.2710012  51.0814997  32.0989988 100.0079464  51.2736117  31.6797907
  96.2450012  50.8354997  22.4559988  95.9730012  51.0644997  21.5669988
  96.2910012  51.6734997  22.9159988  96.2140094  50.9801213  22.3965697
 109.8700012  52.4574997  29.1679988 108.9290012  52.5154997  29.3299988
 110.1470012  53.3634997  29.0309988 109.7784679  52.5879443  29.1716815
 110.1710012  40.7434997  30.5859988 109.4350012  41.3544997  30.5479988
 110.8540012  41.1584997  30.0589988 110.1626541  40.8831374  30.5095832
 103.1740012  38.8304997  28.0519988 103.0570012  37.8814997  27.9969988
 102.3190012  39.1624997  28.3249988 103.0423733  38.7455409  28.0813897
 108.1220012  54.2384997  25.7939988 108.5480012  53.5314997  25.3089988
 108.4390012  55.0394997  25.3769988 108.2231019  54.2500994  25.6713130
 109.2820012  52.1394997  24.3019988 109.0240012  51.4494997  23.6909988
 109.3530012  51.6964997  25.1479988 109.2562856  51.9852124  24.3326885
 110.9680012  50.7054997  32.7799988 111.1080012  50.1144997  32.0399988
 111.1350012  51.5784997  32.4229988 111.0096778  50.7426426  32.6306965
 105.4410012  47.6674997  22.5519988 104.7290012  48.2024997  22.1999988
 106.1320012  47.7234997  21.8919988 105.4370132  47.7482543  22.4146289
 105.4940012  46.1254997  19.5909988 106.1950012  46.1474997  20.2419988
 105.7970012  45.4974997  18.9349988 105.6307830  46.0436566  19.5913711
 112.8100012  47.0454997  30.8459988 112.1570012  47.7404997  30.9349988
 113.2750012  47.2554997  30.0359988 112.7835390  47.1689425  30.7486883
 108.8460012  47.8774997  23.5039988 108.1140012  48.1054997  24.0769988
 109.2940012  47.1634997  23.9589988 108.8063095  47.8122571  23.6439119
 108.7440012  46.0514997  32.5709988 108.8240012  46.8144997  33.1429988
 108.1420012  46.3304997  31.8809988 108.6735756  46.1937134  32.5560589
 100.4920012  48.5074997  25.3859988 100.1610012  48.1374997  24.5679988
 101.0800012  47.8374997  25.7329988 100.5261873  48.3661156  25.3208102
 101.8580012  51.9354997  28.0679988 101.7640012  51.3574997  27.3109988
 102.5880012  51.5644997  28.5639988 101.9437981  51.8062390  28.0314165
 100.8580012  47.2764997  29.0199988 101.4240012  47.3974997  28.2569988
 101.1770012  47.9134997  29.6589988 100.9785786  47.3791884  29.0020040
 107.1670012  52.7794997  29.7539988 106.9270012  53.4414997  30.4019988
 106.9690012  51.9454997  30.1789988 107.1073808  52.7573134  29.9001524
 101.7380012  51.6754997  33.7369988 101.4270012  52.4574997  34.1919988
 101.0880012  51.5224997  33.0509988 101.6075558  51.7619105  33.7065871
 107.7170012  47.0394997  21.1889988 108.2970012  47.1894997  21.9359988
 108.1310012  47.5104997  20.4659988 107.8522830  47.1236841  21.1934134
  98.6580012  47.8734997  32.9659988  98.7290012  48.5244997  33.6639988
  97.7680012  47.9764997  32.6309988  98.5473117  47.9765936  33.0162700
 105.4440012  53.7764997  24.6239988 105.9180012  54.0714997  25.4019988
 104.8810012  54.5144997  24.3909988 105.4327653  53.9166932  24.6990136
  99.9780012  53.7474997  34.4999988  99.9850012  53.6114997  33.5529988
  99.0620012  53.6294997  34.7519988  99.8551714  53.7129430  34.4044666
 111.4160012  38.7894997  21.0019988 110.5160012  38.9284997  21.2969988
 111.6680012  39.6204997  20.5999988 111.3268702  38.9209074  20.9880205
  99.4820012  47.5774997  22.9759988  99.1900012  48.3454997  22.4849988
  98.8080012  46.9174997  22.8129988  99.3509081  47.5934406  22.8867340
 112.6050012  53.1554997  19.3779988 112.6790012  54.0944997  19.5489988
 113.5110012  52.8504997  19.3219988 112.7375100  53.2426722  19.3938119
  95.5750012  49.9404997  31.7909988  95.0740012  49.9124997  30.9759988
  95.5800012  49.0344997  32.0999988  95.5071526  49.8142278  31.7212872
  95.3250012  52.7204997  28.6749988  96.2710012  52.5764997  28.6559988
  95.2130012  53.5044997  29.2119988  95.4392727  52.8068046  28.7450072
 113.5230012  53.3864997  34.3569988 113.4740012  52.4314997  34.3199988
 112.6960012  53.6544997  34.7579988 113.4044940  53.2918998  34.4061375
 104.5020012  52.9604997  33.2329988 104.5890012  53.7864997  33.7079988
 103.6380012  52.6304997  33.4819988 104.3971964  53.0289878  33.3316549
 104.9160012  56.7324997  23.0389988 104.8410012  56.6114997  22.0929988
 104.9490012  57.6824997  23.1579988 104.9101848  56.8442500  22.9254834
  98.5690012  55.5214997  24.8199988  98.7220012  55.1734997  25.6989988
  97.7190012  55.1654997  24.5649988  98.4748962  55.4256650  24.9058340
 108.0180012  55.8864997  20.0409988 108.3930012  55.1424997  19.5709988
 108.0220012  55.6164997  20.9599988 108.0698915  55.7481486  20.1007824
 107.6870012  55.8124997  22.7909988 106.7510012  55.9124997  22.9689988
 107.9670012  55.1034997  23.3689988 107.5968255  55.7302711  22.8935391
 110.6750012  44.8794997  34.8369988 110.2680012  45.3604997  34.1159988
 110.7160012  43.9744997  34.5289988 110.6248437  44.8229374  34.6966683
  97.8240012  51.2634997  32.8339988  98.0400012  50.9024997  33.6929988
  96.9690012  50.8894997  32.6239988  97.7379292  51.1634111  32.9233386
 100.4430012  39.7334997  28.8289988  99.5810012  39.6464997  28.4219988
 100.4200012  40.5894997  29.2569988 100.3220330  39.8372765  28.8311863
 105.1060012  39.4554997  32.2039988 105.5260012  39.0404997  32.9569988
 104.1730012  39.2774997  32.3209988 105.0373644  39.3745900  32.3229539
 108.4320012  43.2114997  33.0569988 107.9180012  43.0854997  33.8549988
 108.2770012  44.1234997  32.8129988 108.3406852  43.3176132  33.1332158
 109.1950012  48.0724997  18.8189988 109.2370012  47.8494997  17.8889988
 110.0440012  48.4714997  19.0089988 109.3155396  48.0959155  18.7173627
 104.7670012  41.9484997  19.4889988 104.5140012  41.9674997  20.4119988
 104.5110012  41.0764997  19.1879988 104.6977790  41.8332437  19.5746263
 100.5340012  44.6994997  29.9239988  99.8920012  44.6584997  30.6329988
 100.5710012  45.6254997  29.6869988 100.4511324  44.8191559  29.9889824
 100.5310012  44.9204997  24.8359988  99.6380012  44.5794997  24.7779988
 100.9810012  44.5434997  24.0809988 100.4697305  44.8228484  24.7259177
 106.0660012  45.3364997  23.6529988 105.6570012  46.1514997  23.3619988
 106.7870012  45.1964997  23.0389988 106.1074537  45.4292018  23.5301342
 105.1680012  45.5114997  35.1409988 104.6060012  44.8074997  35.4619988
 105.9950012  45.3914997  35.6089988 105.2027095  45.3987883  35.2482330
 107.0710012  44.7824997  26.4669988 106.8760012  45.3874997  25.7519988
 107.2520012  43.9484997  26.0329988 107.0687614  44.7526300  26.3104405
  98.2840012  45.0194997  31.7909988  98.2460012  45.4194997  32.6599988
  97.7930012  44.2024997  31.8819988  98.2124684  44.9638069  31.9221059
 101.6500012  42.3934997  18.5899988 101.2190012  41.9484997  19.3199988
 100.9320012  42.7654997  18.0779988 101.4939438  42.3828940  18.6206799
  94.8920012  42.1354997  25.6419988  95.5230012  42.1064997  26.3609988
  95.3410012  41.7104997  24.9119988  95.0390774  42.0740492  25.6416553
  96.1660012  42.8814997  21.0659988  96.6400012  43.4724997  20.4809988
  95.4490012  43.4124997  21.4129988  96.1339341  43.0340867  21.0328836
 106.3350012  46.4204997  31.1389988 106.6580012  45.7894997  30.4959988
 105.8950012  45.8854997  31.7989988 106.3196895  46.2618441  31.1402850
 103.1120012  42.3474997  25.9229988 102.2010012  42.4044997  26.2109988
 103.6180012  42.2874997  26.7329988 103.0555413  42.3471985  26.0720622
  97.9410012  43.9764997  24.7489988  97.0510012  44.0764997  24.4089988
  98.2370012  43.1344997  24.4029988  97.8592823  43.8763545  24.6557213
 101.5940012  43.9764997  22.4059988 102.5250012  44.1054997  22.5839988
 101.3790012  44.6464997  21.7559988 101.6924247  44.0846565  22.3425747
 107.5170012  41.5824997  29.1869988 106.8410012  41.7134997  29.8509988
 107.0320012  41.4274997  28.3769988 107.3587145  41.5794905  29.1684517
 100.2680012  45.1714997  19.9729988  99.7250012  44.7914997  19.2809988
 101.1010012  45.3654997  19.5439988 100.3064399  45.1458124  19.8204526
 110.8050012  57.2544997  35.4639988 111.0050012  57.6784997  34.6289988
 111.4600012  57.5974997  36.0709988 110.9210051  57.3589648  35.4317836
  98.4030012  49.7284997  35.0719988  99.1350012  49.9824997  35.6329988
  97.6230012  49.9324997  35.5869988  98.3978232  49.7909177  35.2185760
 104.4320012  45.1354997  27.8099988 104.9970012  44.5884997  27.2629988
 104.2850012  44.6134997  28.5979988 104.4892918  44.9902024  27.8418454
  99.4340012  41.2714997  24.2279988  99.1170012  40.3694997  24.1929988
 100.2160012  41.2734997  23.6749988  99.4962284  41.1481628  24.1484783
 103.0590012  43.5234997  30.2239988 102.2230012  43.9774997  30.3339988
 103.5830012  43.7994997  30.9759988 103.0154414  43.6229376  30.3407136
 103.6030012  49.7364997  21.9079988 102.8580012  49.2294997  21.5859988
 103.4690012  49.7854997  22.8549988 103.4828776  49.6736940  21.9918647
 110.7530012  48.8694997  30.6949988 111.3950012  49.3264997  30.1509988
 109.9230012  48.9824997  30.2319988 110.7285963  48.9472704  30.5580177
 107.5010012  42.5504997  20.1079988 106.5620012  42.6624997  19.9559988
 107.7980012  43.4074997  20.4139988 107.4127666  42.6816443  20.1285768
 105.1220012  49.9204997  33.1449988 104.7770012  49.5394997  33.9519988
 104.9220012  50.8544997  33.2169988 105.0478061  49.9945228  33.2650961
 108.2190012  44.4174997  21.7679988 109.1110012  44.2804997  22.0869988
 108.2760012  45.2084997  21.2319988 108.3486285  44.5056660  21.7391691
  98.7280012  49.0314997  27.6779988  99.4730012  49.0294997  27.0769988
  98.8060012  48.2084997  28.1599988  98.8405518  48.9199315  27.6608929
 105.7290012  51.1954997  20.9339988 105.4330012  52.0214997  21.3149988
 105.0260012  50.5754997  21.1299988 105.5934914  51.2248199  21.0126443
  95.7360012  47.4924997  32.9929988  95.9590012  47.0744997  33.8249988
  95.1340012  46.8794997  32.5699988  95.6851759  47.3524668  33.0497022
 102.7520012  47.0094997  35.2059988 102.4560012  46.8434997  34.3109988
 103.6840012  46.7894997  35.1949988 102.8374166  46.9570640  35.0820536
 107.3730012  52.3824997  33.0959988 106.4720012  52.5654997  32.8279988
 107.4070012  52.6414997  34.0169988 107.2543041  52.4425512  33.1838197
 113.1040012  44.6274997  21.4629988 112.5500012  44.2314997  20.7909988
 113.2040012  45.5374997  21.1849988 113.0417059  44.6963586  21.3334401
 113.0670012  50.4274997  34.2999988 112.2160012  50.6654997  33.9329988
 113.6580012  50.4104997  33.5469988 113.0302487  50.4578258  34.1478893
 111.3990012  53.4134997  21.9279988 111.0260012  52.5874997  22.2369988
 111.6770012  53.2304997  21.0309988 111.3855630  53.2757303  21.8489626
 108.5600012  48.2214997  28.9489988 107.6310012  47.9894997  28.9219988
 109.0110012  47.4444997  28.6189988 108.4939216  48.0847238  28.9006917
 101.1030012  52.5494997  25.0819988 101.6300012  53.3224997  24.8819988
 100.2230012  52.7744997  24.7809988 101.0561773  52.6858005  25.0139010
  96.8580012  47.4114997  19.6689988  97.4740012  48.0384997  20.0489988
  95.9960012  47.7274997  19.9409988  96.8257698  47.5399430  19.7577183
 102.5300012  50.2124997  24.6589988 102.2890012  51.1374997  24.6999988
 101.7890012  49.7534997  25.0549988 102.3968409  50.2771421  24.7181377
 103.0450012  54.3614997  30.9739988 103.4070012  55.2164997  30.7399988
 103.5760012  54.0694997  31.7139988 103.1664473  54.4391060  31.0420855
 101.2130012  55.2344997  24.2039988 100.2630012  55.3394997  24.2549988
 101.5650012  56.0544997  24.5489988 101.1304203  55.3598314  24.2576650
 106.5890012  50.4604997  30.6739988 106.1630012  50.2334997  31.5009988
 107.1690012  49.7224997  30.4919988 106.6091868  50.3295299  30.7625830
 108.7920012  51.3894997  19.7479988 109.1450012  51.0094997  20.5529988
 107.8430012  51.2964997  19.8349988 108.7120441  51.3249596  19.8698559
 109.2470012  55.0124997  33.1439988 108.6460012  54.4574997  32.6479988
 109.5290012  55.6794997  32.5179988 109.2028519  55.0266841  32.9914952
 113.2950012  55.8694997  19.9489988 114.0390012  56.4554997  19.8089988
 112.6010012  56.4374997  20.2829988 113.3030292  56.0265582  19.9749961
  97.3700012  42.2454997  32.5509988  96.4770012  42.5844997  32.4829988
  97.2710012  41.3904997  32.9689988  97.2344164  42.1762588  32.5982235
 109.6580012  50.0624997  21.9749988 109.3800012  49.3344997  22.5309988
 110.5850012  50.1814997  22.1799988 109.7453124  49.9788802  22.0788845
  97.0210012  54.0504997  30.9859988  97.2380012  53.1184997  30.9549988
  97.2670012  54.3244997  31.8689988  97.0839549  53.9600636  31.1011763
 102.8830012  52.5014997  18.1949988 103.1220012  51.7534997  17.6479988
 102.6140012  52.1134997  19.0279988 102.8793675  52.3466638  18.2326865
 101.8200012  52.0714997  20.6519988 101.9660012  51.5514997  21.4419988
 101.8170012  52.9784997  20.9579988 101.8395989  52.1228853  20.8016088
  98.2730012  49.3244997  21.1619988  97.5870012  49.6764997  21.7289988
  98.7950012  50.0874997  20.9149988  98.2496852  49.4758578  21.2062118
 106.1040012  41.9864997  31.4409988 106.8030012  42.0604997  32.0909988
 105.7230012  41.1224997  31.5949988 106.1481767  41.8797624  31.5508322
 106.8890012  41.6384997  22.5379988 107.1090012  42.1104997  21.7349988
 107.4470012  42.0334997  23.2079988 106.9944968  41.7564285  22.5187331
 104.5570012  53.7694997  21.4009988 103.7410012  54.2664997  21.4529988
 105.0870012  54.2444997  20.7609988 104.5169161  53.9017722  21.3215956
 104.0890012  43.3664997  23.3729988 104.9010012  43.8714997  23.4189988
 103.8440012  43.2214997  24.2869988 104.1670520  43.4160375  23.5028517
 104.6240012  44.3524997  32.5579988 104.7430012  44.9264997  33.3149988
 105.2800012  43.6644997  32.6719988 104.7289757  44.3381079  32.6770825
 104.9720012  40.4474997  24.3109988 104.6260012  41.0654997  24.9559988
 105.6310012  40.9484997  23.8299988 105.0137826  40.5995802  24.3340971
 101.8960012  54.8134997  21.3829988 102.0560012  55.6124997  20.8819988
 101.6980012  55.1194997  22.2679988 101.8911649  54.9644469  21.4339815
 100.6300012  41.5104997  20.9979988 100.5470012  42.3994997  21.3449988
 101.5200012  41.2454997  21.2299988 100.7389469  41.5961430  21.0767626
 110.8290012  42.2594997  33.3929988 109.9120012  42.5224997  33.3049988
 111.1640012  42.2564997  32.4959988 110.7489900  42.2950224  33.2597919
 109.4310012  46.0104997  27.4879988 108.6330012  45.5954997  27.1599988
 109.8760012  45.3194997  27.9789988 109.3819885  45.8603543  27.5094889
  98.8890012  51.9384997  20.0589988  99.4810012  52.6374997  20.3349988
  99.3480012  51.5054997  19.3389988  99.0321142  51.9757049  19.9994830
  97.2050012  44.6024997  19.1749988  97.1600012  45.5414997  19.3529988
  96.3170012  44.3664997  18.9049988  97.0788574  44.6991892  19.1628912
 110.5170012  55.2664997  29.1109988 110.3620012  55.9444997  28.4539988
 111.4500012  55.3384997  29.3139988 110.6218500  55.3690170  29.0485119
  98.0130012  39.3844997  27.8479988  97.7840012  39.4434997  26.9199988
  97.5700012  38.5924997  28.1539988  97.9218530  39.2855753  27.7624786
  96.9430012  53.3244997  24.0079988  96.1110012  53.7974997  24.0359988
  97.4890012  53.8344997  23.4099988  96.9029739  53.4581871  23.9309716
  96.2310012  55.9374997  35.3379988  96.7720012  55.7204997  36.0979988
  95.7500012  55.1314997  35.1489988  96.2399345  55.7989514  35.4163076
 100.8290012  54.8564997  36.9589988 101.5960012  54.3974997  37.2999988
 100.8070012  54.6304997  36.0289988 100.9311434  54.7630409  36.8800043
 104.9210012  54.3644997  18.3339988 104.2770012  53.7334997  18.6549988
 105.6830012  53.8334997  18.1019988 104.9358077  54.2062920  18.3466011
 107.4060012  53.2364997  35.6879988 107.0550012  52.3804997  35.9309988
 108.1320012  53.3794997  36.2949988 107.4560769  53.1385636  35.8033619
 109.5250012  54.1814997  18.5679988 109.8080012  53.3874997  19.0199988
 110.2650012  54.4144997  18.0069988 109.6637486  54.1042803  18.5540698
  96.1380012  49.7474997  36.2929988  96.2820012  48.8454997  36.0059988
  95.3660012  50.0334997  35.8049988  96.0533322  49.6628261  36.1877881
 100.4800012  50.0914997  18.4249988 100.5440012  49.2974997  18.9559988
 101.1330012  49.9724997  17.7349988 100.5770241  49.9667148  18.4044317
 102.7940012  49.7174997  35.7249988 102.4650012  49.9884997  34.8679988
 102.9460012  48.7764997  35.6379988 102.7694809  49.6273862  35.5958244
 105.8320012  51.1384997  18.1609988 105.5630012  51.3184997  19.0619988
 105.6260012  50.2124997  18.0299988 105.7673825  51.0380152  18.2665214
 108.5280012  49.6334997  33.1089988 109.2740012  50.2214997  32.9889988
 107.7710012  50.2154997  33.1719988 108.5277554  49.7927011  33.1010907
  96.9710012  46.9474997  35.7129988  97.3790012  46.0904997  35.5919988
  96.7110012  46.9624997  36.6339988  96.9917568  46.8320807  35.8209588
 101.6290012  48.0634997  20.7309988 101.1690012  47.5794997  21.4169988
 101.8840012  47.3954997  20.0949988 101.6004902  47.9068731  20.7389334
 100.9180012  45.9564997  33.0869988 100.3000012  46.6314997  33.3669988
 101.2620012  46.2774997  32.2539988 100.8799615  46.0922721  33.0126581
 102.7000012  46.3064997  18.9929988 102.5200012  46.1524997  18.0659988
 103.6500012  46.4144997  19.0379988 102.8037776  46.3000175  18.8721843
 105.9380012  48.4284997  36.3639988 106.8910012  48.5114997  36.3369988
 105.7770012  47.7164997  36.9839988 106.0466426  48.3436746  36.4440579
 112.0900012  48.6614997  18.4389988 111.8160012  48.2364997  17.6259988
 112.1290012  49.5924997  18.2219988 112.0577699  48.7292484  18.2983610
 101.2570012  43.3114997  34.1689988 101.4070012  42.5824997  33.5669988
 101.2600012  44.0884997  33.6099988 101.2779302  43.3167851  34.0110692
 101.6700012  41.6814997  31.6619988 102.2060012  42.1324997  31.0099988
 100.8180012  41.5734997  31.2389988 101.6282178  41.7286390  31.5155756
 103.2520012  47.1204997  31.9009988 104.0020012  46.9644997  31.3279988
 102.9130012  47.9724997  31.6259988 103.3088921  47.2142968  31.7853561
 107.6670012  44.9354997  36.9299988 107.8600012  44.0044997  36.8179988
 108.5250012  45.3604997  36.9199988 107.8093020  44.8656389  36.9133361
 108.9840012  47.7244997  35.0069988 108.7030012  48.4334997  34.4299988
 109.9270012  47.6514997  34.8559988 109.0729027  47.8117646  34.9075551
  99.7360012  44.5094997  36.0809988  98.9690012  43.9774997  35.8709988
 100.4150012  44.1994997  35.4809988  99.7227022  44.3947506  35.9711648
 102.4760012  39.1374997  32.0929988 102.3770012  40.0844997  31.9879988
 101.7330012  38.7654997  31.6179988 102.3620564  39.2165902  32.0144560
 103.7400012  43.4594997  35.6569988 103.5040012  43.2394997  36.5589988
 102.9560012  43.2524997  35.1469988 103.6018628  43.4014760  35.7113932
 106.4550012  42.5864997  34.7329988 105.5080012  42.6184997  34.8649988
 106.7680012  41.9614997  35.3859988 106.3675475  42.5063207  34.8394455
 108.0890012  41.2204997  36.7379988 107.9930012  40.2684997  36.7319988
 107.7680012  41.4894997  37.5979988 108.0324070  41.1264035  36.8535441
  97.9160012  42.4304997  35.7849988  98.1280012  41.7234997  35.1749988
  97.8050012  41.9924997  36.6289988  97.9299721  42.2747084  35.8156843
 102.6970012  38.4314997  34.7649988 103.4090012  37.7914997  34.7509988
 102.5960012  38.6984997  33.8509988 102.7807939  38.3799938  34.6395650
 103.0510012  40.1144997  36.8179988 102.9190012  39.6384997  35.9979988
 102.4520012  40.8584997  36.7629988 102.9519071  40.1499618  36.6982886
 102.5970012  56.9974997  19.9949988 103.5300012  57.1554997  20.1379988
 102.3330012  57.6724997  19.3699988 102.6889510  57.1103611  19.9300741
  96.1660012  51.6334997  19.4769988  97.0800012  51.7124997  19.7509988
  96.1730012  50.9464997  18.8109988  96.2921131  51.5513961  19.4244393
  94.8150012  57.0264997  24.5549988  94.1680012  56.5644997  24.0219988
  95.1690012  56.3544997  25.1369988  94.7743849  56.8724723  24.5607959
  95.6850012  55.1074997  26.3589988  95.3500012  54.2274997  26.5309988
  95.9070012  55.4524997  27.2239988  95.6691783  55.0337501  26.4994208
 113.2330012  55.9164997  29.3399988 113.2120012  56.1014997  30.2789988
 113.9240012  56.4854997  28.9989988 113.3234618  56.0186606  29.4223864
 112.7970012  55.4844997  32.2619988 112.3090012  54.7484997  31.8909988
 113.3460012  55.0904997  32.9399988 112.8044872  55.3306249  32.3029160
 111.2470012  51.2734997  36.8999988 110.3810012  51.1684997  37.2939988
 111.6240012  52.0324997  37.3459988 111.1793308  51.3616900  37.0142393
 112.5480012  49.5304997  22.4139988 113.3980012  49.9514997  22.5409988
 112.5540012  48.7904997  23.0209988 112.6651372  49.4880803  22.5134344
 112.9430012  47.5834997  24.2379988 112.2160012  47.1044997  24.6349988
 113.5240012  47.7894997  24.9699988 112.9219375  47.5457090  24.3914129
 112.7020012  50.3684997  29.1849988 113.5350012  49.9904997  28.9049988
 112.8140012  51.3114997  29.0659988 112.8312647  50.4442218  29.1305487
 111.1880012  53.2464997  31.4919988 110.5410012  53.5714997  32.1179988
 110.6710012  52.8064997  30.8179988 111.0294029  53.2315004  31.4865827
 113.2110012  47.4844997  20.6289988 112.6890012  47.8414997  19.9099988
 113.1780012  48.1594997  21.3069988 113.1351634  47.6245413  20.6223145
 111.5600012  44.7244997  19.1799988 111.6560012  45.3914997  18.4989988
 111.4200012  43.9084997  18.6979988 111.5542135  44.7054500  19.0218491
 110.7290012  46.1044997  24.8009988 110.5790012  45.1594997  24.7799988
 110.3760012  46.3854997  25.6439988 110.6606625  46.0130441  24.9122346
  95.7650012  48.1824997  28.8109988  95.9490012  48.1004997  27.8749988
  96.6140012  48.0584997  29.2349988  95.9050139  48.1545003  28.7401455
 111.5860012  48.0744997  34.4389988 112.1690012  47.3404997  34.6309988
 112.1500012  48.8464997  34.4859988 111.7419769  48.0784227  34.4716159
 113.0820012  45.9774997  35.1239988 112.2190012  45.5984997  34.9579988
 113.6870012  45.2384997  35.0499988 113.0455979  45.8258023  35.0912817
 110.8070012  42.1324997  18.2969988 111.4180012  41.7614997  18.9339988
 109.9710012  41.7114997  18.4929988 110.7775032  42.0247554  18.4107035
 110.4400012  43.6874997  23.2629988 110.7200012  42.7804997  23.3869988
 111.1990012  44.1214997  22.8739988 110.5809277  43.6220942  23.2273682
 111.0520012  44.2684997  28.6989988 111.9850012  44.4804997  28.6649988
 110.8170012  44.3704997  29.6209988 111.1478036  44.3112769  28.8189976
 111.0810012  45.0054997  31.4749988 110.2380012  45.2734997  31.8409988
 111.5230012  45.8274997  31.2639988 111.0254158  45.1533291  31.4965491
  95.3620012  43.4534997  34.9519988  96.2820012  43.3314997  35.1879988
  94.9130012  42.7034997  35.3409988  95.4271580  43.3353727  35.0369006
 113.3640012  38.9854997  36.8279988 113.7140012  38.3314997  36.2229988
 113.5110012  39.8224997  36.3889988 113.4318419  39.0091591  36.6857118
 111.0530012  40.9504997  23.3109988 111.2360012  40.5014997  24.1369988
 110.4540012  40.3654997  22.8479988 110.9970202  40.8099975  23.3613275
  96.5830012  41.7654997  27.8429988  97.0290012  40.9734997  28.1449988
  97.0500012  42.4814997  28.2739988  96.7070172  41.7540624  27.9424820
  94.8870012  44.7644997  28.9119988  95.3790012  44.5434997  28.1209988
  95.2500012  45.6054997  29.1929988  95.0033126  44.8478357  28.8417531
 112.8840012  41.0944997  35.1779988 111.9660012  41.3654997  35.1419988
 113.0070012  40.5594997  34.3929988 112.7751066  41.0592892  35.0670487
 112.9200012  41.0174997  19.8389988 113.3320012  40.2964997  19.3639988
 113.6020012  41.6874997  19.8979988 113.0685885  41.0092368  19.7818915
  95.2010012  41.0224997  22.9659988  94.2760012  41.2314997  22.8369988
  95.6550012  41.5064997  22.2769988  95.1357368  41.1165993  22.8551226
 109.9720012  56.0064997  24.9119988 110.6240012  55.6594997  24.3039988
 110.4820012  56.4954997  25.5579988 110.1302637  56.0250597  24.9160236
  95.1650012  39.7604997  31.3109988  94.5000012  39.5144997  31.9539988
  94.7220012  40.3824997  30.7329988  95.0140956  39.8108632  31.3209352
  97.3570012  52.9354997  35.4549988  96.5360012  53.1104997  34.9949988
  97.1040012  52.8624997  36.3759988  97.2106164  52.9495622  35.5164923
 100.3110012  53.9104997  31.7139988  99.8860012  54.7194997  31.4309988
 101.2150012  53.9954997  31.4119988 100.3750271  54.0328469  31.6343776
 104.6220012  55.3094997  34.6729988 104.8070012  54.9754997  35.5509988
 105.4680012  55.6184997  34.3509988 104.7617539  55.3056047  34.7495605
 106.9670012  56.5954997  33.9169988 107.6440012  55.9624997  33.6769988
 107.2890012  56.9964997  34.7239988 107.1031637  56.5631154  33.9932793
 111.8840012  39.1844997  32.9969988 111.0720012  39.5094997  32.6089988
 112.1170012  38.4244997  32.4639988 111.8043423  39.1262436  32.8718253
  97.7130012  57.1664997  31.7609988  96.9920012  57.6064997  31.3099988
  97.3470012  56.9154997  32.6099988  97.5649804  57.1927698  31.8139840
 100.1800012  56.7664997  30.7909988  99.3150012  56.8384997  31.1949988
 100.1250012  57.3134997  30.0069988 100.0542085  56.8502685  30.7403362
 104.8900012  56.6544997  29.9659988 104.4340012  57.1834997  29.3119988
 105.0530012  57.2574997  30.6919988 104.8495585  56.8084468  29.9745062
 107.2180012  55.5324997  30.9109988 106.3130012  55.6974997  30.6459988
 107.6470012  56.3854997  30.8459988 107.1520799  55.6704483  30.8659182
 109.8220012  57.1024997  31.2059988 109.6400012  58.0184997  30.9959988
 109.9990012  56.6924997  30.3599988 109.8210210  57.1724822  31.0627885
  97.1270012  55.7894997  28.6709988  97.1090012  55.3644997  29.5289988
  97.9320012  55.4714997  28.2629988  97.2333875  55.6883812  28.7331655
  99.2690012  54.4994997  27.3259988  99.0500012  53.5834997  27.4959988
 100.0930012  54.6394997  27.7919988  99.3504420  54.3930520  27.4122774
 101.8060012  54.9694997  28.1749988 102.0190012  54.0814997  27.8879988
 101.8700012  54.9354997  29.1289988 101.8438232  54.8433102  28.2647397
 105.3140012  40.6334997  27.3189988 104.6400012  40.0044997  27.5749988
 105.8780012  40.1494997  26.7159988 105.2979230  40.4818744  27.2725340
 110.4570012  38.7414997  27.4319988 111.0610012  39.2884997  26.9299988
 109.5870012  39.0604997  27.1919988 110.4221241  38.8595806  27.3307654
 112.1840012  39.8794997  25.7649988 112.7960012  39.3654997  25.2389988
 112.5660012  40.7574997  25.7889988 112.3194540  39.9277140  25.6961830
  97.6410012  39.2674997  25.1409988  96.8640012  39.0334997  24.6339988
  98.1710012  38.4704997  25.1499988  97.6062330  39.1276988  25.0727742
  96.4770012  39.0654997  20.9449988  96.9160012  39.6764997  20.3529988
  95.8440012  39.6034997  21.4189988  96.4514514  39.2219257  20.9280930
 102.2200012  39.1944997  24.9549988 103.0950012  39.5824997  24.9249988
 102.0840012  38.9794997  25.8769988 102.3213695  39.2185184  25.0756440
 107.7770012  39.2244997  26.6039988 107.8530012  39.3194997  25.6539988
 107.5020012  38.3164997  26.7329988 107.7502321  39.1147867  26.4915079
 109.1300012  39.2504997  22.2959988 108.4280012  39.8654997  22.0869988
 108.6860012  38.4124997  22.4269988 108.9736330  39.2215783  22.2850328
  96.3780012  55.0134997  21.8429988  95.6930012  54.9754997  21.1749988
  96.3820012  55.9264997  22.1309988  96.2848193  55.1317016  21.7905284
  98.3380012  40.9814997  19.3869988  98.8300012  40.3514997  18.8599988
  98.9620012  41.2774997  20.0509988  98.4895446  40.9353199  19.4045980
 103.3640012  41.2744997  21.8439988 103.5420012  40.6284997  22.5269988
 103.3110012  42.1084997  22.3119988 103.3811829  41.2987985  22.0005940
 105.2430012  56.2234997  20.2399988 106.1090012  56.5894997  20.0619988
 104.9960012  55.7834997  19.4259988 105.3282392  56.2141756  20.1056289
 111.9520012  55.7864997  22.9189988 111.7570012  55.0384997  22.3539988
 111.9130012  56.5444997  22.3359988 111.9200380  55.7866099  22.7628384
  97.5990012  39.7814997  34.6589988  97.2330012  39.0164997  35.1019988
  98.5120012  39.8104997  34.9459988  97.6722790  39.6807224  34.7584070
  99.5720012  39.1324997  36.1949988 100.4700012  38.8584997  36.0099988
  99.1850012  38.3894997  36.6589988  99.6426612  38.9945914  36.2323643
  98.1960012  55.9334997  18.8679988  97.9290012  56.2204997  19.7409988
  98.9680012  55.3874997  19.0199988  98.2637488  55.8990294  19.0081050
 107.9930012  38.4644997  36.3769988 108.0700012  38.0384997  37.2309988
 108.8870012  38.4784997  36.0339988 108.1243428  38.4080879  36.4475310
 111.1690012  54.5374997  35.0689988 110.3870012  54.3514997  34.5499988
 111.0970012  55.4664997  35.2869988 111.0521777  54.6376492  35.0274048
 125.5750012  48.4234997  25.0999988 125.6640012  49.3674997  24.9679988
 124.9370012  48.1484997  24.4419988 125.5009081  48.5154830  24.9929614
 124.5080012  47.6784997  28.5189988 124.4700012  47.0324997  29.2239988
 124.1860012  47.2124997  27.7479988 124.4592333  47.5269408  28.5112978
 116.8770012  47.2934997  30.1119988 116.9180012  46.6674997  30.8349988
 117.5800012  47.9174997  30.2939988 116.9776363  47.2921196  30.2356044
 128.2140012  50.6174997  26.8199988 127.7740012  49.8974997  27.2709988
 128.2010012  51.3384997  27.4499988 128.1520226  50.6163731  26.9668494
 117.8000012  51.7434997  28.6469988 117.4310012  50.9414997  28.2769988
 118.7410012  51.5744997  28.6929988 117.8767289  51.6110153  28.6026316
 114.4100012  45.4034997  24.0399988 113.9630012  46.2494997  24.0209988
 113.8490012  44.8234997  23.5239988 114.2729900  45.4409916  23.9676801
 115.1210012  47.5654997  26.1659988 115.3340012  46.7954997  26.6929988
 115.8590012  47.6544997  25.5619988 115.2498496  47.4721394  26.1565300
 125.3260012  55.7224997  27.0329988 125.9460012  55.0454997  26.7589988
 125.1180012  55.5044997  27.9409988 125.3826904  55.6003870  27.1183365
 122.8980012  50.1114997  28.9249988 123.2020012  49.4254997  28.3299988
 123.6190012  50.2294997  29.5429988 123.0370671  50.0336305  28.9271816
 131.5610012  41.7124997  29.7859988 131.6100012  42.3224997  30.5219988
 131.9860012  42.1734997  29.0629988 131.6251824  41.8583741  29.7890205
 126.0390012  44.5054997  29.2529988 126.1810012  43.5594997  29.2729988
 125.9320012  44.7124997  28.3239988 126.0439864  44.4039534  29.1302339
 119.1930012  42.6064997  26.5249988 119.2370012  43.4664997  26.1069988
 118.7360012  42.0544997  25.8909988 119.1372185  42.6495799  26.3820299
 126.9160012  42.7374997  24.9259988 127.5620012  42.4084997  25.5509988
 127.4260012  43.2554997  24.3029988 127.0734264  42.7624611  24.9273862
 115.8140012  45.0034997  27.2869988 116.4670012  44.4534997  27.7189988
 115.8380012  44.7294997  26.3699988 115.9066683  44.8911466  27.2222123
 120.9700012  46.5534997  26.5019988 121.5860012  46.0274997  27.0119988
 120.3840012  45.9134997  26.0989988 120.9750810  46.3949208  26.5173173
 131.9520012  43.1904997  32.0219988 131.2640012  43.8484997  31.9259988
 131.9680012  42.9934997  32.9579988 131.8598525  43.2540462  32.1354808
 118.0040012  41.5244997  30.5989988 117.7850012  42.0544997  29.8329988
 117.3360012  41.7514997  31.2459988 117.8837600  41.6276906  30.5816379
 125.3730012  51.0244997  24.1429988 125.0770012  50.7024997  23.2919988
 125.0480012  51.9244997  24.1839988 125.2886371  51.1020215  24.0321801
 120.5730012  49.2004997  30.8859988 119.8330012  49.7984997  30.9899988
 121.2870012  49.7544997  30.5709988 120.5682237  49.3572831  30.8576465
 128.6800012  42.0284997  26.9059988 128.4640012  41.2624997  27.4389988
 129.3350012  42.5004997  27.4189988 128.7390632  41.9875889  27.0482861
 117.5970012  43.4164997  28.5509988 118.2110012  44.0494997  28.9249988
 118.1090012  42.9444997  27.8949988 117.7502296  43.4392370  28.5134252
 118.9800012  51.1644997  31.6739988 118.9750012  52.0444997  31.2959988
 118.1270012  51.0814997  32.0989988 118.8639464  51.2736117  31.6797907
 115.1010012  50.8354997  22.4559988 114.8290012  51.0644997  21.5669988
 115.1470012  51.6734997  22.9159988 115.0700094  50.9801213  22.3965697
 128.7260012  52.4574997  29.1679988 127.7850012  52.5154997  29.3299988
 129.0030012  53.3634997  29.0309988 128.6344679  52.5879443  29.1716815
 129.0270012  40.7434997  30.5859988 128.2910012  41.3544997  30.5479988
 129.7100012  41.1584997  30.0589988 129.0186541  40.8831374  30.5095832
 122.0300012  38.8304997  28.0519988 121.9130012  37.8814997  27.9969988
 121.1750012  39.1624997  28.3249988 121.8983733  38.7455409  28.0813897
 126.9780012  54.2384997  25.7939988 127.4040012  53.5314997  25.3089988
 127.2950012  55.0394997  25.3769988 127.0791019  54.2500994  25.6713130
 128.1380012  52.1394997  24.3019988 127.8800012  51.4494997  23.6909988
 128.2090012  51.6964997  25.1479988 128.1122856  51.9852124  24.3326885
 129.8240012  50.7054997  32.7799988 129.9640012  50.1144997  32.0399988
 129.9910012  51.5784997  32.4229988 129.8656778  50.7426426  32.6306965
 124.2970012  47.6674997  22.5519988 123.5850012  48.2024997  22.1999988
 124.9880012  47.7234997  21.8919988 124.2930132  47.7482543  22.4146289
 124.3500012  46.1254997  19.5909988 125.0510012  46.1474997  20.2419988
 124.6530012  45.4974997  18.9349988 124.4867830  46.0436566  19.5913711
 131.6660012  47.0454997  30.8459988 131.0130012  47.7404997  30.9349988
 132.1310012  47.2554997  30.0359988 131.6395390  47.1689425  30.7486883
 127.7020012  47.8774997  23.5039988 126.9700012  48.1054997  24.0769988
 128.1500012  47.1634997  23.9589988 127.6623095  47.8122571  23.6439119
 127.6000012  46.0514997  32.5709988 127.6800012  46.8144997  33.1429988
 126.9980012  46.3304997  31.8809988 127.5295756  46.1937134  32.5560589
 119.3480012  48.5074997  25.3859988 119.0170012  48.1374997  24.5679988
 119.9360012  47.8374997  25.7329988 119.3821873  48.3661156  25.3208102
 120.7140012  51.9354997  28.0679988 120.6200012  51.3574997  27.3109988
 121.4440012  51.5644997  28.5639988 120.7997981  51.8062390  28.0314165
 119.7140012  47.2764997  29.0199988 120.2800012  47.3974997  28.2569988
 120.0330012  47.9134997  29.6589988 119.8345786  47.3791884  29.0020040
 126.0230012  52.7794997  29.7539988 125.7830012  53.4414997  30.4019988
 125.8250012  51.9454997  30.1789988 125.9633808  52.7573134  29.9001524
 120.5940012  51.6754997  33.7369988 120.2830012  52.4574997  34.1919988
 119.9440012  51.5224997  33.0509988 120.4635558  51.7619105  33.7065871
 126.5730012  47.0394997  21.1889988 127.1530012  47.1894997  21.9359988
 126.9870012  47.5104997  20.4659988 126.7082830  47.1236841  21.1934134
 117.5140012  47.8734997  32.9659988 117.5850012  48.5244997  33.6639988
 116.6240012  47.9764997  32.6309988 117.4033117  47.9765936  33.0162700
 124.3000012  53.7764997  24.6239988 124.7740012  54.0714997  25.4019988
 123.7370012  54.5144997  24.3909988 124.2887653  53.9166932  24.6990136
 118.8340012  53.7474997  34.4999988 118.8410012  53.6114997  33.5529988
 117.9180012  53.6294997  34.7519988 118.7111714  53.7129430  34.4044666
 130.2720012  38.7894997  21.0019988 129.3720012  38.9284997  21.2969988
 130.5240012  39.6204997  20.5999988 130.1828702  38.9209074  20.9880205
 118.3380012  47.5774997  22.9759988 118.0460012  48.3454997  22.4849988
 117.6640012  46.9174997  22.8129988 118.2069081  47.5934406  22.8867340
 131.4610012  53.1554997  19.3779988 131.5350012  54.0944997  19.5489988
 132.3670012  52.8504997  19.3219988 131.5935100  53.2426722  19.3938119
 114.4310012  49.9404997  31.7909988 113.9300012  49.9124997  30.9759988
 114.4360012  49.0344997  32.0999988 114.3631526  49.8142278  31.7212872
 114.1810012  52.7204997  28.6749988 115.1270012  52.5764997  28.6559988
 114.0690012  53.5044997  29.2119988 114.2952727  52.8068046  28.7450072
 132.3790012  53.3864997  34.3569988 132.3300012  52.4314997  34.3199988
 131.5520012  53.6544997  34.7579988 132.2604940  53.2918998  34.4061375
 123.3580012  52.9604997  33.2329988 123.4450012  53.7864997  33.7079988
 122.4940012  52.6304997  33.4819988 123.2531964  53.0289878  33.3316549
 123.7720012  56.7324997  23.0389988 123.6970012  56.6114997  22.0929988
 123.8050012  57.6824997  23.1579988 123.7661848  56.8442500  22.9254834
 117.4250012  55.5214997  24.8199988 117.5780012  55.1734997  25.6989988
 116.5750012  55.1654997  24.5649988 117.3308962  55.4256650  24.9058340
 126.8740012  55.8864997  20.0409988 127.2490012  55.1424997  19.5709988
 126.8780012  55.6164997  20.9599988 126.9258915  55.7481486  20.1007824
 126.5430012  55.8124997  22.7909988 125.6070012  55.9124997  22.9689988
 126.8230012  55.1034997  23.3689988 126.4528255  55.7302711  22.8935391
 129.5310012  44.8794997  34.8369988 129.1240012  45.3604997  34.1159988
 129.5720012  43.9744997  34.5289988 129.4808437  44.8229374  34.6966683
 116.6800012  51.2634997  32.8339988 116.8960012  50.9024997  33.6929988
 115.8250012  50.8894997  32.6239988 116.5939292  51.1634111  32.9233386
 119.2990012  39.7334997  28.8289988 118.4370012  39.6464997  28.4219988
 119.2760012  40.5894997  29.2569988 119.1780330  39.8372765  28.8311863
 123.9620012  39.4554997  32.2039988 124.3820012  39.0404997  32.9569988
 123.0290012  39.2774997  32.3209988 123.8933644  39.3745900  32.3229539
 127.2880012  43.2114997  33.0569988 126.7740012  43.0854997  33.8549988
 127.1330012  44.1234997  32.8129988 127.1966852  43.3176132  33.1332158
 128.0510012  48.0724997  18.8189988 128.0930012  47.8494997  17.8889988
 128.9000012  48.4714997  19.0089988 128.1715396  48.0959155  18.7173627
 123.6230012  41.9484997  19.4889988 123.3700012  41.9674997  20.4119988
 123.3670012  41.0764997  19.1879988 123.5537790  41.8332437  19.5746263
 119.3900012  44.6994997  29.9239988 118.7480012  44.6584997  30.6329988
 119.4270012  45.6254997  29.6869988 119.3071324  44.8191559  29.9889824
 119.3870012  44.9204997  24.8359988 118.4940012  44.5794997  24.7779988
 119.8370012  44.5434997  24.0809988 119.3257305  44.8228484  24.7259177
 124.9220012  45.3364997  23.6529988 124.5130012  46.1514997  23.3619988
 125.6430012  45.1964997  23.0389988 124.9634537  45.4292018  23.5301342
 124.0240012  45.5114997  35.1409988 123.4620012  44.8074997  35.4619988
 124.8510012  45.3914997  35.6089988 124.0587095  45.3987883  35.2482330
 125.9270012  44.7824997  26.4669988 125.7320012  45.3874997  25.7519988
 126.1080012  43.9484997  26.0329988 125.9247614  44.7526300  26.3104405
 117.1400012  45.0194997  31.7909988 117.1020012  45.4194997  32.6599988
 116.6490012  44.2024997  31.8819988 117.0684684  44.9638069  31.9221059
 120.5060012  42.3934997  18.5899988 120.0750012  41.9484997  19.3199988
 119.7880012  42.7654997  18.0779988 120.3499438  42.3828940  18.6206799
 113.7480012  42.1354997  25.6419988 114.3790012  42.1064997  26.3609988
 114.1970012  41.7104997  24.9119988 113.8950774  42.0740492  25.6416553
 115.0220012  42.8814997  21.0659988 115.4960012  43.4724997  20.4809988
 114.3050012  43.4124997  21.4129988 114.9899341  43.0340867  21.0328836
 125.1910012  46.4204997  31.1389988 125.5140012  45.7894997  30.4959988
 124.7510012  45.8854997  31.7989988 125.1756895  46.2618441  31.1402850
 121.9680012  42.3474997  25.9229988 121.0570012  42.4044997  26.2109988
 122.4740012  42.2874997  26.7329988 121.9115413  42.3471985  26.0720622
 116.7970012  43.9764997  24.7489988 115.9070012  44.0764997  24.4089988
 117.0930012  43.1344997  24.4029988 116.7152823  43.8763545  24.6557213
 120.4500012  43.9764997  22.4059988 121.3810012  44.1054997  22.5839988
 120.2350012  44.6464997  21.7559988 120.5484247  44.0846565  22.3425747
 126.3730012  41.5824997  29.1869988 125.6970012  41.7134997  29.8509988
 125.8880012  41.4274997  28.3769988 126.2147145  41.5794905  29.1684517
 119.1240012  45.1714997  19.9729988 118.5810012  44.7914997  19.2809988
 119.9570012  45.3654997  19.5439988 119.1624399  45.1458124  19.8204526
 129.6610012  57.2544997  35.4639988 129.8610012  57.6784997  34.6289988
 130.3160012  57.5974997  36.0709988 129.7770051  57.3589648  35.4317836
 117.2590012  49.7284997  35.0719988 117.9910012  49.9824997  35.6329988
 116.4790012  49.9324997  35.5869988 117.2538232  49.7909177  35.2185760
 123.2880012  45.1354997  27.8099988 123.8530012  44.5884997  27.2629988
 123.1410012  44.6134997  28.5979988 123.3452918  44.9902024  27.8418454
 118.2900012  41.2714997  24.2279988 117.9730012  40.3694997  24.1929988
 119.0720012  41.2734997  23.6749988 118.3522284  41.1481628  24.1484783
 121.9150012  43.5234997  30.2239988 121.0790012  43.9774997  30.3339988
 122.4390012  43.7994997  30.9759988 121.8714414  43.6229376  30.3407136
 122.4590012  49.7364997  21.9079988 121.7140012  49.2294997  21.5859988
 122.3250012  49.7854997  22.8549988 122.3388776  49.6736940  21.9918647
 129.6090012  48.8694997  30.6949988 130.2510012  49.3264997  30.1509988
 128.7790012  48.9824997  30.2319988 129.5845963  48.9472704  30.5580177
 126.3570012  42.5504997  20.1079988 125.4180012  42.6624997  19.9559988
 126.6540012  43.4074997  20.4139988 126.2687666  42.6816443  20.1285768
 123.9780012  49.9204997  33.1449988 123.6330012  49.5394997  33.9519988
 123.7780012  50.8544997  33.2169988 123.9038061  49.9945228  33.2650961
 127.0750012  44.4174997  21.7679988 127.9670012  44.2804997  22.0869988
 127.1320012  45.2084997  21.2319988 127.2046285  44.5056660  21.7391691
 117.5840012  49.0314997  27.6779988 118.3290012  49.0294997  27.0769988
 117.6620012  48.2084997  28.1599988 117.6965518  48.9199315  27.6608929
 124.5850012  51.1954997  20.9339988 124.2890012  52.0214997  21.3149988
 123.8820012  50.5754997  21.1299988 124.4494914  51.2248199  21.0126443
 114.5920012  47.4924997  32.9929988 114.8150012  47.0744997  33.8249988
 113.9900012  46.8794997  32.5699988 114.5411759  47.3524668  33.0497022
 121.6080012  47.0094997  35.2059988 121.3120012  46.8434997  34.3109988
 122.5400012  46.7894997  35.1949988 121.6934166  46.9570640  35.0820536
 126.2290012  52.3824997  33.0959988 125.3280012  52.5654997  32.8279988
 126.2630012  52.6414997  34.0169988 126.1103041  52.4425512  33.1838197
 131.9600012  44.6274997  21.4629988 131.4060012  44.2314997  20.7909988
 132.0600012  45.5374997  21.1849988 131.8977059  44.6963586  21.3334401
 131.9230012  50.4274997  34.2999988 131.0720012  50.6654997  33.9329988
 132.5140012  50.4104997  33.5469988 131.8862487  50.4578258  34.1478893
 130.2550012  53.4134997  21.9279988 129.8820012  52.5874997  22.2369988
 130.5330012  53.2304997  21.0309988 130.2415630  53.2757303  21.8489626
 127.4160012  48.2214997  28.9489988 126.4870012  47.9894997  28.9219988
 127.8670012  47.4444997  28.6189988 127.3499216  48.0847238  28.9006917
 119.9590012  52.5494997  25.0819988 120.4860012  53.3224997  24.8819988
 119.0790012  52.7744997  24.7809988 119.9121773  52.6858005  25.0139010
 115.7140012  47.4114997  19.6689988 116.3300012  48.0384997  20.0489988
 114.8520012  47.7274997  19.9409988 115.6817698  47.5399430  19.7577183
 121.3860012  50.2124997  24.6589988 121.1450012  51.1374997  24.6999988
 120.6450012  49.7534997  25.0549988 121.2528409  50.2771421  24.7181377
 121.9010012  54.3614997  30.9739988 122.2630012  55.2164997  30.7399988
 122.4320012  54.0694997  31.7139988 122.0224473  54.4391060  31.0420855
 120.0690012  55.2344997  24.2039988 119.1190012  55.3394997  24.2549988
 120.4210012  56.0544997  24.5489988 119.9864203  55.3598314  24.2576650
 125.4450012  50.4604997  30.6739988 125.0190012  50.2334997  31.5009988
 126.0250012  49.7224997  30.4919988 125.4651868  50.3295299  30.7625830
 127.6480012  51.3894997  19.7479988 128.0010012  51.0094997  20.5529988
 126.6990012  51.2964997  19.8349988 127.5680441  51.3249596  19.8698559
 128.1030012  55.0124997  33.1439988 127.5020012  54.4574997  32.6479988
 128.3850012  55.6794997  32.5179988 128.0588519  55.0266841  32.9914952
 132.1510012  55.8694997  19.9489988 132.8950012  56.4554997  19.8089988
 131.4570012  56.4374997  20.2829988 132.1590292  56.0265582  19.9749961
 116.2260012  42.2454997  32.5509988 115.3330012  42.5844997  32.4829988
 116.1270012  41.3904997  32.9689988 116.0904164  42.1762588  32.5982235
 128.5140012  50.0624997  21.9749988 128.2360012  49.3344997  22.5309988
 129.4410012  50.1814997  22.1799988 128.6013124  49.9788802  22.0788845
 115.8770012  54.0504997  30.9859988 116.0940012  53.1184997  30.9549988
 116.1230012  54.3244997  31.8689988 115.9399549  53.9600636  31.1011763
 121.7390012  52.5014997  18.1949988 121.9780012  51.7534997  17.6479988
 121.4700012  52.1134997  19.0279988 121.7353675  52.3466638  18.2326865
 120.6760012  52.0714997  20.6519988 120.8220012  51.5514997  21.4419988
 120.6730012  52.9784997  20.9579988 120.6955989  52.1228853  20.8016088
 117.1290012  49.3244997  21.1619988 116.4430012  49.6764997  21.7289988
 117.6510012  50.0874997  20.9149988 117.1056852  49.4758578  21.2062118
 124.9600012  41.9864997  31.4409988 125.6590012  42.0604997  32.0909988
 124.5790012  41.1224997  31.5949988 125.0041767  41.8797624  31.5508322
 125.7450012  41.6384997  22.5379988 125.9650012  42.1104997  21.7349988
 126.3030012  42.0334997  23.2079988 125.8504968  41.7564285  22.5187331
 123.4130012  53.7694997  21.4009988 122.5970012  54.2664997  21.4529988
 123.9430012  54.2444997  20.7609988 123.3729161  53.9017722  21.3215956
 122.9450012  43.3664997  23.3729988 123.7570012  43.8714997  23.4189988
 122.7000012  43.2214997  24.2869988 123.0230520  43.4160375  23.5028517
 123.4800012  44.3524997  32.5579988 123.5990012  44.9264997  33.3149988
 124.1360012  43.6644997  32.6719988 123.5849757  44.3381079  32.6770825
 123.8280012  40.4474997  24.3109988 123.4820012  41.0654997  24.9559988
 124.4870012  40.9484997  23.8299988 123.8697826  40.5995802  24.3340971
 120.7520012  54.8134997  21.3829988 120.9120012  55.6124997  20.8819988
 120.5540012  55.1194997  22.2679988 120.7471649  54.9644469  21.4339815
 119.4860012  41.5104997  20.9979988 119.4030012  42.3994997  21.3449988
 120.3760012  41.2454997  21.2299988 119.5949469  41.5961430  21.0767626
 129.6850012  42.2594997  33.3929988 128.7680012  42.5224997  33.3049988
 130.0200012  42.2564997  32.4959988 129.6049900  42.2950224  33.2597919
 128.2870012  46.0104997  27.4879988 127.4890012  45.5954997  27.1599988
 128.7320012  45.3194997  27.9789988 128.2379885  45.8603543  27.5094889
 117.7450012  51.9384997  20.0589988 118.3370012  52.6374997  20.3349988
 118.2040012  51.5054997  19.3389988 117.8881142  51.9757049  19.9994830
 116.0610012  44.6024997  19.1749988 116.0160012  45.5414997  19.3529988
 115.1730012  44.3664997  18.9049988 115.9348574  44.6991892  19.1628912
 129.3730012  55.2664997  29.1109988 129.2180012  55.9444997  28.4539988
 130.3060012  55.3384997  29.3139988 129.4778500  55.3690170  29.0485119
 116.8690012  39.3844997  27.8479988 116.6400012  39.4434997  26.9199988
 116.4260012  38.5924997  28.1539988 116.7778530  39.2855753  27.7624786
 115.7990012  53.3244997  24.0079988 114.9670012  53.7974997  24.0359988
 116.3450012  53.8344997  23.4099988 115.7589739  53.4581871  23.9309716
 115.0870012  55.9374997  35.3379988 115.6280012  55.7204997  36.0979988
 114.6060012  55.1314997  35.1489988 115.0959345  55.7989514  35.4163076
 119.6850012  54.8564997  36.9589988 120.4520012  54.3974997  37.2999988
 119.6630012  54.6304997  36.0289988 119.7871434  54.7630409  36.8800043
 123.7770012  54.3644997  18.3339988 123.1330012  53.7334997  18.6549988
 124.5390012  53.8334997  18.1019988 123.7918077  54.2062920  18.3466011
 126.2620012  53.2364997  35.6879988 125.9110012  52.3804997  35.9309988
 126.9880012  53.3794997  36.2949988 126.3120769  53.1385636  35.8033619
 128.3810012  54.1814997  18.5679988 128.6640012  53.3874997  19.0199988
 129.1210012  54.4144997  18.0069988 128.5197486  54.1042803  18.5540698
 114.9940012  49.7474997  36.2929988 115.1380012  48.8454997  36.0059988
 114.2220012  50.0334997  35.8049988 114.9093322  49.6628261  36.1877881
 119.3360012  50.0914997  18.4249988 119.4000012  49.2974997  18.9559988
 119.9890012  49.9724997  17.7349988 119.4330241  49.9667148  18.4044317
 121.6500012  49.7174997  35.7249988 121.3210012  49.9884997  34.8679988
 121.8020012  48.7764997  35.6379988 121.6254809  49.6273862  35.5958244
 124.6880012  51.1384997  18.1609988 124.4190012  51.3184997  19.0619988
 124.4820012  50.2124997  18.0299988 124.6233825  51.0380152  18.2665214
 127.3840012  49.6334997  33.1089988 128.1300012  50.2214997  32.9889988
 126.6270012  50.2154997  33.1719988 127.3837554  49.7927011  33.1010907
 115.8270012  46.9474997  35.7129988 116.2350012  46.0904997  35.5919988
 115.5670012  46.9624997  36.6339988 115.8477568  46.8320807  35.8209588
 120.4850012  48.0634997  20.7309988 120.0250012  47.5794997  21.4169988
 120.7400012  47.3954997  20.0949988 120.4564902  47.9068731  20.7389334
 119.7740012  45.9564997  33.0869988 119.1560012  46.6314997  33.3669988
 120.1180012  46.2774997  32.2539988 119.7359615  46.0922721  33.0126581
 121.5560012  46.3064997  18.9929988 121.3760012  46.1524997  18.0659988
 122.5060012  46.4144997  19.0379988 121.6597776  46.3000175  18.8721843
 124.7940012  48.4284997  36.3639988 125.7470012  48.5114997  36.3369988
 124.6330012  47.7164997  36.9839988 124.9026426  48.3436746  36.4440579
 130.9460012  48.6614997  18.4389988 130.6720012  48.2364997  17.6259988
 130.9850012  49.5924997  18.2219988 130.9137699  48.7292484  18.2983610
 120.1130012  43.3114997  34.1689988 120.2630012  42.5824997  33.5669988
 120.1160012  44.0884997  33.6099988 120.1339302  43.3167851  34.0110692
 120.5260012  41.6814997  31.6619988 121.0620012  42.1324997  31.0099988
 119.6740012  41.5734997  31.2389988 120.4842178  41.7286390  31.5155756
 122.1080012  47.1204997  31.9009988 122.8580012  46.9644997  31.3279988
 121.7690012  47.9724997  31.6259988 122.1648921  47.2142968  31.7853561
 126.5230012  44.9354997  36.9299988 126.7160012  44.0044997  36.8179988
 127.3810012  45.3604997  36.9199988 126.6653020  44.8656389  36.9133361
 127.8400012  47.7244997  35.0069988 127.5590012  48.4334997  34.4299988
 128.7830012  47.6514997  34.8559988 127.9289027  47.8117646  34.9075551
 118.5920012  44.5094997  36.0809988 117.8250012  43.9774997  35.8709988
 119.2710012  44.1994997  35.4809988 118.5787022  44.3947506  35.9711648
 121.3320012  39.1374997  32.0929988 121.2330012  40.0844997  31.9879988
 120.5890012  38.7654997  31.6179988 121.2180564  39.2165902  32.0144560
 122.5960012  43.4594997  35.6569988 122.3600012  43.2394997  36.5589988
 121.8120012  43.2524997  35.1469988 122.4578628  43.4014760  35.7113932
 125.3110012  42.5864997  34.7329988 124.3640012  42.6184997  34.8649988
 125.6240012  41.9614997  35.3859988 125.2235475  42.5063207  34.8394455
 126.9450012  41.2204997  36.7379988 126.8490012  40.2684997  36.7319988
 126.6240012  41.4894997  37.5979988 126.8884070  41.1264035  36.8535441
 116.7720012  42.4304997  35.7849988 116.9840012  41.7234997  35.1749988
 116.6610012  41.9924997  36.6289988 116.7859721  42.2747084  35.8156843
 121.5530012  38.4314997  34.7649988 122.2650012  37.7914997  34.7509988
 121.4520012  38.6984997  33.8509988 121.6367939  38.3799938  34.6395650
 121.9070012  40.1144997  36.8179988 121.7750012  39.6384997  35.9979988
 121.3080012  40.8584997  36.7629988 121.8079071  40.1499618  36.6982886
 121.4530012  56.9974997  19.9949988 122.3860012  57.1554997  20.1379988
 121.1890012  57.6724997  19.3699988 121.5449510  57.1103611  19.9300741
 115.0220012  51.6334997  19.4769988 115.9360012  51.7124997  19.7509988
 115.0290012  50.9464997  18.8109988 115.1481131  51.5513961  19.4244393
 113.6710012  57.0264997  24.5549988 113.0240012  56.5644997  24.0219988
 114.0250012  56.3544997  25.1369988 113.6303849  56.8724723  24.5607959
 114.5410012  55.1074997  26.3589988 114.2060012  54.2274997  26.5309988
 114.7630012  55.4524997  27.2239988 114.5251783  55.0337500  26.4994208
 132.0890012  55.9164997  29.3399988 132.0680012  56.1014997  30.2789988
 132.7800012  56.4854997  28.9989988 132.1794618  56.0186606  29.4223864
 131.6530012  55.4844997  32.2619988 131.1650012  54.7484997  31.8909988
 132.2020012  55.0904997  32.9399988 131.6604872  55.3306249  32.3029160
 130.1030012  51.2734997  36.8999988 129.2370012  51.1684997  37.2939988
 130.4800012  52.0324997  37.3459988 130.0353308  51.3616900  37.0142393
 131.4040012  49.5304997  22.4139988 132.2540012  49.9514997  22.5409988
 131.4100012  48.7904997  23.0209988 131.5211372  49.4880803  22.5134344
 131.7990012  47.5834997  24.2379988 131.0720012  47.1044997  24.6349988
 132.3800012  47.7894997  24.9699988 131.7779375  47.5457090  24.3914129
 131.5580012  50.3684997  29.1849988 132.3910012  49.9904997  28.9049988
 131.6700012  51.3114997  29.0659988 131.6872647  50.4442218  29.1305487
 130.0440012  53.2464997  31.4919988 129.3970012  53.5714997  32.1179988
 129.5270012  52.8064997  30.8179988 129.8854029  53.2315004  31.4865827
 132.0670012  47.4844997  20.6289988 131.5450012  47.8414997  19.9099988
 132.0340012  48.1594997  21.3069988 131.9911634  47.6245413  20.6223145
 130.4160012  44.7244997  19.1799988 130.5120012  45.3914997  18.4989988
 130.2760012  43.9084997  18.6979988 130.4102135  44.7054500  19.0218491
 129.5850012  46.1044997  24.8009988 129.4350012  45.1594997  24.7799988
 129.2320012  46.3854997  25.6439988 129.5166625  46.0130441  24.9122346
 114.6210012  48.1824997  28.8109988 114.8050012  48.1004997  27.8749988
 115.4700012  48.0584997  29.2349988 114.7610139  48.1545003  28.7401455
 130.4420012  48.0744997  34.4389988 131.0250012  47.3404997  34.6309988
 131.0060012  48.8464997  34.4859988 130.5979769  48.0784227  34.4716159
 131.9380012  45.9774997  35.1239988 131.0750012  45.5984997  34.9579988
 132.5430012  45.2384997  35.0499988 131.9015979  45.8258023  35.0912817
 129.6630012  42.1324997  18.2969988 130.2740012  41.7614997  18.9339988
 128.8270012  41.7114997  18.4929988 129.6335032  42.0247554  18.4107035
 129.2960012  43.6874997  23.2629988 129.5760012  42.7804997  23.3869988
 130.0550012  44.1214997  22.8739988 129.4369277  43.6220942  23.2273682
 129.9080012  44.2684997  28.6989988 130.8410012  44.4804997  28.6649988
 129.6730012  44.3704997  29.6209988 130.0038036  44.3112769  28.8189976
 129.9370012  45.0054997  31.4749988 129.0940012  45.2734997  31.8409988
 130.3790012  45.8274997  31.2639988 129.8814158  45.1533291  31.4965491
 114.2180012  43.4534997  34.9519988 115.1380012  43.3314997  35.1879988
 113.7690012  42.7034997  35.3409988 114.2831580  43.3353727  35.0369006
 132.2200012  38.9854997  36.8279988 132.5700012  38.3314997  36.2229988
 132.3670012  39.8224997  36.3889988 132.2878419  39.0091591  36.6857118
 129.9090012  40.9504997  23.3109988 130.0920012  40.5014997  24.1369988
 129.3100012  40.3654997  22.8479988 129.8530202  40.8099975  23.3613275
 115.4390012  41.7654997  27.8429988 115.8850012  40.9734997  28.1449988
 115.9060012  42.4814997  28.2739988 115.5630172  41.7540624  27.9424820
 113.7430012  44.7644997  28.9119988 114.2350012  44.5434997  28.1209988
 114.1060012  45.6054997  29.1929988 113.8593126  44.8478357  28.8417531
 131.7400012  41.0944997  35.1779988 130.8220012  41.3654997  35.1419988
 131.8630012  40.5594997  34.3929988 131.6311066  41.0592892  35.0670487
 131.7760012  41.0174997  19.8389988 132.1880012  40.2964997  19.3639988
 132.4580012  41.6874997  19.8979988 131.9245885  41.0092368  19.7818915
 114.0570012  41.0224997  22.9659988 113.1320012  41.2314997  22.8369988
 114.5110012  41.5064997  22.2769988 113.9917368  41.1165993  22.8551226
 128.8280012  56.0064997  24.9119988 129.4800012  55.6594997  24.3039988
 129.3380012  56.4954997  25.5579988 128.9862637  56.0250597  24.9160236
 114.0210012  39.7604997  31.3109988 113.3560012  39.5144997  31.9539988
 113.5780012  40.3824997  30.7329988 113.8700956  39.8108632  31.3209352
 116.2130012  52.9354997  35.4549988 115.3920012  53.1104997  34.9949988
 115.9600012  52.8624997  36.3759988 116.0666164  52.9495622  35.5164923
 119.1670012  53.9104997  31.7139988 118.7420012  54.7194997  31.4309988
 120.0710012  53.9954997  31.4119988 119.2310271  54.0328469  31.6343776
 123.4780012  55.3094997  34.6729988 123.6630012  54.9754997  35.5509988
 124.3240012  55.6184997  34.3509988 123.6177539  55.3056047  34.7495605
 125.8230012  56.5954997  33.9169988 126.5000012  55.9624997  33.6769988
 126.1450012  56.9964997  34.7239988 125.9591637  56.5631154  33.9932793
 130.7400012  39.1844997  32.9969988 129.9280012  39.5094997  32.6089988
 130.9730012  38.4244997  32.4639988 130.6603423  39.1262436  32.8718253
 116.5690012  57.1664997  31.7609988 115.8480012  57.6064997  31.3099988
 116.2030012  56.9154997  32.6099988 116.4209804  57.1927698  31.8139840
 119.0360012  56.7664997  30.7909988 118.1710012  56.8384997  31.1949988
 118.9810012  57.3134997  30.0069988 118.9102085  56.8502685  30.7403362
 123.7460012  56.6544997  29.9659988 123.2900012  57.1834997  29.3119988
 123.9090012  57.2574997  30.6919988 123.7055585  56.8084468  29.9745062
 126.0740012  55.5324997  30.9109988 125.1690012  55.6974997  30.6459988
 126.5030012  56.3854997  30.8459988 126.0080799  55.6704483  30.8659182
 128.6780012  57.1024997  31.2059988 128.4960012  58.0184997  30.9959988
 128.8550012  56.6924997  30.3599988 128.6770210  57.1724822  31.0627885
 115.9830012  55.7894997  28.6709988 115.9650012  55.3644997  29.5289988
 116.7880012  55.4714997  28.2629988 116.0893875  55.6883812  28.7331655
 118.1250012  54.4994997  27.3259988 117.9060012  53.5834997  27.4959988
 118.9490012  54.6394997  27.7919988 118.2064420  54.3930520  27.4122774
 120.6620012  54.9694997  28.1749988 120.8750012  54.0814997  27.8879988
 120.7260012  54.9354997  29.1289988 120.6998232  54.8433102  28.2647397
 124.1700012  40.6334997  27.3189988 123.4960012  40.0044997  27.5749988
 124.7340012  40.1494997  26.7159988 124.1539230  40.4818744  27.2725340
 129.3130012  38.7414997  27.4319988 129.9170012  39.2884997  26.9299988
 128.4430012  39.0604997  27.1919988 129.2781241  38.8595806  27.3307654
 131.0400012  39.8794997  25.7649988 131.6520012  39.3654997  25.2389988
 131.4220012  40.7574997  25.7889988 131.1754540  39.9277140  25.6961830
 116.4970012  39.2674997  25.1409988 115.7200012  39.0334997  24.6339988
 117.0270012  38.4704997  25.1499988 116.4622330  39.1276988  25.0727742
 115.3330012  39.0654997  20.9449988 115.7720012  39.6764997  20.3529988
 114.7000012  39.6034997  21.4189988 115.3074514  39.2219257  20.9280930
 121.0760012  39.1944997  24.9549988 121.9510012  39.5824997  24.9249988
 120.9400012  38.9794997  25.8769988 121.1773695  39.2185184  25.0756440
 126.6330012  39.2244997  26.6039988 126.7090012  39.3194997  25.6539988
 126.3580012  38.3164997  26.7329988 126.6062321  39.1147867  26.4915079
 127.9860012  39.2504997  22.2959988 127.2840012  39.8654997  22.0869988
 127.5420012  38.4124997  22.4269988 127.8296330  39.2215783  22.2850328
 115.2340012  55.0134997  21.8429988 114.5490012  54.9754997  21.1749988
 115.2380012  55.9264997  22.1309988 115.1408193  55.1317016  21.7905284
 117.1940012  40.9814997  19.3869988 117.6860012  40.3514997  18.8599988
 117.8180012  41.2774997  20.0509988 117.3455446  40.9353199  19.4045980
 122.2200012  41.2744997  21.8439988 122.3980012  40.6284997  22.5269988
 122.1670012  42.1084997  22.3119988 122.2371829  41.2987985  22.0005940
 124.0990012  56.2234997  20.2399988 124.9650012  56.5894997  20.0619988
 123.8520012  55.7834997  19.4259988 124.1842392  56.2141756  20.1056289
 130.8080012  55.7864997  22.9189988 130.6130012  55.0384997  22.3539988
 130.7690012  56.5444997  22.3359988 130.7760380  55.7866099  22.7628384
 116.4550012  39.7814997  34.6589988 116.0890012  39.0164997  35.1019988
 117.3680012  39.8104997  34.9459988 116.5282790  39.6807224  34.7584070
 118.4280012  39.1324997  36.1949988 119.3260012  38.8584997  36.0099988
 118.0410012  38.3894997  36.6589988 118.4986612  38.9945914  36.2323643
 117.0520012  55.9334997  18.8679988 116.7850012  56.2204997  19.7409988
 117.8240012  55.3874997  19.0199988 117.1197488  55.8990294  19.0081050
 126.8490012  38.4644997  36.3769988 126.9260012  38.0384997  37.2309988
 127.7430012  38.4784997  36.0339988 126.9803428  38.4080879  36.4475310
 130.0250012  54.5374997  35.0689988 129.2430012  54.3514997  34.5499988
 129.9530012  55.4664997  35.2869988 129.9081777  54.6376492  35.0274048
 144.4310012  48.4234997  25.0999988 144.5200012  49.3674997  24.9679988
 143.7930012  48.1484997  24.4419988 144.3569081  48.5154830  24.9929614
 143.3640012  47.6784997  28.5189988 143.3260012  47.0324997  29.2239988
 143.0420012  47.2124997  27.7479988 143.3152333  47.5269408  28.5112978
 135.7330012  47.2934997  30.1119988 135.7740012  46.6674997  30.8349988
 136.4360012  47.9174997  30.2939988 135.8336363  47.2921196  30.2356044
 136.6560012  51.7434997  28.6469988 136.2870012  50.9414997  28.2769988
 137.5970012  51.5744997  28.6929988 136.7327289  51.6110153  28.6026316
 133.2660012  45.4034997  24.0399988 132.8190012  46.2494997  24.0209988
 132.7050012  44.8234997  23.5239988 133.1289900  45.4409916  23.9676801
 133.9770012  47.5654997  26.1659988 134.1900012  46.7954997  26.6929988
 134.7150012  47.6544997  25.5619988 134.1058496  47.4721394  26.1565300
 144.1820012  55.7224997  27.0329988 144.8020012  55.0454997  26.7589988
 143.9740012  55.5044997  27.9409988 144.2386904  55.6003870  27.1183365
 141.7540012  50.1114997  28.9249988 142.0580012  49.4254997  28.3299988
 142.4750012  50.2294997  29.5429988 141.8930671  50.0336305  28.9271816
 144.8950012  44.5054997  29.2529988 145.0370012  43.5594997  29.2729988
 144.7880012  44.7124997  28.3239988 144.8999863  44.4039534  29.1302339
 138.0490012  42.6064997  26.5249988 138.0930012  43.4664997  26.1069988
 137.5920012  42.0544997  25.8909988 137.9932185  42.6495799  26.3820299
 134.6700012  45.0034997  27.2869988 135.3230012  44.4534997  27.7189988
 134.6940012  44.7294997  26.3699988 134.7626683  44.8911466  27.2222123
 139.8260012  46.5534997  26.5019988 140.4420012  46.0274997  27.0119988
 139.2400012  45.9134997  26.0989988 139.8310810  46.3949208  26.5173173
 136.8600012  41.5244997  30.5989988 136.6410012  42.0544997  29.8329988
 136.1920012  41.7514997  31.2459988 136.7397600  41.6276906  30.5816379
 144.2290012  51.0244997  24.1429988 143.9330012  50.7024997  23.2919988
 143.9040012  51.9244997  24.1839988 144.1446371  51.1020215  24.0321801
 139.4290012  49.2004997  30.8859988 138.6890012  49.7984997  30.9899988
 140.1430012  49.7544997  30.5709988 139.4242237  49.3572831  30.8576465
 136.4530012  43.4164997  28.5509988 137.0670012  44.0494997  28.9249988
 136.9650012  42.9444997  27.8949988 136.6062296  43.4392370  28.5134252
 137.8360012  51.1644997  31.6739988 137.8310012  52.0444997  31.2959988
 136.9830012  51.0814997  32.0989988 137.7199464  51.2736117  31.6797907
 133.9570012  50.8354997  22.4559988 133.6850012  51.0644997  21.5669988
 134.0030012  51.6734997  22.9159988 133.9260094  50.9801213  22.3965697
 140.8860012  38.8304997  28.0519988 140.7690012  37.8814997  27.9969988
 140.0310012  39.1624997  28.3249988 140.7543733  38.7455409  28.0813897
 143.1530012  47.6674997  22.5519988 142.4410012  48.2024997  22.1999988
 143.8440012  47.7234997  21.8919988 143.1490132  47.7482543  22.4146289
 143.2060012  46.1254997  19.5909988 143.9070012  46.1474997  20.2419988
 143.5090012  45.4974997  18.9349988 143.3427830  46.0436566  19.5913711
 138.2040012  48.5074997  25.3859988 137.8730012  48.1374997  24.5679988
 138.7920012  47.8374997  25.7329988 138.2381873  48.3661156  25.3208102
 139.5700012  51.9354997  28.0679988 139.4760012  51.3574997  27.3109988
 140.3000012  51.5644997  28.5639988 139.6557981  51.8062390  28.0314165
 138.5700012  47.2764997  29.0199988 139.1360012  47.3974997  28.2569988
 138.8890012  47.9134997  29.6589988 138.6905786  47.3791884  29.0020040
 144.8790012  52.7794997  29.7539988 144.6390012  53.4414997  30.4019988
 144.6810012  51.9454997  30.1789988 144.8193808  52.7573134  29.9001524
 139.4500012  51.6754997  33.7369988 139.1390012  52.4574997  34.1919988
 138.8000012  51.5224997  33.0509988 139.3195558  51.7619105  33.7065871
 136.3700012  47.8734997  32.9659988 136.4410012  48.5244997  33.6639988
 135.4800012  47.9764997  32.6309988 136.2593117  47.9765936  33.0162700
 143.1560012  53.7764997  24.6239988 143.6300012  54.0714997  25.4019988
 142.5930012  54.5144997  24.3909988 143.1447653  53.9166932  24.6990136
 137.6900012  53.7474997  34.4999988 137.6970012  53.6114997  33.5529988
 136.7740012  53.6294997  34.7519988 137.5671714  53.7129430  34.4044666
 137.1940012  47.5774997  22.9759988 136.9020012  48.3454997  22.4849988
 136.5200012  46.9174997  22.8129988 137.0629081  47.5934406  22.8867340
 133.2870012  49.9404997  31.7909988 132.7860012  49.9124997  30.9759988
 133.2920012  49.0344997  32.0999988 133.2191526  49.8142278  31.7212872
 133.0370012  52.7204997  28.6749988 133.9830012  52.5764997  28.6559988
 132.9250012  53.5044997  29.2119988 133.1512727  52.8068046  28.7450072
 142.2140012  52.9604997  33.2329988 142.3010012  53.7864997  33.7079988
 141.3500012  52.6304997  33.4819988 142.1091964  53.0289878  33.3316549
 142.6280012  56.7324997  23.0389988 142.5530012  56.6114997  22.0929988
 142.6610012  57.6824997  23.1579988 142.6221848  56.8442500  22.9254834
 136.2810012  55.5214997  24.8199988 136.4340012  55.1734997  25.6989988
 135.4310012  55.1654997  24.5649988 136.1868962  55.4256650  24.9058340
 135.5360012  51.2634997  32.8339988 135.7520012  50.9024997  33.6929988
 134.6810012  50.8894997  32.6239988 135.4499292  51.1634111  32.9233386
 138.1550012  39.7334997  28.8289988 137.2930012  39.6464997  28.4219988
 138.1320012  40.5894997  29.2569988 138.0340330  39.8372765  28.8311863
 142.8180012  39.4554997  32.2039988 143.2380012  39.0404997  32.9569988
 141.8850012  39.2774997  32.3209988 142.7493644  39.3745900  32.3229539
 142.4790012  41.9484997  19.4889988 142.2260012  41.9674997  20.4119988
 142.2230012  41.0764997  19.1879988 142.4097790  41.8332437  19.5746263
 138.2460012  44.6994997  29.9239988 137.6040012  44.6584997  30.6329988
 138.2830012  45.6254997  29.6869988 138.1631324  44.8191559  29.9889824
 138.2430012  44.9204997  24.8359988 137.3500012  44.5794997  24.7779988
 138.6930012  44.5434997  24.0809988 138.1817305  44.8228484  24.7259177
 143.7780012  45.3364997  23.6529988 143.3690012  46.1514997  23.3619988
 144.4990012  45.1964997  23.0389988 143.8194537  45.4292018  23.5301342
 142.8800012  45.5114997  35.1409988 142.3180012  44.8074997  35.4619988
 143.7070012  45.3914997  35.6089988 142.9147095  45.3987883  35.2482330
 144.7830012  44.7824997  26.4669988 144.5880012  45.3874997  25.7519988
 144.9640012  43.9484997  26.0329988 144.7807614  44.7526300  26.3104405
 135.9960012  45.0194997  31.7909988 135.9580012  45.4194997  32.6599988
 135.5050012  44.2024997  31.8819988 135.9244684  44.9638069  31.9221059
 139.3620012  42.3934997  18.5899988 138.9310012  41.9484997  19.3199988
 138.6440012  42.7654997  18.0779988 139.2059438  42.3828940  18.6206799
 132.6040012  42.1354997  25.6419988 133.2350012  42.1064997  26.3609988
 133.0530012  41.7104997  24.9119988 132.7510774  42.0740492  25.6416553
 133.8780012  42.8814997  21.0659988 134.3520012  43.4724997  20.4809988
 133.1610012  43.4124997  21.4129988 133.8459341  43.0340867  21.0328836
 144.0470012  46.4204997  31.1389988 144.3700012  45.7894997  30.4959988
 143.6070012  45.8854997  31.7989988 144.0316895  46.2618441  31.1402850
 140.8240012  42.3474997  25.9229988 139.9130012  42.4044997  26.2109988
 141.3300012  42.2874997  26.7329988 140.7675413  42.3471985  26.0720622
 135.6530012  43.9764997  24.7489988 134.7630012  44.0764997  24.4089988
 135.9490012  43.1344997  24.4029988 135.5712823  43.8763545  24.6557213
 139.3060012  43.9764997  22.4059988 140.2370012  44.1054997  22.5839988
 139.0910012  44.6464997  21.7559988 139.4044247  44.0846565  22.3425747
 137.9800012  45.1714997  19.9729988 137.4370012  44.7914997  19.2809988
 138.8130012  45.3654997  19.5439988 138.0184399  45.1458124  19.8204526
 136.1150012  49.7284997  35.0719988 136.8470012  49.9824997  35.6329988
 135.3350012  49.9324997  35.5869988 136.1098232  49.7909177  35.2185760
 142.1440012  45.1354997  27.8099988 142.7090012  44.5884997  27.2629988
 141.9970012  44.6134997  28.5979988 142.2012918  44.9902024  27.8418454
 137.1460012  41.2714997  24.2279988 136.8290012  40.3694997  24.1929988
 137.9280012  41.2734997  23.6749988 137.2082284  41.1481628  24.1484783
 140.7710012  43.5234997  30.2239988 139.9350012  43.9774997  30.3339988
 141.2950012  43.7994997  30.9759988 140.7274414  43.6229376  30.3407136
 141.3150012  49.7364997  21.9079988 140.5700012  49.2294997  21.5859988
 141.1810012  49.7854997  22.8549988 141.1948776  49.6736940  21.9918647
 142.8340012  49.9204997  33.1449988 142.4890012  49.5394997  33.9519988
 142.6340012  50.8544997  33.2169988 142.7598061  49.9945228  33.2650961
 136.4400012  49.0314997  27.6779988 137.1850012  49.0294997  27.0769988
 136.5180012  48.2084997  28.1599988 136.5525518  48.9199315  27.6608929
 143.4410012  51.1954997  20.9339988 143.1450012  52.0214997  21.3149988
 142.7380012  50.5754997  21.1299988 143.3054914  51.2248199  21.0126443
 133.4480012  47.4924997  32.9929988 133.6710012  47.0744997  33.8249988
 132.8460012  46.8794997  32.5699988 133.3971759  47.3524668  33.0497022
 140.4640012  47.0094997  35.2059988 140.1680012  46.8434997  34.3109988
 141.3960012  46.7894997  35.1949988 140.5494166  46.9570640  35.0820536
 138.8150012  52.5494997  25.0819988 139.3420012  53.3224997  24.8819988
 137.9350012  52.7744997  24.7809988 138.7681773  52.6858005  25.0139010
 134.5700012  47.4114997  19.6689988 135.1860012  48.0384997  20.0489988
 133.7080012  47.7274997  19.9409988 134.5377698  47.5399430  19.7577183
 140.2420012  50.2124997  24.6589988 140.0010012  51.1374997  24.6999988
 139.5010012  49.7534997  25.0549988 140.1088409  50.2771421  24.7181377
 140.7570012  54.3614997  30.9739988 141.1190012  55.2164997  30.7399988
 141.2880012  54.0694997  31.7139988 140.8784473  54.4391060  31.0420855
 138.9250012  55.2344997  24.2039988 137.9750012  55.3394997  24.2549988
 139.2770012  56.0544997  24.5489988 138.8424203  55.3598314  24.2576650
 144.3010012  50.4604997  30.6739988 143.8750012  50.2334997  31.5009988
 144.8810012  49.7224997  30.4919988 144.3211868  50.3295299  30.7625830
 135.0820012  42.2454997  32.5509988 134.1890012  42.5844997  32.4829988
 134.9830012  41.3904997  32.9689988 134.9464164  42.1762588  32.5982235
 134.7330012  54.0504997  30.9859988 134.9500012  53.1184997  30.9549988
 134.9790012  54.3244997  31.8689988 134.7959549  53.9600636  31.1011763
 140.5950012  52.5014997  18.1949988 140.8340012  51.7534997  17.6479988
 140.3260012  52.1134997  19.0279988 140.5913675  52.3466638  18.2326865
 139.5320012  52.0714997  20.6519988 139.6780012  51.5514997  21.4419988
 139.5290012  52.9784997  20.9579988 139.5515989  52.1228853  20.8016088
 135.9850012  49.3244997  21.1619988 135.2990012  49.6764997  21.7289988
 136.5070012  50.0874997  20.9149988 135.9616852  49.4758578  21.2062118
 143.8160012  41.9864997  31.4409988 144.5150012  42.0604997  32.0909988
 143.4350012  41.1224997  31.5949988 143.8601767  41.8797624  31.5508322
 144.6010012  41.6384997  22.5379988 144.8210012  42.1104997  21.7349988
 145.1590012  42.0334997  23.2079988 144.7064968  41.7564285  22.5187331
 142.2690012  53.7694997  21.4009988 141.4530012  54.2664997  21.4529988
 142.7990012  54.2444997  20.7609988 142.2289161  53.9017722  21.3215956
 141.8010012  43.3664997  23.3729988 142.6130012  43.8714997  23.4189988
 141.5560012  43.2214997  24.2869988 141.8790520  43.4160375  23.5028517
 142.3360012  44.3524997  32.5579988 142.4550012  44.9264997  33.3149988
 142.9920012  43.6644997  32.6719988 142.4409757  44.3381079  32.6770825
 142.6840012  40.4474997  24.3109988 142.3380012  41.0654997  24.9559988
 143.3430012  40.9484997  23.8299988 142.7257826  40.5995802  24.3340971
 139.6080012  54.8134997  21.3829988 139.7680012  55.6124997  20.8819988
 139.4100012  55.1194997  22.2679988 139.6031649  54.9644469  21.4339815
 138.3420012  41.5104997  20.9979988 138.2590012  42.3994997  21.3449988
 139.2320012  41.2454997  21.2299988 138.4509469  41.5961430  21.0767626
 136.6010012  51.9384997  20.0589988 137.1930012  52.6374997  20.3349988
 137.0600012  51.5054997  19.3389988 136.7441142  51.9757049  19.9994830
 134.9170012  44.6024997  19.1749988 134.8720012  45.5414997  19.3529988
 134.0290012  44.3664997  18.9049988 134.7908574  44.6991892  19.1628912
 135.7250012  39.3844997  27.8479988 135.4960012  39.4434997  26.9199988
 135.2820012  38.5924997  28.1539988 135.6338530  39.2855753  27.7624786
 134.6550012  53.3244997  24.0079988 133.8230012  53.7974997  24.0359988
 135.2010012  53.8344997  23.4099988 134.6149739  53.4581871  23.9309716
 133.9430012  55.9374997  35.3379988 134.4840012  55.7204997  36.0979988
 133.4620012  55.1314997  35.1489988 133.9519345  55.7989514  35.4163076
 138.5410012  54.8564997  36.9589988 139.3080012  54.3974997  37.2999988
 138.5190012  54.6304997  36.0289988 138.6431434  54.7630409  36.8800043
 142.6330012  54.3644997  18.3339988 141.9890012  53.7334997  18.6549988
 143.3950012  53.8334997  18.1019988 142.6478077  54.2062920  18.3466011
 133.8500012  49.7474997  36.2929988 133.9940012  48.8454997  36.0059988
 133.0780012  50.0334997  35.8049988 133.7653322  49.6628261  36.1877881
 138.1920012  50.0914997  18.4249988 138.2560012  49.2974997  18.9559988
 138.8450012  49.9724997  17.7349988 138.2890241  49.9667148  18.4044317
 140.5060012  49.7174997  35.7249988 140.1770012  49.9884997  34.8679988
 140.6580012  48.7764997  35.6379988 140.4814809  49.6273862  35.5958244
 143.5440012  51.1384997  18.1609988 143.2750012  51.3184997  19.0619988
 143.3380012  50.2124997  18.0299988 143.4793825  51.0380152  18.2665214
 134.6830012  46.9474997  35.7129988 135.0910012  46.0904997  35.5919988
 134.4230012  46.9624997  36.6339988 134.7037568  46.8320807  35.8209588
 139.3410012  48.0634997  20.7309988 138.8810012  47.5794997  21.4169988
 139.5960012  47.3954997  20.0949988 139.3124902  47.9068731  20.7389334
 138.6300012  45.9564997  33.0869988 138.0120012  46.6314997  33.3669988
 138.9740012  46.2774997  32.2539988 138.5919615  46.0922721  33.0126581
 140.4120012  46.3064997  18.9929988 140.2320012  46.1524997  18.0659988
 141.3620012  46.4144997  19.0379988 140.5157776  46.3000175  18.8721843
 143.6500012  48.4284997  36.3639988 144.6030012  48.5114997  36.3369988
 143.4890012  47.7164997  36.9839988 143.7586426  48.3436746  36.4440579
 138.9690012  43.3114997  34.1689988 139.1190012  42.5824997  33.5669988
 138.9720012  44.0884997  33.6099988 138.9899302  43.3167851  34.0110692
 139.3820012  41.6814997  31.6619988 139.9180012  42.1324997  31.0099988
 138.5300012  41.5734997  31.2389988 139.3402178  41.7286390  31.5155756
 140.9640012  47.1204997  31.9009988 141.7140012  46.9644997  31.3279988
 140.6250012  47.9724997  31.6259988 141.0208921  47.2142968  31.7853561
 137.4480012  44.5094997  36.0809988 136.6810012  43.9774997  35.8709988
 138.1270012  44.1994997  35.4809988 137.4347022  44.3947506  35.9711648
 140.1880012  39.1374997  32.0929988 140.0890012  40.0844997  31.9879988
 139.4450012  38.7654997  31.6179988 140.0740564  39.2165902  32.0144560
 141.4520012  43.4594997  35.6569988 141.2160012  43.2394997  36.5589988
 140.6680012  43.2524997  35.1469988 141.3138628  43.4014760  35.7113932
 144.1670012  42.5864997  34.7329988 143.2200012  42.6184997  34.8649988
 144.4800012  41.9614997  35.3859988 144.0795475  42.5063207  34.8394455
 135.6280012  42.4304997  35.7849988 135.8400012  41.7234997  35.1749988
 135.5170012  41.9924997  36.6289988 135.6419721  42.2747084  35.8156843
 140.4090012  38.4314997  34.7649988 141.1210012  37.7914997  34.7509988
 140.3080012  38.6984997  33.8509988 140.4927939  38.3799938  34.6395650
 140.7630012  40.1144997  36.8179988 140.6310012  39.6384997  35.9979988
 140.1640012  40.8584997  36.7629988 140.6639071  40.1499618  36.6982886
 140.3090012  56.9974997  19.9949988 141.2420012  57.1554997  20.1379988
 140.0450012  57.6724997  19.3699988 140.4009510  57.1103611  19.9300741
 133.8780012  51.6334997  19.4769988 134.7920012  51.7124997  19.7509988
 133.8850012  50.9464997  18.8109988 134.0041131  51.5513961  19.4244393
 132.5270012  57.0264997  24.5549988 131.8800012  56.5644997  24.0219988
 132.8810012  56.3544997  25.1369988 132.4863849  56.8724723  24.5607959
 133.3970012  55.1074997  26.3589988 133.0620012  54.2274997  26.5309988
 133.6190012  55.4524997  27.2239988 133.3811783  55.0337500  26.4994208
 133.4770012  48.1824997  28.8109988 133.6610012  48.1004997  27.8749988
 134.3260012  48.0584997  29.2349988 133.6170139  48.1545003  28.7401455
 133.0740012  43.4534997  34.9519988 133.9940012  43.3314997  35.1879988
 132.6250012  42.7034997  35.3409988 133.1391580  43.3353727  35.0369006
 134.2950012  41.7654997  27.8429988 134.7410012  40.9734997  28.1449988
 134.7620012  42.4814997  28.2739988 134.4190172  41.7540624  27.9424820
 132.5990012  44.7644997  28.9119988 133.0910012  44.5434997  28.1209988
 132.9620012  45.6054997  29.1929988 132.7153126  44.8478357  28.8417531
 132.9130012  41.0224997  22.9659988 131.9880012  41.2314997  22.8369988
 133.3670012  41.5064997  22.2769988 132.8477368  41.1165993  22.8551226
 132.8770012  39.7604997  31.3109988 132.2120012  39.5144997  31.9539988
 132.4340012  40.3824997  30.7329988 132.7260956  39.8108632  31.3209352
 135.0690012  52.9354997  35.4549988 134.2480012  53.1104997  34.9949988
 134.8160012  52.8624997  36.3759988 134.9226164  52.9495622  35.5164923
 138.0230012  53.9104997  31.7139988 137.5980012  54.7194997  31.4309988
 138.9270012  53.9954997  31.4119988 138.0870271  54.0328469  31.6343776
 142.3340012  55.3094997  34.6729988 142.5190012  54.9754997  35.5509988
 143.1800012  55.6184997  34.3509988 142.4737539  55.3056047  34.7495605
 144.6790012  56.5954997  33.9169988 145.3560012  55.9624997  33.6769988
 145.0010012  56.9964997  34.7239988 144.8151637  56.5631154  33.9932793
 135.4250012  57.1664997  31.7609988 134.7040012  57.6064997  31.3099988
 135.0590012  56.9154997  32.6099988 135.2769804  57.1927698  31.8139840
 137.8920012  56.7664997  30.7909988 137.0270012  56.8384997  31.1949988
 137.8370012  57.3134997  30.0069988 137.7662085  56.8502685  30.7403362
 142.6020012  56.6544997  29.9659988 142.1460012  57.1834997  29.3119988
 142.7650012  57.2574997  30.6919988 142.5615585  56.8084468  29.9745062
 134.8390012  55.7894997  28.6709988 134.8210012  55.3644997  29.5289988
 135.6440012  55.4714997  28.2629988 134.9453875  55.6883812  28.7331655
 136.9810012  54.4994997  27.3259988 136.7620012  53.5834997  27.4959988
 137.8050012  54.6394997  27.7919988 137.0624420  54.3930520  27.4122774
 139.5180012  54.9694997  28.1749988 139.7310012  54.0814997  27.8879988
 139.5820012  54.9354997  29.1289988 139.5558231  54.8433102  28.2647397
 143.0260012  40.6334997  27.3189988 142.3520012  40.0044997  27.5749988
 143.5900012  40.1494997  26.7159988 143.0099230  40.4818744  27.2725340
 135.3530012  39.2674997  25.1409988 134.5760012  39.0334997  24.6339988
 135.8830012  38.4704997  25.1499988 135.3182330  39.1276988  25.0727742
 134.1890012  39.0654997  20.9449988 134.6280012  39.6764997  20.3529988
 133.5560012  39.6034997  21.4189988 134.1634514  39.2219257  20.9280930
 139.9320012  39.1944997  24.9549988 140.8070012  39.5824997  24.9249988
 139.7960012  38.9794997  25.8769988 140.0333695  39.2185184  25.0756440
 134.0900012  55.0134997  21.8429988 133.4050012  54.9754997  21.1749988
 134.0940012  55.9264997  22.1309988 133.9968193  55.1317016  21.7905284
 136.0500012  40.9814997  19.3869988 136.5420012  40.3514997  18.8599988
 136.6740012  41.2774997  20.0509988 136.2015446  40.9353199  19.4045980
 141.0760012  41.2744997  21.8439988 141.2540012  40.6284997  22.5269988
 141.0230012  42.1084997  22.3119988 141.0931829  41.2987985  22.0005940
 142.9550012  56.2234997  20.2399988 143.8210012  56.5894997  20.0619988
 142.7080012  55.7834997  19.4259988 143.0402392  56.2141756  20.1056289
 135.3110012  39.7814997  34.6589988 134.9450012  39.0164997  35.1019988
 136.2240012  39.8104997  34.9459988 135.3842790  39.6807224  34.7584070
 137.2840012  39.1324997  36.1949988 138.1820012  38.8584997  36.0099988
 136.8970012  38.3894997  36.6589988 137.3546612  38.9945914  36.2323643
 135.9080012  55.9334997  18.8679988 135.6410012  56.2204997  19.7409988
 136.6800012  55.3874997  19.0199988 135.9757488  55.8990294  19.0081050
  12.4390012  67.2794997  25.0999988  12.5280012  68.2234997  24.9679988
  11.8010012  67.0044997  24.4419988  12.3649081  67.3714830  24.9929614
  11.3720012  66.5344997  28.5189988  11.3340012  65.8884997  29.2239988
  11.0500012  66.0684997  27.7479988  11.3232333  66.3829408  28.5112978
   3.7410012  66.1494997  30.1119988   3.7820012  65.5234997  30.8349988
   4.4440012  66.7734997  30.2939988   3.8416363  66.1481196  30.2356044
  15.0780012  69.4734997  26.8199988  14.6380012  68.7534997  27.2709988
  15.0650012  70.1944997  27.4499988  15.0160226  69.4723731  26.9668494
   4.6640012  70.5994997  28.6469988   4.2950012  69.7974997  28.2769988
   5.6050012  70.4304997  28.6929988   4.7407289  70.4670153  28.6026316
   1.2740012  64.2594997  24.0399988   0.8270012  65.1054997  24.0209988
   0.7130012  63.6794997  23.5239988   1.1369900  64.2969916  23.9676801
   1.9850012  66.4214997  26.1659988   2.1980012  65.6514997  26.6929988
   2.7230012  66.5104997  25.5619988   2.1138496  66.3281394  26.1565300
  12.1900012  74.5784997  27.0329988  12.8100012  73.9014997  26.7589988
  11.9820012  74.3604997  27.9409988  12.2466904  74.4563870  27.1183365
   9.7620012  68.9674997  28.9249988  10.0660012  68.2814997  28.3299988
  10.4830012  69.0854997  29.5429988   9.9010671  68.8896305  28.9271816
  18.4250012  60.5684997  29.7859988  18.4740012  61.1784997  30.5219988
  18.8500012  61.0294997  29.0629988  18.4891824  60.7143741  29.7890205
  12.9030012  63.3614997  29.2529988  13.0450012  62.4154997  29.2729988
  12.7960012  63.5684997  28.3239988  12.9079864  63.2599534  29.1302339
   6.0570012  61.4624997  26.5249988   6.1010012  62.3224997  26.1069988
   5.6000012  60.9104997  25.8909988   6.0012185  61.5055799  26.3820299
  13.7800012  61.5934997  24.9259988  14.4260012  61.2644997  25.5509988
  14.2900012  62.1114997  24.3029988  13.9374264  61.6184611  24.9273862
   2.6780012  63.8594997  27.2869988   3.3310012  63.3094997  27.7189988
   2.7020012  63.5854997  26.3699988   2.7706683  63.7471466  27.2222123
   7.8340012  65.4094997  26.5019988   8.4500012  64.8834997  27.0119988
   7.2480012  64.7694997  26.0989988   7.8390810  65.2509208  26.5173173
  18.8160012  62.0464997  32.0219988  18.1280012  62.7044997  31.9259988
  18.8320012  61.8494997  32.9579988  18.7238525  62.1100462  32.1354808
   4.8680012  60.3804997  30.5989988   4.6490012  60.9104997  29.8329988
   4.2000012  60.6074997  31.2459988   4.7477600  60.4836906  30.5816379
  12.2370012  69.8804997  24.1429988  11.9410012  69.5584997  23.2919988
  11.9120012  70.7804997  24.1839988  12.1526371  69.9580215  24.0321801
   7.4370012  68.0564997  30.8859988   6.6970012  68.6544997  30.9899988
   8.1510012  68.6104997  30.5709988   7.4322237  68.2132831  30.8576465
  15.5440012  60.8844997  26.9059988  15.3280012  60.1184997  27.4389988
  16.1990012  61.3564997  27.4189988  15.6030632  60.8435889  27.0482861
   4.4610012  62.2724997  28.5509988   5.0750012  62.9054997  28.9249988
   4.9730012  61.8004997  27.8949988   4.6142296  62.2952370  28.5134252
   5.8440012  70.0204997  31.6739988   5.8390012  70.9004997  31.2959988
   4.9910012  69.9374997  32.0989988   5.7279464  70.1296117  31.6797907
   1.9650012  69.6914997  22.4559988   1.6930012  69.9204997  21.5669988
   2.0110012  70.5294997  22.9159988   1.9340094  69.8361213  22.3965697
  15.5900012  71.3134997  29.1679988  14.6490012  71.3714997  29.3299988
  15.8670012  72.2194997  29.0309988  15.4984679  71.4439443  29.1716815
  15.8910012  59.5994997  30.5859988  15.1550012  60.2104997  30.5479988
  16.5740012  60.0144997  30.0589988  15.8826541  59.7391374  30.5095832
   8.8940012  57.6864997  28.0519988   8.7770012  56.7374997  27.9969988
   8.0390012  58.0184997  28.3249988   8.7623733  57.6015409  28.0813897
  13.8420012  73.0944997  25.7939988  14.2680012  72.3874997  25.3089988
  14.1590012  73.8954997  25.3769988  13.9431019  73.1060994  25.6713130
  15.0020012  70.9954997  24.3019988  14.7440012  70.3054997  23.6909988
  15.0730012  70.5524997  25.1479988  14.9762856  70.8412124  24.3326885
  16.6880012  69.5614997  32.7799988  16.8280012  68.9704997  32.0399988
  16.8550012  70.4344997  32.4229988  16.7296778  69.5986426  32.6306965
  11.1610012  66.5234997  22.5519988  10.4490012  67.0584997  22.1999988
  11.8520012  66.5794997  21.8919988  11.1570132  66.6042543  22.4146289
  11.2140012  64.9814997  19.5909988  11.9150012  65.0034997  20.2419988
  11.5170012  64.3534997  18.9349988  11.3507830  64.8996566  19.5913711
  18.5300012  65.9014997  30.8459988  17.8770012  66.5964997  30.9349988
  18.9950012  66.1114997  30.0359988  18.5035390  66.0249425  30.7486883
  14.5660012  66.7334997  23.5039988  13.8340012  66.9614997  24.0769988
  15.0140012  66.0194997  23.9589988  14.5263095  66.6682571  23.6439119
  14.4640012  64.9074997  32.5709988  14.5440012  65.6704997  33.1429988
  13.8620012  65.1864997  31.8809988  14.3935756  65.0497134  32.5560589
   6.2120012  67.3634997  25.3859988   5.8810012  66.9934997  24.5679988
   6.8000012  66.6934997  25.7329988   6.2461873  67.2221156  25.3208102
   7.5780012  70.7914997  28.0679988   7.4840012  70.2134997  27.3109988
   8.3080012  70.4204997  28.5639988   7.6637981  70.6622390  28.0314165
   6.5780012  66.1324997  29.0199988   7.1440012  66.2534997  28.2569988
   6.8970012  66.7694997  29.6589988   6.6985786  66.2351884  29.0020040
  12.8870012  71.6354997  29.7539988  12.6470012  72.2974997  30.4019988
  12.6890012  70.8014997  30.1789988  12.8273808  71.6133134  29.9001524
   7.4580012  70.5314997  33.7369988   7.1470012  71.3134997  34.1919988
   6.8080012  70.3784997  33.0509988   7.3275558  70.6179105  33.7065871
  13.4370012  65.8954997  21.1889988  14.0170012  66.0454997  21.9359988
  13.8510012  66.3664997  20.4659988  13.5722831  65.9796841  21.1934134
   4.3780012  66.7294997  32.9659988   4.4490012  67.3804997  33.6639988
   3.4880012  66.8324997  32.6309988   4.2673117  66.8325936  33.0162700
  11.1640012  72.6324997  24.6239988  11.6380012  72.9274997  25.4019988
  10.6010012  73.3704997  24.3909988  11.1527653  72.7726932  24.6990136
   5.6980012  72.6034997  34.4999988   5.7050012  72.4674997  33.5529988
   4.7820012  72.4854997  34.7519988   5.5751714  72.5689430  34.4044666
  17.1360012  57.6454997  21.0019988  16.2360012  57.7844997  21.2969988
  17.3880012  58.4764997  20.5999988  17.0468702  57.7769074  20.9880205
   5.2020012  66.4334997  22.9759988   4.9100012  67.2014997  22.4849988
   4.5280012  65.7734997  22.8129988   5.0709081  66.4494406  22.8867340
  18.3250012  72.0114997  19.3779988  18.3990012  72.9504997  19.5489988
  19.2310012  71.7064997  19.3219988  18.4575100  72.0986722  19.3938119
   1.2950012  68.7964997  31.7909988   0.7940012  68.7684997  30.9759988
   1.3000012  67.8904997  32.0999988   1.2271526  68.6702278  31.7212872
   1.0450012  71.5764997  28.6749988   1.9910012  71.4324997  28.6559988
   0.9330012  72.3604997  29.2119988   1.1592727  71.6628046  28.7450072
  19.2430012  72.2424997  34.3569988  19.1940012  71.2874997  34.3199988
  18.4160012  72.5104997  34.7579988  19.1244940  72.1478998  34.4061375
  10.2220012  71.8164997  33.2329988  10.3090012  72.6424997  33.7079988
   9.3580012  71.4864997  33.4819988  10.1171964  71.8849878  33.3316549
  10.6360012  75.5884997  23.0389988  10.5610012  75.4674997  22.0929988
  10.6690012  76.5384997  23.1579988  10.6301848  75.7002500  22.9254834
   4.2890012  74.3774997  24.8199988   4.4420012  74.0294997  25.6989988
   3.4390012  74.0214997  24.5649988   4.1948962  74.2816650  24.9058340
  13.7380012  74.7424997  20.0409988  14.1130012  73.9984997  19.5709988
  13.7420012  74.4724997  20.9599988  13.7898915  74.6041486  20.1007824
  13.4070012  74.6684997  22.7909988  12.4710012  74.7684997  22.9689988
  13.6870012  73.9594997  23.3689988  13.3168255  74.5862711  22.8935391
  16.3950012  63.7354997  34.8369988  15.9880012  64.2164997  34.1159988
  16.4360012  62.8304997  34.5289988  16.3448437  63.6789374  34.6966683
   3.5440012  70.1194997  32.8339988   3.7600012  69.7584997  33.6929988
   2.6890012  69.7454997  32.6239988   3.4579292  70.0194111  32.9233386
   6.1630012  58.5894997  28.8289988   5.3010012  58.5024997  28.4219988
   6.1400012  59.4454997  29.2569988   6.0420330  58.6932765  28.8311863
  10.8260012  58.3114997  32.2039988  11.2460012  57.8964997  32.9569988
   9.8930012  58.1334997  32.3209988  10.7573644  58.2305900  32.3229539
  14.1520012  62.0674997  33.0569988  13.6380012  61.9414997  33.8549988
  13.9970012  62.9794997  32.8129988  14.0606852  62.1736132  33.1332158
  14.9150012  66.9284997  18.8189988  14.9570012  66.7054997  17.8889988
  15.7640012  67.3274997  19.0089988  15.0355396  66.9519155  18.7173627
  10.4870012  60.8044997  19.4889988  10.2340012  60.8234997  20.4119988
  10.2310012  59.9324997  19.1879988  10.4177790  60.6892437  19.5746263
   6.2540012  63.5554997  29.9239988   5.6120012  63.5144997  30.6329988
   6.2910012  64.4814997  29.6869988   6.1711324  63.6751559  29.9889824
   6.2510012  63.7764997  24.8359988   5.3580012  63.4354997  24.7779988
   6.7010012  63.3994997  24.0809988   6.1897305  63.6788484  24.7259177
  11.7860012  64.1924997  23.6529988  11.3770012  65.0074997  23.3619988
  12.5070012  64.0524997  23.0389988  11.8274537  64.2852018  23.5301342
  10.8880012  64.3674997  35.1409988  10.3260012  63.6634997  35.4619988
  11.7150012  64.2474997  35.6089988  10.9227095  64.2547883  35.2482330
  12.7910012  63.6384997  26.4669988  12.5960012  64.2434997  25.7519988
  12.9720012  62.8044997  26.0329988  12.7887614  63.6086300  26.3104405
   4.0040012  63.8754997  31.7909988   3.9660012  64.2754997  32.6599988
   3.5130012  63.0584997  31.8819988   3.9324684  63.8198069  31.9221059
   7.3700012  61.2494997  18.5899988   6.9390012  60.8044997  19.3199988
   6.6520012  61.6214997  18.0779988   7.2139438  61.2388940  18.6206799
   0.6120012  60.9914997  25.6419988   1.2430012  60.9624997  26.3609988
   1.0610012  60.5664997  24.9119988   0.7590774  60.9300492  25.6416553
   1.8860012  61.7374997  21.0659988   2.3600012  62.3284997  20.4809988
   1.1690012  62.2684997  21.4129988   1.8539341  61.8900867  21.0328836
  12.0550012  65.2764997  31.1389988  12.3780012  64.6454997  30.4959988
  11.6150012  64.7414997  31.7989988  12.0396895  65.1178441  31.1402850
   8.8320012  61.2034997  25.9229988   7.9210012  61.2604997  26.2109988
   9.3380012  61.1434997  26.7329988   8.7755413  61.2031985  26.0720622
   3.6610012  62.8324997  24.7489988   2.7710012  62.9324997  24.4089988
   3.9570012  61.9904997  24.4029988   3.5792823  62.7323545  24.6557213
   7.3140012  62.8324997  22.4059988   8.2450012  62.9614997  22.5839988
   7.0990012  63.5024997  21.7559988   7.4124247  62.9406565  22.3425747
  13.2370012  60.4384997  29.1869988  12.5610012  60.5694997  29.8509988
  12.7520012  60.2834997  28.3769988  13.0787145  60.4354905  29.1684517
   5.9880012  64.0274997  19.9729988   5.4450012  63.6474997  19.2809988
   6.8210012  64.2214997  19.5439988   6.0264399  64.0018124  19.8204526
  16.5250012  76.1104997  35.4639988  16.7250012  76.5344997  34.6289988
  17.1800012  76.4534997  36.0709988  16.6410051  76.2149648  35.4317836
   4.1230012  68.5844997  35.0719988   4.8550012  68.8384997  35.6329988
   3.3430012  68.7884997  35.5869988   4.1178232  68.6469177  35.2185760
  10.1520012  63.9914997  27.8099988  10.7170012  63.4444997  27.2629988
  10.0050012  63.4694997  28.5979988  10.2092918  63.8462024  27.8418454
   5.1540012  60.1274997  24.2279988   4.8370012  59.2254997  24.1929988
   5.9360012  60.1294997  23.6749988   5.2162284  60.0041628  24.1484783
   8.7790012  62.3794997  30.2239988   7.9430012  62.8334997  30.3339988
   9.3030012  62.6554997  30.9759988   8.7354414  62.4789376  30.3407136
   9.3230012  68.5924997  21.9079988   8.5780012  68.0854997  21.5859988
   9.1890012  68.6414997  22.8549988   9.2028776  68.5296940  21.9918647
  16.4730012  67.7254997  30.6949988  17.1150012  68.1824997  30.1509988
  15.6430012  67.8384997  30.2319988  16.4485963  67.8032704  30.5580177
  13.2210012  61.4064997  20.1079988  12.2820012  61.5184997  19.9559988
  13.5180012  62.2634997  20.4139988  13.1327666  61.5376443  20.1285768
  10.8420012  68.7764997  33.1449988  10.4970012  68.3954997  33.9519988
  10.6420012  69.7104997  33.2169988  10.7678061  68.8505228  33.2650961
  13.9390012  63.2734997  21.7679988  14.8310012  63.1364997  22.0869988
  13.9960012  64.0644997  21.2319988  14.0686285  63.3616660  21.7391691
   4.4480012  67.8874997  27.6779988   5.1930012  67.8854997  27.0769988
   4.5260012  67.0644997  28.1599988   4.5605518  67.7759315  27.6608929
  11.4490012  70.0514997  20.9339988  11.1530012  70.8774997  21.3149988
  10.7460012  69.4314997  21.1299988  11.3134914  70.0808199  21.0126443
   1.4560012  66.3484997  32.9929988   1.6790012  65.9304997  33.8249988
   0.8540012  65.7354997  32.5699988   1.4051759  66.2084668  33.0497022
   8.4720012  65.8654997  35.2059988   8.1760012  65.6994997  34.3109988
   9.4040012  65.6454997  35.1949988   8.5574166  65.8130640  35.0820536
  13.0930012  71.2384997  33.0959988  12.1920012  71.4214997  32.8279988
  13.1270012  71.4974997  34.0169988  12.9743041  71.2985512  33.1838197
  18.8240012  63.4834997  21.4629988  18.2700012  63.0874997  20.7909988
  18.9240012  64.3934997  21.1849988  18.7617059  63.5523586  21.3334401
  18.7870012  69.2834997  34.2999988  17.9360012  69.5214997  33.9329988
  19.3780012  69.2664997  33.5469988  18.7502487  69.3138258  34.1478893
  17.1190012  72.2694997  21.9279988  16.7460012  71.4434997  22.2369988
  17.3970012  72.0864997  21.0309988  17.1055630  72.1317303  21.8489626
  14.2800012  67.0774997  28.9489988  13.3510012  66.8454997  28.9219988
  14.7310012  66.3004997  28.6189988  14.2139216  66.9407238  28.9006917
   6.8230012  71.4054997  25.0819988   7.3500012  72.1784997  24.8819988
   5.9430012  71.6304997  24.7809988   6.7761773  71.5418005  25.0139010
   2.5780012  66.2674997  19.6689988   3.1940012  66.8944997  20.0489988
   1.7160012  66.5834997  19.9409988   2.5457698  66.3959430  19.7577183
   8.2500012  69.0684997  24.6589988   8.0090012  69.9934997  24.6999988
   7.5090012  68.6094997  25.0549988   8.1168409  69.1331421  24.7181377
   8.7650012  73.2174997  30.9739988   9.1270012  74.0724997  30.7399988
   9.2960012  72.9254997  31.7139988   8.8864473  73.2951060  31.0420855
   6.9330012  74.0904997  24.2039988   5.9830012  74.1954997  24.2549988
   7.2850012  74.9104997  24.5489988   6.8504203  74.2158314  24.2576650
  12.3090012  69.3164997  30.6739988  11.8830012  69.0894997  31.5009988
  12.8890012  68.5784997  30.4919988  12.3291868  69.1855299  30.7625830
  14.5120012  70.2454997  19.7479988  14.8650012  69.8654997  20.5529988
  13.5630012  70.1524997  19.8349988  14.4320441  70.1809596  19.8698559
  14.9670012  73.8684997  33.1439988  14.3660012  73.3134997  32.6479988
  15.2490012  74.5354997  32.5179988  14.9228519  73.8826841  32.9914952
  19.0150012  74.7254997  19.9489988  19.7590012  75.3114997  19.8089988
  18.3210012  75.2934997  20.2829988  19.0230292  74.8825582  19.9749961
   3.0900012  61.1014997  32.5509988   2.1970012  61.4404997  32.4829988
   2.9910012  60.2464997  32.9689988   2.9544164  61.0322588  32.5982235
  15.3780012  68.9184997  21.9749988  15.1000012  68.1904997  22.5309988
  16.3050012  69.0374997  22.1799988  15.4653124  68.8348802  22.0788845
   2.7410012  72.9064997  30.9859988   2.9580012  71.9744997  30.9549988
   2.9870012  73.1804997  31.8689988   2.8039549  72.8160636  31.1011763
   8.6030012  71.3574997  18.1949988   8.8420012  70.6094997  17.6479988
   8.3340012  70.9694997  19.0279988   8.5993675  71.2026638  18.2326865
   7.5400012  70.9274997  20.6519988   7.6860012  70.4074997  21.4419988
   7.5370012  71.8344997  20.9579988   7.5595989  70.9788853  20.8016088
   3.9930012  68.1804997  21.1619988   3.3070012  68.5324997  21.7289988
   4.5150012  68.9434997  20.9149988   3.9696852  68.3318578  21.2062118
  11.8240012  60.8424997  31.4409988  12.5230012  60.9164997  32.0909988
  11.4430012  59.9784997  31.5949988  11.8681767  60.7357624  31.5508322
  12.6090012  60.4944997  22.5379988  12.8290012  60.9664997  21.7349988
  13.1670012  60.8894997  23.2079988  12.7144968  60.6124285  22.5187331
  10.2770012  72.6254997  21.4009988   9.4610012  73.1224997  21.4529988
  10.8070012  73.1004997  20.7609988  10.2369161  72.7577722  21.3215956
   9.8090012  62.2224997  23.3729988  10.6210012  62.7274997  23.4189988
   9.5640012  62.0774997  24.2869988   9.8870520  62.2720375  23.5028517
  10.3440012  63.2084997  32.5579988  10.4630012  63.7824997  33.3149988
  11.0000012  62.5204997  32.6719988  10.4489757  63.1941079  32.6770825
  10.6920012  59.3034997  24.3109988  10.3460012  59.9214997  24.9559988
  11.3510012  59.8044997  23.8299988  10.7337826  59.4555802  24.3340971
   7.6160012  73.6694997  21.3829988   7.7760012  74.4684997  20.8819988
   7.4180012  73.9754997  22.2679988   7.6111649  73.8204469  21.4339815
   6.3500012  60.3664997  20.9979988   6.2670012  61.2554997  21.3449988
   7.2400012  60.1014997  21.2299988   6.4589469  60.4521430  21.0767626
  16.5490012  61.1154997  33.3929988  15.6320012  61.3784997  33.3049988
  16.8840012  61.1124997  32.4959988  16.4689900  61.1510224  33.2597919
  15.1510012  64.8664997  27.4879988  14.3530012  64.4514997  27.1599988
  15.5960012  64.1754997  27.9789988  15.1019885  64.7163543  27.5094889
   4.6090012  70.7944997  20.0589988   5.2010012  71.4934997  20.3349988
   5.0680012  70.3614997  19.3389988   4.7521142  70.8317049  19.9994830
   2.9250012  63.4584997  19.1749988   2.8800012  64.3974997  19.3529988
   2.0370012  63.2224997  18.9049988   2.7988574  63.5551892  19.1628912
  16.2370012  74.1224997  29.1109988  16.0820012  74.8004997  28.4539988
  17.1700012  74.1944997  29.3139988  16.3418500  74.2250170  29.0485119
   3.7330012  58.2404997  27.8479988   3.5040012  58.2994997  26.9199988
   3.2900012  57.4484997  28.1539988   3.6418530  58.1415753  27.7624786
   2.6630012  72.1804997  24.0079988   1.8310012  72.6534997  24.0359988
   3.2090012  72.6904997  23.4099988   2.6229739  72.3141871  23.9309716
   1.9510012  74.7934997  35.3379988   2.4920012  74.5764997  36.0979988
   1.4700012  73.9874997  35.1489988   1.9599345  74.6549514  35.4163076
   6.5490012  73.7124997  36.9589988   7.3160012  73.2534997  37.2999988
   6.5270012  73.4864997  36.0289988   6.6511434  73.6190409  36.8800043
  10.6410012  73.2204997  18.3339988   9.9970012  72.5894997  18.6549988
  11.4030012  72.6894997  18.1019988  10.6558077  73.0622920  18.3466011
  13.1260012  72.0924997  35.6879988  12.7750012  71.2364997  35.9309988
  13.8520012  72.2354997  36.2949988  13.1760769  71.9945636  35.8033619
  15.2450012  73.0374997  18.5679988  15.5280012  72.2434997  19.0199988
  15.9850012  73.2704997  18.0069988  15.3837486  72.9602803  18.5540698
   1.8580012  68.6034997  36.2929988   2.0020012  67.7014997  36.0059988
   1.0860012  68.8894997  35.8049988   1.7733322  68.5188261  36.1877881
   6.2000012  68.9474997  18.4249988   6.2640012  68.1534997  18.9559988
   6.8530012  68.8284997  17.7349988   6.2970241  68.8227148  18.4044317
   8.5140012  68.5734997  35.7249988   8.1850012  68.8444997  34.8679988
   8.6660012  67.6324997  35.6379988   8.4894809  68.4833862  35.5958244
  11.5520012  69.9944997  18.1609988  11.2830012  70.1744997  19.0619988
  11.3460012  69.0684997  18.0299988  11.4873825  69.8940152  18.2665214
  14.2480012  68.4894997  33.1089988  14.9940012  69.0774997  32.9889988
  13.4910012  69.0714997  33.1719988  14.2477554  68.6487011  33.1010907
   2.6910012  65.8034997  35.7129988   3.0990012  64.9464997  35.5919988
   2.4310012  65.8184997  36.6339988   2.7117568  65.6880807  35.8209588
   7.3490012  66.9194997  20.7309988   6.8890012  66.4354997  21.4169988
   7.6040012  66.2514997  20.0949988   7.3204902  66.7628731  20.7389334
   6.6380012  64.8124997  33.0869988   6.0200012  65.4874997  33.3669988
   6.9820012  65.1334997  32.2539988   6.5999615  64.9482721  33.0126581
   8.4200012  65.1624997  18.9929988   8.2400012  65.0084997  18.0659988
   9.3700012  65.2704997  19.0379988   8.5237776  65.1560175  18.8721843
  11.6580012  67.2844997  36.3639988  12.6110012  67.3674997  36.3369988
  11.4970012  66.5724997  36.9839988  11.7666426  67.1996746  36.4440579
  17.8100012  67.5174997  18.4389988  17.5360012  67.0924997  17.6259988
  17.8490012  68.4484997  18.2219988  17.7777699  67.5852484  18.2983610
   6.9770012  62.1674997  34.1689988   7.1270012  61.4384997  33.5669988
   6.9800012  62.9444997  33.6099988   6.9979302  62.1727851  34.0110692
   7.3900012  60.5374997  31.6619988   7.9260012  60.9884997  31.0099988
   6.5380012  60.4294997  31.2389988   7.3482178  60.5846390  31.5155756
   8.9720012  65.9764997  31.9009988   9.7220012  65.8204997  31.3279988
   8.6330012  66.8284997  31.6259988   9.0288921  66.0702968  31.7853561
  13.3870012  63.7914997  36.9299988  13.5800012  62.8604997  36.8179988
  14.2450012  64.2164997  36.9199988  13.5293020  63.7216389  36.9133361
  14.7040012  66.5804997  35.0069988  14.4230012  67.2894997  34.4299988
  15.6470012  66.5074997  34.8559988  14.7929027  66.6677646  34.9075551
   5.4560012  63.3654997  36.0809988   4.6890012  62.8334997  35.8709988
   6.1350012  63.0554997  35.4809988   5.4427022  63.2507506  35.9711648
   8.1960012  57.9934997  32.0929988   8.0970012  58.9404997  31.9879988
   7.4530012  57.6214997  31.6179988   8.0820564  58.0725902  32.0144560
   9.4600012  62.3154997  35.6569988   9.2240012  62.0954997  36.5589988
   8.6760012  62.1084997  35.1469988   9.3218628  62.2574760  35.7113932
  12.1750012  61.4424997  34.7329988  11.2280012  61.4744997  34.8649988
  12.4880012  60.8174997  35.3859988  12.0875475  61.3623207  34.8394455
  13.8090012  60.0764997  36.7379988  13.7130012  59.1244997  36.7319988
  13.4880012  60.3454997  37.5979988  13.7524070  59.9824035  36.8535441
   3.6360012  61.2864997  35.7849988   3.8480012  60.5794997  35.1749988
   3.5250012  60.8484997  36.6289988   3.6499721  61.1307084  35.8156843
   8.4170012  57.2874997  34.7649988   9.1290012  56.6474997  34.7509988
   8.3160012  57.5544997  33.8509988   8.5007939  57.2359938  34.6395650
   8.7710012  58.9704997  36.8179988   8.6390012  58.4944997  35.9979988
   8.1720012  59.7144997  36.7629988   8.6719071  59.0059618  36.6982886
   8.3170012  75.8534997  19.9949988   9.2500012  76.0114997  20.1379988
   8.0530012  76.5284997  19.3699988   8.4089510  75.9663611  19.9300741
   1.8860012  70.4894997  19.4769988   2.8000012  70.5684997  19.7509988
   1.8930012  69.8024997  18.8109988   2.0121131  70.4073961  19.4244393
   0.5350012  75.8824997  24.5549988  -0.1119988  75.4204997  24.0219988
   0.8890012  75.2104997  25.1369988   0.4943849  75.7284723  24.5607959
   1.4050012  73.9634997  26.3589988   1.0700012  73.0834997  26.5309988
   1.6270012  74.3084997  27.2239988   1.3891783  73.8897501  26.4994208
  18.9530012  74.7724997  29.3399988  18.9320012  74.9574997  30.2789988
  19.6440012  75.3414997  28.9989988  19.0434618  74.8746606  29.4223864
  18.5170012  74.3404997  32.2619988  18.0290012  73.6044997  31.8909988
  19.0660012  73.9464997  32.9399988  18.5244872  74.1866249  32.3029160
  16.9670012  70.1294997  36.8999988  16.1010012  70.0244997  37.2939988
  17.3440012  70.8884997  37.3459988  16.8993308  70.2176900  37.0142393
  18.2680012  68.3864997  22.4139988  19.1180012  68.8074997  22.5409988
  18.2740012  67.6464997  23.0209988  18.3851372  68.3440803  22.5134344
  18.6630012  66.4394997  24.2379988  17.9360012  65.9604997  24.6349988
  19.2440012  66.6454997  24.9699988  18.6419375  66.4017090  24.3914129
  18.4220012  69.2244997  29.1849988  19.2550012  68.8464997  28.9049988
  18.5340012  70.1674997  29.0659988  18.5512647  69.3002218  29.1305487
  16.9080012  72.1024997  31.4919988  16.2610012  72.4274997  32.1179988
  16.3910012  71.6624997  30.8179988  16.7494029  72.0875004  31.4865827
  18.9310012  66.3404997  20.6289988  18.4090012  66.6974997  19.9099988
  18.8980012  67.0154997  21.3069988  18.8551634  66.4805413  20.6223145
  17.2800012  63.5804997  19.1799988  17.3760012  64.2474997  18.4989988
  17.1400012  62.7644997  18.6979988  17.2742135  63.5614500  19.0218491
  16.4490012  64.9604997  24.8009988  16.2990012  64.0154997  24.7799988
  16.0960012  65.2414997  25.6439988  16.3806625  64.8690441  24.9122346
   1.4850012  67.0384997  28.8109988   1.6690012  66.9564997  27.8749988
   2.3340012  66.9144997  29.2349988   1.6250139  67.0105003  28.7401455
  17.3060012  66.9304997  34.4389988  17.8890012  66.1964997  34.6309988
  17.8700012  67.7024997  34.4859988  17.4619769  66.9344227  34.4716159
  18.8020012  64.8334997  35.1239988  17.9390012  64.4544997  34.9579988
  19.4070012  64.0944997  35.0499988  18.7655979  64.6818023  35.0912817
  16.5270012  60.9884997  18.2969988  17.1380012  60.6174997  18.9339988
  15.6910012  60.5674997  18.4929988  16.4975032  60.8807554  18.4107035
  16.1600012  62.5434997  23.2629988  16.4400012  61.6364997  23.3869988
  16.9190012  62.9774997  22.8739988  16.3009277  62.4780942  23.2273682
  16.7720012  63.1244997  28.6989988  17.7050012  63.3364997  28.6649988
  16.5370012  63.2264997  29.6209988  16.8678036  63.1672769  28.8189976
  16.8010012  63.8614997  31.4749988  15.9580012  64.1294997  31.8409988
  17.2430012  64.6834997  31.2639988  16.7454158  64.0093291  31.4965491
   1.0820012  62.3094997  34.9519988   2.0020012  62.1874997  35.1879988
   0.6330012  61.5594997  35.3409988   1.1471580  62.1913727  35.0369006
  19.0840012  57.8414997  36.8279988  19.4340012  57.1874997  36.2229988
  19.2310012  58.6784997  36.3889988  19.1518419  57.8651591  36.6857118
  16.7730012  59.8064997  23.3109988  16.9560012  59.3574997  24.1369988
  16.1740012  59.2214997  22.8479988  16.7170202  59.6659975  23.3613275
   2.3030012  60.6214997  27.8429988   2.7490012  59.8294997  28.1449988
   2.7700012  61.3374997  28.2739988   2.4270172  60.6100624  27.9424820
   0.6070012  63.6204997  28.9119988   1.0990012  63.3994997  28.1209988
   0.9700012  64.4614997  29.1929988   0.7233126  63.7038357  28.8417531
  18.6040012  59.9504997  35.1779988  17.6860012  60.2214997  35.1419988
  18.7270012  59.4154997  34.3929988  18.4951066  59.9152892  35.0670487
  18.6400012  59.8734997  19.8389988  19.0520012  59.1524997  19.3639988
  19.3220012  60.5434997  19.8979988  18.7885885  59.8652368  19.7818915
   0.9210012  59.8784997  22.9659988  -0.0039988  60.0874997  22.8369988
   1.3750012  60.3624997  22.2769988   0.8557368  59.9725993  22.8551226
  15.6920012  74.8624997  24.9119988  16.3440012  74.5154997  24.3039988
  16.2020012  75.3514997  25.5579988  15.8502637  74.8810597  24.9160236
   0.8850012  58.6164997  31.3109988   0.2200012  58.3704997  31.9539988
   0.4420012  59.2384997  30.7329988   0.7340956  58.6668632  31.3209352
   3.0770012  71.7914997  35.4549988   2.2560012  71.9664997  34.9949988
   2.8240012  71.7184997  36.3759988   2.9306164  71.8055622  35.5164923
   6.0310012  72.7664997  31.7139988   5.6060012  73.5754997  31.4309988
   6.9350012  72.8514997  31.4119988   6.0950271  72.8888469  31.6343776
  10.3420012  74.1654997  34.6729988  10.5270012  73.8314997  35.5509988
  11.1880012  74.4744997  34.3509988  10.4817539  74.1616047  34.7495605
  12.6870012  75.4514997  33.9169988  13.3640012  74.8184997  33.6769988
  13.0090012  75.8524997  34.7239988  12.8231637  75.4191154  33.9932793
  17.6040012  58.0404997  32.9969988  16.7920012  58.3654997  32.6089988
  17.8370012  57.2804997  32.4639988  17.5243423  57.9822436  32.8718253
   3.4330012  76.0224997  31.7609988   2.7120012  76.4624997  31.3099988
   3.0670012  75.7714997  32.6099988   3.2849804  76.0487698  31.8139840
   5.9000012  75.6224997  30.7909988   5.0350012  75.6944997  31.1949988
   5.8450012  76.1694997  30.0069988   5.7742085  75.7062685  30.7403362
  10.6100012  75.5104997  29.9659988  10.1540012  76.0394997  29.3119988
  10.7730012  76.1134997  30.6919988  10.5695585  75.6644468  29.9745062
  12.9380012  74.3884997  30.9109988  12.0330012  74.5534997  30.6459988
  13.3670012  75.2414997  30.8459988  12.8720799  74.5264483  30.8659182
  15.5420012  75.9584997  31.2059988  15.3600012  76.8744997  30.9959988
  15.7190012  75.5484997  30.3599988  15.5410210  76.0284822  31.0627885
   2.8470012  74.6454997  28.6709988   2.8290012  74.2204997  29.5289988
   3.6520012  74.3274997  28.2629988   2.9533875  74.5443812  28.7331655
   4.9890012  73.3554997  27.3259988   4.7700012  72.4394997  27.4959988
   5.8130012  73.4954997  27.7919988   5.0704420  73.2490520  27.4122774
   7.5260012  73.8254997  28.1749988   7.7390012  72.9374997  27.8879988
   7.5900012  73.7914997  29.1289988   7.5638232  73.6993102  28.2647397
  11.0340012  59.4894997  27.3189988  10.3600012  58.8604997  27.5749988
  11.5980012  59.0054997  26.7159988  11.0179230  59.3378744  27.2725340
  16.1770012  57.5974997  27.4319988  16.7810012  58.1444997  26.9299988
  15.3070012  57.9164997  27.1919988  16.1421241  57.7155806  27.3307654
  17.9040012  58.7354997  25.7649988  18.5160012  58.2214997  25.2389988
  18.2860012  59.6134997  25.7889988  18.0394540  58.7837140  25.6961830
   3.3610012  58.1234997  25.1409988   2.5840012  57.8894997  24.6339988
   3.8910012  57.3264997  25.1499988   3.3262330  57.9836988  25.0727742
   2.1970012  57.9214997  20.9449988   2.6360012  58.5324997  20.3529988
   1.5640012  58.4594997  21.4189988   2.1714514  58.0779257  20.9280930
   7.9400012  58.0504997  24.9549988   8.8150012  58.4384997  24.9249988
   7.8040012  57.8354997  25.8769988   8.0413695  58.0745184  25.0756440
  13.4970012  58.0804997  26.6039988  13.5730012  58.1754997  25.6539988
  13.2220012  57.1724997  26.7329988  13.4702321  57.9707867  26.4915079
  14.8500012  58.1064997  22.2959988  14.1480012  58.7214997  22.0869988
  14.4060012  57.2684997  22.4269988  14.6936330  58.0775783  22.2850328
   2.0980012  73.8694997  21.8429988   1.4130012  73.8314997  21.1749988
   2.1020012  74.7824997  22.1309988   2.0048193  73.9877016  21.7905284
   4.0580012  59.8374997  19.3869988   4.5500012  59.2074997  18.8599988
   4.6820012  60.1334997  20.0509988   4.2095446  59.7913199  19.4045980
   9.0840012  60.1304997  21.8439988   9.2620012  59.4844997  22.5269988
   9.0310012  60.9644997  22.3119988   9.1011829  60.1547985  22.0005940
  10.9630012  75.0794997  20.2399988  11.8290012  75.4454997  20.0619988
  10.7160012  74.6394997  19.4259988  11.0482392  75.0701756  20.1056289
  17.6720012  74.6424997  22.9189988  17.4770012  73.8944997  22.3539988
  17.6330012  75.4004997  22.3359988  17.6400380  74.6426099  22.7628384
   3.3190012  58.6374997  34.6589988   2.9530012  57.8724997  35.1019988
   4.2320012  58.6664997  34.9459988   3.3922790  58.5367224  34.7584070
   5.2920012  57.9884997  36.1949988   6.1900012  57.7144997  36.0099988
   4.9050012  57.2454997  36.6589988   5.3626612  57.8505914  36.2323643
   3.9160012  74.7894997  18.8679988   3.6490012  75.0764997  19.7409988
   4.6880012  74.2434997  19.0199988   3.9837488  74.7550294  19.0081050
  13.7130012  57.3204997  36.3769988  13.7900012  56.8944997  37.2309988
  14.6070012  57.3344997  36.0339988  13.8443428  57.2640879  36.4475310
  16.8890012  73.3934997  35.0689988  16.1070012  73.2074997  34.5499988
  16.8170012  74.3224997  35.2869988  16.7721777  73.4936492  35.0274048
  31.2950012  67.2794997  25.0999988  31.3840012  68.2234997  24.9679988
  30.6570012  67.0044997  24.4419988  31.2209081  67.3714830  24.9929614
  30.2280012  66.5344997  28.5189988  30.1900012  65.8884997  29.2239988
  29.9060012  66.0684997  27.7479988  30.1792333  66.3829408  28.5112978
  22.5970012  66.1494997  30.1119988  22.6380012  65.5234997  30.8349988
  23.3000012  66.7734997  30.2939988  22.6976363  66.1481196  30.2356044
  33.9340012  69.4734997  26.8199988  33.4940012  68.7534997  27.2709988
  33.9210012  70.1944997  27.4499988  33.8720226  69.4723731  26.9668494
  23.5200012  70.5994997  28.6469988  23.1510012  69.7974997  28.2769988
  24.4610012  70.4304997  28.6929988  23.5967289  70.4670153  28.6026316
  20.1300012  64.2594997  24.0399988  19.6830012  65.1054997  24.0209988
  19.5690012  63.6794997  23.5239988  19.9929900  64.2969916  23.9676801
  20.8410012  66.4214997  26.1659988  21.0540012  65.6514997  26.6929988
  21.5790012  66.5104997  25.5619988  20.9698496  66.3281394  26.1565300
  31.0460012  74.5784997  27.0329988  31.6660012  73.9014997  26.7589988
  30.8380012  74.3604997  27.9409988  31.1026904  74.4563870  27.1183365
  28.6180012  68.9674997  28.9249988  28.9220012  68.2814997  28.3299988
  29.3390012  69.0854997  29.5429988  28.7570671  68.8896304  28.9271816
  37.2810012  60.5684997  29.7859988  37.3300012  61.1784997  30.5219988
  37.7060012  61.0294997  29.0629988  37.3451824  60.7143741  29.7890205
  31.7590012  63.3614997  29.2529988  31.9010012  62.4154997  29.2729988
  31.6520012  63.5684997  28.3239988  31.7639864  63.2599534  29.1302339
  24.9130012  61.4624997  26.5249988  24.9570012  62.3224997  26.1069988
  24.4560012  60.9104997  25.8909988  24.8572185  61.5055799  26.3820299
  32.6360012  61.5934997  24.9259988  33.2820012  61.2644997  25.5509988
  33.1460012  62.1114997  24.3029988  32.7934264  61.6184611  24.9273862
  21.5340012  63.8594997  27.2869988  22.1870012  63.3094997  27.7189988
  21.5580012  63.5854997  26.3699988  21.6266683  63.7471466  27.2222123
  26.6900012  65.4094997  26.5019988  27.3060012  64.8834997  27.0119988
  26.1040012  64.7694997  26.0989988  26.6950810  65.2509208  26.5173173
  37.6720012  62.0464997  32.0219988  36.9840012  62.7044997  31.9259988
  37.6880012  61.8494997  32.9579988  37.5798525  62.1100462  32.1354808
  23.7240012  60.3804997  30.5989988  23.5050012  60.9104997  29.8329988
  23.0560012  60.6074997  31.2459988  23.6037600  60.4836906  30.5816379
  31.0930012  69.8804997  24.1429988  30.7970012  69.5584997  23.2919988
  30.7680012  70.7804997  24.1839988  31.0086371  69.9580215  24.0321801
  26.2930012  68.0564997  30.8859988  25.5530012  68.6544997  30.9899988
  27.0070012  68.6104997  30.5709988  26.2882237  68.2132831  30.8576465
  34.4000012  60.8844997  26.9059988  34.1840012  60.1184997  27.4389988
  35.0550012  61.3564997  27.4189988  34.4590632  60.8435889  27.0482861
  23.3170012  62.2724997  28.5509988  23.9310012  62.9054997  28.9249988
  23.8290012  61.8004997  27.8949988  23.4702296  62.2952370  28.5134252
  24.7000012  70.0204997  31.6739988  24.6950012  70.9004997  31.2959988
  23.8470012  69.9374997  32.0989988  24.5839464  70.1296117  31.6797907
  20.8210012  69.6914997  22.4559988  20.5490012  69.9204997  21.5669988
  20.8670012  70.5294997  22.9159988  20.7900094  69.8361213  22.3965697
  34.4460012  71.3134997  29.1679988  33.5050012  71.3714997  29.3299988
  34.7230012  72.2194997  29.0309988  34.3544679  71.4439443  29.1716815
  34.7470012  59.5994997  30.5859988  34.0110012  60.2104997  30.5479988
  35.4300012  60.0144997  30.0589988  34.7386541  59.7391374  30.5095832
  27.7500012  57.6864997  28.0519988  27.6330012  56.7374997  27.9969988
  26.8950012  58.0184997  28.3249988  27.6183733  57.6015409  28.0813897
  32.6980012  73.0944997  25.7939988  33.1240012  72.3874997  25.3089988
  33.0150012  73.8954997  25.3769988  32.7991019  73.1060994  25.6713130
  33.8580012  70.9954997  24.3019988  33.6000012  70.3054997  23.6909988
  33.9290012  70.5524997  25.1479988  33.8322856  70.8412124  24.3326885
  35.5440012  69.5614997  32.7799988  35.6840012  68.9704997  32.0399988
  35.7110012  70.4344997  32.4229988  35.5856778  69.5986426  32.6306965
  30.0170012  66.5234997  22.5519988  29.3050012  67.0584997  22.1999988
  30.7080012  66.5794997  21.8919988  30.0130132  66.6042543  22.4146289
  30.0700012  64.9814997  19.5909988  30.7710012  65.0034997  20.2419988
  30.3730012  64.3534997  18.9349988  30.2067830  64.8996566  19.5913711
  37.3860012  65.9014997  30.8459988  36.7330012  66.5964997  30.9349988
  37.8510012  66.1114997  30.0359988  37.3595390  66.0249425  30.7486883
  33.4220012  66.7334997  23.5039988  32.6900012  66.9614997  24.0769988
  33.8700012  66.0194997  23.9589988  33.3823095  66.6682571  23.6439119
  33.3200012  64.9074997  32.5709988  33.4000012  65.6704997  33.1429988
  32.7180012  65.1864997  31.8809988  33.2495756  65.0497134  32.5560589
  25.0680012  67.3634997  25.3859988  24.7370012  66.9934997  24.5679988
  25.6560012  66.6934997  25.7329988  25.1021873  67.2221156  25.3208102
  26.4340012  70.7914997  28.0679988  26.3400012  70.2134997  27.3109988
  27.1640012  70.4204997  28.5639988  26.5197981  70.6622390  28.0314165
  25.4340012  66.1324997  29.0199988  26.0000012  66.2534997  28.2569988
  25.7530012  66.7694997  29.6589988  25.5545786  66.2351884  29.0020040
  31.7430012  71.6354997  29.7539988  31.5030012  72.2974997  30.4019988
  31.5450012  70.8014997  30.1789988  31.6833808  71.6133134  29.9001524
  26.3140012  70.5314997  33.7369988  26.0030012  71.3134997  34.1919988
  25.6640012  70.3784997  33.0509988  26.1835558  70.6179105  33.7065871
  32.2930012  65.8954997  21.1889988  32.8730012  66.0454997  21.9359988
  32.7070012  66.3664997  20.4659988  32.4282830  65.9796841  21.1934134
  23.2340012  66.7294997  32.9659988  23.3050012  67.3804997  33.6639988
  22.3440012  66.8324997  32.6309988  23.1233117  66.8325936  33.0162700
  30.0200012  72.6324997  24.6239988  30.4940012  72.9274997  25.4019988
  29.4570012  73.3704997  24.3909988  30.0087653  72.7726932  24.6990136
  24.5540012  72.6034997  34.4999988  24.5610012  72.4674997  33.5529988
  23.6380012  72.4854997  34.7519988  24.4311714  72.5689430  34.4044666
  35.9920012  57.6454997  21.0019988  35.0920012  57.7844997  21.2969988
  36.2440012  58.4764997  20.5999988  35.9028702  57.7769074  20.9880205
  24.0580012  66.4334997  22.9759988  23.7660012  67.2014997  22.4849988
  23.3840012  65.7734997  22.8129988  23.9269081  66.4494406  22.8867340
  37.1810012  72.0114997  19.3779988  37.2550012  72.9504997  19.5489988
  38.0870012  71.7064997  19.3219988  37.3135100  72.0986722  19.3938119
  20.1510012  68.7964997  31.7909988  19.6500012  68.7684997  30.9759988
  20.1560012  67.8904997  32.0999988  20.0831526  68.6702278  31.7212872
  19.9010012  71.5764997  28.6749988  20.8470012  71.4324997  28.6559988
  19.7890012  72.3604997  29.2119988  20.0152727  71.6628046  28.7450072
  38.0990012  72.2424997  34.3569988  38.0500012  71.2874997  34.3199988
  37.2720012  72.5104997  34.7579988  37.9804940  72.1478998  34.4061375
  29.0780012  71.8164997  33.2329988  29.1650012  72.6424997  33.7079988
  28.2140012  71.4864997  33.4819988  28.9731964  71.8849878  33.3316549
  29.4920012  75.5884997  23.0389988  29.4170012  75.4674997  22.0929988
  29.5250012  76.5384997  23.1579988  29.4861848  75.7002500  22.9254834
  23.1450012  74.3774997  24.8199988  23.2980012  74.0294997  25.6989988
  22.2950012  74.0214997  24.5649988  23.0508962  74.2816650  24.9058340
  32.5940012  74.7424997  20.0409988  32.9690012  73.9984997  19.5709988
  32.5980012  74.4724997  20.9599988  32.6458915  74.6041486  20.1007824
  32.2630012  74.6684997  22.7909988  31.3270012  74.7684997  22.9689988
  32.5430012  73.9594997  23.3689988  32.1728255  74.5862711  22.8935391
  35.2510012  63.7354997  34.8369988  34.8440012  64.2164997  34.1159988
  35.2920012  62.8304997  34.5289988  35.2008437  63.6789374  34.6966683
  22.4000012  70.1194997  32.8339988  22.6160012  69.7584997  33.6929988
  21.5450012  69.7454997  32.6239988  22.3139292  70.0194111  32.9233386
  25.0190012  58.5894997  28.8289988  24.1570012  58.5024997  28.4219988
  24.9960012  59.4454997  29.2569988  24.8980330  58.6932765  28.8311863
  29.6820012  58.3114997  32.2039988  30.1020012  57.8964997  32.9569988
  28.7490012  58.1334997  32.3209988  29.6133644  58.2305900  32.3229539
  33.0080012  62.0674997  33.0569988  32.4940012  61.9414997  33.8549988
  32.8530012  62.9794997  32.8129988  32.9166852  62.1736132  33.1332158
  33.7710012  66.9284997  18.8189988  33.8130012  66.7054997  17.8889988
  34.6200012  67.3274997  19.0089988  33.8915396  66.9519155  18.7173627
  29.3430012  60.8044997  19.4889988  29.0900012  60.8234997  20.4119988
  29.0870012  59.9324997  19.1879988  29.2737790  60.6892437  19.5746263
  25.1100012  63.5554997  29.9239988  24.4680012  63.5144997  30.6329988
  25.1470012  64.4814997  29.6869988  25.0271324  63.6751559  29.9889824
  25.1070012  63.7764997  24.8359988  24.2140012  63.4354997  24.7779988
  25.5570012  63.3994997  24.0809988  25.0457305  63.6788484  24.7259177
  30.6420012  64.1924997  23.6529988  30.2330012  65.0074997  23.3619988
  31.3630012  64.0524997  23.0389988  30.6834537  64.2852018  23.5301342
  29.7440012  64.3674997  35.1409988  29.1820012  63.6634997  35.4619988
  30.5710012  64.2474997  35.6089988  29.7787095  64.2547883  35.2482330
  31.6470012  63.6384997  26.4669988  31.4520012  64.2434997  25.7519988
  31.8280012  62.8044997  26.0329988  31.6447614  63.6086300  26.3104405
  22.8600012  63.8754997  31.7909988  22.8220012  64.2754997  32.6599988
  22.3690012  63.0584997  31.8819988  22.7884684  63.8198069  31.9221059
  26.2260012  61.2494997  18.5899988  25.7950012  60.8044997  19.3199988
  25.5080012  61.6214997  18.0779988  26.0699438  61.2388940  18.6206799
  19.4680012  60.9914997  25.6419988  20.0990012  60.9624997  26.3609988
  19.9170012  60.5664997  24.9119988  19.6150774  60.9300492  25.6416553
  20.7420012  61.7374997  21.0659988  21.2160012  62.3284997  20.4809988
  20.0250012  62.2684997  21.4129988  20.7099341  61.8900867  21.0328836
  30.9110012  65.2764997  31.1389988  31.2340012  64.6454997  30.4959988
  30.4710012  64.7414997  31.7989988  30.8956895  65.1178441  31.1402850
  27.6880012  61.2034997  25.9229988  26.7770012  61.2604997  26.2109988
  28.1940012  61.1434997  26.7329988  27.6315413  61.2031985  26.0720622
  22.5170012  62.8324997  24.7489988  21.6270012  62.9324997  24.4089988
  22.8130012  61.9904997  24.4029988  22.4352823  62.7323545  24.6557213
  26.1700012  62.8324997  22.4059988  27.1010012  62.9614997  22.5839988
  25.9550012  63.5024997  21.7559988  26.2684247  62.9406565  22.3425747
  32.0930012  60.4384997  29.1869988  31.4170012  60.5694997  29.8509988
  31.6080012  60.2834997  28.3769988  31.9347145  60.4354905  29.1684517
  24.8440012  64.0274997  19.9729988  24.3010012  63.6474997  19.2809988
  25.6770012  64.2214997  19.5439988  24.8824399  64.0018124  19.8204526
  35.3810012  76.1104997  35.4639988  35.5810012  76.5344997  34.6289988
  36.0360012  76.4534997  36.0709988  35.4970051  76.2149648  35.4317836
  22.9790012  68.5844997  35.0719988  23.7110012  68.8384997  35.6329988
  22.1990012  68.7884997  35.5869988  22.9738232  68.6469177  35.2185760
  29.0080012  63.9914997  27.8099988  29.5730012  63.4444997  27.2629988
  28.8610012  63.4694997  28.5979988  29.0652918  63.8462024  27.8418454
  24.0100012  60.1274997  24.2279988  23.6930012  59.2254997  24.1929988
  24.7920012  60.1294997  23.6749988  24.0722284  60.0041628  24.1484783
  27.6350012  62.3794997  30.2239988  26.7990012  62.8334997  30.3339988
  28.1590012  62.6554997  30.9759988  27.5914414  62.4789376  30.3407136
  28.1790012  68.5924997  21.9079988  27.4340012  68.0854997  21.5859988
  28.0450012  68.6414997  22.8549988  28.0588776  68.5296940  21.9918647
  35.3290012  67.7254997  30.6949988  35.9710012  68.1824997  30.1509988
  34.4990012  67.8384997  30.2319988  35.3045963  67.8032704  30.5580177
  32.0770012  61.4064997  20.1079988  31.1380012  61.5184997  19.9559988
  32.3740012  62.2634997  20.4139988  31.9887666  61.5376443  20.1285768
  29.6980012  68.7764997  33.1449988  29.3530012  68.3954997  33.9519988
  29.4980012  69.7104997  33.2169988  29.6238061  68.8505228  33.2650961
  32.7950012  63.2734997  21.7679988  33.6870012  63.1364997  22.0869988
  32.8520012  64.0644997  21.2319988  32.9246285  63.3616660  21.7391691
  23.3040012  67.8874997  27.6779988  24.0490012  67.8854997  27.0769988
  23.3820012  67.0644997  28.1599988  23.4165518  67.7759315  27.6608929
  30.3050012  70.0514997  20.9339988  30.0090012  70.8774997  21.3149988
  29.6020012  69.4314997  21.1299988  30.1694914  70.0808199  21.0126443
  20.3120012  66.3484997  32.9929988  20.5350012  65.9304997  33.8249988
  19.7100012  65.7354997  32.5699988  20.2611759  66.2084668  33.0497022
  27.3280012  65.8654997  35.2059988  27.0320012  65.6994997  34.3109988
  28.2600012  65.6454997  35.1949988  27.4134166  65.8130640  35.0820536
  31.9490012  71.2384997  33.0959988  31.0480012  71.4214997  32.8279988
  31.9830012  71.4974997  34.0169988  31.8303041  71.2985512  33.1838197
  37.6800012  63.4834997  21.4629988  37.1260012  63.0874997  20.7909988
  37.7800012  64.3934997  21.1849988  37.6177059  63.5523586  21.3334401
  37.6430012  69.2834997  34.2999988  36.7920012  69.5214997  33.9329988
  38.2340012  69.2664997  33.5469988  37.6062487  69.3138258  34.1478893
  35.9750012  72.2694997  21.9279988  35.6020012  71.4434997  22.2369988
  36.2530012  72.0864997  21.0309988  35.9615630  72.1317303  21.8489626
  33.1360012  67.0774997  28.9489988  32.2070012  66.8454997  28.9219988
  33.5870012  66.3004997  28.6189988  33.0699216  66.9407238  28.9006917
  25.6790012  71.4054997  25.0819988  26.2060012  72.1784997  24.8819988
  24.7990012  71.6304997  24.7809988  25.6321773  71.5418005  25.0139010
  21.4340012  66.2674997  19.6689988  22.0500012  66.8944997  20.0489988
  20.5720012  66.5834997  19.9409988  21.4017698  66.3959430  19.7577183
  27.1060012  69.0684997  24.6589988  26.8650012  69.9934997  24.6999988
  26.3650012  68.6094997  25.0549988  26.9728409  69.1331421  24.7181377
  27.6210012  73.2174997  30.9739988  27.9830012  74.0724997  30.7399988
  28.1520012  72.9254997  31.7139988  27.7424473  73.2951060  31.0420855
  25.7890012  74.0904997  24.2039988  24.8390012  74.1954997  24.2549988
  26.1410012  74.9104997  24.5489988  25.7064203  74.2158314  24.2576650
  31.1650012  69.3164997  30.6739988  30.7390012  69.0894997  31.5009988
  31.7450012  68.5784997  30.4919988  31.1851868  69.1855299  30.7625830
  33.3680012  70.2454997  19.7479988  33.7210012  69.8654997  20.5529988
  32.4190012  70.1524997  19.8349988  33.2880441  70.1809596  19.8698559
  33.8230012  73.8684997  33.1439988  33.2220012  73.3134997  32.6479988
  34.1050012  74.5354997  32.5179988  33.7788519  73.8826841  32.9914952
  37.8710012  74.7254997  19.9489988  38.6150012  75.3114997  19.8089988
  37.1770012  75.2934997  20.2829988  37.8790292  74.8825582  19.9749961
  21.9460012  61.1014997  32.5509988  21.0530012  61.4404997  32.4829988
  21.8470012  60.2464997  32.9689988  21.8104164  61.0322588  32.5982235
  34.2340012  68.9184997  21.9749988  33.9560012  68.1904997  22.5309988
  35.1610012  69.0374997  22.1799988  34.3213124  68.8348802  22.0788845
  21.5970012  72.9064997  30.9859988  21.8140012  71.9744997  30.9549988
  21.8430012  73.1804997  31.8689988  21.6599549  72.8160636  31.1011763
  27.4590012  71.3574997  18.1949988  27.6980012  70.6094997  17.6479988
  27.1900012  70.9694997  19.0279988  27.4553675  71.2026638  18.2326865
  26.3960012  70.9274997  20.6519988  26.5420012  70.4074997  21.4419988
  26.3930012  71.8344997  20.9579988  26.4155989  70.9788853  20.8016088
  22.8490012  68.1804997  21.1619988  22.1630012  68.5324997  21.7289988
  23.3710012  68.9434997  20.9149988  22.8256852  68.3318578  21.2062118
  30.6800012  60.8424997  31.4409988  31.3790012  60.9164997  32.0909988
  30.2990012  59.9784997  31.5949988  30.7241767  60.7357624  31.5508322
  31.4650012  60.4944997  22.5379988  31.6850012  60.9664997  21.7349988
  32.0230012  60.8894997  23.2079988  31.5704968  60.6124285  22.5187331
  29.1330012  72.6254997  21.4009988  28.3170012  73.1224997  21.4529988
  29.6630012  73.1004997  20.7609988  29.0929161  72.7577722  21.3215956
  28.6650012  62.2224997  23.3729988  29.4770012  62.7274997  23.4189988
  28.4200012  62.0774997  24.2869988  28.7430520  62.2720375  23.5028517
  29.2000012  63.2084997  32.5579988  29.3190012  63.7824997  33.3149988
  29.8560012  62.5204997  32.6719988  29.3049757  63.1941079  32.6770825
  29.5480012  59.3034997  24.3109988  29.2020012  59.9214997  24.9559988
  30.2070012  59.8044997  23.8299988  29.5897826  59.4555802  24.3340971
  26.4720012  73.6694997  21.3829988  26.6320012  74.4684997  20.8819988
  26.2740012  73.9754997  22.2679988  26.4671649  73.8204469  21.4339815
  25.2060012  60.3664997  20.9979988  25.1230012  61.2554997  21.3449988
  26.0960012  60.1014997  21.2299988  25.3149469  60.4521430  21.0767626
  35.4050012  61.1154997  33.3929988  34.4880012  61.3784997  33.3049988
  35.7400012  61.1124997  32.4959988  35.3249900  61.1510224  33.2597919
  34.0070012  64.8664997  27.4879988  33.2090012  64.4514997  27.1599988
  34.4520012  64.1754997  27.9789988  33.9579885  64.7163543  27.5094889
  23.4650012  70.7944997  20.0589988  24.0570012  71.4934997  20.3349988
  23.9240012  70.3614997  19.3389988  23.6081142  70.8317049  19.9994830
  21.7810012  63.4584997  19.1749988  21.7360012  64.3974997  19.3529988
  20.8930012  63.2224997  18.9049988  21.6548574  63.5551892  19.1628912
  35.0930012  74.1224997  29.1109988  34.9380012  74.8004997  28.4539988
  36.0260012  74.1944997  29.3139988  35.1978500  74.2250170  29.0485119
  22.5890012  58.2404997  27.8479988  22.3600012  58.2994997  26.9199988
  22.1460012  57.4484997  28.1539988  22.4978530  58.1415753  27.7624786
  21.5190012  72.1804997  24.0079988  20.6870012  72.6534997  24.0359988
  22.0650012  72.6904997  23.4099988  21.4789739  72.3141871  23.9309716
  20.8070012  74.7934997  35.3379988  21.3480012  74.5764997  36.0979988
  20.3260012  73.9874997  35.1489988  20.8159345  74.6549514  35.4163076
  25.4050012  73.7124997  36.9589988  26.1720012  73.2534997  37.2999988
  25.3830012  73.4864997  36.0289988  25.5071434  73.6190409  36.8800043
  29.4970012  73.2204997  18.3339988  28.8530012  72.5894997  18.6549988
  30.2590012  72.6894997  18.1019988  29.5118077  73.0622920  18.3466011
  31.9820012  72.0924997  35.6879988  31.6310012  71.2364997  35.9309988
  32.7080012  72.2354997  36.2949988  32.0320769  71.9945636  35.8033619
  34.1010012  73.0374997  18.5679988  34.3840012  72.2434997  19.0199988
  34.8410012  73.2704997  18.0069988  34.2397486  72.9602803  18.5540698
  20.7140012  68.6034997  36.2929988  20.8580012  67.7014997  36.0059988
  19.9420012  68.8894997  35.8049988  20.6293322  68.5188261  36.1877881
  25.0560012  68.9474997  18.4249988  25.1200012  68.1534997  18.9559988
  25.7090012  68.8284997  17.7349988  25.1530241  68.8227148  18.4044317
  27.3700012  68.5734997  35.7249988  27.0410012  68.8444997  34.8679988
  27.5220012  67.6324997  35.6379988  27.3454809  68.4833862  35.5958244
  30.4080012  69.9944997  18.1609988  30.1390012  70.1744997  19.0619988
  30.2020012  69.0684997  18.0299988  30.3433825  69.8940152  18.2665214
  33.1040012  68.4894997  33.1089988  33.8500012  69.0774997  32.9889988
  32.3470012  69.0714997  33.1719988  33.1037554  68.6487011  33.1010907
  21.5470012  65.8034997  35.7129988  21.9550012  64.9464997  35.5919988
  21.2870012  65.8184997  36.6339988  21.5677568  65.6880807  35.8209588
  26.2050012  66.9194997  20.7309988  25.7450012  66.4354997  21.4169988
  26.4600012  66.2514997  20.0949988  26.1764902  66.7628731  20.7389334
  25.4940012  64.8124997  33.0869988  24.8760012  65.4874997  33.3669988
  25.8380012  65.1334997  32.2539988  25.4559615  64.9482721  33.0126581
  27.2760012  65.1624997  18.9929988  27.0960012  65.0084997  18.0659988
  28.2260012  65.2704997  19.0379988  27.3797776  65.1560175  18.8721843
  30.5140012  67.2844997  36.3639988  31.4670012  67.3674997  36.3369988
  30.3530012  66.5724997  36.9839988  30.6226426  67.1996746  36.4440579
  36.6660012  67.5174997  18.4389988  36.3920012  67.0924997  17.6259988
  36.7050012  68.4484997  18.2219988  36.6337699  67.5852484  18.2983610
  25.8330012  62.1674997  34.1689988  25.9830012  61.4384997  33.5669988
  25.8360012  62.9444997  33.6099988  25.8539302  62.1727851  34.0110692
  26.2460012  60.5374997  31.6619988  26.7820012  60.9884997  31.0099988
  25.3940012  60.4294997  31.2389988  26.2042178  60.5846390  31.5155756
  27.8280012  65.9764997  31.9009988  28.5780012  65.8204997  31.3279988
  27.4890012  66.8284997  31.6259988  27.8848921  66.0702968  31.7853561
  32.2430012  63.7914997  36.9299988  32.4360012  62.8604997  36.8179988
  33.1010012  64.2164997  36.9199988  32.3853020  63.7216389  36.9133361
  33.5600012  66.5804997  35.0069988  33.2790012  67.2894997  34.4299988
  34.5030012  66.5074997  34.8559988  33.6489027  66.6677646  34.9075551
  24.3120012  63.3654997  36.0809988  23.5450012  62.8334997  35.8709988
  24.9910012  63.0554997  35.4809988  24.2987022  63.2507506  35.9711648
  27.0520012  57.9934997  32.0929988  26.9530012  58.9404997  31.9879988
  26.3090012  57.6214997  31.6179988  26.9380564  58.0725902  32.0144560
  28.3160012  62.3154997  35.6569988  28.0800012  62.0954997  36.5589988
  27.5320012  62.1084997  35.1469988  28.1778628  62.2574760  35.7113932
  31.0310012  61.4424997  34.7329988  30.0840012  61.4744997  34.8649988
  31.3440012  60.8174997  35.3859988  30.9435475  61.3623207  34.8394455
  32.6650012  60.0764997  36.7379988  32.5690012  59.1244997  36.7319988
  32.3440012  60.3454997  37.5979988  32.6084070  59.9824035  36.8535441
  22.4920012  61.2864997  35.7849988  22.7040012  60.5794997  35.1749988
  22.3810012  60.8484997  36.6289988  22.5059721  61.1307084  35.8156843
  27.2730012  57.2874997  34.7649988  27.9850012  56.6474997  34.7509988
  27.1720012  57.5544997  33.8509988  27.3567939  57.2359938  34.6395650
  27.6270012  58.9704997  36.8179988  27.4950012  58.4944997  35.9979988
  27.0280012  59.7144997  36.7629988  27.5279071  59.0059618  36.6982886
  27.1730012  75.8534997  19.9949988  28.1060012  76.0114997  20.1379988
  26.9090012  76.5284997  19.3699988  27.2649510  75.9663611  19.9300741
  20.7420012  70.4894997  19.4769988  21.6560012  70.5684997  19.7509988
  20.7490012  69.8024997  18.8109988  20.8681131  70.4073961  19.4244393
  19.3910012  75.8824997  24.5549988  18.7440012  75.4204997  24.0219988
  19.7450012  75.2104997  25.1369988  19.3503849  75.7284723  24.5607959
  20.2610012  73.9634997  26.3589988  19.9260012  73.0834997  26.5309988
  20.4830012  74.3084997  27.2239988  20.2451783  73.8897500  26.4994208
  37.8090012  74.7724997  29.3399988  37.7880012  74.9574997  30.2789988
  38.5000012  75.3414997  28.9989988  37.8994618  74.8746606  29.4223864
  37.3730012  74.3404997  32.2619988  36.8850012  73.6044997  31.8909988
  37.9220012  73.9464997  32.9399988  37.3804872  74.1866249  32.3029160
  35.8230012  70.1294997  36.8999988  34.9570012  70.0244997  37.2939988
  36.2000012  70.8884997  37.3459988  35.7553308  70.2176900  37.0142393
  37.1240012  68.3864997  22.4139988  37.9740012  68.8074997  22.5409988
  37.1300012  67.6464997  23.0209988  37.2411372  68.3440803  22.5134344
  37.5190012  66.4394997  24.2379988  36.7920012  65.9604997  24.6349988
  38.1000012  66.6454997  24.9699988  37.4979375  66.4017090  24.3914129
  37.2780012  69.2244997  29.1849988  38.1110012  68.8464997  28.9049988
  37.3900012  70.1674997  29.0659988  37.4072647  69.3002218  29.1305487
  35.7640012  72.1024997  31.4919988  35.1170012  72.4274997  32.1179988
  35.2470012  71.6624997  30.8179988  35.6054029  72.0875004  31.4865827
  37.7870012  66.3404997  20.6289988  37.2650012  66.6974997  19.9099988
  37.7540012  67.0154997  21.3069988  37.7111634  66.4805413  20.6223145
  36.1360012  63.5804997  19.1799988  36.2320012  64.2474997  18.4989988
  35.9960012  62.7644997  18.6979988  36.1302135  63.5614500  19.0218491
  35.3050012  64.9604997  24.8009988  35.1550012  64.0154997  24.7799988
  34.9520012  65.2414997  25.6439988  35.2366625  64.8690441  24.9122346
  20.3410012  67.0384997  28.8109988  20.5250012  66.9564997  27.8749988
  21.1900012  66.9144997  29.2349988  20.4810139  67.0105003  28.7401455
  36.1620012  66.9304997  34.4389988  36.7450012  66.1964997  34.6309988
  36.7260012  67.7024997  34.4859988  36.3179769  66.9344227  34.4716159
  37.6580012  64.8334997  35.1239988  36.7950012  64.4544997  34.9579988
  38.2630012  64.0944997  35.0499988  37.6215979  64.6818023  35.0912817
  35.3830012  60.9884997  18.2969988  35.9940012  60.6174997  18.9339988
  34.5470012  60.5674997  18.4929988  35.3535032  60.8807554  18.4107035
  35.0160012  62.5434997  23.2629988  35.2960012  61.6364997  23.3869988
  35.7750012  62.9774997  22.8739988  35.1569277  62.4780942  23.2273682
  35.6280012  63.1244997  28.6989988  36.5610012  63.3364997  28.6649988
  35.3930012  63.2264997  29.6209988  35.7238036  63.1672769  28.8189976
  35.6570012  63.8614997  31.4749988  34.8140012  64.1294997  31.8409988
  36.0990012  64.6834997  31.2639988  35.6014158  64.0093291  31.4965491
  19.9380012  62.3094997  34.9519988  20.8580012  62.1874997  35.1879988
  19.4890012  61.5594997  35.3409988  20.0031580  62.1913727  35.0369006
  37.9400012  57.8414997  36.8279988  38.2900012  57.1874997  36.2229988
  38.0870012  58.6784997  36.3889988  38.0078419  57.8651591  36.6857118
  35.6290012  59.8064997  23.3109988  35.8120012  59.3574997  24.1369988
  35.0300012  59.2214997  22.8479988  35.5730202  59.6659975  23.3613275
  21.1590012  60.6214997  27.8429988  21.6050012  59.8294997  28.1449988
  21.6260012  61.3374997  28.2739988  21.2830172  60.6100624  27.9424820
  19.4630012  63.6204997  28.9119988  19.9550012  63.3994997  28.1209988
  19.8260012  64.4614997  29.1929988  19.5793126  63.7038357  28.8417531
  37.4600012  59.9504997  35.1779988  36.5420012  60.2214997  35.1419988
  37.5830012  59.4154997  34.3929988  37.3511066  59.9152892  35.0670487
  37.4960012  59.8734997  19.8389988  37.9080012  59.1524997  19.3639988
  38.1780012  60.5434997  19.8979988  37.6445885  59.8652368  19.7818915
  19.7770012  59.8784997  22.9659988  18.8520012  60.0874997  22.8369988
  20.2310012  60.3624997  22.2769988  19.7117368  59.9725993  22.8551226
  34.5480012  74.8624997  24.9119988  35.2000012  74.5154997  24.3039988
  35.0580012  75.3514997  25.5579988  34.7062637  74.8810597  24.9160236
  19.7410012  58.6164997  31.3109988  19.0760012  58.3704997  31.9539988
  19.2980012  59.2384997  30.7329988  19.5900956  58.6668632  31.3209352
  21.9330012  71.7914997  35.4549988  21.1120012  71.9664997  34.9949988
  21.6800012  71.7184997  36.3759988  21.7866164  71.8055622  35.5164923
  24.8870012  72.7664997  31.7139988  24.4620012  73.5754997  31.4309988
  25.7910012  72.8514997  31.4119988  24.9510271  72.8888469  31.6343776
  29.1980012  74.1654997  34.6729988  29.3830012  73.8314997  35.5509988
  30.0440012  74.4744997  34.3509988  29.3377539  74.1616047  34.7495605
  31.5430012  75.4514997  33.9169988  32.2200012  74.8184997  33.6769988
  31.8650012  75.8524997  34.7239988  31.6791637  75.4191154  33.9932793
  36.4600012  58.0404997  32.9969988  35.6480012  58.3654997  32.6089988
  36.6930012  57.2804997  32.4639988  36.3803423  57.9822436  32.8718253
  22.2890012  76.0224997  31.7609988  21.5680012  76.4624997  31.3099988
  21.9230012  75.7714997  32.6099988  22.1409804  76.0487698  31.8139840
  24.7560012  75.6224997  30.7909988  23.8910012  75.6944997  31.1949988
  24.7010012  76.1694997  30.0069988  24.6302085  75.7062685  30.7403362
  29.4660012  75.5104997  29.9659988  29.0100012  76.0394997  29.3119988
  29.6290012  76.1134997  30.6919988  29.4255585  75.6644468  29.9745062
  31.7940012  74.3884997  30.9109988  30.8890012  74.5534997  30.6459988
  32.2230012  75.2414997  30.8459988  31.7280799  74.5264483  30.8659182
  34.3980012  75.9584997  31.2059988  34.2160012  76.8744997  30.9959988
  34.5750012  75.5484997  30.3599988  34.3970210  76.0284822  31.0627885
  21.7030012  74.6454997  28.6709988  21.6850012  74.2204997  29.5289988
  22.5080012  74.3274997  28.2629988  21.8093875  74.5443812  28.7331655
  23.8450012  73.3554997  27.3259988  23.6260012  72.4394997  27.4959988
  24.6690012  73.4954997  27.7919988  23.9264420  73.2490520  27.4122774
  26.3820012  73.8254997  28.1749988  26.5950012  72.9374997  27.8879988
  26.4460012  73.7914997  29.1289988  26.4198231  73.6993102  28.2647397
  29.8900012  59.4894997  27.3189988  29.2160012  58.8604997  27.5749988
  30.4540012  59.0054997  26.7159988  29.8739230  59.3378744  27.2725340
  35.0330012  57.5974997  27.4319988  35.6370012  58.1444997  26.9299988
  34.1630012  57.9164997  27.1919988  34.9981241  57.7155806  27.3307654
  36.7600012  58.7354997  25.7649988  37.3720012  58.2214997  25.2389988
  37.1420012  59.6134997  25.7889988  36.8954540  58.7837140  25.6961830
  22.2170012  58.1234997  25.1409988  21.4400012  57.8894997  24.6339988
  22.7470012  57.3264997  25.1499988  22.1822330  57.9836988  25.0727742
  21.0530012  57.9214997  20.9449988  21.4920012  58.5324997  20.3529988
  20.4200012  58.4594997  21.4189988  21.0274514  58.0779257  20.9280930
  26.7960012  58.0504997  24.9549988  27.6710012  58.4384997  24.9249988
  26.6600012  57.8354997  25.8769988  26.8973695  58.0745184  25.0756440
  32.3530012  58.0804997  26.6039988  32.4290012  58.1754997  25.6539988
  32.0780012  57.1724997  26.7329988  32.3262321  57.9707867  26.4915079
  33.7060012  58.1064997  22.2959988  33.0040012  58.7214997  22.0869988
  33.2620012  57.2684997  22.4269988  33.5496330  58.0775783  22.2850328
  20.9540012  73.8694997  21.8429988  20.2690012  73.8314997  21.1749988
  20.9580012  74.7824997  22.1309988  20.8608193  73.9877016  21.7905284
  22.9140012  59.8374997  19.3869988  23.4060012  59.2074997  18.8599988
  23.5380012  60.1334997  20.0509988  23.0655446  59.7913199  19.4045980
  27.9400012  60.1304997  21.8439988  28.1180012  59.4844997  22.5269988
  27.8870012  60.9644997  22.3119988  27.9571829  60.1547985  22.0005940
  29.8190012  75.0794997  20.2399988  30.6850012  75.4454997  20.0619988
  29.5720012  74.6394997  19.4259988  29.9042392  75.0701756  20.1056289
  36.5280012  74.6424997  22.9189988  36.3330012  73.8944997  22.3539988
  36.4890012  75.4004997  22.3359988  36.4960380  74.6426099  22.7628384
  22.1750012  58.6374997  34.6589988  21.8090012  57.8724997  35.1019988
  23.0880012  58.6664997  34.9459988  22.2482790  58.5367224  34.7584070
  24.1480012  57.9884997  36.1949988  25.0460012  57.7144997  36.0099988
  23.7610012  57.2454997  36.6589988  24.2186612  57.8505914  36.2323643
  22.7720012  74.7894997  18.8679988  22.5050012  75.0764997  19.7409988
  23.5440012  74.2434997  19.0199988  22.8397488  74.7550294  19.0081050
  32.5690012  57.3204997  36.3769988  32.6460012  56.8944997  37.2309988
  33.4630012  57.3344997  36.0339988  32.7003428  57.2640879  36.4475310
  35.7450012  73.3934997  35.0689988  34.9630012  73.2074997  34.5499988
  35.6730012  74.3224997  35.2869988  35.6281777  73.4936492  35.0274048
  50.1510012  67.2794997  25.0999988  50.2400012  68.2234997  24.9679988
  49.5130012  67.0044997  24.4419988  50.0769081  67.3714830  24.9929614
  49.0840012  66.5344997  28.5189988  49.0460012  65.8884997  29.2239988
  48.7620012  66.0684997  27.7479988  49.0352333  66.3829408  28.5112978
  41.4530012  66.1494997  30.1119988  41.4940012  65.5234997  30.8349988
  42.1560012  66.7734997  30.2939988  41.5536363  66.1481196  30.2356044
  52.7900012  69.4734997  26.8199988  52.3500012  68.7534997  27.2709988
  52.7770012  70.1944997  27.4499988  52.7280226  69.4723731  26.9668494
  42.3760012  70.5994997  28.6469988  42.0070012  69.7974997  28.2769988
  43.3170012  70.4304997  28.6929988  42.4527289  70.4670153  28.6026316
  38.9860012  64.2594997  24.0399988  38.5390012  65.1054997  24.0209988
  38.4250012  63.6794997  23.5239988  38.8489900  64.2969916  23.9676801
  39.6970012  66.4214997  26.1659988  39.9100012  65.6514997  26.6929988
  40.4350012  66.5104997  25.5619988  39.8258496  66.3281394  26.1565300
  49.9020012  74.5784997  27.0329988  50.5220012  73.9014997  26.7589988
  49.6940012  74.3604997  27.9409988  49.9586904  74.4563870  27.1183365
  47.4740012  68.9674997  28.9249988  47.7780012  68.2814997  28.3299988
  48.1950012  69.0854997  29.5429988  47.6130671  68.8896305  28.9271816
  50.6150012  63.3614997  29.2529988  50.7570012  62.4154997  29.2729988
  50.5080012  63.5684997  28.3239988  50.6199863  63.2599534  29.1302339
  43.7690012  61.4624997  26.5249988  43.8130012  62.3224997  26.1069988
  43.3120012  60.9104997  25.8909988  43.7132185  61.5055799  26.3820299
  51.4920012  61.5934997  24.9259988  52.1380012  61.2644997  25.5509988
  52.0020012  62.1114997  24.3029988  51.6494264  61.6184611  24.9273862
  40.3900012  63.8594997  27.2869988  41.0430012  63.3094997  27.7189988
  40.4140012  63.5854997  26.3699988  40.4826683  63.7471466  27.2222123
  45.5460012  65.4094997  26.5019988  46.1620012  64.8834997  27.0119988
  44.9600012  64.7694997  26.0989988  45.5510810  65.2509208  26.5173173
  42.5800012  60.3804997  30.5989988  42.3610012  60.9104997  29.8329988
  41.9120012  60.6074997  31.2459988  42.4597600  60.4836906  30.5816379
  49.9490012  69.8804997  24.1429988  49.6530012  69.5584997  23.2919988
  49.6240012  70.7804997  24.1839988  49.8646371  69.9580215  24.0321801
  45.1490012  68.0564997  30.8859988  44.4090012  68.6544997  30.9899988
  45.8630012  68.6104997  30.5709988  45.1442237  68.2132831  30.8576465
  53.2560012  60.8844997  26.9059988  53.0400012  60.1184997  27.4389988
  53.9110012  61.3564997  27.4189988  53.3150632  60.8435889  27.0482861
  42.1730012  62.2724997  28.5509988  42.7870012  62.9054997  28.9249988
  42.6850012  61.8004997  27.8949988  42.3262296  62.2952370  28.5134252
  43.5560012  70.0204997  31.6739988  43.5510012  70.9004997  31.2959988
  42.7030012  69.9374997  32.0989988  43.4399464  70.1296117  31.6797907
  39.6770012  69.6914997  22.4559988  39.4050012  69.9204997  21.5669988
  39.7230012  70.5294997  22.9159988  39.6460094  69.8361213  22.3965697
  53.3020012  71.3134997  29.1679988  52.3610012  71.3714997  29.3299988
  53.5790012  72.2194997  29.0309988  53.2104679  71.4439443  29.1716815
  46.6060012  57.6864997  28.0519988  46.4890012  56.7374997  27.9969988
  45.7510012  58.0184997  28.3249988  46.4743733  57.6015409  28.0813897
  51.5540012  73.0944997  25.7939988  51.9800012  72.3874997  25.3089988
  51.8710012  73.8954997  25.3769988  51.6551019  73.1060994  25.6713130
  52.7140012  70.9954997  24.3019988  52.4560012  70.3054997  23.6909988
  52.7850012  70.5524997  25.1479988  52.6882856  70.8412124  24.3326885
  54.4000012  69.5614997  32.7799988  54.5400012  68.9704997  32.0399988
  54.5670012  70.4344997  32.4229988  54.4416778  69.5986426  32.6306965
  48.8730012  66.5234997  22.5519988  48.1610012  67.0584997  22.1999988
  49.5640012  66.5794997  21.8919988  48.8690132  66.6042543  22.4146289
  48.9260012  64.9814997  19.5909988  49.6270012  65.0034997  20.2419988
  49.2290012  64.3534997  18.9349988  49.0627830  64.8996566  19.5913711
  52.2780012  66.7334997  23.5039988  51.5460012  66.9614997  24.0769988
  52.7260012  66.0194997  23.9589988  52.2383095  66.6682571  23.6439119
  52.1760012  64.9074997  32.5709988  52.2560012  65.6704997  33.1429988
  51.5740012  65.1864997  31.8809988  52.1055756  65.0497134  32.5560589
  43.9240012  67.3634997  25.3859988  43.5930012  66.9934997  24.5679988
  44.5120012  66.6934997  25.7329988  43.9581873  67.2221156  25.3208102
  45.2900012  70.7914997  28.0679988  45.1960012  70.2134997  27.3109988
  46.0200012  70.4204997  28.5639988  45.3757981  70.6622390  28.0314165
  44.2900012  66.1324997  29.0199988  44.8560012  66.2534997  28.2569988
  44.6090012  66.7694997  29.6589988  44.4105786  66.2351884  29.0020040
  50.5990012  71.6354997  29.7539988  50.3590012  72.2974997  30.4019988
  50.4010012  70.8014997  30.1789988  50.5393808  71.6133134  29.9001524
  45.1700012  70.5314997  33.7369988  44.8590012  71.3134997  34.1919988
  44.5200012  70.3784997  33.0509988  45.0395558  70.6179105  33.7065871
  51.1490012  65.8954997  21.1889988  51.7290012  66.0454997  21.9359988
  51.5630012  66.3664997  20.4659988  51.2842830  65.9796841  21.1934134
  42.0900012  66.7294997  32.9659988  42.1610012  67.3804997  33.6639988
  41.2000012  66.8324997  32.6309988  41.9793117  66.8325936  33.0162700
  48.8760012  72.6324997  24.6239988  49.3500012  72.9274997  25.4019988
  48.3130012  73.3704997  24.3909988  48.8647653  72.7726932  24.6990136
  43.4100012  72.6034997  34.4999988  43.4170012  72.4674997  33.5529988
  42.4940012  72.4854997  34.7519988  43.2871714  72.5689430  34.4044666
  54.8480012  57.6454997  21.0019988  53.9480012  57.7844997  21.2969988
  55.1000012  58.4764997  20.5999988  54.7588702  57.7769074  20.9880205
  42.9140012  66.4334997  22.9759988  42.6220012  67.2014997  22.4849988
  42.2400012  65.7734997  22.8129988  42.7829081  66.4494406  22.8867340
  56.0370012  72.0114997  19.3779988  56.1110012  72.9504997  19.5489988
  56.9430012  71.7064997  19.3219988  56.1695100  72.0986722  19.3938119
  39.0070012  68.7964997  31.7909988  38.5060012  68.7684997  30.9759988
  39.0120012  67.8904997  32.0999988  38.9391526  68.6702278  31.7212872
  38.7570012  71.5764997  28.6749988  39.7030012  71.4324997  28.6559988
  38.6450012  72.3604997  29.2119988  38.8712727  71.6628046  28.7450072
  56.9550012  72.2424997  34.3569988  56.9060012  71.2874997  34.3199988
  56.1280012  72.5104997  34.7579988  56.8364940  72.1478998  34.4061375
  47.9340012  71.8164997  33.2329988  48.0210012  72.6424997  33.7079988
  47.0700012  71.4864997  33.4819988  47.8291964  71.8849878  33.3316549
  48.3480012  75.5884997  23.0389988  48.2730012  75.4674997  22.0929988
  48.3810012  76.5384997  23.1579988  48.3421848  75.7002500  22.9254834
  42.0010012  74.3774997  24.8199988  42.1540012  74.0294997  25.6989988
  41.1510012  74.0214997  24.5649988  41.9068962  74.2816650  24.9058340
  51.4500012  74.7424997  20.0409988  51.8250012  73.9984997  19.5709988
  51.4540012  74.4724997  20.9599988  51.5018915  74.6041486  20.1007824
  51.1190012  74.6684997  22.7909988  50.1830012  74.7684997  22.9689988
  51.3990012  73.9594997  23.3689988  51.0288255  74.5862711  22.8935391
  54.1070012  63.7354997  34.8369988  53.7000012  64.2164997  34.1159988
  54.1480012  62.8304997  34.5289988  54.0568437  63.6789374  34.6966683
  41.2560012  70.1194997  32.8339988  41.4720012  69.7584997  33.6929988
  40.4010012  69.7454997  32.6239988  41.1699292  70.0194111  32.9233386
  43.8750012  58.5894997  28.8289988  43.0130012  58.5024997  28.4219988
  43.8520012  59.4454997  29.2569988  43.7540330  58.6932765  28.8311863
  48.5380012  58.3114997  32.2039988  48.9580012  57.8964997  32.9569988
  47.6050012  58.1334997  32.3209988  48.4693644  58.2305900  32.3229539
  51.8640012  62.0674997  33.0569988  51.3500012  61.9414997  33.8549988
  51.7090012  62.9794997  32.8129988  51.7726852  62.1736132  33.1332158
  52.6270012  66.9284997  18.8189988  52.6690012  66.7054997  17.8889988
  53.4760012  67.3274997  19.0089988  52.7475396  66.9519155  18.7173627
  48.1990012  60.8044997  19.4889988  47.9460012  60.8234997  20.4119988
  47.9430012  59.9324997  19.1879988  48.1297790  60.6892437  19.5746263
  43.9660012  63.5554997  29.9239988  43.3240012  63.5144997  30.6329988
  44.0030012  64.4814997  29.6869988  43.8831324  63.6751559  29.9889824
  43.9630012  63.7764997  24.8359988  43.0700012  63.4354997  24.7779988
  44.4130012  63.3994997  24.0809988  43.9017305  63.6788484  24.7259177
  49.4980012  64.1924997  23.6529988  49.0890012  65.0074997  23.3619988
  50.2190012  64.0524997  23.0389988  49.5394537  64.2852018  23.5301342
  48.6000012  64.3674997  35.1409988  48.0380012  63.6634997  35.4619988
  49.4270012  64.2474997  35.6089988  48.6347095  64.2547883  35.2482330
  50.5030012  63.6384997  26.4669988  50.3080012  64.2434997  25.7519988
  50.6840012  62.8044997  26.0329988  50.5007614  63.6086300  26.3104405
  41.7160012  63.8754997  31.7909988  41.6780012  64.2754997  32.6599988
  41.2250012  63.0584997  31.8819988  41.6444684  63.8198069  31.9221059
  45.0820012  61.2494997  18.5899988  44.6510012  60.8044997  19.3199988
  44.3640012  61.6214997  18.0779988  44.9259438  61.2388940  18.6206799
  38.3240012  60.9914997  25.6419988  38.9550012  60.9624997  26.3609988
  38.7730012  60.5664997  24.9119988  38.4710774  60.9300492  25.6416553
  39.5980012  61.7374997  21.0659988  40.0720012  62.3284997  20.4809988
  38.8810012  62.2684997  21.4129988  39.5659341  61.8900867  21.0328836
  49.7670012  65.2764997  31.1389988  50.0900012  64.6454997  30.4959988
  49.3270012  64.7414997  31.7989988  49.7516895  65.1178441  31.1402850
  46.5440012  61.2034997  25.9229988  45.6330012  61.2604997  26.2109988
  47.0500012  61.1434997  26.7329988  46.4875413  61.2031985  26.0720622
  41.3730012  62.8324997  24.7489988  40.4830012  62.9324997  24.4089988
  41.6690012  61.9904997  24.4029988  41.2912823  62.7323545  24.6557213
  45.0260012  62.8324997  22.4059988  45.9570012  62.9614997  22.5839988
  44.8110012  63.5024997  21.7559988  45.1244247  62.9406565  22.3425747
  50.9490012  60.4384997  29.1869988  50.2730012  60.5694997  29.8509988
  50.4640012  60.2834997  28.3769988  50.7907145  60.4354905  29.1684517
  43.7000012  64.0274997  19.9729988  43.1570012  63.6474997  19.2809988
  44.5330012  64.2214997  19.5439988  43.7384399  64.0018124  19.8204526
  54.2370012  76.1104997  35.4639988  54.4370012  76.5344997  34.6289988
  54.8920012  76.4534997  36.0709988  54.3530051  76.2149648  35.4317836
  41.8350012  68.5844997  35.0719988  42.5670012  68.8384997  35.6329988
  41.0550012  68.7884997  35.5869988  41.8298232  68.6469177  35.2185760
  47.8640012  63.9914997  27.8099988  48.4290012  63.4444997  27.2629988
  47.7170012  63.4694997  28.5979988  47.9212918  63.8462024  27.8418454
  42.8660012  60.1274997  24.2279988  42.5490012  59.2254997  24.1929988
  43.6480012  60.1294997  23.6749988  42.9282284  60.0041628  24.1484783
  46.4910012  62.3794997  30.2239988  45.6550012  62.8334997  30.3339988
  47.0150012  62.6554997  30.9759988  46.4474414  62.4789376  30.3407136
  47.0350012  68.5924997  21.9079988  46.2900012  68.0854997  21.5859988
  46.9010012  68.6414997  22.8549988  46.9148776  68.5296940  21.9918647
  50.9330012  61.4064997  20.1079988  49.9940012  61.5184997  19.9559988
  51.2300012  62.2634997  20.4139988  50.8447666  61.5376443  20.1285768
  48.5540012  68.7764997  33.1449988  48.2090012  68.3954997  33.9519988
  48.3540012  69.7104997  33.2169988  48.4798061  68.8505228  33.2650961
  51.6510012  63.2734997  21.7679988  52.5430012  63.1364997  22.0869988
  51.7080012  64.0644997  21.2319988  51.7806285  63.3616660  21.7391691
  42.1600012  67.8874997  27.6779988  42.9050012  67.8854997  27.0769988
  42.2380012  67.0644997  28.1599988  42.2725518  67.7759315  27.6608929
  49.1610012  70.0514997  20.9339988  48.8650012  70.8774997  21.3149988
  48.4580012  69.4314997  21.1299988  49.0254914  70.0808199  21.0126443
  39.1680012  66.3484997  32.9929988  39.3910012  65.9304997  33.8249988
  38.5660012  65.7354997  32.5699988  39.1171759  66.2084668  33.0497022
  46.1840012  65.8654997  35.2059988  45.8880012  65.6994997  34.3109988
  47.1160012  65.6454997  35.1949988  46.2694166  65.8130640  35.0820536
  50.8050012  71.2384997  33.0959988  49.9040012  71.4214997  32.8279988
  50.8390012  71.4974997  34.0169988  50.6863041  71.2985512  33.1838197
  56.5360012  63.4834997  21.4629988  55.9820012  63.0874997  20.7909988
  56.6360012  64.3934997  21.1849988  56.4737059  63.5523586  21.3334401
  54.8310012  72.2694997  21.9279988  54.4580012  71.4434997  22.2369988
  55.1090012  72.0864997  21.0309988  54.8175630  72.1317303  21.8489626
  51.9920012  67.0774997  28.9489988  51.0630012  66.8454997  28.9219988
  52.4430012  66.3004997  28.6189988  51.9259216  66.9407238  28.9006917
  44.5350012  71.4054997  25.0819988  45.0620012  72.1784997  24.8819988
  43.6550012  71.6304997  24.7809988  44.4881773  71.5418005  25.0139010
  40.2900012  66.2674997  19.6689988  40.9060012  66.8944997  20.0489988
  39.4280012  66.5834997  19.9409988  40.2577698  66.3959430  19.7577183
  45.9620012  69.0684997  24.6589988  45.7210012  69.9934997  24.6999988
  45.2210012  68.6094997  25.0549988  45.8288409  69.1331421  24.7181377
  46.4770012  73.2174997  30.9739988  46.8390012  74.0724997  30.7399988
  47.0080012  72.9254997  31.7139988  46.5984473  73.2951060  31.0420855
  44.6450012  74.0904997  24.2039988  43.6950012  74.1954997  24.2549988
  44.9970012  74.9104997  24.5489988  44.5624203  74.2158314  24.2576650
  50.0210012  69.3164997  30.6739988  49.5950012  69.0894997  31.5009988
  50.6010012  68.5784997  30.4919988  50.0411868  69.1855299  30.7625830
  52.2240012  70.2454997  19.7479988  52.5770012  69.8654997  20.5529988
  51.2750012  70.1524997  19.8349988  52.1440441  70.1809596  19.8698559
  52.6790012  73.8684997  33.1439988  52.0780012  73.3134997  32.6479988
  52.9610012  74.5354997  32.5179988  52.6348519  73.8826841  32.9914951
  56.7270012  74.7254997  19.9489988  57.4710012  75.3114997  19.8089988
  56.0330012  75.2934997  20.2829988  56.7350292  74.8825582  19.9749961
  40.8020012  61.1014997  32.5509988  39.9090012  61.4404997  32.4829988
  40.7030012  60.2464997  32.9689988  40.6664164  61.0322588  32.5982235
  53.0900012  68.9184997  21.9749988  52.8120012  68.1904997  22.5309988
  54.0170012  69.0374997  22.1799988  53.1773124  68.8348802  22.0788845
  40.4530012  72.9064997  30.9859988  40.6700012  71.9744997  30.9549988
  40.6990012  73.1804997  31.8689988  40.5159549  72.8160636  31.1011763
  46.3150012  71.3574997  18.1949988  46.5540012  70.6094997  17.6479988
  46.0460012  70.9694997  19.0279988  46.3113675  71.2026638  18.2326865
  45.2520012  70.9274997  20.6519988  45.3980012  70.4074997  21.4419988
  45.2490012  71.8344997  20.9579988  45.2715989  70.9788853  20.8016088
  41.7050012  68.1804997  21.1619988  41.0190012  68.5324997  21.7289988
  42.2270012  68.9434997  20.9149988  41.6816852  68.3318578  21.2062118
  49.5360012  60.8424997  31.4409988  50.2350012  60.9164997  32.0909988
  49.1550012  59.9784997  31.5949988  49.5801767  60.7357624  31.5508322
  50.3210012  60.4944997  22.5379988  50.5410012  60.9664997  21.7349988
  50.8790012  60.8894997  23.2079988  50.4264968  60.6124285  22.5187331
  47.9890012  72.6254997  21.4009988  47.1730012  73.1224997  21.4529988
  48.5190012  73.1004997  20.7609988  47.9489161  72.7577722  21.3215956
  47.5210012  62.2224997  23.3729988  48.3330012  62.7274997  23.4189988
  47.2760012  62.0774997  24.2869988  47.5990520  62.2720375  23.5028517
  48.0560012  63.2084997  32.5579988  48.1750012  63.7824997  33.3149988
  48.7120012  62.5204997  32.6719988  48.1609757  63.1941079  32.6770825
  48.4040012  59.3034997  24.3109988  48.0580012  59.9214997  24.9559988
  49.0630012  59.8044997  23.8299988  48.4457826  59.4555802  24.3340971
  45.3280012  73.6694997  21.3829988  45.4880012  74.4684997  20.8819988
  45.1300012  73.9754997  22.2679988  45.3231649  73.8204469  21.4339815
  44.0620012  60.3664997  20.9979988  43.9790012  61.2554997  21.3449988
  44.9520012  60.1014997  21.2299988  44.1709469  60.4521430  21.0767626
  52.8630012  64.8664997  27.4879988  52.0650012  64.4514997  27.1599988
  53.3080012  64.1754997  27.9789988  52.8139885  64.7163543  27.5094889
  42.3210012  70.7944997  20.0589988  42.9130012  71.4934997  20.3349988
  42.7800012  70.3614997  19.3389988  42.4641142  70.8317049  19.9994830
  40.6370012  63.4584997  19.1749988  40.5920012  64.3974997  19.3529988
  39.7490012  63.2224997  18.9049988  40.5108574  63.5551892  19.1628912
  53.9490012  74.1224997  29.1109988  53.7940012  74.8004997  28.4539988
  54.8820012  74.1944997  29.3139988  54.0538500  74.2250170  29.0485119
  41.4450012  58.2404997  27.8479988  41.2160012  58.2994997  26.9199988
  41.0020012  57.4484997  28.1539988  41.3538530  58.1415753  27.7624786
  40.3750012  72.1804997  24.0079988  39.5430012  72.6534997  24.0359988
  40.9210012  72.6904997  23.4099988  40.3349739  72.3141871  23.9309716
  39.6630012  74.7934997  35.3379988  40.2040012  74.5764997  36.0979988
  39.1820012  73.9874997  35.1489988  39.6719345  74.6549514  35.4163076
  44.2610012  73.7124997  36.9589988  45.0280012  73.2534997  37.2999988
  44.2390012  73.4864997  36.0289988  44.3631434  73.6190409  36.8800043
  48.3530012  73.2204997  18.3339988  47.7090012  72.5894997  18.6549988
  49.1150012  72.6894997  18.1019988  48.3678077  73.0622920  18.3466011
  50.8380012  72.0924997  35.6879988  50.4870012  71.2364997  35.9309988
  51.5640012  72.2354997  36.2949988  50.8880769  71.9945636  35.8033619
  52.9570012  73.0374997  18.5679988  53.2400012  72.2434997  19.0199988
  53.6970012  73.2704997  18.0069988  53.0957486  72.9602803  18.5540698
  39.5700012  68.6034997  36.2929988  39.7140012  67.7014997  36.0059988
  38.7980012  68.8894997  35.8049988  39.4853322  68.5188261  36.1877881
  43.9120012  68.9474997  18.4249988  43.9760012  68.1534997  18.9559988
  44.5650012  68.8284997  17.7349988  44.0090241  68.8227148  18.4044317
  46.2260012  68.5734997  35.7249988  45.8970012  68.8444997  34.8679988
  46.3780012  67.6324997  35.6379988  46.2014809  68.4833862  35.5958244
  49.2640012  69.9944997  18.1609988  48.9950012  70.1744997  19.0619988
  49.0580012  69.0684997  18.0299988  49.1993825  69.8940152  18.2665214
  51.9600012  68.4894997  33.1089988  52.7060012  69.0774997  32.9889988
  51.2030012  69.0714997  33.1719988  51.9597554  68.6487011  33.1010907
  40.4030012  65.8034997  35.7129988  40.8110012  64.9464997  35.5919988
  40.1430012  65.8184997  36.6339988  40.4237568  65.6880807  35.8209588
  45.0610012  66.9194997  20.7309988  44.6010012  66.4354997  21.4169988
  45.3160012  66.2514997  20.0949988  45.0324902  66.7628731  20.7389334
  44.3500012  64.8124997  33.0869988  43.7320012  65.4874997  33.3669988
  44.6940012  65.1334997  32.2539988  44.3119615  64.9482721  33.0126581
  46.1320012  65.1624997  18.9929988  45.9520012  65.0084997  18.0659988
  47.0820012  65.2704997  19.0379988  46.2357776  65.1560175  18.8721843
  49.3700012  67.2844997  36.3639988  50.3230012  67.3674997  36.3369988
  49.2090012  66.5724997  36.9839988  49.4786426  67.1996746  36.4440579
  55.5220012  67.5174997  18.4389988  55.2480012  67.0924997  17.6259988
  55.5610012  68.4484997  18.2219988  55.4897699  67.5852484  18.2983610
  44.6890012  62.1674997  34.1689988  44.8390012  61.4384997  33.5669988
  44.6920012  62.9444997  33.6099988  44.7099302  62.1727851  34.0110692
  45.1020012  60.5374997  31.6619988  45.6380012  60.9884997  31.0099988
  44.2500012  60.4294997  31.2389988  45.0602178  60.5846390  31.5155756
  46.6840012  65.9764997  31.9009988  47.4340012  65.8204997  31.3279988
  46.3450012  66.8284997  31.6259988  46.7408921  66.0702968  31.7853561
  51.0990012  63.7914997  36.9299988  51.2920012  62.8604997  36.8179988
  51.9570012  64.2164997  36.9199988  51.2413020  63.7216389  36.9133361
  52.4160012  66.5804997  35.0069988  52.1350012  67.2894997  34.4299988
  53.3590012  66.5074997  34.8559988  52.5049027  66.6677646  34.9075551
  43.1680012  63.3654997  36.0809988  42.4010012  62.8334997  35.8709988
  43.8470012  63.0554997  35.4809988  43.1547022  63.2507506  35.9711648
  45.9080012  57.9934997  32.0929988  45.8090012  58.9404997  31.9879988
  45.1650012  57.6214997  31.6179988  45.7940564  58.0725902  32.0144560
  47.1720012  62.3154997  35.6569988  46.9360012  62.0954997  36.5589988
  46.3880012  62.1084997  35.1469988  47.0338628  62.2574760  35.7113932
  49.8870012  61.4424997  34.7329988  48.9400012  61.4744997  34.8649988
  50.2000012  60.8174997  35.3859988  49.7995475  61.3623207  34.8394455
  51.5210012  60.0764997  36.7379988  51.4250012  59.1244997  36.7319988
  51.2000012  60.3454997  37.5979988  51.4644070  59.9824035  36.8535441
  41.3480012  61.2864997  35.7849988  41.5600012  60.5794997  35.1749988
  41.2370012  60.8484997  36.6289988  41.3619721  61.1307084  35.8156843
  46.1290012  57.2874997  34.7649988  46.8410012  56.6474997  34.7509988
  46.0280012  57.5544997  33.8509988  46.2127939  57.2359938  34.6395650
  46.4830012  58.9704997  36.8179988  46.3510012  58.4944997  35.9979988
  45.8840012  59.7144997  36.7629988  46.3839071  59.0059618  36.6982886
  46.0290012  75.8534997  19.9949988  46.9620012  76.0114997  20.1379988
  45.7650012  76.5284997  19.3699988  46.1209510  75.9663611  19.9300741
  39.5980012  70.4894997  19.4769988  40.5120012  70.5684997  19.7509988
  39.6050012  69.8024997  18.8109988  39.7241131  70.4073961  19.4244393
  38.2470012  75.8824997  24.5549988  37.6000012  75.4204997  24.0219988
  38.6010012  75.2104997  25.1369988  38.2063849  75.7284723  24.5607959
  39.1170012  73.9634997  26.3589988  38.7820012  73.0834997  26.5309988
  39.3390012  74.3084997  27.2239988  39.1011783  73.8897500  26.4994208
  56.6650012  74.7724997  29.3399988  56.6440012  74.9574997  30.2789988
  57.3560012  75.3414997  28.9989988  56.7554618  74.8746606  29.4223864
  56.2290012  74.3404997  32.2619988  55.7410012  73.6044997  31.8909988
  56.7780012  73.9464997  32.9399988  56.2364872  74.1866249  32.3029160
  54.6790012  70.1294997  36.8999988  53.8130012  70.0244997  37.2939988
  55.0560012  70.8884997  37.3459988  54.6113308  70.2176900  37.0142393
  55.9800012  68.3864997  22.4139988  56.8300012  68.8074997  22.5409988
  55.9860012  67.6464997  23.0209988  56.0971372  68.3440803  22.5134344
  56.3750012  66.4394997  24.2379988  55.6480012  65.9604997  24.6349988
  56.9560012  66.6454997  24.9699988  56.3539375  66.4017090  24.3914129
  54.6200012  72.1024997  31.4919988  53.9730012  72.4274997  32.1179988
  54.1030012  71.6624997  30.8179988  54.4614029  72.0875004  31.4865827
  56.6430012  66.3404997  20.6289988  56.1210012  66.6974997  19.9099988
  56.6100012  67.0154997  21.3069988  56.5671634  66.4805413  20.6223145
  54.9920012  63.5804997  19.1799988  55.0880012  64.2474997  18.4989988
  54.8520012  62.7644997  18.6979988  54.9862135  63.5614500  19.0218491
  54.1610012  64.9604997  24.8009988  54.0110012  64.0154997  24.7799988
  53.8080012  65.2414997  25.6439988  54.0926625  64.8690441  24.9122346
  39.1970012  67.0384997  28.8109988  39.3810012  66.9564997  27.8749988
  40.0460012  66.9144997  29.2349988  39.3370139  67.0105003  28.7401455
  55.0180012  66.9304997  34.4389988  55.6010012  66.1964997  34.6309988
  55.5820012  67.7024997  34.4859988  55.1739769  66.9344227  34.4716159
  54.2390012  60.9884997  18.2969988  54.8500012  60.6174997  18.9339988
  53.4030012  60.5674997  18.4929988  54.2095032  60.8807554  18.4107035
  53.8720012  62.5434997  23.2629988  54.1520012  61.6364997  23.3869988
  54.6310012  62.9774997  22.8739988  54.0129277  62.4780942  23.2273682
  38.7940012  62.3094997  34.9519988  39.7140012  62.1874997  35.1879988
  38.3450012  61.5594997  35.3409988  38.8591580  62.1913727  35.0369006
  56.7960012  57.8414997  36.8279988  57.1460012  57.1874997  36.2229988
  56.9430012  58.6784997  36.3889988  56.8638419  57.8651591  36.6857118
  54.4850012  59.8064997  23.3109988  54.6680012  59.3574997  24.1369988
  53.8860012  59.2214997  22.8479988  54.4290202  59.6659975  23.3613275
  40.0150012  60.6214997  27.8429988  40.4610012  59.8294997  28.1449988
  40.4820012  61.3374997  28.2739988  40.1390172  60.6100624  27.9424820
  38.3190012  63.6204997  28.9119988  38.8110012  63.3994997  28.1209988
  38.6820012  64.4614997  29.1929988  38.4353126  63.7038357  28.8417531
  56.3160012  59.9504997  35.1779988  55.3980012  60.2214997  35.1419988
  56.4390012  59.4154997  34.3929988  56.2071066  59.9152892  35.0670487
  56.3520012  59.8734997  19.8389988  56.7640012  59.1524997  19.3639988
  57.0340012  60.5434997  19.8979988  56.5005885  59.8652368  19.7818915
  38.6330012  59.8784997  22.9659988  37.7080012  60.0874997  22.8369988
  39.0870012  60.3624997  22.2769988  38.5677368  59.9725993  22.8551226
  53.4040012  74.8624997  24.9119988  54.0560012  74.5154997  24.3039988
  53.9140012  75.3514997  25.5579988  53.5622637  74.8810597  24.9160236
  38.5970012  58.6164997  31.3109988  37.9320012  58.3704997  31.9539988
  38.1540012  59.2384997  30.7329988  38.4460956  58.6668632  31.3209352
  40.7890012  71.7914997  35.4549988  39.9680012  71.9664997  34.9949988
  40.5360012  71.7184997  36.3759988  40.6426164  71.8055622  35.5164923
  43.7430012  72.7664997  31.7139988  43.3180012  73.5754997  31.4309988
  44.6470012  72.8514997  31.4119988  43.8070271  72.8888469  31.6343776
  48.0540012  74.1654997  34.6729988  48.2390012  73.8314997  35.5509988
  48.9000012  74.4744997  34.3509988  48.1937539  74.1616047  34.7495605
  50.3990012  75.4514997  33.9169988  51.0760012  74.8184997  33.6769988
  50.7210012  75.8524997  34.7239988  50.5351637  75.4191154  33.9932793
  41.1450012  76.0224997  31.7609988  40.4240012  76.4624997  31.3099988
  40.7790012  75.7714997  32.6099988  40.9969804  76.0487698  31.8139840
  43.6120012  75.6224997  30.7909988  42.7470012  75.6944997  31.1949988
  43.5570012  76.1694997  30.0069988  43.4862085  75.7062685  30.7403362
  48.3220012  75.5104997  29.9659988  47.8660012  76.0394997  29.3119988
  48.4850012  76.1134997  30.6919988  48.2815585  75.6644468  29.9745062
  50.6500012  74.3884997  30.9109988  49.7450012  74.5534997  30.6459988
  51.0790012  75.2414997  30.8459988  50.5840799  74.5264483  30.8659182
  53.2540012  75.9584997  31.2059988  53.0720012  76.8744997  30.9959988
  53.4310012  75.5484997  30.3599988  53.2530210  76.0284822  31.0627885
  40.5590012  74.6454997  28.6709988  40.5410012  74.2204997  29.5289988
  41.3640012  74.3274997  28.2629988  40.6653875  74.5443812  28.7331655
  42.7010012  73.3554997  27.3259988  42.4820012  72.4394997  27.4959988
  43.5250012  73.4954997  27.7919988  42.7824420  73.2490520  27.4122774
  45.2380012  73.8254997  28.1749988  45.4510012  72.9374997  27.8879988
  45.3020012  73.7914997  29.1289988  45.2758232  73.6993102  28.2647397
  48.7460012  59.4894997  27.3189988  48.0720012  58.8604997  27.5749988
  49.3100012  59.0054997  26.7159988  48.7299230  59.3378744  27.2725340
  53.8890012  57.5974997  27.4319988  54.4930012  58.1444997  26.9299988
  53.0190012  57.9164997  27.1919988  53.8541241  57.7155806  27.3307654
  55.6160012  58.7354997  25.7649988  56.2280012  58.2214997  25.2389988
  55.9980012  59.6134997  25.7889988  55.7514540  58.7837140  25.6961830
  41.0730012  58.1234997  25.1409988  40.2960012  57.8894997  24.6339988
  41.6030012  57.3264997  25.1499988  41.0382330  57.9836988  25.0727742
  39.9090012  57.9214997  20.9449988  40.3480012  58.5324997  20.3529988
  39.2760012  58.4594997  21.4189988  39.8834514  58.0779257  20.9280930
  45.6520012  58.0504997  24.9549988  46.5270012  58.4384997  24.9249988
  45.5160012  57.8354997  25.8769988  45.7533695  58.0745184  25.0756440
  51.2090012  58.0804997  26.6039988  51.2850012  58.1754997  25.6539988
  50.9340012  57.1724997  26.7329988  51.1822321  57.9707867  26.4915079
  52.5620012  58.1064997  22.2959988  51.8600012  58.7214997  22.0869988
  52.1180012  57.2684997  22.4269988  52.4056330  58.0775783  22.2850328
  39.8100012  73.8694997  21.8429988  39.1250012  73.8314997  21.1749988
  39.8140012  74.7824997  22.1309988  39.7168193  73.9877016  21.7905284
  41.7700012  59.8374997  19.3869988  42.2620012  59.2074997  18.8599988
  42.3940012  60.1334997  20.0509988  41.9215446  59.7913199  19.4045980
  46.7960012  60.1304997  21.8439988  46.9740012  59.4844997  22.5269988
  46.7430012  60.9644997  22.3119988  46.8131829  60.1547985  22.0005940
  48.6750012  75.0794997  20.2399988  49.5410012  75.4454997  20.0619988
  48.4280012  74.6394997  19.4259988  48.7602392  75.0701756  20.1056289
  55.3840012  74.6424997  22.9189988  55.1890012  73.8944997  22.3539988
  55.3450012  75.4004997  22.3359988  55.3520380  74.6426099  22.7628384
  41.0310012  58.6374997  34.6589988  40.6650012  57.8724997  35.1019988
  41.9440012  58.6664997  34.9459988  41.1042790  58.5367224  34.7584070
  43.0040012  57.9884997  36.1949988  43.9020012  57.7144997  36.0099988
  42.6170012  57.2454997  36.6589988  43.0746612  57.8505914  36.2323643
  41.6280012  74.7894997  18.8679988  41.3610012  75.0764997  19.7409988
  42.4000012  74.2434997  19.0199988  41.6957488  74.7550294  19.0081050
  51.4250012  57.3204997  36.3769988  51.5020012  56.8944997  37.2309988
  52.3190012  57.3344997  36.0339988  51.5563428  57.2640880  36.4475310
  54.6010012  73.3934997  35.0689988  53.8190012  73.2074997  34.5499988
  54.5290012  74.3224997  35.2869988  54.4841777  73.4936492  35.0274048
  61.2320012  70.5994997  28.6469988  60.8630012  69.7974997  28.2769988
  62.1730012  70.4304997  28.6929988  61.3087289  70.4670153  28.6026316
  57.8420012  64.2594997  24.0399988  57.3950012  65.1054997  24.0209988
  57.2810012  63.6794997  23.5239988  57.7049900  64.2969916  23.9676801
  74.9930012  60.5684997  29.7859988  75.0420012  61.1784997  30.5219988
  75.4180012  61.0294997  29.0629988  75.0571824  60.7143741  29.7890205
  70.3480012  61.5934997  24.9259988  70.9940012  61.2644997  25.5509988
  70.8580012  62.1114997  24.3029988  70.5054264  61.6184611  24.9273862
  72.1120012  60.8844997  26.9059988  71.8960012  60.1184997  27.4389988
  72.7670012  61.3564997  27.4189988  72.1710632  60.8435889  27.0482861
  58.5330012  69.6914997  22.4559988  58.2610012  69.9204997  21.5669988
  58.5790012  70.5294997  22.9159988  58.5020094  69.8361213  22.3965697
  72.4590012  59.5994997  30.5859988  71.7230012  60.2104997  30.5479988
  73.1420012  60.0144997  30.0589988  72.4506541  59.7391374  30.5095832
  67.7290012  66.5234997  22.5519988  67.0170012  67.0584997  22.1999988
  68.4200012  66.5794997  21.8919988  67.7250132  66.6042543  22.4146289
  67.7820012  64.9814997  19.5909988  68.4830012  65.0034997  20.2419988
  68.0850012  64.3534997  18.9349988  67.9187830  64.8996566  19.5913711
  70.0050012  65.8954997  21.1889988  70.5850012  66.0454997  21.9359988
  70.4190012  66.3664997  20.4659988  70.1402830  65.9796841  21.1934134
  73.7040012  57.6454997  21.0019988  72.8040012  57.7844997  21.2969988
  73.9560012  58.4764997  20.5999988  73.6148702  57.7769074  20.9880205
  61.7700012  66.4334997  22.9759988  61.4780012  67.2014997  22.4849988
  61.0960012  65.7734997  22.8129988  61.6389081  66.4494406  22.8867340
  57.6130012  71.5764997  28.6749988  58.5590012  71.4324997  28.6559988
  57.5010012  72.3604997  29.2119988  57.7272727  71.6628046  28.7450072
  66.7900012  71.8164997  33.2329988  66.8770012  72.6424997  33.7079988
  65.9260012  71.4864997  33.4819988  66.6851964  71.8849878  33.3316549
  60.8570012  74.3774997  24.8199988  61.0100012  74.0294997  25.6989988
  60.0070012  74.0214997  24.5649988  60.7628962  74.2816650  24.9058340
  70.7200012  62.0674997  33.0569988  70.2060012  61.9414997  33.8549988
  70.5650012  62.9794997  32.8129988  70.6286852  62.1736132  33.1332158
  67.0550012  60.8044997  19.4889988  66.8020012  60.8234997  20.4119988
  66.7990012  59.9324997  19.1879988  66.9857790  60.6892437  19.5746263
  68.3540012  64.1924997  23.6529988  67.9450012  65.0074997  23.3619988
  69.0750012  64.0524997  23.0389988  68.3954537  64.2852018  23.5301342
  69.3590012  63.6384997  26.4669988  69.1640012  64.2434997  25.7519988
  69.5400012  62.8044997  26.0329988  69.3567614  63.6086300  26.3104405
  63.9380012  61.2494997  18.5899988  63.5070012  60.8044997  19.3199988
  63.2200012  61.6214997  18.0779988  63.7819438  61.2388940  18.6206799
  57.1800012  60.9914997  25.6419988  57.8110012  60.9624997  26.3609988
  57.6290012  60.5664997  24.9119988  57.3270774  60.9300492  25.6416553
  58.4540012  61.7374997  21.0659988  58.9280012  62.3284997  20.4809988
  57.7370012  62.2684997  21.4129988  58.4219341  61.8900867  21.0328836
  69.8050012  60.4384997  29.1869988  69.1290012  60.5694997  29.8509988
  69.3200012  60.2834997  28.3769988  69.6467145  60.4354905  29.1684517
  62.5560012  64.0274997  19.9729988  62.0130012  63.6474997  19.2809988
  63.3890012  64.2214997  19.5439988  62.5944399  64.0018124  19.8204526
  73.0930012  76.1104997  35.4639988  73.2930012  76.5344997  34.6289988
  73.7480012  76.4534997  36.0709988  73.2090051  76.2149648  35.4317836
  66.7200012  63.9914997  27.8099988  67.2850012  63.4444997  27.2629988
  66.5730012  63.4694997  28.5979988  66.7772918  63.8462024  27.8418454
  65.8910012  68.5924997  21.9079988  65.1460012  68.0854997  21.5859988
  65.7570012  68.6414997  22.8549988  65.7708776  68.5296940  21.9918647
  69.7890012  61.4064997  20.1079988  68.8500012  61.5184997  19.9559988
  70.0860012  62.2634997  20.4139988  69.7007666  61.5376443  20.1285768
  70.5070012  63.2734997  21.7679988  71.3990012  63.1364997  22.0869988
  70.5640012  64.0644997  21.2319988  70.6366285  63.3616660  21.7391691
  75.3920012  63.4834997  21.4629988  74.8380012  63.0874997  20.7909988
  75.4920012  64.3934997  21.1849988  75.3297059  63.5523586  21.3334401
  63.3910012  71.4054997  25.0819988  63.9180012  72.1784997  24.8819988
  62.5110012  71.6304997  24.7809988  63.3441773  71.5418005  25.0139010
  59.1460012  66.2674997  19.6689988  59.7620012  66.8944997  20.0489988
  58.2840012  66.5834997  19.9409988  59.1137698  66.3959430  19.7577183
  65.3330012  73.2174997  30.9739988  65.6950012  74.0724997  30.7399988
  65.8640012  72.9254997  31.7139988  65.4544473  73.2951060  31.0420855
  63.5010012  74.0904997  24.2039988  62.5510012  74.1954997  24.2549988
  63.8530012  74.9104997  24.5489988  63.4184203  74.2158314  24.2576650
  65.1710012  71.3574997  18.1949988  65.4100012  70.6094997  17.6479988
  64.9020012  70.9694997  19.0279988  65.1673675  71.2026638  18.2326865
  64.1080012  70.9274997  20.6519988  64.2540012  70.4074997  21.4419988
  64.1050012  71.8344997  20.9579988  64.1275989  70.9788853  20.8016088
  60.5610012  68.1804997  21.1619988  59.8750012  68.5324997  21.7289988
  61.0830012  68.9434997  20.9149988  60.5376852  68.3318578  21.2062118
  69.1770012  60.4944997  22.5379988  69.3970012  60.9664997  21.7349988
  69.7350012  60.8894997  23.2079988  69.2824968  60.6124285  22.5187331
  66.3770012  62.2224997  23.3729988  67.1890012  62.7274997  23.4189988
  66.1320012  62.0774997  24.2869988  66.4550520  62.2720375  23.5028517
  67.2600012  59.3034997  24.3109988  66.9140012  59.9214997  24.9559988
  67.9190012  59.8044997  23.8299988  67.3017826  59.4555802  24.3340971
  64.1840012  73.6694997  21.3829988  64.3440012  74.4684997  20.8819988
  63.9860012  73.9754997  22.2679988  64.1791649  73.8204469  21.4339815
  61.1770012  70.7944997  20.0589988  61.7690012  71.4934997  20.3349988
  61.6360012  70.3614997  19.3389988  61.3201142  70.8317049  19.9994830
  59.4930012  63.4584997  19.1749988  59.4480012  64.3974997  19.3529988
  58.6050012  63.2224997  18.9049988  59.3668574  63.5551892  19.1628912
  59.2310012  72.1804997  24.0079988  58.3990012  72.6534997  24.0359988
  59.7770012  72.6904997  23.4099988  59.1909739  72.3141871  23.9309716
  62.7680012  68.9474997  18.4249988  62.8320012  68.1534997  18.9559988
  63.4210012  68.8284997  17.7349988  62.8650241  68.8227148  18.4044317
  63.9170012  66.9194997  20.7309988  63.4570012  66.4354997  21.4169988
  64.1720012  66.2514997  20.0949988  63.8884902  66.7628731  20.7389334
  64.9880012  65.1624997  18.9929988  64.8080012  65.0084997  18.0659988
  65.9380012  65.2704997  19.0379988  65.0917776  65.1560175  18.8721843
  68.2260012  67.2844997  36.3639988  69.1790012  67.3674997  36.3369988
  68.0650012  66.5724997  36.9839988  68.3346426  67.1996746  36.4440579
  68.7430012  61.4424997  34.7329988  67.7960012  61.4744997  34.8649988
  69.0560012  60.8174997  35.3859988  68.6555475  61.3623207  34.8394455
  64.8850012  75.8534997  19.9949988  65.8180012  76.0114997  20.1379988
  64.6210012  76.5284997  19.3699988  64.9769510  75.9663611  19.9300741
  58.4540012  70.4894997  19.4769988  59.3680012  70.5684997  19.7509988
  58.4610012  69.8024997  18.8109988  58.5801131  70.4073961  19.4244393
  57.1030012  75.8824997  24.5549988  56.4560012  75.4204997  24.0219988
  57.4570012  75.2104997  25.1369988  57.0623849  75.7284723  24.5607959
  57.9730012  73.9634997  26.3589988  57.6380012  73.0834997  26.5309988
  58.1950012  74.3084997  27.2239988  57.9571783  73.8897500  26.4994208
  73.8480012  63.5804997  19.1799988  73.9440012  64.2474997  18.4989988
  73.7080012  62.7644997  18.6979988  73.8422135  63.5614500  19.0218491
  73.0170012  64.9604997  24.8009988  72.8670012  64.0154997  24.7799988
  72.6640012  65.2414997  25.6439988  72.9486625  64.8690441  24.9122346
  73.0950012  60.9884997  18.2969988  73.7060012  60.6174997  18.9339988
  72.2590012  60.5674997  18.4929988  73.0655032  60.8807554  18.4107035
  72.7280012  62.5434997  23.2629988  73.0080012  61.6364997  23.3869988
  73.4870012  62.9774997  22.8739988  72.8689277  62.4780942  23.2273682
  73.3410012  59.8064997  23.3109988  73.5240012  59.3574997  24.1369988
  72.7420012  59.2214997  22.8479988  73.2850202  59.6659975  23.3613275
  58.8710012  60.6214997  27.8429988  59.3170012  59.8294997  28.1449988
  59.3380012  61.3374997  28.2739988  58.9950172  60.6100624  27.9424820
  75.2080012  59.8734997  19.8389988  75.6200012  59.1524997  19.3639988
  75.8900012  60.5434997  19.8979988  75.3565885  59.8652368  19.7818915
  57.4890012  59.8784997  22.9659988  56.5640012  60.0874997  22.8369988
  57.9430012  60.3624997  22.2769988  57.4237368  59.9725993  22.8551226
  66.9100012  74.1654997  34.6729988  67.0950012  73.8314997  35.5509988
  67.7560012  74.4744997  34.3509988  67.0497539  74.1616047  34.7495605
  67.1780012  75.5104997  29.9659988  66.7220012  76.0394997  29.3119988
  67.3410012  76.1134997  30.6919988  67.1375585  75.6644468  29.9745062
  59.4150012  74.6454997  28.6709988  59.3970012  74.2204997  29.5289988
  60.2200012  74.3274997  28.2629988  59.5213875  74.5443812  28.7331655
  61.5570012  73.3554997  27.3259988  61.3380012  72.4394997  27.4959988
  62.3810012  73.4954997  27.7919988  61.6384420  73.2490520  27.4122774
  64.0940012  73.8254997  28.1749988  64.3070012  72.9374997  27.8879988
  64.1580012  73.7914997  29.1289988  64.1318232  73.6993102  28.2647397
  67.6020012  59.4894997  27.3189988  66.9280012  58.8604997  27.5749988
  68.1660012  59.0054997  26.7159988  67.5859230  59.3378744  27.2725340
  72.7450012  57.5974997  27.4319988  73.3490012  58.1444997  26.9299988
  71.8750012  57.9164997  27.1919988  72.7101241  57.7155806  27.3307654
  74.4720012  58.7354997  25.7649988  75.0840012  58.2214997  25.2389988
  74.8540012  59.6134997  25.7889988  74.6074540  58.7837140  25.6961830
  59.9290012  58.1234997  25.1409988  59.1520012  57.8894997  24.6339988
  60.4590012  57.3264997  25.1499988  59.8942330  57.9836988  25.0727742
  58.7650012  57.9214997  20.9449988  59.2040012  58.5324997  20.3529988
  58.1320012  58.4594997  21.4189988  58.7394514  58.0779257  20.9280930
  70.0650012  58.0804997  26.6039988  70.1410012  58.1754997  25.6539988
  69.7900012  57.1724997  26.7329988  70.0382321  57.9707867  26.4915079
  71.4180012  58.1064997  22.2959988  70.7160012  58.7214997  22.0869988
  70.9740012  57.2684997  22.4269988  71.2616330  58.0775783  22.2850328
  58.6660012  73.8694997  21.8429988  57.9810012  73.8314997  21.1749988
  58.6700012  74.7824997  22.1309988  58.5728193  73.9877016  21.7905284
  60.6260012  59.8374997  19.3869988  61.1180012  59.2074997  18.8599988
  61.2500012  60.1334997  20.0509988  60.7775446  59.7913199  19.4045980
  65.6520012  60.1304997  21.8439988  65.8300012  59.4844997  22.5269988
  65.5990012  60.9644997  22.3119988  65.6691829  60.1547985  22.0005940
  60.4840012  74.7894997  18.8679988  60.2170012  75.0764997  19.7409988
  61.2560012  74.2434997  19.0199988  60.5517488  74.7550294  19.0081050
  87.8630012  67.2794997  25.0999988  87.9520012  68.2234997  24.9679988
  87.2250012  67.0044997  24.4419988  87.7889081  67.3714830  24.9929614
  93.8490012  60.5684997  29.7859988  93.8980012  61.1784997  30.5219988
  94.2740012  61.0294997  29.0629988  93.9131824  60.7143741  29.7890205
  89.2040012  61.5934997  24.9259988  89.8500012  61.2644997  25.5509988
  89.7140012  62.1114997  24.3029988  89.3614264  61.6184611  24.9273862
  94.2400012  62.0464997  32.0219988  93.5520012  62.7044997  31.9259988
  94.2560012  61.8494997  32.9579988  94.1478525  62.1100462  32.1354808
  80.2920012  60.3804997  30.5989988  80.0730012  60.9104997  29.8329988
  79.6240012  60.6074997  31.2459988  80.1717600  60.4836906  30.5816379
  87.6610012  69.8804997  24.1429988  87.3650012  69.5584997  23.2919988
  87.3360012  70.7804997  24.1839988  87.5766371  69.9580215  24.0321801
  90.9680012  60.8844997  26.9059988  90.7520012  60.1184997  27.4389988
  91.6230012  61.3564997  27.4189988  91.0270632  60.8435889  27.0482861
  91.3150012  59.5994997  30.5859988  90.5790012  60.2104997  30.5479988
  91.9980012  60.0144997  30.0589988  91.3066541  59.7391374  30.5095832
  84.3180012  57.6864997  28.0519988  84.2010012  56.7374997  27.9969988
  83.4630012  58.0184997  28.3249988  84.1863733  57.6015409  28.0813897
  89.2660012  73.0944997  25.7939988  89.6920012  72.3874997  25.3089988
  89.5830012  73.8954997  25.3769988  89.3671019  73.1060994  25.6713130
  90.4260012  70.9954997  24.3019988  90.1680012  70.3054997  23.6909988
  90.4970012  70.5524997  25.1479988  90.4002856  70.8412124  24.3326885
  86.5850012  66.5234997  22.5519988  85.8730012  67.0584997  22.1999988
  87.2760012  66.5794997  21.8919988  86.5810132  66.6042543  22.4146289
  86.6380012  64.9814997  19.5909988  87.3390012  65.0034997  20.2419988
  86.9410012  64.3534997  18.9349988  86.7747830  64.8996566  19.5913711
  89.9900012  66.7334997  23.5039988  89.2580012  66.9614997  24.0769988
  90.4380012  66.0194997  23.9589988  89.9503095  66.6682571  23.6439119
  88.8610012  65.8954997  21.1889988  89.4410012  66.0454997  21.9359988
  89.2750012  66.3664997  20.4659988  88.9962830  65.9796841  21.1934134
  92.5600012  57.6454997  21.0019988  91.6600012  57.7844997  21.2969988
  92.8120012  58.4764997  20.5999988  92.4708702  57.7769074  20.9880205
  93.7490012  72.0114997  19.3779988  93.8230012  72.9504997  19.5489988
  94.6550012  71.7064997  19.3219988  93.8815100  72.0986722  19.3938119
  89.1620012  74.7424997  20.0409988  89.5370012  73.9984997  19.5709988
  89.1660012  74.4724997  20.9599988  89.2138915  74.6041486  20.1007824
  88.8310012  74.6684997  22.7909988  87.8950012  74.7684997  22.9689988
  89.1110012  73.9594997  23.3689988  88.7408255  74.5862711  22.8935391
  81.5870012  58.5894997  28.8289988  80.7250012  58.5024997  28.4219988
  81.5640012  59.4454997  29.2569988  81.4660330  58.6932765  28.8311863
  86.2500012  58.3114997  32.2039988  86.6700012  57.8964997  32.9569988
  85.3170012  58.1334997  32.3209988  86.1813644  58.2305900  32.3229539
  89.5760012  62.0674997  33.0569988  89.0620012  61.9414997  33.8549988
  89.4210012  62.9794997  32.8129988  89.4846852  62.1736132  33.1332158
  90.3390012  66.9284997  18.8189988  90.3810012  66.7054997  17.8889988
  91.1880012  67.3274997  19.0089988  90.4595396  66.9519155  18.7173627
  85.9110012  60.8044997  19.4889988  85.6580012  60.8234997  20.4119988
  85.6550012  59.9324997  19.1879988  85.8417790  60.6892437  19.5746263
  87.2100012  64.1924997  23.6529988  86.8010012  65.0074997  23.3619988
  87.9310012  64.0524997  23.0389988  87.2514537  64.2852018  23.5301342
  88.2150012  63.6384997  26.4669988  88.0200012  64.2434997  25.7519988
  88.3960012  62.8044997  26.0329988  88.2127614  63.6086300  26.3104405
  82.7940012  61.2494997  18.5899988  82.3630012  60.8044997  19.3199988
  82.0760012  61.6214997  18.0779988  82.6379438  61.2388940  18.6206799
  77.3100012  61.7374997  21.0659988  77.7840012  62.3284997  20.4809988
  76.5930012  62.2684997  21.4129988  77.2779341  61.8900867  21.0328836
  84.2560012  61.2034997  25.9229988  83.3450012  61.2604997  26.2109988
  84.7620012  61.1434997  26.7329988  84.1995413  61.2031985  26.0720622
  88.6610012  60.4384997  29.1869988  87.9850012  60.5694997  29.8509988
  88.1760012  60.2834997  28.3769988  88.5027145  60.4354905  29.1684517
  80.5780012  60.1274997  24.2279988  80.2610012  59.2254997  24.1929988
  81.3600012  60.1294997  23.6749988  80.6402284  60.0041628  24.1484783
  84.7470012  68.5924997  21.9079988  84.0020012  68.0854997  21.5859988
  84.6130012  68.6414997  22.8549988  84.6268776  68.5296940  21.9918647
  88.6450012  61.4064997  20.1079988  87.7060012  61.5184997  19.9559988
  88.9420012  62.2634997  20.4139988  88.5567666  61.5376443  20.1285768
  89.3630012  63.2734997  21.7679988  90.2550012  63.1364997  22.0869988
  89.4200012  64.0644997  21.2319988  89.4926285  63.3616660  21.7391691
  94.2480012  63.4834997  21.4629988  93.6940012  63.0874997  20.7909988
  94.3480012  64.3934997  21.1849988  94.1857059  63.5523586  21.3334401
  92.5430012  72.2694997  21.9279988  92.1700012  71.4434997  22.2369988
  92.8210012  72.0864997  21.0309988  92.5295630  72.1317303  21.8489626
  84.1890012  73.2174997  30.9739988  84.5510012  74.0724997  30.7399988
  84.7200012  72.9254997  31.7139988  84.3104473  73.2951060  31.0420855
  89.9360012  70.2454997  19.7479988  90.2890012  69.8654997  20.5529988
  88.9870012  70.1524997  19.8349988  89.8560441  70.1809596  19.8698559
  94.4390012  74.7254997  19.9489988  95.1830012  75.3114997  19.8089988
  93.7450012  75.2934997  20.2829988  94.4470292  74.8825582  19.9749961
  90.8020012  68.9184997  21.9749988  90.5240012  68.1904997  22.5309988
  91.7290012  69.0374997  22.1799988  90.8893124  68.8348802  22.0788845
  87.2480012  60.8424997  31.4409988  87.9470012  60.9164997  32.0909988
  86.8670012  59.9784997  31.5949988  87.2921767  60.7357624  31.5508322
  88.0330012  60.4944997  22.5379988  88.2530012  60.9664997  21.7349988
  88.5910012  60.8894997  23.2079988  88.1384968  60.6124285  22.5187331
  85.2330012  62.2224997  23.3729988  86.0450012  62.7274997  23.4189988
  84.9880012  62.0774997  24.2869988  85.3110520  62.2720375  23.5028517
  86.1160012  59.3034997  24.3109988  85.7700012  59.9214997  24.9559988
  86.7750012  59.8044997  23.8299988  86.1577826  59.4555802  24.3340971
  81.7740012  60.3664997  20.9979988  81.6910012  61.2554997  21.3449988
  82.6640012  60.1014997  21.2299988  81.8829469  60.4521430  21.0767626
  91.9730012  61.1154997  33.3929988  91.0560012  61.3784997  33.3049988
  92.3080012  61.1124997  32.4959988  91.8929900  61.1510224  33.2597919
  90.5750012  64.8664997  27.4879988  89.7770012  64.4514997  27.1599988
  91.0200012  64.1754997  27.9789988  90.5259885  64.7163543  27.5094889
  78.3490012  63.4584997  19.1749988  78.3040012  64.3974997  19.3529988
  77.4610012  63.2224997  18.9049988  78.2228574  63.5551892  19.1628912
  79.1570012  58.2404997  27.8479988  78.9280012  58.2994997  26.9199988
  78.7140012  57.4484997  28.1539988  79.0658530  58.1415753  27.7624786
  78.0870012  72.1804997  24.0079988  77.2550012  72.6534997  24.0359988
  78.6330012  72.6904997  23.4099988  78.0469739  72.3141871  23.9309716
  90.6690012  73.0374997  18.5679988  90.9520012  72.2434997  19.0199988
  91.4090012  73.2704997  18.0069988  90.8077486  72.9602803  18.5540698
  83.8440012  65.1624997  18.9929988  83.6640012  65.0084997  18.0659988
  84.7940012  65.2704997  19.0379988  83.9477776  65.1560175  18.8721843
  93.2340012  67.5174997  18.4389988  92.9600012  67.0924997  17.6259988
  93.2730012  68.4484997  18.2219988  93.2017699  67.5852484  18.2983610
  83.6200012  57.9934997  32.0929988  83.5210012  58.9404997  31.9879988
  82.8770012  57.6214997  31.6179988  83.5060564  58.0725902  32.0144560
  93.6920012  68.3864997  22.4139988  94.5420012  68.8074997  22.5409988
  93.6980012  67.6464997  23.0209988  93.8091372  68.3440803  22.5134344
  94.0870012  66.4394997  24.2379988  93.3600012  65.9604997  24.6349988
  94.6680012  66.6454997  24.9699988  94.0659375  66.4017090  24.3914129
  94.3550012  66.3404997  20.6289988  93.8330012  66.6974997  19.9099988
  94.3220012  67.0154997  21.3069988  94.2791634  66.4805413  20.6223145
  92.7040012  63.5804997  19.1799988  92.8000012  64.2474997  18.4989988
  92.5640012  62.7644997  18.6979988  92.6982135  63.5614500  19.0218491
  91.8730012  64.9604997  24.8009988  91.7230012  64.0154997  24.7799988
  91.5200012  65.2414997  25.6439988  91.8046625  64.8690441  24.9122346
  91.9510012  60.9884997  18.2969988  92.5620012  60.6174997  18.9339988
  91.1150012  60.5674997  18.4929988  91.9215032  60.8807554  18.4107035
  91.5840012  62.5434997  23.2629988  91.8640012  61.6364997  23.3869988
  92.3430012  62.9774997  22.8739988  91.7249277  62.4780942  23.2273682
  92.1960012  63.1244997  28.6989988  93.1290012  63.3364997  28.6649988
  91.9610012  63.2264997  29.6209988  92.2918036  63.1672769  28.8189976
  92.1970012  59.8064997  23.3109988  92.3800012  59.3574997  24.1369988
  91.5980012  59.2214997  22.8479988  92.1410202  59.6659975  23.3613275
  77.7270012  60.6214997  27.8429988  78.1730012  59.8294997  28.1449988
  78.1940012  61.3374997  28.2739988  77.8510172  60.6100624  27.9424820
  94.0640012  59.8734997  19.8389988  94.4760012  59.1524997  19.3639988
  94.7460012  60.5434997  19.8979988  94.2125885  59.8652368  19.7818915
  76.3450012  59.8784997  22.9659988  75.4200012  60.0874997  22.8369988
  76.7990012  60.3624997  22.2769988  76.2797368  59.9725993  22.8551226
  93.0280012  58.0404997  32.9969988  92.2160012  58.3654997  32.6089988
  93.2610012  57.2804997  32.4639988  92.9483423  57.9822436  32.8718253
  80.4130012  73.3554997  27.3259988  80.1940012  72.4394997  27.4959988
  81.2370012  73.4954997  27.7919988  80.4944420  73.2490520  27.4122774
  86.4580012  59.4894997  27.3189988  85.7840012  58.8604997  27.5749988
  87.0220012  59.0054997  26.7159988  86.4419230  59.3378744  27.2725340
  91.6010012  57.5974997  27.4319988  92.2050012  58.1444997  26.9299988
  90.7310012  57.9164997  27.1919988  91.5661241  57.7155806  27.3307654
  93.3280012  58.7354997  25.7649988  93.9400012  58.2214997  25.2389988
  93.7100012  59.6134997  25.7889988  93.4634540  58.7837140  25.6961830
  78.7850012  58.1234997  25.1409988  78.0080012  57.8894997  24.6339988
  79.3150012  57.3264997  25.1499988  78.7502330  57.9836988  25.0727742
  77.6210012  57.9214997  20.9449988  78.0600012  58.5324997  20.3529988
  76.9880012  58.4594997  21.4189988  77.5954514  58.0779257  20.9280930
  83.3640012  58.0504997  24.9549988  84.2390012  58.4384997  24.9249988
  83.2280012  57.8354997  25.8769988  83.4653695  58.0745184  25.0756440
  88.9210012  58.0804997  26.6039988  88.9970012  58.1754997  25.6539988
  88.6460012  57.1724997  26.7329988  88.8942321  57.9707867  26.4915079
  90.2740012  58.1064997  22.2959988  89.5720012  58.7214997  22.0869988
  89.8300012  57.2684997  22.4269988  90.1176330  58.0775783  22.2850328
  79.4820012  59.8374997  19.3869988  79.9740012  59.2074997  18.8599988
  80.1060012  60.1334997  20.0509988  79.6335446  59.7913199  19.4045980
  84.5080012  60.1304997  21.8439988  84.6860012  59.4844997  22.5269988
  84.4550012  60.9644997  22.3119988  84.5251829  60.1547985  22.0005940
  93.0960012  74.6424997  22.9189988  92.9010012  73.8944997  22.3539988
  93.0570012  75.4004997  22.3359988  93.0640380  74.6426099  22.7628384
 106.7190012  67.2794997  25.0999988 106.8080012  68.2234997  24.9679988
 106.0810012  67.0044997  24.4419988 106.6449081  67.3714830  24.9929614
 105.6520012  66.5344997  28.5189988 105.6140012  65.8884997  29.2239988
 105.3300012  66.0684997  27.7479988 105.6032333  66.3829408  28.5112978
  98.0210012  66.1494997  30.1119988  98.0620012  65.5234997  30.8349988
  98.7240012  66.7734997  30.2939988  98.1216363  66.1481196  30.2356044
 109.3580012  69.4734997  26.8199988 108.9180012  68.7534997  27.2709988
 109.3450012  70.1944997  27.4499988 109.2960226  69.4723731  26.9668494
  98.9440012  70.5994997  28.6469988  98.5750012  69.7974997  28.2769988
  99.8850012  70.4304997  28.6929988  99.0207289  70.4670153  28.6026316
  95.5540012  64.2594997  24.0399988  95.1070012  65.1054997  24.0209988
  94.9930012  63.6794997  23.5239988  95.4169900  64.2969916  23.9676801
  96.2650012  66.4214997  26.1659988  96.4780012  65.6514997  26.6929988
  97.0030012  66.5104997  25.5619988  96.3938496  66.3281394  26.1565300
 106.4700012  74.5784997  27.0329988 107.0900012  73.9014997  26.7589988
 106.2620012  74.3604997  27.9409988 106.5266904  74.4563870  27.1183365
 104.0420012  68.9674997  28.9249988 104.3460012  68.2814997  28.3299988
 104.7630012  69.0854997  29.5429988 104.1810671  68.8896305  28.9271816
 112.7050012  60.5684997  29.7859988 112.7540012  61.1784997  30.5219988
 113.1300012  61.0294997  29.0629988 112.7691824  60.7143741  29.7890205
 107.1830012  63.3614997  29.2529988 107.3250012  62.4154997  29.2729988
 107.0760012  63.5684997  28.3239988 107.1879864  63.2599534  29.1302339
 100.3370012  61.4624997  26.5249988 100.3810012  62.3224997  26.1069988
  99.8800012  60.9104997  25.8909988 100.2812185  61.5055799  26.3820299
 108.0600012  61.5934997  24.9259988 108.7060012  61.2644997  25.5509988
 108.5700012  62.1114997  24.3029988 108.2174264  61.6184611  24.9273862
  96.9580012  63.8594997  27.2869988  97.6110012  63.3094997  27.7189988
  96.9820012  63.5854997  26.3699988  97.0506683  63.7471466  27.2222123
 102.1140012  65.4094997  26.5019988 102.7300012  64.8834997  27.0119988
 101.5280012  64.7694997  26.0989988 102.1190810  65.2509208  26.5173173
 113.0960012  62.0464997  32.0219988 112.4080012  62.7044997  31.9259988
 113.1120012  61.8494997  32.9579988 113.0038525  62.1100462  32.1354808
  99.1480012  60.3804997  30.5989988  98.9290012  60.9104997  29.8329988
  98.4800012  60.6074997  31.2459988  99.0277600  60.4836906  30.5816379
 106.5170012  69.8804997  24.1429988 106.2210012  69.5584997  23.2919988
 106.1920012  70.7804997  24.1839988 106.4326371  69.9580215  24.0321801
 101.7170012  68.0564997  30.8859988 100.9770012  68.6544997  30.9899988
 102.4310012  68.6104997  30.5709988 101.7122237  68.2132831  30.8576465
 109.8240012  60.8844997  26.9059988 109.6080012  60.1184997  27.4389988
 110.4790012  61.3564997  27.4189988 109.8830632  60.8435889  27.0482861
  98.7410012  62.2724997  28.5509988  99.3550012  62.9054997  28.9249988
  99.2530012  61.8004997  27.8949988  98.8942296  62.2952370  28.5134252
 100.1240012  70.0204997  31.6739988 100.1190012  70.9004997  31.2959988
  99.2710012  69.9374997  32.0989988 100.0079464  70.1296117  31.6797907
  96.2450012  69.6914997  22.4559988  95.9730012  69.9204997  21.5669988
  96.2910012  70.5294997  22.9159988  96.2140094  69.8361213  22.3965697
 109.8700012  71.3134997  29.1679988 108.9290012  71.3714997  29.3299988
 110.1470012  72.2194997  29.0309988 109.7784679  71.4439443  29.1716815
 110.1710012  59.5994997  30.5859988 109.4350012  60.2104997  30.5479988
 110.8540012  60.0144997  30.0589988 110.1626541  59.7391374  30.5095832
 103.1740012  57.6864997  28.0519988 103.0570012  56.7374997  27.9969988
 102.3190012  58.0184997  28.3249988 103.0423733  57.6015409  28.0813897
 108.1220012  73.0944997  25.7939988 108.5480012  72.3874997  25.3089988
 108.4390012  73.8954997  25.3769988 108.2231019  73.1060994  25.6713130
 109.2820012  70.9954997  24.3019988 109.0240012  70.3054997  23.6909988
 109.3530012  70.5524997  25.1479988 109.2562856  70.8412124  24.3326885
 110.9680012  69.5614997  32.7799988 111.1080012  68.9704997  32.0399988
 111.1350012  70.4344997  32.4229988 111.0096778  69.5986426  32.6306965
 105.4410012  66.5234997  22.5519988 104.7290012  67.0584997  22.1999988
 106.1320012  66.5794997  21.8919988 105.4370132  66.6042543  22.4146289
 105.4940012  64.9814997  19.5909988 106.1950012  65.0034997  20.2419988
 105.7970012  64.3534997  18.9349988 105.6307830  64.8996566  19.5913711
 112.8100012  65.9014997  30.8459988 112.1570012  66.5964997  30.9349988
 113.2750012  66.1114997  30.0359988 112.7835390  66.0249425  30.7486883
 108.8460012  66.7334997  23.5039988 108.1140012  66.9614997  24.0769988
 109.2940012  66.0194997  23.9589988 108.8063095  66.6682571  23.6439119
 108.7440012  64.9074997  32.5709988 108.8240012  65.6704997  33.1429988
 108.1420012  65.1864997  31.8809988 108.6735756  65.0497134  32.5560589
 100.4920012  67.3634997  25.3859988 100.1610012  66.9934997  24.5679988
 101.0800012  66.6934997  25.7329988 100.5261873  67.2221156  25.3208102
 101.8580012  70.7914997  28.0679988 101.7640012  70.2134997  27.3109988
 102.5880012  70.4204997  28.5639988 101.9437981  70.6622390  28.0314165
 100.8580012  66.1324997  29.0199988 101.4240012  66.2534997  28.2569988
 101.1770012  66.7694997  29.6589988 100.9785786  66.2351884  29.0020040
 107.1670012  71.6354997  29.7539988 106.9270012  72.2974997  30.4019988
 106.9690012  70.8014997  30.1789988 107.1073808  71.6133134  29.9001524
 101.7380012  70.5314997  33.7369988 101.4270012  71.3134997  34.1919988
 101.0880012  70.3784997  33.0509988 101.6075558  70.6179105  33.7065871
 107.7170012  65.8954997  21.1889988 108.2970012  66.0454997  21.9359988
 108.1310012  66.3664997  20.4659988 107.8522830  65.9796841  21.1934134
  98.6580012  66.7294997  32.9659988  98.7290012  67.3804997  33.6639988
  97.7680012  66.8324997  32.6309988  98.5473117  66.8325936  33.0162700
 105.4440012  72.6324997  24.6239988 105.9180012  72.9274997  25.4019988
 104.8810012  73.3704997  24.3909988 105.4327653  72.7726932  24.6990136
  99.9780012  72.6034997  34.4999988  99.9850012  72.4674997  33.5529988
  99.0620012  72.4854997  34.7519988  99.8551714  72.5689430  34.4044666
 111.4160012  57.6454997  21.0019988 110.5160012  57.7844997  21.2969988
 111.6680012  58.4764997  20.5999988 111.3268702  57.7769074  20.9880205
  99.4820012  66.4334997  22.9759988  99.1900012  67.2014997  22.4849988
  98.8080012  65.7734997  22.8129988  99.3509081  66.4494406  22.8867340
 112.6050012  72.0114997  19.3779988 112.6790012  72.9504997  19.5489988
 113.5110012  71.7064997  19.3219988 112.7375100  72.0986722  19.3938119
 113.5230012  72.2424997  34.3569988 113.4740012  71.2874997  34.3199988
 112.6960012  72.5104997  34.7579988 113.4044940  72.1478998  34.4061375
 104.5020012  71.8164997  33.2329988 104.5890012  72.6424997  33.7079988
 103.6380012  71.4864997  33.4819988 104.3971964  71.8849878  33.3316549
 104.9160012  75.5884997  23.0389988 104.8410012  75.4674997  22.0929988
 104.9490012  76.5384997  23.1579988 104.9101848  75.7002500  22.9254834
  98.5690012  74.3774997  24.8199988  98.7220012  74.0294997  25.6989988
  97.7190012  74.0214997  24.5649988  98.4748962  74.2816650  24.9058340
 108.0180012  74.7424997  20.0409988 108.3930012  73.9984997  19.5709988
 108.0220012  74.4724997  20.9599988 108.0698915  74.6041486  20.1007824
 107.6870012  74.6684997  22.7909988 106.7510012  74.7684997  22.9689988
 107.9670012  73.9594997  23.3689988 107.5968255  74.5862711  22.8935391
 110.6750012  63.7354997  34.8369988 110.2680012  64.2164997  34.1159988
 110.7160012  62.8304997  34.5289988 110.6248437  63.6789374  34.6966683
 100.4430012  58.5894997  28.8289988  99.5810012  58.5024997  28.4219988
 100.4200012  59.4454997  29.2569988 100.3220330  58.6932765  28.8311863
 105.1060012  58.3114997  32.2039988 105.5260012  57.8964997  32.9569988
 104.1730012  58.1334997  32.3209988 105.0373644  58.2305900  32.3229539
 108.4320012  62.0674997  33.0569988 107.9180012  61.9414997  33.8549988
 108.2770012  62.9794997  32.8129988 108.3406852  62.1736132  33.1332158
 109.1950012  66.9284997  18.8189988 109.2370012  66.7054997  17.8889988
 110.0440012  67.3274997  19.0089988 109.3155396  66.9519155  18.7173627
 104.7670012  60.8044997  19.4889988 104.5140012  60.8234997  20.4119988
 104.5110012  59.9324997  19.1879988 104.6977790  60.6892437  19.5746263
 100.5340012  63.5554997  29.9239988  99.8920012  63.5144997  30.6329988
 100.5710012  64.4814997  29.6869988 100.4511324  63.6751559  29.9889824
 100.5310012  63.7764997  24.8359988  99.6380012  63.4354997  24.7779988
 100.9810012  63.3994997  24.0809988 100.4697305  63.6788484  24.7259177
 106.0660012  64.1924997  23.6529988 105.6570012  65.0074997  23.3619988
 106.7870012  64.0524997  23.0389988 106.1074537  64.2852018  23.5301342
 105.1680012  64.3674997  35.1409988 104.6060012  63.6634997  35.4619988
 105.9950012  64.2474997  35.6089988 105.2027095  64.2547883  35.2482330
 107.0710012  63.6384997  26.4669988 106.8760012  64.2434997  25.7519988
 107.2520012  62.8044997  26.0329988 107.0687614  63.6086300  26.3104405
  98.2840012  63.8754997  31.7909988  98.2460012  64.2754997  32.6599988
  97.7930012  63.0584997  31.8819988  98.2124684  63.8198069  31.9221059
 101.6500012  61.2494997  18.5899988 101.2190012  60.8044997  19.3199988
 100.9320012  61.6214997  18.0779988 101.4939438  61.2388940  18.6206799
  94.8920012  60.9914997  25.6419988  95.5230012  60.9624997  26.3609988
  95.3410012  60.5664997  24.9119988  95.0390774  60.9300492  25.6416553
  96.1660012  61.7374997  21.0659988  96.6400012  62.3284997  20.4809988
  95.4490012  62.2684997  21.4129988  96.1339341  61.8900867  21.0328836
 106.3350012  65.2764997  31.1389988 106.6580012  64.6454997  30.4959988
 105.8950012  64.7414997  31.7989988 106.3196895  65.1178441  31.1402850
 103.1120012  61.2034997  25.9229988 102.2010012  61.2604997  26.2109988
 103.6180012  61.1434997  26.7329988 103.0555413  61.2031985  26.0720622
  97.9410012  62.8324997  24.7489988  97.0510012  62.9324997  24.4089988
  98.2370012  61.9904997  24.4029988  97.8592823  62.7323545  24.6557213
 101.5940012  62.8324997  22.4059988 102.5250012  62.9614997  22.5839988
 101.3790012  63.5024997  21.7559988 101.6924247  62.9406565  22.3425747
 107.5170012  60.4384997  29.1869988 106.8410012  60.5694997  29.8509988
 107.0320012  60.2834997  28.3769988 107.3587145  60.4354905  29.1684517
 100.2680012  64.0274997  19.9729988  99.7250012  63.6474997  19.2809988
 101.1010012  64.2214997  19.5439988 100.3064399  64.0018124  19.8204526
 110.8050012  76.1104997  35.4639988 111.0050012  76.5344997  34.6289988
 111.4600012  76.4534997  36.0709988 110.9210051  76.2149648  35.4317836
 104.4320012  63.9914997  27.8099988 104.9970012  63.4444997  27.2629988
 104.2850012  63.4694997  28.5979988 104.4892918  63.8462024  27.8418454
  99.4340012  60.1274997  24.2279988  99.1170012  59.2254997  24.1929988
 100.2160012  60.1294997  23.6749988  99.4962284  60.0041628  24.1484783
 103.0590012  62.3794997  30.2239988 102.2230012  62.8334997  30.3339988
 103.5830012  62.6554997  30.9759988 103.0154414  62.4789376  30.3407136
 103.6030012  68.5924997  21.9079988 102.8580012  68.0854997  21.5859988
 103.4690012  68.6414997  22.8549988 103.4828776  68.5296940  21.9918647
 110.7530012  67.7254997  30.6949988 111.3950012  68.1824997  30.1509988
 109.9230012  67.8384997  30.2319988 110.7285963  67.8032704  30.5580177
 107.5010012  61.4064997  20.1079988 106.5620012  61.5184997  19.9559988
 107.7980012  62.2634997  20.4139988 107.4127666  61.5376443  20.1285768
 105.1220012  68.7764997  33.1449988 104.7770012  68.3954997  33.9519988
 104.9220012  69.7104997  33.2169988 105.0478061  68.8505228  33.2650961
 108.2190012  63.2734997  21.7679988 109.1110012  63.1364997  22.0869988
 108.2760012  64.0644997  21.2319988 108.3486285  63.3616660  21.7391691
  98.7280012  67.8874997  27.6779988  99.4730012  67.8854997  27.0769988
  98.8060012  67.0644997  28.1599988  98.8405518  67.7759315  27.6608929
 105.7290012  70.0514997  20.9339988 105.4330012  70.8774997  21.3149988
 105.0260012  69.4314997  21.1299988 105.5934914  70.0808199  21.0126443
 102.7520012  65.8654997  35.2059988 102.4560012  65.6994997  34.3109988
 103.6840012  65.6454997  35.1949988 102.8374166  65.8130640  35.0820536
 107.3730012  71.2384997  33.0959988 106.4720012  71.4214997  32.8279988
 107.4070012  71.4974997  34.0169988 107.2543041  71.2985512  33.1838197
 113.1040012  63.4834997  21.4629988 112.5500012  63.0874997  20.7909988
 113.2040012  64.3934997  21.1849988 113.0417059  63.5523586  21.3334401
 113.0670012  69.2834997  34.2999988 112.2160012  69.5214997  33.9329988
 113.6580012  69.2664997  33.5469988 113.0302487  69.3138258  34.1478893
 111.3990012  72.2694997  21.9279988 111.0260012  71.4434997  22.2369988
 111.6770012  72.0864997  21.0309988 111.3855630  72.1317303  21.8489626
 108.5600012  67.0774997  28.9489988 107.6310012  66.8454997  28.9219988
 109.0110012  66.3004997  28.6189988 108.4939216  66.9407238  28.9006917
 101.1030012  71.4054997  25.0819988 101.6300012  72.1784997  24.8819988
 100.2230012  71.6304997  24.7809988 101.0561773  71.5418005  25.0139010
  96.8580012  66.2674997  19.6689988  97.4740012  66.8944997  20.0489988
  95.9960012  66.5834997  19.9409988  96.8257698  66.3959430  19.7577183
 102.5300012  69.0684997  24.6589988 102.2890012  69.9934997  24.6999988
 101.7890012  68.6094997  25.0549988 102.3968409  69.1331421  24.7181377
 103.0450012  73.2174997  30.9739988 103.4070012  74.0724997  30.7399988
 103.5760012  72.9254997  31.7139988 103.1664473  73.2951060  31.0420855
 101.2130012  74.0904997  24.2039988 100.2630012  74.1954997  24.2549988
 101.5650012  74.9104997  24.5489988 101.1304203  74.2158314  24.2576650
 106.5890012  69.3164997  30.6739988 106.1630012  69.0894997  31.5009988
 107.1690012  68.5784997  30.4919988 106.6091868  69.1855299  30.7625830
 108.7920012  70.2454997  19.7479988 109.1450012  69.8654997  20.5529988
 107.8430012  70.1524997  19.8349988 108.7120441  70.1809596  19.8698559
 109.2470012  73.8684997  33.1439988 108.6460012  73.3134997  32.6479988
 109.5290012  74.5354997  32.5179988 109.2028519  73.8826841  32.9914952
 113.2950012  74.7254997  19.9489988 114.0390012  75.3114997  19.8089988
 112.6010012  75.2934997  20.2829988 113.3030292  74.8825582  19.9749961
  97.3700012  61.1014997  32.5509988  96.4770012  61.4404997  32.4829988
  97.2710012  60.2464997  32.9689988  97.2344164  61.0322588  32.5982235
 109.6580012  68.9184997  21.9749988 109.3800012  68.1904997  22.5309988
 110.5850012  69.0374997  22.1799988 109.7453124  68.8348802  22.0788845
 102.8830012  71.3574997  18.1949988 103.1220012  70.6094997  17.6479988
 102.6140012  70.9694997  19.0279988 102.8793675  71.2026638  18.2326865
 101.8200012  70.9274997  20.6519988 101.9660012  70.4074997  21.4419988
 101.8170012  71.8344997  20.9579988 101.8395989  70.9788853  20.8016088
  98.2730012  68.1804997  21.1619988  97.5870012  68.5324997  21.7289988
  98.7950012  68.9434997  20.9149988  98.2496852  68.3318578  21.2062118
 106.1040012  60.8424997  31.4409988 106.8030012  60.9164997  32.0909988
 105.7230012  59.9784997  31.5949988 106.1481767  60.7357624  31.5508322
 106.8890012  60.4944997  22.5379988 107.1090012  60.9664997  21.7349988
 107.4470012  60.8894997  23.2079988 106.9944968  60.6124285  22.5187331
 104.5570012  72.6254997  21.4009988 103.7410012  73.1224997  21.4529988
 105.0870012  73.1004997  20.7609988 104.5169161  72.7577722  21.3215956
 104.0890012  62.2224997  23.3729988 104.9010012  62.7274997  23.4189988
 103.8440012  62.0774997  24.2869988 104.1670520  62.2720375  23.5028517
 104.6240012  63.2084997  32.5579988 104.7430012  63.7824997  33.3149988
 105.2800012  62.5204997  32.6719988 104.7289757  63.1941079  32.6770825
 104.9720012  59.3034997  24.3109988 104.6260012  59.9214997  24.9559988
 105.6310012  59.8044997  23.8299988 105.0137826  59.4555802  24.3340971
 101.8960012  73.6694997  21.3829988 102.0560012  74.4684997  20.8819988
 101.6980012  73.9754997  22.2679988 101.8911649  73.8204469  21.4339815
 100.6300012  60.3664997  20.9979988 100.5470012  61.2554997  21.3449988
 101.5200012  60.1014997  21.2299988 100.7389469  60.4521430  21.0767626
 110.8290012  61.1154997  33.3929988 109.9120012  61.3784997  33.3049988
 111.1640012  61.1124997  32.4959988 110.7489900  61.1510224  33.2597919
 109.4310012  64.8664997  27.4879988 108.6330012  64.4514997  27.1599988
 109.8760012  64.1754997  27.9789988 109.3819885  64.7163543  27.5094889
  98.8890012  70.7944997  20.0589988  99.4810012  71.4934997  20.3349988
  99.3480012  70.3614997  19.3389988  99.0321142  70.8317049  19.9994830
  97.2050012  63.4584997  19.1749988  97.1600012  64.3974997  19.3529988
  96.3170012  63.2224997  18.9049988  97.0788574  63.5551892  19.1628912
 110.5170012  74.1224997  29.1109988 110.3620012  74.8004997  28.4539988
 111.4500012  74.1944997  29.3139988 110.6218500  74.2250170  29.0485119
  98.0130012  58.2404997  27.8479988  97.7840012  58.2994997  26.9199988
  97.5700012  57.4484997  28.1539988  97.9218530  58.1415753  27.7624786
  96.9430012  72.1804997  24.0079988  96.1110012  72.6534997  24.0359988
  97.4890012  72.6904997  23.4099988  96.9029739  72.3141871  23.9309716
 100.8290012  73.7124997  36.9589988 101.5960012  73.2534997  37.2999988
 100.8070012  73.4864997  36.0289988 100.9311434  73.6190409  36.8800043
 104.9210012  73.2204997  18.3339988 104.2770012  72.5894997  18.6549988
 105.6830012  72.6894997  18.1019988 104.9358077  73.0622920  18.3466011
 107.4060012  72.0924997  35.6879988 107.0550012  71.2364997  35.9309988
 108.1320012  72.2354997  36.2949988 107.4560769  71.9945636  35.8033619
 109.5250012  73.0374997  18.5679988 109.8080012  72.2434997  19.0199988
 110.2650012  73.2704997  18.0069988 109.6637486  72.9602803  18.5540698
 100.4800012  68.9474997  18.4249988 100.5440012  68.1534997  18.9559988
 101.1330012  68.8284997  17.7349988 100.5770241  68.8227148  18.4044317
 102.7940012  68.5734997  35.7249988 102.4650012  68.8444997  34.8679988
 102.9460012  67.6324997  35.6379988 102.7694809  68.4833862  35.5958244
 105.8320012  69.9944997  18.1609988 105.5630012  70.1744997  19.0619988
 105.6260012  69.0684997  18.0299988 105.7673825  69.8940152  18.2665214
 108.5280012  68.4894997  33.1089988 109.2740012  69.0774997  32.9889988
 107.7710012  69.0714997  33.1719988 108.5277554  68.6487011  33.1010907
 101.6290012  66.9194997  20.7309988 101.1690012  66.4354997  21.4169988
 101.8840012  66.2514997  20.0949988 101.6004902  66.7628731  20.7389334
 100.9180012  64.8124997  33.0869988 100.3000012  65.4874997  33.3669988
 101.2620012  65.1334997  32.2539988 100.8799615  64.9482721  33.0126581
 102.7000012  65.1624997  18.9929988 102.5200012  65.0084997  18.0659988
 103.6500012  65.2704997  19.0379988 102.8037776  65.1560175  18.8721843
 105.9380012  67.2844997  36.3639988 106.8910012  67.3674997  36.3369988
 105.7770012  66.5724997  36.9839988 106.0466426  67.1996746  36.4440579
 112.0900012  67.5174997  18.4389988 111.8160012  67.0924997  17.6259988
 112.1290012  68.4484997  18.2219988 112.0577699  67.5852484  18.2983610
 101.2570012  62.1674997  34.1689988 101.4070012  61.4384997  33.5669988
 101.2600012  62.9444997  33.6099988 101.2779302  62.1727851  34.0110692
 101.6700012  60.5374997  31.6619988 102.2060012  60.9884997  31.0099988
 100.8180012  60.4294997  31.2389988 101.6282178  60.5846390  31.5155756
 103.2520012  65.9764997  31.9009988 104.0020012  65.8204997  31.3279988
 102.9130012  66.8284997  31.6259988 103.3088921  66.0702968  31.7853561
 107.6670012  63.7914997  36.9299988 107.8600012  62.8604997  36.8179988
 108.5250012  64.2164997  36.9199988 107.8093020  63.7216389  36.9133361
 108.9840012  66.5804997  35.0069988 108.7030012  67.2894997  34.4299988
 109.9270012  66.5074997  34.8559988 109.0729027  66.6677646  34.9075551
  99.7360012  63.3654997  36.0809988  98.9690012  62.8334997  35.8709988
 100.4150012  63.0554997  35.4809988  99.7227022  63.2507506  35.9711648
 102.4760012  57.9934997  32.0929988 102.3770012  58.9404997  31.9879988
 101.7330012  57.6214997  31.6179988 102.3620564  58.0725902  32.0144560
 103.7400012  62.3154997  35.6569988 103.5040012  62.0954997  36.5589988
 102.9560012  62.1084997  35.1469988 103.6018628  62.2574760  35.7113932
 106.4550012  61.4424997  34.7329988 105.5080012  61.4744997  34.8649988
 106.7680012  60.8174997  35.3859988 106.3675475  61.3623207  34.8394455
 108.0890012  60.0764997  36.7379988 107.9930012  59.1244997  36.7319988
 107.7680012  60.3454997  37.5979988 108.0324070  59.9824035  36.8535441
  97.9160012  61.2864997  35.7849988  98.1280012  60.5794997  35.1749988
  97.8050012  60.8484997  36.6289988  97.9299721  61.1307084  35.8156843
 102.6970012  57.2874997  34.7649988 103.4090012  56.6474997  34.7509988
 102.5960012  57.5544997  33.8509988 102.7807939  57.2359938  34.6395650
 103.0510012  58.9704997  36.8179988 102.9190012  58.4944997  35.9979988
 102.4520012  59.7144997  36.7629988 102.9519071  59.0059618  36.6982886
 102.5970012  75.8534997  19.9949988 103.5300012  76.0114997  20.1379988
 102.3330012  76.5284997  19.3699988 102.6889510  75.9663611  19.9300741
  96.1660012  70.4894997  19.4769988  97.0800012  70.5684997  19.7509988
  96.1730012  69.8024997  18.8109988  96.2921131  70.4073961  19.4244393
  94.8150012  75.8824997  24.5549988  94.1680012  75.4204997  24.0219988
  95.1690012  75.2104997  25.1369988  94.7743849  75.7284723  24.5607959
  95.6850012  73.9634997  26.3589988  95.3500012  73.0834997  26.5309988
  95.9070012  74.3084997  27.2239988  95.6691783  73.8897500  26.4994208
 113.2330012  74.7724997  29.3399988 113.2120012  74.9574997  30.2789988
 113.9240012  75.3414997  28.9989988 113.3234618  74.8746606  29.4223864
 112.7970012  74.3404997  32.2619988 112.3090012  73.6044997  31.8909988
 113.3460012  73.9464997  32.9399988 112.8044872  74.1866249  32.3029160
 111.2470012  70.1294997  36.8999988 110.3810012  70.0244997  37.2939988
 111.6240012  70.8884997  37.3459988 111.1793308  70.2176900  37.0142393
 112.5480012  68.3864997  22.4139988 113.3980012  68.8074997  22.5409988
 112.5540012  67.6464997  23.0209988 112.6651372  68.3440803  22.5134344
 112.9430012  66.4394997  24.2379988 112.2160012  65.9604997  24.6349988
 113.5240012  66.6454997  24.9699988 112.9219375  66.4017090  24.3914129
 112.7020012  69.2244997  29.1849988 113.5350012  68.8464997  28.9049988
 112.8140012  70.1674997  29.0659988 112.8312647  69.3002218  29.1305487
 111.1880012  72.1024997  31.4919988 110.5410012  72.4274997  32.1179988
 110.6710012  71.6624997  30.8179988 111.0294029  72.0875004  31.4865827
 113.2110012  66.3404997  20.6289988 112.6890012  66.6974997  19.9099988
 113.1780012  67.0154997  21.3069988 113.1351634  66.4805413  20.6223145
 111.5600012  63.5804997  19.1799988 111.6560012  64.2474997  18.4989988
 111.4200012  62.7644997  18.6979988 111.5542135  63.5614500  19.0218491
 110.7290012  64.9604997  24.8009988 110.5790012  64.0154997  24.7799988
 110.3760012  65.2414997  25.6439988 110.6606625  64.8690441  24.9122346
  95.7650012  67.0384997  28.8109988  95.9490012  66.9564997  27.8749988
  96.6140012  66.9144997  29.2349988  95.9050139  67.0105003  28.7401455
 111.5860012  66.9304997  34.4389988 112.1690012  66.1964997  34.6309988
 112.1500012  67.7024997  34.4859988 111.7419769  66.9344227  34.4716159
 113.0820012  64.8334997  35.1239988 112.2190012  64.4544997  34.9579988
 113.6870012  64.0944997  35.0499988 113.0455979  64.6818023  35.0912817
 110.8070012  60.9884997  18.2969988 111.4180012  60.6174997  18.9339988
 109.9710012  60.5674997  18.4929988 110.7775032  60.8807554  18.4107035
 110.4400012  62.5434997  23.2629988 110.7200012  61.6364997  23.3869988
 111.1990012  62.9774997  22.8739988 110.5809277  62.4780942  23.2273682
 111.0520012  63.1244997  28.6989988 111.9850012  63.3364997  28.6649988
 110.8170012  63.2264997  29.6209988 111.1478036  63.1672769  28.8189976
 111.0810012  63.8614997  31.4749988 110.2380012  64.1294997  31.8409988
 111.5230012  64.6834997  31.2639988 111.0254158  64.0093291  31.4965491
 113.3640012  57.8414997  36.8279988 113.7140012  57.1874997  36.2229988
 113.5110012  58.6784997  36.3889988 113.4318419  57.8651591  36.6857118
 111.0530012  59.8064997  23.3109988 111.2360012  59.3574997  24.1369988
 110.4540012  59.2214997  22.8479988 110.9970202  59.6659975  23.3613275
  96.5830012  60.6214997  27.8429988  97.0290012  59.8294997  28.1449988
  97.0500012  61.3374997  28.2739988  96.7070172  60.6100624  27.9424820
  94.8870012  63.6204997  28.9119988  95.3790012  63.3994997  28.1209988
  95.2500012  64.4614997  29.1929988  95.0033126  63.7038357  28.8417531
 112.8840012  59.9504997  35.1779988 111.9660012  60.2214997  35.1419988
 113.0070012  59.4154997  34.3929988 112.7751066  59.9152892  35.0670487
 112.9200012  59.8734997  19.8389988 113.3320012  59.1524997  19.3639988
 113.6020012  60.5434997  19.8979988 113.0685885  59.8652368  19.7818915
  95.2010012  59.8784997  22.9659988  94.2760012  60.0874997  22.8369988
  95.6550012  60.3624997  22.2769988  95.1357368  59.9725993  22.8551226
 109.9720012  74.8624997  24.9119988 110.6240012  74.5154997  24.3039988
 110.4820012  75.3514997  25.5579988 110.1302637  74.8810597  24.9160236
  95.1650012  58.6164997  31.3109988  94.5000012  58.3704997  31.9539988
  94.7220012  59.2384997  30.7329988  95.0140956  58.6668632  31.3209352
 100.3110012  72.7664997  31.7139988  99.8860012  73.5754997  31.4309988
 101.2150012  72.8514997  31.4119988 100.3750271  72.8888469  31.6343776
 104.6220012  74.1654997  34.6729988 104.8070012  73.8314997  35.5509988
 105.4680012  74.4744997  34.3509988 104.7617539  74.1616047  34.7495605
 106.9670012  75.4514997  33.9169988 107.6440012  74.8184997  33.6769988
 107.2890012  75.8524997  34.7239988 107.1031637  75.4191154  33.9932793
 111.8840012  58.0404997  32.9969988 111.0720012  58.3654997  32.6089988
 112.1170012  57.2804997  32.4639988 111.8043423  57.9822436  32.8718253
 100.1800012  75.6224997  30.7909988  99.3150012  75.6944997  31.1949988
 100.1250012  76.1694997  30.0069988 100.0542085  75.7062685  30.7403362
 104.8900012  75.5104997  29.9659988 104.4340012  76.0394997  29.3119988
 105.0530012  76.1134997  30.6919988 104.8495585  75.6644468  29.9745062
 107.2180012  74.3884997  30.9109988 106.3130012  74.5534997  30.6459988
 107.6470012  75.2414997  30.8459988 107.1520799  74.5264483  30.8659182
 109.8220012  75.9584997  31.2059988 109.6400012  76.8744997  30.9959988
 109.9990012  75.5484997  30.3599988 109.8210210  76.0284822  31.0627885
  97.1270012  74.6454997  28.6709988  97.1090012  74.2204997  29.5289988
  97.9320012  74.3274997  28.2629988  97.2333875  74.5443812  28.7331655
  99.2690012  73.3554997  27.3259988  99.0500012  72.4394997  27.4959988
 100.0930012  73.4954997  27.7919988  99.3504420  73.2490520  27.4122774
 101.8060012  73.8254997  28.1749988 102.0190012  72.9374997  27.8879988
 101.8700012  73.7914997  29.1289988 101.8438232  73.6993102  28.2647397
 105.3140012  59.4894997  27.3189988 104.6400012  58.8604997  27.5749988
 105.8780012  59.0054997  26.7159988 105.2979230  59.3378744  27.2725340
 110.4570012  57.5974997  27.4319988 111.0610012  58.1444997  26.9299988
 109.5870012  57.9164997  27.1919988 110.4221241  57.7155806  27.3307654
 112.1840012  58.7354997  25.7649988 112.7960012  58.2214997  25.2389988
 112.5660012  59.6134997  25.7889988 112.3194540  58.7837140  25.6961830
  97.6410012  58.1234997  25.1409988  96.8640012  57.8894997  24.6339988
  98.1710012  57.3264997  25.1499988  97.6062330  57.9836988  25.0727742
  96.4770012  57.9214997  20.9449988  96.9160012  58.5324997  20.3529988
  95.8440012  58.4594997  21.4189988  96.4514514  58.0779257  20.9280930
 102.2200012  58.0504997  24.9549988 103.0950012  58.4384997  24.9249988
 102.0840012  57.8354997  25.8769988 102.3213695  58.0745184  25.0756440
 107.7770012  58.0804997  26.6039988 107.8530012  58.1754997  25.6539988
 107.5020012  57.1724997  26.7329988 107.7502321  57.9707867  26.4915079
 109.1300012  58.1064997  22.2959988 108.4280012  58.7214997  22.0869988
 108.6860012  57.2684997  22.4269988 108.9736330  58.0775783  22.2850328
  96.3780012  73.8694997  21.8429988  95.6930012  73.8314997  21.1749988
  96.3820012  74.7824997  22.1309988  96.2848193  73.9877016  21.7905284
  98.3380012  59.8374997  19.3869988  98.8300012  59.2074997  18.8599988
  98.9620012  60.1334997  20.0509988  98.4895446  59.7913199  19.4045980
 103.3640012  60.1304997  21.8439988 103.5420012  59.4844997  22.5269988
 103.3110012  60.9644997  22.3119988 103.3811829  60.1547985  22.0005940
 105.2430012  75.0794997  20.2399988 106.1090012  75.4454997  20.0619988
 104.9960012  74.6394997  19.4259988 105.3282392  75.0701756  20.1056289
 111.9520012  74.6424997  22.9189988 111.7570012  73.8944997  22.3539988
 111.9130012  75.4004997  22.3359988 111.9200380  74.6426099  22.7628384
  97.5990012  58.6374997  34.6589988  97.2330012  57.8724997  35.1019988
  98.5120012  58.6664997  34.9459988  97.6722790  58.5367224  34.7584070
  99.5720012  57.9884997  36.1949988 100.4700012  57.7144997  36.0099988
  99.1850012  57.2454997  36.6589988  99.6426612  57.8505914  36.2323643
  98.1960012  74.7894997  18.8679988  97.9290012  75.0764997  19.7409988
  98.9680012  74.2434997  19.0199988  98.2637488  74.7550294  19.0081050
 107.9930012  57.3204997  36.3769988 108.0700012  56.8944997  37.2309988
 108.8870012  57.3344997  36.0339988 108.1243428  57.2640879  36.4475310
 111.1690012  73.3934997  35.0689988 110.3870012  73.2074997  34.5499988
 111.0970012  74.3224997  35.2869988 111.0521777  73.4936492  35.0274048
 125.5750012  67.2794997  25.0999988 125.6640012  68.2234997  24.9679988
 124.9370012  67.0044997  24.4419988 125.5009081  67.3714830  24.9929614
 124.5080012  66.5344997  28.5189988 124.4700012  65.8884997  29.2239988
 124.1860012  66.0684997  27.7479988 124.4592333  66.3829408  28.5112978
 116.8770012  66.1494997  30.1119988 116.9180012  65.5234997  30.8349988
 117.5800012  66.7734997  30.2939988 116.9776363  66.1481196  30.2356044
 128.2140012  69.4734997  26.8199988 127.7740012  68.7534997  27.2709988
 128.2010012  70.1944997  27.4499988 128.1520226  69.4723731  26.9668494
 117.8000012  70.5994997  28.6469988 117.4310012  69.7974997  28.2769988
 118.7410012  70.4304997  28.6929988 117.8767289  70.4670153  28.6026316
 114.4100012  64.2594997  24.0399988 113.9630012  65.1054997  24.0209988
 113.8490012  63.6794997  23.5239988 114.2729900  64.2969916  23.9676801
 115.1210012  66.4214997  26.1659988 115.3340012  65.6514997  26.6929988
 115.8590012  66.5104997  25.5619988 115.2498496  66.3281394  26.1565300
 125.3260012  74.5784997  27.0329988 125.9460012  73.9014997  26.7589988
 125.1180012  74.3604997  27.9409988 125.3826904  74.4563870  27.1183365
 122.8980012  68.9674997  28.9249988 123.2020012  68.2814997  28.3299988
 123.6190012  69.0854997  29.5429988 123.0370671  68.8896304  28.9271816
 131.5610012  60.5684997  29.7859988 131.6100012  61.1784997  30.5219988
 131.9860012  61.0294997  29.0629988 131.6251824  60.7143741  29.7890205
 126.0390012  63.3614997  29.2529988 126.1810012  62.4154997  29.2729988
 125.9320012  63.5684997  28.3239988 126.0439864  63.2599534  29.1302339
 119.1930012  61.4624997  26.5249988 119.2370012  62.3224997  26.1069988
 118.7360012  60.9104997  25.8909988 119.1372185  61.5055799  26.3820299
 126.9160012  61.5934997  24.9259988 127.5620012  61.2644997  25.5509988
 127.4260012  62.1114997  24.3029988 127.0734264  61.6184611  24.9273862
 115.8140012  63.8594997  27.2869988 116.4670012  63.3094997  27.7189988
 115.8380012  63.5854997  26.3699988 115.9066683  63.7471466  27.2222123
 120.9700012  65.4094997  26.5019988 121.5860012  64.8834997  27.0119988
 120.3840012  64.7694997  26.0989988 120.9750810  65.2509208  26.5173173
 131.9520012  62.0464997  32.0219988 131.2640012  62.7044997  31.9259988
 131.9680012  61.8494997  32.9579988 131.8598525  62.1100462  32.1354808
 118.0040012  60.3804997  30.5989988 117.7850012  60.9104997  29.8329988
 117.3360012  60.6074997  31.2459988 117.8837600  60.4836906  30.5816379
 125.3730012  69.8804997  24.1429988 125.0770012  69.5584997  23.2919988
 125.0480012  70.7804997  24.1839988 125.2886371  69.9580215  24.0321801
 120.5730012  68.0564997  30.8859988 119.8330012  68.6544997  30.9899988
 121.2870012  68.6104997  30.5709988 120.5682237  68.2132831  30.8576465
 128.6800012  60.8844997  26.9059988 128.4640012  60.1184997  27.4389988
 129.3350012  61.3564997  27.4189988 128.7390632  60.8435889  27.0482861
 117.5970012  62.2724997  28.5509988 118.2110012  62.9054997  28.9249988
 118.1090012  61.8004997  27.8949988 117.7502296  62.2952370  28.5134252
 118.9800012  70.0204997  31.6739988 118.9750012  70.9004997  31.2959988
 118.1270012  69.9374997  32.0989988 118.8639464  70.1296117  31.6797907
 115.1010012  69.6914997  22.4559988 114.8290012  69.9204997  21.5669988
 115.1470012  70.5294997  22.9159988 115.0700094  69.8361213  22.3965697
 128.7260012  71.3134997  29.1679988 127.7850012  71.3714997  29.3299988
 129.0030012  72.2194997  29.0309988 128.6344679  71.4439443  29.1716815
 129.0270012  59.5994997  30.5859988 128.2910012  60.2104997  30.5479988
 129.7100012  60.0144997  30.0589988 129.0186541  59.7391374  30.5095832
 122.0300012  57.6864997  28.0519988 121.9130012  56.7374997  27.9969988
 121.1750012  58.0184997  28.3249988 121.8983733  57.6015409  28.0813897
 126.9780012  73.0944997  25.7939988 127.4040012  72.3874997  25.3089988
 127.2950012  73.8954997  25.3769988 127.0791019  73.1060994  25.6713130
 128.1380012  70.9954997  24.3019988 127.8800012  70.3054997  23.6909988
 128.2090012  70.5524997  25.1479988 128.1122856  70.8412124  24.3326885
 129.8240012  69.5614997  32.7799988 129.9640012  68.9704997  32.0399988
 129.9910012  70.4344997  32.4229988 129.8656778  69.5986426  32.6306965
 124.2970012  66.5234997  22.5519988 123.5850012  67.0584997  22.1999988
 124.9880012  66.5794997  21.8919988 124.2930132  66.6042543  22.4146289
 124.3500012  64.9814997  19.5909988 125.0510012  65.0034997  20.2419988
 124.6530012  64.3534997  18.9349988 124.4867830  64.8996566  19.5913711
 131.6660012  65.9014997  30.8459988 131.0130012  66.5964997  30.9349988
 132.1310012  66.1114997  30.0359988 131.6395390  66.0249425  30.7486883
 127.7020012  66.7334997  23.5039988 126.9700012  66.9614997  24.0769988
 128.1500012  66.0194997  23.9589988 127.6623095  66.6682571  23.6439119
 127.6000012  64.9074997  32.5709988 127.6800012  65.6704997  33.1429988
 126.9980012  65.1864997  31.8809988 127.5295756  65.0497134  32.5560589
 119.3480012  67.3634997  25.3859988 119.0170012  66.9934997  24.5679988
 119.9360012  66.6934997  25.7329988 119.3821873  67.2221156  25.3208102
 120.7140012  70.7914997  28.0679988 120.6200012  70.2134997  27.3109988
 121.4440012  70.4204997  28.5639988 120.7997981  70.6622390  28.0314165
 119.7140012  66.1324997  29.0199988 120.2800012  66.2534997  28.2569988
 120.0330012  66.7694997  29.6589988 119.8345786  66.2351884  29.0020040
 126.0230012  71.6354997  29.7539988 125.7830012  72.2974997  30.4019988
 125.8250012  70.8014997  30.1789988 125.9633808  71.6133134  29.9001524
 120.5940012  70.5314997  33.7369988 120.2830012  71.3134997  34.1919988
 119.9440012  70.3784997  33.0509988 120.4635558  70.6179105  33.7065871
 126.5730012  65.8954997  21.1889988 127.1530012  66.0454997  21.9359988
 126.9870012  66.3664997  20.4659988 126.7082830  65.9796841  21.1934134
 117.5140012  66.7294997  32.9659988 117.5850012  67.3804997  33.6639988
 116.6240012  66.8324997  32.6309988 117.4033117  66.8325936  33.0162700
 124.3000012  72.6324997  24.6239988 124.7740012  72.9274997  25.4019988
 123.7370012  73.3704997  24.3909988 124.2887653  72.7726932  24.6990136
 118.8340012  72.6034997  34.4999988 118.8410012  72.4674997  33.5529988
 117.9180012  72.4854997  34.7519988 118.7111714  72.5689430  34.4044666
 130.2720012  57.6454997  21.0019988 129.3720012  57.7844997  21.2969988
 130.5240012  58.4764997  20.5999988 130.1828702  57.7769074  20.9880205
 118.3380012  66.4334997  22.9759988 118.0460012  67.2014997  22.4849988
 117.6640012  65.7734997  22.8129988 118.2069081  66.4494406  22.8867340
 131.4610012  72.0114997  19.3779988 131.5350012  72.9504997  19.5489988
 132.3670012  71.7064997  19.3219988 131.5935100  72.0986722  19.3938119
 114.4310012  68.7964997  31.7909988 113.9300012  68.7684997  30.9759988
 114.4360012  67.8904997  32.0999988 114.3631526  68.6702278  31.7212872
 114.1810012  71.5764997  28.6749988 115.1270012  71.4324997  28.6559988
 114.0690012  72.3604997  29.2119988 114.2952727  71.6628046  28.7450072
 132.3790012  72.2424997  34.3569988 132.3300012  71.2874997  34.3199988
 131.5520012  72.5104997  34.7579988 132.2604940  72.1478998  34.4061375
 123.3580012  71.8164997  33.2329988 123.4450012  72.6424997  33.7079988
 122.4940012  71.4864997  33.4819988 123.2531964  71.8849878  33.3316549
 123.7720012  75.5884997  23.0389988 123.6970012  75.4674997  22.0929988
 123.8050012  76.5384997  23.1579988 123.7661848  75.7002500  22.9254834
 117.4250012  74.3774997  24.8199988 117.5780012  74.0294997  25.6989988
 116.5750012  74.0214997  24.5649988 117.3308962  74.2816650  24.9058340
 126.8740012  74.7424997  20.0409988 127.2490012  73.9984997  19.5709988
 126.8780012  74.4724997  20.9599988 126.9258915  74.6041486  20.1007824
 126.5430012  74.6684997  22.7909988 125.6070012  74.7684997  22.9689988
 126.8230012  73.9594997  23.3689988 126.4528255  74.5862711  22.8935391
 129.5310012  63.7354997  34.8369988 129.1240012  64.2164997  34.1159988
 129.5720012  62.8304997  34.5289988 129.4808437  63.6789374  34.6966683
 116.6800012  70.1194997  32.8339988 116.8960012  69.7584997  33.6929988
 115.8250012  69.7454997  32.6239988 116.5939292  70.0194111  32.9233386
 119.2990012  58.5894997  28.8289988 118.4370012  58.5024997  28.4219988
 119.2760012  59.4454997  29.2569988 119.1780330  58.6932765  28.8311863
 123.9620012  58.3114997  32.2039988 124.3820012  57.8964997  32.9569988
 123.0290012  58.1334997  32.3209988 123.8933644  58.2305900  32.3229539
 127.2880012  62.0674997  33.0569988 126.7740012  61.9414997  33.8549988
 127.1330012  62.9794997  32.8129988 127.1966852  62.1736132  33.1332158
 128.0510012  66.9284997  18.8189988 128.0930012  66.7054997  17.8889988
 128.9000012  67.3274997  19.0089988 128.1715396  66.9519155  18.7173627
 123.6230012  60.8044997  19.4889988 123.3700012  60.8234997  20.4119988
 123.3670012  59.9324997  19.1879988 123.5537790  60.6892437  19.5746263
 119.3900012  63.5554997  29.9239988 118.7480012  63.5144997  30.6329988
 119.4270012  64.4814997  29.6869988 119.3071324  63.6751559  29.9889824
 119.3870012  63.7764997  24.8359988 118.4940012  63.4354997  24.7779988
 119.8370012  63.3994997  24.0809988 119.3257305  63.6788484  24.7259177
 124.9220012  64.1924997  23.6529988 124.5130012  65.0074997  23.3619988
 125.6430012  64.0524997  23.0389988 124.9634537  64.2852018  23.5301342
 124.0240012  64.3674997  35.1409988 123.4620012  63.6634997  35.4619988
 124.8510012  64.2474997  35.6089988 124.0587095  64.2547883  35.2482330
 125.9270012  63.6384997  26.4669988 125.7320012  64.2434997  25.7519988
 126.1080012  62.8044997  26.0329988 125.9247614  63.6086300  26.3104405
 117.1400012  63.8754997  31.7909988 117.1020012  64.2754997  32.6599988
 116.6490012  63.0584997  31.8819988 117.0684684  63.8198069  31.9221059
 120.5060012  61.2494997  18.5899988 120.0750012  60.8044997  19.3199988
 119.7880012  61.6214997  18.0779988 120.3499438  61.2388940  18.6206799
 113.7480012  60.9914997  25.6419988 114.3790012  60.9624997  26.3609988
 114.1970012  60.5664997  24.9119988 113.8950774  60.9300492  25.6416553
 115.0220012  61.7374997  21.0659988 115.4960012  62.3284997  20.4809988
 114.3050012  62.2684997  21.4129988 114.9899341  61.8900867  21.0328836
 125.1910012  65.2764997  31.1389988 125.5140012  64.6454997  30.4959988
 124.7510012  64.7414997  31.7989988 125.1756895  65.1178441  31.1402850
 121.9680012  61.2034997  25.9229988 121.0570012  61.2604997  26.2109988
 122.4740012  61.1434997  26.7329988 121.9115413  61.2031985  26.0720622
 116.7970012  62.8324997  24.7489988 115.9070012  62.9324997  24.4089988
 117.0930012  61.9904997  24.4029988 116.7152823  62.7323545  24.6557213
 120.4500012  62.8324997  22.4059988 121.3810012  62.9614997  22.5839988
 120.2350012  63.5024997  21.7559988 120.5484247  62.9406565  22.3425747
 126.3730012  60.4384997  29.1869988 125.6970012  60.5694997  29.8509988
 125.8880012  60.2834997  28.3769988 126.2147145  60.4354905  29.1684517
 119.1240012  64.0274997  19.9729988 118.5810012  63.6474997  19.2809988
 119.9570012  64.2214997  19.5439988 119.1624399  64.0018124  19.8204526
 129.6610012  76.1104997  35.4639988 129.8610012  76.5344997  34.6289988
 130.3160012  76.4534997  36.0709988 129.7770051  76.2149648  35.4317836
 117.2590012  68.5844997  35.0719988 117.9910012  68.8384997  35.6329988
 116.4790012  68.7884997  35.5869988 117.2538232  68.6469177  35.2185760
 123.2880012  63.9914997  27.8099988 123.8530012  63.4444997  27.2629988
 123.1410012  63.4694997  28.5979988 123.3452918  63.8462024  27.8418454
 118.2900012  60.1274997  24.2279988 117.9730012  59.2254997  24.1929988
 119.0720012  60.1294997  23.6749988 118.3522284  60.0041628  24.1484783
 121.9150012  62.3794997  30.2239988 121.0790012  62.8334997  30.3339988
 122.4390012  62.6554997  30.9759988 121.8714414  62.4789376  30.3407136
 122.4590012  68.5924997  21.9079988 121.7140012  68.0854997  21.5859988
 122.3250012  68.6414997  22.8549988 122.3388776  68.5296940  21.9918647
 129.6090012  67.7254997  30.6949988 130.2510012  68.1824997  30.1509988
 128.7790012  67.8384997  30.2319988 129.5845963  67.8032704  30.5580177
 126.3570012  61.4064997  20.1079988 125.4180012  61.5184997  19.9559988
 126.6540012  62.2634997  20.4139988 126.2687666  61.5376443  20.1285768
 123.9780012  68.7764997  33.1449988 123.6330012  68.3954997  33.9519988
 123.7780012  69.7104997  33.2169988 123.9038061  68.8505228  33.2650961
 127.0750012  63.2734997  21.7679988 127.9670012  63.1364997  22.0869988
 127.1320012  64.0644997  21.2319988 127.2046285  63.3616660  21.7391691
 117.5840012  67.8874997  27.6779988 118.3290012  67.8854997  27.0769988
 117.6620012  67.0644997  28.1599988 117.6965518  67.7759315  27.6608929
 124.5850012  70.0514997  20.9339988 124.2890012  70.8774997  21.3149988
 123.8820012  69.4314997  21.1299988 124.4494914  70.0808199  21.0126443
 114.5920012  66.3484997  32.9929988 114.8150012  65.9304997  33.8249988
 113.9900012  65.7354997  32.5699988 114.5411759  66.2084668  33.0497022
 121.6080012  65.8654997  35.2059988 121.3120012  65.6994997  34.3109988
 122.5400012  65.6454997  35.1949988 121.6934166  65.8130640  35.0820536
 126.2290012  71.2384997  33.0959988 125.3280012  71.4214997  32.8279988
 126.2630012  71.4974997  34.0169988 126.1103041  71.2985512  33.1838197
 131.9600012  63.4834997  21.4629988 131.4060012  63.0874997  20.7909988
 132.0600012  64.3934997  21.1849988 131.8977059  63.5523586  21.3334401
 131.9230012  69.2834997  34.2999988 131.0720012  69.5214997  33.9329988
 132.5140012  69.2664997  33.5469988 131.8862487  69.3138258  34.1478893
 130.2550012  72.2694997  21.9279988 129.8820012  71.4434997  22.2369988
 130.5330012  72.0864997  21.0309988 130.2415630  72.1317303  21.8489626
 127.4160012  67.0774997  28.9489988 126.4870012  66.8454997  28.9219988
 127.8670012  66.3004997  28.6189988 127.3499216  66.9407238  28.9006917
 119.9590012  71.4054997  25.0819988 120.4860012  72.1784997  24.8819988
 119.0790012  71.6304997  24.7809988 119.9121773  71.5418005  25.0139010
 115.7140012  66.2674997  19.6689988 116.3300012  66.8944997  20.0489988
 114.8520012  66.5834997  19.9409988 115.6817698  66.3959430  19.7577183
 121.3860012  69.0684997  24.6589988 121.1450012  69.9934997  24.6999988
 120.6450012  68.6094997  25.0549988 121.2528409  69.1331421  24.7181377
 121.9010012  73.2174997  30.9739988 122.2630012  74.0724997  30.7399988
 122.4320012  72.9254997  31.7139988 122.0224473  73.2951060  31.0420855
 120.0690012  74.0904997  24.2039988 119.1190012  74.1954997  24.2549988
 120.4210012  74.9104997  24.5489988 119.9864203  74.2158314  24.2576650
 125.4450012  69.3164997  30.6739988 125.0190012  69.0894997  31.5009988
 126.0250012  68.5784997  30.4919988 125.4651868  69.1855299  30.7625830
 127.6480012  70.2454997  19.7479988 128.0010012  69.8654997  20.5529988
 126.6990012  70.1524997  19.8349988 127.5680441  70.1809596  19.8698559
 128.1030012  73.8684997  33.1439988 127.5020012  73.3134997  32.6479988
 128.3850012  74.5354997  32.5179988 128.0588519  73.8826841  32.9914952
 132.1510012  74.7254997  19.9489988 132.8950012  75.3114997  19.8089988
 131.4570012  75.2934997  20.2829988 132.1590292  74.8825582  19.9749961
 116.2260012  61.1014997  32.5509988 115.3330012  61.4404997  32.4829988
 116.1270012  60.2464997  32.9689988 116.0904164  61.0322588  32.5982235
 128.5140012  68.9184997  21.9749988 128.2360012  68.1904997  22.5309988
 129.4410012  69.0374997  22.1799988 128.6013124  68.8348802  22.0788845
 115.8770012  72.9064997  30.9859988 116.0940012  71.9744997  30.9549988
 116.1230012  73.1804997  31.8689988 115.9399549  72.8160636  31.1011763
 121.7390012  71.3574997  18.1949988 121.9780012  70.6094997  17.6479988
 121.4700012  70.9694997  19.0279988 121.7353675  71.2026638  18.2326865
 120.6760012  70.9274997  20.6519988 120.8220012  70.4074997  21.4419988
 120.6730012  71.8344997  20.9579988 120.6955989  70.9788853  20.8016088
 117.1290012  68.1804997  21.1619988 116.4430012  68.5324997  21.7289988
 117.6510012  68.9434997  20.9149988 117.1056852  68.3318578  21.2062118
 124.9600012  60.8424997  31.4409988 125.6590012  60.9164997  32.0909988
 124.5790012  59.9784997  31.5949988 125.0041767  60.7357624  31.5508322
 125.7450012  60.4944997  22.5379988 125.9650012  60.9664997  21.7349988
 126.3030012  60.8894997  23.2079988 125.8504968  60.6124285  22.5187331
 123.4130012  72.6254997  21.4009988 122.5970012  73.1224997  21.4529988
 123.9430012  73.1004997  20.7609988 123.3729161  72.7577722  21.3215956
 122.9450012  62.2224997  23.3729988 123.7570012  62.7274997  23.4189988
 122.7000012  62.0774997  24.2869988 123.0230520  62.2720375  23.5028517
 123.4800012  63.2084997  32.5579988 123.5990012  63.7824997  33.3149988
 124.1360012  62.5204997  32.6719988 123.5849757  63.1941079  32.6770825
 123.8280012  59.3034997  24.3109988 123.4820012  59.9214997  24.9559988
 124.4870012  59.8044997  23.8299988 123.8697826  59.4555802  24.3340971
 120.7520012  73.6694997  21.3829988 120.9120012  74.4684997  20.8819988
 120.5540012  73.9754997  22.2679988 120.7471649  73.8204469  21.4339815
 119.4860012  60.3664997  20.9979988 119.4030012  61.2554997  21.3449988
 120.3760012  60.1014997  21.2299988 119.5949469  60.4521430  21.0767626
 129.6850012  61.1154997  33.3929988 128.7680012  61.3784997  33.3049988
 130.0200012  61.1124997  32.4959988 129.6049900  61.1510224  33.2597919
 128.2870012  64.8664997  27.4879988 127.4890012  64.4514997  27.1599988
 128.7320012  64.1754997  27.9789988 128.2379885  64.7163543  27.5094889
 117.7450012  70.7944997  20.0589988 118.3370012  71.4934997  20.3349988
 118.2040012  70.3614997  19.3389988 117.8881142  70.8317049  19.9994830
 116.0610012  63.4584997  19.1749988 116.0160012  64.3974997  19.3529988
 115.1730012  63.2224997  18.9049988 115.9348574  63.5551892  19.1628912
 129.3730012  74.1224997  29.1109988 129.2180012  74.8004997  28.4539988
 130.3060012  74.1944997  29.3139988 129.4778500  74.2250170  29.0485119
 116.8690012  58.2404997  27.8479988 116.6400012  58.2994997  26.9199988
 116.4260012  57.4484997  28.1539988 116.7778530  58.1415753  27.7624786
 115.7990012  72.1804997  24.0079988 114.9670012  72.6534997  24.0359988
 116.3450012  72.6904997  23.4099988 115.7589739  72.3141871  23.9309716
 115.0870012  74.7934997  35.3379988 115.6280012  74.5764997  36.0979988
 114.6060012  73.9874997  35.1489988 115.0959345  74.6549514  35.4163076
 119.6850012  73.7124997  36.9589988 120.4520012  73.2534997  37.2999988
 119.6630012  73.4864997  36.0289988 119.7871434  73.6190409  36.8800043
 123.7770012  73.2204997  18.3339988 123.1330012  72.5894997  18.6549988
 124.5390012  72.6894997  18.1019988 123.7918077  73.0622920  18.3466011
 126.2620012  72.0924997  35.6879988 125.9110012  71.2364997  35.9309988
 126.9880012  72.2354997  36.2949988 126.3120769  71.9945636  35.8033619
 128.3810012  73.0374997  18.5679988 128.6640012  72.2434997  19.0199988
 129.1210012  73.2704997  18.0069988 128.5197486  72.9602803  18.5540698
 114.9940012  68.6034997  36.2929988 115.1380012  67.7014997  36.0059988
 114.2220012  68.8894997  35.8049988 114.9093322  68.5188261  36.1877881
 119.3360012  68.9474997  18.4249988 119.4000012  68.1534997  18.9559988
 119.9890012  68.8284997  17.7349988 119.4330241  68.8227148  18.4044317
 121.6500012  68.5734997  35.7249988 121.3210012  68.8444997  34.8679988
 121.8020012  67.6324997  35.6379988 121.6254809  68.4833862  35.5958244
 124.6880012  69.9944997  18.1609988 124.4190012  70.1744997  19.0619988
 124.4820012  69.0684997  18.0299988 124.6233825  69.8940152  18.2665214
 127.3840012  68.4894997  33.1089988 128.1300012  69.0774997  32.9889988
 126.6270012  69.0714997  33.1719988 127.3837554  68.6487011  33.1010907
 115.8270012  65.8034997  35.7129988 116.2350012  64.9464997  35.5919988
 115.5670012  65.8184997  36.6339988 115.8477568  65.6880807  35.8209588
 120.4850012  66.9194997  20.7309988 120.0250012  66.4354997  21.4169988
 120.7400012  66.2514997  20.0949988 120.4564902  66.7628731  20.7389334
 119.7740012  64.8124997  33.0869988 119.1560012  65.4874997  33.3669988
 120.1180012  65.1334997  32.2539988 119.7359615  64.9482721  33.0126581
 121.5560012  65.1624997  18.9929988 121.3760012  65.0084997  18.0659988
 122.5060012  65.2704997  19.0379988 121.6597776  65.1560175  18.8721843
 124.7940012  67.2844997  36.3639988 125.7470012  67.3674997  36.3369988
 124.6330012  66.5724997  36.9839988 124.9026426  67.1996746  36.4440579
 130.9460012  67.5174997  18.4389988 130.6720012  67.0924997  17.6259988
 130.9850012  68.4484997  18.2219988 130.9137699  67.5852484  18.2983610
 120.1130012  62.1674997  34.1689988 120.2630012  61.4384997  33.5669988
 120.1160012  62.9444997  33.6099988 120.1339302  62.1727851  34.0110692
 120.5260012  60.5374997  31.6619988 121.0620012  60.9884997  31.0099988
 119.6740012  60.4294997  31.2389988 120.4842178  60.5846390  31.5155756
 122.1080012  65.9764997  31.9009988 122.8580012  65.8204997  31.3279988
 121.7690012  66.8284997  31.6259988 122.1648921  66.0702968  31.7853561
 126.5230012  63.7914997  36.9299988 126.7160012  62.8604997  36.8179988
 127.3810012  64.2164997  36.9199988 126.6653020  63.7216389  36.9133361
 127.8400012  66.5804997  35.0069988 127.5590012  67.2894997  34.4299988
 128.7830012  66.5074997  34.8559988 127.9289027  66.6677646  34.9075551
 118.5920012  63.3654997  36.0809988 117.8250012  62.8334997  35.8709988
 119.2710012  63.0554997  35.4809988 118.5787022  63.2507506  35.9711648
 121.3320012  57.9934997  32.0929988 121.2330012  58.9404997  31.9879988
 120.5890012  57.6214997  31.6179988 121.2180564  58.0725902  32.0144560
 122.5960012  62.3154997  35.6569988 122.3600012  62.0954997  36.5589988
 121.8120012  62.1084997  35.1469988 122.4578628  62.2574760  35.7113932
 125.3110012  61.4424997  34.7329988 124.3640012  61.4744997  34.8649988
 125.6240012  60.8174997  35.3859988 125.2235475  61.3623207  34.8394455
 126.9450012  60.0764997  36.7379988 126.8490012  59.1244997  36.7319988
 126.6240012  60.3454997  37.5979988 126.8884070  59.9824035  36.8535441
 116.7720012  61.2864997  35.7849988 116.9840012  60.5794997  35.1749988
 116.6610012  60.8484997  36.6289988 116.7859721  61.1307084  35.8156843
 121.5530012  57.2874997  34.7649988 122.2650012  56.6474997  34.7509988
 121.4520012  57.5544997  33.8509988 121.6367939  57.2359938  34.6395650
 121.9070012  58.9704997  36.8179988 121.7750012  58.4944997  35.9979988
 121.3080012  59.7144997  36.7629988 121.8079071  59.0059618  36.6982886
 121.4530012  75.8534997  19.9949988 122.3860012  76.0114997  20.1379988
 121.1890012  76.5284997  19.3699988 121.5449510  75.9663611  19.9300741
 115.0220012  70.4894997  19.4769988 115.9360012  70.5684997  19.7509988
 115.0290012  69.8024997  18.8109988 115.1481131  70.4073961  19.4244393
 113.6710012  75.8824997  24.5549988 113.0240012  75.4204997  24.0219988
 114.0250012  75.2104997  25.1369988 113.6303849  75.7284723  24.5607959
 114.5410012  73.9634997  26.3589988 114.2060012  73.0834997  26.5309988
 114.7630012  74.3084997  27.2239988 114.5251783  73.8897500  26.4994208
 132.0890012  74.7724997  29.3399988 132.0680012  74.9574997  30.2789988
 132.7800012  75.3414997  28.9989988 132.1794618  74.8746606  29.4223864
 131.6530012  74.3404997  32.2619988 131.1650012  73.6044997  31.8909988
 132.2020012  73.9464997  32.9399988 131.6604872  74.1866249  32.3029160
 130.1030012  70.1294997  36.8999988 129.2370012  70.0244997  37.2939988
 130.4800012  70.8884997  37.3459988 130.0353308  70.2176900  37.0142393
 131.4040012  68.3864997  22.4139988 132.2540012  68.8074997  22.5409988
 131.4100012  67.6464997  23.0209988 131.5211372  68.3440803  22.5134344
 131.7990012  66.4394997  24.2379988 131.0720012  65.9604997  24.6349988
 132.3800012  66.6454997  24.9699988 131.7779375  66.4017090  24.3914129
 131.5580012  69.2244997  29.1849988 132.3910012  68.8464997  28.9049988
 131.6700012  70.1674997  29.0659988 131.6872647  69.3002218  29.1305487
 130.0440012  72.1024997  31.4919988 129.3970012  72.4274997  32.1179988
 129.5270012  71.6624997  30.8179988 129.8854029  72.0875004  31.4865827
 132.0670012  66.3404997  20.6289988 131.5450012  66.6974997  19.9099988
 132.0340012  67.0154997  21.3069988 131.9911634  66.4805413  20.6223145
 130.4160012  63.5804997  19.1799988 130.5120012  64.2474997  18.4989988
 130.2760012  62.7644997  18.6979988 130.4102135  63.5614500  19.0218491
 129.5850012  64.9604997  24.8009988 129.4350012  64.0154997  24.7799988
 129.2320012  65.2414997  25.6439988 129.5166625  64.8690441  24.9122346
 114.6210012  67.0384997  28.8109988 114.8050012  66.9564997  27.8749988
 115.4700012  66.9144997  29.2349988 114.7610139  67.0105003  28.7401455
 130.4420012  66.9304997  34.4389988 131.0250012  66.1964997  34.6309988
 131.0060012  67.7024997  34.4859988 130.5979769  66.9344227  34.4716159
 131.9380012  64.8334997  35.1239988 131.0750012  64.4544997  34.9579988
 132.5430012  64.0944997  35.0499988 131.9015979  64.6818023  35.0912817
 129.6630012  60.9884997  18.2969988 130.2740012  60.6174997  18.9339988
 128.8270012  60.5674997  18.4929988 129.6335032  60.8807554  18.4107035
 129.2960012  62.5434997  23.2629988 129.5760012  61.6364997  23.3869988
 130.0550012  62.9774997  22.8739988 129.4369277  62.4780942  23.2273682
 129.9080012  63.1244997  28.6989988 130.8410012  63.3364997  28.6649988
 129.6730012  63.2264997  29.6209988 130.0038036  63.1672769  28.8189976
 129.9370012  63.8614997  31.4749988 129.0940012  64.1294997  31.8409988
 130.3790012  64.6834997  31.2639988 129.8814158  64.0093291  31.4965491
 114.2180012  62.3094997  34.9519988 115.1380012  62.1874997  35.1879988
 113.7690012  61.5594997  35.3409988 114.2831580  62.1913727  35.0369006
 132.2200012  57.8414997  36.8279988 132.5700012  57.1874997  36.2229988
 132.3670012  58.6784997  36.3889988 132.2878419  57.8651591  36.6857118
 129.9090012  59.8064997  23.3109988 130.0920012  59.3574997  24.1369988
 129.3100012  59.2214997  22.8479988 129.8530202  59.6659975  23.3613275
 115.4390012  60.6214997  27.8429988 115.8850012  59.8294997  28.1449988
 115.9060012  61.3374997  28.2739988 115.5630172  60.6100624  27.9424820
 113.7430012  63.6204997  28.9119988 114.2350012  63.3994997  28.1209988
 114.1060012  64.4614997  29.1929988 113.8593126  63.7038357  28.8417531
 131.7400012  59.9504997  35.1779988 130.8220012  60.2214997  35.1419988
 131.8630012  59.4154997  34.3929988 131.6311066  59.9152892  35.0670487
 131.7760012  59.8734997  19.8389988 132.1880012  59.1524997  19.3639988
 132.4580012  60.5434997  19.8979988 131.9245885  59.8652368  19.7818915
 114.0570012  59.8784997  22.9659988 113.1320012  60.0874997  22.8369988
 114.5110012  60.3624997  22.2769988 113.9917368  59.9725993  22.8551226
 128.8280012  74.8624997  24.9119988 129.4800012  74.5154997  24.3039988
 129.3380012  75.3514997  25.5579988 128.9862637  74.8810597  24.9160236
 114.0210012  58.6164997  31.3109988 113.3560012  58.3704997  31.9539988
 113.5780012  59.2384997  30.7329988 113.8700956  58.6668632  31.3209352
 116.2130012  71.7914997  35.4549988 115.3920012  71.9664997  34.9949988
 115.9600012  71.7184997  36.3759988 116.0666164  71.8055622  35.5164923
 119.1670012  72.7664997  31.7139988 118.7420012  73.5754997  31.4309988
 120.0710012  72.8514997  31.4119988 119.2310271  72.8888469  31.6343776
 123.4780012  74.1654997  34.6729988 123.6630012  73.8314997  35.5509988
 124.3240012  74.4744997  34.3509988 123.6177539  74.1616047  34.7495605
 125.8230012  75.4514997  33.9169988 126.5000012  74.8184997  33.6769988
 126.1450012  75.8524997  34.7239988 125.9591637  75.4191154  33.9932793
 130.7400012  58.0404997  32.9969988 129.9280012  58.3654997  32.6089988
 130.9730012  57.2804997  32.4639988 130.6603423  57.9822436  32.8718253
 116.5690012  76.0224997  31.7609988 115.8480012  76.4624997  31.3099988
 116.2030012  75.7714997  32.6099988 116.4209804  76.0487698  31.8139840
 119.0360012  75.6224997  30.7909988 118.1710012  75.6944997  31.1949988
 118.9810012  76.1694997  30.0069988 118.9102085  75.7062685  30.7403362
 123.7460012  75.5104997  29.9659988 123.2900012  76.0394997  29.3119988
 123.9090012  76.1134997  30.6919988 123.7055585  75.6644468  29.9745062
 126.0740012  74.3884997  30.9109988 125.1690012  74.5534997  30.6459988
 126.5030012  75.2414997  30.8459988 126.0080799  74.5264483  30.8659182
 128.6780012  75.9584997  31.2059988 128.4960012  76.8744997  30.9959988
 128.8550012  75.5484997  30.3599988 128.6770210  76.0284822  31.0627885
 115.9830012  74.6454997  28.6709988 115.9650012  74.2204997  29.5289988
 116.7880012  74.3274997  28.2629988 116.0893875  74.5443812  28.7331655
 118.1250012  73.3554997  27.3259988 117.9060012  72.4394997  27.4959988
 118.9490012  73.4954997  27.7919988 118.2064420  73.2490520  27.4122774
 120.6620012  73.8254997  28.1749988 120.8750012  72.9374997  27.8879988
 120.7260012  73.7914997  29.1289988 120.6998232  73.6993102  28.2647397
 124.1700012  59.4894997  27.3189988 123.4960012  58.8604997  27.5749988
 124.7340012  59.0054997  26.7159988 124.1539230  59.3378744  27.2725340
 129.3130012  57.5974997  27.4319988 129.9170012  58.1444997  26.9299988
 128.4430012  57.9164997  27.1919988 129.2781241  57.7155806  27.3307654
 131.0400012  58.7354997  25.7649988 131.6520012  58.2214997  25.2389988
 131.4220012  59.6134997  25.7889988 131.1754540  58.7837140  25.6961830
 116.4970012  58.1234997  25.1409988 115.7200012  57.8894997  24.6339988
 117.0270012  57.3264997  25.1499988 116.4622330  57.9836988  25.0727742
 115.3330012  57.9214997  20.9449988 115.7720012  58.5324997  20.3529988
 114.7000012  58.4594997  21.4189988 115.3074514  58.0779257  20.9280930
 121.0760012  58.0504997  24.9549988 121.9510012  58.4384997  24.9249988
 120.9400012  57.8354997  25.8769988 121.1773695  58.0745184  25.0756440
 126.6330012  58.0804997  26.6039988 126.7090012  58.1754997  25.6539988
 126.3580012  57.1724997  26.7329988 126.6062321  57.9707867  26.4915079
 127.9860012  58.1064997  22.2959988 127.2840012  58.7214997  22.0869988
 127.5420012  57.2684997  22.4269988 127.8296330  58.0775783  22.2850328
 115.2340012  73.8694997  21.8429988 114.5490012  73.8314997  21.1749988
 115.2380012  74.7824997  22.1309988 115.1408193  73.9877016  21.7905284
 117.1940012  59.8374997  19.3869988 117.6860012  59.2074997  18.8599988
 117.8180012  60.1334997  20.0509988 117.3455446  59.7913199  19.4045980
 122.2200012  60.1304997  21.8439988 122.3980012  59.4844997  22.5269988
 122.1670012  60.9644997  22.3119988 122.2371829  60.1547985  22.0005940
 124.0990012  75.0794997  20.2399988 124.9650012  75.4454997  20.0619988
 123.8520012  74.6394997  19.4259988 124.1842392  75.0701756  20.1056289
 130.8080012  74.6424997  22.9189988 130.6130012  73.8944997  22.3539988
 130.7690012  75.4004997  22.3359988 130.7760380  74.6426099  22.7628384
 116.4550012  58.6374997  34.6589988 116.0890012  57.8724997  35.1019988
 117.3680012  58.6664997  34.9459988 116.5282790  58.5367224  34.7584070
 118.4280012  57.9884997  36.1949988 119.3260012  57.7144997  36.0099988
 118.0410012  57.2454997  36.6589988 118.4986612  57.8505914  36.2323643
 117.0520012  74.7894997  18.8679988 116.7850012  75.0764997  19.7409988
 117.8240012  74.2434997  19.0199988 117.1197488  74.7550294  19.0081050
 126.8490012  57.3204997  36.3769988 126.9260012  56.8944997  37.2309988
 127.7430012  57.3344997  36.0339988 126.9803428  57.2640879  36.4475310
 130.0250012  73.3934997  35.0689988 129.2430012  73.2074997  34.5499988
 129.9530012  74.3224997  35.2869988 129.9081777  73.4936492  35.0274048
 144.4310012  67.2794997  25.0999988 144.5200012  68.2234997  24.9679988
 143.7930012  67.0044997  24.4419988 144.3569081  67.3714830  24.9929614
 143.3640012  66.5344997  28.5189988 143.3260012  65.8884997  29.2239988
 143.0420012  66.0684997  27.7479988 143.3152333  66.3829408  28.5112978
 135.7330012  66.1494997  30.1119988 135.7740012  65.5234997  30.8349988
 136.4360012  66.7734997  30.2939988 135.8336363  66.1481196  30.2356044
 136.6560012  70.5994997  28.6469988 136.2870012  69.7974997  28.2769988
 137.5970012  70.4304997  28.6929988 136.7327289  70.4670153  28.6026316
 133.2660012  64.2594997  24.0399988 132.8190012  65.1054997  24.0209988
 132.7050012  63.6794997  23.5239988 133.1289900  64.2969916  23.9676801
 133.9770012  66.4214997  26.1659988 134.1900012  65.6514997  26.6929988
 134.7150012  66.5104997  25.5619988 134.1058496  66.3281394  26.1565300
 144.1820012  74.5784997  27.0329988 144.8020012  73.9014997  26.7589988
 143.9740012  74.3604997  27.9409988 144.2386904  74.4563870  27.1183365
 141.7540012  68.9674997  28.9249988 142.0580012  68.2814997  28.3299988
 142.4750012  69.0854997  29.5429988 141.8930671  68.8896305  28.9271816
 144.8950012  63.3614997  29.2529988 145.0370012  62.4154997  29.2729988
 144.7880012  63.5684997  28.3239988 144.8999864  63.2599534  29.1302339
 138.0490012  61.4624997  26.5249988 138.0930012  62.3224997  26.1069988
 137.5920012  60.9104997  25.8909988 137.9932185  61.5055799  26.3820299
 134.6700012  63.8594997  27.2869988 135.3230012  63.3094997  27.7189988
 134.6940012  63.5854997  26.3699988 134.7626683  63.7471466  27.2222123
 139.8260012  65.4094997  26.5019988 140.4420012  64.8834997  27.0119988
 139.2400012  64.7694997  26.0989988 139.8310810  65.2509208  26.5173173
 136.8600012  60.3804997  30.5989988 136.6410012  60.9104997  29.8329988
 136.1920012  60.6074997  31.2459988 136.7397600  60.4836906  30.5816379
 144.2290012  69.8804997  24.1429988 143.9330012  69.5584997  23.2919988
 143.9040012  70.7804997  24.1839988 144.1446371  69.9580215  24.0321801
 139.4290012  68.0564997  30.8859988 138.6890012  68.6544997  30.9899988
 140.1430012  68.6104997  30.5709988 139.4242237  68.2132831  30.8576465
 136.4530012  62.2724997  28.5509988 137.0670012  62.9054997  28.9249988
 136.9650012  61.8004997  27.8949988 136.6062296  62.2952370  28.5134252
 137.8360012  70.0204997  31.6739988 137.8310012  70.9004997  31.2959988
 136.9830012  69.9374997  32.0989988 137.7199464  70.1296117  31.6797907
 133.9570012  69.6914997  22.4559988 133.6850012  69.9204997  21.5669988
 134.0030012  70.5294997  22.9159988 133.9260094  69.8361213  22.3965697
 140.8860012  57.6864997  28.0519988 140.7690012  56.7374997  27.9969988
 140.0310012  58.0184997  28.3249988 140.7543733  57.6015409  28.0813897
 143.1530012  66.5234997  22.5519988 142.4410012  67.0584997  22.1999988
 143.8440012  66.5794997  21.8919988 143.1490132  66.6042543  22.4146289
 143.2060012  64.9814997  19.5909988 143.9070012  65.0034997  20.2419988
 143.5090012  64.3534997  18.9349988 143.3427830  64.8996566  19.5913711
 138.2040012  67.3634997  25.3859988 137.8730012  66.9934997  24.5679988
 138.7920012  66.6934997  25.7329988 138.2381873  67.2221156  25.3208102
 139.5700012  70.7914997  28.0679988 139.4760012  70.2134997  27.3109988
 140.3000012  70.4204997  28.5639988 139.6557981  70.6622390  28.0314165
 138.5700012  66.1324997  29.0199988 139.1360012  66.2534997  28.2569988
 138.8890012  66.7694997  29.6589988 138.6905786  66.2351884  29.0020040
 144.8790012  71.6354997  29.7539988 144.6390012  72.2974997  30.4019988
 144.6810012  70.8014997  30.1789988 144.8193808  71.6133134  29.9001524
 139.4500012  70.5314997  33.7369988 139.1390012  71.3134997  34.1919988
 138.8000012  70.3784997  33.0509988 139.3195558  70.6179105  33.7065871
 136.3700012  66.7294997  32.9659988 136.4410012  67.3804997  33.6639988
 135.4800012  66.8324997  32.6309988 136.2593117  66.8325936  33.0162700
 143.1560012  72.6324997  24.6239988 143.6300012  72.9274997  25.4019988
 142.5930012  73.3704997  24.3909988 143.1447653  72.7726932  24.6990136
 137.6900012  72.6034997  34.4999988 137.6970012  72.4674997  33.5529988
 136.7740012  72.4854997  34.7519988 137.5671714  72.5689430  34.4044666
 137.1940012  66.4334997  22.9759988 136.9020012  67.2014997  22.4849988
 136.5200012  65.7734997  22.8129988 137.0629081  66.4494406  22.8867340
 133.2870012  68.7964997  31.7909988 132.7860012  68.7684997  30.9759988
 133.2920012  67.8904997  32.0999988 133.2191526  68.6702278  31.7212872
 133.0370012  71.5764997  28.6749988 133.9830012  71.4324997  28.6559988
 132.9250012  72.3604997  29.2119988 133.1512727  71.6628046  28.7450072
 142.2140012  71.8164997  33.2329988 142.3010012  72.6424997  33.7079988
 141.3500012  71.4864997  33.4819988 142.1091964  71.8849878  33.3316549
 142.6280012  75.5884997  23.0389988 142.5530012  75.4674997  22.0929988
 142.6610012  76.5384997  23.1579988 142.6221848  75.7002500  22.9254834
 136.2810012  74.3774997  24.8199988 136.4340012  74.0294997  25.6989988
 135.4310012  74.0214997  24.5649988 136.1868962  74.2816650  24.9058340
 135.5360012  70.1194997  32.8339988 135.7520012  69.7584997  33.6929988
 134.6810012  69.7454997  32.6239988 135.4499292  70.0194111  32.9233386
 138.1550012  58.5894997  28.8289988 137.2930012  58.5024997  28.4219988
 138.1320012  59.4454997  29.2569988 138.0340330  58.6932765  28.8311863
 142.8180012  58.3114997  32.2039988 143.2380012  57.8964997  32.9569988
 141.8850012  58.1334997  32.3209988 142.7493644  58.2305900  32.3229539
 142.4790012  60.8044997  19.4889988 142.2260012  60.8234997  20.4119988
 142.2230012  59.9324997  19.1879988 142.4097790  60.6892437  19.5746263
 138.2460012  63.5554997  29.9239988 137.6040012  63.5144997  30.6329988
 138.2830012  64.4814997  29.6869988 138.1631324  63.6751559  29.9889824
 138.2430012  63.7764997  24.8359988 137.3500012  63.4354997  24.7779988
 138.6930012  63.3994997  24.0809988 138.1817305  63.6788484  24.7259177
 143.7780012  64.1924997  23.6529988 143.3690012  65.0074997  23.3619988
 144.4990012  64.0524997  23.0389988 143.8194537  64.2852018  23.5301342
 142.8800012  64.3674997  35.1409988 142.3180012  63.6634997  35.4619988
 143.7070012  64.2474997  35.6089988 142.9147095  64.2547883  35.2482330
 144.7830012  63.6384997  26.4669988 144.5880012  64.2434997  25.7519988
 144.9640012  62.8044997  26.0329988 144.7807614  63.6086300  26.3104405
 135.9960012  63.8754997  31.7909988 135.9580012  64.2754997  32.6599988
 135.5050012  63.0584997  31.8819988 135.9244684  63.8198069  31.9221059
 139.3620012  61.2494997  18.5899988 138.9310012  60.8044997  19.3199988
 138.6440012  61.6214997  18.0779988 139.2059438  61.2388940  18.6206799
 132.6040012  60.9914997  25.6419988 133.2350012  60.9624997  26.3609988
 133.0530012  60.5664997  24.9119988 132.7510774  60.9300492  25.6416553
 133.8780012  61.7374997  21.0659988 134.3520012  62.3284997  20.4809988
 133.1610012  62.2684997  21.4129988 133.8459341  61.8900867  21.0328836
 144.0470012  65.2764997  31.1389988 144.3700012  64.6454997  30.4959988
 143.6070012  64.7414997  31.7989988 144.0316895  65.1178441  31.1402850
 140.8240012  61.2034997  25.9229988 139.9130012  61.2604997  26.2109988
 141.3300012  61.1434997  26.7329988 140.7675413  61.2031985  26.0720622
 135.6530012  62.8324997  24.7489988 134.7630012  62.9324997  24.4089988
 135.9490012  61.9904997  24.4029988 135.5712823  62.7323545  24.6557213
 139.3060012  62.8324997  22.4059988 140.2370012  62.9614997  22.5839988
 139.0910012  63.5024997  21.7559988 139.4044247  62.9406565  22.3425747
 137.9800012  64.0274997  19.9729988 137.4370012  63.6474997  19.2809988
 138.8130012  64.2214997  19.5439988 138.0184399  64.0018124  19.8204526
 136.1150012  68.5844997  35.0719988 136.8470012  68.8384997  35.6329988
 135.3350012  68.7884997  35.5869988 136.1098232  68.6469177  35.2185760
 142.1440012  63.9914997  27.8099988 142.7090012  63.4444997  27.2629988
 141.9970012  63.4694997  28.5979988 142.2012918  63.8462024  27.8418454
 137.1460012  60.1274997  24.2279988 136.8290012  59.2254997  24.1929988
 137.9280012  60.1294997  23.6749988 137.2082284  60.0041628  24.1484783
 140.7710012  62.3794997  30.2239988 139.9350012  62.8334997  30.3339988
 141.2950012  62.6554997  30.9759988 140.7274414  62.4789376  30.3407136
 141.3150012  68.5924997  21.9079988 140.5700012  68.0854997  21.5859988
 141.1810012  68.6414997  22.8549988 141.1948776  68.5296940  21.9918647
 142.8340012  68.7764997  33.1449988 142.4890012  68.3954997  33.9519988
 142.6340012  69.7104997  33.2169988 142.7598061  68.8505228  33.2650961
 136.4400012  67.8874997  27.6779988 137.1850012  67.8854997  27.0769988
 136.5180012  67.0644997  28.1599988 136.5525518  67.7759315  27.6608929
 143.4410012  70.0514997  20.9339988 143.1450012  70.8774997  21.3149988
 142.7380012  69.4314997  21.1299988 143.3054914  70.0808199  21.0126443
 133.4480012  66.3484997  32.9929988 133.6710012  65.9304997  33.8249988
 132.8460012  65.7354997  32.5699988 133.3971759  66.2084668  33.0497022
 140.4640012  65.8654997  35.2059988 140.1680012  65.6994997  34.3109988
 141.3960012  65.6454997  35.1949988 140.5494166  65.8130640  35.0820536
 138.8150012  71.4054997  25.0819988 139.3420012  72.1784997  24.8819988
 137.9350012  71.6304997  24.7809988 138.7681773  71.5418005  25.0139010
 134.5700012  66.2674997  19.6689988 135.1860012  66.8944997  20.0489988
 133.7080012  66.5834997  19.9409988 134.5377698  66.3959430  19.7577183
 140.2420012  69.0684997  24.6589988 140.0010012  69.9934997  24.6999988
 139.5010012  68.6094997  25.0549988 140.1088409  69.1331421  24.7181377
 140.7570012  73.2174997  30.9739988 141.1190012  74.0724997  30.7399988
 141.2880012  72.9254997  31.7139988 140.8784473  73.2951060  31.0420855
 138.9250012  74.0904997  24.2039988 137.9750012  74.1954997  24.2549988
 139.2770012  74.9104997  24.5489988 138.8424203  74.2158314  24.2576650
 144.3010012  69.3164997  30.6739988 143.8750012  69.0894997  31.5009988
 144.8810012  68.5784997  30.4919988 144.3211868  69.1855299  30.7625830
 135.0820012  61.1014997  32.5509988 134.1890012  61.4404997  32.4829988
 134.9830012  60.2464997  32.9689988 134.9464164  61.0322588  32.5982235
 134.7330012  72.9064997  30.9859988 134.9500012  71.9744997  30.9549988
 134.9790012  73.1804997  31.8689988 134.7959549  72.8160636  31.1011763
 140.5950012  71.3574997  18.1949988 140.8340012  70.6094997  17.6479988
 140.3260012  70.9694997  19.0279988 140.5913675  71.2026638  18.2326865
 139.5320012  70.9274997  20.6519988 139.6780012  70.4074997  21.4419988
 139.5290012  71.8344997  20.9579988 139.5515989  70.9788853  20.8016088
 135.9850012  68.1804997  21.1619988 135.2990012  68.5324997  21.7289988
 136.5070012  68.9434997  20.9149988 135.9616852  68.3318578  21.2062118
 143.8160012  60.8424997  31.4409988 144.5150012  60.9164997  32.0909988
 143.4350012  59.9784997  31.5949988 143.8601767  60.7357624  31.5508322
 144.6010012  60.4944997  22.5379988 144.8210012  60.9664997  21.7349988
 145.1590012  60.8894997  23.2079988 144.7064968  60.6124285  22.5187331
 142.2690012  72.6254997  21.4009988 141.4530012  73.1224997  21.4529988
 142.7990012  73.1004997  20.7609988 142.2289161  72.7577722  21.3215956
 141.8010012  62.2224997  23.3729988 142.6130012  62.7274997  23.4189988
 141.5560012  62.0774997  24.2869988 141.8790520  62.2720375  23.5028517
 142.3360012  63.2084997  32.5579988 142.4550012  63.7824997  33.3149988
 142.9920012  62.5204997  32.6719988 142.4409757  63.1941079  32.6770825
 142.6840012  59.3034997  24.3109988 142.3380012  59.9214997  24.9559988
 143.3430012  59.8044997  23.8299988 142.7257826  59.4555802  24.3340971
 139.6080012  73.6694997  21.3829988 139.7680012  74.4684997  20.8819988
 139.4100012  73.9754997  22.2679988 139.6031649  73.8204469  21.4339815
 138.3420012  60.3664997  20.9979988 138.2590012  61.2554997  21.3449988
 139.2320012  60.1014997  21.2299988 138.4509469  60.4521430  21.0767626
 136.6010012  70.7944997  20.0589988 137.1930012  71.4934997  20.3349988
 137.0600012  70.3614997  19.3389988 136.7441142  70.8317049  19.9994830
 134.9170012  63.4584997  19.1749988 134.8720012  64.3974997  19.3529988
 134.0290012  63.2224997  18.9049988 134.7908574  63.5551892  19.1628912
 135.7250012  58.2404997  27.8479988 135.4960012  58.2994997  26.9199988
 135.2820012  57.4484997  28.1539988 135.6338530  58.1415753  27.7624786
 134.6550012  72.1804997  24.0079988 133.8230012  72.6534997  24.0359988
 135.2010012  72.6904997  23.4099988 134.6149739  72.3141871  23.9309716
 133.9430012  74.7934997  35.3379988 134.4840012  74.5764997  36.0979988
 133.4620012  73.9874997  35.1489988 133.9519345  74.6549514  35.4163076
 138.5410012  73.7124997  36.9589988 139.3080012  73.2534997  37.2999988
 138.5190012  73.4864997  36.0289988 138.6431434  73.6190409  36.8800043
 142.6330012  73.2204997  18.3339988 141.9890012  72.5894997  18.6549988
 143.3950012  72.6894997  18.1019988 142.6478077  73.0622920  18.3466011
 133.8500012  68.6034997  36.2929988 133.9940012  67.7014997  36.0059988
 133.0780012  68.8894997  35.8049988 133.7653322  68.5188261  36.1877881
 138.1920012  68.9474997  18.4249988 138.2560012  68.1534997  18.9559988
 138.8450012  68.8284997  17.7349988 138.2890241  68.8227148  18.4044317
 140.5060012  68.5734997  35.7249988 140.1770012  68.8444997  34.8679988
 140.6580012  67.6324997  35.6379988 140.4814809  68.4833862  35.5958244
 143.5440012  69.9944997  18.1609988 143.2750012  70.1744997  19.0619988
 143.3380012  69.0684997  18.0299988 143.4793825  69.8940152  18.2665214
 134.6830012  65.8034997  35.7129988 135.0910012  64.9464997  35.5919988
 134.4230012  65.8184997  36.6339988 134.7037568  65.6880807  35.8209588
 139.3410012  66.9194997  20.7309988 138.8810012  66.4354997  21.4169988
 139.5960012  66.2514997  20.0949988 139.3124902  66.7628731  20.7389334
 138.6300012  64.8124997  33.0869988 138.0120012  65.4874997  33.3669988
 138.9740012  65.1334997  32.2539988 138.5919615  64.9482721  33.0126581
 140.4120012  65.1624997  18.9929988 140.2320012  65.0084997  18.0659988
 141.3620012  65.2704997  19.0379988 140.5157776  65.1560175  18.8721843
 143.6500012  67.2844997  36.3639988 144.6030012  67.3674997  36.3369988
 143.4890012  66.5724997  36.9839988 143.7586426  67.1996746  36.4440579
 138.9690012  62.1674997  34.1689988 139.1190012  61.4384997  33.5669988
 138.9720012  62.9444997  33.6099988 138.9899302  62.1727851  34.0110692
 139.3820012  60.5374997  31.6619988 139.9180012  60.9884997  31.0099988
 138.5300012  60.4294997  31.2389988 139.3402178  60.5846390  31.5155756
 140.9640012  65.9764997  31.9009988 141.7140012  65.8204997  31.3279988
 140.6250012  66.8284997  31.6259988 141.0208921  66.0702968  31.7853561
 137.4480012  63.3654997  36.0809988 136.6810012  62.8334997  35.8709988
 138.1270012  63.0554997  35.4809988 137.4347022  63.2507506  35.9711648
 140.1880012  57.9934997  32.0929988 140.0890012  58.9404997  31.9879988
 139.4450012  57.6214997  31.6179988 140.0740564  58.0725902  32.0144560
 141.4520012  62.3154997  35.6569988 141.2160012  62.0954997  36.5589988
 140.6680012  62.1084997  35.1469988 141.3138628  62.2574760  35.7113932
 144.1670012  61.4424997  34.7329988 143.2200012  61.4744997  34.8649988
 144.4800012  60.8174997  35.3859988 144.0795475  61.3623207  34.8394455
 135.6280012  61.2864997  35.7849988 135.8400012  60.5794997  35.1749988
 135.5170012  60.8484997  36.6289988 135.6419721  61.1307084  35.8156843
 140.4090012  57.2874997  34.7649988 141.1210012  56.6474997  34.7509988
 140.3080012  57.5544997  33.8509988 140.4927939  57.2359938  34.6395650
 140.7630012  58.9704997  36.8179988 140.6310012  58.4944997  35.9979988
 140.1640012  59.7144997  36.7629988 140.6639071  59.0059618  36.6982886
 140.3090012  75.8534997  19.9949988 141.2420012  76.0114997  20.1379988
 140.0450012  76.5284997  19.3699988 140.4009510  75.9663611  19.9300741
 133.8780012  70.4894997  19.4769988 134.7920012  70.5684997  19.7509988
 133.8850012  69.8024997  18.8109988 134.0041131  70.4073961  19.4244393
 132.5270012  75.8824997  24.5549988 131.8800012  75.4204997  24.0219988
 132.8810012  75.2104997  25.1369988 132.4863849  75.7284723  24.5607959
 133.3970012  73.9634997  26.3589988 133.0620012  73.0834997  26.5309988
 133.6190012  74.3084997  27.2239988 133.3811783  73.8897500  26.4994208
 133.4770012  67.0384997  28.8109988 133.6610012  66.9564997  27.8749988
 134.3260012  66.9144997  29.2349988 133.6170139  67.0105003  28.7401455
 133.0740012  62.3094997  34.9519988 133.9940012  62.1874997  35.1879988
 132.6250012  61.5594997  35.3409988 133.1391580  62.1913727  35.0369006
 134.2950012  60.6214997  27.8429988 134.7410012  59.8294997  28.1449988
 134.7620012  61.3374997  28.2739988 134.4190172  60.6100624  27.9424820
 132.5990012  63.6204997  28.9119988 133.0910012  63.3994997  28.1209988
 132.9620012  64.4614997  29.1929988 132.7153126  63.7038357  28.8417531
 132.9130012  59.8784997  22.9659988 131.9880012  60.0874997  22.8369988
 133.3670012  60.3624997  22.2769988 132.8477368  59.9725993  22.8551226
 132.8770012  58.6164997  31.3109988 132.2120012  58.3704997  31.9539988
 132.4340012  59.2384997  30.7329988 132.7260956  58.6668632  31.3209352
 135.0690012  71.7914997  35.4549988 134.2480012  71.9664997  34.9949988
 134.8160012  71.7184997  36.3759988 134.9226164  71.8055622  35.5164923
 138.0230012  72.7664997  31.7139988 137.5980012  73.5754997  31.4309988
 138.9270012  72.8514997  31.4119988 138.0870271  72.8888469  31.6343776
 142.3340012  74.1654997  34.6729988 142.5190012  73.8314997  35.5509988
 143.1800012  74.4744997  34.3509988 142.4737539  74.1616047  34.7495605
 144.6790012  75.4514997  33.9169988 145.3560012  74.8184997  33.6769988
 145.0010012  75.8524997  34.7239988 144.8151637  75.4191154  33.9932793
 135.4250012  76.0224997  31.7609988 134.7040012  76.4624997  31.3099988
 135.0590012  75.7714997  32.6099988 135.2769804  76.0487698  31.8139840
 137.8920012  75.6224997  30.7909988 137.0270012  75.6944997  31.1949988
 137.8370012  76.1694997  30.0069988 137.7662085  75.7062685  30.7403362
 142.6020012  75.5104997  29.9659988 142.1460012  76.0394997  29.3119988
 142.7650012  76.1134997  30.6919988 142.5615585  75.6644468  29.9745062
 134.8390012  74.6454997  28.6709988 134.8210012  74.2204997  29.5289988
 135.6440012  74.3274997  28.2629988 134.9453875  74.5443812  28.7331655
 136.9810012  73.3554997  27.3259988 136.7620012  72.4394997  27.4959988
 137.8050012  73.4954997  27.7919988 137.0624420  73.2490520  27.4122774
 139.5180012  73.8254997  28.1749988 139.7310012  72.9374997  27.8879988
 139.5820012  73.7914997  29.1289988 139.5558232  73.6993102  28.2647397
 143.0260012  59.4894997  27.3189988 142.3520012  58.8604997  27.5749988
 143.5900012  59.0054997  26.7159988 143.0099230  59.3378744  27.2725340
 135.3530012  58.1234997  25.1409988 134.5760012  57.8894997  24.6339988
 135.8830012  57.3264997  25.1499988 135.3182330  57.9836988  25.0727742
 134.1890012  57.9214997  20.9449988 134.6280012  58.5324997  20.3529988
 133.5560012  58.4594997  21.4189988 134.1634514  58.0779257  20.9280930
 139.9320012  58.0504997  24.9549988 140.8070012  58.4384997  24.9249988
 139.7960012  57.8354997  25.8769988 140.0333695  58.0745184  25.0756440
 134.0900012  73.8694997  21.8429988 133.4050012  73.8314997  21.1749988
 134.0940012  74.7824997  22.1309988 133.9968193  73.9877016  21.7905284
 136.0500012  59.8374997  19.3869988 136.5420012  59.2074997  18.8599988
 136.6740012  60.1334997  20.0509988 136.2015446  59.7913199  19.4045980
 141.0760012  60.1304997  21.8439988 141.2540012  59.4844997  22.5269988
 141.0230012  60.9644997  22.3119988 141.0931829  60.1547985  22.0005940
 142.9550012  75.0794997  20.2399988 143.8210012  75.4454997  20.0619988
 142.7080012  74.6394997  19.4259988 143.0402392  75.0701756  20.1056289
 135.3110012  58.6374997  34.6589988 134.9450012  57.8724997  35.1019988
 136.2240012  58.6664997  34.9459988 135.3842790  58.5367224  34.7584070
 137.2840012  57.9884997  36.1949988 138.1820012  57.7144997  36.0099988
 136.8970012  57.2454997  36.6589988 137.3546612  57.8505914  36.2323643
 135.9080012  74.7894997  18.8679988 135.6410012  75.0764997  19.7409988
 136.6800012  74.2434997  19.0199988 135.9757488  74.7550294  19.0081050
  12.4390012  86.1354997  25.0999988  12.5280012  87.0794997  24.9679988
  11.8010012  85.8604997  24.4419988  12.3649081  86.2274830  24.9929614
  11.3720012  85.3904997  28.5189988  11.3340012  84.7444997  29.2239988
  11.0500012  84.9244997  27.7479988  11.3232333  85.2389408  28.5112978
   3.7410012  85.0054997  30.1119988   3.7820012  84.3794997  30.8349988
   4.4440012  85.6294997  30.2939988   3.8416363  85.0041196  30.2356044
  15.0780012  88.3294997  26.8199988  14.6380012  87.6094997  27.2709988
  15.0650012  89.0504997  27.4499988  15.0160226  88.3283731  26.9668494
   4.6640012  89.4554997  28.6469988   4.2950012  88.6534997  28.2769988
   5.6050012  89.2864997  28.6929988   4.7407289  89.3230153  28.6026316
   1.2740012  83.1154997  24.0399988   0.8270012  83.9614997  24.0209988
   0.7130012  82.5354997  23.5239988   1.1369900  83.1529916  23.9676801
   1.9850012  85.2774997  26.1659988   2.1980012  84.5074997  26.6929988
   2.7230012  85.3664997  25.5619988   2.1138496  85.1841394  26.1565300
  12.1900012  93.4344997  27.0329988  12.8100012  92.7574997  26.7589988
  11.9820012  93.2164997  27.9409988  12.2466904  93.3123870  27.1183365
   9.7620012  87.8234997  28.9249988  10.0660012  87.1374997  28.3299988
  10.4830012  87.9414997  29.5429988   9.9010671  87.7456305  28.9271816
  18.4250012  79.4244997  29.7859988  18.4740012  80.0344997  30.5219988
  18.8500012  79.8854997  29.0629988  18.4891824  79.5703741  29.7890205
  12.9030012  82.2174997  29.2529988  13.0450012  81.2714997  29.2729988
  12.7960012  82.4244997  28.3239988  12.9079864  82.1159534  29.1302339
   6.0570012  80.3184997  26.5249988   6.1010012  81.1784997  26.1069988
   5.6000012  79.7664997  25.8909988   6.0012185  80.3615799  26.3820299
  13.7800012  80.4494997  24.9259988  14.4260012  80.1204997  25.5509988
  14.2900012  80.9674997  24.3029988  13.9374264  80.4744611  24.9273862
   2.6780012  82.7154997  27.2869988   3.3310012  82.1654997  27.7189988
   2.7020012  82.4414997  26.3699988   2.7706683  82.6031466  27.2222123
   7.8340012  84.2654997  26.5019988   8.4500012  83.7394997  27.0119988
   7.2480012  83.6254997  26.0989988   7.8390810  84.1069208  26.5173173
  18.8160012  80.9024997  32.0219988  18.1280012  81.5604997  31.9259988
  18.8320012  80.7054997  32.9579988  18.7238525  80.9660462  32.1354808
   4.8680012  79.2364997  30.5989988   4.6490012  79.7664997  29.8329988
   4.2000012  79.4634997  31.2459988   4.7477600  79.3396906  30.5816379
  12.2370012  88.7364997  24.1429988  11.9410012  88.4144997  23.2919988
  11.9120012  89.6364997  24.1839988  12.1526371  88.8140215  24.0321801
   7.4370012  86.9124997  30.8859988   6.6970012  87.5104997  30.9899988
   8.1510012  87.4664997  30.5709988   7.4322237  87.0692831  30.8576465
  15.5440012  79.7404997  26.9059988  15.3280012  78.9744997  27.4389988
  16.1990012  80.2124997  27.4189988  15.6030632  79.6995889  27.0482861
   4.4610012  81.1284997  28.5509988   5.0750012  81.7614997  28.9249988
   4.9730012  80.6564997  27.8949988   4.6142296  81.1512370  28.5134252
   5.8440012  88.8764997  31.6739988   5.8390012  89.7564997  31.2959988
   4.9910012  88.7934997  32.0989988   5.7279464  88.9856117  31.6797907
   1.9650012  88.5474997  22.4559988   1.6930012  88.7764997  21.5669988
   2.0110012  89.3854997  22.9159988   1.9340094  88.6921213  22.3965697
  15.5900012  90.1694997  29.1679988  14.6490012  90.2274997  29.3299988
  15.8670012  91.0754997  29.0309988  15.4984679  90.2999443  29.1716815
  15.8910012  78.4554997  30.5859988  15.1550012  79.0664997  30.5479988
  16.5740012  78.8704997  30.0589988  15.8826541  78.5951374  30.5095832
   8.8940012  76.5424997  28.0519988   8.7770012  75.5934997  27.9969988
   8.0390012  76.8744997  28.3249988   8.7623733  76.4575409  28.0813897
  13.8420012  91.9504997  25.7939988  14.2680012  91.2434997  25.3089988
  14.1590012  92.7514997  25.3769988  13.9431019  91.9620994  25.6713130
  15.0020012  89.8514997  24.3019988  14.7440012  89.1614997  23.6909988
  15.0730012  89.4084997  25.1479988  14.9762856  89.6972124  24.3326885
  16.6880012  88.4174997  32.7799988  16.8280012  87.8264997  32.0399988
  16.8550012  89.2904997  32.4229988  16.7296778  88.4546426  32.6306965
  11.1610012  85.3794997  22.5519988  10.4490012  85.9144997  22.1999988
  11.8520012  85.4354997  21.8919988  11.1570132  85.4602543  22.4146289
  11.2140012  83.8374997  19.5909988  11.9150012  83.8594997  20.2419988
  11.5170012  83.2094997  18.9349988  11.3507830  83.7556566  19.5913711
  18.5300012  84.7574997  30.8459988  17.8770012  85.4524997  30.9349988
  18.9950012  84.9674997  30.0359988  18.5035390  84.8809425  30.7486883
  14.5660012  85.5894997  23.5039988  13.8340012  85.8174997  24.0769988
  15.0140012  84.8754997  23.9589988  14.5263095  85.5242571  23.6439119
  14.4640012  83.7634997  32.5709988  14.5440012  84.5264997  33.1429988
  13.8620012  84.0424997  31.8809988  14.3935756  83.9057134  32.5560589
   6.2120012  86.2194997  25.3859988   5.8810012  85.8494997  24.5679988
   6.8000012  85.5494997  25.7329988   6.2461873  86.0781156  25.3208102
   7.5780012  89.6474997  28.0679988   7.4840012  89.0694997  27.3109988
   8.3080012  89.2764997  28.5639988   7.6637981  89.5182390  28.0314165
   6.5780012  84.9884997  29.0199988   7.1440012  85.1094997  28.2569988
   6.8970012  85.6254997  29.6589988   6.6985786  85.0911884  29.0020040
  12.8870012  90.4914997  29.7539988  12.6470012  91.1534997  30.4019988
  12.6890012  89.6574997  30.1789988  12.8273808  90.4693134  29.9001524
   7.4580012  89.3874997  33.7369988   7.1470012  90.1694997  34.1919988
   6.8080012  89.2344997  33.0509988   7.3275558  89.4739105  33.7065871
  13.4370012  84.7514997  21.1889988  14.0170012  84.9014997  21.9359988
  13.8510012  85.2224997  20.4659988  13.5722831  84.8356841  21.1934134
   4.3780012  85.5854997  32.9659988   4.4490012  86.2364997  33.6639988
   3.4880012  85.6884997  32.6309988   4.2673117  85.6885936  33.0162700
  11.1640012  91.4884997  24.6239988  11.6380012  91.7834997  25.4019988
  10.6010012  92.2264997  24.3909988  11.1527653  91.6286932  24.6990136
   5.6980012  91.4594997  34.4999988   5.7050012  91.3234997  33.5529988
   4.7820012  91.3414997  34.7519988   5.5751714  91.4249430  34.4044666
  17.1360012  76.5014997  21.0019988  16.2360012  76.6404997  21.2969988
  17.3880012  77.3324997  20.5999988  17.0468702  76.6329074  20.9880205
   5.2020012  85.2894997  22.9759988   4.9100012  86.0574997  22.4849988
   4.5280012  84.6294997  22.8129988   5.0709081  85.3054406  22.8867340
  18.3250012  90.8674997  19.3779988  18.3990012  91.8064997  19.5489988
  19.2310012  90.5624997  19.3219988  18.4575100  90.9546722  19.3938119
   1.2950012  87.6524997  31.7909988   0.7940012  87.6244997  30.9759988
   1.3000012  86.7464997  32.0999988   1.2271526  87.5262278  31.7212872
   1.0450012  90.4324997  28.6749988   1.9910012  90.2884997  28.6559988
   0.9330012  91.2164997  29.2119988   1.1592727  90.5188046  28.7450072
  19.2430012  91.0984997  34.3569988  19.1940012  90.1434997  34.3199988
  18.4160012  91.3664997  34.7579988  19.1244940  91.0038998  34.4061375
  10.2220012  90.6724997  33.2329988  10.3090012  91.4984997  33.7079988
   9.3580012  90.3424997  33.4819988  10.1171964  90.7409878  33.3316549
  10.6360012  94.4444997  23.0389988  10.5610012  94.3234997  22.0929988
  10.6690012  95.3944997  23.1579988  10.6301848  94.5562500  22.9254834
   4.2890012  93.2334997  24.8199988   4.4420012  92.8854997  25.6989988
   3.4390012  92.8774997  24.5649988   4.1948962  93.1376650  24.9058340
  13.7380012  93.5984997  20.0409988  14.1130012  92.8544997  19.5709988
  13.7420012  93.3284997  20.9599988  13.7898915  93.4601486  20.1007824
  13.4070012  93.5244997  22.7909988  12.4710012  93.6244997  22.9689988
  13.6870012  92.8154997  23.3689988  13.3168255  93.4422711  22.8935391
  16.3950012  82.5914997  34.8369988  15.9880012  83.0724997  34.1159988
  16.4360012  81.6864997  34.5289988  16.3448437  82.5349374  34.6966683
   3.5440012  88.9754997  32.8339988   3.7600012  88.6144997  33.6929988
   2.6890012  88.6014997  32.6239988   3.4579292  88.8754111  32.9233386
   6.1630012  77.4454997  28.8289988   5.3010012  77.3584997  28.4219988
   6.1400012  78.3014997  29.2569988   6.0420330  77.5492765  28.8311863
  10.8260012  77.1674997  32.2039988  11.2460012  76.7524997  32.9569988
   9.8930012  76.9894997  32.3209988  10.7573644  77.0865900  32.3229539
  14.1520012  80.9234997  33.0569988  13.6380012  80.7974997  33.8549988
  13.9970012  81.8354997  32.8129988  14.0606852  81.0296132  33.1332158
  14.9150012  85.7844997  18.8189988  14.9570012  85.5614997  17.8889988
  15.7640012  86.1834997  19.0089988  15.0355396  85.8079155  18.7173627
  10.4870012  79.6604997  19.4889988  10.2340012  79.6794997  20.4119988
  10.2310012  78.7884997  19.1879988  10.4177790  79.5452437  19.5746263
   6.2540012  82.4114997  29.9239988   5.6120012  82.3704997  30.6329988
   6.2910012  83.3374997  29.6869988   6.1711324  82.5311559  29.9889824
   6.2510012  82.6324997  24.8359988   5.3580012  82.2914997  24.7779988
   6.7010012  82.2554997  24.0809988   6.1897305  82.5348484  24.7259177
  11.7860012  83.0484997  23.6529988  11.3770012  83.8634997  23.3619988
  12.5070012  82.9084997  23.0389988  11.8274537  83.1412018  23.5301342
  10.8880012  83.2234997  35.1409988  10.3260012  82.5194997  35.4619988
  11.7150012  83.1034997  35.6089988  10.9227095  83.1107883  35.2482330
  12.7910012  82.4944997  26.4669988  12.5960012  83.0994997  25.7519988
  12.9720012  81.6604997  26.0329988  12.7887614  82.4646300  26.3104405
   4.0040012  82.7314997  31.7909988   3.9660012  83.1314997  32.6599988
   3.5130012  81.9144997  31.8819988   3.9324684  82.6758069  31.9221059
   7.3700012  80.1054997  18.5899988   6.9390012  79.6604997  19.3199988
   6.6520012  80.4774997  18.0779988   7.2139438  80.0948940  18.6206799
   0.6120012  79.8474997  25.6419988   1.2430012  79.8184997  26.3609988
   1.0610012  79.4224997  24.9119988   0.7590774  79.7860492  25.6416553
   1.8860012  80.5934997  21.0659988   2.3600012  81.1844997  20.4809988
   1.1690012  81.1244997  21.4129988   1.8539341  80.7460867  21.0328836
  12.0550012  84.1324997  31.1389988  12.3780012  83.5014997  30.4959988
  11.6150012  83.5974997  31.7989988  12.0396895  83.9738441  31.1402850
   8.8320012  80.0594997  25.9229988   7.9210012  80.1164997  26.2109988
   9.3380012  79.9994997  26.7329988   8.7755413  80.0591985  26.0720622
   3.6610012  81.6884997  24.7489988   2.7710012  81.7884997  24.4089988
   3.9570012  80.8464997  24.4029988   3.5792823  81.5883545  24.6557213
   7.3140012  81.6884997  22.4059988   8.2450012  81.8174997  22.5839988
   7.0990012  82.3584997  21.7559988   7.4124247  81.7966565  22.3425747
  13.2370012  79.2944997  29.1869988  12.5610012  79.4254997  29.8509988
  12.7520012  79.1394997  28.3769988  13.0787145  79.2914905  29.1684517
   5.9880012  82.8834997  19.9729988   5.4450012  82.5034997  19.2809988
   6.8210012  83.0774997  19.5439988   6.0264399  82.8578124  19.8204526
  16.5250012  94.9664997  35.4639988  16.7250012  95.3904997  34.6289988
  17.1800012  95.3094997  36.0709988  16.6410051  95.0709648  35.4317836
   4.1230012  87.4404997  35.0719988   4.8550012  87.6944997  35.6329988
   3.3430012  87.6444997  35.5869988   4.1178232  87.5029177  35.2185760
  10.1520012  82.8474997  27.8099988  10.7170012  82.3004997  27.2629988
  10.0050012  82.3254997  28.5979988  10.2092918  82.7022024  27.8418454
   5.1540012  78.9834997  24.2279988   4.8370012  78.0814997  24.1929988
   5.9360012  78.9854997  23.6749988   5.2162284  78.8601628  24.1484783
   8.7790012  81.2354997  30.2239988   7.9430012  81.6894997  30.3339988
   9.3030012  81.5114997  30.9759988   8.7354414  81.3349376  30.3407136
   9.3230012  87.4484997  21.9079988   8.5780012  86.9414997  21.5859988
   9.1890012  87.4974997  22.8549988   9.2028776  87.3856940  21.9918647
  16.4730012  86.5814997  30.6949988  17.1150012  87.0384997  30.1509988
  15.6430012  86.6944997  30.2319988  16.4485963  86.6592704  30.5580177
  13.2210012  80.2624997  20.1079988  12.2820012  80.3744997  19.9559988
  13.5180012  81.1194997  20.4139988  13.1327666  80.3936443  20.1285768
  10.8420012  87.6324997  33.1449988  10.4970012  87.2514997  33.9519988
  10.6420012  88.5664997  33.2169988  10.7678061  87.7065228  33.2650961
  13.9390012  82.1294997  21.7679988  14.8310012  81.9924997  22.0869988
  13.9960012  82.9204997  21.2319988  14.0686285  82.2176660  21.7391691
   4.4480012  86.7434997  27.6779988   5.1930012  86.7414997  27.0769988
   4.5260012  85.9204997  28.1599988   4.5605518  86.6319315  27.6608929
  11.4490012  88.9074997  20.9339988  11.1530012  89.7334997  21.3149988
  10.7460012  88.2874997  21.1299988  11.3134914  88.9368199  21.0126443
   1.4560012  85.2044997  32.9929988   1.6790012  84.7864997  33.8249988
   0.8540012  84.5914997  32.5699988   1.4051759  85.0644668  33.0497022
   8.4720012  84.7214997  35.2059988   8.1760012  84.5554997  34.3109988
   9.4040012  84.5014997  35.1949988   8.5574166  84.6690640  35.0820536
  13.0930012  90.0944997  33.0959988  12.1920012  90.2774997  32.8279988
  13.1270012  90.3534997  34.0169988  12.9743041  90.1545512  33.1838197
  18.8240012  82.3394997  21.4629988  18.2700012  81.9434997  20.7909988
  18.9240012  83.2494997  21.1849988  18.7617059  82.4083586  21.3334401
  18.7870012  88.1394997  34.2999988  17.9360012  88.3774997  33.9329988
  19.3780012  88.1224997  33.5469988  18.7502487  88.1698258  34.1478893
  17.1190012  91.1254997  21.9279988  16.7460012  90.2994997  22.2369988
  17.3970012  90.9424997  21.0309988  17.1055630  90.9877303  21.8489626
  14.2800012  85.9334997  28.9489988  13.3510012  85.7014997  28.9219988
  14.7310012  85.1564997  28.6189988  14.2139216  85.7967238  28.9006917
   6.8230012  90.2614997  25.0819988   7.3500012  91.0344997  24.8819988
   5.9430012  90.4864997  24.7809988   6.7761773  90.3978005  25.0139010
   2.5780012  85.1234997  19.6689988   3.1940012  85.7504997  20.0489988
   1.7160012  85.4394997  19.9409988   2.5457698  85.2519430  19.7577183
   8.2500012  87.9244997  24.6589988   8.0090012  88.8494997  24.6999988
   7.5090012  87.4654997  25.0549988   8.1168409  87.9891421  24.7181377
   8.7650012  92.0734997  30.9739988   9.1270012  92.9284997  30.7399988
   9.2960012  91.7814997  31.7139988   8.8864473  92.1511060  31.0420855
   6.9330012  92.9464997  24.2039988   5.9830012  93.0514997  24.2549988
   7.2850012  93.7664997  24.5489988   6.8504203  93.0718314  24.2576650
  12.3090012  88.1724997  30.6739988  11.8830012  87.9454997  31.5009988
  12.8890012  87.4344997  30.4919988  12.3291868  88.0415299  30.7625830
  14.5120012  89.1014997  19.7479988  14.8650012  88.7214997  20.5529988
  13.5630012  89.0084997  19.8349988  14.4320441  89.0369596  19.8698559
  14.9670012  92.7244997  33.1439988  14.3660012  92.1694997  32.6479988
  15.2490012  93.3914997  32.5179988  14.9228519  92.7386841  32.9914952
  19.0150012  93.5814997  19.9489988  19.7590012  94.1674997  19.8089988
  18.3210012  94.1494997  20.2829988  19.0230292  93.7385582  19.9749961
   3.0900012  79.9574997  32.5509988   2.1970012  80.2964997  32.4829988
   2.9910012  79.1024997  32.9689988   2.9544164  79.8882588  32.5982235
  15.3780012  87.7744997  21.9749988  15.1000012  87.0464997  22.5309988
  16.3050012  87.8934997  22.1799988  15.4653124  87.6908802  22.0788845
   2.7410012  91.7624997  30.9859988   2.9580012  90.8304997  30.9549988
   2.9870012  92.0364997  31.8689988   2.8039549  91.6720636  31.1011763
   8.6030012  90.2134997  18.1949988   8.8420012  89.4654997  17.6479988
   8.3340012  89.8254997  19.0279988   8.5993675  90.0586638  18.2326865
   7.5400012  89.7834997  20.6519988   7.6860012  89.2634997  21.4419988
   7.5370012  90.6904997  20.9579988   7.5595989  89.8348853  20.8016088
   3.9930012  87.0364997  21.1619988   3.3070012  87.3884997  21.7289988
   4.5150012  87.7994997  20.9149988   3.9696852  87.1878578  21.2062118
  11.8240012  79.6984997  31.4409988  12.5230012  79.7724997  32.0909988
  11.4430012  78.8344997  31.5949988  11.8681767  79.5917624  31.5508322
  12.6090012  79.3504997  22.5379988  12.8290012  79.8224997  21.7349988
  13.1670012  79.7454997  23.2079988  12.7144968  79.4684285  22.5187331
  10.2770012  91.4814997  21.4009988   9.4610012  91.9784997  21.4529988
  10.8070012  91.9564997  20.7609988  10.2369161  91.6137722  21.3215956
   9.8090012  81.0784997  23.3729988  10.6210012  81.5834997  23.4189988
   9.5640012  80.9334997  24.2869988   9.8870520  81.1280375  23.5028517
  10.3440012  82.0644997  32.5579988  10.4630012  82.6384997  33.3149988
  11.0000012  81.3764997  32.6719988  10.4489757  82.0501079  32.6770825
  10.6920012  78.1594997  24.3109988  10.3460012  78.7774997  24.9559988
  11.3510012  78.6604997  23.8299988  10.7337826  78.3115802  24.3340971
   7.6160012  92.5254997  21.3829988   7.7760012  93.3244997  20.8819988
   7.4180012  92.8314997  22.2679988   7.6111649  92.6764469  21.4339815
   6.3500012  79.2224997  20.9979988   6.2670012  80.1114997  21.3449988
   7.2400012  78.9574997  21.2299988   6.4589469  79.3081430  21.0767626
  16.5490012  79.9714997  33.3929988  15.6320012  80.2344997  33.3049988
  16.8840012  79.9684997  32.4959988  16.4689900  80.0070224  33.2597919
  15.1510012  83.7224997  27.4879988  14.3530012  83.3074997  27.1599988
  15.5960012  83.0314997  27.9789988  15.1019885  83.5723543  27.5094889
   4.6090012  89.6504997  20.0589988   5.2010012  90.3494997  20.3349988
   5.0680012  89.2174997  19.3389988   4.7521142  89.6877049  19.9994830
   2.9250012  82.3144997  19.1749988   2.8800012  83.2534997  19.3529988
   2.0370012  82.0784997  18.9049988   2.7988574  82.4111892  19.1628912
  16.2370012  92.9784997  29.1109988  16.0820012  93.6564997  28.4539988
  17.1700012  93.0504997  29.3139988  16.3418500  93.0810170  29.0485119
   3.7330012  77.0964997  27.8479988   3.5040012  77.1554997  26.9199988
   3.2900012  76.3044997  28.1539988   3.6418530  76.9975753  27.7624786
   2.6630012  91.0364997  24.0079988   1.8310012  91.5094997  24.0359988
   3.2090012  91.5464997  23.4099988   2.6229739  91.1701871  23.9309716
   1.9510012  93.6494997  35.3379988   2.4920012  93.4324997  36.0979988
   1.4700012  92.8434997  35.1489988   1.9599345  93.5109514  35.4163076
   6.5490012  92.5684997  36.9589988   7.3160012  92.1094997  37.2999988
   6.5270012  92.3424997  36.0289988   6.6511434  92.4750409  36.8800043
  10.6410012  92.0764997  18.3339988   9.9970012  91.4454997  18.6549988
  11.4030012  91.5454997  18.1019988  10.6558077  91.9182920  18.3466011
  13.1260012  90.9484997  35.6879988  12.7750012  90.0924997  35.9309988
  13.8520012  91.0914997  36.2949988  13.1760769  90.8505636  35.8033619
  15.2450012  91.8934997  18.5679988  15.5280012  91.0994997  19.0199988
  15.9850012  92.1264997  18.0069988  15.3837486  91.8162803  18.5540698
   1.8580012  87.4594997  36.2929988   2.0020012  86.5574997  36.0059988
   1.0860012  87.7454997  35.8049988   1.7733322  87.3748261  36.1877881
   6.2000012  87.8034997  18.4249988   6.2640012  87.0094997  18.9559988
   6.8530012  87.6844997  17.7349988   6.2970241  87.6787148  18.4044317
   8.5140012  87.4294997  35.7249988   8.1850012  87.7004997  34.8679988
   8.6660012  86.4884997  35.6379988   8.4894809  87.3393862  35.5958244
  11.5520012  88.8504997  18.1609988  11.2830012  89.0304997  19.0619988
  11.3460012  87.9244997  18.0299988  11.4873825  88.7500152  18.2665214
  14.2480012  87.3454997  33.1089988  14.9940012  87.9334997  32.9889988
  13.4910012  87.9274997  33.1719988  14.2477554  87.5047011  33.1010907
   2.6910012  84.6594997  35.7129988   3.0990012  83.8024997  35.5919988
   2.4310012  84.6744997  36.6339988   2.7117568  84.5440807  35.8209588
   7.3490012  85.7754997  20.7309988   6.8890012  85.2914997  21.4169988
   7.6040012  85.1074997  20.0949988   7.3204902  85.6188731  20.7389334
   6.6380012  83.6684997  33.0869988   6.0200012  84.3434997  33.3669988
   6.9820012  83.9894997  32.2539988   6.5999615  83.8042721  33.0126581
   8.4200012  84.0184997  18.9929988   8.2400012  83.8644997  18.0659988
   9.3700012  84.1264997  19.0379988   8.5237776  84.0120175  18.8721843
  11.6580012  86.1404997  36.3639988  12.6110012  86.2234997  36.3369988
  11.4970012  85.4284997  36.9839988  11.7666426  86.0556746  36.4440579
  17.8100012  86.3734997  18.4389988  17.5360012  85.9484997  17.6259988
  17.8490012  87.3044997  18.2219988  17.7777699  86.4412484  18.2983610
   6.9770012  81.0234997  34.1689988   7.1270012  80.2944997  33.5669988
   6.9800012  81.8004997  33.6099988   6.9979302  81.0287851  34.0110692
   7.3900012  79.3934997  31.6619988   7.9260012  79.8444997  31.0099988
   6.5380012  79.2854997  31.2389988   7.3482178  79.4406390  31.5155756
   8.9720012  84.8324997  31.9009988   9.7220012  84.6764997  31.3279988
   8.6330012  85.6844997  31.6259988   9.0288921  84.9262968  31.7853561
  13.3870012  82.6474997  36.9299988  13.5800012  81.7164997  36.8179988
  14.2450012  83.0724997  36.9199988  13.5293020  82.5776389  36.9133361
  14.7040012  85.4364997  35.0069988  14.4230012  86.1454997  34.4299988
  15.6470012  85.3634997  34.8559988  14.7929027  85.5237646  34.9075551
   5.4560012  82.2214997  36.0809988   4.6890012  81.6894997  35.8709988
   6.1350012  81.9114997  35.4809988   5.4427022  82.1067506  35.9711648
   8.1960012  76.8494997  32.0929988   8.0970012  77.7964997  31.9879988
   7.4530012  76.4774997  31.6179988   8.0820564  76.9285902  32.0144560
   9.4600012  81.1714997  35.6569988   9.2240012  80.9514997  36.5589988
   8.6760012  80.9644997  35.1469988   9.3218628  81.1134760  35.7113932
  12.1750012  80.2984997  34.7329988  11.2280012  80.3304997  34.8649988
  12.4880012  79.6734997  35.3859988  12.0875475  80.2183207  34.8394455
  13.8090012  78.9324997  36.7379988  13.7130012  77.9804997  36.7319988
  13.4880012  79.2014997  37.5979988  13.7524070  78.8384035  36.8535441
   3.6360012  80.1424997  35.7849988   3.8480012  79.4354997  35.1749988
   3.5250012  79.7044997  36.6289988   3.6499721  79.9867084  35.8156843
   8.4170012  76.1434997  34.7649988   9.1290012  75.5034997  34.7509988
   8.3160012  76.4104997  33.8509988   8.5007939  76.0919938  34.6395650
   8.7710012  77.8264997  36.8179988   8.6390012  77.3504997  35.9979988
   8.1720012  78.5704997  36.7629988   8.6719071  77.8619618  36.6982886
   8.3170012  94.7094997  19.9949988   9.2500012  94.8674997  20.1379988
   8.0530012  95.3844997  19.3699988   8.4089510  94.8223611  19.9300741
   1.8860012  89.3454997  19.4769988   2.8000012  89.4244997  19.7509988
   1.8930012  88.6584997  18.8109988   2.0121131  89.2633961  19.4244393
   0.5350012  94.7384997  24.5549988  -0.1119988  94.2764997  24.0219988
   0.8890012  94.0664997  25.1369988   0.4943849  94.5844723  24.5607959
   1.4050012  92.8194997  26.3589988   1.0700012  91.9394997  26.5309988
   1.6270012  93.1644997  27.2239988   1.3891783  92.7457500  26.4994208
  18.9530012  93.6284997  29.3399988  18.9320012  93.8134997  30.2789988
  19.6440012  94.1974997  28.9989988  19.0434618  93.7306606  29.4223864
  18.5170012  93.1964997  32.2619988  18.0290012  92.4604997  31.8909988
  19.0660012  92.8024997  32.9399988  18.5244872  93.0426249  32.3029160
  16.9670012  88.9854997  36.8999988  16.1010012  88.8804997  37.2939988
  17.3440012  89.7444997  37.3459988  16.8993308  89.0736900  37.0142393
  18.2680012  87.2424997  22.4139988  19.1180012  87.6634997  22.5409988
  18.2740012  86.5024997  23.0209988  18.3851372  87.2000803  22.5134344
  18.6630012  85.2954997  24.2379988  17.9360012  84.8164997  24.6349988
  19.2440012  85.5014997  24.9699988  18.6419375  85.2577090  24.3914129
  18.4220012  88.0804997  29.1849988  19.2550012  87.7024997  28.9049988
  18.5340012  89.0234997  29.0659988  18.5512647  88.1562218  29.1305487
  16.9080012  90.9584997  31.4919988  16.2610012  91.2834997  32.1179988
  16.3910012  90.5184997  30.8179988  16.7494029  90.9435004  31.4865827
  18.9310012  85.1964997  20.6289988  18.4090012  85.5534997  19.9099988
  18.8980012  85.8714997  21.3069988  18.8551634  85.3365413  20.6223145
  17.2800012  82.4364997  19.1799988  17.3760012  83.1034997  18.4989988
  17.1400012  81.6204997  18.6979988  17.2742135  82.4174500  19.0218491
  16.4490012  83.8164997  24.8009988  16.2990012  82.8714997  24.7799988
  16.0960012  84.0974997  25.6439988  16.3806625  83.7250441  24.9122346
   1.4850012  85.8944997  28.8109988   1.6690012  85.8124997  27.8749988
   2.3340012  85.7704997  29.2349988   1.6250139  85.8665003  28.7401455
  17.3060012  85.7864997  34.4389988  17.8890012  85.0524997  34.6309988
  17.8700012  86.5584997  34.4859988  17.4619769  85.7904227  34.4716159
  18.8020012  83.6894997  35.1239988  17.9390012  83.3104997  34.9579988
  19.4070012  82.9504997  35.0499988  18.7655979  83.5378023  35.0912817
  16.5270012  79.8444997  18.2969988  17.1380012  79.4734997  18.9339988
  15.6910012  79.4234997  18.4929988  16.4975032  79.7367554  18.4107035
  16.1600012  81.3994997  23.2629988  16.4400012  80.4924997  23.3869988
  16.9190012  81.8334997  22.8739988  16.3009277  81.3340942  23.2273682
  16.7720012  81.9804997  28.6989988  17.7050012  82.1924997  28.6649988
  16.5370012  82.0824997  29.6209988  16.8678036  82.0232769  28.8189976
  16.8010012  82.7174997  31.4749988  15.9580012  82.9854997  31.8409988
  17.2430012  83.5394997  31.2639988  16.7454158  82.8653291  31.4965491
   1.0820012  81.1654997  34.9519988   2.0020012  81.0434997  35.1879988
   0.6330012  80.4154997  35.3409988   1.1471580  81.0473727  35.0369006
  19.0840012  76.6974997  36.8279988  19.4340012  76.0434997  36.2229988
  19.2310012  77.5344997  36.3889988  19.1518419  76.7211591  36.6857118
  16.7730012  78.6624997  23.3109988  16.9560012  78.2134997  24.1369988
  16.1740012  78.0774997  22.8479988  16.7170202  78.5219975  23.3613275
   2.3030012  79.4774997  27.8429988   2.7490012  78.6854997  28.1449988
   2.7700012  80.1934997  28.2739988   2.4270172  79.4660624  27.9424820
   0.6070012  82.4764997  28.9119988   1.0990012  82.2554997  28.1209988
   0.9700012  83.3174997  29.1929988   0.7233126  82.5598357  28.8417531
  18.6040012  78.8064997  35.1779988  17.6860012  79.0774997  35.1419988
  18.7270012  78.2714997  34.3929988  18.4951066  78.7712892  35.0670487
  18.6400012  78.7294997  19.8389988  19.0520012  78.0084997  19.3639988
  19.3220012  79.3994997  19.8979988  18.7885885  78.7212368  19.7818915
   0.9210012  78.7344997  22.9659988  -0.0039988  78.9434997  22.8369988
   1.3750012  79.2184997  22.2769988   0.8557368  78.8285993  22.8551226
  15.6920012  93.7184997  24.9119988  16.3440012  93.3714997  24.3039988
  16.2020012  94.2074997  25.5579988  15.8502637  93.7370597  24.9160236
   0.8850012  77.4724997  31.3109988   0.2200012  77.2264997  31.9539988
   0.4420012  78.0944997  30.7329988   0.7340956  77.5228632  31.3209352
   3.0770012  90.6474997  35.4549988   2.2560012  90.8224997  34.9949988
   2.8240012  90.5744997  36.3759988   2.9306164  90.6615622  35.5164923
   6.0310012  91.6224997  31.7139988   5.6060012  92.4314997  31.4309988
   6.9350012  91.7074997  31.4119988   6.0950271  91.7448469  31.6343776
  10.3420012  93.0214997  34.6729988  10.5270012  92.6874997  35.5509988
  11.1880012  93.3304997  34.3509988  10.4817539  93.0176047  34.7495605
  12.6870012  94.3074997  33.9169988  13.3640012  93.6744997  33.6769988
  13.0090012  94.7084997  34.7239988  12.8231637  94.2751154  33.9932793
  17.6040012  76.8964997  32.9969988  16.7920012  77.2214997  32.6089988
  17.8370012  76.1364997  32.4639988  17.5243423  76.8382436  32.8718253
   3.4330012  94.8784997  31.7609988   2.7120012  95.3184997  31.3099988
   3.0670012  94.6274997  32.6099988   3.2849804  94.9047698  31.8139840
   5.9000012  94.4784997  30.7909988   5.0350012  94.5504997  31.1949988
   5.8450012  95.0254997  30.0069988   5.7742085  94.5622685  30.7403362
  10.6100012  94.3664997  29.9659988  10.1540012  94.8954997  29.3119988
  10.7730012  94.9694997  30.6919988  10.5695585  94.5204468  29.9745062
  12.9380012  93.2444997  30.9109988  12.0330012  93.4094997  30.6459988
  13.3670012  94.0974997  30.8459988  12.8720799  93.3824483  30.8659182
  15.5420012  94.8144997  31.2059988  15.3600012  95.7304997  30.9959988
  15.7190012  94.4044997  30.3599988  15.5410210  94.8844822  31.0627885
   2.8470012  93.5014997  28.6709988   2.8290012  93.0764997  29.5289988
   3.6520012  93.1834997  28.2629988   2.9533875  93.4003812  28.7331655
   4.9890012  92.2114997  27.3259988   4.7700012  91.2954997  27.4959988
   5.8130012  92.3514997  27.7919988   5.0704420  92.1050520  27.4122774
   7.5260012  92.6814997  28.1749988   7.7390012  91.7934997  27.8879988
   7.5900012  92.6474997  29.1289988   7.5638232  92.5553102  28.2647397
  11.0340012  78.3454997  27.3189988  10.3600012  77.7164997  27.5749988
  11.5980012  77.8614997  26.7159988  11.0179230  78.1938744  27.2725340
  16.1770012  76.4534997  27.4319988  16.7810012  77.0004997  26.9299988
  15.3070012  76.7724997  27.1919988  16.1421241  76.5715806  27.3307654
  17.9040012  77.5914997  25.7649988  18.5160012  77.0774997  25.2389988
  18.2860012  78.4694997  25.7889988  18.0394540  77.6397140  25.6961830
   3.3610012  76.9794997  25.1409988   2.5840012  76.7454997  24.6339988
   3.8910012  76.1824997  25.1499988   3.3262330  76.8396988  25.0727742
   2.1970012  76.7774997  20.9449988   2.6360012  77.3884997  20.3529988
   1.5640012  77.3154997  21.4189988   2.1714514  76.9339257  20.9280930
   7.9400012  76.9064997  24.9549988   8.8150012  77.2944997  24.9249988
   7.8040012  76.6914997  25.8769988   8.0413695  76.9305184  25.0756440
  13.4970012  76.9364997  26.6039988  13.5730012  77.0314997  25.6539988
  13.2220012  76.0284997  26.7329988  13.4702321  76.8267867  26.4915079
  14.8500012  76.9624997  22.2959988  14.1480012  77.5774997  22.0869988
  14.4060012  76.1244997  22.4269988  14.6936330  76.9335783  22.2850328
   2.0980012  92.7254997  21.8429988   1.4130012  92.6874997  21.1749988
   2.1020012  93.6384997  22.1309988   2.0048193  92.8437016  21.7905284
   4.0580012  78.6934997  19.3869988   4.5500012  78.0634997  18.8599988
   4.6820012  78.9894997  20.0509988   4.2095446  78.6473199  19.4045980
   9.0840012  78.9864997  21.8439988   9.2620012  78.3404997  22.5269988
   9.0310012  79.8204997  22.3119988   9.1011829  79.0107985  22.0005940
  10.9630012  93.9354997  20.2399988  11.8290012  94.3014997  20.0619988
  10.7160012  93.4954997  19.4259988  11.0482392  93.9261756  20.1056289
  17.6720012  93.4984997  22.9189988  17.4770012  92.7504997  22.3539988
  17.6330012  94.2564997  22.3359988  17.6400380  93.4986099  22.7628384
   3.3190012  77.4934997  34.6589988   2.9530012  76.7284997  35.1019988
   4.2320012  77.5224997  34.9459988   3.3922790  77.3927224  34.7584070
   5.2920012  76.8444997  36.1949988   6.1900012  76.5704997  36.0099988
   4.9050012  76.1014997  36.6589988   5.3626612  76.7065914  36.2323643
   3.9160012  93.6454997  18.8679988   3.6490012  93.9324997  19.7409988
   4.6880012  93.0994997  19.0199988   3.9837488  93.6110294  19.0081050
  13.7130012  76.1764997  36.3769988  13.7900012  75.7504997  37.2309988
  14.6070012  76.1904997  36.0339988  13.8443428  76.1200879  36.4475310
  16.8890012  92.2494997  35.0689988  16.1070012  92.0634997  34.5499988
  16.8170012  93.1784997  35.2869988  16.7721777  92.3496492  35.0274048
  31.2950012  86.1354997  25.0999988  31.3840012  87.0794997  24.9679988
  30.6570012  85.8604997  24.4419988  31.2209081  86.2274830  24.9929614
  30.2280012  85.3904997  28.5189988  30.1900012  84.7444997  29.2239988
  29.9060012  84.9244997  27.7479988  30.1792333  85.2389408  28.5112978
  22.5970012  85.0054997  30.1119988  22.6380012  84.3794997  30.8349988
  23.3000012  85.6294997  30.2939988  22.6976363  85.0041196  30.2356044
  33.9340012  88.3294997  26.8199988  33.4940012  87.6094997  27.2709988
  33.9210012  89.0504997  27.4499988  33.8720226  88.3283731  26.9668494
  23.5200012  89.4554997  28.6469988  23.1510012  88.6534997  28.2769988
  24.4610012  89.2864997  28.6929988  23.5967289  89.3230153  28.6026316
  20.1300012  83.1154997  24.0399988  19.6830012  83.9614997  24.0209988
  19.5690012  82.5354997  23.5239988  19.9929900  83.1529916  23.9676801
  20.8410012  85.2774997  26.1659988  21.0540012  84.5074997  26.6929988
  21.5790012  85.3664997  25.5619988  20.9698496  85.1841394  26.1565300
  31.0460012  93.4344997  27.0329988  31.6660012  92.7574997  26.7589988
  30.8380012  93.2164997  27.9409988  31.1026904  93.3123870  27.1183365
  28.6180012  87.8234997  28.9249988  28.9220012  87.1374997  28.3299988
  29.3390012  87.9414997  29.5429988  28.7570671  87.7456304  28.9271816
  37.2810012  79.4244997  29.7859988  37.3300012  80.0344997  30.5219988
  37.7060012  79.8854997  29.0629988  37.3451824  79.5703741  29.7890205
  31.7590012  82.2174997  29.2529988  31.9010012  81.2714997  29.2729988
  31.6520012  82.4244997  28.3239988  31.7639864  82.1159534  29.1302339
  24.9130012  80.3184997  26.5249988  24.9570012  81.1784997  26.1069988
  24.4560012  79.7664997  25.8909988  24.8572185  80.3615799  26.3820299
  32.6360012  80.4494997  24.9259988  33.2820012  80.1204997  25.5509988
  33.1460012  80.9674997  24.3029988  32.7934264  80.4744611  24.9273862
  21.5340012  82.7154997  27.2869988  22.1870012  82.1654997  27.7189988
  21.5580012  82.4414997  26.3699988  21.6266683  82.6031466  27.2222123
  26.6900012  84.2654997  26.5019988  27.3060012  83.7394997  27.0119988
  26.1040012  83.6254997  26.0989988  26.6950810  84.1069208  26.5173173
  37.6720012  80.9024997  32.0219988  36.9840012  81.5604997  31.9259988
  37.6880012  80.7054997  32.9579988  37.5798525  80.9660462  32.1354808
  23.7240012  79.2364997  30.5989988  23.5050012  79.7664997  29.8329988
  23.0560012  79.4634997  31.2459988  23.6037600  79.3396906  30.5816379
  31.0930012  88.7364997  24.1429988  30.7970012  88.4144997  23.2919988
  30.7680012  89.6364997  24.1839988  31.0086371  88.8140215  24.0321801
  26.2930012  86.9124997  30.8859988  25.5530012  87.5104997  30.9899988
  27.0070012  87.4664997  30.5709988  26.2882237  87.0692831  30.8576465
  34.4000012  79.7404997  26.9059988  34.1840012  78.9744997  27.4389988
  35.0550012  80.2124997  27.4189988  34.4590632  79.6995889  27.0482861
  23.3170012  81.1284997  28.5509988  23.9310012  81.7614997  28.9249988
  23.8290012  80.6564997  27.8949988  23.4702296  81.1512370  28.5134252
  24.7000012  88.8764997  31.6739988  24.6950012  89.7564997  31.2959988
  23.8470012  88.7934997  32.0989988  24.5839464  88.9856117  31.6797907
  20.8210012  88.5474997  22.4559988  20.5490012  88.7764997  21.5669988
  20.8670012  89.3854997  22.9159988  20.7900094  88.6921213  22.3965697
  34.4460012  90.1694997  29.1679988  33.5050012  90.2274997  29.3299988
  34.7230012  91.0754997  29.0309988  34.3544679  90.2999443  29.1716815
  34.7470012  78.4554997  30.5859988  34.0110012  79.0664997  30.5479988
  35.4300012  78.8704997  30.0589988  34.7386541  78.5951374  30.5095832
  27.7500012  76.5424997  28.0519988  27.6330012  75.5934997  27.9969988
  26.8950012  76.8744997  28.3249988  27.6183733  76.4575409  28.0813897
  32.6980012  91.9504997  25.7939988  33.1240012  91.2434997  25.3089988
  33.0150012  92.7514997  25.3769988  32.7991019  91.9620994  25.6713130
  33.8580012  89.8514997  24.3019988  33.6000012  89.1614997  23.6909988
  33.9290012  89.4084997  25.1479988  33.8322856  89.6972124  24.3326885
  35.5440012  88.4174997  32.7799988  35.6840012  87.8264997  32.0399988
  35.7110012  89.2904997  32.4229988  35.5856778  88.4546426  32.6306965
  30.0170012  85.3794997  22.5519988  29.3050012  85.9144997  22.1999988
  30.7080012  85.4354997  21.8919988  30.0130132  85.4602543  22.4146289
  30.0700012  83.8374997  19.5909988  30.7710012  83.8594997  20.2419988
  30.3730012  83.2094997  18.9349988  30.2067830  83.7556566  19.5913711
  37.3860012  84.7574997  30.8459988  36.7330012  85.4524997  30.9349988
  37.8510012  84.9674997  30.0359988  37.3595390  84.8809425  30.7486883
  33.4220012  85.5894997  23.5039988  32.6900012  85.8174997  24.0769988
  33.8700012  84.8754997  23.9589988  33.3823095  85.5242571  23.6439119
  33.3200012  83.7634997  32.5709988  33.4000012  84.5264997  33.1429988
  32.7180012  84.0424997  31.8809988  33.2495756  83.9057134  32.5560589
  25.0680012  86.2194997  25.3859988  24.7370012  85.8494997  24.5679988
  25.6560012  85.5494997  25.7329988  25.1021873  86.0781156  25.3208102
  26.4340012  89.6474997  28.0679988  26.3400012  89.0694997  27.3109988
  27.1640012  89.2764997  28.5639988  26.5197981  89.5182390  28.0314165
  25.4340012  84.9884997  29.0199988  26.0000012  85.1094997  28.2569988
  25.7530012  85.6254997  29.6589988  25.5545786  85.0911884  29.0020040
  31.7430012  90.4914997  29.7539988  31.5030012  91.1534997  30.4019988
  31.5450012  89.6574997  30.1789988  31.6833808  90.4693134  29.9001524
  26.3140012  89.3874997  33.7369988  26.0030012  90.1694997  34.1919988
  25.6640012  89.2344997  33.0509988  26.1835558  89.4739105  33.7065871
  32.2930012  84.7514997  21.1889988  32.8730012  84.9014997  21.9359988
  32.7070012  85.2224997  20.4659988  32.4282830  84.8356841  21.1934134
  23.2340012  85.5854997  32.9659988  23.3050012  86.2364997  33.6639988
  22.3440012  85.6884997  32.6309988  23.1233117  85.6885936  33.0162700
  30.0200012  91.4884997  24.6239988  30.4940012  91.7834997  25.4019988
  29.4570012  92.2264997  24.3909988  30.0087653  91.6286932  24.6990136
  24.5540012  91.4594997  34.4999988  24.5610012  91.3234997  33.5529988
  23.6380012  91.3414997  34.7519988  24.4311714  91.4249430  34.4044666
  35.9920012  76.5014997  21.0019988  35.0920012  76.6404997  21.2969988
  36.2440012  77.3324997  20.5999988  35.9028702  76.6329074  20.9880205
  24.0580012  85.2894997  22.9759988  23.7660012  86.0574997  22.4849988
  23.3840012  84.6294997  22.8129988  23.9269081  85.3054406  22.8867340
  37.1810012  90.8674997  19.3779988  37.2550012  91.8064997  19.5489988
  38.0870012  90.5624997  19.3219988  37.3135100  90.9546722  19.3938119
  20.1510012  87.6524997  31.7909988  19.6500012  87.6244997  30.9759988
  20.1560012  86.7464997  32.0999988  20.0831526  87.5262278  31.7212872
  19.9010012  90.4324997  28.6749988  20.8470012  90.2884997  28.6559988
  19.7890012  91.2164997  29.2119988  20.0152727  90.5188046  28.7450072
  38.0990012  91.0984997  34.3569988  38.0500012  90.1434997  34.3199988
  37.2720012  91.3664997  34.7579988  37.9804940  91.0038998  34.4061375
  29.0780012  90.6724997  33.2329988  29.1650012  91.4984997  33.7079988
  28.2140012  90.3424997  33.4819988  28.9731964  90.7409878  33.3316549
  29.4920012  94.4444997  23.0389988  29.4170012  94.3234997  22.0929988
  29.5250012  95.3944997  23.1579988  29.4861848  94.5562500  22.9254834
  23.1450012  93.2334997  24.8199988  23.2980012  92.8854997  25.6989988
  22.2950012  92.8774997  24.5649988  23.0508962  93.1376650  24.9058340
  32.5940012  93.5984997  20.0409988  32.9690012  92.8544997  19.5709988
  32.5980012  93.3284997  20.9599988  32.6458915  93.4601486  20.1007824
  32.2630012  93.5244997  22.7909988  31.3270012  93.6244997  22.9689988
  32.5430012  92.8154997  23.3689988  32.1728255  93.4422711  22.8935391
  35.2510012  82.5914997  34.8369988  34.8440012  83.0724997  34.1159988
  35.2920012  81.6864997  34.5289988  35.2008437  82.5349374  34.6966683
  22.4000012  88.9754997  32.8339988  22.6160012  88.6144997  33.6929988
  21.5450012  88.6014997  32.6239988  22.3139292  88.8754111  32.9233386
  25.0190012  77.4454997  28.8289988  24.1570012  77.3584997  28.4219988
  24.9960012  78.3014997  29.2569988  24.8980330  77.5492765  28.8311863
  29.6820012  77.1674997  32.2039988  30.1020012  76.7524997  32.9569988
  28.7490012  76.9894997  32.3209988  29.6133644  77.0865900  32.3229539
  33.0080012  80.9234997  33.0569988  32.4940012  80.7974997  33.8549988
  32.8530012  81.8354997  32.8129988  32.9166852  81.0296132  33.1332158
  33.7710012  85.7844997  18.8189988  33.8130012  85.5614997  17.8889988
  34.6200012  86.1834997  19.0089988  33.8915396  85.8079155  18.7173627
  29.3430012  79.6604997  19.4889988  29.0900012  79.6794997  20.4119988
  29.0870012  78.7884997  19.1879988  29.2737790  79.5452437  19.5746263
  25.1100012  82.4114997  29.9239988  24.4680012  82.3704997  30.6329988
  25.1470012  83.3374997  29.6869988  25.0271324  82.5311559  29.9889824
  25.1070012  82.6324997  24.8359988  24.2140012  82.2914997  24.7779988
  25.5570012  82.2554997  24.0809988  25.0457305  82.5348484  24.7259177
  30.6420012  83.0484997  23.6529988  30.2330012  83.8634997  23.3619988
  31.3630012  82.9084997  23.0389988  30.6834537  83.1412018  23.5301342
  29.7440012  83.2234997  35.1409988  29.1820012  82.5194997  35.4619988
  30.5710012  83.1034997  35.6089988  29.7787095  83.1107883  35.2482330
  31.6470012  82.4944997  26.4669988  31.4520012  83.0994997  25.7519988
  31.8280012  81.6604997  26.0329988  31.6447614  82.4646300  26.3104405
  22.8600012  82.7314997  31.7909988  22.8220012  83.1314997  32.6599988
  22.3690012  81.9144997  31.8819988  22.7884684  82.6758069  31.9221059
  26.2260012  80.1054997  18.5899988  25.7950012  79.6604997  19.3199988
  25.5080012  80.4774997  18.0779988  26.0699438  80.0948940  18.6206799
  19.4680012  79.8474997  25.6419988  20.0990012  79.8184997  26.3609988
  19.9170012  79.4224997  24.9119988  19.6150774  79.7860492  25.6416553
  20.7420012  80.5934997  21.0659988  21.2160012  81.1844997  20.4809988
  20.0250012  81.1244997  21.4129988  20.7099341  80.7460867  21.0328836
  30.9110012  84.1324997  31.1389988  31.2340012  83.5014997  30.4959988
  30.4710012  83.5974997  31.7989988  30.8956895  83.9738441  31.1402850
  27.6880012  80.0594997  25.9229988  26.7770012  80.1164997  26.2109988
  28.1940012  79.9994997  26.7329988  27.6315413  80.0591985  26.0720622
  22.5170012  81.6884997  24.7489988  21.6270012  81.7884997  24.4089988
  22.8130012  80.8464997  24.4029988  22.4352823  81.5883545  24.6557213
  26.1700012  81.6884997  22.4059988  27.1010012  81.8174997  22.5839988
  25.9550012  82.3584997  21.7559988  26.2684247  81.7966565  22.3425747
  32.0930012  79.2944997  29.1869988  31.4170012  79.4254997  29.8509988
  31.6080012  79.1394997  28.3769988  31.9347145  79.2914905  29.1684517
  24.8440012  82.8834997  19.9729988  24.3010012  82.5034997  19.2809988
  25.6770012  83.0774997  19.5439988  24.8824399  82.8578124  19.8204526
  35.3810012  94.9664997  35.4639988  35.5810012  95.3904997  34.6289988
  36.0360012  95.3094997  36.0709988  35.4970051  95.0709648  35.4317836
  22.9790012  87.4404997  35.0719988  23.7110012  87.6944997  35.6329988
  22.1990012  87.6444997  35.5869988  22.9738232  87.5029177  35.2185760
  29.0080012  82.8474997  27.8099988  29.5730012  82.3004997  27.2629988
  28.8610012  82.3254997  28.5979988  29.0652918  82.7022024  27.8418454
  24.0100012  78.9834997  24.2279988  23.6930012  78.0814997  24.1929988
  24.7920012  78.9854997  23.6749988  24.0722284  78.8601628  24.1484783
  27.6350012  81.2354997  30.2239988  26.7990012  81.6894997  30.3339988
  28.1590012  81.5114997  30.9759988  27.5914414  81.3349376  30.3407136
  28.1790012  87.4484997  21.9079988  27.4340012  86.9414997  21.5859988
  28.0450012  87.4974997  22.8549988  28.0588776  87.3856940  21.9918647
  35.3290012  86.5814997  30.6949988  35.9710012  87.0384997  30.1509988
  34.4990012  86.6944997  30.2319988  35.3045963  86.6592704  30.5580177
  32.0770012  80.2624997  20.1079988  31.1380012  80.3744997  19.9559988
  32.3740012  81.1194997  20.4139988  31.9887666  80.3936443  20.1285768
  29.6980012  87.6324997  33.1449988  29.3530012  87.2514997  33.9519988
  29.4980012  88.5664997  33.2169988  29.6238061  87.7065228  33.2650961
  32.7950012  82.1294997  21.7679988  33.6870012  81.9924997  22.0869988
  32.8520012  82.9204997  21.2319988  32.9246285  82.2176660  21.7391691
  23.3040012  86.7434997  27.6779988  24.0490012  86.7414997  27.0769988
  23.3820012  85.9204997  28.1599988  23.4165518  86.6319315  27.6608929
  30.3050012  88.9074997  20.9339988  30.0090012  89.7334997  21.3149988
  29.6020012  88.2874997  21.1299988  30.1694914  88.9368199  21.0126443
  20.3120012  85.2044997  32.9929988  20.5350012  84.7864997  33.8249988
  19.7100012  84.5914997  32.5699988  20.2611759  85.0644668  33.0497022
  27.3280012  84.7214997  35.2059988  27.0320012  84.5554997  34.3109988
  28.2600012  84.5014997  35.1949988  27.4134166  84.6690640  35.0820536
  31.9490012  90.0944997  33.0959988  31.0480012  90.2774997  32.8279988
  31.9830012  90.3534997  34.0169988  31.8303041  90.1545512  33.1838197
  37.6800012  82.3394997  21.4629988  37.1260012  81.9434997  20.7909988
  37.7800012  83.2494997  21.1849988  37.6177059  82.4083586  21.3334401
  37.6430012  88.1394997  34.2999988  36.7920012  88.3774997  33.9329988
  38.2340012  88.1224997  33.5469988  37.6062487  88.1698258  34.1478893
  35.9750012  91.1254997  21.9279988  35.6020012  90.2994997  22.2369988
  36.2530012  90.9424997  21.0309988  35.9615630  90.9877303  21.8489626
  33.1360012  85.9334997  28.9489988  32.2070012  85.7014997  28.9219988
  33.5870012  85.1564997  28.6189988  33.0699216  85.7967238  28.9006917
  25.6790012  90.2614997  25.0819988  26.2060012  91.0344997  24.8819988
  24.7990012  90.4864997  24.7809988  25.6321773  90.3978005  25.0139010
  21.4340012  85.1234997  19.6689988  22.0500012  85.7504997  20.0489988
  20.5720012  85.4394997  19.9409988  21.4017698  85.2519430  19.7577183
  27.1060012  87.9244997  24.6589988  26.8650012  88.8494997  24.6999988
  26.3650012  87.4654997  25.0549988  26.9728409  87.9891421  24.7181377
  27.6210012  92.0734997  30.9739988  27.9830012  92.9284997  30.7399988
  28.1520012  91.7814997  31.7139988  27.7424473  92.1511060  31.0420855
  25.7890012  92.9464997  24.2039988  24.8390012  93.0514997  24.2549988
  26.1410012  93.7664997  24.5489988  25.7064203  93.0718314  24.2576650
  31.1650012  88.1724997  30.6739988  30.7390012  87.9454997  31.5009988
  31.7450012  87.4344997  30.4919988  31.1851868  88.0415299  30.7625830
  33.3680012  89.1014997  19.7479988  33.7210012  88.7214997  20.5529988
  32.4190012  89.0084997  19.8349988  33.2880441  89.0369596  19.8698559
  33.8230012  92.7244997  33.1439988  33.2220012  92.1694997  32.6479988
  34.1050012  93.3914997  32.5179988  33.7788519  92.7386841  32.9914952
  37.8710012  93.5814997  19.9489988  38.6150012  94.1674997  19.8089988
  37.1770012  94.1494997  20.2829988  37.8790292  93.7385582  19.9749961
  21.9460012  79.9574997  32.5509988  21.0530012  80.2964997  32.4829988
  21.8470012  79.1024997  32.9689988  21.8104164  79.8882588  32.5982235
  34.2340012  87.7744997  21.9749988  33.9560012  87.0464997  22.5309988
  35.1610012  87.8934997  22.1799988  34.3213124  87.6908802  22.0788845
  21.5970012  91.7624997  30.9859988  21.8140012  90.8304997  30.9549988
  21.8430012  92.0364997  31.8689988  21.6599549  91.6720636  31.1011763
  27.4590012  90.2134997  18.1949988  27.6980012  89.4654997  17.6479988
  27.1900012  89.8254997  19.0279988  27.4553675  90.0586638  18.2326865
  26.3960012  89.7834997  20.6519988  26.5420012  89.2634997  21.4419988
  26.3930012  90.6904997  20.9579988  26.4155989  89.8348853  20.8016088
  22.8490012  87.0364997  21.1619988  22.1630012  87.3884997  21.7289988
  23.3710012  87.7994997  20.9149988  22.8256852  87.1878578  21.2062118
  30.6800012  79.6984997  31.4409988  31.3790012  79.7724997  32.0909988
  30.2990012  78.8344997  31.5949988  30.7241767  79.5917624  31.5508322
  31.4650012  79.3504997  22.5379988  31.6850012  79.8224997  21.7349988
  32.0230012  79.7454997  23.2079988  31.5704968  79.4684285  22.5187331
  29.1330012  91.4814997  21.4009988  28.3170012  91.9784997  21.4529988
  29.6630012  91.9564997  20.7609988  29.0929161  91.6137722  21.3215956
  28.6650012  81.0784997  23.3729988  29.4770012  81.5834997  23.4189988
  28.4200012  80.9334997  24.2869988  28.7430520  81.1280375  23.5028517
  29.2000012  82.0644997  32.5579988  29.3190012  82.6384997  33.3149988
  29.8560012  81.3764997  32.6719988  29.3049757  82.0501079  32.6770825
  29.5480012  78.1594997  24.3109988  29.2020012  78.7774997  24.9559988
  30.2070012  78.6604997  23.8299988  29.5897826  78.3115802  24.3340971
  26.4720012  92.5254997  21.3829988  26.6320012  93.3244997  20.8819988
  26.2740012  92.8314997  22.2679988  26.4671649  92.6764469  21.4339815
  25.2060012  79.2224997  20.9979988  25.1230012  80.1114997  21.3449988
  26.0960012  78.9574997  21.2299988  25.3149469  79.3081430  21.0767626
  35.4050012  79.9714997  33.3929988  34.4880012  80.2344997  33.3049988
  35.7400012  79.9684997  32.4959988  35.3249900  80.0070224  33.2597919
  34.0070012  83.7224997  27.4879988  33.2090012  83.3074997  27.1599988
  34.4520012  83.0314997  27.9789988  33.9579885  83.5723543  27.5094889
  23.4650012  89.6504997  20.0589988  24.0570012  90.3494997  20.3349988
  23.9240012  89.2174997  19.3389988  23.6081142  89.6877049  19.9994830
  21.7810012  82.3144997  19.1749988  21.7360012  83.2534997  19.3529988
  20.8930012  82.0784997  18.9049988  21.6548574  82.4111892  19.1628912
  35.0930012  92.9784997  29.1109988  34.9380012  93.6564997  28.4539988
  36.0260012  93.0504997  29.3139988  35.1978500  93.0810170  29.0485119
  22.5890012  77.0964997  27.8479988  22.3600012  77.1554997  26.9199988
  22.1460012  76.3044997  28.1539988  22.4978530  76.9975753  27.7624786
  21.5190012  91.0364997  24.0079988  20.6870012  91.5094997  24.0359988
  22.0650012  91.5464997  23.4099988  21.4789739  91.1701871  23.9309716
  20.8070012  93.6494997  35.3379988  21.3480012  93.4324997  36.0979988
  20.3260012  92.8434997  35.1489988  20.8159345  93.5109514  35.4163076
  25.4050012  92.5684997  36.9589988  26.1720012  92.1094997  37.2999988
  25.3830012  92.3424997  36.0289988  25.5071434  92.4750409  36.8800043
  29.4970012  92.0764997  18.3339988  28.8530012  91.4454997  18.6549988
  30.2590012  91.5454997  18.1019988  29.5118077  91.9182920  18.3466011
  31.9820012  90.9484997  35.6879988  31.6310012  90.0924997  35.9309988
  32.7080012  91.0914997  36.2949988  32.0320769  90.8505636  35.8033619
  34.1010012  91.8934997  18.5679988  34.3840012  91.0994997  19.0199988
  34.8410012  92.1264997  18.0069988  34.2397486  91.8162803  18.5540698
  20.7140012  87.4594997  36.2929988  20.8580012  86.5574997  36.0059988
  19.9420012  87.7454997  35.8049988  20.6293322  87.3748261  36.1877881
  25.0560012  87.8034997  18.4249988  25.1200012  87.0094997  18.9559988
  25.7090012  87.6844997  17.7349988  25.1530241  87.6787148  18.4044317
  27.3700012  87.4294997  35.7249988  27.0410012  87.7004997  34.8679988
  27.5220012  86.4884997  35.6379988  27.3454809  87.3393862  35.5958244
  30.4080012  88.8504997  18.1609988  30.1390012  89.0304997  19.0619988
  30.2020012  87.9244997  18.0299988  30.3433825  88.7500152  18.2665214
  33.1040012  87.3454997  33.1089988  33.8500012  87.9334997  32.9889988
  32.3470012  87.9274997  33.1719988  33.1037554  87.5047011  33.1010907
  21.5470012  84.6594997  35.7129988  21.9550012  83.8024997  35.5919988
  21.2870012  84.6744997  36.6339988  21.5677568  84.5440807  35.8209588
  26.2050012  85.7754997  20.7309988  25.7450012  85.2914997  21.4169988
  26.4600012  85.1074997  20.0949988  26.1764902  85.6188731  20.7389334
  25.4940012  83.6684997  33.0869988  24.8760012  84.3434997  33.3669988
  25.8380012  83.9894997  32.2539988  25.4559615  83.8042721  33.0126581
  27.2760012  84.0184997  18.9929988  27.0960012  83.8644997  18.0659988
  28.2260012  84.1264997  19.0379988  27.3797776  84.0120175  18.8721843
  30.5140012  86.1404997  36.3639988  31.4670012  86.2234997  36.3369988
  30.3530012  85.4284997  36.9839988  30.6226426  86.0556746  36.4440579
  36.6660012  86.3734997  18.4389988  36.3920012  85.9484997  17.6259988
  36.7050012  87.3044997  18.2219988  36.6337699  86.4412484  18.2983610
  25.8330012  81.0234997  34.1689988  25.9830012  80.2944997  33.5669988
  25.8360012  81.8004997  33.6099988  25.8539302  81.0287851  34.0110692
  26.2460012  79.3934997  31.6619988  26.7820012  79.8444997  31.0099988
  25.3940012  79.2854997  31.2389988  26.2042178  79.4406390  31.5155756
  27.8280012  84.8324997  31.9009988  28.5780012  84.6764997  31.3279988
  27.4890012  85.6844997  31.6259988  27.8848921  84.9262968  31.7853561
  32.2430012  82.6474997  36.9299988  32.4360012  81.7164997  36.8179988
  33.1010012  83.0724997  36.9199988  32.3853020  82.5776389  36.9133361
  33.5600012  85.4364997  35.0069988  33.2790012  86.1454997  34.4299988
  34.5030012  85.3634997  34.8559988  33.6489027  85.5237646  34.9075551
  24.3120012  82.2214997  36.0809988  23.5450012  81.6894997  35.8709988
  24.9910012  81.9114997  35.4809988  24.2987022  82.1067506  35.9711648
  27.0520012  76.8494997  32.0929988  26.9530012  77.7964997  31.9879988
  26.3090012  76.4774997  31.6179988  26.9380564  76.9285902  32.0144560
  28.3160012  81.1714997  35.6569988  28.0800012  80.9514997  36.5589988
  27.5320012  80.9644997  35.1469988  28.1778628  81.1134760  35.7113932
  31.0310012  80.2984997  34.7329988  30.0840012  80.3304997  34.8649988
  31.3440012  79.6734997  35.3859988  30.9435475  80.2183207  34.8394455
  32.6650012  78.9324997  36.7379988  32.5690012  77.9804997  36.7319988
  32.3440012  79.2014997  37.5979988  32.6084070  78.8384035  36.8535441
  22.4920012  80.1424997  35.7849988  22.7040012  79.4354997  35.1749988
  22.3810012  79.7044997  36.6289988  22.5059721  79.9867084  35.8156843
  27.2730012  76.1434997  34.7649988  27.9850012  75.5034997  34.7509988
  27.1720012  76.4104997  33.8509988  27.3567939  76.0919938  34.6395650
  27.6270012  77.8264997  36.8179988  27.4950012  77.3504997  35.9979988
  27.0280012  78.5704997  36.7629988  27.5279071  77.8619618  36.6982886
  27.1730012  94.7094997  19.9949988  28.1060012  94.8674997  20.1379988
  26.9090012  95.3844997  19.3699988  27.2649510  94.8223611  19.9300741
  20.7420012  89.3454997  19.4769988  21.6560012  89.4244997  19.7509988
  20.7490012  88.6584997  18.8109988  20.8681131  89.2633961  19.4244393
  19.3910012  94.7384997  24.5549988  18.7440012  94.2764997  24.0219988
  19.7450012  94.0664997  25.1369988  19.3503849  94.5844723  24.5607959
  20.2610012  92.8194997  26.3589988  19.9260012  91.9394997  26.5309988
  20.4830012  93.1644997  27.2239988  20.2451783  92.7457500  26.4994208
  37.8090012  93.6284997  29.3399988  37.7880012  93.8134997  30.2789988
  38.5000012  94.1974997  28.9989988  37.8994618  93.7306606  29.4223864
  37.3730012  93.1964997  32.2619988  36.8850012  92.4604997  31.8909988
  37.9220012  92.8024997  32.9399988  37.3804872  93.0426249  32.3029160
  35.8230012  88.9854997  36.8999988  34.9570012  88.8804997  37.2939988
  36.2000012  89.7444997  37.3459988  35.7553308  89.0736900  37.0142393
  37.1240012  87.2424997  22.4139988  37.9740012  87.6634997  22.5409988
  37.1300012  86.5024997  23.0209988  37.2411372  87.2000803  22.5134344
  37.5190012  85.2954997  24.2379988  36.7920012  84.8164997  24.6349988
  38.1000012  85.5014997  24.9699988  37.4979375  85.2577090  24.3914129
  37.2780012  88.0804997  29.1849988  38.1110012  87.7024997  28.9049988
  37.3900012  89.0234997  29.0659988  37.4072647  88.1562218  29.1305487
  35.7640012  90.9584997  31.4919988  35.1170012  91.2834997  32.1179988
  35.2470012  90.5184997  30.8179988  35.6054029  90.9435004  31.4865827
  37.7870012  85.1964997  20.6289988  37.2650012  85.5534997  19.9099988
  37.7540012  85.8714997  21.3069988  37.7111634  85.3365413  20.6223145
  36.1360012  82.4364997  19.1799988  36.2320012  83.1034997  18.4989988
  35.9960012  81.6204997  18.6979988  36.1302135  82.4174500  19.0218491
  35.3050012  83.8164997  24.8009988  35.1550012  82.8714997  24.7799988
  34.9520012  84.0974997  25.6439988  35.2366625  83.7250441  24.9122346
  20.3410012  85.8944997  28.8109988  20.5250012  85.8124997  27.8749988
  21.1900012  85.7704997  29.2349988  20.4810139  85.8665003  28.7401455
  36.1620012  85.7864997  34.4389988  36.7450012  85.0524997  34.6309988
  36.7260012  86.5584997  34.4859988  36.3179769  85.7904227  34.4716159
  37.6580012  83.6894997  35.1239988  36.7950012  83.3104997  34.9579988
  38.2630012  82.9504997  35.0499988  37.6215979  83.5378023  35.0912817
  35.3830012  79.8444997  18.2969988  35.9940012  79.4734997  18.9339988
  34.5470012  79.4234997  18.4929988  35.3535032  79.7367554  18.4107035
  35.0160012  81.3994997  23.2629988  35.2960012  80.4924997  23.3869988
  35.7750012  81.8334997  22.8739988  35.1569277  81.3340942  23.2273682
  35.6280012  81.9804997  28.6989988  36.5610012  82.1924997  28.6649988
  35.3930012  82.0824997  29.6209988  35.7238036  82.0232769  28.8189976
  35.6570012  82.7174997  31.4749988  34.8140012  82.9854997  31.8409988
  36.0990012  83.5394997  31.2639988  35.6014158  82.8653291  31.4965491
  19.9380012  81.1654997  34.9519988  20.8580012  81.0434997  35.1879988
  19.4890012  80.4154997  35.3409988  20.0031580  81.0473727  35.0369006
  37.9400012  76.6974997  36.8279988  38.2900012  76.0434997  36.2229988
  38.0870012  77.5344997  36.3889988  38.0078419  76.7211591  36.6857118
  35.6290012  78.6624997  23.3109988  35.8120012  78.2134997  24.1369988
  35.0300012  78.0774997  22.8479988  35.5730202  78.5219975  23.3613275
  21.1590012  79.4774997  27.8429988  21.6050012  78.6854997  28.1449988
  21.6260012  80.1934997  28.2739988  21.2830172  79.4660624  27.9424820
  19.4630012  82.4764997  28.9119988  19.9550012  82.2554997  28.1209988
  19.8260012  83.3174997  29.1929988  19.5793126  82.5598357  28.8417531
  37.4600012  78.8064997  35.1779988  36.5420012  79.0774997  35.1419988
  37.5830012  78.2714997  34.3929988  37.3511066  78.7712892  35.0670487
  37.4960012  78.7294997  19.8389988  37.9080012  78.0084997  19.3639988
  38.1780012  79.3994997  19.8979988  37.6445885  78.7212368  19.7818915
  19.7770012  78.7344997  22.9659988  18.8520012  78.9434997  22.8369988
  20.2310012  79.2184997  22.2769988  19.7117368  78.8285993  22.8551226
  34.5480012  93.7184997  24.9119988  35.2000012  93.3714997  24.3039988
  35.0580012  94.2074997  25.5579988  34.7062637  93.7370597  24.9160236
  19.7410012  77.4724997  31.3109988  19.0760012  77.2264997  31.9539988
  19.2980012  78.0944997  30.7329988  19.5900956  77.5228632  31.3209352
  21.9330012  90.6474997  35.4549988  21.1120012  90.8224997  34.9949988
  21.6800012  90.5744997  36.3759988  21.7866164  90.6615622  35.5164923
  24.8870012  91.6224997  31.7139988  24.4620012  92.4314997  31.4309988
  25.7910012  91.7074997  31.4119988  24.9510271  91.7448469  31.6343776
  29.1980012  93.0214997  34.6729988  29.3830012  92.6874997  35.5509988
  30.0440012  93.3304997  34.3509988  29.3377539  93.0176047  34.7495605
  31.5430012  94.3074997  33.9169988  32.2200012  93.6744997  33.6769988
  31.8650012  94.7084997  34.7239988  31.6791637  94.2751154  33.9932793
  36.4600012  76.8964997  32.9969988  35.6480012  77.2214997  32.6089988
  36.6930012  76.1364997  32.4639988  36.3803423  76.8382436  32.8718253
  22.2890012  94.8784997  31.7609988  21.5680012  95.3184997  31.3099988
  21.9230012  94.6274997  32.6099988  22.1409804  94.9047698  31.8139840
  24.7560012  94.4784997  30.7909988  23.8910012  94.5504997  31.1949988
  24.7010012  95.0254997  30.0069988  24.6302085  94.5622685  30.7403362
  29.4660012  94.3664997  29.9659988  29.0100012  94.8954997  29.3119988
  29.6290012  94.9694997  30.6919988  29.4255585  94.5204468  29.9745062
  31.7940012  93.2444997  30.9109988  30.8890012  93.4094997  30.6459988
  32.2230012  94.0974997  30.8459988  31.7280799  93.3824483  30.8659182
  34.3980012  94.8144997  31.2059988  34.2160012  95.7304997  30.9959988
  34.5750012  94.4044997  30.3599988  34.3970210  94.8844822  31.0627885
  21.7030012  93.5014997  28.6709988  21.6850012  93.0764997  29.5289988
  22.5080012  93.1834997  28.2629988  21.8093875  93.4003812  28.7331655
  23.8450012  92.2114997  27.3259988  23.6260012  91.2954997  27.4959988
  24.6690012  92.3514997  27.7919988  23.9264420  92.1050520  27.4122774
  26.3820012  92.6814997  28.1749988  26.5950012  91.7934997  27.8879988
  26.4460012  92.6474997  29.1289988  26.4198231  92.5553102  28.2647397
  29.8900012  78.3454997  27.3189988  29.2160012  77.7164997  27.5749988
  30.4540012  77.8614997  26.7159988  29.8739230  78.1938744  27.2725340
  35.0330012  76.4534997  27.4319988  35.6370012  77.0004997  26.9299988
  34.1630012  76.7724997  27.1919988  34.9981241  76.5715806  27.3307654
  36.7600012  77.5914997  25.7649988  37.3720012  77.0774997  25.2389988
  37.1420012  78.4694997  25.7889988  36.8954540  77.6397140  25.6961830
  22.2170012  76.9794997  25.1409988  21.4400012  76.7454997  24.6339988
  22.7470012  76.1824997  25.1499988  22.1822330  76.8396988  25.0727742
  21.0530012  76.7774997  20.9449988  21.4920012  77.3884997  20.3529988
  20.4200012  77.3154997  21.4189988  21.0274514  76.9339257  20.9280930
  26.7960012  76.9064997  24.9549988  27.6710012  77.2944997  24.9249988
  26.6600012  76.6914997  25.8769988  26.8973695  76.9305184  25.0756440
  32.3530012  76.9364997  26.6039988  32.4290012  77.0314997  25.6539988
  32.0780012  76.0284997  26.7329988  32.3262321  76.8267867  26.4915079
  33.7060012  76.9624997  22.2959988  33.0040012  77.5774997  22.0869988
  33.2620012  76.1244997  22.4269988  33.5496330  76.9335783  22.2850328
  20.9540012  92.7254997  21.8429988  20.2690012  92.6874997  21.1749988
  20.9580012  93.6384997  22.1309988  20.8608193  92.8437016  21.7905284
  22.9140012  78.6934997  19.3869988  23.4060012  78.0634997  18.8599988
  23.5380012  78.9894997  20.0509988  23.0655446  78.6473199  19.4045980
  27.9400012  78.9864997  21.8439988  28.1180012  78.3404997  22.5269988
  27.8870012  79.8204997  22.3119988  27.9571829  79.0107985  22.0005940
  29.8190012  93.9354997  20.2399988  30.6850012  94.3014997  20.0619988
  29.5720012  93.4954997  19.4259988  29.9042392  93.9261756  20.1056289
  36.5280012  93.4984997  22.9189988  36.3330012  92.7504997  22.3539988
  36.4890012  94.2564997  22.3359988  36.4960380  93.4986099  22.7628384
  22.1750012  77.4934997  34.6589988  21.8090012  76.7284997  35.1019988
  23.0880012  77.5224997  34.9459988  22.2482790  77.3927224  34.7584070
  24.1480012  76.8444997  36.1949988  25.0460012  76.5704997  36.0099988
  23.7610012  76.1014997  36.6589988  24.2186612  76.7065914  36.2323643
  22.7720012  93.6454997  18.8679988  22.5050012  93.9324997  19.7409988
  23.5440012  93.0994997  19.0199988  22.8397488  93.6110294  19.0081050
  32.5690012  76.1764997  36.3769988  32.6460012  75.7504997  37.2309988
  33.4630012  76.1904997  36.0339988  32.7003428  76.1200879  36.4475310
  35.7450012  92.2494997  35.0689988  34.9630012  92.0634997  34.5499988
  35.6730012  93.1784997  35.2869988  35.6281777  92.3496492  35.0274048
  50.1510012  86.1354997  25.0999988  50.2400012  87.0794997  24.9679988
  49.5130012  85.8604997  24.4419988  50.0769081  86.2274830  24.9929614
  49.0840012  85.3904997  28.5189988  49.0460012  84.7444997  29.2239988
  48.7620012  84.9244997  27.7479988  49.0352333  85.2389408  28.5112978
  41.4530012  85.0054997  30.1119988  41.4940012  84.3794997  30.8349988
  42.1560012  85.6294997  30.2939988  41.5536363  85.0041196  30.2356044
  52.7900012  88.3294997  26.8199988  52.3500012  87.6094997  27.2709988
  52.7770012  89.0504997  27.4499988  52.7280226  88.3283731  26.9668494
  42.3760012  89.4554997  28.6469988  42.0070012  88.6534997  28.2769988
  43.3170012  89.2864997  28.6929988  42.4527289  89.3230153  28.6026316
  38.9860012  83.1154997  24.0399988  38.5390012  83.9614997  24.0209988
  38.4250012  82.5354997  23.5239988  38.8489900  83.1529916  23.9676801
  39.6970012  85.2774997  26.1659988  39.9100012  84.5074997  26.6929988
  40.4350012  85.3664997  25.5619988  39.8258496  85.1841394  26.1565300
  49.9020012  93.4344997  27.0329988  50.5220012  92.7574997  26.7589988
  49.6940012  93.2164997  27.9409988  49.9586904  93.3123870  27.1183365
  47.4740012  87.8234997  28.9249988  47.7780012  87.1374997  28.3299988
  48.1950012  87.9414997  29.5429988  47.6130671  87.7456305  28.9271816
  56.1370012  79.4244997  29.7859988  56.1860012  80.0344997  30.5219988
  56.5620012  79.8854997  29.0629988  56.2011824  79.5703741  29.7890205
  50.6150012  82.2174997  29.2529988  50.7570012  81.2714997  29.2729988
  50.5080012  82.4244997  28.3239988  50.6199863  82.1159534  29.1302339
  43.7690012  80.3184997  26.5249988  43.8130012  81.1784997  26.1069988
  43.3120012  79.7664997  25.8909988  43.7132185  80.3615799  26.3820299
  51.4920012  80.4494997  24.9259988  52.1380012  80.1204997  25.5509988
  52.0020012  80.9674997  24.3029988  51.6494264  80.4744611  24.9273862
  40.3900012  82.7154997  27.2869988  41.0430012  82.1654997  27.7189988
  40.4140012  82.4414997  26.3699988  40.4826683  82.6031466  27.2222123
  45.5460012  84.2654997  26.5019988  46.1620012  83.7394997  27.0119988
  44.9600012  83.6254997  26.0989988  45.5510810  84.1069208  26.5173173
  56.5280012  80.9024997  32.0219988  55.8400012  81.5604997  31.9259988
  56.5440012  80.7054997  32.9579988  56.4358525  80.9660462  32.1354808
  42.5800012  79.2364997  30.5989988  42.3610012  79.7664997  29.8329988
  41.9120012  79.4634997  31.2459988  42.4597600  79.3396906  30.5816379
  49.9490012  88.7364997  24.1429988  49.6530012  88.4144997  23.2919988
  49.6240012  89.6364997  24.1839988  49.8646371  88.8140215  24.0321801
  45.1490012  86.9124997  30.8859988  44.4090012  87.5104997  30.9899988
  45.8630012  87.4664997  30.5709988  45.1442237  87.0692831  30.8576465
  53.2560012  79.7404997  26.9059988  53.0400012  78.9744997  27.4389988
  53.9110012  80.2124997  27.4189988  53.3150632  79.6995889  27.0482861
  42.1730012  81.1284997  28.5509988  42.7870012  81.7614997  28.9249988
  42.6850012  80.6564997  27.8949988  42.3262296  81.1512370  28.5134252
  43.5560012  88.8764997  31.6739988  43.5510012  89.7564997  31.2959988
  42.7030012  88.7934997  32.0989988  43.4399464  88.9856117  31.6797907
  39.6770012  88.5474997  22.4559988  39.4050012  88.7764997  21.5669988
  39.7230012  89.3854997  22.9159988  39.6460094  88.6921213  22.3965697
  53.3020012  90.1694997  29.1679988  52.3610012  90.2274997  29.3299988
  53.5790012  91.0754997  29.0309988  53.2104679  90.2999443  29.1716815
  53.6030012  78.4554997  30.5859988  52.8670012  79.0664997  30.5479988
  54.2860012  78.8704997  30.0589988  53.5946541  78.5951374  30.5095832
  46.6060012  76.5424997  28.0519988  46.4890012  75.5934997  27.9969988
  45.7510012  76.8744997  28.3249988  46.4743733  76.4575409  28.0813897
  51.5540012  91.9504997  25.7939988  51.9800012  91.2434997  25.3089988
  51.8710012  92.7514997  25.3769988  51.6551019  91.9620994  25.6713130
  52.7140012  89.8514997  24.3019988  52.4560012  89.1614997  23.6909988
  52.7850012  89.4084997  25.1479988  52.6882856  89.6972124  24.3326885
  54.4000012  88.4174997  32.7799988  54.5400012  87.8264997  32.0399988
  54.5670012  89.2904997  32.4229988  54.4416778  88.4546426  32.6306965
  48.8730012  85.3794997  22.5519988  48.1610012  85.9144997  22.1999988
  49.5640012  85.4354997  21.8919988  48.8690132  85.4602543  22.4146289
  48.9260012  83.8374997  19.5909988  49.6270012  83.8594997  20.2419988
  49.2290012  83.2094997  18.9349988  49.0627830  83.7556566  19.5913711
  56.2420012  84.7574997  30.8459988  55.5890012  85.4524997  30.9349988
  56.7070012  84.9674997  30.0359988  56.2155390  84.8809425  30.7486883
  52.2780012  85.5894997  23.5039988  51.5460012  85.8174997  24.0769988
  52.7260012  84.8754997  23.9589988  52.2383095  85.5242571  23.6439119
  52.1760012  83.7634997  32.5709988  52.2560012  84.5264997  33.1429988
  51.5740012  84.0424997  31.8809988  52.1055756  83.9057134  32.5560589
  43.9240012  86.2194997  25.3859988  43.5930012  85.8494997  24.5679988
  44.5120012  85.5494997  25.7329988  43.9581873  86.0781156  25.3208102
  45.2900012  89.6474997  28.0679988  45.1960012  89.0694997  27.3109988
  46.0200012  89.2764997  28.5639988  45.3757981  89.5182390  28.0314165
  44.2900012  84.9884997  29.0199988  44.8560012  85.1094997  28.2569988
  44.6090012  85.6254997  29.6589988  44.4105786  85.0911884  29.0020040
  50.5990012  90.4914997  29.7539988  50.3590012  91.1534997  30.4019988
  50.4010012  89.6574997  30.1789988  50.5393808  90.4693134  29.9001524
  45.1700012  89.3874997  33.7369988  44.8590012  90.1694997  34.1919988
  44.5200012  89.2344997  33.0509988  45.0395558  89.4739105  33.7065871
  51.1490012  84.7514997  21.1889988  51.7290012  84.9014997  21.9359988
  51.5630012  85.2224997  20.4659988  51.2842830  84.8356841  21.1934134
  42.0900012  85.5854997  32.9659988  42.1610012  86.2364997  33.6639988
  41.2000012  85.6884997  32.6309988  41.9793117  85.6885936  33.0162700
  48.8760012  91.4884997  24.6239988  49.3500012  91.7834997  25.4019988
  48.3130012  92.2264997  24.3909988  48.8647653  91.6286932  24.6990136
  43.4100012  91.4594997  34.4999988  43.4170012  91.3234997  33.5529988
  42.4940012  91.3414997  34.7519988  43.2871714  91.4249430  34.4044666
  54.8480012  76.5014997  21.0019988  53.9480012  76.6404997  21.2969988
  55.1000012  77.3324997  20.5999988  54.7588702  76.6329074  20.9880205
  42.9140012  85.2894997  22.9759988  42.6220012  86.0574997  22.4849988
  42.2400012  84.6294997  22.8129988  42.7829081  85.3054406  22.8867340
  56.0370012  90.8674997  19.3779988  56.1110012  91.8064997  19.5489988
  56.9430012  90.5624997  19.3219988  56.1695100  90.9546722  19.3938119
  39.0070012  87.6524997  31.7909988  38.5060012  87.6244997  30.9759988
  39.0120012  86.7464997  32.0999988  38.9391526  87.5262278  31.7212872
  38.7570012  90.4324997  28.6749988  39.7030012  90.2884997  28.6559988
  38.6450012  91.2164997  29.2119988  38.8712727  90.5188046  28.7450072
  56.9550012  91.0984997  34.3569988  56.9060012  90.1434997  34.3199988
  56.1280012  91.3664997  34.7579988  56.8364940  91.0038998  34.4061375
  47.9340012  90.6724997  33.2329988  48.0210012  91.4984997  33.7079988
  47.0700012  90.3424997  33.4819988  47.8291964  90.7409878  33.3316549
  48.3480012  94.4444997  23.0389988  48.2730012  94.3234997  22.0929988
  48.3810012  95.3944997  23.1579988  48.3421848  94.5562500  22.9254834
  42.0010012  93.2334997  24.8199988  42.1540012  92.8854997  25.6989988
  41.1510012  92.8774997  24.5649988  41.9068962  93.1376650  24.9058340
  51.4500012  93.5984997  20.0409988  51.8250012  92.8544997  19.5709988
  51.4540012  93.3284997  20.9599988  51.5018915  93.4601486  20.1007824
  51.1190012  93.5244997  22.7909988  50.1830012  93.6244997  22.9689988
  51.3990012  92.8154997  23.3689988  51.0288255  93.4422711  22.8935391
  54.1070012  82.5914997  34.8369988  53.7000012  83.0724997  34.1159988
  54.1480012  81.6864997  34.5289988  54.0568437  82.5349374  34.6966683
  41.2560012  88.9754997  32.8339988  41.4720012  88.6144997  33.6929988
  40.4010012  88.6014997  32.6239988  41.1699292  88.8754111  32.9233386
  43.8750012  77.4454997  28.8289988  43.0130012  77.3584997  28.4219988
  43.8520012  78.3014997  29.2569988  43.7540330  77.5492765  28.8311863
  48.5380012  77.1674997  32.2039988  48.9580012  76.7524997  32.9569988
  47.6050012  76.9894997  32.3209988  48.4693644  77.0865900  32.3229539
  51.8640012  80.9234997  33.0569988  51.3500012  80.7974997  33.8549988
  51.7090012  81.8354997  32.8129988  51.7726852  81.0296132  33.1332158
  52.6270012  85.7844997  18.8189988  52.6690012  85.5614997  17.8889988
  53.4760012  86.1834997  19.0089988  52.7475396  85.8079155  18.7173627
  48.1990012  79.6604997  19.4889988  47.9460012  79.6794997  20.4119988
  47.9430012  78.7884997  19.1879988  48.1297790  79.5452437  19.5746263
  43.9660012  82.4114997  29.9239988  43.3240012  82.3704997  30.6329988
  44.0030012  83.3374997  29.6869988  43.8831324  82.5311559  29.9889824
  43.9630012  82.6324997  24.8359988  43.0700012  82.2914997  24.7779988
  44.4130012  82.2554997  24.0809988  43.9017305  82.5348484  24.7259177
  49.4980012  83.0484997  23.6529988  49.0890012  83.8634997  23.3619988
  50.2190012  82.9084997  23.0389988  49.5394537  83.1412018  23.5301342
  48.6000012  83.2234997  35.1409988  48.0380012  82.5194997  35.4619988
  49.4270012  83.1034997  35.6089988  48.6347095  83.1107883  35.2482330
  50.5030012  82.4944997  26.4669988  50.3080012  83.0994997  25.7519988
  50.6840012  81.6604997  26.0329988  50.5007614  82.4646300  26.3104405
  41.7160012  82.7314997  31.7909988  41.6780012  83.1314997  32.6599988
  41.2250012  81.9144997  31.8819988  41.6444684  82.6758069  31.9221059
  45.0820012  80.1054997  18.5899988  44.6510012  79.6604997  19.3199988
  44.3640012  80.4774997  18.0779988  44.9259438  80.0948940  18.6206799
  38.3240012  79.8474997  25.6419988  38.9550012  79.8184997  26.3609988
  38.7730012  79.4224997  24.9119988  38.4710774  79.7860492  25.6416553
  39.5980012  80.5934997  21.0659988  40.0720012  81.1844997  20.4809988
  38.8810012  81.1244997  21.4129988  39.5659341  80.7460867  21.0328836
  49.7670012  84.1324997  31.1389988  50.0900012  83.5014997  30.4959988
  49.3270012  83.5974997  31.7989988  49.7516895  83.9738441  31.1402850
  46.5440012  80.0594997  25.9229988  45.6330012  80.1164997  26.2109988
  47.0500012  79.9994997  26.7329988  46.4875413  80.0591985  26.0720622
  41.3730012  81.6884997  24.7489988  40.4830012  81.7884997  24.4089988
  41.6690012  80.8464997  24.4029988  41.2912823  81.5883545  24.6557213
  45.0260012  81.6884997  22.4059988  45.9570012  81.8174997  22.5839988
  44.8110012  82.3584997  21.7559988  45.1244247  81.7966565  22.3425747
  50.9490012  79.2944997  29.1869988  50.2730012  79.4254997  29.8509988
  50.4640012  79.1394997  28.3769988  50.7907145  79.2914905  29.1684517
  43.7000012  82.8834997  19.9729988  43.1570012  82.5034997  19.2809988
  44.5330012  83.0774997  19.5439988  43.7384399  82.8578124  19.8204526
  54.2370012  94.9664997  35.4639988  54.4370012  95.3904997  34.6289988
  54.8920012  95.3094997  36.0709988  54.3530051  95.0709648  35.4317836
  41.8350012  87.4404997  35.0719988  42.5670012  87.6944997  35.6329988
  41.0550012  87.6444997  35.5869988  41.8298232  87.5029177  35.2185760
  47.8640012  82.8474997  27.8099988  48.4290012  82.3004997  27.2629988
  47.7170012  82.3254997  28.5979988  47.9212918  82.7022024  27.8418454
  42.8660012  78.9834997  24.2279988  42.5490012  78.0814997  24.1929988
  43.6480012  78.9854997  23.6749988  42.9282284  78.8601628  24.1484783
  46.4910012  81.2354997  30.2239988  45.6550012  81.6894997  30.3339988
  47.0150012  81.5114997  30.9759988  46.4474414  81.3349376  30.3407136
  47.0350012  87.4484997  21.9079988  46.2900012  86.9414997  21.5859988
  46.9010012  87.4974997  22.8549988  46.9148776  87.3856940  21.9918647
  54.1850012  86.5814997  30.6949988  54.8270012  87.0384997  30.1509988
  53.3550012  86.6944997  30.2319988  54.1605963  86.6592704  30.5580177
  50.9330012  80.2624997  20.1079988  49.9940012  80.3744997  19.9559988
  51.2300012  81.1194997  20.4139988  50.8447666  80.3936443  20.1285768
  48.5540012  87.6324997  33.1449988  48.2090012  87.2514997  33.9519988
  48.3540012  88.5664997  33.2169988  48.4798061  87.7065228  33.2650961
  51.6510012  82.1294997  21.7679988  52.5430012  81.9924997  22.0869988
  51.7080012  82.9204997  21.2319988  51.7806285  82.2176660  21.7391691
  42.1600012  86.7434997  27.6779988  42.9050012  86.7414997  27.0769988
  42.2380012  85.9204997  28.1599988  42.2725518  86.6319315  27.6608929
  49.1610012  88.9074997  20.9339988  48.8650012  89.7334997  21.3149988
  48.4580012  88.2874997  21.1299988  49.0254914  88.9368199  21.0126443
  39.1680012  85.2044997  32.9929988  39.3910012  84.7864997  33.8249988
  38.5660012  84.5914997  32.5699988  39.1171759  85.0644668  33.0497022
  46.1840012  84.7214997  35.2059988  45.8880012  84.5554997  34.3109988
  47.1160012  84.5014997  35.1949988  46.2694166  84.6690640  35.0820536
  50.8050012  90.0944997  33.0959988  49.9040012  90.2774997  32.8279988
  50.8390012  90.3534997  34.0169988  50.6863041  90.1545512  33.1838197
  56.5360012  82.3394997  21.4629988  55.9820012  81.9434997  20.7909988
  56.6360012  83.2494997  21.1849988  56.4737059  82.4083586  21.3334401
  56.4990012  88.1394997  34.2999988  55.6480012  88.3774997  33.9329988
  57.0900012  88.1224997  33.5469988  56.4622487  88.1698258  34.1478893
  54.8310012  91.1254997  21.9279988  54.4580012  90.2994997  22.2369988
  55.1090012  90.9424997  21.0309988  54.8175630  90.9877303  21.8489626
  51.9920012  85.9334997  28.9489988  51.0630012  85.7014997  28.9219988
  52.4430012  85.1564997  28.6189988  51.9259216  85.7967238  28.9006917
  44.5350012  90.2614997  25.0819988  45.0620012  91.0344997  24.8819988
  43.6550012  90.4864997  24.7809988  44.4881773  90.3978005  25.0139010
  40.2900012  85.1234997  19.6689988  40.9060012  85.7504997  20.0489988
  39.4280012  85.4394997  19.9409988  40.2577698  85.2519430  19.7577183
  45.9620012  87.9244997  24.6589988  45.7210012  88.8494997  24.6999988
  45.2210012  87.4654997  25.0549988  45.8288409  87.9891421  24.7181377
  46.4770012  92.0734997  30.9739988  46.8390012  92.9284997  30.7399988
  47.0080012  91.7814997  31.7139988  46.5984473  92.1511060  31.0420855
  44.6450012  92.9464997  24.2039988  43.6950012  93.0514997  24.2549988
  44.9970012  93.7664997  24.5489988  44.5624203  93.0718314  24.2576650
  50.0210012  88.1724997  30.6739988  49.5950012  87.9454997  31.5009988
  50.6010012  87.4344997  30.4919988  50.0411868  88.0415299  30.7625830
  52.2240012  89.1014997  19.7479988  52.5770012  88.7214997  20.5529988
  51.2750012  89.0084997  19.8349988  52.1440441  89.0369596  19.8698559
  52.6790012  92.7244997  33.1439988  52.0780012  92.1694997  32.6479988
  52.9610012  93.3914997  32.5179988  52.6348519  92.7386841  32.9914952
  56.7270012  93.5814997  19.9489988  57.4710012  94.1674997  19.8089988
  56.0330012  94.1494997  20.2829988  56.7350292  93.7385582  19.9749961
  40.8020012  79.9574997  32.5509988  39.9090012  80.2964997  32.4829988
  40.7030012  79.1024997  32.9689988  40.6664164  79.8882588  32.5982235
  53.0900012  87.7744997  21.9749988  52.8120012  87.0464997  22.5309988
  54.0170012  87.8934997  22.1799988  53.1773124  87.6908802  22.0788845
  40.4530012  91.7624997  30.9859988  40.6700012  90.8304997  30.9549988
  40.6990012  92.0364997  31.8689988  40.5159549  91.6720636  31.1011763
  46.3150012  90.2134997  18.1949988  46.5540012  89.4654997  17.6479988
  46.0460012  89.8254997  19.0279988  46.3113675  90.0586638  18.2326865
  45.2520012  89.7834997  20.6519988  45.3980012  89.2634997  21.4419988
  45.2490012  90.6904997  20.9579988  45.2715989  89.8348853  20.8016088
  41.7050012  87.0364997  21.1619988  41.0190012  87.3884997  21.7289988
  42.2270012  87.7994997  20.9149988  41.6816852  87.1878578  21.2062118
  49.5360012  79.6984997  31.4409988  50.2350012  79.7724997  32.0909988
  49.1550012  78.8344997  31.5949988  49.5801767  79.5917624  31.5508322
  50.3210012  79.3504997  22.5379988  50.5410012  79.8224997  21.7349988
  50.8790012  79.7454997  23.2079988  50.4264968  79.4684285  22.5187331
  47.9890012  91.4814997  21.4009988  47.1730012  91.9784997  21.4529988
  48.5190012  91.9564997  20.7609988  47.9489161  91.6137722  21.3215956
  47.5210012  81.0784997  23.3729988  48.3330012  81.5834997  23.4189988
  47.2760012  80.9334997  24.2869988  47.5990520  81.1280375  23.5028517
  48.0560012  82.0644997  32.5579988  48.1750012  82.6384997  33.3149988
  48.7120012  81.3764997  32.6719988  48.1609757  82.0501079  32.6770825
  48.4040012  78.1594997  24.3109988  48.0580012  78.7774997  24.9559988
  49.0630012  78.6604997  23.8299988  48.4457826  78.3115802  24.3340971
  45.3280012  92.5254997  21.3829988  45.4880012  93.3244997  20.8819988
  45.1300012  92.8314997  22.2679988  45.3231649  92.6764469  21.4339815
  44.0620012  79.2224997  20.9979988  43.9790012  80.1114997  21.3449988
  44.9520012  78.9574997  21.2299988  44.1709469  79.3081430  21.0767626
  54.2610012  79.9714997  33.3929988  53.3440012  80.2344997  33.3049988
  54.5960012  79.9684997  32.4959988  54.1809900  80.0070224  33.2597919
  52.8630012  83.7224997  27.4879988  52.0650012  83.3074997  27.1599988
  53.3080012  83.0314997  27.9789988  52.8139885  83.5723543  27.5094889
  42.3210012  89.6504997  20.0589988  42.9130012  90.3494997  20.3349988
  42.7800012  89.2174997  19.3389988  42.4641142  89.6877049  19.9994830
  40.6370012  82.3144997  19.1749988  40.5920012  83.2534997  19.3529988
  39.7490012  82.0784997  18.9049988  40.5108574  82.4111892  19.1628912
  53.9490012  92.9784997  29.1109988  53.7940012  93.6564997  28.4539988
  54.8820012  93.0504997  29.3139988  54.0538500  93.0810170  29.0485119
  41.4450012  77.0964997  27.8479988  41.2160012  77.1554997  26.9199988
  41.0020012  76.3044997  28.1539988  41.3538530  76.9975753  27.7624786
  40.3750012  91.0364997  24.0079988  39.5430012  91.5094997  24.0359988
  40.9210012  91.5464997  23.4099988  40.3349739  91.1701871  23.9309716
  39.6630012  93.6494997  35.3379988  40.2040012  93.4324997  36.0979988
  39.1820012  92.8434997  35.1489988  39.6719345  93.5109514  35.4163076
  44.2610012  92.5684997  36.9589988  45.0280012  92.1094997  37.2999988
  44.2390012  92.3424997  36.0289988  44.3631434  92.4750409  36.8800043
  48.3530012  92.0764997  18.3339988  47.7090012  91.4454997  18.6549988
  49.1150012  91.5454997  18.1019988  48.3678077  91.9182920  18.3466011
  50.8380012  90.9484997  35.6879988  50.4870012  90.0924997  35.9309988
  51.5640012  91.0914997  36.2949988  50.8880769  90.8505636  35.8033619
  52.9570012  91.8934997  18.5679988  53.2400012  91.0994997  19.0199988
  53.6970012  92.1264997  18.0069988  53.0957486  91.8162803  18.5540698
  39.5700012  87.4594997  36.2929988  39.7140012  86.5574997  36.0059988
  38.7980012  87.7454997  35.8049988  39.4853322  87.3748261  36.1877881
  43.9120012  87.8034997  18.4249988  43.9760012  87.0094997  18.9559988
  44.5650012  87.6844997  17.7349988  44.0090241  87.6787148  18.4044317
  46.2260012  87.4294997  35.7249988  45.8970012  87.7004997  34.8679988
  46.3780012  86.4884997  35.6379988  46.2014809  87.3393862  35.5958244
  49.2640012  88.8504997  18.1609988  48.9950012  89.0304997  19.0619988
  49.0580012  87.9244997  18.0299988  49.1993825  88.7500152  18.2665214
  51.9600012  87.3454997  33.1089988  52.7060012  87.9334997  32.9889988
  51.2030012  87.9274997  33.1719988  51.9597554  87.5047011  33.1010907
  40.4030012  84.6594997  35.7129988  40.8110012  83.8024997  35.5919988
  40.1430012  84.6744997  36.6339988  40.4237568  84.5440807  35.8209588
  45.0610012  85.7754997  20.7309988  44.6010012  85.2914997  21.4169988
  45.3160012  85.1074997  20.0949988  45.0324902  85.6188731  20.7389334
  44.3500012  83.6684997  33.0869988  43.7320012  84.3434997  33.3669988
  44.6940012  83.9894997  32.2539988  44.3119615  83.8042721  33.0126581
  46.1320012  84.0184997  18.9929988  45.9520012  83.8644997  18.0659988
  47.0820012  84.1264997  19.0379988  46.2357776  84.0120175  18.8721843
  49.3700012  86.1404997  36.3639988  50.3230012  86.2234997  36.3369988
  49.2090012  85.4284997  36.9839988  49.4786426  86.0556746  36.4440579
  55.5220012  86.3734997  18.4389988  55.2480012  85.9484997  17.6259988
  55.5610012  87.3044997  18.2219988  55.4897699  86.4412484  18.2983610
  44.6890012  81.0234997  34.1689988  44.8390012  80.2944997  33.5669988
  44.6920012  81.8004997  33.6099988  44.7099302  81.0287851  34.0110692
  45.1020012  79.3934997  31.6619988  45.6380012  79.8444997  31.0099988
  44.2500012  79.2854997  31.2389988  45.0602178  79.4406390  31.5155756
  46.6840012  84.8324997  31.9009988  47.4340012  84.6764997  31.3279988
  46.3450012  85.6844997  31.6259988  46.7408921  84.9262968  31.7853561
  51.0990012  82.6474997  36.9299988  51.2920012  81.7164997  36.8179988
  51.9570012  83.0724997  36.9199988  51.2413020  82.5776389  36.9133361
  52.4160012  85.4364997  35.0069988  52.1350012  86.1454997  34.4299988
  53.3590012  85.3634997  34.8559988  52.5049027  85.5237646  34.9075551
  43.1680012  82.2214997  36.0809988  42.4010012  81.6894997  35.8709988
  43.8470012  81.9114997  35.4809988  43.1547022  82.1067506  35.9711648
  45.9080012  76.8494997  32.0929988  45.8090012  77.7964997  31.9879988
  45.1650012  76.4774997  31.6179988  45.7940564  76.9285902  32.0144560
  47.1720012  81.1714997  35.6569988  46.9360012  80.9514997  36.5589988
  46.3880012  80.9644997  35.1469988  47.0338628  81.1134760  35.7113932
  49.8870012  80.2984997  34.7329988  48.9400012  80.3304997  34.8649988
  50.2000012  79.6734997  35.3859988  49.7995475  80.2183207  34.8394455
  51.5210012  78.9324997  36.7379988  51.4250012  77.9804997  36.7319988
  51.2000012  79.2014997  37.5979988  51.4644070  78.8384035  36.8535441
  41.3480012  80.1424997  35.7849988  41.5600012  79.4354997  35.1749988
  41.2370012  79.7044997  36.6289988  41.3619721  79.9867084  35.8156843
  46.1290012  76.1434997  34.7649988  46.8410012  75.5034997  34.7509988
  46.0280012  76.4104997  33.8509988  46.2127939  76.0919938  34.6395650
  46.4830012  77.8264997  36.8179988  46.3510012  77.3504997  35.9979988
  45.8840012  78.5704997  36.7629988  46.3839071  77.8619618  36.6982886
  46.0290012  94.7094997  19.9949988  46.9620012  94.8674997  20.1379988
  45.7650012  95.3844997  19.3699988  46.1209510  94.8223611  19.9300741
  39.5980012  89.3454997  19.4769988  40.5120012  89.4244997  19.7509988
  39.6050012  88.6584997  18.8109988  39.7241131  89.2633961  19.4244393
  38.2470012  94.7384997  24.5549988  37.6000012  94.2764997  24.0219988
  38.6010012  94.0664997  25.1369988  38.2063849  94.5844723  24.5607959
  39.1170012  92.8194997  26.3589988  38.7820012  91.9394997  26.5309988
  39.3390012  93.1644997  27.2239988  39.1011783  92.7457500  26.4994208
  56.6650012  93.6284997  29.3399988  56.6440012  93.8134997  30.2789988
  57.3560012  94.1974997  28.9989988  56.7554618  93.7306606  29.4223864
  56.2290012  93.1964997  32.2619988  55.7410012  92.4604997  31.8909988
  56.7780012  92.8024997  32.9399988  56.2364872  93.0426249  32.3029160
  54.6790012  88.9854997  36.8999988  53.8130012  88.8804997  37.2939988
  55.0560012  89.7444997  37.3459988  54.6113308  89.0736900  37.0142393
  55.9800012  87.2424997  22.4139988  56.8300012  87.6634997  22.5409988
  55.9860012  86.5024997  23.0209988  56.0971372  87.2000803  22.5134344
  56.3750012  85.2954997  24.2379988  55.6480012  84.8164997  24.6349988
  56.9560012  85.5014997  24.9699988  56.3539375  85.2577090  24.3914129
  56.1340012  88.0804997  29.1849988  56.9670012  87.7024997  28.9049988
  56.2460012  89.0234997  29.0659988  56.2632647  88.1562218  29.1305487
  54.6200012  90.9584997  31.4919988  53.9730012  91.2834997  32.1179988
  54.1030012  90.5184997  30.8179988  54.4614029  90.9435004  31.4865827
  56.6430012  85.1964997  20.6289988  56.1210012  85.5534997  19.9099988
  56.6100012  85.8714997  21.3069988  56.5671634  85.3365413  20.6223145
  54.9920012  82.4364997  19.1799988  55.0880012  83.1034997  18.4989988
  54.8520012  81.6204997  18.6979988  54.9862135  82.4174500  19.0218491
  54.1610012  83.8164997  24.8009988  54.0110012  82.8714997  24.7799988
  53.8080012  84.0974997  25.6439988  54.0926625  83.7250441  24.9122346
  39.1970012  85.8944997  28.8109988  39.3810012  85.8124997  27.8749988
  40.0460012  85.7704997  29.2349988  39.3370139  85.8665003  28.7401455
  55.0180012  85.7864997  34.4389988  55.6010012  85.0524997  34.6309988
  55.5820012  86.5584997  34.4859988  55.1739769  85.7904227  34.4716159
  56.5140012  83.6894997  35.1239988  55.6510012  83.3104997  34.9579988
  57.1190012  82.9504997  35.0499988  56.4775979  83.5378023  35.0912817
  54.2390012  79.8444997  18.2969988  54.8500012  79.4734997  18.9339988
  53.4030012  79.4234997  18.4929988  54.2095032  79.7367554  18.4107035
  53.8720012  81.3994997  23.2629988  54.1520012  80.4924997  23.3869988
  54.6310012  81.8334997  22.8739988  54.0129277  81.3340942  23.2273682
  54.4840012  81.9804997  28.6989988  55.4170012  82.1924997  28.6649988
  54.2490012  82.0824997  29.6209988  54.5798036  82.0232769  28.8189976
  54.5130012  82.7174997  31.4749988  53.6700012  82.9854997  31.8409988
  54.9550012  83.5394997  31.2639988  54.4574158  82.8653291  31.4965491
  38.7940012  81.1654997  34.9519988  39.7140012  81.0434997  35.1879988
  38.3450012  80.4154997  35.3409988  38.8591580  81.0473727  35.0369006
  56.7960012  76.6974997  36.8279988  57.1460012  76.0434997  36.2229988
  56.9430012  77.5344997  36.3889988  56.8638419  76.7211591  36.6857118
  54.4850012  78.6624997  23.3109988  54.6680012  78.2134997  24.1369988
  53.8860012  78.0774997  22.8479988  54.4290202  78.5219975  23.3613275
  40.0150012  79.4774997  27.8429988  40.4610012  78.6854997  28.1449988
  40.4820012  80.1934997  28.2739988  40.1390172  79.4660624  27.9424820
  38.3190012  82.4764997  28.9119988  38.8110012  82.2554997  28.1209988
  38.6820012  83.3174997  29.1929988  38.4353126  82.5598357  28.8417531
  56.3160012  78.8064997  35.1779988  55.3980012  79.0774997  35.1419988
  56.4390012  78.2714997  34.3929988  56.2071066  78.7712892  35.0670487
  56.3520012  78.7294997  19.8389988  56.7640012  78.0084997  19.3639988
  57.0340012  79.3994997  19.8979988  56.5005885  78.7212368  19.7818915
  38.6330012  78.7344997  22.9659988  37.7080012  78.9434997  22.8369988
  39.0870012  79.2184997  22.2769988  38.5677368  78.8285993  22.8551226
  53.4040012  93.7184997  24.9119988  54.0560012  93.3714997  24.3039988
  53.9140012  94.2074997  25.5579988  53.5622637  93.7370597  24.9160236
  38.5970012  77.4724997  31.3109988  37.9320012  77.2264997  31.9539988
  38.1540012  78.0944997  30.7329988  38.4460956  77.5228632  31.3209352
  40.7890012  90.6474997  35.4549988  39.9680012  90.8224997  34.9949988
  40.5360012  90.5744997  36.3759988  40.6426164  90.6615622  35.5164923
  43.7430012  91.6224997  31.7139988  43.3180012  92.4314997  31.4309988
  44.6470012  91.7074997  31.4119988  43.8070271  91.7448469  31.6343776
  48.0540012  93.0214997  34.6729988  48.2390012  92.6874997  35.5509988
  48.9000012  93.3304997  34.3509988  48.1937539  93.0176047  34.7495605
  50.3990012  94.3074997  33.9169988  51.0760012  93.6744997  33.6769988
  50.7210012  94.7084997  34.7239988  50.5351637  94.2751154  33.9932793
  55.3160012  76.8964997  32.9969988  54.5040012  77.2214997  32.6089988
  55.5490012  76.1364997  32.4639988  55.2363423  76.8382436  32.8718253
  41.1450012  94.8784997  31.7609988  40.4240012  95.3184997  31.3099988
  40.7790012  94.6274997  32.6099988  40.9969804  94.9047698  31.8139840
  43.6120012  94.4784997  30.7909988  42.7470012  94.5504997  31.1949988
  43.5570012  95.0254997  30.0069988  43.4862085  94.5622685  30.7403362
  48.3220012  94.3664997  29.9659988  47.8660012  94.8954997  29.3119988
  48.4850012  94.9694997  30.6919988  48.2815585  94.5204468  29.9745062
  50.6500012  93.2444997  30.9109988  49.7450012  93.4094997  30.6459988
  51.0790012  94.0974997  30.8459988  50.5840799  93.3824483  30.8659182
  53.2540012  94.8144997  31.2059988  53.0720012  95.7304997  30.9959988
  53.4310012  94.4044997  30.3599988  53.2530210  94.8844822  31.0627885
  40.5590012  93.5014997  28.6709988  40.5410012  93.0764997  29.5289988
  41.3640012  93.1834997  28.2629988  40.6653875  93.4003812  28.7331655
  42.7010012  92.2114997  27.3259988  42.4820012  91.2954997  27.4959988
  43.5250012  92.3514997  27.7919988  42.7824420  92.1050520  27.4122774
  45.2380012  92.6814997  28.1749988  45.4510012  91.7934997  27.8879988
  45.3020012  92.6474997  29.1289988  45.2758232  92.5553102  28.2647397
  48.7460012  78.3454997  27.3189988  48.0720012  77.7164997  27.5749988
  49.3100012  77.8614997  26.7159988  48.7299230  78.1938744  27.2725340
  53.8890012  76.4534997  27.4319988  54.4930012  77.0004997  26.9299988
  53.0190012  76.7724997  27.1919988  53.8541241  76.5715806  27.3307654
  55.6160012  77.5914997  25.7649988  56.2280012  77.0774997  25.2389988
  55.9980012  78.4694997  25.7889988  55.7514540  77.6397140  25.6961830
  41.0730012  76.9794997  25.1409988  40.2960012  76.7454997  24.6339988
  41.6030012  76.1824997  25.1499988  41.0382330  76.8396988  25.0727742
  39.9090012  76.7774997  20.9449988  40.3480012  77.3884997  20.3529988
  39.2760012  77.3154997  21.4189988  39.8834514  76.9339257  20.9280930
  45.6520012  76.9064997  24.9549988  46.5270012  77.2944997  24.9249988
  45.5160012  76.6914997  25.8769988  45.7533695  76.9305184  25.0756440
  51.2090012  76.9364997  26.6039988  51.2850012  77.0314997  25.6539988
  50.9340012  76.0284997  26.7329988  51.1822321  76.8267867  26.4915079
  52.5620012  76.9624997  22.2959988  51.8600012  77.5774997  22.0869988
  52.1180012  76.1244997  22.4269988  52.4056330  76.9335783  22.2850328
  39.8100012  92.7254997  21.8429988  39.1250012  92.6874997  21.1749988
  39.8140012  93.6384997  22.1309988  39.7168193  92.8437016  21.7905284
  41.7700012  78.6934997  19.3869988  42.2620012  78.0634997  18.8599988
  42.3940012  78.9894997  20.0509988  41.9215446  78.6473199  19.4045980
  46.7960012  78.9864997  21.8439988  46.9740012  78.3404997  22.5269988
  46.7430012  79.8204997  22.3119988  46.8131829  79.0107985  22.0005940
  48.6750012  93.9354997  20.2399988  49.5410012  94.3014997  20.0619988
  48.4280012  93.4954997  19.4259988  48.7602392  93.9261756  20.1056289
  55.3840012  93.4984997  22.9189988  55.1890012  92.7504997  22.3539988
  55.3450012  94.2564997  22.3359988  55.3520380  93.4986099  22.7628384
  41.0310012  77.4934997  34.6589988  40.6650012  76.7284997  35.1019988
  41.9440012  77.5224997  34.9459988  41.1042790  77.3927224  34.7584070
  43.0040012  76.8444997  36.1949988  43.9020012  76.5704997  36.0099988
  42.6170012  76.1014997  36.6589988  43.0746612  76.7065914  36.2323643
  41.6280012  93.6454997  18.8679988  41.3610012  93.9324997  19.7409988
  42.4000012  93.0994997  19.0199988  41.6957488  93.6110294  19.0081050
  51.4250012  76.1764997  36.3769988  51.5020012  75.7504997  37.2309988
  52.3190012  76.1904997  36.0339988  51.5563428  76.1200879  36.4475310
  54.6010012  92.2494997  35.0689988  53.8190012  92.0634997  34.5499988
  54.5290012  93.1784997  35.2869988  54.4841777  92.3496492  35.0274048
  69.0070012  86.1354997  25.0999988  69.0960012  87.0794997  24.9679988
  68.3690012  85.8604997  24.4419988  68.9329081  86.2274830  24.9929614
  67.9400012  85.3904997  28.5189988  67.9020012  84.7444997  29.2239988
  67.6180012  84.9244997  27.7479988  67.8912333  85.2389408  28.5112978
  60.3090012  85.0054997  30.1119988  60.3500012  84.3794997  30.8349988
  61.0120012  85.6294997  30.2939988  60.4096363  85.0041196  30.2356044
  71.6460012  88.3294997  26.8199988  71.2060012  87.6094997  27.2709988
  71.6330012  89.0504997  27.4499988  71.5840226  88.3283731  26.9668494
  61.2320012  89.4554997  28.6469988  60.8630012  88.6534997  28.2769988
  62.1730012  89.2864997  28.6929988  61.3087289  89.3230153  28.6026316
  57.8420012  83.1154997  24.0399988  57.3950012  83.9614997  24.0209988
  57.2810012  82.5354997  23.5239988  57.7049900  83.1529916  23.9676801
  58.5530012  85.2774997  26.1659988  58.7660012  84.5074997  26.6929988
  59.2910012  85.3664997  25.5619988  58.6818496  85.1841394  26.1565300
  68.7580012  93.4344997  27.0329988  69.3780012  92.7574997  26.7589988
  68.5500012  93.2164997  27.9409988  68.8146904  93.3123870  27.1183365
  66.3300012  87.8234997  28.9249988  66.6340012  87.1374997  28.3299988
  67.0510012  87.9414997  29.5429988  66.4690671  87.7456305  28.9271816
  62.6250012  80.3184997  26.5249988  62.6690012  81.1784997  26.1069988
  62.1680012  79.7664997  25.8909988  62.5692185  80.3615799  26.3820299
  59.2460012  82.7154997  27.2869988  59.8990012  82.1654997  27.7189988
  59.2700012  82.4414997  26.3699988  59.3386683  82.6031466  27.2222123
  64.4020012  84.2654997  26.5019988  65.0180012  83.7394997  27.0119988
  63.8160012  83.6254997  26.0989988  64.4070810  84.1069208  26.5173173
  68.8050012  88.7364997  24.1429988  68.5090012  88.4144997  23.2919988
  68.4800012  89.6364997  24.1839988  68.7206371  88.8140215  24.0321801
  64.0050012  86.9124997  30.8859988  63.2650012  87.5104997  30.9899988
  64.7190012  87.4664997  30.5709988  64.0002237  87.0692831  30.8576465
  61.0290012  81.1284997  28.5509988  61.6430012  81.7614997  28.9249988
  61.5410012  80.6564997  27.8949988  61.1822296  81.1512370  28.5134252
  62.4120012  88.8764997  31.6739988  62.4070012  89.7564997  31.2959988
  61.5590012  88.7934997  32.0989988  62.2959464  88.9856117  31.6797907
  58.5330012  88.5474997  22.4559988  58.2610012  88.7764997  21.5669988
  58.5790012  89.3854997  22.9159988  58.5020094  88.6921213  22.3965697
  72.1580012  90.1694997  29.1679988  71.2170012  90.2274997  29.3299988
  72.4350012  91.0754997  29.0309988  72.0664679  90.2999443  29.1716815
  65.4620012  76.5424997  28.0519988  65.3450012  75.5934997  27.9969988
  64.6070012  76.8744997  28.3249988  65.3303733  76.4575409  28.0813897
  70.4100012  91.9504997  25.7939988  70.8360012  91.2434997  25.3089988
  70.7270012  92.7514997  25.3769988  70.5111019  91.9620994  25.6713130
  71.5700012  89.8514997  24.3019988  71.3120012  89.1614997  23.6909988
  71.6410012  89.4084997  25.1479988  71.5442856  89.6972124  24.3326885
  73.2560012  88.4174997  32.7799988  73.3960012  87.8264997  32.0399988
  73.4230012  89.2904997  32.4229988  73.2976778  88.4546426  32.6306965
  67.7290012  85.3794997  22.5519988  67.0170012  85.9144997  22.1999988
  68.4200012  85.4354997  21.8919988  67.7250132  85.4602543  22.4146289
  67.7820012  83.8374997  19.5909988  68.4830012  83.8594997  20.2419988
  68.0850012  83.2094997  18.9349988  67.9187830  83.7556566  19.5913711
  71.1340012  85.5894997  23.5039988  70.4020012  85.8174997  24.0769988
  71.5820012  84.8754997  23.9589988  71.0943095  85.5242571  23.6439119
  71.0320012  83.7634997  32.5709988  71.1120012  84.5264997  33.1429988
  70.4300012  84.0424997  31.8809988  70.9615756  83.9057134  32.5560589
  62.7800012  86.2194997  25.3859988  62.4490012  85.8494997  24.5679988
  63.3680012  85.5494997  25.7329988  62.8141873  86.0781156  25.3208102
  64.1460012  89.6474997  28.0679988  64.0520012  89.0694997  27.3109988
  64.8760012  89.2764997  28.5639988  64.2317981  89.5182390  28.0314165
  63.1460012  84.9884997  29.0199988  63.7120012  85.1094997  28.2569988
  63.4650012  85.6254997  29.6589988  63.2665786  85.0911884  29.0020040
  69.4550012  90.4914997  29.7539988  69.2150012  91.1534997  30.4019988
  69.2570012  89.6574997  30.1789988  69.3953808  90.4693134  29.9001524
  64.0260012  89.3874997  33.7369988  63.7150012  90.1694997  34.1919988
  63.3760012  89.2344997  33.0509988  63.8955558  89.4739105  33.7065871
  70.0050012  84.7514997  21.1889988  70.5850012  84.9014997  21.9359988
  70.4190012  85.2224997  20.4659988  70.1402830  84.8356841  21.1934134
  60.9460012  85.5854997  32.9659988  61.0170012  86.2364997  33.6639988
  60.0560012  85.6884997  32.6309988  60.8353117  85.6885936  33.0162700
  67.7320012  91.4884997  24.6239988  68.2060012  91.7834997  25.4019988
  67.1690012  92.2264997  24.3909988  67.7207653  91.6286932  24.6990136
  62.2660012  91.4594997  34.4999988  62.2730012  91.3234997  33.5529988
  61.3500012  91.3414997  34.7519988  62.1431714  91.4249430  34.4044666
  61.7700012  85.2894997  22.9759988  61.4780012  86.0574997  22.4849988
  61.0960012  84.6294997  22.8129988  61.6389081  85.3054406  22.8867340
  74.8930012  90.8674997  19.3779988  74.9670012  91.8064997  19.5489988
  75.7990012  90.5624997  19.3219988  75.0255100  90.9546722  19.3938119
  57.8630012  87.6524997  31.7909988  57.3620012  87.6244997  30.9759988
  57.8680012  86.7464997  32.0999988  57.7951526  87.5262278  31.7212872
  57.6130012  90.4324997  28.6749988  58.5590012  90.2884997  28.6559988
  57.5010012  91.2164997  29.2119988  57.7272727  90.5188046  28.7450072
  75.8110012  91.0984997  34.3569988  75.7620012  90.1434997  34.3199988
  74.9840012  91.3664997  34.7579988  75.6924940  91.0038998  34.4061375
  66.7900012  90.6724997  33.2329988  66.8770012  91.4984997  33.7079988
  65.9260012  90.3424997  33.4819988  66.6851964  90.7409878  33.3316549
  67.2040012  94.4444997  23.0389988  67.1290012  94.3234997  22.0929988
  67.2370012  95.3944997  23.1579988  67.1981848  94.5562500  22.9254834
  60.8570012  93.2334997  24.8199988  61.0100012  92.8854997  25.6989988
  60.0070012  92.8774997  24.5649988  60.7628962  93.1376650  24.9058340
  70.3060012  93.5984997  20.0409988  70.6810012  92.8544997  19.5709988
  70.3100012  93.3284997  20.9599988  70.3578915  93.4601486  20.1007824
  69.9750012  93.5244997  22.7909988  69.0390012  93.6244997  22.9689988
  70.2550012  92.8154997  23.3689988  69.8848255  93.4422711  22.8935391
  72.9630012  82.5914997  34.8369988  72.5560012  83.0724997  34.1159988
  73.0040012  81.6864997  34.5289988  72.9128437  82.5349374  34.6966683
  60.1120012  88.9754997  32.8339988  60.3280012  88.6144997  33.6929988
  59.2570012  88.6014997  32.6239988  60.0259292  88.8754111  32.9233386
  71.4830012  85.7844997  18.8189988  71.5250012  85.5614997  17.8889988
  72.3320012  86.1834997  19.0089988  71.6035396  85.8079155  18.7173627
  67.0550012  79.6604997  19.4889988  66.8020012  79.6794997  20.4119988
  66.7990012  78.7884997  19.1879988  66.9857790  79.5452437  19.5746263
  62.8220012  82.4114997  29.9239988  62.1800012  82.3704997  30.6329988
  62.8590012  83.3374997  29.6869988  62.7391324  82.5311559  29.9889824
  62.8190012  82.6324997  24.8359988  61.9260012  82.2914997  24.7779988
  63.2690012  82.2554997  24.0809988  62.7577305  82.5348484  24.7259177
  68.3540012  83.0484997  23.6529988  67.9450012  83.8634997  23.3619988
  69.0750012  82.9084997  23.0389988  68.3954537  83.1412018  23.5301342
  67.4560012  83.2234997  35.1409988  66.8940012  82.5194997  35.4619988
  68.2830012  83.1034997  35.6089988  67.4907095  83.1107883  35.2482330
  69.3590012  82.4944997  26.4669988  69.1640012  83.0994997  25.7519988
  69.5400012  81.6604997  26.0329988  69.3567614  82.4646300  26.3104405
  60.5720012  82.7314997  31.7909988  60.5340012  83.1314997  32.6599988
  60.0810012  81.9144997  31.8819988  60.5004684  82.6758069  31.9221059
  63.9380012  80.1054997  18.5899988  63.5070012  79.6604997  19.3199988
  63.2200012  80.4774997  18.0779988  63.7819438  80.0948940  18.6206799
  57.1800012  79.8474997  25.6419988  57.8110012  79.8184997  26.3609988
  57.6290012  79.4224997  24.9119988  57.3270774  79.7860492  25.6416553
  58.4540012  80.5934997  21.0659988  58.9280012  81.1844997  20.4809988
  57.7370012  81.1244997  21.4129988  58.4219341  80.7460867  21.0328836
  68.6230012  84.1324997  31.1389988  68.9460012  83.5014997  30.4959988
  68.1830012  83.5974997  31.7989988  68.6076895  83.9738441  31.1402850
  65.4000012  80.0594997  25.9229988  64.4890012  80.1164997  26.2109988
  65.9060012  79.9994997  26.7329988  65.3435413  80.0591985  26.0720622
  60.2290012  81.6884997  24.7489988  59.3390012  81.7884997  24.4089988
  60.5250012  80.8464997  24.4029988  60.1472823  81.5883546  24.6557213
  63.8820012  81.6884997  22.4059988  64.8130012  81.8174997  22.5839988
  63.6670012  82.3584997  21.7559988  63.9804247  81.7966565  22.3425747
  62.5560012  82.8834997  19.9729988  62.0130012  82.5034997  19.2809988
  63.3890012  83.0774997  19.5439988  62.5944399  82.8578124  19.8204526
  73.0930012  94.9664997  35.4639988  73.2930012  95.3904997  34.6289988
  73.7480012  95.3094997  36.0709988  73.2090051  95.0709648  35.4317836
  60.6910012  87.4404997  35.0719988  61.4230012  87.6944997  35.6329988
  59.9110012  87.6444997  35.5869988  60.6858232  87.5029177  35.2185760
  66.7200012  82.8474997  27.8099988  67.2850012  82.3004997  27.2629988
  66.5730012  82.3254997  28.5979988  66.7772918  82.7022024  27.8418454
  61.7220012  78.9834997  24.2279988  61.4050012  78.0814997  24.1929988
  62.5040012  78.9854997  23.6749988  61.7842284  78.8601628  24.1484783
  65.3470012  81.2354997  30.2239988  64.5110012  81.6894997  30.3339988
  65.8710012  81.5114997  30.9759988  65.3034414  81.3349376  30.3407136
  65.8910012  87.4484997  21.9079988  65.1460012  86.9414997  21.5859988
  65.7570012  87.4974997  22.8549988  65.7708776  87.3856940  21.9918647
  73.0410012  86.5814997  30.6949988  73.6830012  87.0384997  30.1509988
  72.2110012  86.6944997  30.2319988  73.0165963  86.6592704  30.5580177
  67.4100012  87.6324997  33.1449988  67.0650012  87.2514997  33.9519988
  67.2100012  88.5664997  33.2169988  67.3358061  87.7065228  33.2650961
  61.0160012  86.7434997  27.6779988  61.7610012  86.7414997  27.0769988
  61.0940012  85.9204997  28.1599988  61.1285518  86.6319315  27.6608929
  68.0170012  88.9074997  20.9339988  67.7210012  89.7334997  21.3149988
  67.3140012  88.2874997  21.1299988  67.8814914  88.9368199  21.0126443
  58.0240012  85.2044997  32.9929988  58.2470012  84.7864997  33.8249988
  57.4220012  84.5914997  32.5699988  57.9731759  85.0644668  33.0497022
  65.0400012  84.7214997  35.2059988  64.7440012  84.5554997  34.3109988
  65.9720012  84.5014997  35.1949988  65.1254166  84.6690640  35.0820536
  69.6610012  90.0944997  33.0959988  68.7600012  90.2774997  32.8279988
  69.6950012  90.3534997  34.0169988  69.5423041  90.1545512  33.1838197
  75.3550012  88.1394997  34.2999988  74.5040012  88.3774997  33.9329988
  75.9460012  88.1224997  33.5469988  75.3182487  88.1698258  34.1478893
  73.6870012  91.1254997  21.9279988  73.3140012  90.2994997  22.2369988
  73.9650012  90.9424997  21.0309988  73.6735630  90.9877303  21.8489626
  70.8480012  85.9334997  28.9489988  69.9190012  85.7014997  28.9219988
  71.2990012  85.1564997  28.6189988  70.7819216  85.7967238  28.9006917
  63.3910012  90.2614997  25.0819988  63.9180012  91.0344997  24.8819988
  62.5110012  90.4864997  24.7809988  63.3441773  90.3978005  25.0139010
  59.1460012  85.1234997  19.6689988  59.7620012  85.7504997  20.0489988
  58.2840012  85.4394997  19.9409988  59.1137698  85.2519430  19.7577183
  64.8180012  87.9244997  24.6589988  64.5770012  88.8494997  24.6999988
  64.0770012  87.4654997  25.0549988  64.6848409  87.9891421  24.7181377
  65.3330012  92.0734997  30.9739988  65.6950012  92.9284997  30.7399988
  65.8640012  91.7814997  31.7139988  65.4544473  92.1511060  31.0420855
  63.5010012  92.9464997  24.2039988  62.5510012  93.0514997  24.2549988
  63.8530012  93.7664997  24.5489988  63.4184203  93.0718314  24.2576650
  68.8770012  88.1724997  30.6739988  68.4510012  87.9454997  31.5009988
  69.4570012  87.4344997  30.4919988  68.8971868  88.0415299  30.7625830
  71.0800012  89.1014997  19.7479988  71.4330012  88.7214997  20.5529988
  70.1310012  89.0084997  19.8349988  71.0000441  89.0369596  19.8698559
  71.5350012  92.7244997  33.1439988  70.9340012  92.1694997  32.6479988
  71.8170012  93.3914997  32.5179988  71.4908519  92.7386841  32.9914952
  75.5830012  93.5814997  19.9489988  76.3270012  94.1674997  19.8089988
  74.8890012  94.1494997  20.2829988  75.5910292  93.7385582  19.9749961
  59.6580012  79.9574997  32.5509988  58.7650012  80.2964997  32.4829988
  59.5590012  79.1024997  32.9689988  59.5224164  79.8882588  32.5982235
  71.9460012  87.7744997  21.9749988  71.6680012  87.0464997  22.5309988
  72.8730012  87.8934997  22.1799988  72.0333124  87.6908802  22.0788845
  59.3090012  91.7624997  30.9859988  59.5260012  90.8304997  30.9549988
  59.5550012  92.0364997  31.8689988  59.3719549  91.6720636  31.1011763
  65.1710012  90.2134997  18.1949988  65.4100012  89.4654997  17.6479988
  64.9020012  89.8254997  19.0279988  65.1673675  90.0586638  18.2326865
  64.1080012  89.7834997  20.6519988  64.2540012  89.2634997  21.4419988
  64.1050012  90.6904997  20.9579988  64.1275989  89.8348853  20.8016088
  60.5610012  87.0364997  21.1619988  59.8750012  87.3884997  21.7289988
  61.0830012  87.7994997  20.9149988  60.5376852  87.1878578  21.2062118
  66.8450012  91.4814997  21.4009988  66.0290012  91.9784997  21.4529988
  67.3750012  91.9564997  20.7609988  66.8049161  91.6137722  21.3215956
  66.3770012  81.0784997  23.3729988  67.1890012  81.5834997  23.4189988
  66.1320012  80.9334997  24.2869988  66.4550520  81.1280375  23.5028517
  66.9120012  82.0644997  32.5579988  67.0310012  82.6384997  33.3149988
  67.5680012  81.3764997  32.6719988  67.0169757  82.0501079  32.6770825
  64.1840012  92.5254997  21.3829988  64.3440012  93.3244997  20.8819988
  63.9860012  92.8314997  22.2679988  64.1791649  92.6764469  21.4339815
  62.9180012  79.2224997  20.9979988  62.8350012  80.1114997  21.3449988
  63.8080012  78.9574997  21.2299988  63.0269469  79.3081430  21.0767626
  61.1770012  89.6504997  20.0589988  61.7690012  90.3494997  20.3349988
  61.6360012  89.2174997  19.3389988  61.3201142  89.6877049  19.9994830
  59.4930012  82.3144997  19.1749988  59.4480012  83.2534997  19.3529988
  58.6050012  82.0784997  18.9049988  59.3668574  82.4111892  19.1628912
  72.8050012  92.9784997  29.1109988  72.6500012  93.6564997  28.4539988
  73.7380012  93.0504997  29.3139988  72.9098500  93.0810170  29.0485119
  59.2310012  91.0364997  24.0079988  58.3990012  91.5094997  24.0359988
  59.7770012  91.5464997  23.4099988  59.1909739  91.1701871  23.9309716
  58.5190012  93.6494997  35.3379988  59.0600012  93.4324997  36.0979988
  58.0380012  92.8434997  35.1489988  58.5279345  93.5109514  35.4163076
  63.1170012  92.5684997  36.9589988  63.8840012  92.1094997  37.2999988
  63.0950012  92.3424997  36.0289988  63.2191434  92.4750409  36.8800043
  67.2090012  92.0764997  18.3339988  66.5650012  91.4454997  18.6549988
  67.9710012  91.5454997  18.1019988  67.2238077  91.9182920  18.3466011
  69.6940012  90.9484997  35.6879988  69.3430012  90.0924997  35.9309988
  70.4200012  91.0914997  36.2949988  69.7440769  90.8505636  35.8033619
  71.8130012  91.8934997  18.5679988  72.0960012  91.0994997  19.0199988
  72.5530012  92.1264997  18.0069988  71.9517486  91.8162803  18.5540698
  58.4260012  87.4594997  36.2929988  58.5700012  86.5574997  36.0059988
  57.6540012  87.7454997  35.8049988  58.3413323  87.3748261  36.1877881
  62.7680012  87.8034997  18.4249988  62.8320012  87.0094997  18.9559988
  63.4210012  87.6844997  17.7349988  62.8650241  87.6787148  18.4044317
  65.0820012  87.4294997  35.7249988  64.7530012  87.7004997  34.8679988
  65.2340012  86.4884997  35.6379988  65.0574809  87.3393862  35.5958244
  68.1200012  88.8504997  18.1609988  67.8510012  89.0304997  19.0619988
  67.9140012  87.9244997  18.0299988  68.0553825  88.7500152  18.2665214
  70.8160012  87.3454997  33.1089988  71.5620012  87.9334997  32.9889988
  70.0590012  87.9274997  33.1719988  70.8157554  87.5047011  33.1010907
  59.2590012  84.6594997  35.7129988  59.6670012  83.8024997  35.5919988
  58.9990012  84.6744997  36.6339988  59.2797568  84.5440807  35.8209588
  63.9170012  85.7754997  20.7309988  63.4570012  85.2914997  21.4169988
  64.1720012  85.1074997  20.0949988  63.8884902  85.6188731  20.7389334
  63.2060012  83.6684997  33.0869988  62.5880012  84.3434997  33.3669988
  63.5500012  83.9894997  32.2539988  63.1679615  83.8042721  33.0126581
  64.9880012  84.0184997  18.9929988  64.8080012  83.8644997  18.0659988
  65.9380012  84.1264997  19.0379988  65.0917776  84.0120175  18.8721843
  68.2260012  86.1404997  36.3639988  69.1790012  86.2234997  36.3369988
  68.0650012  85.4284997  36.9839988  68.3346426  86.0556746  36.4440579
  74.3780012  86.3734997  18.4389988  74.1040012  85.9484997  17.6259988
  74.4170012  87.3044997  18.2219988  74.3457699  86.4412484  18.2983610
  63.5450012  81.0234997  34.1689988  63.6950012  80.2944997  33.5669988
  63.5480012  81.8004997  33.6099988  63.5659302  81.0287851  34.0110692
  63.9580012  79.3934997  31.6619988  64.4940012  79.8444997  31.0099988
  63.1060012  79.2854997  31.2389988  63.9162178  79.4406390  31.5155756
  65.5400012  84.8324997  31.9009988  66.2900012  84.6764997  31.3279988
  65.2010012  85.6844997  31.6259988  65.5968921  84.9262968  31.7853561
  69.9550012  82.6474997  36.9299988  70.1480012  81.7164997  36.8179988
  70.8130012  83.0724997  36.9199988  70.0973020  82.5776389  36.9133361
  71.2720012  85.4364997  35.0069988  70.9910012  86.1454997  34.4299988
  72.2150012  85.3634997  34.8559988  71.3609027  85.5237646  34.9075551
  62.0240012  82.2214997  36.0809988  61.2570012  81.6894997  35.8709988
  62.7030012  81.9114997  35.4809988  62.0107022  82.1067506  35.9711648
  64.7640012  76.8494997  32.0929988  64.6650012  77.7964997  31.9879988
  64.0210012  76.4774997  31.6179988  64.6500564  76.9285902  32.0144560
  66.0280012  81.1714997  35.6569988  65.7920012  80.9514997  36.5589988
  65.2440012  80.9644997  35.1469988  65.8898628  81.1134760  35.7113932
  68.7430012  80.2984997  34.7329988  67.7960012  80.3304997  34.8649988
  69.0560012  79.6734997  35.3859988  68.6555475  80.2183207  34.8394455
  70.3770012  78.9324997  36.7379988  70.2810012  77.9804997  36.7319988
  70.0560012  79.2014997  37.5979988  70.3204070  78.8384035  36.8535441
  60.2040012  80.1424997  35.7849988  60.4160012  79.4354997  35.1749988
  60.0930012  79.7044997  36.6289988  60.2179721  79.9867084  35.8156843
  64.9850012  76.1434997  34.7649988  65.6970012  75.5034997  34.7509988
  64.8840012  76.4104997  33.8509988  65.0687939  76.0919938  34.6395650
  65.3390012  77.8264997  36.8179988  65.2070012  77.3504997  35.9979988
  64.7400012  78.5704997  36.7629988  65.2399071  77.8619618  36.6982886
  64.8850012  94.7094997  19.9949988  65.8180012  94.8674997  20.1379988
  64.6210012  95.3844997  19.3699988  64.9769510  94.8223611  19.9300741
  58.4540012  89.3454997  19.4769988  59.3680012  89.4244997  19.7509988
  58.4610012  88.6584997  18.8109988  58.5801131  89.2633961  19.4244393
  57.1030012  94.7384997  24.5549988  56.4560012  94.2764997  24.0219988
  57.4570012  94.0664997  25.1369988  57.0623849  94.5844723  24.5607959
  57.9730012  92.8194997  26.3589988  57.6380012  91.9394997  26.5309988
  58.1950012  93.1644997  27.2239988  57.9571783  92.7457500  26.4994208
  75.5210012  93.6284997  29.3399988  75.5000012  93.8134997  30.2789988
  76.2120012  94.1974997  28.9989988  75.6114618  93.7306606  29.4223864
  75.0850012  93.1964997  32.2619988  74.5970012  92.4604997  31.8909988
  75.6340012  92.8024997  32.9399988  75.0924872  93.0426249  32.3029160
  73.5350012  88.9854997  36.8999988  72.6690012  88.8804997  37.2939988
  73.9120012  89.7444997  37.3459988  73.4673308  89.0736900  37.0142393
  74.8360012  87.2424997  22.4139988  75.6860012  87.6634997  22.5409988
  74.8420012  86.5024997  23.0209988  74.9531372  87.2000803  22.5134344
  75.2310012  85.2954997  24.2379988  74.5040012  84.8164997  24.6349988
  75.8120012  85.5014997  24.9699988  75.2099375  85.2577090  24.3914129
  74.9900012  88.0804997  29.1849988  75.8230012  87.7024997  28.9049988
  75.1020012  89.0234997  29.0659988  75.1192647  88.1562218  29.1305487
  73.4760012  90.9584997  31.4919988  72.8290012  91.2834997  32.1179988
  72.9590012  90.5184997  30.8179988  73.3174029  90.9435004  31.4865827
  75.4990012  85.1964997  20.6289988  74.9770012  85.5534997  19.9099988
  75.4660012  85.8714997  21.3069988  75.4231634  85.3365413  20.6223145
  73.8480012  82.4364997  19.1799988  73.9440012  83.1034997  18.4989988
  73.7080012  81.6204997  18.6979988  73.8422135  82.4174500  19.0218491
  73.0170012  83.8164997  24.8009988  72.8670012  82.8714997  24.7799988
  72.6640012  84.0974997  25.6439988  72.9486625  83.7250441  24.9122346
  58.0530012  85.8944997  28.8109988  58.2370012  85.8124997  27.8749988
  58.9020012  85.7704997  29.2349988  58.1930139  85.8665003  28.7401455
  73.8740012  85.7864997  34.4389988  74.4570012  85.0524997  34.6309988
  74.4380012  86.5584997  34.4859988  74.0299769  85.7904227  34.4716159
  75.3700012  83.6894997  35.1239988  74.5070012  83.3104997  34.9579988
  75.9750012  82.9504997  35.0499988  75.3335979  83.5378023  35.0912817
  73.0950012  79.8444997  18.2969988  73.7060012  79.4734997  18.9339988
  72.2590012  79.4234997  18.4929988  73.0655032  79.7367554  18.4107035
  57.6500012  81.1654997  34.9519988  58.5700012  81.0434997  35.1879988
  57.2010012  80.4154997  35.3409988  57.7151580  81.0473727  35.0369006
  75.6520012  76.6974997  36.8279988  76.0020012  76.0434997  36.2229988
  75.7990012  77.5344997  36.3889988  75.7198419  76.7211591  36.6857118
  58.8710012  79.4774997  27.8429988  59.3170012  78.6854997  28.1449988
  59.3380012  80.1934997  28.2739988  58.9950172  79.4660624  27.9424820
  57.1750012  82.4764997  28.9119988  57.6670012  82.2554997  28.1209988
  57.5380012  83.3174997  29.1929988  57.2913126  82.5598357  28.8417531
  57.4890012  78.7344997  22.9659988  56.5640012  78.9434997  22.8369988
  57.9430012  79.2184997  22.2769988  57.4237368  78.8285993  22.8551226
  72.2600012  93.7184997  24.9119988  72.9120012  93.3714997  24.3039988
  72.7700012  94.2074997  25.5579988  72.4182637  93.7370597  24.9160236
  57.4530012  77.4724997  31.3109988  56.7880012  77.2264997  31.9539988
  57.0100012  78.0944997  30.7329988  57.3020956  77.5228632  31.3209352
  59.6450012  90.6474997  35.4549988  58.8240012  90.8224997  34.9949988
  59.3920012  90.5744997  36.3759988  59.4986164  90.6615622  35.5164923
  62.5990012  91.6224997  31.7139988  62.1740012  92.4314997  31.4309988
  63.5030012  91.7074997  31.4119988  62.6630271  91.7448469  31.6343776
  66.9100012  93.0214997  34.6729988  67.0950012  92.6874997  35.5509988
  67.7560012  93.3304997  34.3509988  67.0497539  93.0176047  34.7495605
  69.2550012  94.3074997  33.9169988  69.9320012  93.6744997  33.6769988
  69.5770012  94.7084997  34.7239988  69.3911637  94.2751154  33.9932793
  60.0010012  94.8784997  31.7609988  59.2800012  95.3184997  31.3099988
  59.6350012  94.6274997  32.6099988  59.8529804  94.9047698  31.8139840
  62.4680012  94.4784997  30.7909988  61.6030012  94.5504997  31.1949988
  62.4130012  95.0254997  30.0069988  62.3422085  94.5622685  30.7403362
  67.1780012  94.3664997  29.9659988  66.7220012  94.8954997  29.3119988
  67.3410012  94.9694997  30.6919988  67.1375585  94.5204468  29.9745062
  69.5060012  93.2444997  30.9109988  68.6010012  93.4094997  30.6459988
  69.9350012  94.0974997  30.8459988  69.4400799  93.3824483  30.8659182
  72.1100012  94.8144997  31.2059988  71.9280012  95.7304997  30.9959988
  72.2870012  94.4044997  30.3599988  72.1090210  94.8844822  31.0627885
  59.4150012  93.5014997  28.6709988  59.3970012  93.0764997  29.5289988
  60.2200012  93.1834997  28.2629988  59.5213875  93.4003812  28.7331655
  61.5570012  92.2114997  27.3259988  61.3380012  91.2954997  27.4959988
  62.3810012  92.3514997  27.7919988  61.6384420  92.1050520  27.4122774
  64.0940012  92.6814997  28.1749988  64.3070012  91.7934997  27.8879988
  64.1580012  92.6474997  29.1289988  64.1318232  92.5553102  28.2647397
  59.9290012  76.9794997  25.1409988  59.1520012  76.7454997  24.6339988
  60.4590012  76.1824997  25.1499988  59.8942330  76.8396988  25.0727742
  58.7650012  76.7774997  20.9449988  59.2040012  77.3884997  20.3529988
  58.1320012  77.3154997  21.4189988  58.7394514  76.9339257  20.9280930
  64.5080012  76.9064997  24.9549988  65.3830012  77.2944997  24.9249988
  64.3720012  76.6914997  25.8769988  64.6093695  76.9305184  25.0756440
  58.6660012  92.7254997  21.8429988  57.9810012  92.6874997  21.1749988
  58.6700012  93.6384997  22.1309988  58.5728193  92.8437016  21.7905284
  60.6260012  78.6934997  19.3869988  61.1180012  78.0634997  18.8599988
  61.2500012  78.9894997  20.0509988  60.7775446  78.6473199  19.4045980
  65.6520012  78.9864997  21.8439988  65.8300012  78.3404997  22.5269988
  65.5990012  79.8204997  22.3119988  65.6691829  79.0107985  22.0005940
  67.5310012  93.9354997  20.2399988  68.3970012  94.3014997  20.0619988
  67.2840012  93.4954997  19.4259988  67.6162392  93.9261756  20.1056289
  74.2400012  93.4984997  22.9189988  74.0450012  92.7504997  22.3539988
  74.2010012  94.2564997  22.3359988  74.2080380  93.4986099  22.7628384
  59.8870012  77.4934997  34.6589988  59.5210012  76.7284997  35.1019988
  60.8000012  77.5224997  34.9459988  59.9602790  77.3927224  34.7584070
  60.4840012  93.6454997  18.8679988  60.2170012  93.9324997  19.7409988
  61.2560012  93.0994997  19.0199988  60.5517488  93.6110294  19.0081050
  70.2810012  76.1764997  36.3769988  70.3580012  75.7504997  37.2309988
  71.1750012  76.1904997  36.0339988  70.4123428  76.1200879  36.4475310
  73.4570012  92.2494997  35.0689988  72.6750012  92.0634997  34.5499988
  73.3850012  93.1784997  35.2869988  73.3401777  92.3496492  35.0274048
  87.8630012  86.1354997  25.0999988  87.9520012  87.0794997  24.9679988
  87.2250012  85.8604997  24.4419988  87.7889081  86.2274830  24.9929614
  86.7960012  85.3904997  28.5189988  86.7580012  84.7444997  29.2239988
  86.4740012  84.9244997  27.7479988  86.7472333  85.2389408  28.5112978
  79.1650012  85.0054997  30.1119988  79.2060012  84.3794997  30.8349988
  79.8680012  85.6294997  30.2939988  79.2656363  85.0041196  30.2356044
  90.5020012  88.3294997  26.8199988  90.0620012  87.6094997  27.2709988
  90.4890012  89.0504997  27.4499988  90.4400226  88.3283731  26.9668494
  80.0880012  89.4554997  28.6469988  79.7190012  88.6534997  28.2769988
  81.0290012  89.2864997  28.6929988  80.1647289  89.3230153  28.6026316
  76.6980012  83.1154997  24.0399988  76.2510012  83.9614997  24.0209988
  76.1370012  82.5354997  23.5239988  76.5609900  83.1529916  23.9676801
  77.4090012  85.2774997  26.1659988  77.6220012  84.5074997  26.6929988
  78.1470012  85.3664997  25.5619988  77.5378496  85.1841394  26.1565300
  87.6140012  93.4344997  27.0329988  88.2340012  92.7574997  26.7589988
  87.4060012  93.2164997  27.9409988  87.6706904  93.3123870  27.1183365
  85.1860012  87.8234997  28.9249988  85.4900012  87.1374997  28.3299988
  85.9070012  87.9414997  29.5429988  85.3250671  87.7456305  28.9271816
  78.1020012  82.7154997  27.2869988  78.7550012  82.1654997  27.7189988
  78.1260012  82.4414997  26.3699988  78.1946683  82.6031466  27.2222123
  83.2580012  84.2654997  26.5019988  83.8740012  83.7394997  27.0119988
  82.6720012  83.6254997  26.0989988  83.2630810  84.1069208  26.5173173
  87.6610012  88.7364997  24.1429988  87.3650012  88.4144997  23.2919988
  87.3360012  89.6364997  24.1839988  87.5766371  88.8140215  24.0321801
  82.8610012  86.9124997  30.8859988  82.1210012  87.5104997  30.9899988
  83.5750012  87.4664997  30.5709988  82.8562237  87.0692831  30.8576465
  81.2680012  88.8764997  31.6739988  81.2630012  89.7564997  31.2959988
  80.4150012  88.7934997  32.0989988  81.1519464  88.9856117  31.6797907
  77.3890012  88.5474997  22.4559988  77.1170012  88.7764997  21.5669988
  77.4350012  89.3854997  22.9159988  77.3580094  88.6921213  22.3965697
  91.0140012  90.1694997  29.1679988  90.0730012  90.2274997  29.3299988
  91.2910012  91.0754997  29.0309988  90.9224679  90.2999443  29.1716815
  89.2660012  91.9504997  25.7939988  89.6920012  91.2434997  25.3089988
  89.5830012  92.7514997  25.3769988  89.3671019  91.9620994  25.6713130
  90.4260012  89.8514997  24.3019988  90.1680012  89.1614997  23.6909988
  90.4970012  89.4084997  25.1479988  90.4002856  89.6972124  24.3326885
  92.1120012  88.4174997  32.7799988  92.2520012  87.8264997  32.0399988
  92.2790012  89.2904997  32.4229988  92.1536778  88.4546426  32.6306965
  86.6380012  83.8374997  19.5909988  87.3390012  83.8594997  20.2419988
  86.9410012  83.2094997  18.9349988  86.7747830  83.7556566  19.5913711
  89.9900012  85.5894997  23.5039988  89.2580012  85.8174997  24.0769988
  90.4380012  84.8754997  23.9589988  89.9503095  85.5242571  23.6439119
  81.6360012  86.2194997  25.3859988  81.3050012  85.8494997  24.5679988
  82.2240012  85.5494997  25.7329988  81.6701873  86.0781156  25.3208102
  83.0020012  89.6474997  28.0679988  82.9080012  89.0694997  27.3109988
  83.7320012  89.2764997  28.5639988  83.0877981  89.5182390  28.0314165
  82.0020012  84.9884997  29.0199988  82.5680012  85.1094997  28.2569988
  82.3210012  85.6254997  29.6589988  82.1225786  85.0911884  29.0020040
  88.3110012  90.4914997  29.7539988  88.0710012  91.1534997  30.4019988
  88.1130012  89.6574997  30.1789988  88.2513808  90.4693134  29.9001524
  82.8820012  89.3874997  33.7369988  82.5710012  90.1694997  34.1919988
  82.2320012  89.2344997  33.0509988  82.7515558  89.4739105  33.7065871
  88.8610012  84.7514997  21.1889988  89.4410012  84.9014997  21.9359988
  89.2750012  85.2224997  20.4659988  88.9962830  84.8356841  21.1934134
  79.8020012  85.5854997  32.9659988  79.8730012  86.2364997  33.6639988
  78.9120012  85.6884997  32.6309988  79.6913117  85.6885936  33.0162700
  86.5880012  91.4884997  24.6239988  87.0620012  91.7834997  25.4019988
  86.0250012  92.2264997  24.3909988  86.5767653  91.6286932  24.6990136
  81.1220012  91.4594997  34.4999988  81.1290012  91.3234997  33.5529988
  80.2060012  91.3414997  34.7519988  80.9991714  91.4249430  34.4044666
  92.5600012  76.5014997  21.0019988  91.6600012  76.6404997  21.2969988
  92.8120012  77.3324997  20.5999988  92.4708702  76.6329074  20.9880205
  80.6260012  85.2894997  22.9759988  80.3340012  86.0574997  22.4849988
  79.9520012  84.6294997  22.8129988  80.4949081  85.3054406  22.8867340
  93.7490012  90.8674997  19.3779988  93.8230012  91.8064997  19.5489988
  94.6550012  90.5624997  19.3219988  93.8815100  90.9546722  19.3938119
  76.7190012  87.6524997  31.7909988  76.2180012  87.6244997  30.9759988
  76.7240012  86.7464997  32.0999988  76.6511526  87.5262278  31.7212872
  76.4690012  90.4324997  28.6749988  77.4150012  90.2884997  28.6559988
  76.3570012  91.2164997  29.2119988  76.5832727  90.5188046  28.7450072
  94.6670012  91.0984997  34.3569988  94.6180012  90.1434997  34.3199988
  93.8400012  91.3664997  34.7579988  94.5484940  91.0038998  34.4061375
  85.6460012  90.6724997  33.2329988  85.7330012  91.4984997  33.7079988
  84.7820012  90.3424997  33.4819988  85.5411964  90.7409878  33.3316549
  86.0600012  94.4444997  23.0389988  85.9850012  94.3234997  22.0929988
  86.0930012  95.3944997  23.1579988  86.0541848  94.5562500  22.9254834
  79.7130012  93.2334997  24.8199988  79.8660012  92.8854997  25.6989988
  78.8630012  92.8774997  24.5649988  79.6188962  93.1376650  24.9058340
  89.1620012  93.5984997  20.0409988  89.5370012  92.8544997  19.5709988
  89.1660012  93.3284997  20.9599988  89.2138915  93.4601486  20.1007824
  88.8310012  93.5244997  22.7909988  87.8950012  93.6244997  22.9689988
  89.1110012  92.8154997  23.3689988  88.7408255  93.4422711  22.8935391
  78.9680012  88.9754997  32.8339988  79.1840012  88.6144997  33.6929988
  78.1130012  88.6014997  32.6239988  78.8819292  88.8754111  32.9233386
  90.3390012  85.7844997  18.8189988  90.3810012  85.5614997  17.8889988
  91.1880012  86.1834997  19.0089988  90.4595396  85.8079155  18.7173627
  79.0850012  81.6884997  24.7489988  78.1950012  81.7884997  24.4089988
  79.3810012  80.8464997  24.4029988  79.0032823  81.5883545  24.6557213
  81.4120012  82.8834997  19.9729988  80.8690012  82.5034997  19.2809988
  82.2450012  83.0774997  19.5439988  81.4504399  82.8578124  19.8204526
  91.9490012  94.9664997  35.4639988  92.1490012  95.3904997  34.6289988
  92.6040012  95.3094997  36.0709988  92.0650051  95.0709648  35.4317836
  79.5470012  87.4404997  35.0719988  80.2790012  87.6944997  35.6329988
  78.7670012  87.6444997  35.5869988  79.5418232  87.5029177  35.2185760
  84.7470012  87.4484997  21.9079988  84.0020012  86.9414997  21.5859988
  84.6130012  87.4974997  22.8549988  84.6268776  87.3856940  21.9918647
  91.8970012  86.5814997  30.6949988  92.5390012  87.0384997  30.1509988
  91.0670012  86.6944997  30.2319988  91.8725963  86.6592704  30.5580177
  86.2660012  87.6324997  33.1449988  85.9210012  87.2514997  33.9519988
  86.0660012  88.5664997  33.2169988  86.1918061  87.7065228  33.2650961
  79.8720012  86.7434997  27.6779988  80.6170012  86.7414997  27.0769988
  79.9500012  85.9204997  28.1599988  79.9845518  86.6319315  27.6608929
  86.8730012  88.9074997  20.9339988  86.5770012  89.7334997  21.3149988
  86.1700012  88.2874997  21.1299988  86.7374914  88.9368199  21.0126443
  76.8800012  85.2044997  32.9929988  77.1030012  84.7864997  33.8249988
  76.2780012  84.5914997  32.5699988  76.8291759  85.0644668  33.0497022
  88.5170012  90.0944997  33.0959988  87.6160012  90.2774997  32.8279988
  88.5510012  90.3534997  34.0169988  88.3983041  90.1545512  33.1838197
  94.2480012  82.3394997  21.4629988  93.6940012  81.9434997  20.7909988
  94.3480012  83.2494997  21.1849988  94.1857059  82.4083586  21.3334401
  92.5430012  91.1254997  21.9279988  92.1700012  90.2994997  22.2369988
  92.8210012  90.9424997  21.0309988  92.5295630  90.9877303  21.8489626
  89.7040012  85.9334997  28.9489988  88.7750012  85.7014997  28.9219988
  90.1550012  85.1564997  28.6189988  89.6379216  85.7967238  28.9006917
  82.2470012  90.2614997  25.0819988  82.7740012  91.0344997  24.8819988
  81.3670012  90.4864997  24.7809988  82.2001773  90.3978005  25.0139010
  78.0020012  85.1234997  19.6689988  78.6180012  85.7504997  20.0489988
  77.1400012  85.4394997  19.9409988  77.9697698  85.2519430  19.7577183
  83.6740012  87.9244997  24.6589988  83.4330012  88.8494997  24.6999988
  82.9330012  87.4654997  25.0549988  83.5408409  87.9891421  24.7181377
  84.1890012  92.0734997  30.9739988  84.5510012  92.9284997  30.7399988
  84.7200012  91.7814997  31.7139988  84.3104473  92.1511060  31.0420855
  82.3570012  92.9464997  24.2039988  81.4070012  93.0514997  24.2549988
  82.7090012  93.7664997  24.5489988  82.2744203  93.0718314  24.2576650
  87.7330012  88.1724997  30.6739988  87.3070012  87.9454997  31.5009988
  88.3130012  87.4344997  30.4919988  87.7531868  88.0415299  30.7625830
  89.9360012  89.1014997  19.7479988  90.2890012  88.7214997  20.5529988
  88.9870012  89.0084997  19.8349988  89.8560441  89.0369596  19.8698559
  90.3910012  92.7244997  33.1439988  89.7900012  92.1694997  32.6479988
  90.6730012  93.3914997  32.5179988  90.3468519  92.7386841  32.9914952
  94.4390012  93.5814997  19.9489988  95.1830012  94.1674997  19.8089988
  93.7450012  94.1494997  20.2829988  94.4470292  93.7385582  19.9749961
  90.8020012  87.7744997  21.9749988  90.5240012  87.0464997  22.5309988
  91.7290012  87.8934997  22.1799988  90.8893124  87.6908802  22.0788845
  78.1650012  91.7624997  30.9859988  78.3820012  90.8304997  30.9549988
  78.4110012  92.0364997  31.8689988  78.2279549  91.6720636  31.1011763
  84.0270012  90.2134997  18.1949988  84.2660012  89.4654997  17.6479988
  83.7580012  89.8254997  19.0279988  84.0233675  90.0586638  18.2326865
  82.9640012  89.7834997  20.6519988  83.1100012  89.2634997  21.4419988
  82.9610012  90.6904997  20.9579988  82.9835989  89.8348853  20.8016088
  79.4170012  87.0364997  21.1619988  78.7310012  87.3884997  21.7289988
  79.9390012  87.7994997  20.9149988  79.3936852  87.1878578  21.2062118
  85.7010012  91.4814997  21.4009988  84.8850012  91.9784997  21.4529988
  86.2310012  91.9564997  20.7609988  85.6609161  91.6137722  21.3215956
  83.0400012  92.5254997  21.3829988  83.2000012  93.3244997  20.8819988
  82.8420012  92.8314997  22.2679988  83.0351649  92.6764469  21.4339815
  80.0330012  89.6504997  20.0589988  80.6250012  90.3494997  20.3349988
  80.4920012  89.2174997  19.3389988  80.1761142  89.6877049  19.9994830
  78.3490012  82.3144997  19.1749988  78.3040012  83.2534997  19.3529988
  77.4610012  82.0784997  18.9049988  78.2228574  82.4111892  19.1628912
  91.6610012  92.9784997  29.1109988  91.5060012  93.6564997  28.4539988
  92.5940012  93.0504997  29.3139988  91.7658500  93.0810170  29.0485119
  78.0870012  91.0364997  24.0079988  77.2550012  91.5094997  24.0359988
  78.6330012  91.5464997  23.4099988  78.0469739  91.1701871  23.9309716
  77.3750012  93.6494997  35.3379988  77.9160012  93.4324997  36.0979988
  76.8940012  92.8434997  35.1489988  77.3839345  93.5109514  35.4163076
  81.9730012  92.5684997  36.9589988  82.7400012  92.1094997  37.2999988
  81.9510012  92.3424997  36.0289988  82.0751434  92.4750409  36.8800043
  86.0650012  92.0764997  18.3339988  85.4210012  91.4454997  18.6549988
  86.8270012  91.5454997  18.1019988  86.0798077  91.9182920  18.3466011
  88.5500012  90.9484997  35.6879988  88.1990012  90.0924997  35.9309988
  89.2760012  91.0914997  36.2949988  88.6000769  90.8505636  35.8033619
  90.6690012  91.8934997  18.5679988  90.9520012  91.0994997  19.0199988
  91.4090012  92.1264997  18.0069988  90.8077486  91.8162803  18.5540698
  77.2820012  87.4594997  36.2929988  77.4260012  86.5574997  36.0059988
  76.5100012  87.7454997  35.8049988  77.1973323  87.3748261  36.1877881
  81.6240012  87.8034997  18.4249988  81.6880012  87.0094997  18.9559988
  82.2770012  87.6844997  17.7349988  81.7210241  87.6787148  18.4044317
  86.9760012  88.8504997  18.1609988  86.7070012  89.0304997  19.0619988
  86.7700012  87.9244997  18.0299988  86.9113825  88.7500152  18.2665214
  89.6720012  87.3454997  33.1089988  90.4180012  87.9334997  32.9889988
  88.9150012  87.9274997  33.1719988  89.6717554  87.5047011  33.1010907
  82.7730012  85.7754997  20.7309988  82.3130012  85.2914997  21.4169988
  83.0280012  85.1074997  20.0949988  82.7444902  85.6188731  20.7389334
  83.8440012  84.0184997  18.9929988  83.6640012  83.8644997  18.0659988
  84.7940012  84.1264997  19.0379988  83.9477776  84.0120175  18.8721843
  87.0820012  86.1404997  36.3639988  88.0350012  86.2234997  36.3369988
  86.9210012  85.4284997  36.9839988  87.1906426  86.0556746  36.4440579
  93.2340012  86.3734997  18.4389988  92.9600012  85.9484997  17.6259988
  93.2730012  87.3044997  18.2219988  93.2017699  86.4412484  18.2983610
  84.3960012  84.8324997  31.9009988  85.1460012  84.6764997  31.3279988
  84.0570012  85.6844997  31.6259988  84.4528921  84.9262968  31.7853561
  90.1280012  85.4364997  35.0069988  89.8470012  86.1454997  34.4299988
  91.0710012  85.3634997  34.8559988  90.2169027  85.5237646  34.9075551
  83.7410012  94.7094997  19.9949988  84.6740012  94.8674997  20.1379988
  83.4770012  95.3844997  19.3699988  83.8329510  94.8223611  19.9300741
  77.3100012  89.3454997  19.4769988  78.2240012  89.4244997  19.7509988
  77.3170012  88.6584997  18.8109988  77.4361131  89.2633961  19.4244393
  75.9590012  94.7384997  24.5549988  75.3120012  94.2764997  24.0219988
  76.3130012  94.0664997  25.1369988  75.9183849  94.5844723  24.5607959
  76.8290012  92.8194997  26.3589988  76.4940012  91.9394997  26.5309988
  77.0510012  93.1644997  27.2239988  76.8131783  92.7457500  26.4994208
  94.3770012  93.6284997  29.3399988  94.3560012  93.8134997  30.2789988
  95.0680012  94.1974997  28.9989988  94.4674618  93.7306606  29.4223864
  93.9410012  93.1964997  32.2619988  93.4530012  92.4604997  31.8909988
  94.4900012  92.8024997  32.9399988  93.9484872  93.0426249  32.3029160
  92.3910012  88.9854997  36.8999988  91.5250012  88.8804997  37.2939988
  92.7680012  89.7444997  37.3459988  92.3233308  89.0736900  37.0142393
  93.6920012  87.2424997  22.4139988  94.5420012  87.6634997  22.5409988
  93.6980012  86.5024997  23.0209988  93.8091372  87.2000803  22.5134344
  94.0870012  85.2954997  24.2379988  93.3600012  84.8164997  24.6349988
  94.6680012  85.5014997  24.9699988  94.0659375  85.2577090  24.3914129
  93.8460012  88.0804997  29.1849988  94.6790012  87.7024997  28.9049988
  93.9580012  89.0234997  29.0659988  93.9752647  88.1562218  29.1305487
  92.3320012  90.9584997  31.4919988  91.6850012  91.2834997  32.1179988
  91.8150012  90.5184997  30.8179988  92.1734029  90.9435004  31.4865827
  94.3550012  85.1964997  20.6289988  93.8330012  85.5534997  19.9099988
  94.3220012  85.8714997  21.3069988  94.2791634  85.3365413  20.6223145
  92.7040012  82.4364997  19.1799988  92.8000012  83.1034997  18.4989988
  92.5640012  81.6204997  18.6979988  92.6982135  82.4174500  19.0218491
  76.9090012  85.8944997  28.8109988  77.0930012  85.8124997  27.8749988
  77.7580012  85.7704997  29.2349988  77.0490139  85.8665003  28.7401455
  91.9510012  79.8444997  18.2969988  92.5620012  79.4734997  18.9339988
  91.1150012  79.4234997  18.4929988  91.9215032  79.7367554  18.4107035
  94.0640012  78.7294997  19.8389988  94.4760012  78.0084997  19.3639988
  94.7460012  79.3994997  19.8979988  94.2125885  78.7212368  19.7818915
  91.1160012  93.7184997  24.9119988  91.7680012  93.3714997  24.3039988
  91.6260012  94.2074997  25.5579988  91.2742637  93.7370597  24.9160236
  78.5010012  90.6474997  35.4549988  77.6800012  90.8224997  34.9949988
  78.2480012  90.5744997  36.3759988  78.3546164  90.6615622  35.5164923
  81.4550012  91.6224997  31.7139988  81.0300012  92.4314997  31.4309988
  82.3590012  91.7074997  31.4119988  81.5190271  91.7448469  31.6343776
  85.7660012  93.0214997  34.6729988  85.9510012  92.6874997  35.5509988
  86.6120012  93.3304997  34.3509988  85.9057539  93.0176047  34.7495605
  88.1110012  94.3074997  33.9169988  88.7880012  93.6744997  33.6769988
  88.4330012  94.7084997  34.7239988  88.2471637  94.2751154  33.9932793
  78.8570012  94.8784997  31.7609988  78.1360012  95.3184997  31.3099988
  78.4910012  94.6274997  32.6099988  78.7089804  94.9047698  31.8139840
  81.3240012  94.4784997  30.7909988  80.4590012  94.5504997  31.1949988
  81.2690012  95.0254997  30.0069988  81.1982085  94.5622685  30.7403362
  86.0340012  94.3664997  29.9659988  85.5780012  94.8954997  29.3119988
  86.1970012  94.9694997  30.6919988  85.9935585  94.5204468  29.9745062
  88.3620012  93.2444997  30.9109988  87.4570012  93.4094997  30.6459988
  88.7910012  94.0974997  30.8459988  88.2960799  93.3824483  30.8659182
  90.9660012  94.8144997  31.2059988  90.7840012  95.7304997  30.9959988
  91.1430012  94.4044997  30.3599988  90.9650210  94.8844822  31.0627885
  78.2710012  93.5014997  28.6709988  78.2530012  93.0764997  29.5289988
  79.0760012  93.1834997  28.2629988  78.3773875  93.4003812  28.7331655
  80.4130012  92.2114997  27.3259988  80.1940012  91.2954997  27.4959988
  81.2370012  92.3514997  27.7919988  80.4944420  92.1050520  27.4122774
  82.9500012  92.6814997  28.1749988  83.1630012  91.7934997  27.8879988
  83.0140012  92.6474997  29.1289988  82.9878232  92.5553102  28.2647397
  90.2740012  76.9624997  22.2959988  89.5720012  77.5774997  22.0869988
  89.8300012  76.1244997  22.4269988  90.1176330  76.9335783  22.2850328
  77.5220012  92.7254997  21.8429988  76.8370012  92.6874997  21.1749988
  77.5260012  93.6384997  22.1309988  77.4288193  92.8437016  21.7905284
  86.3870012  93.9354997  20.2399988  87.2530012  94.3014997  20.0619988
  86.1400012  93.4954997  19.4259988  86.4722392  93.9261756  20.1056289
  93.0960012  93.4984997  22.9189988  92.9010012  92.7504997  22.3539988
  93.0570012  94.2564997  22.3359988  93.0640380  93.4986099  22.7628384
  79.3400012  93.6454997  18.8679988  79.0730012  93.9324997  19.7409988
  80.1120012  93.0994997  19.0199988  79.4077488  93.6110294  19.0081050
  89.1370012  76.1764997  36.3769988  89.2140012  75.7504997  37.2309988
  90.0310012  76.1904997  36.0339988  89.2683428  76.1200879  36.4475310
  92.3130012  92.2494997  35.0689988  91.5310012  92.0634997  34.5499988
  92.2410012  93.1784997  35.2869988  92.1961777  92.3496492  35.0274048
 106.7190012  86.1354997  25.0999988 106.8080012  87.0794997  24.9679988
 106.0810012  85.8604997  24.4419988 106.6449081  86.2274830  24.9929614
 105.6520012  85.3904997  28.5189988 105.6140012  84.7444997  29.2239988
 105.3300012  84.9244997  27.7479988 105.6032333  85.2389408  28.5112978
 109.3580012  88.3294997  26.8199988 108.9180012  87.6094997  27.2709988
 109.3450012  89.0504997  27.4499988 109.2960226  88.3283731  26.9668494
  98.9440012  89.4554997  28.6469988  98.5750012  88.6534997  28.2769988
  99.8850012  89.2864997  28.6929988  99.0207289  89.3230153  28.6026316
  95.5540012  83.1154997  24.0399988  95.1070012  83.9614997  24.0209988
  94.9930012  82.5354997  23.5239988  95.4169900  83.1529916  23.9676801
  96.2650012  85.2774997  26.1659988  96.4780012  84.5074997  26.6929988
  97.0030012  85.3664997  25.5619988  96.3938496  85.1841394  26.1565300
 106.4700012  93.4344997  27.0329988 107.0900012  92.7574997  26.7589988
 106.2620012  93.2164997  27.9409988 106.5266904  93.3123870  27.1183365
 104.0420012  87.8234997  28.9249988 104.3460012  87.1374997  28.3299988
 104.7630012  87.9414997  29.5429988 104.1810671  87.7456305  28.9271816
 112.7050012  79.4244997  29.7859988 112.7540012  80.0344997  30.5219988
 113.1300012  79.8854997  29.0629988 112.7691824  79.5703741  29.7890205
 107.1830012  82.2174997  29.2529988 107.3250012  81.2714997  29.2729988
 107.0760012  82.4244997  28.3239988 107.1879864  82.1159534  29.1302339
 100.3370012  80.3184997  26.5249988 100.3810012  81.1784997  26.1069988
  99.8800012  79.7664997  25.8909988 100.2812185  80.3615799  26.3820299
 108.0600012  80.4494997  24.9259988 108.7060012  80.1204997  25.5509988
 108.5700012  80.9674997  24.3029988 108.2174264  80.4744611  24.9273862
  96.9580012  82.7154997  27.2869988  97.6110012  82.1654997  27.7189988
  96.9820012  82.4414997  26.3699988  97.0506683  82.6031466  27.2222123
 102.1140012  84.2654997  26.5019988 102.7300012  83.7394997  27.0119988
 101.5280012  83.6254997  26.0989988 102.1190810  84.1069208  26.5173173
 113.0960012  80.9024997  32.0219988 112.4080012  81.5604997  31.9259988
 113.1120012  80.7054997  32.9579988 113.0038525  80.9660462  32.1354808
  99.1480012  79.2364997  30.5989988  98.9290012  79.7664997  29.8329988
  98.4800012  79.4634997  31.2459988  99.0277600  79.3396906  30.5816379
 106.5170012  88.7364997  24.1429988 106.2210012  88.4144997  23.2919988
 106.1920012  89.6364997  24.1839988 106.4326371  88.8140215  24.0321801
 101.7170012  86.9124997  30.8859988 100.9770012  87.5104997  30.9899988
 102.4310012  87.4664997  30.5709988 101.7122237  87.0692831  30.8576465
 109.8240012  79.7404997  26.9059988 109.6080012  78.9744997  27.4389988
 110.4790012  80.2124997  27.4189988 109.8830632  79.6995889  27.0482861
 100.1240012  88.8764997  31.6739988 100.1190012  89.7564997  31.2959988
  99.2710012  88.7934997  32.0989988 100.0079464  88.9856117  31.6797907
  96.2450012  88.5474997  22.4559988  95.9730012  88.7764997  21.5669988
  96.2910012  89.3854997  22.9159988  96.2140094  88.6921213  22.3965697
 109.8700012  90.1694997  29.1679988 108.9290012  90.2274997  29.3299988
 110.1470012  91.0754997  29.0309988 109.7784679  90.2999443  29.1716815
 110.1710012  78.4554997  30.5859988 109.4350012  79.0664997  30.5479988
 110.8540012  78.8704997  30.0589988 110.1626541  78.5951374  30.5095832
 103.1740012  76.5424997  28.0519988 103.0570012  75.5934997  27.9969988
 102.3190012  76.8744997  28.3249988 103.0423733  76.4575409  28.0813897
 108.1220012  91.9504997  25.7939988 108.5480012  91.2434997  25.3089988
 108.4390012  92.7514997  25.3769988 108.2231019  91.9620994  25.6713130
 109.2820012  89.8514997  24.3019988 109.0240012  89.1614997  23.6909988
 109.3530012  89.4084997  25.1479988 109.2562856  89.6972124  24.3326885
 110.9680012  88.4174997  32.7799988 111.1080012  87.8264997  32.0399988
 111.1350012  89.2904997  32.4229988 111.0096778  88.4546426  32.6306965
 105.4410012  85.3794997  22.5519988 104.7290012  85.9144997  22.1999988
 106.1320012  85.4354997  21.8919988 105.4370132  85.4602543  22.4146289
 105.4940012  83.8374997  19.5909988 106.1950012  83.8594997  20.2419988
 105.7970012  83.2094997  18.9349988 105.6307830  83.7556566  19.5913711
 112.8100012  84.7574997  30.8459988 112.1570012  85.4524997  30.9349988
 113.2750012  84.9674997  30.0359988 112.7835390  84.8809425  30.7486883
 108.8460012  85.5894997  23.5039988 108.1140012  85.8174997  24.0769988
 109.2940012  84.8754997  23.9589988 108.8063095  85.5242571  23.6439119
 108.7440012  83.7634997  32.5709988 108.8240012  84.5264997  33.1429988
 108.1420012  84.0424997  31.8809988 108.6735756  83.9057134  32.5560589
 100.4920012  86.2194997  25.3859988 100.1610012  85.8494997  24.5679988
 101.0800012  85.5494997  25.7329988 100.5261873  86.0781156  25.3208102
 101.8580012  89.6474997  28.0679988 101.7640012  89.0694997  27.3109988
 102.5880012  89.2764997  28.5639988 101.9437981  89.5182390  28.0314165
 107.1670012  90.4914997  29.7539988 106.9270012  91.1534997  30.4019988
 106.9690012  89.6574997  30.1789988 107.1073808  90.4693134  29.9001524
 101.7380012  89.3874997  33.7369988 101.4270012  90.1694997  34.1919988
 101.0880012  89.2344997  33.0509988 101.6075558  89.4739105  33.7065871
 107.7170012  84.7514997  21.1889988 108.2970012  84.9014997  21.9359988
 108.1310012  85.2224997  20.4659988 107.8522830  84.8356841  21.1934134
 105.4440012  91.4884997  24.6239988 105.9180012  91.7834997  25.4019988
 104.8810012  92.2264997  24.3909988 105.4327653  91.6286932  24.6990136
  99.9780012  91.4594997  34.4999988  99.9850012  91.3234997  33.5529988
  99.0620012  91.3414997  34.7519988  99.8551714  91.4249430  34.4044666
 111.4160012  76.5014997  21.0019988 110.5160012  76.6404997  21.2969988
 111.6680012  77.3324997  20.5999988 111.3268702  76.6329074  20.9880205
  99.4820012  85.2894997  22.9759988  99.1900012  86.0574997  22.4849988
  98.8080012  84.6294997  22.8129988  99.3509081  85.3054406  22.8867340
 112.6050012  90.8674997  19.3779988 112.6790012  91.8064997  19.5489988
 113.5110012  90.5624997  19.3219988 112.7375100  90.9546722  19.3938119
  95.5750012  87.6524997  31.7909988  95.0740012  87.6244997  30.9759988
  95.5800012  86.7464997  32.0999988  95.5071526  87.5262278  31.7212872
  95.3250012  90.4324997  28.6749988  96.2710012  90.2884997  28.6559988
  95.2130012  91.2164997  29.2119988  95.4392727  90.5188046  28.7450072
 113.5230012  91.0984997  34.3569988 113.4740012  90.1434997  34.3199988
 112.6960012  91.3664997  34.7579988 113.4044940  91.0038998  34.4061375
 104.5020012  90.6724997  33.2329988 104.5890012  91.4984997  33.7079988
 103.6380012  90.3424997  33.4819988 104.3971964  90.7409878  33.3316549
 104.9160012  94.4444997  23.0389988 104.8410012  94.3234997  22.0929988
 104.9490012  95.3944997  23.1579988 104.9101848  94.5562500  22.9254834
  98.5690012  93.2334997  24.8199988  98.7220012  92.8854997  25.6989988
  97.7190012  92.8774997  24.5649988  98.4748962  93.1376650  24.9058340
 108.0180012  93.5984997  20.0409988 108.3930012  92.8544997  19.5709988
 108.0220012  93.3284997  20.9599988 108.0698915  93.4601486  20.1007824
 107.6870012  93.5244997  22.7909988 106.7510012  93.6244997  22.9689988
 107.9670012  92.8154997  23.3689988 107.5968255  93.4422711  22.8935391
 110.6750012  82.5914997  34.8369988 110.2680012  83.0724997  34.1159988
 110.7160012  81.6864997  34.5289988 110.6248437  82.5349374  34.6966683
  97.8240012  88.9754997  32.8339988  98.0400012  88.6144997  33.6929988
  96.9690012  88.6014997  32.6239988  97.7379292  88.8754111  32.9233386
 100.4430012  77.4454997  28.8289988  99.5810012  77.3584997  28.4219988
 100.4200012  78.3014997  29.2569988 100.3220330  77.5492765  28.8311863
 105.1060012  77.1674997  32.2039988 105.5260012  76.7524997  32.9569988
 104.1730012  76.9894997  32.3209988 105.0373644  77.0865900  32.3229539
 108.4320012  80.9234997  33.0569988 107.9180012  80.7974997  33.8549988
 108.2770012  81.8354997  32.8129988 108.3406852  81.0296132  33.1332158
 109.1950012  85.7844997  18.8189988 109.2370012  85.5614997  17.8889988
 110.0440012  86.1834997  19.0089988 109.3155396  85.8079155  18.7173627
 104.7670012  79.6604997  19.4889988 104.5140012  79.6794997  20.4119988
 104.5110012  78.7884997  19.1879988 104.6977790  79.5452437  19.5746263
 100.5310012  82.6324997  24.8359988  99.6380012  82.2914997  24.7779988
 100.9810012  82.2554997  24.0809988 100.4697305  82.5348484  24.7259177
 106.0660012  83.0484997  23.6529988 105.6570012  83.8634997  23.3619988
 106.7870012  82.9084997  23.0389988 106.1074537  83.1412018  23.5301342
 105.1680012  83.2234997  35.1409988 104.6060012  82.5194997  35.4619988
 105.9950012  83.1034997  35.6089988 105.2027095  83.1107883  35.2482330
 107.0710012  82.4944997  26.4669988 106.8760012  83.0994997  25.7519988
 107.2520012  81.6604997  26.0329988 107.0687614  82.4646300  26.3104405
 101.6500012  80.1054997  18.5899988 101.2190012  79.6604997  19.3199988
 100.9320012  80.4774997  18.0779988 101.4939438  80.0948940  18.6206799
  96.1660012  80.5934997  21.0659988  96.6400012  81.1844997  20.4809988
  95.4490012  81.1244997  21.4129988  96.1339341  80.7460867  21.0328836
 106.3350012  84.1324997  31.1389988 106.6580012  83.5014997  30.4959988
 105.8950012  83.5974997  31.7989988 106.3196895  83.9738441  31.1402850
 103.1120012  80.0594997  25.9229988 102.2010012  80.1164997  26.2109988
 103.6180012  79.9994997  26.7329988 103.0555413  80.0591985  26.0720622
  97.9410012  81.6884997  24.7489988  97.0510012  81.7884997  24.4089988
  98.2370012  80.8464997  24.4029988  97.8592823  81.5883545  24.6557213
 101.5940012  81.6884997  22.4059988 102.5250012  81.8174997  22.5839988
 101.3790012  82.3584997  21.7559988 101.6924247  81.7966565  22.3425747
 107.5170012  79.2944997  29.1869988 106.8410012  79.4254997  29.8509988
 107.0320012  79.1394997  28.3769988 107.3587145  79.2914905  29.1684517
 100.2680012  82.8834997  19.9729988  99.7250012  82.5034997  19.2809988
 101.1010012  83.0774997  19.5439988 100.3064399  82.8578124  19.8204526
 110.8050012  94.9664997  35.4639988 111.0050012  95.3904997  34.6289988
 111.4600012  95.3094997  36.0709988 110.9210051  95.0709648  35.4317836
  98.4030012  87.4404997  35.0719988  99.1350012  87.6944997  35.6329988
  97.6230012  87.6444997  35.5869988  98.3978232  87.5029177  35.2185760
 104.4320012  82.8474997  27.8099988 104.9970012  82.3004997  27.2629988
 104.2850012  82.3254997  28.5979988 104.4892918  82.7022024  27.8418454
  99.4340012  78.9834997  24.2279988  99.1170012  78.0814997  24.1929988
 100.2160012  78.9854997  23.6749988  99.4962284  78.8601628  24.1484783
 103.0590012  81.2354997  30.2239988 102.2230012  81.6894997  30.3339988
 103.5830012  81.5114997  30.9759988 103.0154414  81.3349376  30.3407136
 103.6030012  87.4484997  21.9079988 102.8580012  86.9414997  21.5859988
 103.4690012  87.4974997  22.8549988 103.4828776  87.3856940  21.9918647
 110.7530012  86.5814997  30.6949988 111.3950012  87.0384997  30.1509988
 109.9230012  86.6944997  30.2319988 110.7285963  86.6592704  30.5580177
 107.5010012  80.2624997  20.1079988 106.5620012  80.3744997  19.9559988
 107.7980012  81.1194997  20.4139988 107.4127666  80.3936443  20.1285768
 105.1220012  87.6324997  33.1449988 104.7770012  87.2514997  33.9519988
 104.9220012  88.5664997  33.2169988 105.0478061  87.7065228  33.2650961
 108.2190012  82.1294997  21.7679988 109.1110012  81.9924997  22.0869988
 108.2760012  82.9204997  21.2319988 108.3486285  82.2176660  21.7391691
  98.7280012  86.7434997  27.6779988  99.4730012  86.7414997  27.0769988
  98.8060012  85.9204997  28.1599988  98.8405518  86.6319315  27.6608929
 105.7290012  88.9074997  20.9339988 105.4330012  89.7334997  21.3149988
 105.0260012  88.2874997  21.1299988 105.5934914  88.9368199  21.0126443
 102.7520012  84.7214997  35.2059988 102.4560012  84.5554997  34.3109988
 103.6840012  84.5014997  35.1949988 102.8374166  84.6690640  35.0820536
 107.3730012  90.0944997  33.0959988 106.4720012  90.2774997  32.8279988
 107.4070012  90.3534997  34.0169988 107.2543041  90.1545512  33.1838197
 113.1040012  82.3394997  21.4629988 112.5500012  81.9434997  20.7909988
 113.2040012  83.2494997  21.1849988 113.0417059  82.4083586  21.3334401
 113.0670012  88.1394997  34.2999988 112.2160012  88.3774997  33.9329988
 113.6580012  88.1224997  33.5469988 113.0302487  88.1698258  34.1478893
 111.3990012  91.1254997  21.9279988 111.0260012  90.2994997  22.2369988
 111.6770012  90.9424997  21.0309988 111.3855630  90.9877303  21.8489626
 108.5600012  85.9334997  28.9489988 107.6310012  85.7014997  28.9219988
 109.0110012  85.1564997  28.6189988 108.4939216  85.7967238  28.9006917
 101.1030012  90.2614997  25.0819988 101.6300012  91.0344997  24.8819988
 100.2230012  90.4864997  24.7809988 101.0561773  90.3978005  25.0139010
  96.8580012  85.1234997  19.6689988  97.4740012  85.7504997  20.0489988
  95.9960012  85.4394997  19.9409988  96.8257698  85.2519430  19.7577183
 102.5300012  87.9244997  24.6589988 102.2890012  88.8494997  24.6999988
 101.7890012  87.4654997  25.0549988 102.3968409  87.9891421  24.7181377
 103.0450012  92.0734997  30.9739988 103.4070012  92.9284997  30.7399988
 103.5760012  91.7814997  31.7139988 103.1664473  92.1511060  31.0420855
 101.2130012  92.9464997  24.2039988 100.2630012  93.0514997  24.2549988
 101.5650012  93.7664997  24.5489988 101.1304203  93.0718314  24.2576650
 106.5890012  88.1724997  30.6739988 106.1630012  87.9454997  31.5009988
 107.1690012  87.4344997  30.4919988 106.6091868  88.0415299  30.7625830
 108.7920012  89.1014997  19.7479988 109.1450012  88.7214997  20.5529988
 107.8430012  89.0084997  19.8349988 108.7120441  89.0369596  19.8698559
 109.2470012  92.7244997  33.1439988 108.6460012  92.1694997  32.6479988
 109.5290012  93.3914997  32.5179988 109.2028519  92.7386841  32.9914952
 113.2950012  93.5814997  19.9489988 114.0390012  94.1674997  19.8089988
 112.6010012  94.1494997  20.2829988 113.3030292  93.7385582  19.9749961
 109.6580012  87.7744997  21.9749988 109.3800012  87.0464997  22.5309988
 110.5850012  87.8934997  22.1799988 109.7453124  87.6908802  22.0788845
  97.0210012  91.7624997  30.9859988  97.2380012  90.8304997  30.9549988
  97.2670012  92.0364997  31.8689988  97.0839549  91.6720636  31.1011763
 102.8830012  90.2134997  18.1949988 103.1220012  89.4654997  17.6479988
 102.6140012  89.8254997  19.0279988 102.8793675  90.0586638  18.2326865
 101.8200012  89.7834997  20.6519988 101.9660012  89.2634997  21.4419988
 101.8170012  90.6904997  20.9579988 101.8395989  89.8348853  20.8016088
  98.2730012  87.0364997  21.1619988  97.5870012  87.3884997  21.7289988
  98.7950012  87.7994997  20.9149988  98.2496852  87.1878578  21.2062118
 106.1040012  79.6984997  31.4409988 106.8030012  79.7724997  32.0909988
 105.7230012  78.8344997  31.5949988 106.1481767  79.5917624  31.5508322
 106.8890012  79.3504997  22.5379988 107.1090012  79.8224997  21.7349988
 107.4470012  79.7454997  23.2079988 106.9944968  79.4684285  22.5187331
 104.5570012  91.4814997  21.4009988 103.7410012  91.9784997  21.4529988
 105.0870012  91.9564997  20.7609988 104.5169161  91.6137722  21.3215956
 104.0890012  81.0784997  23.3729988 104.9010012  81.5834997  23.4189988
 103.8440012  80.9334997  24.2869988 104.1670520  81.1280375  23.5028517
 104.6240012  82.0644997  32.5579988 104.7430012  82.6384997  33.3149988
 105.2800012  81.3764997  32.6719988 104.7289757  82.0501079  32.6770825
 104.9720012  78.1594997  24.3109988 104.6260012  78.7774997  24.9559988
 105.6310012  78.6604997  23.8299988 105.0137826  78.3115802  24.3340971
 101.8960012  92.5254997  21.3829988 102.0560012  93.3244997  20.8819988
 101.6980012  92.8314997  22.2679988 101.8911649  92.6764469  21.4339815
 100.6300012  79.2224997  20.9979988 100.5470012  80.1114997  21.3449988
 101.5200012  78.9574997  21.2299988 100.7389469  79.3081430  21.0767626
 110.8290012  79.9714997  33.3929988 109.9120012  80.2344997  33.3049988
 111.1640012  79.9684997  32.4959988 110.7489900  80.0070224  33.2597919
 109.4310012  83.7224997  27.4879988 108.6330012  83.3074997  27.1599988
 109.8760012  83.0314997  27.9789988 109.3819885  83.5723543  27.5094889
  98.8890012  89.6504997  20.0589988  99.4810012  90.3494997  20.3349988
  99.3480012  89.2174997  19.3389988  99.0321142  89.6877049  19.9994830
  97.2050012  82.3144997  19.1749988  97.1600012  83.2534997  19.3529988
  96.3170012  82.0784997  18.9049988  97.0788574  82.4111892  19.1628912
 110.5170012  92.9784997  29.1109988 110.3620012  93.6564997  28.4539988
 111.4500012  93.0504997  29.3139988 110.6218500  93.0810170  29.0485119
  98.0130012  77.0964997  27.8479988  97.7840012  77.1554997  26.9199988
  97.5700012  76.3044997  28.1539988  97.9218530  76.9975753  27.7624786
  96.9430012  91.0364997  24.0079988  96.1110012  91.5094997  24.0359988
  97.4890012  91.5464997  23.4099988  96.9029739  91.1701871  23.9309716
  96.2310012  93.6494997  35.3379988  96.7720012  93.4324997  36.0979988
  95.7500012  92.8434997  35.1489988  96.2399345  93.5109514  35.4163076
 100.8290012  92.5684997  36.9589988 101.5960012  92.1094997  37.2999988
 100.8070012  92.3424997  36.0289988 100.9311434  92.4750409  36.8800043
 104.9210012  92.0764997  18.3339988 104.2770012  91.4454997  18.6549988
 105.6830012  91.5454997  18.1019988 104.9358077  91.9182920  18.3466011
 107.4060012  90.9484997  35.6879988 107.0550012  90.0924997  35.9309988
 108.1320012  91.0914997  36.2949988 107.4560769  90.8505636  35.8033619
 109.5250012  91.8934997  18.5679988 109.8080012  91.0994997  19.0199988
 110.2650012  92.1264997  18.0069988 109.6637486  91.8162803  18.5540698
 100.4800012  87.8034997  18.4249988 100.5440012  87.0094997  18.9559988
 101.1330012  87.6844997  17.7349988 100.5770241  87.6787148  18.4044317
 102.7940012  87.4294997  35.7249988 102.4650012  87.7004997  34.8679988
 102.9460012  86.4884997  35.6379988 102.7694809  87.3393862  35.5958244
 105.8320012  88.8504997  18.1609988 105.5630012  89.0304997  19.0619988
 105.6260012  87.9244997  18.0299988 105.7673825  88.7500152  18.2665214
 108.5280012  87.3454997  33.1089988 109.2740012  87.9334997  32.9889988
 107.7710012  87.9274997  33.1719988 108.5277554  87.5047011  33.1010907
 101.6290012  85.7754997  20.7309988 101.1690012  85.2914997  21.4169988
 101.8840012  85.1074997  20.0949988 101.6004902  85.6188731  20.7389334
 100.9180012  83.6684997  33.0869988 100.3000012  84.3434997  33.3669988
 101.2620012  83.9894997  32.2539988 100.8799615  83.8042721  33.0126581
 102.7000012  84.0184997  18.9929988 102.5200012  83.8644997  18.0659988
 103.6500012  84.1264997  19.0379988 102.8037776  84.0120175  18.8721843
 105.9380012  86.1404997  36.3639988 106.8910012  86.2234997  36.3369988
 105.7770012  85.4284997  36.9839988 106.0466426  86.0556746  36.4440579
 112.0900012  86.3734997  18.4389988 111.8160012  85.9484997  17.6259988
 112.1290012  87.3044997  18.2219988 112.0577699  86.4412484  18.2983610
 101.2570012  81.0234997  34.1689988 101.4070012  80.2944997  33.5669988
 101.2600012  81.8004997  33.6099988 101.2779302  81.0287851  34.0110692
 101.6700012  79.3934997  31.6619988 102.2060012  79.8444997  31.0099988
 100.8180012  79.2854997  31.2389988 101.6282178  79.4406390  31.5155756
 103.2520012  84.8324997  31.9009988 104.0020012  84.6764997  31.3279988
 102.9130012  85.6844997  31.6259988 103.3088921  84.9262968  31.7853561
 107.6670012  82.6474997  36.9299988 107.8600012  81.7164997  36.8179988
 108.5250012  83.0724997  36.9199988 107.8093020  82.5776389  36.9133361
 108.9840012  85.4364997  35.0069988 108.7030012  86.1454997  34.4299988
 109.9270012  85.3634997  34.8559988 109.0729027  85.5237646  34.9075551
 102.4760012  76.8494997  32.0929988 102.3770012  77.7964997  31.9879988
 101.7330012  76.4774997  31.6179988 102.3620564  76.9285902  32.0144560
 103.7400012  81.1714997  35.6569988 103.5040012  80.9514997  36.5589988
 102.9560012  80.9644997  35.1469988 103.6018628  81.1134760  35.7113932
 106.4550012  80.2984997  34.7329988 105.5080012  80.3304997  34.8649988
 106.7680012  79.6734997  35.3859988 106.3675475  80.2183207  34.8394455
 108.0890012  78.9324997  36.7379988 107.9930012  77.9804997  36.7319988
 107.7680012  79.2014997  37.5979988 108.0324070  78.8384035  36.8535441
 102.6970012  76.1434997  34.7649988 103.4090012  75.5034997  34.7509988
 102.5960012  76.4104997  33.8509988 102.7807939  76.0919938  34.6395650
 103.0510012  77.8264997  36.8179988 102.9190012  77.3504997  35.9979988
 102.4520012  78.5704997  36.7629988 102.9519071  77.8619618  36.6982886
 102.5970012  94.7094997  19.9949988 103.5300012  94.8674997  20.1379988
 102.3330012  95.3844997  19.3699988 102.6889510  94.8223611  19.9300741
  96.1660012  89.3454997  19.4769988  97.0800012  89.4244997  19.7509988
  96.1730012  88.6584997  18.8109988  96.2921131  89.2633961  19.4244393
  94.8150012  94.7384997  24.5549988  94.1680012  94.2764997  24.0219988
  95.1690012  94.0664997  25.1369988  94.7743849  94.5844723  24.5607959
  95.6850012  92.8194997  26.3589988  95.3500012  91.9394997  26.5309988
  95.9070012  93.1644997  27.2239988  95.6691783  92.7457501  26.4994208
 113.2330012  93.6284997  29.3399988 113.2120012  93.8134997  30.2789988
 113.9240012  94.1974997  28.9989988 113.3234618  93.7306606  29.4223864
 112.7970012  93.1964997  32.2619988 112.3090012  92.4604997  31.8909988
 113.3460012  92.8024997  32.9399988 112.8044872  93.0426249  32.3029160
 111.2470012  88.9854997  36.8999988 110.3810012  88.8804997  37.2939988
 111.6240012  89.7444997  37.3459988 111.1793308  89.0736900  37.0142393
 112.5480012  87.2424997  22.4139988 113.3980012  87.6634997  22.5409988
 112.5540012  86.5024997  23.0209988 112.6651372  87.2000803  22.5134344
 112.9430012  85.2954997  24.2379988 112.2160012  84.8164997  24.6349988
 113.5240012  85.5014997  24.9699988 112.9219375  85.2577090  24.3914129
 112.7020012  88.0804997  29.1849988 113.5350012  87.7024997  28.9049988
 112.8140012  89.0234997  29.0659988 112.8312647  88.1562218  29.1305487
 111.1880012  90.9584997  31.4919988 110.5410012  91.2834997  32.1179988
 110.6710012  90.5184997  30.8179988 111.0294029  90.9435004  31.4865827
 113.2110012  85.1964997  20.6289988 112.6890012  85.5534997  19.9099988
 113.1780012  85.8714997  21.3069988 113.1351634  85.3365413  20.6223145
 111.5600012  82.4364997  19.1799988 111.6560012  83.1034997  18.4989988
 111.4200012  81.6204997  18.6979988 111.5542135  82.4174500  19.0218491
 110.7290012  83.8164997  24.8009988 110.5790012  82.8714997  24.7799988
 110.3760012  84.0974997  25.6439988 110.6606625  83.7250441  24.9122346
  95.7650012  85.8944997  28.8109988  95.9490012  85.8124997  27.8749988
  96.6140012  85.7704997  29.2349988  95.9050139  85.8665003  28.7401455
 111.5860012  85.7864997  34.4389988 112.1690012  85.0524997  34.6309988
 112.1500012  86.5584997  34.4859988 111.7419769  85.7904227  34.4716159
 113.0820012  83.6894997  35.1239988 112.2190012  83.3104997  34.9579988
 113.6870012  82.9504997  35.0499988 113.0455979  83.5378023  35.0912817
 110.8070012  79.8444997  18.2969988 111.4180012  79.4734997  18.9339988
 109.9710012  79.4234997  18.4929988 110.7775032  79.7367554  18.4107035
 110.4400012  81.3994997  23.2629988 110.7200012  80.4924997  23.3869988
 111.1990012  81.8334997  22.8739988 110.5809277  81.3340942  23.2273682
 111.0520012  81.9804997  28.6989988 111.9850012  82.1924997  28.6649988
 110.8170012  82.0824997  29.6209988 111.1478036  82.0232769  28.8189976
 111.0810012  82.7174997  31.4749988 110.2380012  82.9854997  31.8409988
 111.5230012  83.5394997  31.2639988 111.0254158  82.8653291  31.4965491
 113.3640012  76.6974997  36.8279988 113.7140012  76.0434997  36.2229988
 113.5110012  77.5344997  36.3889988 113.4318419  76.7211591  36.6857118
 111.0530012  78.6624997  23.3109988 111.2360012  78.2134997  24.1369988
 110.4540012  78.0774997  22.8479988 110.9970202  78.5219975  23.3613275
  96.5830012  79.4774997  27.8429988  97.0290012  78.6854997  28.1449988
  97.0500012  80.1934997  28.2739988  96.7070172  79.4660624  27.9424820
 112.8840012  78.8064997  35.1779988 111.9660012  79.0774997  35.1419988
 113.0070012  78.2714997  34.3929988 112.7751066  78.7712892  35.0670487
 112.9200012  78.7294997  19.8389988 113.3320012  78.0084997  19.3639988
 113.6020012  79.3994997  19.8979988 113.0685885  78.7212368  19.7818915
  95.2010012  78.7344997  22.9659988  94.2760012  78.9434997  22.8369988
  95.6550012  79.2184997  22.2769988  95.1357368  78.8285993  22.8551226
 109.9720012  93.7184997  24.9119988 110.6240012  93.3714997  24.3039988
 110.4820012  94.2074997  25.5579988 110.1302637  93.7370597  24.9160236
  97.3570012  90.6474997  35.4549988  96.5360012  90.8224997  34.9949988
  97.1040012  90.5744997  36.3759988  97.2106164  90.6615622  35.5164923
 100.3110012  91.6224997  31.7139988  99.8860012  92.4314997  31.4309988
 101.2150012  91.7074997  31.4119988 100.3750271  91.7448469  31.6343776
 104.6220012  93.0214997  34.6729988 104.8070012  92.6874997  35.5509988
 105.4680012  93.3304997  34.3509988 104.7617539  93.0176047  34.7495605
 106.9670012  94.3074997  33.9169988 107.6440012  93.6744997  33.6769988
 107.2890012  94.7084997  34.7239988 107.1031637  94.2751154  33.9932793
 111.8840012  76.8964997  32.9969988 111.0720012  77.2214997  32.6089988
 112.1170012  76.1364997  32.4639988 111.8043423  76.8382436  32.8718253
  97.7130012  94.8784997  31.7609988  96.9920012  95.3184997  31.3099988
  97.3470012  94.6274997  32.6099988  97.5649804  94.9047698  31.8139840
 100.1800012  94.4784997  30.7909988  99.3150012  94.5504997  31.1949988
 100.1250012  95.0254997  30.0069988 100.0542085  94.5622685  30.7403362
 104.8900012  94.3664997  29.9659988 104.4340012  94.8954997  29.3119988
 105.0530012  94.9694997  30.6919988 104.8495585  94.5204468  29.9745062
 107.2180012  93.2444997  30.9109988 106.3130012  93.4094997  30.6459988
 107.6470012  94.0974997  30.8459988 107.1520799  93.3824483  30.8659182
 109.8220012  94.8144997  31.2059988 109.6400012  95.7304997  30.9959988
 109.9990012  94.4044997  30.3599988 109.8210210  94.8844822  31.0627885
  97.1270012  93.5014997  28.6709988  97.1090012  93.0764997  29.5289988
  97.9320012  93.1834997  28.2629988  97.2333875  93.4003812  28.7331655
  99.2690012  92.2114997  27.3259988  99.0500012  91.2954997  27.4959988
 100.0930012  92.3514997  27.7919988  99.3504420  92.1050520  27.4122774
 101.8060012  92.6814997  28.1749988 102.0190012  91.7934997  27.8879988
 101.8700012  92.6474997  29.1289988 101.8438232  92.5553102  28.2647397
 105.3140012  78.3454997  27.3189988 104.6400012  77.7164997  27.5749988
 105.8780012  77.8614997  26.7159988 105.2979230  78.1938744  27.2725340
 110.4570012  76.4534997  27.4319988 111.0610012  77.0004997  26.9299988
 109.5870012  76.7724997  27.1919988 110.4221241  76.5715806  27.3307654
 112.1840012  77.5914997  25.7649988 112.7960012  77.0774997  25.2389988
 112.5660012  78.4694997  25.7889988 112.3194540  77.6397140  25.6961830
  97.6410012  76.9794997  25.1409988  96.8640012  76.7454997  24.6339988
  98.1710012  76.1824997  25.1499988  97.6062330  76.8396988  25.0727742
  96.4770012  76.7774997  20.9449988  96.9160012  77.3884997  20.3529988
  95.8440012  77.3154997  21.4189988  96.4514514  76.9339257  20.9280930
 102.2200012  76.9064997  24.9549988 103.0950012  77.2944997  24.9249988
 102.0840012  76.6914997  25.8769988 102.3213695  76.9305184  25.0756440
 107.7770012  76.9364997  26.6039988 107.8530012  77.0314997  25.6539988
 107.5020012  76.0284997  26.7329988 107.7502321  76.8267867  26.4915079
 109.1300012  76.9624997  22.2959988 108.4280012  77.5774997  22.0869988
 108.6860012  76.1244997  22.4269988 108.9736330  76.9335783  22.2850328
  96.3780012  92.7254997  21.8429988  95.6930012  92.6874997  21.1749988
  96.3820012  93.6384997  22.1309988  96.2848193  92.8437016  21.7905284
  98.3380012  78.6934997  19.3869988  98.8300012  78.0634997  18.8599988
  98.9620012  78.9894997  20.0509988  98.4895446  78.6473199  19.4045980
 103.3640012  78.9864997  21.8439988 103.5420012  78.3404997  22.5269988
 103.3110012  79.8204997  22.3119988 103.3811829  79.0107985  22.0005940
 105.2430012  93.9354997  20.2399988 106.1090012  94.3014997  20.0619988
 104.9960012  93.4954997  19.4259988 105.3282392  93.9261756  20.1056289
 111.9520012  93.4984997  22.9189988 111.7570012  92.7504997  22.3539988
 111.9130012  94.2564997  22.3359988 111.9200380  93.4986099  22.7628384
  98.1960012  93.6454997  18.8679988  97.9290012  93.9324997  19.7409988
  98.9680012  93.0994997  19.0199988  98.2637488  93.6110294  19.0081050
 107.9930012  76.1764997  36.3769988 108.0700012  75.7504997  37.2309988
 108.8870012  76.1904997  36.0339988 108.1243428  76.1200879  36.4475310
 111.1690012  92.2494997  35.0689988 110.3870012  92.0634997  34.5499988
 111.0970012  93.1784997  35.2869988 111.0521777  92.3496492  35.0274048
 125.5750012  86.1354997  25.0999988 125.6640012  87.0794997  24.9679988
 124.9370012  85.8604997  24.4419988 125.5009081  86.2274830  24.9929614
 124.5080012  85.3904997  28.5189988 124.4700012  84.7444997  29.2239988
 124.1860012  84.9244997  27.7479988 124.4592333  85.2389408  28.5112978
 116.8770012  85.0054997  30.1119988 116.9180012  84.3794997  30.8349988
 117.5800012  85.6294997  30.2939988 116.9776363  85.0041196  30.2356044
 128.2140012  88.3294997  26.8199988 127.7740012  87.6094997  27.2709988
 128.2010012  89.0504997  27.4499988 128.1520226  88.3283731  26.9668494
 117.8000012  89.4554997  28.6469988 117.4310012  88.6534997  28.2769988
 118.7410012  89.2864997  28.6929988 117.8767289  89.3230153  28.6026316
 114.4100012  83.1154997  24.0399988 113.9630012  83.9614997  24.0209988
 113.8490012  82.5354997  23.5239988 114.2729900  83.1529916  23.9676801
 115.1210012  85.2774997  26.1659988 115.3340012  84.5074997  26.6929988
 115.8590012  85.3664997  25.5619988 115.2498496  85.1841394  26.1565300
 125.3260012  93.4344997  27.0329988 125.9460012  92.7574997  26.7589988
 125.1180012  93.2164997  27.9409988 125.3826904  93.3123870  27.1183365
 122.8980012  87.8234997  28.9249988 123.2020012  87.1374997  28.3299988
 123.6190012  87.9414997  29.5429988 123.0370671  87.7456304  28.9271816
 131.5610012  79.4244997  29.7859988 131.6100012  80.0344997  30.5219988
 131.9860012  79.8854997  29.0629988 131.6251824  79.5703741  29.7890205
 126.0390012  82.2174997  29.2529988 126.1810012  81.2714997  29.2729988
 125.9320012  82.4244997  28.3239988 126.0439864  82.1159534  29.1302339
 119.1930012  80.3184997  26.5249988 119.2370012  81.1784997  26.1069988
 118.7360012  79.7664997  25.8909988 119.1372185  80.3615799  26.3820299
 126.9160012  80.4494997  24.9259988 127.5620012  80.1204997  25.5509988
 127.4260012  80.9674997  24.3029988 127.0734264  80.4744611  24.9273862
 115.8140012  82.7154997  27.2869988 116.4670012  82.1654997  27.7189988
 115.8380012  82.4414997  26.3699988 115.9066683  82.6031466  27.2222123
 120.9700012  84.2654997  26.5019988 121.5860012  83.7394997  27.0119988
 120.3840012  83.6254997  26.0989988 120.9750810  84.1069208  26.5173173
 131.9520012  80.9024997  32.0219988 131.2640012  81.5604997  31.9259988
 131.9680012  80.7054997  32.9579988 131.8598525  80.9660462  32.1354808
 118.0040012  79.2364997  30.5989988 117.7850012  79.7664997  29.8329988
 117.3360012  79.4634997  31.2459988 117.8837600  79.3396906  30.5816379
 125.3730012  88.7364997  24.1429988 125.0770012  88.4144997  23.2919988
 125.0480012  89.6364997  24.1839988 125.2886371  88.8140215  24.0321801
 120.5730012  86.9124997  30.8859988 119.8330012  87.5104997  30.9899988
 121.2870012  87.4664997  30.5709988 120.5682237  87.0692831  30.8576465
 128.6800012  79.7404997  26.9059988 128.4640012  78.9744997  27.4389988
 129.3350012  80.2124997  27.4189988 128.7390632  79.6995889  27.0482861
 117.5970012  81.1284997  28.5509988 118.2110012  81.7614997  28.9249988
 118.1090012  80.6564997  27.8949988 117.7502296  81.1512370  28.5134252
 118.9800012  88.8764997  31.6739988 118.9750012  89.7564997  31.2959988
 118.1270012  88.7934997  32.0989988 118.8639464  88.9856117  31.6797907
 115.1010012  88.5474997  22.4559988 114.8290012  88.7764997  21.5669988
 115.1470012  89.3854997  22.9159988 115.0700094  88.6921213  22.3965697
 128.7260012  90.1694997  29.1679988 127.7850012  90.2274997  29.3299988
 129.0030012  91.0754997  29.0309988 128.6344679  90.2999443  29.1716815
 129.0270012  78.4554997  30.5859988 128.2910012  79.0664997  30.5479988
 129.7100012  78.8704997  30.0589988 129.0186541  78.5951374  30.5095832
 122.0300012  76.5424997  28.0519988 121.9130012  75.5934997  27.9969988
 121.1750012  76.8744997  28.3249988 121.8983733  76.4575409  28.0813897
 126.9780012  91.9504997  25.7939988 127.4040012  91.2434997  25.3089988
 127.2950012  92.7514997  25.3769988 127.0791019  91.9620994  25.6713130
 128.1380012  89.8514997  24.3019988 127.8800012  89.1614997  23.6909988
 128.2090012  89.4084997  25.1479988 128.1122856  89.6972124  24.3326885
 129.8240012  88.4174997  32.7799988 129.9640012  87.8264997  32.0399988
 129.9910012  89.2904997  32.4229988 129.8656778  88.4546426  32.6306965
 124.2970012  85.3794997  22.5519988 123.5850012  85.9144997  22.1999988
 124.9880012  85.4354997  21.8919988 124.2930132  85.4602543  22.4146289
 124.3500012  83.8374997  19.5909988 125.0510012  83.8594997  20.2419988
 124.6530012  83.2094997  18.9349988 124.4867830  83.7556566  19.5913711
 131.6660012  84.7574997  30.8459988 131.0130012  85.4524997  30.9349988
 132.1310012  84.9674997  30.0359988 131.6395390  84.8809425  30.7486883
 127.7020012  85.5894997  23.5039988 126.9700012  85.8174997  24.0769988
 128.1500012  84.8754997  23.9589988 127.6623095  85.5242571  23.6439119
 127.6000012  83.7634997  32.5709988 127.6800012  84.5264997  33.1429988
 126.9980012  84.0424997  31.8809988 127.5295756  83.9057134  32.5560589
 119.3480012  86.2194997  25.3859988 119.0170012  85.8494997  24.5679988
 119.9360012  85.5494997  25.7329988 119.3821873  86.0781156  25.3208102
 120.7140012  89.6474997  28.0679988 120.6200012  89.0694997  27.3109988
 121.4440012  89.2764997  28.5639988 120.7997981  89.5182390  28.0314165
 119.7140012  84.9884997  29.0199988 120.2800012  85.1094997  28.2569988
 120.0330012  85.6254997  29.6589988 119.8345786  85.0911884  29.0020040
 126.0230012  90.4914997  29.7539988 125.7830012  91.1534997  30.4019988
 125.8250012  89.6574997  30.1789988 125.9633808  90.4693134  29.9001524
 120.5940012  89.3874997  33.7369988 120.2830012  90.1694997  34.1919988
 119.9440012  89.2344997  33.0509988 120.4635558  89.4739105  33.7065871
 126.5730012  84.7514997  21.1889988 127.1530012  84.9014997  21.9359988
 126.9870012  85.2224997  20.4659988 126.7082830  84.8356841  21.1934134
 117.5140012  85.5854997  32.9659988 117.5850012  86.2364997  33.6639988
 116.6240012  85.6884997  32.6309988 117.4033117  85.6885936  33.0162700
 124.3000012  91.4884997  24.6239988 124.7740012  91.7834997  25.4019988
 123.7370012  92.2264997  24.3909988 124.2887653  91.6286932  24.6990136
 118.8340012  91.4594997  34.4999988 118.8410012  91.3234997  33.5529988
 117.9180012  91.3414997  34.7519988 118.7111714  91.4249430  34.4044666
 130.2720012  76.5014997  21.0019988 129.3720012  76.6404997  21.2969988
 130.5240012  77.3324997  20.5999988 130.1828702  76.6329074  20.9880205
 118.3380012  85.2894997  22.9759988 118.0460012  86.0574997  22.4849988
 117.6640012  84.6294997  22.8129988 118.2069081  85.3054406  22.8867340
 131.4610012  90.8674997  19.3779988 131.5350012  91.8064997  19.5489988
 132.3670012  90.5624997  19.3219988 131.5935100  90.9546722  19.3938119
 114.4310012  87.6524997  31.7909988 113.9300012  87.6244997  30.9759988
 114.4360012  86.7464997  32.0999988 114.3631526  87.5262278  31.7212872
 114.1810012  90.4324997  28.6749988 115.1270012  90.2884997  28.6559988
 114.0690012  91.2164997  29.2119988 114.2952727  90.5188046  28.7450072
 132.3790012  91.0984997  34.3569988 132.3300012  90.1434997  34.3199988
 131.5520012  91.3664997  34.7579988 132.2604940  91.0038998  34.4061375
 123.3580012  90.6724997  33.2329988 123.4450012  91.4984997  33.7079988
 122.4940012  90.3424997  33.4819988 123.2531964  90.7409878  33.3316549
 123.7720012  94.4444997  23.0389988 123.6970012  94.3234997  22.0929988
 123.8050012  95.3944997  23.1579988 123.7661848  94.5562500  22.9254834
 117.4250012  93.2334997  24.8199988 117.5780012  92.8854997  25.6989988
 116.5750012  92.8774997  24.5649988 117.3308962  93.1376650  24.9058340
 126.8740012  93.5984997  20.0409988 127.2490012  92.8544997  19.5709988
 126.8780012  93.3284997  20.9599988 126.9258915  93.4601486  20.1007824
 126.5430012  93.5244997  22.7909988 125.6070012  93.6244997  22.9689988
 126.8230012  92.8154997  23.3689988 126.4528255  93.4422711  22.8935391
 129.5310012  82.5914997  34.8369988 129.1240012  83.0724997  34.1159988
 129.5720012  81.6864997  34.5289988 129.4808437  82.5349374  34.6966683
 116.6800012  88.9754997  32.8339988 116.8960012  88.6144997  33.6929988
 115.8250012  88.6014997  32.6239988 116.5939292  88.8754111  32.9233386
 119.2990012  77.4454997  28.8289988 118.4370012  77.3584997  28.4219988
 119.2760012  78.3014997  29.2569988 119.1780330  77.5492765  28.8311863
 123.9620012  77.1674997  32.2039988 124.3820012  76.7524997  32.9569988
 123.0290012  76.9894997  32.3209988 123.8933644  77.0865900  32.3229539
 127.2880012  80.9234997  33.0569988 126.7740012  80.7974997  33.8549988
 127.1330012  81.8354997  32.8129988 127.1966852  81.0296132  33.1332158
 128.0510012  85.7844997  18.8189988 128.0930012  85.5614997  17.8889988
 128.9000012  86.1834997  19.0089988 128.1715396  85.8079155  18.7173627
 123.6230012  79.6604997  19.4889988 123.3700012  79.6794997  20.4119988
 123.3670012  78.7884997  19.1879988 123.5537790  79.5452437  19.5746263
 119.3900012  82.4114997  29.9239988 118.7480012  82.3704997  30.6329988
 119.4270012  83.3374997  29.6869988 119.3071324  82.5311559  29.9889824
 119.3870012  82.6324997  24.8359988 118.4940012  82.2914997  24.7779988
 119.8370012  82.2554997  24.0809988 119.3257305  82.5348484  24.7259177
 124.9220012  83.0484997  23.6529988 124.5130012  83.8634997  23.3619988
 125.6430012  82.9084997  23.0389988 124.9634537  83.1412018  23.5301342
 124.0240012  83.2234997  35.1409988 123.4620012  82.5194997  35.4619988
 124.8510012  83.1034997  35.6089988 124.0587095  83.1107883  35.2482330
 125.9270012  82.4944997  26.4669988 125.7320012  83.0994997  25.7519988
 126.1080012  81.6604997  26.0329988 125.9247614  82.4646300  26.3104405
 117.1400012  82.7314997  31.7909988 117.1020012  83.1314997  32.6599988
 116.6490012  81.9144997  31.8819988 117.0684684  82.6758069  31.9221059
 120.5060012  80.1054997  18.5899988 120.0750012  79.6604997  19.3199988
 119.7880012  80.4774997  18.0779988 120.3499438  80.0948940  18.6206799
 113.7480012  79.8474997  25.6419988 114.3790012  79.8184997  26.3609988
 114.1970012  79.4224997  24.9119988 113.8950774  79.7860492  25.6416553
 115.0220012  80.5934997  21.0659988 115.4960012  81.1844997  20.4809988
 114.3050012  81.1244997  21.4129988 114.9899341  80.7460867  21.0328836
 125.1910012  84.1324997  31.1389988 125.5140012  83.5014997  30.4959988
 124.7510012  83.5974997  31.7989988 125.1756895  83.9738441  31.1402850
 121.9680012  80.0594997  25.9229988 121.0570012  80.1164997  26.2109988
 122.4740012  79.9994997  26.7329988 121.9115413  80.0591985  26.0720622
 116.7970012  81.6884997  24.7489988 115.9070012  81.7884997  24.4089988
 117.0930012  80.8464997  24.4029988 116.7152823  81.5883545  24.6557213
 120.4500012  81.6884997  22.4059988 121.3810012  81.8174997  22.5839988
 120.2350012  82.3584997  21.7559988 120.5484247  81.7966565  22.3425747
 126.3730012  79.2944997  29.1869988 125.6970012  79.4254997  29.8509988
 125.8880012  79.1394997  28.3769988 126.2147145  79.2914905  29.1684517
 119.1240012  82.8834997  19.9729988 118.5810012  82.5034997  19.2809988
 119.9570012  83.0774997  19.5439988 119.1624399  82.8578124  19.8204526
 129.6610012  94.9664997  35.4639988 129.8610012  95.3904997  34.6289988
 130.3160012  95.3094997  36.0709988 129.7770051  95.0709648  35.4317836
 117.2590012  87.4404997  35.0719988 117.9910012  87.6944997  35.6329988
 116.4790012  87.6444997  35.5869988 117.2538232  87.5029177  35.2185760
 123.2880012  82.8474997  27.8099988 123.8530012  82.3004997  27.2629988
 123.1410012  82.3254997  28.5979988 123.3452918  82.7022024  27.8418454
 118.2900012  78.9834997  24.2279988 117.9730012  78.0814997  24.1929988
 119.0720012  78.9854997  23.6749988 118.3522284  78.8601628  24.1484783
 121.9150012  81.2354997  30.2239988 121.0790012  81.6894997  30.3339988
 122.4390012  81.5114997  30.9759988 121.8714414  81.3349376  30.3407136
 122.4590012  87.4484997  21.9079988 121.7140012  86.9414997  21.5859988
 122.3250012  87.4974997  22.8549988 122.3388776  87.3856940  21.9918647
 129.6090012  86.5814997  30.6949988 130.2510012  87.0384997  30.1509988
 128.7790012  86.6944997  30.2319988 129.5845963  86.6592704  30.5580177
 126.3570012  80.2624997  20.1079988 125.4180012  80.3744997  19.9559988
 126.6540012  81.1194997  20.4139988 126.2687666  80.3936443  20.1285768
 123.9780012  87.6324997  33.1449988 123.6330012  87.2514997  33.9519988
 123.7780012  88.5664997  33.2169988 123.9038061  87.7065228  33.2650961
 127.0750012  82.1294997  21.7679988 127.9670012  81.9924997  22.0869988
 127.1320012  82.9204997  21.2319988 127.2046285  82.2176660  21.7391691
 117.5840012  86.7434997  27.6779988 118.3290012  86.7414997  27.0769988
 117.6620012  85.9204997  28.1599988 117.6965518  86.6319315  27.6608929
 124.5850012  88.9074997  20.9339988 124.2890012  89.7334997  21.3149988
 123.8820012  88.2874997  21.1299988 124.4494914  88.9368199  21.0126443
 114.5920012  85.2044997  32.9929988 114.8150012  84.7864997  33.8249988
 113.9900012  84.5914997  32.5699988 114.5411759  85.0644668  33.0497022
 121.6080012  84.7214997  35.2059988 121.3120012  84.5554997  34.3109988
 122.5400012  84.5014997  35.1949988 121.6934166  84.6690640  35.0820536
 126.2290012  90.0944997  33.0959988 125.3280012  90.2774997  32.8279988
 126.2630012  90.3534997  34.0169988 126.1103041  90.1545512  33.1838197
 131.9600012  82.3394997  21.4629988 131.4060012  81.9434997  20.7909988
 132.0600012  83.2494997  21.1849988 131.8977059  82.4083586  21.3334401
 131.9230012  88.1394997  34.2999988 131.0720012  88.3774997  33.9329988
 132.5140012  88.1224997  33.5469988 131.8862487  88.1698258  34.1478893
 130.2550012  91.1254997  21.9279988 129.8820012  90.2994997  22.2369988
 130.5330012  90.9424997  21.0309988 130.2415630  90.9877303  21.8489626
 127.4160012  85.9334997  28.9489988 126.4870012  85.7014997  28.9219988
 127.8670012  85.1564997  28.6189988 127.3499216  85.7967238  28.9006917
 119.9590012  90.2614997  25.0819988 120.4860012  91.0344997  24.8819988
 119.0790012  90.4864997  24.7809988 119.9121773  90.3978005  25.0139010
 115.7140012  85.1234997  19.6689988 116.3300012  85.7504997  20.0489988
 114.8520012  85.4394997  19.9409988 115.6817698  85.2519430  19.7577183
 121.3860012  87.9244997  24.6589988 121.1450012  88.8494997  24.6999988
 120.6450012  87.4654997  25.0549988 121.2528409  87.9891421  24.7181377
 121.9010012  92.0734997  30.9739988 122.2630012  92.9284997  30.7399988
 122.4320012  91.7814997  31.7139988 122.0224473  92.1511060  31.0420855
 120.0690012  92.9464997  24.2039988 119.1190012  93.0514997  24.2549988
 120.4210012  93.7664997  24.5489988 119.9864203  93.0718314  24.2576650
 125.4450012  88.1724997  30.6739988 125.0190012  87.9454997  31.5009988
 126.0250012  87.4344997  30.4919988 125.4651868  88.0415299  30.7625830
 127.6480012  89.1014997  19.7479988 128.0010012  88.7214997  20.5529988
 126.6990012  89.0084997  19.8349988 127.5680441  89.0369596  19.8698559
 128.1030012  92.7244997  33.1439988 127.5020012  92.1694997  32.6479988
 128.3850012  93.3914997  32.5179988 128.0588519  92.7386841  32.9914952
 132.1510012  93.5814997  19.9489988 132.8950012  94.1674997  19.8089988
 131.4570012  94.1494997  20.2829988 132.1590292  93.7385582  19.9749961
 116.2260012  79.9574997  32.5509988 115.3330012  80.2964997  32.4829988
 116.1270012  79.1024997  32.9689988 116.0904164  79.8882588  32.5982235
 128.5140012  87.7744997  21.9749988 128.2360012  87.0464997  22.5309988
 129.4410012  87.8934997  22.1799988 128.6013124  87.6908802  22.0788845
 115.8770012  91.7624997  30.9859988 116.0940012  90.8304997  30.9549988
 116.1230012  92.0364997  31.8689988 115.9399549  91.6720636  31.1011763
 121.7390012  90.2134997  18.1949988 121.9780012  89.4654997  17.6479988
 121.4700012  89.8254997  19.0279988 121.7353675  90.0586638  18.2326865
 120.6760012  89.7834997  20.6519988 120.8220012  89.2634997  21.4419988
 120.6730012  90.6904997  20.9579988 120.6955989  89.8348853  20.8016088
 117.1290012  87.0364997  21.1619988 116.4430012  87.3884997  21.7289988
 117.6510012  87.7994997  20.9149988 117.1056852  87.1878578  21.2062118
 124.9600012  79.6984997  31.4409988 125.6590012  79.7724997  32.0909988
 124.5790012  78.8344997  31.5949988 125.0041767  79.5917624  31.5508322
 125.7450012  79.3504997  22.5379988 125.9650012  79.8224997  21.7349988
 126.3030012  79.7454997  23.2079988 125.8504968  79.4684285  22.5187331
 123.4130012  91.4814997  21.4009988 122.5970012  91.9784997  21.4529988
 123.9430012  91.9564997  20.7609988 123.3729161  91.6137722  21.3215956
 122.9450012  81.0784997  23.3729988 123.7570012  81.5834997  23.4189988
 122.7000012  80.9334997  24.2869988 123.0230520  81.1280375  23.5028517
 123.4800012  82.0644997  32.5579988 123.5990012  82.6384997  33.3149988
 124.1360012  81.3764997  32.6719988 123.5849757  82.0501079  32.6770825
 123.8280012  78.1594997  24.3109988 123.4820012  78.7774997  24.9559988
 124.4870012  78.6604997  23.8299988 123.8697826  78.3115802  24.3340971
 120.7520012  92.5254997  21.3829988 120.9120012  93.3244997  20.8819988
 120.5540012  92.8314997  22.2679988 120.7471649  92.6764469  21.4339815
 119.4860012  79.2224997  20.9979988 119.4030012  80.1114997  21.3449988
 120.3760012  78.9574997  21.2299988 119.5949469  79.3081430  21.0767626
 129.6850012  79.9714997  33.3929988 128.7680012  80.2344997  33.3049988
 130.0200012  79.9684997  32.4959988 129.6049900  80.0070224  33.2597919
 128.2870012  83.7224997  27.4879988 127.4890012  83.3074997  27.1599988
 128.7320012  83.0314997  27.9789988 128.2379885  83.5723543  27.5094889
 117.7450012  89.6504997  20.0589988 118.3370012  90.3494997  20.3349988
 118.2040012  89.2174997  19.3389988 117.8881142  89.6877049  19.9994830
 116.0610012  82.3144997  19.1749988 116.0160012  83.2534997  19.3529988
 115.1730012  82.0784997  18.9049988 115.9348574  82.4111892  19.1628912
 129.3730012  92.9784997  29.1109988 129.2180012  93.6564997  28.4539988
 130.3060012  93.0504997  29.3139988 129.4778500  93.0810170  29.0485119
 116.8690012  77.0964997  27.8479988 116.6400012  77.1554997  26.9199988
 116.4260012  76.3044997  28.1539988 116.7778530  76.9975753  27.7624786
 115.7990012  91.0364997  24.0079988 114.9670012  91.5094997  24.0359988
 116.3450012  91.5464997  23.4099988 115.7589739  91.1701871  23.9309716
 115.0870012  93.6494997  35.3379988 115.6280012  93.4324997  36.0979988
 114.6060012  92.8434997  35.1489988 115.0959345  93.5109514  35.4163076
 119.6850012  92.5684997  36.9589988 120.4520012  92.1094997  37.2999988
 119.6630012  92.3424997  36.0289988 119.7871434  92.4750409  36.8800043
 123.7770012  92.0764997  18.3339988 123.1330012  91.4454997  18.6549988
 124.5390012  91.5454997  18.1019988 123.7918077  91.9182920  18.3466011
 126.2620012  90.9484997  35.6879988 125.9110012  90.0924997  35.9309988
 126.9880012  91.0914997  36.2949988 126.3120769  90.8505636  35.8033619
 128.3810012  91.8934997  18.5679988 128.6640012  91.0994997  19.0199988
 129.1210012  92.1264997  18.0069988 128.5197486  91.8162803  18.5540698
 114.9940012  87.4594997  36.2929988 115.1380012  86.5574997  36.0059988
 114.2220012  87.7454997  35.8049988 114.9093322  87.3748261  36.1877881
 119.3360012  87.8034997  18.4249988 119.4000012  87.0094997  18.9559988
 119.9890012  87.6844997  17.7349988 119.4330241  87.6787148  18.4044317
 121.6500012  87.4294997  35.7249988 121.3210012  87.7004997  34.8679988
 121.8020012  86.4884997  35.6379988 121.6254809  87.3393862  35.5958244
 124.6880012  88.8504997  18.1609988 124.4190012  89.0304997  19.0619988
 124.4820012  87.9244997  18.0299988 124.6233825  88.7500152  18.2665214
 127.3840012  87.3454997  33.1089988 128.1300012  87.9334997  32.9889988
 126.6270012  87.9274997  33.1719988 127.3837554  87.5047011  33.1010907
 115.8270012  84.6594997  35.7129988 116.2350012  83.8024997  35.5919988
 115.5670012  84.6744997  36.6339988 115.8477568  84.5440807  35.8209588
 120.4850012  85.7754997  20.7309988 120.0250012  85.2914997  21.4169988
 120.7400012  85.1074997  20.0949988 120.4564902  85.6188731  20.7389334
 119.7740012  83.6684997  33.0869988 119.1560012  84.3434997  33.3669988
 120.1180012  83.9894997  32.2539988 119.7359615  83.8042721  33.0126581
 121.5560012  84.0184997  18.9929988 121.3760012  83.8644997  18.0659988
 122.5060012  84.1264997  19.0379988 121.6597776  84.0120175  18.8721843
 124.7940012  86.1404997  36.3639988 125.7470012  86.2234997  36.3369988
 124.6330012  85.4284997  36.9839988 124.9026426  86.0556746  36.4440579
 130.9460012  86.3734997  18.4389988 130.6720012  85.9484997  17.6259988
 130.9850012  87.3044997  18.2219988 130.9137699  86.4412484  18.2983610
 120.1130012  81.0234997  34.1689988 120.2630012  80.2944997  33.5669988
 120.1160012  81.8004997  33.6099988 120.1339302  81.0287851  34.0110692
 120.5260012  79.3934997  31.6619988 121.0620012  79.8444997  31.0099988
 119.6740012  79.2854997  31.2389988 120.4842178  79.4406390  31.5155756
 122.1080012  84.8324997  31.9009988 122.8580012  84.6764997  31.3279988
 121.7690012  85.6844997  31.6259988 122.1648921  84.9262968  31.7853561
 126.5230012  82.6474997  36.9299988 126.7160012  81.7164997  36.8179988
 127.3810012  83.0724997  36.9199988 126.6653020  82.5776389  36.9133361
 127.8400012  85.4364997  35.0069988 127.5590012  86.1454997  34.4299988
 128.7830012  85.3634997  34.8559988 127.9289027  85.5237646  34.9075551
 118.5920012  82.2214997  36.0809988 117.8250012  81.6894997  35.8709988
 119.2710012  81.9114997  35.4809988 118.5787022  82.1067506  35.9711648
 121.3320012  76.8494997  32.0929988 121.2330012  77.7964997  31.9879988
 120.5890012  76.4774997  31.6179988 121.2180564  76.9285902  32.0144560
 122.5960012  81.1714997  35.6569988 122.3600012  80.9514997  36.5589988
 121.8120012  80.9644997  35.1469988 122.4578628  81.1134760  35.7113932
 125.3110012  80.2984997  34.7329988 124.3640012  80.3304997  34.8649988
 125.6240012  79.6734997  35.3859988 125.2235475  80.2183207  34.8394455
 126.9450012  78.9324997  36.7379988 126.8490012  77.9804997  36.7319988
 126.6240012  79.2014997  37.5979988 126.8884070  78.8384035  36.8535441
 116.7720012  80.1424997  35.7849988 116.9840012  79.4354997  35.1749988
 116.6610012  79.7044997  36.6289988 116.7859721  79.9867084  35.8156843
 121.5530012  76.1434997  34.7649988 122.2650012  75.5034997  34.7509988
 121.4520012  76.4104997  33.8509988 121.6367939  76.0919938  34.6395650
 121.9070012  77.8264997  36.8179988 121.7750012  77.3504997  35.9979988
 121.3080012  78.5704997  36.7629988 121.8079071  77.8619618  36.6982886
 121.4530012  94.7094997  19.9949988 122.3860012  94.8674997  20.1379988
 121.1890012  95.3844997  19.3699988 121.5449510  94.8223611  19.9300741
 115.0220012  89.3454997  19.4769988 115.9360012  89.4244997  19.7509988
 115.0290012  88.6584997  18.8109988 115.1481131  89.2633961  19.4244393
 113.6710012  94.7384997  24.5549988 113.0240012  94.2764997  24.0219988
 114.0250012  94.0664997  25.1369988 113.6303849  94.5844723  24.5607959
 114.5410012  92.8194997  26.3589988 114.2060012  91.9394997  26.5309988
 114.7630012  93.1644997  27.2239988 114.5251783  92.7457500  26.4994208
 132.0890012  93.6284997  29.3399988 132.0680012  93.8134997  30.2789988
 132.7800012  94.1974997  28.9989988 132.1794618  93.7306606  29.4223864
 131.6530012  93.1964997  32.2619988 131.1650012  92.4604997  31.8909988
 132.2020012  92.8024997  32.9399988 131.6604872  93.0426249  32.3029160
 130.1030012  88.9854997  36.8999988 129.2370012  88.8804997  37.2939988
 130.4800012  89.7444997  37.3459988 130.0353308  89.0736900  37.0142393
 131.4040012  87.2424997  22.4139988 132.2540012  87.6634997  22.5409988
 131.4100012  86.5024997  23.0209988 131.5211372  87.2000803  22.5134344
 131.7990012  85.2954997  24.2379988 131.0720012  84.8164997  24.6349988
 132.3800012  85.5014997  24.9699988 131.7779375  85.2577090  24.3914129
 131.5580012  88.0804997  29.1849988 132.3910012  87.7024997  28.9049988
 131.6700012  89.0234997  29.0659988 131.6872647  88.1562218  29.1305487
 130.0440012  90.9584997  31.4919988 129.3970012  91.2834997  32.1179988
 129.5270012  90.5184997  30.8179988 129.8854029  90.9435004  31.4865827
 132.0670012  85.1964997  20.6289988 131.5450012  85.5534997  19.9099988
 132.0340012  85.8714997  21.3069988 131.9911634  85.3365413  20.6223145
 130.4160012  82.4364997  19.1799988 130.5120012  83.1034997  18.4989988
 130.2760012  81.6204997  18.6979988 130.4102135  82.4174500  19.0218491
 129.5850012  83.8164997  24.8009988 129.4350012  82.8714997  24.7799988
 129.2320012  84.0974997  25.6439988 129.5166625  83.7250441  24.9122346
 114.6210012  85.8944997  28.8109988 114.8050012  85.8124997  27.8749988
 115.4700012  85.7704997  29.2349988 114.7610139  85.8665003  28.7401455
 130.4420012  85.7864997  34.4389988 131.0250012  85.0524997  34.6309988
 131.0060012  86.5584997  34.4859988 130.5979769  85.7904227  34.4716159
 131.9380012  83.6894997  35.1239988 131.0750012  83.3104997  34.9579988
 132.5430012  82.9504997  35.0499988 131.9015979  83.5378023  35.0912817
 129.6630012  79.8444997  18.2969988 130.2740012  79.4734997  18.9339988
 128.8270012  79.4234997  18.4929988 129.6335032  79.7367554  18.4107035
 129.2960012  81.3994997  23.2629988 129.5760012  80.4924997  23.3869988
 130.0550012  81.8334997  22.8739988 129.4369277  81.3340942  23.2273682
 129.9080012  81.9804997  28.6989988 130.8410012  82.1924997  28.6649988
 129.6730012  82.0824997  29.6209988 130.0038036  82.0232769  28.8189976
 129.9370012  82.7174997  31.4749988 129.0940012  82.9854997  31.8409988
 130.3790012  83.5394997  31.2639988 129.8814158  82.8653291  31.4965491
 114.2180012  81.1654997  34.9519988 115.1380012  81.0434997  35.1879988
 113.7690012  80.4154997  35.3409988 114.2831580  81.0473727  35.0369006
 132.2200012  76.6974997  36.8279988 132.5700012  76.0434997  36.2229988
 132.3670012  77.5344997  36.3889988 132.2878419  76.7211591  36.6857118
 129.9090012  78.6624997  23.3109988 130.0920012  78.2134997  24.1369988
 129.3100012  78.0774997  22.8479988 129.8530202  78.5219975  23.3613275
 115.4390012  79.4774997  27.8429988 115.8850012  78.6854997  28.1449988
 115.9060012  80.1934997  28.2739988 115.5630172  79.4660624  27.9424820
 113.7430012  82.4764997  28.9119988 114.2350012  82.2554997  28.1209988
 114.1060012  83.3174997  29.1929988 113.8593126  82.5598357  28.8417531
 131.7400012  78.8064997  35.1779988 130.8220012  79.0774997  35.1419988
 131.8630012  78.2714997  34.3929988 131.6311066  78.7712892  35.0670487
 131.7760012  78.7294997  19.8389988 132.1880012  78.0084997  19.3639988
 132.4580012  79.3994997  19.8979988 131.9245885  78.7212368  19.7818915
 114.0570012  78.7344997  22.9659988 113.1320012  78.9434997  22.8369988
 114.5110012  79.2184997  22.2769988 113.9917368  78.8285993  22.8551226
 128.8280012  93.7184997  24.9119988 129.4800012  93.3714997  24.3039988
 129.3380012  94.2074997  25.5579988 128.9862637  93.7370597  24.9160236
 114.0210012  77.4724997  31.3109988 113.3560012  77.2264997  31.9539988
 113.5780012  78.0944997  30.7329988 113.8700956  77.5228632  31.3209352
 116.2130012  90.6474997  35.4549988 115.3920012  90.8224997  34.9949988
 115.9600012  90.5744997  36.3759988 116.0666164  90.6615622  35.5164923
 119.1670012  91.6224997  31.7139988 118.7420012  92.4314997  31.4309988
 120.0710012  91.7074997  31.4119988 119.2310271  91.7448469  31.6343776
 123.4780012  93.0214997  34.6729988 123.6630012  92.6874997  35.5509988
 124.3240012  93.3304997  34.3509988 123.6177539  93.0176047  34.7495605
 125.8230012  94.3074997  33.9169988 126.5000012  93.6744997  33.6769988
 126.1450012  94.7084997  34.7239988 125.9591637  94.2751154  33.9932793
 130.7400012  76.8964997  32.9969988 129.9280012  77.2214997  32.6089988
 130.9730012  76.1364997  32.4639988 130.6603423  76.8382436  32.8718253
 116.5690012  94.8784997  31.7609988 115.8480012  95.3184997  31.3099988
 116.2030012  94.6274997  32.6099988 116.4209804  94.9047698  31.8139840
 119.0360012  94.4784997  30.7909988 118.1710012  94.5504997  31.1949988
 118.9810012  95.0254997  30.0069988 118.9102085  94.5622685  30.7403362
 123.7460012  94.3664997  29.9659988 123.2900012  94.8954997  29.3119988
 123.9090012  94.9694997  30.6919988 123.7055585  94.5204468  29.9745062
 126.0740012  93.2444997  30.9109988 125.1690012  93.4094997  30.6459988
 126.5030012  94.0974997  30.8459988 126.0080799  93.3824483  30.8659182
 128.6780012  94.8144997  31.2059988 128.4960012  95.7304997  30.9959988
 128.8550012  94.4044997  30.3599988 128.6770210  94.8844822  31.0627885
 115.9830012  93.5014997  28.6709988 115.9650012  93.0764997  29.5289988
 116.7880012  93.1834997  28.2629988 116.0893875  93.4003812  28.7331655
 118.1250012  92.2114997  27.3259988 117.9060012  91.2954997  27.4959988
 118.9490012  92.3514997  27.7919988 118.2064420  92.1050520  27.4122774
 120.6620012  92.6814997  28.1749988 120.8750012  91.7934997  27.8879988
 120.7260012  92.6474997  29.1289988 120.6998232  92.5553102  28.2647397
 124.1700012  78.3454997  27.3189988 123.4960012  77.7164997  27.5749988
 124.7340012  77.8614997  26.7159988 124.1539230  78.1938744  27.2725340
 129.3130012  76.4534997  27.4319988 129.9170012  77.0004997  26.9299988
 128.4430012  76.7724997  27.1919988 129.2781241  76.5715806  27.3307654
 131.0400012  77.5914997  25.7649988 131.6520012  77.0774997  25.2389988
 131.4220012  78.4694997  25.7889988 131.1754540  77.6397140  25.6961830
 116.4970012  76.9794997  25.1409988 115.7200012  76.7454997  24.6339988
 117.0270012  76.1824997  25.1499988 116.4622330  76.8396988  25.0727742
 115.3330012  76.7774997  20.9449988 115.7720012  77.3884997  20.3529988
 114.7000012  77.3154997  21.4189988 115.3074514  76.9339257  20.9280930
 121.0760012  76.9064997  24.9549988 121.9510012  77.2944997  24.9249988
 120.9400012  76.6914997  25.8769988 121.1773695  76.9305184  25.0756440
 126.6330012  76.9364997  26.6039988 126.7090012  77.0314997  25.6539988
 126.3580012  76.0284997  26.7329988 126.6062321  76.8267867  26.4915079
 127.9860012  76.9624997  22.2959988 127.2840012  77.5774997  22.0869988
 127.5420012  76.1244997  22.4269988 127.8296330  76.9335783  22.2850328
 115.2340012  92.7254997  21.8429988 114.5490012  92.6874997  21.1749988
 115.2380012  93.6384997  22.1309988 115.1408193  92.8437016  21.7905284
 117.1940012  78.6934997  19.3869988 117.6860012  78.0634997  18.8599988
 117.8180012  78.9894997  20.0509988 117.3455446  78.6473199  19.4045980
 122.2200012  78.9864997  21.8439988 122.3980012  78.3404997  22.5269988
 122.1670012  79.8204997  22.3119988 122.2371829  79.0107985  22.0005940
 124.0990012  93.9354997  20.2399988 124.9650012  94.3014997  20.0619988
 123.8520012  93.4954997  19.4259988 124.1842392  93.9261756  20.1056289
 130.8080012  93.4984997  22.9189988 130.6130012  92.7504997  22.3539988
 130.7690012  94.2564997  22.3359988 130.7760380  93.4986099  22.7628384
 116.4550012  77.4934997  34.6589988 116.0890012  76.7284997  35.1019988
 117.3680012  77.5224997  34.9459988 116.5282790  77.3927224  34.7584070
 118.4280012  76.8444997  36.1949988 119.3260012  76.5704997  36.0099988
 118.0410012  76.1014997  36.6589988 118.4986612  76.7065914  36.2323643
 117.0520012  93.6454997  18.8679988 116.7850012  93.9324997  19.7409988
 117.8240012  93.0994997  19.0199988 117.1197488  93.6110294  19.0081050
 126.8490012  76.1764997  36.3769988 126.9260012  75.7504997  37.2309988
 127.7430012  76.1904997  36.0339988 126.9803428  76.1200879  36.4475310
 130.0250012  92.2494997  35.0689988 129.2430012  92.0634997  34.5499988
 129.9530012  93.1784997  35.2869988 129.9081777  92.3496492  35.0274048
 144.4310012  86.1354997  25.0999988 144.5200012  87.0794997  24.9679988
 143.7930012  85.8604997  24.4419988 144.3569081  86.2274830  24.9929614
 143.3640012  85.3904997  28.5189988 143.3260012  84.7444997  29.2239988
 143.0420012  84.9244997  27.7479988 143.3152333  85.2389408  28.5112978
 135.7330012  85.0054997  30.1119988 135.7740012  84.3794997  30.8349988
 136.4360012  85.6294997  30.2939988 135.8336363  85.0041196  30.2356044
 136.6560012  89.4554997  28.6469988 136.2870012  88.6534997  28.2769988
 137.5970012  89.2864997  28.6929988 136.7327289  89.3230153  28.6026316
 133.2660012  83.1154997  24.0399988 132.8190012  83.9614997  24.0209988
 132.7050012  82.5354997  23.5239988 133.1289900  83.1529916  23.9676801
 133.9770012  85.2774997  26.1659988 134.1900012  84.5074997  26.6929988
 134.7150012  85.3664997  25.5619988 134.1058496  85.1841394  26.1565300
 144.1820012  93.4344997  27.0329988 144.8020012  92.7574997  26.7589988
 143.9740012  93.2164997  27.9409988 144.2386904  93.3123870  27.1183365
 141.7540012  87.8234997  28.9249988 142.0580012  87.1374997  28.3299988
 142.4750012  87.9414997  29.5429988 141.8930671  87.7456305  28.9271816
 144.8950012  82.2174997  29.2529988 145.0370012  81.2714997  29.2729988
 144.7880012  82.4244997  28.3239988 144.8999864  82.1159534  29.1302339
 138.0490012  80.3184997  26.5249988 138.0930012  81.1784997  26.1069988
 137.5920012  79.7664997  25.8909988 137.9932185  80.3615799  26.3820299
 134.6700012  82.7154997  27.2869988 135.3230012  82.1654997  27.7189988
 134.6940012  82.4414997  26.3699988 134.7626683  82.6031466  27.2222123
 139.8260012  84.2654997  26.5019988 140.4420012  83.7394997  27.0119988
 139.2400012  83.6254997  26.0989988 139.8310810  84.1069208  26.5173173
 136.8600012  79.2364997  30.5989988 136.6410012  79.7664997  29.8329988
 136.1920012  79.4634997  31.2459988 136.7397600  79.3396906  30.5816379
 144.2290012  88.7364997  24.1429988 143.9330012  88.4144997  23.2919988
 143.9040012  89.6364997  24.1839988 144.1446371  88.8140215  24.0321801
 139.4290012  86.9124997  30.8859988 138.6890012  87.5104997  30.9899988
 140.1430012  87.4664997  30.5709988 139.4242237  87.0692831  30.8576465
 136.4530012  81.1284997  28.5509988 137.0670012  81.7614997  28.9249988
 136.9650012  80.6564997  27.8949988 136.6062296  81.1512370  28.5134252
 137.8360012  88.8764997  31.6739988 137.8310012  89.7564997  31.2959988
 136.9830012  88.7934997  32.0989988 137.7199464  88.9856117  31.6797907
 133.9570012  88.5474997  22.4559988 133.6850012  88.7764997  21.5669988
 134.0030012  89.3854997  22.9159988 133.9260094  88.6921213  22.3965697
 140.8860012  76.5424997  28.0519988 140.7690012  75.5934997  27.9969988
 140.0310012  76.8744997  28.3249988 140.7543733  76.4575409  28.0813897
 143.1530012  85.3794997  22.5519988 142.4410012  85.9144997  22.1999988
 143.8440012  85.4354997  21.8919988 143.1490132  85.4602543  22.4146289
 143.2060012  83.8374997  19.5909988 143.9070012  83.8594997  20.2419988
 143.5090012  83.2094997  18.9349988 143.3427830  83.7556566  19.5913711
 138.2040012  86.2194997  25.3859988 137.8730012  85.8494997  24.5679988
 138.7920012  85.5494997  25.7329988 138.2381873  86.0781156  25.3208102
 139.5700012  89.6474997  28.0679988 139.4760012  89.0694997  27.3109988
 140.3000012  89.2764997  28.5639988 139.6557981  89.5182390  28.0314165
 138.5700012  84.9884997  29.0199988 139.1360012  85.1094997  28.2569988
 138.8890012  85.6254997  29.6589988 138.6905786  85.0911884  29.0020040
 144.8790012  90.4914997  29.7539988 144.6390012  91.1534997  30.4019988
 144.6810012  89.6574997  30.1789988 144.8193808  90.4693134  29.9001524
 139.4500012  89.3874997  33.7369988 139.1390012  90.1694997  34.1919988
 138.8000012  89.2344997  33.0509988 139.3195558  89.4739105  33.7065871
 136.3700012  85.5854997  32.9659988 136.4410012  86.2364997  33.6639988
 135.4800012  85.6884997  32.6309988 136.2593117  85.6885936  33.0162700
 143.1560012  91.4884997  24.6239988 143.6300012  91.7834997  25.4019988
 142.5930012  92.2264997  24.3909988 143.1447653  91.6286932  24.6990136
 137.6900012  91.4594997  34.4999988 137.6970012  91.3234997  33.5529988
 136.7740012  91.3414997  34.7519988 137.5671714  91.4249430  34.4044666
 137.1940012  85.2894997  22.9759988 136.9020012  86.0574997  22.4849988
 136.5200012  84.6294997  22.8129988 137.0629081  85.3054406  22.8867340
 133.2870012  87.6524997  31.7909988 132.7860012  87.6244997  30.9759988
 133.2920012  86.7464997  32.0999988 133.2191526  87.5262278  31.7212872
 133.0370012  90.4324997  28.6749988 133.9830012  90.2884997  28.6559988
 132.9250012  91.2164997  29.2119988 133.1512727  90.5188046  28.7450072
 142.2140012  90.6724997  33.2329988 142.3010012  91.4984997  33.7079988
 141.3500012  90.3424997  33.4819988 142.1091964  90.7409878  33.3316549
 142.6280012  94.4444997  23.0389988 142.5530012  94.3234997  22.0929988
 142.6610012  95.3944997  23.1579988 142.6221848  94.5562500  22.9254834
 136.2810012  93.2334997  24.8199988 136.4340012  92.8854997  25.6989988
 135.4310012  92.8774997  24.5649988 136.1868962  93.1376650  24.9058340
 135.5360012  88.9754997  32.8339988 135.7520012  88.6144997  33.6929988
 134.6810012  88.6014997  32.6239988 135.4499292  88.8754111  32.9233386
 138.1550012  77.4454997  28.8289988 137.2930012  77.3584997  28.4219988
 138.1320012  78.3014997  29.2569988 138.0340330  77.5492765  28.8311863
 142.8180012  77.1674997  32.2039988 143.2380012  76.7524997  32.9569988
 141.8850012  76.9894997  32.3209988 142.7493644  77.0865900  32.3229539
 142.4790012  79.6604997  19.4889988 142.2260012  79.6794997  20.4119988
 142.2230012  78.7884997  19.1879988 142.4097790  79.5452437  19.5746263
 138.2460012  82.4114997  29.9239988 137.6040012  82.3704997  30.6329988
 138.2830012  83.3374997  29.6869988 138.1631324  82.5311559  29.9889824
 138.2430012  82.6324997  24.8359988 137.3500012  82.2914997  24.7779988
 138.6930012  82.2554997  24.0809988 138.1817305  82.5348484  24.7259177
 143.7780012  83.0484997  23.6529988 143.3690012  83.8634997  23.3619988
 144.4990012  82.9084997  23.0389988 143.8194537  83.1412018  23.5301342
 142.8800012  83.2234997  35.1409988 142.3180012  82.5194997  35.4619988
 143.7070012  83.1034997  35.6089988 142.9147095  83.1107883  35.2482330
 144.7830012  82.4944997  26.4669988 144.5880012  83.0994997  25.7519988
 144.9640012  81.6604997  26.0329988 144.7807614  82.4646300  26.3104405
 135.9960012  82.7314997  31.7909988 135.9580012  83.1314997  32.6599988
 135.5050012  81.9144997  31.8819988 135.9244684  82.6758069  31.9221059
 139.3620012  80.1054997  18.5899988 138.9310012  79.6604997  19.3199988
 138.6440012  80.4774997  18.0779988 139.2059438  80.0948940  18.6206799
 132.6040012  79.8474997  25.6419988 133.2350012  79.8184997  26.3609988
 133.0530012  79.4224997  24.9119988 132.7510774  79.7860492  25.6416553
 133.8780012  80.5934997  21.0659988 134.3520012  81.1844997  20.4809988
 133.1610012  81.1244997  21.4129988 133.8459341  80.7460867  21.0328836
 144.0470012  84.1324997  31.1389988 144.3700012  83.5014997  30.4959988
 143.6070012  83.5974997  31.7989988 144.0316895  83.9738441  31.1402850
 140.8240012  80.0594997  25.9229988 139.9130012  80.1164997  26.2109988
 141.3300012  79.9994997  26.7329988 140.7675413  80.0591985  26.0720622
 135.6530012  81.6884997  24.7489988 134.7630012  81.7884997  24.4089988
 135.9490012  80.8464997  24.4029988 135.5712823  81.5883545  24.6557213
 139.3060012  81.6884997  22.4059988 140.2370012  81.8174997  22.5839988
 139.0910012  82.3584997  21.7559988 139.4044247  81.7966565  22.3425747
 137.9800012  82.8834997  19.9729988 137.4370012  82.5034997  19.2809988
 138.8130012  83.0774997  19.5439988 138.0184399  82.8578124  19.8204526
 136.1150012  87.4404997  35.0719988 136.8470012  87.6944997  35.6329988
 135.3350012  87.6444997  35.5869988 136.1098232  87.5029177  35.2185760
 142.1440012  82.8474997  27.8099988 142.7090012  82.3004997  27.2629988
 141.9970012  82.3254997  28.5979988 142.2012918  82.7022024  27.8418454
 137.1460012  78.9834997  24.2279988 136.8290012  78.0814997  24.1929988
 137.9280012  78.9854997  23.6749988 137.2082284  78.8601628  24.1484783
 140.7710012  81.2354997  30.2239988 139.9350012  81.6894997  30.3339988
 141.2950012  81.5114997  30.9759988 140.7274414  81.3349376  30.3407136
 141.3150012  87.4484997  21.9079988 140.5700012  86.9414997  21.5859988
 141.1810012  87.4974997  22.8549988 141.1948776  87.3856940  21.9918647
 142.8340012  87.6324997  33.1449988 142.4890012  87.2514997  33.9519988
 142.6340012  88.5664997  33.2169988 142.7598061  87.7065228  33.2650961
 136.4400012  86.7434997  27.6779988 137.1850012  86.7414997  27.0769988
 136.5180012  85.9204997  28.1599988 136.5525518  86.6319315  27.6608929
 143.4410012  88.9074997  20.9339988 143.1450012  89.7334997  21.3149988
 142.7380012  88.2874997  21.1299988 143.3054914  88.9368199  21.0126443
 133.4480012  85.2044997  32.9929988 133.6710012  84.7864997  33.8249988
 132.8460012  84.5914997  32.5699988 133.3971759  85.0644668  33.0497022
 140.4640012  84.7214997  35.2059988 140.1680012  84.5554997  34.3109988
 141.3960012  84.5014997  35.1949988 140.5494166  84.6690640  35.0820536
 138.8150012  90.2614997  25.0819988 139.3420012  91.0344997  24.8819988
 137.9350012  90.4864997  24.7809988 138.7681773  90.3978005  25.0139010
 134.5700012  85.1234997  19.6689988 135.1860012  85.7504997  20.0489988
 133.7080012  85.4394997  19.9409988 134.5377698  85.2519430  19.7577183
 140.2420012  87.9244997  24.6589988 140.0010012  88.8494997  24.6999988
 139.5010012  87.4654997  25.0549988 140.1088409  87.9891421  24.7181377
 140.7570012  92.0734997  30.9739988 141.1190012  92.9284997  30.7399988
 141.2880012  91.7814997  31.7139988 140.8784473  92.1511060  31.0420855
 138.9250012  92.9464997  24.2039988 137.9750012  93.0514997  24.2549988
 139.2770012  93.7664997  24.5489988 138.8424203  93.0718314  24.2576650
 144.3010012  88.1724997  30.6739988 143.8750012  87.9454997  31.5009988
 144.8810012  87.4344997  30.4919988 144.3211868  88.0415299  30.7625830
 135.0820012  79.9574997  32.5509988 134.1890012  80.2964997  32.4829988
 134.9830012  79.1024997  32.9689988 134.9464164  79.8882588  32.5982235
 134.7330012  91.7624997  30.9859988 134.9500012  90.8304997  30.9549988
 134.9790012  92.0364997  31.8689988 134.7959549  91.6720636  31.1011763
 140.5950012  90.2134997  18.1949988 140.8340012  89.4654997  17.6479988
 140.3260012  89.8254997  19.0279988 140.5913675  90.0586638  18.2326865
 139.5320012  89.7834997  20.6519988 139.6780012  89.2634997  21.4419988
 139.5290012  90.6904997  20.9579988 139.5515989  89.8348853  20.8016088
 135.9850012  87.0364997  21.1619988 135.2990012  87.3884997  21.7289988
 136.5070012  87.7994997  20.9149988 135.9616852  87.1878578  21.2062118
 143.8160012  79.6984997  31.4409988 144.5150012  79.7724997  32.0909988
 143.4350012  78.8344997  31.5949988 143.8601767  79.5917624  31.5508322
 144.6010012  79.3504997  22.5379988 144.8210012  79.8224997  21.7349988
 145.1590012  79.7454997  23.2079988 144.7064968  79.4684285  22.5187331
 142.2690012  91.4814997  21.4009988 141.4530012  91.9784997  21.4529988
 142.7990012  91.9564997  20.7609988 142.2289161  91.6137722  21.3215956
 141.8010012  81.0784997  23.3729988 142.6130012  81.5834997  23.4189988
 141.5560012  80.9334997  24.2869988 141.8790520  81.1280375  23.5028517
 142.3360012  82.0644997  32.5579988 142.4550012  82.6384997  33.3149988
 142.9920012  81.3764997  32.6719988 142.4409757  82.0501079  32.6770825
 142.6840012  78.1594997  24.3109988 142.3380012  78.7774997  24.9559988
 143.3430012  78.6604997  23.8299988 142.7257826  78.3115802  24.3340971
 139.6080012  92.5254997  21.3829988 139.7680012  93.3244997  20.8819988
 139.4100012  92.8314997  22.2679988 139.6031649  92.6764469  21.4339815
 138.3420012  79.2224997  20.9979988 138.2590012  80.1114997  21.3449988
 139.2320012  78.9574997  21.2299988 138.4509469  79.3081430  21.0767626
 136.6010012  89.6504997  20.0589988 137.1930012  90.3494997  20.3349988
 137.0600012  89.2174997  19.3389988 136.7441142  89.6877049  19.9994830
 134.9170012  82.3144997  19.1749988 134.8720012  83.2534997  19.3529988
 134.0290012  82.0784997  18.9049988 134.7908574  82.4111892  19.1628912
 135.7250012  77.0964997  27.8479988 135.4960012  77.1554997  26.9199988
 135.2820012  76.3044997  28.1539988 135.6338530  76.9975753  27.7624786
 134.6550012  91.0364997  24.0079988 133.8230012  91.5094997  24.0359988
 135.2010012  91.5464997  23.4099988 134.6149739  91.1701871  23.9309716
 133.9430012  93.6494997  35.3379988 134.4840012  93.4324997  36.0979988
 133.4620012  92.8434997  35.1489988 133.9519345  93.5109514  35.4163076
 138.5410012  92.5684997  36.9589988 139.3080012  92.1094997  37.2999988
 138.5190012  92.3424997  36.0289988 138.6431434  92.4750409  36.8800043
 142.6330012  92.0764997  18.3339988 141.9890012  91.4454997  18.6549988
 143.3950012  91.5454997  18.1019988 142.6478077  91.9182920  18.3466011
 133.8500012  87.4594997  36.2929988 133.9940012  86.5574997  36.0059988
 133.0780012  87.7454997  35.8049988 133.7653322  87.3748261  36.1877881
 138.1920012  87.8034997  18.4249988 138.2560012  87.0094997  18.9559988
 138.8450012  87.6844997  17.7349988 138.2890241  87.6787148  18.4044317
 140.5060012  87.4294997  35.7249988 140.1770012  87.7004997  34.8679988
 140.6580012  86.4884997  35.6379988 140.4814809  87.3393862  35.5958244
 143.5440012  88.8504997  18.1609988 143.2750012  89.0304997  19.0619988
 143.3380012  87.9244997  18.0299988 143.4793825  88.7500152  18.2665214
 134.6830012  84.6594997  35.7129988 135.0910012  83.8024997  35.5919988
 134.4230012  84.6744997  36.6339988 134.7037568  84.5440807  35.8209588
 139.3410012  85.7754997  20.7309988 138.8810012  85.2914997  21.4169988
 139.5960012  85.1074997  20.0949988 139.3124902  85.6188731  20.7389334
 138.6300012  83.6684997  33.0869988 138.0120012  84.3434997  33.3669988
 138.9740012  83.9894997  32.2539988 138.5919615  83.8042721  33.0126581
 140.4120012  84.0184997  18.9929988 140.2320012  83.8644997  18.0659988
 141.3620012  84.1264997  19.0379988 140.5157776  84.0120175  18.8721843
 143.6500012  86.1404997  36.3639988 144.6030012  86.2234997  36.3369988
 143.4890012  85.4284997  36.9839988 143.7586426  86.0556746  36.4440579
 138.9690012  81.0234997  34.1689988 139.1190012  80.2944997  33.5669988
 138.9720012  81.8004997  33.6099988 138.9899302  81.0287851  34.0110692
 139.3820012  79.3934997  31.6619988 139.9180012  79.8444997  31.0099988
 138.5300012  79.2854997  31.2389988 139.3402178  79.4406390  31.5155756
 140.9640012  84.8324997  31.9009988 141.7140012  84.6764997  31.3279988
 140.6250012  85.6844997  31.6259988 141.0208921  84.9262968  31.7853561
 137.4480012  82.2214997  36.0809988 136.6810012  81.6894997  35.8709988
 138.1270012  81.9114997  35.4809988 137.4347022  82.1067506  35.9711648
 140.1880012  76.8494997  32.0929988 140.0890012  77.7964997  31.9879988
 139.4450012  76.4774997  31.6179988 140.0740564  76.9285902  32.0144560
 141.4520012  81.1714997  35.6569988 141.2160012  80.9514997  36.5589988
 140.6680012  80.9644997  35.1469988 141.3138628  81.1134760  35.7113932
 144.1670012  80.2984997  34.7329988 143.2200012  80.3304997  34.8649988
 144.4800012  79.6734997  35.3859988 144.0795475  80.2183207  34.8394455
 135.6280012  80.1424997  35.7849988 135.8400012  79.4354997  35.1749988
 135.5170012  79.7044997  36.6289988 135.6419721  79.9867084  35.8156843
 140.4090012  76.1434997  34.7649988 141.1210012  75.5034997  34.7509988
 140.3080012  76.4104997  33.8509988 140.4927939  76.0919938  34.6395650
 140.7630012  77.8264997  36.8179988 140.6310012  77.3504997  35.9979988
 140.1640012  78.5704997  36.7629988 140.6639071  77.8619618  36.6982886
 140.3090012  94.7094997  19.9949988 141.2420012  94.8674997  20.1379988
 140.0450012  95.3844997  19.3699988 140.4009510  94.8223611  19.9300741
 133.8780012  89.3454997  19.4769988 134.7920012  89.4244997  19.7509988
 133.8850012  88.6584997  18.8109988 134.0041131  89.2633961  19.4244393
 132.5270012  94.7384997  24.5549988 131.8800012  94.2764997  24.0219988
 132.8810012  94.0664997  25.1369988 132.4863849  94.5844723  24.5607959
 133.3970012  92.8194997  26.3589988 133.0620012  91.9394997  26.5309988
 133.6190012  93.1644997  27.2239988 133.3811783  92.7457500  26.4994208
 133.4770012  85.8944997  28.8109988 133.6610012  85.8124997  27.8749988
 134.3260012  85.7704997  29.2349988 133.6170139  85.8665003  28.7401455
 133.0740012  81.1654997  34.9519988 133.9940012  81.0434997  35.1879988
 132.6250012  80.4154997  35.3409988 133.1391580  81.0473727  35.0369006
 134.2950012  79.4774997  27.8429988 134.7410012  78.6854997  28.1449988
 134.7620012  80.1934997  28.2739988 134.4190172  79.4660624  27.9424820
 132.5990012  82.4764997  28.9119988 133.0910012  82.2554997  28.1209988
 132.9620012  83.3174997  29.1929988 132.7153126  82.5598357  28.8417531
 132.9130012  78.7344997  22.9659988 131.9880012  78.9434997  22.8369988
 133.3670012  79.2184997  22.2769988 132.8477368  78.8285993  22.8551226
 132.8770012  77.4724997  31.3109988 132.2120012  77.2264997  31.9539988
 132.4340012  78.0944997  30.7329988 132.7260956  77.5228632  31.3209352
 135.0690012  90.6474997  35.4549988 134.2480012  90.8224997  34.9949988
 134.8160012  90.5744997  36.3759988 134.9226164  90.6615622  35.5164923
 138.0230012  91.6224997  31.7139988 137.5980012  92.4314997  31.4309988
 138.9270012  91.7074997  31.4119988 138.0870271  91.7448469  31.6343776
 142.3340012  93.0214997  34.6729988 142.5190012  92.6874997  35.5509988
 143.1800012  93.3304997  34.3509988 142.4737539  93.0176047  34.7495605
 144.6790012  94.3074997  33.9169988 145.3560012  93.6744997  33.6769988
 145.0010012  94.7084997  34.7239988 144.8151637  94.2751154  33.9932793
 135.4250012  94.8784997  31.7609988 134.7040012  95.3184997  31.3099988
 135.0590012  94.6274997  32.6099988 135.2769804  94.9047698  31.8139840
 137.8920012  94.4784997  30.7909988 137.0270012  94.5504997  31.1949988
 137.8370012  95.0254997  30.0069988 137.7662085  94.5622685  30.7403362
 142.6020012  94.3664997  29.9659988 142.1460012  94.8954997  29.3119988
 142.7650012  94.9694997  30.6919988 142.5615585  94.5204468  29.9745062
 134.8390012  93.5014997  28.6709988 134.8210012  93.0764997  29.5289988
 135.6440012  93.1834997  28.2629988 134.9453875  93.4003812  28.7331655
 136.9810012  92.2114997  27.3259988 136.7620012  91.2954997  27.4959988
 137.8050012  92.3514997  27.7919988 137.0624420  92.1050520  27.4122774
 139.5180012  92.6814997  28.1749988 139.7310012  91.7934997  27.8879988
 139.5820012  92.6474997  29.1289988 139.5558232  92.5553102  28.2647397
 143.0260012  78.3454997  27.3189988 142.3520012  77.7164997  27.5749988
 143.5900012  77.8614997  26.7159988 143.0099230  78.1938744  27.2725340
 135.3530012  76.9794997  25.1409988 134.5760012  76.7454997  24.6339988
 135.8830012  76.1824997  25.1499988 135.3182330  76.8396988  25.0727742
 134.1890012  76.7774997  20.9449988 134.6280012  77.3884997  20.3529988
 133.5560012  77.3154997  21.4189988 134.1634514  76.9339257  20.9280930
 139.9320012  76.9064997  24.9549988 140.8070012  77.2944997  24.9249988
 139.7960012  76.6914997  25.8769988 140.0333695  76.9305184  25.0756440
 134.0900012  92.7254997  21.8429988 133.4050012  92.6874997  21.1749988
 134.0940012  93.6384997  22.1309988 133.9968193  92.8437016  21.7905284
 136.0500012  78.6934997  19.3869988 136.5420012  78.0634997  18.8599988
 136.6740012  78.9894997  20.0509988 136.2015446  78.6473199  19.4045980
 141.0760012  78.9864997  21.8439988 141.2540012  78.3404997  22.5269988
 141.0230012  79.8204997  22.3119988 141.0931829  79.0107985  22.0005940
 142.9550012  93.9354997  20.2399988 143.8210012  94.3014997  20.0619988
 142.7080012  93.4954997  19.4259988 143.0402392  93.9261756  20.1056289
 135.3110012  77.4934997  34.6589988 134.9450012  76.7284997  35.1019988
 136.2240012  77.5224997  34.9459988 135.3842790  77.3927224  34.7584070
 137.2840012  76.8444997  36.1949988 138.1820012  76.5704997  36.0099988
 136.8970012  76.1014997  36.6589988 137.3546612  76.7065914  36.2323643
 135.9080012  93.6454997  18.8679988 135.6410012  93.9324997  19.7409988
 136.6800012  93.0994997  19.0199988 135.9757488  93.6110294  19.0081050
  12.4390012 104.9914997  25.0999988  12.5280012 105.9354997  24.9679988
  11.8010012 104.7164997  24.4419988  12.3649081 105.0834830  24.9929614
  11.3720012 104.2464997  28.5189988  11.3340012 103.6004997  29.2239988
  11.0500012 103.7804997  27.7479988  11.3232333 104.0949408  28.5112978
   3.7410012 103.8614997  30.1119988   3.7820012 103.2354997  30.8349988
   4.4440012 104.4854997  30.2939988   3.8416363 103.8601196  30.2356044
  15.0780012 107.1854997  26.8199988  14.6380012 106.4654997  27.2709988
  15.0650012 107.9064997  27.4499988  15.0160226 107.1843731  26.9668494
   4.6640012 108.3114997  28.6469988   4.2950012 107.5094997  28.2769988
   5.6050012 108.1424997  28.6929988   4.7407289 108.1790153  28.6026316
   1.2740012 101.9714997  24.0399988   0.8270012 102.8174997  24.0209988
   0.7130012 101.3914997  23.5239988   1.1369900 102.0089916  23.9676801
   1.9850012 104.1334997  26.1659988   2.1980012 103.3634997  26.6929988
   2.7230012 104.2224997  25.5619988   2.1138496 104.0401394  26.1565300
  12.1900012 112.2904997  27.0329988  12.8100012 111.6134997  26.7589988
  11.9820012 112.0724997  27.9409988  12.2466904 112.1683870  27.1183365
   9.7620012 106.6794997  28.9249988  10.0660012 105.9934997  28.3299988
  10.4830012 106.7974997  29.5429988   9.9010671 106.6016304  28.9271816
  18.4250012  98.2804997  29.7859988  18.4740012  98.8904997  30.5219988
  18.8500012  98.7414997  29.0629988  18.4891824  98.4263741  29.7890205
  12.9030012 101.0734997  29.2529988  13.0450012 100.1274997  29.2729988
  12.7960012 101.2804997  28.3239988  12.9079864 100.9719534  29.1302339
   6.0570012  99.1744997  26.5249988   6.1010012 100.0344997  26.1069988
   5.6000012  98.6224997  25.8909988   6.0012185  99.2175799  26.3820299
  13.7800012  99.3054997  24.9259988  14.4260012  98.9764997  25.5509988
  14.2900012  99.8234997  24.3029988  13.9374264  99.3304611  24.9273862
   2.6780012 101.5714997  27.2869988   3.3310012 101.0214997  27.7189988
   2.7020012 101.2974997  26.3699988   2.7706683 101.4591466  27.2222123
   7.8340012 103.1214997  26.5019988   8.4500012 102.5954997  27.0119988
   7.2480012 102.4814997  26.0989988   7.8390810 102.9629208  26.5173173
  18.8160012  99.7584997  32.0219988  18.1280012 100.4164997  31.9259988
  18.8320012  99.5614997  32.9579988  18.7238525  99.8220462  32.1354808
   4.8680012  98.0924997  30.5989988   4.6490012  98.6224997  29.8329988
   4.2000012  98.3194997  31.2459988   4.7477600  98.1956906  30.5816379
  12.2370012 107.5924997  24.1429988  11.9410012 107.2704997  23.2919988
  11.9120012 108.4924997  24.1839988  12.1526371 107.6700215  24.0321801
   7.4370012 105.7684997  30.8859988   6.6970012 106.3664997  30.9899988
   8.1510012 106.3224997  30.5709988   7.4322237 105.9252831  30.8576465
  15.5440012  98.5964997  26.9059988  15.3280012  97.8304997  27.4389988
  16.1990012  99.0684997  27.4189988  15.6030632  98.5555889  27.0482861
   4.4610012  99.9844997  28.5509988   5.0750012 100.6174997  28.9249988
   4.9730012  99.5124997  27.8949988   4.6142296 100.0072370  28.5134252
   5.8440012 107.7324997  31.6739988   5.8390012 108.6124997  31.2959988
   4.9910012 107.6494997  32.0989988   5.7279464 107.8416117  31.6797907
   1.9650012 107.4034997  22.4559988   1.6930012 107.6324997  21.5669988
   2.0110012 108.2414997  22.9159988   1.9340094 107.5481213  22.3965697
  15.5900012 109.0254997  29.1679988  14.6490012 109.0834997  29.3299988
  15.8670012 109.9314997  29.0309988  15.4984679 109.1559443  29.1716815
  15.8910012  97.3114997  30.5859988  15.1550012  97.9224997  30.5479988
  16.5740012  97.7264997  30.0589988  15.8826541  97.4511374  30.5095832
   8.8940012  95.3984997  28.0519988   8.7770012  94.4494997  27.9969988
   8.0390012  95.7304997  28.3249988   8.7623733  95.3135409  28.0813897
  13.8420012 110.8064997  25.7939988  14.2680012 110.0994997  25.3089988
  14.1590012 111.6074997  25.3769988  13.9431019 110.8180994  25.6713130
  15.0020012 108.7074997  24.3019988  14.7440012 108.0174997  23.6909988
  15.0730012 108.2644997  25.1479988  14.9762856 108.5532124  24.3326885
  16.6880012 107.2734997  32.7799988  16.8280012 106.6824997  32.0399988
  16.8550012 108.1464997  32.4229988  16.7296778 107.3106426  32.6306965
  11.1610012 104.2354997  22.5519988  10.4490012 104.7704997  22.1999988
  11.8520012 104.2914997  21.8919988  11.1570132 104.3162543  22.4146289
  11.2140012 102.6934997  19.5909988  11.9150012 102.7154997  20.2419988
  11.5170012 102.0654997  18.9349988  11.3507830 102.6116566  19.5913711
  18.5300012 103.6134997  30.8459988  17.8770012 104.3084997  30.9349988
  18.9950012 103.8234997  30.0359988  18.5035390 103.7369425  30.7486883
  14.5660012 104.4454997  23.5039988  13.8340012 104.6734997  24.0769988
  15.0140012 103.7314997  23.9589988  14.5263095 104.3802571  23.6439119
  14.4640012 102.6194997  32.5709988  14.5440012 103.3824997  33.1429988
  13.8620012 102.8984997  31.8809988  14.3935756 102.7617134  32.5560589
   6.2120012 105.0754997  25.3859988   5.8810012 104.7054997  24.5679988
   6.8000012 104.4054997  25.7329988   6.2461873 104.9341156  25.3208102
   7.5780012 108.5034997  28.0679988   7.4840012 107.9254997  27.3109988
   8.3080012 108.1324997  28.5639988   7.6637981 108.3742390  28.0314165
   6.5780012 103.8444997  29.0199988   7.1440012 103.9654997  28.2569988
   6.8970012 104.4814997  29.6589988   6.6985786 103.9471884  29.0020040
  12.8870012 109.3474997  29.7539988  12.6470012 110.0094997  30.4019988
  12.6890012 108.5134997  30.1789988  12.8273808 109.3253134  29.9001524
   7.4580012 108.2434997  33.7369988   7.1470012 109.0254997  34.1919988
   6.8080012 108.0904997  33.0509988   7.3275558 108.3299105  33.7065871
  13.4370012 103.6074997  21.1889988  14.0170012 103.7574997  21.9359988
  13.8510012 104.0784997  20.4659988  13.5722830 103.6916841  21.1934134
   4.3780012 104.4414997  32.9659988   4.4490012 105.0924997  33.6639988
   3.4880012 104.5444997  32.6309988   4.2673117 104.5445936  33.0162700
  11.1640012 110.3444997  24.6239988  11.6380012 110.6394997  25.4019988
  10.6010012 111.0824997  24.3909988  11.1527653 110.4846932  24.6990136
   5.6980012 110.3154997  34.4999988   5.7050012 110.1794997  33.5529988
   4.7820012 110.1974997  34.7519988   5.5751714 110.2809430  34.4044666
  17.1360012  95.3574997  21.0019988  16.2360012  95.4964997  21.2969988
  17.3880012  96.1884997  20.5999988  17.0468702  95.4889074  20.9880205
   5.2020012 104.1454997  22.9759988   4.9100012 104.9134997  22.4849988
   4.5280012 103.4854997  22.8129988   5.0709081 104.1614406  22.8867340
  18.3250012 109.7234997  19.3779988  18.3990012 110.6624997  19.5489988
  19.2310012 109.4184997  19.3219988  18.4575100 109.8106722  19.3938119
   1.2950012 106.5084997  31.7909988   0.7940012 106.4804997  30.9759988
   1.3000012 105.6024997  32.0999988   1.2271526 106.3822278  31.7212872
   1.0450012 109.2884997  28.6749988   1.9910012 109.1444997  28.6559988
   0.9330012 110.0724997  29.2119988   1.1592727 109.3748046  28.7450072
  19.2430012 109.9544997  34.3569988  19.1940012 108.9994997  34.3199988
  18.4160012 110.2224997  34.7579988  19.1244940 109.8598998  34.4061375
  10.2220012 109.5284997  33.2329988  10.3090012 110.3544997  33.7079988
   9.3580012 109.1984997  33.4819988  10.1171964 109.5969878  33.3316549
  10.6360012 113.3004997  23.0389988  10.5610012 113.1794997  22.0929988
  10.6690012 114.2504997  23.1579988  10.6301848 113.4122500  22.9254834
   4.2890012 112.0894997  24.8199988   4.4420012 111.7414997  25.6989988
   3.4390012 111.7334997  24.5649988   4.1948962 111.9936650  24.9058340
  13.7380012 112.4544997  20.0409988  14.1130012 111.7104997  19.5709988
  13.7420012 112.1844997  20.9599988  13.7898915 112.3161486  20.1007824
  13.4070012 112.3804997  22.7909988  12.4710012 112.4804997  22.9689988
  13.6870012 111.6714997  23.3689988  13.3168255 112.2982711  22.8935391
  16.3950012 101.4474997  34.8369988  15.9880012 101.9284997  34.1159988
  16.4360012 100.5424997  34.5289988  16.3448437 101.3909374  34.6966683
   3.5440012 107.8314997  32.8339988   3.7600012 107.4704997  33.6929988
   2.6890012 107.4574997  32.6239988   3.4579292 107.7314111  32.9233386
   6.1630012  96.3014997  28.8289988   5.3010012  96.2144997  28.4219988
   6.1400012  97.1574997  29.2569988   6.0420330  96.4052765  28.8311863
  10.8260012  96.0234997  32.2039988  11.2460012  95.6084997  32.9569988
   9.8930012  95.8454997  32.3209988  10.7573644  95.9425900  32.3229539
  14.1520012  99.7794997  33.0569988  13.6380012  99.6534997  33.8549988
  13.9970012 100.6914997  32.8129988  14.0606852  99.8856132  33.1332158
  14.9150012 104.6404997  18.8189988  14.9570012 104.4174997  17.8889988
  15.7640012 105.0394997  19.0089988  15.0355396 104.6639155  18.7173627
  10.4870012  98.5164997  19.4889988  10.2340012  98.5354997  20.4119988
  10.2310012  97.6444997  19.1879988  10.4177790  98.4012437  19.5746263
   6.2540012 101.2674997  29.9239988   5.6120012 101.2264997  30.6329988
   6.2910012 102.1934997  29.6869988   6.1711324 101.3871559  29.9889824
   6.2510012 101.4884997  24.8359988   5.3580012 101.1474997  24.7779988
   6.7010012 101.1114997  24.0809988   6.1897305 101.3908484  24.7259177
  11.7860012 101.9044997  23.6529988  11.3770012 102.7194997  23.3619988
  12.5070012 101.7644997  23.0389988  11.8274537 101.9972018  23.5301342
  10.8880012 102.0794997  35.1409988  10.3260012 101.3754997  35.4619988
  11.7150012 101.9594997  35.6089988  10.9227095 101.9667883  35.2482330
  12.7910012 101.3504997  26.4669988  12.5960012 101.9554997  25.7519988
  12.9720012 100.5164997  26.0329988  12.7887614 101.3206300  26.3104405
   4.0040012 101.5874997  31.7909988   3.9660012 101.9874997  32.6599988
   3.5130012 100.7704997  31.8819988   3.9324684 101.5318069  31.9221059
   7.3700012  98.9614997  18.5899988   6.9390012  98.5164997  19.3199988
   6.6520012  99.3334997  18.0779988   7.2139438  98.9508940  18.6206799
   0.6120012  98.7034997  25.6419988   1.2430012  98.6744997  26.3609988
   1.0610012  98.2784997  24.9119988   0.7590774  98.6420492  25.6416553
   1.8860012  99.4494997  21.0659988   2.3600012 100.0404997  20.4809988
   1.1690012  99.9804997  21.4129988   1.8539341  99.6020867  21.0328836
  12.0550012 102.9884997  31.1389988  12.3780012 102.3574997  30.4959988
  11.6150012 102.4534997  31.7989988  12.0396895 102.8298441  31.1402850
   8.8320012  98.9154997  25.9229988   7.9210012  98.9724997  26.2109988
   9.3380012  98.8554997  26.7329988   8.7755413  98.9151985  26.0720622
   3.6610012 100.5444997  24.7489988   2.7710012 100.6444997  24.4089988
   3.9570012  99.7024997  24.4029988   3.5792823 100.4443546  24.6557213
   7.3140012 100.5444997  22.4059988   8.2450012 100.6734997  22.5839988
   7.0990012 101.2144997  21.7559988   7.4124247 100.6526565  22.3425747
  13.2370012  98.1504997  29.1869988  12.5610012  98.2814997  29.8509988
  12.7520012  97.9954997  28.3769988  13.0787145  98.1474905  29.1684517
   5.9880012 101.7394997  19.9729988   5.4450012 101.3594997  19.2809988
   6.8210012 101.9334997  19.5439988   6.0264399 101.7138124  19.8204526
  16.5250012 113.8224997  35.4639988  16.7250012 114.2464997  34.6289988
  17.1800012 114.1654997  36.0709988  16.6410051 113.9269648  35.4317836
   4.1230012 106.2964997  35.0719988   4.8550012 106.5504997  35.6329988
   3.3430012 106.5004997  35.5869988   4.1178232 106.3589177  35.2185760
  10.1520012 101.7034997  27.8099988  10.7170012 101.1564997  27.2629988
  10.0050012 101.1814997  28.5979988  10.2092918 101.5582024  27.8418454
   5.1540012  97.8394997  24.2279988   4.8370012  96.9374997  24.1929988
   5.9360012  97.8414997  23.6749988   5.2162284  97.7161628  24.1484783
   8.7790012 100.0914997  30.2239988   7.9430012 100.5454997  30.3339988
   9.3030012 100.3674997  30.9759988   8.7354414 100.1909376  30.3407136
   9.3230012 106.3044997  21.9079988   8.5780012 105.7974997  21.5859988
   9.1890012 106.3534997  22.8549988   9.2028776 106.2416940  21.9918647
  16.4730012 105.4374997  30.6949988  17.1150012 105.8944997  30.1509988
  15.6430012 105.5504997  30.2319988  16.4485963 105.5152704  30.5580177
  13.2210012  99.1184997  20.1079988  12.2820012  99.2304997  19.9559988
  13.5180012  99.9754997  20.4139988  13.1327666  99.2496443  20.1285768
  10.8420012 106.4884997  33.1449988  10.4970012 106.1074997  33.9519988
  10.6420012 107.4224997  33.2169988  10.7678061 106.5625228  33.2650961
  13.9390012 100.9854997  21.7679988  14.8310012 100.8484997  22.0869988
  13.9960012 101.7764997  21.2319988  14.0686285 101.0736660  21.7391691
   4.4480012 105.5994997  27.6779988   5.1930012 105.5974997  27.0769988
   4.5260012 104.7764997  28.1599988   4.5605518 105.4879315  27.6608929
  11.4490012 107.7634997  20.9339988  11.1530012 108.5894997  21.3149988
  10.7460012 107.1434997  21.1299988  11.3134914 107.7928199  21.0126443
   1.4560012 104.0604997  32.9929988   1.6790012 103.6424997  33.8249988
   0.8540012 103.4474997  32.5699988   1.4051759 103.9204668  33.0497022
   8.4720012 103.5774997  35.2059988   8.1760012 103.4114997  34.3109988
   9.4040012 103.3574997  35.1949988   8.5574166 103.5250640  35.0820536
  13.0930012 108.9504997  33.0959988  12.1920012 109.1334997  32.8279988
  13.1270012 109.2094997  34.0169988  12.9743041 109.0105512  33.1838197
  18.8240012 101.1954997  21.4629988  18.2700012 100.7994997  20.7909988
  18.9240012 102.1054997  21.1849988  18.7617059 101.2643586  21.3334401
  18.7870012 106.9954997  34.2999988  17.9360012 107.2334997  33.9329988
  19.3780012 106.9784997  33.5469988  18.7502487 107.0258258  34.1478893
  17.1190012 109.9814997  21.9279988  16.7460012 109.1554997  22.2369988
  17.3970012 109.7984997  21.0309988  17.1055630 109.8437303  21.8489626
  14.2800012 104.7894997  28.9489988  13.3510012 104.5574997  28.9219988
  14.7310012 104.0124997  28.6189988  14.2139216 104.6527238  28.9006917
   6.8230012 109.1174997  25.0819988   7.3500012 109.8904997  24.8819988
   5.9430012 109.3424997  24.7809988   6.7761773 109.2538005  25.0139010
   2.5780012 103.9794997  19.6689988   3.1940012 104.6064997  20.0489988
   1.7160012 104.2954997  19.9409988   2.5457698 104.1079430  19.7577183
   8.2500012 106.7804997  24.6589988   8.0090012 107.7054997  24.6999988
   7.5090012 106.3214997  25.0549988   8.1168409 106.8451421  24.7181377
   8.7650012 110.9294997  30.9739988   9.1270012 111.7844997  30.7399988
   9.2960012 110.6374997  31.7139988   8.8864473 111.0071060  31.0420855
   6.9330012 111.8024997  24.2039988   5.9830012 111.9074997  24.2549988
   7.2850012 112.6224997  24.5489988   6.8504203 111.9278314  24.2576650
  12.3090012 107.0284997  30.6739988  11.8830012 106.8014997  31.5009988
  12.8890012 106.2904997  30.4919988  12.3291868 106.8975299  30.7625830
  14.5120012 107.9574997  19.7479988  14.8650012 107.5774997  20.5529988
  13.5630012 107.8644997  19.8349988  14.4320441 107.8929596  19.8698559
  14.9670012 111.5804997  33.1439988  14.3660012 111.0254997  32.6479988
  15.2490012 112.2474997  32.5179988  14.9228519 111.5946841  32.9914952
  19.0150012 112.4374997  19.9489988  19.7590012 113.0234997  19.8089988
  18.3210012 113.0054997  20.2829988  19.0230292 112.5945582  19.9749961
   3.0900012  98.8134997  32.5509988   2.1970012  99.1524997  32.4829988
   2.9910012  97.9584997  32.9689988   2.9544164  98.7442588  32.5982235
  15.3780012 106.6304997  21.9749988  15.1000012 105.9024997  22.5309988
  16.3050012 106.7494997  22.1799988  15.4653124 106.5468802  22.0788845
   2.7410012 110.6184997  30.9859988   2.9580012 109.6864997  30.9549988
   2.9870012 110.8924997  31.8689988   2.8039549 110.5280636  31.1011763
   8.6030012 109.0694997  18.1949988   8.8420012 108.3214997  17.6479988
   8.3340012 108.6814997  19.0279988   8.5993675 108.9146638  18.2326865
   7.5400012 108.6394997  20.6519988   7.6860012 108.1194997  21.4419988
   7.5370012 109.5464997  20.9579988   7.5595989 108.6908853  20.8016088
   3.9930012 105.8924997  21.1619988   3.3070012 106.2444997  21.7289988
   4.5150012 106.6554997  20.9149988   3.9696852 106.0438578  21.2062118
  11.8240012  98.5544997  31.4409988  12.5230012  98.6284997  32.0909988
  11.4430012  97.6904997  31.5949988  11.8681767  98.4477624  31.5508322
  12.6090012  98.2064997  22.5379988  12.8290012  98.6784997  21.7349988
  13.1670012  98.6014997  23.2079988  12.7144968  98.3244285  22.5187331
  10.2770012 110.3374997  21.4009988   9.4610012 110.8344997  21.4529988
  10.8070012 110.8124997  20.7609988  10.2369161 110.4697722  21.3215956
   9.8090012  99.9344997  23.3729988  10.6210012 100.4394997  23.4189988
   9.5640012  99.7894997  24.2869988   9.8870520  99.9840375  23.5028517
  10.3440012 100.9204997  32.5579988  10.4630012 101.4944997  33.3149988
  11.0000012 100.2324997  32.6719988  10.4489757 100.9061079  32.6770825
  10.6920012  97.0154997  24.3109988  10.3460012  97.6334997  24.9559988
  11.3510012  97.5164997  23.8299988  10.7337826  97.1675802  24.3340971
   7.6160012 111.3814997  21.3829988   7.7760012 112.1804997  20.8819988
   7.4180012 111.6874997  22.2679988   7.6111649 111.5324469  21.4339815
   6.3500012  98.0784997  20.9979988   6.2670012  98.9674997  21.3449988
   7.2400012  97.8134997  21.2299988   6.4589469  98.1641430  21.0767626
  16.5490012  98.8274997  33.3929988  15.6320012  99.0904997  33.3049988
  16.8840012  98.8244997  32.4959988  16.4689900  98.8630224  33.2597919
  15.1510012 102.5784997  27.4879988  14.3530012 102.1634997  27.1599988
  15.5960012 101.8874997  27.9789988  15.1019885 102.4283543  27.5094889
   4.6090012 108.5064997  20.0589988   5.2010012 109.2054997  20.3349988
   5.0680012 108.0734997  19.3389988   4.7521142 108.5437049  19.9994830
   2.9250012 101.1704997  19.1749988   2.8800012 102.1094997  19.3529988
   2.0370012 100.9344997  18.9049988   2.7988574 101.2671892  19.1628912
  16.2370012 111.8344997  29.1109988  16.0820012 112.5124997  28.4539988
  17.1700012 111.9064997  29.3139988  16.3418500 111.9370170  29.0485119
   3.7330012  95.9524997  27.8479988   3.5040012  96.0114997  26.9199988
   3.2900012  95.1604997  28.1539988   3.6418530  95.8535753  27.7624786
   2.6630012 109.8924997  24.0079988   1.8310012 110.3654997  24.0359988
   3.2090012 110.4024997  23.4099988   2.6229739 110.0261871  23.9309716
   1.9510012 112.5054997  35.3379988   2.4920012 112.2884997  36.0979988
   1.4700012 111.6994997  35.1489988   1.9599345 112.3669514  35.4163076
   6.5490012 111.4244997  36.9589988   7.3160012 110.9654997  37.2999988
   6.5270012 111.1984997  36.0289988   6.6511434 111.3310409  36.8800043
  10.6410012 110.9324997  18.3339988   9.9970012 110.3014997  18.6549988
  11.4030012 110.4014997  18.1019988  10.6558077 110.7742920  18.3466011
  13.1260012 109.8044997  35.6879988  12.7750012 108.9484997  35.9309988
  13.8520012 109.9474997  36.2949988  13.1760769 109.7065636  35.8033619
  15.2450012 110.7494997  18.5679988  15.5280012 109.9554997  19.0199988
  15.9850012 110.9824997  18.0069988  15.3837486 110.6722803  18.5540698
   1.8580012 106.3154997  36.2929988   2.0020012 105.4134997  36.0059988
   1.0860012 106.6014997  35.8049988   1.7733322 106.2308261  36.1877881
   6.2000012 106.6594997  18.4249988   6.2640012 105.8654997  18.9559988
   6.8530012 106.5404997  17.7349988   6.2970241 106.5347148  18.4044317
   8.5140012 106.2854997  35.7249988   8.1850012 106.5564997  34.8679988
   8.6660012 105.3444997  35.6379988   8.4894809 106.1953862  35.5958244
  11.5520012 107.7064997  18.1609988  11.2830012 107.8864997  19.0619988
  11.3460012 106.7804997  18.0299988  11.4873825 107.6060152  18.2665214
  14.2480012 106.2014997  33.1089988  14.9940012 106.7894997  32.9889988
  13.4910012 106.7834997  33.1719988  14.2477554 106.3607011  33.1010907
   2.6910012 103.5154997  35.7129988   3.0990012 102.6584997  35.5919988
   2.4310012 103.5304997  36.6339988   2.7117568 103.4000807  35.8209588
   7.3490012 104.6314997  20.7309988   6.8890012 104.1474997  21.4169988
   7.6040012 103.9634997  20.0949988   7.3204902 104.4748731  20.7389334
   6.6380012 102.5244997  33.0869988   6.0200012 103.1994997  33.3669988
   6.9820012 102.8454997  32.2539988   6.5999615 102.6602721  33.0126581
   8.4200012 102.8744997  18.9929988   8.2400012 102.7204997  18.0659988
   9.3700012 102.9824997  19.0379988   8.5237776 102.8680175  18.8721843
  11.6580012 104.9964997  36.3639988  12.6110012 105.0794997  36.3369988
  11.4970012 104.2844997  36.9839988  11.7666426 104.9116746  36.4440579
  17.8100012 105.2294997  18.4389988  17.5360012 104.8044997  17.6259988
  17.8490012 106.1604997  18.2219988  17.7777699 105.2972484  18.2983610
   6.9770012  99.8794997  34.1689988   7.1270012  99.1504997  33.5669988
   6.9800012 100.6564997  33.6099988   6.9979302  99.8847851  34.0110692
   7.3900012  98.2494997  31.6619988   7.9260012  98.7004997  31.0099988
   6.5380012  98.1414997  31.2389988   7.3482178  98.2966390  31.5155756
   8.9720012 103.6884997  31.9009988   9.7220012 103.5324997  31.3279988
   8.6330012 104.5404997  31.6259988   9.0288921 103.7822968  31.7853561
  13.3870012 101.5034997  36.9299988  13.5800012 100.5724997  36.8179988
  14.2450012 101.9284997  36.9199988  13.5293020 101.4336389  36.9133361
  14.7040012 104.2924997  35.0069988  14.4230012 105.0014997  34.4299988
  15.6470012 104.2194997  34.8559988  14.7929027 104.3797646  34.9075551
   5.4560012 101.0774997  36.0809988   4.6890012 100.5454997  35.8709988
   6.1350012 100.7674997  35.4809988   5.4427022 100.9627506  35.9711648
   8.1960012  95.7054997  32.0929988   8.0970012  96.6524997  31.9879988
   7.4530012  95.3334997  31.6179988   8.0820563  95.7845902  32.0144560
   9.4600012 100.0274997  35.6569988   9.2240012  99.8074997  36.5589988
   8.6760012  99.8204997  35.1469988   9.3218628  99.9694760  35.7113932
  12.1750012  99.1544997  34.7329988  11.2280012  99.1864997  34.8649988
  12.4880012  98.5294997  35.3859988  12.0875475  99.0743207  34.8394455
  13.8090012  97.7884997  36.7379988  13.7130012  96.8364997  36.7319988
  13.4880012  98.0574997  37.5979988  13.7524070  97.6944035  36.8535441
   3.6360012  98.9984997  35.7849988   3.8480012  98.2914997  35.1749988
   3.5250012  98.5604997  36.6289988   3.6499721  98.8427084  35.8156843
   8.4170012  94.9994997  34.7649988   9.1290012  94.3594997  34.7509988
   8.3160012  95.2664997  33.8509988   8.5007939  94.9479938  34.6395650
   8.7710012  96.6824997  36.8179988   8.6390012  96.2064997  35.9979988
   8.1720012  97.4264997  36.7629988   8.6719071  96.7179618  36.6982886
   8.3170012 113.5654997  19.9949988   9.2500012 113.7234997  20.1379988
   8.0530012 114.2404997  19.3699988   8.4089510 113.6783611  19.9300741
   1.8860012 108.2014997  19.4769988   2.8000012 108.2804997  19.7509988
   1.8930012 107.5144997  18.8109988   2.0121131 108.1193961  19.4244393
   0.5350012 113.5944997  24.5549988  -0.1119988 113.1324997  24.0219988
   0.8890012 112.9224997  25.1369988   0.4943849 113.4404723  24.5607959
   1.4050012 111.6754997  26.3589988   1.0700012 110.7954997  26.5309988
   1.6270012 112.0204997  27.2239988   1.3891783 111.6017501  26.4994208
  18.9530012 112.4844997  29.3399988  18.9320012 112.6694997  30.2789988
  19.6440012 113.0534997  28.9989988  19.0434618 112.5866606  29.4223864
  18.5170012 112.0524997  32.2619988  18.0290012 111.3164997  31.8909988
  19.0660012 111.6584997  32.9399988  18.5244872 111.8986249  32.3029160
  16.9670012 107.8414997  36.8999988  16.1010012 107.7364997  37.2939988
  17.3440012 108.6004997  37.3459988  16.8993308 107.9296900  37.0142393
  18.2680012 106.0984997  22.4139988  19.1180012 106.5194997  22.5409988
  18.2740012 105.3584997  23.0209988  18.3851372 106.0560803  22.5134344
  18.6630012 104.1514997  24.2379988  17.9360012 103.6724997  24.6349988
  19.2440012 104.3574997  24.9699988  18.6419375 104.1137090  24.3914129
  18.4220012 106.9364997  29.1849988  19.2550012 106.5584997  28.9049988
  18.5340012 107.8794997  29.0659988  18.5512647 107.0122218  29.1305487
  16.9080012 109.8144997  31.4919988  16.2610012 110.1394997  32.1179988
  16.3910012 109.3744997  30.8179988  16.7494029 109.7995004  31.4865827
  18.9310012 104.0524997  20.6289988  18.4090012 104.4094997  19.9099988
  18.8980012 104.7274997  21.3069988  18.8551634 104.1925413  20.6223145
  17.2800012 101.2924997  19.1799988  17.3760012 101.9594997  18.4989988
  17.1400012 100.4764997  18.6979988  17.2742135 101.2734500  19.0218491
  16.4490012 102.6724997  24.8009988  16.2990012 101.7274997  24.7799988
  16.0960012 102.9534997  25.6439988  16.3806625 102.5810441  24.9122346
   1.4850012 104.7504997  28.8109988   1.6690012 104.6684997  27.8749988
   2.3340012 104.6264997  29.2349988   1.6250139 104.7225003  28.7401455
  17.3060012 104.6424997  34.4389988  17.8890012 103.9084997  34.6309988
  17.8700012 105.4144997  34.4859988  17.4619769 104.6464227  34.4716159
  18.8020012 102.5454997  35.1239988  17.9390012 102.1664997  34.9579988
  19.4070012 101.8064997  35.0499988  18.7655979 102.3938023  35.0912817
  16.5270012  98.7004997  18.2969988  17.1380012  98.3294997  18.9339988
  15.6910012  98.2794997  18.4929988  16.4975032  98.5927554  18.4107035
  16.1600012 100.2554997  23.2629988  16.4400012  99.3484997  23.3869988
  16.9190012 100.6894997  22.8739988  16.3009277 100.1900942  23.2273682
  16.7720012 100.8364997  28.6989988  17.7050012 101.0484997  28.6649988
  16.5370012 100.9384997  29.6209988  16.8678036 100.8792769  28.8189976
  16.8010012 101.5734997  31.4749988  15.9580012 101.8414997  31.8409988
  17.2430012 102.3954997  31.2639988  16.7454158 101.7213291  31.4965491
   1.0820012 100.0214997  34.9519988   2.0020012  99.8994997  35.1879988
   0.6330012  99.2714997  35.3409988   1.1471580  99.9033727  35.0369006
  19.0840012  95.5534997  36.8279988  19.4340012  94.8994997  36.2229988
  19.2310012  96.3904997  36.3889988  19.1518419  95.5771591  36.6857118
  16.7730012  97.5184997  23.3109988  16.9560012  97.0694997  24.1369988
  16.1740012  96.9334997  22.8479988  16.7170202  97.3779975  23.3613275
   2.3030012  98.3334997  27.8429988   2.7490012  97.5414997  28.1449988
   2.7700012  99.0494997  28.2739988   2.4270172  98.3220624  27.9424820
   0.6070012 101.3324997  28.9119988   1.0990012 101.1114997  28.1209988
   0.9700012 102.1734997  29.1929988   0.7233126 101.4158357  28.8417531
  18.6040012  97.6624997  35.1779988  17.6860012  97.9334997  35.1419988
  18.7270012  97.1274997  34.3929988  18.4951066  97.6272892  35.0670487
  18.6400012  97.5854997  19.8389988  19.0520012  96.8644997  19.3639988
  19.3220012  98.2554997  19.8979988  18.7885885  97.5772368  19.7818915
   0.9210012  97.5904997  22.9659988  -0.0039988  97.7994997  22.8369988
   1.3750012  98.0744997  22.2769988   0.8557368  97.6845993  22.8551226
  15.6920012 112.5744997  24.9119988  16.3440012 112.2274997  24.3039988
  16.2020012 113.0634997  25.5579988  15.8502637 112.5930597  24.9160236
   0.8850012  96.3284997  31.3109988   0.2200012  96.0824997  31.9539988
   0.4420012  96.9504997  30.7329988   0.7340956  96.3788632  31.3209352
   3.0770012 109.5034997  35.4549988   2.2560012 109.6784997  34.9949988
   2.8240012 109.4304997  36.3759988   2.9306164 109.5175622  35.5164923
   6.0310012 110.4784997  31.7139988   5.6060012 111.2874997  31.4309988
   6.9350012 110.5634997  31.4119988   6.0950271 110.6008469  31.6343776
  10.3420012 111.8774997  34.6729988  10.5270012 111.5434997  35.5509988
  11.1880012 112.1864997  34.3509988  10.4817539 111.8736047  34.7495605
  12.6870012 113.1634997  33.9169988  13.3640012 112.5304997  33.6769988
  13.0090012 113.5644997  34.7239988  12.8231637 113.1311154  33.9932793
  17.6040012  95.7524997  32.9969988  16.7920012  96.0774997  32.6089988
  17.8370012  94.9924997  32.4639988  17.5243423  95.6942436  32.8718253
   3.4330012 113.7344997  31.7609988   2.7120012 114.1744997  31.3099988
   3.0670012 113.4834997  32.6099988   3.2849804 113.7607698  31.8139840
   5.9000012 113.3344997  30.7909988   5.0350012 113.4064997  31.1949988
   5.8450012 113.8814997  30.0069988   5.7742085 113.4182685  30.7403362
  10.6100012 113.2224997  29.9659988  10.1540012 113.7514997  29.3119988
  10.7730012 113.8254997  30.6919988  10.5695585 113.3764468  29.9745062
  12.9380012 112.1004997  30.9109988  12.0330012 112.2654997  30.6459988
  13.3670012 112.9534997  30.8459988  12.8720799 112.2384483  30.8659182
  15.5420012 113.6704997  31.2059988  15.3600012 114.5864997  30.9959988
  15.7190012 113.2604997  30.3599988  15.5410210 113.7404822  31.0627885
   2.8470012 112.3574997  28.6709988   2.8290012 111.9324997  29.5289988
   3.6520012 112.0394997  28.2629988   2.9533875 112.2563812  28.7331655
   4.9890012 111.0674997  27.3259988   4.7700012 110.1514997  27.4959988
   5.8130012 111.2074997  27.7919988   5.0704420 110.9610520  27.4122774
   7.5260012 111.5374997  28.1749988   7.7390012 110.6494997  27.8879988
   7.5900012 111.5034997  29.1289988   7.5638232 111.4113102  28.2647397
  11.0340012  97.2014997  27.3189988  10.3600012  96.5724997  27.5749988
  11.5980012  96.7174997  26.7159988  11.0179230  97.0498744  27.2725340
  16.1770012  95.3094997  27.4319988  16.7810012  95.8564997  26.9299988
  15.3070012  95.6284997  27.1919988  16.1421241  95.4275806  27.3307654
  17.9040012  96.4474997  25.7649988  18.5160012  95.9334997  25.2389988
  18.2860012  97.3254997  25.7889988  18.0394540  96.4957140  25.6961830
   3.3610012  95.8354997  25.1409988   2.5840012  95.6014997  24.6339988
   3.8910012  95.0384997  25.1499988   3.3262330  95.6956988  25.0727742
   2.1970012  95.6334997  20.9449988   2.6360012  96.2444997  20.3529988
   1.5640012  96.1714997  21.4189988   2.1714514  95.7899257  20.9280930
   7.9400012  95.7624997  24.9549988   8.8150012  96.1504997  24.9249988
   7.8040012  95.5474997  25.8769988   8.0413695  95.7865184  25.0756440
  13.4970012  95.7924997  26.6039988  13.5730012  95.8874997  25.6539988
  13.2220012  94.8844997  26.7329988  13.4702321  95.6827867  26.4915079
  14.8500012  95.8184997  22.2959988  14.1480012  96.4334997  22.0869988
  14.4060012  94.9804997  22.4269988  14.6936330  95.7895783  22.2850328
   2.0980012 111.5814997  21.8429988   1.4130012 111.5434997  21.1749988
   2.1020012 112.4944997  22.1309988   2.0048193 111.6997016  21.7905284
   4.0580012  97.5494997  19.3869988   4.5500012  96.9194997  18.8599988
   4.6820012  97.8454997  20.0509988   4.2095446  97.5033199  19.4045980
   9.0840012  97.8424997  21.8439988   9.2620012  97.1964997  22.5269988
   9.0310012  98.6764997  22.3119988   9.1011829  97.8667985  22.0005940
  10.9630012 112.7914997  20.2399988  11.8290012 113.1574997  20.0619988
  10.7160012 112.3514997  19.4259988  11.0482392 112.7821756  20.1056289
  17.6720012 112.3544997  22.9189988  17.4770012 111.6064997  22.3539988
  17.6330012 113.1124997  22.3359988  17.6400380 112.3546099  22.7628384
   3.3190012  96.3494997  34.6589988   2.9530012  95.5844997  35.1019988
   4.2320012  96.3784997  34.9459988   3.3922790  96.2487224  34.7584070
   5.2920012  95.7004997  36.1949988   6.1900012  95.4264997  36.0099988
   4.9050012  94.9574997  36.6589988   5.3626612  95.5625914  36.2323643
   3.9160012 112.5014997  18.8679988   3.6490012 112.7884997  19.7409988
   4.6880012 111.9554997  19.0199988   3.9837488 112.4670294  19.0081050
  13.7130012  95.0324997  36.3769988  13.7900012  94.6064997  37.2309988
  14.6070012  95.0464997  36.0339988  13.8443428  94.9760879  36.4475310
  16.8890012 111.1054997  35.0689988  16.1070012 110.9194997  34.5499988
  16.8170012 112.0344997  35.2869988  16.7721777 111.2056492  35.0274048
  31.2950012 104.9914997  25.0999988  31.3840012 105.9354997  24.9679988
  30.6570012 104.7164997  24.4419988  31.2209081 105.0834830  24.9929614
  30.2280012 104.2464997  28.5189988  30.1900012 103.6004997  29.2239988
  29.9060012 103.7804997  27.7479988  30.1792333 104.0949408  28.5112978
  22.5970012 103.8614997  30.1119988  22.6380012 103.2354997  30.8349988
  23.3000012 104.4854997  30.2939988  22.6976363 103.8601196  30.2356044
  33.9340012 107.1854997  26.8199988  33.4940012 106.4654997  27.2709988
  33.9210012 107.9064997  27.4499988  33.8720226 107.1843731  26.9668494
  23.5200012 108.3114997  28.6469988  23.1510012 107.5094997  28.2769988
  24.4610012 108.1424997  28.6929988  23.5967289 108.1790153  28.6026316
  20.1300012 101.9714997  24.0399988  19.6830012 102.8174997  24.0209988
  19.5690012 101.3914997  23.5239988  19.9929900 102.0089916  23.9676801
  20.8410012 104.1334997  26.1659988  21.0540012 103.3634997  26.6929988
  21.5790012 104.2224997  25.5619988  20.9698496 104.0401394  26.1565300
  31.0460012 112.2904997  27.0329988  31.6660012 111.6134997  26.7589988
  30.8380012 112.0724997  27.9409988  31.1026904 112.1683870  27.1183365
  28.6180012 106.6794997  28.9249988  28.9220012 105.9934997  28.3299988
  29.3390012 106.7974997  29.5429988  28.7570671 106.6016305  28.9271816
  37.2810012  98.2804997  29.7859988  37.3300012  98.8904997  30.5219988
  37.7060012  98.7414997  29.0629988  37.3451824  98.4263741  29.7890205
  31.7590012 101.0734997  29.2529988  31.9010012 100.1274997  29.2729988
  31.6520012 101.2804997  28.3239988  31.7639864 100.9719534  29.1302339
  24.9130012  99.1744997  26.5249988  24.9570012 100.0344997  26.1069988
  24.4560012  98.6224997  25.8909988  24.8572185  99.2175799  26.3820299
  32.6360012  99.3054997  24.9259988  33.2820012  98.9764997  25.5509988
  33.1460012  99.8234997  24.3029988  32.7934264  99.3304611  24.9273862
  21.5340012 101.5714997  27.2869988  22.1870012 101.0214997  27.7189988
  21.5580012 101.2974997  26.3699988  21.6266683 101.4591466  27.2222123
  26.6900012 103.1214997  26.5019988  27.3060012 102.5954997  27.0119988
  26.1040012 102.4814997  26.0989988  26.6950810 102.9629208  26.5173173
  37.6720012  99.7584997  32.0219988  36.9840012 100.4164997  31.9259988
  37.6880012  99.5614997  32.9579988  37.5798525  99.8220462  32.1354808
  23.7240012  98.0924997  30.5989988  23.5050012  98.6224997  29.8329988
  23.0560012  98.3194997  31.2459988  23.6037600  98.1956906  30.5816379
  31.0930012 107.5924997  24.1429988  30.7970012 107.2704997  23.2919988
  30.7680012 108.4924997  24.1839988  31.0086371 107.6700215  24.0321801
  26.2930012 105.7684997  30.8859988  25.5530012 106.3664997  30.9899988
  27.0070012 106.3224997  30.5709988  26.2882237 105.9252831  30.8576465
  34.4000012  98.5964997  26.9059988  34.1840012  97.8304997  27.4389988
  35.0550012  99.0684997  27.4189988  34.4590632  98.5555889  27.0482861
  23.3170012  99.9844997  28.5509988  23.9310012 100.6174997  28.9249988
  23.8290012  99.5124997  27.8949988  23.4702296 100.0072370  28.5134252
  24.7000012 107.7324997  31.6739988  24.6950012 108.6124997  31.2959988
  23.8470012 107.6494997  32.0989988  24.5839464 107.8416117  31.6797907
  20.8210012 107.4034997  22.4559988  20.5490012 107.6324997  21.5669988
  20.8670012 108.2414997  22.9159988  20.7900094 107.5481213  22.3965697
  34.4460012 109.0254997  29.1679988  33.5050012 109.0834997  29.3299988
  34.7230012 109.9314997  29.0309988  34.3544679 109.1559443  29.1716815
  34.7470012  97.3114997  30.5859988  34.0110012  97.9224997  30.5479988
  35.4300012  97.7264997  30.0589988  34.7386541  97.4511374  30.5095832
  27.7500012  95.3984997  28.0519988  27.6330012  94.4494997  27.9969988
  26.8950012  95.7304997  28.3249988  27.6183733  95.3135409  28.0813897
  32.6980012 110.8064997  25.7939988  33.1240012 110.0994997  25.3089988
  33.0150012 111.6074997  25.3769988  32.7991019 110.8180994  25.6713130
  33.8580012 108.7074997  24.3019988  33.6000012 108.0174997  23.6909988
  33.9290012 108.2644997  25.1479988  33.8322856 108.5532124  24.3326885
  35.5440012 107.2734997  32.7799988  35.6840012 106.6824997  32.0399988
  35.7110012 108.1464997  32.4229988  35.5856778 107.3106426  32.6306965
  30.0170012 104.2354997  22.5519988  29.3050012 104.7704997  22.1999988
  30.7080012 104.2914997  21.8919988  30.0130132 104.3162543  22.4146289
  30.0700012 102.6934997  19.5909988  30.7710012 102.7154997  20.2419988
  30.3730012 102.0654997  18.9349988  30.2067830 102.6116566  19.5913711
  37.3860012 103.6134997  30.8459988  36.7330012 104.3084997  30.9349988
  37.8510012 103.8234997  30.0359988  37.3595390 103.7369425  30.7486883
  33.4220012 104.4454997  23.5039988  32.6900012 104.6734997  24.0769988
  33.8700012 103.7314997  23.9589988  33.3823095 104.3802571  23.6439119
  33.3200012 102.6194997  32.5709988  33.4000012 103.3824997  33.1429988
  32.7180012 102.8984997  31.8809988  33.2495756 102.7617134  32.5560589
  25.0680012 105.0754997  25.3859988  24.7370012 104.7054997  24.5679988
  25.6560012 104.4054997  25.7329988  25.1021873 104.9341156  25.3208102
  26.4340012 108.5034997  28.0679988  26.3400012 107.9254997  27.3109988
  27.1640012 108.1324997  28.5639988  26.5197981 108.3742390  28.0314165
  25.4340012 103.8444997  29.0199988  26.0000012 103.9654997  28.2569988
  25.7530012 104.4814997  29.6589988  25.5545786 103.9471884  29.0020040
  31.7430012 109.3474997  29.7539988  31.5030012 110.0094997  30.4019988
  31.5450012 108.5134997  30.1789988  31.6833808 109.3253134  29.9001524
  26.3140012 108.2434997  33.7369988  26.0030012 109.0254997  34.1919988
  25.6640012 108.0904997  33.0509988  26.1835558 108.3299105  33.7065871
  32.2930012 103.6074997  21.1889988  32.8730012 103.7574997  21.9359988
  32.7070012 104.0784997  20.4659988  32.4282830 103.6916841  21.1934134
  23.2340012 104.4414997  32.9659988  23.3050012 105.0924997  33.6639988
  22.3440012 104.5444997  32.6309988  23.1233117 104.5445936  33.0162700
  30.0200012 110.3444997  24.6239988  30.4940012 110.6394997  25.4019988
  29.4570012 111.0824997  24.3909988  30.0087653 110.4846932  24.6990136
  24.5540012 110.3154997  34.4999988  24.5610012 110.1794997  33.5529988
  23.6380012 110.1974997  34.7519988  24.4311714 110.2809430  34.4044666
  35.9920012  95.3574997  21.0019988  35.0920012  95.4964997  21.2969988
  36.2440012  96.1884997  20.5999988  35.9028702  95.4889074  20.9880205
  24.0580012 104.1454997  22.9759988  23.7660012 104.9134997  22.4849988
  23.3840012 103.4854997  22.8129988  23.9269081 104.1614406  22.8867340
  37.1810012 109.7234997  19.3779988  37.2550012 110.6624997  19.5489988
  38.0870012 109.4184997  19.3219988  37.3135100 109.8106722  19.3938119
  20.1510012 106.5084997  31.7909988  19.6500012 106.4804997  30.9759988
  20.1560012 105.6024997  32.0999988  20.0831526 106.3822278  31.7212872
  19.9010012 109.2884997  28.6749988  20.8470012 109.1444997  28.6559988
  19.7890012 110.0724997  29.2119988  20.0152727 109.3748046  28.7450072
  38.0990012 109.9544997  34.3569988  38.0500012 108.9994997  34.3199988
  37.2720012 110.2224997  34.7579988  37.9804940 109.8598998  34.4061375
  29.0780012 109.5284997  33.2329988  29.1650012 110.3544997  33.7079988
  28.2140012 109.1984997  33.4819988  28.9731964 109.5969878  33.3316549
  29.4920012 113.3004997  23.0389988  29.4170012 113.1794997  22.0929988
  29.5250012 114.2504997  23.1579988  29.4861848 113.4122500  22.9254834
  23.1450012 112.0894997  24.8199988  23.2980012 111.7414997  25.6989988
  22.2950012 111.7334997  24.5649988  23.0508962 111.9936650  24.9058340
  32.5940012 112.4544997  20.0409988  32.9690012 111.7104997  19.5709988
  32.5980012 112.1844997  20.9599988  32.6458915 112.3161486  20.1007824
  32.2630012 112.3804997  22.7909988  31.3270012 112.4804997  22.9689988
  32.5430012 111.6714997  23.3689988  32.1728255 112.2982711  22.8935391
  35.2510012 101.4474997  34.8369988  34.8440012 101.9284997  34.1159988
  35.2920012 100.5424997  34.5289988  35.2008437 101.3909374  34.6966683
  22.4000012 107.8314997  32.8339988  22.6160012 107.4704997  33.6929988
  21.5450012 107.4574997  32.6239988  22.3139292 107.7314111  32.9233386
  25.0190012  96.3014997  28.8289988  24.1570012  96.2144997  28.4219988
  24.9960012  97.1574997  29.2569988  24.8980330  96.4052765  28.8311863
  29.6820012  96.0234997  32.2039988  30.1020012  95.6084997  32.9569988
  28.7490012  95.8454997  32.3209988  29.6133644  95.9425900  32.3229539
  33.0080012  99.7794997  33.0569988  32.4940012  99.6534997  33.8549988
  32.8530012 100.6914997  32.8129988  32.9166852  99.8856132  33.1332158
  33.7710012 104.6404997  18.8189988  33.8130012 104.4174997  17.8889988
  34.6200012 105.0394997  19.0089988  33.8915396 104.6639155  18.7173627
  29.3430012  98.5164997  19.4889988  29.0900012  98.5354997  20.4119988
  29.0870012  97.6444997  19.1879988  29.2737790  98.4012437  19.5746263
  25.1100012 101.2674997  29.9239988  24.4680012 101.2264997  30.6329988
  25.1470012 102.1934997  29.6869988  25.0271324 101.3871559  29.9889824
  25.1070012 101.4884997  24.8359988  24.2140012 101.1474997  24.7779988
  25.5570012 101.1114997  24.0809988  25.0457305 101.3908484  24.7259177
  30.6420012 101.9044997  23.6529988  30.2330012 102.7194997  23.3619988
  31.3630012 101.7644997  23.0389988  30.6834537 101.9972018  23.5301342
  29.7440012 102.0794997  35.1409988  29.1820012 101.3754997  35.4619988
  30.5710012 101.9594997  35.6089988  29.7787095 101.9667883  35.2482330
  31.6470012 101.3504997  26.4669988  31.4520012 101.9554997  25.7519988
  31.8280012 100.5164997  26.0329988  31.6447614 101.3206300  26.3104405
  22.8600012 101.5874997  31.7909988  22.8220012 101.9874997  32.6599988
  22.3690012 100.7704997  31.8819988  22.7884684 101.5318069  31.9221059
  26.2260012  98.9614997  18.5899988  25.7950012  98.5164997  19.3199988
  25.5080012  99.3334997  18.0779988  26.0699438  98.9508940  18.6206799
  19.4680012  98.7034997  25.6419988  20.0990012  98.6744997  26.3609988
  19.9170012  98.2784997  24.9119988  19.6150774  98.6420492  25.6416553
  20.7420012  99.4494997  21.0659988  21.2160012 100.0404997  20.4809988
  20.0250012  99.9804997  21.4129988  20.7099341  99.6020867  21.0328836
  30.9110012 102.9884997  31.1389988  31.2340012 102.3574997  30.4959988
  30.4710012 102.4534997  31.7989988  30.8956895 102.8298441  31.1402850
  27.6880012  98.9154997  25.9229988  26.7770012  98.9724997  26.2109988
  28.1940012  98.8554997  26.7329988  27.6315413  98.9151985  26.0720622
  22.5170012 100.5444997  24.7489988  21.6270012 100.6444997  24.4089988
  22.8130012  99.7024997  24.4029988  22.4352823 100.4443545  24.6557213
  26.1700012 100.5444997  22.4059988  27.1010012 100.6734997  22.5839988
  25.9550012 101.2144997  21.7559988  26.2684247 100.6526565  22.3425747
  32.0930012  98.1504997  29.1869988  31.4170012  98.2814997  29.8509988
  31.6080012  97.9954997  28.3769988  31.9347145  98.1474905  29.1684517
  24.8440012 101.7394997  19.9729988  24.3010012 101.3594997  19.2809988
  25.6770012 101.9334997  19.5439988  24.8824399 101.7138124  19.8204526
  35.3810012 113.8224997  35.4639988  35.5810012 114.2464997  34.6289988
  36.0360012 114.1654997  36.0709988  35.4970051 113.9269648  35.4317836
  22.9790012 106.2964997  35.0719988  23.7110012 106.5504997  35.6329988
  22.1990012 106.5004997  35.5869988  22.9738232 106.3589177  35.2185760
  29.0080012 101.7034997  27.8099988  29.5730012 101.1564997  27.2629988
  28.8610012 101.1814997  28.5979988  29.0652918 101.5582024  27.8418454
  24.0100012  97.8394997  24.2279988  23.6930012  96.9374997  24.1929988
  24.7920012  97.8414997  23.6749988  24.0722284  97.7161628  24.1484783
  27.6350012 100.0914997  30.2239988  26.7990012 100.5454997  30.3339988
  28.1590012 100.3674997  30.9759988  27.5914414 100.1909376  30.3407136
  28.1790012 106.3044997  21.9079988  27.4340012 105.7974997  21.5859988
  28.0450012 106.3534997  22.8549988  28.0588776 106.2416940  21.9918647
  35.3290012 105.4374997  30.6949988  35.9710012 105.8944997  30.1509988
  34.4990012 105.5504997  30.2319988  35.3045963 105.5152704  30.5580177
  32.0770012  99.1184997  20.1079988  31.1380012  99.2304997  19.9559988
  32.3740012  99.9754997  20.4139988  31.9887666  99.2496443  20.1285768
  29.6980012 106.4884997  33.1449988  29.3530012 106.1074997  33.9519988
  29.4980012 107.4224997  33.2169988  29.6238061 106.5625228  33.2650961
  32.7950012 100.9854997  21.7679988  33.6870012 100.8484997  22.0869988
  32.8520012 101.7764997  21.2319988  32.9246285 101.0736660  21.7391691
  23.3040012 105.5994997  27.6779988  24.0490012 105.5974997  27.0769988
  23.3820012 104.7764997  28.1599988  23.4165518 105.4879315  27.6608929
  30.3050012 107.7634997  20.9339988  30.0090012 108.5894997  21.3149988
  29.6020012 107.1434997  21.1299988  30.1694914 107.7928199  21.0126443
  20.3120012 104.0604997  32.9929988  20.5350012 103.6424997  33.8249988
  19.7100012 103.4474997  32.5699988  20.2611759 103.9204668  33.0497022
  27.3280012 103.5774997  35.2059988  27.0320012 103.4114997  34.3109988
  28.2600012 103.3574997  35.1949988  27.4134166 103.5250640  35.0820536
  31.9490012 108.9504997  33.0959988  31.0480012 109.1334997  32.8279988
  31.9830012 109.2094997  34.0169988  31.8303041 109.0105512  33.1838197
  37.6800012 101.1954997  21.4629988  37.1260012 100.7994997  20.7909988
  37.7800012 102.1054997  21.1849988  37.6177059 101.2643586  21.3334401
  37.6430012 106.9954997  34.2999988  36.7920012 107.2334997  33.9329988
  38.2340012 106.9784997  33.5469988  37.6062487 107.0258258  34.1478893
  35.9750012 109.9814997  21.9279988  35.6020012 109.1554997  22.2369988
  36.2530012 109.7984997  21.0309988  35.9615630 109.8437303  21.8489626
  33.1360012 104.7894997  28.9489988  32.2070012 104.5574997  28.9219988
  33.5870012 104.0124997  28.6189988  33.0699216 104.6527238  28.9006917
  25.6790012 109.1174997  25.0819988  26.2060012 109.8904997  24.8819988
  24.7990012 109.3424997  24.7809988  25.6321773 109.2538005  25.0139010
  21.4340012 103.9794997  19.6689988  22.0500012 104.6064997  20.0489988
  20.5720012 104.2954997  19.9409988  21.4017698 104.1079430  19.7577183
  27.1060012 106.7804997  24.6589988  26.8650012 107.7054997  24.6999988
  26.3650012 106.3214997  25.0549988  26.9728409 106.8451421  24.7181377
  27.6210012 110.9294997  30.9739988  27.9830012 111.7844997  30.7399988
  28.1520012 110.6374997  31.7139988  27.7424473 111.0071060  31.0420855
  25.7890012 111.8024997  24.2039988  24.8390012 111.9074997  24.2549988
  26.1410012 112.6224997  24.5489988  25.7064203 111.9278314  24.2576650
  31.1650012 107.0284997  30.6739988  30.7390012 106.8014997  31.5009988
  31.7450012 106.2904997  30.4919988  31.1851868 106.8975299  30.7625830
  33.3680012 107.9574997  19.7479988  33.7210012 107.5774997  20.5529988
  32.4190012 107.8644997  19.8349988  33.2880441 107.8929596  19.8698559
  33.8230012 111.5804997  33.1439988  33.2220012 111.0254997  32.6479988
  34.1050012 112.2474997  32.5179988  33.7788519 111.5946841  32.9914952
  37.8710012 112.4374997  19.9489988  38.6150012 113.0234997  19.8089988
  37.1770012 113.0054997  20.2829988  37.8790292 112.5945582  19.9749961
  21.9460012  98.8134997  32.5509988  21.0530012  99.1524997  32.4829988
  21.8470012  97.9584997  32.9689988  21.8104164  98.7442588  32.5982235
  34.2340012 106.6304997  21.9749988  33.9560012 105.9024997  22.5309988
  35.1610012 106.7494997  22.1799988  34.3213124 106.5468802  22.0788845
  21.5970012 110.6184997  30.9859988  21.8140012 109.6864997  30.9549988
  21.8430012 110.8924997  31.8689988  21.6599549 110.5280636  31.1011763
  27.4590012 109.0694997  18.1949988  27.6980012 108.3214997  17.6479988
  27.1900012 108.6814997  19.0279988  27.4553675 108.9146638  18.2326865
  26.3960012 108.6394997  20.6519988  26.5420012 108.1194997  21.4419988
  26.3930012 109.5464997  20.9579988  26.4155989 108.6908853  20.8016088
  22.8490012 105.8924997  21.1619988  22.1630012 106.2444997  21.7289988
  23.3710012 106.6554997  20.9149988  22.8256852 106.0438578  21.2062118
  30.6800012  98.5544997  31.4409988  31.3790012  98.6284997  32.0909988
  30.2990012  97.6904997  31.5949988  30.7241767  98.4477624  31.5508322
  31.4650012  98.2064997  22.5379988  31.6850012  98.6784997  21.7349988
  32.0230012  98.6014997  23.2079988  31.5704968  98.3244285  22.5187331
  29.1330012 110.3374997  21.4009988  28.3170012 110.8344997  21.4529988
  29.6630012 110.8124997  20.7609988  29.0929161 110.4697722  21.3215956
  28.6650012  99.9344997  23.3729988  29.4770012 100.4394997  23.4189988
  28.4200012  99.7894997  24.2869988  28.7430520  99.9840375  23.5028517
  29.2000012 100.9204997  32.5579988  29.3190012 101.4944997  33.3149988
  29.8560012 100.2324997  32.6719988  29.3049757 100.9061079  32.6770825
  29.5480012  97.0154997  24.3109988  29.2020012  97.6334997  24.9559988
  30.2070012  97.5164997  23.8299988  29.5897826  97.1675802  24.3340971
  26.4720012 111.3814997  21.3829988  26.6320012 112.1804997  20.8819988
  26.2740012 111.6874997  22.2679988  26.4671649 111.5324469  21.4339815
  25.2060012  98.0784997  20.9979988  25.1230012  98.9674997  21.3449988
  26.0960012  97.8134997  21.2299988  25.3149469  98.1641430  21.0767626
  35.4050012  98.8274997  33.3929988  34.4880012  99.0904997  33.3049988
  35.7400012  98.8244997  32.4959988  35.3249900  98.8630224  33.2597919
  34.0070012 102.5784997  27.4879988  33.2090012 102.1634997  27.1599988
  34.4520012 101.8874997  27.9789988  33.9579885 102.4283543  27.5094889
  23.4650012 108.5064997  20.0589988  24.0570012 109.2054997  20.3349988
  23.9240012 108.0734997  19.3389988  23.6081142 108.5437049  19.9994830
  21.7810012 101.1704997  19.1749988  21.7360012 102.1094997  19.3529988
  20.8930012 100.9344997  18.9049988  21.6548574 101.2671892  19.1628912
  35.0930012 111.8344997  29.1109988  34.9380012 112.5124997  28.4539988
  36.0260012 111.9064997  29.3139988  35.1978500 111.9370170  29.0485119
  22.5890012  95.9524997  27.8479988  22.3600012  96.0114997  26.9199988
  22.1460012  95.1604997  28.1539988  22.4978530  95.8535753  27.7624786
  21.5190012 109.8924997  24.0079988  20.6870012 110.3654997  24.0359988
  22.0650012 110.4024997  23.4099988  21.4789739 110.0261871  23.9309716
  20.8070012 112.5054997  35.3379988  21.3480012 112.2884997  36.0979988
  20.3260012 111.6994997  35.1489988  20.8159345 112.3669514  35.4163076
  25.4050012 111.4244997  36.9589988  26.1720012 110.9654997  37.2999988
  25.3830012 111.1984997  36.0289988  25.5071434 111.3310409  36.8800043
  29.4970012 110.9324997  18.3339988  28.8530012 110.3014997  18.6549988
  30.2590012 110.4014997  18.1019988  29.5118077 110.7742920  18.3466011
  31.9820012 109.8044997  35.6879988  31.6310012 108.9484997  35.9309988
  32.7080012 109.9474997  36.2949988  32.0320769 109.7065636  35.8033619
  34.1010012 110.7494997  18.5679988  34.3840012 109.9554997  19.0199988
  34.8410012 110.9824997  18.0069988  34.2397486 110.6722803  18.5540698
  20.7140012 106.3154997  36.2929988  20.8580012 105.4134997  36.0059988
  19.9420012 106.6014997  35.8049988  20.6293322 106.2308261  36.1877881
  25.0560012 106.6594997  18.4249988  25.1200012 105.8654997  18.9559988
  25.7090012 106.5404997  17.7349988  25.1530241 106.5347148  18.4044317
  27.3700012 106.2854997  35.7249988  27.0410012 106.5564997  34.8679988
  27.5220012 105.3444997  35.6379988  27.3454809 106.1953862  35.5958244
  30.4080012 107.7064997  18.1609988  30.1390012 107.8864997  19.0619988
  30.2020012 106.7804997  18.0299988  30.3433825 107.6060152  18.2665214
  33.1040012 106.2014997  33.1089988  33.8500012 106.7894997  32.9889988
  32.3470012 106.7834997  33.1719988  33.1037554 106.3607011  33.1010907
  21.5470012 103.5154997  35.7129988  21.9550012 102.6584997  35.5919988
  21.2870012 103.5304997  36.6339988  21.5677568 103.4000807  35.8209588
  26.2050012 104.6314997  20.7309988  25.7450012 104.1474997  21.4169988
  26.4600012 103.9634997  20.0949988  26.1764902 104.4748731  20.7389334
  25.4940012 102.5244997  33.0869988  24.8760012 103.1994997  33.3669988
  25.8380012 102.8454997  32.2539988  25.4559615 102.6602721  33.0126581
  27.2760012 102.8744997  18.9929988  27.0960012 102.7204997  18.0659988
  28.2260012 102.9824997  19.0379988  27.3797776 102.8680175  18.8721843
  30.5140012 104.9964997  36.3639988  31.4670012 105.0794997  36.3369988
  30.3530012 104.2844997  36.9839988  30.6226426 104.9116746  36.4440579
  36.6660012 105.2294997  18.4389988  36.3920012 104.8044997  17.6259988
  36.7050012 106.1604997  18.2219988  36.6337699 105.2972484  18.2983610
  25.8330012  99.8794997  34.1689988  25.9830012  99.1504997  33.5669988
  25.8360012 100.6564997  33.6099988  25.8539302  99.8847851  34.0110692
  26.2460012  98.2494997  31.6619988  26.7820012  98.7004997  31.0099988
  25.3940012  98.1414997  31.2389988  26.2042178  98.2966390  31.5155756
  27.8280012 103.6884997  31.9009988  28.5780012 103.5324997  31.3279988
  27.4890012 104.5404997  31.6259988  27.8848921 103.7822968  31.7853561
  32.2430012 101.5034997  36.9299988  32.4360012 100.5724997  36.8179988
  33.1010012 101.9284997  36.9199988  32.3853020 101.4336389  36.9133361
  33.5600012 104.2924997  35.0069988  33.2790012 105.0014997  34.4299988
  34.5030012 104.2194997  34.8559988  33.6489027 104.3797646  34.9075551
  24.3120012 101.0774997  36.0809988  23.5450012 100.5454997  35.8709988
  24.9910012 100.7674997  35.4809988  24.2987022 100.9627506  35.9711648
  27.0520012  95.7054997  32.0929988  26.9530012  96.6524997  31.9879988
  26.3090012  95.3334997  31.6179988  26.9380563  95.7845902  32.0144560
  28.3160012 100.0274997  35.6569988  28.0800012  99.8074997  36.5589988
  27.5320012  99.8204997  35.1469988  28.1778628  99.9694760  35.7113932
  31.0310012  99.1544997  34.7329988  30.0840012  99.1864997  34.8649988
  31.3440012  98.5294997  35.3859988  30.9435475  99.0743207  34.8394455
  32.6650012  97.7884997  36.7379988  32.5690012  96.8364997  36.7319988
  32.3440012  98.0574997  37.5979988  32.6084070  97.6944035  36.8535441
  22.4920012  98.9984997  35.7849988  22.7040012  98.2914997  35.1749988
  22.3810012  98.5604997  36.6289988  22.5059721  98.8427084  35.8156843
  27.2730012  94.9994997  34.7649988  27.9850012  94.3594997  34.7509988
  27.1720012  95.2664997  33.8509988  27.3567939  94.9479938  34.6395650
  27.6270012  96.6824997  36.8179988  27.4950012  96.2064997  35.9979988
  27.0280012  97.4264997  36.7629988  27.5279071  96.7179618  36.6982886
  27.1730012 113.5654997  19.9949988  28.1060012 113.7234997  20.1379988
  26.9090012 114.2404997  19.3699988  27.2649510 113.6783611  19.9300741
  20.7420012 108.2014997  19.4769988  21.6560012 108.2804997  19.7509988
  20.7490012 107.5144997  18.8109988  20.8681131 108.1193961  19.4244393
  19.3910012 113.5944997  24.5549988  18.7440012 113.1324997  24.0219988
  19.7450012 112.9224997  25.1369988  19.3503849 113.4404723  24.5607959
  20.2610012 111.6754997  26.3589988  19.9260012 110.7954997  26.5309988
  20.4830012 112.0204997  27.2239988  20.2451783 111.6017500  26.4994208
  37.8090012 112.4844997  29.3399988  37.7880012 112.6694997  30.2789988
  38.5000012 113.0534997  28.9989988  37.8994618 112.5866606  29.4223864
  37.3730012 112.0524997  32.2619988  36.8850012 111.3164997  31.8909988
  37.9220012 111.6584997  32.9399988  37.3804872 111.8986249  32.3029160
  35.8230012 107.8414997  36.8999988  34.9570012 107.7364997  37.2939988
  36.2000012 108.6004997  37.3459988  35.7553308 107.9296900  37.0142393
  37.1240012 106.0984997  22.4139988  37.9740012 106.5194997  22.5409988
  37.1300012 105.3584997  23.0209988  37.2411372 106.0560803  22.5134344
  37.5190012 104.1514997  24.2379988  36.7920012 103.6724997  24.6349988
  38.1000012 104.3574997  24.9699988  37.4979375 104.1137090  24.3914129
  37.2780012 106.9364997  29.1849988  38.1110012 106.5584997  28.9049988
  37.3900012 107.8794997  29.0659988  37.4072647 107.0122218  29.1305487
  35.7640012 109.8144997  31.4919988  35.1170012 110.1394997  32.1179988
  35.2470012 109.3744997  30.8179988  35.6054029 109.7995004  31.4865827
  37.7870012 104.0524997  20.6289988  37.2650012 104.4094997  19.9099988
  37.7540012 104.7274997  21.3069988  37.7111634 104.1925413  20.6223145
  36.1360012 101.2924997  19.1799988  36.2320012 101.9594997  18.4989988
  35.9960012 100.4764997  18.6979988  36.1302135 101.2734500  19.0218491
  35.3050012 102.6724997  24.8009988  35.1550012 101.7274997  24.7799988
  34.9520012 102.9534997  25.6439988  35.2366625 102.5810441  24.9122346
  20.3410012 104.7504997  28.8109988  20.5250012 104.6684997  27.8749988
  21.1900012 104.6264997  29.2349988  20.4810139 104.7225003  28.7401455
  36.1620012 104.6424997  34.4389988  36.7450012 103.9084997  34.6309988
  36.7260012 105.4144997  34.4859988  36.3179769 104.6464227  34.4716159
  37.6580012 102.5454997  35.1239988  36.7950012 102.1664997  34.9579988
  38.2630012 101.8064997  35.0499988  37.6215979 102.3938023  35.0912817
  35.3830012  98.7004997  18.2969988  35.9940012  98.3294997  18.9339988
  34.5470012  98.2794997  18.4929988  35.3535032  98.5927554  18.4107035
  35.0160012 100.2554997  23.2629988  35.2960012  99.3484997  23.3869988
  35.7750012 100.6894997  22.8739988  35.1569277 100.1900942  23.2273682
  35.6280012 100.8364997  28.6989988  36.5610012 101.0484997  28.6649988
  35.3930012 100.9384997  29.6209988  35.7238036 100.8792769  28.8189976
  35.6570012 101.5734997  31.4749988  34.8140012 101.8414997  31.8409988
  36.0990012 102.3954997  31.2639988  35.6014158 101.7213291  31.4965491
  19.9380012 100.0214997  34.9519988  20.8580012  99.8994997  35.1879988
  19.4890012  99.2714997  35.3409988  20.0031580  99.9033727  35.0369006
  37.9400012  95.5534997  36.8279988  38.2900012  94.8994997  36.2229988
  38.0870012  96.3904997  36.3889988  38.0078419  95.5771591  36.6857118
  35.6290012  97.5184997  23.3109988  35.8120012  97.0694997  24.1369988
  35.0300012  96.9334997  22.8479988  35.5730202  97.3779975  23.3613275
  21.1590012  98.3334997  27.8429988  21.6050012  97.5414997  28.1449988
  21.6260012  99.0494997  28.2739988  21.2830172  98.3220624  27.9424820
  19.4630012 101.3324997  28.9119988  19.9550012 101.1114997  28.1209988
  19.8260012 102.1734997  29.1929988  19.5793126 101.4158357  28.8417531
  37.4600012  97.6624997  35.1779988  36.5420012  97.9334997  35.1419988
  37.5830012  97.1274997  34.3929988  37.3511066  97.6272892  35.0670487
  37.4960012  97.5854997  19.8389988  37.9080012  96.8644997  19.3639988
  38.1780012  98.2554997  19.8979988  37.6445885  97.5772368  19.7818915
  19.7770012  97.5904997  22.9659988  18.8520012  97.7994997  22.8369988
  20.2310012  98.0744997  22.2769988  19.7117368  97.6845993  22.8551226
  34.5480012 112.5744997  24.9119988  35.2000012 112.2274997  24.3039988
  35.0580012 113.0634997  25.5579988  34.7062637 112.5930597  24.9160236
  19.7410012  96.3284997  31.3109988  19.0760012  96.0824997  31.9539988
  19.2980012  96.9504997  30.7329988  19.5900956  96.3788632  31.3209352
  21.9330012 109.5034997  35.4549988  21.1120012 109.6784997  34.9949988
  21.6800012 109.4304997  36.3759988  21.7866164 109.5175622  35.5164923
  24.8870012 110.4784997  31.7139988  24.4620012 111.2874997  31.4309988
  25.7910012 110.5634997  31.4119988  24.9510271 110.6008469  31.6343776
  29.1980012 111.8774997  34.6729988  29.3830012 111.5434997  35.5509988
  30.0440012 112.1864997  34.3509988  29.3377539 111.8736047  34.7495605
  31.5430012 113.1634997  33.9169988  32.2200012 112.5304997  33.6769988
  31.8650012 113.5644997  34.7239988  31.6791637 113.1311154  33.9932793
  36.4600012  95.7524997  32.9969988  35.6480012  96.0774997  32.6089988
  36.6930012  94.9924997  32.4639988  36.3803423  95.6942436  32.8718253
  22.2890012 113.7344997  31.7609988  21.5680012 114.1744997  31.3099988
  21.9230012 113.4834997  32.6099988  22.1409804 113.7607698  31.8139840
  24.7560012 113.3344997  30.7909988  23.8910012 113.4064997  31.1949988
  24.7010012 113.8814997  30.0069988  24.6302085 113.4182685  30.7403362
  29.4660012 113.2224997  29.9659988  29.0100012 113.7514997  29.3119988
  29.6290012 113.8254997  30.6919988  29.4255585 113.3764468  29.9745062
  31.7940012 112.1004997  30.9109988  30.8890012 112.2654997  30.6459988
  32.2230012 112.9534997  30.8459988  31.7280799 112.2384483  30.8659182
  34.3980012 113.6704997  31.2059988  34.2160012 114.5864997  30.9959988
  34.5750012 113.2604997  30.3599988  34.3970210 113.7404822  31.0627885
  21.7030012 112.3574997  28.6709988  21.6850012 111.9324997  29.5289988
  22.5080012 112.0394997  28.2629988  21.8093875 112.2563812  28.7331655
  23.8450012 111.0674997  27.3259988  23.6260012 110.1514997  27.4959988
  24.6690012 111.2074997  27.7919988  23.9264420 110.9610520  27.4122773
  26.3820012 111.5374997  28.1749988  26.5950012 110.6494997  27.8879988
  26.4460012 111.5034997  29.1289988  26.4198231 111.4113102  28.2647397
  29.8900012  97.2014997  27.3189988  29.2160012  96.5724997  27.5749988
  30.4540012  96.7174997  26.7159988  29.8739230  97.0498744  27.2725340
  35.0330012  95.3094997  27.4319988  35.6370012  95.8564997  26.9299988
  34.1630012  95.6284997  27.1919988  34.9981241  95.4275806  27.3307654
  36.7600012  96.4474997  25.7649988  37.3720012  95.9334997  25.2389988
  37.1420012  97.3254997  25.7889988  36.8954540  96.4957140  25.6961830
  22.2170012  95.8354997  25.1409988  21.4400012  95.6014997  24.6339988
  22.7470012  95.0384997  25.1499988  22.1822330  95.6956988  25.0727742
  21.0530012  95.6334997  20.9449988  21.4920012  96.2444997  20.3529988
  20.4200012  96.1714997  21.4189988  21.0274514  95.7899257  20.9280930
  26.7960012  95.7624997  24.9549988  27.6710012  96.1504997  24.9249988
  26.6600012  95.5474997  25.8769988  26.8973695  95.7865184  25.0756440
  32.3530012  95.7924997  26.6039988  32.4290012  95.8874997  25.6539988
  32.0780012  94.8844997  26.7329988  32.3262321  95.6827867  26.4915079
  33.7060012  95.8184997  22.2959988  33.0040012  96.4334997  22.0869988
  33.2620012  94.9804997  22.4269988  33.5496330  95.7895783  22.2850328
  20.9540012 111.5814997  21.8429988  20.2690012 111.5434997  21.1749988
  20.9580012 112.4944997  22.1309988  20.8608193 111.6997016  21.7905284
  22.9140012  97.5494997  19.3869988  23.4060012  96.9194997  18.8599988
  23.5380012  97.8454997  20.0509988  23.0655446  97.5033199  19.4045980
  27.9400012  97.8424997  21.8439988  28.1180012  97.1964997  22.5269988
  27.8870012  98.6764997  22.3119988  27.9571829  97.8667985  22.0005940
  29.8190012 112.7914997  20.2399988  30.6850012 113.1574997  20.0619988
  29.5720012 112.3514997  19.4259988  29.9042392 112.7821756  20.1056289
  36.5280012 112.3544997  22.9189988  36.3330012 111.6064997  22.3539988
  36.4890012 113.1124997  22.3359988  36.4960380 112.3546099  22.7628384
  22.1750012  96.3494997  34.6589988  21.8090012  95.5844997  35.1019988
  23.0880012  96.3784997  34.9459988  22.2482790  96.2487224  34.7584070
  24.1480012  95.7004997  36.1949988  25.0460012  95.4264997  36.0099988
  23.7610012  94.9574997  36.6589988  24.2186612  95.5625914  36.2323643
  22.7720012 112.5014997  18.8679988  22.5050012 112.7884997  19.7409988
  23.5440012 111.9554997  19.0199988  22.8397488 112.4670294  19.0081050
  32.5690012  95.0324997  36.3769988  32.6460012  94.6064997  37.2309988
  33.4630012  95.0464997  36.0339988  32.7003428  94.9760879  36.4475310
  35.7450012 111.1054997  35.0689988  34.9630012 110.9194997  34.5499988
  35.6730012 112.0344997  35.2869988  35.6281777 111.2056492  35.0274048
  50.1510012 104.9914997  25.0999988  50.2400012 105.9354997  24.9679988
  49.5130012 104.7164997  24.4419988  50.0769081 105.0834830  24.9929614
  49.0840012 104.2464997  28.5189988  49.0460012 103.6004997  29.2239988
  48.7620012 103.7804997  27.7479988  49.0352333 104.0949408  28.5112978
  41.4530012 103.8614997  30.1119988  41.4940012 103.2354997  30.8349988
  42.1560012 104.4854997  30.2939988  41.5536363 103.8601196  30.2356044
  52.7900012 107.1854997  26.8199988  52.3500012 106.4654997  27.2709988
  52.7770012 107.9064997  27.4499988  52.7280226 107.1843731  26.9668494
  42.3760012 108.3114997  28.6469988  42.0070012 107.5094997  28.2769988
  43.3170012 108.1424997  28.6929988  42.4527289 108.1790153  28.6026316
  38.9860012 101.9714997  24.0399988  38.5390012 102.8174997  24.0209988
  38.4250012 101.3914997  23.5239988  38.8489900 102.0089916  23.9676801
  39.6970012 104.1334997  26.1659988  39.9100012 103.3634997  26.6929988
  40.4350012 104.2224997  25.5619988  39.8258496 104.0401394  26.1565300
  49.9020012 112.2904997  27.0329988  50.5220012 111.6134997  26.7589988
  49.6940012 112.0724997  27.9409988  49.9586904 112.1683870  27.1183365
  47.4740012 106.6794997  28.9249988  47.7780012 105.9934997  28.3299988
  48.1950012 106.7974997  29.5429988  47.6130671 106.6016304  28.9271816
  56.1370012  98.2804997  29.7859988  56.1860012  98.8904997  30.5219988
  56.5620012  98.7414997  29.0629988  56.2011824  98.4263741  29.7890205
  50.6150012 101.0734997  29.2529988  50.7570012 100.1274997  29.2729988
  50.5080012 101.2804997  28.3239988  50.6199863 100.9719534  29.1302339
  43.7690012  99.1744997  26.5249988  43.8130012 100.0344997  26.1069988
  43.3120012  98.6224997  25.8909988  43.7132185  99.2175799  26.3820299
  51.4920012  99.3054997  24.9259988  52.1380012  98.9764997  25.5509988
  52.0020012  99.8234997  24.3029988  51.6494264  99.3304611  24.9273862
  40.3900012 101.5714997  27.2869988  41.0430012 101.0214997  27.7189988
  40.4140012 101.2974997  26.3699988  40.4826683 101.4591466  27.2222123
  45.5460012 103.1214997  26.5019988  46.1620012 102.5954997  27.0119988
  44.9600012 102.4814997  26.0989988  45.5510810 102.9629208  26.5173173
  56.5280012  99.7584997  32.0219988  55.8400012 100.4164997  31.9259988
  56.5440012  99.5614997  32.9579988  56.4358525  99.8220462  32.1354808
  42.5800012  98.0924997  30.5989988  42.3610012  98.6224997  29.8329988
  41.9120012  98.3194997  31.2459988  42.4597600  98.1956906  30.5816379
  49.9490012 107.5924997  24.1429988  49.6530012 107.2704997  23.2919988
  49.6240012 108.4924997  24.1839988  49.8646371 107.6700215  24.0321801
  45.1490012 105.7684997  30.8859988  44.4090012 106.3664997  30.9899988
  45.8630012 106.3224997  30.5709988  45.1442237 105.9252831  30.8576465
  53.2560012  98.5964997  26.9059988  53.0400012  97.8304997  27.4389988
  53.9110012  99.0684997  27.4189988  53.3150632  98.5555889  27.0482861
  42.1730012  99.9844997  28.5509988  42.7870012 100.6174997  28.9249988
  42.6850012  99.5124997  27.8949988  42.3262296 100.0072370  28.5134252
  43.5560012 107.7324997  31.6739988  43.5510012 108.6124997  31.2959988
  42.7030012 107.6494997  32.0989988  43.4399464 107.8416117  31.6797907
  39.6770012 107.4034997  22.4559988  39.4050012 107.6324997  21.5669988
  39.7230012 108.2414997  22.9159988  39.6460094 107.5481213  22.3965697
  53.3020012 109.0254997  29.1679988  52.3610012 109.0834997  29.3299988
  53.5790012 109.9314997  29.0309988  53.2104679 109.1559443  29.1716815
  53.6030012  97.3114997  30.5859988  52.8670012  97.9224997  30.5479988
  54.2860012  97.7264997  30.0589988  53.5946541  97.4511374  30.5095832
  46.6060012  95.3984997  28.0519988  46.4890012  94.4494997  27.9969988
  45.7510012  95.7304997  28.3249988  46.4743733  95.3135409  28.0813897
  51.5540012 110.8064997  25.7939988  51.9800012 110.0994997  25.3089988
  51.8710012 111.6074997  25.3769988  51.6551019 110.8180994  25.6713130
  52.7140012 108.7074997  24.3019988  52.4560012 108.0174997  23.6909988
  52.7850012 108.2644997  25.1479988  52.6882856 108.5532124  24.3326885
  54.4000012 107.2734997  32.7799988  54.5400012 106.6824997  32.0399988
  54.5670012 108.1464997  32.4229988  54.4416778 107.3106426  32.6306965
  48.8730012 104.2354997  22.5519988  48.1610012 104.7704997  22.1999988
  49.5640012 104.2914997  21.8919988  48.8690132 104.3162543  22.4146289
  48.9260012 102.6934997  19.5909988  49.6270012 102.7154997  20.2419988
  49.2290012 102.0654997  18.9349988  49.0627830 102.6116566  19.5913711
  56.2420012 103.6134997  30.8459988  55.5890012 104.3084997  30.9349988
  56.7070012 103.8234997  30.0359988  56.2155390 103.7369425  30.7486883
  52.2780012 104.4454997  23.5039988  51.5460012 104.6734997  24.0769988
  52.7260012 103.7314997  23.9589988  52.2383095 104.3802571  23.6439119
  52.1760012 102.6194997  32.5709988  52.2560012 103.3824997  33.1429988
  51.5740012 102.8984997  31.8809988  52.1055756 102.7617134  32.5560589
  43.9240012 105.0754997  25.3859988  43.5930012 104.7054997  24.5679988
  44.5120012 104.4054997  25.7329988  43.9581873 104.9341156  25.3208102
  45.2900012 108.5034997  28.0679988  45.1960012 107.9254997  27.3109988
  46.0200012 108.1324997  28.5639988  45.3757981 108.3742390  28.0314165
  44.2900012 103.8444997  29.0199988  44.8560012 103.9654997  28.2569988
  44.6090012 104.4814997  29.6589988  44.4105786 103.9471884  29.0020040
  50.5990012 109.3474997  29.7539988  50.3590012 110.0094997  30.4019988
  50.4010012 108.5134997  30.1789988  50.5393808 109.3253134  29.9001524
  45.1700012 108.2434997  33.7369988  44.8590012 109.0254997  34.1919988
  44.5200012 108.0904997  33.0509988  45.0395558 108.3299105  33.7065871
  51.1490012 103.6074997  21.1889988  51.7290012 103.7574997  21.9359988
  51.5630012 104.0784997  20.4659988  51.2842830 103.6916841  21.1934134
  42.0900012 104.4414997  32.9659988  42.1610012 105.0924997  33.6639988
  41.2000012 104.5444997  32.6309988  41.9793117 104.5445936  33.0162700
  48.8760012 110.3444997  24.6239988  49.3500012 110.6394997  25.4019988
  48.3130012 111.0824997  24.3909988  48.8647653 110.4846932  24.6990136
  43.4100012 110.3154997  34.4999988  43.4170012 110.1794997  33.5529988
  42.4940012 110.1974997  34.7519988  43.2871714 110.2809430  34.4044666
  54.8480012  95.3574997  21.0019988  53.9480012  95.4964997  21.2969988
  55.1000012  96.1884997  20.5999988  54.7588702  95.4889074  20.9880205
  42.9140012 104.1454997  22.9759988  42.6220012 104.9134997  22.4849988
  42.2400012 103.4854997  22.8129988  42.7829081 104.1614406  22.8867340
  56.0370012 109.7234997  19.3779988  56.1110012 110.6624997  19.5489988
  56.9430012 109.4184997  19.3219988  56.1695100 109.8106722  19.3938119
  39.0070012 106.5084997  31.7909988  38.5060012 106.4804997  30.9759988
  39.0120012 105.6024997  32.0999988  38.9391526 106.3822278  31.7212872
  38.7570012 109.2884997  28.6749988  39.7030012 109.1444997  28.6559988
  38.6450012 110.0724997  29.2119988  38.8712727 109.3748046  28.7450072
  56.9550012 109.9544997  34.3569988  56.9060012 108.9994997  34.3199988
  56.1280012 110.2224997  34.7579988  56.8364940 109.8598998  34.4061375
  47.9340012 109.5284997  33.2329988  48.0210012 110.3544997  33.7079988
  47.0700012 109.1984997  33.4819988  47.8291964 109.5969878  33.3316549
  48.3480012 113.3004997  23.0389988  48.2730012 113.1794997  22.0929988
  48.3810012 114.2504997  23.1579988  48.3421848 113.4122500  22.9254834
  42.0010012 112.0894997  24.8199988  42.1540012 111.7414997  25.6989988
  41.1510012 111.7334997  24.5649988  41.9068962 111.9936650  24.9058340
  51.4500012 112.4544997  20.0409988  51.8250012 111.7104997  19.5709988
  51.4540012 112.1844997  20.9599988  51.5018915 112.3161486  20.1007824
  51.1190012 112.3804997  22.7909988  50.1830012 112.4804997  22.9689988
  51.3990012 111.6714997  23.3689988  51.0288255 112.2982711  22.8935391
  54.1070012 101.4474997  34.8369988  53.7000012 101.9284997  34.1159988
  54.1480012 100.5424997  34.5289988  54.0568437 101.3909374  34.6966683
  41.2560012 107.8314997  32.8339988  41.4720012 107.4704997  33.6929988
  40.4010012 107.4574997  32.6239988  41.1699292 107.7314111  32.9233386
  43.8750012  96.3014997  28.8289988  43.0130012  96.2144997  28.4219988
  43.8520012  97.1574997  29.2569988  43.7540330  96.4052765  28.8311863
  48.5380012  96.0234997  32.2039988  48.9580012  95.6084997  32.9569988
  47.6050012  95.8454997  32.3209988  48.4693644  95.9425900  32.3229539
  51.8640012  99.7794997  33.0569988  51.3500012  99.6534997  33.8549988
  51.7090012 100.6914997  32.8129988  51.7726852  99.8856132  33.1332158
  52.6270012 104.6404997  18.8189988  52.6690012 104.4174997  17.8889988
  53.4760012 105.0394997  19.0089988  52.7475396 104.6639155  18.7173627
  48.1990012  98.5164997  19.4889988  47.9460012  98.5354997  20.4119988
  47.9430012  97.6444997  19.1879988  48.1297790  98.4012437  19.5746263
  43.9660012 101.2674997  29.9239988  43.3240012 101.2264997  30.6329988
  44.0030012 102.1934997  29.6869988  43.8831324 101.3871559  29.9889824
  43.9630012 101.4884997  24.8359988  43.0700012 101.1474997  24.7779988
  44.4130012 101.1114997  24.0809988  43.9017305 101.3908484  24.7259177
  49.4980012 101.9044997  23.6529988  49.0890012 102.7194997  23.3619988
  50.2190012 101.7644997  23.0389988  49.5394537 101.9972018  23.5301342
  48.6000012 102.0794997  35.1409988  48.0380012 101.3754997  35.4619988
  49.4270012 101.9594997  35.6089988  48.6347095 101.9667883  35.2482330
  50.5030012 101.3504997  26.4669988  50.3080012 101.9554997  25.7519988
  50.6840012 100.5164997  26.0329988  50.5007614 101.3206300  26.3104405
  41.7160012 101.5874997  31.7909988  41.6780012 101.9874997  32.6599988
  41.2250012 100.7704997  31.8819988  41.6444684 101.5318069  31.9221059
  45.0820012  98.9614997  18.5899988  44.6510012  98.5164997  19.3199988
  44.3640012  99.3334997  18.0779988  44.9259438  98.9508940  18.6206799
  38.3240012  98.7034997  25.6419988  38.9550012  98.6744997  26.3609988
  38.7730012  98.2784997  24.9119988  38.4710774  98.6420492  25.6416553
  39.5980012  99.4494997  21.0659988  40.0720012 100.0404997  20.4809988
  38.8810012  99.9804997  21.4129988  39.5659341  99.6020867  21.0328836
  49.7670012 102.9884997  31.1389988  50.0900012 102.3574997  30.4959988
  49.3270012 102.4534997  31.7989988  49.7516895 102.8298441  31.1402850
  46.5440012  98.9154997  25.9229988  45.6330012  98.9724997  26.2109988
  47.0500012  98.8554997  26.7329988  46.4875413  98.9151985  26.0720622
  41.3730012 100.5444997  24.7489988  40.4830012 100.6444997  24.4089988
  41.6690012  99.7024997  24.4029988  41.2912823 100.4443545  24.6557213
  45.0260012 100.5444997  22.4059988  45.9570012 100.6734997  22.5839988
  44.8110012 101.2144997  21.7559988  45.1244247 100.6526565  22.3425747
  50.9490012  98.1504997  29.1869988  50.2730012  98.2814997  29.8509988
  50.4640012  97.9954997  28.3769988  50.7907145  98.1474905  29.1684517
  43.7000012 101.7394997  19.9729988  43.1570012 101.3594997  19.2809988
  44.5330012 101.9334997  19.5439988  43.7384399 101.7138124  19.8204526
  54.2370012 113.8224997  35.4639988  54.4370012 114.2464997  34.6289988
  54.8920012 114.1654997  36.0709988  54.3530051 113.9269648  35.4317836
  41.8350012 106.2964997  35.0719988  42.5670012 106.5504997  35.6329988
  41.0550012 106.5004997  35.5869988  41.8298232 106.3589177  35.2185760
  47.8640012 101.7034997  27.8099988  48.4290012 101.1564997  27.2629988
  47.7170012 101.1814997  28.5979988  47.9212918 101.5582024  27.8418454
  42.8660012  97.8394997  24.2279988  42.5490012  96.9374997  24.1929988
  43.6480012  97.8414997  23.6749988  42.9282284  97.7161628  24.1484783
  46.4910012 100.0914997  30.2239988  45.6550012 100.5454997  30.3339988
  47.0150012 100.3674997  30.9759988  46.4474414 100.1909376  30.3407136
  47.0350012 106.3044997  21.9079988  46.2900012 105.7974997  21.5859988
  46.9010012 106.3534997  22.8549988  46.9148776 106.2416940  21.9918647
  54.1850012 105.4374997  30.6949988  54.8270012 105.8944997  30.1509988
  53.3550012 105.5504997  30.2319988  54.1605963 105.5152704  30.5580177
  50.9330012  99.1184997  20.1079988  49.9940012  99.2304997  19.9559988
  51.2300012  99.9754997  20.4139988  50.8447666  99.2496443  20.1285768
  48.5540012 106.4884997  33.1449988  48.2090012 106.1074997  33.9519988
  48.3540012 107.4224997  33.2169988  48.4798061 106.5625228  33.2650961
  51.6510012 100.9854997  21.7679988  52.5430012 100.8484997  22.0869988
  51.7080012 101.7764997  21.2319988  51.7806285 101.0736660  21.7391691
  42.1600012 105.5994997  27.6779988  42.9050012 105.5974997  27.0769988
  42.2380012 104.7764997  28.1599988  42.2725518 105.4879315  27.6608929
  49.1610012 107.7634997  20.9339988  48.8650012 108.5894997  21.3149988
  48.4580012 107.1434997  21.1299988  49.0254914 107.7928199  21.0126443
  39.1680012 104.0604997  32.9929988  39.3910012 103.6424997  33.8249988
  38.5660012 103.4474997  32.5699988  39.1171759 103.9204668  33.0497022
  46.1840012 103.5774997  35.2059988  45.8880012 103.4114997  34.3109988
  47.1160012 103.3574997  35.1949988  46.2694166 103.5250640  35.0820536
  50.8050012 108.9504997  33.0959988  49.9040012 109.1334997  32.8279988
  50.8390012 109.2094997  34.0169988  50.6863041 109.0105512  33.1838197
  56.5360012 101.1954997  21.4629988  55.9820012 100.7994997  20.7909988
  56.6360012 102.1054997  21.1849988  56.4737059 101.2643586  21.3334401
  56.4990012 106.9954997  34.2999988  55.6480012 107.2334997  33.9329988
  57.0900012 106.9784997  33.5469988  56.4622487 107.0258258  34.1478893
  54.8310012 109.9814997  21.9279988  54.4580012 109.1554997  22.2369988
  55.1090012 109.7984997  21.0309988  54.8175630 109.8437303  21.8489626
  51.9920012 104.7894997  28.9489988  51.0630012 104.5574997  28.9219988
  52.4430012 104.0124997  28.6189988  51.9259216 104.6527238  28.9006917
  44.5350012 109.1174997  25.0819988  45.0620012 109.8904997  24.8819988
  43.6550012 109.3424997  24.7809988  44.4881773 109.2538005  25.0139010
  40.2900012 103.9794997  19.6689988  40.9060012 104.6064997  20.0489988
  39.4280012 104.2954997  19.9409988  40.2577698 104.1079430  19.7577183
  45.9620012 106.7804997  24.6589988  45.7210012 107.7054997  24.6999988
  45.2210012 106.3214997  25.0549988  45.8288409 106.8451421  24.7181377
  46.4770012 110.9294997  30.9739988  46.8390012 111.7844997  30.7399988
  47.0080012 110.6374997  31.7139988  46.5984473 111.0071060  31.0420855
  44.6450012 111.8024997  24.2039988  43.6950012 111.9074997  24.2549988
  44.9970012 112.6224997  24.5489988  44.5624203 111.9278314  24.2576650
  50.0210012 107.0284997  30.6739988  49.5950012 106.8014997  31.5009988
  50.6010012 106.2904997  30.4919988  50.0411868 106.8975299  30.7625830
  52.2240012 107.9574997  19.7479988  52.5770012 107.5774997  20.5529988
  51.2750012 107.8644997  19.8349988  52.1440441 107.8929596  19.8698559
  52.6790012 111.5804997  33.1439988  52.0780012 111.0254997  32.6479988
  52.9610012 112.2474997  32.5179988  52.6348519 111.5946841  32.9914952
  56.7270012 112.4374997  19.9489988  57.4710012 113.0234997  19.8089988
  56.0330012 113.0054997  20.2829988  56.7350292 112.5945582  19.9749961
  40.8020012  98.8134997  32.5509988  39.9090012  99.1524997  32.4829988
  40.7030012  97.9584997  32.9689988  40.6664164  98.7442588  32.5982235
  53.0900012 106.6304997  21.9749988  52.8120012 105.9024997  22.5309988
  54.0170012 106.7494997  22.1799988  53.1773124 106.5468802  22.0788845
  40.4530012 110.6184997  30.9859988  40.6700012 109.6864997  30.9549988
  40.6990012 110.8924997  31.8689988  40.5159549 110.5280636  31.1011763
  46.3150012 109.0694997  18.1949988  46.5540012 108.3214997  17.6479988
  46.0460012 108.6814997  19.0279988  46.3113675 108.9146638  18.2326865
  45.2520012 108.6394997  20.6519988  45.3980012 108.1194997  21.4419988
  45.2490012 109.5464997  20.9579988  45.2715989 108.6908853  20.8016088
  41.7050012 105.8924997  21.1619988  41.0190012 106.2444997  21.7289988
  42.2270012 106.6554997  20.9149988  41.6816852 106.0438578  21.2062118
  49.5360012  98.5544997  31.4409988  50.2350012  98.6284997  32.0909988
  49.1550012  97.6904997  31.5949988  49.5801767  98.4477624  31.5508322
  50.3210012  98.2064997  22.5379988  50.5410012  98.6784997  21.7349988
  50.8790012  98.6014997  23.2079988  50.4264968  98.3244285  22.5187331
  47.9890012 110.3374997  21.4009988  47.1730012 110.8344997  21.4529988
  48.5190012 110.8124997  20.7609988  47.9489161 110.4697722  21.3215956
  47.5210012  99.9344997  23.3729988  48.3330012 100.4394997  23.4189988
  47.2760012  99.7894997  24.2869988  47.5990520  99.9840375  23.5028517
  48.0560012 100.9204997  32.5579988  48.1750012 101.4944997  33.3149988
  48.7120012 100.2324997  32.6719988  48.1609757 100.9061079  32.6770825
  48.4040012  97.0154997  24.3109988  48.0580012  97.6334997  24.9559988
  49.0630012  97.5164997  23.8299988  48.4457826  97.1675802  24.3340971
  45.3280012 111.3814997  21.3829988  45.4880012 112.1804997  20.8819988
  45.1300012 111.6874997  22.2679988  45.3231649 111.5324469  21.4339815
  44.0620012  98.0784997  20.9979988  43.9790012  98.9674997  21.3449988
  44.9520012  97.8134997  21.2299988  44.1709469  98.1641430  21.0767626
  54.2610012  98.8274997  33.3929988  53.3440012  99.0904997  33.3049988
  54.5960012  98.8244997  32.4959988  54.1809900  98.8630224  33.2597919
  52.8630012 102.5784997  27.4879988  52.0650012 102.1634997  27.1599988
  53.3080012 101.8874997  27.9789988  52.8139885 102.4283543  27.5094889
  42.3210012 108.5064997  20.0589988  42.9130012 109.2054997  20.3349988
  42.7800012 108.0734997  19.3389988  42.4641142 108.5437049  19.9994830
  40.6370012 101.1704997  19.1749988  40.5920012 102.1094997  19.3529988
  39.7490012 100.9344997  18.9049988  40.5108574 101.2671892  19.1628912
  53.9490012 111.8344997  29.1109988  53.7940012 112.5124997  28.4539988
  54.8820012 111.9064997  29.3139988  54.0538500 111.9370170  29.0485119
  41.4450012  95.9524997  27.8479988  41.2160012  96.0114997  26.9199988
  41.0020012  95.1604997  28.1539988  41.3538530  95.8535753  27.7624786
  40.3750012 109.8924997  24.0079988  39.5430012 110.3654997  24.0359988
  40.9210012 110.4024997  23.4099988  40.3349739 110.0261871  23.9309716
  39.6630012 112.5054997  35.3379988  40.2040012 112.2884997  36.0979988
  39.1820012 111.6994997  35.1489988  39.6719345 112.3669514  35.4163076
  44.2610012 111.4244997  36.9589988  45.0280012 110.9654997  37.2999988
  44.2390012 111.1984997  36.0289988  44.3631434 111.3310409  36.8800043
  48.3530012 110.9324997  18.3339988  47.7090012 110.3014997  18.6549988
  49.1150012 110.4014997  18.1019988  48.3678077 110.7742920  18.3466011
  50.8380012 109.8044997  35.6879988  50.4870012 108.9484997  35.9309988
  51.5640012 109.9474997  36.2949988  50.8880769 109.7065636  35.8033619
  52.9570012 110.7494997  18.5679988  53.2400012 109.9554997  19.0199988
  53.6970012 110.9824997  18.0069988  53.0957486 110.6722803  18.5540698
  39.5700012 106.3154997  36.2929988  39.7140012 105.4134997  36.0059988
  38.7980012 106.6014997  35.8049988  39.4853322 106.2308261  36.1877881
  43.9120012 106.6594997  18.4249988  43.9760012 105.8654997  18.9559988
  44.5650012 106.5404997  17.7349988  44.0090241 106.5347148  18.4044317
  46.2260012 106.2854997  35.7249988  45.8970012 106.5564997  34.8679988
  46.3780012 105.3444997  35.6379988  46.2014809 106.1953862  35.5958244
  49.2640012 107.7064997  18.1609988  48.9950012 107.8864997  19.0619988
  49.0580012 106.7804997  18.0299988  49.1993825 107.6060152  18.2665214
  51.9600012 106.2014997  33.1089988  52.7060012 106.7894997  32.9889988
  51.2030012 106.7834997  33.1719988  51.9597554 106.3607011  33.1010907
  40.4030012 103.5154997  35.7129988  40.8110012 102.6584997  35.5919988
  40.1430012 103.5304997  36.6339988  40.4237568 103.4000807  35.8209588
  45.0610012 104.6314997  20.7309988  44.6010012 104.1474997  21.4169988
  45.3160012 103.9634997  20.0949988  45.0324902 104.4748731  20.7389334
  44.3500012 102.5244997  33.0869988  43.7320012 103.1994997  33.3669988
  44.6940012 102.8454997  32.2539988  44.3119615 102.6602721  33.0126581
  46.1320012 102.8744997  18.9929988  45.9520012 102.7204997  18.0659988
  47.0820012 102.9824997  19.0379988  46.2357776 102.8680175  18.8721843
  49.3700012 104.9964997  36.3639988  50.3230012 105.0794997  36.3369988
  49.2090012 104.2844997  36.9839988  49.4786426 104.9116746  36.4440579
  55.5220012 105.2294997  18.4389988  55.2480012 104.8044997  17.6259988
  55.5610012 106.1604997  18.2219988  55.4897699 105.2972484  18.2983610
  44.6890012  99.8794997  34.1689988  44.8390012  99.1504997  33.5669988
  44.6920012 100.6564997  33.6099988  44.7099302  99.8847851  34.0110692
  45.1020012  98.2494997  31.6619988  45.6380012  98.7004997  31.0099988
  44.2500012  98.1414997  31.2389988  45.0602178  98.2966390  31.5155756
  46.6840012 103.6884997  31.9009988  47.4340012 103.5324997  31.3279988
  46.3450012 104.5404997  31.6259988  46.7408921 103.7822968  31.7853561
  51.0990012 101.5034997  36.9299988  51.2920012 100.5724997  36.8179988
  51.9570012 101.9284997  36.9199988  51.2413020 101.4336389  36.9133361
  52.4160012 104.2924997  35.0069988  52.1350012 105.0014997  34.4299988
  53.3590012 104.2194997  34.8559988  52.5049027 104.3797646  34.9075551
  43.1680012 101.0774997  36.0809988  42.4010012 100.5454997  35.8709988
  43.8470012 100.7674997  35.4809988  43.1547022 100.9627506  35.9711648
  45.9080012  95.7054997  32.0929988  45.8090012  96.6524997  31.9879988
  45.1650012  95.3334997  31.6179988  45.7940563  95.7845902  32.0144560
  47.1720012 100.0274997  35.6569988  46.9360012  99.8074997  36.5589988
  46.3880012  99.8204997  35.1469988  47.0338628  99.9694760  35.7113932
  49.8870012  99.1544997  34.7329988  48.9400012  99.1864997  34.8649988
  50.2000012  98.5294997  35.3859988  49.7995475  99.0743207  34.8394455
  51.5210012  97.7884997  36.7379988  51.4250012  96.8364997  36.7319988
  51.2000012  98.0574997  37.5979988  51.4644070  97.6944035  36.8535441
  41.3480012  98.9984997  35.7849988  41.5600012  98.2914997  35.1749988
  41.2370012  98.5604997  36.6289988  41.3619721  98.8427084  35.8156843
  46.1290012  94.9994997  34.7649988  46.8410012  94.3594997  34.7509988
  46.0280012  95.2664997  33.8509988  46.2127939  94.9479938  34.6395650
  46.4830012  96.6824997  36.8179988  46.3510012  96.2064997  35.9979988
  45.8840012  97.4264997  36.7629988  46.3839071  96.7179618  36.6982886
  46.0290012 113.5654997  19.9949988  46.9620012 113.7234997  20.1379988
  45.7650012 114.2404997  19.3699988  46.1209510 113.6783611  19.9300741
  39.5980012 108.2014997  19.4769988  40.5120012 108.2804997  19.7509988
  39.6050012 107.5144997  18.8109988  39.7241131 108.1193961  19.4244393
  38.2470012 113.5944997  24.5549988  37.6000012 113.1324997  24.0219988
  38.6010012 112.9224997  25.1369988  38.2063849 113.4404723  24.5607959
  39.1170012 111.6754997  26.3589988  38.7820012 110.7954997  26.5309988
  39.3390012 112.0204997  27.2239988  39.1011783 111.6017500  26.4994208
  56.6650012 112.4844997  29.3399988  56.6440012 112.6694997  30.2789988
  57.3560012 113.0534997  28.9989988  56.7554618 112.5866606  29.4223864
  56.2290012 112.0524997  32.2619988  55.7410012 111.3164997  31.8909988
  56.7780012 111.6584997  32.9399988  56.2364872 111.8986249  32.3029160
  54.6790012 107.8414997  36.8999988  53.8130012 107.7364997  37.2939988
  55.0560012 108.6004997  37.3459988  54.6113308 107.9296900  37.0142393
  55.9800012 106.0984997  22.4139988  56.8300012 106.5194997  22.5409988
  55.9860012 105.3584997  23.0209988  56.0971372 106.0560803  22.5134344
  56.3750012 104.1514997  24.2379988  55.6480012 103.6724997  24.6349988
  56.9560012 104.3574997  24.9699988  56.3539375 104.1137090  24.3914129
  56.1340012 106.9364997  29.1849988  56.9670012 106.5584997  28.9049988
  56.2460012 107.8794997  29.0659988  56.2632647 107.0122218  29.1305487
  54.6200012 109.8144997  31.4919988  53.9730012 110.1394997  32.1179988
  54.1030012 109.3744997  30.8179988  54.4614029 109.7995004  31.4865827
  56.6430012 104.0524997  20.6289988  56.1210012 104.4094997  19.9099988
  56.6100012 104.7274997  21.3069988  56.5671634 104.1925413  20.6223145
  54.9920012 101.2924997  19.1799988  55.0880012 101.9594997  18.4989988
  54.8520012 100.4764997  18.6979988  54.9862135 101.2734500  19.0218491
  54.1610012 102.6724997  24.8009988  54.0110012 101.7274997  24.7799988
  53.8080012 102.9534997  25.6439988  54.0926625 102.5810441  24.9122346
  39.1970012 104.7504997  28.8109988  39.3810012 104.6684997  27.8749988
  40.0460012 104.6264997  29.2349988  39.3370139 104.7225003  28.7401455
  55.0180012 104.6424997  34.4389988  55.6010012 103.9084997  34.6309988
  55.5820012 105.4144997  34.4859988  55.1739769 104.6464227  34.4716159
  56.5140012 102.5454997  35.1239988  55.6510012 102.1664997  34.9579988
  57.1190012 101.8064997  35.0499988  56.4775979 102.3938023  35.0912817
  54.2390012  98.7004997  18.2969988  54.8500012  98.3294997  18.9339988
  53.4030012  98.2794997  18.4929988  54.2095032  98.5927554  18.4107035
  53.8720012 100.2554997  23.2629988  54.1520012  99.3484997  23.3869988
  54.6310012 100.6894997  22.8739988  54.0129277 100.1900942  23.2273682
  54.4840012 100.8364997  28.6989988  55.4170012 101.0484997  28.6649988
  54.2490012 100.9384997  29.6209988  54.5798036 100.8792769  28.8189976
  54.5130012 101.5734997  31.4749988  53.6700012 101.8414997  31.8409988
  54.9550012 102.3954997  31.2639988  54.4574158 101.7213291  31.4965491
  38.7940012 100.0214997  34.9519988  39.7140012  99.8994997  35.1879988
  38.3450012  99.2714997  35.3409988  38.8591580  99.9033727  35.0369006
  56.7960012  95.5534997  36.8279988  57.1460012  94.8994997  36.2229988
  56.9430012  96.3904997  36.3889988  56.8638419  95.5771591  36.6857118
  54.4850012  97.5184997  23.3109988  54.6680012  97.0694997  24.1369988
  53.8860012  96.9334997  22.8479988  54.4290202  97.3779975  23.3613275
  40.0150012  98.3334997  27.8429988  40.4610012  97.5414997  28.1449988
  40.4820012  99.0494997  28.2739988  40.1390172  98.3220624  27.9424820
  38.3190012 101.3324997  28.9119988  38.8110012 101.1114997  28.1209988
  38.6820012 102.1734997  29.1929988  38.4353126 101.4158357  28.8417531
  56.3160012  97.6624997  35.1779988  55.3980012  97.9334997  35.1419988
  56.4390012  97.1274997  34.3929988  56.2071066  97.6272892  35.0670487
  56.3520012  97.5854997  19.8389988  56.7640012  96.8644997  19.3639988
  57.0340012  98.2554997  19.8979988  56.5005885  97.5772368  19.7818915
  38.6330012  97.5904997  22.9659988  37.7080012  97.7994997  22.8369988
  39.0870012  98.0744997  22.2769988  38.5677368  97.6845993  22.8551226
  53.4040012 112.5744997  24.9119988  54.0560012 112.2274997  24.3039988
  53.9140012 113.0634997  25.5579988  53.5622637 112.5930597  24.9160236
  38.5970012  96.3284997  31.3109988  37.9320012  96.0824997  31.9539988
  38.1540012  96.9504997  30.7329988  38.4460956  96.3788632  31.3209352
  40.7890012 109.5034997  35.4549988  39.9680012 109.6784997  34.9949988
  40.5360012 109.4304997  36.3759988  40.6426164 109.5175622  35.5164923
  43.7430012 110.4784997  31.7139988  43.3180012 111.2874997  31.4309988
  44.6470012 110.5634997  31.4119988  43.8070271 110.6008469  31.6343776
  48.0540012 111.8774997  34.6729988  48.2390012 111.5434997  35.5509988
  48.9000012 112.1864997  34.3509988  48.1937539 111.8736047  34.7495605
  50.3990012 113.1634997  33.9169988  51.0760012 112.5304997  33.6769988
  50.7210012 113.5644997  34.7239988  50.5351637 113.1311154  33.9932793
  55.3160012  95.7524997  32.9969988  54.5040012  96.0774997  32.6089988
  55.5490012  94.9924997  32.4639988  55.2363423  95.6942436  32.8718253
  41.1450012 113.7344997  31.7609988  40.4240012 114.1744997  31.3099988
  40.7790012 113.4834997  32.6099988  40.9969804 113.7607698  31.8139840
  43.6120012 113.3344997  30.7909988  42.7470012 113.4064997  31.1949988
  43.5570012 113.8814997  30.0069988  43.4862085 113.4182685  30.7403362
  48.3220012 113.2224997  29.9659988  47.8660012 113.7514997  29.3119988
  48.4850012 113.8254997  30.6919988  48.2815585 113.3764468  29.9745062
  50.6500012 112.1004997  30.9109988  49.7450012 112.2654997  30.6459988
  51.0790012 112.9534997  30.8459988  50.5840799 112.2384483  30.8659182
  53.2540012 113.6704997  31.2059988  53.0720012 114.5864997  30.9959988
  53.4310012 113.2604997  30.3599988  53.2530210 113.7404822  31.0627885
  40.5590012 112.3574997  28.6709988  40.5410012 111.9324997  29.5289988
  41.3640012 112.0394997  28.2629988  40.6653875 112.2563812  28.7331655
  42.7010012 111.0674997  27.3259988  42.4820012 110.1514997  27.4959988
  43.5250012 111.2074997  27.7919988  42.7824420 110.9610520  27.4122774
  45.2380012 111.5374997  28.1749988  45.4510012 110.6494997  27.8879988
  45.3020012 111.5034997  29.1289988  45.2758231 111.4113102  28.2647397
  48.7460012  97.2014997  27.3189988  48.0720012  96.5724997  27.5749988
  49.3100012  96.7174997  26.7159988  48.7299230  97.0498744  27.2725340
  53.8890012  95.3094997  27.4319988  54.4930012  95.8564997  26.9299988
  53.0190012  95.6284997  27.1919988  53.8541241  95.4275806  27.3307654
  55.6160012  96.4474997  25.7649988  56.2280012  95.9334997  25.2389988
  55.9980012  97.3254997  25.7889988  55.7514540  96.4957140  25.6961830
  41.0730012  95.8354997  25.1409988  40.2960012  95.6014997  24.6339988
  41.6030012  95.0384997  25.1499988  41.0382330  95.6956988  25.0727742
  39.9090012  95.6334997  20.9449988  40.3480012  96.2444997  20.3529988
  39.2760012  96.1714997  21.4189988  39.8834514  95.7899257  20.9280930
  45.6520012  95.7624997  24.9549988  46.5270012  96.1504997  24.9249988
  45.5160012  95.5474997  25.8769988  45.7533695  95.7865184  25.0756440
  51.2090012  95.7924997  26.6039988  51.2850012  95.8874997  25.6539988
  50.9340012  94.8844997  26.7329988  51.1822321  95.6827867  26.4915079
  52.5620012  95.8184997  22.2959988  51.8600012  96.4334997  22.0869988
  52.1180012  94.9804997  22.4269988  52.4056330  95.7895783  22.2850328
  39.8100012 111.5814997  21.8429988  39.1250012 111.5434997  21.1749988
  39.8140012 112.4944997  22.1309988  39.7168193 111.6997016  21.7905284
  41.7700012  97.5494997  19.3869988  42.2620012  96.9194997  18.8599988
  42.3940012  97.8454997  20.0509988  41.9215446  97.5033199  19.4045980
  46.7960012  97.8424997  21.8439988  46.9740012  97.1964997  22.5269988
  46.7430012  98.6764997  22.3119988  46.8131829  97.8667985  22.0005940
  48.6750012 112.7914997  20.2399988  49.5410012 113.1574997  20.0619988
  48.4280012 112.3514997  19.4259988  48.7602392 112.7821756  20.1056289
  55.3840012 112.3544997  22.9189988  55.1890012 111.6064997  22.3539988
  55.3450012 113.1124997  22.3359988  55.3520380 112.3546099  22.7628384
  41.0310012  96.3494997  34.6589988  40.6650012  95.5844997  35.1019988
  41.9440012  96.3784997  34.9459988  41.1042790  96.2487224  34.7584070
  43.0040012  95.7004997  36.1949988  43.9020012  95.4264997  36.0099988
  42.6170012  94.9574997  36.6589988  43.0746612  95.5625914  36.2323643
  41.6280012 112.5014997  18.8679988  41.3610012 112.7884997  19.7409988
  42.4000012 111.9554997  19.0199988  41.6957488 112.4670294  19.0081050
  51.4250012  95.0324997  36.3769988  51.5020012  94.6064997  37.2309988
  52.3190012  95.0464997  36.0339988  51.5563428  94.9760879  36.4475310
  54.6010012 111.1054997  35.0689988  53.8190012 110.9194997  34.5499988
  54.5290012 112.0344997  35.2869988  54.4841777 111.2056492  35.0274048
  69.0070012 104.9914997  25.0999988  69.0960012 105.9354997  24.9679988
  68.3690012 104.7164997  24.4419988  68.9329081 105.0834830  24.9929614
  67.9400012 104.2464997  28.5189988  67.9020012 103.6004997  29.2239988
  67.6180012 103.7804997  27.7479988  67.8912333 104.0949408  28.5112978
  60.3090012 103.8614997  30.1119988  60.3500012 103.2354997  30.8349988
  61.0120012 104.4854997  30.2939988  60.4096363 103.8601196  30.2356044
  71.6460012 107.1854997  26.8199988  71.2060012 106.4654997  27.2709988
  71.6330012 107.9064997  27.4499988  71.5840226 107.1843731  26.9668494
  61.2320012 108.3114997  28.6469988  60.8630012 107.5094997  28.2769988
  62.1730012 108.1424997  28.6929988  61.3087289 108.1790153  28.6026316
  57.8420012 101.9714997  24.0399988  57.3950012 102.8174997  24.0209988
  57.2810012 101.3914997  23.5239988  57.7049900 102.0089916  23.9676801
  58.5530012 104.1334997  26.1659988  58.7660012 103.3634997  26.6929988
  59.2910012 104.2224997  25.5619988  58.6818496 104.0401394  26.1565300
  68.7580012 112.2904997  27.0329988  69.3780012 111.6134997  26.7589988
  68.5500012 112.0724997  27.9409988  68.8146904 112.1683870  27.1183365
  66.3300012 106.6794997  28.9249988  66.6340012 105.9934997  28.3299988
  67.0510012 106.7974997  29.5429988  66.4690671 106.6016305  28.9271816
  74.9930012  98.2804997  29.7859988  75.0420012  98.8904997  30.5219988
  75.4180012  98.7414997  29.0629988  75.0571824  98.4263741  29.7890205
  69.4710012 101.0734997  29.2529988  69.6130012 100.1274997  29.2729988
  69.3640012 101.2804997  28.3239988  69.4759864 100.9719534  29.1302339
  62.6250012  99.1744997  26.5249988  62.6690012 100.0344997  26.1069988
  62.1680012  98.6224997  25.8909988  62.5692185  99.2175799  26.3820299
  70.3480012  99.3054997  24.9259988  70.9940012  98.9764997  25.5509988
  70.8580012  99.8234997  24.3029988  70.5054264  99.3304611  24.9273862
  59.2460012 101.5714997  27.2869988  59.8990012 101.0214997  27.7189988
  59.2700012 101.2974997  26.3699988  59.3386683 101.4591466  27.2222123
  64.4020012 103.1214997  26.5019988  65.0180012 102.5954997  27.0119988
  63.8160012 102.4814997  26.0989988  64.4070810 102.9629208  26.5173173
  75.3840012  99.7584997  32.0219988  74.6960012 100.4164997  31.9259988
  75.4000012  99.5614997  32.9579988  75.2918525  99.8220462  32.1354808
  61.4360012  98.0924997  30.5989988  61.2170012  98.6224997  29.8329988
  60.7680012  98.3194997  31.2459988  61.3157600  98.1956906  30.5816379
  68.8050012 107.5924997  24.1429988  68.5090012 107.2704997  23.2919988
  68.4800012 108.4924997  24.1839988  68.7206371 107.6700215  24.0321801
  64.0050012 105.7684997  30.8859988  63.2650012 106.3664997  30.9899988
  64.7190012 106.3224997  30.5709988  64.0002237 105.9252831  30.8576465
  72.1120012  98.5964997  26.9059988  71.8960012  97.8304997  27.4389988
  72.7670012  99.0684997  27.4189988  72.1710632  98.5555889  27.0482861
  61.0290012  99.9844997  28.5509988  61.6430012 100.6174997  28.9249988
  61.5410012  99.5124997  27.8949988  61.1822296 100.0072370  28.5134252
  62.4120012 107.7324997  31.6739988  62.4070012 108.6124997  31.2959988
  61.5590012 107.6494997  32.0989988  62.2959464 107.8416117  31.6797907
  58.5330012 107.4034997  22.4559988  58.2610012 107.6324997  21.5669988
  58.5790012 108.2414997  22.9159988  58.5020094 107.5481213  22.3965697
  72.1580012 109.0254997  29.1679988  71.2170012 109.0834997  29.3299988
  72.4350012 109.9314997  29.0309988  72.0664679 109.1559443  29.1716815
  72.4590012  97.3114997  30.5859988  71.7230012  97.9224997  30.5479988
  73.1420012  97.7264997  30.0589988  72.4506541  97.4511374  30.5095832
  65.4620012  95.3984997  28.0519988  65.3450012  94.4494997  27.9969988
  64.6070012  95.7304997  28.3249988  65.3303733  95.3135409  28.0813897
  70.4100012 110.8064997  25.7939988  70.8360012 110.0994997  25.3089988
  70.7270012 111.6074997  25.3769988  70.5111019 110.8180994  25.6713130
  71.5700012 108.7074997  24.3019988  71.3120012 108.0174997  23.6909988
  71.6410012 108.2644997  25.1479988  71.5442856 108.5532124  24.3326885
  73.2560012 107.2734997  32.7799988  73.3960012 106.6824997  32.0399988
  73.4230012 108.1464997  32.4229988  73.2976778 107.3106426  32.6306965
  67.7290012 104.2354997  22.5519988  67.0170012 104.7704997  22.1999988
  68.4200012 104.2914997  21.8919988  67.7250132 104.3162543  22.4146289
  67.7820012 102.6934997  19.5909988  68.4830012 102.7154997  20.2419988
  68.0850012 102.0654997  18.9349988  67.9187830 102.6116566  19.5913711
  75.0980012 103.6134997  30.8459988  74.4450012 104.3084997  30.9349988
  75.5630012 103.8234997  30.0359988  75.0715390 103.7369425  30.7486883
  71.1340012 104.4454997  23.5039988  70.4020012 104.6734997  24.0769988
  71.5820012 103.7314997  23.9589988  71.0943095 104.3802571  23.6439119
  71.0320012 102.6194997  32.5709988  71.1120012 103.3824997  33.1429988
  70.4300012 102.8984997  31.8809988  70.9615756 102.7617134  32.5560589
  62.7800012 105.0754997  25.3859988  62.4490012 104.7054997  24.5679988
  63.3680012 104.4054997  25.7329988  62.8141873 104.9341156  25.3208102
  64.1460012 108.5034997  28.0679988  64.0520012 107.9254997  27.3109988
  64.8760012 108.1324997  28.5639988  64.2317981 108.3742390  28.0314165
  63.1460012 103.8444997  29.0199988  63.7120012 103.9654997  28.2569988
  63.4650012 104.4814997  29.6589988  63.2665786 103.9471884  29.0020040
  69.4550012 109.3474997  29.7539988  69.2150012 110.0094997  30.4019988
  69.2570012 108.5134997  30.1789988  69.3953808 109.3253134  29.9001524
  64.0260012 108.2434997  33.7369988  63.7150012 109.0254997  34.1919988
  63.3760012 108.0904997  33.0509988  63.8955558 108.3299105  33.7065871
  70.0050012 103.6074997  21.1889988  70.5850012 103.7574997  21.9359988
  70.4190012 104.0784997  20.4659988  70.1402830 103.6916841  21.1934134
  60.9460012 104.4414997  32.9659988  61.0170012 105.0924997  33.6639988
  60.0560012 104.5444997  32.6309988  60.8353117 104.5445936  33.0162700
  67.7320012 110.3444997  24.6239988  68.2060012 110.6394997  25.4019988
  67.1690012 111.0824997  24.3909988  67.7207653 110.4846932  24.6990136
  62.2660012 110.3154997  34.4999988  62.2730012 110.1794997  33.5529988
  61.3500012 110.1974997  34.7519988  62.1431714 110.2809430  34.4044666
  73.7040012  95.3574997  21.0019988  72.8040012  95.4964997  21.2969988
  73.9560012  96.1884997  20.5999988  73.6148702  95.4889074  20.9880205
  61.7700012 104.1454997  22.9759988  61.4780012 104.9134997  22.4849988
  61.0960012 103.4854997  22.8129988  61.6389081 104.1614406  22.8867340
  74.8930012 109.7234997  19.3779988  74.9670012 110.6624997  19.5489988
  75.7990012 109.4184997  19.3219988  75.0255100 109.8106722  19.3938119
  57.8630012 106.5084997  31.7909988  57.3620012 106.4804997  30.9759988
  57.8680012 105.6024997  32.0999988  57.7951526 106.3822278  31.7212872
  57.6130012 109.2884997  28.6749988  58.5590012 109.1444997  28.6559988
  57.5010012 110.0724997  29.2119988  57.7272727 109.3748046  28.7450072
  75.8110012 109.9544997  34.3569988  75.7620012 108.9994997  34.3199988
  74.9840012 110.2224997  34.7579988  75.6924940 109.8598998  34.4061375
  66.7900012 109.5284997  33.2329988  66.8770012 110.3544997  33.7079988
  65.9260012 109.1984997  33.4819988  66.6851964 109.5969878  33.3316549
  67.2040012 113.3004997  23.0389988  67.1290012 113.1794997  22.0929988
  67.2370012 114.2504997  23.1579988  67.1981848 113.4122500  22.9254834
  60.8570012 112.0894997  24.8199988  61.0100012 111.7414997  25.6989988
  60.0070012 111.7334997  24.5649988  60.7628962 111.9936650  24.9058340
  70.3060012 112.4544997  20.0409988  70.6810012 111.7104997  19.5709988
  70.3100012 112.1844997  20.9599988  70.3578915 112.3161486  20.1007824
  69.9750012 112.3804997  22.7909988  69.0390012 112.4804997  22.9689988
  70.2550012 111.6714997  23.3689988  69.8848255 112.2982711  22.8935391
  72.9630012 101.4474997  34.8369988  72.5560012 101.9284997  34.1159988
  73.0040012 100.5424997  34.5289988  72.9128437 101.3909374  34.6966683
  60.1120012 107.8314997  32.8339988  60.3280012 107.4704997  33.6929988
  59.2570012 107.4574997  32.6239988  60.0259292 107.7314111  32.9233386
  62.7310012  96.3014997  28.8289988  61.8690012  96.2144997  28.4219988
  62.7080012  97.1574997  29.2569988  62.6100330  96.4052765  28.8311863
  67.3940012  96.0234997  32.2039988  67.8140012  95.6084997  32.9569988
  66.4610012  95.8454997  32.3209988  67.3253644  95.9425900  32.3229539
  70.7200012  99.7794997  33.0569988  70.2060012  99.6534997  33.8549988
  70.5650012 100.6914997  32.8129988  70.6286852  99.8856132  33.1332158
  71.4830012 104.6404997  18.8189988  71.5250012 104.4174997  17.8889988
  72.3320012 105.0394997  19.0089988  71.6035396 104.6639155  18.7173627
  67.0550012  98.5164997  19.4889988  66.8020012  98.5354997  20.4119988
  66.7990012  97.6444997  19.1879988  66.9857790  98.4012437  19.5746263
  62.8220012 101.2674997  29.9239988  62.1800012 101.2264997  30.6329988
  62.8590012 102.1934997  29.6869988  62.7391324 101.3871559  29.9889824
  62.8190012 101.4884997  24.8359988  61.9260012 101.1474997  24.7779988
  63.2690012 101.1114997  24.0809988  62.7577305 101.3908484  24.7259177
  68.3540012 101.9044997  23.6529988  67.9450012 102.7194997  23.3619988
  69.0750012 101.7644997  23.0389988  68.3954537 101.9972018  23.5301342
  67.4560012 102.0794997  35.1409988  66.8940012 101.3754997  35.4619988
  68.2830012 101.9594997  35.6089988  67.4907095 101.9667883  35.2482330
  69.3590012 101.3504997  26.4669988  69.1640012 101.9554997  25.7519988
  69.5400012 100.5164997  26.0329988  69.3567614 101.3206300  26.3104405
  60.5720012 101.5874997  31.7909988  60.5340012 101.9874997  32.6599988
  60.0810012 100.7704997  31.8819988  60.5004684 101.5318069  31.9221059
  63.9380012  98.9614997  18.5899988  63.5070012  98.5164997  19.3199988
  63.2200012  99.3334997  18.0779988  63.7819438  98.9508940  18.6206799
  57.1800012  98.7034997  25.6419988  57.8110012  98.6744997  26.3609988
  57.6290012  98.2784997  24.9119988  57.3270774  98.6420492  25.6416553
  58.4540012  99.4494997  21.0659988  58.9280012 100.0404997  20.4809988
  57.7370012  99.9804997  21.4129988  58.4219341  99.6020867  21.0328836
  68.6230012 102.9884997  31.1389988  68.9460012 102.3574997  30.4959988
  68.1830012 102.4534997  31.7989988  68.6076895 102.8298441  31.1402850
  65.4000012  98.9154997  25.9229988  64.4890012  98.9724997  26.2109988
  65.9060012  98.8554997  26.7329988  65.3435413  98.9151985  26.0720622
  60.2290012 100.5444997  24.7489988  59.3390012 100.6444997  24.4089988
  60.5250012  99.7024997  24.4029988  60.1472823 100.4443545  24.6557213
  63.8820012 100.5444997  22.4059988  64.8130012 100.6734997  22.5839988
  63.6670012 101.2144997  21.7559988  63.9804247 100.6526565  22.3425747
  69.8050012  98.1504997  29.1869988  69.1290012  98.2814997  29.8509988
  69.3200012  97.9954997  28.3769988  69.6467145  98.1474905  29.1684517
  62.5560012 101.7394997  19.9729988  62.0130012 101.3594997  19.2809988
  63.3890012 101.9334997  19.5439988  62.5944399 101.7138124  19.8204526
  73.0930012 113.8224997  35.4639988  73.2930012 114.2464997  34.6289988
  73.7480012 114.1654997  36.0709988  73.2090051 113.9269648  35.4317836
  60.6910012 106.2964997  35.0719988  61.4230012 106.5504997  35.6329988
  59.9110012 106.5004997  35.5869988  60.6858232 106.3589177  35.2185760
  66.7200012 101.7034997  27.8099988  67.2850012 101.1564997  27.2629988
  66.5730012 101.1814997  28.5979988  66.7772918 101.5582024  27.8418454
  61.7220012  97.8394997  24.2279988  61.4050012  96.9374997  24.1929988
  62.5040012  97.8414997  23.6749988  61.7842284  97.7161628  24.1484783
  65.3470012 100.0914997  30.2239988  64.5110012 100.5454997  30.3339988
  65.8710012 100.3674997  30.9759988  65.3034414 100.1909376  30.3407136
  65.8910012 106.3044997  21.9079988  65.1460012 105.7974997  21.5859988
  65.7570012 106.3534997  22.8549988  65.7708776 106.2416940  21.9918647
  73.0410012 105.4374997  30.6949988  73.6830012 105.8944997  30.1509988
  72.2110012 105.5504997  30.2319988  73.0165963 105.5152704  30.5580177
  69.7890012  99.1184997  20.1079988  68.8500012  99.2304997  19.9559988
  70.0860012  99.9754997  20.4139988  69.7007666  99.2496443  20.1285768
  67.4100012 106.4884997  33.1449988  67.0650012 106.1074997  33.9519988
  67.2100012 107.4224997  33.2169988  67.3358061 106.5625228  33.2650961
  70.5070012 100.9854997  21.7679988  71.3990012 100.8484997  22.0869988
  70.5640012 101.7764997  21.2319988  70.6366285 101.0736660  21.7391691
  61.0160012 105.5994997  27.6779988  61.7610012 105.5974997  27.0769988
  61.0940012 104.7764997  28.1599988  61.1285518 105.4879315  27.6608929
  68.0170012 107.7634997  20.9339988  67.7210012 108.5894997  21.3149988
  67.3140012 107.1434997  21.1299988  67.8814914 107.7928199  21.0126443
  58.0240012 104.0604997  32.9929988  58.2470012 103.6424997  33.8249988
  57.4220012 103.4474997  32.5699988  57.9731759 103.9204668  33.0497022
  65.0400012 103.5774997  35.2059988  64.7440012 103.4114997  34.3109988
  65.9720012 103.3574997  35.1949988  65.1254166 103.5250640  35.0820536
  69.6610012 108.9504997  33.0959988  68.7600012 109.1334997  32.8279988
  69.6950012 109.2094997  34.0169988  69.5423041 109.0105512  33.1838197
  75.3920012 101.1954997  21.4629988  74.8380012 100.7994997  20.7909988
  75.4920012 102.1054997  21.1849988  75.3297059 101.2643586  21.3334401
  75.3550012 106.9954997  34.2999988  74.5040012 107.2334997  33.9329988
  75.9460012 106.9784997  33.5469988  75.3182487 107.0258258  34.1478893
  73.6870012 109.9814997  21.9279988  73.3140012 109.1554997  22.2369988
  73.9650012 109.7984997  21.0309988  73.6735630 109.8437303  21.8489626
  70.8480012 104.7894997  28.9489988  69.9190012 104.5574997  28.9219988
  71.2990012 104.0124997  28.6189988  70.7819216 104.6527238  28.9006917
  63.3910012 109.1174997  25.0819988  63.9180012 109.8904997  24.8819988
  62.5110012 109.3424997  24.7809988  63.3441773 109.2538005  25.0139010
  59.1460012 103.9794997  19.6689988  59.7620012 104.6064997  20.0489988
  58.2840012 104.2954997  19.9409988  59.1137698 104.1079430  19.7577183
  64.8180012 106.7804997  24.6589988  64.5770012 107.7054997  24.6999988
  64.0770012 106.3214997  25.0549988  64.6848409 106.8451421  24.7181377
  65.3330012 110.9294997  30.9739988  65.6950012 111.7844997  30.7399988
  65.8640012 110.6374997  31.7139988  65.4544473 111.0071060  31.0420855
  63.5010012 111.8024997  24.2039988  62.5510012 111.9074997  24.2549988
  63.8530012 112.6224997  24.5489988  63.4184203 111.9278314  24.2576650
  68.8770012 107.0284997  30.6739988  68.4510012 106.8014997  31.5009988
  69.4570012 106.2904997  30.4919988  68.8971868 106.8975299  30.7625830
  71.0800012 107.9574997  19.7479988  71.4330012 107.5774997  20.5529988
  70.1310012 107.8644997  19.8349988  71.0000441 107.8929596  19.8698559
  71.5350012 111.5804997  33.1439988  70.9340012 111.0254997  32.6479988
  71.8170012 112.2474997  32.5179988  71.4908519 111.5946841  32.9914952
  75.5830012 112.4374997  19.9489988  76.3270012 113.0234997  19.8089988
  74.8890012 113.0054997  20.2829988  75.5910292 112.5945582  19.9749961
  59.6580012  98.8134997  32.5509988  58.7650012  99.1524997  32.4829988
  59.5590012  97.9584997  32.9689988  59.5224164  98.7442588  32.5982235
  71.9460012 106.6304997  21.9749988  71.6680012 105.9024997  22.5309988
  72.8730012 106.7494997  22.1799988  72.0333124 106.5468802  22.0788845
  59.3090012 110.6184997  30.9859988  59.5260012 109.6864997  30.9549988
  59.5550012 110.8924997  31.8689988  59.3719549 110.5280636  31.1011763
  65.1710012 109.0694997  18.1949988  65.4100012 108.3214997  17.6479988
  64.9020012 108.6814997  19.0279988  65.1673675 108.9146638  18.2326865
  64.1080012 108.6394997  20.6519988  64.2540012 108.1194997  21.4419988
  64.1050012 109.5464997  20.9579988  64.1275989 108.6908853  20.8016088
  60.5610012 105.8924997  21.1619988  59.8750012 106.2444997  21.7289988
  61.0830012 106.6554997  20.9149988  60.5376852 106.0438578  21.2062118
  68.3920012  98.5544997  31.4409988  69.0910012  98.6284997  32.0909988
  68.0110012  97.6904997  31.5949988  68.4361767  98.4477624  31.5508322
  69.1770012  98.2064997  22.5379988  69.3970012  98.6784997  21.7349988
  69.7350012  98.6014997  23.2079988  69.2824968  98.3244285  22.5187331
  66.8450012 110.3374997  21.4009988  66.0290012 110.8344997  21.4529988
  67.3750012 110.8124997  20.7609988  66.8049161 110.4697722  21.3215956
  66.3770012  99.9344997  23.3729988  67.1890012 100.4394997  23.4189988
  66.1320012  99.7894997  24.2869988  66.4550520  99.9840375  23.5028517
  66.9120012 100.9204997  32.5579988  67.0310012 101.4944997  33.3149988
  67.5680012 100.2324997  32.6719988  67.0169757 100.9061079  32.6770825
  67.2600012  97.0154997  24.3109988  66.9140012  97.6334997  24.9559988
  67.9190012  97.5164997  23.8299988  67.3017826  97.1675802  24.3340971
  64.1840012 111.3814997  21.3829988  64.3440012 112.1804997  20.8819988
  63.9860012 111.6874997  22.2679988  64.1791649 111.5324469  21.4339815
  62.9180012  98.0784997  20.9979988  62.8350012  98.9674997  21.3449988
  63.8080012  97.8134997  21.2299988  63.0269469  98.1641430  21.0767626
  73.1170012  98.8274997  33.3929988  72.2000012  99.0904997  33.3049988
  73.4520012  98.8244997  32.4959988  73.0369900  98.8630224  33.2597919
  71.7190012 102.5784997  27.4879988  70.9210012 102.1634997  27.1599988
  72.1640012 101.8874997  27.9789988  71.6699885 102.4283543  27.5094889
  61.1770012 108.5064997  20.0589988  61.7690012 109.2054997  20.3349988
  61.6360012 108.0734997  19.3389988  61.3201142 108.5437049  19.9994830
  59.4930012 101.1704997  19.1749988  59.4480012 102.1094997  19.3529988
  58.6050012 100.9344997  18.9049988  59.3668574 101.2671892  19.1628912
  72.8050012 111.8344997  29.1109988  72.6500012 112.5124997  28.4539988
  73.7380012 111.9064997  29.3139988  72.9098500 111.9370170  29.0485119
  60.3010012  95.9524997  27.8479988  60.0720012  96.0114997  26.9199988
  59.8580012  95.1604997  28.1539988  60.2098530  95.8535753  27.7624786
  59.2310012 109.8924997  24.0079988  58.3990012 110.3654997  24.0359988
  59.7770012 110.4024997  23.4099988  59.1909739 110.0261871  23.9309716
  58.5190012 112.5054997  35.3379988  59.0600012 112.2884997  36.0979988
  58.0380012 111.6994997  35.1489988  58.5279345 112.3669514  35.4163076
  63.1170012 111.4244997  36.9589988  63.8840012 110.9654997  37.2999988
  63.0950012 111.1984997  36.0289988  63.2191434 111.3310409  36.8800043
  67.2090012 110.9324997  18.3339988  66.5650012 110.3014997  18.6549988
  67.9710012 110.4014997  18.1019988  67.2238077 110.7742920  18.3466011
  69.6940012 109.8044997  35.6879988  69.3430012 108.9484997  35.9309988
  70.4200012 109.9474997  36.2949988  69.7440769 109.7065636  35.8033619
  71.8130012 110.7494997  18.5679988  72.0960012 109.9554997  19.0199988
  72.5530012 110.9824997  18.0069988  71.9517486 110.6722803  18.5540698
  58.4260012 106.3154997  36.2929988  58.5700012 105.4134997  36.0059988
  57.6540012 106.6014997  35.8049988  58.3413322 106.2308261  36.1877881
  62.7680012 106.6594997  18.4249988  62.8320012 105.8654997  18.9559988
  63.4210012 106.5404997  17.7349988  62.8650241 106.5347148  18.4044317
  65.0820012 106.2854997  35.7249988  64.7530012 106.5564997  34.8679988
  65.2340012 105.3444997  35.6379988  65.0574809 106.1953862  35.5958244
  68.1200012 107.7064997  18.1609988  67.8510012 107.8864997  19.0619988
  67.9140012 106.7804997  18.0299988  68.0553825 107.6060152  18.2665214
  70.8160012 106.2014997  33.1089988  71.5620012 106.7894997  32.9889988
  70.0590012 106.7834997  33.1719988  70.8157554 106.3607011  33.1010907
  59.2590012 103.5154997  35.7129988  59.6670012 102.6584997  35.5919988
  58.9990012 103.5304997  36.6339988  59.2797568 103.4000807  35.8209588
  63.9170012 104.6314997  20.7309988  63.4570012 104.1474997  21.4169988
  64.1720012 103.9634997  20.0949988  63.8884902 104.4748731  20.7389334
  63.2060012 102.5244997  33.0869988  62.5880012 103.1994997  33.3669988
  63.5500012 102.8454997  32.2539988  63.1679615 102.6602721  33.0126581
  64.9880012 102.8744997  18.9929988  64.8080012 102.7204997  18.0659988
  65.9380012 102.9824997  19.0379988  65.0917776 102.8680175  18.8721843
  68.2260012 104.9964997  36.3639988  69.1790012 105.0794997  36.3369988
  68.0650012 104.2844997  36.9839988  68.3346426 104.9116746  36.4440579
  74.3780012 105.2294997  18.4389988  74.1040012 104.8044997  17.6259988
  74.4170012 106.1604997  18.2219988  74.3457699 105.2972484  18.2983610
  63.5450012  99.8794997  34.1689988  63.6950012  99.1504997  33.5669988
  63.5480012 100.6564997  33.6099988  63.5659302  99.8847851  34.0110692
  63.9580012  98.2494997  31.6619988  64.4940012  98.7004997  31.0099988
  63.1060012  98.1414997  31.2389988  63.9162178  98.2966390  31.5155756
  65.5400012 103.6884997  31.9009988  66.2900012 103.5324997  31.3279988
  65.2010012 104.5404997  31.6259988  65.5968921 103.7822968  31.7853561
  69.9550012 101.5034997  36.9299988  70.1480012 100.5724997  36.8179988
  70.8130012 101.9284997  36.9199988  70.0973020 101.4336389  36.9133361
  71.2720012 104.2924997  35.0069988  70.9910012 105.0014997  34.4299988
  72.2150012 104.2194997  34.8559988  71.3609027 104.3797646  34.9075551
  62.0240012 101.0774997  36.0809988  61.2570012 100.5454997  35.8709988
  62.7030012 100.7674997  35.4809988  62.0107022 100.9627506  35.9711648
  64.7640012  95.7054997  32.0929988  64.6650012  96.6524997  31.9879988
  64.0210012  95.3334997  31.6179988  64.6500564  95.7845902  32.0144560
  66.0280012 100.0274997  35.6569988  65.7920012  99.8074997  36.5589988
  65.2440012  99.8204997  35.1469988  65.8898628  99.9694760  35.7113932
  68.7430012  99.1544997  34.7329988  67.7960012  99.1864997  34.8649988
  69.0560012  98.5294997  35.3859988  68.6555475  99.0743207  34.8394455
  70.3770012  97.7884997  36.7379988  70.2810012  96.8364997  36.7319988
  70.0560012  98.0574997  37.5979988  70.3204070  97.6944035  36.8535441
  60.2040012  98.9984997  35.7849988  60.4160012  98.2914997  35.1749988
  60.0930012  98.5604997  36.6289988  60.2179721  98.8427084  35.8156843
  64.9850012  94.9994997  34.7649988  65.6970012  94.3594997  34.7509988
  64.8840012  95.2664997  33.8509988  65.0687939  94.9479938  34.6395650
  65.3390012  96.6824997  36.8179988  65.2070012  96.2064997  35.9979988
  64.7400012  97.4264997  36.7629988  65.2399071  96.7179618  36.6982886
  64.8850012 113.5654997  19.9949988  65.8180012 113.7234997  20.1379988
  64.6210012 114.2404997  19.3699988  64.9769510 113.6783611  19.9300741
  58.4540012 108.2014997  19.4769988  59.3680012 108.2804997  19.7509988
  58.4610012 107.5144997  18.8109988  58.5801131 108.1193961  19.4244393
  57.1030012 113.5944997  24.5549988  56.4560012 113.1324997  24.0219988
  57.4570012 112.9224997  25.1369988  57.0623849 113.4404723  24.5607959
  57.9730012 111.6754997  26.3589988  57.6380012 110.7954997  26.5309988
  58.1950012 112.0204997  27.2239988  57.9571783 111.6017500  26.4994208
  75.5210012 112.4844997  29.3399988  75.5000012 112.6694997  30.2789988
  76.2120012 113.0534997  28.9989988  75.6114618 112.5866606  29.4223864
  75.0850012 112.0524997  32.2619988  74.5970012 111.3164997  31.8909988
  75.6340012 111.6584997  32.9399988  75.0924872 111.8986249  32.3029160
  73.5350012 107.8414997  36.8999988  72.6690012 107.7364997  37.2939988
  73.9120012 108.6004997  37.3459988  73.4673308 107.9296900  37.0142393
  74.8360012 106.0984997  22.4139988  75.6860012 106.5194997  22.5409988
  74.8420012 105.3584997  23.0209988  74.9531372 106.0560803  22.5134344
  75.2310012 104.1514997  24.2379988  74.5040012 103.6724997  24.6349988
  75.8120012 104.3574997  24.9699988  75.2099375 104.1137090  24.3914129
  74.9900012 106.9364997  29.1849988  75.8230012 106.5584997  28.9049988
  75.1020012 107.8794997  29.0659988  75.1192647 107.0122218  29.1305487
  73.4760012 109.8144997  31.4919988  72.8290012 110.1394997  32.1179988
  72.9590012 109.3744997  30.8179988  73.3174029 109.7995004  31.4865827
  75.4990012 104.0524997  20.6289988  74.9770012 104.4094997  19.9099988
  75.4660012 104.7274997  21.3069988  75.4231634 104.1925413  20.6223145
  73.8480012 101.2924997  19.1799988  73.9440012 101.9594997  18.4989988
  73.7080012 100.4764997  18.6979988  73.8422135 101.2734500  19.0218491
  73.0170012 102.6724997  24.8009988  72.8670012 101.7274997  24.7799988
  72.6640012 102.9534997  25.6439988  72.9486625 102.5810441  24.9122346
  58.0530012 104.7504997  28.8109988  58.2370012 104.6684997  27.8749988
  58.9020012 104.6264997  29.2349988  58.1930139 104.7225003  28.7401455
  73.8740012 104.6424997  34.4389988  74.4570012 103.9084997  34.6309988
  74.4380012 105.4144997  34.4859988  74.0299769 104.6464227  34.4716159
  75.3700012 102.5454997  35.1239988  74.5070012 102.1664997  34.9579988
  75.9750012 101.8064997  35.0499988  75.3335979 102.3938023  35.0912817
  73.0950012  98.7004997  18.2969988  73.7060012  98.3294997  18.9339988
  72.2590012  98.2794997  18.4929988  73.0655032  98.5927554  18.4107035
  72.7280012 100.2554997  23.2629988  73.0080012  99.3484997  23.3869988
  73.4870012 100.6894997  22.8739988  72.8689277 100.1900942  23.2273682
  73.3400012 100.8364997  28.6989988  74.2730012 101.0484997  28.6649988
  73.1050012 100.9384997  29.6209988  73.4358036 100.8792769  28.8189976
  73.3690012 101.5734997  31.4749988  72.5260012 101.8414997  31.8409988
  73.8110012 102.3954997  31.2639988  73.3134158 101.7213291  31.4965491
  57.6500012 100.0214997  34.9519988  58.5700012  99.8994997  35.1879988
  57.2010012  99.2714997  35.3409988  57.7151580  99.9033727  35.0369006
  75.6520012  95.5534997  36.8279988  76.0020012  94.8994997  36.2229988
  75.7990012  96.3904997  36.3889988  75.7198419  95.5771591  36.6857118
  73.3410012  97.5184997  23.3109988  73.5240012  97.0694997  24.1369988
  72.7420012  96.9334997  22.8479988  73.2850202  97.3779975  23.3613275
  58.8710012  98.3334997  27.8429988  59.3170012  97.5414997  28.1449988
  59.3380012  99.0494997  28.2739988  58.9950172  98.3220624  27.9424820
  57.1750012 101.3324997  28.9119988  57.6670012 101.1114997  28.1209988
  57.5380012 102.1734997  29.1929988  57.2913126 101.4158357  28.8417531
  75.1720012  97.6624997  35.1779988  74.2540012  97.9334997  35.1419988
  75.2950012  97.1274997  34.3929988  75.0631066  97.6272892  35.0670487
  75.2080012  97.5854997  19.8389988  75.6200012  96.8644997  19.3639988
  75.8900012  98.2554997  19.8979988  75.3565885  97.5772368  19.7818915
  57.4890012  97.5904997  22.9659988  56.5640012  97.7994997  22.8369988
  57.9430012  98.0744997  22.2769988  57.4237368  97.6845993  22.8551226
  72.2600012 112.5744997  24.9119988  72.9120012 112.2274997  24.3039988
  72.7700012 113.0634997  25.5579988  72.4182637 112.5930597  24.9160236
  57.4530012  96.3284997  31.3109988  56.7880012  96.0824997  31.9539988
  57.0100012  96.9504997  30.7329988  57.3020956  96.3788632  31.3209352
  59.6450012 109.5034997  35.4549988  58.8240012 109.6784997  34.9949988
  59.3920012 109.4304997  36.3759988  59.4986164 109.5175622  35.5164923
  62.5990012 110.4784997  31.7139988  62.1740012 111.2874997  31.4309988
  63.5030012 110.5634997  31.4119988  62.6630271 110.6008469  31.6343776
  66.9100012 111.8774997  34.6729988  67.0950012 111.5434997  35.5509988
  67.7560012 112.1864997  34.3509988  67.0497539 111.8736047  34.7495605
  69.2550012 113.1634997  33.9169988  69.9320012 112.5304997  33.6769988
  69.5770012 113.5644997  34.7239988  69.3911637 113.1311154  33.9932793
  74.1720012  95.7524997  32.9969988  73.3600012  96.0774997  32.6089988
  74.4050012  94.9924997  32.4639988  74.0923423  95.6942436  32.8718253
  60.0010012 113.7344997  31.7609988  59.2800012 114.1744997  31.3099988
  59.6350012 113.4834997  32.6099988  59.8529804 113.7607698  31.8139840
  62.4680012 113.3344997  30.7909988  61.6030012 113.4064997  31.1949988
  62.4130012 113.8814997  30.0069988  62.3422085 113.4182685  30.7403362
  67.1780012 113.2224997  29.9659988  66.7220012 113.7514997  29.3119988
  67.3410012 113.8254997  30.6919988  67.1375585 113.3764468  29.9745062
  69.5060012 112.1004997  30.9109988  68.6010012 112.2654997  30.6459988
  69.9350012 112.9534997  30.8459988  69.4400799 112.2384483  30.8659182
  72.1100012 113.6704997  31.2059988  71.9280012 114.5864997  30.9959988
  72.2870012 113.2604997  30.3599988  72.1090210 113.7404822  31.0627885
  59.4150012 112.3574997  28.6709988  59.3970012 111.9324997  29.5289988
  60.2200012 112.0394997  28.2629988  59.5213875 112.2563812  28.7331655
  61.5570012 111.0674997  27.3259988  61.3380012 110.1514997  27.4959988
  62.3810012 111.2074997  27.7919988  61.6384420 110.9610520  27.4122774
  64.0940012 111.5374997  28.1749988  64.3070012 110.6494997  27.8879988
  64.1580012 111.5034997  29.1289988  64.1318231 111.4113102  28.2647397
  67.6020012  97.2014997  27.3189988  66.9280012  96.5724997  27.5749988
  68.1660012  96.7174997  26.7159988  67.5859230  97.0498744  27.2725340
  72.7450012  95.3094997  27.4319988  73.3490012  95.8564997  26.9299988
  71.8750012  95.6284997  27.1919988  72.7101241  95.4275806  27.3307654
  74.4720012  96.4474997  25.7649988  75.0840012  95.9334997  25.2389988
  74.8540012  97.3254997  25.7889988  74.6074540  96.4957140  25.6961830
  59.9290012  95.8354997  25.1409988  59.1520012  95.6014997  24.6339988
  60.4590012  95.0384997  25.1499988  59.8942330  95.6956988  25.0727742
  58.7650012  95.6334997  20.9449988  59.2040012  96.2444997  20.3529988
  58.1320012  96.1714997  21.4189988  58.7394514  95.7899257  20.9280930
  64.5080012  95.7624997  24.9549988  65.3830012  96.1504997  24.9249988
  64.3720012  95.5474997  25.8769988  64.6093695  95.7865184  25.0756440
  70.0650012  95.7924997  26.6039988  70.1410012  95.8874997  25.6539988
  69.7900012  94.8844997  26.7329988  70.0382321  95.6827867  26.4915079
  71.4180012  95.8184997  22.2959988  70.7160012  96.4334997  22.0869988
  70.9740012  94.9804997  22.4269988  71.2616330  95.7895783  22.2850328
  58.6660012 111.5814997  21.8429988  57.9810012 111.5434997  21.1749988
  58.6700012 112.4944997  22.1309988  58.5728193 111.6997016  21.7905284
  60.6260012  97.5494997  19.3869988  61.1180012  96.9194997  18.8599988
  61.2500012  97.8454997  20.0509988  60.7775446  97.5033199  19.4045980
  65.6520012  97.8424997  21.8439988  65.8300012  97.1964997  22.5269988
  65.5990012  98.6764997  22.3119988  65.6691829  97.8667985  22.0005940
  67.5310012 112.7914997  20.2399988  68.3970012 113.1574997  20.0619988
  67.2840012 112.3514997  19.4259988  67.6162392 112.7821756  20.1056289
  74.2400012 112.3544997  22.9189988  74.0450012 111.6064997  22.3539988
  74.2010012 113.1124997  22.3359988  74.2080380 112.3546099  22.7628384
  59.8870012  96.3494997  34.6589988  59.5210012  95.5844997  35.1019988
  60.8000012  96.3784997  34.9459988  59.9602790  96.2487224  34.7584070
  61.8600012  95.7004997  36.1949988  62.7580012  95.4264997  36.0099988
  61.4730012  94.9574997  36.6589988  61.9306612  95.5625914  36.2323643
  60.4840012 112.5014997  18.8679988  60.2170012 112.7884997  19.7409988
  61.2560012 111.9554997  19.0199988  60.5517488 112.4670294  19.0081050
  70.2810012  95.0324997  36.3769988  70.3580012  94.6064997  37.2309988
  71.1750012  95.0464997  36.0339988  70.4123428  94.9760879  36.4475310
  73.4570012 111.1054997  35.0689988  72.6750012 110.9194997  34.5499988
  73.3850012 112.0344997  35.2869988  73.3401777 111.2056492  35.0274048
  87.8630012 104.9914997  25.0999988  87.9520012 105.9354997  24.9679988
  87.2250012 104.7164997  24.4419988  87.7889081 105.0834830  24.9929614
  86.7960012 104.2464997  28.5189988  86.7580012 103.6004997  29.2239988
  86.4740012 103.7804997  27.7479988  86.7472333 104.0949408  28.5112978
  79.1650012 103.8614997  30.1119988  79.2060012 103.2354997  30.8349988
  79.8680012 104.4854997  30.2939988  79.2656363 103.8601196  30.2356044
  90.5020012 107.1854997  26.8199988  90.0620012 106.4654997  27.2709988
  90.4890012 107.9064997  27.4499988  90.4400226 107.1843731  26.9668494
  80.0880012 108.3114997  28.6469988  79.7190012 107.5094997  28.2769988
  81.0290012 108.1424997  28.6929988  80.1647289 108.1790153  28.6026316
  76.6980012 101.9714997  24.0399988  76.2510012 102.8174997  24.0209988
  76.1370012 101.3914997  23.5239988  76.5609900 102.0089916  23.9676801
  77.4090012 104.1334997  26.1659988  77.6220012 103.3634997  26.6929988
  78.1470012 104.2224997  25.5619988  77.5378496 104.0401394  26.1565300
  87.6140012 112.2904997  27.0329988  88.2340012 111.6134997  26.7589988
  87.4060012 112.0724997  27.9409988  87.6706904 112.1683870  27.1183365
  85.1860012 106.6794997  28.9249988  85.4900012 105.9934997  28.3299988
  85.9070012 106.7974997  29.5429988  85.3250671 106.6016305  28.9271816
  93.8490012  98.2804997  29.7859988  93.8980012  98.8904997  30.5219988
  94.2740012  98.7414997  29.0629988  93.9131824  98.4263741  29.7890205
  88.3270012 101.0734997  29.2529988  88.4690012 100.1274997  29.2729988
  88.2200012 101.2804997  28.3239988  88.3319863 100.9719534  29.1302339
  81.4810012  99.1744997  26.5249988  81.5250012 100.0344997  26.1069988
  81.0240012  98.6224997  25.8909988  81.4252185  99.2175799  26.3820299
  89.2040012  99.3054997  24.9259988  89.8500012  98.9764997  25.5509988
  89.7140012  99.8234997  24.3029988  89.3614264  99.3304611  24.9273862
  78.1020012 101.5714997  27.2869988  78.7550012 101.0214997  27.7189988
  78.1260012 101.2974997  26.3699988  78.1946683 101.4591466  27.2222123
  83.2580012 103.1214997  26.5019988  83.8740012 102.5954997  27.0119988
  82.6720012 102.4814997  26.0989988  83.2630810 102.9629208  26.5173173
  94.2400012  99.7584997  32.0219988  93.5520012 100.4164997  31.9259988
  94.2560012  99.5614997  32.9579988  94.1478525  99.8220462  32.1354808
  80.2920012  98.0924997  30.5989988  80.0730012  98.6224997  29.8329988
  79.6240012  98.3194997  31.2459988  80.1717600  98.1956906  30.5816379
  87.6610012 107.5924997  24.1429988  87.3650012 107.2704997  23.2919988
  87.3360012 108.4924997  24.1839988  87.5766371 107.6700215  24.0321801
  82.8610012 105.7684997  30.8859988  82.1210012 106.3664997  30.9899988
  83.5750012 106.3224997  30.5709988  82.8562237 105.9252831  30.8576465
  90.9680012  98.5964997  26.9059988  90.7520012  97.8304997  27.4389988
  91.6230012  99.0684997  27.4189988  91.0270632  98.5555889  27.0482861
  79.8850012  99.9844997  28.5509988  80.4990012 100.6174997  28.9249988
  80.3970012  99.5124997  27.8949988  80.0382296 100.0072370  28.5134252
  81.2680012 107.7324997  31.6739988  81.2630012 108.6124997  31.2959988
  80.4150012 107.6494997  32.0989988  81.1519464 107.8416117  31.6797907
  77.3890012 107.4034997  22.4559988  77.1170012 107.6324997  21.5669988
  77.4350012 108.2414997  22.9159988  77.3580094 107.5481213  22.3965697
  91.0140012 109.0254997  29.1679988  90.0730012 109.0834997  29.3299988
  91.2910012 109.9314997  29.0309988  90.9224679 109.1559443  29.1716815
  91.3150012  97.3114997  30.5859988  90.5790012  97.9224997  30.5479988
  91.9980012  97.7264997  30.0589988  91.3066541  97.4511374  30.5095832
  84.3180012  95.3984997  28.0519988  84.2010012  94.4494997  27.9969988
  83.4630012  95.7304997  28.3249988  84.1863733  95.3135409  28.0813897
  89.2660012 110.8064997  25.7939988  89.6920012 110.0994997  25.3089988
  89.5830012 111.6074997  25.3769988  89.3671019 110.8180994  25.6713130
  90.4260012 108.7074997  24.3019988  90.1680012 108.0174997  23.6909988
  90.4970012 108.2644997  25.1479988  90.4002856 108.5532124  24.3326885
  92.1120012 107.2734997  32.7799988  92.2520012 106.6824997  32.0399988
  92.2790012 108.1464997  32.4229988  92.1536778 107.3106426  32.6306965
  86.5850012 104.2354997  22.5519988  85.8730012 104.7704997  22.1999988
  87.2760012 104.2914997  21.8919988  86.5810132 104.3162543  22.4146289
  86.6380012 102.6934997  19.5909988  87.3390012 102.7154997  20.2419988
  86.9410012 102.0654997  18.9349988  86.7747830 102.6116566  19.5913711
  93.9540012 103.6134997  30.8459988  93.3010012 104.3084997  30.9349988
  94.4190012 103.8234997  30.0359988  93.9275390 103.7369425  30.7486883
  89.9900012 104.4454997  23.5039988  89.2580012 104.6734997  24.0769988
  90.4380012 103.7314997  23.9589988  89.9503095 104.3802571  23.6439119
  89.8880012 102.6194997  32.5709988  89.9680012 103.3824997  33.1429988
  89.2860012 102.8984997  31.8809988  89.8175756 102.7617134  32.5560589
  81.6360012 105.0754997  25.3859988  81.3050012 104.7054997  24.5679988
  82.2240012 104.4054997  25.7329988  81.6701873 104.9341156  25.3208102
  83.0020012 108.5034997  28.0679988  82.9080012 107.9254997  27.3109988
  83.7320012 108.1324997  28.5639988  83.0877981 108.3742390  28.0314165
  82.0020012 103.8444997  29.0199988  82.5680012 103.9654997  28.2569988
  82.3210012 104.4814997  29.6589988  82.1225786 103.9471884  29.0020040
  88.3110012 109.3474997  29.7539988  88.0710012 110.0094997  30.4019988
  88.1130012 108.5134997  30.1789988  88.2513808 109.3253134  29.9001524
  82.8820012 108.2434997  33.7369988  82.5710012 109.0254997  34.1919988
  82.2320012 108.0904997  33.0509988  82.7515558 108.3299105  33.7065871
  88.8610012 103.6074997  21.1889988  89.4410012 103.7574997  21.9359988
  89.2750012 104.0784997  20.4659988  88.9962830 103.6916841  21.1934134
  79.8020012 104.4414997  32.9659988  79.8730012 105.0924997  33.6639988
  78.9120012 104.5444997  32.6309988  79.6913117 104.5445936  33.0162700
  86.5880012 110.3444997  24.6239988  87.0620012 110.6394997  25.4019988
  86.0250012 111.0824997  24.3909988  86.5767653 110.4846932  24.6990136
  81.1220012 110.3154997  34.4999988  81.1290012 110.1794997  33.5529988
  80.2060012 110.1974997  34.7519988  80.9991714 110.2809430  34.4044666
  92.5600012  95.3574997  21.0019988  91.6600012  95.4964997  21.2969988
  92.8120012  96.1884997  20.5999988  92.4708702  95.4889074  20.9880205
  80.6260012 104.1454997  22.9759988  80.3340012 104.9134997  22.4849988
  79.9520012 103.4854997  22.8129988  80.4949081 104.1614406  22.8867340
  93.7490012 109.7234997  19.3779988  93.8230012 110.6624997  19.5489988
  94.6550012 109.4184997  19.3219988  93.8815100 109.8106722  19.3938119
  76.7190012 106.5084997  31.7909988  76.2180012 106.4804997  30.9759988
  76.7240012 105.6024997  32.0999988  76.6511526 106.3822278  31.7212872
  76.4690012 109.2884997  28.6749988  77.4150012 109.1444997  28.6559988
  76.3570012 110.0724997  29.2119988  76.5832727 109.3748046  28.7450072
  94.6670012 109.9544997  34.3569988  94.6180012 108.9994997  34.3199988
  93.8400012 110.2224997  34.7579988  94.5484940 109.8598998  34.4061375
  85.6460012 109.5284997  33.2329988  85.7330012 110.3544997  33.7079988
  84.7820012 109.1984997  33.4819988  85.5411964 109.5969878  33.3316549
  86.0600012 113.3004997  23.0389988  85.9850012 113.1794997  22.0929988
  86.0930012 114.2504997  23.1579988  86.0541848 113.4122500  22.9254834
  79.7130012 112.0894997  24.8199988  79.8660012 111.7414997  25.6989988
  78.8630012 111.7334997  24.5649988  79.6188962 111.9936650  24.9058340
  89.1620012 112.4544997  20.0409988  89.5370012 111.7104997  19.5709988
  89.1660012 112.1844997  20.9599988  89.2138915 112.3161486  20.1007824
  88.8310012 112.3804997  22.7909988  87.8950012 112.4804997  22.9689988
  89.1110012 111.6714997  23.3689988  88.7408255 112.2982711  22.8935391
  91.8190012 101.4474997  34.8369988  91.4120012 101.9284997  34.1159988
  91.8600012 100.5424997  34.5289988  91.7688437 101.3909374  34.6966683
  78.9680012 107.8314997  32.8339988  79.1840012 107.4704997  33.6929988
  78.1130012 107.4574997  32.6239988  78.8819292 107.7314111  32.9233386
  81.5870012  96.3014997  28.8289988  80.7250012  96.2144997  28.4219988
  81.5640012  97.1574997  29.2569988  81.4660330  96.4052765  28.8311863
  86.2500012  96.0234997  32.2039988  86.6700012  95.6084997  32.9569988
  85.3170012  95.8454997  32.3209988  86.1813644  95.9425900  32.3229539
  89.5760012  99.7794997  33.0569988  89.0620012  99.6534997  33.8549988
  89.4210012 100.6914997  32.8129988  89.4846852  99.8856132  33.1332158
  90.3390012 104.6404997  18.8189988  90.3810012 104.4174997  17.8889988
  91.1880012 105.0394997  19.0089988  90.4595396 104.6639155  18.7173627
  85.9110012  98.5164997  19.4889988  85.6580012  98.5354997  20.4119988
  85.6550012  97.6444997  19.1879988  85.8417790  98.4012437  19.5746263
  81.6780012 101.2674997  29.9239988  81.0360012 101.2264997  30.6329988
  81.7150012 102.1934997  29.6869988  81.5951324 101.3871559  29.9889824
  81.6750012 101.4884997  24.8359988  80.7820012 101.1474997  24.7779988
  82.1250012 101.1114997  24.0809988  81.6137305 101.3908484  24.7259177
  87.2100012 101.9044997  23.6529988  86.8010012 102.7194997  23.3619988
  87.9310012 101.7644997  23.0389988  87.2514537 101.9972018  23.5301342
  86.3120012 102.0794997  35.1409988  85.7500012 101.3754997  35.4619988
  87.1390012 101.9594997  35.6089988  86.3467095 101.9667883  35.2482330
  88.2150012 101.3504997  26.4669988  88.0200012 101.9554997  25.7519988
  88.3960012 100.5164997  26.0329988  88.2127614 101.3206300  26.3104405
  79.4280012 101.5874997  31.7909988  79.3900012 101.9874997  32.6599988
  78.9370012 100.7704997  31.8819988  79.3564684 101.5318069  31.9221059
  82.7940012  98.9614997  18.5899988  82.3630012  98.5164997  19.3199988
  82.0760012  99.3334997  18.0779988  82.6379438  98.9508940  18.6206799
  76.0360012  98.7034997  25.6419988  76.6670012  98.6744997  26.3609988
  76.4850012  98.2784997  24.9119988  76.1830774  98.6420492  25.6416553
  77.3100012  99.4494997  21.0659988  77.7840012 100.0404997  20.4809988
  76.5930012  99.9804997  21.4129988  77.2779341  99.6020867  21.0328836
  87.4790012 102.9884997  31.1389988  87.8020012 102.3574997  30.4959988
  87.0390012 102.4534997  31.7989988  87.4636895 102.8298441  31.1402850
  84.2560012  98.9154997  25.9229988  83.3450012  98.9724997  26.2109988
  84.7620012  98.8554997  26.7329988  84.1995413  98.9151985  26.0720622
  79.0850012 100.5444997  24.7489988  78.1950012 100.6444997  24.4089988
  79.3810012  99.7024997  24.4029988  79.0032823 100.4443546  24.6557213
  82.7380012 100.5444997  22.4059988  83.6690012 100.6734997  22.5839988
  82.5230012 101.2144997  21.7559988  82.8364247 100.6526565  22.3425747
  88.6610012  98.1504997  29.1869988  87.9850012  98.2814997  29.8509988
  88.1760012  97.9954997  28.3769988  88.5027145  98.1474905  29.1684517
  81.4120012 101.7394997  19.9729988  80.8690012 101.3594997  19.2809988
  82.2450012 101.9334997  19.5439988  81.4504399 101.7138124  19.8204526
  91.9490012 113.8224997  35.4639988  92.1490012 114.2464997  34.6289988
  92.6040012 114.1654997  36.0709988  92.0650051 113.9269648  35.4317836
  79.5470012 106.2964997  35.0719988  80.2790012 106.5504997  35.6329988
  78.7670012 106.5004997  35.5869988  79.5418232 106.3589177  35.2185760
  85.5760012 101.7034997  27.8099988  86.1410012 101.1564997  27.2629988
  85.4290012 101.1814997  28.5979988  85.6332918 101.5582024  27.8418454
  80.5780012  97.8394997  24.2279988  80.2610012  96.9374997  24.1929988
  81.3600012  97.8414997  23.6749988  80.6402284  97.7161628  24.1484783
  84.2030012 100.0914997  30.2239988  83.3670012 100.5454997  30.3339988
  84.7270012 100.3674997  30.9759988  84.1594414 100.1909376  30.3407136
  84.7470012 106.3044997  21.9079988  84.0020012 105.7974997  21.5859988
  84.6130012 106.3534997  22.8549988  84.6268776 106.2416940  21.9918647
  91.8970012 105.4374997  30.6949988  92.5390012 105.8944997  30.1509988
  91.0670012 105.5504997  30.2319988  91.8725963 105.5152704  30.5580177
  88.6450012  99.1184997  20.1079988  87.7060012  99.2304997  19.9559988
  88.9420012  99.9754997  20.4139988  88.5567666  99.2496443  20.1285768
  86.2660012 106.4884997  33.1449988  85.9210012 106.1074997  33.9519988
  86.0660012 107.4224997  33.2169988  86.1918061 106.5625228  33.2650961
  89.3630012 100.9854997  21.7679988  90.2550012 100.8484997  22.0869988
  89.4200012 101.7764997  21.2319988  89.4926285 101.0736660  21.7391691
  79.8720012 105.5994997  27.6779988  80.6170012 105.5974997  27.0769988
  79.9500012 104.7764997  28.1599988  79.9845518 105.4879315  27.6608929
  86.8730012 107.7634997  20.9339988  86.5770012 108.5894997  21.3149988
  86.1700012 107.1434997  21.1299988  86.7374914 107.7928199  21.0126443
  76.8800012 104.0604997  32.9929988  77.1030012 103.6424997  33.8249988
  76.2780012 103.4474997  32.5699988  76.8291759 103.9204668  33.0497022
  83.8960012 103.5774997  35.2059988  83.6000012 103.4114997  34.3109988
  84.8280012 103.3574997  35.1949988  83.9814166 103.5250640  35.0820536
  88.5170012 108.9504997  33.0959988  87.6160012 109.1334997  32.8279988
  88.5510012 109.2094997  34.0169988  88.3983041 109.0105512  33.1838197
  94.2480012 101.1954997  21.4629988  93.6940012 100.7994997  20.7909988
  94.3480012 102.1054997  21.1849988  94.1857059 101.2643586  21.3334401
  94.2110012 106.9954997  34.2999988  93.3600012 107.2334997  33.9329988
  94.8020012 106.9784997  33.5469988  94.1742487 107.0258258  34.1478893
  92.5430012 109.9814997  21.9279988  92.1700012 109.1554997  22.2369988
  92.8210012 109.7984997  21.0309988  92.5295630 109.8437303  21.8489626
  89.7040012 104.7894997  28.9489988  88.7750012 104.5574997  28.9219988
  90.1550012 104.0124997  28.6189988  89.6379216 104.6527238  28.9006917
  82.2470012 109.1174997  25.0819988  82.7740012 109.8904997  24.8819988
  81.3670012 109.3424997  24.7809988  82.2001773 109.2538005  25.0139010
  78.0020012 103.9794997  19.6689988  78.6180012 104.6064997  20.0489988
  77.1400012 104.2954997  19.9409988  77.9697698 104.1079430  19.7577183
  83.6740012 106.7804997  24.6589988  83.4330012 107.7054997  24.6999988
  82.9330012 106.3214997  25.0549988  83.5408409 106.8451421  24.7181377
  84.1890012 110.9294997  30.9739988  84.5510012 111.7844997  30.7399988
  84.7200012 110.6374997  31.7139988  84.3104473 111.0071060  31.0420855
  82.3570012 111.8024997  24.2039988  81.4070012 111.9074997  24.2549988
  82.7090012 112.6224997  24.5489988  82.2744203 111.9278314  24.2576650
  87.7330012 107.0284997  30.6739988  87.3070012 106.8014997  31.5009988
  88.3130012 106.2904997  30.4919988  87.7531868 106.8975299  30.7625830
  89.9360012 107.9574997  19.7479988  90.2890012 107.5774997  20.5529988
  88.9870012 107.8644997  19.8349988  89.8560441 107.8929596  19.8698559
  90.3910012 111.5804997  33.1439988  89.7900012 111.0254997  32.6479988
  90.6730012 112.2474997  32.5179988  90.3468519 111.5946841  32.9914952
  94.4390012 112.4374997  19.9489988  95.1830012 113.0234997  19.8089988
  93.7450012 113.0054997  20.2829988  94.4470292 112.5945582  19.9749961
  78.5140012  98.8134997  32.5509988  77.6210012  99.1524997  32.4829988
  78.4150012  97.9584997  32.9689988  78.3784164  98.7442588  32.5982235
  90.8020012 106.6304997  21.9749988  90.5240012 105.9024997  22.5309988
  91.7290012 106.7494997  22.1799988  90.8893124 106.5468802  22.0788845
  78.1650012 110.6184997  30.9859988  78.3820012 109.6864997  30.9549988
  78.4110012 110.8924997  31.8689988  78.2279549 110.5280636  31.1011763
  84.0270012 109.0694997  18.1949988  84.2660012 108.3214997  17.6479988
  83.7580012 108.6814997  19.0279988  84.0233675 108.9146638  18.2326865
  82.9640012 108.6394997  20.6519988  83.1100012 108.1194997  21.4419988
  82.9610012 109.5464997  20.9579988  82.9835989 108.6908853  20.8016088
  79.4170012 105.8924997  21.1619988  78.7310012 106.2444997  21.7289988
  79.9390012 106.6554997  20.9149988  79.3936852 106.0438578  21.2062118
  87.2480012  98.5544997  31.4409988  87.9470012  98.6284997  32.0909988
  86.8670012  97.6904997  31.5949988  87.2921767  98.4477624  31.5508322
  88.0330012  98.2064997  22.5379988  88.2530012  98.6784997  21.7349988
  88.5910012  98.6014997  23.2079988  88.1384968  98.3244285  22.5187331
  85.7010012 110.3374997  21.4009988  84.8850012 110.8344997  21.4529988
  86.2310012 110.8124997  20.7609988  85.6609161 110.4697722  21.3215956
  85.2330012  99.9344997  23.3729988  86.0450012 100.4394997  23.4189988
  84.9880012  99.7894997  24.2869988  85.3110520  99.9840375  23.5028517
  85.7680012 100.9204997  32.5579988  85.8870012 101.4944997  33.3149988
  86.4240012 100.2324997  32.6719988  85.8729757 100.9061079  32.6770825
  86.1160012  97.0154997  24.3109988  85.7700012  97.6334997  24.9559988
  86.7750012  97.5164997  23.8299988  86.1577826  97.1675802  24.3340971
  83.0400012 111.3814997  21.3829988  83.2000012 112.1804997  20.8819988
  82.8420012 111.6874997  22.2679988  83.0351649 111.5324469  21.4339815
  81.7740012  98.0784997  20.9979988  81.6910012  98.9674997  21.3449988
  82.6640012  97.8134997  21.2299988  81.8829469  98.1641430  21.0767626
  91.9730012  98.8274997  33.3929988  91.0560012  99.0904997  33.3049988
  92.3080012  98.8244997  32.4959988  91.8929900  98.8630224  33.2597919
  90.5750012 102.5784997  27.4879988  89.7770012 102.1634997  27.1599988
  91.0200012 101.8874997  27.9789988  90.5259885 102.4283543  27.5094889
  80.0330012 108.5064997  20.0589988  80.6250012 109.2054997  20.3349988
  80.4920012 108.0734997  19.3389988  80.1761142 108.5437049  19.9994830
  78.3490012 101.1704997  19.1749988  78.3040012 102.1094997  19.3529988
  77.4610012 100.9344997  18.9049988  78.2228574 101.2671892  19.1628912
  91.6610012 111.8344997  29.1109988  91.5060012 112.5124997  28.4539988
  92.5940012 111.9064997  29.3139988  91.7658500 111.9370170  29.0485119
  79.1570012  95.9524997  27.8479988  78.9280012  96.0114997  26.9199988
  78.7140012  95.1604997  28.1539988  79.0658530  95.8535753  27.7624786
  78.0870012 109.8924997  24.0079988  77.2550012 110.3654997  24.0359988
  78.6330012 110.4024997  23.4099988  78.0469739 110.0261871  23.9309716
  77.3750012 112.5054997  35.3379988  77.9160012 112.2884997  36.0979988
  76.8940012 111.6994997  35.1489988  77.3839345 112.3669514  35.4163076
  81.9730012 111.4244997  36.9589988  82.7400012 110.9654997  37.2999988
  81.9510012 111.1984997  36.0289988  82.0751434 111.3310409  36.8800043
  86.0650012 110.9324997  18.3339988  85.4210012 110.3014997  18.6549988
  86.8270012 110.4014997  18.1019988  86.0798077 110.7742920  18.3466011
  88.5500012 109.8044997  35.6879988  88.1990012 108.9484997  35.9309988
  89.2760012 109.9474997  36.2949988  88.6000769 109.7065636  35.8033619
  90.6690012 110.7494997  18.5679988  90.9520012 109.9554997  19.0199988
  91.4090012 110.9824997  18.0069988  90.8077486 110.6722803  18.5540698
  77.2820012 106.3154997  36.2929988  77.4260012 105.4134997  36.0059988
  76.5100012 106.6014997  35.8049988  77.1973322 106.2308261  36.1877881
  81.6240012 106.6594997  18.4249988  81.6880012 105.8654997  18.9559988
  82.2770012 106.5404997  17.7349988  81.7210241 106.5347148  18.4044317
  83.9380012 106.2854997  35.7249988  83.6090012 106.5564997  34.8679988
  84.0900012 105.3444997  35.6379988  83.9134809 106.1953862  35.5958244
  86.9760012 107.7064997  18.1609988  86.7070012 107.8864997  19.0619988
  86.7700012 106.7804997  18.0299988  86.9113825 107.6060152  18.2665214
  89.6720012 106.2014997  33.1089988  90.4180012 106.7894997  32.9889988
  88.9150012 106.7834997  33.1719988  89.6717554 106.3607011  33.1010907
  78.1150012 103.5154997  35.7129988  78.5230012 102.6584997  35.5919988
  77.8550012 103.5304997  36.6339988  78.1357568 103.4000807  35.8209588
  82.7730012 104.6314997  20.7309988  82.3130012 104.1474997  21.4169988
  83.0280012 103.9634997  20.0949988  82.7444902 104.4748731  20.7389334
  82.0620012 102.5244997  33.0869988  81.4440012 103.1994997  33.3669988
  82.4060012 102.8454997  32.2539988  82.0239615 102.6602721  33.0126581
  83.8440012 102.8744997  18.9929988  83.6640012 102.7204997  18.0659988
  84.7940012 102.9824997  19.0379988  83.9477776 102.8680175  18.8721843
  87.0820012 104.9964997  36.3639988  88.0350012 105.0794997  36.3369988
  86.9210012 104.2844997  36.9839988  87.1906426 104.9116746  36.4440579
  93.2340012 105.2294997  18.4389988  92.9600012 104.8044997  17.6259988
  93.2730012 106.1604997  18.2219988  93.2017699 105.2972484  18.2983610
  82.4010012  99.8794997  34.1689988  82.5510012  99.1504997  33.5669988
  82.4040012 100.6564997  33.6099988  82.4219302  99.8847851  34.0110692
  82.8140012  98.2494997  31.6619988  83.3500012  98.7004997  31.0099988
  81.9620012  98.1414997  31.2389988  82.7722178  98.2966390  31.5155756
  84.3960012 103.6884997  31.9009988  85.1460012 103.5324997  31.3279988
  84.0570012 104.5404997  31.6259988  84.4528921 103.7822968  31.7853561
  88.8110012 101.5034997  36.9299988  89.0040012 100.5724997  36.8179988
  89.6690012 101.9284997  36.9199988  88.9533020 101.4336389  36.9133361
  90.1280012 104.2924997  35.0069988  89.8470012 105.0014997  34.4299988
  91.0710012 104.2194997  34.8559988  90.2169027 104.3797646  34.9075551
  80.8800012 101.0774997  36.0809988  80.1130012 100.5454997  35.8709988
  81.5590012 100.7674997  35.4809988  80.8667022 100.9627506  35.9711648
  83.6200012  95.7054997  32.0929988  83.5210012  96.6524997  31.9879988
  82.8770012  95.3334997  31.6179988  83.5060564  95.7845902  32.0144560
  84.8840012 100.0274997  35.6569988  84.6480012  99.8074997  36.5589988
  84.1000012  99.8204997  35.1469988  84.7458628  99.9694760  35.7113932
  87.5990012  99.1544997  34.7329988  86.6520012  99.1864997  34.8649988
  87.9120012  98.5294997  35.3859988  87.5115475  99.0743207  34.8394455
  89.2330012  97.7884997  36.7379988  89.1370012  96.8364997  36.7319988
  88.9120012  98.0574997  37.5979988  89.1764070  97.6944035  36.8535441
  79.0600012  98.9984997  35.7849988  79.2720012  98.2914997  35.1749988
  78.9490012  98.5604997  36.6289988  79.0739721  98.8427084  35.8156843
  83.8410012  94.9994997  34.7649988  84.5530012  94.3594997  34.7509988
  83.7400012  95.2664997  33.8509988  83.9247939  94.9479938  34.6395650
  84.1950012  96.6824997  36.8179988  84.0630012  96.2064997  35.9979988
  83.5960012  97.4264997  36.7629988  84.0959071  96.7179618  36.6982886
  83.7410012 113.5654997  19.9949988  84.6740012 113.7234997  20.1379988
  83.4770012 114.2404997  19.3699988  83.8329510 113.6783611  19.9300741
  77.3100012 108.2014997  19.4769988  78.2240012 108.2804997  19.7509988
  77.3170012 107.5144997  18.8109988  77.4361131 108.1193961  19.4244393
  75.9590012 113.5944997  24.5549988  75.3120012 113.1324997  24.0219988
  76.3130012 112.9224997  25.1369988  75.9183849 113.4404723  24.5607959
  76.8290012 111.6754997  26.3589988  76.4940012 110.7954997  26.5309988
  77.0510012 112.0204997  27.2239988  76.8131783 111.6017500  26.4994208
  94.3770012 112.4844997  29.3399988  94.3560012 112.6694997  30.2789988
  95.0680012 113.0534997  28.9989988  94.4674618 112.5866606  29.4223864
  93.9410012 112.0524997  32.2619988  93.4530012 111.3164997  31.8909988
  94.4900012 111.6584997  32.9399988  93.9484872 111.8986249  32.3029160
  92.3910012 107.8414997  36.8999988  91.5250012 107.7364997  37.2939988
  92.7680012 108.6004997  37.3459988  92.3233308 107.9296900  37.0142393
  93.6920012 106.0984997  22.4139988  94.5420012 106.5194997  22.5409988
  93.6980012 105.3584997  23.0209988  93.8091372 106.0560803  22.5134344
  94.0870012 104.1514997  24.2379988  93.3600012 103.6724997  24.6349988
  94.6680012 104.3574997  24.9699988  94.0659375 104.1137090  24.3914129
  93.8460012 106.9364997  29.1849988  94.6790012 106.5584997  28.9049988
  93.9580012 107.8794997  29.0659988  93.9752647 107.0122218  29.1305487
  92.3320012 109.8144997  31.4919988  91.6850012 110.1394997  32.1179988
  91.8150012 109.3744997  30.8179988  92.1734029 109.7995004  31.4865827
  94.3550012 104.0524997  20.6289988  93.8330012 104.4094997  19.9099988
  94.3220012 104.7274997  21.3069988  94.2791634 104.1925413  20.6223145
  92.7040012 101.2924997  19.1799988  92.8000012 101.9594997  18.4989988
  92.5640012 100.4764997  18.6979988  92.6982135 101.2734500  19.0218491
  91.8730012 102.6724997  24.8009988  91.7230012 101.7274997  24.7799988
  91.5200012 102.9534997  25.6439988  91.8046625 102.5810441  24.9122346
  76.9090012 104.7504997  28.8109988  77.0930012 104.6684997  27.8749988
  77.7580012 104.6264997  29.2349988  77.0490139 104.7225003  28.7401455
  92.7300012 104.6424997  34.4389988  93.3130012 103.9084997  34.6309988
  93.2940012 105.4144997  34.4859988  92.8859769 104.6464227  34.4716159
  94.2260012 102.5454997  35.1239988  93.3630012 102.1664997  34.9579988
  94.8310012 101.8064997  35.0499988  94.1895979 102.3938023  35.0912817
  91.9510012  98.7004997  18.2969988  92.5620012  98.3294997  18.9339988
  91.1150012  98.2794997  18.4929988  91.9215032  98.5927554  18.4107035
  91.5840012 100.2554997  23.2629988  91.8640012  99.3484997  23.3869988
  92.3430012 100.6894997  22.8739988  91.7249277 100.1900942  23.2273682
  92.1960012 100.8364997  28.6989988  93.1290012 101.0484997  28.6649988
  91.9610012 100.9384997  29.6209988  92.2918036 100.8792769  28.8189976
  92.2250012 101.5734997  31.4749988  91.3820012 101.8414997  31.8409988
  92.6670012 102.3954997  31.2639988  92.1694158 101.7213291  31.4965491
  76.5060012 100.0214997  34.9519988  77.4260012  99.8994997  35.1879988
  76.0570012  99.2714997  35.3409988  76.5711580  99.9033727  35.0369006
  94.5080012  95.5534997  36.8279988  94.8580012  94.8994997  36.2229988
  94.6550012  96.3904997  36.3889988  94.5758419  95.5771591  36.6857118
  92.1970012  97.5184997  23.3109988  92.3800012  97.0694997  24.1369988
  91.5980012  96.9334997  22.8479988  92.1410202  97.3779975  23.3613275
  77.7270012  98.3334997  27.8429988  78.1730012  97.5414997  28.1449988
  78.1940012  99.0494997  28.2739988  77.8510172  98.3220624  27.9424820
  76.0310012 101.3324997  28.9119988  76.5230012 101.1114997  28.1209988
  76.3940012 102.1734997  29.1929988  76.1473126 101.4158357  28.8417531
  94.0280012  97.6624997  35.1779988  93.1100012  97.9334997  35.1419988
  94.1510012  97.1274997  34.3929988  93.9191066  97.6272892  35.0670487
  94.0640012  97.5854997  19.8389988  94.4760012  96.8644997  19.3639988
  94.7460012  98.2554997  19.8979988  94.2125885  97.5772368  19.7818915
  76.3450012  97.5904997  22.9659988  75.4200012  97.7994997  22.8369988
  76.7990012  98.0744997  22.2769988  76.2797368  97.6845993  22.8551226
  91.1160012 112.5744997  24.9119988  91.7680012 112.2274997  24.3039988
  91.6260012 113.0634997  25.5579988  91.2742637 112.5930597  24.9160236
  76.3090012  96.3284997  31.3109988  75.6440012  96.0824997  31.9539988
  75.8660012  96.9504997  30.7329988  76.1580956  96.3788632  31.3209352
  78.5010012 109.5034997  35.4549988  77.6800012 109.6784997  34.9949988
  78.2480012 109.4304997  36.3759988  78.3546164 109.5175622  35.5164923
  81.4550012 110.4784997  31.7139988  81.0300012 111.2874997  31.4309988
  82.3590012 110.5634997  31.4119988  81.5190271 110.6008469  31.6343776
  85.7660012 111.8774997  34.6729988  85.9510012 111.5434997  35.5509988
  86.6120012 112.1864997  34.3509988  85.9057539 111.8736047  34.7495605
  88.1110012 113.1634997  33.9169988  88.7880012 112.5304997  33.6769988
  88.4330012 113.5644997  34.7239988  88.2471637 113.1311154  33.9932793
  93.0280012  95.7524997  32.9969988  92.2160012  96.0774997  32.6089988
  93.2610012  94.9924997  32.4639988  92.9483423  95.6942436  32.8718253
  78.8570012 113.7344997  31.7609988  78.1360012 114.1744997  31.3099988
  78.4910012 113.4834997  32.6099988  78.7089804 113.7607698  31.8139840
  81.3240012 113.3344997  30.7909988  80.4590012 113.4064997  31.1949988
  81.2690012 113.8814997  30.0069988  81.1982085 113.4182685  30.7403362
  86.0340012 113.2224997  29.9659988  85.5780012 113.7514997  29.3119988
  86.1970012 113.8254997  30.6919988  85.9935585 113.3764468  29.9745062
  88.3620012 112.1004997  30.9109988  87.4570012 112.2654997  30.6459988
  88.7910012 112.9534997  30.8459988  88.2960799 112.2384483  30.8659182
  90.9660012 113.6704997  31.2059988  90.7840012 114.5864997  30.9959988
  91.1430012 113.2604997  30.3599988  90.9650210 113.7404822  31.0627885
  78.2710012 112.3574997  28.6709988  78.2530012 111.9324997  29.5289988
  79.0760012 112.0394997  28.2629988  78.3773875 112.2563812  28.7331655
  80.4130012 111.0674997  27.3259988  80.1940012 110.1514997  27.4959988
  81.2370012 111.2074997  27.7919988  80.4944420 110.9610520  27.4122774
  82.9500012 111.5374997  28.1749988  83.1630012 110.6494997  27.8879988
  83.0140012 111.5034997  29.1289988  82.9878231 111.4113102  28.2647397
  86.4580012  97.2014997  27.3189988  85.7840012  96.5724997  27.5749988
  87.0220012  96.7174997  26.7159988  86.4419230  97.0498744  27.2725340
  91.6010012  95.3094997  27.4319988  92.2050012  95.8564997  26.9299988
  90.7310012  95.6284997  27.1919988  91.5661241  95.4275806  27.3307654
  93.3280012  96.4474997  25.7649988  93.9400012  95.9334997  25.2389988
  93.7100012  97.3254997  25.7889988  93.4634540  96.4957140  25.6961830
  78.7850012  95.8354997  25.1409988  78.0080012  95.6014997  24.6339988
  79.3150012  95.0384997  25.1499988  78.7502330  95.6956988  25.0727742
  77.6210012  95.6334997  20.9449988  78.0600012  96.2444997  20.3529988
  76.9880012  96.1714997  21.4189988  77.5954514  95.7899257  20.9280930
  83.3640012  95.7624997  24.9549988  84.2390012  96.1504997  24.9249988
  83.2280012  95.5474997  25.8769988  83.4653695  95.7865184  25.0756440
  88.9210012  95.7924997  26.6039988  88.9970012  95.8874997  25.6539988
  88.6460012  94.8844997  26.7329988  88.8942321  95.6827867  26.4915079
  90.2740012  95.8184997  22.2959988  89.5720012  96.4334997  22.0869988
  89.8300012  94.9804997  22.4269988  90.1176330  95.7895783  22.2850328
  77.5220012 111.5814997  21.8429988  76.8370012 111.5434997  21.1749988
  77.5260012 112.4944997  22.1309988  77.4288193 111.6997016  21.7905284
  79.4820012  97.5494997  19.3869988  79.9740012  96.9194997  18.8599988
  80.1060012  97.8454997  20.0509988  79.6335446  97.5033199  19.4045980
  84.5080012  97.8424997  21.8439988  84.6860012  97.1964997  22.5269988
  84.4550012  98.6764997  22.3119988  84.5251829  97.8667985  22.0005940
  86.3870012 112.7914997  20.2399988  87.2530012 113.1574997  20.0619988
  86.1400012 112.3514997  19.4259988  86.4722392 112.7821756  20.1056289
  93.0960012 112.3544997  22.9189988  92.9010012 111.6064997  22.3539988
  93.0570012 113.1124997  22.3359988  93.0640380 112.3546099  22.7628384
  78.7430012  96.3494997  34.6589988  78.3770012  95.5844997  35.1019988
  79.6560012  96.3784997  34.9459988  78.8162790  96.2487224  34.7584070
  80.7160012  95.7004997  36.1949988  81.6140012  95.4264997  36.0099988
  80.3290012  94.9574997  36.6589988  80.7866612  95.5625914  36.2323643
  79.3400012 112.5014997  18.8679988  79.0730012 112.7884997  19.7409988
  80.1120012 111.9554997  19.0199988  79.4077488 112.4670294  19.0081050
  89.1370012  95.0324997  36.3769988  89.2140012  94.6064997  37.2309988
  90.0310012  95.0464997  36.0339988  89.2683428  94.9760879  36.4475310
  92.3130012 111.1054997  35.0689988  91.5310012 110.9194997  34.5499988
  92.2410012 112.0344997  35.2869988  92.1961777 111.2056492  35.0274048
 106.7190012 104.9914997  25.0999988 106.8080012 105.9354997  24.9679988
 106.0810012 104.7164997  24.4419988 106.6449081 105.0834830  24.9929614
 105.6520012 104.2464997  28.5189988 105.6140012 103.6004997  29.2239988
 105.3300012 103.7804997  27.7479988 105.6032333 104.0949408  28.5112978
  98.0210012 103.8614997  30.1119988  98.0620012 103.2354997  30.8349988
  98.7240012 104.4854997  30.2939988  98.1216363 103.8601196  30.2356044
 109.3580012 107.1854997  26.8199988 108.9180012 106.4654997  27.2709988
 109.3450012 107.9064997  27.4499988 109.2960226 107.1843731  26.9668494
  98.9440012 108.3114997  28.6469988  98.5750012 107.5094997  28.2769988
  99.8850012 108.1424997  28.6929988  99.0207289 108.1790153  28.6026316
  95.5540012 101.9714997  24.0399988  95.1070012 102.8174997  24.0209988
  94.9930012 101.3914997  23.5239988  95.4169900 102.0089916  23.9676801
  96.2650012 104.1334997  26.1659988  96.4780012 103.3634997  26.6929988
  97.0030012 104.2224997  25.5619988  96.3938496 104.0401394  26.1565300
 106.4700012 112.2904997  27.0329988 107.0900012 111.6134997  26.7589988
 106.2620012 112.0724997  27.9409988 106.5266904 112.1683870  27.1183365
 104.0420012 106.6794997  28.9249988 104.3460012 105.9934997  28.3299988
 104.7630012 106.7974997  29.5429988 104.1810671 106.6016305  28.9271816
 112.7050012  98.2804997  29.7859988 112.7540012  98.8904997  30.5219988
 113.1300012  98.7414997  29.0629988 112.7691824  98.4263741  29.7890205
 107.1830012 101.0734997  29.2529988 107.3250012 100.1274997  29.2729988
 107.0760012 101.2804997  28.3239988 107.1879864 100.9719534  29.1302339
 100.3370012  99.1744997  26.5249988 100.3810012 100.0344997  26.1069988
  99.8800012  98.6224997  25.8909988 100.2812185  99.2175799  26.3820299
 108.0600012  99.3054997  24.9259988 108.7060012  98.9764997  25.5509988
 108.5700012  99.8234997  24.3029988 108.2174264  99.3304611  24.9273862
  96.9580012 101.5714997  27.2869988  97.6110012 101.0214997  27.7189988
  96.9820012 101.2974997  26.3699988  97.0506683 101.4591466  27.2222123
 102.1140012 103.1214997  26.5019988 102.7300012 102.5954997  27.0119988
 101.5280012 102.4814997  26.0989988 102.1190810 102.9629208  26.5173173
 113.0960012  99.7584997  32.0219988 112.4080012 100.4164997  31.9259988
 113.1120012  99.5614997  32.9579988 113.0038525  99.8220462  32.1354808
  99.1480012  98.0924997  30.5989988  98.9290012  98.6224997  29.8329988
  98.4800012  98.3194997  31.2459988  99.0277600  98.1956906  30.5816379
 106.5170012 107.5924997  24.1429988 106.2210012 107.2704997  23.2919988
 106.1920012 108.4924997  24.1839988 106.4326371 107.6700215  24.0321801
 101.7170012 105.7684997  30.8859988 100.9770012 106.3664997  30.9899988
 102.4310012 106.3224997  30.5709988 101.7122237 105.9252831  30.8576465
 109.8240012  98.5964997  26.9059988 109.6080012  97.8304997  27.4389988
 110.4790012  99.0684997  27.4189988 109.8830632  98.5555889  27.0482861
  98.7410012  99.9844997  28.5509988  99.3550012 100.6174997  28.9249988
  99.2530012  99.5124997  27.8949988  98.8942296 100.0072370  28.5134252
 100.1240012 107.7324997  31.6739988 100.1190012 108.6124997  31.2959988
  99.2710012 107.6494997  32.0989988 100.0079464 107.8416117  31.6797907
  96.2450012 107.4034997  22.4559988  95.9730012 107.6324997  21.5669988
  96.2910012 108.2414997  22.9159988  96.2140094 107.5481213  22.3965697
 109.8700012 109.0254997  29.1679988 108.9290012 109.0834997  29.3299988
 110.1470012 109.9314997  29.0309988 109.7784679 109.1559443  29.1716815
 110.1710012  97.3114997  30.5859988 109.4350012  97.9224997  30.5479988
 110.8540012  97.7264997  30.0589988 110.1626541  97.4511374  30.5095832
 103.1740012  95.3984997  28.0519988 103.0570012  94.4494997  27.9969988
 102.3190012  95.7304997  28.3249988 103.0423733  95.3135409  28.0813897
 108.1220012 110.8064997  25.7939988 108.5480012 110.0994997  25.3089988
 108.4390012 111.6074997  25.3769988 108.2231019 110.8180994  25.6713130
 109.2820012 108.7074997  24.3019988 109.0240012 108.0174997  23.6909988
 109.3530012 108.2644997  25.1479988 109.2562856 108.5532124  24.3326885
 110.9680012 107.2734997  32.7799988 111.1080012 106.6824997  32.0399988
 111.1350012 108.1464997  32.4229988 111.0096778 107.3106426  32.6306965
 105.4410012 104.2354997  22.5519988 104.7290012 104.7704997  22.1999988
 106.1320012 104.2914997  21.8919988 105.4370132 104.3162543  22.4146289
 105.4940012 102.6934997  19.5909988 106.1950012 102.7154997  20.2419988
 105.7970012 102.0654997  18.9349988 105.6307830 102.6116566  19.5913711
 112.8100012 103.6134997  30.8459988 112.1570012 104.3084997  30.9349988
 113.2750012 103.8234997  30.0359988 112.7835390 103.7369425  30.7486883
 108.8460012 104.4454997  23.5039988 108.1140012 104.6734997  24.0769988
 109.2940012 103.7314997  23.9589988 108.8063095 104.3802571  23.6439119
 108.7440012 102.6194997  32.5709988 108.8240012 103.3824997  33.1429988
 108.1420012 102.8984997  31.8809988 108.6735756 102.7617134  32.5560589
 100.4920012 105.0754997  25.3859988 100.1610012 104.7054997  24.5679988
 101.0800012 104.4054997  25.7329988 100.5261873 104.9341156  25.3208102
 101.8580012 108.5034997  28.0679988 101.7640012 107.9254997  27.3109988
 102.5880012 108.1324997  28.5639988 101.9437981 108.3742390  28.0314165
 100.8580012 103.8444997  29.0199988 101.4240012 103.9654997  28.2569988
 101.1770012 104.4814997  29.6589988 100.9785786 103.9471884  29.0020040
 107.1670012 109.3474997  29.7539988 106.9270012 110.0094997  30.4019988
 106.9690012 108.5134997  30.1789988 107.1073808 109.3253134  29.9001524
 101.7380012 108.2434997  33.7369988 101.4270012 109.0254997  34.1919988
 101.0880012 108.0904997  33.0509988 101.6075558 108.3299105  33.7065871
 107.7170012 103.6074997  21.1889988 108.2970012 103.7574997  21.9359988
 108.1310012 104.0784997  20.4659988 107.8522830 103.6916841  21.1934134
  98.6580012 104.4414997  32.9659988  98.7290012 105.0924997  33.6639988
  97.7680012 104.5444997  32.6309988  98.5473117 104.5445936  33.0162700
 105.4440012 110.3444997  24.6239988 105.9180012 110.6394997  25.4019988
 104.8810012 111.0824997  24.3909988 105.4327653 110.4846932  24.6990136
  99.9780012 110.3154997  34.4999988  99.9850012 110.1794997  33.5529988
  99.0620012 110.1974997  34.7519988  99.8551714 110.2809430  34.4044666
 111.4160012  95.3574997  21.0019988 110.5160012  95.4964997  21.2969988
 111.6680012  96.1884997  20.5999988 111.3268702  95.4889074  20.9880205
  99.4820012 104.1454997  22.9759988  99.1900012 104.9134997  22.4849988
  98.8080012 103.4854997  22.8129988  99.3509081 104.1614406  22.8867340
 112.6050012 109.7234997  19.3779988 112.6790012 110.6624997  19.5489988
 113.5110012 109.4184997  19.3219988 112.7375100 109.8106722  19.3938119
  95.5750012 106.5084997  31.7909988  95.0740012 106.4804997  30.9759988
  95.5800012 105.6024997  32.0999988  95.5071526 106.3822278  31.7212872
  95.3250012 109.2884997  28.6749988  96.2710012 109.1444997  28.6559988
  95.2130012 110.0724997  29.2119988  95.4392727 109.3748046  28.7450072
 113.5230012 109.9544997  34.3569988 113.4740012 108.9994997  34.3199988
 112.6960012 110.2224997  34.7579988 113.4044940 109.8598998  34.4061375
 104.5020012 109.5284997  33.2329988 104.5890012 110.3544997  33.7079988
 103.6380012 109.1984997  33.4819988 104.3971964 109.5969878  33.3316549
 104.9160012 113.3004997  23.0389988 104.8410012 113.1794997  22.0929988
 104.9490012 114.2504997  23.1579988 104.9101848 113.4122500  22.9254834
  98.5690012 112.0894997  24.8199988  98.7220012 111.7414997  25.6989988
  97.7190012 111.7334997  24.5649988  98.4748962 111.9936650  24.9058340
 108.0180012 112.4544997  20.0409988 108.3930012 111.7104997  19.5709988
 108.0220012 112.1844997  20.9599988 108.0698915 112.3161486  20.1007824
 107.6870012 112.3804997  22.7909988 106.7510012 112.4804997  22.9689988
 107.9670012 111.6714997  23.3689988 107.5968255 112.2982711  22.8935391
 110.6750012 101.4474997  34.8369988 110.2680012 101.9284997  34.1159988
 110.7160012 100.5424997  34.5289988 110.6248437 101.3909374  34.6966683
  97.8240012 107.8314997  32.8339988  98.0400012 107.4704997  33.6929988
  96.9690012 107.4574997  32.6239988  97.7379292 107.7314111  32.9233386
 100.4430012  96.3014997  28.8289988  99.5810012  96.2144997  28.4219988
 100.4200012  97.1574997  29.2569988 100.3220330  96.4052765  28.8311863
 105.1060012  96.0234997  32.2039988 105.5260012  95.6084997  32.9569988
 104.1730012  95.8454997  32.3209988 105.0373644  95.9425900  32.3229539
 108.4320012  99.7794997  33.0569988 107.9180012  99.6534997  33.8549988
 108.2770012 100.6914997  32.8129988 108.3406852  99.8856132  33.1332158
 109.1950012 104.6404997  18.8189988 109.2370012 104.4174997  17.8889988
 110.0440012 105.0394997  19.0089988 109.3155396 104.6639155  18.7173627
 104.7670012  98.5164997  19.4889988 104.5140012  98.5354997  20.4119988
 104.5110012  97.6444997  19.1879988 104.6977790  98.4012437  19.5746263
 100.5340012 101.2674997  29.9239988  99.8920012 101.2264997  30.6329988
 100.5710012 102.1934997  29.6869988 100.4511324 101.3871559  29.9889824
 100.5310012 101.4884997  24.8359988  99.6380012 101.1474997  24.7779988
 100.9810012 101.1114997  24.0809988 100.4697305 101.3908484  24.7259177
 106.0660012 101.9044997  23.6529988 105.6570012 102.7194997  23.3619988
 106.7870012 101.7644997  23.0389988 106.1074537 101.9972018  23.5301342
 105.1680012 102.0794997  35.1409988 104.6060012 101.3754997  35.4619988
 105.9950012 101.9594997  35.6089988 105.2027095 101.9667883  35.2482330
 107.0710012 101.3504997  26.4669988 106.8760012 101.9554997  25.7519988
 107.2520012 100.5164997  26.0329988 107.0687614 101.3206300  26.3104405
  98.2840012 101.5874997  31.7909988  98.2460012 101.9874997  32.6599988
  97.7930012 100.7704997  31.8819988  98.2124684 101.5318069  31.9221059
 101.6500012  98.9614997  18.5899988 101.2190012  98.5164997  19.3199988
 100.9320012  99.3334997  18.0779988 101.4939438  98.9508940  18.6206799
  94.8920012  98.7034997  25.6419988  95.5230012  98.6744997  26.3609988
  95.3410012  98.2784997  24.9119988  95.0390774  98.6420492  25.6416553
  96.1660012  99.4494997  21.0659988  96.6400012 100.0404997  20.4809988
  95.4490012  99.9804997  21.4129988  96.1339341  99.6020867  21.0328836
 106.3350012 102.9884997  31.1389988 106.6580012 102.3574997  30.4959988
 105.8950012 102.4534997  31.7989988 106.3196895 102.8298441  31.1402850
 103.1120012  98.9154997  25.9229988 102.2010012  98.9724997  26.2109988
 103.6180012  98.8554997  26.7329988 103.0555413  98.9151985  26.0720622
  97.9410012 100.5444997  24.7489988  97.0510012 100.6444997  24.4089988
  98.2370012  99.7024997  24.4029988  97.8592823 100.4443545  24.6557213
 101.5940012 100.5444997  22.4059988 102.5250012 100.6734997  22.5839988
 101.3790012 101.2144997  21.7559988 101.6924247 100.6526565  22.3425747
 107.5170012  98.1504997  29.1869988 106.8410012  98.2814997  29.8509988
 107.0320012  97.9954997  28.3769988 107.3587145  98.1474905  29.1684517
 100.2680012 101.7394997  19.9729988  99.7250012 101.3594997  19.2809988
 101.1010012 101.9334997  19.5439988 100.3064399 101.7138124  19.8204526
 110.8050012 113.8224997  35.4639988 111.0050012 114.2464997  34.6289988
 111.4600012 114.1654997  36.0709988 110.9210051 113.9269648  35.4317836
  98.4030012 106.2964997  35.0719988  99.1350012 106.5504997  35.6329988
  97.6230012 106.5004997  35.5869988  98.3978232 106.3589177  35.2185760
 104.4320012 101.7034997  27.8099988 104.9970012 101.1564997  27.2629988
 104.2850012 101.1814997  28.5979988 104.4892918 101.5582024  27.8418454
  99.4340012  97.8394997  24.2279988  99.1170012  96.9374997  24.1929988
 100.2160012  97.8414997  23.6749988  99.4962284  97.7161628  24.1484783
 103.0590012 100.0914997  30.2239988 102.2230012 100.5454997  30.3339988
 103.5830012 100.3674997  30.9759988 103.0154414 100.1909376  30.3407136
 103.6030012 106.3044997  21.9079988 102.8580012 105.7974997  21.5859988
 103.4690012 106.3534997  22.8549988 103.4828776 106.2416940  21.9918647
 110.7530012 105.4374997  30.6949988 111.3950012 105.8944997  30.1509988
 109.9230012 105.5504997  30.2319988 110.7285963 105.5152704  30.5580177
 107.5010012  99.1184997  20.1079988 106.5620012  99.2304997  19.9559988
 107.7980012  99.9754997  20.4139988 107.4127666  99.2496443  20.1285768
 105.1220012 106.4884997  33.1449988 104.7770012 106.1074997  33.9519988
 104.9220012 107.4224997  33.2169988 105.0478061 106.5625228  33.2650961
 108.2190012 100.9854997  21.7679988 109.1110012 100.8484997  22.0869988
 108.2760012 101.7764997  21.2319988 108.3486285 101.0736660  21.7391691
  98.7280012 105.5994997  27.6779988  99.4730012 105.5974997  27.0769988
  98.8060012 104.7764997  28.1599988  98.8405518 105.4879315  27.6608929
 105.7290012 107.7634997  20.9339988 105.4330012 108.5894997  21.3149988
 105.0260012 107.1434997  21.1299988 105.5934914 107.7928199  21.0126443
  95.7360012 104.0604997  32.9929988  95.9590012 103.6424997  33.8249988
  95.1340012 103.4474997  32.5699988  95.6851759 103.9204668  33.0497022
 102.7520012 103.5774997  35.2059988 102.4560012 103.4114997  34.3109988
 103.6840012 103.3574997  35.1949988 102.8374166 103.5250640  35.0820536
 107.3730012 108.9504997  33.0959988 106.4720012 109.1334997  32.8279988
 107.4070012 109.2094997  34.0169988 107.2543041 109.0105512  33.1838197
 113.1040012 101.1954997  21.4629988 112.5500012 100.7994997  20.7909988
 113.2040012 102.1054997  21.1849988 113.0417059 101.2643586  21.3334401
 113.0670012 106.9954997  34.2999988 112.2160012 107.2334997  33.9329988
 113.6580012 106.9784997  33.5469988 113.0302487 107.0258258  34.1478893
 111.3990012 109.9814997  21.9279988 111.0260012 109.1554997  22.2369988
 111.6770012 109.7984997  21.0309988 111.3855630 109.8437303  21.8489626
 108.5600012 104.7894997  28.9489988 107.6310012 104.5574997  28.9219988
 109.0110012 104.0124997  28.6189988 108.4939216 104.6527238  28.9006917
 101.1030012 109.1174997  25.0819988 101.6300012 109.8904997  24.8819988
 100.2230012 109.3424997  24.7809988 101.0561773 109.2538005  25.0139010
  96.8580012 103.9794997  19.6689988  97.4740012 104.6064997  20.0489988
  95.9960012 104.2954997  19.9409988  96.8257698 104.1079430  19.7577183
 102.5300012 106.7804997  24.6589988 102.2890012 107.7054997  24.6999988
 101.7890012 106.3214997  25.0549988 102.3968409 106.8451421  24.7181377
 103.0450012 110.9294997  30.9739988 103.4070012 111.7844997  30.7399988
 103.5760012 110.6374997  31.7139988 103.1664473 111.0071060  31.0420855
 101.2130012 111.8024997  24.2039988 100.2630012 111.9074997  24.2549988
 101.5650012 112.6224997  24.5489988 101.1304203 111.9278314  24.2576650
 106.5890012 107.0284997  30.6739988 106.1630012 106.8014997  31.5009988
 107.1690012 106.2904997  30.4919988 106.6091868 106.8975299  30.7625830
 108.7920012 107.9574997  19.7479988 109.1450012 107.5774997  20.5529988
 107.8430012 107.8644997  19.8349988 108.7120441 107.8929596  19.8698559
 109.2470012 111.5804997  33.1439988 108.6460012 111.0254997  32.6479988
 109.5290012 112.2474997  32.5179988 109.2028519 111.5946841  32.9914952
 113.2950012 112.4374997  19.9489988 114.0390012 113.0234997  19.8089988
 112.6010012 113.0054997  20.2829988 113.3030292 112.5945582  19.9749961
  97.3700012  98.8134997  32.5509988  96.4770012  99.1524997  32.4829988
  97.2710012  97.9584997  32.9689988  97.2344164  98.7442588  32.5982235
 109.6580012 106.6304997  21.9749988 109.3800012 105.9024997  22.5309988
 110.5850012 106.7494997  22.1799988 109.7453124 106.5468802  22.0788845
  97.0210012 110.6184997  30.9859988  97.2380012 109.6864997  30.9549988
  97.2670012 110.8924997  31.8689988  97.0839549 110.5280636  31.1011763
 102.8830012 109.0694997  18.1949988 103.1220012 108.3214997  17.6479988
 102.6140012 108.6814997  19.0279988 102.8793675 108.9146638  18.2326865
 101.8200012 108.6394997  20.6519988 101.9660012 108.1194997  21.4419988
 101.8170012 109.5464997  20.9579988 101.8395989 108.6908853  20.8016088
  98.2730012 105.8924997  21.1619988  97.5870012 106.2444997  21.7289988
  98.7950012 106.6554997  20.9149988  98.2496852 106.0438578  21.2062118
 106.1040012  98.5544997  31.4409988 106.8030012  98.6284997  32.0909988
 105.7230012  97.6904997  31.5949988 106.1481767  98.4477624  31.5508322
 106.8890012  98.2064997  22.5379988 107.1090012  98.6784997  21.7349988
 107.4470012  98.6014997  23.2079988 106.9944968  98.3244285  22.5187331
 104.5570012 110.3374997  21.4009988 103.7410012 110.8344997  21.4529988
 105.0870012 110.8124997  20.7609988 104.5169161 110.4697722  21.3215956
 104.0890012  99.9344997  23.3729988 104.9010012 100.4394997  23.4189988
 103.8440012  99.7894997  24.2869988 104.1670520  99.9840375  23.5028517
 104.6240012 100.9204997  32.5579988 104.7430012 101.4944997  33.3149988
 105.2800012 100.2324997  32.6719988 104.7289757 100.9061079  32.6770825
 104.9720012  97.0154997  24.3109988 104.6260012  97.6334997  24.9559988
 105.6310012  97.5164997  23.8299988 105.0137826  97.1675802  24.3340971
 101.8960012 111.3814997  21.3829988 102.0560012 112.1804997  20.8819988
 101.6980012 111.6874997  22.2679988 101.8911649 111.5324469  21.4339815
 100.6300012  98.0784997  20.9979988 100.5470012  98.9674997  21.3449988
 101.5200012  97.8134997  21.2299988 100.7389469  98.1641430  21.0767626
 110.8290012  98.8274997  33.3929988 109.9120012  99.0904997  33.3049988
 111.1640012  98.8244997  32.4959988 110.7489900  98.8630224  33.2597919
 109.4310012 102.5784997  27.4879988 108.6330012 102.1634997  27.1599988
 109.8760012 101.8874997  27.9789988 109.3819885 102.4283543  27.5094889
  98.8890012 108.5064997  20.0589988  99.4810012 109.2054997  20.3349988
  99.3480012 108.0734997  19.3389988  99.0321142 108.5437049  19.9994830
  97.2050012 101.1704997  19.1749988  97.1600012 102.1094997  19.3529988
  96.3170012 100.9344997  18.9049988  97.0788574 101.2671892  19.1628912
 110.5170012 111.8344997  29.1109988 110.3620012 112.5124997  28.4539988
 111.4500012 111.9064997  29.3139988 110.6218500 111.9370170  29.0485119
  98.0130012  95.9524997  27.8479988  97.7840012  96.0114997  26.9199988
  97.5700012  95.1604997  28.1539988  97.9218530  95.8535753  27.7624786
  96.9430012 109.8924997  24.0079988  96.1110012 110.3654997  24.0359988
  97.4890012 110.4024997  23.4099988  96.9029739 110.0261871  23.9309716
  96.2310012 112.5054997  35.3379988  96.7720012 112.2884997  36.0979988
  95.7500012 111.6994997  35.1489988  96.2399345 112.3669514  35.4163076
 100.8290012 111.4244997  36.9589988 101.5960012 110.9654997  37.2999988
 100.8070012 111.1984997  36.0289988 100.9311434 111.3310409  36.8800043
 104.9210012 110.9324997  18.3339988 104.2770012 110.3014997  18.6549988
 105.6830012 110.4014997  18.1019988 104.9358077 110.7742920  18.3466011
 107.4060012 109.8044997  35.6879988 107.0550012 108.9484997  35.9309988
 108.1320012 109.9474997  36.2949988 107.4560769 109.7065636  35.8033619
 109.5250012 110.7494997  18.5679988 109.8080012 109.9554997  19.0199988
 110.2650012 110.9824997  18.0069988 109.6637486 110.6722803  18.5540698
  96.1380012 106.3154997  36.2929988  96.2820012 105.4134997  36.0059988
  95.3660012 106.6014997  35.8049988  96.0533322 106.2308261  36.1877881
 100.4800012 106.6594997  18.4249988 100.5440012 105.8654997  18.9559988
 101.1330012 106.5404997  17.7349988 100.5770241 106.5347148  18.4044317
 102.7940012 106.2854997  35.7249988 102.4650012 106.5564997  34.8679988
 102.9460012 105.3444997  35.6379988 102.7694809 106.1953862  35.5958244
 105.8320012 107.7064997  18.1609988 105.5630012 107.8864997  19.0619988
 105.6260012 106.7804997  18.0299988 105.7673825 107.6060152  18.2665214
 108.5280012 106.2014997  33.1089988 109.2740012 106.7894997  32.9889988
 107.7710012 106.7834997  33.1719988 108.5277554 106.3607011  33.1010907
  96.9710012 103.5154997  35.7129988  97.3790012 102.6584997  35.5919988
  96.7110012 103.5304997  36.6339988  96.9917568 103.4000807  35.8209588
 101.6290012 104.6314997  20.7309988 101.1690012 104.1474997  21.4169988
 101.8840012 103.9634997  20.0949988 101.6004902 104.4748731  20.7389334
 100.9180012 102.5244997  33.0869988 100.3000012 103.1994997  33.3669988
 101.2620012 102.8454997  32.2539988 100.8799615 102.6602721  33.0126581
 102.7000012 102.8744997  18.9929988 102.5200012 102.7204997  18.0659988
 103.6500012 102.9824997  19.0379988 102.8037776 102.8680175  18.8721843
 105.9380012 104.9964997  36.3639988 106.8910012 105.0794997  36.3369988
 105.7770012 104.2844997  36.9839988 106.0466426 104.9116746  36.4440579
 112.0900012 105.2294997  18.4389988 111.8160012 104.8044997  17.6259988
 112.1290012 106.1604997  18.2219988 112.0577699 105.2972484  18.2983610
 101.2570012  99.8794997  34.1689988 101.4070012  99.1504997  33.5669988
 101.2600012 100.6564997  33.6099988 101.2779302  99.8847851  34.0110692
 101.6700012  98.2494997  31.6619988 102.2060012  98.7004997  31.0099988
 100.8180012  98.1414997  31.2389988 101.6282178  98.2966390  31.5155756
 103.2520012 103.6884997  31.9009988 104.0020012 103.5324997  31.3279988
 102.9130012 104.5404997  31.6259988 103.3088921 103.7822968  31.7853561
 107.6670012 101.5034997  36.9299988 107.8600012 100.5724997  36.8179988
 108.5250012 101.9284997  36.9199988 107.8093020 101.4336389  36.9133361
 108.9840012 104.2924997  35.0069988 108.7030012 105.0014997  34.4299988
 109.9270012 104.2194997  34.8559988 109.0729027 104.3797646  34.9075551
  99.7360012 101.0774997  36.0809988  98.9690012 100.5454997  35.8709988
 100.4150012 100.7674997  35.4809988  99.7227022 100.9627506  35.9711648
 102.4760012  95.7054997  32.0929988 102.3770012  96.6524997  31.9879988
 101.7330012  95.3334997  31.6179988 102.3620564  95.7845902  32.0144560
 103.7400012 100.0274997  35.6569988 103.5040012  99.8074997  36.5589988
 102.9560012  99.8204997  35.1469988 103.6018628  99.9694760  35.7113932
 106.4550012  99.1544997  34.7329988 105.5080012  99.1864997  34.8649988
 106.7680012  98.5294997  35.3859988 106.3675475  99.0743207  34.8394455
 108.0890012  97.7884997  36.7379988 107.9930012  96.8364997  36.7319988
 107.7680012  98.0574997  37.5979988 108.0324070  97.6944035  36.8535441
  97.9160012  98.9984997  35.7849988  98.1280012  98.2914997  35.1749988
  97.8050012  98.5604997  36.6289988  97.9299721  98.8427084  35.8156843
 102.6970012  94.9994997  34.7649988 103.4090012  94.3594997  34.7509988
 102.5960012  95.2664997  33.8509988 102.7807939  94.9479938  34.6395650
 103.0510012  96.6824997  36.8179988 102.9190012  96.2064997  35.9979988
 102.4520012  97.4264997  36.7629988 102.9519071  96.7179618  36.6982886
 102.5970012 113.5654997  19.9949988 103.5300012 113.7234997  20.1379988
 102.3330012 114.2404997  19.3699988 102.6889510 113.6783611  19.9300741
  96.1660012 108.2014997  19.4769988  97.0800012 108.2804997  19.7509988
  96.1730012 107.5144997  18.8109988  96.2921131 108.1193961  19.4244393
  94.8150012 113.5944997  24.5549988  94.1680012 113.1324997  24.0219988
  95.1690012 112.9224997  25.1369988  94.7743849 113.4404723  24.5607959
  95.6850012 111.6754997  26.3589988  95.3500012 110.7954997  26.5309988
  95.9070012 112.0204997  27.2239988  95.6691783 111.6017501  26.4994208
 113.2330012 112.4844997  29.3399988 113.2120012 112.6694997  30.2789988
 113.9240012 113.0534997  28.9989988 113.3234618 112.5866606  29.4223864
 112.7970012 112.0524997  32.2619988 112.3090012 111.3164997  31.8909988
 113.3460012 111.6584997  32.9399988 112.8044872 111.8986249  32.3029160
 111.2470012 107.8414997  36.8999988 110.3810012 107.7364997  37.2939988
 111.6240012 108.6004997  37.3459988 111.1793308 107.9296900  37.0142393
 112.5480012 106.0984997  22.4139988 113.3980012 106.5194997  22.5409988
 112.5540012 105.3584997  23.0209988 112.6651372 106.0560803  22.5134344
 112.9430012 104.1514997  24.2379988 112.2160012 103.6724997  24.6349988
 113.5240012 104.3574997  24.9699988 112.9219375 104.1137090  24.3914129
 112.7020012 106.9364997  29.1849988 113.5350012 106.5584997  28.9049988
 112.8140012 107.8794997  29.0659988 112.8312647 107.0122218  29.1305487
 111.1880012 109.8144997  31.4919988 110.5410012 110.1394997  32.1179988
 110.6710012 109.3744997  30.8179988 111.0294029 109.7995004  31.4865827
 113.2110012 104.0524997  20.6289988 112.6890012 104.4094997  19.9099988
 113.1780012 104.7274997  21.3069988 113.1351634 104.1925413  20.6223145
 111.5600012 101.2924997  19.1799988 111.6560012 101.9594997  18.4989988
 111.4200012 100.4764997  18.6979988 111.5542135 101.2734500  19.0218491
 110.7290012 102.6724997  24.8009988 110.5790012 101.7274997  24.7799988
 110.3760012 102.9534997  25.6439988 110.6606625 102.5810441  24.9122346
  95.7650012 104.7504997  28.8109988  95.9490012 104.6684997  27.8749988
  96.6140012 104.6264997  29.2349988  95.9050139 104.7225003  28.7401455
 111.5860012 104.6424997  34.4389988 112.1690012 103.9084997  34.6309988
 112.1500012 105.4144997  34.4859988 111.7419769 104.6464227  34.4716159
 113.0820012 102.5454997  35.1239988 112.2190012 102.1664997  34.9579988
 113.6870012 101.8064997  35.0499988 113.0455979 102.3938023  35.0912817
 110.8070012  98.7004997  18.2969988 111.4180012  98.3294997  18.9339988
 109.9710012  98.2794997  18.4929988 110.7775032  98.5927554  18.4107035
 110.4400012 100.2554997  23.2629988 110.7200012  99.3484997  23.3869988
 111.1990012 100.6894997  22.8739988 110.5809277 100.1900942  23.2273682
 111.0520012 100.8364997  28.6989988 111.9850012 101.0484997  28.6649988
 110.8170012 100.9384997  29.6209988 111.1478036 100.8792769  28.8189976
 111.0810012 101.5734997  31.4749988 110.2380012 101.8414997  31.8409988
 111.5230012 102.3954997  31.2639988 111.0254158 101.7213291  31.4965491
  95.3620012 100.0214997  34.9519988  96.2820012  99.8994997  35.1879988
  94.9130012  99.2714997  35.3409988  95.4271580  99.9033727  35.0369006
 113.3640012  95.5534997  36.8279988 113.7140012  94.8994997  36.2229988
 113.5110012  96.3904997  36.3889988 113.4318419  95.5771591  36.6857118
 111.0530012  97.5184997  23.3109988 111.2360012  97.0694997  24.1369988
 110.4540012  96.9334997  22.8479988 110.9970202  97.3779975  23.3613275
  96.5830012  98.3334997  27.8429988  97.0290012  97.5414997  28.1449988
  97.0500012  99.0494997  28.2739988  96.7070172  98.3220624  27.9424820
  94.8870012 101.3324997  28.9119988  95.3790012 101.1114997  28.1209988
  95.2500012 102.1734997  29.1929988  95.0033126 101.4158357  28.8417531
 112.8840012  97.6624997  35.1779988 111.9660012  97.9334997  35.1419988
 113.0070012  97.1274997  34.3929988 112.7751066  97.6272892  35.0670487
 112.9200012  97.5854997  19.8389988 113.3320012  96.8644997  19.3639988
 113.6020012  98.2554997  19.8979988 113.0685885  97.5772368  19.7818915
  95.2010012  97.5904997  22.9659988  94.2760012  97.7994997  22.8369988
  95.6550012  98.0744997  22.2769988  95.1357368  97.6845993  22.8551226
 109.9720012 112.5744997  24.9119988 110.6240012 112.2274997  24.3039988
 110.4820012 113.0634997  25.5579988 110.1302637 112.5930597  24.9160236
  95.1650012  96.3284997  31.3109988  94.5000012  96.0824997  31.9539988
  94.7220012  96.9504997  30.7329988  95.0140956  96.3788632  31.3209352
  97.3570012 109.5034997  35.4549988  96.5360012 109.6784997  34.9949988
  97.1040012 109.4304997  36.3759988  97.2106164 109.5175622  35.5164923
 100.3110012 110.4784997  31.7139988  99.8860012 111.2874997  31.4309988
 101.2150012 110.5634997  31.4119988 100.3750271 110.6008469  31.6343776
 104.6220012 111.8774997  34.6729988 104.8070012 111.5434997  35.5509988
 105.4680012 112.1864997  34.3509988 104.7617539 111.8736047  34.7495605
 106.9670012 113.1634997  33.9169988 107.6440012 112.5304997  33.6769988
 107.2890012 113.5644997  34.7239988 107.1031637 113.1311154  33.9932793
 111.8840012  95.7524997  32.9969988 111.0720012  96.0774997  32.6089988
 112.1170012  94.9924997  32.4639988 111.8043423  95.6942436  32.8718253
  97.7130012 113.7344997  31.7609988  96.9920012 114.1744997  31.3099988
  97.3470012 113.4834997  32.6099988  97.5649804 113.7607698  31.8139840
 100.1800012 113.3344997  30.7909988  99.3150012 113.4064997  31.1949988
 100.1250012 113.8814997  30.0069988 100.0542085 113.4182685  30.7403362
 104.8900012 113.2224997  29.9659988 104.4340012 113.7514997  29.3119988
 105.0530012 113.8254997  30.6919988 104.8495585 113.3764468  29.9745062
 107.2180012 112.1004997  30.9109988 106.3130012 112.2654997  30.6459988
 107.6470012 112.9534997  30.8459988 107.1520799 112.2384483  30.8659182
 109.8220012 113.6704997  31.2059988 109.6400012 114.5864997  30.9959988
 109.9990012 113.2604997  30.3599988 109.8210210 113.7404822  31.0627885
  97.1270012 112.3574997  28.6709988  97.1090012 111.9324997  29.5289988
  97.9320012 112.0394997  28.2629988  97.2333875 112.2563812  28.7331655
  99.2690012 111.0674997  27.3259988  99.0500012 110.1514997  27.4959988
 100.0930012 111.2074997  27.7919988  99.3504420 110.9610520  27.4122774
 101.8060012 111.5374997  28.1749988 102.0190012 110.6494997  27.8879988
 101.8700012 111.5034997  29.1289988 101.8438231 111.4113102  28.2647397
 105.3140012  97.2014997  27.3189988 104.6400012  96.5724997  27.5749988
 105.8780012  96.7174997  26.7159988 105.2979230  97.0498744  27.2725340
 110.4570012  95.3094997  27.4319988 111.0610012  95.8564997  26.9299988
 109.5870012  95.6284997  27.1919988 110.4221241  95.4275806  27.3307654
 112.1840012  96.4474997  25.7649988 112.7960012  95.9334997  25.2389988
 112.5660012  97.3254997  25.7889988 112.3194540  96.4957140  25.6961830
  97.6410012  95.8354997  25.1409988  96.8640012  95.6014997  24.6339988
  98.1710012  95.0384997  25.1499988  97.6062330  95.6956988  25.0727742
  96.4770012  95.6334997  20.9449988  96.9160012  96.2444997  20.3529988
  95.8440012  96.1714997  21.4189988  96.4514514  95.7899257  20.9280930
 102.2200012  95.7624997  24.9549988 103.0950012  96.1504997  24.9249988
 102.0840012  95.5474997  25.8769988 102.3213695  95.7865184  25.0756440
 107.7770012  95.7924997  26.6039988 107.8530012  95.8874997  25.6539988
 107.5020012  94.8844997  26.7329988 107.7502321  95.6827867  26.4915079
 109.1300012  95.8184997  22.2959988 108.4280012  96.4334997  22.0869988
 108.6860012  94.9804997  22.4269988 108.9736330  95.7895783  22.2850328
  96.3780012 111.5814997  21.8429988  95.6930012 111.5434997  21.1749988
  96.3820012 112.4944997  22.1309988  96.2848193 111.6997016  21.7905284
  98.3380012  97.5494997  19.3869988  98.8300012  96.9194997  18.8599988
  98.9620012  97.8454997  20.0509988  98.4895446  97.5033199  19.4045980
 103.3640012  97.8424997  21.8439988 103.5420012  97.1964997  22.5269988
 103.3110012  98.6764997  22.3119988 103.3811829  97.8667985  22.0005940
 105.2430012 112.7914997  20.2399988 106.1090012 113.1574997  20.0619988
 104.9960012 112.3514997  19.4259988 105.3282392 112.7821756  20.1056289
 111.9520012 112.3544997  22.9189988 111.7570012 111.6064997  22.3539988
 111.9130012 113.1124997  22.3359988 111.9200380 112.3546099  22.7628384
  97.5990012  96.3494997  34.6589988  97.2330012  95.5844997  35.1019988
  98.5120012  96.3784997  34.9459988  97.6722790  96.2487224  34.7584070
  99.5720012  95.7004997  36.1949988 100.4700012  95.4264997  36.0099988
  99.1850012  94.9574997  36.6589988  99.6426612  95.5625914  36.2323643
  98.1960012 112.5014997  18.8679988  97.9290012 112.7884997  19.7409988
  98.9680012 111.9554997  19.0199988  98.2637488 112.4670294  19.0081050
 107.9930012  95.0324997  36.3769988 108.0700012  94.6064997  37.2309988
 108.8870012  95.0464997  36.0339988 108.1243428  94.9760879  36.4475310
 111.1690012 111.1054997  35.0689988 110.3870012 110.9194997  34.5499988
 111.0970012 112.0344997  35.2869988 111.0521777 111.2056492  35.0274048
 125.5750012 104.9914997  25.0999988 125.6640012 105.9354997  24.9679988
 124.9370012 104.7164997  24.4419988 125.5009081 105.0834830  24.9929614
 124.5080012 104.2464997  28.5189988 124.4700012 103.6004997  29.2239988
 124.1860012 103.7804997  27.7479988 124.4592333 104.0949408  28.5112978
 116.8770012 103.8614997  30.1119988 116.9180012 103.2354997  30.8349988
 117.5800012 104.4854997  30.2939988 116.9776363 103.8601196  30.2356044
 128.2140012 107.1854997  26.8199988 127.7740012 106.4654997  27.2709988
 128.2010012 107.9064997  27.4499988 128.1520226 107.1843731  26.9668494
 117.8000012 108.3114997  28.6469988 117.4310012 107.5094997  28.2769988
 118.7410012 108.1424997  28.6929988 117.8767289 108.1790153  28.6026316
 114.4100012 101.9714997  24.0399988 113.9630012 102.8174997  24.0209988
 113.8490012 101.3914997  23.5239988 114.2729900 102.0089916  23.9676801
 115.1210012 104.1334997  26.1659988 115.3340012 103.3634997  26.6929988
 115.8590012 104.2224997  25.5619988 115.2498496 104.0401394  26.1565300
 125.3260012 112.2904997  27.0329988 125.9460012 111.6134997  26.7589988
 125.1180012 112.0724997  27.9409988 125.3826904 112.1683870  27.1183365
 122.8980012 106.6794997  28.9249988 123.2020012 105.9934997  28.3299988
 123.6190012 106.7974997  29.5429988 123.0370671 106.6016305  28.9271816
 131.5610012  98.2804997  29.7859988 131.6100012  98.8904997  30.5219988
 131.9860012  98.7414997  29.0629988 131.6251824  98.4263741  29.7890205
 126.0390012 101.0734997  29.2529988 126.1810012 100.1274997  29.2729988
 125.9320012 101.2804997  28.3239988 126.0439864 100.9719534  29.1302339
 119.1930012  99.1744997  26.5249988 119.2370012 100.0344997  26.1069988
 118.7360012  98.6224997  25.8909988 119.1372185  99.2175799  26.3820299
 126.9160012  99.3054997  24.9259988 127.5620012  98.9764997  25.5509988
 127.4260012  99.8234997  24.3029988 127.0734264  99.3304611  24.9273862
 115.8140012 101.5714997  27.2869988 116.4670012 101.0214997  27.7189988
 115.8380012 101.2974997  26.3699988 115.9066683 101.4591466  27.2222123
 120.9700012 103.1214997  26.5019988 121.5860012 102.5954997  27.0119988
 120.3840012 102.4814997  26.0989988 120.9750810 102.9629208  26.5173173
 131.9520012  99.7584997  32.0219988 131.2640012 100.4164997  31.9259988
 131.9680012  99.5614997  32.9579988 131.8598525  99.8220462  32.1354808
 118.0040012  98.0924997  30.5989988 117.7850012  98.6224997  29.8329988
 117.3360012  98.3194997  31.2459988 117.8837600  98.1956906  30.5816379
 125.3730012 107.5924997  24.1429988 125.0770012 107.2704997  23.2919988
 125.0480012 108.4924997  24.1839988 125.2886371 107.6700215  24.0321801
 120.5730012 105.7684997  30.8859988 119.8330012 106.3664997  30.9899988
 121.2870012 106.3224997  30.5709988 120.5682237 105.9252831  30.8576465
 128.6800012  98.5964997  26.9059988 128.4640012  97.8304997  27.4389988
 129.3350012  99.0684997  27.4189988 128.7390632  98.5555889  27.0482861
 117.5970012  99.9844997  28.5509988 118.2110012 100.6174997  28.9249988
 118.1090012  99.5124997  27.8949988 117.7502296 100.0072370  28.5134252
 118.9800012 107.7324997  31.6739988 118.9750012 108.6124997  31.2959988
 118.1270012 107.6494997  32.0989988 118.8639464 107.8416117  31.6797907
 115.1010012 107.4034997  22.4559988 114.8290012 107.6324997  21.5669988
 115.1470012 108.2414997  22.9159988 115.0700094 107.5481213  22.3965697
 128.7260012 109.0254997  29.1679988 127.7850012 109.0834997  29.3299988
 129.0030012 109.9314997  29.0309988 128.6344679 109.1559443  29.1716815
 129.0270012  97.3114997  30.5859988 128.2910012  97.9224997  30.5479988
 129.7100012  97.7264997  30.0589988 129.0186541  97.4511374  30.5095832
 122.0300012  95.3984997  28.0519988 121.9130012  94.4494997  27.9969988
 121.1750012  95.7304997  28.3249988 121.8983733  95.3135409  28.0813897
 126.9780012 110.8064997  25.7939988 127.4040012 110.0994997  25.3089988
 127.2950012 111.6074997  25.3769988 127.0791019 110.8180994  25.6713130
 128.1380012 108.7074997  24.3019988 127.8800012 108.0174997  23.6909988
 128.2090012 108.2644997  25.1479988 128.1122856 108.5532124  24.3326885
 129.8240012 107.2734997  32.7799988 129.9640012 106.6824997  32.0399988
 129.9910012 108.1464997  32.4229988 129.8656778 107.3106426  32.6306965
 124.2970012 104.2354997  22.5519988 123.5850012 104.7704997  22.1999988
 124.9880012 104.2914997  21.8919988 124.2930132 104.3162543  22.4146289
 124.3500012 102.6934997  19.5909988 125.0510012 102.7154997  20.2419988
 124.6530012 102.0654997  18.9349988 124.4867830 102.6116566  19.5913711
 131.6660012 103.6134997  30.8459988 131.0130012 104.3084997  30.9349988
 132.1310012 103.8234997  30.0359988 131.6395390 103.7369425  30.7486883
 127.7020012 104.4454997  23.5039988 126.9700012 104.6734997  24.0769988
 128.1500012 103.7314997  23.9589988 127.6623095 104.3802571  23.6439119
 127.6000012 102.6194997  32.5709988 127.6800012 103.3824997  33.1429988
 126.9980012 102.8984997  31.8809988 127.5295756 102.7617134  32.5560589
 119.3480012 105.0754997  25.3859988 119.0170012 104.7054997  24.5679988
 119.9360012 104.4054997  25.7329988 119.3821873 104.9341156  25.3208102
 120.7140012 108.5034997  28.0679988 120.6200012 107.9254997  27.3109988
 121.4440012 108.1324997  28.5639988 120.7997981 108.3742390  28.0314165
 119.7140012 103.8444997  29.0199988 120.2800012 103.9654997  28.2569988
 120.0330012 104.4814997  29.6589988 119.8345786 103.9471884  29.0020040
 126.0230012 109.3474997  29.7539988 125.7830012 110.0094997  30.4019988
 125.8250012 108.5134997  30.1789988 125.9633808 109.3253134  29.9001524
 120.5940012 108.2434997  33.7369988 120.2830012 109.0254997  34.1919988
 119.9440012 108.0904997  33.0509988 120.4635558 108.3299105  33.7065871
 126.5730012 103.6074997  21.1889988 127.1530012 103.7574997  21.9359988
 126.9870012 104.0784997  20.4659988 126.7082830 103.6916841  21.1934134
 117.5140012 104.4414997  32.9659988 117.5850012 105.0924997  33.6639988
 116.6240012 104.5444997  32.6309988 117.4033117 104.5445936  33.0162700
 124.3000012 110.3444997  24.6239988 124.7740012 110.6394997  25.4019988
 123.7370012 111.0824997  24.3909988 124.2887653 110.4846932  24.6990136
 118.8340012 110.3154997  34.4999988 118.8410012 110.1794997  33.5529988
 117.9180012 110.1974997  34.7519988 118.7111714 110.2809430  34.4044666
 130.2720012  95.3574997  21.0019988 129.3720012  95.4964997  21.2969988
 130.5240012  96.1884997  20.5999988 130.1828702  95.4889074  20.9880205
 118.3380012 104.1454997  22.9759988 118.0460012 104.9134997  22.4849988
 117.6640012 103.4854997  22.8129988 118.2069081 104.1614406  22.8867340
 131.4610012 109.7234997  19.3779988 131.5350012 110.6624997  19.5489988
 132.3670012 109.4184997  19.3219988 131.5935100 109.8106722  19.3938119
 114.4310012 106.5084997  31.7909988 113.9300012 106.4804997  30.9759988
 114.4360012 105.6024997  32.0999988 114.3631526 106.3822278  31.7212872
 114.1810012 109.2884997  28.6749988 115.1270012 109.1444997  28.6559988
 114.0690012 110.0724997  29.2119988 114.2952727 109.3748046  28.7450072
 132.3790012 109.9544997  34.3569988 132.3300012 108.9994997  34.3199988
 131.5520012 110.2224997  34.7579988 132.2604940 109.8598998  34.4061375
 123.3580012 109.5284997  33.2329988 123.4450012 110.3544997  33.7079988
 122.4940012 109.1984997  33.4819988 123.2531964 109.5969878  33.3316549
 123.7720012 113.3004997  23.0389988 123.6970012 113.1794997  22.0929988
 123.8050012 114.2504997  23.1579988 123.7661848 113.4122500  22.9254834
 117.4250012 112.0894997  24.8199988 117.5780012 111.7414997  25.6989988
 116.5750012 111.7334997  24.5649988 117.3308962 111.9936650  24.9058340
 126.8740012 112.4544997  20.0409988 127.2490012 111.7104997  19.5709988
 126.8780012 112.1844997  20.9599988 126.9258915 112.3161486  20.1007824
 126.5430012 112.3804997  22.7909988 125.6070012 112.4804997  22.9689988
 126.8230012 111.6714997  23.3689988 126.4528255 112.2982711  22.8935391
 129.5310012 101.4474997  34.8369988 129.1240012 101.9284997  34.1159988
 129.5720012 100.5424997  34.5289988 129.4808437 101.3909374  34.6966683
 116.6800012 107.8314997  32.8339988 116.8960012 107.4704997  33.6929988
 115.8250012 107.4574997  32.6239988 116.5939292 107.7314111  32.9233386
 119.2990012  96.3014997  28.8289988 118.4370012  96.2144997  28.4219988
 119.2760012  97.1574997  29.2569988 119.1780330  96.4052765  28.8311863
 123.9620012  96.0234997  32.2039988 124.3820012  95.6084997  32.9569988
 123.0290012  95.8454997  32.3209988 123.8933644  95.9425900  32.3229539
 127.2880012  99.7794997  33.0569988 126.7740012  99.6534997  33.8549988
 127.1330012 100.6914997  32.8129988 127.1966852  99.8856132  33.1332158
 128.0510012 104.6404997  18.8189988 128.0930012 104.4174997  17.8889988
 128.9000012 105.0394997  19.0089988 128.1715396 104.6639155  18.7173627
 123.6230012  98.5164997  19.4889988 123.3700012  98.5354997  20.4119988
 123.3670012  97.6444997  19.1879988 123.5537790  98.4012437  19.5746263
 119.3900012 101.2674997  29.9239988 118.7480012 101.2264997  30.6329988
 119.4270012 102.1934997  29.6869988 119.3071324 101.3871559  29.9889824
 119.3870012 101.4884997  24.8359988 118.4940012 101.1474997  24.7779988
 119.8370012 101.1114997  24.0809988 119.3257305 101.3908484  24.7259177
 124.9220012 101.9044997  23.6529988 124.5130012 102.7194997  23.3619988
 125.6430012 101.7644997  23.0389988 124.9634537 101.9972018  23.5301342
 124.0240012 102.0794997  35.1409988 123.4620012 101.3754997  35.4619988
 124.8510012 101.9594997  35.6089988 124.0587095 101.9667883  35.2482330
 125.9270012 101.3504997  26.4669988 125.7320012 101.9554997  25.7519988
 126.1080012 100.5164997  26.0329988 125.9247614 101.3206300  26.3104405
 117.1400012 101.5874997  31.7909988 117.1020012 101.9874997  32.6599988
 116.6490012 100.7704997  31.8819988 117.0684684 101.5318069  31.9221059
 120.5060012  98.9614997  18.5899988 120.0750012  98.5164997  19.3199988
 119.7880012  99.3334997  18.0779988 120.3499438  98.9508940  18.6206799
 113.7480012  98.7034997  25.6419988 114.3790012  98.6744997  26.3609988
 114.1970012  98.2784997  24.9119988 113.8950774  98.6420492  25.6416553
 115.0220012  99.4494997  21.0659988 115.4960012 100.0404997  20.4809988
 114.3050012  99.9804997  21.4129988 114.9899341  99.6020867  21.0328836
 125.1910012 102.9884997  31.1389988 125.5140012 102.3574997  30.4959988
 124.7510012 102.4534997  31.7989988 125.1756895 102.8298441  31.1402850
 121.9680012  98.9154997  25.9229988 121.0570012  98.9724997  26.2109988
 122.4740012  98.8554997  26.7329988 121.9115413  98.9151985  26.0720622
 116.7970012 100.5444997  24.7489988 115.9070012 100.6444997  24.4089988
 117.0930012  99.7024997  24.4029988 116.7152823 100.4443545  24.6557213
 120.4500012 100.5444997  22.4059988 121.3810012 100.6734997  22.5839988
 120.2350012 101.2144997  21.7559988 120.5484247 100.6526565  22.3425747
 126.3730012  98.1504997  29.1869988 125.6970012  98.2814997  29.8509988
 125.8880012  97.9954997  28.3769988 126.2147145  98.1474905  29.1684517
 119.1240012 101.7394997  19.9729988 118.5810012 101.3594997  19.2809988
 119.9570012 101.9334997  19.5439988 119.1624399 101.7138124  19.8204526
 129.6610012 113.8224997  35.4639988 129.8610012 114.2464997  34.6289988
 130.3160012 114.1654997  36.0709988 129.7770051 113.9269648  35.4317836
 117.2590012 106.2964997  35.0719988 117.9910012 106.5504997  35.6329988
 116.4790012 106.5004997  35.5869988 117.2538232 106.3589177  35.2185760
 123.2880012 101.7034997  27.8099988 123.8530012 101.1564997  27.2629988
 123.1410012 101.1814997  28.5979988 123.3452918 101.5582024  27.8418454
 118.2900012  97.8394997  24.2279988 117.9730012  96.9374997  24.1929988
 119.0720012  97.8414997  23.6749988 118.3522284  97.7161628  24.1484783
 121.9150012 100.0914997  30.2239988 121.0790012 100.5454997  30.3339988
 122.4390012 100.3674997  30.9759988 121.8714414 100.1909376  30.3407136
 122.4590012 106.3044997  21.9079988 121.7140012 105.7974997  21.5859988
 122.3250012 106.3534997  22.8549988 122.3388776 106.2416940  21.9918647
 129.6090012 105.4374997  30.6949988 130.2510012 105.8944997  30.1509988
 128.7790012 105.5504997  30.2319988 129.5845963 105.5152704  30.5580177
 126.3570012  99.1184997  20.1079988 125.4180012  99.2304997  19.9559988
 126.6540012  99.9754997  20.4139988 126.2687666  99.2496443  20.1285768
 123.9780012 106.4884997  33.1449988 123.6330012 106.1074997  33.9519988
 123.7780012 107.4224997  33.2169988 123.9038061 106.5625228  33.2650961
 127.0750012 100.9854997  21.7679988 127.9670012 100.8484997  22.0869988
 127.1320012 101.7764997  21.2319988 127.2046285 101.0736660  21.7391691
 117.5840012 105.5994997  27.6779988 118.3290012 105.5974997  27.0769988
 117.6620012 104.7764997  28.1599988 117.6965518 105.4879315  27.6608929
 124.5850012 107.7634997  20.9339988 124.2890012 108.5894997  21.3149988
 123.8820012 107.1434997  21.1299988 124.4494914 107.7928199  21.0126443
 114.5920012 104.0604997  32.9929988 114.8150012 103.6424997  33.8249988
 113.9900012 103.4474997  32.5699988 114.5411759 103.9204668  33.0497022
 121.6080012 103.5774997  35.2059988 121.3120012 103.4114997  34.3109988
 122.5400012 103.3574997  35.1949988 121.6934166 103.5250640  35.0820536
 126.2290012 108.9504997  33.0959988 125.3280012 109.1334997  32.8279988
 126.2630012 109.2094997  34.0169988 126.1103041 109.0105512  33.1838197
 131.9600012 101.1954997  21.4629988 131.4060012 100.7994997  20.7909988
 132.0600012 102.1054997  21.1849988 131.8977059 101.2643586  21.3334401
 131.9230012 106.9954997  34.2999988 131.0720012 107.2334997  33.9329988
 132.5140012 106.9784997  33.5469988 131.8862487 107.0258258  34.1478893
 130.2550012 109.9814997  21.9279988 129.8820012 109.1554997  22.2369988
 130.5330012 109.7984997  21.0309988 130.2415630 109.8437303  21.8489626
 127.4160012 104.7894997  28.9489988 126.4870012 104.5574997  28.9219988
 127.8670012 104.0124997  28.6189988 127.3499216 104.6527238  28.9006917
 119.9590012 109.1174997  25.0819988 120.4860012 109.8904997  24.8819988
 119.0790012 109.3424997  24.7809988 119.9121773 109.2538005  25.0139010
 115.7140012 103.9794997  19.6689988 116.3300012 104.6064997  20.0489988
 114.8520012 104.2954997  19.9409988 115.6817698 104.1079430  19.7577183
 121.3860012 106.7804997  24.6589988 121.1450012 107.7054997  24.6999988
 120.6450012 106.3214997  25.0549988 121.2528409 106.8451421  24.7181377
 121.9010012 110.9294997  30.9739988 122.2630012 111.7844997  30.7399988
 122.4320012 110.6374997  31.7139988 122.0224473 111.0071060  31.0420855
 120.0690012 111.8024997  24.2039988 119.1190012 111.9074997  24.2549988
 120.4210012 112.6224997  24.5489988 119.9864203 111.9278314  24.2576650
 125.4450012 107.0284997  30.6739988 125.0190012 106.8014997  31.5009988
 126.0250012 106.2904997  30.4919988 125.4651868 106.8975299  30.7625830
 127.6480012 107.9574997  19.7479988 128.0010012 107.5774997  20.5529988
 126.6990012 107.8644997  19.8349988 127.5680441 107.8929596  19.8698559
 128.1030012 111.5804997  33.1439988 127.5020012 111.0254997  32.6479988
 128.3850012 112.2474997  32.5179988 128.0588519 111.5946841  32.9914952
 132.1510012 112.4374997  19.9489988 132.8950012 113.0234997  19.8089988
 131.4570012 113.0054997  20.2829988 132.1590292 112.5945582  19.9749961
 116.2260012  98.8134997  32.5509988 115.3330012  99.1524997  32.4829988
 116.1270012  97.9584997  32.9689988 116.0904164  98.7442588  32.5982235
 128.5140012 106.6304997  21.9749988 128.2360012 105.9024997  22.5309988
 129.4410012 106.7494997  22.1799988 128.6013124 106.5468802  22.0788845
 115.8770012 110.6184997  30.9859988 116.0940012 109.6864997  30.9549988
 116.1230012 110.8924997  31.8689988 115.9399549 110.5280636  31.1011763
 121.7390012 109.0694997  18.1949988 121.9780012 108.3214997  17.6479988
 121.4700012 108.6814997  19.0279988 121.7353675 108.9146638  18.2326865
 120.6760012 108.6394997  20.6519988 120.8220012 108.1194997  21.4419988
 120.6730012 109.5464997  20.9579988 120.6955989 108.6908853  20.8016088
 117.1290012 105.8924997  21.1619988 116.4430012 106.2444997  21.7289988
 117.6510012 106.6554997  20.9149988 117.1056852 106.0438578  21.2062118
 124.9600012  98.5544997  31.4409988 125.6590012  98.6284997  32.0909988
 124.5790012  97.6904997  31.5949988 125.0041767  98.4477624  31.5508322
 125.7450012  98.2064997  22.5379988 125.9650012  98.6784997  21.7349988
 126.3030012  98.6014997  23.2079988 125.8504968  98.3244285  22.5187331
 123.4130012 110.3374997  21.4009988 122.5970012 110.8344997  21.4529988
 123.9430012 110.8124997  20.7609988 123.3729161 110.4697722  21.3215956
 122.9450012  99.9344997  23.3729988 123.7570012 100.4394997  23.4189988
 122.7000012  99.7894997  24.2869988 123.0230520  99.9840375  23.5028517
 123.4800012 100.9204997  32.5579988 123.5990012 101.4944997  33.3149988
 124.1360012 100.2324997  32.6719988 123.5849757 100.9061079  32.6770825
 123.8280012  97.0154997  24.3109988 123.4820012  97.6334997  24.9559988
 124.4870012  97.5164997  23.8299988 123.8697826  97.1675802  24.3340971
 120.7520012 111.3814997  21.3829988 120.9120012 112.1804997  20.8819988
 120.5540012 111.6874997  22.2679988 120.7471649 111.5324469  21.4339815
 119.4860012  98.0784997  20.9979988 119.4030012  98.9674997  21.3449988
 120.3760012  97.8134997  21.2299988 119.5949469  98.1641430  21.0767626
 129.6850012  98.8274997  33.3929988 128.7680012  99.0904997  33.3049988
 130.0200012  98.8244997  32.4959988 129.6049900  98.8630224  33.2597919
 128.2870012 102.5784997  27.4879988 127.4890012 102.1634997  27.1599988
 128.7320012 101.8874997  27.9789988 128.2379885 102.4283543  27.5094889
 117.7450012 108.5064997  20.0589988 118.3370012 109.2054997  20.3349988
 118.2040012 108.0734997  19.3389988 117.8881142 108.5437049  19.9994830
 116.0610012 101.1704997  19.1749988 116.0160012 102.1094997  19.3529988
 115.1730012 100.9344997  18.9049988 115.9348574 101.2671892  19.1628912
 129.3730012 111.8344997  29.1109988 129.2180012 112.5124997  28.4539988
 130.3060012 111.9064997  29.3139988 129.4778500 111.9370170  29.0485119
 116.8690012  95.9524997  27.8479988 116.6400012  96.0114997  26.9199988
 116.4260012  95.1604997  28.1539988 116.7778530  95.8535753  27.7624786
 115.7990012 109.8924997  24.0079988 114.9670012 110.3654997  24.0359988
 116.3450012 110.4024997  23.4099988 115.7589739 110.0261871  23.9309716
 115.0870012 112.5054997  35.3379988 115.6280012 112.2884997  36.0979988
 114.6060012 111.6994997  35.1489988 115.0959345 112.3669514  35.4163076
 119.6850012 111.4244997  36.9589988 120.4520012 110.9654997  37.2999988
 119.6630012 111.1984997  36.0289988 119.7871434 111.3310409  36.8800043
 123.7770012 110.9324997  18.3339988 123.1330012 110.3014997  18.6549988
 124.5390012 110.4014997  18.1019988 123.7918077 110.7742920  18.3466011
 126.2620012 109.8044997  35.6879988 125.9110012 108.9484997  35.9309988
 126.9880012 109.9474997  36.2949988 126.3120769 109.7065636  35.8033619
 128.3810012 110.7494997  18.5679988 128.6640012 109.9554997  19.0199988
 129.1210012 110.9824997  18.0069988 128.5197486 110.6722803  18.5540698
 114.9940012 106.3154997  36.2929988 115.1380012 105.4134997  36.0059988
 114.2220012 106.6014997  35.8049988 114.9093322 106.2308261  36.1877881
 119.3360012 106.6594997  18.4249988 119.4000012 105.8654997  18.9559988
 119.9890012 106.5404997  17.7349988 119.4330241 106.5347148  18.4044317
 121.6500012 106.2854997  35.7249988 121.3210012 106.5564997  34.8679988
 121.8020012 105.3444997  35.6379988 121.6254809 106.1953862  35.5958244
 124.6880012 107.7064997  18.1609988 124.4190012 107.8864997  19.0619988
 124.4820012 106.7804997  18.0299988 124.6233825 107.6060152  18.2665214
 127.3840012 106.2014997  33.1089988 128.1300012 106.7894997  32.9889988
 126.6270012 106.7834997  33.1719988 127.3837554 106.3607011  33.1010907
 115.8270012 103.5154997  35.7129988 116.2350012 102.6584997  35.5919988
 115.5670012 103.5304997  36.6339988 115.8477568 103.4000807  35.8209588
 120.4850012 104.6314997  20.7309988 120.0250012 104.1474997  21.4169988
 120.7400012 103.9634997  20.0949988 120.4564902 104.4748731  20.7389334
 119.7740012 102.5244997  33.0869988 119.1560012 103.1994997  33.3669988
 120.1180012 102.8454997  32.2539988 119.7359615 102.6602721  33.0126581
 121.5560012 102.8744997  18.9929988 121.3760012 102.7204997  18.0659988
 122.5060012 102.9824997  19.0379988 121.6597776 102.8680175  18.8721843
 124.7940012 104.9964997  36.3639988 125.7470012 105.0794997  36.3369988
 124.6330012 104.2844997  36.9839988 124.9026426 104.9116746  36.4440579
 130.9460012 105.2294997  18.4389988 130.6720012 104.8044997  17.6259988
 130.9850012 106.1604997  18.2219988 130.9137699 105.2972484  18.2983610
 120.1130012  99.8794997  34.1689988 120.2630012  99.1504997  33.5669988
 120.1160012 100.6564997  33.6099988 120.1339302  99.8847851  34.0110692
 120.5260012  98.2494997  31.6619988 121.0620012  98.7004997  31.0099988
 119.6740012  98.1414997  31.2389988 120.4842178  98.2966390  31.5155756
 122.1080012 103.6884997  31.9009988 122.8580012 103.5324997  31.3279988
 121.7690012 104.5404997  31.6259988 122.1648921 103.7822968  31.7853561
 126.5230012 101.5034997  36.9299988 126.7160012 100.5724997  36.8179988
 127.3810012 101.9284997  36.9199988 126.6653020 101.4336389  36.9133361
 127.8400012 104.2924997  35.0069988 127.5590012 105.0014997  34.4299988
 128.7830012 104.2194997  34.8559988 127.9289027 104.3797646  34.9075551
 118.5920012 101.0774997  36.0809988 117.8250012 100.5454997  35.8709988
 119.2710012 100.7674997  35.4809988 118.5787022 100.9627506  35.9711648
 121.3320012  95.7054997  32.0929988 121.2330012  96.6524997  31.9879988
 120.5890012  95.3334997  31.6179988 121.2180564  95.7845902  32.0144560
 122.5960012 100.0274997  35.6569988 122.3600012  99.8074997  36.5589988
 121.8120012  99.8204997  35.1469988 122.4578628  99.9694760  35.7113932
 125.3110012  99.1544997  34.7329988 124.3640012  99.1864997  34.8649988
 125.6240012  98.5294997  35.3859988 125.2235475  99.0743207  34.8394455
 126.9450012  97.7884997  36.7379988 126.8490012  96.8364997  36.7319988
 126.6240012  98.0574997  37.5979988 126.8884070  97.6944035  36.8535441
 116.7720012  98.9984997  35.7849988 116.9840012  98.2914997  35.1749988
 116.6610012  98.5604997  36.6289988 116.7859721  98.8427084  35.8156843
 121.5530012  94.9994997  34.7649988 122.2650012  94.3594997  34.7509988
 121.4520012  95.2664997  33.8509988 121.6367939  94.9479938  34.6395650
 121.9070012  96.6824997  36.8179988 121.7750012  96.2064997  35.9979988
 121.3080012  97.4264997  36.7629988 121.8079071  96.7179618  36.6982886
 121.4530012 113.5654997  19.9949988 122.3860012 113.7234997  20.1379988
 121.1890012 114.2404997  19.3699988 121.5449510 113.6783611  19.9300741
 115.0220012 108.2014997  19.4769988 115.9360012 108.2804997  19.7509988
 115.0290012 107.5144997  18.8109988 115.1481131 108.1193961  19.4244393
 113.6710012 113.5944997  24.5549988 113.0240012 113.1324997  24.0219988
 114.0250012 112.9224997  25.1369988 113.6303849 113.4404723  24.5607959
 114.5410012 111.6754997  26.3589988 114.2060012 110.7954997  26.5309988
 114.7630012 112.0204997  27.2239988 114.5251783 111.6017500  26.4994208
 132.0890012 112.4844997  29.3399988 132.0680012 112.6694997  30.2789988
 132.7800012 113.0534997  28.9989988 132.1794618 112.5866606  29.4223864
 131.6530012 112.0524997  32.2619988 131.1650012 111.3164997  31.8909988
 132.2020012 111.6584997  32.9399988 131.6604872 111.8986249  32.3029160
 130.1030012 107.8414997  36.8999988 129.2370012 107.7364997  37.2939988
 130.4800012 108.6004997  37.3459988 130.0353308 107.9296900  37.0142393
 131.4040012 106.0984997  22.4139988 132.2540012 106.5194997  22.5409988
 131.4100012 105.3584997  23.0209988 131.5211372 106.0560803  22.5134344
 131.7990012 104.1514997  24.2379988 131.0720012 103.6724997  24.6349988
 132.3800012 104.3574997  24.9699988 131.7779375 104.1137090  24.3914129
 131.5580012 106.9364997  29.1849988 132.3910012 106.5584997  28.9049988
 131.6700012 107.8794997  29.0659988 131.6872647 107.0122218  29.1305487
 130.0440012 109.8144997  31.4919988 129.3970012 110.1394997  32.1179988
 129.5270012 109.3744997  30.8179988 129.8854029 109.7995004  31.4865827
 132.0670012 104.0524997  20.6289988 131.5450012 104.4094997  19.9099988
 132.0340012 104.7274997  21.3069988 131.9911634 104.1925413  20.6223145
 130.4160012 101.2924997  19.1799988 130.5120012 101.9594997  18.4989988
 130.2760012 100.4764997  18.6979988 130.4102135 101.2734500  19.0218491
 129.5850012 102.6724997  24.8009988 129.4350012 101.7274997  24.7799988
 129.2320012 102.9534997  25.6439988 129.5166625 102.5810441  24.9122346
 114.6210012 104.7504997  28.8109988 114.8050012 104.6684997  27.8749988
 115.4700012 104.6264997  29.2349988 114.7610139 104.7225003  28.7401455
 130.4420012 104.6424997  34.4389988 131.0250012 103.9084997  34.6309988
 131.0060012 105.4144997  34.4859988 130.5979769 104.6464227  34.4716159
 131.9380012 102.5454997  35.1239988 131.0750012 102.1664997  34.9579988
 132.5430012 101.8064997  35.0499988 131.9015979 102.3938023  35.0912817
 129.6630012  98.7004997  18.2969988 130.2740012  98.3294997  18.9339988
 128.8270012  98.2794997  18.4929988 129.6335032  98.5927554  18.4107035
 129.2960012 100.2554997  23.2629988 129.5760012  99.3484997  23.3869988
 130.0550012 100.6894997  22.8739988 129.4369277 100.1900942  23.2273682
 129.9080012 100.8364997  28.6989988 130.8410012 101.0484997  28.6649988
 129.6730012 100.9384997  29.6209988 130.0038036 100.8792769  28.8189976
 129.9370012 101.5734997  31.4749988 129.0940012 101.8414997  31.8409988
 130.3790012 102.3954997  31.2639988 129.8814158 101.7213291  31.4965491
 114.2180012 100.0214997  34.9519988 115.1380012  99.8994997  35.1879988
 113.7690012  99.2714997  35.3409988 114.2831580  99.9033727  35.0369006
 132.2200012  95.5534997  36.8279988 132.5700012  94.8994997  36.2229988
 132.3670012  96.3904997  36.3889988 132.2878419  95.5771591  36.6857118
 129.9090012  97.5184997  23.3109988 130.0920012  97.0694997  24.1369988
 129.3100012  96.9334997  22.8479988 129.8530202  97.3779975  23.3613275
 115.4390012  98.3334997  27.8429988 115.8850012  97.5414997  28.1449988
 115.9060012  99.0494997  28.2739988 115.5630172  98.3220624  27.9424820
 113.7430012 101.3324997  28.9119988 114.2350012 101.1114997  28.1209988
 114.1060012 102.1734997  29.1929988 113.8593126 101.4158357  28.8417531
 131.7400012  97.6624997  35.1779988 130.8220012  97.9334997  35.1419988
 131.8630012  97.1274997  34.3929988 131.6311066  97.6272892  35.0670487
 131.7760012  97.5854997  19.8389988 132.1880012  96.8644997  19.3639988
 132.4580012  98.2554997  19.8979988 131.9245885  97.5772368  19.7818915
 114.0570012  97.5904997  22.9659988 113.1320012  97.7994997  22.8369988
 114.5110012  98.0744997  22.2769988 113.9917368  97.6845993  22.8551226
 128.8280012 112.5744997  24.9119988 129.4800012 112.2274997  24.3039988
 129.3380012 113.0634997  25.5579988 128.9862637 112.5930597  24.9160236
 114.0210012  96.3284997  31.3109988 113.3560012  96.0824997  31.9539988
 113.5780012  96.9504997  30.7329988 113.8700956  96.3788632  31.3209352
 116.2130012 109.5034997  35.4549988 115.3920012 109.6784997  34.9949988
 115.9600012 109.4304997  36.3759988 116.0666164 109.5175622  35.5164923
 119.1670012 110.4784997  31.7139988 118.7420012 111.2874997  31.4309988
 120.0710012 110.5634997  31.4119988 119.2310271 110.6008469  31.6343776
 123.4780012 111.8774997  34.6729988 123.6630012 111.5434997  35.5509988
 124.3240012 112.1864997  34.3509988 123.6177539 111.8736047  34.7495605
 125.8230012 113.1634997  33.9169988 126.5000012 112.5304997  33.6769988
 126.1450012 113.5644997  34.7239988 125.9591637 113.1311154  33.9932793
 130.7400012  95.7524997  32.9969988 129.9280012  96.0774997  32.6089988
 130.9730012  94.9924997  32.4639988 130.6603423  95.6942436  32.8718253
 116.5690012 113.7344997  31.7609988 115.8480012 114.1744997  31.3099988
 116.2030012 113.4834997  32.6099988 116.4209804 113.7607698  31.8139840
 119.0360012 113.3344997  30.7909988 118.1710012 113.4064997  31.1949988
 118.9810012 113.8814997  30.0069988 118.9102085 113.4182685  30.7403362
 123.7460012 113.2224997  29.9659988 123.2900012 113.7514997  29.3119988
 123.9090012 113.8254997  30.6919988 123.7055585 113.3764468  29.9745062
 126.0740012 112.1004997  30.9109988 125.1690012 112.2654997  30.6459988
 126.5030012 112.9534997  30.8459988 126.0080799 112.2384483  30.8659182
 128.6780012 113.6704997  31.2059988 128.4960012 114.5864997  30.9959988
 128.8550012 113.2604997  30.3599988 128.6770210 113.7404822  31.0627885
 115.9830012 112.3574997  28.6709988 115.9650012 111.9324997  29.5289988
 116.7880012 112.0394997  28.2629988 116.0893875 112.2563812  28.7331655
 118.1250012 111.0674997  27.3259988 117.9060012 110.1514997  27.4959988
 118.9490012 111.2074997  27.7919988 118.2064420 110.9610520  27.4122774
 120.6620012 111.5374997  28.1749988 120.8750012 110.6494997  27.8879988
 120.7260012 111.5034997  29.1289988 120.6998231 111.4113102  28.2647397
 124.1700012  97.2014997  27.3189988 123.4960012  96.5724997  27.5749988
 124.7340012  96.7174997  26.7159988 124.1539230  97.0498744  27.2725340
 129.3130012  95.3094997  27.4319988 129.9170012  95.8564997  26.9299988
 128.4430012  95.6284997  27.1919988 129.2781241  95.4275806  27.3307654
 131.0400012  96.4474997  25.7649988 131.6520012  95.9334997  25.2389988
 131.4220012  97.3254997  25.7889988 131.1754540  96.4957140  25.6961830
 116.4970012  95.8354997  25.1409988 115.7200012  95.6014997  24.6339988
 117.0270012  95.0384997  25.1499988 116.4622330  95.6956988  25.0727742
 115.3330012  95.6334997  20.9449988 115.7720012  96.2444997  20.3529988
 114.7000012  96.1714997  21.4189988 115.3074514  95.7899257  20.9280930
 121.0760012  95.7624997  24.9549988 121.9510012  96.1504997  24.9249988
 120.9400012  95.5474997  25.8769988 121.1773695  95.7865184  25.0756440
 126.6330012  95.7924997  26.6039988 126.7090012  95.8874997  25.6539988
 126.3580012  94.8844997  26.7329988 126.6062321  95.6827867  26.4915079
 127.9860012  95.8184997  22.2959988 127.2840012  96.4334997  22.0869988
 127.5420012  94.9804997  22.4269988 127.8296330  95.7895783  22.2850328
 115.2340012 111.5814997  21.8429988 114.5490012 111.5434997  21.1749988
 115.2380012 112.4944997  22.1309988 115.1408193 111.6997016  21.7905284
 117.1940012  97.5494997  19.3869988 117.6860012  96.9194997  18.8599988
 117.8180012  97.8454997  20.0509988 117.3455446  97.5033199  19.4045980
 122.2200012  97.8424997  21.8439988 122.3980012  97.1964997  22.5269988
 122.1670012  98.6764997  22.3119988 122.2371829  97.8667985  22.0005940
 124.0990012 112.7914997  20.2399988 124.9650012 113.1574997  20.0619988
 123.8520012 112.3514997  19.4259988 124.1842392 112.7821756  20.1056289
 130.8080012 112.3544997  22.9189988 130.6130012 111.6064997  22.3539988
 130.7690012 113.1124997  22.3359988 130.7760380 112.3546099  22.7628384
 116.4550012  96.3494997  34.6589988 116.0890012  95.5844997  35.1019988
 117.3680012  96.3784997  34.9459988 116.5282790  96.2487224  34.7584070
 118.4280012  95.7004997  36.1949988 119.3260012  95.4264997  36.0099988
 118.0410012  94.9574997  36.6589988 118.4986612  95.5625914  36.2323643
 117.0520012 112.5014997  18.8679988 116.7850012 112.7884997  19.7409988
 117.8240012 111.9554997  19.0199988 117.1197488 112.4670294  19.0081050
 126.8490012  95.0324997  36.3769988 126.9260012  94.6064997  37.2309988
 127.7430012  95.0464997  36.0339988 126.9803428  94.9760879  36.4475310
 130.0250012 111.1054997  35.0689988 129.2430012 110.9194997  34.5499988
 129.9530012 112.0344997  35.2869988 129.9081777 111.2056492  35.0274048
 144.4310012 104.9914997  25.0999988 144.5200012 105.9354997  24.9679988
 143.7930012 104.7164997  24.4419988 144.3569081 105.0834830  24.9929614
 143.3640012 104.2464997  28.5189988 143.3260012 103.6004997  29.2239988
 143.0420012 103.7804997  27.7479988 143.3152333 104.0949408  28.5112978
 135.7330012 103.8614997  30.1119988 135.7740012 103.2354997  30.8349988
 136.4360012 104.4854997  30.2939988 135.8336363 103.8601196  30.2356044
 136.6560012 108.3114997  28.6469988 136.2870012 107.5094997  28.2769988
 137.5970012 108.1424997  28.6929988 136.7327289 108.1790153  28.6026316
 133.2660012 101.9714997  24.0399988 132.8190012 102.8174997  24.0209988
 132.7050012 101.3914997  23.5239988 133.1289900 102.0089916  23.9676801
 133.9770012 104.1334997  26.1659988 134.1900012 103.3634997  26.6929988
 134.7150012 104.2224997  25.5619988 134.1058496 104.0401394  26.1565300
 144.1820012 112.2904997  27.0329988 144.8020012 111.6134997  26.7589988
 143.9740012 112.0724997  27.9409988 144.2386904 112.1683870  27.1183365
 141.7540012 106.6794997  28.9249988 142.0580012 105.9934997  28.3299988
 142.4750012 106.7974997  29.5429988 141.8930671 106.6016304  28.9271816
 144.8950012 101.0734997  29.2529988 145.0370012 100.1274997  29.2729988
 144.7880012 101.2804997  28.3239988 144.8999863 100.9719534  29.1302339
 138.0490012  99.1744997  26.5249988 138.0930012 100.0344997  26.1069988
 137.5920012  98.6224997  25.8909988 137.9932185  99.2175799  26.3820299
 134.6700012 101.5714997  27.2869988 135.3230012 101.0214997  27.7189988
 134.6940012 101.2974997  26.3699988 134.7626683 101.4591466  27.2222123
 139.8260012 103.1214997  26.5019988 140.4420012 102.5954997  27.0119988
 139.2400012 102.4814997  26.0989988 139.8310810 102.9629208  26.5173173
 136.8600012  98.0924997  30.5989988 136.6410012  98.6224997  29.8329988
 136.1920012  98.3194997  31.2459988 136.7397600  98.1956906  30.5816379
 144.2290012 107.5924997  24.1429988 143.9330012 107.2704997  23.2919988
 143.9040012 108.4924997  24.1839988 144.1446371 107.6700215  24.0321801
 139.4290012 105.7684997  30.8859988 138.6890012 106.3664997  30.9899988
 140.1430012 106.3224997  30.5709988 139.4242237 105.9252831  30.8576465
 136.4530012  99.9844997  28.5509988 137.0670012 100.6174997  28.9249988
 136.9650012  99.5124997  27.8949988 136.6062296 100.0072370  28.5134252
 137.8360012 107.7324997  31.6739988 137.8310012 108.6124997  31.2959988
 136.9830012 107.6494997  32.0989988 137.7199464 107.8416117  31.6797907
 133.9570012 107.4034997  22.4559988 133.6850012 107.6324997  21.5669988
 134.0030012 108.2414997  22.9159988 133.9260094 107.5481213  22.3965697
 140.8860012  95.3984997  28.0519988 140.7690012  94.4494997  27.9969988
 140.0310012  95.7304997  28.3249988 140.7543733  95.3135409  28.0813897
 143.1530012 104.2354997  22.5519988 142.4410012 104.7704997  22.1999988
 143.8440012 104.2914997  21.8919988 143.1490132 104.3162543  22.4146289
 143.2060012 102.6934997  19.5909988 143.9070012 102.7154997  20.2419988
 143.5090012 102.0654997  18.9349988 143.3427830 102.6116566  19.5913711
 138.2040012 105.0754997  25.3859988 137.8730012 104.7054997  24.5679988
 138.7920012 104.4054997  25.7329988 138.2381873 104.9341156  25.3208102
 139.5700012 108.5034997  28.0679988 139.4760012 107.9254997  27.3109988
 140.3000012 108.1324997  28.5639988 139.6557981 108.3742390  28.0314165
 138.5700012 103.8444997  29.0199988 139.1360012 103.9654997  28.2569988
 138.8890012 104.4814997  29.6589988 138.6905786 103.9471884  29.0020040
 144.8790012 109.3474997  29.7539988 144.6390012 110.0094997  30.4019988
 144.6810012 108.5134997  30.1789988 144.8193808 109.3253134  29.9001524
 139.4500012 108.2434997  33.7369988 139.1390012 109.0254997  34.1919988
 138.8000012 108.0904997  33.0509988 139.3195558 108.3299105  33.7065871
 136.3700012 104.4414997  32.9659988 136.4410012 105.0924997  33.6639988
 135.4800012 104.5444997  32.6309988 136.2593117 104.5445936  33.0162700
 143.1560012 110.3444997  24.6239988 143.6300012 110.6394997  25.4019988
 142.5930012 111.0824997  24.3909988 143.1447653 110.4846932  24.6990136
 137.6900012 110.3154997  34.4999988 137.6970012 110.1794997  33.5529988
 136.7740012 110.1974997  34.7519988 137.5671714 110.2809430  34.4044666
 137.1940012 104.1454997  22.9759988 136.9020012 104.9134997  22.4849988
 136.5200012 103.4854997  22.8129988 137.0629081 104.1614406  22.8867340
 133.2870012 106.5084997  31.7909988 132.7860012 106.4804997  30.9759988
 133.2920012 105.6024997  32.0999988 133.2191526 106.3822278  31.7212872
 133.0370012 109.2884997  28.6749988 133.9830012 109.1444997  28.6559988
 132.9250012 110.0724997  29.2119988 133.1512727 109.3748046  28.7450072
 142.2140012 109.5284997  33.2329988 142.3010012 110.3544997  33.7079988
 141.3500012 109.1984997  33.4819988 142.1091964 109.5969878  33.3316549
 142.6280012 113.3004997  23.0389988 142.5530012 113.1794997  22.0929988
 142.6610012 114.2504997  23.1579988 142.6221848 113.4122500  22.9254834
 136.2810012 112.0894997  24.8199988 136.4340012 111.7414997  25.6989988
 135.4310012 111.7334997  24.5649988 136.1868962 111.9936650  24.9058340
 135.5360012 107.8314997  32.8339988 135.7520012 107.4704997  33.6929988
 134.6810012 107.4574997  32.6239988 135.4499292 107.7314111  32.9233386
 138.1550012  96.3014997  28.8289988 137.2930012  96.2144997  28.4219988
 138.1320012  97.1574997  29.2569988 138.0340330  96.4052765  28.8311863
 142.8180012  96.0234997  32.2039988 143.2380012  95.6084997  32.9569988
 141.8850012  95.8454997  32.3209988 142.7493644  95.9425900  32.3229539
 142.4790012  98.5164997  19.4889988 142.2260012  98.5354997  20.4119988
 142.2230012  97.6444997  19.1879988 142.4097790  98.4012437  19.5746263
 138.2460012 101.2674997  29.9239988 137.6040012 101.2264997  30.6329988
 138.2830012 102.1934997  29.6869988 138.1631324 101.3871559  29.9889824
 138.2430012 101.4884997  24.8359988 137.3500012 101.1474997  24.7779988
 138.6930012 101.1114997  24.0809988 138.1817305 101.3908484  24.7259177
 143.7780012 101.9044997  23.6529988 143.3690012 102.7194997  23.3619988
 144.4990012 101.7644997  23.0389988 143.8194537 101.9972018  23.5301342
 142.8800012 102.0794997  35.1409988 142.3180012 101.3754997  35.4619988
 143.7070012 101.9594997  35.6089988 142.9147095 101.9667883  35.2482330
 144.7830012 101.3504997  26.4669988 144.5880012 101.9554997  25.7519988
 144.9640012 100.5164997  26.0329988 144.7807614 101.3206300  26.3104405
 135.9960012 101.5874997  31.7909988 135.9580012 101.9874997  32.6599988
 135.5050012 100.7704997  31.8819988 135.9244684 101.5318069  31.9221059
 139.3620012  98.9614997  18.5899988 138.9310012  98.5164997  19.3199988
 138.6440012  99.3334997  18.0779988 139.2059438  98.9508940  18.6206799
 132.6040012  98.7034997  25.6419988 133.2350012  98.6744997  26.3609988
 133.0530012  98.2784997  24.9119988 132.7510774  98.6420492  25.6416553
 133.8780012  99.4494997  21.0659988 134.3520012 100.0404997  20.4809988
 133.1610012  99.9804997  21.4129988 133.8459341  99.6020867  21.0328836
 144.0470012 102.9884997  31.1389988 144.3700012 102.3574997  30.4959988
 143.6070012 102.4534997  31.7989988 144.0316895 102.8298441  31.1402850
 140.8240012  98.9154997  25.9229988 139.9130012  98.9724997  26.2109988
 141.3300012  98.8554997  26.7329988 140.7675413  98.9151985  26.0720622
 135.6530012 100.5444997  24.7489988 134.7630012 100.6444997  24.4089988
 135.9490012  99.7024997  24.4029988 135.5712823 100.4443545  24.6557213
 139.3060012 100.5444997  22.4059988 140.2370012 100.6734997  22.5839988
 139.0910012 101.2144997  21.7559988 139.4044247 100.6526565  22.3425747
 137.9800012 101.7394997  19.9729988 137.4370012 101.3594997  19.2809988
 138.8130012 101.9334997  19.5439988 138.0184399 101.7138124  19.8204526
 136.1150012 106.2964997  35.0719988 136.8470012 106.5504997  35.6329988
 135.3350012 106.5004997  35.5869988 136.1098232 106.3589177  35.2185760
 142.1440012 101.7034997  27.8099988 142.7090012 101.1564997  27.2629988
 141.9970012 101.1814997  28.5979988 142.2012918 101.5582024  27.8418454
 137.1460012  97.8394997  24.2279988 136.8290012  96.9374997  24.1929988
 137.9280012  97.8414997  23.6749988 137.2082284  97.7161628  24.1484783
 140.7710012 100.0914997  30.2239988 139.9350012 100.5454997  30.3339988
 141.2950012 100.3674997  30.9759988 140.7274414 100.1909376  30.3407136
 141.3150012 106.3044997  21.9079988 140.5700012 105.7974997  21.5859988
 141.1810012 106.3534997  22.8549988 141.1948776 106.2416940  21.9918647
 142.8340012 106.4884997  33.1449988 142.4890012 106.1074997  33.9519988
 142.6340012 107.4224997  33.2169988 142.7598061 106.5625228  33.2650961
 136.4400012 105.5994997  27.6779988 137.1850012 105.5974997  27.0769988
 136.5180012 104.7764997  28.1599988 136.5525518 105.4879315  27.6608929
 143.4410012 107.7634997  20.9339988 143.1450012 108.5894997  21.3149988
 142.7380012 107.1434997  21.1299988 143.3054914 107.7928199  21.0126443
 133.4480012 104.0604997  32.9929988 133.6710012 103.6424997  33.8249988
 132.8460012 103.4474997  32.5699988 133.3971759 103.9204668  33.0497022
 140.4640012 103.5774997  35.2059988 140.1680012 103.4114997  34.3109988
 141.3960012 103.3574997  35.1949988 140.5494166 103.5250640  35.0820536
 138.8150012 109.1174997  25.0819988 139.3420012 109.8904997  24.8819988
 137.9350012 109.3424997  24.7809988 138.7681773 109.2538005  25.0139010
 134.5700012 103.9794997  19.6689988 135.1860012 104.6064997  20.0489988
 133.7080012 104.2954997  19.9409988 134.5377698 104.1079430  19.7577183
 140.2420012 106.7804997  24.6589988 140.0010012 107.7054997  24.6999988
 139.5010012 106.3214997  25.0549988 140.1088409 106.8451421  24.7181377
 140.7570012 110.9294997  30.9739988 141.1190012 111.7844997  30.7399988
 141.2880012 110.6374997  31.7139988 140.8784473 111.0071060  31.0420855
 138.9250012 111.8024997  24.2039988 137.9750012 111.9074997  24.2549988
 139.2770012 112.6224997  24.5489988 138.8424203 111.9278314  24.2576650
 144.3010012 107.0284997  30.6739988 143.8750012 106.8014997  31.5009988
 144.8810012 106.2904997  30.4919988 144.3211868 106.8975299  30.7625830
 135.0820012  98.8134997  32.5509988 134.1890012  99.1524997  32.4829988
 134.9830012  97.9584997  32.9689988 134.9464164  98.7442588  32.5982235
 134.7330012 110.6184997  30.9859988 134.9500012 109.6864997  30.9549988
 134.9790012 110.8924997  31.8689988 134.7959549 110.5280636  31.1011763
 140.5950012 109.0694997  18.1949988 140.8340012 108.3214997  17.6479988
 140.3260012 108.6814997  19.0279988 140.5913675 108.9146638  18.2326865
 139.5320012 108.6394997  20.6519988 139.6780012 108.1194997  21.4419988
 139.5290012 109.5464997  20.9579988 139.5515989 108.6908853  20.8016088
 135.9850012 105.8924997  21.1619988 135.2990012 106.2444997  21.7289988
 136.5070012 106.6554997  20.9149988 135.9616852 106.0438578  21.2062118
 143.8160012  98.5544997  31.4409988 144.5150012  98.6284997  32.0909988
 143.4350012  97.6904997  31.5949988 143.8601767  98.4477624  31.5508322
 144.6010012  98.2064997  22.5379988 144.8210012  98.6784997  21.7349988
 145.1590012  98.6014997  23.2079988 144.7064968  98.3244285  22.5187331
 142.2690012 110.3374997  21.4009988 141.4530012 110.8344997  21.4529988
 142.7990012 110.8124997  20.7609988 142.2289161 110.4697722  21.3215956
 141.8010012  99.9344997  23.3729988 142.6130012 100.4394997  23.4189988
 141.5560012  99.7894997  24.2869988 141.8790520  99.9840375  23.5028517
 142.3360012 100.9204997  32.5579988 142.4550012 101.4944997  33.3149988
 142.9920012 100.2324997  32.6719988 142.4409757 100.9061079  32.6770825
 142.6840012  97.0154997  24.3109988 142.3380012  97.6334997  24.9559988
 143.3430012  97.5164997  23.8299988 142.7257826  97.1675802  24.3340971
 139.6080012 111.3814997  21.3829988 139.7680012 112.1804997  20.8819988
 139.4100012 111.6874997  22.2679988 139.6031649 111.5324469  21.4339815
 138.3420012  98.0784997  20.9979988 138.2590012  98.9674997  21.3449988
 139.2320012  97.8134997  21.2299988 138.4509469  98.1641430  21.0767626
 136.6010012 108.5064997  20.0589988 137.1930012 109.2054997  20.3349988
 137.0600012 108.0734997  19.3389988 136.7441142 108.5437049  19.9994830
 134.9170012 101.1704997  19.1749988 134.8720012 102.1094997  19.3529988
 134.0290012 100.9344997  18.9049988 134.7908574 101.2671892  19.1628912
 135.7250012  95.9524997  27.8479988 135.4960012  96.0114997  26.9199988
 135.2820012  95.1604997  28.1539988 135.6338530  95.8535753  27.7624786
 134.6550012 109.8924997  24.0079988 133.8230012 110.3654997  24.0359988
 135.2010012 110.4024997  23.4099988 134.6149739 110.0261871  23.9309716
 133.9430012 112.5054997  35.3379988 134.4840012 112.2884997  36.0979988
 133.4620012 111.6994997  35.1489988 133.9519345 112.3669514  35.4163076
 138.5410012 111.4244997  36.9589988 139.3080012 110.9654997  37.2999988
 138.5190012 111.1984997  36.0289988 138.6431434 111.3310409  36.8800043
 142.6330012 110.9324997  18.3339988 141.9890012 110.3014997  18.6549988
 143.3950012 110.4014997  18.1019988 142.6478077 110.7742920  18.3466011
 133.8500012 106.3154997  36.2929988 133.9940012 105.4134997  36.0059988
 133.0780012 106.6014997  35.8049988 133.7653322 106.2308261  36.1877881
 138.1920012 106.6594997  18.4249988 138.2560012 105.8654997  18.9559988
 138.8450012 106.5404997  17.7349988 138.2890241 106.5347148  18.4044317
 140.5060012 106.2854997  35.7249988 140.1770012 106.5564997  34.8679988
 140.6580012 105.3444997  35.6379988 140.4814809 106.1953862  35.5958244
 143.5440012 107.7064997  18.1609988 143.2750012 107.8864997  19.0619988
 143.3380012 106.7804997  18.0299988 143.4793825 107.6060152  18.2665214
 134.6830012 103.5154997  35.7129988 135.0910012 102.6584997  35.5919988
 134.4230012 103.5304997  36.6339988 134.7037568 103.4000807  35.8209588
 139.3410012 104.6314997  20.7309988 138.8810012 104.1474997  21.4169988
 139.5960012 103.9634997  20.0949988 139.3124902 104.4748731  20.7389334
 138.6300012 102.5244997  33.0869988 138.0120012 103.1994997  33.3669988
 138.9740012 102.8454997  32.2539988 138.5919615 102.6602721  33.0126581
 140.4120012 102.8744997  18.9929988 140.2320012 102.7204997  18.0659988
 141.3620012 102.9824997  19.0379988 140.5157776 102.8680175  18.8721843
 143.6500012 104.9964997  36.3639988 144.6030012 105.0794997  36.3369988
 143.4890012 104.2844997  36.9839988 143.7586426 104.9116746  36.4440579
 138.9690012  99.8794997  34.1689988 139.1190012  99.1504997  33.5669988
 138.9720012 100.6564997  33.6099988 138.9899302  99.8847851  34.0110692
 139.3820012  98.2494997  31.6619988 139.9180012  98.7004997  31.0099988
 138.5300012  98.1414997  31.2389988 139.3402178  98.2966390  31.5155756
 140.9640012 103.6884997  31.9009988 141.7140012 103.5324997  31.3279988
 140.6250012 104.5404997  31.6259988 141.0208921 103.7822968  31.7853561
 137.4480012 101.0774997  36.0809988 136.6810012 100.5454997  35.8709988
 138.1270012 100.7674997  35.4809988 137.4347022 100.9627506  35.9711648
 140.1880012  95.7054997  32.0929988 140.0890012  96.6524997  31.9879988
 139.4450012  95.3334997  31.6179988 140.0740564  95.7845902  32.0144560
 141.4520012 100.0274997  35.6569988 141.2160012  99.8074997  36.5589988
 140.6680012  99.8204997  35.1469988 141.3138628  99.9694760  35.7113932
 144.1670012  99.1544997  34.7329988 143.2200012  99.1864997  34.8649988
 144.4800012  98.5294997  35.3859988 144.0795475  99.0743207  34.8394455
 135.6280012  98.9984997  35.7849988 135.8400012  98.2914997  35.1749988
 135.5170012  98.5604997  36.6289988 135.6419721  98.8427084  35.8156843
 140.4090012  94.9994997  34.7649988 141.1210012  94.3594997  34.7509988
 140.3080012  95.2664997  33.8509988 140.4927939  94.9479938  34.6395650
 140.7630012  96.6824997  36.8179988 140.6310012  96.2064997  35.9979988
 140.1640012  97.4264997  36.7629988 140.6639071  96.7179618  36.6982886
 140.3090012 113.5654997  19.9949988 141.2420012 113.7234997  20.1379988
 140.0450012 114.2404997  19.3699988 140.4009510 113.6783611  19.9300741
 133.8780012 108.2014997  19.4769988 134.7920012 108.2804997  19.7509988
 133.8850012 107.5144997  18.8109988 134.0041131 108.1193961  19.4244393
 132.5270012 113.5944997  24.5549988 131.8800012 113.1324997  24.0219988
 132.8810012 112.9224997  25.1369988 132.4863849 113.4404723  24.5607959
 133.3970012 111.6754997  26.3589988 133.0620012 110.7954997  26.5309988
 133.6190012 112.0204997  27.2239988 133.3811783 111.6017501  26.4994208
 133.4770012 104.7504997  28.8109988 133.6610012 104.6684997  27.8749988
 134.3260012 104.6264997  29.2349988 133.6170139 104.7225003  28.7401455
 133.0740012 100.0214997  34.9519988 133.9940012  99.8994997  35.1879988
 132.6250012  99.2714997  35.3409988 133.1391580  99.9033727  35.0369006
 134.2950012  98.3334997  27.8429988 134.7410012  97.5414997  28.1449988
 134.7620012  99.0494997  28.2739988 134.4190172  98.3220624  27.9424820
 132.5990012 101.3324997  28.9119988 133.0910012 101.1114997  28.1209988
 132.9620012 102.1734997  29.1929988 132.7153126 101.4158357  28.8417531
 132.9130012  97.5904997  22.9659988 131.9880012  97.7994997  22.8369988
 133.3670012  98.0744997  22.2769988 132.8477368  97.6845993  22.8551226
 132.8770012  96.3284997  31.3109988 132.2120012  96.0824997  31.9539988
 132.4340012  96.9504997  30.7329988 132.7260956  96.3788632  31.3209352
 135.0690012 109.5034997  35.4549988 134.2480012 109.6784997  34.9949988
 134.8160012 109.4304997  36.3759988 134.9226164 109.5175622  35.5164923
 138.0230012 110.4784997  31.7139988 137.5980012 111.2874997  31.4309988
 138.9270012 110.5634997  31.4119988 138.0870271 110.6008469  31.6343776
 142.3340012 111.8774997  34.6729988 142.5190012 111.5434997  35.5509988
 143.1800012 112.1864997  34.3509988 142.4737539 111.8736047  34.7495605
 144.6790012 113.1634997  33.9169988 145.3560012 112.5304997  33.6769988
 145.0010012 113.5644997  34.7239988 144.8151637 113.1311154  33.9932793
 135.4250012 113.7344997  31.7609988 134.7040012 114.1744997  31.3099988
 135.0590012 113.4834997  32.6099988 135.2769804 113.7607698  31.8139840
 137.8920012 113.3344997  30.7909988 137.0270012 113.4064997  31.1949988
 137.8370012 113.8814997  30.0069988 137.7662085 113.4182685  30.7403362
 142.6020012 113.2224997  29.9659988 142.1460012 113.7514997  29.3119988
 142.7650012 113.8254997  30.6919988 142.5615585 113.3764468  29.9745062
 134.8390012 112.3574997  28.6709988 134.8210012 111.9324997  29.5289988
 135.6440012 112.0394997  28.2629988 134.9453875 112.2563812  28.7331655
 136.9810012 111.0674997  27.3259988 136.7620012 110.1514997  27.4959988
 137.8050012 111.2074997  27.7919988 137.0624420 110.9610520  27.4122774
 139.5180012 111.5374997  28.1749988 139.7310012 110.6494997  27.8879988
 139.5820012 111.5034997  29.1289988 139.5558232 111.4113102  28.2647397
 143.0260012  97.2014997  27.3189988 142.3520012  96.5724997  27.5749988
 143.5900012  96.7174997  26.7159988 143.0099230  97.0498744  27.2725340
 135.3530012  95.8354997  25.1409988 134.5760012  95.6014997  24.6339988
 135.8830012  95.0384997  25.1499988 135.3182330  95.6956988  25.0727742
 134.1890012  95.6334997  20.9449988 134.6280012  96.2444997  20.3529988
 133.5560012  96.1714997  21.4189988 134.1634514  95.7899257  20.9280930
 139.9320012  95.7624997  24.9549988 140.8070012  96.1504997  24.9249988
 139.7960012  95.5474997  25.8769988 140.0333695  95.7865184  25.0756440
 134.0900012 111.5814997  21.8429988 133.4050012 111.5434997  21.1749988
 134.0940012 112.4944997  22.1309988 133.9968193 111.6997016  21.7905284
 136.0500012  97.5494997  19.3869988 136.5420012  96.9194997  18.8599988
 136.6740012  97.8454997  20.0509988 136.2015446  97.5033199  19.4045980
 141.0760012  97.8424997  21.8439988 141.2540012  97.1964997  22.5269988
 141.0230012  98.6764997  22.3119988 141.0931829  97.8667985  22.0005940
 142.9550012 112.7914997  20.2399988 143.8210012 113.1574997  20.0619988
 142.7080012 112.3514997  19.4259988 143.0402392 112.7821756  20.1056289
 135.3110012  96.3494997  34.6589988 134.9450012  95.5844997  35.1019988
 136.2240012  96.3784997  34.9459988 135.3842790  96.2487224  34.7584070
 137.2840012  95.7004997  36.1949988 138.1820012  95.4264997  36.0099988
 136.8970012  94.9574997  36.6589988 137.3546612  95.5625914  36.2323643
 135.9080012 112.5014997  18.8679988 135.6410012 112.7884997  19.7409988
 136.6800012 111.9554997  19.0199988 135.9757488 112.4670294  19.0081050
  12.4390012 123.8474997  25.0999988  12.5280012 124.7914997  24.9679988
  11.8010012 123.5724997  24.4419988  12.3649081 123.9394830  24.9929614
  11.3720012 123.1024997  28.5189988  11.3340012 122.4564997  29.2239988
  11.0500012 122.6364997  27.7479988  11.3232333 122.9509408  28.5112978
   3.7410012 122.7174997  30.1119988   3.7820012 122.0914997  30.8349988
   4.4440012 123.3414997  30.2939988   3.8416363 122.7161196  30.2356044
  15.0780012 126.0414997  26.8199988  14.6380012 125.3214997  27.2709988
  15.0650012 126.7624997  27.4499988  15.0160226 126.0403731  26.9668494
   4.6640012 127.1674997  28.6469988   4.2950012 126.3654997  28.2769988
   5.6050012 126.9984997  28.6929988   4.7407289 127.0350153  28.6026316
   1.2740012 120.8274997  24.0399988   0.8270012 121.6734997  24.0209988
   0.7130012 120.2474997  23.5239988   1.1369900 120.8649916  23.9676801
   1.9850012 122.9894997  26.1659988   2.1980012 122.2194997  26.6929988
   2.7230012 123.0784997  25.5619988   2.1138496 122.8961394  26.1565300
  12.1900012 131.1464997  27.0329988  12.8100012 130.4694997  26.7589988
  11.9820012 130.9284997  27.9409988  12.2466904 131.0243870  27.1183365
   9.7620012 125.5354997  28.9249988  10.0660012 124.8494997  28.3299988
  10.4830012 125.6534997  29.5429988   9.9010671 125.4576304  28.9271816
  18.4250012 117.1364997  29.7859988  18.4740012 117.7464997  30.5219988
  18.8500012 117.5974997  29.0629988  18.4891824 117.2823741  29.7890205
  12.9030012 119.9294997  29.2529988  13.0450012 118.9834997  29.2729988
  12.7960012 120.1364997  28.3239988  12.9079864 119.8279534  29.1302339
   6.0570012 118.0304997  26.5249988   6.1010012 118.8904997  26.1069988
   5.6000012 117.4784997  25.8909988   6.0012185 118.0735799  26.3820299
  13.7800012 118.1614997  24.9259988  14.4260012 117.8324997  25.5509988
  14.2900012 118.6794997  24.3029988  13.9374264 118.1864611  24.9273862
   2.6780012 120.4274997  27.2869988   3.3310012 119.8774997  27.7189988
   2.7020012 120.1534997  26.3699988   2.7706683 120.3151466  27.2222123
   7.8340012 121.9774997  26.5019988   8.4500012 121.4514997  27.0119988
   7.2480012 121.3374997  26.0989988   7.8390810 121.8189208  26.5173173
  18.8160012 118.6144997  32.0219988  18.1280012 119.2724997  31.9259988
  18.8320012 118.4174997  32.9579988  18.7238525 118.6780462  32.1354808
   4.8680012 116.9484997  30.5989988   4.6490012 117.4784997  29.8329988
   4.2000012 117.1754997  31.2459988   4.7477600 117.0516906  30.5816379
  12.2370012 126.4484997  24.1429988  11.9410012 126.1264997  23.2919988
  11.9120012 127.3484997  24.1839988  12.1526371 126.5260215  24.0321801
   7.4370012 124.6244997  30.8859988   6.6970012 125.2224997  30.9899988
   8.1510012 125.1784997  30.5709988   7.4322237 124.7812831  30.8576465
  15.5440012 117.4524997  26.9059988  15.3280012 116.6864997  27.4389988
  16.1990012 117.9244997  27.4189988  15.6030632 117.4115889  27.0482861
   4.4610012 118.8404997  28.5509988   5.0750012 119.4734997  28.9249988
   4.9730012 118.3684997  27.8949988   4.6142296 118.8632370  28.5134252
   5.8440012 126.5884997  31.6739988   5.8390012 127.4684997  31.2959988
   4.9910012 126.5054997  32.0989988   5.7279464 126.6976117  31.6797907
   1.9650012 126.2594997  22.4559988   1.6930012 126.4884997  21.5669988
   2.0110012 127.0974997  22.9159988   1.9340094 126.4041213  22.3965697
  15.5900012 127.8814997  29.1679988  14.6490012 127.9394997  29.3299988
  15.8670012 128.7874997  29.0309988  15.4984679 128.0119443  29.1716815
  15.8910012 116.1674997  30.5859988  15.1550012 116.7784997  30.5479988
  16.5740012 116.5824997  30.0589988  15.8826541 116.3071374  30.5095832
   8.8940012 114.2544997  28.0519988   8.7770012 113.3054997  27.9969988
   8.0390012 114.5864997  28.3249988   8.7623733 114.1695409  28.0813897
  13.8420012 129.6624997  25.7939988  14.2680012 128.9554997  25.3089988
  14.1590012 130.4634997  25.3769988  13.9431019 129.6740994  25.6713130
  15.0020012 127.5634997  24.3019988  14.7440012 126.8734997  23.6909988
  15.0730012 127.1204997  25.1479988  14.9762856 127.4092124  24.3326885
  16.6880012 126.1294997  32.7799988  16.8280012 125.5384997  32.0399988
  16.8550012 127.0024997  32.4229988  16.7296778 126.1666426  32.6306965
  11.1610012 123.0914997  22.5519988  10.4490012 123.6264997  22.1999988
  11.8520012 123.1474997  21.8919988  11.1570132 123.1722543  22.4146289
  11.2140012 121.5494997  19.5909988  11.9150012 121.5714997  20.2419988
  11.5170012 120.9214997  18.9349988  11.3507830 121.4676566  19.5913711
  18.5300012 122.4694997  30.8459988  17.8770012 123.1644997  30.9349988
  18.9950012 122.6794997  30.0359988  18.5035390 122.5929425  30.7486883
  14.5660012 123.3014997  23.5039988  13.8340012 123.5294997  24.0769988
  15.0140012 122.5874997  23.9589988  14.5263095 123.2362571  23.6439119
  14.4640012 121.4754997  32.5709988  14.5440012 122.2384997  33.1429988
  13.8620012 121.7544997  31.8809988  14.3935756 121.6177134  32.5560589
   6.2120012 123.9314997  25.3859988   5.8810012 123.5614997  24.5679988
   6.8000012 123.2614997  25.7329988   6.2461873 123.7901156  25.3208102
   7.5780012 127.3594997  28.0679988   7.4840012 126.7814997  27.3109988
   8.3080012 126.9884997  28.5639988   7.6637981 127.2302390  28.0314165
   6.5780012 122.7004997  29.0199988   7.1440012 122.8214997  28.2569988
   6.8970012 123.3374997  29.6589988   6.6985786 122.8031884  29.0020040
  12.8870012 128.2034997  29.7539988  12.6470012 128.8654997  30.4019988
  12.6890012 127.3694997  30.1789988  12.8273808 128.1813134  29.9001524
   7.4580012 127.0994997  33.7369988   7.1470012 127.8814997  34.1919988
   6.8080012 126.9464997  33.0509988   7.3275558 127.1859105  33.7065871
  13.4370012 122.4634997  21.1889988  14.0170012 122.6134997  21.9359988
  13.8510012 122.9344997  20.4659988  13.5722830 122.5476841  21.1934134
   4.3780012 123.2974997  32.9659988   4.4490012 123.9484997  33.6639988
   3.4880012 123.4004997  32.6309988   4.2673117 123.4005936  33.0162700
  11.1640012 129.2004997  24.6239988  11.6380012 129.4954997  25.4019988
  10.6010012 129.9384997  24.3909988  11.1527653 129.3406932  24.6990136
   5.6980012 129.1714997  34.4999988   5.7050012 129.0354997  33.5529988
   4.7820012 129.0534997  34.7519988   5.5751714 129.1369430  34.4044666
  17.1360012 114.2134997  21.0019988  16.2360012 114.3524997  21.2969988
  17.3880012 115.0444997  20.5999988  17.0468702 114.3449074  20.9880205
   5.2020012 123.0014997  22.9759988   4.9100012 123.7694997  22.4849988
   4.5280012 122.3414997  22.8129988   5.0709081 123.0174406  22.8867340
  18.3250012 128.5794997  19.3779988  18.3990012 129.5184997  19.5489988
  19.2310012 128.2744997  19.3219988  18.4575100 128.6666722  19.3938119
   1.2950012 125.3644997  31.7909988   0.7940012 125.3364997  30.9759988
   1.3000012 124.4584997  32.0999988   1.2271526 125.2382278  31.7212872
   1.0450012 128.1444997  28.6749988   1.9910012 128.0004997  28.6559988
   0.9330012 128.9284997  29.2119988   1.1592727 128.2308046  28.7450072
  19.2430012 128.8104997  34.3569988  19.1940012 127.8554997  34.3199988
  18.4160012 129.0784997  34.7579988  19.1244940 128.7158998  34.4061375
  10.2220012 128.3844997  33.2329988  10.3090012 129.2104997  33.7079988
   9.3580012 128.0544997  33.4819988  10.1171964 128.4529878  33.3316549
  10.6360012 132.1564997  23.0389988  10.5610012 132.0354997  22.0929988
  10.6690012 133.1064997  23.1579988  10.6301848 132.2682500  22.9254834
   4.2890012 130.9454997  24.8199988   4.4420012 130.5974997  25.6989988
   3.4390012 130.5894997  24.5649988   4.1948962 130.8496650  24.9058340
  13.7380012 131.3104997  20.0409988  14.1130012 130.5664997  19.5709988
  13.7420012 131.0404997  20.9599988  13.7898915 131.1721486  20.1007824
  13.4070012 131.2364997  22.7909988  12.4710012 131.3364997  22.9689988
  13.6870012 130.5274997  23.3689988  13.3168255 131.1542711  22.8935391
  16.3950012 120.3034997  34.8369988  15.9880012 120.7844997  34.1159988
  16.4360012 119.3984997  34.5289988  16.3448437 120.2469374  34.6966683
   3.5440012 126.6874997  32.8339988   3.7600012 126.3264997  33.6929988
   2.6890012 126.3134997  32.6239988   3.4579292 126.5874111  32.9233386
   6.1630012 115.1574997  28.8289988   5.3010012 115.0704997  28.4219988
   6.1400012 116.0134997  29.2569988   6.0420330 115.2612765  28.8311863
  10.8260012 114.8794997  32.2039988  11.2460012 114.4644997  32.9569988
   9.8930012 114.7014997  32.3209988  10.7573644 114.7985900  32.3229539
  14.1520012 118.6354997  33.0569988  13.6380012 118.5094997  33.8549988
  13.9970012 119.5474997  32.8129988  14.0606852 118.7416132  33.1332158
  14.9150012 123.4964997  18.8189988  14.9570012 123.2734997  17.8889988
  15.7640012 123.8954997  19.0089988  15.0355396 123.5199155  18.7173627
  10.4870012 117.3724997  19.4889988  10.2340012 117.3914997  20.4119988
  10.2310012 116.5004997  19.1879988  10.4177790 117.2572437  19.5746263
   6.2540012 120.1234997  29.9239988   5.6120012 120.0824997  30.6329988
   6.2910012 121.0494997  29.6869988   6.1711324 120.2431559  29.9889824
   6.2510012 120.3444997  24.8359988   5.3580012 120.0034997  24.7779988
   6.7010012 119.9674997  24.0809988   6.1897305 120.2468484  24.7259177
  11.7860012 120.7604997  23.6529988  11.3770012 121.5754997  23.3619988
  12.5070012 120.6204997  23.0389988  11.8274537 120.8532018  23.5301342
  10.8880012 120.9354997  35.1409988  10.3260012 120.2314997  35.4619988
  11.7150012 120.8154997  35.6089988  10.9227095 120.8227883  35.2482330
  12.7910012 120.2064997  26.4669988  12.5960012 120.8114997  25.7519988
  12.9720012 119.3724997  26.0329988  12.7887614 120.1766300  26.3104405
   4.0040012 120.4434997  31.7909988   3.9660012 120.8434997  32.6599988
   3.5130012 119.6264997  31.8819988   3.9324684 120.3878069  31.9221059
   7.3700012 117.8174997  18.5899988   6.9390012 117.3724997  19.3199988
   6.6520012 118.1894997  18.0779988   7.2139438 117.8068940  18.6206799
   0.6120012 117.5594997  25.6419988   1.2430012 117.5304997  26.3609988
   1.0610012 117.1344997  24.9119988   0.7590774 117.4980492  25.6416553
   1.8860012 118.3054997  21.0659988   2.3600012 118.8964997  20.4809988
   1.1690012 118.8364997  21.4129988   1.8539341 118.4580867  21.0328836
  12.0550012 121.8444997  31.1389988  12.3780012 121.2134997  30.4959988
  11.6150012 121.3094997  31.7989988  12.0396895 121.6858441  31.1402850
   8.8320012 117.7714997  25.9229988   7.9210012 117.8284997  26.2109988
   9.3380012 117.7114997  26.7329988   8.7755413 117.7711985  26.0720622
   3.6610012 119.4004997  24.7489988   2.7710012 119.5004997  24.4089988
   3.9570012 118.5584997  24.4029988   3.5792823 119.3003545  24.6557213
   7.3140012 119.4004997  22.4059988   8.2450012 119.5294997  22.5839988
   7.0990012 120.0704997  21.7559988   7.4124247 119.5086565  22.3425747
  13.2370012 117.0064997  29.1869988  12.5610012 117.1374997  29.8509988
  12.7520012 116.8514997  28.3769988  13.0787145 117.0034905  29.1684517
   5.9880012 120.5954997  19.9729988   5.4450012 120.2154997  19.2809988
   6.8210012 120.7894997  19.5439988   6.0264399 120.5698124  19.8204526
  16.5250012 132.6784997  35.4639988  16.7250012 133.1024997  34.6289988
  17.1800012 133.0214997  36.0709988  16.6410051 132.7829648  35.4317836
   4.1230012 125.1524997  35.0719988   4.8550012 125.4064997  35.6329988
   3.3430012 125.3564997  35.5869988   4.1178232 125.2149177  35.2185760
  10.1520012 120.5594997  27.8099988  10.7170012 120.0124997  27.2629988
  10.0050012 120.0374997  28.5979988  10.2092918 120.4142024  27.8418454
   5.1540012 116.6954997  24.2279988   4.8370012 115.7934997  24.1929988
   5.9360012 116.6974997  23.6749988   5.2162284 116.5721628  24.1484783
   8.7790012 118.9474997  30.2239988   7.9430012 119.4014997  30.3339988
   9.3030012 119.2234997  30.9759988   8.7354414 119.0469376  30.3407136
   9.3230012 125.1604997  21.9079988   8.5780012 124.6534997  21.5859988
   9.1890012 125.2094997  22.8549988   9.2028776 125.0976940  21.9918647
  16.4730012 124.2934997  30.6949988  17.1150012 124.7504997  30.1509988
  15.6430012 124.4064997  30.2319988  16.4485963 124.3712704  30.5580177
  13.2210012 117.9744997  20.1079988  12.2820012 118.0864997  19.9559988
  13.5180012 118.8314997  20.4139988  13.1327666 118.1056443  20.1285768
  10.8420012 125.3444997  33.1449988  10.4970012 124.9634997  33.9519988
  10.6420012 126.2784997  33.2169988  10.7678061 125.4185228  33.2650961
  13.9390012 119.8414997  21.7679988  14.8310012 119.7044997  22.0869988
  13.9960012 120.6324997  21.2319988  14.0686285 119.9296660  21.7391690
   4.4480012 124.4554997  27.6779988   5.1930012 124.4534997  27.0769988
   4.5260012 123.6324997  28.1599988   4.5605518 124.3439315  27.6608929
  11.4490012 126.6194997  20.9339988  11.1530012 127.4454997  21.3149988
  10.7460012 125.9994997  21.1299988  11.3134914 126.6488199  21.0126443
   1.4560012 122.9164997  32.9929988   1.6790012 122.4984997  33.8249988
   0.8540012 122.3034997  32.5699988   1.4051759 122.7764668  33.0497022
   8.4720012 122.4334997  35.2059988   8.1760012 122.2674997  34.3109988
   9.4040012 122.2134997  35.1949988   8.5574166 122.3810640  35.0820536
  13.0930012 127.8064997  33.0959988  12.1920012 127.9894997  32.8279988
  13.1270012 128.0654997  34.0169988  12.9743041 127.8665512  33.1838197
  18.8240012 120.0514997  21.4629988  18.2700012 119.6554997  20.7909988
  18.9240012 120.9614997  21.1849988  18.7617059 120.1203586  21.3334401
  18.7870012 125.8514997  34.2999988  17.9360012 126.0894997  33.9329988
  19.3780012 125.8344997  33.5469988  18.7502487 125.8818258  34.1478893
  17.1190012 128.8374997  21.9279988  16.7460012 128.0114997  22.2369988
  17.3970012 128.6544997  21.0309988  17.1055630 128.6997303  21.8489626
  14.2800012 123.6454997  28.9489988  13.3510012 123.4134997  28.9219988
  14.7310012 122.8684997  28.6189988  14.2139216 123.5087238  28.9006917
   6.8230012 127.9734997  25.0819988   7.3500012 128.7464997  24.8819988
   5.9430012 128.1984997  24.7809988   6.7761773 128.1098005  25.0139010
   2.5780012 122.8354997  19.6689988   3.1940012 123.4624997  20.0489988
   1.7160012 123.1514997  19.9409988   2.5457698 122.9639430  19.7577183
   8.2500012 125.6364997  24.6589988   8.0090012 126.5614997  24.6999988
   7.5090012 125.1774997  25.0549988   8.1168409 125.7011421  24.7181377
   8.7650012 129.7854997  30.9739988   9.1270012 130.6404997  30.7399988
   9.2960012 129.4934997  31.7139988   8.8864473 129.8631060  31.0420855
   6.9330012 130.6584997  24.2039988   5.9830012 130.7634997  24.2549988
   7.2850012 131.4784997  24.5489988   6.8504203 130.7838314  24.2576650
  12.3090012 125.8844997  30.6739988  11.8830012 125.6574997  31.5009988
  12.8890012 125.1464997  30.4919988  12.3291868 125.7535299  30.7625830
  14.5120012 126.8134997  19.7479988  14.8650012 126.4334997  20.5529988
  13.5630012 126.7204997  19.8349988  14.4320441 126.7489596  19.8698559
  14.9670012 130.4364997  33.1439988  14.3660012 129.8814997  32.6479988
  15.2490012 131.1034997  32.5179988  14.9228519 130.4506841  32.9914952
  19.0150012 131.2934997  19.9489988  19.7590012 131.8794997  19.8089988
  18.3210012 131.8614997  20.2829988  19.0230292 131.4505582  19.9749961
   3.0900012 117.6694997  32.5509988   2.1970012 118.0084997  32.4829988
   2.9910012 116.8144997  32.9689988   2.9544164 117.6002588  32.5982235
  15.3780012 125.4864997  21.9749988  15.1000012 124.7584997  22.5309988
  16.3050012 125.6054997  22.1799988  15.4653124 125.4028802  22.0788845
   2.7410012 129.4744997  30.9859988   2.9580012 128.5424997  30.9549988
   2.9870012 129.7484997  31.8689988   2.8039549 129.3840636  31.1011763
   8.6030012 127.9254997  18.1949988   8.8420012 127.1774997  17.6479988
   8.3340012 127.5374997  19.0279988   8.5993675 127.7706638  18.2326865
   7.5400012 127.4954997  20.6519988   7.6860012 126.9754997  21.4419988
   7.5370012 128.4024997  20.9579988   7.5595989 127.5468853  20.8016088
   3.9930012 124.7484997  21.1619988   3.3070012 125.1004997  21.7289988
   4.5150012 125.5114997  20.9149988   3.9696852 124.8998578  21.2062118
  11.8240012 117.4104997  31.4409988  12.5230012 117.4844997  32.0909988
  11.4430012 116.5464997  31.5949988  11.8681767 117.3037624  31.5508322
  12.6090012 117.0624997  22.5379988  12.8290012 117.5344997  21.7349988
  13.1670012 117.4574997  23.2079988  12.7144968 117.1804285  22.5187331
  10.2770012 129.1934997  21.4009988   9.4610012 129.6904997  21.4529988
  10.8070012 129.6684997  20.7609988  10.2369161 129.3257722  21.3215956
   9.8090012 118.7904997  23.3729988  10.6210012 119.2954997  23.4189988
   9.5640012 118.6454997  24.2869988   9.8870520 118.8400375  23.5028517
  10.3440012 119.7764997  32.5579988  10.4630012 120.3504997  33.3149988
  11.0000012 119.0884997  32.6719988  10.4489757 119.7621079  32.6770825
  10.6920012 115.8714997  24.3109988  10.3460012 116.4894997  24.9559988
  11.3510012 116.3724997  23.8299988  10.7337826 116.0235802  24.3340971
   7.6160012 130.2374997  21.3829988   7.7760012 131.0364997  20.8819988
   7.4180012 130.5434997  22.2679988   7.6111649 130.3884469  21.4339815
   6.3500012 116.9344997  20.9979988   6.2670012 117.8234997  21.3449988
   7.2400012 116.6694997  21.2299988   6.4589469 117.0201430  21.0767626
  16.5490012 117.6834997  33.3929988  15.6320012 117.9464997  33.3049988
  16.8840012 117.6804997  32.4959988  16.4689900 117.7190224  33.2597919
  15.1510012 121.4344997  27.4879988  14.3530012 121.0194997  27.1599988
  15.5960012 120.7434997  27.9789988  15.1019885 121.2843543  27.5094889
   4.6090012 127.3624997  20.0589988   5.2010012 128.0614997  20.3349988
   5.0680012 126.9294997  19.3389988   4.7521142 127.3997049  19.9994830
   2.9250012 120.0264997  19.1749988   2.8800012 120.9654997  19.3529988
   2.0370012 119.7904997  18.9049988   2.7988574 120.1231892  19.1628912
  16.2370012 130.6904997  29.1109988  16.0820012 131.3684997  28.4539988
  17.1700012 130.7624997  29.3139988  16.3418500 130.7930170  29.0485119
   3.7330012 114.8084997  27.8479988   3.5040012 114.8674997  26.9199988
   3.2900012 114.0164997  28.1539988   3.6418530 114.7095753  27.7624786
   2.6630012 128.7484997  24.0079988   1.8310012 129.2214997  24.0359988
   3.2090012 129.2584997  23.4099988   2.6229739 128.8821871  23.9309716
   1.9510012 131.3614997  35.3379988   2.4920012 131.1444997  36.0979988
   1.4700012 130.5554997  35.1489988   1.9599345 131.2229514  35.4163076
   6.5490012 130.2804997  36.9589988   7.3160012 129.8214997  37.2999988
   6.5270012 130.0544997  36.0289988   6.6511434 130.1870409  36.8800043
  10.6410012 129.7884997  18.3339988   9.9970012 129.1574997  18.6549988
  11.4030012 129.2574997  18.1019988  10.6558077 129.6302920  18.3466011
  13.1260012 128.6604997  35.6879988  12.7750012 127.8044997  35.9309988
  13.8520012 128.8034997  36.2949988  13.1760769 128.5625636  35.8033619
  15.2450012 129.6054997  18.5679988  15.5280012 128.8114997  19.0199988
  15.9850012 129.8384997  18.0069988  15.3837486 129.5282803  18.5540698
   1.8580012 125.1714997  36.2929988   2.0020012 124.2694997  36.0059988
   1.0860012 125.4574997  35.8049988   1.7733322 125.0868261  36.1877881
   6.2000012 125.5154997  18.4249988   6.2640012 124.7214997  18.9559988
   6.8530012 125.3964997  17.7349988   6.2970241 125.3907148  18.4044317
   8.5140012 125.1414997  35.7249988   8.1850012 125.4124997  34.8679988
   8.6660012 124.2004997  35.6379988   8.4894809 125.0513862  35.5958244
  11.5520012 126.5624997  18.1609988  11.2830012 126.7424997  19.0619988
  11.3460012 125.6364997  18.0299988  11.4873825 126.4620152  18.2665214
  14.2480012 125.0574997  33.1089988  14.9940012 125.6454997  32.9889988
  13.4910012 125.6394997  33.1719988  14.2477554 125.2167011  33.1010907
   2.6910012 122.3714997  35.7129988   3.0990012 121.5144997  35.5919988
   2.4310012 122.3864997  36.6339988   2.7117568 122.2560807  35.8209588
   7.3490012 123.4874997  20.7309988   6.8890012 123.0034997  21.4169988
   7.6040012 122.8194997  20.0949988   7.3204902 123.3308731  20.7389334
   6.6380012 121.3804997  33.0869988   6.0200012 122.0554997  33.3669988
   6.9820012 121.7014997  32.2539988   6.5999615 121.5162721  33.0126581
   8.4200012 121.7304997  18.9929988   8.2400012 121.5764997  18.0659988
   9.3700012 121.8384997  19.0379988   8.5237776 121.7240175  18.8721843
  11.6580012 123.8524997  36.3639988  12.6110012 123.9354997  36.3369988
  11.4970012 123.1404997  36.9839988  11.7666426 123.7676746  36.4440579
  17.8100012 124.0854997  18.4389988  17.5360012 123.6604997  17.6259988
  17.8490012 125.0164997  18.2219988  17.7777699 124.1532484  18.2983610
   6.9770012 118.7354997  34.1689988   7.1270012 118.0064997  33.5669988
   6.9800012 119.5124997  33.6099988   6.9979302 118.7407851  34.0110692
   7.3900012 117.1054997  31.6619988   7.9260012 117.5564997  31.0099988
   6.5380012 116.9974997  31.2389988   7.3482178 117.1526390  31.5155756
   8.9720012 122.5444997  31.9009988   9.7220012 122.3884997  31.3279988
   8.6330012 123.3964997  31.6259988   9.0288921 122.6382968  31.7853561
  13.3870012 120.3594997  36.9299988  13.5800012 119.4284997  36.8179988
  14.2450012 120.7844997  36.9199988  13.5293020 120.2896389  36.9133361
  14.7040012 123.1484997  35.0069988  14.4230012 123.8574997  34.4299988
  15.6470012 123.0754997  34.8559988  14.7929027 123.2357646  34.9075551
   5.4560012 119.9334997  36.0809988   4.6890012 119.4014997  35.8709988
   6.1350012 119.6234997  35.4809988   5.4427022 119.8187506  35.9711648
   8.1960012 114.5614997  32.0929988   8.0970012 115.5084997  31.9879988
   7.4530012 114.1894997  31.6179988   8.0820563 114.6405902  32.0144560
   9.4600012 118.8834997  35.6569988   9.2240012 118.6634997  36.5589988
   8.6760012 118.6764997  35.1469988   9.3218628 118.8254760  35.7113932
  12.1750012 118.0104997  34.7329988  11.2280012 118.0424997  34.8649988
  12.4880012 117.3854997  35.3859988  12.0875475 117.9303207  34.8394455
  13.8090012 116.6444997  36.7379988  13.7130012 115.6924997  36.7319988
  13.4880012 116.9134997  37.5979988  13.7524070 116.5504035  36.8535441
   3.6360012 117.8544997  35.7849988   3.8480012 117.1474997  35.1749988
   3.5250012 117.4164997  36.6289988   3.6499721 117.6987084  35.8156843
   8.4170012 113.8554997  34.7649988   9.1290012 113.2154997  34.7509988
   8.3160012 114.1224997  33.8509988   8.5007939 113.8039938  34.6395650
   8.7710012 115.5384997  36.8179988   8.6390012 115.0624997  35.9979988
   8.1720012 116.2824997  36.7629988   8.6719071 115.5739618  36.6982886
   8.3170012 132.4214997  19.9949988   9.2500012 132.5794997  20.1379988
   8.0530012 133.0964997  19.3699988   8.4089510 132.5343611  19.9300741
   1.8860012 127.0574997  19.4769988   2.8000012 127.1364997  19.7509988
   1.8930012 126.3704997  18.8109988   2.0121131 126.9753961  19.4244393
   0.5350012 132.4504997  24.5549988  -0.1119988 131.9884997  24.0219988
   0.8890012 131.7784997  25.1369988   0.4943849 132.2964723  24.5607959
   1.4050012 130.5314997  26.3589988   1.0700012 129.6514997  26.5309988
   1.6270012 130.8764997  27.2239988   1.3891783 130.4577501  26.4994208
  18.9530012 131.3404997  29.3399988  18.9320012 131.5254997  30.2789988
  19.6440012 131.9094997  28.9989988  19.0434618 131.4426606  29.4223864
  18.5170012 130.9084997  32.2619988  18.0290012 130.1724997  31.8909988
  19.0660012 130.5144997  32.9399988  18.5244872 130.7546249  32.3029160
  16.9670012 126.6974997  36.8999988  16.1010012 126.5924997  37.2939988
  17.3440012 127.4564997  37.3459988  16.8993308 126.7856900  37.0142393
  18.2680012 124.9544997  22.4139988  19.1180012 125.3754997  22.5409988
  18.2740012 124.2144997  23.0209988  18.3851372 124.9120803  22.5134344
  18.6630012 123.0074997  24.2379988  17.9360012 122.5284997  24.6349988
  19.2440012 123.2134997  24.9699988  18.6419375 122.9697090  24.3914129
  18.4220012 125.7924997  29.1849988  19.2550012 125.4144997  28.9049988
  18.5340012 126.7354997  29.0659988  18.5512647 125.8682218  29.1305487
  16.9080012 128.6704997  31.4919988  16.2610012 128.9954997  32.1179988
  16.3910012 128.2304997  30.8179988  16.7494029 128.6555004  31.4865827
  18.9310012 122.9084997  20.6289988  18.4090012 123.2654997  19.9099988
  18.8980012 123.5834997  21.3069988  18.8551634 123.0485413  20.6223145
  17.2800012 120.1484997  19.1799988  17.3760012 120.8154997  18.4989988
  17.1400012 119.3324997  18.6979988  17.2742135 120.1294500  19.0218491
  16.4490012 121.5284997  24.8009988  16.2990012 120.5834997  24.7799988
  16.0960012 121.8094997  25.6439988  16.3806625 121.4370441  24.9122346
   1.4850012 123.6064997  28.8109988   1.6690012 123.5244997  27.8749988
   2.3340012 123.4824997  29.2349988   1.6250139 123.5785003  28.7401455
  17.3060012 123.4984997  34.4389988  17.8890012 122.7644997  34.6309988
  17.8700012 124.2704997  34.4859988  17.4619769 123.5024227  34.4716159
  18.8020012 121.4014997  35.1239988  17.9390012 121.0224997  34.9579988
  19.4070012 120.6624997  35.0499988  18.7655979 121.2498023  35.0912817
  16.5270012 117.5564997  18.2969988  17.1380012 117.1854997  18.9339988
  15.6910012 117.1354997  18.4929988  16.4975032 117.4487554  18.4107035
  16.1600012 119.1114997  23.2629988  16.4400012 118.2044997  23.3869988
  16.9190012 119.5454997  22.8739988  16.3009277 119.0460942  23.2273682
  16.7720012 119.6924997  28.6989988  17.7050012 119.9044997  28.6649988
  16.5370012 119.7944997  29.6209988  16.8678036 119.7352769  28.8189976
  16.8010012 120.4294997  31.4749988  15.9580012 120.6974997  31.8409988
  17.2430012 121.2514997  31.2639988  16.7454158 120.5773291  31.4965491
   1.0820012 118.8774997  34.9519988   2.0020012 118.7554997  35.1879988
   0.6330012 118.1274997  35.3409988   1.1471580 118.7593727  35.0369006
  19.0840012 114.4094997  36.8279988  19.4340012 113.7554997  36.2229988
  19.2310012 115.2464997  36.3889988  19.1518419 114.4331591  36.6857118
  16.7730012 116.3744997  23.3109988  16.9560012 115.9254997  24.1369988
  16.1740012 115.7894997  22.8479988  16.7170202 116.2339975  23.3613275
   2.3030012 117.1894997  27.8429988   2.7490012 116.3974997  28.1449988
   2.7700012 117.9054997  28.2739988   2.4270172 117.1780624  27.9424820
   0.6070012 120.1884997  28.9119988   1.0990012 119.9674997  28.1209988
   0.9700012 121.0294997  29.1929988   0.7233126 120.2718357  28.8417531
  18.6040012 116.5184997  35.1779988  17.6860012 116.7894997  35.1419988
  18.7270012 115.9834997  34.3929988  18.4951066 116.4832892  35.0670487
  18.6400012 116.4414997  19.8389988  19.0520012 115.7204997  19.3639988
  19.3220012 117.1114997  19.8979988  18.7885885 116.4332368  19.7818915
   0.9210012 116.4464997  22.9659988  -0.0039988 116.6554997  22.8369988
   1.3750012 116.9304997  22.2769988   0.8557368 116.5405993  22.8551226
  15.6920012 131.4304997  24.9119988  16.3440012 131.0834997  24.3039988
  16.2020012 131.9194997  25.5579988  15.8502637 131.4490597  24.9160236
   0.8850012 115.1844997  31.3109988   0.2200012 114.9384997  31.9539988
   0.4420012 115.8064997  30.7329988   0.7340956 115.2348632  31.3209352
   3.0770012 128.3594997  35.4549988   2.2560012 128.5344997  34.9949988
   2.8240012 128.2864997  36.3759988   2.9306164 128.3735622  35.5164923
   6.0310012 129.3344997  31.7139988   5.6060012 130.1434997  31.4309988
   6.9350012 129.4194997  31.4119988   6.0950271 129.4568469  31.6343776
  10.3420012 130.7334997  34.6729988  10.5270012 130.3994997  35.5509988
  11.1880012 131.0424997  34.3509988  10.4817539 130.7296047  34.7495605
  12.6870012 132.0194997  33.9169988  13.3640012 131.3864997  33.6769988
  13.0090012 132.4204997  34.7239988  12.8231637 131.9871154  33.9932793
  17.6040012 114.6084997  32.9969988  16.7920012 114.9334997  32.6089988
  17.8370012 113.8484997  32.4639988  17.5243423 114.5502436  32.8718253
   3.4330012 132.5904997  31.7609988   2.7120012 133.0304997  31.3099988
   3.0670012 132.3394997  32.6099988   3.2849804 132.6167698  31.8139840
   5.9000012 132.1904997  30.7909988   5.0350012 132.2624997  31.1949988
   5.8450012 132.7374997  30.0069988   5.7742085 132.2742685  30.7403362
  10.6100012 132.0784997  29.9659988  10.1540012 132.6074997  29.3119988
  10.7730012 132.6814997  30.6919988  10.5695585 132.2324468  29.9745062
  12.9380012 130.9564997  30.9109988  12.0330012 131.1214997  30.6459988
  13.3670012 131.8094997  30.8459988  12.8720799 131.0944483  30.8659182
  15.5420012 132.5264997  31.2059988  15.3600012 133.4424997  30.9959988
  15.7190012 132.1164997  30.3599988  15.5410210 132.5964822  31.0627885
   2.8470012 131.2134997  28.6709988   2.8290012 130.7884997  29.5289988
   3.6520012 130.8954997  28.2629988   2.9533875 131.1123812  28.7331655
   4.9890012 129.9234997  27.3259988   4.7700012 129.0074997  27.4959988
   5.8130012 130.0634997  27.7919988   5.0704420 129.8170520  27.4122774
   7.5260012 130.3934997  28.1749988   7.7390012 129.5054997  27.8879988
   7.5900012 130.3594997  29.1289988   7.5638231 130.2673102  28.2647397
  11.0340012 116.0574997  27.3189988  10.3600012 115.4284997  27.5749988
  11.5980012 115.5734997  26.7159988  11.0179230 115.9058744  27.2725340
  16.1770012 114.1654997  27.4319988  16.7810012 114.7124997  26.9299988
  15.3070012 114.4844997  27.1919988  16.1421241 114.2835806  27.3307654
  17.9040012 115.3034997  25.7649988  18.5160012 114.7894997  25.2389988
  18.2860012 116.1814997  25.7889988  18.0394540 115.3517140  25.6961830
   3.3610012 114.6914997  25.1409988   2.5840012 114.4574997  24.6339988
   3.8910012 113.8944997  25.1499988   3.3262330 114.5516988  25.0727742
   2.1970012 114.4894997  20.9449988   2.6360012 115.1004997  20.3529988
   1.5640012 115.0274997  21.4189988   2.1714514 114.6459257  20.9280930
   7.9400012 114.6184997  24.9549988   8.8150012 115.0064997  24.9249988
   7.8040012 114.4034997  25.8769988   8.0413695 114.6425184  25.0756440
  13.4970012 114.6484997  26.6039988  13.5730012 114.7434997  25.6539988
  13.2220012 113.7404997  26.7329988  13.4702321 114.5387867  26.4915079
  14.8500012 114.6744997  22.2959988  14.1480012 115.2894997  22.0869988
  14.4060012 113.8364997  22.4269988  14.6936330 114.6455783  22.2850328
   2.0980012 130.4374997  21.8429988   1.4130012 130.3994997  21.1749988
   2.1020012 131.3504997  22.1309988   2.0048193 130.5557016  21.7905284
   4.0580012 116.4054997  19.3869988   4.5500012 115.7754997  18.8599988
   4.6820012 116.7014997  20.0509988   4.2095446 116.3593199  19.4045980
   9.0840012 116.6984997  21.8439988   9.2620012 116.0524997  22.5269988
   9.0310012 117.5324997  22.3119988   9.1011829 116.7227985  22.0005940
  10.9630012 131.6474997  20.2399988  11.8290012 132.0134997  20.0619988
  10.7160012 131.2074997  19.4259988  11.0482392 131.6381756  20.1056289
  17.6720012 131.2104997  22.9189988  17.4770012 130.4624997  22.3539988
  17.6330012 131.9684997  22.3359988  17.6400380 131.2106099  22.7628384
   3.3190012 115.2054997  34.6589988   2.9530012 114.4404997  35.1019988
   4.2320012 115.2344997  34.9459988   3.3922790 115.1047224  34.7584070
   5.2920012 114.5564997  36.1949988   6.1900012 114.2824997  36.0099988
   4.9050012 113.8134997  36.6589988   5.3626612 114.4185914  36.2323643
   3.9160012 131.3574997  18.8679988   3.6490012 131.6444997  19.7409988
   4.6880012 130.8114997  19.0199988   3.9837488 131.3230294  19.0081050
  13.7130012 113.8884997  36.3769988  13.7900012 113.4624997  37.2309988
  14.6070012 113.9024997  36.0339988  13.8443428 113.8320879  36.4475310
  16.8890012 129.9614997  35.0689988  16.1070012 129.7754997  34.5499988
  16.8170012 130.8904997  35.2869988  16.7721777 130.0616492  35.0274048
  31.2950012 123.8474997  25.0999988  31.3840012 124.7914997  24.9679988
  30.6570012 123.5724997  24.4419988  31.2209081 123.9394830  24.9929614
  30.2280012 123.1024997  28.5189988  30.1900012 122.4564997  29.2239988
  29.9060012 122.6364997  27.7479988  30.1792333 122.9509408  28.5112978
  22.5970012 122.7174997  30.1119988  22.6380012 122.0914997  30.8349988
  23.3000012 123.3414997  30.2939988  22.6976363 122.7161196  30.2356044
  33.9340012 126.0414997  26.8199988  33.4940012 125.3214997  27.2709988
  33.9210012 126.7624997  27.4499988  33.8720226 126.0403731  26.9668494
  23.5200012 127.1674997  28.6469988  23.1510012 126.3654997  28.2769988
  24.4610012 126.9984997  28.6929988  23.5967289 127.0350153  28.6026316
  20.1300012 120.8274997  24.0399988  19.6830012 121.6734997  24.0209988
  19.5690012 120.2474997  23.5239988  19.9929900 120.8649916  23.9676801
  20.8410012 122.9894997  26.1659988  21.0540012 122.2194997  26.6929988
  21.5790012 123.0784997  25.5619988  20.9698496 122.8961394  26.1565300
  31.0460012 131.1464997  27.0329988  31.6660012 130.4694997  26.7589988
  30.8380012 130.9284997  27.9409988  31.1026904 131.0243870  27.1183365
  28.6180012 125.5354997  28.9249988  28.9220012 124.8494997  28.3299988
  29.3390012 125.6534997  29.5429988  28.7570671 125.4576305  28.9271816
  37.2810012 117.1364997  29.7859988  37.3300012 117.7464997  30.5219988
  37.7060012 117.5974997  29.0629988  37.3451824 117.2823741  29.7890205
  31.7590012 119.9294997  29.2529988  31.9010012 118.9834997  29.2729988
  31.6520012 120.1364997  28.3239988  31.7639864 119.8279534  29.1302339
  24.9130012 118.0304997  26.5249988  24.9570012 118.8904997  26.1069988
  24.4560012 117.4784997  25.8909988  24.8572185 118.0735799  26.3820299
  32.6360012 118.1614997  24.9259988  33.2820012 117.8324997  25.5509988
  33.1460012 118.6794997  24.3029988  32.7934264 118.1864611  24.9273862
  21.5340012 120.4274997  27.2869988  22.1870012 119.8774997  27.7189988
  21.5580012 120.1534997  26.3699988  21.6266683 120.3151466  27.2222123
  26.6900012 121.9774997  26.5019988  27.3060012 121.4514997  27.0119988
  26.1040012 121.3374997  26.0989988  26.6950810 121.8189208  26.5173173
  37.6720012 118.6144997  32.0219988  36.9840012 119.2724997  31.9259988
  37.6880012 118.4174997  32.9579988  37.5798525 118.6780462  32.1354808
  23.7240012 116.9484997  30.5989988  23.5050012 117.4784997  29.8329988
  23.0560012 117.1754997  31.2459988  23.6037600 117.0516906  30.5816379
  31.0930012 126.4484997  24.1429988  30.7970012 126.1264997  23.2919988
  30.7680012 127.3484997  24.1839988  31.0086371 126.5260215  24.0321801
  26.2930012 124.6244997  30.8859988  25.5530012 125.2224997  30.9899988
  27.0070012 125.1784997  30.5709988  26.2882237 124.7812831  30.8576465
  34.4000012 117.4524997  26.9059988  34.1840012 116.6864997  27.4389988
  35.0550012 117.9244997  27.4189988  34.4590632 117.4115889  27.0482861
  23.3170012 118.8404997  28.5509988  23.9310012 119.4734997  28.9249988
  23.8290012 118.3684997  27.8949988  23.4702296 118.8632370  28.5134252
  24.7000012 126.5884997  31.6739988  24.6950012 127.4684997  31.2959988
  23.8470012 126.5054997  32.0989988  24.5839464 126.6976117  31.6797907
  20.8210012 126.2594997  22.4559988  20.5490012 126.4884997  21.5669988
  20.8670012 127.0974997  22.9159988  20.7900094 126.4041213  22.3965697
  34.4460012 127.8814997  29.1679988  33.5050012 127.9394997  29.3299988
  34.7230012 128.7874997  29.0309988  34.3544679 128.0119443  29.1716815
  34.7470012 116.1674997  30.5859988  34.0110012 116.7784997  30.5479988
  35.4300012 116.5824997  30.0589988  34.7386541 116.3071374  30.5095832
  27.7500012 114.2544997  28.0519988  27.6330012 113.3054997  27.9969988
  26.8950012 114.5864997  28.3249988  27.6183733 114.1695409  28.0813897
  32.6980012 129.6624997  25.7939988  33.1240012 128.9554997  25.3089988
  33.0150012 130.4634997  25.3769988  32.7991019 129.6740994  25.6713130
  33.8580012 127.5634997  24.3019988  33.6000012 126.8734997  23.6909988
  33.9290012 127.1204997  25.1479988  33.8322856 127.4092124  24.3326885
  35.5440012 126.1294997  32.7799988  35.6840012 125.5384997  32.0399988
  35.7110012 127.0024997  32.4229988  35.5856778 126.1666426  32.6306965
  30.0170012 123.0914997  22.5519988  29.3050012 123.6264997  22.1999988
  30.7080012 123.1474997  21.8919988  30.0130132 123.1722543  22.4146289
  30.0700012 121.5494997  19.5909988  30.7710012 121.5714997  20.2419988
  30.3730012 120.9214997  18.9349988  30.2067830 121.4676566  19.5913711
  37.3860012 122.4694997  30.8459988  36.7330012 123.1644997  30.9349988
  37.8510012 122.6794997  30.0359988  37.3595390 122.5929425  30.7486883
  33.4220012 123.3014997  23.5039988  32.6900012 123.5294997  24.0769988
  33.8700012 122.5874997  23.9589988  33.3823095 123.2362571  23.6439119
  33.3200012 121.4754997  32.5709988  33.4000012 122.2384997  33.1429988
  32.7180012 121.7544997  31.8809988  33.2495756 121.6177134  32.5560589
  25.0680012 123.9314997  25.3859988  24.7370012 123.5614997  24.5679988
  25.6560012 123.2614997  25.7329988  25.1021873 123.7901156  25.3208102
  26.4340012 127.3594997  28.0679988  26.3400012 126.7814997  27.3109988
  27.1640012 126.9884997  28.5639988  26.5197981 127.2302390  28.0314165
  25.4340012 122.7004997  29.0199988  26.0000012 122.8214997  28.2569988
  25.7530012 123.3374997  29.6589988  25.5545786 122.8031884  29.0020040
  31.7430012 128.2034997  29.7539988  31.5030012 128.8654997  30.4019988
  31.5450012 127.3694997  30.1789988  31.6833808 128.1813134  29.9001524
  26.3140012 127.0994997  33.7369988  26.0030012 127.8814997  34.1919988
  25.6640012 126.9464997  33.0509988  26.1835558 127.1859105  33.7065871
  32.2930012 122.4634997  21.1889988  32.8730012 122.6134997  21.9359988
  32.7070012 122.9344997  20.4659988  32.4282830 122.5476841  21.1934134
  23.2340012 123.2974997  32.9659988  23.3050012 123.9484997  33.6639988
  22.3440012 123.4004997  32.6309988  23.1233117 123.4005936  33.0162700
  30.0200012 129.2004997  24.6239988  30.4940012 129.4954997  25.4019988
  29.4570012 129.9384997  24.3909988  30.0087653 129.3406932  24.6990136
  24.5540012 129.1714997  34.4999988  24.5610012 129.0354997  33.5529988
  23.6380012 129.0534997  34.7519988  24.4311714 129.1369430  34.4044666
  35.9920012 114.2134997  21.0019988  35.0920012 114.3524997  21.2969988
  36.2440012 115.0444997  20.5999988  35.9028702 114.3449074  20.9880205
  24.0580012 123.0014997  22.9759988  23.7660012 123.7694997  22.4849988
  23.3840012 122.3414997  22.8129988  23.9269081 123.0174406  22.8867340
  37.1810012 128.5794997  19.3779988  37.2550012 129.5184997  19.5489988
  38.0870012 128.2744997  19.3219988  37.3135100 128.6666722  19.3938119
  20.1510012 125.3644997  31.7909988  19.6500012 125.3364997  30.9759988
  20.1560012 124.4584997  32.0999988  20.0831526 125.2382278  31.7212872
  19.9010012 128.1444997  28.6749988  20.8470012 128.0004997  28.6559988
  19.7890012 128.9284997  29.2119988  20.0152727 128.2308046  28.7450072
  38.0990012 128.8104997  34.3569988  38.0500012 127.8554997  34.3199988
  37.2720012 129.0784997  34.7579988  37.9804940 128.7158998  34.4061375
  29.0780012 128.3844997  33.2329988  29.1650012 129.2104997  33.7079988
  28.2140012 128.0544997  33.4819988  28.9731964 128.4529878  33.3316549
  29.4920012 132.1564997  23.0389988  29.4170012 132.0354997  22.0929988
  29.5250012 133.1064997  23.1579988  29.4861848 132.2682500  22.9254834
  23.1450012 130.9454997  24.8199988  23.2980012 130.5974997  25.6989988
  22.2950012 130.5894997  24.5649988  23.0508962 130.8496650  24.9058340
  32.5940012 131.3104997  20.0409988  32.9690012 130.5664997  19.5709988
  32.5980012 131.0404997  20.9599988  32.6458915 131.1721486  20.1007824
  32.2630012 131.2364997  22.7909988  31.3270012 131.3364997  22.9689988
  32.5430012 130.5274997  23.3689988  32.1728255 131.1542711  22.8935391
  35.2510012 120.3034997  34.8369988  34.8440012 120.7844997  34.1159988
  35.2920012 119.3984997  34.5289988  35.2008437 120.2469374  34.6966683
  22.4000012 126.6874997  32.8339988  22.6160012 126.3264997  33.6929988
  21.5450012 126.3134997  32.6239988  22.3139292 126.5874111  32.9233386
  25.0190012 115.1574997  28.8289988  24.1570012 115.0704997  28.4219988
  24.9960012 116.0134997  29.2569988  24.8980330 115.2612765  28.8311863
  29.6820012 114.8794997  32.2039988  30.1020012 114.4644997  32.9569988
  28.7490012 114.7014997  32.3209988  29.6133644 114.7985900  32.3229539
  33.0080012 118.6354997  33.0569988  32.4940012 118.5094997  33.8549988
  32.8530012 119.5474997  32.8129988  32.9166852 118.7416132  33.1332158
  33.7710012 123.4964997  18.8189988  33.8130012 123.2734997  17.8889988
  34.6200012 123.8954997  19.0089988  33.8915396 123.5199155  18.7173627
  29.3430012 117.3724997  19.4889988  29.0900012 117.3914997  20.4119988
  29.0870012 116.5004997  19.1879988  29.2737790 117.2572437  19.5746263
  25.1100012 120.1234997  29.9239988  24.4680012 120.0824997  30.6329988
  25.1470012 121.0494997  29.6869988  25.0271324 120.2431559  29.9889824
  25.1070012 120.3444997  24.8359988  24.2140012 120.0034997  24.7779988
  25.5570012 119.9674997  24.0809988  25.0457305 120.2468484  24.7259177
  30.6420012 120.7604997  23.6529988  30.2330012 121.5754997  23.3619988
  31.3630012 120.6204997  23.0389988  30.6834537 120.8532018  23.5301342
  29.7440012 120.9354997  35.1409988  29.1820012 120.2314997  35.4619988
  30.5710012 120.8154997  35.6089988  29.7787095 120.8227883  35.2482330
  31.6470012 120.2064997  26.4669988  31.4520012 120.8114997  25.7519988
  31.8280012 119.3724997  26.0329988  31.6447614 120.1766300  26.3104405
  22.8600012 120.4434997  31.7909988  22.8220012 120.8434997  32.6599988
  22.3690012 119.6264997  31.8819988  22.7884684 120.3878069  31.9221059
  26.2260012 117.8174997  18.5899988  25.7950012 117.3724997  19.3199988
  25.5080012 118.1894997  18.0779988  26.0699438 117.8068940  18.6206799
  19.4680012 117.5594997  25.6419988  20.0990012 117.5304997  26.3609988
  19.9170012 117.1344997  24.9119988  19.6150774 117.4980492  25.6416553
  20.7420012 118.3054997  21.0659988  21.2160012 118.8964997  20.4809988
  20.0250012 118.8364997  21.4129988  20.7099341 118.4580867  21.0328836
  30.9110012 121.8444997  31.1389988  31.2340012 121.2134997  30.4959988
  30.4710012 121.3094997  31.7989988  30.8956895 121.6858441  31.1402850
  27.6880012 117.7714997  25.9229988  26.7770012 117.8284997  26.2109988
  28.1940012 117.7114997  26.7329988  27.6315413 117.7711985  26.0720622
  22.5170012 119.4004997  24.7489988  21.6270012 119.5004997  24.4089988
  22.8130012 118.5584997  24.4029988  22.4352823 119.3003545  24.6557213
  26.1700012 119.4004997  22.4059988  27.1010012 119.5294997  22.5839988
  25.9550012 120.0704997  21.7559988  26.2684247 119.5086565  22.3425747
  32.0930012 117.0064997  29.1869988  31.4170012 117.1374997  29.8509988
  31.6080012 116.8514997  28.3769988  31.9347145 117.0034905  29.1684517
  24.8440012 120.5954997  19.9729988  24.3010012 120.2154997  19.2809988
  25.6770012 120.7894997  19.5439988  24.8824399 120.5698124  19.8204526
  35.3810012 132.6784997  35.4639988  35.5810012 133.1024997  34.6289988
  36.0360012 133.0214997  36.0709988  35.4970051 132.7829648  35.4317836
  22.9790012 125.1524997  35.0719988  23.7110012 125.4064997  35.6329988
  22.1990012 125.3564997  35.5869988  22.9738232 125.2149177  35.2185760
  29.0080012 120.5594997  27.8099988  29.5730012 120.0124997  27.2629988
  28.8610012 120.0374997  28.5979988  29.0652918 120.4142024  27.8418454
  24.0100012 116.6954997  24.2279988  23.6930012 115.7934997  24.1929988
  24.7920012 116.6974997  23.6749988  24.0722284 116.5721628  24.1484783
  27.6350012 118.9474997  30.2239988  26.7990012 119.4014997  30.3339988
  28.1590012 119.2234997  30.9759988  27.5914414 119.0469376  30.3407136
  28.1790012 125.1604997  21.9079988  27.4340012 124.6534997  21.5859988
  28.0450012 125.2094997  22.8549988  28.0588776 125.0976940  21.9918647
  35.3290012 124.2934997  30.6949988  35.9710012 124.7504997  30.1509988
  34.4990012 124.4064997  30.2319988  35.3045963 124.3712704  30.5580177
  32.0770012 117.9744997  20.1079988  31.1380012 118.0864997  19.9559988
  32.3740012 118.8314997  20.4139988  31.9887666 118.1056443  20.1285768
  29.6980012 125.3444997  33.1449988  29.3530012 124.9634997  33.9519988
  29.4980012 126.2784997  33.2169988  29.6238061 125.4185228  33.2650961
  32.7950012 119.8414997  21.7679988  33.6870012 119.7044997  22.0869988
  32.8520012 120.6324997  21.2319988  32.9246285 119.9296660  21.7391690
  23.3040012 124.4554997  27.6779988  24.0490012 124.4534997  27.0769988
  23.3820012 123.6324997  28.1599988  23.4165518 124.3439315  27.6608929
  30.3050012 126.6194997  20.9339988  30.0090012 127.4454997  21.3149988
  29.6020012 125.9994997  21.1299988  30.1694914 126.6488199  21.0126443
  20.3120012 122.9164997  32.9929988  20.5350012 122.4984997  33.8249988
  19.7100012 122.3034997  32.5699988  20.2611759 122.7764668  33.0497022
  27.3280012 122.4334997  35.2059988  27.0320012 122.2674997  34.3109988
  28.2600012 122.2134997  35.1949988  27.4134166 122.3810640  35.0820536
  31.9490012 127.8064997  33.0959988  31.0480012 127.9894997  32.8279988
  31.9830012 128.0654997  34.0169988  31.8303041 127.8665512  33.1838197
  37.6800012 120.0514997  21.4629988  37.1260012 119.6554997  20.7909988
  37.7800012 120.9614997  21.1849988  37.6177059 120.1203586  21.3334401
  37.6430012 125.8514997  34.2999988  36.7920012 126.0894997  33.9329988
  38.2340012 125.8344997  33.5469988  37.6062487 125.8818258  34.1478893
  35.9750012 128.8374997  21.9279988  35.6020012 128.0114997  22.2369988
  36.2530012 128.6544997  21.0309988  35.9615630 128.6997303  21.8489626
  33.1360012 123.6454997  28.9489988  32.2070012 123.4134997  28.9219988
  33.5870012 122.8684997  28.6189988  33.0699216 123.5087238  28.9006917
  25.6790012 127.9734997  25.0819988  26.2060012 128.7464997  24.8819988
  24.7990012 128.1984997  24.7809988  25.6321773 128.1098005  25.0139010
  21.4340012 122.8354997  19.6689988  22.0500012 123.4624997  20.0489988
  20.5720012 123.1514997  19.9409988  21.4017698 122.9639430  19.7577183
  27.1060012 125.6364997  24.6589988  26.8650012 126.5614997  24.6999988
  26.3650012 125.1774997  25.0549988  26.9728409 125.7011421  24.7181377
  27.6210012 129.7854997  30.9739988  27.9830012 130.6404997  30.7399988
  28.1520012 129.4934997  31.7139988  27.7424473 129.8631060  31.0420855
  25.7890012 130.6584997  24.2039988  24.8390012 130.7634997  24.2549988
  26.1410012 131.4784997  24.5489988  25.7064203 130.7838314  24.2576650
  31.1650012 125.8844997  30.6739988  30.7390012 125.6574997  31.5009988
  31.7450012 125.1464997  30.4919988  31.1851868 125.7535299  30.7625830
  33.3680012 126.8134997  19.7479988  33.7210012 126.4334997  20.5529988
  32.4190012 126.7204997  19.8349988  33.2880441 126.7489596  19.8698559
  33.8230012 130.4364997  33.1439988  33.2220012 129.8814997  32.6479988
  34.1050012 131.1034997  32.5179988  33.7788519 130.4506841  32.9914952
  37.8710012 131.2934997  19.9489988  38.6150012 131.8794997  19.8089988
  37.1770012 131.8614997  20.2829988  37.8790292 131.4505582  19.9749961
  21.9460012 117.6694997  32.5509988  21.0530012 118.0084997  32.4829988
  21.8470012 116.8144997  32.9689988  21.8104164 117.6002588  32.5982235
  34.2340012 125.4864997  21.9749988  33.9560012 124.7584997  22.5309988
  35.1610012 125.6054997  22.1799988  34.3213124 125.4028802  22.0788845
  21.5970012 129.4744997  30.9859988  21.8140012 128.5424997  30.9549988
  21.8430012 129.7484997  31.8689988  21.6599549 129.3840636  31.1011763
  27.4590012 127.9254997  18.1949988  27.6980012 127.1774997  17.6479988
  27.1900012 127.5374997  19.0279988  27.4553675 127.7706638  18.2326865
  26.3960012 127.4954997  20.6519988  26.5420012 126.9754997  21.4419988
  26.3930012 128.4024997  20.9579988  26.4155989 127.5468853  20.8016088
  22.8490012 124.7484997  21.1619988  22.1630012 125.1004997  21.7289988
  23.3710012 125.5114997  20.9149988  22.8256852 124.8998578  21.2062118
  30.6800012 117.4104997  31.4409988  31.3790012 117.4844997  32.0909988
  30.2990012 116.5464997  31.5949988  30.7241767 117.3037624  31.5508322
  31.4650012 117.0624997  22.5379988  31.6850012 117.5344997  21.7349988
  32.0230012 117.4574997  23.2079988  31.5704968 117.1804285  22.5187331
  29.1330012 129.1934997  21.4009988  28.3170012 129.6904997  21.4529988
  29.6630012 129.6684997  20.7609988  29.0929161 129.3257722  21.3215956
  28.6650012 118.7904997  23.3729988  29.4770012 119.2954997  23.4189988
  28.4200012 118.6454997  24.2869988  28.7430520 118.8400375  23.5028517
  29.2000012 119.7764997  32.5579988  29.3190012 120.3504997  33.3149988
  29.8560012 119.0884997  32.6719988  29.3049757 119.7621079  32.6770825
  29.5480012 115.8714997  24.3109988  29.2020012 116.4894997  24.9559988
  30.2070012 116.3724997  23.8299988  29.5897826 116.0235802  24.3340971
  26.4720012 130.2374997  21.3829988  26.6320012 131.0364997  20.8819988
  26.2740012 130.5434997  22.2679988  26.4671649 130.3884469  21.4339815
  25.2060012 116.9344997  20.9979988  25.1230012 117.8234997  21.3449988
  26.0960012 116.6694997  21.2299988  25.3149469 117.0201430  21.0767626
  35.4050012 117.6834997  33.3929988  34.4880012 117.9464997  33.3049988
  35.7400012 117.6804997  32.4959988  35.3249900 117.7190224  33.2597919
  34.0070012 121.4344997  27.4879988  33.2090012 121.0194997  27.1599988
  34.4520012 120.7434997  27.9789988  33.9579885 121.2843543  27.5094889
  23.4650012 127.3624997  20.0589988  24.0570012 128.0614997  20.3349988
  23.9240012 126.9294997  19.3389988  23.6081142 127.3997049  19.9994830
  21.7810012 120.0264997  19.1749988  21.7360012 120.9654997  19.3529988
  20.8930012 119.7904997  18.9049988  21.6548574 120.1231892  19.1628912
  35.0930012 130.6904997  29.1109988  34.9380012 131.3684997  28.4539988
  36.0260012 130.7624997  29.3139988  35.1978500 130.7930170  29.0485119
  22.5890012 114.8084997  27.8479988  22.3600012 114.8674997  26.9199988
  22.1460012 114.0164997  28.1539988  22.4978530 114.7095753  27.7624786
  21.5190012 128.7484997  24.0079988  20.6870012 129.2214997  24.0359988
  22.0650012 129.2584997  23.4099988  21.4789739 128.8821871  23.9309716
  20.8070012 131.3614997  35.3379988  21.3480012 131.1444997  36.0979988
  20.3260012 130.5554997  35.1489988  20.8159345 131.2229514  35.4163076
  25.4050012 130.2804997  36.9589988  26.1720012 129.8214997  37.2999988
  25.3830012 130.0544997  36.0289988  25.5071434 130.1870409  36.8800043
  29.4970012 129.7884997  18.3339988  28.8530012 129.1574997  18.6549988
  30.2590012 129.2574997  18.1019988  29.5118077 129.6302920  18.3466011
  31.9820012 128.6604997  35.6879988  31.6310012 127.8044997  35.9309988
  32.7080012 128.8034997  36.2949988  32.0320769 128.5625636  35.8033619
  34.1010012 129.6054997  18.5679988  34.3840012 128.8114997  19.0199988
  34.8410012 129.8384997  18.0069988  34.2397486 129.5282803  18.5540698
  20.7140012 125.1714997  36.2929988  20.8580012 124.2694997  36.0059988
  19.9420012 125.4574997  35.8049988  20.6293322 125.0868261  36.1877881
  25.0560012 125.5154997  18.4249988  25.1200012 124.7214997  18.9559988
  25.7090012 125.3964997  17.7349988  25.1530241 125.3907148  18.4044317
  27.3700012 125.1414997  35.7249988  27.0410012 125.4124997  34.8679988
  27.5220012 124.2004997  35.6379988  27.3454809 125.0513862  35.5958244
  30.4080012 126.5624997  18.1609988  30.1390012 126.7424997  19.0619988
  30.2020012 125.6364997  18.0299988  30.3433825 126.4620152  18.2665214
  33.1040012 125.0574997  33.1089988  33.8500012 125.6454997  32.9889988
  32.3470012 125.6394997  33.1719988  33.1037554 125.2167011  33.1010907
  21.5470012 122.3714997  35.7129988  21.9550012 121.5144997  35.5919988
  21.2870012 122.3864997  36.6339988  21.5677568 122.2560807  35.8209588
  26.2050012 123.4874997  20.7309988  25.7450012 123.0034997  21.4169988
  26.4600012 122.8194997  20.0949988  26.1764902 123.3308731  20.7389334
  25.4940012 121.3804997  33.0869988  24.8760012 122.0554997  33.3669988
  25.8380012 121.7014997  32.2539988  25.4559615 121.5162721  33.0126581
  27.2760012 121.7304997  18.9929988  27.0960012 121.5764997  18.0659988
  28.2260012 121.8384997  19.0379988  27.3797776 121.7240175  18.8721843
  30.5140012 123.8524997  36.3639988  31.4670012 123.9354997  36.3369988
  30.3530012 123.1404997  36.9839988  30.6226426 123.7676746  36.4440579
  36.6660012 124.0854997  18.4389988  36.3920012 123.6604997  17.6259988
  36.7050012 125.0164997  18.2219988  36.6337699 124.1532484  18.2983610
  25.8330012 118.7354997  34.1689988  25.9830012 118.0064997  33.5669988
  25.8360012 119.5124997  33.6099988  25.8539302 118.7407851  34.0110692
  26.2460012 117.1054997  31.6619988  26.7820012 117.5564997  31.0099988
  25.3940012 116.9974997  31.2389988  26.2042178 117.1526390  31.5155756
  27.8280012 122.5444997  31.9009988  28.5780012 122.3884997  31.3279988
  27.4890012 123.3964997  31.6259988  27.8848921 122.6382968  31.7853561
  32.2430012 120.3594997  36.9299988  32.4360012 119.4284997  36.8179988
  33.1010012 120.7844997  36.9199988  32.3853020 120.2896389  36.9133361
  33.5600012 123.1484997  35.0069988  33.2790012 123.8574997  34.4299988
  34.5030012 123.0754997  34.8559988  33.6489027 123.2357646  34.9075551
  24.3120012 119.9334997  36.0809988  23.5450012 119.4014997  35.8709988
  24.9910012 119.6234997  35.4809988  24.2987022 119.8187506  35.9711648
  27.0520012 114.5614997  32.0929988  26.9530012 115.5084997  31.9879988
  26.3090012 114.1894997  31.6179988  26.9380563 114.6405902  32.0144560
  28.3160012 118.8834997  35.6569988  28.0800012 118.6634997  36.5589988
  27.5320012 118.6764997  35.1469988  28.1778628 118.8254760  35.7113932
  31.0310012 118.0104997  34.7329988  30.0840012 118.0424997  34.8649988
  31.3440012 117.3854997  35.3859988  30.9435475 117.9303207  34.8394455
  32.6650012 116.6444997  36.7379988  32.5690012 115.6924997  36.7319988
  32.3440012 116.9134997  37.5979988  32.6084070 116.5504035  36.8535441
  22.4920012 117.8544997  35.7849988  22.7040012 117.1474997  35.1749988
  22.3810012 117.4164997  36.6289988  22.5059721 117.6987084  35.8156843
  27.2730012 113.8554997  34.7649988  27.9850012 113.2154997  34.7509988
  27.1720012 114.1224997  33.8509988  27.3567939 113.8039938  34.6395650
  27.6270012 115.5384997  36.8179988  27.4950012 115.0624997  35.9979988
  27.0280012 116.2824997  36.7629988  27.5279071 115.5739618  36.6982886
  27.1730012 132.4214997  19.9949988  28.1060012 132.5794997  20.1379988
  26.9090012 133.0964997  19.3699988  27.2649510 132.5343611  19.9300741
  20.7420012 127.0574997  19.4769988  21.6560012 127.1364997  19.7509988
  20.7490012 126.3704997  18.8109988  20.8681131 126.9753961  19.4244393
  19.3910012 132.4504997  24.5549988  18.7440012 131.9884997  24.0219988
  19.7450012 131.7784997  25.1369988  19.3503849 132.2964723  24.5607959
  20.2610012 130.5314997  26.3589988  19.9260012 129.6514997  26.5309988
  20.4830012 130.8764997  27.2239988  20.2451783 130.4577500  26.4994208
  37.8090012 131.3404997  29.3399988  37.7880012 131.5254997  30.2789988
  38.5000012 131.9094997  28.9989988  37.8994618 131.4426606  29.4223864
  37.3730012 130.9084997  32.2619988  36.8850012 130.1724997  31.8909988
  37.9220012 130.5144997  32.9399988  37.3804872 130.7546249  32.3029160
  35.8230012 126.6974997  36.8999988  34.9570012 126.5924997  37.2939988
  36.2000012 127.4564997  37.3459988  35.7553308 126.7856900  37.0142393
  37.1240012 124.9544997  22.4139988  37.9740012 125.3754997  22.5409988
  37.1300012 124.2144997  23.0209988  37.2411372 124.9120803  22.5134344
  37.5190012 123.0074997  24.2379988  36.7920012 122.5284997  24.6349988
  38.1000012 123.2134997  24.9699988  37.4979375 122.9697090  24.3914129
  37.2780012 125.7924997  29.1849988  38.1110012 125.4144997  28.9049988
  37.3900012 126.7354997  29.0659988  37.4072647 125.8682218  29.1305487
  35.7640012 128.6704997  31.4919988  35.1170012 128.9954997  32.1179988
  35.2470012 128.2304997  30.8179988  35.6054029 128.6555004  31.4865827
  37.7870012 122.9084997  20.6289988  37.2650012 123.2654997  19.9099988
  37.7540012 123.5834997  21.3069988  37.7111634 123.0485413  20.6223145
  36.1360012 120.1484997  19.1799988  36.2320012 120.8154997  18.4989988
  35.9960012 119.3324997  18.6979988  36.1302135 120.1294500  19.0218491
  35.3050012 121.5284997  24.8009988  35.1550012 120.5834997  24.7799988
  34.9520012 121.8094997  25.6439988  35.2366625 121.4370441  24.9122346
  20.3410012 123.6064997  28.8109988  20.5250012 123.5244997  27.8749988
  21.1900012 123.4824997  29.2349988  20.4810139 123.5785003  28.7401455
  36.1620012 123.4984997  34.4389988  36.7450012 122.7644997  34.6309988
  36.7260012 124.2704997  34.4859988  36.3179769 123.5024227  34.4716159
  37.6580012 121.4014997  35.1239988  36.7950012 121.0224997  34.9579988
  38.2630012 120.6624997  35.0499988  37.6215979 121.2498023  35.0912817
  35.3830012 117.5564997  18.2969988  35.9940012 117.1854997  18.9339988
  34.5470012 117.1354997  18.4929988  35.3535032 117.4487554  18.4107035
  35.0160012 119.1114997  23.2629988  35.2960012 118.2044997  23.3869988
  35.7750012 119.5454997  22.8739988  35.1569277 119.0460942  23.2273682
  35.6280012 119.6924997  28.6989988  36.5610012 119.9044997  28.6649988
  35.3930012 119.7944997  29.6209988  35.7238036 119.7352769  28.8189976
  35.6570012 120.4294997  31.4749988  34.8140012 120.6974997  31.8409988
  36.0990012 121.2514997  31.2639988  35.6014158 120.5773291  31.4965491
  19.9380012 118.8774997  34.9519988  20.8580012 118.7554997  35.1879988
  19.4890012 118.1274997  35.3409988  20.0031580 118.7593727  35.0369006
  37.9400012 114.4094997  36.8279988  38.2900012 113.7554997  36.2229988
  38.0870012 115.2464997  36.3889988  38.0078419 114.4331591  36.6857118
  35.6290012 116.3744997  23.3109988  35.8120012 115.9254997  24.1369988
  35.0300012 115.7894997  22.8479988  35.5730202 116.2339975  23.3613275
  21.1590012 117.1894997  27.8429988  21.6050012 116.3974997  28.1449988
  21.6260012 117.9054997  28.2739988  21.2830172 117.1780624  27.9424820
  19.4630012 120.1884997  28.9119988  19.9550012 119.9674997  28.1209988
  19.8260012 121.0294997  29.1929988  19.5793126 120.2718357  28.8417531
  37.4600012 116.5184997  35.1779988  36.5420012 116.7894997  35.1419988
  37.5830012 115.9834997  34.3929988  37.3511066 116.4832892  35.0670487
  37.4960012 116.4414997  19.8389988  37.9080012 115.7204997  19.3639988
  38.1780012 117.1114997  19.8979988  37.6445885 116.4332368  19.7818915
  19.7770012 116.4464997  22.9659988  18.8520012 116.6554997  22.8369988
  20.2310012 116.9304997  22.2769988  19.7117368 116.5405993  22.8551226
  34.5480012 131.4304997  24.9119988  35.2000012 131.0834997  24.3039988
  35.0580012 131.9194997  25.5579988  34.7062637 131.4490597  24.9160236
  19.7410012 115.1844997  31.3109988  19.0760012 114.9384997  31.9539988
  19.2980012 115.8064997  30.7329988  19.5900956 115.2348632  31.3209352
  21.9330012 128.3594997  35.4549988  21.1120012 128.5344997  34.9949988
  21.6800012 128.2864997  36.3759988  21.7866164 128.3735622  35.5164923
  24.8870012 129.3344997  31.7139988  24.4620012 130.1434997  31.4309988
  25.7910012 129.4194997  31.4119988  24.9510271 129.4568469  31.6343776
  29.1980012 130.7334997  34.6729988  29.3830012 130.3994997  35.5509988
  30.0440012 131.0424997  34.3509988  29.3377539 130.7296047  34.7495605
  31.5430012 132.0194997  33.9169988  32.2200012 131.3864997  33.6769988
  31.8650012 132.4204997  34.7239988  31.6791637 131.9871154  33.9932793
  36.4600012 114.6084997  32.9969988  35.6480012 114.9334997  32.6089988
  36.6930012 113.8484997  32.4639988  36.3803423 114.5502436  32.8718253
  22.2890012 132.5904997  31.7609988  21.5680012 133.0304997  31.3099988
  21.9230012 132.3394997  32.6099988  22.1409804 132.6167698  31.8139840
  24.7560012 132.1904997  30.7909988  23.8910012 132.2624997  31.1949988
  24.7010012 132.7374997  30.0069988  24.6302085 132.2742685  30.7403362
  29.4660012 132.0784997  29.9659988  29.0100012 132.6074997  29.3119988
  29.6290012 132.6814997  30.6919988  29.4255585 132.2324468  29.9745062
  31.7940012 130.9564997  30.9109988  30.8890012 131.1214997  30.6459988
  32.2230012 131.8094997  30.8459988  31.7280799 131.0944483  30.8659182
  34.3980012 132.5264997  31.2059988  34.2160012 133.4424997  30.9959988
  34.5750012 132.1164997  30.3599988  34.3970210 132.5964822  31.0627885
  21.7030012 131.2134997  28.6709988  21.6850012 130.7884997  29.5289988
  22.5080012 130.8954997  28.2629988  21.8093875 131.1123812  28.7331655
  23.8450012 129.9234997  27.3259988  23.6260012 129.0074997  27.4959988
  24.6690012 130.0634997  27.7919988  23.9264420 129.8170520  27.4122773
  26.3820012 130.3934997  28.1749988  26.5950012 129.5054997  27.8879988
  26.4460012 130.3594997  29.1289988  26.4198231 130.2673102  28.2647397
  29.8900012 116.0574997  27.3189988  29.2160012 115.4284997  27.5749988
  30.4540012 115.5734997  26.7159988  29.8739230 115.9058744  27.2725340
  35.0330012 114.1654997  27.4319988  35.6370012 114.7124997  26.9299988
  34.1630012 114.4844997  27.1919988  34.9981241 114.2835806  27.3307654
  36.7600012 115.3034997  25.7649988  37.3720012 114.7894997  25.2389988
  37.1420012 116.1814997  25.7889988  36.8954540 115.3517140  25.6961830
  22.2170012 114.6914997  25.1409988  21.4400012 114.4574997  24.6339988
  22.7470012 113.8944997  25.1499988  22.1822330 114.5516988  25.0727742
  21.0530012 114.4894997  20.9449988  21.4920012 115.1004997  20.3529988
  20.4200012 115.0274997  21.4189988  21.0274514 114.6459257  20.9280930
  26.7960012 114.6184997  24.9549988  27.6710012 115.0064997  24.9249988
  26.6600012 114.4034997  25.8769988  26.8973695 114.6425184  25.0756440
  32.3530012 114.6484997  26.6039988  32.4290012 114.7434997  25.6539988
  32.0780012 113.7404997  26.7329988  32.3262321 114.5387867  26.4915079
  33.7060012 114.6744997  22.2959988  33.0040012 115.2894997  22.0869988
  33.2620012 113.8364997  22.4269988  33.5496330 114.6455783  22.2850328
  20.9540012 130.4374997  21.8429988  20.2690012 130.3994997  21.1749988
  20.9580012 131.3504997  22.1309988  20.8608193 130.5557016  21.7905284
  22.9140012 116.4054997  19.3869988  23.4060012 115.7754997  18.8599988
  23.5380012 116.7014997  20.0509988  23.0655446 116.3593199  19.4045980
  27.9400012 116.6984997  21.8439988  28.1180012 116.0524997  22.5269988
  27.8870012 117.5324997  22.3119988  27.9571829 116.7227985  22.0005940
  29.8190012 131.6474997  20.2399988  30.6850012 132.0134997  20.0619988
  29.5720012 131.2074997  19.4259988  29.9042392 131.6381756  20.1056289
  36.5280012 131.2104997  22.9189988  36.3330012 130.4624997  22.3539988
  36.4890012 131.9684997  22.3359988  36.4960380 131.2106099  22.7628384
  22.1750012 115.2054997  34.6589988  21.8090012 114.4404997  35.1019988
  23.0880012 115.2344997  34.9459988  22.2482790 115.1047224  34.7584070
  24.1480012 114.5564997  36.1949988  25.0460012 114.2824997  36.0099988
  23.7610012 113.8134997  36.6589988  24.2186612 114.4185914  36.2323643
  22.7720012 131.3574997  18.8679988  22.5050012 131.6444997  19.7409988
  23.5440012 130.8114997  19.0199988  22.8397488 131.3230294  19.0081050
  32.5690012 113.8884997  36.3769988  32.6460012 113.4624997  37.2309988
  33.4630012 113.9024997  36.0339988  32.7003428 113.8320879  36.4475310
  35.7450012 129.9614997  35.0689988  34.9630012 129.7754997  34.5499988
  35.6730012 130.8904997  35.2869988  35.6281777 130.0616492  35.0274048
  50.1510012 123.8474997  25.0999988  50.2400012 124.7914997  24.9679988
  49.5130012 123.5724997  24.4419988  50.0769081 123.9394830  24.9929614
  49.0840012 123.1024997  28.5189988  49.0460012 122.4564997  29.2239988
  48.7620012 122.6364997  27.7479988  49.0352333 122.9509408  28.5112978
  41.4530012 122.7174997  30.1119988  41.4940012 122.0914997  30.8349988
  42.1560012 123.3414997  30.2939988  41.5536363 122.7161196  30.2356044
  52.7900012 126.0414997  26.8199988  52.3500012 125.3214997  27.2709988
  52.7770012 126.7624997  27.4499988  52.7280226 126.0403731  26.9668494
  42.3760012 127.1674997  28.6469988  42.0070012 126.3654997  28.2769988
  43.3170012 126.9984997  28.6929988  42.4527289 127.0350153  28.6026316
  38.9860012 120.8274997  24.0399988  38.5390012 121.6734997  24.0209988
  38.4250012 120.2474997  23.5239988  38.8489900 120.8649916  23.9676801
  39.6970012 122.9894997  26.1659988  39.9100012 122.2194997  26.6929988
  40.4350012 123.0784997  25.5619988  39.8258496 122.8961394  26.1565300
  49.9020012 131.1464997  27.0329988  50.5220012 130.4694997  26.7589988
  49.6940012 130.9284997  27.9409988  49.9586904 131.0243870  27.1183365
  47.4740012 125.5354997  28.9249988  47.7780012 124.8494997  28.3299988
  48.1950012 125.6534997  29.5429988  47.6130671 125.4576304  28.9271816
  56.1370012 117.1364997  29.7859988  56.1860012 117.7464997  30.5219988
  56.5620012 117.5974997  29.0629988  56.2011824 117.2823741  29.7890205
  50.6150012 119.9294997  29.2529988  50.7570012 118.9834997  29.2729988
  50.5080012 120.1364997  28.3239988  50.6199864 119.8279534  29.1302339
  43.7690012 118.0304997  26.5249988  43.8130012 118.8904997  26.1069988
  43.3120012 117.4784997  25.8909988  43.7132185 118.0735799  26.3820299
  51.4920012 118.1614997  24.9259988  52.1380012 117.8324997  25.5509988
  52.0020012 118.6794997  24.3029988  51.6494264 118.1864611  24.9273862
  40.3900012 120.4274997  27.2869988  41.0430012 119.8774997  27.7189988
  40.4140012 120.1534997  26.3699988  40.4826683 120.3151466  27.2222123
  45.5460012 121.9774997  26.5019988  46.1620012 121.4514997  27.0119988
  44.9600012 121.3374997  26.0989988  45.5510810 121.8189208  26.5173173
  56.5280012 118.6144997  32.0219988  55.8400012 119.2724997  31.9259988
  56.5440012 118.4174997  32.9579988  56.4358525 118.6780462  32.1354808
  42.5800012 116.9484997  30.5989988  42.3610012 117.4784997  29.8329988
  41.9120012 117.1754997  31.2459988  42.4597600 117.0516906  30.5816379
  49.9490012 126.4484997  24.1429988  49.6530012 126.1264997  23.2919988
  49.6240012 127.3484997  24.1839988  49.8646371 126.5260215  24.0321801
  45.1490012 124.6244997  30.8859988  44.4090012 125.2224997  30.9899988
  45.8630012 125.1784997  30.5709988  45.1442237 124.7812831  30.8576465
  53.2560012 117.4524997  26.9059988  53.0400012 116.6864997  27.4389988
  53.9110012 117.9244997  27.4189988  53.3150632 117.4115889  27.0482861
  42.1730012 118.8404997  28.5509988  42.7870012 119.4734997  28.9249988
  42.6850012 118.3684997  27.8949988  42.3262296 118.8632370  28.5134252
  43.5560012 126.5884997  31.6739988  43.5510012 127.4684997  31.2959988
  42.7030012 126.5054997  32.0989988  43.4399464 126.6976117  31.6797907
  39.6770012 126.2594997  22.4559988  39.4050012 126.4884997  21.5669988
  39.7230012 127.0974997  22.9159988  39.6460094 126.4041213  22.3965697
  53.3020012 127.8814997  29.1679988  52.3610012 127.9394997  29.3299988
  53.5790012 128.7874997  29.0309988  53.2104679 128.0119443  29.1716815
  53.6030012 116.1674997  30.5859988  52.8670012 116.7784997  30.5479988
  54.2860012 116.5824997  30.0589988  53.5946541 116.3071374  30.5095832
  46.6060012 114.2544997  28.0519988  46.4890012 113.3054997  27.9969988
  45.7510012 114.5864997  28.3249988  46.4743733 114.1695409  28.0813897
  51.5540012 129.6624997  25.7939988  51.9800012 128.9554997  25.3089988
  51.8710012 130.4634997  25.3769988  51.6551019 129.6740994  25.6713130
  52.7140012 127.5634997  24.3019988  52.4560012 126.8734997  23.6909988
  52.7850012 127.1204997  25.1479988  52.6882856 127.4092124  24.3326885
  54.4000012 126.1294997  32.7799988  54.5400012 125.5384997  32.0399988
  54.5670012 127.0024997  32.4229988  54.4416778 126.1666426  32.6306965
  48.8730012 123.0914997  22.5519988  48.1610012 123.6264997  22.1999988
  49.5640012 123.1474997  21.8919988  48.8690132 123.1722543  22.4146289
  48.9260012 121.5494997  19.5909988  49.6270012 121.5714997  20.2419988
  49.2290012 120.9214997  18.9349988  49.0627830 121.4676566  19.5913711
  56.2420012 122.4694997  30.8459988  55.5890012 123.1644997  30.9349988
  56.7070012 122.6794997  30.0359988  56.2155390 122.5929425  30.7486883
  52.2780012 123.3014997  23.5039988  51.5460012 123.5294997  24.0769988
  52.7260012 122.5874997  23.9589988  52.2383095 123.2362571  23.6439119
  52.1760012 121.4754997  32.5709988  52.2560012 122.2384997  33.1429988
  51.5740012 121.7544997  31.8809988  52.1055756 121.6177134  32.5560589
  43.9240012 123.9314997  25.3859988  43.5930012 123.5614997  24.5679988
  44.5120012 123.2614997  25.7329988  43.9581873 123.7901156  25.3208102
  45.2900012 127.3594997  28.0679988  45.1960012 126.7814997  27.3109988
  46.0200012 126.9884997  28.5639988  45.3757981 127.2302390  28.0314165
  44.2900012 122.7004997  29.0199988  44.8560012 122.8214997  28.2569988
  44.6090012 123.3374997  29.6589988  44.4105786 122.8031884  29.0020040
  50.5990012 128.2034997  29.7539988  50.3590012 128.8654997  30.4019988
  50.4010012 127.3694997  30.1789988  50.5393808 128.1813134  29.9001524
  45.1700012 127.0994997  33.7369988  44.8590012 127.8814997  34.1919988
  44.5200012 126.9464997  33.0509988  45.0395558 127.1859105  33.7065871
  51.1490012 122.4634997  21.1889988  51.7290012 122.6134997  21.9359988
  51.5630012 122.9344997  20.4659988  51.2842830 122.5476841  21.1934134
  42.0900012 123.2974997  32.9659988  42.1610012 123.9484997  33.6639988
  41.2000012 123.4004997  32.6309988  41.9793117 123.4005936  33.0162700
  48.8760012 129.2004997  24.6239988  49.3500012 129.4954997  25.4019988
  48.3130012 129.9384997  24.3909988  48.8647653 129.3406932  24.6990136
  43.4100012 129.1714997  34.4999988  43.4170012 129.0354997  33.5529988
  42.4940012 129.0534997  34.7519988  43.2871714 129.1369430  34.4044666
  54.8480012 114.2134997  21.0019988  53.9480012 114.3524997  21.2969988
  55.1000012 115.0444997  20.5999988  54.7588702 114.3449074  20.9880205
  42.9140012 123.0014997  22.9759988  42.6220012 123.7694997  22.4849988
  42.2400012 122.3414997  22.8129988  42.7829081 123.0174406  22.8867340
  56.0370012 128.5794997  19.3779988  56.1110012 129.5184997  19.5489988
  56.9430012 128.2744997  19.3219988  56.1695100 128.6666722  19.3938119
  39.0070012 125.3644997  31.7909988  38.5060012 125.3364997  30.9759988
  39.0120012 124.4584997  32.0999988  38.9391526 125.2382278  31.7212872
  38.7570012 128.1444997  28.6749988  39.7030012 128.0004997  28.6559988
  38.6450012 128.9284997  29.2119988  38.8712727 128.2308046  28.7450072
  56.9550012 128.8104997  34.3569988  56.9060012 127.8554997  34.3199988
  56.1280012 129.0784997  34.7579988  56.8364940 128.7158998  34.4061375
  47.9340012 128.3844997  33.2329988  48.0210012 129.2104997  33.7079988
  47.0700012 128.0544997  33.4819988  47.8291964 128.4529878  33.3316549
  48.3480012 132.1564997  23.0389988  48.2730012 132.0354997  22.0929988
  48.3810012 133.1064997  23.1579988  48.3421848 132.2682500  22.9254834
  42.0010012 130.9454997  24.8199988  42.1540012 130.5974997  25.6989988
  41.1510012 130.5894997  24.5649988  41.9068962 130.8496650  24.9058340
  51.4500012 131.3104997  20.0409988  51.8250012 130.5664997  19.5709988
  51.4540012 131.0404997  20.9599988  51.5018915 131.1721486  20.1007824
  51.1190012 131.2364997  22.7909988  50.1830012 131.3364997  22.9689988
  51.3990012 130.5274997  23.3689988  51.0288255 131.1542711  22.8935391
  54.1070012 120.3034997  34.8369988  53.7000012 120.7844997  34.1159988
  54.1480012 119.3984997  34.5289988  54.0568437 120.2469374  34.6966683
  41.2560012 126.6874997  32.8339988  41.4720012 126.3264997  33.6929988
  40.4010012 126.3134997  32.6239988  41.1699292 126.5874111  32.9233386
  43.8750012 115.1574997  28.8289988  43.0130012 115.0704997  28.4219988
  43.8520012 116.0134997  29.2569988  43.7540330 115.2612765  28.8311863
  48.5380012 114.8794997  32.2039988  48.9580012 114.4644997  32.9569988
  47.6050012 114.7014997  32.3209988  48.4693644 114.7985900  32.3229539
  51.8640012 118.6354997  33.0569988  51.3500012 118.5094997  33.8549988
  51.7090012 119.5474997  32.8129988  51.7726852 118.7416132  33.1332158
  52.6270012 123.4964997  18.8189988  52.6690012 123.2734997  17.8889988
  53.4760012 123.8954997  19.0089988  52.7475396 123.5199155  18.7173627
  48.1990012 117.3724997  19.4889988  47.9460012 117.3914997  20.4119988
  47.9430012 116.5004997  19.1879988  48.1297790 117.2572437  19.5746263
  43.9660012 120.1234997  29.9239988  43.3240012 120.0824997  30.6329988
  44.0030012 121.0494997  29.6869988  43.8831324 120.2431559  29.9889824
  43.9630012 120.3444997  24.8359988  43.0700012 120.0034997  24.7779988
  44.4130012 119.9674997  24.0809988  43.9017305 120.2468484  24.7259177
  49.4980012 120.7604997  23.6529988  49.0890012 121.5754997  23.3619988
  50.2190012 120.6204997  23.0389988  49.5394537 120.8532018  23.5301342
  48.6000012 120.9354997  35.1409988  48.0380012 120.2314997  35.4619988
  49.4270012 120.8154997  35.6089988  48.6347095 120.8227883  35.2482330
  50.5030012 120.2064997  26.4669988  50.3080012 120.8114997  25.7519988
  50.6840012 119.3724997  26.0329988  50.5007614 120.1766300  26.3104405
  41.7160012 120.4434997  31.7909988  41.6780012 120.8434997  32.6599988
  41.2250012 119.6264997  31.8819988  41.6444684 120.3878069  31.9221059
  45.0820012 117.8174997  18.5899988  44.6510012 117.3724997  19.3199988
  44.3640012 118.1894997  18.0779988  44.9259438 117.8068940  18.6206799
  38.3240012 117.5594997  25.6419988  38.9550012 117.5304997  26.3609988
  38.7730012 117.1344997  24.9119988  38.4710774 117.4980492  25.6416553
  39.5980012 118.3054997  21.0659988  40.0720012 118.8964997  20.4809988
  38.8810012 118.8364997  21.4129988  39.5659341 118.4580867  21.0328836
  49.7670012 121.8444997  31.1389988  50.0900012 121.2134997  30.4959988
  49.3270012 121.3094997  31.7989988  49.7516895 121.6858440  31.1402850
  46.5440012 117.7714997  25.9229988  45.6330012 117.8284997  26.2109988
  47.0500012 117.7114997  26.7329988  46.4875413 117.7711985  26.0720622
  41.3730012 119.4004997  24.7489988  40.4830012 119.5004997  24.4089988
  41.6690012 118.5584997  24.4029988  41.2912823 119.3003545  24.6557213
  45.0260012 119.4004997  22.4059988  45.9570012 119.5294997  22.5839988
  44.8110012 120.0704997  21.7559988  45.1244247 119.5086565  22.3425747
  50.9490012 117.0064997  29.1869988  50.2730012 117.1374997  29.8509988
  50.4640012 116.8514997  28.3769988  50.7907145 117.0034905  29.1684517
  43.7000012 120.5954997  19.9729988  43.1570012 120.2154997  19.2809988
  44.5330012 120.7894997  19.5439988  43.7384399 120.5698124  19.8204526
  54.2370012 132.6784997  35.4639988  54.4370012 133.1024997  34.6289988
  54.8920012 133.0214997  36.0709988  54.3530051 132.7829648  35.4317836
  41.8350012 125.1524997  35.0719988  42.5670012 125.4064997  35.6329988
  41.0550012 125.3564997  35.5869988  41.8298232 125.2149177  35.2185760
  47.8640012 120.5594997  27.8099988  48.4290012 120.0124997  27.2629988
  47.7170012 120.0374997  28.5979988  47.9212918 120.4142024  27.8418454
  42.8660012 116.6954997  24.2279988  42.5490012 115.7934997  24.1929988
  43.6480012 116.6974997  23.6749988  42.9282284 116.5721628  24.1484783
  46.4910012 118.9474997  30.2239988  45.6550012 119.4014997  30.3339988
  47.0150012 119.2234997  30.9759988  46.4474414 119.0469376  30.3407136
  47.0350012 125.1604997  21.9079988  46.2900012 124.6534997  21.5859988
  46.9010012 125.2094997  22.8549988  46.9148776 125.0976940  21.9918647
  54.1850012 124.2934997  30.6949988  54.8270012 124.7504997  30.1509988
  53.3550012 124.4064997  30.2319988  54.1605963 124.3712704  30.5580177
  50.9330012 117.9744997  20.1079988  49.9940012 118.0864997  19.9559988
  51.2300012 118.8314997  20.4139988  50.8447666 118.1056443  20.1285768
  48.5540012 125.3444997  33.1449988  48.2090012 124.9634997  33.9519988
  48.3540012 126.2784997  33.2169988  48.4798061 125.4185228  33.2650961
  51.6510012 119.8414997  21.7679988  52.5430012 119.7044997  22.0869988
  51.7080012 120.6324997  21.2319988  51.7806285 119.9296660  21.7391691
  42.1600012 124.4554997  27.6779988  42.9050012 124.4534997  27.0769988
  42.2380012 123.6324997  28.1599988  42.2725518 124.3439315  27.6608929
  49.1610012 126.6194997  20.9339988  48.8650012 127.4454997  21.3149988
  48.4580012 125.9994997  21.1299988  49.0254914 126.6488199  21.0126443
  39.1680012 122.9164997  32.9929988  39.3910012 122.4984997  33.8249988
  38.5660012 122.3034997  32.5699988  39.1171759 122.7764668  33.0497022
  46.1840012 122.4334997  35.2059988  45.8880012 122.2674997  34.3109988
  47.1160012 122.2134997  35.1949988  46.2694166 122.3810640  35.0820536
  50.8050012 127.8064997  33.0959988  49.9040012 127.9894997  32.8279988
  50.8390012 128.0654997  34.0169988  50.6863041 127.8665512  33.1838197
  56.5360012 120.0514997  21.4629988  55.9820012 119.6554997  20.7909988
  56.6360012 120.9614997  21.1849988  56.4737059 120.1203586  21.3334401
  56.4990012 125.8514997  34.2999988  55.6480012 126.0894997  33.9329988
  57.0900012 125.8344997  33.5469988  56.4622487 125.8818258  34.1478893
  54.8310012 128.8374997  21.9279988  54.4580012 128.0114997  22.2369988
  55.1090012 128.6544997  21.0309988  54.8175630 128.6997303  21.8489626
  51.9920012 123.6454997  28.9489988  51.0630012 123.4134997  28.9219988
  52.4430012 122.8684997  28.6189988  51.9259216 123.5087238  28.9006917
  44.5350012 127.9734997  25.0819988  45.0620012 128.7464997  24.8819988
  43.6550012 128.1984997  24.7809988  44.4881773 128.1098005  25.0139010
  40.2900012 122.8354997  19.6689988  40.9060012 123.4624997  20.0489988
  39.4280012 123.1514997  19.9409988  40.2577698 122.9639430  19.7577183
  45.9620012 125.6364997  24.6589988  45.7210012 126.5614997  24.6999988
  45.2210012 125.1774997  25.0549988  45.8288409 125.7011421  24.7181377
  46.4770012 129.7854997  30.9739988  46.8390012 130.6404997  30.7399988
  47.0080012 129.4934997  31.7139988  46.5984473 129.8631060  31.0420855
  44.6450012 130.6584997  24.2039988  43.6950012 130.7634997  24.2549988
  44.9970012 131.4784997  24.5489988  44.5624203 130.7838314  24.2576650
  50.0210012 125.8844997  30.6739988  49.5950012 125.6574997  31.5009988
  50.6010012 125.1464997  30.4919988  50.0411868 125.7535299  30.7625830
  52.2240012 126.8134997  19.7479988  52.5770012 126.4334997  20.5529988
  51.2750012 126.7204997  19.8349988  52.1440441 126.7489596  19.8698559
  52.6790012 130.4364997  33.1439988  52.0780012 129.8814997  32.6479988
  52.9610012 131.1034997  32.5179988  52.6348519 130.4506841  32.9914952
  56.7270012 131.2934997  19.9489988  57.4710012 131.8794997  19.8089988
  56.0330012 131.8614997  20.2829988  56.7350292 131.4505582  19.9749961
  40.8020012 117.6694997  32.5509988  39.9090012 118.0084997  32.4829988
  40.7030012 116.8144997  32.9689988  40.6664164 117.6002588  32.5982235
  53.0900012 125.4864997  21.9749988  52.8120012 124.7584997  22.5309988
  54.0170012 125.6054997  22.1799988  53.1773124 125.4028802  22.0788845
  40.4530012 129.4744997  30.9859988  40.6700012 128.5424997  30.9549988
  40.6990012 129.7484997  31.8689988  40.5159549 129.3840636  31.1011763
  46.3150012 127.9254997  18.1949988  46.5540012 127.1774997  17.6479988
  46.0460012 127.5374997  19.0279988  46.3113675 127.7706638  18.2326865
  45.2520012 127.4954997  20.6519988  45.3980012 126.9754997  21.4419988
  45.2490012 128.4024997  20.9579988  45.2715989 127.5468853  20.8016088
  41.7050012 124.7484997  21.1619988  41.0190012 125.1004997  21.7289988
  42.2270012 125.5114997  20.9149988  41.6816852 124.8998578  21.2062118
  49.5360012 117.4104997  31.4409988  50.2350012 117.4844997  32.0909988
  49.1550012 116.5464997  31.5949988  49.5801767 117.3037624  31.5508322
  50.3210012 117.0624997  22.5379988  50.5410012 117.5344997  21.7349988
  50.8790012 117.4574997  23.2079988  50.4264968 117.1804285  22.5187331
  47.9890012 129.1934997  21.4009988  47.1730012 129.6904997  21.4529988
  48.5190012 129.6684997  20.7609988  47.9489161 129.3257722  21.3215956
  47.5210012 118.7904997  23.3729988  48.3330012 119.2954997  23.4189988
  47.2760012 118.6454997  24.2869988  47.5990520 118.8400375  23.5028517
  48.0560012 119.7764997  32.5579988  48.1750012 120.3504997  33.3149988
  48.7120012 119.0884997  32.6719988  48.1609757 119.7621079  32.6770825
  48.4040012 115.8714997  24.3109988  48.0580012 116.4894997  24.9559988
  49.0630012 116.3724997  23.8299988  48.4457826 116.0235802  24.3340971
  45.3280012 130.2374997  21.3829988  45.4880012 131.0364997  20.8819988
  45.1300012 130.5434997  22.2679988  45.3231649 130.3884469  21.4339815
  44.0620012 116.9344997  20.9979988  43.9790012 117.8234997  21.3449988
  44.9520012 116.6694997  21.2299988  44.1709469 117.0201430  21.0767626
  54.2610012 117.6834997  33.3929988  53.3440012 117.9464997  33.3049988
  54.5960012 117.6804997  32.4959988  54.1809900 117.7190224  33.2597919
  52.8630012 121.4344997  27.4879988  52.0650012 121.0194997  27.1599988
  53.3080012 120.7434997  27.9789988  52.8139885 121.2843543  27.5094889
  42.3210012 127.3624997  20.0589988  42.9130012 128.0614997  20.3349988
  42.7800012 126.9294997  19.3389988  42.4641142 127.3997049  19.9994830
  40.6370012 120.0264997  19.1749988  40.5920012 120.9654997  19.3529988
  39.7490012 119.7904997  18.9049988  40.5108574 120.1231892  19.1628912
  53.9490012 130.6904997  29.1109988  53.7940012 131.3684997  28.4539988
  54.8820012 130.7624997  29.3139988  54.0538500 130.7930170  29.0485119
  41.4450012 114.8084997  27.8479988  41.2160012 114.8674997  26.9199988
  41.0020012 114.0164997  28.1539988  41.3538530 114.7095753  27.7624786
  40.3750012 128.7484997  24.0079988  39.5430012 129.2214997  24.0359988
  40.9210012 129.2584997  23.4099988  40.3349739 128.8821871  23.9309716
  39.6630012 131.3614997  35.3379988  40.2040012 131.1444997  36.0979988
  39.1820012 130.5554997  35.1489988  39.6719345 131.2229514  35.4163076
  44.2610012 130.2804997  36.9589988  45.0280012 129.8214997  37.2999988
  44.2390012 130.0544997  36.0289988  44.3631434 130.1870409  36.8800043
  48.3530012 129.7884997  18.3339988  47.7090012 129.1574997  18.6549988
  49.1150012 129.2574997  18.1019988  48.3678077 129.6302920  18.3466011
  50.8380012 128.6604997  35.6879988  50.4870012 127.8044997  35.9309988
  51.5640012 128.8034997  36.2949988  50.8880769 128.5625636  35.8033619
  52.9570012 129.6054997  18.5679988  53.2400012 128.8114997  19.0199988
  53.6970012 129.8384997  18.0069988  53.0957486 129.5282803  18.5540698
  39.5700012 125.1714997  36.2929988  39.7140012 124.2694997  36.0059988
  38.7980012 125.4574997  35.8049988  39.4853322 125.0868261  36.1877881
  43.9120012 125.5154997  18.4249988  43.9760012 124.7214997  18.9559988
  44.5650012 125.3964997  17.7349988  44.0090241 125.3907148  18.4044317
  46.2260012 125.1414997  35.7249988  45.8970012 125.4124997  34.8679988
  46.3780012 124.2004997  35.6379988  46.2014809 125.0513862  35.5958244
  49.2640012 126.5624997  18.1609988  48.9950012 126.7424997  19.0619988
  49.0580012 125.6364997  18.0299988  49.1993825 126.4620152  18.2665214
  51.9600012 125.0574997  33.1089988  52.7060012 125.6454997  32.9889988
  51.2030012 125.6394997  33.1719988  51.9597554 125.2167011  33.1010907
  40.4030012 122.3714997  35.7129988  40.8110012 121.5144997  35.5919988
  40.1430012 122.3864997  36.6339988  40.4237568 122.2560807  35.8209588
  45.0610012 123.4874997  20.7309988  44.6010012 123.0034997  21.4169988
  45.3160012 122.8194997  20.0949988  45.0324902 123.3308731  20.7389334
  44.3500012 121.3804997  33.0869988  43.7320012 122.0554997  33.3669988
  44.6940012 121.7014997  32.2539988  44.3119615 121.5162721  33.0126581
  46.1320012 121.7304997  18.9929988  45.9520012 121.5764997  18.0659988
  47.0820012 121.8384997  19.0379988  46.2357776 121.7240175  18.8721843
  49.3700012 123.8524997  36.3639988  50.3230012 123.9354997  36.3369988
  49.2090012 123.1404997  36.9839988  49.4786426 123.7676746  36.4440579
  55.5220012 124.0854997  18.4389988  55.2480012 123.6604997  17.6259988
  55.5610012 125.0164997  18.2219988  55.4897699 124.1532484  18.2983610
  44.6890012 118.7354997  34.1689988  44.8390012 118.0064997  33.5669988
  44.6920012 119.5124997  33.6099988  44.7099302 118.7407851  34.0110692
  45.1020012 117.1054997  31.6619988  45.6380012 117.5564997  31.0099988
  44.2500012 116.9974997  31.2389988  45.0602178 117.1526390  31.5155756
  46.6840012 122.5444997  31.9009988  47.4340012 122.3884997  31.3279988
  46.3450012 123.3964997  31.6259988  46.7408921 122.6382968  31.7853561
  51.0990012 120.3594997  36.9299988  51.2920012 119.4284997  36.8179988
  51.9570012 120.7844997  36.9199988  51.2413020 120.2896389  36.9133361
  52.4160012 123.1484997  35.0069988  52.1350012 123.8574997  34.4299988
  53.3590012 123.0754997  34.8559988  52.5049027 123.2357646  34.9075551
  43.1680012 119.9334997  36.0809988  42.4010012 119.4014997  35.8709988
  43.8470012 119.6234997  35.4809988  43.1547022 119.8187506  35.9711648
  45.9080012 114.5614997  32.0929988  45.8090012 115.5084997  31.9879988
  45.1650012 114.1894997  31.6179988  45.7940563 114.6405902  32.0144560
  47.1720012 118.8834997  35.6569988  46.9360012 118.6634997  36.5589988
  46.3880012 118.6764997  35.1469988  47.0338628 118.8254760  35.7113932
  49.8870012 118.0104997  34.7329988  48.9400012 118.0424997  34.8649988
  50.2000012 117.3854997  35.3859988  49.7995475 117.9303207  34.8394455
  51.5210012 116.6444997  36.7379988  51.4250012 115.6924997  36.7319988
  51.2000012 116.9134997  37.5979988  51.4644070 116.5504035  36.8535441
  41.3480012 117.8544997  35.7849988  41.5600012 117.1474997  35.1749988
  41.2370012 117.4164997  36.6289988  41.3619721 117.6987084  35.8156843
  46.1290012 113.8554997  34.7649988  46.8410012 113.2154997  34.7509988
  46.0280012 114.1224997  33.8509988  46.2127939 113.8039938  34.6395650
  46.4830012 115.5384997  36.8179988  46.3510012 115.0624997  35.9979988
  45.8840012 116.2824997  36.7629988  46.3839071 115.5739618  36.6982886
  46.0290012 132.4214997  19.9949988  46.9620012 132.5794997  20.1379988
  45.7650012 133.0964997  19.3699988  46.1209510 132.5343611  19.9300741
  39.5980012 127.0574997  19.4769988  40.5120012 127.1364997  19.7509988
  39.6050012 126.3704997  18.8109988  39.7241131 126.9753961  19.4244393
  38.2470012 132.4504997  24.5549988  37.6000012 131.9884997  24.0219988
  38.6010012 131.7784997  25.1369988  38.2063849 132.2964723  24.5607959
  39.1170012 130.5314997  26.3589988  38.7820012 129.6514997  26.5309988
  39.3390012 130.8764997  27.2239988  39.1011783 130.4577500  26.4994208
  56.6650012 131.3404997  29.3399988  56.6440012 131.5254997  30.2789988
  57.3560012 131.9094997  28.9989988  56.7554618 131.4426606  29.4223864
  56.2290012 130.9084997  32.2619988  55.7410012 130.1724997  31.8909988
  56.7780012 130.5144997  32.9399988  56.2364872 130.7546249  32.3029160
  54.6790012 126.6974997  36.8999988  53.8130012 126.5924997  37.2939988
  55.0560012 127.4564997  37.3459988  54.6113308 126.7856900  37.0142393
  55.9800012 124.9544997  22.4139988  56.8300012 125.3754997  22.5409988
  55.9860012 124.2144997  23.0209988  56.0971372 124.9120803  22.5134344
  56.3750012 123.0074997  24.2379988  55.6480012 122.5284997  24.6349988
  56.9560012 123.2134997  24.9699988  56.3539375 122.9697090  24.3914129
  56.1340012 125.7924997  29.1849988  56.9670012 125.4144997  28.9049988
  56.2460012 126.7354997  29.0659988  56.2632647 125.8682218  29.1305487
  54.6200012 128.6704997  31.4919988  53.9730012 128.9954997  32.1179988
  54.1030012 128.2304997  30.8179988  54.4614029 128.6555004  31.4865827
  56.6430012 122.9084997  20.6289988  56.1210012 123.2654997  19.9099988
  56.6100012 123.5834997  21.3069988  56.5671634 123.0485413  20.6223145
  54.9920012 120.1484997  19.1799988  55.0880012 120.8154997  18.4989988
  54.8520012 119.3324997  18.6979988  54.9862135 120.1294500  19.0218491
  54.1610012 121.5284997  24.8009988  54.0110012 120.5834997  24.7799988
  53.8080012 121.8094997  25.6439988  54.0926625 121.4370441  24.9122346
  39.1970012 123.6064997  28.8109988  39.3810012 123.5244997  27.8749988
  40.0460012 123.4824997  29.2349988  39.3370139 123.5785003  28.7401455
  55.0180012 123.4984997  34.4389988  55.6010012 122.7644997  34.6309988
  55.5820012 124.2704997  34.4859988  55.1739769 123.5024227  34.4716159
  56.5140012 121.4014997  35.1239988  55.6510012 121.0224997  34.9579988
  57.1190012 120.6624997  35.0499988  56.4775979 121.2498023  35.0912817
  54.2390012 117.5564997  18.2969988  54.8500012 117.1854997  18.9339988
  53.4030012 117.1354997  18.4929988  54.2095032 117.4487554  18.4107035
  53.8720012 119.1114997  23.2629988  54.1520012 118.2044997  23.3869988
  54.6310012 119.5454997  22.8739988  54.0129277 119.0460942  23.2273682
  54.4840012 119.6924997  28.6989988  55.4170012 119.9044997  28.6649988
  54.2490012 119.7944997  29.6209988  54.5798036 119.7352769  28.8189976
  54.5130012 120.4294997  31.4749988  53.6700012 120.6974997  31.8409988
  54.9550012 121.2514997  31.2639988  54.4574158 120.5773291  31.4965491
  38.7940012 118.8774997  34.9519988  39.7140012 118.7554997  35.1879988
  38.3450012 118.1274997  35.3409988  38.8591580 118.7593727  35.0369006
  56.7960012 114.4094997  36.8279988  57.1460012 113.7554997  36.2229988
  56.9430012 115.2464997  36.3889988  56.8638419 114.4331591  36.6857118
  54.4850012 116.3744997  23.3109988  54.6680012 115.9254997  24.1369988
  53.8860012 115.7894997  22.8479988  54.4290202 116.2339975  23.3613275
  40.0150012 117.1894997  27.8429988  40.4610012 116.3974997  28.1449988
  40.4820012 117.9054997  28.2739988  40.1390172 117.1780624  27.9424820
  38.3190012 120.1884997  28.9119988  38.8110012 119.9674997  28.1209988
  38.6820012 121.0294997  29.1929988  38.4353126 120.2718357  28.8417531
  56.3160012 116.5184997  35.1779988  55.3980012 116.7894997  35.1419988
  56.4390012 115.9834997  34.3929988  56.2071066 116.4832892  35.0670487
  56.3520012 116.4414997  19.8389988  56.7640012 115.7204997  19.3639988
  57.0340012 117.1114997  19.8979988  56.5005885 116.4332368  19.7818915
  38.6330012 116.4464997  22.9659988  37.7080012 116.6554997  22.8369988
  39.0870012 116.9304997  22.2769988  38.5677368 116.5405993  22.8551226
  53.4040012 131.4304997  24.9119988  54.0560012 131.0834997  24.3039988
  53.9140012 131.9194997  25.5579988  53.5622637 131.4490597  24.9160236
  38.5970012 115.1844997  31.3109988  37.9320012 114.9384997  31.9539988
  38.1540012 115.8064997  30.7329988  38.4460956 115.2348632  31.3209352
  40.7890012 128.3594997  35.4549988  39.9680012 128.5344997  34.9949988
  40.5360012 128.2864997  36.3759988  40.6426164 128.3735622  35.5164923
  43.7430012 129.3344997  31.7139988  43.3180012 130.1434997  31.4309988
  44.6470012 129.4194997  31.4119988  43.8070271 129.4568469  31.6343776
  48.0540012 130.7334997  34.6729988  48.2390012 130.3994997  35.5509988
  48.9000012 131.0424997  34.3509988  48.1937539 130.7296047  34.7495605
  50.3990012 132.0194997  33.9169988  51.0760012 131.3864997  33.6769988
  50.7210012 132.4204997  34.7239988  50.5351637 131.9871154  33.9932793
  55.3160012 114.6084997  32.9969988  54.5040012 114.9334997  32.6089988
  55.5490012 113.8484997  32.4639988  55.2363423 114.5502436  32.8718253
  41.1450012 132.5904997  31.7609988  40.4240012 133.0304997  31.3099988
  40.7790012 132.3394997  32.6099988  40.9969804 132.6167698  31.8139840
  43.6120012 132.1904997  30.7909988  42.7470012 132.2624997  31.1949988
  43.5570012 132.7374997  30.0069988  43.4862085 132.2742685  30.7403362
  48.3220012 132.0784997  29.9659988  47.8660012 132.6074997  29.3119988
  48.4850012 132.6814997  30.6919988  48.2815585 132.2324468  29.9745062
  50.6500012 130.9564997  30.9109988  49.7450012 131.1214997  30.6459988
  51.0790012 131.8094997  30.8459988  50.5840799 131.0944483  30.8659182
  53.2540012 132.5264997  31.2059988  53.0720012 133.4424997  30.9959988
  53.4310012 132.1164997  30.3599988  53.2530210 132.5964822  31.0627885
  40.5590012 131.2134997  28.6709988  40.5410012 130.7884997  29.5289988
  41.3640012 130.8954997  28.2629988  40.6653875 131.1123812  28.7331655
  42.7010012 129.9234997  27.3259988  42.4820012 129.0074997  27.4959988
  43.5250012 130.0634997  27.7919988  42.7824420 129.8170520  27.4122774
  45.2380012 130.3934997  28.1749988  45.4510012 129.5054997  27.8879988
  45.3020012 130.3594997  29.1289988  45.2758232 130.2673102  28.2647397
  48.7460012 116.0574997  27.3189988  48.0720012 115.4284997  27.5749988
  49.3100012 115.5734997  26.7159988  48.7299230 115.9058744  27.2725340
  53.8890012 114.1654997  27.4319988  54.4930012 114.7124997  26.9299988
  53.0190012 114.4844997  27.1919988  53.8541241 114.2835806  27.3307654
  55.6160012 115.3034997  25.7649988  56.2280012 114.7894997  25.2389988
  55.9980012 116.1814997  25.7889988  55.7514540 115.3517140  25.6961830
  41.0730012 114.6914997  25.1409988  40.2960012 114.4574997  24.6339988
  41.6030012 113.8944997  25.1499988  41.0382330 114.5516988  25.0727742
  39.9090012 114.4894997  20.9449988  40.3480012 115.1004997  20.3529988
  39.2760012 115.0274997  21.4189988  39.8834514 114.6459257  20.9280930
  45.6520012 114.6184997  24.9549988  46.5270012 115.0064997  24.9249988
  45.5160012 114.4034997  25.8769988  45.7533695 114.6425184  25.0756440
  51.2090012 114.6484997  26.6039988  51.2850012 114.7434997  25.6539988
  50.9340012 113.7404997  26.7329988  51.1822321 114.5387867  26.4915079
  52.5620012 114.6744997  22.2959988  51.8600012 115.2894997  22.0869988
  52.1180012 113.8364997  22.4269988  52.4056330 114.6455783  22.2850328
  39.8100012 130.4374997  21.8429988  39.1250012 130.3994997  21.1749988
  39.8140012 131.3504997  22.1309988  39.7168193 130.5557016  21.7905284
  41.7700012 116.4054997  19.3869988  42.2620012 115.7754997  18.8599988
  42.3940012 116.7014997  20.0509988  41.9215446 116.3593199  19.4045980
  46.7960012 116.6984997  21.8439988  46.9740012 116.0524997  22.5269988
  46.7430012 117.5324997  22.3119988  46.8131829 116.7227985  22.0005940
  48.6750012 131.6474997  20.2399988  49.5410012 132.0134997  20.0619988
  48.4280012 131.2074997  19.4259988  48.7602392 131.6381756  20.1056289
  55.3840012 131.2104997  22.9189988  55.1890012 130.4624997  22.3539988
  55.3450012 131.9684997  22.3359988  55.3520380 131.2106099  22.7628384
  41.0310012 115.2054997  34.6589988  40.6650012 114.4404997  35.1019988
  41.9440012 115.2344997  34.9459988  41.1042790 115.1047224  34.7584070
  43.0040012 114.5564997  36.1949988  43.9020012 114.2824997  36.0099988
  42.6170012 113.8134997  36.6589988  43.0746612 114.4185914  36.2323643
  41.6280012 131.3574997  18.8679988  41.3610012 131.6444997  19.7409988
  42.4000012 130.8114997  19.0199988  41.6957488 131.3230294  19.0081050
  51.4250012 113.8884997  36.3769988  51.5020012 113.4624997  37.2309988
  52.3190012 113.9024997  36.0339988  51.5563428 113.8320879  36.4475310
  54.6010012 129.9614997  35.0689988  53.8190012 129.7754997  34.5499988
  54.5290012 130.8904997  35.2869988  54.4841777 130.0616492  35.0274048
  69.0070012 123.8474997  25.0999988  69.0960012 124.7914997  24.9679988
  68.3690012 123.5724997  24.4419988  68.9329081 123.9394830  24.9929614
  67.9400012 123.1024997  28.5189988  67.9020012 122.4564997  29.2239988
  67.6180012 122.6364997  27.7479988  67.8912333 122.9509408  28.5112978
  60.3090012 122.7174997  30.1119988  60.3500012 122.0914997  30.8349988
  61.0120012 123.3414997  30.2939988  60.4096363 122.7161196  30.2356044
  71.6460012 126.0414997  26.8199988  71.2060012 125.3214997  27.2709988
  71.6330012 126.7624997  27.4499988  71.5840226 126.0403731  26.9668494
  61.2320012 127.1674997  28.6469988  60.8630012 126.3654997  28.2769988
  62.1730012 126.9984997  28.6929988  61.3087289 127.0350153  28.6026316
  57.8420012 120.8274997  24.0399988  57.3950012 121.6734997  24.0209988
  57.2810012 120.2474997  23.5239988  57.7049900 120.8649916  23.9676801
  58.5530012 122.9894997  26.1659988  58.7660012 122.2194997  26.6929988
  59.2910012 123.0784997  25.5619988  58.6818496 122.8961394  26.1565300
  68.7580012 131.1464997  27.0329988  69.3780012 130.4694997  26.7589988
  68.5500012 130.9284997  27.9409988  68.8146904 131.0243870  27.1183365
  66.3300012 125.5354997  28.9249988  66.6340012 124.8494997  28.3299988
  67.0510012 125.6534997  29.5429988  66.4690671 125.4576305  28.9271816
  74.9930012 117.1364997  29.7859988  75.0420012 117.7464997  30.5219988
  75.4180012 117.5974997  29.0629988  75.0571824 117.2823741  29.7890205
  69.4710012 119.9294997  29.2529988  69.6130012 118.9834997  29.2729988
  69.3640012 120.1364997  28.3239988  69.4759864 119.8279534  29.1302339
  62.6250012 118.0304997  26.5249988  62.6690012 118.8904997  26.1069988
  62.1680012 117.4784997  25.8909988  62.5692185 118.0735799  26.3820299
  70.3480012 118.1614997  24.9259988  70.9940012 117.8324997  25.5509988
  70.8580012 118.6794997  24.3029988  70.5054264 118.1864611  24.9273862
  59.2460012 120.4274997  27.2869988  59.8990012 119.8774997  27.7189988
  59.2700012 120.1534997  26.3699988  59.3386683 120.3151466  27.2222123
  64.4020012 121.9774997  26.5019988  65.0180012 121.4514997  27.0119988
  63.8160012 121.3374997  26.0989988  64.4070810 121.8189208  26.5173173
  75.3840012 118.6144997  32.0219988  74.6960012 119.2724997  31.9259988
  75.4000012 118.4174997  32.9579988  75.2918525 118.6780462  32.1354808
  61.4360012 116.9484997  30.5989988  61.2170012 117.4784997  29.8329988
  60.7680012 117.1754997  31.2459988  61.3157600 117.0516906  30.5816379
  68.8050012 126.4484997  24.1429988  68.5090012 126.1264997  23.2919988
  68.4800012 127.3484997  24.1839988  68.7206371 126.5260215  24.0321801
  64.0050012 124.6244997  30.8859988  63.2650012 125.2224997  30.9899988
  64.7190012 125.1784997  30.5709988  64.0002237 124.7812831  30.8576465
  72.1120012 117.4524997  26.9059988  71.8960012 116.6864997  27.4389988
  72.7670012 117.9244997  27.4189988  72.1710632 117.4115889  27.0482861
  61.0290012 118.8404997  28.5509988  61.6430012 119.4734997  28.9249988
  61.5410012 118.3684997  27.8949988  61.1822296 118.8632370  28.5134252
  62.4120012 126.5884997  31.6739988  62.4070012 127.4684997  31.2959988
  61.5590012 126.5054997  32.0989988  62.2959464 126.6976117  31.6797907
  58.5330012 126.2594997  22.4559988  58.2610012 126.4884997  21.5669988
  58.5790012 127.0974997  22.9159988  58.5020094 126.4041213  22.3965697
  72.1580012 127.8814997  29.1679988  71.2170012 127.9394997  29.3299988
  72.4350012 128.7874997  29.0309988  72.0664679 128.0119443  29.1716815
  72.4590012 116.1674997  30.5859988  71.7230012 116.7784997  30.5479988
  73.1420012 116.5824997  30.0589988  72.4506541 116.3071374  30.5095832
  65.4620012 114.2544997  28.0519988  65.3450012 113.3054997  27.9969988
  64.6070012 114.5864997  28.3249988  65.3303733 114.1695409  28.0813897
  70.4100012 129.6624997  25.7939988  70.8360012 128.9554997  25.3089988
  70.7270012 130.4634997  25.3769988  70.5111019 129.6740994  25.6713130
  71.5700012 127.5634997  24.3019988  71.3120012 126.8734997  23.6909988
  71.6410012 127.1204997  25.1479988  71.5442856 127.4092124  24.3326885
  73.2560012 126.1294997  32.7799988  73.3960012 125.5384997  32.0399988
  73.4230012 127.0024997  32.4229988  73.2976778 126.1666426  32.6306965
  67.7290012 123.0914997  22.5519988  67.0170012 123.6264997  22.1999988
  68.4200012 123.1474997  21.8919988  67.7250132 123.1722543  22.4146289
  67.7820012 121.5494997  19.5909988  68.4830012 121.5714997  20.2419988
  68.0850012 120.9214997  18.9349988  67.9187830 121.4676566  19.5913711
  75.0980012 122.4694997  30.8459988  74.4450012 123.1644997  30.9349988
  75.5630012 122.6794997  30.0359988  75.0715390 122.5929425  30.7486883
  71.1340012 123.3014997  23.5039988  70.4020012 123.5294997  24.0769988
  71.5820012 122.5874997  23.9589988  71.0943095 123.2362571  23.6439119
  71.0320012 121.4754997  32.5709988  71.1120012 122.2384997  33.1429988
  70.4300012 121.7544997  31.8809988  70.9615756 121.6177134  32.5560589
  62.7800012 123.9314997  25.3859988  62.4490012 123.5614997  24.5679988
  63.3680012 123.2614997  25.7329988  62.8141873 123.7901156  25.3208102
  64.1460012 127.3594997  28.0679988  64.0520012 126.7814997  27.3109988
  64.8760012 126.9884997  28.5639988  64.2317981 127.2302390  28.0314165
  63.1460012 122.7004997  29.0199988  63.7120012 122.8214997  28.2569988
  63.4650012 123.3374997  29.6589988  63.2665786 122.8031884  29.0020040
  69.4550012 128.2034997  29.7539988  69.2150012 128.8654997  30.4019988
  69.2570012 127.3694997  30.1789988  69.3953808 128.1813134  29.9001524
  64.0260012 127.0994997  33.7369988  63.7150012 127.8814997  34.1919988
  63.3760012 126.9464997  33.0509988  63.8955558 127.1859105  33.7065871
  70.0050012 122.4634997  21.1889988  70.5850012 122.6134997  21.9359988
  70.4190012 122.9344997  20.4659988  70.1402831 122.5476841  21.1934134
  60.9460012 123.2974997  32.9659988  61.0170012 123.9484997  33.6639988
  60.0560012 123.4004997  32.6309988  60.8353117 123.4005936  33.0162700
  67.7320012 129.2004997  24.6239988  68.2060012 129.4954997  25.4019988
  67.1690012 129.9384997  24.3909988  67.7207653 129.3406932  24.6990136
  62.2660012 129.1714997  34.4999988  62.2730012 129.0354997  33.5529988
  61.3500012 129.0534997  34.7519988  62.1431714 129.1369430  34.4044666
  73.7040012 114.2134997  21.0019988  72.8040012 114.3524997  21.2969988
  73.9560012 115.0444997  20.5999988  73.6148702 114.3449074  20.9880205
  61.7700012 123.0014997  22.9759988  61.4780012 123.7694997  22.4849988
  61.0960012 122.3414997  22.8129988  61.6389081 123.0174406  22.8867340
  74.8930012 128.5794997  19.3779988  74.9670012 129.5184997  19.5489988
  75.7990012 128.2744997  19.3219988  75.0255100 128.6666722  19.3938119
  57.8630012 125.3644997  31.7909988  57.3620012 125.3364997  30.9759988
  57.8680012 124.4584997  32.0999988  57.7951526 125.2382278  31.7212872
  57.6130012 128.1444997  28.6749988  58.5590012 128.0004997  28.6559988
  57.5010012 128.9284997  29.2119988  57.7272727 128.2308046  28.7450072
  75.8110012 128.8104997  34.3569988  75.7620012 127.8554997  34.3199988
  74.9840012 129.0784997  34.7579988  75.6924940 128.7158998  34.4061375
  66.7900012 128.3844997  33.2329988  66.8770012 129.2104997  33.7079988
  65.9260012 128.0544997  33.4819988  66.6851964 128.4529878  33.3316549
  67.2040012 132.1564997  23.0389988  67.1290012 132.0354997  22.0929988
  67.2370012 133.1064997  23.1579988  67.1981848 132.2682500  22.9254834
  60.8570012 130.9454997  24.8199988  61.0100012 130.5974997  25.6989988
  60.0070012 130.5894997  24.5649988  60.7628962 130.8496650  24.9058340
  70.3060012 131.3104997  20.0409988  70.6810012 130.5664997  19.5709988
  70.3100012 131.0404997  20.9599988  70.3578915 131.1721486  20.1007824
  69.9750012 131.2364997  22.7909988  69.0390012 131.3364997  22.9689988
  70.2550012 130.5274997  23.3689988  69.8848255 131.1542711  22.8935391
  72.9630012 120.3034997  34.8369988  72.5560012 120.7844997  34.1159988
  73.0040012 119.3984997  34.5289988  72.9128437 120.2469374  34.6966683
  60.1120012 126.6874997  32.8339988  60.3280012 126.3264997  33.6929988
  59.2570012 126.3134997  32.6239988  60.0259292 126.5874111  32.9233386
  62.7310012 115.1574997  28.8289988  61.8690012 115.0704997  28.4219988
  62.7080012 116.0134997  29.2569988  62.6100330 115.2612765  28.8311863
  67.3940012 114.8794997  32.2039988  67.8140012 114.4644997  32.9569988
  66.4610012 114.7014997  32.3209988  67.3253644 114.7985900  32.3229539
  70.7200012 118.6354997  33.0569988  70.2060012 118.5094997  33.8549988
  70.5650012 119.5474997  32.8129988  70.6286852 118.7416132  33.1332158
  71.4830012 123.4964997  18.8189988  71.5250012 123.2734997  17.8889988
  72.3320012 123.8954997  19.0089988  71.6035396 123.5199155  18.7173627
  67.0550012 117.3724997  19.4889988  66.8020012 117.3914997  20.4119988
  66.7990012 116.5004997  19.1879988  66.9857790 117.2572437  19.5746263
  62.8220012 120.1234997  29.9239988  62.1800012 120.0824997  30.6329988
  62.8590012 121.0494997  29.6869988  62.7391324 120.2431559  29.9889824
  62.8190012 120.3444997  24.8359988  61.9260012 120.0034997  24.7779988
  63.2690012 119.9674997  24.0809988  62.7577305 120.2468484  24.7259177
  68.3540012 120.7604997  23.6529988  67.9450012 121.5754997  23.3619988
  69.0750012 120.6204997  23.0389988  68.3954537 120.8532018  23.5301342
  67.4560012 120.9354997  35.1409988  66.8940012 120.2314997  35.4619988
  68.2830012 120.8154997  35.6089988  67.4907095 120.8227883  35.2482330
  69.3590012 120.2064997  26.4669988  69.1640012 120.8114997  25.7519988
  69.5400012 119.3724997  26.0329988  69.3567614 120.1766300  26.3104405
  60.5720012 120.4434997  31.7909988  60.5340012 120.8434997  32.6599988
  60.0810012 119.6264997  31.8819988  60.5004684 120.3878069  31.9221059
  63.9380012 117.8174997  18.5899988  63.5070012 117.3724997  19.3199988
  63.2200012 118.1894997  18.0779988  63.7819438 117.8068940  18.6206799
  57.1800012 117.5594997  25.6419988  57.8110012 117.5304997  26.3609988
  57.6290012 117.1344997  24.9119988  57.3270774 117.4980492  25.6416553
  58.4540012 118.3054997  21.0659988  58.9280012 118.8964997  20.4809988
  57.7370012 118.8364997  21.4129988  58.4219341 118.4580867  21.0328836
  68.6230012 121.8444997  31.1389988  68.9460012 121.2134997  30.4959988
  68.1830012 121.3094997  31.7989988  68.6076895 121.6858440  31.1402850
  65.4000012 117.7714997  25.9229988  64.4890012 117.8284997  26.2109988
  65.9060012 117.7114997  26.7329988  65.3435413 117.7711985  26.0720622
  60.2290012 119.4004997  24.7489988  59.3390012 119.5004997  24.4089988
  60.5250012 118.5584997  24.4029988  60.1472823 119.3003545  24.6557213
  63.8820012 119.4004997  22.4059988  64.8130012 119.5294997  22.5839988
  63.6670012 120.0704997  21.7559988  63.9804247 119.5086565  22.3425747
  69.8050012 117.0064997  29.1869988  69.1290012 117.1374997  29.8509988
  69.3200012 116.8514997  28.3769988  69.6467145 117.0034905  29.1684517
  62.5560012 120.5954997  19.9729988  62.0130012 120.2154997  19.2809988
  63.3890012 120.7894997  19.5439988  62.5944399 120.5698124  19.8204526
  73.0930012 132.6784997  35.4639988  73.2930012 133.1024997  34.6289988
  73.7480012 133.0214997  36.0709988  73.2090051 132.7829648  35.4317836
  60.6910012 125.1524997  35.0719988  61.4230012 125.4064997  35.6329988
  59.9110012 125.3564997  35.5869988  60.6858232 125.2149177  35.2185760
  66.7200012 120.5594997  27.8099988  67.2850012 120.0124997  27.2629988
  66.5730012 120.0374997  28.5979988  66.7772918 120.4142024  27.8418454
  61.7220012 116.6954997  24.2279988  61.4050012 115.7934997  24.1929988
  62.5040012 116.6974997  23.6749988  61.7842284 116.5721628  24.1484783
  65.3470012 118.9474997  30.2239988  64.5110012 119.4014997  30.3339988
  65.8710012 119.2234997  30.9759988  65.3034414 119.0469376  30.3407136
  65.8910012 125.1604997  21.9079988  65.1460012 124.6534997  21.5859988
  65.7570012 125.2094997  22.8549988  65.7708776 125.0976940  21.9918647
  73.0410012 124.2934997  30.6949988  73.6830012 124.7504997  30.1509988
  72.2110012 124.4064997  30.2319988  73.0165963 124.3712704  30.5580177
  69.7890012 117.9744997  20.1079988  68.8500012 118.0864997  19.9559988
  70.0860012 118.8314997  20.4139988  69.7007666 118.1056443  20.1285768
  67.4100012 125.3444997  33.1449988  67.0650012 124.9634997  33.9519988
  67.2100012 126.2784997  33.2169988  67.3358061 125.4185228  33.2650961
  70.5070012 119.8414997  21.7679988  71.3990012 119.7044997  22.0869988
  70.5640012 120.6324997  21.2319988  70.6366285 119.9296660  21.7391691
  61.0160012 124.4554997  27.6779988  61.7610012 124.4534997  27.0769988
  61.0940012 123.6324997  28.1599988  61.1285518 124.3439315  27.6608929
  68.0170012 126.6194997  20.9339988  67.7210012 127.4454997  21.3149988
  67.3140012 125.9994997  21.1299988  67.8814914 126.6488199  21.0126443
  58.0240012 122.9164997  32.9929988  58.2470012 122.4984997  33.8249988
  57.4220012 122.3034997  32.5699988  57.9731759 122.7764668  33.0497022
  65.0400012 122.4334997  35.2059988  64.7440012 122.2674997  34.3109988
  65.9720012 122.2134997  35.1949988  65.1254166 122.3810640  35.0820536
  69.6610012 127.8064997  33.0959988  68.7600012 127.9894997  32.8279988
  69.6950012 128.0654997  34.0169988  69.5423041 127.8665512  33.1838197
  75.3920012 120.0514997  21.4629988  74.8380012 119.6554997  20.7909988
  75.4920012 120.9614997  21.1849988  75.3297059 120.1203586  21.3334401
  75.3550012 125.8514997  34.2999988  74.5040012 126.0894997  33.9329988
  75.9460012 125.8344997  33.5469988  75.3182487 125.8818258  34.1478893
  73.6870012 128.8374997  21.9279988  73.3140012 128.0114997  22.2369988
  73.9650012 128.6544997  21.0309988  73.6735630 128.6997303  21.8489626
  70.8480012 123.6454997  28.9489988  69.9190012 123.4134997  28.9219988
  71.2990012 122.8684997  28.6189988  70.7819216 123.5087238  28.9006917
  63.3910012 127.9734997  25.0819988  63.9180012 128.7464997  24.8819988
  62.5110012 128.1984997  24.7809988  63.3441773 128.1098005  25.0139010
  59.1460012 122.8354997  19.6689988  59.7620012 123.4624997  20.0489988
  58.2840012 123.1514997  19.9409988  59.1137698 122.9639430  19.7577183
  64.8180012 125.6364997  24.6589988  64.5770012 126.5614997  24.6999988
  64.0770012 125.1774997  25.0549988  64.6848409 125.7011421  24.7181377
  65.3330012 129.7854997  30.9739988  65.6950012 130.6404997  30.7399988
  65.8640012 129.4934997  31.7139988  65.4544473 129.8631060  31.0420855
  63.5010012 130.6584997  24.2039988  62.5510012 130.7634997  24.2549988
  63.8530012 131.4784997  24.5489988  63.4184203 130.7838314  24.2576650
  68.8770012 125.8844997  30.6739988  68.4510012 125.6574997  31.5009988
  69.4570012 125.1464997  30.4919988  68.8971868 125.7535299  30.7625830
  71.0800012 126.8134997  19.7479988  71.4330012 126.4334997  20.5529988
  70.1310012 126.7204997  19.8349988  71.0000441 126.7489596  19.8698559
  71.5350012 130.4364997  33.1439988  70.9340012 129.8814997  32.6479988
  71.8170012 131.1034997  32.5179988  71.4908519 130.4506841  32.9914952
  75.5830012 131.2934997  19.9489988  76.3270012 131.8794997  19.8089988
  74.8890012 131.8614997  20.2829988  75.5910292 131.4505582  19.9749961
  59.6580012 117.6694997  32.5509988  58.7650012 118.0084997  32.4829988
  59.5590012 116.8144997  32.9689988  59.5224164 117.6002588  32.5982235
  71.9460012 125.4864997  21.9749988  71.6680012 124.7584997  22.5309988
  72.8730012 125.6054997  22.1799988  72.0333124 125.4028802  22.0788845
  59.3090012 129.4744997  30.9859988  59.5260012 128.5424997  30.9549988
  59.5550012 129.7484997  31.8689988  59.3719549 129.3840636  31.1011763
  65.1710012 127.9254997  18.1949988  65.4100012 127.1774997  17.6479988
  64.9020012 127.5374997  19.0279988  65.1673675 127.7706638  18.2326865
  64.1080012 127.4954997  20.6519988  64.2540012 126.9754997  21.4419988
  64.1050012 128.4024997  20.9579988  64.1275989 127.5468853  20.8016088
  60.5610012 124.7484997  21.1619988  59.8750012 125.1004997  21.7289988
  61.0830012 125.5114997  20.9149988  60.5376852 124.8998578  21.2062118
  68.3920012 117.4104997  31.4409988  69.0910012 117.4844997  32.0909988
  68.0110012 116.5464997  31.5949988  68.4361767 117.3037624  31.5508322
  69.1770012 117.0624997  22.5379988  69.3970012 117.5344997  21.7349988
  69.7350012 117.4574997  23.2079988  69.2824968 117.1804285  22.5187331
  66.8450012 129.1934997  21.4009988  66.0290012 129.6904997  21.4529988
  67.3750012 129.6684997  20.7609988  66.8049161 129.3257722  21.3215956
  66.3770012 118.7904997  23.3729988  67.1890012 119.2954997  23.4189988
  66.1320012 118.6454997  24.2869988  66.4550520 118.8400375  23.5028517
  66.9120012 119.7764997  32.5579988  67.0310012 120.3504997  33.3149988
  67.5680012 119.0884997  32.6719988  67.0169757 119.7621079  32.6770825
  67.2600012 115.8714997  24.3109988  66.9140012 116.4894997  24.9559988
  67.9190012 116.3724997  23.8299988  67.3017826 116.0235802  24.3340971
  64.1840012 130.2374997  21.3829988  64.3440012 131.0364997  20.8819988
  63.9860012 130.5434997  22.2679988  64.1791649 130.3884469  21.4339815
  62.9180012 116.9344997  20.9979988  62.8350012 117.8234997  21.3449988
  63.8080012 116.6694997  21.2299988  63.0269469 117.0201430  21.0767626
  73.1170012 117.6834997  33.3929988  72.2000012 117.9464997  33.3049988
  73.4520012 117.6804997  32.4959988  73.0369900 117.7190224  33.2597919
  71.7190012 121.4344997  27.4879988  70.9210012 121.0194997  27.1599988
  72.1640012 120.7434997  27.9789988  71.6699885 121.2843543  27.5094889
  61.1770012 127.3624997  20.0589988  61.7690012 128.0614997  20.3349988
  61.6360012 126.9294997  19.3389988  61.3201142 127.3997049  19.9994830
  59.4930012 120.0264997  19.1749988  59.4480012 120.9654997  19.3529988
  58.6050012 119.7904997  18.9049988  59.3668574 120.1231892  19.1628912
  72.8050012 130.6904997  29.1109988  72.6500012 131.3684997  28.4539988
  73.7380012 130.7624997  29.3139988  72.9098500 130.7930170  29.0485119
  60.3010012 114.8084997  27.8479988  60.0720012 114.8674997  26.9199988
  59.8580012 114.0164997  28.1539988  60.2098530 114.7095753  27.7624786
  59.2310012 128.7484997  24.0079988  58.3990012 129.2214997  24.0359988
  59.7770012 129.2584997  23.4099988  59.1909739 128.8821871  23.9309716
  58.5190012 131.3614997  35.3379988  59.0600012 131.1444997  36.0979988
  58.0380012 130.5554997  35.1489988  58.5279345 131.2229514  35.4163076
  63.1170012 130.2804997  36.9589988  63.8840012 129.8214997  37.2999988
  63.0950012 130.0544997  36.0289988  63.2191434 130.1870409  36.8800043
  67.2090012 129.7884997  18.3339988  66.5650012 129.1574997  18.6549988
  67.9710012 129.2574997  18.1019988  67.2238077 129.6302920  18.3466011
  69.6940012 128.6604997  35.6879988  69.3430012 127.8044997  35.9309988
  70.4200012 128.8034997  36.2949988  69.7440769 128.5625636  35.8033619
  71.8130012 129.6054997  18.5679988  72.0960012 128.8114997  19.0199988
  72.5530012 129.8384997  18.0069988  71.9517486 129.5282803  18.5540698
  58.4260012 125.1714997  36.2929988  58.5700012 124.2694997  36.0059988
  57.6540012 125.4574997  35.8049988  58.3413322 125.0868261  36.1877881
  62.7680012 125.5154997  18.4249988  62.8320012 124.7214997  18.9559988
  63.4210012 125.3964997  17.7349988  62.8650241 125.3907148  18.4044317
  65.0820012 125.1414997  35.7249988  64.7530012 125.4124997  34.8679988
  65.2340012 124.2004997  35.6379988  65.0574809 125.0513862  35.5958244
  68.1200012 126.5624997  18.1609988  67.8510012 126.7424997  19.0619988
  67.9140012 125.6364997  18.0299988  68.0553825 126.4620152  18.2665214
  70.8160012 125.0574997  33.1089988  71.5620012 125.6454997  32.9889988
  70.0590012 125.6394997  33.1719988  70.8157554 125.2167011  33.1010907
  59.2590012 122.3714997  35.7129988  59.6670012 121.5144997  35.5919988
  58.9990012 122.3864997  36.6339988  59.2797568 122.2560807  35.8209588
  63.9170012 123.4874997  20.7309988  63.4570012 123.0034997  21.4169988
  64.1720012 122.8194997  20.0949988  63.8884902 123.3308731  20.7389334
  63.2060012 121.3804997  33.0869988  62.5880012 122.0554997  33.3669988
  63.5500012 121.7014997  32.2539988  63.1679615 121.5162721  33.0126581
  64.9880012 121.7304997  18.9929988  64.8080012 121.5764997  18.0659988
  65.9380012 121.8384997  19.0379988  65.0917776 121.7240175  18.8721843
  68.2260012 123.8524997  36.3639988  69.1790012 123.9354997  36.3369988
  68.0650012 123.1404997  36.9839988  68.3346426 123.7676746  36.4440579
  74.3780012 124.0854997  18.4389988  74.1040012 123.6604997  17.6259988
  74.4170012 125.0164997  18.2219988  74.3457699 124.1532484  18.2983610
  63.5450012 118.7354997  34.1689988  63.6950012 118.0064997  33.5669988
  63.5480012 119.5124997  33.6099988  63.5659302 118.7407851  34.0110692
  63.9580012 117.1054997  31.6619988  64.4940012 117.5564997  31.0099988
  63.1060012 116.9974997  31.2389988  63.9162178 117.1526390  31.5155756
  65.5400012 122.5444997  31.9009988  66.2900012 122.3884997  31.3279988
  65.2010012 123.3964997  31.6259988  65.5968921 122.6382968  31.7853561
  69.9550012 120.3594997  36.9299988  70.1480012 119.4284997  36.8179988
  70.8130012 120.7844997  36.9199988  70.0973020 120.2896389  36.9133361
  71.2720012 123.1484997  35.0069988  70.9910012 123.8574997  34.4299988
  72.2150012 123.0754997  34.8559988  71.3609027 123.2357646  34.9075551
  62.0240012 119.9334997  36.0809988  61.2570012 119.4014997  35.8709988
  62.7030012 119.6234997  35.4809988  62.0107022 119.8187506  35.9711648
  64.7640012 114.5614997  32.0929988  64.6650012 115.5084997  31.9879988
  64.0210012 114.1894997  31.6179988  64.6500564 114.6405902  32.0144560
  66.0280012 118.8834997  35.6569988  65.7920012 118.6634997  36.5589988
  65.2440012 118.6764997  35.1469988  65.8898628 118.8254760  35.7113932
  68.7430012 118.0104997  34.7329988  67.7960012 118.0424997  34.8649988
  69.0560012 117.3854997  35.3859988  68.6555475 117.9303207  34.8394455
  70.3770012 116.6444997  36.7379988  70.2810012 115.6924997  36.7319988
  70.0560012 116.9134997  37.5979988  70.3204070 116.5504035  36.8535441
  60.2040012 117.8544997  35.7849988  60.4160012 117.1474997  35.1749988
  60.0930012 117.4164997  36.6289988  60.2179721 117.6987084  35.8156843
  64.9850012 113.8554997  34.7649988  65.6970012 113.2154997  34.7509988
  64.8840012 114.1224997  33.8509988  65.0687939 113.8039938  34.6395650
  65.3390012 115.5384997  36.8179988  65.2070012 115.0624997  35.9979988
  64.7400012 116.2824997  36.7629988  65.2399071 115.5739618  36.6982886
  64.8850012 132.4214997  19.9949988  65.8180012 132.5794997  20.1379988
  64.6210012 133.0964997  19.3699988  64.9769510 132.5343611  19.9300741
  58.4540012 127.0574997  19.4769988  59.3680012 127.1364997  19.7509988
  58.4610012 126.3704997  18.8109988  58.5801131 126.9753961  19.4244393
  57.1030012 132.4504997  24.5549988  56.4560012 131.9884997  24.0219988
  57.4570012 131.7784997  25.1369988  57.0623849 132.2964723  24.5607959
  57.9730012 130.5314997  26.3589988  57.6380012 129.6514997  26.5309988
  58.1950012 130.8764997  27.2239988  57.9571783 130.4577500  26.4994208
  75.5210012 131.3404997  29.3399988  75.5000012 131.5254997  30.2789988
  76.2120012 131.9094997  28.9989988  75.6114618 131.4426606  29.4223864
  75.0850012 130.9084997  32.2619988  74.5970012 130.1724997  31.8909988
  75.6340012 130.5144997  32.9399988  75.0924872 130.7546249  32.3029160
  73.5350012 126.6974997  36.8999988  72.6690012 126.5924997  37.2939988
  73.9120012 127.4564997  37.3459988  73.4673308 126.7856900  37.0142393
  74.8360012 124.9544997  22.4139988  75.6860012 125.3754997  22.5409988
  74.8420012 124.2144997  23.0209988  74.9531372 124.9120803  22.5134344
  75.2310012 123.0074997  24.2379988  74.5040012 122.5284997  24.6349988
  75.8120012 123.2134997  24.9699988  75.2099375 122.9697090  24.3914129
  74.9900012 125.7924997  29.1849988  75.8230012 125.4144997  28.9049988
  75.1020012 126.7354997  29.0659988  75.1192647 125.8682218  29.1305487
  73.4760012 128.6704997  31.4919988  72.8290012 128.9954997  32.1179988
  72.9590012 128.2304997  30.8179988  73.3174029 128.6555004  31.4865827
  75.4990012 122.9084997  20.6289988  74.9770012 123.2654997  19.9099988
  75.4660012 123.5834997  21.3069988  75.4231634 123.0485413  20.6223145
  73.8480012 120.1484997  19.1799988  73.9440012 120.8154997  18.4989988
  73.7080012 119.3324997  18.6979988  73.8422135 120.1294500  19.0218491
  73.0170012 121.5284997  24.8009988  72.8670012 120.5834997  24.7799988
  72.6640012 121.8094997  25.6439988  72.9486625 121.4370441  24.9122346
  58.0530012 123.6064997  28.8109988  58.2370012 123.5244997  27.8749988
  58.9020012 123.4824997  29.2349988  58.1930139 123.5785003  28.7401455
  73.8740012 123.4984997  34.4389988  74.4570012 122.7644997  34.6309988
  74.4380012 124.2704997  34.4859988  74.0299769 123.5024227  34.4716159
  75.3700012 121.4014997  35.1239988  74.5070012 121.0224997  34.9579988
  75.9750012 120.6624997  35.0499988  75.3335979 121.2498023  35.0912817
  73.0950012 117.5564997  18.2969988  73.7060012 117.1854997  18.9339988
  72.2590012 117.1354997  18.4929988  73.0655032 117.4487554  18.4107035
  72.7280012 119.1114997  23.2629988  73.0080012 118.2044997  23.3869988
  73.4870012 119.5454997  22.8739988  72.8689277 119.0460942  23.2273682
  73.3400012 119.6924997  28.6989988  74.2730012 119.9044997  28.6649988
  73.1050012 119.7944997  29.6209988  73.4358036 119.7352769  28.8189976
  73.3690012 120.4294997  31.4749988  72.5260012 120.6974997  31.8409988
  73.8110012 121.2514997  31.2639988  73.3134158 120.5773291  31.4965491
  57.6500012 118.8774997  34.9519988  58.5700012 118.7554997  35.1879988
  57.2010012 118.1274997  35.3409988  57.7151580 118.7593727  35.0369006
  75.6520012 114.4094997  36.8279988  76.0020012 113.7554997  36.2229988
  75.7990012 115.2464997  36.3889988  75.7198419 114.4331591  36.6857118
  73.3410012 116.3744997  23.3109988  73.5240012 115.9254997  24.1369988
  72.7420012 115.7894997  22.8479988  73.2850202 116.2339975  23.3613275
  58.8710012 117.1894997  27.8429988  59.3170012 116.3974997  28.1449988
  59.3380012 117.9054997  28.2739988  58.9950172 117.1780624  27.9424820
  57.1750012 120.1884997  28.9119988  57.6670012 119.9674997  28.1209988
  57.5380012 121.0294997  29.1929988  57.2913126 120.2718357  28.8417531
  75.1720012 116.5184997  35.1779988  74.2540012 116.7894997  35.1419988
  75.2950012 115.9834997  34.3929988  75.0631066 116.4832892  35.0670487
  75.2080012 116.4414997  19.8389988  75.6200012 115.7204997  19.3639988
  75.8900012 117.1114997  19.8979988  75.3565885 116.4332368  19.7818915
  57.4890012 116.4464997  22.9659988  56.5640012 116.6554997  22.8369988
  57.9430012 116.9304997  22.2769988  57.4237368 116.5405993  22.8551226
  72.2600012 131.4304997  24.9119988  72.9120012 131.0834997  24.3039988
  72.7700012 131.9194997  25.5579988  72.4182637 131.4490597  24.9160236
  57.4530012 115.1844997  31.3109988  56.7880012 114.9384997  31.9539988
  57.0100012 115.8064997  30.7329988  57.3020956 115.2348632  31.3209352
  59.6450012 128.3594997  35.4549988  58.8240012 128.5344997  34.9949988
  59.3920012 128.2864997  36.3759988  59.4986164 128.3735622  35.5164923
  62.5990012 129.3344997  31.7139988  62.1740012 130.1434997  31.4309988
  63.5030012 129.4194997  31.4119988  62.6630271 129.4568469  31.6343776
  66.9100012 130.7334997  34.6729988  67.0950012 130.3994997  35.5509988
  67.7560012 131.0424997  34.3509988  67.0497539 130.7296047  34.7495605
  69.2550012 132.0194997  33.9169988  69.9320012 131.3864997  33.6769988
  69.5770012 132.4204997  34.7239988  69.3911637 131.9871154  33.9932793
  74.1720012 114.6084997  32.9969988  73.3600012 114.9334997  32.6089988
  74.4050012 113.8484997  32.4639988  74.0923423 114.5502436  32.8718253
  60.0010012 132.5904997  31.7609988  59.2800012 133.0304997  31.3099988
  59.6350012 132.3394997  32.6099988  59.8529804 132.6167698  31.8139840
  62.4680012 132.1904997  30.7909988  61.6030012 132.2624997  31.1949988
  62.4130012 132.7374997  30.0069988  62.3422085 132.2742685  30.7403362
  67.1780012 132.0784997  29.9659988  66.7220012 132.6074997  29.3119988
  67.3410012 132.6814997  30.6919988  67.1375585 132.2324468  29.9745062
  69.5060012 130.9564997  30.9109988  68.6010012 131.1214997  30.6459988
  69.9350012 131.8094997  30.8459988  69.4400799 131.0944483  30.8659182
  72.1100012 132.5264997  31.2059988  71.9280012 133.4424997  30.9959988
  72.2870012 132.1164997  30.3599988  72.1090210 132.5964822  31.0627885
  59.4150012 131.2134997  28.6709988  59.3970012 130.7884997  29.5289988
  60.2200012 130.8954997  28.2629988  59.5213875 131.1123812  28.7331655
  61.5570012 129.9234997  27.3259988  61.3380012 129.0074997  27.4959988
  62.3810012 130.0634997  27.7919988  61.6384420 129.8170520  27.4122774
  64.0940012 130.3934997  28.1749988  64.3070012 129.5054997  27.8879988
  64.1580012 130.3594997  29.1289988  64.1318232 130.2673102  28.2647397
  67.6020012 116.0574997  27.3189988  66.9280012 115.4284997  27.5749988
  68.1660012 115.5734997  26.7159988  67.5859230 115.9058744  27.2725340
  72.7450012 114.1654997  27.4319988  73.3490012 114.7124997  26.9299988
  71.8750012 114.4844997  27.1919988  72.7101241 114.2835806  27.3307654
  74.4720012 115.3034997  25.7649988  75.0840012 114.7894997  25.2389988
  74.8540012 116.1814997  25.7889988  74.6074540 115.3517140  25.6961830
  59.9290012 114.6914997  25.1409988  59.1520012 114.4574997  24.6339988
  60.4590012 113.8944997  25.1499988  59.8942330 114.5516988  25.0727742
  58.7650012 114.4894997  20.9449988  59.2040012 115.1004997  20.3529988
  58.1320012 115.0274997  21.4189988  58.7394514 114.6459257  20.9280930
  64.5080012 114.6184997  24.9549988  65.3830012 115.0064997  24.9249988
  64.3720012 114.4034997  25.8769988  64.6093695 114.6425184  25.0756440
  70.0650012 114.6484997  26.6039988  70.1410012 114.7434997  25.6539988
  69.7900012 113.7404997  26.7329988  70.0382321 114.5387867  26.4915079
  71.4180012 114.6744997  22.2959988  70.7160012 115.2894997  22.0869988
  70.9740012 113.8364997  22.4269988  71.2616330 114.6455783  22.2850328
  58.6660012 130.4374997  21.8429988  57.9810012 130.3994997  21.1749988
  58.6700012 131.3504997  22.1309988  58.5728193 130.5557016  21.7905284
  60.6260012 116.4054997  19.3869988  61.1180012 115.7754997  18.8599988
  61.2500012 116.7014997  20.0509988  60.7775446 116.3593199  19.4045980
  65.6520012 116.6984997  21.8439988  65.8300012 116.0524997  22.5269988
  65.5990012 117.5324997  22.3119988  65.6691829 116.7227985  22.0005940
  67.5310012 131.6474997  20.2399988  68.3970012 132.0134997  20.0619988
  67.2840012 131.2074997  19.4259988  67.6162392 131.6381756  20.1056289
  74.2400012 131.2104997  22.9189988  74.0450012 130.4624997  22.3539988
  74.2010012 131.9684997  22.3359988  74.2080380 131.2106099  22.7628384
  59.8870012 115.2054997  34.6589988  59.5210012 114.4404997  35.1019988
  60.8000012 115.2344997  34.9459988  59.9602790 115.1047224  34.7584070
  61.8600012 114.5564997  36.1949988  62.7580012 114.2824997  36.0099988
  61.4730012 113.8134997  36.6589988  61.9306612 114.4185914  36.2323643
  60.4840012 131.3574997  18.8679988  60.2170012 131.6444997  19.7409988
  61.2560012 130.8114997  19.0199988  60.5517488 131.3230294  19.0081050
  70.2810012 113.8884997  36.3769988  70.3580012 113.4624997  37.2309988
  71.1750012 113.9024997  36.0339988  70.4123428 113.8320879  36.4475310
  73.4570012 129.9614997  35.0689988  72.6750012 129.7754997  34.5499988
  73.3850012 130.8904997  35.2869988  73.3401777 130.0616492  35.0274048
  87.8630012 123.8474997  25.0999988  87.9520012 124.7914997  24.9679988
  87.2250012 123.5724997  24.4419988  87.7889081 123.9394830  24.9929614
  86.7960012 123.1024997  28.5189988  86.7580012 122.4564997  29.2239988
  86.4740012 122.6364997  27.7479988  86.7472333 122.9509408  28.5112978
  79.1650012 122.7174997  30.1119988  79.2060012 122.0914997  30.8349988
  79.8680012 123.3414997  30.2939988  79.2656363 122.7161196  30.2356044
  90.5020012 126.0414997  26.8199988  90.0620012 125.3214997  27.2709988
  90.4890012 126.7624997  27.4499988  90.4400226 126.0403731  26.9668494
  80.0880012 127.1674997  28.6469988  79.7190012 126.3654997  28.2769988
  81.0290012 126.9984997  28.6929988  80.1647289 127.0350153  28.6026316
  76.6980012 120.8274997  24.0399988  76.2510012 121.6734997  24.0209988
  76.1370012 120.2474997  23.5239988  76.5609900 120.8649916  23.9676801
  77.4090012 122.9894997  26.1659988  77.6220012 122.2194997  26.6929988
  78.1470012 123.0784997  25.5619988  77.5378496 122.8961394  26.1565300
  87.6140012 131.1464997  27.0329988  88.2340012 130.4694997  26.7589988
  87.4060012 130.9284997  27.9409988  87.6706904 131.0243870  27.1183365
  85.1860012 125.5354997  28.9249988  85.4900012 124.8494997  28.3299988
  85.9070012 125.6534997  29.5429988  85.3250671 125.4576305  28.9271816
  93.8490012 117.1364997  29.7859988  93.8980012 117.7464997  30.5219988
  94.2740012 117.5974997  29.0629988  93.9131824 117.2823741  29.7890205
  88.3270012 119.9294997  29.2529988  88.4690012 118.9834997  29.2729988
  88.2200012 120.1364997  28.3239988  88.3319864 119.8279534  29.1302339
  81.4810012 118.0304997  26.5249988  81.5250012 118.8904997  26.1069988
  81.0240012 117.4784997  25.8909988  81.4252185 118.0735799  26.3820299
  89.2040012 118.1614997  24.9259988  89.8500012 117.8324997  25.5509988
  89.7140012 118.6794997  24.3029988  89.3614264 118.1864611  24.9273862
  78.1020012 120.4274997  27.2869988  78.7550012 119.8774997  27.7189988
  78.1260012 120.1534997  26.3699988  78.1946683 120.3151466  27.2222123
  83.2580012 121.9774997  26.5019988  83.8740012 121.4514997  27.0119988
  82.6720012 121.3374997  26.0989988  83.2630810 121.8189208  26.5173173
  94.2400012 118.6144997  32.0219988  93.5520012 119.2724997  31.9259988
  94.2560012 118.4174997  32.9579988  94.1478525 118.6780462  32.1354808
  80.2920012 116.9484997  30.5989988  80.0730012 117.4784997  29.8329988
  79.6240012 117.1754997  31.2459988  80.1717600 117.0516906  30.5816379
  87.6610012 126.4484997  24.1429988  87.3650012 126.1264997  23.2919988
  87.3360012 127.3484997  24.1839988  87.5766371 126.5260215  24.0321801
  82.8610012 124.6244997  30.8859988  82.1210012 125.2224997  30.9899988
  83.5750012 125.1784997  30.5709988  82.8562237 124.7812831  30.8576465
  90.9680012 117.4524997  26.9059988  90.7520012 116.6864997  27.4389988
  91.6230012 117.9244997  27.4189988  91.0270632 117.4115889  27.0482861
  79.8850012 118.8404997  28.5509988  80.4990012 119.4734997  28.9249988
  80.3970012 118.3684997  27.8949988  80.0382296 118.8632370  28.5134252
  81.2680012 126.5884997  31.6739988  81.2630012 127.4684997  31.2959988
  80.4150012 126.5054997  32.0989988  81.1519464 126.6976117  31.6797907
  77.3890012 126.2594997  22.4559988  77.1170012 126.4884997  21.5669988
  77.4350012 127.0974997  22.9159988  77.3580094 126.4041213  22.3965697
  91.0140012 127.8814997  29.1679988  90.0730012 127.9394997  29.3299988
  91.2910012 128.7874997  29.0309988  90.9224679 128.0119443  29.1716815
  91.3150012 116.1674997  30.5859988  90.5790012 116.7784997  30.5479988
  91.9980012 116.5824997  30.0589988  91.3066541 116.3071374  30.5095832
  84.3180012 114.2544997  28.0519988  84.2010012 113.3054997  27.9969988
  83.4630012 114.5864997  28.3249988  84.1863733 114.1695409  28.0813897
  89.2660012 129.6624997  25.7939988  89.6920012 128.9554997  25.3089988
  89.5830012 130.4634997  25.3769988  89.3671019 129.6740994  25.6713130
  90.4260012 127.5634997  24.3019988  90.1680012 126.8734997  23.6909988
  90.4970012 127.1204997  25.1479988  90.4002856 127.4092124  24.3326885
  92.1120012 126.1294997  32.7799988  92.2520012 125.5384997  32.0399988
  92.2790012 127.0024997  32.4229988  92.1536778 126.1666426  32.6306965
  86.5850012 123.0914997  22.5519988  85.8730012 123.6264997  22.1999988
  87.2760012 123.1474997  21.8919988  86.5810132 123.1722543  22.4146289
  86.6380012 121.5494997  19.5909988  87.3390012 121.5714997  20.2419988
  86.9410012 120.9214997  18.9349988  86.7747830 121.4676566  19.5913711
  93.9540012 122.4694997  30.8459988  93.3010012 123.1644997  30.9349988
  94.4190012 122.6794997  30.0359988  93.9275390 122.5929425  30.7486883
  89.9900012 123.3014997  23.5039988  89.2580012 123.5294997  24.0769988
  90.4380012 122.5874997  23.9589988  89.9503095 123.2362571  23.6439119
  89.8880012 121.4754997  32.5709988  89.9680012 122.2384997  33.1429988
  89.2860012 121.7544997  31.8809988  89.8175756 121.6177134  32.5560589
  81.6360012 123.9314997  25.3859988  81.3050012 123.5614997  24.5679988
  82.2240012 123.2614997  25.7329988  81.6701873 123.7901156  25.3208102
  83.0020012 127.3594997  28.0679988  82.9080012 126.7814997  27.3109988
  83.7320012 126.9884997  28.5639988  83.0877981 127.2302390  28.0314165
  82.0020012 122.7004997  29.0199988  82.5680012 122.8214997  28.2569988
  82.3210012 123.3374997  29.6589988  82.1225786 122.8031884  29.0020040
  88.3110012 128.2034997  29.7539988  88.0710012 128.8654997  30.4019988
  88.1130012 127.3694997  30.1789988  88.2513808 128.1813134  29.9001524
  82.8820012 127.0994997  33.7369988  82.5710012 127.8814997  34.1919988
  82.2320012 126.9464997  33.0509988  82.7515558 127.1859105  33.7065871
  88.8610012 122.4634997  21.1889988  89.4410012 122.6134997  21.9359988
  89.2750012 122.9344997  20.4659988  88.9962830 122.5476841  21.1934134
  79.8020012 123.2974997  32.9659988  79.8730012 123.9484997  33.6639988
  78.9120012 123.4004997  32.6309988  79.6913117 123.4005936  33.0162700
  86.5880012 129.2004997  24.6239988  87.0620012 129.4954997  25.4019988
  86.0250012 129.9384997  24.3909988  86.5767653 129.3406932  24.6990136
  81.1220012 129.1714997  34.4999988  81.1290012 129.0354997  33.5529988
  80.2060012 129.0534997  34.7519988  80.9991714 129.1369430  34.4044666
  92.5600012 114.2134997  21.0019988  91.6600012 114.3524997  21.2969988
  92.8120012 115.0444997  20.5999988  92.4708702 114.3449074  20.9880205
  80.6260012 123.0014997  22.9759988  80.3340012 123.7694997  22.4849988
  79.9520012 122.3414997  22.8129988  80.4949081 123.0174406  22.8867340
  93.7490012 128.5794997  19.3779988  93.8230012 129.5184997  19.5489988
  94.6550012 128.2744997  19.3219988  93.8815100 128.6666722  19.3938119
  76.7190012 125.3644997  31.7909988  76.2180012 125.3364997  30.9759988
  76.7240012 124.4584997  32.0999988  76.6511526 125.2382278  31.7212872
  76.4690012 128.1444997  28.6749988  77.4150012 128.0004997  28.6559988
  76.3570012 128.9284997  29.2119988  76.5832727 128.2308046  28.7450072
  94.6670012 128.8104997  34.3569988  94.6180012 127.8554997  34.3199988
  93.8400012 129.0784997  34.7579988  94.5484940 128.7158998  34.4061375
  85.6460012 128.3844997  33.2329988  85.7330012 129.2104997  33.7079988
  84.7820012 128.0544997  33.4819988  85.5411964 128.4529878  33.3316549
  86.0600012 132.1564997  23.0389988  85.9850012 132.0354997  22.0929988
  86.0930012 133.1064997  23.1579988  86.0541848 132.2682500  22.9254834
  79.7130012 130.9454997  24.8199988  79.8660012 130.5974997  25.6989988
  78.8630012 130.5894997  24.5649988  79.6188962 130.8496650  24.9058340
  89.1620012 131.3104997  20.0409988  89.5370012 130.5664997  19.5709988
  89.1660012 131.0404997  20.9599988  89.2138915 131.1721486  20.1007824
  88.8310012 131.2364997  22.7909988  87.8950012 131.3364997  22.9689988
  89.1110012 130.5274997  23.3689988  88.7408255 131.1542711  22.8935391
  91.8190012 120.3034997  34.8369988  91.4120012 120.7844997  34.1159988
  91.8600012 119.3984997  34.5289988  91.7688437 120.2469374  34.6966683
  78.9680012 126.6874997  32.8339988  79.1840012 126.3264997  33.6929988
  78.1130012 126.3134997  32.6239988  78.8819292 126.5874111  32.9233386
  81.5870012 115.1574997  28.8289988  80.7250012 115.0704997  28.4219988
  81.5640012 116.0134997  29.2569988  81.4660330 115.2612765  28.8311863
  86.2500012 114.8794997  32.2039988  86.6700012 114.4644997  32.9569988
  85.3170012 114.7014997  32.3209988  86.1813644 114.7985900  32.3229539
  89.5760012 118.6354997  33.0569988  89.0620012 118.5094997  33.8549988
  89.4210012 119.5474997  32.8129988  89.4846852 118.7416132  33.1332158
  90.3390012 123.4964997  18.8189988  90.3810012 123.2734997  17.8889988
  91.1880012 123.8954997  19.0089988  90.4595396 123.5199155  18.7173627
  85.9110012 117.3724997  19.4889988  85.6580012 117.3914997  20.4119988
  85.6550012 116.5004997  19.1879988  85.8417790 117.2572437  19.5746263
  81.6780012 120.1234997  29.9239988  81.0360012 120.0824997  30.6329988
  81.7150012 121.0494997  29.6869988  81.5951324 120.2431559  29.9889824
  81.6750012 120.3444997  24.8359988  80.7820012 120.0034997  24.7779988
  82.1250012 119.9674997  24.0809988  81.6137305 120.2468484  24.7259177
  87.2100012 120.7604997  23.6529988  86.8010012 121.5754997  23.3619988
  87.9310012 120.6204997  23.0389988  87.2514537 120.8532018  23.5301342
  86.3120012 120.9354997  35.1409988  85.7500012 120.2314997  35.4619988
  87.1390012 120.8154997  35.6089988  86.3467095 120.8227883  35.2482330
  88.2150012 120.2064997  26.4669988  88.0200012 120.8114997  25.7519988
  88.3960012 119.3724997  26.0329988  88.2127614 120.1766300  26.3104405
  79.4280012 120.4434997  31.7909988  79.3900012 120.8434997  32.6599988
  78.9370012 119.6264997  31.8819988  79.3564684 120.3878069  31.9221059
  82.7940012 117.8174997  18.5899988  82.3630012 117.3724997  19.3199988
  82.0760012 118.1894997  18.0779988  82.6379438 117.8068940  18.6206799
  76.0360012 117.5594997  25.6419988  76.6670012 117.5304997  26.3609988
  76.4850012 117.1344997  24.9119988  76.1830774 117.4980492  25.6416553
  77.3100012 118.3054997  21.0659988  77.7840012 118.8964997  20.4809988
  76.5930012 118.8364997  21.4129988  77.2779341 118.4580867  21.0328836
  87.4790012 121.8444997  31.1389988  87.8020012 121.2134997  30.4959988
  87.0390012 121.3094997  31.7989988  87.4636895 121.6858441  31.1402850
  84.2560012 117.7714997  25.9229988  83.3450012 117.8284997  26.2109988
  84.7620012 117.7114997  26.7329988  84.1995413 117.7711985  26.0720622
  79.0850012 119.4004997  24.7489988  78.1950012 119.5004997  24.4089988
  79.3810012 118.5584997  24.4029988  79.0032823 119.3003545  24.6557213
  82.7380012 119.4004997  22.4059988  83.6690012 119.5294997  22.5839988
  82.5230012 120.0704997  21.7559988  82.8364247 119.5086565  22.3425747
  88.6610012 117.0064997  29.1869988  87.9850012 117.1374997  29.8509988
  88.1760012 116.8514997  28.3769988  88.5027145 117.0034905  29.1684517
  81.4120012 120.5954997  19.9729988  80.8690012 120.2154997  19.2809988
  82.2450012 120.7894997  19.5439988  81.4504399 120.5698124  19.8204526
  91.9490012 132.6784997  35.4639988  92.1490012 133.1024997  34.6289988
  92.6040012 133.0214997  36.0709988  92.0650051 132.7829648  35.4317836
  79.5470012 125.1524997  35.0719988  80.2790012 125.4064997  35.6329988
  78.7670012 125.3564997  35.5869988  79.5418232 125.2149177  35.2185760
  85.5760012 120.5594997  27.8099988  86.1410012 120.0124997  27.2629988
  85.4290012 120.0374997  28.5979988  85.6332918 120.4142024  27.8418454
  80.5780012 116.6954997  24.2279988  80.2610012 115.7934997  24.1929988
  81.3600012 116.6974997  23.6749988  80.6402284 116.5721628  24.1484783
  84.2030012 118.9474997  30.2239988  83.3670012 119.4014997  30.3339988
  84.7270012 119.2234997  30.9759988  84.1594414 119.0469376  30.3407136
  84.7470012 125.1604997  21.9079988  84.0020012 124.6534997  21.5859988
  84.6130012 125.2094997  22.8549988  84.6268776 125.0976940  21.9918647
  91.8970012 124.2934997  30.6949988  92.5390012 124.7504997  30.1509988
  91.0670012 124.4064997  30.2319988  91.8725963 124.3712704  30.5580177
  88.6450012 117.9744997  20.1079988  87.7060012 118.0864997  19.9559988
  88.9420012 118.8314997  20.4139988  88.5567666 118.1056443  20.1285768
  86.2660012 125.3444997  33.1449988  85.9210012 124.9634997  33.9519988
  86.0660012 126.2784997  33.2169988  86.1918061 125.4185228  33.2650961
  89.3630012 119.8414997  21.7679988  90.2550012 119.7044997  22.0869988
  89.4200012 120.6324997  21.2319988  89.4926285 119.9296660  21.7391691
  79.8720012 124.4554997  27.6779988  80.6170012 124.4534997  27.0769988
  79.9500012 123.6324997  28.1599988  79.9845518 124.3439315  27.6608929
  86.8730012 126.6194997  20.9339988  86.5770012 127.4454997  21.3149988
  86.1700012 125.9994997  21.1299988  86.7374914 126.6488199  21.0126443
  76.8800012 122.9164997  32.9929988  77.1030012 122.4984997  33.8249988
  76.2780012 122.3034997  32.5699988  76.8291759 122.7764668  33.0497022
  83.8960012 122.4334997  35.2059988  83.6000012 122.2674997  34.3109988
  84.8280012 122.2134997  35.1949988  83.9814166 122.3810640  35.0820536
  88.5170012 127.8064997  33.0959988  87.6160012 127.9894997  32.8279988
  88.5510012 128.0654997  34.0169988  88.3983041 127.8665512  33.1838197
  94.2480012 120.0514997  21.4629988  93.6940012 119.6554997  20.7909988
  94.3480012 120.9614997  21.1849988  94.1857059 120.1203586  21.3334401
  94.2110012 125.8514997  34.2999988  93.3600012 126.0894997  33.9329988
  94.8020012 125.8344997  33.5469988  94.1742487 125.8818258  34.1478893
  92.5430012 128.8374997  21.9279988  92.1700012 128.0114997  22.2369988
  92.8210012 128.6544997  21.0309988  92.5295630 128.6997303  21.8489626
  89.7040012 123.6454997  28.9489988  88.7750012 123.4134997  28.9219988
  90.1550012 122.8684997  28.6189988  89.6379216 123.5087238  28.9006917
  82.2470012 127.9734997  25.0819988  82.7740012 128.7464997  24.8819988
  81.3670012 128.1984997  24.7809988  82.2001773 128.1098005  25.0139010
  78.0020012 122.8354997  19.6689988  78.6180012 123.4624997  20.0489988
  77.1400012 123.1514997  19.9409988  77.9697698 122.9639430  19.7577183
  83.6740012 125.6364997  24.6589988  83.4330012 126.5614997  24.6999988
  82.9330012 125.1774997  25.0549988  83.5408409 125.7011421  24.7181377
  84.1890012 129.7854997  30.9739988  84.5510012 130.6404997  30.7399988
  84.7200012 129.4934997  31.7139988  84.3104473 129.8631060  31.0420855
  82.3570012 130.6584997  24.2039988  81.4070012 130.7634997  24.2549988
  82.7090012 131.4784997  24.5489988  82.2744203 130.7838314  24.2576650
  87.7330012 125.8844997  30.6739988  87.3070012 125.6574997  31.5009988
  88.3130012 125.1464997  30.4919988  87.7531868 125.7535299  30.7625830
  89.9360012 126.8134997  19.7479988  90.2890012 126.4334997  20.5529988
  88.9870012 126.7204997  19.8349988  89.8560441 126.7489596  19.8698559
  90.3910012 130.4364997  33.1439988  89.7900012 129.8814997  32.6479988
  90.6730012 131.1034997  32.5179988  90.3468519 130.4506841  32.9914952
  94.4390012 131.2934997  19.9489988  95.1830012 131.8794997  19.8089988
  93.7450012 131.8614997  20.2829988  94.4470292 131.4505582  19.9749961
  78.5140012 117.6694997  32.5509988  77.6210012 118.0084997  32.4829988
  78.4150012 116.8144997  32.9689988  78.3784164 117.6002588  32.5982235
  90.8020012 125.4864997  21.9749988  90.5240012 124.7584997  22.5309988
  91.7290012 125.6054997  22.1799988  90.8893124 125.4028802  22.0788845
  78.1650012 129.4744997  30.9859988  78.3820012 128.5424997  30.9549988
  78.4110012 129.7484997  31.8689988  78.2279549 129.3840636  31.1011763
  84.0270012 127.9254997  18.1949988  84.2660012 127.1774997  17.6479988
  83.7580012 127.5374997  19.0279988  84.0233675 127.7706638  18.2326865
  82.9640012 127.4954997  20.6519988  83.1100012 126.9754997  21.4419988
  82.9610012 128.4024997  20.9579988  82.9835989 127.5468853  20.8016088
  79.4170012 124.7484997  21.1619988  78.7310012 125.1004997  21.7289988
  79.9390012 125.5114997  20.9149988  79.3936852 124.8998578  21.2062118
  87.2480012 117.4104997  31.4409988  87.9470012 117.4844997  32.0909988
  86.8670012 116.5464997  31.5949988  87.2921767 117.3037624  31.5508322
  88.0330012 117.0624997  22.5379988  88.2530012 117.5344997  21.7349988
  88.5910012 117.4574997  23.2079988  88.1384968 117.1804285  22.5187331
  85.7010012 129.1934997  21.4009988  84.8850012 129.6904997  21.4529988
  86.2310012 129.6684997  20.7609988  85.6609161 129.3257722  21.3215956
  85.2330012 118.7904997  23.3729988  86.0450012 119.2954997  23.4189988
  84.9880012 118.6454997  24.2869988  85.3110520 118.8400375  23.5028517
  85.7680012 119.7764997  32.5579988  85.8870012 120.3504997  33.3149988
  86.4240012 119.0884997  32.6719988  85.8729757 119.7621079  32.6770825
  86.1160012 115.8714997  24.3109988  85.7700012 116.4894997  24.9559988
  86.7750012 116.3724997  23.8299988  86.1577826 116.0235802  24.3340971
  83.0400012 130.2374997  21.3829988  83.2000012 131.0364997  20.8819988
  82.8420012 130.5434997  22.2679988  83.0351649 130.3884469  21.4339815
  81.7740012 116.9344997  20.9979988  81.6910012 117.8234997  21.3449988
  82.6640012 116.6694997  21.2299988  81.8829469 117.0201430  21.0767626
  91.9730012 117.6834997  33.3929988  91.0560012 117.9464997  33.3049988
  92.3080012 117.6804997  32.4959988  91.8929900 117.7190224  33.2597919
  90.5750012 121.4344997  27.4879988  89.7770012 121.0194997  27.1599988
  91.0200012 120.7434997  27.9789988  90.5259885 121.2843543  27.5094889
  80.0330012 127.3624997  20.0589988  80.6250012 128.0614997  20.3349988
  80.4920012 126.9294997  19.3389988  80.1761142 127.3997049  19.9994830
  78.3490012 120.0264997  19.1749988  78.3040012 120.9654997  19.3529988
  77.4610012 119.7904997  18.9049988  78.2228574 120.1231892  19.1628912
  91.6610012 130.6904997  29.1109988  91.5060012 131.3684997  28.4539988
  92.5940012 130.7624997  29.3139988  91.7658500 130.7930170  29.0485119
  79.1570012 114.8084997  27.8479988  78.9280012 114.8674997  26.9199988
  78.7140012 114.0164997  28.1539988  79.0658530 114.7095753  27.7624786
  78.0870012 128.7484997  24.0079988  77.2550012 129.2214997  24.0359988
  78.6330012 129.2584997  23.4099988  78.0469739 128.8821871  23.9309716
  77.3750012 131.3614997  35.3379988  77.9160012 131.1444997  36.0979988
  76.8940012 130.5554997  35.1489988  77.3839345 131.2229514  35.4163076
  81.9730012 130.2804997  36.9589988  82.7400012 129.8214997  37.2999988
  81.9510012 130.0544997  36.0289988  82.0751434 130.1870409  36.8800043
  86.0650012 129.7884997  18.3339988  85.4210012 129.1574997  18.6549988
  86.8270012 129.2574997  18.1019988  86.0798077 129.6302920  18.3466011
  88.5500012 128.6604997  35.6879988  88.1990012 127.8044997  35.9309988
  89.2760012 128.8034997  36.2949988  88.6000769 128.5625636  35.8033619
  90.6690012 129.6054997  18.5679988  90.9520012 128.8114997  19.0199988
  91.4090012 129.8384997  18.0069988  90.8077486 129.5282803  18.5540698
  77.2820012 125.1714997  36.2929988  77.4260012 124.2694997  36.0059988
  76.5100012 125.4574997  35.8049988  77.1973322 125.0868261  36.1877881
  81.6240012 125.5154997  18.4249988  81.6880012 124.7214997  18.9559988
  82.2770012 125.3964997  17.7349988  81.7210241 125.3907148  18.4044317
  83.9380012 125.1414997  35.7249988  83.6090012 125.4124997  34.8679988
  84.0900012 124.2004997  35.6379988  83.9134809 125.0513862  35.5958244
  86.9760012 126.5624997  18.1609988  86.7070012 126.7424997  19.0619988
  86.7700012 125.6364997  18.0299988  86.9113825 126.4620152  18.2665214
  89.6720012 125.0574997  33.1089988  90.4180012 125.6454997  32.9889988
  88.9150012 125.6394997  33.1719988  89.6717554 125.2167011  33.1010907
  78.1150012 122.3714997  35.7129988  78.5230012 121.5144997  35.5919988
  77.8550012 122.3864997  36.6339988  78.1357568 122.2560807  35.8209588
  82.7730012 123.4874997  20.7309988  82.3130012 123.0034997  21.4169988
  83.0280012 122.8194997  20.0949988  82.7444902 123.3308731  20.7389334
  82.0620012 121.3804997  33.0869988  81.4440012 122.0554997  33.3669988
  82.4060012 121.7014997  32.2539988  82.0239615 121.5162721  33.0126581
  83.8440012 121.7304997  18.9929988  83.6640012 121.5764997  18.0659988
  84.7940012 121.8384997  19.0379988  83.9477776 121.7240175  18.8721843
  87.0820012 123.8524997  36.3639988  88.0350012 123.9354997  36.3369988
  86.9210012 123.1404997  36.9839988  87.1906426 123.7676746  36.4440579
  93.2340012 124.0854997  18.4389988  92.9600012 123.6604997  17.6259988
  93.2730012 125.0164997  18.2219988  93.2017699 124.1532484  18.2983610
  82.4010012 118.7354997  34.1689988  82.5510012 118.0064997  33.5669988
  82.4040012 119.5124997  33.6099988  82.4219302 118.7407851  34.0110692
  82.8140012 117.1054997  31.6619988  83.3500012 117.5564997  31.0099988
  81.9620012 116.9974997  31.2389988  82.7722178 117.1526390  31.5155756
  84.3960012 122.5444997  31.9009988  85.1460012 122.3884997  31.3279988
  84.0570012 123.3964997  31.6259988  84.4528921 122.6382968  31.7853561
  88.8110012 120.3594997  36.9299988  89.0040012 119.4284997  36.8179988
  89.6690012 120.7844997  36.9199988  88.9533020 120.2896389  36.9133361
  90.1280012 123.1484997  35.0069988  89.8470012 123.8574997  34.4299988
  91.0710012 123.0754997  34.8559988  90.2169027 123.2357646  34.9075551
  80.8800012 119.9334997  36.0809988  80.1130012 119.4014997  35.8709988
  81.5590012 119.6234997  35.4809988  80.8667022 119.8187506  35.9711648
  83.6200012 114.5614997  32.0929988  83.5210012 115.5084997  31.9879988
  82.8770012 114.1894997  31.6179988  83.5060564 114.6405902  32.0144560
  84.8840012 118.8834997  35.6569988  84.6480012 118.6634997  36.5589988
  84.1000012 118.6764997  35.1469988  84.7458628 118.8254760  35.7113932
  87.5990012 118.0104997  34.7329988  86.6520012 118.0424997  34.8649988
  87.9120012 117.3854997  35.3859988  87.5115475 117.9303207  34.8394455
  89.2330012 116.6444997  36.7379988  89.1370012 115.6924997  36.7319988
  88.9120012 116.9134997  37.5979988  89.1764070 116.5504035  36.8535441
  79.0600012 117.8544997  35.7849988  79.2720012 117.1474997  35.1749988
  78.9490012 117.4164997  36.6289988  79.0739721 117.6987084  35.8156843
  83.8410012 113.8554997  34.7649988  84.5530012 113.2154997  34.7509988
  83.7400012 114.1224997  33.8509988  83.9247939 113.8039938  34.6395650
  84.1950012 115.5384997  36.8179988  84.0630012 115.0624997  35.9979988
  83.5960012 116.2824997  36.7629988  84.0959071 115.5739618  36.6982886
  83.7410012 132.4214997  19.9949988  84.6740012 132.5794997  20.1379988
  83.4770012 133.0964997  19.3699988  83.8329510 132.5343611  19.9300741
  77.3100012 127.0574997  19.4769988  78.2240012 127.1364997  19.7509988
  77.3170012 126.3704997  18.8109988  77.4361131 126.9753961  19.4244393
  75.9590012 132.4504997  24.5549988  75.3120012 131.9884997  24.0219988
  76.3130012 131.7784997  25.1369988  75.9183849 132.2964723  24.5607959
  76.8290012 130.5314997  26.3589988  76.4940012 129.6514997  26.5309988
  77.0510012 130.8764997  27.2239988  76.8131783 130.4577500  26.4994208
  94.3770012 131.3404997  29.3399988  94.3560012 131.5254997  30.2789988
  95.0680012 131.9094997  28.9989988  94.4674618 131.4426606  29.4223864
  93.9410012 130.9084997  32.2619988  93.4530012 130.1724997  31.8909988
  94.4900012 130.5144997  32.9399988  93.9484872 130.7546249  32.3029160
  92.3910012 126.6974997  36.8999988  91.5250012 126.5924997  37.2939988
  92.7680012 127.4564997  37.3459988  92.3233308 126.7856900  37.0142393
  93.6920012 124.9544997  22.4139988  94.5420012 125.3754997  22.5409988
  93.6980012 124.2144997  23.0209988  93.8091372 124.9120803  22.5134344
  94.0870012 123.0074997  24.2379988  93.3600012 122.5284997  24.6349988
  94.6680012 123.2134997  24.9699988  94.0659375 122.9697090  24.3914129
  93.8460012 125.7924997  29.1849988  94.6790012 125.4144997  28.9049988
  93.9580012 126.7354997  29.0659988  93.9752647 125.8682218  29.1305487
  92.3320012 128.6704997  31.4919988  91.6850012 128.9954997  32.1179988
  91.8150012 128.2304997  30.8179988  92.1734029 128.6555004  31.4865827
  94.3550012 122.9084997  20.6289988  93.8330012 123.2654997  19.9099988
  94.3220012 123.5834997  21.3069988  94.2791634 123.0485413  20.6223145
  92.7040012 120.1484997  19.1799988  92.8000012 120.8154997  18.4989988
  92.5640012 119.3324997  18.6979988  92.6982135 120.1294500  19.0218491
  91.8730012 121.5284997  24.8009988  91.7230012 120.5834997  24.7799988
  91.5200012 121.8094997  25.6439988  91.8046625 121.4370441  24.9122346
  76.9090012 123.6064997  28.8109988  77.0930012 123.5244997  27.8749988
  77.7580012 123.4824997  29.2349988  77.0490139 123.5785003  28.7401455
  92.7300012 123.4984997  34.4389988  93.3130012 122.7644997  34.6309988
  93.2940012 124.2704997  34.4859988  92.8859769 123.5024227  34.4716159
  94.2260012 121.4014997  35.1239988  93.3630012 121.0224997  34.9579988
  94.8310012 120.6624997  35.0499988  94.1895979 121.2498023  35.0912817
  91.9510012 117.5564997  18.2969988  92.5620012 117.1854997  18.9339988
  91.1150012 117.1354997  18.4929988  91.9215032 117.4487554  18.4107035
  91.5840012 119.1114997  23.2629988  91.8640012 118.2044997  23.3869988
  92.3430012 119.5454997  22.8739988  91.7249277 119.0460942  23.2273682
  92.1960012 119.6924997  28.6989988  93.1290012 119.9044997  28.6649988
  91.9610012 119.7944997  29.6209988  92.2918036 119.7352769  28.8189976
  92.2250012 120.4294997  31.4749988  91.3820012 120.6974997  31.8409988
  92.6670012 121.2514997  31.2639988  92.1694158 120.5773291  31.4965491
  76.5060012 118.8774997  34.9519988  77.4260012 118.7554997  35.1879988
  76.0570012 118.1274997  35.3409988  76.5711580 118.7593727  35.0369006
  94.5080012 114.4094997  36.8279988  94.8580012 113.7554997  36.2229988
  94.6550012 115.2464997  36.3889988  94.5758419 114.4331591  36.6857118
  92.1970012 116.3744997  23.3109988  92.3800012 115.9254997  24.1369988
  91.5980012 115.7894997  22.8479988  92.1410202 116.2339975  23.3613275
  77.7270012 117.1894997  27.8429988  78.1730012 116.3974997  28.1449988
  78.1940012 117.9054997  28.2739988  77.8510172 117.1780624  27.9424820
  76.0310012 120.1884997  28.9119988  76.5230012 119.9674997  28.1209988
  76.3940012 121.0294997  29.1929988  76.1473126 120.2718357  28.8417531
  94.0280012 116.5184997  35.1779988  93.1100012 116.7894997  35.1419988
  94.1510012 115.9834997  34.3929988  93.9191066 116.4832892  35.0670487
  94.0640012 116.4414997  19.8389988  94.4760012 115.7204997  19.3639988
  94.7460012 117.1114997  19.8979988  94.2125885 116.4332368  19.7818915
  76.3450012 116.4464997  22.9659988  75.4200012 116.6554997  22.8369988
  76.7990012 116.9304997  22.2769988  76.2797368 116.5405993  22.8551226
  91.1160012 131.4304997  24.9119988  91.7680012 131.0834997  24.3039988
  91.6260012 131.9194997  25.5579988  91.2742637 131.4490597  24.9160236
  76.3090012 115.1844997  31.3109988  75.6440012 114.9384997  31.9539988
  75.8660012 115.8064997  30.7329988  76.1580956 115.2348632  31.3209352
  78.5010012 128.3594997  35.4549988  77.6800012 128.5344997  34.9949988
  78.2480012 128.2864997  36.3759988  78.3546164 128.3735622  35.5164923
  81.4550012 129.3344997  31.7139988  81.0300012 130.1434997  31.4309988
  82.3590012 129.4194997  31.4119988  81.5190271 129.4568469  31.6343776
  85.7660012 130.7334997  34.6729988  85.9510012 130.3994997  35.5509988
  86.6120012 131.0424997  34.3509988  85.9057539 130.7296047  34.7495605
  88.1110012 132.0194997  33.9169988  88.7880012 131.3864997  33.6769988
  88.4330012 132.4204997  34.7239988  88.2471637 131.9871154  33.9932793
  93.0280012 114.6084997  32.9969988  92.2160012 114.9334997  32.6089988
  93.2610012 113.8484997  32.4639988  92.9483423 114.5502436  32.8718253
  78.8570012 132.5904997  31.7609988  78.1360012 133.0304997  31.3099988
  78.4910012 132.3394997  32.6099988  78.7089804 132.6167698  31.8139840
  81.3240012 132.1904997  30.7909988  80.4590012 132.2624997  31.1949988
  81.2690012 132.7374997  30.0069988  81.1982085 132.2742685  30.7403362
  86.0340012 132.0784997  29.9659988  85.5780012 132.6074997  29.3119988
  86.1970012 132.6814997  30.6919988  85.9935585 132.2324468  29.9745062
  88.3620012 130.9564997  30.9109988  87.4570012 131.1214997  30.6459988
  88.7910012 131.8094997  30.8459988  88.2960799 131.0944483  30.8659182
  90.9660012 132.5264997  31.2059988  90.7840012 133.4424997  30.9959988
  91.1430012 132.1164997  30.3599988  90.9650210 132.5964822  31.0627885
  78.2710012 131.2134997  28.6709988  78.2530012 130.7884997  29.5289988
  79.0760012 130.8954997  28.2629988  78.3773875 131.1123812  28.7331655
  80.4130012 129.9234997  27.3259988  80.1940012 129.0074997  27.4959988
  81.2370012 130.0634997  27.7919988  80.4944420 129.8170520  27.4122774
  82.9500012 130.3934997  28.1749988  83.1630012 129.5054997  27.8879988
  83.0140012 130.3594997  29.1289988  82.9878232 130.2673102  28.2647397
  86.4580012 116.0574997  27.3189988  85.7840012 115.4284997  27.5749988
  87.0220012 115.5734997  26.7159988  86.4419230 115.9058744  27.2725340
  91.6010012 114.1654997  27.4319988  92.2050012 114.7124997  26.9299988
  90.7310012 114.4844997  27.1919988  91.5661241 114.2835806  27.3307654
  93.3280012 115.3034997  25.7649988  93.9400012 114.7894997  25.2389988
  93.7100012 116.1814997  25.7889988  93.4634540 115.3517140  25.6961830
  78.7850012 114.6914997  25.1409988  78.0080012 114.4574997  24.6339988
  79.3150012 113.8944997  25.1499988  78.7502330 114.5516988  25.0727742
  77.6210012 114.4894997  20.9449988  78.0600012 115.1004997  20.3529988
  76.9880012 115.0274997  21.4189988  77.5954514 114.6459257  20.9280930
  83.3640012 114.6184997  24.9549988  84.2390012 115.0064997  24.9249988
  83.2280012 114.4034997  25.8769988  83.4653695 114.6425184  25.0756440
  88.9210012 114.6484997  26.6039988  88.9970012 114.7434997  25.6539988
  88.6460012 113.7404997  26.7329988  88.8942321 114.5387867  26.4915079
  90.2740012 114.6744997  22.2959988  89.5720012 115.2894997  22.0869988
  89.8300012 113.8364997  22.4269988  90.1176330 114.6455783  22.2850328
  77.5220012 130.4374997  21.8429988  76.8370012 130.3994997  21.1749988
  77.5260012 131.3504997  22.1309988  77.4288193 130.5557016  21.7905284
  79.4820012 116.4054997  19.3869988  79.9740012 115.7754997  18.8599988
  80.1060012 116.7014997  20.0509988  79.6335446 116.3593199  19.4045980
  84.5080012 116.6984997  21.8439988  84.6860012 116.0524997  22.5269988
  84.4550012 117.5324997  22.3119988  84.5251829 116.7227985  22.0005940
  86.3870012 131.6474997  20.2399988  87.2530012 132.0134997  20.0619988
  86.1400012 131.2074997  19.4259988  86.4722392 131.6381756  20.1056289
  93.0960012 131.2104997  22.9189988  92.9010012 130.4624997  22.3539988
  93.0570012 131.9684997  22.3359988  93.0640380 131.2106099  22.7628384
  78.7430012 115.2054997  34.6589988  78.3770012 114.4404997  35.1019988
  79.6560012 115.2344997  34.9459988  78.8162790 115.1047224  34.7584070
  80.7160012 114.5564997  36.1949988  81.6140012 114.2824997  36.0099988
  80.3290012 113.8134997  36.6589988  80.7866612 114.4185914  36.2323643
  79.3400012 131.3574997  18.8679988  79.0730012 131.6444997  19.7409988
  80.1120012 130.8114997  19.0199988  79.4077488 131.3230294  19.0081050
  89.1370012 113.8884997  36.3769988  89.2140012 113.4624997  37.2309988
  90.0310012 113.9024997  36.0339988  89.2683428 113.8320879  36.4475310
  92.3130012 129.9614997  35.0689988  91.5310012 129.7754997  34.5499988
  92.2410012 130.8904997  35.2869988  92.1961777 130.0616492  35.0274048
 106.7190012 123.8474997  25.0999988 106.8080012 124.7914997  24.9679988
 106.0810012 123.5724997  24.4419988 106.6449081 123.9394830  24.9929614
 105.6520012 123.1024997  28.5189988 105.6140012 122.4564997  29.2239988
 105.3300012 122.6364997  27.7479988 105.6032333 122.9509408  28.5112978
  98.0210012 122.7174997  30.1119988  98.0620012 122.0914997  30.8349988
  98.7240012 123.3414997  30.2939988  98.1216363 122.7161196  30.2356044
 109.3580012 126.0414997  26.8199988 108.9180012 125.3214997  27.2709988
 109.3450012 126.7624997  27.4499988 109.2960226 126.0403731  26.9668494
  98.9440012 127.1674997  28.6469988  98.5750012 126.3654997  28.2769988
  99.8850012 126.9984997  28.6929988  99.0207289 127.0350153  28.6026316
  95.5540012 120.8274997  24.0399988  95.1070012 121.6734997  24.0209988
  94.9930012 120.2474997  23.5239988  95.4169900 120.8649916  23.9676801
  96.2650012 122.9894997  26.1659988  96.4780012 122.2194997  26.6929988
  97.0030012 123.0784997  25.5619988  96.3938496 122.8961394  26.1565300
 106.4700012 131.1464997  27.0329988 107.0900012 130.4694997  26.7589988
 106.2620012 130.9284997  27.9409988 106.5266904 131.0243870  27.1183365
 104.0420012 125.5354997  28.9249988 104.3460012 124.8494997  28.3299988
 104.7630012 125.6534997  29.5429988 104.1810671 125.4576305  28.9271816
 112.7050012 117.1364997  29.7859988 112.7540012 117.7464997  30.5219988
 113.1300012 117.5974997  29.0629988 112.7691824 117.2823741  29.7890205
 107.1830012 119.9294997  29.2529988 107.3250012 118.9834997  29.2729988
 107.0760012 120.1364997  28.3239988 107.1879864 119.8279534  29.1302339
 100.3370012 118.0304997  26.5249988 100.3810012 118.8904997  26.1069988
  99.8800012 117.4784997  25.8909988 100.2812185 118.0735799  26.3820299
 108.0600012 118.1614997  24.9259988 108.7060012 117.8324997  25.5509988
 108.5700012 118.6794997  24.3029988 108.2174264 118.1864611  24.9273862
  96.9580012 120.4274997  27.2869988  97.6110012 119.8774997  27.7189988
  96.9820012 120.1534997  26.3699988  97.0506683 120.3151466  27.2222123
 102.1140012 121.9774997  26.5019988 102.7300012 121.4514997  27.0119988
 101.5280012 121.3374997  26.0989988 102.1190810 121.8189208  26.5173173
 113.0960012 118.6144997  32.0219988 112.4080012 119.2724997  31.9259988
 113.1120012 118.4174997  32.9579988 113.0038525 118.6780462  32.1354808
  99.1480012 116.9484997  30.5989988  98.9290012 117.4784997  29.8329988
  98.4800012 117.1754997  31.2459988  99.0277600 117.0516906  30.5816379
 106.5170012 126.4484997  24.1429988 106.2210012 126.1264997  23.2919988
 106.1920012 127.3484997  24.1839988 106.4326371 126.5260215  24.0321801
 101.7170012 124.6244997  30.8859988 100.9770012 125.2224997  30.9899988
 102.4310012 125.1784997  30.5709988 101.7122237 124.7812831  30.8576465
 109.8240012 117.4524997  26.9059988 109.6080012 116.6864997  27.4389988
 110.4790012 117.9244997  27.4189988 109.8830632 117.4115889  27.0482861
  98.7410012 118.8404997  28.5509988  99.3550012 119.4734997  28.9249988
  99.2530012 118.3684997  27.8949988  98.8942296 118.8632370  28.5134252
 100.1240012 126.5884997  31.6739988 100.1190012 127.4684997  31.2959988
  99.2710012 126.5054997  32.0989988 100.0079464 126.6976117  31.6797907
  96.2450012 126.2594997  22.4559988  95.9730012 126.4884997  21.5669988
  96.2910012 127.0974997  22.9159988  96.2140094 126.4041213  22.3965697
 109.8700012 127.8814997  29.1679988 108.9290012 127.9394997  29.3299988
 110.1470012 128.7874997  29.0309988 109.7784679 128.0119443  29.1716815
 110.1710012 116.1674997  30.5859988 109.4350012 116.7784997  30.5479988
 110.8540012 116.5824997  30.0589988 110.1626541 116.3071374  30.5095832
 103.1740012 114.2544997  28.0519988 103.0570012 113.3054997  27.9969988
 102.3190012 114.5864997  28.3249988 103.0423733 114.1695409  28.0813897
 108.1220012 129.6624997  25.7939988 108.5480012 128.9554997  25.3089988
 108.4390012 130.4634997  25.3769988 108.2231019 129.6740994  25.6713130
 109.2820012 127.5634997  24.3019988 109.0240012 126.8734997  23.6909988
 109.3530012 127.1204997  25.1479988 109.2562856 127.4092124  24.3326885
 110.9680012 126.1294997  32.7799988 111.1080012 125.5384997  32.0399988
 111.1350012 127.0024997  32.4229988 111.0096778 126.1666426  32.6306965
 105.4410012 123.0914997  22.5519988 104.7290012 123.6264997  22.1999988
 106.1320012 123.1474997  21.8919988 105.4370132 123.1722543  22.4146289
 105.4940012 121.5494997  19.5909988 106.1950012 121.5714997  20.2419988
 105.7970012 120.9214997  18.9349988 105.6307830 121.4676566  19.5913711
 112.8100012 122.4694997  30.8459988 112.1570012 123.1644997  30.9349988
 113.2750012 122.6794997  30.0359988 112.7835390 122.5929425  30.7486883
 108.8460012 123.3014997  23.5039988 108.1140012 123.5294997  24.0769988
 109.2940012 122.5874997  23.9589988 108.8063095 123.2362571  23.6439119
 108.7440012 121.4754997  32.5709988 108.8240012 122.2384997  33.1429988
 108.1420012 121.7544997  31.8809988 108.6735756 121.6177134  32.5560589
 100.4920012 123.9314997  25.3859988 100.1610012 123.5614997  24.5679988
 101.0800012 123.2614997  25.7329988 100.5261873 123.7901156  25.3208102
 101.8580012 127.3594997  28.0679988 101.7640012 126.7814997  27.3109988
 102.5880012 126.9884997  28.5639988 101.9437981 127.2302390  28.0314165
 100.8580012 122.7004997  29.0199988 101.4240012 122.8214997  28.2569988
 101.1770012 123.3374997  29.6589988 100.9785786 122.8031884  29.0020040
 107.1670012 128.2034997  29.7539988 106.9270012 128.8654997  30.4019988
 106.9690012 127.3694997  30.1789988 107.1073808 128.1813134  29.9001524
 101.7380012 127.0994997  33.7369988 101.4270012 127.8814997  34.1919988
 101.0880012 126.9464997  33.0509988 101.6075558 127.1859105  33.7065871
 107.7170012 122.4634997  21.1889988 108.2970012 122.6134997  21.9359988
 108.1310012 122.9344997  20.4659988 107.8522830 122.5476841  21.1934134
  98.6580012 123.2974997  32.9659988  98.7290012 123.9484997  33.6639988
  97.7680012 123.4004997  32.6309988  98.5473117 123.4005936  33.0162700
 105.4440012 129.2004997  24.6239988 105.9180012 129.4954997  25.4019988
 104.8810012 129.9384997  24.3909988 105.4327653 129.3406932  24.6990136
  99.9780012 129.1714997  34.4999988  99.9850012 129.0354997  33.5529988
  99.0620012 129.0534997  34.7519988  99.8551714 129.1369430  34.4044666
 111.4160012 114.2134997  21.0019988 110.5160012 114.3524997  21.2969988
 111.6680012 115.0444997  20.5999988 111.3268702 114.3449074  20.9880205
  99.4820012 123.0014997  22.9759988  99.1900012 123.7694997  22.4849988
  98.8080012 122.3414997  22.8129988  99.3509081 123.0174406  22.8867340
 112.6050012 128.5794997  19.3779988 112.6790012 129.5184997  19.5489988
 113.5110012 128.2744997  19.3219988 112.7375100 128.6666722  19.3938119
  95.5750012 125.3644997  31.7909988  95.0740012 125.3364997  30.9759988
  95.5800012 124.4584997  32.0999988  95.5071526 125.2382278  31.7212872
  95.3250012 128.1444997  28.6749988  96.2710012 128.0004997  28.6559988
  95.2130012 128.9284997  29.2119988  95.4392727 128.2308046  28.7450072
 113.5230012 128.8104997  34.3569988 113.4740012 127.8554997  34.3199988
 112.6960012 129.0784997  34.7579988 113.4044940 128.7158998  34.4061375
 104.5020012 128.3844997  33.2329988 104.5890012 129.2104997  33.7079988
 103.6380012 128.0544997  33.4819988 104.3971964 128.4529878  33.3316549
 104.9160012 132.1564997  23.0389988 104.8410012 132.0354997  22.0929988
 104.9490012 133.1064997  23.1579988 104.9101848 132.2682500  22.9254834
  98.5690012 130.9454997  24.8199988  98.7220012 130.5974997  25.6989988
  97.7190012 130.5894997  24.5649988  98.4748962 130.8496650  24.9058340
 108.0180012 131.3104997  20.0409988 108.3930012 130.5664997  19.5709988
 108.0220012 131.0404997  20.9599988 108.0698915 131.1721486  20.1007824
 107.6870012 131.2364997  22.7909988 106.7510012 131.3364997  22.9689988
 107.9670012 130.5274997  23.3689988 107.5968255 131.1542711  22.8935391
 110.6750012 120.3034997  34.8369988 110.2680012 120.7844997  34.1159988
 110.7160012 119.3984997  34.5289988 110.6248437 120.2469374  34.6966683
  97.8240012 126.6874997  32.8339988  98.0400012 126.3264997  33.6929988
  96.9690012 126.3134997  32.6239988  97.7379292 126.5874111  32.9233386
 100.4430012 115.1574997  28.8289988  99.5810012 115.0704997  28.4219988
 100.4200012 116.0134997  29.2569988 100.3220330 115.2612765  28.8311863
 105.1060012 114.8794997  32.2039988 105.5260012 114.4644997  32.9569988
 104.1730012 114.7014997  32.3209988 105.0373644 114.7985900  32.3229539
 108.4320012 118.6354997  33.0569988 107.9180012 118.5094997  33.8549988
 108.2770012 119.5474997  32.8129988 108.3406852 118.7416132  33.1332158
 109.1950012 123.4964997  18.8189988 109.2370012 123.2734997  17.8889988
 110.0440012 123.8954997  19.0089988 109.3155396 123.5199155  18.7173627
 104.7670012 117.3724997  19.4889988 104.5140012 117.3914997  20.4119988
 104.5110012 116.5004997  19.1879988 104.6977790 117.2572437  19.5746263
 100.5340012 120.1234997  29.9239988  99.8920012 120.0824997  30.6329988
 100.5710012 121.0494997  29.6869988 100.4511324 120.2431559  29.9889824
 100.5310012 120.3444997  24.8359988  99.6380012 120.0034997  24.7779988
 100.9810012 119.9674997  24.0809988 100.4697305 120.2468484  24.7259177
 106.0660012 120.7604997  23.6529988 105.6570012 121.5754997  23.3619988
 106.7870012 120.6204997  23.0389988 106.1074537 120.8532018  23.5301342
 105.1680012 120.9354997  35.1409988 104.6060012 120.2314997  35.4619988
 105.9950012 120.8154997  35.6089988 105.2027095 120.8227883  35.2482330
 107.0710012 120.2064997  26.4669988 106.8760012 120.8114997  25.7519988
 107.2520012 119.3724997  26.0329988 107.0687614 120.1766300  26.3104405
  98.2840012 120.4434997  31.7909988  98.2460012 120.8434997  32.6599988
  97.7930012 119.6264997  31.8819988  98.2124684 120.3878069  31.9221059
 101.6500012 117.8174997  18.5899988 101.2190012 117.3724997  19.3199988
 100.9320012 118.1894997  18.0779988 101.4939438 117.8068940  18.6206799
  94.8920012 117.5594997  25.6419988  95.5230012 117.5304997  26.3609988
  95.3410012 117.1344997  24.9119988  95.0390774 117.4980492  25.6416553
  96.1660012 118.3054997  21.0659988  96.6400012 118.8964997  20.4809988
  95.4490012 118.8364997  21.4129988  96.1339341 118.4580867  21.0328836
 106.3350012 121.8444997  31.1389988 106.6580012 121.2134997  30.4959988
 105.8950012 121.3094997  31.7989988 106.3196895 121.6858441  31.1402850
 103.1120012 117.7714997  25.9229988 102.2010012 117.8284997  26.2109988
 103.6180012 117.7114997  26.7329988 103.0555413 117.7711985  26.0720622
  97.9410012 119.4004997  24.7489988  97.0510012 119.5004997  24.4089988
  98.2370012 118.5584997  24.4029988  97.8592823 119.3003545  24.6557213
 101.5940012 119.4004997  22.4059988 102.5250012 119.5294997  22.5839988
 101.3790012 120.0704997  21.7559988 101.6924247 119.5086565  22.3425747
 107.5170012 117.0064997  29.1869988 106.8410012 117.1374997  29.8509988
 107.0320012 116.8514997  28.3769988 107.3587145 117.0034905  29.1684517
 100.2680012 120.5954997  19.9729988  99.7250012 120.2154997  19.2809988
 101.1010012 120.7894997  19.5439988 100.3064399 120.5698124  19.8204526
 110.8050012 132.6784997  35.4639988 111.0050012 133.1024997  34.6289988
 111.4600012 133.0214997  36.0709988 110.9210051 132.7829648  35.4317836
  98.4030012 125.1524997  35.0719988  99.1350012 125.4064997  35.6329988
  97.6230012 125.3564997  35.5869988  98.3978232 125.2149177  35.2185760
 104.4320012 120.5594997  27.8099988 104.9970012 120.0124997  27.2629988
 104.2850012 120.0374997  28.5979988 104.4892918 120.4142024  27.8418454
  99.4340012 116.6954997  24.2279988  99.1170012 115.7934997  24.1929988
 100.2160012 116.6974997  23.6749988  99.4962284 116.5721628  24.1484783
 103.0590012 118.9474997  30.2239988 102.2230012 119.4014997  30.3339988
 103.5830012 119.2234997  30.9759988 103.0154414 119.0469376  30.3407136
 103.6030012 125.1604997  21.9079988 102.8580012 124.6534997  21.5859988
 103.4690012 125.2094997  22.8549988 103.4828776 125.0976940  21.9918647
 110.7530012 124.2934997  30.6949988 111.3950012 124.7504997  30.1509988
 109.9230012 124.4064997  30.2319988 110.7285963 124.3712704  30.5580177
 107.5010012 117.9744997  20.1079988 106.5620012 118.0864997  19.9559988
 107.7980012 118.8314997  20.4139988 107.4127666 118.1056443  20.1285768
 105.1220012 125.3444997  33.1449988 104.7770012 124.9634997  33.9519988
 104.9220012 126.2784997  33.2169988 105.0478061 125.4185228  33.2650961
 108.2190012 119.8414997  21.7679988 109.1110012 119.7044997  22.0869988
 108.2760012 120.6324997  21.2319988 108.3486285 119.9296660  21.7391690
  98.7280012 124.4554997  27.6779988  99.4730012 124.4534997  27.0769988
  98.8060012 123.6324997  28.1599988  98.8405518 124.3439315  27.6608929
 105.7290012 126.6194997  20.9339988 105.4330012 127.4454997  21.3149988
 105.0260012 125.9994997  21.1299988 105.5934914 126.6488199  21.0126443
  95.7360012 122.9164997  32.9929988  95.9590012 122.4984997  33.8249988
  95.1340012 122.3034997  32.5699988  95.6851759 122.7764668  33.0497022
 102.7520012 122.4334997  35.2059988 102.4560012 122.2674997  34.3109988
 103.6840012 122.2134997  35.1949988 102.8374166 122.3810640  35.0820536
 107.3730012 127.8064997  33.0959988 106.4720012 127.9894997  32.8279988
 107.4070012 128.0654997  34.0169988 107.2543041 127.8665512  33.1838197
 113.1040012 120.0514997  21.4629988 112.5500012 119.6554997  20.7909988
 113.2040012 120.9614997  21.1849988 113.0417059 120.1203586  21.3334401
 113.0670012 125.8514997  34.2999988 112.2160012 126.0894997  33.9329988
 113.6580012 125.8344997  33.5469988 113.0302487 125.8818258  34.1478893
 111.3990012 128.8374997  21.9279988 111.0260012 128.0114997  22.2369988
 111.6770012 128.6544997  21.0309988 111.3855630 128.6997303  21.8489626
 108.5600012 123.6454997  28.9489988 107.6310012 123.4134997  28.9219988
 109.0110012 122.8684997  28.6189988 108.4939216 123.5087238  28.9006917
 101.1030012 127.9734997  25.0819988 101.6300012 128.7464997  24.8819988
 100.2230012 128.1984997  24.7809988 101.0561773 128.1098005  25.0139010
  96.8580012 122.8354997  19.6689988  97.4740012 123.4624997  20.0489988
  95.9960012 123.1514997  19.9409988  96.8257698 122.9639430  19.7577183
 102.5300012 125.6364997  24.6589988 102.2890012 126.5614997  24.6999988
 101.7890012 125.1774997  25.0549988 102.3968409 125.7011421  24.7181377
 103.0450012 129.7854997  30.9739988 103.4070012 130.6404997  30.7399988
 103.5760012 129.4934997  31.7139988 103.1664473 129.8631060  31.0420855
 101.2130012 130.6584997  24.2039988 100.2630012 130.7634997  24.2549988
 101.5650012 131.4784997  24.5489988 101.1304203 130.7838314  24.2576650
 106.5890012 125.8844997  30.6739988 106.1630012 125.6574997  31.5009988
 107.1690012 125.1464997  30.4919988 106.6091868 125.7535299  30.7625830
 108.7920012 126.8134997  19.7479988 109.1450012 126.4334997  20.5529988
 107.8430012 126.7204997  19.8349988 108.7120441 126.7489596  19.8698559
 109.2470012 130.4364997  33.1439988 108.6460012 129.8814997  32.6479988
 109.5290012 131.1034997  32.5179988 109.2028519 130.4506841  32.9914952
 113.2950012 131.2934997  19.9489988 114.0390012 131.8794997  19.8089988
 112.6010012 131.8614997  20.2829988 113.3030292 131.4505582  19.9749961
  97.3700012 117.6694997  32.5509988  96.4770012 118.0084997  32.4829988
  97.2710012 116.8144997  32.9689988  97.2344164 117.6002588  32.5982235
 109.6580012 125.4864997  21.9749988 109.3800012 124.7584997  22.5309988
 110.5850012 125.6054997  22.1799988 109.7453124 125.4028802  22.0788845
  97.0210012 129.4744997  30.9859988  97.2380012 128.5424997  30.9549988
  97.2670012 129.7484997  31.8689988  97.0839549 129.3840636  31.1011763
 102.8830012 127.9254997  18.1949988 103.1220012 127.1774997  17.6479988
 102.6140012 127.5374997  19.0279988 102.8793675 127.7706638  18.2326865
 101.8200012 127.4954997  20.6519988 101.9660012 126.9754997  21.4419988
 101.8170012 128.4024997  20.9579988 101.8395989 127.5468853  20.8016088
  98.2730012 124.7484997  21.1619988  97.5870012 125.1004997  21.7289988
  98.7950012 125.5114997  20.9149988  98.2496852 124.8998578  21.2062118
 106.1040012 117.4104997  31.4409988 106.8030012 117.4844997  32.0909988
 105.7230012 116.5464997  31.5949988 106.1481767 117.3037624  31.5508322
 106.8890012 117.0624997  22.5379988 107.1090012 117.5344997  21.7349988
 107.4470012 117.4574997  23.2079988 106.9944968 117.1804285  22.5187331
 104.5570012 129.1934997  21.4009988 103.7410012 129.6904997  21.4529988
 105.0870012 129.6684997  20.7609988 104.5169161 129.3257722  21.3215956
 104.0890012 118.7904997  23.3729988 104.9010012 119.2954997  23.4189988
 103.8440012 118.6454997  24.2869988 104.1670520 118.8400375  23.5028517
 104.6240012 119.7764997  32.5579988 104.7430012 120.3504997  33.3149988
 105.2800012 119.0884997  32.6719988 104.7289757 119.7621079  32.6770825
 104.9720012 115.8714997  24.3109988 104.6260012 116.4894997  24.9559988
 105.6310012 116.3724997  23.8299988 105.0137826 116.0235802  24.3340971
 101.8960012 130.2374997  21.3829988 102.0560012 131.0364997  20.8819988
 101.6980012 130.5434997  22.2679988 101.8911649 130.3884469  21.4339815
 100.6300012 116.9344997  20.9979988 100.5470012 117.8234997  21.3449988
 101.5200012 116.6694997  21.2299988 100.7389469 117.0201430  21.0767626
 110.8290012 117.6834997  33.3929988 109.9120012 117.9464997  33.3049988
 111.1640012 117.6804997  32.4959988 110.7489900 117.7190224  33.2597919
 109.4310012 121.4344997  27.4879988 108.6330012 121.0194997  27.1599988
 109.8760012 120.7434997  27.9789988 109.3819885 121.2843543  27.5094889
  98.8890012 127.3624997  20.0589988  99.4810012 128.0614997  20.3349988
  99.3480012 126.9294997  19.3389988  99.0321142 127.3997049  19.9994830
  97.2050012 120.0264997  19.1749988  97.1600012 120.9654997  19.3529988
  96.3170012 119.7904997  18.9049988  97.0788574 120.1231892  19.1628912
 110.5170012 130.6904997  29.1109988 110.3620012 131.3684997  28.4539988
 111.4500012 130.7624997  29.3139988 110.6218500 130.7930170  29.0485119
  98.0130012 114.8084997  27.8479988  97.7840012 114.8674997  26.9199988
  97.5700012 114.0164997  28.1539988  97.9218530 114.7095753  27.7624786
  96.9430012 128.7484997  24.0079988  96.1110012 129.2214997  24.0359988
  97.4890012 129.2584997  23.4099988  96.9029739 128.8821871  23.9309716
  96.2310012 131.3614997  35.3379988  96.7720012 131.1444997  36.0979988
  95.7500012 130.5554997  35.1489988  96.2399345 131.2229514  35.4163076
 100.8290012 130.2804997  36.9589988 101.5960012 129.8214997  37.2999988
 100.8070012 130.0544997  36.0289988 100.9311434 130.1870409  36.8800043
 104.9210012 129.7884997  18.3339988 104.2770012 129.1574997  18.6549988
 105.6830012 129.2574997  18.1019988 104.9358077 129.6302920  18.3466011
 107.4060012 128.6604997  35.6879988 107.0550012 127.8044997  35.9309988
 108.1320012 128.8034997  36.2949988 107.4560769 128.5625636  35.8033619
 109.5250012 129.6054997  18.5679988 109.8080012 128.8114997  19.0199988
 110.2650012 129.8384997  18.0069988 109.6637486 129.5282803  18.5540698
  96.1380012 125.1714997  36.2929988  96.2820012 124.2694997  36.0059988
  95.3660012 125.4574997  35.8049988  96.0533322 125.0868261  36.1877881
 100.4800012 125.5154997  18.4249988 100.5440012 124.7214997  18.9559988
 101.1330012 125.3964997  17.7349988 100.5770241 125.3907148  18.4044317
 102.7940012 125.1414997  35.7249988 102.4650012 125.4124997  34.8679988
 102.9460012 124.2004997  35.6379988 102.7694809 125.0513862  35.5958244
 105.8320012 126.5624997  18.1609988 105.5630012 126.7424997  19.0619988
 105.6260012 125.6364997  18.0299988 105.7673825 126.4620152  18.2665214
 108.5280012 125.0574997  33.1089988 109.2740012 125.6454997  32.9889988
 107.7710012 125.6394997  33.1719988 108.5277554 125.2167011  33.1010907
  96.9710012 122.3714997  35.7129988  97.3790012 121.5144997  35.5919988
  96.7110012 122.3864997  36.6339988  96.9917568 122.2560807  35.8209588
 101.6290012 123.4874997  20.7309988 101.1690012 123.0034997  21.4169988
 101.8840012 122.8194997  20.0949988 101.6004902 123.3308731  20.7389334
 100.9180012 121.3804997  33.0869988 100.3000012 122.0554997  33.3669988
 101.2620012 121.7014997  32.2539988 100.8799615 121.5162721  33.0126581
 102.7000012 121.7304997  18.9929988 102.5200012 121.5764997  18.0659988
 103.6500012 121.8384997  19.0379988 102.8037776 121.7240175  18.8721843
 105.9380012 123.8524997  36.3639988 106.8910012 123.9354997  36.3369988
 105.7770012 123.1404997  36.9839988 106.0466426 123.7676746  36.4440579
 112.0900012 124.0854997  18.4389988 111.8160012 123.6604997  17.6259988
 112.1290012 125.0164997  18.2219988 112.0577699 124.1532484  18.2983610
 101.2570012 118.7354997  34.1689988 101.4070012 118.0064997  33.5669988
 101.2600012 119.5124997  33.6099988 101.2779302 118.7407851  34.0110692
 101.6700012 117.1054997  31.6619988 102.2060012 117.5564997  31.0099988
 100.8180012 116.9974997  31.2389988 101.6282178 117.1526390  31.5155756
 103.2520012 122.5444997  31.9009988 104.0020012 122.3884997  31.3279988
 102.9130012 123.3964997  31.6259988 103.3088921 122.6382968  31.7853561
 107.6670012 120.3594997  36.9299988 107.8600012 119.4284997  36.8179988
 108.5250012 120.7844997  36.9199988 107.8093020 120.2896389  36.9133361
 108.9840012 123.1484997  35.0069988 108.7030012 123.8574997  34.4299988
 109.9270012 123.0754997  34.8559988 109.0729027 123.2357646  34.9075551
  99.7360012 119.9334997  36.0809988  98.9690012 119.4014997  35.8709988
 100.4150012 119.6234997  35.4809988  99.7227022 119.8187506  35.9711648
 102.4760012 114.5614997  32.0929988 102.3770012 115.5084997  31.9879988
 101.7330012 114.1894997  31.6179988 102.3620564 114.6405902  32.0144560
 103.7400012 118.8834997  35.6569988 103.5040012 118.6634997  36.5589988
 102.9560012 118.6764997  35.1469988 103.6018628 118.8254760  35.7113932
 106.4550012 118.0104997  34.7329988 105.5080012 118.0424997  34.8649988
 106.7680012 117.3854997  35.3859988 106.3675475 117.9303207  34.8394455
 108.0890012 116.6444997  36.7379988 107.9930012 115.6924997  36.7319988
 107.7680012 116.9134997  37.5979988 108.0324070 116.5504035  36.8535441
  97.9160012 117.8544997  35.7849988  98.1280012 117.1474997  35.1749988
  97.8050012 117.4164997  36.6289988  97.9299721 117.6987084  35.8156843
 102.6970012 113.8554997  34.7649988 103.4090012 113.2154997  34.7509988
 102.5960012 114.1224997  33.8509988 102.7807939 113.8039938  34.6395650
 103.0510012 115.5384997  36.8179988 102.9190012 115.0624997  35.9979988
 102.4520012 116.2824997  36.7629988 102.9519071 115.5739618  36.6982886
 102.5970012 132.4214997  19.9949988 103.5300012 132.5794997  20.1379988
 102.3330012 133.0964997  19.3699988 102.6889510 132.5343611  19.9300741
  96.1660012 127.0574997  19.4769988  97.0800012 127.1364997  19.7509988
  96.1730012 126.3704997  18.8109988  96.2921131 126.9753961  19.4244393
  94.8150012 132.4504997  24.5549988  94.1680012 131.9884997  24.0219988
  95.1690012 131.7784997  25.1369988  94.7743849 132.2964723  24.5607959
  95.6850012 130.5314997  26.3589988  95.3500012 129.6514997  26.5309988
  95.9070012 130.8764997  27.2239988  95.6691783 130.4577501  26.4994208
 113.2330012 131.3404997  29.3399988 113.2120012 131.5254997  30.2789988
 113.9240012 131.9094997  28.9989988 113.3234618 131.4426606  29.4223864
 112.7970012 130.9084997  32.2619988 112.3090012 130.1724997  31.8909988
 113.3460012 130.5144997  32.9399988 112.8044872 130.7546249  32.3029160
 111.2470012 126.6974997  36.8999988 110.3810012 126.5924997  37.2939988
 111.6240012 127.4564997  37.3459988 111.1793308 126.7856900  37.0142393
 112.5480012 124.9544997  22.4139988 113.3980012 125.3754997  22.5409988
 112.5540012 124.2144997  23.0209988 112.6651372 124.9120803  22.5134344
 112.9430012 123.0074997  24.2379988 112.2160012 122.5284997  24.6349988
 113.5240012 123.2134997  24.9699988 112.9219375 122.9697090  24.3914129
 112.7020012 125.7924997  29.1849988 113.5350012 125.4144997  28.9049988
 112.8140012 126.7354997  29.0659988 112.8312647 125.8682218  29.1305487
 111.1880012 128.6704997  31.4919988 110.5410012 128.9954997  32.1179988
 110.6710012 128.2304997  30.8179988 111.0294029 128.6555004  31.4865827
 113.2110012 122.9084997  20.6289988 112.6890012 123.2654997  19.9099988
 113.1780012 123.5834997  21.3069988 113.1351634 123.0485413  20.6223145
 111.5600012 120.1484997  19.1799988 111.6560012 120.8154997  18.4989988
 111.4200012 119.3324997  18.6979988 111.5542135 120.1294500  19.0218491
 110.7290012 121.5284997  24.8009988 110.5790012 120.5834997  24.7799988
 110.3760012 121.8094997  25.6439988 110.6606625 121.4370441  24.9122346
  95.7650012 123.6064997  28.8109988  95.9490012 123.5244997  27.8749988
  96.6140012 123.4824997  29.2349988  95.9050139 123.5785003  28.7401455
 111.5860012 123.4984997  34.4389988 112.1690012 122.7644997  34.6309988
 112.1500012 124.2704997  34.4859988 111.7419769 123.5024227  34.4716159
 113.0820012 121.4014997  35.1239988 112.2190012 121.0224997  34.9579988
 113.6870012 120.6624997  35.0499988 113.0455979 121.2498023  35.0912817
 110.8070012 117.5564997  18.2969988 111.4180012 117.1854997  18.9339988
 109.9710012 117.1354997  18.4929988 110.7775032 117.4487554  18.4107035
 110.4400012 119.1114997  23.2629988 110.7200012 118.2044997  23.3869988
 111.1990012 119.5454997  22.8739988 110.5809277 119.0460942  23.2273682
 111.0520012 119.6924997  28.6989988 111.9850012 119.9044997  28.6649988
 110.8170012 119.7944997  29.6209988 111.1478036 119.7352769  28.8189976
 111.0810012 120.4294997  31.4749988 110.2380012 120.6974997  31.8409988
 111.5230012 121.2514997  31.2639988 111.0254158 120.5773291  31.4965491
  95.3620012 118.8774997  34.9519988  96.2820012 118.7554997  35.1879988
  94.9130012 118.1274997  35.3409988  95.4271580 118.7593727  35.0369006
 113.3640012 114.4094997  36.8279988 113.7140012 113.7554997  36.2229988
 113.5110012 115.2464997  36.3889988 113.4318419 114.4331591  36.6857118
 111.0530012 116.3744997  23.3109988 111.2360012 115.9254997  24.1369988
 110.4540012 115.7894997  22.8479988 110.9970202 116.2339975  23.3613275
  96.5830012 117.1894997  27.8429988  97.0290012 116.3974997  28.1449988
  97.0500012 117.9054997  28.2739988  96.7070172 117.1780624  27.9424820
  94.8870012 120.1884997  28.9119988  95.3790012 119.9674997  28.1209988
  95.2500012 121.0294997  29.1929988  95.0033126 120.2718357  28.8417531
 112.8840012 116.5184997  35.1779988 111.9660012 116.7894997  35.1419988
 113.0070012 115.9834997  34.3929988 112.7751066 116.4832892  35.0670487
 112.9200012 116.4414997  19.8389988 113.3320012 115.7204997  19.3639988
 113.6020012 117.1114997  19.8979988 113.0685885 116.4332368  19.7818915
  95.2010012 116.4464997  22.9659988  94.2760012 116.6554997  22.8369988
  95.6550012 116.9304997  22.2769988  95.1357368 116.5405993  22.8551226
 109.9720012 131.4304997  24.9119988 110.6240012 131.0834997  24.3039988
 110.4820012 131.9194997  25.5579988 110.1302637 131.4490597  24.9160236
  95.1650012 115.1844997  31.3109988  94.5000012 114.9384997  31.9539988
  94.7220012 115.8064997  30.7329988  95.0140956 115.2348632  31.3209352
  97.3570012 128.3594997  35.4549988  96.5360012 128.5344997  34.9949988
  97.1040012 128.2864997  36.3759988  97.2106164 128.3735622  35.5164923
 100.3110012 129.3344997  31.7139988  99.8860012 130.1434997  31.4309988
 101.2150012 129.4194997  31.4119988 100.3750271 129.4568469  31.6343776
 104.6220012 130.7334997  34.6729988 104.8070012 130.3994997  35.5509988
 105.4680012 131.0424997  34.3509988 104.7617539 130.7296047  34.7495605
 106.9670012 132.0194997  33.9169988 107.6440012 131.3864997  33.6769988
 107.2890012 132.4204997  34.7239988 107.1031637 131.9871154  33.9932793
 111.8840012 114.6084997  32.9969988 111.0720012 114.9334997  32.6089988
 112.1170012 113.8484997  32.4639988 111.8043423 114.5502436  32.8718253
  97.7130012 132.5904997  31.7609988  96.9920012 133.0304997  31.3099988
  97.3470012 132.3394997  32.6099988  97.5649804 132.6167698  31.8139840
 100.1800012 132.1904997  30.7909988  99.3150012 132.2624997  31.1949988
 100.1250012 132.7374997  30.0069988 100.0542085 132.2742685  30.7403362
 104.8900012 132.0784997  29.9659988 104.4340012 132.6074997  29.3119988
 105.0530012 132.6814997  30.6919988 104.8495585 132.2324468  29.9745062
 107.2180012 130.9564997  30.9109988 106.3130012 131.1214997  30.6459988
 107.6470012 131.8094997  30.8459988 107.1520799 131.0944483  30.8659182
 109.8220012 132.5264997  31.2059988 109.6400012 133.4424997  30.9959988
 109.9990012 132.1164997  30.3599988 109.8210210 132.5964822  31.0627885
  97.1270012 131.2134997  28.6709988  97.1090012 130.7884997  29.5289988
  97.9320012 130.8954997  28.2629988  97.2333875 131.1123812  28.7331655
  99.2690012 129.9234997  27.3259988  99.0500012 129.0074997  27.4959988
 100.0930012 130.0634997  27.7919988  99.3504420 129.8170520  27.4122774
 101.8060012 130.3934997  28.1749988 102.0190012 129.5054997  27.8879988
 101.8700012 130.3594997  29.1289988 101.8438232 130.2673102  28.2647397
 105.3140012 116.0574997  27.3189988 104.6400012 115.4284997  27.5749988
 105.8780012 115.5734997  26.7159988 105.2979230 115.9058744  27.2725340
 110.4570012 114.1654997  27.4319988 111.0610012 114.7124997  26.9299988
 109.5870012 114.4844997  27.1919988 110.4221241 114.2835806  27.3307654
 112.1840012 115.3034997  25.7649988 112.7960012 114.7894997  25.2389988
 112.5660012 116.1814997  25.7889988 112.3194540 115.3517140  25.6961830
  97.6410012 114.6914997  25.1409988  96.8640012 114.4574997  24.6339988
  98.1710012 113.8944997  25.1499988  97.6062330 114.5516988  25.0727742
  96.4770012 114.4894997  20.9449988  96.9160012 115.1004997  20.3529988
  95.8440012 115.0274997  21.4189988  96.4514514 114.6459257  20.9280930
 102.2200012 114.6184997  24.9549988 103.0950012 115.0064997  24.9249988
 102.0840012 114.4034997  25.8769988 102.3213695 114.6425184  25.0756440
 107.7770012 114.6484997  26.6039988 107.8530012 114.7434997  25.6539988
 107.5020012 113.7404997  26.7329988 107.7502321 114.5387867  26.4915079
 109.1300012 114.6744997  22.2959988 108.4280012 115.2894997  22.0869988
 108.6860012 113.8364997  22.4269988 108.9736330 114.6455783  22.2850328
  96.3780012 130.4374997  21.8429988  95.6930012 130.3994997  21.1749988
  96.3820012 131.3504997  22.1309988  96.2848193 130.5557016  21.7905284
  98.3380012 116.4054997  19.3869988  98.8300012 115.7754997  18.8599988
  98.9620012 116.7014997  20.0509988  98.4895446 116.3593199  19.4045980
 103.3640012 116.6984997  21.8439988 103.5420012 116.0524997  22.5269988
 103.3110012 117.5324997  22.3119988 103.3811829 116.7227985  22.0005940
 105.2430012 131.6474997  20.2399988 106.1090012 132.0134997  20.0619988
 104.9960012 131.2074997  19.4259988 105.3282392 131.6381756  20.1056289
 111.9520012 131.2104997  22.9189988 111.7570012 130.4624997  22.3539988
 111.9130012 131.9684997  22.3359988 111.9200380 131.2106099  22.7628384
  97.5990012 115.2054997  34.6589988  97.2330012 114.4404997  35.1019988
  98.5120012 115.2344997  34.9459988  97.6722790 115.1047224  34.7584070
  99.5720012 114.5564997  36.1949988 100.4700012 114.2824997  36.0099988
  99.1850012 113.8134997  36.6589988  99.6426612 114.4185914  36.2323643
  98.1960012 131.3574997  18.8679988  97.9290012 131.6444997  19.7409988
  98.9680012 130.8114997  19.0199988  98.2637488 131.3230294  19.0081050
 107.9930012 113.8884997  36.3769988 108.0700012 113.4624997  37.2309988
 108.8870012 113.9024997  36.0339988 108.1243428 113.8320879  36.4475310
 111.1690012 129.9614997  35.0689988 110.3870012 129.7754997  34.5499988
 111.0970012 130.8904997  35.2869988 111.0521777 130.0616492  35.0274048
 125.5750012 123.8474997  25.0999988 125.6640012 124.7914997  24.9679988
 124.9370012 123.5724997  24.4419988 125.5009081 123.9394830  24.9929614
 124.5080012 123.1024997  28.5189988 124.4700012 122.4564997  29.2239988
 124.1860012 122.6364997  27.7479988 124.4592333 122.9509408  28.5112978
 116.8770012 122.7174997  30.1119988 116.9180012 122.0914997  30.8349988
 117.5800012 123.3414997  30.2939988 116.9776363 122.7161196  30.2356044
 128.2140012 126.0414997  26.8199988 127.7740012 125.3214997  27.2709988
 128.2010012 126.7624997  27.4499988 128.1520226 126.0403731  26.9668494
 117.8000012 127.1674997  28.6469988 117.4310012 126.3654997  28.2769988
 118.7410012 126.9984997  28.6929988 117.8767289 127.0350153  28.6026316
 114.4100012 120.8274997  24.0399988 113.9630012 121.6734997  24.0209988
 113.8490012 120.2474997  23.5239988 114.2729900 120.8649916  23.9676801
 115.1210012 122.9894997  26.1659988 115.3340012 122.2194997  26.6929988
 115.8590012 123.0784997  25.5619988 115.2498496 122.8961394  26.1565300
 125.3260012 131.1464997  27.0329988 125.9460012 130.4694997  26.7589988
 125.1180012 130.9284997  27.9409988 125.3826904 131.0243870  27.1183365
 122.8980012 125.5354997  28.9249988 123.2020012 124.8494997  28.3299988
 123.6190012 125.6534997  29.5429988 123.0370671 125.4576305  28.9271816
 131.5610012 117.1364997  29.7859988 131.6100012 117.7464997  30.5219988
 131.9860012 117.5974997  29.0629988 131.6251824 117.2823741  29.7890205
 126.0390012 119.9294997  29.2529988 126.1810012 118.9834997  29.2729988
 125.9320012 120.1364997  28.3239988 126.0439864 119.8279534  29.1302339
 119.1930012 118.0304997  26.5249988 119.2370012 118.8904997  26.1069988
 118.7360012 117.4784997  25.8909988 119.1372185 118.0735799  26.3820299
 126.9160012 118.1614997  24.9259988 127.5620012 117.8324997  25.5509988
 127.4260012 118.6794997  24.3029988 127.0734264 118.1864611  24.9273862
 115.8140012 120.4274997  27.2869988 116.4670012 119.8774997  27.7189988
 115.8380012 120.1534997  26.3699988 115.9066683 120.3151466  27.2222123
 120.9700012 121.9774997  26.5019988 121.5860012 121.4514997  27.0119988
 120.3840012 121.3374997  26.0989988 120.9750810 121.8189208  26.5173173
 131.9520012 118.6144997  32.0219988 131.2640012 119.2724997  31.9259988
 131.9680012 118.4174997  32.9579988 131.8598525 118.6780462  32.1354808
 118.0040012 116.9484997  30.5989988 117.7850012 117.4784997  29.8329988
 117.3360012 117.1754997  31.2459988 117.8837600 117.0516906  30.5816379
 125.3730012 126.4484997  24.1429988 125.0770012 126.1264997  23.2919988
 125.0480012 127.3484997  24.1839988 125.2886371 126.5260215  24.0321801
 120.5730012 124.6244997  30.8859988 119.8330012 125.2224997  30.9899988
 121.2870012 125.1784997  30.5709988 120.5682237 124.7812831  30.8576465
 128.6800012 117.4524997  26.9059988 128.4640012 116.6864997  27.4389988
 129.3350012 117.9244997  27.4189988 128.7390632 117.4115889  27.0482861
 117.5970012 118.8404997  28.5509988 118.2110012 119.4734997  28.9249988
 118.1090012 118.3684997  27.8949988 117.7502296 118.8632370  28.5134252
 118.9800012 126.5884997  31.6739988 118.9750012 127.4684997  31.2959988
 118.1270012 126.5054997  32.0989988 118.8639464 126.6976117  31.6797907
 115.1010012 126.2594997  22.4559988 114.8290012 126.4884997  21.5669988
 115.1470012 127.0974997  22.9159988 115.0700094 126.4041213  22.3965697
 128.7260012 127.8814997  29.1679988 127.7850012 127.9394997  29.3299988
 129.0030012 128.7874997  29.0309988 128.6344679 128.0119443  29.1716815
 129.0270012 116.1674997  30.5859988 128.2910012 116.7784997  30.5479988
 129.7100012 116.5824997  30.0589988 129.0186541 116.3071374  30.5095832
 122.0300012 114.2544997  28.0519988 121.9130012 113.3054997  27.9969988
 121.1750012 114.5864997  28.3249988 121.8983733 114.1695409  28.0813897
 126.9780012 129.6624997  25.7939988 127.4040012 128.9554997  25.3089988
 127.2950012 130.4634997  25.3769988 127.0791019 129.6740994  25.6713130
 128.1380012 127.5634997  24.3019988 127.8800012 126.8734997  23.6909988
 128.2090012 127.1204997  25.1479988 128.1122856 127.4092124  24.3326885
 129.8240012 126.1294997  32.7799988 129.9640012 125.5384997  32.0399988
 129.9910012 127.0024997  32.4229988 129.8656778 126.1666426  32.6306965
 124.2970012 123.0914997  22.5519988 123.5850012 123.6264997  22.1999988
 124.9880012 123.1474997  21.8919988 124.2930132 123.1722543  22.4146289
 124.3500012 121.5494997  19.5909988 125.0510012 121.5714997  20.2419988
 124.6530012 120.9214997  18.9349988 124.4867830 121.4676566  19.5913711
 131.6660012 122.4694997  30.8459988 131.0130012 123.1644997  30.9349988
 132.1310012 122.6794997  30.0359988 131.6395390 122.5929425  30.7486883
 127.7020012 123.3014997  23.5039988 126.9700012 123.5294997  24.0769988
 128.1500012 122.5874997  23.9589988 127.6623095 123.2362571  23.6439119
 127.6000012 121.4754997  32.5709988 127.6800012 122.2384997  33.1429988
 126.9980012 121.7544997  31.8809988 127.5295756 121.6177134  32.5560589
 119.3480012 123.9314997  25.3859988 119.0170012 123.5614997  24.5679988
 119.9360012 123.2614997  25.7329988 119.3821873 123.7901156  25.3208102
 120.7140012 127.3594997  28.0679988 120.6200012 126.7814997  27.3109988
 121.4440012 126.9884997  28.5639988 120.7997981 127.2302390  28.0314165
 119.7140012 122.7004997  29.0199988 120.2800012 122.8214997  28.2569988
 120.0330012 123.3374997  29.6589988 119.8345786 122.8031884  29.0020040
 126.0230012 128.2034997  29.7539988 125.7830012 128.8654997  30.4019988
 125.8250012 127.3694997  30.1789988 125.9633808 128.1813134  29.9001524
 120.5940012 127.0994997  33.7369988 120.2830012 127.8814997  34.1919988
 119.9440012 126.9464997  33.0509988 120.4635558 127.1859105  33.7065871
 126.5730012 122.4634997  21.1889988 127.1530012 122.6134997  21.9359988
 126.9870012 122.9344997  20.4659988 126.7082830 122.5476841  21.1934134
 117.5140012 123.2974997  32.9659988 117.5850012 123.9484997  33.6639988
 116.6240012 123.4004997  32.6309988 117.4033117 123.4005936  33.0162700
 124.3000012 129.2004997  24.6239988 124.7740012 129.4954997  25.4019988
 123.7370012 129.9384997  24.3909988 124.2887653 129.3406932  24.6990136
 118.8340012 129.1714997  34.4999988 118.8410012 129.0354997  33.5529988
 117.9180012 129.0534997  34.7519988 118.7111714 129.1369430  34.4044666
 130.2720012 114.2134997  21.0019988 129.3720012 114.3524997  21.2969988
 130.5240012 115.0444997  20.5999988 130.1828702 114.3449074  20.9880205
 118.3380012 123.0014997  22.9759988 118.0460012 123.7694997  22.4849988
 117.6640012 122.3414997  22.8129988 118.2069081 123.0174406  22.8867340
 131.4610012 128.5794997  19.3779988 131.5350012 129.5184997  19.5489988
 132.3670012 128.2744997  19.3219988 131.5935100 128.6666722  19.3938119
 114.4310012 125.3644997  31.7909988 113.9300012 125.3364997  30.9759988
 114.4360012 124.4584997  32.0999988 114.3631526 125.2382278  31.7212872
 114.1810012 128.1444997  28.6749988 115.1270012 128.0004997  28.6559988
 114.0690012 128.9284997  29.2119988 114.2952727 128.2308046  28.7450072
 132.3790012 128.8104997  34.3569988 132.3300012 127.8554997  34.3199988
 131.5520012 129.0784997  34.7579988 132.2604940 128.7158998  34.4061375
 123.3580012 128.3844997  33.2329988 123.4450012 129.2104997  33.7079988
 122.4940012 128.0544997  33.4819988 123.2531964 128.4529878  33.3316549
 123.7720012 132.1564997  23.0389988 123.6970012 132.0354997  22.0929988
 123.8050012 133.1064997  23.1579988 123.7661848 132.2682500  22.9254834
 117.4250012 130.9454997  24.8199988 117.5780012 130.5974997  25.6989988
 116.5750012 130.5894997  24.5649988 117.3308962 130.8496650  24.9058340
 126.8740012 131.3104997  20.0409988 127.2490012 130.5664997  19.5709988
 126.8780012 131.0404997  20.9599988 126.9258915 131.1721486  20.1007824
 126.5430012 131.2364997  22.7909988 125.6070012 131.3364997  22.9689988
 126.8230012 130.5274997  23.3689988 126.4528255 131.1542711  22.8935391
 129.5310012 120.3034997  34.8369988 129.1240012 120.7844997  34.1159988
 129.5720012 119.3984997  34.5289988 129.4808437 120.2469374  34.6966683
 116.6800012 126.6874997  32.8339988 116.8960012 126.3264997  33.6929988
 115.8250012 126.3134997  32.6239988 116.5939292 126.5874111  32.9233386
 119.2990012 115.1574997  28.8289988 118.4370012 115.0704997  28.4219988
 119.2760012 116.0134997  29.2569988 119.1780330 115.2612765  28.8311863
 123.9620012 114.8794997  32.2039988 124.3820012 114.4644997  32.9569988
 123.0290012 114.7014997  32.3209988 123.8933644 114.7985900  32.3229539
 127.2880012 118.6354997  33.0569988 126.7740012 118.5094997  33.8549988
 127.1330012 119.5474997  32.8129988 127.1966852 118.7416132  33.1332158
 128.0510012 123.4964997  18.8189988 128.0930012 123.2734997  17.8889988
 128.9000012 123.8954997  19.0089988 128.1715396 123.5199155  18.7173627
 123.6230012 117.3724997  19.4889988 123.3700012 117.3914997  20.4119988
 123.3670012 116.5004997  19.1879988 123.5537790 117.2572437  19.5746263
 119.3900012 120.1234997  29.9239988 118.7480012 120.0824997  30.6329988
 119.4270012 121.0494997  29.6869988 119.3071324 120.2431559  29.9889824
 119.3870012 120.3444997  24.8359988 118.4940012 120.0034997  24.7779988
 119.8370012 119.9674997  24.0809988 119.3257305 120.2468484  24.7259177
 124.9220012 120.7604997  23.6529988 124.5130012 121.5754997  23.3619988
 125.6430012 120.6204997  23.0389988 124.9634537 120.8532018  23.5301342
 124.0240012 120.9354997  35.1409988 123.4620012 120.2314997  35.4619988
 124.8510012 120.8154997  35.6089988 124.0587095 120.8227883  35.2482330
 125.9270012 120.2064997  26.4669988 125.7320012 120.8114997  25.7519988
 126.1080012 119.3724997  26.0329988 125.9247614 120.1766300  26.3104405
 117.1400012 120.4434997  31.7909988 117.1020012 120.8434997  32.6599988
 116.6490012 119.6264997  31.8819988 117.0684684 120.3878069  31.9221059
 120.5060012 117.8174997  18.5899988 120.0750012 117.3724997  19.3199988
 119.7880012 118.1894997  18.0779988 120.3499438 117.8068940  18.6206799
 113.7480012 117.5594997  25.6419988 114.3790012 117.5304997  26.3609988
 114.1970012 117.1344997  24.9119988 113.8950774 117.4980492  25.6416553
 115.0220012 118.3054997  21.0659988 115.4960012 118.8964997  20.4809988
 114.3050012 118.8364997  21.4129988 114.9899341 118.4580867  21.0328836
 125.1910012 121.8444997  31.1389988 125.5140012 121.2134997  30.4959988
 124.7510012 121.3094997  31.7989988 125.1756895 121.6858441  31.1402850
 121.9680012 117.7714997  25.9229988 121.0570012 117.8284997  26.2109988
 122.4740012 117.7114997  26.7329988 121.9115413 117.7711985  26.0720622
 116.7970012 119.4004997  24.7489988 115.9070012 119.5004997  24.4089988
 117.0930012 118.5584997  24.4029988 116.7152823 119.3003545  24.6557213
 120.4500012 119.4004997  22.4059988 121.3810012 119.5294997  22.5839988
 120.2350012 120.0704997  21.7559988 120.5484247 119.5086565  22.3425747
 126.3730012 117.0064997  29.1869988 125.6970012 117.1374997  29.8509988
 125.8880012 116.8514997  28.3769988 126.2147145 117.0034905  29.1684517
 119.1240012 120.5954997  19.9729988 118.5810012 120.2154997  19.2809988
 119.9570012 120.7894997  19.5439988 119.1624399 120.5698124  19.8204526
 129.6610012 132.6784997  35.4639988 129.8610012 133.1024997  34.6289988
 130.3160012 133.0214997  36.0709988 129.7770051 132.7829648  35.4317836
 117.2590012 125.1524997  35.0719988 117.9910012 125.4064997  35.6329988
 116.4790012 125.3564997  35.5869988 117.2538232 125.2149177  35.2185760
 123.2880012 120.5594997  27.8099988 123.8530012 120.0124997  27.2629988
 123.1410012 120.0374997  28.5979988 123.3452918 120.4142024  27.8418454
 118.2900012 116.6954997  24.2279988 117.9730012 115.7934997  24.1929988
 119.0720012 116.6974997  23.6749988 118.3522284 116.5721628  24.1484783
 121.9150012 118.9474997  30.2239988 121.0790012 119.4014997  30.3339988
 122.4390012 119.2234997  30.9759988 121.8714414 119.0469376  30.3407136
 122.4590012 125.1604997  21.9079988 121.7140012 124.6534997  21.5859988
 122.3250012 125.2094997  22.8549988 122.3388776 125.0976940  21.9918647
 129.6090012 124.2934997  30.6949988 130.2510012 124.7504997  30.1509988
 128.7790012 124.4064997  30.2319988 129.5845963 124.3712704  30.5580177
 126.3570012 117.9744997  20.1079988 125.4180012 118.0864997  19.9559988
 126.6540012 118.8314997  20.4139988 126.2687666 118.1056443  20.1285768
 123.9780012 125.3444997  33.1449988 123.6330012 124.9634997  33.9519988
 123.7780012 126.2784997  33.2169988 123.9038061 125.4185228  33.2650961
 127.0750012 119.8414997  21.7679988 127.9670012 119.7044997  22.0869988
 127.1320012 120.6324997  21.2319988 127.2046285 119.9296660  21.7391691
 117.5840012 124.4554997  27.6779988 118.3290012 124.4534997  27.0769988
 117.6620012 123.6324997  28.1599988 117.6965518 124.3439315  27.6608929
 124.5850012 126.6194997  20.9339988 124.2890012 127.4454997  21.3149988
 123.8820012 125.9994997  21.1299988 124.4494914 126.6488199  21.0126443
 114.5920012 122.9164997  32.9929988 114.8150012 122.4984997  33.8249988
 113.9900012 122.3034997  32.5699988 114.5411759 122.7764668  33.0497022
 121.6080012 122.4334997  35.2059988 121.3120012 122.2674997  34.3109988
 122.5400012 122.2134997  35.1949988 121.6934166 122.3810640  35.0820536
 126.2290012 127.8064997  33.0959988 125.3280012 127.9894997  32.8279988
 126.2630012 128.0654997  34.0169988 126.1103041 127.8665512  33.1838197
 131.9600012 120.0514997  21.4629988 131.4060012 119.6554997  20.7909988
 132.0600012 120.9614997  21.1849988 131.8977059 120.1203586  21.3334401
 131.9230012 125.8514997  34.2999988 131.0720012 126.0894997  33.9329988
 132.5140012 125.8344997  33.5469988 131.8862487 125.8818258  34.1478893
 130.2550012 128.8374997  21.9279988 129.8820012 128.0114997  22.2369988
 130.5330012 128.6544997  21.0309988 130.2415630 128.6997303  21.8489626
 127.4160012 123.6454997  28.9489988 126.4870012 123.4134997  28.9219988
 127.8670012 122.8684997  28.6189988 127.3499216 123.5087238  28.9006917
 119.9590012 127.9734997  25.0819988 120.4860012 128.7464997  24.8819988
 119.0790012 128.1984997  24.7809988 119.9121773 128.1098005  25.0139010
 115.7140012 122.8354997  19.6689988 116.3300012 123.4624997  20.0489988
 114.8520012 123.1514997  19.9409988 115.6817698 122.9639430  19.7577183
 121.3860012 125.6364997  24.6589988 121.1450012 126.5614997  24.6999988
 120.6450012 125.1774997  25.0549988 121.2528409 125.7011421  24.7181377
 121.9010012 129.7854997  30.9739988 122.2630012 130.6404997  30.7399988
 122.4320012 129.4934997  31.7139988 122.0224473 129.8631060  31.0420855
 120.0690012 130.6584997  24.2039988 119.1190012 130.7634997  24.2549988
 120.4210012 131.4784997  24.5489988 119.9864203 130.7838314  24.2576650
 125.4450012 125.8844997  30.6739988 125.0190012 125.6574997  31.5009988
 126.0250012 125.1464997  30.4919988 125.4651868 125.7535299  30.7625830
 127.6480012 126.8134997  19.7479988 128.0010012 126.4334997  20.5529988
 126.6990012 126.7204997  19.8349988 127.5680441 126.7489596  19.8698559
 128.1030012 130.4364997  33.1439988 127.5020012 129.8814997  32.6479988
 128.3850012 131.1034997  32.5179988 128.0588519 130.4506841  32.9914952
 132.1510012 131.2934997  19.9489988 132.8950012 131.8794997  19.8089988
 131.4570012 131.8614997  20.2829988 132.1590292 131.4505582  19.9749961
 116.2260012 117.6694997  32.5509988 115.3330012 118.0084997  32.4829988
 116.1270012 116.8144997  32.9689988 116.0904164 117.6002588  32.5982235
 128.5140012 125.4864997  21.9749988 128.2360012 124.7584997  22.5309988
 129.4410012 125.6054997  22.1799988 128.6013124 125.4028802  22.0788845
 115.8770012 129.4744997  30.9859988 116.0940012 128.5424997  30.9549988
 116.1230012 129.7484997  31.8689988 115.9399549 129.3840636  31.1011763
 121.7390012 127.9254997  18.1949988 121.9780012 127.1774997  17.6479988
 121.4700012 127.5374997  19.0279988 121.7353675 127.7706638  18.2326865
 120.6760012 127.4954997  20.6519988 120.8220012 126.9754997  21.4419988
 120.6730012 128.4024997  20.9579988 120.6955989 127.5468853  20.8016088
 117.1290012 124.7484997  21.1619988 116.4430012 125.1004997  21.7289988
 117.6510012 125.5114997  20.9149988 117.1056852 124.8998578  21.2062118
 124.9600012 117.4104997  31.4409988 125.6590012 117.4844997  32.0909988
 124.5790012 116.5464997  31.5949988 125.0041767 117.3037624  31.5508322
 125.7450012 117.0624997  22.5379988 125.9650012 117.5344997  21.7349988
 126.3030012 117.4574997  23.2079988 125.8504968 117.1804285  22.5187331
 123.4130012 129.1934997  21.4009988 122.5970012 129.6904997  21.4529988
 123.9430012 129.6684997  20.7609988 123.3729161 129.3257722  21.3215956
 122.9450012 118.7904997  23.3729988 123.7570012 119.2954997  23.4189988
 122.7000012 118.6454997  24.2869988 123.0230520 118.8400375  23.5028517
 123.4800012 119.7764997  32.5579988 123.5990012 120.3504997  33.3149988
 124.1360012 119.0884997  32.6719988 123.5849757 119.7621079  32.6770825
 123.8280012 115.8714997  24.3109988 123.4820012 116.4894997  24.9559988
 124.4870012 116.3724997  23.8299988 123.8697826 116.0235802  24.3340971
 120.7520012 130.2374997  21.3829988 120.9120012 131.0364997  20.8819988
 120.5540012 130.5434997  22.2679988 120.7471649 130.3884469  21.4339815
 119.4860012 116.9344997  20.9979988 119.4030012 117.8234997  21.3449988
 120.3760012 116.6694997  21.2299988 119.5949469 117.0201430  21.0767626
 129.6850012 117.6834997  33.3929988 128.7680012 117.9464997  33.3049988
 130.0200012 117.6804997  32.4959988 129.6049900 117.7190224  33.2597919
 128.2870012 121.4344997  27.4879988 127.4890012 121.0194997  27.1599988
 128.7320012 120.7434997  27.9789988 128.2379885 121.2843543  27.5094889
 117.7450012 127.3624997  20.0589988 118.3370012 128.0614997  20.3349988
 118.2040012 126.9294997  19.3389988 117.8881142 127.3997049  19.9994830
 116.0610012 120.0264997  19.1749988 116.0160012 120.9654997  19.3529988
 115.1730012 119.7904997  18.9049988 115.9348574 120.1231892  19.1628912
 129.3730012 130.6904997  29.1109988 129.2180012 131.3684997  28.4539988
 130.3060012 130.7624997  29.3139988 129.4778500 130.7930170  29.0485119
 116.8690012 114.8084997  27.8479988 116.6400012 114.8674997  26.9199988
 116.4260012 114.0164997  28.1539988 116.7778530 114.7095753  27.7624786
 115.7990012 128.7484997  24.0079988 114.9670012 129.2214997  24.0359988
 116.3450012 129.2584997  23.4099988 115.7589739 128.8821871  23.9309716
 115.0870012 131.3614997  35.3379988 115.6280012 131.1444997  36.0979988
 114.6060012 130.5554997  35.1489988 115.0959345 131.2229514  35.4163076
 119.6850012 130.2804997  36.9589988 120.4520012 129.8214997  37.2999988
 119.6630012 130.0544997  36.0289988 119.7871434 130.1870409  36.8800043
 123.7770012 129.7884997  18.3339988 123.1330012 129.1574997  18.6549988
 124.5390012 129.2574997  18.1019988 123.7918077 129.6302920  18.3466011
 126.2620012 128.6604997  35.6879988 125.9110012 127.8044997  35.9309988
 126.9880012 128.8034997  36.2949988 126.3120769 128.5625636  35.8033619
 128.3810012 129.6054997  18.5679988 128.6640012 128.8114997  19.0199988
 129.1210012 129.8384997  18.0069988 128.5197486 129.5282803  18.5540698
 114.9940012 125.1714997  36.2929988 115.1380012 124.2694997  36.0059988
 114.2220012 125.4574997  35.8049988 114.9093322 125.0868261  36.1877881
 119.3360012 125.5154997  18.4249988 119.4000012 124.7214997  18.9559988
 119.9890012 125.3964997  17.7349988 119.4330241 125.3907148  18.4044317
 121.6500012 125.1414997  35.7249988 121.3210012 125.4124997  34.8679988
 121.8020012 124.2004997  35.6379988 121.6254809 125.0513862  35.5958244
 124.6880012 126.5624997  18.1609988 124.4190012 126.7424997  19.0619988
 124.4820012 125.6364997  18.0299988 124.6233825 126.4620152  18.2665214
 127.3840012 125.0574997  33.1089988 128.1300012 125.6454997  32.9889988
 126.6270012 125.6394997  33.1719988 127.3837554 125.2167011  33.1010907
 115.8270012 122.3714997  35.7129988 116.2350012 121.5144997  35.5919988
 115.5670012 122.3864997  36.6339988 115.8477568 122.2560807  35.8209588
 120.4850012 123.4874997  20.7309988 120.0250012 123.0034997  21.4169988
 120.7400012 122.8194997  20.0949988 120.4564902 123.3308731  20.7389334
 119.7740012 121.3804997  33.0869988 119.1560012 122.0554997  33.3669988
 120.1180012 121.7014997  32.2539988 119.7359615 121.5162721  33.0126581
 121.5560012 121.7304997  18.9929988 121.3760012 121.5764997  18.0659988
 122.5060012 121.8384997  19.0379988 121.6597776 121.7240175  18.8721843
 124.7940012 123.8524997  36.3639988 125.7470012 123.9354997  36.3369988
 124.6330012 123.1404997  36.9839988 124.9026426 123.7676746  36.4440579
 130.9460012 124.0854997  18.4389988 130.6720012 123.6604997  17.6259988
 130.9850012 125.0164997  18.2219988 130.9137699 124.1532484  18.2983610
 120.1130012 118.7354997  34.1689988 120.2630012 118.0064997  33.5669988
 120.1160012 119.5124997  33.6099988 120.1339302 118.7407851  34.0110692
 120.5260012 117.1054997  31.6619988 121.0620012 117.5564997  31.0099988
 119.6740012 116.9974997  31.2389988 120.4842178 117.1526390  31.5155756
 122.1080012 122.5444997  31.9009988 122.8580012 122.3884997  31.3279988
 121.7690012 123.3964997  31.6259988 122.1648921 122.6382968  31.7853561
 126.5230012 120.3594997  36.9299988 126.7160012 119.4284997  36.8179988
 127.3810012 120.7844997  36.9199988 126.6653020 120.2896389  36.9133361
 127.8400012 123.1484997  35.0069988 127.5590012 123.8574997  34.4299988
 128.7830012 123.0754997  34.8559988 127.9289027 123.2357646  34.9075551
 118.5920012 119.9334997  36.0809988 117.8250012 119.4014997  35.8709988
 119.2710012 119.6234997  35.4809988 118.5787022 119.8187506  35.9711648
 121.3320012 114.5614997  32.0929988 121.2330012 115.5084997  31.9879988
 120.5890012 114.1894997  31.6179988 121.2180564 114.6405902  32.0144560
 122.5960012 118.8834997  35.6569988 122.3600012 118.6634997  36.5589988
 121.8120012 118.6764997  35.1469988 122.4578628 118.8254760  35.7113932
 125.3110012 118.0104997  34.7329988 124.3640012 118.0424997  34.8649988
 125.6240012 117.3854997  35.3859988 125.2235475 117.9303207  34.8394455
 126.9450012 116.6444997  36.7379988 126.8490012 115.6924997  36.7319988
 126.6240012 116.9134997  37.5979988 126.8884070 116.5504035  36.8535441
 116.7720012 117.8544997  35.7849988 116.9840012 117.1474997  35.1749988
 116.6610012 117.4164997  36.6289988 116.7859721 117.6987084  35.8156843
 121.5530012 113.8554997  34.7649988 122.2650012 113.2154997  34.7509988
 121.4520012 114.1224997  33.8509988 121.6367939 113.8039938  34.6395650
 121.9070012 115.5384997  36.8179988 121.7750012 115.0624997  35.9979988
 121.3080012 116.2824997  36.7629988 121.8079071 115.5739618  36.6982886
 121.4530012 132.4214997  19.9949988 122.3860012 132.5794997  20.1379988
 121.1890012 133.0964997  19.3699988 121.5449510 132.5343611  19.9300741
 115.0220012 127.0574997  19.4769988 115.9360012 127.1364997  19.7509988
 115.0290012 126.3704997  18.8109988 115.1481131 126.9753961  19.4244393
 113.6710012 132.4504997  24.5549988 113.0240012 131.9884997  24.0219988
 114.0250012 131.7784997  25.1369988 113.6303849 132.2964723  24.5607959
 114.5410012 130.5314997  26.3589988 114.2060012 129.6514997  26.5309988
 114.7630012 130.8764997  27.2239988 114.5251783 130.4577500  26.4994208
 132.0890012 131.3404997  29.3399988 132.0680012 131.5254997  30.2789988
 132.7800012 131.9094997  28.9989988 132.1794618 131.4426606  29.4223864
 131.6530012 130.9084997  32.2619988 131.1650012 130.1724997  31.8909988
 132.2020012 130.5144997  32.9399988 131.6604872 130.7546249  32.3029160
 130.1030012 126.6974997  36.8999988 129.2370012 126.5924997  37.2939988
 130.4800012 127.4564997  37.3459988 130.0353308 126.7856900  37.0142393
 131.4040012 124.9544997  22.4139988 132.2540012 125.3754997  22.5409988
 131.4100012 124.2144997  23.0209988 131.5211372 124.9120803  22.5134344
 131.7990012 123.0074997  24.2379988 131.0720012 122.5284997  24.6349988
 132.3800012 123.2134997  24.9699988 131.7779375 122.9697090  24.3914129
 131.5580012 125.7924997  29.1849988 132.3910012 125.4144997  28.9049988
 131.6700012 126.7354997  29.0659988 131.6872647 125.8682218  29.1305487
 130.0440012 128.6704997  31.4919988 129.3970012 128.9954997  32.1179988
 129.5270012 128.2304997  30.8179988 129.8854029 128.6555004  31.4865827
 132.0670012 122.9084997  20.6289988 131.5450012 123.2654997  19.9099988
 132.0340012 123.5834997  21.3069988 131.9911634 123.0485413  20.6223145
 130.4160012 120.1484997  19.1799988 130.5120012 120.8154997  18.4989988
 130.2760012 119.3324997  18.6979988 130.4102135 120.1294500  19.0218491
 129.5850012 121.5284997  24.8009988 129.4350012 120.5834997  24.7799988
 129.2320012 121.8094997  25.6439988 129.5166625 121.4370441  24.9122346
 114.6210012 123.6064997  28.8109988 114.8050012 123.5244997  27.8749988
 115.4700012 123.4824997  29.2349988 114.7610139 123.5785003  28.7401455
 130.4420012 123.4984997  34.4389988 131.0250012 122.7644997  34.6309988
 131.0060012 124.2704997  34.4859988 130.5979769 123.5024227  34.4716159
 131.9380012 121.4014997  35.1239988 131.0750012 121.0224997  34.9579988
 132.5430012 120.6624997  35.0499988 131.9015979 121.2498023  35.0912817
 129.6630012 117.5564997  18.2969988 130.2740012 117.1854997  18.9339988
 128.8270012 117.1354997  18.4929988 129.6335032 117.4487554  18.4107035
 129.2960012 119.1114997  23.2629988 129.5760012 118.2044997  23.3869988
 130.0550012 119.5454997  22.8739988 129.4369277 119.0460942  23.2273682
 129.9080012 119.6924997  28.6989988 130.8410012 119.9044997  28.6649988
 129.6730012 119.7944997  29.6209988 130.0038036 119.7352769  28.8189976
 129.9370012 120.4294997  31.4749988 129.0940012 120.6974997  31.8409988
 130.3790012 121.2514997  31.2639988 129.8814158 120.5773291  31.4965491
 114.2180012 118.8774997  34.9519988 115.1380012 118.7554997  35.1879988
 113.7690012 118.1274997  35.3409988 114.2831580 118.7593727  35.0369006
 132.2200012 114.4094997  36.8279988 132.5700012 113.7554997  36.2229988
 132.3670012 115.2464997  36.3889988 132.2878419 114.4331591  36.6857118
 129.9090012 116.3744997  23.3109988 130.0920012 115.9254997  24.1369988
 129.3100012 115.7894997  22.8479988 129.8530202 116.2339975  23.3613275
 115.4390012 117.1894997  27.8429988 115.8850012 116.3974997  28.1449988
 115.9060012 117.9054997  28.2739988 115.5630172 117.1780624  27.9424820
 113.7430012 120.1884997  28.9119988 114.2350012 119.9674997  28.1209988
 114.1060012 121.0294997  29.1929988 113.8593126 120.2718357  28.8417531
 131.7400012 116.5184997  35.1779988 130.8220012 116.7894997  35.1419988
 131.8630012 115.9834997  34.3929988 131.6311066 116.4832892  35.0670487
 131.7760012 116.4414997  19.8389988 132.1880012 115.7204997  19.3639988
 132.4580012 117.1114997  19.8979988 131.9245885 116.4332368  19.7818915
 114.0570012 116.4464997  22.9659988 113.1320012 116.6554997  22.8369988
 114.5110012 116.9304997  22.2769988 113.9917368 116.5405993  22.8551226
 128.8280012 131.4304997  24.9119988 129.4800012 131.0834997  24.3039988
 129.3380012 131.9194997  25.5579988 128.9862637 131.4490597  24.9160236
 114.0210012 115.1844997  31.3109988 113.3560012 114.9384997  31.9539988
 113.5780012 115.8064997  30.7329988 113.8700956 115.2348632  31.3209352
 116.2130012 128.3594997  35.4549988 115.3920012 128.5344997  34.9949988
 115.9600012 128.2864997  36.3759988 116.0666164 128.3735622  35.5164923
 119.1670012 129.3344997  31.7139988 118.7420012 130.1434997  31.4309988
 120.0710012 129.4194997  31.4119988 119.2310271 129.4568469  31.6343776
 123.4780012 130.7334997  34.6729988 123.6630012 130.3994997  35.5509988
 124.3240012 131.0424997  34.3509988 123.6177539 130.7296047  34.7495605
 125.8230012 132.0194997  33.9169988 126.5000012 131.3864997  33.6769988
 126.1450012 132.4204997  34.7239988 125.9591637 131.9871154  33.9932793
 130.7400012 114.6084997  32.9969988 129.9280012 114.9334997  32.6089988
 130.9730012 113.8484997  32.4639988 130.6603423 114.5502436  32.8718253
 116.5690012 132.5904997  31.7609988 115.8480012 133.0304997  31.3099988
 116.2030012 132.3394997  32.6099988 116.4209804 132.6167698  31.8139840
 119.0360012 132.1904997  30.7909988 118.1710012 132.2624997  31.1949988
 118.9810012 132.7374997  30.0069988 118.9102085 132.2742685  30.7403362
 123.7460012 132.0784997  29.9659988 123.2900012 132.6074997  29.3119988
 123.9090012 132.6814997  30.6919988 123.7055585 132.2324468  29.9745062
 126.0740012 130.9564997  30.9109988 125.1690012 131.1214997  30.6459988
 126.5030012 131.8094997  30.8459988 126.0080799 131.0944483  30.8659182
 128.6780012 132.5264997  31.2059988 128.4960012 133.4424997  30.9959988
 128.8550012 132.1164997  30.3599988 128.6770210 132.5964822  31.0627885
 115.9830012 131.2134997  28.6709988 115.9650012 130.7884997  29.5289988
 116.7880012 130.8954997  28.2629988 116.0893875 131.1123812  28.7331655
 118.1250012 129.9234997  27.3259988 117.9060012 129.0074997  27.4959988
 118.9490012 130.0634997  27.7919988 118.2064420 129.8170520  27.4122774
 120.6620012 130.3934997  28.1749988 120.8750012 129.5054997  27.8879988
 120.7260012 130.3594997  29.1289988 120.6998232 130.2673102  28.2647397
 124.1700012 116.0574997  27.3189988 123.4960012 115.4284997  27.5749988
 124.7340012 115.5734997  26.7159988 124.1539230 115.9058744  27.2725340
 129.3130012 114.1654997  27.4319988 129.9170012 114.7124997  26.9299988
 128.4430012 114.4844997  27.1919988 129.2781241 114.2835806  27.3307654
 131.0400012 115.3034997  25.7649988 131.6520012 114.7894997  25.2389988
 131.4220012 116.1814997  25.7889988 131.1754540 115.3517140  25.6961830
 116.4970012 114.6914997  25.1409988 115.7200012 114.4574997  24.6339988
 117.0270012 113.8944997  25.1499988 116.4622330 114.5516988  25.0727742
 115.3330012 114.4894997  20.9449988 115.7720012 115.1004997  20.3529988
 114.7000012 115.0274997  21.4189988 115.3074514 114.6459257  20.9280930
 121.0760012 114.6184997  24.9549988 121.9510012 115.0064997  24.9249988
 120.9400012 114.4034997  25.8769988 121.1773695 114.6425184  25.0756440
 126.6330012 114.6484997  26.6039988 126.7090012 114.7434997  25.6539988
 126.3580012 113.7404997  26.7329988 126.6062321 114.5387867  26.4915079
 127.9860012 114.6744997  22.2959988 127.2840012 115.2894997  22.0869988
 127.5420012 113.8364997  22.4269988 127.8296330 114.6455783  22.2850328
 115.2340012 130.4374997  21.8429988 114.5490012 130.3994997  21.1749988
 115.2380012 131.3504997  22.1309988 115.1408193 130.5557016  21.7905284
 117.1940012 116.4054997  19.3869988 117.6860012 115.7754997  18.8599988
 117.8180012 116.7014997  20.0509988 117.3455446 116.3593199  19.4045980
 122.2200012 116.6984997  21.8439988 122.3980012 116.0524997  22.5269988
 122.1670012 117.5324997  22.3119988 122.2371829 116.7227985  22.0005940
 124.0990012 131.6474997  20.2399988 124.9650012 132.0134997  20.0619988
 123.8520012 131.2074997  19.4259988 124.1842392 131.6381756  20.1056289
 130.8080012 131.2104997  22.9189988 130.6130012 130.4624997  22.3539988
 130.7690012 131.9684997  22.3359988 130.7760380 131.2106099  22.7628384
 116.4550012 115.2054997  34.6589988 116.0890012 114.4404997  35.1019988
 117.3680012 115.2344997  34.9459988 116.5282790 115.1047224  34.7584070
 118.4280012 114.5564997  36.1949988 119.3260012 114.2824997  36.0099988
 118.0410012 113.8134997  36.6589988 118.4986612 114.4185914  36.2323643
 117.0520012 131.3574997  18.8679988 116.7850012 131.6444997  19.7409988
 117.8240012 130.8114997  19.0199988 117.1197488 131.3230294  19.0081050
 126.8490012 113.8884997  36.3769988 126.9260012 113.4624997  37.2309988
 127.7430012 113.9024997  36.0339988 126.9803428 113.8320879  36.4475310
 130.0250012 129.9614997  35.0689988 129.2430012 129.7754997  34.5499988
 129.9530012 130.8904997  35.2869988 129.9081777 130.0616492  35.0274048
 144.4310012 123.8474997  25.0999988 144.5200012 124.7914997  24.9679988
 143.7930012 123.5724997  24.4419988 144.3569081 123.9394830  24.9929614
 143.3640012 123.1024997  28.5189988 143.3260012 122.4564997  29.2239988
 143.0420012 122.6364997  27.7479988 143.3152333 122.9509408  28.5112978
 135.7330012 122.7174997  30.1119988 135.7740012 122.0914997  30.8349988
 136.4360012 123.3414997  30.2939988 135.8336363 122.7161196  30.2356044
 136.6560012 127.1674997  28.6469988 136.2870012 126.3654997  28.2769988
 137.5970012 126.9984997  28.6929988 136.7327289 127.0350153  28.6026316
 133.2660012 120.8274997  24.0399988 132.8190012 121.6734997  24.0209988
 132.7050012 120.2474997  23.5239988 133.1289900 120.8649916  23.9676801
 133.9770012 122.9894997  26.1659988 134.1900012 122.2194997  26.6929988
 134.7150012 123.0784997  25.5619988 134.1058496 122.8961394  26.1565300
 144.1820012 131.1464997  27.0329988 144.8020012 130.4694997  26.7589988
 143.9740012 130.9284997  27.9409988 144.2386904 131.0243870  27.1183365
 141.7540012 125.5354997  28.9249988 142.0580012 124.8494997  28.3299988
 142.4750012 125.6534997  29.5429988 141.8930671 125.4576304  28.9271816
 144.8950012 119.9294997  29.2529988 145.0370012 118.9834997  29.2729988
 144.7880012 120.1364997  28.3239988 144.8999863 119.8279534  29.1302339
 138.0490012 118.0304997  26.5249988 138.0930012 118.8904997  26.1069988
 137.5920012 117.4784997  25.8909988 137.9932185 118.0735799  26.3820299
 134.6700012 120.4274997  27.2869988 135.3230012 119.8774997  27.7189988
 134.6940012 120.1534997  26.3699988 134.7626683 120.3151466  27.2222123
 139.8260012 121.9774997  26.5019988 140.4420012 121.4514997  27.0119988
 139.2400012 121.3374997  26.0989988 139.8310810 121.8189208  26.5173173
 136.8600012 116.9484997  30.5989988 136.6410012 117.4784997  29.8329988
 136.1920012 117.1754997  31.2459988 136.7397600 117.0516906  30.5816379
 144.2290012 126.4484997  24.1429988 143.9330012 126.1264997  23.2919988
 143.9040012 127.3484997  24.1839988 144.1446371 126.5260215  24.0321801
 139.4290012 124.6244997  30.8859988 138.6890012 125.2224997  30.9899988
 140.1430012 125.1784997  30.5709988 139.4242237 124.7812831  30.8576465
 136.4530012 118.8404997  28.5509988 137.0670012 119.4734997  28.9249988
 136.9650012 118.3684997  27.8949988 136.6062296 118.8632370  28.5134252
 137.8360012 126.5884997  31.6739988 137.8310012 127.4684997  31.2959988
 136.9830012 126.5054997  32.0989988 137.7199464 126.6976117  31.6797907
 133.9570012 126.2594997  22.4559988 133.6850012 126.4884997  21.5669988
 134.0030012 127.0974997  22.9159988 133.9260094 126.4041213  22.3965697
 140.8860012 114.2544997  28.0519988 140.7690012 113.3054997  27.9969988
 140.0310012 114.5864997  28.3249988 140.7543733 114.1695409  28.0813897
 143.1530012 123.0914997  22.5519988 142.4410012 123.6264997  22.1999988
 143.8440012 123.1474997  21.8919988 143.1490132 123.1722543  22.4146289
 143.2060012 121.5494997  19.5909988 143.9070012 121.5714997  20.2419988
 143.5090012 120.9214997  18.9349988 143.3427830 121.4676566  19.5913711
 138.2040012 123.9314997  25.3859988 137.8730012 123.5614997  24.5679988
 138.7920012 123.2614997  25.7329988 138.2381873 123.7901156  25.3208102
 139.5700012 127.3594997  28.0679988 139.4760012 126.7814997  27.3109988
 140.3000012 126.9884997  28.5639988 139.6557981 127.2302390  28.0314165
 138.5700012 122.7004997  29.0199988 139.1360012 122.8214997  28.2569988
 138.8890012 123.3374997  29.6589988 138.6905786 122.8031884  29.0020040
 144.8790012 128.2034997  29.7539988 144.6390012 128.8654997  30.4019988
 144.6810012 127.3694997  30.1789988 144.8193808 128.1813134  29.9001524
 139.4500012 127.0994997  33.7369988 139.1390012 127.8814997  34.1919988
 138.8000012 126.9464997  33.0509988 139.3195558 127.1859105  33.7065871
 136.3700012 123.2974997  32.9659988 136.4410012 123.9484997  33.6639988
 135.4800012 123.4004997  32.6309988 136.2593117 123.4005936  33.0162700
 143.1560012 129.2004997  24.6239988 143.6300012 129.4954997  25.4019988
 142.5930012 129.9384997  24.3909988 143.1447653 129.3406932  24.6990136
 137.6900012 129.1714997  34.4999988 137.6970012 129.0354997  33.5529988
 136.7740012 129.0534997  34.7519988 137.5671714 129.1369430  34.4044666
 137.1940012 123.0014997  22.9759988 136.9020012 123.7694997  22.4849988
 136.5200012 122.3414997  22.8129988 137.0629081 123.0174406  22.8867340
 133.2870012 125.3644997  31.7909988 132.7860012 125.3364997  30.9759988
 133.2920012 124.4584997  32.0999988 133.2191526 125.2382278  31.7212872
 133.0370012 128.1444997  28.6749988 133.9830012 128.0004997  28.6559988
 132.9250012 128.9284997  29.2119988 133.1512727 128.2308046  28.7450072
 142.2140012 128.3844997  33.2329988 142.3010012 129.2104997  33.7079988
 141.3500012 128.0544997  33.4819988 142.1091964 128.4529878  33.3316549
 142.6280012 132.1564997  23.0389988 142.5530012 132.0354997  22.0929988
 142.6610012 133.1064997  23.1579988 142.6221848 132.2682500  22.9254834
 136.2810012 130.9454997  24.8199988 136.4340012 130.5974997  25.6989988
 135.4310012 130.5894997  24.5649988 136.1868962 130.8496650  24.9058340
 135.5360012 126.6874997  32.8339988 135.7520012 126.3264997  33.6929988
 134.6810012 126.3134997  32.6239988 135.4499292 126.5874111  32.9233386
 138.1550012 115.1574997  28.8289988 137.2930012 115.0704997  28.4219988
 138.1320012 116.0134997  29.2569988 138.0340330 115.2612765  28.8311863
 142.8180012 114.8794997  32.2039988 143.2380012 114.4644997  32.9569988
 141.8850012 114.7014997  32.3209988 142.7493644 114.7985900  32.3229539
 142.4790012 117.3724997  19.4889988 142.2260012 117.3914997  20.4119988
 142.2230012 116.5004997  19.1879988 142.4097790 117.2572437  19.5746263
 138.2460012 120.1234997  29.9239988 137.6040012 120.0824997  30.6329988
 138.2830012 121.0494997  29.6869988 138.1631324 120.2431559  29.9889824
 138.2430012 120.3444997  24.8359988 137.3500012 120.0034997  24.7779988
 138.6930012 119.9674997  24.0809988 138.1817305 120.2468484  24.7259177
 143.7780012 120.7604997  23.6529988 143.3690012 121.5754997  23.3619988
 144.4990012 120.6204997  23.0389988 143.8194537 120.8532018  23.5301342
 142.8800012 120.9354997  35.1409988 142.3180012 120.2314997  35.4619988
 143.7070012 120.8154997  35.6089988 142.9147095 120.8227883  35.2482330
 144.7830012 120.2064997  26.4669988 144.5880012 120.8114997  25.7519988
 144.9640012 119.3724997  26.0329988 144.7807614 120.1766300  26.3104405
 135.9960012 120.4434997  31.7909988 135.9580012 120.8434997  32.6599988
 135.5050012 119.6264997  31.8819988 135.9244684 120.3878069  31.9221059
 139.3620012 117.8174997  18.5899988 138.9310012 117.3724997  19.3199988
 138.6440012 118.1894997  18.0779988 139.2059438 117.8068940  18.6206799
 132.6040012 117.5594997  25.6419988 133.2350012 117.5304997  26.3609988
 133.0530012 117.1344997  24.9119988 132.7510774 117.4980492  25.6416553
 133.8780012 118.3054997  21.0659988 134.3520012 118.8964997  20.4809988
 133.1610012 118.8364997  21.4129988 133.8459341 118.4580867  21.0328836
 144.0470012 121.8444997  31.1389988 144.3700012 121.2134997  30.4959988
 143.6070012 121.3094997  31.7989988 144.0316895 121.6858440  31.1402850
 140.8240012 117.7714997  25.9229988 139.9130012 117.8284997  26.2109988
 141.3300012 117.7114997  26.7329988 140.7675413 117.7711985  26.0720622
 135.6530012 119.4004997  24.7489988 134.7630012 119.5004997  24.4089988
 135.9490012 118.5584997  24.4029988 135.5712823 119.3003545  24.6557213
 139.3060012 119.4004997  22.4059988 140.2370012 119.5294997  22.5839988
 139.0910012 120.0704997  21.7559988 139.4044247 119.5086565  22.3425747
 137.9800012 120.5954997  19.9729988 137.4370012 120.2154997  19.2809988
 138.8130012 120.7894997  19.5439988 138.0184399 120.5698124  19.8204526
 136.1150012 125.1524997  35.0719988 136.8470012 125.4064997  35.6329988
 135.3350012 125.3564997  35.5869988 136.1098232 125.2149177  35.2185760
 142.1440012 120.5594997  27.8099988 142.7090012 120.0124997  27.2629988
 141.9970012 120.0374997  28.5979988 142.2012918 120.4142024  27.8418454
 137.1460012 116.6954997  24.2279988 136.8290012 115.7934997  24.1929988
 137.9280012 116.6974997  23.6749988 137.2082284 116.5721628  24.1484783
 140.7710012 118.9474997  30.2239988 139.9350012 119.4014997  30.3339988
 141.2950012 119.2234997  30.9759988 140.7274414 119.0469376  30.3407136
 141.3150012 125.1604997  21.9079988 140.5700012 124.6534997  21.5859988
 141.1810012 125.2094997  22.8549988 141.1948776 125.0976940  21.9918647
 142.8340012 125.3444997  33.1449988 142.4890012 124.9634997  33.9519988
 142.6340012 126.2784997  33.2169988 142.7598061 125.4185228  33.2650961
 136.4400012 124.4554997  27.6779988 137.1850012 124.4534997  27.0769988
 136.5180012 123.6324997  28.1599988 136.5525518 124.3439315  27.6608929
 143.4410012 126.6194997  20.9339988 143.1450012 127.4454997  21.3149988
 142.7380012 125.9994997  21.1299988 143.3054914 126.6488199  21.0126443
 133.4480012 122.9164997  32.9929988 133.6710012 122.4984997  33.8249988
 132.8460012 122.3034997  32.5699988 133.3971759 122.7764668  33.0497022
 140.4640012 122.4334997  35.2059988 140.1680012 122.2674997  34.3109988
 141.3960012 122.2134997  35.1949988 140.5494166 122.3810640  35.0820536
 138.8150012 127.9734997  25.0819988 139.3420012 128.7464997  24.8819988
 137.9350012 128.1984997  24.7809988 138.7681773 128.1098005  25.0139010
 134.5700012 122.8354997  19.6689988 135.1860012 123.4624997  20.0489988
 133.7080012 123.1514997  19.9409988 134.5377698 122.9639430  19.7577183
 140.2420012 125.6364997  24.6589988 140.0010012 126.5614997  24.6999988
 139.5010012 125.1774997  25.0549988 140.1088409 125.7011421  24.7181377
 140.7570012 129.7854997  30.9739988 141.1190012 130.6404997  30.7399988
 141.2880012 129.4934997  31.7139988 140.8784473 129.8631060  31.0420855
 138.9250012 130.6584997  24.2039988 137.9750012 130.7634997  24.2549988
 139.2770012 131.4784997  24.5489988 138.8424203 130.7838314  24.2576650
 144.3010012 125.8844997  30.6739988 143.8750012 125.6574997  31.5009988
 144.8810012 125.1464997  30.4919988 144.3211868 125.7535299  30.7625830
 135.0820012 117.6694997  32.5509988 134.1890012 118.0084997  32.4829988
 134.9830012 116.8144997  32.9689988 134.9464164 117.6002588  32.5982235
 134.7330012 129.4744997  30.9859988 134.9500012 128.5424997  30.9549988
 134.9790012 129.7484997  31.8689988 134.7959549 129.3840636  31.1011763
 140.5950012 127.9254997  18.1949988 140.8340012 127.1774997  17.6479988
 140.3260012 127.5374997  19.0279988 140.5913675 127.7706638  18.2326865
 139.5320012 127.4954997  20.6519988 139.6780012 126.9754997  21.4419988
 139.5290012 128.4024997  20.9579988 139.5515989 127.5468853  20.8016088
 135.9850012 124.7484997  21.1619988 135.2990012 125.1004997  21.7289988
 136.5070012 125.5114997  20.9149988 135.9616852 124.8998578  21.2062118
 143.8160012 117.4104997  31.4409988 144.5150012 117.4844997  32.0909988
 143.4350012 116.5464997  31.5949988 143.8601767 117.3037624  31.5508322
 144.6010012 117.0624997  22.5379988 144.8210012 117.5344997  21.7349988
 145.1590012 117.4574997  23.2079988 144.7064968 117.1804285  22.5187331
 142.2690012 129.1934997  21.4009988 141.4530012 129.6904997  21.4529988
 142.7990012 129.6684997  20.7609988 142.2289161 129.3257722  21.3215956
 141.8010012 118.7904997  23.3729988 142.6130012 119.2954997  23.4189988
 141.5560012 118.6454997  24.2869988 141.8790520 118.8400375  23.5028517
 142.3360012 119.7764997  32.5579988 142.4550012 120.3504997  33.3149988
 142.9920012 119.0884997  32.6719988 142.4409757 119.7621079  32.6770825
 142.6840012 115.8714997  24.3109988 142.3380012 116.4894997  24.9559988
 143.3430012 116.3724997  23.8299988 142.7257826 116.0235802  24.3340971
 139.6080012 130.2374997  21.3829988 139.7680012 131.0364997  20.8819988
 139.4100012 130.5434997  22.2679988 139.6031649 130.3884469  21.4339815
 138.3420012 116.9344997  20.9979988 138.2590012 117.8234997  21.3449988
 139.2320012 116.6694997  21.2299988 138.4509469 117.0201430  21.0767626
 136.6010012 127.3624997  20.0589988 137.1930012 128.0614997  20.3349988
 137.0600012 126.9294997  19.3389988 136.7441142 127.3997049  19.9994830
 134.9170012 120.0264997  19.1749988 134.8720012 120.9654997  19.3529988
 134.0290012 119.7904997  18.9049988 134.7908574 120.1231892  19.1628912
 135.7250012 114.8084997  27.8479988 135.4960012 114.8674997  26.9199988
 135.2820012 114.0164997  28.1539988 135.6338530 114.7095753  27.7624786
 134.6550012 128.7484997  24.0079988 133.8230012 129.2214997  24.0359988
 135.2010012 129.2584997  23.4099988 134.6149739 128.8821871  23.9309716
 133.9430012 131.3614997  35.3379988 134.4840012 131.1444997  36.0979988
 133.4620012 130.5554997  35.1489988 133.9519345 131.2229514  35.4163076
 138.5410012 130.2804997  36.9589988 139.3080012 129.8214997  37.2999988
 138.5190012 130.0544997  36.0289988 138.6431434 130.1870409  36.8800043
 142.6330012 129.7884997  18.3339988 141.9890012 129.1574997  18.6549988
 143.3950012 129.2574997  18.1019988 142.6478077 129.6302920  18.3466011
 133.8500012 125.1714997  36.2929988 133.9940012 124.2694997  36.0059988
 133.0780012 125.4574997  35.8049988 133.7653322 125.0868261  36.1877881
 138.1920012 125.5154997  18.4249988 138.2560012 124.7214997  18.9559988
 138.8450012 125.3964997  17.7349988 138.2890241 125.3907148  18.4044317
 140.5060012 125.1414997  35.7249988 140.1770012 125.4124997  34.8679988
 140.6580012 124.2004997  35.6379988 140.4814809 125.0513862  35.5958244
 143.5440012 126.5624997  18.1609988 143.2750012 126.7424997  19.0619988
 143.3380012 125.6364997  18.0299988 143.4793825 126.4620152  18.2665214
 134.6830012 122.3714997  35.7129988 135.0910012 121.5144997  35.5919988
 134.4230012 122.3864997  36.6339988 134.7037568 122.2560807  35.8209588
 139.3410012 123.4874997  20.7309988 138.8810012 123.0034997  21.4169988
 139.5960012 122.8194997  20.0949988 139.3124902 123.3308731  20.7389334
 138.6300012 121.3804997  33.0869988 138.0120012 122.0554997  33.3669988
 138.9740012 121.7014997  32.2539988 138.5919615 121.5162721  33.0126581
 140.4120012 121.7304997  18.9929988 140.2320012 121.5764997  18.0659988
 141.3620012 121.8384997  19.0379988 140.5157776 121.7240175  18.8721843
 143.6500012 123.8524997  36.3639988 144.6030012 123.9354997  36.3369988
 143.4890012 123.1404997  36.9839988 143.7586426 123.7676746  36.4440579
 138.9690012 118.7354997  34.1689988 139.1190012 118.0064997  33.5669988
 138.9720012 119.5124997  33.6099988 138.9899302 118.7407851  34.0110692
 139.3820012 117.1054997  31.6619988 139.9180012 117.5564997  31.0099988
 138.5300012 116.9974997  31.2389988 139.3402178 117.1526390  31.5155756
 140.9640012 122.5444997  31.9009988 141.7140012 122.3884997  31.3279988
 140.6250012 123.3964997  31.6259988 141.0208921 122.6382968  31.7853561
 137.4480012 119.9334997  36.0809988 136.6810012 119.4014997  35.8709988
 138.1270012 119.6234997  35.4809988 137.4347022 119.8187506  35.9711648
 140.1880012 114.5614997  32.0929988 140.0890012 115.5084997  31.9879988
 139.4450012 114.1894997  31.6179988 140.0740564 114.6405902  32.0144560
 141.4520012 118.8834997  35.6569988 141.2160012 118.6634997  36.5589988
 140.6680012 118.6764997  35.1469988 141.3138628 118.8254760  35.7113932
 144.1670012 118.0104997  34.7329988 143.2200012 118.0424997  34.8649988
 144.4800012 117.3854997  35.3859988 144.0795475 117.9303207  34.8394455
 135.6280012 117.8544997  35.7849988 135.8400012 117.1474997  35.1749988
 135.5170012 117.4164997  36.6289988 135.6419721 117.6987084  35.8156843
 140.4090012 113.8554997  34.7649988 141.1210012 113.2154997  34.7509988
 140.3080012 114.1224997  33.8509988 140.4927939 113.8039938  34.6395650
 140.7630012 115.5384997  36.8179988 140.6310012 115.0624997  35.9979988
 140.1640012 116.2824997  36.7629988 140.6639071 115.5739618  36.6982886
 140.3090012 132.4214997  19.9949988 141.2420012 132.5794997  20.1379988
 140.0450012 133.0964997  19.3699988 140.4009510 132.5343611  19.9300741
 133.8780012 127.0574997  19.4769988 134.7920012 127.1364997  19.7509988
 133.8850012 126.3704997  18.8109988 134.0041131 126.9753961  19.4244393
 132.5270012 132.4504997  24.5549988 131.8800012 131.9884997  24.0219988
 132.8810012 131.7784997  25.1369988 132.4863849 132.2964723  24.5607959
 133.3970012 130.5314997  26.3589988 133.0620012 129.6514997  26.5309988
 133.6190012 130.8764997  27.2239988 133.3811783 130.4577501  26.4994208
 133.4770012 123.6064997  28.8109988 133.6610012 123.5244997  27.8749988
 134.3260012 123.4824997  29.2349988 133.6170139 123.5785003  28.7401455
 133.0740012 118.8774997  34.9519988 133.9940012 118.7554997  35.1879988
 132.6250012 118.1274997  35.3409988 133.1391580 118.7593727  35.0369006
 134.2950012 117.1894997  27.8429988 134.7410012 116.3974997  28.1449988
 134.7620012 117.9054997  28.2739988 134.4190172 117.1780624  27.9424820
 132.5990012 120.1884997  28.9119988 133.0910012 119.9674997  28.1209988
 132.9620012 121.0294997  29.1929988 132.7153126 120.2718357  28.8417531
 132.9130012 116.4464997  22.9659988 131.9880012 116.6554997  22.8369988
 133.3670012 116.9304997  22.2769988 132.8477368 116.5405993  22.8551226
 132.8770012 115.1844997  31.3109988 132.2120012 114.9384997  31.9539988
 132.4340012 115.8064997  30.7329988 132.7260956 115.2348632  31.3209352
 135.0690012 128.3594997  35.4549988 134.2480012 128.5344997  34.9949988
 134.8160012 128.2864997  36.3759988 134.9226164 128.3735622  35.5164923
 138.0230012 129.3344997  31.7139988 137.5980012 130.1434997  31.4309988
 138.9270012 129.4194997  31.4119988 138.0870271 129.4568469  31.6343776
 142.3340012 130.7334997  34.6729988 142.5190012 130.3994997  35.5509988
 143.1800012 131.0424997  34.3509988 142.4737539 130.7296047  34.7495605
 144.6790012 132.0194997  33.9169988 145.3560012 131.3864997  33.6769988
 145.0010012 132.4204997  34.7239988 144.8151637 131.9871154  33.9932793
 135.4250012 132.5904997  31.7609988 134.7040012 133.0304997  31.3099988
 135.0590012 132.3394997  32.6099988 135.2769804 132.6167698  31.8139840
 137.8920012 132.1904997  30.7909988 137.0270012 132.2624997  31.1949988
 137.8370012 132.7374997  30.0069988 137.7662085 132.2742685  30.7403362
 142.6020012 132.0784997  29.9659988 142.1460012 132.6074997  29.3119988
 142.7650012 132.6814997  30.6919988 142.5615585 132.2324468  29.9745062
 134.8390012 131.2134997  28.6709988 134.8210012 130.7884997  29.5289988
 135.6440012 130.8954997  28.2629988 134.9453875 131.1123812  28.7331655
 136.9810012 129.9234997  27.3259988 136.7620012 129.0074997  27.4959988
 137.8050012 130.0634997  27.7919988 137.0624420 129.8170520  27.4122774
 139.5180012 130.3934997  28.1749988 139.7310012 129.5054997  27.8879988
 139.5820012 130.3594997  29.1289988 139.5558231 130.2673102  28.2647397
 143.0260012 116.0574997  27.3189988 142.3520012 115.4284997  27.5749988
 143.5900012 115.5734997  26.7159988 143.0099230 115.9058744  27.2725340
 135.3530012 114.6914997  25.1409988 134.5760012 114.4574997  24.6339988
 135.8830012 113.8944997  25.1499988 135.3182330 114.5516988  25.0727742
 134.1890012 114.4894997  20.9449988 134.6280012 115.1004997  20.3529988
 133.5560012 115.0274997  21.4189988 134.1634514 114.6459257  20.9280930
 139.9320012 114.6184997  24.9549988 140.8070012 115.0064997  24.9249988
 139.7960012 114.4034997  25.8769988 140.0333695 114.6425184  25.0756440
 134.0900012 130.4374997  21.8429988 133.4050012 130.3994997  21.1749988
 134.0940012 131.3504997  22.1309988 133.9968193 130.5557016  21.7905284
 136.0500012 116.4054997  19.3869988 136.5420012 115.7754997  18.8599988
 136.6740012 116.7014997  20.0509988 136.2015446 116.3593199  19.4045980
 141.0760012 116.6984997  21.8439988 141.2540012 116.0524997  22.5269988
 141.0230012 117.5324997  22.3119988 141.0931829 116.7227985  22.0005940
 142.9550012 131.6474997  20.2399988 143.8210012 132.0134997  20.0619988
 142.7080012 131.2074997  19.4259988 143.0402392 131.6381756  20.1056289
 135.3110012 115.2054997  34.6589988 134.9450012 114.4404997  35.1019988
 136.2240012 115.2344997  34.9459988 135.3842790 115.1047224  34.7584070
 137.2840012 114.5564997  36.1949988 138.1820012 114.2824997  36.0099988
 136.8970012 113.8134997  36.6589988 137.3546612 114.4185914  36.2323643
 135.9080012 131.3574997  18.8679988 135.6410012 131.6444997  19.7409988
 136.6800012 130.8114997  19.0199988 135.9757488 131.3230294  19.0081050
  12.4390012 142.7034997  25.0999988  12.5280012 143.6474997  24.9679988
  11.8010012 142.4284997  24.4419988  12.3649081 142.7954830  24.9929614
  11.3720012 141.9584997  28.5189988  11.3340012 141.3124997  29.2239988
  11.0500012 141.4924997  27.7479988  11.3232333 141.8069408  28.5112978
   3.7410012 141.5734997  30.1119988   3.7820012 140.9474997  30.8349988
   4.4440012 142.1974997  30.2939988   3.8416363 141.5721196  30.2356044
  15.0780012 144.8974997  26.8199988  14.6380012 144.1774997  27.2709988
  15.0650012 145.6184997  27.4499988  15.0160226 144.8963731  26.9668494
   1.2740012 139.6834997  24.0399988   0.8270012 140.5294997  24.0209988
   0.7130012 139.1034997  23.5239988   1.1369900 139.7209916  23.9676801
   1.9850012 141.8454997  26.1659988   2.1980012 141.0754997  26.6929988
   2.7230012 141.9344997  25.5619988   2.1138496 141.7521394  26.1565300
   9.7620012 144.3914997  28.9249988  10.0660012 143.7054997  28.3299988
  10.4830012 144.5094997  29.5429988   9.9010671 144.3136305  28.9271816
  18.4250012 135.9924997  29.7859988  18.4740012 136.6024997  30.5219988
  18.8500012 136.4534997  29.0629988  18.4891824 136.1383741  29.7890205
  12.9030012 138.7854997  29.2529988  13.0450012 137.8394997  29.2729988
  12.7960012 138.9924997  28.3239988  12.9079864 138.6839534  29.1302339
   6.0570012 136.8864997  26.5249988   6.1010012 137.7464997  26.1069988
   5.6000012 136.3344997  25.8909988   6.0012185 136.9295799  26.3820299
  13.7800012 137.0174997  24.9259988  14.4260012 136.6884997  25.5509988
  14.2900012 137.5354997  24.3029988  13.9374264 137.0424611  24.9273862
   2.6780012 139.2834997  27.2869988   3.3310012 138.7334997  27.7189988
   2.7020012 139.0094997  26.3699988   2.7706683 139.1711466  27.2222123
   7.8340012 140.8334997  26.5019988   8.4500012 140.3074997  27.0119988
   7.2480012 140.1934997  26.0989988   7.8390810 140.6749208  26.5173173
  18.8160012 137.4704997  32.0219988  18.1280012 138.1284997  31.9259988
  18.8320012 137.2734997  32.9579988  18.7238525 137.5340462  32.1354808
   4.8680012 135.8044997  30.5989988   4.6490012 136.3344997  29.8329988
   4.2000012 136.0314997  31.2459988   4.7477600 135.9076906  30.5816379
   7.4370012 143.4804997  30.8859988   6.6970012 144.0784997  30.9899988
   8.1510012 144.0344997  30.5709988   7.4322237 143.6372831  30.8576465
  15.5440012 136.3084997  26.9059988  15.3280012 135.5424997  27.4389988
  16.1990012 136.7804997  27.4189988  15.6030632 136.2675889  27.0482861
   4.4610012 137.6964997  28.5509988   5.0750012 138.3294997  28.9249988
   4.9730012 137.2244997  27.8949988   4.6142296 137.7192370  28.5134252
  15.8910012 135.0234997  30.5859988  15.1550012 135.6344997  30.5479988
  16.5740012 135.4384997  30.0589988  15.8826541 135.1631374  30.5095832
   8.8940012 133.1104997  28.0519988   8.7770012 132.1614997  27.9969988
   8.0390012 133.4424997  28.3249988   8.7623733 133.0255409  28.0813897
  16.6880012 144.9854997  32.7799988  16.8280012 144.3944997  32.0399988
  16.8550012 145.8584997  32.4229988  16.7296778 145.0226426  32.6306965
  11.1610012 141.9474997  22.5519988  10.4490012 142.4824997  22.1999988
  11.8520012 142.0034997  21.8919988  11.1570132 142.0282543  22.4146289
  11.2140012 140.4054997  19.5909988  11.9150012 140.4274997  20.2419988
  11.5170012 139.7774997  18.9349988  11.3507830 140.3236566  19.5913711
  18.5300012 141.3254997  30.8459988  17.8770012 142.0204997  30.9349988
  18.9950012 141.5354997  30.0359988  18.5035390 141.4489425  30.7486883
  14.5660012 142.1574997  23.5039988  13.8340012 142.3854997  24.0769988
  15.0140012 141.4434997  23.9589988  14.5263095 142.0922571  23.6439119
  14.4640012 140.3314997  32.5709988  14.5440012 141.0944997  33.1429988
  13.8620012 140.6104997  31.8809988  14.3935756 140.4737134  32.5560589
   6.2120012 142.7874997  25.3859988   5.8810012 142.4174997  24.5679988
   6.8000012 142.1174997  25.7329988   6.2461873 142.6461156  25.3208102
   6.5780012 141.5564997  29.0199988   7.1440012 141.6774997  28.2569988
   6.8970012 142.1934997  29.6589988   6.6985786 141.6591884  29.0020040
  13.4370012 141.3194997  21.1889988  14.0170012 141.4694997  21.9359988
  13.8510012 141.7904997  20.4659988  13.5722830 141.4036841  21.1934134
   4.3780012 142.1534997  32.9659988   4.4490012 142.8044997  33.6639988
   3.4880012 142.2564997  32.6309988   4.2673117 142.2565936  33.0162700
  17.1360012 133.0694997  21.0019988  16.2360012 133.2084997  21.2969988
  17.3880012 133.9004997  20.5999988  17.0468702 133.2009074  20.9880205
   5.2020012 141.8574997  22.9759988   4.9100012 142.6254997  22.4849988
   4.5280012 141.1974997  22.8129988   5.0709081 141.8734406  22.8867340
   1.2950012 144.2204997  31.7909988   0.7940012 144.1924997  30.9759988
   1.3000012 143.3144997  32.0999988   1.2271526 144.0942278  31.7212872
  16.3950012 139.1594997  34.8369988  15.9880012 139.6404997  34.1159988
  16.4360012 138.2544997  34.5289988  16.3448437 139.1029374  34.6966683
   6.1630012 134.0134997  28.8289988   5.3010012 133.9264997  28.4219988
   6.1400012 134.8694997  29.2569988   6.0420330 134.1172765  28.8311863
  10.8260012 133.7354997  32.2039988  11.2460012 133.3204997  32.9569988
   9.8930012 133.5574997  32.3209988  10.7573644 133.6545900  32.3229539
  14.1520012 137.4914997  33.0569988  13.6380012 137.3654997  33.8549988
  13.9970012 138.4034997  32.8129988  14.0606852 137.5976132  33.1332158
  14.9150012 142.3524997  18.8189988  14.9570012 142.1294997  17.8889988
  15.7640012 142.7514997  19.0089988  15.0355396 142.3759155  18.7173627
  10.4870012 136.2284997  19.4889988  10.2340012 136.2474997  20.4119988
  10.2310012 135.3564997  19.1879988  10.4177790 136.1132437  19.5746263
   6.2540012 138.9794997  29.9239988   5.6120012 138.9384997  30.6329988
   6.2910012 139.9054997  29.6869988   6.1711324 139.0991559  29.9889824
   6.2510012 139.2004997  24.8359988   5.3580012 138.8594997  24.7779988
   6.7010012 138.8234997  24.0809988   6.1897305 139.1028484  24.7259177
  11.7860012 139.6164997  23.6529988  11.3770012 140.4314997  23.3619988
  12.5070012 139.4764997  23.0389988  11.8274537 139.7092018  23.5301342
  10.8880012 139.7914997  35.1409988  10.3260012 139.0874997  35.4619988
  11.7150012 139.6714997  35.6089988  10.9227095 139.6787883  35.2482330
  12.7910012 139.0624997  26.4669988  12.5960012 139.6674997  25.7519988
  12.9720012 138.2284997  26.0329988  12.7887614 139.0326300  26.3104405
   4.0040012 139.2994997  31.7909988   3.9660012 139.6994997  32.6599988
   3.5130012 138.4824997  31.8819988   3.9324684 139.2438069  31.9221059
   7.3700012 136.6734997  18.5899988   6.9390012 136.2284997  19.3199988
   6.6520012 137.0454997  18.0779988   7.2139438 136.6628940  18.6206799
   0.6120012 136.4154997  25.6419988   1.2430012 136.3864997  26.3609988
   1.0610012 135.9904997  24.9119988   0.7590774 136.3540492  25.6416553
   1.8860012 137.1614997  21.0659988   2.3600012 137.7524997  20.4809988
   1.1690012 137.6924997  21.4129988   1.8539341 137.3140867  21.0328836
  12.0550012 140.7004997  31.1389988  12.3780012 140.0694997  30.4959988
  11.6150012 140.1654997  31.7989988  12.0396895 140.5418441  31.1402850
   8.8320012 136.6274997  25.9229988   7.9210012 136.6844997  26.2109988
   9.3380012 136.5674997  26.7329988   8.7755413 136.6271985  26.0720622
   3.6610012 138.2564997  24.7489988   2.7710012 138.3564997  24.4089988
   3.9570012 137.4144997  24.4029988   3.5792823 138.1563546  24.6557213
   7.3140012 138.2564997  22.4059988   8.2450012 138.3854997  22.5839988
   7.0990012 138.9264997  21.7559988   7.4124247 138.3646565  22.3425747
  13.2370012 135.8624997  29.1869988  12.5610012 135.9934997  29.8509988
  12.7520012 135.7074997  28.3769988  13.0787145 135.8594905  29.1684517
   5.9880012 139.4514997  19.9729988   5.4450012 139.0714997  19.2809988
   6.8210012 139.6454997  19.5439988   6.0264399 139.4258124  19.8204526
   4.1230012 144.0084997  35.0719988   4.8550012 144.2624997  35.6329988
   3.3430012 144.2124997  35.5869988   4.1178232 144.0709177  35.2185760
  10.1520012 139.4154997  27.8099988  10.7170012 138.8684997  27.2629988
  10.0050012 138.8934997  28.5979988  10.2092918 139.2702024  27.8418454
   5.1540012 135.5514997  24.2279988   4.8370012 134.6494997  24.1929988
   5.9360012 135.5534997  23.6749988   5.2162284 135.4281628  24.1484783
   8.7790012 137.8034997  30.2239988   7.9430012 138.2574997  30.3339988
   9.3030012 138.0794997  30.9759988   8.7354414 137.9029376  30.3407136
   9.3230012 144.0164997  21.9079988   8.5780012 143.5094997  21.5859988
   9.1890012 144.0654997  22.8549988   9.2028776 143.9536940  21.9918647
  16.4730012 143.1494997  30.6949988  17.1150012 143.6064997  30.1509988
  15.6430012 143.2624997  30.2319988  16.4485963 143.2272704  30.5580177
  13.2210012 136.8304997  20.1079988  12.2820012 136.9424997  19.9559988
  13.5180012 137.6874997  20.4139988  13.1327666 136.9616443  20.1285768
  10.8420012 144.2004997  33.1449988  10.4970012 143.8194997  33.9519988
  10.6420012 145.1344997  33.2169988  10.7678061 144.2745228  33.2650961
  13.9390012 138.6974997  21.7679988  14.8310012 138.5604997  22.0869988
  13.9960012 139.4884997  21.2319988  14.0686285 138.7856660  21.7391691
   4.4480012 143.3114997  27.6779988   5.1930012 143.3094997  27.0769988
   4.5260012 142.4884997  28.1599988   4.5605518 143.1999315  27.6608929
   1.4560012 141.7724997  32.9929988   1.6790012 141.3544997  33.8249988
   0.8540012 141.1594997  32.5699988   1.4051759 141.6324668  33.0497022
   8.4720012 141.2894997  35.2059988   8.1760012 141.1234997  34.3109988
   9.4040012 141.0694997  35.1949988   8.5574166 141.2370640  35.0820536
  18.8240012 138.9074997  21.4629988  18.2700012 138.5114997  20.7909988
  18.9240012 139.8174997  21.1849988  18.7617059 138.9763586  21.3334401
  18.7870012 144.7074997  34.2999988  17.9360012 144.9454997  33.9329988
  19.3780012 144.6904997  33.5469988  18.7502487 144.7378258  34.1478893
  14.2800012 142.5014997  28.9489988  13.3510012 142.2694997  28.9219988
  14.7310012 141.7244997  28.6189988  14.2139216 142.3647238  28.9006917
   2.5780012 141.6914997  19.6689988   3.1940012 142.3184997  20.0489988
   1.7160012 142.0074997  19.9409988   2.5457698 141.8199430  19.7577183
   8.2500012 144.4924997  24.6589988   8.0090012 145.4174997  24.6999988
   7.5090012 144.0334997  25.0549988   8.1168409 144.5571421  24.7181377
  12.3090012 144.7404997  30.6739988  11.8830012 144.5134997  31.5009988
  12.8890012 144.0024997  30.4919988  12.3291868 144.6095299  30.7625830
   3.0900012 136.5254997  32.5509988   2.1970012 136.8644997  32.4829988
   2.9910012 135.6704997  32.9689988   2.9544164 136.4562588  32.5982235
  15.3780012 144.3424997  21.9749988  15.1000012 143.6144997  22.5309988
  16.3050012 144.4614997  22.1799988  15.4653124 144.2588802  22.0788845
   3.9930012 143.6044997  21.1619988   3.3070012 143.9564997  21.7289988
   4.5150012 144.3674997  20.9149988   3.9696852 143.7558578  21.2062118
  11.8240012 136.2664997  31.4409988  12.5230012 136.3404997  32.0909988
  11.4430012 135.4024997  31.5949988  11.8681767 136.1597624  31.5508322
  12.6090012 135.9184997  22.5379988  12.8290012 136.3904997  21.7349988
  13.1670012 136.3134997  23.2079988  12.7144968 136.0364285  22.5187331
   9.8090012 137.6464997  23.3729988  10.6210012 138.1514997  23.4189988
   9.5640012 137.5014997  24.2869988   9.8870520 137.6960375  23.5028517
  10.3440012 138.6324997  32.5579988  10.4630012 139.2064997  33.3149988
  11.0000012 137.9444997  32.6719988  10.4489757 138.6181079  32.6770825
  10.6920012 134.7274997  24.3109988  10.3460012 135.3454997  24.9559988
  11.3510012 135.2284997  23.8299988  10.7337826 134.8795802  24.3340971
   6.3500012 135.7904997  20.9979988   6.2670012 136.6794997  21.3449988
   7.2400012 135.5254997  21.2299988   6.4589469 135.8761430  21.0767626
  16.5490012 136.5394997  33.3929988  15.6320012 136.8024997  33.3049988
  16.8840012 136.5364997  32.4959988  16.4689900 136.5750224  33.2597919
  15.1510012 140.2904997  27.4879988  14.3530012 139.8754997  27.1599988
  15.5960012 139.5994997  27.9789988  15.1019885 140.1403543  27.5094889
   2.9250012 138.8824997  19.1749988   2.8800012 139.8214997  19.3529988
   2.0370012 138.6464997  18.9049988   2.7988574 138.9791892  19.1628912
   3.7330012 133.6644997  27.8479988   3.5040012 133.7234997  26.9199988
   3.2900012 132.8724997  28.1539988   3.6418530 133.5655753  27.7624786
   1.8580012 144.0274997  36.2929988   2.0020012 143.1254997  36.0059988
   1.0860012 144.3134997  35.8049988   1.7733322 143.9428261  36.1877881
   6.2000012 144.3714997  18.4249988   6.2640012 143.5774997  18.9559988
   6.8530012 144.2524997  17.7349988   6.2970241 144.2467148  18.4044317
   8.5140012 143.9974997  35.7249988   8.1850012 144.2684997  34.8679988
   8.6660012 143.0564997  35.6379988   8.4894809 143.9073862  35.5958244
  14.2480012 143.9134997  33.1089988  14.9940012 144.5014997  32.9889988
  13.4910012 144.4954997  33.1719988  14.2477554 144.0727011  33.1010907
   2.6910012 141.2274997  35.7129988   3.0990012 140.3704997  35.5919988
   2.4310012 141.2424997  36.6339988   2.7117568 141.1120807  35.8209588
   7.3490012 142.3434997  20.7309988   6.8890012 141.8594997  21.4169988
   7.6040012 141.6754997  20.0949988   7.3204902 142.1868731  20.7389334
   6.6380012 140.2364997  33.0869988   6.0200012 140.9114997  33.3669988
   6.9820012 140.5574997  32.2539988   6.5999615 140.3722721  33.0126581
   8.4200012 140.5864997  18.9929988   8.2400012 140.4324997  18.0659988
   9.3700012 140.6944997  19.0379988   8.5237776 140.5800175  18.8721843
  11.6580012 142.7084997  36.3639988  12.6110012 142.7914997  36.3369988
  11.4970012 141.9964997  36.9839988  11.7666426 142.6236746  36.4440579
  17.8100012 142.9414997  18.4389988  17.5360012 142.5164997  17.6259988
  17.8490012 143.8724997  18.2219988  17.7777699 143.0092484  18.2983610
   6.9770012 137.5914997  34.1689988   7.1270012 136.8624997  33.5669988
   6.9800012 138.3684997  33.6099988   6.9979302 137.5967851  34.0110692
   7.3900012 135.9614997  31.6619988   7.9260012 136.4124997  31.0099988
   6.5380012 135.8534997  31.2389988   7.3482178 136.0086390  31.5155756
   8.9720012 141.4004997  31.9009988   9.7220012 141.2444997  31.3279988
   8.6330012 142.2524997  31.6259988   9.0288921 141.4942968  31.7853561
  13.3870012 139.2154997  36.9299988  13.5800012 138.2844997  36.8179988
  14.2450012 139.6404997  36.9199988  13.5293020 139.1456389  36.9133361
  14.7040012 142.0044997  35.0069988  14.4230012 142.7134997  34.4299988
  15.6470012 141.9314997  34.8559988  14.7929027 142.0917646  34.9075551
   5.4560012 138.7894997  36.0809988   4.6890012 138.2574997  35.8709988
   6.1350012 138.4794997  35.4809988   5.4427022 138.6747506  35.9711648
   8.1960012 133.4174997  32.0929988   8.0970012 134.3644997  31.9879988
   7.4530012 133.0454997  31.6179988   8.0820563 133.4965902  32.0144560
   9.4600012 137.7394997  35.6569988   9.2240012 137.5194997  36.5589988
   8.6760012 137.5324997  35.1469988   9.3218628 137.6814760  35.7113932
  12.1750012 136.8664997  34.7329988  11.2280012 136.8984997  34.8649988
  12.4880012 136.2414997  35.3859988  12.0875475 136.7863207  34.8394455
  13.8090012 135.5004997  36.7379988  13.7130012 134.5484997  36.7319988
  13.4880012 135.7694997  37.5979988  13.7524070 135.4064035  36.8535441
   3.6360012 136.7104997  35.7849988   3.8480012 136.0034997  35.1749988
   3.5250012 136.2724997  36.6289988   3.6499721 136.5547084  35.8156843
   8.4170012 132.7114997  34.7649988   9.1290012 132.0714997  34.7509988
   8.3160012 132.9784997  33.8509988   8.5007939 132.6599938  34.6395650
   8.7710012 134.3944997  36.8179988   8.6390012 133.9184997  35.9979988
   8.1720012 135.1384997  36.7629988   8.6719071 134.4299618  36.6982886
  18.2680012 143.8104997  22.4139988  19.1180012 144.2314997  22.5409988
  18.2740012 143.0704997  23.0209988  18.3851372 143.7680803  22.5134344
  18.6630012 141.8634997  24.2379988  17.9360012 141.3844997  24.6349988
  19.2440012 142.0694997  24.9699988  18.6419375 141.8257090  24.3914129
  18.4220012 144.6484997  29.1849988  19.2550012 144.2704997  28.9049988
  18.5340012 145.5914997  29.0659988  18.5512647 144.7242218  29.1305487
  18.9310012 141.7644997  20.6289988  18.4090012 142.1214997  19.9099988
  18.8980012 142.4394997  21.3069988  18.8551634 141.9045413  20.6223145
  17.2800012 139.0044997  19.1799988  17.3760012 139.6714997  18.4989988
  17.1400012 138.1884997  18.6979988  17.2742135 138.9854500  19.0218491
  16.4490012 140.3844997  24.8009988  16.2990012 139.4394997  24.7799988
  16.0960012 140.6654997  25.6439988  16.3806625 140.2930441  24.9122346
   1.4850012 142.4624997  28.8109988   1.6690012 142.3804997  27.8749988
   2.3340012 142.3384997  29.2349988   1.6250139 142.4345003  28.7401455
  17.3060012 142.3544997  34.4389988  17.8890012 141.6204997  34.6309988
  17.8700012 143.1264997  34.4859988  17.4619769 142.3584227  34.4716159
  18.8020012 140.2574997  35.1239988  17.9390012 139.8784997  34.9579988
  19.4070012 139.5184997  35.0499988  18.7655979 140.1058023  35.0912817
  16.5270012 136.4124997  18.2969988  17.1380012 136.0414997  18.9339988
  15.6910012 135.9914997  18.4929988  16.4975032 136.3047554  18.4107035
  16.1600012 137.9674997  23.2629988  16.4400012 137.0604997  23.3869988
  16.9190012 138.4014997  22.8739988  16.3009277 137.9020942  23.2273682
  16.7720012 138.5484997  28.6989988  17.7050012 138.7604997  28.6649988
  16.5370012 138.6504997  29.6209988  16.8678036 138.5912769  28.8189976
  16.8010012 139.2854997  31.4749988  15.9580012 139.5534997  31.8409988
  17.2430012 140.1074997  31.2639988  16.7454158 139.4333291  31.4965491
   1.0820012 137.7334997  34.9519988   2.0020012 137.6114997  35.1879988
   0.6330012 136.9834997  35.3409988   1.1471580 137.6153727  35.0369006
  19.0840012 133.2654997  36.8279988  19.4340012 132.6114997  36.2229988
  19.2310012 134.1024997  36.3889988  19.1518419 133.2891591  36.6857118
  16.7730012 135.2304997  23.3109988  16.9560012 134.7814997  24.1369988
  16.1740012 134.6454997  22.8479988  16.7170202 135.0899975  23.3613275
   2.3030012 136.0454997  27.8429988   2.7490012 135.2534997  28.1449988
   2.7700012 136.7614997  28.2739988   2.4270172 136.0340624  27.9424820
   0.6070012 139.0444997  28.9119988   1.0990012 138.8234997  28.1209988
   0.9700012 139.8854997  29.1929988   0.7233126 139.1278357  28.8417531
  18.6040012 135.3744997  35.1779988  17.6860012 135.6454997  35.1419988
  18.7270012 134.8394997  34.3929988  18.4951066 135.3392892  35.0670487
  18.6400012 135.2974997  19.8389988  19.0520012 134.5764997  19.3639988
  19.3220012 135.9674997  19.8979988  18.7885885 135.2892368  19.7818915
   0.9210012 135.3024997  22.9659988  -0.0039988 135.5114997  22.8369988
   1.3750012 135.7864997  22.2769988   0.8557368 135.3965993  22.8551226
   0.8850012 134.0404997  31.3109988   0.2200012 133.7944997  31.9539988
   0.4420012 134.6624997  30.7329988   0.7340956 134.0908632  31.3209352
  17.6040012 133.4644997  32.9969988  16.7920012 133.7894997  32.6089988
  17.8370012 132.7044997  32.4639988  17.5243423 133.4062436  32.8718253
  11.0340012 134.9134997  27.3189988  10.3600012 134.2844997  27.5749988
  11.5980012 134.4294997  26.7159988  11.0179230 134.7618744  27.2725340
  16.1770012 133.0214997  27.4319988  16.7810012 133.5684997  26.9299988
  15.3070012 133.3404997  27.1919988  16.1421241 133.1395806  27.3307654
  17.9040012 134.1594997  25.7649988  18.5160012 133.6454997  25.2389988
  18.2860012 135.0374997  25.7889988  18.0394540 134.2077140  25.6961830
   3.3610012 133.5474997  25.1409988   2.5840012 133.3134997  24.6339988
   3.8910012 132.7504997  25.1499988   3.3262330 133.4076988  25.0727742
   2.1970012 133.3454997  20.9449988   2.6360012 133.9564997  20.3529988
   1.5640012 133.8834997  21.4189988   2.1714514 133.5019257  20.9280930
   7.9400012 133.4744997  24.9549988   8.8150012 133.8624997  24.9249988
   7.8040012 133.2594997  25.8769988   8.0413695 133.4985184  25.0756440
  13.4970012 133.5044997  26.6039988  13.5730012 133.5994997  25.6539988
  13.2220012 132.5964997  26.7329988  13.4702321 133.3947867  26.4915079
  14.8500012 133.5304997  22.2959988  14.1480012 134.1454997  22.0869988
  14.4060012 132.6924997  22.4269988  14.6936330 133.5015783  22.2850328
   4.0580012 135.2614997  19.3869988   4.5500012 134.6314997  18.8599988
   4.6820012 135.5574997  20.0509988   4.2095446 135.2153199  19.4045980
   9.0840012 135.5544997  21.8439988   9.2620012 134.9084997  22.5269988
   9.0310012 136.3884997  22.3119988   9.1011829 135.5787985  22.0005940
   3.3190012 134.0614997  34.6589988   2.9530012 133.2964997  35.1019988
   4.2320012 134.0904997  34.9459988   3.3922790 133.9607224  34.7584070
   5.2920012 133.4124997  36.1949988   6.1900012 133.1384997  36.0099988
   4.9050012 132.6694997  36.6589988   5.3626612 133.2745914  36.2323643
  13.7130012 132.7444997  36.3769988  13.7900012 132.3184997  37.2309988
  14.6070012 132.7584997  36.0339988  13.8443428 132.6880879  36.4475310
  31.2950012 142.7034997  25.0999988  31.3840012 143.6474997  24.9679988
  30.6570012 142.4284997  24.4419988  31.2209081 142.7954830  24.9929614
  30.2280012 141.9584997  28.5189988  30.1900012 141.3124997  29.2239988
  29.9060012 141.4924997  27.7479988  30.1792333 141.8069408  28.5112978
  22.5970012 141.5734997  30.1119988  22.6380012 140.9474997  30.8349988
  23.3000012 142.1974997  30.2939988  22.6976363 141.5721196  30.2356044
  33.9340012 144.8974997  26.8199988  33.4940012 144.1774997  27.2709988
  33.9210012 145.6184997  27.4499988  33.8720226 144.8963731  26.9668494
  20.1300012 139.6834997  24.0399988  19.6830012 140.5294997  24.0209988
  19.5690012 139.1034997  23.5239988  19.9929900 139.7209916  23.9676801
  20.8410012 141.8454997  26.1659988  21.0540012 141.0754997  26.6929988
  21.5790012 141.9344997  25.5619988  20.9698496 141.7521394  26.1565300
  28.6180012 144.3914997  28.9249988  28.9220012 143.7054997  28.3299988
  29.3390012 144.5094997  29.5429988  28.7570671 144.3136305  28.9271816
  37.2810012 135.9924997  29.7859988  37.3300012 136.6024997  30.5219988
  37.7060012 136.4534997  29.0629988  37.3451824 136.1383741  29.7890205
  31.7590012 138.7854997  29.2529988  31.9010012 137.8394997  29.2729988
  31.6520012 138.9924997  28.3239988  31.7639864 138.6839534  29.1302339
  24.9130012 136.8864997  26.5249988  24.9570012 137.7464997  26.1069988
  24.4560012 136.3344997  25.8909988  24.8572185 136.9295799  26.3820299
  32.6360012 137.0174997  24.9259988  33.2820012 136.6884997  25.5509988
  33.1460012 137.5354997  24.3029988  32.7934264 137.0424611  24.9273862
  21.5340012 139.2834997  27.2869988  22.1870012 138.7334997  27.7189988
  21.5580012 139.0094997  26.3699988  21.6266683 139.1711466  27.2222123
  26.6900012 140.8334997  26.5019988  27.3060012 140.3074997  27.0119988
  26.1040012 140.1934997  26.0989988  26.6950810 140.6749208  26.5173173
  37.6720012 137.4704997  32.0219988  36.9840012 138.1284997  31.9259988
  37.6880012 137.2734997  32.9579988  37.5798525 137.5340462  32.1354808
  23.7240012 135.8044997  30.5989988  23.5050012 136.3344997  29.8329988
  23.0560012 136.0314997  31.2459988  23.6037600 135.9076906  30.5816379
  26.2930012 143.4804997  30.8859988  25.5530012 144.0784997  30.9899988
  27.0070012 144.0344997  30.5709988  26.2882237 143.6372831  30.8576465
  34.4000012 136.3084997  26.9059988  34.1840012 135.5424997  27.4389988
  35.0550012 136.7804997  27.4189988  34.4590632 136.2675889  27.0482861
  23.3170012 137.6964997  28.5509988  23.9310012 138.3294997  28.9249988
  23.8290012 137.2244997  27.8949988  23.4702296 137.7192370  28.5134252
  34.7470012 135.0234997  30.5859988  34.0110012 135.6344997  30.5479988
  35.4300012 135.4384997  30.0589988  34.7386541 135.1631374  30.5095832
  27.7500012 133.1104997  28.0519988  27.6330012 132.1614997  27.9969988
  26.8950012 133.4424997  28.3249988  27.6183733 133.0255409  28.0813897
  35.5440012 144.9854997  32.7799988  35.6840012 144.3944997  32.0399988
  35.7110012 145.8584997  32.4229988  35.5856778 145.0226426  32.6306965
  30.0170012 141.9474997  22.5519988  29.3050012 142.4824997  22.1999988
  30.7080012 142.0034997  21.8919988  30.0130132 142.0282543  22.4146289
  30.0700012 140.4054997  19.5909988  30.7710012 140.4274997  20.2419988
  30.3730012 139.7774997  18.9349988  30.2067830 140.3236566  19.5913711
  37.3860012 141.3254997  30.8459988  36.7330012 142.0204997  30.9349988
  37.8510012 141.5354997  30.0359988  37.3595390 141.4489425  30.7486883
  33.4220012 142.1574997  23.5039988  32.6900012 142.3854997  24.0769988
  33.8700012 141.4434997  23.9589988  33.3823095 142.0922571  23.6439119
  33.3200012 140.3314997  32.5709988  33.4000012 141.0944997  33.1429988
  32.7180012 140.6104997  31.8809988  33.2495756 140.4737134  32.5560589
  25.0680012 142.7874997  25.3859988  24.7370012 142.4174997  24.5679988
  25.6560012 142.1174997  25.7329988  25.1021873 142.6461156  25.3208102
  25.4340012 141.5564997  29.0199988  26.0000012 141.6774997  28.2569988
  25.7530012 142.1934997  29.6589988  25.5545786 141.6591884  29.0020040
  32.2930012 141.3194997  21.1889988  32.8730012 141.4694997  21.9359988
  32.7070012 141.7904997  20.4659988  32.4282830 141.4036841  21.1934134
  23.2340012 142.1534997  32.9659988  23.3050012 142.8044997  33.6639988
  22.3440012 142.2564997  32.6309988  23.1233117 142.2565936  33.0162700
  35.9920012 133.0694997  21.0019988  35.0920012 133.2084997  21.2969988
  36.2440012 133.9004997  20.5999988  35.9028702 133.2009074  20.9880205
  24.0580012 141.8574997  22.9759988  23.7660012 142.6254997  22.4849988
  23.3840012 141.1974997  22.8129988  23.9269081 141.8734406  22.8867340
  20.1510012 144.2204997  31.7909988  19.6500012 144.1924997  30.9759988
  20.1560012 143.3144997  32.0999988  20.0831526 144.0942278  31.7212872
  35.2510012 139.1594997  34.8369988  34.8440012 139.6404997  34.1159988
  35.2920012 138.2544997  34.5289988  35.2008437 139.1029374  34.6966683
  25.0190012 134.0134997  28.8289988  24.1570012 133.9264997  28.4219988
  24.9960012 134.8694997  29.2569988  24.8980330 134.1172765  28.8311863
  29.6820012 133.7354997  32.2039988  30.1020012 133.3204997  32.9569988
  28.7490012 133.5574997  32.3209988  29.6133644 133.6545900  32.3229539
  33.0080012 137.4914997  33.0569988  32.4940012 137.3654997  33.8549988
  32.8530012 138.4034997  32.8129988  32.9166852 137.5976132  33.1332158
  33.7710012 142.3524997  18.8189988  33.8130012 142.1294997  17.8889988
  34.6200012 142.7514997  19.0089988  33.8915396 142.3759155  18.7173627
  29.3430012 136.2284997  19.4889988  29.0900012 136.2474997  20.4119988
  29.0870012 135.3564997  19.1879988  29.2737790 136.1132437  19.5746263
  25.1100012 138.9794997  29.9239988  24.4680012 138.9384997  30.6329988
  25.1470012 139.9054997  29.6869988  25.0271324 139.0991559  29.9889824
  25.1070012 139.2004997  24.8359988  24.2140012 138.8594997  24.7779988
  25.5570012 138.8234997  24.0809988  25.0457305 139.1028484  24.7259177
  30.6420012 139.6164997  23.6529988  30.2330012 140.4314997  23.3619988
  31.3630012 139.4764997  23.0389988  30.6834537 139.7092018  23.5301342
  29.7440012 139.7914997  35.1409988  29.1820012 139.0874997  35.4619988
  30.5710012 139.6714997  35.6089988  29.7787095 139.6787883  35.2482330
  31.6470012 139.0624997  26.4669988  31.4520012 139.6674997  25.7519988
  31.8280012 138.2284997  26.0329988  31.6447614 139.0326300  26.3104405
  22.8600012 139.2994997  31.7909988  22.8220012 139.6994997  32.6599988
  22.3690012 138.4824997  31.8819988  22.7884684 139.2438069  31.9221059
  26.2260012 136.6734997  18.5899988  25.7950012 136.2284997  19.3199988
  25.5080012 137.0454997  18.0779988  26.0699438 136.6628940  18.6206799
  19.4680012 136.4154997  25.6419988  20.0990012 136.3864997  26.3609988
  19.9170012 135.9904997  24.9119988  19.6150774 136.3540492  25.6416553
  20.7420012 137.1614997  21.0659988  21.2160012 137.7524997  20.4809988
  20.0250012 137.6924997  21.4129988  20.7099341 137.3140867  21.0328836
  30.9110012 140.7004997  31.1389988  31.2340012 140.0694997  30.4959988
  30.4710012 140.1654997  31.7989988  30.8956895 140.5418441  31.1402850
  27.6880012 136.6274997  25.9229988  26.7770012 136.6844997  26.2109988
  28.1940012 136.5674997  26.7329988  27.6315413 136.6271985  26.0720622
  22.5170012 138.2564997  24.7489988  21.6270012 138.3564997  24.4089988
  22.8130012 137.4144997  24.4029988  22.4352823 138.1563545  24.6557213
  26.1700012 138.2564997  22.4059988  27.1010012 138.3854997  22.5839988
  25.9550012 138.9264997  21.7559988  26.2684247 138.3646565  22.3425747
  32.0930012 135.8624997  29.1869988  31.4170012 135.9934997  29.8509988
  31.6080012 135.7074997  28.3769988  31.9347145 135.8594905  29.1684517
  24.8440012 139.4514997  19.9729988  24.3010012 139.0714997  19.2809988
  25.6770012 139.6454997  19.5439988  24.8824399 139.4258124  19.8204526
  22.9790012 144.0084997  35.0719988  23.7110012 144.2624997  35.6329988
  22.1990012 144.2124997  35.5869988  22.9738232 144.0709177  35.2185760
  29.0080012 139.4154997  27.8099988  29.5730012 138.8684997  27.2629988
  28.8610012 138.8934997  28.5979988  29.0652918 139.2702024  27.8418454
  24.0100012 135.5514997  24.2279988  23.6930012 134.6494997  24.1929988
  24.7920012 135.5534997  23.6749988  24.0722284 135.4281628  24.1484783
  27.6350012 137.8034997  30.2239988  26.7990012 138.2574997  30.3339988
  28.1590012 138.0794997  30.9759988  27.5914414 137.9029376  30.3407136
  28.1790012 144.0164997  21.9079988  27.4340012 143.5094997  21.5859988
  28.0450012 144.0654997  22.8549988  28.0588776 143.9536940  21.9918647
  35.3290012 143.1494997  30.6949988  35.9710012 143.6064997  30.1509988
  34.4990012 143.2624997  30.2319988  35.3045963 143.2272704  30.5580177
  32.0770012 136.8304997  20.1079988  31.1380012 136.9424997  19.9559988
  32.3740012 137.6874997  20.4139988  31.9887666 136.9616443  20.1285768
  29.6980012 144.2004997  33.1449988  29.3530012 143.8194997  33.9519988
  29.4980012 145.1344997  33.2169988  29.6238061 144.2745228  33.2650961
  32.7950012 138.6974997  21.7679988  33.6870012 138.5604997  22.0869988
  32.8520012 139.4884997  21.2319988  32.9246285 138.7856660  21.7391691
  23.3040012 143.3114997  27.6779988  24.0490012 143.3094997  27.0769988
  23.3820012 142.4884997  28.1599988  23.4165518 143.1999315  27.6608929
  20.3120012 141.7724997  32.9929988  20.5350012 141.3544997  33.8249988
  19.7100012 141.1594997  32.5699988  20.2611759 141.6324668  33.0497022
  27.3280012 141.2894997  35.2059988  27.0320012 141.1234997  34.3109988
  28.2600012 141.0694997  35.1949988  27.4134166 141.2370640  35.0820536
  37.6800012 138.9074997  21.4629988  37.1260012 138.5114997  20.7909988
  37.7800012 139.8174997  21.1849988  37.6177059 138.9763586  21.3334401
  37.6430012 144.7074997  34.2999988  36.7920012 144.9454997  33.9329988
  38.2340012 144.6904997  33.5469988  37.6062487 144.7378258  34.1478893
  33.1360012 142.5014997  28.9489988  32.2070012 142.2694997  28.9219988
  33.5870012 141.7244997  28.6189988  33.0699216 142.3647238  28.9006917
  21.4340012 141.6914997  19.6689988  22.0500012 142.3184997  20.0489988
  20.5720012 142.0074997  19.9409988  21.4017698 141.8199430  19.7577183
  27.1060012 144.4924997  24.6589988  26.8650012 145.4174997  24.6999988
  26.3650012 144.0334997  25.0549988  26.9728409 144.5571421  24.7181377
  31.1650012 144.7404997  30.6739988  30.7390012 144.5134997  31.5009988
  31.7450012 144.0024997  30.4919988  31.1851868 144.6095299  30.7625830
  21.9460012 136.5254997  32.5509988  21.0530012 136.8644997  32.4829988
  21.8470012 135.6704997  32.9689988  21.8104164 136.4562588  32.5982235
  34.2340012 144.3424997  21.9749988  33.9560012 143.6144997  22.5309988
  35.1610012 144.4614997  22.1799988  34.3213124 144.2588802  22.0788845
  22.8490012 143.6044997  21.1619988  22.1630012 143.9564997  21.7289988
  23.3710012 144.3674997  20.9149988  22.8256852 143.7558578  21.2062118
  30.6800012 136.2664997  31.4409988  31.3790012 136.3404997  32.0909988
  30.2990012 135.4024997  31.5949988  30.7241767 136.1597624  31.5508322
  31.4650012 135.9184997  22.5379988  31.6850012 136.3904997  21.7349988
  32.0230012 136.3134997  23.2079988  31.5704968 136.0364285  22.5187331
  28.6650012 137.6464997  23.3729988  29.4770012 138.1514997  23.4189988
  28.4200012 137.5014997  24.2869988  28.7430520 137.6960375  23.5028517
  29.2000012 138.6324997  32.5579988  29.3190012 139.2064997  33.3149988
  29.8560012 137.9444997  32.6719988  29.3049757 138.6181079  32.6770825
  29.5480012 134.7274997  24.3109988  29.2020012 135.3454997  24.9559988
  30.2070012 135.2284997  23.8299988  29.5897826 134.8795802  24.3340971
  25.2060012 135.7904997  20.9979988  25.1230012 136.6794997  21.3449988
  26.0960012 135.5254997  21.2299988  25.3149469 135.8761430  21.0767626
  35.4050012 136.5394997  33.3929988  34.4880012 136.8024997  33.3049988
  35.7400012 136.5364997  32.4959988  35.3249900 136.5750224  33.2597919
  34.0070012 140.2904997  27.4879988  33.2090012 139.8754997  27.1599988
  34.4520012 139.5994997  27.9789988  33.9579885 140.1403543  27.5094889
  21.7810012 138.8824997  19.1749988  21.7360012 139.8214997  19.3529988
  20.8930012 138.6464997  18.9049988  21.6548574 138.9791892  19.1628912
  22.5890012 133.6644997  27.8479988  22.3600012 133.7234997  26.9199988
  22.1460012 132.8724997  28.1539988  22.4978530 133.5655753  27.7624786
  20.7140012 144.0274997  36.2929988  20.8580012 143.1254997  36.0059988
  19.9420012 144.3134997  35.8049988  20.6293322 143.9428261  36.1877881
  25.0560012 144.3714997  18.4249988  25.1200012 143.5774997  18.9559988
  25.7090012 144.2524997  17.7349988  25.1530241 144.2467148  18.4044317
  27.3700012 143.9974997  35.7249988  27.0410012 144.2684997  34.8679988
  27.5220012 143.0564997  35.6379988  27.3454809 143.9073862  35.5958244
  33.1040012 143.9134997  33.1089988  33.8500012 144.5014997  32.9889988
  32.3470012 144.4954997  33.1719988  33.1037554 144.0727011  33.1010907
  21.5470012 141.2274997  35.7129988  21.9550012 140.3704997  35.5919988
  21.2870012 141.2424997  36.6339988  21.5677568 141.1120807  35.8209588
  26.2050012 142.3434997  20.7309988  25.7450012 141.8594997  21.4169988
  26.4600012 141.6754997  20.0949988  26.1764902 142.1868731  20.7389334
  25.4940012 140.2364997  33.0869988  24.8760012 140.9114997  33.3669988
  25.8380012 140.5574997  32.2539988  25.4559615 140.3722721  33.0126581
  27.2760012 140.5864997  18.9929988  27.0960012 140.4324997  18.0659988
  28.2260012 140.6944997  19.0379988  27.3797776 140.5800175  18.8721843
  30.5140012 142.7084997  36.3639988  31.4670012 142.7914997  36.3369988
  30.3530012 141.9964997  36.9839988  30.6226426 142.6236746  36.4440579
  36.6660012 142.9414997  18.4389988  36.3920012 142.5164997  17.6259988
  36.7050012 143.8724997  18.2219988  36.6337699 143.0092484  18.2983610
  25.8330012 137.5914997  34.1689988  25.9830012 136.8624997  33.5669988
  25.8360012 138.3684997  33.6099988  25.8539302 137.5967851  34.0110692
  26.2460012 135.9614997  31.6619988  26.7820012 136.4124997  31.0099988
  25.3940012 135.8534997  31.2389988  26.2042178 136.0086390  31.5155756
  27.8280012 141.4004997  31.9009988  28.5780012 141.2444997  31.3279988
  27.4890012 142.2524997  31.6259988  27.8848921 141.4942968  31.7853561
  32.2430012 139.2154997  36.9299988  32.4360012 138.2844997  36.8179988
  33.1010012 139.6404997  36.9199988  32.3853020 139.1456389  36.9133361
  33.5600012 142.0044997  35.0069988  33.2790012 142.7134997  34.4299988
  34.5030012 141.9314997  34.8559988  33.6489027 142.0917646  34.9075551
  24.3120012 138.7894997  36.0809988  23.5450012 138.2574997  35.8709988
  24.9910012 138.4794997  35.4809988  24.2987022 138.6747506  35.9711648
  27.0520012 133.4174997  32.0929988  26.9530012 134.3644997  31.9879988
  26.3090012 133.0454997  31.6179988  26.9380563 133.4965902  32.0144560
  28.3160012 137.7394997  35.6569988  28.0800012 137.5194997  36.5589988
  27.5320012 137.5324997  35.1469988  28.1778628 137.6814760  35.7113932
  31.0310012 136.8664997  34.7329988  30.0840012 136.8984997  34.8649988
  31.3440012 136.2414997  35.3859988  30.9435475 136.7863207  34.8394455
  32.6650012 135.5004997  36.7379988  32.5690012 134.5484997  36.7319988
  32.3440012 135.7694997  37.5979988  32.6084070 135.4064035  36.8535441
  22.4920012 136.7104997  35.7849988  22.7040012 136.0034997  35.1749988
  22.3810012 136.2724997  36.6289988  22.5059721 136.5547084  35.8156843
  27.2730012 132.7114997  34.7649988  27.9850012 132.0714997  34.7509988
  27.1720012 132.9784997  33.8509988  27.3567939 132.6599938  34.6395650
  27.6270012 134.3944997  36.8179988  27.4950012 133.9184997  35.9979988
  27.0280012 135.1384997  36.7629988  27.5279071 134.4299618  36.6982886
  37.1240012 143.8104997  22.4139988  37.9740012 144.2314997  22.5409988
  37.1300012 143.0704997  23.0209988  37.2411372 143.7680803  22.5134344
  37.5190012 141.8634997  24.2379988  36.7920012 141.3844997  24.6349988
  38.1000012 142.0694997  24.9699988  37.4979375 141.8257090  24.3914129
  37.2780012 144.6484997  29.1849988  38.1110012 144.2704997  28.9049988
  37.3900012 145.5914997  29.0659988  37.4072647 144.7242218  29.1305487
  37.7870012 141.7644997  20.6289988  37.2650012 142.1214997  19.9099988
  37.7540012 142.4394997  21.3069988  37.7111634 141.9045413  20.6223145
  36.1360012 139.0044997  19.1799988  36.2320012 139.6714997  18.4989988
  35.9960012 138.1884997  18.6979988  36.1302135 138.9854500  19.0218491
  35.3050012 140.3844997  24.8009988  35.1550012 139.4394997  24.7799988
  34.9520012 140.6654997  25.6439988  35.2366625 140.2930441  24.9122346
  20.3410012 142.4624997  28.8109988  20.5250012 142.3804997  27.8749988
  21.1900012 142.3384997  29.2349988  20.4810139 142.4345003  28.7401455
  36.1620012 142.3544997  34.4389988  36.7450012 141.6204997  34.6309988
  36.7260012 143.1264997  34.4859988  36.3179769 142.3584227  34.4716159
  37.6580012 140.2574997  35.1239988  36.7950012 139.8784997  34.9579988
  38.2630012 139.5184997  35.0499988  37.6215979 140.1058023  35.0912817
  35.3830012 136.4124997  18.2969988  35.9940012 136.0414997  18.9339988
  34.5470012 135.9914997  18.4929988  35.3535032 136.3047554  18.4107035
  35.0160012 137.9674997  23.2629988  35.2960012 137.0604997  23.3869988
  35.7750012 138.4014997  22.8739988  35.1569277 137.9020942  23.2273682
  35.6280012 138.5484997  28.6989988  36.5610012 138.7604997  28.6649988
  35.3930012 138.6504997  29.6209988  35.7238036 138.5912769  28.8189976
  35.6570012 139.2854997  31.4749988  34.8140012 139.5534997  31.8409988
  36.0990012 140.1074997  31.2639988  35.6014158 139.4333291  31.4965491
  19.9380012 137.7334997  34.9519988  20.8580012 137.6114997  35.1879988
  19.4890012 136.9834997  35.3409988  20.0031580 137.6153727  35.0369006
  37.9400012 133.2654997  36.8279988  38.2900012 132.6114997  36.2229988
  38.0870012 134.1024997  36.3889988  38.0078419 133.2891591  36.6857118
  35.6290012 135.2304997  23.3109988  35.8120012 134.7814997  24.1369988
  35.0300012 134.6454997  22.8479988  35.5730202 135.0899975  23.3613275
  21.1590012 136.0454997  27.8429988  21.6050012 135.2534997  28.1449988
  21.6260012 136.7614997  28.2739988  21.2830172 136.0340624  27.9424820
  19.4630012 139.0444997  28.9119988  19.9550012 138.8234997  28.1209988
  19.8260012 139.8854997  29.1929988  19.5793126 139.1278357  28.8417531
  37.4600012 135.3744997  35.1779988  36.5420012 135.6454997  35.1419988
  37.5830012 134.8394997  34.3929988  37.3511066 135.3392892  35.0670487
  37.4960012 135.2974997  19.8389988  37.9080012 134.5764997  19.3639988
  38.1780012 135.9674997  19.8979988  37.6445885 135.2892368  19.7818915
  19.7770012 135.3024997  22.9659988  18.8520012 135.5114997  22.8369988
  20.2310012 135.7864997  22.2769988  19.7117368 135.3965993  22.8551226
  19.7410012 134.0404997  31.3109988  19.0760012 133.7944997  31.9539988
  19.2980012 134.6624997  30.7329988  19.5900956 134.0908632  31.3209352
  36.4600012 133.4644997  32.9969988  35.6480012 133.7894997  32.6089988
  36.6930012 132.7044997  32.4639988  36.3803423 133.4062436  32.8718253
  29.8900012 134.9134997  27.3189988  29.2160012 134.2844997  27.5749988
  30.4540012 134.4294997  26.7159988  29.8739230 134.7618744  27.2725340
  35.0330012 133.0214997  27.4319988  35.6370012 133.5684997  26.9299988
  34.1630012 133.3404997  27.1919988  34.9981241 133.1395806  27.3307654
  36.7600012 134.1594997  25.7649988  37.3720012 133.6454997  25.2389988
  37.1420012 135.0374997  25.7889988  36.8954540 134.2077140  25.6961830
  22.2170012 133.5474997  25.1409988  21.4400012 133.3134997  24.6339988
  22.7470012 132.7504997  25.1499988  22.1822330 133.4076988  25.0727742
  21.0530012 133.3454997  20.9449988  21.4920012 133.9564997  20.3529988
  20.4200012 133.8834997  21.4189988  21.0274514 133.5019257  20.9280930
  26.7960012 133.4744997  24.9549988  27.6710012 133.8624997  24.9249988
  26.6600012 133.2594997  25.8769988  26.8973695 133.4985184  25.0756440
  32.3530012 133.5044997  26.6039988  32.4290012 133.5994997  25.6539988
  32.0780012 132.5964997  26.7329988  32.3262321 133.3947867  26.4915079
  33.7060012 133.5304997  22.2959988  33.0040012 134.1454997  22.0869988
  33.2620012 132.6924997  22.4269988  33.5496330 133.5015783  22.2850328
  22.9140012 135.2614997  19.3869988  23.4060012 134.6314997  18.8599988
  23.5380012 135.5574997  20.0509988  23.0655446 135.2153199  19.4045980
  27.9400012 135.5544997  21.8439988  28.1180012 134.9084997  22.5269988
  27.8870012 136.3884997  22.3119988  27.9571829 135.5787985  22.0005940
  22.1750012 134.0614997  34.6589988  21.8090012 133.2964997  35.1019988
  23.0880012 134.0904997  34.9459988  22.2482790 133.9607224  34.7584070
  24.1480012 133.4124997  36.1949988  25.0460012 133.1384997  36.0099988
  23.7610012 132.6694997  36.6589988  24.2186612 133.2745914  36.2323643
  32.5690012 132.7444997  36.3769988  32.6460012 132.3184997  37.2309988
  33.4630012 132.7584997  36.0339988  32.7003428 132.6880879  36.4475310
  50.1510012 142.7034997  25.0999988  50.2400012 143.6474997  24.9679988
  49.5130012 142.4284997  24.4419988  50.0769081 142.7954830  24.9929614
  49.0840012 141.9584997  28.5189988  49.0460012 141.3124997  29.2239988
  48.7620012 141.4924997  27.7479988  49.0352333 141.8069408  28.5112978
  41.4530012 141.5734997  30.1119988  41.4940012 140.9474997  30.8349988
  42.1560012 142.1974997  30.2939988  41.5536363 141.5721196  30.2356044
  52.7900012 144.8974997  26.8199988  52.3500012 144.1774997  27.2709988
  52.7770012 145.6184997  27.4499988  52.7280226 144.8963731  26.9668494
  38.9860012 139.6834997  24.0399988  38.5390012 140.5294997  24.0209988
  38.4250012 139.1034997  23.5239988  38.8489900 139.7209916  23.9676801
  39.6970012 141.8454997  26.1659988  39.9100012 141.0754997  26.6929988
  40.4350012 141.9344997  25.5619988  39.8258496 141.7521394  26.1565300
  47.4740012 144.3914997  28.9249988  47.7780012 143.7054997  28.3299988
  48.1950012 144.5094997  29.5429988  47.6130671 144.3136305  28.9271816
  56.1370012 135.9924997  29.7859988  56.1860012 136.6024997  30.5219988
  56.5620012 136.4534997  29.0629988  56.2011824 136.1383741  29.7890205
  50.6150012 138.7854997  29.2529988  50.7570012 137.8394997  29.2729988
  50.5080012 138.9924997  28.3239988  50.6199864 138.6839534  29.1302339
  43.7690012 136.8864997  26.5249988  43.8130012 137.7464997  26.1069988
  43.3120012 136.3344997  25.8909988  43.7132185 136.9295799  26.3820299
  51.4920012 137.0174997  24.9259988  52.1380012 136.6884997  25.5509988
  52.0020012 137.5354997  24.3029988  51.6494264 137.0424611  24.9273862
  40.3900012 139.2834997  27.2869988  41.0430012 138.7334997  27.7189988
  40.4140012 139.0094997  26.3699988  40.4826683 139.1711466  27.2222123
  45.5460012 140.8334997  26.5019988  46.1620012 140.3074997  27.0119988
  44.9600012 140.1934997  26.0989988  45.5510810 140.6749208  26.5173173
  56.5280012 137.4704997  32.0219988  55.8400012 138.1284997  31.9259988
  56.5440012 137.2734997  32.9579988  56.4358525 137.5340462  32.1354808
  42.5800012 135.8044997  30.5989988  42.3610012 136.3344997  29.8329988
  41.9120012 136.0314997  31.2459988  42.4597600 135.9076906  30.5816379
  45.1490012 143.4804997  30.8859988  44.4090012 144.0784997  30.9899988
  45.8630012 144.0344997  30.5709988  45.1442237 143.6372831  30.8576465
  53.2560012 136.3084997  26.9059988  53.0400012 135.5424997  27.4389988
  53.9110012 136.7804997  27.4189988  53.3150632 136.2675889  27.0482861
  42.1730012 137.6964997  28.5509988  42.7870012 138.3294997  28.9249988
  42.6850012 137.2244997  27.8949988  42.3262296 137.7192370  28.5134252
  53.6030012 135.0234997  30.5859988  52.8670012 135.6344997  30.5479988
  54.2860012 135.4384997  30.0589988  53.5946541 135.1631374  30.5095832
  46.6060012 133.1104997  28.0519988  46.4890012 132.1614997  27.9969988
  45.7510012 133.4424997  28.3249988  46.4743733 133.0255409  28.0813897
  54.4000012 144.9854997  32.7799988  54.5400012 144.3944997  32.0399988
  54.5670012 145.8584997  32.4229988  54.4416778 145.0226426  32.6306965
  48.8730012 141.9474997  22.5519988  48.1610012 142.4824997  22.1999988
  49.5640012 142.0034997  21.8919988  48.8690132 142.0282543  22.4146289
  48.9260012 140.4054997  19.5909988  49.6270012 140.4274997  20.2419988
  49.2290012 139.7774997  18.9349988  49.0627830 140.3236566  19.5913711
  56.2420012 141.3254997  30.8459988  55.5890012 142.0204997  30.9349988
  56.7070012 141.5354997  30.0359988  56.2155390 141.4489425  30.7486883
  52.2780012 142.1574997  23.5039988  51.5460012 142.3854997  24.0769988
  52.7260012 141.4434997  23.9589988  52.2383095 142.0922571  23.6439119
  52.1760012 140.3314997  32.5709988  52.2560012 141.0944997  33.1429988
  51.5740012 140.6104997  31.8809988  52.1055756 140.4737134  32.5560589
  43.9240012 142.7874997  25.3859988  43.5930012 142.4174997  24.5679988
  44.5120012 142.1174997  25.7329988  43.9581873 142.6461156  25.3208102
  44.2900012 141.5564997  29.0199988  44.8560012 141.6774997  28.2569988
  44.6090012 142.1934997  29.6589988  44.4105786 141.6591884  29.0020040
  51.1490012 141.3194997  21.1889988  51.7290012 141.4694997  21.9359988
  51.5630012 141.7904997  20.4659988  51.2842830 141.4036841  21.1934134
  42.0900012 142.1534997  32.9659988  42.1610012 142.8044997  33.6639988
  41.2000012 142.2564997  32.6309988  41.9793117 142.2565936  33.0162700
  54.8480012 133.0694997  21.0019988  53.9480012 133.2084997  21.2969988
  55.1000012 133.9004997  20.5999988  54.7588702 133.2009074  20.9880205
  42.9140012 141.8574997  22.9759988  42.6220012 142.6254997  22.4849988
  42.2400012 141.1974997  22.8129988  42.7829081 141.8734406  22.8867340
  39.0070012 144.2204997  31.7909988  38.5060012 144.1924997  30.9759988
  39.0120012 143.3144997  32.0999988  38.9391526 144.0942278  31.7212872
  54.1070012 139.1594997  34.8369988  53.7000012 139.6404997  34.1159988
  54.1480012 138.2544997  34.5289988  54.0568437 139.1029374  34.6966683
  43.8750012 134.0134997  28.8289988  43.0130012 133.9264997  28.4219988
  43.8520012 134.8694997  29.2569988  43.7540330 134.1172765  28.8311863
  48.5380012 133.7354997  32.2039988  48.9580012 133.3204997  32.9569988
  47.6050012 133.5574997  32.3209988  48.4693644 133.6545900  32.3229539
  51.8640012 137.4914997  33.0569988  51.3500012 137.3654997  33.8549988
  51.7090012 138.4034997  32.8129988  51.7726852 137.5976132  33.1332158
  52.6270012 142.3524997  18.8189988  52.6690012 142.1294997  17.8889988
  53.4760012 142.7514997  19.0089988  52.7475396 142.3759155  18.7173627
  48.1990012 136.2284997  19.4889988  47.9460012 136.2474997  20.4119988
  47.9430012 135.3564997  19.1879988  48.1297790 136.1132437  19.5746263
  43.9660012 138.9794997  29.9239988  43.3240012 138.9384997  30.6329988
  44.0030012 139.9054997  29.6869988  43.8831324 139.0991559  29.9889824
  43.9630012 139.2004997  24.8359988  43.0700012 138.8594997  24.7779988
  44.4130012 138.8234997  24.0809988  43.9017305 139.1028484  24.7259177
  49.4980012 139.6164997  23.6529988  49.0890012 140.4314997  23.3619988
  50.2190012 139.4764997  23.0389988  49.5394537 139.7092018  23.5301342
  48.6000012 139.7914997  35.1409988  48.0380012 139.0874997  35.4619988
  49.4270012 139.6714997  35.6089988  48.6347095 139.6787883  35.2482330
  50.5030012 139.0624997  26.4669988  50.3080012 139.6674997  25.7519988
  50.6840012 138.2284997  26.0329988  50.5007614 139.0326300  26.3104405
  41.7160012 139.2994997  31.7909988  41.6780012 139.6994997  32.6599988
  41.2250012 138.4824997  31.8819988  41.6444684 139.2438069  31.9221059
  45.0820012 136.6734997  18.5899988  44.6510012 136.2284997  19.3199988
  44.3640012 137.0454997  18.0779988  44.9259438 136.6628940  18.6206799
  38.3240012 136.4154997  25.6419988  38.9550012 136.3864997  26.3609988
  38.7730012 135.9904997  24.9119988  38.4710774 136.3540492  25.6416553
  39.5980012 137.1614997  21.0659988  40.0720012 137.7524997  20.4809988
  38.8810012 137.6924997  21.4129988  39.5659341 137.3140867  21.0328836
  49.7670012 140.7004997  31.1389988  50.0900012 140.0694997  30.4959988
  49.3270012 140.1654997  31.7989988  49.7516895 140.5418441  31.1402850
  46.5440012 136.6274997  25.9229988  45.6330012 136.6844997  26.2109988
  47.0500012 136.5674997  26.7329988  46.4875413 136.6271985  26.0720622
  41.3730012 138.2564997  24.7489988  40.4830012 138.3564997  24.4089988
  41.6690012 137.4144997  24.4029988  41.2912823 138.1563546  24.6557213
  45.0260012 138.2564997  22.4059988  45.9570012 138.3854997  22.5839988
  44.8110012 138.9264997  21.7559988  45.1244247 138.3646565  22.3425747
  50.9490012 135.8624997  29.1869988  50.2730012 135.9934997  29.8509988
  50.4640012 135.7074997  28.3769988  50.7907145 135.8594905  29.1684517
  43.7000012 139.4514997  19.9729988  43.1570012 139.0714997  19.2809988
  44.5330012 139.6454997  19.5439988  43.7384399 139.4258124  19.8204526
  41.8350012 144.0084997  35.0719988  42.5670012 144.2624997  35.6329988
  41.0550012 144.2124997  35.5869988  41.8298232 144.0709177  35.2185760
  47.8640012 139.4154997  27.8099988  48.4290012 138.8684997  27.2629988
  47.7170012 138.8934997  28.5979988  47.9212918 139.2702024  27.8418454
  42.8660012 135.5514997  24.2279988  42.5490012 134.6494997  24.1929988
  43.6480012 135.5534997  23.6749988  42.9282284 135.4281628  24.1484783
  46.4910012 137.8034997  30.2239988  45.6550012 138.2574997  30.3339988
  47.0150012 138.0794997  30.9759988  46.4474414 137.9029376  30.3407136
  47.0350012 144.0164997  21.9079988  46.2900012 143.5094997  21.5859988
  46.9010012 144.0654997  22.8549988  46.9148776 143.9536940  21.9918647
  54.1850012 143.1494997  30.6949988  54.8270012 143.6064997  30.1509988
  53.3550012 143.2624997  30.2319988  54.1605963 143.2272704  30.5580177
  50.9330012 136.8304997  20.1079988  49.9940012 136.9424997  19.9559988
  51.2300012 137.6874997  20.4139988  50.8447666 136.9616443  20.1285768
  48.5540012 144.2004997  33.1449988  48.2090012 143.8194997  33.9519988
  48.3540012 145.1344997  33.2169988  48.4798061 144.2745228  33.2650961
  51.6510012 138.6974997  21.7679988  52.5430012 138.5604997  22.0869988
  51.7080012 139.4884997  21.2319988  51.7806285 138.7856660  21.7391691
  42.1600012 143.3114997  27.6779988  42.9050012 143.3094997  27.0769988
  42.2380012 142.4884997  28.1599988  42.2725518 143.1999315  27.6608929
  39.1680012 141.7724997  32.9929988  39.3910012 141.3544997  33.8249988
  38.5660012 141.1594997  32.5699988  39.1171759 141.6324668  33.0497022
  46.1840012 141.2894997  35.2059988  45.8880012 141.1234997  34.3109988
  47.1160012 141.0694997  35.1949988  46.2694166 141.2370640  35.0820536
  56.5360012 138.9074997  21.4629988  55.9820012 138.5114997  20.7909988
  56.6360012 139.8174997  21.1849988  56.4737059 138.9763586  21.3334401
  56.4990012 144.7074997  34.2999988  55.6480012 144.9454997  33.9329988
  57.0900012 144.6904997  33.5469988  56.4622487 144.7378258  34.1478893
  51.9920012 142.5014997  28.9489988  51.0630012 142.2694997  28.9219988
  52.4430012 141.7244997  28.6189988  51.9259216 142.3647238  28.9006917
  40.2900012 141.6914997  19.6689988  40.9060012 142.3184997  20.0489988
  39.4280012 142.0074997  19.9409988  40.2577698 141.8199430  19.7577183
  45.9620012 144.4924997  24.6589988  45.7210012 145.4174997  24.6999988
  45.2210012 144.0334997  25.0549988  45.8288409 144.5571421  24.7181377
  50.0210012 144.7404997  30.6739988  49.5950012 144.5134997  31.5009988
  50.6010012 144.0024997  30.4919988  50.0411868 144.6095299  30.7625830
  40.8020012 136.5254997  32.5509988  39.9090012 136.8644997  32.4829988
  40.7030012 135.6704997  32.9689988  40.6664164 136.4562588  32.5982235
  53.0900012 144.3424997  21.9749988  52.8120012 143.6144997  22.5309988
  54.0170012 144.4614997  22.1799988  53.1773124 144.2588802  22.0788845
  41.7050012 143.6044997  21.1619988  41.0190012 143.9564997  21.7289988
  42.2270012 144.3674997  20.9149988  41.6816852 143.7558578  21.2062118
  49.5360012 136.2664997  31.4409988  50.2350012 136.3404997  32.0909988
  49.1550012 135.4024997  31.5949988  49.5801767 136.1597624  31.5508322
  50.3210012 135.9184997  22.5379988  50.5410012 136.3904997  21.7349988
  50.8790012 136.3134997  23.2079988  50.4264968 136.0364285  22.5187331
  47.5210012 137.6464997  23.3729988  48.3330012 138.1514997  23.4189988
  47.2760012 137.5014997  24.2869988  47.5990520 137.6960375  23.5028517
  48.0560012 138.6324997  32.5579988  48.1750012 139.2064997  33.3149988
  48.7120012 137.9444997  32.6719988  48.1609757 138.6181079  32.6770825
  48.4040012 134.7274997  24.3109988  48.0580012 135.3454997  24.9559988
  49.0630012 135.2284997  23.8299988  48.4457826 134.8795802  24.3340971
  44.0620012 135.7904997  20.9979988  43.9790012 136.6794997  21.3449988
  44.9520012 135.5254997  21.2299988  44.1709469 135.8761430  21.0767626
  54.2610012 136.5394997  33.3929988  53.3440012 136.8024997  33.3049988
  54.5960012 136.5364997  32.4959988  54.1809900 136.5750224  33.2597919
  52.8630012 140.2904997  27.4879988  52.0650012 139.8754997  27.1599988
  53.3080012 139.5994997  27.9789988  52.8139885 140.1403543  27.5094889
  40.6370012 138.8824997  19.1749988  40.5920012 139.8214997  19.3529988
  39.7490012 138.6464997  18.9049988  40.5108574 138.9791892  19.1628912
  41.4450012 133.6644997  27.8479988  41.2160012 133.7234997  26.9199988
  41.0020012 132.8724997  28.1539988  41.3538530 133.5655753  27.7624786
  39.5700012 144.0274997  36.2929988  39.7140012 143.1254997  36.0059988
  38.7980012 144.3134997  35.8049988  39.4853322 143.9428261  36.1877881
  43.9120012 144.3714997  18.4249988  43.9760012 143.5774997  18.9559988
  44.5650012 144.2524997  17.7349988  44.0090241 144.2467148  18.4044317
  46.2260012 143.9974997  35.7249988  45.8970012 144.2684997  34.8679988
  46.3780012 143.0564997  35.6379988  46.2014809 143.9073862  35.5958244
  51.9600012 143.9134997  33.1089988  52.7060012 144.5014997  32.9889988
  51.2030012 144.4954997  33.1719988  51.9597554 144.0727011  33.1010907
  40.4030012 141.2274997  35.7129988  40.8110012 140.3704997  35.5919988
  40.1430012 141.2424997  36.6339988  40.4237568 141.1120807  35.8209588
  45.0610012 142.3434997  20.7309988  44.6010012 141.8594997  21.4169988
  45.3160012 141.6754997  20.0949988  45.0324902 142.1868731  20.7389334
  44.3500012 140.2364997  33.0869988  43.7320012 140.9114997  33.3669988
  44.6940012 140.5574997  32.2539988  44.3119615 140.3722721  33.0126581
  46.1320012 140.5864997  18.9929988  45.9520012 140.4324997  18.0659988
  47.0820012 140.6944997  19.0379988  46.2357776 140.5800175  18.8721843
  49.3700012 142.7084997  36.3639988  50.3230012 142.7914997  36.3369988
  49.2090012 141.9964997  36.9839988  49.4786426 142.6236746  36.4440579
  55.5220012 142.9414997  18.4389988  55.2480012 142.5164997  17.6259988
  55.5610012 143.8724997  18.2219988  55.4897699 143.0092484  18.2983610
  44.6890012 137.5914997  34.1689988  44.8390012 136.8624997  33.5669988
  44.6920012 138.3684997  33.6099988  44.7099302 137.5967851  34.0110692
  45.1020012 135.9614997  31.6619988  45.6380012 136.4124997  31.0099988
  44.2500012 135.8534997  31.2389988  45.0602178 136.0086390  31.5155756
  46.6840012 141.4004997  31.9009988  47.4340012 141.2444997  31.3279988
  46.3450012 142.2524997  31.6259988  46.7408921 141.4942968  31.7853561
  51.0990012 139.2154997  36.9299988  51.2920012 138.2844997  36.8179988
  51.9570012 139.6404997  36.9199988  51.2413020 139.1456389  36.9133361
  52.4160012 142.0044997  35.0069988  52.1350012 142.7134997  34.4299988
  53.3590012 141.9314997  34.8559988  52.5049027 142.0917646  34.9075551
  43.1680012 138.7894997  36.0809988  42.4010012 138.2574997  35.8709988
  43.8470012 138.4794997  35.4809988  43.1547022 138.6747506  35.9711648
  45.9080012 133.4174997  32.0929988  45.8090012 134.3644997  31.9879988
  45.1650012 133.0454997  31.6179988  45.7940563 133.4965902  32.0144560
  47.1720012 137.7394997  35.6569988  46.9360012 137.5194997  36.5589988
  46.3880012 137.5324997  35.1469988  47.0338628 137.6814760  35.7113932
  49.8870012 136.8664997  34.7329988  48.9400012 136.8984997  34.8649988
  50.2000012 136.2414997  35.3859988  49.7995475 136.7863207  34.8394455
  51.5210012 135.5004997  36.7379988  51.4250012 134.5484997  36.7319988
  51.2000012 135.7694997  37.5979988  51.4644070 135.4064035  36.8535441
  41.3480012 136.7104997  35.7849988  41.5600012 136.0034997  35.1749988
  41.2370012 136.2724997  36.6289988  41.3619721 136.5547084  35.8156843
  46.1290012 132.7114997  34.7649988  46.8410012 132.0714997  34.7509988
  46.0280012 132.9784997  33.8509988  46.2127939 132.6599938  34.6395650
  46.4830012 134.3944997  36.8179988  46.3510012 133.9184997  35.9979988
  45.8840012 135.1384997  36.7629988  46.3839071 134.4299618  36.6982886
  55.9800012 143.8104997  22.4139988  56.8300012 144.2314997  22.5409988
  55.9860012 143.0704997  23.0209988  56.0971372 143.7680803  22.5134344
  56.3750012 141.8634997  24.2379988  55.6480012 141.3844997  24.6349988
  56.9560012 142.0694997  24.9699988  56.3539375 141.8257090  24.3914129
  56.1340012 144.6484997  29.1849988  56.9670012 144.2704997  28.9049988
  56.2460012 145.5914997  29.0659988  56.2632647 144.7242218  29.1305487
  56.6430012 141.7644997  20.6289988  56.1210012 142.1214997  19.9099988
  56.6100012 142.4394997  21.3069988  56.5671634 141.9045413  20.6223145
  54.9920012 139.0044997  19.1799988  55.0880012 139.6714997  18.4989988
  54.8520012 138.1884997  18.6979988  54.9862135 138.9854500  19.0218491
  54.1610012 140.3844997  24.8009988  54.0110012 139.4394997  24.7799988
  53.8080012 140.6654997  25.6439988  54.0926625 140.2930441  24.9122346
  39.1970012 142.4624997  28.8109988  39.3810012 142.3804997  27.8749988
  40.0460012 142.3384997  29.2349988  39.3370139 142.4345003  28.7401455
  55.0180012 142.3544997  34.4389988  55.6010012 141.6204997  34.6309988
  55.5820012 143.1264997  34.4859988  55.1739769 142.3584227  34.4716159
  56.5140012 140.2574997  35.1239988  55.6510012 139.8784997  34.9579988
  57.1190012 139.5184997  35.0499988  56.4775979 140.1058023  35.0912817
  54.2390012 136.4124997  18.2969988  54.8500012 136.0414997  18.9339988
  53.4030012 135.9914997  18.4929988  54.2095032 136.3047554  18.4107035
  53.8720012 137.9674997  23.2629988  54.1520012 137.0604997  23.3869988
  54.6310012 138.4014997  22.8739988  54.0129277 137.9020942  23.2273682
  54.4840012 138.5484997  28.6989988  55.4170012 138.7604997  28.6649988
  54.2490012 138.6504997  29.6209988  54.5798036 138.5912769  28.8189976
  54.5130012 139.2854997  31.4749988  53.6700012 139.5534997  31.8409988
  54.9550012 140.1074997  31.2639988  54.4574158 139.4333291  31.4965491
  38.7940012 137.7334997  34.9519988  39.7140012 137.6114997  35.1879988
  38.3450012 136.9834997  35.3409988  38.8591580 137.6153727  35.0369006
  56.7960012 133.2654997  36.8279988  57.1460012 132.6114997  36.2229988
  56.9430012 134.1024997  36.3889988  56.8638419 133.2891591  36.6857118
  54.4850012 135.2304997  23.3109988  54.6680012 134.7814997  24.1369988
  53.8860012 134.6454997  22.8479988  54.4290202 135.0899975  23.3613275
  40.0150012 136.0454997  27.8429988  40.4610012 135.2534997  28.1449988
  40.4820012 136.7614997  28.2739988  40.1390172 136.0340624  27.9424820
  38.3190012 139.0444997  28.9119988  38.8110012 138.8234997  28.1209988
  38.6820012 139.8854997  29.1929988  38.4353126 139.1278357  28.8417531
  56.3160012 135.3744997  35.1779988  55.3980012 135.6454997  35.1419988
  56.4390012 134.8394997  34.3929988  56.2071066 135.3392892  35.0670487
  56.3520012 135.2974997  19.8389988  56.7640012 134.5764997  19.3639988
  57.0340012 135.9674997  19.8979988  56.5005885 135.2892368  19.7818915
  38.6330012 135.3024997  22.9659988  37.7080012 135.5114997  22.8369988
  39.0870012 135.7864997  22.2769988  38.5677368 135.3965993  22.8551226
  38.5970012 134.0404997  31.3109988  37.9320012 133.7944997  31.9539988
  38.1540012 134.6624997  30.7329988  38.4460956 134.0908632  31.3209352
  55.3160012 133.4644997  32.9969988  54.5040012 133.7894997  32.6089988
  55.5490012 132.7044997  32.4639988  55.2363423 133.4062436  32.8718253
  48.7460012 134.9134997  27.3189988  48.0720012 134.2844997  27.5749988
  49.3100012 134.4294997  26.7159988  48.7299230 134.7618744  27.2725340
  53.8890012 133.0214997  27.4319988  54.4930012 133.5684997  26.9299988
  53.0190012 133.3404997  27.1919988  53.8541241 133.1395806  27.3307654
  55.6160012 134.1594997  25.7649988  56.2280012 133.6454997  25.2389988
  55.9980012 135.0374997  25.7889988  55.7514540 134.2077140  25.6961830
  41.0730012 133.5474997  25.1409988  40.2960012 133.3134997  24.6339988
  41.6030012 132.7504997  25.1499988  41.0382330 133.4076988  25.0727742
  39.9090012 133.3454997  20.9449988  40.3480012 133.9564997  20.3529988
  39.2760012 133.8834997  21.4189988  39.8834514 133.5019257  20.9280930
  45.6520012 133.4744997  24.9549988  46.5270012 133.8624997  24.9249988
  45.5160012 133.2594997  25.8769988  45.7533695 133.4985184  25.0756440
  51.2090012 133.5044997  26.6039988  51.2850012 133.5994997  25.6539988
  50.9340012 132.5964997  26.7329988  51.1822321 133.3947867  26.4915079
  52.5620012 133.5304997  22.2959988  51.8600012 134.1454997  22.0869988
  52.1180012 132.6924997  22.4269988  52.4056330 133.5015783  22.2850328
  41.7700012 135.2614997  19.3869988  42.2620012 134.6314997  18.8599988
  42.3940012 135.5574997  20.0509988  41.9215446 135.2153199  19.4045980
  46.7960012 135.5544997  21.8439988  46.9740012 134.9084997  22.5269988
  46.7430012 136.3884997  22.3119988  46.8131829 135.5787985  22.0005940
  41.0310012 134.0614997  34.6589988  40.6650012 133.2964997  35.1019988
  41.9440012 134.0904997  34.9459988  41.1042790 133.9607224  34.7584070
  43.0040012 133.4124997  36.1949988  43.9020012 133.1384997  36.0099988
  42.6170012 132.6694997  36.6589988  43.0746612 133.2745914  36.2323643
  51.4250012 132.7444997  36.3769988  51.5020012 132.3184997  37.2309988
  52.3190012 132.7584997  36.0339988  51.5563428 132.6880879  36.4475310
  69.0070012 142.7034997  25.0999988  69.0960012 143.6474997  24.9679988
  68.3690012 142.4284997  24.4419988  68.9329081 142.7954830  24.9929614
  67.9400012 141.9584997  28.5189988  67.9020012 141.3124997  29.2239988
  67.6180012 141.4924997  27.7479988  67.8912333 141.8069408  28.5112978
  60.3090012 141.5734997  30.1119988  60.3500012 140.9474997  30.8349988
  61.0120012 142.1974997  30.2939988  60.4096363 141.5721196  30.2356044
  71.6460012 144.8974997  26.8199988  71.2060012 144.1774997  27.2709988
  71.6330012 145.6184997  27.4499988  71.5840226 144.8963731  26.9668494
  57.8420012 139.6834997  24.0399988  57.3950012 140.5294997  24.0209988
  57.2810012 139.1034997  23.5239988  57.7049900 139.7209916  23.9676801
  58.5530012 141.8454997  26.1659988  58.7660012 141.0754997  26.6929988
  59.2910012 141.9344997  25.5619988  58.6818496 141.7521394  26.1565300
  66.3300012 144.3914997  28.9249988  66.6340012 143.7054997  28.3299988
  67.0510012 144.5094997  29.5429988  66.4690671 144.3136305  28.9271816
  74.9930012 135.9924997  29.7859988  75.0420012 136.6024997  30.5219988
  75.4180012 136.4534997  29.0629988  75.0571824 136.1383741  29.7890205
  69.4710012 138.7854997  29.2529988  69.6130012 137.8394997  29.2729988
  69.3640012 138.9924997  28.3239988  69.4759864 138.6839534  29.1302339
  62.6250012 136.8864997  26.5249988  62.6690012 137.7464997  26.1069988
  62.1680012 136.3344997  25.8909988  62.5692185 136.9295799  26.3820299
  70.3480012 137.0174997  24.9259988  70.9940012 136.6884997  25.5509988
  70.8580012 137.5354997  24.3029988  70.5054264 137.0424611  24.9273862
  59.2460012 139.2834997  27.2869988  59.8990012 138.7334997  27.7189988
  59.2700012 139.0094997  26.3699988  59.3386683 139.1711466  27.2222123
  64.4020012 140.8334997  26.5019988  65.0180012 140.3074997  27.0119988
  63.8160012 140.1934997  26.0989988  64.4070810 140.6749208  26.5173173
  75.3840012 137.4704997  32.0219988  74.6960012 138.1284997  31.9259988
  75.4000012 137.2734997  32.9579988  75.2918525 137.5340462  32.1354808
  61.4360012 135.8044997  30.5989988  61.2170012 136.3344997  29.8329988
  60.7680012 136.0314997  31.2459988  61.3157600 135.9076906  30.5816379
  64.0050012 143.4804997  30.8859988  63.2650012 144.0784997  30.9899988
  64.7190012 144.0344997  30.5709988  64.0002237 143.6372831  30.8576465
  72.1120012 136.3084997  26.9059988  71.8960012 135.5424997  27.4389988
  72.7670012 136.7804997  27.4189988  72.1710632 136.2675889  27.0482861
  61.0290012 137.6964997  28.5509988  61.6430012 138.3294997  28.9249988
  61.5410012 137.2244997  27.8949988  61.1822296 137.7192370  28.5134252
  72.4590012 135.0234997  30.5859988  71.7230012 135.6344997  30.5479988
  73.1420012 135.4384997  30.0589988  72.4506541 135.1631374  30.5095832
  65.4620012 133.1104997  28.0519988  65.3450012 132.1614997  27.9969988
  64.6070012 133.4424997  28.3249988  65.3303733 133.0255409  28.0813897
  73.2560012 144.9854997  32.7799988  73.3960012 144.3944997  32.0399988
  73.4230012 145.8584997  32.4229988  73.2976778 145.0226426  32.6306965
  67.7290012 141.9474997  22.5519988  67.0170012 142.4824997  22.1999988
  68.4200012 142.0034997  21.8919988  67.7250132 142.0282543  22.4146289
  67.7820012 140.4054997  19.5909988  68.4830012 140.4274997  20.2419988
  68.0850012 139.7774997  18.9349988  67.9187830 140.3236566  19.5913711
  75.0980012 141.3254997  30.8459988  74.4450012 142.0204997  30.9349988
  75.5630012 141.5354997  30.0359988  75.0715390 141.4489425  30.7486883
  71.1340012 142.1574997  23.5039988  70.4020012 142.3854997  24.0769988
  71.5820012 141.4434997  23.9589988  71.0943095 142.0922571  23.6439119
  71.0320012 140.3314997  32.5709988  71.1120012 141.0944997  33.1429988
  70.4300012 140.6104997  31.8809988  70.9615756 140.4737134  32.5560589
  62.7800012 142.7874997  25.3859988  62.4490012 142.4174997  24.5679988
  63.3680012 142.1174997  25.7329988  62.8141873 142.6461156  25.3208102
  63.1460012 141.5564997  29.0199988  63.7120012 141.6774997  28.2569988
  63.4650012 142.1934997  29.6589988  63.2665786 141.6591884  29.0020040
  70.0050012 141.3194997  21.1889988  70.5850012 141.4694997  21.9359988
  70.4190012 141.7904997  20.4659988  70.1402830 141.4036841  21.1934134
  60.9460012 142.1534997  32.9659988  61.0170012 142.8044997  33.6639988
  60.0560012 142.2564997  32.6309988  60.8353117 142.2565936  33.0162700
  73.7040012 133.0694997  21.0019988  72.8040012 133.2084997  21.2969988
  73.9560012 133.9004997  20.5999988  73.6148702 133.2009074  20.9880205
  61.7700012 141.8574997  22.9759988  61.4780012 142.6254997  22.4849988
  61.0960012 141.1974997  22.8129988  61.6389081 141.8734406  22.8867340
  57.8630012 144.2204997  31.7909988  57.3620012 144.1924997  30.9759988
  57.8680012 143.3144997  32.0999988  57.7951526 144.0942278  31.7212872
  72.9630012 139.1594997  34.8369988  72.5560012 139.6404997  34.1159988
  73.0040012 138.2544997  34.5289988  72.9128437 139.1029374  34.6966683
  62.7310012 134.0134997  28.8289988  61.8690012 133.9264997  28.4219988
  62.7080012 134.8694997  29.2569988  62.6100330 134.1172765  28.8311863
  67.3940012 133.7354997  32.2039988  67.8140012 133.3204997  32.9569988
  66.4610012 133.5574997  32.3209988  67.3253644 133.6545900  32.3229539
  70.7200012 137.4914997  33.0569988  70.2060012 137.3654997  33.8549988
  70.5650012 138.4034997  32.8129988  70.6286852 137.5976132  33.1332158
  71.4830012 142.3524997  18.8189988  71.5250012 142.1294997  17.8889988
  72.3320012 142.7514997  19.0089988  71.6035396 142.3759155  18.7173627
  67.0550012 136.2284997  19.4889988  66.8020012 136.2474997  20.4119988
  66.7990012 135.3564997  19.1879988  66.9857790 136.1132437  19.5746263
  62.8220012 138.9794997  29.9239988  62.1800012 138.9384997  30.6329988
  62.8590012 139.9054997  29.6869988  62.7391324 139.0991559  29.9889824
  62.8190012 139.2004997  24.8359988  61.9260012 138.8594997  24.7779988
  63.2690012 138.8234997  24.0809988  62.7577305 139.1028484  24.7259177
  68.3540012 139.6164997  23.6529988  67.9450012 140.4314997  23.3619988
  69.0750012 139.4764997  23.0389988  68.3954537 139.7092018  23.5301342
  67.4560012 139.7914997  35.1409988  66.8940012 139.0874997  35.4619988
  68.2830012 139.6714997  35.6089988  67.4907095 139.6787883  35.2482330
  69.3590012 139.0624997  26.4669988  69.1640012 139.6674997  25.7519988
  69.5400012 138.2284997  26.0329988  69.3567614 139.0326300  26.3104405
  60.5720012 139.2994997  31.7909988  60.5340012 139.6994997  32.6599988
  60.0810012 138.4824997  31.8819988  60.5004684 139.2438069  31.9221059
  63.9380012 136.6734997  18.5899988  63.5070012 136.2284997  19.3199988
  63.2200012 137.0454997  18.0779988  63.7819438 136.6628940  18.6206799
  57.1800012 136.4154997  25.6419988  57.8110012 136.3864997  26.3609988
  57.6290012 135.9904997  24.9119988  57.3270774 136.3540492  25.6416553
  58.4540012 137.1614997  21.0659988  58.9280012 137.7524997  20.4809988
  57.7370012 137.6924997  21.4129988  58.4219341 137.3140867  21.0328836
  68.6230012 140.7004997  31.1389988  68.9460012 140.0694997  30.4959988
  68.1830012 140.1654997  31.7989988  68.6076895 140.5418441  31.1402850
  65.4000012 136.6274997  25.9229988  64.4890012 136.6844997  26.2109988
  65.9060012 136.5674997  26.7329988  65.3435413 136.6271985  26.0720622
  60.2290012 138.2564997  24.7489988  59.3390012 138.3564997  24.4089988
  60.5250012 137.4144997  24.4029988  60.1472823 138.1563546  24.6557213
  63.8820012 138.2564997  22.4059988  64.8130012 138.3854997  22.5839988
  63.6670012 138.9264997  21.7559988  63.9804247 138.3646565  22.3425747
  69.8050012 135.8624997  29.1869988  69.1290012 135.9934997  29.8509988
  69.3200012 135.7074997  28.3769988  69.6467145 135.8594905  29.1684517
  62.5560012 139.4514997  19.9729988  62.0130012 139.0714997  19.2809988
  63.3890012 139.6454997  19.5439988  62.5944399 139.4258124  19.8204526
  60.6910012 144.0084997  35.0719988  61.4230012 144.2624997  35.6329988
  59.9110012 144.2124997  35.5869988  60.6858232 144.0709177  35.2185760
  66.7200012 139.4154997  27.8099988  67.2850012 138.8684997  27.2629988
  66.5730012 138.8934997  28.5979988  66.7772918 139.2702024  27.8418454
  61.7220012 135.5514997  24.2279988  61.4050012 134.6494997  24.1929988
  62.5040012 135.5534997  23.6749988  61.7842284 135.4281628  24.1484783
  65.3470012 137.8034997  30.2239988  64.5110012 138.2574997  30.3339988
  65.8710012 138.0794997  30.9759988  65.3034414 137.9029376  30.3407136
  65.8910012 144.0164997  21.9079988  65.1460012 143.5094997  21.5859988
  65.7570012 144.0654997  22.8549988  65.7708776 143.9536940  21.9918647
  73.0410012 143.1494997  30.6949988  73.6830012 143.6064997  30.1509988
  72.2110012 143.2624997  30.2319988  73.0165963 143.2272704  30.5580177
  69.7890012 136.8304997  20.1079988  68.8500012 136.9424997  19.9559988
  70.0860012 137.6874997  20.4139988  69.7007666 136.9616443  20.1285768
  67.4100012 144.2004997  33.1449988  67.0650012 143.8194997  33.9519988
  67.2100012 145.1344997  33.2169988  67.3358061 144.2745228  33.2650961
  70.5070012 138.6974997  21.7679988  71.3990012 138.5604997  22.0869988
  70.5640012 139.4884997  21.2319988  70.6366285 138.7856660  21.7391691
  61.0160012 143.3114997  27.6779988  61.7610012 143.3094997  27.0769988
  61.0940012 142.4884997  28.1599988  61.1285518 143.1999315  27.6608929
  58.0240012 141.7724997  32.9929988  58.2470012 141.3544997  33.8249988
  57.4220012 141.1594997  32.5699988  57.9731759 141.6324668  33.0497022
  65.0400012 141.2894997  35.2059988  64.7440012 141.1234997  34.3109988
  65.9720012 141.0694997  35.1949988  65.1254166 141.2370640  35.0820536
  75.3920012 138.9074997  21.4629988  74.8380012 138.5114997  20.7909988
  75.4920012 139.8174997  21.1849988  75.3297059 138.9763586  21.3334401
  75.3550012 144.7074997  34.2999988  74.5040012 144.9454997  33.9329988
  75.9460012 144.6904997  33.5469988  75.3182487 144.7378258  34.1478893
  70.8480012 142.5014997  28.9489988  69.9190012 142.2694997  28.9219988
  71.2990012 141.7244997  28.6189988  70.7819216 142.3647238  28.9006917
  59.1460012 141.6914997  19.6689988  59.7620012 142.3184997  20.0489988
  58.2840012 142.0074997  19.9409988  59.1137698 141.8199430  19.7577183
  64.8180012 144.4924997  24.6589988  64.5770012 145.4174997  24.6999988
  64.0770012 144.0334997  25.0549988  64.6848409 144.5571421  24.7181377
  68.8770012 144.7404997  30.6739988  68.4510012 144.5134997  31.5009988
  69.4570012 144.0024997  30.4919988  68.8971868 144.6095299  30.7625830
  59.6580012 136.5254997  32.5509988  58.7650012 136.8644997  32.4829988
  59.5590012 135.6704997  32.9689988  59.5224164 136.4562588  32.5982235
  71.9460012 144.3424997  21.9749988  71.6680012 143.6144997  22.5309988
  72.8730012 144.4614997  22.1799988  72.0333124 144.2588802  22.0788845
  60.5610012 143.6044997  21.1619988  59.8750012 143.9564997  21.7289988
  61.0830012 144.3674997  20.9149988  60.5376852 143.7558578  21.2062118
  68.3920012 136.2664997  31.4409988  69.0910012 136.3404997  32.0909988
  68.0110012 135.4024997  31.5949988  68.4361767 136.1597624  31.5508322
  69.1770012 135.9184997  22.5379988  69.3970012 136.3904997  21.7349988
  69.7350012 136.3134997  23.2079988  69.2824968 136.0364285  22.5187331
  66.3770012 137.6464997  23.3729988  67.1890012 138.1514997  23.4189988
  66.1320012 137.5014997  24.2869988  66.4550520 137.6960375  23.5028517
  66.9120012 138.6324997  32.5579988  67.0310012 139.2064997  33.3149988
  67.5680012 137.9444997  32.6719988  67.0169757 138.6181079  32.6770825
  67.2600012 134.7274997  24.3109988  66.9140012 135.3454997  24.9559988
  67.9190012 135.2284997  23.8299988  67.3017826 134.8795802  24.3340971
  62.9180012 135.7904997  20.9979988  62.8350012 136.6794997  21.3449988
  63.8080012 135.5254997  21.2299988  63.0269469 135.8761430  21.0767626
  73.1170012 136.5394997  33.3929988  72.2000012 136.8024997  33.3049988
  73.4520012 136.5364997  32.4959988  73.0369900 136.5750224  33.2597919
  71.7190012 140.2904997  27.4879988  70.9210012 139.8754997  27.1599988
  72.1640012 139.5994997  27.9789988  71.6699885 140.1403543  27.5094889
  59.4930012 138.8824997  19.1749988  59.4480012 139.8214997  19.3529988
  58.6050012 138.6464997  18.9049988  59.3668574 138.9791892  19.1628912
  60.3010012 133.6644997  27.8479988  60.0720012 133.7234997  26.9199988
  59.8580012 132.8724997  28.1539988  60.2098530 133.5655753  27.7624786
  58.4260012 144.0274997  36.2929988  58.5700012 143.1254997  36.0059988
  57.6540012 144.3134997  35.8049988  58.3413322 143.9428261  36.1877881
  62.7680012 144.3714997  18.4249988  62.8320012 143.5774997  18.9559988
  63.4210012 144.2524997  17.7349988  62.8650241 144.2467148  18.4044317
  65.0820012 143.9974997  35.7249988  64.7530012 144.2684997  34.8679988
  65.2340012 143.0564997  35.6379988  65.0574809 143.9073862  35.5958244
  70.8160012 143.9134997  33.1089988  71.5620012 144.5014997  32.9889988
  70.0590012 144.4954997  33.1719988  70.8157554 144.0727011  33.1010907
  59.2590012 141.2274997  35.7129988  59.6670012 140.3704997  35.5919988
  58.9990012 141.2424997  36.6339988  59.2797568 141.1120807  35.8209588
  63.9170012 142.3434997  20.7309988  63.4570012 141.8594997  21.4169988
  64.1720012 141.6754997  20.0949988  63.8884902 142.1868731  20.7389334
  63.2060012 140.2364997  33.0869988  62.5880012 140.9114997  33.3669988
  63.5500012 140.5574997  32.2539988  63.1679615 140.3722721  33.0126581
  64.9880012 140.5864997  18.9929988  64.8080012 140.4324997  18.0659988
  65.9380012 140.6944997  19.0379988  65.0917776 140.5800175  18.8721843
  68.2260012 142.7084997  36.3639988  69.1790012 142.7914997  36.3369988
  68.0650012 141.9964997  36.9839988  68.3346426 142.6236746  36.4440579
  74.3780012 142.9414997  18.4389988  74.1040012 142.5164997  17.6259988
  74.4170012 143.8724997  18.2219988  74.3457699 143.0092484  18.2983610
  63.5450012 137.5914997  34.1689988  63.6950012 136.8624997  33.5669988
  63.5480012 138.3684997  33.6099988  63.5659302 137.5967851  34.0110692
  63.9580012 135.9614997  31.6619988  64.4940012 136.4124997  31.0099988
  63.1060012 135.8534997  31.2389988  63.9162178 136.0086390  31.5155756
  65.5400012 141.4004997  31.9009988  66.2900012 141.2444997  31.3279988
  65.2010012 142.2524997  31.6259988  65.5968921 141.4942968  31.7853561
  69.9550012 139.2154997  36.9299988  70.1480012 138.2844997  36.8179988
  70.8130012 139.6404997  36.9199988  70.0973020 139.1456389  36.9133361
  71.2720012 142.0044997  35.0069988  70.9910012 142.7134997  34.4299988
  72.2150012 141.9314997  34.8559988  71.3609027 142.0917646  34.9075551
  62.0240012 138.7894997  36.0809988  61.2570012 138.2574997  35.8709988
  62.7030012 138.4794997  35.4809988  62.0107022 138.6747506  35.9711648
  64.7640012 133.4174997  32.0929988  64.6650012 134.3644997  31.9879988
  64.0210012 133.0454997  31.6179988  64.6500564 133.4965902  32.0144560
  66.0280012 137.7394997  35.6569988  65.7920012 137.5194997  36.5589988
  65.2440012 137.5324997  35.1469988  65.8898628 137.6814760  35.7113932
  68.7430012 136.8664997  34.7329988  67.7960012 136.8984997  34.8649988
  69.0560012 136.2414997  35.3859988  68.6555475 136.7863207  34.8394455
  70.3770012 135.5004997  36.7379988  70.2810012 134.5484997  36.7319988
  70.0560012 135.7694997  37.5979988  70.3204070 135.4064035  36.8535441
  60.2040012 136.7104997  35.7849988  60.4160012 136.0034997  35.1749988
  60.0930012 136.2724997  36.6289988  60.2179721 136.5547084  35.8156843
  64.9850012 132.7114997  34.7649988  65.6970012 132.0714997  34.7509988
  64.8840012 132.9784997  33.8509988  65.0687939 132.6599938  34.6395650
  65.3390012 134.3944997  36.8179988  65.2070012 133.9184997  35.9979988
  64.7400012 135.1384997  36.7629988  65.2399071 134.4299618  36.6982886
  74.8360012 143.8104997  22.4139988  75.6860012 144.2314997  22.5409988
  74.8420012 143.0704997  23.0209988  74.9531372 143.7680803  22.5134344
  75.2310012 141.8634997  24.2379988  74.5040012 141.3844997  24.6349988
  75.8120012 142.0694997  24.9699988  75.2099375 141.8257090  24.3914129
  74.9900012 144.6484997  29.1849988  75.8230012 144.2704997  28.9049988
  75.1020012 145.5914997  29.0659988  75.1192647 144.7242218  29.1305487
  75.4990012 141.7644997  20.6289988  74.9770012 142.1214997  19.9099988
  75.4660012 142.4394997  21.3069988  75.4231634 141.9045413  20.6223145
  73.8480012 139.0044997  19.1799988  73.9440012 139.6714997  18.4989988
  73.7080012 138.1884997  18.6979988  73.8422135 138.9854500  19.0218491
  73.0170012 140.3844997  24.8009988  72.8670012 139.4394997  24.7799988
  72.6640012 140.6654997  25.6439988  72.9486625 140.2930441  24.9122346
  58.0530012 142.4624997  28.8109988  58.2370012 142.3804997  27.8749988
  58.9020012 142.3384997  29.2349988  58.1930139 142.4345003  28.7401455
  73.8740012 142.3544997  34.4389988  74.4570012 141.6204997  34.6309988
  74.4380012 143.1264997  34.4859988  74.0299769 142.3584227  34.4716159
  75.3700012 140.2574997  35.1239988  74.5070012 139.8784997  34.9579988
  75.9750012 139.5184997  35.0499988  75.3335979 140.1058023  35.0912817
  73.0950012 136.4124997  18.2969988  73.7060012 136.0414997  18.9339988
  72.2590012 135.9914997  18.4929988  73.0655032 136.3047554  18.4107035
  72.7280012 137.9674997  23.2629988  73.0080012 137.0604997  23.3869988
  73.4870012 138.4014997  22.8739988  72.8689277 137.9020942  23.2273682
  73.3400012 138.5484997  28.6989988  74.2730012 138.7604997  28.6649988
  73.1050012 138.6504997  29.6209988  73.4358036 138.5912769  28.8189976
  73.3690012 139.2854997  31.4749988  72.5260012 139.5534997  31.8409988
  73.8110012 140.1074997  31.2639988  73.3134158 139.4333291  31.4965491
  57.6500012 137.7334997  34.9519988  58.5700012 137.6114997  35.1879988
  57.2010012 136.9834997  35.3409988  57.7151580 137.6153727  35.0369006
  75.6520012 133.2654997  36.8279988  76.0020012 132.6114997  36.2229988
  75.7990012 134.1024997  36.3889988  75.7198419 133.2891591  36.6857118
  73.3410012 135.2304997  23.3109988  73.5240012 134.7814997  24.1369988
  72.7420012 134.6454997  22.8479988  73.2850202 135.0899975  23.3613275
  58.8710012 136.0454997  27.8429988  59.3170012 135.2534997  28.1449988
  59.3380012 136.7614997  28.2739988  58.9950172 136.0340624  27.9424820
  57.1750012 139.0444997  28.9119988  57.6670012 138.8234997  28.1209988
  57.5380012 139.8854997  29.1929988  57.2913126 139.1278357  28.8417531
  75.1720012 135.3744997  35.1779988  74.2540012 135.6454997  35.1419988
  75.2950012 134.8394997  34.3929988  75.0631066 135.3392892  35.0670487
  75.2080012 135.2974997  19.8389988  75.6200012 134.5764997  19.3639988
  75.8900012 135.9674997  19.8979988  75.3565885 135.2892368  19.7818915
  57.4890012 135.3024997  22.9659988  56.5640012 135.5114997  22.8369988
  57.9430012 135.7864997  22.2769988  57.4237368 135.3965993  22.8551226
  57.4530012 134.0404997  31.3109988  56.7880012 133.7944997  31.9539988
  57.0100012 134.6624997  30.7329988  57.3020956 134.0908632  31.3209352
  74.1720012 133.4644997  32.9969988  73.3600012 133.7894997  32.6089988
  74.4050012 132.7044997  32.4639988  74.0923423 133.4062436  32.8718253
  67.6020012 134.9134997  27.3189988  66.9280012 134.2844997  27.5749988
  68.1660012 134.4294997  26.7159988  67.5859230 134.7618744  27.2725340
  72.7450012 133.0214997  27.4319988  73.3490012 133.5684997  26.9299988
  71.8750012 133.3404997  27.1919988  72.7101241 133.1395806  27.3307654
  74.4720012 134.1594997  25.7649988  75.0840012 133.6454997  25.2389988
  74.8540012 135.0374997  25.7889988  74.6074540 134.2077140  25.6961830
  59.9290012 133.5474997  25.1409988  59.1520012 133.3134997  24.6339988
  60.4590012 132.7504997  25.1499988  59.8942330 133.4076988  25.0727742
  58.7650012 133.3454997  20.9449988  59.2040012 133.9564997  20.3529988
  58.1320012 133.8834997  21.4189988  58.7394514 133.5019257  20.9280930
  64.5080012 133.4744997  24.9549988  65.3830012 133.8624997  24.9249988
  64.3720012 133.2594997  25.8769988  64.6093695 133.4985184  25.0756440
  70.0650012 133.5044997  26.6039988  70.1410012 133.5994997  25.6539988
  69.7900012 132.5964997  26.7329988  70.0382321 133.3947867  26.4915079
  71.4180012 133.5304997  22.2959988  70.7160012 134.1454997  22.0869988
  70.9740012 132.6924997  22.4269988  71.2616330 133.5015783  22.2850328
  60.6260012 135.2614997  19.3869988  61.1180012 134.6314997  18.8599988
  61.2500012 135.5574997  20.0509988  60.7775446 135.2153199  19.4045980
  65.6520012 135.5544997  21.8439988  65.8300012 134.9084997  22.5269988
  65.5990012 136.3884997  22.3119988  65.6691829 135.5787985  22.0005940
  59.8870012 134.0614997  34.6589988  59.5210012 133.2964997  35.1019988
  60.8000012 134.0904997  34.9459988  59.9602790 133.9607224  34.7584070
  61.8600012 133.4124997  36.1949988  62.7580012 133.1384997  36.0099988
  61.4730012 132.6694997  36.6589988  61.9306612 133.2745914  36.2323643
  70.2810012 132.7444997  36.3769988  70.3580012 132.3184997  37.2309988
  71.1750012 132.7584997  36.0339988  70.4123428 132.6880879  36.4475310
  87.8630012 142.7034997  25.0999988  87.9520012 143.6474997  24.9679988
  87.2250012 142.4284997  24.4419988  87.7889081 142.7954830  24.9929614
  86.7960012 141.9584997  28.5189988  86.7580012 141.3124997  29.2239988
  86.4740012 141.4924997  27.7479988  86.7472333 141.8069408  28.5112978
  79.1650012 141.5734997  30.1119988  79.2060012 140.9474997  30.8349988
  79.8680012 142.1974997  30.2939988  79.2656363 141.5721196  30.2356044
  90.5020012 144.8974997  26.8199988  90.0620012 144.1774997  27.2709988
  90.4890012 145.6184997  27.4499988  90.4400226 144.8963731  26.9668494
  76.6980012 139.6834997  24.0399988  76.2510012 140.5294997  24.0209988
  76.1370012 139.1034997  23.5239988  76.5609900 139.7209916  23.9676801
  77.4090012 141.8454997  26.1659988  77.6220012 141.0754997  26.6929988
  78.1470012 141.9344997  25.5619988  77.5378496 141.7521394  26.1565300
  85.1860012 144.3914997  28.9249988  85.4900012 143.7054997  28.3299988
  85.9070012 144.5094997  29.5429988  85.3250671 144.3136305  28.9271816
  93.8490012 135.9924997  29.7859988  93.8980012 136.6024997  30.5219988
  94.2740012 136.4534997  29.0629988  93.9131824 136.1383741  29.7890205
  88.3270012 138.7854997  29.2529988  88.4690012 137.8394997  29.2729988
  88.2200012 138.9924997  28.3239988  88.3319864 138.6839534  29.1302339
  81.4810012 136.8864997  26.5249988  81.5250012 137.7464997  26.1069988
  81.0240012 136.3344997  25.8909988  81.4252185 136.9295799  26.3820299
  89.2040012 137.0174997  24.9259988  89.8500012 136.6884997  25.5509988
  89.7140012 137.5354997  24.3029988  89.3614264 137.0424611  24.9273862
  78.1020012 139.2834997  27.2869988  78.7550012 138.7334997  27.7189988
  78.1260012 139.0094997  26.3699988  78.1946683 139.1711466  27.2222123
  83.2580012 140.8334997  26.5019988  83.8740012 140.3074997  27.0119988
  82.6720012 140.1934997  26.0989988  83.2630810 140.6749208  26.5173173
  94.2400012 137.4704997  32.0219988  93.5520012 138.1284997  31.9259988
  94.2560012 137.2734997  32.9579988  94.1478525 137.5340462  32.1354808
  80.2920012 135.8044997  30.5989988  80.0730012 136.3344997  29.8329988
  79.6240012 136.0314997  31.2459988  80.1717600 135.9076906  30.5816379
  82.8610012 143.4804997  30.8859988  82.1210012 144.0784997  30.9899988
  83.5750012 144.0344997  30.5709988  82.8562237 143.6372831  30.8576465
  90.9680012 136.3084997  26.9059988  90.7520012 135.5424997  27.4389988
  91.6230012 136.7804997  27.4189988  91.0270633 136.2675889  27.0482861
  79.8850012 137.6964997  28.5509988  80.4990012 138.3294997  28.9249988
  80.3970012 137.2244997  27.8949988  80.0382296 137.7192370  28.5134252
  91.3150012 135.0234997  30.5859988  90.5790012 135.6344997  30.5479988
  91.9980012 135.4384997  30.0589988  91.3066541 135.1631374  30.5095832
  84.3180012 133.1104997  28.0519988  84.2010012 132.1614997  27.9969988
  83.4630012 133.4424997  28.3249988  84.1863733 133.0255409  28.0813897
  92.1120012 144.9854997  32.7799988  92.2520012 144.3944997  32.0399988
  92.2790012 145.8584997  32.4229988  92.1536778 145.0226426  32.6306965
  86.5850012 141.9474997  22.5519988  85.8730012 142.4824997  22.1999988
  87.2760012 142.0034997  21.8919988  86.5810132 142.0282543  22.4146289
  86.6380012 140.4054997  19.5909988  87.3390012 140.4274997  20.2419988
  86.9410012 139.7774997  18.9349988  86.7747830 140.3236566  19.5913711
  93.9540012 141.3254997  30.8459988  93.3010012 142.0204997  30.9349988
  94.4190012 141.5354997  30.0359988  93.9275390 141.4489425  30.7486883
  89.9900012 142.1574997  23.5039988  89.2580012 142.3854997  24.0769988
  90.4380012 141.4434997  23.9589988  89.9503095 142.0922571  23.6439119
  89.8880012 140.3314997  32.5709988  89.9680012 141.0944997  33.1429988
  89.2860012 140.6104997  31.8809988  89.8175756 140.4737134  32.5560589
  81.6360012 142.7874997  25.3859988  81.3050012 142.4174997  24.5679988
  82.2240012 142.1174997  25.7329988  81.6701873 142.6461156  25.3208102
  82.0020012 141.5564997  29.0199988  82.5680012 141.6774997  28.2569988
  82.3210012 142.1934997  29.6589988  82.1225786 141.6591884  29.0020040
  88.8610012 141.3194997  21.1889988  89.4410012 141.4694997  21.9359988
  89.2750012 141.7904997  20.4659988  88.9962830 141.4036841  21.1934134
  79.8020012 142.1534997  32.9659988  79.8730012 142.8044997  33.6639988
  78.9120012 142.2564997  32.6309988  79.6913117 142.2565936  33.0162700
  92.5600012 133.0694997  21.0019988  91.6600012 133.2084997  21.2969988
  92.8120012 133.9004997  20.5999988  92.4708702 133.2009074  20.9880205
  80.6260012 141.8574997  22.9759988  80.3340012 142.6254997  22.4849988
  79.9520012 141.1974997  22.8129988  80.4949081 141.8734406  22.8867340
  76.7190012 144.2204997  31.7909988  76.2180012 144.1924997  30.9759988
  76.7240012 143.3144997  32.0999988  76.6511526 144.0942278  31.7212872
  91.8190012 139.1594997  34.8369988  91.4120012 139.6404997  34.1159988
  91.8600012 138.2544997  34.5289988  91.7688437 139.1029374  34.6966683
  81.5870012 134.0134997  28.8289988  80.7250012 133.9264997  28.4219988
  81.5640012 134.8694997  29.2569988  81.4660330 134.1172765  28.8311863
  86.2500012 133.7354997  32.2039988  86.6700012 133.3204997  32.9569988
  85.3170012 133.5574997  32.3209988  86.1813644 133.6545900  32.3229539
  89.5760012 137.4914997  33.0569988  89.0620012 137.3654997  33.8549988
  89.4210012 138.4034997  32.8129988  89.4846852 137.5976132  33.1332158
  90.3390012 142.3524997  18.8189988  90.3810012 142.1294997  17.8889988
  91.1880012 142.7514997  19.0089988  90.4595396 142.3759155  18.7173627
  85.9110012 136.2284997  19.4889988  85.6580012 136.2474997  20.4119988
  85.6550012 135.3564997  19.1879988  85.8417790 136.1132437  19.5746263
  81.6780012 138.9794997  29.9239988  81.0360012 138.9384997  30.6329988
  81.7150012 139.9054997  29.6869988  81.5951324 139.0991559  29.9889824
  81.6750012 139.2004997  24.8359988  80.7820012 138.8594997  24.7779988
  82.1250012 138.8234997  24.0809988  81.6137305 139.1028484  24.7259177
  87.2100012 139.6164997  23.6529988  86.8010012 140.4314997  23.3619988
  87.9310012 139.4764997  23.0389988  87.2514537 139.7092018  23.5301342
  86.3120012 139.7914997  35.1409988  85.7500012 139.0874997  35.4619988
  87.1390012 139.6714997  35.6089988  86.3467095 139.6787883  35.2482330
  88.2150012 139.0624997  26.4669988  88.0200012 139.6674997  25.7519988
  88.3960012 138.2284997  26.0329988  88.2127614 139.0326300  26.3104405
  79.4280012 139.2994997  31.7909988  79.3900012 139.6994997  32.6599988
  78.9370012 138.4824997  31.8819988  79.3564684 139.2438069  31.9221059
  82.7940012 136.6734997  18.5899988  82.3630012 136.2284997  19.3199988
  82.0760012 137.0454997  18.0779988  82.6379438 136.6628940  18.6206799
  76.0360012 136.4154997  25.6419988  76.6670012 136.3864997  26.3609988
  76.4850012 135.9904997  24.9119988  76.1830774 136.3540492  25.6416553
  77.3100012 137.1614997  21.0659988  77.7840012 137.7524997  20.4809988
  76.5930012 137.6924997  21.4129988  77.2779341 137.3140867  21.0328836
  87.4790012 140.7004997  31.1389988  87.8020012 140.0694997  30.4959988
  87.0390012 140.1654997  31.7989988  87.4636895 140.5418441  31.1402850
  84.2560012 136.6274997  25.9229988  83.3450012 136.6844997  26.2109988
  84.7620012 136.5674997  26.7329988  84.1995413 136.6271985  26.0720622
  79.0850012 138.2564997  24.7489988  78.1950012 138.3564997  24.4089988
  79.3810012 137.4144997  24.4029988  79.0032823 138.1563545  24.6557213
  82.7380012 138.2564997  22.4059988  83.6690012 138.3854997  22.5839988
  82.5230012 138.9264997  21.7559988  82.8364247 138.3646565  22.3425747
  88.6610012 135.8624997  29.1869988  87.9850012 135.9934997  29.8509988
  88.1760012 135.7074997  28.3769988  88.5027145 135.8594905  29.1684517
  81.4120012 139.4514997  19.9729988  80.8690012 139.0714997  19.2809988
  82.2450012 139.6454997  19.5439988  81.4504399 139.4258124  19.8204526
  79.5470012 144.0084997  35.0719988  80.2790012 144.2624997  35.6329988
  78.7670012 144.2124997  35.5869988  79.5418232 144.0709177  35.2185760
  85.5760012 139.4154997  27.8099988  86.1410012 138.8684997  27.2629988
  85.4290012 138.8934997  28.5979988  85.6332918 139.2702024  27.8418454
  80.5780012 135.5514997  24.2279988  80.2610012 134.6494997  24.1929988
  81.3600012 135.5534997  23.6749988  80.6402284 135.4281628  24.1484783
  84.2030012 137.8034997  30.2239988  83.3670012 138.2574997  30.3339988
  84.7270012 138.0794997  30.9759988  84.1594414 137.9029376  30.3407136
  84.7470012 144.0164997  21.9079988  84.0020012 143.5094997  21.5859988
  84.6130012 144.0654997  22.8549988  84.6268776 143.9536940  21.9918647
  91.8970012 143.1494997  30.6949988  92.5390012 143.6064997  30.1509988
  91.0670012 143.2624997  30.2319988  91.8725963 143.2272704  30.5580177
  88.6450012 136.8304997  20.1079988  87.7060012 136.9424997  19.9559988
  88.9420012 137.6874997  20.4139988  88.5567666 136.9616443  20.1285768
  86.2660012 144.2004997  33.1449988  85.9210012 143.8194997  33.9519988
  86.0660012 145.1344997  33.2169988  86.1918061 144.2745228  33.2650961
  89.3630012 138.6974997  21.7679988  90.2550012 138.5604997  22.0869988
  89.4200012 139.4884997  21.2319988  89.4926285 138.7856660  21.7391691
  79.8720012 143.3114997  27.6779988  80.6170012 143.3094997  27.0769988
  79.9500012 142.4884997  28.1599988  79.9845518 143.1999315  27.6608929
  76.8800012 141.7724997  32.9929988  77.1030012 141.3544997  33.8249988
  76.2780012 141.1594997  32.5699988  76.8291759 141.6324668  33.0497022
  83.8960012 141.2894997  35.2059988  83.6000012 141.1234997  34.3109988
  84.8280012 141.0694997  35.1949988  83.9814166 141.2370640  35.0820536
  94.2480012 138.9074997  21.4629988  93.6940012 138.5114997  20.7909988
  94.3480012 139.8174997  21.1849988  94.1857059 138.9763586  21.3334401
  94.2110012 144.7074997  34.2999988  93.3600012 144.9454997  33.9329988
  94.8020012 144.6904997  33.5469988  94.1742487 144.7378258  34.1478893
  89.7040012 142.5014997  28.9489988  88.7750012 142.2694997  28.9219988
  90.1550012 141.7244997  28.6189988  89.6379216 142.3647238  28.9006917
  78.0020012 141.6914997  19.6689988  78.6180012 142.3184997  20.0489988
  77.1400012 142.0074997  19.9409988  77.9697698 141.8199430  19.7577183
  83.6740012 144.4924997  24.6589988  83.4330012 145.4174997  24.6999988
  82.9330012 144.0334997  25.0549988  83.5408409 144.5571421  24.7181377
  87.7330012 144.7404997  30.6739988  87.3070012 144.5134997  31.5009988
  88.3130012 144.0024997  30.4919988  87.7531868 144.6095299  30.7625830
  78.5140012 136.5254997  32.5509988  77.6210012 136.8644997  32.4829988
  78.4150012 135.6704997  32.9689988  78.3784164 136.4562588  32.5982235
  90.8020012 144.3424997  21.9749988  90.5240012 143.6144997  22.5309988
  91.7290012 144.4614997  22.1799988  90.8893124 144.2588802  22.0788845
  79.4170012 143.6044997  21.1619988  78.7310012 143.9564997  21.7289988
  79.9390012 144.3674997  20.9149988  79.3936852 143.7558578  21.2062118
  87.2480012 136.2664997  31.4409988  87.9470012 136.3404997  32.0909988
  86.8670012 135.4024997  31.5949988  87.2921767 136.1597624  31.5508322
  88.0330012 135.9184997  22.5379988  88.2530012 136.3904997  21.7349988
  88.5910012 136.3134997  23.2079988  88.1384968 136.0364285  22.5187331
  85.2330012 137.6464997  23.3729988  86.0450012 138.1514997  23.4189988
  84.9880012 137.5014997  24.2869988  85.3110520 137.6960375  23.5028517
  85.7680012 138.6324997  32.5579988  85.8870012 139.2064997  33.3149988
  86.4240012 137.9444997  32.6719988  85.8729757 138.6181079  32.6770825
  86.1160012 134.7274997  24.3109988  85.7700012 135.3454997  24.9559988
  86.7750012 135.2284997  23.8299988  86.1577826 134.8795802  24.3340971
  81.7740012 135.7904997  20.9979988  81.6910012 136.6794997  21.3449988
  82.6640012 135.5254997  21.2299988  81.8829469 135.8761430  21.0767626
  91.9730012 136.5394997  33.3929988  91.0560012 136.8024997  33.3049988
  92.3080012 136.5364997  32.4959988  91.8929900 136.5750224  33.2597919
  90.5750012 140.2904997  27.4879988  89.7770012 139.8754997  27.1599988
  91.0200012 139.5994997  27.9789988  90.5259885 140.1403543  27.5094889
  78.3490012 138.8824997  19.1749988  78.3040012 139.8214997  19.3529988
  77.4610012 138.6464997  18.9049988  78.2228574 138.9791892  19.1628912
  79.1570012 133.6644997  27.8479988  78.9280012 133.7234997  26.9199988
  78.7140012 132.8724997  28.1539988  79.0658530 133.5655753  27.7624786
  77.2820012 144.0274997  36.2929988  77.4260012 143.1254997  36.0059988
  76.5100012 144.3134997  35.8049988  77.1973322 143.9428261  36.1877881
  81.6240012 144.3714997  18.4249988  81.6880012 143.5774997  18.9559988
  82.2770012 144.2524997  17.7349988  81.7210241 144.2467148  18.4044317
  83.9380012 143.9974997  35.7249988  83.6090012 144.2684997  34.8679988
  84.0900012 143.0564997  35.6379988  83.9134809 143.9073862  35.5958244
  89.6720012 143.9134997  33.1089988  90.4180012 144.5014997  32.9889988
  88.9150012 144.4954997  33.1719988  89.6717554 144.0727011  33.1010907
  78.1150012 141.2274997  35.7129988  78.5230012 140.3704997  35.5919988
  77.8550012 141.2424997  36.6339988  78.1357568 141.1120807  35.8209588
  82.7730012 142.3434997  20.7309988  82.3130012 141.8594997  21.4169988
  83.0280012 141.6754997  20.0949988  82.7444902 142.1868731  20.7389334
  82.0620012 140.2364997  33.0869988  81.4440012 140.9114997  33.3669988
  82.4060012 140.5574997  32.2539988  82.0239615 140.3722721  33.0126581
  83.8440012 140.5864997  18.9929988  83.6640012 140.4324997  18.0659988
  84.7940012 140.6944997  19.0379988  83.9477776 140.5800175  18.8721843
  87.0820012 142.7084997  36.3639988  88.0350012 142.7914997  36.3369988
  86.9210012 141.9964997  36.9839988  87.1906426 142.6236746  36.4440579
  93.2340012 142.9414997  18.4389988  92.9600012 142.5164997  17.6259988
  93.2730012 143.8724997  18.2219988  93.2017699 143.0092484  18.2983610
  82.4010012 137.5914997  34.1689988  82.5510012 136.8624997  33.5669988
  82.4040012 138.3684997  33.6099988  82.4219302 137.5967851  34.0110692
  82.8140012 135.9614997  31.6619988  83.3500012 136.4124997  31.0099988
  81.9620012 135.8534997  31.2389988  82.7722178 136.0086390  31.5155756
  84.3960012 141.4004997  31.9009988  85.1460012 141.2444997  31.3279988
  84.0570012 142.2524997  31.6259988  84.4528921 141.4942968  31.7853561
  88.8110012 139.2154997  36.9299988  89.0040012 138.2844997  36.8179988
  89.6690012 139.6404997  36.9199988  88.9533020 139.1456389  36.9133361
  90.1280012 142.0044997  35.0069988  89.8470012 142.7134997  34.4299988
  91.0710012 141.9314997  34.8559988  90.2169027 142.0917646  34.9075551
  80.8800012 138.7894997  36.0809988  80.1130012 138.2574997  35.8709988
  81.5590012 138.4794997  35.4809988  80.8667022 138.6747506  35.9711648
  83.6200012 133.4174997  32.0929988  83.5210012 134.3644997  31.9879988
  82.8770012 133.0454997  31.6179988  83.5060564 133.4965902  32.0144560
  84.8840012 137.7394997  35.6569988  84.6480012 137.5194997  36.5589988
  84.1000012 137.5324997  35.1469988  84.7458628 137.6814760  35.7113932
  87.5990012 136.8664997  34.7329988  86.6520012 136.8984997  34.8649988
  87.9120012 136.2414997  35.3859988  87.5115475 136.7863207  34.8394455
  89.2330012 135.5004997  36.7379988  89.1370012 134.5484997  36.7319988
  88.9120012 135.7694997  37.5979988  89.1764070 135.4064035  36.8535441
  79.0600012 136.7104997  35.7849988  79.2720012 136.0034997  35.1749988
  78.9490012 136.2724997  36.6289988  79.0739721 136.5547084  35.8156843
  83.8410012 132.7114997  34.7649988  84.5530012 132.0714997  34.7509988
  83.7400012 132.9784997  33.8509988  83.9247939 132.6599938  34.6395650
  84.1950012 134.3944997  36.8179988  84.0630012 133.9184997  35.9979988
  83.5960012 135.1384997  36.7629988  84.0959071 134.4299618  36.6982886
  93.6920012 143.8104997  22.4139988  94.5420012 144.2314997  22.5409988
  93.6980012 143.0704997  23.0209988  93.8091372 143.7680803  22.5134344
  94.0870012 141.8634997  24.2379988  93.3600012 141.3844997  24.6349988
  94.6680012 142.0694997  24.9699988  94.0659375 141.8257090  24.3914129
  93.8460012 144.6484997  29.1849988  94.6790012 144.2704997  28.9049988
  93.9580012 145.5914997  29.0659988  93.9752647 144.7242218  29.1305487
  94.3550012 141.7644997  20.6289988  93.8330012 142.1214997  19.9099988
  94.3220012 142.4394997  21.3069988  94.2791634 141.9045413  20.6223145
  92.7040012 139.0044997  19.1799988  92.8000012 139.6714997  18.4989988
  92.5640012 138.1884997  18.6979988  92.6982135 138.9854500  19.0218491
  91.8730012 140.3844997  24.8009988  91.7230012 139.4394997  24.7799988
  91.5200012 140.6654997  25.6439988  91.8046625 140.2930441  24.9122346
  76.9090012 142.4624997  28.8109988  77.0930012 142.3804997  27.8749988
  77.7580012 142.3384997  29.2349988  77.0490139 142.4345003  28.7401455
  92.7300012 142.3544997  34.4389988  93.3130012 141.6204997  34.6309988
  93.2940012 143.1264997  34.4859988  92.8859769 142.3584227  34.4716159
  94.2260012 140.2574997  35.1239988  93.3630012 139.8784997  34.9579988
  94.8310012 139.5184997  35.0499988  94.1895979 140.1058023  35.0912817
  91.9510012 136.4124997  18.2969988  92.5620012 136.0414997  18.9339988
  91.1150012 135.9914997  18.4929988  91.9215032 136.3047554  18.4107035
  91.5840012 137.9674997  23.2629988  91.8640012 137.0604997  23.3869988
  92.3430012 138.4014997  22.8739988  91.7249277 137.9020942  23.2273682
  92.1960012 138.5484997  28.6989988  93.1290012 138.7604997  28.6649988
  91.9610012 138.6504997  29.6209988  92.2918036 138.5912769  28.8189976
  92.2250012 139.2854997  31.4749988  91.3820012 139.5534997  31.8409988
  92.6670012 140.1074997  31.2639988  92.1694158 139.4333291  31.4965491
  76.5060012 137.7334997  34.9519988  77.4260012 137.6114997  35.1879988
  76.0570012 136.9834997  35.3409988  76.5711580 137.6153727  35.0369006
  94.5080012 133.2654997  36.8279988  94.8580012 132.6114997  36.2229988
  94.6550012 134.1024997  36.3889988  94.5758419 133.2891591  36.6857118
  92.1970012 135.2304997  23.3109988  92.3800012 134.7814997  24.1369988
  91.5980012 134.6454997  22.8479988  92.1410202 135.0899975  23.3613275
  77.7270012 136.0454997  27.8429988  78.1730012 135.2534997  28.1449988
  78.1940012 136.7614997  28.2739988  77.8510172 136.0340624  27.9424820
  76.0310012 139.0444997  28.9119988  76.5230012 138.8234997  28.1209988
  76.3940012 139.8854997  29.1929988  76.1473126 139.1278357  28.8417531
  94.0280012 135.3744997  35.1779988  93.1100012 135.6454997  35.1419988
  94.1510012 134.8394997  34.3929988  93.9191066 135.3392892  35.0670487
  94.0640012 135.2974997  19.8389988  94.4760012 134.5764997  19.3639988
  94.7460012 135.9674997  19.8979988  94.2125885 135.2892368  19.7818915
  76.3450012 135.3024997  22.9659988  75.4200012 135.5114997  22.8369988
  76.7990012 135.7864997  22.2769988  76.2797368 135.3965993  22.8551226
  76.3090012 134.0404997  31.3109988  75.6440012 133.7944997  31.9539988
  75.8660012 134.6624997  30.7329988  76.1580956 134.0908632  31.3209352
  93.0280012 133.4644997  32.9969988  92.2160012 133.7894997  32.6089988
  93.2610012 132.7044997  32.4639988  92.9483423 133.4062436  32.8718253
  86.4580012 134.9134997  27.3189988  85.7840012 134.2844997  27.5749988
  87.0220012 134.4294997  26.7159988  86.4419230 134.7618744  27.2725340
  91.6010012 133.0214997  27.4319988  92.2050012 133.5684997  26.9299988
  90.7310012 133.3404997  27.1919988  91.5661241 133.1395806  27.3307654
  93.3280012 134.1594997  25.7649988  93.9400012 133.6454997  25.2389988
  93.7100012 135.0374997  25.7889988  93.4634540 134.2077140  25.6961830
  78.7850012 133.5474997  25.1409988  78.0080012 133.3134997  24.6339988
  79.3150012 132.7504997  25.1499988  78.7502330 133.4076988  25.0727742
  77.6210012 133.3454997  20.9449988  78.0600012 133.9564997  20.3529988
  76.9880012 133.8834997  21.4189988  77.5954514 133.5019257  20.9280930
  83.3640012 133.4744997  24.9549988  84.2390012 133.8624997  24.9249988
  83.2280012 133.2594997  25.8769988  83.4653695 133.4985184  25.0756440
  88.9210012 133.5044997  26.6039988  88.9970012 133.5994997  25.6539988
  88.6460012 132.5964997  26.7329988  88.8942321 133.3947867  26.4915079
  90.2740012 133.5304997  22.2959988  89.5720012 134.1454997  22.0869988
  89.8300012 132.6924997  22.4269988  90.1176330 133.5015783  22.2850328
  79.4820012 135.2614997  19.3869988  79.9740012 134.6314997  18.8599988
  80.1060012 135.5574997  20.0509988  79.6335446 135.2153199  19.4045980
  84.5080012 135.5544997  21.8439988  84.6860012 134.9084997  22.5269988
  84.4550012 136.3884997  22.3119988  84.5251829 135.5787985  22.0005940
  78.7430012 134.0614997  34.6589988  78.3770012 133.2964997  35.1019988
  79.6560012 134.0904997  34.9459988  78.8162790 133.9607224  34.7584070
  80.7160012 133.4124997  36.1949988  81.6140012 133.1384997  36.0099988
  80.3290012 132.6694997  36.6589988  80.7866612 133.2745914  36.2323643
  89.1370012 132.7444997  36.3769988  89.2140012 132.3184997  37.2309988
  90.0310012 132.7584997  36.0339988  89.2683428 132.6880879  36.4475310
 106.7190012 142.7034997  25.0999988 106.8080012 143.6474997  24.9679988
 106.0810012 142.4284997  24.4419988 106.6449081 142.7954830  24.9929614
 105.6520012 141.9584997  28.5189988 105.6140012 141.3124997  29.2239988
 105.3300012 141.4924997  27.7479988 105.6032333 141.8069408  28.5112978
  98.0210012 141.5734997  30.1119988  98.0620012 140.9474997  30.8349988
  98.7240012 142.1974997  30.2939988  98.1216363 141.5721196  30.2356044
 109.3580012 144.8974997  26.8199988 108.9180012 144.1774997  27.2709988
 109.3450012 145.6184997  27.4499988 109.2960226 144.8963731  26.9668494
  95.5540012 139.6834997  24.0399988  95.1070012 140.5294997  24.0209988
  94.9930012 139.1034997  23.5239988  95.4169900 139.7209916  23.9676801
  96.2650012 141.8454997  26.1659988  96.4780012 141.0754997  26.6929988
  97.0030012 141.9344997  25.5619988  96.3938496 141.7521394  26.1565300
 104.0420012 144.3914997  28.9249988 104.3460012 143.7054997  28.3299988
 104.7630012 144.5094997  29.5429988 104.1810671 144.3136305  28.9271816
 112.7050012 135.9924997  29.7859988 112.7540012 136.6024997  30.5219988
 113.1300012 136.4534997  29.0629988 112.7691824 136.1383741  29.7890205
 107.1830012 138.7854997  29.2529988 107.3250012 137.8394997  29.2729988
 107.0760012 138.9924997  28.3239988 107.1879864 138.6839534  29.1302339
 100.3370012 136.8864997  26.5249988 100.3810012 137.7464997  26.1069988
  99.8800012 136.3344997  25.8909988 100.2812185 136.9295799  26.3820299
 108.0600012 137.0174997  24.9259988 108.7060012 136.6884997  25.5509988
 108.5700012 137.5354997  24.3029988 108.2174264 137.0424611  24.9273862
  96.9580012 139.2834997  27.2869988  97.6110012 138.7334997  27.7189988
  96.9820012 139.0094997  26.3699988  97.0506683 139.1711466  27.2222123
 102.1140012 140.8334997  26.5019988 102.7300012 140.3074997  27.0119988
 101.5280012 140.1934997  26.0989988 102.1190810 140.6749208  26.5173173
 113.0960012 137.4704997  32.0219988 112.4080012 138.1284997  31.9259988
 113.1120012 137.2734997  32.9579988 113.0038525 137.5340462  32.1354808
  99.1480012 135.8044997  30.5989988  98.9290012 136.3344997  29.8329988
  98.4800012 136.0314997  31.2459988  99.0277600 135.9076906  30.5816379
 101.7170012 143.4804997  30.8859988 100.9770012 144.0784997  30.9899988
 102.4310012 144.0344997  30.5709988 101.7122237 143.6372831  30.8576465
 109.8240012 136.3084997  26.9059988 109.6080012 135.5424997  27.4389988
 110.4790012 136.7804997  27.4189988 109.8830632 136.2675889  27.0482861
  98.7410012 137.6964997  28.5509988  99.3550012 138.3294997  28.9249988
  99.2530012 137.2244997  27.8949988  98.8942296 137.7192370  28.5134252
 110.1710012 135.0234997  30.5859988 109.4350012 135.6344997  30.5479988
 110.8540012 135.4384997  30.0589988 110.1626541 135.1631374  30.5095832
 103.1740012 133.1104997  28.0519988 103.0570012 132.1614997  27.9969988
 102.3190012 133.4424997  28.3249988 103.0423733 133.0255409  28.0813897
 110.9680012 144.9854997  32.7799988 111.1080012 144.3944997  32.0399988
 111.1350012 145.8584997  32.4229988 111.0096778 145.0226426  32.6306965
 105.4410012 141.9474997  22.5519988 104.7290012 142.4824997  22.1999988
 106.1320012 142.0034997  21.8919988 105.4370132 142.0282543  22.4146289
 105.4940012 140.4054997  19.5909988 106.1950012 140.4274997  20.2419988
 105.7970012 139.7774997  18.9349988 105.6307830 140.3236566  19.5913711
 112.8100012 141.3254997  30.8459988 112.1570012 142.0204997  30.9349988
 113.2750012 141.5354997  30.0359988 112.7835390 141.4489425  30.7486883
 108.8460012 142.1574997  23.5039988 108.1140012 142.3854997  24.0769988
 109.2940012 141.4434997  23.9589988 108.8063095 142.0922571  23.6439119
 108.7440012 140.3314997  32.5709988 108.8240012 141.0944997  33.1429988
 108.1420012 140.6104997  31.8809988 108.6735756 140.4737134  32.5560589
 100.4920012 142.7874997  25.3859988 100.1610012 142.4174997  24.5679988
 101.0800012 142.1174997  25.7329988 100.5261873 142.6461156  25.3208102
 100.8580012 141.5564997  29.0199988 101.4240012 141.6774997  28.2569988
 101.1770012 142.1934997  29.6589988 100.9785786 141.6591884  29.0020040
 107.7170012 141.3194997  21.1889988 108.2970012 141.4694997  21.9359988
 108.1310012 141.7904997  20.4659988 107.8522830 141.4036841  21.1934134
  98.6580012 142.1534997  32.9659988  98.7290012 142.8044997  33.6639988
  97.7680012 142.2564997  32.6309988  98.5473117 142.2565936  33.0162700
 111.4160012 133.0694997  21.0019988 110.5160012 133.2084997  21.2969988
 111.6680012 133.9004997  20.5999988 111.3268702 133.2009074  20.9880205
  99.4820012 141.8574997  22.9759988  99.1900012 142.6254997  22.4849988
  98.8080012 141.1974997  22.8129988  99.3509081 141.8734406  22.8867340
  95.5750012 144.2204997  31.7909988  95.0740012 144.1924997  30.9759988
  95.5800012 143.3144997  32.0999988  95.5071526 144.0942278  31.7212872
 110.6750012 139.1594997  34.8369988 110.2680012 139.6404997  34.1159988
 110.7160012 138.2544997  34.5289988 110.6248437 139.1029374  34.6966683
 100.4430012 134.0134997  28.8289988  99.5810012 133.9264997  28.4219988
 100.4200012 134.8694997  29.2569988 100.3220330 134.1172765  28.8311863
 105.1060012 133.7354997  32.2039988 105.5260012 133.3204997  32.9569988
 104.1730012 133.5574997  32.3209988 105.0373644 133.6545900  32.3229539
 108.4320012 137.4914997  33.0569988 107.9180012 137.3654997  33.8549988
 108.2770012 138.4034997  32.8129988 108.3406852 137.5976132  33.1332158
 109.1950012 142.3524997  18.8189988 109.2370012 142.1294997  17.8889988
 110.0440012 142.7514997  19.0089988 109.3155396 142.3759155  18.7173627
 104.7670012 136.2284997  19.4889988 104.5140012 136.2474997  20.4119988
 104.5110012 135.3564997  19.1879988 104.6977790 136.1132437  19.5746263
 100.5340012 138.9794997  29.9239988  99.8920012 138.9384997  30.6329988
 100.5710012 139.9054997  29.6869988 100.4511324 139.0991559  29.9889824
 100.5310012 139.2004997  24.8359988  99.6380012 138.8594997  24.7779988
 100.9810012 138.8234997  24.0809988 100.4697305 139.1028484  24.7259177
 106.0660012 139.6164997  23.6529988 105.6570012 140.4314997  23.3619988
 106.7870012 139.4764997  23.0389988 106.1074537 139.7092018  23.5301342
 105.1680012 139.7914997  35.1409988 104.6060012 139.0874997  35.4619988
 105.9950012 139.6714997  35.6089988 105.2027095 139.6787883  35.2482330
 107.0710012 139.0624997  26.4669988 106.8760012 139.6674997  25.7519988
 107.2520012 138.2284997  26.0329988 107.0687614 139.0326300  26.3104405
  98.2840012 139.2994997  31.7909988  98.2460012 139.6994997  32.6599988
  97.7930012 138.4824997  31.8819988  98.2124684 139.2438069  31.9221059
 101.6500012 136.6734997  18.5899988 101.2190012 136.2284997  19.3199988
 100.9320012 137.0454997  18.0779988 101.4939438 136.6628940  18.6206799
  94.8920012 136.4154997  25.6419988  95.5230012 136.3864997  26.3609988
  95.3410012 135.9904997  24.9119988  95.0390774 136.3540492  25.6416553
  96.1660012 137.1614997  21.0659988  96.6400012 137.7524997  20.4809988
  95.4490012 137.6924997  21.4129988  96.1339341 137.3140867  21.0328836
 106.3350012 140.7004997  31.1389988 106.6580012 140.0694997  30.4959988
 105.8950012 140.1654997  31.7989988 106.3196895 140.5418441  31.1402850
 103.1120012 136.6274997  25.9229988 102.2010012 136.6844997  26.2109988
 103.6180012 136.5674997  26.7329988 103.0555413 136.6271985  26.0720622
  97.9410012 138.2564997  24.7489988  97.0510012 138.3564997  24.4089988
  98.2370012 137.4144997  24.4029988  97.8592823 138.1563545  24.6557213
 101.5940012 138.2564997  22.4059988 102.5250012 138.3854997  22.5839988
 101.3790012 138.9264997  21.7559988 101.6924247 138.3646565  22.3425747
 107.5170012 135.8624997  29.1869988 106.8410012 135.9934997  29.8509988
 107.0320012 135.7074997  28.3769988 107.3587145 135.8594905  29.1684517
 100.2680012 139.4514997  19.9729988  99.7250012 139.0714997  19.2809988
 101.1010012 139.6454997  19.5439988 100.3064399 139.4258124  19.8204526
  98.4030012 144.0084997  35.0719988  99.1350012 144.2624997  35.6329988
  97.6230012 144.2124997  35.5869988  98.3978232 144.0709177  35.2185760
 104.4320012 139.4154997  27.8099988 104.9970012 138.8684997  27.2629988
 104.2850012 138.8934997  28.5979988 104.4892918 139.2702024  27.8418454
  99.4340012 135.5514997  24.2279988  99.1170012 134.6494997  24.1929988
 100.2160012 135.5534997  23.6749988  99.4962284 135.4281628  24.1484783
 103.0590012 137.8034997  30.2239988 102.2230012 138.2574997  30.3339988
 103.5830012 138.0794997  30.9759988 103.0154414 137.9029376  30.3407136
 103.6030012 144.0164997  21.9079988 102.8580012 143.5094997  21.5859988
 103.4690012 144.0654997  22.8549988 103.4828776 143.9536940  21.9918647
 110.7530012 143.1494997  30.6949988 111.3950012 143.6064997  30.1509988
 109.9230012 143.2624997  30.2319988 110.7285963 143.2272704  30.5580177
 107.5010012 136.8304997  20.1079988 106.5620012 136.9424997  19.9559988
 107.7980012 137.6874997  20.4139988 107.4127666 136.9616443  20.1285768
 105.1220012 144.2004997  33.1449988 104.7770012 143.8194997  33.9519988
 104.9220012 145.1344997  33.2169988 105.0478061 144.2745228  33.2650961
 108.2190012 138.6974997  21.7679988 109.1110012 138.5604997  22.0869988
 108.2760012 139.4884997  21.2319988 108.3486285 138.7856660  21.7391691
  98.7280012 143.3114997  27.6779988  99.4730012 143.3094997  27.0769988
  98.8060012 142.4884997  28.1599988  98.8405518 143.1999315  27.6608929
  95.7360012 141.7724997  32.9929988  95.9590012 141.3544997  33.8249988
  95.1340012 141.1594997  32.5699988  95.6851759 141.6324668  33.0497022
 102.7520012 141.2894997  35.2059988 102.4560012 141.1234997  34.3109988
 103.6840012 141.0694997  35.1949988 102.8374166 141.2370640  35.0820536
 113.1040012 138.9074997  21.4629988 112.5500012 138.5114997  20.7909988
 113.2040012 139.8174997  21.1849988 113.0417059 138.9763586  21.3334401
 113.0670012 144.7074997  34.2999988 112.2160012 144.9454997  33.9329988
 113.6580012 144.6904997  33.5469988 113.0302487 144.7378258  34.1478893
 108.5600012 142.5014997  28.9489988 107.6310012 142.2694997  28.9219988
 109.0110012 141.7244997  28.6189988 108.4939216 142.3647238  28.9006917
  96.8580012 141.6914997  19.6689988  97.4740012 142.3184997  20.0489988
  95.9960012 142.0074997  19.9409988  96.8257698 141.8199430  19.7577183
 102.5300012 144.4924997  24.6589988 102.2890012 145.4174997  24.6999988
 101.7890012 144.0334997  25.0549988 102.3968409 144.5571421  24.7181377
 106.5890012 144.7404997  30.6739988 106.1630012 144.5134997  31.5009988
 107.1690012 144.0024997  30.4919988 106.6091868 144.6095299  30.7625830
  97.3700012 136.5254997  32.5509988  96.4770012 136.8644997  32.4829988
  97.2710012 135.6704997  32.9689988  97.2344164 136.4562588  32.5982235
 109.6580012 144.3424997  21.9749988 109.3800012 143.6144997  22.5309988
 110.5850012 144.4614997  22.1799988 109.7453124 144.2588802  22.0788845
  98.2730012 143.6044997  21.1619988  97.5870012 143.9564997  21.7289988
  98.7950012 144.3674997  20.9149988  98.2496852 143.7558578  21.2062118
 106.1040012 136.2664997  31.4409988 106.8030012 136.3404997  32.0909988
 105.7230012 135.4024997  31.5949988 106.1481767 136.1597624  31.5508322
 106.8890012 135.9184997  22.5379988 107.1090012 136.3904997  21.7349988
 107.4470012 136.3134997  23.2079988 106.9944968 136.0364285  22.5187331
 104.0890012 137.6464997  23.3729988 104.9010012 138.1514997  23.4189988
 103.8440012 137.5014997  24.2869988 104.1670520 137.6960375  23.5028517
 104.6240012 138.6324997  32.5579988 104.7430012 139.2064997  33.3149988
 105.2800012 137.9444997  32.6719988 104.7289757 138.6181079  32.6770825
 104.9720012 134.7274997  24.3109988 104.6260012 135.3454997  24.9559988
 105.6310012 135.2284997  23.8299988 105.0137826 134.8795802  24.3340971
 100.6300012 135.7904997  20.9979988 100.5470012 136.6794997  21.3449988
 101.5200012 135.5254997  21.2299988 100.7389469 135.8761430  21.0767626
 110.8290012 136.5394997  33.3929988 109.9120012 136.8024997  33.3049988
 111.1640012 136.5364997  32.4959988 110.7489900 136.5750224  33.2597919
 109.4310012 140.2904997  27.4879988 108.6330012 139.8754997  27.1599988
 109.8760012 139.5994997  27.9789988 109.3819885 140.1403543  27.5094889
  97.2050012 138.8824997  19.1749988  97.1600012 139.8214997  19.3529988
  96.3170012 138.6464997  18.9049988  97.0788574 138.9791892  19.1628912
  98.0130012 133.6644997  27.8479988  97.7840012 133.7234997  26.9199988
  97.5700012 132.8724997  28.1539988  97.9218530 133.5655753  27.7624786
  96.1380012 144.0274997  36.2929988  96.2820012 143.1254997  36.0059988
  95.3660012 144.3134997  35.8049988  96.0533322 143.9428261  36.1877881
 100.4800012 144.3714997  18.4249988 100.5440012 143.5774997  18.9559988
 101.1330012 144.2524997  17.7349988 100.5770241 144.2467148  18.4044317
 102.7940012 143.9974997  35.7249988 102.4650012 144.2684997  34.8679988
 102.9460012 143.0564997  35.6379988 102.7694809 143.9073862  35.5958244
 108.5280012 143.9134997  33.1089988 109.2740012 144.5014997  32.9889988
 107.7710012 144.4954997  33.1719988 108.5277554 144.0727011  33.1010907
  96.9710012 141.2274997  35.7129988  97.3790012 140.3704997  35.5919988
  96.7110012 141.2424997  36.6339988  96.9917568 141.1120807  35.8209588
 101.6290012 142.3434997  20.7309988 101.1690012 141.8594997  21.4169988
 101.8840012 141.6754997  20.0949988 101.6004902 142.1868731  20.7389334
 100.9180012 140.2364997  33.0869988 100.3000012 140.9114997  33.3669988
 101.2620012 140.5574997  32.2539988 100.8799615 140.3722721  33.0126581
 102.7000012 140.5864997  18.9929988 102.5200012 140.4324997  18.0659988
 103.6500012 140.6944997  19.0379988 102.8037776 140.5800175  18.8721843
 105.9380012 142.7084997  36.3639988 106.8910012 142.7914997  36.3369988
 105.7770012 141.9964997  36.9839988 106.0466426 142.6236746  36.4440579
 112.0900012 142.9414997  18.4389988 111.8160012 142.5164997  17.6259988
 112.1290012 143.8724997  18.2219988 112.0577699 143.0092484  18.2983610
 101.2570012 137.5914997  34.1689988 101.4070012 136.8624997  33.5669988
 101.2600012 138.3684997  33.6099988 101.2779302 137.5967851  34.0110692
 101.6700012 135.9614997  31.6619988 102.2060012 136.4124997  31.0099988
 100.8180012 135.8534997  31.2389988 101.6282178 136.0086390  31.5155756
 103.2520012 141.4004997  31.9009988 104.0020012 141.2444997  31.3279988
 102.9130012 142.2524997  31.6259988 103.3088921 141.4942968  31.7853561
 107.6670012 139.2154997  36.9299988 107.8600012 138.2844997  36.8179988
 108.5250012 139.6404997  36.9199988 107.8093020 139.1456389  36.9133361
 108.9840012 142.0044997  35.0069988 108.7030012 142.7134997  34.4299988
 109.9270012 141.9314997  34.8559988 109.0729027 142.0917646  34.9075551
  99.7360012 138.7894997  36.0809988  98.9690012 138.2574997  35.8709988
 100.4150012 138.4794997  35.4809988  99.7227022 138.6747506  35.9711648
 102.4760012 133.4174997  32.0929988 102.3770012 134.3644997  31.9879988
 101.7330012 133.0454997  31.6179988 102.3620564 133.4965902  32.0144560
 103.7400012 137.7394997  35.6569988 103.5040012 137.5194997  36.5589988
 102.9560012 137.5324997  35.1469988 103.6018628 137.6814760  35.7113932
 106.4550012 136.8664997  34.7329988 105.5080012 136.8984997  34.8649988
 106.7680012 136.2414997  35.3859988 106.3675475 136.7863207  34.8394455
 108.0890012 135.5004997  36.7379988 107.9930012 134.5484997  36.7319988
 107.7680012 135.7694997  37.5979988 108.0324070 135.4064035  36.8535441
  97.9160012 136.7104997  35.7849988  98.1280012 136.0034997  35.1749988
  97.8050012 136.2724997  36.6289988  97.9299721 136.5547084  35.8156843
 102.6970012 132.7114997  34.7649988 103.4090012 132.0714997  34.7509988
 102.5960012 132.9784997  33.8509988 102.7807939 132.6599938  34.6395650
 103.0510012 134.3944997  36.8179988 102.9190012 133.9184997  35.9979988
 102.4520012 135.1384997  36.7629988 102.9519071 134.4299618  36.6982886
 112.5480012 143.8104997  22.4139988 113.3980012 144.2314997  22.5409988
 112.5540012 143.0704997  23.0209988 112.6651372 143.7680803  22.5134344
 112.9430012 141.8634997  24.2379988 112.2160012 141.3844997  24.6349988
 113.5240012 142.0694997  24.9699988 112.9219375 141.8257090  24.3914129
 112.7020012 144.6484997  29.1849988 113.5350012 144.2704997  28.9049988
 112.8140012 145.5914997  29.0659988 112.8312647 144.7242218  29.1305487
 113.2110012 141.7644997  20.6289988 112.6890012 142.1214997  19.9099988
 113.1780012 142.4394997  21.3069988 113.1351634 141.9045413  20.6223145
 111.5600012 139.0044997  19.1799988 111.6560012 139.6714997  18.4989988
 111.4200012 138.1884997  18.6979988 111.5542135 138.9854500  19.0218491
 110.7290012 140.3844997  24.8009988 110.5790012 139.4394997  24.7799988
 110.3760012 140.6654997  25.6439988 110.6606625 140.2930441  24.9122346
  95.7650012 142.4624997  28.8109988  95.9490012 142.3804997  27.8749988
  96.6140012 142.3384997  29.2349988  95.9050139 142.4345003  28.7401455
 111.5860012 142.3544997  34.4389988 112.1690012 141.6204997  34.6309988
 112.1500012 143.1264997  34.4859988 111.7419769 142.3584227  34.4716159
 113.0820012 140.2574997  35.1239988 112.2190012 139.8784997  34.9579988
 113.6870012 139.5184997  35.0499988 113.0455979 140.1058023  35.0912817
 110.8070012 136.4124997  18.2969988 111.4180012 136.0414997  18.9339988
 109.9710012 135.9914997  18.4929988 110.7775032 136.3047554  18.4107035
 110.4400012 137.9674997  23.2629988 110.7200012 137.0604997  23.3869988
 111.1990012 138.4014997  22.8739988 110.5809277 137.9020942  23.2273682
 111.0520012 138.5484997  28.6989988 111.9850012 138.7604997  28.6649988
 110.8170012 138.6504997  29.6209988 111.1478036 138.5912769  28.8189976
 111.0810012 139.2854997  31.4749988 110.2380012 139.5534997  31.8409988
 111.5230012 140.1074997  31.2639988 111.0254158 139.4333291  31.4965491
  95.3620012 137.7334997  34.9519988  96.2820012 137.6114997  35.1879988
  94.9130012 136.9834997  35.3409988  95.4271580 137.6153727  35.0369006
 113.3640012 133.2654997  36.8279988 113.7140012 132.6114997  36.2229988
 113.5110012 134.1024997  36.3889988 113.4318419 133.2891591  36.6857118
 111.0530012 135.2304997  23.3109988 111.2360012 134.7814997  24.1369988
 110.4540012 134.6454997  22.8479988 110.9970202 135.0899975  23.3613275
  96.5830012 136.0454997  27.8429988  97.0290012 135.2534997  28.1449988
  97.0500012 136.7614997  28.2739988  96.7070172 136.0340624  27.9424820
  94.8870012 139.0444997  28.9119988  95.3790012 138.8234997  28.1209988
  95.2500012 139.8854997  29.1929988  95.0033126 139.1278357  28.8417531
 112.8840012 135.3744997  35.1779988 111.9660012 135.6454997  35.1419988
 113.0070012 134.8394997  34.3929988 112.7751066 135.3392892  35.0670487
 112.9200012 135.2974997  19.8389988 113.3320012 134.5764997  19.3639988
 113.6020012 135.9674997  19.8979988 113.0685885 135.2892368  19.7818915
  95.2010012 135.3024997  22.9659988  94.2760012 135.5114997  22.8369988
  95.6550012 135.7864997  22.2769988  95.1357368 135.3965993  22.8551226
  95.1650012 134.0404997  31.3109988  94.5000012 133.7944997  31.9539988
  94.7220012 134.6624997  30.7329988  95.0140956 134.0908632  31.3209352
 111.8840012 133.4644997  32.9969988 111.0720012 133.7894997  32.6089988
 112.1170012 132.7044997  32.4639988 111.8043423 133.4062436  32.8718253
 105.3140012 134.9134997  27.3189988 104.6400012 134.2844997  27.5749988
 105.8780012 134.4294997  26.7159988 105.2979230 134.7618744  27.2725340
 110.4570012 133.0214997  27.4319988 111.0610012 133.5684997  26.9299988
 109.5870012 133.3404997  27.1919988 110.4221241 133.1395806  27.3307654
 112.1840012 134.1594997  25.7649988 112.7960012 133.6454997  25.2389988
 112.5660012 135.0374997  25.7889988 112.3194540 134.2077140  25.6961830
  97.6410012 133.5474997  25.1409988  96.8640012 133.3134997  24.6339988
  98.1710012 132.7504997  25.1499988  97.6062330 133.4076988  25.0727742
  96.4770012 133.3454997  20.9449988  96.9160012 133.9564997  20.3529988
  95.8440012 133.8834997  21.4189988  96.4514514 133.5019257  20.9280930
 102.2200012 133.4744997  24.9549988 103.0950012 133.8624997  24.9249988
 102.0840012 133.2594997  25.8769988 102.3213695 133.4985184  25.0756440
 107.7770012 133.5044997  26.6039988 107.8530012 133.5994997  25.6539988
 107.5020012 132.5964997  26.7329988 107.7502321 133.3947867  26.4915079
 109.1300012 133.5304997  22.2959988 108.4280012 134.1454997  22.0869988
 108.6860012 132.6924997  22.4269988 108.9736330 133.5015783  22.2850328
  98.3380012 135.2614997  19.3869988  98.8300012 134.6314997  18.8599988
  98.9620012 135.5574997  20.0509988  98.4895446 135.2153199  19.4045980
 103.3640012 135.5544997  21.8439988 103.5420012 134.9084997  22.5269988
 103.3110012 136.3884997  22.3119988 103.3811829 135.5787985  22.0005940
  97.5990012 134.0614997  34.6589988  97.2330012 133.2964997  35.1019988
  98.5120012 134.0904997  34.9459988  97.6722790 133.9607224  34.7584070
  99.5720012 133.4124997  36.1949988 100.4700012 133.1384997  36.0099988
  99.1850012 132.6694997  36.6589988  99.6426612 133.2745914  36.2323643
 107.9930012 132.7444997  36.3769988 108.0700012 132.3184997  37.2309988
 108.8870012 132.7584997  36.0339988 108.1243428 132.6880879  36.4475310
 125.5750012 142.7034997  25.0999988 125.6640012 143.6474997  24.9679988
 124.9370012 142.4284997  24.4419988 125.5009081 142.7954830  24.9929614
 124.5080012 141.9584997  28.5189988 124.4700012 141.3124997  29.2239988
 124.1860012 141.4924997  27.7479988 124.4592333 141.8069408  28.5112978
 116.8770012 141.5734997  30.1119988 116.9180012 140.9474997  30.8349988
 117.5800012 142.1974997  30.2939988 116.9776363 141.5721196  30.2356044
 128.2140012 144.8974997  26.8199988 127.7740012 144.1774997  27.2709988
 128.2010012 145.6184997  27.4499988 128.1520226 144.8963731  26.9668494
 114.4100012 139.6834997  24.0399988 113.9630012 140.5294997  24.0209988
 113.8490012 139.1034997  23.5239988 114.2729900 139.7209916  23.9676801
 115.1210012 141.8454997  26.1659988 115.3340012 141.0754997  26.6929988
 115.8590012 141.9344997  25.5619988 115.2498496 141.7521394  26.1565300
 122.8980012 144.3914997  28.9249988 123.2020012 143.7054997  28.3299988
 123.6190012 144.5094997  29.5429988 123.0370671 144.3136305  28.9271816
 131.5610012 135.9924997  29.7859988 131.6100012 136.6024997  30.5219988
 131.9860012 136.4534997  29.0629988 131.6251824 136.1383741  29.7890205
 126.0390012 138.7854997  29.2529988 126.1810012 137.8394997  29.2729988
 125.9320012 138.9924997  28.3239988 126.0439864 138.6839534  29.1302339
 119.1930012 136.8864997  26.5249988 119.2370012 137.7464997  26.1069988
 118.7360012 136.3344997  25.8909988 119.1372185 136.9295799  26.3820299
 126.9160012 137.0174997  24.9259988 127.5620012 136.6884997  25.5509988
 127.4260012 137.5354997  24.3029988 127.0734264 137.0424611  24.9273862
 115.8140012 139.2834997  27.2869988 116.4670012 138.7334997  27.7189988
 115.8380012 139.0094997  26.3699988 115.9066683 139.1711466  27.2222123
 120.9700012 140.8334997  26.5019988 121.5860012 140.3074997  27.0119988
 120.3840012 140.1934997  26.0989988 120.9750810 140.6749208  26.5173173
 131.9520012 137.4704997  32.0219988 131.2640012 138.1284997  31.9259988
 131.9680012 137.2734997  32.9579988 131.8598525 137.5340462  32.1354808
 118.0040012 135.8044997  30.5989988 117.7850012 136.3344997  29.8329988
 117.3360012 136.0314997  31.2459988 117.8837600 135.9076906  30.5816379
 120.5730012 143.4804997  30.8859988 119.8330012 144.0784997  30.9899988
 121.2870012 144.0344997  30.5709988 120.5682237 143.6372831  30.8576465
 128.6800012 136.3084997  26.9059988 128.4640012 135.5424997  27.4389988
 129.3350012 136.7804997  27.4189988 128.7390632 136.2675889  27.0482861
 117.5970012 137.6964997  28.5509988 118.2110012 138.3294997  28.9249988
 118.1090012 137.2244997  27.8949988 117.7502296 137.7192370  28.5134252
 129.0270012 135.0234997  30.5859988 128.2910012 135.6344997  30.5479988
 129.7100012 135.4384997  30.0589988 129.0186541 135.1631374  30.5095832
 122.0300012 133.1104997  28.0519988 121.9130012 132.1614997  27.9969988
 121.1750012 133.4424997  28.3249988 121.8983733 133.0255409  28.0813897
 129.8240012 144.9854997  32.7799988 129.9640012 144.3944997  32.0399988
 129.9910012 145.8584997  32.4229988 129.8656778 145.0226426  32.6306965
 124.2970012 141.9474997  22.5519988 123.5850012 142.4824997  22.1999988
 124.9880012 142.0034997  21.8919988 124.2930132 142.0282543  22.4146289
 124.3500012 140.4054997  19.5909988 125.0510012 140.4274997  20.2419988
 124.6530012 139.7774997  18.9349988 124.4867830 140.3236566  19.5913711
 131.6660012 141.3254997  30.8459988 131.0130012 142.0204997  30.9349988
 132.1310012 141.5354997  30.0359988 131.6395390 141.4489425  30.7486883
 127.7020012 142.1574997  23.5039988 126.9700012 142.3854997  24.0769988
 128.1500012 141.4434997  23.9589988 127.6623095 142.0922571  23.6439119
 127.6000012 140.3314997  32.5709988 127.6800012 141.0944997  33.1429988
 126.9980012 140.6104997  31.8809988 127.5295756 140.4737134  32.5560589
 119.3480012 142.7874997  25.3859988 119.0170012 142.4174997  24.5679988
 119.9360012 142.1174997  25.7329988 119.3821873 142.6461156  25.3208102
 119.7140012 141.5564997  29.0199988 120.2800012 141.6774997  28.2569988
 120.0330012 142.1934997  29.6589988 119.8345786 141.6591884  29.0020040
 126.5730012 141.3194997  21.1889988 127.1530012 141.4694997  21.9359988
 126.9870012 141.7904997  20.4659988 126.7082830 141.4036841  21.1934134
 117.5140012 142.1534997  32.9659988 117.5850012 142.8044997  33.6639988
 116.6240012 142.2564997  32.6309988 117.4033117 142.2565936  33.0162700
 130.2720012 133.0694997  21.0019988 129.3720012 133.2084997  21.2969988
 130.5240012 133.9004997  20.5999988 130.1828702 133.2009074  20.9880205
 118.3380012 141.8574997  22.9759988 118.0460012 142.6254997  22.4849988
 117.6640012 141.1974997  22.8129988 118.2069081 141.8734406  22.8867340
 114.4310012 144.2204997  31.7909988 113.9300012 144.1924997  30.9759988
 114.4360012 143.3144997  32.0999988 114.3631526 144.0942278  31.7212872
 129.5310012 139.1594997  34.8369988 129.1240012 139.6404997  34.1159988
 129.5720012 138.2544997  34.5289988 129.4808437 139.1029374  34.6966683
 119.2990012 134.0134997  28.8289988 118.4370012 133.9264997  28.4219988
 119.2760012 134.8694997  29.2569988 119.1780330 134.1172765  28.8311863
 123.9620012 133.7354997  32.2039988 124.3820012 133.3204997  32.9569988
 123.0290012 133.5574997  32.3209988 123.8933644 133.6545900  32.3229539
 127.2880012 137.4914997  33.0569988 126.7740012 137.3654997  33.8549988
 127.1330012 138.4034997  32.8129988 127.1966852 137.5976132  33.1332158
 128.0510012 142.3524997  18.8189988 128.0930012 142.1294997  17.8889988
 128.9000012 142.7514997  19.0089988 128.1715396 142.3759155  18.7173627
 123.6230012 136.2284997  19.4889988 123.3700012 136.2474997  20.4119988
 123.3670012 135.3564997  19.1879988 123.5537790 136.1132437  19.5746263
 119.3900012 138.9794997  29.9239988 118.7480012 138.9384997  30.6329988
 119.4270012 139.9054997  29.6869988 119.3071324 139.0991559  29.9889824
 119.3870012 139.2004997  24.8359988 118.4940012 138.8594997  24.7779988
 119.8370012 138.8234997  24.0809988 119.3257305 139.1028484  24.7259177
 124.9220012 139.6164997  23.6529988 124.5130012 140.4314997  23.3619988
 125.6430012 139.4764997  23.0389988 124.9634537 139.7092018  23.5301342
 124.0240012 139.7914997  35.1409988 123.4620012 139.0874997  35.4619988
 124.8510012 139.6714997  35.6089988 124.0587095 139.6787883  35.2482330
 125.9270012 139.0624997  26.4669988 125.7320012 139.6674997  25.7519988
 126.1080012 138.2284997  26.0329988 125.9247614 139.0326300  26.3104405
 117.1400012 139.2994997  31.7909988 117.1020012 139.6994997  32.6599988
 116.6490012 138.4824997  31.8819988 117.0684684 139.2438069  31.9221059
 120.5060012 136.6734997  18.5899988 120.0750012 136.2284997  19.3199988
 119.7880012 137.0454997  18.0779988 120.3499438 136.6628940  18.6206799
 113.7480012 136.4154997  25.6419988 114.3790012 136.3864997  26.3609988
 114.1970012 135.9904997  24.9119988 113.8950774 136.3540492  25.6416553
 115.0220012 137.1614997  21.0659988 115.4960012 137.7524997  20.4809988
 114.3050012 137.6924997  21.4129988 114.9899341 137.3140867  21.0328836
 125.1910012 140.7004997  31.1389988 125.5140012 140.0694997  30.4959988
 124.7510012 140.1654997  31.7989988 125.1756895 140.5418441  31.1402850
 121.9680012 136.6274997  25.9229988 121.0570012 136.6844997  26.2109988
 122.4740012 136.5674997  26.7329988 121.9115413 136.6271985  26.0720622
 116.7970012 138.2564997  24.7489988 115.9070012 138.3564997  24.4089988
 117.0930012 137.4144997  24.4029988 116.7152823 138.1563545  24.6557213
 120.4500012 138.2564997  22.4059988 121.3810012 138.3854997  22.5839988
 120.2350012 138.9264997  21.7559988 120.5484247 138.3646565  22.3425747
 126.3730012 135.8624997  29.1869988 125.6970012 135.9934997  29.8509988
 125.8880012 135.7074997  28.3769988 126.2147145 135.8594905  29.1684517
 119.1240012 139.4514997  19.9729988 118.5810012 139.0714997  19.2809988
 119.9570012 139.6454997  19.5439988 119.1624399 139.4258124  19.8204526
 117.2590012 144.0084997  35.0719988 117.9910012 144.2624997  35.6329988
 116.4790012 144.2124997  35.5869988 117.2538232 144.0709177  35.2185760
 123.2880012 139.4154997  27.8099988 123.8530012 138.8684997  27.2629988
 123.1410012 138.8934997  28.5979988 123.3452918 139.2702024  27.8418454
 118.2900012 135.5514997  24.2279988 117.9730012 134.6494997  24.1929988
 119.0720012 135.5534997  23.6749988 118.3522284 135.4281628  24.1484783
 121.9150012 137.8034997  30.2239988 121.0790012 138.2574997  30.3339988
 122.4390012 138.0794997  30.9759988 121.8714414 137.9029376  30.3407136
 122.4590012 144.0164997  21.9079988 121.7140012 143.5094997  21.5859988
 122.3250012 144.0654997  22.8549988 122.3388776 143.9536940  21.9918647
 129.6090012 143.1494997  30.6949988 130.2510012 143.6064997  30.1509988
 128.7790012 143.2624997  30.2319988 129.5845963 143.2272704  30.5580177
 126.3570012 136.8304997  20.1079988 125.4180012 136.9424997  19.9559988
 126.6540012 137.6874997  20.4139988 126.2687666 136.9616443  20.1285768
 123.9780012 144.2004997  33.1449988 123.6330012 143.8194997  33.9519988
 123.7780012 145.1344997  33.2169988 123.9038061 144.2745228  33.2650961
 127.0750012 138.6974997  21.7679988 127.9670012 138.5604997  22.0869988
 127.1320012 139.4884997  21.2319988 127.2046285 138.7856660  21.7391690
 117.5840012 143.3114997  27.6779988 118.3290012 143.3094997  27.0769988
 117.6620012 142.4884997  28.1599988 117.6965518 143.1999315  27.6608929
 114.5920012 141.7724997  32.9929988 114.8150012 141.3544997  33.8249988
 113.9900012 141.1594997  32.5699988 114.5411759 141.6324668  33.0497022
 121.6080012 141.2894997  35.2059988 121.3120012 141.1234997  34.3109988
 122.5400012 141.0694997  35.1949988 121.6934166 141.2370640  35.0820536
 131.9600012 138.9074997  21.4629988 131.4060012 138.5114997  20.7909988
 132.0600012 139.8174997  21.1849988 131.8977059 138.9763586  21.3334401
 131.9230012 144.7074997  34.2999988 131.0720012 144.9454997  33.9329988
 132.5140012 144.6904997  33.5469988 131.8862487 144.7378258  34.1478893
 127.4160012 142.5014997  28.9489988 126.4870012 142.2694997  28.9219988
 127.8670012 141.7244997  28.6189988 127.3499216 142.3647238  28.9006917
 115.7140012 141.6914997  19.6689988 116.3300012 142.3184997  20.0489988
 114.8520012 142.0074997  19.9409988 115.6817698 141.8199430  19.7577183
 121.3860012 144.4924997  24.6589988 121.1450012 145.4174997  24.6999988
 120.6450012 144.0334997  25.0549988 121.2528409 144.5571421  24.7181377
 125.4450012 144.7404997  30.6739988 125.0190012 144.5134997  31.5009988
 126.0250012 144.0024997  30.4919988 125.4651868 144.6095299  30.7625830
 116.2260012 136.5254997  32.5509988 115.3330012 136.8644997  32.4829988
 116.1270012 135.6704997  32.9689988 116.0904164 136.4562588  32.5982235
 128.5140012 144.3424997  21.9749988 128.2360012 143.6144997  22.5309988
 129.4410012 144.4614997  22.1799988 128.6013124 144.2588802  22.0788845
 117.1290012 143.6044997  21.1619988 116.4430012 143.9564997  21.7289988
 117.6510012 144.3674997  20.9149988 117.1056852 143.7558578  21.2062118
 124.9600012 136.2664997  31.4409988 125.6590012 136.3404997  32.0909988
 124.5790012 135.4024997  31.5949988 125.0041767 136.1597624  31.5508322
 125.7450012 135.9184997  22.5379988 125.9650012 136.3904997  21.7349988
 126.3030012 136.3134997  23.2079988 125.8504968 136.0364285  22.5187331
 122.9450012 137.6464997  23.3729988 123.7570012 138.1514997  23.4189988
 122.7000012 137.5014997  24.2869988 123.0230520 137.6960375  23.5028517
 123.4800012 138.6324997  32.5579988 123.5990012 139.2064997  33.3149988
 124.1360012 137.9444997  32.6719988 123.5849757 138.6181079  32.6770825
 123.8280012 134.7274997  24.3109988 123.4820012 135.3454997  24.9559988
 124.4870012 135.2284997  23.8299988 123.8697826 134.8795802  24.3340971
 119.4860012 135.7904997  20.9979988 119.4030012 136.6794997  21.3449988
 120.3760012 135.5254997  21.2299988 119.5949469 135.8761430  21.0767626
 129.6850012 136.5394997  33.3929988 128.7680012 136.8024997  33.3049988
 130.0200012 136.5364997  32.4959988 129.6049900 136.5750224  33.2597919
 128.2870012 140.2904997  27.4879988 127.4890012 139.8754997  27.1599988
 128.7320012 139.5994997  27.9789988 128.2379885 140.1403543  27.5094889
 116.0610012 138.8824997  19.1749988 116.0160012 139.8214997  19.3529988
 115.1730012 138.6464997  18.9049988 115.9348574 138.9791892  19.1628912
 116.8690012 133.6644997  27.8479988 116.6400012 133.7234997  26.9199988
 116.4260012 132.8724997  28.1539988 116.7778530 133.5655753  27.7624786
 114.9940012 144.0274997  36.2929988 115.1380012 143.1254997  36.0059988
 114.2220012 144.3134997  35.8049988 114.9093322 143.9428261  36.1877881
 119.3360012 144.3714997  18.4249988 119.4000012 143.5774997  18.9559988
 119.9890012 144.2524997  17.7349988 119.4330241 144.2467148  18.4044317
 121.6500012 143.9974997  35.7249988 121.3210012 144.2684997  34.8679988
 121.8020012 143.0564997  35.6379988 121.6254809 143.9073862  35.5958244
 127.3840012 143.9134997  33.1089988 128.1300012 144.5014997  32.9889988
 126.6270012 144.4954997  33.1719988 127.3837554 144.0727011  33.1010907
 115.8270012 141.2274997  35.7129988 116.2350012 140.3704997  35.5919988
 115.5670012 141.2424997  36.6339988 115.8477568 141.1120807  35.8209588
 120.4850012 142.3434997  20.7309988 120.0250012 141.8594997  21.4169988
 120.7400012 141.6754997  20.0949988 120.4564902 142.1868731  20.7389334
 119.7740012 140.2364997  33.0869988 119.1560012 140.9114997  33.3669988
 120.1180012 140.5574997  32.2539988 119.7359615 140.3722721  33.0126581
 121.5560012 140.5864997  18.9929988 121.3760012 140.4324997  18.0659988
 122.5060012 140.6944997  19.0379988 121.6597776 140.5800175  18.8721843
 124.7940012 142.7084997  36.3639988 125.7470012 142.7914997  36.3369988
 124.6330012 141.9964997  36.9839988 124.9026426 142.6236746  36.4440579
 130.9460012 142.9414997  18.4389988 130.6720012 142.5164997  17.6259988
 130.9850012 143.8724997  18.2219988 130.9137699 143.0092484  18.2983610
 120.1130012 137.5914997  34.1689988 120.2630012 136.8624997  33.5669988
 120.1160012 138.3684997  33.6099988 120.1339302 137.5967851  34.0110692
 120.5260012 135.9614997  31.6619988 121.0620012 136.4124997  31.0099988
 119.6740012 135.8534997  31.2389988 120.4842178 136.0086390  31.5155756
 122.1080012 141.4004997  31.9009988 122.8580012 141.2444997  31.3279988
 121.7690012 142.2524997  31.6259988 122.1648921 141.4942968  31.7853561
 126.5230012 139.2154997  36.9299988 126.7160012 138.2844997  36.8179988
 127.3810012 139.6404997  36.9199988 126.6653020 139.1456389  36.9133361
 127.8400012 142.0044997  35.0069988 127.5590012 142.7134997  34.4299988
 128.7830012 141.9314997  34.8559988 127.9289027 142.0917646  34.9075551
 118.5920012 138.7894997  36.0809988 117.8250012 138.2574997  35.8709988
 119.2710012 138.4794997  35.4809988 118.5787022 138.6747506  35.9711648
 121.3320012 133.4174997  32.0929988 121.2330012 134.3644997  31.9879988
 120.5890012 133.0454997  31.6179988 121.2180564 133.4965902  32.0144560
 122.5960012 137.7394997  35.6569988 122.3600012 137.5194997  36.5589988
 121.8120012 137.5324997  35.1469988 122.4578628 137.6814760  35.7113932
 125.3110012 136.8664997  34.7329988 124.3640012 136.8984997  34.8649988
 125.6240012 136.2414997  35.3859988 125.2235475 136.7863207  34.8394455
 126.9450012 135.5004997  36.7379988 126.8490012 134.5484997  36.7319988
 126.6240012 135.7694997  37.5979988 126.8884070 135.4064035  36.8535441
 116.7720012 136.7104997  35.7849988 116.9840012 136.0034997  35.1749988
 116.6610012 136.2724997  36.6289988 116.7859721 136.5547084  35.8156843
 121.5530012 132.7114997  34.7649988 122.2650012 132.0714997  34.7509988
 121.4520012 132.9784997  33.8509988 121.6367939 132.6599938  34.6395650
 121.9070012 134.3944997  36.8179988 121.7750012 133.9184997  35.9979988
 121.3080012 135.1384997  36.7629988 121.8079071 134.4299618  36.6982886
 131.4040012 143.8104997  22.4139988 132.2540012 144.2314997  22.5409988
 131.4100012 143.0704997  23.0209988 131.5211372 143.7680803  22.5134344
 131.7990012 141.8634997  24.2379988 131.0720012 141.3844997  24.6349988
 132.3800012 142.0694997  24.9699988 131.7779375 141.8257090  24.3914129
 131.5580012 144.6484997  29.1849988 132.3910012 144.2704997  28.9049988
 131.6700012 145.5914997  29.0659988 131.6872647 144.7242218  29.1305487
 132.0670012 141.7644997  20.6289988 131.5450012 142.1214997  19.9099988
 132.0340012 142.4394997  21.3069988 131.9911634 141.9045413  20.6223145
 130.4160012 139.0044997  19.1799988 130.5120012 139.6714997  18.4989988
 130.2760012 138.1884997  18.6979988 130.4102135 138.9854500  19.0218491
 129.5850012 140.3844997  24.8009988 129.4350012 139.4394997  24.7799988
 129.2320012 140.6654997  25.6439988 129.5166625 140.2930441  24.9122346
 114.6210012 142.4624997  28.8109988 114.8050012 142.3804997  27.8749988
 115.4700012 142.3384997  29.2349988 114.7610139 142.4345003  28.7401455
 130.4420012 142.3544997  34.4389988 131.0250012 141.6204997  34.6309988
 131.0060012 143.1264997  34.4859988 130.5979769 142.3584227  34.4716159
 131.9380012 140.2574997  35.1239988 131.0750012 139.8784997  34.9579988
 132.5430012 139.5184997  35.0499988 131.9015979 140.1058023  35.0912817
 129.6630012 136.4124997  18.2969988 130.2740012 136.0414997  18.9339988
 128.8270012 135.9914997  18.4929988 129.6335032 136.3047554  18.4107035
 129.2960012 137.9674997  23.2629988 129.5760012 137.0604997  23.3869988
 130.0550012 138.4014997  22.8739988 129.4369277 137.9020942  23.2273682
 129.9080012 138.5484997  28.6989988 130.8410012 138.7604997  28.6649988
 129.6730012 138.6504997  29.6209988 130.0038036 138.5912769  28.8189976
 129.9370012 139.2854997  31.4749988 129.0940012 139.5534997  31.8409988
 130.3790012 140.1074997  31.2639988 129.8814158 139.4333291  31.4965491
 114.2180012 137.7334997  34.9519988 115.1380012 137.6114997  35.1879988
 113.7690012 136.9834997  35.3409988 114.2831580 137.6153727  35.0369006
 132.2200012 133.2654997  36.8279988 132.5700012 132.6114997  36.2229988
 132.3670012 134.1024997  36.3889988 132.2878419 133.2891591  36.6857118
 129.9090012 135.2304997  23.3109988 130.0920012 134.7814997  24.1369988
 129.3100012 134.6454997  22.8479988 129.8530202 135.0899975  23.3613275
 115.4390012 136.0454997  27.8429988 115.8850012 135.2534997  28.1449988
 115.9060012 136.7614997  28.2739988 115.5630172 136.0340624  27.9424820
 113.7430012 139.0444997  28.9119988 114.2350012 138.8234997  28.1209988
 114.1060012 139.8854997  29.1929988 113.8593126 139.1278357  28.8417531
 131.7400012 135.3744997  35.1779988 130.8220012 135.6454997  35.1419988
 131.8630012 134.8394997  34.3929988 131.6311066 135.3392892  35.0670487
 131.7760012 135.2974997  19.8389988 132.1880012 134.5764997  19.3639988
 132.4580012 135.9674997  19.8979988 131.9245885 135.2892368  19.7818915
 114.0570012 135.3024997  22.9659988 113.1320012 135.5114997  22.8369988
 114.5110012 135.7864997  22.2769988 113.9917368 135.3965993  22.8551226
 114.0210012 134.0404997  31.3109988 113.3560012 133.7944997  31.9539988
 113.5780012 134.6624997  30.7329988 113.8700956 134.0908632  31.3209352
 130.7400012 133.4644997  32.9969988 129.9280012 133.7894997  32.6089988
 130.9730012 132.7044997  32.4639988 130.6603423 133.4062436  32.8718253
 124.1700012 134.9134997  27.3189988 123.4960012 134.2844997  27.5749988
 124.7340012 134.4294997  26.7159988 124.1539230 134.7618744  27.2725340
 129.3130012 133.0214997  27.4319988 129.9170012 133.5684997  26.9299988
 128.4430012 133.3404997  27.1919988 129.2781241 133.1395806  27.3307654
 131.0400012 134.1594997  25.7649988 131.6520012 133.6454997  25.2389988
 131.4220012 135.0374997  25.7889988 131.1754540 134.2077140  25.6961830
 116.4970012 133.5474997  25.1409988 115.7200012 133.3134997  24.6339988
 117.0270012 132.7504997  25.1499988 116.4622330 133.4076988  25.0727742
 115.3330012 133.3454997  20.9449988 115.7720012 133.9564997  20.3529988
 114.7000012 133.8834997  21.4189988 115.3074514 133.5019257  20.9280930
 121.0760012 133.4744997  24.9549988 121.9510012 133.8624997  24.9249988
 120.9400012 133.2594997  25.8769988 121.1773695 133.4985184  25.0756440
 126.6330012 133.5044997  26.6039988 126.7090012 133.5994997  25.6539988
 126.3580012 132.5964997  26.7329988 126.6062321 133.3947867  26.4915079
 127.9860012 133.5304997  22.2959988 127.2840012 134.1454997  22.0869988
 127.5420012 132.6924997  22.4269988 127.8296330 133.5015783  22.2850328
 117.1940012 135.2614997  19.3869988 117.6860012 134.6314997  18.8599988
 117.8180012 135.5574997  20.0509988 117.3455446 135.2153199  19.4045980
 122.2200012 135.5544997  21.8439988 122.3980012 134.9084997  22.5269988
 122.1670012 136.3884997  22.3119988 122.2371829 135.5787985  22.0005940
 116.4550012 134.0614997  34.6589988 116.0890012 133.2964997  35.1019988
 117.3680012 134.0904997  34.9459988 116.5282790 133.9607224  34.7584070
 118.4280012 133.4124997  36.1949988 119.3260012 133.1384997  36.0099988
 118.0410012 132.6694997  36.6589988 118.4986612 133.2745914  36.2323643
 126.8490012 132.7444997  36.3769988 126.9260012 132.3184997  37.2309988
 127.7430012 132.7584997  36.0339988 126.9803428 132.6880879  36.4475310
 144.4310012 142.7034997  25.0999988 144.5200012 143.6474997  24.9679988
 143.7930012 142.4284997  24.4419988 144.3569081 142.7954830  24.9929614
 143.3640012 141.9584997  28.5189988 143.3260012 141.3124997  29.2239988
 143.0420012 141.4924997  27.7479988 143.3152333 141.8069408  28.5112978
 135.7330012 141.5734997  30.1119988 135.7740012 140.9474997  30.8349988
 136.4360012 142.1974997  30.2939988 135.8336363 141.5721196  30.2356044
 133.2660012 139.6834997  24.0399988 132.8190012 140.5294997  24.0209988
 132.7050012 139.1034997  23.5239988 133.1289900 139.7209916  23.9676801
 133.9770012 141.8454997  26.1659988 134.1900012 141.0754997  26.6929988
 134.7150012 141.9344997  25.5619988 134.1058496 141.7521394  26.1565300
 141.7540012 144.3914997  28.9249988 142.0580012 143.7054997  28.3299988
 142.4750012 144.5094997  29.5429988 141.8930671 144.3136305  28.9271816
 144.8950012 138.7854997  29.2529988 145.0370012 137.8394997  29.2729988
 144.7880012 138.9924997  28.3239988 144.8999864 138.6839534  29.1302339
 138.0490012 136.8864997  26.5249988 138.0930012 137.7464997  26.1069988
 137.5920012 136.3344997  25.8909988 137.9932185 136.9295799  26.3820299
 134.6700012 139.2834997  27.2869988 135.3230012 138.7334997  27.7189988
 134.6940012 139.0094997  26.3699988 134.7626683 139.1711466  27.2222123
 139.8260012 140.8334997  26.5019988 140.4420012 140.3074997  27.0119988
 139.2400012 140.1934997  26.0989988 139.8310810 140.6749208  26.5173173
 136.8600012 135.8044997  30.5989988 136.6410012 136.3344997  29.8329988
 136.1920012 136.0314997  31.2459988 136.7397600 135.9076906  30.5816379
 139.4290012 143.4804997  30.8859988 138.6890012 144.0784997  30.9899988
 140.1430012 144.0344997  30.5709988 139.4242237 143.6372831  30.8576465
 136.4530012 137.6964997  28.5509988 137.0670012 138.3294997  28.9249988
 136.9650012 137.2244997  27.8949988 136.6062296 137.7192370  28.5134252
 140.8860012 133.1104997  28.0519988 140.7690012 132.1614997  27.9969988
 140.0310012 133.4424997  28.3249988 140.7543733 133.0255409  28.0813897
 143.1530012 141.9474997  22.5519988 142.4410012 142.4824997  22.1999988
 143.8440012 142.0034997  21.8919988 143.1490132 142.0282543  22.4146289
 143.2060012 140.4054997  19.5909988 143.9070012 140.4274997  20.2419988
 143.5090012 139.7774997  18.9349988 143.3427830 140.3236566  19.5913711
 138.2040012 142.7874997  25.3859988 137.8730012 142.4174997  24.5679988
 138.7920012 142.1174997  25.7329988 138.2381873 142.6461156  25.3208102
 138.5700012 141.5564997  29.0199988 139.1360012 141.6774997  28.2569988
 138.8890012 142.1934997  29.6589988 138.6905786 141.6591884  29.0020040
 136.3700012 142.1534997  32.9659988 136.4410012 142.8044997  33.6639988
 135.4800012 142.2564997  32.6309988 136.2593117 142.2565936  33.0162700
 137.1940012 141.8574997  22.9759988 136.9020012 142.6254997  22.4849988
 136.5200012 141.1974997  22.8129988 137.0629081 141.8734406  22.8867340
 133.2870012 144.2204997  31.7909988 132.7860012 144.1924997  30.9759988
 133.2920012 143.3144997  32.0999988 133.2191526 144.0942278  31.7212872
 138.1550012 134.0134997  28.8289988 137.2930012 133.9264997  28.4219988
 138.1320012 134.8694997  29.2569988 138.0340330 134.1172765  28.8311863
 142.8180012 133.7354997  32.2039988 143.2380012 133.3204997  32.9569988
 141.8850012 133.5574997  32.3209988 142.7493644 133.6545900  32.3229539
 142.4790012 136.2284997  19.4889988 142.2260012 136.2474997  20.4119988
 142.2230012 135.3564997  19.1879988 142.4097790 136.1132437  19.5746263
 138.2460012 138.9794997  29.9239988 137.6040012 138.9384997  30.6329988
 138.2830012 139.9054997  29.6869988 138.1631324 139.0991559  29.9889824
 138.2430012 139.2004997  24.8359988 137.3500012 138.8594997  24.7779988
 138.6930012 138.8234997  24.0809988 138.1817305 139.1028484  24.7259177
 143.7780012 139.6164997  23.6529988 143.3690012 140.4314997  23.3619988
 144.4990012 139.4764997  23.0389988 143.8194537 139.7092018  23.5301342
 142.8800012 139.7914997  35.1409988 142.3180012 139.0874997  35.4619988
 143.7070012 139.6714997  35.6089988 142.9147095 139.6787883  35.2482330
 144.7830012 139.0624997  26.4669988 144.5880012 139.6674997  25.7519988
 144.9640012 138.2284997  26.0329988 144.7807614 139.0326300  26.3104405
 135.9960012 139.2994997  31.7909988 135.9580012 139.6994997  32.6599988
 135.5050012 138.4824997  31.8819988 135.9244684 139.2438069  31.9221059
 139.3620012 136.6734997  18.5899988 138.9310012 136.2284997  19.3199988
 138.6440012 137.0454997  18.0779988 139.2059438 136.6628940  18.6206799
 132.6040012 136.4154997  25.6419988 133.2350012 136.3864997  26.3609988
 133.0530012 135.9904997  24.9119988 132.7510774 136.3540492  25.6416553
 133.8780012 137.1614997  21.0659988 134.3520012 137.7524997  20.4809988
 133.1610012 137.6924997  21.4129988 133.8459341 137.3140867  21.0328836
 144.0470012 140.7004997  31.1389988 144.3700012 140.0694997  30.4959988
 143.6070012 140.1654997  31.7989988 144.0316895 140.5418441  31.1402850
 140.8240012 136.6274997  25.9229988 139.9130012 136.6844997  26.2109988
 141.3300012 136.5674997  26.7329988 140.7675413 136.6271985  26.0720622
 135.6530012 138.2564997  24.7489988 134.7630012 138.3564997  24.4089988
 135.9490012 137.4144997  24.4029988 135.5712823 138.1563546  24.6557213
 139.3060012 138.2564997  22.4059988 140.2370012 138.3854997  22.5839988
 139.0910012 138.9264997  21.7559988 139.4044247 138.3646565  22.3425747
 137.9800012 139.4514997  19.9729988 137.4370012 139.0714997  19.2809988
 138.8130012 139.6454997  19.5439988 138.0184399 139.4258124  19.8204526
 136.1150012 144.0084997  35.0719988 136.8470012 144.2624997  35.6329988
 135.3350012 144.2124997  35.5869988 136.1098232 144.0709177  35.2185760
 142.1440012 139.4154997  27.8099988 142.7090012 138.8684997  27.2629988
 141.9970012 138.8934997  28.5979988 142.2012918 139.2702024  27.8418454
 137.1460012 135.5514997  24.2279988 136.8290012 134.6494997  24.1929988
 137.9280012 135.5534997  23.6749988 137.2082284 135.4281628  24.1484783
 140.7710012 137.8034997  30.2239988 139.9350012 138.2574997  30.3339988
 141.2950012 138.0794997  30.9759988 140.7274414 137.9029376  30.3407136
 141.3150012 144.0164997  21.9079988 140.5700012 143.5094997  21.5859988
 141.1810012 144.0654997  22.8549988 141.1948776 143.9536940  21.9918647
 142.8340012 144.2004997  33.1449988 142.4890012 143.8194997  33.9519988
 142.6340012 145.1344997  33.2169988 142.7598061 144.2745228  33.2650961
 136.4400012 143.3114997  27.6779988 137.1850012 143.3094997  27.0769988
 136.5180012 142.4884997  28.1599988 136.5525518 143.1999315  27.6608929
 133.4480012 141.7724997  32.9929988 133.6710012 141.3544997  33.8249988
 132.8460012 141.1594997  32.5699988 133.3971759 141.6324668  33.0497022
 140.4640012 141.2894997  35.2059988 140.1680012 141.1234997  34.3109988
 141.3960012 141.0694997  35.1949988 140.5494166 141.2370640  35.0820536
 134.5700012 141.6914997  19.6689988 135.1860012 142.3184997  20.0489988
 133.7080012 142.0074997  19.9409988 134.5377698 141.8199430  19.7577183
 140.2420012 144.4924997  24.6589988 140.0010012 145.4174997  24.6999988
 139.5010012 144.0334997  25.0549988 140.1088409 144.5571421  24.7181377
 144.3010012 144.7404997  30.6739988 143.8750012 144.5134997  31.5009988
 144.8810012 144.0024997  30.4919988 144.3211868 144.6095299  30.7625830
 135.0820012 136.5254997  32.5509988 134.1890012 136.8644997  32.4829988
 134.9830012 135.6704997  32.9689988 134.9464164 136.4562588  32.5982235
 135.9850012 143.6044997  21.1619988 135.2990012 143.9564997  21.7289988
 136.5070012 144.3674997  20.9149988 135.9616852 143.7558578  21.2062118
 143.8160012 136.2664997  31.4409988 144.5150012 136.3404997  32.0909988
 143.4350012 135.4024997  31.5949988 143.8601767 136.1597624  31.5508322
 144.6010012 135.9184997  22.5379988 144.8210012 136.3904997  21.7349988
 145.1590012 136.3134997  23.2079988 144.7064968 136.0364285  22.5187331
 141.8010012 137.6464997  23.3729988 142.6130012 138.1514997  23.4189988
 141.5560012 137.5014997  24.2869988 141.8790520 137.6960375  23.5028517
 142.3360012 138.6324997  32.5579988 142.4550012 139.2064997  33.3149988
 142.9920012 137.9444997  32.6719988 142.4409757 138.6181079  32.6770825
 142.6840012 134.7274997  24.3109988 142.3380012 135.3454997  24.9559988
 143.3430012 135.2284997  23.8299988 142.7257826 134.8795802  24.3340971
 138.3420012 135.7904997  20.9979988 138.2590012 136.6794997  21.3449988
 139.2320012 135.5254997  21.2299988 138.4509469 135.8761430  21.0767626
 134.9170012 138.8824997  19.1749988 134.8720012 139.8214997  19.3529988
 134.0290012 138.6464997  18.9049988 134.7908574 138.9791892  19.1628912
 135.7250012 133.6644997  27.8479988 135.4960012 133.7234997  26.9199988
 135.2820012 132.8724997  28.1539988 135.6338530 133.5655753  27.7624786
 133.8500012 144.0274997  36.2929988 133.9940012 143.1254997  36.0059988
 133.0780012 144.3134997  35.8049988 133.7653322 143.9428261  36.1877881
 138.1920012 144.3714997  18.4249988 138.2560012 143.5774997  18.9559988
 138.8450012 144.2524997  17.7349988 138.2890241 144.2467148  18.4044317
 140.5060012 143.9974997  35.7249988 140.1770012 144.2684997  34.8679988
 140.6580012 143.0564997  35.6379988 140.4814809 143.9073862  35.5958244
 134.6830012 141.2274997  35.7129988 135.0910012 140.3704997  35.5919988
 134.4230012 141.2424997  36.6339988 134.7037568 141.1120807  35.8209588
 139.3410012 142.3434997  20.7309988 138.8810012 141.8594997  21.4169988
 139.5960012 141.6754997  20.0949988 139.3124902 142.1868731  20.7389334
 138.6300012 140.2364997  33.0869988 138.0120012 140.9114997  33.3669988
 138.9740012 140.5574997  32.2539988 138.5919615 140.3722721  33.0126581
 140.4120012 140.5864997  18.9929988 140.2320012 140.4324997  18.0659988
 141.3620012 140.6944997  19.0379988 140.5157776 140.5800175  18.8721843
 143.6500012 142.7084997  36.3639988 144.6030012 142.7914997  36.3369988
 143.4890012 141.9964997  36.9839988 143.7586426 142.6236746  36.4440579
 138.9690012 137.5914997  34.1689988 139.1190012 136.8624997  33.5669988
 138.9720012 138.3684997  33.6099988 138.9899302 137.5967851  34.0110692
 139.3820012 135.9614997  31.6619988 139.9180012 136.4124997  31.0099988
 138.5300012 135.8534997  31.2389988 139.3402178 136.0086390  31.5155756
 140.9640012 141.4004997  31.9009988 141.7140012 141.2444997  31.3279988
 140.6250012 142.2524997  31.6259988 141.0208921 141.4942968  31.7853561
 137.4480012 138.7894997  36.0809988 136.6810012 138.2574997  35.8709988
 138.1270012 138.4794997  35.4809988 137.4347022 138.6747506  35.9711648
 140.1880012 133.4174997  32.0929988 140.0890012 134.3644997  31.9879988
 139.4450012 133.0454997  31.6179988 140.0740564 133.4965902  32.0144560
 141.4520012 137.7394997  35.6569988 141.2160012 137.5194997  36.5589988
 140.6680012 137.5324997  35.1469988 141.3138628 137.6814760  35.7113932
 144.1670012 136.8664997  34.7329988 143.2200012 136.8984997  34.8649988
 144.4800012 136.2414997  35.3859988 144.0795475 136.7863207  34.8394455
 135.6280012 136.7104997  35.7849988 135.8400012 136.0034997  35.1749988
 135.5170012 136.2724997  36.6289988 135.6419721 136.5547084  35.8156843
 140.4090012 132.7114997  34.7649988 141.1210012 132.0714997  34.7509988
 140.3080012 132.9784997  33.8509988 140.4927939 132.6599938  34.6395650
 140.7630012 134.3944997  36.8179988 140.6310012 133.9184997  35.9979988
 140.1640012 135.1384997  36.7629988 140.6639071 134.4299618  36.6982886
 133.4770012 142.4624997  28.8109988 133.6610012 142.3804997  27.8749988
 134.3260012 142.3384997  29.2349988 133.6170139 142.4345003  28.7401455
 133.0740012 137.7334997  34.9519988 133.9940012 137.6114997  35.1879988
 132.6250012 136.9834997  35.3409988 133.1391580 137.6153727  35.0369006
 134.2950012 136.0454997  27.8429988 134.7410012 135.2534997  28.1449988
 134.7620012 136.7614997  28.2739988 134.4190172 136.0340624  27.9424820
 132.5990012 139.0444997  28.9119988 133.0910012 138.8234997  28.1209988
 132.9620012 139.8854997  29.1929988 132.7153126 139.1278357  28.8417531
 132.9130012 135.3024997  22.9659988 131.9880012 135.5114997  22.8369988
 133.3670012 135.7864997  22.2769988 132.8477368 135.3965993  22.8551226
 132.8770012 134.0404997  31.3109988 132.2120012 133.7944997  31.9539988
 132.4340012 134.6624997  30.7329988 132.7260956 134.0908632  31.3209352
 143.0260012 134.9134997  27.3189988 142.3520012 134.2844997  27.5749988
 143.5900012 134.4294997  26.7159988 143.0099230 134.7618744  27.2725340
 135.3530012 133.5474997  25.1409988 134.5760012 133.3134997  24.6339988
 135.8830012 132.7504997  25.1499988 135.3182330 133.4076988  25.0727742
 134.1890012 133.3454997  20.9449988 134.6280012 133.9564997  20.3529988
 133.5560012 133.8834997  21.4189988 134.1634514 133.5019257  20.9280930
 139.9320012 133.4744997  24.9549988 140.8070012 133.8624997  24.9249988
 139.7960012 133.2594997  25.8769988 140.0333695 133.4985184  25.0756440
 136.0500012 135.2614997  19.3869988 136.5420012 134.6314997  18.8599988
 136.6740012 135.5574997  20.0509988 136.2015446 135.2153199  19.4045980
 141.0760012 135.5544997  21.8439988 141.2540012 134.9084997  22.5269988
 141.0230012 136.3884997  22.3119988 141.0931829 135.5787985  22.0005940
 135.3110012 134.0614997  34.6589988 134.9450012 133.2964997  35.1019988
 136.2240012 134.0904997  34.9459988 135.3842790 133.9607224  34.7584070
 137.2840012 133.4124997  36.1949988 138.1820012 133.1384997  36.0099988
 136.8970012 132.6694997  36.6589988 137.3546612 133.2745914  36.2323643
  12.4390012  10.7114997  43.9559988  12.5280012  11.6554997  43.8239988
  11.8010012  10.4364997  43.2979988  12.3649081  10.8034830  43.8489614
  11.3720012   9.9664997  47.3749988  11.3340012   9.3204997  48.0799988
  11.0500012   9.5004997  46.6039988  11.3232333   9.8149408  47.3672978
   3.7410012   9.5814997  48.9679988   3.7820012   8.9554997  49.6909988
   4.4440012  10.2054997  49.1499988   3.8416363   9.5801196  49.0916044
  15.0780012  12.9054997  45.6759988  14.6380012  12.1854997  46.1269988
  15.0650012  13.6264997  46.3059988  15.0160226  12.9043731  45.8228494
   4.6640012  14.0314997  47.5029988   4.2950012  13.2294997  47.1329988
   5.6050012  13.8624997  47.5489988   4.7407289  13.8990153  47.4586316
   1.2740012   7.6914997  42.8959988   0.8270012   8.5374997  42.8769988
   0.7130012   7.1114997  42.3799988   1.1369900   7.7289916  42.8236801
   1.9850012   9.8534997  45.0219988   2.1980012   9.0834997  45.5489988
   2.7230012   9.9424997  44.4179988   2.1138496   9.7601394  45.0125300
  12.1900012  18.0104997  45.8889988  12.8100012  17.3334997  45.6149988
  11.9820012  17.7924997  46.7969988  12.2466904  17.8883870  45.9743365
   9.7620012  12.3994997  47.7809988  10.0660012  11.7134997  47.1859988
  10.4830012  12.5174997  48.3989988   9.9010671  12.3216305  47.7831816
  18.4250012   4.0004997  48.6419988  18.4740012   4.6104997  49.3779988
  18.8500012   4.4614997  47.9189988  18.4891824   4.1463741  48.6450205
  12.9030012   6.7934997  48.1089988  13.0450012   5.8474997  48.1289988
  12.7960012   7.0004997  47.1799988  12.9079864   6.6919534  47.9862339
   6.0570012   4.8944997  45.3809988   6.1010012   5.7544997  44.9629988
   5.6000012   4.3424997  44.7469988   6.0012185   4.9375799  45.2380299
  13.7800012   5.0254997  43.7819988  14.4260012   4.6964997  44.4069988
  14.2900012   5.5434997  43.1589988  13.9374264   5.0504611  43.7833862
   2.6780012   7.2914997  46.1429988   3.3310012   6.7414997  46.5749988
   2.7020012   7.0174997  45.2259988   2.7706683   7.1791466  46.0782123
   7.8340012   8.8414997  45.3579988   8.4500012   8.3154997  45.8679988
   7.2480012   8.2014997  44.9549988   7.8390810   8.6829208  45.3733173
  18.8160012   5.4784997  50.8779988  18.1280012   6.1364997  50.7819988
  18.8320012   5.2814997  51.8139988  18.7238525   5.5420462  50.9914808
   4.8680012   3.8124997  49.4549988   4.6490012   4.3424997  48.6889988
   4.2000012   4.0394997  50.1019988   4.7477600   3.9156906  49.4376379
  12.2370012  13.3124997  42.9989988  11.9410012  12.9904997  42.1479988
  11.9120012  14.2124997  43.0399988  12.1526371  13.3900215  42.8881801
   7.4370012  11.4884997  49.7419988   6.6970012  12.0864997  49.8459988
   8.1510012  12.0424997  49.4269988   7.4322237  11.6452831  49.7136465
  15.5440012   4.3164997  45.7619988  15.3280012   3.5504997  46.2949988
  16.1990012   4.7884997  46.2749988  15.6030632   4.2755889  45.9042861
   4.4610012   5.7044997  47.4069988   5.0750012   6.3374997  47.7809988
   4.9730012   5.2324997  46.7509988   4.6142296   5.7272370  47.3694252
   5.8440012  13.4524997  50.5299988   5.8390012  14.3324997  50.1519988
   4.9910012  13.3694997  50.9549988   5.7279464  13.5616117  50.5357907
   1.9650012  13.1234997  41.3119988   1.6930012  13.3524997  40.4229988
   2.0110012  13.9614997  41.7719988   1.9340094  13.2681213  41.2525697
  15.5900012  14.7454997  48.0239988  14.6490012  14.8034997  48.1859988
  15.8670012  15.6514997  47.8869988  15.4984679  14.8759443  48.0276815
  15.8910012   3.0314997  49.4419988  15.1550012   3.6424997  49.4039988
  16.5740012   3.4464997  48.9149988  15.8826541   3.1711374  49.3655832
   8.8940012   1.1184997  46.9079988   8.7770012   0.1694997  46.8529988
   8.0390012   1.4504997  47.1809988   8.7623733   1.0335409  46.9373897
  13.8420012  16.5264997  44.6499988  14.2680012  15.8194997  44.1649988
  14.1590012  17.3274997  44.2329988  13.9431019  16.5380994  44.5273130
  15.0020012  14.4274997  43.1579988  14.7440012  13.7374997  42.5469988
  15.0730012  13.9844997  44.0039988  14.9762856  14.2732124  43.1886885
  16.6880012  12.9934997  51.6359988  16.8280012  12.4024997  50.8959988
  16.8550012  13.8664997  51.2789988  16.7296778  13.0306426  51.4866965
  11.1610012   9.9554997  41.4079988  10.4490012  10.4904997  41.0559988
  11.8520012  10.0114997  40.7479988  11.1570132  10.0362543  41.2706289
  11.2140012   8.4134997  38.4469988  11.9150012   8.4354997  39.0979988
  11.5170012   7.7854997  37.7909988  11.3507830   8.3316566  38.4473711
  18.5300012   9.3334997  49.7019988  17.8770012  10.0284997  49.7909988
  18.9950012   9.5434997  48.8919988  18.5035390   9.4569425  49.6046883
  14.5660012  10.1654997  42.3599988  13.8340012  10.3934997  42.9329988
  15.0140012   9.4514997  42.8149988  14.5263095  10.1002571  42.4999119
  14.4640012   8.3394997  51.4269988  14.5440012   9.1024997  51.9989988
  13.8620012   8.6184997  50.7369988  14.3935756   8.4817134  51.4120589
   6.2120012  10.7954997  44.2419988   5.8810012  10.4254997  43.4239988
   6.8000012  10.1254997  44.5889988   6.2461873  10.6541156  44.1768102
   7.5780012  14.2234997  46.9239988   7.4840012  13.6454997  46.1669988
   8.3080012  13.8524997  47.4199988   7.6637981  14.0942390  46.8874165
   6.5780012   9.5644997  47.8759988   7.1440012   9.6854997  47.1129988
   6.8970012  10.2014997  48.5149988   6.6985786   9.6671884  47.8580040
  12.8870012  15.0674997  48.6099988  12.6470012  15.7294997  49.2579988
  12.6890012  14.2334997  49.0349988  12.8273808  15.0453134  48.7561524
   7.4580012  13.9634997  52.5929988   7.1470012  14.7454997  53.0479988
   6.8080012  13.8104997  51.9069988   7.3275558  14.0499105  52.5625871
  13.4370012   9.3274997  40.0449988  14.0170012   9.4774997  40.7919988
  13.8510012   9.7984997  39.3219988  13.5722830   9.4116841  40.0494134
   4.3780012  10.1614997  51.8219988   4.4490012  10.8124997  52.5199988
   3.4880012  10.2644997  51.4869988   4.2673117  10.2645936  51.8722700
  11.1640012  16.0644997  43.4799988  11.6380012  16.3594997  44.2579988
  10.6010012  16.8024997  43.2469988  11.1527653  16.2046932  43.5550136
   5.6980012  16.0354997  53.3559988   5.7050012  15.8994997  52.4089988
   4.7820012  15.9174997  53.6079988   5.5751714  16.0009430  53.2604666
  17.1360012   1.0774997  39.8579988  16.2360012   1.2164997  40.1529988
  17.3880012   1.9084997  39.4559988  17.0468702   1.2089074  39.8440205
   5.2020012   9.8654997  41.8319988   4.9100012  10.6334997  41.3409988
   4.5280012   9.2054997  41.6689988   5.0709081   9.8814406  41.7427340
  18.3250012  15.4434997  38.2339988  18.3990012  16.3824997  38.4049988
  19.2310012  15.1384997  38.1779988  18.4575100  15.5306722  38.2498119
   1.2950012  12.2284997  50.6469988   0.7940012  12.2004997  49.8319988
   1.3000012  11.3224997  50.9559988   1.2271526  12.1022278  50.5772872
   1.0450012  15.0084997  47.5309988   1.9910012  14.8644997  47.5119988
   0.9330012  15.7924997  48.0679988   1.1592727  15.0948046  47.6010072
  19.2430012  15.6744997  53.2129988  19.1940012  14.7194997  53.1759988
  18.4160012  15.9424997  53.6139988  19.1244940  15.5798998  53.2621375
  10.2220012  15.2484997  52.0889988  10.3090012  16.0744997  52.5639988
   9.3580012  14.9184997  52.3379988  10.1171964  15.3169878  52.1876549
  10.6360012  19.0204997  41.8949988  10.5610012  18.8994997  40.9489988
  10.6690012  19.9704997  42.0139988  10.6301848  19.1322500  41.7814834
   4.2890012  17.8094997  43.6759988   4.4420012  17.4614997  44.5549988
   3.4390012  17.4534997  43.4209988   4.1948962  17.7136650  43.7618340
  13.7380012  18.1744997  38.8969988  14.1130012  17.4304997  38.4269988
  13.7420012  17.9044997  39.8159988  13.7898915  18.0361486  38.9567824
  13.4070012  18.1004997  41.6469988  12.4710012  18.2004997  41.8249988
  13.6870012  17.3914997  42.2249988  13.3168255  18.0182711  41.7495391
  16.3950012   7.1674997  53.6929988  15.9880012   7.6484997  52.9719988
  16.4360012   6.2624997  53.3849988  16.3448437   7.1109374  53.5526683
   3.5440012  13.5514997  51.6899988   3.7600012  13.1904997  52.5489988
   2.6890012  13.1774997  51.4799988   3.4579292  13.4514111  51.7793386
   6.1630012   2.0214997  47.6849988   5.3010012   1.9344997  47.2779988
   6.1400012   2.8774997  48.1129988   6.0420330   2.1252765  47.6871863
  10.8260012   1.7434997  51.0599988  11.2460012   1.3284997  51.8129988
   9.8930012   1.5654997  51.1769988  10.7573644   1.6625900  51.1789539
  14.1520012   5.4994997  51.9129988  13.6380012   5.3734997  52.7109988
  13.9970012   6.4114997  51.6689988  14.0606852   5.6056132  51.9892158
  14.9150012  10.3604997  37.6749988  14.9570012  10.1374997  36.7449988
  15.7640012  10.7594997  37.8649988  15.0355396  10.3839155  37.5733627
  10.4870012   4.2364997  38.3449988  10.2340012   4.2554997  39.2679988
  10.2310012   3.3644997  38.0439988  10.4177790   4.1212437  38.4306263
   6.2540012   6.9874997  48.7799988   5.6120012   6.9464997  49.4889988
   6.2910012   7.9134997  48.5429988   6.1711324   7.1071559  48.8449824
   6.2510012   7.2084997  43.6919988   5.3580012   6.8674997  43.6339988
   6.7010012   6.8314997  42.9369988   6.1897305   7.1108484  43.5819177
  11.7860012   7.6244997  42.5089988  11.3770012   8.4394997  42.2179988
  12.5070012   7.4844997  41.8949988  11.8274537   7.7172018  42.3861342
  10.8880012   7.7994997  53.9969988  10.3260012   7.0954997  54.3179988
  11.7150012   7.6794997  54.4649988  10.9227095   7.6867883  54.1042330
  12.7910012   7.0704997  45.3229988  12.5960012   7.6754997  44.6079988
  12.9720012   6.2364997  44.8889988  12.7887614   7.0406300  45.1664405
   4.0040012   7.3074997  50.6469988   3.9660012   7.7074997  51.5159988
   3.5130012   6.4904997  50.7379988   3.9324684   7.2518069  50.7781059
   7.3700012   4.6814997  37.4459988   6.9390012   4.2364997  38.1759988
   6.6520012   5.0534997  36.9339988   7.2139438   4.6708940  37.4766799
   0.6120012   4.4234997  44.4979988   1.2430012   4.3944997  45.2169988
   1.0610012   3.9984997  43.7679988   0.7590774   4.3620492  44.4976553
   1.8860012   5.1694997  39.9219988   2.3600012   5.7604997  39.3369988
   1.1690012   5.7004997  40.2689988   1.8539341   5.3220867  39.8888836
  12.0550012   8.7084997  49.9949988  12.3780012   8.0774997  49.3519988
  11.6150012   8.1734997  50.6549988  12.0396895   8.5498441  49.9962850
   8.8320012   4.6354997  44.7789988   7.9210012   4.6924997  45.0669988
   9.3380012   4.5754997  45.5889988   8.7755413   4.6351985  44.9280622
   3.6610012   6.2644997  43.6049988   2.7710012   6.3644997  43.2649988
   3.9570012   5.4224997  43.2589988   3.5792823   6.1643545  43.5117213
   7.3140012   6.2644997  41.2619988   8.2450012   6.3934997  41.4399988
   7.0990012   6.9344997  40.6119988   7.4124247   6.3726565  41.1985747
  13.2370012   3.8704997  48.0429988  12.5610012   4.0014997  48.7069988
  12.7520012   3.7154997  47.2329988  13.0787145   3.8674905  48.0244517
   5.9880012   7.4594997  38.8289988   5.4450012   7.0794997  38.1369988
   6.8210012   7.6534997  38.3999988   6.0264399   7.4338124  38.6764526
  16.5250012  19.5424997  54.3199988  16.7250012  19.9664997  53.4849988
  17.1800012  19.8854997  54.9269988  16.6410051  19.6469648  54.2877836
   4.1230012  12.0164997  53.9279988   4.8550012  12.2704997  54.4889988
   3.3430012  12.2204997  54.4429988   4.1178232  12.0789177  54.0745760
  10.1520012   7.4234997  46.6659988  10.7170012   6.8764997  46.1189988
  10.0050012   6.9014997  47.4539988  10.2092918   7.2782024  46.6978454
   5.1540012   3.5594997  43.0839988   4.8370012   2.6574997  43.0489988
   5.9360012   3.5614997  42.5309988   5.2162284   3.4361628  43.0044783
   8.7790012   5.8114997  49.0799988   7.9430012   6.2654997  49.1899988
   9.3030012   6.0874997  49.8319988   8.7354414   5.9109376  49.1967136
   9.3230012  12.0244997  40.7639988   8.5780012  11.5174997  40.4419988
   9.1890012  12.0734997  41.7109988   9.2028776  11.9616940  40.8478647
  16.4730012  11.1574997  49.5509988  17.1150012  11.6144997  49.0069988
  15.6430012  11.2704997  49.0879988  16.4485963  11.2352704  49.4140177
  13.2210012   4.8384997  38.9639988  12.2820012   4.9504997  38.8119988
  13.5180012   5.6954997  39.2699988  13.1327666   4.9696443  38.9845768
  10.8420012  12.2084997  52.0009988  10.4970012  11.8274997  52.8079988
  10.6420012  13.1424997  52.0729988  10.7678061  12.2825228  52.1210961
  13.9390012   6.7054997  40.6239988  14.8310012   6.5684997  40.9429988
  13.9960012   7.4964997  40.0879988  14.0686285   6.7936660  40.5951691
   4.4480012  11.3194997  46.5339988   5.1930012  11.3174997  45.9329988
   4.5260012  10.4964997  47.0159988   4.5605518  11.2079315  46.5168929
  11.4490012  13.4834997  39.7899988  11.1530012  14.3094997  40.1709988
  10.7460012  12.8634997  39.9859988  11.3134914  13.5128199  39.8686443
   1.4560012   9.7804997  51.8489988   1.6790012   9.3624997  52.6809988
   0.8540012   9.1674997  51.4259988   1.4051759   9.6404668  51.9057022
   8.4720012   9.2974997  54.0619988   8.1760012   9.1314997  53.1669988
   9.4040012   9.0774997  54.0509988   8.5574166   9.2450640  53.9380536
  13.0930012  14.6704997  51.9519988  12.1920012  14.8534997  51.6839988
  13.1270012  14.9294997  52.8729988  12.9743041  14.7305512  52.0398197
  18.8240012   6.9154997  40.3189988  18.2700012   6.5194997  39.6469988
  18.9240012   7.8254997  40.0409988  18.7617059   6.9843586  40.1894401
  18.7870012  12.7154997  53.1559988  17.9360012  12.9534997  52.7889988
  19.3780012  12.6984997  52.4029988  18.7502487  12.7458258  53.0038893
  17.1190012  15.7014997  40.7839988  16.7460012  14.8754997  41.0929988
  17.3970012  15.5184997  39.8869988  17.1055630  15.5637303  40.7049626
  14.2800012  10.5094997  47.8049988  13.3510012  10.2774997  47.7779988
  14.7310012   9.7324997  47.4749988  14.2139216  10.3727238  47.7566917
   6.8230012  14.8374997  43.9379988   7.3500012  15.6104997  43.7379988
   5.9430012  15.0624997  43.6369988   6.7761773  14.9738005  43.8699010
   2.5780012   9.6994997  38.5249988   3.1940012  10.3264997  38.9049988
   1.7160012  10.0154997  38.7969988   2.5457698   9.8279430  38.6137183
   8.2500012  12.5004997  43.5149988   8.0090012  13.4254997  43.5559988
   7.5090012  12.0414997  43.9109988   8.1168409  12.5651421  43.5741377
   8.7650012  16.6494997  49.8299988   9.1270012  17.5044997  49.5959988
   9.2960012  16.3574997  50.5699988   8.8864473  16.7271060  49.8980855
   6.9330012  17.5224997  43.0599988   5.9830012  17.6274997  43.1109988
   7.2850012  18.3424997  43.4049988   6.8504203  17.6478314  43.1136650
  12.3090012  12.7484997  49.5299988  11.8830012  12.5214997  50.3569988
  12.8890012  12.0104997  49.3479988  12.3291868  12.6175299  49.6185830
  14.5120012  13.6774997  38.6039988  14.8650012  13.2974997  39.4089988
  13.5630012  13.5844997  38.6909988  14.4320441  13.6129596  38.7258559
  14.9670012  17.3004997  51.9999988  14.3660012  16.7454997  51.5039988
  15.2490012  17.9674997  51.3739988  14.9228519  17.3146841  51.8474952
  19.0150012  18.1574997  38.8049988  19.7590012  18.7434997  38.6649988
  18.3210012  18.7254997  39.1389988  19.0230292  18.3145582  38.8309961
   3.0900012   4.5334997  51.4069988   2.1970012   4.8724997  51.3389988
   2.9910012   3.6784997  51.8249988   2.9544164   4.4642588  51.4542235
  15.3780012  12.3504997  40.8309988  15.1000012  11.6224997  41.3869988
  16.3050012  12.4694997  41.0359988  15.4653124  12.2668802  40.9348845
   2.7410012  16.3384997  49.8419988   2.9580012  15.4064997  49.8109988
   2.9870012  16.6124997  50.7249988   2.8039549  16.2480636  49.9571763
   8.6030012  14.7894997  37.0509988   8.8420012  14.0414997  36.5039988
   8.3340012  14.4014997  37.8839988   8.5993675  14.6346638  37.0886865
   7.5400012  14.3594997  39.5079988   7.6860012  13.8394997  40.2979988
   7.5370012  15.2664997  39.8139988   7.5595989  14.4108853  39.6576088
   3.9930012  11.6124997  40.0179988   3.3070012  11.9644997  40.5849988
   4.5150012  12.3754997  39.7709988   3.9696852  11.7638578  40.0622118
  11.8240012   4.2744997  50.2969988  12.5230012   4.3484997  50.9469988
  11.4430012   3.4104997  50.4509988  11.8681767   4.1677624  50.4068322
  12.6090012   3.9264997  41.3939988  12.8290012   4.3984997  40.5909988
  13.1670012   4.3214997  42.0639988  12.7144968   4.0444285  41.3747331
  10.2770012  16.0574997  40.2569988   9.4610012  16.5544997  40.3089988
  10.8070012  16.5324997  39.6169988  10.2369161  16.1897722  40.1775956
   9.8090012   5.6544997  42.2289988  10.6210012   6.1594997  42.2749988
   9.5640012   5.5094997  43.1429988   9.8870520   5.7040375  42.3588517
  10.3440012   6.6404997  51.4139988  10.4630012   7.2144997  52.1709988
  11.0000012   5.9524997  51.5279988  10.4489757   6.6261079  51.5330825
  10.6920012   2.7354997  43.1669988  10.3460012   3.3534997  43.8119988
  11.3510012   3.2364997  42.6859988  10.7337826   2.8875802  43.1900971
   7.6160012  17.1014997  40.2389988   7.7760012  17.9004997  39.7379988
   7.4180012  17.4074997  41.1239988   7.6111649  17.2524469  40.2899815
   6.3500012   3.7984997  39.8539988   6.2670012   4.6874997  40.2009988
   7.2400012   3.5334997  40.0859988   6.4589469   3.8841430  39.9327626
  16.5490012   4.5474997  52.2489988  15.6320012   4.8104997  52.1609988
  16.8840012   4.5444997  51.3519988  16.4689900   4.5830224  52.1157919
  15.1510012   8.2984997  46.3439988  14.3530012   7.8834997  46.0159988
  15.5960012   7.6074997  46.8349988  15.1019885   8.1483543  46.3654889
   4.6090012  14.2264997  38.9149988   5.2010012  14.9254997  39.1909988
   5.0680012  13.7934997  38.1949988   4.7521142  14.2637049  38.8554830
   2.9250012   6.8904997  38.0309988   2.8800012   7.8294997  38.2089988
   2.0370012   6.6544997  37.7609988   2.7988574   6.9871892  38.0188912
  16.2370012  17.5544997  47.9669988  16.0820012  18.2324997  47.3099988
  17.1700012  17.6264997  48.1699988  16.3418500  17.6570170  47.9045119
   3.7330012   1.6724997  46.7039988   3.5040012   1.7314997  45.7759988
   3.2900012   0.8804997  47.0099988   3.6418530   1.5735753  46.6184786
   2.6630012  15.6124997  42.8639988   1.8310012  16.0854997  42.8919988
   3.2090012  16.1224997  42.2659988   2.6229739  15.7461871  42.7869716
   1.9510012  18.2254997  54.1939988   2.4920012  18.0084997  54.9539988
   1.4700012  17.4194997  54.0049988   1.9599345  18.0869514  54.2723076
   6.5490012  17.1444997  55.8149988   7.3160012  16.6854997  56.1559988
   6.5270012  16.9184997  54.8849988   6.6511434  17.0510409  55.7360043
  10.6410012  16.6524997  37.1899988   9.9970012  16.0214997  37.5109988
  11.4030012  16.1214997  36.9579988  10.6558077  16.4942920  37.2026011
  13.1260012  15.5244997  54.5439988  12.7750012  14.6684997  54.7869988
  13.8520012  15.6674997  55.1509988  13.1760769  15.4265636  54.6593619
  15.2450012  16.4694997  37.4239988  15.5280012  15.6754997  37.8759988
  15.9850012  16.7024997  36.8629988  15.3837486  16.3922803  37.4100698
   1.8580012  12.0354997  55.1489988   2.0020012  11.1334997  54.8619988
   1.0860012  12.3214997  54.6609988   1.7733322  11.9508261  55.0437881
   6.2000012  12.3794997  37.2809988   6.2640012  11.5854997  37.8119988
   6.8530012  12.2604997  36.5909988   6.2970241  12.2547148  37.2604317
   8.5140012  12.0054997  54.5809988   8.1850012  12.2764997  53.7239988
   8.6660012  11.0644997  54.4939988   8.4894809  11.9153862  54.4518244
  11.5520012  13.4264997  37.0169988  11.2830012  13.6064997  37.9179988
  11.3460012  12.5004997  36.8859988  11.4873825  13.3260152  37.1225214
  14.2480012  11.9214997  51.9649988  14.9940012  12.5094997  51.8449988
  13.4910012  12.5034997  52.0279988  14.2477554  12.0807011  51.9570907
   2.6910012   9.2354997  54.5689988   3.0990012   8.3784997  54.4479988
   2.4310012   9.2504997  55.4899988   2.7117568   9.1200807  54.6769588
   7.3490012  10.3514997  39.5869988   6.8890012   9.8674997  40.2729988
   7.6040012   9.6834997  38.9509988   7.3204902  10.1948731  39.5949334
   6.6380012   8.2444997  51.9429988   6.0200012   8.9194997  52.2229988
   6.9820012   8.5654997  51.1099988   6.5999615   8.3802721  51.8686581
   8.4200012   8.5944997  37.8489988   8.2400012   8.4404997  36.9219988
   9.3700012   8.7024997  37.8939988   8.5237776   8.5880175  37.7281843
  11.6580012  10.7164997  55.2199988  12.6110012  10.7994997  55.1929988
  11.4970012  10.0044997  55.8399988  11.7666426  10.6316746  55.3000579
  17.8100012  10.9494997  37.2949988  17.5360012  10.5244997  36.4819988
  17.8490012  11.8804997  37.0779988  17.7777699  11.0172484  37.1543610
   6.9770012   5.5994997  53.0249988   7.1270012   4.8704997  52.4229988
   6.9800012   6.3764997  52.4659988   6.9979302   5.6047851  52.8670692
   7.3900012   3.9694997  50.5179988   7.9260012   4.4204997  49.8659988
   6.5380012   3.8614997  50.0949988   7.3482178   4.0166390  50.3715756
   8.9720012   9.4084997  50.7569988   9.7220012   9.2524997  50.1839988
   8.6330012  10.2604997  50.4819988   9.0288921   9.5022968  50.6413561
  13.3870012   7.2234997  55.7859988  13.5800012   6.2924997  55.6739988
  14.2450012   7.6484997  55.7759988  13.5293020   7.1536389  55.7693361
  14.7040012  10.0124997  53.8629988  14.4230012  10.7214997  53.2859988
  15.6470012   9.9394997  53.7119988  14.7929027  10.0997646  53.7635551
   5.4560012   6.7974997  54.9369988   4.6890012   6.2654997  54.7269988
   6.1350012   6.4874997  54.3369988   5.4427022   6.6827506  54.8271648
   8.1960012   1.4254997  50.9489988   8.0970012   2.3724997  50.8439988
   7.4530012   1.0534997  50.4739988   8.0820564   1.5045902  50.8704560
   9.4600012   5.7474997  54.5129988   9.2240012   5.5274997  55.4149988
   8.6760012   5.5404997  54.0029988   9.3218628   5.6894760  54.5673932
  12.1750012   4.8744997  53.5889988  11.2280012   4.9064997  53.7209988
  12.4880012   4.2494997  54.2419988  12.0875475   4.7943207  53.6954455
  13.8090012   3.5084997  55.5939988  13.7130012   2.5564997  55.5879988
  13.4880012   3.7774997  56.4539988  13.7524070   3.4144035  55.7095441
   3.6360012   4.7184997  54.6409988   3.8480012   4.0114997  54.0309988
   3.5250012   4.2804997  55.4849988   3.6499721   4.5627084  54.6716843
   8.4170012   0.7194997  53.6209988   9.1290012   0.0794997  53.6069988
   8.3160012   0.9864997  52.7069988   8.5007939   0.6679938  53.4955650
   8.7710012   2.4024997  55.6739988   8.6390012   1.9264997  54.8539988
   8.1720012   3.1464997  55.6189988   8.6719071   2.4379618  55.5542886
   8.3170012  19.2854997  38.8509988   9.2500012  19.4434997  38.9939988
   8.0530012  19.9604997  38.2259988   8.4089510  19.3983611  38.7860741
   1.8860012  13.9214997  38.3329988   2.8000012  14.0004997  38.6069988
   1.8930012  13.2344997  37.6669988   2.0121131  13.8393961  38.2804393
   0.5350012  19.3144997  43.4109988  -0.1119988  18.8524997  42.8779988
   0.8890012  18.6424997  43.9929988   0.4943849  19.1604723  43.4167959
   1.4050012  17.3954997  45.2149988   1.0700012  16.5154997  45.3869988
   1.6270012  17.7404997  46.0799988   1.3891783  17.3217501  45.3554208
  18.9530012  18.2044997  48.1959988  18.9320012  18.3894997  49.1349988
  19.6440012  18.7734997  47.8549988  19.0434618  18.3066606  48.2783864
  18.5170012  17.7724997  51.1179988  18.0290012  17.0364997  50.7469988
  19.0660012  17.3784997  51.7959988  18.5244872  17.6186249  51.1589160
  16.9670012  13.5614997  55.7559988  16.1010012  13.4564997  56.1499988
  17.3440012  14.3204997  56.2019988  16.8993308  13.6496900  55.8702393
  18.2680012  11.8184997  41.2699988  19.1180012  12.2394997  41.3969988
  18.2740012  11.0784997  41.8769988  18.3851372  11.7760803  41.3694344
  18.6630012   9.8714997  43.0939988  17.9360012   9.3924997  43.4909988
  19.2440012  10.0774997  43.8259988  18.6419375   9.8337090  43.2474129
  18.4220012  12.6564997  48.0409988  19.2550012  12.2784997  47.7609988
  18.5340012  13.5994997  47.9219988  18.5512647  12.7322218  47.9865487
  16.9080012  15.5344997  50.3479988  16.2610012  15.8594997  50.9739988
  16.3910012  15.0944997  49.6739988  16.7494029  15.5195004  50.3425827
  18.9310012   9.7724997  39.4849988  18.4090012  10.1294997  38.7659988
  18.8980012  10.4474997  40.1629988  18.8551634   9.9125413  39.4783145
  17.2800012   7.0124997  38.0359988  17.3760012   7.6794997  37.3549988
  17.1400012   6.1964997  37.5539988  17.2742135   6.9934500  37.8778491
  16.4490012   8.3924997  43.6569988  16.2990012   7.4474997  43.6359988
  16.0960012   8.6734997  44.4999988  16.3806625   8.3010441  43.7682346
   1.4850012  10.4704997  47.6669988   1.6690012  10.3884997  46.7309988
   2.3340012  10.3464997  48.0909988   1.6250139  10.4425003  47.5961455
  17.3060012  10.3624997  53.2949988  17.8890012   9.6284997  53.4869988
  17.8700012  11.1344997  53.3419988  17.4619769  10.3664227  53.3276159
  18.8020012   8.2654997  53.9799988  17.9390012   7.8864997  53.8139988
  19.4070012   7.5264997  53.9059988  18.7655979   8.1138023  53.9472817
  16.5270012   4.4204997  37.1529988  17.1380012   4.0494997  37.7899988
  15.6910012   3.9994997  37.3489988  16.4975032   4.3127554  37.2667035
  16.1600012   5.9754997  42.1189988  16.4400012   5.0684997  42.2429988
  16.9190012   6.4094997  41.7299988  16.3009277   5.9100942  42.0833682
  16.7720012   6.5564997  47.5549988  17.7050012   6.7684997  47.5209988
  16.5370012   6.6584997  48.4769988  16.8678036   6.5992769  47.6749976
  16.8010012   7.2934997  50.3309988  15.9580012   7.5614997  50.6969988
  17.2430012   8.1154997  50.1199988  16.7454158   7.4413291  50.3525491
   1.0820012   5.7414997  53.8079988   2.0020012   5.6194997  54.0439988
   0.6330012   4.9914997  54.1969988   1.1471580   5.6233727  53.8929006
  19.0840012   1.2734997  55.6839988  19.4340012   0.6194997  55.0789988
  19.2310012   2.1104997  55.2449988  19.1518419   1.2971591  55.5417118
  16.7730012   3.2384997  42.1669988  16.9560012   2.7894997  42.9929988
  16.1740012   2.6534997  41.7039988  16.7170202   3.0979975  42.2173275
   2.3030012   4.0534997  46.6989988   2.7490012   3.2614997  47.0009988
   2.7700012   4.7694997  47.1299988   2.4270172   4.0420624  46.7984820
   0.6070012   7.0524997  47.7679988   1.0990012   6.8314997  46.9769988
   0.9700012   7.8934997  48.0489988   0.7233126   7.1358357  47.6977531
  18.6040012   3.3824997  54.0339988  17.6860012   3.6534997  53.9979988
  18.7270012   2.8474997  53.2489988  18.4951066   3.3472892  53.9230487
  18.6400012   3.3054997  38.6949988  19.0520012   2.5844997  38.2199988
  19.3220012   3.9754997  38.7539988  18.7885885   3.2972368  38.6378915
   0.9210012   3.3104997  41.8219988  -0.0039988   3.5194997  41.6929988
   1.3750012   3.7944997  41.1329988   0.8557368   3.4045993  41.7111226
  15.6920012  18.2944997  43.7679988  16.3440012  17.9474997  43.1599988
  16.2020012  18.7834997  44.4139988  15.8502637  18.3130597  43.7720236
   0.8850012   2.0484997  50.1669988   0.2200012   1.8024997  50.8099988
   0.4420012   2.6704997  49.5889988   0.7340956   2.0988632  50.1769352
   3.0770012  15.2234997  54.3109988   2.2560012  15.3984997  53.8509988
   2.8240012  15.1504997  55.2319988   2.9306164  15.2375622  54.3724923
   6.0310012  16.1984997  50.5699988   5.6060012  17.0074997  50.2869988
   6.9350012  16.2834997  50.2679988   6.0950271  16.3208469  50.4903776
  10.3420012  17.5974997  53.5289988  10.5270012  17.2634997  54.4069988
  11.1880012  17.9064997  53.2069988  10.4817539  17.5936047  53.6055605
  12.6870012  18.8834997  52.7729988  13.3640012  18.2504997  52.5329988
  13.0090012  19.2844997  53.5799988  12.8231637  18.8511154  52.8492793
  17.6040012   1.4724997  51.8529988  16.7920012   1.7974997  51.4649988
  17.8370012   0.7124997  51.3199988  17.5243423   1.4142436  51.7278253
   3.4330012  19.4544997  50.6169988   2.7120012  19.8944997  50.1659988
   3.0670012  19.2034997  51.4659988   3.2849804  19.4807698  50.6699840
   5.9000012  19.0544997  49.6469988   5.0350012  19.1264997  50.0509988
   5.8450012  19.6014997  48.8629988   5.7742085  19.1382685  49.5963362
  10.6100012  18.9424997  48.8219988  10.1540012  19.4714997  48.1679988
  10.7730012  19.5454997  49.5479988  10.5695585  19.0964468  48.8305062
  12.9380012  17.8204997  49.7669988  12.0330012  17.9854997  49.5019988
  13.3670012  18.6734997  49.7019988  12.8720799  17.9584483  49.7219182
  15.5420012  19.3904997  50.0619988  15.3600012  20.3064997  49.8519988
  15.7190012  18.9804997  49.2159988  15.5410210  19.4604822  49.9187885
   2.8470012  18.0774997  47.5269988   2.8290012  17.6524997  48.3849988
   3.6520012  17.7594997  47.1189988   2.9533875  17.9763812  47.5891655
   4.9890012  16.7874997  46.1819988   4.7700012  15.8714997  46.3519988
   5.8130012  16.9274997  46.6479988   5.0704420  16.6810520  46.2682774
   7.5260012  17.2574997  47.0309988   7.7390012  16.3694997  46.7439988
   7.5900012  17.2234997  47.9849988   7.5638232  17.1313102  47.1207397
  11.0340012   2.9214997  46.1749988  10.3600012   2.2924997  46.4309988
  11.5980012   2.4374997  45.5719988  11.0179230   2.7698744  46.1285340
  16.1770012   1.0294997  46.2879988  16.7810012   1.5764997  45.7859988
  15.3070012   1.3484997  46.0479988  16.1421241   1.1475806  46.1867654
  17.9040012   2.1674997  44.6209988  18.5160012   1.6534997  44.0949988
  18.2860012   3.0454997  44.6449988  18.0394540   2.2157140  44.5521830
   3.3610012   1.5554997  43.9969988   2.5840012   1.3214997  43.4899988
   3.8910012   0.7584997  44.0059988   3.3262330   1.4156988  43.9287742
   2.1970012   1.3534997  39.8009988   2.6360012   1.9644997  39.2089988
   1.5640012   1.8914997  40.2749988   2.1714514   1.5099257  39.7840930
   7.9400012   1.4824997  43.8109988   8.8150012   1.8704997  43.7809988
   7.8040012   1.2674997  44.7329988   8.0413695   1.5065184  43.9316440
  13.4970012   1.5124997  45.4599988  13.5730012   1.6074997  44.5099988
  13.2220012   0.6044997  45.5889988  13.4702321   1.4027867  45.3475079
  14.8500012   1.5384997  41.1519988  14.1480012   2.1534997  40.9429988
  14.4060012   0.7004997  41.2829988  14.6936330   1.5095783  41.1410328
   2.0980012  17.3014997  40.6989988   1.4130012  17.2634997  40.0309988
   2.1020012  18.2144997  40.9869988   2.0048193  17.4197016  40.6465284
   4.0580012   3.2694997  38.2429988   4.5500012   2.6394997  37.7159988
   4.6820012   3.5654997  38.9069988   4.2095446   3.2233199  38.2605980
   9.0840012   3.5624997  40.6999988   9.2620012   2.9164997  41.3829988
   9.0310012   4.3964997  41.1679988   9.1011829   3.5867985  40.8565940
  10.9630012  18.5114997  39.0959988  11.8290012  18.8774997  38.9179988
  10.7160012  18.0714997  38.2819988  11.0482392  18.5021756  38.9616289
  17.6720012  18.0744997  41.7749988  17.4770012  17.3264997  41.2099988
  17.6330012  18.8324997  41.1919988  17.6400380  18.0746099  41.6188384
   3.3190012   2.0694997  53.5149988   2.9530012   1.3044997  53.9579988
   4.2320012   2.0984997  53.8019988   3.3922790   1.9687224  53.6144070
   5.2920012   1.4204997  55.0509988   6.1900012   1.1464997  54.8659988
   4.9050012   0.6774997  55.5149988   5.3626612   1.2825914  55.0883643
   3.9160012  18.2214997  37.7239988   3.6490012  18.5084997  38.5969988
   4.6880012  17.6754997  37.8759988   3.9837488  18.1870294  37.8641050
  13.7130012   0.7524997  55.2329988  13.7900012   0.3264997  56.0869988
  14.6070012   0.7664997  54.8899988  13.8443428   0.6960880  55.3035310
  16.8890012  16.8254997  53.9249988  16.1070012  16.6394997  53.4059988
  16.8170012  17.7544997  54.1429988  16.7721777  16.9256492  53.8834048
  31.2950012  10.7114997  43.9559988  31.3840012  11.6554997  43.8239988
  30.6570012  10.4364997  43.2979988  31.2209081  10.8034830  43.8489614
  30.2280012   9.9664997  47.3749988  30.1900012   9.3204997  48.0799988
  29.9060012   9.5004997  46.6039988  30.1792333   9.8149408  47.3672978
  22.5970012   9.5814997  48.9679988  22.6380012   8.9554997  49.6909988
  23.3000012  10.2054997  49.1499988  22.6976363   9.5801196  49.0916044
  33.9340012  12.9054997  45.6759988  33.4940012  12.1854997  46.1269988
  33.9210012  13.6264997  46.3059988  33.8720226  12.9043731  45.8228494
  23.5200012  14.0314997  47.5029988  23.1510012  13.2294997  47.1329988
  24.4610012  13.8624997  47.5489988  23.5967289  13.8990153  47.4586316
  20.1300012   7.6914997  42.8959988  19.6830012   8.5374997  42.8769988
  19.5690012   7.1114997  42.3799988  19.9929900   7.7289916  42.8236801
  20.8410012   9.8534997  45.0219988  21.0540012   9.0834997  45.5489988
  21.5790012   9.9424997  44.4179988  20.9698496   9.7601394  45.0125300
  31.0460012  18.0104997  45.8889988  31.6660012  17.3334997  45.6149988
  30.8380012  17.7924997  46.7969988  31.1026904  17.8883870  45.9743365
  28.6180012  12.3994997  47.7809988  28.9220012  11.7134997  47.1859988
  29.3390012  12.5174997  48.3989988  28.7570671  12.3216305  47.7831816
  37.2810012   4.0004997  48.6419988  37.3300012   4.6104997  49.3779988
  37.7060012   4.4614997  47.9189988  37.3451824   4.1463741  48.6450205
  31.7590012   6.7934997  48.1089988  31.9010012   5.8474997  48.1289988
  31.6520012   7.0004997  47.1799988  31.7639864   6.6919534  47.9862339
  24.9130012   4.8944997  45.3809988  24.9570012   5.7544997  44.9629988
  24.4560012   4.3424997  44.7469988  24.8572185   4.9375799  45.2380299
  32.6360012   5.0254997  43.7819988  33.2820012   4.6964997  44.4069988
  33.1460012   5.5434997  43.1589988  32.7934264   5.0504611  43.7833862
  21.5340012   7.2914997  46.1429988  22.1870012   6.7414997  46.5749988
  21.5580012   7.0174997  45.2259988  21.6266683   7.1791466  46.0782123
  26.6900012   8.8414997  45.3579988  27.3060012   8.3154997  45.8679988
  26.1040012   8.2014997  44.9549988  26.6950810   8.6829208  45.3733173
  37.6720012   5.4784997  50.8779988  36.9840012   6.1364997  50.7819988
  37.6880012   5.2814997  51.8139988  37.5798525   5.5420462  50.9914808
  23.7240012   3.8124997  49.4549988  23.5050012   4.3424997  48.6889988
  23.0560012   4.0394997  50.1019988  23.6037600   3.9156906  49.4376379
  31.0930012  13.3124997  42.9989988  30.7970012  12.9904997  42.1479988
  30.7680012  14.2124997  43.0399988  31.0086371  13.3900215  42.8881801
  26.2930012  11.4884997  49.7419988  25.5530012  12.0864997  49.8459988
  27.0070012  12.0424997  49.4269988  26.2882237  11.6452831  49.7136465
  34.4000012   4.3164997  45.7619988  34.1840012   3.5504997  46.2949988
  35.0550012   4.7884997  46.2749988  34.4590632   4.2755889  45.9042861
  23.3170012   5.7044997  47.4069988  23.9310012   6.3374997  47.7809988
  23.8290012   5.2324997  46.7509988  23.4702296   5.7272370  47.3694252
  24.7000012  13.4524997  50.5299988  24.6950012  14.3324997  50.1519988
  23.8470012  13.3694997  50.9549988  24.5839464  13.5616117  50.5357907
  20.8210012  13.1234997  41.3119988  20.5490012  13.3524997  40.4229988
  20.8670012  13.9614997  41.7719988  20.7900094  13.2681213  41.2525697
  34.4460012  14.7454997  48.0239988  33.5050012  14.8034997  48.1859988
  34.7230012  15.6514997  47.8869988  34.3544679  14.8759443  48.0276815
  34.7470012   3.0314997  49.4419988  34.0110012   3.6424997  49.4039988
  35.4300012   3.4464997  48.9149988  34.7386541   3.1711374  49.3655832
  27.7500012   1.1184997  46.9079988  27.6330012   0.1694997  46.8529988
  26.8950012   1.4504997  47.1809988  27.6183733   1.0335409  46.9373897
  32.6980012  16.5264997  44.6499988  33.1240012  15.8194997  44.1649988
  33.0150012  17.3274997  44.2329988  32.7991019  16.5380994  44.5273130
  33.8580012  14.4274997  43.1579988  33.6000012  13.7374997  42.5469988
  33.9290012  13.9844997  44.0039988  33.8322856  14.2732124  43.1886885
  35.5440012  12.9934997  51.6359988  35.6840012  12.4024997  50.8959988
  35.7110012  13.8664997  51.2789988  35.5856778  13.0306426  51.4866965
  30.0170012   9.9554997  41.4079988  29.3050012  10.4904997  41.0559988
  30.7080012  10.0114997  40.7479988  30.0130132  10.0362543  41.2706289
  30.0700012   8.4134997  38.4469988  30.7710012   8.4354997  39.0979988
  30.3730012   7.7854997  37.7909988  30.2067830   8.3316566  38.4473711
  37.3860012   9.3334997  49.7019988  36.7330012  10.0284997  49.7909988
  37.8510012   9.5434997  48.8919988  37.3595390   9.4569425  49.6046883
  33.4220012  10.1654997  42.3599988  32.6900012  10.3934997  42.9329988
  33.8700012   9.4514997  42.8149988  33.3823095  10.1002571  42.4999119
  33.3200012   8.3394997  51.4269988  33.4000012   9.1024997  51.9989988
  32.7180012   8.6184997  50.7369988  33.2495756   8.4817134  51.4120589
  25.0680012  10.7954997  44.2419988  24.7370012  10.4254997  43.4239988
  25.6560012  10.1254997  44.5889988  25.1021873  10.6541156  44.1768102
  26.4340012  14.2234997  46.9239988  26.3400012  13.6454997  46.1669988
  27.1640012  13.8524997  47.4199988  26.5197981  14.0942390  46.8874165
  25.4340012   9.5644997  47.8759988  26.0000012   9.6854997  47.1129988
  25.7530012  10.2014997  48.5149988  25.5545786   9.6671884  47.8580040
  31.7430012  15.0674997  48.6099988  31.5030012  15.7294997  49.2579988
  31.5450012  14.2334997  49.0349988  31.6833808  15.0453134  48.7561524
  26.3140012  13.9634997  52.5929988  26.0030012  14.7454997  53.0479988
  25.6640012  13.8104997  51.9069988  26.1835558  14.0499105  52.5625871
  32.2930012   9.3274997  40.0449988  32.8730012   9.4774997  40.7919988
  32.7070012   9.7984997  39.3219988  32.4282830   9.4116841  40.0494134
  23.2340012  10.1614997  51.8219988  23.3050012  10.8124997  52.5199988
  22.3440012  10.2644997  51.4869988  23.1233117  10.2645936  51.8722700
  30.0200012  16.0644997  43.4799988  30.4940012  16.3594997  44.2579988
  29.4570012  16.8024997  43.2469988  30.0087653  16.2046932  43.5550136
  24.5540012  16.0354997  53.3559988  24.5610012  15.8994997  52.4089988
  23.6380012  15.9174997  53.6079988  24.4311714  16.0009430  53.2604666
  35.9920012   1.0774997  39.8579988  35.0920012   1.2164997  40.1529988
  36.2440012   1.9084997  39.4559988  35.9028702   1.2089074  39.8440205
  24.0580012   9.8654997  41.8319988  23.7660012  10.6334997  41.3409988
  23.3840012   9.2054997  41.6689988  23.9269081   9.8814406  41.7427340
  37.1810012  15.4434997  38.2339988  37.2550012  16.3824997  38.4049988
  38.0870012  15.1384997  38.1779988  37.3135100  15.5306722  38.2498119
  20.1510012  12.2284997  50.6469988  19.6500012  12.2004997  49.8319988
  20.1560012  11.3224997  50.9559988  20.0831526  12.1022278  50.5772872
  19.9010012  15.0084997  47.5309988  20.8470012  14.8644997  47.5119988
  19.7890012  15.7924997  48.0679988  20.0152727  15.0948046  47.6010072
  38.0990012  15.6744997  53.2129988  38.0500012  14.7194997  53.1759988
  37.2720012  15.9424997  53.6139988  37.9804940  15.5798998  53.2621375
  29.0780012  15.2484997  52.0889988  29.1650012  16.0744997  52.5639988
  28.2140012  14.9184997  52.3379988  28.9731964  15.3169878  52.1876549
  29.4920012  19.0204997  41.8949988  29.4170012  18.8994997  40.9489988
  29.5250012  19.9704997  42.0139988  29.4861848  19.1322500  41.7814834
  23.1450012  17.8094997  43.6759988  23.2980012  17.4614997  44.5549988
  22.2950012  17.4534997  43.4209988  23.0508962  17.7136650  43.7618340
  32.5940012  18.1744997  38.8969988  32.9690012  17.4304997  38.4269988
  32.5980012  17.9044997  39.8159988  32.6458915  18.0361486  38.9567824
  32.2630012  18.1004997  41.6469988  31.3270012  18.2004997  41.8249988
  32.5430012  17.3914997  42.2249988  32.1728255  18.0182711  41.7495391
  35.2510012   7.1674997  53.6929988  34.8440012   7.6484997  52.9719988
  35.2920012   6.2624997  53.3849988  35.2008437   7.1109374  53.5526683
  22.4000012  13.5514997  51.6899988  22.6160012  13.1904997  52.5489988
  21.5450012  13.1774997  51.4799988  22.3139292  13.4514111  51.7793386
  25.0190012   2.0214997  47.6849988  24.1570012   1.9344997  47.2779988
  24.9960012   2.8774997  48.1129988  24.8980330   2.1252765  47.6871863
  29.6820012   1.7434997  51.0599988  30.1020012   1.3284997  51.8129988
  28.7490012   1.5654997  51.1769988  29.6133644   1.6625900  51.1789539
  33.0080012   5.4994997  51.9129988  32.4940012   5.3734997  52.7109988
  32.8530012   6.4114997  51.6689988  32.9166852   5.6056132  51.9892158
  33.7710012  10.3604997  37.6749988  33.8130012  10.1374997  36.7449988
  34.6200012  10.7594997  37.8649988  33.8915396  10.3839155  37.5733627
  29.3430012   4.2364997  38.3449988  29.0900012   4.2554997  39.2679988
  29.0870012   3.3644997  38.0439988  29.2737790   4.1212437  38.4306263
  25.1100012   6.9874997  48.7799988  24.4680012   6.9464997  49.4889988
  25.1470012   7.9134997  48.5429988  25.0271324   7.1071559  48.8449824
  25.1070012   7.2084997  43.6919988  24.2140012   6.8674997  43.6339988
  25.5570012   6.8314997  42.9369988  25.0457305   7.1108484  43.5819177
  30.6420012   7.6244997  42.5089988  30.2330012   8.4394997  42.2179988
  31.3630012   7.4844997  41.8949988  30.6834537   7.7172018  42.3861342
  29.7440012   7.7994997  53.9969988  29.1820012   7.0954997  54.3179988
  30.5710012   7.6794997  54.4649988  29.7787095   7.6867883  54.1042330
  31.6470012   7.0704997  45.3229988  31.4520012   7.6754997  44.6079988
  31.8280012   6.2364997  44.8889988  31.6447614   7.0406300  45.1664405
  22.8600012   7.3074997  50.6469988  22.8220012   7.7074997  51.5159988
  22.3690012   6.4904997  50.7379988  22.7884684   7.2518069  50.7781059
  26.2260012   4.6814997  37.4459988  25.7950012   4.2364997  38.1759988
  25.5080012   5.0534997  36.9339988  26.0699438   4.6708940  37.4766799
  19.4680012   4.4234997  44.4979988  20.0990012   4.3944997  45.2169988
  19.9170012   3.9984997  43.7679988  19.6150774   4.3620492  44.4976553
  20.7420012   5.1694997  39.9219988  21.2160012   5.7604997  39.3369988
  20.0250012   5.7004997  40.2689988  20.7099341   5.3220867  39.8888836
  30.9110012   8.7084997  49.9949988  31.2340012   8.0774997  49.3519988
  30.4710012   8.1734997  50.6549988  30.8956895   8.5498441  49.9962850
  27.6880012   4.6354997  44.7789988  26.7770012   4.6924997  45.0669988
  28.1940012   4.5754997  45.5889988  27.6315413   4.6351985  44.9280622
  22.5170012   6.2644997  43.6049988  21.6270012   6.3644997  43.2649988
  22.8130012   5.4224997  43.2589988  22.4352823   6.1643545  43.5117213
  26.1700012   6.2644997  41.2619988  27.1010012   6.3934997  41.4399988
  25.9550012   6.9344997  40.6119988  26.2684247   6.3726565  41.1985747
  32.0930012   3.8704997  48.0429988  31.4170012   4.0014997  48.7069988
  31.6080012   3.7154997  47.2329988  31.9347145   3.8674905  48.0244517
  24.8440012   7.4594997  38.8289988  24.3010012   7.0794997  38.1369988
  25.6770012   7.6534997  38.3999988  24.8824399   7.4338124  38.6764526
  35.3810012  19.5424997  54.3199988  35.5810012  19.9664997  53.4849988
  36.0360012  19.8854997  54.9269988  35.4970051  19.6469648  54.2877836
  22.9790012  12.0164997  53.9279988  23.7110012  12.2704997  54.4889988
  22.1990012  12.2204997  54.4429988  22.9738232  12.0789177  54.0745760
  29.0080012   7.4234997  46.6659988  29.5730012   6.8764997  46.1189988
  28.8610012   6.9014997  47.4539988  29.0652918   7.2782024  46.6978454
  24.0100012   3.5594997  43.0839988  23.6930012   2.6574997  43.0489988
  24.7920012   3.5614997  42.5309988  24.0722284   3.4361628  43.0044783
  27.6350012   5.8114997  49.0799988  26.7990012   6.2654997  49.1899988
  28.1590012   6.0874997  49.8319988  27.5914414   5.9109376  49.1967136
  28.1790012  12.0244997  40.7639988  27.4340012  11.5174997  40.4419988
  28.0450012  12.0734997  41.7109988  28.0588776  11.9616940  40.8478647
  35.3290012  11.1574997  49.5509988  35.9710012  11.6144997  49.0069988
  34.4990012  11.2704997  49.0879988  35.3045963  11.2352704  49.4140177
  32.0770012   4.8384997  38.9639988  31.1380012   4.9504997  38.8119988
  32.3740012   5.6954997  39.2699988  31.9887666   4.9696443  38.9845768
  29.6980012  12.2084997  52.0009988  29.3530012  11.8274997  52.8079988
  29.4980012  13.1424997  52.0729988  29.6238061  12.2825228  52.1210961
  32.7950012   6.7054997  40.6239988  33.6870012   6.5684997  40.9429988
  32.8520012   7.4964997  40.0879988  32.9246285   6.7936660  40.5951691
  23.3040012  11.3194997  46.5339988  24.0490012  11.3174997  45.9329988
  23.3820012  10.4964997  47.0159988  23.4165518  11.2079315  46.5168929
  30.3050012  13.4834997  39.7899988  30.0090012  14.3094997  40.1709988
  29.6020012  12.8634997  39.9859988  30.1694914  13.5128199  39.8686443
  20.3120012   9.7804997  51.8489988  20.5350012   9.3624997  52.6809988
  19.7100012   9.1674997  51.4259988  20.2611759   9.6404668  51.9057022
  27.3280012   9.2974997  54.0619988  27.0320012   9.1314997  53.1669988
  28.2600012   9.0774997  54.0509988  27.4134166   9.2450640  53.9380536
  31.9490012  14.6704997  51.9519988  31.0480012  14.8534997  51.6839988
  31.9830012  14.9294997  52.8729988  31.8303041  14.7305512  52.0398197
  37.6800012   6.9154997  40.3189988  37.1260012   6.5194997  39.6469988
  37.7800012   7.8254997  40.0409988  37.6177059   6.9843586  40.1894401
  37.6430012  12.7154997  53.1559988  36.7920012  12.9534997  52.7889988
  38.2340012  12.6984997  52.4029988  37.6062487  12.7458258  53.0038893
  35.9750012  15.7014997  40.7839988  35.6020012  14.8754997  41.0929988
  36.2530012  15.5184997  39.8869988  35.9615630  15.5637303  40.7049626
  33.1360012  10.5094997  47.8049988  32.2070012  10.2774997  47.7779988
  33.5870012   9.7324997  47.4749988  33.0699216  10.3727238  47.7566917
  25.6790012  14.8374997  43.9379988  26.2060012  15.6104997  43.7379988
  24.7990012  15.0624997  43.6369988  25.6321773  14.9738005  43.8699010
  21.4340012   9.6994997  38.5249988  22.0500012  10.3264997  38.9049988
  20.5720012  10.0154997  38.7969988  21.4017698   9.8279430  38.6137183
  27.1060012  12.5004997  43.5149988  26.8650012  13.4254997  43.5559988
  26.3650012  12.0414997  43.9109988  26.9728409  12.5651421  43.5741377
  27.6210012  16.6494997  49.8299988  27.9830012  17.5044997  49.5959988
  28.1520012  16.3574997  50.5699988  27.7424473  16.7271060  49.8980855
  25.7890012  17.5224997  43.0599988  24.8390012  17.6274997  43.1109988
  26.1410012  18.3424997  43.4049988  25.7064203  17.6478314  43.1136650
  31.1650012  12.7484997  49.5299988  30.7390012  12.5214997  50.3569988
  31.7450012  12.0104997  49.3479988  31.1851868  12.6175299  49.6185830
  33.3680012  13.6774997  38.6039988  33.7210012  13.2974997  39.4089988
  32.4190012  13.5844997  38.6909988  33.2880441  13.6129596  38.7258559
  33.8230012  17.3004997  51.9999988  33.2220012  16.7454997  51.5039988
  34.1050012  17.9674997  51.3739988  33.7788519  17.3146841  51.8474952
  37.8710012  18.1574997  38.8049988  38.6150012  18.7434997  38.6649988
  37.1770012  18.7254997  39.1389988  37.8790292  18.3145582  38.8309961
  21.9460012   4.5334997  51.4069988  21.0530012   4.8724997  51.3389988
  21.8470012   3.6784997  51.8249988  21.8104164   4.4642588  51.4542235
  34.2340012  12.3504997  40.8309988  33.9560012  11.6224997  41.3869988
  35.1610012  12.4694997  41.0359988  34.3213124  12.2668802  40.9348845
  21.5970012  16.3384997  49.8419988  21.8140012  15.4064997  49.8109988
  21.8430012  16.6124997  50.7249988  21.6599549  16.2480636  49.9571763
  27.4590012  14.7894997  37.0509988  27.6980012  14.0414997  36.5039988
  27.1900012  14.4014997  37.8839988  27.4553675  14.6346638  37.0886865
  26.3960012  14.3594997  39.5079988  26.5420012  13.8394997  40.2979988
  26.3930012  15.2664997  39.8139988  26.4155989  14.4108853  39.6576088
  22.8490012  11.6124997  40.0179988  22.1630012  11.9644997  40.5849988
  23.3710012  12.3754997  39.7709988  22.8256852  11.7638578  40.0622118
  30.6800012   4.2744997  50.2969988  31.3790012   4.3484997  50.9469988
  30.2990012   3.4104997  50.4509988  30.7241767   4.1677624  50.4068322
  31.4650012   3.9264997  41.3939988  31.6850012   4.3984997  40.5909988
  32.0230012   4.3214997  42.0639988  31.5704968   4.0444285  41.3747331
  29.1330012  16.0574997  40.2569988  28.3170012  16.5544997  40.3089988
  29.6630012  16.5324997  39.6169988  29.0929161  16.1897722  40.1775956
  28.6650012   5.6544997  42.2289988  29.4770012   6.1594997  42.2749988
  28.4200012   5.5094997  43.1429988  28.7430520   5.7040375  42.3588517
  29.2000012   6.6404997  51.4139988  29.3190012   7.2144997  52.1709988
  29.8560012   5.9524997  51.5279988  29.3049757   6.6261079  51.5330825
  29.5480012   2.7354997  43.1669988  29.2020012   3.3534997  43.8119988
  30.2070012   3.2364997  42.6859988  29.5897826   2.8875802  43.1900971
  26.4720012  17.1014997  40.2389988  26.6320012  17.9004997  39.7379988
  26.2740012  17.4074997  41.1239988  26.4671649  17.2524469  40.2899815
  25.2060012   3.7984997  39.8539988  25.1230012   4.6874997  40.2009988
  26.0960012   3.5334997  40.0859988  25.3149469   3.8841430  39.9327626
  35.4050012   4.5474997  52.2489988  34.4880012   4.8104997  52.1609988
  35.7400012   4.5444997  51.3519988  35.3249900   4.5830224  52.1157919
  34.0070012   8.2984997  46.3439988  33.2090012   7.8834997  46.0159988
  34.4520012   7.6074997  46.8349988  33.9579885   8.1483543  46.3654889
  23.4650012  14.2264997  38.9149988  24.0570012  14.9254997  39.1909988
  23.9240012  13.7934997  38.1949988  23.6081142  14.2637049  38.8554830
  21.7810012   6.8904997  38.0309988  21.7360012   7.8294997  38.2089988
  20.8930012   6.6544997  37.7609988  21.6548574   6.9871892  38.0188912
  35.0930012  17.5544997  47.9669988  34.9380012  18.2324997  47.3099988
  36.0260012  17.6264997  48.1699988  35.1978500  17.6570170  47.9045119
  22.5890012   1.6724997  46.7039988  22.3600012   1.7314997  45.7759988
  22.1460012   0.8804997  47.0099988  22.4978530   1.5735753  46.6184786
  21.5190012  15.6124997  42.8639988  20.6870012  16.0854997  42.8919988
  22.0650012  16.1224997  42.2659988  21.4789739  15.7461871  42.7869716
  20.8070012  18.2254997  54.1939988  21.3480012  18.0084997  54.9539988
  20.3260012  17.4194997  54.0049988  20.8159345  18.0869514  54.2723076
  25.4050012  17.1444997  55.8149988  26.1720012  16.6854997  56.1559988
  25.3830012  16.9184997  54.8849988  25.5071434  17.0510409  55.7360043
  29.4970012  16.6524997  37.1899988  28.8530012  16.0214997  37.5109988
  30.2590012  16.1214997  36.9579988  29.5118077  16.4942920  37.2026011
  31.9820012  15.5244997  54.5439988  31.6310012  14.6684997  54.7869988
  32.7080012  15.6674997  55.1509988  32.0320769  15.4265636  54.6593619
  34.1010012  16.4694997  37.4239988  34.3840012  15.6754997  37.8759988
  34.8410012  16.7024997  36.8629988  34.2397486  16.3922803  37.4100698
  20.7140012  12.0354997  55.1489988  20.8580012  11.1334997  54.8619988
  19.9420012  12.3214997  54.6609988  20.6293323  11.9508261  55.0437881
  25.0560012  12.3794997  37.2809988  25.1200012  11.5854997  37.8119988
  25.7090012  12.2604997  36.5909988  25.1530241  12.2547148  37.2604317
  27.3700012  12.0054997  54.5809988  27.0410012  12.2764997  53.7239988
  27.5220012  11.0644997  54.4939988  27.3454809  11.9153862  54.4518244
  30.4080012  13.4264997  37.0169988  30.1390012  13.6064997  37.9179988
  30.2020012  12.5004997  36.8859988  30.3433825  13.3260152  37.1225214
  33.1040012  11.9214997  51.9649988  33.8500012  12.5094997  51.8449988
  32.3470012  12.5034997  52.0279988  33.1037554  12.0807011  51.9570907
  21.5470012   9.2354997  54.5689988  21.9550012   8.3784997  54.4479988
  21.2870012   9.2504997  55.4899988  21.5677568   9.1200807  54.6769588
  26.2050012  10.3514997  39.5869988  25.7450012   9.8674997  40.2729988
  26.4600012   9.6834997  38.9509988  26.1764902  10.1948731  39.5949334
  25.4940012   8.2444997  51.9429988  24.8760012   8.9194997  52.2229988
  25.8380012   8.5654997  51.1099988  25.4559615   8.3802721  51.8686581
  27.2760012   8.5944997  37.8489988  27.0960012   8.4404997  36.9219988
  28.2260012   8.7024997  37.8939988  27.3797776   8.5880175  37.7281843
  30.5140012  10.7164997  55.2199988  31.4670012  10.7994997  55.1929988
  30.3530012  10.0044997  55.8399988  30.6226426  10.6316746  55.3000579
  36.6660012  10.9494997  37.2949988  36.3920012  10.5244997  36.4819988
  36.7050012  11.8804997  37.0779988  36.6337699  11.0172484  37.1543610
  25.8330012   5.5994997  53.0249988  25.9830012   4.8704997  52.4229988
  25.8360012   6.3764997  52.4659988  25.8539302   5.6047851  52.8670692
  26.2460012   3.9694997  50.5179988  26.7820012   4.4204997  49.8659988
  25.3940012   3.8614997  50.0949988  26.2042178   4.0166390  50.3715756
  27.8280012   9.4084997  50.7569988  28.5780012   9.2524997  50.1839988
  27.4890012  10.2604997  50.4819988  27.8848921   9.5022968  50.6413561
  32.2430012   7.2234997  55.7859988  32.4360012   6.2924997  55.6739988
  33.1010012   7.6484997  55.7759988  32.3853020   7.1536389  55.7693361
  33.5600012  10.0124997  53.8629988  33.2790012  10.7214997  53.2859988
  34.5030012   9.9394997  53.7119988  33.6489027  10.0997646  53.7635551
  24.3120012   6.7974997  54.9369988  23.5450012   6.2654997  54.7269988
  24.9910012   6.4874997  54.3369988  24.2987022   6.6827506  54.8271648
  27.0520012   1.4254997  50.9489988  26.9530012   2.3724997  50.8439988
  26.3090012   1.0534997  50.4739988  26.9380563   1.5045902  50.8704560
  28.3160012   5.7474997  54.5129988  28.0800012   5.5274997  55.4149988
  27.5320012   5.5404997  54.0029988  28.1778628   5.6894760  54.5673932
  31.0310012   4.8744997  53.5889988  30.0840012   4.9064997  53.7209988
  31.3440012   4.2494997  54.2419988  30.9435475   4.7943207  53.6954455
  32.6650012   3.5084997  55.5939988  32.5690012   2.5564997  55.5879988
  32.3440012   3.7774997  56.4539988  32.6084070   3.4144035  55.7095441
  22.4920012   4.7184997  54.6409988  22.7040012   4.0114997  54.0309988
  22.3810012   4.2804997  55.4849988  22.5059721   4.5627084  54.6716843
  27.2730012   0.7194997  53.6209988  27.9850012   0.0794997  53.6069988
  27.1720012   0.9864997  52.7069988  27.3567939   0.6679938  53.4955650
  27.6270012   2.4024997  55.6739988  27.4950012   1.9264997  54.8539988
  27.0280012   3.1464997  55.6189988  27.5279071   2.4379618  55.5542886
  27.1730012  19.2854997  38.8509988  28.1060012  19.4434997  38.9939988
  26.9090012  19.9604997  38.2259988  27.2649510  19.3983611  38.7860741
  20.7420012  13.9214997  38.3329988  21.6560012  14.0004997  38.6069988
  20.7490012  13.2344997  37.6669988  20.8681131  13.8393961  38.2804393
  19.3910012  19.3144997  43.4109988  18.7440012  18.8524997  42.8779988
  19.7450012  18.6424997  43.9929988  19.3503849  19.1604723  43.4167959
  20.2610012  17.3954997  45.2149988  19.9260012  16.5154997  45.3869988
  20.4830012  17.7404997  46.0799988  20.2451783  17.3217500  45.3554208
  37.8090012  18.2044997  48.1959988  37.7880012  18.3894997  49.1349988
  38.5000012  18.7734997  47.8549988  37.8994618  18.3066606  48.2783864
  37.3730012  17.7724997  51.1179988  36.8850012  17.0364997  50.7469988
  37.9220012  17.3784997  51.7959988  37.3804872  17.6186249  51.1589160
  35.8230012  13.5614997  55.7559988  34.9570012  13.4564997  56.1499988
  36.2000012  14.3204997  56.2019988  35.7553308  13.6496900  55.8702393
  37.1240012  11.8184997  41.2699988  37.9740012  12.2394997  41.3969988
  37.1300012  11.0784997  41.8769988  37.2411372  11.7760803  41.3694344
  37.5190012   9.8714997  43.0939988  36.7920012   9.3924997  43.4909988
  38.1000012  10.0774997  43.8259988  37.4979375   9.8337090  43.2474129
  37.2780012  12.6564997  48.0409988  38.1110012  12.2784997  47.7609988
  37.3900012  13.5994997  47.9219988  37.4072647  12.7322218  47.9865487
  35.7640012  15.5344997  50.3479988  35.1170012  15.8594997  50.9739988
  35.2470012  15.0944997  49.6739988  35.6054029  15.5195004  50.3425827
  37.7870012   9.7724997  39.4849988  37.2650012  10.1294997  38.7659988
  37.7540012  10.4474997  40.1629988  37.7111634   9.9125413  39.4783145
  36.1360012   7.0124997  38.0359988  36.2320012   7.6794997  37.3549988
  35.9960012   6.1964997  37.5539988  36.1302135   6.9934500  37.8778491
  35.3050012   8.3924997  43.6569988  35.1550012   7.4474997  43.6359988
  34.9520012   8.6734997  44.4999988  35.2366625   8.3010441  43.7682346
  20.3410012  10.4704997  47.6669988  20.5250012  10.3884997  46.7309988
  21.1900012  10.3464997  48.0909988  20.4810139  10.4425003  47.5961455
  36.1620012  10.3624997  53.2949988  36.7450012   9.6284997  53.4869988
  36.7260012  11.1344997  53.3419988  36.3179769  10.3664227  53.3276159
  37.6580012   8.2654997  53.9799988  36.7950012   7.8864997  53.8139988
  38.2630012   7.5264997  53.9059988  37.6215979   8.1138023  53.9472817
  35.3830012   4.4204997  37.1529988  35.9940012   4.0494997  37.7899988
  34.5470012   3.9994997  37.3489988  35.3535032   4.3127554  37.2667035
  35.0160012   5.9754997  42.1189988  35.2960012   5.0684997  42.2429988
  35.7750012   6.4094997  41.7299988  35.1569277   5.9100942  42.0833682
  35.6280012   6.5564997  47.5549988  36.5610012   6.7684997  47.5209988
  35.3930012   6.6584997  48.4769988  35.7238036   6.5992769  47.6749976
  35.6570012   7.2934997  50.3309988  34.8140012   7.5614997  50.6969988
  36.0990012   8.1154997  50.1199988  35.6014158   7.4413291  50.3525491
  19.9380012   5.7414997  53.8079988  20.8580012   5.6194997  54.0439988
  19.4890012   4.9914997  54.1969988  20.0031580   5.6233727  53.8929006
  37.9400012   1.2734997  55.6839988  38.2900012   0.6194997  55.0789988
  38.0870012   2.1104997  55.2449988  38.0078419   1.2971591  55.5417118
  35.6290012   3.2384997  42.1669988  35.8120012   2.7894997  42.9929988
  35.0300012   2.6534997  41.7039988  35.5730202   3.0979975  42.2173275
  21.1590012   4.0534997  46.6989988  21.6050012   3.2614997  47.0009988
  21.6260012   4.7694997  47.1299988  21.2830172   4.0420624  46.7984820
  19.4630012   7.0524997  47.7679988  19.9550012   6.8314997  46.9769988
  19.8260012   7.8934997  48.0489988  19.5793126   7.1358357  47.6977531
  37.4600012   3.3824997  54.0339988  36.5420012   3.6534997  53.9979988
  37.5830012   2.8474997  53.2489988  37.3511066   3.3472892  53.9230487
  37.4960012   3.3054997  38.6949988  37.9080012   2.5844997  38.2199988
  38.1780012   3.9754997  38.7539988  37.6445885   3.2972368  38.6378915
  19.7770012   3.3104997  41.8219988  18.8520012   3.5194997  41.6929988
  20.2310012   3.7944997  41.1329988  19.7117368   3.4045993  41.7111226
  34.5480012  18.2944997  43.7679988  35.2000012  17.9474997  43.1599988
  35.0580012  18.7834997  44.4139988  34.7062637  18.3130597  43.7720236
  19.7410012   2.0484997  50.1669988  19.0760012   1.8024997  50.8099988
  19.2980012   2.6704997  49.5889988  19.5900956   2.0988632  50.1769352
  21.9330012  15.2234997  54.3109988  21.1120012  15.3984997  53.8509988
  21.6800012  15.1504997  55.2319988  21.7866164  15.2375622  54.3724923
  24.8870012  16.1984997  50.5699988  24.4620012  17.0074997  50.2869988
  25.7910012  16.2834997  50.2679988  24.9510271  16.3208469  50.4903776
  29.1980012  17.5974997  53.5289988  29.3830012  17.2634997  54.4069988
  30.0440012  17.9064997  53.2069988  29.3377539  17.5936047  53.6055605
  31.5430012  18.8834997  52.7729988  32.2200012  18.2504997  52.5329988
  31.8650012  19.2844997  53.5799988  31.6791637  18.8511154  52.8492793
  36.4600012   1.4724997  51.8529988  35.6480012   1.7974997  51.4649988
  36.6930012   0.7124997  51.3199988  36.3803423   1.4142436  51.7278253
  22.2890012  19.4544997  50.6169988  21.5680012  19.8944997  50.1659988
  21.9230012  19.2034997  51.4659988  22.1409804  19.4807698  50.6699840
  24.7560012  19.0544997  49.6469988  23.8910012  19.1264997  50.0509988
  24.7010012  19.6014997  48.8629988  24.6302085  19.1382685  49.5963362
  29.4660012  18.9424997  48.8219988  29.0100012  19.4714997  48.1679988
  29.6290012  19.5454997  49.5479988  29.4255585  19.0964468  48.8305062
  31.7940012  17.8204997  49.7669988  30.8890012  17.9854997  49.5019988
  32.2230012  18.6734997  49.7019988  31.7280799  17.9584483  49.7219182
  34.3980012  19.3904997  50.0619988  34.2160012  20.3064997  49.8519988
  34.5750012  18.9804997  49.2159988  34.3970210  19.4604822  49.9187885
  21.7030012  18.0774997  47.5269988  21.6850012  17.6524997  48.3849988
  22.5080012  17.7594997  47.1189988  21.8093875  17.9763812  47.5891655
  23.8450012  16.7874997  46.1819988  23.6260012  15.8714997  46.3519988
  24.6690012  16.9274997  46.6479988  23.9264420  16.6810520  46.2682774
  26.3820012  17.2574997  47.0309988  26.5950012  16.3694997  46.7439988
  26.4460012  17.2234997  47.9849988  26.4198232  17.1313102  47.1207397
  29.8900012   2.9214997  46.1749988  29.2160012   2.2924997  46.4309988
  30.4540012   2.4374997  45.5719988  29.8739230   2.7698744  46.1285340
  35.0330012   1.0294997  46.2879988  35.6370012   1.5764997  45.7859988
  34.1630012   1.3484997  46.0479988  34.9981241   1.1475806  46.1867654
  36.7600012   2.1674997  44.6209988  37.3720012   1.6534997  44.0949988
  37.1420012   3.0454997  44.6449988  36.8954540   2.2157140  44.5521830
  22.2170012   1.5554997  43.9969988  21.4400012   1.3214997  43.4899988
  22.7470012   0.7584997  44.0059988  22.1822330   1.4156988  43.9287742
  21.0530012   1.3534997  39.8009988  21.4920012   1.9644997  39.2089988
  20.4200012   1.8914997  40.2749988  21.0274514   1.5099257  39.7840930
  26.7960012   1.4824997  43.8109988  27.6710012   1.8704997  43.7809988
  26.6600012   1.2674997  44.7329988  26.8973695   1.5065184  43.9316440
  32.3530012   1.5124997  45.4599988  32.4290012   1.6074997  44.5099988
  32.0780012   0.6044997  45.5889988  32.3262321   1.4027867  45.3475079
  33.7060012   1.5384997  41.1519988  33.0040012   2.1534997  40.9429988
  33.2620012   0.7004997  41.2829988  33.5496330   1.5095783  41.1410328
  20.9540012  17.3014997  40.6989988  20.2690012  17.2634997  40.0309988
  20.9580012  18.2144997  40.9869988  20.8608193  17.4197016  40.6465284
  22.9140012   3.2694997  38.2429988  23.4060012   2.6394997  37.7159988
  23.5380012   3.5654997  38.9069988  23.0655446   3.2233199  38.2605980
  27.9400012   3.5624997  40.6999988  28.1180012   2.9164997  41.3829988
  27.8870012   4.3964997  41.1679988  27.9571829   3.5867985  40.8565940
  29.8190012  18.5114997  39.0959988  30.6850012  18.8774997  38.9179988
  29.5720012  18.0714997  38.2819988  29.9042392  18.5021756  38.9616289
  36.5280012  18.0744997  41.7749988  36.3330012  17.3264997  41.2099988
  36.4890012  18.8324997  41.1919988  36.4960380  18.0746099  41.6188384
  22.1750012   2.0694997  53.5149988  21.8090012   1.3044997  53.9579988
  23.0880012   2.0984997  53.8019988  22.2482790   1.9687224  53.6144070
  24.1480012   1.4204997  55.0509988  25.0460012   1.1464997  54.8659988
  23.7610012   0.6774997  55.5149988  24.2186612   1.2825914  55.0883643
  22.7720012  18.2214997  37.7239988  22.5050012  18.5084997  38.5969988
  23.5440012  17.6754997  37.8759988  22.8397488  18.1870294  37.8641050
  32.5690012   0.7524997  55.2329988  32.6460012   0.3264997  56.0869988
  33.4630012   0.7664997  54.8899988  32.7003428   0.6960880  55.3035310
  35.7450012  16.8254997  53.9249988  34.9630012  16.6394997  53.4059988
  35.6730012  17.7544997  54.1429988  35.6281777  16.9256492  53.8834048
  50.1510012  10.7114997  43.9559988  50.2400012  11.6554997  43.8239988
  49.5130012  10.4364997  43.2979988  50.0769081  10.8034830  43.8489614
  49.0840012   9.9664997  47.3749988  49.0460012   9.3204997  48.0799988
  48.7620012   9.5004997  46.6039988  49.0352333   9.8149408  47.3672978
  41.4530012   9.5814997  48.9679988  41.4940012   8.9554997  49.6909988
  42.1560012  10.2054997  49.1499988  41.5536363   9.5801196  49.0916044
  52.7900012  12.9054997  45.6759988  52.3500012  12.1854997  46.1269988
  52.7770012  13.6264997  46.3059988  52.7280226  12.9043731  45.8228494
  42.3760012  14.0314997  47.5029988  42.0070012  13.2294997  47.1329988
  43.3170012  13.8624997  47.5489988  42.4527289  13.8990153  47.4586316
  38.9860012   7.6914997  42.8959988  38.5390012   8.5374997  42.8769988
  38.4250012   7.1114997  42.3799988  38.8489900   7.7289916  42.8236801
  39.6970012   9.8534997  45.0219988  39.9100012   9.0834997  45.5489988
  40.4350012   9.9424997  44.4179988  39.8258496   9.7601394  45.0125300
  49.9020012  18.0104997  45.8889988  50.5220012  17.3334997  45.6149988
  49.6940012  17.7924997  46.7969988  49.9586904  17.8883870  45.9743365
  47.4740012  12.3994997  47.7809988  47.7780012  11.7134997  47.1859988
  48.1950012  12.5174997  48.3989988  47.6130671  12.3216305  47.7831816
  56.1370012   4.0004997  48.6419988  56.1860012   4.6104997  49.3779988
  56.5620012   4.4614997  47.9189988  56.2011824   4.1463741  48.6450205
  50.6150012   6.7934997  48.1089988  50.7570012   5.8474997  48.1289988
  50.5080012   7.0004997  47.1799988  50.6199864   6.6919534  47.9862339
  43.7690012   4.8944997  45.3809988  43.8130012   5.7544997  44.9629988
  43.3120012   4.3424997  44.7469988  43.7132185   4.9375799  45.2380299
  51.4920012   5.0254997  43.7819988  52.1380012   4.6964997  44.4069988
  52.0020012   5.5434997  43.1589988  51.6494264   5.0504611  43.7833862
  40.3900012   7.2914997  46.1429988  41.0430012   6.7414997  46.5749988
  40.4140012   7.0174997  45.2259988  40.4826683   7.1791466  46.0782123
  45.5460012   8.8414997  45.3579988  46.1620012   8.3154997  45.8679988
  44.9600012   8.2014997  44.9549988  45.5510810   8.6829208  45.3733173
  56.5280012   5.4784997  50.8779988  55.8400012   6.1364997  50.7819988
  56.5440012   5.2814997  51.8139988  56.4358525   5.5420462  50.9914808
  42.5800012   3.8124997  49.4549988  42.3610012   4.3424997  48.6889988
  41.9120012   4.0394997  50.1019988  42.4597600   3.9156906  49.4376379
  49.9490012  13.3124997  42.9989988  49.6530012  12.9904997  42.1479988
  49.6240012  14.2124997  43.0399988  49.8646371  13.3900215  42.8881801
  45.1490012  11.4884997  49.7419988  44.4090012  12.0864997  49.8459988
  45.8630012  12.0424997  49.4269988  45.1442237  11.6452831  49.7136465
  53.2560012   4.3164997  45.7619988  53.0400012   3.5504997  46.2949988
  53.9110012   4.7884997  46.2749988  53.3150632   4.2755889  45.9042861
  42.1730012   5.7044997  47.4069988  42.7870012   6.3374997  47.7809988
  42.6850012   5.2324997  46.7509988  42.3262296   5.7272370  47.3694252
  43.5560012  13.4524997  50.5299988  43.5510012  14.3324997  50.1519988
  42.7030012  13.3694997  50.9549988  43.4399464  13.5616117  50.5357907
  39.6770012  13.1234997  41.3119988  39.4050012  13.3524997  40.4229988
  39.7230012  13.9614997  41.7719988  39.6460094  13.2681213  41.2525697
  53.3020012  14.7454997  48.0239988  52.3610012  14.8034997  48.1859988
  53.5790012  15.6514997  47.8869988  53.2104679  14.8759443  48.0276815
  53.6030012   3.0314997  49.4419988  52.8670012   3.6424997  49.4039988
  54.2860012   3.4464997  48.9149988  53.5946541   3.1711374  49.3655832
  46.6060012   1.1184997  46.9079988  46.4890012   0.1694997  46.8529988
  45.7510012   1.4504997  47.1809988  46.4743733   1.0335409  46.9373897
  51.5540012  16.5264997  44.6499988  51.9800012  15.8194997  44.1649988
  51.8710012  17.3274997  44.2329988  51.6551019  16.5380994  44.5273130
  52.7140012  14.4274997  43.1579988  52.4560012  13.7374997  42.5469988
  52.7850012  13.9844997  44.0039988  52.6882856  14.2732124  43.1886885
  54.4000012  12.9934997  51.6359988  54.5400012  12.4024997  50.8959988
  54.5670012  13.8664997  51.2789988  54.4416778  13.0306426  51.4866965
  48.8730012   9.9554997  41.4079988  48.1610012  10.4904997  41.0559988
  49.5640012  10.0114997  40.7479988  48.8690132  10.0362543  41.2706289
  48.9260012   8.4134997  38.4469988  49.6270012   8.4354997  39.0979988
  49.2290012   7.7854997  37.7909988  49.0627830   8.3316566  38.4473711
  56.2420012   9.3334997  49.7019988  55.5890012  10.0284997  49.7909988
  56.7070012   9.5434997  48.8919988  56.2155390   9.4569425  49.6046883
  52.2780012  10.1654997  42.3599988  51.5460012  10.3934997  42.9329988
  52.7260012   9.4514997  42.8149988  52.2383095  10.1002571  42.4999119
  52.1760012   8.3394997  51.4269988  52.2560012   9.1024997  51.9989988
  51.5740012   8.6184997  50.7369988  52.1055756   8.4817134  51.4120589
  43.9240012  10.7954997  44.2419988  43.5930012  10.4254997  43.4239988
  44.5120012  10.1254997  44.5889988  43.9581873  10.6541156  44.1768102
  45.2900012  14.2234997  46.9239988  45.1960012  13.6454997  46.1669988
  46.0200012  13.8524997  47.4199988  45.3757981  14.0942390  46.8874165
  44.2900012   9.5644997  47.8759988  44.8560012   9.6854997  47.1129988
  44.6090012  10.2014997  48.5149988  44.4105786   9.6671884  47.8580040
  50.5990012  15.0674997  48.6099988  50.3590012  15.7294997  49.2579988
  50.4010012  14.2334997  49.0349988  50.5393808  15.0453134  48.7561524
  45.1700012  13.9634997  52.5929988  44.8590012  14.7454997  53.0479988
  44.5200012  13.8104997  51.9069988  45.0395558  14.0499105  52.5625871
  51.1490012   9.3274997  40.0449988  51.7290012   9.4774997  40.7919988
  51.5630012   9.7984997  39.3219988  51.2842830   9.4116841  40.0494134
  42.0900012  10.1614997  51.8219988  42.1610012  10.8124997  52.5199988
  41.2000012  10.2644997  51.4869988  41.9793117  10.2645936  51.8722700
  48.8760012  16.0644997  43.4799988  49.3500012  16.3594997  44.2579988
  48.3130012  16.8024997  43.2469988  48.8647653  16.2046932  43.5550136
  43.4100012  16.0354997  53.3559988  43.4170012  15.8994997  52.4089988
  42.4940012  15.9174997  53.6079988  43.2871714  16.0009430  53.2604666
  54.8480012   1.0774997  39.8579988  53.9480012   1.2164997  40.1529988
  55.1000012   1.9084997  39.4559988  54.7588702   1.2089074  39.8440205
  42.9140012   9.8654997  41.8319988  42.6220012  10.6334997  41.3409988
  42.2400012   9.2054997  41.6689988  42.7829081   9.8814406  41.7427340
  56.0370012  15.4434997  38.2339988  56.1110012  16.3824997  38.4049988
  56.9430012  15.1384997  38.1779988  56.1695100  15.5306722  38.2498119
  39.0070012  12.2284997  50.6469988  38.5060012  12.2004997  49.8319988
  39.0120012  11.3224997  50.9559988  38.9391526  12.1022278  50.5772872
  38.7570012  15.0084997  47.5309988  39.7030012  14.8644997  47.5119988
  38.6450012  15.7924997  48.0679988  38.8712727  15.0948046  47.6010072
  56.9550012  15.6744997  53.2129988  56.9060012  14.7194997  53.1759988
  56.1280012  15.9424997  53.6139988  56.8364940  15.5798998  53.2621375
  47.9340012  15.2484997  52.0889988  48.0210012  16.0744997  52.5639988
  47.0700012  14.9184997  52.3379988  47.8291964  15.3169878  52.1876549
  48.3480012  19.0204997  41.8949988  48.2730012  18.8994997  40.9489988
  48.3810012  19.9704997  42.0139988  48.3421848  19.1322500  41.7814834
  42.0010012  17.8094997  43.6759988  42.1540012  17.4614997  44.5549988
  41.1510012  17.4534997  43.4209988  41.9068962  17.7136650  43.7618340
  51.4500012  18.1744997  38.8969988  51.8250012  17.4304997  38.4269988
  51.4540012  17.9044997  39.8159988  51.5018915  18.0361486  38.9567824
  51.1190012  18.1004997  41.6469988  50.1830012  18.2004997  41.8249988
  51.3990012  17.3914997  42.2249988  51.0288255  18.0182711  41.7495391
  54.1070012   7.1674997  53.6929988  53.7000012   7.6484997  52.9719988
  54.1480012   6.2624997  53.3849988  54.0568437   7.1109374  53.5526683
  41.2560012  13.5514997  51.6899988  41.4720012  13.1904997  52.5489988
  40.4010012  13.1774997  51.4799988  41.1699292  13.4514111  51.7793386
  43.8750012   2.0214997  47.6849988  43.0130012   1.9344997  47.2779988
  43.8520012   2.8774997  48.1129988  43.7540330   2.1252765  47.6871863
  48.5380012   1.7434997  51.0599988  48.9580012   1.3284997  51.8129988
  47.6050012   1.5654997  51.1769988  48.4693644   1.6625900  51.1789539
  51.8640012   5.4994997  51.9129988  51.3500012   5.3734997  52.7109988
  51.7090012   6.4114997  51.6689988  51.7726852   5.6056132  51.9892158
  52.6270012  10.3604997  37.6749988  52.6690012  10.1374997  36.7449988
  53.4760012  10.7594997  37.8649988  52.7475396  10.3839155  37.5733627
  48.1990012   4.2364997  38.3449988  47.9460012   4.2554997  39.2679988
  47.9430012   3.3644997  38.0439988  48.1297790   4.1212437  38.4306263
  43.9660012   6.9874997  48.7799988  43.3240012   6.9464997  49.4889988
  44.0030012   7.9134997  48.5429988  43.8831324   7.1071559  48.8449824
  43.9630012   7.2084997  43.6919988  43.0700012   6.8674997  43.6339988
  44.4130012   6.8314997  42.9369988  43.9017305   7.1108484  43.5819177
  49.4980012   7.6244997  42.5089988  49.0890012   8.4394997  42.2179988
  50.2190012   7.4844997  41.8949988  49.5394537   7.7172018  42.3861342
  48.6000012   7.7994997  53.9969988  48.0380012   7.0954997  54.3179988
  49.4270012   7.6794997  54.4649988  48.6347095   7.6867883  54.1042330
  50.5030012   7.0704997  45.3229988  50.3080012   7.6754997  44.6079988
  50.6840012   6.2364997  44.8889988  50.5007614   7.0406300  45.1664405
  41.7160012   7.3074997  50.6469988  41.6780012   7.7074997  51.5159988
  41.2250012   6.4904997  50.7379988  41.6444684   7.2518069  50.7781059
  45.0820012   4.6814997  37.4459988  44.6510012   4.2364997  38.1759988
  44.3640012   5.0534997  36.9339988  44.9259438   4.6708940  37.4766799
  38.3240012   4.4234997  44.4979988  38.9550012   4.3944997  45.2169988
  38.7730012   3.9984997  43.7679988  38.4710774   4.3620492  44.4976553
  39.5980012   5.1694997  39.9219988  40.0720012   5.7604997  39.3369988
  38.8810012   5.7004997  40.2689988  39.5659341   5.3220867  39.8888836
  49.7670012   8.7084997  49.9949988  50.0900012   8.0774997  49.3519988
  49.3270012   8.1734997  50.6549988  49.7516895   8.5498441  49.9962850
  46.5440012   4.6354997  44.7789988  45.6330012   4.6924997  45.0669988
  47.0500012   4.5754997  45.5889988  46.4875413   4.6351985  44.9280622
  41.3730012   6.2644997  43.6049988  40.4830012   6.3644997  43.2649988
  41.6690012   5.4224997  43.2589988  41.2912823   6.1643545  43.5117213
  45.0260012   6.2644997  41.2619988  45.9570012   6.3934997  41.4399988
  44.8110012   6.9344997  40.6119988  45.1244247   6.3726565  41.1985747
  50.9490012   3.8704997  48.0429988  50.2730012   4.0014997  48.7069988
  50.4640012   3.7154997  47.2329988  50.7907145   3.8674905  48.0244517
  43.7000012   7.4594997  38.8289988  43.1570012   7.0794997  38.1369988
  44.5330012   7.6534997  38.3999988  43.7384399   7.4338124  38.6764526
  54.2370012  19.5424997  54.3199988  54.4370012  19.9664997  53.4849988
  54.8920012  19.8854997  54.9269988  54.3530051  19.6469648  54.2877836
  41.8350012  12.0164997  53.9279988  42.5670012  12.2704997  54.4889988
  41.0550012  12.2204997  54.4429988  41.8298232  12.0789177  54.0745760
  47.8640012   7.4234997  46.6659988  48.4290012   6.8764997  46.1189988
  47.7170012   6.9014997  47.4539988  47.9212918   7.2782024  46.6978454
  42.8660012   3.5594997  43.0839988  42.5490012   2.6574997  43.0489988
  43.6480012   3.5614997  42.5309988  42.9282284   3.4361628  43.0044783
  46.4910012   5.8114997  49.0799988  45.6550012   6.2654997  49.1899988
  47.0150012   6.0874997  49.8319988  46.4474414   5.9109376  49.1967136
  47.0350012  12.0244997  40.7639988  46.2900012  11.5174997  40.4419988
  46.9010012  12.0734997  41.7109988  46.9148776  11.9616940  40.8478647
  54.1850012  11.1574997  49.5509988  54.8270012  11.6144997  49.0069988
  53.3550012  11.2704997  49.0879988  54.1605963  11.2352704  49.4140177
  50.9330012   4.8384997  38.9639988  49.9940012   4.9504997  38.8119988
  51.2300012   5.6954997  39.2699988  50.8447666   4.9696443  38.9845768
  48.5540012  12.2084997  52.0009988  48.2090012  11.8274997  52.8079988
  48.3540012  13.1424997  52.0729988  48.4798061  12.2825228  52.1210961
  51.6510012   6.7054997  40.6239988  52.5430012   6.5684997  40.9429988
  51.7080012   7.4964997  40.0879988  51.7806285   6.7936660  40.5951691
  42.1600012  11.3194997  46.5339988  42.9050012  11.3174997  45.9329988
  42.2380012  10.4964997  47.0159988  42.2725518  11.2079315  46.5168929
  49.1610012  13.4834997  39.7899988  48.8650012  14.3094997  40.1709988
  48.4580012  12.8634997  39.9859988  49.0254914  13.5128199  39.8686443
  39.1680012   9.7804997  51.8489988  39.3910012   9.3624997  52.6809988
  38.5660012   9.1674997  51.4259988  39.1171759   9.6404668  51.9057022
  46.1840012   9.2974997  54.0619988  45.8880012   9.1314997  53.1669988
  47.1160012   9.0774997  54.0509988  46.2694166   9.2450640  53.9380536
  50.8050012  14.6704997  51.9519988  49.9040012  14.8534997  51.6839988
  50.8390012  14.9294997  52.8729988  50.6863041  14.7305512  52.0398197
  56.5360012   6.9154997  40.3189988  55.9820012   6.5194997  39.6469988
  56.6360012   7.8254997  40.0409988  56.4737059   6.9843586  40.1894401
  56.4990012  12.7154997  53.1559988  55.6480012  12.9534997  52.7889988
  57.0900012  12.6984997  52.4029988  56.4622487  12.7458258  53.0038893
  54.8310012  15.7014997  40.7839988  54.4580012  14.8754997  41.0929988
  55.1090012  15.5184997  39.8869988  54.8175630  15.5637303  40.7049626
  51.9920012  10.5094997  47.8049988  51.0630012  10.2774997  47.7779988
  52.4430012   9.7324997  47.4749988  51.9259216  10.3727238  47.7566917
  44.5350012  14.8374997  43.9379988  45.0620012  15.6104997  43.7379988
  43.6550012  15.0624997  43.6369988  44.4881773  14.9738005  43.8699010
  40.2900012   9.6994997  38.5249988  40.9060012  10.3264997  38.9049988
  39.4280012  10.0154997  38.7969988  40.2577698   9.8279430  38.6137183
  45.9620012  12.5004997  43.5149988  45.7210012  13.4254997  43.5559988
  45.2210012  12.0414997  43.9109988  45.8288409  12.5651421  43.5741377
  46.4770012  16.6494997  49.8299988  46.8390012  17.5044997  49.5959988
  47.0080012  16.3574997  50.5699988  46.5984473  16.7271060  49.8980855
  44.6450012  17.5224997  43.0599988  43.6950012  17.6274997  43.1109988
  44.9970012  18.3424997  43.4049988  44.5624203  17.6478314  43.1136650
  50.0210012  12.7484997  49.5299988  49.5950012  12.5214997  50.3569988
  50.6010012  12.0104997  49.3479988  50.0411868  12.6175299  49.6185830
  52.2240012  13.6774997  38.6039988  52.5770012  13.2974997  39.4089988
  51.2750012  13.5844997  38.6909988  52.1440441  13.6129596  38.7258559
  52.6790012  17.3004997  51.9999988  52.0780012  16.7454997  51.5039988
  52.9610012  17.9674997  51.3739988  52.6348519  17.3146841  51.8474952
  56.7270012  18.1574997  38.8049988  57.4710012  18.7434997  38.6649988
  56.0330012  18.7254997  39.1389988  56.7350292  18.3145582  38.8309961
  40.8020012   4.5334997  51.4069988  39.9090012   4.8724997  51.3389988
  40.7030012   3.6784997  51.8249988  40.6664164   4.4642588  51.4542235
  53.0900012  12.3504997  40.8309988  52.8120012  11.6224997  41.3869988
  54.0170012  12.4694997  41.0359988  53.1773124  12.2668802  40.9348845
  40.4530012  16.3384997  49.8419988  40.6700012  15.4064997  49.8109988
  40.6990012  16.6124997  50.7249988  40.5159549  16.2480636  49.9571763
  46.3150012  14.7894997  37.0509988  46.5540012  14.0414997  36.5039988
  46.0460012  14.4014997  37.8839988  46.3113675  14.6346638  37.0886865
  45.2520012  14.3594997  39.5079988  45.3980012  13.8394997  40.2979988
  45.2490012  15.2664997  39.8139988  45.2715989  14.4108853  39.6576088
  41.7050012  11.6124997  40.0179988  41.0190012  11.9644997  40.5849988
  42.2270012  12.3754997  39.7709988  41.6816852  11.7638578  40.0622118
  49.5360012   4.2744997  50.2969988  50.2350012   4.3484997  50.9469988
  49.1550012   3.4104997  50.4509988  49.5801767   4.1677624  50.4068322
  50.3210012   3.9264997  41.3939988  50.5410012   4.3984997  40.5909988
  50.8790012   4.3214997  42.0639988  50.4264968   4.0444285  41.3747331
  47.9890012  16.0574997  40.2569988  47.1730012  16.5544997  40.3089988
  48.5190012  16.5324997  39.6169988  47.9489161  16.1897722  40.1775956
  47.5210012   5.6544997  42.2289988  48.3330012   6.1594997  42.2749988
  47.2760012   5.5094997  43.1429988  47.5990520   5.7040375  42.3588517
  48.0560012   6.6404997  51.4139988  48.1750012   7.2144997  52.1709988
  48.7120012   5.9524997  51.5279988  48.1609757   6.6261079  51.5330825
  48.4040012   2.7354997  43.1669988  48.0580012   3.3534997  43.8119988
  49.0630012   3.2364997  42.6859988  48.4457826   2.8875802  43.1900971
  45.3280012  17.1014997  40.2389988  45.4880012  17.9004997  39.7379988
  45.1300012  17.4074997  41.1239988  45.3231649  17.2524469  40.2899815
  44.0620012   3.7984997  39.8539988  43.9790012   4.6874997  40.2009988
  44.9520012   3.5334997  40.0859988  44.1709469   3.8841430  39.9327626
  54.2610012   4.5474997  52.2489988  53.3440012   4.8104997  52.1609988
  54.5960012   4.5444997  51.3519988  54.1809900   4.5830224  52.1157919
  52.8630012   8.2984997  46.3439988  52.0650012   7.8834997  46.0159988
  53.3080012   7.6074997  46.8349988  52.8139885   8.1483543  46.3654889
  42.3210012  14.2264997  38.9149988  42.9130012  14.9254997  39.1909988
  42.7800012  13.7934997  38.1949988  42.4641142  14.2637049  38.8554830
  40.6370012   6.8904997  38.0309988  40.5920012   7.8294997  38.2089988
  39.7490012   6.6544997  37.7609988  40.5108574   6.9871892  38.0188912
  53.9490012  17.5544997  47.9669988  53.7940012  18.2324997  47.3099988
  54.8820012  17.6264997  48.1699988  54.0538500  17.6570170  47.9045119
  41.4450012   1.6724997  46.7039988  41.2160012   1.7314997  45.7759988
  41.0020012   0.8804997  47.0099988  41.3538530   1.5735753  46.6184786
  40.3750012  15.6124997  42.8639988  39.5430012  16.0854997  42.8919988
  40.9210012  16.1224997  42.2659988  40.3349739  15.7461871  42.7869716
  39.6630012  18.2254997  54.1939988  40.2040012  18.0084997  54.9539988
  39.1820012  17.4194997  54.0049988  39.6719345  18.0869514  54.2723076
  44.2610012  17.1444997  55.8149988  45.0280012  16.6854997  56.1559988
  44.2390012  16.9184997  54.8849988  44.3631434  17.0510409  55.7360043
  48.3530012  16.6524997  37.1899988  47.7090012  16.0214997  37.5109988
  49.1150012  16.1214997  36.9579988  48.3678077  16.4942920  37.2026011
  50.8380012  15.5244997  54.5439988  50.4870012  14.6684997  54.7869988
  51.5640012  15.6674997  55.1509988  50.8880769  15.4265636  54.6593619
  52.9570012  16.4694997  37.4239988  53.2400012  15.6754997  37.8759988
  53.6970012  16.7024997  36.8629988  53.0957486  16.3922803  37.4100698
  39.5700012  12.0354997  55.1489988  39.7140012  11.1334997  54.8619988
  38.7980012  12.3214997  54.6609988  39.4853323  11.9508261  55.0437881
  43.9120012  12.3794997  37.2809988  43.9760012  11.5854997  37.8119988
  44.5650012  12.2604997  36.5909988  44.0090241  12.2547148  37.2604317
  46.2260012  12.0054997  54.5809988  45.8970012  12.2764997  53.7239988
  46.3780012  11.0644997  54.4939988  46.2014809  11.9153862  54.4518244
  49.2640012  13.4264997  37.0169988  48.9950012  13.6064997  37.9179988
  49.0580012  12.5004997  36.8859988  49.1993825  13.3260152  37.1225214
  51.9600012  11.9214997  51.9649988  52.7060012  12.5094997  51.8449988
  51.2030012  12.5034997  52.0279988  51.9597554  12.0807011  51.9570907
  40.4030012   9.2354997  54.5689988  40.8110012   8.3784997  54.4479988
  40.1430012   9.2504997  55.4899988  40.4237568   9.1200807  54.6769588
  45.0610012  10.3514997  39.5869988  44.6010012   9.8674997  40.2729988
  45.3160012   9.6834997  38.9509988  45.0324902  10.1948731  39.5949334
  44.3500012   8.2444997  51.9429988  43.7320012   8.9194997  52.2229988
  44.6940012   8.5654997  51.1099988  44.3119615   8.3802721  51.8686581
  46.1320012   8.5944997  37.8489988  45.9520012   8.4404997  36.9219988
  47.0820012   8.7024997  37.8939988  46.2357776   8.5880175  37.7281843
  49.3700012  10.7164997  55.2199988  50.3230012  10.7994997  55.1929988
  49.2090012  10.0044997  55.8399988  49.4786426  10.6316746  55.3000579
  55.5220012  10.9494997  37.2949988  55.2480012  10.5244997  36.4819988
  55.5610012  11.8804997  37.0779988  55.4897699  11.0172484  37.1543610
  44.6890012   5.5994997  53.0249988  44.8390012   4.8704997  52.4229988
  44.6920012   6.3764997  52.4659988  44.7099302   5.6047851  52.8670692
  45.1020012   3.9694997  50.5179988  45.6380012   4.4204997  49.8659988
  44.2500012   3.8614997  50.0949988  45.0602178   4.0166390  50.3715756
  46.6840012   9.4084997  50.7569988  47.4340012   9.2524997  50.1839988
  46.3450012  10.2604997  50.4819988  46.7408921   9.5022968  50.6413561
  51.0990012   7.2234997  55.7859988  51.2920012   6.2924997  55.6739988
  51.9570012   7.6484997  55.7759988  51.2413020   7.1536389  55.7693361
  52.4160012  10.0124997  53.8629988  52.1350012  10.7214997  53.2859988
  53.3590012   9.9394997  53.7119988  52.5049027  10.0997646  53.7635551
  43.1680012   6.7974997  54.9369988  42.4010012   6.2654997  54.7269988
  43.8470012   6.4874997  54.3369988  43.1547022   6.6827506  54.8271648
  45.9080012   1.4254997  50.9489988  45.8090012   2.3724997  50.8439988
  45.1650012   1.0534997  50.4739988  45.7940564   1.5045902  50.8704560
  47.1720012   5.7474997  54.5129988  46.9360012   5.5274997  55.4149988
  46.3880012   5.5404997  54.0029988  47.0338628   5.6894760  54.5673932
  49.8870012   4.8744997  53.5889988  48.9400012   4.9064997  53.7209988
  50.2000012   4.2494997  54.2419988  49.7995475   4.7943207  53.6954455
  51.5210012   3.5084997  55.5939988  51.4250012   2.5564997  55.5879988
  51.2000012   3.7774997  56.4539988  51.4644070   3.4144035  55.7095441
  41.3480012   4.7184997  54.6409988  41.5600012   4.0114997  54.0309988
  41.2370012   4.2804997  55.4849988  41.3619721   4.5627084  54.6716843
  46.1290012   0.7194997  53.6209988  46.8410012   0.0794997  53.6069988
  46.0280012   0.9864997  52.7069988  46.2127939   0.6679938  53.4955650
  46.4830012   2.4024997  55.6739988  46.3510012   1.9264997  54.8539988
  45.8840012   3.1464997  55.6189988  46.3839071   2.4379618  55.5542886
  46.0290012  19.2854997  38.8509988  46.9620012  19.4434997  38.9939988
  45.7650012  19.9604997  38.2259988  46.1209510  19.3983611  38.7860741
  39.5980012  13.9214997  38.3329988  40.5120012  14.0004997  38.6069988
  39.6050012  13.2344997  37.6669988  39.7241131  13.8393961  38.2804393
  38.2470012  19.3144997  43.4109988  37.6000012  18.8524997  42.8779988
  38.6010012  18.6424997  43.9929988  38.2063849  19.1604723  43.4167959
  39.1170012  17.3954997  45.2149988  38.7820012  16.5154997  45.3869988
  39.3390012  17.7404997  46.0799988  39.1011783  17.3217500  45.3554208
  56.6650012  18.2044997  48.1959988  56.6440012  18.3894997  49.1349988
  57.3560012  18.7734997  47.8549988  56.7554618  18.3066606  48.2783864
  56.2290012  17.7724997  51.1179988  55.7410012  17.0364997  50.7469988
  56.7780012  17.3784997  51.7959988  56.2364872  17.6186249  51.1589160
  54.6790012  13.5614997  55.7559988  53.8130012  13.4564997  56.1499988
  55.0560012  14.3204997  56.2019988  54.6113308  13.6496900  55.8702393
  55.9800012  11.8184997  41.2699988  56.8300012  12.2394997  41.3969988
  55.9860012  11.0784997  41.8769988  56.0971372  11.7760803  41.3694344
  56.3750012   9.8714997  43.0939988  55.6480012   9.3924997  43.4909988
  56.9560012  10.0774997  43.8259988  56.3539375   9.8337090  43.2474129
  56.1340012  12.6564997  48.0409988  56.9670012  12.2784997  47.7609988
  56.2460012  13.5994997  47.9219988  56.2632647  12.7322218  47.9865487
  54.6200012  15.5344997  50.3479988  53.9730012  15.8594997  50.9739988
  54.1030012  15.0944997  49.6739988  54.4614029  15.5195004  50.3425827
  56.6430012   9.7724997  39.4849988  56.1210012  10.1294997  38.7659988
  56.6100012  10.4474997  40.1629988  56.5671634   9.9125413  39.4783145
  54.9920012   7.0124997  38.0359988  55.0880012   7.6794997  37.3549988
  54.8520012   6.1964997  37.5539988  54.9862135   6.9934500  37.8778491
  54.1610012   8.3924997  43.6569988  54.0110012   7.4474997  43.6359988
  53.8080012   8.6734997  44.4999988  54.0926625   8.3010441  43.7682346
  39.1970012  10.4704997  47.6669988  39.3810012  10.3884997  46.7309988
  40.0460012  10.3464997  48.0909988  39.3370139  10.4425003  47.5961455
  55.0180012  10.3624997  53.2949988  55.6010012   9.6284997  53.4869988
  55.5820012  11.1344997  53.3419988  55.1739769  10.3664227  53.3276159
  56.5140012   8.2654997  53.9799988  55.6510012   7.8864997  53.8139988
  57.1190012   7.5264997  53.9059988  56.4775979   8.1138023  53.9472817
  54.2390012   4.4204997  37.1529988  54.8500012   4.0494997  37.7899988
  53.4030012   3.9994997  37.3489988  54.2095032   4.3127554  37.2667035
  53.8720012   5.9754997  42.1189988  54.1520012   5.0684997  42.2429988
  54.6310012   6.4094997  41.7299988  54.0129277   5.9100942  42.0833682
  54.4840012   6.5564997  47.5549988  55.4170012   6.7684997  47.5209988
  54.2490012   6.6584997  48.4769988  54.5798036   6.5992769  47.6749976
  54.5130012   7.2934997  50.3309988  53.6700012   7.5614997  50.6969988
  54.9550012   8.1154997  50.1199988  54.4574158   7.4413291  50.3525491
  38.7940012   5.7414997  53.8079988  39.7140012   5.6194997  54.0439988
  38.3450012   4.9914997  54.1969988  38.8591580   5.6233727  53.8929006
  56.7960012   1.2734997  55.6839988  57.1460012   0.6194997  55.0789988
  56.9430012   2.1104997  55.2449988  56.8638419   1.2971591  55.5417118
  54.4850012   3.2384997  42.1669988  54.6680012   2.7894997  42.9929988
  53.8860012   2.6534997  41.7039988  54.4290202   3.0979975  42.2173275
  40.0150012   4.0534997  46.6989988  40.4610012   3.2614997  47.0009988
  40.4820012   4.7694997  47.1299988  40.1390172   4.0420624  46.7984820
  38.3190012   7.0524997  47.7679988  38.8110012   6.8314997  46.9769988
  38.6820012   7.8934997  48.0489988  38.4353126   7.1358357  47.6977531
  56.3160012   3.3824997  54.0339988  55.3980012   3.6534997  53.9979988
  56.4390012   2.8474997  53.2489988  56.2071066   3.3472892  53.9230487
  56.3520012   3.3054997  38.6949988  56.7640012   2.5844997  38.2199988
  57.0340012   3.9754997  38.7539988  56.5005885   3.2972368  38.6378915
  38.6330012   3.3104997  41.8219988  37.7080012   3.5194997  41.6929988
  39.0870012   3.7944997  41.1329988  38.5677368   3.4045993  41.7111226
  53.4040012  18.2944997  43.7679988  54.0560012  17.9474997  43.1599988
  53.9140012  18.7834997  44.4139988  53.5622637  18.3130597  43.7720236
  38.5970012   2.0484997  50.1669988  37.9320012   1.8024997  50.8099988
  38.1540012   2.6704997  49.5889988  38.4460956   2.0988632  50.1769352
  40.7890012  15.2234997  54.3109988  39.9680012  15.3984997  53.8509988
  40.5360012  15.1504997  55.2319988  40.6426164  15.2375622  54.3724923
  43.7430012  16.1984997  50.5699988  43.3180012  17.0074997  50.2869988
  44.6470012  16.2834997  50.2679988  43.8070271  16.3208469  50.4903776
  48.0540012  17.5974997  53.5289988  48.2390012  17.2634997  54.4069988
  48.9000012  17.9064997  53.2069988  48.1937539  17.5936047  53.6055605
  50.3990012  18.8834997  52.7729988  51.0760012  18.2504997  52.5329988
  50.7210012  19.2844997  53.5799988  50.5351637  18.8511154  52.8492793
  55.3160012   1.4724997  51.8529988  54.5040012   1.7974997  51.4649988
  55.5490012   0.7124997  51.3199988  55.2363423   1.4142436  51.7278253
  41.1450012  19.4544997  50.6169988  40.4240012  19.8944997  50.1659988
  40.7790012  19.2034997  51.4659988  40.9969804  19.4807698  50.6699840
  43.6120012  19.0544997  49.6469988  42.7470012  19.1264997  50.0509988
  43.5570012  19.6014997  48.8629988  43.4862085  19.1382685  49.5963362
  48.3220012  18.9424997  48.8219988  47.8660012  19.4714997  48.1679988
  48.4850012  19.5454997  49.5479988  48.2815585  19.0964468  48.8305062
  50.6500012  17.8204997  49.7669988  49.7450012  17.9854997  49.5019988
  51.0790012  18.6734997  49.7019988  50.5840799  17.9584483  49.7219182
  53.2540012  19.3904997  50.0619988  53.0720012  20.3064997  49.8519988
  53.4310012  18.9804997  49.2159988  53.2530210  19.4604822  49.9187885
  40.5590012  18.0774997  47.5269988  40.5410012  17.6524997  48.3849988
  41.3640012  17.7594997  47.1189988  40.6653875  17.9763812  47.5891655
  42.7010012  16.7874997  46.1819988  42.4820012  15.8714997  46.3519988
  43.5250012  16.9274997  46.6479988  42.7824420  16.6810520  46.2682774
  45.2380012  17.2574997  47.0309988  45.4510012  16.3694997  46.7439988
  45.3020012  17.2234997  47.9849988  45.2758232  17.1313102  47.1207397
  48.7460012   2.9214997  46.1749988  48.0720012   2.2924997  46.4309988
  49.3100012   2.4374997  45.5719988  48.7299230   2.7698744  46.1285340
  53.8890012   1.0294997  46.2879988  54.4930012   1.5764997  45.7859988
  53.0190012   1.3484997  46.0479988  53.8541241   1.1475806  46.1867654
  55.6160012   2.1674997  44.6209988  56.2280012   1.6534997  44.0949988
  55.9980012   3.0454997  44.6449988  55.7514540   2.2157140  44.5521830
  41.0730012   1.5554997  43.9969988  40.2960012   1.3214997  43.4899988
  41.6030012   0.7584997  44.0059988  41.0382330   1.4156988  43.9287742
  39.9090012   1.3534997  39.8009988  40.3480012   1.9644997  39.2089988
  39.2760012   1.8914997  40.2749988  39.8834514   1.5099257  39.7840930
  45.6520012   1.4824997  43.8109988  46.5270012   1.8704997  43.7809988
  45.5160012   1.2674997  44.7329988  45.7533695   1.5065184  43.9316440
  51.2090012   1.5124997  45.4599988  51.2850012   1.6074997  44.5099988
  50.9340012   0.6044997  45.5889988  51.1822321   1.4027867  45.3475079
  52.5620012   1.5384997  41.1519988  51.8600012   2.1534997  40.9429988
  52.1180012   0.7004997  41.2829988  52.4056330   1.5095783  41.1410328
  39.8100012  17.3014997  40.6989988  39.1250012  17.2634997  40.0309988
  39.8140012  18.2144997  40.9869988  39.7168193  17.4197016  40.6465284
  41.7700012   3.2694997  38.2429988  42.2620012   2.6394997  37.7159988
  42.3940012   3.5654997  38.9069988  41.9215446   3.2233199  38.2605980
  46.7960012   3.5624997  40.6999988  46.9740012   2.9164997  41.3829988
  46.7430012   4.3964997  41.1679988  46.8131829   3.5867985  40.8565940
  48.6750012  18.5114997  39.0959988  49.5410012  18.8774997  38.9179988
  48.4280012  18.0714997  38.2819988  48.7602392  18.5021756  38.9616289
  55.3840012  18.0744997  41.7749988  55.1890012  17.3264997  41.2099988
  55.3450012  18.8324997  41.1919988  55.3520380  18.0746099  41.6188384
  41.0310012   2.0694997  53.5149988  40.6650012   1.3044997  53.9579988
  41.9440012   2.0984997  53.8019988  41.1042790   1.9687224  53.6144070
  43.0040012   1.4204997  55.0509988  43.9020012   1.1464997  54.8659988
  42.6170012   0.6774997  55.5149988  43.0746612   1.2825914  55.0883643
  41.6280012  18.2214997  37.7239988  41.3610012  18.5084997  38.5969988
  42.4000012  17.6754997  37.8759988  41.6957488  18.1870294  37.8641050
  51.4250012   0.7524997  55.2329988  51.5020012   0.3264997  56.0869988
  52.3190012   0.7664997  54.8899988  51.5563428   0.6960879  55.3035310
  54.6010012  16.8254997  53.9249988  53.8190012  16.6394997  53.4059988
  54.5290012  17.7544997  54.1429988  54.4841777  16.9256492  53.8834048
  69.0070012  10.7114997  43.9559988  69.0960012  11.6554997  43.8239988
  68.3690012  10.4364997  43.2979988  68.9329081  10.8034830  43.8489614
  67.9400012   9.9664997  47.3749988  67.9020012   9.3204997  48.0799988
  67.6180012   9.5004997  46.6039988  67.8912333   9.8149408  47.3672978
  60.3090012   9.5814997  48.9679988  60.3500012   8.9554997  49.6909988
  61.0120012  10.2054997  49.1499988  60.4096363   9.5801196  49.0916044
  71.6460012  12.9054997  45.6759988  71.2060012  12.1854997  46.1269988
  71.6330012  13.6264997  46.3059988  71.5840226  12.9043731  45.8228494
  61.2320012  14.0314997  47.5029988  60.8630012  13.2294997  47.1329988
  62.1730012  13.8624997  47.5489988  61.3087289  13.8990153  47.4586316
  57.8420012   7.6914997  42.8959988  57.3950012   8.5374997  42.8769988
  57.2810012   7.1114997  42.3799988  57.7049900   7.7289916  42.8236801
  58.5530012   9.8534997  45.0219988  58.7660012   9.0834997  45.5489988
  59.2910012   9.9424997  44.4179988  58.6818496   9.7601394  45.0125300
  68.7580012  18.0104997  45.8889988  69.3780012  17.3334997  45.6149988
  68.5500012  17.7924997  46.7969988  68.8146904  17.8883870  45.9743365
  66.3300012  12.3994997  47.7809988  66.6340012  11.7134997  47.1859988
  67.0510012  12.5174997  48.3989988  66.4690671  12.3216305  47.7831816
  74.9930012   4.0004997  48.6419988  75.0420012   4.6104997  49.3779988
  75.4180012   4.4614997  47.9189988  75.0571824   4.1463741  48.6450205
  69.4710012   6.7934997  48.1089988  69.6130012   5.8474997  48.1289988
  69.3640012   7.0004997  47.1799988  69.4759864   6.6919534  47.9862339
  62.6250012   4.8944997  45.3809988  62.6690012   5.7544997  44.9629988
  62.1680012   4.3424997  44.7469988  62.5692185   4.9375799  45.2380299
  70.3480012   5.0254997  43.7819988  70.9940012   4.6964997  44.4069988
  70.8580012   5.5434997  43.1589988  70.5054264   5.0504611  43.7833862
  59.2460012   7.2914997  46.1429988  59.8990012   6.7414997  46.5749988
  59.2700012   7.0174997  45.2259988  59.3386683   7.1791466  46.0782123
  64.4020012   8.8414997  45.3579988  65.0180012   8.3154997  45.8679988
  63.8160012   8.2014997  44.9549988  64.4070810   8.6829208  45.3733173
  75.3840012   5.4784997  50.8779988  74.6960012   6.1364997  50.7819988
  75.4000012   5.2814997  51.8139988  75.2918525   5.5420462  50.9914808
  61.4360012   3.8124997  49.4549988  61.2170012   4.3424997  48.6889988
  60.7680012   4.0394997  50.1019988  61.3157600   3.9156906  49.4376379
  68.8050012  13.3124997  42.9989988  68.5090012  12.9904997  42.1479988
  68.4800012  14.2124997  43.0399988  68.7206371  13.3900215  42.8881801
  64.0050012  11.4884997  49.7419988  63.2650012  12.0864997  49.8459988
  64.7190012  12.0424997  49.4269988  64.0002237  11.6452831  49.7136465
  72.1120012   4.3164997  45.7619988  71.8960012   3.5504997  46.2949988
  72.7670012   4.7884997  46.2749988  72.1710632   4.2755889  45.9042861
  61.0290012   5.7044997  47.4069988  61.6430012   6.3374997  47.7809988
  61.5410012   5.2324997  46.7509988  61.1822296   5.7272370  47.3694252
  62.4120012  13.4524997  50.5299988  62.4070012  14.3324997  50.1519988
  61.5590012  13.3694997  50.9549988  62.2959464  13.5616117  50.5357907
  58.5330012  13.1234997  41.3119988  58.2610012  13.3524997  40.4229988
  58.5790012  13.9614997  41.7719988  58.5020094  13.2681213  41.2525697
  72.1580012  14.7454997  48.0239988  71.2170012  14.8034997  48.1859988
  72.4350012  15.6514997  47.8869988  72.0664679  14.8759443  48.0276815
  72.4590012   3.0314997  49.4419988  71.7230012   3.6424997  49.4039988
  73.1420012   3.4464997  48.9149988  72.4506541   3.1711374  49.3655832
  65.4620012   1.1184997  46.9079988  65.3450012   0.1694997  46.8529988
  64.6070012   1.4504997  47.1809988  65.3303733   1.0335409  46.9373897
  70.4100012  16.5264997  44.6499988  70.8360012  15.8194997  44.1649988
  70.7270012  17.3274997  44.2329988  70.5111019  16.5380994  44.5273130
  71.5700012  14.4274997  43.1579988  71.3120012  13.7374997  42.5469988
  71.6410012  13.9844997  44.0039988  71.5442856  14.2732124  43.1886885
  73.2560012  12.9934997  51.6359988  73.3960012  12.4024997  50.8959988
  73.4230012  13.8664997  51.2789988  73.2976778  13.0306426  51.4866965
  67.7290012   9.9554997  41.4079988  67.0170012  10.4904997  41.0559988
  68.4200012  10.0114997  40.7479988  67.7250132  10.0362543  41.2706289
  67.7820012   8.4134997  38.4469988  68.4830012   8.4354997  39.0979988
  68.0850012   7.7854997  37.7909988  67.9187830   8.3316566  38.4473711
  75.0980012   9.3334997  49.7019988  74.4450012  10.0284997  49.7909988
  75.5630012   9.5434997  48.8919988  75.0715390   9.4569425  49.6046883
  71.1340012  10.1654997  42.3599988  70.4020012  10.3934997  42.9329988
  71.5820012   9.4514997  42.8149988  71.0943095  10.1002571  42.4999119
  71.0320012   8.3394997  51.4269988  71.1120012   9.1024997  51.9989988
  70.4300012   8.6184997  50.7369988  70.9615756   8.4817134  51.4120589
  62.7800012  10.7954997  44.2419988  62.4490012  10.4254997  43.4239988
  63.3680012  10.1254997  44.5889988  62.8141873  10.6541156  44.1768102
  64.1460012  14.2234997  46.9239988  64.0520012  13.6454997  46.1669988
  64.8760012  13.8524997  47.4199988  64.2317981  14.0942390  46.8874165
  63.1460012   9.5644997  47.8759988  63.7120012   9.6854997  47.1129988
  63.4650012  10.2014997  48.5149988  63.2665786   9.6671884  47.8580040
  69.4550012  15.0674997  48.6099988  69.2150012  15.7294997  49.2579988
  69.2570012  14.2334997  49.0349988  69.3953808  15.0453134  48.7561524
  64.0260012  13.9634997  52.5929988  63.7150012  14.7454997  53.0479988
  63.3760012  13.8104997  51.9069988  63.8955558  14.0499105  52.5625871
  70.0050012   9.3274997  40.0449988  70.5850012   9.4774997  40.7919988
  70.4190012   9.7984997  39.3219988  70.1402831   9.4116841  40.0494134
  60.9460012  10.1614997  51.8219988  61.0170012  10.8124997  52.5199988
  60.0560012  10.2644997  51.4869988  60.8353117  10.2645936  51.8722700
  67.7320012  16.0644997  43.4799988  68.2060012  16.3594997  44.2579988
  67.1690012  16.8024997  43.2469988  67.7207653  16.2046932  43.5550136
  62.2660012  16.0354997  53.3559988  62.2730012  15.8994997  52.4089988
  61.3500012  15.9174997  53.6079988  62.1431714  16.0009430  53.2604666
  73.7040012   1.0774997  39.8579988  72.8040012   1.2164997  40.1529988
  73.9560012   1.9084997  39.4559988  73.6148702   1.2089074  39.8440205
  61.7700012   9.8654997  41.8319988  61.4780012  10.6334997  41.3409988
  61.0960012   9.2054997  41.6689988  61.6389081   9.8814406  41.7427340
  74.8930012  15.4434997  38.2339988  74.9670012  16.3824997  38.4049988
  75.7990012  15.1384997  38.1779988  75.0255100  15.5306722  38.2498119
  57.8630012  12.2284997  50.6469988  57.3620012  12.2004997  49.8319988
  57.8680012  11.3224997  50.9559988  57.7951526  12.1022278  50.5772872
  57.6130012  15.0084997  47.5309988  58.5590012  14.8644997  47.5119988
  57.5010012  15.7924997  48.0679988  57.7272727  15.0948046  47.6010072
  75.8110012  15.6744997  53.2129988  75.7620012  14.7194997  53.1759988
  74.9840012  15.9424997  53.6139988  75.6924940  15.5798998  53.2621375
  66.7900012  15.2484997  52.0889988  66.8770012  16.0744997  52.5639988
  65.9260012  14.9184997  52.3379988  66.6851964  15.3169878  52.1876549
  67.2040012  19.0204997  41.8949988  67.1290012  18.8994997  40.9489988
  67.2370012  19.9704997  42.0139988  67.1981848  19.1322500  41.7814834
  60.8570012  17.8094997  43.6759988  61.0100012  17.4614997  44.5549988
  60.0070012  17.4534997  43.4209988  60.7628962  17.7136650  43.7618340
  70.3060012  18.1744997  38.8969988  70.6810012  17.4304997  38.4269988
  70.3100012  17.9044997  39.8159988  70.3578915  18.0361486  38.9567824
  69.9750012  18.1004997  41.6469988  69.0390012  18.2004997  41.8249988
  70.2550012  17.3914997  42.2249988  69.8848255  18.0182711  41.7495391
  72.9630012   7.1674997  53.6929988  72.5560012   7.6484997  52.9719988
  73.0040012   6.2624997  53.3849988  72.9128437   7.1109374  53.5526683
  60.1120012  13.5514997  51.6899988  60.3280012  13.1904997  52.5489988
  59.2570012  13.1774997  51.4799988  60.0259292  13.4514111  51.7793386
  62.7310012   2.0214997  47.6849988  61.8690012   1.9344997  47.2779988
  62.7080012   2.8774997  48.1129988  62.6100330   2.1252765  47.6871863
  67.3940012   1.7434997  51.0599988  67.8140012   1.3284997  51.8129988
  66.4610012   1.5654997  51.1769988  67.3253644   1.6625900  51.1789539
  70.7200012   5.4994997  51.9129988  70.2060012   5.3734997  52.7109988
  70.5650012   6.4114997  51.6689988  70.6286852   5.6056132  51.9892158
  71.4830012  10.3604997  37.6749988  71.5250012  10.1374997  36.7449988
  72.3320012  10.7594997  37.8649988  71.6035396  10.3839155  37.5733627
  67.0550012   4.2364997  38.3449988  66.8020012   4.2554997  39.2679988
  66.7990012   3.3644997  38.0439988  66.9857790   4.1212437  38.4306263
  62.8220012   6.9874997  48.7799988  62.1800012   6.9464997  49.4889988
  62.8590012   7.9134997  48.5429988  62.7391324   7.1071559  48.8449824
  62.8190012   7.2084997  43.6919988  61.9260012   6.8674997  43.6339988
  63.2690012   6.8314997  42.9369988  62.7577305   7.1108484  43.5819177
  68.3540012   7.6244997  42.5089988  67.9450012   8.4394997  42.2179988
  69.0750012   7.4844997  41.8949988  68.3954537   7.7172018  42.3861342
  67.4560012   7.7994997  53.9969988  66.8940012   7.0954997  54.3179988
  68.2830012   7.6794997  54.4649988  67.4907095   7.6867883  54.1042330
  69.3590012   7.0704997  45.3229988  69.1640012   7.6754997  44.6079988
  69.5400012   6.2364997  44.8889988  69.3567614   7.0406300  45.1664405
  60.5720012   7.3074997  50.6469988  60.5340012   7.7074997  51.5159988
  60.0810012   6.4904997  50.7379988  60.5004684   7.2518069  50.7781059
  63.9380012   4.6814997  37.4459988  63.5070012   4.2364997  38.1759988
  63.2200012   5.0534997  36.9339988  63.7819438   4.6708940  37.4766799
  57.1800012   4.4234997  44.4979988  57.8110012   4.3944997  45.2169988
  57.6290012   3.9984997  43.7679988  57.3270774   4.3620492  44.4976553
  58.4540012   5.1694997  39.9219988  58.9280012   5.7604997  39.3369988
  57.7370012   5.7004997  40.2689988  58.4219341   5.3220867  39.8888836
  68.6230012   8.7084997  49.9949988  68.9460012   8.0774997  49.3519988
  68.1830012   8.1734997  50.6549988  68.6076895   8.5498440  49.9962850
  65.4000012   4.6354997  44.7789988  64.4890012   4.6924997  45.0669988
  65.9060012   4.5754997  45.5889988  65.3435413   4.6351985  44.9280622
  60.2290012   6.2644997  43.6049988  59.3390012   6.3644997  43.2649988
  60.5250012   5.4224997  43.2589988  60.1472823   6.1643545  43.5117213
  63.8820012   6.2644997  41.2619988  64.8130012   6.3934997  41.4399988
  63.6670012   6.9344997  40.6119988  63.9804247   6.3726565  41.1985747
  69.8050012   3.8704997  48.0429988  69.1290012   4.0014997  48.7069988
  69.3200012   3.7154997  47.2329988  69.6467145   3.8674905  48.0244517
  62.5560012   7.4594997  38.8289988  62.0130012   7.0794997  38.1369988
  63.3890012   7.6534997  38.3999988  62.5944399   7.4338124  38.6764526
  73.0930012  19.5424997  54.3199988  73.2930012  19.9664997  53.4849988
  73.7480012  19.8854997  54.9269988  73.2090051  19.6469648  54.2877836
  60.6910012  12.0164997  53.9279988  61.4230012  12.2704997  54.4889988
  59.9110012  12.2204997  54.4429988  60.6858232  12.0789177  54.0745760
  66.7200012   7.4234997  46.6659988  67.2850012   6.8764997  46.1189988
  66.5730012   6.9014997  47.4539988  66.7772918   7.2782024  46.6978454
  61.7220012   3.5594997  43.0839988  61.4050012   2.6574997  43.0489988
  62.5040012   3.5614997  42.5309988  61.7842284   3.4361628  43.0044783
  65.3470012   5.8114997  49.0799988  64.5110012   6.2654997  49.1899988
  65.8710012   6.0874997  49.8319988  65.3034414   5.9109376  49.1967136
  65.8910012  12.0244997  40.7639988  65.1460012  11.5174997  40.4419988
  65.7570012  12.0734997  41.7109988  65.7708776  11.9616940  40.8478647
  73.0410012  11.1574997  49.5509988  73.6830012  11.6144997  49.0069988
  72.2110012  11.2704997  49.0879988  73.0165963  11.2352704  49.4140177
  69.7890012   4.8384997  38.9639988  68.8500012   4.9504997  38.8119988
  70.0860012   5.6954997  39.2699988  69.7007666   4.9696443  38.9845768
  67.4100012  12.2084997  52.0009988  67.0650012  11.8274997  52.8079988
  67.2100012  13.1424997  52.0729988  67.3358061  12.2825228  52.1210961
  70.5070012   6.7054997  40.6239988  71.3990012   6.5684997  40.9429988
  70.5640012   7.4964997  40.0879988  70.6366285   6.7936660  40.5951690
  61.0160012  11.3194997  46.5339988  61.7610012  11.3174997  45.9329988
  61.0940012  10.4964997  47.0159988  61.1285518  11.2079315  46.5168929
  68.0170012  13.4834997  39.7899988  67.7210012  14.3094997  40.1709988
  67.3140012  12.8634997  39.9859988  67.8814914  13.5128199  39.8686443
  58.0240012   9.7804997  51.8489988  58.2470012   9.3624997  52.6809988
  57.4220012   9.1674997  51.4259988  57.9731759   9.6404668  51.9057022
  65.0400012   9.2974997  54.0619988  64.7440012   9.1314997  53.1669988
  65.9720012   9.0774997  54.0509988  65.1254166   9.2450640  53.9380536
  69.6610012  14.6704997  51.9519988  68.7600012  14.8534997  51.6839988
  69.6950012  14.9294997  52.8729988  69.5423041  14.7305512  52.0398197
  75.3920012   6.9154997  40.3189988  74.8380012   6.5194997  39.6469988
  75.4920012   7.8254997  40.0409988  75.3297059   6.9843586  40.1894401
  75.3550012  12.7154997  53.1559988  74.5040012  12.9534997  52.7889988
  75.9460012  12.6984997  52.4029988  75.3182487  12.7458258  53.0038893
  73.6870012  15.7014997  40.7839988  73.3140012  14.8754997  41.0929988
  73.9650012  15.5184997  39.8869988  73.6735630  15.5637303  40.7049626
  70.8480012  10.5094997  47.8049988  69.9190012  10.2774997  47.7779988
  71.2990012   9.7324997  47.4749988  70.7819216  10.3727238  47.7566917
  63.3910012  14.8374997  43.9379988  63.9180012  15.6104997  43.7379988
  62.5110012  15.0624997  43.6369988  63.3441773  14.9738005  43.8699010
  59.1460012   9.6994997  38.5249988  59.7620012  10.3264997  38.9049988
  58.2840012  10.0154997  38.7969988  59.1137698   9.8279430  38.6137183
  64.8180012  12.5004997  43.5149988  64.5770012  13.4254997  43.5559988
  64.0770012  12.0414997  43.9109988  64.6848409  12.5651421  43.5741377
  65.3330012  16.6494997  49.8299988  65.6950012  17.5044997  49.5959988
  65.8640012  16.3574997  50.5699988  65.4544473  16.7271060  49.8980855
  63.5010012  17.5224997  43.0599988  62.5510012  17.6274997  43.1109988
  63.8530012  18.3424997  43.4049988  63.4184203  17.6478314  43.1136650
  68.8770012  12.7484997  49.5299988  68.4510012  12.5214997  50.3569988
  69.4570012  12.0104997  49.3479988  68.8971868  12.6175299  49.6185830
  71.0800012  13.6774997  38.6039988  71.4330012  13.2974997  39.4089988
  70.1310012  13.5844997  38.6909988  71.0000441  13.6129596  38.7258559
  71.5350012  17.3004997  51.9999988  70.9340012  16.7454997  51.5039988
  71.8170012  17.9674997  51.3739988  71.4908519  17.3146841  51.8474951
  75.5830012  18.1574997  38.8049988  76.3270012  18.7434997  38.6649988
  74.8890012  18.7254997  39.1389988  75.5910292  18.3145582  38.8309961
  59.6580012   4.5334997  51.4069988  58.7650012   4.8724997  51.3389988
  59.5590012   3.6784997  51.8249988  59.5224164   4.4642588  51.4542235
  71.9460012  12.3504997  40.8309988  71.6680012  11.6224997  41.3869988
  72.8730012  12.4694997  41.0359988  72.0333124  12.2668802  40.9348845
  59.3090012  16.3384997  49.8419988  59.5260012  15.4064997  49.8109988
  59.5550012  16.6124997  50.7249988  59.3719549  16.2480636  49.9571763
  65.1710012  14.7894997  37.0509988  65.4100012  14.0414997  36.5039988
  64.9020012  14.4014997  37.8839988  65.1673675  14.6346638  37.0886865
  64.1080012  14.3594997  39.5079988  64.2540012  13.8394997  40.2979988
  64.1050012  15.2664997  39.8139988  64.1275989  14.4108853  39.6576088
  60.5610012  11.6124997  40.0179988  59.8750012  11.9644997  40.5849988
  61.0830012  12.3754997  39.7709988  60.5376852  11.7638578  40.0622118
  68.3920012   4.2744997  50.2969988  69.0910012   4.3484997  50.9469988
  68.0110012   3.4104997  50.4509988  68.4361767   4.1677624  50.4068322
  69.1770012   3.9264997  41.3939988  69.3970012   4.3984997  40.5909988
  69.7350012   4.3214997  42.0639988  69.2824968   4.0444285  41.3747331
  66.8450012  16.0574997  40.2569988  66.0290012  16.5544997  40.3089988
  67.3750012  16.5324997  39.6169988  66.8049161  16.1897722  40.1775956
  66.3770012   5.6544997  42.2289988  67.1890012   6.1594997  42.2749988
  66.1320012   5.5094997  43.1429988  66.4550520   5.7040375  42.3588517
  66.9120012   6.6404997  51.4139988  67.0310012   7.2144997  52.1709988
  67.5680012   5.9524997  51.5279988  67.0169757   6.6261079  51.5330825
  67.2600012   2.7354997  43.1669988  66.9140012   3.3534997  43.8119988
  67.9190012   3.2364997  42.6859988  67.3017826   2.8875802  43.1900971
  64.1840012  17.1014997  40.2389988  64.3440012  17.9004997  39.7379988
  63.9860012  17.4074997  41.1239988  64.1791649  17.2524469  40.2899815
  62.9180012   3.7984997  39.8539988  62.8350012   4.6874997  40.2009988
  63.8080012   3.5334997  40.0859988  63.0269469   3.8841430  39.9327626
  73.1170012   4.5474997  52.2489988  72.2000012   4.8104997  52.1609988
  73.4520012   4.5444997  51.3519988  73.0369900   4.5830224  52.1157919
  71.7190012   8.2984997  46.3439988  70.9210012   7.8834997  46.0159988
  72.1640012   7.6074997  46.8349988  71.6699885   8.1483543  46.3654889
  61.1770012  14.2264997  38.9149988  61.7690012  14.9254997  39.1909988
  61.6360012  13.7934997  38.1949988  61.3201142  14.2637049  38.8554830
  59.4930012   6.8904997  38.0309988  59.4480012   7.8294997  38.2089988
  58.6050012   6.6544997  37.7609988  59.3668574   6.9871892  38.0188912
  72.8050012  17.5544997  47.9669988  72.6500012  18.2324997  47.3099988
  73.7380012  17.6264997  48.1699988  72.9098500  17.6570170  47.9045119
  60.3010012   1.6724997  46.7039988  60.0720012   1.7314997  45.7759988
  59.8580012   0.8804997  47.0099988  60.2098530   1.5735753  46.6184786
  59.2310012  15.6124997  42.8639988  58.3990012  16.0854997  42.8919988
  59.7770012  16.1224997  42.2659988  59.1909739  15.7461871  42.7869716
  58.5190012  18.2254997  54.1939988  59.0600012  18.0084997  54.9539988
  58.0380012  17.4194997  54.0049988  58.5279345  18.0869514  54.2723076
  63.1170012  17.1444997  55.8149988  63.8840012  16.6854997  56.1559988
  63.0950012  16.9184997  54.8849988  63.2191434  17.0510409  55.7360043
  67.2090012  16.6524997  37.1899988  66.5650012  16.0214997  37.5109988
  67.9710012  16.1214997  36.9579988  67.2238077  16.4942920  37.2026011
  69.6940012  15.5244997  54.5439988  69.3430012  14.6684997  54.7869988
  70.4200012  15.6674997  55.1509988  69.7440769  15.4265636  54.6593619
  71.8130012  16.4694997  37.4239988  72.0960012  15.6754997  37.8759988
  72.5530012  16.7024997  36.8629988  71.9517486  16.3922803  37.4100698
  58.4260012  12.0354997  55.1489988  58.5700012  11.1334997  54.8619988
  57.6540012  12.3214997  54.6609988  58.3413323  11.9508261  55.0437881
  62.7680012  12.3794997  37.2809988  62.8320012  11.5854997  37.8119988
  63.4210012  12.2604997  36.5909988  62.8650241  12.2547148  37.2604317
  65.0820012  12.0054997  54.5809988  64.7530012  12.2764997  53.7239988
  65.2340012  11.0644997  54.4939988  65.0574809  11.9153862  54.4518244
  68.1200012  13.4264997  37.0169988  67.8510012  13.6064997  37.9179988
  67.9140012  12.5004997  36.8859988  68.0553825  13.3260152  37.1225214
  70.8160012  11.9214997  51.9649988  71.5620012  12.5094997  51.8449988
  70.0590012  12.5034997  52.0279988  70.8157554  12.0807011  51.9570907
  59.2590012   9.2354997  54.5689988  59.6670012   8.3784997  54.4479988
  58.9990012   9.2504997  55.4899988  59.2797568   9.1200807  54.6769588
  63.9170012  10.3514997  39.5869988  63.4570012   9.8674997  40.2729988
  64.1720012   9.6834997  38.9509988  63.8884902  10.1948731  39.5949334
  63.2060012   8.2444997  51.9429988  62.5880012   8.9194997  52.2229988
  63.5500012   8.5654997  51.1099988  63.1679615   8.3802721  51.8686581
  64.9880012   8.5944997  37.8489988  64.8080012   8.4404997  36.9219988
  65.9380012   8.7024997  37.8939988  65.0917776   8.5880175  37.7281843
  68.2260012  10.7164997  55.2199988  69.1790012  10.7994997  55.1929988
  68.0650012  10.0044997  55.8399988  68.3346426  10.6316746  55.3000579
  74.3780012  10.9494997  37.2949988  74.1040012  10.5244997  36.4819988
  74.4170012  11.8804997  37.0779988  74.3457699  11.0172484  37.1543610
  63.5450012   5.5994997  53.0249988  63.6950012   4.8704997  52.4229988
  63.5480012   6.3764997  52.4659988  63.5659302   5.6047851  52.8670692
  63.9580012   3.9694997  50.5179988  64.4940012   4.4204997  49.8659988
  63.1060012   3.8614997  50.0949988  63.9162178   4.0166390  50.3715756
  65.5400012   9.4084997  50.7569988  66.2900012   9.2524997  50.1839988
  65.2010012  10.2604997  50.4819988  65.5968921   9.5022968  50.6413561
  69.9550012   7.2234997  55.7859988  70.1480012   6.2924997  55.6739988
  70.8130012   7.6484997  55.7759988  70.0973020   7.1536389  55.7693361
  71.2720012  10.0124997  53.8629988  70.9910012  10.7214997  53.2859988
  72.2150012   9.9394997  53.7119988  71.3609027  10.0997646  53.7635551
  62.0240012   6.7974997  54.9369988  61.2570012   6.2654997  54.7269988
  62.7030012   6.4874997  54.3369988  62.0107022   6.6827506  54.8271648
  64.7640012   1.4254997  50.9489988  64.6650012   2.3724997  50.8439988
  64.0210012   1.0534997  50.4739988  64.6500564   1.5045902  50.8704560
  66.0280012   5.7474997  54.5129988  65.7920012   5.5274997  55.4149988
  65.2440012   5.5404997  54.0029988  65.8898628   5.6894760  54.5673932
  68.7430012   4.8744997  53.5889988  67.7960012   4.9064997  53.7209988
  69.0560012   4.2494997  54.2419988  68.6555475   4.7943207  53.6954455
  70.3770012   3.5084997  55.5939988  70.2810012   2.5564997  55.5879988
  70.0560012   3.7774997  56.4539988  70.3204070   3.4144035  55.7095441
  60.2040012   4.7184997  54.6409988  60.4160012   4.0114997  54.0309988
  60.0930012   4.2804997  55.4849988  60.2179721   4.5627084  54.6716843
  64.9850012   0.7194997  53.6209988  65.6970012   0.0794997  53.6069988
  64.8840012   0.9864997  52.7069988  65.0687939   0.6679938  53.4955650
  65.3390012   2.4024997  55.6739988  65.2070012   1.9264997  54.8539988
  64.7400012   3.1464997  55.6189988  65.2399071   2.4379618  55.5542886
  64.8850012  19.2854997  38.8509988  65.8180012  19.4434997  38.9939988
  64.6210012  19.9604997  38.2259988  64.9769510  19.3983611  38.7860741
  58.4540012  13.9214997  38.3329988  59.3680012  14.0004997  38.6069988
  58.4610012  13.2344997  37.6669988  58.5801131  13.8393961  38.2804393
  57.1030012  19.3144997  43.4109988  56.4560012  18.8524997  42.8779988
  57.4570012  18.6424997  43.9929988  57.0623849  19.1604723  43.4167959
  57.9730012  17.3954997  45.2149988  57.6380012  16.5154997  45.3869988
  58.1950012  17.7404997  46.0799988  57.9571783  17.3217500  45.3554208
  75.5210012  18.2044997  48.1959988  75.5000012  18.3894997  49.1349988
  76.2120012  18.7734997  47.8549988  75.6114618  18.3066606  48.2783864
  75.0850012  17.7724997  51.1179988  74.5970012  17.0364997  50.7469988
  75.6340012  17.3784997  51.7959988  75.0924872  17.6186249  51.1589160
  73.5350012  13.5614997  55.7559988  72.6690012  13.4564997  56.1499988
  73.9120012  14.3204997  56.2019988  73.4673308  13.6496900  55.8702393
  74.8360012  11.8184997  41.2699988  75.6860012  12.2394997  41.3969988
  74.8420012  11.0784997  41.8769988  74.9531372  11.7760803  41.3694344
  75.2310012   9.8714997  43.0939988  74.5040012   9.3924997  43.4909988
  75.8120012  10.0774997  43.8259988  75.2099375   9.8337090  43.2474129
  74.9900012  12.6564997  48.0409988  75.8230012  12.2784997  47.7609988
  75.1020012  13.5994997  47.9219988  75.1192647  12.7322218  47.9865487
  73.4760012  15.5344997  50.3479988  72.8290012  15.8594997  50.9739988
  72.9590012  15.0944997  49.6739988  73.3174029  15.5195004  50.3425827
  75.4990012   9.7724997  39.4849988  74.9770012  10.1294997  38.7659988
  75.4660012  10.4474997  40.1629988  75.4231634   9.9125413  39.4783145
  73.8480012   7.0124997  38.0359988  73.9440012   7.6794997  37.3549988
  73.7080012   6.1964997  37.5539988  73.8422135   6.9934500  37.8778491
  73.0170012   8.3924997  43.6569988  72.8670012   7.4474997  43.6359988
  72.6640012   8.6734997  44.4999988  72.9486625   8.3010441  43.7682346
  58.0530012  10.4704997  47.6669988  58.2370012  10.3884997  46.7309988
  58.9020012  10.3464997  48.0909988  58.1930139  10.4425003  47.5961455
  73.8740012  10.3624997  53.2949988  74.4570012   9.6284997  53.4869988
  74.4380012  11.1344997  53.3419988  74.0299769  10.3664227  53.3276159
  75.3700012   8.2654997  53.9799988  74.5070012   7.8864997  53.8139988
  75.9750012   7.5264997  53.9059988  75.3335979   8.1138023  53.9472817
  73.0950012   4.4204997  37.1529988  73.7060012   4.0494997  37.7899988
  72.2590012   3.9994997  37.3489988  73.0655032   4.3127554  37.2667035
  72.7280012   5.9754997  42.1189988  73.0080012   5.0684997  42.2429988
  73.4870012   6.4094997  41.7299988  72.8689277   5.9100942  42.0833682
  73.3400012   6.5564997  47.5549988  74.2730012   6.7684997  47.5209988
  73.1050012   6.6584997  48.4769988  73.4358036   6.5992769  47.6749976
  73.3690012   7.2934997  50.3309988  72.5260012   7.5614997  50.6969988
  73.8110012   8.1154997  50.1199988  73.3134158   7.4413291  50.3525491
  57.6500012   5.7414997  53.8079988  58.5700012   5.6194997  54.0439988
  57.2010012   4.9914997  54.1969988  57.7151580   5.6233727  53.8929006
  75.6520012   1.2734997  55.6839988  76.0020012   0.6194997  55.0789988
  75.7990012   2.1104997  55.2449988  75.7198419   1.2971591  55.5417118
  73.3410012   3.2384997  42.1669988  73.5240012   2.7894997  42.9929988
  72.7420012   2.6534997  41.7039988  73.2850202   3.0979975  42.2173275
  58.8710012   4.0534997  46.6989988  59.3170012   3.2614997  47.0009988
  59.3380012   4.7694997  47.1299988  58.9950172   4.0420624  46.7984820
  57.1750012   7.0524997  47.7679988  57.6670012   6.8314997  46.9769988
  57.5380012   7.8934997  48.0489988  57.2913126   7.1358357  47.6977531
  75.1720012   3.3824997  54.0339988  74.2540012   3.6534997  53.9979988
  75.2950012   2.8474997  53.2489988  75.0631066   3.3472892  53.9230487
  75.2080012   3.3054997  38.6949988  75.6200012   2.5844997  38.2199988
  75.8900012   3.9754997  38.7539988  75.3565885   3.2972368  38.6378915
  57.4890012   3.3104997  41.8219988  56.5640012   3.5194997  41.6929988
  57.9430012   3.7944997  41.1329988  57.4237368   3.4045993  41.7111226
  72.2600012  18.2944997  43.7679988  72.9120012  17.9474997  43.1599988
  72.7700012  18.7834997  44.4139988  72.4182637  18.3130597  43.7720236
  57.4530012   2.0484997  50.1669988  56.7880012   1.8024997  50.8099988
  57.0100012   2.6704997  49.5889988  57.3020956   2.0988632  50.1769352
  59.6450012  15.2234997  54.3109988  58.8240012  15.3984997  53.8509988
  59.3920012  15.1504997  55.2319988  59.4986164  15.2375622  54.3724923
  62.5990012  16.1984997  50.5699988  62.1740012  17.0074997  50.2869988
  63.5030012  16.2834997  50.2679988  62.6630271  16.3208469  50.4903776
  66.9100012  17.5974997  53.5289988  67.0950012  17.2634997  54.4069988
  67.7560012  17.9064997  53.2069988  67.0497539  17.5936047  53.6055605
  69.2550012  18.8834997  52.7729988  69.9320012  18.2504997  52.5329988
  69.5770012  19.2844997  53.5799988  69.3911637  18.8511154  52.8492793
  74.1720012   1.4724997  51.8529988  73.3600012   1.7974997  51.4649988
  74.4050012   0.7124997  51.3199988  74.0923423   1.4142436  51.7278253
  60.0010012  19.4544997  50.6169988  59.2800012  19.8944997  50.1659988
  59.6350012  19.2034997  51.4659988  59.8529804  19.4807698  50.6699840
  62.4680012  19.0544997  49.6469988  61.6030012  19.1264997  50.0509988
  62.4130012  19.6014997  48.8629988  62.3422085  19.1382685  49.5963362
  67.1780012  18.9424997  48.8219988  66.7220012  19.4714997  48.1679988
  67.3410012  19.5454997  49.5479988  67.1375585  19.0964468  48.8305062
  69.5060012  17.8204997  49.7669988  68.6010012  17.9854997  49.5019988
  69.9350012  18.6734997  49.7019988  69.4400799  17.9584483  49.7219182
  72.1100012  19.3904997  50.0619988  71.9280012  20.3064997  49.8519988
  72.2870012  18.9804997  49.2159988  72.1090210  19.4604822  49.9187885
  59.4150012  18.0774997  47.5269988  59.3970012  17.6524997  48.3849988
  60.2200012  17.7594997  47.1189988  59.5213875  17.9763812  47.5891655
  61.5570012  16.7874997  46.1819988  61.3380012  15.8714997  46.3519988
  62.3810012  16.9274997  46.6479988  61.6384420  16.6810520  46.2682774
  64.0940012  17.2574997  47.0309988  64.3070012  16.3694997  46.7439988
  64.1580012  17.2234997  47.9849988  64.1318232  17.1313102  47.1207397
  67.6020012   2.9214997  46.1749988  66.9280012   2.2924997  46.4309988
  68.1660012   2.4374997  45.5719988  67.5859230   2.7698744  46.1285340
  72.7450012   1.0294997  46.2879988  73.3490012   1.5764997  45.7859988
  71.8750012   1.3484997  46.0479988  72.7101241   1.1475806  46.1867654
  74.4720012   2.1674997  44.6209988  75.0840012   1.6534997  44.0949988
  74.8540012   3.0454997  44.6449988  74.6074540   2.2157140  44.5521830
  59.9290012   1.5554997  43.9969988  59.1520012   1.3214997  43.4899988
  60.4590012   0.7584997  44.0059988  59.8942330   1.4156988  43.9287742
  58.7650012   1.3534997  39.8009988  59.2040012   1.9644997  39.2089988
  58.1320012   1.8914997  40.2749988  58.7394514   1.5099257  39.7840930
  64.5080012   1.4824997  43.8109988  65.3830012   1.8704997  43.7809988
  64.3720012   1.2674997  44.7329988  64.6093695   1.5065184  43.9316440
  70.0650012   1.5124997  45.4599988  70.1410012   1.6074997  44.5099988
  69.7900012   0.6044997  45.5889988  70.0382321   1.4027867  45.3475079
  71.4180012   1.5384997  41.1519988  70.7160012   2.1534997  40.9429988
  70.9740012   0.7004997  41.2829988  71.2616330   1.5095783  41.1410328
  58.6660012  17.3014997  40.6989988  57.9810012  17.2634997  40.0309988
  58.6700012  18.2144997  40.9869988  58.5728193  17.4197016  40.6465284
  60.6260012   3.2694997  38.2429988  61.1180012   2.6394997  37.7159988
  61.2500012   3.5654997  38.9069988  60.7775446   3.2233199  38.2605980
  65.6520012   3.5624997  40.6999988  65.8300012   2.9164997  41.3829988
  65.5990012   4.3964997  41.1679988  65.6691829   3.5867985  40.8565940
  67.5310012  18.5114997  39.0959988  68.3970012  18.8774997  38.9179988
  67.2840012  18.0714997  38.2819988  67.6162392  18.5021756  38.9616289
  74.2400012  18.0744997  41.7749988  74.0450012  17.3264997  41.2099988
  74.2010012  18.8324997  41.1919988  74.2080380  18.0746099  41.6188384
  59.8870012   2.0694997  53.5149988  59.5210012   1.3044997  53.9579988
  60.8000012   2.0984997  53.8019988  59.9602790   1.9687224  53.6144070
  61.8600012   1.4204997  55.0509988  62.7580012   1.1464997  54.8659988
  61.4730012   0.6774997  55.5149988  61.9306612   1.2825914  55.0883643
  60.4840012  18.2214997  37.7239988  60.2170012  18.5084997  38.5969988
  61.2560012  17.6754997  37.8759988  60.5517488  18.1870294  37.8641050
  70.2810012   0.7524997  55.2329988  70.3580012   0.3264997  56.0869988
  71.1750012   0.7664997  54.8899988  70.4123428   0.6960879  55.3035310
  73.4570012  16.8254997  53.9249988  72.6750012  16.6394997  53.4059988
  73.3850012  17.7544997  54.1429988  73.3401777  16.9256492  53.8834048
  87.8630012  10.7114997  43.9559988  87.9520012  11.6554997  43.8239988
  87.2250012  10.4364997  43.2979988  87.7889081  10.8034830  43.8489614
  86.7960012   9.9664997  47.3749988  86.7580012   9.3204997  48.0799988
  86.4740012   9.5004997  46.6039988  86.7472333   9.8149408  47.3672978
  79.1650012   9.5814997  48.9679988  79.2060012   8.9554997  49.6909988
  79.8680012  10.2054997  49.1499988  79.2656363   9.5801196  49.0916044
  90.5020012  12.9054997  45.6759988  90.0620012  12.1854997  46.1269988
  90.4890012  13.6264997  46.3059988  90.4400226  12.9043731  45.8228494
  80.0880012  14.0314997  47.5029988  79.7190012  13.2294997  47.1329988
  81.0290012  13.8624997  47.5489988  80.1647289  13.8990153  47.4586316
  76.6980012   7.6914997  42.8959988  76.2510012   8.5374997  42.8769988
  76.1370012   7.1114997  42.3799988  76.5609900   7.7289916  42.8236801
  77.4090012   9.8534997  45.0219988  77.6220012   9.0834997  45.5489988
  78.1470012   9.9424997  44.4179988  77.5378496   9.7601394  45.0125300
  87.6140012  18.0104997  45.8889988  88.2340012  17.3334997  45.6149988
  87.4060012  17.7924997  46.7969988  87.6706904  17.8883870  45.9743365
  85.1860012  12.3994997  47.7809988  85.4900012  11.7134997  47.1859988
  85.9070012  12.5174997  48.3989988  85.3250671  12.3216305  47.7831816
  93.8490012   4.0004997  48.6419988  93.8980012   4.6104997  49.3779988
  94.2740012   4.4614997  47.9189988  93.9131824   4.1463741  48.6450205
  88.3270012   6.7934997  48.1089988  88.4690012   5.8474997  48.1289988
  88.2200012   7.0004997  47.1799988  88.3319864   6.6919534  47.9862339
  81.4810012   4.8944997  45.3809988  81.5250012   5.7544997  44.9629988
  81.0240012   4.3424997  44.7469988  81.4252185   4.9375799  45.2380299
  89.2040012   5.0254997  43.7819988  89.8500012   4.6964997  44.4069988
  89.7140012   5.5434997  43.1589988  89.3614264   5.0504611  43.7833862
  78.1020012   7.2914997  46.1429988  78.7550012   6.7414997  46.5749988
  78.1260012   7.0174997  45.2259988  78.1946683   7.1791466  46.0782123
  83.2580012   8.8414997  45.3579988  83.8740012   8.3154997  45.8679988
  82.6720012   8.2014997  44.9549988  83.2630810   8.6829208  45.3733173
  94.2400012   5.4784997  50.8779988  93.5520012   6.1364997  50.7819988
  94.2560012   5.2814997  51.8139988  94.1478525   5.5420462  50.9914808
  80.2920012   3.8124997  49.4549988  80.0730012   4.3424997  48.6889988
  79.6240012   4.0394997  50.1019988  80.1717600   3.9156906  49.4376379
  87.6610012  13.3124997  42.9989988  87.3650012  12.9904997  42.1479988
  87.3360012  14.2124997  43.0399988  87.5766371  13.3900215  42.8881801
  82.8610012  11.4884997  49.7419988  82.1210012  12.0864997  49.8459988
  83.5750012  12.0424997  49.4269988  82.8562237  11.6452831  49.7136465
  90.9680012   4.3164997  45.7619988  90.7520012   3.5504997  46.2949988
  91.6230012   4.7884997  46.2749988  91.0270632   4.2755889  45.9042861
  79.8850012   5.7044997  47.4069988  80.4990012   6.3374997  47.7809988
  80.3970012   5.2324997  46.7509988  80.0382296   5.7272370  47.3694252
  81.2680012  13.4524997  50.5299988  81.2630012  14.3324997  50.1519988
  80.4150012  13.3694997  50.9549988  81.1519464  13.5616117  50.5357907
  77.3890012  13.1234997  41.3119988  77.1170012  13.3524997  40.4229988
  77.4350012  13.9614997  41.7719988  77.3580094  13.2681213  41.2525697
  91.0140012  14.7454997  48.0239988  90.0730012  14.8034997  48.1859988
  91.2910012  15.6514997  47.8869988  90.9224679  14.8759443  48.0276815
  91.3150012   3.0314997  49.4419988  90.5790012   3.6424997  49.4039988
  91.9980012   3.4464997  48.9149988  91.3066541   3.1711374  49.3655832
  84.3180012   1.1184997  46.9079988  84.2010012   0.1694997  46.8529988
  83.4630012   1.4504997  47.1809988  84.1863733   1.0335409  46.9373897
  89.2660012  16.5264997  44.6499988  89.6920012  15.8194997  44.1649988
  89.5830012  17.3274997  44.2329988  89.3671019  16.5380994  44.5273130
  90.4260012  14.4274997  43.1579988  90.1680012  13.7374997  42.5469988
  90.4970012  13.9844997  44.0039988  90.4002856  14.2732124  43.1886885
  92.1120012  12.9934997  51.6359988  92.2520012  12.4024997  50.8959988
  92.2790012  13.8664997  51.2789988  92.1536778  13.0306426  51.4866965
  86.5850012   9.9554997  41.4079988  85.8730012  10.4904997  41.0559988
  87.2760012  10.0114997  40.7479988  86.5810132  10.0362543  41.2706289
  86.6380012   8.4134997  38.4469988  87.3390012   8.4354997  39.0979988
  86.9410012   7.7854997  37.7909988  86.7747830   8.3316566  38.4473711
  93.9540012   9.3334997  49.7019988  93.3010012  10.0284997  49.7909988
  94.4190012   9.5434997  48.8919988  93.9275390   9.4569425  49.6046883
  89.9900012  10.1654997  42.3599988  89.2580012  10.3934997  42.9329988
  90.4380012   9.4514997  42.8149988  89.9503095  10.1002571  42.4999119
  89.8880012   8.3394997  51.4269988  89.9680012   9.1024997  51.9989988
  89.2860012   8.6184997  50.7369988  89.8175756   8.4817134  51.4120589
  81.6360012  10.7954997  44.2419988  81.3050012  10.4254997  43.4239988
  82.2240012  10.1254997  44.5889988  81.6701873  10.6541156  44.1768102
  83.0020012  14.2234997  46.9239988  82.9080012  13.6454997  46.1669988
  83.7320012  13.8524997  47.4199988  83.0877981  14.0942390  46.8874165
  82.0020012   9.5644997  47.8759988  82.5680012   9.6854997  47.1129988
  82.3210012  10.2014997  48.5149988  82.1225786   9.6671884  47.8580040
  88.3110012  15.0674997  48.6099988  88.0710012  15.7294997  49.2579988
  88.1130012  14.2334997  49.0349988  88.2513808  15.0453134  48.7561524
  82.8820012  13.9634997  52.5929988  82.5710012  14.7454997  53.0479988
  82.2320012  13.8104997  51.9069988  82.7515558  14.0499105  52.5625871
  88.8610012   9.3274997  40.0449988  89.4410012   9.4774997  40.7919988
  89.2750012   9.7984997  39.3219988  88.9962830   9.4116841  40.0494134
  79.8020012  10.1614997  51.8219988  79.8730012  10.8124997  52.5199988
  78.9120012  10.2644997  51.4869988  79.6913117  10.2645936  51.8722700
  86.5880012  16.0644997  43.4799988  87.0620012  16.3594997  44.2579988
  86.0250012  16.8024997  43.2469988  86.5767653  16.2046932  43.5550136
  81.1220012  16.0354997  53.3559988  81.1290012  15.8994997  52.4089988
  80.2060012  15.9174997  53.6079988  80.9991714  16.0009430  53.2604666
  92.5600012   1.0774997  39.8579988  91.6600012   1.2164997  40.1529988
  92.8120012   1.9084997  39.4559988  92.4708702   1.2089074  39.8440205
  80.6260012   9.8654997  41.8319988  80.3340012  10.6334997  41.3409988
  79.9520012   9.2054997  41.6689988  80.4949081   9.8814406  41.7427340
  93.7490012  15.4434997  38.2339988  93.8230012  16.3824997  38.4049988
  94.6550012  15.1384997  38.1779988  93.8815100  15.5306722  38.2498119
  76.7190012  12.2284997  50.6469988  76.2180012  12.2004997  49.8319988
  76.7240012  11.3224997  50.9559988  76.6511526  12.1022278  50.5772872
  76.4690012  15.0084997  47.5309988  77.4150012  14.8644997  47.5119988
  76.3570012  15.7924997  48.0679988  76.5832727  15.0948046  47.6010072
  94.6670012  15.6744997  53.2129988  94.6180012  14.7194997  53.1759988
  93.8400012  15.9424997  53.6139988  94.5484940  15.5798998  53.2621375
  85.6460012  15.2484997  52.0889988  85.7330012  16.0744997  52.5639988
  84.7820012  14.9184997  52.3379988  85.5411964  15.3169878  52.1876549
  86.0600012  19.0204997  41.8949988  85.9850012  18.8994997  40.9489988
  86.0930012  19.9704997  42.0139988  86.0541848  19.1322500  41.7814834
  79.7130012  17.8094997  43.6759988  79.8660012  17.4614997  44.5549988
  78.8630012  17.4534997  43.4209988  79.6188962  17.7136650  43.7618340
  89.1620012  18.1744997  38.8969988  89.5370012  17.4304997  38.4269988
  89.1660012  17.9044997  39.8159988  89.2138915  18.0361486  38.9567824
  88.8310012  18.1004997  41.6469988  87.8950012  18.2004997  41.8249988
  89.1110012  17.3914997  42.2249988  88.7408255  18.0182711  41.7495391
  91.8190012   7.1674997  53.6929988  91.4120012   7.6484997  52.9719988
  91.8600012   6.2624997  53.3849988  91.7688437   7.1109374  53.5526683
  78.9680012  13.5514997  51.6899988  79.1840012  13.1904997  52.5489988
  78.1130012  13.1774997  51.4799988  78.8819292  13.4514111  51.7793386
  81.5870012   2.0214997  47.6849988  80.7250012   1.9344997  47.2779988
  81.5640012   2.8774997  48.1129988  81.4660330   2.1252765  47.6871863
  86.2500012   1.7434997  51.0599988  86.6700012   1.3284997  51.8129988
  85.3170012   1.5654997  51.1769988  86.1813644   1.6625900  51.1789539
  89.5760012   5.4994997  51.9129988  89.0620012   5.3734997  52.7109988
  89.4210012   6.4114997  51.6689988  89.4846852   5.6056132  51.9892158
  90.3390012  10.3604997  37.6749988  90.3810012  10.1374997  36.7449988
  91.1880012  10.7594997  37.8649988  90.4595396  10.3839155  37.5733627
  85.9110012   4.2364997  38.3449988  85.6580012   4.2554997  39.2679988
  85.6550012   3.3644997  38.0439988  85.8417790   4.1212437  38.4306263
  81.6780012   6.9874997  48.7799988  81.0360012   6.9464997  49.4889988
  81.7150012   7.9134997  48.5429988  81.5951324   7.1071559  48.8449824
  81.6750012   7.2084997  43.6919988  80.7820012   6.8674997  43.6339988
  82.1250012   6.8314997  42.9369988  81.6137305   7.1108484  43.5819177
  87.2100012   7.6244997  42.5089988  86.8010012   8.4394997  42.2179988
  87.9310012   7.4844997  41.8949988  87.2514537   7.7172018  42.3861342
  86.3120012   7.7994997  53.9969988  85.7500012   7.0954997  54.3179988
  87.1390012   7.6794997  54.4649988  86.3467095   7.6867883  54.1042330
  88.2150012   7.0704997  45.3229988  88.0200012   7.6754997  44.6079988
  88.3960012   6.2364997  44.8889988  88.2127614   7.0406300  45.1664405
  79.4280012   7.3074997  50.6469988  79.3900012   7.7074997  51.5159988
  78.9370012   6.4904997  50.7379988  79.3564684   7.2518069  50.7781059
  82.7940012   4.6814997  37.4459988  82.3630012   4.2364997  38.1759988
  82.0760012   5.0534997  36.9339988  82.6379438   4.6708940  37.4766799
  76.0360012   4.4234997  44.4979988  76.6670012   4.3944997  45.2169988
  76.4850012   3.9984997  43.7679988  76.1830774   4.3620492  44.4976553
  77.3100012   5.1694997  39.9219988  77.7840012   5.7604997  39.3369988
  76.5930012   5.7004997  40.2689988  77.2779341   5.3220867  39.8888836
  87.4790012   8.7084997  49.9949988  87.8020012   8.0774997  49.3519988
  87.0390012   8.1734997  50.6549988  87.4636895   8.5498441  49.9962850
  84.2560012   4.6354997  44.7789988  83.3450012   4.6924997  45.0669988
  84.7620012   4.5754997  45.5889988  84.1995413   4.6351985  44.9280622
  79.0850012   6.2644997  43.6049988  78.1950012   6.3644997  43.2649988
  79.3810012   5.4224997  43.2589988  79.0032823   6.1643545  43.5117213
  82.7380012   6.2644997  41.2619988  83.6690012   6.3934997  41.4399988
  82.5230012   6.9344997  40.6119988  82.8364247   6.3726565  41.1985747
  88.6610012   3.8704997  48.0429988  87.9850012   4.0014997  48.7069988
  88.1760012   3.7154997  47.2329988  88.5027145   3.8674905  48.0244517
  81.4120012   7.4594997  38.8289988  80.8690012   7.0794997  38.1369988
  82.2450012   7.6534997  38.3999988  81.4504399   7.4338124  38.6764526
  91.9490012  19.5424997  54.3199988  92.1490012  19.9664997  53.4849988
  92.6040012  19.8854997  54.9269988  92.0650051  19.6469648  54.2877836
  79.5470012  12.0164997  53.9279988  80.2790012  12.2704997  54.4889988
  78.7670012  12.2204997  54.4429988  79.5418232  12.0789177  54.0745760
  85.5760012   7.4234997  46.6659988  86.1410012   6.8764997  46.1189988
  85.4290012   6.9014997  47.4539988  85.6332918   7.2782024  46.6978454
  80.5780012   3.5594997  43.0839988  80.2610012   2.6574997  43.0489988
  81.3600012   3.5614997  42.5309988  80.6402284   3.4361628  43.0044783
  84.2030012   5.8114997  49.0799988  83.3670012   6.2654997  49.1899988
  84.7270012   6.0874997  49.8319988  84.1594414   5.9109376  49.1967136
  84.7470012  12.0244997  40.7639988  84.0020012  11.5174997  40.4419988
  84.6130012  12.0734997  41.7109988  84.6268776  11.9616940  40.8478647
  91.8970012  11.1574997  49.5509988  92.5390012  11.6144997  49.0069988
  91.0670012  11.2704997  49.0879988  91.8725963  11.2352704  49.4140177
  88.6450012   4.8384997  38.9639988  87.7060012   4.9504997  38.8119988
  88.9420012   5.6954997  39.2699988  88.5567666   4.9696443  38.9845768
  86.2660012  12.2084997  52.0009988  85.9210012  11.8274997  52.8079988
  86.0660012  13.1424997  52.0729988  86.1918061  12.2825228  52.1210961
  89.3630012   6.7054997  40.6239988  90.2550012   6.5684997  40.9429988
  89.4200012   7.4964997  40.0879988  89.4926285   6.7936660  40.5951691
  79.8720012  11.3194997  46.5339988  80.6170012  11.3174997  45.9329988
  79.9500012  10.4964997  47.0159988  79.9845518  11.2079315  46.5168929
  86.8730012  13.4834997  39.7899988  86.5770012  14.3094997  40.1709988
  86.1700012  12.8634997  39.9859988  86.7374914  13.5128199  39.8686443
  76.8800012   9.7804997  51.8489988  77.1030012   9.3624997  52.6809988
  76.2780012   9.1674997  51.4259988  76.8291759   9.6404668  51.9057022
  83.8960012   9.2974997  54.0619988  83.6000012   9.1314997  53.1669988
  84.8280012   9.0774997  54.0509988  83.9814166   9.2450640  53.9380536
  88.5170012  14.6704997  51.9519988  87.6160012  14.8534997  51.6839988
  88.5510012  14.9294997  52.8729988  88.3983041  14.7305512  52.0398197
  94.2480012   6.9154997  40.3189988  93.6940012   6.5194997  39.6469988
  94.3480012   7.8254997  40.0409988  94.1857059   6.9843586  40.1894401
  94.2110012  12.7154997  53.1559988  93.3600012  12.9534997  52.7889988
  94.8020012  12.6984997  52.4029988  94.1742487  12.7458258  53.0038893
  92.5430012  15.7014997  40.7839988  92.1700012  14.8754997  41.0929988
  92.8210012  15.5184997  39.8869988  92.5295630  15.5637303  40.7049626
  89.7040012  10.5094997  47.8049988  88.7750012  10.2774997  47.7779988
  90.1550012   9.7324997  47.4749988  89.6379216  10.3727238  47.7566917
  82.2470012  14.8374997  43.9379988  82.7740012  15.6104997  43.7379988
  81.3670012  15.0624997  43.6369988  82.2001773  14.9738005  43.8699010
  78.0020012   9.6994997  38.5249988  78.6180012  10.3264997  38.9049988
  77.1400012  10.0154997  38.7969988  77.9697698   9.8279430  38.6137183
  83.6740012  12.5004997  43.5149988  83.4330012  13.4254997  43.5559988
  82.9330012  12.0414997  43.9109988  83.5408409  12.5651421  43.5741377
  84.1890012  16.6494997  49.8299988  84.5510012  17.5044997  49.5959988
  84.7200012  16.3574997  50.5699988  84.3104473  16.7271060  49.8980855
  82.3570012  17.5224997  43.0599988  81.4070012  17.6274997  43.1109988
  82.7090012  18.3424997  43.4049988  82.2744203  17.6478314  43.1136650
  87.7330012  12.7484997  49.5299988  87.3070012  12.5214997  50.3569988
  88.3130012  12.0104997  49.3479988  87.7531868  12.6175299  49.6185830
  89.9360012  13.6774997  38.6039988  90.2890012  13.2974997  39.4089988
  88.9870012  13.5844997  38.6909988  89.8560441  13.6129596  38.7258559
  90.3910012  17.3004997  51.9999988  89.7900012  16.7454997  51.5039988
  90.6730012  17.9674997  51.3739988  90.3468519  17.3146841  51.8474952
  94.4390012  18.1574997  38.8049988  95.1830012  18.7434997  38.6649988
  93.7450012  18.7254997  39.1389988  94.4470292  18.3145582  38.8309961
  78.5140012   4.5334997  51.4069988  77.6210012   4.8724997  51.3389988
  78.4150012   3.6784997  51.8249988  78.3784164   4.4642588  51.4542235
  90.8020012  12.3504997  40.8309988  90.5240012  11.6224997  41.3869988
  91.7290012  12.4694997  41.0359988  90.8893124  12.2668802  40.9348845
  78.1650012  16.3384997  49.8419988  78.3820012  15.4064997  49.8109988
  78.4110012  16.6124997  50.7249988  78.2279549  16.2480636  49.9571763
  84.0270012  14.7894997  37.0509988  84.2660012  14.0414997  36.5039988
  83.7580012  14.4014997  37.8839988  84.0233675  14.6346638  37.0886865
  82.9640012  14.3594997  39.5079988  83.1100012  13.8394997  40.2979988
  82.9610012  15.2664997  39.8139988  82.9835989  14.4108853  39.6576088
  79.4170012  11.6124997  40.0179988  78.7310012  11.9644997  40.5849988
  79.9390012  12.3754997  39.7709988  79.3936852  11.7638578  40.0622118
  87.2480012   4.2744997  50.2969988  87.9470012   4.3484997  50.9469988
  86.8670012   3.4104997  50.4509988  87.2921767   4.1677624  50.4068322
  88.0330012   3.9264997  41.3939988  88.2530012   4.3984997  40.5909988
  88.5910012   4.3214997  42.0639988  88.1384968   4.0444285  41.3747331
  85.7010012  16.0574997  40.2569988  84.8850012  16.5544997  40.3089988
  86.2310012  16.5324997  39.6169988  85.6609161  16.1897722  40.1775956
  85.2330012   5.6544997  42.2289988  86.0450012   6.1594997  42.2749988
  84.9880012   5.5094997  43.1429988  85.3110520   5.7040375  42.3588517
  85.7680012   6.6404997  51.4139988  85.8870012   7.2144997  52.1709988
  86.4240012   5.9524997  51.5279988  85.8729757   6.6261079  51.5330825
  86.1160012   2.7354997  43.1669988  85.7700012   3.3534997  43.8119988
  86.7750012   3.2364997  42.6859988  86.1577826   2.8875802  43.1900971
  83.0400012  17.1014997  40.2389988  83.2000012  17.9004997  39.7379988
  82.8420012  17.4074997  41.1239988  83.0351649  17.2524469  40.2899815
  81.7740012   3.7984997  39.8539988  81.6910012   4.6874997  40.2009988
  82.6640012   3.5334997  40.0859988  81.8829469   3.8841430  39.9327626
  91.9730012   4.5474997  52.2489988  91.0560012   4.8104997  52.1609988
  92.3080012   4.5444997  51.3519988  91.8929900   4.5830224  52.1157919
  90.5750012   8.2984997  46.3439988  89.7770012   7.8834997  46.0159988
  91.0200012   7.6074997  46.8349988  90.5259885   8.1483543  46.3654889
  80.0330012  14.2264997  38.9149988  80.6250012  14.9254997  39.1909988
  80.4920012  13.7934997  38.1949988  80.1761142  14.2637049  38.8554830
  78.3490012   6.8904997  38.0309988  78.3040012   7.8294997  38.2089988
  77.4610012   6.6544997  37.7609988  78.2228574   6.9871892  38.0188912
  91.6610012  17.5544997  47.9669988  91.5060012  18.2324997  47.3099988
  92.5940012  17.6264997  48.1699988  91.7658500  17.6570170  47.9045119
  79.1570012   1.6724997  46.7039988  78.9280012   1.7314997  45.7759988
  78.7140012   0.8804997  47.0099988  79.0658530   1.5735753  46.6184786
  78.0870012  15.6124997  42.8639988  77.2550012  16.0854997  42.8919988
  78.6330012  16.1224997  42.2659988  78.0469739  15.7461871  42.7869716
  77.3750012  18.2254997  54.1939988  77.9160012  18.0084997  54.9539988
  76.8940012  17.4194997  54.0049988  77.3839345  18.0869514  54.2723076
  81.9730012  17.1444997  55.8149988  82.7400012  16.6854997  56.1559988
  81.9510012  16.9184997  54.8849988  82.0751434  17.0510409  55.7360043
  86.0650012  16.6524997  37.1899988  85.4210012  16.0214997  37.5109988
  86.8270012  16.1214997  36.9579988  86.0798077  16.4942920  37.2026011
  88.5500012  15.5244997  54.5439988  88.1990012  14.6684997  54.7869988
  89.2760012  15.6674997  55.1509988  88.6000769  15.4265636  54.6593619
  90.6690012  16.4694997  37.4239988  90.9520012  15.6754997  37.8759988
  91.4090012  16.7024997  36.8629988  90.8077486  16.3922803  37.4100698
  77.2820012  12.0354997  55.1489988  77.4260012  11.1334997  54.8619988
  76.5100012  12.3214997  54.6609988  77.1973323  11.9508261  55.0437881
  81.6240012  12.3794997  37.2809988  81.6880012  11.5854997  37.8119988
  82.2770012  12.2604997  36.5909988  81.7210241  12.2547148  37.2604317
  83.9380012  12.0054997  54.5809988  83.6090012  12.2764997  53.7239988
  84.0900012  11.0644997  54.4939988  83.9134809  11.9153862  54.4518244
  86.9760012  13.4264997  37.0169988  86.7070012  13.6064997  37.9179988
  86.7700012  12.5004997  36.8859988  86.9113825  13.3260152  37.1225214
  89.6720012  11.9214997  51.9649988  90.4180012  12.5094997  51.8449988
  88.9150012  12.5034997  52.0279988  89.6717554  12.0807011  51.9570907
  78.1150012   9.2354997  54.5689988  78.5230012   8.3784997  54.4479988
  77.8550012   9.2504997  55.4899988  78.1357568   9.1200807  54.6769588
  82.7730012  10.3514997  39.5869988  82.3130012   9.8674997  40.2729988
  83.0280012   9.6834997  38.9509988  82.7444902  10.1948731  39.5949334
  82.0620012   8.2444997  51.9429988  81.4440012   8.9194997  52.2229988
  82.4060012   8.5654997  51.1099988  82.0239615   8.3802721  51.8686581
  83.8440012   8.5944997  37.8489988  83.6640012   8.4404997  36.9219988
  84.7940012   8.7024997  37.8939988  83.9477776   8.5880175  37.7281843
  87.0820012  10.7164997  55.2199988  88.0350012  10.7994997  55.1929988
  86.9210012  10.0044997  55.8399988  87.1906426  10.6316746  55.3000579
  93.2340012  10.9494997  37.2949988  92.9600012  10.5244997  36.4819988
  93.2730012  11.8804997  37.0779988  93.2017699  11.0172484  37.1543610
  82.4010012   5.5994997  53.0249988  82.5510012   4.8704997  52.4229988
  82.4040012   6.3764997  52.4659988  82.4219302   5.6047851  52.8670692
  82.8140012   3.9694997  50.5179988  83.3500012   4.4204997  49.8659988
  81.9620012   3.8614997  50.0949988  82.7722178   4.0166390  50.3715756
  84.3960012   9.4084997  50.7569988  85.1460012   9.2524997  50.1839988
  84.0570012  10.2604997  50.4819988  84.4528921   9.5022968  50.6413561
  88.8110012   7.2234997  55.7859988  89.0040012   6.2924997  55.6739988
  89.6690012   7.6484997  55.7759988  88.9533020   7.1536389  55.7693361
  90.1280012  10.0124997  53.8629988  89.8470012  10.7214997  53.2859988
  91.0710012   9.9394997  53.7119988  90.2169027  10.0997646  53.7635551
  80.8800012   6.7974997  54.9369988  80.1130012   6.2654997  54.7269988
  81.5590012   6.4874997  54.3369988  80.8667022   6.6827506  54.8271648
  83.6200012   1.4254997  50.9489988  83.5210012   2.3724997  50.8439988
  82.8770012   1.0534997  50.4739988  83.5060564   1.5045902  50.8704560
  84.8840012   5.7474997  54.5129988  84.6480012   5.5274997  55.4149988
  84.1000012   5.5404997  54.0029988  84.7458628   5.6894760  54.5673932
  87.5990012   4.8744997  53.5889988  86.6520012   4.9064997  53.7209988
  87.9120012   4.2494997  54.2419988  87.5115475   4.7943207  53.6954455
  89.2330012   3.5084997  55.5939988  89.1370012   2.5564997  55.5879988
  88.9120012   3.7774997  56.4539988  89.1764070   3.4144035  55.7095441
  79.0600012   4.7184997  54.6409988  79.2720012   4.0114997  54.0309988
  78.9490012   4.2804997  55.4849988  79.0739721   4.5627084  54.6716843
  83.8410012   0.7194997  53.6209988  84.5530012   0.0794997  53.6069988
  83.7400012   0.9864997  52.7069988  83.9247939   0.6679938  53.4955650
  84.1950012   2.4024997  55.6739988  84.0630012   1.9264997  54.8539988
  83.5960012   3.1464997  55.6189988  84.0959071   2.4379618  55.5542886
  83.7410012  19.2854997  38.8509988  84.6740012  19.4434997  38.9939988
  83.4770012  19.9604997  38.2259988  83.8329510  19.3983611  38.7860741
  77.3100012  13.9214997  38.3329988  78.2240012  14.0004997  38.6069988
  77.3170012  13.2344997  37.6669988  77.4361131  13.8393961  38.2804393
  75.9590012  19.3144997  43.4109988  75.3120012  18.8524997  42.8779988
  76.3130012  18.6424997  43.9929988  75.9183849  19.1604723  43.4167959
  76.8290012  17.3954997  45.2149988  76.4940012  16.5154997  45.3869988
  77.0510012  17.7404997  46.0799988  76.8131783  17.3217500  45.3554208
  94.3770012  18.2044997  48.1959988  94.3560012  18.3894997  49.1349988
  95.0680012  18.7734997  47.8549988  94.4674618  18.3066606  48.2783864
  93.9410012  17.7724997  51.1179988  93.4530012  17.0364997  50.7469988
  94.4900012  17.3784997  51.7959988  93.9484872  17.6186249  51.1589160
  92.3910012  13.5614997  55.7559988  91.5250012  13.4564997  56.1499988
  92.7680012  14.3204997  56.2019988  92.3233308  13.6496900  55.8702393
  93.6920012  11.8184997  41.2699988  94.5420012  12.2394997  41.3969988
  93.6980012  11.0784997  41.8769988  93.8091372  11.7760803  41.3694344
  94.0870012   9.8714997  43.0939988  93.3600012   9.3924997  43.4909988
  94.6680012  10.0774997  43.8259988  94.0659375   9.8337090  43.2474129
  93.8460012  12.6564997  48.0409988  94.6790012  12.2784997  47.7609988
  93.9580012  13.5994997  47.9219988  93.9752647  12.7322218  47.9865487
  92.3320012  15.5344997  50.3479988  91.6850012  15.8594997  50.9739988
  91.8150012  15.0944997  49.6739988  92.1734029  15.5195004  50.3425827
  94.3550012   9.7724997  39.4849988  93.8330012  10.1294997  38.7659988
  94.3220012  10.4474997  40.1629988  94.2791634   9.9125413  39.4783145
  92.7040012   7.0124997  38.0359988  92.8000012   7.6794997  37.3549988
  92.5640012   6.1964997  37.5539988  92.6982135   6.9934500  37.8778491
  91.8730012   8.3924997  43.6569988  91.7230012   7.4474997  43.6359988
  91.5200012   8.6734997  44.4999988  91.8046625   8.3010441  43.7682346
  76.9090012  10.4704997  47.6669988  77.0930012  10.3884997  46.7309988
  77.7580012  10.3464997  48.0909988  77.0490139  10.4425003  47.5961455
  92.7300012  10.3624997  53.2949988  93.3130012   9.6284997  53.4869988
  93.2940012  11.1344997  53.3419988  92.8859769  10.3664227  53.3276159
  94.2260012   8.2654997  53.9799988  93.3630012   7.8864997  53.8139988
  94.8310012   7.5264997  53.9059988  94.1895979   8.1138023  53.9472817
  91.9510012   4.4204997  37.1529988  92.5620012   4.0494997  37.7899988
  91.1150012   3.9994997  37.3489988  91.9215032   4.3127554  37.2667035
  91.5840012   5.9754997  42.1189988  91.8640012   5.0684997  42.2429988
  92.3430012   6.4094997  41.7299988  91.7249277   5.9100942  42.0833682
  92.1960012   6.5564997  47.5549988  93.1290012   6.7684997  47.5209988
  91.9610012   6.6584997  48.4769988  92.2918036   6.5992769  47.6749976
  92.2250012   7.2934997  50.3309988  91.3820012   7.5614997  50.6969988
  92.6670012   8.1154997  50.1199988  92.1694158   7.4413291  50.3525491
  76.5060012   5.7414997  53.8079988  77.4260012   5.6194997  54.0439988
  76.0570012   4.9914997  54.1969988  76.5711580   5.6233727  53.8929006
  94.5080012   1.2734997  55.6839988  94.8580012   0.6194997  55.0789988
  94.6550012   2.1104997  55.2449988  94.5758419   1.2971591  55.5417118
  92.1970012   3.2384997  42.1669988  92.3800012   2.7894997  42.9929988
  91.5980012   2.6534997  41.7039988  92.1410202   3.0979975  42.2173275
  77.7270012   4.0534997  46.6989988  78.1730012   3.2614997  47.0009988
  78.1940012   4.7694997  47.1299988  77.8510172   4.0420624  46.7984820
  76.0310012   7.0524997  47.7679988  76.5230012   6.8314997  46.9769988
  76.3940012   7.8934997  48.0489988  76.1473126   7.1358357  47.6977531
  94.0280012   3.3824997  54.0339988  93.1100012   3.6534997  53.9979988
  94.1510012   2.8474997  53.2489988  93.9191066   3.3472892  53.9230487
  94.0640012   3.3054997  38.6949988  94.4760012   2.5844997  38.2199988
  94.7460012   3.9754997  38.7539988  94.2125885   3.2972368  38.6378915
  76.3450012   3.3104997  41.8219988  75.4200012   3.5194997  41.6929988
  76.7990012   3.7944997  41.1329988  76.2797368   3.4045993  41.7111226
  91.1160012  18.2944997  43.7679988  91.7680012  17.9474997  43.1599988
  91.6260012  18.7834997  44.4139988  91.2742637  18.3130597  43.7720236
  76.3090012   2.0484997  50.1669988  75.6440012   1.8024997  50.8099988
  75.8660012   2.6704997  49.5889988  76.1580956   2.0988632  50.1769352
  78.5010012  15.2234997  54.3109988  77.6800012  15.3984997  53.8509988
  78.2480012  15.1504997  55.2319988  78.3546164  15.2375622  54.3724923
  81.4550012  16.1984997  50.5699988  81.0300012  17.0074997  50.2869988
  82.3590012  16.2834997  50.2679988  81.5190271  16.3208469  50.4903776
  85.7660012  17.5974997  53.5289988  85.9510012  17.2634997  54.4069988
  86.6120012  17.9064997  53.2069988  85.9057539  17.5936047  53.6055605
  88.1110012  18.8834997  52.7729988  88.7880012  18.2504997  52.5329988
  88.4330012  19.2844997  53.5799988  88.2471637  18.8511154  52.8492793
  93.0280012   1.4724997  51.8529988  92.2160012   1.7974997  51.4649988
  93.2610012   0.7124997  51.3199988  92.9483423   1.4142436  51.7278253
  78.8570012  19.4544997  50.6169988  78.1360012  19.8944997  50.1659988
  78.4910012  19.2034997  51.4659988  78.7089804  19.4807698  50.6699840
  81.3240012  19.0544997  49.6469988  80.4590012  19.1264997  50.0509988
  81.2690012  19.6014997  48.8629988  81.1982085  19.1382685  49.5963362
  86.0340012  18.9424997  48.8219988  85.5780012  19.4714997  48.1679988
  86.1970012  19.5454997  49.5479988  85.9935585  19.0964468  48.8305062
  88.3620012  17.8204997  49.7669988  87.4570012  17.9854997  49.5019988
  88.7910012  18.6734997  49.7019988  88.2960799  17.9584483  49.7219182
  90.9660012  19.3904997  50.0619988  90.7840012  20.3064997  49.8519988
  91.1430012  18.9804997  49.2159988  90.9650210  19.4604822  49.9187885
  78.2710012  18.0774997  47.5269988  78.2530012  17.6524997  48.3849988
  79.0760012  17.7594997  47.1189988  78.3773875  17.9763812  47.5891655
  80.4130012  16.7874997  46.1819988  80.1940012  15.8714997  46.3519988
  81.2370012  16.9274997  46.6479988  80.4944420  16.6810520  46.2682774
  82.9500012  17.2574997  47.0309988  83.1630012  16.3694997  46.7439988
  83.0140012  17.2234997  47.9849988  82.9878232  17.1313102  47.1207397
  86.4580012   2.9214997  46.1749988  85.7840012   2.2924997  46.4309988
  87.0220012   2.4374997  45.5719988  86.4419230   2.7698744  46.1285340
  91.6010012   1.0294997  46.2879988  92.2050012   1.5764997  45.7859988
  90.7310012   1.3484997  46.0479988  91.5661241   1.1475806  46.1867654
  93.3280012   2.1674997  44.6209988  93.9400012   1.6534997  44.0949988
  93.7100012   3.0454997  44.6449988  93.4634540   2.2157140  44.5521830
  78.7850012   1.5554997  43.9969988  78.0080012   1.3214997  43.4899988
  79.3150012   0.7584997  44.0059988  78.7502330   1.4156988  43.9287742
  77.6210012   1.3534997  39.8009988  78.0600012   1.9644997  39.2089988
  76.9880012   1.8914997  40.2749988  77.5954514   1.5099257  39.7840930
  83.3640012   1.4824997  43.8109988  84.2390012   1.8704997  43.7809988
  83.2280012   1.2674997  44.7329988  83.4653695   1.5065184  43.9316440
  88.9210012   1.5124997  45.4599988  88.9970012   1.6074997  44.5099988
  88.6460012   0.6044997  45.5889988  88.8942321   1.4027867  45.3475079
  90.2740012   1.5384997  41.1519988  89.5720012   2.1534997  40.9429988
  89.8300012   0.7004997  41.2829988  90.1176330   1.5095783  41.1410328
  77.5220012  17.3014997  40.6989988  76.8370012  17.2634997  40.0309988
  77.5260012  18.2144997  40.9869988  77.4288193  17.4197016  40.6465284
  79.4820012   3.2694997  38.2429988  79.9740012   2.6394997  37.7159988
  80.1060012   3.5654997  38.9069988  79.6335446   3.2233199  38.2605980
  84.5080012   3.5624997  40.6999988  84.6860012   2.9164997  41.3829988
  84.4550012   4.3964997  41.1679988  84.5251829   3.5867985  40.8565940
  86.3870012  18.5114997  39.0959988  87.2530012  18.8774997  38.9179988
  86.1400012  18.0714997  38.2819988  86.4722392  18.5021756  38.9616289
  93.0960012  18.0744997  41.7749988  92.9010012  17.3264997  41.2099988
  93.0570012  18.8324997  41.1919988  93.0640380  18.0746099  41.6188384
  78.7430012   2.0694997  53.5149988  78.3770012   1.3044997  53.9579988
  79.6560012   2.0984997  53.8019988  78.8162790   1.9687224  53.6144070
  80.7160012   1.4204997  55.0509988  81.6140012   1.1464997  54.8659988
  80.3290012   0.6774997  55.5149988  80.7866612   1.2825914  55.0883643
  79.3400012  18.2214997  37.7239988  79.0730012  18.5084997  38.5969988
  80.1120012  17.6754997  37.8759988  79.4077488  18.1870294  37.8641050
  89.1370012   0.7524997  55.2329988  89.2140012   0.3264997  56.0869988
  90.0310012   0.7664997  54.8899988  89.2683428   0.6960879  55.3035310
  92.3130012  16.8254997  53.9249988  91.5310012  16.6394997  53.4059988
  92.2410012  17.7544997  54.1429988  92.1961777  16.9256492  53.8834048
 106.7190012  10.7114997  43.9559988 106.8080012  11.6554997  43.8239988
 106.0810012  10.4364997  43.2979988 106.6449081  10.8034830  43.8489614
 105.6520012   9.9664997  47.3749988 105.6140012   9.3204997  48.0799988
 105.3300012   9.5004997  46.6039988 105.6032333   9.8149408  47.3672978
  98.0210012   9.5814997  48.9679988  98.0620012   8.9554997  49.6909988
  98.7240012  10.2054997  49.1499988  98.1216363   9.5801196  49.0916044
 109.3580012  12.9054997  45.6759988 108.9180012  12.1854997  46.1269988
 109.3450012  13.6264997  46.3059988 109.2960226  12.9043731  45.8228494
  98.9440012  14.0314997  47.5029988  98.5750012  13.2294997  47.1329988
  99.8850012  13.8624997  47.5489988  99.0207289  13.8990153  47.4586316
  95.5540012   7.6914997  42.8959988  95.1070012   8.5374997  42.8769988
  94.9930012   7.1114997  42.3799988  95.4169900   7.7289916  42.8236801
  96.2650012   9.8534997  45.0219988  96.4780012   9.0834997  45.5489988
  97.0030012   9.9424997  44.4179988  96.3938496   9.7601394  45.0125300
 106.4700012  18.0104997  45.8889988 107.0900012  17.3334997  45.6149988
 106.2620012  17.7924997  46.7969988 106.5266904  17.8883870  45.9743365
 104.0420012  12.3994997  47.7809988 104.3460012  11.7134997  47.1859988
 104.7630012  12.5174997  48.3989988 104.1810671  12.3216304  47.7831816
 112.7050012   4.0004997  48.6419988 112.7540012   4.6104997  49.3779988
 113.1300012   4.4614997  47.9189988 112.7691824   4.1463741  48.6450205
 107.1830012   6.7934997  48.1089988 107.3250012   5.8474997  48.1289988
 107.0760012   7.0004997  47.1799988 107.1879864   6.6919534  47.9862339
 100.3370012   4.8944997  45.3809988 100.3810012   5.7544997  44.9629988
  99.8800012   4.3424997  44.7469988 100.2812185   4.9375799  45.2380299
 108.0600012   5.0254997  43.7819988 108.7060012   4.6964997  44.4069988
 108.5700012   5.5434997  43.1589988 108.2174264   5.0504611  43.7833862
  96.9580012   7.2914997  46.1429988  97.6110012   6.7414997  46.5749988
  96.9820012   7.0174997  45.2259988  97.0506683   7.1791466  46.0782123
 102.1140012   8.8414997  45.3579988 102.7300012   8.3154997  45.8679988
 101.5280012   8.2014997  44.9549988 102.1190810   8.6829208  45.3733173
 113.0960012   5.4784997  50.8779988 112.4080012   6.1364997  50.7819988
 113.1120012   5.2814997  51.8139988 113.0038525   5.5420462  50.9914808
  99.1480012   3.8124997  49.4549988  98.9290012   4.3424997  48.6889988
  98.4800012   4.0394997  50.1019988  99.0277600   3.9156906  49.4376379
 106.5170012  13.3124997  42.9989988 106.2210012  12.9904997  42.1479988
 106.1920012  14.2124997  43.0399988 106.4326371  13.3900215  42.8881801
 101.7170012  11.4884997  49.7419988 100.9770012  12.0864997  49.8459988
 102.4310012  12.0424997  49.4269988 101.7122237  11.6452831  49.7136465
 109.8240012   4.3164997  45.7619988 109.6080012   3.5504997  46.2949988
 110.4790012   4.7884997  46.2749988 109.8830632   4.2755889  45.9042861
  98.7410012   5.7044997  47.4069988  99.3550012   6.3374997  47.7809988
  99.2530012   5.2324997  46.7509988  98.8942296   5.7272370  47.3694252
 100.1240012  13.4524997  50.5299988 100.1190012  14.3324997  50.1519988
  99.2710012  13.3694997  50.9549988 100.0079464  13.5616117  50.5357907
  96.2450012  13.1234997  41.3119988  95.9730012  13.3524997  40.4229988
  96.2910012  13.9614997  41.7719988  96.2140094  13.2681213  41.2525697
 109.8700012  14.7454997  48.0239988 108.9290012  14.8034997  48.1859988
 110.1470012  15.6514997  47.8869988 109.7784679  14.8759443  48.0276815
 110.1710012   3.0314997  49.4419988 109.4350012   3.6424997  49.4039988
 110.8540012   3.4464997  48.9149988 110.1626541   3.1711374  49.3655832
 103.1740012   1.1184997  46.9079988 103.0570012   0.1694997  46.8529988
 102.3190012   1.4504997  47.1809988 103.0423733   1.0335409  46.9373897
 108.1220012  16.5264997  44.6499988 108.5480012  15.8194997  44.1649988
 108.4390012  17.3274997  44.2329988 108.2231019  16.5380994  44.5273130
 109.2820012  14.4274997  43.1579988 109.0240012  13.7374997  42.5469988
 109.3530012  13.9844997  44.0039988 109.2562856  14.2732124  43.1886885
 110.9680012  12.9934997  51.6359988 111.1080012  12.4024997  50.8959988
 111.1350012  13.8664997  51.2789988 111.0096778  13.0306426  51.4866965
 105.4410012   9.9554997  41.4079988 104.7290012  10.4904997  41.0559988
 106.1320012  10.0114997  40.7479988 105.4370132  10.0362543  41.2706289
 105.4940012   8.4134997  38.4469988 106.1950012   8.4354997  39.0979988
 105.7970012   7.7854997  37.7909988 105.6307830   8.3316566  38.4473711
 112.8100012   9.3334997  49.7019988 112.1570012  10.0284997  49.7909988
 113.2750012   9.5434997  48.8919988 112.7835390   9.4569425  49.6046883
 108.8460012  10.1654997  42.3599988 108.1140012  10.3934997  42.9329988
 109.2940012   9.4514997  42.8149988 108.8063095  10.1002571  42.4999119
 108.7440012   8.3394997  51.4269988 108.8240012   9.1024997  51.9989988
 108.1420012   8.6184997  50.7369988 108.6735756   8.4817134  51.4120589
 100.4920012  10.7954997  44.2419988 100.1610012  10.4254997  43.4239988
 101.0800012  10.1254997  44.5889988 100.5261873  10.6541156  44.1768102
 101.8580012  14.2234997  46.9239988 101.7640012  13.6454997  46.1669988
 102.5880012  13.8524997  47.4199988 101.9437981  14.0942390  46.8874165
 100.8580012   9.5644997  47.8759988 101.4240012   9.6854997  47.1129988
 101.1770012  10.2014997  48.5149988 100.9785786   9.6671884  47.8580040
 107.1670012  15.0674997  48.6099988 106.9270012  15.7294997  49.2579988
 106.9690012  14.2334997  49.0349988 107.1073808  15.0453134  48.7561524
 101.7380012  13.9634997  52.5929988 101.4270012  14.7454997  53.0479988
 101.0880012  13.8104997  51.9069988 101.6075558  14.0499105  52.5625871
 107.7170012   9.3274997  40.0449988 108.2970012   9.4774997  40.7919988
 108.1310012   9.7984997  39.3219988 107.8522830   9.4116841  40.0494134
  98.6580012  10.1614997  51.8219988  98.7290012  10.8124997  52.5199988
  97.7680012  10.2644997  51.4869988  98.5473117  10.2645936  51.8722700
 105.4440012  16.0644997  43.4799988 105.9180012  16.3594997  44.2579988
 104.8810012  16.8024997  43.2469988 105.4327653  16.2046932  43.5550136
  99.9780012  16.0354997  53.3559988  99.9850012  15.8994997  52.4089988
  99.0620012  15.9174997  53.6079988  99.8551714  16.0009430  53.2604666
 111.4160012   1.0774997  39.8579988 110.5160012   1.2164997  40.1529988
 111.6680012   1.9084997  39.4559988 111.3268702   1.2089074  39.8440205
  99.4820012   9.8654997  41.8319988  99.1900012  10.6334997  41.3409988
  98.8080012   9.2054997  41.6689988  99.3509081   9.8814406  41.7427340
 112.6050012  15.4434997  38.2339988 112.6790012  16.3824997  38.4049988
 113.5110012  15.1384997  38.1779988 112.7375100  15.5306722  38.2498119
  95.5750012  12.2284997  50.6469988  95.0740012  12.2004997  49.8319988
  95.5800012  11.3224997  50.9559988  95.5071526  12.1022278  50.5772872
  95.3250012  15.0084997  47.5309988  96.2710012  14.8644997  47.5119988
  95.2130012  15.7924997  48.0679988  95.4392727  15.0948046  47.6010072
 113.5230012  15.6744997  53.2129988 113.4740012  14.7194997  53.1759988
 112.6960012  15.9424997  53.6139988 113.4044940  15.5798998  53.2621375
 104.5020012  15.2484997  52.0889988 104.5890012  16.0744997  52.5639988
 103.6380012  14.9184997  52.3379988 104.3971964  15.3169878  52.1876549
 104.9160012  19.0204997  41.8949988 104.8410012  18.8994997  40.9489988
 104.9490012  19.9704997  42.0139988 104.9101848  19.1322500  41.7814834
  98.5690012  17.8094997  43.6759988  98.7220012  17.4614997  44.5549988
  97.7190012  17.4534997  43.4209988  98.4748962  17.7136650  43.7618340
 108.0180012  18.1744997  38.8969988 108.3930012  17.4304997  38.4269988
 108.0220012  17.9044997  39.8159988 108.0698915  18.0361486  38.9567824
 107.6870012  18.1004997  41.6469988 106.7510012  18.2004997  41.8249988
 107.9670012  17.3914997  42.2249988 107.5968255  18.0182711  41.7495391
 110.6750012   7.1674997  53.6929988 110.2680012   7.6484997  52.9719988
 110.7160012   6.2624997  53.3849988 110.6248437   7.1109374  53.5526683
  97.8240012  13.5514997  51.6899988  98.0400012  13.1904997  52.5489988
  96.9690012  13.1774997  51.4799988  97.7379292  13.4514111  51.7793386
 100.4430012   2.0214997  47.6849988  99.5810012   1.9344997  47.2779988
 100.4200012   2.8774997  48.1129988 100.3220330   2.1252765  47.6871863
 105.1060012   1.7434997  51.0599988 105.5260012   1.3284997  51.8129988
 104.1730012   1.5654997  51.1769988 105.0373644   1.6625900  51.1789539
 108.4320012   5.4994997  51.9129988 107.9180012   5.3734997  52.7109988
 108.2770012   6.4114997  51.6689988 108.3406852   5.6056132  51.9892158
 109.1950012  10.3604997  37.6749988 109.2370012  10.1374997  36.7449988
 110.0440012  10.7594997  37.8649988 109.3155396  10.3839155  37.5733627
 104.7670012   4.2364997  38.3449988 104.5140012   4.2554997  39.2679988
 104.5110012   3.3644997  38.0439988 104.6977790   4.1212437  38.4306263
 100.5340012   6.9874997  48.7799988  99.8920012   6.9464997  49.4889988
 100.5710012   7.9134997  48.5429988 100.4511324   7.1071559  48.8449824
 100.5310012   7.2084997  43.6919988  99.6380012   6.8674997  43.6339988
 100.9810012   6.8314997  42.9369988 100.4697305   7.1108484  43.5819177
 106.0660012   7.6244997  42.5089988 105.6570012   8.4394997  42.2179988
 106.7870012   7.4844997  41.8949988 106.1074537   7.7172018  42.3861342
 105.1680012   7.7994997  53.9969988 104.6060012   7.0954997  54.3179988
 105.9950012   7.6794997  54.4649988 105.2027095   7.6867883  54.1042330
 107.0710012   7.0704997  45.3229988 106.8760012   7.6754997  44.6079988
 107.2520012   6.2364997  44.8889988 107.0687614   7.0406300  45.1664405
  98.2840012   7.3074997  50.6469988  98.2460012   7.7074997  51.5159988
  97.7930012   6.4904997  50.7379988  98.2124684   7.2518069  50.7781059
 101.6500012   4.6814997  37.4459988 101.2190012   4.2364997  38.1759988
 100.9320012   5.0534997  36.9339988 101.4939438   4.6708940  37.4766799
  94.8920012   4.4234997  44.4979988  95.5230012   4.3944997  45.2169988
  95.3410012   3.9984997  43.7679988  95.0390774   4.3620492  44.4976553
  96.1660012   5.1694997  39.9219988  96.6400012   5.7604997  39.3369988
  95.4490012   5.7004997  40.2689988  96.1339341   5.3220867  39.8888836
 106.3350012   8.7084997  49.9949988 106.6580012   8.0774997  49.3519988
 105.8950012   8.1734997  50.6549988 106.3196895   8.5498441  49.9962850
 103.1120012   4.6354997  44.7789988 102.2010012   4.6924997  45.0669988
 103.6180012   4.5754997  45.5889988 103.0555413   4.6351985  44.9280622
  97.9410012   6.2644997  43.6049988  97.0510012   6.3644997  43.2649988
  98.2370012   5.4224997  43.2589988  97.8592823   6.1643545  43.5117213
 101.5940012   6.2644997  41.2619988 102.5250012   6.3934997  41.4399988
 101.3790012   6.9344997  40.6119988 101.6924247   6.3726565  41.1985747
 107.5170012   3.8704997  48.0429988 106.8410012   4.0014997  48.7069988
 107.0320012   3.7154997  47.2329988 107.3587145   3.8674905  48.0244517
 100.2680012   7.4594997  38.8289988  99.7250012   7.0794997  38.1369988
 101.1010012   7.6534997  38.3999988 100.3064399   7.4338124  38.6764526
 110.8050012  19.5424997  54.3199988 111.0050012  19.9664997  53.4849988
 111.4600012  19.8854997  54.9269988 110.9210051  19.6469648  54.2877836
  98.4030012  12.0164997  53.9279988  99.1350012  12.2704997  54.4889988
  97.6230012  12.2204997  54.4429988  98.3978232  12.0789177  54.0745760
 104.4320012   7.4234997  46.6659988 104.9970012   6.8764997  46.1189988
 104.2850012   6.9014997  47.4539988 104.4892918   7.2782024  46.6978454
  99.4340012   3.5594997  43.0839988  99.1170012   2.6574997  43.0489988
 100.2160012   3.5614997  42.5309988  99.4962284   3.4361628  43.0044783
 103.0590012   5.8114997  49.0799988 102.2230012   6.2654997  49.1899988
 103.5830012   6.0874997  49.8319988 103.0154414   5.9109376  49.1967136
 103.6030012  12.0244997  40.7639988 102.8580012  11.5174997  40.4419988
 103.4690012  12.0734997  41.7109988 103.4828776  11.9616940  40.8478647
 110.7530012  11.1574997  49.5509988 111.3950012  11.6144997  49.0069988
 109.9230012  11.2704997  49.0879988 110.7285963  11.2352704  49.4140177
 107.5010012   4.8384997  38.9639988 106.5620012   4.9504997  38.8119988
 107.7980012   5.6954997  39.2699988 107.4127666   4.9696443  38.9845768
 105.1220012  12.2084997  52.0009988 104.7770012  11.8274997  52.8079988
 104.9220012  13.1424997  52.0729988 105.0478061  12.2825228  52.1210961
 108.2190012   6.7054997  40.6239988 109.1110012   6.5684997  40.9429988
 108.2760012   7.4964997  40.0879988 108.3486285   6.7936660  40.5951691
  98.7280012  11.3194997  46.5339988  99.4730012  11.3174997  45.9329988
  98.8060012  10.4964997  47.0159988  98.8405518  11.2079315  46.5168929
 105.7290012  13.4834997  39.7899988 105.4330012  14.3094997  40.1709988
 105.0260012  12.8634997  39.9859988 105.5934914  13.5128199  39.8686443
  95.7360012   9.7804997  51.8489988  95.9590012   9.3624997  52.6809988
  95.1340012   9.1674997  51.4259988  95.6851759   9.6404668  51.9057022
 102.7520012   9.2974997  54.0619988 102.4560012   9.1314997  53.1669988
 103.6840012   9.0774997  54.0509988 102.8374166   9.2450640  53.9380536
 107.3730012  14.6704997  51.9519988 106.4720012  14.8534997  51.6839988
 107.4070012  14.9294997  52.8729988 107.2543041  14.7305512  52.0398197
 113.1040012   6.9154997  40.3189988 112.5500012   6.5194997  39.6469988
 113.2040012   7.8254997  40.0409988 113.0417059   6.9843586  40.1894401
 113.0670012  12.7154997  53.1559988 112.2160012  12.9534997  52.7889988
 113.6580012  12.6984997  52.4029988 113.0302487  12.7458258  53.0038893
 111.3990012  15.7014997  40.7839988 111.0260012  14.8754997  41.0929988
 111.6770012  15.5184997  39.8869988 111.3855630  15.5637303  40.7049626
 108.5600012  10.5094997  47.8049988 107.6310012  10.2774997  47.7779988
 109.0110012   9.7324997  47.4749988 108.4939216  10.3727238  47.7566917
 101.1030012  14.8374997  43.9379988 101.6300012  15.6104997  43.7379988
 100.2230012  15.0624997  43.6369988 101.0561773  14.9738005  43.8699010
  96.8580012   9.6994997  38.5249988  97.4740012  10.3264997  38.9049988
  95.9960012  10.0154997  38.7969988  96.8257698   9.8279430  38.6137183
 102.5300012  12.5004997  43.5149988 102.2890012  13.4254997  43.5559988
 101.7890012  12.0414997  43.9109988 102.3968409  12.5651421  43.5741377
 103.0450012  16.6494997  49.8299988 103.4070012  17.5044997  49.5959988
 103.5760012  16.3574997  50.5699988 103.1664473  16.7271060  49.8980855
 101.2130012  17.5224997  43.0599988 100.2630012  17.6274997  43.1109988
 101.5650012  18.3424997  43.4049988 101.1304203  17.6478314  43.1136650
 106.5890012  12.7484997  49.5299988 106.1630012  12.5214997  50.3569988
 107.1690012  12.0104997  49.3479988 106.6091868  12.6175299  49.6185830
 108.7920012  13.6774997  38.6039988 109.1450012  13.2974997  39.4089988
 107.8430012  13.5844997  38.6909988 108.7120441  13.6129596  38.7258559
 109.2470012  17.3004997  51.9999988 108.6460012  16.7454997  51.5039988
 109.5290012  17.9674997  51.3739988 109.2028519  17.3146841  51.8474952
 113.2950012  18.1574997  38.8049988 114.0390012  18.7434997  38.6649988
 112.6010012  18.7254997  39.1389988 113.3030292  18.3145582  38.8309961
  97.3700012   4.5334997  51.4069988  96.4770012   4.8724997  51.3389988
  97.2710012   3.6784997  51.8249988  97.2344164   4.4642588  51.4542235
 109.6580012  12.3504997  40.8309988 109.3800012  11.6224997  41.3869988
 110.5850012  12.4694997  41.0359988 109.7453124  12.2668802  40.9348845
  97.0210012  16.3384997  49.8419988  97.2380012  15.4064997  49.8109988
  97.2670012  16.6124997  50.7249988  97.0839549  16.2480636  49.9571763
 102.8830012  14.7894997  37.0509988 103.1220012  14.0414997  36.5039988
 102.6140012  14.4014997  37.8839988 102.8793675  14.6346638  37.0886865
 101.8200012  14.3594997  39.5079988 101.9660012  13.8394997  40.2979988
 101.8170012  15.2664997  39.8139988 101.8395989  14.4108853  39.6576088
  98.2730012  11.6124997  40.0179988  97.5870012  11.9644997  40.5849988
  98.7950012  12.3754997  39.7709988  98.2496852  11.7638578  40.0622118
 106.1040012   4.2744997  50.2969988 106.8030012   4.3484997  50.9469988
 105.7230012   3.4104997  50.4509988 106.1481767   4.1677624  50.4068322
 106.8890012   3.9264997  41.3939988 107.1090012   4.3984997  40.5909988
 107.4470012   4.3214997  42.0639988 106.9944968   4.0444285  41.3747331
 104.5570012  16.0574997  40.2569988 103.7410012  16.5544997  40.3089988
 105.0870012  16.5324997  39.6169988 104.5169161  16.1897722  40.1775956
 104.0890012   5.6544997  42.2289988 104.9010012   6.1594997  42.2749988
 103.8440012   5.5094997  43.1429988 104.1670520   5.7040375  42.3588517
 104.6240012   6.6404997  51.4139988 104.7430012   7.2144997  52.1709988
 105.2800012   5.9524997  51.5279988 104.7289757   6.6261079  51.5330825
 104.9720012   2.7354997  43.1669988 104.6260012   3.3534997  43.8119988
 105.6310012   3.2364997  42.6859988 105.0137826   2.8875802  43.1900971
 101.8960012  17.1014997  40.2389988 102.0560012  17.9004997  39.7379988
 101.6980012  17.4074997  41.1239988 101.8911649  17.2524469  40.2899815
 100.6300012   3.7984997  39.8539988 100.5470012   4.6874997  40.2009988
 101.5200012   3.5334997  40.0859988 100.7389469   3.8841430  39.9327626
 110.8290012   4.5474997  52.2489988 109.9120012   4.8104997  52.1609988
 111.1640012   4.5444997  51.3519988 110.7489900   4.5830224  52.1157919
 109.4310012   8.2984997  46.3439988 108.6330012   7.8834997  46.0159988
 109.8760012   7.6074997  46.8349988 109.3819885   8.1483543  46.3654889
  98.8890012  14.2264997  38.9149988  99.4810012  14.9254997  39.1909988
  99.3480012  13.7934997  38.1949988  99.0321142  14.2637049  38.8554830
  97.2050012   6.8904997  38.0309988  97.1600012   7.8294997  38.2089988
  96.3170012   6.6544997  37.7609988  97.0788574   6.9871892  38.0188912
 110.5170012  17.5544997  47.9669988 110.3620012  18.2324997  47.3099988
 111.4500012  17.6264997  48.1699988 110.6218500  17.6570170  47.9045119
  98.0130012   1.6724997  46.7039988  97.7840012   1.7314997  45.7759988
  97.5700012   0.8804997  47.0099988  97.9218530   1.5735753  46.6184786
  96.9430012  15.6124997  42.8639988  96.1110012  16.0854997  42.8919988
  97.4890012  16.1224997  42.2659988  96.9029739  15.7461871  42.7869716
  96.2310012  18.2254997  54.1939988  96.7720012  18.0084997  54.9539988
  95.7500012  17.4194997  54.0049988  96.2399345  18.0869514  54.2723076
 100.8290012  17.1444997  55.8149988 101.5960012  16.6854997  56.1559988
 100.8070012  16.9184997  54.8849988 100.9311434  17.0510409  55.7360043
 104.9210012  16.6524997  37.1899988 104.2770012  16.0214997  37.5109988
 105.6830012  16.1214997  36.9579988 104.9358077  16.4942920  37.2026011
 107.4060012  15.5244997  54.5439988 107.0550012  14.6684997  54.7869988
 108.1320012  15.6674997  55.1509988 107.4560769  15.4265636  54.6593619
 109.5250012  16.4694997  37.4239988 109.8080012  15.6754997  37.8759988
 110.2650012  16.7024997  36.8629988 109.6637486  16.3922803  37.4100698
  96.1380012  12.0354997  55.1489988  96.2820012  11.1334997  54.8619988
  95.3660012  12.3214997  54.6609988  96.0533323  11.9508261  55.0437881
 100.4800012  12.3794997  37.2809988 100.5440012  11.5854997  37.8119988
 101.1330012  12.2604997  36.5909988 100.5770241  12.2547148  37.2604317
 102.7940012  12.0054997  54.5809988 102.4650012  12.2764997  53.7239988
 102.9460012  11.0644997  54.4939988 102.7694809  11.9153862  54.4518244
 105.8320012  13.4264997  37.0169988 105.5630012  13.6064997  37.9179988
 105.6260012  12.5004997  36.8859988 105.7673825  13.3260152  37.1225214
 108.5280012  11.9214997  51.9649988 109.2740012  12.5094997  51.8449988
 107.7710012  12.5034997  52.0279988 108.5277554  12.0807011  51.9570907
  96.9710012   9.2354997  54.5689988  97.3790012   8.3784997  54.4479988
  96.7110012   9.2504997  55.4899988  96.9917568   9.1200807  54.6769588
 101.6290012  10.3514997  39.5869988 101.1690012   9.8674997  40.2729988
 101.8840012   9.6834997  38.9509988 101.6004902  10.1948731  39.5949334
 100.9180012   8.2444997  51.9429988 100.3000012   8.9194997  52.2229988
 101.2620012   8.5654997  51.1099988 100.8799615   8.3802721  51.8686581
 102.7000012   8.5944997  37.8489988 102.5200012   8.4404997  36.9219988
 103.6500012   8.7024997  37.8939988 102.8037776   8.5880175  37.7281843
 105.9380012  10.7164997  55.2199988 106.8910012  10.7994997  55.1929988
 105.7770012  10.0044997  55.8399988 106.0466426  10.6316746  55.3000579
 112.0900012  10.9494997  37.2949988 111.8160012  10.5244997  36.4819988
 112.1290012  11.8804997  37.0779988 112.0577699  11.0172484  37.1543610
 101.2570012   5.5994997  53.0249988 101.4070012   4.8704997  52.4229988
 101.2600012   6.3764997  52.4659988 101.2779302   5.6047851  52.8670692
 101.6700012   3.9694997  50.5179988 102.2060012   4.4204997  49.8659988
 100.8180012   3.8614997  50.0949988 101.6282178   4.0166390  50.3715756
 103.2520012   9.4084997  50.7569988 104.0020012   9.2524997  50.1839988
 102.9130012  10.2604997  50.4819988 103.3088921   9.5022968  50.6413561
 107.6670012   7.2234997  55.7859988 107.8600012   6.2924997  55.6739988
 108.5250012   7.6484997  55.7759988 107.8093020   7.1536389  55.7693361
 108.9840012  10.0124997  53.8629988 108.7030012  10.7214997  53.2859988
 109.9270012   9.9394997  53.7119988 109.0729027  10.0997646  53.7635551
  99.7360012   6.7974997  54.9369988  98.9690012   6.2654997  54.7269988
 100.4150012   6.4874997  54.3369988  99.7227022   6.6827506  54.8271648
 102.4760012   1.4254997  50.9489988 102.3770012   2.3724997  50.8439988
 101.7330012   1.0534997  50.4739988 102.3620563   1.5045902  50.8704560
 103.7400012   5.7474997  54.5129988 103.5040012   5.5274997  55.4149988
 102.9560012   5.5404997  54.0029988 103.6018628   5.6894760  54.5673932
 106.4550012   4.8744997  53.5889988 105.5080012   4.9064997  53.7209988
 106.7680012   4.2494997  54.2419988 106.3675475   4.7943207  53.6954455
 108.0890012   3.5084997  55.5939988 107.9930012   2.5564997  55.5879988
 107.7680012   3.7774997  56.4539988 108.0324070   3.4144035  55.7095441
  97.9160012   4.7184997  54.6409988  98.1280012   4.0114997  54.0309988
  97.8050012   4.2804997  55.4849988  97.9299721   4.5627084  54.6716843
 102.6970012   0.7194997  53.6209988 103.4090012   0.0794997  53.6069988
 102.5960012   0.9864997  52.7069988 102.7807939   0.6679938  53.4955650
 103.0510012   2.4024997  55.6739988 102.9190012   1.9264997  54.8539988
 102.4520012   3.1464997  55.6189988 102.9519071   2.4379618  55.5542886
 102.5970012  19.2854997  38.8509988 103.5300012  19.4434997  38.9939988
 102.3330012  19.9604997  38.2259988 102.6889510  19.3983611  38.7860741
  96.1660012  13.9214997  38.3329988  97.0800012  14.0004997  38.6069988
  96.1730012  13.2344997  37.6669988  96.2921131  13.8393961  38.2804393
  94.8150012  19.3144997  43.4109988  94.1680012  18.8524997  42.8779988
  95.1690012  18.6424997  43.9929988  94.7743849  19.1604723  43.4167959
  95.6850012  17.3954997  45.2149988  95.3500012  16.5154997  45.3869988
  95.9070012  17.7404997  46.0799988  95.6691783  17.3217500  45.3554208
 113.2330012  18.2044997  48.1959988 113.2120012  18.3894997  49.1349988
 113.9240012  18.7734997  47.8549988 113.3234618  18.3066606  48.2783864
 112.7970012  17.7724997  51.1179988 112.3090012  17.0364997  50.7469988
 113.3460012  17.3784997  51.7959988 112.8044872  17.6186249  51.1589160
 111.2470012  13.5614997  55.7559988 110.3810012  13.4564997  56.1499988
 111.6240012  14.3204997  56.2019988 111.1793308  13.6496900  55.8702393
 112.5480012  11.8184997  41.2699988 113.3980012  12.2394997  41.3969988
 112.5540012  11.0784997  41.8769988 112.6651372  11.7760803  41.3694344
 112.9430012   9.8714997  43.0939988 112.2160012   9.3924997  43.4909988
 113.5240012  10.0774997  43.8259988 112.9219375   9.8337090  43.2474129
 112.7020012  12.6564997  48.0409988 113.5350012  12.2784997  47.7609988
 112.8140012  13.5994997  47.9219988 112.8312647  12.7322218  47.9865487
 111.1880012  15.5344997  50.3479988 110.5410012  15.8594997  50.9739988
 110.6710012  15.0944997  49.6739988 111.0294029  15.5195004  50.3425827
 113.2110012   9.7724997  39.4849988 112.6890012  10.1294997  38.7659988
 113.1780012  10.4474997  40.1629988 113.1351634   9.9125413  39.4783145
 111.5600012   7.0124997  38.0359988 111.6560012   7.6794997  37.3549988
 111.4200012   6.1964997  37.5539988 111.5542135   6.9934500  37.8778491
 110.7290012   8.3924997  43.6569988 110.5790012   7.4474997  43.6359988
 110.3760012   8.6734997  44.4999988 110.6606625   8.3010441  43.7682346
  95.7650012  10.4704997  47.6669988  95.9490012  10.3884997  46.7309988
  96.6140012  10.3464997  48.0909988  95.9050139  10.4425003  47.5961455
 111.5860012  10.3624997  53.2949988 112.1690012   9.6284997  53.4869988
 112.1500012  11.1344997  53.3419988 111.7419769  10.3664227  53.3276159
 113.0820012   8.2654997  53.9799988 112.2190012   7.8864997  53.8139988
 113.6870012   7.5264997  53.9059988 113.0455979   8.1138023  53.9472817
 110.8070012   4.4204997  37.1529988 111.4180012   4.0494997  37.7899988
 109.9710012   3.9994997  37.3489988 110.7775032   4.3127554  37.2667035
 110.4400012   5.9754997  42.1189988 110.7200012   5.0684997  42.2429988
 111.1990012   6.4094997  41.7299988 110.5809277   5.9100942  42.0833682
 111.0520012   6.5564997  47.5549988 111.9850012   6.7684997  47.5209988
 110.8170012   6.6584997  48.4769988 111.1478036   6.5992769  47.6749976
 111.0810012   7.2934997  50.3309988 110.2380012   7.5614997  50.6969988
 111.5230012   8.1154997  50.1199988 111.0254158   7.4413291  50.3525491
  95.3620012   5.7414997  53.8079988  96.2820012   5.6194997  54.0439988
  94.9130012   4.9914997  54.1969988  95.4271580   5.6233727  53.8929006
 113.3640012   1.2734997  55.6839988 113.7140012   0.6194997  55.0789988
 113.5110012   2.1104997  55.2449988 113.4318419   1.2971591  55.5417118
 111.0530012   3.2384997  42.1669988 111.2360012   2.7894997  42.9929988
 110.4540012   2.6534997  41.7039988 110.9970202   3.0979975  42.2173275
  96.5830012   4.0534997  46.6989988  97.0290012   3.2614997  47.0009988
  97.0500012   4.7694997  47.1299988  96.7070172   4.0420624  46.7984820
  94.8870012   7.0524997  47.7679988  95.3790012   6.8314997  46.9769988
  95.2500012   7.8934997  48.0489988  95.0033126   7.1358357  47.6977531
 112.8840012   3.3824997  54.0339988 111.9660012   3.6534997  53.9979988
 113.0070012   2.8474997  53.2489988 112.7751066   3.3472892  53.9230487
 112.9200012   3.3054997  38.6949988 113.3320012   2.5844997  38.2199988
 113.6020012   3.9754997  38.7539988 113.0685885   3.2972368  38.6378915
  95.2010012   3.3104997  41.8219988  94.2760012   3.5194997  41.6929988
  95.6550012   3.7944997  41.1329988  95.1357368   3.4045993  41.7111226
 109.9720012  18.2944997  43.7679988 110.6240012  17.9474997  43.1599988
 110.4820012  18.7834997  44.4139988 110.1302637  18.3130597  43.7720236
  95.1650012   2.0484997  50.1669988  94.5000012   1.8024997  50.8099988
  94.7220012   2.6704997  49.5889988  95.0140956   2.0988632  50.1769352
  97.3570012  15.2234997  54.3109988  96.5360012  15.3984997  53.8509988
  97.1040012  15.1504997  55.2319988  97.2106164  15.2375622  54.3724923
 100.3110012  16.1984997  50.5699988  99.8860012  17.0074997  50.2869988
 101.2150012  16.2834997  50.2679988 100.3750271  16.3208469  50.4903776
 104.6220012  17.5974997  53.5289988 104.8070012  17.2634997  54.4069988
 105.4680012  17.9064997  53.2069988 104.7617539  17.5936047  53.6055605
 106.9670012  18.8834997  52.7729988 107.6440012  18.2504997  52.5329988
 107.2890012  19.2844997  53.5799988 107.1031637  18.8511154  52.8492793
 111.8840012   1.4724997  51.8529988 111.0720012   1.7974997  51.4649988
 112.1170012   0.7124997  51.3199988 111.8043423   1.4142436  51.7278253
  97.7130012  19.4544997  50.6169988  96.9920012  19.8944997  50.1659988
  97.3470012  19.2034997  51.4659988  97.5649804  19.4807698  50.6699840
 100.1800012  19.0544997  49.6469988  99.3150012  19.1264997  50.0509988
 100.1250012  19.6014997  48.8629988 100.0542085  19.1382685  49.5963362
 104.8900012  18.9424997  48.8219988 104.4340012  19.4714997  48.1679988
 105.0530012  19.5454997  49.5479988 104.8495585  19.0964468  48.8305062
 107.2180012  17.8204997  49.7669988 106.3130012  17.9854997  49.5019988
 107.6470012  18.6734997  49.7019988 107.1520799  17.9584483  49.7219182
 109.8220012  19.3904997  50.0619988 109.6400012  20.3064997  49.8519988
 109.9990012  18.9804997  49.2159988 109.8210210  19.4604822  49.9187885
  97.1270012  18.0774997  47.5269988  97.1090012  17.6524997  48.3849988
  97.9320012  17.7594997  47.1189988  97.2333875  17.9763812  47.5891655
  99.2690012  16.7874997  46.1819988  99.0500012  15.8714997  46.3519988
 100.0930012  16.9274997  46.6479988  99.3504420  16.6810520  46.2682774
 101.8060012  17.2574997  47.0309988 102.0190012  16.3694997  46.7439988
 101.8700012  17.2234997  47.9849988 101.8438232  17.1313102  47.1207397
 105.3140012   2.9214997  46.1749988 104.6400012   2.2924997  46.4309988
 105.8780012   2.4374997  45.5719988 105.2979230   2.7698744  46.1285340
 110.4570012   1.0294997  46.2879988 111.0610012   1.5764997  45.7859988
 109.5870012   1.3484997  46.0479988 110.4221241   1.1475806  46.1867654
 112.1840012   2.1674997  44.6209988 112.7960012   1.6534997  44.0949988
 112.5660012   3.0454997  44.6449988 112.3194540   2.2157140  44.5521830
  97.6410012   1.5554997  43.9969988  96.8640012   1.3214997  43.4899988
  98.1710012   0.7584997  44.0059988  97.6062330   1.4156988  43.9287742
  96.4770012   1.3534997  39.8009988  96.9160012   1.9644997  39.2089988
  95.8440012   1.8914997  40.2749988  96.4514514   1.5099257  39.7840930
 102.2200012   1.4824997  43.8109988 103.0950012   1.8704997  43.7809988
 102.0840012   1.2674997  44.7329988 102.3213695   1.5065184  43.9316440
 107.7770012   1.5124997  45.4599988 107.8530012   1.6074997  44.5099988
 107.5020012   0.6044997  45.5889988 107.7502321   1.4027867  45.3475079
 109.1300012   1.5384997  41.1519988 108.4280012   2.1534997  40.9429988
 108.6860012   0.7004997  41.2829988 108.9736330   1.5095783  41.1410328
  96.3780012  17.3014997  40.6989988  95.6930012  17.2634997  40.0309988
  96.3820012  18.2144997  40.9869988  96.2848193  17.4197016  40.6465284
  98.3380012   3.2694997  38.2429988  98.8300012   2.6394997  37.7159988
  98.9620012   3.5654997  38.9069988  98.4895446   3.2233199  38.2605980
 103.3640012   3.5624997  40.6999988 103.5420012   2.9164997  41.3829988
 103.3110012   4.3964997  41.1679988 103.3811829   3.5867985  40.8565940
 105.2430012  18.5114997  39.0959988 106.1090012  18.8774997  38.9179988
 104.9960012  18.0714997  38.2819988 105.3282392  18.5021756  38.9616289
 111.9520012  18.0744997  41.7749988 111.7570012  17.3264997  41.2099988
 111.9130012  18.8324997  41.1919988 111.9200380  18.0746099  41.6188384
  97.5990012   2.0694997  53.5149988  97.2330012   1.3044997  53.9579988
  98.5120012   2.0984997  53.8019988  97.6722790   1.9687224  53.6144070
  99.5720012   1.4204997  55.0509988 100.4700012   1.1464997  54.8659988
  99.1850012   0.6774997  55.5149988  99.6426612   1.2825914  55.0883643
  98.1960012  18.2214997  37.7239988  97.9290012  18.5084997  38.5969988
  98.9680012  17.6754997  37.8759988  98.2637488  18.1870294  37.8641050
 107.9930012   0.7524997  55.2329988 108.0700012   0.3264997  56.0869988
 108.8870012   0.7664997  54.8899988 108.1243428   0.6960880  55.3035310
 111.1690012  16.8254997  53.9249988 110.3870012  16.6394997  53.4059988
 111.0970012  17.7544997  54.1429988 111.0521777  16.9256492  53.8834048
 125.5750012  10.7114997  43.9559988 125.6640012  11.6554997  43.8239988
 124.9370012  10.4364997  43.2979988 125.5009081  10.8034830  43.8489614
 124.5080012   9.9664997  47.3749988 124.4700012   9.3204997  48.0799988
 124.1860012   9.5004997  46.6039988 124.4592333   9.8149408  47.3672978
 116.8770012   9.5814997  48.9679988 116.9180012   8.9554997  49.6909988
 117.5800012  10.2054997  49.1499988 116.9776363   9.5801196  49.0916044
 128.2140012  12.9054997  45.6759988 127.7740012  12.1854997  46.1269988
 128.2010012  13.6264997  46.3059988 128.1520226  12.9043731  45.8228494
 117.8000012  14.0314997  47.5029988 117.4310012  13.2294997  47.1329988
 118.7410012  13.8624997  47.5489988 117.8767289  13.8990153  47.4586316
 114.4100012   7.6914997  42.8959988 113.9630012   8.5374997  42.8769988
 113.8490012   7.1114997  42.3799988 114.2729900   7.7289916  42.8236801
 115.1210012   9.8534997  45.0219988 115.3340012   9.0834997  45.5489988
 115.8590012   9.9424997  44.4179988 115.2498496   9.7601394  45.0125300
 125.3260012  18.0104997  45.8889988 125.9460012  17.3334997  45.6149988
 125.1180012  17.7924997  46.7969988 125.3826904  17.8883870  45.9743365
 122.8980012  12.3994997  47.7809988 123.2020012  11.7134997  47.1859988
 123.6190012  12.5174997  48.3989988 123.0370671  12.3216305  47.7831816
 131.5610012   4.0004997  48.6419988 131.6100012   4.6104997  49.3779988
 131.9860012   4.4614997  47.9189988 131.6251824   4.1463741  48.6450205
 126.0390012   6.7934997  48.1089988 126.1810012   5.8474997  48.1289988
 125.9320012   7.0004997  47.1799988 126.0439864   6.6919534  47.9862339
 119.1930012   4.8944997  45.3809988 119.2370012   5.7544997  44.9629988
 118.7360012   4.3424997  44.7469988 119.1372185   4.9375799  45.2380299
 126.9160012   5.0254997  43.7819988 127.5620012   4.6964997  44.4069988
 127.4260012   5.5434997  43.1589988 127.0734264   5.0504611  43.7833862
 115.8140012   7.2914997  46.1429988 116.4670012   6.7414997  46.5749988
 115.8380012   7.0174997  45.2259988 115.9066683   7.1791466  46.0782123
 120.9700012   8.8414997  45.3579988 121.5860012   8.3154997  45.8679988
 120.3840012   8.2014997  44.9549988 120.9750810   8.6829208  45.3733173
 131.9520012   5.4784997  50.8779988 131.2640012   6.1364997  50.7819988
 131.9680012   5.2814997  51.8139988 131.8598525   5.5420462  50.9914808
 118.0040012   3.8124997  49.4549988 117.7850012   4.3424997  48.6889988
 117.3360012   4.0394997  50.1019988 117.8837600   3.9156906  49.4376379
 125.3730012  13.3124997  42.9989988 125.0770012  12.9904997  42.1479988
 125.0480012  14.2124997  43.0399988 125.2886371  13.3900215  42.8881801
 120.5730012  11.4884997  49.7419988 119.8330012  12.0864997  49.8459988
 121.2870012  12.0424997  49.4269988 120.5682237  11.6452831  49.7136465
 128.6800012   4.3164997  45.7619988 128.4640012   3.5504997  46.2949988
 129.3350012   4.7884997  46.2749988 128.7390632   4.2755889  45.9042861
 117.5970012   5.7044997  47.4069988 118.2110012   6.3374997  47.7809988
 118.1090012   5.2324997  46.7509988 117.7502296   5.7272370  47.3694252
 118.9800012  13.4524997  50.5299988 118.9750012  14.3324997  50.1519988
 118.1270012  13.3694997  50.9549988 118.8639464  13.5616117  50.5357907
 115.1010012  13.1234997  41.3119988 114.8290012  13.3524997  40.4229988
 115.1470012  13.9614997  41.7719988 115.0700094  13.2681213  41.2525697
 128.7260012  14.7454997  48.0239988 127.7850012  14.8034997  48.1859988
 129.0030012  15.6514997  47.8869988 128.6344679  14.8759443  48.0276815
 129.0270012   3.0314997  49.4419988 128.2910012   3.6424997  49.4039988
 129.7100012   3.4464997  48.9149988 129.0186541   3.1711374  49.3655832
 122.0300012   1.1184997  46.9079988 121.9130012   0.1694997  46.8529988
 121.1750012   1.4504997  47.1809988 121.8983733   1.0335409  46.9373897
 126.9780012  16.5264997  44.6499988 127.4040012  15.8194997  44.1649988
 127.2950012  17.3274997  44.2329988 127.0791019  16.5380994  44.5273130
 128.1380012  14.4274997  43.1579988 127.8800012  13.7374997  42.5469988
 128.2090012  13.9844997  44.0039988 128.1122856  14.2732124  43.1886885
 129.8240012  12.9934997  51.6359988 129.9640012  12.4024997  50.8959988
 129.9910012  13.8664997  51.2789988 129.8656778  13.0306426  51.4866965
 124.2970012   9.9554997  41.4079988 123.5850012  10.4904997  41.0559988
 124.9880012  10.0114997  40.7479988 124.2930132  10.0362543  41.2706289
 124.3500012   8.4134997  38.4469988 125.0510012   8.4354997  39.0979988
 124.6530012   7.7854997  37.7909988 124.4867830   8.3316566  38.4473711
 131.6660012   9.3334997  49.7019988 131.0130012  10.0284997  49.7909988
 132.1310012   9.5434997  48.8919988 131.6395390   9.4569425  49.6046883
 127.7020012  10.1654997  42.3599988 126.9700012  10.3934997  42.9329988
 128.1500012   9.4514997  42.8149988 127.6623095  10.1002571  42.4999119
 127.6000012   8.3394997  51.4269988 127.6800012   9.1024997  51.9989988
 126.9980012   8.6184997  50.7369988 127.5295756   8.4817134  51.4120589
 119.3480012  10.7954997  44.2419988 119.0170012  10.4254997  43.4239988
 119.9360012  10.1254997  44.5889988 119.3821873  10.6541156  44.1768102
 120.7140012  14.2234997  46.9239988 120.6200012  13.6454997  46.1669988
 121.4440012  13.8524997  47.4199988 120.7997981  14.0942390  46.8874165
 119.7140012   9.5644997  47.8759988 120.2800012   9.6854997  47.1129988
 120.0330012  10.2014997  48.5149988 119.8345786   9.6671884  47.8580040
 126.0230012  15.0674997  48.6099988 125.7830012  15.7294997  49.2579988
 125.8250012  14.2334997  49.0349988 125.9633808  15.0453134  48.7561524
 120.5940012  13.9634997  52.5929988 120.2830012  14.7454997  53.0479988
 119.9440012  13.8104997  51.9069988 120.4635558  14.0499105  52.5625871
 126.5730012   9.3274997  40.0449988 127.1530012   9.4774997  40.7919988
 126.9870012   9.7984997  39.3219988 126.7082830   9.4116841  40.0494134
 117.5140012  10.1614997  51.8219988 117.5850012  10.8124997  52.5199988
 116.6240012  10.2644997  51.4869988 117.4033117  10.2645936  51.8722700
 124.3000012  16.0644997  43.4799988 124.7740012  16.3594997  44.2579988
 123.7370012  16.8024997  43.2469988 124.2887653  16.2046932  43.5550136
 118.8340012  16.0354997  53.3559988 118.8410012  15.8994997  52.4089988
 117.9180012  15.9174997  53.6079988 118.7111714  16.0009430  53.2604666
 130.2720012   1.0774997  39.8579988 129.3720012   1.2164997  40.1529988
 130.5240012   1.9084997  39.4559988 130.1828702   1.2089074  39.8440205
 118.3380012   9.8654997  41.8319988 118.0460012  10.6334997  41.3409988
 117.6640012   9.2054997  41.6689988 118.2069081   9.8814406  41.7427340
 131.4610012  15.4434997  38.2339988 131.5350012  16.3824997  38.4049988
 132.3670012  15.1384997  38.1779988 131.5935100  15.5306722  38.2498119
 114.4310012  12.2284997  50.6469988 113.9300012  12.2004997  49.8319988
 114.4360012  11.3224997  50.9559988 114.3631526  12.1022278  50.5772872
 114.1810012  15.0084997  47.5309988 115.1270012  14.8644997  47.5119988
 114.0690012  15.7924997  48.0679988 114.2952727  15.0948046  47.6010072
 132.3790012  15.6744997  53.2129988 132.3300012  14.7194997  53.1759988
 131.5520012  15.9424997  53.6139988 132.2604940  15.5798998  53.2621375
 123.3580012  15.2484997  52.0889988 123.4450012  16.0744997  52.5639988
 122.4940012  14.9184997  52.3379988 123.2531964  15.3169878  52.1876549
 123.7720012  19.0204997  41.8949988 123.6970012  18.8994997  40.9489988
 123.8050012  19.9704997  42.0139988 123.7661848  19.1322500  41.7814834
 117.4250012  17.8094997  43.6759988 117.5780012  17.4614997  44.5549988
 116.5750012  17.4534997  43.4209988 117.3308962  17.7136650  43.7618340
 126.8740012  18.1744997  38.8969988 127.2490012  17.4304997  38.4269988
 126.8780012  17.9044997  39.8159988 126.9258915  18.0361486  38.9567824
 126.5430012  18.1004997  41.6469988 125.6070012  18.2004997  41.8249988
 126.8230012  17.3914997  42.2249988 126.4528255  18.0182711  41.7495391
 129.5310012   7.1674997  53.6929988 129.1240012   7.6484997  52.9719988
 129.5720012   6.2624997  53.3849988 129.4808437   7.1109374  53.5526683
 116.6800012  13.5514997  51.6899988 116.8960012  13.1904997  52.5489988
 115.8250012  13.1774997  51.4799988 116.5939292  13.4514111  51.7793386
 119.2990012   2.0214997  47.6849988 118.4370012   1.9344997  47.2779988
 119.2760012   2.8774997  48.1129988 119.1780330   2.1252765  47.6871863
 123.9620012   1.7434997  51.0599988 124.3820012   1.3284997  51.8129988
 123.0290012   1.5654997  51.1769988 123.8933644   1.6625900  51.1789539
 127.2880012   5.4994997  51.9129988 126.7740012   5.3734997  52.7109988
 127.1330012   6.4114997  51.6689988 127.1966852   5.6056132  51.9892158
 128.0510012  10.3604997  37.6749988 128.0930012  10.1374997  36.7449988
 128.9000012  10.7594997  37.8649988 128.1715396  10.3839155  37.5733627
 123.6230012   4.2364997  38.3449988 123.3700012   4.2554997  39.2679988
 123.3670012   3.3644997  38.0439988 123.5537790   4.1212437  38.4306263
 119.3900012   6.9874997  48.7799988 118.7480012   6.9464997  49.4889988
 119.4270012   7.9134997  48.5429988 119.3071324   7.1071559  48.8449824
 119.3870012   7.2084997  43.6919988 118.4940012   6.8674997  43.6339988
 119.8370012   6.8314997  42.9369988 119.3257305   7.1108484  43.5819177
 124.9220012   7.6244997  42.5089988 124.5130012   8.4394997  42.2179988
 125.6430012   7.4844997  41.8949988 124.9634537   7.7172018  42.3861342
 124.0240012   7.7994997  53.9969988 123.4620012   7.0954997  54.3179988
 124.8510012   7.6794997  54.4649988 124.0587095   7.6867883  54.1042330
 125.9270012   7.0704997  45.3229988 125.7320012   7.6754997  44.6079988
 126.1080012   6.2364997  44.8889988 125.9247614   7.0406300  45.1664405
 117.1400012   7.3074997  50.6469988 117.1020012   7.7074997  51.5159988
 116.6490012   6.4904997  50.7379988 117.0684684   7.2518069  50.7781059
 120.5060012   4.6814997  37.4459988 120.0750012   4.2364997  38.1759988
 119.7880012   5.0534997  36.9339988 120.3499438   4.6708940  37.4766799
 113.7480012   4.4234997  44.4979988 114.3790012   4.3944997  45.2169988
 114.1970012   3.9984997  43.7679988 113.8950774   4.3620492  44.4976553
 115.0220012   5.1694997  39.9219988 115.4960012   5.7604997  39.3369988
 114.3050012   5.7004997  40.2689988 114.9899341   5.3220867  39.8888836
 125.1910012   8.7084997  49.9949988 125.5140012   8.0774997  49.3519988
 124.7510012   8.1734997  50.6549988 125.1756895   8.5498441  49.9962850
 121.9680012   4.6354997  44.7789988 121.0570012   4.6924997  45.0669988
 122.4740012   4.5754997  45.5889988 121.9115413   4.6351985  44.9280622
 116.7970012   6.2644997  43.6049988 115.9070012   6.3644997  43.2649988
 117.0930012   5.4224997  43.2589988 116.7152823   6.1643545  43.5117213
 120.4500012   6.2644997  41.2619988 121.3810012   6.3934997  41.4399988
 120.2350012   6.9344997  40.6119988 120.5484247   6.3726565  41.1985747
 126.3730012   3.8704997  48.0429988 125.6970012   4.0014997  48.7069988
 125.8880012   3.7154997  47.2329988 126.2147145   3.8674905  48.0244517
 119.1240012   7.4594997  38.8289988 118.5810012   7.0794997  38.1369988
 119.9570012   7.6534997  38.3999988 119.1624399   7.4338124  38.6764526
 129.6610012  19.5424997  54.3199988 129.8610012  19.9664997  53.4849988
 130.3160012  19.8854997  54.9269988 129.7770051  19.6469648  54.2877836
 117.2590012  12.0164997  53.9279988 117.9910012  12.2704997  54.4889988
 116.4790012  12.2204997  54.4429988 117.2538232  12.0789177  54.0745760
 123.2880012   7.4234997  46.6659988 123.8530012   6.8764997  46.1189988
 123.1410012   6.9014997  47.4539988 123.3452918   7.2782024  46.6978454
 118.2900012   3.5594997  43.0839988 117.9730012   2.6574997  43.0489988
 119.0720012   3.5614997  42.5309988 118.3522284   3.4361628  43.0044783
 121.9150012   5.8114997  49.0799988 121.0790012   6.2654997  49.1899988
 122.4390012   6.0874997  49.8319988 121.8714414   5.9109376  49.1967136
 122.4590012  12.0244997  40.7639988 121.7140012  11.5174997  40.4419988
 122.3250012  12.0734997  41.7109988 122.3388776  11.9616940  40.8478647
 129.6090012  11.1574997  49.5509988 130.2510012  11.6144997  49.0069988
 128.7790012  11.2704997  49.0879988 129.5845963  11.2352704  49.4140177
 126.3570012   4.8384997  38.9639988 125.4180012   4.9504997  38.8119988
 126.6540012   5.6954997  39.2699988 126.2687666   4.9696443  38.9845768
 123.9780012  12.2084997  52.0009988 123.6330012  11.8274997  52.8079988
 123.7780012  13.1424997  52.0729988 123.9038061  12.2825228  52.1210961
 127.0750012   6.7054997  40.6239988 127.9670012   6.5684997  40.9429988
 127.1320012   7.4964997  40.0879988 127.2046285   6.7936660  40.5951691
 117.5840012  11.3194997  46.5339988 118.3290012  11.3174997  45.9329988
 117.6620012  10.4964997  47.0159988 117.6965518  11.2079315  46.5168929
 124.5850012  13.4834997  39.7899988 124.2890012  14.3094997  40.1709988
 123.8820012  12.8634997  39.9859988 124.4494914  13.5128199  39.8686443
 114.5920012   9.7804997  51.8489988 114.8150012   9.3624997  52.6809988
 113.9900012   9.1674997  51.4259988 114.5411759   9.6404668  51.9057022
 121.6080012   9.2974997  54.0619988 121.3120012   9.1314997  53.1669988
 122.5400012   9.0774997  54.0509988 121.6934166   9.2450640  53.9380536
 126.2290012  14.6704997  51.9519988 125.3280012  14.8534997  51.6839988
 126.2630012  14.9294997  52.8729988 126.1103041  14.7305512  52.0398197
 131.9600012   6.9154997  40.3189988 131.4060012   6.5194997  39.6469988
 132.0600012   7.8254997  40.0409988 131.8977059   6.9843586  40.1894401
 131.9230012  12.7154997  53.1559988 131.0720012  12.9534997  52.7889988
 132.5140012  12.6984997  52.4029988 131.8862487  12.7458258  53.0038893
 130.2550012  15.7014997  40.7839988 129.8820012  14.8754997  41.0929988
 130.5330012  15.5184997  39.8869988 130.2415630  15.5637303  40.7049626
 127.4160012  10.5094997  47.8049988 126.4870012  10.2774997  47.7779988
 127.8670012   9.7324997  47.4749988 127.3499216  10.3727238  47.7566917
 119.9590012  14.8374997  43.9379988 120.4860012  15.6104997  43.7379988
 119.0790012  15.0624997  43.6369988 119.9121773  14.9738005  43.8699010
 115.7140012   9.6994997  38.5249988 116.3300012  10.3264997  38.9049988
 114.8520012  10.0154997  38.7969988 115.6817698   9.8279430  38.6137183
 121.3860012  12.5004997  43.5149988 121.1450012  13.4254997  43.5559988
 120.6450012  12.0414997  43.9109988 121.2528409  12.5651421  43.5741377
 121.9010012  16.6494997  49.8299988 122.2630012  17.5044997  49.5959988
 122.4320012  16.3574997  50.5699988 122.0224473  16.7271060  49.8980855
 120.0690012  17.5224997  43.0599988 119.1190012  17.6274997  43.1109988
 120.4210012  18.3424997  43.4049988 119.9864203  17.6478314  43.1136650
 125.4450012  12.7484997  49.5299988 125.0190012  12.5214997  50.3569988
 126.0250012  12.0104997  49.3479988 125.4651868  12.6175299  49.6185830
 127.6480012  13.6774997  38.6039988 128.0010012  13.2974997  39.4089988
 126.6990012  13.5844997  38.6909988 127.5680441  13.6129596  38.7258559
 128.1030012  17.3004997  51.9999988 127.5020012  16.7454997  51.5039988
 128.3850012  17.9674997  51.3739988 128.0588519  17.3146841  51.8474952
 132.1510012  18.1574997  38.8049988 132.8950012  18.7434997  38.6649988
 131.4570012  18.7254997  39.1389988 132.1590292  18.3145582  38.8309961
 116.2260012   4.5334997  51.4069988 115.3330012   4.8724997  51.3389988
 116.1270012   3.6784997  51.8249988 116.0904164   4.4642588  51.4542235
 128.5140012  12.3504997  40.8309988 128.2360012  11.6224997  41.3869988
 129.4410012  12.4694997  41.0359988 128.6013124  12.2668802  40.9348845
 115.8770012  16.3384997  49.8419988 116.0940012  15.4064997  49.8109988
 116.1230012  16.6124997  50.7249988 115.9399549  16.2480636  49.9571763
 121.7390012  14.7894997  37.0509988 121.9780012  14.0414997  36.5039988
 121.4700012  14.4014997  37.8839988 121.7353675  14.6346638  37.0886865
 120.6760012  14.3594997  39.5079988 120.8220012  13.8394997  40.2979988
 120.6730012  15.2664997  39.8139988 120.6955989  14.4108853  39.6576088
 117.1290012  11.6124997  40.0179988 116.4430012  11.9644997  40.5849988
 117.6510012  12.3754997  39.7709988 117.1056852  11.7638578  40.0622118
 124.9600012   4.2744997  50.2969988 125.6590012   4.3484997  50.9469988
 124.5790012   3.4104997  50.4509988 125.0041767   4.1677624  50.4068322
 125.7450012   3.9264997  41.3939988 125.9650012   4.3984997  40.5909988
 126.3030012   4.3214997  42.0639988 125.8504968   4.0444285  41.3747331
 123.4130012  16.0574997  40.2569988 122.5970012  16.5544997  40.3089988
 123.9430012  16.5324997  39.6169988 123.3729161  16.1897722  40.1775956
 122.9450012   5.6544997  42.2289988 123.7570012   6.1594997  42.2749988
 122.7000012   5.5094997  43.1429988 123.0230520   5.7040375  42.3588517
 123.4800012   6.6404997  51.4139988 123.5990012   7.2144997  52.1709988
 124.1360012   5.9524997  51.5279988 123.5849757   6.6261079  51.5330825
 123.8280012   2.7354997  43.1669988 123.4820012   3.3534997  43.8119988
 124.4870012   3.2364997  42.6859988 123.8697826   2.8875802  43.1900971
 120.7520012  17.1014997  40.2389988 120.9120012  17.9004997  39.7379988
 120.5540012  17.4074997  41.1239988 120.7471649  17.2524469  40.2899815
 119.4860012   3.7984997  39.8539988 119.4030012   4.6874997  40.2009988
 120.3760012   3.5334997  40.0859988 119.5949469   3.8841430  39.9327626
 129.6850012   4.5474997  52.2489988 128.7680012   4.8104997  52.1609988
 130.0200012   4.5444997  51.3519988 129.6049900   4.5830224  52.1157919
 128.2870012   8.2984997  46.3439988 127.4890012   7.8834997  46.0159988
 128.7320012   7.6074997  46.8349988 128.2379885   8.1483543  46.3654889
 117.7450012  14.2264997  38.9149988 118.3370012  14.9254997  39.1909988
 118.2040012  13.7934997  38.1949988 117.8881142  14.2637049  38.8554830
 116.0610012   6.8904997  38.0309988 116.0160012   7.8294997  38.2089988
 115.1730012   6.6544997  37.7609988 115.9348574   6.9871892  38.0188912
 129.3730012  17.5544997  47.9669988 129.2180012  18.2324997  47.3099988
 130.3060012  17.6264997  48.1699988 129.4778500  17.6570170  47.9045119
 116.8690012   1.6724997  46.7039988 116.6400012   1.7314997  45.7759988
 116.4260012   0.8804997  47.0099988 116.7778530   1.5735753  46.6184786
 115.7990012  15.6124997  42.8639988 114.9670012  16.0854997  42.8919988
 116.3450012  16.1224997  42.2659988 115.7589739  15.7461871  42.7869716
 115.0870012  18.2254997  54.1939988 115.6280012  18.0084997  54.9539988
 114.6060012  17.4194997  54.0049988 115.0959345  18.0869514  54.2723076
 119.6850012  17.1444997  55.8149988 120.4520012  16.6854997  56.1559988
 119.6630012  16.9184997  54.8849988 119.7871434  17.0510409  55.7360043
 123.7770012  16.6524997  37.1899988 123.1330012  16.0214997  37.5109988
 124.5390012  16.1214997  36.9579988 123.7918077  16.4942920  37.2026011
 126.2620012  15.5244997  54.5439988 125.9110012  14.6684997  54.7869988
 126.9880012  15.6674997  55.1509988 126.3120769  15.4265636  54.6593619
 128.3810012  16.4694997  37.4239988 128.6640012  15.6754997  37.8759988
 129.1210012  16.7024997  36.8629988 128.5197486  16.3922803  37.4100698
 114.9940012  12.0354997  55.1489988 115.1380012  11.1334997  54.8619988
 114.2220012  12.3214997  54.6609988 114.9093323  11.9508261  55.0437881
 119.3360012  12.3794997  37.2809988 119.4000012  11.5854997  37.8119988
 119.9890012  12.2604997  36.5909988 119.4330241  12.2547148  37.2604317
 121.6500012  12.0054997  54.5809988 121.3210012  12.2764997  53.7239988
 121.8020012  11.0644997  54.4939988 121.6254809  11.9153862  54.4518244
 124.6880012  13.4264997  37.0169988 124.4190012  13.6064997  37.9179988
 124.4820012  12.5004997  36.8859988 124.6233825  13.3260152  37.1225214
 127.3840012  11.9214997  51.9649988 128.1300012  12.5094997  51.8449988
 126.6270012  12.5034997  52.0279988 127.3837554  12.0807011  51.9570907
 115.8270012   9.2354997  54.5689988 116.2350012   8.3784997  54.4479988
 115.5670012   9.2504997  55.4899988 115.8477568   9.1200807  54.6769588
 120.4850012  10.3514997  39.5869988 120.0250012   9.8674997  40.2729988
 120.7400012   9.6834997  38.9509988 120.4564902  10.1948731  39.5949334
 119.7740012   8.2444997  51.9429988 119.1560012   8.9194997  52.2229988
 120.1180012   8.5654997  51.1099988 119.7359615   8.3802721  51.8686581
 121.5560012   8.5944997  37.8489988 121.3760012   8.4404997  36.9219988
 122.5060012   8.7024997  37.8939988 121.6597776   8.5880175  37.7281843
 124.7940012  10.7164997  55.2199988 125.7470012  10.7994997  55.1929988
 124.6330012  10.0044997  55.8399988 124.9026426  10.6316746  55.3000579
 130.9460012  10.9494997  37.2949988 130.6720012  10.5244997  36.4819988
 130.9850012  11.8804997  37.0779988 130.9137699  11.0172484  37.1543610
 120.1130012   5.5994997  53.0249988 120.2630012   4.8704997  52.4229988
 120.1160012   6.3764997  52.4659988 120.1339302   5.6047851  52.8670692
 120.5260012   3.9694997  50.5179988 121.0620012   4.4204997  49.8659988
 119.6740012   3.8614997  50.0949988 120.4842178   4.0166390  50.3715756
 122.1080012   9.4084997  50.7569988 122.8580012   9.2524997  50.1839988
 121.7690012  10.2604997  50.4819988 122.1648921   9.5022968  50.6413561
 126.5230012   7.2234997  55.7859988 126.7160012   6.2924997  55.6739988
 127.3810012   7.6484997  55.7759988 126.6653020   7.1536389  55.7693361
 127.8400012  10.0124997  53.8629988 127.5590012  10.7214997  53.2859988
 128.7830012   9.9394997  53.7119988 127.9289027  10.0997646  53.7635551
 118.5920012   6.7974997  54.9369988 117.8250012   6.2654997  54.7269988
 119.2710012   6.4874997  54.3369988 118.5787022   6.6827506  54.8271648
 121.3320012   1.4254997  50.9489988 121.2330012   2.3724997  50.8439988
 120.5890012   1.0534997  50.4739988 121.2180564   1.5045902  50.8704560
 122.5960012   5.7474997  54.5129988 122.3600012   5.5274997  55.4149988
 121.8120012   5.5404997  54.0029988 122.4578628   5.6894760  54.5673932
 125.3110012   4.8744997  53.5889988 124.3640012   4.9064997  53.7209988
 125.6240012   4.2494997  54.2419988 125.2235475   4.7943207  53.6954455
 126.9450012   3.5084997  55.5939988 126.8490012   2.5564997  55.5879988
 126.6240012   3.7774997  56.4539988 126.8884070   3.4144035  55.7095441
 116.7720012   4.7184997  54.6409988 116.9840012   4.0114997  54.0309988
 116.6610012   4.2804997  55.4849988 116.7859721   4.5627084  54.6716843
 121.5530012   0.7194997  53.6209988 122.2650012   0.0794997  53.6069988
 121.4520012   0.9864997  52.7069988 121.6367939   0.6679938  53.4955650
 121.9070012   2.4024997  55.6739988 121.7750012   1.9264997  54.8539988
 121.3080012   3.1464997  55.6189988 121.8079071   2.4379618  55.5542886
 121.4530012  19.2854997  38.8509988 122.3860012  19.4434997  38.9939988
 121.1890012  19.9604997  38.2259988 121.5449510  19.3983611  38.7860741
 115.0220012  13.9214997  38.3329988 115.9360012  14.0004997  38.6069988
 115.0290012  13.2344997  37.6669988 115.1481131  13.8393961  38.2804393
 113.6710012  19.3144997  43.4109988 113.0240012  18.8524997  42.8779988
 114.0250012  18.6424997  43.9929988 113.6303849  19.1604723  43.4167959
 114.5410012  17.3954997  45.2149988 114.2060012  16.5154997  45.3869988
 114.7630012  17.7404997  46.0799988 114.5251783  17.3217500  45.3554208
 132.0890012  18.2044997  48.1959988 132.0680012  18.3894997  49.1349988
 132.7800012  18.7734997  47.8549988 132.1794618  18.3066606  48.2783864
 131.6530012  17.7724997  51.1179988 131.1650012  17.0364997  50.7469988
 132.2020012  17.3784997  51.7959988 131.6604872  17.6186249  51.1589160
 130.1030012  13.5614997  55.7559988 129.2370012  13.4564997  56.1499988
 130.4800012  14.3204997  56.2019988 130.0353308  13.6496900  55.8702393
 131.4040012  11.8184997  41.2699988 132.2540012  12.2394997  41.3969988
 131.4100012  11.0784997  41.8769988 131.5211372  11.7760803  41.3694344
 131.7990012   9.8714997  43.0939988 131.0720012   9.3924997  43.4909988
 132.3800012  10.0774997  43.8259988 131.7779375   9.8337090  43.2474129
 131.5580012  12.6564997  48.0409988 132.3910012  12.2784997  47.7609988
 131.6700012  13.5994997  47.9219988 131.6872647  12.7322218  47.9865487
 130.0440012  15.5344997  50.3479988 129.3970012  15.8594997  50.9739988
 129.5270012  15.0944997  49.6739988 129.8854029  15.5195004  50.3425827
 132.0670012   9.7724997  39.4849988 131.5450012  10.1294997  38.7659988
 132.0340012  10.4474997  40.1629988 131.9911634   9.9125413  39.4783145
 130.4160012   7.0124997  38.0359988 130.5120012   7.6794997  37.3549988
 130.2760012   6.1964997  37.5539988 130.4102135   6.9934500  37.8778491
 129.5850012   8.3924997  43.6569988 129.4350012   7.4474997  43.6359988
 129.2320012   8.6734997  44.4999988 129.5166625   8.3010441  43.7682346
 114.6210012  10.4704997  47.6669988 114.8050012  10.3884997  46.7309988
 115.4700012  10.3464997  48.0909988 114.7610139  10.4425003  47.5961455
 130.4420012  10.3624997  53.2949988 131.0250012   9.6284997  53.4869988
 131.0060012  11.1344997  53.3419988 130.5979769  10.3664227  53.3276159
 131.9380012   8.2654997  53.9799988 131.0750012   7.8864997  53.8139988
 132.5430012   7.5264997  53.9059988 131.9015979   8.1138023  53.9472817
 129.6630012   4.4204997  37.1529988 130.2740012   4.0494997  37.7899988
 128.8270012   3.9994997  37.3489988 129.6335032   4.3127554  37.2667035
 129.2960012   5.9754997  42.1189988 129.5760012   5.0684997  42.2429988
 130.0550012   6.4094997  41.7299988 129.4369277   5.9100942  42.0833682
 129.9080012   6.5564997  47.5549988 130.8410012   6.7684997  47.5209988
 129.6730012   6.6584997  48.4769988 130.0038036   6.5992769  47.6749976
 129.9370012   7.2934997  50.3309988 129.0940012   7.5614997  50.6969988
 130.3790012   8.1154997  50.1199988 129.8814158   7.4413291  50.3525491
 114.2180012   5.7414997  53.8079988 115.1380012   5.6194997  54.0439988
 113.7690012   4.9914997  54.1969988 114.2831580   5.6233727  53.8929006
 132.2200012   1.2734997  55.6839988 132.5700012   0.6194997  55.0789988
 132.3670012   2.1104997  55.2449988 132.2878419   1.2971591  55.5417118
 129.9090012   3.2384997  42.1669988 130.0920012   2.7894997  42.9929988
 129.3100012   2.6534997  41.7039988 129.8530202   3.0979975  42.2173275
 115.4390012   4.0534997  46.6989988 115.8850012   3.2614997  47.0009988
 115.9060012   4.7694997  47.1299988 115.5630172   4.0420624  46.7984820
 113.7430012   7.0524997  47.7679988 114.2350012   6.8314997  46.9769988
 114.1060012   7.8934997  48.0489988 113.8593126   7.1358357  47.6977531
 131.7400012   3.3824997  54.0339988 130.8220012   3.6534997  53.9979988
 131.8630012   2.8474997  53.2489988 131.6311066   3.3472892  53.9230487
 131.7760012   3.3054997  38.6949988 132.1880012   2.5844997  38.2199988
 132.4580012   3.9754997  38.7539988 131.9245885   3.2972368  38.6378915
 114.0570012   3.3104997  41.8219988 113.1320012   3.5194997  41.6929988
 114.5110012   3.7944997  41.1329988 113.9917368   3.4045993  41.7111226
 128.8280012  18.2944997  43.7679988 129.4800012  17.9474997  43.1599988
 129.3380012  18.7834997  44.4139988 128.9862637  18.3130597  43.7720236
 114.0210012   2.0484997  50.1669988 113.3560012   1.8024997  50.8099988
 113.5780012   2.6704997  49.5889988 113.8700956   2.0988632  50.1769352
 116.2130012  15.2234997  54.3109988 115.3920012  15.3984997  53.8509988
 115.9600012  15.1504997  55.2319988 116.0666164  15.2375622  54.3724923
 119.1670012  16.1984997  50.5699988 118.7420012  17.0074997  50.2869988
 120.0710012  16.2834997  50.2679988 119.2310271  16.3208469  50.4903776
 123.4780012  17.5974997  53.5289988 123.6630012  17.2634997  54.4069988
 124.3240012  17.9064997  53.2069988 123.6177539  17.5936047  53.6055605
 125.8230012  18.8834997  52.7729988 126.5000012  18.2504997  52.5329988
 126.1450012  19.2844997  53.5799988 125.9591637  18.8511154  52.8492793
 130.7400012   1.4724997  51.8529988 129.9280012   1.7974997  51.4649988
 130.9730012   0.7124997  51.3199988 130.6603423   1.4142436  51.7278253
 116.5690012  19.4544997  50.6169988 115.8480012  19.8944997  50.1659988
 116.2030012  19.2034997  51.4659988 116.4209804  19.4807698  50.6699840
 119.0360012  19.0544997  49.6469988 118.1710012  19.1264997  50.0509988
 118.9810012  19.6014997  48.8629988 118.9102085  19.1382685  49.5963362
 123.7460012  18.9424997  48.8219988 123.2900012  19.4714997  48.1679988
 123.9090012  19.5454997  49.5479988 123.7055585  19.0964468  48.8305062
 126.0740012  17.8204997  49.7669988 125.1690012  17.9854997  49.5019988
 126.5030012  18.6734997  49.7019988 126.0080799  17.9584483  49.7219182
 128.6780012  19.3904997  50.0619988 128.4960012  20.3064997  49.8519988
 128.8550012  18.9804997  49.2159988 128.6770210  19.4604822  49.9187885
 115.9830012  18.0774997  47.5269988 115.9650012  17.6524997  48.3849988
 116.7880012  17.7594997  47.1189988 116.0893875  17.9763812  47.5891655
 118.1250012  16.7874997  46.1819988 117.9060012  15.8714997  46.3519988
 118.9490012  16.9274997  46.6479988 118.2064420  16.6810520  46.2682774
 120.6620012  17.2574997  47.0309988 120.8750012  16.3694997  46.7439988
 120.7260012  17.2234997  47.9849988 120.6998232  17.1313102  47.1207397
 124.1700012   2.9214997  46.1749988 123.4960012   2.2924997  46.4309988
 124.7340012   2.4374997  45.5719988 124.1539230   2.7698744  46.1285340
 129.3130012   1.0294997  46.2879988 129.9170012   1.5764997  45.7859988
 128.4430012   1.3484997  46.0479988 129.2781241   1.1475806  46.1867654
 131.0400012   2.1674997  44.6209988 131.6520012   1.6534997  44.0949988
 131.4220012   3.0454997  44.6449988 131.1754540   2.2157140  44.5521830
 116.4970012   1.5554997  43.9969988 115.7200012   1.3214997  43.4899988
 117.0270012   0.7584997  44.0059988 116.4622330   1.4156988  43.9287742
 115.3330012   1.3534997  39.8009988 115.7720012   1.9644997  39.2089988
 114.7000012   1.8914997  40.2749988 115.3074514   1.5099257  39.7840930
 121.0760012   1.4824997  43.8109988 121.9510012   1.8704997  43.7809988
 120.9400012   1.2674997  44.7329988 121.1773695   1.5065184  43.9316440
 126.6330012   1.5124997  45.4599988 126.7090012   1.6074997  44.5099988
 126.3580012   0.6044997  45.5889988 126.6062321   1.4027867  45.3475079
 127.9860012   1.5384997  41.1519988 127.2840012   2.1534997  40.9429988
 127.5420012   0.7004997  41.2829988 127.8296330   1.5095783  41.1410328
 115.2340012  17.3014997  40.6989988 114.5490012  17.2634997  40.0309988
 115.2380012  18.2144997  40.9869988 115.1408193  17.4197016  40.6465284
 117.1940012   3.2694997  38.2429988 117.6860012   2.6394997  37.7159988
 117.8180012   3.5654997  38.9069988 117.3455446   3.2233199  38.2605980
 122.2200012   3.5624997  40.6999988 122.3980012   2.9164997  41.3829988
 122.1670012   4.3964997  41.1679988 122.2371829   3.5867985  40.8565940
 124.0990012  18.5114997  39.0959988 124.9650012  18.8774997  38.9179988
 123.8520012  18.0714997  38.2819988 124.1842392  18.5021756  38.9616289
 130.8080012  18.0744997  41.7749988 130.6130012  17.3264997  41.2099988
 130.7690012  18.8324997  41.1919988 130.7760380  18.0746099  41.6188384
 116.4550012   2.0694997  53.5149988 116.0890012   1.3044997  53.9579988
 117.3680012   2.0984997  53.8019988 116.5282790   1.9687224  53.6144070
 118.4280012   1.4204997  55.0509988 119.3260012   1.1464997  54.8659988
 118.0410012   0.6774997  55.5149988 118.4986612   1.2825914  55.0883643
 117.0520012  18.2214997  37.7239988 116.7850012  18.5084997  38.5969988
 117.8240012  17.6754997  37.8759988 117.1197488  18.1870294  37.8641050
 126.8490012   0.7524997  55.2329988 126.9260012   0.3264997  56.0869988
 127.7430012   0.7664997  54.8899988 126.9803428   0.6960880  55.3035310
 130.0250012  16.8254997  53.9249988 129.2430012  16.6394997  53.4059988
 129.9530012  17.7544997  54.1429988 129.9081777  16.9256492  53.8834048
 144.4310012  10.7114997  43.9559988 144.5200012  11.6554997  43.8239988
 143.7930012  10.4364997  43.2979988 144.3569081  10.8034830  43.8489614
 143.3640012   9.9664997  47.3749988 143.3260012   9.3204997  48.0799988
 143.0420012   9.5004997  46.6039988 143.3152333   9.8149408  47.3672978
 135.7330012   9.5814997  48.9679988 135.7740012   8.9554997  49.6909988
 136.4360012  10.2054997  49.1499988 135.8336363   9.5801196  49.0916044
 136.6560012  14.0314997  47.5029988 136.2870012  13.2294997  47.1329988
 137.5970012  13.8624997  47.5489988 136.7327289  13.8990153  47.4586316
 133.2660012   7.6914997  42.8959988 132.8190012   8.5374997  42.8769988
 132.7050012   7.1114997  42.3799988 133.1289900   7.7289916  42.8236801
 133.9770012   9.8534997  45.0219988 134.1900012   9.0834997  45.5489988
 134.7150012   9.9424997  44.4179988 134.1058496   9.7601394  45.0125300
 144.1820012  18.0104997  45.8889988 144.8020012  17.3334997  45.6149988
 143.9740012  17.7924997  46.7969988 144.2386904  17.8883870  45.9743365
 141.7540012  12.3994997  47.7809988 142.0580012  11.7134997  47.1859988
 142.4750012  12.5174997  48.3989988 141.8930671  12.3216305  47.7831816
 144.8950012   6.7934997  48.1089988 145.0370012   5.8474997  48.1289988
 144.7880012   7.0004997  47.1799988 144.8999863   6.6919534  47.9862339
 138.0490012   4.8944997  45.3809988 138.0930012   5.7544997  44.9629988
 137.5920012   4.3424997  44.7469988 137.9932185   4.9375799  45.2380299
 134.6700012   7.2914997  46.1429988 135.3230012   6.7414997  46.5749988
 134.6940012   7.0174997  45.2259988 134.7626683   7.1791466  46.0782123
 139.8260012   8.8414997  45.3579988 140.4420012   8.3154997  45.8679988
 139.2400012   8.2014997  44.9549988 139.8310810   8.6829208  45.3733173
 136.8600012   3.8124997  49.4549988 136.6410012   4.3424997  48.6889988
 136.1920012   4.0394997  50.1019988 136.7397600   3.9156906  49.4376379
 144.2290012  13.3124997  42.9989988 143.9330012  12.9904997  42.1479988
 143.9040012  14.2124997  43.0399988 144.1446371  13.3900215  42.8881801
 139.4290012  11.4884997  49.7419988 138.6890012  12.0864997  49.8459988
 140.1430012  12.0424997  49.4269988 139.4242237  11.6452831  49.7136465
 136.4530012   5.7044997  47.4069988 137.0670012   6.3374997  47.7809988
 136.9650012   5.2324997  46.7509988 136.6062296   5.7272370  47.3694252
 137.8360012  13.4524997  50.5299988 137.8310012  14.3324997  50.1519988
 136.9830012  13.3694997  50.9549988 137.7199464  13.5616117  50.5357907
 133.9570012  13.1234997  41.3119988 133.6850012  13.3524997  40.4229988
 134.0030012  13.9614997  41.7719988 133.9260094  13.2681213  41.2525697
 140.8860012   1.1184997  46.9079988 140.7690012   0.1694997  46.8529988
 140.0310012   1.4504997  47.1809988 140.7543733   1.0335409  46.9373897
 143.1530012   9.9554997  41.4079988 142.4410012  10.4904997  41.0559988
 143.8440012  10.0114997  40.7479988 143.1490132  10.0362543  41.2706289
 143.2060012   8.4134997  38.4469988 143.9070012   8.4354997  39.0979988
 143.5090012   7.7854997  37.7909988 143.3427830   8.3316566  38.4473711
 138.2040012  10.7954997  44.2419988 137.8730012  10.4254997  43.4239988
 138.7920012  10.1254997  44.5889988 138.2381873  10.6541156  44.1768102
 139.5700012  14.2234997  46.9239988 139.4760012  13.6454997  46.1669988
 140.3000012  13.8524997  47.4199988 139.6557981  14.0942390  46.8874165
 138.5700012   9.5644997  47.8759988 139.1360012   9.6854997  47.1129988
 138.8890012  10.2014997  48.5149988 138.6905786   9.6671884  47.8580040
 144.8790012  15.0674997  48.6099988 144.6390012  15.7294997  49.2579988
 144.6810012  14.2334997  49.0349988 144.8193808  15.0453134  48.7561524
 139.4500012  13.9634997  52.5929988 139.1390012  14.7454997  53.0479988
 138.8000012  13.8104997  51.9069988 139.3195558  14.0499105  52.5625871
 136.3700012  10.1614997  51.8219988 136.4410012  10.8124997  52.5199988
 135.4800012  10.2644997  51.4869988 136.2593117  10.2645936  51.8722700
 143.1560012  16.0644997  43.4799988 143.6300012  16.3594997  44.2579988
 142.5930012  16.8024997  43.2469988 143.1447653  16.2046932  43.5550136
 137.6900012  16.0354997  53.3559988 137.6970012  15.8994997  52.4089988
 136.7740012  15.9174997  53.6079988 137.5671714  16.0009430  53.2604666
 137.1940012   9.8654997  41.8319988 136.9020012  10.6334997  41.3409988
 136.5200012   9.2054997  41.6689988 137.0629081   9.8814406  41.7427340
 133.2870012  12.2284997  50.6469988 132.7860012  12.2004997  49.8319988
 133.2920012  11.3224997  50.9559988 133.2191526  12.1022278  50.5772872
 133.0370012  15.0084997  47.5309988 133.9830012  14.8644997  47.5119988
 132.9250012  15.7924997  48.0679988 133.1512727  15.0948046  47.6010072
 142.2140012  15.2484997  52.0889988 142.3010012  16.0744997  52.5639988
 141.3500012  14.9184997  52.3379988 142.1091964  15.3169878  52.1876549
 142.6280012  19.0204997  41.8949988 142.5530012  18.8994997  40.9489988
 142.6610012  19.9704997  42.0139988 142.6221848  19.1322500  41.7814834
 136.2810012  17.8094997  43.6759988 136.4340012  17.4614997  44.5549988
 135.4310012  17.4534997  43.4209988 136.1868962  17.7136650  43.7618340
 135.5360012  13.5514997  51.6899988 135.7520012  13.1904997  52.5489988
 134.6810012  13.1774997  51.4799988 135.4499292  13.4514111  51.7793386
 138.1550012   2.0214997  47.6849988 137.2930012   1.9344997  47.2779988
 138.1320012   2.8774997  48.1129988 138.0340330   2.1252765  47.6871863
 142.8180012   1.7434997  51.0599988 143.2380012   1.3284997  51.8129988
 141.8850012   1.5654997  51.1769988 142.7493644   1.6625900  51.1789539
 142.4790012   4.2364997  38.3449988 142.2260012   4.2554997  39.2679988
 142.2230012   3.3644997  38.0439988 142.4097790   4.1212437  38.4306263
 138.2460012   6.9874997  48.7799988 137.6040012   6.9464997  49.4889988
 138.2830012   7.9134997  48.5429988 138.1631324   7.1071559  48.8449824
 138.2430012   7.2084997  43.6919988 137.3500012   6.8674997  43.6339988
 138.6930012   6.8314997  42.9369988 138.1817305   7.1108484  43.5819177
 143.7780012   7.6244997  42.5089988 143.3690012   8.4394997  42.2179988
 144.4990012   7.4844997  41.8949988 143.8194537   7.7172018  42.3861342
 142.8800012   7.7994997  53.9969988 142.3180012   7.0954997  54.3179988
 143.7070012   7.6794997  54.4649988 142.9147095   7.6867883  54.1042330
 144.7830012   7.0704997  45.3229988 144.5880012   7.6754997  44.6079988
 144.9640012   6.2364997  44.8889988 144.7807614   7.0406300  45.1664405
 135.9960012   7.3074997  50.6469988 135.9580012   7.7074997  51.5159988
 135.5050012   6.4904997  50.7379988 135.9244684   7.2518069  50.7781059
 139.3620012   4.6814997  37.4459988 138.9310012   4.2364997  38.1759988
 138.6440012   5.0534997  36.9339988 139.2059438   4.6708940  37.4766799
 132.6040012   4.4234997  44.4979988 133.2350012   4.3944997  45.2169988
 133.0530012   3.9984997  43.7679988 132.7510774   4.3620492  44.4976553
 133.8780012   5.1694997  39.9219988 134.3520012   5.7604997  39.3369988
 133.1610012   5.7004997  40.2689988 133.8459341   5.3220867  39.8888836
 144.0470012   8.7084997  49.9949988 144.3700012   8.0774997  49.3519988
 143.6070012   8.1734997  50.6549988 144.0316895   8.5498441  49.9962850
 140.8240012   4.6354997  44.7789988 139.9130012   4.6924997  45.0669988
 141.3300012   4.5754997  45.5889988 140.7675413   4.6351985  44.9280622
 135.6530012   6.2644997  43.6049988 134.7630012   6.3644997  43.2649988
 135.9490012   5.4224997  43.2589988 135.5712823   6.1643545  43.5117213
 139.3060012   6.2644997  41.2619988 140.2370012   6.3934997  41.4399988
 139.0910012   6.9344997  40.6119988 139.4044247   6.3726565  41.1985747
 137.9800012   7.4594997  38.8289988 137.4370012   7.0794997  38.1369988
 138.8130012   7.6534997  38.3999988 138.0184399   7.4338124  38.6764526
 136.1150012  12.0164997  53.9279988 136.8470012  12.2704997  54.4889988
 135.3350012  12.2204997  54.4429988 136.1098232  12.0789177  54.0745760
 142.1440012   7.4234997  46.6659988 142.7090012   6.8764997  46.1189988
 141.9970012   6.9014997  47.4539988 142.2012918   7.2782024  46.6978454
 137.1460012   3.5594997  43.0839988 136.8290012   2.6574997  43.0489988
 137.9280012   3.5614997  42.5309988 137.2082284   3.4361628  43.0044783
 140.7710012   5.8114997  49.0799988 139.9350012   6.2654997  49.1899988
 141.2950012   6.0874997  49.8319988 140.7274414   5.9109376  49.1967136
 141.3150012  12.0244997  40.7639988 140.5700012  11.5174997  40.4419988
 141.1810012  12.0734997  41.7109988 141.1948776  11.9616940  40.8478647
 142.8340012  12.2084997  52.0009988 142.4890012  11.8274997  52.8079988
 142.6340012  13.1424997  52.0729988 142.7598061  12.2825228  52.1210961
 136.4400012  11.3194997  46.5339988 137.1850012  11.3174997  45.9329988
 136.5180012  10.4964997  47.0159988 136.5525518  11.2079315  46.5168929
 143.4410012  13.4834997  39.7899988 143.1450012  14.3094997  40.1709988
 142.7380012  12.8634997  39.9859988 143.3054914  13.5128199  39.8686443
 133.4480012   9.7804997  51.8489988 133.6710012   9.3624997  52.6809988
 132.8460012   9.1674997  51.4259988 133.3971759   9.6404668  51.9057022
 140.4640012   9.2974997  54.0619988 140.1680012   9.1314997  53.1669988
 141.3960012   9.0774997  54.0509988 140.5494166   9.2450640  53.9380536
 138.8150012  14.8374997  43.9379988 139.3420012  15.6104997  43.7379988
 137.9350012  15.0624997  43.6369988 138.7681773  14.9738005  43.8699010
 134.5700012   9.6994997  38.5249988 135.1860012  10.3264997  38.9049988
 133.7080012  10.0154997  38.7969988 134.5377698   9.8279430  38.6137183
 140.2420012  12.5004997  43.5149988 140.0010012  13.4254997  43.5559988
 139.5010012  12.0414997  43.9109988 140.1088409  12.5651421  43.5741377
 140.7570012  16.6494997  49.8299988 141.1190012  17.5044997  49.5959988
 141.2880012  16.3574997  50.5699988 140.8784473  16.7271060  49.8980855
 138.9250012  17.5224997  43.0599988 137.9750012  17.6274997  43.1109988
 139.2770012  18.3424997  43.4049988 138.8424203  17.6478314  43.1136650
 144.3010012  12.7484997  49.5299988 143.8750012  12.5214997  50.3569988
 144.8810012  12.0104997  49.3479988 144.3211868  12.6175299  49.6185830
 135.0820012   4.5334997  51.4069988 134.1890012   4.8724997  51.3389988
 134.9830012   3.6784997  51.8249988 134.9464164   4.4642588  51.4542235
 134.7330012  16.3384997  49.8419988 134.9500012  15.4064997  49.8109988
 134.9790012  16.6124997  50.7249988 134.7959549  16.2480636  49.9571763
 140.5950012  14.7894997  37.0509988 140.8340012  14.0414997  36.5039988
 140.3260012  14.4014997  37.8839988 140.5913675  14.6346638  37.0886865
 139.5320012  14.3594997  39.5079988 139.6780012  13.8394997  40.2979988
 139.5290012  15.2664997  39.8139988 139.5515989  14.4108853  39.6576088
 135.9850012  11.6124997  40.0179988 135.2990012  11.9644997  40.5849988
 136.5070012  12.3754997  39.7709988 135.9616852  11.7638578  40.0622118
 143.8160012   4.2744997  50.2969988 144.5150012   4.3484997  50.9469988
 143.4350012   3.4104997  50.4509988 143.8601767   4.1677624  50.4068322
 144.6010012   3.9264997  41.3939988 144.8210012   4.3984997  40.5909988
 145.1590012   4.3214997  42.0639988 144.7064968   4.0444285  41.3747331
 142.2690012  16.0574997  40.2569988 141.4530012  16.5544997  40.3089988
 142.7990012  16.5324997  39.6169988 142.2289161  16.1897722  40.1775956
 141.8010012   5.6544997  42.2289988 142.6130012   6.1594997  42.2749988
 141.5560012   5.5094997  43.1429988 141.8790520   5.7040375  42.3588517
 142.3360012   6.6404997  51.4139988 142.4550012   7.2144997  52.1709988
 142.9920012   5.9524997  51.5279988 142.4409757   6.6261079  51.5330825
 142.6840012   2.7354997  43.1669988 142.3380012   3.3534997  43.8119988
 143.3430012   3.2364997  42.6859988 142.7257826   2.8875802  43.1900971
 139.6080012  17.1014997  40.2389988 139.7680012  17.9004997  39.7379988
 139.4100012  17.4074997  41.1239988 139.6031649  17.2524469  40.2899815
 138.3420012   3.7984997  39.8539988 138.2590012   4.6874997  40.2009988
 139.2320012   3.5334997  40.0859988 138.4509469   3.8841430  39.9327626
 136.6010012  14.2264997  38.9149988 137.1930012  14.9254997  39.1909988
 137.0600012  13.7934997  38.1949988 136.7441142  14.2637049  38.8554830
 134.9170012   6.8904997  38.0309988 134.8720012   7.8294997  38.2089988
 134.0290012   6.6544997  37.7609988 134.7908574   6.9871892  38.0188912
 135.7250012   1.6724997  46.7039988 135.4960012   1.7314997  45.7759988
 135.2820012   0.8804997  47.0099988 135.6338530   1.5735753  46.6184786
 134.6550012  15.6124997  42.8639988 133.8230012  16.0854997  42.8919988
 135.2010012  16.1224997  42.2659988 134.6149739  15.7461871  42.7869716
 133.9430012  18.2254997  54.1939988 134.4840012  18.0084997  54.9539988
 133.4620012  17.4194997  54.0049988 133.9519345  18.0869514  54.2723076
 138.5410012  17.1444997  55.8149988 139.3080012  16.6854997  56.1559988
 138.5190012  16.9184997  54.8849988 138.6431434  17.0510409  55.7360043
 142.6330012  16.6524997  37.1899988 141.9890012  16.0214997  37.5109988
 143.3950012  16.1214997  36.9579988 142.6478077  16.4942920  37.2026011
 133.8500012  12.0354997  55.1489988 133.9940012  11.1334997  54.8619988
 133.0780012  12.3214997  54.6609988 133.7653323  11.9508261  55.0437881
 138.1920012  12.3794997  37.2809988 138.2560012  11.5854997  37.8119988
 138.8450012  12.2604997  36.5909988 138.2890241  12.2547148  37.2604317
 140.5060012  12.0054997  54.5809988 140.1770012  12.2764997  53.7239988
 140.6580012  11.0644997  54.4939988 140.4814809  11.9153862  54.4518244
 143.5440012  13.4264997  37.0169988 143.2750012  13.6064997  37.9179988
 143.3380012  12.5004997  36.8859988 143.4793825  13.3260152  37.1225214
 134.6830012   9.2354997  54.5689988 135.0910012   8.3784997  54.4479988
 134.4230012   9.2504997  55.4899988 134.7037568   9.1200807  54.6769588
 139.3410012  10.3514997  39.5869988 138.8810012   9.8674997  40.2729988
 139.5960012   9.6834997  38.9509988 139.3124902  10.1948731  39.5949334
 138.6300012   8.2444997  51.9429988 138.0120012   8.9194997  52.2229988
 138.9740012   8.5654997  51.1099988 138.5919615   8.3802721  51.8686581
 140.4120012   8.5944997  37.8489988 140.2320012   8.4404997  36.9219988
 141.3620012   8.7024997  37.8939988 140.5157776   8.5880175  37.7281843
 143.6500012  10.7164997  55.2199988 144.6030012  10.7994997  55.1929988
 143.4890012  10.0044997  55.8399988 143.7586426  10.6316746  55.3000579
 138.9690012   5.5994997  53.0249988 139.1190012   4.8704997  52.4229988
 138.9720012   6.3764997  52.4659988 138.9899302   5.6047851  52.8670692
 139.3820012   3.9694997  50.5179988 139.9180012   4.4204997  49.8659988
 138.5300012   3.8614997  50.0949988 139.3402178   4.0166390  50.3715756
 140.9640012   9.4084997  50.7569988 141.7140012   9.2524997  50.1839988
 140.6250012  10.2604997  50.4819988 141.0208921   9.5022968  50.6413561
 137.4480012   6.7974997  54.9369988 136.6810012   6.2654997  54.7269988
 138.1270012   6.4874997  54.3369988 137.4347022   6.6827506  54.8271648
 140.1880012   1.4254997  50.9489988 140.0890012   2.3724997  50.8439988
 139.4450012   1.0534997  50.4739988 140.0740564   1.5045902  50.8704560
 141.4520012   5.7474997  54.5129988 141.2160012   5.5274997  55.4149988
 140.6680012   5.5404997  54.0029988 141.3138628   5.6894760  54.5673932
 144.1670012   4.8744997  53.5889988 143.2200012   4.9064997  53.7209988
 144.4800012   4.2494997  54.2419988 144.0795475   4.7943207  53.6954455
 135.6280012   4.7184997  54.6409988 135.8400012   4.0114997  54.0309988
 135.5170012   4.2804997  55.4849988 135.6419721   4.5627084  54.6716843
 140.4090012   0.7194997  53.6209988 141.1210012   0.0794997  53.6069988
 140.3080012   0.9864997  52.7069988 140.4927939   0.6679938  53.4955650
 140.7630012   2.4024997  55.6739988 140.6310012   1.9264997  54.8539988
 140.1640012   3.1464997  55.6189988 140.6639071   2.4379618  55.5542886
 140.3090012  19.2854997  38.8509988 141.2420012  19.4434997  38.9939988
 140.0450012  19.9604997  38.2259988 140.4009510  19.3983611  38.7860741
 133.8780012  13.9214997  38.3329988 134.7920012  14.0004997  38.6069988
 133.8850012  13.2344997  37.6669988 134.0041131  13.8393961  38.2804393
 132.5270012  19.3144997  43.4109988 131.8800012  18.8524997  42.8779988
 132.8810012  18.6424997  43.9929988 132.4863849  19.1604723  43.4167959
 133.3970012  17.3954997  45.2149988 133.0620012  16.5154997  45.3869988
 133.6190012  17.7404997  46.0799988 133.3811783  17.3217500  45.3554208
 133.4770012  10.4704997  47.6669988 133.6610012  10.3884997  46.7309988
 134.3260012  10.3464997  48.0909988 133.6170139  10.4425003  47.5961455
 133.0740012   5.7414997  53.8079988 133.9940012   5.6194997  54.0439988
 132.6250012   4.9914997  54.1969988 133.1391580   5.6233727  53.8929006
 134.2950012   4.0534997  46.6989988 134.7410012   3.2614997  47.0009988
 134.7620012   4.7694997  47.1299988 134.4190172   4.0420624  46.7984820
 132.5990012   7.0524997  47.7679988 133.0910012   6.8314997  46.9769988
 132.9620012   7.8934997  48.0489988 132.7153126   7.1358357  47.6977531
 132.9130012   3.3104997  41.8219988 131.9880012   3.5194997  41.6929988
 133.3670012   3.7944997  41.1329988 132.8477368   3.4045993  41.7111226
 132.8770012   2.0484997  50.1669988 132.2120012   1.8024997  50.8099988
 132.4340012   2.6704997  49.5889988 132.7260956   2.0988632  50.1769352
 135.0690012  15.2234997  54.3109988 134.2480012  15.3984997  53.8509988
 134.8160012  15.1504997  55.2319988 134.9226164  15.2375622  54.3724923
 138.0230012  16.1984997  50.5699988 137.5980012  17.0074997  50.2869988
 138.9270012  16.2834997  50.2679988 138.0870271  16.3208469  50.4903776
 142.3340012  17.5974997  53.5289988 142.5190012  17.2634997  54.4069988
 143.1800012  17.9064997  53.2069988 142.4737539  17.5936047  53.6055605
 144.6790012  18.8834997  52.7729988 145.3560012  18.2504997  52.5329988
 145.0010012  19.2844997  53.5799988 144.8151637  18.8511154  52.8492793
 135.4250012  19.4544997  50.6169988 134.7040012  19.8944997  50.1659988
 135.0590012  19.2034997  51.4659988 135.2769804  19.4807698  50.6699840
 137.8920012  19.0544997  49.6469988 137.0270012  19.1264997  50.0509988
 137.8370012  19.6014997  48.8629988 137.7662085  19.1382685  49.5963362
 142.6020012  18.9424997  48.8219988 142.1460012  19.4714997  48.1679988
 142.7650012  19.5454997  49.5479988 142.5615585  19.0964468  48.8305062
 134.8390012  18.0774997  47.5269988 134.8210012  17.6524997  48.3849988
 135.6440012  17.7594997  47.1189988 134.9453875  17.9763812  47.5891655
 136.9810012  16.7874997  46.1819988 136.7620012  15.8714997  46.3519988
 137.8050012  16.9274997  46.6479988 137.0624420  16.6810520  46.2682774
 139.5180012  17.2574997  47.0309988 139.7310012  16.3694997  46.7439988
 139.5820012  17.2234997  47.9849988 139.5558232  17.1313102  47.1207397
 143.0260012   2.9214997  46.1749988 142.3520012   2.2924997  46.4309988
 143.5900012   2.4374997  45.5719988 143.0099230   2.7698744  46.1285340
 135.3530012   1.5554997  43.9969988 134.5760012   1.3214997  43.4899988
 135.8830012   0.7584997  44.0059988 135.3182330   1.4156988  43.9287742
 134.1890012   1.3534997  39.8009988 134.6280012   1.9644997  39.2089988
 133.5560012   1.8914997  40.2749988 134.1634514   1.5099257  39.7840930
 139.9320012   1.4824997  43.8109988 140.8070012   1.8704997  43.7809988
 139.7960012   1.2674997  44.7329988 140.0333695   1.5065184  43.9316440
 134.0900012  17.3014997  40.6989988 133.4050012  17.2634997  40.0309988
 134.0940012  18.2144997  40.9869988 133.9968193  17.4197016  40.6465284
 136.0500012   3.2694997  38.2429988 136.5420012   2.6394997  37.7159988
 136.6740012   3.5654997  38.9069988 136.2015446   3.2233199  38.2605980
 141.0760012   3.5624997  40.6999988 141.2540012   2.9164997  41.3829988
 141.0230012   4.3964997  41.1679988 141.0931829   3.5867985  40.8565940
 142.9550012  18.5114997  39.0959988 143.8210012  18.8774997  38.9179988
 142.7080012  18.0714997  38.2819988 143.0402392  18.5021756  38.9616289
 135.3110012   2.0694997  53.5149988 134.9450012   1.3044997  53.9579988
 136.2240012   2.0984997  53.8019988 135.3842790   1.9687224  53.6144070
 137.2840012   1.4204997  55.0509988 138.1820012   1.1464997  54.8659988
 136.8970012   0.6774997  55.5149988 137.3546612   1.2825914  55.0883643
 135.9080012  18.2214997  37.7239988 135.6410012  18.5084997  38.5969988
 136.6800012  17.6754997  37.8759988 135.9757488  18.1870294  37.8641050
  12.4390012  29.5674997  43.9559988  12.5280012  30.5114997  43.8239988
  11.8010012  29.2924997  43.2979988  12.3649081  29.6594830  43.8489614
  11.3720012  28.8224997  47.3749988  11.3340012  28.1764997  48.0799988
  11.0500012  28.3564997  46.6039988  11.3232333  28.6709408  47.3672978
   3.7410012  28.4374997  48.9679988   3.7820012  27.8114997  49.6909988
   4.4440012  29.0614997  49.1499988   3.8416363  28.4361196  49.0916044
  15.0780012  31.7614997  45.6759988  14.6380012  31.0414997  46.1269988
  15.0650012  32.4824997  46.3059988  15.0160226  31.7603731  45.8228494
   4.6640012  32.8874997  47.5029988   4.2950012  32.0854997  47.1329988
   5.6050012  32.7184997  47.5489988   4.7407289  32.7550153  47.4586316
   1.2740012  26.5474997  42.8959988   0.8270012  27.3934997  42.8769988
   0.7130012  25.9674997  42.3799988   1.1369900  26.5849916  42.8236801
   1.9850012  28.7094997  45.0219988   2.1980012  27.9394997  45.5489988
   2.7230012  28.7984997  44.4179988   2.1138496  28.6161394  45.0125300
  12.1900012  36.8664997  45.8889988  12.8100012  36.1894997  45.6149988
  11.9820012  36.6484997  46.7969988  12.2466904  36.7443870  45.9743365
   9.7620012  31.2554997  47.7809988  10.0660012  30.5694997  47.1859988
  10.4830012  31.3734997  48.3989988   9.9010671  31.1776305  47.7831816
  18.4250012  22.8564997  48.6419988  18.4740012  23.4664997  49.3779988
  18.8500012  23.3174997  47.9189988  18.4891824  23.0023741  48.6450205
  12.9030012  25.6494997  48.1089988  13.0450012  24.7034997  48.1289988
  12.7960012  25.8564997  47.1799988  12.9079864  25.5479534  47.9862339
   6.0570012  23.7504997  45.3809988   6.1010012  24.6104997  44.9629988
   5.6000012  23.1984997  44.7469988   6.0012185  23.7935799  45.2380299
  13.7800012  23.8814997  43.7819988  14.4260012  23.5524997  44.4069988
  14.2900012  24.3994997  43.1589988  13.9374264  23.9064611  43.7833862
   2.6780012  26.1474997  46.1429988   3.3310012  25.5974997  46.5749988
   2.7020012  25.8734997  45.2259988   2.7706683  26.0351466  46.0782123
   7.8340012  27.6974997  45.3579988   8.4500012  27.1714997  45.8679988
   7.2480012  27.0574997  44.9549988   7.8390810  27.5389208  45.3733173
  18.8160012  24.3344997  50.8779988  18.1280012  24.9924997  50.7819988
  18.8320012  24.1374997  51.8139988  18.7238525  24.3980462  50.9914808
   4.8680012  22.6684997  49.4549988   4.6490012  23.1984997  48.6889988
   4.2000012  22.8954997  50.1019988   4.7477600  22.7716906  49.4376379
  12.2370012  32.1684997  42.9989988  11.9410012  31.8464997  42.1479988
  11.9120012  33.0684997  43.0399988  12.1526371  32.2460215  42.8881801
   7.4370012  30.3444997  49.7419988   6.6970012  30.9424997  49.8459988
   8.1510012  30.8984997  49.4269988   7.4322237  30.5012831  49.7136465
  15.5440012  23.1724997  45.7619988  15.3280012  22.4064997  46.2949988
  16.1990012  23.6444997  46.2749988  15.6030632  23.1315889  45.9042861
   4.4610012  24.5604997  47.4069988   5.0750012  25.1934997  47.7809988
   4.9730012  24.0884997  46.7509988   4.6142296  24.5832370  47.3694252
   5.8440012  32.3084997  50.5299988   5.8390012  33.1884997  50.1519988
   4.9910012  32.2254997  50.9549988   5.7279464  32.4176117  50.5357907
   1.9650012  31.9794997  41.3119988   1.6930012  32.2084997  40.4229988
   2.0110012  32.8174997  41.7719988   1.9340094  32.1241213  41.2525697
  15.5900012  33.6014997  48.0239988  14.6490012  33.6594997  48.1859988
  15.8670012  34.5074997  47.8869988  15.4984679  33.7319443  48.0276815
  15.8910012  21.8874997  49.4419988  15.1550012  22.4984997  49.4039988
  16.5740012  22.3024997  48.9149988  15.8826541  22.0271374  49.3655832
   8.8940012  19.9744997  46.9079988   8.7770012  19.0254997  46.8529988
   8.0390012  20.3064997  47.1809988   8.7623733  19.8895409  46.9373897
  13.8420012  35.3824997  44.6499988  14.2680012  34.6754997  44.1649988
  14.1590012  36.1834997  44.2329988  13.9431019  35.3940994  44.5273130
  15.0020012  33.2834997  43.1579988  14.7440012  32.5934997  42.5469988
  15.0730012  32.8404997  44.0039988  14.9762856  33.1292124  43.1886885
  16.6880012  31.8494997  51.6359988  16.8280012  31.2584997  50.8959988
  16.8550012  32.7224997  51.2789988  16.7296778  31.8866426  51.4866965
  11.1610012  28.8114997  41.4079988  10.4490012  29.3464997  41.0559988
  11.8520012  28.8674997  40.7479988  11.1570132  28.8922543  41.2706289
  11.2140012  27.2694997  38.4469988  11.9150012  27.2914997  39.0979988
  11.5170012  26.6414997  37.7909988  11.3507830  27.1876566  38.4473711
  18.5300012  28.1894997  49.7019988  17.8770012  28.8844997  49.7909988
  18.9950012  28.3994997  48.8919988  18.5035390  28.3129425  49.6046883
  14.5660012  29.0214997  42.3599988  13.8340012  29.2494997  42.9329988
  15.0140012  28.3074997  42.8149988  14.5263095  28.9562571  42.4999119
  14.4640012  27.1954997  51.4269988  14.5440012  27.9584997  51.9989988
  13.8620012  27.4744997  50.7369988  14.3935756  27.3377134  51.4120589
   6.2120012  29.6514997  44.2419988   5.8810012  29.2814997  43.4239988
   6.8000012  28.9814997  44.5889988   6.2461873  29.5101156  44.1768102
   7.5780012  33.0794997  46.9239988   7.4840012  32.5014997  46.1669988
   8.3080012  32.7084997  47.4199988   7.6637981  32.9502390  46.8874165
   6.5780012  28.4204997  47.8759988   7.1440012  28.5414997  47.1129988
   6.8970012  29.0574997  48.5149988   6.6985786  28.5231884  47.8580040
  12.8870012  33.9234997  48.6099988  12.6470012  34.5854997  49.2579988
  12.6890012  33.0894997  49.0349988  12.8273808  33.9013134  48.7561524
   7.4580012  32.8194997  52.5929988   7.1470012  33.6014997  53.0479988
   6.8080012  32.6664997  51.9069988   7.3275558  32.9059105  52.5625871
  13.4370012  28.1834997  40.0449988  14.0170012  28.3334997  40.7919988
  13.8510012  28.6544997  39.3219988  13.5722830  28.2676841  40.0494134
   4.3780012  29.0174997  51.8219988   4.4490012  29.6684997  52.5199988
   3.4880012  29.1204997  51.4869988   4.2673117  29.1205936  51.8722700
  11.1640012  34.9204997  43.4799988  11.6380012  35.2154997  44.2579988
  10.6010012  35.6584997  43.2469988  11.1527653  35.0606932  43.5550136
   5.6980012  34.8914997  53.3559988   5.7050012  34.7554997  52.4089988
   4.7820012  34.7734997  53.6079988   5.5751714  34.8569430  53.2604666
  17.1360012  19.9334997  39.8579988  16.2360012  20.0724997  40.1529988
  17.3880012  20.7644997  39.4559988  17.0468702  20.0649074  39.8440205
   5.2020012  28.7214997  41.8319988   4.9100012  29.4894997  41.3409988
   4.5280012  28.0614997  41.6689988   5.0709081  28.7374406  41.7427340
  18.3250012  34.2994997  38.2339988  18.3990012  35.2384997  38.4049988
  19.2310012  33.9944997  38.1779988  18.4575100  34.3866722  38.2498119
   1.2950012  31.0844997  50.6469988   0.7940012  31.0564997  49.8319988
   1.3000012  30.1784997  50.9559988   1.2271526  30.9582278  50.5772872
   1.0450012  33.8644997  47.5309988   1.9910012  33.7204997  47.5119988
   0.9330012  34.6484997  48.0679988   1.1592727  33.9508046  47.6010072
  19.2430012  34.5304997  53.2129988  19.1940012  33.5754997  53.1759988
  18.4160012  34.7984997  53.6139988  19.1244940  34.4358998  53.2621375
  10.2220012  34.1044997  52.0889988  10.3090012  34.9304997  52.5639988
   9.3580012  33.7744997  52.3379988  10.1171964  34.1729878  52.1876549
  10.6360012  37.8764997  41.8949988  10.5610012  37.7554997  40.9489988
  10.6690012  38.8264997  42.0139988  10.6301848  37.9882500  41.7814834
   4.2890012  36.6654997  43.6759988   4.4420012  36.3174997  44.5549988
   3.4390012  36.3094997  43.4209988   4.1948962  36.5696650  43.7618340
  13.7380012  37.0304997  38.8969988  14.1130012  36.2864997  38.4269988
  13.7420012  36.7604997  39.8159988  13.7898915  36.8921486  38.9567824
  13.4070012  36.9564997  41.6469988  12.4710012  37.0564997  41.8249988
  13.6870012  36.2474997  42.2249988  13.3168255  36.8742711  41.7495391
  16.3950012  26.0234997  53.6929988  15.9880012  26.5044997  52.9719988
  16.4360012  25.1184997  53.3849988  16.3448437  25.9669374  53.5526683
   3.5440012  32.4074997  51.6899988   3.7600012  32.0464997  52.5489988
   2.6890012  32.0334997  51.4799988   3.4579292  32.3074111  51.7793386
   6.1630012  20.8774997  47.6849988   5.3010012  20.7904997  47.2779988
   6.1400012  21.7334997  48.1129988   6.0420330  20.9812765  47.6871863
  10.8260012  20.5994997  51.0599988  11.2460012  20.1844997  51.8129988
   9.8930012  20.4214997  51.1769988  10.7573644  20.5185900  51.1789539
  14.1520012  24.3554997  51.9129988  13.6380012  24.2294997  52.7109988
  13.9970012  25.2674997  51.6689988  14.0606852  24.4616132  51.9892158
  14.9150012  29.2164997  37.6749988  14.9570012  28.9934997  36.7449988
  15.7640012  29.6154997  37.8649988  15.0355396  29.2399155  37.5733627
  10.4870012  23.0924997  38.3449988  10.2340012  23.1114997  39.2679988
  10.2310012  22.2204997  38.0439988  10.4177790  22.9772437  38.4306263
   6.2540012  25.8434997  48.7799988   5.6120012  25.8024997  49.4889988
   6.2910012  26.7694997  48.5429988   6.1711324  25.9631559  48.8449824
   6.2510012  26.0644997  43.6919988   5.3580012  25.7234997  43.6339988
   6.7010012  25.6874997  42.9369988   6.1897305  25.9668484  43.5819177
  11.7860012  26.4804997  42.5089988  11.3770012  27.2954997  42.2179988
  12.5070012  26.3404997  41.8949988  11.8274537  26.5732018  42.3861342
  10.8880012  26.6554997  53.9969988  10.3260012  25.9514997  54.3179988
  11.7150012  26.5354997  54.4649988  10.9227095  26.5427883  54.1042330
  12.7910012  25.9264997  45.3229988  12.5960012  26.5314997  44.6079988
  12.9720012  25.0924997  44.8889988  12.7887614  25.8966300  45.1664405
   4.0040012  26.1634997  50.6469988   3.9660012  26.5634997  51.5159988
   3.5130012  25.3464997  50.7379988   3.9324684  26.1078069  50.7781059
   7.3700012  23.5374997  37.4459988   6.9390012  23.0924997  38.1759988
   6.6520012  23.9094997  36.9339988   7.2139438  23.5268940  37.4766799
   0.6120012  23.2794997  44.4979988   1.2430012  23.2504997  45.2169988
   1.0610012  22.8544997  43.7679988   0.7590774  23.2180492  44.4976553
   1.8860012  24.0254997  39.9219988   2.3600012  24.6164997  39.3369988
   1.1690012  24.5564997  40.2689988   1.8539341  24.1780867  39.8888836
  12.0550012  27.5644997  49.9949988  12.3780012  26.9334997  49.3519988
  11.6150012  27.0294997  50.6549988  12.0396895  27.4058441  49.9962850
   8.8320012  23.4914997  44.7789988   7.9210012  23.5484997  45.0669988
   9.3380012  23.4314997  45.5889988   8.7755413  23.4911985  44.9280622
   3.6610012  25.1204997  43.6049988   2.7710012  25.2204997  43.2649988
   3.9570012  24.2784997  43.2589988   3.5792823  25.0203545  43.5117213
   7.3140012  25.1204997  41.2619988   8.2450012  25.2494997  41.4399988
   7.0990012  25.7904997  40.6119988   7.4124247  25.2286565  41.1985747
  13.2370012  22.7264997  48.0429988  12.5610012  22.8574997  48.7069988
  12.7520012  22.5714997  47.2329988  13.0787145  22.7234905  48.0244517
   5.9880012  26.3154997  38.8289988   5.4450012  25.9354997  38.1369988
   6.8210012  26.5094997  38.3999988   6.0264399  26.2898124  38.6764526
  16.5250012  38.3984997  54.3199988  16.7250012  38.8224997  53.4849988
  17.1800012  38.7414997  54.9269988  16.6410051  38.5029648  54.2877836
   4.1230012  30.8724997  53.9279988   4.8550012  31.1264997  54.4889988
   3.3430012  31.0764997  54.4429988   4.1178232  30.9349177  54.0745760
  10.1520012  26.2794997  46.6659988  10.7170012  25.7324997  46.1189988
  10.0050012  25.7574997  47.4539988  10.2092918  26.1342024  46.6978454
   5.1540012  22.4154997  43.0839988   4.8370012  21.5134997  43.0489988
   5.9360012  22.4174997  42.5309988   5.2162284  22.2921628  43.0044783
   8.7790012  24.6674997  49.0799988   7.9430012  25.1214997  49.1899988
   9.3030012  24.9434997  49.8319988   8.7354414  24.7669376  49.1967136
   9.3230012  30.8804997  40.7639988   8.5780012  30.3734997  40.4419988
   9.1890012  30.9294997  41.7109988   9.2028776  30.8176940  40.8478647
  16.4730012  30.0134997  49.5509988  17.1150012  30.4704997  49.0069988
  15.6430012  30.1264997  49.0879988  16.4485963  30.0912704  49.4140177
  13.2210012  23.6944997  38.9639988  12.2820012  23.8064997  38.8119988
  13.5180012  24.5514997  39.2699988  13.1327666  23.8256443  38.9845768
  10.8420012  31.0644997  52.0009988  10.4970012  30.6834997  52.8079988
  10.6420012  31.9984997  52.0729988  10.7678061  31.1385228  52.1210961
  13.9390012  25.5614997  40.6239988  14.8310012  25.4244997  40.9429988
  13.9960012  26.3524997  40.0879988  14.0686285  25.6496660  40.5951691
   4.4480012  30.1754997  46.5339988   5.1930012  30.1734997  45.9329988
   4.5260012  29.3524997  47.0159988   4.5605518  30.0639315  46.5168929
  11.4490012  32.3394997  39.7899988  11.1530012  33.1654997  40.1709988
  10.7460012  31.7194997  39.9859988  11.3134914  32.3688199  39.8686443
   1.4560012  28.6364997  51.8489988   1.6790012  28.2184997  52.6809988
   0.8540012  28.0234997  51.4259988   1.4051759  28.4964668  51.9057022
   8.4720012  28.1534997  54.0619988   8.1760012  27.9874997  53.1669988
   9.4040012  27.9334997  54.0509988   8.5574166  28.1010640  53.9380536
  13.0930012  33.5264997  51.9519988  12.1920012  33.7094997  51.6839988
  13.1270012  33.7854997  52.8729988  12.9743041  33.5865512  52.0398197
  18.8240012  25.7714997  40.3189988  18.2700012  25.3754997  39.6469988
  18.9240012  26.6814997  40.0409988  18.7617059  25.8403586  40.1894401
  18.7870012  31.5714997  53.1559988  17.9360012  31.8094997  52.7889988
  19.3780012  31.5544997  52.4029988  18.7502487  31.6018258  53.0038893
  17.1190012  34.5574997  40.7839988  16.7460012  33.7314997  41.0929988
  17.3970012  34.3744997  39.8869988  17.1055630  34.4197303  40.7049626
  14.2800012  29.3654997  47.8049988  13.3510012  29.1334997  47.7779988
  14.7310012  28.5884997  47.4749988  14.2139216  29.2287238  47.7566917
   6.8230012  33.6934997  43.9379988   7.3500012  34.4664997  43.7379988
   5.9430012  33.9184997  43.6369988   6.7761773  33.8298005  43.8699010
   2.5780012  28.5554997  38.5249988   3.1940012  29.1824997  38.9049988
   1.7160012  28.8714997  38.7969988   2.5457698  28.6839430  38.6137183
   8.2500012  31.3564997  43.5149988   8.0090012  32.2814997  43.5559988
   7.5090012  30.8974997  43.9109988   8.1168409  31.4211421  43.5741377
   8.7650012  35.5054997  49.8299988   9.1270012  36.3604997  49.5959988
   9.2960012  35.2134997  50.5699988   8.8864473  35.5831060  49.8980855
   6.9330012  36.3784997  43.0599988   5.9830012  36.4834997  43.1109988
   7.2850012  37.1984997  43.4049988   6.8504203  36.5038314  43.1136650
  12.3090012  31.6044997  49.5299988  11.8830012  31.3774997  50.3569988
  12.8890012  30.8664997  49.3479988  12.3291868  31.4735299  49.6185830
  14.5120012  32.5334997  38.6039988  14.8650012  32.1534997  39.4089988
  13.5630012  32.4404997  38.6909988  14.4320441  32.4689596  38.7258559
  14.9670012  36.1564997  51.9999988  14.3660012  35.6014997  51.5039988
  15.2490012  36.8234997  51.3739988  14.9228519  36.1706841  51.8474952
  19.0150012  37.0134997  38.8049988  19.7590012  37.5994997  38.6649988
  18.3210012  37.5814997  39.1389988  19.0230292  37.1705582  38.8309961
   3.0900012  23.3894997  51.4069988   2.1970012  23.7284997  51.3389988
   2.9910012  22.5344997  51.8249988   2.9544164  23.3202588  51.4542235
  15.3780012  31.2064997  40.8309988  15.1000012  30.4784997  41.3869988
  16.3050012  31.3254997  41.0359988  15.4653124  31.1228802  40.9348845
   2.7410012  35.1944997  49.8419988   2.9580012  34.2624997  49.8109988
   2.9870012  35.4684997  50.7249988   2.8039549  35.1040636  49.9571763
   8.6030012  33.6454997  37.0509988   8.8420012  32.8974997  36.5039988
   8.3340012  33.2574997  37.8839988   8.5993675  33.4906638  37.0886865
   7.5400012  33.2154997  39.5079988   7.6860012  32.6954997  40.2979988
   7.5370012  34.1224997  39.8139988   7.5595989  33.2668853  39.6576088
   3.9930012  30.4684997  40.0179988   3.3070012  30.8204997  40.5849988
   4.5150012  31.2314997  39.7709988   3.9696852  30.6198578  40.0622118
  11.8240012  23.1304997  50.2969988  12.5230012  23.2044997  50.9469988
  11.4430012  22.2664997  50.4509988  11.8681767  23.0237624  50.4068322
  12.6090012  22.7824997  41.3939988  12.8290012  23.2544997  40.5909988
  13.1670012  23.1774997  42.0639988  12.7144968  22.9004285  41.3747331
  10.2770012  34.9134997  40.2569988   9.4610012  35.4104997  40.3089988
  10.8070012  35.3884997  39.6169988  10.2369161  35.0457722  40.1775956
   9.8090012  24.5104997  42.2289988  10.6210012  25.0154997  42.2749988
   9.5640012  24.3654997  43.1429988   9.8870520  24.5600375  42.3588517
  10.3440012  25.4964997  51.4139988  10.4630012  26.0704997  52.1709988
  11.0000012  24.8084997  51.5279988  10.4489757  25.4821079  51.5330825
  10.6920012  21.5914997  43.1669988  10.3460012  22.2094997  43.8119988
  11.3510012  22.0924997  42.6859988  10.7337826  21.7435802  43.1900971
   7.6160012  35.9574997  40.2389988   7.7760012  36.7564997  39.7379988
   7.4180012  36.2634997  41.1239988   7.6111649  36.1084469  40.2899815
   6.3500012  22.6544997  39.8539988   6.2670012  23.5434997  40.2009988
   7.2400012  22.3894997  40.0859988   6.4589469  22.7401430  39.9327626
  16.5490012  23.4034997  52.2489988  15.6320012  23.6664997  52.1609988
  16.8840012  23.4004997  51.3519988  16.4689900  23.4390224  52.1157919
  15.1510012  27.1544997  46.3439988  14.3530012  26.7394997  46.0159988
  15.5960012  26.4634997  46.8349988  15.1019885  27.0043543  46.3654889
   4.6090012  33.0824997  38.9149988   5.2010012  33.7814997  39.1909988
   5.0680012  32.6494997  38.1949988   4.7521142  33.1197049  38.8554830
   2.9250012  25.7464997  38.0309988   2.8800012  26.6854997  38.2089988
   2.0370012  25.5104997  37.7609988   2.7988574  25.8431892  38.0188912
  16.2370012  36.4104997  47.9669988  16.0820012  37.0884997  47.3099988
  17.1700012  36.4824997  48.1699988  16.3418500  36.5130170  47.9045119
   3.7330012  20.5284997  46.7039988   3.5040012  20.5874997  45.7759988
   3.2900012  19.7364997  47.0099988   3.6418530  20.4295753  46.6184786
   2.6630012  34.4684997  42.8639988   1.8310012  34.9414997  42.8919988
   3.2090012  34.9784997  42.2659988   2.6229739  34.6021871  42.7869716
   1.9510012  37.0814997  54.1939988   2.4920012  36.8644997  54.9539988
   1.4700012  36.2754997  54.0049988   1.9599345  36.9429514  54.2723076
   6.5490012  36.0004997  55.8149988   7.3160012  35.5414997  56.1559988
   6.5270012  35.7744997  54.8849988   6.6511434  35.9070409  55.7360043
  10.6410012  35.5084997  37.1899988   9.9970012  34.8774997  37.5109988
  11.4030012  34.9774997  36.9579988  10.6558077  35.3502920  37.2026011
  13.1260012  34.3804997  54.5439988  12.7750012  33.5244997  54.7869988
  13.8520012  34.5234997  55.1509988  13.1760769  34.2825636  54.6593619
  15.2450012  35.3254997  37.4239988  15.5280012  34.5314997  37.8759988
  15.9850012  35.5584997  36.8629988  15.3837486  35.2482803  37.4100698
   1.8580012  30.8914997  55.1489988   2.0020012  29.9894997  54.8619988
   1.0860012  31.1774997  54.6609988   1.7733322  30.8068261  55.0437881
   6.2000012  31.2354997  37.2809988   6.2640012  30.4414997  37.8119988
   6.8530012  31.1164997  36.5909988   6.2970241  31.1107148  37.2604317
   8.5140012  30.8614997  54.5809988   8.1850012  31.1324997  53.7239988
   8.6660012  29.9204997  54.4939988   8.4894809  30.7713862  54.4518244
  11.5520012  32.2824997  37.0169988  11.2830012  32.4624997  37.9179988
  11.3460012  31.3564997  36.8859988  11.4873825  32.1820152  37.1225214
  14.2480012  30.7774997  51.9649988  14.9940012  31.3654997  51.8449988
  13.4910012  31.3594997  52.0279988  14.2477554  30.9367011  51.9570907
   2.6910012  28.0914997  54.5689988   3.0990012  27.2344997  54.4479988
   2.4310012  28.1064997  55.4899988   2.7117568  27.9760807  54.6769588
   7.3490012  29.2074997  39.5869988   6.8890012  28.7234997  40.2729988
   7.6040012  28.5394997  38.9509988   7.3204902  29.0508731  39.5949334
   6.6380012  27.1004997  51.9429988   6.0200012  27.7754997  52.2229988
   6.9820012  27.4214997  51.1099988   6.5999615  27.2362721  51.8686581
   8.4200012  27.4504997  37.8489988   8.2400012  27.2964997  36.9219988
   9.3700012  27.5584997  37.8939988   8.5237776  27.4440175  37.7281843
  11.6580012  29.5724997  55.2199988  12.6110012  29.6554997  55.1929988
  11.4970012  28.8604997  55.8399988  11.7666426  29.4876746  55.3000579
  17.8100012  29.8054997  37.2949988  17.5360012  29.3804997  36.4819988
  17.8490012  30.7364997  37.0779988  17.7777699  29.8732484  37.1543610
   6.9770012  24.4554997  53.0249988   7.1270012  23.7264997  52.4229988
   6.9800012  25.2324997  52.4659988   6.9979302  24.4607851  52.8670692
   7.3900012  22.8254997  50.5179988   7.9260012  23.2764997  49.8659988
   6.5380012  22.7174997  50.0949988   7.3482178  22.8726390  50.3715756
   8.9720012  28.2644997  50.7569988   9.7220012  28.1084997  50.1839988
   8.6330012  29.1164997  50.4819988   9.0288921  28.3582968  50.6413561
  13.3870012  26.0794997  55.7859988  13.5800012  25.1484997  55.6739988
  14.2450012  26.5044997  55.7759988  13.5293020  26.0096389  55.7693361
  14.7040012  28.8684997  53.8629988  14.4230012  29.5774997  53.2859988
  15.6470012  28.7954997  53.7119988  14.7929027  28.9557646  53.7635551
   5.4560012  25.6534997  54.9369988   4.6890012  25.1214997  54.7269988
   6.1350012  25.3434997  54.3369988   5.4427022  25.5387506  54.8271648
   8.1960012  20.2814997  50.9489988   8.0970012  21.2284997  50.8439988
   7.4530012  19.9094997  50.4739988   8.0820563  20.3605902  50.8704560
   9.4600012  24.6034997  54.5129988   9.2240012  24.3834997  55.4149988
   8.6760012  24.3964997  54.0029988   9.3218628  24.5454760  54.5673932
  12.1750012  23.7304997  53.5889988  11.2280012  23.7624997  53.7209988
  12.4880012  23.1054997  54.2419988  12.0875475  23.6503207  53.6954455
  13.8090012  22.3644997  55.5939988  13.7130012  21.4124997  55.5879988
  13.4880012  22.6334997  56.4539988  13.7524070  22.2704035  55.7095441
   3.6360012  23.5744997  54.6409988   3.8480012  22.8674997  54.0309988
   3.5250012  23.1364997  55.4849988   3.6499721  23.4187084  54.6716843
   8.4170012  19.5754997  53.6209988   9.1290012  18.9354997  53.6069988
   8.3160012  19.8424997  52.7069988   8.5007939  19.5239938  53.4955650
   8.7710012  21.2584997  55.6739988   8.6390012  20.7824997  54.8539988
   8.1720012  22.0024997  55.6189988   8.6719071  21.2939618  55.5542886
   8.3170012  38.1414997  38.8509988   9.2500012  38.2994997  38.9939988
   8.0530012  38.8164997  38.2259988   8.4089510  38.2543611  38.7860741
   1.8860012  32.7774997  38.3329988   2.8000012  32.8564997  38.6069988
   1.8930012  32.0904997  37.6669988   2.0121131  32.6953961  38.2804393
   0.5350012  38.1704997  43.4109988  -0.1119988  37.7084997  42.8779988
   0.8890012  37.4984997  43.9929988   0.4943849  38.0164723  43.4167959
   1.4050012  36.2514997  45.2149988   1.0700012  35.3714997  45.3869988
   1.6270012  36.5964997  46.0799988   1.3891783  36.1777501  45.3554208
  18.9530012  37.0604997  48.1959988  18.9320012  37.2454997  49.1349988
  19.6440012  37.6294997  47.8549988  19.0434618  37.1626606  48.2783864
  18.5170012  36.6284997  51.1179988  18.0290012  35.8924997  50.7469988
  19.0660012  36.2344997  51.7959988  18.5244872  36.4746249  51.1589160
  16.9670012  32.4174997  55.7559988  16.1010012  32.3124997  56.1499988
  17.3440012  33.1764997  56.2019988  16.8993308  32.5056900  55.8702393
  18.2680012  30.6744997  41.2699988  19.1180012  31.0954997  41.3969988
  18.2740012  29.9344997  41.8769988  18.3851372  30.6320803  41.3694344
  18.6630012  28.7274997  43.0939988  17.9360012  28.2484997  43.4909988
  19.2440012  28.9334997  43.8259988  18.6419375  28.6897090  43.2474129
  18.4220012  31.5124997  48.0409988  19.2550012  31.1344997  47.7609988
  18.5340012  32.4554997  47.9219988  18.5512647  31.5882218  47.9865487
  16.9080012  34.3904997  50.3479988  16.2610012  34.7154997  50.9739988
  16.3910012  33.9504997  49.6739988  16.7494029  34.3755004  50.3425827
  18.9310012  28.6284997  39.4849988  18.4090012  28.9854997  38.7659988
  18.8980012  29.3034997  40.1629988  18.8551634  28.7685413  39.4783145
  17.2800012  25.8684997  38.0359988  17.3760012  26.5354997  37.3549988
  17.1400012  25.0524997  37.5539988  17.2742135  25.8494500  37.8778491
  16.4490012  27.2484997  43.6569988  16.2990012  26.3034997  43.6359988
  16.0960012  27.5294997  44.4999988  16.3806625  27.1570441  43.7682346
   1.4850012  29.3264997  47.6669988   1.6690012  29.2444997  46.7309988
   2.3340012  29.2024997  48.0909988   1.6250139  29.2985003  47.5961455
  17.3060012  29.2184997  53.2949988  17.8890012  28.4844997  53.4869988
  17.8700012  29.9904997  53.3419988  17.4619769  29.2224227  53.3276159
  18.8020012  27.1214997  53.9799988  17.9390012  26.7424997  53.8139988
  19.4070012  26.3824997  53.9059988  18.7655979  26.9698023  53.9472817
  16.5270012  23.2764997  37.1529988  17.1380012  22.9054997  37.7899988
  15.6910012  22.8554997  37.3489988  16.4975032  23.1687554  37.2667035
  16.1600012  24.8314997  42.1189988  16.4400012  23.9244997  42.2429988
  16.9190012  25.2654997  41.7299988  16.3009277  24.7660942  42.0833682
  16.7720012  25.4124997  47.5549988  17.7050012  25.6244997  47.5209988
  16.5370012  25.5144997  48.4769988  16.8678036  25.4552769  47.6749976
  16.8010012  26.1494997  50.3309988  15.9580012  26.4174997  50.6969988
  17.2430012  26.9714997  50.1199988  16.7454158  26.2973291  50.3525491
   1.0820012  24.5974997  53.8079988   2.0020012  24.4754997  54.0439988
   0.6330012  23.8474997  54.1969988   1.1471580  24.4793727  53.8929006
  19.0840012  20.1294997  55.6839988  19.4340012  19.4754997  55.0789988
  19.2310012  20.9664997  55.2449988  19.1518419  20.1531591  55.5417118
  16.7730012  22.0944997  42.1669988  16.9560012  21.6454997  42.9929988
  16.1740012  21.5094997  41.7039988  16.7170202  21.9539975  42.2173275
   2.3030012  22.9094997  46.6989988   2.7490012  22.1174997  47.0009988
   2.7700012  23.6254997  47.1299988   2.4270172  22.8980624  46.7984820
   0.6070012  25.9084997  47.7679988   1.0990012  25.6874997  46.9769988
   0.9700012  26.7494997  48.0489988   0.7233126  25.9918357  47.6977531
  18.6040012  22.2384997  54.0339988  17.6860012  22.5094997  53.9979988
  18.7270012  21.7034997  53.2489988  18.4951066  22.2032892  53.9230487
  18.6400012  22.1614997  38.6949988  19.0520012  21.4404997  38.2199988
  19.3220012  22.8314997  38.7539988  18.7885885  22.1532368  38.6378915
   0.9210012  22.1664997  41.8219988  -0.0039988  22.3754997  41.6929988
   1.3750012  22.6504997  41.1329988   0.8557368  22.2605993  41.7111226
  15.6920012  37.1504997  43.7679988  16.3440012  36.8034997  43.1599988
  16.2020012  37.6394997  44.4139988  15.8502637  37.1690597  43.7720236
   0.8850012  20.9044997  50.1669988   0.2200012  20.6584997  50.8099988
   0.4420012  21.5264997  49.5889988   0.7340956  20.9548632  50.1769352
   3.0770012  34.0794997  54.3109988   2.2560012  34.2544997  53.8509988
   2.8240012  34.0064997  55.2319988   2.9306164  34.0935622  54.3724923
   6.0310012  35.0544997  50.5699988   5.6060012  35.8634997  50.2869988
   6.9350012  35.1394997  50.2679988   6.0950271  35.1768469  50.4903776
  10.3420012  36.4534997  53.5289988  10.5270012  36.1194997  54.4069988
  11.1880012  36.7624997  53.2069988  10.4817539  36.4496047  53.6055605
  12.6870012  37.7394997  52.7729988  13.3640012  37.1064997  52.5329988
  13.0090012  38.1404997  53.5799988  12.8231637  37.7071154  52.8492793
  17.6040012  20.3284997  51.8529988  16.7920012  20.6534997  51.4649988
  17.8370012  19.5684997  51.3199988  17.5243423  20.2702436  51.7278253
   3.4330012  38.3104997  50.6169988   2.7120012  38.7504997  50.1659988
   3.0670012  38.0594997  51.4659988   3.2849804  38.3367698  50.6699840
   5.9000012  37.9104997  49.6469988   5.0350012  37.9824997  50.0509988
   5.8450012  38.4574997  48.8629988   5.7742085  37.9942685  49.5963362
  10.6100012  37.7984997  48.8219988  10.1540012  38.3274997  48.1679988
  10.7730012  38.4014997  49.5479988  10.5695585  37.9524468  48.8305062
  12.9380012  36.6764997  49.7669988  12.0330012  36.8414997  49.5019988
  13.3670012  37.5294997  49.7019988  12.8720799  36.8144483  49.7219182
  15.5420012  38.2464997  50.0619988  15.3600012  39.1624997  49.8519988
  15.7190012  37.8364997  49.2159988  15.5410210  38.3164822  49.9187885
   2.8470012  36.9334997  47.5269988   2.8290012  36.5084997  48.3849988
   3.6520012  36.6154997  47.1189988   2.9533875  36.8323812  47.5891655
   4.9890012  35.6434997  46.1819988   4.7700012  34.7274997  46.3519988
   5.8130012  35.7834997  46.6479988   5.0704420  35.5370520  46.2682774
   7.5260012  36.1134997  47.0309988   7.7390012  35.2254997  46.7439988
   7.5900012  36.0794997  47.9849988   7.5638231  35.9873102  47.1207397
  11.0340012  21.7774997  46.1749988  10.3600012  21.1484997  46.4309988
  11.5980012  21.2934997  45.5719988  11.0179230  21.6258744  46.1285340
  16.1770012  19.8854997  46.2879988  16.7810012  20.4324997  45.7859988
  15.3070012  20.2044997  46.0479988  16.1421241  20.0035806  46.1867654
  17.9040012  21.0234997  44.6209988  18.5160012  20.5094997  44.0949988
  18.2860012  21.9014997  44.6449988  18.0394540  21.0717140  44.5521830
   3.3610012  20.4114997  43.9969988   2.5840012  20.1774997  43.4899988
   3.8910012  19.6144997  44.0059988   3.3262330  20.2716988  43.9287742
   2.1970012  20.2094997  39.8009988   2.6360012  20.8204997  39.2089988
   1.5640012  20.7474997  40.2749988   2.1714514  20.3659257  39.7840930
   7.9400012  20.3384997  43.8109988   8.8150012  20.7264997  43.7809988
   7.8040012  20.1234997  44.7329988   8.0413695  20.3625184  43.9316440
  13.4970012  20.3684997  45.4599988  13.5730012  20.4634997  44.5099988
  13.2220012  19.4604997  45.5889988  13.4702321  20.2587867  45.3475079
  14.8500012  20.3944997  41.1519988  14.1480012  21.0094997  40.9429988
  14.4060012  19.5564997  41.2829988  14.6936330  20.3655783  41.1410328
   2.0980012  36.1574997  40.6989988   1.4130012  36.1194997  40.0309988
   2.1020012  37.0704997  40.9869988   2.0048193  36.2757016  40.6465284
   4.0580012  22.1254997  38.2429988   4.5500012  21.4954997  37.7159988
   4.6820012  22.4214997  38.9069988   4.2095446  22.0793199  38.2605980
   9.0840012  22.4184997  40.6999988   9.2620012  21.7724997  41.3829988
   9.0310012  23.2524997  41.1679988   9.1011829  22.4427985  40.8565940
  10.9630012  37.3674997  39.0959988  11.8290012  37.7334997  38.9179988
  10.7160012  36.9274997  38.2819988  11.0482392  37.3581756  38.9616289
  17.6720012  36.9304997  41.7749988  17.4770012  36.1824997  41.2099988
  17.6330012  37.6884997  41.1919988  17.6400380  36.9306099  41.6188384
   3.3190012  20.9254997  53.5149988   2.9530012  20.1604997  53.9579988
   4.2320012  20.9544997  53.8019988   3.3922790  20.8247224  53.6144070
   5.2920012  20.2764997  55.0509988   6.1900012  20.0024997  54.8659988
   4.9050012  19.5334997  55.5149988   5.3626612  20.1385914  55.0883643
   3.9160012  37.0774997  37.7239988   3.6490012  37.3644997  38.5969988
   4.6880012  36.5314997  37.8759988   3.9837488  37.0430294  37.8641050
  13.7130012  19.6084997  55.2329988  13.7900012  19.1824997  56.0869988
  14.6070012  19.6224997  54.8899988  13.8443428  19.5520880  55.3035310
  16.8890012  35.6814997  53.9249988  16.1070012  35.4954997  53.4059988
  16.8170012  36.6104997  54.1429988  16.7721777  35.7816492  53.8834048
  31.2950012  29.5674997  43.9559988  31.3840012  30.5114997  43.8239988
  30.6570012  29.2924997  43.2979988  31.2209081  29.6594830  43.8489614
  30.2280012  28.8224997  47.3749988  30.1900012  28.1764997  48.0799988
  29.9060012  28.3564997  46.6039988  30.1792333  28.6709408  47.3672978
  22.5970012  28.4374997  48.9679988  22.6380012  27.8114997  49.6909988
  23.3000012  29.0614997  49.1499988  22.6976363  28.4361196  49.0916044
  33.9340012  31.7614997  45.6759988  33.4940012  31.0414997  46.1269988
  33.9210012  32.4824997  46.3059988  33.8720226  31.7603731  45.8228494
  23.5200012  32.8874997  47.5029988  23.1510012  32.0854997  47.1329988
  24.4610012  32.7184997  47.5489988  23.5967289  32.7550153  47.4586316
  20.1300012  26.5474997  42.8959988  19.6830012  27.3934997  42.8769988
  19.5690012  25.9674997  42.3799988  19.9929900  26.5849916  42.8236801
  20.8410012  28.7094997  45.0219988  21.0540012  27.9394997  45.5489988
  21.5790012  28.7984997  44.4179988  20.9698496  28.6161394  45.0125300
  31.0460012  36.8664997  45.8889988  31.6660012  36.1894997  45.6149988
  30.8380012  36.6484997  46.7969988  31.1026904  36.7443870  45.9743365
  28.6180012  31.2554997  47.7809988  28.9220012  30.5694997  47.1859988
  29.3390012  31.3734997  48.3989988  28.7570671  31.1776305  47.7831816
  37.2810012  22.8564997  48.6419988  37.3300012  23.4664997  49.3779988
  37.7060012  23.3174997  47.9189988  37.3451824  23.0023741  48.6450205
  31.7590012  25.6494997  48.1089988  31.9010012  24.7034997  48.1289988
  31.6520012  25.8564997  47.1799988  31.7639864  25.5479534  47.9862339
  24.9130012  23.7504997  45.3809988  24.9570012  24.6104997  44.9629988
  24.4560012  23.1984997  44.7469988  24.8572185  23.7935799  45.2380299
  32.6360012  23.8814997  43.7819988  33.2820012  23.5524997  44.4069988
  33.1460012  24.3994997  43.1589988  32.7934264  23.9064611  43.7833862
  21.5340012  26.1474997  46.1429988  22.1870012  25.5974997  46.5749988
  21.5580012  25.8734997  45.2259988  21.6266683  26.0351466  46.0782123
  26.6900012  27.6974997  45.3579988  27.3060012  27.1714997  45.8679988
  26.1040012  27.0574997  44.9549988  26.6950810  27.5389208  45.3733173
  37.6720012  24.3344997  50.8779988  36.9840012  24.9924997  50.7819988
  37.6880012  24.1374997  51.8139988  37.5798525  24.3980462  50.9914808
  23.7240012  22.6684997  49.4549988  23.5050012  23.1984997  48.6889988
  23.0560012  22.8954997  50.1019988  23.6037600  22.7716906  49.4376379
  31.0930012  32.1684997  42.9989988  30.7970012  31.8464997  42.1479988
  30.7680012  33.0684997  43.0399988  31.0086371  32.2460215  42.8881801
  26.2930012  30.3444997  49.7419988  25.5530012  30.9424997  49.8459988
  27.0070012  30.8984997  49.4269988  26.2882237  30.5012831  49.7136465
  34.4000012  23.1724997  45.7619988  34.1840012  22.4064997  46.2949988
  35.0550012  23.6444997  46.2749988  34.4590632  23.1315889  45.9042861
  23.3170012  24.5604997  47.4069988  23.9310012  25.1934997  47.7809988
  23.8290012  24.0884997  46.7509988  23.4702296  24.5832370  47.3694252
  24.7000012  32.3084997  50.5299988  24.6950012  33.1884997  50.1519988
  23.8470012  32.2254997  50.9549988  24.5839464  32.4176117  50.5357907
  20.8210012  31.9794997  41.3119988  20.5490012  32.2084997  40.4229988
  20.8670012  32.8174997  41.7719988  20.7900094  32.1241213  41.2525697
  34.4460012  33.6014997  48.0239988  33.5050012  33.6594997  48.1859988
  34.7230012  34.5074997  47.8869988  34.3544679  33.7319443  48.0276815
  34.7470012  21.8874997  49.4419988  34.0110012  22.4984997  49.4039988
  35.4300012  22.3024997  48.9149988  34.7386541  22.0271374  49.3655832
  27.7500012  19.9744997  46.9079988  27.6330012  19.0254997  46.8529988
  26.8950012  20.3064997  47.1809988  27.6183733  19.8895409  46.9373897
  32.6980012  35.3824997  44.6499988  33.1240012  34.6754997  44.1649988
  33.0150012  36.1834997  44.2329988  32.7991019  35.3940994  44.5273130
  33.8580012  33.2834997  43.1579988  33.6000012  32.5934997  42.5469988
  33.9290012  32.8404997  44.0039988  33.8322856  33.1292124  43.1886885
  35.5440012  31.8494997  51.6359988  35.6840012  31.2584997  50.8959988
  35.7110012  32.7224997  51.2789988  35.5856778  31.8866426  51.4866965
  30.0170012  28.8114997  41.4079988  29.3050012  29.3464997  41.0559988
  30.7080012  28.8674997  40.7479988  30.0130132  28.8922543  41.2706289
  30.0700012  27.2694997  38.4469988  30.7710012  27.2914997  39.0979988
  30.3730012  26.6414997  37.7909988  30.2067830  27.1876566  38.4473711
  37.3860012  28.1894997  49.7019988  36.7330012  28.8844997  49.7909988
  37.8510012  28.3994997  48.8919988  37.3595390  28.3129425  49.6046883
  33.4220012  29.0214997  42.3599988  32.6900012  29.2494997  42.9329988
  33.8700012  28.3074997  42.8149988  33.3823095  28.9562571  42.4999119
  33.3200012  27.1954997  51.4269988  33.4000012  27.9584997  51.9989988
  32.7180012  27.4744997  50.7369988  33.2495756  27.3377134  51.4120589
  25.0680012  29.6514997  44.2419988  24.7370012  29.2814997  43.4239988
  25.6560012  28.9814997  44.5889988  25.1021873  29.5101156  44.1768102
  26.4340012  33.0794997  46.9239988  26.3400012  32.5014997  46.1669988
  27.1640012  32.7084997  47.4199988  26.5197981  32.9502390  46.8874165
  25.4340012  28.4204997  47.8759988  26.0000012  28.5414997  47.1129988
  25.7530012  29.0574997  48.5149988  25.5545786  28.5231884  47.8580040
  31.7430012  33.9234997  48.6099988  31.5030012  34.5854997  49.2579988
  31.5450012  33.0894997  49.0349988  31.6833808  33.9013134  48.7561524
  26.3140012  32.8194997  52.5929988  26.0030012  33.6014997  53.0479988
  25.6640012  32.6664997  51.9069988  26.1835558  32.9059105  52.5625871
  32.2930012  28.1834997  40.0449988  32.8730012  28.3334997  40.7919988
  32.7070012  28.6544997  39.3219988  32.4282830  28.2676841  40.0494134
  23.2340012  29.0174997  51.8219988  23.3050012  29.6684997  52.5199988
  22.3440012  29.1204997  51.4869988  23.1233117  29.1205936  51.8722700
  30.0200012  34.9204997  43.4799988  30.4940012  35.2154997  44.2579988
  29.4570012  35.6584997  43.2469988  30.0087653  35.0606932  43.5550136
  24.5540012  34.8914997  53.3559988  24.5610012  34.7554997  52.4089988
  23.6380012  34.7734997  53.6079988  24.4311714  34.8569430  53.2604666
  35.9920012  19.9334997  39.8579988  35.0920012  20.0724997  40.1529988
  36.2440012  20.7644997  39.4559988  35.9028702  20.0649074  39.8440205
  24.0580012  28.7214997  41.8319988  23.7660012  29.4894997  41.3409988
  23.3840012  28.0614997  41.6689988  23.9269081  28.7374406  41.7427340
  37.1810012  34.2994997  38.2339988  37.2550012  35.2384997  38.4049988
  38.0870012  33.9944997  38.1779988  37.3135100  34.3866722  38.2498119
  20.1510012  31.0844997  50.6469988  19.6500012  31.0564997  49.8319988
  20.1560012  30.1784997  50.9559988  20.0831526  30.9582278  50.5772872
  19.9010012  33.8644997  47.5309988  20.8470012  33.7204997  47.5119988
  19.7890012  34.6484997  48.0679988  20.0152727  33.9508046  47.6010072
  38.0990012  34.5304997  53.2129988  38.0500012  33.5754997  53.1759988
  37.2720012  34.7984997  53.6139988  37.9804940  34.4358998  53.2621375
  29.0780012  34.1044997  52.0889988  29.1650012  34.9304997  52.5639988
  28.2140012  33.7744997  52.3379988  28.9731964  34.1729878  52.1876549
  29.4920012  37.8764997  41.8949988  29.4170012  37.7554997  40.9489988
  29.5250012  38.8264997  42.0139988  29.4861848  37.9882500  41.7814834
  23.1450012  36.6654997  43.6759988  23.2980012  36.3174997  44.5549988
  22.2950012  36.3094997  43.4209988  23.0508962  36.5696650  43.7618340
  32.5940012  37.0304997  38.8969988  32.9690012  36.2864997  38.4269988
  32.5980012  36.7604997  39.8159988  32.6458915  36.8921486  38.9567824
  32.2630012  36.9564997  41.6469988  31.3270012  37.0564997  41.8249988
  32.5430012  36.2474997  42.2249988  32.1728255  36.8742711  41.7495391
  35.2510012  26.0234997  53.6929988  34.8440012  26.5044997  52.9719988
  35.2920012  25.1184997  53.3849988  35.2008437  25.9669374  53.5526683
  22.4000012  32.4074997  51.6899988  22.6160012  32.0464997  52.5489988
  21.5450012  32.0334997  51.4799988  22.3139292  32.3074111  51.7793386
  25.0190012  20.8774997  47.6849988  24.1570012  20.7904997  47.2779988
  24.9960012  21.7334997  48.1129988  24.8980330  20.9812765  47.6871863
  29.6820012  20.5994997  51.0599988  30.1020012  20.1844997  51.8129988
  28.7490012  20.4214997  51.1769988  29.6133644  20.5185900  51.1789539
  33.0080012  24.3554997  51.9129988  32.4940012  24.2294997  52.7109988
  32.8530012  25.2674997  51.6689988  32.9166852  24.4616132  51.9892158
  33.7710012  29.2164997  37.6749988  33.8130012  28.9934997  36.7449988
  34.6200012  29.6154997  37.8649988  33.8915396  29.2399155  37.5733627
  29.3430012  23.0924997  38.3449988  29.0900012  23.1114997  39.2679988
  29.0870012  22.2204997  38.0439988  29.2737790  22.9772437  38.4306263
  25.1100012  25.8434997  48.7799988  24.4680012  25.8024997  49.4889988
  25.1470012  26.7694997  48.5429988  25.0271324  25.9631559  48.8449824
  25.1070012  26.0644997  43.6919988  24.2140012  25.7234997  43.6339988
  25.5570012  25.6874997  42.9369988  25.0457305  25.9668484  43.5819177
  30.6420012  26.4804997  42.5089988  30.2330012  27.2954997  42.2179988
  31.3630012  26.3404997  41.8949988  30.6834537  26.5732018  42.3861342
  29.7440012  26.6554997  53.9969988  29.1820012  25.9514997  54.3179988
  30.5710012  26.5354997  54.4649988  29.7787095  26.5427883  54.1042330
  31.6470012  25.9264997  45.3229988  31.4520012  26.5314997  44.6079988
  31.8280012  25.0924997  44.8889988  31.6447614  25.8966300  45.1664405
  22.8600012  26.1634997  50.6469988  22.8220012  26.5634997  51.5159988
  22.3690012  25.3464997  50.7379988  22.7884684  26.1078069  50.7781059
  26.2260012  23.5374997  37.4459988  25.7950012  23.0924997  38.1759988
  25.5080012  23.9094997  36.9339988  26.0699438  23.5268940  37.4766799
  19.4680012  23.2794997  44.4979988  20.0990012  23.2504997  45.2169988
  19.9170012  22.8544997  43.7679988  19.6150774  23.2180492  44.4976553
  20.7420012  24.0254997  39.9219988  21.2160012  24.6164997  39.3369988
  20.0250012  24.5564997  40.2689988  20.7099341  24.1780867  39.8888836
  30.9110012  27.5644997  49.9949988  31.2340012  26.9334997  49.3519988
  30.4710012  27.0294997  50.6549988  30.8956895  27.4058441  49.9962850
  27.6880012  23.4914997  44.7789988  26.7770012  23.5484997  45.0669988
  28.1940012  23.4314997  45.5889988  27.6315413  23.4911985  44.9280622
  22.5170012  25.1204997  43.6049988  21.6270012  25.2204997  43.2649988
  22.8130012  24.2784997  43.2589988  22.4352823  25.0203545  43.5117213
  26.1700012  25.1204997  41.2619988  27.1010012  25.2494997  41.4399988
  25.9550012  25.7904997  40.6119988  26.2684247  25.2286565  41.1985747
  32.0930012  22.7264997  48.0429988  31.4170012  22.8574997  48.7069988
  31.6080012  22.5714997  47.2329988  31.9347145  22.7234905  48.0244517
  24.8440012  26.3154997  38.8289988  24.3010012  25.9354997  38.1369988
  25.6770012  26.5094997  38.3999988  24.8824399  26.2898124  38.6764526
  35.3810012  38.3984997  54.3199988  35.5810012  38.8224997  53.4849988
  36.0360012  38.7414997  54.9269988  35.4970051  38.5029648  54.2877836
  22.9790012  30.8724997  53.9279988  23.7110012  31.1264997  54.4889988
  22.1990012  31.0764997  54.4429988  22.9738232  30.9349177  54.0745760
  29.0080012  26.2794997  46.6659988  29.5730012  25.7324997  46.1189988
  28.8610012  25.7574997  47.4539988  29.0652918  26.1342024  46.6978454
  24.0100012  22.4154997  43.0839988  23.6930012  21.5134997  43.0489988
  24.7920012  22.4174997  42.5309988  24.0722284  22.2921628  43.0044783
  27.6350012  24.6674997  49.0799988  26.7990012  25.1214997  49.1899988
  28.1590012  24.9434997  49.8319988  27.5914414  24.7669376  49.1967136
  28.1790012  30.8804997  40.7639988  27.4340012  30.3734997  40.4419988
  28.0450012  30.9294997  41.7109988  28.0588776  30.8176940  40.8478647
  35.3290012  30.0134997  49.5509988  35.9710012  30.4704997  49.0069988
  34.4990012  30.1264997  49.0879988  35.3045963  30.0912704  49.4140177
  32.0770012  23.6944997  38.9639988  31.1380012  23.8064997  38.8119988
  32.3740012  24.5514997  39.2699988  31.9887666  23.8256443  38.9845768
  29.6980012  31.0644997  52.0009988  29.3530012  30.6834997  52.8079988
  29.4980012  31.9984997  52.0729988  29.6238061  31.1385228  52.1210961
  32.7950012  25.5614997  40.6239988  33.6870012  25.4244997  40.9429988
  32.8520012  26.3524997  40.0879988  32.9246285  25.6496660  40.5951691
  23.3040012  30.1754997  46.5339988  24.0490012  30.1734997  45.9329988
  23.3820012  29.3524997  47.0159988  23.4165518  30.0639315  46.5168929
  30.3050012  32.3394997  39.7899988  30.0090012  33.1654997  40.1709988
  29.6020012  31.7194997  39.9859988  30.1694914  32.3688199  39.8686443
  20.3120012  28.6364997  51.8489988  20.5350012  28.2184997  52.6809988
  19.7100012  28.0234997  51.4259988  20.2611759  28.4964668  51.9057022
  27.3280012  28.1534997  54.0619988  27.0320012  27.9874997  53.1669988
  28.2600012  27.9334997  54.0509988  27.4134166  28.1010640  53.9380536
  31.9490012  33.5264997  51.9519988  31.0480012  33.7094997  51.6839988
  31.9830012  33.7854997  52.8729988  31.8303041  33.5865512  52.0398197
  37.6800012  25.7714997  40.3189988  37.1260012  25.3754997  39.6469988
  37.7800012  26.6814997  40.0409988  37.6177059  25.8403586  40.1894401
  37.6430012  31.5714997  53.1559988  36.7920012  31.8094997  52.7889988
  38.2340012  31.5544997  52.4029988  37.6062487  31.6018258  53.0038893
  35.9750012  34.5574997  40.7839988  35.6020012  33.7314997  41.0929988
  36.2530012  34.3744997  39.8869988  35.9615630  34.4197303  40.7049626
  33.1360012  29.3654997  47.8049988  32.2070012  29.1334997  47.7779988
  33.5870012  28.5884997  47.4749988  33.0699216  29.2287238  47.7566917
  25.6790012  33.6934997  43.9379988  26.2060012  34.4664997  43.7379988
  24.7990012  33.9184997  43.6369988  25.6321773  33.8298005  43.8699010
  21.4340012  28.5554997  38.5249988  22.0500012  29.1824997  38.9049988
  20.5720012  28.8714997  38.7969988  21.4017698  28.6839430  38.6137183
  27.1060012  31.3564997  43.5149988  26.8650012  32.2814997  43.5559988
  26.3650012  30.8974997  43.9109988  26.9728409  31.4211421  43.5741377
  27.6210012  35.5054997  49.8299988  27.9830012  36.3604997  49.5959988
  28.1520012  35.2134997  50.5699988  27.7424473  35.5831060  49.8980855
  25.7890012  36.3784997  43.0599988  24.8390012  36.4834997  43.1109988
  26.1410012  37.1984997  43.4049988  25.7064203  36.5038314  43.1136650
  31.1650012  31.6044997  49.5299988  30.7390012  31.3774997  50.3569988
  31.7450012  30.8664997  49.3479988  31.1851868  31.4735299  49.6185830
  33.3680012  32.5334997  38.6039988  33.7210012  32.1534997  39.4089988
  32.4190012  32.4404997  38.6909988  33.2880441  32.4689596  38.7258559
  33.8230012  36.1564997  51.9999988  33.2220012  35.6014997  51.5039988
  34.1050012  36.8234997  51.3739988  33.7788519  36.1706841  51.8474952
  37.8710012  37.0134997  38.8049988  38.6150012  37.5994997  38.6649988
  37.1770012  37.5814997  39.1389988  37.8790292  37.1705582  38.8309961
  21.9460012  23.3894997  51.4069988  21.0530012  23.7284997  51.3389988
  21.8470012  22.5344997  51.8249988  21.8104164  23.3202588  51.4542235
  34.2340012  31.2064997  40.8309988  33.9560012  30.4784997  41.3869988
  35.1610012  31.3254997  41.0359988  34.3213124  31.1228802  40.9348845
  21.5970012  35.1944997  49.8419988  21.8140012  34.2624997  49.8109988
  21.8430012  35.4684997  50.7249988  21.6599549  35.1040636  49.9571763
  27.4590012  33.6454997  37.0509988  27.6980012  32.8974997  36.5039988
  27.1900012  33.2574997  37.8839988  27.4553675  33.4906638  37.0886865
  26.3960012  33.2154997  39.5079988  26.5420012  32.6954997  40.2979988
  26.3930012  34.1224997  39.8139988  26.4155989  33.2668853  39.6576088
  22.8490012  30.4684997  40.0179988  22.1630012  30.8204997  40.5849988
  23.3710012  31.2314997  39.7709988  22.8256852  30.6198578  40.0622118
  30.6800012  23.1304997  50.2969988  31.3790012  23.2044997  50.9469988
  30.2990012  22.2664997  50.4509988  30.7241767  23.0237624  50.4068322
  31.4650012  22.7824997  41.3939988  31.6850012  23.2544997  40.5909988
  32.0230012  23.1774997  42.0639988  31.5704968  22.9004285  41.3747331
  29.1330012  34.9134997  40.2569988  28.3170012  35.4104997  40.3089988
  29.6630012  35.3884997  39.6169988  29.0929161  35.0457722  40.1775956
  28.6650012  24.5104997  42.2289988  29.4770012  25.0154997  42.2749988
  28.4200012  24.3654997  43.1429988  28.7430520  24.5600375  42.3588517
  29.2000012  25.4964997  51.4139988  29.3190012  26.0704997  52.1709988
  29.8560012  24.8084997  51.5279988  29.3049757  25.4821079  51.5330825
  29.5480012  21.5914997  43.1669988  29.2020012  22.2094997  43.8119988
  30.2070012  22.0924997  42.6859988  29.5897826  21.7435802  43.1900971
  26.4720012  35.9574997  40.2389988  26.6320012  36.7564997  39.7379988
  26.2740012  36.2634997  41.1239988  26.4671649  36.1084469  40.2899815
  25.2060012  22.6544997  39.8539988  25.1230012  23.5434997  40.2009988
  26.0960012  22.3894997  40.0859988  25.3149469  22.7401430  39.9327626
  35.4050012  23.4034997  52.2489988  34.4880012  23.6664997  52.1609988
  35.7400012  23.4004997  51.3519988  35.3249900  23.4390224  52.1157919
  34.0070012  27.1544997  46.3439988  33.2090012  26.7394997  46.0159988
  34.4520012  26.4634997  46.8349988  33.9579885  27.0043543  46.3654889
  23.4650012  33.0824997  38.9149988  24.0570012  33.7814997  39.1909988
  23.9240012  32.6494997  38.1949988  23.6081142  33.1197049  38.8554830
  21.7810012  25.7464997  38.0309988  21.7360012  26.6854997  38.2089988
  20.8930012  25.5104997  37.7609988  21.6548574  25.8431892  38.0188912
  35.0930012  36.4104997  47.9669988  34.9380012  37.0884997  47.3099988
  36.0260012  36.4824997  48.1699988  35.1978500  36.5130170  47.9045119
  22.5890012  20.5284997  46.7039988  22.3600012  20.5874997  45.7759988
  22.1460012  19.7364997  47.0099988  22.4978530  20.4295753  46.6184786
  21.5190012  34.4684997  42.8639988  20.6870012  34.9414997  42.8919988
  22.0650012  34.9784997  42.2659988  21.4789739  34.6021871  42.7869716
  20.8070012  37.0814997  54.1939988  21.3480012  36.8644997  54.9539988
  20.3260012  36.2754997  54.0049988  20.8159345  36.9429514  54.2723076
  25.4050012  36.0004997  55.8149988  26.1720012  35.5414997  56.1559988
  25.3830012  35.7744997  54.8849988  25.5071434  35.9070409  55.7360043
  29.4970012  35.5084997  37.1899988  28.8530012  34.8774997  37.5109988
  30.2590012  34.9774997  36.9579988  29.5118077  35.3502920  37.2026011
  31.9820012  34.3804997  54.5439988  31.6310012  33.5244997  54.7869988
  32.7080012  34.5234997  55.1509988  32.0320769  34.2825636  54.6593619
  34.1010012  35.3254997  37.4239988  34.3840012  34.5314997  37.8759988
  34.8410012  35.5584997  36.8629988  34.2397486  35.2482803  37.4100698
  20.7140012  30.8914997  55.1489988  20.8580012  29.9894997  54.8619988
  19.9420012  31.1774997  54.6609988  20.6293322  30.8068261  55.0437881
  25.0560012  31.2354997  37.2809988  25.1200012  30.4414997  37.8119988
  25.7090012  31.1164997  36.5909988  25.1530241  31.1107148  37.2604317
  27.3700012  30.8614997  54.5809988  27.0410012  31.1324997  53.7239988
  27.5220012  29.9204997  54.4939988  27.3454809  30.7713862  54.4518244
  30.4080012  32.2824997  37.0169988  30.1390012  32.4624997  37.9179988
  30.2020012  31.3564997  36.8859988  30.3433825  32.1820152  37.1225214
  33.1040012  30.7774997  51.9649988  33.8500012  31.3654997  51.8449988
  32.3470012  31.3594997  52.0279988  33.1037554  30.9367011  51.9570907
  21.5470012  28.0914997  54.5689988  21.9550012  27.2344997  54.4479988
  21.2870012  28.1064997  55.4899988  21.5677568  27.9760807  54.6769588
  26.2050012  29.2074997  39.5869988  25.7450012  28.7234997  40.2729988
  26.4600012  28.5394997  38.9509988  26.1764902  29.0508731  39.5949334
  25.4940012  27.1004997  51.9429988  24.8760012  27.7754997  52.2229988
  25.8380012  27.4214997  51.1099988  25.4559615  27.2362721  51.8686581
  27.2760012  27.4504997  37.8489988  27.0960012  27.2964997  36.9219988
  28.2260012  27.5584997  37.8939988  27.3797776  27.4440175  37.7281843
  30.5140012  29.5724997  55.2199988  31.4670012  29.6554997  55.1929988
  30.3530012  28.8604997  55.8399988  30.6226426  29.4876746  55.3000579
  36.6660012  29.8054997  37.2949988  36.3920012  29.3804997  36.4819988
  36.7050012  30.7364997  37.0779988  36.6337699  29.8732484  37.1543610
  25.8330012  24.4554997  53.0249988  25.9830012  23.7264997  52.4229988
  25.8360012  25.2324997  52.4659988  25.8539302  24.4607851  52.8670692
  26.2460012  22.8254997  50.5179988  26.7820012  23.2764997  49.8659988
  25.3940012  22.7174997  50.0949988  26.2042178  22.8726390  50.3715756
  27.8280012  28.2644997  50.7569988  28.5780012  28.1084997  50.1839988
  27.4890012  29.1164997  50.4819988  27.8848921  28.3582968  50.6413561
  32.2430012  26.0794997  55.7859988  32.4360012  25.1484997  55.6739988
  33.1010012  26.5044997  55.7759988  32.3853020  26.0096389  55.7693361
  33.5600012  28.8684997  53.8629988  33.2790012  29.5774997  53.2859988
  34.5030012  28.7954997  53.7119988  33.6489027  28.9557646  53.7635551
  24.3120012  25.6534997  54.9369988  23.5450012  25.1214997  54.7269988
  24.9910012  25.3434997  54.3369988  24.2987022  25.5387506  54.8271648
  27.0520012  20.2814997  50.9489988  26.9530012  21.2284997  50.8439988
  26.3090012  19.9094997  50.4739988  26.9380564  20.3605902  50.8704560
  28.3160012  24.6034997  54.5129988  28.0800012  24.3834997  55.4149988
  27.5320012  24.3964997  54.0029988  28.1778628  24.5454760  54.5673932
  31.0310012  23.7304997  53.5889988  30.0840012  23.7624997  53.7209988
  31.3440012  23.1054997  54.2419988  30.9435475  23.6503207  53.6954455
  32.6650012  22.3644997  55.5939988  32.5690012  21.4124997  55.5879988
  32.3440012  22.6334997  56.4539988  32.6084070  22.2704035  55.7095441
  22.4920012  23.5744997  54.6409988  22.7040012  22.8674997  54.0309988
  22.3810012  23.1364997  55.4849988  22.5059721  23.4187084  54.6716843
  27.2730012  19.5754997  53.6209988  27.9850012  18.9354997  53.6069988
  27.1720012  19.8424997  52.7069988  27.3567939  19.5239938  53.4955650
  27.6270012  21.2584997  55.6739988  27.4950012  20.7824997  54.8539988
  27.0280012  22.0024997  55.6189988  27.5279071  21.2939618  55.5542886
  27.1730012  38.1414997  38.8509988  28.1060012  38.2994997  38.9939988
  26.9090012  38.8164997  38.2259988  27.2649510  38.2543611  38.7860741
  20.7420012  32.7774997  38.3329988  21.6560012  32.8564997  38.6069988
  20.7490012  32.0904997  37.6669988  20.8681131  32.6953961  38.2804393
  19.3910012  38.1704997  43.4109988  18.7440012  37.7084997  42.8779988
  19.7450012  37.4984997  43.9929988  19.3503849  38.0164723  43.4167959
  20.2610012  36.2514997  45.2149988  19.9260012  35.3714997  45.3869988
  20.4830012  36.5964997  46.0799988  20.2451783  36.1777500  45.3554208
  37.8090012  37.0604997  48.1959988  37.7880012  37.2454997  49.1349988
  38.5000012  37.6294997  47.8549988  37.8994618  37.1626606  48.2783864
  37.3730012  36.6284997  51.1179988  36.8850012  35.8924997  50.7469988
  37.9220012  36.2344997  51.7959988  37.3804872  36.4746249  51.1589160
  35.8230012  32.4174997  55.7559988  34.9570012  32.3124997  56.1499988
  36.2000012  33.1764997  56.2019988  35.7553308  32.5056900  55.8702393
  37.1240012  30.6744997  41.2699988  37.9740012  31.0954997  41.3969988
  37.1300012  29.9344997  41.8769988  37.2411372  30.6320803  41.3694344
  37.5190012  28.7274997  43.0939988  36.7920012  28.2484997  43.4909988
  38.1000012  28.9334997  43.8259988  37.4979375  28.6897090  43.2474129
  37.2780012  31.5124997  48.0409988  38.1110012  31.1344997  47.7609988
  37.3900012  32.4554997  47.9219988  37.4072647  31.5882218  47.9865487
  35.7640012  34.3904997  50.3479988  35.1170012  34.7154997  50.9739988
  35.2470012  33.9504997  49.6739988  35.6054029  34.3755004  50.3425827
  37.7870012  28.6284997  39.4849988  37.2650012  28.9854997  38.7659988
  37.7540012  29.3034997  40.1629988  37.7111634  28.7685413  39.4783145
  36.1360012  25.8684997  38.0359988  36.2320012  26.5354997  37.3549988
  35.9960012  25.0524997  37.5539988  36.1302135  25.8494500  37.8778491
  35.3050012  27.2484997  43.6569988  35.1550012  26.3034997  43.6359988
  34.9520012  27.5294997  44.4999988  35.2366625  27.1570441  43.7682346
  20.3410012  29.3264997  47.6669988  20.5250012  29.2444997  46.7309988
  21.1900012  29.2024997  48.0909988  20.4810139  29.2985003  47.5961455
  36.1620012  29.2184997  53.2949988  36.7450012  28.4844997  53.4869988
  36.7260012  29.9904997  53.3419988  36.3179769  29.2224227  53.3276159
  37.6580012  27.1214997  53.9799988  36.7950012  26.7424997  53.8139988
  38.2630012  26.3824997  53.9059988  37.6215979  26.9698023  53.9472817
  35.3830012  23.2764997  37.1529988  35.9940012  22.9054997  37.7899988
  34.5470012  22.8554997  37.3489988  35.3535032  23.1687554  37.2667035
  35.0160012  24.8314997  42.1189988  35.2960012  23.9244997  42.2429988
  35.7750012  25.2654997  41.7299988  35.1569277  24.7660942  42.0833682
  35.6280012  25.4124997  47.5549988  36.5610012  25.6244997  47.5209988
  35.3930012  25.5144997  48.4769988  35.7238036  25.4552769  47.6749976
  35.6570012  26.1494997  50.3309988  34.8140012  26.4174997  50.6969988
  36.0990012  26.9714997  50.1199988  35.6014158  26.2973291  50.3525491
  19.9380012  24.5974997  53.8079988  20.8580012  24.4754997  54.0439988
  19.4890012  23.8474997  54.1969988  20.0031580  24.4793727  53.8929006
  37.9400012  20.1294997  55.6839988  38.2900012  19.4754997  55.0789988
  38.0870012  20.9664997  55.2449988  38.0078419  20.1531591  55.5417118
  35.6290012  22.0944997  42.1669988  35.8120012  21.6454997  42.9929988
  35.0300012  21.5094997  41.7039988  35.5730202  21.9539975  42.2173275
  21.1590012  22.9094997  46.6989988  21.6050012  22.1174997  47.0009988
  21.6260012  23.6254997  47.1299988  21.2830172  22.8980624  46.7984820
  19.4630012  25.9084997  47.7679988  19.9550012  25.6874997  46.9769988
  19.8260012  26.7494997  48.0489988  19.5793126  25.9918357  47.6977531
  37.4600012  22.2384997  54.0339988  36.5420012  22.5094997  53.9979988
  37.5830012  21.7034997  53.2489988  37.3511066  22.2032892  53.9230487
  37.4960012  22.1614997  38.6949988  37.9080012  21.4404997  38.2199988
  38.1780012  22.8314997  38.7539988  37.6445885  22.1532368  38.6378915
  19.7770012  22.1664997  41.8219988  18.8520012  22.3754997  41.6929988
  20.2310012  22.6504997  41.1329988  19.7117368  22.2605993  41.7111226
  34.5480012  37.1504997  43.7679988  35.2000012  36.8034997  43.1599988
  35.0580012  37.6394997  44.4139988  34.7062637  37.1690597  43.7720236
  19.7410012  20.9044997  50.1669988  19.0760012  20.6584997  50.8099988
  19.2980012  21.5264997  49.5889988  19.5900956  20.9548632  50.1769352
  21.9330012  34.0794997  54.3109988  21.1120012  34.2544997  53.8509988
  21.6800012  34.0064997  55.2319988  21.7866164  34.0935622  54.3724923
  24.8870012  35.0544997  50.5699988  24.4620012  35.8634997  50.2869988
  25.7910012  35.1394997  50.2679988  24.9510271  35.1768469  50.4903776
  29.1980012  36.4534997  53.5289988  29.3830012  36.1194997  54.4069988
  30.0440012  36.7624997  53.2069988  29.3377539  36.4496047  53.6055605
  31.5430012  37.7394997  52.7729988  32.2200012  37.1064997  52.5329988
  31.8650012  38.1404997  53.5799988  31.6791637  37.7071154  52.8492793
  36.4600012  20.3284997  51.8529988  35.6480012  20.6534997  51.4649988
  36.6930012  19.5684997  51.3199988  36.3803423  20.2702436  51.7278253
  22.2890012  38.3104997  50.6169988  21.5680012  38.7504997  50.1659988
  21.9230012  38.0594997  51.4659988  22.1409804  38.3367698  50.6699840
  24.7560012  37.9104997  49.6469988  23.8910012  37.9824997  50.0509988
  24.7010012  38.4574997  48.8629988  24.6302085  37.9942685  49.5963362
  29.4660012  37.7984997  48.8219988  29.0100012  38.3274997  48.1679988
  29.6290012  38.4014997  49.5479988  29.4255585  37.9524468  48.8305062
  31.7940012  36.6764997  49.7669988  30.8890012  36.8414997  49.5019988
  32.2230012  37.5294997  49.7019988  31.7280799  36.8144483  49.7219182
  34.3980012  38.2464997  50.0619988  34.2160012  39.1624997  49.8519988
  34.5750012  37.8364997  49.2159988  34.3970210  38.3164822  49.9187885
  21.7030012  36.9334997  47.5269988  21.6850012  36.5084997  48.3849988
  22.5080012  36.6154997  47.1189988  21.8093875  36.8323812  47.5891655
  23.8450012  35.6434997  46.1819988  23.6260012  34.7274997  46.3519988
  24.6690012  35.7834997  46.6479988  23.9264420  35.5370520  46.2682773
  26.3820012  36.1134997  47.0309988  26.5950012  35.2254997  46.7439988
  26.4460012  36.0794997  47.9849988  26.4198231  35.9873102  47.1207397
  29.8900012  21.7774997  46.1749988  29.2160012  21.1484997  46.4309988
  30.4540012  21.2934997  45.5719988  29.8739230  21.6258744  46.1285340
  35.0330012  19.8854997  46.2879988  35.6370012  20.4324997  45.7859988
  34.1630012  20.2044997  46.0479988  34.9981241  20.0035806  46.1867654
  36.7600012  21.0234997  44.6209988  37.3720012  20.5094997  44.0949988
  37.1420012  21.9014997  44.6449988  36.8954540  21.0717140  44.5521830
  22.2170012  20.4114997  43.9969988  21.4400012  20.1774997  43.4899988
  22.7470012  19.6144997  44.0059988  22.1822330  20.2716988  43.9287742
  21.0530012  20.2094997  39.8009988  21.4920012  20.8204997  39.2089988
  20.4200012  20.7474997  40.2749988  21.0274514  20.3659257  39.7840930
  26.7960012  20.3384997  43.8109988  27.6710012  20.7264997  43.7809988
  26.6600012  20.1234997  44.7329988  26.8973695  20.3625184  43.9316440
  32.3530012  20.3684997  45.4599988  32.4290012  20.4634997  44.5099988
  32.0780012  19.4604997  45.5889988  32.3262321  20.2587867  45.3475079
  33.7060012  20.3944997  41.1519988  33.0040012  21.0094997  40.9429988
  33.2620012  19.5564997  41.2829988  33.5496330  20.3655783  41.1410328
  20.9540012  36.1574997  40.6989988  20.2690012  36.1194997  40.0309988
  20.9580012  37.0704997  40.9869988  20.8608193  36.2757016  40.6465284
  22.9140012  22.1254997  38.2429988  23.4060012  21.4954997  37.7159988
  23.5380012  22.4214997  38.9069988  23.0655446  22.0793199  38.2605980
  27.9400012  22.4184997  40.6999988  28.1180012  21.7724997  41.3829988
  27.8870012  23.2524997  41.1679988  27.9571829  22.4427985  40.8565940
  29.8190012  37.3674997  39.0959988  30.6850012  37.7334997  38.9179988
  29.5720012  36.9274997  38.2819988  29.9042392  37.3581756  38.9616289
  36.5280012  36.9304997  41.7749988  36.3330012  36.1824997  41.2099988
  36.4890012  37.6884997  41.1919988  36.4960380  36.9306099  41.6188384
  22.1750012  20.9254997  53.5149988  21.8090012  20.1604997  53.9579988
  23.0880012  20.9544997  53.8019988  22.2482790  20.8247224  53.6144070
  24.1480012  20.2764997  55.0509988  25.0460012  20.0024997  54.8659988
  23.7610012  19.5334997  55.5149988  24.2186612  20.1385914  55.0883643
  22.7720012  37.0774997  37.7239988  22.5050012  37.3644997  38.5969988
  23.5440012  36.5314997  37.8759988  22.8397488  37.0430294  37.8641050
  32.5690012  19.6084997  55.2329988  32.6460012  19.1824997  56.0869988
  33.4630012  19.6224997  54.8899988  32.7003428  19.5520880  55.3035310
  35.7450012  35.6814997  53.9249988  34.9630012  35.4954997  53.4059988
  35.6730012  36.6104997  54.1429988  35.6281777  35.7816492  53.8834048
  50.1510012  29.5674997  43.9559988  50.2400012  30.5114997  43.8239988
  49.5130012  29.2924997  43.2979988  50.0769081  29.6594830  43.8489614
  49.0840012  28.8224997  47.3749988  49.0460012  28.1764997  48.0799988
  48.7620012  28.3564997  46.6039988  49.0352333  28.6709408  47.3672978
  41.4530012  28.4374997  48.9679988  41.4940012  27.8114997  49.6909988
  42.1560012  29.0614997  49.1499988  41.5536363  28.4361196  49.0916044
  52.7900012  31.7614997  45.6759988  52.3500012  31.0414997  46.1269988
  52.7770012  32.4824997  46.3059988  52.7280226  31.7603731  45.8228494
  42.3760012  32.8874997  47.5029988  42.0070012  32.0854997  47.1329988
  43.3170012  32.7184997  47.5489988  42.4527289  32.7550153  47.4586316
  38.9860012  26.5474997  42.8959988  38.5390012  27.3934997  42.8769988
  38.4250012  25.9674997  42.3799988  38.8489900  26.5849916  42.8236801
  39.6970012  28.7094997  45.0219988  39.9100012  27.9394997  45.5489988
  40.4350012  28.7984997  44.4179988  39.8258496  28.6161394  45.0125300
  49.9020012  36.8664997  45.8889988  50.5220012  36.1894997  45.6149988
  49.6940012  36.6484997  46.7969988  49.9586904  36.7443870  45.9743365
  47.4740012  31.2554997  47.7809988  47.7780012  30.5694997  47.1859988
  48.1950012  31.3734997  48.3989988  47.6130671  31.1776305  47.7831816
  56.1370012  22.8564997  48.6419988  56.1860012  23.4664997  49.3779988
  56.5620012  23.3174997  47.9189988  56.2011824  23.0023741  48.6450205
  50.6150012  25.6494997  48.1089988  50.7570012  24.7034997  48.1289988
  50.5080012  25.8564997  47.1799988  50.6199864  25.5479534  47.9862339
  43.7690012  23.7504997  45.3809988  43.8130012  24.6104997  44.9629988
  43.3120012  23.1984997  44.7469988  43.7132185  23.7935799  45.2380299
  51.4920012  23.8814997  43.7819988  52.1380012  23.5524997  44.4069988
  52.0020012  24.3994997  43.1589988  51.6494264  23.9064611  43.7833862
  40.3900012  26.1474997  46.1429988  41.0430012  25.5974997  46.5749988
  40.4140012  25.8734997  45.2259988  40.4826683  26.0351466  46.0782123
  45.5460012  27.6974997  45.3579988  46.1620012  27.1714997  45.8679988
  44.9600012  27.0574997  44.9549988  45.5510810  27.5389208  45.3733173
  56.5280012  24.3344997  50.8779988  55.8400012  24.9924997  50.7819988
  56.5440012  24.1374997  51.8139988  56.4358525  24.3980462  50.9914808
  42.5800012  22.6684997  49.4549988  42.3610012  23.1984997  48.6889988
  41.9120012  22.8954997  50.1019988  42.4597600  22.7716906  49.4376379
  49.9490012  32.1684997  42.9989988  49.6530012  31.8464997  42.1479988
  49.6240012  33.0684997  43.0399988  49.8646371  32.2460215  42.8881801
  45.1490012  30.3444997  49.7419988  44.4090012  30.9424997  49.8459988
  45.8630012  30.8984997  49.4269988  45.1442237  30.5012831  49.7136465
  53.2560012  23.1724997  45.7619988  53.0400012  22.4064997  46.2949988
  53.9110012  23.6444997  46.2749988  53.3150632  23.1315889  45.9042861
  42.1730012  24.5604997  47.4069988  42.7870012  25.1934997  47.7809988
  42.6850012  24.0884997  46.7509988  42.3262296  24.5832370  47.3694252
  43.5560012  32.3084997  50.5299988  43.5510012  33.1884997  50.1519988
  42.7030012  32.2254997  50.9549988  43.4399464  32.4176117  50.5357907
  39.6770012  31.9794997  41.3119988  39.4050012  32.2084997  40.4229988
  39.7230012  32.8174997  41.7719988  39.6460094  32.1241213  41.2525697
  53.3020012  33.6014997  48.0239988  52.3610012  33.6594997  48.1859988
  53.5790012  34.5074997  47.8869988  53.2104679  33.7319443  48.0276815
  53.6030012  21.8874997  49.4419988  52.8670012  22.4984997  49.4039988
  54.2860012  22.3024997  48.9149988  53.5946541  22.0271374  49.3655832
  46.6060012  19.9744997  46.9079988  46.4890012  19.0254997  46.8529988
  45.7510012  20.3064997  47.1809988  46.4743733  19.8895409  46.9373897
  51.5540012  35.3824997  44.6499988  51.9800012  34.6754997  44.1649988
  51.8710012  36.1834997  44.2329988  51.6551019  35.3940994  44.5273130
  52.7140012  33.2834997  43.1579988  52.4560012  32.5934997  42.5469988
  52.7850012  32.8404997  44.0039988  52.6882856  33.1292124  43.1886885
  54.4000012  31.8494997  51.6359988  54.5400012  31.2584997  50.8959988
  54.5670012  32.7224997  51.2789988  54.4416778  31.8866426  51.4866965
  48.8730012  28.8114997  41.4079988  48.1610012  29.3464997  41.0559988
  49.5640012  28.8674997  40.7479988  48.8690132  28.8922543  41.2706289
  48.9260012  27.2694997  38.4469988  49.6270012  27.2914997  39.0979988
  49.2290012  26.6414997  37.7909988  49.0627830  27.1876566  38.4473711
  56.2420012  28.1894997  49.7019988  55.5890012  28.8844997  49.7909988
  56.7070012  28.3994997  48.8919988  56.2155390  28.3129425  49.6046883
  52.2780012  29.0214997  42.3599988  51.5460012  29.2494997  42.9329988
  52.7260012  28.3074997  42.8149988  52.2383095  28.9562571  42.4999119
  52.1760012  27.1954997  51.4269988  52.2560012  27.9584997  51.9989988
  51.5740012  27.4744997  50.7369988  52.1055756  27.3377134  51.4120589
  43.9240012  29.6514997  44.2419988  43.5930012  29.2814997  43.4239988
  44.5120012  28.9814997  44.5889988  43.9581873  29.5101156  44.1768102
  45.2900012  33.0794997  46.9239988  45.1960012  32.5014997  46.1669988
  46.0200012  32.7084997  47.4199988  45.3757981  32.9502390  46.8874165
  44.2900012  28.4204997  47.8759988  44.8560012  28.5414997  47.1129988
  44.6090012  29.0574997  48.5149988  44.4105786  28.5231884  47.8580040
  50.5990012  33.9234997  48.6099988  50.3590012  34.5854997  49.2579988
  50.4010012  33.0894997  49.0349988  50.5393808  33.9013134  48.7561524
  45.1700012  32.8194997  52.5929988  44.8590012  33.6014997  53.0479988
  44.5200012  32.6664997  51.9069988  45.0395558  32.9059105  52.5625871
  51.1490012  28.1834997  40.0449988  51.7290012  28.3334997  40.7919988
  51.5630012  28.6544997  39.3219988  51.2842830  28.2676841  40.0494134
  42.0900012  29.0174997  51.8219988  42.1610012  29.6684997  52.5199988
  41.2000012  29.1204997  51.4869988  41.9793117  29.1205936  51.8722700
  48.8760012  34.9204997  43.4799988  49.3500012  35.2154997  44.2579988
  48.3130012  35.6584997  43.2469988  48.8647653  35.0606932  43.5550136
  43.4100012  34.8914997  53.3559988  43.4170012  34.7554997  52.4089988
  42.4940012  34.7734997  53.6079988  43.2871714  34.8569430  53.2604666
  54.8480012  19.9334997  39.8579988  53.9480012  20.0724997  40.1529988
  55.1000012  20.7644997  39.4559988  54.7588702  20.0649074  39.8440205
  42.9140012  28.7214997  41.8319988  42.6220012  29.4894997  41.3409988
  42.2400012  28.0614997  41.6689988  42.7829081  28.7374406  41.7427340
  56.0370012  34.2994997  38.2339988  56.1110012  35.2384997  38.4049988
  56.9430012  33.9944997  38.1779988  56.1695100  34.3866722  38.2498119
  39.0070012  31.0844997  50.6469988  38.5060012  31.0564997  49.8319988
  39.0120012  30.1784997  50.9559988  38.9391526  30.9582278  50.5772872
  38.7570012  33.8644997  47.5309988  39.7030012  33.7204997  47.5119988
  38.6450012  34.6484997  48.0679988  38.8712727  33.9508046  47.6010072
  56.9550012  34.5304997  53.2129988  56.9060012  33.5754997  53.1759988
  56.1280012  34.7984997  53.6139988  56.8364940  34.4358998  53.2621375
  47.9340012  34.1044997  52.0889988  48.0210012  34.9304997  52.5639988
  47.0700012  33.7744997  52.3379988  47.8291964  34.1729878  52.1876549
  48.3480012  37.8764997  41.8949988  48.2730012  37.7554997  40.9489988
  48.3810012  38.8264997  42.0139988  48.3421848  37.9882500  41.7814834
  42.0010012  36.6654997  43.6759988  42.1540012  36.3174997  44.5549988
  41.1510012  36.3094997  43.4209988  41.9068962  36.5696650  43.7618340
  51.4500012  37.0304997  38.8969988  51.8250012  36.2864997  38.4269988
  51.4540012  36.7604997  39.8159988  51.5018915  36.8921486  38.9567824
  51.1190012  36.9564997  41.6469988  50.1830012  37.0564997  41.8249988
  51.3990012  36.2474997  42.2249988  51.0288255  36.8742711  41.7495391
  54.1070012  26.0234997  53.6929988  53.7000012  26.5044997  52.9719988
  54.1480012  25.1184997  53.3849988  54.0568437  25.9669374  53.5526683
  41.2560012  32.4074997  51.6899988  41.4720012  32.0464997  52.5489988
  40.4010012  32.0334997  51.4799988  41.1699292  32.3074111  51.7793386
  43.8750012  20.8774997  47.6849988  43.0130012  20.7904997  47.2779988
  43.8520012  21.7334997  48.1129988  43.7540330  20.9812765  47.6871863
  48.5380012  20.5994997  51.0599988  48.9580012  20.1844997  51.8129988
  47.6050012  20.4214997  51.1769988  48.4693644  20.5185900  51.1789539
  51.8640012  24.3554997  51.9129988  51.3500012  24.2294997  52.7109988
  51.7090012  25.2674997  51.6689988  51.7726852  24.4616132  51.9892158
  52.6270012  29.2164997  37.6749988  52.6690012  28.9934997  36.7449988
  53.4760012  29.6154997  37.8649988  52.7475396  29.2399155  37.5733627
  48.1990012  23.0924997  38.3449988  47.9460012  23.1114997  39.2679988
  47.9430012  22.2204997  38.0439988  48.1297790  22.9772437  38.4306263
  43.9660012  25.8434997  48.7799988  43.3240012  25.8024997  49.4889988
  44.0030012  26.7694997  48.5429988  43.8831324  25.9631559  48.8449824
  43.9630012  26.0644997  43.6919988  43.0700012  25.7234997  43.6339988
  44.4130012  25.6874997  42.9369988  43.9017305  25.9668484  43.5819177
  49.4980012  26.4804997  42.5089988  49.0890012  27.2954997  42.2179988
  50.2190012  26.3404997  41.8949988  49.5394537  26.5732018  42.3861342
  48.6000012  26.6554997  53.9969988  48.0380012  25.9514997  54.3179988
  49.4270012  26.5354997  54.4649988  48.6347095  26.5427883  54.1042330
  50.5030012  25.9264997  45.3229988  50.3080012  26.5314997  44.6079988
  50.6840012  25.0924997  44.8889988  50.5007614  25.8966300  45.1664405
  41.7160012  26.1634997  50.6469988  41.6780012  26.5634997  51.5159988
  41.2250012  25.3464997  50.7379988  41.6444684  26.1078069  50.7781059
  45.0820012  23.5374997  37.4459988  44.6510012  23.0924997  38.1759988
  44.3640012  23.9094997  36.9339988  44.9259438  23.5268940  37.4766799
  38.3240012  23.2794997  44.4979988  38.9550012  23.2504997  45.2169988
  38.7730012  22.8544997  43.7679988  38.4710774  23.2180492  44.4976553
  39.5980012  24.0254997  39.9219988  40.0720012  24.6164997  39.3369988
  38.8810012  24.5564997  40.2689988  39.5659341  24.1780867  39.8888836
  49.7670012  27.5644997  49.9949988  50.0900012  26.9334997  49.3519988
  49.3270012  27.0294997  50.6549988  49.7516895  27.4058441  49.9962850
  46.5440012  23.4914997  44.7789988  45.6330012  23.5484997  45.0669988
  47.0500012  23.4314997  45.5889988  46.4875413  23.4911985  44.9280622
  41.3730012  25.1204997  43.6049988  40.4830012  25.2204997  43.2649988
  41.6690012  24.2784997  43.2589988  41.2912823  25.0203545  43.5117213
  45.0260012  25.1204997  41.2619988  45.9570012  25.2494997  41.4399988
  44.8110012  25.7904997  40.6119988  45.1244247  25.2286565  41.1985747
  50.9490012  22.7264997  48.0429988  50.2730012  22.8574997  48.7069988
  50.4640012  22.5714997  47.2329988  50.7907145  22.7234905  48.0244517
  43.7000012  26.3154997  38.8289988  43.1570012  25.9354997  38.1369988
  44.5330012  26.5094997  38.3999988  43.7384399  26.2898124  38.6764526
  54.2370012  38.3984997  54.3199988  54.4370012  38.8224997  53.4849988
  54.8920012  38.7414997  54.9269988  54.3530051  38.5029648  54.2877836
  41.8350012  30.8724997  53.9279988  42.5670012  31.1264997  54.4889988
  41.0550012  31.0764997  54.4429988  41.8298232  30.9349177  54.0745760
  47.8640012  26.2794997  46.6659988  48.4290012  25.7324997  46.1189988
  47.7170012  25.7574997  47.4539988  47.9212918  26.1342024  46.6978454
  42.8660012  22.4154997  43.0839988  42.5490012  21.5134997  43.0489988
  43.6480012  22.4174997  42.5309988  42.9282284  22.2921628  43.0044783
  46.4910012  24.6674997  49.0799988  45.6550012  25.1214997  49.1899988
  47.0150012  24.9434997  49.8319988  46.4474414  24.7669376  49.1967136
  47.0350012  30.8804997  40.7639988  46.2900012  30.3734997  40.4419988
  46.9010012  30.9294997  41.7109988  46.9148776  30.8176940  40.8478647
  54.1850012  30.0134997  49.5509988  54.8270012  30.4704997  49.0069988
  53.3550012  30.1264997  49.0879988  54.1605963  30.0912704  49.4140177
  50.9330012  23.6944997  38.9639988  49.9940012  23.8064997  38.8119988
  51.2300012  24.5514997  39.2699988  50.8447666  23.8256443  38.9845768
  48.5540012  31.0644997  52.0009988  48.2090012  30.6834997  52.8079988
  48.3540012  31.9984997  52.0729988  48.4798061  31.1385228  52.1210961
  51.6510012  25.5614997  40.6239988  52.5430012  25.4244997  40.9429988
  51.7080012  26.3524997  40.0879988  51.7806285  25.6496660  40.5951691
  42.1600012  30.1754997  46.5339988  42.9050012  30.1734997  45.9329988
  42.2380012  29.3524997  47.0159988  42.2725518  30.0639315  46.5168929
  49.1610012  32.3394997  39.7899988  48.8650012  33.1654997  40.1709988
  48.4580012  31.7194997  39.9859988  49.0254914  32.3688199  39.8686443
  39.1680012  28.6364997  51.8489988  39.3910012  28.2184997  52.6809988
  38.5660012  28.0234997  51.4259988  39.1171759  28.4964668  51.9057022
  46.1840012  28.1534997  54.0619988  45.8880012  27.9874997  53.1669988
  47.1160012  27.9334997  54.0509988  46.2694166  28.1010640  53.9380536
  50.8050012  33.5264997  51.9519988  49.9040012  33.7094997  51.6839988
  50.8390012  33.7854997  52.8729988  50.6863041  33.5865512  52.0398197
  56.5360012  25.7714997  40.3189988  55.9820012  25.3754997  39.6469988
  56.6360012  26.6814997  40.0409988  56.4737059  25.8403586  40.1894401
  56.4990012  31.5714997  53.1559988  55.6480012  31.8094997  52.7889988
  57.0900012  31.5544997  52.4029988  56.4622487  31.6018258  53.0038893
  54.8310012  34.5574997  40.7839988  54.4580012  33.7314997  41.0929988
  55.1090012  34.3744997  39.8869988  54.8175630  34.4197303  40.7049626
  51.9920012  29.3654997  47.8049988  51.0630012  29.1334997  47.7779988
  52.4430012  28.5884997  47.4749988  51.9259216  29.2287238  47.7566917
  44.5350012  33.6934997  43.9379988  45.0620012  34.4664997  43.7379988
  43.6550012  33.9184997  43.6369988  44.4881773  33.8298005  43.8699010
  40.2900012  28.5554997  38.5249988  40.9060012  29.1824997  38.9049988
  39.4280012  28.8714997  38.7969988  40.2577698  28.6839430  38.6137183
  45.9620012  31.3564997  43.5149988  45.7210012  32.2814997  43.5559988
  45.2210012  30.8974997  43.9109988  45.8288409  31.4211421  43.5741377
  46.4770012  35.5054997  49.8299988  46.8390012  36.3604997  49.5959988
  47.0080012  35.2134997  50.5699988  46.5984473  35.5831060  49.8980855
  44.6450012  36.3784997  43.0599988  43.6950012  36.4834997  43.1109988
  44.9970012  37.1984997  43.4049988  44.5624203  36.5038314  43.1136650
  50.0210012  31.6044997  49.5299988  49.5950012  31.3774997  50.3569988
  50.6010012  30.8664997  49.3479988  50.0411868  31.4735299  49.6185830
  52.2240012  32.5334997  38.6039988  52.5770012  32.1534997  39.4089988
  51.2750012  32.4404997  38.6909988  52.1440441  32.4689596  38.7258559
  52.6790012  36.1564997  51.9999988  52.0780012  35.6014997  51.5039988
  52.9610012  36.8234997  51.3739988  52.6348519  36.1706841  51.8474952
  56.7270012  37.0134997  38.8049988  57.4710012  37.5994997  38.6649988
  56.0330012  37.5814997  39.1389988  56.7350292  37.1705582  38.8309961
  40.8020012  23.3894997  51.4069988  39.9090012  23.7284997  51.3389988
  40.7030012  22.5344997  51.8249988  40.6664164  23.3202588  51.4542235
  53.0900012  31.2064997  40.8309988  52.8120012  30.4784997  41.3869988
  54.0170012  31.3254997  41.0359988  53.1773124  31.1228802  40.9348845
  40.4530012  35.1944997  49.8419988  40.6700012  34.2624997  49.8109988
  40.6990012  35.4684997  50.7249988  40.5159549  35.1040636  49.9571763
  46.3150012  33.6454997  37.0509988  46.5540012  32.8974997  36.5039988
  46.0460012  33.2574997  37.8839988  46.3113675  33.4906638  37.0886865
  45.2520012  33.2154997  39.5079988  45.3980012  32.6954997  40.2979988
  45.2490012  34.1224997  39.8139988  45.2715989  33.2668853  39.6576088
  41.7050012  30.4684997  40.0179988  41.0190012  30.8204997  40.5849988
  42.2270012  31.2314997  39.7709988  41.6816852  30.6198578  40.0622118
  49.5360012  23.1304997  50.2969988  50.2350012  23.2044997  50.9469988
  49.1550012  22.2664997  50.4509988  49.5801767  23.0237624  50.4068322
  50.3210012  22.7824997  41.3939988  50.5410012  23.2544997  40.5909988
  50.8790012  23.1774997  42.0639988  50.4264968  22.9004285  41.3747331
  47.9890012  34.9134997  40.2569988  47.1730012  35.4104997  40.3089988
  48.5190012  35.3884997  39.6169988  47.9489161  35.0457722  40.1775956
  47.5210012  24.5104997  42.2289988  48.3330012  25.0154997  42.2749988
  47.2760012  24.3654997  43.1429988  47.5990520  24.5600375  42.3588517
  48.0560012  25.4964997  51.4139988  48.1750012  26.0704997  52.1709988
  48.7120012  24.8084997  51.5279988  48.1609757  25.4821079  51.5330825
  48.4040012  21.5914997  43.1669988  48.0580012  22.2094997  43.8119988
  49.0630012  22.0924997  42.6859988  48.4457826  21.7435802  43.1900971
  45.3280012  35.9574997  40.2389988  45.4880012  36.7564997  39.7379988
  45.1300012  36.2634997  41.1239988  45.3231649  36.1084469  40.2899815
  44.0620012  22.6544997  39.8539988  43.9790012  23.5434997  40.2009988
  44.9520012  22.3894997  40.0859988  44.1709469  22.7401430  39.9327626
  54.2610012  23.4034997  52.2489988  53.3440012  23.6664997  52.1609988
  54.5960012  23.4004997  51.3519988  54.1809900  23.4390224  52.1157919
  52.8630012  27.1544997  46.3439988  52.0650012  26.7394997  46.0159988
  53.3080012  26.4634997  46.8349988  52.8139885  27.0043543  46.3654889
  42.3210012  33.0824997  38.9149988  42.9130012  33.7814997  39.1909988
  42.7800012  32.6494997  38.1949988  42.4641142  33.1197049  38.8554830
  40.6370012  25.7464997  38.0309988  40.5920012  26.6854997  38.2089988
  39.7490012  25.5104997  37.7609988  40.5108574  25.8431892  38.0188912
  53.9490012  36.4104997  47.9669988  53.7940012  37.0884997  47.3099988
  54.8820012  36.4824997  48.1699988  54.0538500  36.5130170  47.9045119
  41.4450012  20.5284997  46.7039988  41.2160012  20.5874997  45.7759988
  41.0020012  19.7364997  47.0099988  41.3538530  20.4295753  46.6184786
  40.3750012  34.4684997  42.8639988  39.5430012  34.9414997  42.8919988
  40.9210012  34.9784997  42.2659988  40.3349739  34.6021871  42.7869716
  39.6630012  37.0814997  54.1939988  40.2040012  36.8644997  54.9539988
  39.1820012  36.2754997  54.0049988  39.6719345  36.9429514  54.2723076
  44.2610012  36.0004997  55.8149988  45.0280012  35.5414997  56.1559988
  44.2390012  35.7744997  54.8849988  44.3631434  35.9070409  55.7360043
  48.3530012  35.5084997  37.1899988  47.7090012  34.8774997  37.5109988
  49.1150012  34.9774997  36.9579988  48.3678077  35.3502920  37.2026011
  50.8380012  34.3804997  54.5439988  50.4870012  33.5244997  54.7869988
  51.5640012  34.5234997  55.1509988  50.8880769  34.2825636  54.6593619
  52.9570012  35.3254997  37.4239988  53.2400012  34.5314997  37.8759988
  53.6970012  35.5584997  36.8629988  53.0957486  35.2482803  37.4100698
  39.5700012  30.8914997  55.1489988  39.7140012  29.9894997  54.8619988
  38.7980012  31.1774997  54.6609988  39.4853322  30.8068261  55.0437881
  43.9120012  31.2354997  37.2809988  43.9760012  30.4414997  37.8119988
  44.5650012  31.1164997  36.5909988  44.0090241  31.1107148  37.2604317
  46.2260012  30.8614997  54.5809988  45.8970012  31.1324997  53.7239988
  46.3780012  29.9204997  54.4939988  46.2014809  30.7713862  54.4518244
  49.2640012  32.2824997  37.0169988  48.9950012  32.4624997  37.9179988
  49.0580012  31.3564997  36.8859988  49.1993825  32.1820152  37.1225214
  51.9600012  30.7774997  51.9649988  52.7060012  31.3654997  51.8449988
  51.2030012  31.3594997  52.0279988  51.9597554  30.9367011  51.9570907
  40.4030012  28.0914997  54.5689988  40.8110012  27.2344997  54.4479988
  40.1430012  28.1064997  55.4899988  40.4237568  27.9760807  54.6769588
  45.0610012  29.2074997  39.5869988  44.6010012  28.7234997  40.2729988
  45.3160012  28.5394997  38.9509988  45.0324902  29.0508731  39.5949334
  44.3500012  27.1004997  51.9429988  43.7320012  27.7754997  52.2229988
  44.6940012  27.4214997  51.1099988  44.3119615  27.2362721  51.8686581
  46.1320012  27.4504997  37.8489988  45.9520012  27.2964997  36.9219988
  47.0820012  27.5584997  37.8939988  46.2357776  27.4440175  37.7281843
  49.3700012  29.5724997  55.2199988  50.3230012  29.6554997  55.1929988
  49.2090012  28.8604997  55.8399988  49.4786426  29.4876746  55.3000579
  55.5220012  29.8054997  37.2949988  55.2480012  29.3804997  36.4819988
  55.5610012  30.7364997  37.0779988  55.4897699  29.8732484  37.1543610
  44.6890012  24.4554997  53.0249988  44.8390012  23.7264997  52.4229988
  44.6920012  25.2324997  52.4659988  44.7099302  24.4607851  52.8670692
  45.1020012  22.8254997  50.5179988  45.6380012  23.2764997  49.8659988
  44.2500012  22.7174997  50.0949988  45.0602178  22.8726390  50.3715756
  46.6840012  28.2644997  50.7569988  47.4340012  28.1084997  50.1839988
  46.3450012  29.1164997  50.4819988  46.7408921  28.3582968  50.6413561
  51.0990012  26.0794997  55.7859988  51.2920012  25.1484997  55.6739988
  51.9570012  26.5044997  55.7759988  51.2413020  26.0096389  55.7693361
  52.4160012  28.8684997  53.8629988  52.1350012  29.5774997  53.2859988
  53.3590012  28.7954997  53.7119988  52.5049027  28.9557646  53.7635551
  43.1680012  25.6534997  54.9369988  42.4010012  25.1214997  54.7269988
  43.8470012  25.3434997  54.3369988  43.1547022  25.5387506  54.8271648
  45.9080012  20.2814997  50.9489988  45.8090012  21.2284997  50.8439988
  45.1650012  19.9094997  50.4739988  45.7940563  20.3605902  50.8704560
  47.1720012  24.6034997  54.5129988  46.9360012  24.3834997  55.4149988
  46.3880012  24.3964997  54.0029988  47.0338628  24.5454760  54.5673932
  49.8870012  23.7304997  53.5889988  48.9400012  23.7624997  53.7209988
  50.2000012  23.1054997  54.2419988  49.7995475  23.6503207  53.6954455
  51.5210012  22.3644997  55.5939988  51.4250012  21.4124997  55.5879988
  51.2000012  22.6334997  56.4539988  51.4644070  22.2704035  55.7095441
  41.3480012  23.5744997  54.6409988  41.5600012  22.8674997  54.0309988
  41.2370012  23.1364997  55.4849988  41.3619721  23.4187084  54.6716843
  46.1290012  19.5754997  53.6209988  46.8410012  18.9354997  53.6069988
  46.0280012  19.8424997  52.7069988  46.2127939  19.5239938  53.4955650
  46.4830012  21.2584997  55.6739988  46.3510012  20.7824997  54.8539988
  45.8840012  22.0024997  55.6189988  46.3839071  21.2939618  55.5542886
  46.0290012  38.1414997  38.8509988  46.9620012  38.2994997  38.9939988
  45.7650012  38.8164997  38.2259988  46.1209510  38.2543611  38.7860741
  39.5980012  32.7774997  38.3329988  40.5120012  32.8564997  38.6069988
  39.6050012  32.0904997  37.6669988  39.7241131  32.6953961  38.2804393
  38.2470012  38.1704997  43.4109988  37.6000012  37.7084997  42.8779988
  38.6010012  37.4984997  43.9929988  38.2063849  38.0164723  43.4167959
  39.1170012  36.2514997  45.2149988  38.7820012  35.3714997  45.3869988
  39.3390012  36.5964997  46.0799988  39.1011783  36.1777500  45.3554208
  56.6650012  37.0604997  48.1959988  56.6440012  37.2454997  49.1349988
  57.3560012  37.6294997  47.8549988  56.7554618  37.1626606  48.2783864
  56.2290012  36.6284997  51.1179988  55.7410012  35.8924997  50.7469988
  56.7780012  36.2344997  51.7959988  56.2364872  36.4746249  51.1589160
  54.6790012  32.4174997  55.7559988  53.8130012  32.3124997  56.1499988
  55.0560012  33.1764997  56.2019988  54.6113308  32.5056900  55.8702393
  55.9800012  30.6744997  41.2699988  56.8300012  31.0954997  41.3969988
  55.9860012  29.9344997  41.8769988  56.0971372  30.6320803  41.3694344
  56.3750012  28.7274997  43.0939988  55.6480012  28.2484997  43.4909988
  56.9560012  28.9334997  43.8259988  56.3539375  28.6897090  43.2474129
  56.1340012  31.5124997  48.0409988  56.9670012  31.1344997  47.7609988
  56.2460012  32.4554997  47.9219988  56.2632647  31.5882218  47.9865487
  54.6200012  34.3904997  50.3479988  53.9730012  34.7154997  50.9739988
  54.1030012  33.9504997  49.6739988  54.4614029  34.3755004  50.3425827
  56.6430012  28.6284997  39.4849988  56.1210012  28.9854997  38.7659988
  56.6100012  29.3034997  40.1629988  56.5671634  28.7685413  39.4783145
  54.9920012  25.8684997  38.0359988  55.0880012  26.5354997  37.3549988
  54.8520012  25.0524997  37.5539988  54.9862135  25.8494500  37.8778491
  54.1610012  27.2484997  43.6569988  54.0110012  26.3034997  43.6359988
  53.8080012  27.5294997  44.4999988  54.0926625  27.1570441  43.7682346
  39.1970012  29.3264997  47.6669988  39.3810012  29.2444997  46.7309988
  40.0460012  29.2024997  48.0909988  39.3370139  29.2985003  47.5961455
  55.0180012  29.2184997  53.2949988  55.6010012  28.4844997  53.4869988
  55.5820012  29.9904997  53.3419988  55.1739769  29.2224227  53.3276159
  56.5140012  27.1214997  53.9799988  55.6510012  26.7424997  53.8139988
  57.1190012  26.3824997  53.9059988  56.4775979  26.9698023  53.9472817
  54.2390012  23.2764997  37.1529988  54.8500012  22.9054997  37.7899988
  53.4030012  22.8554997  37.3489988  54.2095032  23.1687554  37.2667035
  53.8720012  24.8314997  42.1189988  54.1520012  23.9244997  42.2429988
  54.6310012  25.2654997  41.7299988  54.0129277  24.7660942  42.0833682
  54.4840012  25.4124997  47.5549988  55.4170012  25.6244997  47.5209988
  54.2490012  25.5144997  48.4769988  54.5798036  25.4552769  47.6749976
  54.5130012  26.1494997  50.3309988  53.6700012  26.4174997  50.6969988
  54.9550012  26.9714997  50.1199988  54.4574158  26.2973291  50.3525491
  38.7940012  24.5974997  53.8079988  39.7140012  24.4754997  54.0439988
  38.3450012  23.8474997  54.1969988  38.8591580  24.4793727  53.8929006
  56.7960012  20.1294997  55.6839988  57.1460012  19.4754997  55.0789988
  56.9430012  20.9664997  55.2449988  56.8638419  20.1531591  55.5417118
  54.4850012  22.0944997  42.1669988  54.6680012  21.6454997  42.9929988
  53.8860012  21.5094997  41.7039988  54.4290202  21.9539975  42.2173275
  40.0150012  22.9094997  46.6989988  40.4610012  22.1174997  47.0009988
  40.4820012  23.6254997  47.1299988  40.1390172  22.8980624  46.7984820
  38.3190012  25.9084997  47.7679988  38.8110012  25.6874997  46.9769988
  38.6820012  26.7494997  48.0489988  38.4353126  25.9918357  47.6977531
  56.3160012  22.2384997  54.0339988  55.3980012  22.5094997  53.9979988
  56.4390012  21.7034997  53.2489988  56.2071066  22.2032892  53.9230487
  56.3520012  22.1614997  38.6949988  56.7640012  21.4404997  38.2199988
  57.0340012  22.8314997  38.7539988  56.5005885  22.1532368  38.6378915
  38.6330012  22.1664997  41.8219988  37.7080012  22.3754997  41.6929988
  39.0870012  22.6504997  41.1329988  38.5677368  22.2605993  41.7111226
  53.4040012  37.1504997  43.7679988  54.0560012  36.8034997  43.1599988
  53.9140012  37.6394997  44.4139988  53.5622637  37.1690597  43.7720236
  38.5970012  20.9044997  50.1669988  37.9320012  20.6584997  50.8099988
  38.1540012  21.5264997  49.5889988  38.4460956  20.9548632  50.1769352
  40.7890012  34.0794997  54.3109988  39.9680012  34.2544997  53.8509988
  40.5360012  34.0064997  55.2319988  40.6426164  34.0935622  54.3724923
  43.7430012  35.0544997  50.5699988  43.3180012  35.8634997  50.2869988
  44.6470012  35.1394997  50.2679988  43.8070271  35.1768469  50.4903776
  48.0540012  36.4534997  53.5289988  48.2390012  36.1194997  54.4069988
  48.9000012  36.7624997  53.2069988  48.1937539  36.4496047  53.6055605
  50.3990012  37.7394997  52.7729988  51.0760012  37.1064997  52.5329988
  50.7210012  38.1404997  53.5799988  50.5351637  37.7071154  52.8492793
  55.3160012  20.3284997  51.8529988  54.5040012  20.6534997  51.4649988
  55.5490012  19.5684997  51.3199988  55.2363423  20.2702436  51.7278253
  41.1450012  38.3104997  50.6169988  40.4240012  38.7504997  50.1659988
  40.7790012  38.0594997  51.4659988  40.9969804  38.3367698  50.6699840
  43.6120012  37.9104997  49.6469988  42.7470012  37.9824997  50.0509988
  43.5570012  38.4574997  48.8629988  43.4862085  37.9942685  49.5963362
  48.3220012  37.7984997  48.8219988  47.8660012  38.3274997  48.1679988
  48.4850012  38.4014997  49.5479988  48.2815585  37.9524468  48.8305062
  50.6500012  36.6764997  49.7669988  49.7450012  36.8414997  49.5019988
  51.0790012  37.5294997  49.7019988  50.5840799  36.8144483  49.7219182
  53.2540012  38.2464997  50.0619988  53.0720012  39.1624997  49.8519988
  53.4310012  37.8364997  49.2159988  53.2530210  38.3164822  49.9187885
  40.5590012  36.9334997  47.5269988  40.5410012  36.5084997  48.3849988
  41.3640012  36.6154997  47.1189988  40.6653875  36.8323812  47.5891655
  42.7010012  35.6434997  46.1819988  42.4820012  34.7274997  46.3519988
  43.5250012  35.7834997  46.6479988  42.7824420  35.5370520  46.2682774
  45.2380012  36.1134997  47.0309988  45.4510012  35.2254997  46.7439988
  45.3020012  36.0794997  47.9849988  45.2758232  35.9873102  47.1207397
  48.7460012  21.7774997  46.1749988  48.0720012  21.1484997  46.4309988
  49.3100012  21.2934997  45.5719988  48.7299230  21.6258744  46.1285340
  53.8890012  19.8854997  46.2879988  54.4930012  20.4324997  45.7859988
  53.0190012  20.2044997  46.0479988  53.8541241  20.0035806  46.1867654
  55.6160012  21.0234997  44.6209988  56.2280012  20.5094997  44.0949988
  55.9980012  21.9014997  44.6449988  55.7514540  21.0717140  44.5521830
  41.0730012  20.4114997  43.9969988  40.2960012  20.1774997  43.4899988
  41.6030012  19.6144997  44.0059988  41.0382330  20.2716988  43.9287742
  39.9090012  20.2094997  39.8009988  40.3480012  20.8204997  39.2089988
  39.2760012  20.7474997  40.2749988  39.8834514  20.3659257  39.7840930
  45.6520012  20.3384997  43.8109988  46.5270012  20.7264997  43.7809988
  45.5160012  20.1234997  44.7329988  45.7533695  20.3625184  43.9316440
  51.2090012  20.3684997  45.4599988  51.2850012  20.4634997  44.5099988
  50.9340012  19.4604997  45.5889988  51.1822321  20.2587867  45.3475079
  52.5620012  20.3944997  41.1519988  51.8600012  21.0094997  40.9429988
  52.1180012  19.5564997  41.2829988  52.4056330  20.3655783  41.1410328
  39.8100012  36.1574997  40.6989988  39.1250012  36.1194997  40.0309988
  39.8140012  37.0704997  40.9869988  39.7168193  36.2757016  40.6465284
  41.7700012  22.1254997  38.2429988  42.2620012  21.4954997  37.7159988
  42.3940012  22.4214997  38.9069988  41.9215446  22.0793199  38.2605980
  46.7960012  22.4184997  40.6999988  46.9740012  21.7724997  41.3829988
  46.7430012  23.2524997  41.1679988  46.8131829  22.4427985  40.8565940
  48.6750012  37.3674997  39.0959988  49.5410012  37.7334997  38.9179988
  48.4280012  36.9274997  38.2819988  48.7602392  37.3581756  38.9616289
  55.3840012  36.9304997  41.7749988  55.1890012  36.1824997  41.2099988
  55.3450012  37.6884997  41.1919988  55.3520380  36.9306099  41.6188384
  41.0310012  20.9254997  53.5149988  40.6650012  20.1604997  53.9579988
  41.9440012  20.9544997  53.8019988  41.1042790  20.8247224  53.6144070
  43.0040012  20.2764997  55.0509988  43.9020012  20.0024997  54.8659988
  42.6170012  19.5334997  55.5149988  43.0746612  20.1385914  55.0883643
  41.6280012  37.0774997  37.7239988  41.3610012  37.3644997  38.5969988
  42.4000012  36.5314997  37.8759988  41.6957488  37.0430294  37.8641050
  51.4250012  19.6084997  55.2329988  51.5020012  19.1824997  56.0869988
  52.3190012  19.6224997  54.8899988  51.5563428  19.5520879  55.3035310
  54.6010012  35.6814997  53.9249988  53.8190012  35.4954997  53.4059988
  54.5290012  36.6104997  54.1429988  54.4841777  35.7816492  53.8834048
  69.0070012  29.5674997  43.9559988  69.0960012  30.5114997  43.8239988
  68.3690012  29.2924997  43.2979988  68.9329081  29.6594830  43.8489614
  67.9400012  28.8224997  47.3749988  67.9020012  28.1764997  48.0799988
  67.6180012  28.3564997  46.6039988  67.8912333  28.6709408  47.3672978
  60.3090012  28.4374997  48.9679988  60.3500012  27.8114997  49.6909988
  61.0120012  29.0614997  49.1499988  60.4096363  28.4361196  49.0916044
  71.6460012  31.7614997  45.6759988  71.2060012  31.0414997  46.1269988
  71.6330012  32.4824997  46.3059988  71.5840226  31.7603731  45.8228494
  61.2320012  32.8874997  47.5029988  60.8630012  32.0854997  47.1329988
  62.1730012  32.7184997  47.5489988  61.3087289  32.7550153  47.4586316
  57.8420012  26.5474997  42.8959988  57.3950012  27.3934997  42.8769988
  57.2810012  25.9674997  42.3799988  57.7049900  26.5849916  42.8236801
  58.5530012  28.7094997  45.0219988  58.7660012  27.9394997  45.5489988
  59.2910012  28.7984997  44.4179988  58.6818496  28.6161394  45.0125300
  68.7580012  36.8664997  45.8889988  69.3780012  36.1894997  45.6149988
  68.5500012  36.6484997  46.7969988  68.8146904  36.7443870  45.9743365
  66.3300012  31.2554997  47.7809988  66.6340012  30.5694997  47.1859988
  67.0510012  31.3734997  48.3989988  66.4690671  31.1776305  47.7831816
  74.9930012  22.8564997  48.6419988  75.0420012  23.4664997  49.3779988
  75.4180012  23.3174997  47.9189988  75.0571824  23.0023741  48.6450205
  69.4710012  25.6494997  48.1089988  69.6130012  24.7034997  48.1289988
  69.3640012  25.8564997  47.1799988  69.4759864  25.5479534  47.9862339
  62.6250012  23.7504997  45.3809988  62.6690012  24.6104997  44.9629988
  62.1680012  23.1984997  44.7469988  62.5692185  23.7935799  45.2380299
  70.3480012  23.8814997  43.7819988  70.9940012  23.5524997  44.4069988
  70.8580012  24.3994997  43.1589988  70.5054264  23.9064611  43.7833862
  59.2460012  26.1474997  46.1429988  59.8990012  25.5974997  46.5749988
  59.2700012  25.8734997  45.2259988  59.3386683  26.0351466  46.0782123
  64.4020012  27.6974997  45.3579988  65.0180012  27.1714997  45.8679988
  63.8160012  27.0574997  44.9549988  64.4070810  27.5389208  45.3733173
  75.3840012  24.3344997  50.8779988  74.6960012  24.9924997  50.7819988
  75.4000012  24.1374997  51.8139988  75.2918525  24.3980462  50.9914808
  61.4360012  22.6684997  49.4549988  61.2170012  23.1984997  48.6889988
  60.7680012  22.8954997  50.1019988  61.3157600  22.7716906  49.4376379
  68.8050012  32.1684997  42.9989988  68.5090012  31.8464997  42.1479988
  68.4800012  33.0684997  43.0399988  68.7206371  32.2460215  42.8881801
  64.0050012  30.3444997  49.7419988  63.2650012  30.9424997  49.8459988
  64.7190012  30.8984997  49.4269988  64.0002237  30.5012831  49.7136465
  72.1120012  23.1724997  45.7619988  71.8960012  22.4064997  46.2949988
  72.7670012  23.6444997  46.2749988  72.1710632  23.1315889  45.9042861
  61.0290012  24.5604997  47.4069988  61.6430012  25.1934997  47.7809988
  61.5410012  24.0884997  46.7509988  61.1822296  24.5832370  47.3694252
  62.4120012  32.3084997  50.5299988  62.4070012  33.1884997  50.1519988
  61.5590012  32.2254997  50.9549988  62.2959464  32.4176117  50.5357907
  58.5330012  31.9794997  41.3119988  58.2610012  32.2084997  40.4229988
  58.5790012  32.8174997  41.7719988  58.5020094  32.1241213  41.2525697
  72.1580012  33.6014997  48.0239988  71.2170012  33.6594997  48.1859988
  72.4350012  34.5074997  47.8869988  72.0664679  33.7319443  48.0276815
  72.4590012  21.8874997  49.4419988  71.7230012  22.4984997  49.4039988
  73.1420012  22.3024997  48.9149988  72.4506541  22.0271374  49.3655832
  65.4620012  19.9744997  46.9079988  65.3450012  19.0254997  46.8529988
  64.6070012  20.3064997  47.1809988  65.3303733  19.8895409  46.9373897
  70.4100012  35.3824997  44.6499988  70.8360012  34.6754997  44.1649988
  70.7270012  36.1834997  44.2329988  70.5111019  35.3940994  44.5273130
  71.5700012  33.2834997  43.1579988  71.3120012  32.5934997  42.5469988
  71.6410012  32.8404997  44.0039988  71.5442856  33.1292124  43.1886885
  73.2560012  31.8494997  51.6359988  73.3960012  31.2584997  50.8959988
  73.4230012  32.7224997  51.2789988  73.2976778  31.8866426  51.4866965
  67.7290012  28.8114997  41.4079988  67.0170012  29.3464997  41.0559988
  68.4200012  28.8674997  40.7479988  67.7250132  28.8922543  41.2706289
  67.7820012  27.2694997  38.4469988  68.4830012  27.2914997  39.0979988
  68.0850012  26.6414997  37.7909988  67.9187830  27.1876566  38.4473711
  75.0980012  28.1894997  49.7019988  74.4450012  28.8844997  49.7909988
  75.5630012  28.3994997  48.8919988  75.0715390  28.3129425  49.6046883
  71.1340012  29.0214997  42.3599988  70.4020012  29.2494997  42.9329988
  71.5820012  28.3074997  42.8149988  71.0943095  28.9562571  42.4999119
  71.0320012  27.1954997  51.4269988  71.1120012  27.9584997  51.9989988
  70.4300012  27.4744997  50.7369988  70.9615756  27.3377134  51.4120589
  62.7800012  29.6514997  44.2419988  62.4490012  29.2814997  43.4239988
  63.3680012  28.9814997  44.5889988  62.8141873  29.5101156  44.1768102
  64.1460012  33.0794997  46.9239988  64.0520012  32.5014997  46.1669988
  64.8760012  32.7084997  47.4199988  64.2317981  32.9502390  46.8874165
  63.1460012  28.4204997  47.8759988  63.7120012  28.5414997  47.1129988
  63.4650012  29.0574997  48.5149988  63.2665786  28.5231884  47.8580040
  69.4550012  33.9234997  48.6099988  69.2150012  34.5854997  49.2579988
  69.2570012  33.0894997  49.0349988  69.3953808  33.9013134  48.7561524
  64.0260012  32.8194997  52.5929988  63.7150012  33.6014997  53.0479988
  63.3760012  32.6664997  51.9069988  63.8955558  32.9059105  52.5625871
  70.0050012  28.1834997  40.0449988  70.5850012  28.3334997  40.7919988
  70.4190012  28.6544997  39.3219988  70.1402830  28.2676841  40.0494134
  60.9460012  29.0174997  51.8219988  61.0170012  29.6684997  52.5199988
  60.0560012  29.1204997  51.4869988  60.8353117  29.1205936  51.8722700
  67.7320012  34.9204997  43.4799988  68.2060012  35.2154997  44.2579988
  67.1690012  35.6584997  43.2469988  67.7207653  35.0606932  43.5550136
  62.2660012  34.8914997  53.3559988  62.2730012  34.7554997  52.4089988
  61.3500012  34.7734997  53.6079988  62.1431714  34.8569430  53.2604666
  73.7040012  19.9334997  39.8579988  72.8040012  20.0724997  40.1529988
  73.9560012  20.7644997  39.4559988  73.6148702  20.0649074  39.8440205
  61.7700012  28.7214997  41.8319988  61.4780012  29.4894997  41.3409988
  61.0960012  28.0614997  41.6689988  61.6389081  28.7374406  41.7427340
  74.8930012  34.2994997  38.2339988  74.9670012  35.2384997  38.4049988
  75.7990012  33.9944997  38.1779988  75.0255100  34.3866722  38.2498119
  57.8630012  31.0844997  50.6469988  57.3620012  31.0564997  49.8319988
  57.8680012  30.1784997  50.9559988  57.7951526  30.9582278  50.5772872
  57.6130012  33.8644997  47.5309988  58.5590012  33.7204997  47.5119988
  57.5010012  34.6484997  48.0679988  57.7272727  33.9508046  47.6010072
  75.8110012  34.5304997  53.2129988  75.7620012  33.5754997  53.1759988
  74.9840012  34.7984997  53.6139988  75.6924940  34.4358998  53.2621375
  66.7900012  34.1044997  52.0889988  66.8770012  34.9304997  52.5639988
  65.9260012  33.7744997  52.3379988  66.6851964  34.1729878  52.1876549
  67.2040012  37.8764997  41.8949988  67.1290012  37.7554997  40.9489988
  67.2370012  38.8264997  42.0139988  67.1981848  37.9882500  41.7814834
  60.8570012  36.6654997  43.6759988  61.0100012  36.3174997  44.5549988
  60.0070012  36.3094997  43.4209988  60.7628962  36.5696650  43.7618340
  70.3060012  37.0304997  38.8969988  70.6810012  36.2864997  38.4269988
  70.3100012  36.7604997  39.8159988  70.3578915  36.8921486  38.9567824
  69.9750012  36.9564997  41.6469988  69.0390012  37.0564997  41.8249988
  70.2550012  36.2474997  42.2249988  69.8848255  36.8742711  41.7495391
  72.9630012  26.0234997  53.6929988  72.5560012  26.5044997  52.9719988
  73.0040012  25.1184997  53.3849988  72.9128437  25.9669374  53.5526683
  60.1120012  32.4074997  51.6899988  60.3280012  32.0464997  52.5489988
  59.2570012  32.0334997  51.4799988  60.0259292  32.3074111  51.7793386
  62.7310012  20.8774997  47.6849988  61.8690012  20.7904997  47.2779988
  62.7080012  21.7334997  48.1129988  62.6100330  20.9812765  47.6871863
  67.3940012  20.5994997  51.0599988  67.8140012  20.1844997  51.8129988
  66.4610012  20.4214997  51.1769988  67.3253644  20.5185900  51.1789539
  70.7200012  24.3554997  51.9129988  70.2060012  24.2294997  52.7109988
  70.5650012  25.2674997  51.6689988  70.6286852  24.4616132  51.9892158
  71.4830012  29.2164997  37.6749988  71.5250012  28.9934997  36.7449988
  72.3320012  29.6154997  37.8649988  71.6035396  29.2399155  37.5733627
  67.0550012  23.0924997  38.3449988  66.8020012  23.1114997  39.2679988
  66.7990012  22.2204997  38.0439988  66.9857790  22.9772437  38.4306263
  62.8220012  25.8434997  48.7799988  62.1800012  25.8024997  49.4889988
  62.8590012  26.7694997  48.5429988  62.7391324  25.9631559  48.8449824
  62.8190012  26.0644997  43.6919988  61.9260012  25.7234997  43.6339988
  63.2690012  25.6874997  42.9369988  62.7577305  25.9668484  43.5819177
  68.3540012  26.4804997  42.5089988  67.9450012  27.2954997  42.2179988
  69.0750012  26.3404997  41.8949988  68.3954537  26.5732018  42.3861342
  67.4560012  26.6554997  53.9969988  66.8940012  25.9514997  54.3179988
  68.2830012  26.5354997  54.4649988  67.4907095  26.5427883  54.1042330
  69.3590012  25.9264997  45.3229988  69.1640012  26.5314997  44.6079988
  69.5400012  25.0924997  44.8889988  69.3567614  25.8966300  45.1664405
  60.5720012  26.1634997  50.6469988  60.5340012  26.5634997  51.5159988
  60.0810012  25.3464997  50.7379988  60.5004684  26.1078069  50.7781059
  63.9380012  23.5374997  37.4459988  63.5070012  23.0924997  38.1759988
  63.2200012  23.9094997  36.9339988  63.7819438  23.5268940  37.4766799
  57.1800012  23.2794997  44.4979988  57.8110012  23.2504997  45.2169988
  57.6290012  22.8544997  43.7679988  57.3270774  23.2180492  44.4976553
  58.4540012  24.0254997  39.9219988  58.9280012  24.6164997  39.3369988
  57.7370012  24.5564997  40.2689988  58.4219341  24.1780867  39.8888836
  68.6230012  27.5644997  49.9949988  68.9460012  26.9334997  49.3519988
  68.1830012  27.0294997  50.6549988  68.6076895  27.4058440  49.9962850
  65.4000012  23.4914997  44.7789988  64.4890012  23.5484997  45.0669988
  65.9060012  23.4314997  45.5889988  65.3435413  23.4911985  44.9280622
  60.2290012  25.1204997  43.6049988  59.3390012  25.2204997  43.2649988
  60.5250012  24.2784997  43.2589988  60.1472823  25.0203545  43.5117213
  63.8820012  25.1204997  41.2619988  64.8130012  25.2494997  41.4399988
  63.6670012  25.7904997  40.6119988  63.9804247  25.2286565  41.1985747
  69.8050012  22.7264997  48.0429988  69.1290012  22.8574997  48.7069988
  69.3200012  22.5714997  47.2329988  69.6467145  22.7234905  48.0244517
  62.5560012  26.3154997  38.8289988  62.0130012  25.9354997  38.1369988
  63.3890012  26.5094997  38.3999988  62.5944399  26.2898124  38.6764526
  73.0930012  38.3984997  54.3199988  73.2930012  38.8224997  53.4849988
  73.7480012  38.7414997  54.9269988  73.2090051  38.5029648  54.2877836
  60.6910012  30.8724997  53.9279988  61.4230012  31.1264997  54.4889988
  59.9110012  31.0764997  54.4429988  60.6858232  30.9349177  54.0745760
  66.7200012  26.2794997  46.6659988  67.2850012  25.7324997  46.1189988
  66.5730012  25.7574997  47.4539988  66.7772918  26.1342024  46.6978454
  61.7220012  22.4154997  43.0839988  61.4050012  21.5134997  43.0489988
  62.5040012  22.4174997  42.5309988  61.7842284  22.2921628  43.0044783
  65.3470012  24.6674997  49.0799988  64.5110012  25.1214997  49.1899988
  65.8710012  24.9434997  49.8319988  65.3034414  24.7669376  49.1967136
  65.8910012  30.8804997  40.7639988  65.1460012  30.3734997  40.4419988
  65.7570012  30.9294997  41.7109988  65.7708776  30.8176940  40.8478647
  73.0410012  30.0134997  49.5509988  73.6830012  30.4704997  49.0069988
  72.2110012  30.1264997  49.0879988  73.0165963  30.0912704  49.4140177
  69.7890012  23.6944997  38.9639988  68.8500012  23.8064997  38.8119988
  70.0860012  24.5514997  39.2699988  69.7007666  23.8256443  38.9845768
  67.4100012  31.0644997  52.0009988  67.0650012  30.6834997  52.8079988
  67.2100012  31.9984997  52.0729988  67.3358061  31.1385228  52.1210961
  70.5070012  25.5614997  40.6239988  71.3990012  25.4244997  40.9429988
  70.5640012  26.3524997  40.0879988  70.6366285  25.6496660  40.5951691
  61.0160012  30.1754997  46.5339988  61.7610012  30.1734997  45.9329988
  61.0940012  29.3524997  47.0159988  61.1285518  30.0639315  46.5168929
  68.0170012  32.3394997  39.7899988  67.7210012  33.1654997  40.1709988
  67.3140012  31.7194997  39.9859988  67.8814914  32.3688199  39.8686443
  58.0240012  28.6364997  51.8489988  58.2470012  28.2184997  52.6809988
  57.4220012  28.0234997  51.4259988  57.9731759  28.4964668  51.9057022
  65.0400012  28.1534997  54.0619988  64.7440012  27.9874997  53.1669988
  65.9720012  27.9334997  54.0509988  65.1254166  28.1010640  53.9380536
  69.6610012  33.5264997  51.9519988  68.7600012  33.7094997  51.6839988
  69.6950012  33.7854997  52.8729988  69.5423041  33.5865512  52.0398197
  75.3920012  25.7714997  40.3189988  74.8380012  25.3754997  39.6469988
  75.4920012  26.6814997  40.0409988  75.3297059  25.8403586  40.1894401
  75.3550012  31.5714997  53.1559988  74.5040012  31.8094997  52.7889988
  75.9460012  31.5544997  52.4029988  75.3182487  31.6018258  53.0038893
  73.6870012  34.5574997  40.7839988  73.3140012  33.7314997  41.0929988
  73.9650012  34.3744997  39.8869988  73.6735630  34.4197303  40.7049626
  70.8480012  29.3654997  47.8049988  69.9190012  29.1334997  47.7779988
  71.2990012  28.5884997  47.4749988  70.7819216  29.2287238  47.7566917
  63.3910012  33.6934997  43.9379988  63.9180012  34.4664997  43.7379988
  62.5110012  33.9184997  43.6369988  63.3441773  33.8298005  43.8699010
  59.1460012  28.5554997  38.5249988  59.7620012  29.1824997  38.9049988
  58.2840012  28.8714997  38.7969988  59.1137698  28.6839430  38.6137183
  64.8180012  31.3564997  43.5149988  64.5770012  32.2814997  43.5559988
  64.0770012  30.8974997  43.9109988  64.6848409  31.4211421  43.5741377
  65.3330012  35.5054997  49.8299988  65.6950012  36.3604997  49.5959988
  65.8640012  35.2134997  50.5699988  65.4544473  35.5831060  49.8980855
  63.5010012  36.3784997  43.0599988  62.5510012  36.4834997  43.1109988
  63.8530012  37.1984997  43.4049988  63.4184203  36.5038314  43.1136650
  68.8770012  31.6044997  49.5299988  68.4510012  31.3774997  50.3569988
  69.4570012  30.8664997  49.3479988  68.8971868  31.4735299  49.6185830
  71.0800012  32.5334997  38.6039988  71.4330012  32.1534997  39.4089988
  70.1310012  32.4404997  38.6909988  71.0000441  32.4689596  38.7258559
  71.5350012  36.1564997  51.9999988  70.9340012  35.6014997  51.5039988
  71.8170012  36.8234997  51.3739988  71.4908519  36.1706841  51.8474952
  75.5830012  37.0134997  38.8049988  76.3270012  37.5994997  38.6649988
  74.8890012  37.5814997  39.1389988  75.5910292  37.1705582  38.8309961
  59.6580012  23.3894997  51.4069988  58.7650012  23.7284997  51.3389988
  59.5590012  22.5344997  51.8249988  59.5224164  23.3202588  51.4542235
  71.9460012  31.2064997  40.8309988  71.6680012  30.4784997  41.3869988
  72.8730012  31.3254997  41.0359988  72.0333124  31.1228802  40.9348845
  59.3090012  35.1944997  49.8419988  59.5260012  34.2624997  49.8109988
  59.5550012  35.4684997  50.7249988  59.3719549  35.1040636  49.9571763
  65.1710012  33.6454997  37.0509988  65.4100012  32.8974997  36.5039988
  64.9020012  33.2574997  37.8839988  65.1673675  33.4906638  37.0886865
  64.1080012  33.2154997  39.5079988  64.2540012  32.6954997  40.2979988
  64.1050012  34.1224997  39.8139988  64.1275989  33.2668853  39.6576088
  60.5610012  30.4684997  40.0179988  59.8750012  30.8204997  40.5849988
  61.0830012  31.2314997  39.7709988  60.5376852  30.6198578  40.0622118
  68.3920012  23.1304997  50.2969988  69.0910012  23.2044997  50.9469988
  68.0110012  22.2664997  50.4509988  68.4361767  23.0237624  50.4068322
  69.1770012  22.7824997  41.3939988  69.3970012  23.2544997  40.5909988
  69.7350012  23.1774997  42.0639988  69.2824968  22.9004285  41.3747331
  66.8450012  34.9134997  40.2569988  66.0290012  35.4104997  40.3089988
  67.3750012  35.3884997  39.6169988  66.8049161  35.0457722  40.1775956
  66.3770012  24.5104997  42.2289988  67.1890012  25.0154997  42.2749988
  66.1320012  24.3654997  43.1429988  66.4550520  24.5600375  42.3588517
  66.9120012  25.4964997  51.4139988  67.0310012  26.0704997  52.1709988
  67.5680012  24.8084997  51.5279988  67.0169757  25.4821079  51.5330825
  67.2600012  21.5914997  43.1669988  66.9140012  22.2094997  43.8119988
  67.9190012  22.0924997  42.6859988  67.3017826  21.7435802  43.1900971
  64.1840012  35.9574997  40.2389988  64.3440012  36.7564997  39.7379988
  63.9860012  36.2634997  41.1239988  64.1791649  36.1084469  40.2899815
  62.9180012  22.6544997  39.8539988  62.8350012  23.5434997  40.2009988
  63.8080012  22.3894997  40.0859988  63.0269469  22.7401430  39.9327626
  73.1170012  23.4034997  52.2489988  72.2000012  23.6664997  52.1609988
  73.4520012  23.4004997  51.3519988  73.0369900  23.4390224  52.1157919
  71.7190012  27.1544997  46.3439988  70.9210012  26.7394997  46.0159988
  72.1640012  26.4634997  46.8349988  71.6699885  27.0043543  46.3654889
  61.1770012  33.0824997  38.9149988  61.7690012  33.7814997  39.1909988
  61.6360012  32.6494997  38.1949988  61.3201142  33.1197049  38.8554830
  59.4930012  25.7464997  38.0309988  59.4480012  26.6854997  38.2089988
  58.6050012  25.5104997  37.7609988  59.3668574  25.8431892  38.0188912
  72.8050012  36.4104997  47.9669988  72.6500012  37.0884997  47.3099988
  73.7380012  36.4824997  48.1699988  72.9098500  36.5130170  47.9045119
  60.3010012  20.5284997  46.7039988  60.0720012  20.5874997  45.7759988
  59.8580012  19.7364997  47.0099988  60.2098530  20.4295753  46.6184786
  59.2310012  34.4684997  42.8639988  58.3990012  34.9414997  42.8919988
  59.7770012  34.9784997  42.2659988  59.1909739  34.6021871  42.7869716
  58.5190012  37.0814997  54.1939988  59.0600012  36.8644997  54.9539988
  58.0380012  36.2754997  54.0049988  58.5279345  36.9429514  54.2723076
  63.1170012  36.0004997  55.8149988  63.8840012  35.5414997  56.1559988
  63.0950012  35.7744997  54.8849988  63.2191434  35.9070409  55.7360043
  67.2090012  35.5084997  37.1899988  66.5650012  34.8774997  37.5109988
  67.9710012  34.9774997  36.9579988  67.2238077  35.3502920  37.2026011
  69.6940012  34.3804997  54.5439988  69.3430012  33.5244997  54.7869988
  70.4200012  34.5234997  55.1509988  69.7440769  34.2825636  54.6593619
  71.8130012  35.3254997  37.4239988  72.0960012  34.5314997  37.8759988
  72.5530012  35.5584997  36.8629988  71.9517486  35.2482803  37.4100698
  58.4260012  30.8914997  55.1489988  58.5700012  29.9894997  54.8619988
  57.6540012  31.1774997  54.6609988  58.3413322  30.8068261  55.0437881
  62.7680012  31.2354997  37.2809988  62.8320012  30.4414997  37.8119988
  63.4210012  31.1164997  36.5909988  62.8650241  31.1107148  37.2604317
  65.0820012  30.8614997  54.5809988  64.7530012  31.1324997  53.7239988
  65.2340012  29.9204997  54.4939988  65.0574809  30.7713862  54.4518244
  68.1200012  32.2824997  37.0169988  67.8510012  32.4624997  37.9179988
  67.9140012  31.3564997  36.8859988  68.0553825  32.1820152  37.1225214
  70.8160012  30.7774997  51.9649988  71.5620012  31.3654997  51.8449988
  70.0590012  31.3594997  52.0279988  70.8157554  30.9367011  51.9570907
  59.2590012  28.0914997  54.5689988  59.6670012  27.2344997  54.4479988
  58.9990012  28.1064997  55.4899988  59.2797568  27.9760807  54.6769588
  63.9170012  29.2074997  39.5869988  63.4570012  28.7234997  40.2729988
  64.1720012  28.5394997  38.9509988  63.8884902  29.0508731  39.5949334
  63.2060012  27.1004997  51.9429988  62.5880012  27.7754997  52.2229988
  63.5500012  27.4214997  51.1099988  63.1679615  27.2362721  51.8686581
  64.9880012  27.4504997  37.8489988  64.8080012  27.2964997  36.9219988
  65.9380012  27.5584997  37.8939988  65.0917776  27.4440175  37.7281843
  68.2260012  29.5724997  55.2199988  69.1790012  29.6554997  55.1929988
  68.0650012  28.8604997  55.8399988  68.3346426  29.4876746  55.3000579
  74.3780012  29.8054997  37.2949988  74.1040012  29.3804997  36.4819988
  74.4170012  30.7364997  37.0779988  74.3457699  29.8732484  37.1543610
  63.5450012  24.4554997  53.0249988  63.6950012  23.7264997  52.4229988
  63.5480012  25.2324997  52.4659988  63.5659302  24.4607851  52.8670692
  63.9580012  22.8254997  50.5179988  64.4940012  23.2764997  49.8659988
  63.1060012  22.7174997  50.0949988  63.9162178  22.8726390  50.3715756
  65.5400012  28.2644997  50.7569988  66.2900012  28.1084997  50.1839988
  65.2010012  29.1164997  50.4819988  65.5968921  28.3582968  50.6413561
  69.9550012  26.0794997  55.7859988  70.1480012  25.1484997  55.6739988
  70.8130012  26.5044997  55.7759988  70.0973020  26.0096389  55.7693361
  71.2720012  28.8684997  53.8629988  70.9910012  29.5774997  53.2859988
  72.2150012  28.7954997  53.7119988  71.3609027  28.9557646  53.7635551
  62.0240012  25.6534997  54.9369988  61.2570012  25.1214997  54.7269988
  62.7030012  25.3434997  54.3369988  62.0107022  25.5387506  54.8271648
  64.7640012  20.2814997  50.9489988  64.6650012  21.2284997  50.8439988
  64.0210012  19.9094997  50.4739988  64.6500563  20.3605902  50.8704560
  66.0280012  24.6034997  54.5129988  65.7920012  24.3834997  55.4149988
  65.2440012  24.3964997  54.0029988  65.8898628  24.5454760  54.5673932
  68.7430012  23.7304997  53.5889988  67.7960012  23.7624997  53.7209988
  69.0560012  23.1054997  54.2419988  68.6555475  23.6503207  53.6954455
  70.3770012  22.3644997  55.5939988  70.2810012  21.4124997  55.5879988
  70.0560012  22.6334997  56.4539988  70.3204070  22.2704035  55.7095441
  60.2040012  23.5744997  54.6409988  60.4160012  22.8674997  54.0309988
  60.0930012  23.1364997  55.4849988  60.2179721  23.4187084  54.6716843
  64.9850012  19.5754997  53.6209988  65.6970012  18.9354997  53.6069988
  64.8840012  19.8424997  52.7069988  65.0687939  19.5239938  53.4955650
  65.3390012  21.2584997  55.6739988  65.2070012  20.7824997  54.8539988
  64.7400012  22.0024997  55.6189988  65.2399071  21.2939618  55.5542886
  64.8850012  38.1414997  38.8509988  65.8180012  38.2994997  38.9939988
  64.6210012  38.8164997  38.2259988  64.9769510  38.2543611  38.7860741
  58.4540012  32.7774997  38.3329988  59.3680012  32.8564997  38.6069988
  58.4610012  32.0904997  37.6669988  58.5801131  32.6953961  38.2804393
  57.1030012  38.1704997  43.4109988  56.4560012  37.7084997  42.8779988
  57.4570012  37.4984997  43.9929988  57.0623849  38.0164723  43.4167959
  57.9730012  36.2514997  45.2149988  57.6380012  35.3714997  45.3869988
  58.1950012  36.5964997  46.0799988  57.9571783  36.1777500  45.3554208
  75.5210012  37.0604997  48.1959988  75.5000012  37.2454997  49.1349988
  76.2120012  37.6294997  47.8549988  75.6114618  37.1626606  48.2783864
  75.0850012  36.6284997  51.1179988  74.5970012  35.8924997  50.7469988
  75.6340012  36.2344997  51.7959988  75.0924872  36.4746249  51.1589160
  73.5350012  32.4174997  55.7559988  72.6690012  32.3124997  56.1499988
  73.9120012  33.1764997  56.2019988  73.4673308  32.5056900  55.8702393
  74.8360012  30.6744997  41.2699988  75.6860012  31.0954997  41.3969988
  74.8420012  29.9344997  41.8769988  74.9531372  30.6320803  41.3694344
  75.2310012  28.7274997  43.0939988  74.5040012  28.2484997  43.4909988
  75.8120012  28.9334997  43.8259988  75.2099375  28.6897090  43.2474129
  74.9900012  31.5124997  48.0409988  75.8230012  31.1344997  47.7609988
  75.1020012  32.4554997  47.9219988  75.1192647  31.5882218  47.9865487
  73.4760012  34.3904997  50.3479988  72.8290012  34.7154997  50.9739988
  72.9590012  33.9504997  49.6739988  73.3174029  34.3755004  50.3425827
  75.4990012  28.6284997  39.4849988  74.9770012  28.9854997  38.7659988
  75.4660012  29.3034997  40.1629988  75.4231634  28.7685413  39.4783145
  73.8480012  25.8684997  38.0359988  73.9440012  26.5354997  37.3549988
  73.7080012  25.0524997  37.5539988  73.8422135  25.8494500  37.8778491
  73.0170012  27.2484997  43.6569988  72.8670012  26.3034997  43.6359988
  72.6640012  27.5294997  44.4999988  72.9486625  27.1570441  43.7682346
  58.0530012  29.3264997  47.6669988  58.2370012  29.2444997  46.7309988
  58.9020012  29.2024997  48.0909988  58.1930139  29.2985003  47.5961455
  73.8740012  29.2184997  53.2949988  74.4570012  28.4844997  53.4869988
  74.4380012  29.9904997  53.3419988  74.0299769  29.2224227  53.3276159
  75.3700012  27.1214997  53.9799988  74.5070012  26.7424997  53.8139988
  75.9750012  26.3824997  53.9059988  75.3335979  26.9698023  53.9472817
  73.0950012  23.2764997  37.1529988  73.7060012  22.9054997  37.7899988
  72.2590012  22.8554997  37.3489988  73.0655032  23.1687554  37.2667035
  72.7280012  24.8314997  42.1189988  73.0080012  23.9244997  42.2429988
  73.4870012  25.2654997  41.7299988  72.8689277  24.7660942  42.0833682
  73.3400012  25.4124997  47.5549988  74.2730012  25.6244997  47.5209988
  73.1050012  25.5144997  48.4769988  73.4358036  25.4552769  47.6749976
  73.3690012  26.1494997  50.3309988  72.5260012  26.4174997  50.6969988
  73.8110012  26.9714997  50.1199988  73.3134158  26.2973291  50.3525491
  57.6500012  24.5974997  53.8079988  58.5700012  24.4754997  54.0439988
  57.2010012  23.8474997  54.1969988  57.7151580  24.4793727  53.8929006
  75.6520012  20.1294997  55.6839988  76.0020012  19.4754997  55.0789988
  75.7990012  20.9664997  55.2449988  75.7198419  20.1531591  55.5417118
  73.3410012  22.0944997  42.1669988  73.5240012  21.6454997  42.9929988
  72.7420012  21.5094997  41.7039988  73.2850202  21.9539975  42.2173275
  58.8710012  22.9094997  46.6989988  59.3170012  22.1174997  47.0009988
  59.3380012  23.6254997  47.1299988  58.9950172  22.8980624  46.7984820
  57.1750012  25.9084997  47.7679988  57.6670012  25.6874997  46.9769988
  57.5380012  26.7494997  48.0489988  57.2913126  25.9918357  47.6977531
  75.1720012  22.2384997  54.0339988  74.2540012  22.5094997  53.9979988
  75.2950012  21.7034997  53.2489988  75.0631066  22.2032892  53.9230487
  75.2080012  22.1614997  38.6949988  75.6200012  21.4404997  38.2199988
  75.8900012  22.8314997  38.7539988  75.3565885  22.1532368  38.6378915
  57.4890012  22.1664997  41.8219988  56.5640012  22.3754997  41.6929988
  57.9430012  22.6504997  41.1329988  57.4237368  22.2605993  41.7111226
  72.2600012  37.1504997  43.7679988  72.9120012  36.8034997  43.1599988
  72.7700012  37.6394997  44.4139988  72.4182637  37.1690597  43.7720236
  57.4530012  20.9044997  50.1669988  56.7880012  20.6584997  50.8099988
  57.0100012  21.5264997  49.5889988  57.3020956  20.9548632  50.1769352
  59.6450012  34.0794997  54.3109988  58.8240012  34.2544997  53.8509988
  59.3920012  34.0064997  55.2319988  59.4986164  34.0935622  54.3724923
  62.5990012  35.0544997  50.5699988  62.1740012  35.8634997  50.2869988
  63.5030012  35.1394997  50.2679988  62.6630271  35.1768469  50.4903776
  66.9100012  36.4534997  53.5289988  67.0950012  36.1194997  54.4069988
  67.7560012  36.7624997  53.2069988  67.0497539  36.4496047  53.6055605
  69.2550012  37.7394997  52.7729988  69.9320012  37.1064997  52.5329988
  69.5770012  38.1404997  53.5799988  69.3911637  37.7071154  52.8492793
  74.1720012  20.3284997  51.8529988  73.3600012  20.6534997  51.4649988
  74.4050012  19.5684997  51.3199988  74.0923423  20.2702436  51.7278253
  60.0010012  38.3104997  50.6169988  59.2800012  38.7504997  50.1659988
  59.6350012  38.0594997  51.4659988  59.8529804  38.3367698  50.6699840
  62.4680012  37.9104997  49.6469988  61.6030012  37.9824997  50.0509988
  62.4130012  38.4574997  48.8629988  62.3422085  37.9942685  49.5963362
  67.1780012  37.7984997  48.8219988  66.7220012  38.3274997  48.1679988
  67.3410012  38.4014997  49.5479988  67.1375585  37.9524468  48.8305062
  69.5060012  36.6764997  49.7669988  68.6010012  36.8414997  49.5019988
  69.9350012  37.5294997  49.7019988  69.4400799  36.8144483  49.7219182
  72.1100012  38.2464997  50.0619988  71.9280012  39.1624997  49.8519988
  72.2870012  37.8364997  49.2159988  72.1090210  38.3164822  49.9187885
  59.4150012  36.9334997  47.5269988  59.3970012  36.5084997  48.3849988
  60.2200012  36.6154997  47.1189988  59.5213875  36.8323812  47.5891655
  61.5570012  35.6434997  46.1819988  61.3380012  34.7274997  46.3519988
  62.3810012  35.7834997  46.6479988  61.6384420  35.5370520  46.2682774
  64.0940012  36.1134997  47.0309988  64.3070012  35.2254997  46.7439988
  64.1580012  36.0794997  47.9849988  64.1318232  35.9873102  47.1207397
  67.6020012  21.7774997  46.1749988  66.9280012  21.1484997  46.4309988
  68.1660012  21.2934997  45.5719988  67.5859230  21.6258744  46.1285340
  72.7450012  19.8854997  46.2879988  73.3490012  20.4324997  45.7859988
  71.8750012  20.2044997  46.0479988  72.7101241  20.0035806  46.1867654
  74.4720012  21.0234997  44.6209988  75.0840012  20.5094997  44.0949988
  74.8540012  21.9014997  44.6449988  74.6074540  21.0717140  44.5521830
  59.9290012  20.4114997  43.9969988  59.1520012  20.1774997  43.4899988
  60.4590012  19.6144997  44.0059988  59.8942330  20.2716988  43.9287742
  58.7650012  20.2094997  39.8009988  59.2040012  20.8204997  39.2089988
  58.1320012  20.7474997  40.2749988  58.7394514  20.3659257  39.7840930
  64.5080012  20.3384997  43.8109988  65.3830012  20.7264997  43.7809988
  64.3720012  20.1234997  44.7329988  64.6093695  20.3625184  43.9316440
  70.0650012  20.3684997  45.4599988  70.1410012  20.4634997  44.5099988
  69.7900012  19.4604997  45.5889988  70.0382321  20.2587867  45.3475079
  71.4180012  20.3944997  41.1519988  70.7160012  21.0094997  40.9429988
  70.9740012  19.5564997  41.2829988  71.2616330  20.3655783  41.1410328
  58.6660012  36.1574997  40.6989988  57.9810012  36.1194997  40.0309988
  58.6700012  37.0704997  40.9869988  58.5728193  36.2757016  40.6465284
  60.6260012  22.1254997  38.2429988  61.1180012  21.4954997  37.7159988
  61.2500012  22.4214997  38.9069988  60.7775446  22.0793199  38.2605980
  65.6520012  22.4184997  40.6999988  65.8300012  21.7724997  41.3829988
  65.5990012  23.2524997  41.1679988  65.6691829  22.4427985  40.8565940
  67.5310012  37.3674997  39.0959988  68.3970012  37.7334997  38.9179988
  67.2840012  36.9274997  38.2819988  67.6162392  37.3581756  38.9616289
  74.2400012  36.9304997  41.7749988  74.0450012  36.1824997  41.2099988
  74.2010012  37.6884997  41.1919988  74.2080380  36.9306099  41.6188384
  59.8870012  20.9254997  53.5149988  59.5210012  20.1604997  53.9579988
  60.8000012  20.9544997  53.8019988  59.9602790  20.8247224  53.6144070
  61.8600012  20.2764997  55.0509988  62.7580012  20.0024997  54.8659988
  61.4730012  19.5334997  55.5149988  61.9306612  20.1385914  55.0883643
  60.4840012  37.0774997  37.7239988  60.2170012  37.3644997  38.5969988
  61.2560012  36.5314997  37.8759988  60.5517488  37.0430294  37.8641050
  70.2810012  19.6084997  55.2329988  70.3580012  19.1824997  56.0869988
  71.1750012  19.6224997  54.8899988  70.4123428  19.5520879  55.3035310
  73.4570012  35.6814997  53.9249988  72.6750012  35.4954997  53.4059988
  73.3850012  36.6104997  54.1429988  73.3401777  35.7816492  53.8834048
  87.8630012  29.5674997  43.9559988  87.9520012  30.5114997  43.8239988
  87.2250012  29.2924997  43.2979988  87.7889081  29.6594830  43.8489614
  86.7960012  28.8224997  47.3749988  86.7580012  28.1764997  48.0799988
  86.4740012  28.3564997  46.6039988  86.7472333  28.6709408  47.3672978
  79.1650012  28.4374997  48.9679988  79.2060012  27.8114997  49.6909988
  79.8680012  29.0614997  49.1499988  79.2656363  28.4361196  49.0916044
  90.5020012  31.7614997  45.6759988  90.0620012  31.0414997  46.1269988
  90.4890012  32.4824997  46.3059988  90.4400226  31.7603731  45.8228494
  80.0880012  32.8874997  47.5029988  79.7190012  32.0854997  47.1329988
  81.0290012  32.7184997  47.5489988  80.1647289  32.7550153  47.4586316
  76.6980012  26.5474997  42.8959988  76.2510012  27.3934997  42.8769988
  76.1370012  25.9674997  42.3799988  76.5609900  26.5849916  42.8236801
  77.4090012  28.7094997  45.0219988  77.6220012  27.9394997  45.5489988
  78.1470012  28.7984997  44.4179988  77.5378496  28.6161394  45.0125300
  87.6140012  36.8664997  45.8889988  88.2340012  36.1894997  45.6149988
  87.4060012  36.6484997  46.7969988  87.6706904  36.7443870  45.9743365
  85.1860012  31.2554997  47.7809988  85.4900012  30.5694997  47.1859988
  85.9070012  31.3734997  48.3989988  85.3250671  31.1776305  47.7831816
  93.8490012  22.8564997  48.6419988  93.8980012  23.4664997  49.3779988
  94.2740012  23.3174997  47.9189988  93.9131824  23.0023741  48.6450205
  88.3270012  25.6494997  48.1089988  88.4690012  24.7034997  48.1289988
  88.2200012  25.8564997  47.1799988  88.3319864  25.5479534  47.9862339
  81.4810012  23.7504997  45.3809988  81.5250012  24.6104997  44.9629988
  81.0240012  23.1984997  44.7469988  81.4252185  23.7935799  45.2380299
  89.2040012  23.8814997  43.7819988  89.8500012  23.5524997  44.4069988
  89.7140012  24.3994997  43.1589988  89.3614264  23.9064611  43.7833862
  78.1020012  26.1474997  46.1429988  78.7550012  25.5974997  46.5749988
  78.1260012  25.8734997  45.2259988  78.1946683  26.0351466  46.0782123
  83.2580012  27.6974997  45.3579988  83.8740012  27.1714997  45.8679988
  82.6720012  27.0574997  44.9549988  83.2630810  27.5389208  45.3733173
  94.2400012  24.3344997  50.8779988  93.5520012  24.9924997  50.7819988
  94.2560012  24.1374997  51.8139988  94.1478525  24.3980462  50.9914808
  80.2920012  22.6684997  49.4549988  80.0730012  23.1984997  48.6889988
  79.6240012  22.8954997  50.1019988  80.1717600  22.7716906  49.4376379
  87.6610012  32.1684997  42.9989988  87.3650012  31.8464997  42.1479988
  87.3360012  33.0684997  43.0399988  87.5766371  32.2460215  42.8881801
  82.8610012  30.3444997  49.7419988  82.1210012  30.9424997  49.8459988
  83.5750012  30.8984997  49.4269988  82.8562237  30.5012831  49.7136465
  90.9680012  23.1724997  45.7619988  90.7520012  22.4064997  46.2949988
  91.6230012  23.6444997  46.2749988  91.0270632  23.1315889  45.9042861
  79.8850012  24.5604997  47.4069988  80.4990012  25.1934997  47.7809988
  80.3970012  24.0884997  46.7509988  80.0382296  24.5832370  47.3694252
  81.2680012  32.3084997  50.5299988  81.2630012  33.1884997  50.1519988
  80.4150012  32.2254997  50.9549988  81.1519464  32.4176117  50.5357907
  77.3890012  31.9794997  41.3119988  77.1170012  32.2084997  40.4229988
  77.4350012  32.8174997  41.7719988  77.3580094  32.1241213  41.2525697
  91.0140012  33.6014997  48.0239988  90.0730012  33.6594997  48.1859988
  91.2910012  34.5074997  47.8869988  90.9224679  33.7319443  48.0276815
  91.3150012  21.8874997  49.4419988  90.5790012  22.4984997  49.4039988
  91.9980012  22.3024997  48.9149988  91.3066541  22.0271374  49.3655832
  84.3180012  19.9744997  46.9079988  84.2010012  19.0254997  46.8529988
  83.4630012  20.3064997  47.1809988  84.1863733  19.8895409  46.9373897
  89.2660012  35.3824997  44.6499988  89.6920012  34.6754997  44.1649988
  89.5830012  36.1834997  44.2329988  89.3671019  35.3940994  44.5273130
  90.4260012  33.2834997  43.1579988  90.1680012  32.5934997  42.5469988
  90.4970012  32.8404997  44.0039988  90.4002856  33.1292124  43.1886885
  92.1120012  31.8494997  51.6359988  92.2520012  31.2584997  50.8959988
  92.2790012  32.7224997  51.2789988  92.1536778  31.8866426  51.4866965
  86.5850012  28.8114997  41.4079988  85.8730012  29.3464997  41.0559988
  87.2760012  28.8674997  40.7479988  86.5810132  28.8922543  41.2706289
  86.6380012  27.2694997  38.4469988  87.3390012  27.2914997  39.0979988
  86.9410012  26.6414997  37.7909988  86.7747830  27.1876566  38.4473711
  93.9540012  28.1894997  49.7019988  93.3010012  28.8844997  49.7909988
  94.4190012  28.3994997  48.8919988  93.9275390  28.3129425  49.6046883
  89.9900012  29.0214997  42.3599988  89.2580012  29.2494997  42.9329988
  90.4380012  28.3074997  42.8149988  89.9503095  28.9562571  42.4999119
  89.8880012  27.1954997  51.4269988  89.9680012  27.9584997  51.9989988
  89.2860012  27.4744997  50.7369988  89.8175756  27.3377134  51.4120589
  81.6360012  29.6514997  44.2419988  81.3050012  29.2814997  43.4239988
  82.2240012  28.9814997  44.5889988  81.6701873  29.5101156  44.1768102
  83.0020012  33.0794997  46.9239988  82.9080012  32.5014997  46.1669988
  83.7320012  32.7084997  47.4199988  83.0877981  32.9502390  46.8874165
  82.0020012  28.4204997  47.8759988  82.5680012  28.5414997  47.1129988
  82.3210012  29.0574997  48.5149988  82.1225786  28.5231884  47.8580040
  88.3110012  33.9234997  48.6099988  88.0710012  34.5854997  49.2579988
  88.1130012  33.0894997  49.0349988  88.2513808  33.9013134  48.7561524
  82.8820012  32.8194997  52.5929988  82.5710012  33.6014997  53.0479988
  82.2320012  32.6664997  51.9069988  82.7515558  32.9059105  52.5625871
  88.8610012  28.1834997  40.0449988  89.4410012  28.3334997  40.7919988
  89.2750012  28.6544997  39.3219988  88.9962830  28.2676841  40.0494134
  79.8020012  29.0174997  51.8219988  79.8730012  29.6684997  52.5199988
  78.9120012  29.1204997  51.4869988  79.6913117  29.1205936  51.8722700
  86.5880012  34.9204997  43.4799988  87.0620012  35.2154997  44.2579988
  86.0250012  35.6584997  43.2469988  86.5767653  35.0606932  43.5550136
  81.1220012  34.8914997  53.3559988  81.1290012  34.7554997  52.4089988
  80.2060012  34.7734997  53.6079988  80.9991714  34.8569430  53.2604666
  92.5600012  19.9334997  39.8579988  91.6600012  20.0724997  40.1529988
  92.8120012  20.7644997  39.4559988  92.4708702  20.0649074  39.8440205
  80.6260012  28.7214997  41.8319988  80.3340012  29.4894997  41.3409988
  79.9520012  28.0614997  41.6689988  80.4949081  28.7374406  41.7427340
  93.7490012  34.2994997  38.2339988  93.8230012  35.2384997  38.4049988
  94.6550012  33.9944997  38.1779988  93.8815100  34.3866722  38.2498119
  76.7190012  31.0844997  50.6469988  76.2180012  31.0564997  49.8319988
  76.7240012  30.1784997  50.9559988  76.6511526  30.9582278  50.5772872
  76.4690012  33.8644997  47.5309988  77.4150012  33.7204997  47.5119988
  76.3570012  34.6484997  48.0679988  76.5832727  33.9508046  47.6010072
  94.6670012  34.5304997  53.2129988  94.6180012  33.5754997  53.1759988
  93.8400012  34.7984997  53.6139988  94.5484940  34.4358998  53.2621375
  85.6460012  34.1044997  52.0889988  85.7330012  34.9304997  52.5639988
  84.7820012  33.7744997  52.3379988  85.5411964  34.1729878  52.1876549
  86.0600012  37.8764997  41.8949988  85.9850012  37.7554997  40.9489988
  86.0930012  38.8264997  42.0139988  86.0541848  37.9882500  41.7814834
  79.7130012  36.6654997  43.6759988  79.8660012  36.3174997  44.5549988
  78.8630012  36.3094997  43.4209988  79.6188962  36.5696650  43.7618340
  89.1620012  37.0304997  38.8969988  89.5370012  36.2864997  38.4269988
  89.1660012  36.7604997  39.8159988  89.2138915  36.8921486  38.9567824
  88.8310012  36.9564997  41.6469988  87.8950012  37.0564997  41.8249988
  89.1110012  36.2474997  42.2249988  88.7408255  36.8742711  41.7495391
  91.8190012  26.0234997  53.6929988  91.4120012  26.5044997  52.9719988
  91.8600012  25.1184997  53.3849988  91.7688437  25.9669374  53.5526683
  78.9680012  32.4074997  51.6899988  79.1840012  32.0464997  52.5489988
  78.1130012  32.0334997  51.4799988  78.8819292  32.3074111  51.7793386
  81.5870012  20.8774997  47.6849988  80.7250012  20.7904997  47.2779988
  81.5640012  21.7334997  48.1129988  81.4660330  20.9812765  47.6871863
  86.2500012  20.5994997  51.0599988  86.6700012  20.1844997  51.8129988
  85.3170012  20.4214997  51.1769988  86.1813644  20.5185900  51.1789539
  89.5760012  24.3554997  51.9129988  89.0620012  24.2294997  52.7109988
  89.4210012  25.2674997  51.6689988  89.4846852  24.4616132  51.9892158
  90.3390012  29.2164997  37.6749988  90.3810012  28.9934997  36.7449988
  91.1880012  29.6154997  37.8649988  90.4595396  29.2399155  37.5733627
  85.9110012  23.0924997  38.3449988  85.6580012  23.1114997  39.2679988
  85.6550012  22.2204997  38.0439988  85.8417790  22.9772437  38.4306263
  81.6780012  25.8434997  48.7799988  81.0360012  25.8024997  49.4889988
  81.7150012  26.7694997  48.5429988  81.5951324  25.9631559  48.8449824
  81.6750012  26.0644997  43.6919988  80.7820012  25.7234997  43.6339988
  82.1250012  25.6874997  42.9369988  81.6137305  25.9668484  43.5819177
  87.2100012  26.4804997  42.5089988  86.8010012  27.2954997  42.2179988
  87.9310012  26.3404997  41.8949988  87.2514537  26.5732018  42.3861342
  86.3120012  26.6554997  53.9969988  85.7500012  25.9514997  54.3179988
  87.1390012  26.5354997  54.4649988  86.3467095  26.5427883  54.1042330
  88.2150012  25.9264997  45.3229988  88.0200012  26.5314997  44.6079988
  88.3960012  25.0924997  44.8889988  88.2127614  25.8966300  45.1664405
  79.4280012  26.1634997  50.6469988  79.3900012  26.5634997  51.5159988
  78.9370012  25.3464997  50.7379988  79.3564684  26.1078069  50.7781059
  82.7940012  23.5374997  37.4459988  82.3630012  23.0924997  38.1759988
  82.0760012  23.9094997  36.9339988  82.6379438  23.5268940  37.4766799
  76.0360012  23.2794997  44.4979988  76.6670012  23.2504997  45.2169988
  76.4850012  22.8544997  43.7679988  76.1830774  23.2180492  44.4976553
  77.3100012  24.0254997  39.9219988  77.7840012  24.6164997  39.3369988
  76.5930012  24.5564997  40.2689988  77.2779341  24.1780867  39.8888836
  87.4790012  27.5644997  49.9949988  87.8020012  26.9334997  49.3519988
  87.0390012  27.0294997  50.6549988  87.4636895  27.4058441  49.9962850
  84.2560012  23.4914997  44.7789988  83.3450012  23.5484997  45.0669988
  84.7620012  23.4314997  45.5889988  84.1995413  23.4911985  44.9280622
  79.0850012  25.1204997  43.6049988  78.1950012  25.2204997  43.2649988
  79.3810012  24.2784997  43.2589988  79.0032823  25.0203545  43.5117213
  82.7380012  25.1204997  41.2619988  83.6690012  25.2494997  41.4399988
  82.5230012  25.7904997  40.6119988  82.8364247  25.2286565  41.1985747
  88.6610012  22.7264997  48.0429988  87.9850012  22.8574997  48.7069988
  88.1760012  22.5714997  47.2329988  88.5027145  22.7234905  48.0244517
  81.4120012  26.3154997  38.8289988  80.8690012  25.9354997  38.1369988
  82.2450012  26.5094997  38.3999988  81.4504399  26.2898124  38.6764526
  91.9490012  38.3984997  54.3199988  92.1490012  38.8224997  53.4849988
  92.6040012  38.7414997  54.9269988  92.0650051  38.5029648  54.2877836
  79.5470012  30.8724997  53.9279988  80.2790012  31.1264997  54.4889988
  78.7670012  31.0764997  54.4429988  79.5418232  30.9349177  54.0745760
  85.5760012  26.2794997  46.6659988  86.1410012  25.7324997  46.1189988
  85.4290012  25.7574997  47.4539988  85.6332918  26.1342024  46.6978454
  80.5780012  22.4154997  43.0839988  80.2610012  21.5134997  43.0489988
  81.3600012  22.4174997  42.5309988  80.6402284  22.2921628  43.0044783
  84.2030012  24.6674997  49.0799988  83.3670012  25.1214997  49.1899988
  84.7270012  24.9434997  49.8319988  84.1594414  24.7669376  49.1967136
  84.7470012  30.8804997  40.7639988  84.0020012  30.3734997  40.4419988
  84.6130012  30.9294997  41.7109988  84.6268776  30.8176940  40.8478647
  91.8970012  30.0134997  49.5509988  92.5390012  30.4704997  49.0069988
  91.0670012  30.1264997  49.0879988  91.8725963  30.0912704  49.4140177
  88.6450012  23.6944997  38.9639988  87.7060012  23.8064997  38.8119988
  88.9420012  24.5514997  39.2699988  88.5567666  23.8256443  38.9845768
  86.2660012  31.0644997  52.0009988  85.9210012  30.6834997  52.8079988
  86.0660012  31.9984997  52.0729988  86.1918061  31.1385228  52.1210961
  89.3630012  25.5614997  40.6239988  90.2550012  25.4244997  40.9429988
  89.4200012  26.3524997  40.0879988  89.4926285  25.6496660  40.5951691
  79.8720012  30.1754997  46.5339988  80.6170012  30.1734997  45.9329988
  79.9500012  29.3524997  47.0159988  79.9845518  30.0639315  46.5168929
  86.8730012  32.3394997  39.7899988  86.5770012  33.1654997  40.1709988
  86.1700012  31.7194997  39.9859988  86.7374914  32.3688199  39.8686443
  76.8800012  28.6364997  51.8489988  77.1030012  28.2184997  52.6809988
  76.2780012  28.0234997  51.4259988  76.8291759  28.4964668  51.9057022
  83.8960012  28.1534997  54.0619988  83.6000012  27.9874997  53.1669988
  84.8280012  27.9334997  54.0509988  83.9814166  28.1010640  53.9380536
  88.5170012  33.5264997  51.9519988  87.6160012  33.7094997  51.6839988
  88.5510012  33.7854997  52.8729988  88.3983041  33.5865512  52.0398197
  94.2480012  25.7714997  40.3189988  93.6940012  25.3754997  39.6469988
  94.3480012  26.6814997  40.0409988  94.1857059  25.8403586  40.1894401
  94.2110012  31.5714997  53.1559988  93.3600012  31.8094997  52.7889988
  94.8020012  31.5544997  52.4029988  94.1742487  31.6018258  53.0038893
  92.5430012  34.5574997  40.7839988  92.1700012  33.7314997  41.0929988
  92.8210012  34.3744997  39.8869988  92.5295630  34.4197303  40.7049626
  89.7040012  29.3654997  47.8049988  88.7750012  29.1334997  47.7779988
  90.1550012  28.5884997  47.4749988  89.6379216  29.2287238  47.7566917
  82.2470012  33.6934997  43.9379988  82.7740012  34.4664997  43.7379988
  81.3670012  33.9184997  43.6369988  82.2001773  33.8298005  43.8699010
  78.0020012  28.5554997  38.5249988  78.6180012  29.1824997  38.9049988
  77.1400012  28.8714997  38.7969988  77.9697698  28.6839430  38.6137183
  83.6740012  31.3564997  43.5149988  83.4330012  32.2814997  43.5559988
  82.9330012  30.8974997  43.9109988  83.5408409  31.4211421  43.5741377
  84.1890012  35.5054997  49.8299988  84.5510012  36.3604997  49.5959988
  84.7200012  35.2134997  50.5699988  84.3104473  35.5831060  49.8980855
  82.3570012  36.3784997  43.0599988  81.4070012  36.4834997  43.1109988
  82.7090012  37.1984997  43.4049988  82.2744203  36.5038314  43.1136650
  87.7330012  31.6044997  49.5299988  87.3070012  31.3774997  50.3569988
  88.3130012  30.8664997  49.3479988  87.7531868  31.4735299  49.6185830
  89.9360012  32.5334997  38.6039988  90.2890012  32.1534997  39.4089988
  88.9870012  32.4404997  38.6909988  89.8560441  32.4689596  38.7258559
  90.3910012  36.1564997  51.9999988  89.7900012  35.6014997  51.5039988
  90.6730012  36.8234997  51.3739988  90.3468519  36.1706841  51.8474952
  94.4390012  37.0134997  38.8049988  95.1830012  37.5994997  38.6649988
  93.7450012  37.5814997  39.1389988  94.4470292  37.1705582  38.8309961
  78.5140012  23.3894997  51.4069988  77.6210012  23.7284997  51.3389988
  78.4150012  22.5344997  51.8249988  78.3784164  23.3202588  51.4542235
  90.8020012  31.2064997  40.8309988  90.5240012  30.4784997  41.3869988
  91.7290012  31.3254997  41.0359988  90.8893124  31.1228802  40.9348845
  78.1650012  35.1944997  49.8419988  78.3820012  34.2624997  49.8109988
  78.4110012  35.4684997  50.7249988  78.2279549  35.1040636  49.9571763
  84.0270012  33.6454997  37.0509988  84.2660012  32.8974997  36.5039988
  83.7580012  33.2574997  37.8839988  84.0233675  33.4906638  37.0886865
  82.9640012  33.2154997  39.5079988  83.1100012  32.6954997  40.2979988
  82.9610012  34.1224997  39.8139988  82.9835989  33.2668853  39.6576088
  79.4170012  30.4684997  40.0179988  78.7310012  30.8204997  40.5849988
  79.9390012  31.2314997  39.7709988  79.3936852  30.6198578  40.0622118
  87.2480012  23.1304997  50.2969988  87.9470012  23.2044997  50.9469988
  86.8670012  22.2664997  50.4509988  87.2921767  23.0237624  50.4068322
  88.0330012  22.7824997  41.3939988  88.2530012  23.2544997  40.5909988
  88.5910012  23.1774997  42.0639988  88.1384968  22.9004285  41.3747331
  85.7010012  34.9134997  40.2569988  84.8850012  35.4104997  40.3089988
  86.2310012  35.3884997  39.6169988  85.6609161  35.0457722  40.1775956
  85.2330012  24.5104997  42.2289988  86.0450012  25.0154997  42.2749988
  84.9880012  24.3654997  43.1429988  85.3110520  24.5600375  42.3588517
  85.7680012  25.4964997  51.4139988  85.8870012  26.0704997  52.1709988
  86.4240012  24.8084997  51.5279988  85.8729757  25.4821079  51.5330825
  86.1160012  21.5914997  43.1669988  85.7700012  22.2094997  43.8119988
  86.7750012  22.0924997  42.6859988  86.1577826  21.7435802  43.1900971
  83.0400012  35.9574997  40.2389988  83.2000012  36.7564997  39.7379988
  82.8420012  36.2634997  41.1239988  83.0351649  36.1084469  40.2899815
  81.7740012  22.6544997  39.8539988  81.6910012  23.5434997  40.2009988
  82.6640012  22.3894997  40.0859988  81.8829469  22.7401430  39.9327626
  91.9730012  23.4034997  52.2489988  91.0560012  23.6664997  52.1609988
  92.3080012  23.4004997  51.3519988  91.8929900  23.4390224  52.1157919
  90.5750012  27.1544997  46.3439988  89.7770012  26.7394997  46.0159988
  91.0200012  26.4634997  46.8349988  90.5259885  27.0043543  46.3654889
  80.0330012  33.0824997  38.9149988  80.6250012  33.7814997  39.1909988
  80.4920012  32.6494997  38.1949988  80.1761142  33.1197049  38.8554830
  78.3490012  25.7464997  38.0309988  78.3040012  26.6854997  38.2089988
  77.4610012  25.5104997  37.7609988  78.2228574  25.8431892  38.0188912
  91.6610012  36.4104997  47.9669988  91.5060012  37.0884997  47.3099988
  92.5940012  36.4824997  48.1699988  91.7658500  36.5130170  47.9045119
  79.1570012  20.5284997  46.7039988  78.9280012  20.5874997  45.7759988
  78.7140012  19.7364997  47.0099988  79.0658530  20.4295753  46.6184786
  78.0870012  34.4684997  42.8639988  77.2550012  34.9414997  42.8919988
  78.6330012  34.9784997  42.2659988  78.0469739  34.6021871  42.7869716
  77.3750012  37.0814997  54.1939988  77.9160012  36.8644997  54.9539988
  76.8940012  36.2754997  54.0049988  77.3839345  36.9429514  54.2723076
  81.9730012  36.0004997  55.8149988  82.7400012  35.5414997  56.1559988
  81.9510012  35.7744997  54.8849988  82.0751434  35.9070409  55.7360043
  86.0650012  35.5084997  37.1899988  85.4210012  34.8774997  37.5109988
  86.8270012  34.9774997  36.9579988  86.0798077  35.3502920  37.2026011
  88.5500012  34.3804997  54.5439988  88.1990012  33.5244997  54.7869988
  89.2760012  34.5234997  55.1509988  88.6000769  34.2825636  54.6593619
  90.6690012  35.3254997  37.4239988  90.9520012  34.5314997  37.8759988
  91.4090012  35.5584997  36.8629988  90.8077486  35.2482803  37.4100698
  77.2820012  30.8914997  55.1489988  77.4260012  29.9894997  54.8619988
  76.5100012  31.1774997  54.6609988  77.1973322  30.8068261  55.0437881
  81.6240012  31.2354997  37.2809988  81.6880012  30.4414997  37.8119988
  82.2770012  31.1164997  36.5909988  81.7210241  31.1107148  37.2604317
  83.9380012  30.8614997  54.5809988  83.6090012  31.1324997  53.7239988
  84.0900012  29.9204997  54.4939988  83.9134809  30.7713862  54.4518244
  86.9760012  32.2824997  37.0169988  86.7070012  32.4624997  37.9179988
  86.7700012  31.3564997  36.8859988  86.9113825  32.1820152  37.1225214
  89.6720012  30.7774997  51.9649988  90.4180012  31.3654997  51.8449988
  88.9150012  31.3594997  52.0279988  89.6717554  30.9367011  51.9570907
  78.1150012  28.0914997  54.5689988  78.5230012  27.2344997  54.4479988
  77.8550012  28.1064997  55.4899988  78.1357568  27.9760807  54.6769588
  82.7730012  29.2074997  39.5869988  82.3130012  28.7234997  40.2729988
  83.0280012  28.5394997  38.9509988  82.7444902  29.0508731  39.5949334
  82.0620012  27.1004997  51.9429988  81.4440012  27.7754997  52.2229988
  82.4060012  27.4214997  51.1099988  82.0239615  27.2362721  51.8686581
  83.8440012  27.4504997  37.8489988  83.6640012  27.2964997  36.9219988
  84.7940012  27.5584997  37.8939988  83.9477776  27.4440175  37.7281843
  87.0820012  29.5724997  55.2199988  88.0350012  29.6554997  55.1929988
  86.9210012  28.8604997  55.8399988  87.1906426  29.4876746  55.3000579
  93.2340012  29.8054997  37.2949988  92.9600012  29.3804997  36.4819988
  93.2730012  30.7364997  37.0779988  93.2017699  29.8732484  37.1543610
  82.4010012  24.4554997  53.0249988  82.5510012  23.7264997  52.4229988
  82.4040012  25.2324997  52.4659988  82.4219302  24.4607851  52.8670692
  82.8140012  22.8254997  50.5179988  83.3500012  23.2764997  49.8659988
  81.9620012  22.7174997  50.0949988  82.7722178  22.8726390  50.3715756
  84.3960012  28.2644997  50.7569988  85.1460012  28.1084997  50.1839988
  84.0570012  29.1164997  50.4819988  84.4528921  28.3582968  50.6413561
  88.8110012  26.0794997  55.7859988  89.0040012  25.1484997  55.6739988
  89.6690012  26.5044997  55.7759988  88.9533020  26.0096389  55.7693361
  90.1280012  28.8684997  53.8629988  89.8470012  29.5774997  53.2859988
  91.0710012  28.7954997  53.7119988  90.2169027  28.9557646  53.7635551
  80.8800012  25.6534997  54.9369988  80.1130012  25.1214997  54.7269988
  81.5590012  25.3434997  54.3369988  80.8667022  25.5387506  54.8271648
  83.6200012  20.2814997  50.9489988  83.5210012  21.2284997  50.8439988
  82.8770012  19.9094997  50.4739988  83.5060564  20.3605902  50.8704560
  84.8840012  24.6034997  54.5129988  84.6480012  24.3834997  55.4149988
  84.1000012  24.3964997  54.0029988  84.7458628  24.5454760  54.5673932
  87.5990012  23.7304997  53.5889988  86.6520012  23.7624997  53.7209988
  87.9120012  23.1054997  54.2419988  87.5115475  23.6503207  53.6954455
  89.2330012  22.3644997  55.5939988  89.1370012  21.4124997  55.5879988
  88.9120012  22.6334997  56.4539988  89.1764070  22.2704035  55.7095441
  79.0600012  23.5744997  54.6409988  79.2720012  22.8674997  54.0309988
  78.9490012  23.1364997  55.4849988  79.0739721  23.4187084  54.6716843
  83.8410012  19.5754997  53.6209988  84.5530012  18.9354997  53.6069988
  83.7400012  19.8424997  52.7069988  83.9247939  19.5239938  53.4955650
  84.1950012  21.2584997  55.6739988  84.0630012  20.7824997  54.8539988
  83.5960012  22.0024997  55.6189988  84.0959071  21.2939618  55.5542886
  83.7410012  38.1414997  38.8509988  84.6740012  38.2994997  38.9939988
  83.4770012  38.8164997  38.2259988  83.8329510  38.2543611  38.7860741
  77.3100012  32.7774997  38.3329988  78.2240012  32.8564997  38.6069988
  77.3170012  32.0904997  37.6669988  77.4361131  32.6953961  38.2804393
  75.9590012  38.1704997  43.4109988  75.3120012  37.7084997  42.8779988
  76.3130012  37.4984997  43.9929988  75.9183849  38.0164723  43.4167959
  76.8290012  36.2514997  45.2149988  76.4940012  35.3714997  45.3869988
  77.0510012  36.5964997  46.0799988  76.8131783  36.1777500  45.3554208
  94.3770012  37.0604997  48.1959988  94.3560012  37.2454997  49.1349988
  95.0680012  37.6294997  47.8549988  94.4674618  37.1626606  48.2783864
  93.9410012  36.6284997  51.1179988  93.4530012  35.8924997  50.7469988
  94.4900012  36.2344997  51.7959988  93.9484872  36.4746249  51.1589160
  92.3910012  32.4174997  55.7559988  91.5250012  32.3124997  56.1499988
  92.7680012  33.1764997  56.2019988  92.3233308  32.5056900  55.8702393
  93.6920012  30.6744997  41.2699988  94.5420012  31.0954997  41.3969988
  93.6980012  29.9344997  41.8769988  93.8091372  30.6320803  41.3694344
  94.0870012  28.7274997  43.0939988  93.3600012  28.2484997  43.4909988
  94.6680012  28.9334997  43.8259988  94.0659375  28.6897090  43.2474129
  93.8460012  31.5124997  48.0409988  94.6790012  31.1344997  47.7609988
  93.9580012  32.4554997  47.9219988  93.9752647  31.5882218  47.9865487
  92.3320012  34.3904997  50.3479988  91.6850012  34.7154997  50.9739988
  91.8150012  33.9504997  49.6739988  92.1734029  34.3755004  50.3425827
  94.3550012  28.6284997  39.4849988  93.8330012  28.9854997  38.7659988
  94.3220012  29.3034997  40.1629988  94.2791634  28.7685413  39.4783145
  92.7040012  25.8684997  38.0359988  92.8000012  26.5354997  37.3549988
  92.5640012  25.0524997  37.5539988  92.6982135  25.8494500  37.8778491
  91.8730012  27.2484997  43.6569988  91.7230012  26.3034997  43.6359988
  91.5200012  27.5294997  44.4999988  91.8046625  27.1570441  43.7682346
  76.9090012  29.3264997  47.6669988  77.0930012  29.2444997  46.7309988
  77.7580012  29.2024997  48.0909988  77.0490139  29.2985003  47.5961455
  92.7300012  29.2184997  53.2949988  93.3130012  28.4844997  53.4869988
  93.2940012  29.9904997  53.3419988  92.8859769  29.2224227  53.3276159
  94.2260012  27.1214997  53.9799988  93.3630012  26.7424997  53.8139988
  94.8310012  26.3824997  53.9059988  94.1895979  26.9698023  53.9472817
  91.9510012  23.2764997  37.1529988  92.5620012  22.9054997  37.7899988
  91.1150012  22.8554997  37.3489988  91.9215032  23.1687554  37.2667035
  91.5840012  24.8314997  42.1189988  91.8640012  23.9244997  42.2429988
  92.3430012  25.2654997  41.7299988  91.7249277  24.7660942  42.0833682
  92.1960012  25.4124997  47.5549988  93.1290012  25.6244997  47.5209988
  91.9610012  25.5144997  48.4769988  92.2918036  25.4552769  47.6749976
  92.2250012  26.1494997  50.3309988  91.3820012  26.4174997  50.6969988
  92.6670012  26.9714997  50.1199988  92.1694158  26.2973291  50.3525491
  76.5060012  24.5974997  53.8079988  77.4260012  24.4754997  54.0439988
  76.0570012  23.8474997  54.1969988  76.5711580  24.4793727  53.8929006
  94.5080012  20.1294997  55.6839988  94.8580012  19.4754997  55.0789988
  94.6550012  20.9664997  55.2449988  94.5758419  20.1531591  55.5417118
  92.1970012  22.0944997  42.1669988  92.3800012  21.6454997  42.9929988
  91.5980012  21.5094997  41.7039988  92.1410202  21.9539975  42.2173275
  77.7270012  22.9094997  46.6989988  78.1730012  22.1174997  47.0009988
  78.1940012  23.6254997  47.1299988  77.8510172  22.8980624  46.7984820
  76.0310012  25.9084997  47.7679988  76.5230012  25.6874997  46.9769988
  76.3940012  26.7494997  48.0489988  76.1473126  25.9918357  47.6977531
  94.0280012  22.2384997  54.0339988  93.1100012  22.5094997  53.9979988
  94.1510012  21.7034997  53.2489988  93.9191066  22.2032892  53.9230487
  94.0640012  22.1614997  38.6949988  94.4760012  21.4404997  38.2199988
  94.7460012  22.8314997  38.7539988  94.2125885  22.1532368  38.6378915
  76.3450012  22.1664997  41.8219988  75.4200012  22.3754997  41.6929988
  76.7990012  22.6504997  41.1329988  76.2797368  22.2605993  41.7111226
  91.1160012  37.1504997  43.7679988  91.7680012  36.8034997  43.1599988
  91.6260012  37.6394997  44.4139988  91.2742637  37.1690597  43.7720236
  76.3090012  20.9044997  50.1669988  75.6440012  20.6584997  50.8099988
  75.8660012  21.5264997  49.5889988  76.1580956  20.9548632  50.1769352
  78.5010012  34.0794997  54.3109988  77.6800012  34.2544997  53.8509988
  78.2480012  34.0064997  55.2319988  78.3546164  34.0935622  54.3724923
  81.4550012  35.0544997  50.5699988  81.0300012  35.8634997  50.2869988
  82.3590012  35.1394997  50.2679988  81.5190271  35.1768469  50.4903776
  85.7660012  36.4534997  53.5289988  85.9510012  36.1194997  54.4069988
  86.6120012  36.7624997  53.2069988  85.9057539  36.4496047  53.6055605
  88.1110012  37.7394997  52.7729988  88.7880012  37.1064997  52.5329988
  88.4330012  38.1404997  53.5799988  88.2471637  37.7071154  52.8492793
  93.0280012  20.3284997  51.8529988  92.2160012  20.6534997  51.4649988
  93.2610012  19.5684997  51.3199988  92.9483423  20.2702436  51.7278253
  78.8570012  38.3104997  50.6169988  78.1360012  38.7504997  50.1659988
  78.4910012  38.0594997  51.4659988  78.7089804  38.3367698  50.6699840
  81.3240012  37.9104997  49.6469988  80.4590012  37.9824997  50.0509988
  81.2690012  38.4574997  48.8629988  81.1982085  37.9942685  49.5963362
  86.0340012  37.7984997  48.8219988  85.5780012  38.3274997  48.1679988
  86.1970012  38.4014997  49.5479988  85.9935585  37.9524468  48.8305062
  88.3620012  36.6764997  49.7669988  87.4570012  36.8414997  49.5019988
  88.7910012  37.5294997  49.7019988  88.2960799  36.8144483  49.7219182
  90.9660012  38.2464997  50.0619988  90.7840012  39.1624997  49.8519988
  91.1430012  37.8364997  49.2159988  90.9650210  38.3164822  49.9187885
  78.2710012  36.9334997  47.5269988  78.2530012  36.5084997  48.3849988
  79.0760012  36.6154997  47.1189988  78.3773875  36.8323812  47.5891655
  80.4130012  35.6434997  46.1819988  80.1940012  34.7274997  46.3519988
  81.2370012  35.7834997  46.6479988  80.4944420  35.5370520  46.2682774
  82.9500012  36.1134997  47.0309988  83.1630012  35.2254997  46.7439988
  83.0140012  36.0794997  47.9849988  82.9878232  35.9873102  47.1207397
  86.4580012  21.7774997  46.1749988  85.7840012  21.1484997  46.4309988
  87.0220012  21.2934997  45.5719988  86.4419230  21.6258744  46.1285340
  91.6010012  19.8854997  46.2879988  92.2050012  20.4324997  45.7859988
  90.7310012  20.2044997  46.0479988  91.5661241  20.0035806  46.1867654
  93.3280012  21.0234997  44.6209988  93.9400012  20.5094997  44.0949988
  93.7100012  21.9014997  44.6449988  93.4634540  21.0717140  44.5521830
  78.7850012  20.4114997  43.9969988  78.0080012  20.1774997  43.4899988
  79.3150012  19.6144997  44.0059988  78.7502330  20.2716988  43.9287742
  77.6210012  20.2094997  39.8009988  78.0600012  20.8204997  39.2089988
  76.9880012  20.7474997  40.2749988  77.5954514  20.3659257  39.7840930
  83.3640012  20.3384997  43.8109988  84.2390012  20.7264997  43.7809988
  83.2280012  20.1234997  44.7329988  83.4653695  20.3625184  43.9316440
  88.9210012  20.3684997  45.4599988  88.9970012  20.4634997  44.5099988
  88.6460012  19.4604997  45.5889988  88.8942321  20.2587867  45.3475079
  90.2740012  20.3944997  41.1519988  89.5720012  21.0094997  40.9429988
  89.8300012  19.5564997  41.2829988  90.1176330  20.3655783  41.1410328
  77.5220012  36.1574997  40.6989988  76.8370012  36.1194997  40.0309988
  77.5260012  37.0704997  40.9869988  77.4288193  36.2757016  40.6465284
  79.4820012  22.1254997  38.2429988  79.9740012  21.4954997  37.7159988
  80.1060012  22.4214997  38.9069988  79.6335446  22.0793199  38.2605980
  84.5080012  22.4184997  40.6999988  84.6860012  21.7724997  41.3829988
  84.4550012  23.2524997  41.1679988  84.5251829  22.4427985  40.8565940
  86.3870012  37.3674997  39.0959988  87.2530012  37.7334997  38.9179988
  86.1400012  36.9274997  38.2819988  86.4722392  37.3581756  38.9616289
  93.0960012  36.9304997  41.7749988  92.9010012  36.1824997  41.2099988
  93.0570012  37.6884997  41.1919988  93.0640380  36.9306099  41.6188384
  78.7430012  20.9254997  53.5149988  78.3770012  20.1604997  53.9579988
  79.6560012  20.9544997  53.8019988  78.8162790  20.8247224  53.6144070
  80.7160012  20.2764997  55.0509988  81.6140012  20.0024997  54.8659988
  80.3290012  19.5334997  55.5149988  80.7866612  20.1385914  55.0883643
  79.3400012  37.0774997  37.7239988  79.0730012  37.3644997  38.5969988
  80.1120012  36.5314997  37.8759988  79.4077488  37.0430294  37.8641050
  89.1370012  19.6084997  55.2329988  89.2140012  19.1824997  56.0869988
  90.0310012  19.6224997  54.8899988  89.2683428  19.5520879  55.3035310
  92.3130012  35.6814997  53.9249988  91.5310012  35.4954997  53.4059988
  92.2410012  36.6104997  54.1429988  92.1961777  35.7816492  53.8834048
 106.7190012  29.5674997  43.9559988 106.8080012  30.5114997  43.8239988
 106.0810012  29.2924997  43.2979988 106.6449081  29.6594830  43.8489614
 105.6520012  28.8224997  47.3749988 105.6140012  28.1764997  48.0799988
 105.3300012  28.3564997  46.6039988 105.6032333  28.6709408  47.3672978
  98.0210012  28.4374997  48.9679988  98.0620012  27.8114997  49.6909988
  98.7240012  29.0614997  49.1499988  98.1216363  28.4361196  49.0916044
 109.3580012  31.7614997  45.6759988 108.9180012  31.0414997  46.1269988
 109.3450012  32.4824997  46.3059988 109.2960226  31.7603731  45.8228494
  98.9440012  32.8874997  47.5029988  98.5750012  32.0854997  47.1329988
  99.8850012  32.7184997  47.5489988  99.0207289  32.7550153  47.4586316
  95.5540012  26.5474997  42.8959988  95.1070012  27.3934997  42.8769988
  94.9930012  25.9674997  42.3799988  95.4169900  26.5849916  42.8236801
  96.2650012  28.7094997  45.0219988  96.4780012  27.9394997  45.5489988
  97.0030012  28.7984997  44.4179988  96.3938496  28.6161394  45.0125300
 106.4700012  36.8664997  45.8889988 107.0900012  36.1894997  45.6149988
 106.2620012  36.6484997  46.7969988 106.5266904  36.7443870  45.9743365
 104.0420012  31.2554997  47.7809988 104.3460012  30.5694997  47.1859988
 104.7630012  31.3734997  48.3989988 104.1810671  31.1776304  47.7831816
 112.7050012  22.8564997  48.6419988 112.7540012  23.4664997  49.3779988
 113.1300012  23.3174997  47.9189988 112.7691824  23.0023741  48.6450205
 107.1830012  25.6494997  48.1089988 107.3250012  24.7034997  48.1289988
 107.0760012  25.8564997  47.1799988 107.1879864  25.5479534  47.9862339
 100.3370012  23.7504997  45.3809988 100.3810012  24.6104997  44.9629988
  99.8800012  23.1984997  44.7469988 100.2812185  23.7935799  45.2380299
 108.0600012  23.8814997  43.7819988 108.7060012  23.5524997  44.4069988
 108.5700012  24.3994997  43.1589988 108.2174264  23.9064611  43.7833862
  96.9580012  26.1474997  46.1429988  97.6110012  25.5974997  46.5749988
  96.9820012  25.8734997  45.2259988  97.0506683  26.0351466  46.0782123
 102.1140012  27.6974997  45.3579988 102.7300012  27.1714997  45.8679988
 101.5280012  27.0574997  44.9549988 102.1190810  27.5389208  45.3733173
 113.0960012  24.3344997  50.8779988 112.4080012  24.9924997  50.7819988
 113.1120012  24.1374997  51.8139988 113.0038525  24.3980462  50.9914808
  99.1480012  22.6684997  49.4549988  98.9290012  23.1984997  48.6889988
  98.4800012  22.8954997  50.1019988  99.0277600  22.7716906  49.4376379
 106.5170012  32.1684997  42.9989988 106.2210012  31.8464997  42.1479988
 106.1920012  33.0684997  43.0399988 106.4326371  32.2460215  42.8881801
 101.7170012  30.3444997  49.7419988 100.9770012  30.9424997  49.8459988
 102.4310012  30.8984997  49.4269988 101.7122237  30.5012831  49.7136465
 109.8240012  23.1724997  45.7619988 109.6080012  22.4064997  46.2949988
 110.4790012  23.6444997  46.2749988 109.8830632  23.1315889  45.9042861
  98.7410012  24.5604997  47.4069988  99.3550012  25.1934997  47.7809988
  99.2530012  24.0884997  46.7509988  98.8942296  24.5832370  47.3694252
 100.1240012  32.3084997  50.5299988 100.1190012  33.1884997  50.1519988
  99.2710012  32.2254997  50.9549988 100.0079464  32.4176117  50.5357907
  96.2450012  31.9794997  41.3119988  95.9730012  32.2084997  40.4229988
  96.2910012  32.8174997  41.7719988  96.2140094  32.1241213  41.2525697
 109.8700012  33.6014997  48.0239988 108.9290012  33.6594997  48.1859988
 110.1470012  34.5074997  47.8869988 109.7784679  33.7319443  48.0276815
 110.1710012  21.8874997  49.4419988 109.4350012  22.4984997  49.4039988
 110.8540012  22.3024997  48.9149988 110.1626541  22.0271374  49.3655832
 103.1740012  19.9744997  46.9079988 103.0570012  19.0254997  46.8529988
 102.3190012  20.3064997  47.1809988 103.0423733  19.8895409  46.9373897
 108.1220012  35.3824997  44.6499988 108.5480012  34.6754997  44.1649988
 108.4390012  36.1834997  44.2329988 108.2231019  35.3940994  44.5273130
 109.2820012  33.2834997  43.1579988 109.0240012  32.5934997  42.5469988
 109.3530012  32.8404997  44.0039988 109.2562856  33.1292124  43.1886885
 110.9680012  31.8494997  51.6359988 111.1080012  31.2584997  50.8959988
 111.1350012  32.7224997  51.2789988 111.0096778  31.8866426  51.4866965
 105.4410012  28.8114997  41.4079988 104.7290012  29.3464997  41.0559988
 106.1320012  28.8674997  40.7479988 105.4370132  28.8922543  41.2706289
 105.4940012  27.2694997  38.4469988 106.1950012  27.2914997  39.0979988
 105.7970012  26.6414997  37.7909988 105.6307830  27.1876566  38.4473711
 112.8100012  28.1894997  49.7019988 112.1570012  28.8844997  49.7909988
 113.2750012  28.3994997  48.8919988 112.7835390  28.3129425  49.6046883
 108.8460012  29.0214997  42.3599988 108.1140012  29.2494997  42.9329988
 109.2940012  28.3074997  42.8149988 108.8063095  28.9562571  42.4999119
 108.7440012  27.1954997  51.4269988 108.8240012  27.9584997  51.9989988
 108.1420012  27.4744997  50.7369988 108.6735756  27.3377134  51.4120589
 100.4920012  29.6514997  44.2419988 100.1610012  29.2814997  43.4239988
 101.0800012  28.9814997  44.5889988 100.5261873  29.5101156  44.1768102
 101.8580012  33.0794997  46.9239988 101.7640012  32.5014997  46.1669988
 102.5880012  32.7084997  47.4199988 101.9437981  32.9502390  46.8874165
 100.8580012  28.4204997  47.8759988 101.4240012  28.5414997  47.1129988
 101.1770012  29.0574997  48.5149988 100.9785786  28.5231884  47.8580040
 107.1670012  33.9234997  48.6099988 106.9270012  34.5854997  49.2579988
 106.9690012  33.0894997  49.0349988 107.1073808  33.9013134  48.7561524
 101.7380012  32.8194997  52.5929988 101.4270012  33.6014997  53.0479988
 101.0880012  32.6664997  51.9069988 101.6075558  32.9059105  52.5625871
 107.7170012  28.1834997  40.0449988 108.2970012  28.3334997  40.7919988
 108.1310012  28.6544997  39.3219988 107.8522830  28.2676841  40.0494134
  98.6580012  29.0174997  51.8219988  98.7290012  29.6684997  52.5199988
  97.7680012  29.1204997  51.4869988  98.5473117  29.1205936  51.8722700
 105.4440012  34.9204997  43.4799988 105.9180012  35.2154997  44.2579988
 104.8810012  35.6584997  43.2469988 105.4327653  35.0606932  43.5550136
  99.9780012  34.8914997  53.3559988  99.9850012  34.7554997  52.4089988
  99.0620012  34.7734997  53.6079988  99.8551714  34.8569430  53.2604666
 111.4160012  19.9334997  39.8579988 110.5160012  20.0724997  40.1529988
 111.6680012  20.7644997  39.4559988 111.3268702  20.0649074  39.8440205
  99.4820012  28.7214997  41.8319988  99.1900012  29.4894997  41.3409988
  98.8080012  28.0614997  41.6689988  99.3509081  28.7374406  41.7427340
 112.6050012  34.2994997  38.2339988 112.6790012  35.2384997  38.4049988
 113.5110012  33.9944997  38.1779988 112.7375100  34.3866722  38.2498119
  95.5750012  31.0844997  50.6469988  95.0740012  31.0564997  49.8319988
  95.5800012  30.1784997  50.9559988  95.5071526  30.9582278  50.5772872
  95.3250012  33.8644997  47.5309988  96.2710012  33.7204997  47.5119988
  95.2130012  34.6484997  48.0679988  95.4392727  33.9508046  47.6010072
 113.5230012  34.5304997  53.2129988 113.4740012  33.5754997  53.1759988
 112.6960012  34.7984997  53.6139988 113.4044940  34.4358998  53.2621375
 104.5020012  34.1044997  52.0889988 104.5890012  34.9304997  52.5639988
 103.6380012  33.7744997  52.3379988 104.3971964  34.1729878  52.1876549
 104.9160012  37.8764997  41.8949988 104.8410012  37.7554997  40.9489988
 104.9490012  38.8264997  42.0139988 104.9101848  37.9882500  41.7814834
  98.5690012  36.6654997  43.6759988  98.7220012  36.3174997  44.5549988
  97.7190012  36.3094997  43.4209988  98.4748962  36.5696650  43.7618340
 108.0180012  37.0304997  38.8969988 108.3930012  36.2864997  38.4269988
 108.0220012  36.7604997  39.8159988 108.0698915  36.8921486  38.9567824
 107.6870012  36.9564997  41.6469988 106.7510012  37.0564997  41.8249988
 107.9670012  36.2474997  42.2249988 107.5968255  36.8742711  41.7495391
 110.6750012  26.0234997  53.6929988 110.2680012  26.5044997  52.9719988
 110.7160012  25.1184997  53.3849988 110.6248437  25.9669374  53.5526683
  97.8240012  32.4074997  51.6899988  98.0400012  32.0464997  52.5489988
  96.9690012  32.0334997  51.4799988  97.7379292  32.3074111  51.7793386
 100.4430012  20.8774997  47.6849988  99.5810012  20.7904997  47.2779988
 100.4200012  21.7334997  48.1129988 100.3220330  20.9812765  47.6871863
 105.1060012  20.5994997  51.0599988 105.5260012  20.1844997  51.8129988
 104.1730012  20.4214997  51.1769988 105.0373644  20.5185900  51.1789539
 108.4320012  24.3554997  51.9129988 107.9180012  24.2294997  52.7109988
 108.2770012  25.2674997  51.6689988 108.3406852  24.4616132  51.9892158
 109.1950012  29.2164997  37.6749988 109.2370012  28.9934997  36.7449988
 110.0440012  29.6154997  37.8649988 109.3155396  29.2399155  37.5733627
 104.7670012  23.0924997  38.3449988 104.5140012  23.1114997  39.2679988
 104.5110012  22.2204997  38.0439988 104.6977790  22.9772437  38.4306263
 100.5340012  25.8434997  48.7799988  99.8920012  25.8024997  49.4889988
 100.5710012  26.7694997  48.5429988 100.4511324  25.9631559  48.8449824
 100.5310012  26.0644997  43.6919988  99.6380012  25.7234997  43.6339988
 100.9810012  25.6874997  42.9369988 100.4697305  25.9668484  43.5819177
 106.0660012  26.4804997  42.5089988 105.6570012  27.2954997  42.2179988
 106.7870012  26.3404997  41.8949988 106.1074537  26.5732018  42.3861342
 105.1680012  26.6554997  53.9969988 104.6060012  25.9514997  54.3179988
 105.9950012  26.5354997  54.4649988 105.2027095  26.5427883  54.1042330
 107.0710012  25.9264997  45.3229988 106.8760012  26.5314997  44.6079988
 107.2520012  25.0924997  44.8889988 107.0687614  25.8966300  45.1664405
  98.2840012  26.1634997  50.6469988  98.2460012  26.5634997  51.5159988
  97.7930012  25.3464997  50.7379988  98.2124684  26.1078069  50.7781059
 101.6500012  23.5374997  37.4459988 101.2190012  23.0924997  38.1759988
 100.9320012  23.9094997  36.9339988 101.4939438  23.5268940  37.4766799
  94.8920012  23.2794997  44.4979988  95.5230012  23.2504997  45.2169988
  95.3410012  22.8544997  43.7679988  95.0390774  23.2180492  44.4976553
  96.1660012  24.0254997  39.9219988  96.6400012  24.6164997  39.3369988
  95.4490012  24.5564997  40.2689988  96.1339341  24.1780867  39.8888836
 106.3350012  27.5644997  49.9949988 106.6580012  26.9334997  49.3519988
 105.8950012  27.0294997  50.6549988 106.3196895  27.4058441  49.9962850
 103.1120012  23.4914997  44.7789988 102.2010012  23.5484997  45.0669988
 103.6180012  23.4314997  45.5889988 103.0555413  23.4911985  44.9280622
  97.9410012  25.1204997  43.6049988  97.0510012  25.2204997  43.2649988
  98.2370012  24.2784997  43.2589988  97.8592823  25.0203545  43.5117213
 101.5940012  25.1204997  41.2619988 102.5250012  25.2494997  41.4399988
 101.3790012  25.7904997  40.6119988 101.6924247  25.2286565  41.1985747
 107.5170012  22.7264997  48.0429988 106.8410012  22.8574997  48.7069988
 107.0320012  22.5714997  47.2329988 107.3587145  22.7234905  48.0244517
 100.2680012  26.3154997  38.8289988  99.7250012  25.9354997  38.1369988
 101.1010012  26.5094997  38.3999988 100.3064399  26.2898124  38.6764526
 110.8050012  38.3984997  54.3199988 111.0050012  38.8224997  53.4849988
 111.4600012  38.7414997  54.9269988 110.9210051  38.5029648  54.2877836
  98.4030012  30.8724997  53.9279988  99.1350012  31.1264997  54.4889988
  97.6230012  31.0764997  54.4429988  98.3978232  30.9349177  54.0745760
 104.4320012  26.2794997  46.6659988 104.9970012  25.7324997  46.1189988
 104.2850012  25.7574997  47.4539988 104.4892918  26.1342024  46.6978454
  99.4340012  22.4154997  43.0839988  99.1170012  21.5134997  43.0489988
 100.2160012  22.4174997  42.5309988  99.4962284  22.2921628  43.0044783
 103.0590012  24.6674997  49.0799988 102.2230012  25.1214997  49.1899988
 103.5830012  24.9434997  49.8319988 103.0154414  24.7669376  49.1967136
 103.6030012  30.8804997  40.7639988 102.8580012  30.3734997  40.4419988
 103.4690012  30.9294997  41.7109988 103.4828776  30.8176940  40.8478647
 110.7530012  30.0134997  49.5509988 111.3950012  30.4704997  49.0069988
 109.9230012  30.1264997  49.0879988 110.7285963  30.0912704  49.4140177
 107.5010012  23.6944997  38.9639988 106.5620012  23.8064997  38.8119988
 107.7980012  24.5514997  39.2699988 107.4127666  23.8256443  38.9845768
 105.1220012  31.0644997  52.0009988 104.7770012  30.6834997  52.8079988
 104.9220012  31.9984997  52.0729988 105.0478061  31.1385228  52.1210961
 108.2190012  25.5614997  40.6239988 109.1110012  25.4244997  40.9429988
 108.2760012  26.3524997  40.0879988 108.3486285  25.6496660  40.5951691
  98.7280012  30.1754997  46.5339988  99.4730012  30.1734997  45.9329988
  98.8060012  29.3524997  47.0159988  98.8405518  30.0639315  46.5168929
 105.7290012  32.3394997  39.7899988 105.4330012  33.1654997  40.1709988
 105.0260012  31.7194997  39.9859988 105.5934914  32.3688199  39.8686443
  95.7360012  28.6364997  51.8489988  95.9590012  28.2184997  52.6809988
  95.1340012  28.0234997  51.4259988  95.6851759  28.4964668  51.9057022
 102.7520012  28.1534997  54.0619988 102.4560012  27.9874997  53.1669988
 103.6840012  27.9334997  54.0509988 102.8374166  28.1010640  53.9380536
 107.3730012  33.5264997  51.9519988 106.4720012  33.7094997  51.6839988
 107.4070012  33.7854997  52.8729988 107.2543041  33.5865512  52.0398197
 113.1040012  25.7714997  40.3189988 112.5500012  25.3754997  39.6469988
 113.2040012  26.6814997  40.0409988 113.0417059  25.8403586  40.1894401
 113.0670012  31.5714997  53.1559988 112.2160012  31.8094997  52.7889988
 113.6580012  31.5544997  52.4029988 113.0302487  31.6018258  53.0038893
 111.3990012  34.5574997  40.7839988 111.0260012  33.7314997  41.0929988
 111.6770012  34.3744997  39.8869988 111.3855630  34.4197303  40.7049626
 108.5600012  29.3654997  47.8049988 107.6310012  29.1334997  47.7779988
 109.0110012  28.5884997  47.4749988 108.4939216  29.2287238  47.7566917
 101.1030012  33.6934997  43.9379988 101.6300012  34.4664997  43.7379988
 100.2230012  33.9184997  43.6369988 101.0561773  33.8298005  43.8699010
  96.8580012  28.5554997  38.5249988  97.4740012  29.1824997  38.9049988
  95.9960012  28.8714997  38.7969988  96.8257698  28.6839430  38.6137183
 102.5300012  31.3564997  43.5149988 102.2890012  32.2814997  43.5559988
 101.7890012  30.8974997  43.9109988 102.3968409  31.4211421  43.5741377
 103.0450012  35.5054997  49.8299988 103.4070012  36.3604997  49.5959988
 103.5760012  35.2134997  50.5699988 103.1664473  35.5831060  49.8980855
 101.2130012  36.3784997  43.0599988 100.2630012  36.4834997  43.1109988
 101.5650012  37.1984997  43.4049988 101.1304203  36.5038314  43.1136650
 106.5890012  31.6044997  49.5299988 106.1630012  31.3774997  50.3569988
 107.1690012  30.8664997  49.3479988 106.6091868  31.4735299  49.6185830
 108.7920012  32.5334997  38.6039988 109.1450012  32.1534997  39.4089988
 107.8430012  32.4404997  38.6909988 108.7120441  32.4689596  38.7258559
 109.2470012  36.1564997  51.9999988 108.6460012  35.6014997  51.5039988
 109.5290012  36.8234997  51.3739988 109.2028519  36.1706841  51.8474952
 113.2950012  37.0134997  38.8049988 114.0390012  37.5994997  38.6649988
 112.6010012  37.5814997  39.1389988 113.3030292  37.1705582  38.8309961
  97.3700012  23.3894997  51.4069988  96.4770012  23.7284997  51.3389988
  97.2710012  22.5344997  51.8249988  97.2344164  23.3202588  51.4542235
 109.6580012  31.2064997  40.8309988 109.3800012  30.4784997  41.3869988
 110.5850012  31.3254997  41.0359988 109.7453124  31.1228802  40.9348845
  97.0210012  35.1944997  49.8419988  97.2380012  34.2624997  49.8109988
  97.2670012  35.4684997  50.7249988  97.0839549  35.1040636  49.9571763
 102.8830012  33.6454997  37.0509988 103.1220012  32.8974997  36.5039988
 102.6140012  33.2574997  37.8839988 102.8793675  33.4906638  37.0886865
 101.8200012  33.2154997  39.5079988 101.9660012  32.6954997  40.2979988
 101.8170012  34.1224997  39.8139988 101.8395989  33.2668853  39.6576088
  98.2730012  30.4684997  40.0179988  97.5870012  30.8204997  40.5849988
  98.7950012  31.2314997  39.7709988  98.2496852  30.6198578  40.0622118
 106.1040012  23.1304997  50.2969988 106.8030012  23.2044997  50.9469988
 105.7230012  22.2664997  50.4509988 106.1481767  23.0237624  50.4068322
 106.8890012  22.7824997  41.3939988 107.1090012  23.2544997  40.5909988
 107.4470012  23.1774997  42.0639988 106.9944968  22.9004285  41.3747331
 104.5570012  34.9134997  40.2569988 103.7410012  35.4104997  40.3089988
 105.0870012  35.3884997  39.6169988 104.5169161  35.0457722  40.1775956
 104.0890012  24.5104997  42.2289988 104.9010012  25.0154997  42.2749988
 103.8440012  24.3654997  43.1429988 104.1670520  24.5600375  42.3588517
 104.6240012  25.4964997  51.4139988 104.7430012  26.0704997  52.1709988
 105.2800012  24.8084997  51.5279988 104.7289757  25.4821079  51.5330825
 104.9720012  21.5914997  43.1669988 104.6260012  22.2094997  43.8119988
 105.6310012  22.0924997  42.6859988 105.0137826  21.7435802  43.1900971
 101.8960012  35.9574997  40.2389988 102.0560012  36.7564997  39.7379988
 101.6980012  36.2634997  41.1239988 101.8911649  36.1084469  40.2899815
 100.6300012  22.6544997  39.8539988 100.5470012  23.5434997  40.2009988
 101.5200012  22.3894997  40.0859988 100.7389469  22.7401430  39.9327626
 110.8290012  23.4034997  52.2489988 109.9120012  23.6664997  52.1609988
 111.1640012  23.4004997  51.3519988 110.7489900  23.4390224  52.1157919
 109.4310012  27.1544997  46.3439988 108.6330012  26.7394997  46.0159988
 109.8760012  26.4634997  46.8349988 109.3819885  27.0043543  46.3654889
  98.8890012  33.0824997  38.9149988  99.4810012  33.7814997  39.1909988
  99.3480012  32.6494997  38.1949988  99.0321142  33.1197049  38.8554830
  97.2050012  25.7464997  38.0309988  97.1600012  26.6854997  38.2089988
  96.3170012  25.5104997  37.7609988  97.0788574  25.8431892  38.0188912
 110.5170012  36.4104997  47.9669988 110.3620012  37.0884997  47.3099988
 111.4500012  36.4824997  48.1699988 110.6218500  36.5130170  47.9045119
  98.0130012  20.5284997  46.7039988  97.7840012  20.5874997  45.7759988
  97.5700012  19.7364997  47.0099988  97.9218530  20.4295753  46.6184786
  96.9430012  34.4684997  42.8639988  96.1110012  34.9414997  42.8919988
  97.4890012  34.9784997  42.2659988  96.9029739  34.6021871  42.7869716
  96.2310012  37.0814997  54.1939988  96.7720012  36.8644997  54.9539988
  95.7500012  36.2754997  54.0049988  96.2399345  36.9429514  54.2723076
 100.8290012  36.0004997  55.8149988 101.5960012  35.5414997  56.1559988
 100.8070012  35.7744997  54.8849988 100.9311434  35.9070409  55.7360043
 104.9210012  35.5084997  37.1899988 104.2770012  34.8774997  37.5109988
 105.6830012  34.9774997  36.9579988 104.9358077  35.3502920  37.2026011
 107.4060012  34.3804997  54.5439988 107.0550012  33.5244997  54.7869988
 108.1320012  34.5234997  55.1509988 107.4560769  34.2825636  54.6593619
 109.5250012  35.3254997  37.4239988 109.8080012  34.5314997  37.8759988
 110.2650012  35.5584997  36.8629988 109.6637486  35.2482803  37.4100698
  96.1380012  30.8914997  55.1489988  96.2820012  29.9894997  54.8619988
  95.3660012  31.1774997  54.6609988  96.0533322  30.8068261  55.0437881
 100.4800012  31.2354997  37.2809988 100.5440012  30.4414997  37.8119988
 101.1330012  31.1164997  36.5909988 100.5770241  31.1107148  37.2604317
 102.7940012  30.8614997  54.5809988 102.4650012  31.1324997  53.7239988
 102.9460012  29.9204997  54.4939988 102.7694809  30.7713862  54.4518244
 105.8320012  32.2824997  37.0169988 105.5630012  32.4624997  37.9179988
 105.6260012  31.3564997  36.8859988 105.7673825  32.1820152  37.1225214
 108.5280012  30.7774997  51.9649988 109.2740012  31.3654997  51.8449988
 107.7710012  31.3594997  52.0279988 108.5277554  30.9367011  51.9570907
  96.9710012  28.0914997  54.5689988  97.3790012  27.2344997  54.4479988
  96.7110012  28.1064997  55.4899988  96.9917568  27.9760807  54.6769588
 101.6290012  29.2074997  39.5869988 101.1690012  28.7234997  40.2729988
 101.8840012  28.5394997  38.9509988 101.6004902  29.0508731  39.5949334
 100.9180012  27.1004997  51.9429988 100.3000012  27.7754997  52.2229988
 101.2620012  27.4214997  51.1099988 100.8799615  27.2362721  51.8686581
 102.7000012  27.4504997  37.8489988 102.5200012  27.2964997  36.9219988
 103.6500012  27.5584997  37.8939988 102.8037776  27.4440175  37.7281843
 105.9380012  29.5724997  55.2199988 106.8910012  29.6554997  55.1929988
 105.7770012  28.8604997  55.8399988 106.0466426  29.4876746  55.3000579
 112.0900012  29.8054997  37.2949988 111.8160012  29.3804997  36.4819988
 112.1290012  30.7364997  37.0779988 112.0577699  29.8732484  37.1543610
 101.2570012  24.4554997  53.0249988 101.4070012  23.7264997  52.4229988
 101.2600012  25.2324997  52.4659988 101.2779302  24.4607851  52.8670692
 101.6700012  22.8254997  50.5179988 102.2060012  23.2764997  49.8659988
 100.8180012  22.7174997  50.0949988 101.6282178  22.8726390  50.3715756
 103.2520012  28.2644997  50.7569988 104.0020012  28.1084997  50.1839988
 102.9130012  29.1164997  50.4819988 103.3088921  28.3582968  50.6413561
 107.6670012  26.0794997  55.7859988 107.8600012  25.1484997  55.6739988
 108.5250012  26.5044997  55.7759988 107.8093020  26.0096389  55.7693361
 108.9840012  28.8684997  53.8629988 108.7030012  29.5774997  53.2859988
 109.9270012  28.7954997  53.7119988 109.0729027  28.9557646  53.7635551
  99.7360012  25.6534997  54.9369988  98.9690012  25.1214997  54.7269988
 100.4150012  25.3434997  54.3369988  99.7227022  25.5387506  54.8271648
 102.4760012  20.2814997  50.9489988 102.3770012  21.2284997  50.8439988
 101.7330012  19.9094997  50.4739988 102.3620563  20.3605902  50.8704560
 103.7400012  24.6034997  54.5129988 103.5040012  24.3834997  55.4149988
 102.9560012  24.3964997  54.0029988 103.6018628  24.5454760  54.5673932
 106.4550012  23.7304997  53.5889988 105.5080012  23.7624997  53.7209988
 106.7680012  23.1054997  54.2419988 106.3675475  23.6503207  53.6954455
 108.0890012  22.3644997  55.5939988 107.9930012  21.4124997  55.5879988
 107.7680012  22.6334997  56.4539988 108.0324070  22.2704035  55.7095441
  97.9160012  23.5744997  54.6409988  98.1280012  22.8674997  54.0309988
  97.8050012  23.1364997  55.4849988  97.9299721  23.4187084  54.6716843
 102.6970012  19.5754997  53.6209988 103.4090012  18.9354997  53.6069988
 102.5960012  19.8424997  52.7069988 102.7807939  19.5239938  53.4955650
 103.0510012  21.2584997  55.6739988 102.9190012  20.7824997  54.8539988
 102.4520012  22.0024997  55.6189988 102.9519071  21.2939618  55.5542886
 102.5970012  38.1414997  38.8509988 103.5300012  38.2994997  38.9939988
 102.3330012  38.8164997  38.2259988 102.6889510  38.2543611  38.7860741
  96.1660012  32.7774997  38.3329988  97.0800012  32.8564997  38.6069988
  96.1730012  32.0904997  37.6669988  96.2921131  32.6953961  38.2804393
  94.8150012  38.1704997  43.4109988  94.1680012  37.7084997  42.8779988
  95.1690012  37.4984997  43.9929988  94.7743849  38.0164723  43.4167959
  95.6850012  36.2514997  45.2149988  95.3500012  35.3714997  45.3869988
  95.9070012  36.5964997  46.0799988  95.6691783  36.1777500  45.3554208
 113.2330012  37.0604997  48.1959988 113.2120012  37.2454997  49.1349988
 113.9240012  37.6294997  47.8549988 113.3234618  37.1626606  48.2783864
 112.7970012  36.6284997  51.1179988 112.3090012  35.8924997  50.7469988
 113.3460012  36.2344997  51.7959988 112.8044872  36.4746249  51.1589160
 111.2470012  32.4174997  55.7559988 110.3810012  32.3124997  56.1499988
 111.6240012  33.1764997  56.2019988 111.1793308  32.5056900  55.8702393
 112.5480012  30.6744997  41.2699988 113.3980012  31.0954997  41.3969988
 112.5540012  29.9344997  41.8769988 112.6651372  30.6320803  41.3694344
 112.9430012  28.7274997  43.0939988 112.2160012  28.2484997  43.4909988
 113.5240012  28.9334997  43.8259988 112.9219375  28.6897090  43.2474129
 112.7020012  31.5124997  48.0409988 113.5350012  31.1344997  47.7609988
 112.8140012  32.4554997  47.9219988 112.8312647  31.5882218  47.9865487
 111.1880012  34.3904997  50.3479988 110.5410012  34.7154997  50.9739988
 110.6710012  33.9504997  49.6739988 111.0294029  34.3755004  50.3425827
 113.2110012  28.6284997  39.4849988 112.6890012  28.9854997  38.7659988
 113.1780012  29.3034997  40.1629988 113.1351634  28.7685413  39.4783145
 111.5600012  25.8684997  38.0359988 111.6560012  26.5354997  37.3549988
 111.4200012  25.0524997  37.5539988 111.5542135  25.8494500  37.8778491
 110.7290012  27.2484997  43.6569988 110.5790012  26.3034997  43.6359988
 110.3760012  27.5294997  44.4999988 110.6606625  27.1570441  43.7682346
  95.7650012  29.3264997  47.6669988  95.9490012  29.2444997  46.7309988
  96.6140012  29.2024997  48.0909988  95.9050139  29.2985003  47.5961455
 111.5860012  29.2184997  53.2949988 112.1690012  28.4844997  53.4869988
 112.1500012  29.9904997  53.3419988 111.7419769  29.2224227  53.3276159
 113.0820012  27.1214997  53.9799988 112.2190012  26.7424997  53.8139988
 113.6870012  26.3824997  53.9059988 113.0455979  26.9698023  53.9472817
 110.8070012  23.2764997  37.1529988 111.4180012  22.9054997  37.7899988
 109.9710012  22.8554997  37.3489988 110.7775032  23.1687554  37.2667035
 110.4400012  24.8314997  42.1189988 110.7200012  23.9244997  42.2429988
 111.1990012  25.2654997  41.7299988 110.5809277  24.7660942  42.0833682
 111.0520012  25.4124997  47.5549988 111.9850012  25.6244997  47.5209988
 110.8170012  25.5144997  48.4769988 111.1478036  25.4552769  47.6749976
 111.0810012  26.1494997  50.3309988 110.2380012  26.4174997  50.6969988
 111.5230012  26.9714997  50.1199988 111.0254158  26.2973291  50.3525491
  95.3620012  24.5974997  53.8079988  96.2820012  24.4754997  54.0439988
  94.9130012  23.8474997  54.1969988  95.4271580  24.4793727  53.8929006
 113.3640012  20.1294997  55.6839988 113.7140012  19.4754997  55.0789988
 113.5110012  20.9664997  55.2449988 113.4318419  20.1531591  55.5417118
 111.0530012  22.0944997  42.1669988 111.2360012  21.6454997  42.9929988
 110.4540012  21.5094997  41.7039988 110.9970202  21.9539975  42.2173275
  96.5830012  22.9094997  46.6989988  97.0290012  22.1174997  47.0009988
  97.0500012  23.6254997  47.1299988  96.7070172  22.8980624  46.7984820
  94.8870012  25.9084997  47.7679988  95.3790012  25.6874997  46.9769988
  95.2500012  26.7494997  48.0489988  95.0033126  25.9918357  47.6977531
 112.8840012  22.2384997  54.0339988 111.9660012  22.5094997  53.9979988
 113.0070012  21.7034997  53.2489988 112.7751066  22.2032892  53.9230487
 112.9200012  22.1614997  38.6949988 113.3320012  21.4404997  38.2199988
 113.6020012  22.8314997  38.7539988 113.0685885  22.1532368  38.6378915
  95.2010012  22.1664997  41.8219988  94.2760012  22.3754997  41.6929988
  95.6550012  22.6504997  41.1329988  95.1357368  22.2605993  41.7111226
 109.9720012  37.1504997  43.7679988 110.6240012  36.8034997  43.1599988
 110.4820012  37.6394997  44.4139988 110.1302637  37.1690597  43.7720236
  95.1650012  20.9044997  50.1669988  94.5000012  20.6584997  50.8099988
  94.7220012  21.5264997  49.5889988  95.0140956  20.9548632  50.1769352
  97.3570012  34.0794997  54.3109988  96.5360012  34.2544997  53.8509988
  97.1040012  34.0064997  55.2319988  97.2106164  34.0935622  54.3724923
 100.3110012  35.0544997  50.5699988  99.8860012  35.8634997  50.2869988
 101.2150012  35.1394997  50.2679988 100.3750271  35.1768469  50.4903776
 104.6220012  36.4534997  53.5289988 104.8070012  36.1194997  54.4069988
 105.4680012  36.7624997  53.2069988 104.7617539  36.4496047  53.6055605
 106.9670012  37.7394997  52.7729988 107.6440012  37.1064997  52.5329988
 107.2890012  38.1404997  53.5799988 107.1031637  37.7071154  52.8492793
 111.8840012  20.3284997  51.8529988 111.0720012  20.6534997  51.4649988
 112.1170012  19.5684997  51.3199988 111.8043423  20.2702436  51.7278253
  97.7130012  38.3104997  50.6169988  96.9920012  38.7504997  50.1659988
  97.3470012  38.0594997  51.4659988  97.5649804  38.3367698  50.6699840
 100.1800012  37.9104997  49.6469988  99.3150012  37.9824997  50.0509988
 100.1250012  38.4574997  48.8629988 100.0542085  37.9942685  49.5963362
 104.8900012  37.7984997  48.8219988 104.4340012  38.3274997  48.1679988
 105.0530012  38.4014997  49.5479988 104.8495585  37.9524468  48.8305062
 107.2180012  36.6764997  49.7669988 106.3130012  36.8414997  49.5019988
 107.6470012  37.5294997  49.7019988 107.1520799  36.8144483  49.7219182
 109.8220012  38.2464997  50.0619988 109.6400012  39.1624997  49.8519988
 109.9990012  37.8364997  49.2159988 109.8210210  38.3164822  49.9187885
  97.1270012  36.9334997  47.5269988  97.1090012  36.5084997  48.3849988
  97.9320012  36.6154997  47.1189988  97.2333875  36.8323812  47.5891655
  99.2690012  35.6434997  46.1819988  99.0500012  34.7274997  46.3519988
 100.0930012  35.7834997  46.6479988  99.3504420  35.5370520  46.2682774
 101.8060012  36.1134997  47.0309988 102.0190012  35.2254997  46.7439988
 101.8700012  36.0794997  47.9849988 101.8438232  35.9873102  47.1207397
 105.3140012  21.7774997  46.1749988 104.6400012  21.1484997  46.4309988
 105.8780012  21.2934997  45.5719988 105.2979230  21.6258744  46.1285340
 110.4570012  19.8854997  46.2879988 111.0610012  20.4324997  45.7859988
 109.5870012  20.2044997  46.0479988 110.4221241  20.0035806  46.1867654
 112.1840012  21.0234997  44.6209988 112.7960012  20.5094997  44.0949988
 112.5660012  21.9014997  44.6449988 112.3194540  21.0717140  44.5521830
  97.6410012  20.4114997  43.9969988  96.8640012  20.1774997  43.4899988
  98.1710012  19.6144997  44.0059988  97.6062330  20.2716988  43.9287742
  96.4770012  20.2094997  39.8009988  96.9160012  20.8204997  39.2089988
  95.8440012  20.7474997  40.2749988  96.4514514  20.3659257  39.7840930
 102.2200012  20.3384997  43.8109988 103.0950012  20.7264997  43.7809988
 102.0840012  20.1234997  44.7329988 102.3213695  20.3625184  43.9316440
 107.7770012  20.3684997  45.4599988 107.8530012  20.4634997  44.5099988
 107.5020012  19.4604997  45.5889988 107.7502321  20.2587867  45.3475079
 109.1300012  20.3944997  41.1519988 108.4280012  21.0094997  40.9429988
 108.6860012  19.5564997  41.2829988 108.9736330  20.3655783  41.1410328
  96.3780012  36.1574997  40.6989988  95.6930012  36.1194997  40.0309988
  96.3820012  37.0704997  40.9869988  96.2848193  36.2757016  40.6465284
  98.3380012  22.1254997  38.2429988  98.8300012  21.4954997  37.7159988
  98.9620012  22.4214997  38.9069988  98.4895446  22.0793199  38.2605980
 103.3640012  22.4184997  40.6999988 103.5420012  21.7724997  41.3829988
 103.3110012  23.2524997  41.1679988 103.3811829  22.4427985  40.8565940
 105.2430012  37.3674997  39.0959988 106.1090012  37.7334997  38.9179988
 104.9960012  36.9274997  38.2819988 105.3282392  37.3581756  38.9616289
 111.9520012  36.9304997  41.7749988 111.7570012  36.1824997  41.2099988
 111.9130012  37.6884997  41.1919988 111.9200380  36.9306099  41.6188384
  97.5990012  20.9254997  53.5149988  97.2330012  20.1604997  53.9579988
  98.5120012  20.9544997  53.8019988  97.6722790  20.8247224  53.6144070
  99.5720012  20.2764997  55.0509988 100.4700012  20.0024997  54.8659988
  99.1850012  19.5334997  55.5149988  99.6426612  20.1385914  55.0883643
  98.1960012  37.0774997  37.7239988  97.9290012  37.3644997  38.5969988
  98.9680012  36.5314997  37.8759988  98.2637488  37.0430294  37.8641050
 107.9930012  19.6084997  55.2329988 108.0700012  19.1824997  56.0869988
 108.8870012  19.6224997  54.8899988 108.1243428  19.5520880  55.3035310
 111.1690012  35.6814997  53.9249988 110.3870012  35.4954997  53.4059988
 111.0970012  36.6104997  54.1429988 111.0521777  35.7816492  53.8834048
 125.5750012  29.5674997  43.9559988 125.6640012  30.5114997  43.8239988
 124.9370012  29.2924997  43.2979988 125.5009081  29.6594830  43.8489614
 124.5080012  28.8224997  47.3749988 124.4700012  28.1764997  48.0799988
 124.1860012  28.3564997  46.6039988 124.4592333  28.6709408  47.3672978
 116.8770012  28.4374997  48.9679988 116.9180012  27.8114997  49.6909988
 117.5800012  29.0614997  49.1499988 116.9776363  28.4361196  49.0916044
 128.2140012  31.7614997  45.6759988 127.7740012  31.0414997  46.1269988
 128.2010012  32.4824997  46.3059988 128.1520226  31.7603731  45.8228494
 117.8000012  32.8874997  47.5029988 117.4310012  32.0854997  47.1329988
 118.7410012  32.7184997  47.5489988 117.8767289  32.7550153  47.4586316
 114.4100012  26.5474997  42.8959988 113.9630012  27.3934997  42.8769988
 113.8490012  25.9674997  42.3799988 114.2729900  26.5849916  42.8236801
 115.1210012  28.7094997  45.0219988 115.3340012  27.9394997  45.5489988
 115.8590012  28.7984997  44.4179988 115.2498496  28.6161394  45.0125300
 125.3260012  36.8664997  45.8889988 125.9460012  36.1894997  45.6149988
 125.1180012  36.6484997  46.7969988 125.3826904  36.7443870  45.9743365
 122.8980012  31.2554997  47.7809988 123.2020012  30.5694997  47.1859988
 123.6190012  31.3734997  48.3989988 123.0370671  31.1776305  47.7831816
 131.5610012  22.8564997  48.6419988 131.6100012  23.4664997  49.3779988
 131.9860012  23.3174997  47.9189988 131.6251824  23.0023741  48.6450205
 126.0390012  25.6494997  48.1089988 126.1810012  24.7034997  48.1289988
 125.9320012  25.8564997  47.1799988 126.0439864  25.5479534  47.9862339
 119.1930012  23.7504997  45.3809988 119.2370012  24.6104997  44.9629988
 118.7360012  23.1984997  44.7469988 119.1372185  23.7935799  45.2380299
 126.9160012  23.8814997  43.7819988 127.5620012  23.5524997  44.4069988
 127.4260012  24.3994997  43.1589988 127.0734264  23.9064611  43.7833862
 115.8140012  26.1474997  46.1429988 116.4670012  25.5974997  46.5749988
 115.8380012  25.8734997  45.2259988 115.9066683  26.0351466  46.0782123
 120.9700012  27.6974997  45.3579988 121.5860012  27.1714997  45.8679988
 120.3840012  27.0574997  44.9549988 120.9750810  27.5389208  45.3733173
 131.9520012  24.3344997  50.8779988 131.2640012  24.9924997  50.7819988
 131.9680012  24.1374997  51.8139988 131.8598525  24.3980462  50.9914808
 118.0040012  22.6684997  49.4549988 117.7850012  23.1984997  48.6889988
 117.3360012  22.8954997  50.1019988 117.8837600  22.7716906  49.4376379
 125.3730012  32.1684997  42.9989988 125.0770012  31.8464997  42.1479988
 125.0480012  33.0684997  43.0399988 125.2886371  32.2460215  42.8881801
 120.5730012  30.3444997  49.7419988 119.8330012  30.9424997  49.8459988
 121.2870012  30.8984997  49.4269988 120.5682237  30.5012831  49.7136465
 128.6800012  23.1724997  45.7619988 128.4640012  22.4064997  46.2949988
 129.3350012  23.6444997  46.2749988 128.7390632  23.1315889  45.9042861
 117.5970012  24.5604997  47.4069988 118.2110012  25.1934997  47.7809988
 118.1090012  24.0884997  46.7509988 117.7502296  24.5832370  47.3694252
 118.9800012  32.3084997  50.5299988 118.9750012  33.1884997  50.1519988
 118.1270012  32.2254997  50.9549988 118.8639464  32.4176117  50.5357907
 115.1010012  31.9794997  41.3119988 114.8290012  32.2084997  40.4229988
 115.1470012  32.8174997  41.7719988 115.0700094  32.1241213  41.2525697
 128.7260012  33.6014997  48.0239988 127.7850012  33.6594997  48.1859988
 129.0030012  34.5074997  47.8869988 128.6344679  33.7319443  48.0276815
 129.0270012  21.8874997  49.4419988 128.2910012  22.4984997  49.4039988
 129.7100012  22.3024997  48.9149988 129.0186541  22.0271374  49.3655832
 122.0300012  19.9744997  46.9079988 121.9130012  19.0254997  46.8529988
 121.1750012  20.3064997  47.1809988 121.8983733  19.8895409  46.9373897
 126.9780012  35.3824997  44.6499988 127.4040012  34.6754997  44.1649988
 127.2950012  36.1834997  44.2329988 127.0791019  35.3940994  44.5273130
 128.1380012  33.2834997  43.1579988 127.8800012  32.5934997  42.5469988
 128.2090012  32.8404997  44.0039988 128.1122856  33.1292124  43.1886885
 129.8240012  31.8494997  51.6359988 129.9640012  31.2584997  50.8959988
 129.9910012  32.7224997  51.2789988 129.8656778  31.8866426  51.4866965
 124.2970012  28.8114997  41.4079988 123.5850012  29.3464997  41.0559988
 124.9880012  28.8674997  40.7479988 124.2930132  28.8922543  41.2706289
 124.3500012  27.2694997  38.4469988 125.0510012  27.2914997  39.0979988
 124.6530012  26.6414997  37.7909988 124.4867830  27.1876566  38.4473711
 131.6660012  28.1894997  49.7019988 131.0130012  28.8844997  49.7909988
 132.1310012  28.3994997  48.8919988 131.6395390  28.3129425  49.6046883
 127.7020012  29.0214997  42.3599988 126.9700012  29.2494997  42.9329988
 128.1500012  28.3074997  42.8149988 127.6623095  28.9562571  42.4999119
 127.6000012  27.1954997  51.4269988 127.6800012  27.9584997  51.9989988
 126.9980012  27.4744997  50.7369988 127.5295756  27.3377134  51.4120589
 119.3480012  29.6514997  44.2419988 119.0170012  29.2814997  43.4239988
 119.9360012  28.9814997  44.5889988 119.3821873  29.5101156  44.1768102
 120.7140012  33.0794997  46.9239988 120.6200012  32.5014997  46.1669988
 121.4440012  32.7084997  47.4199988 120.7997981  32.9502390  46.8874165
 119.7140012  28.4204997  47.8759988 120.2800012  28.5414997  47.1129988
 120.0330012  29.0574997  48.5149988 119.8345786  28.5231884  47.8580040
 126.0230012  33.9234997  48.6099988 125.7830012  34.5854997  49.2579988
 125.8250012  33.0894997  49.0349988 125.9633808  33.9013134  48.7561524
 120.5940012  32.8194997  52.5929988 120.2830012  33.6014997  53.0479988
 119.9440012  32.6664997  51.9069988 120.4635558  32.9059105  52.5625871
 126.5730012  28.1834997  40.0449988 127.1530012  28.3334997  40.7919988
 126.9870012  28.6544997  39.3219988 126.7082830  28.2676841  40.0494134
 117.5140012  29.0174997  51.8219988 117.5850012  29.6684997  52.5199988
 116.6240012  29.1204997  51.4869988 117.4033117  29.1205936  51.8722700
 124.3000012  34.9204997  43.4799988 124.7740012  35.2154997  44.2579988
 123.7370012  35.6584997  43.2469988 124.2887653  35.0606932  43.5550136
 118.8340012  34.8914997  53.3559988 118.8410012  34.7554997  52.4089988
 117.9180012  34.7734997  53.6079988 118.7111714  34.8569430  53.2604666
 130.2720012  19.9334997  39.8579988 129.3720012  20.0724997  40.1529988
 130.5240012  20.7644997  39.4559988 130.1828702  20.0649074  39.8440205
 118.3380012  28.7214997  41.8319988 118.0460012  29.4894997  41.3409988
 117.6640012  28.0614997  41.6689988 118.2069081  28.7374406  41.7427340
 131.4610012  34.2994997  38.2339988 131.5350012  35.2384997  38.4049988
 132.3670012  33.9944997  38.1779988 131.5935100  34.3866722  38.2498119
 114.4310012  31.0844997  50.6469988 113.9300012  31.0564997  49.8319988
 114.4360012  30.1784997  50.9559988 114.3631526  30.9582278  50.5772872
 114.1810012  33.8644997  47.5309988 115.1270012  33.7204997  47.5119988
 114.0690012  34.6484997  48.0679988 114.2952727  33.9508046  47.6010072
 132.3790012  34.5304997  53.2129988 132.3300012  33.5754997  53.1759988
 131.5520012  34.7984997  53.6139988 132.2604940  34.4358998  53.2621375
 123.3580012  34.1044997  52.0889988 123.4450012  34.9304997  52.5639988
 122.4940012  33.7744997  52.3379988 123.2531964  34.1729878  52.1876549
 123.7720012  37.8764997  41.8949988 123.6970012  37.7554997  40.9489988
 123.8050012  38.8264997  42.0139988 123.7661848  37.9882500  41.7814834
 117.4250012  36.6654997  43.6759988 117.5780012  36.3174997  44.5549988
 116.5750012  36.3094997  43.4209988 117.3308962  36.5696650  43.7618340
 126.8740012  37.0304997  38.8969988 127.2490012  36.2864997  38.4269988
 126.8780012  36.7604997  39.8159988 126.9258915  36.8921486  38.9567824
 126.5430012  36.9564997  41.6469988 125.6070012  37.0564997  41.8249988
 126.8230012  36.2474997  42.2249988 126.4528255  36.8742711  41.7495391
 129.5310012  26.0234997  53.6929988 129.1240012  26.5044997  52.9719988
 129.5720012  25.1184997  53.3849988 129.4808437  25.9669374  53.5526683
 116.6800012  32.4074997  51.6899988 116.8960012  32.0464997  52.5489988
 115.8250012  32.0334997  51.4799988 116.5939292  32.3074111  51.7793386
 119.2990012  20.8774997  47.6849988 118.4370012  20.7904997  47.2779988
 119.2760012  21.7334997  48.1129988 119.1780330  20.9812765  47.6871863
 123.9620012  20.5994997  51.0599988 124.3820012  20.1844997  51.8129988
 123.0290012  20.4214997  51.1769988 123.8933644  20.5185900  51.1789539
 127.2880012  24.3554997  51.9129988 126.7740012  24.2294997  52.7109988
 127.1330012  25.2674997  51.6689988 127.1966852  24.4616132  51.9892158
 128.0510012  29.2164997  37.6749988 128.0930012  28.9934997  36.7449988
 128.9000012  29.6154997  37.8649988 128.1715396  29.2399155  37.5733627
 123.6230012  23.0924997  38.3449988 123.3700012  23.1114997  39.2679988
 123.3670012  22.2204997  38.0439988 123.5537790  22.9772437  38.4306263
 119.3900012  25.8434997  48.7799988 118.7480012  25.8024997  49.4889988
 119.4270012  26.7694997  48.5429988 119.3071324  25.9631559  48.8449824
 119.3870012  26.0644997  43.6919988 118.4940012  25.7234997  43.6339988
 119.8370012  25.6874997  42.9369988 119.3257305  25.9668484  43.5819177
 124.9220012  26.4804997  42.5089988 124.5130012  27.2954997  42.2179988
 125.6430012  26.3404997  41.8949988 124.9634537  26.5732018  42.3861342
 124.0240012  26.6554997  53.9969988 123.4620012  25.9514997  54.3179988
 124.8510012  26.5354997  54.4649988 124.0587095  26.5427883  54.1042330
 125.9270012  25.9264997  45.3229988 125.7320012  26.5314997  44.6079988
 126.1080012  25.0924997  44.8889988 125.9247614  25.8966300  45.1664405
 117.1400012  26.1634997  50.6469988 117.1020012  26.5634997  51.5159988
 116.6490012  25.3464997  50.7379988 117.0684684  26.1078069  50.7781059
 120.5060012  23.5374997  37.4459988 120.0750012  23.0924997  38.1759988
 119.7880012  23.9094997  36.9339988 120.3499438  23.5268940  37.4766799
 113.7480012  23.2794997  44.4979988 114.3790012  23.2504997  45.2169988
 114.1970012  22.8544997  43.7679988 113.8950774  23.2180492  44.4976553
 115.0220012  24.0254997  39.9219988 115.4960012  24.6164997  39.3369988
 114.3050012  24.5564997  40.2689988 114.9899341  24.1780867  39.8888836
 125.1910012  27.5644997  49.9949988 125.5140012  26.9334997  49.3519988
 124.7510012  27.0294997  50.6549988 125.1756895  27.4058441  49.9962850
 121.9680012  23.4914997  44.7789988 121.0570012  23.5484997  45.0669988
 122.4740012  23.4314997  45.5889988 121.9115413  23.4911985  44.9280622
 116.7970012  25.1204997  43.6049988 115.9070012  25.2204997  43.2649988
 117.0930012  24.2784997  43.2589988 116.7152823  25.0203545  43.5117213
 120.4500012  25.1204997  41.2619988 121.3810012  25.2494997  41.4399988
 120.2350012  25.7904997  40.6119988 120.5484247  25.2286565  41.1985747
 126.3730012  22.7264997  48.0429988 125.6970012  22.8574997  48.7069988
 125.8880012  22.5714997  47.2329988 126.2147145  22.7234905  48.0244517
 119.1240012  26.3154997  38.8289988 118.5810012  25.9354997  38.1369988
 119.9570012  26.5094997  38.3999988 119.1624399  26.2898124  38.6764526
 129.6610012  38.3984997  54.3199988 129.8610012  38.8224997  53.4849988
 130.3160012  38.7414997  54.9269988 129.7770051  38.5029648  54.2877836
 117.2590012  30.8724997  53.9279988 117.9910012  31.1264997  54.4889988
 116.4790012  31.0764997  54.4429988 117.2538232  30.9349177  54.0745760
 123.2880012  26.2794997  46.6659988 123.8530012  25.7324997  46.1189988
 123.1410012  25.7574997  47.4539988 123.3452918  26.1342024  46.6978454
 118.2900012  22.4154997  43.0839988 117.9730012  21.5134997  43.0489988
 119.0720012  22.4174997  42.5309988 118.3522284  22.2921628  43.0044783
 121.9150012  24.6674997  49.0799988 121.0790012  25.1214997  49.1899988
 122.4390012  24.9434997  49.8319988 121.8714414  24.7669376  49.1967136
 122.4590012  30.8804997  40.7639988 121.7140012  30.3734997  40.4419988
 122.3250012  30.9294997  41.7109988 122.3388776  30.8176940  40.8478647
 129.6090012  30.0134997  49.5509988 130.2510012  30.4704997  49.0069988
 128.7790012  30.1264997  49.0879988 129.5845963  30.0912704  49.4140177
 126.3570012  23.6944997  38.9639988 125.4180012  23.8064997  38.8119988
 126.6540012  24.5514997  39.2699988 126.2687666  23.8256443  38.9845768
 123.9780012  31.0644997  52.0009988 123.6330012  30.6834997  52.8079988
 123.7780012  31.9984997  52.0729988 123.9038061  31.1385228  52.1210961
 127.0750012  25.5614997  40.6239988 127.9670012  25.4244997  40.9429988
 127.1320012  26.3524997  40.0879988 127.2046285  25.6496660  40.5951691
 117.5840012  30.1754997  46.5339988 118.3290012  30.1734997  45.9329988
 117.6620012  29.3524997  47.0159988 117.6965518  30.0639315  46.5168929
 124.5850012  32.3394997  39.7899988 124.2890012  33.1654997  40.1709988
 123.8820012  31.7194997  39.9859988 124.4494914  32.3688199  39.8686443
 114.5920012  28.6364997  51.8489988 114.8150012  28.2184997  52.6809988
 113.9900012  28.0234997  51.4259988 114.5411759  28.4964668  51.9057022
 121.6080012  28.1534997  54.0619988 121.3120012  27.9874997  53.1669988
 122.5400012  27.9334997  54.0509988 121.6934166  28.1010640  53.9380536
 126.2290012  33.5264997  51.9519988 125.3280012  33.7094997  51.6839988
 126.2630012  33.7854997  52.8729988 126.1103041  33.5865512  52.0398197
 131.9600012  25.7714997  40.3189988 131.4060012  25.3754997  39.6469988
 132.0600012  26.6814997  40.0409988 131.8977059  25.8403586  40.1894401
 131.9230012  31.5714997  53.1559988 131.0720012  31.8094997  52.7889988
 132.5140012  31.5544997  52.4029988 131.8862487  31.6018258  53.0038893
 130.2550012  34.5574997  40.7839988 129.8820012  33.7314997  41.0929988
 130.5330012  34.3744997  39.8869988 130.2415630  34.4197303  40.7049626
 127.4160012  29.3654997  47.8049988 126.4870012  29.1334997  47.7779988
 127.8670012  28.5884997  47.4749988 127.3499216  29.2287238  47.7566917
 119.9590012  33.6934997  43.9379988 120.4860012  34.4664997  43.7379988
 119.0790012  33.9184997  43.6369988 119.9121773  33.8298005  43.8699010
 115.7140012  28.5554997  38.5249988 116.3300012  29.1824997  38.9049988
 114.8520012  28.8714997  38.7969988 115.6817698  28.6839430  38.6137183
 121.3860012  31.3564997  43.5149988 121.1450012  32.2814997  43.5559988
 120.6450012  30.8974997  43.9109988 121.2528409  31.4211421  43.5741377
 121.9010012  35.5054997  49.8299988 122.2630012  36.3604997  49.5959988
 122.4320012  35.2134997  50.5699988 122.0224473  35.5831060  49.8980855
 120.0690012  36.3784997  43.0599988 119.1190012  36.4834997  43.1109988
 120.4210012  37.1984997  43.4049988 119.9864203  36.5038314  43.1136650
 125.4450012  31.6044997  49.5299988 125.0190012  31.3774997  50.3569988
 126.0250012  30.8664997  49.3479988 125.4651868  31.4735299  49.6185830
 127.6480012  32.5334997  38.6039988 128.0010012  32.1534997  39.4089988
 126.6990012  32.4404997  38.6909988 127.5680441  32.4689596  38.7258559
 128.1030012  36.1564997  51.9999988 127.5020012  35.6014997  51.5039988
 128.3850012  36.8234997  51.3739988 128.0588519  36.1706841  51.8474952
 132.1510012  37.0134997  38.8049988 132.8950012  37.5994997  38.6649988
 131.4570012  37.5814997  39.1389988 132.1590292  37.1705582  38.8309961
 116.2260012  23.3894997  51.4069988 115.3330012  23.7284997  51.3389988
 116.1270012  22.5344997  51.8249988 116.0904164  23.3202588  51.4542235
 128.5140012  31.2064997  40.8309988 128.2360012  30.4784997  41.3869988
 129.4410012  31.3254997  41.0359988 128.6013124  31.1228802  40.9348845
 115.8770012  35.1944997  49.8419988 116.0940012  34.2624997  49.8109988
 116.1230012  35.4684997  50.7249988 115.9399549  35.1040636  49.9571763
 121.7390012  33.6454997  37.0509988 121.9780012  32.8974997  36.5039988
 121.4700012  33.2574997  37.8839988 121.7353675  33.4906638  37.0886865
 120.6760012  33.2154997  39.5079988 120.8220012  32.6954997  40.2979988
 120.6730012  34.1224997  39.8139988 120.6955989  33.2668853  39.6576088
 117.1290012  30.4684997  40.0179988 116.4430012  30.8204997  40.5849988
 117.6510012  31.2314997  39.7709988 117.1056852  30.6198578  40.0622118
 124.9600012  23.1304997  50.2969988 125.6590012  23.2044997  50.9469988
 124.5790012  22.2664997  50.4509988 125.0041767  23.0237624  50.4068322
 125.7450012  22.7824997  41.3939988 125.9650012  23.2544997  40.5909988
 126.3030012  23.1774997  42.0639988 125.8504968  22.9004285  41.3747331
 123.4130012  34.9134997  40.2569988 122.5970012  35.4104997  40.3089988
 123.9430012  35.3884997  39.6169988 123.3729161  35.0457722  40.1775956
 122.9450012  24.5104997  42.2289988 123.7570012  25.0154997  42.2749988
 122.7000012  24.3654997  43.1429988 123.0230520  24.5600375  42.3588517
 123.4800012  25.4964997  51.4139988 123.5990012  26.0704997  52.1709988
 124.1360012  24.8084997  51.5279988 123.5849757  25.4821079  51.5330825
 123.8280012  21.5914997  43.1669988 123.4820012  22.2094997  43.8119988
 124.4870012  22.0924997  42.6859988 123.8697826  21.7435802  43.1900971
 120.7520012  35.9574997  40.2389988 120.9120012  36.7564997  39.7379988
 120.5540012  36.2634997  41.1239988 120.7471649  36.1084469  40.2899815
 119.4860012  22.6544997  39.8539988 119.4030012  23.5434997  40.2009988
 120.3760012  22.3894997  40.0859988 119.5949469  22.7401430  39.9327626
 129.6850012  23.4034997  52.2489988 128.7680012  23.6664997  52.1609988
 130.0200012  23.4004997  51.3519988 129.6049900  23.4390224  52.1157919
 128.2870012  27.1544997  46.3439988 127.4890012  26.7394997  46.0159988
 128.7320012  26.4634997  46.8349988 128.2379885  27.0043543  46.3654889
 117.7450012  33.0824997  38.9149988 118.3370012  33.7814997  39.1909988
 118.2040012  32.6494997  38.1949988 117.8881142  33.1197049  38.8554830
 116.0610012  25.7464997  38.0309988 116.0160012  26.6854997  38.2089988
 115.1730012  25.5104997  37.7609988 115.9348574  25.8431892  38.0188912
 129.3730012  36.4104997  47.9669988 129.2180012  37.0884997  47.3099988
 130.3060012  36.4824997  48.1699988 129.4778500  36.5130170  47.9045119
 116.8690012  20.5284997  46.7039988 116.6400012  20.5874997  45.7759988
 116.4260012  19.7364997  47.0099988 116.7778530  20.4295753  46.6184786
 115.7990012  34.4684997  42.8639988 114.9670012  34.9414997  42.8919988
 116.3450012  34.9784997  42.2659988 115.7589739  34.6021871  42.7869716
 115.0870012  37.0814997  54.1939988 115.6280012  36.8644997  54.9539988
 114.6060012  36.2754997  54.0049988 115.0959345  36.9429514  54.2723076
 119.6850012  36.0004997  55.8149988 120.4520012  35.5414997  56.1559988
 119.6630012  35.7744997  54.8849988 119.7871434  35.9070409  55.7360043
 123.7770012  35.5084997  37.1899988 123.1330012  34.8774997  37.5109988
 124.5390012  34.9774997  36.9579988 123.7918077  35.3502920  37.2026011
 126.2620012  34.3804997  54.5439988 125.9110012  33.5244997  54.7869988
 126.9880012  34.5234997  55.1509988 126.3120769  34.2825636  54.6593619
 128.3810012  35.3254997  37.4239988 128.6640012  34.5314997  37.8759988
 129.1210012  35.5584997  36.8629988 128.5197486  35.2482803  37.4100698
 114.9940012  30.8914997  55.1489988 115.1380012  29.9894997  54.8619988
 114.2220012  31.1774997  54.6609988 114.9093322  30.8068261  55.0437881
 119.3360012  31.2354997  37.2809988 119.4000012  30.4414997  37.8119988
 119.9890012  31.1164997  36.5909988 119.4330241  31.1107148  37.2604317
 121.6500012  30.8614997  54.5809988 121.3210012  31.1324997  53.7239988
 121.8020012  29.9204997  54.4939988 121.6254809  30.7713862  54.4518244
 124.6880012  32.2824997  37.0169988 124.4190012  32.4624997  37.9179988
 124.4820012  31.3564997  36.8859988 124.6233825  32.1820152  37.1225214
 127.3840012  30.7774997  51.9649988 128.1300012  31.3654997  51.8449988
 126.6270012  31.3594997  52.0279988 127.3837554  30.9367011  51.9570907
 115.8270012  28.0914997  54.5689988 116.2350012  27.2344997  54.4479988
 115.5670012  28.1064997  55.4899988 115.8477568  27.9760807  54.6769588
 120.4850012  29.2074997  39.5869988 120.0250012  28.7234997  40.2729988
 120.7400012  28.5394997  38.9509988 120.4564902  29.0508731  39.5949334
 119.7740012  27.1004997  51.9429988 119.1560012  27.7754997  52.2229988
 120.1180012  27.4214997  51.1099988 119.7359615  27.2362721  51.8686581
 121.5560012  27.4504997  37.8489988 121.3760012  27.2964997  36.9219988
 122.5060012  27.5584997  37.8939988 121.6597776  27.4440175  37.7281843
 124.7940012  29.5724997  55.2199988 125.7470012  29.6554997  55.1929988
 124.6330012  28.8604997  55.8399988 124.9026426  29.4876746  55.3000579
 130.9460012  29.8054997  37.2949988 130.6720012  29.3804997  36.4819988
 130.9850012  30.7364997  37.0779988 130.9137699  29.8732484  37.1543610
 120.1130012  24.4554997  53.0249988 120.2630012  23.7264997  52.4229988
 120.1160012  25.2324997  52.4659988 120.1339302  24.4607851  52.8670692
 120.5260012  22.8254997  50.5179988 121.0620012  23.2764997  49.8659988
 119.6740012  22.7174997  50.0949988 120.4842178  22.8726390  50.3715756
 122.1080012  28.2644997  50.7569988 122.8580012  28.1084997  50.1839988
 121.7690012  29.1164997  50.4819988 122.1648921  28.3582968  50.6413561
 126.5230012  26.0794997  55.7859988 126.7160012  25.1484997  55.6739988
 127.3810012  26.5044997  55.7759988 126.6653020  26.0096389  55.7693361
 127.8400012  28.8684997  53.8629988 127.5590012  29.5774997  53.2859988
 128.7830012  28.7954997  53.7119988 127.9289027  28.9557646  53.7635551
 118.5920012  25.6534997  54.9369988 117.8250012  25.1214997  54.7269988
 119.2710012  25.3434997  54.3369988 118.5787022  25.5387506  54.8271648
 121.3320012  20.2814997  50.9489988 121.2330012  21.2284997  50.8439988
 120.5890012  19.9094997  50.4739988 121.2180564  20.3605902  50.8704560
 122.5960012  24.6034997  54.5129988 122.3600012  24.3834997  55.4149988
 121.8120012  24.3964997  54.0029988 122.4578628  24.5454760  54.5673932
 125.3110012  23.7304997  53.5889988 124.3640012  23.7624997  53.7209988
 125.6240012  23.1054997  54.2419988 125.2235475  23.6503207  53.6954455
 126.9450012  22.3644997  55.5939988 126.8490012  21.4124997  55.5879988
 126.6240012  22.6334997  56.4539988 126.8884070  22.2704035  55.7095441
 116.7720012  23.5744997  54.6409988 116.9840012  22.8674997  54.0309988
 116.6610012  23.1364997  55.4849988 116.7859721  23.4187084  54.6716843
 121.5530012  19.5754997  53.6209988 122.2650012  18.9354997  53.6069988
 121.4520012  19.8424997  52.7069988 121.6367939  19.5239938  53.4955650
 121.9070012  21.2584997  55.6739988 121.7750012  20.7824997  54.8539988
 121.3080012  22.0024997  55.6189988 121.8079071  21.2939618  55.5542886
 121.4530012  38.1414997  38.8509988 122.3860012  38.2994997  38.9939988
 121.1890012  38.8164997  38.2259988 121.5449510  38.2543611  38.7860741
 115.0220012  32.7774997  38.3329988 115.9360012  32.8564997  38.6069988
 115.0290012  32.0904997  37.6669988 115.1481131  32.6953961  38.2804393
 113.6710012  38.1704997  43.4109988 113.0240012  37.7084997  42.8779988
 114.0250012  37.4984997  43.9929988 113.6303849  38.0164723  43.4167959
 114.5410012  36.2514997  45.2149988 114.2060012  35.3714997  45.3869988
 114.7630012  36.5964997  46.0799988 114.5251783  36.1777500  45.3554208
 132.0890012  37.0604997  48.1959988 132.0680012  37.2454997  49.1349988
 132.7800012  37.6294997  47.8549988 132.1794618  37.1626606  48.2783864
 131.6530012  36.6284997  51.1179988 131.1650012  35.8924997  50.7469988
 132.2020012  36.2344997  51.7959988 131.6604872  36.4746249  51.1589160
 130.1030012  32.4174997  55.7559988 129.2370012  32.3124997  56.1499988
 130.4800012  33.1764997  56.2019988 130.0353308  32.5056900  55.8702393
 131.4040012  30.6744997  41.2699988 132.2540012  31.0954997  41.3969988
 131.4100012  29.9344997  41.8769988 131.5211372  30.6320803  41.3694344
 131.7990012  28.7274997  43.0939988 131.0720012  28.2484997  43.4909988
 132.3800012  28.9334997  43.8259988 131.7779375  28.6897090  43.2474129
 131.5580012  31.5124997  48.0409988 132.3910012  31.1344997  47.7609988
 131.6700012  32.4554997  47.9219988 131.6872647  31.5882218  47.9865487
 130.0440012  34.3904997  50.3479988 129.3970012  34.7154997  50.9739988
 129.5270012  33.9504997  49.6739988 129.8854029  34.3755004  50.3425827
 132.0670012  28.6284997  39.4849988 131.5450012  28.9854997  38.7659988
 132.0340012  29.3034997  40.1629988 131.9911634  28.7685413  39.4783145
 130.4160012  25.8684997  38.0359988 130.5120012  26.5354997  37.3549988
 130.2760012  25.0524997  37.5539988 130.4102135  25.8494500  37.8778491
 129.5850012  27.2484997  43.6569988 129.4350012  26.3034997  43.6359988
 129.2320012  27.5294997  44.4999988 129.5166625  27.1570441  43.7682346
 114.6210012  29.3264997  47.6669988 114.8050012  29.2444997  46.7309988
 115.4700012  29.2024997  48.0909988 114.7610139  29.2985003  47.5961455
 130.4420012  29.2184997  53.2949988 131.0250012  28.4844997  53.4869988
 131.0060012  29.9904997  53.3419988 130.5979769  29.2224227  53.3276159
 131.9380012  27.1214997  53.9799988 131.0750012  26.7424997  53.8139988
 132.5430012  26.3824997  53.9059988 131.9015979  26.9698023  53.9472817
 129.6630012  23.2764997  37.1529988 130.2740012  22.9054997  37.7899988
 128.8270012  22.8554997  37.3489988 129.6335032  23.1687554  37.2667035
 129.2960012  24.8314997  42.1189988 129.5760012  23.9244997  42.2429988
 130.0550012  25.2654997  41.7299988 129.4369277  24.7660942  42.0833682
 129.9080012  25.4124997  47.5549988 130.8410012  25.6244997  47.5209988
 129.6730012  25.5144997  48.4769988 130.0038036  25.4552769  47.6749976
 129.9370012  26.1494997  50.3309988 129.0940012  26.4174997  50.6969988
 130.3790012  26.9714997  50.1199988 129.8814158  26.2973291  50.3525491
 114.2180012  24.5974997  53.8079988 115.1380012  24.4754997  54.0439988
 113.7690012  23.8474997  54.1969988 114.2831580  24.4793727  53.8929006
 132.2200012  20.1294997  55.6839988 132.5700012  19.4754997  55.0789988
 132.3670012  20.9664997  55.2449988 132.2878419  20.1531591  55.5417118
 129.9090012  22.0944997  42.1669988 130.0920012  21.6454997  42.9929988
 129.3100012  21.5094997  41.7039988 129.8530202  21.9539975  42.2173275
 115.4390012  22.9094997  46.6989988 115.8850012  22.1174997  47.0009988
 115.9060012  23.6254997  47.1299988 115.5630172  22.8980624  46.7984820
 113.7430012  25.9084997  47.7679988 114.2350012  25.6874997  46.9769988
 114.1060012  26.7494997  48.0489988 113.8593126  25.9918357  47.6977531
 131.7400012  22.2384997  54.0339988 130.8220012  22.5094997  53.9979988
 131.8630012  21.7034997  53.2489988 131.6311066  22.2032892  53.9230487
 131.7760012  22.1614997  38.6949988 132.1880012  21.4404997  38.2199988
 132.4580012  22.8314997  38.7539988 131.9245885  22.1532368  38.6378915
 114.0570012  22.1664997  41.8219988 113.1320012  22.3754997  41.6929988
 114.5110012  22.6504997  41.1329988 113.9917368  22.2605993  41.7111226
 128.8280012  37.1504997  43.7679988 129.4800012  36.8034997  43.1599988
 129.3380012  37.6394997  44.4139988 128.9862637  37.1690597  43.7720236
 114.0210012  20.9044997  50.1669988 113.3560012  20.6584997  50.8099988
 113.5780012  21.5264997  49.5889988 113.8700956  20.9548632  50.1769352
 116.2130012  34.0794997  54.3109988 115.3920012  34.2544997  53.8509988
 115.9600012  34.0064997  55.2319988 116.0666164  34.0935622  54.3724923
 119.1670012  35.0544997  50.5699988 118.7420012  35.8634997  50.2869988
 120.0710012  35.1394997  50.2679988 119.2310271  35.1768469  50.4903776
 123.4780012  36.4534997  53.5289988 123.6630012  36.1194997  54.4069988
 124.3240012  36.7624997  53.2069988 123.6177539  36.4496047  53.6055605
 125.8230012  37.7394997  52.7729988 126.5000012  37.1064997  52.5329988
 126.1450012  38.1404997  53.5799988 125.9591637  37.7071154  52.8492793
 130.7400012  20.3284997  51.8529988 129.9280012  20.6534997  51.4649988
 130.9730012  19.5684997  51.3199988 130.6603423  20.2702436  51.7278253
 116.5690012  38.3104997  50.6169988 115.8480012  38.7504997  50.1659988
 116.2030012  38.0594997  51.4659988 116.4209804  38.3367698  50.6699840
 119.0360012  37.9104997  49.6469988 118.1710012  37.9824997  50.0509988
 118.9810012  38.4574997  48.8629988 118.9102085  37.9942685  49.5963362
 123.7460012  37.7984997  48.8219988 123.2900012  38.3274997  48.1679988
 123.9090012  38.4014997  49.5479988 123.7055585  37.9524468  48.8305062
 126.0740012  36.6764997  49.7669988 125.1690012  36.8414997  49.5019988
 126.5030012  37.5294997  49.7019988 126.0080799  36.8144483  49.7219182
 128.6780012  38.2464997  50.0619988 128.4960012  39.1624997  49.8519988
 128.8550012  37.8364997  49.2159988 128.6770210  38.3164822  49.9187885
 115.9830012  36.9334997  47.5269988 115.9650012  36.5084997  48.3849988
 116.7880012  36.6154997  47.1189988 116.0893875  36.8323812  47.5891655
 118.1250012  35.6434997  46.1819988 117.9060012  34.7274997  46.3519988
 118.9490012  35.7834997  46.6479988 118.2064420  35.5370520  46.2682774
 120.6620012  36.1134997  47.0309988 120.8750012  35.2254997  46.7439988
 120.7260012  36.0794997  47.9849988 120.6998232  35.9873102  47.1207397
 124.1700012  21.7774997  46.1749988 123.4960012  21.1484997  46.4309988
 124.7340012  21.2934997  45.5719988 124.1539230  21.6258744  46.1285340
 129.3130012  19.8854997  46.2879988 129.9170012  20.4324997  45.7859988
 128.4430012  20.2044997  46.0479988 129.2781241  20.0035806  46.1867654
 131.0400012  21.0234997  44.6209988 131.6520012  20.5094997  44.0949988
 131.4220012  21.9014997  44.6449988 131.1754540  21.0717140  44.5521830
 116.4970012  20.4114997  43.9969988 115.7200012  20.1774997  43.4899988
 117.0270012  19.6144997  44.0059988 116.4622330  20.2716988  43.9287742
 115.3330012  20.2094997  39.8009988 115.7720012  20.8204997  39.2089988
 114.7000012  20.7474997  40.2749988 115.3074514  20.3659257  39.7840930
 121.0760012  20.3384997  43.8109988 121.9510012  20.7264997  43.7809988
 120.9400012  20.1234997  44.7329988 121.1773695  20.3625184  43.9316440
 126.6330012  20.3684997  45.4599988 126.7090012  20.4634997  44.5099988
 126.3580012  19.4604997  45.5889988 126.6062321  20.2587867  45.3475079
 127.9860012  20.3944997  41.1519988 127.2840012  21.0094997  40.9429988
 127.5420012  19.5564997  41.2829988 127.8296330  20.3655783  41.1410328
 115.2340012  36.1574997  40.6989988 114.5490012  36.1194997  40.0309988
 115.2380012  37.0704997  40.9869988 115.1408193  36.2757016  40.6465284
 117.1940012  22.1254997  38.2429988 117.6860012  21.4954997  37.7159988
 117.8180012  22.4214997  38.9069988 117.3455446  22.0793199  38.2605980
 122.2200012  22.4184997  40.6999988 122.3980012  21.7724997  41.3829988
 122.1670012  23.2524997  41.1679988 122.2371829  22.4427985  40.8565940
 124.0990012  37.3674997  39.0959988 124.9650012  37.7334997  38.9179988
 123.8520012  36.9274997  38.2819988 124.1842392  37.3581756  38.9616289
 130.8080012  36.9304997  41.7749988 130.6130012  36.1824997  41.2099988
 130.7690012  37.6884997  41.1919988 130.7760380  36.9306099  41.6188384
 116.4550012  20.9254997  53.5149988 116.0890012  20.1604997  53.9579988
 117.3680012  20.9544997  53.8019988 116.5282790  20.8247224  53.6144070
 118.4280012  20.2764997  55.0509988 119.3260012  20.0024997  54.8659988
 118.0410012  19.5334997  55.5149988 118.4986612  20.1385914  55.0883643
 117.0520012  37.0774997  37.7239988 116.7850012  37.3644997  38.5969988
 117.8240012  36.5314997  37.8759988 117.1197488  37.0430294  37.8641050
 126.8490012  19.6084997  55.2329988 126.9260012  19.1824997  56.0869988
 127.7430012  19.6224997  54.8899988 126.9803428  19.5520880  55.3035310
 130.0250012  35.6814997  53.9249988 129.2430012  35.4954997  53.4059988
 129.9530012  36.6104997  54.1429988 129.9081777  35.7816492  53.8834048
 144.4310012  29.5674997  43.9559988 144.5200012  30.5114997  43.8239988
 143.7930012  29.2924997  43.2979988 144.3569081  29.6594830  43.8489614
 143.3640012  28.8224997  47.3749988 143.3260012  28.1764997  48.0799988
 143.0420012  28.3564997  46.6039988 143.3152333  28.6709408  47.3672978
 135.7330012  28.4374997  48.9679988 135.7740012  27.8114997  49.6909988
 136.4360012  29.0614997  49.1499988 135.8336363  28.4361196  49.0916044
 136.6560012  32.8874997  47.5029988 136.2870012  32.0854997  47.1329988
 137.5970012  32.7184997  47.5489988 136.7327289  32.7550153  47.4586316
 133.2660012  26.5474997  42.8959988 132.8190012  27.3934997  42.8769988
 132.7050012  25.9674997  42.3799988 133.1289900  26.5849916  42.8236801
 133.9770012  28.7094997  45.0219988 134.1900012  27.9394997  45.5489988
 134.7150012  28.7984997  44.4179988 134.1058496  28.6161394  45.0125300
 144.1820012  36.8664997  45.8889988 144.8020012  36.1894997  45.6149988
 143.9740012  36.6484997  46.7969988 144.2386904  36.7443870  45.9743365
 141.7540012  31.2554997  47.7809988 142.0580012  30.5694997  47.1859988
 142.4750012  31.3734997  48.3989988 141.8930671  31.1776305  47.7831816
 144.8950012  25.6494997  48.1089988 145.0370012  24.7034997  48.1289988
 144.7880012  25.8564997  47.1799988 144.8999863  25.5479534  47.9862339
 138.0490012  23.7504997  45.3809988 138.0930012  24.6104997  44.9629988
 137.5920012  23.1984997  44.7469988 137.9932185  23.7935799  45.2380299
 134.6700012  26.1474997  46.1429988 135.3230012  25.5974997  46.5749988
 134.6940012  25.8734997  45.2259988 134.7626683  26.0351466  46.0782123
 139.8260012  27.6974997  45.3579988 140.4420012  27.1714997  45.8679988
 139.2400012  27.0574997  44.9549988 139.8310810  27.5389208  45.3733173
 136.8600012  22.6684997  49.4549988 136.6410012  23.1984997  48.6889988
 136.1920012  22.8954997  50.1019988 136.7397600  22.7716906  49.4376379
 144.2290012  32.1684997  42.9989988 143.9330012  31.8464997  42.1479988
 143.9040012  33.0684997  43.0399988 144.1446371  32.2460215  42.8881801
 139.4290012  30.3444997  49.7419988 138.6890012  30.9424997  49.8459988
 140.1430012  30.8984997  49.4269988 139.4242237  30.5012831  49.7136465
 136.4530012  24.5604997  47.4069988 137.0670012  25.1934997  47.7809988
 136.9650012  24.0884997  46.7509988 136.6062296  24.5832370  47.3694252
 137.8360012  32.3084997  50.5299988 137.8310012  33.1884997  50.1519988
 136.9830012  32.2254997  50.9549988 137.7199464  32.4176117  50.5357907
 133.9570012  31.9794997  41.3119988 133.6850012  32.2084997  40.4229988
 134.0030012  32.8174997  41.7719988 133.9260094  32.1241213  41.2525697
 140.8860012  19.9744997  46.9079988 140.7690012  19.0254997  46.8529988
 140.0310012  20.3064997  47.1809988 140.7543733  19.8895409  46.9373897
 143.1530012  28.8114997  41.4079988 142.4410012  29.3464997  41.0559988
 143.8440012  28.8674997  40.7479988 143.1490132  28.8922543  41.2706289
 143.2060012  27.2694997  38.4469988 143.9070012  27.2914997  39.0979988
 143.5090012  26.6414997  37.7909988 143.3427830  27.1876566  38.4473711
 138.2040012  29.6514997  44.2419988 137.8730012  29.2814997  43.4239988
 138.7920012  28.9814997  44.5889988 138.2381873  29.5101156  44.1768102
 139.5700012  33.0794997  46.9239988 139.4760012  32.5014997  46.1669988
 140.3000012  32.7084997  47.4199988 139.6557981  32.9502390  46.8874165
 138.5700012  28.4204997  47.8759988 139.1360012  28.5414997  47.1129988
 138.8890012  29.0574997  48.5149988 138.6905786  28.5231884  47.8580040
 144.8790012  33.9234997  48.6099988 144.6390012  34.5854997  49.2579988
 144.6810012  33.0894997  49.0349988 144.8193808  33.9013134  48.7561524
 139.4500012  32.8194997  52.5929988 139.1390012  33.6014997  53.0479988
 138.8000012  32.6664997  51.9069988 139.3195558  32.9059105  52.5625871
 136.3700012  29.0174997  51.8219988 136.4410012  29.6684997  52.5199988
 135.4800012  29.1204997  51.4869988 136.2593117  29.1205936  51.8722700
 143.1560012  34.9204997  43.4799988 143.6300012  35.2154997  44.2579988
 142.5930012  35.6584997  43.2469988 143.1447653  35.0606932  43.5550136
 137.6900012  34.8914997  53.3559988 137.6970012  34.7554997  52.4089988
 136.7740012  34.7734997  53.6079988 137.5671714  34.8569430  53.2604666
 137.1940012  28.7214997  41.8319988 136.9020012  29.4894997  41.3409988
 136.5200012  28.0614997  41.6689988 137.0629081  28.7374406  41.7427340
 133.2870012  31.0844997  50.6469988 132.7860012  31.0564997  49.8319988
 133.2920012  30.1784997  50.9559988 133.2191526  30.9582278  50.5772872
 133.0370012  33.8644997  47.5309988 133.9830012  33.7204997  47.5119988
 132.9250012  34.6484997  48.0679988 133.1512727  33.9508046  47.6010072
 142.2140012  34.1044997  52.0889988 142.3010012  34.9304997  52.5639988
 141.3500012  33.7744997  52.3379988 142.1091964  34.1729878  52.1876549
 142.6280012  37.8764997  41.8949988 142.5530012  37.7554997  40.9489988
 142.6610012  38.8264997  42.0139988 142.6221848  37.9882500  41.7814834
 136.2810012  36.6654997  43.6759988 136.4340012  36.3174997  44.5549988
 135.4310012  36.3094997  43.4209988 136.1868962  36.5696650  43.7618340
 135.5360012  32.4074997  51.6899988 135.7520012  32.0464997  52.5489988
 134.6810012  32.0334997  51.4799988 135.4499292  32.3074111  51.7793386
 138.1550012  20.8774997  47.6849988 137.2930012  20.7904997  47.2779988
 138.1320012  21.7334997  48.1129988 138.0340330  20.9812765  47.6871863
 142.8180012  20.5994997  51.0599988 143.2380012  20.1844997  51.8129988
 141.8850012  20.4214997  51.1769988 142.7493644  20.5185900  51.1789539
 142.4790012  23.0924997  38.3449988 142.2260012  23.1114997  39.2679988
 142.2230012  22.2204997  38.0439988 142.4097790  22.9772437  38.4306263
 138.2460012  25.8434997  48.7799988 137.6040012  25.8024997  49.4889988
 138.2830012  26.7694997  48.5429988 138.1631324  25.9631559  48.8449824
 138.2430012  26.0644997  43.6919988 137.3500012  25.7234997  43.6339988
 138.6930012  25.6874997  42.9369988 138.1817305  25.9668484  43.5819177
 143.7780012  26.4804997  42.5089988 143.3690012  27.2954997  42.2179988
 144.4990012  26.3404997  41.8949988 143.8194537  26.5732018  42.3861342
 142.8800012  26.6554997  53.9969988 142.3180012  25.9514997  54.3179988
 143.7070012  26.5354997  54.4649988 142.9147095  26.5427883  54.1042330
 144.7830012  25.9264997  45.3229988 144.5880012  26.5314997  44.6079988
 144.9640012  25.0924997  44.8889988 144.7807614  25.8966300  45.1664405
 135.9960012  26.1634997  50.6469988 135.9580012  26.5634997  51.5159988
 135.5050012  25.3464997  50.7379988 135.9244684  26.1078069  50.7781059
 139.3620012  23.5374997  37.4459988 138.9310012  23.0924997  38.1759988
 138.6440012  23.9094997  36.9339988 139.2059438  23.5268940  37.4766799
 132.6040012  23.2794997  44.4979988 133.2350012  23.2504997  45.2169988
 133.0530012  22.8544997  43.7679988 132.7510774  23.2180492  44.4976553
 133.8780012  24.0254997  39.9219988 134.3520012  24.6164997  39.3369988
 133.1610012  24.5564997  40.2689988 133.8459341  24.1780867  39.8888836
 144.0470012  27.5644997  49.9949988 144.3700012  26.9334997  49.3519988
 143.6070012  27.0294997  50.6549988 144.0316895  27.4058441  49.9962850
 140.8240012  23.4914997  44.7789988 139.9130012  23.5484997  45.0669988
 141.3300012  23.4314997  45.5889988 140.7675413  23.4911985  44.9280622
 135.6530012  25.1204997  43.6049988 134.7630012  25.2204997  43.2649988
 135.9490012  24.2784997  43.2589988 135.5712823  25.0203545  43.5117213
 139.3060012  25.1204997  41.2619988 140.2370012  25.2494997  41.4399988
 139.0910012  25.7904997  40.6119988 139.4044247  25.2286565  41.1985747
 137.9800012  26.3154997  38.8289988 137.4370012  25.9354997  38.1369988
 138.8130012  26.5094997  38.3999988 138.0184399  26.2898124  38.6764526
 136.1150012  30.8724997  53.9279988 136.8470012  31.1264997  54.4889988
 135.3350012  31.0764997  54.4429988 136.1098232  30.9349177  54.0745760
 142.1440012  26.2794997  46.6659988 142.7090012  25.7324997  46.1189988
 141.9970012  25.7574997  47.4539988 142.2012918  26.1342024  46.6978454
 137.1460012  22.4154997  43.0839988 136.8290012  21.5134997  43.0489988
 137.9280012  22.4174997  42.5309988 137.2082284  22.2921628  43.0044783
 140.7710012  24.6674997  49.0799988 139.9350012  25.1214997  49.1899988
 141.2950012  24.9434997  49.8319988 140.7274414  24.7669376  49.1967136
 141.3150012  30.8804997  40.7639988 140.5700012  30.3734997  40.4419988
 141.1810012  30.9294997  41.7109988 141.1948776  30.8176940  40.8478647
 142.8340012  31.0644997  52.0009988 142.4890012  30.6834997  52.8079988
 142.6340012  31.9984997  52.0729988 142.7598061  31.1385228  52.1210961
 136.4400012  30.1754997  46.5339988 137.1850012  30.1734997  45.9329988
 136.5180012  29.3524997  47.0159988 136.5525518  30.0639315  46.5168929
 143.4410012  32.3394997  39.7899988 143.1450012  33.1654997  40.1709988
 142.7380012  31.7194997  39.9859988 143.3054914  32.3688199  39.8686443
 133.4480012  28.6364997  51.8489988 133.6710012  28.2184997  52.6809988
 132.8460012  28.0234997  51.4259988 133.3971759  28.4964668  51.9057022
 140.4640012  28.1534997  54.0619988 140.1680012  27.9874997  53.1669988
 141.3960012  27.9334997  54.0509988 140.5494166  28.1010640  53.9380536
 138.8150012  33.6934997  43.9379988 139.3420012  34.4664997  43.7379988
 137.9350012  33.9184997  43.6369988 138.7681773  33.8298005  43.8699010
 134.5700012  28.5554997  38.5249988 135.1860012  29.1824997  38.9049988
 133.7080012  28.8714997  38.7969988 134.5377698  28.6839430  38.6137183
 140.2420012  31.3564997  43.5149988 140.0010012  32.2814997  43.5559988
 139.5010012  30.8974997  43.9109988 140.1088409  31.4211421  43.5741377
 140.7570012  35.5054997  49.8299988 141.1190012  36.3604997  49.5959988
 141.2880012  35.2134997  50.5699988 140.8784473  35.5831060  49.8980855
 138.9250012  36.3784997  43.0599988 137.9750012  36.4834997  43.1109988
 139.2770012  37.1984997  43.4049988 138.8424203  36.5038314  43.1136650
 144.3010012  31.6044997  49.5299988 143.8750012  31.3774997  50.3569988
 144.8810012  30.8664997  49.3479988 144.3211868  31.4735299  49.6185830
 135.0820012  23.3894997  51.4069988 134.1890012  23.7284997  51.3389988
 134.9830012  22.5344997  51.8249988 134.9464164  23.3202588  51.4542235
 134.7330012  35.1944997  49.8419988 134.9500012  34.2624997  49.8109988
 134.9790012  35.4684997  50.7249988 134.7959549  35.1040636  49.9571763
 140.5950012  33.6454997  37.0509988 140.8340012  32.8974997  36.5039988
 140.3260012  33.2574997  37.8839988 140.5913675  33.4906638  37.0886865
 139.5320012  33.2154997  39.5079988 139.6780012  32.6954997  40.2979988
 139.5290012  34.1224997  39.8139988 139.5515989  33.2668853  39.6576088
 135.9850012  30.4684997  40.0179988 135.2990012  30.8204997  40.5849988
 136.5070012  31.2314997  39.7709988 135.9616852  30.6198578  40.0622118
 143.8160012  23.1304997  50.2969988 144.5150012  23.2044997  50.9469988
 143.4350012  22.2664997  50.4509988 143.8601767  23.0237624  50.4068322
 144.6010012  22.7824997  41.3939988 144.8210012  23.2544997  40.5909988
 145.1590012  23.1774997  42.0639988 144.7064968  22.9004285  41.3747331
 142.2690012  34.9134997  40.2569988 141.4530012  35.4104997  40.3089988
 142.7990012  35.3884997  39.6169988 142.2289161  35.0457722  40.1775956
 141.8010012  24.5104997  42.2289988 142.6130012  25.0154997  42.2749988
 141.5560012  24.3654997  43.1429988 141.8790520  24.5600375  42.3588517
 142.3360012  25.4964997  51.4139988 142.4550012  26.0704997  52.1709988
 142.9920012  24.8084997  51.5279988 142.4409757  25.4821079  51.5330825
 142.6840012  21.5914997  43.1669988 142.3380012  22.2094997  43.8119988
 143.3430012  22.0924997  42.6859988 142.7257826  21.7435802  43.1900971
 139.6080012  35.9574997  40.2389988 139.7680012  36.7564997  39.7379988
 139.4100012  36.2634997  41.1239988 139.6031649  36.1084469  40.2899815
 138.3420012  22.6544997  39.8539988 138.2590012  23.5434997  40.2009988
 139.2320012  22.3894997  40.0859988 138.4509469  22.7401430  39.9327626
 136.6010012  33.0824997  38.9149988 137.1930012  33.7814997  39.1909988
 137.0600012  32.6494997  38.1949988 136.7441142  33.1197049  38.8554830
 134.9170012  25.7464997  38.0309988 134.8720012  26.6854997  38.2089988
 134.0290012  25.5104997  37.7609988 134.7908574  25.8431892  38.0188912
 135.7250012  20.5284997  46.7039988 135.4960012  20.5874997  45.7759988
 135.2820012  19.7364997  47.0099988 135.6338530  20.4295753  46.6184786
 134.6550012  34.4684997  42.8639988 133.8230012  34.9414997  42.8919988
 135.2010012  34.9784997  42.2659988 134.6149739  34.6021871  42.7869716
 133.9430012  37.0814997  54.1939988 134.4840012  36.8644997  54.9539988
 133.4620012  36.2754997  54.0049988 133.9519345  36.9429514  54.2723076
 138.5410012  36.0004997  55.8149988 139.3080012  35.5414997  56.1559988
 138.5190012  35.7744997  54.8849988 138.6431434  35.9070409  55.7360043
 142.6330012  35.5084997  37.1899988 141.9890012  34.8774997  37.5109988
 143.3950012  34.9774997  36.9579988 142.6478077  35.3502920  37.2026011
 133.8500012  30.8914997  55.1489988 133.9940012  29.9894997  54.8619988
 133.0780012  31.1774997  54.6609988 133.7653322  30.8068261  55.0437881
 138.1920012  31.2354997  37.2809988 138.2560012  30.4414997  37.8119988
 138.8450012  31.1164997  36.5909988 138.2890241  31.1107148  37.2604317
 140.5060012  30.8614997  54.5809988 140.1770012  31.1324997  53.7239988
 140.6580012  29.9204997  54.4939988 140.4814809  30.7713862  54.4518244
 143.5440012  32.2824997  37.0169988 143.2750012  32.4624997  37.9179988
 143.3380012  31.3564997  36.8859988 143.4793825  32.1820152  37.1225214
 134.6830012  28.0914997  54.5689988 135.0910012  27.2344997  54.4479988
 134.4230012  28.1064997  55.4899988 134.7037568  27.9760807  54.6769588
 139.3410012  29.2074997  39.5869988 138.8810012  28.7234997  40.2729988
 139.5960012  28.5394997  38.9509988 139.3124902  29.0508731  39.5949334
 138.6300012  27.1004997  51.9429988 138.0120012  27.7754997  52.2229988
 138.9740012  27.4214997  51.1099988 138.5919615  27.2362721  51.8686581
 140.4120012  27.4504997  37.8489988 140.2320012  27.2964997  36.9219988
 141.3620012  27.5584997  37.8939988 140.5157776  27.4440175  37.7281843
 143.6500012  29.5724997  55.2199988 144.6030012  29.6554997  55.1929988
 143.4890012  28.8604997  55.8399988 143.7586426  29.4876746  55.3000579
 138.9690012  24.4554997  53.0249988 139.1190012  23.7264997  52.4229988
 138.9720012  25.2324997  52.4659988 138.9899302  24.4607851  52.8670692
 139.3820012  22.8254997  50.5179988 139.9180012  23.2764997  49.8659988
 138.5300012  22.7174997  50.0949988 139.3402178  22.8726390  50.3715756
 140.9640012  28.2644997  50.7569988 141.7140012  28.1084997  50.1839988
 140.6250012  29.1164997  50.4819988 141.0208921  28.3582968  50.6413561
 137.4480012  25.6534997  54.9369988 136.6810012  25.1214997  54.7269988
 138.1270012  25.3434997  54.3369988 137.4347022  25.5387506  54.8271648
 140.1880012  20.2814997  50.9489988 140.0890012  21.2284997  50.8439988
 139.4450012  19.9094997  50.4739988 140.0740563  20.3605902  50.8704560
 141.4520012  24.6034997  54.5129988 141.2160012  24.3834997  55.4149988
 140.6680012  24.3964997  54.0029988 141.3138628  24.5454760  54.5673932
 144.1670012  23.7304997  53.5889988 143.2200012  23.7624997  53.7209988
 144.4800012  23.1054997  54.2419988 144.0795475  23.6503207  53.6954455
 135.6280012  23.5744997  54.6409988 135.8400012  22.8674997  54.0309988
 135.5170012  23.1364997  55.4849988 135.6419721  23.4187084  54.6716843
 140.4090012  19.5754997  53.6209988 141.1210012  18.9354997  53.6069988
 140.3080012  19.8424997  52.7069988 140.4927939  19.5239938  53.4955650
 140.7630012  21.2584997  55.6739988 140.6310012  20.7824997  54.8539988
 140.1640012  22.0024997  55.6189988 140.6639071  21.2939618  55.5542886
 140.3090012  38.1414997  38.8509988 141.2420012  38.2994997  38.9939988
 140.0450012  38.8164997  38.2259988 140.4009510  38.2543611  38.7860741
 133.8780012  32.7774997  38.3329988 134.7920012  32.8564997  38.6069988
 133.8850012  32.0904997  37.6669988 134.0041131  32.6953961  38.2804393
 132.5270012  38.1704997  43.4109988 131.8800012  37.7084997  42.8779988
 132.8810012  37.4984997  43.9929988 132.4863849  38.0164723  43.4167959
 133.3970012  36.2514997  45.2149988 133.0620012  35.3714997  45.3869988
 133.6190012  36.5964997  46.0799988 133.3811783  36.1777500  45.3554208
 133.4770012  29.3264997  47.6669988 133.6610012  29.2444997  46.7309988
 134.3260012  29.2024997  48.0909988 133.6170139  29.2985003  47.5961455
 133.0740012  24.5974997  53.8079988 133.9940012  24.4754997  54.0439988
 132.6250012  23.8474997  54.1969988 133.1391580  24.4793727  53.8929006
 134.2950012  22.9094997  46.6989988 134.7410012  22.1174997  47.0009988
 134.7620012  23.6254997  47.1299988 134.4190172  22.8980624  46.7984820
 132.5990012  25.9084997  47.7679988 133.0910012  25.6874997  46.9769988
 132.9620012  26.7494997  48.0489988 132.7153126  25.9918357  47.6977531
 132.9130012  22.1664997  41.8219988 131.9880012  22.3754997  41.6929988
 133.3670012  22.6504997  41.1329988 132.8477368  22.2605993  41.7111226
 132.8770012  20.9044997  50.1669988 132.2120012  20.6584997  50.8099988
 132.4340012  21.5264997  49.5889988 132.7260956  20.9548632  50.1769352
 135.0690012  34.0794997  54.3109988 134.2480012  34.2544997  53.8509988
 134.8160012  34.0064997  55.2319988 134.9226164  34.0935622  54.3724923
 138.0230012  35.0544997  50.5699988 137.5980012  35.8634997  50.2869988
 138.9270012  35.1394997  50.2679988 138.0870271  35.1768469  50.4903776
 142.3340012  36.4534997  53.5289988 142.5190012  36.1194997  54.4069988
 143.1800012  36.7624997  53.2069988 142.4737539  36.4496047  53.6055605
 144.6790012  37.7394997  52.7729988 145.3560012  37.1064997  52.5329988
 145.0010012  38.1404997  53.5799988 144.8151637  37.7071154  52.8492793
 135.4250012  38.3104997  50.6169988 134.7040012  38.7504997  50.1659988
 135.0590012  38.0594997  51.4659988 135.2769804  38.3367698  50.6699840
 137.8920012  37.9104997  49.6469988 137.0270012  37.9824997  50.0509988
 137.8370012  38.4574997  48.8629988 137.7662085  37.9942685  49.5963362
 142.6020012  37.7984997  48.8219988 142.1460012  38.3274997  48.1679988
 142.7650012  38.4014997  49.5479988 142.5615585  37.9524468  48.8305062
 134.8390012  36.9334997  47.5269988 134.8210012  36.5084997  48.3849988
 135.6440012  36.6154997  47.1189988 134.9453875  36.8323812  47.5891655
 136.9810012  35.6434997  46.1819988 136.7620012  34.7274997  46.3519988
 137.8050012  35.7834997  46.6479988 137.0624420  35.5370520  46.2682774
 139.5180012  36.1134997  47.0309988 139.7310012  35.2254997  46.7439988
 139.5820012  36.0794997  47.9849988 139.5558231  35.9873102  47.1207397
 143.0260012  21.7774997  46.1749988 142.3520012  21.1484997  46.4309988
 143.5900012  21.2934997  45.5719988 143.0099230  21.6258744  46.1285340
 135.3530012  20.4114997  43.9969988 134.5760012  20.1774997  43.4899988
 135.8830012  19.6144997  44.0059988 135.3182330  20.2716988  43.9287742
 134.1890012  20.2094997  39.8009988 134.6280012  20.8204997  39.2089988
 133.5560012  20.7474997  40.2749988 134.1634514  20.3659257  39.7840930
 139.9320012  20.3384997  43.8109988 140.8070012  20.7264997  43.7809988
 139.7960012  20.1234997  44.7329988 140.0333695  20.3625184  43.9316440
 134.0900012  36.1574997  40.6989988 133.4050012  36.1194997  40.0309988
 134.0940012  37.0704997  40.9869988 133.9968193  36.2757016  40.6465284
 136.0500012  22.1254997  38.2429988 136.5420012  21.4954997  37.7159988
 136.6740012  22.4214997  38.9069988 136.2015446  22.0793199  38.2605980
 141.0760012  22.4184997  40.6999988 141.2540012  21.7724997  41.3829988
 141.0230012  23.2524997  41.1679988 141.0931829  22.4427985  40.8565940
 142.9550012  37.3674997  39.0959988 143.8210012  37.7334997  38.9179988
 142.7080012  36.9274997  38.2819988 143.0402392  37.3581756  38.9616289
 135.3110012  20.9254997  53.5149988 134.9450012  20.1604997  53.9579988
 136.2240012  20.9544997  53.8019988 135.3842790  20.8247224  53.6144070
 137.2840012  20.2764997  55.0509988 138.1820012  20.0024997  54.8659988
 136.8970012  19.5334997  55.5149988 137.3546612  20.1385914  55.0883643
 135.9080012  37.0774997  37.7239988 135.6410012  37.3644997  38.5969988
 136.6800012  36.5314997  37.8759988 135.9757488  37.0430294  37.8641050
  12.4390012  48.4234997  43.9559988  12.5280012  49.3674997  43.8239988
  11.8010012  48.1484997  43.2979988  12.3649081  48.5154830  43.8489614
  11.3720012  47.6784997  47.3749988  11.3340012  47.0324997  48.0799988
  11.0500012  47.2124997  46.6039988  11.3232333  47.5269408  47.3672978
   3.7410012  47.2934997  48.9679988   3.7820012  46.6674997  49.6909988
   4.4440012  47.9174997  49.1499988   3.8416363  47.2921196  49.0916044
  15.0780012  50.6174997  45.6759988  14.6380012  49.8974997  46.1269988
  15.0650012  51.3384997  46.3059988  15.0160226  50.6163731  45.8228494
   4.6640012  51.7434997  47.5029988   4.2950012  50.9414997  47.1329988
   5.6050012  51.5744997  47.5489988   4.7407289  51.6110153  47.4586316
   1.2740012  45.4034997  42.8959988   0.8270012  46.2494997  42.8769988
   0.7130012  44.8234997  42.3799988   1.1369900  45.4409916  42.8236801
   1.9850012  47.5654997  45.0219988   2.1980012  46.7954997  45.5489988
   2.7230012  47.6544997  44.4179988   2.1138496  47.4721394  45.0125300
  12.1900012  55.7224997  45.8889988  12.8100012  55.0454997  45.6149988
  11.9820012  55.5044997  46.7969988  12.2466904  55.6003870  45.9743365
   9.7620012  50.1114997  47.7809988  10.0660012  49.4254997  47.1859988
  10.4830012  50.2294997  48.3989988   9.9010671  50.0336305  47.7831816
  18.4250012  41.7124997  48.6419988  18.4740012  42.3224997  49.3779988
  18.8500012  42.1734997  47.9189988  18.4891824  41.8583741  48.6450205
  12.9030012  44.5054997  48.1089988  13.0450012  43.5594997  48.1289988
  12.7960012  44.7124997  47.1799988  12.9079864  44.4039534  47.9862339
   6.0570012  42.6064997  45.3809988   6.1010012  43.4664997  44.9629988
   5.6000012  42.0544997  44.7469988   6.0012185  42.6495799  45.2380299
  13.7800012  42.7374997  43.7819988  14.4260012  42.4084997  44.4069988
  14.2900012  43.2554997  43.1589988  13.9374264  42.7624611  43.7833862
   2.6780012  45.0034997  46.1429988   3.3310012  44.4534997  46.5749988
   2.7020012  44.7294997  45.2259988   2.7706683  44.8911466  46.0782123
   7.8340012  46.5534997  45.3579988   8.4500012  46.0274997  45.8679988
   7.2480012  45.9134997  44.9549988   7.8390810  46.3949208  45.3733173
  18.8160012  43.1904997  50.8779988  18.1280012  43.8484997  50.7819988
  18.8320012  42.9934997  51.8139988  18.7238525  43.2540462  50.9914808
   4.8680012  41.5244997  49.4549988   4.6490012  42.0544997  48.6889988
   4.2000012  41.7514997  50.1019988   4.7477600  41.6276906  49.4376379
  12.2370012  51.0244997  42.9989988  11.9410012  50.7024997  42.1479988
  11.9120012  51.9244997  43.0399988  12.1526371  51.1020215  42.8881801
   7.4370012  49.2004997  49.7419988   6.6970012  49.7984997  49.8459988
   8.1510012  49.7544997  49.4269988   7.4322237  49.3572831  49.7136465
  15.5440012  42.0284997  45.7619988  15.3280012  41.2624997  46.2949988
  16.1990012  42.5004997  46.2749988  15.6030632  41.9875889  45.9042861
   4.4610012  43.4164997  47.4069988   5.0750012  44.0494997  47.7809988
   4.9730012  42.9444997  46.7509988   4.6142296  43.4392370  47.3694252
   5.8440012  51.1644997  50.5299988   5.8390012  52.0444997  50.1519988
   4.9910012  51.0814997  50.9549988   5.7279464  51.2736117  50.5357907
   1.9650012  50.8354997  41.3119988   1.6930012  51.0644997  40.4229988
   2.0110012  51.6734997  41.7719988   1.9340094  50.9801213  41.2525697
  15.5900012  52.4574997  48.0239988  14.6490012  52.5154997  48.1859988
  15.8670012  53.3634997  47.8869988  15.4984679  52.5879443  48.0276815
  15.8910012  40.7434997  49.4419988  15.1550012  41.3544997  49.4039988
  16.5740012  41.1584997  48.9149988  15.8826541  40.8831374  49.3655832
   8.8940012  38.8304997  46.9079988   8.7770012  37.8814997  46.8529988
   8.0390012  39.1624997  47.1809988   8.7623733  38.7455409  46.9373897
  13.8420012  54.2384997  44.6499988  14.2680012  53.5314997  44.1649988
  14.1590012  55.0394997  44.2329988  13.9431019  54.2500994  44.5273130
  15.0020012  52.1394997  43.1579988  14.7440012  51.4494997  42.5469988
  15.0730012  51.6964997  44.0039988  14.9762856  51.9852124  43.1886885
  16.6880012  50.7054997  51.6359988  16.8280012  50.1144997  50.8959988
  16.8550012  51.5784997  51.2789988  16.7296778  50.7426426  51.4866965
  11.1610012  47.6674997  41.4079988  10.4490012  48.2024997  41.0559988
  11.8520012  47.7234997  40.7479988  11.1570132  47.7482543  41.2706289
  11.2140012  46.1254997  38.4469988  11.9150012  46.1474997  39.0979988
  11.5170012  45.4974997  37.7909988  11.3507830  46.0436566  38.4473711
  18.5300012  47.0454997  49.7019988  17.8770012  47.7404997  49.7909988
  18.9950012  47.2554997  48.8919988  18.5035390  47.1689425  49.6046883
  14.5660012  47.8774997  42.3599988  13.8340012  48.1054997  42.9329988
  15.0140012  47.1634997  42.8149988  14.5263095  47.8122571  42.4999119
  14.4640012  46.0514997  51.4269988  14.5440012  46.8144997  51.9989988
  13.8620012  46.3304997  50.7369988  14.3935756  46.1937134  51.4120589
   6.2120012  48.5074997  44.2419988   5.8810012  48.1374997  43.4239988
   6.8000012  47.8374997  44.5889988   6.2461873  48.3661156  44.1768102
   7.5780012  51.9354997  46.9239988   7.4840012  51.3574997  46.1669988
   8.3080012  51.5644997  47.4199988   7.6637981  51.8062390  46.8874165
   6.5780012  47.2764997  47.8759988   7.1440012  47.3974997  47.1129988
   6.8970012  47.9134997  48.5149988   6.6985786  47.3791884  47.8580040
  12.8870012  52.7794997  48.6099988  12.6470012  53.4414997  49.2579988
  12.6890012  51.9454997  49.0349988  12.8273808  52.7573134  48.7561524
   7.4580012  51.6754997  52.5929988   7.1470012  52.4574997  53.0479988
   6.8080012  51.5224997  51.9069988   7.3275558  51.7619105  52.5625871
  13.4370012  47.0394997  40.0449988  14.0170012  47.1894997  40.7919988
  13.8510012  47.5104997  39.3219988  13.5722830  47.1236841  40.0494134
   4.3780012  47.8734997  51.8219988   4.4490012  48.5244997  52.5199988
   3.4880012  47.9764997  51.4869988   4.2673117  47.9765936  51.8722700
  11.1640012  53.7764997  43.4799988  11.6380012  54.0714997  44.2579988
  10.6010012  54.5144997  43.2469988  11.1527653  53.9166932  43.5550136
   5.6980012  53.7474997  53.3559988   5.7050012  53.6114997  52.4089988
   4.7820012  53.6294997  53.6079988   5.5751714  53.7129430  53.2604666
  17.1360012  38.7894997  39.8579988  16.2360012  38.9284997  40.1529988
  17.3880012  39.6204997  39.4559988  17.0468702  38.9209074  39.8440205
   5.2020012  47.5774997  41.8319988   4.9100012  48.3454997  41.3409988
   4.5280012  46.9174997  41.6689988   5.0709081  47.5934406  41.7427340
  18.3250012  53.1554997  38.2339988  18.3990012  54.0944997  38.4049988
  19.2310012  52.8504997  38.1779988  18.4575100  53.2426722  38.2498119
   1.2950012  49.9404997  50.6469988   0.7940012  49.9124997  49.8319988
   1.3000012  49.0344997  50.9559988   1.2271526  49.8142278  50.5772872
   1.0450012  52.7204997  47.5309988   1.9910012  52.5764997  47.5119988
   0.9330012  53.5044997  48.0679988   1.1592727  52.8068046  47.6010072
  19.2430012  53.3864997  53.2129988  19.1940012  52.4314997  53.1759988
  18.4160012  53.6544997  53.6139988  19.1244940  53.2918998  53.2621375
  10.2220012  52.9604997  52.0889988  10.3090012  53.7864997  52.5639988
   9.3580012  52.6304997  52.3379988  10.1171964  53.0289878  52.1876549
  10.6360012  56.7324997  41.8949988  10.5610012  56.6114997  40.9489988
  10.6690012  57.6824997  42.0139988  10.6301848  56.8442500  41.7814834
   4.2890012  55.5214997  43.6759988   4.4420012  55.1734997  44.5549988
   3.4390012  55.1654997  43.4209988   4.1948962  55.4256650  43.7618340
  13.7380012  55.8864997  38.8969988  14.1130012  55.1424997  38.4269988
  13.7420012  55.6164997  39.8159988  13.7898915  55.7481486  38.9567824
  13.4070012  55.8124997  41.6469988  12.4710012  55.9124997  41.8249988
  13.6870012  55.1034997  42.2249988  13.3168255  55.7302711  41.7495391
  16.3950012  44.8794997  53.6929988  15.9880012  45.3604997  52.9719988
  16.4360012  43.9744997  53.3849988  16.3448437  44.8229374  53.5526683
   3.5440012  51.2634997  51.6899988   3.7600012  50.9024997  52.5489988
   2.6890012  50.8894997  51.4799988   3.4579292  51.1634111  51.7793386
   6.1630012  39.7334997  47.6849988   5.3010012  39.6464997  47.2779988
   6.1400012  40.5894997  48.1129988   6.0420330  39.8372765  47.6871863
  10.8260012  39.4554997  51.0599988  11.2460012  39.0404997  51.8129988
   9.8930012  39.2774997  51.1769988  10.7573644  39.3745900  51.1789539
  14.1520012  43.2114997  51.9129988  13.6380012  43.0854997  52.7109988
  13.9970012  44.1234997  51.6689988  14.0606852  43.3176132  51.9892158
  14.9150012  48.0724997  37.6749988  14.9570012  47.8494997  36.7449988
  15.7640012  48.4714997  37.8649988  15.0355396  48.0959155  37.5733627
  10.4870012  41.9484997  38.3449988  10.2340012  41.9674997  39.2679988
  10.2310012  41.0764997  38.0439988  10.4177790  41.8332437  38.4306263
   6.2540012  44.6994997  48.7799988   5.6120012  44.6584997  49.4889988
   6.2910012  45.6254997  48.5429988   6.1711324  44.8191559  48.8449824
   6.2510012  44.9204997  43.6919988   5.3580012  44.5794997  43.6339988
   6.7010012  44.5434997  42.9369988   6.1897305  44.8228484  43.5819177
  11.7860012  45.3364997  42.5089988  11.3770012  46.1514997  42.2179988
  12.5070012  45.1964997  41.8949988  11.8274537  45.4292018  42.3861342
  10.8880012  45.5114997  53.9969988  10.3260012  44.8074997  54.3179988
  11.7150012  45.3914997  54.4649988  10.9227095  45.3987883  54.1042330
  12.7910012  44.7824997  45.3229988  12.5960012  45.3874997  44.6079988
  12.9720012  43.9484997  44.8889988  12.7887614  44.7526300  45.1664405
   4.0040012  45.0194997  50.6469988   3.9660012  45.4194997  51.5159988
   3.5130012  44.2024997  50.7379988   3.9324684  44.9638069  50.7781059
   7.3700012  42.3934997  37.4459988   6.9390012  41.9484997  38.1759988
   6.6520012  42.7654997  36.9339988   7.2139438  42.3828940  37.4766799
   0.6120012  42.1354997  44.4979988   1.2430012  42.1064997  45.2169988
   1.0610012  41.7104997  43.7679988   0.7590774  42.0740492  44.4976553
   1.8860012  42.8814997  39.9219988   2.3600012  43.4724997  39.3369988
   1.1690012  43.4124997  40.2689988   1.8539341  43.0340867  39.8888836
  12.0550012  46.4204997  49.9949988  12.3780012  45.7894997  49.3519988
  11.6150012  45.8854997  50.6549988  12.0396895  46.2618441  49.9962850
   8.8320012  42.3474997  44.7789988   7.9210012  42.4044997  45.0669988
   9.3380012  42.2874997  45.5889988   8.7755413  42.3471985  44.9280622
   3.6610012  43.9764997  43.6049988   2.7710012  44.0764997  43.2649988
   3.9570012  43.1344997  43.2589988   3.5792823  43.8763545  43.5117213
   7.3140012  43.9764997  41.2619988   8.2450012  44.1054997  41.4399988
   7.0990012  44.6464997  40.6119988   7.4124247  44.0846565  41.1985747
  13.2370012  41.5824997  48.0429988  12.5610012  41.7134997  48.7069988
  12.7520012  41.4274997  47.2329988  13.0787145  41.5794905  48.0244517
   5.9880012  45.1714997  38.8289988   5.4450012  44.7914997  38.1369988
   6.8210012  45.3654997  38.3999988   6.0264399  45.1458124  38.6764526
  16.5250012  57.2544997  54.3199988  16.7250012  57.6784997  53.4849988
  17.1800012  57.5974997  54.9269988  16.6410051  57.3589648  54.2877836
   4.1230012  49.7284997  53.9279988   4.8550012  49.9824997  54.4889988
   3.3430012  49.9324997  54.4429988   4.1178232  49.7909177  54.0745760
  10.1520012  45.1354997  46.6659988  10.7170012  44.5884997  46.1189988
  10.0050012  44.6134997  47.4539988  10.2092918  44.9902024  46.6978454
   5.1540012  41.2714997  43.0839988   4.8370012  40.3694997  43.0489988
   5.9360012  41.2734997  42.5309988   5.2162284  41.1481628  43.0044783
   8.7790012  43.5234997  49.0799988   7.9430012  43.9774997  49.1899988
   9.3030012  43.7994997  49.8319988   8.7354414  43.6229376  49.1967136
   9.3230012  49.7364997  40.7639988   8.5780012  49.2294997  40.4419988
   9.1890012  49.7854997  41.7109988   9.2028776  49.6736940  40.8478647
  16.4730012  48.8694997  49.5509988  17.1150012  49.3264997  49.0069988
  15.6430012  48.9824997  49.0879988  16.4485963  48.9472704  49.4140177
  13.2210012  42.5504997  38.9639988  12.2820012  42.6624997  38.8119988
  13.5180012  43.4074997  39.2699988  13.1327666  42.6816443  38.9845768
  10.8420012  49.9204997  52.0009988  10.4970012  49.5394997  52.8079988
  10.6420012  50.8544997  52.0729988  10.7678061  49.9945228  52.1210961
  13.9390012  44.4174997  40.6239988  14.8310012  44.2804997  40.9429988
  13.9960012  45.2084997  40.0879988  14.0686285  44.5056660  40.5951690
   4.4480012  49.0314997  46.5339988   5.1930012  49.0294997  45.9329988
   4.5260012  48.2084997  47.0159988   4.5605518  48.9199315  46.5168929
  11.4490012  51.1954997  39.7899988  11.1530012  52.0214997  40.1709988
  10.7460012  50.5754997  39.9859988  11.3134914  51.2248199  39.8686443
   1.4560012  47.4924997  51.8489988   1.6790012  47.0744997  52.6809988
   0.8540012  46.8794997  51.4259988   1.4051759  47.3524668  51.9057022
   8.4720012  47.0094997  54.0619988   8.1760012  46.8434997  53.1669988
   9.4040012  46.7894997  54.0509988   8.5574166  46.9570640  53.9380536
  13.0930012  52.3824997  51.9519988  12.1920012  52.5654997  51.6839988
  13.1270012  52.6414997  52.8729988  12.9743041  52.4425512  52.0398197
  18.8240012  44.6274997  40.3189988  18.2700012  44.2314997  39.6469988
  18.9240012  45.5374997  40.0409988  18.7617059  44.6963586  40.1894401
  18.7870012  50.4274997  53.1559988  17.9360012  50.6654997  52.7889988
  19.3780012  50.4104997  52.4029988  18.7502487  50.4578258  53.0038893
  17.1190012  53.4134997  40.7839988  16.7460012  52.5874997  41.0929988
  17.3970012  53.2304997  39.8869988  17.1055630  53.2757303  40.7049626
  14.2800012  48.2214997  47.8049988  13.3510012  47.9894997  47.7779988
  14.7310012  47.4444997  47.4749988  14.2139216  48.0847238  47.7566917
   6.8230012  52.5494997  43.9379988   7.3500012  53.3224997  43.7379988
   5.9430012  52.7744997  43.6369988   6.7761773  52.6858005  43.8699010
   2.5780012  47.4114997  38.5249988   3.1940012  48.0384997  38.9049988
   1.7160012  47.7274997  38.7969988   2.5457698  47.5399430  38.6137183
   8.2500012  50.2124997  43.5149988   8.0090012  51.1374997  43.5559988
   7.5090012  49.7534997  43.9109988   8.1168409  50.2771421  43.5741377
   8.7650012  54.3614997  49.8299988   9.1270012  55.2164997  49.5959988
   9.2960012  54.0694997  50.5699988   8.8864473  54.4391060  49.8980855
   6.9330012  55.2344997  43.0599988   5.9830012  55.3394997  43.1109988
   7.2850012  56.0544997  43.4049988   6.8504203  55.3598314  43.1136650
  12.3090012  50.4604997  49.5299988  11.8830012  50.2334997  50.3569988
  12.8890012  49.7224997  49.3479988  12.3291868  50.3295299  49.6185830
  14.5120012  51.3894997  38.6039988  14.8650012  51.0094997  39.4089988
  13.5630012  51.2964997  38.6909988  14.4320441  51.3249596  38.7258559
  14.9670012  55.0124997  51.9999988  14.3660012  54.4574997  51.5039988
  15.2490012  55.6794997  51.3739988  14.9228519  55.0266841  51.8474952
  19.0150012  55.8694997  38.8049988  19.7590012  56.4554997  38.6649988
  18.3210012  56.4374997  39.1389988  19.0230292  56.0265582  38.8309961
   3.0900012  42.2454997  51.4069988   2.1970012  42.5844997  51.3389988
   2.9910012  41.3904997  51.8249988   2.9544164  42.1762588  51.4542235
  15.3780012  50.0624997  40.8309988  15.1000012  49.3344997  41.3869988
  16.3050012  50.1814997  41.0359988  15.4653124  49.9788802  40.9348845
   2.7410012  54.0504997  49.8419988   2.9580012  53.1184997  49.8109988
   2.9870012  54.3244997  50.7249988   2.8039549  53.9600636  49.9571763
   8.6030012  52.5014997  37.0509988   8.8420012  51.7534997  36.5039988
   8.3340012  52.1134997  37.8839988   8.5993675  52.3466638  37.0886865
   7.5400012  52.0714997  39.5079988   7.6860012  51.5514997  40.2979988
   7.5370012  52.9784997  39.8139988   7.5595989  52.1228853  39.6576088
   3.9930012  49.3244997  40.0179988   3.3070012  49.6764997  40.5849988
   4.5150012  50.0874997  39.7709988   3.9696852  49.4758578  40.0622118
  11.8240012  41.9864997  50.2969988  12.5230012  42.0604997  50.9469988
  11.4430012  41.1224997  50.4509988  11.8681767  41.8797624  50.4068322
  12.6090012  41.6384997  41.3939988  12.8290012  42.1104997  40.5909988
  13.1670012  42.0334997  42.0639988  12.7144968  41.7564285  41.3747331
  10.2770012  53.7694997  40.2569988   9.4610012  54.2664997  40.3089988
  10.8070012  54.2444997  39.6169988  10.2369161  53.9017722  40.1775956
   9.8090012  43.3664997  42.2289988  10.6210012  43.8714997  42.2749988
   9.5640012  43.2214997  43.1429988   9.8870520  43.4160375  42.3588517
  10.3440012  44.3524997  51.4139988  10.4630012  44.9264997  52.1709988
  11.0000012  43.6644997  51.5279988  10.4489757  44.3381079  51.5330825
  10.6920012  40.4474997  43.1669988  10.3460012  41.0654997  43.8119988
  11.3510012  40.9484997  42.6859988  10.7337826  40.5995802  43.1900971
   7.6160012  54.8134997  40.2389988   7.7760012  55.6124997  39.7379988
   7.4180012  55.1194997  41.1239988   7.6111649  54.9644469  40.2899815
   6.3500012  41.5104997  39.8539988   6.2670012  42.3994997  40.2009988
   7.2400012  41.2454997  40.0859988   6.4589469  41.5961430  39.9327626
  16.5490012  42.2594997  52.2489988  15.6320012  42.5224997  52.1609988
  16.8840012  42.2564997  51.3519988  16.4689900  42.2950224  52.1157919
  15.1510012  46.0104997  46.3439988  14.3530012  45.5954997  46.0159988
  15.5960012  45.3194997  46.8349988  15.1019885  45.8603543  46.3654889
   4.6090012  51.9384997  38.9149988   5.2010012  52.6374997  39.1909988
   5.0680012  51.5054997  38.1949988   4.7521142  51.9757049  38.8554830
   2.9250012  44.6024997  38.0309988   2.8800012  45.5414997  38.2089988
   2.0370012  44.3664997  37.7609988   2.7988574  44.6991892  38.0188912
  16.2370012  55.2664997  47.9669988  16.0820012  55.9444997  47.3099988
  17.1700012  55.3384997  48.1699988  16.3418500  55.3690170  47.9045119
   3.7330012  39.3844997  46.7039988   3.5040012  39.4434997  45.7759988
   3.2900012  38.5924997  47.0099988   3.6418530  39.2855753  46.6184786
   2.6630012  53.3244997  42.8639988   1.8310012  53.7974997  42.8919988
   3.2090012  53.8344997  42.2659988   2.6229739  53.4581871  42.7869716
   1.9510012  55.9374997  54.1939988   2.4920012  55.7204997  54.9539988
   1.4700012  55.1314997  54.0049988   1.9599345  55.7989514  54.2723076
   6.5490012  54.8564997  55.8149988   7.3160012  54.3974997  56.1559988
   6.5270012  54.6304997  54.8849988   6.6511434  54.7630409  55.7360043
  10.6410012  54.3644997  37.1899988   9.9970012  53.7334997  37.5109988
  11.4030012  53.8334997  36.9579988  10.6558077  54.2062920  37.2026011
  13.1260012  53.2364997  54.5439988  12.7750012  52.3804997  54.7869988
  13.8520012  53.3794997  55.1509988  13.1760769  53.1385636  54.6593619
  15.2450012  54.1814997  37.4239988  15.5280012  53.3874997  37.8759988
  15.9850012  54.4144997  36.8629988  15.3837486  54.1042803  37.4100698
   1.8580012  49.7474997  55.1489988   2.0020012  48.8454997  54.8619988
   1.0860012  50.0334997  54.6609988   1.7733322  49.6628261  55.0437881
   6.2000012  50.0914997  37.2809988   6.2640012  49.2974997  37.8119988
   6.8530012  49.9724997  36.5909988   6.2970241  49.9667148  37.2604317
   8.5140012  49.7174997  54.5809988   8.1850012  49.9884997  53.7239988
   8.6660012  48.7764997  54.4939988   8.4894809  49.6273862  54.4518244
  11.5520012  51.1384997  37.0169988  11.2830012  51.3184997  37.9179988
  11.3460012  50.2124997  36.8859988  11.4873825  51.0380152  37.1225214
  14.2480012  49.6334997  51.9649988  14.9940012  50.2214997  51.8449988
  13.4910012  50.2154997  52.0279988  14.2477554  49.7927011  51.9570907
   2.6910012  46.9474997  54.5689988   3.0990012  46.0904997  54.4479988
   2.4310012  46.9624997  55.4899988   2.7117568  46.8320807  54.6769588
   7.3490012  48.0634997  39.5869988   6.8890012  47.5794997  40.2729988
   7.6040012  47.3954997  38.9509988   7.3204902  47.9068731  39.5949334
   6.6380012  45.9564997  51.9429988   6.0200012  46.6314997  52.2229988
   6.9820012  46.2774997  51.1099988   6.5999615  46.0922721  51.8686581
   8.4200012  46.3064997  37.8489988   8.2400012  46.1524997  36.9219988
   9.3700012  46.4144997  37.8939988   8.5237776  46.3000175  37.7281843
  11.6580012  48.4284997  55.2199988  12.6110012  48.5114997  55.1929988
  11.4970012  47.7164997  55.8399988  11.7666426  48.3436746  55.3000579
  17.8100012  48.6614997  37.2949988  17.5360012  48.2364997  36.4819988
  17.8490012  49.5924997  37.0779988  17.7777699  48.7292484  37.1543610
   6.9770012  43.3114997  53.0249988   7.1270012  42.5824997  52.4229988
   6.9800012  44.0884997  52.4659988   6.9979302  43.3167851  52.8670692
   7.3900012  41.6814997  50.5179988   7.9260012  42.1324997  49.8659988
   6.5380012  41.5734997  50.0949988   7.3482178  41.7286390  50.3715756
   8.9720012  47.1204997  50.7569988   9.7220012  46.9644997  50.1839988
   8.6330012  47.9724997  50.4819988   9.0288921  47.2142968  50.6413561
  13.3870012  44.9354997  55.7859988  13.5800012  44.0044997  55.6739988
  14.2450012  45.3604997  55.7759988  13.5293020  44.8656389  55.7693361
  14.7040012  47.7244997  53.8629988  14.4230012  48.4334997  53.2859988
  15.6470012  47.6514997  53.7119988  14.7929027  47.8117646  53.7635551
   5.4560012  44.5094997  54.9369988   4.6890012  43.9774997  54.7269988
   6.1350012  44.1994997  54.3369988   5.4427022  44.3947506  54.8271648
   8.1960012  39.1374997  50.9489988   8.0970012  40.0844997  50.8439988
   7.4530012  38.7654997  50.4739988   8.0820564  39.2165902  50.8704560
   9.4600012  43.4594997  54.5129988   9.2240012  43.2394997  55.4149988
   8.6760012  43.2524997  54.0029988   9.3218628  43.4014760  54.5673932
  12.1750012  42.5864997  53.5889988  11.2280012  42.6184997  53.7209988
  12.4880012  41.9614997  54.2419988  12.0875475  42.5063207  53.6954455
  13.8090012  41.2204997  55.5939988  13.7130012  40.2684997  55.5879988
  13.4880012  41.4894997  56.4539988  13.7524070  41.1264035  55.7095441
   3.6360012  42.4304997  54.6409988   3.8480012  41.7234997  54.0309988
   3.5250012  41.9924997  55.4849988   3.6499721  42.2747084  54.6716843
   8.4170012  38.4314997  53.6209988   9.1290012  37.7914997  53.6069988
   8.3160012  38.6984997  52.7069988   8.5007939  38.3799938  53.4955650
   8.7710012  40.1144997  55.6739988   8.6390012  39.6384997  54.8539988
   8.1720012  40.8584997  55.6189988   8.6719071  40.1499618  55.5542886
   8.3170012  56.9974997  38.8509988   9.2500012  57.1554997  38.9939988
   8.0530012  57.6724997  38.2259988   8.4089510  57.1103611  38.7860741
   1.8860012  51.6334997  38.3329988   2.8000012  51.7124997  38.6069988
   1.8930012  50.9464997  37.6669988   2.0121131  51.5513961  38.2804393
   0.5350012  57.0264997  43.4109988  -0.1119988  56.5644997  42.8779988
   0.8890012  56.3544997  43.9929988   0.4943849  56.8724723  43.4167959
   1.4050012  55.1074997  45.2149988   1.0700012  54.2274997  45.3869988
   1.6270012  55.4524997  46.0799988   1.3891783  55.0337500  45.3554208
  18.9530012  55.9164997  48.1959988  18.9320012  56.1014997  49.1349988
  19.6440012  56.4854997  47.8549988  19.0434618  56.0186606  48.2783864
  18.5170012  55.4844997  51.1179988  18.0290012  54.7484997  50.7469988
  19.0660012  55.0904997  51.7959988  18.5244872  55.3306249  51.1589160
  16.9670012  51.2734997  55.7559988  16.1010012  51.1684997  56.1499988
  17.3440012  52.0324997  56.2019988  16.8993308  51.3616900  55.8702393
  18.2680012  49.5304997  41.2699988  19.1180012  49.9514997  41.3969988
  18.2740012  48.7904997  41.8769988  18.3851372  49.4880803  41.3694344
  18.6630012  47.5834997  43.0939988  17.9360012  47.1044997  43.4909988
  19.2440012  47.7894997  43.8259988  18.6419375  47.5457090  43.2474129
  18.4220012  50.3684997  48.0409988  19.2550012  49.9904997  47.7609988
  18.5340012  51.3114997  47.9219988  18.5512647  50.4442218  47.9865487
  16.9080012  53.2464997  50.3479988  16.2610012  53.5714997  50.9739988
  16.3910012  52.8064997  49.6739988  16.7494029  53.2315004  50.3425827
  18.9310012  47.4844997  39.4849988  18.4090012  47.8414997  38.7659988
  18.8980012  48.1594997  40.1629988  18.8551634  47.6245413  39.4783145
  17.2800012  44.7244997  38.0359988  17.3760012  45.3914997  37.3549988
  17.1400012  43.9084997  37.5539988  17.2742135  44.7054500  37.8778491
  16.4490012  46.1044997  43.6569988  16.2990012  45.1594997  43.6359988
  16.0960012  46.3854997  44.4999988  16.3806625  46.0130441  43.7682346
   1.4850012  48.1824997  47.6669988   1.6690012  48.1004997  46.7309988
   2.3340012  48.0584997  48.0909988   1.6250139  48.1545003  47.5961455
  17.3060012  48.0744997  53.2949988  17.8890012  47.3404997  53.4869988
  17.8700012  48.8464997  53.3419988  17.4619769  48.0784227  53.3276159
  18.8020012  45.9774997  53.9799988  17.9390012  45.5984997  53.8139988
  19.4070012  45.2384997  53.9059988  18.7655979  45.8258023  53.9472817
  16.5270012  42.1324997  37.1529988  17.1380012  41.7614997  37.7899988
  15.6910012  41.7114997  37.3489988  16.4975032  42.0247554  37.2667035
  16.1600012  43.6874997  42.1189988  16.4400012  42.7804997  42.2429988
  16.9190012  44.1214997  41.7299988  16.3009277  43.6220942  42.0833682
  16.7720012  44.2684997  47.5549988  17.7050012  44.4804997  47.5209988
  16.5370012  44.3704997  48.4769988  16.8678036  44.3112769  47.6749976
  16.8010012  45.0054997  50.3309988  15.9580012  45.2734997  50.6969988
  17.2430012  45.8274997  50.1199988  16.7454158  45.1533291  50.3525491
   1.0820012  43.4534997  53.8079988   2.0020012  43.3314997  54.0439988
   0.6330012  42.7034997  54.1969988   1.1471580  43.3353727  53.8929006
  19.0840012  38.9854997  55.6839988  19.4340012  38.3314997  55.0789988
  19.2310012  39.8224997  55.2449988  19.1518419  39.0091591  55.5417118
  16.7730012  40.9504997  42.1669988  16.9560012  40.5014997  42.9929988
  16.1740012  40.3654997  41.7039988  16.7170202  40.8099975  42.2173275
   2.3030012  41.7654997  46.6989988   2.7490012  40.9734997  47.0009988
   2.7700012  42.4814997  47.1299988   2.4270172  41.7540624  46.7984820
   0.6070012  44.7644997  47.7679988   1.0990012  44.5434997  46.9769988
   0.9700012  45.6054997  48.0489988   0.7233126  44.8478357  47.6977531
  18.6040012  41.0944997  54.0339988  17.6860012  41.3654997  53.9979988
  18.7270012  40.5594997  53.2489988  18.4951066  41.0592892  53.9230487
  18.6400012  41.0174997  38.6949988  19.0520012  40.2964997  38.2199988
  19.3220012  41.6874997  38.7539988  18.7885885  41.0092368  38.6378915
   0.9210012  41.0224997  41.8219988  -0.0039988  41.2314997  41.6929988
   1.3750012  41.5064997  41.1329988   0.8557368  41.1165993  41.7111226
  15.6920012  56.0064997  43.7679988  16.3440012  55.6594997  43.1599988
  16.2020012  56.4954997  44.4139988  15.8502637  56.0250597  43.7720236
   0.8850012  39.7604997  50.1669988   0.2200012  39.5144997  50.8099988
   0.4420012  40.3824997  49.5889988   0.7340956  39.8108632  50.1769352
   3.0770012  52.9354997  54.3109988   2.2560012  53.1104997  53.8509988
   2.8240012  52.8624997  55.2319988   2.9306164  52.9495622  54.3724923
   6.0310012  53.9104997  50.5699988   5.6060012  54.7194997  50.2869988
   6.9350012  53.9954997  50.2679988   6.0950271  54.0328469  50.4903776
  10.3420012  55.3094997  53.5289988  10.5270012  54.9754997  54.4069988
  11.1880012  55.6184997  53.2069988  10.4817539  55.3056047  53.6055605
  12.6870012  56.5954997  52.7729988  13.3640012  55.9624997  52.5329988
  13.0090012  56.9964997  53.5799988  12.8231637  56.5631154  52.8492793
  17.6040012  39.1844997  51.8529988  16.7920012  39.5094997  51.4649988
  17.8370012  38.4244997  51.3199988  17.5243423  39.1262436  51.7278253
   3.4330012  57.1664997  50.6169988   2.7120012  57.6064997  50.1659988
   3.0670012  56.9154997  51.4659988   3.2849804  57.1927698  50.6699840
   5.9000012  56.7664997  49.6469988   5.0350012  56.8384997  50.0509988
   5.8450012  57.3134997  48.8629988   5.7742085  56.8502685  49.5963362
  10.6100012  56.6544997  48.8219988  10.1540012  57.1834997  48.1679988
  10.7730012  57.2574997  49.5479988  10.5695585  56.8084468  48.8305062
  12.9380012  55.5324997  49.7669988  12.0330012  55.6974997  49.5019988
  13.3670012  56.3854997  49.7019988  12.8720799  55.6704483  49.7219182
  15.5420012  57.1024997  50.0619988  15.3600012  58.0184997  49.8519988
  15.7190012  56.6924997  49.2159988  15.5410210  57.1724822  49.9187885
   2.8470012  55.7894997  47.5269988   2.8290012  55.3644997  48.3849988
   3.6520012  55.4714997  47.1189988   2.9533875  55.6883812  47.5891655
   4.9890012  54.4994997  46.1819988   4.7700012  53.5834997  46.3519988
   5.8130012  54.6394997  46.6479988   5.0704420  54.3930520  46.2682774
   7.5260012  54.9694997  47.0309988   7.7390012  54.0814997  46.7439988
   7.5900012  54.9354997  47.9849988   7.5638231  54.8433102  47.1207397
  11.0340012  40.6334997  46.1749988  10.3600012  40.0044997  46.4309988
  11.5980012  40.1494997  45.5719988  11.0179230  40.4818744  46.1285340
  16.1770012  38.7414997  46.2879988  16.7810012  39.2884997  45.7859988
  15.3070012  39.0604997  46.0479988  16.1421241  38.8595806  46.1867654
  17.9040012  39.8794997  44.6209988  18.5160012  39.3654997  44.0949988
  18.2860012  40.7574997  44.6449988  18.0394540  39.9277140  44.5521830
   3.3610012  39.2674997  43.9969988   2.5840012  39.0334997  43.4899988
   3.8910012  38.4704997  44.0059988   3.3262330  39.1276988  43.9287742
   2.1970012  39.0654997  39.8009988   2.6360012  39.6764997  39.2089988
   1.5640012  39.6034997  40.2749988   2.1714514  39.2219257  39.7840930
   7.9400012  39.1944997  43.8109988   8.8150012  39.5824997  43.7809988
   7.8040012  38.9794997  44.7329988   8.0413695  39.2185184  43.9316440
  13.4970012  39.2244997  45.4599988  13.5730012  39.3194997  44.5099988
  13.2220012  38.3164997  45.5889988  13.4702321  39.1147867  45.3475079
  14.8500012  39.2504997  41.1519988  14.1480012  39.8654997  40.9429988
  14.4060012  38.4124997  41.2829988  14.6936330  39.2215783  41.1410328
   2.0980012  55.0134997  40.6989988   1.4130012  54.9754997  40.0309988
   2.1020012  55.9264997  40.9869988   2.0048193  55.1317016  40.6465284
   4.0580012  40.9814997  38.2429988   4.5500012  40.3514997  37.7159988
   4.6820012  41.2774997  38.9069988   4.2095446  40.9353199  38.2605980
   9.0840012  41.2744997  40.6999988   9.2620012  40.6284997  41.3829988
   9.0310012  42.1084997  41.1679988   9.1011829  41.2987985  40.8565940
  10.9630012  56.2234997  39.0959988  11.8290012  56.5894997  38.9179988
  10.7160012  55.7834997  38.2819988  11.0482392  56.2141756  38.9616289
  17.6720012  55.7864997  41.7749988  17.4770012  55.0384997  41.2099988
  17.6330012  56.5444997  41.1919988  17.6400380  55.7866099  41.6188384
   3.3190012  39.7814997  53.5149988   2.9530012  39.0164997  53.9579988
   4.2320012  39.8104997  53.8019988   3.3922790  39.6807224  53.6144070
   5.2920012  39.1324997  55.0509988   6.1900012  38.8584997  54.8659988
   4.9050012  38.3894997  55.5149988   5.3626612  38.9945914  55.0883643
   3.9160012  55.9334997  37.7239988   3.6490012  56.2204997  38.5969988
   4.6880012  55.3874997  37.8759988   3.9837488  55.8990294  37.8641050
  13.7130012  38.4644997  55.2329988  13.7900012  38.0384997  56.0869988
  14.6070012  38.4784997  54.8899988  13.8443428  38.4080880  55.3035310
  16.8890012  54.5374997  53.9249988  16.1070012  54.3514997  53.4059988
  16.8170012  55.4664997  54.1429988  16.7721777  54.6376492  53.8834048
  31.2950012  48.4234997  43.9559988  31.3840012  49.3674997  43.8239988
  30.6570012  48.1484997  43.2979988  31.2209081  48.5154830  43.8489614
  30.2280012  47.6784997  47.3749988  30.1900012  47.0324997  48.0799988
  29.9060012  47.2124997  46.6039988  30.1792333  47.5269408  47.3672978
  22.5970012  47.2934997  48.9679988  22.6380012  46.6674997  49.6909988
  23.3000012  47.9174997  49.1499988  22.6976363  47.2921196  49.0916044
  33.9340012  50.6174997  45.6759988  33.4940012  49.8974997  46.1269988
  33.9210012  51.3384997  46.3059988  33.8720226  50.6163731  45.8228494
  23.5200012  51.7434997  47.5029988  23.1510012  50.9414997  47.1329988
  24.4610012  51.5744997  47.5489988  23.5967289  51.6110153  47.4586316
  20.1300012  45.4034997  42.8959988  19.6830012  46.2494997  42.8769988
  19.5690012  44.8234997  42.3799988  19.9929900  45.4409916  42.8236801
  20.8410012  47.5654997  45.0219988  21.0540012  46.7954997  45.5489988
  21.5790012  47.6544997  44.4179988  20.9698496  47.4721394  45.0125300
  31.0460012  55.7224997  45.8889988  31.6660012  55.0454997  45.6149988
  30.8380012  55.5044997  46.7969988  31.1026904  55.6003870  45.9743365
  28.6180012  50.1114997  47.7809988  28.9220012  49.4254997  47.1859988
  29.3390012  50.2294997  48.3989988  28.7570671  50.0336305  47.7831816
  37.2810012  41.7124997  48.6419988  37.3300012  42.3224997  49.3779988
  37.7060012  42.1734997  47.9189988  37.3451824  41.8583741  48.6450205
  31.7590012  44.5054997  48.1089988  31.9010012  43.5594997  48.1289988
  31.6520012  44.7124997  47.1799988  31.7639864  44.4039534  47.9862339
  24.9130012  42.6064997  45.3809988  24.9570012  43.4664997  44.9629988
  24.4560012  42.0544997  44.7469988  24.8572185  42.6495799  45.2380299
  32.6360012  42.7374997  43.7819988  33.2820012  42.4084997  44.4069988
  33.1460012  43.2554997  43.1589988  32.7934264  42.7624611  43.7833862
  21.5340012  45.0034997  46.1429988  22.1870012  44.4534997  46.5749988
  21.5580012  44.7294997  45.2259988  21.6266683  44.8911466  46.0782123
  26.6900012  46.5534997  45.3579988  27.3060012  46.0274997  45.8679988
  26.1040012  45.9134997  44.9549988  26.6950810  46.3949208  45.3733173
  37.6720012  43.1904997  50.8779988  36.9840012  43.8484997  50.7819988
  37.6880012  42.9934997  51.8139988  37.5798525  43.2540462  50.9914808
  23.7240012  41.5244997  49.4549988  23.5050012  42.0544997  48.6889988
  23.0560012  41.7514997  50.1019988  23.6037600  41.6276906  49.4376379
  31.0930012  51.0244997  42.9989988  30.7970012  50.7024997  42.1479988
  30.7680012  51.9244997  43.0399988  31.0086371  51.1020215  42.8881801
  26.2930012  49.2004997  49.7419988  25.5530012  49.7984997  49.8459988
  27.0070012  49.7544997  49.4269988  26.2882237  49.3572831  49.7136465
  34.4000012  42.0284997  45.7619988  34.1840012  41.2624997  46.2949988
  35.0550012  42.5004997  46.2749988  34.4590632  41.9875889  45.9042861
  23.3170012  43.4164997  47.4069988  23.9310012  44.0494997  47.7809988
  23.8290012  42.9444997  46.7509988  23.4702296  43.4392370  47.3694252
  24.7000012  51.1644997  50.5299988  24.6950012  52.0444997  50.1519988
  23.8470012  51.0814997  50.9549988  24.5839464  51.2736117  50.5357907
  20.8210012  50.8354997  41.3119988  20.5490012  51.0644997  40.4229988
  20.8670012  51.6734997  41.7719988  20.7900094  50.9801213  41.2525697
  34.4460012  52.4574997  48.0239988  33.5050012  52.5154997  48.1859988
  34.7230012  53.3634997  47.8869988  34.3544679  52.5879443  48.0276815
  34.7470012  40.7434997  49.4419988  34.0110012  41.3544997  49.4039988
  35.4300012  41.1584997  48.9149988  34.7386541  40.8831374  49.3655832
  27.7500012  38.8304997  46.9079988  27.6330012  37.8814997  46.8529988
  26.8950012  39.1624997  47.1809988  27.6183733  38.7455409  46.9373897
  32.6980012  54.2384997  44.6499988  33.1240012  53.5314997  44.1649988
  33.0150012  55.0394997  44.2329988  32.7991019  54.2500994  44.5273130
  33.8580012  52.1394997  43.1579988  33.6000012  51.4494997  42.5469988
  33.9290012  51.6964997  44.0039988  33.8322856  51.9852124  43.1886885
  35.5440012  50.7054997  51.6359988  35.6840012  50.1144997  50.8959988
  35.7110012  51.5784997  51.2789988  35.5856778  50.7426426  51.4866965
  30.0170012  47.6674997  41.4079988  29.3050012  48.2024997  41.0559988
  30.7080012  47.7234997  40.7479988  30.0130132  47.7482543  41.2706289
  30.0700012  46.1254997  38.4469988  30.7710012  46.1474997  39.0979988
  30.3730012  45.4974997  37.7909988  30.2067830  46.0436566  38.4473711
  37.3860012  47.0454997  49.7019988  36.7330012  47.7404997  49.7909988
  37.8510012  47.2554997  48.8919988  37.3595390  47.1689425  49.6046883
  33.4220012  47.8774997  42.3599988  32.6900012  48.1054997  42.9329988
  33.8700012  47.1634997  42.8149988  33.3823095  47.8122571  42.4999119
  33.3200012  46.0514997  51.4269988  33.4000012  46.8144997  51.9989988
  32.7180012  46.3304997  50.7369988  33.2495756  46.1937134  51.4120589
  25.0680012  48.5074997  44.2419988  24.7370012  48.1374997  43.4239988
  25.6560012  47.8374997  44.5889988  25.1021873  48.3661156  44.1768102
  26.4340012  51.9354997  46.9239988  26.3400012  51.3574997  46.1669988
  27.1640012  51.5644997  47.4199988  26.5197981  51.8062390  46.8874165
  25.4340012  47.2764997  47.8759988  26.0000012  47.3974997  47.1129988
  25.7530012  47.9134997  48.5149988  25.5545786  47.3791884  47.8580040
  31.7430012  52.7794997  48.6099988  31.5030012  53.4414997  49.2579988
  31.5450012  51.9454997  49.0349988  31.6833808  52.7573134  48.7561524
  26.3140012  51.6754997  52.5929988  26.0030012  52.4574997  53.0479988
  25.6640012  51.5224997  51.9069988  26.1835558  51.7619105  52.5625871
  32.2930012  47.0394997  40.0449988  32.8730012  47.1894997  40.7919988
  32.7070012  47.5104997  39.3219988  32.4282831  47.1236841  40.0494134
  23.2340012  47.8734997  51.8219988  23.3050012  48.5244997  52.5199988
  22.3440012  47.9764997  51.4869988  23.1233117  47.9765936  51.8722700
  30.0200012  53.7764997  43.4799988  30.4940012  54.0714997  44.2579988
  29.4570012  54.5144997  43.2469988  30.0087653  53.9166932  43.5550136
  24.5540012  53.7474997  53.3559988  24.5610012  53.6114997  52.4089988
  23.6380012  53.6294997  53.6079988  24.4311714  53.7129430  53.2604666
  35.9920012  38.7894997  39.8579988  35.0920012  38.9284997  40.1529988
  36.2440012  39.6204997  39.4559988  35.9028702  38.9209074  39.8440205
  24.0580012  47.5774997  41.8319988  23.7660012  48.3454997  41.3409988
  23.3840012  46.9174997  41.6689988  23.9269081  47.5934406  41.7427340
  37.1810012  53.1554997  38.2339988  37.2550012  54.0944997  38.4049988
  38.0870012  52.8504997  38.1779988  37.3135100  53.2426722  38.2498119
  20.1510012  49.9404997  50.6469988  19.6500012  49.9124997  49.8319988
  20.1560012  49.0344997  50.9559988  20.0831526  49.8142278  50.5772872
  19.9010012  52.7204997  47.5309988  20.8470012  52.5764997  47.5119988
  19.7890012  53.5044997  48.0679988  20.0152727  52.8068046  47.6010072
  38.0990012  53.3864997  53.2129988  38.0500012  52.4314997  53.1759988
  37.2720012  53.6544997  53.6139988  37.9804940  53.2918998  53.2621375
  29.0780012  52.9604997  52.0889988  29.1650012  53.7864997  52.5639988
  28.2140012  52.6304997  52.3379988  28.9731964  53.0289878  52.1876549
  29.4920012  56.7324997  41.8949988  29.4170012  56.6114997  40.9489988
  29.5250012  57.6824997  42.0139988  29.4861848  56.8442500  41.7814834
  23.1450012  55.5214997  43.6759988  23.2980012  55.1734997  44.5549988
  22.2950012  55.1654997  43.4209988  23.0508962  55.4256650  43.7618340
  32.5940012  55.8864997  38.8969988  32.9690012  55.1424997  38.4269988
  32.5980012  55.6164997  39.8159988  32.6458915  55.7481486  38.9567824
  32.2630012  55.8124997  41.6469988  31.3270012  55.9124997  41.8249988
  32.5430012  55.1034997  42.2249988  32.1728255  55.7302711  41.7495391
  35.2510012  44.8794997  53.6929988  34.8440012  45.3604997  52.9719988
  35.2920012  43.9744997  53.3849988  35.2008437  44.8229374  53.5526683
  22.4000012  51.2634997  51.6899988  22.6160012  50.9024997  52.5489988
  21.5450012  50.8894997  51.4799988  22.3139292  51.1634111  51.7793386
  25.0190012  39.7334997  47.6849988  24.1570012  39.6464997  47.2779988
  24.9960012  40.5894997  48.1129988  24.8980330  39.8372765  47.6871863
  29.6820012  39.4554997  51.0599988  30.1020012  39.0404997  51.8129988
  28.7490012  39.2774997  51.1769988  29.6133644  39.3745900  51.1789539
  33.0080012  43.2114997  51.9129988  32.4940012  43.0854997  52.7109988
  32.8530012  44.1234997  51.6689988  32.9166852  43.3176132  51.9892158
  33.7710012  48.0724997  37.6749988  33.8130012  47.8494997  36.7449988
  34.6200012  48.4714997  37.8649988  33.8915396  48.0959155  37.5733627
  29.3430012  41.9484997  38.3449988  29.0900012  41.9674997  39.2679988
  29.0870012  41.0764997  38.0439988  29.2737790  41.8332437  38.4306263
  25.1100012  44.6994997  48.7799988  24.4680012  44.6584997  49.4889988
  25.1470012  45.6254997  48.5429988  25.0271324  44.8191559  48.8449824
  25.1070012  44.9204997  43.6919988  24.2140012  44.5794997  43.6339988
  25.5570012  44.5434997  42.9369988  25.0457305  44.8228484  43.5819177
  30.6420012  45.3364997  42.5089988  30.2330012  46.1514997  42.2179988
  31.3630012  45.1964997  41.8949988  30.6834537  45.4292018  42.3861342
  29.7440012  45.5114997  53.9969988  29.1820012  44.8074997  54.3179988
  30.5710012  45.3914997  54.4649988  29.7787095  45.3987883  54.1042330
  31.6470012  44.7824997  45.3229988  31.4520012  45.3874997  44.6079988
  31.8280012  43.9484997  44.8889988  31.6447614  44.7526300  45.1664405
  22.8600012  45.0194997  50.6469988  22.8220012  45.4194997  51.5159988
  22.3690012  44.2024997  50.7379988  22.7884684  44.9638069  50.7781059
  26.2260012  42.3934997  37.4459988  25.7950012  41.9484997  38.1759988
  25.5080012  42.7654997  36.9339988  26.0699438  42.3828940  37.4766799
  19.4680012  42.1354997  44.4979988  20.0990012  42.1064997  45.2169988
  19.9170012  41.7104997  43.7679988  19.6150774  42.0740492  44.4976553
  20.7420012  42.8814997  39.9219988  21.2160012  43.4724997  39.3369988
  20.0250012  43.4124997  40.2689988  20.7099341  43.0340867  39.8888836
  30.9110012  46.4204997  49.9949988  31.2340012  45.7894997  49.3519988
  30.4710012  45.8854997  50.6549988  30.8956895  46.2618441  49.9962850
  27.6880012  42.3474997  44.7789988  26.7770012  42.4044997  45.0669988
  28.1940012  42.2874997  45.5889988  27.6315413  42.3471985  44.9280622
  22.5170012  43.9764997  43.6049988  21.6270012  44.0764997  43.2649988
  22.8130012  43.1344997  43.2589988  22.4352823  43.8763545  43.5117213
  26.1700012  43.9764997  41.2619988  27.1010012  44.1054997  41.4399988
  25.9550012  44.6464997  40.6119988  26.2684247  44.0846565  41.1985747
  32.0930012  41.5824997  48.0429988  31.4170012  41.7134997  48.7069988
  31.6080012  41.4274997  47.2329988  31.9347145  41.5794905  48.0244517
  24.8440012  45.1714997  38.8289988  24.3010012  44.7914997  38.1369988
  25.6770012  45.3654997  38.3999988  24.8824399  45.1458124  38.6764526
  35.3810012  57.2544997  54.3199988  35.5810012  57.6784997  53.4849988
  36.0360012  57.5974997  54.9269988  35.4970051  57.3589648  54.2877836
  22.9790012  49.7284997  53.9279988  23.7110012  49.9824997  54.4889988
  22.1990012  49.9324997  54.4429988  22.9738232  49.7909177  54.0745760
  29.0080012  45.1354997  46.6659988  29.5730012  44.5884997  46.1189988
  28.8610012  44.6134997  47.4539988  29.0652918  44.9902024  46.6978454
  24.0100012  41.2714997  43.0839988  23.6930012  40.3694997  43.0489988
  24.7920012  41.2734997  42.5309988  24.0722284  41.1481628  43.0044783
  27.6350012  43.5234997  49.0799988  26.7990012  43.9774997  49.1899988
  28.1590012  43.7994997  49.8319988  27.5914414  43.6229376  49.1967136
  28.1790012  49.7364997  40.7639988  27.4340012  49.2294997  40.4419988
  28.0450012  49.7854997  41.7109988  28.0588776  49.6736940  40.8478647
  35.3290012  48.8694997  49.5509988  35.9710012  49.3264997  49.0069988
  34.4990012  48.9824997  49.0879988  35.3045963  48.9472704  49.4140177
  32.0770012  42.5504997  38.9639988  31.1380012  42.6624997  38.8119988
  32.3740012  43.4074997  39.2699988  31.9887666  42.6816443  38.9845768
  29.6980012  49.9204997  52.0009988  29.3530012  49.5394997  52.8079988
  29.4980012  50.8544997  52.0729988  29.6238061  49.9945228  52.1210961
  32.7950012  44.4174997  40.6239988  33.6870012  44.2804997  40.9429988
  32.8520012  45.2084997  40.0879988  32.9246285  44.5056660  40.5951690
  23.3040012  49.0314997  46.5339988  24.0490012  49.0294997  45.9329988
  23.3820012  48.2084997  47.0159988  23.4165518  48.9199315  46.5168929
  30.3050012  51.1954997  39.7899988  30.0090012  52.0214997  40.1709988
  29.6020012  50.5754997  39.9859988  30.1694914  51.2248199  39.8686443
  20.3120012  47.4924997  51.8489988  20.5350012  47.0744997  52.6809988
  19.7100012  46.8794997  51.4259988  20.2611759  47.3524668  51.9057022
  27.3280012  47.0094997  54.0619988  27.0320012  46.8434997  53.1669988
  28.2600012  46.7894997  54.0509988  27.4134166  46.9570640  53.9380536
  31.9490012  52.3824997  51.9519988  31.0480012  52.5654997  51.6839988
  31.9830012  52.6414997  52.8729988  31.8303041  52.4425512  52.0398197
  37.6800012  44.6274997  40.3189988  37.1260012  44.2314997  39.6469988
  37.7800012  45.5374997  40.0409988  37.6177059  44.6963586  40.1894401
  37.6430012  50.4274997  53.1559988  36.7920012  50.6654997  52.7889988
  38.2340012  50.4104997  52.4029988  37.6062487  50.4578258  53.0038893
  35.9750012  53.4134997  40.7839988  35.6020012  52.5874997  41.0929988
  36.2530012  53.2304997  39.8869988  35.9615630  53.2757303  40.7049626
  33.1360012  48.2214997  47.8049988  32.2070012  47.9894997  47.7779988
  33.5870012  47.4444997  47.4749988  33.0699216  48.0847238  47.7566917
  25.6790012  52.5494997  43.9379988  26.2060012  53.3224997  43.7379988
  24.7990012  52.7744997  43.6369988  25.6321773  52.6858005  43.8699010
  21.4340012  47.4114997  38.5249988  22.0500012  48.0384997  38.9049988
  20.5720012  47.7274997  38.7969988  21.4017698  47.5399430  38.6137183
  27.1060012  50.2124997  43.5149988  26.8650012  51.1374997  43.5559988
  26.3650012  49.7534997  43.9109988  26.9728409  50.2771421  43.5741377
  27.6210012  54.3614997  49.8299988  27.9830012  55.2164997  49.5959988
  28.1520012  54.0694997  50.5699988  27.7424473  54.4391060  49.8980855
  25.7890012  55.2344997  43.0599988  24.8390012  55.3394997  43.1109988
  26.1410012  56.0544997  43.4049988  25.7064203  55.3598314  43.1136650
  31.1650012  50.4604997  49.5299988  30.7390012  50.2334997  50.3569988
  31.7450012  49.7224997  49.3479988  31.1851868  50.3295299  49.6185830
  33.3680012  51.3894997  38.6039988  33.7210012  51.0094997  39.4089988
  32.4190012  51.2964997  38.6909988  33.2880441  51.3249596  38.7258559
  33.8230012  55.0124997  51.9999988  33.2220012  54.4574997  51.5039988
  34.1050012  55.6794997  51.3739988  33.7788519  55.0266841  51.8474952
  37.8710012  55.8694997  38.8049988  38.6150012  56.4554997  38.6649988
  37.1770012  56.4374997  39.1389988  37.8790292  56.0265582  38.8309961
  21.9460012  42.2454997  51.4069988  21.0530012  42.5844997  51.3389988
  21.8470012  41.3904997  51.8249988  21.8104164  42.1762588  51.4542235
  34.2340012  50.0624997  40.8309988  33.9560012  49.3344997  41.3869988
  35.1610012  50.1814997  41.0359988  34.3213124  49.9788802  40.9348845
  21.5970012  54.0504997  49.8419988  21.8140012  53.1184997  49.8109988
  21.8430012  54.3244997  50.7249988  21.6599549  53.9600636  49.9571763
  27.4590012  52.5014997  37.0509988  27.6980012  51.7534997  36.5039988
  27.1900012  52.1134997  37.8839988  27.4553675  52.3466638  37.0886865
  26.3960012  52.0714997  39.5079988  26.5420012  51.5514997  40.2979988
  26.3930012  52.9784997  39.8139988  26.4155989  52.1228853  39.6576088
  22.8490012  49.3244997  40.0179988  22.1630012  49.6764997  40.5849988
  23.3710012  50.0874997  39.7709988  22.8256852  49.4758578  40.0622118
  30.6800012  41.9864997  50.2969988  31.3790012  42.0604997  50.9469988
  30.2990012  41.1224997  50.4509988  30.7241767  41.8797624  50.4068322
  31.4650012  41.6384997  41.3939988  31.6850012  42.1104997  40.5909988
  32.0230012  42.0334997  42.0639988  31.5704968  41.7564285  41.3747331
  29.1330012  53.7694997  40.2569988  28.3170012  54.2664997  40.3089988
  29.6630012  54.2444997  39.6169988  29.0929161  53.9017722  40.1775956
  28.6650012  43.3664997  42.2289988  29.4770012  43.8714997  42.2749988
  28.4200012  43.2214997  43.1429988  28.7430520  43.4160375  42.3588517
  29.2000012  44.3524997  51.4139988  29.3190012  44.9264997  52.1709988
  29.8560012  43.6644997  51.5279988  29.3049757  44.3381079  51.5330825
  29.5480012  40.4474997  43.1669988  29.2020012  41.0654997  43.8119988
  30.2070012  40.9484997  42.6859988  29.5897826  40.5995802  43.1900971
  26.4720012  54.8134997  40.2389988  26.6320012  55.6124997  39.7379988
  26.2740012  55.1194997  41.1239988  26.4671649  54.9644469  40.2899815
  25.2060012  41.5104997  39.8539988  25.1230012  42.3994997  40.2009988
  26.0960012  41.2454997  40.0859988  25.3149469  41.5961430  39.9327626
  35.4050012  42.2594997  52.2489988  34.4880012  42.5224997  52.1609988
  35.7400012  42.2564997  51.3519988  35.3249900  42.2950224  52.1157919
  34.0070012  46.0104997  46.3439988  33.2090012  45.5954997  46.0159988
  34.4520012  45.3194997  46.8349988  33.9579885  45.8603543  46.3654889
  23.4650012  51.9384997  38.9149988  24.0570012  52.6374997  39.1909988
  23.9240012  51.5054997  38.1949988  23.6081142  51.9757049  38.8554830
  21.7810012  44.6024997  38.0309988  21.7360012  45.5414997  38.2089988
  20.8930012  44.3664997  37.7609988  21.6548574  44.6991892  38.0188912
  35.0930012  55.2664997  47.9669988  34.9380012  55.9444997  47.3099988
  36.0260012  55.3384997  48.1699988  35.1978500  55.3690170  47.9045119
  22.5890012  39.3844997  46.7039988  22.3600012  39.4434997  45.7759988
  22.1460012  38.5924997  47.0099988  22.4978530  39.2855753  46.6184786
  21.5190012  53.3244997  42.8639988  20.6870012  53.7974997  42.8919988
  22.0650012  53.8344997  42.2659988  21.4789739  53.4581871  42.7869716
  20.8070012  55.9374997  54.1939988  21.3480012  55.7204997  54.9539988
  20.3260012  55.1314997  54.0049988  20.8159345  55.7989514  54.2723076
  25.4050012  54.8564997  55.8149988  26.1720012  54.3974997  56.1559988
  25.3830012  54.6304997  54.8849988  25.5071434  54.7630409  55.7360043
  29.4970012  54.3644997  37.1899988  28.8530012  53.7334997  37.5109988
  30.2590012  53.8334997  36.9579988  29.5118077  54.2062920  37.2026011
  31.9820012  53.2364997  54.5439988  31.6310012  52.3804997  54.7869988
  32.7080012  53.3794997  55.1509988  32.0320769  53.1385636  54.6593619
  34.1010012  54.1814997  37.4239988  34.3840012  53.3874997  37.8759988
  34.8410012  54.4144997  36.8629988  34.2397486  54.1042803  37.4100698
  20.7140012  49.7474997  55.1489988  20.8580012  48.8454997  54.8619988
  19.9420012  50.0334997  54.6609988  20.6293322  49.6628261  55.0437881
  25.0560012  50.0914997  37.2809988  25.1200012  49.2974997  37.8119988
  25.7090012  49.9724997  36.5909988  25.1530241  49.9667148  37.2604317
  27.3700012  49.7174997  54.5809988  27.0410012  49.9884997  53.7239988
  27.5220012  48.7764997  54.4939988  27.3454809  49.6273862  54.4518244
  30.4080012  51.1384997  37.0169988  30.1390012  51.3184997  37.9179988
  30.2020012  50.2124997  36.8859988  30.3433825  51.0380152  37.1225214
  33.1040012  49.6334997  51.9649988  33.8500012  50.2214997  51.8449988
  32.3470012  50.2154997  52.0279988  33.1037554  49.7927011  51.9570907
  21.5470012  46.9474997  54.5689988  21.9550012  46.0904997  54.4479988
  21.2870012  46.9624997  55.4899988  21.5677568  46.8320807  54.6769588
  26.2050012  48.0634997  39.5869988  25.7450012  47.5794997  40.2729988
  26.4600012  47.3954997  38.9509988  26.1764902  47.9068731  39.5949334
  25.4940012  45.9564997  51.9429988  24.8760012  46.6314997  52.2229988
  25.8380012  46.2774997  51.1099988  25.4559615  46.0922721  51.8686581
  27.2760012  46.3064997  37.8489988  27.0960012  46.1524997  36.9219988
  28.2260012  46.4144997  37.8939988  27.3797776  46.3000175  37.7281843
  30.5140012  48.4284997  55.2199988  31.4670012  48.5114997  55.1929988
  30.3530012  47.7164997  55.8399988  30.6226426  48.3436746  55.3000579
  36.6660012  48.6614997  37.2949988  36.3920012  48.2364997  36.4819988
  36.7050012  49.5924997  37.0779988  36.6337699  48.7292484  37.1543610
  25.8330012  43.3114997  53.0249988  25.9830012  42.5824997  52.4229988
  25.8360012  44.0884997  52.4659988  25.8539302  43.3167851  52.8670692
  26.2460012  41.6814997  50.5179988  26.7820012  42.1324997  49.8659988
  25.3940012  41.5734997  50.0949988  26.2042178  41.7286390  50.3715756
  27.8280012  47.1204997  50.7569988  28.5780012  46.9644997  50.1839988
  27.4890012  47.9724997  50.4819988  27.8848921  47.2142968  50.6413561
  32.2430012  44.9354997  55.7859988  32.4360012  44.0044997  55.6739988
  33.1010012  45.3604997  55.7759988  32.3853020  44.8656389  55.7693361
  33.5600012  47.7244997  53.8629988  33.2790012  48.4334997  53.2859988
  34.5030012  47.6514997  53.7119988  33.6489027  47.8117646  53.7635551
  24.3120012  44.5094997  54.9369988  23.5450012  43.9774997  54.7269988
  24.9910012  44.1994997  54.3369988  24.2987022  44.3947506  54.8271648
  27.0520012  39.1374997  50.9489988  26.9530012  40.0844997  50.8439988
  26.3090012  38.7654997  50.4739988  26.9380563  39.2165902  50.8704560
  28.3160012  43.4594997  54.5129988  28.0800012  43.2394997  55.4149988
  27.5320012  43.2524997  54.0029988  28.1778628  43.4014760  54.5673932
  31.0310012  42.5864997  53.5889988  30.0840012  42.6184997  53.7209988
  31.3440012  41.9614997  54.2419988  30.9435475  42.5063207  53.6954455
  32.6650012  41.2204997  55.5939988  32.5690012  40.2684997  55.5879988
  32.3440012  41.4894997  56.4539988  32.6084070  41.1264035  55.7095441
  22.4920012  42.4304997  54.6409988  22.7040012  41.7234997  54.0309988
  22.3810012  41.9924997  55.4849988  22.5059721  42.2747084  54.6716843
  27.2730012  38.4314997  53.6209988  27.9850012  37.7914997  53.6069988
  27.1720012  38.6984997  52.7069988  27.3567939  38.3799938  53.4955650
  27.6270012  40.1144997  55.6739988  27.4950012  39.6384997  54.8539988
  27.0280012  40.8584997  55.6189988  27.5279071  40.1499618  55.5542886
  27.1730012  56.9974997  38.8509988  28.1060012  57.1554997  38.9939988
  26.9090012  57.6724997  38.2259988  27.2649510  57.1103611  38.7860741
  20.7420012  51.6334997  38.3329988  21.6560012  51.7124997  38.6069988
  20.7490012  50.9464997  37.6669988  20.8681131  51.5513961  38.2804393
  19.3910012  57.0264997  43.4109988  18.7440012  56.5644997  42.8779988
  19.7450012  56.3544997  43.9929988  19.3503849  56.8724723  43.4167959
  20.2610012  55.1074997  45.2149988  19.9260012  54.2274997  45.3869988
  20.4830012  55.4524997  46.0799988  20.2451783  55.0337500  45.3554208
  37.8090012  55.9164997  48.1959988  37.7880012  56.1014997  49.1349988
  38.5000012  56.4854997  47.8549988  37.8994618  56.0186606  48.2783864
  37.3730012  55.4844997  51.1179988  36.8850012  54.7484997  50.7469988
  37.9220012  55.0904997  51.7959988  37.3804872  55.3306249  51.1589160
  35.8230012  51.2734997  55.7559988  34.9570012  51.1684997  56.1499988
  36.2000012  52.0324997  56.2019988  35.7553308  51.3616900  55.8702393
  37.1240012  49.5304997  41.2699988  37.9740012  49.9514997  41.3969988
  37.1300012  48.7904997  41.8769988  37.2411372  49.4880803  41.3694344
  37.5190012  47.5834997  43.0939988  36.7920012  47.1044997  43.4909988
  38.1000012  47.7894997  43.8259988  37.4979375  47.5457090  43.2474129
  37.2780012  50.3684997  48.0409988  38.1110012  49.9904997  47.7609988
  37.3900012  51.3114997  47.9219988  37.4072647  50.4442218  47.9865487
  35.7640012  53.2464997  50.3479988  35.1170012  53.5714997  50.9739988
  35.2470012  52.8064997  49.6739988  35.6054029  53.2315004  50.3425827
  37.7870012  47.4844997  39.4849988  37.2650012  47.8414997  38.7659988
  37.7540012  48.1594997  40.1629988  37.7111634  47.6245413  39.4783145
  36.1360012  44.7244997  38.0359988  36.2320012  45.3914997  37.3549988
  35.9960012  43.9084997  37.5539988  36.1302135  44.7054500  37.8778491
  35.3050012  46.1044997  43.6569988  35.1550012  45.1594997  43.6359988
  34.9520012  46.3854997  44.4999988  35.2366625  46.0130441  43.7682346
  20.3410012  48.1824997  47.6669988  20.5250012  48.1004997  46.7309988
  21.1900012  48.0584997  48.0909988  20.4810139  48.1545003  47.5961455
  36.1620012  48.0744997  53.2949988  36.7450012  47.3404997  53.4869988
  36.7260012  48.8464997  53.3419988  36.3179769  48.0784227  53.3276159
  37.6580012  45.9774997  53.9799988  36.7950012  45.5984997  53.8139988
  38.2630012  45.2384997  53.9059988  37.6215979  45.8258023  53.9472817
  35.3830012  42.1324997  37.1529988  35.9940012  41.7614997  37.7899988
  34.5470012  41.7114997  37.3489988  35.3535032  42.0247554  37.2667035
  35.0160012  43.6874997  42.1189988  35.2960012  42.7804997  42.2429988
  35.7750012  44.1214997  41.7299988  35.1569277  43.6220942  42.0833682
  35.6280012  44.2684997  47.5549988  36.5610012  44.4804997  47.5209988
  35.3930012  44.3704997  48.4769988  35.7238036  44.3112769  47.6749976
  35.6570012  45.0054997  50.3309988  34.8140012  45.2734997  50.6969988
  36.0990012  45.8274997  50.1199988  35.6014158  45.1533291  50.3525491
  19.9380012  43.4534997  53.8079988  20.8580012  43.3314997  54.0439988
  19.4890012  42.7034997  54.1969988  20.0031580  43.3353727  53.8929006
  37.9400012  38.9854997  55.6839988  38.2900012  38.3314997  55.0789988
  38.0870012  39.8224997  55.2449988  38.0078419  39.0091591  55.5417118
  35.6290012  40.9504997  42.1669988  35.8120012  40.5014997  42.9929988
  35.0300012  40.3654997  41.7039988  35.5730202  40.8099975  42.2173275
  21.1590012  41.7654997  46.6989988  21.6050012  40.9734997  47.0009988
  21.6260012  42.4814997  47.1299988  21.2830172  41.7540624  46.7984820
  19.4630012  44.7644997  47.7679988  19.9550012  44.5434997  46.9769988
  19.8260012  45.6054997  48.0489988  19.5793126  44.8478357  47.6977531
  37.4600012  41.0944997  54.0339988  36.5420012  41.3654997  53.9979988
  37.5830012  40.5594997  53.2489988  37.3511066  41.0592892  53.9230487
  37.4960012  41.0174997  38.6949988  37.9080012  40.2964997  38.2199988
  38.1780012  41.6874997  38.7539988  37.6445885  41.0092368  38.6378915
  19.7770012  41.0224997  41.8219988  18.8520012  41.2314997  41.6929988
  20.2310012  41.5064997  41.1329988  19.7117368  41.1165993  41.7111226
  34.5480012  56.0064997  43.7679988  35.2000012  55.6594997  43.1599988
  35.0580012  56.4954997  44.4139988  34.7062637  56.0250597  43.7720236
  19.7410012  39.7604997  50.1669988  19.0760012  39.5144997  50.8099988
  19.2980012  40.3824997  49.5889988  19.5900956  39.8108632  50.1769352
  21.9330012  52.9354997  54.3109988  21.1120012  53.1104997  53.8509988
  21.6800012  52.8624997  55.2319988  21.7866164  52.9495622  54.3724923
  24.8870012  53.9104997  50.5699988  24.4620012  54.7194997  50.2869988
  25.7910012  53.9954997  50.2679988  24.9510271  54.0328469  50.4903776
  29.1980012  55.3094997  53.5289988  29.3830012  54.9754997  54.4069988
  30.0440012  55.6184997  53.2069988  29.3377539  55.3056047  53.6055605
  31.5430012  56.5954997  52.7729988  32.2200012  55.9624997  52.5329988
  31.8650012  56.9964997  53.5799988  31.6791637  56.5631154  52.8492793
  36.4600012  39.1844997  51.8529988  35.6480012  39.5094997  51.4649988
  36.6930012  38.4244997  51.3199988  36.3803423  39.1262436  51.7278253
  22.2890012  57.1664997  50.6169988  21.5680012  57.6064997  50.1659988
  21.9230012  56.9154997  51.4659988  22.1409804  57.1927698  50.6699840
  24.7560012  56.7664997  49.6469988  23.8910012  56.8384997  50.0509988
  24.7010012  57.3134997  48.8629988  24.6302085  56.8502685  49.5963362
  29.4660012  56.6544997  48.8219988  29.0100012  57.1834997  48.1679988
  29.6290012  57.2574997  49.5479988  29.4255585  56.8084468  48.8305062
  31.7940012  55.5324997  49.7669988  30.8890012  55.6974997  49.5019988
  32.2230012  56.3854997  49.7019988  31.7280799  55.6704483  49.7219182
  34.3980012  57.1024997  50.0619988  34.2160012  58.0184997  49.8519988
  34.5750012  56.6924997  49.2159988  34.3970210  57.1724822  49.9187885
  21.7030012  55.7894997  47.5269988  21.6850012  55.3644997  48.3849988
  22.5080012  55.4714997  47.1189988  21.8093875  55.6883812  47.5891655
  23.8450012  54.4994997  46.1819988  23.6260012  53.5834997  46.3519988
  24.6690012  54.6394997  46.6479988  23.9264420  54.3930520  46.2682774
  26.3820012  54.9694997  47.0309988  26.5950012  54.0814997  46.7439988
  26.4460012  54.9354997  47.9849988  26.4198231  54.8433102  47.1207397
  29.8900012  40.6334997  46.1749988  29.2160012  40.0044997  46.4309988
  30.4540012  40.1494997  45.5719988  29.8739230  40.4818744  46.1285340
  35.0330012  38.7414997  46.2879988  35.6370012  39.2884997  45.7859988
  34.1630012  39.0604997  46.0479988  34.9981241  38.8595806  46.1867654
  36.7600012  39.8794997  44.6209988  37.3720012  39.3654997  44.0949988
  37.1420012  40.7574997  44.6449988  36.8954540  39.9277140  44.5521830
  22.2170012  39.2674997  43.9969988  21.4400012  39.0334997  43.4899988
  22.7470012  38.4704997  44.0059988  22.1822330  39.1276988  43.9287742
  21.0530012  39.0654997  39.8009988  21.4920012  39.6764997  39.2089988
  20.4200012  39.6034997  40.2749988  21.0274514  39.2219257  39.7840930
  26.7960012  39.1944997  43.8109988  27.6710012  39.5824997  43.7809988
  26.6600012  38.9794997  44.7329988  26.8973695  39.2185184  43.9316440
  32.3530012  39.2244997  45.4599988  32.4290012  39.3194997  44.5099988
  32.0780012  38.3164997  45.5889988  32.3262321  39.1147867  45.3475079
  33.7060012  39.2504997  41.1519988  33.0040012  39.8654997  40.9429988
  33.2620012  38.4124997  41.2829988  33.5496330  39.2215783  41.1410328
  20.9540012  55.0134997  40.6989988  20.2690012  54.9754997  40.0309988
  20.9580012  55.9264997  40.9869988  20.8608193  55.1317016  40.6465284
  22.9140012  40.9814997  38.2429988  23.4060012  40.3514997  37.7159988
  23.5380012  41.2774997  38.9069988  23.0655446  40.9353199  38.2605980
  27.9400012  41.2744997  40.6999988  28.1180012  40.6284997  41.3829988
  27.8870012  42.1084997  41.1679988  27.9571829  41.2987985  40.8565940
  29.8190012  56.2234997  39.0959988  30.6850012  56.5894997  38.9179988
  29.5720012  55.7834997  38.2819988  29.9042392  56.2141756  38.9616289
  36.5280012  55.7864997  41.7749988  36.3330012  55.0384997  41.2099988
  36.4890012  56.5444997  41.1919988  36.4960380  55.7866099  41.6188384
  22.1750012  39.7814997  53.5149988  21.8090012  39.0164997  53.9579988
  23.0880012  39.8104997  53.8019988  22.2482790  39.6807224  53.6144070
  24.1480012  39.1324997  55.0509988  25.0460012  38.8584997  54.8659988
  23.7610012  38.3894997  55.5149988  24.2186612  38.9945914  55.0883643
  22.7720012  55.9334997  37.7239988  22.5050012  56.2204997  38.5969988
  23.5440012  55.3874997  37.8759988  22.8397488  55.8990294  37.8641050
  32.5690012  38.4644997  55.2329988  32.6460012  38.0384997  56.0869988
  33.4630012  38.4784997  54.8899988  32.7003428  38.4080880  55.3035310
  35.7450012  54.5374997  53.9249988  34.9630012  54.3514997  53.4059988
  35.6730012  55.4664997  54.1429988  35.6281777  54.6376492  53.8834048
  50.1510012  48.4234997  43.9559988  50.2400012  49.3674997  43.8239988
  49.5130012  48.1484997  43.2979988  50.0769081  48.5154830  43.8489614
  49.0840012  47.6784997  47.3749988  49.0460012  47.0324997  48.0799988
  48.7620012  47.2124997  46.6039988  49.0352333  47.5269408  47.3672978
  41.4530012  47.2934997  48.9679988  41.4940012  46.6674997  49.6909988
  42.1560012  47.9174997  49.1499988  41.5536363  47.2921196  49.0916044
  52.7900012  50.6174997  45.6759988  52.3500012  49.8974997  46.1269988
  52.7770012  51.3384997  46.3059988  52.7280226  50.6163731  45.8228494
  42.3760012  51.7434997  47.5029988  42.0070012  50.9414997  47.1329988
  43.3170012  51.5744997  47.5489988  42.4527289  51.6110153  47.4586316
  38.9860012  45.4034997  42.8959988  38.5390012  46.2494997  42.8769988
  38.4250012  44.8234997  42.3799988  38.8489900  45.4409916  42.8236801
  39.6970012  47.5654997  45.0219988  39.9100012  46.7954997  45.5489988
  40.4350012  47.6544997  44.4179988  39.8258496  47.4721394  45.0125300
  49.9020012  55.7224997  45.8889988  50.5220012  55.0454997  45.6149988
  49.6940012  55.5044997  46.7969988  49.9586904  55.6003870  45.9743365
  47.4740012  50.1114997  47.7809988  47.7780012  49.4254997  47.1859988
  48.1950012  50.2294997  48.3989988  47.6130671  50.0336305  47.7831816
  56.1370012  41.7124997  48.6419988  56.1860012  42.3224997  49.3779988
  56.5620012  42.1734997  47.9189988  56.2011824  41.8583741  48.6450205
  50.6150012  44.5054997  48.1089988  50.7570012  43.5594997  48.1289988
  50.5080012  44.7124997  47.1799988  50.6199864  44.4039534  47.9862339
  43.7690012  42.6064997  45.3809988  43.8130012  43.4664997  44.9629988
  43.3120012  42.0544997  44.7469988  43.7132185  42.6495799  45.2380299
  51.4920012  42.7374997  43.7819988  52.1380012  42.4084997  44.4069988
  52.0020012  43.2554997  43.1589988  51.6494264  42.7624611  43.7833862
  40.3900012  45.0034997  46.1429988  41.0430012  44.4534997  46.5749988
  40.4140012  44.7294997  45.2259988  40.4826683  44.8911466  46.0782123
  45.5460012  46.5534997  45.3579988  46.1620012  46.0274997  45.8679988
  44.9600012  45.9134997  44.9549988  45.5510810  46.3949208  45.3733173
  56.5280012  43.1904997  50.8779988  55.8400012  43.8484997  50.7819988
  56.5440012  42.9934997  51.8139988  56.4358525  43.2540462  50.9914808
  42.5800012  41.5244997  49.4549988  42.3610012  42.0544997  48.6889988
  41.9120012  41.7514997  50.1019988  42.4597600  41.6276906  49.4376379
  49.9490012  51.0244997  42.9989988  49.6530012  50.7024997  42.1479988
  49.6240012  51.9244997  43.0399988  49.8646371  51.1020215  42.8881801
  45.1490012  49.2004997  49.7419988  44.4090012  49.7984997  49.8459988
  45.8630012  49.7544997  49.4269988  45.1442237  49.3572831  49.7136465
  53.2560012  42.0284997  45.7619988  53.0400012  41.2624997  46.2949988
  53.9110012  42.5004997  46.2749988  53.3150632  41.9875889  45.9042861
  42.1730012  43.4164997  47.4069988  42.7870012  44.0494997  47.7809988
  42.6850012  42.9444997  46.7509988  42.3262296  43.4392370  47.3694252
  43.5560012  51.1644997  50.5299988  43.5510012  52.0444997  50.1519988
  42.7030012  51.0814997  50.9549988  43.4399464  51.2736117  50.5357907
  39.6770012  50.8354997  41.3119988  39.4050012  51.0644997  40.4229988
  39.7230012  51.6734997  41.7719988  39.6460094  50.9801213  41.2525697
  53.3020012  52.4574997  48.0239988  52.3610012  52.5154997  48.1859988
  53.5790012  53.3634997  47.8869988  53.2104679  52.5879443  48.0276815
  53.6030012  40.7434997  49.4419988  52.8670012  41.3544997  49.4039988
  54.2860012  41.1584997  48.9149988  53.5946541  40.8831374  49.3655832
  46.6060012  38.8304997  46.9079988  46.4890012  37.8814997  46.8529988
  45.7510012  39.1624997  47.1809988  46.4743733  38.7455409  46.9373897
  51.5540012  54.2384997  44.6499988  51.9800012  53.5314997  44.1649988
  51.8710012  55.0394997  44.2329988  51.6551019  54.2500994  44.5273130
  52.7140012  52.1394997  43.1579988  52.4560012  51.4494997  42.5469988
  52.7850012  51.6964997  44.0039988  52.6882856  51.9852124  43.1886885
  54.4000012  50.7054997  51.6359988  54.5400012  50.1144997  50.8959988
  54.5670012  51.5784997  51.2789988  54.4416778  50.7426426  51.4866965
  48.8730012  47.6674997  41.4079988  48.1610012  48.2024997  41.0559988
  49.5640012  47.7234997  40.7479988  48.8690132  47.7482543  41.2706289
  48.9260012  46.1254997  38.4469988  49.6270012  46.1474997  39.0979988
  49.2290012  45.4974997  37.7909988  49.0627830  46.0436566  38.4473711
  56.2420012  47.0454997  49.7019988  55.5890012  47.7404997  49.7909988
  56.7070012  47.2554997  48.8919988  56.2155390  47.1689425  49.6046883
  52.2780012  47.8774997  42.3599988  51.5460012  48.1054997  42.9329988
  52.7260012  47.1634997  42.8149988  52.2383095  47.8122571  42.4999119
  52.1760012  46.0514997  51.4269988  52.2560012  46.8144997  51.9989988
  51.5740012  46.3304997  50.7369988  52.1055756  46.1937134  51.4120589
  43.9240012  48.5074997  44.2419988  43.5930012  48.1374997  43.4239988
  44.5120012  47.8374997  44.5889988  43.9581873  48.3661156  44.1768102
  45.2900012  51.9354997  46.9239988  45.1960012  51.3574997  46.1669988
  46.0200012  51.5644997  47.4199988  45.3757981  51.8062390  46.8874165
  44.2900012  47.2764997  47.8759988  44.8560012  47.3974997  47.1129988
  44.6090012  47.9134997  48.5149988  44.4105786  47.3791884  47.8580040
  50.5990012  52.7794997  48.6099988  50.3590012  53.4414997  49.2579988
  50.4010012  51.9454997  49.0349988  50.5393808  52.7573134  48.7561524
  45.1700012  51.6754997  52.5929988  44.8590012  52.4574997  53.0479988
  44.5200012  51.5224997  51.9069988  45.0395558  51.7619105  52.5625871
  51.1490012  47.0394997  40.0449988  51.7290012  47.1894997  40.7919988
  51.5630012  47.5104997  39.3219988  51.2842830  47.1236841  40.0494134
  42.0900012  47.8734997  51.8219988  42.1610012  48.5244997  52.5199988
  41.2000012  47.9764997  51.4869988  41.9793117  47.9765936  51.8722700
  48.8760012  53.7764997  43.4799988  49.3500012  54.0714997  44.2579988
  48.3130012  54.5144997  43.2469988  48.8647653  53.9166932  43.5550136
  43.4100012  53.7474997  53.3559988  43.4170012  53.6114997  52.4089988
  42.4940012  53.6294997  53.6079988  43.2871714  53.7129430  53.2604666
  54.8480012  38.7894997  39.8579988  53.9480012  38.9284997  40.1529988
  55.1000012  39.6204997  39.4559988  54.7588702  38.9209074  39.8440205
  42.9140012  47.5774997  41.8319988  42.6220012  48.3454997  41.3409988
  42.2400012  46.9174997  41.6689988  42.7829081  47.5934406  41.7427340
  56.0370012  53.1554997  38.2339988  56.1110012  54.0944997  38.4049988
  56.9430012  52.8504997  38.1779988  56.1695100  53.2426722  38.2498119
  39.0070012  49.9404997  50.6469988  38.5060012  49.9124997  49.8319988
  39.0120012  49.0344997  50.9559988  38.9391526  49.8142278  50.5772872
  38.7570012  52.7204997  47.5309988  39.7030012  52.5764997  47.5119988
  38.6450012  53.5044997  48.0679988  38.8712727  52.8068046  47.6010072
  56.9550012  53.3864997  53.2129988  56.9060012  52.4314997  53.1759988
  56.1280012  53.6544997  53.6139988  56.8364940  53.2918998  53.2621375
  47.9340012  52.9604997  52.0889988  48.0210012  53.7864997  52.5639988
  47.0700012  52.6304997  52.3379988  47.8291964  53.0289878  52.1876549
  48.3480012  56.7324997  41.8949988  48.2730012  56.6114997  40.9489988
  48.3810012  57.6824997  42.0139988  48.3421848  56.8442500  41.7814834
  42.0010012  55.5214997  43.6759988  42.1540012  55.1734997  44.5549988
  41.1510012  55.1654997  43.4209988  41.9068962  55.4256650  43.7618340
  51.4500012  55.8864997  38.8969988  51.8250012  55.1424997  38.4269988
  51.4540012  55.6164997  39.8159988  51.5018915  55.7481486  38.9567824
  51.1190012  55.8124997  41.6469988  50.1830012  55.9124997  41.8249988
  51.3990012  55.1034997  42.2249988  51.0288255  55.7302711  41.7495391
  54.1070012  44.8794997  53.6929988  53.7000012  45.3604997  52.9719988
  54.1480012  43.9744997  53.3849988  54.0568437  44.8229374  53.5526683
  41.2560012  51.2634997  51.6899988  41.4720012  50.9024997  52.5489988
  40.4010012  50.8894997  51.4799988  41.1699292  51.1634111  51.7793386
  43.8750012  39.7334997  47.6849988  43.0130012  39.6464997  47.2779988
  43.8520012  40.5894997  48.1129988  43.7540330  39.8372765  47.6871863
  48.5380012  39.4554997  51.0599988  48.9580012  39.0404997  51.8129988
  47.6050012  39.2774997  51.1769988  48.4693644  39.3745900  51.1789539
  51.8640012  43.2114997  51.9129988  51.3500012  43.0854997  52.7109988
  51.7090012  44.1234997  51.6689988  51.7726852  43.3176132  51.9892158
  52.6270012  48.0724997  37.6749988  52.6690012  47.8494997  36.7449988
  53.4760012  48.4714997  37.8649988  52.7475396  48.0959155  37.5733627
  48.1990012  41.9484997  38.3449988  47.9460012  41.9674997  39.2679988
  47.9430012  41.0764997  38.0439988  48.1297790  41.8332437  38.4306263
  43.9660012  44.6994997  48.7799988  43.3240012  44.6584997  49.4889988
  44.0030012  45.6254997  48.5429988  43.8831324  44.8191559  48.8449824
  43.9630012  44.9204997  43.6919988  43.0700012  44.5794997  43.6339988
  44.4130012  44.5434997  42.9369988  43.9017305  44.8228484  43.5819177
  49.4980012  45.3364997  42.5089988  49.0890012  46.1514997  42.2179988
  50.2190012  45.1964997  41.8949988  49.5394537  45.4292018  42.3861342
  48.6000012  45.5114997  53.9969988  48.0380012  44.8074997  54.3179988
  49.4270012  45.3914997  54.4649988  48.6347095  45.3987883  54.1042330
  50.5030012  44.7824997  45.3229988  50.3080012  45.3874997  44.6079988
  50.6840012  43.9484997  44.8889988  50.5007614  44.7526300  45.1664405
  41.7160012  45.0194997  50.6469988  41.6780012  45.4194997  51.5159988
  41.2250012  44.2024997  50.7379988  41.6444684  44.9638069  50.7781059
  45.0820012  42.3934997  37.4459988  44.6510012  41.9484997  38.1759988
  44.3640012  42.7654997  36.9339988  44.9259438  42.3828940  37.4766799
  38.3240012  42.1354997  44.4979988  38.9550012  42.1064997  45.2169988
  38.7730012  41.7104997  43.7679988  38.4710774  42.0740492  44.4976553
  39.5980012  42.8814997  39.9219988  40.0720012  43.4724997  39.3369988
  38.8810012  43.4124997  40.2689988  39.5659341  43.0340867  39.8888836
  49.7670012  46.4204997  49.9949988  50.0900012  45.7894997  49.3519988
  49.3270012  45.8854997  50.6549988  49.7516895  46.2618441  49.9962850
  46.5440012  42.3474997  44.7789988  45.6330012  42.4044997  45.0669988
  47.0500012  42.2874997  45.5889988  46.4875413  42.3471985  44.9280622
  41.3730012  43.9764997  43.6049988  40.4830012  44.0764997  43.2649988
  41.6690012  43.1344997  43.2589988  41.2912823  43.8763545  43.5117213
  45.0260012  43.9764997  41.2619988  45.9570012  44.1054997  41.4399988
  44.8110012  44.6464997  40.6119988  45.1244247  44.0846565  41.1985747
  50.9490012  41.5824997  48.0429988  50.2730012  41.7134997  48.7069988
  50.4640012  41.4274997  47.2329988  50.7907145  41.5794905  48.0244517
  43.7000012  45.1714997  38.8289988  43.1570012  44.7914997  38.1369988
  44.5330012  45.3654997  38.3999988  43.7384399  45.1458124  38.6764526
  54.2370012  57.2544997  54.3199988  54.4370012  57.6784997  53.4849988
  54.8920012  57.5974997  54.9269988  54.3530051  57.3589648  54.2877836
  41.8350012  49.7284997  53.9279988  42.5670012  49.9824997  54.4889988
  41.0550012  49.9324997  54.4429988  41.8298232  49.7909177  54.0745760
  47.8640012  45.1354997  46.6659988  48.4290012  44.5884997  46.1189988
  47.7170012  44.6134997  47.4539988  47.9212918  44.9902024  46.6978454
  42.8660012  41.2714997  43.0839988  42.5490012  40.3694997  43.0489988
  43.6480012  41.2734997  42.5309988  42.9282284  41.1481628  43.0044783
  46.4910012  43.5234997  49.0799988  45.6550012  43.9774997  49.1899988
  47.0150012  43.7994997  49.8319988  46.4474414  43.6229376  49.1967136
  47.0350012  49.7364997  40.7639988  46.2900012  49.2294997  40.4419988
  46.9010012  49.7854997  41.7109988  46.9148776  49.6736940  40.8478647
  54.1850012  48.8694997  49.5509988  54.8270012  49.3264997  49.0069988
  53.3550012  48.9824997  49.0879988  54.1605963  48.9472704  49.4140177
  50.9330012  42.5504997  38.9639988  49.9940012  42.6624997  38.8119988
  51.2300012  43.4074997  39.2699988  50.8447666  42.6816443  38.9845768
  48.5540012  49.9204997  52.0009988  48.2090012  49.5394997  52.8079988
  48.3540012  50.8544997  52.0729988  48.4798061  49.9945228  52.1210961
  51.6510012  44.4174997  40.6239988  52.5430012  44.2804997  40.9429988
  51.7080012  45.2084997  40.0879988  51.7806285  44.5056660  40.5951691
  42.1600012  49.0314997  46.5339988  42.9050012  49.0294997  45.9329988
  42.2380012  48.2084997  47.0159988  42.2725518  48.9199315  46.5168929
  49.1610012  51.1954997  39.7899988  48.8650012  52.0214997  40.1709988
  48.4580012  50.5754997  39.9859988  49.0254914  51.2248199  39.8686443
  39.1680012  47.4924997  51.8489988  39.3910012  47.0744997  52.6809988
  38.5660012  46.8794997  51.4259988  39.1171759  47.3524668  51.9057022
  46.1840012  47.0094997  54.0619988  45.8880012  46.8434997  53.1669988
  47.1160012  46.7894997  54.0509988  46.2694166  46.9570640  53.9380536
  50.8050012  52.3824997  51.9519988  49.9040012  52.5654997  51.6839988
  50.8390012  52.6414997  52.8729988  50.6863041  52.4425512  52.0398197
  56.5360012  44.6274997  40.3189988  55.9820012  44.2314997  39.6469988
  56.6360012  45.5374997  40.0409988  56.4737059  44.6963586  40.1894401
  56.4990012  50.4274997  53.1559988  55.6480012  50.6654997  52.7889988
  57.0900012  50.4104997  52.4029988  56.4622487  50.4578258  53.0038893
  54.8310012  53.4134997  40.7839988  54.4580012  52.5874997  41.0929988
  55.1090012  53.2304997  39.8869988  54.8175630  53.2757303  40.7049626
  51.9920012  48.2214997  47.8049988  51.0630012  47.9894997  47.7779988
  52.4430012  47.4444997  47.4749988  51.9259216  48.0847238  47.7566917
  44.5350012  52.5494997  43.9379988  45.0620012  53.3224997  43.7379988
  43.6550012  52.7744997  43.6369988  44.4881773  52.6858005  43.8699010
  40.2900012  47.4114997  38.5249988  40.9060012  48.0384997  38.9049988
  39.4280012  47.7274997  38.7969988  40.2577698  47.5399430  38.6137183
  45.9620012  50.2124997  43.5149988  45.7210012  51.1374997  43.5559988
  45.2210012  49.7534997  43.9109988  45.8288409  50.2771421  43.5741377
  46.4770012  54.3614997  49.8299988  46.8390012  55.2164997  49.5959988
  47.0080012  54.0694997  50.5699988  46.5984473  54.4391060  49.8980855
  44.6450012  55.2344997  43.0599988  43.6950012  55.3394997  43.1109988
  44.9970012  56.0544997  43.4049988  44.5624203  55.3598314  43.1136650
  50.0210012  50.4604997  49.5299988  49.5950012  50.2334997  50.3569988
  50.6010012  49.7224997  49.3479988  50.0411868  50.3295299  49.6185830
  52.2240012  51.3894997  38.6039988  52.5770012  51.0094997  39.4089988
  51.2750012  51.2964997  38.6909988  52.1440441  51.3249596  38.7258559
  52.6790012  55.0124997  51.9999988  52.0780012  54.4574997  51.5039988
  52.9610012  55.6794997  51.3739988  52.6348519  55.0266841  51.8474952
  56.7270012  55.8694997  38.8049988  57.4710012  56.4554997  38.6649988
  56.0330012  56.4374997  39.1389988  56.7350292  56.0265582  38.8309961
  40.8020012  42.2454997  51.4069988  39.9090012  42.5844997  51.3389988
  40.7030012  41.3904997  51.8249988  40.6664164  42.1762588  51.4542235
  53.0900012  50.0624997  40.8309988  52.8120012  49.3344997  41.3869988
  54.0170012  50.1814997  41.0359988  53.1773124  49.9788802  40.9348845
  40.4530012  54.0504997  49.8419988  40.6700012  53.1184997  49.8109988
  40.6990012  54.3244997  50.7249988  40.5159549  53.9600636  49.9571763
  46.3150012  52.5014997  37.0509988  46.5540012  51.7534997  36.5039988
  46.0460012  52.1134997  37.8839988  46.3113675  52.3466638  37.0886865
  45.2520012  52.0714997  39.5079988  45.3980012  51.5514997  40.2979988
  45.2490012  52.9784997  39.8139988  45.2715989  52.1228853  39.6576088
  41.7050012  49.3244997  40.0179988  41.0190012  49.6764997  40.5849988
  42.2270012  50.0874997  39.7709988  41.6816852  49.4758578  40.0622118
  49.5360012  41.9864997  50.2969988  50.2350012  42.0604997  50.9469988
  49.1550012  41.1224997  50.4509988  49.5801767  41.8797624  50.4068322
  50.3210012  41.6384997  41.3939988  50.5410012  42.1104997  40.5909988
  50.8790012  42.0334997  42.0639988  50.4264968  41.7564285  41.3747331
  47.9890012  53.7694997  40.2569988  47.1730012  54.2664997  40.3089988
  48.5190012  54.2444997  39.6169988  47.9489161  53.9017722  40.1775956
  47.5210012  43.3664997  42.2289988  48.3330012  43.8714997  42.2749988
  47.2760012  43.2214997  43.1429988  47.5990520  43.4160375  42.3588517
  48.0560012  44.3524997  51.4139988  48.1750012  44.9264997  52.1709988
  48.7120012  43.6644997  51.5279988  48.1609757  44.3381079  51.5330825
  48.4040012  40.4474997  43.1669988  48.0580012  41.0654997  43.8119988
  49.0630012  40.9484997  42.6859988  48.4457826  40.5995802  43.1900971
  45.3280012  54.8134997  40.2389988  45.4880012  55.6124997  39.7379988
  45.1300012  55.1194997  41.1239988  45.3231649  54.9644469  40.2899815
  44.0620012  41.5104997  39.8539988  43.9790012  42.3994997  40.2009988
  44.9520012  41.2454997  40.0859988  44.1709469  41.5961430  39.9327626
  54.2610012  42.2594997  52.2489988  53.3440012  42.5224997  52.1609988
  54.5960012  42.2564997  51.3519988  54.1809900  42.2950224  52.1157919
  52.8630012  46.0104997  46.3439988  52.0650012  45.5954997  46.0159988
  53.3080012  45.3194997  46.8349988  52.8139885  45.8603543  46.3654889
  42.3210012  51.9384997  38.9149988  42.9130012  52.6374997  39.1909988
  42.7800012  51.5054997  38.1949988  42.4641142  51.9757049  38.8554830
  40.6370012  44.6024997  38.0309988  40.5920012  45.5414997  38.2089988
  39.7490012  44.3664997  37.7609988  40.5108574  44.6991892  38.0188912
  53.9490012  55.2664997  47.9669988  53.7940012  55.9444997  47.3099988
  54.8820012  55.3384997  48.1699988  54.0538500  55.3690170  47.9045119
  41.4450012  39.3844997  46.7039988  41.2160012  39.4434997  45.7759988
  41.0020012  38.5924997  47.0099988  41.3538530  39.2855753  46.6184786
  40.3750012  53.3244997  42.8639988  39.5430012  53.7974997  42.8919988
  40.9210012  53.8344997  42.2659988  40.3349739  53.4581871  42.7869716
  39.6630012  55.9374997  54.1939988  40.2040012  55.7204997  54.9539988
  39.1820012  55.1314997  54.0049988  39.6719345  55.7989514  54.2723076
  44.2610012  54.8564997  55.8149988  45.0280012  54.3974997  56.1559988
  44.2390012  54.6304997  54.8849988  44.3631434  54.7630409  55.7360043
  48.3530012  54.3644997  37.1899988  47.7090012  53.7334997  37.5109988
  49.1150012  53.8334997  36.9579988  48.3678077  54.2062920  37.2026011
  50.8380012  53.2364997  54.5439988  50.4870012  52.3804997  54.7869988
  51.5640012  53.3794997  55.1509988  50.8880769  53.1385636  54.6593619
  52.9570012  54.1814997  37.4239988  53.2400012  53.3874997  37.8759988
  53.6970012  54.4144997  36.8629988  53.0957486  54.1042803  37.4100698
  39.5700012  49.7474997  55.1489988  39.7140012  48.8454997  54.8619988
  38.7980012  50.0334997  54.6609988  39.4853322  49.6628261  55.0437881
  43.9120012  50.0914997  37.2809988  43.9760012  49.2974997  37.8119988
  44.5650012  49.9724997  36.5909988  44.0090241  49.9667148  37.2604317
  46.2260012  49.7174997  54.5809988  45.8970012  49.9884997  53.7239988
  46.3780012  48.7764997  54.4939988  46.2014809  49.6273862  54.4518244
  49.2640012  51.1384997  37.0169988  48.9950012  51.3184997  37.9179988
  49.0580012  50.2124997  36.8859988  49.1993825  51.0380152  37.1225214
  51.9600012  49.6334997  51.9649988  52.7060012  50.2214997  51.8449988
  51.2030012  50.2154997  52.0279988  51.9597554  49.7927011  51.9570907
  40.4030012  46.9474997  54.5689988  40.8110012  46.0904997  54.4479988
  40.1430012  46.9624997  55.4899988  40.4237568  46.8320807  54.6769588
  45.0610012  48.0634997  39.5869988  44.6010012  47.5794997  40.2729988
  45.3160012  47.3954997  38.9509988  45.0324902  47.9068731  39.5949334
  44.3500012  45.9564997  51.9429988  43.7320012  46.6314997  52.2229988
  44.6940012  46.2774997  51.1099988  44.3119615  46.0922721  51.8686581
  46.1320012  46.3064997  37.8489988  45.9520012  46.1524997  36.9219988
  47.0820012  46.4144997  37.8939988  46.2357776  46.3000175  37.7281843
  49.3700012  48.4284997  55.2199988  50.3230012  48.5114997  55.1929988
  49.2090012  47.7164997  55.8399988  49.4786426  48.3436746  55.3000579
  55.5220012  48.6614997  37.2949988  55.2480012  48.2364997  36.4819988
  55.5610012  49.5924997  37.0779988  55.4897699  48.7292484  37.1543610
  44.6890012  43.3114997  53.0249988  44.8390012  42.5824997  52.4229988
  44.6920012  44.0884997  52.4659988  44.7099302  43.3167851  52.8670692
  45.1020012  41.6814997  50.5179988  45.6380012  42.1324997  49.8659988
  44.2500012  41.5734997  50.0949988  45.0602178  41.7286390  50.3715756
  46.6840012  47.1204997  50.7569988  47.4340012  46.9644997  50.1839988
  46.3450012  47.9724997  50.4819988  46.7408921  47.2142968  50.6413561
  51.0990012  44.9354997  55.7859988  51.2920012  44.0044997  55.6739988
  51.9570012  45.3604997  55.7759988  51.2413020  44.8656389  55.7693361
  52.4160012  47.7244997  53.8629988  52.1350012  48.4334997  53.2859988
  53.3590012  47.6514997  53.7119988  52.5049027  47.8117646  53.7635551
  43.1680012  44.5094997  54.9369988  42.4010012  43.9774997  54.7269988
  43.8470012  44.1994997  54.3369988  43.1547022  44.3947506  54.8271648
  45.9080012  39.1374997  50.9489988  45.8090012  40.0844997  50.8439988
  45.1650012  38.7654997  50.4739988  45.7940564  39.2165902  50.8704560
  47.1720012  43.4594997  54.5129988  46.9360012  43.2394997  55.4149988
  46.3880012  43.2524997  54.0029988  47.0338628  43.4014760  54.5673932
  49.8870012  42.5864997  53.5889988  48.9400012  42.6184997  53.7209988
  50.2000012  41.9614997  54.2419988  49.7995475  42.5063207  53.6954455
  51.5210012  41.2204997  55.5939988  51.4250012  40.2684997  55.5879988
  51.2000012  41.4894997  56.4539988  51.4644070  41.1264035  55.7095441
  41.3480012  42.4304997  54.6409988  41.5600012  41.7234997  54.0309988
  41.2370012  41.9924997  55.4849988  41.3619721  42.2747084  54.6716843
  46.1290012  38.4314997  53.6209988  46.8410012  37.7914997  53.6069988
  46.0280012  38.6984997  52.7069988  46.2127939  38.3799938  53.4955650
  46.4830012  40.1144997  55.6739988  46.3510012  39.6384997  54.8539988
  45.8840012  40.8584997  55.6189988  46.3839071  40.1499618  55.5542886
  46.0290012  56.9974997  38.8509988  46.9620012  57.1554997  38.9939988
  45.7650012  57.6724997  38.2259988  46.1209510  57.1103611  38.7860741
  39.5980012  51.6334997  38.3329988  40.5120012  51.7124997  38.6069988
  39.6050012  50.9464997  37.6669988  39.7241131  51.5513961  38.2804393
  38.2470012  57.0264997  43.4109988  37.6000012  56.5644997  42.8779988
  38.6010012  56.3544997  43.9929988  38.2063849  56.8724723  43.4167959
  39.1170012  55.1074997  45.2149988  38.7820012  54.2274997  45.3869988
  39.3390012  55.4524997  46.0799988  39.1011783  55.0337500  45.3554208
  56.6650012  55.9164997  48.1959988  56.6440012  56.1014997  49.1349988
  57.3560012  56.4854997  47.8549988  56.7554618  56.0186606  48.2783864
  56.2290012  55.4844997  51.1179988  55.7410012  54.7484997  50.7469988
  56.7780012  55.0904997  51.7959988  56.2364872  55.3306249  51.1589160
  54.6790012  51.2734997  55.7559988  53.8130012  51.1684997  56.1499988
  55.0560012  52.0324997  56.2019988  54.6113308  51.3616900  55.8702393
  55.9800012  49.5304997  41.2699988  56.8300012  49.9514997  41.3969988
  55.9860012  48.7904997  41.8769988  56.0971372  49.4880803  41.3694344
  56.3750012  47.5834997  43.0939988  55.6480012  47.1044997  43.4909988
  56.9560012  47.7894997  43.8259988  56.3539375  47.5457090  43.2474129
  56.1340012  50.3684997  48.0409988  56.9670012  49.9904997  47.7609988
  56.2460012  51.3114997  47.9219988  56.2632647  50.4442218  47.9865487
  54.6200012  53.2464997  50.3479988  53.9730012  53.5714997  50.9739988
  54.1030012  52.8064997  49.6739988  54.4614029  53.2315004  50.3425827
  56.6430012  47.4844997  39.4849988  56.1210012  47.8414997  38.7659988
  56.6100012  48.1594997  40.1629988  56.5671634  47.6245413  39.4783145
  54.9920012  44.7244997  38.0359988  55.0880012  45.3914997  37.3549988
  54.8520012  43.9084997  37.5539988  54.9862135  44.7054500  37.8778491
  54.1610012  46.1044997  43.6569988  54.0110012  45.1594997  43.6359988
  53.8080012  46.3854997  44.4999988  54.0926625  46.0130441  43.7682346
  39.1970012  48.1824997  47.6669988  39.3810012  48.1004997  46.7309988
  40.0460012  48.0584997  48.0909988  39.3370139  48.1545003  47.5961455
  55.0180012  48.0744997  53.2949988  55.6010012  47.3404997  53.4869988
  55.5820012  48.8464997  53.3419988  55.1739769  48.0784227  53.3276159
  56.5140012  45.9774997  53.9799988  55.6510012  45.5984997  53.8139988
  57.1190012  45.2384997  53.9059988  56.4775979  45.8258023  53.9472817
  54.2390012  42.1324997  37.1529988  54.8500012  41.7614997  37.7899988
  53.4030012  41.7114997  37.3489988  54.2095032  42.0247554  37.2667035
  53.8720012  43.6874997  42.1189988  54.1520012  42.7804997  42.2429988
  54.6310012  44.1214997  41.7299988  54.0129277  43.6220942  42.0833682
  54.4840012  44.2684997  47.5549988  55.4170012  44.4804997  47.5209988
  54.2490012  44.3704997  48.4769988  54.5798036  44.3112769  47.6749976
  54.5130012  45.0054997  50.3309988  53.6700012  45.2734997  50.6969988
  54.9550012  45.8274997  50.1199988  54.4574158  45.1533291  50.3525491
  38.7940012  43.4534997  53.8079988  39.7140012  43.3314997  54.0439988
  38.3450012  42.7034997  54.1969988  38.8591580  43.3353727  53.8929006
  56.7960012  38.9854997  55.6839988  57.1460012  38.3314997  55.0789988
  56.9430012  39.8224997  55.2449988  56.8638419  39.0091591  55.5417118
  54.4850012  40.9504997  42.1669988  54.6680012  40.5014997  42.9929988
  53.8860012  40.3654997  41.7039988  54.4290202  40.8099975  42.2173275
  40.0150012  41.7654997  46.6989988  40.4610012  40.9734997  47.0009988
  40.4820012  42.4814997  47.1299988  40.1390172  41.7540624  46.7984820
  38.3190012  44.7644997  47.7679988  38.8110012  44.5434997  46.9769988
  38.6820012  45.6054997  48.0489988  38.4353126  44.8478357  47.6977531
  56.3160012  41.0944997  54.0339988  55.3980012  41.3654997  53.9979988
  56.4390012  40.5594997  53.2489988  56.2071066  41.0592892  53.9230487
  56.3520012  41.0174997  38.6949988  56.7640012  40.2964997  38.2199988
  57.0340012  41.6874997  38.7539988  56.5005885  41.0092368  38.6378915
  38.6330012  41.0224997  41.8219988  37.7080012  41.2314997  41.6929988
  39.0870012  41.5064997  41.1329988  38.5677368  41.1165993  41.7111226
  53.4040012  56.0064997  43.7679988  54.0560012  55.6594997  43.1599988
  53.9140012  56.4954997  44.4139988  53.5622637  56.0250597  43.7720236
  38.5970012  39.7604997  50.1669988  37.9320012  39.5144997  50.8099988
  38.1540012  40.3824997  49.5889988  38.4460956  39.8108632  50.1769352
  40.7890012  52.9354997  54.3109988  39.9680012  53.1104997  53.8509988
  40.5360012  52.8624997  55.2319988  40.6426164  52.9495622  54.3724923
  43.7430012  53.9104997  50.5699988  43.3180012  54.7194997  50.2869988
  44.6470012  53.9954997  50.2679988  43.8070271  54.0328469  50.4903776
  48.0540012  55.3094997  53.5289988  48.2390012  54.9754997  54.4069988
  48.9000012  55.6184997  53.2069988  48.1937539  55.3056047  53.6055605
  50.3990012  56.5954997  52.7729988  51.0760012  55.9624997  52.5329988
  50.7210012  56.9964997  53.5799988  50.5351637  56.5631154  52.8492793
  55.3160012  39.1844997  51.8529988  54.5040012  39.5094997  51.4649988
  55.5490012  38.4244997  51.3199988  55.2363423  39.1262436  51.7278253
  41.1450012  57.1664997  50.6169988  40.4240012  57.6064997  50.1659988
  40.7790012  56.9154997  51.4659988  40.9969804  57.1927698  50.6699840
  43.6120012  56.7664997  49.6469988  42.7470012  56.8384997  50.0509988
  43.5570012  57.3134997  48.8629988  43.4862085  56.8502685  49.5963362
  48.3220012  56.6544997  48.8219988  47.8660012  57.1834997  48.1679988
  48.4850012  57.2574997  49.5479988  48.2815585  56.8084468  48.8305062
  50.6500012  55.5324997  49.7669988  49.7450012  55.6974997  49.5019988
  51.0790012  56.3854997  49.7019988  50.5840799  55.6704483  49.7219182
  53.2540012  57.1024997  50.0619988  53.0720012  58.0184997  49.8519988
  53.4310012  56.6924997  49.2159988  53.2530210  57.1724822  49.9187885
  40.5590012  55.7894997  47.5269988  40.5410012  55.3644997  48.3849988
  41.3640012  55.4714997  47.1189988  40.6653875  55.6883812  47.5891655
  42.7010012  54.4994997  46.1819988  42.4820012  53.5834997  46.3519988
  43.5250012  54.6394997  46.6479988  42.7824420  54.3930520  46.2682774
  45.2380012  54.9694997  47.0309988  45.4510012  54.0814997  46.7439988
  45.3020012  54.9354997  47.9849988  45.2758232  54.8433102  47.1207397
  48.7460012  40.6334997  46.1749988  48.0720012  40.0044997  46.4309988
  49.3100012  40.1494997  45.5719988  48.7299230  40.4818744  46.1285340
  53.8890012  38.7414997  46.2879988  54.4930012  39.2884997  45.7859988
  53.0190012  39.0604997  46.0479988  53.8541241  38.8595806  46.1867654
  55.6160012  39.8794997  44.6209988  56.2280012  39.3654997  44.0949988
  55.9980012  40.7574997  44.6449988  55.7514540  39.9277140  44.5521830
  41.0730012  39.2674997  43.9969988  40.2960012  39.0334997  43.4899988
  41.6030012  38.4704997  44.0059988  41.0382330  39.1276988  43.9287742
  39.9090012  39.0654997  39.8009988  40.3480012  39.6764997  39.2089988
  39.2760012  39.6034997  40.2749988  39.8834514  39.2219257  39.7840930
  45.6520012  39.1944997  43.8109988  46.5270012  39.5824997  43.7809988
  45.5160012  38.9794997  44.7329988  45.7533695  39.2185184  43.9316440
  51.2090012  39.2244997  45.4599988  51.2850012  39.3194997  44.5099988
  50.9340012  38.3164997  45.5889988  51.1822321  39.1147867  45.3475079
  52.5620012  39.2504997  41.1519988  51.8600012  39.8654997  40.9429988
  52.1180012  38.4124997  41.2829988  52.4056330  39.2215783  41.1410328
  39.8100012  55.0134997  40.6989988  39.1250012  54.9754997  40.0309988
  39.8140012  55.9264997  40.9869988  39.7168193  55.1317016  40.6465284
  41.7700012  40.9814997  38.2429988  42.2620012  40.3514997  37.7159988
  42.3940012  41.2774997  38.9069988  41.9215446  40.9353199  38.2605980
  46.7960012  41.2744997  40.6999988  46.9740012  40.6284997  41.3829988
  46.7430012  42.1084997  41.1679988  46.8131829  41.2987985  40.8565940
  48.6750012  56.2234997  39.0959988  49.5410012  56.5894997  38.9179988
  48.4280012  55.7834997  38.2819988  48.7602392  56.2141756  38.9616289
  55.3840012  55.7864997  41.7749988  55.1890012  55.0384997  41.2099988
  55.3450012  56.5444997  41.1919988  55.3520380  55.7866099  41.6188384
  41.0310012  39.7814997  53.5149988  40.6650012  39.0164997  53.9579988
  41.9440012  39.8104997  53.8019988  41.1042790  39.6807224  53.6144070
  43.0040012  39.1324997  55.0509988  43.9020012  38.8584997  54.8659988
  42.6170012  38.3894997  55.5149988  43.0746612  38.9945914  55.0883643
  41.6280012  55.9334997  37.7239988  41.3610012  56.2204997  38.5969988
  42.4000012  55.3874997  37.8759988  41.6957488  55.8990294  37.8641050
  51.4250012  38.4644997  55.2329988  51.5020012  38.0384997  56.0869988
  52.3190012  38.4784997  54.8899988  51.5563428  38.4080879  55.3035310
  54.6010012  54.5374997  53.9249988  53.8190012  54.3514997  53.4059988
  54.5290012  55.4664997  54.1429988  54.4841777  54.6376492  53.8834048
  69.0070012  48.4234997  43.9559988  69.0960012  49.3674997  43.8239988
  68.3690012  48.1484997  43.2979988  68.9329081  48.5154830  43.8489614
  67.9400012  47.6784997  47.3749988  67.9020012  47.0324997  48.0799988
  67.6180012  47.2124997  46.6039988  67.8912333  47.5269408  47.3672978
  60.3090012  47.2934997  48.9679988  60.3500012  46.6674997  49.6909988
  61.0120012  47.9174997  49.1499988  60.4096363  47.2921196  49.0916044
  71.6460012  50.6174997  45.6759988  71.2060012  49.8974997  46.1269988
  71.6330012  51.3384997  46.3059988  71.5840226  50.6163731  45.8228494
  61.2320012  51.7434997  47.5029988  60.8630012  50.9414997  47.1329988
  62.1730012  51.5744997  47.5489988  61.3087289  51.6110153  47.4586316
  57.8420012  45.4034997  42.8959988  57.3950012  46.2494997  42.8769988
  57.2810012  44.8234997  42.3799988  57.7049900  45.4409916  42.8236801
  58.5530012  47.5654997  45.0219988  58.7660012  46.7954997  45.5489988
  59.2910012  47.6544997  44.4179988  58.6818496  47.4721394  45.0125300
  66.3300012  50.1114997  47.7809988  66.6340012  49.4254997  47.1859988
  67.0510012  50.2294997  48.3989988  66.4690671  50.0336305  47.7831816
  74.9930012  41.7124997  48.6419988  75.0420012  42.3224997  49.3779988
  75.4180012  42.1734997  47.9189988  75.0571824  41.8583741  48.6450205
  69.4710012  44.5054997  48.1089988  69.6130012  43.5594997  48.1289988
  69.3640012  44.7124997  47.1799988  69.4759864  44.4039534  47.9862339
  62.6250012  42.6064997  45.3809988  62.6690012  43.4664997  44.9629988
  62.1680012  42.0544997  44.7469988  62.5692185  42.6495799  45.2380299
  70.3480012  42.7374997  43.7819988  70.9940012  42.4084997  44.4069988
  70.8580012  43.2554997  43.1589988  70.5054264  42.7624611  43.7833862
  59.2460012  45.0034997  46.1429988  59.8990012  44.4534997  46.5749988
  59.2700012  44.7294997  45.2259988  59.3386683  44.8911466  46.0782123
  64.4020012  46.5534997  45.3579988  65.0180012  46.0274997  45.8679988
  63.8160012  45.9134997  44.9549988  64.4070810  46.3949208  45.3733173
  75.3840012  43.1904997  50.8779988  74.6960012  43.8484997  50.7819988
  75.4000012  42.9934997  51.8139988  75.2918525  43.2540462  50.9914808
  61.4360012  41.5244997  49.4549988  61.2170012  42.0544997  48.6889988
  60.7680012  41.7514997  50.1019988  61.3157600  41.6276906  49.4376379
  68.8050012  51.0244997  42.9989988  68.5090012  50.7024997  42.1479988
  68.4800012  51.9244997  43.0399988  68.7206371  51.1020215  42.8881801
  64.0050012  49.2004997  49.7419988  63.2650012  49.7984997  49.8459988
  64.7190012  49.7544997  49.4269988  64.0002237  49.3572831  49.7136465
  72.1120012  42.0284997  45.7619988  71.8960012  41.2624997  46.2949988
  72.7670012  42.5004997  46.2749988  72.1710632  41.9875889  45.9042861
  61.0290012  43.4164997  47.4069988  61.6430012  44.0494997  47.7809988
  61.5410012  42.9444997  46.7509988  61.1822296  43.4392370  47.3694252
  62.4120012  51.1644997  50.5299988  62.4070012  52.0444997  50.1519988
  61.5590012  51.0814997  50.9549988  62.2959464  51.2736117  50.5357907
  58.5330012  50.8354997  41.3119988  58.2610012  51.0644997  40.4229988
  58.5790012  51.6734997  41.7719988  58.5020094  50.9801213  41.2525697
  72.1580012  52.4574997  48.0239988  71.2170012  52.5154997  48.1859988
  72.4350012  53.3634997  47.8869988  72.0664679  52.5879443  48.0276815
  72.4590012  40.7434997  49.4419988  71.7230012  41.3544997  49.4039988
  73.1420012  41.1584997  48.9149988  72.4506541  40.8831374  49.3655832
  65.4620012  38.8304997  46.9079988  65.3450012  37.8814997  46.8529988
  64.6070012  39.1624997  47.1809988  65.3303733  38.7455409  46.9373897
  71.5700012  52.1394997  43.1579988  71.3120012  51.4494997  42.5469988
  71.6410012  51.6964997  44.0039988  71.5442856  51.9852124  43.1886885
  73.2560012  50.7054997  51.6359988  73.3960012  50.1144997  50.8959988
  73.4230012  51.5784997  51.2789988  73.2976778  50.7426426  51.4866965
  75.0980012  47.0454997  49.7019988  74.4450012  47.7404997  49.7909988
  75.5630012  47.2554997  48.8919988  75.0715390  47.1689425  49.6046883
  71.1340012  47.8774997  42.3599988  70.4020012  48.1054997  42.9329988
  71.5820012  47.1634997  42.8149988  71.0943095  47.8122571  42.4999119
  71.0320012  46.0514997  51.4269988  71.1120012  46.8144997  51.9989988
  70.4300012  46.3304997  50.7369988  70.9615756  46.1937134  51.4120589
  64.1460012  51.9354997  46.9239988  64.0520012  51.3574997  46.1669988
  64.8760012  51.5644997  47.4199988  64.2317981  51.8062390  46.8874165
  63.1460012  47.2764997  47.8759988  63.7120012  47.3974997  47.1129988
  63.4650012  47.9134997  48.5149988  63.2665786  47.3791884  47.8580040
  69.4550012  52.7794997  48.6099988  69.2150012  53.4414997  49.2579988
  69.2570012  51.9454997  49.0349988  69.3953808  52.7573134  48.7561524
  64.0260012  51.6754997  52.5929988  63.7150012  52.4574997  53.0479988
  63.3760012  51.5224997  51.9069988  63.8955558  51.7619105  52.5625871
  60.9460012  47.8734997  51.8219988  61.0170012  48.5244997  52.5199988
  60.0560012  47.9764997  51.4869988  60.8353117  47.9765936  51.8722700
  62.2660012  53.7474997  53.3559988  62.2730012  53.6114997  52.4089988
  61.3500012  53.6294997  53.6079988  62.1431714  53.7129430  53.2604666
  73.7040012  38.7894997  39.8579988  72.8040012  38.9284997  40.1529988
  73.9560012  39.6204997  39.4559988  73.6148702  38.9209074  39.8440205
  61.7700012  47.5774997  41.8319988  61.4780012  48.3454997  41.3409988
  61.0960012  46.9174997  41.6689988  61.6389081  47.5934406  41.7427340
  57.8630012  49.9404997  50.6469988  57.3620012  49.9124997  49.8319988
  57.8680012  49.0344997  50.9559988  57.7951526  49.8142278  50.5772872
  57.6130012  52.7204997  47.5309988  58.5590012  52.5764997  47.5119988
  57.5010012  53.5044997  48.0679988  57.7272727  52.8068046  47.6010072
  75.8110012  53.3864997  53.2129988  75.7620012  52.4314997  53.1759988
  74.9840012  53.6544997  53.6139988  75.6924940  53.2918998  53.2621375
  66.7900012  52.9604997  52.0889988  66.8770012  53.7864997  52.5639988
  65.9260012  52.6304997  52.3379988  66.6851964  53.0289878  52.1876549
  60.8570012  55.5214997  43.6759988  61.0100012  55.1734997  44.5549988
  60.0070012  55.1654997  43.4209988  60.7628962  55.4256650  43.7618340
  72.9630012  44.8794997  53.6929988  72.5560012  45.3604997  52.9719988
  73.0040012  43.9744997  53.3849988  72.9128437  44.8229374  53.5526683
  60.1120012  51.2634997  51.6899988  60.3280012  50.9024997  52.5489988
  59.2570012  50.8894997  51.4799988  60.0259292  51.1634111  51.7793386
  62.7310012  39.7334997  47.6849988  61.8690012  39.6464997  47.2779988
  62.7080012  40.5894997  48.1129988  62.6100330  39.8372765  47.6871863
  67.3940012  39.4554997  51.0599988  67.8140012  39.0404997  51.8129988
  66.4610012  39.2774997  51.1769988  67.3253644  39.3745900  51.1789539
  70.7200012  43.2114997  51.9129988  70.2060012  43.0854997  52.7109988
  70.5650012  44.1234997  51.6689988  70.6286852  43.3176132  51.9892158
  67.0550012  41.9484997  38.3449988  66.8020012  41.9674997  39.2679988
  66.7990012  41.0764997  38.0439988  66.9857790  41.8332437  38.4306263
  62.8220012  44.6994997  48.7799988  62.1800012  44.6584997  49.4889988
  62.8590012  45.6254997  48.5429988  62.7391324  44.8191559  48.8449824
  62.8190012  44.9204997  43.6919988  61.9260012  44.5794997  43.6339988
  63.2690012  44.5434997  42.9369988  62.7577305  44.8228484  43.5819177
  68.3540012  45.3364997  42.5089988  67.9450012  46.1514997  42.2179988
  69.0750012  45.1964997  41.8949988  68.3954537  45.4292018  42.3861342
  67.4560012  45.5114997  53.9969988  66.8940012  44.8074997  54.3179988
  68.2830012  45.3914997  54.4649988  67.4907095  45.3987883  54.1042330
  69.3590012  44.7824997  45.3229988  69.1640012  45.3874997  44.6079988
  69.5400012  43.9484997  44.8889988  69.3567614  44.7526300  45.1664405
  60.5720012  45.0194997  50.6469988  60.5340012  45.4194997  51.5159988
  60.0810012  44.2024997  50.7379988  60.5004684  44.9638069  50.7781059
  63.9380012  42.3934997  37.4459988  63.5070012  41.9484997  38.1759988
  63.2200012  42.7654997  36.9339988  63.7819438  42.3828940  37.4766799
  57.1800012  42.1354997  44.4979988  57.8110012  42.1064997  45.2169988
  57.6290012  41.7104997  43.7679988  57.3270774  42.0740492  44.4976553
  58.4540012  42.8814997  39.9219988  58.9280012  43.4724997  39.3369988
  57.7370012  43.4124997  40.2689988  58.4219341  43.0340867  39.8888836
  68.6230012  46.4204997  49.9949988  68.9460012  45.7894997  49.3519988
  68.1830012  45.8854997  50.6549988  68.6076895  46.2618441  49.9962850
  65.4000012  42.3474997  44.7789988  64.4890012  42.4044997  45.0669988
  65.9060012  42.2874997  45.5889988  65.3435413  42.3471985  44.9280622
  60.2290012  43.9764997  43.6049988  59.3390012  44.0764997  43.2649988
  60.5250012  43.1344997  43.2589988  60.1472823  43.8763545  43.5117213
  63.8820012  43.9764997  41.2619988  64.8130012  44.1054997  41.4399988
  63.6670012  44.6464997  40.6119988  63.9804247  44.0846565  41.1985747
  69.8050012  41.5824997  48.0429988  69.1290012  41.7134997  48.7069988
  69.3200012  41.4274997  47.2329988  69.6467145  41.5794905  48.0244517
  62.5560012  45.1714997  38.8289988  62.0130012  44.7914997  38.1369988
  63.3890012  45.3654997  38.3999988  62.5944399  45.1458124  38.6764526
  73.0930012  57.2544997  54.3199988  73.2930012  57.6784997  53.4849988
  73.7480012  57.5974997  54.9269988  73.2090051  57.3589648  54.2877836
  60.6910012  49.7284997  53.9279988  61.4230012  49.9824997  54.4889988
  59.9110012  49.9324997  54.4429988  60.6858232  49.7909177  54.0745760
  66.7200012  45.1354997  46.6659988  67.2850012  44.5884997  46.1189988
  66.5730012  44.6134997  47.4539988  66.7772918  44.9902024  46.6978454
  61.7220012  41.2714997  43.0839988  61.4050012  40.3694997  43.0489988
  62.5040012  41.2734997  42.5309988  61.7842284  41.1481628  43.0044783
  65.3470012  43.5234997  49.0799988  64.5110012  43.9774997  49.1899988
  65.8710012  43.7994997  49.8319988  65.3034414  43.6229376  49.1967136
  73.0410012  48.8694997  49.5509988  73.6830012  49.3264997  49.0069988
  72.2110012  48.9824997  49.0879988  73.0165963  48.9472704  49.4140177
  69.7890012  42.5504997  38.9639988  68.8500012  42.6624997  38.8119988
  70.0860012  43.4074997  39.2699988  69.7007666  42.6816443  38.9845768
  67.4100012  49.9204997  52.0009988  67.0650012  49.5394997  52.8079988
  67.2100012  50.8544997  52.0729988  67.3358061  49.9945228  52.1210961
  70.5070012  44.4174997  40.6239988  71.3990012  44.2804997  40.9429988
  70.5640012  45.2084997  40.0879988  70.6366285  44.5056660  40.5951691
  61.0160012  49.0314997  46.5339988  61.7610012  49.0294997  45.9329988
  61.0940012  48.2084997  47.0159988  61.1285518  48.9199315  46.5168929
  58.0240012  47.4924997  51.8489988  58.2470012  47.0744997  52.6809988
  57.4220012  46.8794997  51.4259988  57.9731759  47.3524668  51.9057022
  65.0400012  47.0094997  54.0619988  64.7440012  46.8434997  53.1669988
  65.9720012  46.7894997  54.0509988  65.1254166  46.9570640  53.9380536
  69.6610012  52.3824997  51.9519988  68.7600012  52.5654997  51.6839988
  69.6950012  52.6414997  52.8729988  69.5423041  52.4425512  52.0398197
  75.3920012  44.6274997  40.3189988  74.8380012  44.2314997  39.6469988
  75.4920012  45.5374997  40.0409988  75.3297059  44.6963586  40.1894401
  75.3550012  50.4274997  53.1559988  74.5040012  50.6654997  52.7889988
  75.9460012  50.4104997  52.4029988  75.3182487  50.4578258  53.0038893
  70.8480012  48.2214997  47.8049988  69.9190012  47.9894997  47.7779988
  71.2990012  47.4444997  47.4749988  70.7819216  48.0847238  47.7566917
  59.1460012  47.4114997  38.5249988  59.7620012  48.0384997  38.9049988
  58.2840012  47.7274997  38.7969988  59.1137698  47.5399430  38.6137183
  68.8770012  50.4604997  49.5299988  68.4510012  50.2334997  50.3569988
  69.4570012  49.7224997  49.3479988  68.8971868  50.3295299  49.6185830
  71.5350012  55.0124997  51.9999988  70.9340012  54.4574997  51.5039988
  71.8170012  55.6794997  51.3739988  71.4908519  55.0266841  51.8474952
  59.6580012  42.2454997  51.4069988  58.7650012  42.5844997  51.3389988
  59.5590012  41.3904997  51.8249988  59.5224164  42.1762588  51.4542235
  71.9460012  50.0624997  40.8309988  71.6680012  49.3344997  41.3869988
  72.8730012  50.1814997  41.0359988  72.0333124  49.9788802  40.9348845
  59.3090012  54.0504997  49.8419988  59.5260012  53.1184997  49.8109988
  59.5550012  54.3244997  50.7249988  59.3719549  53.9600636  49.9571763
  60.5610012  49.3244997  40.0179988  59.8750012  49.6764997  40.5849988
  61.0830012  50.0874997  39.7709988  60.5376852  49.4758578  40.0622118
  68.3920012  41.9864997  50.2969988  69.0910012  42.0604997  50.9469988
  68.0110012  41.1224997  50.4509988  68.4361767  41.8797624  50.4068322
  69.1770012  41.6384997  41.3939988  69.3970012  42.1104997  40.5909988
  69.7350012  42.0334997  42.0639988  69.2824968  41.7564285  41.3747331
  66.3770012  43.3664997  42.2289988  67.1890012  43.8714997  42.2749988
  66.1320012  43.2214997  43.1429988  66.4550520  43.4160375  42.3588517
  66.9120012  44.3524997  51.4139988  67.0310012  44.9264997  52.1709988
  67.5680012  43.6644997  51.5279988  67.0169757  44.3381079  51.5330825
  67.2600012  40.4474997  43.1669988  66.9140012  41.0654997  43.8119988
  67.9190012  40.9484997  42.6859988  67.3017826  40.5995802  43.1900971
  62.9180012  41.5104997  39.8539988  62.8350012  42.3994997  40.2009988
  63.8080012  41.2454997  40.0859988  63.0269469  41.5961430  39.9327626
  73.1170012  42.2594997  52.2489988  72.2000012  42.5224997  52.1609988
  73.4520012  42.2564997  51.3519988  73.0369900  42.2950224  52.1157919
  71.7190012  46.0104997  46.3439988  70.9210012  45.5954997  46.0159988
  72.1640012  45.3194997  46.8349988  71.6699885  45.8603543  46.3654889
  61.1770012  51.9384997  38.9149988  61.7690012  52.6374997  39.1909988
  61.6360012  51.5054997  38.1949988  61.3201142  51.9757049  38.8554830
  59.4930012  44.6024997  38.0309988  59.4480012  45.5414997  38.2089988
  58.6050012  44.3664997  37.7609988  59.3668574  44.6991892  38.0188912
  72.8050012  55.2664997  47.9669988  72.6500012  55.9444997  47.3099988
  73.7380012  55.3384997  48.1699988  72.9098500  55.3690170  47.9045119
  60.3010012  39.3844997  46.7039988  60.0720012  39.4434997  45.7759988
  59.8580012  38.5924997  47.0099988  60.2098530  39.2855753  46.6184786
  59.2310012  53.3244997  42.8639988  58.3990012  53.7974997  42.8919988
  59.7770012  53.8344997  42.2659988  59.1909739  53.4581871  42.7869716
  58.5190012  55.9374997  54.1939988  59.0600012  55.7204997  54.9539988
  58.0380012  55.1314997  54.0049988  58.5279345  55.7989514  54.2723076
  63.1170012  54.8564997  55.8149988  63.8840012  54.3974997  56.1559988
  63.0950012  54.6304997  54.8849988  63.2191434  54.7630409  55.7360043
  69.6940012  53.2364997  54.5439988  69.3430012  52.3804997  54.7869988
  70.4200012  53.3794997  55.1509988  69.7440769  53.1385636  54.6593619
  58.4260012  49.7474997  55.1489988  58.5700012  48.8454997  54.8619988
  57.6540012  50.0334997  54.6609988  58.3413322  49.6628261  55.0437881
  62.7680012  50.0914997  37.2809988  62.8320012  49.2974997  37.8119988
  63.4210012  49.9724997  36.5909988  62.8650241  49.9667148  37.2604317
  65.0820012  49.7174997  54.5809988  64.7530012  49.9884997  53.7239988
  65.2340012  48.7764997  54.4939988  65.0574809  49.6273862  54.4518244
  70.8160012  49.6334997  51.9649988  71.5620012  50.2214997  51.8449988
  70.0590012  50.2154997  52.0279988  70.8157554  49.7927011  51.9570907
  59.2590012  46.9474997  54.5689988  59.6670012  46.0904997  54.4479988
  58.9990012  46.9624997  55.4899988  59.2797568  46.8320807  54.6769588
  63.2060012  45.9564997  51.9429988  62.5880012  46.6314997  52.2229988
  63.5500012  46.2774997  51.1099988  63.1679615  46.0922721  51.8686581
  68.2260012  48.4284997  55.2199988  69.1790012  48.5114997  55.1929988
  68.0650012  47.7164997  55.8399988  68.3346426  48.3436746  55.3000579
  63.5450012  43.3114997  53.0249988  63.6950012  42.5824997  52.4229988
  63.5480012  44.0884997  52.4659988  63.5659302  43.3167851  52.8670692
  63.9580012  41.6814997  50.5179988  64.4940012  42.1324997  49.8659988
  63.1060012  41.5734997  50.0949988  63.9162178  41.7286390  50.3715756
  65.5400012  47.1204997  50.7569988  66.2900012  46.9644997  50.1839988
  65.2010012  47.9724997  50.4819988  65.5968921  47.2142968  50.6413561
  69.9550012  44.9354997  55.7859988  70.1480012  44.0044997  55.6739988
  70.8130012  45.3604997  55.7759988  70.0973020  44.8656389  55.7693361
  71.2720012  47.7244997  53.8629988  70.9910012  48.4334997  53.2859988
  72.2150012  47.6514997  53.7119988  71.3609027  47.8117646  53.7635551
  62.0240012  44.5094997  54.9369988  61.2570012  43.9774997  54.7269988
  62.7030012  44.1994997  54.3369988  62.0107022  44.3947506  54.8271648
  64.7640012  39.1374997  50.9489988  64.6650012  40.0844997  50.8439988
  64.0210012  38.7654997  50.4739988  64.6500564  39.2165902  50.8704560
  66.0280012  43.4594997  54.5129988  65.7920012  43.2394997  55.4149988
  65.2440012  43.2524997  54.0029988  65.8898628  43.4014760  54.5673932
  68.7430012  42.5864997  53.5889988  67.7960012  42.6184997  53.7209988
  69.0560012  41.9614997  54.2419988  68.6555475  42.5063207  53.6954455
  70.3770012  41.2204997  55.5939988  70.2810012  40.2684997  55.5879988
  70.0560012  41.4894997  56.4539988  70.3204070  41.1264035  55.7095441
  60.2040012  42.4304997  54.6409988  60.4160012  41.7234997  54.0309988
  60.0930012  41.9924997  55.4849988  60.2179721  42.2747084  54.6716843
  64.9850012  38.4314997  53.6209988  65.6970012  37.7914997  53.6069988
  64.8840012  38.6984997  52.7069988  65.0687939  38.3799938  53.4955650
  65.3390012  40.1144997  55.6739988  65.2070012  39.6384997  54.8539988
  64.7400012  40.8584997  55.6189988  65.2399071  40.1499618  55.5542886
  58.4540012  51.6334997  38.3329988  59.3680012  51.7124997  38.6069988
  58.4610012  50.9464997  37.6669988  58.5801131  51.5513961  38.2804393
  57.1030012  57.0264997  43.4109988  56.4560012  56.5644997  42.8779988
  57.4570012  56.3544997  43.9929988  57.0623849  56.8724723  43.4167959
  57.9730012  55.1074997  45.2149988  57.6380012  54.2274997  45.3869988
  58.1950012  55.4524997  46.0799988  57.9571783  55.0337500  45.3554208
  75.5210012  55.9164997  48.1959988  75.5000012  56.1014997  49.1349988
  76.2120012  56.4854997  47.8549988  75.6114618  56.0186606  48.2783864
  75.0850012  55.4844997  51.1179988  74.5970012  54.7484997  50.7469988
  75.6340012  55.0904997  51.7959988  75.0924872  55.3306249  51.1589160
  73.5350012  51.2734997  55.7559988  72.6690012  51.1684997  56.1499988
  73.9120012  52.0324997  56.2019988  73.4673308  51.3616900  55.8702393
  74.8360012  49.5304997  41.2699988  75.6860012  49.9514997  41.3969988
  74.8420012  48.7904997  41.8769988  74.9531372  49.4880803  41.3694344
  75.2310012  47.5834997  43.0939988  74.5040012  47.1044997  43.4909988
  75.8120012  47.7894997  43.8259988  75.2099375  47.5457090  43.2474129
  74.9900012  50.3684997  48.0409988  75.8230012  49.9904997  47.7609988
  75.1020012  51.3114997  47.9219988  75.1192647  50.4442218  47.9865487
  73.4760012  53.2464997  50.3479988  72.8290012  53.5714997  50.9739988
  72.9590012  52.8064997  49.6739988  73.3174029  53.2315004  50.3425827
  75.4990012  47.4844997  39.4849988  74.9770012  47.8414997  38.7659988
  75.4660012  48.1594997  40.1629988  75.4231634  47.6245413  39.4783145
  73.8480012  44.7244997  38.0359988  73.9440012  45.3914997  37.3549988
  73.7080012  43.9084997  37.5539988  73.8422135  44.7054500  37.8778491
  73.0170012  46.1044997  43.6569988  72.8670012  45.1594997  43.6359988
  72.6640012  46.3854997  44.4999988  72.9486625  46.0130441  43.7682346
  58.0530012  48.1824997  47.6669988  58.2370012  48.1004997  46.7309988
  58.9020012  48.0584997  48.0909988  58.1930139  48.1545003  47.5961455
  73.8740012  48.0744997  53.2949988  74.4570012  47.3404997  53.4869988
  74.4380012  48.8464997  53.3419988  74.0299769  48.0784227  53.3276159
  75.3700012  45.9774997  53.9799988  74.5070012  45.5984997  53.8139988
  75.9750012  45.2384997  53.9059988  75.3335979  45.8258023  53.9472817
  73.0950012  42.1324997  37.1529988  73.7060012  41.7614997  37.7899988
  72.2590012  41.7114997  37.3489988  73.0655032  42.0247554  37.2667035
  72.7280012  43.6874997  42.1189988  73.0080012  42.7804997  42.2429988
  73.4870012  44.1214997  41.7299988  72.8689277  43.6220942  42.0833682
  73.3400012  44.2684997  47.5549988  74.2730012  44.4804997  47.5209988
  73.1050012  44.3704997  48.4769988  73.4358036  44.3112769  47.6749976
  73.3690012  45.0054997  50.3309988  72.5260012  45.2734997  50.6969988
  73.8110012  45.8274997  50.1199988  73.3134158  45.1533291  50.3525491
  57.6500012  43.4534997  53.8079988  58.5700012  43.3314997  54.0439988
  57.2010012  42.7034997  54.1969988  57.7151580  43.3353727  53.8929006
  75.6520012  38.9854997  55.6839988  76.0020012  38.3314997  55.0789988
  75.7990012  39.8224997  55.2449988  75.7198419  39.0091591  55.5417118
  73.3410012  40.9504997  42.1669988  73.5240012  40.5014997  42.9929988
  72.7420012  40.3654997  41.7039988  73.2850202  40.8099975  42.2173275
  58.8710012  41.7654997  46.6989988  59.3170012  40.9734997  47.0009988
  59.3380012  42.4814997  47.1299988  58.9950172  41.7540624  46.7984820
  57.1750012  44.7644997  47.7679988  57.6670012  44.5434997  46.9769988
  57.5380012  45.6054997  48.0489988  57.2913126  44.8478357  47.6977531
  75.1720012  41.0944997  54.0339988  74.2540012  41.3654997  53.9979988
  75.2950012  40.5594997  53.2489988  75.0631066  41.0592892  53.9230487
  75.2080012  41.0174997  38.6949988  75.6200012  40.2964997  38.2199988
  75.8900012  41.6874997  38.7539988  75.3565885  41.0092368  38.6378915
  57.4890012  41.0224997  41.8219988  56.5640012  41.2314997  41.6929988
  57.9430012  41.5064997  41.1329988  57.4237368  41.1165993  41.7111226
  57.4530012  39.7604997  50.1669988  56.7880012  39.5144997  50.8099988
  57.0100012  40.3824997  49.5889988  57.3020956  39.8108632  50.1769352
  59.6450012  52.9354997  54.3109988  58.8240012  53.1104997  53.8509988
  59.3920012  52.8624997  55.2319988  59.4986164  52.9495622  54.3724923
  62.5990012  53.9104997  50.5699988  62.1740012  54.7194997  50.2869988
  63.5030012  53.9954997  50.2679988  62.6630271  54.0328469  50.4903776
  66.9100012  55.3094997  53.5289988  67.0950012  54.9754997  54.4069988
  67.7560012  55.6184997  53.2069988  67.0497539  55.3056047  53.6055605
  69.2550012  56.5954997  52.7729988  69.9320012  55.9624997  52.5329988
  69.5770012  56.9964997  53.5799988  69.3911637  56.5631154  52.8492793
  74.1720012  39.1844997  51.8529988  73.3600012  39.5094997  51.4649988
  74.4050012  38.4244997  51.3199988  74.0923423  39.1262436  51.7278253
  60.0010012  57.1664997  50.6169988  59.2800012  57.6064997  50.1659988
  59.6350012  56.9154997  51.4659988  59.8529804  57.1927698  50.6699840
  72.1100012  57.1024997  50.0619988  71.9280012  58.0184997  49.8519988
  72.2870012  56.6924997  49.2159988  72.1090210  57.1724822  49.9187885
  59.4150012  55.7894997  47.5269988  59.3970012  55.3644997  48.3849988
  60.2200012  55.4714997  47.1189988  59.5213875  55.6883812  47.5891655
  61.5570012  54.4994997  46.1819988  61.3380012  53.5834997  46.3519988
  62.3810012  54.6394997  46.6479988  61.6384420  54.3930520  46.2682774
  67.6020012  40.6334997  46.1749988  66.9280012  40.0044997  46.4309988
  68.1660012  40.1494997  45.5719988  67.5859230  40.4818744  46.1285340
  72.7450012  38.7414997  46.2879988  73.3490012  39.2884997  45.7859988
  71.8750012  39.0604997  46.0479988  72.7101241  38.8595806  46.1867654
  74.4720012  39.8794997  44.6209988  75.0840012  39.3654997  44.0949988
  74.8540012  40.7574997  44.6449988  74.6074540  39.9277140  44.5521830
  59.9290012  39.2674997  43.9969988  59.1520012  39.0334997  43.4899988
  60.4590012  38.4704997  44.0059988  59.8942330  39.1276988  43.9287742
  58.7650012  39.0654997  39.8009988  59.2040012  39.6764997  39.2089988
  58.1320012  39.6034997  40.2749988  58.7394514  39.2219257  39.7840930
  64.5080012  39.1944997  43.8109988  65.3830012  39.5824997  43.7809988
  64.3720012  38.9794997  44.7329988  64.6093695  39.2185184  43.9316440
  70.0650012  39.2244997  45.4599988  70.1410012  39.3194997  44.5099988
  69.7900012  38.3164997  45.5889988  70.0382321  39.1147867  45.3475079
  71.4180012  39.2504997  41.1519988  70.7160012  39.8654997  40.9429988
  70.9740012  38.4124997  41.2829988  71.2616330  39.2215783  41.1410328
  58.6660012  55.0134997  40.6989988  57.9810012  54.9754997  40.0309988
  58.6700012  55.9264997  40.9869988  58.5728193  55.1317016  40.6465284
  60.6260012  40.9814997  38.2429988  61.1180012  40.3514997  37.7159988
  61.2500012  41.2774997  38.9069988  60.7775446  40.9353199  38.2605980
  65.6520012  41.2744997  40.6999988  65.8300012  40.6284997  41.3829988
  65.5990012  42.1084997  41.1679988  65.6691829  41.2987985  40.8565940
  74.2400012  55.7864997  41.7749988  74.0450012  55.0384997  41.2099988
  74.2010012  56.5444997  41.1919988  74.2080380  55.7866099  41.6188384
  59.8870012  39.7814997  53.5149988  59.5210012  39.0164997  53.9579988
  60.8000012  39.8104997  53.8019988  59.9602790  39.6807224  53.6144070
  61.8600012  39.1324997  55.0509988  62.7580012  38.8584997  54.8659988
  61.4730012  38.3894997  55.5149988  61.9306612  38.9945914  55.0883643
  70.2810012  38.4644997  55.2329988  70.3580012  38.0384997  56.0869988
  71.1750012  38.4784997  54.8899988  70.4123428  38.4080879  55.3035310
  73.4570012  54.5374997  53.9249988  72.6750012  54.3514997  53.4059988
  73.3850012  55.4664997  54.1429988  73.3401777  54.6376492  53.8834048
  87.8630012  48.4234997  43.9559988  87.9520012  49.3674997  43.8239988
  87.2250012  48.1484997  43.2979988  87.7889081  48.5154830  43.8489614
  86.7960012  47.6784997  47.3749988  86.7580012  47.0324997  48.0799988
  86.4740012  47.2124997  46.6039988  86.7472333  47.5269408  47.3672978
  79.1650012  47.2934997  48.9679988  79.2060012  46.6674997  49.6909988
  79.8680012  47.9174997  49.1499988  79.2656363  47.2921196  49.0916044
  90.5020012  50.6174997  45.6759988  90.0620012  49.8974997  46.1269988
  90.4890012  51.3384997  46.3059988  90.4400226  50.6163731  45.8228494
  80.0880012  51.7434997  47.5029988  79.7190012  50.9414997  47.1329988
  81.0290012  51.5744997  47.5489988  80.1647289  51.6110153  47.4586316
  76.6980012  45.4034997  42.8959988  76.2510012  46.2494997  42.8769988
  76.1370012  44.8234997  42.3799988  76.5609900  45.4409916  42.8236801
  77.4090012  47.5654997  45.0219988  77.6220012  46.7954997  45.5489988
  78.1470012  47.6544997  44.4179988  77.5378496  47.4721394  45.0125300
  87.6140012  55.7224997  45.8889988  88.2340012  55.0454997  45.6149988
  87.4060012  55.5044997  46.7969988  87.6706904  55.6003870  45.9743365
  85.1860012  50.1114997  47.7809988  85.4900012  49.4254997  47.1859988
  85.9070012  50.2294997  48.3989988  85.3250671  50.0336305  47.7831816
  93.8490012  41.7124997  48.6419988  93.8980012  42.3224997  49.3779988
  94.2740012  42.1734997  47.9189988  93.9131824  41.8583741  48.6450205
  88.3270012  44.5054997  48.1089988  88.4690012  43.5594997  48.1289988
  88.2200012  44.7124997  47.1799988  88.3319864  44.4039534  47.9862339
  81.4810012  42.6064997  45.3809988  81.5250012  43.4664997  44.9629988
  81.0240012  42.0544997  44.7469988  81.4252185  42.6495799  45.2380299
  89.2040012  42.7374997  43.7819988  89.8500012  42.4084997  44.4069988
  89.7140012  43.2554997  43.1589988  89.3614264  42.7624611  43.7833862
  78.1020012  45.0034997  46.1429988  78.7550012  44.4534997  46.5749988
  78.1260012  44.7294997  45.2259988  78.1946683  44.8911466  46.0782123
  83.2580012  46.5534997  45.3579988  83.8740012  46.0274997  45.8679988
  82.6720012  45.9134997  44.9549988  83.2630810  46.3949208  45.3733173
  94.2400012  43.1904997  50.8779988  93.5520012  43.8484997  50.7819988
  94.2560012  42.9934997  51.8139988  94.1478525  43.2540462  50.9914808
  80.2920012  41.5244997  49.4549988  80.0730012  42.0544997  48.6889988
  79.6240012  41.7514997  50.1019988  80.1717600  41.6276906  49.4376379
  87.6610012  51.0244997  42.9989988  87.3650012  50.7024997  42.1479988
  87.3360012  51.9244997  43.0399988  87.5766371  51.1020215  42.8881801
  82.8610012  49.2004997  49.7419988  82.1210012  49.7984997  49.8459988
  83.5750012  49.7544997  49.4269988  82.8562237  49.3572831  49.7136465
  90.9680012  42.0284997  45.7619988  90.7520012  41.2624997  46.2949988
  91.6230012  42.5004997  46.2749988  91.0270632  41.9875889  45.9042861
  79.8850012  43.4164997  47.4069988  80.4990012  44.0494997  47.7809988
  80.3970012  42.9444997  46.7509988  80.0382296  43.4392370  47.3694252
  81.2680012  51.1644997  50.5299988  81.2630012  52.0444997  50.1519988
  80.4150012  51.0814997  50.9549988  81.1519464  51.2736117  50.5357907
  91.0140012  52.4574997  48.0239988  90.0730012  52.5154997  48.1859988
  91.2910012  53.3634997  47.8869988  90.9224679  52.5879443  48.0276815
  91.3150012  40.7434997  49.4419988  90.5790012  41.3544997  49.4039988
  91.9980012  41.1584997  48.9149988  91.3066541  40.8831374  49.3655832
  84.3180012  38.8304997  46.9079988  84.2010012  37.8814997  46.8529988
  83.4630012  39.1624997  47.1809988  84.1863733  38.7455409  46.9373897
  89.2660012  54.2384997  44.6499988  89.6920012  53.5314997  44.1649988
  89.5830012  55.0394997  44.2329988  89.3671019  54.2500994  44.5273130
  90.4260012  52.1394997  43.1579988  90.1680012  51.4494997  42.5469988
  90.4970012  51.6964997  44.0039988  90.4002856  51.9852124  43.1886885
  92.1120012  50.7054997  51.6359988  92.2520012  50.1144997  50.8959988
  92.2790012  51.5784997  51.2789988  92.1536778  50.7426426  51.4866965
  86.5850012  47.6674997  41.4079988  85.8730012  48.2024997  41.0559988
  87.2760012  47.7234997  40.7479988  86.5810132  47.7482543  41.2706289
  86.6380012  46.1254997  38.4469988  87.3390012  46.1474997  39.0979988
  86.9410012  45.4974997  37.7909988  86.7747830  46.0436566  38.4473711
  93.9540012  47.0454997  49.7019988  93.3010012  47.7404997  49.7909988
  94.4190012  47.2554997  48.8919988  93.9275390  47.1689425  49.6046883
  89.9900012  47.8774997  42.3599988  89.2580012  48.1054997  42.9329988
  90.4380012  47.1634997  42.8149988  89.9503095  47.8122571  42.4999119
  89.8880012  46.0514997  51.4269988  89.9680012  46.8144997  51.9989988
  89.2860012  46.3304997  50.7369988  89.8175756  46.1937134  51.4120589
  81.6360012  48.5074997  44.2419988  81.3050012  48.1374997  43.4239988
  82.2240012  47.8374997  44.5889988  81.6701873  48.3661156  44.1768102
  83.0020012  51.9354997  46.9239988  82.9080012  51.3574997  46.1669988
  83.7320012  51.5644997  47.4199988  83.0877981  51.8062390  46.8874165
  82.0020012  47.2764997  47.8759988  82.5680012  47.3974997  47.1129988
  82.3210012  47.9134997  48.5149988  82.1225786  47.3791884  47.8580040
  88.3110012  52.7794997  48.6099988  88.0710012  53.4414997  49.2579988
  88.1130012  51.9454997  49.0349988  88.2513808  52.7573134  48.7561524
  82.8820012  51.6754997  52.5929988  82.5710012  52.4574997  53.0479988
  82.2320012  51.5224997  51.9069988  82.7515558  51.7619105  52.5625871
  88.8610012  47.0394997  40.0449988  89.4410012  47.1894997  40.7919988
  89.2750012  47.5104997  39.3219988  88.9962830  47.1236841  40.0494134
  79.8020012  47.8734997  51.8219988  79.8730012  48.5244997  52.5199988
  78.9120012  47.9764997  51.4869988  79.6913117  47.9765936  51.8722700
  86.5880012  53.7764997  43.4799988  87.0620012  54.0714997  44.2579988
  86.0250012  54.5144997  43.2469988  86.5767653  53.9166932  43.5550136
  81.1220012  53.7474997  53.3559988  81.1290012  53.6114997  52.4089988
  80.2060012  53.6294997  53.6079988  80.9991714  53.7129430  53.2604666
  92.5600012  38.7894997  39.8579988  91.6600012  38.9284997  40.1529988
  92.8120012  39.6204997  39.4559988  92.4708702  38.9209074  39.8440205
  80.6260012  47.5774997  41.8319988  80.3340012  48.3454997  41.3409988
  79.9520012  46.9174997  41.6689988  80.4949081  47.5934406  41.7427340
  93.7490012  53.1554997  38.2339988  93.8230012  54.0944997  38.4049988
  94.6550012  52.8504997  38.1779988  93.8815100  53.2426722  38.2498119
  76.7190012  49.9404997  50.6469988  76.2180012  49.9124997  49.8319988
  76.7240012  49.0344997  50.9559988  76.6511526  49.8142278  50.5772872
  76.4690012  52.7204997  47.5309988  77.4150012  52.5764997  47.5119988
  76.3570012  53.5044997  48.0679988  76.5832727  52.8068046  47.6010072
  94.6670012  53.3864997  53.2129988  94.6180012  52.4314997  53.1759988
  93.8400012  53.6544997  53.6139988  94.5484940  53.2918998  53.2621375
  85.6460012  52.9604997  52.0889988  85.7330012  53.7864997  52.5639988
  84.7820012  52.6304997  52.3379988  85.5411964  53.0289878  52.1876549
  86.0600012  56.7324997  41.8949988  85.9850012  56.6114997  40.9489988
  86.0930012  57.6824997  42.0139988  86.0541848  56.8442500  41.7814834
  91.8190012  44.8794997  53.6929988  91.4120012  45.3604997  52.9719988
  91.8600012  43.9744997  53.3849988  91.7688437  44.8229374  53.5526683
  78.9680012  51.2634997  51.6899988  79.1840012  50.9024997  52.5489988
  78.1130012  50.8894997  51.4799988  78.8819292  51.1634111  51.7793386
  81.5870012  39.7334997  47.6849988  80.7250012  39.6464997  47.2779988
  81.5640012  40.5894997  48.1129988  81.4660330  39.8372765  47.6871863
  86.2500012  39.4554997  51.0599988  86.6700012  39.0404997  51.8129988
  85.3170012  39.2774997  51.1769988  86.1813644  39.3745900  51.1789539
  89.5760012  43.2114997  51.9129988  89.0620012  43.0854997  52.7109988
  89.4210012  44.1234997  51.6689988  89.4846852  43.3176132  51.9892158
  90.3390012  48.0724997  37.6749988  90.3810012  47.8494997  36.7449988
  91.1880012  48.4714997  37.8649988  90.4595396  48.0959155  37.5733627
  85.9110012  41.9484997  38.3449988  85.6580012  41.9674997  39.2679988
  85.6550012  41.0764997  38.0439988  85.8417790  41.8332437  38.4306263
  81.6780012  44.6994997  48.7799988  81.0360012  44.6584997  49.4889988
  81.7150012  45.6254997  48.5429988  81.5951324  44.8191559  48.8449824
  81.6750012  44.9204997  43.6919988  80.7820012  44.5794997  43.6339988
  82.1250012  44.5434997  42.9369988  81.6137305  44.8228484  43.5819177
  87.2100012  45.3364997  42.5089988  86.8010012  46.1514997  42.2179988
  87.9310012  45.1964997  41.8949988  87.2514537  45.4292018  42.3861342
  86.3120012  45.5114997  53.9969988  85.7500012  44.8074997  54.3179988
  87.1390012  45.3914997  54.4649988  86.3467095  45.3987883  54.1042330
  88.2150012  44.7824997  45.3229988  88.0200012  45.3874997  44.6079988
  88.3960012  43.9484997  44.8889988  88.2127614  44.7526300  45.1664405
  79.4280012  45.0194997  50.6469988  79.3900012  45.4194997  51.5159988
  78.9370012  44.2024997  50.7379988  79.3564684  44.9638069  50.7781059
  82.7940012  42.3934997  37.4459988  82.3630012  41.9484997  38.1759988
  82.0760012  42.7654997  36.9339988  82.6379438  42.3828940  37.4766799
  76.0360012  42.1354997  44.4979988  76.6670012  42.1064997  45.2169988
  76.4850012  41.7104997  43.7679988  76.1830774  42.0740492  44.4976553
  77.3100012  42.8814997  39.9219988  77.7840012  43.4724997  39.3369988
  76.5930012  43.4124997  40.2689988  77.2779341  43.0340867  39.8888836
  87.4790012  46.4204997  49.9949988  87.8020012  45.7894997  49.3519988
  87.0390012  45.8854997  50.6549988  87.4636895  46.2618441  49.9962850
  84.2560012  42.3474997  44.7789988  83.3450012  42.4044997  45.0669988
  84.7620012  42.2874997  45.5889988  84.1995413  42.3471985  44.9280622
  79.0850012  43.9764997  43.6049988  78.1950012  44.0764997  43.2649988
  79.3810012  43.1344997  43.2589988  79.0032823  43.8763545  43.5117213
  82.7380012  43.9764997  41.2619988  83.6690012  44.1054997  41.4399988
  82.5230012  44.6464997  40.6119988  82.8364247  44.0846565  41.1985747
  88.6610012  41.5824997  48.0429988  87.9850012  41.7134997  48.7069988
  88.1760012  41.4274997  47.2329988  88.5027145  41.5794905  48.0244517
  81.4120012  45.1714997  38.8289988  80.8690012  44.7914997  38.1369988
  82.2450012  45.3654997  38.3999988  81.4504399  45.1458124  38.6764526
  91.9490012  57.2544997  54.3199988  92.1490012  57.6784997  53.4849988
  92.6040012  57.5974997  54.9269988  92.0650051  57.3589648  54.2877836
  79.5470012  49.7284997  53.9279988  80.2790012  49.9824997  54.4889988
  78.7670012  49.9324997  54.4429988  79.5418232  49.7909177  54.0745760
  85.5760012  45.1354997  46.6659988  86.1410012  44.5884997  46.1189988
  85.4290012  44.6134997  47.4539988  85.6332918  44.9902024  46.6978454
  80.5780012  41.2714997  43.0839988  80.2610012  40.3694997  43.0489988
  81.3600012  41.2734997  42.5309988  80.6402284  41.1481628  43.0044783
  84.2030012  43.5234997  49.0799988  83.3670012  43.9774997  49.1899988
  84.7270012  43.7994997  49.8319988  84.1594414  43.6229376  49.1967136
  84.7470012  49.7364997  40.7639988  84.0020012  49.2294997  40.4419988
  84.6130012  49.7854997  41.7109988  84.6268776  49.6736940  40.8478647
  91.8970012  48.8694997  49.5509988  92.5390012  49.3264997  49.0069988
  91.0670012  48.9824997  49.0879988  91.8725963  48.9472704  49.4140177
  88.6450012  42.5504997  38.9639988  87.7060012  42.6624997  38.8119988
  88.9420012  43.4074997  39.2699988  88.5567666  42.6816443  38.9845768
  86.2660012  49.9204997  52.0009988  85.9210012  49.5394997  52.8079988
  86.0660012  50.8544997  52.0729988  86.1918061  49.9945228  52.1210961
  89.3630012  44.4174997  40.6239988  90.2550012  44.2804997  40.9429988
  89.4200012  45.2084997  40.0879988  89.4926285  44.5056660  40.5951691
  79.8720012  49.0314997  46.5339988  80.6170012  49.0294997  45.9329988
  79.9500012  48.2084997  47.0159988  79.9845518  48.9199315  46.5168929
  86.8730012  51.1954997  39.7899988  86.5770012  52.0214997  40.1709988
  86.1700012  50.5754997  39.9859988  86.7374914  51.2248199  39.8686443
  76.8800012  47.4924997  51.8489988  77.1030012  47.0744997  52.6809988
  76.2780012  46.8794997  51.4259988  76.8291759  47.3524668  51.9057022
  83.8960012  47.0094997  54.0619988  83.6000012  46.8434997  53.1669988
  84.8280012  46.7894997  54.0509988  83.9814166  46.9570640  53.9380536
  88.5170012  52.3824997  51.9519988  87.6160012  52.5654997  51.6839988
  88.5510012  52.6414997  52.8729988  88.3983041  52.4425512  52.0398197
  94.2480012  44.6274997  40.3189988  93.6940012  44.2314997  39.6469988
  94.3480012  45.5374997  40.0409988  94.1857059  44.6963586  40.1894401
  94.2110012  50.4274997  53.1559988  93.3600012  50.6654997  52.7889988
  94.8020012  50.4104997  52.4029988  94.1742487  50.4578258  53.0038893
  92.5430012  53.4134997  40.7839988  92.1700012  52.5874997  41.0929988
  92.8210012  53.2304997  39.8869988  92.5295630  53.2757303  40.7049626
  89.7040012  48.2214997  47.8049988  88.7750012  47.9894997  47.7779988
  90.1550012  47.4444997  47.4749988  89.6379216  48.0847238  47.7566917
  82.2470012  52.5494997  43.9379988  82.7740012  53.3224997  43.7379988
  81.3670012  52.7744997  43.6369988  82.2001773  52.6858005  43.8699010
  78.0020012  47.4114997  38.5249988  78.6180012  48.0384997  38.9049988
  77.1400012  47.7274997  38.7969988  77.9697698  47.5399430  38.6137183
  83.6740012  50.2124997  43.5149988  83.4330012  51.1374997  43.5559988
  82.9330012  49.7534997  43.9109988  83.5408409  50.2771421  43.5741377
  84.1890012  54.3614997  49.8299988  84.5510012  55.2164997  49.5959988
  84.7200012  54.0694997  50.5699988  84.3104473  54.4391060  49.8980855
  82.3570012  55.2344997  43.0599988  81.4070012  55.3394997  43.1109988
  82.7090012  56.0544997  43.4049988  82.2744203  55.3598314  43.1136650
  87.7330012  50.4604997  49.5299988  87.3070012  50.2334997  50.3569988
  88.3130012  49.7224997  49.3479988  87.7531868  50.3295299  49.6185830
  89.9360012  51.3894997  38.6039988  90.2890012  51.0094997  39.4089988
  88.9870012  51.2964997  38.6909988  89.8560441  51.3249596  38.7258559
  90.3910012  55.0124997  51.9999988  89.7900012  54.4574997  51.5039988
  90.6730012  55.6794997  51.3739988  90.3468519  55.0266841  51.8474952
  94.4390012  55.8694997  38.8049988  95.1830012  56.4554997  38.6649988
  93.7450012  56.4374997  39.1389988  94.4470292  56.0265582  38.8309961
  78.5140012  42.2454997  51.4069988  77.6210012  42.5844997  51.3389988
  78.4150012  41.3904997  51.8249988  78.3784164  42.1762588  51.4542235
  90.8020012  50.0624997  40.8309988  90.5240012  49.3344997  41.3869988
  91.7290012  50.1814997  41.0359988  90.8893124  49.9788802  40.9348845
  78.1650012  54.0504997  49.8419988  78.3820012  53.1184997  49.8109988
  78.4110012  54.3244997  50.7249988  78.2279549  53.9600636  49.9571763
  84.0270012  52.5014997  37.0509988  84.2660012  51.7534997  36.5039988
  83.7580012  52.1134997  37.8839988  84.0233675  52.3466638  37.0886865
  82.9640012  52.0714997  39.5079988  83.1100012  51.5514997  40.2979988
  82.9610012  52.9784997  39.8139988  82.9835989  52.1228853  39.6576088
  79.4170012  49.3244997  40.0179988  78.7310012  49.6764997  40.5849988
  79.9390012  50.0874997  39.7709988  79.3936852  49.4758578  40.0622118
  87.2480012  41.9864997  50.2969988  87.9470012  42.0604997  50.9469988
  86.8670012  41.1224997  50.4509988  87.2921767  41.8797624  50.4068322
  88.0330012  41.6384997  41.3939988  88.2530012  42.1104997  40.5909988
  88.5910012  42.0334997  42.0639988  88.1384968  41.7564285  41.3747331
  85.7010012  53.7694997  40.2569988  84.8850012  54.2664997  40.3089988
  86.2310012  54.2444997  39.6169988  85.6609161  53.9017722  40.1775956
  85.2330012  43.3664997  42.2289988  86.0450012  43.8714997  42.2749988
  84.9880012  43.2214997  43.1429988  85.3110520  43.4160375  42.3588517
  85.7680012  44.3524997  51.4139988  85.8870012  44.9264997  52.1709988
  86.4240012  43.6644997  51.5279988  85.8729757  44.3381079  51.5330825
  86.1160012  40.4474997  43.1669988  85.7700012  41.0654997  43.8119988
  86.7750012  40.9484997  42.6859988  86.1577826  40.5995802  43.1900971
  83.0400012  54.8134997  40.2389988  83.2000012  55.6124997  39.7379988
  82.8420012  55.1194997  41.1239988  83.0351649  54.9644469  40.2899815
  81.7740012  41.5104997  39.8539988  81.6910012  42.3994997  40.2009988
  82.6640012  41.2454997  40.0859988  81.8829469  41.5961430  39.9327626
  91.9730012  42.2594997  52.2489988  91.0560012  42.5224997  52.1609988
  92.3080012  42.2564997  51.3519988  91.8929900  42.2950224  52.1157919
  90.5750012  46.0104997  46.3439988  89.7770012  45.5954997  46.0159988
  91.0200012  45.3194997  46.8349988  90.5259885  45.8603543  46.3654889
  80.0330012  51.9384997  38.9149988  80.6250012  52.6374997  39.1909988
  80.4920012  51.5054997  38.1949988  80.1761142  51.9757049  38.8554830
  78.3490012  44.6024997  38.0309988  78.3040012  45.5414997  38.2089988
  77.4610012  44.3664997  37.7609988  78.2228574  44.6991892  38.0188912
  91.6610012  55.2664997  47.9669988  91.5060012  55.9444997  47.3099988
  92.5940012  55.3384997  48.1699988  91.7658500  55.3690170  47.9045119
  79.1570012  39.3844997  46.7039988  78.9280012  39.4434997  45.7759988
  78.7140012  38.5924997  47.0099988  79.0658530  39.2855753  46.6184786
  78.0870012  53.3244997  42.8639988  77.2550012  53.7974997  42.8919988
  78.6330012  53.8344997  42.2659988  78.0469739  53.4581871  42.7869716
  77.3750012  55.9374997  54.1939988  77.9160012  55.7204997  54.9539988
  76.8940012  55.1314997  54.0049988  77.3839345  55.7989514  54.2723076
  81.9730012  54.8564997  55.8149988  82.7400012  54.3974997  56.1559988
  81.9510012  54.6304997  54.8849988  82.0751434  54.7630409  55.7360043
  88.5500012  53.2364997  54.5439988  88.1990012  52.3804997  54.7869988
  89.2760012  53.3794997  55.1509988  88.6000769  53.1385636  54.6593619
  90.6690012  54.1814997  37.4239988  90.9520012  53.3874997  37.8759988
  91.4090012  54.4144997  36.8629988  90.8077486  54.1042803  37.4100698
  77.2820012  49.7474997  55.1489988  77.4260012  48.8454997  54.8619988
  76.5100012  50.0334997  54.6609988  77.1973322  49.6628261  55.0437881
  81.6240012  50.0914997  37.2809988  81.6880012  49.2974997  37.8119988
  82.2770012  49.9724997  36.5909988  81.7210241  49.9667148  37.2604317
  83.9380012  49.7174997  54.5809988  83.6090012  49.9884997  53.7239988
  84.0900012  48.7764997  54.4939988  83.9134809  49.6273862  54.4518244
  86.9760012  51.1384997  37.0169988  86.7070012  51.3184997  37.9179988
  86.7700012  50.2124997  36.8859988  86.9113825  51.0380152  37.1225214
  89.6720012  49.6334997  51.9649988  90.4180012  50.2214997  51.8449988
  88.9150012  50.2154997  52.0279988  89.6717554  49.7927011  51.9570907
  78.1150012  46.9474997  54.5689988  78.5230012  46.0904997  54.4479988
  77.8550012  46.9624997  55.4899988  78.1357568  46.8320807  54.6769588
  82.7730012  48.0634997  39.5869988  82.3130012  47.5794997  40.2729988
  83.0280012  47.3954997  38.9509988  82.7444902  47.9068731  39.5949334
  82.0620012  45.9564997  51.9429988  81.4440012  46.6314997  52.2229988
  82.4060012  46.2774997  51.1099988  82.0239615  46.0922721  51.8686581
  83.8440012  46.3064997  37.8489988  83.6640012  46.1524997  36.9219988
  84.7940012  46.4144997  37.8939988  83.9477776  46.3000175  37.7281843
  87.0820012  48.4284997  55.2199988  88.0350012  48.5114997  55.1929988
  86.9210012  47.7164997  55.8399988  87.1906426  48.3436746  55.3000579
  93.2340012  48.6614997  37.2949988  92.9600012  48.2364997  36.4819988
  93.2730012  49.5924997  37.0779988  93.2017699  48.7292484  37.1543610
  82.4010012  43.3114997  53.0249988  82.5510012  42.5824997  52.4229988
  82.4040012  44.0884997  52.4659988  82.4219302  43.3167851  52.8670692
  82.8140012  41.6814997  50.5179988  83.3500012  42.1324997  49.8659988
  81.9620012  41.5734997  50.0949988  82.7722178  41.7286390  50.3715756
  84.3960012  47.1204997  50.7569988  85.1460012  46.9644997  50.1839988
  84.0570012  47.9724997  50.4819988  84.4528921  47.2142968  50.6413561
  88.8110012  44.9354997  55.7859988  89.0040012  44.0044997  55.6739988
  89.6690012  45.3604997  55.7759988  88.9533020  44.8656389  55.7693361
  90.1280012  47.7244997  53.8629988  89.8470012  48.4334997  53.2859988
  91.0710012  47.6514997  53.7119988  90.2169027  47.8117646  53.7635551
  80.8800012  44.5094997  54.9369988  80.1130012  43.9774997  54.7269988
  81.5590012  44.1994997  54.3369988  80.8667022  44.3947506  54.8271648
  83.6200012  39.1374997  50.9489988  83.5210012  40.0844997  50.8439988
  82.8770012  38.7654997  50.4739988  83.5060564  39.2165902  50.8704560
  84.8840012  43.4594997  54.5129988  84.6480012  43.2394997  55.4149988
  84.1000012  43.2524997  54.0029988  84.7458628  43.4014760  54.5673932
  87.5990012  42.5864997  53.5889988  86.6520012  42.6184997  53.7209988
  87.9120012  41.9614997  54.2419988  87.5115475  42.5063207  53.6954455
  89.2330012  41.2204997  55.5939988  89.1370012  40.2684997  55.5879988
  88.9120012  41.4894997  56.4539988  89.1764070  41.1264035  55.7095441
  79.0600012  42.4304997  54.6409988  79.2720012  41.7234997  54.0309988
  78.9490012  41.9924997  55.4849988  79.0739721  42.2747084  54.6716843
  83.8410012  38.4314997  53.6209988  84.5530012  37.7914997  53.6069988
  83.7400012  38.6984997  52.7069988  83.9247939  38.3799938  53.4955650
  84.1950012  40.1144997  55.6739988  84.0630012  39.6384997  54.8539988
  83.5960012  40.8584997  55.6189988  84.0959071  40.1499618  55.5542886
  94.3770012  55.9164997  48.1959988  94.3560012  56.1014997  49.1349988
  95.0680012  56.4854997  47.8549988  94.4674618  56.0186606  48.2783864
  93.9410012  55.4844997  51.1179988  93.4530012  54.7484997  50.7469988
  94.4900012  55.0904997  51.7959988  93.9484872  55.3306249  51.1589160
  92.3910012  51.2734997  55.7559988  91.5250012  51.1684997  56.1499988
  92.7680012  52.0324997  56.2019988  92.3233308  51.3616900  55.8702393
  93.6920012  49.5304997  41.2699988  94.5420012  49.9514997  41.3969988
  93.6980012  48.7904997  41.8769988  93.8091372  49.4880803  41.3694344
  94.0870012  47.5834997  43.0939988  93.3600012  47.1044997  43.4909988
  94.6680012  47.7894997  43.8259988  94.0659375  47.5457090  43.2474129
  93.8460012  50.3684997  48.0409988  94.6790012  49.9904997  47.7609988
  93.9580012  51.3114997  47.9219988  93.9752647  50.4442218  47.9865487
  92.3320012  53.2464997  50.3479988  91.6850012  53.5714997  50.9739988
  91.8150012  52.8064997  49.6739988  92.1734029  53.2315004  50.3425827
  94.3550012  47.4844997  39.4849988  93.8330012  47.8414997  38.7659988
  94.3220012  48.1594997  40.1629988  94.2791634  47.6245413  39.4783145
  92.7040012  44.7244997  38.0359988  92.8000012  45.3914997  37.3549988
  92.5640012  43.9084997  37.5539988  92.6982135  44.7054500  37.8778491
  91.8730012  46.1044997  43.6569988  91.7230012  45.1594997  43.6359988
  91.5200012  46.3854997  44.4999988  91.8046625  46.0130441  43.7682346
  76.9090012  48.1824997  47.6669988  77.0930012  48.1004997  46.7309988
  77.7580012  48.0584997  48.0909988  77.0490139  48.1545003  47.5961455
  92.7300012  48.0744997  53.2949988  93.3130012  47.3404997  53.4869988
  93.2940012  48.8464997  53.3419988  92.8859769  48.0784227  53.3276159
  94.2260012  45.9774997  53.9799988  93.3630012  45.5984997  53.8139988
  94.8310012  45.2384997  53.9059988  94.1895979  45.8258023  53.9472817
  91.9510012  42.1324997  37.1529988  92.5620012  41.7614997  37.7899988
  91.1150012  41.7114997  37.3489988  91.9215032  42.0247554  37.2667035
  91.5840012  43.6874997  42.1189988  91.8640012  42.7804997  42.2429988
  92.3430012  44.1214997  41.7299988  91.7249277  43.6220942  42.0833682
  92.1960012  44.2684997  47.5549988  93.1290012  44.4804997  47.5209988
  91.9610012  44.3704997  48.4769988  92.2918036  44.3112769  47.6749976
  92.2250012  45.0054997  50.3309988  91.3820012  45.2734997  50.6969988
  92.6670012  45.8274997  50.1199988  92.1694158  45.1533291  50.3525491
  76.5060012  43.4534997  53.8079988  77.4260012  43.3314997  54.0439988
  76.0570012  42.7034997  54.1969988  76.5711580  43.3353727  53.8929006
  94.5080012  38.9854997  55.6839988  94.8580012  38.3314997  55.0789988
  94.6550012  39.8224997  55.2449988  94.5758419  39.0091591  55.5417118
  92.1970012  40.9504997  42.1669988  92.3800012  40.5014997  42.9929988
  91.5980012  40.3654997  41.7039988  92.1410202  40.8099975  42.2173275
  77.7270012  41.7654997  46.6989988  78.1730012  40.9734997  47.0009988
  78.1940012  42.4814997  47.1299988  77.8510172  41.7540624  46.7984820
  76.0310012  44.7644997  47.7679988  76.5230012  44.5434997  46.9769988
  76.3940012  45.6054997  48.0489988  76.1473126  44.8478357  47.6977531
  94.0280012  41.0944997  54.0339988  93.1100012  41.3654997  53.9979988
  94.1510012  40.5594997  53.2489988  93.9191066  41.0592892  53.9230487
  94.0640012  41.0174997  38.6949988  94.4760012  40.2964997  38.2199988
  94.7460012  41.6874997  38.7539988  94.2125885  41.0092368  38.6378915
  76.3450012  41.0224997  41.8219988  75.4200012  41.2314997  41.6929988
  76.7990012  41.5064997  41.1329988  76.2797368  41.1165993  41.7111226
  91.1160012  56.0064997  43.7679988  91.7680012  55.6594997  43.1599988
  91.6260012  56.4954997  44.4139988  91.2742637  56.0250597  43.7720236
  76.3090012  39.7604997  50.1669988  75.6440012  39.5144997  50.8099988
  75.8660012  40.3824997  49.5889988  76.1580956  39.8108632  50.1769352
  78.5010012  52.9354997  54.3109988  77.6800012  53.1104997  53.8509988
  78.2480012  52.8624997  55.2319988  78.3546164  52.9495622  54.3724923
  81.4550012  53.9104997  50.5699988  81.0300012  54.7194997  50.2869988
  82.3590012  53.9954997  50.2679988  81.5190271  54.0328469  50.4903776
  85.7660012  55.3094997  53.5289988  85.9510012  54.9754997  54.4069988
  86.6120012  55.6184997  53.2069988  85.9057539  55.3056047  53.6055605
  88.1110012  56.5954997  52.7729988  88.7880012  55.9624997  52.5329988
  88.4330012  56.9964997  53.5799988  88.2471637  56.5631154  52.8492793
  93.0280012  39.1844997  51.8529988  92.2160012  39.5094997  51.4649988
  93.2610012  38.4244997  51.3199988  92.9483423  39.1262436  51.7278253
  78.8570012  57.1664997  50.6169988  78.1360012  57.6064997  50.1659988
  78.4910012  56.9154997  51.4659988  78.7089804  57.1927698  50.6699840
  81.3240012  56.7664997  49.6469988  80.4590012  56.8384997  50.0509988
  81.2690012  57.3134997  48.8629988  81.1982085  56.8502685  49.5963362
  86.0340012  56.6544997  48.8219988  85.5780012  57.1834997  48.1679988
  86.1970012  57.2574997  49.5479988  85.9935585  56.8084468  48.8305062
  88.3620012  55.5324997  49.7669988  87.4570012  55.6974997  49.5019988
  88.7910012  56.3854997  49.7019988  88.2960799  55.6704483  49.7219182
  90.9660012  57.1024997  50.0619988  90.7840012  58.0184997  49.8519988
  91.1430012  56.6924997  49.2159988  90.9650210  57.1724822  49.9187885
  78.2710012  55.7894997  47.5269988  78.2530012  55.3644997  48.3849988
  79.0760012  55.4714997  47.1189988  78.3773875  55.6883812  47.5891655
  80.4130012  54.4994997  46.1819988  80.1940012  53.5834997  46.3519988
  81.2370012  54.6394997  46.6479988  80.4944420  54.3930520  46.2682774
  82.9500012  54.9694997  47.0309988  83.1630012  54.0814997  46.7439988
  83.0140012  54.9354997  47.9849988  82.9878232  54.8433102  47.1207397
  86.4580012  40.6334997  46.1749988  85.7840012  40.0044997  46.4309988
  87.0220012  40.1494997  45.5719988  86.4419230  40.4818744  46.1285340
  91.6010012  38.7414997  46.2879988  92.2050012  39.2884997  45.7859988
  90.7310012  39.0604997  46.0479988  91.5661241  38.8595806  46.1867654
  93.3280012  39.8794997  44.6209988  93.9400012  39.3654997  44.0949988
  93.7100012  40.7574997  44.6449988  93.4634540  39.9277140  44.5521830
  78.7850012  39.2674997  43.9969988  78.0080012  39.0334997  43.4899988
  79.3150012  38.4704997  44.0059988  78.7502330  39.1276988  43.9287742
  77.6210012  39.0654997  39.8009988  78.0600012  39.6764997  39.2089988
  76.9880012  39.6034997  40.2749988  77.5954514  39.2219257  39.7840930
  83.3640012  39.1944997  43.8109988  84.2390012  39.5824997  43.7809988
  83.2280012  38.9794997  44.7329988  83.4653695  39.2185184  43.9316440
  88.9210012  39.2244997  45.4599988  88.9970012  39.3194997  44.5099988
  88.6460012  38.3164997  45.5889988  88.8942321  39.1147867  45.3475079
  90.2740012  39.2504997  41.1519988  89.5720012  39.8654997  40.9429988
  89.8300012  38.4124997  41.2829988  90.1176330  39.2215783  41.1410328
  79.4820012  40.9814997  38.2429988  79.9740012  40.3514997  37.7159988
  80.1060012  41.2774997  38.9069988  79.6335446  40.9353199  38.2605980
  84.5080012  41.2744997  40.6999988  84.6860012  40.6284997  41.3829988
  84.4550012  42.1084997  41.1679988  84.5251829  41.2987985  40.8565940
  93.0960012  55.7864997  41.7749988  92.9010012  55.0384997  41.2099988
  93.0570012  56.5444997  41.1919988  93.0640380  55.7866099  41.6188384
  78.7430012  39.7814997  53.5149988  78.3770012  39.0164997  53.9579988
  79.6560012  39.8104997  53.8019988  78.8162790  39.6807224  53.6144070
  80.7160012  39.1324997  55.0509988  81.6140012  38.8584997  54.8659988
  80.3290012  38.3894997  55.5149988  80.7866612  38.9945914  55.0883643
  89.1370012  38.4644997  55.2329988  89.2140012  38.0384997  56.0869988
  90.0310012  38.4784997  54.8899988  89.2683428  38.4080879  55.3035310
  92.3130012  54.5374997  53.9249988  91.5310012  54.3514997  53.4059988
  92.2410012  55.4664997  54.1429988  92.1961777  54.6376492  53.8834048
 106.7190012  48.4234997  43.9559988 106.8080012  49.3674997  43.8239988
 106.0810012  48.1484997  43.2979988 106.6449081  48.5154830  43.8489614
 105.6520012  47.6784997  47.3749988 105.6140012  47.0324997  48.0799988
 105.3300012  47.2124997  46.6039988 105.6032333  47.5269408  47.3672978
  98.0210012  47.2934997  48.9679988  98.0620012  46.6674997  49.6909988
  98.7240012  47.9174997  49.1499988  98.1216363  47.2921196  49.0916044
 109.3580012  50.6174997  45.6759988 108.9180012  49.8974997  46.1269988
 109.3450012  51.3384997  46.3059988 109.2960226  50.6163731  45.8228494
  98.9440012  51.7434997  47.5029988  98.5750012  50.9414997  47.1329988
  99.8850012  51.5744997  47.5489988  99.0207289  51.6110153  47.4586316
  95.5540012  45.4034997  42.8959988  95.1070012  46.2494997  42.8769988
  94.9930012  44.8234997  42.3799988  95.4169900  45.4409916  42.8236801
  96.2650012  47.5654997  45.0219988  96.4780012  46.7954997  45.5489988
  97.0030012  47.6544997  44.4179988  96.3938496  47.4721394  45.0125300
 106.4700012  55.7224997  45.8889988 107.0900012  55.0454997  45.6149988
 106.2620012  55.5044997  46.7969988 106.5266904  55.6003870  45.9743365
 104.0420012  50.1114997  47.7809988 104.3460012  49.4254997  47.1859988
 104.7630012  50.2294997  48.3989988 104.1810671  50.0336305  47.7831816
 112.7050012  41.7124997  48.6419988 112.7540012  42.3224997  49.3779988
 113.1300012  42.1734997  47.9189988 112.7691824  41.8583741  48.6450205
 107.1830012  44.5054997  48.1089988 107.3250012  43.5594997  48.1289988
 107.0760012  44.7124997  47.1799988 107.1879864  44.4039534  47.9862339
 100.3370012  42.6064997  45.3809988 100.3810012  43.4664997  44.9629988
  99.8800012  42.0544997  44.7469988 100.2812185  42.6495799  45.2380299
 108.0600012  42.7374997  43.7819988 108.7060012  42.4084997  44.4069988
 108.5700012  43.2554997  43.1589988 108.2174264  42.7624611  43.7833862
  96.9580012  45.0034997  46.1429988  97.6110012  44.4534997  46.5749988
  96.9820012  44.7294997  45.2259988  97.0506683  44.8911466  46.0782123
 102.1140012  46.5534997  45.3579988 102.7300012  46.0274997  45.8679988
 101.5280012  45.9134997  44.9549988 102.1190810  46.3949208  45.3733173
 113.0960012  43.1904997  50.8779988 112.4080012  43.8484997  50.7819988
 113.1120012  42.9934997  51.8139988 113.0038525  43.2540462  50.9914808
  99.1480012  41.5244997  49.4549988  98.9290012  42.0544997  48.6889988
  98.4800012  41.7514997  50.1019988  99.0277600  41.6276906  49.4376379
 106.5170012  51.0244997  42.9989988 106.2210012  50.7024997  42.1479988
 106.1920012  51.9244997  43.0399988 106.4326371  51.1020215  42.8881801
 101.7170012  49.2004997  49.7419988 100.9770012  49.7984997  49.8459988
 102.4310012  49.7544997  49.4269988 101.7122237  49.3572831  49.7136465
 109.8240012  42.0284997  45.7619988 109.6080012  41.2624997  46.2949988
 110.4790012  42.5004997  46.2749988 109.8830632  41.9875889  45.9042861
  98.7410012  43.4164997  47.4069988  99.3550012  44.0494997  47.7809988
  99.2530012  42.9444997  46.7509988  98.8942296  43.4392370  47.3694252
 100.1240012  51.1644997  50.5299988 100.1190012  52.0444997  50.1519988
  99.2710012  51.0814997  50.9549988 100.0079464  51.2736117  50.5357907
  96.2450012  50.8354997  41.3119988  95.9730012  51.0644997  40.4229988
  96.2910012  51.6734997  41.7719988  96.2140094  50.9801213  41.2525697
 109.8700012  52.4574997  48.0239988 108.9290012  52.5154997  48.1859988
 110.1470012  53.3634997  47.8869988 109.7784679  52.5879443  48.0276815
 110.1710012  40.7434997  49.4419988 109.4350012  41.3544997  49.4039988
 110.8540012  41.1584997  48.9149988 110.1626541  40.8831374  49.3655832
 103.1740012  38.8304997  46.9079988 103.0570012  37.8814997  46.8529988
 102.3190012  39.1624997  47.1809988 103.0423733  38.7455409  46.9373897
 108.1220012  54.2384997  44.6499988 108.5480012  53.5314997  44.1649988
 108.4390012  55.0394997  44.2329988 108.2231019  54.2500994  44.5273130
 109.2820012  52.1394997  43.1579988 109.0240012  51.4494997  42.5469988
 109.3530012  51.6964997  44.0039988 109.2562856  51.9852124  43.1886885
 110.9680012  50.7054997  51.6359988 111.1080012  50.1144997  50.8959988
 111.1350012  51.5784997  51.2789988 111.0096778  50.7426426  51.4866965
 105.4410012  47.6674997  41.4079988 104.7290012  48.2024997  41.0559988
 106.1320012  47.7234997  40.7479988 105.4370132  47.7482543  41.2706289
 105.4940012  46.1254997  38.4469988 106.1950012  46.1474997  39.0979988
 105.7970012  45.4974997  37.7909988 105.6307830  46.0436566  38.4473711
 112.8100012  47.0454997  49.7019988 112.1570012  47.7404997  49.7909988
 113.2750012  47.2554997  48.8919988 112.7835390  47.1689425  49.6046883
 108.8460012  47.8774997  42.3599988 108.1140012  48.1054997  42.9329988
 109.2940012  47.1634997  42.8149988 108.8063095  47.8122571  42.4999119
 108.7440012  46.0514997  51.4269988 108.8240012  46.8144997  51.9989988
 108.1420012  46.3304997  50.7369988 108.6735756  46.1937134  51.4120589
 100.4920012  48.5074997  44.2419988 100.1610012  48.1374997  43.4239988
 101.0800012  47.8374997  44.5889988 100.5261873  48.3661156  44.1768102
 101.8580012  51.9354997  46.9239988 101.7640012  51.3574997  46.1669988
 102.5880012  51.5644997  47.4199988 101.9437981  51.8062390  46.8874165
 100.8580012  47.2764997  47.8759988 101.4240012  47.3974997  47.1129988
 101.1770012  47.9134997  48.5149988 100.9785786  47.3791884  47.8580040
 107.1670012  52.7794997  48.6099988 106.9270012  53.4414997  49.2579988
 106.9690012  51.9454997  49.0349988 107.1073808  52.7573134  48.7561524
 101.7380012  51.6754997  52.5929988 101.4270012  52.4574997  53.0479988
 101.0880012  51.5224997  51.9069988 101.6075558  51.7619105  52.5625871
 107.7170012  47.0394997  40.0449988 108.2970012  47.1894997  40.7919988
 108.1310012  47.5104997  39.3219988 107.8522831  47.1236841  40.0494134
  98.6580012  47.8734997  51.8219988  98.7290012  48.5244997  52.5199988
  97.7680012  47.9764997  51.4869988  98.5473117  47.9765936  51.8722700
 105.4440012  53.7764997  43.4799988 105.9180012  54.0714997  44.2579988
 104.8810012  54.5144997  43.2469988 105.4327653  53.9166932  43.5550136
  99.9780012  53.7474997  53.3559988  99.9850012  53.6114997  52.4089988
  99.0620012  53.6294997  53.6079988  99.8551714  53.7129430  53.2604666
 111.4160012  38.7894997  39.8579988 110.5160012  38.9284997  40.1529988
 111.6680012  39.6204997  39.4559988 111.3268702  38.9209074  39.8440205
  99.4820012  47.5774997  41.8319988  99.1900012  48.3454997  41.3409988
  98.8080012  46.9174997  41.6689988  99.3509081  47.5934406  41.7427340
 112.6050012  53.1554997  38.2339988 112.6790012  54.0944997  38.4049988
 113.5110012  52.8504997  38.1779988 112.7375100  53.2426722  38.2498119
  95.5750012  49.9404997  50.6469988  95.0740012  49.9124997  49.8319988
  95.5800012  49.0344997  50.9559988  95.5071526  49.8142278  50.5772872
  95.3250012  52.7204997  47.5309988  96.2710012  52.5764997  47.5119988
  95.2130012  53.5044997  48.0679988  95.4392727  52.8068046  47.6010072
 113.5230012  53.3864997  53.2129988 113.4740012  52.4314997  53.1759988
 112.6960012  53.6544997  53.6139988 113.4044940  53.2918998  53.2621375
 104.5020012  52.9604997  52.0889988 104.5890012  53.7864997  52.5639988
 103.6380012  52.6304997  52.3379988 104.3971964  53.0289878  52.1876549
 104.9160012  56.7324997  41.8949988 104.8410012  56.6114997  40.9489988
 104.9490012  57.6824997  42.0139988 104.9101848  56.8442500  41.7814834
  98.5690012  55.5214997  43.6759988  98.7220012  55.1734997  44.5549988
  97.7190012  55.1654997  43.4209988  98.4748962  55.4256650  43.7618340
 108.0180012  55.8864997  38.8969988 108.3930012  55.1424997  38.4269988
 108.0220012  55.6164997  39.8159988 108.0698915  55.7481486  38.9567824
 107.6870012  55.8124997  41.6469988 106.7510012  55.9124997  41.8249988
 107.9670012  55.1034997  42.2249988 107.5968255  55.7302711  41.7495391
 110.6750012  44.8794997  53.6929988 110.2680012  45.3604997  52.9719988
 110.7160012  43.9744997  53.3849988 110.6248437  44.8229374  53.5526683
  97.8240012  51.2634997  51.6899988  98.0400012  50.9024997  52.5489988
  96.9690012  50.8894997  51.4799988  97.7379292  51.1634111  51.7793386
 100.4430012  39.7334997  47.6849988  99.5810012  39.6464997  47.2779988
 100.4200012  40.5894997  48.1129988 100.3220330  39.8372765  47.6871863
 105.1060012  39.4554997  51.0599988 105.5260012  39.0404997  51.8129988
 104.1730012  39.2774997  51.1769988 105.0373644  39.3745900  51.1789539
 108.4320012  43.2114997  51.9129988 107.9180012  43.0854997  52.7109988
 108.2770012  44.1234997  51.6689988 108.3406852  43.3176132  51.9892158
 109.1950012  48.0724997  37.6749988 109.2370012  47.8494997  36.7449988
 110.0440012  48.4714997  37.8649988 109.3155396  48.0959155  37.5733627
 104.7670012  41.9484997  38.3449988 104.5140012  41.9674997  39.2679988
 104.5110012  41.0764997  38.0439988 104.6977790  41.8332437  38.4306263
 100.5340012  44.6994997  48.7799988  99.8920012  44.6584997  49.4889988
 100.5710012  45.6254997  48.5429988 100.4511324  44.8191559  48.8449824
 100.5310012  44.9204997  43.6919988  99.6380012  44.5794997  43.6339988
 100.9810012  44.5434997  42.9369988 100.4697305  44.8228484  43.5819177
 106.0660012  45.3364997  42.5089988 105.6570012  46.1514997  42.2179988
 106.7870012  45.1964997  41.8949988 106.1074537  45.4292018  42.3861342
 105.1680012  45.5114997  53.9969988 104.6060012  44.8074997  54.3179988
 105.9950012  45.3914997  54.4649988 105.2027095  45.3987883  54.1042330
 107.0710012  44.7824997  45.3229988 106.8760012  45.3874997  44.6079988
 107.2520012  43.9484997  44.8889988 107.0687614  44.7526300  45.1664405
  98.2840012  45.0194997  50.6469988  98.2460012  45.4194997  51.5159988
  97.7930012  44.2024997  50.7379988  98.2124684  44.9638069  50.7781059
 101.6500012  42.3934997  37.4459988 101.2190012  41.9484997  38.1759988
 100.9320012  42.7654997  36.9339988 101.4939438  42.3828940  37.4766799
  94.8920012  42.1354997  44.4979988  95.5230012  42.1064997  45.2169988
  95.3410012  41.7104997  43.7679988  95.0390774  42.0740492  44.4976553
  96.1660012  42.8814997  39.9219988  96.6400012  43.4724997  39.3369988
  95.4490012  43.4124997  40.2689988  96.1339341  43.0340867  39.8888836
 106.3350012  46.4204997  49.9949988 106.6580012  45.7894997  49.3519988
 105.8950012  45.8854997  50.6549988 106.3196895  46.2618441  49.9962850
 103.1120012  42.3474997  44.7789988 102.2010012  42.4044997  45.0669988
 103.6180012  42.2874997  45.5889988 103.0555413  42.3471985  44.9280622
  97.9410012  43.9764997  43.6049988  97.0510012  44.0764997  43.2649988
  98.2370012  43.1344997  43.2589988  97.8592823  43.8763545  43.5117213
 101.5940012  43.9764997  41.2619988 102.5250012  44.1054997  41.4399988
 101.3790012  44.6464997  40.6119988 101.6924247  44.0846565  41.1985747
 107.5170012  41.5824997  48.0429988 106.8410012  41.7134997  48.7069988
 107.0320012  41.4274997  47.2329988 107.3587145  41.5794905  48.0244517
 100.2680012  45.1714997  38.8289988  99.7250012  44.7914997  38.1369988
 101.1010012  45.3654997  38.3999988 100.3064399  45.1458124  38.6764526
 110.8050012  57.2544997  54.3199988 111.0050012  57.6784997  53.4849988
 111.4600012  57.5974997  54.9269988 110.9210051  57.3589648  54.2877836
  98.4030012  49.7284997  53.9279988  99.1350012  49.9824997  54.4889988
  97.6230012  49.9324997  54.4429988  98.3978232  49.7909177  54.0745760
 104.4320012  45.1354997  46.6659988 104.9970012  44.5884997  46.1189988
 104.2850012  44.6134997  47.4539988 104.4892918  44.9902024  46.6978454
  99.4340012  41.2714997  43.0839988  99.1170012  40.3694997  43.0489988
 100.2160012  41.2734997  42.5309988  99.4962284  41.1481628  43.0044783
 103.0590012  43.5234997  49.0799988 102.2230012  43.9774997  49.1899988
 103.5830012  43.7994997  49.8319988 103.0154414  43.6229376  49.1967136
 103.6030012  49.7364997  40.7639988 102.8580012  49.2294997  40.4419988
 103.4690012  49.7854997  41.7109988 103.4828776  49.6736940  40.8478647
 110.7530012  48.8694997  49.5509988 111.3950012  49.3264997  49.0069988
 109.9230012  48.9824997  49.0879988 110.7285963  48.9472704  49.4140177
 107.5010012  42.5504997  38.9639988 106.5620012  42.6624997  38.8119988
 107.7980012  43.4074997  39.2699988 107.4127666  42.6816443  38.9845768
 105.1220012  49.9204997  52.0009988 104.7770012  49.5394997  52.8079988
 104.9220012  50.8544997  52.0729988 105.0478061  49.9945228  52.1210961
 108.2190012  44.4174997  40.6239988 109.1110012  44.2804997  40.9429988
 108.2760012  45.2084997  40.0879988 108.3486285  44.5056660  40.5951690
  98.7280012  49.0314997  46.5339988  99.4730012  49.0294997  45.9329988
  98.8060012  48.2084997  47.0159988  98.8405518  48.9199315  46.5168929
 105.7290012  51.1954997  39.7899988 105.4330012  52.0214997  40.1709988
 105.0260012  50.5754997  39.9859988 105.5934914  51.2248199  39.8686443
  95.7360012  47.4924997  51.8489988  95.9590012  47.0744997  52.6809988
  95.1340012  46.8794997  51.4259988  95.6851759  47.3524668  51.9057022
 102.7520012  47.0094997  54.0619988 102.4560012  46.8434997  53.1669988
 103.6840012  46.7894997  54.0509988 102.8374166  46.9570640  53.9380536
 107.3730012  52.3824997  51.9519988 106.4720012  52.5654997  51.6839988
 107.4070012  52.6414997  52.8729988 107.2543041  52.4425512  52.0398197
 113.1040012  44.6274997  40.3189988 112.5500012  44.2314997  39.6469988
 113.2040012  45.5374997  40.0409988 113.0417059  44.6963586  40.1894401
 113.0670012  50.4274997  53.1559988 112.2160012  50.6654997  52.7889988
 113.6580012  50.4104997  52.4029988 113.0302487  50.4578258  53.0038893
 111.3990012  53.4134997  40.7839988 111.0260012  52.5874997  41.0929988
 111.6770012  53.2304997  39.8869988 111.3855630  53.2757303  40.7049626
 108.5600012  48.2214997  47.8049988 107.6310012  47.9894997  47.7779988
 109.0110012  47.4444997  47.4749988 108.4939216  48.0847238  47.7566917
 101.1030012  52.5494997  43.9379988 101.6300012  53.3224997  43.7379988
 100.2230012  52.7744997  43.6369988 101.0561773  52.6858005  43.8699010
  96.8580012  47.4114997  38.5249988  97.4740012  48.0384997  38.9049988
  95.9960012  47.7274997  38.7969988  96.8257698  47.5399430  38.6137183
 102.5300012  50.2124997  43.5149988 102.2890012  51.1374997  43.5559988
 101.7890012  49.7534997  43.9109988 102.3968409  50.2771421  43.5741377
 103.0450012  54.3614997  49.8299988 103.4070012  55.2164997  49.5959988
 103.5760012  54.0694997  50.5699988 103.1664473  54.4391060  49.8980855
 101.2130012  55.2344997  43.0599988 100.2630012  55.3394997  43.1109988
 101.5650012  56.0544997  43.4049988 101.1304203  55.3598314  43.1136650
 106.5890012  50.4604997  49.5299988 106.1630012  50.2334997  50.3569988
 107.1690012  49.7224997  49.3479988 106.6091868  50.3295299  49.6185830
 108.7920012  51.3894997  38.6039988 109.1450012  51.0094997  39.4089988
 107.8430012  51.2964997  38.6909988 108.7120441  51.3249596  38.7258559
 109.2470012  55.0124997  51.9999988 108.6460012  54.4574997  51.5039988
 109.5290012  55.6794997  51.3739988 109.2028519  55.0266841  51.8474952
 113.2950012  55.8694997  38.8049988 114.0390012  56.4554997  38.6649988
 112.6010012  56.4374997  39.1389988 113.3030292  56.0265582  38.8309961
  97.3700012  42.2454997  51.4069988  96.4770012  42.5844997  51.3389988
  97.2710012  41.3904997  51.8249988  97.2344164  42.1762588  51.4542235
 109.6580012  50.0624997  40.8309988 109.3800012  49.3344997  41.3869988
 110.5850012  50.1814997  41.0359988 109.7453124  49.9788802  40.9348845
  97.0210012  54.0504997  49.8419988  97.2380012  53.1184997  49.8109988
  97.2670012  54.3244997  50.7249988  97.0839549  53.9600636  49.9571763
 102.8830012  52.5014997  37.0509988 103.1220012  51.7534997  36.5039988
 102.6140012  52.1134997  37.8839988 102.8793675  52.3466638  37.0886865
 101.8200012  52.0714997  39.5079988 101.9660012  51.5514997  40.2979988
 101.8170012  52.9784997  39.8139988 101.8395989  52.1228853  39.6576088
  98.2730012  49.3244997  40.0179988  97.5870012  49.6764997  40.5849988
  98.7950012  50.0874997  39.7709988  98.2496852  49.4758578  40.0622118
 106.1040012  41.9864997  50.2969988 106.8030012  42.0604997  50.9469988
 105.7230012  41.1224997  50.4509988 106.1481767  41.8797624  50.4068322
 106.8890012  41.6384997  41.3939988 107.1090012  42.1104997  40.5909988
 107.4470012  42.0334997  42.0639988 106.9944968  41.7564285  41.3747331
 104.5570012  53.7694997  40.2569988 103.7410012  54.2664997  40.3089988
 105.0870012  54.2444997  39.6169988 104.5169161  53.9017722  40.1775956
 104.0890012  43.3664997  42.2289988 104.9010012  43.8714997  42.2749988
 103.8440012  43.2214997  43.1429988 104.1670520  43.4160375  42.3588517
 104.6240012  44.3524997  51.4139988 104.7430012  44.9264997  52.1709988
 105.2800012  43.6644997  51.5279988 104.7289757  44.3381079  51.5330825
 104.9720012  40.4474997  43.1669988 104.6260012  41.0654997  43.8119988
 105.6310012  40.9484997  42.6859988 105.0137826  40.5995802  43.1900971
 101.8960012  54.8134997  40.2389988 102.0560012  55.6124997  39.7379988
 101.6980012  55.1194997  41.1239988 101.8911649  54.9644469  40.2899815
 100.6300012  41.5104997  39.8539988 100.5470012  42.3994997  40.2009988
 101.5200012  41.2454997  40.0859988 100.7389469  41.5961430  39.9327626
 110.8290012  42.2594997  52.2489988 109.9120012  42.5224997  52.1609988
 111.1640012  42.2564997  51.3519988 110.7489900  42.2950224  52.1157919
 109.4310012  46.0104997  46.3439988 108.6330012  45.5954997  46.0159988
 109.8760012  45.3194997  46.8349988 109.3819885  45.8603543  46.3654889
  98.8890012  51.9384997  38.9149988  99.4810012  52.6374997  39.1909988
  99.3480012  51.5054997  38.1949988  99.0321142  51.9757049  38.8554830
  97.2050012  44.6024997  38.0309988  97.1600012  45.5414997  38.2089988
  96.3170012  44.3664997  37.7609988  97.0788574  44.6991892  38.0188912
 110.5170012  55.2664997  47.9669988 110.3620012  55.9444997  47.3099988
 111.4500012  55.3384997  48.1699988 110.6218500  55.3690170  47.9045119
  98.0130012  39.3844997  46.7039988  97.7840012  39.4434997  45.7759988
  97.5700012  38.5924997  47.0099988  97.9218530  39.2855753  46.6184786
  96.9430012  53.3244997  42.8639988  96.1110012  53.7974997  42.8919988
  97.4890012  53.8344997  42.2659988  96.9029739  53.4581871  42.7869716
  96.2310012  55.9374997  54.1939988  96.7720012  55.7204997  54.9539988
  95.7500012  55.1314997  54.0049988  96.2399345  55.7989514  54.2723076
 100.8290012  54.8564997  55.8149988 101.5960012  54.3974997  56.1559988
 100.8070012  54.6304997  54.8849988 100.9311434  54.7630409  55.7360043
 104.9210012  54.3644997  37.1899988 104.2770012  53.7334997  37.5109988
 105.6830012  53.8334997  36.9579988 104.9358077  54.2062920  37.2026011
 107.4060012  53.2364997  54.5439988 107.0550012  52.3804997  54.7869988
 108.1320012  53.3794997  55.1509988 107.4560769  53.1385636  54.6593619
 109.5250012  54.1814997  37.4239988 109.8080012  53.3874997  37.8759988
 110.2650012  54.4144997  36.8629988 109.6637486  54.1042803  37.4100698
  96.1380012  49.7474997  55.1489988  96.2820012  48.8454997  54.8619988
  95.3660012  50.0334997  54.6609988  96.0533322  49.6628261  55.0437881
 100.4800012  50.0914997  37.2809988 100.5440012  49.2974997  37.8119988
 101.1330012  49.9724997  36.5909988 100.5770241  49.9667148  37.2604317
 102.7940012  49.7174997  54.5809988 102.4650012  49.9884997  53.7239988
 102.9460012  48.7764997  54.4939988 102.7694809  49.6273862  54.4518244
 105.8320012  51.1384997  37.0169988 105.5630012  51.3184997  37.9179988
 105.6260012  50.2124997  36.8859988 105.7673825  51.0380152  37.1225214
 108.5280012  49.6334997  51.9649988 109.2740012  50.2214997  51.8449988
 107.7710012  50.2154997  52.0279988 108.5277554  49.7927011  51.9570907
  96.9710012  46.9474997  54.5689988  97.3790012  46.0904997  54.4479988
  96.7110012  46.9624997  55.4899988  96.9917568  46.8320807  54.6769588
 101.6290012  48.0634997  39.5869988 101.1690012  47.5794997  40.2729988
 101.8840012  47.3954997  38.9509988 101.6004902  47.9068731  39.5949334
 100.9180012  45.9564997  51.9429988 100.3000012  46.6314997  52.2229988
 101.2620012  46.2774997  51.1099988 100.8799615  46.0922721  51.8686581
 102.7000012  46.3064997  37.8489988 102.5200012  46.1524997  36.9219988
 103.6500012  46.4144997  37.8939988 102.8037776  46.3000175  37.7281843
 105.9380012  48.4284997  55.2199988 106.8910012  48.5114997  55.1929988
 105.7770012  47.7164997  55.8399988 106.0466426  48.3436746  55.3000579
 112.0900012  48.6614997  37.2949988 111.8160012  48.2364997  36.4819988
 112.1290012  49.5924997  37.0779988 112.0577699  48.7292484  37.1543610
 101.2570012  43.3114997  53.0249988 101.4070012  42.5824997  52.4229988
 101.2600012  44.0884997  52.4659988 101.2779302  43.3167851  52.8670692
 101.6700012  41.6814997  50.5179988 102.2060012  42.1324997  49.8659988
 100.8180012  41.5734997  50.0949988 101.6282178  41.7286390  50.3715756
 103.2520012  47.1204997  50.7569988 104.0020012  46.9644997  50.1839988
 102.9130012  47.9724997  50.4819988 103.3088921  47.2142968  50.6413561
 107.6670012  44.9354997  55.7859988 107.8600012  44.0044997  55.6739988
 108.5250012  45.3604997  55.7759988 107.8093020  44.8656389  55.7693361
 108.9840012  47.7244997  53.8629988 108.7030012  48.4334997  53.2859988
 109.9270012  47.6514997  53.7119988 109.0729027  47.8117646  53.7635551
  99.7360012  44.5094997  54.9369988  98.9690012  43.9774997  54.7269988
 100.4150012  44.1994997  54.3369988  99.7227022  44.3947506  54.8271648
 102.4760012  39.1374997  50.9489988 102.3770012  40.0844997  50.8439988
 101.7330012  38.7654997  50.4739988 102.3620563  39.2165902  50.8704560
 103.7400012  43.4594997  54.5129988 103.5040012  43.2394997  55.4149988
 102.9560012  43.2524997  54.0029988 103.6018628  43.4014760  54.5673932
 106.4550012  42.5864997  53.5889988 105.5080012  42.6184997  53.7209988
 106.7680012  41.9614997  54.2419988 106.3675475  42.5063207  53.6954455
 108.0890012  41.2204997  55.5939988 107.9930012  40.2684997  55.5879988
 107.7680012  41.4894997  56.4539988 108.0324070  41.1264035  55.7095441
  97.9160012  42.4304997  54.6409988  98.1280012  41.7234997  54.0309988
  97.8050012  41.9924997  55.4849988  97.9299721  42.2747084  54.6716843
 102.6970012  38.4314997  53.6209988 103.4090012  37.7914997  53.6069988
 102.5960012  38.6984997  52.7069988 102.7807939  38.3799938  53.4955650
 103.0510012  40.1144997  55.6739988 102.9190012  39.6384997  54.8539988
 102.4520012  40.8584997  55.6189988 102.9519071  40.1499618  55.5542886
 102.5970012  56.9974997  38.8509988 103.5300012  57.1554997  38.9939988
 102.3330012  57.6724997  38.2259988 102.6889510  57.1103611  38.7860741
  96.1660012  51.6334997  38.3329988  97.0800012  51.7124997  38.6069988
  96.1730012  50.9464997  37.6669988  96.2921131  51.5513961  38.2804393
  94.8150012  57.0264997  43.4109988  94.1680012  56.5644997  42.8779988
  95.1690012  56.3544997  43.9929988  94.7743849  56.8724723  43.4167959
  95.6850012  55.1074997  45.2149988  95.3500012  54.2274997  45.3869988
  95.9070012  55.4524997  46.0799988  95.6691783  55.0337500  45.3554208
 113.2330012  55.9164997  48.1959988 113.2120012  56.1014997  49.1349988
 113.9240012  56.4854997  47.8549988 113.3234618  56.0186606  48.2783864
 112.7970012  55.4844997  51.1179988 112.3090012  54.7484997  50.7469988
 113.3460012  55.0904997  51.7959988 112.8044872  55.3306249  51.1589160
 111.2470012  51.2734997  55.7559988 110.3810012  51.1684997  56.1499988
 111.6240012  52.0324997  56.2019988 111.1793308  51.3616900  55.8702393
 112.5480012  49.5304997  41.2699988 113.3980012  49.9514997  41.3969988
 112.5540012  48.7904997  41.8769988 112.6651372  49.4880803  41.3694344
 112.9430012  47.5834997  43.0939988 112.2160012  47.1044997  43.4909988
 113.5240012  47.7894997  43.8259988 112.9219375  47.5457090  43.2474129
 112.7020012  50.3684997  48.0409988 113.5350012  49.9904997  47.7609988
 112.8140012  51.3114997  47.9219988 112.8312647  50.4442218  47.9865487
 111.1880012  53.2464997  50.3479988 110.5410012  53.5714997  50.9739988
 110.6710012  52.8064997  49.6739988 111.0294029  53.2315004  50.3425827
 113.2110012  47.4844997  39.4849988 112.6890012  47.8414997  38.7659988
 113.1780012  48.1594997  40.1629988 113.1351634  47.6245413  39.4783145
 111.5600012  44.7244997  38.0359988 111.6560012  45.3914997  37.3549988
 111.4200012  43.9084997  37.5539988 111.5542135  44.7054500  37.8778491
 110.7290012  46.1044997  43.6569988 110.5790012  45.1594997  43.6359988
 110.3760012  46.3854997  44.4999988 110.6606625  46.0130441  43.7682346
  95.7650012  48.1824997  47.6669988  95.9490012  48.1004997  46.7309988
  96.6140012  48.0584997  48.0909988  95.9050139  48.1545003  47.5961455
 111.5860012  48.0744997  53.2949988 112.1690012  47.3404997  53.4869988
 112.1500012  48.8464997  53.3419988 111.7419769  48.0784227  53.3276159
 113.0820012  45.9774997  53.9799988 112.2190012  45.5984997  53.8139988
 113.6870012  45.2384997  53.9059988 113.0455979  45.8258023  53.9472817
 110.8070012  42.1324997  37.1529988 111.4180012  41.7614997  37.7899988
 109.9710012  41.7114997  37.3489988 110.7775032  42.0247554  37.2667035
 110.4400012  43.6874997  42.1189988 110.7200012  42.7804997  42.2429988
 111.1990012  44.1214997  41.7299988 110.5809277  43.6220942  42.0833682
 111.0520012  44.2684997  47.5549988 111.9850012  44.4804997  47.5209988
 110.8170012  44.3704997  48.4769988 111.1478036  44.3112769  47.6749976
 111.0810012  45.0054997  50.3309988 110.2380012  45.2734997  50.6969988
 111.5230012  45.8274997  50.1199988 111.0254158  45.1533291  50.3525491
  95.3620012  43.4534997  53.8079988  96.2820012  43.3314997  54.0439988
  94.9130012  42.7034997  54.1969988  95.4271580  43.3353727  53.8929006
 113.3640012  38.9854997  55.6839988 113.7140012  38.3314997  55.0789988
 113.5110012  39.8224997  55.2449988 113.4318419  39.0091591  55.5417118
 111.0530012  40.9504997  42.1669988 111.2360012  40.5014997  42.9929988
 110.4540012  40.3654997  41.7039988 110.9970202  40.8099975  42.2173275
  96.5830012  41.7654997  46.6989988  97.0290012  40.9734997  47.0009988
  97.0500012  42.4814997  47.1299988  96.7070172  41.7540624  46.7984820
  94.8870012  44.7644997  47.7679988  95.3790012  44.5434997  46.9769988
  95.2500012  45.6054997  48.0489988  95.0033126  44.8478357  47.6977531
 112.8840012  41.0944997  54.0339988 111.9660012  41.3654997  53.9979988
 113.0070012  40.5594997  53.2489988 112.7751066  41.0592892  53.9230487
 112.9200012  41.0174997  38.6949988 113.3320012  40.2964997  38.2199988
 113.6020012  41.6874997  38.7539988 113.0685885  41.0092368  38.6378915
  95.2010012  41.0224997  41.8219988  94.2760012  41.2314997  41.6929988
  95.6550012  41.5064997  41.1329988  95.1357368  41.1165993  41.7111226
 109.9720012  56.0064997  43.7679988 110.6240012  55.6594997  43.1599988
 110.4820012  56.4954997  44.4139988 110.1302637  56.0250597  43.7720236
  95.1650012  39.7604997  50.1669988  94.5000012  39.5144997  50.8099988
  94.7220012  40.3824997  49.5889988  95.0140956  39.8108632  50.1769352
  97.3570012  52.9354997  54.3109988  96.5360012  53.1104997  53.8509988
  97.1040012  52.8624997  55.2319988  97.2106164  52.9495622  54.3724923
 100.3110012  53.9104997  50.5699988  99.8860012  54.7194997  50.2869988
 101.2150012  53.9954997  50.2679988 100.3750271  54.0328469  50.4903776
 104.6220012  55.3094997  53.5289988 104.8070012  54.9754997  54.4069988
 105.4680012  55.6184997  53.2069988 104.7617539  55.3056047  53.6055605
 106.9670012  56.5954997  52.7729988 107.6440012  55.9624997  52.5329988
 107.2890012  56.9964997  53.5799988 107.1031637  56.5631154  52.8492793
 111.8840012  39.1844997  51.8529988 111.0720012  39.5094997  51.4649988
 112.1170012  38.4244997  51.3199988 111.8043423  39.1262436  51.7278253
  97.7130012  57.1664997  50.6169988  96.9920012  57.6064997  50.1659988
  97.3470012  56.9154997  51.4659988  97.5649804  57.1927698  50.6699840
 100.1800012  56.7664997  49.6469988  99.3150012  56.8384997  50.0509988
 100.1250012  57.3134997  48.8629988 100.0542085  56.8502685  49.5963362
 104.8900012  56.6544997  48.8219988 104.4340012  57.1834997  48.1679988
 105.0530012  57.2574997  49.5479988 104.8495585  56.8084468  48.8305062
 107.2180012  55.5324997  49.7669988 106.3130012  55.6974997  49.5019988
 107.6470012  56.3854997  49.7019988 107.1520799  55.6704483  49.7219182
 109.8220012  57.1024997  50.0619988 109.6400012  58.0184997  49.8519988
 109.9990012  56.6924997  49.2159988 109.8210210  57.1724822  49.9187885
  97.1270012  55.7894997  47.5269988  97.1090012  55.3644997  48.3849988
  97.9320012  55.4714997  47.1189988  97.2333875  55.6883812  47.5891655
  99.2690012  54.4994997  46.1819988  99.0500012  53.5834997  46.3519988
 100.0930012  54.6394997  46.6479988  99.3504420  54.3930520  46.2682774
 101.8060012  54.9694997  47.0309988 102.0190012  54.0814997  46.7439988
 101.8700012  54.9354997  47.9849988 101.8438232  54.8433102  47.1207397
 105.3140012  40.6334997  46.1749988 104.6400012  40.0044997  46.4309988
 105.8780012  40.1494997  45.5719988 105.2979230  40.4818744  46.1285340
 110.4570012  38.7414997  46.2879988 111.0610012  39.2884997  45.7859988
 109.5870012  39.0604997  46.0479988 110.4221241  38.8595806  46.1867654
 112.1840012  39.8794997  44.6209988 112.7960012  39.3654997  44.0949988
 112.5660012  40.7574997  44.6449988 112.3194540  39.9277140  44.5521830
  97.6410012  39.2674997  43.9969988  96.8640012  39.0334997  43.4899988
  98.1710012  38.4704997  44.0059988  97.6062330  39.1276988  43.9287742
  96.4770012  39.0654997  39.8009988  96.9160012  39.6764997  39.2089988
  95.8440012  39.6034997  40.2749988  96.4514514  39.2219257  39.7840930
 102.2200012  39.1944997  43.8109988 103.0950012  39.5824997  43.7809988
 102.0840012  38.9794997  44.7329988 102.3213695  39.2185184  43.9316440
 107.7770012  39.2244997  45.4599988 107.8530012  39.3194997  44.5099988
 107.5020012  38.3164997  45.5889988 107.7502321  39.1147867  45.3475079
 109.1300012  39.2504997  41.1519988 108.4280012  39.8654997  40.9429988
 108.6860012  38.4124997  41.2829988 108.9736330  39.2215783  41.1410328
  96.3780012  55.0134997  40.6989988  95.6930012  54.9754997  40.0309988
  96.3820012  55.9264997  40.9869988  96.2848193  55.1317016  40.6465284
  98.3380012  40.9814997  38.2429988  98.8300012  40.3514997  37.7159988
  98.9620012  41.2774997  38.9069988  98.4895446  40.9353199  38.2605980
 103.3640012  41.2744997  40.6999988 103.5420012  40.6284997  41.3829988
 103.3110012  42.1084997  41.1679988 103.3811829  41.2987985  40.8565940
 105.2430012  56.2234997  39.0959988 106.1090012  56.5894997  38.9179988
 104.9960012  55.7834997  38.2819988 105.3282392  56.2141756  38.9616289
 111.9520012  55.7864997  41.7749988 111.7570012  55.0384997  41.2099988
 111.9130012  56.5444997  41.1919988 111.9200380  55.7866099  41.6188384
  97.5990012  39.7814997  53.5149988  97.2330012  39.0164997  53.9579988
  98.5120012  39.8104997  53.8019988  97.6722790  39.6807224  53.6144070
  99.5720012  39.1324997  55.0509988 100.4700012  38.8584997  54.8659988
  99.1850012  38.3894997  55.5149988  99.6426612  38.9945914  55.0883643
  98.1960012  55.9334997  37.7239988  97.9290012  56.2204997  38.5969988
  98.9680012  55.3874997  37.8759988  98.2637488  55.8990294  37.8641050
 107.9930012  38.4644997  55.2329988 108.0700012  38.0384997  56.0869988
 108.8870012  38.4784997  54.8899988 108.1243428  38.4080880  55.3035310
 111.1690012  54.5374997  53.9249988 110.3870012  54.3514997  53.4059988
 111.0970012  55.4664997  54.1429988 111.0521777  54.6376492  53.8834048
 125.5750012  48.4234997  43.9559988 125.6640012  49.3674997  43.8239988
 124.9370012  48.1484997  43.2979988 125.5009081  48.5154830  43.8489614
 124.5080012  47.6784997  47.3749988 124.4700012  47.0324997  48.0799988
 124.1860012  47.2124997  46.6039988 124.4592333  47.5269408  47.3672978
 116.8770012  47.2934997  48.9679988 116.9180012  46.6674997  49.6909988
 117.5800012  47.9174997  49.1499988 116.9776363  47.2921196  49.0916044
 128.2140012  50.6174997  45.6759988 127.7740012  49.8974997  46.1269988
 128.2010012  51.3384997  46.3059988 128.1520226  50.6163731  45.8228494
 117.8000012  51.7434997  47.5029988 117.4310012  50.9414997  47.1329988
 118.7410012  51.5744997  47.5489988 117.8767289  51.6110153  47.4586316
 114.4100012  45.4034997  42.8959988 113.9630012  46.2494997  42.8769988
 113.8490012  44.8234997  42.3799988 114.2729900  45.4409916  42.8236801
 115.1210012  47.5654997  45.0219988 115.3340012  46.7954997  45.5489988
 115.8590012  47.6544997  44.4179988 115.2498496  47.4721394  45.0125300
 125.3260012  55.7224997  45.8889988 125.9460012  55.0454997  45.6149988
 125.1180012  55.5044997  46.7969988 125.3826904  55.6003870  45.9743365
 122.8980012  50.1114997  47.7809988 123.2020012  49.4254997  47.1859988
 123.6190012  50.2294997  48.3989988 123.0370671  50.0336305  47.7831816
 131.5610012  41.7124997  48.6419988 131.6100012  42.3224997  49.3779988
 131.9860012  42.1734997  47.9189988 131.6251824  41.8583741  48.6450205
 126.0390012  44.5054997  48.1089988 126.1810012  43.5594997  48.1289988
 125.9320012  44.7124997  47.1799988 126.0439864  44.4039534  47.9862339
 119.1930012  42.6064997  45.3809988 119.2370012  43.4664997  44.9629988
 118.7360012  42.0544997  44.7469988 119.1372185  42.6495799  45.2380299
 126.9160012  42.7374997  43.7819988 127.5620012  42.4084997  44.4069988
 127.4260012  43.2554997  43.1589988 127.0734264  42.7624611  43.7833862
 115.8140012  45.0034997  46.1429988 116.4670012  44.4534997  46.5749988
 115.8380012  44.7294997  45.2259988 115.9066683  44.8911466  46.0782123
 120.9700012  46.5534997  45.3579988 121.5860012  46.0274997  45.8679988
 120.3840012  45.9134997  44.9549988 120.9750810  46.3949208  45.3733173
 131.9520012  43.1904997  50.8779988 131.2640012  43.8484997  50.7819988
 131.9680012  42.9934997  51.8139988 131.8598525  43.2540462  50.9914808
 118.0040012  41.5244997  49.4549988 117.7850012  42.0544997  48.6889988
 117.3360012  41.7514997  50.1019988 117.8837600  41.6276906  49.4376379
 125.3730012  51.0244997  42.9989988 125.0770012  50.7024997  42.1479988
 125.0480012  51.9244997  43.0399988 125.2886371  51.1020215  42.8881801
 120.5730012  49.2004997  49.7419988 119.8330012  49.7984997  49.8459988
 121.2870012  49.7544997  49.4269988 120.5682237  49.3572831  49.7136465
 128.6800012  42.0284997  45.7619988 128.4640012  41.2624997  46.2949988
 129.3350012  42.5004997  46.2749988 128.7390632  41.9875889  45.9042861
 117.5970012  43.4164997  47.4069988 118.2110012  44.0494997  47.7809988
 118.1090012  42.9444997  46.7509988 117.7502296  43.4392370  47.3694252
 118.9800012  51.1644997  50.5299988 118.9750012  52.0444997  50.1519988
 118.1270012  51.0814997  50.9549988 118.8639464  51.2736117  50.5357907
 115.1010012  50.8354997  41.3119988 114.8290012  51.0644997  40.4229988
 115.1470012  51.6734997  41.7719988 115.0700094  50.9801213  41.2525697
 128.7260012  52.4574997  48.0239988 127.7850012  52.5154997  48.1859988
 129.0030012  53.3634997  47.8869988 128.6344679  52.5879443  48.0276815
 129.0270012  40.7434997  49.4419988 128.2910012  41.3544997  49.4039988
 129.7100012  41.1584997  48.9149988 129.0186541  40.8831374  49.3655832
 122.0300012  38.8304997  46.9079988 121.9130012  37.8814997  46.8529988
 121.1750012  39.1624997  47.1809988 121.8983733  38.7455409  46.9373897
 126.9780012  54.2384997  44.6499988 127.4040012  53.5314997  44.1649988
 127.2950012  55.0394997  44.2329988 127.0791019  54.2500994  44.5273130
 128.1380012  52.1394997  43.1579988 127.8800012  51.4494997  42.5469988
 128.2090012  51.6964997  44.0039988 128.1122856  51.9852124  43.1886885
 129.8240012  50.7054997  51.6359988 129.9640012  50.1144997  50.8959988
 129.9910012  51.5784997  51.2789988 129.8656778  50.7426426  51.4866965
 124.2970012  47.6674997  41.4079988 123.5850012  48.2024997  41.0559988
 124.9880012  47.7234997  40.7479988 124.2930132  47.7482543  41.2706289
 124.3500012  46.1254997  38.4469988 125.0510012  46.1474997  39.0979988
 124.6530012  45.4974997  37.7909988 124.4867830  46.0436566  38.4473711
 131.6660012  47.0454997  49.7019988 131.0130012  47.7404997  49.7909988
 132.1310012  47.2554997  48.8919988 131.6395390  47.1689425  49.6046883
 127.7020012  47.8774997  42.3599988 126.9700012  48.1054997  42.9329988
 128.1500012  47.1634997  42.8149988 127.6623095  47.8122571  42.4999119
 127.6000012  46.0514997  51.4269988 127.6800012  46.8144997  51.9989988
 126.9980012  46.3304997  50.7369988 127.5295756  46.1937134  51.4120589
 119.3480012  48.5074997  44.2419988 119.0170012  48.1374997  43.4239988
 119.9360012  47.8374997  44.5889988 119.3821873  48.3661156  44.1768102
 120.7140012  51.9354997  46.9239988 120.6200012  51.3574997  46.1669988
 121.4440012  51.5644997  47.4199988 120.7997981  51.8062390  46.8874165
 119.7140012  47.2764997  47.8759988 120.2800012  47.3974997  47.1129988
 120.0330012  47.9134997  48.5149988 119.8345786  47.3791884  47.8580040
 126.0230012  52.7794997  48.6099988 125.7830012  53.4414997  49.2579988
 125.8250012  51.9454997  49.0349988 125.9633808  52.7573134  48.7561524
 120.5940012  51.6754997  52.5929988 120.2830012  52.4574997  53.0479988
 119.9440012  51.5224997  51.9069988 120.4635558  51.7619105  52.5625871
 126.5730012  47.0394997  40.0449988 127.1530012  47.1894997  40.7919988
 126.9870012  47.5104997  39.3219988 126.7082830  47.1236841  40.0494134
 117.5140012  47.8734997  51.8219988 117.5850012  48.5244997  52.5199988
 116.6240012  47.9764997  51.4869988 117.4033117  47.9765936  51.8722700
 124.3000012  53.7764997  43.4799988 124.7740012  54.0714997  44.2579988
 123.7370012  54.5144997  43.2469988 124.2887653  53.9166932  43.5550136
 118.8340012  53.7474997  53.3559988 118.8410012  53.6114997  52.4089988
 117.9180012  53.6294997  53.6079988 118.7111714  53.7129430  53.2604666
 130.2720012  38.7894997  39.8579988 129.3720012  38.9284997  40.1529988
 130.5240012  39.6204997  39.4559988 130.1828702  38.9209074  39.8440205
 118.3380012  47.5774997  41.8319988 118.0460012  48.3454997  41.3409988
 117.6640012  46.9174997  41.6689988 118.2069081  47.5934406  41.7427340
 131.4610012  53.1554997  38.2339988 131.5350012  54.0944997  38.4049988
 132.3670012  52.8504997  38.1779988 131.5935100  53.2426722  38.2498119
 114.4310012  49.9404997  50.6469988 113.9300012  49.9124997  49.8319988
 114.4360012  49.0344997  50.9559988 114.3631526  49.8142278  50.5772872
 114.1810012  52.7204997  47.5309988 115.1270012  52.5764997  47.5119988
 114.0690012  53.5044997  48.0679988 114.2952727  52.8068046  47.6010072
 132.3790012  53.3864997  53.2129988 132.3300012  52.4314997  53.1759988
 131.5520012  53.6544997  53.6139988 132.2604940  53.2918998  53.2621375
 123.3580012  52.9604997  52.0889988 123.4450012  53.7864997  52.5639988
 122.4940012  52.6304997  52.3379988 123.2531964  53.0289878  52.1876549
 123.7720012  56.7324997  41.8949988 123.6970012  56.6114997  40.9489988
 123.8050012  57.6824997  42.0139988 123.7661848  56.8442500  41.7814834
 117.4250012  55.5214997  43.6759988 117.5780012  55.1734997  44.5549988
 116.5750012  55.1654997  43.4209988 117.3308962  55.4256650  43.7618340
 126.8740012  55.8864997  38.8969988 127.2490012  55.1424997  38.4269988
 126.8780012  55.6164997  39.8159988 126.9258915  55.7481486  38.9567824
 126.5430012  55.8124997  41.6469988 125.6070012  55.9124997  41.8249988
 126.8230012  55.1034997  42.2249988 126.4528255  55.7302711  41.7495391
 129.5310012  44.8794997  53.6929988 129.1240012  45.3604997  52.9719988
 129.5720012  43.9744997  53.3849988 129.4808437  44.8229374  53.5526683
 116.6800012  51.2634997  51.6899988 116.8960012  50.9024997  52.5489988
 115.8250012  50.8894997  51.4799988 116.5939292  51.1634111  51.7793386
 119.2990012  39.7334997  47.6849988 118.4370012  39.6464997  47.2779988
 119.2760012  40.5894997  48.1129988 119.1780330  39.8372765  47.6871863
 123.9620012  39.4554997  51.0599988 124.3820012  39.0404997  51.8129988
 123.0290012  39.2774997  51.1769988 123.8933644  39.3745900  51.1789539
 127.2880012  43.2114997  51.9129988 126.7740012  43.0854997  52.7109988
 127.1330012  44.1234997  51.6689988 127.1966852  43.3176132  51.9892158
 128.0510012  48.0724997  37.6749988 128.0930012  47.8494997  36.7449988
 128.9000012  48.4714997  37.8649988 128.1715396  48.0959155  37.5733627
 123.6230012  41.9484997  38.3449988 123.3700012  41.9674997  39.2679988
 123.3670012  41.0764997  38.0439988 123.5537790  41.8332437  38.4306263
 119.3900012  44.6994997  48.7799988 118.7480012  44.6584997  49.4889988
 119.4270012  45.6254997  48.5429988 119.3071324  44.8191559  48.8449824
 119.3870012  44.9204997  43.6919988 118.4940012  44.5794997  43.6339988
 119.8370012  44.5434997  42.9369988 119.3257305  44.8228484  43.5819177
 124.9220012  45.3364997  42.5089988 124.5130012  46.1514997  42.2179988
 125.6430012  45.1964997  41.8949988 124.9634537  45.4292018  42.3861342
 124.0240012  45.5114997  53.9969988 123.4620012  44.8074997  54.3179988
 124.8510012  45.3914997  54.4649988 124.0587095  45.3987883  54.1042330
 125.9270012  44.7824997  45.3229988 125.7320012  45.3874997  44.6079988
 126.1080012  43.9484997  44.8889988 125.9247614  44.7526300  45.1664405
 117.1400012  45.0194997  50.6469988 117.1020012  45.4194997  51.5159988
 116.6490012  44.2024997  50.7379988 117.0684684  44.9638069  50.7781059
 120.5060012  42.3934997  37.4459988 120.0750012  41.9484997  38.1759988
 119.7880012  42.7654997  36.9339988 120.3499438  42.3828940  37.4766799
 113.7480012  42.1354997  44.4979988 114.3790012  42.1064997  45.2169988
 114.1970012  41.7104997  43.7679988 113.8950774  42.0740492  44.4976553
 115.0220012  42.8814997  39.9219988 115.4960012  43.4724997  39.3369988
 114.3050012  43.4124997  40.2689988 114.9899341  43.0340867  39.8888836
 125.1910012  46.4204997  49.9949988 125.5140012  45.7894997  49.3519988
 124.7510012  45.8854997  50.6549988 125.1756895  46.2618441  49.9962850
 121.9680012  42.3474997  44.7789988 121.0570012  42.4044997  45.0669988
 122.4740012  42.2874997  45.5889988 121.9115413  42.3471985  44.9280622
 116.7970012  43.9764997  43.6049988 115.9070012  44.0764997  43.2649988
 117.0930012  43.1344997  43.2589988 116.7152823  43.8763545  43.5117213
 120.4500012  43.9764997  41.2619988 121.3810012  44.1054997  41.4399988
 120.2350012  44.6464997  40.6119988 120.5484247  44.0846565  41.1985747
 126.3730012  41.5824997  48.0429988 125.6970012  41.7134997  48.7069988
 125.8880012  41.4274997  47.2329988 126.2147145  41.5794905  48.0244517
 119.1240012  45.1714997  38.8289988 118.5810012  44.7914997  38.1369988
 119.9570012  45.3654997  38.3999988 119.1624399  45.1458124  38.6764526
 129.6610012  57.2544997  54.3199988 129.8610012  57.6784997  53.4849988
 130.3160012  57.5974997  54.9269988 129.7770051  57.3589648  54.2877836
 117.2590012  49.7284997  53.9279988 117.9910012  49.9824997  54.4889988
 116.4790012  49.9324997  54.4429988 117.2538232  49.7909177  54.0745760
 123.2880012  45.1354997  46.6659988 123.8530012  44.5884997  46.1189988
 123.1410012  44.6134997  47.4539988 123.3452918  44.9902024  46.6978454
 118.2900012  41.2714997  43.0839988 117.9730012  40.3694997  43.0489988
 119.0720012  41.2734997  42.5309988 118.3522284  41.1481628  43.0044783
 121.9150012  43.5234997  49.0799988 121.0790012  43.9774997  49.1899988
 122.4390012  43.7994997  49.8319988 121.8714414  43.6229376  49.1967136
 122.4590012  49.7364997  40.7639988 121.7140012  49.2294997  40.4419988
 122.3250012  49.7854997  41.7109988 122.3388776  49.6736940  40.8478647
 129.6090012  48.8694997  49.5509988 130.2510012  49.3264997  49.0069988
 128.7790012  48.9824997  49.0879988 129.5845963  48.9472704  49.4140177
 126.3570012  42.5504997  38.9639988 125.4180012  42.6624997  38.8119988
 126.6540012  43.4074997  39.2699988 126.2687666  42.6816443  38.9845768
 123.9780012  49.9204997  52.0009988 123.6330012  49.5394997  52.8079988
 123.7780012  50.8544997  52.0729988 123.9038061  49.9945228  52.1210961
 127.0750012  44.4174997  40.6239988 127.9670012  44.2804997  40.9429988
 127.1320012  45.2084997  40.0879988 127.2046285  44.5056660  40.5951691
 117.5840012  49.0314997  46.5339988 118.3290012  49.0294997  45.9329988
 117.6620012  48.2084997  47.0159988 117.6965518  48.9199315  46.5168929
 124.5850012  51.1954997  39.7899988 124.2890012  52.0214997  40.1709988
 123.8820012  50.5754997  39.9859988 124.4494914  51.2248199  39.8686443
 114.5920012  47.4924997  51.8489988 114.8150012  47.0744997  52.6809988
 113.9900012  46.8794997  51.4259988 114.5411759  47.3524668  51.9057022
 121.6080012  47.0094997  54.0619988 121.3120012  46.8434997  53.1669988
 122.5400012  46.7894997  54.0509988 121.6934166  46.9570640  53.9380536
 126.2290012  52.3824997  51.9519988 125.3280012  52.5654997  51.6839988
 126.2630012  52.6414997  52.8729988 126.1103041  52.4425512  52.0398197
 131.9600012  44.6274997  40.3189988 131.4060012  44.2314997  39.6469988
 132.0600012  45.5374997  40.0409988 131.8977059  44.6963586  40.1894401
 131.9230012  50.4274997  53.1559988 131.0720012  50.6654997  52.7889988
 132.5140012  50.4104997  52.4029988 131.8862487  50.4578258  53.0038893
 130.2550012  53.4134997  40.7839988 129.8820012  52.5874997  41.0929988
 130.5330012  53.2304997  39.8869988 130.2415630  53.2757303  40.7049626
 127.4160012  48.2214997  47.8049988 126.4870012  47.9894997  47.7779988
 127.8670012  47.4444997  47.4749988 127.3499216  48.0847238  47.7566917
 119.9590012  52.5494997  43.9379988 120.4860012  53.3224997  43.7379988
 119.0790012  52.7744997  43.6369988 119.9121773  52.6858005  43.8699010
 115.7140012  47.4114997  38.5249988 116.3300012  48.0384997  38.9049988
 114.8520012  47.7274997  38.7969988 115.6817698  47.5399430  38.6137183
 121.3860012  50.2124997  43.5149988 121.1450012  51.1374997  43.5559988
 120.6450012  49.7534997  43.9109988 121.2528409  50.2771421  43.5741377
 121.9010012  54.3614997  49.8299988 122.2630012  55.2164997  49.5959988
 122.4320012  54.0694997  50.5699988 122.0224473  54.4391060  49.8980855
 120.0690012  55.2344997  43.0599988 119.1190012  55.3394997  43.1109988
 120.4210012  56.0544997  43.4049988 119.9864203  55.3598314  43.1136650
 125.4450012  50.4604997  49.5299988 125.0190012  50.2334997  50.3569988
 126.0250012  49.7224997  49.3479988 125.4651868  50.3295299  49.6185830
 127.6480012  51.3894997  38.6039988 128.0010012  51.0094997  39.4089988
 126.6990012  51.2964997  38.6909988 127.5680441  51.3249596  38.7258559
 128.1030012  55.0124997  51.9999988 127.5020012  54.4574997  51.5039988
 128.3850012  55.6794997  51.3739988 128.0588519  55.0266841  51.8474952
 132.1510012  55.8694997  38.8049988 132.8950012  56.4554997  38.6649988
 131.4570012  56.4374997  39.1389988 132.1590292  56.0265582  38.8309961
 116.2260012  42.2454997  51.4069988 115.3330012  42.5844997  51.3389988
 116.1270012  41.3904997  51.8249988 116.0904164  42.1762588  51.4542235
 128.5140012  50.0624997  40.8309988 128.2360012  49.3344997  41.3869988
 129.4410012  50.1814997  41.0359988 128.6013124  49.9788802  40.9348845
 115.8770012  54.0504997  49.8419988 116.0940012  53.1184997  49.8109988
 116.1230012  54.3244997  50.7249988 115.9399549  53.9600636  49.9571763
 121.7390012  52.5014997  37.0509988 121.9780012  51.7534997  36.5039988
 121.4700012  52.1134997  37.8839988 121.7353675  52.3466638  37.0886865
 120.6760012  52.0714997  39.5079988 120.8220012  51.5514997  40.2979988
 120.6730012  52.9784997  39.8139988 120.6955989  52.1228853  39.6576088
 117.1290012  49.3244997  40.0179988 116.4430012  49.6764997  40.5849988
 117.6510012  50.0874997  39.7709988 117.1056852  49.4758578  40.0622118
 124.9600012  41.9864997  50.2969988 125.6590012  42.0604997  50.9469988
 124.5790012  41.1224997  50.4509988 125.0041767  41.8797624  50.4068322
 125.7450012  41.6384997  41.3939988 125.9650012  42.1104997  40.5909988
 126.3030012  42.0334997  42.0639988 125.8504968  41.7564285  41.3747331
 123.4130012  53.7694997  40.2569988 122.5970012  54.2664997  40.3089988
 123.9430012  54.2444997  39.6169988 123.3729161  53.9017722  40.1775956
 122.9450012  43.3664997  42.2289988 123.7570012  43.8714997  42.2749988
 122.7000012  43.2214997  43.1429988 123.0230520  43.4160375  42.3588517
 123.4800012  44.3524997  51.4139988 123.5990012  44.9264997  52.1709988
 124.1360012  43.6644997  51.5279988 123.5849757  44.3381079  51.5330825
 123.8280012  40.4474997  43.1669988 123.4820012  41.0654997  43.8119988
 124.4870012  40.9484997  42.6859988 123.8697826  40.5995802  43.1900971
 120.7520012  54.8134997  40.2389988 120.9120012  55.6124997  39.7379988
 120.5540012  55.1194997  41.1239988 120.7471649  54.9644469  40.2899815
 119.4860012  41.5104997  39.8539988 119.4030012  42.3994997  40.2009988
 120.3760012  41.2454997  40.0859988 119.5949469  41.5961430  39.9327626
 129.6850012  42.2594997  52.2489988 128.7680012  42.5224997  52.1609988
 130.0200012  42.2564997  51.3519988 129.6049900  42.2950224  52.1157919
 128.2870012  46.0104997  46.3439988 127.4890012  45.5954997  46.0159988
 128.7320012  45.3194997  46.8349988 128.2379885  45.8603543  46.3654889
 117.7450012  51.9384997  38.9149988 118.3370012  52.6374997  39.1909988
 118.2040012  51.5054997  38.1949988 117.8881142  51.9757049  38.8554830
 116.0610012  44.6024997  38.0309988 116.0160012  45.5414997  38.2089988
 115.1730012  44.3664997  37.7609988 115.9348574  44.6991892  38.0188912
 129.3730012  55.2664997  47.9669988 129.2180012  55.9444997  47.3099988
 130.3060012  55.3384997  48.1699988 129.4778500  55.3690170  47.9045119
 116.8690012  39.3844997  46.7039988 116.6400012  39.4434997  45.7759988
 116.4260012  38.5924997  47.0099988 116.7778530  39.2855753  46.6184786
 115.7990012  53.3244997  42.8639988 114.9670012  53.7974997  42.8919988
 116.3450012  53.8344997  42.2659988 115.7589739  53.4581871  42.7869716
 115.0870012  55.9374997  54.1939988 115.6280012  55.7204997  54.9539988
 114.6060012  55.1314997  54.0049988 115.0959345  55.7989514  54.2723076
 119.6850012  54.8564997  55.8149988 120.4520012  54.3974997  56.1559988
 119.6630012  54.6304997  54.8849988 119.7871434  54.7630409  55.7360043
 123.7770012  54.3644997  37.1899988 123.1330012  53.7334997  37.5109988
 124.5390012  53.8334997  36.9579988 123.7918077  54.2062920  37.2026011
 126.2620012  53.2364997  54.5439988 125.9110012  52.3804997  54.7869988
 126.9880012  53.3794997  55.1509988 126.3120769  53.1385636  54.6593619
 128.3810012  54.1814997  37.4239988 128.6640012  53.3874997  37.8759988
 129.1210012  54.4144997  36.8629988 128.5197486  54.1042803  37.4100698
 114.9940012  49.7474997  55.1489988 115.1380012  48.8454997  54.8619988
 114.2220012  50.0334997  54.6609988 114.9093322  49.6628261  55.0437881
 119.3360012  50.0914997  37.2809988 119.4000012  49.2974997  37.8119988
 119.9890012  49.9724997  36.5909988 119.4330241  49.9667148  37.2604317
 121.6500012  49.7174997  54.5809988 121.3210012  49.9884997  53.7239988
 121.8020012  48.7764997  54.4939988 121.6254809  49.6273862  54.4518244
 124.6880012  51.1384997  37.0169988 124.4190012  51.3184997  37.9179988
 124.4820012  50.2124997  36.8859988 124.6233825  51.0380152  37.1225214
 127.3840012  49.6334997  51.9649988 128.1300012  50.2214997  51.8449988
 126.6270012  50.2154997  52.0279988 127.3837554  49.7927011  51.9570907
 115.8270012  46.9474997  54.5689988 116.2350012  46.0904997  54.4479988
 115.5670012  46.9624997  55.4899988 115.8477568  46.8320807  54.6769588
 120.4850012  48.0634997  39.5869988 120.0250012  47.5794997  40.2729988
 120.7400012  47.3954997  38.9509988 120.4564902  47.9068731  39.5949334
 119.7740012  45.9564997  51.9429988 119.1560012  46.6314997  52.2229988
 120.1180012  46.2774997  51.1099988 119.7359615  46.0922721  51.8686581
 121.5560012  46.3064997  37.8489988 121.3760012  46.1524997  36.9219988
 122.5060012  46.4144997  37.8939988 121.6597776  46.3000175  37.7281843
 124.7940012  48.4284997  55.2199988 125.7470012  48.5114997  55.1929988
 124.6330012  47.7164997  55.8399988 124.9026426  48.3436746  55.3000579
 130.9460012  48.6614997  37.2949988 130.6720012  48.2364997  36.4819988
 130.9850012  49.5924997  37.0779988 130.9137699  48.7292484  37.1543610
 120.1130012  43.3114997  53.0249988 120.2630012  42.5824997  52.4229988
 120.1160012  44.0884997  52.4659988 120.1339302  43.3167851  52.8670692
 120.5260012  41.6814997  50.5179988 121.0620012  42.1324997  49.8659988
 119.6740012  41.5734997  50.0949988 120.4842178  41.7286390  50.3715756
 122.1080012  47.1204997  50.7569988 122.8580012  46.9644997  50.1839988
 121.7690012  47.9724997  50.4819988 122.1648921  47.2142968  50.6413561
 126.5230012  44.9354997  55.7859988 126.7160012  44.0044997  55.6739988
 127.3810012  45.3604997  55.7759988 126.6653020  44.8656389  55.7693361
 127.8400012  47.7244997  53.8629988 127.5590012  48.4334997  53.2859988
 128.7830012  47.6514997  53.7119988 127.9289027  47.8117646  53.7635551
 118.5920012  44.5094997  54.9369988 117.8250012  43.9774997  54.7269988
 119.2710012  44.1994997  54.3369988 118.5787022  44.3947506  54.8271648
 121.3320012  39.1374997  50.9489988 121.2330012  40.0844997  50.8439988
 120.5890012  38.7654997  50.4739988 121.2180564  39.2165902  50.8704560
 122.5960012  43.4594997  54.5129988 122.3600012  43.2394997  55.4149988
 121.8120012  43.2524997  54.0029988 122.4578628  43.4014760  54.5673932
 125.3110012  42.5864997  53.5889988 124.3640012  42.6184997  53.7209988
 125.6240012  41.9614997  54.2419988 125.2235475  42.5063207  53.6954455
 126.9450012  41.2204997  55.5939988 126.8490012  40.2684997  55.5879988
 126.6240012  41.4894997  56.4539988 126.8884070  41.1264035  55.7095441
 116.7720012  42.4304997  54.6409988 116.9840012  41.7234997  54.0309988
 116.6610012  41.9924997  55.4849988 116.7859721  42.2747084  54.6716843
 121.5530012  38.4314997  53.6209988 122.2650012  37.7914997  53.6069988
 121.4520012  38.6984997  52.7069988 121.6367939  38.3799938  53.4955650
 121.9070012  40.1144997  55.6739988 121.7750012  39.6384997  54.8539988
 121.3080012  40.8584997  55.6189988 121.8079071  40.1499618  55.5542886
 121.4530012  56.9974997  38.8509988 122.3860012  57.1554997  38.9939988
 121.1890012  57.6724997  38.2259988 121.5449510  57.1103611  38.7860741
 115.0220012  51.6334997  38.3329988 115.9360012  51.7124997  38.6069988
 115.0290012  50.9464997  37.6669988 115.1481131  51.5513961  38.2804393
 113.6710012  57.0264997  43.4109988 113.0240012  56.5644997  42.8779988
 114.0250012  56.3544997  43.9929988 113.6303849  56.8724723  43.4167959
 114.5410012  55.1074997  45.2149988 114.2060012  54.2274997  45.3869988
 114.7630012  55.4524997  46.0799988 114.5251783  55.0337500  45.3554208
 132.0890012  55.9164997  48.1959988 132.0680012  56.1014997  49.1349988
 132.7800012  56.4854997  47.8549988 132.1794618  56.0186606  48.2783864
 131.6530012  55.4844997  51.1179988 131.1650012  54.7484997  50.7469988
 132.2020012  55.0904997  51.7959988 131.6604872  55.3306249  51.1589160
 130.1030012  51.2734997  55.7559988 129.2370012  51.1684997  56.1499988
 130.4800012  52.0324997  56.2019988 130.0353308  51.3616900  55.8702393
 131.4040012  49.5304997  41.2699988 132.2540012  49.9514997  41.3969988
 131.4100012  48.7904997  41.8769988 131.5211372  49.4880803  41.3694344
 131.7990012  47.5834997  43.0939988 131.0720012  47.1044997  43.4909988
 132.3800012  47.7894997  43.8259988 131.7779375  47.5457090  43.2474129
 131.5580012  50.3684997  48.0409988 132.3910012  49.9904997  47.7609988
 131.6700012  51.3114997  47.9219988 131.6872647  50.4442218  47.9865487
 130.0440012  53.2464997  50.3479988 129.3970012  53.5714997  50.9739988
 129.5270012  52.8064997  49.6739988 129.8854029  53.2315004  50.3425827
 132.0670012  47.4844997  39.4849988 131.5450012  47.8414997  38.7659988
 132.0340012  48.1594997  40.1629988 131.9911634  47.6245413  39.4783145
 130.4160012  44.7244997  38.0359988 130.5120012  45.3914997  37.3549988
 130.2760012  43.9084997  37.5539988 130.4102135  44.7054500  37.8778491
 129.5850012  46.1044997  43.6569988 129.4350012  45.1594997  43.6359988
 129.2320012  46.3854997  44.4999988 129.5166625  46.0130441  43.7682346
 114.6210012  48.1824997  47.6669988 114.8050012  48.1004997  46.7309988
 115.4700012  48.0584997  48.0909988 114.7610139  48.1545003  47.5961455
 130.4420012  48.0744997  53.2949988 131.0250012  47.3404997  53.4869988
 131.0060012  48.8464997  53.3419988 130.5979769  48.0784227  53.3276159
 131.9380012  45.9774997  53.9799988 131.0750012  45.5984997  53.8139988
 132.5430012  45.2384997  53.9059988 131.9015979  45.8258023  53.9472817
 129.6630012  42.1324997  37.1529988 130.2740012  41.7614997  37.7899988
 128.8270012  41.7114997  37.3489988 129.6335032  42.0247554  37.2667035
 129.2960012  43.6874997  42.1189988 129.5760012  42.7804997  42.2429988
 130.0550012  44.1214997  41.7299988 129.4369277  43.6220942  42.0833682
 129.9080012  44.2684997  47.5549988 130.8410012  44.4804997  47.5209988
 129.6730012  44.3704997  48.4769988 130.0038036  44.3112769  47.6749976
 129.9370012  45.0054997  50.3309988 129.0940012  45.2734997  50.6969988
 130.3790012  45.8274997  50.1199988 129.8814158  45.1533291  50.3525491
 114.2180012  43.4534997  53.8079988 115.1380012  43.3314997  54.0439988
 113.7690012  42.7034997  54.1969988 114.2831580  43.3353727  53.8929006
 132.2200012  38.9854997  55.6839988 132.5700012  38.3314997  55.0789988
 132.3670012  39.8224997  55.2449988 132.2878419  39.0091591  55.5417118
 129.9090012  40.9504997  42.1669988 130.0920012  40.5014997  42.9929988
 129.3100012  40.3654997  41.7039988 129.8530202  40.8099975  42.2173275
 115.4390012  41.7654997  46.6989988 115.8850012  40.9734997  47.0009988
 115.9060012  42.4814997  47.1299988 115.5630172  41.7540624  46.7984820
 113.7430012  44.7644997  47.7679988 114.2350012  44.5434997  46.9769988
 114.1060012  45.6054997  48.0489988 113.8593126  44.8478357  47.6977531
 131.7400012  41.0944997  54.0339988 130.8220012  41.3654997  53.9979988
 131.8630012  40.5594997  53.2489988 131.6311066  41.0592892  53.9230487
 131.7760012  41.0174997  38.6949988 132.1880012  40.2964997  38.2199988
 132.4580012  41.6874997  38.7539988 131.9245885  41.0092368  38.6378915
 114.0570012  41.0224997  41.8219988 113.1320012  41.2314997  41.6929988
 114.5110012  41.5064997  41.1329988 113.9917368  41.1165993  41.7111226
 128.8280012  56.0064997  43.7679988 129.4800012  55.6594997  43.1599988
 129.3380012  56.4954997  44.4139988 128.9862637  56.0250597  43.7720236
 114.0210012  39.7604997  50.1669988 113.3560012  39.5144997  50.8099988
 113.5780012  40.3824997  49.5889988 113.8700956  39.8108632  50.1769352
 116.2130012  52.9354997  54.3109988 115.3920012  53.1104997  53.8509988
 115.9600012  52.8624997  55.2319988 116.0666164  52.9495622  54.3724923
 119.1670012  53.9104997  50.5699988 118.7420012  54.7194997  50.2869988
 120.0710012  53.9954997  50.2679988 119.2310271  54.0328469  50.4903776
 123.4780012  55.3094997  53.5289988 123.6630012  54.9754997  54.4069988
 124.3240012  55.6184997  53.2069988 123.6177539  55.3056047  53.6055605
 125.8230012  56.5954997  52.7729988 126.5000012  55.9624997  52.5329988
 126.1450012  56.9964997  53.5799988 125.9591637  56.5631154  52.8492793
 130.7400012  39.1844997  51.8529988 129.9280012  39.5094997  51.4649988
 130.9730012  38.4244997  51.3199988 130.6603423  39.1262436  51.7278253
 116.5690012  57.1664997  50.6169988 115.8480012  57.6064997  50.1659988
 116.2030012  56.9154997  51.4659988 116.4209804  57.1927698  50.6699840
 119.0360012  56.7664997  49.6469988 118.1710012  56.8384997  50.0509988
 118.9810012  57.3134997  48.8629988 118.9102085  56.8502685  49.5963362
 123.7460012  56.6544997  48.8219988 123.2900012  57.1834997  48.1679988
 123.9090012  57.2574997  49.5479988 123.7055585  56.8084468  48.8305062
 126.0740012  55.5324997  49.7669988 125.1690012  55.6974997  49.5019988
 126.5030012  56.3854997  49.7019988 126.0080799  55.6704483  49.7219182
 128.6780012  57.1024997  50.0619988 128.4960012  58.0184997  49.8519988
 128.8550012  56.6924997  49.2159988 128.6770210  57.1724822  49.9187885
 115.9830012  55.7894997  47.5269988 115.9650012  55.3644997  48.3849988
 116.7880012  55.4714997  47.1189988 116.0893875  55.6883812  47.5891655
 118.1250012  54.4994997  46.1819988 117.9060012  53.5834997  46.3519988
 118.9490012  54.6394997  46.6479988 118.2064420  54.3930520  46.2682774
 120.6620012  54.9694997  47.0309988 120.8750012  54.0814997  46.7439988
 120.7260012  54.9354997  47.9849988 120.6998232  54.8433102  47.1207397
 124.1700012  40.6334997  46.1749988 123.4960012  40.0044997  46.4309988
 124.7340012  40.1494997  45.5719988 124.1539230  40.4818744  46.1285340
 129.3130012  38.7414997  46.2879988 129.9170012  39.2884997  45.7859988
 128.4430012  39.0604997  46.0479988 129.2781241  38.8595806  46.1867654
 131.0400012  39.8794997  44.6209988 131.6520012  39.3654997  44.0949988
 131.4220012  40.7574997  44.6449988 131.1754540  39.9277140  44.5521830
 116.4970012  39.2674997  43.9969988 115.7200012  39.0334997  43.4899988
 117.0270012  38.4704997  44.0059988 116.4622330  39.1276988  43.9287742
 115.3330012  39.0654997  39.8009988 115.7720012  39.6764997  39.2089988
 114.7000012  39.6034997  40.2749988 115.3074514  39.2219257  39.7840930
 121.0760012  39.1944997  43.8109988 121.9510012  39.5824997  43.7809988
 120.9400012  38.9794997  44.7329988 121.1773695  39.2185184  43.9316440
 126.6330012  39.2244997  45.4599988 126.7090012  39.3194997  44.5099988
 126.3580012  38.3164997  45.5889988 126.6062321  39.1147867  45.3475079
 127.9860012  39.2504997  41.1519988 127.2840012  39.8654997  40.9429988
 127.5420012  38.4124997  41.2829988 127.8296330  39.2215783  41.1410328
 115.2340012  55.0134997  40.6989988 114.5490012  54.9754997  40.0309988
 115.2380012  55.9264997  40.9869988 115.1408193  55.1317016  40.6465284
 117.1940012  40.9814997  38.2429988 117.6860012  40.3514997  37.7159988
 117.8180012  41.2774997  38.9069988 117.3455446  40.9353199  38.2605980
 122.2200012  41.2744997  40.6999988 122.3980012  40.6284997  41.3829988
 122.1670012  42.1084997  41.1679988 122.2371829  41.2987985  40.8565940
 124.0990012  56.2234997  39.0959988 124.9650012  56.5894997  38.9179988
 123.8520012  55.7834997  38.2819988 124.1842392  56.2141756  38.9616289
 130.8080012  55.7864997  41.7749988 130.6130012  55.0384997  41.2099988
 130.7690012  56.5444997  41.1919988 130.7760380  55.7866099  41.6188384
 116.4550012  39.7814997  53.5149988 116.0890012  39.0164997  53.9579988
 117.3680012  39.8104997  53.8019988 116.5282790  39.6807224  53.6144070
 118.4280012  39.1324997  55.0509988 119.3260012  38.8584997  54.8659988
 118.0410012  38.3894997  55.5149988 118.4986612  38.9945914  55.0883643
 117.0520012  55.9334997  37.7239988 116.7850012  56.2204997  38.5969988
 117.8240012  55.3874997  37.8759988 117.1197488  55.8990294  37.8641050
 126.8490012  38.4644997  55.2329988 126.9260012  38.0384997  56.0869988
 127.7430012  38.4784997  54.8899988 126.9803428  38.4080880  55.3035310
 130.0250012  54.5374997  53.9249988 129.2430012  54.3514997  53.4059988
 129.9530012  55.4664997  54.1429988 129.9081777  54.6376492  53.8834048
 144.4310012  48.4234997  43.9559988 144.5200012  49.3674997  43.8239988
 143.7930012  48.1484997  43.2979988 144.3569081  48.5154830  43.8489614
 143.3640012  47.6784997  47.3749988 143.3260012  47.0324997  48.0799988
 143.0420012  47.2124997  46.6039988 143.3152333  47.5269408  47.3672978
 135.7330012  47.2934997  48.9679988 135.7740012  46.6674997  49.6909988
 136.4360012  47.9174997  49.1499988 135.8336363  47.2921196  49.0916044
 136.6560012  51.7434997  47.5029988 136.2870012  50.9414997  47.1329988
 137.5970012  51.5744997  47.5489988 136.7327289  51.6110153  47.4586316
 133.2660012  45.4034997  42.8959988 132.8190012  46.2494997  42.8769988
 132.7050012  44.8234997  42.3799988 133.1289900  45.4409916  42.8236801
 133.9770012  47.5654997  45.0219988 134.1900012  46.7954997  45.5489988
 134.7150012  47.6544997  44.4179988 134.1058496  47.4721394  45.0125300
 144.1820012  55.7224997  45.8889988 144.8020012  55.0454997  45.6149988
 143.9740012  55.5044997  46.7969988 144.2386904  55.6003870  45.9743365
 141.7540012  50.1114997  47.7809988 142.0580012  49.4254997  47.1859988
 142.4750012  50.2294997  48.3989988 141.8930671  50.0336305  47.7831816
 144.8950012  44.5054997  48.1089988 145.0370012  43.5594997  48.1289988
 144.7880012  44.7124997  47.1799988 144.8999863  44.4039534  47.9862339
 138.0490012  42.6064997  45.3809988 138.0930012  43.4664997  44.9629988
 137.5920012  42.0544997  44.7469988 137.9932185  42.6495799  45.2380299
 134.6700012  45.0034997  46.1429988 135.3230012  44.4534997  46.5749988
 134.6940012  44.7294997  45.2259988 134.7626683  44.8911466  46.0782123
 139.8260012  46.5534997  45.3579988 140.4420012  46.0274997  45.8679988
 139.2400012  45.9134997  44.9549988 139.8310810  46.3949208  45.3733173
 136.8600012  41.5244997  49.4549988 136.6410012  42.0544997  48.6889988
 136.1920012  41.7514997  50.1019988 136.7397600  41.6276906  49.4376379
 144.2290012  51.0244997  42.9989988 143.9330012  50.7024997  42.1479988
 143.9040012  51.9244997  43.0399988 144.1446371  51.1020215  42.8881801
 139.4290012  49.2004997  49.7419988 138.6890012  49.7984997  49.8459988
 140.1430012  49.7544997  49.4269988 139.4242237  49.3572831  49.7136465
 136.4530012  43.4164997  47.4069988 137.0670012  44.0494997  47.7809988
 136.9650012  42.9444997  46.7509988 136.6062296  43.4392370  47.3694252
 137.8360012  51.1644997  50.5299988 137.8310012  52.0444997  50.1519988
 136.9830012  51.0814997  50.9549988 137.7199464  51.2736117  50.5357907
 133.9570012  50.8354997  41.3119988 133.6850012  51.0644997  40.4229988
 134.0030012  51.6734997  41.7719988 133.9260094  50.9801213  41.2525697
 140.8860012  38.8304997  46.9079988 140.7690012  37.8814997  46.8529988
 140.0310012  39.1624997  47.1809988 140.7543733  38.7455409  46.9373897
 143.1530012  47.6674997  41.4079988 142.4410012  48.2024997  41.0559988
 143.8440012  47.7234997  40.7479988 143.1490132  47.7482543  41.2706289
 143.2060012  46.1254997  38.4469988 143.9070012  46.1474997  39.0979988
 143.5090012  45.4974997  37.7909988 143.3427830  46.0436566  38.4473711
 138.2040012  48.5074997  44.2419988 137.8730012  48.1374997  43.4239988
 138.7920012  47.8374997  44.5889988 138.2381873  48.3661156  44.1768102
 139.5700012  51.9354997  46.9239988 139.4760012  51.3574997  46.1669988
 140.3000012  51.5644997  47.4199988 139.6557981  51.8062390  46.8874165
 138.5700012  47.2764997  47.8759988 139.1360012  47.3974997  47.1129988
 138.8890012  47.9134997  48.5149988 138.6905786  47.3791884  47.8580040
 144.8790012  52.7794997  48.6099988 144.6390012  53.4414997  49.2579988
 144.6810012  51.9454997  49.0349988 144.8193808  52.7573134  48.7561524
 139.4500012  51.6754997  52.5929988 139.1390012  52.4574997  53.0479988
 138.8000012  51.5224997  51.9069988 139.3195558  51.7619105  52.5625871
 136.3700012  47.8734997  51.8219988 136.4410012  48.5244997  52.5199988
 135.4800012  47.9764997  51.4869988 136.2593117  47.9765936  51.8722700
 143.1560012  53.7764997  43.4799988 143.6300012  54.0714997  44.2579988
 142.5930012  54.5144997  43.2469988 143.1447653  53.9166932  43.5550136
 137.6900012  53.7474997  53.3559988 137.6970012  53.6114997  52.4089988
 136.7740012  53.6294997  53.6079988 137.5671714  53.7129430  53.2604666
 137.1940012  47.5774997  41.8319988 136.9020012  48.3454997  41.3409988
 136.5200012  46.9174997  41.6689988 137.0629081  47.5934406  41.7427340
 133.2870012  49.9404997  50.6469988 132.7860012  49.9124997  49.8319988
 133.2920012  49.0344997  50.9559988 133.2191526  49.8142278  50.5772872
 133.0370012  52.7204997  47.5309988 133.9830012  52.5764997  47.5119988
 132.9250012  53.5044997  48.0679988 133.1512727  52.8068046  47.6010072
 142.2140012  52.9604997  52.0889988 142.3010012  53.7864997  52.5639988
 141.3500012  52.6304997  52.3379988 142.1091964  53.0289878  52.1876549
 142.6280012  56.7324997  41.8949988 142.5530012  56.6114997  40.9489988
 142.6610012  57.6824997  42.0139988 142.6221848  56.8442500  41.7814834
 136.2810012  55.5214997  43.6759988 136.4340012  55.1734997  44.5549988
 135.4310012  55.1654997  43.4209988 136.1868962  55.4256650  43.7618340
 135.5360012  51.2634997  51.6899988 135.7520012  50.9024997  52.5489988
 134.6810012  50.8894997  51.4799988 135.4499292  51.1634111  51.7793386
 138.1550012  39.7334997  47.6849988 137.2930012  39.6464997  47.2779988
 138.1320012  40.5894997  48.1129988 138.0340330  39.8372765  47.6871863
 142.8180012  39.4554997  51.0599988 143.2380012  39.0404997  51.8129988
 141.8850012  39.2774997  51.1769988 142.7493644  39.3745900  51.1789539
 142.4790012  41.9484997  38.3449988 142.2260012  41.9674997  39.2679988
 142.2230012  41.0764997  38.0439988 142.4097790  41.8332437  38.4306263
 138.2460012  44.6994997  48.7799988 137.6040012  44.6584997  49.4889988
 138.2830012  45.6254997  48.5429988 138.1631324  44.8191559  48.8449824
 138.2430012  44.9204997  43.6919988 137.3500012  44.5794997  43.6339988
 138.6930012  44.5434997  42.9369988 138.1817305  44.8228484  43.5819177
 143.7780012  45.3364997  42.5089988 143.3690012  46.1514997  42.2179988
 144.4990012  45.1964997  41.8949988 143.8194537  45.4292018  42.3861342
 142.8800012  45.5114997  53.9969988 142.3180012  44.8074997  54.3179988
 143.7070012  45.3914997  54.4649988 142.9147095  45.3987883  54.1042330
 144.7830012  44.7824997  45.3229988 144.5880012  45.3874997  44.6079988
 144.9640012  43.9484997  44.8889988 144.7807614  44.7526300  45.1664405
 135.9960012  45.0194997  50.6469988 135.9580012  45.4194997  51.5159988
 135.5050012  44.2024997  50.7379988 135.9244684  44.9638069  50.7781059
 139.3620012  42.3934997  37.4459988 138.9310012  41.9484997  38.1759988
 138.6440012  42.7654997  36.9339988 139.2059438  42.3828940  37.4766799
 132.6040012  42.1354997  44.4979988 133.2350012  42.1064997  45.2169988
 133.0530012  41.7104997  43.7679988 132.7510774  42.0740492  44.4976553
 133.8780012  42.8814997  39.9219988 134.3520012  43.4724997  39.3369988
 133.1610012  43.4124997  40.2689988 133.8459341  43.0340867  39.8888836
 144.0470012  46.4204997  49.9949988 144.3700012  45.7894997  49.3519988
 143.6070012  45.8854997  50.6549988 144.0316895  46.2618441  49.9962850
 140.8240012  42.3474997  44.7789988 139.9130012  42.4044997  45.0669988
 141.3300012  42.2874997  45.5889988 140.7675413  42.3471985  44.9280622
 135.6530012  43.9764997  43.6049988 134.7630012  44.0764997  43.2649988
 135.9490012  43.1344997  43.2589988 135.5712823  43.8763545  43.5117213
 139.3060012  43.9764997  41.2619988 140.2370012  44.1054997  41.4399988
 139.0910012  44.6464997  40.6119988 139.4044247  44.0846565  41.1985747
 137.9800012  45.1714997  38.8289988 137.4370012  44.7914997  38.1369988
 138.8130012  45.3654997  38.3999988 138.0184399  45.1458124  38.6764526
 136.1150012  49.7284997  53.9279988 136.8470012  49.9824997  54.4889988
 135.3350012  49.9324997  54.4429988 136.1098232  49.7909177  54.0745760
 142.1440012  45.1354997  46.6659988 142.7090012  44.5884997  46.1189988
 141.9970012  44.6134997  47.4539988 142.2012918  44.9902024  46.6978454
 137.1460012  41.2714997  43.0839988 136.8290012  40.3694997  43.0489988
 137.9280012  41.2734997  42.5309988 137.2082284  41.1481628  43.0044783
 140.7710012  43.5234997  49.0799988 139.9350012  43.9774997  49.1899988
 141.2950012  43.7994997  49.8319988 140.7274414  43.6229376  49.1967136
 141.3150012  49.7364997  40.7639988 140.5700012  49.2294997  40.4419988
 141.1810012  49.7854997  41.7109988 141.1948776  49.6736940  40.8478647
 142.8340012  49.9204997  52.0009988 142.4890012  49.5394997  52.8079988
 142.6340012  50.8544997  52.0729988 142.7598061  49.9945228  52.1210961
 136.4400012  49.0314997  46.5339988 137.1850012  49.0294997  45.9329988
 136.5180012  48.2084997  47.0159988 136.5525518  48.9199315  46.5168929
 143.4410012  51.1954997  39.7899988 143.1450012  52.0214997  40.1709988
 142.7380012  50.5754997  39.9859988 143.3054914  51.2248199  39.8686443
 133.4480012  47.4924997  51.8489988 133.6710012  47.0744997  52.6809988
 132.8460012  46.8794997  51.4259988 133.3971759  47.3524668  51.9057022
 140.4640012  47.0094997  54.0619988 140.1680012  46.8434997  53.1669988
 141.3960012  46.7894997  54.0509988 140.5494166  46.9570640  53.9380536
 138.8150012  52.5494997  43.9379988 139.3420012  53.3224997  43.7379988
 137.9350012  52.7744997  43.6369988 138.7681773  52.6858005  43.8699010
 134.5700012  47.4114997  38.5249988 135.1860012  48.0384997  38.9049988
 133.7080012  47.7274997  38.7969988 134.5377698  47.5399430  38.6137183
 140.2420012  50.2124997  43.5149988 140.0010012  51.1374997  43.5559988
 139.5010012  49.7534997  43.9109988 140.1088409  50.2771421  43.5741377
 140.7570012  54.3614997  49.8299988 141.1190012  55.2164997  49.5959988
 141.2880012  54.0694997  50.5699988 140.8784473  54.4391060  49.8980855
 138.9250012  55.2344997  43.0599988 137.9750012  55.3394997  43.1109988
 139.2770012  56.0544997  43.4049988 138.8424203  55.3598314  43.1136650
 144.3010012  50.4604997  49.5299988 143.8750012  50.2334997  50.3569988
 144.8810012  49.7224997  49.3479988 144.3211868  50.3295299  49.6185830
 135.0820012  42.2454997  51.4069988 134.1890012  42.5844997  51.3389988
 134.9830012  41.3904997  51.8249988 134.9464164  42.1762588  51.4542235
 134.7330012  54.0504997  49.8419988 134.9500012  53.1184997  49.8109988
 134.9790012  54.3244997  50.7249988 134.7959549  53.9600636  49.9571763
 140.5950012  52.5014997  37.0509988 140.8340012  51.7534997  36.5039988
 140.3260012  52.1134997  37.8839988 140.5913675  52.3466638  37.0886865
 139.5320012  52.0714997  39.5079988 139.6780012  51.5514997  40.2979988
 139.5290012  52.9784997  39.8139988 139.5515989  52.1228853  39.6576088
 135.9850012  49.3244997  40.0179988 135.2990012  49.6764997  40.5849988
 136.5070012  50.0874997  39.7709988 135.9616852  49.4758578  40.0622118
 143.8160012  41.9864997  50.2969988 144.5150012  42.0604997  50.9469988
 143.4350012  41.1224997  50.4509988 143.8601767  41.8797624  50.4068322
 144.6010012  41.6384997  41.3939988 144.8210012  42.1104997  40.5909988
 145.1590012  42.0334997  42.0639988 144.7064968  41.7564285  41.3747331
 142.2690012  53.7694997  40.2569988 141.4530012  54.2664997  40.3089988
 142.7990012  54.2444997  39.6169988 142.2289161  53.9017722  40.1775956
 141.8010012  43.3664997  42.2289988 142.6130012  43.8714997  42.2749988
 141.5560012  43.2214997  43.1429988 141.8790520  43.4160375  42.3588517
 142.3360012  44.3524997  51.4139988 142.4550012  44.9264997  52.1709988
 142.9920012  43.6644997  51.5279988 142.4409757  44.3381079  51.5330825
 142.6840012  40.4474997  43.1669988 142.3380012  41.0654997  43.8119988
 143.3430012  40.9484997  42.6859988 142.7257826  40.5995802  43.1900971
 139.6080012  54.8134997  40.2389988 139.7680012  55.6124997  39.7379988
 139.4100012  55.1194997  41.1239988 139.6031649  54.9644469  40.2899815
 138.3420012  41.5104997  39.8539988 138.2590012  42.3994997  40.2009988
 139.2320012  41.2454997  40.0859988 138.4509469  41.5961430  39.9327626
 136.6010012  51.9384997  38.9149988 137.1930012  52.6374997  39.1909988
 137.0600012  51.5054997  38.1949988 136.7441142  51.9757049  38.8554830
 134.9170012  44.6024997  38.0309988 134.8720012  45.5414997  38.2089988
 134.0290012  44.3664997  37.7609988 134.7908574  44.6991892  38.0188912
 135.7250012  39.3844997  46.7039988 135.4960012  39.4434997  45.7759988
 135.2820012  38.5924997  47.0099988 135.6338530  39.2855753  46.6184786
 134.6550012  53.3244997  42.8639988 133.8230012  53.7974997  42.8919988
 135.2010012  53.8344997  42.2659988 134.6149739  53.4581871  42.7869716
 133.9430012  55.9374997  54.1939988 134.4840012  55.7204997  54.9539988
 133.4620012  55.1314997  54.0049988 133.9519345  55.7989514  54.2723076
 138.5410012  54.8564997  55.8149988 139.3080012  54.3974997  56.1559988
 138.5190012  54.6304997  54.8849988 138.6431434  54.7630409  55.7360043
 142.6330012  54.3644997  37.1899988 141.9890012  53.7334997  37.5109988
 143.3950012  53.8334997  36.9579988 142.6478077  54.2062920  37.2026011
 133.8500012  49.7474997  55.1489988 133.9940012  48.8454997  54.8619988
 133.0780012  50.0334997  54.6609988 133.7653322  49.6628261  55.0437881
 138.1920012  50.0914997  37.2809988 138.2560012  49.2974997  37.8119988
 138.8450012  49.9724997  36.5909988 138.2890241  49.9667148  37.2604317
 140.5060012  49.7174997  54.5809988 140.1770012  49.9884997  53.7239988
 140.6580012  48.7764997  54.4939988 140.4814809  49.6273862  54.4518244
 143.5440012  51.1384997  37.0169988 143.2750012  51.3184997  37.9179988
 143.3380012  50.2124997  36.8859988 143.4793825  51.0380152  37.1225214
 134.6830012  46.9474997  54.5689988 135.0910012  46.0904997  54.4479988
 134.4230012  46.9624997  55.4899988 134.7037568  46.8320807  54.6769588
 139.3410012  48.0634997  39.5869988 138.8810012  47.5794997  40.2729988
 139.5960012  47.3954997  38.9509988 139.3124902  47.9068731  39.5949334
 138.6300012  45.9564997  51.9429988 138.0120012  46.6314997  52.2229988
 138.9740012  46.2774997  51.1099988 138.5919615  46.0922721  51.8686581
 140.4120012  46.3064997  37.8489988 140.2320012  46.1524997  36.9219988
 141.3620012  46.4144997  37.8939988 140.5157776  46.3000175  37.7281843
 143.6500012  48.4284997  55.2199988 144.6030012  48.5114997  55.1929988
 143.4890012  47.7164997  55.8399988 143.7586426  48.3436746  55.3000579
 138.9690012  43.3114997  53.0249988 139.1190012  42.5824997  52.4229988
 138.9720012  44.0884997  52.4659988 138.9899302  43.3167851  52.8670692
 139.3820012  41.6814997  50.5179988 139.9180012  42.1324997  49.8659988
 138.5300012  41.5734997  50.0949988 139.3402178  41.7286390  50.3715756
 140.9640012  47.1204997  50.7569988 141.7140012  46.9644997  50.1839988
 140.6250012  47.9724997  50.4819988 141.0208921  47.2142968  50.6413561
 137.4480012  44.5094997  54.9369988 136.6810012  43.9774997  54.7269988
 138.1270012  44.1994997  54.3369988 137.4347022  44.3947506  54.8271648
 140.1880012  39.1374997  50.9489988 140.0890012  40.0844997  50.8439988
 139.4450012  38.7654997  50.4739988 140.0740564  39.2165902  50.8704560
 141.4520012  43.4594997  54.5129988 141.2160012  43.2394997  55.4149988
 140.6680012  43.2524997  54.0029988 141.3138628  43.4014760  54.5673932
 144.1670012  42.5864997  53.5889988 143.2200012  42.6184997  53.7209988
 144.4800012  41.9614997  54.2419988 144.0795475  42.5063207  53.6954455
 135.6280012  42.4304997  54.6409988 135.8400012  41.7234997  54.0309988
 135.5170012  41.9924997  55.4849988 135.6419721  42.2747084  54.6716843
 140.4090012  38.4314997  53.6209988 141.1210012  37.7914997  53.6069988
 140.3080012  38.6984997  52.7069988 140.4927939  38.3799938  53.4955650
 140.7630012  40.1144997  55.6739988 140.6310012  39.6384997  54.8539988
 140.1640012  40.8584997  55.6189988 140.6639071  40.1499618  55.5542886
 140.3090012  56.9974997  38.8509988 141.2420012  57.1554997  38.9939988
 140.0450012  57.6724997  38.2259988 140.4009510  57.1103611  38.7860741
 133.8780012  51.6334997  38.3329988 134.7920012  51.7124997  38.6069988
 133.8850012  50.9464997  37.6669988 134.0041131  51.5513961  38.2804393
 132.5270012  57.0264997  43.4109988 131.8800012  56.5644997  42.8779988
 132.8810012  56.3544997  43.9929988 132.4863849  56.8724723  43.4167959
 133.3970012  55.1074997  45.2149988 133.0620012  54.2274997  45.3869988
 133.6190012  55.4524997  46.0799988 133.3811783  55.0337500  45.3554208
 133.4770012  48.1824997  47.6669988 133.6610012  48.1004997  46.7309988
 134.3260012  48.0584997  48.0909988 133.6170139  48.1545003  47.5961455
 133.0740012  43.4534997  53.8079988 133.9940012  43.3314997  54.0439988
 132.6250012  42.7034997  54.1969988 133.1391580  43.3353727  53.8929006
 134.2950012  41.7654997  46.6989988 134.7410012  40.9734997  47.0009988
 134.7620012  42.4814997  47.1299988 134.4190172  41.7540624  46.7984820
 132.5990012  44.7644997  47.7679988 133.0910012  44.5434997  46.9769988
 132.9620012  45.6054997  48.0489988 132.7153126  44.8478357  47.6977531
 132.9130012  41.0224997  41.8219988 131.9880012  41.2314997  41.6929988
 133.3670012  41.5064997  41.1329988 132.8477368  41.1165993  41.7111226
 132.8770012  39.7604997  50.1669988 132.2120012  39.5144997  50.8099988
 132.4340012  40.3824997  49.5889988 132.7260956  39.8108632  50.1769352
 135.0690012  52.9354997  54.3109988 134.2480012  53.1104997  53.8509988
 134.8160012  52.8624997  55.2319988 134.9226164  52.9495622  54.3724923
 138.0230012  53.9104997  50.5699988 137.5980012  54.7194997  50.2869988
 138.9270012  53.9954997  50.2679988 138.0870271  54.0328469  50.4903776
 142.3340012  55.3094997  53.5289988 142.5190012  54.9754997  54.4069988
 143.1800012  55.6184997  53.2069988 142.4737539  55.3056047  53.6055605
 144.6790012  56.5954997  52.7729988 145.3560012  55.9624997  52.5329988
 145.0010012  56.9964997  53.5799988 144.8151637  56.5631154  52.8492793
 135.4250012  57.1664997  50.6169988 134.7040012  57.6064997  50.1659988
 135.0590012  56.9154997  51.4659988 135.2769804  57.1927698  50.6699840
 137.8920012  56.7664997  49.6469988 137.0270012  56.8384997  50.0509988
 137.8370012  57.3134997  48.8629988 137.7662085  56.8502685  49.5963362
 142.6020012  56.6544997  48.8219988 142.1460012  57.1834997  48.1679988
 142.7650012  57.2574997  49.5479988 142.5615585  56.8084468  48.8305062
 134.8390012  55.7894997  47.5269988 134.8210012  55.3644997  48.3849988
 135.6440012  55.4714997  47.1189988 134.9453875  55.6883812  47.5891655
 136.9810012  54.4994997  46.1819988 136.7620012  53.5834997  46.3519988
 137.8050012  54.6394997  46.6479988 137.0624420  54.3930520  46.2682774
 139.5180012  54.9694997  47.0309988 139.7310012  54.0814997  46.7439988
 139.5820012  54.9354997  47.9849988 139.5558231  54.8433102  47.1207397
 143.0260012  40.6334997  46.1749988 142.3520012  40.0044997  46.4309988
 143.5900012  40.1494997  45.5719988 143.0099230  40.4818744  46.1285340
 135.3530012  39.2674997  43.9969988 134.5760012  39.0334997  43.4899988
 135.8830012  38.4704997  44.0059988 135.3182330  39.1276988  43.9287742
 134.1890012  39.0654997  39.8009988 134.6280012  39.6764997  39.2089988
 133.5560012  39.6034997  40.2749988 134.1634514  39.2219257  39.7840930
 139.9320012  39.1944997  43.8109988 140.8070012  39.5824997  43.7809988
 139.7960012  38.9794997  44.7329988 140.0333695  39.2185184  43.9316440
 134.0900012  55.0134997  40.6989988 133.4050012  54.9754997  40.0309988
 134.0940012  55.9264997  40.9869988 133.9968193  55.1317016  40.6465284
 136.0500012  40.9814997  38.2429988 136.5420012  40.3514997  37.7159988
 136.6740012  41.2774997  38.9069988 136.2015446  40.9353199  38.2605980
 141.0760012  41.2744997  40.6999988 141.2540012  40.6284997  41.3829988
 141.0230012  42.1084997  41.1679988 141.0931829  41.2987985  40.8565940
 142.9550012  56.2234997  39.0959988 143.8210012  56.5894997  38.9179988
 142.7080012  55.7834997  38.2819988 143.0402392  56.2141756  38.9616289
 135.3110012  39.7814997  53.5149988 134.9450012  39.0164997  53.9579988
 136.2240012  39.8104997  53.8019988 135.3842790  39.6807224  53.6144070
 137.2840012  39.1324997  55.0509988 138.1820012  38.8584997  54.8659988
 136.8970012  38.3894997  55.5149988 137.3546612  38.9945914  55.0883643
 135.9080012  55.9334997  37.7239988 135.6410012  56.2204997  38.5969988
 136.6800012  55.3874997  37.8759988 135.9757488  55.8990294  37.8641050
  12.4390012  67.2794997  43.9559988  12.5280012  68.2234997  43.8239988
  11.8010012  67.0044997  43.2979988  12.3649081  67.3714830  43.8489614
  11.3720012  66.5344997  47.3749988  11.3340012  65.8884997  48.0799988
  11.0500012  66.0684997  46.6039988  11.3232333  66.3829408  47.3672978
   3.7410012  66.1494997  48.9679988   3.7820012  65.5234997  49.6909988
   4.4440012  66.7734997  49.1499988   3.8416363  66.1481196  49.0916044
  15.0780012  69.4734997  45.6759988  14.6380012  68.7534997  46.1269988
  15.0650012  70.1944997  46.3059988  15.0160226  69.4723731  45.8228494
   4.6640012  70.5994997  47.5029988   4.2950012  69.7974997  47.1329988
   5.6050012  70.4304997  47.5489988   4.7407289  70.4670153  47.4586316
   1.2740012  64.2594997  42.8959988   0.8270012  65.1054997  42.8769988
   0.7130012  63.6794997  42.3799988   1.1369900  64.2969916  42.8236801
   1.9850012  66.4214997  45.0219988   2.1980012  65.6514997  45.5489988
   2.7230012  66.5104997  44.4179988   2.1138496  66.3281394  45.0125300
  12.1900012  74.5784997  45.8889988  12.8100012  73.9014997  45.6149988
  11.9820012  74.3604997  46.7969988  12.2466904  74.4563870  45.9743365
   9.7620012  68.9674997  47.7809988  10.0660012  68.2814997  47.1859988
  10.4830012  69.0854997  48.3989988   9.9010671  68.8896305  47.7831816
  18.4250012  60.5684997  48.6419988  18.4740012  61.1784997  49.3779988
  18.8500012  61.0294997  47.9189988  18.4891824  60.7143741  48.6450205
  12.9030012  63.3614997  48.1089988  13.0450012  62.4154997  48.1289988
  12.7960012  63.5684997  47.1799988  12.9079864  63.2599534  47.9862339
   6.0570012  61.4624997  45.3809988   6.1010012  62.3224997  44.9629988
   5.6000012  60.9104997  44.7469988   6.0012185  61.5055799  45.2380299
  13.7800012  61.5934997  43.7819988  14.4260012  61.2644997  44.4069988
  14.2900012  62.1114997  43.1589988  13.9374264  61.6184611  43.7833862
   2.6780012  63.8594997  46.1429988   3.3310012  63.3094997  46.5749988
   2.7020012  63.5854997  45.2259988   2.7706683  63.7471466  46.0782123
   7.8340012  65.4094997  45.3579988   8.4500012  64.8834997  45.8679988
   7.2480012  64.7694997  44.9549988   7.8390810  65.2509208  45.3733173
  18.8160012  62.0464997  50.8779988  18.1280012  62.7044997  50.7819988
  18.8320012  61.8494997  51.8139988  18.7238525  62.1100462  50.9914808
   4.8680012  60.3804997  49.4549988   4.6490012  60.9104997  48.6889988
   4.2000012  60.6074997  50.1019988   4.7477600  60.4836906  49.4376379
  12.2370012  69.8804997  42.9989988  11.9410012  69.5584997  42.1479988
  11.9120012  70.7804997  43.0399988  12.1526371  69.9580215  42.8881801
   7.4370012  68.0564997  49.7419988   6.6970012  68.6544997  49.8459988
   8.1510012  68.6104997  49.4269988   7.4322237  68.2132831  49.7136465
  15.5440012  60.8844997  45.7619988  15.3280012  60.1184997  46.2949988
  16.1990012  61.3564997  46.2749988  15.6030632  60.8435889  45.9042861
   4.4610012  62.2724997  47.4069988   5.0750012  62.9054997  47.7809988
   4.9730012  61.8004997  46.7509988   4.6142296  62.2952370  47.3694252
   5.8440012  70.0204997  50.5299988   5.8390012  70.9004997  50.1519988
   4.9910012  69.9374997  50.9549988   5.7279464  70.1296117  50.5357907
   1.9650012  69.6914997  41.3119988   1.6930012  69.9204997  40.4229988
   2.0110012  70.5294997  41.7719988   1.9340094  69.8361213  41.2525697
  15.5900012  71.3134997  48.0239988  14.6490012  71.3714997  48.1859988
  15.8670012  72.2194997  47.8869988  15.4984679  71.4439443  48.0276815
  15.8910012  59.5994997  49.4419988  15.1550012  60.2104997  49.4039988
  16.5740012  60.0144997  48.9149988  15.8826541  59.7391374  49.3655832
   8.8940012  57.6864997  46.9079988   8.7770012  56.7374997  46.8529988
   8.0390012  58.0184997  47.1809988   8.7623733  57.6015409  46.9373897
  13.8420012  73.0944997  44.6499988  14.2680012  72.3874997  44.1649988
  14.1590012  73.8954997  44.2329988  13.9431019  73.1060994  44.5273130
  15.0020012  70.9954997  43.1579988  14.7440012  70.3054997  42.5469988
  15.0730012  70.5524997  44.0039988  14.9762856  70.8412124  43.1886885
  16.6880012  69.5614997  51.6359988  16.8280012  68.9704997  50.8959988
  16.8550012  70.4344997  51.2789988  16.7296778  69.5986426  51.4866965
  11.1610012  66.5234997  41.4079988  10.4490012  67.0584997  41.0559988
  11.8520012  66.5794997  40.7479988  11.1570132  66.6042543  41.2706289
  11.2140012  64.9814997  38.4469988  11.9150012  65.0034997  39.0979988
  11.5170012  64.3534997  37.7909988  11.3507830  64.8996566  38.4473711
  18.5300012  65.9014997  49.7019988  17.8770012  66.5964997  49.7909988
  18.9950012  66.1114997  48.8919988  18.5035390  66.0249425  49.6046883
  14.5660012  66.7334997  42.3599988  13.8340012  66.9614997  42.9329988
  15.0140012  66.0194997  42.8149988  14.5263095  66.6682571  42.4999119
  14.4640012  64.9074997  51.4269988  14.5440012  65.6704997  51.9989988
  13.8620012  65.1864997  50.7369988  14.3935756  65.0497134  51.4120589
   6.2120012  67.3634997  44.2419988   5.8810012  66.9934997  43.4239988
   6.8000012  66.6934997  44.5889988   6.2461873  67.2221156  44.1768102
   7.5780012  70.7914997  46.9239988   7.4840012  70.2134997  46.1669988
   8.3080012  70.4204997  47.4199988   7.6637981  70.6622390  46.8874165
   6.5780012  66.1324997  47.8759988   7.1440012  66.2534997  47.1129988
   6.8970012  66.7694997  48.5149988   6.6985786  66.2351884  47.8580040
  12.8870012  71.6354997  48.6099988  12.6470012  72.2974997  49.2579988
  12.6890012  70.8014997  49.0349988  12.8273808  71.6133134  48.7561524
   7.4580012  70.5314997  52.5929988   7.1470012  71.3134997  53.0479988
   6.8080012  70.3784997  51.9069988   7.3275558  70.6179105  52.5625871
  13.4370012  65.8954997  40.0449988  14.0170012  66.0454997  40.7919988
  13.8510012  66.3664997  39.3219988  13.5722830  65.9796841  40.0494134
   4.3780012  66.7294997  51.8219988   4.4490012  67.3804997  52.5199988
   3.4880012  66.8324997  51.4869988   4.2673117  66.8325936  51.8722700
  11.1640012  72.6324997  43.4799988  11.6380012  72.9274997  44.2579988
  10.6010012  73.3704997  43.2469988  11.1527653  72.7726932  43.5550136
   5.6980012  72.6034997  53.3559988   5.7050012  72.4674997  52.4089988
   4.7820012  72.4854997  53.6079988   5.5751714  72.5689430  53.2604666
  17.1360012  57.6454997  39.8579988  16.2360012  57.7844997  40.1529988
  17.3880012  58.4764997  39.4559988  17.0468702  57.7769074  39.8440205
   5.2020012  66.4334997  41.8319988   4.9100012  67.2014997  41.3409988
   4.5280012  65.7734997  41.6689988   5.0709081  66.4494406  41.7427340
  18.3250012  72.0114997  38.2339988  18.3990012  72.9504997  38.4049988
  19.2310012  71.7064997  38.1779988  18.4575100  72.0986722  38.2498119
   1.2950012  68.7964997  50.6469988   0.7940012  68.7684997  49.8319988
   1.3000012  67.8904997  50.9559988   1.2271526  68.6702278  50.5772872
   1.0450012  71.5764997  47.5309988   1.9910012  71.4324997  47.5119988
   0.9330012  72.3604997  48.0679988   1.1592727  71.6628046  47.6010072
  19.2430012  72.2424997  53.2129988  19.1940012  71.2874997  53.1759988
  18.4160012  72.5104997  53.6139988  19.1244940  72.1478998  53.2621375
  10.2220012  71.8164997  52.0889988  10.3090012  72.6424997  52.5639988
   9.3580012  71.4864997  52.3379988  10.1171964  71.8849878  52.1876549
  10.6360012  75.5884997  41.8949988  10.5610012  75.4674997  40.9489988
  10.6690012  76.5384997  42.0139988  10.6301848  75.7002500  41.7814834
   4.2890012  74.3774997  43.6759988   4.4420012  74.0294997  44.5549988
   3.4390012  74.0214997  43.4209988   4.1948962  74.2816650  43.7618340
  13.7380012  74.7424997  38.8969988  14.1130012  73.9984997  38.4269988
  13.7420012  74.4724997  39.8159988  13.7898915  74.6041486  38.9567824
  13.4070012  74.6684997  41.6469988  12.4710012  74.7684997  41.8249988
  13.6870012  73.9594997  42.2249988  13.3168255  74.5862711  41.7495391
  16.3950012  63.7354997  53.6929988  15.9880012  64.2164997  52.9719988
  16.4360012  62.8304997  53.3849988  16.3448437  63.6789374  53.5526683
   3.5440012  70.1194997  51.6899988   3.7600012  69.7584997  52.5489988
   2.6890012  69.7454997  51.4799988   3.4579292  70.0194111  51.7793386
   6.1630012  58.5894997  47.6849988   5.3010012  58.5024997  47.2779988
   6.1400012  59.4454997  48.1129988   6.0420330  58.6932765  47.6871863
  10.8260012  58.3114997  51.0599988  11.2460012  57.8964997  51.8129988
   9.8930012  58.1334997  51.1769988  10.7573644  58.2305900  51.1789539
  14.1520012  62.0674997  51.9129988  13.6380012  61.9414997  52.7109988
  13.9970012  62.9794997  51.6689988  14.0606852  62.1736132  51.9892158
  14.9150012  66.9284997  37.6749988  14.9570012  66.7054997  36.7449988
  15.7640012  67.3274997  37.8649988  15.0355396  66.9519155  37.5733627
  10.4870012  60.8044997  38.3449988  10.2340012  60.8234997  39.2679988
  10.2310012  59.9324997  38.0439988  10.4177790  60.6892437  38.4306263
   6.2540012  63.5554997  48.7799988   5.6120012  63.5144997  49.4889988
   6.2910012  64.4814997  48.5429988   6.1711324  63.6751559  48.8449824
   6.2510012  63.7764997  43.6919988   5.3580012  63.4354997  43.6339988
   6.7010012  63.3994997  42.9369988   6.1897305  63.6788484  43.5819177
  11.7860012  64.1924997  42.5089988  11.3770012  65.0074997  42.2179988
  12.5070012  64.0524997  41.8949988  11.8274537  64.2852018  42.3861342
  10.8880012  64.3674997  53.9969988  10.3260012  63.6634997  54.3179988
  11.7150012  64.2474997  54.4649988  10.9227095  64.2547883  54.1042330
  12.7910012  63.6384997  45.3229988  12.5960012  64.2434997  44.6079988
  12.9720012  62.8044997  44.8889988  12.7887614  63.6086300  45.1664405
   4.0040012  63.8754997  50.6469988   3.9660012  64.2754997  51.5159988
   3.5130012  63.0584997  50.7379988   3.9324684  63.8198069  50.7781059
   7.3700012  61.2494997  37.4459988   6.9390012  60.8044997  38.1759988
   6.6520012  61.6214997  36.9339988   7.2139438  61.2388940  37.4766799
   0.6120012  60.9914997  44.4979988   1.2430012  60.9624997  45.2169988
   1.0610012  60.5664997  43.7679988   0.7590774  60.9300492  44.4976553
   1.8860012  61.7374997  39.9219988   2.3600012  62.3284997  39.3369988
   1.1690012  62.2684997  40.2689988   1.8539341  61.8900867  39.8888836
  12.0550012  65.2764997  49.9949988  12.3780012  64.6454997  49.3519988
  11.6150012  64.7414997  50.6549988  12.0396895  65.1178441  49.9962850
   8.8320012  61.2034997  44.7789988   7.9210012  61.2604997  45.0669988
   9.3380012  61.1434997  45.5889988   8.7755413  61.2031985  44.9280622
   3.6610012  62.8324997  43.6049988   2.7710012  62.9324997  43.2649988
   3.9570012  61.9904997  43.2589988   3.5792823  62.7323545  43.5117213
   7.3140012  62.8324997  41.2619988   8.2450012  62.9614997  41.4399988
   7.0990012  63.5024997  40.6119988   7.4124247  62.9406565  41.1985747
  13.2370012  60.4384997  48.0429988  12.5610012  60.5694997  48.7069988
  12.7520012  60.2834997  47.2329988  13.0787145  60.4354905  48.0244517
   5.9880012  64.0274997  38.8289988   5.4450012  63.6474997  38.1369988
   6.8210012  64.2214997  38.3999988   6.0264399  64.0018124  38.6764526
  16.5250012  76.1104997  54.3199988  16.7250012  76.5344997  53.4849988
  17.1800012  76.4534997  54.9269988  16.6410051  76.2149648  54.2877836
   4.1230012  68.5844997  53.9279988   4.8550012  68.8384997  54.4889988
   3.3430012  68.7884997  54.4429988   4.1178232  68.6469177  54.0745760
  10.1520012  63.9914997  46.6659988  10.7170012  63.4444997  46.1189988
  10.0050012  63.4694997  47.4539988  10.2092918  63.8462024  46.6978454
   5.1540012  60.1274997  43.0839988   4.8370012  59.2254997  43.0489988
   5.9360012  60.1294997  42.5309988   5.2162284  60.0041628  43.0044783
   8.7790012  62.3794997  49.0799988   7.9430012  62.8334997  49.1899988
   9.3030012  62.6554997  49.8319988   8.7354414  62.4789376  49.1967136
   9.3230012  68.5924997  40.7639988   8.5780012  68.0854997  40.4419988
   9.1890012  68.6414997  41.7109988   9.2028776  68.5296940  40.8478647
  16.4730012  67.7254997  49.5509988  17.1150012  68.1824997  49.0069988
  15.6430012  67.8384997  49.0879988  16.4485963  67.8032704  49.4140177
  13.2210012  61.4064997  38.9639988  12.2820012  61.5184997  38.8119988
  13.5180012  62.2634997  39.2699988  13.1327666  61.5376443  38.9845768
  10.8420012  68.7764997  52.0009988  10.4970012  68.3954997  52.8079988
  10.6420012  69.7104997  52.0729988  10.7678061  68.8505228  52.1210961
  13.9390012  63.2734997  40.6239988  14.8310012  63.1364997  40.9429988
  13.9960012  64.0644997  40.0879988  14.0686285  63.3616660  40.5951690
   4.4480012  67.8874997  46.5339988   5.1930012  67.8854997  45.9329988
   4.5260012  67.0644997  47.0159988   4.5605518  67.7759315  46.5168929
  11.4490012  70.0514997  39.7899988  11.1530012  70.8774997  40.1709988
  10.7460012  69.4314997  39.9859988  11.3134914  70.0808199  39.8686443
   1.4560012  66.3484997  51.8489988   1.6790012  65.9304997  52.6809988
   0.8540012  65.7354997  51.4259988   1.4051759  66.2084668  51.9057022
   8.4720012  65.8654997  54.0619988   8.1760012  65.6994997  53.1669988
   9.4040012  65.6454997  54.0509988   8.5574166  65.8130640  53.9380536
  13.0930012  71.2384997  51.9519988  12.1920012  71.4214997  51.6839988
  13.1270012  71.4974997  52.8729988  12.9743041  71.2985512  52.0398197
  18.8240012  63.4834997  40.3189988  18.2700012  63.0874997  39.6469988
  18.9240012  64.3934997  40.0409988  18.7617059  63.5523586  40.1894401
  18.7870012  69.2834997  53.1559988  17.9360012  69.5214997  52.7889988
  19.3780012  69.2664997  52.4029988  18.7502487  69.3138258  53.0038893
  17.1190012  72.2694997  40.7839988  16.7460012  71.4434997  41.0929988
  17.3970012  72.0864997  39.8869988  17.1055630  72.1317303  40.7049626
  14.2800012  67.0774997  47.8049988  13.3510012  66.8454997  47.7779988
  14.7310012  66.3004997  47.4749988  14.2139216  66.9407238  47.7566917
   6.8230012  71.4054997  43.9379988   7.3500012  72.1784997  43.7379988
   5.9430012  71.6304997  43.6369988   6.7761773  71.5418005  43.8699010
   2.5780012  66.2674997  38.5249988   3.1940012  66.8944997  38.9049988
   1.7160012  66.5834997  38.7969988   2.5457698  66.3959430  38.6137183
   8.2500012  69.0684997  43.5149988   8.0090012  69.9934997  43.5559988
   7.5090012  68.6094997  43.9109988   8.1168409  69.1331421  43.5741377
   8.7650012  73.2174997  49.8299988   9.1270012  74.0724997  49.5959988
   9.2960012  72.9254997  50.5699988   8.8864473  73.2951060  49.8980855
   6.9330012  74.0904997  43.0599988   5.9830012  74.1954997  43.1109988
   7.2850012  74.9104997  43.4049988   6.8504203  74.2158314  43.1136650
  12.3090012  69.3164997  49.5299988  11.8830012  69.0894997  50.3569988
  12.8890012  68.5784997  49.3479988  12.3291868  69.1855299  49.6185830
  14.5120012  70.2454997  38.6039988  14.8650012  69.8654997  39.4089988
  13.5630012  70.1524997  38.6909988  14.4320441  70.1809596  38.7258559
  14.9670012  73.8684997  51.9999988  14.3660012  73.3134997  51.5039988
  15.2490012  74.5354997  51.3739988  14.9228519  73.8826841  51.8474952
  19.0150012  74.7254997  38.8049988  19.7590012  75.3114997  38.6649988
  18.3210012  75.2934997  39.1389988  19.0230292  74.8825582  38.8309961
   3.0900012  61.1014997  51.4069988   2.1970012  61.4404997  51.3389988
   2.9910012  60.2464997  51.8249988   2.9544164  61.0322588  51.4542235
  15.3780012  68.9184997  40.8309988  15.1000012  68.1904997  41.3869988
  16.3050012  69.0374997  41.0359988  15.4653124  68.8348802  40.9348845
   2.7410012  72.9064997  49.8419988   2.9580012  71.9744997  49.8109988
   2.9870012  73.1804997  50.7249988   2.8039549  72.8160636  49.9571763
   8.6030012  71.3574997  37.0509988   8.8420012  70.6094997  36.5039988
   8.3340012  70.9694997  37.8839988   8.5993675  71.2026638  37.0886865
   7.5400012  70.9274997  39.5079988   7.6860012  70.4074997  40.2979988
   7.5370012  71.8344997  39.8139988   7.5595989  70.9788853  39.6576088
   3.9930012  68.1804997  40.0179988   3.3070012  68.5324997  40.5849988
   4.5150012  68.9434997  39.7709988   3.9696852  68.3318578  40.0622118
  11.8240012  60.8424997  50.2969988  12.5230012  60.9164997  50.9469988
  11.4430012  59.9784997  50.4509988  11.8681767  60.7357624  50.4068322
  12.6090012  60.4944997  41.3939988  12.8290012  60.9664997  40.5909988
  13.1670012  60.8894997  42.0639988  12.7144968  60.6124285  41.3747331
  10.2770012  72.6254997  40.2569988   9.4610012  73.1224997  40.3089988
  10.8070012  73.1004997  39.6169988  10.2369161  72.7577722  40.1775956
   9.8090012  62.2224997  42.2289988  10.6210012  62.7274997  42.2749988
   9.5640012  62.0774997  43.1429988   9.8870520  62.2720375  42.3588517
  10.3440012  63.2084997  51.4139988  10.4630012  63.7824997  52.1709988
  11.0000012  62.5204997  51.5279988  10.4489757  63.1941079  51.5330825
  10.6920012  59.3034997  43.1669988  10.3460012  59.9214997  43.8119988
  11.3510012  59.8044997  42.6859988  10.7337826  59.4555802  43.1900971
   7.6160012  73.6694997  40.2389988   7.7760012  74.4684997  39.7379988
   7.4180012  73.9754997  41.1239988   7.6111649  73.8204469  40.2899815
   6.3500012  60.3664997  39.8539988   6.2670012  61.2554997  40.2009988
   7.2400012  60.1014997  40.0859988   6.4589469  60.4521430  39.9327626
  16.5490012  61.1154997  52.2489988  15.6320012  61.3784997  52.1609988
  16.8840012  61.1124997  51.3519988  16.4689900  61.1510224  52.1157919
  15.1510012  64.8664997  46.3439988  14.3530012  64.4514997  46.0159988
  15.5960012  64.1754997  46.8349988  15.1019885  64.7163543  46.3654889
   4.6090012  70.7944997  38.9149988   5.2010012  71.4934997  39.1909988
   5.0680012  70.3614997  38.1949988   4.7521142  70.8317049  38.8554830
   2.9250012  63.4584997  38.0309988   2.8800012  64.3974997  38.2089988
   2.0370012  63.2224997  37.7609988   2.7988574  63.5551892  38.0188912
  16.2370012  74.1224997  47.9669988  16.0820012  74.8004997  47.3099988
  17.1700012  74.1944997  48.1699988  16.3418500  74.2250170  47.9045119
   3.7330012  58.2404997  46.7039988   3.5040012  58.2994997  45.7759988
   3.2900012  57.4484997  47.0099988   3.6418530  58.1415753  46.6184786
   2.6630012  72.1804997  42.8639988   1.8310012  72.6534997  42.8919988
   3.2090012  72.6904997  42.2659988   2.6229739  72.3141871  42.7869716
   1.9510012  74.7934997  54.1939988   2.4920012  74.5764997  54.9539988
   1.4700012  73.9874997  54.0049988   1.9599345  74.6549514  54.2723076
   6.5490012  73.7124997  55.8149988   7.3160012  73.2534997  56.1559988
   6.5270012  73.4864997  54.8849988   6.6511434  73.6190409  55.7360043
  10.6410012  73.2204997  37.1899988   9.9970012  72.5894997  37.5109988
  11.4030012  72.6894997  36.9579988  10.6558077  73.0622920  37.2026011
  13.1260012  72.0924997  54.5439988  12.7750012  71.2364997  54.7869988
  13.8520012  72.2354997  55.1509988  13.1760769  71.9945636  54.6593619
  15.2450012  73.0374997  37.4239988  15.5280012  72.2434997  37.8759988
  15.9850012  73.2704997  36.8629988  15.3837486  72.9602803  37.4100698
   1.8580012  68.6034997  55.1489988   2.0020012  67.7014997  54.8619988
   1.0860012  68.8894997  54.6609988   1.7733322  68.5188261  55.0437881
   6.2000012  68.9474997  37.2809988   6.2640012  68.1534997  37.8119988
   6.8530012  68.8284997  36.5909988   6.2970241  68.8227148  37.2604317
   8.5140012  68.5734997  54.5809988   8.1850012  68.8444997  53.7239988
   8.6660012  67.6324997  54.4939988   8.4894809  68.4833862  54.4518244
  11.5520012  69.9944997  37.0169988  11.2830012  70.1744997  37.9179988
  11.3460012  69.0684997  36.8859988  11.4873825  69.8940152  37.1225214
  14.2480012  68.4894997  51.9649988  14.9940012  69.0774997  51.8449988
  13.4910012  69.0714997  52.0279988  14.2477554  68.6487011  51.9570907
   2.6910012  65.8034997  54.5689988   3.0990012  64.9464997  54.4479988
   2.4310012  65.8184997  55.4899988   2.7117568  65.6880807  54.6769588
   7.3490012  66.9194997  39.5869988   6.8890012  66.4354997  40.2729988
   7.6040012  66.2514997  38.9509988   7.3204902  66.7628731  39.5949334
   6.6380012  64.8124997  51.9429988   6.0200012  65.4874997  52.2229988
   6.9820012  65.1334997  51.1099988   6.5999615  64.9482721  51.8686581
   8.4200012  65.1624997  37.8489988   8.2400012  65.0084997  36.9219988
   9.3700012  65.2704997  37.8939988   8.5237776  65.1560175  37.7281843
  11.6580012  67.2844997  55.2199988  12.6110012  67.3674997  55.1929988
  11.4970012  66.5724997  55.8399988  11.7666426  67.1996746  55.3000579
  17.8100012  67.5174997  37.2949988  17.5360012  67.0924997  36.4819988
  17.8490012  68.4484997  37.0779988  17.7777699  67.5852484  37.1543610
   6.9770012  62.1674997  53.0249988   7.1270012  61.4384997  52.4229988
   6.9800012  62.9444997  52.4659988   6.9979302  62.1727851  52.8670692
   7.3900012  60.5374997  50.5179988   7.9260012  60.9884997  49.8659988
   6.5380012  60.4294997  50.0949988   7.3482178  60.5846390  50.3715756
   8.9720012  65.9764997  50.7569988   9.7220012  65.8204997  50.1839988
   8.6330012  66.8284997  50.4819988   9.0288921  66.0702968  50.6413561
  13.3870012  63.7914997  55.7859988  13.5800012  62.8604997  55.6739988
  14.2450012  64.2164997  55.7759988  13.5293020  63.7216389  55.7693361
  14.7040012  66.5804997  53.8629988  14.4230012  67.2894997  53.2859988
  15.6470012  66.5074997  53.7119988  14.7929027  66.6677646  53.7635551
   5.4560012  63.3654997  54.9369988   4.6890012  62.8334997  54.7269988
   6.1350012  63.0554997  54.3369988   5.4427022  63.2507506  54.8271648
   8.1960012  57.9934997  50.9489988   8.0970012  58.9404997  50.8439988
   7.4530012  57.6214997  50.4739988   8.0820564  58.0725902  50.8704560
   9.4600012  62.3154997  54.5129988   9.2240012  62.0954997  55.4149988
   8.6760012  62.1084997  54.0029988   9.3218628  62.2574760  54.5673932
  12.1750012  61.4424997  53.5889988  11.2280012  61.4744997  53.7209988
  12.4880012  60.8174997  54.2419988  12.0875475  61.3623207  53.6954455
  13.8090012  60.0764997  55.5939988  13.7130012  59.1244997  55.5879988
  13.4880012  60.3454997  56.4539988  13.7524070  59.9824035  55.7095441
   3.6360012  61.2864997  54.6409988   3.8480012  60.5794997  54.0309988
   3.5250012  60.8484997  55.4849988   3.6499721  61.1307084  54.6716843
   8.4170012  57.2874997  53.6209988   9.1290012  56.6474997  53.6069988
   8.3160012  57.5544997  52.7069988   8.5007939  57.2359938  53.4955650
   8.7710012  58.9704997  55.6739988   8.6390012  58.4944997  54.8539988
   8.1720012  59.7144997  55.6189988   8.6719071  59.0059618  55.5542886
   8.3170012  75.8534997  38.8509988   9.2500012  76.0114997  38.9939988
   8.0530012  76.5284997  38.2259988   8.4089510  75.9663611  38.7860741
   1.8860012  70.4894997  38.3329988   2.8000012  70.5684997  38.6069988
   1.8930012  69.8024997  37.6669988   2.0121131  70.4073961  38.2804393
   0.5350012  75.8824997  43.4109988  -0.1119988  75.4204997  42.8779988
   0.8890012  75.2104997  43.9929988   0.4943849  75.7284723  43.4167959
   1.4050012  73.9634997  45.2149988   1.0700012  73.0834997  45.3869988
   1.6270012  74.3084997  46.0799988   1.3891783  73.8897501  45.3554208
  18.9530012  74.7724997  48.1959988  18.9320012  74.9574997  49.1349988
  19.6440012  75.3414997  47.8549988  19.0434618  74.8746606  48.2783864
  18.5170012  74.3404997  51.1179988  18.0290012  73.6044997  50.7469988
  19.0660012  73.9464997  51.7959988  18.5244872  74.1866249  51.1589160
  16.9670012  70.1294997  55.7559988  16.1010012  70.0244997  56.1499988
  17.3440012  70.8884997  56.2019988  16.8993308  70.2176900  55.8702393
  18.2680012  68.3864997  41.2699988  19.1180012  68.8074997  41.3969988
  18.2740012  67.6464997  41.8769988  18.3851372  68.3440803  41.3694344
  18.6630012  66.4394997  43.0939988  17.9360012  65.9604997  43.4909988
  19.2440012  66.6454997  43.8259988  18.6419375  66.4017090  43.2474129
  18.4220012  69.2244997  48.0409988  19.2550012  68.8464997  47.7609988
  18.5340012  70.1674997  47.9219988  18.5512647  69.3002218  47.9865487
  16.9080012  72.1024997  50.3479988  16.2610012  72.4274997  50.9739988
  16.3910012  71.6624997  49.6739988  16.7494029  72.0875004  50.3425827
  18.9310012  66.3404997  39.4849988  18.4090012  66.6974997  38.7659988
  18.8980012  67.0154997  40.1629988  18.8551634  66.4805413  39.4783145
  17.2800012  63.5804997  38.0359988  17.3760012  64.2474997  37.3549988
  17.1400012  62.7644997  37.5539988  17.2742135  63.5614500  37.8778491
  16.4490012  64.9604997  43.6569988  16.2990012  64.0154997  43.6359988
  16.0960012  65.2414997  44.4999988  16.3806625  64.8690441  43.7682346
   1.4850012  67.0384997  47.6669988   1.6690012  66.9564997  46.7309988
   2.3340012  66.9144997  48.0909988   1.6250139  67.0105003  47.5961455
  17.3060012  66.9304997  53.2949988  17.8890012  66.1964997  53.4869988
  17.8700012  67.7024997  53.3419988  17.4619769  66.9344227  53.3276159
  18.8020012  64.8334997  53.9799988  17.9390012  64.4544997  53.8139988
  19.4070012  64.0944997  53.9059988  18.7655979  64.6818023  53.9472817
  16.5270012  60.9884997  37.1529988  17.1380012  60.6174997  37.7899988
  15.6910012  60.5674997  37.3489988  16.4975032  60.8807554  37.2667035
  16.1600012  62.5434997  42.1189988  16.4400012  61.6364997  42.2429988
  16.9190012  62.9774997  41.7299988  16.3009277  62.4780942  42.0833682
  16.7720012  63.1244997  47.5549988  17.7050012  63.3364997  47.5209988
  16.5370012  63.2264997  48.4769988  16.8678036  63.1672769  47.6749976
  16.8010012  63.8614997  50.3309988  15.9580012  64.1294997  50.6969988
  17.2430012  64.6834997  50.1199988  16.7454158  64.0093291  50.3525491
   1.0820012  62.3094997  53.8079988   2.0020012  62.1874997  54.0439988
   0.6330012  61.5594997  54.1969988   1.1471580  62.1913727  53.8929006
  19.0840012  57.8414997  55.6839988  19.4340012  57.1874997  55.0789988
  19.2310012  58.6784997  55.2449988  19.1518419  57.8651591  55.5417118
  16.7730012  59.8064997  42.1669988  16.9560012  59.3574997  42.9929988
  16.1740012  59.2214997  41.7039988  16.7170202  59.6659975  42.2173275
   2.3030012  60.6214997  46.6989988   2.7490012  59.8294997  47.0009988
   2.7700012  61.3374997  47.1299988   2.4270172  60.6100624  46.7984820
   0.6070012  63.6204997  47.7679988   1.0990012  63.3994997  46.9769988
   0.9700012  64.4614997  48.0489988   0.7233126  63.7038357  47.6977531
  18.6040012  59.9504997  54.0339988  17.6860012  60.2214997  53.9979988
  18.7270012  59.4154997  53.2489988  18.4951066  59.9152892  53.9230487
  18.6400012  59.8734997  38.6949988  19.0520012  59.1524997  38.2199988
  19.3220012  60.5434997  38.7539988  18.7885885  59.8652368  38.6378915
   0.9210012  59.8784997  41.8219988  -0.0039988  60.0874997  41.6929988
   1.3750012  60.3624997  41.1329988   0.8557368  59.9725993  41.7111226
  15.6920012  74.8624997  43.7679988  16.3440012  74.5154997  43.1599988
  16.2020012  75.3514997  44.4139988  15.8502637  74.8810597  43.7720236
   0.8850012  58.6164997  50.1669988   0.2200012  58.3704997  50.8099988
   0.4420012  59.2384997  49.5889988   0.7340956  58.6668632  50.1769352
   3.0770012  71.7914997  54.3109988   2.2560012  71.9664997  53.8509988
   2.8240012  71.7184997  55.2319988   2.9306164  71.8055622  54.3724923
   6.0310012  72.7664997  50.5699988   5.6060012  73.5754997  50.2869988
   6.9350012  72.8514997  50.2679988   6.0950271  72.8888469  50.4903776
  10.3420012  74.1654997  53.5289988  10.5270012  73.8314997  54.4069988
  11.1880012  74.4744997  53.2069988  10.4817539  74.1616047  53.6055605
  12.6870012  75.4514997  52.7729988  13.3640012  74.8184997  52.5329988
  13.0090012  75.8524997  53.5799988  12.8231637  75.4191154  52.8492793
  17.6040012  58.0404997  51.8529988  16.7920012  58.3654997  51.4649988
  17.8370012  57.2804997  51.3199988  17.5243423  57.9822436  51.7278253
   3.4330012  76.0224997  50.6169988   2.7120012  76.4624997  50.1659988
   3.0670012  75.7714997  51.4659988   3.2849804  76.0487698  50.6699840
   5.9000012  75.6224997  49.6469988   5.0350012  75.6944997  50.0509988
   5.8450012  76.1694997  48.8629988   5.7742085  75.7062685  49.5963362
  10.6100012  75.5104997  48.8219988  10.1540012  76.0394997  48.1679988
  10.7730012  76.1134997  49.5479988  10.5695585  75.6644468  48.8305062
  12.9380012  74.3884997  49.7669988  12.0330012  74.5534997  49.5019988
  13.3670012  75.2414997  49.7019988  12.8720799  74.5264483  49.7219182
  15.5420012  75.9584997  50.0619988  15.3600012  76.8744997  49.8519988
  15.7190012  75.5484997  49.2159988  15.5410210  76.0284822  49.9187885
   2.8470012  74.6454997  47.5269988   2.8290012  74.2204997  48.3849988
   3.6520012  74.3274997  47.1189988   2.9533875  74.5443812  47.5891655
   4.9890012  73.3554997  46.1819988   4.7700012  72.4394997  46.3519988
   5.8130012  73.4954997  46.6479988   5.0704420  73.2490520  46.2682774
   7.5260012  73.8254997  47.0309988   7.7390012  72.9374997  46.7439988
   7.5900012  73.7914997  47.9849988   7.5638232  73.6993102  47.1207397
  11.0340012  59.4894997  46.1749988  10.3600012  58.8604997  46.4309988
  11.5980012  59.0054997  45.5719988  11.0179230  59.3378744  46.1285340
  16.1770012  57.5974997  46.2879988  16.7810012  58.1444997  45.7859988
  15.3070012  57.9164997  46.0479988  16.1421241  57.7155806  46.1867654
  17.9040012  58.7354997  44.6209988  18.5160012  58.2214997  44.0949988
  18.2860012  59.6134997  44.6449988  18.0394540  58.7837140  44.5521830
   3.3610012  58.1234997  43.9969988   2.5840012  57.8894997  43.4899988
   3.8910012  57.3264997  44.0059988   3.3262330  57.9836988  43.9287742
   2.1970012  57.9214997  39.8009988   2.6360012  58.5324997  39.2089988
   1.5640012  58.4594997  40.2749988   2.1714514  58.0779257  39.7840930
   7.9400012  58.0504997  43.8109988   8.8150012  58.4384997  43.7809988
   7.8040012  57.8354997  44.7329988   8.0413695  58.0745184  43.9316440
  13.4970012  58.0804997  45.4599988  13.5730012  58.1754997  44.5099988
  13.2220012  57.1724997  45.5889988  13.4702321  57.9707867  45.3475079
  14.8500012  58.1064997  41.1519988  14.1480012  58.7214997  40.9429988
  14.4060012  57.2684997  41.2829988  14.6936330  58.0775783  41.1410328
   2.0980012  73.8694997  40.6989988   1.4130012  73.8314997  40.0309988
   2.1020012  74.7824997  40.9869988   2.0048193  73.9877016  40.6465284
   4.0580012  59.8374997  38.2429988   4.5500012  59.2074997  37.7159988
   4.6820012  60.1334997  38.9069988   4.2095446  59.7913199  38.2605980
   9.0840012  60.1304997  40.6999988   9.2620012  59.4844997  41.3829988
   9.0310012  60.9644997  41.1679988   9.1011829  60.1547985  40.8565940
  10.9630012  75.0794997  39.0959988  11.8290012  75.4454997  38.9179988
  10.7160012  74.6394997  38.2819988  11.0482392  75.0701756  38.9616289
  17.6720012  74.6424997  41.7749988  17.4770012  73.8944997  41.2099988
  17.6330012  75.4004997  41.1919988  17.6400380  74.6426099  41.6188384
   3.3190012  58.6374997  53.5149988   2.9530012  57.8724997  53.9579988
   4.2320012  58.6664997  53.8019988   3.3922790  58.5367224  53.6144070
   5.2920012  57.9884997  55.0509988   6.1900012  57.7144997  54.8659988
   4.9050012  57.2454997  55.5149988   5.3626612  57.8505914  55.0883643
   3.9160012  74.7894997  37.7239988   3.6490012  75.0764997  38.5969988
   4.6880012  74.2434997  37.8759988   3.9837488  74.7550294  37.8641050
  13.7130012  57.3204997  55.2329988  13.7900012  56.8944997  56.0869988
  14.6070012  57.3344997  54.8899988  13.8443428  57.2640879  55.3035310
  16.8890012  73.3934997  53.9249988  16.1070012  73.2074997  53.4059988
  16.8170012  74.3224997  54.1429988  16.7721777  73.4936492  53.8834048
  31.2950012  67.2794997  43.9559988  31.3840012  68.2234997  43.8239988
  30.6570012  67.0044997  43.2979988  31.2209081  67.3714830  43.8489614
  30.2280012  66.5344997  47.3749988  30.1900012  65.8884997  48.0799988
  29.9060012  66.0684997  46.6039988  30.1792333  66.3829408  47.3672978
  22.5970012  66.1494997  48.9679988  22.6380012  65.5234997  49.6909988
  23.3000012  66.7734997  49.1499988  22.6976363  66.1481196  49.0916044
  33.9340012  69.4734997  45.6759988  33.4940012  68.7534997  46.1269988
  33.9210012  70.1944997  46.3059988  33.8720226  69.4723731  45.8228494
  23.5200012  70.5994997  47.5029988  23.1510012  69.7974997  47.1329988
  24.4610012  70.4304997  47.5489988  23.5967289  70.4670153  47.4586316
  20.1300012  64.2594997  42.8959988  19.6830012  65.1054997  42.8769988
  19.5690012  63.6794997  42.3799988  19.9929900  64.2969916  42.8236801
  20.8410012  66.4214997  45.0219988  21.0540012  65.6514997  45.5489988
  21.5790012  66.5104997  44.4179988  20.9698496  66.3281394  45.0125300
  31.0460012  74.5784997  45.8889988  31.6660012  73.9014997  45.6149988
  30.8380012  74.3604997  46.7969988  31.1026904  74.4563870  45.9743365
  28.6180012  68.9674997  47.7809988  28.9220012  68.2814997  47.1859988
  29.3390012  69.0854997  48.3989988  28.7570671  68.8896305  47.7831816
  37.2810012  60.5684997  48.6419988  37.3300012  61.1784997  49.3779988
  37.7060012  61.0294997  47.9189988  37.3451824  60.7143741  48.6450205
  31.7590012  63.3614997  48.1089988  31.9010012  62.4154997  48.1289988
  31.6520012  63.5684997  47.1799988  31.7639864  63.2599534  47.9862339
  24.9130012  61.4624997  45.3809988  24.9570012  62.3224997  44.9629988
  24.4560012  60.9104997  44.7469988  24.8572185  61.5055799  45.2380299
  32.6360012  61.5934997  43.7819988  33.2820012  61.2644997  44.4069988
  33.1460012  62.1114997  43.1589988  32.7934264  61.6184611  43.7833862
  21.5340012  63.8594997  46.1429988  22.1870012  63.3094997  46.5749988
  21.5580012  63.5854997  45.2259988  21.6266683  63.7471466  46.0782123
  26.6900012  65.4094997  45.3579988  27.3060012  64.8834997  45.8679988
  26.1040012  64.7694997  44.9549988  26.6950810  65.2509208  45.3733173
  37.6720012  62.0464997  50.8779988  36.9840012  62.7044997  50.7819988
  37.6880012  61.8494997  51.8139988  37.5798525  62.1100462  50.9914808
  23.7240012  60.3804997  49.4549988  23.5050012  60.9104997  48.6889988
  23.0560012  60.6074997  50.1019988  23.6037600  60.4836906  49.4376379
  31.0930012  69.8804997  42.9989988  30.7970012  69.5584997  42.1479988
  30.7680012  70.7804997  43.0399988  31.0086371  69.9580215  42.8881801
  26.2930012  68.0564997  49.7419988  25.5530012  68.6544997  49.8459988
  27.0070012  68.6104997  49.4269988  26.2882237  68.2132831  49.7136465
  34.4000012  60.8844997  45.7619988  34.1840012  60.1184997  46.2949988
  35.0550012  61.3564997  46.2749988  34.4590632  60.8435889  45.9042861
  23.3170012  62.2724997  47.4069988  23.9310012  62.9054997  47.7809988
  23.8290012  61.8004997  46.7509988  23.4702296  62.2952370  47.3694252
  24.7000012  70.0204997  50.5299988  24.6950012  70.9004997  50.1519988
  23.8470012  69.9374997  50.9549988  24.5839464  70.1296117  50.5357907
  20.8210012  69.6914997  41.3119988  20.5490012  69.9204997  40.4229988
  20.8670012  70.5294997  41.7719988  20.7900094  69.8361213  41.2525697
  34.4460012  71.3134997  48.0239988  33.5050012  71.3714997  48.1859988
  34.7230012  72.2194997  47.8869988  34.3544679  71.4439443  48.0276815
  34.7470012  59.5994997  49.4419988  34.0110012  60.2104997  49.4039988
  35.4300012  60.0144997  48.9149988  34.7386541  59.7391374  49.3655832
  27.7500012  57.6864997  46.9079988  27.6330012  56.7374997  46.8529988
  26.8950012  58.0184997  47.1809988  27.6183733  57.6015409  46.9373897
  32.6980012  73.0944997  44.6499988  33.1240012  72.3874997  44.1649988
  33.0150012  73.8954997  44.2329988  32.7991019  73.1060994  44.5273130
  33.8580012  70.9954997  43.1579988  33.6000012  70.3054997  42.5469988
  33.9290012  70.5524997  44.0039988  33.8322856  70.8412124  43.1886885
  35.5440012  69.5614997  51.6359988  35.6840012  68.9704997  50.8959988
  35.7110012  70.4344997  51.2789988  35.5856778  69.5986426  51.4866965
  30.0170012  66.5234997  41.4079988  29.3050012  67.0584997  41.0559988
  30.7080012  66.5794997  40.7479988  30.0130132  66.6042543  41.2706289
  30.0700012  64.9814997  38.4469988  30.7710012  65.0034997  39.0979988
  30.3730012  64.3534997  37.7909988  30.2067830  64.8996566  38.4473711
  37.3860012  65.9014997  49.7019988  36.7330012  66.5964997  49.7909988
  37.8510012  66.1114997  48.8919988  37.3595390  66.0249425  49.6046883
  33.4220012  66.7334997  42.3599988  32.6900012  66.9614997  42.9329988
  33.8700012  66.0194997  42.8149988  33.3823095  66.6682571  42.4999119
  33.3200012  64.9074997  51.4269988  33.4000012  65.6704997  51.9989988
  32.7180012  65.1864997  50.7369988  33.2495756  65.0497134  51.4120589
  25.0680012  67.3634997  44.2419988  24.7370012  66.9934997  43.4239988
  25.6560012  66.6934997  44.5889988  25.1021873  67.2221156  44.1768102
  26.4340012  70.7914997  46.9239988  26.3400012  70.2134997  46.1669988
  27.1640012  70.4204997  47.4199988  26.5197981  70.6622390  46.8874165
  25.4340012  66.1324997  47.8759988  26.0000012  66.2534997  47.1129988
  25.7530012  66.7694997  48.5149988  25.5545786  66.2351884  47.8580040
  31.7430012  71.6354997  48.6099988  31.5030012  72.2974997  49.2579988
  31.5450012  70.8014997  49.0349988  31.6833808  71.6133134  48.7561524
  26.3140012  70.5314997  52.5929988  26.0030012  71.3134997  53.0479988
  25.6640012  70.3784997  51.9069988  26.1835558  70.6179105  52.5625871
  32.2930012  65.8954997  40.0449988  32.8730012  66.0454997  40.7919988
  32.7070012  66.3664997  39.3219988  32.4282830  65.9796841  40.0494134
  23.2340012  66.7294997  51.8219988  23.3050012  67.3804997  52.5199988
  22.3440012  66.8324997  51.4869988  23.1233117  66.8325936  51.8722700
  30.0200012  72.6324997  43.4799988  30.4940012  72.9274997  44.2579988
  29.4570012  73.3704997  43.2469988  30.0087653  72.7726932  43.5550136
  24.5540012  72.6034997  53.3559988  24.5610012  72.4674997  52.4089988
  23.6380012  72.4854997  53.6079988  24.4311714  72.5689430  53.2604666
  35.9920012  57.6454997  39.8579988  35.0920012  57.7844997  40.1529988
  36.2440012  58.4764997  39.4559988  35.9028702  57.7769074  39.8440205
  24.0580012  66.4334997  41.8319988  23.7660012  67.2014997  41.3409988
  23.3840012  65.7734997  41.6689988  23.9269081  66.4494406  41.7427340
  37.1810012  72.0114997  38.2339988  37.2550012  72.9504997  38.4049988
  38.0870012  71.7064997  38.1779988  37.3135100  72.0986722  38.2498119
  20.1510012  68.7964997  50.6469988  19.6500012  68.7684997  49.8319988
  20.1560012  67.8904997  50.9559988  20.0831526  68.6702278  50.5772872
  19.9010012  71.5764997  47.5309988  20.8470012  71.4324997  47.5119988
  19.7890012  72.3604997  48.0679988  20.0152727  71.6628046  47.6010072
  38.0990012  72.2424997  53.2129988  38.0500012  71.2874997  53.1759988
  37.2720012  72.5104997  53.6139988  37.9804940  72.1478998  53.2621375
  29.0780012  71.8164997  52.0889988  29.1650012  72.6424997  52.5639988
  28.2140012  71.4864997  52.3379988  28.9731964  71.8849878  52.1876549
  29.4920012  75.5884997  41.8949988  29.4170012  75.4674997  40.9489988
  29.5250012  76.5384997  42.0139988  29.4861848  75.7002500  41.7814834
  23.1450012  74.3774997  43.6759988  23.2980012  74.0294997  44.5549988
  22.2950012  74.0214997  43.4209988  23.0508962  74.2816650  43.7618340
  32.5940012  74.7424997  38.8969988  32.9690012  73.9984997  38.4269988
  32.5980012  74.4724997  39.8159988  32.6458915  74.6041486  38.9567824
  32.2630012  74.6684997  41.6469988  31.3270012  74.7684997  41.8249988
  32.5430012  73.9594997  42.2249988  32.1728255  74.5862711  41.7495391
  35.2510012  63.7354997  53.6929988  34.8440012  64.2164997  52.9719988
  35.2920012  62.8304997  53.3849988  35.2008437  63.6789374  53.5526683
  22.4000012  70.1194997  51.6899988  22.6160012  69.7584997  52.5489988
  21.5450012  69.7454997  51.4799988  22.3139292  70.0194111  51.7793386
  25.0190012  58.5894997  47.6849988  24.1570012  58.5024997  47.2779988
  24.9960012  59.4454997  48.1129988  24.8980330  58.6932765  47.6871863
  29.6820012  58.3114997  51.0599988  30.1020012  57.8964997  51.8129988
  28.7490012  58.1334997  51.1769988  29.6133644  58.2305900  51.1789539
  33.0080012  62.0674997  51.9129988  32.4940012  61.9414997  52.7109988
  32.8530012  62.9794997  51.6689988  32.9166852  62.1736132  51.9892158
  33.7710012  66.9284997  37.6749988  33.8130012  66.7054997  36.7449988
  34.6200012  67.3274997  37.8649988  33.8915396  66.9519155  37.5733627
  29.3430012  60.8044997  38.3449988  29.0900012  60.8234997  39.2679988
  29.0870012  59.9324997  38.0439988  29.2737790  60.6892437  38.4306263
  25.1100012  63.5554997  48.7799988  24.4680012  63.5144997  49.4889988
  25.1470012  64.4814997  48.5429988  25.0271324  63.6751559  48.8449824
  25.1070012  63.7764997  43.6919988  24.2140012  63.4354997  43.6339988
  25.5570012  63.3994997  42.9369988  25.0457305  63.6788484  43.5819177
  30.6420012  64.1924997  42.5089988  30.2330012  65.0074997  42.2179988
  31.3630012  64.0524997  41.8949988  30.6834537  64.2852018  42.3861342
  29.7440012  64.3674997  53.9969988  29.1820012  63.6634997  54.3179988
  30.5710012  64.2474997  54.4649988  29.7787095  64.2547883  54.1042330
  31.6470012  63.6384997  45.3229988  31.4520012  64.2434997  44.6079988
  31.8280012  62.8044997  44.8889988  31.6447614  63.6086300  45.1664405
  22.8600012  63.8754997  50.6469988  22.8220012  64.2754997  51.5159988
  22.3690012  63.0584997  50.7379988  22.7884684  63.8198069  50.7781059
  26.2260012  61.2494997  37.4459988  25.7950012  60.8044997  38.1759988
  25.5080012  61.6214997  36.9339988  26.0699438  61.2388940  37.4766799
  19.4680012  60.9914997  44.4979988  20.0990012  60.9624997  45.2169988
  19.9170012  60.5664997  43.7679988  19.6150774  60.9300492  44.4976553
  20.7420012  61.7374997  39.9219988  21.2160012  62.3284997  39.3369988
  20.0250012  62.2684997  40.2689988  20.7099341  61.8900867  39.8888836
  30.9110012  65.2764997  49.9949988  31.2340012  64.6454997  49.3519988
  30.4710012  64.7414997  50.6549988  30.8956895  65.1178441  49.9962850
  27.6880012  61.2034997  44.7789988  26.7770012  61.2604997  45.0669988
  28.1940012  61.1434997  45.5889988  27.6315413  61.2031985  44.9280622
  22.5170012  62.8324997  43.6049988  21.6270012  62.9324997  43.2649988
  22.8130012  61.9904997  43.2589988  22.4352823  62.7323545  43.5117213
  26.1700012  62.8324997  41.2619988  27.1010012  62.9614997  41.4399988
  25.9550012  63.5024997  40.6119988  26.2684247  62.9406565  41.1985747
  32.0930012  60.4384997  48.0429988  31.4170012  60.5694997  48.7069988
  31.6080012  60.2834997  47.2329988  31.9347145  60.4354905  48.0244517
  24.8440012  64.0274997  38.8289988  24.3010012  63.6474997  38.1369988
  25.6770012  64.2214997  38.3999988  24.8824399  64.0018124  38.6764526
  35.3810012  76.1104997  54.3199988  35.5810012  76.5344997  53.4849988
  36.0360012  76.4534997  54.9269988  35.4970051  76.2149648  54.2877836
  22.9790012  68.5844997  53.9279988  23.7110012  68.8384997  54.4889988
  22.1990012  68.7884997  54.4429988  22.9738232  68.6469177  54.0745760
  29.0080012  63.9914997  46.6659988  29.5730012  63.4444997  46.1189988
  28.8610012  63.4694997  47.4539988  29.0652918  63.8462024  46.6978454
  24.0100012  60.1274997  43.0839988  23.6930012  59.2254997  43.0489988
  24.7920012  60.1294997  42.5309988  24.0722284  60.0041628  43.0044783
  27.6350012  62.3794997  49.0799988  26.7990012  62.8334997  49.1899988
  28.1590012  62.6554997  49.8319988  27.5914414  62.4789376  49.1967136
  28.1790012  68.5924997  40.7639988  27.4340012  68.0854997  40.4419988
  28.0450012  68.6414997  41.7109988  28.0588776  68.5296940  40.8478647
  35.3290012  67.7254997  49.5509988  35.9710012  68.1824997  49.0069988
  34.4990012  67.8384997  49.0879988  35.3045963  67.8032704  49.4140177
  32.0770012  61.4064997  38.9639988  31.1380012  61.5184997  38.8119988
  32.3740012  62.2634997  39.2699988  31.9887666  61.5376443  38.9845768
  29.6980012  68.7764997  52.0009988  29.3530012  68.3954997  52.8079988
  29.4980012  69.7104997  52.0729988  29.6238061  68.8505228  52.1210961
  32.7950012  63.2734997  40.6239988  33.6870012  63.1364997  40.9429988
  32.8520012  64.0644997  40.0879988  32.9246285  63.3616660  40.5951690
  23.3040012  67.8874997  46.5339988  24.0490012  67.8854997  45.9329988
  23.3820012  67.0644997  47.0159988  23.4165518  67.7759315  46.5168929
  30.3050012  70.0514997  39.7899988  30.0090012  70.8774997  40.1709988
  29.6020012  69.4314997  39.9859988  30.1694914  70.0808199  39.8686443
  20.3120012  66.3484997  51.8489988  20.5350012  65.9304997  52.6809988
  19.7100012  65.7354997  51.4259988  20.2611759  66.2084668  51.9057022
  27.3280012  65.8654997  54.0619988  27.0320012  65.6994997  53.1669988
  28.2600012  65.6454997  54.0509988  27.4134166  65.8130640  53.9380536
  31.9490012  71.2384997  51.9519988  31.0480012  71.4214997  51.6839988
  31.9830012  71.4974997  52.8729988  31.8303041  71.2985512  52.0398197
  37.6800012  63.4834997  40.3189988  37.1260012  63.0874997  39.6469988
  37.7800012  64.3934997  40.0409988  37.6177059  63.5523586  40.1894401
  37.6430012  69.2834997  53.1559988  36.7920012  69.5214997  52.7889988
  38.2340012  69.2664997  52.4029988  37.6062487  69.3138258  53.0038893
  35.9750012  72.2694997  40.7839988  35.6020012  71.4434997  41.0929988
  36.2530012  72.0864997  39.8869988  35.9615630  72.1317303  40.7049626
  33.1360012  67.0774997  47.8049988  32.2070012  66.8454997  47.7779988
  33.5870012  66.3004997  47.4749988  33.0699216  66.9407238  47.7566917
  25.6790012  71.4054997  43.9379988  26.2060012  72.1784997  43.7379988
  24.7990012  71.6304997  43.6369988  25.6321773  71.5418005  43.8699010
  21.4340012  66.2674997  38.5249988  22.0500012  66.8944997  38.9049988
  20.5720012  66.5834997  38.7969988  21.4017698  66.3959430  38.6137183
  27.1060012  69.0684997  43.5149988  26.8650012  69.9934997  43.5559988
  26.3650012  68.6094997  43.9109988  26.9728409  69.1331421  43.5741377
  27.6210012  73.2174997  49.8299988  27.9830012  74.0724997  49.5959988
  28.1520012  72.9254997  50.5699988  27.7424473  73.2951060  49.8980855
  25.7890012  74.0904997  43.0599988  24.8390012  74.1954997  43.1109988
  26.1410012  74.9104997  43.4049988  25.7064203  74.2158314  43.1136650
  31.1650012  69.3164997  49.5299988  30.7390012  69.0894997  50.3569988
  31.7450012  68.5784997  49.3479988  31.1851868  69.1855299  49.6185830
  33.3680012  70.2454997  38.6039988  33.7210012  69.8654997  39.4089988
  32.4190012  70.1524997  38.6909988  33.2880441  70.1809596  38.7258559
  33.8230012  73.8684997  51.9999988  33.2220012  73.3134997  51.5039988
  34.1050012  74.5354997  51.3739988  33.7788519  73.8826841  51.8474952
  37.8710012  74.7254997  38.8049988  38.6150012  75.3114997  38.6649988
  37.1770012  75.2934997  39.1389988  37.8790292  74.8825582  38.8309961
  21.9460012  61.1014997  51.4069988  21.0530012  61.4404997  51.3389988
  21.8470012  60.2464997  51.8249988  21.8104164  61.0322588  51.4542235
  34.2340012  68.9184997  40.8309988  33.9560012  68.1904997  41.3869988
  35.1610012  69.0374997  41.0359988  34.3213124  68.8348802  40.9348845
  21.5970012  72.9064997  49.8419988  21.8140012  71.9744997  49.8109988
  21.8430012  73.1804997  50.7249988  21.6599549  72.8160636  49.9571763
  27.4590012  71.3574997  37.0509988  27.6980012  70.6094997  36.5039988
  27.1900012  70.9694997  37.8839988  27.4553675  71.2026638  37.0886865
  26.3960012  70.9274997  39.5079988  26.5420012  70.4074997  40.2979988
  26.3930012  71.8344997  39.8139988  26.4155989  70.9788853  39.6576088
  22.8490012  68.1804997  40.0179988  22.1630012  68.5324997  40.5849988
  23.3710012  68.9434997  39.7709988  22.8256852  68.3318578  40.0622118
  30.6800012  60.8424997  50.2969988  31.3790012  60.9164997  50.9469988
  30.2990012  59.9784997  50.4509988  30.7241767  60.7357624  50.4068322
  31.4650012  60.4944997  41.3939988  31.6850012  60.9664997  40.5909988
  32.0230012  60.8894997  42.0639988  31.5704968  60.6124285  41.3747331
  29.1330012  72.6254997  40.2569988  28.3170012  73.1224997  40.3089988
  29.6630012  73.1004997  39.6169988  29.0929161  72.7577722  40.1775956
  28.6650012  62.2224997  42.2289988  29.4770012  62.7274997  42.2749988
  28.4200012  62.0774997  43.1429988  28.7430520  62.2720375  42.3588517
  29.2000012  63.2084997  51.4139988  29.3190012  63.7824997  52.1709988
  29.8560012  62.5204997  51.5279988  29.3049757  63.1941079  51.5330825
  29.5480012  59.3034997  43.1669988  29.2020012  59.9214997  43.8119988
  30.2070012  59.8044997  42.6859988  29.5897826  59.4555802  43.1900971
  26.4720012  73.6694997  40.2389988  26.6320012  74.4684997  39.7379988
  26.2740012  73.9754997  41.1239988  26.4671649  73.8204469  40.2899815
  25.2060012  60.3664997  39.8539988  25.1230012  61.2554997  40.2009988
  26.0960012  60.1014997  40.0859988  25.3149469  60.4521430  39.9327626
  35.4050012  61.1154997  52.2489988  34.4880012  61.3784997  52.1609988
  35.7400012  61.1124997  51.3519988  35.3249900  61.1510224  52.1157919
  34.0070012  64.8664997  46.3439988  33.2090012  64.4514997  46.0159988
  34.4520012  64.1754997  46.8349988  33.9579885  64.7163543  46.3654889
  23.4650012  70.7944997  38.9149988  24.0570012  71.4934997  39.1909988
  23.9240012  70.3614997  38.1949988  23.6081142  70.8317049  38.8554830
  21.7810012  63.4584997  38.0309988  21.7360012  64.3974997  38.2089988
  20.8930012  63.2224997  37.7609988  21.6548574  63.5551892  38.0188912
  35.0930012  74.1224997  47.9669988  34.9380012  74.8004997  47.3099988
  36.0260012  74.1944997  48.1699988  35.1978500  74.2250170  47.9045119
  22.5890012  58.2404997  46.7039988  22.3600012  58.2994997  45.7759988
  22.1460012  57.4484997  47.0099988  22.4978530  58.1415753  46.6184786
  21.5190012  72.1804997  42.8639988  20.6870012  72.6534997  42.8919988
  22.0650012  72.6904997  42.2659988  21.4789739  72.3141871  42.7869716
  20.8070012  74.7934997  54.1939988  21.3480012  74.5764997  54.9539988
  20.3260012  73.9874997  54.0049988  20.8159345  74.6549514  54.2723076
  25.4050012  73.7124997  55.8149988  26.1720012  73.2534997  56.1559988
  25.3830012  73.4864997  54.8849988  25.5071434  73.6190409  55.7360043
  29.4970012  73.2204997  37.1899988  28.8530012  72.5894997  37.5109988
  30.2590012  72.6894997  36.9579988  29.5118077  73.0622920  37.2026011
  31.9820012  72.0924997  54.5439988  31.6310012  71.2364997  54.7869988
  32.7080012  72.2354997  55.1509988  32.0320769  71.9945636  54.6593619
  34.1010012  73.0374997  37.4239988  34.3840012  72.2434997  37.8759988
  34.8410012  73.2704997  36.8629988  34.2397486  72.9602803  37.4100698
  20.7140012  68.6034997  55.1489988  20.8580012  67.7014997  54.8619988
  19.9420012  68.8894997  54.6609988  20.6293322  68.5188261  55.0437881
  25.0560012  68.9474997  37.2809988  25.1200012  68.1534997  37.8119988
  25.7090012  68.8284997  36.5909988  25.1530241  68.8227148  37.2604317
  27.3700012  68.5734997  54.5809988  27.0410012  68.8444997  53.7239988
  27.5220012  67.6324997  54.4939988  27.3454809  68.4833862  54.4518244
  30.4080012  69.9944997  37.0169988  30.1390012  70.1744997  37.9179988
  30.2020012  69.0684997  36.8859988  30.3433825  69.8940152  37.1225214
  33.1040012  68.4894997  51.9649988  33.8500012  69.0774997  51.8449988
  32.3470012  69.0714997  52.0279988  33.1037554  68.6487011  51.9570907
  21.5470012  65.8034997  54.5689988  21.9550012  64.9464997  54.4479988
  21.2870012  65.8184997  55.4899988  21.5677568  65.6880807  54.6769588
  26.2050012  66.9194997  39.5869988  25.7450012  66.4354997  40.2729988
  26.4600012  66.2514997  38.9509988  26.1764902  66.7628731  39.5949334
  25.4940012  64.8124997  51.9429988  24.8760012  65.4874997  52.2229988
  25.8380012  65.1334997  51.1099988  25.4559615  64.9482721  51.8686581
  27.2760012  65.1624997  37.8489988  27.0960012  65.0084997  36.9219988
  28.2260012  65.2704997  37.8939988  27.3797776  65.1560175  37.7281843
  30.5140012  67.2844997  55.2199988  31.4670012  67.3674997  55.1929988
  30.3530012  66.5724997  55.8399988  30.6226426  67.1996746  55.3000579
  36.6660012  67.5174997  37.2949988  36.3920012  67.0924997  36.4819988
  36.7050012  68.4484997  37.0779988  36.6337699  67.5852484  37.1543610
  25.8330012  62.1674997  53.0249988  25.9830012  61.4384997  52.4229988
  25.8360012  62.9444997  52.4659988  25.8539302  62.1727851  52.8670692
  26.2460012  60.5374997  50.5179988  26.7820012  60.9884997  49.8659988
  25.3940012  60.4294997  50.0949988  26.2042178  60.5846390  50.3715756
  27.8280012  65.9764997  50.7569988  28.5780012  65.8204997  50.1839988
  27.4890012  66.8284997  50.4819988  27.8848921  66.0702968  50.6413561
  32.2430012  63.7914997  55.7859988  32.4360012  62.8604997  55.6739988
  33.1010012  64.2164997  55.7759988  32.3853020  63.7216389  55.7693361
  33.5600012  66.5804997  53.8629988  33.2790012  67.2894997  53.2859988
  34.5030012  66.5074997  53.7119988  33.6489027  66.6677646  53.7635551
  24.3120012  63.3654997  54.9369988  23.5450012  62.8334997  54.7269988
  24.9910012  63.0554997  54.3369988  24.2987022  63.2507506  54.8271648
  27.0520012  57.9934997  50.9489988  26.9530012  58.9404997  50.8439988
  26.3090012  57.6214997  50.4739988  26.9380564  58.0725902  50.8704560
  28.3160012  62.3154997  54.5129988  28.0800012  62.0954997  55.4149988
  27.5320012  62.1084997  54.0029988  28.1778628  62.2574760  54.5673932
  31.0310012  61.4424997  53.5889988  30.0840012  61.4744997  53.7209988
  31.3440012  60.8174997  54.2419988  30.9435475  61.3623207  53.6954455
  32.6650012  60.0764997  55.5939988  32.5690012  59.1244997  55.5879988
  32.3440012  60.3454997  56.4539988  32.6084070  59.9824035  55.7095441
  22.4920012  61.2864997  54.6409988  22.7040012  60.5794997  54.0309988
  22.3810012  60.8484997  55.4849988  22.5059721  61.1307084  54.6716843
  27.2730012  57.2874997  53.6209988  27.9850012  56.6474997  53.6069988
  27.1720012  57.5544997  52.7069988  27.3567939  57.2359938  53.4955650
  27.6270012  58.9704997  55.6739988  27.4950012  58.4944997  54.8539988
  27.0280012  59.7144997  55.6189988  27.5279071  59.0059618  55.5542886
  27.1730012  75.8534997  38.8509988  28.1060012  76.0114997  38.9939988
  26.9090012  76.5284997  38.2259988  27.2649510  75.9663611  38.7860741
  20.7420012  70.4894997  38.3329988  21.6560012  70.5684997  38.6069988
  20.7490012  69.8024997  37.6669988  20.8681131  70.4073961  38.2804393
  19.3910012  75.8824997  43.4109988  18.7440012  75.4204997  42.8779988
  19.7450012  75.2104997  43.9929988  19.3503849  75.7284723  43.4167959
  20.2610012  73.9634997  45.2149988  19.9260012  73.0834997  45.3869988
  20.4830012  74.3084997  46.0799988  20.2451783  73.8897500  45.3554208
  37.8090012  74.7724997  48.1959988  37.7880012  74.9574997  49.1349988
  38.5000012  75.3414997  47.8549988  37.8994618  74.8746606  48.2783864
  37.3730012  74.3404997  51.1179988  36.8850012  73.6044997  50.7469988
  37.9220012  73.9464997  51.7959988  37.3804872  74.1866249  51.1589160
  35.8230012  70.1294997  55.7559988  34.9570012  70.0244997  56.1499988
  36.2000012  70.8884997  56.2019988  35.7553308  70.2176900  55.8702393
  37.1240012  68.3864997  41.2699988  37.9740012  68.8074997  41.3969988
  37.1300012  67.6464997  41.8769988  37.2411372  68.3440803  41.3694344
  37.5190012  66.4394997  43.0939988  36.7920012  65.9604997  43.4909988
  38.1000012  66.6454997  43.8259988  37.4979375  66.4017090  43.2474129
  37.2780012  69.2244997  48.0409988  38.1110012  68.8464997  47.7609988
  37.3900012  70.1674997  47.9219988  37.4072647  69.3002218  47.9865487
  35.7640012  72.1024997  50.3479988  35.1170012  72.4274997  50.9739988
  35.2470012  71.6624997  49.6739988  35.6054029  72.0875004  50.3425827
  37.7870012  66.3404997  39.4849988  37.2650012  66.6974997  38.7659988
  37.7540012  67.0154997  40.1629988  37.7111634  66.4805413  39.4783145
  36.1360012  63.5804997  38.0359988  36.2320012  64.2474997  37.3549988
  35.9960012  62.7644997  37.5539988  36.1302135  63.5614500  37.8778491
  35.3050012  64.9604997  43.6569988  35.1550012  64.0154997  43.6359988
  34.9520012  65.2414997  44.4999988  35.2366625  64.8690441  43.7682346
  20.3410012  67.0384997  47.6669988  20.5250012  66.9564997  46.7309988
  21.1900012  66.9144997  48.0909988  20.4810139  67.0105003  47.5961455
  36.1620012  66.9304997  53.2949988  36.7450012  66.1964997  53.4869988
  36.7260012  67.7024997  53.3419988  36.3179769  66.9344227  53.3276159
  37.6580012  64.8334997  53.9799988  36.7950012  64.4544997  53.8139988
  38.2630012  64.0944997  53.9059988  37.6215979  64.6818023  53.9472817
  35.3830012  60.9884997  37.1529988  35.9940012  60.6174997  37.7899988
  34.5470012  60.5674997  37.3489988  35.3535032  60.8807554  37.2667035
  35.0160012  62.5434997  42.1189988  35.2960012  61.6364997  42.2429988
  35.7750012  62.9774997  41.7299988  35.1569277  62.4780942  42.0833682
  35.6280012  63.1244997  47.5549988  36.5610012  63.3364997  47.5209988
  35.3930012  63.2264997  48.4769988  35.7238036  63.1672769  47.6749976
  35.6570012  63.8614997  50.3309988  34.8140012  64.1294997  50.6969988
  36.0990012  64.6834997  50.1199988  35.6014158  64.0093291  50.3525491
  19.9380012  62.3094997  53.8079988  20.8580012  62.1874997  54.0439988
  19.4890012  61.5594997  54.1969988  20.0031580  62.1913727  53.8929006
  37.9400012  57.8414997  55.6839988  38.2900012  57.1874997  55.0789988
  38.0870012  58.6784997  55.2449988  38.0078419  57.8651591  55.5417118
  35.6290012  59.8064997  42.1669988  35.8120012  59.3574997  42.9929988
  35.0300012  59.2214997  41.7039988  35.5730202  59.6659975  42.2173275
  21.1590012  60.6214997  46.6989988  21.6050012  59.8294997  47.0009988
  21.6260012  61.3374997  47.1299988  21.2830172  60.6100624  46.7984820
  19.4630012  63.6204997  47.7679988  19.9550012  63.3994997  46.9769988
  19.8260012  64.4614997  48.0489988  19.5793126  63.7038357  47.6977531
  37.4600012  59.9504997  54.0339988  36.5420012  60.2214997  53.9979988
  37.5830012  59.4154997  53.2489988  37.3511066  59.9152892  53.9230487
  37.4960012  59.8734997  38.6949988  37.9080012  59.1524997  38.2199988
  38.1780012  60.5434997  38.7539988  37.6445885  59.8652368  38.6378915
  19.7770012  59.8784997  41.8219988  18.8520012  60.0874997  41.6929988
  20.2310012  60.3624997  41.1329988  19.7117368  59.9725993  41.7111226
  34.5480012  74.8624997  43.7679988  35.2000012  74.5154997  43.1599988
  35.0580012  75.3514997  44.4139988  34.7062637  74.8810597  43.7720236
  19.7410012  58.6164997  50.1669988  19.0760012  58.3704997  50.8099988
  19.2980012  59.2384997  49.5889988  19.5900956  58.6668632  50.1769352
  21.9330012  71.7914997  54.3109988  21.1120012  71.9664997  53.8509988
  21.6800012  71.7184997  55.2319988  21.7866164  71.8055622  54.3724923
  24.8870012  72.7664997  50.5699988  24.4620012  73.5754997  50.2869988
  25.7910012  72.8514997  50.2679988  24.9510271  72.8888469  50.4903776
  29.1980012  74.1654997  53.5289988  29.3830012  73.8314997  54.4069988
  30.0440012  74.4744997  53.2069988  29.3377539  74.1616047  53.6055605
  31.5430012  75.4514997  52.7729988  32.2200012  74.8184997  52.5329988
  31.8650012  75.8524997  53.5799988  31.6791637  75.4191154  52.8492793
  36.4600012  58.0404997  51.8529988  35.6480012  58.3654997  51.4649988
  36.6930012  57.2804997  51.3199988  36.3803423  57.9822436  51.7278253
  22.2890012  76.0224997  50.6169988  21.5680012  76.4624997  50.1659988
  21.9230012  75.7714997  51.4659988  22.1409804  76.0487698  50.6699840
  24.7560012  75.6224997  49.6469988  23.8910012  75.6944997  50.0509988
  24.7010012  76.1694997  48.8629988  24.6302085  75.7062685  49.5963362
  29.4660012  75.5104997  48.8219988  29.0100012  76.0394997  48.1679988
  29.6290012  76.1134997  49.5479988  29.4255585  75.6644468  48.8305062
  31.7940012  74.3884997  49.7669988  30.8890012  74.5534997  49.5019988
  32.2230012  75.2414997  49.7019988  31.7280799  74.5264483  49.7219182
  34.3980012  75.9584997  50.0619988  34.2160012  76.8744997  49.8519988
  34.5750012  75.5484997  49.2159988  34.3970210  76.0284822  49.9187885
  21.7030012  74.6454997  47.5269988  21.6850012  74.2204997  48.3849988
  22.5080012  74.3274997  47.1189988  21.8093875  74.5443812  47.5891655
  23.8450012  73.3554997  46.1819988  23.6260012  72.4394997  46.3519988
  24.6690012  73.4954997  46.6479988  23.9264420  73.2490520  46.2682774
  26.3820012  73.8254997  47.0309988  26.5950012  72.9374997  46.7439988
  26.4460012  73.7914997  47.9849988  26.4198231  73.6993102  47.1207397
  29.8900012  59.4894997  46.1749988  29.2160012  58.8604997  46.4309988
  30.4540012  59.0054997  45.5719988  29.8739230  59.3378744  46.1285340
  35.0330012  57.5974997  46.2879988  35.6370012  58.1444997  45.7859988
  34.1630012  57.9164997  46.0479988  34.9981241  57.7155806  46.1867654
  36.7600012  58.7354997  44.6209988  37.3720012  58.2214997  44.0949988
  37.1420012  59.6134997  44.6449988  36.8954540  58.7837140  44.5521830
  22.2170012  58.1234997  43.9969988  21.4400012  57.8894997  43.4899988
  22.7470012  57.3264997  44.0059988  22.1822330  57.9836988  43.9287742
  21.0530012  57.9214997  39.8009988  21.4920012  58.5324997  39.2089988
  20.4200012  58.4594997  40.2749988  21.0274514  58.0779257  39.7840930
  26.7960012  58.0504997  43.8109988  27.6710012  58.4384997  43.7809988
  26.6600012  57.8354997  44.7329988  26.8973695  58.0745184  43.9316440
  32.3530012  58.0804997  45.4599988  32.4290012  58.1754997  44.5099988
  32.0780012  57.1724997  45.5889988  32.3262321  57.9707867  45.3475079
  33.7060012  58.1064997  41.1519988  33.0040012  58.7214997  40.9429988
  33.2620012  57.2684997  41.2829988  33.5496330  58.0775783  41.1410328
  20.9540012  73.8694997  40.6989988  20.2690012  73.8314997  40.0309988
  20.9580012  74.7824997  40.9869988  20.8608193  73.9877016  40.6465284
  22.9140012  59.8374997  38.2429988  23.4060012  59.2074997  37.7159988
  23.5380012  60.1334997  38.9069988  23.0655446  59.7913199  38.2605980
  27.9400012  60.1304997  40.6999988  28.1180012  59.4844997  41.3829988
  27.8870012  60.9644997  41.1679988  27.9571829  60.1547985  40.8565940
  29.8190012  75.0794997  39.0959988  30.6850012  75.4454997  38.9179988
  29.5720012  74.6394997  38.2819988  29.9042392  75.0701756  38.9616289
  36.5280012  74.6424997  41.7749988  36.3330012  73.8944997  41.2099988
  36.4890012  75.4004997  41.1919988  36.4960380  74.6426099  41.6188384
  22.1750012  58.6374997  53.5149988  21.8090012  57.8724997  53.9579988
  23.0880012  58.6664997  53.8019988  22.2482790  58.5367224  53.6144070
  24.1480012  57.9884997  55.0509988  25.0460012  57.7144997  54.8659988
  23.7610012  57.2454997  55.5149988  24.2186612  57.8505914  55.0883643
  22.7720012  74.7894997  37.7239988  22.5050012  75.0764997  38.5969988
  23.5440012  74.2434997  37.8759988  22.8397488  74.7550294  37.8641050
  32.5690012  57.3204997  55.2329988  32.6460012  56.8944997  56.0869988
  33.4630012  57.3344997  54.8899988  32.7003428  57.2640879  55.3035310
  35.7450012  73.3934997  53.9249988  34.9630012  73.2074997  53.4059988
  35.6730012  74.3224997  54.1429988  35.6281777  73.4936492  53.8834048
  50.1510012  67.2794997  43.9559988  50.2400012  68.2234997  43.8239988
  49.5130012  67.0044997  43.2979988  50.0769081  67.3714830  43.8489614
  49.0840012  66.5344997  47.3749988  49.0460012  65.8884997  48.0799988
  48.7620012  66.0684997  46.6039988  49.0352333  66.3829408  47.3672978
  41.4530012  66.1494997  48.9679988  41.4940012  65.5234997  49.6909988
  42.1560012  66.7734997  49.1499988  41.5536363  66.1481196  49.0916044
  52.7900012  69.4734997  45.6759988  52.3500012  68.7534997  46.1269988
  52.7770012  70.1944997  46.3059988  52.7280226  69.4723731  45.8228494
  42.3760012  70.5994997  47.5029988  42.0070012  69.7974997  47.1329988
  43.3170012  70.4304997  47.5489988  42.4527289  70.4670153  47.4586316
  38.9860012  64.2594997  42.8959988  38.5390012  65.1054997  42.8769988
  38.4250012  63.6794997  42.3799988  38.8489900  64.2969916  42.8236801
  39.6970012  66.4214997  45.0219988  39.9100012  65.6514997  45.5489988
  40.4350012  66.5104997  44.4179988  39.8258496  66.3281394  45.0125300
  49.9020012  74.5784997  45.8889988  50.5220012  73.9014997  45.6149988
  49.6940012  74.3604997  46.7969988  49.9586904  74.4563870  45.9743365
  47.4740012  68.9674997  47.7809988  47.7780012  68.2814997  47.1859988
  48.1950012  69.0854997  48.3989988  47.6130671  68.8896305  47.7831816
  56.1370012  60.5684997  48.6419988  56.1860012  61.1784997  49.3779988
  56.5620012  61.0294997  47.9189988  56.2011824  60.7143741  48.6450205
  50.6150012  63.3614997  48.1089988  50.7570012  62.4154997  48.1289988
  50.5080012  63.5684997  47.1799988  50.6199863  63.2599534  47.9862339
  43.7690012  61.4624997  45.3809988  43.8130012  62.3224997  44.9629988
  43.3120012  60.9104997  44.7469988  43.7132185  61.5055799  45.2380299
  51.4920012  61.5934997  43.7819988  52.1380012  61.2644997  44.4069988
  52.0020012  62.1114997  43.1589988  51.6494264  61.6184611  43.7833862
  40.3900012  63.8594997  46.1429988  41.0430012  63.3094997  46.5749988
  40.4140012  63.5854997  45.2259988  40.4826683  63.7471466  46.0782123
  45.5460012  65.4094997  45.3579988  46.1620012  64.8834997  45.8679988
  44.9600012  64.7694997  44.9549988  45.5510810  65.2509208  45.3733173
  56.5280012  62.0464997  50.8779988  55.8400012  62.7044997  50.7819988
  56.5440012  61.8494997  51.8139988  56.4358525  62.1100462  50.9914808
  42.5800012  60.3804997  49.4549988  42.3610012  60.9104997  48.6889988
  41.9120012  60.6074997  50.1019988  42.4597600  60.4836906  49.4376379
  49.9490012  69.8804997  42.9989988  49.6530012  69.5584997  42.1479988
  49.6240012  70.7804997  43.0399988  49.8646371  69.9580215  42.8881801
  45.1490012  68.0564997  49.7419988  44.4090012  68.6544997  49.8459988
  45.8630012  68.6104997  49.4269988  45.1442237  68.2132831  49.7136465
  53.2560012  60.8844997  45.7619988  53.0400012  60.1184997  46.2949988
  53.9110012  61.3564997  46.2749988  53.3150632  60.8435889  45.9042861
  42.1730012  62.2724997  47.4069988  42.7870012  62.9054997  47.7809988
  42.6850012  61.8004997  46.7509988  42.3262296  62.2952370  47.3694252
  43.5560012  70.0204997  50.5299988  43.5510012  70.9004997  50.1519988
  42.7030012  69.9374997  50.9549988  43.4399464  70.1296117  50.5357907
  39.6770012  69.6914997  41.3119988  39.4050012  69.9204997  40.4229988
  39.7230012  70.5294997  41.7719988  39.6460094  69.8361213  41.2525697
  53.3020012  71.3134997  48.0239988  52.3610012  71.3714997  48.1859988
  53.5790012  72.2194997  47.8869988  53.2104679  71.4439443  48.0276815
  53.6030012  59.5994997  49.4419988  52.8670012  60.2104997  49.4039988
  54.2860012  60.0144997  48.9149988  53.5946541  59.7391374  49.3655832
  46.6060012  57.6864997  46.9079988  46.4890012  56.7374997  46.8529988
  45.7510012  58.0184997  47.1809988  46.4743733  57.6015409  46.9373897
  51.5540012  73.0944997  44.6499988  51.9800012  72.3874997  44.1649988
  51.8710012  73.8954997  44.2329988  51.6551019  73.1060994  44.5273130
  52.7140012  70.9954997  43.1579988  52.4560012  70.3054997  42.5469988
  52.7850012  70.5524997  44.0039988  52.6882856  70.8412124  43.1886885
  48.8730012  66.5234997  41.4079988  48.1610012  67.0584997  41.0559988
  49.5640012  66.5794997  40.7479988  48.8690132  66.6042543  41.2706289
  48.9260012  64.9814997  38.4469988  49.6270012  65.0034997  39.0979988
  49.2290012  64.3534997  37.7909988  49.0627830  64.8996566  38.4473711
  52.2780012  66.7334997  42.3599988  51.5460012  66.9614997  42.9329988
  52.7260012  66.0194997  42.8149988  52.2383095  66.6682571  42.4999119
  52.1760012  64.9074997  51.4269988  52.2560012  65.6704997  51.9989988
  51.5740012  65.1864997  50.7369988  52.1055756  65.0497134  51.4120589
  43.9240012  67.3634997  44.2419988  43.5930012  66.9934997  43.4239988
  44.5120012  66.6934997  44.5889988  43.9581873  67.2221156  44.1768102
  45.2900012  70.7914997  46.9239988  45.1960012  70.2134997  46.1669988
  46.0200012  70.4204997  47.4199988  45.3757981  70.6622390  46.8874165
  44.2900012  66.1324997  47.8759988  44.8560012  66.2534997  47.1129988
  44.6090012  66.7694997  48.5149988  44.4105786  66.2351884  47.8580040
  50.5990012  71.6354997  48.6099988  50.3590012  72.2974997  49.2579988
  50.4010012  70.8014997  49.0349988  50.5393808  71.6133134  48.7561524
  45.1700012  70.5314997  52.5929988  44.8590012  71.3134997  53.0479988
  44.5200012  70.3784997  51.9069988  45.0395558  70.6179105  52.5625871
  51.1490012  65.8954997  40.0449988  51.7290012  66.0454997  40.7919988
  51.5630012  66.3664997  39.3219988  51.2842830  65.9796841  40.0494134
  42.0900012  66.7294997  51.8219988  42.1610012  67.3804997  52.5199988
  41.2000012  66.8324997  51.4869988  41.9793117  66.8325936  51.8722700
  48.8760012  72.6324997  43.4799988  49.3500012  72.9274997  44.2579988
  48.3130012  73.3704997  43.2469988  48.8647653  72.7726932  43.5550136
  43.4100012  72.6034997  53.3559988  43.4170012  72.4674997  52.4089988
  42.4940012  72.4854997  53.6079988  43.2871714  72.5689430  53.2604666
  54.8480012  57.6454997  39.8579988  53.9480012  57.7844997  40.1529988
  55.1000012  58.4764997  39.4559988  54.7588702  57.7769074  39.8440205
  42.9140012  66.4334997  41.8319988  42.6220012  67.2014997  41.3409988
  42.2400012  65.7734997  41.6689988  42.7829081  66.4494406  41.7427340
  56.0370012  72.0114997  38.2339988  56.1110012  72.9504997  38.4049988
  56.9430012  71.7064997  38.1779988  56.1695100  72.0986722  38.2498119
  39.0070012  68.7964997  50.6469988  38.5060012  68.7684997  49.8319988
  39.0120012  67.8904997  50.9559988  38.9391526  68.6702278  50.5772872
  38.7570012  71.5764997  47.5309988  39.7030012  71.4324997  47.5119988
  38.6450012  72.3604997  48.0679988  38.8712727  71.6628046  47.6010072
  47.9340012  71.8164997  52.0889988  48.0210012  72.6424997  52.5639988
  47.0700012  71.4864997  52.3379988  47.8291964  71.8849878  52.1876549
  48.3480012  75.5884997  41.8949988  48.2730012  75.4674997  40.9489988
  48.3810012  76.5384997  42.0139988  48.3421848  75.7002500  41.7814834
  42.0010012  74.3774997  43.6759988  42.1540012  74.0294997  44.5549988
  41.1510012  74.0214997  43.4209988  41.9068962  74.2816650  43.7618340
  51.4500012  74.7424997  38.8969988  51.8250012  73.9984997  38.4269988
  51.4540012  74.4724997  39.8159988  51.5018915  74.6041486  38.9567824
  51.1190012  74.6684997  41.6469988  50.1830012  74.7684997  41.8249988
  51.3990012  73.9594997  42.2249988  51.0288255  74.5862711  41.7495391
  54.1070012  63.7354997  53.6929988  53.7000012  64.2164997  52.9719988
  54.1480012  62.8304997  53.3849988  54.0568437  63.6789374  53.5526683
  41.2560012  70.1194997  51.6899988  41.4720012  69.7584997  52.5489988
  40.4010012  69.7454997  51.4799988  41.1699292  70.0194111  51.7793386
  43.8750012  58.5894997  47.6849988  43.0130012  58.5024997  47.2779988
  43.8520012  59.4454997  48.1129988  43.7540330  58.6932765  47.6871863
  48.5380012  58.3114997  51.0599988  48.9580012  57.8964997  51.8129988
  47.6050012  58.1334997  51.1769988  48.4693644  58.2305900  51.1789539
  51.8640012  62.0674997  51.9129988  51.3500012  61.9414997  52.7109988
  51.7090012  62.9794997  51.6689988  51.7726852  62.1736132  51.9892158
  52.6270012  66.9284997  37.6749988  52.6690012  66.7054997  36.7449988
  53.4760012  67.3274997  37.8649988  52.7475396  66.9519155  37.5733627
  48.1990012  60.8044997  38.3449988  47.9460012  60.8234997  39.2679988
  47.9430012  59.9324997  38.0439988  48.1297790  60.6892437  38.4306263
  43.9660012  63.5554997  48.7799988  43.3240012  63.5144997  49.4889988
  44.0030012  64.4814997  48.5429988  43.8831324  63.6751559  48.8449824
  43.9630012  63.7764997  43.6919988  43.0700012  63.4354997  43.6339988
  44.4130012  63.3994997  42.9369988  43.9017305  63.6788484  43.5819177
  49.4980012  64.1924997  42.5089988  49.0890012  65.0074997  42.2179988
  50.2190012  64.0524997  41.8949988  49.5394537  64.2852018  42.3861342
  48.6000012  64.3674997  53.9969988  48.0380012  63.6634997  54.3179988
  49.4270012  64.2474997  54.4649988  48.6347095  64.2547883  54.1042330
  50.5030012  63.6384997  45.3229988  50.3080012  64.2434997  44.6079988
  50.6840012  62.8044997  44.8889988  50.5007614  63.6086300  45.1664405
  41.7160012  63.8754997  50.6469988  41.6780012  64.2754997  51.5159988
  41.2250012  63.0584997  50.7379988  41.6444684  63.8198069  50.7781059
  45.0820012  61.2494997  37.4459988  44.6510012  60.8044997  38.1759988
  44.3640012  61.6214997  36.9339988  44.9259438  61.2388940  37.4766799
  38.3240012  60.9914997  44.4979988  38.9550012  60.9624997  45.2169988
  38.7730012  60.5664997  43.7679988  38.4710774  60.9300492  44.4976553
  39.5980012  61.7374997  39.9219988  40.0720012  62.3284997  39.3369988
  38.8810012  62.2684997  40.2689988  39.5659341  61.8900867  39.8888836
  49.7670012  65.2764997  49.9949988  50.0900012  64.6454997  49.3519988
  49.3270012  64.7414997  50.6549988  49.7516895  65.1178441  49.9962850
  46.5440012  61.2034997  44.7789988  45.6330012  61.2604997  45.0669988
  47.0500012  61.1434997  45.5889988  46.4875413  61.2031985  44.9280622
  41.3730012  62.8324997  43.6049988  40.4830012  62.9324997  43.2649988
  41.6690012  61.9904997  43.2589988  41.2912823  62.7323545  43.5117213
  45.0260012  62.8324997  41.2619988  45.9570012  62.9614997  41.4399988
  44.8110012  63.5024997  40.6119988  45.1244247  62.9406565  41.1985747
  50.9490012  60.4384997  48.0429988  50.2730012  60.5694997  48.7069988
  50.4640012  60.2834997  47.2329988  50.7907145  60.4354904  48.0244517
  43.7000012  64.0274997  38.8289988  43.1570012  63.6474997  38.1369988
  44.5330012  64.2214997  38.3999988  43.7384399  64.0018124  38.6764526
  41.8350012  68.5844997  53.9279988  42.5670012  68.8384997  54.4889988
  41.0550012  68.7884997  54.4429988  41.8298232  68.6469177  54.0745760
  47.8640012  63.9914997  46.6659988  48.4290012  63.4444997  46.1189988
  47.7170012  63.4694997  47.4539988  47.9212918  63.8462024  46.6978454
  42.8660012  60.1274997  43.0839988  42.5490012  59.2254997  43.0489988
  43.6480012  60.1294997  42.5309988  42.9282284  60.0041628  43.0044783
  46.4910012  62.3794997  49.0799988  45.6550012  62.8334997  49.1899988
  47.0150012  62.6554997  49.8319988  46.4474414  62.4789376  49.1967136
  47.0350012  68.5924997  40.7639988  46.2900012  68.0854997  40.4419988
  46.9010012  68.6414997  41.7109988  46.9148776  68.5296940  40.8478647
  50.9330012  61.4064997  38.9639988  49.9940012  61.5184997  38.8119988
  51.2300012  62.2634997  39.2699988  50.8447666  61.5376443  38.9845768
  48.5540012  68.7764997  52.0009988  48.2090012  68.3954997  52.8079988
  48.3540012  69.7104997  52.0729988  48.4798061  68.8505228  52.1210961
  51.6510012  63.2734997  40.6239988  52.5430012  63.1364997  40.9429988
  51.7080012  64.0644997  40.0879988  51.7806285  63.3616660  40.5951691
  42.1600012  67.8874997  46.5339988  42.9050012  67.8854997  45.9329988
  42.2380012  67.0644997  47.0159988  42.2725518  67.7759315  46.5168929
  49.1610012  70.0514997  39.7899988  48.8650012  70.8774997  40.1709988
  48.4580012  69.4314997  39.9859988  49.0254914  70.0808199  39.8686443
  39.1680012  66.3484997  51.8489988  39.3910012  65.9304997  52.6809988
  38.5660012  65.7354997  51.4259988  39.1171759  66.2084668  51.9057022
  46.1840012  65.8654997  54.0619988  45.8880012  65.6994997  53.1669988
  47.1160012  65.6454997  54.0509988  46.2694166  65.8130640  53.9380536
  50.8050012  71.2384997  51.9519988  49.9040012  71.4214997  51.6839988
  50.8390012  71.4974997  52.8729988  50.6863041  71.2985512  52.0398197
  56.5360012  63.4834997  40.3189988  55.9820012  63.0874997  39.6469988
  56.6360012  64.3934997  40.0409988  56.4737059  63.5523586  40.1894401
  54.8310012  72.2694997  40.7839988  54.4580012  71.4434997  41.0929988
  55.1090012  72.0864997  39.8869988  54.8175630  72.1317303  40.7049626
  51.9920012  67.0774997  47.8049988  51.0630012  66.8454997  47.7779988
  52.4430012  66.3004997  47.4749988  51.9259216  66.9407238  47.7566917
  44.5350012  71.4054997  43.9379988  45.0620012  72.1784997  43.7379988
  43.6550012  71.6304997  43.6369988  44.4881773  71.5418005  43.8699010
  40.2900012  66.2674997  38.5249988  40.9060012  66.8944997  38.9049988
  39.4280012  66.5834997  38.7969988  40.2577698  66.3959430  38.6137183
  45.9620012  69.0684997  43.5149988  45.7210012  69.9934997  43.5559988
  45.2210012  68.6094997  43.9109988  45.8288409  69.1331421  43.5741377
  46.4770012  73.2174997  49.8299988  46.8390012  74.0724997  49.5959988
  47.0080012  72.9254997  50.5699988  46.5984473  73.2951060  49.8980855
  44.6450012  74.0904997  43.0599988  43.6950012  74.1954997  43.1109988
  44.9970012  74.9104997  43.4049988  44.5624203  74.2158314  43.1136650
  50.0210012  69.3164997  49.5299988  49.5950012  69.0894997  50.3569988
  50.6010012  68.5784997  49.3479988  50.0411868  69.1855299  49.6185830
  52.2240012  70.2454997  38.6039988  52.5770012  69.8654997  39.4089988
  51.2750012  70.1524997  38.6909988  52.1440441  70.1809596  38.7258559
  56.7270012  74.7254997  38.8049988  57.4710012  75.3114997  38.6649988
  56.0330012  75.2934997  39.1389988  56.7350292  74.8825582  38.8309961
  40.8020012  61.1014997  51.4069988  39.9090012  61.4404997  51.3389988
  40.7030012  60.2464997  51.8249988  40.6664164  61.0322588  51.4542235
  53.0900012  68.9184997  40.8309988  52.8120012  68.1904997  41.3869988
  54.0170012  69.0374997  41.0359988  53.1773124  68.8348802  40.9348845
  40.4530012  72.9064997  49.8419988  40.6700012  71.9744997  49.8109988
  40.6990012  73.1804997  50.7249988  40.5159549  72.8160636  49.9571763
  46.3150012  71.3574997  37.0509988  46.5540012  70.6094997  36.5039988
  46.0460012  70.9694997  37.8839988  46.3113675  71.2026638  37.0886865
  45.2520012  70.9274997  39.5079988  45.3980012  70.4074997  40.2979988
  45.2490012  71.8344997  39.8139988  45.2715989  70.9788853  39.6576088
  41.7050012  68.1804997  40.0179988  41.0190012  68.5324997  40.5849988
  42.2270012  68.9434997  39.7709988  41.6816852  68.3318578  40.0622118
  49.5360012  60.8424997  50.2969988  50.2350012  60.9164997  50.9469988
  49.1550012  59.9784997  50.4509988  49.5801767  60.7357624  50.4068322
  50.3210012  60.4944997  41.3939988  50.5410012  60.9664997  40.5909988
  50.8790012  60.8894997  42.0639988  50.4264968  60.6124285  41.3747331
  47.9890012  72.6254997  40.2569988  47.1730012  73.1224997  40.3089988
  48.5190012  73.1004997  39.6169988  47.9489161  72.7577722  40.1775956
  47.5210012  62.2224997  42.2289988  48.3330012  62.7274997  42.2749988
  47.2760012  62.0774997  43.1429988  47.5990520  62.2720375  42.3588517
  48.0560012  63.2084997  51.4139988  48.1750012  63.7824997  52.1709988
  48.7120012  62.5204997  51.5279988  48.1609757  63.1941079  51.5330825
  48.4040012  59.3034997  43.1669988  48.0580012  59.9214997  43.8119988
  49.0630012  59.8044997  42.6859988  48.4457826  59.4555802  43.1900971
  45.3280012  73.6694997  40.2389988  45.4880012  74.4684997  39.7379988
  45.1300012  73.9754997  41.1239988  45.3231649  73.8204469  40.2899815
  44.0620012  60.3664997  39.8539988  43.9790012  61.2554997  40.2009988
  44.9520012  60.1014997  40.0859988  44.1709469  60.4521430  39.9327626
  54.2610012  61.1154997  52.2489988  53.3440012  61.3784997  52.1609988
  54.5960012  61.1124997  51.3519988  54.1809900  61.1510224  52.1157919
  52.8630012  64.8664997  46.3439988  52.0650012  64.4514997  46.0159988
  53.3080012  64.1754997  46.8349988  52.8139885  64.7163543  46.3654889
  42.3210012  70.7944997  38.9149988  42.9130012  71.4934997  39.1909988
  42.7800012  70.3614997  38.1949988  42.4641142  70.8317049  38.8554830
  40.6370012  63.4584997  38.0309988  40.5920012  64.3974997  38.2089988
  39.7490012  63.2224997  37.7609988  40.5108574  63.5551892  38.0188912
  53.9490012  74.1224997  47.9669988  53.7940012  74.8004997  47.3099988
  54.8820012  74.1944997  48.1699988  54.0538500  74.2250170  47.9045119
  41.4450012  58.2404997  46.7039988  41.2160012  58.2994997  45.7759988
  41.0020012  57.4484997  47.0099988  41.3538530  58.1415753  46.6184786
  40.3750012  72.1804997  42.8639988  39.5430012  72.6534997  42.8919988
  40.9210012  72.6904997  42.2659988  40.3349739  72.3141871  42.7869716
  39.6630012  74.7934997  54.1939988  40.2040012  74.5764997  54.9539988
  39.1820012  73.9874997  54.0049988  39.6719345  74.6549514  54.2723076
  44.2610012  73.7124997  55.8149988  45.0280012  73.2534997  56.1559988
  44.2390012  73.4864997  54.8849988  44.3631434  73.6190409  55.7360043
  48.3530012  73.2204997  37.1899988  47.7090012  72.5894997  37.5109988
  49.1150012  72.6894997  36.9579988  48.3678077  73.0622920  37.2026011
  50.8380012  72.0924997  54.5439988  50.4870012  71.2364997  54.7869988
  51.5640012  72.2354997  55.1509988  50.8880769  71.9945636  54.6593619
  52.9570012  73.0374997  37.4239988  53.2400012  72.2434997  37.8759988
  53.6970012  73.2704997  36.8629988  53.0957486  72.9602803  37.4100698
  39.5700012  68.6034997  55.1489988  39.7140012  67.7014997  54.8619988
  38.7980012  68.8894997  54.6609988  39.4853323  68.5188261  55.0437881
  43.9120012  68.9474997  37.2809988  43.9760012  68.1534997  37.8119988
  44.5650012  68.8284997  36.5909988  44.0090241  68.8227148  37.2604317
  46.2260012  68.5734997  54.5809988  45.8970012  68.8444997  53.7239988
  46.3780012  67.6324997  54.4939988  46.2014809  68.4833862  54.4518244
  49.2640012  69.9944997  37.0169988  48.9950012  70.1744997  37.9179988
  49.0580012  69.0684997  36.8859988  49.1993825  69.8940152  37.1225214
  51.9600012  68.4894997  51.9649988  52.7060012  69.0774997  51.8449988
  51.2030012  69.0714997  52.0279988  51.9597554  68.6487011  51.9570907
  40.4030012  65.8034997  54.5689988  40.8110012  64.9464997  54.4479988
  40.1430012  65.8184997  55.4899988  40.4237568  65.6880807  54.6769588
  45.0610012  66.9194997  39.5869988  44.6010012  66.4354997  40.2729988
  45.3160012  66.2514997  38.9509988  45.0324902  66.7628731  39.5949334
  44.3500012  64.8124997  51.9429988  43.7320012  65.4874997  52.2229988
  44.6940012  65.1334997  51.1099988  44.3119615  64.9482721  51.8686581
  46.1320012  65.1624997  37.8489988  45.9520012  65.0084997  36.9219988
  47.0820012  65.2704997  37.8939988  46.2357776  65.1560175  37.7281843
  49.3700012  67.2844997  55.2199988  50.3230012  67.3674997  55.1929988
  49.2090012  66.5724997  55.8399988  49.4786426  67.1996746  55.3000579
  55.5220012  67.5174997  37.2949988  55.2480012  67.0924997  36.4819988
  55.5610012  68.4484997  37.0779988  55.4897699  67.5852484  37.1543610
  44.6890012  62.1674997  53.0249988  44.8390012  61.4384997  52.4229988
  44.6920012  62.9444997  52.4659988  44.7099302  62.1727851  52.8670692
  45.1020012  60.5374997  50.5179988  45.6380012  60.9884997  49.8659988
  44.2500012  60.4294997  50.0949988  45.0602178  60.5846390  50.3715756
  46.6840012  65.9764997  50.7569988  47.4340012  65.8204997  50.1839988
  46.3450012  66.8284997  50.4819988  46.7408921  66.0702968  50.6413561
  51.0990012  63.7914997  55.7859988  51.2920012  62.8604997  55.6739988
  51.9570012  64.2164997  55.7759988  51.2413020  63.7216389  55.7693361
  52.4160012  66.5804997  53.8629988  52.1350012  67.2894997  53.2859988
  53.3590012  66.5074997  53.7119988  52.5049027  66.6677646  53.7635551
  43.1680012  63.3654997  54.9369988  42.4010012  62.8334997  54.7269988
  43.8470012  63.0554997  54.3369988  43.1547022  63.2507506  54.8271648
  45.9080012  57.9934997  50.9489988  45.8090012  58.9404997  50.8439988
  45.1650012  57.6214997  50.4739988  45.7940563  58.0725902  50.8704560
  47.1720012  62.3154997  54.5129988  46.9360012  62.0954997  55.4149988
  46.3880012  62.1084997  54.0029988  47.0338628  62.2574760  54.5673932
  49.8870012  61.4424997  53.5889988  48.9400012  61.4744997  53.7209988
  50.2000012  60.8174997  54.2419988  49.7995475  61.3623207  53.6954455
  51.5210012  60.0764997  55.5939988  51.4250012  59.1244997  55.5879988
  51.2000012  60.3454997  56.4539988  51.4644070  59.9824035  55.7095441
  41.3480012  61.2864997  54.6409988  41.5600012  60.5794997  54.0309988
  41.2370012  60.8484997  55.4849988  41.3619721  61.1307084  54.6716843
  46.1290012  57.2874997  53.6209988  46.8410012  56.6474997  53.6069988
  46.0280012  57.5544997  52.7069988  46.2127939  57.2359938  53.4955650
  46.4830012  58.9704997  55.6739988  46.3510012  58.4944997  54.8539988
  45.8840012  59.7144997  55.6189988  46.3839071  59.0059618  55.5542886
  46.0290012  75.8534997  38.8509988  46.9620012  76.0114997  38.9939988
  45.7650012  76.5284997  38.2259988  46.1209510  75.9663611  38.7860741
  39.5980012  70.4894997  38.3329988  40.5120012  70.5684997  38.6069988
  39.6050012  69.8024997  37.6669988  39.7241131  70.4073961  38.2804393
  38.2470012  75.8824997  43.4109988  37.6000012  75.4204997  42.8779988
  38.6010012  75.2104997  43.9929988  38.2063849  75.7284723  43.4167959
  39.1170012  73.9634997  45.2149988  38.7820012  73.0834997  45.3869988
  39.3390012  74.3084997  46.0799988  39.1011783  73.8897501  45.3554208
  55.9800012  68.3864997  41.2699988  56.8300012  68.8074997  41.3969988
  55.9860012  67.6464997  41.8769988  56.0971372  68.3440803  41.3694344
  56.6430012  66.3404997  39.4849988  56.1210012  66.6974997  38.7659988
  56.6100012  67.0154997  40.1629988  56.5671634  66.4805413  39.4783145
  54.9920012  63.5804997  38.0359988  55.0880012  64.2474997  37.3549988
  54.8520012  62.7644997  37.5539988  54.9862135  63.5614500  37.8778491
  54.1610012  64.9604997  43.6569988  54.0110012  64.0154997  43.6359988
  53.8080012  65.2414997  44.4999988  54.0926625  64.8690441  43.7682346
  39.1970012  67.0384997  47.6669988  39.3810012  66.9564997  46.7309988
  40.0460012  66.9144997  48.0909988  39.3370139  67.0105003  47.5961455
  54.2390012  60.9884997  37.1529988  54.8500012  60.6174997  37.7899988
  53.4030012  60.5674997  37.3489988  54.2095032  60.8807554  37.2667035
  53.8720012  62.5434997  42.1189988  54.1520012  61.6364997  42.2429988
  54.6310012  62.9774997  41.7299988  54.0129277  62.4780942  42.0833682
  54.4840012  63.1244997  47.5549988  55.4170012  63.3364997  47.5209988
  54.2490012  63.2264997  48.4769988  54.5798036  63.1672769  47.6749976
  54.5130012  63.8614997  50.3309988  53.6700012  64.1294997  50.6969988
  54.9550012  64.6834997  50.1199988  54.4574158  64.0093291  50.3525491
  38.7940012  62.3094997  53.8079988  39.7140012  62.1874997  54.0439988
  38.3450012  61.5594997  54.1969988  38.8591580  62.1913727  53.8929006
  56.7960012  57.8414997  55.6839988  57.1460012  57.1874997  55.0789988
  56.9430012  58.6784997  55.2449988  56.8638419  57.8651591  55.5417118
  54.4850012  59.8064997  42.1669988  54.6680012  59.3574997  42.9929988
  53.8860012  59.2214997  41.7039988  54.4290202  59.6659975  42.2173275
  40.0150012  60.6214997  46.6989988  40.4610012  59.8294997  47.0009988
  40.4820012  61.3374997  47.1299988  40.1390172  60.6100624  46.7984820
  38.3190012  63.6204997  47.7679988  38.8110012  63.3994997  46.9769988
  38.6820012  64.4614997  48.0489988  38.4353126  63.7038357  47.6977531
  56.3160012  59.9504997  54.0339988  55.3980012  60.2214997  53.9979988
  56.4390012  59.4154997  53.2489988  56.2071066  59.9152892  53.9230487
  56.3520012  59.8734997  38.6949988  56.7640012  59.1524997  38.2199988
  57.0340012  60.5434997  38.7539988  56.5005885  59.8652368  38.6378915
  38.6330012  59.8784997  41.8219988  37.7080012  60.0874997  41.6929988
  39.0870012  60.3624997  41.1329988  38.5677368  59.9725993  41.7111226
  53.4040012  74.8624997  43.7679988  54.0560012  74.5154997  43.1599988
  53.9140012  75.3514997  44.4139988  53.5622637  74.8810597  43.7720236
  38.5970012  58.6164997  50.1669988  37.9320012  58.3704997  50.8099988
  38.1540012  59.2384997  49.5889988  38.4460956  58.6668632  50.1769352
  40.7890012  71.7914997  54.3109988  39.9680012  71.9664997  53.8509988
  40.5360012  71.7184997  55.2319988  40.6426164  71.8055622  54.3724923
  43.7430012  72.7664997  50.5699988  43.3180012  73.5754997  50.2869988
  44.6470012  72.8514997  50.2679988  43.8070271  72.8888469  50.4903776
  48.0540012  74.1654997  53.5289988  48.2390012  73.8314997  54.4069988
  48.9000012  74.4744997  53.2069988  48.1937539  74.1616047  53.6055605
  55.3160012  58.0404997  51.8529988  54.5040012  58.3654997  51.4649988
  55.5490012  57.2804997  51.3199988  55.2363423  57.9822436  51.7278253
  41.1450012  76.0224997  50.6169988  40.4240012  76.4624997  50.1659988
  40.7790012  75.7714997  51.4659988  40.9969804  76.0487698  50.6699840
  43.6120012  75.6224997  49.6469988  42.7470012  75.6944997  50.0509988
  43.5570012  76.1694997  48.8629988  43.4862085  75.7062685  49.5963362
  48.3220012  75.5104997  48.8219988  47.8660012  76.0394997  48.1679988
  48.4850012  76.1134997  49.5479988  48.2815585  75.6644468  48.8305062
  50.6500012  74.3884997  49.7669988  49.7450012  74.5534997  49.5019988
  51.0790012  75.2414997  49.7019988  50.5840799  74.5264483  49.7219182
  40.5590012  74.6454997  47.5269988  40.5410012  74.2204997  48.3849988
  41.3640012  74.3274997  47.1189988  40.6653875  74.5443812  47.5891655
  42.7010012  73.3554997  46.1819988  42.4820012  72.4394997  46.3519988
  43.5250012  73.4954997  46.6479988  42.7824420  73.2490520  46.2682774
  45.2380012  73.8254997  47.0309988  45.4510012  72.9374997  46.7439988
  45.3020012  73.7914997  47.9849988  45.2758232  73.6993102  47.1207397
  48.7460012  59.4894997  46.1749988  48.0720012  58.8604997  46.4309988
  49.3100012  59.0054997  45.5719988  48.7299230  59.3378744  46.1285340
  53.8890012  57.5974997  46.2879988  54.4930012  58.1444997  45.7859988
  53.0190012  57.9164997  46.0479988  53.8541241  57.7155806  46.1867654
  55.6160012  58.7354997  44.6209988  56.2280012  58.2214997  44.0949988
  55.9980012  59.6134997  44.6449988  55.7514540  58.7837140  44.5521830
  41.0730012  58.1234997  43.9969988  40.2960012  57.8894997  43.4899988
  41.6030012  57.3264997  44.0059988  41.0382330  57.9836988  43.9287742
  39.9090012  57.9214997  39.8009988  40.3480012  58.5324997  39.2089988
  39.2760012  58.4594997  40.2749988  39.8834514  58.0779257  39.7840930
  45.6520012  58.0504997  43.8109988  46.5270012  58.4384997  43.7809988
  45.5160012  57.8354997  44.7329988  45.7533695  58.0745184  43.9316440
  51.2090012  58.0804997  45.4599988  51.2850012  58.1754997  44.5099988
  50.9340012  57.1724997  45.5889988  51.1822321  57.9707867  45.3475079
  52.5620012  58.1064997  41.1519988  51.8600012  58.7214997  40.9429988
  52.1180012  57.2684997  41.2829988  52.4056330  58.0775783  41.1410328
  39.8100012  73.8694997  40.6989988  39.1250012  73.8314997  40.0309988
  39.8140012  74.7824997  40.9869988  39.7168193  73.9877016  40.6465284
  41.7700012  59.8374997  38.2429988  42.2620012  59.2074997  37.7159988
  42.3940012  60.1334997  38.9069988  41.9215446  59.7913199  38.2605980
  46.7960012  60.1304997  40.6999988  46.9740012  59.4844997  41.3829988
  46.7430012  60.9644997  41.1679988  46.8131829  60.1547985  40.8565940
  48.6750012  75.0794997  39.0959988  49.5410012  75.4454997  38.9179988
  48.4280012  74.6394997  38.2819988  48.7602392  75.0701756  38.9616289
  55.3840012  74.6424997  41.7749988  55.1890012  73.8944997  41.2099988
  55.3450012  75.4004997  41.1919988  55.3520380  74.6426099  41.6188384
  41.0310012  58.6374997  53.5149988  40.6650012  57.8724997  53.9579988
  41.9440012  58.6664997  53.8019988  41.1042790  58.5367224  53.6144070
  43.0040012  57.9884997  55.0509988  43.9020012  57.7144997  54.8659988
  42.6170012  57.2454997  55.5149988  43.0746612  57.8505914  55.0883643
  41.6280012  74.7894997  37.7239988  41.3610012  75.0764997  38.5969988
  42.4000012  74.2434997  37.8759988  41.6957488  74.7550294  37.8641050
  51.4250012  57.3204997  55.2329988  51.5020012  56.8944997  56.0869988
  52.3190012  57.3344997  54.8899988  51.5563428  57.2640879  55.3035310
  74.9930012  60.5684997  48.6419988  75.0420012  61.1784997  49.3779988
  75.4180012  61.0294997  47.9189988  75.0571824  60.7143741  48.6450205
  75.3840012  62.0464997  50.8779988  74.6960012  62.7044997  50.7819988
  75.4000012  61.8494997  51.8139988  75.2918525  62.1100462  50.9914808
  72.4590012  59.5994997  49.4419988  71.7230012  60.2104997  49.4039988
  73.1420012  60.0144997  48.9149988  72.4506541  59.7391374  49.3655832
  75.0980012  65.9014997  49.7019988  74.4450012  66.5964997  49.7909988
  75.5630012  66.1114997  48.8919988  75.0715390  66.0249425  49.6046883
  75.8110012  72.2424997  53.2129988  75.7620012  71.2874997  53.1759988
  74.9840012  72.5104997  53.6139988  75.6924940  72.1478998  53.2621375
  67.3940012  58.3114997  51.0599988  67.8140012  57.8964997  51.8129988
  66.4610012  58.1334997  51.1769988  67.3253644  58.2305900  51.1789539
  57.1800012  60.9914997  44.4979988  57.8110012  60.9624997  45.2169988
  57.6290012  60.5664997  43.7679988  57.3270774  60.9300492  44.4976553
  73.0930012  76.1104997  54.3199988  73.2930012  76.5344997  53.4849988
  73.7480012  76.4534997  54.9269988  73.2090051  76.2149648  54.2877836
  75.3550012  69.2834997  53.1559988  74.5040012  69.5214997  52.7889988
  75.9460012  69.2664997  52.4029988  75.3182487  69.3138258  53.0038893
  75.5830012  74.7254997  38.8049988  76.3270012  75.3114997  38.6649988
  74.8890012  75.2934997  39.1389988  75.5910292  74.8825582  38.8309961
  59.6580012  61.1014997  51.4069988  58.7650012  61.4404997  51.3389988
  59.5590012  60.2464997  51.8249988  59.5224164  61.0322588  51.4542235
  73.1170012  61.1154997  52.2489988  72.2000012  61.3784997  52.1609988
  73.4520012  61.1124997  51.3519988  73.0369900  61.1510224  52.1157919
  60.3010012  58.2404997  46.7039988  60.0720012  58.2994997  45.7759988
  59.8580012  57.4484997  47.0099988  60.2098530  58.1415753  46.6184786
  59.2590012  65.8034997  54.5689988  59.6670012  64.9464997  54.4479988
  58.9990012  65.8184997  55.4899988  59.2797568  65.6880807  54.6769588
  71.2720012  66.5804997  53.8629988  70.9910012  67.2894997  53.2859988
  72.2150012  66.5074997  53.7119988  71.3609027  66.6677646  53.7635551
  60.2040012  61.2864997  54.6409988  60.4160012  60.5794997  54.0309988
  60.0930012  60.8484997  55.4849988  60.2179721  61.1307084  54.6716843
  64.8850012  75.8534997  38.8509988  65.8180012  76.0114997  38.9939988
  64.6210012  76.5284997  38.2259988  64.9769510  75.9663611  38.7860741
  75.0850012  74.3404997  51.1179988  74.5970012  73.6044997  50.7469988
  75.6340012  73.9464997  51.7959988  75.0924872  74.1866249  51.1589160
  73.5350012  70.1294997  55.7559988  72.6690012  70.0244997  56.1499988
  73.9120012  70.8884997  56.2019988  73.4673308  70.2176900  55.8702393
  74.9900012  69.2244997  48.0409988  75.8230012  68.8464997  47.7609988
  75.1020012  70.1674997  47.9219988  75.1192647  69.3002218  47.9865487
  73.8740012  66.9304997  53.2949988  74.4570012  66.1964997  53.4869988
  74.4380012  67.7024997  53.3419988  74.0299769  66.9344227  53.3276159
  75.3700012  64.8334997  53.9799988  74.5070012  64.4544997  53.8139988
  75.9750012  64.0944997  53.9059988  75.3335979  64.6818023  53.9472817
  73.3400012  63.1244997  47.5549988  74.2730012  63.3364997  47.5209988
  73.1050012  63.2264997  48.4769988  73.4358036  63.1672769  47.6749976
  73.3690012  63.8614997  50.3309988  72.5260012  64.1294997  50.6969988
  73.8110012  64.6834997  50.1199988  73.3134158  64.0093291  50.3525491
  57.6500012  62.3094997  53.8079988  58.5700012  62.1874997  54.0439988
  57.2010012  61.5594997  54.1969988  57.7151580  62.1913727  53.8929006
  75.6520012  57.8414997  55.6839988  76.0020012  57.1874997  55.0789988
  75.7990012  58.6784997  55.2449988  75.7198419  57.8651591  55.5417118
  75.1720012  59.9504997  54.0339988  74.2540012  60.2214997  53.9979988
  75.2950012  59.4154997  53.2489988  75.0631066  59.9152892  53.9230487
  57.4530012  58.6164997  50.1669988  56.7880012  58.3704997  50.8099988
  57.0100012  59.2384997  49.5889988  57.3020956  58.6668632  50.1769352
  69.2550012  75.4514997  52.7729988  69.9320012  74.8184997  52.5329988
  69.5770012  75.8524997  53.5799988  69.3911637  75.4191154  52.8492793
  74.1720012  58.0404997  51.8529988  73.3600012  58.3654997  51.4649988
  74.4050012  57.2804997  51.3199988  74.0923423  57.9822436  51.7278253
  59.9290012  58.1234997  43.9969988  59.1520012  57.8894997  43.4899988
  60.4590012  57.3264997  44.0059988  59.8942330  57.9836988  43.9287742
  58.7650012  57.9214997  39.8009988  59.2040012  58.5324997  39.2089988
  58.1320012  58.4594997  40.2749988  58.7394514  58.0779257  39.7840930
  60.6260012  59.8374997  38.2429988  61.1180012  59.2074997  37.7159988
  61.2500012  60.1334997  38.9069988  60.7775446  59.7913199  38.2605980
  67.5310012  75.0794997  39.0959988  68.3970012  75.4454997  38.9179988
  67.2840012  74.6394997  38.2819988  67.6162392  75.0701756  38.9616289
  59.8870012  58.6374997  53.5149988  59.5210012  57.8724997  53.9579988
  60.8000012  58.6664997  53.8019988  59.9602790  58.5367224  53.6144070
  61.8600012  57.9884997  55.0509988  62.7580012  57.7144997  54.8659988
  61.4730012  57.2454997  55.5149988  61.9306612  57.8505914  55.0883643
  70.2810012  57.3204997  55.2329988  70.3580012  56.8944997  56.0869988
  71.1750012  57.3344997  54.8899988  70.4123428  57.2640879  55.3035310
  80.0880012  70.5994997  47.5029988  79.7190012  69.7974997  47.1329988
  81.0290012  70.4304997  47.5489988  80.1647289  70.4670153  47.4586316
  77.4090012  66.4214997  45.0219988  77.6220012  65.6514997  45.5489988
  78.1470012  66.5104997  44.4179988  77.5378496  66.3281394  45.0125300
  93.8490012  60.5684997  48.6419988  93.8980012  61.1784997  49.3779988
  94.2740012  61.0294997  47.9189988  93.9131824  60.7143741  48.6450205
  81.4810012  61.4624997  45.3809988  81.5250012  62.3224997  44.9629988
  81.0240012  60.9104997  44.7469988  81.4252185  61.5055799  45.2380299
  78.1020012  63.8594997  46.1429988  78.7550012  63.3094997  46.5749988
  78.1260012  63.5854997  45.2259988  78.1946683  63.7471466  46.0782123
  94.2400012  62.0464997  50.8779988  93.5520012  62.7044997  50.7819988
  94.2560012  61.8494997  51.8139988  94.1478525  62.1100462  50.9914808
  80.2920012  60.3804997  49.4549988  80.0730012  60.9104997  48.6889988
  79.6240012  60.6074997  50.1019988  80.1717600  60.4836906  49.4376379
  82.8610012  68.0564997  49.7419988  82.1210012  68.6544997  49.8459988
  83.5750012  68.6104997  49.4269988  82.8562237  68.2132831  49.7136465
  79.8850012  62.2724997  47.4069988  80.4990012  62.9054997  47.7809988
  80.3970012  61.8004997  46.7509988  80.0382296  62.2952370  47.3694252
  91.3150012  59.5994997  49.4419988  90.5790012  60.2104997  49.4039988
  91.9980012  60.0144997  48.9149988  91.3066541  59.7391374  49.3655832
  84.3180012  57.6864997  46.9079988  84.2010012  56.7374997  46.8529988
  83.4630012  58.0184997  47.1809988  84.1863733  57.6015409  46.9373897
  92.1120012  69.5614997  51.6359988  92.2520012  68.9704997  50.8959988
  92.2790012  70.4344997  51.2789988  92.1536778  69.5986426  51.4866965
  93.9540012  65.9014997  49.7019988  93.3010012  66.5964997  49.7909988
  94.4190012  66.1114997  48.8919988  93.9275390  66.0249425  49.6046883
  89.8880012  64.9074997  51.4269988  89.9680012  65.6704997  51.9989988
  89.2860012  65.1864997  50.7369988  89.8175756  65.0497134  51.4120589
  82.0020012  66.1324997  47.8759988  82.5680012  66.2534997  47.1129988
  82.3210012  66.7694997  48.5149988  82.1225786  66.2351884  47.8580040
  76.7190012  68.7964997  50.6469988  76.2180012  68.7684997  49.8319988
  76.7240012  67.8904997  50.9559988  76.6511526  68.6702278  50.5772872
  94.6670012  72.2424997  53.2129988  94.6180012  71.2874997  53.1759988
  93.8400012  72.5104997  53.6139988  94.5484940  72.1478998  53.2621375
  91.8190012  63.7354997  53.6929988  91.4120012  64.2164997  52.9719988
  91.8600012  62.8304997  53.3849988  91.7688437  63.6789374  53.5526683
  78.9680012  70.1194997  51.6899988  79.1840012  69.7584997  52.5489988
  78.1130012  69.7454997  51.4799988  78.8819292  70.0194111  51.7793386
  81.5870012  58.5894997  47.6849988  80.7250012  58.5024997  47.2779988
  81.5640012  59.4454997  48.1129988  81.4660330  58.6932765  47.6871863
  86.2500012  58.3114997  51.0599988  86.6700012  57.8964997  51.8129988
  85.3170012  58.1334997  51.1769988  86.1813644  58.2305900  51.1789539
  89.5760012  62.0674997  51.9129988  89.0620012  61.9414997  52.7109988
  89.4210012  62.9794997  51.6689988  89.4846852  62.1736132  51.9892158
  81.6780012  63.5554997  48.7799988  81.0360012  63.5144997  49.4889988
  81.7150012  64.4814997  48.5429988  81.5951324  63.6751559  48.8449824
  86.3120012  64.3674997  53.9969988  85.7500012  63.6634997  54.3179988
  87.1390012  64.2474997  54.4649988  86.3467095  64.2547883  54.1042330
  84.2560012  61.2034997  44.7789988  83.3450012  61.2604997  45.0669988
  84.7620012  61.1434997  45.5889988  84.1995413  61.2031985  44.9280622
  88.6610012  60.4384997  48.0429988  87.9850012  60.5694997  48.7069988
  88.1760012  60.2834997  47.2329988  88.5027145  60.4354905  48.0244517
  91.9490012  76.1104997  54.3199988  92.1490012  76.5344997  53.4849988
  92.6040012  76.4534997  54.9269988  92.0650051  76.2149648  54.2877836
  79.8720012  67.8874997  46.5339988  80.6170012  67.8854997  45.9329988
  79.9500012  67.0644997  47.0159988  79.9845518  67.7759315  46.5168929
  94.2110012  69.2834997  53.1559988  93.3600012  69.5214997  52.7889988
  94.8020012  69.2664997  52.4029988  94.1742487  69.3138258  53.0038893
  90.3910012  73.8684997  51.9999988  89.7900012  73.3134997  51.5039988
  90.6730012  74.5354997  51.3739988  90.3468519  73.8826841  51.8474951
  78.5140012  61.1014997  51.4069988  77.6210012  61.4404997  51.3389988
  78.4150012  60.2464997  51.8249988  78.3784164  61.0322588  51.4542235
  78.1650012  72.9064997  49.8419988  78.3820012  71.9744997  49.8109988
  78.4110012  73.1804997  50.7249988  78.2279549  72.8160636  49.9571763
  87.2480012  60.8424997  50.2969988  87.9470012  60.9164997  50.9469988
  86.8670012  59.9784997  50.4509988  87.2921767  60.7357624  50.4068322
  85.7680012  63.2084997  51.4139988  85.8870012  63.7824997  52.1709988
  86.4240012  62.5204997  51.5279988  85.8729757  63.1941079  51.5330825
  86.1160012  59.3034997  43.1669988  85.7700012  59.9214997  43.8119988
  86.7750012  59.8044997  42.6859988  86.1577826  59.4555802  43.1900971
  91.9730012  61.1154997  52.2489988  91.0560012  61.3784997  52.1609988
  92.3080012  61.1124997  51.3519988  91.8929900  61.1510224  52.1157919
  79.1570012  58.2404997  46.7039988  78.9280012  58.2994997  45.7759988
  78.7140012  57.4484997  47.0099988  79.0658530  58.1415753  46.6184786
  77.3750012  74.7934997  54.1939988  77.9160012  74.5764997  54.9539988
  76.8940012  73.9874997  54.0049988  77.3839345  74.6549514  54.2723076
  88.5500012  72.0924997  54.5439988  88.1990012  71.2364997  54.7869988
  89.2760012  72.2354997  55.1509988  88.6000769  71.9945636  54.6593619
  77.2820012  68.6034997  55.1489988  77.4260012  67.7014997  54.8619988
  76.5100012  68.8894997  54.6609988  77.1973322  68.5188261  55.0437881
  87.0820012  67.2844997  55.2199988  88.0350012  67.3674997  55.1929988
  86.9210012  66.5724997  55.8399988  87.1906426  67.1996746  55.3000579
  82.4010012  62.1674997  53.0249988  82.5510012  61.4384997  52.4229988
  82.4040012  62.9444997  52.4659988  82.4219302  62.1727851  52.8670692
  82.8140012  60.5374997  50.5179988  83.3500012  60.9884997  49.8659988
  81.9620012  60.4294997  50.0949988  82.7722178  60.5846390  50.3715756
  84.3960012  65.9764997  50.7569988  85.1460012  65.8204997  50.1839988
  84.0570012  66.8284997  50.4819988  84.4528921  66.0702968  50.6413561
  90.1280012  66.5804997  53.8629988  89.8470012  67.2894997  53.2859988
  91.0710012  66.5074997  53.7119988  90.2169027  66.6677646  53.7635551
  80.8800012  63.3654997  54.9369988  80.1130012  62.8334997  54.7269988
  81.5590012  63.0554997  54.3369988  80.8667022  63.2507506  54.8271648
  83.6200012  57.9934997  50.9489988  83.5210012  58.9404997  50.8439988
  82.8770012  57.6214997  50.4739988  83.5060564  58.0725902  50.8704560
  84.8840012  62.3154997  54.5129988  84.6480012  62.0954997  55.4149988
  84.1000012  62.1084997  54.0029988  84.7458628  62.2574760  54.5673932
  87.5990012  61.4424997  53.5889988  86.6520012  61.4744997  53.7209988
  87.9120012  60.8174997  54.2419988  87.5115475  61.3623207  53.6954455
  89.2330012  60.0764997  55.5939988  89.1370012  59.1244997  55.5879988
  88.9120012  60.3454997  56.4539988  89.1764070  59.9824035  55.7095441
  79.0600012  61.2864997  54.6409988  79.2720012  60.5794997  54.0309988
  78.9490012  60.8484997  55.4849988  79.0739721  61.1307084  54.6716843
  83.8410012  57.2874997  53.6209988  84.5530012  56.6474997  53.6069988
  83.7400012  57.5544997  52.7069988  83.9247939  57.2359938  53.4955650
  84.1950012  58.9704997  55.6739988  84.0630012  58.4944997  54.8539988
  83.5960012  59.7144997  55.6189988  84.0959071  59.0059618  55.5542886
  94.3770012  74.7724997  48.1959988  94.3560012  74.9574997  49.1349988
  95.0680012  75.3414997  47.8549988  94.4674618  74.8746606  48.2783864
  93.9410012  74.3404997  51.1179988  93.4530012  73.6044997  50.7469988
  94.4900012  73.9464997  51.7959988  93.9484872  74.1866249  51.1589160
  92.3910012  70.1294997  55.7559988  91.5250012  70.0244997  56.1499988
  92.7680012  70.8884997  56.2019988  92.3233308  70.2176900  55.8702393
  92.3320012  72.1024997  50.3479988  91.6850012  72.4274997  50.9739988
  91.8150012  71.6624997  49.6739988  92.1734029  72.0875004  50.3425827
  76.9090012  67.0384997  47.6669988  77.0930012  66.9564997  46.7309988
  77.7580012  66.9144997  48.0909988  77.0490139  67.0105003  47.5961455
  92.7300012  66.9304997  53.2949988  93.3130012  66.1964997  53.4869988
  93.2940012  67.7024997  53.3419988  92.8859769  66.9344227  53.3276159
  94.2260012  64.8334997  53.9799988  93.3630012  64.4544997  53.8139988
  94.8310012  64.0944997  53.9059988  94.1895979  64.6818023  53.9472817
  92.1960012  63.1244997  47.5549988  93.1290012  63.3364997  47.5209988
  91.9610012  63.2264997  48.4769988  92.2918036  63.1672769  47.6749976
  92.2250012  63.8614997  50.3309988  91.3820012  64.1294997  50.6969988
  92.6670012  64.6834997  50.1199988  92.1694158  64.0093291  50.3525491
  76.5060012  62.3094997  53.8079988  77.4260012  62.1874997  54.0439988
  76.0570012  61.5594997  54.1969988  76.5711580  62.1913727  53.8929006
  94.5080012  57.8414997  55.6839988  94.8580012  57.1874997  55.0789988
  94.6550012  58.6784997  55.2449988  94.5758419  57.8651591  55.5417118
  77.7270012  60.6214997  46.6989988  78.1730012  59.8294997  47.0009988
  78.1940012  61.3374997  47.1299988  77.8510172  60.6100624  46.7984820
  76.0310012  63.6204997  47.7679988  76.5230012  63.3994997  46.9769988
  76.3940012  64.4614997  48.0489988  76.1473126  63.7038357  47.6977531
  94.0280012  59.9504997  54.0339988  93.1100012  60.2214997  53.9979988
  94.1510012  59.4154997  53.2489988  93.9191066  59.9152892  53.9230487
  76.3090012  58.6164997  50.1669988  75.6440012  58.3704997  50.8099988
  75.8660012  59.2384997  49.5889988  76.1580956  58.6668632  50.1769352
  85.7660012  74.1654997  53.5289988  85.9510012  73.8314997  54.4069988
  86.6120012  74.4744997  53.2069988  85.9057539  74.1616047  53.6055605
  88.1110012  75.4514997  52.7729988  88.7880012  74.8184997  52.5329988
  88.4330012  75.8524997  53.5799988  88.2471637  75.4191154  52.8492793
  93.0280012  58.0404997  51.8529988  92.2160012  58.3654997  51.4649988
  93.2610012  57.2804997  51.3199988  92.9483423  57.9822436  51.7278253
  78.8570012  76.0224997  50.6169988  78.1360012  76.4624997  50.1659988
  78.4910012  75.7714997  51.4659988  78.7089804  76.0487698  50.6699840
  81.3240012  75.6224997  49.6469988  80.4590012  75.6944997  50.0509988
  81.2690012  76.1694997  48.8629988  81.1982085  75.7062685  49.5963362
  86.0340012  75.5104997  48.8219988  85.5780012  76.0394997  48.1679988
  86.1970012  76.1134997  49.5479988  85.9935585  75.6644468  48.8305062
  88.3620012  74.3884997  49.7669988  87.4570012  74.5534997  49.5019988
  88.7910012  75.2414997  49.7019988  88.2960799  74.5264483  49.7219182
  90.9660012  75.9584997  50.0619988  90.7840012  76.8744997  49.8519988
  91.1430012  75.5484997  49.2159988  90.9650210  76.0284822  49.9187885
  86.4580012  59.4894997  46.1749988  85.7840012  58.8604997  46.4309988
  87.0220012  59.0054997  45.5719988  86.4419230  59.3378744  46.1285340
  91.6010012  57.5974997  46.2879988  92.2050012  58.1444997  45.7859988
  90.7310012  57.9164997  46.0479988  91.5661241  57.7155806  46.1867654
  93.3280012  58.7354997  44.6209988  93.9400012  58.2214997  44.0949988
  93.7100012  59.6134997  44.6449988  93.4634540  58.7837140  44.5521830
  88.9210012  58.0804997  45.4599988  88.9970012  58.1754997  44.5099988
  88.6460012  57.1724997  45.5889988  88.8942321  57.9707867  45.3475079
  78.7430012  58.6374997  53.5149988  78.3770012  57.8724997  53.9579988
  79.6560012  58.6664997  53.8019988  78.8162790  58.5367224  53.6144070
  80.7160012  57.9884997  55.0509988  81.6140012  57.7144997  54.8659988
  80.3290012  57.2454997  55.5149988  80.7866612  57.8505914  55.0883643
  89.1370012  57.3204997  55.2329988  89.2140012  56.8944997  56.0869988
  90.0310012  57.3344997  54.8899988  89.2683428  57.2640879  55.3035310
  92.3130012  73.3934997  53.9249988  91.5310012  73.2074997  53.4059988
  92.2410012  74.3224997  54.1429988  92.1961777  73.4936492  53.8834048
 106.7190012  67.2794997  43.9559988 106.8080012  68.2234997  43.8239988
 106.0810012  67.0044997  43.2979988 106.6449081  67.3714830  43.8489614
 105.6520012  66.5344997  47.3749988 105.6140012  65.8884997  48.0799988
 105.3300012  66.0684997  46.6039988 105.6032333  66.3829408  47.3672978
  98.0210012  66.1494997  48.9679988  98.0620012  65.5234997  49.6909988
  98.7240012  66.7734997  49.1499988  98.1216363  66.1481196  49.0916044
 109.3580012  69.4734997  45.6759988 108.9180012  68.7534997  46.1269988
 109.3450012  70.1944997  46.3059988 109.2960226  69.4723731  45.8228494
  98.9440012  70.5994997  47.5029988  98.5750012  69.7974997  47.1329988
  99.8850012  70.4304997  47.5489988  99.0207289  70.4670153  47.4586316
  95.5540012  64.2594997  42.8959988  95.1070012  65.1054997  42.8769988
  94.9930012  63.6794997  42.3799988  95.4169900  64.2969916  42.8236801
  96.2650012  66.4214997  45.0219988  96.4780012  65.6514997  45.5489988
  97.0030012  66.5104997  44.4179988  96.3938496  66.3281394  45.0125300
 106.4700012  74.5784997  45.8889988 107.0900012  73.9014997  45.6149988
 106.2620012  74.3604997  46.7969988 106.5266904  74.4563870  45.9743365
 104.0420012  68.9674997  47.7809988 104.3460012  68.2814997  47.1859988
 104.7630012  69.0854997  48.3989988 104.1810671  68.8896305  47.7831816
 112.7050012  60.5684997  48.6419988 112.7540012  61.1784997  49.3779988
 113.1300012  61.0294997  47.9189988 112.7691824  60.7143741  48.6450205
 107.1830012  63.3614997  48.1089988 107.3250012  62.4154997  48.1289988
 107.0760012  63.5684997  47.1799988 107.1879864  63.2599534  47.9862339
 100.3370012  61.4624997  45.3809988 100.3810012  62.3224997  44.9629988
  99.8800012  60.9104997  44.7469988 100.2812185  61.5055799  45.2380299
 108.0600012  61.5934997  43.7819988 108.7060012  61.2644997  44.4069988
 108.5700012  62.1114997  43.1589988 108.2174264  61.6184611  43.7833862
  96.9580012  63.8594997  46.1429988  97.6110012  63.3094997  46.5749988
  96.9820012  63.5854997  45.2259988  97.0506683  63.7471466  46.0782123
 102.1140012  65.4094997  45.3579988 102.7300012  64.8834997  45.8679988
 101.5280012  64.7694997  44.9549988 102.1190810  65.2509208  45.3733173
 113.0960012  62.0464997  50.8779988 112.4080012  62.7044997  50.7819988
 113.1120012  61.8494997  51.8139988 113.0038525  62.1100462  50.9914808
  99.1480012  60.3804997  49.4549988  98.9290012  60.9104997  48.6889988
  98.4800012  60.6074997  50.1019988  99.0277600  60.4836906  49.4376379
 106.5170012  69.8804997  42.9989988 106.2210012  69.5584997  42.1479988
 106.1920012  70.7804997  43.0399988 106.4326371  69.9580215  42.8881801
 101.7170012  68.0564997  49.7419988 100.9770012  68.6544997  49.8459988
 102.4310012  68.6104997  49.4269988 101.7122237  68.2132831  49.7136465
 109.8240012  60.8844997  45.7619988 109.6080012  60.1184997  46.2949988
 110.4790012  61.3564997  46.2749988 109.8830632  60.8435889  45.9042861
  98.7410012  62.2724997  47.4069988  99.3550012  62.9054997  47.7809988
  99.2530012  61.8004997  46.7509988  98.8942296  62.2952370  47.3694252
 100.1240012  70.0204997  50.5299988 100.1190012  70.9004997  50.1519988
  99.2710012  69.9374997  50.9549988 100.0079464  70.1296117  50.5357907
 109.8700012  71.3134997  48.0239988 108.9290012  71.3714997  48.1859988
 110.1470012  72.2194997  47.8869988 109.7784679  71.4439443  48.0276815
 110.1710012  59.5994997  49.4419988 109.4350012  60.2104997  49.4039988
 110.8540012  60.0144997  48.9149988 110.1626541  59.7391374  49.3655832
 103.1740012  57.6864997  46.9079988 103.0570012  56.7374997  46.8529988
 102.3190012  58.0184997  47.1809988 103.0423733  57.6015409  46.9373897
 108.1220012  73.0944997  44.6499988 108.5480012  72.3874997  44.1649988
 108.4390012  73.8954997  44.2329988 108.2231019  73.1060994  44.5273130
 109.2820012  70.9954997  43.1579988 109.0240012  70.3054997  42.5469988
 109.3530012  70.5524997  44.0039988 109.2562856  70.8412124  43.1886885
 110.9680012  69.5614997  51.6359988 111.1080012  68.9704997  50.8959988
 111.1350012  70.4344997  51.2789988 111.0096778  69.5986426  51.4866965
 105.4410012  66.5234997  41.4079988 104.7290012  67.0584997  41.0559988
 106.1320012  66.5794997  40.7479988 105.4370132  66.6042543  41.2706289
 105.4940012  64.9814997  38.4469988 106.1950012  65.0034997  39.0979988
 105.7970012  64.3534997  37.7909988 105.6307830  64.8996566  38.4473711
 112.8100012  65.9014997  49.7019988 112.1570012  66.5964997  49.7909988
 113.2750012  66.1114997  48.8919988 112.7835390  66.0249425  49.6046883
 108.8460012  66.7334997  42.3599988 108.1140012  66.9614997  42.9329988
 109.2940012  66.0194997  42.8149988 108.8063095  66.6682571  42.4999119
 108.7440012  64.9074997  51.4269988 108.8240012  65.6704997  51.9989988
 108.1420012  65.1864997  50.7369988 108.6735756  65.0497134  51.4120589
 100.4920012  67.3634997  44.2419988 100.1610012  66.9934997  43.4239988
 101.0800012  66.6934997  44.5889988 100.5261873  67.2221156  44.1768102
 101.8580012  70.7914997  46.9239988 101.7640012  70.2134997  46.1669988
 102.5880012  70.4204997  47.4199988 101.9437981  70.6622390  46.8874165
 100.8580012  66.1324997  47.8759988 101.4240012  66.2534997  47.1129988
 101.1770012  66.7694997  48.5149988 100.9785786  66.2351884  47.8580040
 107.1670012  71.6354997  48.6099988 106.9270012  72.2974997  49.2579988
 106.9690012  70.8014997  49.0349988 107.1073808  71.6133134  48.7561524
 101.7380012  70.5314997  52.5929988 101.4270012  71.3134997  53.0479988
 101.0880012  70.3784997  51.9069988 101.6075558  70.6179105  52.5625871
 107.7170012  65.8954997  40.0449988 108.2970012  66.0454997  40.7919988
 108.1310012  66.3664997  39.3219988 107.8522830  65.9796841  40.0494134
  98.6580012  66.7294997  51.8219988  98.7290012  67.3804997  52.5199988
  97.7680012  66.8324997  51.4869988  98.5473117  66.8325936  51.8722700
 105.4440012  72.6324997  43.4799988 105.9180012  72.9274997  44.2579988
 104.8810012  73.3704997  43.2469988 105.4327653  72.7726932  43.5550136
  99.9780012  72.6034997  53.3559988  99.9850012  72.4674997  52.4089988
  99.0620012  72.4854997  53.6079988  99.8551714  72.5689430  53.2604666
 111.4160012  57.6454997  39.8579988 110.5160012  57.7844997  40.1529988
 111.6680012  58.4764997  39.4559988 111.3268702  57.7769074  39.8440205
  99.4820012  66.4334997  41.8319988  99.1900012  67.2014997  41.3409988
  98.8080012  65.7734997  41.6689988  99.3509081  66.4494406  41.7427340
 112.6050012  72.0114997  38.2339988 112.6790012  72.9504997  38.4049988
 113.5110012  71.7064997  38.1779988 112.7375100  72.0986722  38.2498119
  95.5750012  68.7964997  50.6469988  95.0740012  68.7684997  49.8319988
  95.5800012  67.8904997  50.9559988  95.5071526  68.6702278  50.5772872
  95.3250012  71.5764997  47.5309988  96.2710012  71.4324997  47.5119988
  95.2130012  72.3604997  48.0679988  95.4392727  71.6628046  47.6010072
 113.5230012  72.2424997  53.2129988 113.4740012  71.2874997  53.1759988
 112.6960012  72.5104997  53.6139988 113.4044940  72.1478998  53.2621375
 104.5020012  71.8164997  52.0889988 104.5890012  72.6424997  52.5639988
 103.6380012  71.4864997  52.3379988 104.3971964  71.8849878  52.1876549
 104.9160012  75.5884997  41.8949988 104.8410012  75.4674997  40.9489988
 104.9490012  76.5384997  42.0139988 104.9101848  75.7002500  41.7814834
  98.5690012  74.3774997  43.6759988  98.7220012  74.0294997  44.5549988
  97.7190012  74.0214997  43.4209988  98.4748962  74.2816650  43.7618340
 108.0180012  74.7424997  38.8969988 108.3930012  73.9984997  38.4269988
 108.0220012  74.4724997  39.8159988 108.0698915  74.6041486  38.9567824
 107.6870012  74.6684997  41.6469988 106.7510012  74.7684997  41.8249988
 107.9670012  73.9594997  42.2249988 107.5968255  74.5862711  41.7495391
 110.6750012  63.7354997  53.6929988 110.2680012  64.2164997  52.9719988
 110.7160012  62.8304997  53.3849988 110.6248437  63.6789374  53.5526683
  97.8240012  70.1194997  51.6899988  98.0400012  69.7584997  52.5489988
  96.9690012  69.7454997  51.4799988  97.7379292  70.0194111  51.7793386
 100.4430012  58.5894997  47.6849988  99.5810012  58.5024997  47.2779988
 100.4200012  59.4454997  48.1129988 100.3220330  58.6932765  47.6871863
 105.1060012  58.3114997  51.0599988 105.5260012  57.8964997  51.8129988
 104.1730012  58.1334997  51.1769988 105.0373644  58.2305900  51.1789539
 108.4320012  62.0674997  51.9129988 107.9180012  61.9414997  52.7109988
 108.2770012  62.9794997  51.6689988 108.3406852  62.1736132  51.9892158
 109.1950012  66.9284997  37.6749988 109.2370012  66.7054997  36.7449988
 110.0440012  67.3274997  37.8649988 109.3155396  66.9519155  37.5733627
 104.7670012  60.8044997  38.3449988 104.5140012  60.8234997  39.2679988
 104.5110012  59.9324997  38.0439988 104.6977790  60.6892437  38.4306263
 100.5340012  63.5554997  48.7799988  99.8920012  63.5144997  49.4889988
 100.5710012  64.4814997  48.5429988 100.4511324  63.6751559  48.8449824
 100.5310012  63.7764997  43.6919988  99.6380012  63.4354997  43.6339988
 100.9810012  63.3994997  42.9369988 100.4697305  63.6788484  43.5819177
 106.0660012  64.1924997  42.5089988 105.6570012  65.0074997  42.2179988
 106.7870012  64.0524997  41.8949988 106.1074537  64.2852018  42.3861342
 105.1680012  64.3674997  53.9969988 104.6060012  63.6634997  54.3179988
 105.9950012  64.2474997  54.4649988 105.2027095  64.2547883  54.1042330
 107.0710012  63.6384997  45.3229988 106.8760012  64.2434997  44.6079988
 107.2520012  62.8044997  44.8889988 107.0687614  63.6086300  45.1664405
  98.2840012  63.8754997  50.6469988  98.2460012  64.2754997  51.5159988
  97.7930012  63.0584997  50.7379988  98.2124684  63.8198069  50.7781059
 101.6500012  61.2494997  37.4459988 101.2190012  60.8044997  38.1759988
 100.9320012  61.6214997  36.9339988 101.4939438  61.2388940  37.4766799
  94.8920012  60.9914997  44.4979988  95.5230012  60.9624997  45.2169988
  95.3410012  60.5664997  43.7679988  95.0390774  60.9300492  44.4976553
  96.1660012  61.7374997  39.9219988  96.6400012  62.3284997  39.3369988
  95.4490012  62.2684997  40.2689988  96.1339341  61.8900867  39.8888836
 106.3350012  65.2764997  49.9949988 106.6580012  64.6454997  49.3519988
 105.8950012  64.7414997  50.6549988 106.3196895  65.1178441  49.9962850
 103.1120012  61.2034997  44.7789988 102.2010012  61.2604997  45.0669988
 103.6180012  61.1434997  45.5889988 103.0555413  61.2031985  44.9280622
  97.9410012  62.8324997  43.6049988  97.0510012  62.9324997  43.2649988
  98.2370012  61.9904997  43.2589988  97.8592823  62.7323545  43.5117213
 101.5940012  62.8324997  41.2619988 102.5250012  62.9614997  41.4399988
 101.3790012  63.5024997  40.6119988 101.6924247  62.9406565  41.1985747
 107.5170012  60.4384997  48.0429988 106.8410012  60.5694997  48.7069988
 107.0320012  60.2834997  47.2329988 107.3587145  60.4354905  48.0244517
 100.2680012  64.0274997  38.8289988  99.7250012  63.6474997  38.1369988
 101.1010012  64.2214997  38.3999988 100.3064399  64.0018124  38.6764526
 110.8050012  76.1104997  54.3199988 111.0050012  76.5344997  53.4849988
 111.4600012  76.4534997  54.9269988 110.9210051  76.2149648  54.2877836
  98.4030012  68.5844997  53.9279988  99.1350012  68.8384997  54.4889988
  97.6230012  68.7884997  54.4429988  98.3978232  68.6469177  54.0745760
 104.4320012  63.9914997  46.6659988 104.9970012  63.4444997  46.1189988
 104.2850012  63.4694997  47.4539988 104.4892918  63.8462024  46.6978454
  99.4340012  60.1274997  43.0839988  99.1170012  59.2254997  43.0489988
 100.2160012  60.1294997  42.5309988  99.4962284  60.0041628  43.0044783
 103.0590012  62.3794997  49.0799988 102.2230012  62.8334997  49.1899988
 103.5830012  62.6554997  49.8319988 103.0154414  62.4789376  49.1967136
 103.6030012  68.5924997  40.7639988 102.8580012  68.0854997  40.4419988
 103.4690012  68.6414997  41.7109988 103.4828776  68.5296940  40.8478647
 110.7530012  67.7254997  49.5509988 111.3950012  68.1824997  49.0069988
 109.9230012  67.8384997  49.0879988 110.7285963  67.8032704  49.4140177
 107.5010012  61.4064997  38.9639988 106.5620012  61.5184997  38.8119988
 107.7980012  62.2634997  39.2699988 107.4127666  61.5376443  38.9845768
 105.1220012  68.7764997  52.0009988 104.7770012  68.3954997  52.8079988
 104.9220012  69.7104997  52.0729988 105.0478061  68.8505228  52.1210961
 108.2190012  63.2734997  40.6239988 109.1110012  63.1364997  40.9429988
 108.2760012  64.0644997  40.0879988 108.3486285  63.3616660  40.5951690
  98.7280012  67.8874997  46.5339988  99.4730012  67.8854997  45.9329988
  98.8060012  67.0644997  47.0159988  98.8405518  67.7759315  46.5168929
 105.7290012  70.0514997  39.7899988 105.4330012  70.8774997  40.1709988
 105.0260012  69.4314997  39.9859988 105.5934914  70.0808199  39.8686443
  95.7360012  66.3484997  51.8489988  95.9590012  65.9304997  52.6809988
  95.1340012  65.7354997  51.4259988  95.6851759  66.2084668  51.9057022
 102.7520012  65.8654997  54.0619988 102.4560012  65.6994997  53.1669988
 103.6840012  65.6454997  54.0509988 102.8374166  65.8130640  53.9380536
 107.3730012  71.2384997  51.9519988 106.4720012  71.4214997  51.6839988
 107.4070012  71.4974997  52.8729988 107.2543041  71.2985512  52.0398197
 113.1040012  63.4834997  40.3189988 112.5500012  63.0874997  39.6469988
 113.2040012  64.3934997  40.0409988 113.0417059  63.5523586  40.1894401
 113.0670012  69.2834997  53.1559988 112.2160012  69.5214997  52.7889988
 113.6580012  69.2664997  52.4029988 113.0302487  69.3138258  53.0038893
 111.3990012  72.2694997  40.7839988 111.0260012  71.4434997  41.0929988
 111.6770012  72.0864997  39.8869988 111.3855630  72.1317303  40.7049626
 108.5600012  67.0774997  47.8049988 107.6310012  66.8454997  47.7779988
 109.0110012  66.3004997  47.4749988 108.4939216  66.9407238  47.7566917
 101.1030012  71.4054997  43.9379988 101.6300012  72.1784997  43.7379988
 100.2230012  71.6304997  43.6369988 101.0561773  71.5418005  43.8699010
 102.5300012  69.0684997  43.5149988 102.2890012  69.9934997  43.5559988
 101.7890012  68.6094997  43.9109988 102.3968409  69.1331421  43.5741377
 103.0450012  73.2174997  49.8299988 103.4070012  74.0724997  49.5959988
 103.5760012  72.9254997  50.5699988 103.1664473  73.2951060  49.8980855
 101.2130012  74.0904997  43.0599988 100.2630012  74.1954997  43.1109988
 101.5650012  74.9104997  43.4049988 101.1304203  74.2158314  43.1136650
 106.5890012  69.3164997  49.5299988 106.1630012  69.0894997  50.3569988
 107.1690012  68.5784997  49.3479988 106.6091868  69.1855299  49.6185830
 108.7920012  70.2454997  38.6039988 109.1450012  69.8654997  39.4089988
 107.8430012  70.1524997  38.6909988 108.7120441  70.1809596  38.7258559
 109.2470012  73.8684997  51.9999988 108.6460012  73.3134997  51.5039988
 109.5290012  74.5354997  51.3739988 109.2028519  73.8826841  51.8474952
 113.2950012  74.7254997  38.8049988 114.0390012  75.3114997  38.6649988
 112.6010012  75.2934997  39.1389988 113.3030292  74.8825582  38.8309961
  97.3700012  61.1014997  51.4069988  96.4770012  61.4404997  51.3389988
  97.2710012  60.2464997  51.8249988  97.2344164  61.0322588  51.4542235
 109.6580012  68.9184997  40.8309988 109.3800012  68.1904997  41.3869988
 110.5850012  69.0374997  41.0359988 109.7453124  68.8348802  40.9348845
  97.0210012  72.9064997  49.8419988  97.2380012  71.9744997  49.8109988
  97.2670012  73.1804997  50.7249988  97.0839549  72.8160636  49.9571763
 102.8830012  71.3574997  37.0509988 103.1220012  70.6094997  36.5039988
 102.6140012  70.9694997  37.8839988 102.8793675  71.2026638  37.0886865
 101.8200012  70.9274997  39.5079988 101.9660012  70.4074997  40.2979988
 101.8170012  71.8344997  39.8139988 101.8395989  70.9788853  39.6576088
 106.1040012  60.8424997  50.2969988 106.8030012  60.9164997  50.9469988
 105.7230012  59.9784997  50.4509988 106.1481767  60.7357624  50.4068322
 106.8890012  60.4944997  41.3939988 107.1090012  60.9664997  40.5909988
 107.4470012  60.8894997  42.0639988 106.9944968  60.6124285  41.3747331
 104.5570012  72.6254997  40.2569988 103.7410012  73.1224997  40.3089988
 105.0870012  73.1004997  39.6169988 104.5169161  72.7577722  40.1775956
 104.0890012  62.2224997  42.2289988 104.9010012  62.7274997  42.2749988
 103.8440012  62.0774997  43.1429988 104.1670520  62.2720375  42.3588517
 104.6240012  63.2084997  51.4139988 104.7430012  63.7824997  52.1709988
 105.2800012  62.5204997  51.5279988 104.7289757  63.1941079  51.5330825
 104.9720012  59.3034997  43.1669988 104.6260012  59.9214997  43.8119988
 105.6310012  59.8044997  42.6859988 105.0137826  59.4555802  43.1900971
 100.6300012  60.3664997  39.8539988 100.5470012  61.2554997  40.2009988
 101.5200012  60.1014997  40.0859988 100.7389469  60.4521430  39.9327626
 110.8290012  61.1154997  52.2489988 109.9120012  61.3784997  52.1609988
 111.1640012  61.1124997  51.3519988 110.7489900  61.1510224  52.1157919
 109.4310012  64.8664997  46.3439988 108.6330012  64.4514997  46.0159988
 109.8760012  64.1754997  46.8349988 109.3819885  64.7163543  46.3654889
  97.2050012  63.4584997  38.0309988  97.1600012  64.3974997  38.2089988
  96.3170012  63.2224997  37.7609988  97.0788574  63.5551892  38.0188912
 110.5170012  74.1224997  47.9669988 110.3620012  74.8004997  47.3099988
 111.4500012  74.1944997  48.1699988 110.6218500  74.2250170  47.9045119
  98.0130012  58.2404997  46.7039988  97.7840012  58.2994997  45.7759988
  97.5700012  57.4484997  47.0099988  97.9218530  58.1415753  46.6184786
  96.2310012  74.7934997  54.1939988  96.7720012  74.5764997  54.9539988
  95.7500012  73.9874997  54.0049988  96.2399345  74.6549514  54.2723076
 100.8290012  73.7124997  55.8149988 101.5960012  73.2534997  56.1559988
 100.8070012  73.4864997  54.8849988 100.9311434  73.6190409  55.7360043
 104.9210012  73.2204997  37.1899988 104.2770012  72.5894997  37.5109988
 105.6830012  72.6894997  36.9579988 104.9358077  73.0622920  37.2026011
 107.4060012  72.0924997  54.5439988 107.0550012  71.2364997  54.7869988
 108.1320012  72.2354997  55.1509988 107.4560769  71.9945636  54.6593619
 109.5250012  73.0374997  37.4239988 109.8080012  72.2434997  37.8759988
 110.2650012  73.2704997  36.8629988 109.6637486  72.9602803  37.4100698
  96.1380012  68.6034997  55.1489988  96.2820012  67.7014997  54.8619988
  95.3660012  68.8894997  54.6609988  96.0533323  68.5188261  55.0437881
 100.4800012  68.9474997  37.2809988 100.5440012  68.1534997  37.8119988
 101.1330012  68.8284997  36.5909988 100.5770241  68.8227148  37.2604317
 102.7940012  68.5734997  54.5809988 102.4650012  68.8444997  53.7239988
 102.9460012  67.6324997  54.4939988 102.7694809  68.4833862  54.4518244
 105.8320012  69.9944997  37.0169988 105.5630012  70.1744997  37.9179988
 105.6260012  69.0684997  36.8859988 105.7673825  69.8940152  37.1225214
 108.5280012  68.4894997  51.9649988 109.2740012  69.0774997  51.8449988
 107.7710012  69.0714997  52.0279988 108.5277554  68.6487011  51.9570907
  96.9710012  65.8034997  54.5689988  97.3790012  64.9464997  54.4479988
  96.7110012  65.8184997  55.4899988  96.9917568  65.6880807  54.6769588
 101.6290012  66.9194997  39.5869988 101.1690012  66.4354997  40.2729988
 101.8840012  66.2514997  38.9509988 101.6004902  66.7628731  39.5949334
 100.9180012  64.8124997  51.9429988 100.3000012  65.4874997  52.2229988
 101.2620012  65.1334997  51.1099988 100.8799615  64.9482721  51.8686581
 102.7000012  65.1624997  37.8489988 102.5200012  65.0084997  36.9219988
 103.6500012  65.2704997  37.8939988 102.8037776  65.1560175  37.7281843
 105.9380012  67.2844997  55.2199988 106.8910012  67.3674997  55.1929988
 105.7770012  66.5724997  55.8399988 106.0466426  67.1996746  55.3000579
 112.0900012  67.5174997  37.2949988 111.8160012  67.0924997  36.4819988
 112.1290012  68.4484997  37.0779988 112.0577699  67.5852484  37.1543610
 101.2570012  62.1674997  53.0249988 101.4070012  61.4384997  52.4229988
 101.2600012  62.9444997  52.4659988 101.2779302  62.1727851  52.8670692
 101.6700012  60.5374997  50.5179988 102.2060012  60.9884997  49.8659988
 100.8180012  60.4294997  50.0949988 101.6282178  60.5846390  50.3715756
 103.2520012  65.9764997  50.7569988 104.0020012  65.8204997  50.1839988
 102.9130012  66.8284997  50.4819988 103.3088921  66.0702968  50.6413561
 107.6670012  63.7914997  55.7859988 107.8600012  62.8604997  55.6739988
 108.5250012  64.2164997  55.7759988 107.8093020  63.7216389  55.7693361
 108.9840012  66.5804997  53.8629988 108.7030012  67.2894997  53.2859988
 109.9270012  66.5074997  53.7119988 109.0729027  66.6677646  53.7635551
  99.7360012  63.3654997  54.9369988  98.9690012  62.8334997  54.7269988
 100.4150012  63.0554997  54.3369988  99.7227022  63.2507506  54.8271648
 102.4760012  57.9934997  50.9489988 102.3770012  58.9404997  50.8439988
 101.7330012  57.6214997  50.4739988 102.3620563  58.0725902  50.8704560
 103.7400012  62.3154997  54.5129988 103.5040012  62.0954997  55.4149988
 102.9560012  62.1084997  54.0029988 103.6018628  62.2574760  54.5673932
 106.4550012  61.4424997  53.5889988 105.5080012  61.4744997  53.7209988
 106.7680012  60.8174997  54.2419988 106.3675475  61.3623207  53.6954455
 108.0890012  60.0764997  55.5939988 107.9930012  59.1244997  55.5879988
 107.7680012  60.3454997  56.4539988 108.0324070  59.9824035  55.7095441
  97.9160012  61.2864997  54.6409988  98.1280012  60.5794997  54.0309988
  97.8050012  60.8484997  55.4849988  97.9299721  61.1307084  54.6716843
 102.6970012  57.2874997  53.6209988 103.4090012  56.6474997  53.6069988
 102.5960012  57.5544997  52.7069988 102.7807939  57.2359938  53.4955650
 103.0510012  58.9704997  55.6739988 102.9190012  58.4944997  54.8539988
 102.4520012  59.7144997  55.6189988 102.9519071  59.0059618  55.5542886
 113.2330012  74.7724997  48.1959988 113.2120012  74.9574997  49.1349988
 113.9240012  75.3414997  47.8549988 113.3234618  74.8746606  48.2783864
 112.7970012  74.3404997  51.1179988 112.3090012  73.6044997  50.7469988
 113.3460012  73.9464997  51.7959988 112.8044872  74.1866249  51.1589160
 111.2470012  70.1294997  55.7559988 110.3810012  70.0244997  56.1499988
 111.6240012  70.8884997  56.2019988 111.1793308  70.2176900  55.8702393
 112.5480012  68.3864997  41.2699988 113.3980012  68.8074997  41.3969988
 112.5540012  67.6464997  41.8769988 112.6651372  68.3440803  41.3694344
 112.9430012  66.4394997  43.0939988 112.2160012  65.9604997  43.4909988
 113.5240012  66.6454997  43.8259988 112.9219375  66.4017090  43.2474129
 112.7020012  69.2244997  48.0409988 113.5350012  68.8464997  47.7609988
 112.8140012  70.1674997  47.9219988 112.8312647  69.3002218  47.9865487
 111.1880012  72.1024997  50.3479988 110.5410012  72.4274997  50.9739988
 110.6710012  71.6624997  49.6739988 111.0294029  72.0875004  50.3425827
 113.2110012  66.3404997  39.4849988 112.6890012  66.6974997  38.7659988
 113.1780012  67.0154997  40.1629988 113.1351634  66.4805413  39.4783145
 111.5600012  63.5804997  38.0359988 111.6560012  64.2474997  37.3549988
 111.4200012  62.7644997  37.5539988 111.5542135  63.5614500  37.8778491
 110.7290012  64.9604997  43.6569988 110.5790012  64.0154997  43.6359988
 110.3760012  65.2414997  44.4999988 110.6606625  64.8690441  43.7682346
  95.7650012  67.0384997  47.6669988  95.9490012  66.9564997  46.7309988
  96.6140012  66.9144997  48.0909988  95.9050139  67.0105003  47.5961455
 111.5860012  66.9304997  53.2949988 112.1690012  66.1964997  53.4869988
 112.1500012  67.7024997  53.3419988 111.7419769  66.9344227  53.3276159
 113.0820012  64.8334997  53.9799988 112.2190012  64.4544997  53.8139988
 113.6870012  64.0944997  53.9059988 113.0455979  64.6818023  53.9472817
 110.8070012  60.9884997  37.1529988 111.4180012  60.6174997  37.7899988
 109.9710012  60.5674997  37.3489988 110.7775032  60.8807554  37.2667035
 110.4400012  62.5434997  42.1189988 110.7200012  61.6364997  42.2429988
 111.1990012  62.9774997  41.7299988 110.5809277  62.4780942  42.0833682
 111.0520012  63.1244997  47.5549988 111.9850012  63.3364997  47.5209988
 110.8170012  63.2264997  48.4769988 111.1478036  63.1672769  47.6749976
 111.0810012  63.8614997  50.3309988 110.2380012  64.1294997  50.6969988
 111.5230012  64.6834997  50.1199988 111.0254158  64.0093291  50.3525491
  95.3620012  62.3094997  53.8079988  96.2820012  62.1874997  54.0439988
  94.9130012  61.5594997  54.1969988  95.4271580  62.1913727  53.8929006
 113.3640012  57.8414997  55.6839988 113.7140012  57.1874997  55.0789988
 113.5110012  58.6784997  55.2449988 113.4318419  57.8651591  55.5417118
 111.0530012  59.8064997  42.1669988 111.2360012  59.3574997  42.9929988
 110.4540012  59.2214997  41.7039988 110.9970202  59.6659975  42.2173275
  96.5830012  60.6214997  46.6989988  97.0290012  59.8294997  47.0009988
  97.0500012  61.3374997  47.1299988  96.7070172  60.6100624  46.7984820
  94.8870012  63.6204997  47.7679988  95.3790012  63.3994997  46.9769988
  95.2500012  64.4614997  48.0489988  95.0033126  63.7038357  47.6977531
 112.8840012  59.9504997  54.0339988 111.9660012  60.2214997  53.9979988
 113.0070012  59.4154997  53.2489988 112.7751066  59.9152892  53.9230487
 112.9200012  59.8734997  38.6949988 113.3320012  59.1524997  38.2199988
 113.6020012  60.5434997  38.7539988 113.0685885  59.8652368  38.6378915
  95.2010012  59.8784997  41.8219988  94.2760012  60.0874997  41.6929988
  95.6550012  60.3624997  41.1329988  95.1357368  59.9725993  41.7111226
 109.9720012  74.8624997  43.7679988 110.6240012  74.5154997  43.1599988
 110.4820012  75.3514997  44.4139988 110.1302637  74.8810597  43.7720236
  95.1650012  58.6164997  50.1669988  94.5000012  58.3704997  50.8099988
  94.7220012  59.2384997  49.5889988  95.0140956  58.6668632  50.1769352
  97.3570012  71.7914997  54.3109988  96.5360012  71.9664997  53.8509988
  97.1040012  71.7184997  55.2319988  97.2106164  71.8055622  54.3724923
 100.3110012  72.7664997  50.5699988  99.8860012  73.5754997  50.2869988
 101.2150012  72.8514997  50.2679988 100.3750271  72.8888469  50.4903776
 104.6220012  74.1654997  53.5289988 104.8070012  73.8314997  54.4069988
 105.4680012  74.4744997  53.2069988 104.7617539  74.1616047  53.6055605
 106.9670012  75.4514997  52.7729988 107.6440012  74.8184997  52.5329988
 107.2890012  75.8524997  53.5799988 107.1031637  75.4191154  52.8492793
 111.8840012  58.0404997  51.8529988 111.0720012  58.3654997  51.4649988
 112.1170012  57.2804997  51.3199988 111.8043423  57.9822436  51.7278253
  97.7130012  76.0224997  50.6169988  96.9920012  76.4624997  50.1659988
  97.3470012  75.7714997  51.4659988  97.5649804  76.0487698  50.6699840
 100.1800012  75.6224997  49.6469988  99.3150012  75.6944997  50.0509988
 100.1250012  76.1694997  48.8629988 100.0542085  75.7062685  49.5963362
 104.8900012  75.5104997  48.8219988 104.4340012  76.0394997  48.1679988
 105.0530012  76.1134997  49.5479988 104.8495585  75.6644468  48.8305062
 107.2180012  74.3884997  49.7669988 106.3130012  74.5534997  49.5019988
 107.6470012  75.2414997  49.7019988 107.1520799  74.5264483  49.7219182
 109.8220012  75.9584997  50.0619988 109.6400012  76.8744997  49.8519988
 109.9990012  75.5484997  49.2159988 109.8210210  76.0284822  49.9187885
  97.1270012  74.6454997  47.5269988  97.1090012  74.2204997  48.3849988
  97.9320012  74.3274997  47.1189988  97.2333875  74.5443812  47.5891655
  99.2690012  73.3554997  46.1819988  99.0500012  72.4394997  46.3519988
 100.0930012  73.4954997  46.6479988  99.3504420  73.2490520  46.2682774
 101.8060012  73.8254997  47.0309988 102.0190012  72.9374997  46.7439988
 101.8700012  73.7914997  47.9849988 101.8438232  73.6993102  47.1207397
 105.3140012  59.4894997  46.1749988 104.6400012  58.8604997  46.4309988
 105.8780012  59.0054997  45.5719988 105.2979230  59.3378744  46.1285340
 110.4570012  57.5974997  46.2879988 111.0610012  58.1444997  45.7859988
 109.5870012  57.9164997  46.0479988 110.4221241  57.7155806  46.1867654
 112.1840012  58.7354997  44.6209988 112.7960012  58.2214997  44.0949988
 112.5660012  59.6134997  44.6449988 112.3194540  58.7837140  44.5521830
  97.6410012  58.1234997  43.9969988  96.8640012  57.8894997  43.4899988
  98.1710012  57.3264997  44.0059988  97.6062330  57.9836988  43.9287742
  96.4770012  57.9214997  39.8009988  96.9160012  58.5324997  39.2089988
  95.8440012  58.4594997  40.2749988  96.4514514  58.0779257  39.7840930
 102.2200012  58.0504997  43.8109988 103.0950012  58.4384997  43.7809988
 102.0840012  57.8354997  44.7329988 102.3213695  58.0745184  43.9316440
 107.7770012  58.0804997  45.4599988 107.8530012  58.1754997  44.5099988
 107.5020012  57.1724997  45.5889988 107.7502321  57.9707867  45.3475079
 109.1300012  58.1064997  41.1519988 108.4280012  58.7214997  40.9429988
 108.6860012  57.2684997  41.2829988 108.9736330  58.0775783  41.1410328
  98.3380012  59.8374997  38.2429988  98.8300012  59.2074997  37.7159988
  98.9620012  60.1334997  38.9069988  98.4895446  59.7913199  38.2605980
 103.3640012  60.1304997  40.6999988 103.5420012  59.4844997  41.3829988
 103.3110012  60.9644997  41.1679988 103.3811829  60.1547985  40.8565940
 105.2430012  75.0794997  39.0959988 106.1090012  75.4454997  38.9179988
 104.9960012  74.6394997  38.2819988 105.3282392  75.0701756  38.9616289
 111.9520012  74.6424997  41.7749988 111.7570012  73.8944997  41.2099988
 111.9130012  75.4004997  41.1919988 111.9200380  74.6426099  41.6188384
  97.5990012  58.6374997  53.5149988  97.2330012  57.8724997  53.9579988
  98.5120012  58.6664997  53.8019988  97.6722790  58.5367224  53.6144070
  99.5720012  57.9884997  55.0509988 100.4700012  57.7144997  54.8659988
  99.1850012  57.2454997  55.5149988  99.6426612  57.8505914  55.0883643
 107.9930012  57.3204997  55.2329988 108.0700012  56.8944997  56.0869988
 108.8870012  57.3344997  54.8899988 108.1243428  57.2640879  55.3035310
 111.1690012  73.3934997  53.9249988 110.3870012  73.2074997  53.4059988
 111.0970012  74.3224997  54.1429988 111.0521777  73.4936492  53.8834048
 125.5750012  67.2794997  43.9559988 125.6640012  68.2234997  43.8239988
 124.9370012  67.0044997  43.2979988 125.5009081  67.3714830  43.8489614
 124.5080012  66.5344997  47.3749988 124.4700012  65.8884997  48.0799988
 124.1860012  66.0684997  46.6039988 124.4592333  66.3829408  47.3672978
 116.8770012  66.1494997  48.9679988 116.9180012  65.5234997  49.6909988
 117.5800012  66.7734997  49.1499988 116.9776363  66.1481196  49.0916044
 128.2140012  69.4734997  45.6759988 127.7740012  68.7534997  46.1269988
 128.2010012  70.1944997  46.3059988 128.1520226  69.4723731  45.8228494
 117.8000012  70.5994997  47.5029988 117.4310012  69.7974997  47.1329988
 118.7410012  70.4304997  47.5489988 117.8767289  70.4670153  47.4586316
 114.4100012  64.2594997  42.8959988 113.9630012  65.1054997  42.8769988
 113.8490012  63.6794997  42.3799988 114.2729900  64.2969916  42.8236801
 115.1210012  66.4214997  45.0219988 115.3340012  65.6514997  45.5489988
 115.8590012  66.5104997  44.4179988 115.2498496  66.3281394  45.0125300
 125.3260012  74.5784997  45.8889988 125.9460012  73.9014997  45.6149988
 125.1180012  74.3604997  46.7969988 125.3826904  74.4563870  45.9743365
 122.8980012  68.9674997  47.7809988 123.2020012  68.2814997  47.1859988
 123.6190012  69.0854997  48.3989988 123.0370671  68.8896305  47.7831816
 131.5610012  60.5684997  48.6419988 131.6100012  61.1784997  49.3779988
 131.9860012  61.0294997  47.9189988 131.6251824  60.7143741  48.6450205
 126.0390012  63.3614997  48.1089988 126.1810012  62.4154997  48.1289988
 125.9320012  63.5684997  47.1799988 126.0439864  63.2599534  47.9862339
 119.1930012  61.4624997  45.3809988 119.2370012  62.3224997  44.9629988
 118.7360012  60.9104997  44.7469988 119.1372185  61.5055799  45.2380299
 126.9160012  61.5934997  43.7819988 127.5620012  61.2644997  44.4069988
 127.4260012  62.1114997  43.1589988 127.0734264  61.6184611  43.7833862
 115.8140012  63.8594997  46.1429988 116.4670012  63.3094997  46.5749988
 115.8380012  63.5854997  45.2259988 115.9066683  63.7471466  46.0782123
 120.9700012  65.4094997  45.3579988 121.5860012  64.8834997  45.8679988
 120.3840012  64.7694997  44.9549988 120.9750810  65.2509208  45.3733173
 131.9520012  62.0464997  50.8779988 131.2640012  62.7044997  50.7819988
 131.9680012  61.8494997  51.8139988 131.8598525  62.1100462  50.9914808
 118.0040012  60.3804997  49.4549988 117.7850012  60.9104997  48.6889988
 117.3360012  60.6074997  50.1019988 117.8837600  60.4836906  49.4376379
 125.3730012  69.8804997  42.9989988 125.0770012  69.5584997  42.1479988
 125.0480012  70.7804997  43.0399988 125.2886371  69.9580215  42.8881801
 120.5730012  68.0564997  49.7419988 119.8330012  68.6544997  49.8459988
 121.2870012  68.6104997  49.4269988 120.5682237  68.2132831  49.7136465
 128.6800012  60.8844997  45.7619988 128.4640012  60.1184997  46.2949988
 129.3350012  61.3564997  46.2749988 128.7390632  60.8435889  45.9042861
 117.5970012  62.2724997  47.4069988 118.2110012  62.9054997  47.7809988
 118.1090012  61.8004997  46.7509988 117.7502296  62.2952370  47.3694252
 118.9800012  70.0204997  50.5299988 118.9750012  70.9004997  50.1519988
 118.1270012  69.9374997  50.9549988 118.8639464  70.1296117  50.5357907
 115.1010012  69.6914997  41.3119988 114.8290012  69.9204997  40.4229988
 115.1470012  70.5294997  41.7719988 115.0700094  69.8361213  41.2525697
 128.7260012  71.3134997  48.0239988 127.7850012  71.3714997  48.1859988
 129.0030012  72.2194997  47.8869988 128.6344679  71.4439443  48.0276815
 129.0270012  59.5994997  49.4419988 128.2910012  60.2104997  49.4039988
 129.7100012  60.0144997  48.9149988 129.0186541  59.7391374  49.3655832
 122.0300012  57.6864997  46.9079988 121.9130012  56.7374997  46.8529988
 121.1750012  58.0184997  47.1809988 121.8983733  57.6015409  46.9373897
 126.9780012  73.0944997  44.6499988 127.4040012  72.3874997  44.1649988
 127.2950012  73.8954997  44.2329988 127.0791019  73.1060994  44.5273130
 128.1380012  70.9954997  43.1579988 127.8800012  70.3054997  42.5469988
 128.2090012  70.5524997  44.0039988 128.1122856  70.8412124  43.1886885
 129.8240012  69.5614997  51.6359988 129.9640012  68.9704997  50.8959988
 129.9910012  70.4344997  51.2789988 129.8656778  69.5986426  51.4866965
 124.2970012  66.5234997  41.4079988 123.5850012  67.0584997  41.0559988
 124.9880012  66.5794997  40.7479988 124.2930132  66.6042543  41.2706289
 124.3500012  64.9814997  38.4469988 125.0510012  65.0034997  39.0979988
 124.6530012  64.3534997  37.7909988 124.4867830  64.8996566  38.4473711
 131.6660012  65.9014997  49.7019988 131.0130012  66.5964997  49.7909988
 132.1310012  66.1114997  48.8919988 131.6395390  66.0249425  49.6046883
 127.7020012  66.7334997  42.3599988 126.9700012  66.9614997  42.9329988
 128.1500012  66.0194997  42.8149988 127.6623095  66.6682571  42.4999119
 127.6000012  64.9074997  51.4269988 127.6800012  65.6704997  51.9989988
 126.9980012  65.1864997  50.7369988 127.5295756  65.0497134  51.4120589
 119.3480012  67.3634997  44.2419988 119.0170012  66.9934997  43.4239988
 119.9360012  66.6934997  44.5889988 119.3821873  67.2221156  44.1768102
 120.7140012  70.7914997  46.9239988 120.6200012  70.2134997  46.1669988
 121.4440012  70.4204997  47.4199988 120.7997981  70.6622390  46.8874165
 119.7140012  66.1324997  47.8759988 120.2800012  66.2534997  47.1129988
 120.0330012  66.7694997  48.5149988 119.8345786  66.2351884  47.8580040
 126.0230012  71.6354997  48.6099988 125.7830012  72.2974997  49.2579988
 125.8250012  70.8014997  49.0349988 125.9633808  71.6133134  48.7561524
 120.5940012  70.5314997  52.5929988 120.2830012  71.3134997  53.0479988
 119.9440012  70.3784997  51.9069988 120.4635558  70.6179105  52.5625871
 126.5730012  65.8954997  40.0449988 127.1530012  66.0454997  40.7919988
 126.9870012  66.3664997  39.3219988 126.7082830  65.9796841  40.0494134
 117.5140012  66.7294997  51.8219988 117.5850012  67.3804997  52.5199988
 116.6240012  66.8324997  51.4869988 117.4033117  66.8325936  51.8722700
 124.3000012  72.6324997  43.4799988 124.7740012  72.9274997  44.2579988
 123.7370012  73.3704997  43.2469988 124.2887653  72.7726932  43.5550136
 118.8340012  72.6034997  53.3559988 118.8410012  72.4674997  52.4089988
 117.9180012  72.4854997  53.6079988 118.7111714  72.5689430  53.2604666
 130.2720012  57.6454997  39.8579988 129.3720012  57.7844997  40.1529988
 130.5240012  58.4764997  39.4559988 130.1828702  57.7769074  39.8440205
 118.3380012  66.4334997  41.8319988 118.0460012  67.2014997  41.3409988
 117.6640012  65.7734997  41.6689988 118.2069081  66.4494406  41.7427340
 131.4610012  72.0114997  38.2339988 131.5350012  72.9504997  38.4049988
 132.3670012  71.7064997  38.1779988 131.5935100  72.0986722  38.2498119
 114.4310012  68.7964997  50.6469988 113.9300012  68.7684997  49.8319988
 114.4360012  67.8904997  50.9559988 114.3631526  68.6702278  50.5772872
 114.1810012  71.5764997  47.5309988 115.1270012  71.4324997  47.5119988
 114.0690012  72.3604997  48.0679988 114.2952727  71.6628046  47.6010072
 132.3790012  72.2424997  53.2129988 132.3300012  71.2874997  53.1759988
 131.5520012  72.5104997  53.6139988 132.2604940  72.1478998  53.2621375
 123.3580012  71.8164997  52.0889988 123.4450012  72.6424997  52.5639988
 122.4940012  71.4864997  52.3379988 123.2531964  71.8849878  52.1876549
 123.7720012  75.5884997  41.8949988 123.6970012  75.4674997  40.9489988
 123.8050012  76.5384997  42.0139988 123.7661848  75.7002500  41.7814834
 117.4250012  74.3774997  43.6759988 117.5780012  74.0294997  44.5549988
 116.5750012  74.0214997  43.4209988 117.3308962  74.2816650  43.7618340
 126.8740012  74.7424997  38.8969988 127.2490012  73.9984997  38.4269988
 126.8780012  74.4724997  39.8159988 126.9258915  74.6041486  38.9567824
 126.5430012  74.6684997  41.6469988 125.6070012  74.7684997  41.8249988
 126.8230012  73.9594997  42.2249988 126.4528255  74.5862711  41.7495391
 129.5310012  63.7354997  53.6929988 129.1240012  64.2164997  52.9719988
 129.5720012  62.8304997  53.3849988 129.4808437  63.6789374  53.5526683
 116.6800012  70.1194997  51.6899988 116.8960012  69.7584997  52.5489988
 115.8250012  69.7454997  51.4799988 116.5939292  70.0194111  51.7793386
 119.2990012  58.5894997  47.6849988 118.4370012  58.5024997  47.2779988
 119.2760012  59.4454997  48.1129988 119.1780330  58.6932765  47.6871863
 123.9620012  58.3114997  51.0599988 124.3820012  57.8964997  51.8129988
 123.0290012  58.1334997  51.1769988 123.8933644  58.2305900  51.1789539
 127.2880012  62.0674997  51.9129988 126.7740012  61.9414997  52.7109988
 127.1330012  62.9794997  51.6689988 127.1966852  62.1736132  51.9892158
 128.0510012  66.9284997  37.6749988 128.0930012  66.7054997  36.7449988
 128.9000012  67.3274997  37.8649988 128.1715396  66.9519155  37.5733627
 123.6230012  60.8044997  38.3449988 123.3700012  60.8234997  39.2679988
 123.3670012  59.9324997  38.0439988 123.5537790  60.6892437  38.4306263
 119.3900012  63.5554997  48.7799988 118.7480012  63.5144997  49.4889988
 119.4270012  64.4814997  48.5429988 119.3071324  63.6751559  48.8449824
 119.3870012  63.7764997  43.6919988 118.4940012  63.4354997  43.6339988
 119.8370012  63.3994997  42.9369988 119.3257305  63.6788484  43.5819177
 124.9220012  64.1924997  42.5089988 124.5130012  65.0074997  42.2179988
 125.6430012  64.0524997  41.8949988 124.9634537  64.2852018  42.3861342
 124.0240012  64.3674997  53.9969988 123.4620012  63.6634997  54.3179988
 124.8510012  64.2474997  54.4649988 124.0587095  64.2547883  54.1042330
 125.9270012  63.6384997  45.3229988 125.7320012  64.2434997  44.6079988
 126.1080012  62.8044997  44.8889988 125.9247614  63.6086300  45.1664405
 117.1400012  63.8754997  50.6469988 117.1020012  64.2754997  51.5159988
 116.6490012  63.0584997  50.7379988 117.0684684  63.8198069  50.7781059
 120.5060012  61.2494997  37.4459988 120.0750012  60.8044997  38.1759988
 119.7880012  61.6214997  36.9339988 120.3499438  61.2388940  37.4766799
 113.7480012  60.9914997  44.4979988 114.3790012  60.9624997  45.2169988
 114.1970012  60.5664997  43.7679988 113.8950774  60.9300492  44.4976553
 115.0220012  61.7374997  39.9219988 115.4960012  62.3284997  39.3369988
 114.3050012  62.2684997  40.2689988 114.9899341  61.8900867  39.8888836
 125.1910012  65.2764997  49.9949988 125.5140012  64.6454997  49.3519988
 124.7510012  64.7414997  50.6549988 125.1756895  65.1178441  49.9962850
 121.9680012  61.2034997  44.7789988 121.0570012  61.2604997  45.0669988
 122.4740012  61.1434997  45.5889988 121.9115413  61.2031985  44.9280622
 116.7970012  62.8324997  43.6049988 115.9070012  62.9324997  43.2649988
 117.0930012  61.9904997  43.2589988 116.7152823  62.7323545  43.5117213
 120.4500012  62.8324997  41.2619988 121.3810012  62.9614997  41.4399988
 120.2350012  63.5024997  40.6119988 120.5484247  62.9406565  41.1985747
 126.3730012  60.4384997  48.0429988 125.6970012  60.5694997  48.7069988
 125.8880012  60.2834997  47.2329988 126.2147145  60.4354905  48.0244517
 119.1240012  64.0274997  38.8289988 118.5810012  63.6474997  38.1369988
 119.9570012  64.2214997  38.3999988 119.1624399  64.0018124  38.6764526
 129.6610012  76.1104997  54.3199988 129.8610012  76.5344997  53.4849988
 130.3160012  76.4534997  54.9269988 129.7770051  76.2149648  54.2877836
 117.2590012  68.5844997  53.9279988 117.9910012  68.8384997  54.4889988
 116.4790012  68.7884997  54.4429988 117.2538232  68.6469177  54.0745760
 123.2880012  63.9914997  46.6659988 123.8530012  63.4444997  46.1189988
 123.1410012  63.4694997  47.4539988 123.3452918  63.8462024  46.6978454
 118.2900012  60.1274997  43.0839988 117.9730012  59.2254997  43.0489988
 119.0720012  60.1294997  42.5309988 118.3522284  60.0041628  43.0044783
 121.9150012  62.3794997  49.0799988 121.0790012  62.8334997  49.1899988
 122.4390012  62.6554997  49.8319988 121.8714414  62.4789376  49.1967136
 122.4590012  68.5924997  40.7639988 121.7140012  68.0854997  40.4419988
 122.3250012  68.6414997  41.7109988 122.3388776  68.5296940  40.8478647
 129.6090012  67.7254997  49.5509988 130.2510012  68.1824997  49.0069988
 128.7790012  67.8384997  49.0879988 129.5845963  67.8032704  49.4140177
 126.3570012  61.4064997  38.9639988 125.4180012  61.5184997  38.8119988
 126.6540012  62.2634997  39.2699988 126.2687666  61.5376443  38.9845768
 123.9780012  68.7764997  52.0009988 123.6330012  68.3954997  52.8079988
 123.7780012  69.7104997  52.0729988 123.9038061  68.8505228  52.1210961
 127.0750012  63.2734997  40.6239988 127.9670012  63.1364997  40.9429988
 127.1320012  64.0644997  40.0879988 127.2046285  63.3616660  40.5951691
 117.5840012  67.8874997  46.5339988 118.3290012  67.8854997  45.9329988
 117.6620012  67.0644997  47.0159988 117.6965518  67.7759315  46.5168929
 124.5850012  70.0514997  39.7899988 124.2890012  70.8774997  40.1709988
 123.8820012  69.4314997  39.9859988 124.4494914  70.0808199  39.8686443
 114.5920012  66.3484997  51.8489988 114.8150012  65.9304997  52.6809988
 113.9900012  65.7354997  51.4259988 114.5411759  66.2084668  51.9057022
 121.6080012  65.8654997  54.0619988 121.3120012  65.6994997  53.1669988
 122.5400012  65.6454997  54.0509988 121.6934166  65.8130640  53.9380536
 126.2290012  71.2384997  51.9519988 125.3280012  71.4214997  51.6839988
 126.2630012  71.4974997  52.8729988 126.1103041  71.2985512  52.0398197
 131.9600012  63.4834997  40.3189988 131.4060012  63.0874997  39.6469988
 132.0600012  64.3934997  40.0409988 131.8977059  63.5523586  40.1894401
 131.9230012  69.2834997  53.1559988 131.0720012  69.5214997  52.7889988
 132.5140012  69.2664997  52.4029988 131.8862487  69.3138258  53.0038893
 130.2550012  72.2694997  40.7839988 129.8820012  71.4434997  41.0929988
 130.5330012  72.0864997  39.8869988 130.2415630  72.1317303  40.7049626
 127.4160012  67.0774997  47.8049988 126.4870012  66.8454997  47.7779988
 127.8670012  66.3004997  47.4749988 127.3499216  66.9407238  47.7566917
 119.9590012  71.4054997  43.9379988 120.4860012  72.1784997  43.7379988
 119.0790012  71.6304997  43.6369988 119.9121773  71.5418005  43.8699010
 115.7140012  66.2674997  38.5249988 116.3300012  66.8944997  38.9049988
 114.8520012  66.5834997  38.7969988 115.6817698  66.3959430  38.6137183
 121.3860012  69.0684997  43.5149988 121.1450012  69.9934997  43.5559988
 120.6450012  68.6094997  43.9109988 121.2528409  69.1331421  43.5741377
 121.9010012  73.2174997  49.8299988 122.2630012  74.0724997  49.5959988
 122.4320012  72.9254997  50.5699988 122.0224473  73.2951060  49.8980855
 120.0690012  74.0904997  43.0599988 119.1190012  74.1954997  43.1109988
 120.4210012  74.9104997  43.4049988 119.9864203  74.2158314  43.1136650
 125.4450012  69.3164997  49.5299988 125.0190012  69.0894997  50.3569988
 126.0250012  68.5784997  49.3479988 125.4651868  69.1855299  49.6185830
 127.6480012  70.2454997  38.6039988 128.0010012  69.8654997  39.4089988
 126.6990012  70.1524997  38.6909988 127.5680441  70.1809596  38.7258559
 128.1030012  73.8684997  51.9999988 127.5020012  73.3134997  51.5039988
 128.3850012  74.5354997  51.3739988 128.0588519  73.8826841  51.8474952
 132.1510012  74.7254997  38.8049988 132.8950012  75.3114997  38.6649988
 131.4570012  75.2934997  39.1389988 132.1590292  74.8825582  38.8309961
 116.2260012  61.1014997  51.4069988 115.3330012  61.4404997  51.3389988
 116.1270012  60.2464997  51.8249988 116.0904164  61.0322588  51.4542235
 128.5140012  68.9184997  40.8309988 128.2360012  68.1904997  41.3869988
 129.4410012  69.0374997  41.0359988 128.6013124  68.8348802  40.9348845
 115.8770012  72.9064997  49.8419988 116.0940012  71.9744997  49.8109988
 116.1230012  73.1804997  50.7249988 115.9399549  72.8160636  49.9571763
 121.7390012  71.3574997  37.0509988 121.9780012  70.6094997  36.5039988
 121.4700012  70.9694997  37.8839988 121.7353675  71.2026638  37.0886865
 120.6760012  70.9274997  39.5079988 120.8220012  70.4074997  40.2979988
 120.6730012  71.8344997  39.8139988 120.6955989  70.9788853  39.6576088
 117.1290012  68.1804997  40.0179988 116.4430012  68.5324997  40.5849988
 117.6510012  68.9434997  39.7709988 117.1056852  68.3318578  40.0622118
 124.9600012  60.8424997  50.2969988 125.6590012  60.9164997  50.9469988
 124.5790012  59.9784997  50.4509988 125.0041767  60.7357624  50.4068322
 125.7450012  60.4944997  41.3939988 125.9650012  60.9664997  40.5909988
 126.3030012  60.8894997  42.0639988 125.8504968  60.6124285  41.3747331
 123.4130012  72.6254997  40.2569988 122.5970012  73.1224997  40.3089988
 123.9430012  73.1004997  39.6169988 123.3729161  72.7577722  40.1775956
 122.9450012  62.2224997  42.2289988 123.7570012  62.7274997  42.2749988
 122.7000012  62.0774997  43.1429988 123.0230520  62.2720375  42.3588517
 123.4800012  63.2084997  51.4139988 123.5990012  63.7824997  52.1709988
 124.1360012  62.5204997  51.5279988 123.5849757  63.1941079  51.5330825
 123.8280012  59.3034997  43.1669988 123.4820012  59.9214997  43.8119988
 124.4870012  59.8044997  42.6859988 123.8697826  59.4555802  43.1900971
 120.7520012  73.6694997  40.2389988 120.9120012  74.4684997  39.7379988
 120.5540012  73.9754997  41.1239988 120.7471649  73.8204469  40.2899815
 119.4860012  60.3664997  39.8539988 119.4030012  61.2554997  40.2009988
 120.3760012  60.1014997  40.0859988 119.5949469  60.4521430  39.9327626
 129.6850012  61.1154997  52.2489988 128.7680012  61.3784997  52.1609988
 130.0200012  61.1124997  51.3519988 129.6049900  61.1510224  52.1157919
 128.2870012  64.8664997  46.3439988 127.4890012  64.4514997  46.0159988
 128.7320012  64.1754997  46.8349988 128.2379885  64.7163543  46.3654889
 117.7450012  70.7944997  38.9149988 118.3370012  71.4934997  39.1909988
 118.2040012  70.3614997  38.1949988 117.8881142  70.8317049  38.8554830
 116.0610012  63.4584997  38.0309988 116.0160012  64.3974997  38.2089988
 115.1730012  63.2224997  37.7609988 115.9348574  63.5551892  38.0188912
 129.3730012  74.1224997  47.9669988 129.2180012  74.8004997  47.3099988
 130.3060012  74.1944997  48.1699988 129.4778500  74.2250170  47.9045119
 116.8690012  58.2404997  46.7039988 116.6400012  58.2994997  45.7759988
 116.4260012  57.4484997  47.0099988 116.7778530  58.1415753  46.6184786
 115.7990012  72.1804997  42.8639988 114.9670012  72.6534997  42.8919988
 116.3450012  72.6904997  42.2659988 115.7589739  72.3141871  42.7869716
 115.0870012  74.7934997  54.1939988 115.6280012  74.5764997  54.9539988
 114.6060012  73.9874997  54.0049988 115.0959345  74.6549514  54.2723076
 119.6850012  73.7124997  55.8149988 120.4520012  73.2534997  56.1559988
 119.6630012  73.4864997  54.8849988 119.7871434  73.6190409  55.7360043
 123.7770012  73.2204997  37.1899988 123.1330012  72.5894997  37.5109988
 124.5390012  72.6894997  36.9579988 123.7918077  73.0622920  37.2026011
 126.2620012  72.0924997  54.5439988 125.9110012  71.2364997  54.7869988
 126.9880012  72.2354997  55.1509988 126.3120769  71.9945636  54.6593619
 128.3810012  73.0374997  37.4239988 128.6640012  72.2434997  37.8759988
 129.1210012  73.2704997  36.8629988 128.5197486  72.9602803  37.4100698
 114.9940012  68.6034997  55.1489988 115.1380012  67.7014997  54.8619988
 114.2220012  68.8894997  54.6609988 114.9093322  68.5188261  55.0437881
 119.3360012  68.9474997  37.2809988 119.4000012  68.1534997  37.8119988
 119.9890012  68.8284997  36.5909988 119.4330241  68.8227148  37.2604317
 121.6500012  68.5734997  54.5809988 121.3210012  68.8444997  53.7239988
 121.8020012  67.6324997  54.4939988 121.6254809  68.4833862  54.4518244
 124.6880012  69.9944997  37.0169988 124.4190012  70.1744997  37.9179988
 124.4820012  69.0684997  36.8859988 124.6233825  69.8940152  37.1225214
 127.3840012  68.4894997  51.9649988 128.1300012  69.0774997  51.8449988
 126.6270012  69.0714997  52.0279988 127.3837554  68.6487011  51.9570907
 115.8270012  65.8034997  54.5689988 116.2350012  64.9464997  54.4479988
 115.5670012  65.8184997  55.4899988 115.8477568  65.6880807  54.6769588
 120.4850012  66.9194997  39.5869988 120.0250012  66.4354997  40.2729988
 120.7400012  66.2514997  38.9509988 120.4564902  66.7628731  39.5949334
 119.7740012  64.8124997  51.9429988 119.1560012  65.4874997  52.2229988
 120.1180012  65.1334997  51.1099988 119.7359615  64.9482721  51.8686581
 121.5560012  65.1624997  37.8489988 121.3760012  65.0084997  36.9219988
 122.5060012  65.2704997  37.8939988 121.6597776  65.1560175  37.7281843
 124.7940012  67.2844997  55.2199988 125.7470012  67.3674997  55.1929988
 124.6330012  66.5724997  55.8399988 124.9026426  67.1996746  55.3000579
 130.9460012  67.5174997  37.2949988 130.6720012  67.0924997  36.4819988
 130.9850012  68.4484997  37.0779988 130.9137699  67.5852484  37.1543610
 120.1130012  62.1674997  53.0249988 120.2630012  61.4384997  52.4229988
 120.1160012  62.9444997  52.4659988 120.1339302  62.1727851  52.8670692
 120.5260012  60.5374997  50.5179988 121.0620012  60.9884997  49.8659988
 119.6740012  60.4294997  50.0949988 120.4842178  60.5846390  50.3715756
 122.1080012  65.9764997  50.7569988 122.8580012  65.8204997  50.1839988
 121.7690012  66.8284997  50.4819988 122.1648921  66.0702968  50.6413561
 126.5230012  63.7914997  55.7859988 126.7160012  62.8604997  55.6739988
 127.3810012  64.2164997  55.7759988 126.6653020  63.7216389  55.7693361
 127.8400012  66.5804997  53.8629988 127.5590012  67.2894997  53.2859988
 128.7830012  66.5074997  53.7119988 127.9289027  66.6677646  53.7635551
 118.5920012  63.3654997  54.9369988 117.8250012  62.8334997  54.7269988
 119.2710012  63.0554997  54.3369988 118.5787022  63.2507506  54.8271648
 121.3320012  57.9934997  50.9489988 121.2330012  58.9404997  50.8439988
 120.5890012  57.6214997  50.4739988 121.2180564  58.0725902  50.8704560
 122.5960012  62.3154997  54.5129988 122.3600012  62.0954997  55.4149988
 121.8120012  62.1084997  54.0029988 122.4578628  62.2574760  54.5673932
 125.3110012  61.4424997  53.5889988 124.3640012  61.4744997  53.7209988
 125.6240012  60.8174997  54.2419988 125.2235475  61.3623207  53.6954455
 126.9450012  60.0764997  55.5939988 126.8490012  59.1244997  55.5879988
 126.6240012  60.3454997  56.4539988 126.8884070  59.9824035  55.7095441
 116.7720012  61.2864997  54.6409988 116.9840012  60.5794997  54.0309988
 116.6610012  60.8484997  55.4849988 116.7859721  61.1307084  54.6716843
 121.5530012  57.2874997  53.6209988 122.2650012  56.6474997  53.6069988
 121.4520012  57.5544997  52.7069988 121.6367939  57.2359938  53.4955650
 121.9070012  58.9704997  55.6739988 121.7750012  58.4944997  54.8539988
 121.3080012  59.7144997  55.6189988 121.8079071  59.0059618  55.5542886
 121.4530012  75.8534997  38.8509988 122.3860012  76.0114997  38.9939988
 121.1890012  76.5284997  38.2259988 121.5449510  75.9663611  38.7860741
 115.0220012  70.4894997  38.3329988 115.9360012  70.5684997  38.6069988
 115.0290012  69.8024997  37.6669988 115.1481131  70.4073961  38.2804393
 113.6710012  75.8824997  43.4109988 113.0240012  75.4204997  42.8779988
 114.0250012  75.2104997  43.9929988 113.6303849  75.7284723  43.4167959
 114.5410012  73.9634997  45.2149988 114.2060012  73.0834997  45.3869988
 114.7630012  74.3084997  46.0799988 114.5251783  73.8897500  45.3554208
 132.0890012  74.7724997  48.1959988 132.0680012  74.9574997  49.1349988
 132.7800012  75.3414997  47.8549988 132.1794618  74.8746606  48.2783864
 131.6530012  74.3404997  51.1179988 131.1650012  73.6044997  50.7469988
 132.2020012  73.9464997  51.7959988 131.6604872  74.1866249  51.1589160
 130.1030012  70.1294997  55.7559988 129.2370012  70.0244997  56.1499988
 130.4800012  70.8884997  56.2019988 130.0353308  70.2176900  55.8702393
 131.4040012  68.3864997  41.2699988 132.2540012  68.8074997  41.3969988
 131.4100012  67.6464997  41.8769988 131.5211372  68.3440803  41.3694344
 131.7990012  66.4394997  43.0939988 131.0720012  65.9604997  43.4909988
 132.3800012  66.6454997  43.8259988 131.7779375  66.4017090  43.2474129
 131.5580012  69.2244997  48.0409988 132.3910012  68.8464997  47.7609988
 131.6700012  70.1674997  47.9219988 131.6872647  69.3002218  47.9865487
 130.0440012  72.1024997  50.3479988 129.3970012  72.4274997  50.9739988
 129.5270012  71.6624997  49.6739988 129.8854029  72.0875004  50.3425827
 132.0670012  66.3404997  39.4849988 131.5450012  66.6974997  38.7659988
 132.0340012  67.0154997  40.1629988 131.9911634  66.4805413  39.4783145
 130.4160012  63.5804997  38.0359988 130.5120012  64.2474997  37.3549988
 130.2760012  62.7644997  37.5539988 130.4102135  63.5614500  37.8778491
 129.5850012  64.9604997  43.6569988 129.4350012  64.0154997  43.6359988
 129.2320012  65.2414997  44.4999988 129.5166625  64.8690441  43.7682346
 114.6210012  67.0384997  47.6669988 114.8050012  66.9564997  46.7309988
 115.4700012  66.9144997  48.0909988 114.7610139  67.0105003  47.5961455
 130.4420012  66.9304997  53.2949988 131.0250012  66.1964997  53.4869988
 131.0060012  67.7024997  53.3419988 130.5979769  66.9344227  53.3276159
 131.9380012  64.8334997  53.9799988 131.0750012  64.4544997  53.8139988
 132.5430012  64.0944997  53.9059988 131.9015979  64.6818023  53.9472817
 129.6630012  60.9884997  37.1529988 130.2740012  60.6174997  37.7899988
 128.8270012  60.5674997  37.3489988 129.6335032  60.8807554  37.2667035
 129.2960012  62.5434997  42.1189988 129.5760012  61.6364997  42.2429988
 130.0550012  62.9774997  41.7299988 129.4369277  62.4780942  42.0833682
 129.9080012  63.1244997  47.5549988 130.8410012  63.3364997  47.5209988
 129.6730012  63.2264997  48.4769988 130.0038036  63.1672769  47.6749976
 129.9370012  63.8614997  50.3309988 129.0940012  64.1294997  50.6969988
 130.3790012  64.6834997  50.1199988 129.8814158  64.0093291  50.3525491
 114.2180012  62.3094997  53.8079988 115.1380012  62.1874997  54.0439988
 113.7690012  61.5594997  54.1969988 114.2831580  62.1913727  53.8929006
 132.2200012  57.8414997  55.6839988 132.5700012  57.1874997  55.0789988
 132.3670012  58.6784997  55.2449988 132.2878419  57.8651591  55.5417118
 129.9090012  59.8064997  42.1669988 130.0920012  59.3574997  42.9929988
 129.3100012  59.2214997  41.7039988 129.8530202  59.6659975  42.2173275
 115.4390012  60.6214997  46.6989988 115.8850012  59.8294997  47.0009988
 115.9060012  61.3374997  47.1299988 115.5630172  60.6100624  46.7984820
 113.7430012  63.6204997  47.7679988 114.2350012  63.3994997  46.9769988
 114.1060012  64.4614997  48.0489988 113.8593126  63.7038357  47.6977531
 131.7400012  59.9504997  54.0339988 130.8220012  60.2214997  53.9979988
 131.8630012  59.4154997  53.2489988 131.6311066  59.9152892  53.9230487
 131.7760012  59.8734997  38.6949988 132.1880012  59.1524997  38.2199988
 132.4580012  60.5434997  38.7539988 131.9245885  59.8652368  38.6378915
 114.0570012  59.8784997  41.8219988 113.1320012  60.0874997  41.6929988
 114.5110012  60.3624997  41.1329988 113.9917368  59.9725993  41.7111226
 128.8280012  74.8624997  43.7679988 129.4800012  74.5154997  43.1599988
 129.3380012  75.3514997  44.4139988 128.9862637  74.8810597  43.7720236
 114.0210012  58.6164997  50.1669988 113.3560012  58.3704997  50.8099988
 113.5780012  59.2384997  49.5889988 113.8700956  58.6668632  50.1769352
 116.2130012  71.7914997  54.3109988 115.3920012  71.9664997  53.8509988
 115.9600012  71.7184997  55.2319988 116.0666164  71.8055622  54.3724923
 119.1670012  72.7664997  50.5699988 118.7420012  73.5754997  50.2869988
 120.0710012  72.8514997  50.2679988 119.2310271  72.8888469  50.4903776
 123.4780012  74.1654997  53.5289988 123.6630012  73.8314997  54.4069988
 124.3240012  74.4744997  53.2069988 123.6177539  74.1616047  53.6055605
 125.8230012  75.4514997  52.7729988 126.5000012  74.8184997  52.5329988
 126.1450012  75.8524997  53.5799988 125.9591637  75.4191154  52.8492793
 130.7400012  58.0404997  51.8529988 129.9280012  58.3654997  51.4649988
 130.9730012  57.2804997  51.3199988 130.6603423  57.9822436  51.7278253
 116.5690012  76.0224997  50.6169988 115.8480012  76.4624997  50.1659988
 116.2030012  75.7714997  51.4659988 116.4209804  76.0487698  50.6699840
 119.0360012  75.6224997  49.6469988 118.1710012  75.6944997  50.0509988
 118.9810012  76.1694997  48.8629988 118.9102085  75.7062685  49.5963362
 123.7460012  75.5104997  48.8219988 123.2900012  76.0394997  48.1679988
 123.9090012  76.1134997  49.5479988 123.7055585  75.6644468  48.8305062
 126.0740012  74.3884997  49.7669988 125.1690012  74.5534997  49.5019988
 126.5030012  75.2414997  49.7019988 126.0080799  74.5264483  49.7219182
 128.6780012  75.9584997  50.0619988 128.4960012  76.8744997  49.8519988
 128.8550012  75.5484997  49.2159988 128.6770210  76.0284822  49.9187885
 115.9830012  74.6454997  47.5269988 115.9650012  74.2204997  48.3849988
 116.7880012  74.3274997  47.1189988 116.0893875  74.5443812  47.5891655
 118.1250012  73.3554997  46.1819988 117.9060012  72.4394997  46.3519988
 118.9490012  73.4954997  46.6479988 118.2064420  73.2490520  46.2682774
 120.6620012  73.8254997  47.0309988 120.8750012  72.9374997  46.7439988
 120.7260012  73.7914997  47.9849988 120.6998232  73.6993102  47.1207397
 124.1700012  59.4894997  46.1749988 123.4960012  58.8604997  46.4309988
 124.7340012  59.0054997  45.5719988 124.1539230  59.3378744  46.1285340
 129.3130012  57.5974997  46.2879988 129.9170012  58.1444997  45.7859988
 128.4430012  57.9164997  46.0479988 129.2781241  57.7155806  46.1867654
 131.0400012  58.7354997  44.6209988 131.6520012  58.2214997  44.0949988
 131.4220012  59.6134997  44.6449988 131.1754540  58.7837140  44.5521830
 116.4970012  58.1234997  43.9969988 115.7200012  57.8894997  43.4899988
 117.0270012  57.3264997  44.0059988 116.4622330  57.9836988  43.9287742
 115.3330012  57.9214997  39.8009988 115.7720012  58.5324997  39.2089988
 114.7000012  58.4594997  40.2749988 115.3074514  58.0779257  39.7840930
 121.0760012  58.0504997  43.8109988 121.9510012  58.4384997  43.7809988
 120.9400012  57.8354997  44.7329988 121.1773695  58.0745184  43.9316440
 126.6330012  58.0804997  45.4599988 126.7090012  58.1754997  44.5099988
 126.3580012  57.1724997  45.5889988 126.6062321  57.9707867  45.3475079
 127.9860012  58.1064997  41.1519988 127.2840012  58.7214997  40.9429988
 127.5420012  57.2684997  41.2829988 127.8296330  58.0775783  41.1410328
 115.2340012  73.8694997  40.6989988 114.5490012  73.8314997  40.0309988
 115.2380012  74.7824997  40.9869988 115.1408193  73.9877016  40.6465284
 117.1940012  59.8374997  38.2429988 117.6860012  59.2074997  37.7159988
 117.8180012  60.1334997  38.9069988 117.3455446  59.7913199  38.2605980
 122.2200012  60.1304997  40.6999988 122.3980012  59.4844997  41.3829988
 122.1670012  60.9644997  41.1679988 122.2371829  60.1547985  40.8565940
 124.0990012  75.0794997  39.0959988 124.9650012  75.4454997  38.9179988
 123.8520012  74.6394997  38.2819988 124.1842392  75.0701756  38.9616289
 130.8080012  74.6424997  41.7749988 130.6130012  73.8944997  41.2099988
 130.7690012  75.4004997  41.1919988 130.7760380  74.6426099  41.6188384
 116.4550012  58.6374997  53.5149988 116.0890012  57.8724997  53.9579988
 117.3680012  58.6664997  53.8019988 116.5282790  58.5367224  53.6144070
 118.4280012  57.9884997  55.0509988 119.3260012  57.7144997  54.8659988
 118.0410012  57.2454997  55.5149988 118.4986612  57.8505914  55.0883643
 117.0520012  74.7894997  37.7239988 116.7850012  75.0764997  38.5969988
 117.8240012  74.2434997  37.8759988 117.1197488  74.7550294  37.8641050
 126.8490012  57.3204997  55.2329988 126.9260012  56.8944997  56.0869988
 127.7430012  57.3344997  54.8899988 126.9803428  57.2640879  55.3035310
 130.0250012  73.3934997  53.9249988 129.2430012  73.2074997  53.4059988
 129.9530012  74.3224997  54.1429988 129.9081777  73.4936492  53.8834048
 144.4310012  67.2794997  43.9559988 144.5200012  68.2234997  43.8239988
 143.7930012  67.0044997  43.2979988 144.3569081  67.3714830  43.8489614
 143.3640012  66.5344997  47.3749988 143.3260012  65.8884997  48.0799988
 143.0420012  66.0684997  46.6039988 143.3152333  66.3829408  47.3672978
 135.7330012  66.1494997  48.9679988 135.7740012  65.5234997  49.6909988
 136.4360012  66.7734997  49.1499988 135.8336363  66.1481196  49.0916044
 136.6560012  70.5994997  47.5029988 136.2870012  69.7974997  47.1329988
 137.5970012  70.4304997  47.5489988 136.7327289  70.4670153  47.4586316
 133.2660012  64.2594997  42.8959988 132.8190012  65.1054997  42.8769988
 132.7050012  63.6794997  42.3799988 133.1289900  64.2969916  42.8236801
 133.9770012  66.4214997  45.0219988 134.1900012  65.6514997  45.5489988
 134.7150012  66.5104997  44.4179988 134.1058496  66.3281394  45.0125300
 144.1820012  74.5784997  45.8889988 144.8020012  73.9014997  45.6149988
 143.9740012  74.3604997  46.7969988 144.2386904  74.4563870  45.9743365
 141.7540012  68.9674997  47.7809988 142.0580012  68.2814997  47.1859988
 142.4750012  69.0854997  48.3989988 141.8930671  68.8896305  47.7831816
 144.8950012  63.3614997  48.1089988 145.0370012  62.4154997  48.1289988
 144.7880012  63.5684997  47.1799988 144.8999864  63.2599534  47.9862339
 138.0490012  61.4624997  45.3809988 138.0930012  62.3224997  44.9629988
 137.5920012  60.9104997  44.7469988 137.9932185  61.5055799  45.2380299
 134.6700012  63.8594997  46.1429988 135.3230012  63.3094997  46.5749988
 134.6940012  63.5854997  45.2259988 134.7626683  63.7471466  46.0782123
 139.8260012  65.4094997  45.3579988 140.4420012  64.8834997  45.8679988
 139.2400012  64.7694997  44.9549988 139.8310810  65.2509208  45.3733173
 136.8600012  60.3804997  49.4549988 136.6410012  60.9104997  48.6889988
 136.1920012  60.6074997  50.1019988 136.7397600  60.4836906  49.4376379
 144.2290012  69.8804997  42.9989988 143.9330012  69.5584997  42.1479988
 143.9040012  70.7804997  43.0399988 144.1446371  69.9580215  42.8881801
 139.4290012  68.0564997  49.7419988 138.6890012  68.6544997  49.8459988
 140.1430012  68.6104997  49.4269988 139.4242237  68.2132831  49.7136465
 136.4530012  62.2724997  47.4069988 137.0670012  62.9054997  47.7809988
 136.9650012  61.8004997  46.7509988 136.6062296  62.2952370  47.3694252
 137.8360012  70.0204997  50.5299988 137.8310012  70.9004997  50.1519988
 136.9830012  69.9374997  50.9549988 137.7199464  70.1296117  50.5357907
 133.9570012  69.6914997  41.3119988 133.6850012  69.9204997  40.4229988
 134.0030012  70.5294997  41.7719988 133.9260094  69.8361213  41.2525697
 140.8860012  57.6864997  46.9079988 140.7690012  56.7374997  46.8529988
 140.0310012  58.0184997  47.1809988 140.7543733  57.6015409  46.9373897
 143.1530012  66.5234997  41.4079988 142.4410012  67.0584997  41.0559988
 143.8440012  66.5794997  40.7479988 143.1490132  66.6042543  41.2706289
 143.2060012  64.9814997  38.4469988 143.9070012  65.0034997  39.0979988
 143.5090012  64.3534997  37.7909988 143.3427830  64.8996566  38.4473711
 138.2040012  67.3634997  44.2419988 137.8730012  66.9934997  43.4239988
 138.7920012  66.6934997  44.5889988 138.2381873  67.2221156  44.1768102
 139.5700012  70.7914997  46.9239988 139.4760012  70.2134997  46.1669988
 140.3000012  70.4204997  47.4199988 139.6557981  70.6622390  46.8874165
 138.5700012  66.1324997  47.8759988 139.1360012  66.2534997  47.1129988
 138.8890012  66.7694997  48.5149988 138.6905786  66.2351884  47.8580040
 144.8790012  71.6354997  48.6099988 144.6390012  72.2974997  49.2579988
 144.6810012  70.8014997  49.0349988 144.8193808  71.6133134  48.7561524
 139.4500012  70.5314997  52.5929988 139.1390012  71.3134997  53.0479988
 138.8000012  70.3784997  51.9069988 139.3195558  70.6179105  52.5625871
 136.3700012  66.7294997  51.8219988 136.4410012  67.3804997  52.5199988
 135.4800012  66.8324997  51.4869988 136.2593117  66.8325936  51.8722700
 143.1560012  72.6324997  43.4799988 143.6300012  72.9274997  44.2579988
 142.5930012  73.3704997  43.2469988 143.1447653  72.7726932  43.5550136
 137.6900012  72.6034997  53.3559988 137.6970012  72.4674997  52.4089988
 136.7740012  72.4854997  53.6079988 137.5671714  72.5689430  53.2604666
 137.1940012  66.4334997  41.8319988 136.9020012  67.2014997  41.3409988
 136.5200012  65.7734997  41.6689988 137.0629081  66.4494406  41.7427340
 133.2870012  68.7964997  50.6469988 132.7860012  68.7684997  49.8319988
 133.2920012  67.8904997  50.9559988 133.2191526  68.6702278  50.5772872
 133.0370012  71.5764997  47.5309988 133.9830012  71.4324997  47.5119988
 132.9250012  72.3604997  48.0679988 133.1512727  71.6628046  47.6010072
 142.2140012  71.8164997  52.0889988 142.3010012  72.6424997  52.5639988
 141.3500012  71.4864997  52.3379988 142.1091964  71.8849878  52.1876549
 142.6280012  75.5884997  41.8949988 142.5530012  75.4674997  40.9489988
 142.6610012  76.5384997  42.0139988 142.6221848  75.7002500  41.7814834
 136.2810012  74.3774997  43.6759988 136.4340012  74.0294997  44.5549988
 135.4310012  74.0214997  43.4209988 136.1868962  74.2816650  43.7618340
 135.5360012  70.1194997  51.6899988 135.7520012  69.7584997  52.5489988
 134.6810012  69.7454997  51.4799988 135.4499292  70.0194111  51.7793386
 138.1550012  58.5894997  47.6849988 137.2930012  58.5024997  47.2779988
 138.1320012  59.4454997  48.1129988 138.0340330  58.6932765  47.6871863
 142.8180012  58.3114997  51.0599988 143.2380012  57.8964997  51.8129988
 141.8850012  58.1334997  51.1769988 142.7493644  58.2305900  51.1789539
 142.4790012  60.8044997  38.3449988 142.2260012  60.8234997  39.2679988
 142.2230012  59.9324997  38.0439988 142.4097790  60.6892437  38.4306263
 138.2460012  63.5554997  48.7799988 137.6040012  63.5144997  49.4889988
 138.2830012  64.4814997  48.5429988 138.1631324  63.6751559  48.8449824
 138.2430012  63.7764997  43.6919988 137.3500012  63.4354997  43.6339988
 138.6930012  63.3994997  42.9369988 138.1817305  63.6788484  43.5819177
 143.7780012  64.1924997  42.5089988 143.3690012  65.0074997  42.2179988
 144.4990012  64.0524997  41.8949988 143.8194537  64.2852018  42.3861342
 142.8800012  64.3674997  53.9969988 142.3180012  63.6634997  54.3179988
 143.7070012  64.2474997  54.4649988 142.9147095  64.2547883  54.1042330
 144.7830012  63.6384997  45.3229988 144.5880012  64.2434997  44.6079988
 144.9640012  62.8044997  44.8889988 144.7807614  63.6086300  45.1664405
 135.9960012  63.8754997  50.6469988 135.9580012  64.2754997  51.5159988
 135.5050012  63.0584997  50.7379988 135.9244684  63.8198069  50.7781059
 139.3620012  61.2494997  37.4459988 138.9310012  60.8044997  38.1759988
 138.6440012  61.6214997  36.9339988 139.2059438  61.2388940  37.4766799
 132.6040012  60.9914997  44.4979988 133.2350012  60.9624997  45.2169988
 133.0530012  60.5664997  43.7679988 132.7510774  60.9300492  44.4976553
 133.8780012  61.7374997  39.9219988 134.3520012  62.3284997  39.3369988
 133.1610012  62.2684997  40.2689988 133.8459341  61.8900867  39.8888836
 144.0470012  65.2764997  49.9949988 144.3700012  64.6454997  49.3519988
 143.6070012  64.7414997  50.6549988 144.0316895  65.1178441  49.9962850
 140.8240012  61.2034997  44.7789988 139.9130012  61.2604997  45.0669988
 141.3300012  61.1434997  45.5889988 140.7675413  61.2031985  44.9280622
 135.6530012  62.8324997  43.6049988 134.7630012  62.9324997  43.2649988
 135.9490012  61.9904997  43.2589988 135.5712823  62.7323545  43.5117213
 139.3060012  62.8324997  41.2619988 140.2370012  62.9614997  41.4399988
 139.0910012  63.5024997  40.6119988 139.4044247  62.9406565  41.1985747
 137.9800012  64.0274997  38.8289988 137.4370012  63.6474997  38.1369988
 138.8130012  64.2214997  38.3999988 138.0184399  64.0018124  38.6764526
 136.1150012  68.5844997  53.9279988 136.8470012  68.8384997  54.4889988
 135.3350012  68.7884997  54.4429988 136.1098232  68.6469177  54.0745760
 142.1440012  63.9914997  46.6659988 142.7090012  63.4444997  46.1189988
 141.9970012  63.4694997  47.4539988 142.2012918  63.8462024  46.6978454
 137.1460012  60.1274997  43.0839988 136.8290012  59.2254997  43.0489988
 137.9280012  60.1294997  42.5309988 137.2082284  60.0041628  43.0044783
 140.7710012  62.3794997  49.0799988 139.9350012  62.8334997  49.1899988
 141.2950012  62.6554997  49.8319988 140.7274414  62.4789376  49.1967136
 141.3150012  68.5924997  40.7639988 140.5700012  68.0854997  40.4419988
 141.1810012  68.6414997  41.7109988 141.1948776  68.5296940  40.8478647
 142.8340012  68.7764997  52.0009988 142.4890012  68.3954997  52.8079988
 142.6340012  69.7104997  52.0729988 142.7598061  68.8505228  52.1210961
 136.4400012  67.8874997  46.5339988 137.1850012  67.8854997  45.9329988
 136.5180012  67.0644997  47.0159988 136.5525518  67.7759315  46.5168929
 143.4410012  70.0514997  39.7899988 143.1450012  70.8774997  40.1709988
 142.7380012  69.4314997  39.9859988 143.3054914  70.0808199  39.8686443
 133.4480012  66.3484997  51.8489988 133.6710012  65.9304997  52.6809988
 132.8460012  65.7354997  51.4259988 133.3971759  66.2084668  51.9057022
 140.4640012  65.8654997  54.0619988 140.1680012  65.6994997  53.1669988
 141.3960012  65.6454997  54.0509988 140.5494166  65.8130640  53.9380536
 138.8150012  71.4054997  43.9379988 139.3420012  72.1784997  43.7379988
 137.9350012  71.6304997  43.6369988 138.7681773  71.5418005  43.8699010
 134.5700012  66.2674997  38.5249988 135.1860012  66.8944997  38.9049988
 133.7080012  66.5834997  38.7969988 134.5377698  66.3959430  38.6137183
 140.2420012  69.0684997  43.5149988 140.0010012  69.9934997  43.5559988
 139.5010012  68.6094997  43.9109988 140.1088409  69.1331421  43.5741377
 140.7570012  73.2174997  49.8299988 141.1190012  74.0724997  49.5959988
 141.2880012  72.9254997  50.5699988 140.8784473  73.2951060  49.8980855
 138.9250012  74.0904997  43.0599988 137.9750012  74.1954997  43.1109988
 139.2770012  74.9104997  43.4049988 138.8424203  74.2158314  43.1136650
 144.3010012  69.3164997  49.5299988 143.8750012  69.0894997  50.3569988
 144.8810012  68.5784997  49.3479988 144.3211868  69.1855299  49.6185830
 135.0820012  61.1014997  51.4069988 134.1890012  61.4404997  51.3389988
 134.9830012  60.2464997  51.8249988 134.9464164  61.0322588  51.4542235
 134.7330012  72.9064997  49.8419988 134.9500012  71.9744997  49.8109988
 134.9790012  73.1804997  50.7249988 134.7959549  72.8160636  49.9571763
 140.5950012  71.3574997  37.0509988 140.8340012  70.6094997  36.5039988
 140.3260012  70.9694997  37.8839988 140.5913675  71.2026638  37.0886865
 139.5320012  70.9274997  39.5079988 139.6780012  70.4074997  40.2979988
 139.5290012  71.8344997  39.8139988 139.5515989  70.9788853  39.6576088
 135.9850012  68.1804997  40.0179988 135.2990012  68.5324997  40.5849988
 136.5070012  68.9434997  39.7709988 135.9616852  68.3318578  40.0622118
 143.8160012  60.8424997  50.2969988 144.5150012  60.9164997  50.9469988
 143.4350012  59.9784997  50.4509988 143.8601767  60.7357624  50.4068322
 144.6010012  60.4944997  41.3939988 144.8210012  60.9664997  40.5909988
 145.1590012  60.8894997  42.0639988 144.7064968  60.6124285  41.3747331
 142.2690012  72.6254997  40.2569988 141.4530012  73.1224997  40.3089988
 142.7990012  73.1004997  39.6169988 142.2289161  72.7577722  40.1775956
 141.8010012  62.2224997  42.2289988 142.6130012  62.7274997  42.2749988
 141.5560012  62.0774997  43.1429988 141.8790520  62.2720375  42.3588517
 142.3360012  63.2084997  51.4139988 142.4550012  63.7824997  52.1709988
 142.9920012  62.5204997  51.5279988 142.4409757  63.1941079  51.5330825
 142.6840012  59.3034997  43.1669988 142.3380012  59.9214997  43.8119988
 143.3430012  59.8044997  42.6859988 142.7257826  59.4555802  43.1900971
 139.6080012  73.6694997  40.2389988 139.7680012  74.4684997  39.7379988
 139.4100012  73.9754997  41.1239988 139.6031649  73.8204469  40.2899815
 138.3420012  60.3664997  39.8539988 138.2590012  61.2554997  40.2009988
 139.2320012  60.1014997  40.0859988 138.4509469  60.4521430  39.9327626
 136.6010012  70.7944997  38.9149988 137.1930012  71.4934997  39.1909988
 137.0600012  70.3614997  38.1949988 136.7441142  70.8317049  38.8554830
 134.9170012  63.4584997  38.0309988 134.8720012  64.3974997  38.2089988
 134.0290012  63.2224997  37.7609988 134.7908574  63.5551892  38.0188912
 135.7250012  58.2404997  46.7039988 135.4960012  58.2994997  45.7759988
 135.2820012  57.4484997  47.0099988 135.6338530  58.1415753  46.6184786
 134.6550012  72.1804997  42.8639988 133.8230012  72.6534997  42.8919988
 135.2010012  72.6904997  42.2659988 134.6149739  72.3141871  42.7869716
 133.9430012  74.7934997  54.1939988 134.4840012  74.5764997  54.9539988
 133.4620012  73.9874997  54.0049988 133.9519345  74.6549514  54.2723076
 138.5410012  73.7124997  55.8149988 139.3080012  73.2534997  56.1559988
 138.5190012  73.4864997  54.8849988 138.6431434  73.6190409  55.7360043
 142.6330012  73.2204997  37.1899988 141.9890012  72.5894997  37.5109988
 143.3950012  72.6894997  36.9579988 142.6478077  73.0622920  37.2026011
 133.8500012  68.6034997  55.1489988 133.9940012  67.7014997  54.8619988
 133.0780012  68.8894997  54.6609988 133.7653323  68.5188261  55.0437881
 138.1920012  68.9474997  37.2809988 138.2560012  68.1534997  37.8119988
 138.8450012  68.8284997  36.5909988 138.2890241  68.8227148  37.2604317
 140.5060012  68.5734997  54.5809988 140.1770012  68.8444997  53.7239988
 140.6580012  67.6324997  54.4939988 140.4814809  68.4833862  54.4518244
 143.5440012  69.9944997  37.0169988 143.2750012  70.1744997  37.9179988
 143.3380012  69.0684997  36.8859988 143.4793825  69.8940152  37.1225214
 134.6830012  65.8034997  54.5689988 135.0910012  64.9464997  54.4479988
 134.4230012  65.8184997  55.4899988 134.7037568  65.6880807  54.6769588
 139.3410012  66.9194997  39.5869988 138.8810012  66.4354997  40.2729988
 139.5960012  66.2514997  38.9509988 139.3124902  66.7628731  39.5949334
 138.6300012  64.8124997  51.9429988 138.0120012  65.4874997  52.2229988
 138.9740012  65.1334997  51.1099988 138.5919615  64.9482721  51.8686581
 140.4120012  65.1624997  37.8489988 140.2320012  65.0084997  36.9219988
 141.3620012  65.2704997  37.8939988 140.5157776  65.1560175  37.7281843
 143.6500012  67.2844997  55.2199988 144.6030012  67.3674997  55.1929988
 143.4890012  66.5724997  55.8399988 143.7586426  67.1996746  55.3000579
 138.9690012  62.1674997  53.0249988 139.1190012  61.4384997  52.4229988
 138.9720012  62.9444997  52.4659988 138.9899302  62.1727851  52.8670692
 139.3820012  60.5374997  50.5179988 139.9180012  60.9884997  49.8659988
 138.5300012  60.4294997  50.0949988 139.3402178  60.5846390  50.3715756
 140.9640012  65.9764997  50.7569988 141.7140012  65.8204997  50.1839988
 140.6250012  66.8284997  50.4819988 141.0208921  66.0702968  50.6413561
 137.4480012  63.3654997  54.9369988 136.6810012  62.8334997  54.7269988
 138.1270012  63.0554997  54.3369988 137.4347022  63.2507506  54.8271648
 140.1880012  57.9934997  50.9489988 140.0890012  58.9404997  50.8439988
 139.4450012  57.6214997  50.4739988 140.0740564  58.0725902  50.8704560
 141.4520012  62.3154997  54.5129988 141.2160012  62.0954997  55.4149988
 140.6680012  62.1084997  54.0029988 141.3138628  62.2574760  54.5673932
 144.1670012  61.4424997  53.5889988 143.2200012  61.4744997  53.7209988
 144.4800012  60.8174997  54.2419988 144.0795475  61.3623207  53.6954455
 135.6280012  61.2864997  54.6409988 135.8400012  60.5794997  54.0309988
 135.5170012  60.8484997  55.4849988 135.6419721  61.1307084  54.6716843
 140.4090012  57.2874997  53.6209988 141.1210012  56.6474997  53.6069988
 140.3080012  57.5544997  52.7069988 140.4927939  57.2359938  53.4955650
 140.7630012  58.9704997  55.6739988 140.6310012  58.4944997  54.8539988
 140.1640012  59.7144997  55.6189988 140.6639071  59.0059618  55.5542886
 140.3090012  75.8534997  38.8509988 141.2420012  76.0114997  38.9939988
 140.0450012  76.5284997  38.2259988 140.4009510  75.9663611  38.7860741
 133.8780012  70.4894997  38.3329988 134.7920012  70.5684997  38.6069988
 133.8850012  69.8024997  37.6669988 134.0041131  70.4073961  38.2804393
 132.5270012  75.8824997  43.4109988 131.8800012  75.4204997  42.8779988
 132.8810012  75.2104997  43.9929988 132.4863849  75.7284723  43.4167959
 133.3970012  73.9634997  45.2149988 133.0620012  73.0834997  45.3869988
 133.6190012  74.3084997  46.0799988 133.3811783  73.8897500  45.3554208
 133.4770012  67.0384997  47.6669988 133.6610012  66.9564997  46.7309988
 134.3260012  66.9144997  48.0909988 133.6170139  67.0105003  47.5961455
 133.0740012  62.3094997  53.8079988 133.9940012  62.1874997  54.0439988
 132.6250012  61.5594997  54.1969988 133.1391580  62.1913727  53.8929006
 134.2950012  60.6214997  46.6989988 134.7410012  59.8294997  47.0009988
 134.7620012  61.3374997  47.1299988 134.4190172  60.6100624  46.7984820
 132.5990012  63.6204997  47.7679988 133.0910012  63.3994997  46.9769988
 132.9620012  64.4614997  48.0489988 132.7153126  63.7038357  47.6977531
 132.9130012  59.8784997  41.8219988 131.9880012  60.0874997  41.6929988
 133.3670012  60.3624997  41.1329988 132.8477368  59.9725993  41.7111226
 132.8770012  58.6164997  50.1669988 132.2120012  58.3704997  50.8099988
 132.4340012  59.2384997  49.5889988 132.7260956  58.6668632  50.1769352
 135.0690012  71.7914997  54.3109988 134.2480012  71.9664997  53.8509988
 134.8160012  71.7184997  55.2319988 134.9226164  71.8055622  54.3724923
 138.0230012  72.7664997  50.5699988 137.5980012  73.5754997  50.2869988
 138.9270012  72.8514997  50.2679988 138.0870271  72.8888469  50.4903776
 142.3340012  74.1654997  53.5289988 142.5190012  73.8314997  54.4069988
 143.1800012  74.4744997  53.2069988 142.4737539  74.1616047  53.6055605
 144.6790012  75.4514997  52.7729988 145.3560012  74.8184997  52.5329988
 145.0010012  75.8524997  53.5799988 144.8151637  75.4191154  52.8492793
 135.4250012  76.0224997  50.6169988 134.7040012  76.4624997  50.1659988
 135.0590012  75.7714997  51.4659988 135.2769804  76.0487698  50.6699840
 137.8920012  75.6224997  49.6469988 137.0270012  75.6944997  50.0509988
 137.8370012  76.1694997  48.8629988 137.7662085  75.7062685  49.5963362
 142.6020012  75.5104997  48.8219988 142.1460012  76.0394997  48.1679988
 142.7650012  76.1134997  49.5479988 142.5615585  75.6644468  48.8305062
 134.8390012  74.6454997  47.5269988 134.8210012  74.2204997  48.3849988
 135.6440012  74.3274997  47.1189988 134.9453875  74.5443812  47.5891655
 136.9810012  73.3554997  46.1819988 136.7620012  72.4394997  46.3519988
 137.8050012  73.4954997  46.6479988 137.0624420  73.2490520  46.2682774
 139.5180012  73.8254997  47.0309988 139.7310012  72.9374997  46.7439988
 139.5820012  73.7914997  47.9849988 139.5558232  73.6993102  47.1207397
 143.0260012  59.4894997  46.1749988 142.3520012  58.8604997  46.4309988
 143.5900012  59.0054997  45.5719988 143.0099230  59.3378744  46.1285340
 135.3530012  58.1234997  43.9969988 134.5760012  57.8894997  43.4899988
 135.8830012  57.3264997  44.0059988 135.3182330  57.9836988  43.9287742
 134.1890012  57.9214997  39.8009988 134.6280012  58.5324997  39.2089988
 133.5560012  58.4594997  40.2749988 134.1634514  58.0779257  39.7840930
 139.9320012  58.0504997  43.8109988 140.8070012  58.4384997  43.7809988
 139.7960012  57.8354997  44.7329988 140.0333695  58.0745184  43.9316440
 134.0900012  73.8694997  40.6989988 133.4050012  73.8314997  40.0309988
 134.0940012  74.7824997  40.9869988 133.9968193  73.9877016  40.6465284
 136.0500012  59.8374997  38.2429988 136.5420012  59.2074997  37.7159988
 136.6740012  60.1334997  38.9069988 136.2015446  59.7913199  38.2605980
 141.0760012  60.1304997  40.6999988 141.2540012  59.4844997  41.3829988
 141.0230012  60.9644997  41.1679988 141.0931829  60.1547985  40.8565940
 142.9550012  75.0794997  39.0959988 143.8210012  75.4454997  38.9179988
 142.7080012  74.6394997  38.2819988 143.0402392  75.0701756  38.9616289
 135.3110012  58.6374997  53.5149988 134.9450012  57.8724997  53.9579988
 136.2240012  58.6664997  53.8019988 135.3842790  58.5367224  53.6144070
 137.2840012  57.9884997  55.0509988 138.1820012  57.7144997  54.8659988
 136.8970012  57.2454997  55.5149988 137.3546612  57.8505914  55.0883643
 135.9080012  74.7894997  37.7239988 135.6410012  75.0764997  38.5969988
 136.6800012  74.2434997  37.8759988 135.9757488  74.7550294  37.8641050
  12.4390012  86.1354997  43.9559988  12.5280012  87.0794997  43.8239988
  11.8010012  85.8604997  43.2979988  12.3649081  86.2274830  43.8489614
  11.3720012  85.3904997  47.3749988  11.3340012  84.7444997  48.0799988
  11.0500012  84.9244997  46.6039988  11.3232333  85.2389408  47.3672978
   3.7410012  85.0054997  48.9679988   3.7820012  84.3794997  49.6909988
   4.4440012  85.6294997  49.1499988   3.8416363  85.0041196  49.0916044
  15.0780012  88.3294997  45.6759988  14.6380012  87.6094997  46.1269988
  15.0650012  89.0504997  46.3059988  15.0160226  88.3283731  45.8228494
   4.6640012  89.4554997  47.5029988   4.2950012  88.6534997  47.1329988
   5.6050012  89.2864997  47.5489988   4.7407289  89.3230153  47.4586316
   1.2740012  83.1154997  42.8959988   0.8270012  83.9614997  42.8769988
   0.7130012  82.5354997  42.3799988   1.1369900  83.1529916  42.8236801
   1.9850012  85.2774997  45.0219988   2.1980012  84.5074997  45.5489988
   2.7230012  85.3664997  44.4179988   2.1138496  85.1841394  45.0125300
  12.1900012  93.4344997  45.8889988  12.8100012  92.7574997  45.6149988
  11.9820012  93.2164997  46.7969988  12.2466904  93.3123870  45.9743365
   9.7620012  87.8234997  47.7809988  10.0660012  87.1374997  47.1859988
  10.4830012  87.9414997  48.3989988   9.9010671  87.7456305  47.7831816
  18.4250012  79.4244997  48.6419988  18.4740012  80.0344997  49.3779988
  18.8500012  79.8854997  47.9189988  18.4891824  79.5703741  48.6450205
  12.9030012  82.2174997  48.1089988  13.0450012  81.2714997  48.1289988
  12.7960012  82.4244997  47.1799988  12.9079864  82.1159534  47.9862339
   6.0570012  80.3184997  45.3809988   6.1010012  81.1784997  44.9629988
   5.6000012  79.7664997  44.7469988   6.0012185  80.3615799  45.2380299
  13.7800012  80.4494997  43.7819988  14.4260012  80.1204997  44.4069988
  14.2900012  80.9674997  43.1589988  13.9374264  80.4744611  43.7833862
   2.6780012  82.7154997  46.1429988   3.3310012  82.1654997  46.5749988
   2.7020012  82.4414997  45.2259988   2.7706683  82.6031466  46.0782123
   7.8340012  84.2654997  45.3579988   8.4500012  83.7394997  45.8679988
   7.2480012  83.6254997  44.9549988   7.8390810  84.1069208  45.3733173
  18.8160012  80.9024997  50.8779988  18.1280012  81.5604997  50.7819988
  18.8320012  80.7054997  51.8139988  18.7238525  80.9660462  50.9914808
   4.8680012  79.2364997  49.4549988   4.6490012  79.7664997  48.6889988
   4.2000012  79.4634997  50.1019988   4.7477600  79.3396906  49.4376379
  12.2370012  88.7364997  42.9989988  11.9410012  88.4144997  42.1479988
  11.9120012  89.6364997  43.0399988  12.1526371  88.8140215  42.8881801
   7.4370012  86.9124997  49.7419988   6.6970012  87.5104997  49.8459988
   8.1510012  87.4664997  49.4269988   7.4322237  87.0692831  49.7136465
  15.5440012  79.7404997  45.7619988  15.3280012  78.9744997  46.2949988
  16.1990012  80.2124997  46.2749988  15.6030632  79.6995889  45.9042861
   4.4610012  81.1284997  47.4069988   5.0750012  81.7614997  47.7809988
   4.9730012  80.6564997  46.7509988   4.6142296  81.1512370  47.3694252
   5.8440012  88.8764997  50.5299988   5.8390012  89.7564997  50.1519988
   4.9910012  88.7934997  50.9549988   5.7279464  88.9856117  50.5357907
   1.9650012  88.5474997  41.3119988   1.6930012  88.7764997  40.4229988
   2.0110012  89.3854997  41.7719988   1.9340094  88.6921213  41.2525697
  15.5900012  90.1694997  48.0239988  14.6490012  90.2274997  48.1859988
  15.8670012  91.0754997  47.8869988  15.4984679  90.2999443  48.0276815
  15.8910012  78.4554997  49.4419988  15.1550012  79.0664997  49.4039988
  16.5740012  78.8704997  48.9149988  15.8826541  78.5951374  49.3655832
   8.8940012  76.5424997  46.9079988   8.7770012  75.5934997  46.8529988
   8.0390012  76.8744997  47.1809988   8.7623733  76.4575409  46.9373897
  13.8420012  91.9504997  44.6499988  14.2680012  91.2434997  44.1649988
  14.1590012  92.7514997  44.2329988  13.9431019  91.9620994  44.5273130
  15.0020012  89.8514997  43.1579988  14.7440012  89.1614997  42.5469988
  15.0730012  89.4084997  44.0039988  14.9762856  89.6972124  43.1886885
  16.6880012  88.4174997  51.6359988  16.8280012  87.8264997  50.8959988
  16.8550012  89.2904997  51.2789988  16.7296778  88.4546426  51.4866965
  11.1610012  85.3794997  41.4079988  10.4490012  85.9144997  41.0559988
  11.8520012  85.4354997  40.7479988  11.1570132  85.4602543  41.2706289
  11.2140012  83.8374997  38.4469988  11.9150012  83.8594997  39.0979988
  11.5170012  83.2094997  37.7909988  11.3507830  83.7556566  38.4473711
  18.5300012  84.7574997  49.7019988  17.8770012  85.4524997  49.7909988
  18.9950012  84.9674997  48.8919988  18.5035390  84.8809425  49.6046883
  14.5660012  85.5894997  42.3599988  13.8340012  85.8174997  42.9329988
  15.0140012  84.8754997  42.8149988  14.5263095  85.5242571  42.4999119
  14.4640012  83.7634997  51.4269988  14.5440012  84.5264997  51.9989988
  13.8620012  84.0424997  50.7369988  14.3935756  83.9057134  51.4120589
   6.2120012  86.2194997  44.2419988   5.8810012  85.8494997  43.4239988
   6.8000012  85.5494997  44.5889988   6.2461873  86.0781156  44.1768102
   7.5780012  89.6474997  46.9239988   7.4840012  89.0694997  46.1669988
   8.3080012  89.2764997  47.4199988   7.6637981  89.5182390  46.8874165
   6.5780012  84.9884997  47.8759988   7.1440012  85.1094997  47.1129988
   6.8970012  85.6254997  48.5149988   6.6985786  85.0911884  47.8580040
  12.8870012  90.4914997  48.6099988  12.6470012  91.1534997  49.2579988
  12.6890012  89.6574997  49.0349988  12.8273808  90.4693134  48.7561524
   7.4580012  89.3874997  52.5929988   7.1470012  90.1694997  53.0479988
   6.8080012  89.2344997  51.9069988   7.3275558  89.4739105  52.5625871
  13.4370012  84.7514997  40.0449988  14.0170012  84.9014997  40.7919988
  13.8510012  85.2224997  39.3219988  13.5722830  84.8356841  40.0494134
   4.3780012  85.5854997  51.8219988   4.4490012  86.2364997  52.5199988
   3.4880012  85.6884997  51.4869988   4.2673117  85.6885936  51.8722700
  11.1640012  91.4884997  43.4799988  11.6380012  91.7834997  44.2579988
  10.6010012  92.2264997  43.2469988  11.1527653  91.6286932  43.5550136
   5.6980012  91.4594997  53.3559988   5.7050012  91.3234997  52.4089988
   4.7820012  91.3414997  53.6079988   5.5751714  91.4249430  53.2604666
  17.1360012  76.5014997  39.8579988  16.2360012  76.6404997  40.1529988
  17.3880012  77.3324997  39.4559988  17.0468702  76.6329074  39.8440205
   5.2020012  85.2894997  41.8319988   4.9100012  86.0574997  41.3409988
   4.5280012  84.6294997  41.6689988   5.0709081  85.3054406  41.7427340
  18.3250012  90.8674997  38.2339988  18.3990012  91.8064997  38.4049988
  19.2310012  90.5624997  38.1779988  18.4575100  90.9546722  38.2498119
   1.2950012  87.6524997  50.6469988   0.7940012  87.6244997  49.8319988
   1.3000012  86.7464997  50.9559988   1.2271526  87.5262278  50.5772872
   1.0450012  90.4324997  47.5309988   1.9910012  90.2884997  47.5119988
   0.9330012  91.2164997  48.0679988   1.1592727  90.5188046  47.6010072
  19.2430012  91.0984997  53.2129988  19.1940012  90.1434997  53.1759988
  18.4160012  91.3664997  53.6139988  19.1244940  91.0038998  53.2621375
  10.2220012  90.6724997  52.0889988  10.3090012  91.4984997  52.5639988
   9.3580012  90.3424997  52.3379988  10.1171964  90.7409878  52.1876549
  10.6360012  94.4444997  41.8949988  10.5610012  94.3234997  40.9489988
  10.6690012  95.3944997  42.0139988  10.6301848  94.5562500  41.7814834
   4.2890012  93.2334997  43.6759988   4.4420012  92.8854997  44.5549988
   3.4390012  92.8774997  43.4209988   4.1948962  93.1376650  43.7618340
  13.7380012  93.5984997  38.8969988  14.1130012  92.8544997  38.4269988
  13.7420012  93.3284997  39.8159988  13.7898915  93.4601486  38.9567824
  13.4070012  93.5244997  41.6469988  12.4710012  93.6244997  41.8249988
  13.6870012  92.8154997  42.2249988  13.3168255  93.4422711  41.7495391
  16.3950012  82.5914997  53.6929988  15.9880012  83.0724997  52.9719988
  16.4360012  81.6864997  53.3849988  16.3448437  82.5349374  53.5526683
   3.5440012  88.9754997  51.6899988   3.7600012  88.6144997  52.5489988
   2.6890012  88.6014997  51.4799988   3.4579292  88.8754111  51.7793386
   6.1630012  77.4454997  47.6849988   5.3010012  77.3584997  47.2779988
   6.1400012  78.3014997  48.1129988   6.0420330  77.5492765  47.6871863
  10.8260012  77.1674997  51.0599988  11.2460012  76.7524997  51.8129988
   9.8930012  76.9894997  51.1769988  10.7573644  77.0865900  51.1789539
  14.1520012  80.9234997  51.9129988  13.6380012  80.7974997  52.7109988
  13.9970012  81.8354997  51.6689988  14.0606852  81.0296132  51.9892158
  14.9150012  85.7844997  37.6749988  14.9570012  85.5614997  36.7449988
  15.7640012  86.1834997  37.8649988  15.0355396  85.8079155  37.5733627
  10.4870012  79.6604997  38.3449988  10.2340012  79.6794997  39.2679988
  10.2310012  78.7884997  38.0439988  10.4177790  79.5452437  38.4306263
   6.2540012  82.4114997  48.7799988   5.6120012  82.3704997  49.4889988
   6.2910012  83.3374997  48.5429988   6.1711324  82.5311559  48.8449824
   6.2510012  82.6324997  43.6919988   5.3580012  82.2914997  43.6339988
   6.7010012  82.2554997  42.9369988   6.1897305  82.5348484  43.5819177
  11.7860012  83.0484997  42.5089988  11.3770012  83.8634997  42.2179988
  12.5070012  82.9084997  41.8949988  11.8274537  83.1412018  42.3861342
  10.8880012  83.2234997  53.9969988  10.3260012  82.5194997  54.3179988
  11.7150012  83.1034997  54.4649988  10.9227095  83.1107883  54.1042330
  12.7910012  82.4944997  45.3229988  12.5960012  83.0994997  44.6079988
  12.9720012  81.6604997  44.8889988  12.7887614  82.4646300  45.1664405
   4.0040012  82.7314997  50.6469988   3.9660012  83.1314997  51.5159988
   3.5130012  81.9144997  50.7379988   3.9324684  82.6758069  50.7781059
   7.3700012  80.1054997  37.4459988   6.9390012  79.6604997  38.1759988
   6.6520012  80.4774997  36.9339988   7.2139438  80.0948940  37.4766799
   0.6120012  79.8474997  44.4979988   1.2430012  79.8184997  45.2169988
   1.0610012  79.4224997  43.7679988   0.7590774  79.7860492  44.4976553
   1.8860012  80.5934997  39.9219988   2.3600012  81.1844997  39.3369988
   1.1690012  81.1244997  40.2689988   1.8539341  80.7460867  39.8888836
  12.0550012  84.1324997  49.9949988  12.3780012  83.5014997  49.3519988
  11.6150012  83.5974997  50.6549988  12.0396895  83.9738441  49.9962850
   8.8320012  80.0594997  44.7789988   7.9210012  80.1164997  45.0669988
   9.3380012  79.9994997  45.5889988   8.7755413  80.0591985  44.9280622
   3.6610012  81.6884997  43.6049988   2.7710012  81.7884997  43.2649988
   3.9570012  80.8464997  43.2589988   3.5792823  81.5883546  43.5117213
   7.3140012  81.6884997  41.2619988   8.2450012  81.8174997  41.4399988
   7.0990012  82.3584997  40.6119988   7.4124247  81.7966565  41.1985747
  13.2370012  79.2944997  48.0429988  12.5610012  79.4254997  48.7069988
  12.7520012  79.1394997  47.2329988  13.0787145  79.2914905  48.0244517
   5.9880012  82.8834997  38.8289988   5.4450012  82.5034997  38.1369988
   6.8210012  83.0774997  38.3999988   6.0264399  82.8578124  38.6764526
  16.5250012  94.9664997  54.3199988  16.7250012  95.3904997  53.4849988
  17.1800012  95.3094997  54.9269988  16.6410051  95.0709648  54.2877836
   4.1230012  87.4404997  53.9279988   4.8550012  87.6944997  54.4889988
   3.3430012  87.6444997  54.4429988   4.1178232  87.5029177  54.0745760
  10.1520012  82.8474997  46.6659988  10.7170012  82.3004997  46.1189988
  10.0050012  82.3254997  47.4539988  10.2092918  82.7022024  46.6978454
   5.1540012  78.9834997  43.0839988   4.8370012  78.0814997  43.0489988
   5.9360012  78.9854997  42.5309988   5.2162284  78.8601628  43.0044783
   8.7790012  81.2354997  49.0799988   7.9430012  81.6894997  49.1899988
   9.3030012  81.5114997  49.8319988   8.7354414  81.3349376  49.1967136
   9.3230012  87.4484997  40.7639988   8.5780012  86.9414997  40.4419988
   9.1890012  87.4974997  41.7109988   9.2028776  87.3856940  40.8478647
  16.4730012  86.5814997  49.5509988  17.1150012  87.0384997  49.0069988
  15.6430012  86.6944997  49.0879988  16.4485963  86.6592704  49.4140177
  13.2210012  80.2624997  38.9639988  12.2820012  80.3744997  38.8119988
  13.5180012  81.1194997  39.2699988  13.1327666  80.3936443  38.9845768
  10.8420012  87.6324997  52.0009988  10.4970012  87.2514997  52.8079988
  10.6420012  88.5664997  52.0729988  10.7678061  87.7065228  52.1210961
  13.9390012  82.1294997  40.6239988  14.8310012  81.9924997  40.9429988
  13.9960012  82.9204997  40.0879988  14.0686285  82.2176660  40.5951690
   4.4480012  86.7434997  46.5339988   5.1930012  86.7414997  45.9329988
   4.5260012  85.9204997  47.0159988   4.5605518  86.6319315  46.5168929
  11.4490012  88.9074997  39.7899988  11.1530012  89.7334997  40.1709988
  10.7460012  88.2874997  39.9859988  11.3134914  88.9368199  39.8686443
   1.4560012  85.2044997  51.8489988   1.6790012  84.7864997  52.6809988
   0.8540012  84.5914997  51.4259988   1.4051759  85.0644668  51.9057022
   8.4720012  84.7214997  54.0619988   8.1760012  84.5554997  53.1669988
   9.4040012  84.5014997  54.0509988   8.5574166  84.6690640  53.9380536
  13.0930012  90.0944997  51.9519988  12.1920012  90.2774997  51.6839988
  13.1270012  90.3534997  52.8729988  12.9743041  90.1545512  52.0398197
  18.8240012  82.3394997  40.3189988  18.2700012  81.9434997  39.6469988
  18.9240012  83.2494997  40.0409988  18.7617059  82.4083586  40.1894401
  18.7870012  88.1394997  53.1559988  17.9360012  88.3774997  52.7889988
  19.3780012  88.1224997  52.4029988  18.7502487  88.1698258  53.0038893
  17.1190012  91.1254997  40.7839988  16.7460012  90.2994997  41.0929988
  17.3970012  90.9424997  39.8869988  17.1055630  90.9877303  40.7049626
  14.2800012  85.9334997  47.8049988  13.3510012  85.7014997  47.7779988
  14.7310012  85.1564997  47.4749988  14.2139216  85.7967238  47.7566917
   6.8230012  90.2614997  43.9379988   7.3500012  91.0344997  43.7379988
   5.9430012  90.4864997  43.6369988   6.7761773  90.3978005  43.8699010
   2.5780012  85.1234997  38.5249988   3.1940012  85.7504997  38.9049988
   1.7160012  85.4394997  38.7969988   2.5457698  85.2519430  38.6137183
   8.2500012  87.9244997  43.5149988   8.0090012  88.8494997  43.5559988
   7.5090012  87.4654997  43.9109988   8.1168409  87.9891421  43.5741377
   8.7650012  92.0734997  49.8299988   9.1270012  92.9284997  49.5959988
   9.2960012  91.7814997  50.5699988   8.8864473  92.1511060  49.8980855
   6.9330012  92.9464997  43.0599988   5.9830012  93.0514997  43.1109988
   7.2850012  93.7664997  43.4049988   6.8504203  93.0718314  43.1136650
  12.3090012  88.1724997  49.5299988  11.8830012  87.9454997  50.3569988
  12.8890012  87.4344997  49.3479988  12.3291868  88.0415299  49.6185830
  14.5120012  89.1014997  38.6039988  14.8650012  88.7214997  39.4089988
  13.5630012  89.0084997  38.6909988  14.4320441  89.0369596  38.7258559
  14.9670012  92.7244997  51.9999988  14.3660012  92.1694997  51.5039988
  15.2490012  93.3914997  51.3739988  14.9228519  92.7386841  51.8474952
  19.0150012  93.5814997  38.8049988  19.7590012  94.1674997  38.6649988
  18.3210012  94.1494997  39.1389988  19.0230292  93.7385582  38.8309961
   3.0900012  79.9574997  51.4069988   2.1970012  80.2964997  51.3389988
   2.9910012  79.1024997  51.8249988   2.9544164  79.8882588  51.4542235
  15.3780012  87.7744997  40.8309988  15.1000012  87.0464997  41.3869988
  16.3050012  87.8934997  41.0359988  15.4653124  87.6908802  40.9348845
   2.7410012  91.7624997  49.8419988   2.9580012  90.8304997  49.8109988
   2.9870012  92.0364997  50.7249988   2.8039549  91.6720636  49.9571763
   8.6030012  90.2134997  37.0509988   8.8420012  89.4654997  36.5039988
   8.3340012  89.8254997  37.8839988   8.5993675  90.0586638  37.0886865
   7.5400012  89.7834997  39.5079988   7.6860012  89.2634997  40.2979988
   7.5370012  90.6904997  39.8139988   7.5595989  89.8348853  39.6576088
   3.9930012  87.0364997  40.0179988   3.3070012  87.3884997  40.5849988
   4.5150012  87.7994997  39.7709988   3.9696852  87.1878578  40.0622118
  11.8240012  79.6984997  50.2969988  12.5230012  79.7724997  50.9469988
  11.4430012  78.8344997  50.4509988  11.8681767  79.5917624  50.4068322
  12.6090012  79.3504997  41.3939988  12.8290012  79.8224997  40.5909988
  13.1670012  79.7454997  42.0639988  12.7144968  79.4684285  41.3747331
  10.2770012  91.4814997  40.2569988   9.4610012  91.9784997  40.3089988
  10.8070012  91.9564997  39.6169988  10.2369161  91.6137722  40.1775956
   9.8090012  81.0784997  42.2289988  10.6210012  81.5834997  42.2749988
   9.5640012  80.9334997  43.1429988   9.8870520  81.1280375  42.3588517
  10.3440012  82.0644997  51.4139988  10.4630012  82.6384997  52.1709988
  11.0000012  81.3764997  51.5279988  10.4489757  82.0501079  51.5330825
  10.6920012  78.1594997  43.1669988  10.3460012  78.7774997  43.8119988
  11.3510012  78.6604997  42.6859988  10.7337826  78.3115802  43.1900971
   7.6160012  92.5254997  40.2389988   7.7760012  93.3244997  39.7379988
   7.4180012  92.8314997  41.1239988   7.6111649  92.6764469  40.2899815
   6.3500012  79.2224997  39.8539988   6.2670012  80.1114997  40.2009988
   7.2400012  78.9574997  40.0859988   6.4589469  79.3081430  39.9327626
  16.5490012  79.9714997  52.2489988  15.6320012  80.2344997  52.1609988
  16.8840012  79.9684997  51.3519988  16.4689900  80.0070224  52.1157919
  15.1510012  83.7224997  46.3439988  14.3530012  83.3074997  46.0159988
  15.5960012  83.0314997  46.8349988  15.1019885  83.5723543  46.3654889
   4.6090012  89.6504997  38.9149988   5.2010012  90.3494997  39.1909988
   5.0680012  89.2174997  38.1949988   4.7521142  89.6877049  38.8554830
   2.9250012  82.3144997  38.0309988   2.8800012  83.2534997  38.2089988
   2.0370012  82.0784997  37.7609988   2.7988574  82.4111892  38.0188912
  16.2370012  92.9784997  47.9669988  16.0820012  93.6564997  47.3099988
  17.1700012  93.0504997  48.1699988  16.3418500  93.0810170  47.9045119
   3.7330012  77.0964997  46.7039988   3.5040012  77.1554997  45.7759988
   3.2900012  76.3044997  47.0099988   3.6418530  76.9975753  46.6184786
   2.6630012  91.0364997  42.8639988   1.8310012  91.5094997  42.8919988
   3.2090012  91.5464997  42.2659988   2.6229739  91.1701871  42.7869716
   1.9510012  93.6494997  54.1939988   2.4920012  93.4324997  54.9539988
   1.4700012  92.8434997  54.0049988   1.9599345  93.5109514  54.2723076
   6.5490012  92.5684997  55.8149988   7.3160012  92.1094997  56.1559988
   6.5270012  92.3424997  54.8849988   6.6511434  92.4750409  55.7360043
  10.6410012  92.0764997  37.1899988   9.9970012  91.4454997  37.5109988
  11.4030012  91.5454997  36.9579988  10.6558077  91.9182920  37.2026011
  13.1260012  90.9484997  54.5439988  12.7750012  90.0924997  54.7869988
  13.8520012  91.0914997  55.1509988  13.1760769  90.8505636  54.6593619
  15.2450012  91.8934997  37.4239988  15.5280012  91.0994997  37.8759988
  15.9850012  92.1264997  36.8629988  15.3837486  91.8162803  37.4100698
   1.8580012  87.4594997  55.1489988   2.0020012  86.5574997  54.8619988
   1.0860012  87.7454997  54.6609988   1.7733322  87.3748261  55.0437881
   6.2000012  87.8034997  37.2809988   6.2640012  87.0094997  37.8119988
   6.8530012  87.6844997  36.5909988   6.2970241  87.6787148  37.2604317
   8.5140012  87.4294997  54.5809988   8.1850012  87.7004997  53.7239988
   8.6660012  86.4884997  54.4939988   8.4894809  87.3393862  54.4518244
  11.5520012  88.8504997  37.0169988  11.2830012  89.0304997  37.9179988
  11.3460012  87.9244997  36.8859988  11.4873825  88.7500152  37.1225214
  14.2480012  87.3454997  51.9649988  14.9940012  87.9334997  51.8449988
  13.4910012  87.9274997  52.0279988  14.2477554  87.5047011  51.9570907
   2.6910012  84.6594997  54.5689988   3.0990012  83.8024997  54.4479988
   2.4310012  84.6744997  55.4899988   2.7117568  84.5440807  54.6769588
   7.3490012  85.7754997  39.5869988   6.8890012  85.2914997  40.2729988
   7.6040012  85.1074997  38.9509988   7.3204902  85.6188731  39.5949334
   6.6380012  83.6684997  51.9429988   6.0200012  84.3434997  52.2229988
   6.9820012  83.9894997  51.1099988   6.5999615  83.8042721  51.8686581
   8.4200012  84.0184997  37.8489988   8.2400012  83.8644997  36.9219988
   9.3700012  84.1264997  37.8939988   8.5237776  84.0120175  37.7281843
  11.6580012  86.1404997  55.2199988  12.6110012  86.2234997  55.1929988
  11.4970012  85.4284997  55.8399988  11.7666426  86.0556746  55.3000579
  17.8100012  86.3734997  37.2949988  17.5360012  85.9484997  36.4819988
  17.8490012  87.3044997  37.0779988  17.7777699  86.4412484  37.1543610
   6.9770012  81.0234997  53.0249988   7.1270012  80.2944997  52.4229988
   6.9800012  81.8004997  52.4659988   6.9979302  81.0287851  52.8670692
   7.3900012  79.3934997  50.5179988   7.9260012  79.8444997  49.8659988
   6.5380012  79.2854997  50.0949988   7.3482178  79.4406390  50.3715756
   8.9720012  84.8324997  50.7569988   9.7220012  84.6764997  50.1839988
   8.6330012  85.6844997  50.4819988   9.0288921  84.9262968  50.6413561
  13.3870012  82.6474997  55.7859988  13.5800012  81.7164997  55.6739988
  14.2450012  83.0724997  55.7759988  13.5293020  82.5776389  55.7693361
  14.7040012  85.4364997  53.8629988  14.4230012  86.1454997  53.2859988
  15.6470012  85.3634997  53.7119988  14.7929027  85.5237646  53.7635551
   5.4560012  82.2214997  54.9369988   4.6890012  81.6894997  54.7269988
   6.1350012  81.9114997  54.3369988   5.4427022  82.1067506  54.8271648
   8.1960012  76.8494997  50.9489988   8.0970012  77.7964997  50.8439988
   7.4530012  76.4774997  50.4739988   8.0820564  76.9285902  50.8704560
   9.4600012  81.1714997  54.5129988   9.2240012  80.9514997  55.4149988
   8.6760012  80.9644997  54.0029988   9.3218628  81.1134760  54.5673932
  12.1750012  80.2984997  53.5889988  11.2280012  80.3304997  53.7209988
  12.4880012  79.6734997  54.2419988  12.0875475  80.2183207  53.6954455
  13.8090012  78.9324997  55.5939988  13.7130012  77.9804997  55.5879988
  13.4880012  79.2014997  56.4539988  13.7524070  78.8384035  55.7095441
   3.6360012  80.1424997  54.6409988   3.8480012  79.4354997  54.0309988
   3.5250012  79.7044997  55.4849988   3.6499721  79.9867084  54.6716843
   8.4170012  76.1434997  53.6209988   9.1290012  75.5034997  53.6069988
   8.3160012  76.4104997  52.7069988   8.5007939  76.0919938  53.4955650
   8.7710012  77.8264997  55.6739988   8.6390012  77.3504997  54.8539988
   8.1720012  78.5704997  55.6189988   8.6719071  77.8619618  55.5542886
   8.3170012  94.7094997  38.8509988   9.2500012  94.8674997  38.9939988
   8.0530012  95.3844997  38.2259988   8.4089510  94.8223611  38.7860741
   1.8860012  89.3454997  38.3329988   2.8000012  89.4244997  38.6069988
   1.8930012  88.6584997  37.6669988   2.0121131  89.2633961  38.2804393
   0.5350012  94.7384997  43.4109988  -0.1119988  94.2764997  42.8779988
   0.8890012  94.0664997  43.9929988   0.4943849  94.5844723  43.4167959
   1.4050012  92.8194997  45.2149988   1.0700012  91.9394997  45.3869988
   1.6270012  93.1644997  46.0799988   1.3891783  92.7457500  45.3554208
  18.9530012  93.6284997  48.1959988  18.9320012  93.8134997  49.1349988
  19.6440012  94.1974997  47.8549988  19.0434618  93.7306606  48.2783864
  18.5170012  93.1964997  51.1179988  18.0290012  92.4604997  50.7469988
  19.0660012  92.8024997  51.7959988  18.5244872  93.0426249  51.1589160
  16.9670012  88.9854997  55.7559988  16.1010012  88.8804997  56.1499988
  17.3440012  89.7444997  56.2019988  16.8993308  89.0736900  55.8702393
  18.2680012  87.2424997  41.2699988  19.1180012  87.6634997  41.3969988
  18.2740012  86.5024997  41.8769988  18.3851372  87.2000803  41.3694344
  18.6630012  85.2954997  43.0939988  17.9360012  84.8164997  43.4909988
  19.2440012  85.5014997  43.8259988  18.6419375  85.2577090  43.2474129
  18.4220012  88.0804997  48.0409988  19.2550012  87.7024997  47.7609988
  18.5340012  89.0234997  47.9219988  18.5512647  88.1562218  47.9865487
  16.9080012  90.9584997  50.3479988  16.2610012  91.2834997  50.9739988
  16.3910012  90.5184997  49.6739988  16.7494029  90.9435004  50.3425827
  18.9310012  85.1964997  39.4849988  18.4090012  85.5534997  38.7659988
  18.8980012  85.8714997  40.1629988  18.8551634  85.3365413  39.4783145
  17.2800012  82.4364997  38.0359988  17.3760012  83.1034997  37.3549988
  17.1400012  81.6204997  37.5539988  17.2742135  82.4174500  37.8778491
  16.4490012  83.8164997  43.6569988  16.2990012  82.8714997  43.6359988
  16.0960012  84.0974997  44.4999988  16.3806625  83.7250441  43.7682346
   1.4850012  85.8944997  47.6669988   1.6690012  85.8124997  46.7309988
   2.3340012  85.7704997  48.0909988   1.6250139  85.8665003  47.5961455
  17.3060012  85.7864997  53.2949988  17.8890012  85.0524997  53.4869988
  17.8700012  86.5584997  53.3419988  17.4619769  85.7904227  53.3276159
  18.8020012  83.6894997  53.9799988  17.9390012  83.3104997  53.8139988
  19.4070012  82.9504997  53.9059988  18.7655979  83.5378023  53.9472817
  16.5270012  79.8444997  37.1529988  17.1380012  79.4734997  37.7899988
  15.6910012  79.4234997  37.3489988  16.4975032  79.7367554  37.2667035
  16.1600012  81.3994997  42.1189988  16.4400012  80.4924997  42.2429988
  16.9190012  81.8334997  41.7299988  16.3009277  81.3340942  42.0833682
  16.7720012  81.9804997  47.5549988  17.7050012  82.1924997  47.5209988
  16.5370012  82.0824997  48.4769988  16.8678036  82.0232769  47.6749976
  16.8010012  82.7174997  50.3309988  15.9580012  82.9854997  50.6969988
  17.2430012  83.5394997  50.1199988  16.7454158  82.8653291  50.3525491
   1.0820012  81.1654997  53.8079988   2.0020012  81.0434997  54.0439988
   0.6330012  80.4154997  54.1969988   1.1471580  81.0473727  53.8929006
  19.0840012  76.6974997  55.6839988  19.4340012  76.0434997  55.0789988
  19.2310012  77.5344997  55.2449988  19.1518419  76.7211591  55.5417118
  16.7730012  78.6624997  42.1669988  16.9560012  78.2134997  42.9929988
  16.1740012  78.0774997  41.7039988  16.7170202  78.5219975  42.2173275
   2.3030012  79.4774997  46.6989988   2.7490012  78.6854997  47.0009988
   2.7700012  80.1934997  47.1299988   2.4270172  79.4660624  46.7984820
   0.6070012  82.4764997  47.7679988   1.0990012  82.2554997  46.9769988
   0.9700012  83.3174997  48.0489988   0.7233126  82.5598357  47.6977531
  18.6040012  78.8064997  54.0339988  17.6860012  79.0774997  53.9979988
  18.7270012  78.2714997  53.2489988  18.4951066  78.7712892  53.9230487
  18.6400012  78.7294997  38.6949988  19.0520012  78.0084997  38.2199988
  19.3220012  79.3994997  38.7539988  18.7885885  78.7212368  38.6378915
   0.9210012  78.7344997  41.8219988  -0.0039988  78.9434997  41.6929988
   1.3750012  79.2184997  41.1329988   0.8557368  78.8285993  41.7111226
  15.6920012  93.7184997  43.7679988  16.3440012  93.3714997  43.1599988
  16.2020012  94.2074997  44.4139988  15.8502637  93.7370597  43.7720236
   0.8850012  77.4724997  50.1669988   0.2200012  77.2264997  50.8099988
   0.4420012  78.0944997  49.5889988   0.7340956  77.5228632  50.1769352
   3.0770012  90.6474997  54.3109988   2.2560012  90.8224997  53.8509988
   2.8240012  90.5744997  55.2319988   2.9306164  90.6615622  54.3724923
   6.0310012  91.6224997  50.5699988   5.6060012  92.4314997  50.2869988
   6.9350012  91.7074997  50.2679988   6.0950271  91.7448469  50.4903776
  10.3420012  93.0214997  53.5289988  10.5270012  92.6874997  54.4069988
  11.1880012  93.3304997  53.2069988  10.4817539  93.0176047  53.6055605
  12.6870012  94.3074997  52.7729988  13.3640012  93.6744997  52.5329988
  13.0090012  94.7084997  53.5799988  12.8231637  94.2751154  52.8492793
  17.6040012  76.8964997  51.8529988  16.7920012  77.2214997  51.4649988
  17.8370012  76.1364997  51.3199988  17.5243423  76.8382436  51.7278253
   3.4330012  94.8784997  50.6169988   2.7120012  95.3184997  50.1659988
   3.0670012  94.6274997  51.4659988   3.2849804  94.9047698  50.6699840
   5.9000012  94.4784997  49.6469988   5.0350012  94.5504997  50.0509988
   5.8450012  95.0254997  48.8629988   5.7742085  94.5622685  49.5963362
  10.6100012  94.3664997  48.8219988  10.1540012  94.8954997  48.1679988
  10.7730012  94.9694997  49.5479988  10.5695585  94.5204468  48.8305062
  12.9380012  93.2444997  49.7669988  12.0330012  93.4094997  49.5019988
  13.3670012  94.0974997  49.7019988  12.8720799  93.3824483  49.7219182
  15.5420012  94.8144997  50.0619988  15.3600012  95.7304997  49.8519988
  15.7190012  94.4044997  49.2159988  15.5410210  94.8844822  49.9187885
   2.8470012  93.5014997  47.5269988   2.8290012  93.0764997  48.3849988
   3.6520012  93.1834997  47.1189988   2.9533875  93.4003812  47.5891655
   4.9890012  92.2114997  46.1819988   4.7700012  91.2954997  46.3519988
   5.8130012  92.3514997  46.6479988   5.0704420  92.1050520  46.2682774
   7.5260012  92.6814997  47.0309988   7.7390012  91.7934997  46.7439988
   7.5900012  92.6474997  47.9849988   7.5638232  92.5553102  47.1207397
  11.0340012  78.3454997  46.1749988  10.3600012  77.7164997  46.4309988
  11.5980012  77.8614997  45.5719988  11.0179230  78.1938744  46.1285340
  16.1770012  76.4534997  46.2879988  16.7810012  77.0004997  45.7859988
  15.3070012  76.7724997  46.0479988  16.1421241  76.5715806  46.1867654
  17.9040012  77.5914997  44.6209988  18.5160012  77.0774997  44.0949988
  18.2860012  78.4694997  44.6449988  18.0394540  77.6397140  44.5521830
   3.3610012  76.9794997  43.9969988   2.5840012  76.7454997  43.4899988
   3.8910012  76.1824997  44.0059988   3.3262330  76.8396988  43.9287742
   2.1970012  76.7774997  39.8009988   2.6360012  77.3884997  39.2089988
   1.5640012  77.3154997  40.2749988   2.1714514  76.9339257  39.7840930
   7.9400012  76.9064997  43.8109988   8.8150012  77.2944997  43.7809988
   7.8040012  76.6914997  44.7329988   8.0413695  76.9305184  43.9316440
  13.4970012  76.9364997  45.4599988  13.5730012  77.0314997  44.5099988
  13.2220012  76.0284997  45.5889988  13.4702321  76.8267867  45.3475079
  14.8500012  76.9624997  41.1519988  14.1480012  77.5774997  40.9429988
  14.4060012  76.1244997  41.2829988  14.6936330  76.9335783  41.1410328
   2.0980012  92.7254997  40.6989988   1.4130012  92.6874997  40.0309988
   2.1020012  93.6384997  40.9869988   2.0048193  92.8437016  40.6465284
   4.0580012  78.6934997  38.2429988   4.5500012  78.0634997  37.7159988
   4.6820012  78.9894997  38.9069988   4.2095446  78.6473199  38.2605980
   9.0840012  78.9864997  40.6999988   9.2620012  78.3404997  41.3829988
   9.0310012  79.8204997  41.1679988   9.1011829  79.0107985  40.8565940
  10.9630012  93.9354997  39.0959988  11.8290012  94.3014997  38.9179988
  10.7160012  93.4954997  38.2819988  11.0482392  93.9261756  38.9616289
  17.6720012  93.4984997  41.7749988  17.4770012  92.7504997  41.2099988
  17.6330012  94.2564997  41.1919988  17.6400380  93.4986099  41.6188384
   3.3190012  77.4934997  53.5149988   2.9530012  76.7284997  53.9579988
   4.2320012  77.5224997  53.8019988   3.3922790  77.3927224  53.6144070
   5.2920012  76.8444997  55.0509988   6.1900012  76.5704997  54.8659988
   4.9050012  76.1014997  55.5149988   5.3626612  76.7065914  55.0883643
   3.9160012  93.6454997  37.7239988   3.6490012  93.9324997  38.5969988
   4.6880012  93.0994997  37.8759988   3.9837488  93.6110294  37.8641050
  13.7130012  76.1764997  55.2329988  13.7900012  75.7504997  56.0869988
  14.6070012  76.1904997  54.8899988  13.8443428  76.1200879  55.3035310
  16.8890012  92.2494997  53.9249988  16.1070012  92.0634997  53.4059988
  16.8170012  93.1784997  54.1429988  16.7721777  92.3496492  53.8834048
  31.2950012  86.1354997  43.9559988  31.3840012  87.0794997  43.8239988
  30.6570012  85.8604997  43.2979988  31.2209081  86.2274830  43.8489614
  30.2280012  85.3904997  47.3749988  30.1900012  84.7444997  48.0799988
  29.9060012  84.9244997  46.6039988  30.1792333  85.2389408  47.3672978
  22.5970012  85.0054997  48.9679988  22.6380012  84.3794997  49.6909988
  23.3000012  85.6294997  49.1499988  22.6976363  85.0041196  49.0916044
  33.9340012  88.3294997  45.6759988  33.4940012  87.6094997  46.1269988
  33.9210012  89.0504997  46.3059988  33.8720226  88.3283731  45.8228494
  23.5200012  89.4554997  47.5029988  23.1510012  88.6534997  47.1329988
  24.4610012  89.2864997  47.5489988  23.5967289  89.3230153  47.4586316
  20.1300012  83.1154997  42.8959988  19.6830012  83.9614997  42.8769988
  19.5690012  82.5354997  42.3799988  19.9929900  83.1529916  42.8236801
  20.8410012  85.2774997  45.0219988  21.0540012  84.5074997  45.5489988
  21.5790012  85.3664997  44.4179988  20.9698496  85.1841394  45.0125300
  31.0460012  93.4344997  45.8889988  31.6660012  92.7574997  45.6149988
  30.8380012  93.2164997  46.7969988  31.1026904  93.3123870  45.9743365
  28.6180012  87.8234997  47.7809988  28.9220012  87.1374997  47.1859988
  29.3390012  87.9414997  48.3989988  28.7570671  87.7456304  47.7831816
  37.2810012  79.4244997  48.6419988  37.3300012  80.0344997  49.3779988
  37.7060012  79.8854997  47.9189988  37.3451824  79.5703741  48.6450205
  31.7590012  82.2174997  48.1089988  31.9010012  81.2714997  48.1289988
  31.6520012  82.4244997  47.1799988  31.7639864  82.1159534  47.9862339
  24.9130012  80.3184997  45.3809988  24.9570012  81.1784997  44.9629988
  24.4560012  79.7664997  44.7469988  24.8572185  80.3615799  45.2380299
  32.6360012  80.4494997  43.7819988  33.2820012  80.1204997  44.4069988
  33.1460012  80.9674997  43.1589988  32.7934264  80.4744611  43.7833862
  21.5340012  82.7154997  46.1429988  22.1870012  82.1654997  46.5749988
  21.5580012  82.4414997  45.2259988  21.6266683  82.6031466  46.0782123
  26.6900012  84.2654997  45.3579988  27.3060012  83.7394997  45.8679988
  26.1040012  83.6254997  44.9549988  26.6950810  84.1069208  45.3733173
  37.6720012  80.9024997  50.8779988  36.9840012  81.5604997  50.7819988
  37.6880012  80.7054997  51.8139988  37.5798525  80.9660462  50.9914808
  23.7240012  79.2364997  49.4549988  23.5050012  79.7664997  48.6889988
  23.0560012  79.4634997  50.1019988  23.6037600  79.3396906  49.4376379
  31.0930012  88.7364997  42.9989988  30.7970012  88.4144997  42.1479988
  30.7680012  89.6364997  43.0399988  31.0086371  88.8140215  42.8881801
  26.2930012  86.9124997  49.7419988  25.5530012  87.5104997  49.8459988
  27.0070012  87.4664997  49.4269988  26.2882237  87.0692831  49.7136465
  34.4000012  79.7404997  45.7619988  34.1840012  78.9744997  46.2949988
  35.0550012  80.2124997  46.2749988  34.4590632  79.6995889  45.9042861
  23.3170012  81.1284997  47.4069988  23.9310012  81.7614997  47.7809988
  23.8290012  80.6564997  46.7509988  23.4702296  81.1512370  47.3694252
  24.7000012  88.8764997  50.5299988  24.6950012  89.7564997  50.1519988
  23.8470012  88.7934997  50.9549988  24.5839464  88.9856117  50.5357907
  20.8210012  88.5474997  41.3119988  20.5490012  88.7764997  40.4229988
  20.8670012  89.3854997  41.7719988  20.7900094  88.6921213  41.2525697
  34.4460012  90.1694997  48.0239988  33.5050012  90.2274997  48.1859988
  34.7230012  91.0754997  47.8869988  34.3544679  90.2999443  48.0276815
  34.7470012  78.4554997  49.4419988  34.0110012  79.0664997  49.4039988
  35.4300012  78.8704997  48.9149988  34.7386541  78.5951374  49.3655832
  27.7500012  76.5424997  46.9079988  27.6330012  75.5934997  46.8529988
  26.8950012  76.8744997  47.1809988  27.6183733  76.4575409  46.9373897
  32.6980012  91.9504997  44.6499988  33.1240012  91.2434997  44.1649988
  33.0150012  92.7514997  44.2329988  32.7991019  91.9620994  44.5273130
  33.8580012  89.8514997  43.1579988  33.6000012  89.1614997  42.5469988
  33.9290012  89.4084997  44.0039988  33.8322856  89.6972124  43.1886885
  35.5440012  88.4174997  51.6359988  35.6840012  87.8264997  50.8959988
  35.7110012  89.2904997  51.2789988  35.5856778  88.4546426  51.4866965
  30.0170012  85.3794997  41.4079988  29.3050012  85.9144997  41.0559988
  30.7080012  85.4354997  40.7479988  30.0130132  85.4602543  41.2706289
  30.0700012  83.8374997  38.4469988  30.7710012  83.8594997  39.0979988
  30.3730012  83.2094997  37.7909988  30.2067830  83.7556566  38.4473711
  37.3860012  84.7574997  49.7019988  36.7330012  85.4524997  49.7909988
  37.8510012  84.9674997  48.8919988  37.3595390  84.8809425  49.6046883
  33.4220012  85.5894997  42.3599988  32.6900012  85.8174997  42.9329988
  33.8700012  84.8754997  42.8149988  33.3823095  85.5242571  42.4999119
  33.3200012  83.7634997  51.4269988  33.4000012  84.5264997  51.9989988
  32.7180012  84.0424997  50.7369988  33.2495756  83.9057134  51.4120589
  25.0680012  86.2194997  44.2419988  24.7370012  85.8494997  43.4239988
  25.6560012  85.5494997  44.5889988  25.1021873  86.0781156  44.1768102
  26.4340012  89.6474997  46.9239988  26.3400012  89.0694997  46.1669988
  27.1640012  89.2764997  47.4199988  26.5197981  89.5182390  46.8874165
  25.4340012  84.9884997  47.8759988  26.0000012  85.1094997  47.1129988
  25.7530012  85.6254997  48.5149988  25.5545786  85.0911884  47.8580040
  31.7430012  90.4914997  48.6099988  31.5030012  91.1534997  49.2579988
  31.5450012  89.6574997  49.0349988  31.6833808  90.4693134  48.7561524
  26.3140012  89.3874997  52.5929988  26.0030012  90.1694997  53.0479988
  25.6640012  89.2344997  51.9069988  26.1835558  89.4739105  52.5625871
  32.2930012  84.7514997  40.0449988  32.8730012  84.9014997  40.7919988
  32.7070012  85.2224997  39.3219988  32.4282830  84.8356841  40.0494134
  23.2340012  85.5854997  51.8219988  23.3050012  86.2364997  52.5199988
  22.3440012  85.6884997  51.4869988  23.1233117  85.6885936  51.8722700
  30.0200012  91.4884997  43.4799988  30.4940012  91.7834997  44.2579988
  29.4570012  92.2264997  43.2469988  30.0087653  91.6286932  43.5550136
  24.5540012  91.4594997  53.3559988  24.5610012  91.3234997  52.4089988
  23.6380012  91.3414997  53.6079988  24.4311714  91.4249430  53.2604666
  35.9920012  76.5014997  39.8579988  35.0920012  76.6404997  40.1529988
  36.2440012  77.3324997  39.4559988  35.9028702  76.6329074  39.8440205
  24.0580012  85.2894997  41.8319988  23.7660012  86.0574997  41.3409988
  23.3840012  84.6294997  41.6689988  23.9269081  85.3054406  41.7427339
  37.1810012  90.8674997  38.2339988  37.2550012  91.8064997  38.4049988
  38.0870012  90.5624997  38.1779988  37.3135100  90.9546722  38.2498119
  20.1510012  87.6524997  50.6469988  19.6500012  87.6244997  49.8319988
  20.1560012  86.7464997  50.9559988  20.0831526  87.5262278  50.5772872
  19.9010012  90.4324997  47.5309988  20.8470012  90.2884997  47.5119988
  19.7890012  91.2164997  48.0679988  20.0152727  90.5188046  47.6010072
  38.0990012  91.0984997  53.2129988  38.0500012  90.1434997  53.1759988
  37.2720012  91.3664997  53.6139988  37.9804940  91.0038998  53.2621375
  29.0780012  90.6724997  52.0889988  29.1650012  91.4984997  52.5639988
  28.2140012  90.3424997  52.3379988  28.9731964  90.7409878  52.1876549
  29.4920012  94.4444997  41.8949988  29.4170012  94.3234997  40.9489988
  29.5250012  95.3944997  42.0139988  29.4861848  94.5562500  41.7814834
  23.1450012  93.2334997  43.6759988  23.2980012  92.8854997  44.5549988
  22.2950012  92.8774997  43.4209988  23.0508962  93.1376650  43.7618340
  32.5940012  93.5984997  38.8969988  32.9690012  92.8544997  38.4269988
  32.5980012  93.3284997  39.8159988  32.6458915  93.4601486  38.9567824
  32.2630012  93.5244997  41.6469988  31.3270012  93.6244997  41.8249988
  32.5430012  92.8154997  42.2249988  32.1728255  93.4422711  41.7495391
  35.2510012  82.5914997  53.6929988  34.8440012  83.0724997  52.9719988
  35.2920012  81.6864997  53.3849988  35.2008437  82.5349374  53.5526683
  22.4000012  88.9754997  51.6899988  22.6160012  88.6144997  52.5489988
  21.5450012  88.6014997  51.4799988  22.3139292  88.8754111  51.7793386
  25.0190012  77.4454997  47.6849988  24.1570012  77.3584997  47.2779988
  24.9960012  78.3014997  48.1129988  24.8980330  77.5492765  47.6871863
  29.6820012  77.1674997  51.0599988  30.1020012  76.7524997  51.8129988
  28.7490012  76.9894997  51.1769988  29.6133644  77.0865900  51.1789539
  33.0080012  80.9234997  51.9129988  32.4940012  80.7974997  52.7109988
  32.8530012  81.8354997  51.6689988  32.9166852  81.0296132  51.9892158
  33.7710012  85.7844997  37.6749988  33.8130012  85.5614997  36.7449988
  34.6200012  86.1834997  37.8649988  33.8915396  85.8079155  37.5733627
  29.3430012  79.6604997  38.3449988  29.0900012  79.6794997  39.2679988
  29.0870012  78.7884997  38.0439988  29.2737790  79.5452437  38.4306263
  25.1100012  82.4114997  48.7799988  24.4680012  82.3704997  49.4889988
  25.1470012  83.3374997  48.5429988  25.0271324  82.5311559  48.8449824
  25.1070012  82.6324997  43.6919988  24.2140012  82.2914997  43.6339988
  25.5570012  82.2554997  42.9369988  25.0457305  82.5348484  43.5819177
  30.6420012  83.0484997  42.5089988  30.2330012  83.8634997  42.2179988
  31.3630012  82.9084997  41.8949988  30.6834537  83.1412018  42.3861342
  29.7440012  83.2234997  53.9969988  29.1820012  82.5194997  54.3179988
  30.5710012  83.1034997  54.4649988  29.7787095  83.1107883  54.1042330
  31.6470012  82.4944997  45.3229988  31.4520012  83.0994997  44.6079988
  31.8280012  81.6604997  44.8889988  31.6447614  82.4646300  45.1664405
  22.8600012  82.7314997  50.6469988  22.8220012  83.1314997  51.5159988
  22.3690012  81.9144997  50.7379988  22.7884684  82.6758069  50.7781059
  26.2260012  80.1054997  37.4459988  25.7950012  79.6604997  38.1759988
  25.5080012  80.4774997  36.9339988  26.0699438  80.0948940  37.4766799
  19.4680012  79.8474997  44.4979988  20.0990012  79.8184997  45.2169988
  19.9170012  79.4224997  43.7679988  19.6150774  79.7860492  44.4976553
  20.7420012  80.5934997  39.9219988  21.2160012  81.1844997  39.3369988
  20.0250012  81.1244997  40.2689988  20.7099341  80.7460867  39.8888836
  30.9110012  84.1324997  49.9949988  31.2340012  83.5014997  49.3519988
  30.4710012  83.5974997  50.6549988  30.8956895  83.9738441  49.9962850
  27.6880012  80.0594997  44.7789988  26.7770012  80.1164997  45.0669988
  28.1940012  79.9994997  45.5889988  27.6315413  80.0591985  44.9280622
  22.5170012  81.6884997  43.6049988  21.6270012  81.7884997  43.2649988
  22.8130012  80.8464997  43.2589988  22.4352823  81.5883545  43.5117213
  26.1700012  81.6884997  41.2619988  27.1010012  81.8174997  41.4399988
  25.9550012  82.3584997  40.6119988  26.2684247  81.7966565  41.1985747
  32.0930012  79.2944997  48.0429988  31.4170012  79.4254997  48.7069988
  31.6080012  79.1394997  47.2329988  31.9347145  79.2914905  48.0244517
  24.8440012  82.8834997  38.8289988  24.3010012  82.5034997  38.1369988
  25.6770012  83.0774997  38.3999988  24.8824399  82.8578124  38.6764526
  35.3810012  94.9664997  54.3199988  35.5810012  95.3904997  53.4849988
  36.0360012  95.3094997  54.9269988  35.4970051  95.0709648  54.2877836
  22.9790012  87.4404997  53.9279988  23.7110012  87.6944997  54.4889988
  22.1990012  87.6444997  54.4429988  22.9738232  87.5029177  54.0745760
  29.0080012  82.8474997  46.6659988  29.5730012  82.3004997  46.1189988
  28.8610012  82.3254997  47.4539988  29.0652918  82.7022024  46.6978454
  24.0100012  78.9834997  43.0839988  23.6930012  78.0814997  43.0489988
  24.7920012  78.9854997  42.5309988  24.0722284  78.8601628  43.0044783
  27.6350012  81.2354997  49.0799988  26.7990012  81.6894997  49.1899988
  28.1590012  81.5114997  49.8319988  27.5914414  81.3349376  49.1967136
  28.1790012  87.4484997  40.7639988  27.4340012  86.9414997  40.4419988
  28.0450012  87.4974997  41.7109988  28.0588776  87.3856940  40.8478647
  35.3290012  86.5814997  49.5509988  35.9710012  87.0384997  49.0069988
  34.4990012  86.6944997  49.0879988  35.3045963  86.6592704  49.4140177
  32.0770012  80.2624997  38.9639988  31.1380012  80.3744997  38.8119988
  32.3740012  81.1194997  39.2699988  31.9887666  80.3936443  38.9845768
  29.6980012  87.6324997  52.0009988  29.3530012  87.2514997  52.8079988
  29.4980012  88.5664997  52.0729988  29.6238061  87.7065228  52.1210961
  32.7950012  82.1294997  40.6239988  33.6870012  81.9924997  40.9429988
  32.8520012  82.9204997  40.0879988  32.9246285  82.2176660  40.5951690
  23.3040012  86.7434997  46.5339988  24.0490012  86.7414997  45.9329988
  23.3820012  85.9204997  47.0159988  23.4165518  86.6319315  46.5168929
  30.3050012  88.9074997  39.7899988  30.0090012  89.7334997  40.1709988
  29.6020012  88.2874997  39.9859988  30.1694914  88.9368199  39.8686443
  20.3120012  85.2044997  51.8489988  20.5350012  84.7864997  52.6809988
  19.7100012  84.5914997  51.4259988  20.2611759  85.0644668  51.9057022
  27.3280012  84.7214997  54.0619988  27.0320012  84.5554997  53.1669988
  28.2600012  84.5014997  54.0509988  27.4134166  84.6690640  53.9380536
  31.9490012  90.0944997  51.9519988  31.0480012  90.2774997  51.6839988
  31.9830012  90.3534997  52.8729988  31.8303041  90.1545512  52.0398197
  37.6800012  82.3394997  40.3189988  37.1260012  81.9434997  39.6469988
  37.7800012  83.2494997  40.0409988  37.6177059  82.4083586  40.1894401
  37.6430012  88.1394997  53.1559988  36.7920012  88.3774997  52.7889988
  38.2340012  88.1224997  52.4029988  37.6062487  88.1698258  53.0038893
  35.9750012  91.1254997  40.7839988  35.6020012  90.2994997  41.0929988
  36.2530012  90.9424997  39.8869988  35.9615630  90.9877303  40.7049626
  33.1360012  85.9334997  47.8049988  32.2070012  85.7014997  47.7779988
  33.5870012  85.1564997  47.4749988  33.0699216  85.7967238  47.7566917
  25.6790012  90.2614997  43.9379988  26.2060012  91.0344997  43.7379988
  24.7990012  90.4864997  43.6369988  25.6321773  90.3978005  43.8699010
  21.4340012  85.1234997  38.5249988  22.0500012  85.7504997  38.9049988
  20.5720012  85.4394997  38.7969988  21.4017698  85.2519430  38.6137183
  27.1060012  87.9244997  43.5149988  26.8650012  88.8494997  43.5559988
  26.3650012  87.4654997  43.9109988  26.9728409  87.9891421  43.5741377
  27.6210012  92.0734997  49.8299988  27.9830012  92.9284997  49.5959988
  28.1520012  91.7814997  50.5699988  27.7424473  92.1511060  49.8980855
  25.7890012  92.9464997  43.0599988  24.8390012  93.0514997  43.1109988
  26.1410012  93.7664997  43.4049988  25.7064203  93.0718314  43.1136650
  31.1650012  88.1724997  49.5299988  30.7390012  87.9454997  50.3569988
  31.7450012  87.4344997  49.3479988  31.1851868  88.0415299  49.6185830
  33.3680012  89.1014997  38.6039988  33.7210012  88.7214997  39.4089988
  32.4190012  89.0084997  38.6909988  33.2880441  89.0369596  38.7258559
  33.8230012  92.7244997  51.9999988  33.2220012  92.1694997  51.5039988
  34.1050012  93.3914997  51.3739988  33.7788519  92.7386841  51.8474952
  37.8710012  93.5814997  38.8049988  38.6150012  94.1674997  38.6649988
  37.1770012  94.1494997  39.1389988  37.8790292  93.7385582  38.8309961
  21.9460012  79.9574997  51.4069988  21.0530012  80.2964997  51.3389988
  21.8470012  79.1024997  51.8249988  21.8104164  79.8882588  51.4542235
  34.2340012  87.7744997  40.8309988  33.9560012  87.0464997  41.3869988
  35.1610012  87.8934997  41.0359988  34.3213124  87.6908802  40.9348845
  21.5970012  91.7624997  49.8419988  21.8140012  90.8304997  49.8109988
  21.8430012  92.0364997  50.7249988  21.6599549  91.6720636  49.9571763
  27.4590012  90.2134997  37.0509988  27.6980012  89.4654997  36.5039988
  27.1900012  89.8254997  37.8839988  27.4553675  90.0586638  37.0886865
  26.3960012  89.7834997  39.5079988  26.5420012  89.2634997  40.2979988
  26.3930012  90.6904997  39.8139988  26.4155989  89.8348853  39.6576088
  22.8490012  87.0364997  40.0179988  22.1630012  87.3884997  40.5849988
  23.3710012  87.7994997  39.7709988  22.8256852  87.1878578  40.0622118
  30.6800012  79.6984997  50.2969988  31.3790012  79.7724997  50.9469988
  30.2990012  78.8344997  50.4509988  30.7241767  79.5917624  50.4068322
  31.4650012  79.3504997  41.3939988  31.6850012  79.8224997  40.5909988
  32.0230012  79.7454997  42.0639988  31.5704968  79.4684285  41.3747331
  29.1330012  91.4814997  40.2569988  28.3170012  91.9784997  40.3089988
  29.6630012  91.9564997  39.6169988  29.0929161  91.6137722  40.1775956
  28.6650012  81.0784997  42.2289988  29.4770012  81.5834997  42.2749988
  28.4200012  80.9334997  43.1429988  28.7430520  81.1280375  42.3588517
  29.2000012  82.0644997  51.4139988  29.3190012  82.6384997  52.1709988
  29.8560012  81.3764997  51.5279988  29.3049757  82.0501079  51.5330825
  29.5480012  78.1594997  43.1669988  29.2020012  78.7774997  43.8119988
  30.2070012  78.6604997  42.6859988  29.5897826  78.3115802  43.1900971
  26.4720012  92.5254997  40.2389988  26.6320012  93.3244997  39.7379988
  26.2740012  92.8314997  41.1239988  26.4671649  92.6764469  40.2899815
  25.2060012  79.2224997  39.8539988  25.1230012  80.1114997  40.2009988
  26.0960012  78.9574997  40.0859988  25.3149469  79.3081430  39.9327626
  35.4050012  79.9714997  52.2489988  34.4880012  80.2344997  52.1609988
  35.7400012  79.9684997  51.3519988  35.3249900  80.0070224  52.1157919
  34.0070012  83.7224997  46.3439988  33.2090012  83.3074997  46.0159988
  34.4520012  83.0314997  46.8349988  33.9579885  83.5723543  46.3654889
  23.4650012  89.6504997  38.9149988  24.0570012  90.3494997  39.1909988
  23.9240012  89.2174997  38.1949988  23.6081142  89.6877049  38.8554830
  21.7810012  82.3144997  38.0309988  21.7360012  83.2534997  38.2089988
  20.8930012  82.0784997  37.7609988  21.6548574  82.4111892  38.0188912
  35.0930012  92.9784997  47.9669988  34.9380012  93.6564997  47.3099988
  36.0260012  93.0504997  48.1699988  35.1978500  93.0810170  47.9045119
  22.5890012  77.0964997  46.7039988  22.3600012  77.1554997  45.7759988
  22.1460012  76.3044997  47.0099988  22.4978530  76.9975753  46.6184786
  21.5190012  91.0364997  42.8639988  20.6870012  91.5094997  42.8919988
  22.0650012  91.5464997  42.2659988  21.4789739  91.1701871  42.7869716
  20.8070012  93.6494997  54.1939988  21.3480012  93.4324997  54.9539988
  20.3260012  92.8434997  54.0049988  20.8159345  93.5109514  54.2723076
  25.4050012  92.5684997  55.8149988  26.1720012  92.1094997  56.1559988
  25.3830012  92.3424997  54.8849988  25.5071434  92.4750409  55.7360043
  29.4970012  92.0764997  37.1899988  28.8530012  91.4454997  37.5109988
  30.2590012  91.5454997  36.9579988  29.5118077  91.9182920  37.2026011
  31.9820012  90.9484997  54.5439988  31.6310012  90.0924997  54.7869988
  32.7080012  91.0914997  55.1509988  32.0320769  90.8505636  54.6593619
  34.1010012  91.8934997  37.4239988  34.3840012  91.0994997  37.8759988
  34.8410012  92.1264997  36.8629988  34.2397486  91.8162803  37.4100698
  20.7140012  87.4594997  55.1489988  20.8580012  86.5574997  54.8619988
  19.9420012  87.7454997  54.6609988  20.6293322  87.3748261  55.0437881
  25.0560012  87.8034997  37.2809988  25.1200012  87.0094997  37.8119988
  25.7090012  87.6844997  36.5909988  25.1530241  87.6787148  37.2604317
  27.3700012  87.4294997  54.5809988  27.0410012  87.7004997  53.7239988
  27.5220012  86.4884997  54.4939988  27.3454809  87.3393862  54.4518244
  30.4080012  88.8504997  37.0169988  30.1390012  89.0304997  37.9179988
  30.2020012  87.9244997  36.8859988  30.3433825  88.7500152  37.1225214
  33.1040012  87.3454997  51.9649988  33.8500012  87.9334997  51.8449988
  32.3470012  87.9274997  52.0279988  33.1037554  87.5047011  51.9570907
  21.5470012  84.6594997  54.5689988  21.9550012  83.8024997  54.4479988
  21.2870012  84.6744997  55.4899988  21.5677568  84.5440807  54.6769588
  26.2050012  85.7754997  39.5869988  25.7450012  85.2914997  40.2729988
  26.4600012  85.1074997  38.9509988  26.1764902  85.6188731  39.5949334
  25.4940012  83.6684997  51.9429988  24.8760012  84.3434997  52.2229988
  25.8380012  83.9894997  51.1099988  25.4559615  83.8042721  51.8686581
  27.2760012  84.0184997  37.8489988  27.0960012  83.8644997  36.9219988
  28.2260012  84.1264997  37.8939988  27.3797776  84.0120175  37.7281843
  30.5140012  86.1404997  55.2199988  31.4670012  86.2234997  55.1929988
  30.3530012  85.4284997  55.8399988  30.6226426  86.0556746  55.3000579
  36.6660012  86.3734997  37.2949988  36.3920012  85.9484997  36.4819988
  36.7050012  87.3044997  37.0779988  36.6337699  86.4412484  37.1543610
  25.8330012  81.0234997  53.0249988  25.9830012  80.2944997  52.4229988
  25.8360012  81.8004997  52.4659988  25.8539302  81.0287851  52.8670692
  26.2460012  79.3934997  50.5179988  26.7820012  79.8444997  49.8659988
  25.3940012  79.2854997  50.0949988  26.2042178  79.4406390  50.3715756
  27.8280012  84.8324997  50.7569988  28.5780012  84.6764997  50.1839988
  27.4890012  85.6844997  50.4819988  27.8848921  84.9262968  50.6413561
  32.2430012  82.6474997  55.7859988  32.4360012  81.7164997  55.6739988
  33.1010012  83.0724997  55.7759988  32.3853020  82.5776389  55.7693361
  33.5600012  85.4364997  53.8629988  33.2790012  86.1454997  53.2859988
  34.5030012  85.3634997  53.7119988  33.6489027  85.5237646  53.7635551
  24.3120012  82.2214997  54.9369988  23.5450012  81.6894997  54.7269988
  24.9910012  81.9114997  54.3369988  24.2987022  82.1067506  54.8271648
  27.0520012  76.8494997  50.9489988  26.9530012  77.7964997  50.8439988
  26.3090012  76.4774997  50.4739988  26.9380564  76.9285902  50.8704560
  28.3160012  81.1714997  54.5129988  28.0800012  80.9514997  55.4149988
  27.5320012  80.9644997  54.0029988  28.1778628  81.1134760  54.5673932
  31.0310012  80.2984997  53.5889988  30.0840012  80.3304997  53.7209988
  31.3440012  79.6734997  54.2419988  30.9435475  80.2183207  53.6954455
  32.6650012  78.9324997  55.5939988  32.5690012  77.9804997  55.5879988
  32.3440012  79.2014997  56.4539988  32.6084070  78.8384035  55.7095441
  22.4920012  80.1424997  54.6409988  22.7040012  79.4354997  54.0309988
  22.3810012  79.7044997  55.4849988  22.5059721  79.9867084  54.6716843
  27.2730012  76.1434997  53.6209988  27.9850012  75.5034997  53.6069988
  27.1720012  76.4104997  52.7069988  27.3567939  76.0919938  53.4955650
  27.6270012  77.8264997  55.6739988  27.4950012  77.3504997  54.8539988
  27.0280012  78.5704997  55.6189988  27.5279071  77.8619618  55.5542886
  27.1730012  94.7094997  38.8509988  28.1060012  94.8674997  38.9939988
  26.9090012  95.3844997  38.2259988  27.2649510  94.8223611  38.7860741
  20.7420012  89.3454997  38.3329988  21.6560012  89.4244997  38.6069988
  20.7490012  88.6584997  37.6669988  20.8681131  89.2633961  38.2804393
  19.3910012  94.7384997  43.4109988  18.7440012  94.2764997  42.8779988
  19.7450012  94.0664997  43.9929988  19.3503849  94.5844723  43.4167959
  20.2610012  92.8194997  45.2149988  19.9260012  91.9394997  45.3869988
  20.4830012  93.1644997  46.0799988  20.2451783  92.7457500  45.3554208
  37.8090012  93.6284997  48.1959988  37.7880012  93.8134997  49.1349988
  38.5000012  94.1974997  47.8549988  37.8994618  93.7306606  48.2783864
  37.3730012  93.1964997  51.1179988  36.8850012  92.4604997  50.7469988
  37.9220012  92.8024997  51.7959988  37.3804872  93.0426249  51.1589160
  35.8230012  88.9854997  55.7559988  34.9570012  88.8804997  56.1499988
  36.2000012  89.7444997  56.2019988  35.7553308  89.0736900  55.8702393
  37.1240012  87.2424997  41.2699988  37.9740012  87.6634997  41.3969988
  37.1300012  86.5024997  41.8769988  37.2411372  87.2000803  41.3694344
  37.5190012  85.2954997  43.0939988  36.7920012  84.8164997  43.4909988
  38.1000012  85.5014997  43.8259988  37.4979375  85.2577090  43.2474129
  37.2780012  88.0804997  48.0409988  38.1110012  87.7024997  47.7609988
  37.3900012  89.0234997  47.9219988  37.4072647  88.1562218  47.9865487
  35.7640012  90.9584997  50.3479988  35.1170012  91.2834997  50.9739988
  35.2470012  90.5184997  49.6739988  35.6054029  90.9435004  50.3425827
  37.7870012  85.1964997  39.4849988  37.2650012  85.5534997  38.7659988
  37.7540012  85.8714997  40.1629988  37.7111634  85.3365413  39.4783145
  36.1360012  82.4364997  38.0359988  36.2320012  83.1034997  37.3549988
  35.9960012  81.6204997  37.5539988  36.1302135  82.4174500  37.8778491
  35.3050012  83.8164997  43.6569988  35.1550012  82.8714997  43.6359988
  34.9520012  84.0974997  44.4999988  35.2366625  83.7250441  43.7682346
  20.3410012  85.8944997  47.6669988  20.5250012  85.8124997  46.7309988
  21.1900012  85.7704997  48.0909988  20.4810139  85.8665003  47.5961455
  36.1620012  85.7864997  53.2949988  36.7450012  85.0524997  53.4869988
  36.7260012  86.5584997  53.3419988  36.3179769  85.7904227  53.3276159
  37.6580012  83.6894997  53.9799988  36.7950012  83.3104997  53.8139988
  38.2630012  82.9504997  53.9059988  37.6215979  83.5378023  53.9472817
  35.3830012  79.8444997  37.1529988  35.9940012  79.4734997  37.7899988
  34.5470012  79.4234997  37.3489988  35.3535032  79.7367554  37.2667035
  35.0160012  81.3994997  42.1189988  35.2960012  80.4924997  42.2429988
  35.7750012  81.8334997  41.7299988  35.1569277  81.3340942  42.0833682
  35.6280012  81.9804997  47.5549988  36.5610012  82.1924997  47.5209988
  35.3930012  82.0824997  48.4769988  35.7238036  82.0232769  47.6749976
  35.6570012  82.7174997  50.3309988  34.8140012  82.9854997  50.6969988
  36.0990012  83.5394997  50.1199988  35.6014158  82.8653291  50.3525491
  19.9380012  81.1654997  53.8079988  20.8580012  81.0434997  54.0439988
  19.4890012  80.4154997  54.1969988  20.0031580  81.0473727  53.8929006
  37.9400012  76.6974997  55.6839988  38.2900012  76.0434997  55.0789988
  38.0870012  77.5344997  55.2449988  38.0078419  76.7211591  55.5417118
  35.6290012  78.6624997  42.1669988  35.8120012  78.2134997  42.9929988
  35.0300012  78.0774997  41.7039988  35.5730202  78.5219975  42.2173275
  21.1590012  79.4774997  46.6989988  21.6050012  78.6854997  47.0009988
  21.6260012  80.1934997  47.1299988  21.2830172  79.4660624  46.7984820
  19.4630012  82.4764997  47.7679988  19.9550012  82.2554997  46.9769988
  19.8260012  83.3174997  48.0489988  19.5793126  82.5598357  47.6977531
  37.4600012  78.8064997  54.0339988  36.5420012  79.0774997  53.9979988
  37.5830012  78.2714997  53.2489988  37.3511066  78.7712892  53.9230487
  37.4960012  78.7294997  38.6949988  37.9080012  78.0084997  38.2199988
  38.1780012  79.3994997  38.7539988  37.6445885  78.7212368  38.6378915
  19.7770012  78.7344997  41.8219988  18.8520012  78.9434997  41.6929988
  20.2310012  79.2184997  41.1329988  19.7117368  78.8285993  41.7111226
  34.5480012  93.7184997  43.7679988  35.2000012  93.3714997  43.1599988
  35.0580012  94.2074997  44.4139988  34.7062637  93.7370597  43.7720236
  19.7410012  77.4724997  50.1669988  19.0760012  77.2264997  50.8099988
  19.2980012  78.0944997  49.5889988  19.5900956  77.5228632  50.1769352
  21.9330012  90.6474997  54.3109988  21.1120012  90.8224997  53.8509988
  21.6800012  90.5744997  55.2319988  21.7866164  90.6615622  54.3724923
  24.8870012  91.6224997  50.5699988  24.4620012  92.4314997  50.2869988
  25.7910012  91.7074997  50.2679988  24.9510271  91.7448469  50.4903776
  29.1980012  93.0214997  53.5289988  29.3830012  92.6874997  54.4069988
  30.0440012  93.3304997  53.2069988  29.3377539  93.0176047  53.6055605
  31.5430012  94.3074997  52.7729988  32.2200012  93.6744997  52.5329988
  31.8650012  94.7084997  53.5799988  31.6791637  94.2751154  52.8492793
  36.4600012  76.8964997  51.8529988  35.6480012  77.2214997  51.4649988
  36.6930012  76.1364997  51.3199988  36.3803423  76.8382436  51.7278253
  22.2890012  94.8784997  50.6169988  21.5680012  95.3184997  50.1659988
  21.9230012  94.6274997  51.4659988  22.1409804  94.9047698  50.6699840
  24.7560012  94.4784997  49.6469988  23.8910012  94.5504997  50.0509988
  24.7010012  95.0254997  48.8629988  24.6302085  94.5622685  49.5963362
  29.4660012  94.3664997  48.8219988  29.0100012  94.8954997  48.1679988
  29.6290012  94.9694997  49.5479988  29.4255585  94.5204468  48.8305062
  31.7940012  93.2444997  49.7669988  30.8890012  93.4094997  49.5019988
  32.2230012  94.0974997  49.7019988  31.7280799  93.3824483  49.7219182
  34.3980012  94.8144997  50.0619988  34.2160012  95.7304997  49.8519988
  34.5750012  94.4044997  49.2159988  34.3970210  94.8844822  49.9187885
  21.7030012  93.5014997  47.5269988  21.6850012  93.0764997  48.3849988
  22.5080012  93.1834997  47.1189988  21.8093875  93.4003812  47.5891655
  23.8450012  92.2114997  46.1819988  23.6260012  91.2954997  46.3519988
  24.6690012  92.3514997  46.6479988  23.9264420  92.1050520  46.2682774
  26.3820012  92.6814997  47.0309988  26.5950012  91.7934997  46.7439988
  26.4460012  92.6474997  47.9849988  26.4198231  92.5553102  47.1207397
  29.8900012  78.3454997  46.1749988  29.2160012  77.7164997  46.4309988
  30.4540012  77.8614997  45.5719988  29.8739230  78.1938744  46.1285340
  35.0330012  76.4534997  46.2879988  35.6370012  77.0004997  45.7859988
  34.1630012  76.7724997  46.0479988  34.9981241  76.5715806  46.1867654
  36.7600012  77.5914997  44.6209988  37.3720012  77.0774997  44.0949988
  37.1420012  78.4694997  44.6449988  36.8954540  77.6397140  44.5521830
  22.2170012  76.9794997  43.9969988  21.4400012  76.7454997  43.4899988
  22.7470012  76.1824997  44.0059988  22.1822330  76.8396988  43.9287742
  21.0530012  76.7774997  39.8009988  21.4920012  77.3884997  39.2089988
  20.4200012  77.3154997  40.2749988  21.0274514  76.9339257  39.7840930
  26.7960012  76.9064997  43.8109988  27.6710012  77.2944997  43.7809988
  26.6600012  76.6914997  44.7329988  26.8973695  76.9305184  43.9316440
  32.3530012  76.9364997  45.4599988  32.4290012  77.0314997  44.5099988
  32.0780012  76.0284997  45.5889988  32.3262321  76.8267867  45.3475079
  33.7060012  76.9624997  41.1519988  33.0040012  77.5774997  40.9429988
  33.2620012  76.1244997  41.2829988  33.5496330  76.9335783  41.1410328
  20.9540012  92.7254997  40.6989988  20.2690012  92.6874997  40.0309988
  20.9580012  93.6384997  40.9869988  20.8608193  92.8437016  40.6465284
  22.9140012  78.6934997  38.2429988  23.4060012  78.0634997  37.7159988
  23.5380012  78.9894997  38.9069988  23.0655446  78.6473199  38.2605980
  27.9400012  78.9864997  40.6999988  28.1180012  78.3404997  41.3829988
  27.8870012  79.8204997  41.1679988  27.9571829  79.0107985  40.8565940
  29.8190012  93.9354997  39.0959988  30.6850012  94.3014997  38.9179988
  29.5720012  93.4954997  38.2819988  29.9042392  93.9261756  38.9616289
  36.5280012  93.4984997  41.7749988  36.3330012  92.7504997  41.2099988
  36.4890012  94.2564997  41.1919988  36.4960380  93.4986099  41.6188384
  22.1750012  77.4934997  53.5149988  21.8090012  76.7284997  53.9579988
  23.0880012  77.5224997  53.8019988  22.2482790  77.3927224  53.6144070
  24.1480012  76.8444997  55.0509988  25.0460012  76.5704997  54.8659988
  23.7610012  76.1014997  55.5149988  24.2186612  76.7065914  55.0883643
  22.7720012  93.6454997  37.7239988  22.5050012  93.9324997  38.5969988
  23.5440012  93.0994997  37.8759988  22.8397488  93.6110294  37.8641050
  32.5690012  76.1764997  55.2329988  32.6460012  75.7504997  56.0869988
  33.4630012  76.1904997  54.8899988  32.7003428  76.1200879  55.3035310
  35.7450012  92.2494997  53.9249988  34.9630012  92.0634997  53.4059988
  35.6730012  93.1784997  54.1429988  35.6281777  92.3496492  53.8834048
  50.1510012  86.1354997  43.9559988  50.2400012  87.0794997  43.8239988
  49.5130012  85.8604997  43.2979988  50.0769081  86.2274830  43.8489614
  49.0840012  85.3904997  47.3749988  49.0460012  84.7444997  48.0799988
  48.7620012  84.9244997  46.6039988  49.0352333  85.2389408  47.3672978
  41.4530012  85.0054997  48.9679988  41.4940012  84.3794997  49.6909988
  42.1560012  85.6294997  49.1499988  41.5536363  85.0041196  49.0916044
  52.7900012  88.3294997  45.6759988  52.3500012  87.6094997  46.1269988
  52.7770012  89.0504997  46.3059988  52.7280226  88.3283731  45.8228494
  42.3760012  89.4554997  47.5029988  42.0070012  88.6534997  47.1329988
  43.3170012  89.2864997  47.5489988  42.4527289  89.3230153  47.4586316
  38.9860012  83.1154997  42.8959988  38.5390012  83.9614997  42.8769988
  38.4250012  82.5354997  42.3799988  38.8489900  83.1529916  42.8236801
  39.6970012  85.2774997  45.0219988  39.9100012  84.5074997  45.5489988
  40.4350012  85.3664997  44.4179988  39.8258496  85.1841394  45.0125300
  49.9020012  93.4344997  45.8889988  50.5220012  92.7574997  45.6149988
  49.6940012  93.2164997  46.7969988  49.9586904  93.3123870  45.9743365
  47.4740012  87.8234997  47.7809988  47.7780012  87.1374997  47.1859988
  48.1950012  87.9414997  48.3989988  47.6130671  87.7456305  47.7831816
  56.1370012  79.4244997  48.6419988  56.1860012  80.0344997  49.3779988
  56.5620012  79.8854997  47.9189988  56.2011824  79.5703741  48.6450205
  50.6150012  82.2174997  48.1089988  50.7570012  81.2714997  48.1289988
  50.5080012  82.4244997  47.1799988  50.6199863  82.1159534  47.9862339
  43.7690012  80.3184997  45.3809988  43.8130012  81.1784997  44.9629988
  43.3120012  79.7664997  44.7469988  43.7132185  80.3615799  45.2380299
  51.4920012  80.4494997  43.7819988  52.1380012  80.1204997  44.4069988
  52.0020012  80.9674997  43.1589988  51.6494264  80.4744611  43.7833862
  40.3900012  82.7154997  46.1429988  41.0430012  82.1654997  46.5749988
  40.4140012  82.4414997  45.2259988  40.4826683  82.6031466  46.0782123
  45.5460012  84.2654997  45.3579988  46.1620012  83.7394997  45.8679988
  44.9600012  83.6254997  44.9549988  45.5510810  84.1069208  45.3733173
  42.5800012  79.2364997  49.4549988  42.3610012  79.7664997  48.6889988
  41.9120012  79.4634997  50.1019988  42.4597600  79.3396906  49.4376379
  49.9490012  88.7364997  42.9989988  49.6530012  88.4144997  42.1479988
  49.6240012  89.6364997  43.0399988  49.8646371  88.8140215  42.8881801
  45.1490012  86.9124997  49.7419988  44.4090012  87.5104997  49.8459988
  45.8630012  87.4664997  49.4269988  45.1442237  87.0692831  49.7136465
  53.2560012  79.7404997  45.7619988  53.0400012  78.9744997  46.2949988
  53.9110012  80.2124997  46.2749988  53.3150632  79.6995889  45.9042861
  42.1730012  81.1284997  47.4069988  42.7870012  81.7614997  47.7809988
  42.6850012  80.6564997  46.7509988  42.3262296  81.1512370  47.3694252
  43.5560012  88.8764997  50.5299988  43.5510012  89.7564997  50.1519988
  42.7030012  88.7934997  50.9549988  43.4399464  88.9856117  50.5357907
  39.6770012  88.5474997  41.3119988  39.4050012  88.7764997  40.4229988
  39.7230012  89.3854997  41.7719988  39.6460094  88.6921213  41.2525697
  53.3020012  90.1694997  48.0239988  52.3610012  90.2274997  48.1859988
  53.5790012  91.0754997  47.8869988  53.2104679  90.2999443  48.0276815
  46.6060012  76.5424997  46.9079988  46.4890012  75.5934997  46.8529988
  45.7510012  76.8744997  47.1809988  46.4743733  76.4575409  46.9373897
  51.5540012  91.9504997  44.6499988  51.9800012  91.2434997  44.1649988
  51.8710012  92.7514997  44.2329988  51.6551019  91.9620994  44.5273130
  52.7140012  89.8514997  43.1579988  52.4560012  89.1614997  42.5469988
  52.7850012  89.4084997  44.0039988  52.6882856  89.6972124  43.1886885
  48.8730012  85.3794997  41.4079988  48.1610012  85.9144997  41.0559988
  49.5640012  85.4354997  40.7479988  48.8690132  85.4602543  41.2706289
  48.9260012  83.8374997  38.4469988  49.6270012  83.8594997  39.0979988
  49.2290012  83.2094997  37.7909988  49.0627830  83.7556566  38.4473711
  52.2780012  85.5894997  42.3599988  51.5460012  85.8174997  42.9329988
  52.7260012  84.8754997  42.8149988  52.2383095  85.5242571  42.4999119
  52.1760012  83.7634997  51.4269988  52.2560012  84.5264997  51.9989988
  51.5740012  84.0424997  50.7369988  52.1055756  83.9057134  51.4120589
  43.9240012  86.2194997  44.2419988  43.5930012  85.8494997  43.4239988
  44.5120012  85.5494997  44.5889988  43.9581873  86.0781156  44.1768102
  45.2900012  89.6474997  46.9239988  45.1960012  89.0694997  46.1669988
  46.0200012  89.2764997  47.4199988  45.3757981  89.5182390  46.8874165
  44.2900012  84.9884997  47.8759988  44.8560012  85.1094997  47.1129988
  44.6090012  85.6254997  48.5149988  44.4105786  85.0911884  47.8580040
  50.5990012  90.4914997  48.6099988  50.3590012  91.1534997  49.2579988
  50.4010012  89.6574997  49.0349988  50.5393808  90.4693134  48.7561524
  45.1700012  89.3874997  52.5929988  44.8590012  90.1694997  53.0479988
  44.5200012  89.2344997  51.9069988  45.0395558  89.4739105  52.5625871
  51.1490012  84.7514997  40.0449988  51.7290012  84.9014997  40.7919988
  51.5630012  85.2224997  39.3219988  51.2842830  84.8356841  40.0494134
  42.0900012  85.5854997  51.8219988  42.1610012  86.2364997  52.5199988
  41.2000012  85.6884997  51.4869988  41.9793117  85.6885936  51.8722700
  48.8760012  91.4884997  43.4799988  49.3500012  91.7834997  44.2579988
  48.3130012  92.2264997  43.2469988  48.8647653  91.6286932  43.5550136
  43.4100012  91.4594997  53.3559988  43.4170012  91.3234997  52.4089988
  42.4940012  91.3414997  53.6079988  43.2871714  91.4249430  53.2604666
  54.8480012  76.5014997  39.8579988  53.9480012  76.6404997  40.1529988
  55.1000012  77.3324997  39.4559988  54.7588702  76.6329074  39.8440205
  42.9140012  85.2894997  41.8319988  42.6220012  86.0574997  41.3409988
  42.2400012  84.6294997  41.6689988  42.7829081  85.3054406  41.7427340
  56.0370012  90.8674997  38.2339988  56.1110012  91.8064997  38.4049988
  56.9430012  90.5624997  38.1779988  56.1695100  90.9546722  38.2498119
  39.0070012  87.6524997  50.6469988  38.5060012  87.6244997  49.8319988
  39.0120012  86.7464997  50.9559988  38.9391526  87.5262278  50.5772872
  38.7570012  90.4324997  47.5309988  39.7030012  90.2884997  47.5119988
  38.6450012  91.2164997  48.0679988  38.8712727  90.5188046  47.6010072
  47.9340012  90.6724997  52.0889988  48.0210012  91.4984997  52.5639988
  47.0700012  90.3424997  52.3379988  47.8291964  90.7409878  52.1876549
  48.3480012  94.4444997  41.8949988  48.2730012  94.3234997  40.9489988
  48.3810012  95.3944997  42.0139988  48.3421848  94.5562500  41.7814834
  42.0010012  93.2334997  43.6759988  42.1540012  92.8854997  44.5549988
  41.1510012  92.8774997  43.4209988  41.9068962  93.1376650  43.7618340
  51.4500012  93.5984997  38.8969988  51.8250012  92.8544997  38.4269988
  51.4540012  93.3284997  39.8159988  51.5018915  93.4601486  38.9567824
  51.1190012  93.5244997  41.6469988  50.1830012  93.6244997  41.8249988
  51.3990012  92.8154997  42.2249988  51.0288255  93.4422711  41.7495391
  54.1070012  82.5914997  53.6929988  53.7000012  83.0724997  52.9719988
  54.1480012  81.6864997  53.3849988  54.0568437  82.5349374  53.5526683
  41.2560012  88.9754997  51.6899988  41.4720012  88.6144997  52.5489988
  40.4010012  88.6014997  51.4799988  41.1699292  88.8754111  51.7793386
  43.8750012  77.4454997  47.6849988  43.0130012  77.3584997  47.2779988
  43.8520012  78.3014997  48.1129988  43.7540330  77.5492765  47.6871863
  48.5380012  77.1674997  51.0599988  48.9580012  76.7524997  51.8129988
  47.6050012  76.9894997  51.1769988  48.4693644  77.0865900  51.1789539
  51.8640012  80.9234997  51.9129988  51.3500012  80.7974997  52.7109988
  51.7090012  81.8354997  51.6689988  51.7726852  81.0296132  51.9892158
  52.6270012  85.7844997  37.6749988  52.6690012  85.5614997  36.7449988
  53.4760012  86.1834997  37.8649988  52.7475396  85.8079155  37.5733627
  48.1990012  79.6604997  38.3449988  47.9460012  79.6794997  39.2679988
  47.9430012  78.7884997  38.0439988  48.1297790  79.5452437  38.4306263
  43.9660012  82.4114997  48.7799988  43.3240012  82.3704997  49.4889988
  44.0030012  83.3374997  48.5429988  43.8831324  82.5311559  48.8449824
  43.9630012  82.6324997  43.6919988  43.0700012  82.2914997  43.6339988
  44.4130012  82.2554997  42.9369988  43.9017305  82.5348484  43.5819177
  49.4980012  83.0484997  42.5089988  49.0890012  83.8634997  42.2179988
  50.2190012  82.9084997  41.8949988  49.5394537  83.1412018  42.3861342
  48.6000012  83.2234997  53.9969988  48.0380012  82.5194997  54.3179988
  49.4270012  83.1034997  54.4649988  48.6347095  83.1107883  54.1042330
  50.5030012  82.4944997  45.3229988  50.3080012  83.0994997  44.6079988
  50.6840012  81.6604997  44.8889988  50.5007614  82.4646300  45.1664405
  41.7160012  82.7314997  50.6469988  41.6780012  83.1314997  51.5159988
  41.2250012  81.9144997  50.7379988  41.6444684  82.6758069  50.7781059
  45.0820012  80.1054997  37.4459988  44.6510012  79.6604997  38.1759988
  44.3640012  80.4774997  36.9339988  44.9259438  80.0948940  37.4766799
  38.3240012  79.8474997  44.4979988  38.9550012  79.8184997  45.2169988
  38.7730012  79.4224997  43.7679988  38.4710774  79.7860492  44.4976553
  39.5980012  80.5934997  39.9219988  40.0720012  81.1844997  39.3369988
  38.8810012  81.1244997  40.2689988  39.5659341  80.7460867  39.8888836
  49.7670012  84.1324997  49.9949988  50.0900012  83.5014997  49.3519988
  49.3270012  83.5974997  50.6549988  49.7516895  83.9738441  49.9962850
  46.5440012  80.0594997  44.7789988  45.6330012  80.1164997  45.0669988
  47.0500012  79.9994997  45.5889988  46.4875413  80.0591985  44.9280622
  41.3730012  81.6884997  43.6049988  40.4830012  81.7884997  43.2649988
  41.6690012  80.8464997  43.2589988  41.2912823  81.5883545  43.5117213
  45.0260012  81.6884997  41.2619988  45.9570012  81.8174997  41.4399988
  44.8110012  82.3584997  40.6119988  45.1244247  81.7966565  41.1985747
  50.9490012  79.2944997  48.0429988  50.2730012  79.4254997  48.7069988
  50.4640012  79.1394997  47.2329988  50.7907145  79.2914905  48.0244517
  43.7000012  82.8834997  38.8289988  43.1570012  82.5034997  38.1369988
  44.5330012  83.0774997  38.3999988  43.7384399  82.8578124  38.6764526
  54.2370012  94.9664997  54.3199988  54.4370012  95.3904997  53.4849988
  54.8920012  95.3094997  54.9269988  54.3530051  95.0709648  54.2877836
  41.8350012  87.4404997  53.9279988  42.5670012  87.6944997  54.4889988
  41.0550012  87.6444997  54.4429988  41.8298232  87.5029177  54.0745760
  47.8640012  82.8474997  46.6659988  48.4290012  82.3004997  46.1189988
  47.7170012  82.3254997  47.4539988  47.9212918  82.7022024  46.6978454
  42.8660012  78.9834997  43.0839988  42.5490012  78.0814997  43.0489988
  43.6480012  78.9854997  42.5309988  42.9282284  78.8601628  43.0044783
  46.4910012  81.2354997  49.0799988  45.6550012  81.6894997  49.1899988
  47.0150012  81.5114997  49.8319988  46.4474414  81.3349376  49.1967136
  47.0350012  87.4484997  40.7639988  46.2900012  86.9414997  40.4419988
  46.9010012  87.4974997  41.7109988  46.9148776  87.3856940  40.8478647
  50.9330012  80.2624997  38.9639988  49.9940012  80.3744997  38.8119988
  51.2300012  81.1194997  39.2699988  50.8447666  80.3936443  38.9845768
  48.5540012  87.6324997  52.0009988  48.2090012  87.2514997  52.8079988
  48.3540012  88.5664997  52.0729988  48.4798061  87.7065228  52.1210961
  51.6510012  82.1294997  40.6239988  52.5430012  81.9924997  40.9429988
  51.7080012  82.9204997  40.0879988  51.7806285  82.2176660  40.5951691
  42.1600012  86.7434997  46.5339988  42.9050012  86.7414997  45.9329988
  42.2380012  85.9204997  47.0159988  42.2725518  86.6319315  46.5168929
  49.1610012  88.9074997  39.7899988  48.8650012  89.7334997  40.1709988
  48.4580012  88.2874997  39.9859988  49.0254914  88.9368199  39.8686443
  39.1680012  85.2044997  51.8489988  39.3910012  84.7864997  52.6809988
  38.5660012  84.5914997  51.4259988  39.1171759  85.0644668  51.9057022
  46.1840012  84.7214997  54.0619988  45.8880012  84.5554997  53.1669988
  47.1160012  84.5014997  54.0509988  46.2694166  84.6690640  53.9380536
  50.8050012  90.0944997  51.9519988  49.9040012  90.2774997  51.6839988
  50.8390012  90.3534997  52.8729988  50.6863041  90.1545512  52.0398197
  56.5360012  82.3394997  40.3189988  55.9820012  81.9434997  39.6469988
  56.6360012  83.2494997  40.0409988  56.4737059  82.4083586  40.1894401
  54.8310012  91.1254997  40.7839988  54.4580012  90.2994997  41.0929988
  55.1090012  90.9424997  39.8869988  54.8175630  90.9877303  40.7049626
  51.9920012  85.9334997  47.8049988  51.0630012  85.7014997  47.7779988
  52.4430012  85.1564997  47.4749988  51.9259216  85.7967238  47.7566917
  44.5350012  90.2614997  43.9379988  45.0620012  91.0344997  43.7379988
  43.6550012  90.4864997  43.6369988  44.4881773  90.3978005  43.8699010
  40.2900012  85.1234997  38.5249988  40.9060012  85.7504997  38.9049988
  39.4280012  85.4394997  38.7969988  40.2577698  85.2519430  38.6137183
  45.9620012  87.9244997  43.5149988  45.7210012  88.8494997  43.5559988
  45.2210012  87.4654997  43.9109988  45.8288409  87.9891421  43.5741377
  46.4770012  92.0734997  49.8299988  46.8390012  92.9284997  49.5959988
  47.0080012  91.7814997  50.5699988  46.5984473  92.1511060  49.8980855
  44.6450012  92.9464997  43.0599988  43.6950012  93.0514997  43.1109988
  44.9970012  93.7664997  43.4049988  44.5624203  93.0718314  43.1136650
  50.0210012  88.1724997  49.5299988  49.5950012  87.9454997  50.3569988
  50.6010012  87.4344997  49.3479988  50.0411868  88.0415299  49.6185830
  52.2240012  89.1014997  38.6039988  52.5770012  88.7214997  39.4089988
  51.2750012  89.0084997  38.6909988  52.1440441  89.0369596  38.7258559
  52.6790012  92.7244997  51.9999988  52.0780012  92.1694997  51.5039988
  52.9610012  93.3914997  51.3739988  52.6348519  92.7386841  51.8474952
  56.7270012  93.5814997  38.8049988  57.4710012  94.1674997  38.6649988
  56.0330012  94.1494997  39.1389988  56.7350292  93.7385582  38.8309961
  40.8020012  79.9574997  51.4069988  39.9090012  80.2964997  51.3389988
  40.7030012  79.1024997  51.8249988  40.6664164  79.8882588  51.4542235
  53.0900012  87.7744997  40.8309988  52.8120012  87.0464997  41.3869988
  54.0170012  87.8934997  41.0359988  53.1773124  87.6908802  40.9348845
  40.4530012  91.7624997  49.8419988  40.6700012  90.8304997  49.8109988
  40.6990012  92.0364997  50.7249988  40.5159549  91.6720636  49.9571763
  46.3150012  90.2134997  37.0509988  46.5540012  89.4654997  36.5039988
  46.0460012  89.8254997  37.8839988  46.3113675  90.0586638  37.0886865
  45.2520012  89.7834997  39.5079988  45.3980012  89.2634997  40.2979988
  45.2490012  90.6904997  39.8139988  45.2715989  89.8348853  39.6576088
  41.7050012  87.0364997  40.0179988  41.0190012  87.3884997  40.5849988
  42.2270012  87.7994997  39.7709988  41.6816852  87.1878578  40.0622118
  49.5360012  79.6984997  50.2969988  50.2350012  79.7724997  50.9469988
  49.1550012  78.8344997  50.4509988  49.5801767  79.5917624  50.4068322
  50.3210012  79.3504997  41.3939988  50.5410012  79.8224997  40.5909988
  50.8790012  79.7454997  42.0639988  50.4264968  79.4684285  41.3747331
  47.9890012  91.4814997  40.2569988  47.1730012  91.9784997  40.3089988
  48.5190012  91.9564997  39.6169988  47.9489161  91.6137722  40.1775956
  47.5210012  81.0784997  42.2289988  48.3330012  81.5834997  42.2749988
  47.2760012  80.9334997  43.1429988  47.5990520  81.1280375  42.3588517
  48.0560012  82.0644997  51.4139988  48.1750012  82.6384997  52.1709988
  48.7120012  81.3764997  51.5279988  48.1609757  82.0501079  51.5330825
  48.4040012  78.1594997  43.1669988  48.0580012  78.7774997  43.8119988
  49.0630012  78.6604997  42.6859988  48.4457826  78.3115802  43.1900971
  45.3280012  92.5254997  40.2389988  45.4880012  93.3244997  39.7379988
  45.1300012  92.8314997  41.1239988  45.3231649  92.6764469  40.2899815
  44.0620012  79.2224997  39.8539988  43.9790012  80.1114997  40.2009988
  44.9520012  78.9574997  40.0859988  44.1709469  79.3081430  39.9327626
  52.8630012  83.7224997  46.3439988  52.0650012  83.3074997  46.0159988
  53.3080012  83.0314997  46.8349988  52.8139885  83.5723543  46.3654889
  42.3210012  89.6504997  38.9149988  42.9130012  90.3494997  39.1909988
  42.7800012  89.2174997  38.1949988  42.4641142  89.6877049  38.8554830
  40.6370012  82.3144997  38.0309988  40.5920012  83.2534997  38.2089988
  39.7490012  82.0784997  37.7609988  40.5108574  82.4111892  38.0188912
  53.9490012  92.9784997  47.9669988  53.7940012  93.6564997  47.3099988
  54.8820012  93.0504997  48.1699988  54.0538500  93.0810170  47.9045119
  41.4450012  77.0964997  46.7039988  41.2160012  77.1554997  45.7759988
  41.0020012  76.3044997  47.0099988  41.3538530  76.9975753  46.6184786
  40.3750012  91.0364997  42.8639988  39.5430012  91.5094997  42.8919988
  40.9210012  91.5464997  42.2659988  40.3349739  91.1701871  42.7869716
  39.6630012  93.6494997  54.1939988  40.2040012  93.4324997  54.9539988
  39.1820012  92.8434997  54.0049988  39.6719345  93.5109514  54.2723076
  44.2610012  92.5684997  55.8149988  45.0280012  92.1094997  56.1559988
  44.2390012  92.3424997  54.8849988  44.3631434  92.4750409  55.7360043
  48.3530012  92.0764997  37.1899988  47.7090012  91.4454997  37.5109988
  49.1150012  91.5454997  36.9579988  48.3678077  91.9182920  37.2026011
  50.8380012  90.9484997  54.5439988  50.4870012  90.0924997  54.7869988
  51.5640012  91.0914997  55.1509988  50.8880769  90.8505636  54.6593619
  52.9570012  91.8934997  37.4239988  53.2400012  91.0994997  37.8759988
  53.6970012  92.1264997  36.8629988  53.0957486  91.8162803  37.4100698
  39.5700012  87.4594997  55.1489988  39.7140012  86.5574997  54.8619988
  38.7980012  87.7454997  54.6609988  39.4853322  87.3748261  55.0437881
  43.9120012  87.8034997  37.2809988  43.9760012  87.0094997  37.8119988
  44.5650012  87.6844997  36.5909988  44.0090241  87.6787148  37.2604317
  46.2260012  87.4294997  54.5809988  45.8970012  87.7004997  53.7239988
  46.3780012  86.4884997  54.4939988  46.2014809  87.3393862  54.4518244
  49.2640012  88.8504997  37.0169988  48.9950012  89.0304997  37.9179988
  49.0580012  87.9244997  36.8859988  49.1993825  88.7500152  37.1225214
  51.9600012  87.3454997  51.9649988  52.7060012  87.9334997  51.8449988
  51.2030012  87.9274997  52.0279988  51.9597554  87.5047011  51.9570907
  40.4030012  84.6594997  54.5689988  40.8110012  83.8024997  54.4479988
  40.1430012  84.6744997  55.4899988  40.4237568  84.5440807  54.6769588
  45.0610012  85.7754997  39.5869988  44.6010012  85.2914997  40.2729988
  45.3160012  85.1074997  38.9509988  45.0324902  85.6188731  39.5949334
  44.3500012  83.6684997  51.9429988  43.7320012  84.3434997  52.2229988
  44.6940012  83.9894997  51.1099988  44.3119615  83.8042721  51.8686581
  46.1320012  84.0184997  37.8489988  45.9520012  83.8644997  36.9219988
  47.0820012  84.1264997  37.8939988  46.2357776  84.0120175  37.7281843
  49.3700012  86.1404997  55.2199988  50.3230012  86.2234997  55.1929988
  49.2090012  85.4284997  55.8399988  49.4786426  86.0556746  55.3000579
  55.5220012  86.3734997  37.2949988  55.2480012  85.9484997  36.4819988
  55.5610012  87.3044997  37.0779988  55.4897699  86.4412484  37.1543610
  44.6890012  81.0234997  53.0249988  44.8390012  80.2944997  52.4229988
  44.6920012  81.8004997  52.4659988  44.7099302  81.0287851  52.8670692
  45.1020012  79.3934997  50.5179988  45.6380012  79.8444997  49.8659988
  44.2500012  79.2854997  50.0949988  45.0602178  79.4406390  50.3715756
  46.6840012  84.8324997  50.7569988  47.4340012  84.6764997  50.1839988
  46.3450012  85.6844997  50.4819988  46.7408921  84.9262968  50.6413561
  51.0990012  82.6474997  55.7859988  51.2920012  81.7164997  55.6739988
  51.9570012  83.0724997  55.7759988  51.2413020  82.5776389  55.7693361
  52.4160012  85.4364997  53.8629988  52.1350012  86.1454997  53.2859988
  53.3590012  85.3634997  53.7119988  52.5049027  85.5237646  53.7635551
  43.1680012  82.2214997  54.9369988  42.4010012  81.6894997  54.7269988
  43.8470012  81.9114997  54.3369988  43.1547022  82.1067506  54.8271648
  45.9080012  76.8494997  50.9489988  45.8090012  77.7964997  50.8439988
  45.1650012  76.4774997  50.4739988  45.7940563  76.9285902  50.8704560
  47.1720012  81.1714997  54.5129988  46.9360012  80.9514997  55.4149988
  46.3880012  80.9644997  54.0029988  47.0338628  81.1134760  54.5673932
  49.8870012  80.2984997  53.5889988  48.9400012  80.3304997  53.7209988
  50.2000012  79.6734997  54.2419988  49.7995475  80.2183207  53.6954455
  51.5210012  78.9324997  55.5939988  51.4250012  77.9804997  55.5879988
  51.2000012  79.2014997  56.4539988  51.4644070  78.8384035  55.7095441
  41.3480012  80.1424997  54.6409988  41.5600012  79.4354997  54.0309988
  41.2370012  79.7044997  55.4849988  41.3619721  79.9867084  54.6716843
  46.1290012  76.1434997  53.6209988  46.8410012  75.5034997  53.6069988
  46.0280012  76.4104997  52.7069988  46.2127939  76.0919938  53.4955650
  46.4830012  77.8264997  55.6739988  46.3510012  77.3504997  54.8539988
  45.8840012  78.5704997  55.6189988  46.3839071  77.8619618  55.5542886
  46.0290012  94.7094997  38.8509988  46.9620012  94.8674997  38.9939988
  45.7650012  95.3844997  38.2259988  46.1209510  94.8223611  38.7860741
  39.5980012  89.3454997  38.3329988  40.5120012  89.4244997  38.6069988
  39.6050012  88.6584997  37.6669988  39.7241131  89.2633961  38.2804393
  38.2470012  94.7384997  43.4109988  37.6000012  94.2764997  42.8779988
  38.6010012  94.0664997  43.9929988  38.2063849  94.5844723  43.4167959
  39.1170012  92.8194997  45.2149988  38.7820012  91.9394997  45.3869988
  39.3390012  93.1644997  46.0799988  39.1011783  92.7457500  45.3554208
  56.6650012  93.6284997  48.1959988  56.6440012  93.8134997  49.1349988
  57.3560012  94.1974997  47.8549988  56.7554618  93.7306606  48.2783864
  54.6790012  88.9854997  55.7559988  53.8130012  88.8804997  56.1499988
  55.0560012  89.7444997  56.2019988  54.6113308  89.0736900  55.8702393
  55.9800012  87.2424997  41.2699988  56.8300012  87.6634997  41.3969988
  55.9860012  86.5024997  41.8769988  56.0971372  87.2000803  41.3694344
  56.3750012  85.2954997  43.0939988  55.6480012  84.8164997  43.4909988
  56.9560012  85.5014997  43.8259988  56.3539375  85.2577090  43.2474129
  56.6430012  85.1964997  39.4849988  56.1210012  85.5534997  38.7659988
  56.6100012  85.8714997  40.1629988  56.5671634  85.3365413  39.4783145
  54.9920012  82.4364997  38.0359988  55.0880012  83.1034997  37.3549988
  54.8520012  81.6204997  37.5539988  54.9862135  82.4174500  37.8778491
  54.1610012  83.8164997  43.6569988  54.0110012  82.8714997  43.6359988
  53.8080012  84.0974997  44.4999988  54.0926625  83.7250441  43.7682346
  39.1970012  85.8944997  47.6669988  39.3810012  85.8124997  46.7309988
  40.0460012  85.7704997  48.0909988  39.3370139  85.8665003  47.5961455
  54.2390012  79.8444997  37.1529988  54.8500012  79.4734997  37.7899988
  53.4030012  79.4234997  37.3489988  54.2095032  79.7367554  37.2667035
  53.8720012  81.3994997  42.1189988  54.1520012  80.4924997  42.2429988
  54.6310012  81.8334997  41.7299988  54.0129277  81.3340942  42.0833682
  54.4840012  81.9804997  47.5549988  55.4170012  82.1924997  47.5209988
  54.2490012  82.0824997  48.4769988  54.5798036  82.0232769  47.6749976
  54.5130012  82.7174997  50.3309988  53.6700012  82.9854997  50.6969988
  54.9550012  83.5394997  50.1199988  54.4574158  82.8653291  50.3525491
  38.7940012  81.1654997  53.8079988  39.7140012  81.0434997  54.0439988
  38.3450012  80.4154997  54.1969988  38.8591580  81.0473727  53.8929006
  54.4850012  78.6624997  42.1669988  54.6680012  78.2134997  42.9929988
  53.8860012  78.0774997  41.7039988  54.4290202  78.5219975  42.2173275
  40.0150012  79.4774997  46.6989988  40.4610012  78.6854997  47.0009988
  40.4820012  80.1934997  47.1299988  40.1390172  79.4660624  46.7984820
  38.3190012  82.4764997  47.7679988  38.8110012  82.2554997  46.9769988
  38.6820012  83.3174997  48.0489988  38.4353126  82.5598357  47.6977531
  56.3520012  78.7294997  38.6949988  56.7640012  78.0084997  38.2199988
  57.0340012  79.3994997  38.7539988  56.5005885  78.7212368  38.6378915
  38.6330012  78.7344997  41.8219988  37.7080012  78.9434997  41.6929988
  39.0870012  79.2184997  41.1329988  38.5677368  78.8285993  41.7111226
  53.4040012  93.7184997  43.7679988  54.0560012  93.3714997  43.1599988
  53.9140012  94.2074997  44.4139988  53.5622637  93.7370597  43.7720236
  38.5970012  77.4724997  50.1669988  37.9320012  77.2264997  50.8099988
  38.1540012  78.0944997  49.5889988  38.4460956  77.5228632  50.1769352
  40.7890012  90.6474997  54.3109988  39.9680012  90.8224997  53.8509988
  40.5360012  90.5744997  55.2319988  40.6426164  90.6615622  54.3724923
  43.7430012  91.6224997  50.5699988  43.3180012  92.4314997  50.2869988
  44.6470012  91.7074997  50.2679988  43.8070271  91.7448469  50.4903776
  48.0540012  93.0214997  53.5289988  48.2390012  92.6874997  54.4069988
  48.9000012  93.3304997  53.2069988  48.1937539  93.0176047  53.6055605
  50.3990012  94.3074997  52.7729988  51.0760012  93.6744997  52.5329988
  50.7210012  94.7084997  53.5799988  50.5351637  94.2751154  52.8492793
  41.1450012  94.8784997  50.6169988  40.4240012  95.3184997  50.1659988
  40.7790012  94.6274997  51.4659988  40.9969804  94.9047698  50.6699840
  43.6120012  94.4784997  49.6469988  42.7470012  94.5504997  50.0509988
  43.5570012  95.0254997  48.8629988  43.4862085  94.5622685  49.5963362
  48.3220012  94.3664997  48.8219988  47.8660012  94.8954997  48.1679988
  48.4850012  94.9694997  49.5479988  48.2815585  94.5204468  48.8305062
  50.6500012  93.2444997  49.7669988  49.7450012  93.4094997  49.5019988
  51.0790012  94.0974997  49.7019988  50.5840799  93.3824483  49.7219182
  53.2540012  94.8144997  50.0619988  53.0720012  95.7304997  49.8519988
  53.4310012  94.4044997  49.2159988  53.2530210  94.8844822  49.9187885
  40.5590012  93.5014997  47.5269988  40.5410012  93.0764997  48.3849988
  41.3640012  93.1834997  47.1189988  40.6653875  93.4003812  47.5891655
  42.7010012  92.2114997  46.1819988  42.4820012  91.2954997  46.3519988
  43.5250012  92.3514997  46.6479988  42.7824420  92.1050520  46.2682774
  45.2380012  92.6814997  47.0309988  45.4510012  91.7934997  46.7439988
  45.3020012  92.6474997  47.9849988  45.2758232  92.5553102  47.1207397
  48.7460012  78.3454997  46.1749988  48.0720012  77.7164997  46.4309988
  49.3100012  77.8614997  45.5719988  48.7299230  78.1938744  46.1285340
  53.8890012  76.4534997  46.2879988  54.4930012  77.0004997  45.7859988
  53.0190012  76.7724997  46.0479988  53.8541241  76.5715806  46.1867654
  41.0730012  76.9794997  43.9969988  40.2960012  76.7454997  43.4899988
  41.6030012  76.1824997  44.0059988  41.0382330  76.8396988  43.9287742
  39.9090012  76.7774997  39.8009988  40.3480012  77.3884997  39.2089988
  39.2760012  77.3154997  40.2749988  39.8834514  76.9339257  39.7840930
  45.6520012  76.9064997  43.8109988  46.5270012  77.2944997  43.7809988
  45.5160012  76.6914997  44.7329988  45.7533695  76.9305184  43.9316440
  51.2090012  76.9364997  45.4599988  51.2850012  77.0314997  44.5099988
  50.9340012  76.0284997  45.5889988  51.1822321  76.8267867  45.3475079
  52.5620012  76.9624997  41.1519988  51.8600012  77.5774997  40.9429988
  52.1180012  76.1244997  41.2829988  52.4056330  76.9335783  41.1410328
  39.8100012  92.7254997  40.6989988  39.1250012  92.6874997  40.0309988
  39.8140012  93.6384997  40.9869988  39.7168193  92.8437016  40.6465284
  41.7700012  78.6934997  38.2429988  42.2620012  78.0634997  37.7159988
  42.3940012  78.9894997  38.9069988  41.9215446  78.6473199  38.2605980
  46.7960012  78.9864997  40.6999988  46.9740012  78.3404997  41.3829988
  46.7430012  79.8204997  41.1679988  46.8131829  79.0107985  40.8565940
  48.6750012  93.9354997  39.0959988  49.5410012  94.3014997  38.9179988
  48.4280012  93.4954997  38.2819988  48.7602392  93.9261756  38.9616289
  55.3840012  93.4984997  41.7749988  55.1890012  92.7504997  41.2099988
  55.3450012  94.2564997  41.1919988  55.3520380  93.4986099  41.6188384
  41.0310012  77.4934997  53.5149988  40.6650012  76.7284997  53.9579988
  41.9440012  77.5224997  53.8019988  41.1042790  77.3927224  53.6144070
  43.0040012  76.8444997  55.0509988  43.9020012  76.5704997  54.8659988
  42.6170012  76.1014997  55.5149988  43.0746612  76.7065914  55.0883643
  41.6280012  93.6454997  37.7239988  41.3610012  93.9324997  38.5969988
  42.4000012  93.0994997  37.8759988  41.6957488  93.6110294  37.8641050
  54.6010012  92.2494997  53.9249988  53.8190012  92.0634997  53.4059988
  54.5290012  93.1784997  54.1429988  54.4841777  92.3496492  53.8834048
  57.8420012  83.1154997  42.8959988  57.3950012  83.9614997  42.8769988
  57.2810012  82.5354997  42.3799988  57.7049900  83.1529916  42.8236801
  68.7580012  93.4344997  45.8889988  69.3780012  92.7574997  45.6149988
  68.5500012  93.2164997  46.7969988  68.8146904  93.3123870  45.9743365
  69.4710012  82.2174997  48.1089988  69.6130012  81.2714997  48.1289988
  69.3640012  82.4244997  47.1799988  69.4759864  82.1159534  47.9862339
  70.3480012  80.4494997  43.7819988  70.9940012  80.1204997  44.4069988
  70.8580012  80.9674997  43.1589988  70.5054264  80.4744611  43.7833862
  64.4020012  84.2654997  45.3579988  65.0180012  83.7394997  45.8679988
  63.8160012  83.6254997  44.9549988  64.4070810  84.1069208  45.3733173
  68.8050012  88.7364997  42.9989988  68.5090012  88.4144997  42.1479988
  68.4800012  89.6364997  43.0399988  68.7206371  88.8140215  42.8881801
  64.0050012  86.9124997  49.7419988  63.2650012  87.5104997  49.8459988
  64.7190012  87.4664997  49.4269988  64.0002237  87.0692831  49.7136465
  58.5330012  88.5474997  41.3119988  58.2610012  88.7764997  40.4229988
  58.5790012  89.3854997  41.7719988  58.5020094  88.6921213  41.2525697
  70.4100012  91.9504997  44.6499988  70.8360012  91.2434997  44.1649988
  70.7270012  92.7514997  44.2329988  70.5111019  91.9620994  44.5273130
  71.5700012  89.8514997  43.1579988  71.3120012  89.1614997  42.5469988
  71.6410012  89.4084997  44.0039988  71.5442856  89.6972124  43.1886885
  73.2560012  88.4174997  51.6359988  73.3960012  87.8264997  50.8959988
  73.4230012  89.2904997  51.2789988  73.2976778  88.4546426  51.4866965
  67.7290012  85.3794997  41.4079988  67.0170012  85.9144997  41.0559988
  68.4200012  85.4354997  40.7479988  67.7250132  85.4602543  41.2706289
  67.7820012  83.8374997  38.4469988  68.4830012  83.8594997  39.0979988
  68.0850012  83.2094997  37.7909988  67.9187830  83.7556566  38.4473711
  71.0320012  83.7634997  51.4269988  71.1120012  84.5264997  51.9989988
  70.4300012  84.0424997  50.7369988  70.9615756  83.9057134  51.4120589
  62.7800012  86.2194997  44.2419988  62.4490012  85.8494997  43.4239988
  63.3680012  85.5494997  44.5889988  62.8141873  86.0781156  44.1768102
  64.1460012  89.6474997  46.9239988  64.0520012  89.0694997  46.1669988
  64.8760012  89.2764997  47.4199988  64.2317981  89.5182390  46.8874165
  63.1460012  84.9884997  47.8759988  63.7120012  85.1094997  47.1129988
  63.4650012  85.6254997  48.5149988  63.2665786  85.0911884  47.8580040
  64.0260012  89.3874997  52.5929988  63.7150012  90.1694997  53.0479988
  63.3760012  89.2344997  51.9069988  63.8955558  89.4739105  52.5625871
  67.7320012  91.4884997  43.4799988  68.2060012  91.7834997  44.2579988
  67.1690012  92.2264997  43.2469988  67.7207653  91.6286932  43.5550136
  62.2660012  91.4594997  53.3559988  62.2730012  91.3234997  52.4089988
  61.3500012  91.3414997  53.6079988  62.1431714  91.4249430  53.2604666
  74.8930012  90.8674997  38.2339988  74.9670012  91.8064997  38.4049988
  75.7990012  90.5624997  38.1779988  75.0255100  90.9546722  38.2498119
  75.8110012  91.0984997  53.2129988  75.7620012  90.1434997  53.1759988
  74.9840012  91.3664997  53.6139988  75.6924940  91.0038998  53.2621375
  66.7900012  90.6724997  52.0889988  66.8770012  91.4984997  52.5639988
  65.9260012  90.3424997  52.3379988  66.6851964  90.7409878  52.1876549
  67.2040012  94.4444997  41.8949988  67.1290012  94.3234997  40.9489988
  67.2370012  95.3944997  42.0139988  67.1981848  94.5562500  41.7814834
  60.8570012  93.2334997  43.6759988  61.0100012  92.8854997  44.5549988
  60.0070012  92.8774997  43.4209988  60.7628962  93.1376650  43.7618340
  70.3060012  93.5984997  38.8969988  70.6810012  92.8544997  38.4269988
  70.3100012  93.3284997  39.8159988  70.3578915  93.4601486  38.9567824
  69.9750012  93.5244997  41.6469988  69.0390012  93.6244997  41.8249988
  70.2550012  92.8154997  42.2249988  69.8848255  93.4422711  41.7495391
  72.9630012  82.5914997  53.6929988  72.5560012  83.0724997  52.9719988
  73.0040012  81.6864997  53.3849988  72.9128437  82.5349374  53.5526683
  70.7200012  80.9234997  51.9129988  70.2060012  80.7974997  52.7109988
  70.5650012  81.8354997  51.6689988  70.6286852  81.0296132  51.9892158
  71.4830012  85.7844997  37.6749988  71.5250012  85.5614997  36.7449988
  72.3320012  86.1834997  37.8649988  71.6035396  85.8079155  37.5733627
  67.0550012  79.6604997  38.3449988  66.8020012  79.6794997  39.2679988
  66.7990012  78.7884997  38.0439988  66.9857790  79.5452437  38.4306263
  68.3540012  83.0484997  42.5089988  67.9450012  83.8634997  42.2179988
  69.0750012  82.9084997  41.8949988  68.3954537  83.1412018  42.3861342
  69.3590012  82.4944997  45.3229988  69.1640012  83.0994997  44.6079988
  69.5400012  81.6604997  44.8889988  69.3567614  82.4646300  45.1664405
  63.9380012  80.1054997  37.4459988  63.5070012  79.6604997  38.1759988
  63.2200012  80.4774997  36.9339988  63.7819438  80.0948940  37.4766799
  58.4540012  80.5934997  39.9219988  58.9280012  81.1844997  39.3369988
  57.7370012  81.1244997  40.2689988  58.4219341  80.7460867  39.8888836
  68.6230012  84.1324997  49.9949988  68.9460012  83.5014997  49.3519988
  68.1830012  83.5974997  50.6549988  68.6076895  83.9738441  49.9962850
  65.4000012  80.0594997  44.7789988  64.4890012  80.1164997  45.0669988
  65.9060012  79.9994997  45.5889988  65.3435413  80.0591985  44.9280622
  63.8820012  81.6884997  41.2619988  64.8130012  81.8174997  41.4399988
  63.6670012  82.3584997  40.6119988  63.9804247  81.7966565  41.1985747
  62.5560012  82.8834997  38.8289988  62.0130012  82.5034997  38.1369988
  63.3890012  83.0774997  38.3999988  62.5944399  82.8578124  38.6764526
  73.0930012  94.9664997  54.3199988  73.2930012  95.3904997  53.4849988
  73.7480012  95.3094997  54.9269988  73.2090051  95.0709648  54.2877836
  66.7200012  82.8474997  46.6659988  67.2850012  82.3004997  46.1189988
  66.5730012  82.3254997  47.4539988  66.7772918  82.7022024  46.6978454
  65.8910012  87.4484997  40.7639988  65.1460012  86.9414997  40.4419988
  65.7570012  87.4974997  41.7109988  65.7708776  87.3856940  40.8478647
  69.7890012  80.2624997  38.9639988  68.8500012  80.3744997  38.8119988
  70.0860012  81.1194997  39.2699988  69.7007666  80.3936443  38.9845768
  67.4100012  87.6324997  52.0009988  67.0650012  87.2514997  52.8079988
  67.2100012  88.5664997  52.0729988  67.3358061  87.7065228  52.1210961
  70.5070012  82.1294997  40.6239988  71.3990012  81.9924997  40.9429988
  70.5640012  82.9204997  40.0879988  70.6366285  82.2176660  40.5951691
  68.0170012  88.9074997  39.7899988  67.7210012  89.7334997  40.1709988
  67.3140012  88.2874997  39.9859988  67.8814914  88.9368199  39.8686443
  65.0400012  84.7214997  54.0619988  64.7440012  84.5554997  53.1669988
  65.9720012  84.5014997  54.0509988  65.1254166  84.6690640  53.9380536
  69.6610012  90.0944997  51.9519988  68.7600012  90.2774997  51.6839988
  69.6950012  90.3534997  52.8729988  69.5423041  90.1545512  52.0398197
  75.3550012  88.1394997  53.1559988  74.5040012  88.3774997  52.7889988
  75.9460012  88.1224997  52.4029988  75.3182487  88.1698258  53.0038893
  73.6870012  91.1254997  40.7839988  73.3140012  90.2994997  41.0929988
  73.9650012  90.9424997  39.8869988  73.6735630  90.9877303  40.7049626
  63.3910012  90.2614997  43.9379988  63.9180012  91.0344997  43.7379988
  62.5110012  90.4864997  43.6369988  63.3441773  90.3978005  43.8699010
  59.1460012  85.1234997  38.5249988  59.7620012  85.7504997  38.9049988
  58.2840012  85.4394997  38.7969988  59.1137698  85.2519430  38.6137183
  64.8180012  87.9244997  43.5149988  64.5770012  88.8494997  43.5559988
  64.0770012  87.4654997  43.9109988  64.6848409  87.9891421  43.5741377
  65.3330012  92.0734997  49.8299988  65.6950012  92.9284997  49.5959988
  65.8640012  91.7814997  50.5699988  65.4544473  92.1511060  49.8980855
  63.5010012  92.9464997  43.0599988  62.5510012  93.0514997  43.1109988
  63.8530012  93.7664997  43.4049988  63.4184203  93.0718314  43.1136650
  71.0800012  89.1014997  38.6039988  71.4330012  88.7214997  39.4089988
  70.1310012  89.0084997  38.6909988  71.0000441  89.0369596  38.7258559
  71.5350012  92.7244997  51.9999988  70.9340012  92.1694997  51.5039988
  71.8170012  93.3914997  51.3739988  71.4908519  92.7386841  51.8474952
  75.5830012  93.5814997  38.8049988  76.3270012  94.1674997  38.6649988
  74.8890012  94.1494997  39.1389988  75.5910292  93.7385582  38.8309961
  71.9460012  87.7744997  40.8309988  71.6680012  87.0464997  41.3869988
  72.8730012  87.8934997  41.0359988  72.0333124  87.6908802  40.9348845
  65.1710012  90.2134997  37.0509988  65.4100012  89.4654997  36.5039988
  64.9020012  89.8254997  37.8839988  65.1673675  90.0586638  37.0886865
  64.1080012  89.7834997  39.5079988  64.2540012  89.2634997  40.2979988
  64.1050012  90.6904997  39.8139988  64.1275989  89.8348853  39.6576088
  60.5610012  87.0364997  40.0179988  59.8750012  87.3884997  40.5849988
  61.0830012  87.7994997  39.7709988  60.5376852  87.1878578  40.0622118
  69.1770012  79.3504997  41.3939988  69.3970012  79.8224997  40.5909988
  69.7350012  79.7454997  42.0639988  69.2824968  79.4684285  41.3747331
  66.8450012  91.4814997  40.2569988  66.0290012  91.9784997  40.3089988
  67.3750012  91.9564997  39.6169988  66.8049161  91.6137722  40.1775956
  66.3770012  81.0784997  42.2289988  67.1890012  81.5834997  42.2749988
  66.1320012  80.9334997  43.1429988  66.4550520  81.1280375  42.3588517
  64.1840012  92.5254997  40.2389988  64.3440012  93.3244997  39.7379988
  63.9860012  92.8314997  41.1239988  64.1791649  92.6764469  40.2899815
  62.9180012  79.2224997  39.8539988  62.8350012  80.1114997  40.2009988
  63.8080012  78.9574997  40.0859988  63.0269469  79.3081430  39.9327626
  73.1170012  79.9714997  52.2489988  72.2000012  80.2344997  52.1609988
  73.4520012  79.9684997  51.3519988  73.0369900  80.0070224  52.1157919
  61.1770012  89.6504997  38.9149988  61.7690012  90.3494997  39.1909988
  61.6360012  89.2174997  38.1949988  61.3201142  89.6877049  38.8554830
  59.4930012  82.3144997  38.0309988  59.4480012  83.2534997  38.2089988
  58.6050012  82.0784997  37.7609988  59.3668574  82.4111892  38.0188912
  72.8050012  92.9784997  47.9669988  72.6500012  93.6564997  47.3099988
  73.7380012  93.0504997  48.1699988  72.9098500  93.0810170  47.9045119
  59.2310012  91.0364997  42.8639988  58.3990012  91.5094997  42.8919988
  59.7770012  91.5464997  42.2659988  59.1909739  91.1701871  42.7869716
  58.5190012  93.6494997  54.1939988  59.0600012  93.4324997  54.9539988
  58.0380012  92.8434997  54.0049988  58.5279345  93.5109514  54.2723076
  63.1170012  92.5684997  55.8149988  63.8840012  92.1094997  56.1559988
  63.0950012  92.3424997  54.8849988  63.2191434  92.4750409  55.7360043
  67.2090012  92.0764997  37.1899988  66.5650012  91.4454997  37.5109988
  67.9710012  91.5454997  36.9579988  67.2238077  91.9182920  37.2026011
  71.8130012  91.8934997  37.4239988  72.0960012  91.0994997  37.8759988
  72.5530012  92.1264997  36.8629988  71.9517486  91.8162803  37.4100698
  62.7680012  87.8034997  37.2809988  62.8320012  87.0094997  37.8119988
  63.4210012  87.6844997  36.5909988  62.8650241  87.6787148  37.2604317
  65.0820012  87.4294997  54.5809988  64.7530012  87.7004997  53.7239988
  65.2340012  86.4884997  54.4939988  65.0574809  87.3393862  54.4518244
  68.1200012  88.8504997  37.0169988  67.8510012  89.0304997  37.9179988
  67.9140012  87.9244997  36.8859988  68.0553825  88.7500152  37.1225214
  70.8160012  87.3454997  51.9649988  71.5620012  87.9334997  51.8449988
  70.0590012  87.9274997  52.0279988  70.8157554  87.5047011  51.9570907
  63.9170012  85.7754997  39.5869988  63.4570012  85.2914997  40.2729988
  64.1720012  85.1074997  38.9509988  63.8884902  85.6188731  39.5949334
  64.9880012  84.0184997  37.8489988  64.8080012  83.8644997  36.9219988
  65.9380012  84.1264997  37.8939988  65.0917776  84.0120175  37.7281843
  74.3780012  86.3734997  37.2949988  74.1040012  85.9484997  36.4819988
  74.4170012  87.3044997  37.0779988  74.3457699  86.4412484  37.1543610
  65.5400012  84.8324997  50.7569988  66.2900012  84.6764997  50.1839988
  65.2010012  85.6844997  50.4819988  65.5968921  84.9262968  50.6413561
  68.7430012  80.2984997  53.5889988  67.7960012  80.3304997  53.7209988
  69.0560012  79.6734997  54.2419988  68.6555475  80.2183207  53.6954455
  70.3770012  78.9324997  55.5939988  70.2810012  77.9804997  55.5879988
  70.0560012  79.2014997  56.4539988  70.3204070  78.8384035  55.7095441
  64.8850012  94.7094997  38.8509988  65.8180012  94.8674997  38.9939988
  64.6210012  95.3844997  38.2259988  64.9769510  94.8223611  38.7860741
  58.4540012  89.3454997  38.3329988  59.3680012  89.4244997  38.6069988
  58.4610012  88.6584997  37.6669988  58.5801131  89.2633961  38.2804393
  57.1030012  94.7384997  43.4109988  56.4560012  94.2764997  42.8779988
  57.4570012  94.0664997  43.9929988  57.0623849  94.5844723  43.4167959
  57.9730012  92.8194997  45.2149988  57.6380012  91.9394997  45.3869988
  58.1950012  93.1644997  46.0799988  57.9571783  92.7457500  45.3554208
  75.5210012  93.6284997  48.1959988  75.5000012  93.8134997  49.1349988
  76.2120012  94.1974997  47.8549988  75.6114618  93.7306606  48.2783864
  75.0850012  93.1964997  51.1179988  74.5970012  92.4604997  50.7469988
  75.6340012  92.8024997  51.7959988  75.0924872  93.0426249  51.1589160
  74.8360012  87.2424997  41.2699988  75.6860012  87.6634997  41.3969988
  74.8420012  86.5024997  41.8769988  74.9531372  87.2000803  41.3694344
  73.4760012  90.9584997  50.3479988  72.8290012  91.2834997  50.9739988
  72.9590012  90.5184997  49.6739988  73.3174029  90.9435004  50.3425827
  75.4990012  85.1964997  39.4849988  74.9770012  85.5534997  38.7659988
  75.4660012  85.8714997  40.1629988  75.4231634  85.3365413  39.4783145
  75.6520012  76.6974997  55.6839988  76.0020012  76.0434997  55.0789988
  75.7990012  77.5344997  55.2449988  75.7198419  76.7211591  55.5417118
  75.1720012  78.8064997  54.0339988  74.2540012  79.0774997  53.9979988
  75.2950012  78.2714997  53.2489988  75.0631066  78.7712892  53.9230487
  57.4890012  78.7344997  41.8219988  56.5640012  78.9434997  41.6929988
  57.9430012  79.2184997  41.1329988  57.4237368  78.8285993  41.7111226
  72.2600012  93.7184997  43.7679988  72.9120012  93.3714997  43.1599988
  72.7700012  94.2074997  44.4139988  72.4182637  93.7370597  43.7720236
  62.5990012  91.6224997  50.5699988  62.1740012  92.4314997  50.2869988
  63.5030012  91.7074997  50.2679988  62.6630271  91.7448469  50.4903776
  66.9100012  93.0214997  53.5289988  67.0950012  92.6874997  54.4069988
  67.7560012  93.3304997  53.2069988  67.0497539  93.0176047  53.6055605
  69.2550012  94.3074997  52.7729988  69.9320012  93.6744997  52.5329988
  69.5770012  94.7084997  53.5799988  69.3911637  94.2751154  52.8492793
  60.0010012  94.8784997  50.6169988  59.2800012  95.3184997  50.1659988
  59.6350012  94.6274997  51.4659988  59.8529804  94.9047698  50.6699840
  62.4680012  94.4784997  49.6469988  61.6030012  94.5504997  50.0509988
  62.4130012  95.0254997  48.8629988  62.3422085  94.5622685  49.5963362
  67.1780012  94.3664997  48.8219988  66.7220012  94.8954997  48.1679988
  67.3410012  94.9694997  49.5479988  67.1375585  94.5204468  48.8305062
  69.5060012  93.2444997  49.7669988  68.6010012  93.4094997  49.5019988
  69.9350012  94.0974997  49.7019988  69.4400799  93.3824483  49.7219182
  72.1100012  94.8144997  50.0619988  71.9280012  95.7304997  49.8519988
  72.2870012  94.4044997  49.2159988  72.1090210  94.8844822  49.9187885
  59.4150012  93.5014997  47.5269988  59.3970012  93.0764997  48.3849988
  60.2200012  93.1834997  47.1189988  59.5213875  93.4003812  47.5891655
  61.5570012  92.2114997  46.1819988  61.3380012  91.2954997  46.3519988
  62.3810012  92.3514997  46.6479988  61.6384420  92.1050520  46.2682774
  64.0940012  92.6814997  47.0309988  64.3070012  91.7934997  46.7439988
  64.1580012  92.6474997  47.9849988  64.1318232  92.5553102  47.1207397
  58.7650012  76.7774997  39.8009988  59.2040012  77.3884997  39.2089988
  58.1320012  77.3154997  40.2749988  58.7394514  76.9339257  39.7840930
  58.6660012  92.7254997  40.6989988  57.9810012  92.6874997  40.0309988
  58.6700012  93.6384997  40.9869988  58.5728193  92.8437016  40.6465284
  60.6260012  78.6934997  38.2429988  61.1180012  78.0634997  37.7159988
  61.2500012  78.9894997  38.9069988  60.7775446  78.6473199  38.2605980
  65.6520012  78.9864997  40.6999988  65.8300012  78.3404997  41.3829988
  65.5990012  79.8204997  41.1679988  65.6691829  79.0107985  40.8565940
  67.5310012  93.9354997  39.0959988  68.3970012  94.3014997  38.9179988
  67.2840012  93.4954997  38.2819988  67.6162392  93.9261756  38.9616289
  74.2400012  93.4984997  41.7749988  74.0450012  92.7504997  41.2099988
  74.2010012  94.2564997  41.1919988  74.2080380  93.4986099  41.6188384
  60.4840012  93.6454997  37.7239988  60.2170012  93.9324997  38.5969988
  61.2560012  93.0994997  37.8759988  60.5517488  93.6110294  37.8641050
  73.4570012  92.2494997  53.9249988  72.6750012  92.0634997  53.4059988
  73.3850012  93.1784997  54.1429988  73.3401777  92.3496492  53.8834048
  87.8630012  86.1354997  43.9559988  87.9520012  87.0794997  43.8239988
  87.2250012  85.8604997  43.2979988  87.7889081  86.2274830  43.8489614
  86.7960012  85.3904997  47.3749988  86.7580012  84.7444997  48.0799988
  86.4740012  84.9244997  46.6039988  86.7472333  85.2389408  47.3672978
  79.1650012  85.0054997  48.9679988  79.2060012  84.3794997  49.6909988
  79.8680012  85.6294997  49.1499988  79.2656363  85.0041196  49.0916044
  90.5020012  88.3294997  45.6759988  90.0620012  87.6094997  46.1269988
  90.4890012  89.0504997  46.3059988  90.4400226  88.3283731  45.8228494
  80.0880012  89.4554997  47.5029988  79.7190012  88.6534997  47.1329988
  81.0290012  89.2864997  47.5489988  80.1647289  89.3230153  47.4586316
  87.6140012  93.4344997  45.8889988  88.2340012  92.7574997  45.6149988
  87.4060012  93.2164997  46.7969988  87.6706904  93.3123870  45.9743365
  85.1860012  87.8234997  47.7809988  85.4900012  87.1374997  47.1859988
  85.9070012  87.9414997  48.3989988  85.3250671  87.7456305  47.7831816
  93.8490012  79.4244997  48.6419988  93.8980012  80.0344997  49.3779988
  94.2740012  79.8854997  47.9189988  93.9131824  79.5703741  48.6450205
  88.3270012  82.2174997  48.1089988  88.4690012  81.2714997  48.1289988
  88.2200012  82.4244997  47.1799988  88.3319863  82.1159534  47.9862339
  83.2580012  84.2654997  45.3579988  83.8740012  83.7394997  45.8679988
  82.6720012  83.6254997  44.9549988  83.2630810  84.1069208  45.3733173
  94.2400012  80.9024997  50.8779988  93.5520012  81.5604997  50.7819988
  94.2560012  80.7054997  51.8139988  94.1478525  80.9660462  50.9914808
  80.2920012  79.2364997  49.4549988  80.0730012  79.7664997  48.6889988
  79.6240012  79.4634997  50.1019988  80.1717600  79.3396906  49.4376379
  87.6610012  88.7364997  42.9989988  87.3650012  88.4144997  42.1479988
  87.3360012  89.6364997  43.0399988  87.5766371  88.8140215  42.8881801
  82.8610012  86.9124997  49.7419988  82.1210012  87.5104997  49.8459988
  83.5750012  87.4664997  49.4269988  82.8562237  87.0692831  49.7136465
  81.2680012  88.8764997  50.5299988  81.2630012  89.7564997  50.1519988
  80.4150012  88.7934997  50.9549988  81.1519464  88.9856117  50.5357907
  77.3890012  88.5474997  41.3119988  77.1170012  88.7764997  40.4229988
  77.4350012  89.3854997  41.7719988  77.3580094  88.6921213  41.2525697
  91.0140012  90.1694997  48.0239988  90.0730012  90.2274997  48.1859988
  91.2910012  91.0754997  47.8869988  90.9224679  90.2999443  48.0276815
  91.3150012  78.4554997  49.4419988  90.5790012  79.0664997  49.4039988
  91.9980012  78.8704997  48.9149988  91.3066541  78.5951374  49.3655832
  89.2660012  91.9504997  44.6499988  89.6920012  91.2434997  44.1649988
  89.5830012  92.7514997  44.2329988  89.3671019  91.9620994  44.5273130
  90.4260012  89.8514997  43.1579988  90.1680012  89.1614997  42.5469988
  90.4970012  89.4084997  44.0039988  90.4002856  89.6972124  43.1886885
  92.1120012  88.4174997  51.6359988  92.2520012  87.8264997  50.8959988
  92.2790012  89.2904997  51.2789988  92.1536778  88.4546426  51.4866965
  93.9540012  84.7574997  49.7019988  93.3010012  85.4524997  49.7909988
  94.4190012  84.9674997  48.8919988  93.9275390  84.8809425  49.6046883
  89.9900012  85.5894997  42.3599988  89.2580012  85.8174997  42.9329988
  90.4380012  84.8754997  42.8149988  89.9503095  85.5242571  42.4999119
  89.8880012  83.7634997  51.4269988  89.9680012  84.5264997  51.9989988
  89.2860012  84.0424997  50.7369988  89.8175756  83.9057134  51.4120589
  81.6360012  86.2194997  44.2419988  81.3050012  85.8494997  43.4239988
  82.2240012  85.5494997  44.5889988  81.6701873  86.0781156  44.1768102
  83.0020012  89.6474997  46.9239988  82.9080012  89.0694997  46.1669988
  83.7320012  89.2764997  47.4199988  83.0877981  89.5182390  46.8874165
  82.0020012  84.9884997  47.8759988  82.5680012  85.1094997  47.1129988
  82.3210012  85.6254997  48.5149988  82.1225786  85.0911884  47.8580040
  88.3110012  90.4914997  48.6099988  88.0710012  91.1534997  49.2579988
  88.1130012  89.6574997  49.0349988  88.2513808  90.4693134  48.7561524
  82.8820012  89.3874997  52.5929988  82.5710012  90.1694997  53.0479988
  82.2320012  89.2344997  51.9069988  82.7515558  89.4739105  52.5625871
  79.8020012  85.5854997  51.8219988  79.8730012  86.2364997  52.5199988
  78.9120012  85.6884997  51.4869988  79.6913117  85.6885936  51.8722700
  86.5880012  91.4884997  43.4799988  87.0620012  91.7834997  44.2579988
  86.0250012  92.2264997  43.2469988  86.5767653  91.6286932  43.5550136
  81.1220012  91.4594997  53.3559988  81.1290012  91.3234997  52.4089988
  80.2060012  91.3414997  53.6079988  80.9991714  91.4249430  53.2604666
  93.7490012  90.8674997  38.2339988  93.8230012  91.8064997  38.4049988
  94.6550012  90.5624997  38.1779988  93.8815100  90.9546722  38.2498119
  76.7190012  87.6524997  50.6469988  76.2180012  87.6244997  49.8319988
  76.7240012  86.7464997  50.9559988  76.6511526  87.5262278  50.5772872
  76.4690012  90.4324997  47.5309988  77.4150012  90.2884997  47.5119988
  76.3570012  91.2164997  48.0679988  76.5832727  90.5188046  47.6010072
  94.6670012  91.0984997  53.2129988  94.6180012  90.1434997  53.1759988
  93.8400012  91.3664997  53.6139988  94.5484940  91.0038998  53.2621375
  85.6460012  90.6724997  52.0889988  85.7330012  91.4984997  52.5639988
  84.7820012  90.3424997  52.3379988  85.5411964  90.7409878  52.1876549
  86.0600012  94.4444997  41.8949988  85.9850012  94.3234997  40.9489988
  86.0930012  95.3944997  42.0139988  86.0541848  94.5562500  41.7814834
  79.7130012  93.2334997  43.6759988  79.8660012  92.8854997  44.5549988
  78.8630012  92.8774997  43.4209988  79.6188962  93.1376650  43.7618340
  89.1620012  93.5984997  38.8969988  89.5370012  92.8544997  38.4269988
  89.1660012  93.3284997  39.8159988  89.2138915  93.4601486  38.9567824
  88.8310012  93.5244997  41.6469988  87.8950012  93.6244997  41.8249988
  89.1110012  92.8154997  42.2249988  88.7408255  93.4422711  41.7495391
  91.8190012  82.5914997  53.6929988  91.4120012  83.0724997  52.9719988
  91.8600012  81.6864997  53.3849988  91.7688437  82.5349374  53.5526683
  78.9680012  88.9754997  51.6899988  79.1840012  88.6144997  52.5489988
  78.1130012  88.6014997  51.4799988  78.8819292  88.8754111  51.7793386
  81.5870012  77.4454997  47.6849988  80.7250012  77.3584997  47.2779988
  81.5640012  78.3014997  48.1129988  81.4660330  77.5492765  47.6871863
  86.2500012  77.1674997  51.0599988  86.6700012  76.7524997  51.8129988
  85.3170012  76.9894997  51.1769988  86.1813644  77.0865900  51.1789539
  89.5760012  80.9234997  51.9129988  89.0620012  80.7974997  52.7109988
  89.4210012  81.8354997  51.6689988  89.4846852  81.0296132  51.9892158
  90.3390012  85.7844997  37.6749988  90.3810012  85.5614997  36.7449988
  91.1880012  86.1834997  37.8649988  90.4595396  85.8079155  37.5733627
  81.6780012  82.4114997  48.7799988  81.0360012  82.3704997  49.4889988
  81.7150012  83.3374997  48.5429988  81.5951324  82.5311559  48.8449824
  86.3120012  83.2234997  53.9969988  85.7500012  82.5194997  54.3179988
  87.1390012  83.1034997  54.4649988  86.3467095  83.1107883  54.1042330
  79.4280012  82.7314997  50.6469988  79.3900012  83.1314997  51.5159988
  78.9370012  81.9144997  50.7379988  79.3564684  82.6758069  50.7781059
  87.4790012  84.1324997  49.9949988  87.8020012  83.5014997  49.3519988
  87.0390012  83.5974997  50.6549988  87.4636895  83.9738441  49.9962850
  91.9490012  94.9664997  54.3199988  92.1490012  95.3904997  53.4849988
  92.6040012  95.3094997  54.9269988  92.0650051  95.0709648  54.2877836
  79.5470012  87.4404997  53.9279988  80.2790012  87.6944997  54.4889988
  78.7670012  87.6444997  54.4429988  79.5418232  87.5029177  54.0745760
  85.5760012  82.8474997  46.6659988  86.1410012  82.3004997  46.1189988
  85.4290012  82.3254997  47.4539988  85.6332918  82.7022024  46.6978454
  84.2030012  81.2354997  49.0799988  83.3670012  81.6894997  49.1899988
  84.7270012  81.5114997  49.8319988  84.1594414  81.3349376  49.1967136
  91.8970012  86.5814997  49.5509988  92.5390012  87.0384997  49.0069988
  91.0670012  86.6944997  49.0879988  91.8725963  86.6592704  49.4140177
  86.2660012  87.6324997  52.0009988  85.9210012  87.2514997  52.8079988
  86.0660012  88.5664997  52.0729988  86.1918061  87.7065228  52.1210961
  79.8720012  86.7434997  46.5339988  80.6170012  86.7414997  45.9329988
  79.9500012  85.9204997  47.0159988  79.9845518  86.6319315  46.5168929
  86.8730012  88.9074997  39.7899988  86.5770012  89.7334997  40.1709988
  86.1700012  88.2874997  39.9859988  86.7374914  88.9368199  39.8686443
  76.8800012  85.2044997  51.8489988  77.1030012  84.7864997  52.6809988
  76.2780012  84.5914997  51.4259988  76.8291759  85.0644668  51.9057022
  83.8960012  84.7214997  54.0619988  83.6000012  84.5554997  53.1669988
  84.8280012  84.5014997  54.0509988  83.9814166  84.6690640  53.9380536
  88.5170012  90.0944997  51.9519988  87.6160012  90.2774997  51.6839988
  88.5510012  90.3534997  52.8729988  88.3983041  90.1545512  52.0398197
  94.2110012  88.1394997  53.1559988  93.3600012  88.3774997  52.7889988
  94.8020012  88.1224997  52.4029988  94.1742487  88.1698258  53.0038893
  92.5430012  91.1254997  40.7839988  92.1700012  90.2994997  41.0929988
  92.8210012  90.9424997  39.8869988  92.5295630  90.9877303  40.7049626
  89.7040012  85.9334997  47.8049988  88.7750012  85.7014997  47.7779988
  90.1550012  85.1564997  47.4749988  89.6379216  85.7967238  47.7566917
  82.2470012  90.2614997  43.9379988  82.7740012  91.0344997  43.7379988
  81.3670012  90.4864997  43.6369988  82.2001773  90.3978005  43.8699010
  83.6740012  87.9244997  43.5149988  83.4330012  88.8494997  43.5559988
  82.9330012  87.4654997  43.9109988  83.5408409  87.9891421  43.5741377
  84.1890012  92.0734997  49.8299988  84.5510012  92.9284997  49.5959988
  84.7200012  91.7814997  50.5699988  84.3104473  92.1511060  49.8980855
  82.3570012  92.9464997  43.0599988  81.4070012  93.0514997  43.1109988
  82.7090012  93.7664997  43.4049988  82.2744203  93.0718314  43.1136650
  87.7330012  88.1724997  49.5299988  87.3070012  87.9454997  50.3569988
  88.3130012  87.4344997  49.3479988  87.7531868  88.0415299  49.6185830
  89.9360012  89.1014997  38.6039988  90.2890012  88.7214997  39.4089988
  88.9870012  89.0084997  38.6909988  89.8560441  89.0369596  38.7258559
  90.3910012  92.7244997  51.9999988  89.7900012  92.1694997  51.5039988
  90.6730012  93.3914997  51.3739988  90.3468519  92.7386841  51.8474952
  94.4390012  93.5814997  38.8049988  95.1830012  94.1674997  38.6649988
  93.7450012  94.1494997  39.1389988  94.4470292  93.7385582  38.8309961
  78.5140012  79.9574997  51.4069988  77.6210012  80.2964997  51.3389988
  78.4150012  79.1024997  51.8249988  78.3784164  79.8882588  51.4542235
  90.8020012  87.7744997  40.8309988  90.5240012  87.0464997  41.3869988
  91.7290012  87.8934997  41.0359988  90.8893124  87.6908802  40.9348845
  78.1650012  91.7624997  49.8419988  78.3820012  90.8304997  49.8109988
  78.4110012  92.0364997  50.7249988  78.2279549  91.6720636  49.9571763
  84.0270012  90.2134997  37.0509988  84.2660012  89.4654997  36.5039988
  83.7580012  89.8254997  37.8839988  84.0233675  90.0586638  37.0886865
  82.9640012  89.7834997  39.5079988  83.1100012  89.2634997  40.2979988
  82.9610012  90.6904997  39.8139988  82.9835989  89.8348853  39.6576088
  87.2480012  79.6984997  50.2969988  87.9470012  79.7724997  50.9469988
  86.8670012  78.8344997  50.4509988  87.2921767  79.5917624  50.4068322
  85.7010012  91.4814997  40.2569988  84.8850012  91.9784997  40.3089988
  86.2310012  91.9564997  39.6169988  85.6609161  91.6137722  40.1775956
  85.7680012  82.0644997  51.4139988  85.8870012  82.6384997  52.1709988
  86.4240012  81.3764997  51.5279988  85.8729757  82.0501079  51.5330825
  83.0400012  92.5254997  40.2389988  83.2000012  93.3244997  39.7379988
  82.8420012  92.8314997  41.1239988  83.0351649  92.6764469  40.2899815
  91.9730012  79.9714997  52.2489988  91.0560012  80.2344997  52.1609988
  92.3080012  79.9684997  51.3519988  91.8929900  80.0070224  52.1157919
  90.5750012  83.7224997  46.3439988  89.7770012  83.3074997  46.0159988
  91.0200012  83.0314997  46.8349988  90.5259885  83.5723543  46.3654889
  80.0330012  89.6504997  38.9149988  80.6250012  90.3494997  39.1909988
  80.4920012  89.2174997  38.1949988  80.1761142  89.6877049  38.8554830
  91.6610012  92.9784997  47.9669988  91.5060012  93.6564997  47.3099988
  92.5940012  93.0504997  48.1699988  91.7658500  93.0810170  47.9045119
  78.0870012  91.0364997  42.8639988  77.2550012  91.5094997  42.8919988
  78.6330012  91.5464997  42.2659988  78.0469739  91.1701871  42.7869716
  77.3750012  93.6494997  54.1939988  77.9160012  93.4324997  54.9539988
  76.8940012  92.8434997  54.0049988  77.3839345  93.5109514  54.2723076
  81.9730012  92.5684997  55.8149988  82.7400012  92.1094997  56.1559988
  81.9510012  92.3424997  54.8849988  82.0751434  92.4750409  55.7360043
  86.0650012  92.0764997  37.1899988  85.4210012  91.4454997  37.5109988
  86.8270012  91.5454997  36.9579988  86.0798077  91.9182920  37.2026011
  88.5500012  90.9484997  54.5439988  88.1990012  90.0924997  54.7869988
  89.2760012  91.0914997  55.1509988  88.6000769  90.8505636  54.6593619
  90.6690012  91.8934997  37.4239988  90.9520012  91.0994997  37.8759988
  91.4090012  92.1264997  36.8629988  90.8077486  91.8162803  37.4100698
  83.9380012  87.4294997  54.5809988  83.6090012  87.7004997  53.7239988
  84.0900012  86.4884997  54.4939988  83.9134809  87.3393862  54.4518244
  86.9760012  88.8504997  37.0169988  86.7070012  89.0304997  37.9179988
  86.7700012  87.9244997  36.8859988  86.9113825  88.7500152  37.1225214
  89.6720012  87.3454997  51.9649988  90.4180012  87.9334997  51.8449988
  88.9150012  87.9274997  52.0279988  89.6717554  87.5047011  51.9570907
  82.0620012  83.6684997  51.9429988  81.4440012  84.3434997  52.2229988
  82.4060012  83.9894997  51.1099988  82.0239615  83.8042721  51.8686581
  87.0820012  86.1404997  55.2199988  88.0350012  86.2234997  55.1929988
  86.9210012  85.4284997  55.8399988  87.1906426  86.0556746  55.3000579
  82.4010012  81.0234997  53.0249988  82.5510012  80.2944997  52.4229988
  82.4040012  81.8004997  52.4659988  82.4219302  81.0287851  52.8670692
  82.8140012  79.3934997  50.5179988  83.3500012  79.8444997  49.8659988
  81.9620012  79.2854997  50.0949988  82.7722178  79.4406390  50.3715756
  84.3960012  84.8324997  50.7569988  85.1460012  84.6764997  50.1839988
  84.0570012  85.6844997  50.4819988  84.4528921  84.9262968  50.6413561
  88.8110012  82.6474997  55.7859988  89.0040012  81.7164997  55.6739988
  89.6690012  83.0724997  55.7759988  88.9533020  82.5776389  55.7693361
  90.1280012  85.4364997  53.8629988  89.8470012  86.1454997  53.2859988
  91.0710012  85.3634997  53.7119988  90.2169027  85.5237646  53.7635551
  80.8800012  82.2214997  54.9369988  80.1130012  81.6894997  54.7269988
  81.5590012  81.9114997  54.3369988  80.8667022  82.1067506  54.8271648
  83.6200012  76.8494997  50.9489988  83.5210012  77.7964997  50.8439988
  82.8770012  76.4774997  50.4739988  83.5060564  76.9285902  50.8704560
  84.8840012  81.1714997  54.5129988  84.6480012  80.9514997  55.4149988
  84.1000012  80.9644997  54.0029988  84.7458628  81.1134760  54.5673932
  87.5990012  80.2984997  53.5889988  86.6520012  80.3304997  53.7209988
  87.9120012  79.6734997  54.2419988  87.5115475  80.2183207  53.6954455
  89.2330012  78.9324997  55.5939988  89.1370012  77.9804997  55.5879988
  88.9120012  79.2014997  56.4539988  89.1764070  78.8384035  55.7095441
  79.0600012  80.1424997  54.6409988  79.2720012  79.4354997  54.0309988
  78.9490012  79.7044997  55.4849988  79.0739721  79.9867084  54.6716843
  84.1950012  77.8264997  55.6739988  84.0630012  77.3504997  54.8539988
  83.5960012  78.5704997  55.6189988  84.0959071  77.8619618  55.5542886
  83.7410012  94.7094997  38.8509988  84.6740012  94.8674997  38.9939988
  83.4770012  95.3844997  38.2259988  83.8329510  94.8223611  38.7860741
  77.3100012  89.3454997  38.3329988  78.2240012  89.4244997  38.6069988
  77.3170012  88.6584997  37.6669988  77.4361131  89.2633961  38.2804393
  75.9590012  94.7384997  43.4109988  75.3120012  94.2764997  42.8779988
  76.3130012  94.0664997  43.9929988  75.9183849  94.5844723  43.4167959
  76.8290012  92.8194997  45.2149988  76.4940012  91.9394997  45.3869988
  77.0510012  93.1644997  46.0799988  76.8131783  92.7457500  45.3554208
  94.3770012  93.6284997  48.1959988  94.3560012  93.8134997  49.1349988
  95.0680012  94.1974997  47.8549988  94.4674618  93.7306606  48.2783864
  93.9410012  93.1964997  51.1179988  93.4530012  92.4604997  50.7469988
  94.4900012  92.8024997  51.7959988  93.9484872  93.0426249  51.1589160
  92.3910012  88.9854997  55.7559988  91.5250012  88.8804997  56.1499988
  92.7680012  89.7444997  56.2019988  92.3233308  89.0736900  55.8702393
  93.8460012  88.0804997  48.0409988  94.6790012  87.7024997  47.7609988
  93.9580012  89.0234997  47.9219988  93.9752647  88.1562218  47.9865487
  92.3320012  90.9584997  50.3479988  91.6850012  91.2834997  50.9739988
  91.8150012  90.5184997  49.6739988  92.1734029  90.9435004  50.3425827
  76.9090012  85.8944997  47.6669988  77.0930012  85.8124997  46.7309988
  77.7580012  85.7704997  48.0909988  77.0490139  85.8665003  47.5961455
  92.7300012  85.7864997  53.2949988  93.3130012  85.0524997  53.4869988
  93.2940012  86.5584997  53.3419988  92.8859769  85.7904227  53.3276159
  94.2260012  83.6894997  53.9799988  93.3630012  83.3104997  53.8139988
  94.8310012  82.9504997  53.9059988  94.1895979  83.5378023  53.9472817
  92.1960012  81.9804997  47.5549988  93.1290012  82.1924997  47.5209988
  91.9610012  82.0824997  48.4769988  92.2918036  82.0232769  47.6749976
  92.2250012  82.7174997  50.3309988  91.3820012  82.9854997  50.6969988
  92.6670012  83.5394997  50.1199988  92.1694158  82.8653291  50.3525491
  76.5060012  81.1654997  53.8079988  77.4260012  81.0434997  54.0439988
  76.0570012  80.4154997  54.1969988  76.5711580  81.0473727  53.8929006
  94.5080012  76.6974997  55.6839988  94.8580012  76.0434997  55.0789988
  94.6550012  77.5344997  55.2449988  94.5758419  76.7211591  55.5417118
  94.0280012  78.8064997  54.0339988  93.1100012  79.0774997  53.9979988
  94.1510012  78.2714997  53.2489988  93.9191066  78.7712892  53.9230487
  91.1160012  93.7184997  43.7679988  91.7680012  93.3714997  43.1599988
  91.6260012  94.2074997  44.4139988  91.2742637  93.7370597  43.7720236
  78.5010012  90.6474997  54.3109988  77.6800012  90.8224997  53.8509988
  78.2480012  90.5744997  55.2319988  78.3546164  90.6615622  54.3724923
  81.4550012  91.6224997  50.5699988  81.0300012  92.4314997  50.2869988
  82.3590012  91.7074997  50.2679988  81.5190271  91.7448469  50.4903776
  85.7660012  93.0214997  53.5289988  85.9510012  92.6874997  54.4069988
  86.6120012  93.3304997  53.2069988  85.9057539  93.0176047  53.6055605
  88.1110012  94.3074997  52.7729988  88.7880012  93.6744997  52.5329988
  88.4330012  94.7084997  53.5799988  88.2471637  94.2751154  52.8492793
  93.0280012  76.8964997  51.8529988  92.2160012  77.2214997  51.4649988
  93.2610012  76.1364997  51.3199988  92.9483423  76.8382436  51.7278253
  78.8570012  94.8784997  50.6169988  78.1360012  95.3184997  50.1659988
  78.4910012  94.6274997  51.4659988  78.7089804  94.9047698  50.6699840
  81.3240012  94.4784997  49.6469988  80.4590012  94.5504997  50.0509988
  81.2690012  95.0254997  48.8629988  81.1982085  94.5622685  49.5963362
  86.0340012  94.3664997  48.8219988  85.5780012  94.8954997  48.1679988
  86.1970012  94.9694997  49.5479988  85.9935585  94.5204468  48.8305062
  88.3620012  93.2444997  49.7669988  87.4570012  93.4094997  49.5019988
  88.7910012  94.0974997  49.7019988  88.2960799  93.3824483  49.7219182
  90.9660012  94.8144997  50.0619988  90.7840012  95.7304997  49.8519988
  91.1430012  94.4044997  49.2159988  90.9650210  94.8844822  49.9187885
  78.2710012  93.5014997  47.5269988  78.2530012  93.0764997  48.3849988
  79.0760012  93.1834997  47.1189988  78.3773875  93.4003812  47.5891655
  80.4130012  92.2114997  46.1819988  80.1940012  91.2954997  46.3519988
  81.2370012  92.3514997  46.6479988  80.4944420  92.1050520  46.2682774
  82.9500012  92.6814997  47.0309988  83.1630012  91.7934997  46.7439988
  83.0140012  92.6474997  47.9849988  82.9878232  92.5553102  47.1207397
  77.5220012  92.7254997  40.6989988  76.8370012  92.6874997  40.0309988
  77.5260012  93.6384997  40.9869988  77.4288193  92.8437016  40.6465284
  86.3870012  93.9354997  39.0959988  87.2530012  94.3014997  38.9179988
  86.1400012  93.4954997  38.2819988  86.4722392  93.9261756  38.9616289
  93.0960012  93.4984997  41.7749988  92.9010012  92.7504997  41.2099988
  93.0570012  94.2564997  41.1919988  93.0640380  93.4986099  41.6188384
  78.7430012  77.4934997  53.5149988  78.3770012  76.7284997  53.9579988
  79.6560012  77.5224997  53.8019988  78.8162790  77.3927224  53.6144070
  80.7160012  76.8444997  55.0509988  81.6140012  76.5704997  54.8659988
  80.3290012  76.1014997  55.5149988  80.7866612  76.7065914  55.0883643
  79.3400012  93.6454997  37.7239988  79.0730012  93.9324997  38.5969988
  80.1120012  93.0994997  37.8759988  79.4077488  93.6110294  37.8641050
  89.1370012  76.1764997  55.2329988  89.2140012  75.7504997  56.0869988
  90.0310012  76.1904997  54.8899988  89.2683428  76.1200879  55.3035310
  92.3130012  92.2494997  53.9249988  91.5310012  92.0634997  53.4059988
  92.2410012  93.1784997  54.1429988  92.1961777  92.3496492  53.8834048
 106.7190012  86.1354997  43.9559988 106.8080012  87.0794997  43.8239988
 106.0810012  85.8604997  43.2979988 106.6449081  86.2274830  43.8489614
 105.6520012  85.3904997  47.3749988 105.6140012  84.7444997  48.0799988
 105.3300012  84.9244997  46.6039988 105.6032333  85.2389408  47.3672978
  98.0210012  85.0054997  48.9679988  98.0620012  84.3794997  49.6909988
  98.7240012  85.6294997  49.1499988  98.1216363  85.0041196  49.0916044
 109.3580012  88.3294997  45.6759988 108.9180012  87.6094997  46.1269988
 109.3450012  89.0504997  46.3059988 109.2960226  88.3283731  45.8228494
  98.9440012  89.4554997  47.5029988  98.5750012  88.6534997  47.1329988
  99.8850012  89.2864997  47.5489988  99.0207289  89.3230153  47.4586316
  96.2650012  85.2774997  45.0219988  96.4780012  84.5074997  45.5489988
  97.0030012  85.3664997  44.4179988  96.3938496  85.1841394  45.0125300
 106.4700012  93.4344997  45.8889988 107.0900012  92.7574997  45.6149988
 106.2620012  93.2164997  46.7969988 106.5266904  93.3123870  45.9743365
 104.0420012  87.8234997  47.7809988 104.3460012  87.1374997  47.1859988
 104.7630012  87.9414997  48.3989988 104.1810671  87.7456305  47.7831816
 112.7050012  79.4244997  48.6419988 112.7540012  80.0344997  49.3779988
 113.1300012  79.8854997  47.9189988 112.7691824  79.5703741  48.6450205
 107.1830012  82.2174997  48.1089988 107.3250012  81.2714997  48.1289988
 107.0760012  82.4244997  47.1799988 107.1879864  82.1159534  47.9862339
 100.3370012  80.3184997  45.3809988 100.3810012  81.1784997  44.9629988
  99.8800012  79.7664997  44.7469988 100.2812185  80.3615799  45.2380299
 108.0600012  80.4494997  43.7819988 108.7060012  80.1204997  44.4069988
 108.5700012  80.9674997  43.1589988 108.2174264  80.4744611  43.7833862
  96.9580012  82.7154997  46.1429988  97.6110012  82.1654997  46.5749988
  96.9820012  82.4414997  45.2259988  97.0506683  82.6031466  46.0782123
 102.1140012  84.2654997  45.3579988 102.7300012  83.7394997  45.8679988
 101.5280012  83.6254997  44.9549988 102.1190810  84.1069208  45.3733173
 113.0960012  80.9024997  50.8779988 112.4080012  81.5604997  50.7819988
 113.1120012  80.7054997  51.8139988 113.0038525  80.9660462  50.9914808
  99.1480012  79.2364997  49.4549988  98.9290012  79.7664997  48.6889988
  98.4800012  79.4634997  50.1019988  99.0277600  79.3396906  49.4376379
 106.5170012  88.7364997  42.9989988 106.2210012  88.4144997  42.1479988
 106.1920012  89.6364997  43.0399988 106.4326371  88.8140215  42.8881801
 101.7170012  86.9124997  49.7419988 100.9770012  87.5104997  49.8459988
 102.4310012  87.4664997  49.4269988 101.7122237  87.0692831  49.7136465
 109.8240012  79.7404997  45.7619988 109.6080012  78.9744997  46.2949988
 110.4790012  80.2124997  46.2749988 109.8830632  79.6995889  45.9042861
  98.7410012  81.1284997  47.4069988  99.3550012  81.7614997  47.7809988
  99.2530012  80.6564997  46.7509988  98.8942296  81.1512370  47.3694252
 100.1240012  88.8764997  50.5299988 100.1190012  89.7564997  50.1519988
  99.2710012  88.7934997  50.9549988 100.0079464  88.9856117  50.5357907
 109.8700012  90.1694997  48.0239988 108.9290012  90.2274997  48.1859988
 110.1470012  91.0754997  47.8869988 109.7784679  90.2999443  48.0276815
 110.1710012  78.4554997  49.4419988 109.4350012  79.0664997  49.4039988
 110.8540012  78.8704997  48.9149988 110.1626541  78.5951374  49.3655832
 103.1740012  76.5424997  46.9079988 103.0570012  75.5934997  46.8529988
 102.3190012  76.8744997  47.1809988 103.0423733  76.4575409  46.9373897
 108.1220012  91.9504997  44.6499988 108.5480012  91.2434997  44.1649988
 108.4390012  92.7514997  44.2329988 108.2231019  91.9620994  44.5273130
 109.2820012  89.8514997  43.1579988 109.0240012  89.1614997  42.5469988
 109.3530012  89.4084997  44.0039988 109.2562856  89.6972124  43.1886885
 110.9680012  88.4174997  51.6359988 111.1080012  87.8264997  50.8959988
 111.1350012  89.2904997  51.2789988 111.0096778  88.4546426  51.4866965
 105.4410012  85.3794997  41.4079988 104.7290012  85.9144997  41.0559988
 106.1320012  85.4354997  40.7479988 105.4370132  85.4602543  41.2706289
 105.4940012  83.8374997  38.4469988 106.1950012  83.8594997  39.0979988
 105.7970012  83.2094997  37.7909988 105.6307830  83.7556566  38.4473711
 112.8100012  84.7574997  49.7019988 112.1570012  85.4524997  49.7909988
 113.2750012  84.9674997  48.8919988 112.7835390  84.8809425  49.6046883
 108.8460012  85.5894997  42.3599988 108.1140012  85.8174997  42.9329988
 109.2940012  84.8754997  42.8149988 108.8063095  85.5242571  42.4999119
 108.7440012  83.7634997  51.4269988 108.8240012  84.5264997  51.9989988
 108.1420012  84.0424997  50.7369988 108.6735756  83.9057134  51.4120589
 100.4920012  86.2194997  44.2419988 100.1610012  85.8494997  43.4239988
 101.0800012  85.5494997  44.5889988 100.5261873  86.0781156  44.1768102
 101.8580012  89.6474997  46.9239988 101.7640012  89.0694997  46.1669988
 102.5880012  89.2764997  47.4199988 101.9437981  89.5182390  46.8874165
 100.8580012  84.9884997  47.8759988 101.4240012  85.1094997  47.1129988
 101.1770012  85.6254997  48.5149988 100.9785786  85.0911884  47.8580040
 107.1670012  90.4914997  48.6099988 106.9270012  91.1534997  49.2579988
 106.9690012  89.6574997  49.0349988 107.1073808  90.4693134  48.7561524
 101.7380012  89.3874997  52.5929988 101.4270012  90.1694997  53.0479988
 101.0880012  89.2344997  51.9069988 101.6075558  89.4739105  52.5625871
 107.7170012  84.7514997  40.0449988 108.2970012  84.9014997  40.7919988
 108.1310012  85.2224997  39.3219988 107.8522830  84.8356841  40.0494134
  98.6580012  85.5854997  51.8219988  98.7290012  86.2364997  52.5199988
  97.7680012  85.6884997  51.4869988  98.5473117  85.6885936  51.8722700
 105.4440012  91.4884997  43.4799988 105.9180012  91.7834997  44.2579988
 104.8810012  92.2264997  43.2469988 105.4327653  91.6286932  43.5550136
  99.9780012  91.4594997  53.3559988  99.9850012  91.3234997  52.4089988
  99.0620012  91.3414997  53.6079988  99.8551714  91.4249430  53.2604666
 111.4160012  76.5014997  39.8579988 110.5160012  76.6404997  40.1529988
 111.6680012  77.3324997  39.4559988 111.3268702  76.6329074  39.8440205
  99.4820012  85.2894997  41.8319988  99.1900012  86.0574997  41.3409988
  98.8080012  84.6294997  41.6689988  99.3509081  85.3054406  41.7427339
 112.6050012  90.8674997  38.2339988 112.6790012  91.8064997  38.4049988
 113.5110012  90.5624997  38.1779988 112.7375100  90.9546722  38.2498119
  95.5750012  87.6524997  50.6469988  95.0740012  87.6244997  49.8319988
  95.5800012  86.7464997  50.9559988  95.5071526  87.5262278  50.5772872
  95.3250012  90.4324997  47.5309988  96.2710012  90.2884997  47.5119988
  95.2130012  91.2164997  48.0679988  95.4392727  90.5188046  47.6010072
 113.5230012  91.0984997  53.2129988 113.4740012  90.1434997  53.1759988
 112.6960012  91.3664997  53.6139988 113.4044940  91.0038998  53.2621375
 104.5020012  90.6724997  52.0889988 104.5890012  91.4984997  52.5639988
 103.6380012  90.3424997  52.3379988 104.3971964  90.7409878  52.1876549
 104.9160012  94.4444997  41.8949988 104.8410012  94.3234997  40.9489988
 104.9490012  95.3944997  42.0139988 104.9101848  94.5562500  41.7814834
  98.5690012  93.2334997  43.6759988  98.7220012  92.8854997  44.5549988
  97.7190012  92.8774997  43.4209988  98.4748962  93.1376650  43.7618340
 108.0180012  93.5984997  38.8969988 108.3930012  92.8544997  38.4269988
 108.0220012  93.3284997  39.8159988 108.0698915  93.4601486  38.9567824
 107.6870012  93.5244997  41.6469988 106.7510012  93.6244997  41.8249988
 107.9670012  92.8154997  42.2249988 107.5968255  93.4422711  41.7495391
 110.6750012  82.5914997  53.6929988 110.2680012  83.0724997  52.9719988
 110.7160012  81.6864997  53.3849988 110.6248437  82.5349374  53.5526683
  97.8240012  88.9754997  51.6899988  98.0400012  88.6144997  52.5489988
  96.9690012  88.6014997  51.4799988  97.7379292  88.8754111  51.7793386
 100.4430012  77.4454997  47.6849988  99.5810012  77.3584997  47.2779988
 100.4200012  78.3014997  48.1129988 100.3220330  77.5492765  47.6871863
 105.1060012  77.1674997  51.0599988 105.5260012  76.7524997  51.8129988
 104.1730012  76.9894997  51.1769988 105.0373644  77.0865900  51.1789539
 108.4320012  80.9234997  51.9129988 107.9180012  80.7974997  52.7109988
 108.2770012  81.8354997  51.6689988 108.3406852  81.0296132  51.9892158
 109.1950012  85.7844997  37.6749988 109.2370012  85.5614997  36.7449988
 110.0440012  86.1834997  37.8649988 109.3155396  85.8079155  37.5733627
 104.7670012  79.6604997  38.3449988 104.5140012  79.6794997  39.2679988
 104.5110012  78.7884997  38.0439988 104.6977790  79.5452437  38.4306263
 100.5340012  82.4114997  48.7799988  99.8920012  82.3704997  49.4889988
 100.5710012  83.3374997  48.5429988 100.4511324  82.5311559  48.8449824
 100.5310012  82.6324997  43.6919988  99.6380012  82.2914997  43.6339988
 100.9810012  82.2554997  42.9369988 100.4697305  82.5348484  43.5819177
 106.0660012  83.0484997  42.5089988 105.6570012  83.8634997  42.2179988
 106.7870012  82.9084997  41.8949988 106.1074537  83.1412018  42.3861342
 105.1680012  83.2234997  53.9969988 104.6060012  82.5194997  54.3179988
 105.9950012  83.1034997  54.4649988 105.2027095  83.1107883  54.1042330
 107.0710012  82.4944997  45.3229988 106.8760012  83.0994997  44.6079988
 107.2520012  81.6604997  44.8889988 107.0687614  82.4646300  45.1664405
  98.2840012  82.7314997  50.6469988  98.2460012  83.1314997  51.5159988
  97.7930012  81.9144997  50.7379988  98.2124684  82.6758069  50.7781059
 101.6500012  80.1054997  37.4459988 101.2190012  79.6604997  38.1759988
 100.9320012  80.4774997  36.9339988 101.4939438  80.0948940  37.4766799
 106.3350012  84.1324997  49.9949988 106.6580012  83.5014997  49.3519988
 105.8950012  83.5974997  50.6549988 106.3196895  83.9738441  49.9962850
 103.1120012  80.0594997  44.7789988 102.2010012  80.1164997  45.0669988
 103.6180012  79.9994997  45.5889988 103.0555413  80.0591985  44.9280622
 101.5940012  81.6884997  41.2619988 102.5250012  81.8174997  41.4399988
 101.3790012  82.3584997  40.6119988 101.6924247  81.7966565  41.1985747
 107.5170012  79.2944997  48.0429988 106.8410012  79.4254997  48.7069988
 107.0320012  79.1394997  47.2329988 107.3587145  79.2914905  48.0244517
 100.2680012  82.8834997  38.8289988  99.7250012  82.5034997  38.1369988
 101.1010012  83.0774997  38.3999988 100.3064399  82.8578124  38.6764526
 110.8050012  94.9664997  54.3199988 111.0050012  95.3904997  53.4849988
 111.4600012  95.3094997  54.9269988 110.9210051  95.0709648  54.2877836
  98.4030012  87.4404997  53.9279988  99.1350012  87.6944997  54.4889988
  97.6230012  87.6444997  54.4429988  98.3978232  87.5029177  54.0745760
 104.4320012  82.8474997  46.6659988 104.9970012  82.3004997  46.1189988
 104.2850012  82.3254997  47.4539988 104.4892918  82.7022024  46.6978454
  99.4340012  78.9834997  43.0839988  99.1170012  78.0814997  43.0489988
 100.2160012  78.9854997  42.5309988  99.4962284  78.8601628  43.0044783
 103.0590012  81.2354997  49.0799988 102.2230012  81.6894997  49.1899988
 103.5830012  81.5114997  49.8319988 103.0154414  81.3349376  49.1967136
 103.6030012  87.4484997  40.7639988 102.8580012  86.9414997  40.4419988
 103.4690012  87.4974997  41.7109988 103.4828776  87.3856940  40.8478647
 110.7530012  86.5814997  49.5509988 111.3950012  87.0384997  49.0069988
 109.9230012  86.6944997  49.0879988 110.7285963  86.6592704  49.4140177
 107.5010012  80.2624997  38.9639988 106.5620012  80.3744997  38.8119988
 107.7980012  81.1194997  39.2699988 107.4127666  80.3936443  38.9845768
 105.1220012  87.6324997  52.0009988 104.7770012  87.2514997  52.8079988
 104.9220012  88.5664997  52.0729988 105.0478061  87.7065228  52.1210961
 108.2190012  82.1294997  40.6239988 109.1110012  81.9924997  40.9429988
 108.2760012  82.9204997  40.0879988 108.3486285  82.2176660  40.5951690
  98.7280012  86.7434997  46.5339988  99.4730012  86.7414997  45.9329988
  98.8060012  85.9204997  47.0159988  98.8405518  86.6319315  46.5168929
 105.7290012  88.9074997  39.7899988 105.4330012  89.7334997  40.1709988
 105.0260012  88.2874997  39.9859988 105.5934914  88.9368199  39.8686443
  95.7360012  85.2044997  51.8489988  95.9590012  84.7864997  52.6809988
  95.1340012  84.5914997  51.4259988  95.6851759  85.0644668  51.9057022
 102.7520012  84.7214997  54.0619988 102.4560012  84.5554997  53.1669988
 103.6840012  84.5014997  54.0509988 102.8374166  84.6690640  53.9380536
 107.3730012  90.0944997  51.9519988 106.4720012  90.2774997  51.6839988
 107.4070012  90.3534997  52.8729988 107.2543041  90.1545512  52.0398197
 113.1040012  82.3394997  40.3189988 112.5500012  81.9434997  39.6469988
 113.2040012  83.2494997  40.0409988 113.0417059  82.4083586  40.1894401
 113.0670012  88.1394997  53.1559988 112.2160012  88.3774997  52.7889988
 113.6580012  88.1224997  52.4029988 113.0302487  88.1698258  53.0038893
 111.3990012  91.1254997  40.7839988 111.0260012  90.2994997  41.0929988
 111.6770012  90.9424997  39.8869988 111.3855630  90.9877303  40.7049626
 108.5600012  85.9334997  47.8049988 107.6310012  85.7014997  47.7779988
 109.0110012  85.1564997  47.4749988 108.4939216  85.7967238  47.7566917
 101.1030012  90.2614997  43.9379988 101.6300012  91.0344997  43.7379988
 100.2230012  90.4864997  43.6369988 101.0561773  90.3978005  43.8699010
 102.5300012  87.9244997  43.5149988 102.2890012  88.8494997  43.5559988
 101.7890012  87.4654997  43.9109988 102.3968409  87.9891421  43.5741377
 103.0450012  92.0734997  49.8299988 103.4070012  92.9284997  49.5959988
 103.5760012  91.7814997  50.5699988 103.1664473  92.1511060  49.8980855
 101.2130012  92.9464997  43.0599988 100.2630012  93.0514997  43.1109988
 101.5650012  93.7664997  43.4049988 101.1304203  93.0718314  43.1136650
 106.5890012  88.1724997  49.5299988 106.1630012  87.9454997  50.3569988
 107.1690012  87.4344997  49.3479988 106.6091868  88.0415299  49.6185830
 108.7920012  89.1014997  38.6039988 109.1450012  88.7214997  39.4089988
 107.8430012  89.0084997  38.6909988 108.7120441  89.0369596  38.7258559
 109.2470012  92.7244997  51.9999988 108.6460012  92.1694997  51.5039988
 109.5290012  93.3914997  51.3739988 109.2028519  92.7386841  51.8474952
 113.2950012  93.5814997  38.8049988 114.0390012  94.1674997  38.6649988
 112.6010012  94.1494997  39.1389988 113.3030292  93.7385582  38.8309961
  97.3700012  79.9574997  51.4069988  96.4770012  80.2964997  51.3389988
  97.2710012  79.1024997  51.8249988  97.2344164  79.8882588  51.4542235
 109.6580012  87.7744997  40.8309988 109.3800012  87.0464997  41.3869988
 110.5850012  87.8934997  41.0359988 109.7453124  87.6908802  40.9348845
  97.0210012  91.7624997  49.8419988  97.2380012  90.8304997  49.8109988
  97.2670012  92.0364997  50.7249988  97.0839549  91.6720636  49.9571763
 102.8830012  90.2134997  37.0509988 103.1220012  89.4654997  36.5039988
 102.6140012  89.8254997  37.8839988 102.8793675  90.0586638  37.0886865
 101.8200012  89.7834997  39.5079988 101.9660012  89.2634997  40.2979988
 101.8170012  90.6904997  39.8139988 101.8395989  89.8348853  39.6576088
  98.2730012  87.0364997  40.0179988  97.5870012  87.3884997  40.5849988
  98.7950012  87.7994997  39.7709988  98.2496852  87.1878578  40.0622118
 106.1040012  79.6984997  50.2969988 106.8030012  79.7724997  50.9469988
 105.7230012  78.8344997  50.4509988 106.1481767  79.5917624  50.4068322
 106.8890012  79.3504997  41.3939988 107.1090012  79.8224997  40.5909988
 107.4470012  79.7454997  42.0639988 106.9944968  79.4684285  41.3747331
 104.5570012  91.4814997  40.2569988 103.7410012  91.9784997  40.3089988
 105.0870012  91.9564997  39.6169988 104.5169161  91.6137722  40.1775956
 104.0890012  81.0784997  42.2289988 104.9010012  81.5834997  42.2749988
 103.8440012  80.9334997  43.1429988 104.1670520  81.1280375  42.3588517
 104.6240012  82.0644997  51.4139988 104.7430012  82.6384997  52.1709988
 105.2800012  81.3764997  51.5279988 104.7289757  82.0501079  51.5330825
 104.9720012  78.1594997  43.1669988 104.6260012  78.7774997  43.8119988
 105.6310012  78.6604997  42.6859988 105.0137826  78.3115802  43.1900971
 101.8960012  92.5254997  40.2389988 102.0560012  93.3244997  39.7379988
 101.6980012  92.8314997  41.1239988 101.8911649  92.6764469  40.2899815
 110.8290012  79.9714997  52.2489988 109.9120012  80.2344997  52.1609988
 111.1640012  79.9684997  51.3519988 110.7489900  80.0070224  52.1157919
 109.4310012  83.7224997  46.3439988 108.6330012  83.3074997  46.0159988
 109.8760012  83.0314997  46.8349988 109.3819885  83.5723543  46.3654889
  98.8890012  89.6504997  38.9149988  99.4810012  90.3494997  39.1909988
  99.3480012  89.2174997  38.1949988  99.0321142  89.6877049  38.8554830
 110.5170012  92.9784997  47.9669988 110.3620012  93.6564997  47.3099988
 111.4500012  93.0504997  48.1699988 110.6218500  93.0810170  47.9045119
  98.0130012  77.0964997  46.7039988  97.7840012  77.1554997  45.7759988
  97.5700012  76.3044997  47.0099988  97.9218530  76.9975753  46.6184786
  96.9430012  91.0364997  42.8639988  96.1110012  91.5094997  42.8919988
  97.4890012  91.5464997  42.2659988  96.9029739  91.1701871  42.7869716
  96.2310012  93.6494997  54.1939988  96.7720012  93.4324997  54.9539988
  95.7500012  92.8434997  54.0049988  96.2399345  93.5109514  54.2723076
 100.8290012  92.5684997  55.8149988 101.5960012  92.1094997  56.1559988
 100.8070012  92.3424997  54.8849988 100.9311434  92.4750409  55.7360043
 104.9210012  92.0764997  37.1899988 104.2770012  91.4454997  37.5109988
 105.6830012  91.5454997  36.9579988 104.9358077  91.9182920  37.2026011
 107.4060012  90.9484997  54.5439988 107.0550012  90.0924997  54.7869988
 108.1320012  91.0914997  55.1509988 107.4560769  90.8505636  54.6593619
 109.5250012  91.8934997  37.4239988 109.8080012  91.0994997  37.8759988
 110.2650012  92.1264997  36.8629988 109.6637486  91.8162803  37.4100698
  96.1380012  87.4594997  55.1489988  96.2820012  86.5574997  54.8619988
  95.3660012  87.7454997  54.6609988  96.0533322  87.3748261  55.0437881
 100.4800012  87.8034997  37.2809988 100.5440012  87.0094997  37.8119988
 101.1330012  87.6844997  36.5909988 100.5770241  87.6787148  37.2604317
 102.7940012  87.4294997  54.5809988 102.4650012  87.7004997  53.7239988
 102.9460012  86.4884997  54.4939988 102.7694809  87.3393862  54.4518244
 105.8320012  88.8504997  37.0169988 105.5630012  89.0304997  37.9179988
 105.6260012  87.9244997  36.8859988 105.7673825  88.7500152  37.1225214
 108.5280012  87.3454997  51.9649988 109.2740012  87.9334997  51.8449988
 107.7710012  87.9274997  52.0279988 108.5277554  87.5047011  51.9570907
  96.9710012  84.6594997  54.5689988  97.3790012  83.8024997  54.4479988
  96.7110012  84.6744997  55.4899988  96.9917568  84.5440807  54.6769588
 101.6290012  85.7754997  39.5869988 101.1690012  85.2914997  40.2729988
 101.8840012  85.1074997  38.9509988 101.6004902  85.6188731  39.5949334
 100.9180012  83.6684997  51.9429988 100.3000012  84.3434997  52.2229988
 101.2620012  83.9894997  51.1099988 100.8799615  83.8042721  51.8686581
 102.7000012  84.0184997  37.8489988 102.5200012  83.8644997  36.9219988
 103.6500012  84.1264997  37.8939988 102.8037776  84.0120175  37.7281843
 105.9380012  86.1404997  55.2199988 106.8910012  86.2234997  55.1929988
 105.7770012  85.4284997  55.8399988 106.0466426  86.0556746  55.3000579
 112.0900012  86.3734997  37.2949988 111.8160012  85.9484997  36.4819988
 112.1290012  87.3044997  37.0779988 112.0577699  86.4412484  37.1543610
 101.2570012  81.0234997  53.0249988 101.4070012  80.2944997  52.4229988
 101.2600012  81.8004997  52.4659988 101.2779302  81.0287851  52.8670692
 101.6700012  79.3934997  50.5179988 102.2060012  79.8444997  49.8659988
 100.8180012  79.2854997  50.0949988 101.6282178  79.4406390  50.3715756
 103.2520012  84.8324997  50.7569988 104.0020012  84.6764997  50.1839988
 102.9130012  85.6844997  50.4819988 103.3088921  84.9262968  50.6413561
 107.6670012  82.6474997  55.7859988 107.8600012  81.7164997  55.6739988
 108.5250012  83.0724997  55.7759988 107.8093020  82.5776389  55.7693361
 108.9840012  85.4364997  53.8629988 108.7030012  86.1454997  53.2859988
 109.9270012  85.3634997  53.7119988 109.0729027  85.5237646  53.7635551
  99.7360012  82.2214997  54.9369988  98.9690012  81.6894997  54.7269988
 100.4150012  81.9114997  54.3369988  99.7227022  82.1067506  54.8271648
 102.4760012  76.8494997  50.9489988 102.3770012  77.7964997  50.8439988
 101.7330012  76.4774997  50.4739988 102.3620564  76.9285902  50.8704560
 103.7400012  81.1714997  54.5129988 103.5040012  80.9514997  55.4149988
 102.9560012  80.9644997  54.0029988 103.6018628  81.1134760  54.5673932
 106.4550012  80.2984997  53.5889988 105.5080012  80.3304997  53.7209988
 106.7680012  79.6734997  54.2419988 106.3675475  80.2183207  53.6954455
 108.0890012  78.9324997  55.5939988 107.9930012  77.9804997  55.5879988
 107.7680012  79.2014997  56.4539988 108.0324070  78.8384035  55.7095441
  97.9160012  80.1424997  54.6409988  98.1280012  79.4354997  54.0309988
  97.8050012  79.7044997  55.4849988  97.9299721  79.9867084  54.6716843
 102.6970012  76.1434997  53.6209988 103.4090012  75.5034997  53.6069988
 102.5960012  76.4104997  52.7069988 102.7807939  76.0919938  53.4955650
 103.0510012  77.8264997  55.6739988 102.9190012  77.3504997  54.8539988
 102.4520012  78.5704997  55.6189988 102.9519071  77.8619618  55.5542886
 102.5970012  94.7094997  38.8509988 103.5300012  94.8674997  38.9939988
 102.3330012  95.3844997  38.2259988 102.6889510  94.8223611  38.7860741
  96.1660012  89.3454997  38.3329988  97.0800012  89.4244997  38.6069988
  96.1730012  88.6584997  37.6669988  96.2921131  89.2633961  38.2804393
  94.8150012  94.7384997  43.4109988  94.1680012  94.2764997  42.8779988
  95.1690012  94.0664997  43.9929988  94.7743849  94.5844723  43.4167959
  95.6850012  92.8194997  45.2149988  95.3500012  91.9394997  45.3869988
  95.9070012  93.1644997  46.0799988  95.6691783  92.7457500  45.3554208
 113.2330012  93.6284997  48.1959988 113.2120012  93.8134997  49.1349988
 113.9240012  94.1974997  47.8549988 113.3234618  93.7306606  48.2783864
 112.7970012  93.1964997  51.1179988 112.3090012  92.4604997  50.7469988
 113.3460012  92.8024997  51.7959988 112.8044872  93.0426249  51.1589160
 111.2470012  88.9854997  55.7559988 110.3810012  88.8804997  56.1499988
 111.6240012  89.7444997  56.2019988 111.1793308  89.0736900  55.8702393
 112.5480012  87.2424997  41.2699988 113.3980012  87.6634997  41.3969988
 112.5540012  86.5024997  41.8769988 112.6651372  87.2000803  41.3694344
 112.9430012  85.2954997  43.0939988 112.2160012  84.8164997  43.4909988
 113.5240012  85.5014997  43.8259988 112.9219375  85.2577090  43.2474129
 112.7020012  88.0804997  48.0409988 113.5350012  87.7024997  47.7609988
 112.8140012  89.0234997  47.9219988 112.8312647  88.1562218  47.9865487
 111.1880012  90.9584997  50.3479988 110.5410012  91.2834997  50.9739988
 110.6710012  90.5184997  49.6739988 111.0294029  90.9435004  50.3425827
 113.2110012  85.1964997  39.4849988 112.6890012  85.5534997  38.7659988
 113.1780012  85.8714997  40.1629988 113.1351634  85.3365413  39.4783145
 111.5600012  82.4364997  38.0359988 111.6560012  83.1034997  37.3549988
 111.4200012  81.6204997  37.5539988 111.5542135  82.4174500  37.8778491
 110.7290012  83.8164997  43.6569988 110.5790012  82.8714997  43.6359988
 110.3760012  84.0974997  44.4999988 110.6606625  83.7250441  43.7682346
  95.7650012  85.8944997  47.6669988  95.9490012  85.8124997  46.7309988
  96.6140012  85.7704997  48.0909988  95.9050139  85.8665003  47.5961455
 111.5860012  85.7864997  53.2949988 112.1690012  85.0524997  53.4869988
 112.1500012  86.5584997  53.3419988 111.7419769  85.7904227  53.3276159
 113.0820012  83.6894997  53.9799988 112.2190012  83.3104997  53.8139988
 113.6870012  82.9504997  53.9059988 113.0455979  83.5378023  53.9472817
 110.8070012  79.8444997  37.1529988 111.4180012  79.4734997  37.7899988
 109.9710012  79.4234997  37.3489988 110.7775032  79.7367554  37.2667035
 110.4400012  81.3994997  42.1189988 110.7200012  80.4924997  42.2429988
 111.1990012  81.8334997  41.7299988 110.5809277  81.3340942  42.0833682
 111.0520012  81.9804997  47.5549988 111.9850012  82.1924997  47.5209988
 110.8170012  82.0824997  48.4769988 111.1478036  82.0232769  47.6749976
 111.0810012  82.7174997  50.3309988 110.2380012  82.9854997  50.6969988
 111.5230012  83.5394997  50.1199988 111.0254158  82.8653291  50.3525491
  95.3620012  81.1654997  53.8079988  96.2820012  81.0434997  54.0439988
  94.9130012  80.4154997  54.1969988  95.4271580  81.0473727  53.8929006
 113.3640012  76.6974997  55.6839988 113.7140012  76.0434997  55.0789988
 113.5110012  77.5344997  55.2449988 113.4318419  76.7211591  55.5417118
 111.0530012  78.6624997  42.1669988 111.2360012  78.2134997  42.9929988
 110.4540012  78.0774997  41.7039988 110.9970202  78.5219975  42.2173275
  96.5830012  79.4774997  46.6989988  97.0290012  78.6854997  47.0009988
  97.0500012  80.1934997  47.1299988  96.7070172  79.4660624  46.7984820
  94.8870012  82.4764997  47.7679988  95.3790012  82.2554997  46.9769988
  95.2500012  83.3174997  48.0489988  95.0033126  82.5598357  47.6977531
 112.8840012  78.8064997  54.0339988 111.9660012  79.0774997  53.9979988
 113.0070012  78.2714997  53.2489988 112.7751066  78.7712892  53.9230487
 112.9200012  78.7294997  38.6949988 113.3320012  78.0084997  38.2199988
 113.6020012  79.3994997  38.7539988 113.0685885  78.7212368  38.6378915
 109.9720012  93.7184997  43.7679988 110.6240012  93.3714997  43.1599988
 110.4820012  94.2074997  44.4139988 110.1302637  93.7370597  43.7720236
  95.1650012  77.4724997  50.1669988  94.5000012  77.2264997  50.8099988
  94.7220012  78.0944997  49.5889988  95.0140956  77.5228632  50.1769352
  97.3570012  90.6474997  54.3109988  96.5360012  90.8224997  53.8509988
  97.1040012  90.5744997  55.2319988  97.2106164  90.6615622  54.3724923
 100.3110012  91.6224997  50.5699988  99.8860012  92.4314997  50.2869988
 101.2150012  91.7074997  50.2679988 100.3750271  91.7448469  50.4903776
 104.6220012  93.0214997  53.5289988 104.8070012  92.6874997  54.4069988
 105.4680012  93.3304997  53.2069988 104.7617539  93.0176047  53.6055605
 106.9670012  94.3074997  52.7729988 107.6440012  93.6744997  52.5329988
 107.2890012  94.7084997  53.5799988 107.1031637  94.2751154  52.8492793
 111.8840012  76.8964997  51.8529988 111.0720012  77.2214997  51.4649988
 112.1170012  76.1364997  51.3199988 111.8043423  76.8382436  51.7278253
  97.7130012  94.8784997  50.6169988  96.9920012  95.3184997  50.1659988
  97.3470012  94.6274997  51.4659988  97.5649804  94.9047698  50.6699840
 100.1800012  94.4784997  49.6469988  99.3150012  94.5504997  50.0509988
 100.1250012  95.0254997  48.8629988 100.0542085  94.5622685  49.5963362
 104.8900012  94.3664997  48.8219988 104.4340012  94.8954997  48.1679988
 105.0530012  94.9694997  49.5479988 104.8495585  94.5204468  48.8305062
 107.2180012  93.2444997  49.7669988 106.3130012  93.4094997  49.5019988
 107.6470012  94.0974997  49.7019988 107.1520799  93.3824483  49.7219182
 109.8220012  94.8144997  50.0619988 109.6400012  95.7304997  49.8519988
 109.9990012  94.4044997  49.2159988 109.8210210  94.8844822  49.9187885
  97.1270012  93.5014997  47.5269988  97.1090012  93.0764997  48.3849988
  97.9320012  93.1834997  47.1189988  97.2333875  93.4003812  47.5891655
  99.2690012  92.2114997  46.1819988  99.0500012  91.2954997  46.3519988
 100.0930012  92.3514997  46.6479988  99.3504420  92.1050520  46.2682774
 101.8060012  92.6814997  47.0309988 102.0190012  91.7934997  46.7439988
 101.8700012  92.6474997  47.9849988 101.8438232  92.5553102  47.1207397
 105.3140012  78.3454997  46.1749988 104.6400012  77.7164997  46.4309988
 105.8780012  77.8614997  45.5719988 105.2979230  78.1938744  46.1285340
 110.4570012  76.4534997  46.2879988 111.0610012  77.0004997  45.7859988
 109.5870012  76.7724997  46.0479988 110.4221241  76.5715806  46.1867654
 112.1840012  77.5914997  44.6209988 112.7960012  77.0774997  44.0949988
 112.5660012  78.4694997  44.6449988 112.3194540  77.6397140  44.5521830
  97.6410012  76.9794997  43.9969988  96.8640012  76.7454997  43.4899988
  98.1710012  76.1824997  44.0059988  97.6062330  76.8396988  43.9287742
 102.2200012  76.9064997  43.8109988 103.0950012  77.2944997  43.7809988
 102.0840012  76.6914997  44.7329988 102.3213695  76.9305184  43.9316440
 107.7770012  76.9364997  45.4599988 107.8530012  77.0314997  44.5099988
 107.5020012  76.0284997  45.5889988 107.7502321  76.8267867  45.3475079
 109.1300012  76.9624997  41.1519988 108.4280012  77.5774997  40.9429988
 108.6860012  76.1244997  41.2829988 108.9736330  76.9335783  41.1410328
  96.3780012  92.7254997  40.6989988  95.6930012  92.6874997  40.0309988
  96.3820012  93.6384997  40.9869988  96.2848193  92.8437016  40.6465284
 105.2430012  93.9354997  39.0959988 106.1090012  94.3014997  38.9179988
 104.9960012  93.4954997  38.2819988 105.3282392  93.9261756  38.9616289
 111.9520012  93.4984997  41.7749988 111.7570012  92.7504997  41.2099988
 111.9130012  94.2564997  41.1919988 111.9200380  93.4986099  41.6188384
  97.5990012  77.4934997  53.5149988  97.2330012  76.7284997  53.9579988
  98.5120012  77.5224997  53.8019988  97.6722790  77.3927224  53.6144070
  99.5720012  76.8444997  55.0509988 100.4700012  76.5704997  54.8659988
  99.1850012  76.1014997  55.5149988  99.6426612  76.7065914  55.0883643
  98.1960012  93.6454997  37.7239988  97.9290012  93.9324997  38.5969988
  98.9680012  93.0994997  37.8759988  98.2637488  93.6110294  37.8641050
 107.9930012  76.1764997  55.2329988 108.0700012  75.7504997  56.0869988
 108.8870012  76.1904997  54.8899988 108.1243428  76.1200879  55.3035310
 111.1690012  92.2494997  53.9249988 110.3870012  92.0634997  53.4059988
 111.0970012  93.1784997  54.1429988 111.0521777  92.3496492  53.8834048
 125.5750012  86.1354997  43.9559988 125.6640012  87.0794997  43.8239988
 124.9370012  85.8604997  43.2979988 125.5009081  86.2274830  43.8489614
 124.5080012  85.3904997  47.3749988 124.4700012  84.7444997  48.0799988
 124.1860012  84.9244997  46.6039988 124.4592333  85.2389408  47.3672978
 116.8770012  85.0054997  48.9679988 116.9180012  84.3794997  49.6909988
 117.5800012  85.6294997  49.1499988 116.9776363  85.0041196  49.0916044
 128.2140012  88.3294997  45.6759988 127.7740012  87.6094997  46.1269988
 128.2010012  89.0504997  46.3059988 128.1520226  88.3283731  45.8228494
 117.8000012  89.4554997  47.5029988 117.4310012  88.6534997  47.1329988
 118.7410012  89.2864997  47.5489988 117.8767289  89.3230153  47.4586316
 114.4100012  83.1154997  42.8959988 113.9630012  83.9614997  42.8769988
 113.8490012  82.5354997  42.3799988 114.2729900  83.1529916  42.8236801
 115.1210012  85.2774997  45.0219988 115.3340012  84.5074997  45.5489988
 115.8590012  85.3664997  44.4179988 115.2498496  85.1841394  45.0125300
 125.3260012  93.4344997  45.8889988 125.9460012  92.7574997  45.6149988
 125.1180012  93.2164997  46.7969988 125.3826904  93.3123870  45.9743365
 122.8980012  87.8234997  47.7809988 123.2020012  87.1374997  47.1859988
 123.6190012  87.9414997  48.3989988 123.0370671  87.7456304  47.7831816
 131.5610012  79.4244997  48.6419988 131.6100012  80.0344997  49.3779988
 131.9860012  79.8854997  47.9189988 131.6251824  79.5703741  48.6450205
 126.0390012  82.2174997  48.1089988 126.1810012  81.2714997  48.1289988
 125.9320012  82.4244997  47.1799988 126.0439864  82.1159534  47.9862339
 119.1930012  80.3184997  45.3809988 119.2370012  81.1784997  44.9629988
 118.7360012  79.7664997  44.7469988 119.1372185  80.3615799  45.2380299
 126.9160012  80.4494997  43.7819988 127.5620012  80.1204997  44.4069988
 127.4260012  80.9674997  43.1589988 127.0734264  80.4744611  43.7833862
 115.8140012  82.7154997  46.1429988 116.4670012  82.1654997  46.5749988
 115.8380012  82.4414997  45.2259988 115.9066683  82.6031466  46.0782123
 120.9700012  84.2654997  45.3579988 121.5860012  83.7394997  45.8679988
 120.3840012  83.6254997  44.9549988 120.9750810  84.1069208  45.3733173
 131.9520012  80.9024997  50.8779988 131.2640012  81.5604997  50.7819988
 131.9680012  80.7054997  51.8139988 131.8598525  80.9660462  50.9914808
 118.0040012  79.2364997  49.4549988 117.7850012  79.7664997  48.6889988
 117.3360012  79.4634997  50.1019988 117.8837600  79.3396906  49.4376379
 125.3730012  88.7364997  42.9989988 125.0770012  88.4144997  42.1479988
 125.0480012  89.6364997  43.0399988 125.2886371  88.8140215  42.8881801
 120.5730012  86.9124997  49.7419988 119.8330012  87.5104997  49.8459988
 121.2870012  87.4664997  49.4269988 120.5682237  87.0692831  49.7136465
 128.6800012  79.7404997  45.7619988 128.4640012  78.9744997  46.2949988
 129.3350012  80.2124997  46.2749988 128.7390632  79.6995889  45.9042861
 117.5970012  81.1284997  47.4069988 118.2110012  81.7614997  47.7809988
 118.1090012  80.6564997  46.7509988 117.7502296  81.1512370  47.3694252
 118.9800012  88.8764997  50.5299988 118.9750012  89.7564997  50.1519988
 118.1270012  88.7934997  50.9549988 118.8639464  88.9856117  50.5357907
 115.1010012  88.5474997  41.3119988 114.8290012  88.7764997  40.4229988
 115.1470012  89.3854997  41.7719988 115.0700094  88.6921213  41.2525697
 128.7260012  90.1694997  48.0239988 127.7850012  90.2274997  48.1859988
 129.0030012  91.0754997  47.8869988 128.6344679  90.2999443  48.0276815
 129.0270012  78.4554997  49.4419988 128.2910012  79.0664997  49.4039988
 129.7100012  78.8704997  48.9149988 129.0186541  78.5951374  49.3655832
 122.0300012  76.5424997  46.9079988 121.9130012  75.5934997  46.8529988
 121.1750012  76.8744997  47.1809988 121.8983733  76.4575409  46.9373897
 126.9780012  91.9504997  44.6499988 127.4040012  91.2434997  44.1649988
 127.2950012  92.7514997  44.2329988 127.0791019  91.9620994  44.5273130
 128.1380012  89.8514997  43.1579988 127.8800012  89.1614997  42.5469988
 128.2090012  89.4084997  44.0039988 128.1122856  89.6972124  43.1886885
 129.8240012  88.4174997  51.6359988 129.9640012  87.8264997  50.8959988
 129.9910012  89.2904997  51.2789988 129.8656778  88.4546426  51.4866965
 124.2970012  85.3794997  41.4079988 123.5850012  85.9144997  41.0559988
 124.9880012  85.4354997  40.7479988 124.2930132  85.4602543  41.2706289
 124.3500012  83.8374997  38.4469988 125.0510012  83.8594997  39.0979988
 124.6530012  83.2094997  37.7909988 124.4867830  83.7556566  38.4473711
 131.6660012  84.7574997  49.7019988 131.0130012  85.4524997  49.7909988
 132.1310012  84.9674997  48.8919988 131.6395390  84.8809425  49.6046883
 127.7020012  85.5894997  42.3599988 126.9700012  85.8174997  42.9329988
 128.1500012  84.8754997  42.8149988 127.6623095  85.5242571  42.4999119
 127.6000012  83.7634997  51.4269988 127.6800012  84.5264997  51.9989988
 126.9980012  84.0424997  50.7369988 127.5295756  83.9057134  51.4120589
 119.3480012  86.2194997  44.2419988 119.0170012  85.8494997  43.4239988
 119.9360012  85.5494997  44.5889988 119.3821873  86.0781156  44.1768102
 120.7140012  89.6474997  46.9239988 120.6200012  89.0694997  46.1669988
 121.4440012  89.2764997  47.4199988 120.7997981  89.5182390  46.8874165
 119.7140012  84.9884997  47.8759988 120.2800012  85.1094997  47.1129988
 120.0330012  85.6254997  48.5149988 119.8345786  85.0911884  47.8580040
 126.0230012  90.4914997  48.6099988 125.7830012  91.1534997  49.2579988
 125.8250012  89.6574997  49.0349988 125.9633808  90.4693134  48.7561524
 120.5940012  89.3874997  52.5929988 120.2830012  90.1694997  53.0479988
 119.9440012  89.2344997  51.9069988 120.4635558  89.4739105  52.5625871
 126.5730012  84.7514997  40.0449988 127.1530012  84.9014997  40.7919988
 126.9870012  85.2224997  39.3219988 126.7082830  84.8356841  40.0494134
 117.5140012  85.5854997  51.8219988 117.5850012  86.2364997  52.5199988
 116.6240012  85.6884997  51.4869988 117.4033117  85.6885936  51.8722700
 124.3000012  91.4884997  43.4799988 124.7740012  91.7834997  44.2579988
 123.7370012  92.2264997  43.2469988 124.2887653  91.6286932  43.5550136
 118.8340012  91.4594997  53.3559988 118.8410012  91.3234997  52.4089988
 117.9180012  91.3414997  53.6079988 118.7111714  91.4249430  53.2604666
 130.2720012  76.5014997  39.8579988 129.3720012  76.6404997  40.1529988
 130.5240012  77.3324997  39.4559988 130.1828702  76.6329074  39.8440205
 118.3380012  85.2894997  41.8319988 118.0460012  86.0574997  41.3409988
 117.6640012  84.6294997  41.6689988 118.2069081  85.3054406  41.7427339
 131.4610012  90.8674997  38.2339988 131.5350012  91.8064997  38.4049988
 132.3670012  90.5624997  38.1779988 131.5935100  90.9546722  38.2498119
 114.4310012  87.6524997  50.6469988 113.9300012  87.6244997  49.8319988
 114.4360012  86.7464997  50.9559988 114.3631526  87.5262278  50.5772872
 114.1810012  90.4324997  47.5309988 115.1270012  90.2884997  47.5119988
 114.0690012  91.2164997  48.0679988 114.2952727  90.5188046  47.6010072
 132.3790012  91.0984997  53.2129988 132.3300012  90.1434997  53.1759988
 131.5520012  91.3664997  53.6139988 132.2604940  91.0038998  53.2621375
 123.3580012  90.6724997  52.0889988 123.4450012  91.4984997  52.5639988
 122.4940012  90.3424997  52.3379988 123.2531964  90.7409878  52.1876549
 123.7720012  94.4444997  41.8949988 123.6970012  94.3234997  40.9489988
 123.8050012  95.3944997  42.0139988 123.7661848  94.5562500  41.7814834
 117.4250012  93.2334997  43.6759988 117.5780012  92.8854997  44.5549988
 116.5750012  92.8774997  43.4209988 117.3308962  93.1376650  43.7618340
 126.8740012  93.5984997  38.8969988 127.2490012  92.8544997  38.4269988
 126.8780012  93.3284997  39.8159988 126.9258915  93.4601486  38.9567824
 126.5430012  93.5244997  41.6469988 125.6070012  93.6244997  41.8249988
 126.8230012  92.8154997  42.2249988 126.4528255  93.4422711  41.7495391
 129.5310012  82.5914997  53.6929988 129.1240012  83.0724997  52.9719988
 129.5720012  81.6864997  53.3849988 129.4808437  82.5349374  53.5526683
 116.6800012  88.9754997  51.6899988 116.8960012  88.6144997  52.5489988
 115.8250012  88.6014997  51.4799988 116.5939292  88.8754111  51.7793386
 119.2990012  77.4454997  47.6849988 118.4370012  77.3584997  47.2779988
 119.2760012  78.3014997  48.1129988 119.1780330  77.5492765  47.6871863
 123.9620012  77.1674997  51.0599988 124.3820012  76.7524997  51.8129988
 123.0290012  76.9894997  51.1769988 123.8933644  77.0865900  51.1789539
 127.2880012  80.9234997  51.9129988 126.7740012  80.7974997  52.7109988
 127.1330012  81.8354997  51.6689988 127.1966852  81.0296132  51.9892158
 128.0510012  85.7844997  37.6749988 128.0930012  85.5614997  36.7449988
 128.9000012  86.1834997  37.8649988 128.1715396  85.8079155  37.5733627
 123.6230012  79.6604997  38.3449988 123.3700012  79.6794997  39.2679988
 123.3670012  78.7884997  38.0439988 123.5537790  79.5452437  38.4306263
 119.3900012  82.4114997  48.7799988 118.7480012  82.3704997  49.4889988
 119.4270012  83.3374997  48.5429988 119.3071324  82.5311559  48.8449824
 119.3870012  82.6324997  43.6919988 118.4940012  82.2914997  43.6339988
 119.8370012  82.2554997  42.9369988 119.3257305  82.5348484  43.5819177
 124.9220012  83.0484997  42.5089988 124.5130012  83.8634997  42.2179988
 125.6430012  82.9084997  41.8949988 124.9634537  83.1412018  42.3861342
 124.0240012  83.2234997  53.9969988 123.4620012  82.5194997  54.3179988
 124.8510012  83.1034997  54.4649988 124.0587095  83.1107883  54.1042330
 125.9270012  82.4944997  45.3229988 125.7320012  83.0994997  44.6079988
 126.1080012  81.6604997  44.8889988 125.9247614  82.4646300  45.1664405
 117.1400012  82.7314997  50.6469988 117.1020012  83.1314997  51.5159988
 116.6490012  81.9144997  50.7379988 117.0684684  82.6758069  50.7781059
 120.5060012  80.1054997  37.4459988 120.0750012  79.6604997  38.1759988
 119.7880012  80.4774997  36.9339988 120.3499438  80.0948940  37.4766799
 113.7480012  79.8474997  44.4979988 114.3790012  79.8184997  45.2169988
 114.1970012  79.4224997  43.7679988 113.8950774  79.7860492  44.4976553
 115.0220012  80.5934997  39.9219988 115.4960012  81.1844997  39.3369988
 114.3050012  81.1244997  40.2689988 114.9899341  80.7460867  39.8888836
 125.1910012  84.1324997  49.9949988 125.5140012  83.5014997  49.3519988
 124.7510012  83.5974997  50.6549988 125.1756895  83.9738441  49.9962850
 121.9680012  80.0594997  44.7789988 121.0570012  80.1164997  45.0669988
 122.4740012  79.9994997  45.5889988 121.9115413  80.0591985  44.9280622
 116.7970012  81.6884997  43.6049988 115.9070012  81.7884997  43.2649988
 117.0930012  80.8464997  43.2589988 116.7152823  81.5883545  43.5117213
 120.4500012  81.6884997  41.2619988 121.3810012  81.8174997  41.4399988
 120.2350012  82.3584997  40.6119988 120.5484247  81.7966565  41.1985747
 126.3730012  79.2944997  48.0429988 125.6970012  79.4254997  48.7069988
 125.8880012  79.1394997  47.2329988 126.2147145  79.2914905  48.0244517
 119.1240012  82.8834997  38.8289988 118.5810012  82.5034997  38.1369988
 119.9570012  83.0774997  38.3999988 119.1624399  82.8578124  38.6764526
 129.6610012  94.9664997  54.3199988 129.8610012  95.3904997  53.4849988
 130.3160012  95.3094997  54.9269988 129.7770051  95.0709648  54.2877836
 117.2590012  87.4404997  53.9279988 117.9910012  87.6944997  54.4889988
 116.4790012  87.6444997  54.4429988 117.2538232  87.5029177  54.0745760
 123.2880012  82.8474997  46.6659988 123.8530012  82.3004997  46.1189988
 123.1410012  82.3254997  47.4539988 123.3452918  82.7022024  46.6978454
 118.2900012  78.9834997  43.0839988 117.9730012  78.0814997  43.0489988
 119.0720012  78.9854997  42.5309988 118.3522284  78.8601628  43.0044783
 121.9150012  81.2354997  49.0799988 121.0790012  81.6894997  49.1899988
 122.4390012  81.5114997  49.8319988 121.8714414  81.3349376  49.1967136
 122.4590012  87.4484997  40.7639988 121.7140012  86.9414997  40.4419988
 122.3250012  87.4974997  41.7109988 122.3388776  87.3856940  40.8478647
 129.6090012  86.5814997  49.5509988 130.2510012  87.0384997  49.0069988
 128.7790012  86.6944997  49.0879988 129.5845963  86.6592704  49.4140177
 126.3570012  80.2624997  38.9639988 125.4180012  80.3744997  38.8119988
 126.6540012  81.1194997  39.2699988 126.2687666  80.3936443  38.9845768
 123.9780012  87.6324997  52.0009988 123.6330012  87.2514997  52.8079988
 123.7780012  88.5664997  52.0729988 123.9038061  87.7065228  52.1210961
 127.0750012  82.1294997  40.6239988 127.9670012  81.9924997  40.9429988
 127.1320012  82.9204997  40.0879988 127.2046285  82.2176660  40.5951691
 117.5840012  86.7434997  46.5339988 118.3290012  86.7414997  45.9329988
 117.6620012  85.9204997  47.0159988 117.6965518  86.6319315  46.5168929
 124.5850012  88.9074997  39.7899988 124.2890012  89.7334997  40.1709988
 123.8820012  88.2874997  39.9859988 124.4494914  88.9368199  39.8686443
 114.5920012  85.2044997  51.8489988 114.8150012  84.7864997  52.6809988
 113.9900012  84.5914997  51.4259988 114.5411759  85.0644668  51.9057022
 121.6080012  84.7214997  54.0619988 121.3120012  84.5554997  53.1669988
 122.5400012  84.5014997  54.0509988 121.6934166  84.6690640  53.9380536
 126.2290012  90.0944997  51.9519988 125.3280012  90.2774997  51.6839988
 126.2630012  90.3534997  52.8729988 126.1103041  90.1545512  52.0398197
 131.9600012  82.3394997  40.3189988 131.4060012  81.9434997  39.6469988
 132.0600012  83.2494997  40.0409988 131.8977059  82.4083586  40.1894401
 131.9230012  88.1394997  53.1559988 131.0720012  88.3774997  52.7889988
 132.5140012  88.1224997  52.4029988 131.8862487  88.1698258  53.0038893
 130.2550012  91.1254997  40.7839988 129.8820012  90.2994997  41.0929988
 130.5330012  90.9424997  39.8869988 130.2415630  90.9877303  40.7049626
 127.4160012  85.9334997  47.8049988 126.4870012  85.7014997  47.7779988
 127.8670012  85.1564997  47.4749988 127.3499216  85.7967238  47.7566917
 119.9590012  90.2614997  43.9379988 120.4860012  91.0344997  43.7379988
 119.0790012  90.4864997  43.6369988 119.9121773  90.3978005  43.8699010
 115.7140012  85.1234997  38.5249988 116.3300012  85.7504997  38.9049988
 114.8520012  85.4394997  38.7969988 115.6817698  85.2519430  38.6137183
 121.3860012  87.9244997  43.5149988 121.1450012  88.8494997  43.5559988
 120.6450012  87.4654997  43.9109988 121.2528409  87.9891421  43.5741377
 121.9010012  92.0734997  49.8299988 122.2630012  92.9284997  49.5959988
 122.4320012  91.7814997  50.5699988 122.0224473  92.1511060  49.8980855
 120.0690012  92.9464997  43.0599988 119.1190012  93.0514997  43.1109988
 120.4210012  93.7664997  43.4049988 119.9864203  93.0718314  43.1136650
 125.4450012  88.1724997  49.5299988 125.0190012  87.9454997  50.3569988
 126.0250012  87.4344997  49.3479988 125.4651868  88.0415299  49.6185830
 127.6480012  89.1014997  38.6039988 128.0010012  88.7214997  39.4089988
 126.6990012  89.0084997  38.6909988 127.5680441  89.0369596  38.7258559
 128.1030012  92.7244997  51.9999988 127.5020012  92.1694997  51.5039988
 128.3850012  93.3914997  51.3739988 128.0588519  92.7386841  51.8474952
 132.1510012  93.5814997  38.8049988 132.8950012  94.1674997  38.6649988
 131.4570012  94.1494997  39.1389988 132.1590292  93.7385582  38.8309961
 116.2260012  79.9574997  51.4069988 115.3330012  80.2964997  51.3389988
 116.1270012  79.1024997  51.8249988 116.0904164  79.8882588  51.4542235
 128.5140012  87.7744997  40.8309988 128.2360012  87.0464997  41.3869988
 129.4410012  87.8934997  41.0359988 128.6013124  87.6908802  40.9348845
 115.8770012  91.7624997  49.8419988 116.0940012  90.8304997  49.8109988
 116.1230012  92.0364997  50.7249988 115.9399549  91.6720636  49.9571763
 121.7390012  90.2134997  37.0509988 121.9780012  89.4654997  36.5039988
 121.4700012  89.8254997  37.8839988 121.7353675  90.0586638  37.0886865
 120.6760012  89.7834997  39.5079988 120.8220012  89.2634997  40.2979988
 120.6730012  90.6904997  39.8139988 120.6955989  89.8348853  39.6576088
 117.1290012  87.0364997  40.0179988 116.4430012  87.3884997  40.5849988
 117.6510012  87.7994997  39.7709988 117.1056852  87.1878578  40.0622118
 124.9600012  79.6984997  50.2969988 125.6590012  79.7724997  50.9469988
 124.5790012  78.8344997  50.4509988 125.0041767  79.5917624  50.4068322
 125.7450012  79.3504997  41.3939988 125.9650012  79.8224997  40.5909988
 126.3030012  79.7454997  42.0639988 125.8504968  79.4684285  41.3747331
 123.4130012  91.4814997  40.2569988 122.5970012  91.9784997  40.3089988
 123.9430012  91.9564997  39.6169988 123.3729161  91.6137722  40.1775956
 122.9450012  81.0784997  42.2289988 123.7570012  81.5834997  42.2749988
 122.7000012  80.9334997  43.1429988 123.0230520  81.1280375  42.3588517
 123.4800012  82.0644997  51.4139988 123.5990012  82.6384997  52.1709988
 124.1360012  81.3764997  51.5279988 123.5849757  82.0501079  51.5330825
 123.8280012  78.1594997  43.1669988 123.4820012  78.7774997  43.8119988
 124.4870012  78.6604997  42.6859988 123.8697826  78.3115802  43.1900971
 120.7520012  92.5254997  40.2389988 120.9120012  93.3244997  39.7379988
 120.5540012  92.8314997  41.1239988 120.7471649  92.6764469  40.2899815
 119.4860012  79.2224997  39.8539988 119.4030012  80.1114997  40.2009988
 120.3760012  78.9574997  40.0859988 119.5949469  79.3081430  39.9327626
 129.6850012  79.9714997  52.2489988 128.7680012  80.2344997  52.1609988
 130.0200012  79.9684997  51.3519988 129.6049900  80.0070224  52.1157919
 128.2870012  83.7224997  46.3439988 127.4890012  83.3074997  46.0159988
 128.7320012  83.0314997  46.8349988 128.2379885  83.5723543  46.3654889
 117.7450012  89.6504997  38.9149988 118.3370012  90.3494997  39.1909988
 118.2040012  89.2174997  38.1949988 117.8881142  89.6877049  38.8554830
 116.0610012  82.3144997  38.0309988 116.0160012  83.2534997  38.2089988
 115.1730012  82.0784997  37.7609988 115.9348574  82.4111892  38.0188912
 129.3730012  92.9784997  47.9669988 129.2180012  93.6564997  47.3099988
 130.3060012  93.0504997  48.1699988 129.4778500  93.0810170  47.9045119
 116.8690012  77.0964997  46.7039988 116.6400012  77.1554997  45.7759988
 116.4260012  76.3044997  47.0099988 116.7778530  76.9975753  46.6184786
 115.7990012  91.0364997  42.8639988 114.9670012  91.5094997  42.8919988
 116.3450012  91.5464997  42.2659988 115.7589739  91.1701871  42.7869716
 115.0870012  93.6494997  54.1939988 115.6280012  93.4324997  54.9539988
 114.6060012  92.8434997  54.0049988 115.0959345  93.5109514  54.2723076
 119.6850012  92.5684997  55.8149988 120.4520012  92.1094997  56.1559988
 119.6630012  92.3424997  54.8849988 119.7871434  92.4750409  55.7360043
 123.7770012  92.0764997  37.1899988 123.1330012  91.4454997  37.5109988
 124.5390012  91.5454997  36.9579988 123.7918077  91.9182920  37.2026011
 126.2620012  90.9484997  54.5439988 125.9110012  90.0924997  54.7869988
 126.9880012  91.0914997  55.1509988 126.3120769  90.8505636  54.6593619
 128.3810012  91.8934997  37.4239988 128.6640012  91.0994997  37.8759988
 129.1210012  92.1264997  36.8629988 128.5197486  91.8162803  37.4100698
 114.9940012  87.4594997  55.1489988 115.1380012  86.5574997  54.8619988
 114.2220012  87.7454997  54.6609988 114.9093322  87.3748261  55.0437881
 119.3360012  87.8034997  37.2809988 119.4000012  87.0094997  37.8119988
 119.9890012  87.6844997  36.5909988 119.4330241  87.6787148  37.2604317
 121.6500012  87.4294997  54.5809988 121.3210012  87.7004997  53.7239988
 121.8020012  86.4884997  54.4939988 121.6254809  87.3393862  54.4518244
 124.6880012  88.8504997  37.0169988 124.4190012  89.0304997  37.9179988
 124.4820012  87.9244997  36.8859988 124.6233825  88.7500152  37.1225214
 127.3840012  87.3454997  51.9649988 128.1300012  87.9334997  51.8449988
 126.6270012  87.9274997  52.0279988 127.3837554  87.5047011  51.9570907
 115.8270012  84.6594997  54.5689988 116.2350012  83.8024997  54.4479988
 115.5670012  84.6744997  55.4899988 115.8477568  84.5440807  54.6769588
 120.4850012  85.7754997  39.5869988 120.0250012  85.2914997  40.2729988
 120.7400012  85.1074997  38.9509988 120.4564902  85.6188731  39.5949334
 119.7740012  83.6684997  51.9429988 119.1560012  84.3434997  52.2229988
 120.1180012  83.9894997  51.1099988 119.7359615  83.8042721  51.8686581
 121.5560012  84.0184997  37.8489988 121.3760012  83.8644997  36.9219988
 122.5060012  84.1264997  37.8939988 121.6597776  84.0120175  37.7281843
 124.7940012  86.1404997  55.2199988 125.7470012  86.2234997  55.1929988
 124.6330012  85.4284997  55.8399988 124.9026426  86.0556746  55.3000579
 130.9460012  86.3734997  37.2949988 130.6720012  85.9484997  36.4819988
 130.9850012  87.3044997  37.0779988 130.9137699  86.4412484  37.1543610
 120.1130012  81.0234997  53.0249988 120.2630012  80.2944997  52.4229988
 120.1160012  81.8004997  52.4659988 120.1339302  81.0287851  52.8670692
 120.5260012  79.3934997  50.5179988 121.0620012  79.8444997  49.8659988
 119.6740012  79.2854997  50.0949988 120.4842178  79.4406390  50.3715756
 122.1080012  84.8324997  50.7569988 122.8580012  84.6764997  50.1839988
 121.7690012  85.6844997  50.4819988 122.1648921  84.9262968  50.6413561
 126.5230012  82.6474997  55.7859988 126.7160012  81.7164997  55.6739988
 127.3810012  83.0724997  55.7759988 126.6653020  82.5776389  55.7693361
 127.8400012  85.4364997  53.8629988 127.5590012  86.1454997  53.2859988
 128.7830012  85.3634997  53.7119988 127.9289027  85.5237646  53.7635551
 118.5920012  82.2214997  54.9369988 117.8250012  81.6894997  54.7269988
 119.2710012  81.9114997  54.3369988 118.5787022  82.1067506  54.8271648
 121.3320012  76.8494997  50.9489988 121.2330012  77.7964997  50.8439988
 120.5890012  76.4774997  50.4739988 121.2180564  76.9285902  50.8704560
 122.5960012  81.1714997  54.5129988 122.3600012  80.9514997  55.4149988
 121.8120012  80.9644997  54.0029988 122.4578628  81.1134760  54.5673932
 125.3110012  80.2984997  53.5889988 124.3640012  80.3304997  53.7209988
 125.6240012  79.6734997  54.2419988 125.2235475  80.2183207  53.6954455
 126.9450012  78.9324997  55.5939988 126.8490012  77.9804997  55.5879988
 126.6240012  79.2014997  56.4539988 126.8884070  78.8384035  55.7095441
 116.7720012  80.1424997  54.6409988 116.9840012  79.4354997  54.0309988
 116.6610012  79.7044997  55.4849988 116.7859721  79.9867084  54.6716843
 121.5530012  76.1434997  53.6209988 122.2650012  75.5034997  53.6069988
 121.4520012  76.4104997  52.7069988 121.6367939  76.0919938  53.4955650
 121.9070012  77.8264997  55.6739988 121.7750012  77.3504997  54.8539988
 121.3080012  78.5704997  55.6189988 121.8079071  77.8619618  55.5542886
 121.4530012  94.7094997  38.8509988 122.3860012  94.8674997  38.9939988
 121.1890012  95.3844997  38.2259988 121.5449510  94.8223611  38.7860741
 115.0220012  89.3454997  38.3329988 115.9360012  89.4244997  38.6069988
 115.0290012  88.6584997  37.6669988 115.1481131  89.2633961  38.2804393
 113.6710012  94.7384997  43.4109988 113.0240012  94.2764997  42.8779988
 114.0250012  94.0664997  43.9929988 113.6303849  94.5844723  43.4167959
 114.5410012  92.8194997  45.2149988 114.2060012  91.9394997  45.3869988
 114.7630012  93.1644997  46.0799988 114.5251783  92.7457500  45.3554208
 132.0890012  93.6284997  48.1959988 132.0680012  93.8134997  49.1349988
 132.7800012  94.1974997  47.8549988 132.1794618  93.7306606  48.2783864
 131.6530012  93.1964997  51.1179988 131.1650012  92.4604997  50.7469988
 132.2020012  92.8024997  51.7959988 131.6604872  93.0426249  51.1589160
 130.1030012  88.9854997  55.7559988 129.2370012  88.8804997  56.1499988
 130.4800012  89.7444997  56.2019988 130.0353308  89.0736900  55.8702393
 131.4040012  87.2424997  41.2699988 132.2540012  87.6634997  41.3969988
 131.4100012  86.5024997  41.8769988 131.5211372  87.2000803  41.3694344
 131.7990012  85.2954997  43.0939988 131.0720012  84.8164997  43.4909988
 132.3800012  85.5014997  43.8259988 131.7779375  85.2577090  43.2474129
 131.5580012  88.0804997  48.0409988 132.3910012  87.7024997  47.7609988
 131.6700012  89.0234997  47.9219988 131.6872647  88.1562218  47.9865487
 130.0440012  90.9584997  50.3479988 129.3970012  91.2834997  50.9739988
 129.5270012  90.5184997  49.6739988 129.8854029  90.9435004  50.3425827
 132.0670012  85.1964997  39.4849988 131.5450012  85.5534997  38.7659988
 132.0340012  85.8714997  40.1629988 131.9911634  85.3365413  39.4783145
 130.4160012  82.4364997  38.0359988 130.5120012  83.1034997  37.3549988
 130.2760012  81.6204997  37.5539988 130.4102135  82.4174500  37.8778491
 129.5850012  83.8164997  43.6569988 129.4350012  82.8714997  43.6359988
 129.2320012  84.0974997  44.4999988 129.5166625  83.7250441  43.7682346
 114.6210012  85.8944997  47.6669988 114.8050012  85.8124997  46.7309988
 115.4700012  85.7704997  48.0909988 114.7610139  85.8665003  47.5961455
 130.4420012  85.7864997  53.2949988 131.0250012  85.0524997  53.4869988
 131.0060012  86.5584997  53.3419988 130.5979769  85.7904227  53.3276159
 131.9380012  83.6894997  53.9799988 131.0750012  83.3104997  53.8139988
 132.5430012  82.9504997  53.9059988 131.9015979  83.5378023  53.9472817
 129.6630012  79.8444997  37.1529988 130.2740012  79.4734997  37.7899988
 128.8270012  79.4234997  37.3489988 129.6335032  79.7367554  37.2667035
 129.2960012  81.3994997  42.1189988 129.5760012  80.4924997  42.2429988
 130.0550012  81.8334997  41.7299988 129.4369277  81.3340942  42.0833682
 129.9080012  81.9804997  47.5549988 130.8410012  82.1924997  47.5209988
 129.6730012  82.0824997  48.4769988 130.0038036  82.0232769  47.6749976
 129.9370012  82.7174997  50.3309988 129.0940012  82.9854997  50.6969988
 130.3790012  83.5394997  50.1199988 129.8814158  82.8653291  50.3525491
 114.2180012  81.1654997  53.8079988 115.1380012  81.0434997  54.0439988
 113.7690012  80.4154997  54.1969988 114.2831580  81.0473727  53.8929006
 132.2200012  76.6974997  55.6839988 132.5700012  76.0434997  55.0789988
 132.3670012  77.5344997  55.2449988 132.2878419  76.7211591  55.5417118
 129.9090012  78.6624997  42.1669988 130.0920012  78.2134997  42.9929988
 129.3100012  78.0774997  41.7039988 129.8530202  78.5219975  42.2173275
 115.4390012  79.4774997  46.6989988 115.8850012  78.6854997  47.0009988
 115.9060012  80.1934997  47.1299988 115.5630172  79.4660624  46.7984820
 113.7430012  82.4764997  47.7679988 114.2350012  82.2554997  46.9769988
 114.1060012  83.3174997  48.0489988 113.8593126  82.5598357  47.6977531
 131.7400012  78.8064997  54.0339988 130.8220012  79.0774997  53.9979988
 131.8630012  78.2714997  53.2489988 131.6311066  78.7712892  53.9230487
 131.7760012  78.7294997  38.6949988 132.1880012  78.0084997  38.2199988
 132.4580012  79.3994997  38.7539988 131.9245885  78.7212368  38.6378915
 114.0570012  78.7344997  41.8219988 113.1320012  78.9434997  41.6929988
 114.5110012  79.2184997  41.1329988 113.9917368  78.8285993  41.7111226
 128.8280012  93.7184997  43.7679988 129.4800012  93.3714997  43.1599988
 129.3380012  94.2074997  44.4139988 128.9862637  93.7370597  43.7720236
 114.0210012  77.4724997  50.1669988 113.3560012  77.2264997  50.8099988
 113.5780012  78.0944997  49.5889988 113.8700956  77.5228632  50.1769352
 116.2130012  90.6474997  54.3109988 115.3920012  90.8224997  53.8509988
 115.9600012  90.5744997  55.2319988 116.0666164  90.6615622  54.3724923
 119.1670012  91.6224997  50.5699988 118.7420012  92.4314997  50.2869988
 120.0710012  91.7074997  50.2679988 119.2310271  91.7448469  50.4903776
 123.4780012  93.0214997  53.5289988 123.6630012  92.6874997  54.4069988
 124.3240012  93.3304997  53.2069988 123.6177539  93.0176047  53.6055605
 125.8230012  94.3074997  52.7729988 126.5000012  93.6744997  52.5329988
 126.1450012  94.7084997  53.5799988 125.9591637  94.2751154  52.8492793
 130.7400012  76.8964997  51.8529988 129.9280012  77.2214997  51.4649988
 130.9730012  76.1364997  51.3199988 130.6603423  76.8382436  51.7278253
 116.5690012  94.8784997  50.6169988 115.8480012  95.3184997  50.1659988
 116.2030012  94.6274997  51.4659988 116.4209804  94.9047698  50.6699840
 119.0360012  94.4784997  49.6469988 118.1710012  94.5504997  50.0509988
 118.9810012  95.0254997  48.8629988 118.9102085  94.5622685  49.5963362
 123.7460012  94.3664997  48.8219988 123.2900012  94.8954997  48.1679988
 123.9090012  94.9694997  49.5479988 123.7055585  94.5204468  48.8305062
 126.0740012  93.2444997  49.7669988 125.1690012  93.4094997  49.5019988
 126.5030012  94.0974997  49.7019988 126.0080799  93.3824483  49.7219182
 128.6780012  94.8144997  50.0619988 128.4960012  95.7304997  49.8519988
 128.8550012  94.4044997  49.2159988 128.6770210  94.8844822  49.9187885
 115.9830012  93.5014997  47.5269988 115.9650012  93.0764997  48.3849988
 116.7880012  93.1834997  47.1189988 116.0893875  93.4003812  47.5891655
 118.1250012  92.2114997  46.1819988 117.9060012  91.2954997  46.3519988
 118.9490012  92.3514997  46.6479988 118.2064420  92.1050520  46.2682774
 120.6620012  92.6814997  47.0309988 120.8750012  91.7934997  46.7439988
 120.7260012  92.6474997  47.9849988 120.6998232  92.5553102  47.1207397
 124.1700012  78.3454997  46.1749988 123.4960012  77.7164997  46.4309988
 124.7340012  77.8614997  45.5719988 124.1539230  78.1938744  46.1285340
 129.3130012  76.4534997  46.2879988 129.9170012  77.0004997  45.7859988
 128.4430012  76.7724997  46.0479988 129.2781241  76.5715806  46.1867654
 131.0400012  77.5914997  44.6209988 131.6520012  77.0774997  44.0949988
 131.4220012  78.4694997  44.6449988 131.1754540  77.6397140  44.5521830
 116.4970012  76.9794997  43.9969988 115.7200012  76.7454997  43.4899988
 117.0270012  76.1824997  44.0059988 116.4622330  76.8396988  43.9287742
 115.3330012  76.7774997  39.8009988 115.7720012  77.3884997  39.2089988
 114.7000012  77.3154997  40.2749988 115.3074514  76.9339257  39.7840930
 121.0760012  76.9064997  43.8109988 121.9510012  77.2944997  43.7809988
 120.9400012  76.6914997  44.7329988 121.1773695  76.9305184  43.9316440
 126.6330012  76.9364997  45.4599988 126.7090012  77.0314997  44.5099988
 126.3580012  76.0284997  45.5889988 126.6062321  76.8267867  45.3475079
 127.9860012  76.9624997  41.1519988 127.2840012  77.5774997  40.9429988
 127.5420012  76.1244997  41.2829988 127.8296330  76.9335783  41.1410328
 115.2340012  92.7254997  40.6989988 114.5490012  92.6874997  40.0309988
 115.2380012  93.6384997  40.9869988 115.1408193  92.8437016  40.6465284
 117.1940012  78.6934997  38.2429988 117.6860012  78.0634997  37.7159988
 117.8180012  78.9894997  38.9069988 117.3455446  78.6473199  38.2605980
 122.2200012  78.9864997  40.6999988 122.3980012  78.3404997  41.3829988
 122.1670012  79.8204997  41.1679988 122.2371829  79.0107985  40.8565940
 124.0990012  93.9354997  39.0959988 124.9650012  94.3014997  38.9179988
 123.8520012  93.4954997  38.2819988 124.1842392  93.9261756  38.9616289
 130.8080012  93.4984997  41.7749988 130.6130012  92.7504997  41.2099988
 130.7690012  94.2564997  41.1919988 130.7760380  93.4986099  41.6188384
 116.4550012  77.4934997  53.5149988 116.0890012  76.7284997  53.9579988
 117.3680012  77.5224997  53.8019988 116.5282790  77.3927224  53.6144070
 118.4280012  76.8444997  55.0509988 119.3260012  76.5704997  54.8659988
 118.0410012  76.1014997  55.5149988 118.4986612  76.7065914  55.0883643
 117.0520012  93.6454997  37.7239988 116.7850012  93.9324997  38.5969988
 117.8240012  93.0994997  37.8759988 117.1197488  93.6110294  37.8641050
 126.8490012  76.1764997  55.2329988 126.9260012  75.7504997  56.0869988
 127.7430012  76.1904997  54.8899988 126.9803428  76.1200879  55.3035310
 130.0250012  92.2494997  53.9249988 129.2430012  92.0634997  53.4059988
 129.9530012  93.1784997  54.1429988 129.9081777  92.3496492  53.8834048
 144.4310012  86.1354997  43.9559988 144.5200012  87.0794997  43.8239988
 143.7930012  85.8604997  43.2979988 144.3569081  86.2274830  43.8489614
 143.3640012  85.3904997  47.3749988 143.3260012  84.7444997  48.0799988
 143.0420012  84.9244997  46.6039988 143.3152333  85.2389408  47.3672978
 135.7330012  85.0054997  48.9679988 135.7740012  84.3794997  49.6909988
 136.4360012  85.6294997  49.1499988 135.8336363  85.0041196  49.0916044
 136.6560012  89.4554997  47.5029988 136.2870012  88.6534997  47.1329988
 137.5970012  89.2864997  47.5489988 136.7327289  89.3230153  47.4586316
 133.2660012  83.1154997  42.8959988 132.8190012  83.9614997  42.8769988
 132.7050012  82.5354997  42.3799988 133.1289900  83.1529916  42.8236801
 133.9770012  85.2774997  45.0219988 134.1900012  84.5074997  45.5489988
 134.7150012  85.3664997  44.4179988 134.1058496  85.1841394  45.0125300
 144.1820012  93.4344997  45.8889988 144.8020012  92.7574997  45.6149988
 143.9740012  93.2164997  46.7969988 144.2386904  93.3123870  45.9743365
 141.7540012  87.8234997  47.7809988 142.0580012  87.1374997  47.1859988
 142.4750012  87.9414997  48.3989988 141.8930671  87.7456305  47.7831816
 144.8950012  82.2174997  48.1089988 145.0370012  81.2714997  48.1289988
 144.7880012  82.4244997  47.1799988 144.8999864  82.1159534  47.9862339
 138.0490012  80.3184997  45.3809988 138.0930012  81.1784997  44.9629988
 137.5920012  79.7664997  44.7469988 137.9932185  80.3615799  45.2380299
 134.6700012  82.7154997  46.1429988 135.3230012  82.1654997  46.5749988
 134.6940012  82.4414997  45.2259988 134.7626683  82.6031466  46.0782123
 139.8260012  84.2654997  45.3579988 140.4420012  83.7394997  45.8679988
 139.2400012  83.6254997  44.9549988 139.8310810  84.1069208  45.3733173
 136.8600012  79.2364997  49.4549988 136.6410012  79.7664997  48.6889988
 136.1920012  79.4634997  50.1019988 136.7397600  79.3396906  49.4376379
 144.2290012  88.7364997  42.9989988 143.9330012  88.4144997  42.1479988
 143.9040012  89.6364997  43.0399988 144.1446371  88.8140215  42.8881801
 139.4290012  86.9124997  49.7419988 138.6890012  87.5104997  49.8459988
 140.1430012  87.4664997  49.4269988 139.4242237  87.0692831  49.7136465
 136.4530012  81.1284997  47.4069988 137.0670012  81.7614997  47.7809988
 136.9650012  80.6564997  46.7509988 136.6062296  81.1512370  47.3694252
 137.8360012  88.8764997  50.5299988 137.8310012  89.7564997  50.1519988
 136.9830012  88.7934997  50.9549988 137.7199464  88.9856117  50.5357907
 133.9570012  88.5474997  41.3119988 133.6850012  88.7764997  40.4229988
 134.0030012  89.3854997  41.7719988 133.9260094  88.6921213  41.2525697
 140.8860012  76.5424997  46.9079988 140.7690012  75.5934997  46.8529988
 140.0310012  76.8744997  47.1809988 140.7543733  76.4575409  46.9373897
 143.1530012  85.3794997  41.4079988 142.4410012  85.9144997  41.0559988
 143.8440012  85.4354997  40.7479988 143.1490132  85.4602543  41.2706289
 143.2060012  83.8374997  38.4469988 143.9070012  83.8594997  39.0979988
 143.5090012  83.2094997  37.7909988 143.3427830  83.7556566  38.4473711
 138.2040012  86.2194997  44.2419988 137.8730012  85.8494997  43.4239988
 138.7920012  85.5494997  44.5889988 138.2381873  86.0781156  44.1768102
 139.5700012  89.6474997  46.9239988 139.4760012  89.0694997  46.1669988
 140.3000012  89.2764997  47.4199988 139.6557981  89.5182390  46.8874165
 138.5700012  84.9884997  47.8759988 139.1360012  85.1094997  47.1129988
 138.8890012  85.6254997  48.5149988 138.6905786  85.0911884  47.8580040
 144.8790012  90.4914997  48.6099988 144.6390012  91.1534997  49.2579988
 144.6810012  89.6574997  49.0349988 144.8193808  90.4693134  48.7561524
 139.4500012  89.3874997  52.5929988 139.1390012  90.1694997  53.0479988
 138.8000012  89.2344997  51.9069988 139.3195558  89.4739105  52.5625871
 136.3700012  85.5854997  51.8219988 136.4410012  86.2364997  52.5199988
 135.4800012  85.6884997  51.4869988 136.2593117  85.6885936  51.8722700
 143.1560012  91.4884997  43.4799988 143.6300012  91.7834997  44.2579988
 142.5930012  92.2264997  43.2469988 143.1447653  91.6286932  43.5550136
 137.6900012  91.4594997  53.3559988 137.6970012  91.3234997  52.4089988
 136.7740012  91.3414997  53.6079988 137.5671714  91.4249430  53.2604666
 137.1940012  85.2894997  41.8319988 136.9020012  86.0574997  41.3409988
 136.5200012  84.6294997  41.6689988 137.0629081  85.3054406  41.7427340
 133.2870012  87.6524997  50.6469988 132.7860012  87.6244997  49.8319988
 133.2920012  86.7464997  50.9559988 133.2191526  87.5262278  50.5772872
 133.0370012  90.4324997  47.5309988 133.9830012  90.2884997  47.5119988
 132.9250012  91.2164997  48.0679988 133.1512727  90.5188046  47.6010072
 142.2140012  90.6724997  52.0889988 142.3010012  91.4984997  52.5639988
 141.3500012  90.3424997  52.3379988 142.1091964  90.7409878  52.1876549
 142.6280012  94.4444997  41.8949988 142.5530012  94.3234997  40.9489988
 142.6610012  95.3944997  42.0139988 142.6221848  94.5562500  41.7814834
 136.2810012  93.2334997  43.6759988 136.4340012  92.8854997  44.5549988
 135.4310012  92.8774997  43.4209988 136.1868962  93.1376650  43.7618340
 135.5360012  88.9754997  51.6899988 135.7520012  88.6144997  52.5489988
 134.6810012  88.6014997  51.4799988 135.4499292  88.8754111  51.7793386
 138.1550012  77.4454997  47.6849988 137.2930012  77.3584997  47.2779988
 138.1320012  78.3014997  48.1129988 138.0340330  77.5492765  47.6871863
 142.8180012  77.1674997  51.0599988 143.2380012  76.7524997  51.8129988
 141.8850012  76.9894997  51.1769988 142.7493644  77.0865900  51.1789539
 142.4790012  79.6604997  38.3449988 142.2260012  79.6794997  39.2679988
 142.2230012  78.7884997  38.0439988 142.4097790  79.5452437  38.4306263
 138.2460012  82.4114997  48.7799988 137.6040012  82.3704997  49.4889988
 138.2830012  83.3374997  48.5429988 138.1631324  82.5311559  48.8449824
 138.2430012  82.6324997  43.6919988 137.3500012  82.2914997  43.6339988
 138.6930012  82.2554997  42.9369988 138.1817305  82.5348484  43.5819177
 143.7780012  83.0484997  42.5089988 143.3690012  83.8634997  42.2179988
 144.4990012  82.9084997  41.8949988 143.8194537  83.1412018  42.3861342
 142.8800012  83.2234997  53.9969988 142.3180012  82.5194997  54.3179988
 143.7070012  83.1034997  54.4649988 142.9147095  83.1107883  54.1042330
 144.7830012  82.4944997  45.3229988 144.5880012  83.0994997  44.6079988
 144.9640012  81.6604997  44.8889988 144.7807614  82.4646300  45.1664405
 135.9960012  82.7314997  50.6469988 135.9580012  83.1314997  51.5159988
 135.5050012  81.9144997  50.7379988 135.9244684  82.6758069  50.7781059
 139.3620012  80.1054997  37.4459988 138.9310012  79.6604997  38.1759988
 138.6440012  80.4774997  36.9339988 139.2059438  80.0948940  37.4766799
 132.6040012  79.8474997  44.4979988 133.2350012  79.8184997  45.2169988
 133.0530012  79.4224997  43.7679988 132.7510774  79.7860492  44.4976553
 133.8780012  80.5934997  39.9219988 134.3520012  81.1844997  39.3369988
 133.1610012  81.1244997  40.2689988 133.8459341  80.7460867  39.8888836
 144.0470012  84.1324997  49.9949988 144.3700012  83.5014997  49.3519988
 143.6070012  83.5974997  50.6549988 144.0316895  83.9738441  49.9962850
 140.8240012  80.0594997  44.7789988 139.9130012  80.1164997  45.0669988
 141.3300012  79.9994997  45.5889988 140.7675413  80.0591985  44.9280622
 135.6530012  81.6884997  43.6049988 134.7630012  81.7884997  43.2649988
 135.9490012  80.8464997  43.2589988 135.5712823  81.5883546  43.5117213
 139.3060012  81.6884997  41.2619988 140.2370012  81.8174997  41.4399988
 139.0910012  82.3584997  40.6119988 139.4044247  81.7966565  41.1985747
 137.9800012  82.8834997  38.8289988 137.4370012  82.5034997  38.1369988
 138.8130012  83.0774997  38.3999988 138.0184399  82.8578124  38.6764526
 136.1150012  87.4404997  53.9279988 136.8470012  87.6944997  54.4889988
 135.3350012  87.6444997  54.4429988 136.1098232  87.5029177  54.0745760
 142.1440012  82.8474997  46.6659988 142.7090012  82.3004997  46.1189988
 141.9970012  82.3254997  47.4539988 142.2012918  82.7022024  46.6978454
 137.1460012  78.9834997  43.0839988 136.8290012  78.0814997  43.0489988
 137.9280012  78.9854997  42.5309988 137.2082284  78.8601628  43.0044783
 140.7710012  81.2354997  49.0799988 139.9350012  81.6894997  49.1899988
 141.2950012  81.5114997  49.8319988 140.7274414  81.3349376  49.1967136
 141.3150012  87.4484997  40.7639988 140.5700012  86.9414997  40.4419988
 141.1810012  87.4974997  41.7109988 141.1948776  87.3856940  40.8478647
 142.8340012  87.6324997  52.0009988 142.4890012  87.2514997  52.8079988
 142.6340012  88.5664997  52.0729988 142.7598061  87.7065228  52.1210961
 136.4400012  86.7434997  46.5339988 137.1850012  86.7414997  45.9329988
 136.5180012  85.9204997  47.0159988 136.5525518  86.6319315  46.5168929
 143.4410012  88.9074997  39.7899988 143.1450012  89.7334997  40.1709988
 142.7380012  88.2874997  39.9859988 143.3054914  88.9368199  39.8686443
 133.4480012  85.2044997  51.8489988 133.6710012  84.7864997  52.6809988
 132.8460012  84.5914997  51.4259988 133.3971759  85.0644668  51.9057022
 140.4640012  84.7214997  54.0619988 140.1680012  84.5554997  53.1669988
 141.3960012  84.5014997  54.0509988 140.5494166  84.6690640  53.9380536
 138.8150012  90.2614997  43.9379988 139.3420012  91.0344997  43.7379988
 137.9350012  90.4864997  43.6369988 138.7681773  90.3978005  43.8699010
 134.5700012  85.1234997  38.5249988 135.1860012  85.7504997  38.9049988
 133.7080012  85.4394997  38.7969988 134.5377698  85.2519430  38.6137183
 140.2420012  87.9244997  43.5149988 140.0010012  88.8494997  43.5559988
 139.5010012  87.4654997  43.9109988 140.1088409  87.9891421  43.5741377
 140.7570012  92.0734997  49.8299988 141.1190012  92.9284997  49.5959988
 141.2880012  91.7814997  50.5699988 140.8784473  92.1511060  49.8980855
 138.9250012  92.9464997  43.0599988 137.9750012  93.0514997  43.1109988
 139.2770012  93.7664997  43.4049988 138.8424203  93.0718314  43.1136650
 144.3010012  88.1724997  49.5299988 143.8750012  87.9454997  50.3569988
 144.8810012  87.4344997  49.3479988 144.3211868  88.0415299  49.6185830
 135.0820012  79.9574997  51.4069988 134.1890012  80.2964997  51.3389988
 134.9830012  79.1024997  51.8249988 134.9464164  79.8882588  51.4542235
 134.7330012  91.7624997  49.8419988 134.9500012  90.8304997  49.8109988
 134.9790012  92.0364997  50.7249988 134.7959549  91.6720636  49.9571763
 140.5950012  90.2134997  37.0509988 140.8340012  89.4654997  36.5039988
 140.3260012  89.8254997  37.8839988 140.5913675  90.0586638  37.0886865
 139.5320012  89.7834997  39.5079988 139.6780012  89.2634997  40.2979988
 139.5290012  90.6904997  39.8139988 139.5515989  89.8348853  39.6576088
 135.9850012  87.0364997  40.0179988 135.2990012  87.3884997  40.5849988
 136.5070012  87.7994997  39.7709988 135.9616852  87.1878578  40.0622118
 143.8160012  79.6984997  50.2969988 144.5150012  79.7724997  50.9469988
 143.4350012  78.8344997  50.4509988 143.8601767  79.5917624  50.4068322
 144.6010012  79.3504997  41.3939988 144.8210012  79.8224997  40.5909988
 145.1590012  79.7454997  42.0639988 144.7064968  79.4684285  41.3747331
 142.2690012  91.4814997  40.2569988 141.4530012  91.9784997  40.3089988
 142.7990012  91.9564997  39.6169988 142.2289161  91.6137722  40.1775956
 141.8010012  81.0784997  42.2289988 142.6130012  81.5834997  42.2749988
 141.5560012  80.9334997  43.1429988 141.8790520  81.1280375  42.3588517
 142.3360012  82.0644997  51.4139988 142.4550012  82.6384997  52.1709988
 142.9920012  81.3764997  51.5279988 142.4409757  82.0501079  51.5330825
 142.6840012  78.1594997  43.1669988 142.3380012  78.7774997  43.8119988
 143.3430012  78.6604997  42.6859988 142.7257826  78.3115802  43.1900971
 139.6080012  92.5254997  40.2389988 139.7680012  93.3244997  39.7379988
 139.4100012  92.8314997  41.1239988 139.6031649  92.6764469  40.2899815
 138.3420012  79.2224997  39.8539988 138.2590012  80.1114997  40.2009988
 139.2320012  78.9574997  40.0859988 138.4509469  79.3081430  39.9327626
 136.6010012  89.6504997  38.9149988 137.1930012  90.3494997  39.1909988
 137.0600012  89.2174997  38.1949988 136.7441142  89.6877049  38.8554830
 134.9170012  82.3144997  38.0309988 134.8720012  83.2534997  38.2089988
 134.0290012  82.0784997  37.7609988 134.7908574  82.4111892  38.0188912
 135.7250012  77.0964997  46.7039988 135.4960012  77.1554997  45.7759988
 135.2820012  76.3044997  47.0099988 135.6338530  76.9975753  46.6184786
 134.6550012  91.0364997  42.8639988 133.8230012  91.5094997  42.8919988
 135.2010012  91.5464997  42.2659988 134.6149739  91.1701871  42.7869716
 133.9430012  93.6494997  54.1939988 134.4840012  93.4324997  54.9539988
 133.4620012  92.8434997  54.0049988 133.9519345  93.5109514  54.2723076
 138.5410012  92.5684997  55.8149988 139.3080012  92.1094997  56.1559988
 138.5190012  92.3424997  54.8849988 138.6431434  92.4750409  55.7360043
 142.6330012  92.0764997  37.1899988 141.9890012  91.4454997  37.5109988
 143.3950012  91.5454997  36.9579988 142.6478077  91.9182920  37.2026011
 133.8500012  87.4594997  55.1489988 133.9940012  86.5574997  54.8619988
 133.0780012  87.7454997  54.6609988 133.7653322  87.3748261  55.0437881
 138.1920012  87.8034997  37.2809988 138.2560012  87.0094997  37.8119988
 138.8450012  87.6844997  36.5909988 138.2890241  87.6787148  37.2604317
 140.5060012  87.4294997  54.5809988 140.1770012  87.7004997  53.7239988
 140.6580012  86.4884997  54.4939988 140.4814809  87.3393862  54.4518244
 143.5440012  88.8504997  37.0169988 143.2750012  89.0304997  37.9179988
 143.3380012  87.9244997  36.8859988 143.4793825  88.7500152  37.1225214
 134.6830012  84.6594997  54.5689988 135.0910012  83.8024997  54.4479988
 134.4230012  84.6744997  55.4899988 134.7037568  84.5440807  54.6769588
 139.3410012  85.7754997  39.5869988 138.8810012  85.2914997  40.2729988
 139.5960012  85.1074997  38.9509988 139.3124902  85.6188731  39.5949334
 138.6300012  83.6684997  51.9429988 138.0120012  84.3434997  52.2229988
 138.9740012  83.9894997  51.1099988 138.5919615  83.8042721  51.8686581
 140.4120012  84.0184997  37.8489988 140.2320012  83.8644997  36.9219988
 141.3620012  84.1264997  37.8939988 140.5157776  84.0120175  37.7281843
 143.6500012  86.1404997  55.2199988 144.6030012  86.2234997  55.1929988
 143.4890012  85.4284997  55.8399988 143.7586426  86.0556746  55.3000579
 138.9690012  81.0234997  53.0249988 139.1190012  80.2944997  52.4229988
 138.9720012  81.8004997  52.4659988 138.9899302  81.0287851  52.8670692
 139.3820012  79.3934997  50.5179988 139.9180012  79.8444997  49.8659988
 138.5300012  79.2854997  50.0949988 139.3402178  79.4406390  50.3715756
 140.9640012  84.8324997  50.7569988 141.7140012  84.6764997  50.1839988
 140.6250012  85.6844997  50.4819988 141.0208921  84.9262968  50.6413561
 137.4480012  82.2214997  54.9369988 136.6810012  81.6894997  54.7269988
 138.1270012  81.9114997  54.3369988 137.4347022  82.1067506  54.8271648
 140.1880012  76.8494997  50.9489988 140.0890012  77.7964997  50.8439988
 139.4450012  76.4774997  50.4739988 140.0740564  76.9285902  50.8704560
 141.4520012  81.1714997  54.5129988 141.2160012  80.9514997  55.4149988
 140.6680012  80.9644997  54.0029988 141.3138628  81.1134760  54.5673932
 144.1670012  80.2984997  53.5889988 143.2200012  80.3304997  53.7209988
 144.4800012  79.6734997  54.2419988 144.0795475  80.2183207  53.6954455
 135.6280012  80.1424997  54.6409988 135.8400012  79.4354997  54.0309988
 135.5170012  79.7044997  55.4849988 135.6419721  79.9867084  54.6716843
 140.4090012  76.1434997  53.6209988 141.1210012  75.5034997  53.6069988
 140.3080012  76.4104997  52.7069988 140.4927939  76.0919938  53.4955650
 140.7630012  77.8264997  55.6739988 140.6310012  77.3504997  54.8539988
 140.1640012  78.5704997  55.6189988 140.6639071  77.8619618  55.5542886
 140.3090012  94.7094997  38.8509988 141.2420012  94.8674997  38.9939988
 140.0450012  95.3844997  38.2259988 140.4009510  94.8223611  38.7860741
 133.8780012  89.3454997  38.3329988 134.7920012  89.4244997  38.6069988
 133.8850012  88.6584997  37.6669988 134.0041131  89.2633961  38.2804393
 132.5270012  94.7384997  43.4109988 131.8800012  94.2764997  42.8779988
 132.8810012  94.0664997  43.9929988 132.4863849  94.5844723  43.4167959
 133.3970012  92.8194997  45.2149988 133.0620012  91.9394997  45.3869988
 133.6190012  93.1644997  46.0799988 133.3811783  92.7457500  45.3554208
 133.4770012  85.8944997  47.6669988 133.6610012  85.8124997  46.7309988
 134.3260012  85.7704997  48.0909988 133.6170139  85.8665003  47.5961455
 133.0740012  81.1654997  53.8079988 133.9940012  81.0434997  54.0439988
 132.6250012  80.4154997  54.1969988 133.1391580  81.0473727  53.8929006
 134.2950012  79.4774997  46.6989988 134.7410012  78.6854997  47.0009988
 134.7620012  80.1934997  47.1299988 134.4190172  79.4660624  46.7984820
 132.5990012  82.4764997  47.7679988 133.0910012  82.2554997  46.9769988
 132.9620012  83.3174997  48.0489988 132.7153126  82.5598357  47.6977531
 132.9130012  78.7344997  41.8219988 131.9880012  78.9434997  41.6929988
 133.3670012  79.2184997  41.1329988 132.8477368  78.8285993  41.7111226
 132.8770012  77.4724997  50.1669988 132.2120012  77.2264997  50.8099988
 132.4340012  78.0944997  49.5889988 132.7260956  77.5228632  50.1769352
 135.0690012  90.6474997  54.3109988 134.2480012  90.8224997  53.8509988
 134.8160012  90.5744997  55.2319988 134.9226164  90.6615622  54.3724923
 138.0230012  91.6224997  50.5699988 137.5980012  92.4314997  50.2869988
 138.9270012  91.7074997  50.2679988 138.0870271  91.7448469  50.4903776
 142.3340012  93.0214997  53.5289988 142.5190012  92.6874997  54.4069988
 143.1800012  93.3304997  53.2069988 142.4737539  93.0176047  53.6055605
 144.6790012  94.3074997  52.7729988 145.3560012  93.6744997  52.5329988
 145.0010012  94.7084997  53.5799988 144.8151637  94.2751154  52.8492793
 135.4250012  94.8784997  50.6169988 134.7040012  95.3184997  50.1659988
 135.0590012  94.6274997  51.4659988 135.2769804  94.9047698  50.6699840
 137.8920012  94.4784997  49.6469988 137.0270012  94.5504997  50.0509988
 137.8370012  95.0254997  48.8629988 137.7662085  94.5622685  49.5963362
 142.6020012  94.3664997  48.8219988 142.1460012  94.8954997  48.1679988
 142.7650012  94.9694997  49.5479988 142.5615585  94.5204468  48.8305062
 134.8390012  93.5014997  47.5269988 134.8210012  93.0764997  48.3849988
 135.6440012  93.1834997  47.1189988 134.9453875  93.4003812  47.5891655
 136.9810012  92.2114997  46.1819988 136.7620012  91.2954997  46.3519988
 137.8050012  92.3514997  46.6479988 137.0624420  92.1050520  46.2682774
 139.5180012  92.6814997  47.0309988 139.7310012  91.7934997  46.7439988
 139.5820012  92.6474997  47.9849988 139.5558232  92.5553102  47.1207397
 143.0260012  78.3454997  46.1749988 142.3520012  77.7164997  46.4309988
 143.5900012  77.8614997  45.5719988 143.0099230  78.1938744  46.1285340
 135.3530012  76.9794997  43.9969988 134.5760012  76.7454997  43.4899988
 135.8830012  76.1824997  44.0059988 135.3182330  76.8396988  43.9287742
 134.1890012  76.7774997  39.8009988 134.6280012  77.3884997  39.2089988
 133.5560012  77.3154997  40.2749988 134.1634514  76.9339257  39.7840930
 139.9320012  76.9064997  43.8109988 140.8070012  77.2944997  43.7809988
 139.7960012  76.6914997  44.7329988 140.0333695  76.9305184  43.9316440
 134.0900012  92.7254997  40.6989988 133.4050012  92.6874997  40.0309988
 134.0940012  93.6384997  40.9869988 133.9968193  92.8437016  40.6465284
 136.0500012  78.6934997  38.2429988 136.5420012  78.0634997  37.7159988
 136.6740012  78.9894997  38.9069988 136.2015446  78.6473199  38.2605980
 141.0760012  78.9864997  40.6999988 141.2540012  78.3404997  41.3829988
 141.0230012  79.8204997  41.1679988 141.0931829  79.0107985  40.8565940
 142.9550012  93.9354997  39.0959988 143.8210012  94.3014997  38.9179988
 142.7080012  93.4954997  38.2819988 143.0402392  93.9261756  38.9616289
 135.3110012  77.4934997  53.5149988 134.9450012  76.7284997  53.9579988
 136.2240012  77.5224997  53.8019988 135.3842790  77.3927224  53.6144070
 137.2840012  76.8444997  55.0509988 138.1820012  76.5704997  54.8659988
 136.8970012  76.1014997  55.5149988 137.3546612  76.7065914  55.0883643
 135.9080012  93.6454997  37.7239988 135.6410012  93.9324997  38.5969988
 136.6800012  93.0994997  37.8759988 135.9757488  93.6110294  37.8641050
  12.4390012 104.9914997  43.9559988  12.5280012 105.9354997  43.8239988
  11.8010012 104.7164997  43.2979988  12.3649081 105.0834830  43.8489614
  11.3720012 104.2464997  47.3749988  11.3340012 103.6004997  48.0799988
  11.0500012 103.7804997  46.6039988  11.3232333 104.0949408  47.3672978
   3.7410012 103.8614997  48.9679988   3.7820012 103.2354997  49.6909988
   4.4440012 104.4854997  49.1499988   3.8416363 103.8601196  49.0916044
  15.0780012 107.1854997  45.6759988  14.6380012 106.4654997  46.1269988
  15.0650012 107.9064997  46.3059988  15.0160226 107.1843731  45.8228494
   4.6640012 108.3114997  47.5029988   4.2950012 107.5094997  47.1329988
   5.6050012 108.1424997  47.5489988   4.7407289 108.1790153  47.4586316
   1.2740012 101.9714997  42.8959988   0.8270012 102.8174997  42.8769988
   0.7130012 101.3914997  42.3799988   1.1369900 102.0089916  42.8236801
   1.9850012 104.1334997  45.0219988   2.1980012 103.3634997  45.5489988
   2.7230012 104.2224997  44.4179988   2.1138496 104.0401394  45.0125300
  12.1900012 112.2904997  45.8889988  12.8100012 111.6134997  45.6149988
  11.9820012 112.0724997  46.7969988  12.2466904 112.1683870  45.9743365
   9.7620012 106.6794997  47.7809988  10.0660012 105.9934997  47.1859988
  10.4830012 106.7974997  48.3989988   9.9010671 106.6016305  47.7831816
  18.4250012  98.2804997  48.6419988  18.4740012  98.8904997  49.3779988
  18.8500012  98.7414997  47.9189988  18.4891824  98.4263741  48.6450205
  12.9030012 101.0734997  48.1089988  13.0450012 100.1274997  48.1289988
  12.7960012 101.2804997  47.1799988  12.9079864 100.9719534  47.9862339
   6.0570012  99.1744997  45.3809988   6.1010012 100.0344997  44.9629988
   5.6000012  98.6224997  44.7469988   6.0012185  99.2175799  45.2380299
  13.7800012  99.3054997  43.7819988  14.4260012  98.9764997  44.4069988
  14.2900012  99.8234997  43.1589988  13.9374264  99.3304611  43.7833862
   2.6780012 101.5714997  46.1429988   3.3310012 101.0214997  46.5749988
   2.7020012 101.2974997  45.2259988   2.7706683 101.4591466  46.0782123
   7.8340012 103.1214997  45.3579988   8.4500012 102.5954997  45.8679988
   7.2480012 102.4814997  44.9549988   7.8390810 102.9629208  45.3733173
  18.8160012  99.7584997  50.8779988  18.1280012 100.4164997  50.7819988
  18.8320012  99.5614997  51.8139988  18.7238525  99.8220462  50.9914808
   4.8680012  98.0924997  49.4549988   4.6490012  98.6224997  48.6889988
   4.2000012  98.3194997  50.1019988   4.7477600  98.1956906  49.4376379
  12.2370012 107.5924997  42.9989988  11.9410012 107.2704997  42.1479988
  11.9120012 108.4924997  43.0399988  12.1526371 107.6700215  42.8881801
   7.4370012 105.7684997  49.7419988   6.6970012 106.3664997  49.8459988
   8.1510012 106.3224997  49.4269988   7.4322237 105.9252831  49.7136465
  15.5440012  98.5964997  45.7619988  15.3280012  97.8304997  46.2949988
  16.1990012  99.0684997  46.2749988  15.6030632  98.5555889  45.9042861
   4.4610012  99.9844997  47.4069988   5.0750012 100.6174997  47.7809988
   4.9730012  99.5124997  46.7509988   4.6142296 100.0072370  47.3694252
   5.8440012 107.7324997  50.5299988   5.8390012 108.6124997  50.1519988
   4.9910012 107.6494997  50.9549988   5.7279464 107.8416117  50.5357907
   1.9650012 107.4034997  41.3119988   1.6930012 107.6324997  40.4229988
   2.0110012 108.2414997  41.7719988   1.9340094 107.5481213  41.2525697
  15.5900012 109.0254997  48.0239988  14.6490012 109.0834997  48.1859988
  15.8670012 109.9314997  47.8869988  15.4984679 109.1559443  48.0276815
  15.8910012  97.3114997  49.4419988  15.1550012  97.9224997  49.4039988
  16.5740012  97.7264997  48.9149988  15.8826541  97.4511374  49.3655832
   8.8940012  95.3984997  46.9079988   8.7770012  94.4494997  46.8529988
   8.0390012  95.7304997  47.1809988   8.7623733  95.3135409  46.9373897
  13.8420012 110.8064997  44.6499988  14.2680012 110.0994997  44.1649988
  14.1590012 111.6074997  44.2329988  13.9431019 110.8180994  44.5273130
  15.0020012 108.7074997  43.1579988  14.7440012 108.0174997  42.5469988
  15.0730012 108.2644997  44.0039988  14.9762856 108.5532124  43.1886885
  16.6880012 107.2734997  51.6359988  16.8280012 106.6824997  50.8959988
  16.8550012 108.1464997  51.2789988  16.7296778 107.3106426  51.4866965
  11.1610012 104.2354997  41.4079988  10.4490012 104.7704997  41.0559988
  11.8520012 104.2914997  40.7479988  11.1570132 104.3162543  41.2706289
  11.2140012 102.6934997  38.4469988  11.9150012 102.7154997  39.0979988
  11.5170012 102.0654997  37.7909988  11.3507830 102.6116566  38.4473711
  18.5300012 103.6134997  49.7019988  17.8770012 104.3084997  49.7909988
  18.9950012 103.8234997  48.8919988  18.5035390 103.7369425  49.6046883
  14.5660012 104.4454997  42.3599988  13.8340012 104.6734997  42.9329988
  15.0140012 103.7314997  42.8149988  14.5263095 104.3802571  42.4999119
  14.4640012 102.6194997  51.4269988  14.5440012 103.3824997  51.9989988
  13.8620012 102.8984997  50.7369988  14.3935756 102.7617134  51.4120589
   6.2120012 105.0754997  44.2419988   5.8810012 104.7054997  43.4239988
   6.8000012 104.4054997  44.5889988   6.2461873 104.9341156  44.1768102
   7.5780012 108.5034997  46.9239988   7.4840012 107.9254997  46.1669988
   8.3080012 108.1324997  47.4199988   7.6637981 108.3742390  46.8874165
   6.5780012 103.8444997  47.8759988   7.1440012 103.9654997  47.1129988
   6.8970012 104.4814997  48.5149988   6.6985786 103.9471884  47.8580040
  12.8870012 109.3474997  48.6099988  12.6470012 110.0094997  49.2579988
  12.6890012 108.5134997  49.0349988  12.8273808 109.3253134  48.7561524
   7.4580012 108.2434997  52.5929988   7.1470012 109.0254997  53.0479988
   6.8080012 108.0904997  51.9069988   7.3275558 108.3299105  52.5625871
  13.4370012 103.6074997  40.0449988  14.0170012 103.7574997  40.7919988
  13.8510012 104.0784997  39.3219988  13.5722830 103.6916841  40.0494134
   4.3780012 104.4414997  51.8219988   4.4490012 105.0924997  52.5199988
   3.4880012 104.5444997  51.4869988   4.2673117 104.5445936  51.8722700
  11.1640012 110.3444997  43.4799988  11.6380012 110.6394997  44.2579988
  10.6010012 111.0824997  43.2469988  11.1527653 110.4846932  43.5550136
   5.6980012 110.3154997  53.3559988   5.7050012 110.1794997  52.4089988
   4.7820012 110.1974997  53.6079988   5.5751714 110.2809430  53.2604666
  17.1360012  95.3574997  39.8579988  16.2360012  95.4964997  40.1529988
  17.3880012  96.1884997  39.4559988  17.0468702  95.4889074  39.8440205
   5.2020012 104.1454997  41.8319988   4.9100012 104.9134997  41.3409988
   4.5280012 103.4854997  41.6689988   5.0709081 104.1614406  41.7427340
  18.3250012 109.7234997  38.2339988  18.3990012 110.6624997  38.4049988
  19.2310012 109.4184997  38.1779988  18.4575100 109.8106722  38.2498119
   1.2950012 106.5084997  50.6469988   0.7940012 106.4804997  49.8319988
   1.3000012 105.6024997  50.9559988   1.2271526 106.3822278  50.5772872
   1.0450012 109.2884997  47.5309988   1.9910012 109.1444997  47.5119988
   0.9330012 110.0724997  48.0679988   1.1592727 109.3748046  47.6010072
  19.2430012 109.9544997  53.2129988  19.1940012 108.9994997  53.1759988
  18.4160012 110.2224997  53.6139988  19.1244940 109.8598998  53.2621375
  10.2220012 109.5284997  52.0889988  10.3090012 110.3544997  52.5639988
   9.3580012 109.1984997  52.3379988  10.1171964 109.5969878  52.1876549
  10.6360012 113.3004997  41.8949988  10.5610012 113.1794997  40.9489988
  10.6690012 114.2504997  42.0139988  10.6301848 113.4122500  41.7814834
   4.2890012 112.0894997  43.6759988   4.4420012 111.7414997  44.5549988
   3.4390012 111.7334997  43.4209988   4.1948962 111.9936650  43.7618340
  13.7380012 112.4544997  38.8969988  14.1130012 111.7104997  38.4269988
  13.7420012 112.1844997  39.8159988  13.7898915 112.3161486  38.9567824
  13.4070012 112.3804997  41.6469988  12.4710012 112.4804997  41.8249988
  13.6870012 111.6714997  42.2249988  13.3168255 112.2982711  41.7495391
  16.3950012 101.4474997  53.6929988  15.9880012 101.9284997  52.9719988
  16.4360012 100.5424997  53.3849988  16.3448437 101.3909374  53.5526683
   3.5440012 107.8314997  51.6899988   3.7600012 107.4704997  52.5489988
   2.6890012 107.4574997  51.4799988   3.4579292 107.7314111  51.7793386
   6.1630012  96.3014997  47.6849988   5.3010012  96.2144997  47.2779988
   6.1400012  97.1574997  48.1129988   6.0420330  96.4052765  47.6871863
  10.8260012  96.0234997  51.0599988  11.2460012  95.6084997  51.8129988
   9.8930012  95.8454997  51.1769988  10.7573644  95.9425900  51.1789539
  14.1520012  99.7794997  51.9129988  13.6380012  99.6534997  52.7109988
  13.9970012 100.6914997  51.6689988  14.0606852  99.8856132  51.9892158
  14.9150012 104.6404997  37.6749988  14.9570012 104.4174997  36.7449988
  15.7640012 105.0394997  37.8649988  15.0355396 104.6639155  37.5733627
  10.4870012  98.5164997  38.3449988  10.2340012  98.5354997  39.2679988
  10.2310012  97.6444997  38.0439988  10.4177790  98.4012437  38.4306263
   6.2540012 101.2674997  48.7799988   5.6120012 101.2264997  49.4889988
   6.2910012 102.1934997  48.5429988   6.1711324 101.3871559  48.8449824
   6.2510012 101.4884997  43.6919988   5.3580012 101.1474997  43.6339988
   6.7010012 101.1114997  42.9369988   6.1897305 101.3908484  43.5819177
  11.7860012 101.9044997  42.5089988  11.3770012 102.7194997  42.2179988
  12.5070012 101.7644997  41.8949988  11.8274537 101.9972018  42.3861342
  10.8880012 102.0794997  53.9969988  10.3260012 101.3754997  54.3179988
  11.7150012 101.9594997  54.4649988  10.9227095 101.9667883  54.1042330
  12.7910012 101.3504997  45.3229988  12.5960012 101.9554997  44.6079988
  12.9720012 100.5164997  44.8889988  12.7887614 101.3206300  45.1664405
   4.0040012 101.5874997  50.6469988   3.9660012 101.9874997  51.5159988
   3.5130012 100.7704997  50.7379988   3.9324684 101.5318069  50.7781059
   7.3700012  98.9614997  37.4459988   6.9390012  98.5164997  38.1759988
   6.6520012  99.3334997  36.9339988   7.2139438  98.9508940  37.4766799
   0.6120012  98.7034997  44.4979988   1.2430012  98.6744997  45.2169988
   1.0610012  98.2784997  43.7679988   0.7590774  98.6420492  44.4976553
   1.8860012  99.4494997  39.9219988   2.3600012 100.0404997  39.3369988
   1.1690012  99.9804997  40.2689988   1.8539341  99.6020867  39.8888836
  12.0550012 102.9884997  49.9949988  12.3780012 102.3574997  49.3519988
  11.6150012 102.4534997  50.6549988  12.0396895 102.8298441  49.9962850
   8.8320012  98.9154997  44.7789988   7.9210012  98.9724997  45.0669988
   9.3380012  98.8554997  45.5889988   8.7755413  98.9151985  44.9280622
   3.6610012 100.5444997  43.6049988   2.7710012 100.6444997  43.2649988
   3.9570012  99.7024997  43.2589988   3.5792823 100.4443545  43.5117213
   7.3140012 100.5444997  41.2619988   8.2450012 100.6734997  41.4399988
   7.0990012 101.2144997  40.6119988   7.4124247 100.6526565  41.1985747
  13.2370012  98.1504997  48.0429988  12.5610012  98.2814997  48.7069988
  12.7520012  97.9954997  47.2329988  13.0787145  98.1474905  48.0244517
   5.9880012 101.7394997  38.8289988   5.4450012 101.3594997  38.1369988
   6.8210012 101.9334997  38.3999988   6.0264399 101.7138124  38.6764526
  16.5250012 113.8224997  54.3199988  16.7250012 114.2464997  53.4849988
  17.1800012 114.1654997  54.9269988  16.6410051 113.9269648  54.2877836
   4.1230012 106.2964997  53.9279988   4.8550012 106.5504997  54.4889988
   3.3430012 106.5004997  54.4429988   4.1178232 106.3589177  54.0745760
  10.1520012 101.7034997  46.6659988  10.7170012 101.1564997  46.1189988
  10.0050012 101.1814997  47.4539988  10.2092918 101.5582024  46.6978454
   5.1540012  97.8394997  43.0839988   4.8370012  96.9374997  43.0489988
   5.9360012  97.8414997  42.5309988   5.2162284  97.7161628  43.0044783
   8.7790012 100.0914997  49.0799988   7.9430012 100.5454997  49.1899988
   9.3030012 100.3674997  49.8319988   8.7354414 100.1909376  49.1967136
   9.3230012 106.3044997  40.7639988   8.5780012 105.7974997  40.4419988
   9.1890012 106.3534997  41.7109988   9.2028776 106.2416940  40.8478647
  16.4730012 105.4374997  49.5509988  17.1150012 105.8944997  49.0069988
  15.6430012 105.5504997  49.0879988  16.4485963 105.5152704  49.4140177
  13.2210012  99.1184997  38.9639988  12.2820012  99.2304997  38.8119988
  13.5180012  99.9754997  39.2699988  13.1327666  99.2496443  38.9845768
  10.8420012 106.4884997  52.0009988  10.4970012 106.1074997  52.8079988
  10.6420012 107.4224997  52.0729988  10.7678061 106.5625228  52.1210961
  13.9390012 100.9854997  40.6239988  14.8310012 100.8484997  40.9429988
  13.9960012 101.7764997  40.0879988  14.0686285 101.0736660  40.5951690
   4.4480012 105.5994997  46.5339988   5.1930012 105.5974997  45.9329988
   4.5260012 104.7764997  47.0159988   4.5605518 105.4879315  46.5168929
  11.4490012 107.7634997  39.7899988  11.1530012 108.5894997  40.1709988
  10.7460012 107.1434997  39.9859988  11.3134914 107.7928199  39.8686443
   1.4560012 104.0604997  51.8489988   1.6790012 103.6424997  52.6809988
   0.8540012 103.4474997  51.4259988   1.4051759 103.9204668  51.9057022
   8.4720012 103.5774997  54.0619988   8.1760012 103.4114997  53.1669988
   9.4040012 103.3574997  54.0509988   8.5574166 103.5250640  53.9380536
  13.0930012 108.9504997  51.9519988  12.1920012 109.1334997  51.6839988
  13.1270012 109.2094997  52.8729988  12.9743041 109.0105512  52.0398197
  18.8240012 101.1954997  40.3189988  18.2700012 100.7994997  39.6469988
  18.9240012 102.1054997  40.0409988  18.7617059 101.2643586  40.1894401
  18.7870012 106.9954997  53.1559988  17.9360012 107.2334997  52.7889988
  19.3780012 106.9784997  52.4029988  18.7502487 107.0258258  53.0038893
  17.1190012 109.9814997  40.7839988  16.7460012 109.1554997  41.0929988
  17.3970012 109.7984997  39.8869988  17.1055630 109.8437303  40.7049626
  14.2800012 104.7894997  47.8049988  13.3510012 104.5574997  47.7779988
  14.7310012 104.0124997  47.4749988  14.2139216 104.6527238  47.7566917
   6.8230012 109.1174997  43.9379988   7.3500012 109.8904997  43.7379988
   5.9430012 109.3424997  43.6369988   6.7761773 109.2538005  43.8699010
   2.5780012 103.9794997  38.5249988   3.1940012 104.6064997  38.9049988
   1.7160012 104.2954997  38.7969988   2.5457698 104.1079430  38.6137183
   8.2500012 106.7804997  43.5149988   8.0090012 107.7054997  43.5559988
   7.5090012 106.3214997  43.9109988   8.1168409 106.8451421  43.5741377
   8.7650012 110.9294997  49.8299988   9.1270012 111.7844997  49.5959988
   9.2960012 110.6374997  50.5699988   8.8864473 111.0071060  49.8980855
   6.9330012 111.8024997  43.0599988   5.9830012 111.9074997  43.1109988
   7.2850012 112.6224997  43.4049988   6.8504203 111.9278314  43.1136650
  12.3090012 107.0284997  49.5299988  11.8830012 106.8014997  50.3569988
  12.8890012 106.2904997  49.3479988  12.3291868 106.8975299  49.6185830
  14.5120012 107.9574997  38.6039988  14.8650012 107.5774997  39.4089988
  13.5630012 107.8644997  38.6909988  14.4320441 107.8929596  38.7258559
  14.9670012 111.5804997  51.9999988  14.3660012 111.0254997  51.5039988
  15.2490012 112.2474997  51.3739988  14.9228519 111.5946841  51.8474952
  19.0150012 112.4374997  38.8049988  19.7590012 113.0234997  38.6649988
  18.3210012 113.0054997  39.1389988  19.0230292 112.5945582  38.8309961
   3.0900012  98.8134997  51.4069988   2.1970012  99.1524997  51.3389988
   2.9910012  97.9584997  51.8249988   2.9544164  98.7442588  51.4542235
  15.3780012 106.6304997  40.8309988  15.1000012 105.9024997  41.3869988
  16.3050012 106.7494997  41.0359988  15.4653124 106.5468802  40.9348845
   2.7410012 110.6184997  49.8419988   2.9580012 109.6864997  49.8109988
   2.9870012 110.8924997  50.7249988   2.8039549 110.5280636  49.9571763
   8.6030012 109.0694997  37.0509988   8.8420012 108.3214997  36.5039988
   8.3340012 108.6814997  37.8839988   8.5993675 108.9146638  37.0886865
   7.5400012 108.6394997  39.5079988   7.6860012 108.1194997  40.2979988
   7.5370012 109.5464997  39.8139988   7.5595989 108.6908853  39.6576088
   3.9930012 105.8924997  40.0179988   3.3070012 106.2444997  40.5849988
   4.5150012 106.6554997  39.7709988   3.9696852 106.0438578  40.0622118
  11.8240012  98.5544997  50.2969988  12.5230012  98.6284997  50.9469988
  11.4430012  97.6904997  50.4509988  11.8681767  98.4477624  50.4068322
  12.6090012  98.2064997  41.3939988  12.8290012  98.6784997  40.5909988
  13.1670012  98.6014997  42.0639988  12.7144968  98.3244285  41.3747331
  10.2770012 110.3374997  40.2569988   9.4610012 110.8344997  40.3089988
  10.8070012 110.8124997  39.6169988  10.2369161 110.4697722  40.1775956
   9.8090012  99.9344997  42.2289988  10.6210012 100.4394997  42.2749988
   9.5640012  99.7894997  43.1429988   9.8870520  99.9840375  42.3588517
  10.3440012 100.9204997  51.4139988  10.4630012 101.4944997  52.1709988
  11.0000012 100.2324997  51.5279988  10.4489757 100.9061079  51.5330825
  10.6920012  97.0154997  43.1669988  10.3460012  97.6334997  43.8119988
  11.3510012  97.5164997  42.6859988  10.7337826  97.1675802  43.1900971
   7.6160012 111.3814997  40.2389988   7.7760012 112.1804997  39.7379988
   7.4180012 111.6874997  41.1239988   7.6111649 111.5324469  40.2899815
   6.3500012  98.0784997  39.8539988   6.2670012  98.9674997  40.2009988
   7.2400012  97.8134997  40.0859988   6.4589469  98.1641430  39.9327626
  16.5490012  98.8274997  52.2489988  15.6320012  99.0904997  52.1609988
  16.8840012  98.8244997  51.3519988  16.4689900  98.8630224  52.1157919
  15.1510012 102.5784997  46.3439988  14.3530012 102.1634997  46.0159988
  15.5960012 101.8874997  46.8349988  15.1019885 102.4283543  46.3654889
   4.6090012 108.5064997  38.9149988   5.2010012 109.2054997  39.1909988
   5.0680012 108.0734997  38.1949988   4.7521142 108.5437049  38.8554830
   2.9250012 101.1704997  38.0309988   2.8800012 102.1094997  38.2089988
   2.0370012 100.9344997  37.7609988   2.7988574 101.2671892  38.0188912
  16.2370012 111.8344997  47.9669988  16.0820012 112.5124997  47.3099988
  17.1700012 111.9064997  48.1699988  16.3418500 111.9370170  47.9045119
   3.7330012  95.9524997  46.7039988   3.5040012  96.0114997  45.7759988
   3.2900012  95.1604997  47.0099988   3.6418530  95.8535753  46.6184786
   2.6630012 109.8924997  42.8639988   1.8310012 110.3654997  42.8919988
   3.2090012 110.4024997  42.2659988   2.6229739 110.0261871  42.7869716
   1.9510012 112.5054997  54.1939988   2.4920012 112.2884997  54.9539988
   1.4700012 111.6994997  54.0049988   1.9599345 112.3669514  54.2723076
   6.5490012 111.4244997  55.8149988   7.3160012 110.9654997  56.1559988
   6.5270012 111.1984997  54.8849988   6.6511434 111.3310409  55.7360043
  10.6410012 110.9324997  37.1899988   9.9970012 110.3014997  37.5109988
  11.4030012 110.4014997  36.9579988  10.6558077 110.7742920  37.2026011
  13.1260012 109.8044997  54.5439988  12.7750012 108.9484997  54.7869988
  13.8520012 109.9474997  55.1509988  13.1760769 109.7065636  54.6593619
  15.2450012 110.7494997  37.4239988  15.5280012 109.9554997  37.8759988
  15.9850012 110.9824997  36.8629988  15.3837486 110.6722803  37.4100698
   1.8580012 106.3154997  55.1489988   2.0020012 105.4134997  54.8619988
   1.0860012 106.6014997  54.6609988   1.7733322 106.2308261  55.0437881
   6.2000012 106.6594997  37.2809988   6.2640012 105.8654997  37.8119988
   6.8530012 106.5404997  36.5909988   6.2970241 106.5347148  37.2604317
   8.5140012 106.2854997  54.5809988   8.1850012 106.5564997  53.7239988
   8.6660012 105.3444997  54.4939988   8.4894809 106.1953862  54.4518244
  11.5520012 107.7064997  37.0169988  11.2830012 107.8864997  37.9179988
  11.3460012 106.7804997  36.8859988  11.4873825 107.6060152  37.1225214
  14.2480012 106.2014997  51.9649988  14.9940012 106.7894997  51.8449988
  13.4910012 106.7834997  52.0279988  14.2477554 106.3607011  51.9570907
   2.6910012 103.5154997  54.5689988   3.0990012 102.6584997  54.4479988
   2.4310012 103.5304997  55.4899988   2.7117568 103.4000807  54.6769588
   7.3490012 104.6314997  39.5869988   6.8890012 104.1474997  40.2729988
   7.6040012 103.9634997  38.9509988   7.3204902 104.4748731  39.5949334
   6.6380012 102.5244997  51.9429988   6.0200012 103.1994997  52.2229988
   6.9820012 102.8454997  51.1099988   6.5999615 102.6602721  51.8686581
   8.4200012 102.8744997  37.8489988   8.2400012 102.7204997  36.9219988
   9.3700012 102.9824997  37.8939988   8.5237776 102.8680175  37.7281843
  11.6580012 104.9964997  55.2199988  12.6110012 105.0794997  55.1929988
  11.4970012 104.2844997  55.8399988  11.7666426 104.9116746  55.3000579
  17.8100012 105.2294997  37.2949988  17.5360012 104.8044997  36.4819988
  17.8490012 106.1604997  37.0779988  17.7777699 105.2972484  37.1543610
   6.9770012  99.8794997  53.0249988   7.1270012  99.1504997  52.4229988
   6.9800012 100.6564997  52.4659988   6.9979302  99.8847851  52.8670692
   7.3900012  98.2494997  50.5179988   7.9260012  98.7004997  49.8659988
   6.5380012  98.1414997  50.0949988   7.3482178  98.2966390  50.3715756
   8.9720012 103.6884997  50.7569988   9.7220012 103.5324997  50.1839988
   8.6330012 104.5404997  50.4819988   9.0288921 103.7822968  50.6413561
  13.3870012 101.5034997  55.7859988  13.5800012 100.5724997  55.6739988
  14.2450012 101.9284997  55.7759988  13.5293020 101.4336389  55.7693361
  14.7040012 104.2924997  53.8629988  14.4230012 105.0014997  53.2859988
  15.6470012 104.2194997  53.7119988  14.7929027 104.3797646  53.7635551
   5.4560012 101.0774997  54.9369988   4.6890012 100.5454997  54.7269988
   6.1350012 100.7674997  54.3369988   5.4427022 100.9627506  54.8271648
   8.1960012  95.7054997  50.9489988   8.0970012  96.6524997  50.8439988
   7.4530012  95.3334997  50.4739988   8.0820564  95.7845902  50.8704560
   9.4600012 100.0274997  54.5129988   9.2240012  99.8074997  55.4149988
   8.6760012  99.8204997  54.0029988   9.3218628  99.9694760  54.5673932
  12.1750012  99.1544997  53.5889988  11.2280012  99.1864997  53.7209988
  12.4880012  98.5294997  54.2419988  12.0875475  99.0743207  53.6954455
  13.8090012  97.7884997  55.5939988  13.7130012  96.8364997  55.5879988
  13.4880012  98.0574997  56.4539988  13.7524070  97.6944035  55.7095441
   3.6360012  98.9984997  54.6409988   3.8480012  98.2914997  54.0309988
   3.5250012  98.5604997  55.4849988   3.6499721  98.8427084  54.6716843
   8.4170012  94.9994997  53.6209988   9.1290012  94.3594997  53.6069988
   8.3160012  95.2664997  52.7069988   8.5007939  94.9479938  53.4955650
   8.7710012  96.6824997  55.6739988   8.6390012  96.2064997  54.8539988
   8.1720012  97.4264997  55.6189988   8.6719071  96.7179618  55.5542886
   8.3170012 113.5654997  38.8509988   9.2500012 113.7234997  38.9939988
   8.0530012 114.2404997  38.2259988   8.4089510 113.6783611  38.7860741
   1.8860012 108.2014997  38.3329988   2.8000012 108.2804997  38.6069988
   1.8930012 107.5144997  37.6669988   2.0121131 108.1193961  38.2804393
   0.5350012 113.5944997  43.4109988  -0.1119988 113.1324997  42.8779988
   0.8890012 112.9224997  43.9929988   0.4943849 113.4404723  43.4167959
   1.4050012 111.6754997  45.2149988   1.0700012 110.7954997  45.3869988
   1.6270012 112.0204997  46.0799988   1.3891783 111.6017501  45.3554208
  18.9530012 112.4844997  48.1959988  18.9320012 112.6694997  49.1349988
  19.6440012 113.0534997  47.8549988  19.0434618 112.5866606  48.2783864
  18.5170012 112.0524997  51.1179988  18.0290012 111.3164997  50.7469988
  19.0660012 111.6584997  51.7959988  18.5244872 111.8986249  51.1589160
  16.9670012 107.8414997  55.7559988  16.1010012 107.7364997  56.1499988
  17.3440012 108.6004997  56.2019988  16.8993308 107.9296900  55.8702393
  18.2680012 106.0984997  41.2699988  19.1180012 106.5194997  41.3969988
  18.2740012 105.3584997  41.8769988  18.3851372 106.0560803  41.3694344
  18.6630012 104.1514997  43.0939988  17.9360012 103.6724997  43.4909988
  19.2440012 104.3574997  43.8259988  18.6419375 104.1137090  43.2474129
  18.4220012 106.9364997  48.0409988  19.2550012 106.5584997  47.7609988
  18.5340012 107.8794997  47.9219988  18.5512647 107.0122218  47.9865487
  16.9080012 109.8144997  50.3479988  16.2610012 110.1394997  50.9739988
  16.3910012 109.3744997  49.6739988  16.7494029 109.7995004  50.3425827
  18.9310012 104.0524997  39.4849988  18.4090012 104.4094997  38.7659988
  18.8980012 104.7274997  40.1629988  18.8551634 104.1925413  39.4783145
  17.2800012 101.2924997  38.0359988  17.3760012 101.9594997  37.3549988
  17.1400012 100.4764997  37.5539988  17.2742135 101.2734500  37.8778491
  16.4490012 102.6724997  43.6569988  16.2990012 101.7274997  43.6359988
  16.0960012 102.9534997  44.4999988  16.3806625 102.5810441  43.7682346
   1.4850012 104.7504997  47.6669988   1.6690012 104.6684997  46.7309988
   2.3340012 104.6264997  48.0909988   1.6250139 104.7225003  47.5961455
  17.3060012 104.6424997  53.2949988  17.8890012 103.9084997  53.4869988
  17.8700012 105.4144997  53.3419988  17.4619769 104.6464227  53.3276159
  18.8020012 102.5454997  53.9799988  17.9390012 102.1664997  53.8139988
  19.4070012 101.8064997  53.9059988  18.7655979 102.3938023  53.9472817
  16.5270012  98.7004997  37.1529988  17.1380012  98.3294997  37.7899988
  15.6910012  98.2794997  37.3489988  16.4975032  98.5927554  37.2667035
  16.1600012 100.2554997  42.1189988  16.4400012  99.3484997  42.2429988
  16.9190012 100.6894997  41.7299988  16.3009277 100.1900942  42.0833682
  16.7720012 100.8364997  47.5549988  17.7050012 101.0484997  47.5209988
  16.5370012 100.9384997  48.4769988  16.8678036 100.8792769  47.6749976
  16.8010012 101.5734997  50.3309988  15.9580012 101.8414997  50.6969988
  17.2430012 102.3954997  50.1199988  16.7454158 101.7213291  50.3525491
   1.0820012 100.0214997  53.8079988   2.0020012  99.8994997  54.0439988
   0.6330012  99.2714997  54.1969988   1.1471580  99.9033727  53.8929006
  19.0840012  95.5534997  55.6839988  19.4340012  94.8994997  55.0789988
  19.2310012  96.3904997  55.2449988  19.1518419  95.5771591  55.5417118
  16.7730012  97.5184997  42.1669988  16.9560012  97.0694997  42.9929988
  16.1740012  96.9334997  41.7039988  16.7170202  97.3779975  42.2173275
   2.3030012  98.3334997  46.6989988   2.7490012  97.5414997  47.0009988
   2.7700012  99.0494997  47.1299988   2.4270172  98.3220624  46.7984820
   0.6070012 101.3324997  47.7679988   1.0990012 101.1114997  46.9769988
   0.9700012 102.1734997  48.0489988   0.7233126 101.4158357  47.6977531
  18.6040012  97.6624997  54.0339988  17.6860012  97.9334997  53.9979988
  18.7270012  97.1274997  53.2489988  18.4951066  97.6272892  53.9230487
  18.6400012  97.5854997  38.6949988  19.0520012  96.8644997  38.2199988
  19.3220012  98.2554997  38.7539988  18.7885885  97.5772368  38.6378915
   0.9210012  97.5904997  41.8219988  -0.0039988  97.7994997  41.6929988
   1.3750012  98.0744997  41.1329988   0.8557368  97.6845993  41.7111226
  15.6920012 112.5744997  43.7679988  16.3440012 112.2274997  43.1599988
  16.2020012 113.0634997  44.4139988  15.8502637 112.5930597  43.7720236
   0.8850012  96.3284997  50.1669988   0.2200012  96.0824997  50.8099988
   0.4420012  96.9504997  49.5889988   0.7340956  96.3788632  50.1769352
   3.0770012 109.5034997  54.3109988   2.2560012 109.6784997  53.8509988
   2.8240012 109.4304997  55.2319988   2.9306164 109.5175622  54.3724923
   6.0310012 110.4784997  50.5699988   5.6060012 111.2874997  50.2869988
   6.9350012 110.5634997  50.2679988   6.0950271 110.6008469  50.4903776
  10.3420012 111.8774997  53.5289988  10.5270012 111.5434997  54.4069988
  11.1880012 112.1864997  53.2069988  10.4817539 111.8736047  53.6055605
  12.6870012 113.1634997  52.7729988  13.3640012 112.5304997  52.5329988
  13.0090012 113.5644997  53.5799988  12.8231637 113.1311154  52.8492793
  17.6040012  95.7524997  51.8529988  16.7920012  96.0774997  51.4649988
  17.8370012  94.9924997  51.3199988  17.5243423  95.6942436  51.7278253
   3.4330012 113.7344997  50.6169988   2.7120012 114.1744997  50.1659988
   3.0670012 113.4834997  51.4659988   3.2849804 113.7607698  50.6699840
   5.9000012 113.3344997  49.6469988   5.0350012 113.4064997  50.0509988
   5.8450012 113.8814997  48.8629988   5.7742085 113.4182685  49.5963362
  10.6100012 113.2224997  48.8219988  10.1540012 113.7514997  48.1679988
  10.7730012 113.8254997  49.5479988  10.5695585 113.3764468  48.8305062
  12.9380012 112.1004997  49.7669988  12.0330012 112.2654997  49.5019988
  13.3670012 112.9534997  49.7019988  12.8720799 112.2384483  49.7219182
  15.5420012 113.6704997  50.0619988  15.3600012 114.5864997  49.8519988
  15.7190012 113.2604997  49.2159988  15.5410210 113.7404822  49.9187885
   2.8470012 112.3574997  47.5269988   2.8290012 111.9324997  48.3849988
   3.6520012 112.0394997  47.1189988   2.9533875 112.2563812  47.5891655
   4.9890012 111.0674997  46.1819988   4.7700012 110.1514997  46.3519988
   5.8130012 111.2074997  46.6479988   5.0704420 110.9610520  46.2682774
   7.5260012 111.5374997  47.0309988   7.7390012 110.6494997  46.7439988
   7.5900012 111.5034997  47.9849988   7.5638232 111.4113102  47.1207397
  11.0340012  97.2014997  46.1749988  10.3600012  96.5724997  46.4309988
  11.5980012  96.7174997  45.5719988  11.0179230  97.0498744  46.1285340
  16.1770012  95.3094997  46.2879988  16.7810012  95.8564997  45.7859988
  15.3070012  95.6284997  46.0479988  16.1421241  95.4275806  46.1867654
  17.9040012  96.4474997  44.6209988  18.5160012  95.9334997  44.0949988
  18.2860012  97.3254997  44.6449988  18.0394540  96.4957140  44.5521830
   3.3610012  95.8354997  43.9969988   2.5840012  95.6014997  43.4899988
   3.8910012  95.0384997  44.0059988   3.3262330  95.6956988  43.9287742
   2.1970012  95.6334997  39.8009988   2.6360012  96.2444997  39.2089988
   1.5640012  96.1714997  40.2749988   2.1714514  95.7899257  39.7840930
   7.9400012  95.7624997  43.8109988   8.8150012  96.1504997  43.7809988
   7.8040012  95.5474997  44.7329988   8.0413695  95.7865184  43.9316440
  13.4970012  95.7924997  45.4599988  13.5730012  95.8874997  44.5099988
  13.2220012  94.8844997  45.5889988  13.4702321  95.6827867  45.3475079
  14.8500012  95.8184997  41.1519988  14.1480012  96.4334997  40.9429988
  14.4060012  94.9804997  41.2829988  14.6936330  95.7895783  41.1410328
   2.0980012 111.5814997  40.6989988   1.4130012 111.5434997  40.0309988
   2.1020012 112.4944997  40.9869988   2.0048193 111.6997016  40.6465284
   4.0580012  97.5494997  38.2429988   4.5500012  96.9194997  37.7159988
   4.6820012  97.8454997  38.9069988   4.2095446  97.5033199  38.2605980
   9.0840012  97.8424997  40.6999988   9.2620012  97.1964997  41.3829988
   9.0310012  98.6764997  41.1679988   9.1011829  97.8667985  40.8565940
  10.9630012 112.7914997  39.0959988  11.8290012 113.1574997  38.9179988
  10.7160012 112.3514997  38.2819988  11.0482392 112.7821756  38.9616289
  17.6720012 112.3544997  41.7749988  17.4770012 111.6064997  41.2099988
  17.6330012 113.1124997  41.1919988  17.6400380 112.3546099  41.6188384
   3.3190012  96.3494997  53.5149988   2.9530012  95.5844997  53.9579988
   4.2320012  96.3784997  53.8019988   3.3922790  96.2487224  53.6144070
   5.2920012  95.7004997  55.0509988   6.1900012  95.4264997  54.8659988
   4.9050012  94.9574997  55.5149988   5.3626612  95.5625914  55.0883643
   3.9160012 112.5014997  37.7239988   3.6490012 112.7884997  38.5969988
   4.6880012 111.9554997  37.8759988   3.9837488 112.4670294  37.8641050
  13.7130012  95.0324997  55.2329988  13.7900012  94.6064997  56.0869988
  14.6070012  95.0464997  54.8899988  13.8443428  94.9760880  55.3035310
  16.8890012 111.1054997  53.9249988  16.1070012 110.9194997  53.4059988
  16.8170012 112.0344997  54.1429988  16.7721777 111.2056492  53.8834048
  31.2950012 104.9914997  43.9559988  31.3840012 105.9354997  43.8239988
  30.6570012 104.7164997  43.2979988  31.2209081 105.0834830  43.8489614
  30.2280012 104.2464997  47.3749988  30.1900012 103.6004997  48.0799988
  29.9060012 103.7804997  46.6039988  30.1792333 104.0949408  47.3672978
  22.5970012 103.8614997  48.9679988  22.6380012 103.2354997  49.6909988
  23.3000012 104.4854997  49.1499988  22.6976363 103.8601196  49.0916044
  33.9340012 107.1854997  45.6759988  33.4940012 106.4654997  46.1269988
  33.9210012 107.9064997  46.3059988  33.8720226 107.1843731  45.8228494
  23.5200012 108.3114997  47.5029988  23.1510012 107.5094997  47.1329988
  24.4610012 108.1424997  47.5489988  23.5967289 108.1790153  47.4586316
  20.1300012 101.9714997  42.8959988  19.6830012 102.8174997  42.8769988
  19.5690012 101.3914997  42.3799988  19.9929900 102.0089916  42.8236801
  20.8410012 104.1334997  45.0219988  21.0540012 103.3634997  45.5489988
  21.5790012 104.2224997  44.4179988  20.9698496 104.0401394  45.0125300
  31.0460012 112.2904997  45.8889988  31.6660012 111.6134997  45.6149988
  30.8380012 112.0724997  46.7969988  31.1026904 112.1683870  45.9743365
  28.6180012 106.6794997  47.7809988  28.9220012 105.9934997  47.1859988
  29.3390012 106.7974997  48.3989988  28.7570671 106.6016305  47.7831816
  37.2810012  98.2804997  48.6419988  37.3300012  98.8904997  49.3779988
  37.7060012  98.7414997  47.9189988  37.3451824  98.4263741  48.6450205
  31.7590012 101.0734997  48.1089988  31.9010012 100.1274997  48.1289988
  31.6520012 101.2804997  47.1799988  31.7639864 100.9719534  47.9862339
  24.9130012  99.1744997  45.3809988  24.9570012 100.0344997  44.9629988
  24.4560012  98.6224997  44.7469988  24.8572185  99.2175799  45.2380299
  32.6360012  99.3054997  43.7819988  33.2820012  98.9764997  44.4069988
  33.1460012  99.8234997  43.1589988  32.7934264  99.3304611  43.7833862
  21.5340012 101.5714997  46.1429988  22.1870012 101.0214997  46.5749988
  21.5580012 101.2974997  45.2259988  21.6266683 101.4591466  46.0782123
  26.6900012 103.1214997  45.3579988  27.3060012 102.5954997  45.8679988
  26.1040012 102.4814997  44.9549988  26.6950810 102.9629208  45.3733173
  37.6720012  99.7584997  50.8779988  36.9840012 100.4164997  50.7819988
  37.6880012  99.5614997  51.8139988  37.5798525  99.8220462  50.9914808
  23.7240012  98.0924997  49.4549988  23.5050012  98.6224997  48.6889988
  23.0560012  98.3194997  50.1019988  23.6037600  98.1956906  49.4376379
  31.0930012 107.5924997  42.9989988  30.7970012 107.2704997  42.1479988
  30.7680012 108.4924997  43.0399988  31.0086371 107.6700215  42.8881801
  26.2930012 105.7684997  49.7419988  25.5530012 106.3664997  49.8459988
  27.0070012 106.3224997  49.4269988  26.2882237 105.9252831  49.7136465
  34.4000012  98.5964997  45.7619988  34.1840012  97.8304997  46.2949988
  35.0550012  99.0684997  46.2749988  34.4590632  98.5555889  45.9042861
  23.3170012  99.9844997  47.4069988  23.9310012 100.6174997  47.7809988
  23.8290012  99.5124997  46.7509988  23.4702296 100.0072370  47.3694252
  24.7000012 107.7324997  50.5299988  24.6950012 108.6124997  50.1519988
  23.8470012 107.6494997  50.9549988  24.5839464 107.8416117  50.5357907
  20.8210012 107.4034997  41.3119988  20.5490012 107.6324997  40.4229988
  20.8670012 108.2414997  41.7719988  20.7900094 107.5481213  41.2525697
  34.4460012 109.0254997  48.0239988  33.5050012 109.0834997  48.1859988
  34.7230012 109.9314997  47.8869988  34.3544679 109.1559443  48.0276815
  34.7470012  97.3114997  49.4419988  34.0110012  97.9224997  49.4039988
  35.4300012  97.7264997  48.9149988  34.7386541  97.4511374  49.3655832
  27.7500012  95.3984997  46.9079988  27.6330012  94.4494997  46.8529988
  26.8950012  95.7304997  47.1809988  27.6183733  95.3135409  46.9373897
  32.6980012 110.8064997  44.6499988  33.1240012 110.0994997  44.1649988
  33.0150012 111.6074997  44.2329988  32.7991019 110.8180994  44.5273130
  33.8580012 108.7074997  43.1579988  33.6000012 108.0174997  42.5469988
  33.9290012 108.2644997  44.0039988  33.8322856 108.5532124  43.1886885
  35.5440012 107.2734997  51.6359988  35.6840012 106.6824997  50.8959988
  35.7110012 108.1464997  51.2789988  35.5856778 107.3106426  51.4866965
  30.0170012 104.2354997  41.4079988  29.3050012 104.7704997  41.0559988
  30.7080012 104.2914997  40.7479988  30.0130132 104.3162543  41.2706289
  30.0700012 102.6934997  38.4469988  30.7710012 102.7154997  39.0979988
  30.3730012 102.0654997  37.7909988  30.2067830 102.6116566  38.4473711
  37.3860012 103.6134997  49.7019988  36.7330012 104.3084997  49.7909988
  37.8510012 103.8234997  48.8919988  37.3595390 103.7369425  49.6046883
  33.4220012 104.4454997  42.3599988  32.6900012 104.6734997  42.9329988
  33.8700012 103.7314997  42.8149988  33.3823095 104.3802571  42.4999119
  33.3200012 102.6194997  51.4269988  33.4000012 103.3824997  51.9989988
  32.7180012 102.8984997  50.7369988  33.2495756 102.7617134  51.4120589
  25.0680012 105.0754997  44.2419988  24.7370012 104.7054997  43.4239988
  25.6560012 104.4054997  44.5889988  25.1021873 104.9341156  44.1768102
  26.4340012 108.5034997  46.9239988  26.3400012 107.9254997  46.1669988
  27.1640012 108.1324997  47.4199988  26.5197981 108.3742390  46.8874165
  25.4340012 103.8444997  47.8759988  26.0000012 103.9654997  47.1129988
  25.7530012 104.4814997  48.5149988  25.5545786 103.9471884  47.8580040
  31.7430012 109.3474997  48.6099988  31.5030012 110.0094997  49.2579988
  31.5450012 108.5134997  49.0349988  31.6833808 109.3253134  48.7561524
  26.3140012 108.2434997  52.5929988  26.0030012 109.0254997  53.0479988
  25.6640012 108.0904997  51.9069988  26.1835558 108.3299105  52.5625871
  32.2930012 103.6074997  40.0449988  32.8730012 103.7574997  40.7919988
  32.7070012 104.0784997  39.3219988  32.4282830 103.6916841  40.0494134
  23.2340012 104.4414997  51.8219988  23.3050012 105.0924997  52.5199988
  22.3440012 104.5444997  51.4869988  23.1233117 104.5445936  51.8722700
  30.0200012 110.3444997  43.4799988  30.4940012 110.6394997  44.2579988
  29.4570012 111.0824997  43.2469988  30.0087653 110.4846932  43.5550136
  24.5540012 110.3154997  53.3559988  24.5610012 110.1794997  52.4089988
  23.6380012 110.1974997  53.6079988  24.4311714 110.2809430  53.2604666
  35.9920012  95.3574997  39.8579988  35.0920012  95.4964997  40.1529988
  36.2440012  96.1884997  39.4559988  35.9028702  95.4889074  39.8440205
  24.0580012 104.1454997  41.8319988  23.7660012 104.9134997  41.3409988
  23.3840012 103.4854997  41.6689988  23.9269081 104.1614406  41.7427340
  37.1810012 109.7234997  38.2339988  37.2550012 110.6624997  38.4049988
  38.0870012 109.4184997  38.1779988  37.3135100 109.8106722  38.2498119
  20.1510012 106.5084997  50.6469988  19.6500012 106.4804997  49.8319988
  20.1560012 105.6024997  50.9559988  20.0831526 106.3822278  50.5772872
  19.9010012 109.2884997  47.5309988  20.8470012 109.1444997  47.5119988
  19.7890012 110.0724997  48.0679988  20.0152727 109.3748046  47.6010072
  38.0990012 109.9544997  53.2129988  38.0500012 108.9994997  53.1759988
  37.2720012 110.2224997  53.6139988  37.9804940 109.8598998  53.2621375
  29.0780012 109.5284997  52.0889988  29.1650012 110.3544997  52.5639988
  28.2140012 109.1984997  52.3379988  28.9731964 109.5969878  52.1876549
  29.4920012 113.3004997  41.8949988  29.4170012 113.1794997  40.9489988
  29.5250012 114.2504997  42.0139988  29.4861848 113.4122500  41.7814834
  23.1450012 112.0894997  43.6759988  23.2980012 111.7414997  44.5549988
  22.2950012 111.7334997  43.4209988  23.0508962 111.9936650  43.7618340
  32.5940012 112.4544997  38.8969988  32.9690012 111.7104997  38.4269988
  32.5980012 112.1844997  39.8159988  32.6458915 112.3161486  38.9567824
  32.2630012 112.3804997  41.6469988  31.3270012 112.4804997  41.8249988
  32.5430012 111.6714997  42.2249988  32.1728255 112.2982711  41.7495391
  35.2510012 101.4474997  53.6929988  34.8440012 101.9284997  52.9719988
  35.2920012 100.5424997  53.3849988  35.2008437 101.3909374  53.5526683
  22.4000012 107.8314997  51.6899988  22.6160012 107.4704997  52.5489988
  21.5450012 107.4574997  51.4799988  22.3139292 107.7314111  51.7793386
  25.0190012  96.3014997  47.6849988  24.1570012  96.2144997  47.2779988
  24.9960012  97.1574997  48.1129988  24.8980330  96.4052765  47.6871863
  29.6820012  96.0234997  51.0599988  30.1020012  95.6084997  51.8129988
  28.7490012  95.8454997  51.1769988  29.6133644  95.9425900  51.1789539
  33.0080012  99.7794997  51.9129988  32.4940012  99.6534997  52.7109988
  32.8530012 100.6914997  51.6689988  32.9166852  99.8856132  51.9892158
  33.7710012 104.6404997  37.6749988  33.8130012 104.4174997  36.7449988
  34.6200012 105.0394997  37.8649988  33.8915396 104.6639155  37.5733627
  29.3430012  98.5164997  38.3449988  29.0900012  98.5354997  39.2679988
  29.0870012  97.6444997  38.0439988  29.2737790  98.4012437  38.4306263
  25.1100012 101.2674997  48.7799988  24.4680012 101.2264997  49.4889988
  25.1470012 102.1934997  48.5429988  25.0271324 101.3871559  48.8449824
  25.1070012 101.4884997  43.6919988  24.2140012 101.1474997  43.6339988
  25.5570012 101.1114997  42.9369988  25.0457305 101.3908484  43.5819177
  30.6420012 101.9044997  42.5089988  30.2330012 102.7194997  42.2179988
  31.3630012 101.7644997  41.8949988  30.6834537 101.9972018  42.3861342
  29.7440012 102.0794997  53.9969988  29.1820012 101.3754997  54.3179988
  30.5710012 101.9594997  54.4649988  29.7787095 101.9667883  54.1042330
  31.6470012 101.3504997  45.3229988  31.4520012 101.9554997  44.6079988
  31.8280012 100.5164997  44.8889988  31.6447614 101.3206300  45.1664405
  22.8600012 101.5874997  50.6469988  22.8220012 101.9874997  51.5159988
  22.3690012 100.7704997  50.7379988  22.7884684 101.5318069  50.7781059
  26.2260012  98.9614997  37.4459988  25.7950012  98.5164997  38.1759988
  25.5080012  99.3334997  36.9339988  26.0699438  98.9508940  37.4766799
  19.4680012  98.7034997  44.4979988  20.0990012  98.6744997  45.2169988
  19.9170012  98.2784997  43.7679988  19.6150774  98.6420492  44.4976553
  20.7420012  99.4494997  39.9219988  21.2160012 100.0404997  39.3369988
  20.0250012  99.9804997  40.2689988  20.7099341  99.6020867  39.8888836
  30.9110012 102.9884997  49.9949988  31.2340012 102.3574997  49.3519988
  30.4710012 102.4534997  50.6549988  30.8956895 102.8298441  49.9962850
  27.6880012  98.9154997  44.7789988  26.7770012  98.9724997  45.0669988
  28.1940012  98.8554997  45.5889988  27.6315413  98.9151985  44.9280622
  22.5170012 100.5444997  43.6049988  21.6270012 100.6444997  43.2649988
  22.8130012  99.7024997  43.2589988  22.4352823 100.4443546  43.5117213
  26.1700012 100.5444997  41.2619988  27.1010012 100.6734997  41.4399988
  25.9550012 101.2144997  40.6119988  26.2684247 100.6526565  41.1985747
  32.0930012  98.1504997  48.0429988  31.4170012  98.2814997  48.7069988
  31.6080012  97.9954997  47.2329988  31.9347145  98.1474905  48.0244517
  24.8440012 101.7394997  38.8289988  24.3010012 101.3594997  38.1369988
  25.6770012 101.9334997  38.3999988  24.8824399 101.7138124  38.6764526
  35.3810012 113.8224997  54.3199988  35.5810012 114.2464997  53.4849988
  36.0360012 114.1654997  54.9269988  35.4970051 113.9269648  54.2877836
  22.9790012 106.2964997  53.9279988  23.7110012 106.5504997  54.4889988
  22.1990012 106.5004997  54.4429988  22.9738232 106.3589177  54.0745760
  29.0080012 101.7034997  46.6659988  29.5730012 101.1564997  46.1189988
  28.8610012 101.1814997  47.4539988  29.0652918 101.5582024  46.6978454
  24.0100012  97.8394997  43.0839988  23.6930012  96.9374997  43.0489988
  24.7920012  97.8414997  42.5309988  24.0722284  97.7161628  43.0044783
  27.6350012 100.0914997  49.0799988  26.7990012 100.5454997  49.1899988
  28.1590012 100.3674997  49.8319988  27.5914414 100.1909376  49.1967136
  28.1790012 106.3044997  40.7639988  27.4340012 105.7974997  40.4419988
  28.0450012 106.3534997  41.7109988  28.0588776 106.2416940  40.8478647
  35.3290012 105.4374997  49.5509988  35.9710012 105.8944997  49.0069988
  34.4990012 105.5504997  49.0879988  35.3045963 105.5152704  49.4140177
  32.0770012  99.1184997  38.9639988  31.1380012  99.2304997  38.8119988
  32.3740012  99.9754997  39.2699988  31.9887666  99.2496443  38.9845768
  29.6980012 106.4884997  52.0009988  29.3530012 106.1074997  52.8079988
  29.4980012 107.4224997  52.0729988  29.6238061 106.5625228  52.1210961
  32.7950012 100.9854997  40.6239988  33.6870012 100.8484997  40.9429988
  32.8520012 101.7764997  40.0879988  32.9246285 101.0736660  40.5951690
  23.3040012 105.5994997  46.5339988  24.0490012 105.5974997  45.9329988
  23.3820012 104.7764997  47.0159988  23.4165518 105.4879315  46.5168929
  30.3050012 107.7634997  39.7899988  30.0090012 108.5894997  40.1709988
  29.6020012 107.1434997  39.9859988  30.1694914 107.7928199  39.8686443
  20.3120012 104.0604997  51.8489988  20.5350012 103.6424997  52.6809988
  19.7100012 103.4474997  51.4259988  20.2611759 103.9204668  51.9057022
  27.3280012 103.5774997  54.0619988  27.0320012 103.4114997  53.1669988
  28.2600012 103.3574997  54.0509988  27.4134166 103.5250640  53.9380536
  31.9490012 108.9504997  51.9519988  31.0480012 109.1334997  51.6839988
  31.9830012 109.2094997  52.8729988  31.8303041 109.0105512  52.0398197
  37.6800012 101.1954997  40.3189988  37.1260012 100.7994997  39.6469988
  37.7800012 102.1054997  40.0409988  37.6177059 101.2643586  40.1894401
  37.6430012 106.9954997  53.1559988  36.7920012 107.2334997  52.7889988
  38.2340012 106.9784997  52.4029988  37.6062487 107.0258258  53.0038893
  35.9750012 109.9814997  40.7839988  35.6020012 109.1554997  41.0929988
  36.2530012 109.7984997  39.8869988  35.9615630 109.8437303  40.7049626
  33.1360012 104.7894997  47.8049988  32.2070012 104.5574997  47.7779988
  33.5870012 104.0124997  47.4749988  33.0699216 104.6527238  47.7566917
  25.6790012 109.1174997  43.9379988  26.2060012 109.8904997  43.7379988
  24.7990012 109.3424997  43.6369988  25.6321773 109.2538005  43.8699010
  21.4340012 103.9794997  38.5249988  22.0500012 104.6064997  38.9049988
  20.5720012 104.2954997  38.7969988  21.4017698 104.1079430  38.6137183
  27.1060012 106.7804997  43.5149988  26.8650012 107.7054997  43.5559988
  26.3650012 106.3214997  43.9109988  26.9728409 106.8451421  43.5741377
  27.6210012 110.9294997  49.8299988  27.9830012 111.7844997  49.5959988
  28.1520012 110.6374997  50.5699988  27.7424473 111.0071060  49.8980855
  25.7890012 111.8024997  43.0599988  24.8390012 111.9074997  43.1109988
  26.1410012 112.6224997  43.4049988  25.7064203 111.9278314  43.1136650
  31.1650012 107.0284997  49.5299988  30.7390012 106.8014997  50.3569988
  31.7450012 106.2904997  49.3479988  31.1851868 106.8975299  49.6185830
  33.3680012 107.9574997  38.6039988  33.7210012 107.5774997  39.4089988
  32.4190012 107.8644997  38.6909988  33.2880441 107.8929596  38.7258559
  33.8230012 111.5804997  51.9999988  33.2220012 111.0254997  51.5039988
  34.1050012 112.2474997  51.3739988  33.7788519 111.5946841  51.8474952
  37.8710012 112.4374997  38.8049988  38.6150012 113.0234997  38.6649988
  37.1770012 113.0054997  39.1389988  37.8790292 112.5945582  38.8309961
  21.9460012  98.8134997  51.4069988  21.0530012  99.1524997  51.3389988
  21.8470012  97.9584997  51.8249988  21.8104164  98.7442588  51.4542235
  34.2340012 106.6304997  40.8309988  33.9560012 105.9024997  41.3869988
  35.1610012 106.7494997  41.0359988  34.3213124 106.5468802  40.9348845
  21.5970012 110.6184997  49.8419988  21.8140012 109.6864997  49.8109988
  21.8430012 110.8924997  50.7249988  21.6599549 110.5280636  49.9571763
  27.4590012 109.0694997  37.0509988  27.6980012 108.3214997  36.5039988
  27.1900012 108.6814997  37.8839988  27.4553675 108.9146638  37.0886865
  26.3960012 108.6394997  39.5079988  26.5420012 108.1194997  40.2979988
  26.3930012 109.5464997  39.8139988  26.4155989 108.6908853  39.6576088
  22.8490012 105.8924997  40.0179988  22.1630012 106.2444997  40.5849988
  23.3710012 106.6554997  39.7709988  22.8256852 106.0438578  40.0622118
  30.6800012  98.5544997  50.2969988  31.3790012  98.6284997  50.9469988
  30.2990012  97.6904997  50.4509988  30.7241767  98.4477624  50.4068322
  31.4650012  98.2064997  41.3939988  31.6850012  98.6784997  40.5909988
  32.0230012  98.6014997  42.0639988  31.5704968  98.3244285  41.3747331
  29.1330012 110.3374997  40.2569988  28.3170012 110.8344997  40.3089988
  29.6630012 110.8124997  39.6169988  29.0929161 110.4697722  40.1775956
  28.6650012  99.9344997  42.2289988  29.4770012 100.4394997  42.2749988
  28.4200012  99.7894997  43.1429988  28.7430520  99.9840375  42.3588517
  29.2000012 100.9204997  51.4139988  29.3190012 101.4944997  52.1709988
  29.8560012 100.2324997  51.5279988  29.3049757 100.9061079  51.5330825
  29.5480012  97.0154997  43.1669988  29.2020012  97.6334997  43.8119988
  30.2070012  97.5164997  42.6859988  29.5897826  97.1675802  43.1900971
  26.4720012 111.3814997  40.2389988  26.6320012 112.1804997  39.7379988
  26.2740012 111.6874997  41.1239988  26.4671649 111.5324469  40.2899815
  25.2060012  98.0784997  39.8539988  25.1230012  98.9674997  40.2009988
  26.0960012  97.8134997  40.0859988  25.3149469  98.1641430  39.9327626
  35.4050012  98.8274997  52.2489988  34.4880012  99.0904997  52.1609988
  35.7400012  98.8244997  51.3519988  35.3249900  98.8630224  52.1157919
  34.0070012 102.5784997  46.3439988  33.2090012 102.1634997  46.0159988
  34.4520012 101.8874997  46.8349988  33.9579885 102.4283543  46.3654889
  23.4650012 108.5064997  38.9149988  24.0570012 109.2054997  39.1909988
  23.9240012 108.0734997  38.1949988  23.6081142 108.5437049  38.8554830
  21.7810012 101.1704997  38.0309988  21.7360012 102.1094997  38.2089988
  20.8930012 100.9344997  37.7609988  21.6548574 101.2671892  38.0188912
  35.0930012 111.8344997  47.9669988  34.9380012 112.5124997  47.3099988
  36.0260012 111.9064997  48.1699988  35.1978500 111.9370170  47.9045119
  22.5890012  95.9524997  46.7039988  22.3600012  96.0114997  45.7759988
  22.1460012  95.1604997  47.0099988  22.4978530  95.8535753  46.6184786
  21.5190012 109.8924997  42.8639988  20.6870012 110.3654997  42.8919988
  22.0650012 110.4024997  42.2659988  21.4789739 110.0261871  42.7869716
  20.8070012 112.5054997  54.1939988  21.3480012 112.2884997  54.9539988
  20.3260012 111.6994997  54.0049988  20.8159345 112.3669514  54.2723076
  25.4050012 111.4244997  55.8149988  26.1720012 110.9654997  56.1559988
  25.3830012 111.1984997  54.8849988  25.5071434 111.3310409  55.7360043
  29.4970012 110.9324997  37.1899988  28.8530012 110.3014997  37.5109988
  30.2590012 110.4014997  36.9579988  29.5118077 110.7742920  37.2026011
  31.9820012 109.8044997  54.5439988  31.6310012 108.9484997  54.7869988
  32.7080012 109.9474997  55.1509988  32.0320769 109.7065636  54.6593619
  34.1010012 110.7494997  37.4239988  34.3840012 109.9554997  37.8759988
  34.8410012 110.9824997  36.8629988  34.2397486 110.6722803  37.4100698
  20.7140012 106.3154997  55.1489988  20.8580012 105.4134997  54.8619988
  19.9420012 106.6014997  54.6609988  20.6293323 106.2308261  55.0437881
  25.0560012 106.6594997  37.2809988  25.1200012 105.8654997  37.8119988
  25.7090012 106.5404997  36.5909988  25.1530241 106.5347148  37.2604317
  27.3700012 106.2854997  54.5809988  27.0410012 106.5564997  53.7239988
  27.5220012 105.3444997  54.4939988  27.3454809 106.1953862  54.4518244
  30.4080012 107.7064997  37.0169988  30.1390012 107.8864997  37.9179988
  30.2020012 106.7804997  36.8859988  30.3433825 107.6060152  37.1225214
  33.1040012 106.2014997  51.9649988  33.8500012 106.7894997  51.8449988
  32.3470012 106.7834997  52.0279988  33.1037554 106.3607011  51.9570907
  21.5470012 103.5154997  54.5689988  21.9550012 102.6584997  54.4479988
  21.2870012 103.5304997  55.4899988  21.5677568 103.4000807  54.6769588
  26.2050012 104.6314997  39.5869988  25.7450012 104.1474997  40.2729988
  26.4600012 103.9634997  38.9509988  26.1764902 104.4748731  39.5949334
  25.4940012 102.5244997  51.9429988  24.8760012 103.1994997  52.2229988
  25.8380012 102.8454997  51.1099988  25.4559615 102.6602721  51.8686581
  27.2760012 102.8744997  37.8489988  27.0960012 102.7204997  36.9219988
  28.2260012 102.9824997  37.8939988  27.3797776 102.8680175  37.7281843
  30.5140012 104.9964997  55.2199988  31.4670012 105.0794997  55.1929988
  30.3530012 104.2844997  55.8399988  30.6226426 104.9116746  55.3000579
  36.6660012 105.2294997  37.2949988  36.3920012 104.8044997  36.4819988
  36.7050012 106.1604997  37.0779988  36.6337699 105.2972484  37.1543610
  25.8330012  99.8794997  53.0249988  25.9830012  99.1504997  52.4229988
  25.8360012 100.6564997  52.4659988  25.8539302  99.8847851  52.8670692
  26.2460012  98.2494997  50.5179988  26.7820012  98.7004997  49.8659988
  25.3940012  98.1414997  50.0949988  26.2042178  98.2966390  50.3715756
  27.8280012 103.6884997  50.7569988  28.5780012 103.5324997  50.1839988
  27.4890012 104.5404997  50.4819988  27.8848921 103.7822968  50.6413561
  32.2430012 101.5034997  55.7859988  32.4360012 100.5724997  55.6739988
  33.1010012 101.9284997  55.7759988  32.3853020 101.4336389  55.7693361
  33.5600012 104.2924997  53.8629988  33.2790012 105.0014997  53.2859988
  34.5030012 104.2194997  53.7119988  33.6489027 104.3797646  53.7635551
  24.3120012 101.0774997  54.9369988  23.5450012 100.5454997  54.7269988
  24.9910012 100.7674997  54.3369988  24.2987022 100.9627506  54.8271648
  27.0520012  95.7054997  50.9489988  26.9530012  96.6524997  50.8439988
  26.3090012  95.3334997  50.4739988  26.9380563  95.7845902  50.8704560
  28.3160012 100.0274997  54.5129988  28.0800012  99.8074997  55.4149988
  27.5320012  99.8204997  54.0029988  28.1778628  99.9694760  54.5673932
  31.0310012  99.1544997  53.5889988  30.0840012  99.1864997  53.7209988
  31.3440012  98.5294997  54.2419988  30.9435475  99.0743207  53.6954455
  32.6650012  97.7884997  55.5939988  32.5690012  96.8364997  55.5879988
  32.3440012  98.0574997  56.4539988  32.6084070  97.6944035  55.7095441
  22.4920012  98.9984997  54.6409988  22.7040012  98.2914997  54.0309988
  22.3810012  98.5604997  55.4849988  22.5059721  98.8427084  54.6716843
  27.2730012  94.9994997  53.6209988  27.9850012  94.3594997  53.6069988
  27.1720012  95.2664997  52.7069988  27.3567939  94.9479938  53.4955650
  27.6270012  96.6824997  55.6739988  27.4950012  96.2064997  54.8539988
  27.0280012  97.4264997  55.6189988  27.5279071  96.7179618  55.5542886
  27.1730012 113.5654997  38.8509988  28.1060012 113.7234997  38.9939988
  26.9090012 114.2404997  38.2259988  27.2649510 113.6783611  38.7860741
  20.7420012 108.2014997  38.3329988  21.6560012 108.2804997  38.6069988
  20.7490012 107.5144997  37.6669988  20.8681131 108.1193961  38.2804393
  19.3910012 113.5944997  43.4109988  18.7440012 113.1324997  42.8779988
  19.7450012 112.9224997  43.9929988  19.3503849 113.4404723  43.4167959
  20.2610012 111.6754997  45.2149988  19.9260012 110.7954997  45.3869988
  20.4830012 112.0204997  46.0799988  20.2451783 111.6017500  45.3554208
  37.8090012 112.4844997  48.1959988  37.7880012 112.6694997  49.1349988
  38.5000012 113.0534997  47.8549988  37.8994618 112.5866606  48.2783864
  37.3730012 112.0524997  51.1179988  36.8850012 111.3164997  50.7469988
  37.9220012 111.6584997  51.7959988  37.3804872 111.8986249  51.1589160
  35.8230012 107.8414997  55.7559988  34.9570012 107.7364997  56.1499988
  36.2000012 108.6004997  56.2019988  35.7553308 107.9296900  55.8702393
  37.1240012 106.0984997  41.2699988  37.9740012 106.5194997  41.3969988
  37.1300012 105.3584997  41.8769988  37.2411372 106.0560803  41.3694344
  37.5190012 104.1514997  43.0939988  36.7920012 103.6724997  43.4909988
  38.1000012 104.3574997  43.8259988  37.4979375 104.1137090  43.2474129
  37.2780012 106.9364997  48.0409988  38.1110012 106.5584997  47.7609988
  37.3900012 107.8794997  47.9219988  37.4072647 107.0122218  47.9865487
  35.7640012 109.8144997  50.3479988  35.1170012 110.1394997  50.9739988
  35.2470012 109.3744997  49.6739988  35.6054029 109.7995004  50.3425827
  37.7870012 104.0524997  39.4849988  37.2650012 104.4094997  38.7659988
  37.7540012 104.7274997  40.1629988  37.7111634 104.1925413  39.4783145
  36.1360012 101.2924997  38.0359988  36.2320012 101.9594997  37.3549988
  35.9960012 100.4764997  37.5539988  36.1302135 101.2734500  37.8778491
  35.3050012 102.6724997  43.6569988  35.1550012 101.7274997  43.6359988
  34.9520012 102.9534997  44.4999988  35.2366625 102.5810441  43.7682346
  20.3410012 104.7504997  47.6669988  20.5250012 104.6684997  46.7309988
  21.1900012 104.6264997  48.0909988  20.4810139 104.7225003  47.5961455
  36.1620012 104.6424997  53.2949988  36.7450012 103.9084997  53.4869988
  36.7260012 105.4144997  53.3419988  36.3179769 104.6464227  53.3276159
  37.6580012 102.5454997  53.9799988  36.7950012 102.1664997  53.8139988
  38.2630012 101.8064997  53.9059988  37.6215979 102.3938023  53.9472817
  35.3830012  98.7004997  37.1529988  35.9940012  98.3294997  37.7899988
  34.5470012  98.2794997  37.3489988  35.3535032  98.5927554  37.2667035
  35.0160012 100.2554997  42.1189988  35.2960012  99.3484997  42.2429988
  35.7750012 100.6894997  41.7299988  35.1569277 100.1900942  42.0833682
  35.6280012 100.8364997  47.5549988  36.5610012 101.0484997  47.5209988
  35.3930012 100.9384997  48.4769988  35.7238036 100.8792769  47.6749976
  35.6570012 101.5734997  50.3309988  34.8140012 101.8414997  50.6969988
  36.0990012 102.3954997  50.1199988  35.6014158 101.7213291  50.3525491
  19.9380012 100.0214997  53.8079988  20.8580012  99.8994997  54.0439988
  19.4890012  99.2714997  54.1969988  20.0031580  99.9033727  53.8929006
  37.9400012  95.5534997  55.6839988  38.2900012  94.8994997  55.0789988
  38.0870012  96.3904997  55.2449988  38.0078419  95.5771591  55.5417118
  35.6290012  97.5184997  42.1669988  35.8120012  97.0694997  42.9929988
  35.0300012  96.9334997  41.7039988  35.5730202  97.3779975  42.2173275
  21.1590012  98.3334997  46.6989988  21.6050012  97.5414997  47.0009988
  21.6260012  99.0494997  47.1299988  21.2830172  98.3220624  46.7984820
  19.4630012 101.3324997  47.7679988  19.9550012 101.1114997  46.9769988
  19.8260012 102.1734997  48.0489988  19.5793126 101.4158357  47.6977531
  37.4600012  97.6624997  54.0339988  36.5420012  97.9334997  53.9979988
  37.5830012  97.1274997  53.2489988  37.3511066  97.6272892  53.9230487
  37.4960012  97.5854997  38.6949988  37.9080012  96.8644997  38.2199988
  38.1780012  98.2554997  38.7539988  37.6445885  97.5772368  38.6378915
  19.7770012  97.5904997  41.8219988  18.8520012  97.7994997  41.6929988
  20.2310012  98.0744997  41.1329988  19.7117368  97.6845993  41.7111226
  34.5480012 112.5744997  43.7679988  35.2000012 112.2274997  43.1599988
  35.0580012 113.0634997  44.4139988  34.7062637 112.5930597  43.7720236
  19.7410012  96.3284997  50.1669988  19.0760012  96.0824997  50.8099988
  19.2980012  96.9504997  49.5889988  19.5900956  96.3788632  50.1769352
  21.9330012 109.5034997  54.3109988  21.1120012 109.6784997  53.8509988
  21.6800012 109.4304997  55.2319988  21.7866164 109.5175622  54.3724923
  24.8870012 110.4784997  50.5699988  24.4620012 111.2874997  50.2869988
  25.7910012 110.5634997  50.2679988  24.9510271 110.6008469  50.4903776
  29.1980012 111.8774997  53.5289988  29.3830012 111.5434997  54.4069988
  30.0440012 112.1864997  53.2069988  29.3377539 111.8736047  53.6055605
  31.5430012 113.1634997  52.7729988  32.2200012 112.5304997  52.5329988
  31.8650012 113.5644997  53.5799988  31.6791637 113.1311154  52.8492793
  36.4600012  95.7524997  51.8529988  35.6480012  96.0774997  51.4649988
  36.6930012  94.9924997  51.3199988  36.3803423  95.6942436  51.7278253
  22.2890012 113.7344997  50.6169988  21.5680012 114.1744997  50.1659988
  21.9230012 113.4834997  51.4659988  22.1409804 113.7607698  50.6699840
  24.7560012 113.3344997  49.6469988  23.8910012 113.4064997  50.0509988
  24.7010012 113.8814997  48.8629988  24.6302085 113.4182685  49.5963362
  29.4660012 113.2224997  48.8219988  29.0100012 113.7514997  48.1679988
  29.6290012 113.8254997  49.5479988  29.4255585 113.3764468  48.8305062
  31.7940012 112.1004997  49.7669988  30.8890012 112.2654997  49.5019988
  32.2230012 112.9534997  49.7019988  31.7280799 112.2384483  49.7219182
  34.3980012 113.6704997  50.0619988  34.2160012 114.5864997  49.8519988
  34.5750012 113.2604997  49.2159988  34.3970210 113.7404822  49.9187885
  21.7030012 112.3574997  47.5269988  21.6850012 111.9324997  48.3849988
  22.5080012 112.0394997  47.1189988  21.8093875 112.2563812  47.5891655
  23.8450012 111.0674997  46.1819988  23.6260012 110.1514997  46.3519988
  24.6690012 111.2074997  46.6479988  23.9264420 110.9610520  46.2682773
  26.3820012 111.5374997  47.0309988  26.5950012 110.6494997  46.7439988
  26.4460012 111.5034997  47.9849988  26.4198231 111.4113102  47.1207397
  29.8900012  97.2014997  46.1749988  29.2160012  96.5724997  46.4309988
  30.4540012  96.7174997  45.5719988  29.8739230  97.0498744  46.1285340
  35.0330012  95.3094997  46.2879988  35.6370012  95.8564997  45.7859988
  34.1630012  95.6284997  46.0479988  34.9981241  95.4275806  46.1867654
  36.7600012  96.4474997  44.6209988  37.3720012  95.9334997  44.0949988
  37.1420012  97.3254997  44.6449988  36.8954540  96.4957140  44.5521830
  22.2170012  95.8354997  43.9969988  21.4400012  95.6014997  43.4899988
  22.7470012  95.0384997  44.0059988  22.1822330  95.6956988  43.9287742
  21.0530012  95.6334997  39.8009988  21.4920012  96.2444997  39.2089988
  20.4200012  96.1714997  40.2749988  21.0274514  95.7899257  39.7840930
  26.7960012  95.7624997  43.8109988  27.6710012  96.1504997  43.7809988
  26.6600012  95.5474997  44.7329988  26.8973695  95.7865184  43.9316440
  32.3530012  95.7924997  45.4599988  32.4290012  95.8874997  44.5099988
  32.0780012  94.8844997  45.5889988  32.3262321  95.6827867  45.3475079
  33.7060012  95.8184997  41.1519988  33.0040012  96.4334997  40.9429988
  33.2620012  94.9804997  41.2829988  33.5496330  95.7895783  41.1410328
  20.9540012 111.5814997  40.6989988  20.2690012 111.5434997  40.0309988
  20.9580012 112.4944997  40.9869988  20.8608193 111.6997016  40.6465284
  22.9140012  97.5494997  38.2429988  23.4060012  96.9194997  37.7159988
  23.5380012  97.8454997  38.9069988  23.0655446  97.5033199  38.2605980
  27.9400012  97.8424997  40.6999988  28.1180012  97.1964997  41.3829988
  27.8870012  98.6764997  41.1679988  27.9571829  97.8667985  40.8565940
  29.8190012 112.7914997  39.0959988  30.6850012 113.1574997  38.9179988
  29.5720012 112.3514997  38.2819988  29.9042392 112.7821756  38.9616289
  36.5280012 112.3544997  41.7749988  36.3330012 111.6064997  41.2099988
  36.4890012 113.1124997  41.1919988  36.4960380 112.3546099  41.6188384
  22.1750012  96.3494997  53.5149988  21.8090012  95.5844997  53.9579988
  23.0880012  96.3784997  53.8019988  22.2482790  96.2487224  53.6144070
  24.1480012  95.7004997  55.0509988  25.0460012  95.4264997  54.8659988
  23.7610012  94.9574997  55.5149988  24.2186612  95.5625914  55.0883643
  22.7720012 112.5014997  37.7239988  22.5050012 112.7884997  38.5969988
  23.5440012 111.9554997  37.8759988  22.8397488 112.4670294  37.8641050
  32.5690012  95.0324997  55.2329988  32.6460012  94.6064997  56.0869988
  33.4630012  95.0464997  54.8899988  32.7003428  94.9760880  55.3035310
  35.7450012 111.1054997  53.9249988  34.9630012 110.9194997  53.4059988
  35.6730012 112.0344997  54.1429988  35.6281777 111.2056492  53.8834048
  50.1510012 104.9914997  43.9559988  50.2400012 105.9354997  43.8239988
  49.5130012 104.7164997  43.2979988  50.0769081 105.0834830  43.8489614
  49.0840012 104.2464997  47.3749988  49.0460012 103.6004997  48.0799988
  48.7620012 103.7804997  46.6039988  49.0352333 104.0949408  47.3672978
  41.4530012 103.8614997  48.9679988  41.4940012 103.2354997  49.6909988
  42.1560012 104.4854997  49.1499988  41.5536363 103.8601196  49.0916044
  52.7900012 107.1854997  45.6759988  52.3500012 106.4654997  46.1269988
  52.7770012 107.9064997  46.3059988  52.7280226 107.1843731  45.8228494
  42.3760012 108.3114997  47.5029988  42.0070012 107.5094997  47.1329988
  43.3170012 108.1424997  47.5489988  42.4527289 108.1790153  47.4586316
  38.9860012 101.9714997  42.8959988  38.5390012 102.8174997  42.8769988
  38.4250012 101.3914997  42.3799988  38.8489900 102.0089916  42.8236801
  39.6970012 104.1334997  45.0219988  39.9100012 103.3634997  45.5489988
  40.4350012 104.2224997  44.4179988  39.8258496 104.0401394  45.0125300
  49.9020012 112.2904997  45.8889988  50.5220012 111.6134997  45.6149988
  49.6940012 112.0724997  46.7969988  49.9586904 112.1683870  45.9743365
  47.4740012 106.6794997  47.7809988  47.7780012 105.9934997  47.1859988
  48.1950012 106.7974997  48.3989988  47.6130671 106.6016305  47.7831816
  56.1370012  98.2804997  48.6419988  56.1860012  98.8904997  49.3779988
  56.5620012  98.7414997  47.9189988  56.2011824  98.4263741  48.6450205
  50.6150012 101.0734997  48.1089988  50.7570012 100.1274997  48.1289988
  50.5080012 101.2804997  47.1799988  50.6199863 100.9719534  47.9862339
  43.7690012  99.1744997  45.3809988  43.8130012 100.0344997  44.9629988
  43.3120012  98.6224997  44.7469988  43.7132185  99.2175799  45.2380299
  51.4920012  99.3054997  43.7819988  52.1380012  98.9764997  44.4069988
  52.0020012  99.8234997  43.1589988  51.6494264  99.3304611  43.7833862
  40.3900012 101.5714997  46.1429988  41.0430012 101.0214997  46.5749988
  40.4140012 101.2974997  45.2259988  40.4826683 101.4591466  46.0782123
  45.5460012 103.1214997  45.3579988  46.1620012 102.5954997  45.8679988
  44.9600012 102.4814997  44.9549988  45.5510810 102.9629208  45.3733173
  56.5280012  99.7584997  50.8779988  55.8400012 100.4164997  50.7819988
  56.5440012  99.5614997  51.8139988  56.4358525  99.8220462  50.9914808
  42.5800012  98.0924997  49.4549988  42.3610012  98.6224997  48.6889988
  41.9120012  98.3194997  50.1019988  42.4597600  98.1956906  49.4376379
  49.9490012 107.5924997  42.9989988  49.6530012 107.2704997  42.1479988
  49.6240012 108.4924997  43.0399988  49.8646371 107.6700215  42.8881801
  45.1490012 105.7684997  49.7419988  44.4090012 106.3664997  49.8459988
  45.8630012 106.3224997  49.4269988  45.1442237 105.9252831  49.7136465
  53.2560012  98.5964997  45.7619988  53.0400012  97.8304997  46.2949988
  53.9110012  99.0684997  46.2749988  53.3150632  98.5555889  45.9042861
  42.1730012  99.9844997  47.4069988  42.7870012 100.6174997  47.7809988
  42.6850012  99.5124997  46.7509988  42.3262296 100.0072370  47.3694252
  43.5560012 107.7324997  50.5299988  43.5510012 108.6124997  50.1519988
  42.7030012 107.6494997  50.9549988  43.4399464 107.8416117  50.5357907
  39.6770012 107.4034997  41.3119988  39.4050012 107.6324997  40.4229988
  39.7230012 108.2414997  41.7719988  39.6460094 107.5481213  41.2525697
  53.3020012 109.0254997  48.0239988  52.3610012 109.0834997  48.1859988
  53.5790012 109.9314997  47.8869988  53.2104679 109.1559443  48.0276815
  53.6030012  97.3114997  49.4419988  52.8670012  97.9224997  49.4039988
  54.2860012  97.7264997  48.9149988  53.5946541  97.4511374  49.3655832
  46.6060012  95.3984997  46.9079988  46.4890012  94.4494997  46.8529988
  45.7510012  95.7304997  47.1809988  46.4743733  95.3135409  46.9373897
  51.5540012 110.8064997  44.6499988  51.9800012 110.0994997  44.1649988
  51.8710012 111.6074997  44.2329988  51.6551019 110.8180994  44.5273130
  52.7140012 108.7074997  43.1579988  52.4560012 108.0174997  42.5469988
  52.7850012 108.2644997  44.0039988  52.6882856 108.5532124  43.1886885
  54.4000012 107.2734997  51.6359988  54.5400012 106.6824997  50.8959988
  54.5670012 108.1464997  51.2789988  54.4416778 107.3106426  51.4866965
  48.8730012 104.2354997  41.4079988  48.1610012 104.7704997  41.0559988
  49.5640012 104.2914997  40.7479988  48.8690132 104.3162543  41.2706289
  48.9260012 102.6934997  38.4469988  49.6270012 102.7154997  39.0979988
  49.2290012 102.0654997  37.7909988  49.0627830 102.6116566  38.4473711
  56.2420012 103.6134997  49.7019988  55.5890012 104.3084997  49.7909988
  56.7070012 103.8234997  48.8919988  56.2155390 103.7369425  49.6046883
  52.2780012 104.4454997  42.3599988  51.5460012 104.6734997  42.9329988
  52.7260012 103.7314997  42.8149988  52.2383095 104.3802571  42.4999119
  52.1760012 102.6194997  51.4269988  52.2560012 103.3824997  51.9989988
  51.5740012 102.8984997  50.7369988  52.1055756 102.7617134  51.4120589
  43.9240012 105.0754997  44.2419988  43.5930012 104.7054997  43.4239988
  44.5120012 104.4054997  44.5889988  43.9581873 104.9341156  44.1768102
  45.2900012 108.5034997  46.9239988  45.1960012 107.9254997  46.1669988
  46.0200012 108.1324997  47.4199988  45.3757981 108.3742390  46.8874165
  44.2900012 103.8444997  47.8759988  44.8560012 103.9654997  47.1129988
  44.6090012 104.4814997  48.5149988  44.4105786 103.9471884  47.8580040
  50.5990012 109.3474997  48.6099988  50.3590012 110.0094997  49.2579988
  50.4010012 108.5134997  49.0349988  50.5393808 109.3253134  48.7561524
  45.1700012 108.2434997  52.5929988  44.8590012 109.0254997  53.0479988
  44.5200012 108.0904997  51.9069988  45.0395558 108.3299105  52.5625871
  51.1490012 103.6074997  40.0449988  51.7290012 103.7574997  40.7919988
  51.5630012 104.0784997  39.3219988  51.2842830 103.6916841  40.0494134
  42.0900012 104.4414997  51.8219988  42.1610012 105.0924997  52.5199988
  41.2000012 104.5444997  51.4869988  41.9793117 104.5445936  51.8722700
  48.8760012 110.3444997  43.4799988  49.3500012 110.6394997  44.2579988
  48.3130012 111.0824997  43.2469988  48.8647653 110.4846932  43.5550136
  43.4100012 110.3154997  53.3559988  43.4170012 110.1794997  52.4089988
  42.4940012 110.1974997  53.6079988  43.2871714 110.2809430  53.2604666
  54.8480012  95.3574997  39.8579988  53.9480012  95.4964997  40.1529988
  55.1000012  96.1884997  39.4559988  54.7588702  95.4889074  39.8440205
  42.9140012 104.1454997  41.8319988  42.6220012 104.9134997  41.3409988
  42.2400012 103.4854997  41.6689988  42.7829081 104.1614406  41.7427340
  56.0370012 109.7234997  38.2339988  56.1110012 110.6624997  38.4049988
  56.9430012 109.4184997  38.1779988  56.1695100 109.8106722  38.2498119
  39.0070012 106.5084997  50.6469988  38.5060012 106.4804997  49.8319988
  39.0120012 105.6024997  50.9559988  38.9391526 106.3822278  50.5772872
  38.7570012 109.2884997  47.5309988  39.7030012 109.1444997  47.5119988
  38.6450012 110.0724997  48.0679988  38.8712727 109.3748046  47.6010072
  56.9550012 109.9544997  53.2129988  56.9060012 108.9994997  53.1759988
  56.1280012 110.2224997  53.6139988  56.8364940 109.8598998  53.2621375
  47.9340012 109.5284997  52.0889988  48.0210012 110.3544997  52.5639988
  47.0700012 109.1984997  52.3379988  47.8291964 109.5969878  52.1876549
  48.3480012 113.3004997  41.8949988  48.2730012 113.1794997  40.9489988
  48.3810012 114.2504997  42.0139988  48.3421848 113.4122500  41.7814834
  42.0010012 112.0894997  43.6759988  42.1540012 111.7414997  44.5549988
  41.1510012 111.7334997  43.4209988  41.9068962 111.9936650  43.7618340
  51.4500012 112.4544997  38.8969988  51.8250012 111.7104997  38.4269988
  51.4540012 112.1844997  39.8159988  51.5018915 112.3161486  38.9567824
  51.1190012 112.3804997  41.6469988  50.1830012 112.4804997  41.8249988
  51.3990012 111.6714997  42.2249988  51.0288255 112.2982711  41.7495391
  54.1070012 101.4474997  53.6929988  53.7000012 101.9284997  52.9719988
  54.1480012 100.5424997  53.3849988  54.0568437 101.3909374  53.5526683
  41.2560012 107.8314997  51.6899988  41.4720012 107.4704997  52.5489988
  40.4010012 107.4574997  51.4799988  41.1699292 107.7314111  51.7793386
  43.8750012  96.3014997  47.6849988  43.0130012  96.2144997  47.2779988
  43.8520012  97.1574997  48.1129988  43.7540330  96.4052765  47.6871863
  48.5380012  96.0234997  51.0599988  48.9580012  95.6084997  51.8129988
  47.6050012  95.8454997  51.1769988  48.4693644  95.9425900  51.1789539
  51.8640012  99.7794997  51.9129988  51.3500012  99.6534997  52.7109988
  51.7090012 100.6914997  51.6689988  51.7726852  99.8856132  51.9892158
  52.6270012 104.6404997  37.6749988  52.6690012 104.4174997  36.7449988
  53.4760012 105.0394997  37.8649988  52.7475396 104.6639155  37.5733627
  48.1990012  98.5164997  38.3449988  47.9460012  98.5354997  39.2679988
  47.9430012  97.6444997  38.0439988  48.1297790  98.4012437  38.4306263
  43.9660012 101.2674997  48.7799988  43.3240012 101.2264997  49.4889988
  44.0030012 102.1934997  48.5429988  43.8831324 101.3871559  48.8449824
  43.9630012 101.4884997  43.6919988  43.0700012 101.1474997  43.6339988
  44.4130012 101.1114997  42.9369988  43.9017305 101.3908484  43.5819177
  49.4980012 101.9044997  42.5089988  49.0890012 102.7194997  42.2179988
  50.2190012 101.7644997  41.8949988  49.5394537 101.9972018  42.3861342
  48.6000012 102.0794997  53.9969988  48.0380012 101.3754997  54.3179988
  49.4270012 101.9594997  54.4649988  48.6347095 101.9667883  54.1042330
  50.5030012 101.3504997  45.3229988  50.3080012 101.9554997  44.6079988
  50.6840012 100.5164997  44.8889988  50.5007614 101.3206300  45.1664405
  41.7160012 101.5874997  50.6469988  41.6780012 101.9874997  51.5159988
  41.2250012 100.7704997  50.7379988  41.6444684 101.5318069  50.7781059
  45.0820012  98.9614997  37.4459988  44.6510012  98.5164997  38.1759988
  44.3640012  99.3334997  36.9339988  44.9259438  98.9508940  37.4766799
  38.3240012  98.7034997  44.4979988  38.9550012  98.6744997  45.2169988
  38.7730012  98.2784997  43.7679988  38.4710774  98.6420492  44.4976553
  39.5980012  99.4494997  39.9219988  40.0720012 100.0404997  39.3369988
  38.8810012  99.9804997  40.2689988  39.5659341  99.6020867  39.8888836
  49.7670012 102.9884997  49.9949988  50.0900012 102.3574997  49.3519988
  49.3270012 102.4534997  50.6549988  49.7516895 102.8298441  49.9962850
  46.5440012  98.9154997  44.7789988  45.6330012  98.9724997  45.0669988
  47.0500012  98.8554997  45.5889988  46.4875413  98.9151985  44.9280622
  41.3730012 100.5444997  43.6049988  40.4830012 100.6444997  43.2649988
  41.6690012  99.7024997  43.2589988  41.2912823 100.4443546  43.5117213
  45.0260012 100.5444997  41.2619988  45.9570012 100.6734997  41.4399988
  44.8110012 101.2144997  40.6119988  45.1244247 100.6526565  41.1985747
  50.9490012  98.1504997  48.0429988  50.2730012  98.2814997  48.7069988
  50.4640012  97.9954997  47.2329988  50.7907145  98.1474905  48.0244517
  43.7000012 101.7394997  38.8289988  43.1570012 101.3594997  38.1369988
  44.5330012 101.9334997  38.3999988  43.7384399 101.7138124  38.6764526
  54.2370012 113.8224997  54.3199988  54.4370012 114.2464997  53.4849988
  54.8920012 114.1654997  54.9269988  54.3530051 113.9269648  54.2877836
  41.8350012 106.2964997  53.9279988  42.5670012 106.5504997  54.4889988
  41.0550012 106.5004997  54.4429988  41.8298232 106.3589177  54.0745760
  47.8640012 101.7034997  46.6659988  48.4290012 101.1564997  46.1189988
  47.7170012 101.1814997  47.4539988  47.9212918 101.5582024  46.6978454
  42.8660012  97.8394997  43.0839988  42.5490012  96.9374997  43.0489988
  43.6480012  97.8414997  42.5309988  42.9282284  97.7161628  43.0044783
  46.4910012 100.0914997  49.0799988  45.6550012 100.5454997  49.1899988
  47.0150012 100.3674997  49.8319988  46.4474414 100.1909376  49.1967136
  47.0350012 106.3044997  40.7639988  46.2900012 105.7974997  40.4419988
  46.9010012 106.3534997  41.7109988  46.9148776 106.2416940  40.8478647
  54.1850012 105.4374997  49.5509988  54.8270012 105.8944997  49.0069988
  53.3550012 105.5504997  49.0879988  54.1605963 105.5152704  49.4140177
  50.9330012  99.1184997  38.9639988  49.9940012  99.2304997  38.8119988
  51.2300012  99.9754997  39.2699988  50.8447666  99.2496443  38.9845768
  48.5540012 106.4884997  52.0009988  48.2090012 106.1074997  52.8079988
  48.3540012 107.4224997  52.0729988  48.4798061 106.5625228  52.1210961
  51.6510012 100.9854997  40.6239988  52.5430012 100.8484997  40.9429988
  51.7080012 101.7764997  40.0879988  51.7806285 101.0736660  40.5951691
  42.1600012 105.5994997  46.5339988  42.9050012 105.5974997  45.9329988
  42.2380012 104.7764997  47.0159988  42.2725518 105.4879315  46.5168929
  49.1610012 107.7634997  39.7899988  48.8650012 108.5894997  40.1709988
  48.4580012 107.1434997  39.9859988  49.0254914 107.7928199  39.8686443
  39.1680012 104.0604997  51.8489988  39.3910012 103.6424997  52.6809988
  38.5660012 103.4474997  51.4259988  39.1171759 103.9204668  51.9057022
  46.1840012 103.5774997  54.0619988  45.8880012 103.4114997  53.1669988
  47.1160012 103.3574997  54.0509988  46.2694166 103.5250640  53.9380536
  50.8050012 108.9504997  51.9519988  49.9040012 109.1334997  51.6839988
  50.8390012 109.2094997  52.8729988  50.6863041 109.0105512  52.0398197
  56.5360012 101.1954997  40.3189988  55.9820012 100.7994997  39.6469988
  56.6360012 102.1054997  40.0409988  56.4737059 101.2643586  40.1894401
  56.4990012 106.9954997  53.1559988  55.6480012 107.2334997  52.7889988
  57.0900012 106.9784997  52.4029988  56.4622487 107.0258258  53.0038893
  54.8310012 109.9814997  40.7839988  54.4580012 109.1554997  41.0929988
  55.1090012 109.7984997  39.8869988  54.8175630 109.8437303  40.7049626
  51.9920012 104.7894997  47.8049988  51.0630012 104.5574997  47.7779988
  52.4430012 104.0124997  47.4749988  51.9259216 104.6527238  47.7566917
  44.5350012 109.1174997  43.9379988  45.0620012 109.8904997  43.7379988
  43.6550012 109.3424997  43.6369988  44.4881773 109.2538005  43.8699010
  40.2900012 103.9794997  38.5249988  40.9060012 104.6064997  38.9049988
  39.4280012 104.2954997  38.7969988  40.2577698 104.1079430  38.6137183
  45.9620012 106.7804997  43.5149988  45.7210012 107.7054997  43.5559988
  45.2210012 106.3214997  43.9109988  45.8288409 106.8451421  43.5741377
  46.4770012 110.9294997  49.8299988  46.8390012 111.7844997  49.5959988
  47.0080012 110.6374997  50.5699988  46.5984473 111.0071060  49.8980855
  44.6450012 111.8024997  43.0599988  43.6950012 111.9074997  43.1109988
  44.9970012 112.6224997  43.4049988  44.5624203 111.9278314  43.1136650
  50.0210012 107.0284997  49.5299988  49.5950012 106.8014997  50.3569988
  50.6010012 106.2904997  49.3479988  50.0411868 106.8975299  49.6185830
  52.2240012 107.9574997  38.6039988  52.5770012 107.5774997  39.4089988
  51.2750012 107.8644997  38.6909988  52.1440441 107.8929596  38.7258559
  52.6790012 111.5804997  51.9999988  52.0780012 111.0254997  51.5039988
  52.9610012 112.2474997  51.3739988  52.6348519 111.5946841  51.8474952
  56.7270012 112.4374997  38.8049988  57.4710012 113.0234997  38.6649988
  56.0330012 113.0054997  39.1389988  56.7350292 112.5945582  38.8309961
  40.8020012  98.8134997  51.4069988  39.9090012  99.1524997  51.3389988
  40.7030012  97.9584997  51.8249988  40.6664164  98.7442588  51.4542235
  53.0900012 106.6304997  40.8309988  52.8120012 105.9024997  41.3869988
  54.0170012 106.7494997  41.0359988  53.1773124 106.5468802  40.9348845
  40.4530012 110.6184997  49.8419988  40.6700012 109.6864997  49.8109988
  40.6990012 110.8924997  50.7249988  40.5159549 110.5280636  49.9571763
  46.3150012 109.0694997  37.0509988  46.5540012 108.3214997  36.5039988
  46.0460012 108.6814997  37.8839988  46.3113675 108.9146638  37.0886865
  45.2520012 108.6394997  39.5079988  45.3980012 108.1194997  40.2979988
  45.2490012 109.5464997  39.8139988  45.2715989 108.6908853  39.6576088
  41.7050012 105.8924997  40.0179988  41.0190012 106.2444997  40.5849988
  42.2270012 106.6554997  39.7709988  41.6816852 106.0438578  40.0622118
  49.5360012  98.5544997  50.2969988  50.2350012  98.6284997  50.9469988
  49.1550012  97.6904997  50.4509988  49.5801767  98.4477624  50.4068322
  50.3210012  98.2064997  41.3939988  50.5410012  98.6784997  40.5909988
  50.8790012  98.6014997  42.0639988  50.4264968  98.3244285  41.3747331
  47.9890012 110.3374997  40.2569988  47.1730012 110.8344997  40.3089988
  48.5190012 110.8124997  39.6169988  47.9489161 110.4697722  40.1775956
  47.5210012  99.9344997  42.2289988  48.3330012 100.4394997  42.2749988
  47.2760012  99.7894997  43.1429988  47.5990520  99.9840375  42.3588517
  48.0560012 100.9204997  51.4139988  48.1750012 101.4944997  52.1709988
  48.7120012 100.2324997  51.5279988  48.1609757 100.9061079  51.5330825
  48.4040012  97.0154997  43.1669988  48.0580012  97.6334997  43.8119988
  49.0630012  97.5164997  42.6859988  48.4457826  97.1675802  43.1900971
  45.3280012 111.3814997  40.2389988  45.4880012 112.1804997  39.7379988
  45.1300012 111.6874997  41.1239988  45.3231649 111.5324469  40.2899815
  44.0620012  98.0784997  39.8539988  43.9790012  98.9674997  40.2009988
  44.9520012  97.8134997  40.0859988  44.1709469  98.1641430  39.9327626
  54.2610012  98.8274997  52.2489988  53.3440012  99.0904997  52.1609988
  54.5960012  98.8244997  51.3519988  54.1809900  98.8630224  52.1157919
  52.8630012 102.5784997  46.3439988  52.0650012 102.1634997  46.0159988
  53.3080012 101.8874997  46.8349988  52.8139885 102.4283543  46.3654889
  42.3210012 108.5064997  38.9149988  42.9130012 109.2054997  39.1909988
  42.7800012 108.0734997  38.1949988  42.4641142 108.5437049  38.8554830
  40.6370012 101.1704997  38.0309988  40.5920012 102.1094997  38.2089988
  39.7490012 100.9344997  37.7609988  40.5108574 101.2671892  38.0188912
  53.9490012 111.8344997  47.9669988  53.7940012 112.5124997  47.3099988
  54.8820012 111.9064997  48.1699988  54.0538500 111.9370170  47.9045119
  41.4450012  95.9524997  46.7039988  41.2160012  96.0114997  45.7759988
  41.0020012  95.1604997  47.0099988  41.3538530  95.8535753  46.6184786
  40.3750012 109.8924997  42.8639988  39.5430012 110.3654997  42.8919988
  40.9210012 110.4024997  42.2659988  40.3349739 110.0261871  42.7869716
  39.6630012 112.5054997  54.1939988  40.2040012 112.2884997  54.9539988
  39.1820012 111.6994997  54.0049988  39.6719345 112.3669514  54.2723076
  44.2610012 111.4244997  55.8149988  45.0280012 110.9654997  56.1559988
  44.2390012 111.1984997  54.8849988  44.3631434 111.3310409  55.7360043
  48.3530012 110.9324997  37.1899988  47.7090012 110.3014997  37.5109988
  49.1150012 110.4014997  36.9579988  48.3678077 110.7742920  37.2026011
  50.8380012 109.8044997  54.5439988  50.4870012 108.9484997  54.7869988
  51.5640012 109.9474997  55.1509988  50.8880769 109.7065636  54.6593619
  52.9570012 110.7494997  37.4239988  53.2400012 109.9554997  37.8759988
  53.6970012 110.9824997  36.8629988  53.0957486 110.6722803  37.4100698
  39.5700012 106.3154997  55.1489988  39.7140012 105.4134997  54.8619988
  38.7980012 106.6014997  54.6609988  39.4853323 106.2308261  55.0437881
  43.9120012 106.6594997  37.2809988  43.9760012 105.8654997  37.8119988
  44.5650012 106.5404997  36.5909988  44.0090241 106.5347148  37.2604317
  46.2260012 106.2854997  54.5809988  45.8970012 106.5564997  53.7239988
  46.3780012 105.3444997  54.4939988  46.2014809 106.1953862  54.4518244
  49.2640012 107.7064997  37.0169988  48.9950012 107.8864997  37.9179988
  49.0580012 106.7804997  36.8859988  49.1993825 107.6060152  37.1225214
  51.9600012 106.2014997  51.9649988  52.7060012 106.7894997  51.8449988
  51.2030012 106.7834997  52.0279988  51.9597554 106.3607011  51.9570907
  40.4030012 103.5154997  54.5689988  40.8110012 102.6584997  54.4479988
  40.1430012 103.5304997  55.4899988  40.4237568 103.4000807  54.6769588
  45.0610012 104.6314997  39.5869988  44.6010012 104.1474997  40.2729988
  45.3160012 103.9634997  38.9509988  45.0324902 104.4748731  39.5949334
  44.3500012 102.5244997  51.9429988  43.7320012 103.1994997  52.2229988
  44.6940012 102.8454997  51.1099988  44.3119615 102.6602721  51.8686581
  46.1320012 102.8744997  37.8489988  45.9520012 102.7204997  36.9219988
  47.0820012 102.9824997  37.8939988  46.2357776 102.8680175  37.7281843
  49.3700012 104.9964997  55.2199988  50.3230012 105.0794997  55.1929988
  49.2090012 104.2844997  55.8399988  49.4786426 104.9116746  55.3000579
  55.5220012 105.2294997  37.2949988  55.2480012 104.8044997  36.4819988
  55.5610012 106.1604997  37.0779988  55.4897699 105.2972484  37.1543610
  44.6890012  99.8794997  53.0249988  44.8390012  99.1504997  52.4229988
  44.6920012 100.6564997  52.4659988  44.7099302  99.8847851  52.8670692
  45.1020012  98.2494997  50.5179988  45.6380012  98.7004997  49.8659988
  44.2500012  98.1414997  50.0949988  45.0602178  98.2966390  50.3715756
  46.6840012 103.6884997  50.7569988  47.4340012 103.5324997  50.1839988
  46.3450012 104.5404997  50.4819988  46.7408921 103.7822968  50.6413561
  51.0990012 101.5034997  55.7859988  51.2920012 100.5724997  55.6739988
  51.9570012 101.9284997  55.7759988  51.2413020 101.4336389  55.7693361
  52.4160012 104.2924997  53.8629988  52.1350012 105.0014997  53.2859988
  53.3590012 104.2194997  53.7119988  52.5049027 104.3797646  53.7635551
  43.1680012 101.0774997  54.9369988  42.4010012 100.5454997  54.7269988
  43.8470012 100.7674997  54.3369988  43.1547022 100.9627506  54.8271648
  45.9080012  95.7054997  50.9489988  45.8090012  96.6524997  50.8439988
  45.1650012  95.3334997  50.4739988  45.7940564  95.7845902  50.8704560
  47.1720012 100.0274997  54.5129988  46.9360012  99.8074997  55.4149988
  46.3880012  99.8204997  54.0029988  47.0338628  99.9694760  54.5673932
  49.8870012  99.1544997  53.5889988  48.9400012  99.1864997  53.7209988
  50.2000012  98.5294997  54.2419988  49.7995475  99.0743207  53.6954455
  51.5210012  97.7884997  55.5939988  51.4250012  96.8364997  55.5879988
  51.2000012  98.0574997  56.4539988  51.4644070  97.6944035  55.7095441
  41.3480012  98.9984997  54.6409988  41.5600012  98.2914997  54.0309988
  41.2370012  98.5604997  55.4849988  41.3619721  98.8427084  54.6716843
  46.1290012  94.9994997  53.6209988  46.8410012  94.3594997  53.6069988
  46.0280012  95.2664997  52.7069988  46.2127939  94.9479938  53.4955650
  46.4830012  96.6824997  55.6739988  46.3510012  96.2064997  54.8539988
  45.8840012  97.4264997  55.6189988  46.3839071  96.7179618  55.5542886
  46.0290012 113.5654997  38.8509988  46.9620012 113.7234997  38.9939988
  45.7650012 114.2404997  38.2259988  46.1209510 113.6783611  38.7860741
  39.5980012 108.2014997  38.3329988  40.5120012 108.2804997  38.6069988
  39.6050012 107.5144997  37.6669988  39.7241131 108.1193961  38.2804393
  38.2470012 113.5944997  43.4109988  37.6000012 113.1324997  42.8779988
  38.6010012 112.9224997  43.9929988  38.2063849 113.4404723  43.4167959
  39.1170012 111.6754997  45.2149988  38.7820012 110.7954997  45.3869988
  39.3390012 112.0204997  46.0799988  39.1011783 111.6017500  45.3554208
  56.6650012 112.4844997  48.1959988  56.6440012 112.6694997  49.1349988
  57.3560012 113.0534997  47.8549988  56.7554618 112.5866606  48.2783864
  56.2290012 112.0524997  51.1179988  55.7410012 111.3164997  50.7469988
  56.7780012 111.6584997  51.7959988  56.2364872 111.8986249  51.1589160
  54.6790012 107.8414997  55.7559988  53.8130012 107.7364997  56.1499988
  55.0560012 108.6004997  56.2019988  54.6113308 107.9296900  55.8702393
  55.9800012 106.0984997  41.2699988  56.8300012 106.5194997  41.3969988
  55.9860012 105.3584997  41.8769988  56.0971372 106.0560803  41.3694344
  56.3750012 104.1514997  43.0939988  55.6480012 103.6724997  43.4909988
  56.9560012 104.3574997  43.8259988  56.3539375 104.1137090  43.2474129
  56.1340012 106.9364997  48.0409988  56.9670012 106.5584997  47.7609988
  56.2460012 107.8794997  47.9219988  56.2632647 107.0122218  47.9865487
  54.6200012 109.8144997  50.3479988  53.9730012 110.1394997  50.9739988
  54.1030012 109.3744997  49.6739988  54.4614029 109.7995004  50.3425827
  56.6430012 104.0524997  39.4849988  56.1210012 104.4094997  38.7659988
  56.6100012 104.7274997  40.1629988  56.5671634 104.1925413  39.4783145
  54.9920012 101.2924997  38.0359988  55.0880012 101.9594997  37.3549988
  54.8520012 100.4764997  37.5539988  54.9862135 101.2734500  37.8778491
  54.1610012 102.6724997  43.6569988  54.0110012 101.7274997  43.6359988
  53.8080012 102.9534997  44.4999988  54.0926625 102.5810441  43.7682346
  39.1970012 104.7504997  47.6669988  39.3810012 104.6684997  46.7309988
  40.0460012 104.6264997  48.0909988  39.3370139 104.7225003  47.5961455
  55.0180012 104.6424997  53.2949988  55.6010012 103.9084997  53.4869988
  55.5820012 105.4144997  53.3419988  55.1739769 104.6464227  53.3276159
  56.5140012 102.5454997  53.9799988  55.6510012 102.1664997  53.8139988
  57.1190012 101.8064997  53.9059988  56.4775979 102.3938023  53.9472817
  54.2390012  98.7004997  37.1529988  54.8500012  98.3294997  37.7899988
  53.4030012  98.2794997  37.3489988  54.2095032  98.5927554  37.2667035
  53.8720012 100.2554997  42.1189988  54.1520012  99.3484997  42.2429988
  54.6310012 100.6894997  41.7299988  54.0129277 100.1900942  42.0833682
  54.4840012 100.8364997  47.5549988  55.4170012 101.0484997  47.5209988
  54.2490012 100.9384997  48.4769988  54.5798036 100.8792769  47.6749976
  54.5130012 101.5734997  50.3309988  53.6700012 101.8414997  50.6969988
  54.9550012 102.3954997  50.1199988  54.4574158 101.7213291  50.3525491
  38.7940012 100.0214997  53.8079988  39.7140012  99.8994997  54.0439988
  38.3450012  99.2714997  54.1969988  38.8591580  99.9033727  53.8929006
  56.7960012  95.5534997  55.6839988  57.1460012  94.8994997  55.0789988
  56.9430012  96.3904997  55.2449988  56.8638419  95.5771591  55.5417118
  54.4850012  97.5184997  42.1669988  54.6680012  97.0694997  42.9929988
  53.8860012  96.9334997  41.7039988  54.4290202  97.3779975  42.2173275
  40.0150012  98.3334997  46.6989988  40.4610012  97.5414997  47.0009988
  40.4820012  99.0494997  47.1299988  40.1390172  98.3220624  46.7984820
  38.3190012 101.3324997  47.7679988  38.8110012 101.1114997  46.9769988
  38.6820012 102.1734997  48.0489988  38.4353126 101.4158357  47.6977531
  56.3160012  97.6624997  54.0339988  55.3980012  97.9334997  53.9979988
  56.4390012  97.1274997  53.2489988  56.2071066  97.6272892  53.9230487
  56.3520012  97.5854997  38.6949988  56.7640012  96.8644997  38.2199988
  57.0340012  98.2554997  38.7539988  56.5005885  97.5772368  38.6378915
  38.6330012  97.5904997  41.8219988  37.7080012  97.7994997  41.6929988
  39.0870012  98.0744997  41.1329988  38.5677368  97.6845993  41.7111226
  53.4040012 112.5744997  43.7679988  54.0560012 112.2274997  43.1599988
  53.9140012 113.0634997  44.4139988  53.5622637 112.5930597  43.7720236
  38.5970012  96.3284997  50.1669988  37.9320012  96.0824997  50.8099988
  38.1540012  96.9504997  49.5889988  38.4460956  96.3788632  50.1769352
  40.7890012 109.5034997  54.3109988  39.9680012 109.6784997  53.8509988
  40.5360012 109.4304997  55.2319988  40.6426164 109.5175622  54.3724923
  43.7430012 110.4784997  50.5699988  43.3180012 111.2874997  50.2869988
  44.6470012 110.5634997  50.2679988  43.8070271 110.6008469  50.4903776
  48.0540012 111.8774997  53.5289988  48.2390012 111.5434997  54.4069988
  48.9000012 112.1864997  53.2069988  48.1937539 111.8736047  53.6055605
  50.3990012 113.1634997  52.7729988  51.0760012 112.5304997  52.5329988
  50.7210012 113.5644997  53.5799988  50.5351637 113.1311154  52.8492793
  55.3160012  95.7524997  51.8529988  54.5040012  96.0774997  51.4649988
  55.5490012  94.9924997  51.3199988  55.2363423  95.6942436  51.7278253
  41.1450012 113.7344997  50.6169988  40.4240012 114.1744997  50.1659988
  40.7790012 113.4834997  51.4659988  40.9969804 113.7607698  50.6699840
  43.6120012 113.3344997  49.6469988  42.7470012 113.4064997  50.0509988
  43.5570012 113.8814997  48.8629988  43.4862085 113.4182685  49.5963362
  48.3220012 113.2224997  48.8219988  47.8660012 113.7514997  48.1679988
  48.4850012 113.8254997  49.5479988  48.2815585 113.3764468  48.8305062
  50.6500012 112.1004997  49.7669988  49.7450012 112.2654997  49.5019988
  51.0790012 112.9534997  49.7019988  50.5840799 112.2384483  49.7219182
  53.2540012 113.6704997  50.0619988  53.0720012 114.5864997  49.8519988
  53.4310012 113.2604997  49.2159988  53.2530210 113.7404822  49.9187885
  40.5590012 112.3574997  47.5269988  40.5410012 111.9324997  48.3849988
  41.3640012 112.0394997  47.1189988  40.6653875 112.2563812  47.5891655
  42.7010012 111.0674997  46.1819988  42.4820012 110.1514997  46.3519988
  43.5250012 111.2074997  46.6479988  42.7824420 110.9610520  46.2682774
  45.2380012 111.5374997  47.0309988  45.4510012 110.6494997  46.7439988
  45.3020012 111.5034997  47.9849988  45.2758231 111.4113102  47.1207397
  48.7460012  97.2014997  46.1749988  48.0720012  96.5724997  46.4309988
  49.3100012  96.7174997  45.5719988  48.7299230  97.0498744  46.1285340
  53.8890012  95.3094997  46.2879988  54.4930012  95.8564997  45.7859988
  53.0190012  95.6284997  46.0479988  53.8541241  95.4275806  46.1867654
  55.6160012  96.4474997  44.6209988  56.2280012  95.9334997  44.0949988
  55.9980012  97.3254997  44.6449988  55.7514540  96.4957140  44.5521830
  41.0730012  95.8354997  43.9969988  40.2960012  95.6014997  43.4899988
  41.6030012  95.0384997  44.0059988  41.0382330  95.6956988  43.9287742
  39.9090012  95.6334997  39.8009988  40.3480012  96.2444997  39.2089988
  39.2760012  96.1714997  40.2749988  39.8834514  95.7899257  39.7840930
  45.6520012  95.7624997  43.8109988  46.5270012  96.1504997  43.7809988
  45.5160012  95.5474997  44.7329988  45.7533695  95.7865184  43.9316440
  51.2090012  95.7924997  45.4599988  51.2850012  95.8874997  44.5099988
  50.9340012  94.8844997  45.5889988  51.1822321  95.6827867  45.3475079
  52.5620012  95.8184997  41.1519988  51.8600012  96.4334997  40.9429988
  52.1180012  94.9804997  41.2829988  52.4056330  95.7895783  41.1410328
  39.8100012 111.5814997  40.6989988  39.1250012 111.5434997  40.0309988
  39.8140012 112.4944997  40.9869988  39.7168193 111.6997016  40.6465284
  41.7700012  97.5494997  38.2429988  42.2620012  96.9194997  37.7159988
  42.3940012  97.8454997  38.9069988  41.9215446  97.5033199  38.2605980
  46.7960012  97.8424997  40.6999988  46.9740012  97.1964997  41.3829988
  46.7430012  98.6764997  41.1679988  46.8131829  97.8667985  40.8565940
  48.6750012 112.7914997  39.0959988  49.5410012 113.1574997  38.9179988
  48.4280012 112.3514997  38.2819988  48.7602392 112.7821756  38.9616289
  55.3840012 112.3544997  41.7749988  55.1890012 111.6064997  41.2099988
  55.3450012 113.1124997  41.1919988  55.3520380 112.3546099  41.6188384
  41.0310012  96.3494997  53.5149988  40.6650012  95.5844997  53.9579988
  41.9440012  96.3784997  53.8019988  41.1042790  96.2487224  53.6144070
  43.0040012  95.7004997  55.0509988  43.9020012  95.4264997  54.8659988
  42.6170012  94.9574997  55.5149988  43.0746612  95.5625914  55.0883643
  41.6280012 112.5014997  37.7239988  41.3610012 112.7884997  38.5969988
  42.4000012 111.9554997  37.8759988  41.6957488 112.4670294  37.8641050
  51.4250012  95.0324997  55.2329988  51.5020012  94.6064997  56.0869988
  52.3190012  95.0464997  54.8899988  51.5563428  94.9760879  55.3035310
  54.6010012 111.1054997  53.9249988  53.8190012 110.9194997  53.4059988
  54.5290012 112.0344997  54.1429988  54.4841777 111.2056492  53.8834048
  69.0070012 104.9914997  43.9559988  69.0960012 105.9354997  43.8239988
  68.3690012 104.7164997  43.2979988  68.9329081 105.0834830  43.8489614
  67.9400012 104.2464997  47.3749988  67.9020012 103.6004997  48.0799988
  67.6180012 103.7804997  46.6039988  67.8912333 104.0949408  47.3672978
  60.3090012 103.8614997  48.9679988  60.3500012 103.2354997  49.6909988
  61.0120012 104.4854997  49.1499988  60.4096363 103.8601196  49.0916044
  71.6460012 107.1854997  45.6759988  71.2060012 106.4654997  46.1269988
  71.6330012 107.9064997  46.3059988  71.5840226 107.1843731  45.8228494
  61.2320012 108.3114997  47.5029988  60.8630012 107.5094997  47.1329988
  62.1730012 108.1424997  47.5489988  61.3087289 108.1790153  47.4586316
  57.8420012 101.9714997  42.8959988  57.3950012 102.8174997  42.8769988
  57.2810012 101.3914997  42.3799988  57.7049900 102.0089916  42.8236801
  58.5530012 104.1334997  45.0219988  58.7660012 103.3634997  45.5489988
  59.2910012 104.2224997  44.4179988  58.6818496 104.0401394  45.0125300
  68.7580012 112.2904997  45.8889988  69.3780012 111.6134997  45.6149988
  68.5500012 112.0724997  46.7969988  68.8146904 112.1683870  45.9743365
  66.3300012 106.6794997  47.7809988  66.6340012 105.9934997  47.1859988
  67.0510012 106.7974997  48.3989988  66.4690671 106.6016305  47.7831816
  74.9930012  98.2804997  48.6419988  75.0420012  98.8904997  49.3779988
  75.4180012  98.7414997  47.9189988  75.0571824  98.4263741  48.6450205
  69.4710012 101.0734997  48.1089988  69.6130012 100.1274997  48.1289988
  69.3640012 101.2804997  47.1799988  69.4759864 100.9719534  47.9862339
  62.6250012  99.1744997  45.3809988  62.6690012 100.0344997  44.9629988
  62.1680012  98.6224997  44.7469988  62.5692185  99.2175799  45.2380299
  70.3480012  99.3054997  43.7819988  70.9940012  98.9764997  44.4069988
  70.8580012  99.8234997  43.1589988  70.5054264  99.3304611  43.7833862
  59.2460012 101.5714997  46.1429988  59.8990012 101.0214997  46.5749988
  59.2700012 101.2974997  45.2259988  59.3386683 101.4591466  46.0782123
  64.4020012 103.1214997  45.3579988  65.0180012 102.5954997  45.8679988
  63.8160012 102.4814997  44.9549988  64.4070810 102.9629208  45.3733173
  75.3840012  99.7584997  50.8779988  74.6960012 100.4164997  50.7819988
  75.4000012  99.5614997  51.8139988  75.2918525  99.8220462  50.9914808
  61.4360012  98.0924997  49.4549988  61.2170012  98.6224997  48.6889988
  60.7680012  98.3194997  50.1019988  61.3157600  98.1956906  49.4376379
  68.8050012 107.5924997  42.9989988  68.5090012 107.2704997  42.1479988
  68.4800012 108.4924997  43.0399988  68.7206371 107.6700215  42.8881801
  64.0050012 105.7684997  49.7419988  63.2650012 106.3664997  49.8459988
  64.7190012 106.3224997  49.4269988  64.0002237 105.9252831  49.7136465
  72.1120012  98.5964997  45.7619988  71.8960012  97.8304997  46.2949988
  72.7670012  99.0684997  46.2749988  72.1710632  98.5555889  45.9042861
  61.0290012  99.9844997  47.4069988  61.6430012 100.6174997  47.7809988
  61.5410012  99.5124997  46.7509988  61.1822296 100.0072370  47.3694252
  62.4120012 107.7324997  50.5299988  62.4070012 108.6124997  50.1519988
  61.5590012 107.6494997  50.9549988  62.2959464 107.8416117  50.5357907
  58.5330012 107.4034997  41.3119988  58.2610012 107.6324997  40.4229988
  58.5790012 108.2414997  41.7719988  58.5020094 107.5481213  41.2525697
  72.1580012 109.0254997  48.0239988  71.2170012 109.0834997  48.1859988
  72.4350012 109.9314997  47.8869988  72.0664679 109.1559443  48.0276815
  72.4590012  97.3114997  49.4419988  71.7230012  97.9224997  49.4039988
  73.1420012  97.7264997  48.9149988  72.4506541  97.4511374  49.3655832
  65.4620012  95.3984997  46.9079988  65.3450012  94.4494997  46.8529988
  64.6070012  95.7304997  47.1809988  65.3303733  95.3135409  46.9373897
  70.4100012 110.8064997  44.6499988  70.8360012 110.0994997  44.1649988
  70.7270012 111.6074997  44.2329988  70.5111019 110.8180994  44.5273130
  71.5700012 108.7074997  43.1579988  71.3120012 108.0174997  42.5469988
  71.6410012 108.2644997  44.0039988  71.5442856 108.5532124  43.1886885
  73.2560012 107.2734997  51.6359988  73.3960012 106.6824997  50.8959988
  73.4230012 108.1464997  51.2789988  73.2976778 107.3106426  51.4866965
  67.7290012 104.2354997  41.4079988  67.0170012 104.7704997  41.0559988
  68.4200012 104.2914997  40.7479988  67.7250132 104.3162543  41.2706289
  67.7820012 102.6934997  38.4469988  68.4830012 102.7154997  39.0979988
  68.0850012 102.0654997  37.7909988  67.9187830 102.6116566  38.4473711
  75.0980012 103.6134997  49.7019988  74.4450012 104.3084997  49.7909988
  75.5630012 103.8234997  48.8919988  75.0715390 103.7369425  49.6046883
  71.1340012 104.4454997  42.3599988  70.4020012 104.6734997  42.9329988
  71.5820012 103.7314997  42.8149988  71.0943095 104.3802571  42.4999119
  71.0320012 102.6194997  51.4269988  71.1120012 103.3824997  51.9989988
  70.4300012 102.8984997  50.7369988  70.9615756 102.7617134  51.4120589
  62.7800012 105.0754997  44.2419988  62.4490012 104.7054997  43.4239988
  63.3680012 104.4054997  44.5889988  62.8141873 104.9341156  44.1768102
  64.1460012 108.5034997  46.9239988  64.0520012 107.9254997  46.1669988
  64.8760012 108.1324997  47.4199988  64.2317981 108.3742390  46.8874165
  63.1460012 103.8444997  47.8759988  63.7120012 103.9654997  47.1129988
  63.4650012 104.4814997  48.5149988  63.2665786 103.9471884  47.8580040
  69.4550012 109.3474997  48.6099988  69.2150012 110.0094997  49.2579988
  69.2570012 108.5134997  49.0349988  69.3953808 109.3253134  48.7561524
  64.0260012 108.2434997  52.5929988  63.7150012 109.0254997  53.0479988
  63.3760012 108.0904997  51.9069988  63.8955558 108.3299105  52.5625871
  70.0050012 103.6074997  40.0449988  70.5850012 103.7574997  40.7919988
  70.4190012 104.0784997  39.3219988  70.1402830 103.6916841  40.0494134
  60.9460012 104.4414997  51.8219988  61.0170012 105.0924997  52.5199988
  60.0560012 104.5444997  51.4869988  60.8353117 104.5445936  51.8722700
  67.7320012 110.3444997  43.4799988  68.2060012 110.6394997  44.2579988
  67.1690012 111.0824997  43.2469988  67.7207653 110.4846932  43.5550136
  62.2660012 110.3154997  53.3559988  62.2730012 110.1794997  52.4089988
  61.3500012 110.1974997  53.6079988  62.1431714 110.2809430  53.2604666
  73.7040012  95.3574997  39.8579988  72.8040012  95.4964997  40.1529988
  73.9560012  96.1884997  39.4559988  73.6148702  95.4889074  39.8440205
  61.7700012 104.1454997  41.8319988  61.4780012 104.9134997  41.3409988
  61.0960012 103.4854997  41.6689988  61.6389081 104.1614406  41.7427340
  74.8930012 109.7234997  38.2339988  74.9670012 110.6624997  38.4049988
  75.7990012 109.4184997  38.1779988  75.0255100 109.8106722  38.2498119
  57.8630012 106.5084997  50.6469988  57.3620012 106.4804997  49.8319988
  57.8680012 105.6024997  50.9559988  57.7951526 106.3822278  50.5772872
  57.6130012 109.2884997  47.5309988  58.5590012 109.1444997  47.5119988
  57.5010012 110.0724997  48.0679988  57.7272727 109.3748046  47.6010072
  75.8110012 109.9544997  53.2129988  75.7620012 108.9994997  53.1759988
  74.9840012 110.2224997  53.6139988  75.6924940 109.8598998  53.2621375
  66.7900012 109.5284997  52.0889988  66.8770012 110.3544997  52.5639988
  65.9260012 109.1984997  52.3379988  66.6851964 109.5969878  52.1876549
  67.2040012 113.3004997  41.8949988  67.1290012 113.1794997  40.9489988
  67.2370012 114.2504997  42.0139988  67.1981848 113.4122500  41.7814834
  60.8570012 112.0894997  43.6759988  61.0100012 111.7414997  44.5549988
  60.0070012 111.7334997  43.4209988  60.7628962 111.9936650  43.7618340
  70.3060012 112.4544997  38.8969988  70.6810012 111.7104997  38.4269988
  70.3100012 112.1844997  39.8159988  70.3578915 112.3161486  38.9567824
  69.9750012 112.3804997  41.6469988  69.0390012 112.4804997  41.8249988
  70.2550012 111.6714997  42.2249988  69.8848255 112.2982711  41.7495391
  72.9630012 101.4474997  53.6929988  72.5560012 101.9284997  52.9719988
  73.0040012 100.5424997  53.3849988  72.9128437 101.3909374  53.5526683
  60.1120012 107.8314997  51.6899988  60.3280012 107.4704997  52.5489988
  59.2570012 107.4574997  51.4799988  60.0259292 107.7314111  51.7793386
  62.7310012  96.3014997  47.6849988  61.8690012  96.2144997  47.2779988
  62.7080012  97.1574997  48.1129988  62.6100330  96.4052765  47.6871863
  67.3940012  96.0234997  51.0599988  67.8140012  95.6084997  51.8129988
  66.4610012  95.8454997  51.1769988  67.3253644  95.9425900  51.1789539
  70.7200012  99.7794997  51.9129988  70.2060012  99.6534997  52.7109988
  70.5650012 100.6914997  51.6689988  70.6286852  99.8856132  51.9892158
  71.4830012 104.6404997  37.6749988  71.5250012 104.4174997  36.7449988
  72.3320012 105.0394997  37.8649988  71.6035396 104.6639155  37.5733627
  67.0550012  98.5164997  38.3449988  66.8020012  98.5354997  39.2679988
  66.7990012  97.6444997  38.0439988  66.9857790  98.4012437  38.4306263
  62.8220012 101.2674997  48.7799988  62.1800012 101.2264997  49.4889988
  62.8590012 102.1934997  48.5429988  62.7391324 101.3871559  48.8449824
  62.8190012 101.4884997  43.6919988  61.9260012 101.1474997  43.6339988
  63.2690012 101.1114997  42.9369988  62.7577305 101.3908484  43.5819177
  68.3540012 101.9044997  42.5089988  67.9450012 102.7194997  42.2179988
  69.0750012 101.7644997  41.8949988  68.3954537 101.9972018  42.3861342
  67.4560012 102.0794997  53.9969988  66.8940012 101.3754997  54.3179988
  68.2830012 101.9594997  54.4649988  67.4907095 101.9667883  54.1042330
  69.3590012 101.3504997  45.3229988  69.1640012 101.9554997  44.6079988
  69.5400012 100.5164997  44.8889988  69.3567614 101.3206300  45.1664405
  60.5720012 101.5874997  50.6469988  60.5340012 101.9874997  51.5159988
  60.0810012 100.7704997  50.7379988  60.5004684 101.5318069  50.7781059
  63.9380012  98.9614997  37.4459988  63.5070012  98.5164997  38.1759988
  63.2200012  99.3334997  36.9339988  63.7819438  98.9508940  37.4766799
  57.1800012  98.7034997  44.4979988  57.8110012  98.6744997  45.2169988
  57.6290012  98.2784997  43.7679988  57.3270774  98.6420492  44.4976553
  58.4540012  99.4494997  39.9219988  58.9280012 100.0404997  39.3369988
  57.7370012  99.9804997  40.2689988  58.4219341  99.6020867  39.8888836
  68.6230012 102.9884997  49.9949988  68.9460012 102.3574997  49.3519988
  68.1830012 102.4534997  50.6549988  68.6076895 102.8298441  49.9962850
  65.4000012  98.9154997  44.7789988  64.4890012  98.9724997  45.0669988
  65.9060012  98.8554997  45.5889988  65.3435413  98.9151985  44.9280622
  60.2290012 100.5444997  43.6049988  59.3390012 100.6444997  43.2649988
  60.5250012  99.7024997  43.2589988  60.1472823 100.4443545  43.5117213
  63.8820012 100.5444997  41.2619988  64.8130012 100.6734997  41.4399988
  63.6670012 101.2144997  40.6119988  63.9804247 100.6526565  41.1985747
  69.8050012  98.1504997  48.0429988  69.1290012  98.2814997  48.7069988
  69.3200012  97.9954997  47.2329988  69.6467145  98.1474905  48.0244517
  62.5560012 101.7394997  38.8289988  62.0130012 101.3594997  38.1369988
  63.3890012 101.9334997  38.3999988  62.5944399 101.7138124  38.6764526
  73.0930012 113.8224997  54.3199988  73.2930012 114.2464997  53.4849988
  73.7480012 114.1654997  54.9269988  73.2090051 113.9269648  54.2877836
  60.6910012 106.2964997  53.9279988  61.4230012 106.5504997  54.4889988
  59.9110012 106.5004997  54.4429988  60.6858232 106.3589177  54.0745760
  66.7200012 101.7034997  46.6659988  67.2850012 101.1564997  46.1189988
  66.5730012 101.1814997  47.4539988  66.7772918 101.5582024  46.6978454
  61.7220012  97.8394997  43.0839988  61.4050012  96.9374997  43.0489988
  62.5040012  97.8414997  42.5309988  61.7842284  97.7161628  43.0044783
  65.3470012 100.0914997  49.0799988  64.5110012 100.5454997  49.1899988
  65.8710012 100.3674997  49.8319988  65.3034414 100.1909376  49.1967136
  65.8910012 106.3044997  40.7639988  65.1460012 105.7974997  40.4419988
  65.7570012 106.3534997  41.7109988  65.7708776 106.2416940  40.8478647
  73.0410012 105.4374997  49.5509988  73.6830012 105.8944997  49.0069988
  72.2110012 105.5504997  49.0879988  73.0165963 105.5152704  49.4140177
  69.7890012  99.1184997  38.9639988  68.8500012  99.2304997  38.8119988
  70.0860012  99.9754997  39.2699988  69.7007666  99.2496443  38.9845768
  67.4100012 106.4884997  52.0009988  67.0650012 106.1074997  52.8079988
  67.2100012 107.4224997  52.0729988  67.3358061 106.5625228  52.1210961
  70.5070012 100.9854997  40.6239988  71.3990012 100.8484997  40.9429988
  70.5640012 101.7764997  40.0879988  70.6366285 101.0736660  40.5951691
  61.0160012 105.5994997  46.5339988  61.7610012 105.5974997  45.9329988
  61.0940012 104.7764997  47.0159988  61.1285518 105.4879315  46.5168929
  68.0170012 107.7634997  39.7899988  67.7210012 108.5894997  40.1709988
  67.3140012 107.1434997  39.9859988  67.8814914 107.7928199  39.8686443
  58.0240012 104.0604997  51.8489988  58.2470012 103.6424997  52.6809988
  57.4220012 103.4474997  51.4259988  57.9731759 103.9204668  51.9057022
  65.0400012 103.5774997  54.0619988  64.7440012 103.4114997  53.1669988
  65.9720012 103.3574997  54.0509988  65.1254166 103.5250640  53.9380536
  69.6610012 108.9504997  51.9519988  68.7600012 109.1334997  51.6839988
  69.6950012 109.2094997  52.8729988  69.5423041 109.0105512  52.0398197
  75.3920012 101.1954997  40.3189988  74.8380012 100.7994997  39.6469988
  75.4920012 102.1054997  40.0409988  75.3297059 101.2643586  40.1894401
  75.3550012 106.9954997  53.1559988  74.5040012 107.2334997  52.7889988
  75.9460012 106.9784997  52.4029988  75.3182487 107.0258258  53.0038893
  73.6870012 109.9814997  40.7839988  73.3140012 109.1554997  41.0929988
  73.9650012 109.7984997  39.8869988  73.6735630 109.8437303  40.7049626
  70.8480012 104.7894997  47.8049988  69.9190012 104.5574997  47.7779988
  71.2990012 104.0124997  47.4749988  70.7819216 104.6527238  47.7566917
  63.3910012 109.1174997  43.9379988  63.9180012 109.8904997  43.7379988
  62.5110012 109.3424997  43.6369988  63.3441773 109.2538005  43.8699010
  59.1460012 103.9794997  38.5249988  59.7620012 104.6064997  38.9049988
  58.2840012 104.2954997  38.7969988  59.1137698 104.1079430  38.6137183
  64.8180012 106.7804997  43.5149988  64.5770012 107.7054997  43.5559988
  64.0770012 106.3214997  43.9109988  64.6848409 106.8451421  43.5741377
  65.3330012 110.9294997  49.8299988  65.6950012 111.7844997  49.5959988
  65.8640012 110.6374997  50.5699988  65.4544473 111.0071060  49.8980855
  63.5010012 111.8024997  43.0599988  62.5510012 111.9074997  43.1109988
  63.8530012 112.6224997  43.4049988  63.4184203 111.9278314  43.1136650
  68.8770012 107.0284997  49.5299988  68.4510012 106.8014997  50.3569988
  69.4570012 106.2904997  49.3479988  68.8971868 106.8975299  49.6185830
  71.0800012 107.9574997  38.6039988  71.4330012 107.5774997  39.4089988
  70.1310012 107.8644997  38.6909988  71.0000441 107.8929596  38.7258559
  71.5350012 111.5804997  51.9999988  70.9340012 111.0254997  51.5039988
  71.8170012 112.2474997  51.3739988  71.4908519 111.5946841  51.8474952
  75.5830012 112.4374997  38.8049988  76.3270012 113.0234997  38.6649988
  74.8890012 113.0054997  39.1389988  75.5910292 112.5945582  38.8309961
  59.6580012  98.8134997  51.4069988  58.7650012  99.1524997  51.3389988
  59.5590012  97.9584997  51.8249988  59.5224164  98.7442588  51.4542235
  71.9460012 106.6304997  40.8309988  71.6680012 105.9024997  41.3869988
  72.8730012 106.7494997  41.0359988  72.0333124 106.5468802  40.9348845
  59.3090012 110.6184997  49.8419988  59.5260012 109.6864997  49.8109988
  59.5550012 110.8924997  50.7249988  59.3719549 110.5280636  49.9571763
  65.1710012 109.0694997  37.0509988  65.4100012 108.3214997  36.5039988
  64.9020012 108.6814997  37.8839988  65.1673675 108.9146638  37.0886865
  64.1080012 108.6394997  39.5079988  64.2540012 108.1194997  40.2979988
  64.1050012 109.5464997  39.8139988  64.1275989 108.6908853  39.6576088
  60.5610012 105.8924997  40.0179988  59.8750012 106.2444997  40.5849988
  61.0830012 106.6554997  39.7709988  60.5376852 106.0438578  40.0622118
  68.3920012  98.5544997  50.2969988  69.0910012  98.6284997  50.9469988
  68.0110012  97.6904997  50.4509988  68.4361767  98.4477624  50.4068322
  69.1770012  98.2064997  41.3939988  69.3970012  98.6784997  40.5909988
  69.7350012  98.6014997  42.0639988  69.2824968  98.3244285  41.3747331
  66.8450012 110.3374997  40.2569988  66.0290012 110.8344997  40.3089988
  67.3750012 110.8124997  39.6169988  66.8049161 110.4697722  40.1775956
  66.3770012  99.9344997  42.2289988  67.1890012 100.4394997  42.2749988
  66.1320012  99.7894997  43.1429988  66.4550520  99.9840375  42.3588517
  66.9120012 100.9204997  51.4139988  67.0310012 101.4944997  52.1709988
  67.5680012 100.2324997  51.5279988  67.0169757 100.9061079  51.5330825
  67.2600012  97.0154997  43.1669988  66.9140012  97.6334997  43.8119988
  67.9190012  97.5164997  42.6859988  67.3017826  97.1675802  43.1900971
  64.1840012 111.3814997  40.2389988  64.3440012 112.1804997  39.7379988
  63.9860012 111.6874997  41.1239988  64.1791649 111.5324469  40.2899815
  62.9180012  98.0784997  39.8539988  62.8350012  98.9674997  40.2009988
  63.8080012  97.8134997  40.0859988  63.0269469  98.1641430  39.9327626
  73.1170012  98.8274997  52.2489988  72.2000012  99.0904997  52.1609988
  73.4520012  98.8244997  51.3519988  73.0369900  98.8630224  52.1157919
  71.7190012 102.5784997  46.3439988  70.9210012 102.1634997  46.0159988
  72.1640012 101.8874997  46.8349988  71.6699885 102.4283543  46.3654889
  61.1770012 108.5064997  38.9149988  61.7690012 109.2054997  39.1909988
  61.6360012 108.0734997  38.1949988  61.3201142 108.5437049  38.8554830
  59.4930012 101.1704997  38.0309988  59.4480012 102.1094997  38.2089988
  58.6050012 100.9344997  37.7609988  59.3668574 101.2671892  38.0188912
  72.8050012 111.8344997  47.9669988  72.6500012 112.5124997  47.3099988
  73.7380012 111.9064997  48.1699988  72.9098500 111.9370170  47.9045119
  60.3010012  95.9524997  46.7039988  60.0720012  96.0114997  45.7759988
  59.8580012  95.1604997  47.0099988  60.2098530  95.8535753  46.6184786
  59.2310012 109.8924997  42.8639988  58.3990012 110.3654997  42.8919988
  59.7770012 110.4024997  42.2659988  59.1909739 110.0261871  42.7869716
  58.5190012 112.5054997  54.1939988  59.0600012 112.2884997  54.9539988
  58.0380012 111.6994997  54.0049988  58.5279345 112.3669514  54.2723076
  63.1170012 111.4244997  55.8149988  63.8840012 110.9654997  56.1559988
  63.0950012 111.1984997  54.8849988  63.2191434 111.3310409  55.7360043
  67.2090012 110.9324997  37.1899988  66.5650012 110.3014997  37.5109988
  67.9710012 110.4014997  36.9579988  67.2238077 110.7742920  37.2026011
  69.6940012 109.8044997  54.5439988  69.3430012 108.9484997  54.7869988
  70.4200012 109.9474997  55.1509988  69.7440769 109.7065636  54.6593619
  71.8130012 110.7494997  37.4239988  72.0960012 109.9554997  37.8759988
  72.5530012 110.9824997  36.8629988  71.9517486 110.6722803  37.4100698
  58.4260012 106.3154997  55.1489988  58.5700012 105.4134997  54.8619988
  57.6540012 106.6014997  54.6609988  58.3413323 106.2308261  55.0437881
  62.7680012 106.6594997  37.2809988  62.8320012 105.8654997  37.8119988
  63.4210012 106.5404997  36.5909988  62.8650241 106.5347148  37.2604317
  65.0820012 106.2854997  54.5809988  64.7530012 106.5564997  53.7239988
  65.2340012 105.3444997  54.4939988  65.0574809 106.1953862  54.4518244
  68.1200012 107.7064997  37.0169988  67.8510012 107.8864997  37.9179988
  67.9140012 106.7804997  36.8859988  68.0553825 107.6060152  37.1225214
  70.8160012 106.2014997  51.9649988  71.5620012 106.7894997  51.8449988
  70.0590012 106.7834997  52.0279988  70.8157554 106.3607011  51.9570907
  59.2590012 103.5154997  54.5689988  59.6670012 102.6584997  54.4479988
  58.9990012 103.5304997  55.4899988  59.2797568 103.4000807  54.6769588
  63.9170012 104.6314997  39.5869988  63.4570012 104.1474997  40.2729988
  64.1720012 103.9634997  38.9509988  63.8884902 104.4748731  39.5949334
  63.2060012 102.5244997  51.9429988  62.5880012 103.1994997  52.2229988
  63.5500012 102.8454997  51.1099988  63.1679615 102.6602721  51.8686581
  64.9880012 102.8744997  37.8489988  64.8080012 102.7204997  36.9219988
  65.9380012 102.9824997  37.8939988  65.0917776 102.8680175  37.7281843
  68.2260012 104.9964997  55.2199988  69.1790012 105.0794997  55.1929988
  68.0650012 104.2844997  55.8399988  68.3346426 104.9116746  55.3000579
  74.3780012 105.2294997  37.2949988  74.1040012 104.8044997  36.4819988
  74.4170012 106.1604997  37.0779988  74.3457699 105.2972484  37.1543610
  63.5450012  99.8794997  53.0249988  63.6950012  99.1504997  52.4229988
  63.5480012 100.6564997  52.4659988  63.5659302  99.8847851  52.8670692
  63.9580012  98.2494997  50.5179988  64.4940012  98.7004997  49.8659988
  63.1060012  98.1414997  50.0949988  63.9162178  98.2966390  50.3715756
  65.5400012 103.6884997  50.7569988  66.2900012 103.5324997  50.1839988
  65.2010012 104.5404997  50.4819988  65.5968921 103.7822968  50.6413561
  69.9550012 101.5034997  55.7859988  70.1480012 100.5724997  55.6739988
  70.8130012 101.9284997  55.7759988  70.0973020 101.4336389  55.7693361
  71.2720012 104.2924997  53.8629988  70.9910012 105.0014997  53.2859988
  72.2150012 104.2194997  53.7119988  71.3609027 104.3797646  53.7635551
  62.0240012 101.0774997  54.9369988  61.2570012 100.5454997  54.7269988
  62.7030012 100.7674997  54.3369988  62.0107022 100.9627506  54.8271648
  64.7640012  95.7054997  50.9489988  64.6650012  96.6524997  50.8439988
  64.0210012  95.3334997  50.4739988  64.6500564  95.7845902  50.8704560
  66.0280012 100.0274997  54.5129988  65.7920012  99.8074997  55.4149988
  65.2440012  99.8204997  54.0029988  65.8898628  99.9694760  54.5673932
  68.7430012  99.1544997  53.5889988  67.7960012  99.1864997  53.7209988
  69.0560012  98.5294997  54.2419988  68.6555475  99.0743207  53.6954455
  70.3770012  97.7884997  55.5939988  70.2810012  96.8364997  55.5879988
  70.0560012  98.0574997  56.4539988  70.3204070  97.6944035  55.7095441
  60.2040012  98.9984997  54.6409988  60.4160012  98.2914997  54.0309988
  60.0930012  98.5604997  55.4849988  60.2179721  98.8427084  54.6716843
  64.9850012  94.9994997  53.6209988  65.6970012  94.3594997  53.6069988
  64.8840012  95.2664997  52.7069988  65.0687939  94.9479938  53.4955650
  65.3390012  96.6824997  55.6739988  65.2070012  96.2064997  54.8539988
  64.7400012  97.4264997  55.6189988  65.2399071  96.7179618  55.5542886
  64.8850012 113.5654997  38.8509988  65.8180012 113.7234997  38.9939988
  64.6210012 114.2404997  38.2259988  64.9769510 113.6783611  38.7860741
  58.4540012 108.2014997  38.3329988  59.3680012 108.2804997  38.6069988
  58.4610012 107.5144997  37.6669988  58.5801131 108.1193961  38.2804393
  57.1030012 113.5944997  43.4109988  56.4560012 113.1324997  42.8779988
  57.4570012 112.9224997  43.9929988  57.0623849 113.4404723  43.4167959
  57.9730012 111.6754997  45.2149988  57.6380012 110.7954997  45.3869988
  58.1950012 112.0204997  46.0799988  57.9571783 111.6017500  45.3554208
  75.5210012 112.4844997  48.1959988  75.5000012 112.6694997  49.1349988
  76.2120012 113.0534997  47.8549988  75.6114618 112.5866606  48.2783864
  75.0850012 112.0524997  51.1179988  74.5970012 111.3164997  50.7469988
  75.6340012 111.6584997  51.7959988  75.0924872 111.8986249  51.1589160
  73.5350012 107.8414997  55.7559988  72.6690012 107.7364997  56.1499988
  73.9120012 108.6004997  56.2019988  73.4673308 107.9296900  55.8702393
  74.8360012 106.0984997  41.2699988  75.6860012 106.5194997  41.3969988
  74.8420012 105.3584997  41.8769988  74.9531372 106.0560803  41.3694344
  75.2310012 104.1514997  43.0939988  74.5040012 103.6724997  43.4909988
  75.8120012 104.3574997  43.8259988  75.2099375 104.1137090  43.2474129
  74.9900012 106.9364997  48.0409988  75.8230012 106.5584997  47.7609988
  75.1020012 107.8794997  47.9219988  75.1192647 107.0122218  47.9865487
  73.4760012 109.8144997  50.3479988  72.8290012 110.1394997  50.9739988
  72.9590012 109.3744997  49.6739988  73.3174029 109.7995004  50.3425827
  75.4990012 104.0524997  39.4849988  74.9770012 104.4094997  38.7659988
  75.4660012 104.7274997  40.1629988  75.4231634 104.1925413  39.4783145
  73.8480012 101.2924997  38.0359988  73.9440012 101.9594997  37.3549988
  73.7080012 100.4764997  37.5539988  73.8422135 101.2734500  37.8778491
  73.0170012 102.6724997  43.6569988  72.8670012 101.7274997  43.6359988
  72.6640012 102.9534997  44.4999988  72.9486625 102.5810441  43.7682346
  58.0530012 104.7504997  47.6669988  58.2370012 104.6684997  46.7309988
  58.9020012 104.6264997  48.0909988  58.1930139 104.7225003  47.5961455
  73.8740012 104.6424997  53.2949988  74.4570012 103.9084997  53.4869988
  74.4380012 105.4144997  53.3419988  74.0299769 104.6464227  53.3276159
  75.3700012 102.5454997  53.9799988  74.5070012 102.1664997  53.8139988
  75.9750012 101.8064997  53.9059988  75.3335979 102.3938023  53.9472817
  73.0950012  98.7004997  37.1529988  73.7060012  98.3294997  37.7899988
  72.2590012  98.2794997  37.3489988  73.0655032  98.5927554  37.2667035
  72.7280012 100.2554997  42.1189988  73.0080012  99.3484997  42.2429988
  73.4870012 100.6894997  41.7299988  72.8689277 100.1900942  42.0833682
  73.3400012 100.8364997  47.5549988  74.2730012 101.0484997  47.5209988
  73.1050012 100.9384997  48.4769988  73.4358036 100.8792769  47.6749976
  73.3690012 101.5734997  50.3309988  72.5260012 101.8414997  50.6969988
  73.8110012 102.3954997  50.1199988  73.3134158 101.7213291  50.3525491
  57.6500012 100.0214997  53.8079988  58.5700012  99.8994997  54.0439988
  57.2010012  99.2714997  54.1969988  57.7151580  99.9033727  53.8929006
  75.6520012  95.5534997  55.6839988  76.0020012  94.8994997  55.0789988
  75.7990012  96.3904997  55.2449988  75.7198419  95.5771591  55.5417118
  73.3410012  97.5184997  42.1669988  73.5240012  97.0694997  42.9929988
  72.7420012  96.9334997  41.7039988  73.2850202  97.3779975  42.2173275
  58.8710012  98.3334997  46.6989988  59.3170012  97.5414997  47.0009988
  59.3380012  99.0494997  47.1299988  58.9950172  98.3220624  46.7984820
  57.1750012 101.3324997  47.7679988  57.6670012 101.1114997  46.9769988
  57.5380012 102.1734997  48.0489988  57.2913126 101.4158357  47.6977531
  75.1720012  97.6624997  54.0339988  74.2540012  97.9334997  53.9979988
  75.2950012  97.1274997  53.2489988  75.0631066  97.6272892  53.9230487
  75.2080012  97.5854997  38.6949988  75.6200012  96.8644997  38.2199988
  75.8900012  98.2554997  38.7539988  75.3565885  97.5772368  38.6378915
  57.4890012  97.5904997  41.8219988  56.5640012  97.7994997  41.6929988
  57.9430012  98.0744997  41.1329988  57.4237368  97.6845993  41.7111226
  72.2600012 112.5744997  43.7679988  72.9120012 112.2274997  43.1599988
  72.7700012 113.0634997  44.4139988  72.4182637 112.5930597  43.7720236
  57.4530012  96.3284997  50.1669988  56.7880012  96.0824997  50.8099988
  57.0100012  96.9504997  49.5889988  57.3020956  96.3788632  50.1769352
  59.6450012 109.5034997  54.3109988  58.8240012 109.6784997  53.8509988
  59.3920012 109.4304997  55.2319988  59.4986164 109.5175622  54.3724923
  62.5990012 110.4784997  50.5699988  62.1740012 111.2874997  50.2869988
  63.5030012 110.5634997  50.2679988  62.6630271 110.6008469  50.4903776
  66.9100012 111.8774997  53.5289988  67.0950012 111.5434997  54.4069988
  67.7560012 112.1864997  53.2069988  67.0497539 111.8736047  53.6055605
  69.2550012 113.1634997  52.7729988  69.9320012 112.5304997  52.5329988
  69.5770012 113.5644997  53.5799988  69.3911637 113.1311154  52.8492793
  74.1720012  95.7524997  51.8529988  73.3600012  96.0774997  51.4649988
  74.4050012  94.9924997  51.3199988  74.0923423  95.6942436  51.7278253
  60.0010012 113.7344997  50.6169988  59.2800012 114.1744997  50.1659988
  59.6350012 113.4834997  51.4659988  59.8529804 113.7607698  50.6699840
  62.4680012 113.3344997  49.6469988  61.6030012 113.4064997  50.0509988
  62.4130012 113.8814997  48.8629988  62.3422085 113.4182685  49.5963362
  67.1780012 113.2224997  48.8219988  66.7220012 113.7514997  48.1679988
  67.3410012 113.8254997  49.5479988  67.1375585 113.3764468  48.8305062
  69.5060012 112.1004997  49.7669988  68.6010012 112.2654997  49.5019988
  69.9350012 112.9534997  49.7019988  69.4400799 112.2384483  49.7219182
  72.1100012 113.6704997  50.0619988  71.9280012 114.5864997  49.8519988
  72.2870012 113.2604997  49.2159988  72.1090210 113.7404822  49.9187885
  59.4150012 112.3574997  47.5269988  59.3970012 111.9324997  48.3849988
  60.2200012 112.0394997  47.1189988  59.5213875 112.2563812  47.5891655
  61.5570012 111.0674997  46.1819988  61.3380012 110.1514997  46.3519988
  62.3810012 111.2074997  46.6479988  61.6384420 110.9610520  46.2682774
  64.0940012 111.5374997  47.0309988  64.3070012 110.6494997  46.7439988
  64.1580012 111.5034997  47.9849988  64.1318231 111.4113102  47.1207397
  67.6020012  97.2014997  46.1749988  66.9280012  96.5724997  46.4309988
  68.1660012  96.7174997  45.5719988  67.5859230  97.0498744  46.1285340
  72.7450012  95.3094997  46.2879988  73.3490012  95.8564997  45.7859988
  71.8750012  95.6284997  46.0479988  72.7101241  95.4275806  46.1867654
  74.4720012  96.4474997  44.6209988  75.0840012  95.9334997  44.0949988
  74.8540012  97.3254997  44.6449988  74.6074540  96.4957140  44.5521830
  59.9290012  95.8354997  43.9969988  59.1520012  95.6014997  43.4899988
  60.4590012  95.0384997  44.0059988  59.8942330  95.6956988  43.9287742
  58.7650012  95.6334997  39.8009988  59.2040012  96.2444997  39.2089988
  58.1320012  96.1714997  40.2749988  58.7394514  95.7899257  39.7840930
  64.5080012  95.7624997  43.8109988  65.3830012  96.1504997  43.7809988
  64.3720012  95.5474997  44.7329988  64.6093695  95.7865184  43.9316440
  70.0650012  95.7924997  45.4599988  70.1410012  95.8874997  44.5099988
  69.7900012  94.8844997  45.5889988  70.0382321  95.6827867  45.3475079
  71.4180012  95.8184997  41.1519988  70.7160012  96.4334997  40.9429988
  70.9740012  94.9804997  41.2829988  71.2616330  95.7895783  41.1410328
  58.6660012 111.5814997  40.6989988  57.9810012 111.5434997  40.0309988
  58.6700012 112.4944997  40.9869988  58.5728193 111.6997016  40.6465284
  60.6260012  97.5494997  38.2429988  61.1180012  96.9194997  37.7159988
  61.2500012  97.8454997  38.9069988  60.7775446  97.5033199  38.2605980
  65.6520012  97.8424997  40.6999988  65.8300012  97.1964997  41.3829988
  65.5990012  98.6764997  41.1679988  65.6691829  97.8667985  40.8565940
  67.5310012 112.7914997  39.0959988  68.3970012 113.1574997  38.9179988
  67.2840012 112.3514997  38.2819988  67.6162392 112.7821756  38.9616289
  74.2400012 112.3544997  41.7749988  74.0450012 111.6064997  41.2099988
  74.2010012 113.1124997  41.1919988  74.2080380 112.3546099  41.6188384
  59.8870012  96.3494997  53.5149988  59.5210012  95.5844997  53.9579988
  60.8000012  96.3784997  53.8019988  59.9602790  96.2487224  53.6144070
  61.8600012  95.7004997  55.0509988  62.7580012  95.4264997  54.8659988
  61.4730012  94.9574997  55.5149988  61.9306612  95.5625914  55.0883643
  60.4840012 112.5014997  37.7239988  60.2170012 112.7884997  38.5969988
  61.2560012 111.9554997  37.8759988  60.5517488 112.4670294  37.8641050
  70.2810012  95.0324997  55.2329988  70.3580012  94.6064997  56.0869988
  71.1750012  95.0464997  54.8899988  70.4123428  94.9760879  55.3035310
  73.4570012 111.1054997  53.9249988  72.6750012 110.9194997  53.4059988
  73.3850012 112.0344997  54.1429988  73.3401777 111.2056492  53.8834048
  87.8630012 104.9914997  43.9559988  87.9520012 105.9354997  43.8239988
  87.2250012 104.7164997  43.2979988  87.7889081 105.0834830  43.8489614
  86.7960012 104.2464997  47.3749988  86.7580012 103.6004997  48.0799988
  86.4740012 103.7804997  46.6039988  86.7472333 104.0949408  47.3672978
  79.1650012 103.8614997  48.9679988  79.2060012 103.2354997  49.6909988
  79.8680012 104.4854997  49.1499988  79.2656363 103.8601196  49.0916044
  90.5020012 107.1854997  45.6759988  90.0620012 106.4654997  46.1269988
  90.4890012 107.9064997  46.3059988  90.4400226 107.1843731  45.8228494
  80.0880012 108.3114997  47.5029988  79.7190012 107.5094997  47.1329988
  81.0290012 108.1424997  47.5489988  80.1647289 108.1790153  47.4586316
  76.6980012 101.9714997  42.8959988  76.2510012 102.8174997  42.8769988
  76.1370012 101.3914997  42.3799988  76.5609900 102.0089916  42.8236801
  77.4090012 104.1334997  45.0219988  77.6220012 103.3634997  45.5489988
  78.1470012 104.2224997  44.4179988  77.5378496 104.0401394  45.0125300
  87.6140012 112.2904997  45.8889988  88.2340012 111.6134997  45.6149988
  87.4060012 112.0724997  46.7969988  87.6706904 112.1683870  45.9743365
  85.1860012 106.6794997  47.7809988  85.4900012 105.9934997  47.1859988
  85.9070012 106.7974997  48.3989988  85.3250671 106.6016305  47.7831816
  93.8490012  98.2804997  48.6419988  93.8980012  98.8904997  49.3779988
  94.2740012  98.7414997  47.9189988  93.9131824  98.4263741  48.6450205
  88.3270012 101.0734997  48.1089988  88.4690012 100.1274997  48.1289988
  88.2200012 101.2804997  47.1799988  88.3319863 100.9719534  47.9862339
  81.4810012  99.1744997  45.3809988  81.5250012 100.0344997  44.9629988
  81.0240012  98.6224997  44.7469988  81.4252185  99.2175799  45.2380299
  89.2040012  99.3054997  43.7819988  89.8500012  98.9764997  44.4069988
  89.7140012  99.8234997  43.1589988  89.3614264  99.3304611  43.7833862
  78.1020012 101.5714997  46.1429988  78.7550012 101.0214997  46.5749988
  78.1260012 101.2974997  45.2259988  78.1946683 101.4591466  46.0782123
  83.2580012 103.1214997  45.3579988  83.8740012 102.5954997  45.8679988
  82.6720012 102.4814997  44.9549988  83.2630810 102.9629208  45.3733173
  94.2400012  99.7584997  50.8779988  93.5520012 100.4164997  50.7819988
  94.2560012  99.5614997  51.8139988  94.1478525  99.8220462  50.9914808
  80.2920012  98.0924997  49.4549988  80.0730012  98.6224997  48.6889988
  79.6240012  98.3194997  50.1019988  80.1717600  98.1956906  49.4376379
  87.6610012 107.5924997  42.9989988  87.3650012 107.2704997  42.1479988
  87.3360012 108.4924997  43.0399988  87.5766371 107.6700215  42.8881801
  82.8610012 105.7684997  49.7419988  82.1210012 106.3664997  49.8459988
  83.5750012 106.3224997  49.4269988  82.8562237 105.9252831  49.7136465
  90.9680012  98.5964997  45.7619988  90.7520012  97.8304997  46.2949988
  91.6230012  99.0684997  46.2749988  91.0270632  98.5555889  45.9042861
  79.8850012  99.9844997  47.4069988  80.4990012 100.6174997  47.7809988
  80.3970012  99.5124997  46.7509988  80.0382296 100.0072370  47.3694252
  81.2680012 107.7324997  50.5299988  81.2630012 108.6124997  50.1519988
  80.4150012 107.6494997  50.9549988  81.1519464 107.8416117  50.5357907
  77.3890012 107.4034997  41.3119988  77.1170012 107.6324997  40.4229988
  77.4350012 108.2414997  41.7719988  77.3580094 107.5481213  41.2525697
  91.0140012 109.0254997  48.0239988  90.0730012 109.0834997  48.1859988
  91.2910012 109.9314997  47.8869988  90.9224679 109.1559443  48.0276815
  91.3150012  97.3114997  49.4419988  90.5790012  97.9224997  49.4039988
  91.9980012  97.7264997  48.9149988  91.3066541  97.4511374  49.3655832
  84.3180012  95.3984997  46.9079988  84.2010012  94.4494997  46.8529988
  83.4630012  95.7304997  47.1809988  84.1863733  95.3135409  46.9373897
  89.2660012 110.8064997  44.6499988  89.6920012 110.0994997  44.1649988
  89.5830012 111.6074997  44.2329988  89.3671019 110.8180994  44.5273130
  90.4260012 108.7074997  43.1579988  90.1680012 108.0174997  42.5469988
  90.4970012 108.2644997  44.0039988  90.4002856 108.5532124  43.1886885
  92.1120012 107.2734997  51.6359988  92.2520012 106.6824997  50.8959988
  92.2790012 108.1464997  51.2789988  92.1536778 107.3106426  51.4866965
  86.5850012 104.2354997  41.4079988  85.8730012 104.7704997  41.0559988
  87.2760012 104.2914997  40.7479988  86.5810132 104.3162543  41.2706289
  86.6380012 102.6934997  38.4469988  87.3390012 102.7154997  39.0979988
  86.9410012 102.0654997  37.7909988  86.7747830 102.6116566  38.4473711
  93.9540012 103.6134997  49.7019988  93.3010012 104.3084997  49.7909988
  94.4190012 103.8234997  48.8919988  93.9275390 103.7369425  49.6046883
  89.9900012 104.4454997  42.3599988  89.2580012 104.6734997  42.9329988
  90.4380012 103.7314997  42.8149988  89.9503095 104.3802571  42.4999119
  89.8880012 102.6194997  51.4269988  89.9680012 103.3824997  51.9989988
  89.2860012 102.8984997  50.7369988  89.8175756 102.7617134  51.4120589
  81.6360012 105.0754997  44.2419988  81.3050012 104.7054997  43.4239988
  82.2240012 104.4054997  44.5889988  81.6701873 104.9341156  44.1768102
  83.0020012 108.5034997  46.9239988  82.9080012 107.9254997  46.1669988
  83.7320012 108.1324997  47.4199988  83.0877981 108.3742390  46.8874165
  82.0020012 103.8444997  47.8759988  82.5680012 103.9654997  47.1129988
  82.3210012 104.4814997  48.5149988  82.1225786 103.9471884  47.8580040
  88.3110012 109.3474997  48.6099988  88.0710012 110.0094997  49.2579988
  88.1130012 108.5134997  49.0349988  88.2513808 109.3253134  48.7561524
  82.8820012 108.2434997  52.5929988  82.5710012 109.0254997  53.0479988
  82.2320012 108.0904997  51.9069988  82.7515558 108.3299105  52.5625871
  88.8610012 103.6074997  40.0449988  89.4410012 103.7574997  40.7919988
  89.2750012 104.0784997  39.3219988  88.9962830 103.6916841  40.0494134
  79.8020012 104.4414997  51.8219988  79.8730012 105.0924997  52.5199988
  78.9120012 104.5444997  51.4869988  79.6913117 104.5445936  51.8722700
  86.5880012 110.3444997  43.4799988  87.0620012 110.6394997  44.2579988
  86.0250012 111.0824997  43.2469988  86.5767653 110.4846932  43.5550136
  81.1220012 110.3154997  53.3559988  81.1290012 110.1794997  52.4089988
  80.2060012 110.1974997  53.6079988  80.9991714 110.2809430  53.2604666
  92.5600012  95.3574997  39.8579988  91.6600012  95.4964997  40.1529988
  92.8120012  96.1884997  39.4559988  92.4708702  95.4889074  39.8440205
  80.6260012 104.1454997  41.8319988  80.3340012 104.9134997  41.3409988
  79.9520012 103.4854997  41.6689988  80.4949081 104.1614406  41.7427340
  93.7490012 109.7234997  38.2339988  93.8230012 110.6624997  38.4049988
  94.6550012 109.4184997  38.1779988  93.8815100 109.8106722  38.2498119
  76.7190012 106.5084997  50.6469988  76.2180012 106.4804997  49.8319988
  76.7240012 105.6024997  50.9559988  76.6511526 106.3822278  50.5772872
  76.4690012 109.2884997  47.5309988  77.4150012 109.1444997  47.5119988
  76.3570012 110.0724997  48.0679988  76.5832727 109.3748046  47.6010072
  94.6670012 109.9544997  53.2129988  94.6180012 108.9994997  53.1759988
  93.8400012 110.2224997  53.6139988  94.5484940 109.8598998  53.2621375
  85.6460012 109.5284997  52.0889988  85.7330012 110.3544997  52.5639988
  84.7820012 109.1984997  52.3379988  85.5411964 109.5969878  52.1876549
  86.0600012 113.3004997  41.8949988  85.9850012 113.1794997  40.9489988
  86.0930012 114.2504997  42.0139988  86.0541848 113.4122500  41.7814834
  79.7130012 112.0894997  43.6759988  79.8660012 111.7414997  44.5549988
  78.8630012 111.7334997  43.4209988  79.6188962 111.9936650  43.7618340
  89.1620012 112.4544997  38.8969988  89.5370012 111.7104997  38.4269988
  89.1660012 112.1844997  39.8159988  89.2138915 112.3161486  38.9567824
  88.8310012 112.3804997  41.6469988  87.8950012 112.4804997  41.8249988
  89.1110012 111.6714997  42.2249988  88.7408255 112.2982711  41.7495391
  91.8190012 101.4474997  53.6929988  91.4120012 101.9284997  52.9719988
  91.8600012 100.5424997  53.3849988  91.7688437 101.3909374  53.5526683
  78.9680012 107.8314997  51.6899988  79.1840012 107.4704997  52.5489988
  78.1130012 107.4574997  51.4799988  78.8819292 107.7314111  51.7793386
  81.5870012  96.3014997  47.6849988  80.7250012  96.2144997  47.2779988
  81.5640012  97.1574997  48.1129988  81.4660330  96.4052765  47.6871863
  86.2500012  96.0234997  51.0599988  86.6700012  95.6084997  51.8129988
  85.3170012  95.8454997  51.1769988  86.1813644  95.9425900  51.1789539
  89.5760012  99.7794997  51.9129988  89.0620012  99.6534997  52.7109988
  89.4210012 100.6914997  51.6689988  89.4846852  99.8856132  51.9892158
  90.3390012 104.6404997  37.6749988  90.3810012 104.4174997  36.7449988
  91.1880012 105.0394997  37.8649988  90.4595396 104.6639155  37.5733627
  85.9110012  98.5164997  38.3449988  85.6580012  98.5354997  39.2679988
  85.6550012  97.6444997  38.0439988  85.8417790  98.4012437  38.4306263
  81.6780012 101.2674997  48.7799988  81.0360012 101.2264997  49.4889988
  81.7150012 102.1934997  48.5429988  81.5951324 101.3871559  48.8449824
  81.6750012 101.4884997  43.6919988  80.7820012 101.1474997  43.6339988
  82.1250012 101.1114997  42.9369988  81.6137305 101.3908484  43.5819177
  87.2100012 101.9044997  42.5089988  86.8010012 102.7194997  42.2179988
  87.9310012 101.7644997  41.8949988  87.2514537 101.9972018  42.3861342
  86.3120012 102.0794997  53.9969988  85.7500012 101.3754997  54.3179988
  87.1390012 101.9594997  54.4649988  86.3467095 101.9667883  54.1042330
  88.2150012 101.3504997  45.3229988  88.0200012 101.9554997  44.6079988
  88.3960012 100.5164997  44.8889988  88.2127614 101.3206300  45.1664405
  79.4280012 101.5874997  50.6469988  79.3900012 101.9874997  51.5159988
  78.9370012 100.7704997  50.7379988  79.3564684 101.5318069  50.7781059
  82.7940012  98.9614997  37.4459988  82.3630012  98.5164997  38.1759988
  82.0760012  99.3334997  36.9339988  82.6379438  98.9508940  37.4766799
  76.0360012  98.7034997  44.4979988  76.6670012  98.6744997  45.2169988
  76.4850012  98.2784997  43.7679988  76.1830774  98.6420492  44.4976553
  77.3100012  99.4494997  39.9219988  77.7840012 100.0404997  39.3369988
  76.5930012  99.9804997  40.2689988  77.2779341  99.6020867  39.8888836
  87.4790012 102.9884997  49.9949988  87.8020012 102.3574997  49.3519988
  87.0390012 102.4534997  50.6549988  87.4636895 102.8298441  49.9962850
  84.2560012  98.9154997  44.7789988  83.3450012  98.9724997  45.0669988
  84.7620012  98.8554997  45.5889988  84.1995413  98.9151985  44.9280622
  79.0850012 100.5444997  43.6049988  78.1950012 100.6444997  43.2649988
  79.3810012  99.7024997  43.2589988  79.0032823 100.4443545  43.5117213
  82.7380012 100.5444997  41.2619988  83.6690012 100.6734997  41.4399988
  82.5230012 101.2144997  40.6119988  82.8364247 100.6526565  41.1985747
  88.6610012  98.1504997  48.0429988  87.9850012  98.2814997  48.7069988
  88.1760012  97.9954997  47.2329988  88.5027145  98.1474905  48.0244517
  81.4120012 101.7394997  38.8289988  80.8690012 101.3594997  38.1369988
  82.2450012 101.9334997  38.3999988  81.4504399 101.7138124  38.6764526
  91.9490012 113.8224997  54.3199988  92.1490012 114.2464997  53.4849988
  92.6040012 114.1654997  54.9269988  92.0650051 113.9269648  54.2877836
  79.5470012 106.2964997  53.9279988  80.2790012 106.5504997  54.4889988
  78.7670012 106.5004997  54.4429988  79.5418232 106.3589177  54.0745760
  85.5760012 101.7034997  46.6659988  86.1410012 101.1564997  46.1189988
  85.4290012 101.1814997  47.4539988  85.6332918 101.5582024  46.6978454
  80.5780012  97.8394997  43.0839988  80.2610012  96.9374997  43.0489988
  81.3600012  97.8414997  42.5309988  80.6402284  97.7161628  43.0044783
  84.2030012 100.0914997  49.0799988  83.3670012 100.5454997  49.1899988
  84.7270012 100.3674997  49.8319988  84.1594414 100.1909376  49.1967136
  84.7470012 106.3044997  40.7639988  84.0020012 105.7974997  40.4419988
  84.6130012 106.3534997  41.7109988  84.6268776 106.2416940  40.8478647
  91.8970012 105.4374997  49.5509988  92.5390012 105.8944997  49.0069988
  91.0670012 105.5504997  49.0879988  91.8725963 105.5152704  49.4140177
  88.6450012  99.1184997  38.9639988  87.7060012  99.2304997  38.8119988
  88.9420012  99.9754997  39.2699988  88.5567666  99.2496443  38.9845768
  86.2660012 106.4884997  52.0009988  85.9210012 106.1074997  52.8079988
  86.0660012 107.4224997  52.0729988  86.1918061 106.5625228  52.1210961
  89.3630012 100.9854997  40.6239988  90.2550012 100.8484997  40.9429988
  89.4200012 101.7764997  40.0879988  89.4926285 101.0736660  40.5951691
  79.8720012 105.5994997  46.5339988  80.6170012 105.5974997  45.9329988
  79.9500012 104.7764997  47.0159988  79.9845518 105.4879315  46.5168929
  86.8730012 107.7634997  39.7899988  86.5770012 108.5894997  40.1709988
  86.1700012 107.1434997  39.9859988  86.7374914 107.7928199  39.8686443
  76.8800012 104.0604997  51.8489988  77.1030012 103.6424997  52.6809988
  76.2780012 103.4474997  51.4259988  76.8291759 103.9204668  51.9057022
  83.8960012 103.5774997  54.0619988  83.6000012 103.4114997  53.1669988
  84.8280012 103.3574997  54.0509988  83.9814166 103.5250640  53.9380536
  88.5170012 108.9504997  51.9519988  87.6160012 109.1334997  51.6839988
  88.5510012 109.2094997  52.8729988  88.3983041 109.0105512  52.0398197
  94.2480012 101.1954997  40.3189988  93.6940012 100.7994997  39.6469988
  94.3480012 102.1054997  40.0409988  94.1857059 101.2643586  40.1894401
  94.2110012 106.9954997  53.1559988  93.3600012 107.2334997  52.7889988
  94.8020012 106.9784997  52.4029988  94.1742487 107.0258258  53.0038893
  92.5430012 109.9814997  40.7839988  92.1700012 109.1554997  41.0929988
  92.8210012 109.7984997  39.8869988  92.5295630 109.8437303  40.7049626
  89.7040012 104.7894997  47.8049988  88.7750012 104.5574997  47.7779988
  90.1550012 104.0124997  47.4749988  89.6379216 104.6527238  47.7566917
  82.2470012 109.1174997  43.9379988  82.7740012 109.8904997  43.7379988
  81.3670012 109.3424997  43.6369988  82.2001773 109.2538005  43.8699010
  78.0020012 103.9794997  38.5249988  78.6180012 104.6064997  38.9049988
  77.1400012 104.2954997  38.7969988  77.9697698 104.1079430  38.6137183
  83.6740012 106.7804997  43.5149988  83.4330012 107.7054997  43.5559988
  82.9330012 106.3214997  43.9109988  83.5408409 106.8451421  43.5741377
  84.1890012 110.9294997  49.8299988  84.5510012 111.7844997  49.5959988
  84.7200012 110.6374997  50.5699988  84.3104473 111.0071060  49.8980855
  82.3570012 111.8024997  43.0599988  81.4070012 111.9074997  43.1109988
  82.7090012 112.6224997  43.4049988  82.2744203 111.9278314  43.1136650
  87.7330012 107.0284997  49.5299988  87.3070012 106.8014997  50.3569988
  88.3130012 106.2904997  49.3479988  87.7531868 106.8975299  49.6185830
  89.9360012 107.9574997  38.6039988  90.2890012 107.5774997  39.4089988
  88.9870012 107.8644997  38.6909988  89.8560441 107.8929596  38.7258559
  90.3910012 111.5804997  51.9999988  89.7900012 111.0254997  51.5039988
  90.6730012 112.2474997  51.3739988  90.3468519 111.5946841  51.8474952
  94.4390012 112.4374997  38.8049988  95.1830012 113.0234997  38.6649988
  93.7450012 113.0054997  39.1389988  94.4470292 112.5945582  38.8309961
  78.5140012  98.8134997  51.4069988  77.6210012  99.1524997  51.3389988
  78.4150012  97.9584997  51.8249988  78.3784164  98.7442588  51.4542235
  90.8020012 106.6304997  40.8309988  90.5240012 105.9024997  41.3869988
  91.7290012 106.7494997  41.0359988  90.8893124 106.5468802  40.9348845
  78.1650012 110.6184997  49.8419988  78.3820012 109.6864997  49.8109988
  78.4110012 110.8924997  50.7249988  78.2279549 110.5280636  49.9571763
  84.0270012 109.0694997  37.0509988  84.2660012 108.3214997  36.5039988
  83.7580012 108.6814997  37.8839988  84.0233675 108.9146638  37.0886865
  82.9640012 108.6394997  39.5079988  83.1100012 108.1194997  40.2979988
  82.9610012 109.5464997  39.8139988  82.9835989 108.6908853  39.6576088
  79.4170012 105.8924997  40.0179988  78.7310012 106.2444997  40.5849988
  79.9390012 106.6554997  39.7709988  79.3936852 106.0438578  40.0622118
  87.2480012  98.5544997  50.2969988  87.9470012  98.6284997  50.9469988
  86.8670012  97.6904997  50.4509988  87.2921767  98.4477624  50.4068322
  88.0330012  98.2064997  41.3939988  88.2530012  98.6784997  40.5909988
  88.5910012  98.6014997  42.0639988  88.1384968  98.3244285  41.3747331
  85.7010012 110.3374997  40.2569988  84.8850012 110.8344997  40.3089988
  86.2310012 110.8124997  39.6169988  85.6609161 110.4697722  40.1775956
  85.2330012  99.9344997  42.2289988  86.0450012 100.4394997  42.2749988
  84.9880012  99.7894997  43.1429988  85.3110520  99.9840375  42.3588517
  85.7680012 100.9204997  51.4139988  85.8870012 101.4944997  52.1709988
  86.4240012 100.2324997  51.5279988  85.8729757 100.9061079  51.5330825
  86.1160012  97.0154997  43.1669988  85.7700012  97.6334997  43.8119988
  86.7750012  97.5164997  42.6859988  86.1577826  97.1675802  43.1900971
  83.0400012 111.3814997  40.2389988  83.2000012 112.1804997  39.7379988
  82.8420012 111.6874997  41.1239988  83.0351649 111.5324469  40.2899815
  81.7740012  98.0784997  39.8539988  81.6910012  98.9674997  40.2009988
  82.6640012  97.8134997  40.0859988  81.8829469  98.1641430  39.9327626
  91.9730012  98.8274997  52.2489988  91.0560012  99.0904997  52.1609988
  92.3080012  98.8244997  51.3519988  91.8929900  98.8630224  52.1157919
  90.5750012 102.5784997  46.3439988  89.7770012 102.1634997  46.0159988
  91.0200012 101.8874997  46.8349988  90.5259885 102.4283543  46.3654889
  80.0330012 108.5064997  38.9149988  80.6250012 109.2054997  39.1909988
  80.4920012 108.0734997  38.1949988  80.1761142 108.5437049  38.8554830
  78.3490012 101.1704997  38.0309988  78.3040012 102.1094997  38.2089988
  77.4610012 100.9344997  37.7609988  78.2228574 101.2671892  38.0188912
  91.6610012 111.8344997  47.9669988  91.5060012 112.5124997  47.3099988
  92.5940012 111.9064997  48.1699988  91.7658500 111.9370170  47.9045119
  79.1570012  95.9524997  46.7039988  78.9280012  96.0114997  45.7759988
  78.7140012  95.1604997  47.0099988  79.0658530  95.8535753  46.6184786
  78.0870012 109.8924997  42.8639988  77.2550012 110.3654997  42.8919988
  78.6330012 110.4024997  42.2659988  78.0469739 110.0261871  42.7869716
  77.3750012 112.5054997  54.1939988  77.9160012 112.2884997  54.9539988
  76.8940012 111.6994997  54.0049988  77.3839345 112.3669514  54.2723076
  81.9730012 111.4244997  55.8149988  82.7400012 110.9654997  56.1559988
  81.9510012 111.1984997  54.8849988  82.0751434 111.3310409  55.7360043
  86.0650012 110.9324997  37.1899988  85.4210012 110.3014997  37.5109988
  86.8270012 110.4014997  36.9579988  86.0798077 110.7742920  37.2026011
  88.5500012 109.8044997  54.5439988  88.1990012 108.9484997  54.7869988
  89.2760012 109.9474997  55.1509988  88.6000769 109.7065636  54.6593619
  90.6690012 110.7494997  37.4239988  90.9520012 109.9554997  37.8759988
  91.4090012 110.9824997  36.8629988  90.8077486 110.6722803  37.4100698
  77.2820012 106.3154997  55.1489988  77.4260012 105.4134997  54.8619988
  76.5100012 106.6014997  54.6609988  77.1973323 106.2308261  55.0437881
  81.6240012 106.6594997  37.2809988  81.6880012 105.8654997  37.8119988
  82.2770012 106.5404997  36.5909988  81.7210241 106.5347148  37.2604317
  83.9380012 106.2854997  54.5809988  83.6090012 106.5564997  53.7239988
  84.0900012 105.3444997  54.4939988  83.9134809 106.1953862  54.4518244
  86.9760012 107.7064997  37.0169988  86.7070012 107.8864997  37.9179988
  86.7700012 106.7804997  36.8859988  86.9113825 107.6060152  37.1225214
  89.6720012 106.2014997  51.9649988  90.4180012 106.7894997  51.8449988
  88.9150012 106.7834997  52.0279988  89.6717554 106.3607011  51.9570907
  78.1150012 103.5154997  54.5689988  78.5230012 102.6584997  54.4479988
  77.8550012 103.5304997  55.4899988  78.1357568 103.4000807  54.6769588
  82.7730012 104.6314997  39.5869988  82.3130012 104.1474997  40.2729988
  83.0280012 103.9634997  38.9509988  82.7444902 104.4748731  39.5949334
  82.0620012 102.5244997  51.9429988  81.4440012 103.1994997  52.2229988
  82.4060012 102.8454997  51.1099988  82.0239615 102.6602721  51.8686581
  83.8440012 102.8744997  37.8489988  83.6640012 102.7204997  36.9219988
  84.7940012 102.9824997  37.8939988  83.9477776 102.8680175  37.7281843
  87.0820012 104.9964997  55.2199988  88.0350012 105.0794997  55.1929988
  86.9210012 104.2844997  55.8399988  87.1906426 104.9116746  55.3000579
  93.2340012 105.2294997  37.2949988  92.9600012 104.8044997  36.4819988
  93.2730012 106.1604997  37.0779988  93.2017699 105.2972484  37.1543610
  82.4010012  99.8794997  53.0249988  82.5510012  99.1504997  52.4229988
  82.4040012 100.6564997  52.4659988  82.4219302  99.8847851  52.8670692
  82.8140012  98.2494997  50.5179988  83.3500012  98.7004997  49.8659988
  81.9620012  98.1414997  50.0949988  82.7722178  98.2966390  50.3715756
  84.3960012 103.6884997  50.7569988  85.1460012 103.5324997  50.1839988
  84.0570012 104.5404997  50.4819988  84.4528921 103.7822968  50.6413561
  88.8110012 101.5034997  55.7859988  89.0040012 100.5724997  55.6739988
  89.6690012 101.9284997  55.7759988  88.9533020 101.4336389  55.7693361
  90.1280012 104.2924997  53.8629988  89.8470012 105.0014997  53.2859988
  91.0710012 104.2194997  53.7119988  90.2169027 104.3797646  53.7635551
  80.8800012 101.0774997  54.9369988  80.1130012 100.5454997  54.7269988
  81.5590012 100.7674997  54.3369988  80.8667022 100.9627506  54.8271648
  83.6200012  95.7054997  50.9489988  83.5210012  96.6524997  50.8439988
  82.8770012  95.3334997  50.4739988  83.5060564  95.7845902  50.8704560
  84.8840012 100.0274997  54.5129988  84.6480012  99.8074997  55.4149988
  84.1000012  99.8204997  54.0029988  84.7458628  99.9694760  54.5673932
  87.5990012  99.1544997  53.5889988  86.6520012  99.1864997  53.7209988
  87.9120012  98.5294997  54.2419988  87.5115475  99.0743207  53.6954455
  89.2330012  97.7884997  55.5939988  89.1370012  96.8364997  55.5879988
  88.9120012  98.0574997  56.4539988  89.1764070  97.6944035  55.7095441
  79.0600012  98.9984997  54.6409988  79.2720012  98.2914997  54.0309988
  78.9490012  98.5604997  55.4849988  79.0739721  98.8427084  54.6716843
  83.8410012  94.9994997  53.6209988  84.5530012  94.3594997  53.6069988
  83.7400012  95.2664997  52.7069988  83.9247939  94.9479938  53.4955650
  84.1950012  96.6824997  55.6739988  84.0630012  96.2064997  54.8539988
  83.5960012  97.4264997  55.6189988  84.0959071  96.7179618  55.5542886
  83.7410012 113.5654997  38.8509988  84.6740012 113.7234997  38.9939988
  83.4770012 114.2404997  38.2259988  83.8329510 113.6783611  38.7860741
  77.3100012 108.2014997  38.3329988  78.2240012 108.2804997  38.6069988
  77.3170012 107.5144997  37.6669988  77.4361131 108.1193961  38.2804393
  75.9590012 113.5944997  43.4109988  75.3120012 113.1324997  42.8779988
  76.3130012 112.9224997  43.9929988  75.9183849 113.4404723  43.4167959
  76.8290012 111.6754997  45.2149988  76.4940012 110.7954997  45.3869988
  77.0510012 112.0204997  46.0799988  76.8131783 111.6017500  45.3554208
  94.3770012 112.4844997  48.1959988  94.3560012 112.6694997  49.1349988
  95.0680012 113.0534997  47.8549988  94.4674618 112.5866606  48.2783864
  93.9410012 112.0524997  51.1179988  93.4530012 111.3164997  50.7469988
  94.4900012 111.6584997  51.7959988  93.9484872 111.8986249  51.1589160
  92.3910012 107.8414997  55.7559988  91.5250012 107.7364997  56.1499988
  92.7680012 108.6004997  56.2019988  92.3233308 107.9296900  55.8702393
  93.6920012 106.0984997  41.2699988  94.5420012 106.5194997  41.3969988
  93.6980012 105.3584997  41.8769988  93.8091372 106.0560803  41.3694344
  94.0870012 104.1514997  43.0939988  93.3600012 103.6724997  43.4909988
  94.6680012 104.3574997  43.8259988  94.0659375 104.1137090  43.2474129
  93.8460012 106.9364997  48.0409988  94.6790012 106.5584997  47.7609988
  93.9580012 107.8794997  47.9219988  93.9752647 107.0122218  47.9865487
  92.3320012 109.8144997  50.3479988  91.6850012 110.1394997  50.9739988
  91.8150012 109.3744997  49.6739988  92.1734029 109.7995004  50.3425827
  94.3550012 104.0524997  39.4849988  93.8330012 104.4094997  38.7659988
  94.3220012 104.7274997  40.1629988  94.2791634 104.1925413  39.4783145
  92.7040012 101.2924997  38.0359988  92.8000012 101.9594997  37.3549988
  92.5640012 100.4764997  37.5539988  92.6982135 101.2734500  37.8778491
  91.8730012 102.6724997  43.6569988  91.7230012 101.7274997  43.6359988
  91.5200012 102.9534997  44.4999988  91.8046625 102.5810441  43.7682346
  76.9090012 104.7504997  47.6669988  77.0930012 104.6684997  46.7309988
  77.7580012 104.6264997  48.0909988  77.0490139 104.7225003  47.5961455
  92.7300012 104.6424997  53.2949988  93.3130012 103.9084997  53.4869988
  93.2940012 105.4144997  53.3419988  92.8859769 104.6464227  53.3276159
  94.2260012 102.5454997  53.9799988  93.3630012 102.1664997  53.8139988
  94.8310012 101.8064997  53.9059988  94.1895979 102.3938023  53.9472817
  91.9510012  98.7004997  37.1529988  92.5620012  98.3294997  37.7899988
  91.1150012  98.2794997  37.3489988  91.9215032  98.5927554  37.2667035
  91.5840012 100.2554997  42.1189988  91.8640012  99.3484997  42.2429988
  92.3430012 100.6894997  41.7299988  91.7249277 100.1900942  42.0833682
  92.1960012 100.8364997  47.5549988  93.1290012 101.0484997  47.5209988
  91.9610012 100.9384997  48.4769988  92.2918036 100.8792769  47.6749976
  92.2250012 101.5734997  50.3309988  91.3820012 101.8414997  50.6969988
  92.6670012 102.3954997  50.1199988  92.1694158 101.7213291  50.3525491
  76.5060012 100.0214997  53.8079988  77.4260012  99.8994997  54.0439988
  76.0570012  99.2714997  54.1969988  76.5711580  99.9033727  53.8929006
  94.5080012  95.5534997  55.6839988  94.8580012  94.8994997  55.0789988
  94.6550012  96.3904997  55.2449988  94.5758419  95.5771591  55.5417118
  92.1970012  97.5184997  42.1669988  92.3800012  97.0694997  42.9929988
  91.5980012  96.9334997  41.7039988  92.1410202  97.3779975  42.2173275
  77.7270012  98.3334997  46.6989988  78.1730012  97.5414997  47.0009988
  78.1940012  99.0494997  47.1299988  77.8510172  98.3220624  46.7984820
  76.0310012 101.3324997  47.7679988  76.5230012 101.1114997  46.9769988
  76.3940012 102.1734997  48.0489988  76.1473126 101.4158357  47.6977531
  94.0280012  97.6624997  54.0339988  93.1100012  97.9334997  53.9979988
  94.1510012  97.1274997  53.2489988  93.9191066  97.6272892  53.9230487
  94.0640012  97.5854997  38.6949988  94.4760012  96.8644997  38.2199988
  94.7460012  98.2554997  38.7539988  94.2125885  97.5772368  38.6378915
  76.3450012  97.5904997  41.8219988  75.4200012  97.7994997  41.6929988
  76.7990012  98.0744997  41.1329988  76.2797368  97.6845993  41.7111226
  91.1160012 112.5744997  43.7679988  91.7680012 112.2274997  43.1599988
  91.6260012 113.0634997  44.4139988  91.2742637 112.5930597  43.7720236
  76.3090012  96.3284997  50.1669988  75.6440012  96.0824997  50.8099988
  75.8660012  96.9504997  49.5889988  76.1580956  96.3788632  50.1769352
  78.5010012 109.5034997  54.3109988  77.6800012 109.6784997  53.8509988
  78.2480012 109.4304997  55.2319988  78.3546164 109.5175622  54.3724923
  81.4550012 110.4784997  50.5699988  81.0300012 111.2874997  50.2869988
  82.3590012 110.5634997  50.2679988  81.5190271 110.6008469  50.4903776
  85.7660012 111.8774997  53.5289988  85.9510012 111.5434997  54.4069988
  86.6120012 112.1864997  53.2069988  85.9057539 111.8736047  53.6055605
  88.1110012 113.1634997  52.7729988  88.7880012 112.5304997  52.5329988
  88.4330012 113.5644997  53.5799988  88.2471637 113.1311154  52.8492793
  93.0280012  95.7524997  51.8529988  92.2160012  96.0774997  51.4649988
  93.2610012  94.9924997  51.3199988  92.9483423  95.6942436  51.7278253
  78.8570012 113.7344997  50.6169988  78.1360012 114.1744997  50.1659988
  78.4910012 113.4834997  51.4659988  78.7089804 113.7607698  50.6699840
  81.3240012 113.3344997  49.6469988  80.4590012 113.4064997  50.0509988
  81.2690012 113.8814997  48.8629988  81.1982085 113.4182685  49.5963362
  86.0340012 113.2224997  48.8219988  85.5780012 113.7514997  48.1679988
  86.1970012 113.8254997  49.5479988  85.9935585 113.3764468  48.8305062
  88.3620012 112.1004997  49.7669988  87.4570012 112.2654997  49.5019988
  88.7910012 112.9534997  49.7019988  88.2960799 112.2384483  49.7219182
  90.9660012 113.6704997  50.0619988  90.7840012 114.5864997  49.8519988
  91.1430012 113.2604997  49.2159988  90.9650210 113.7404822  49.9187885
  78.2710012 112.3574997  47.5269988  78.2530012 111.9324997  48.3849988
  79.0760012 112.0394997  47.1189988  78.3773875 112.2563812  47.5891655
  80.4130012 111.0674997  46.1819988  80.1940012 110.1514997  46.3519988
  81.2370012 111.2074997  46.6479988  80.4944420 110.9610520  46.2682774
  82.9500012 111.5374997  47.0309988  83.1630012 110.6494997  46.7439988
  83.0140012 111.5034997  47.9849988  82.9878231 111.4113102  47.1207397
  86.4580012  97.2014997  46.1749988  85.7840012  96.5724997  46.4309988
  87.0220012  96.7174997  45.5719988  86.4419230  97.0498744  46.1285340
  91.6010012  95.3094997  46.2879988  92.2050012  95.8564997  45.7859988
  90.7310012  95.6284997  46.0479988  91.5661241  95.4275806  46.1867654
  93.3280012  96.4474997  44.6209988  93.9400012  95.9334997  44.0949988
  93.7100012  97.3254997  44.6449988  93.4634540  96.4957140  44.5521830
  78.7850012  95.8354997  43.9969988  78.0080012  95.6014997  43.4899988
  79.3150012  95.0384997  44.0059988  78.7502330  95.6956988  43.9287742
  77.6210012  95.6334997  39.8009988  78.0600012  96.2444997  39.2089988
  76.9880012  96.1714997  40.2749988  77.5954514  95.7899257  39.7840930
  83.3640012  95.7624997  43.8109988  84.2390012  96.1504997  43.7809988
  83.2280012  95.5474997  44.7329988  83.4653695  95.7865184  43.9316440
  88.9210012  95.7924997  45.4599988  88.9970012  95.8874997  44.5099988
  88.6460012  94.8844997  45.5889988  88.8942321  95.6827867  45.3475079
  90.2740012  95.8184997  41.1519988  89.5720012  96.4334997  40.9429988
  89.8300012  94.9804997  41.2829988  90.1176330  95.7895783  41.1410328
  77.5220012 111.5814997  40.6989988  76.8370012 111.5434997  40.0309988
  77.5260012 112.4944997  40.9869988  77.4288193 111.6997016  40.6465284
  79.4820012  97.5494997  38.2429988  79.9740012  96.9194997  37.7159988
  80.1060012  97.8454997  38.9069988  79.6335446  97.5033199  38.2605980
  84.5080012  97.8424997  40.6999988  84.6860012  97.1964997  41.3829988
  84.4550012  98.6764997  41.1679988  84.5251829  97.8667985  40.8565940
  86.3870012 112.7914997  39.0959988  87.2530012 113.1574997  38.9179988
  86.1400012 112.3514997  38.2819988  86.4722392 112.7821756  38.9616289
  93.0960012 112.3544997  41.7749988  92.9010012 111.6064997  41.2099988
  93.0570012 113.1124997  41.1919988  93.0640380 112.3546099  41.6188384
  78.7430012  96.3494997  53.5149988  78.3770012  95.5844997  53.9579988
  79.6560012  96.3784997  53.8019988  78.8162790  96.2487224  53.6144070
  80.7160012  95.7004997  55.0509988  81.6140012  95.4264997  54.8659988
  80.3290012  94.9574997  55.5149988  80.7866612  95.5625914  55.0883643
  79.3400012 112.5014997  37.7239988  79.0730012 112.7884997  38.5969988
  80.1120012 111.9554997  37.8759988  79.4077488 112.4670294  37.8641050
  89.1370012  95.0324997  55.2329988  89.2140012  94.6064997  56.0869988
  90.0310012  95.0464997  54.8899988  89.2683428  94.9760879  55.3035310
  92.3130012 111.1054997  53.9249988  91.5310012 110.9194997  53.4059988
  92.2410012 112.0344997  54.1429988  92.1961777 111.2056492  53.8834048
 106.7190012 104.9914997  43.9559988 106.8080012 105.9354997  43.8239988
 106.0810012 104.7164997  43.2979988 106.6449081 105.0834830  43.8489614
 105.6520012 104.2464997  47.3749988 105.6140012 103.6004997  48.0799988
 105.3300012 103.7804997  46.6039988 105.6032333 104.0949408  47.3672978
  98.0210012 103.8614997  48.9679988  98.0620012 103.2354997  49.6909988
  98.7240012 104.4854997  49.1499988  98.1216363 103.8601196  49.0916044
 109.3580012 107.1854997  45.6759988 108.9180012 106.4654997  46.1269988
 109.3450012 107.9064997  46.3059988 109.2960226 107.1843731  45.8228494
  98.9440012 108.3114997  47.5029988  98.5750012 107.5094997  47.1329988
  99.8850012 108.1424997  47.5489988  99.0207289 108.1790153  47.4586316
  95.5540012 101.9714997  42.8959988  95.1070012 102.8174997  42.8769988
  94.9930012 101.3914997  42.3799988  95.4169900 102.0089916  42.8236801
  96.2650012 104.1334997  45.0219988  96.4780012 103.3634997  45.5489988
  97.0030012 104.2224997  44.4179988  96.3938496 104.0401394  45.0125300
 106.4700012 112.2904997  45.8889988 107.0900012 111.6134997  45.6149988
 106.2620012 112.0724997  46.7969988 106.5266904 112.1683870  45.9743365
 104.0420012 106.6794997  47.7809988 104.3460012 105.9934997  47.1859988
 104.7630012 106.7974997  48.3989988 104.1810671 106.6016304  47.7831816
 112.7050012  98.2804997  48.6419988 112.7540012  98.8904997  49.3779988
 113.1300012  98.7414997  47.9189988 112.7691824  98.4263741  48.6450205
 107.1830012 101.0734997  48.1089988 107.3250012 100.1274997  48.1289988
 107.0760012 101.2804997  47.1799988 107.1879864 100.9719534  47.9862339
 100.3370012  99.1744997  45.3809988 100.3810012 100.0344997  44.9629988
  99.8800012  98.6224997  44.7469988 100.2812185  99.2175799  45.2380299
 108.0600012  99.3054997  43.7819988 108.7060012  98.9764997  44.4069988
 108.5700012  99.8234997  43.1589988 108.2174264  99.3304611  43.7833862
  96.9580012 101.5714997  46.1429988  97.6110012 101.0214997  46.5749988
  96.9820012 101.2974997  45.2259988  97.0506683 101.4591466  46.0782123
 102.1140012 103.1214997  45.3579988 102.7300012 102.5954997  45.8679988
 101.5280012 102.4814997  44.9549988 102.1190810 102.9629208  45.3733173
 113.0960012  99.7584997  50.8779988 112.4080012 100.4164997  50.7819988
 113.1120012  99.5614997  51.8139988 113.0038525  99.8220462  50.9914808
  99.1480012  98.0924997  49.4549988  98.9290012  98.6224997  48.6889988
  98.4800012  98.3194997  50.1019988  99.0277600  98.1956906  49.4376379
 106.5170012 107.5924997  42.9989988 106.2210012 107.2704997  42.1479988
 106.1920012 108.4924997  43.0399988 106.4326371 107.6700215  42.8881801
 101.7170012 105.7684997  49.7419988 100.9770012 106.3664997  49.8459988
 102.4310012 106.3224997  49.4269988 101.7122237 105.9252831  49.7136465
 109.8240012  98.5964997  45.7619988 109.6080012  97.8304997  46.2949988
 110.4790012  99.0684997  46.2749988 109.8830632  98.5555889  45.9042861
  98.7410012  99.9844997  47.4069988  99.3550012 100.6174997  47.7809988
  99.2530012  99.5124997  46.7509988  98.8942296 100.0072370  47.3694252
 100.1240012 107.7324997  50.5299988 100.1190012 108.6124997  50.1519988
  99.2710012 107.6494997  50.9549988 100.0079464 107.8416117  50.5357907
  96.2450012 107.4034997  41.3119988  95.9730012 107.6324997  40.4229988
  96.2910012 108.2414997  41.7719988  96.2140094 107.5481213  41.2525697
 109.8700012 109.0254997  48.0239988 108.9290012 109.0834997  48.1859988
 110.1470012 109.9314997  47.8869988 109.7784679 109.1559443  48.0276815
 110.1710012  97.3114997  49.4419988 109.4350012  97.9224997  49.4039988
 110.8540012  97.7264997  48.9149988 110.1626541  97.4511374  49.3655832
 103.1740012  95.3984997  46.9079988 103.0570012  94.4494997  46.8529988
 102.3190012  95.7304997  47.1809988 103.0423733  95.3135409  46.9373897
 108.1220012 110.8064997  44.6499988 108.5480012 110.0994997  44.1649988
 108.4390012 111.6074997  44.2329988 108.2231019 110.8180994  44.5273130
 109.2820012 108.7074997  43.1579988 109.0240012 108.0174997  42.5469988
 109.3530012 108.2644997  44.0039988 109.2562856 108.5532124  43.1886885
 110.9680012 107.2734997  51.6359988 111.1080012 106.6824997  50.8959988
 111.1350012 108.1464997  51.2789988 111.0096778 107.3106426  51.4866965
 105.4410012 104.2354997  41.4079988 104.7290012 104.7704997  41.0559988
 106.1320012 104.2914997  40.7479988 105.4370132 104.3162543  41.2706289
 105.4940012 102.6934997  38.4469988 106.1950012 102.7154997  39.0979988
 105.7970012 102.0654997  37.7909988 105.6307830 102.6116566  38.4473711
 112.8100012 103.6134997  49.7019988 112.1570012 104.3084997  49.7909988
 113.2750012 103.8234997  48.8919988 112.7835390 103.7369425  49.6046883
 108.8460012 104.4454997  42.3599988 108.1140012 104.6734997  42.9329988
 109.2940012 103.7314997  42.8149988 108.8063095 104.3802571  42.4999119
 108.7440012 102.6194997  51.4269988 108.8240012 103.3824997  51.9989988
 108.1420012 102.8984997  50.7369988 108.6735756 102.7617134  51.4120589
 100.4920012 105.0754997  44.2419988 100.1610012 104.7054997  43.4239988
 101.0800012 104.4054997  44.5889988 100.5261873 104.9341156  44.1768102
 101.8580012 108.5034997  46.9239988 101.7640012 107.9254997  46.1669988
 102.5880012 108.1324997  47.4199988 101.9437981 108.3742390  46.8874165
 100.8580012 103.8444997  47.8759988 101.4240012 103.9654997  47.1129988
 101.1770012 104.4814997  48.5149988 100.9785786 103.9471884  47.8580040
 107.1670012 109.3474997  48.6099988 106.9270012 110.0094997  49.2579988
 106.9690012 108.5134997  49.0349988 107.1073808 109.3253134  48.7561524
 101.7380012 108.2434997  52.5929988 101.4270012 109.0254997  53.0479988
 101.0880012 108.0904997  51.9069988 101.6075558 108.3299105  52.5625871
 107.7170012 103.6074997  40.0449988 108.2970012 103.7574997  40.7919988
 108.1310012 104.0784997  39.3219988 107.8522830 103.6916841  40.0494134
  98.6580012 104.4414997  51.8219988  98.7290012 105.0924997  52.5199988
  97.7680012 104.5444997  51.4869988  98.5473117 104.5445936  51.8722700
 105.4440012 110.3444997  43.4799988 105.9180012 110.6394997  44.2579988
 104.8810012 111.0824997  43.2469988 105.4327653 110.4846932  43.5550136
  99.9780012 110.3154997  53.3559988  99.9850012 110.1794997  52.4089988
  99.0620012 110.1974997  53.6079988  99.8551714 110.2809430  53.2604666
 111.4160012  95.3574997  39.8579988 110.5160012  95.4964997  40.1529988
 111.6680012  96.1884997  39.4559988 111.3268702  95.4889074  39.8440205
  99.4820012 104.1454997  41.8319988  99.1900012 104.9134997  41.3409988
  98.8080012 103.4854997  41.6689988  99.3509081 104.1614406  41.7427340
 112.6050012 109.7234997  38.2339988 112.6790012 110.6624997  38.4049988
 113.5110012 109.4184997  38.1779988 112.7375100 109.8106722  38.2498119
  95.5750012 106.5084997  50.6469988  95.0740012 106.4804997  49.8319988
  95.5800012 105.6024997  50.9559988  95.5071526 106.3822278  50.5772872
  95.3250012 109.2884997  47.5309988  96.2710012 109.1444997  47.5119988
  95.2130012 110.0724997  48.0679988  95.4392727 109.3748046  47.6010072
 113.5230012 109.9544997  53.2129988 113.4740012 108.9994997  53.1759988
 112.6960012 110.2224997  53.6139988 113.4044940 109.8598998  53.2621375
 104.5020012 109.5284997  52.0889988 104.5890012 110.3544997  52.5639988
 103.6380012 109.1984997  52.3379988 104.3971964 109.5969878  52.1876549
 104.9160012 113.3004997  41.8949988 104.8410012 113.1794997  40.9489988
 104.9490012 114.2504997  42.0139988 104.9101848 113.4122500  41.7814834
  98.5690012 112.0894997  43.6759988  98.7220012 111.7414997  44.5549988
  97.7190012 111.7334997  43.4209988  98.4748962 111.9936650  43.7618340
 108.0180012 112.4544997  38.8969988 108.3930012 111.7104997  38.4269988
 108.0220012 112.1844997  39.8159988 108.0698915 112.3161486  38.9567824
 107.6870012 112.3804997  41.6469988 106.7510012 112.4804997  41.8249988
 107.9670012 111.6714997  42.2249988 107.5968255 112.2982711  41.7495391
 110.6750012 101.4474997  53.6929988 110.2680012 101.9284997  52.9719988
 110.7160012 100.5424997  53.3849988 110.6248437 101.3909374  53.5526683
  97.8240012 107.8314997  51.6899988  98.0400012 107.4704997  52.5489988
  96.9690012 107.4574997  51.4799988  97.7379292 107.7314111  51.7793386
 100.4430012  96.3014997  47.6849988  99.5810012  96.2144997  47.2779988
 100.4200012  97.1574997  48.1129988 100.3220330  96.4052765  47.6871863
 105.1060012  96.0234997  51.0599988 105.5260012  95.6084997  51.8129988
 104.1730012  95.8454997  51.1769988 105.0373644  95.9425900  51.1789539
 108.4320012  99.7794997  51.9129988 107.9180012  99.6534997  52.7109988
 108.2770012 100.6914997  51.6689988 108.3406852  99.8856132  51.9892158
 109.1950012 104.6404997  37.6749988 109.2370012 104.4174997  36.7449988
 110.0440012 105.0394997  37.8649988 109.3155396 104.6639155  37.5733627
 104.7670012  98.5164997  38.3449988 104.5140012  98.5354997  39.2679988
 104.5110012  97.6444997  38.0439988 104.6977790  98.4012437  38.4306263
 100.5340012 101.2674997  48.7799988  99.8920012 101.2264997  49.4889988
 100.5710012 102.1934997  48.5429988 100.4511324 101.3871559  48.8449824
 100.5310012 101.4884997  43.6919988  99.6380012 101.1474997  43.6339988
 100.9810012 101.1114997  42.9369988 100.4697305 101.3908484  43.5819177
 106.0660012 101.9044997  42.5089988 105.6570012 102.7194997  42.2179988
 106.7870012 101.7644997  41.8949988 106.1074537 101.9972018  42.3861342
 105.1680012 102.0794997  53.9969988 104.6060012 101.3754997  54.3179988
 105.9950012 101.9594997  54.4649988 105.2027095 101.9667883  54.1042330
 107.0710012 101.3504997  45.3229988 106.8760012 101.9554997  44.6079988
 107.2520012 100.5164997  44.8889988 107.0687614 101.3206300  45.1664405
  98.2840012 101.5874997  50.6469988  98.2460012 101.9874997  51.5159988
  97.7930012 100.7704997  50.7379988  98.2124684 101.5318069  50.7781059
 101.6500012  98.9614997  37.4459988 101.2190012  98.5164997  38.1759988
 100.9320012  99.3334997  36.9339988 101.4939438  98.9508940  37.4766799
  94.8920012  98.7034997  44.4979988  95.5230012  98.6744997  45.2169988
  95.3410012  98.2784997  43.7679988  95.0390774  98.6420492  44.4976553
  96.1660012  99.4494997  39.9219988  96.6400012 100.0404997  39.3369988
  95.4490012  99.9804997  40.2689988  96.1339341  99.6020867  39.8888836
 106.3350012 102.9884997  49.9949988 106.6580012 102.3574997  49.3519988
 105.8950012 102.4534997  50.6549988 106.3196895 102.8298441  49.9962850
 103.1120012  98.9154997  44.7789988 102.2010012  98.9724997  45.0669988
 103.6180012  98.8554997  45.5889988 103.0555413  98.9151985  44.9280622
  97.9410012 100.5444997  43.6049988  97.0510012 100.6444997  43.2649988
  98.2370012  99.7024997  43.2589988  97.8592823 100.4443546  43.5117213
 101.5940012 100.5444997  41.2619988 102.5250012 100.6734997  41.4399988
 101.3790012 101.2144997  40.6119988 101.6924247 100.6526565  41.1985747
 107.5170012  98.1504997  48.0429988 106.8410012  98.2814997  48.7069988
 107.0320012  97.9954997  47.2329988 107.3587145  98.1474905  48.0244517
 100.2680012 101.7394997  38.8289988  99.7250012 101.3594997  38.1369988
 101.1010012 101.9334997  38.3999988 100.3064399 101.7138124  38.6764526
 110.8050012 113.8224997  54.3199988 111.0050012 114.2464997  53.4849988
 111.4600012 114.1654997  54.9269988 110.9210051 113.9269648  54.2877836
  98.4030012 106.2964997  53.9279988  99.1350012 106.5504997  54.4889988
  97.6230012 106.5004997  54.4429988  98.3978232 106.3589177  54.0745760
 104.4320012 101.7034997  46.6659988 104.9970012 101.1564997  46.1189988
 104.2850012 101.1814997  47.4539988 104.4892918 101.5582024  46.6978454
  99.4340012  97.8394997  43.0839988  99.1170012  96.9374997  43.0489988
 100.2160012  97.8414997  42.5309988  99.4962284  97.7161628  43.0044783
 103.0590012 100.0914997  49.0799988 102.2230012 100.5454997  49.1899988
 103.5830012 100.3674997  49.8319988 103.0154414 100.1909376  49.1967136
 103.6030012 106.3044997  40.7639988 102.8580012 105.7974997  40.4419988
 103.4690012 106.3534997  41.7109988 103.4828776 106.2416940  40.8478647
 110.7530012 105.4374997  49.5509988 111.3950012 105.8944997  49.0069988
 109.9230012 105.5504997  49.0879988 110.7285963 105.5152704  49.4140177
 107.5010012  99.1184997  38.9639988 106.5620012  99.2304997  38.8119988
 107.7980012  99.9754997  39.2699988 107.4127666  99.2496443  38.9845768
 105.1220012 106.4884997  52.0009988 104.7770012 106.1074997  52.8079988
 104.9220012 107.4224997  52.0729988 105.0478061 106.5625228  52.1210961
 108.2190012 100.9854997  40.6239988 109.1110012 100.8484997  40.9429988
 108.2760012 101.7764997  40.0879988 108.3486285 101.0736660  40.5951690
  98.7280012 105.5994997  46.5339988  99.4730012 105.5974997  45.9329988
  98.8060012 104.7764997  47.0159988  98.8405518 105.4879315  46.5168929
 105.7290012 107.7634997  39.7899988 105.4330012 108.5894997  40.1709988
 105.0260012 107.1434997  39.9859988 105.5934914 107.7928199  39.8686443
  95.7360012 104.0604997  51.8489988  95.9590012 103.6424997  52.6809988
  95.1340012 103.4474997  51.4259988  95.6851759 103.9204668  51.9057022
 102.7520012 103.5774997  54.0619988 102.4560012 103.4114997  53.1669988
 103.6840012 103.3574997  54.0509988 102.8374166 103.5250640  53.9380536
 107.3730012 108.9504997  51.9519988 106.4720012 109.1334997  51.6839988
 107.4070012 109.2094997  52.8729988 107.2543041 109.0105512  52.0398197
 113.1040012 101.1954997  40.3189988 112.5500012 100.7994997  39.6469988
 113.2040012 102.1054997  40.0409988 113.0417059 101.2643586  40.1894401
 113.0670012 106.9954997  53.1559988 112.2160012 107.2334997  52.7889988
 113.6580012 106.9784997  52.4029988 113.0302487 107.0258258  53.0038893
 111.3990012 109.9814997  40.7839988 111.0260012 109.1554997  41.0929988
 111.6770012 109.7984997  39.8869988 111.3855630 109.8437303  40.7049626
 108.5600012 104.7894997  47.8049988 107.6310012 104.5574997  47.7779988
 109.0110012 104.0124997  47.4749988 108.4939216 104.6527238  47.7566917
 101.1030012 109.1174997  43.9379988 101.6300012 109.8904997  43.7379988
 100.2230012 109.3424997  43.6369988 101.0561773 109.2538005  43.8699010
  96.8580012 103.9794997  38.5249988  97.4740012 104.6064997  38.9049988
  95.9960012 104.2954997  38.7969988  96.8257698 104.1079430  38.6137183
 102.5300012 106.7804997  43.5149988 102.2890012 107.7054997  43.5559988
 101.7890012 106.3214997  43.9109988 102.3968409 106.8451421  43.5741377
 103.0450012 110.9294997  49.8299988 103.4070012 111.7844997  49.5959988
 103.5760012 110.6374997  50.5699988 103.1664473 111.0071060  49.8980855
 101.2130012 111.8024997  43.0599988 100.2630012 111.9074997  43.1109988
 101.5650012 112.6224997  43.4049988 101.1304203 111.9278314  43.1136650
 106.5890012 107.0284997  49.5299988 106.1630012 106.8014997  50.3569988
 107.1690012 106.2904997  49.3479988 106.6091868 106.8975299  49.6185830
 108.7920012 107.9574997  38.6039988 109.1450012 107.5774997  39.4089988
 107.8430012 107.8644997  38.6909988 108.7120441 107.8929596  38.7258559
 109.2470012 111.5804997  51.9999988 108.6460012 111.0254997  51.5039988
 109.5290012 112.2474997  51.3739988 109.2028519 111.5946841  51.8474952
 113.2950012 112.4374997  38.8049988 114.0390012 113.0234997  38.6649988
 112.6010012 113.0054997  39.1389988 113.3030292 112.5945582  38.8309961
  97.3700012  98.8134997  51.4069988  96.4770012  99.1524997  51.3389988
  97.2710012  97.9584997  51.8249988  97.2344164  98.7442588  51.4542235
 109.6580012 106.6304997  40.8309988 109.3800012 105.9024997  41.3869988
 110.5850012 106.7494997  41.0359988 109.7453124 106.5468802  40.9348845
  97.0210012 110.6184997  49.8419988  97.2380012 109.6864997  49.8109988
  97.2670012 110.8924997  50.7249988  97.0839549 110.5280636  49.9571763
 102.8830012 109.0694997  37.0509988 103.1220012 108.3214997  36.5039988
 102.6140012 108.6814997  37.8839988 102.8793675 108.9146638  37.0886865
 101.8200012 108.6394997  39.5079988 101.9660012 108.1194997  40.2979988
 101.8170012 109.5464997  39.8139988 101.8395989 108.6908853  39.6576088
  98.2730012 105.8924997  40.0179988  97.5870012 106.2444997  40.5849988
  98.7950012 106.6554997  39.7709988  98.2496852 106.0438578  40.0622118
 106.1040012  98.5544997  50.2969988 106.8030012  98.6284997  50.9469988
 105.7230012  97.6904997  50.4509988 106.1481767  98.4477624  50.4068322
 106.8890012  98.2064997  41.3939988 107.1090012  98.6784997  40.5909988
 107.4470012  98.6014997  42.0639988 106.9944968  98.3244285  41.3747331
 104.5570012 110.3374997  40.2569988 103.7410012 110.8344997  40.3089988
 105.0870012 110.8124997  39.6169988 104.5169161 110.4697722  40.1775956
 104.0890012  99.9344997  42.2289988 104.9010012 100.4394997  42.2749988
 103.8440012  99.7894997  43.1429988 104.1670520  99.9840375  42.3588517
 104.6240012 100.9204997  51.4139988 104.7430012 101.4944997  52.1709988
 105.2800012 100.2324997  51.5279988 104.7289757 100.9061079  51.5330825
 104.9720012  97.0154997  43.1669988 104.6260012  97.6334997  43.8119988
 105.6310012  97.5164997  42.6859988 105.0137826  97.1675802  43.1900971
 101.8960012 111.3814997  40.2389988 102.0560012 112.1804997  39.7379988
 101.6980012 111.6874997  41.1239988 101.8911649 111.5324469  40.2899815
 100.6300012  98.0784997  39.8539988 100.5470012  98.9674997  40.2009988
 101.5200012  97.8134997  40.0859988 100.7389469  98.1641430  39.9327626
 110.8290012  98.8274997  52.2489988 109.9120012  99.0904997  52.1609988
 111.1640012  98.8244997  51.3519988 110.7489900  98.8630224  52.1157919
 109.4310012 102.5784997  46.3439988 108.6330012 102.1634997  46.0159988
 109.8760012 101.8874997  46.8349988 109.3819885 102.4283543  46.3654889
  98.8890012 108.5064997  38.9149988  99.4810012 109.2054997  39.1909988
  99.3480012 108.0734997  38.1949988  99.0321142 108.5437049  38.8554830
  97.2050012 101.1704997  38.0309988  97.1600012 102.1094997  38.2089988
  96.3170012 100.9344997  37.7609988  97.0788574 101.2671892  38.0188912
 110.5170012 111.8344997  47.9669988 110.3620012 112.5124997  47.3099988
 111.4500012 111.9064997  48.1699988 110.6218500 111.9370170  47.9045119
  98.0130012  95.9524997  46.7039988  97.7840012  96.0114997  45.7759988
  97.5700012  95.1604997  47.0099988  97.9218530  95.8535753  46.6184786
  96.9430012 109.8924997  42.8639988  96.1110012 110.3654997  42.8919988
  97.4890012 110.4024997  42.2659988  96.9029739 110.0261871  42.7869716
  96.2310012 112.5054997  54.1939988  96.7720012 112.2884997  54.9539988
  95.7500012 111.6994997  54.0049988  96.2399345 112.3669514  54.2723076
 100.8290012 111.4244997  55.8149988 101.5960012 110.9654997  56.1559988
 100.8070012 111.1984997  54.8849988 100.9311434 111.3310409  55.7360043
 104.9210012 110.9324997  37.1899988 104.2770012 110.3014997  37.5109988
 105.6830012 110.4014997  36.9579988 104.9358077 110.7742920  37.2026011
 107.4060012 109.8044997  54.5439988 107.0550012 108.9484997  54.7869988
 108.1320012 109.9474997  55.1509988 107.4560769 109.7065636  54.6593619
 109.5250012 110.7494997  37.4239988 109.8080012 109.9554997  37.8759988
 110.2650012 110.9824997  36.8629988 109.6637486 110.6722803  37.4100698
  96.1380012 106.3154997  55.1489988  96.2820012 105.4134997  54.8619988
  95.3660012 106.6014997  54.6609988  96.0533323 106.2308261  55.0437881
 100.4800012 106.6594997  37.2809988 100.5440012 105.8654997  37.8119988
 101.1330012 106.5404997  36.5909988 100.5770241 106.5347148  37.2604317
 102.7940012 106.2854997  54.5809988 102.4650012 106.5564997  53.7239988
 102.9460012 105.3444997  54.4939988 102.7694809 106.1953862  54.4518244
 105.8320012 107.7064997  37.0169988 105.5630012 107.8864997  37.9179988
 105.6260012 106.7804997  36.8859988 105.7673825 107.6060152  37.1225214
 108.5280012 106.2014997  51.9649988 109.2740012 106.7894997  51.8449988
 107.7710012 106.7834997  52.0279988 108.5277554 106.3607011  51.9570907
  96.9710012 103.5154997  54.5689988  97.3790012 102.6584997  54.4479988
  96.7110012 103.5304997  55.4899988  96.9917568 103.4000807  54.6769588
 101.6290012 104.6314997  39.5869988 101.1690012 104.1474997  40.2729988
 101.8840012 103.9634997  38.9509988 101.6004902 104.4748731  39.5949334
 100.9180012 102.5244997  51.9429988 100.3000012 103.1994997  52.2229988
 101.2620012 102.8454997  51.1099988 100.8799615 102.6602721  51.8686581
 102.7000012 102.8744997  37.8489988 102.5200012 102.7204997  36.9219988
 103.6500012 102.9824997  37.8939988 102.8037776 102.8680175  37.7281843
 105.9380012 104.9964997  55.2199988 106.8910012 105.0794997  55.1929988
 105.7770012 104.2844997  55.8399988 106.0466426 104.9116746  55.3000579
 112.0900012 105.2294997  37.2949988 111.8160012 104.8044997  36.4819988
 112.1290012 106.1604997  37.0779988 112.0577699 105.2972484  37.1543610
 101.2570012  99.8794997  53.0249988 101.4070012  99.1504997  52.4229988
 101.2600012 100.6564997  52.4659988 101.2779302  99.8847851  52.8670692
 101.6700012  98.2494997  50.5179988 102.2060012  98.7004997  49.8659988
 100.8180012  98.1414997  50.0949988 101.6282178  98.2966390  50.3715756
 103.2520012 103.6884997  50.7569988 104.0020012 103.5324997  50.1839988
 102.9130012 104.5404997  50.4819988 103.3088921 103.7822968  50.6413561
 107.6670012 101.5034997  55.7859988 107.8600012 100.5724997  55.6739988
 108.5250012 101.9284997  55.7759988 107.8093020 101.4336389  55.7693361
 108.9840012 104.2924997  53.8629988 108.7030012 105.0014997  53.2859988
 109.9270012 104.2194997  53.7119988 109.0729027 104.3797646  53.7635551
  99.7360012 101.0774997  54.9369988  98.9690012 100.5454997  54.7269988
 100.4150012 100.7674997  54.3369988  99.7227022 100.9627506  54.8271648
 102.4760012  95.7054997  50.9489988 102.3770012  96.6524997  50.8439988
 101.7330012  95.3334997  50.4739988 102.3620563  95.7845902  50.8704560
 103.7400012 100.0274997  54.5129988 103.5040012  99.8074997  55.4149988
 102.9560012  99.8204997  54.0029988 103.6018628  99.9694760  54.5673932
 106.4550012  99.1544997  53.5889988 105.5080012  99.1864997  53.7209988
 106.7680012  98.5294997  54.2419988 106.3675475  99.0743207  53.6954455
 108.0890012  97.7884997  55.5939988 107.9930012  96.8364997  55.5879988
 107.7680012  98.0574997  56.4539988 108.0324070  97.6944035  55.7095441
  97.9160012  98.9984997  54.6409988  98.1280012  98.2914997  54.0309988
  97.8050012  98.5604997  55.4849988  97.9299721  98.8427084  54.6716843
 102.6970012  94.9994997  53.6209988 103.4090012  94.3594997  53.6069988
 102.5960012  95.2664997  52.7069988 102.7807939  94.9479938  53.4955650
 103.0510012  96.6824997  55.6739988 102.9190012  96.2064997  54.8539988
 102.4520012  97.4264997  55.6189988 102.9519071  96.7179618  55.5542886
 102.5970012 113.5654997  38.8509988 103.5300012 113.7234997  38.9939988
 102.3330012 114.2404997  38.2259988 102.6889510 113.6783611  38.7860741
  96.1660012 108.2014997  38.3329988  97.0800012 108.2804997  38.6069988
  96.1730012 107.5144997  37.6669988  96.2921131 108.1193961  38.2804393
  94.8150012 113.5944997  43.4109988  94.1680012 113.1324997  42.8779988
  95.1690012 112.9224997  43.9929988  94.7743849 113.4404723  43.4167959
  95.6850012 111.6754997  45.2149988  95.3500012 110.7954997  45.3869988
  95.9070012 112.0204997  46.0799988  95.6691783 111.6017500  45.3554208
 113.2330012 112.4844997  48.1959988 113.2120012 112.6694997  49.1349988
 113.9240012 113.0534997  47.8549988 113.3234618 112.5866606  48.2783864
 112.7970012 112.0524997  51.1179988 112.3090012 111.3164997  50.7469988
 113.3460012 111.6584997  51.7959988 112.8044872 111.8986249  51.1589160
 111.2470012 107.8414997  55.7559988 110.3810012 107.7364997  56.1499988
 111.6240012 108.6004997  56.2019988 111.1793308 107.9296900  55.8702393
 112.5480012 106.0984997  41.2699988 113.3980012 106.5194997  41.3969988
 112.5540012 105.3584997  41.8769988 112.6651372 106.0560803  41.3694344
 112.9430012 104.1514997  43.0939988 112.2160012 103.6724997  43.4909988
 113.5240012 104.3574997  43.8259988 112.9219375 104.1137090  43.2474129
 112.7020012 106.9364997  48.0409988 113.5350012 106.5584997  47.7609988
 112.8140012 107.8794997  47.9219988 112.8312647 107.0122218  47.9865487
 111.1880012 109.8144997  50.3479988 110.5410012 110.1394997  50.9739988
 110.6710012 109.3744997  49.6739988 111.0294029 109.7995004  50.3425827
 113.2110012 104.0524997  39.4849988 112.6890012 104.4094997  38.7659988
 113.1780012 104.7274997  40.1629988 113.1351634 104.1925413  39.4783145
 111.5600012 101.2924997  38.0359988 111.6560012 101.9594997  37.3549988
 111.4200012 100.4764997  37.5539988 111.5542135 101.2734500  37.8778491
 110.7290012 102.6724997  43.6569988 110.5790012 101.7274997  43.6359988
 110.3760012 102.9534997  44.4999988 110.6606625 102.5810441  43.7682346
  95.7650012 104.7504997  47.6669988  95.9490012 104.6684997  46.7309988
  96.6140012 104.6264997  48.0909988  95.9050139 104.7225003  47.5961455
 111.5860012 104.6424997  53.2949988 112.1690012 103.9084997  53.4869988
 112.1500012 105.4144997  53.3419988 111.7419769 104.6464227  53.3276159
 113.0820012 102.5454997  53.9799988 112.2190012 102.1664997  53.8139988
 113.6870012 101.8064997  53.9059988 113.0455979 102.3938023  53.9472817
 110.8070012  98.7004997  37.1529988 111.4180012  98.3294997  37.7899988
 109.9710012  98.2794997  37.3489988 110.7775032  98.5927554  37.2667035
 110.4400012 100.2554997  42.1189988 110.7200012  99.3484997  42.2429988
 111.1990012 100.6894997  41.7299988 110.5809277 100.1900942  42.0833682
 111.0520012 100.8364997  47.5549988 111.9850012 101.0484997  47.5209988
 110.8170012 100.9384997  48.4769988 111.1478036 100.8792769  47.6749976
 111.0810012 101.5734997  50.3309988 110.2380012 101.8414997  50.6969988
 111.5230012 102.3954997  50.1199988 111.0254158 101.7213291  50.3525491
  95.3620012 100.0214997  53.8079988  96.2820012  99.8994997  54.0439988
  94.9130012  99.2714997  54.1969988  95.4271580  99.9033727  53.8929006
 113.3640012  95.5534997  55.6839988 113.7140012  94.8994997  55.0789988
 113.5110012  96.3904997  55.2449988 113.4318419  95.5771591  55.5417118
 111.0530012  97.5184997  42.1669988 111.2360012  97.0694997  42.9929988
 110.4540012  96.9334997  41.7039988 110.9970202  97.3779975  42.2173275
  96.5830012  98.3334997  46.6989988  97.0290012  97.5414997  47.0009988
  97.0500012  99.0494997  47.1299988  96.7070172  98.3220624  46.7984820
  94.8870012 101.3324997  47.7679988  95.3790012 101.1114997  46.9769988
  95.2500012 102.1734997  48.0489988  95.0033126 101.4158357  47.6977531
 112.8840012  97.6624997  54.0339988 111.9660012  97.9334997  53.9979988
 113.0070012  97.1274997  53.2489988 112.7751066  97.6272892  53.9230487
 112.9200012  97.5854997  38.6949988 113.3320012  96.8644997  38.2199988
 113.6020012  98.2554997  38.7539988 113.0685885  97.5772368  38.6378915
  95.2010012  97.5904997  41.8219988  94.2760012  97.7994997  41.6929988
  95.6550012  98.0744997  41.1329988  95.1357368  97.6845993  41.7111226
 109.9720012 112.5744997  43.7679988 110.6240012 112.2274997  43.1599988
 110.4820012 113.0634997  44.4139988 110.1302637 112.5930597  43.7720236
  95.1650012  96.3284997  50.1669988  94.5000012  96.0824997  50.8099988
  94.7220012  96.9504997  49.5889988  95.0140956  96.3788632  50.1769352
  97.3570012 109.5034997  54.3109988  96.5360012 109.6784997  53.8509988
  97.1040012 109.4304997  55.2319988  97.2106164 109.5175622  54.3724923
 100.3110012 110.4784997  50.5699988  99.8860012 111.2874997  50.2869988
 101.2150012 110.5634997  50.2679988 100.3750271 110.6008469  50.4903776
 104.6220012 111.8774997  53.5289988 104.8070012 111.5434997  54.4069988
 105.4680012 112.1864997  53.2069988 104.7617539 111.8736047  53.6055605
 106.9670012 113.1634997  52.7729988 107.6440012 112.5304997  52.5329988
 107.2890012 113.5644997  53.5799988 107.1031637 113.1311154  52.8492793
 111.8840012  95.7524997  51.8529988 111.0720012  96.0774997  51.4649988
 112.1170012  94.9924997  51.3199988 111.8043423  95.6942436  51.7278253
  97.7130012 113.7344997  50.6169988  96.9920012 114.1744997  50.1659988
  97.3470012 113.4834997  51.4659988  97.5649804 113.7607698  50.6699840
 100.1800012 113.3344997  49.6469988  99.3150012 113.4064997  50.0509988
 100.1250012 113.8814997  48.8629988 100.0542085 113.4182685  49.5963362
 104.8900012 113.2224997  48.8219988 104.4340012 113.7514997  48.1679988
 105.0530012 113.8254997  49.5479988 104.8495585 113.3764468  48.8305062
 107.2180012 112.1004997  49.7669988 106.3130012 112.2654997  49.5019988
 107.6470012 112.9534997  49.7019988 107.1520799 112.2384483  49.7219182
 109.8220012 113.6704997  50.0619988 109.6400012 114.5864997  49.8519988
 109.9990012 113.2604997  49.2159988 109.8210210 113.7404822  49.9187885
  97.1270012 112.3574997  47.5269988  97.1090012 111.9324997  48.3849988
  97.9320012 112.0394997  47.1189988  97.2333875 112.2563812  47.5891655
  99.2690012 111.0674997  46.1819988  99.0500012 110.1514997  46.3519988
 100.0930012 111.2074997  46.6479988  99.3504420 110.9610520  46.2682774
 101.8060012 111.5374997  47.0309988 102.0190012 110.6494997  46.7439988
 101.8700012 111.5034997  47.9849988 101.8438231 111.4113102  47.1207397
 105.3140012  97.2014997  46.1749988 104.6400012  96.5724997  46.4309988
 105.8780012  96.7174997  45.5719988 105.2979230  97.0498744  46.1285340
 110.4570012  95.3094997  46.2879988 111.0610012  95.8564997  45.7859988
 109.5870012  95.6284997  46.0479988 110.4221241  95.4275806  46.1867654
 112.1840012  96.4474997  44.6209988 112.7960012  95.9334997  44.0949988
 112.5660012  97.3254997  44.6449988 112.3194540  96.4957140  44.5521830
  97.6410012  95.8354997  43.9969988  96.8640012  95.6014997  43.4899988
  98.1710012  95.0384997  44.0059988  97.6062330  95.6956988  43.9287742
  96.4770012  95.6334997  39.8009988  96.9160012  96.2444997  39.2089988
  95.8440012  96.1714997  40.2749988  96.4514514  95.7899257  39.7840930
 102.2200012  95.7624997  43.8109988 103.0950012  96.1504997  43.7809988
 102.0840012  95.5474997  44.7329988 102.3213695  95.7865184  43.9316440
 107.7770012  95.7924997  45.4599988 107.8530012  95.8874997  44.5099988
 107.5020012  94.8844997  45.5889988 107.7502321  95.6827867  45.3475079
 109.1300012  95.8184997  41.1519988 108.4280012  96.4334997  40.9429988
 108.6860012  94.9804997  41.2829988 108.9736330  95.7895783  41.1410328
  96.3780012 111.5814997  40.6989988  95.6930012 111.5434997  40.0309988
  96.3820012 112.4944997  40.9869988  96.2848193 111.6997016  40.6465284
  98.3380012  97.5494997  38.2429988  98.8300012  96.9194997  37.7159988
  98.9620012  97.8454997  38.9069988  98.4895446  97.5033199  38.2605980
 103.3640012  97.8424997  40.6999988 103.5420012  97.1964997  41.3829988
 103.3110012  98.6764997  41.1679988 103.3811829  97.8667985  40.8565940
 105.2430012 112.7914997  39.0959988 106.1090012 113.1574997  38.9179988
 104.9960012 112.3514997  38.2819988 105.3282392 112.7821756  38.9616289
 111.9520012 112.3544997  41.7749988 111.7570012 111.6064997  41.2099988
 111.9130012 113.1124997  41.1919988 111.9200380 112.3546099  41.6188384
  97.5990012  96.3494997  53.5149988  97.2330012  95.5844997  53.9579988
  98.5120012  96.3784997  53.8019988  97.6722790  96.2487224  53.6144070
  99.5720012  95.7004997  55.0509988 100.4700012  95.4264997  54.8659988
  99.1850012  94.9574997  55.5149988  99.6426612  95.5625914  55.0883643
  98.1960012 112.5014997  37.7239988  97.9290012 112.7884997  38.5969988
  98.9680012 111.9554997  37.8759988  98.2637488 112.4670294  37.8641050
 107.9930012  95.0324997  55.2329988 108.0700012  94.6064997  56.0869988
 108.8870012  95.0464997  54.8899988 108.1243428  94.9760880  55.3035310
 111.1690012 111.1054997  53.9249988 110.3870012 110.9194997  53.4059988
 111.0970012 112.0344997  54.1429988 111.0521777 111.2056492  53.8834048
 125.5750012 104.9914997  43.9559988 125.6640012 105.9354997  43.8239988
 124.9370012 104.7164997  43.2979988 125.5009081 105.0834830  43.8489614
 124.5080012 104.2464997  47.3749988 124.4700012 103.6004997  48.0799988
 124.1860012 103.7804997  46.6039988 124.4592333 104.0949408  47.3672978
 116.8770012 103.8614997  48.9679988 116.9180012 103.2354997  49.6909988
 117.5800012 104.4854997  49.1499988 116.9776363 103.8601196  49.0916044
 128.2140012 107.1854997  45.6759988 127.7740012 106.4654997  46.1269988
 128.2010012 107.9064997  46.3059988 128.1520226 107.1843731  45.8228494
 117.8000012 108.3114997  47.5029988 117.4310012 107.5094997  47.1329988
 118.7410012 108.1424997  47.5489988 117.8767289 108.1790153  47.4586316
 114.4100012 101.9714997  42.8959988 113.9630012 102.8174997  42.8769988
 113.8490012 101.3914997  42.3799988 114.2729900 102.0089916  42.8236801
 115.1210012 104.1334997  45.0219988 115.3340012 103.3634997  45.5489988
 115.8590012 104.2224997  44.4179988 115.2498496 104.0401394  45.0125300
 125.3260012 112.2904997  45.8889988 125.9460012 111.6134997  45.6149988
 125.1180012 112.0724997  46.7969988 125.3826904 112.1683870  45.9743365
 122.8980012 106.6794997  47.7809988 123.2020012 105.9934997  47.1859988
 123.6190012 106.7974997  48.3989988 123.0370671 106.6016305  47.7831816
 131.5610012  98.2804997  48.6419988 131.6100012  98.8904997  49.3779988
 131.9860012  98.7414997  47.9189988 131.6251824  98.4263741  48.6450205
 126.0390012 101.0734997  48.1089988 126.1810012 100.1274997  48.1289988
 125.9320012 101.2804997  47.1799988 126.0439864 100.9719534  47.9862339
 119.1930012  99.1744997  45.3809988 119.2370012 100.0344997  44.9629988
 118.7360012  98.6224997  44.7469988 119.1372185  99.2175799  45.2380299
 126.9160012  99.3054997  43.7819988 127.5620012  98.9764997  44.4069988
 127.4260012  99.8234997  43.1589988 127.0734264  99.3304611  43.7833862
 115.8140012 101.5714997  46.1429988 116.4670012 101.0214997  46.5749988
 115.8380012 101.2974997  45.2259988 115.9066683 101.4591466  46.0782123
 120.9700012 103.1214997  45.3579988 121.5860012 102.5954997  45.8679988
 120.3840012 102.4814997  44.9549988 120.9750810 102.9629208  45.3733173
 131.9520012  99.7584997  50.8779988 131.2640012 100.4164997  50.7819988
 131.9680012  99.5614997  51.8139988 131.8598525  99.8220462  50.9914808
 118.0040012  98.0924997  49.4549988 117.7850012  98.6224997  48.6889988
 117.3360012  98.3194997  50.1019988 117.8837600  98.1956906  49.4376379
 125.3730012 107.5924997  42.9989988 125.0770012 107.2704997  42.1479988
 125.0480012 108.4924997  43.0399988 125.2886371 107.6700215  42.8881801
 120.5730012 105.7684997  49.7419988 119.8330012 106.3664997  49.8459988
 121.2870012 106.3224997  49.4269988 120.5682237 105.9252831  49.7136465
 128.6800012  98.5964997  45.7619988 128.4640012  97.8304997  46.2949988
 129.3350012  99.0684997  46.2749988 128.7390632  98.5555889  45.9042861
 117.5970012  99.9844997  47.4069988 118.2110012 100.6174997  47.7809988
 118.1090012  99.5124997  46.7509988 117.7502296 100.0072370  47.3694252
 118.9800012 107.7324997  50.5299988 118.9750012 108.6124997  50.1519988
 118.1270012 107.6494997  50.9549988 118.8639464 107.8416117  50.5357907
 115.1010012 107.4034997  41.3119988 114.8290012 107.6324997  40.4229988
 115.1470012 108.2414997  41.7719988 115.0700094 107.5481213  41.2525697
 128.7260012 109.0254997  48.0239988 127.7850012 109.0834997  48.1859988
 129.0030012 109.9314997  47.8869988 128.6344679 109.1559443  48.0276815
 129.0270012  97.3114997  49.4419988 128.2910012  97.9224997  49.4039988
 129.7100012  97.7264997  48.9149988 129.0186541  97.4511374  49.3655832
 122.0300012  95.3984997  46.9079988 121.9130012  94.4494997  46.8529988
 121.1750012  95.7304997  47.1809988 121.8983733  95.3135409  46.9373897
 126.9780012 110.8064997  44.6499988 127.4040012 110.0994997  44.1649988
 127.2950012 111.6074997  44.2329988 127.0791019 110.8180994  44.5273130
 128.1380012 108.7074997  43.1579988 127.8800012 108.0174997  42.5469988
 128.2090012 108.2644997  44.0039988 128.1122856 108.5532124  43.1886885
 129.8240012 107.2734997  51.6359988 129.9640012 106.6824997  50.8959988
 129.9910012 108.1464997  51.2789988 129.8656778 107.3106426  51.4866965
 124.2970012 104.2354997  41.4079988 123.5850012 104.7704997  41.0559988
 124.9880012 104.2914997  40.7479988 124.2930132 104.3162543  41.2706289
 124.3500012 102.6934997  38.4469988 125.0510012 102.7154997  39.0979988
 124.6530012 102.0654997  37.7909988 124.4867830 102.6116566  38.4473711
 131.6660012 103.6134997  49.7019988 131.0130012 104.3084997  49.7909988
 132.1310012 103.8234997  48.8919988 131.6395390 103.7369425  49.6046883
 127.7020012 104.4454997  42.3599988 126.9700012 104.6734997  42.9329988
 128.1500012 103.7314997  42.8149988 127.6623095 104.3802571  42.4999119
 127.6000012 102.6194997  51.4269988 127.6800012 103.3824997  51.9989988
 126.9980012 102.8984997  50.7369988 127.5295756 102.7617134  51.4120589
 119.3480012 105.0754997  44.2419988 119.0170012 104.7054997  43.4239988
 119.9360012 104.4054997  44.5889988 119.3821873 104.9341156  44.1768102
 120.7140012 108.5034997  46.9239988 120.6200012 107.9254997  46.1669988
 121.4440012 108.1324997  47.4199988 120.7997981 108.3742390  46.8874165
 119.7140012 103.8444997  47.8759988 120.2800012 103.9654997  47.1129988
 120.0330012 104.4814997  48.5149988 119.8345786 103.9471884  47.8580040
 126.0230012 109.3474997  48.6099988 125.7830012 110.0094997  49.2579988
 125.8250012 108.5134997  49.0349988 125.9633808 109.3253134  48.7561524
 120.5940012 108.2434997  52.5929988 120.2830012 109.0254997  53.0479988
 119.9440012 108.0904997  51.9069988 120.4635558 108.3299105  52.5625871
 126.5730012 103.6074997  40.0449988 127.1530012 103.7574997  40.7919988
 126.9870012 104.0784997  39.3219988 126.7082830 103.6916841  40.0494134
 117.5140012 104.4414997  51.8219988 117.5850012 105.0924997  52.5199988
 116.6240012 104.5444997  51.4869988 117.4033117 104.5445936  51.8722700
 124.3000012 110.3444997  43.4799988 124.7740012 110.6394997  44.2579988
 123.7370012 111.0824997  43.2469988 124.2887653 110.4846932  43.5550136
 118.8340012 110.3154997  53.3559988 118.8410012 110.1794997  52.4089988
 117.9180012 110.1974997  53.6079988 118.7111714 110.2809430  53.2604666
 130.2720012  95.3574997  39.8579988 129.3720012  95.4964997  40.1529988
 130.5240012  96.1884997  39.4559988 130.1828702  95.4889074  39.8440205
 118.3380012 104.1454997  41.8319988 118.0460012 104.9134997  41.3409988
 117.6640012 103.4854997  41.6689988 118.2069081 104.1614406  41.7427340
 131.4610012 109.7234997  38.2339988 131.5350012 110.6624997  38.4049988
 132.3670012 109.4184997  38.1779988 131.5935100 109.8106722  38.2498119
 114.4310012 106.5084997  50.6469988 113.9300012 106.4804997  49.8319988
 114.4360012 105.6024997  50.9559988 114.3631526 106.3822278  50.5772872
 114.1810012 109.2884997  47.5309988 115.1270012 109.1444997  47.5119988
 114.0690012 110.0724997  48.0679988 114.2952727 109.3748046  47.6010072
 132.3790012 109.9544997  53.2129988 132.3300012 108.9994997  53.1759988
 131.5520012 110.2224997  53.6139988 132.2604940 109.8598998  53.2621375
 123.3580012 109.5284997  52.0889988 123.4450012 110.3544997  52.5639988
 122.4940012 109.1984997  52.3379988 123.2531964 109.5969878  52.1876549
 123.7720012 113.3004997  41.8949988 123.6970012 113.1794997  40.9489988
 123.8050012 114.2504997  42.0139988 123.7661848 113.4122500  41.7814834
 117.4250012 112.0894997  43.6759988 117.5780012 111.7414997  44.5549988
 116.5750012 111.7334997  43.4209988 117.3308962 111.9936650  43.7618340
 126.8740012 112.4544997  38.8969988 127.2490012 111.7104997  38.4269988
 126.8780012 112.1844997  39.8159988 126.9258915 112.3161486  38.9567824
 126.5430012 112.3804997  41.6469988 125.6070012 112.4804997  41.8249988
 126.8230012 111.6714997  42.2249988 126.4528255 112.2982711  41.7495391
 129.5310012 101.4474997  53.6929988 129.1240012 101.9284997  52.9719988
 129.5720012 100.5424997  53.3849988 129.4808437 101.3909374  53.5526683
 116.6800012 107.8314997  51.6899988 116.8960012 107.4704997  52.5489988
 115.8250012 107.4574997  51.4799988 116.5939292 107.7314111  51.7793386
 119.2990012  96.3014997  47.6849988 118.4370012  96.2144997  47.2779988
 119.2760012  97.1574997  48.1129988 119.1780330  96.4052765  47.6871863
 123.9620012  96.0234997  51.0599988 124.3820012  95.6084997  51.8129988
 123.0290012  95.8454997  51.1769988 123.8933644  95.9425900  51.1789539
 127.2880012  99.7794997  51.9129988 126.7740012  99.6534997  52.7109988
 127.1330012 100.6914997  51.6689988 127.1966852  99.8856132  51.9892158
 128.0510012 104.6404997  37.6749988 128.0930012 104.4174997  36.7449988
 128.9000012 105.0394997  37.8649988 128.1715396 104.6639155  37.5733627
 123.6230012  98.5164997  38.3449988 123.3700012  98.5354997  39.2679988
 123.3670012  97.6444997  38.0439988 123.5537790  98.4012437  38.4306263
 119.3900012 101.2674997  48.7799988 118.7480012 101.2264997  49.4889988
 119.4270012 102.1934997  48.5429988 119.3071324 101.3871559  48.8449824
 119.3870012 101.4884997  43.6919988 118.4940012 101.1474997  43.6339988
 119.8370012 101.1114997  42.9369988 119.3257305 101.3908484  43.5819177
 124.9220012 101.9044997  42.5089988 124.5130012 102.7194997  42.2179988
 125.6430012 101.7644997  41.8949988 124.9634537 101.9972018  42.3861342
 124.0240012 102.0794997  53.9969988 123.4620012 101.3754997  54.3179988
 124.8510012 101.9594997  54.4649988 124.0587095 101.9667883  54.1042330
 125.9270012 101.3504997  45.3229988 125.7320012 101.9554997  44.6079988
 126.1080012 100.5164997  44.8889988 125.9247614 101.3206300  45.1664405
 117.1400012 101.5874997  50.6469988 117.1020012 101.9874997  51.5159988
 116.6490012 100.7704997  50.7379988 117.0684684 101.5318069  50.7781059
 120.5060012  98.9614997  37.4459988 120.0750012  98.5164997  38.1759988
 119.7880012  99.3334997  36.9339988 120.3499438  98.9508940  37.4766799
 113.7480012  98.7034997  44.4979988 114.3790012  98.6744997  45.2169988
 114.1970012  98.2784997  43.7679988 113.8950774  98.6420492  44.4976553
 115.0220012  99.4494997  39.9219988 115.4960012 100.0404997  39.3369988
 114.3050012  99.9804997  40.2689988 114.9899341  99.6020867  39.8888836
 125.1910012 102.9884997  49.9949988 125.5140012 102.3574997  49.3519988
 124.7510012 102.4534997  50.6549988 125.1756895 102.8298441  49.9962850
 121.9680012  98.9154997  44.7789988 121.0570012  98.9724997  45.0669988
 122.4740012  98.8554997  45.5889988 121.9115413  98.9151985  44.9280622
 116.7970012 100.5444997  43.6049988 115.9070012 100.6444997  43.2649988
 117.0930012  99.7024997  43.2589988 116.7152823 100.4443546  43.5117213
 120.4500012 100.5444997  41.2619988 121.3810012 100.6734997  41.4399988
 120.2350012 101.2144997  40.6119988 120.5484247 100.6526565  41.1985747
 126.3730012  98.1504997  48.0429988 125.6970012  98.2814997  48.7069988
 125.8880012  97.9954997  47.2329988 126.2147145  98.1474905  48.0244517
 119.1240012 101.7394997  38.8289988 118.5810012 101.3594997  38.1369988
 119.9570012 101.9334997  38.3999988 119.1624399 101.7138124  38.6764526
 129.6610012 113.8224997  54.3199988 129.8610012 114.2464997  53.4849988
 130.3160012 114.1654997  54.9269988 129.7770051 113.9269648  54.2877836
 117.2590012 106.2964997  53.9279988 117.9910012 106.5504997  54.4889988
 116.4790012 106.5004997  54.4429988 117.2538232 106.3589177  54.0745760
 123.2880012 101.7034997  46.6659988 123.8530012 101.1564997  46.1189988
 123.1410012 101.1814997  47.4539988 123.3452918 101.5582024  46.6978454
 118.2900012  97.8394997  43.0839988 117.9730012  96.9374997  43.0489988
 119.0720012  97.8414997  42.5309988 118.3522284  97.7161628  43.0044783
 121.9150012 100.0914997  49.0799988 121.0790012 100.5454997  49.1899988
 122.4390012 100.3674997  49.8319988 121.8714414 100.1909376  49.1967136
 122.4590012 106.3044997  40.7639988 121.7140012 105.7974997  40.4419988
 122.3250012 106.3534997  41.7109988 122.3388776 106.2416940  40.8478647
 129.6090012 105.4374997  49.5509988 130.2510012 105.8944997  49.0069988
 128.7790012 105.5504997  49.0879988 129.5845963 105.5152704  49.4140177
 126.3570012  99.1184997  38.9639988 125.4180012  99.2304997  38.8119988
 126.6540012  99.9754997  39.2699988 126.2687666  99.2496443  38.9845768
 123.9780012 106.4884997  52.0009988 123.6330012 106.1074997  52.8079988
 123.7780012 107.4224997  52.0729988 123.9038061 106.5625228  52.1210961
 127.0750012 100.9854997  40.6239988 127.9670012 100.8484997  40.9429988
 127.1320012 101.7764997  40.0879988 127.2046285 101.0736660  40.5951691
 117.5840012 105.5994997  46.5339988 118.3290012 105.5974997  45.9329988
 117.6620012 104.7764997  47.0159988 117.6965518 105.4879315  46.5168929
 124.5850012 107.7634997  39.7899988 124.2890012 108.5894997  40.1709988
 123.8820012 107.1434997  39.9859988 124.4494914 107.7928199  39.8686443
 114.5920012 104.0604997  51.8489988 114.8150012 103.6424997  52.6809988
 113.9900012 103.4474997  51.4259988 114.5411759 103.9204668  51.9057022
 121.6080012 103.5774997  54.0619988 121.3120012 103.4114997  53.1669988
 122.5400012 103.3574997  54.0509988 121.6934166 103.5250640  53.9380536
 126.2290012 108.9504997  51.9519988 125.3280012 109.1334997  51.6839988
 126.2630012 109.2094997  52.8729988 126.1103041 109.0105512  52.0398197
 131.9600012 101.1954997  40.3189988 131.4060012 100.7994997  39.6469988
 132.0600012 102.1054997  40.0409988 131.8977059 101.2643586  40.1894401
 131.9230012 106.9954997  53.1559988 131.0720012 107.2334997  52.7889988
 132.5140012 106.9784997  52.4029988 131.8862487 107.0258258  53.0038893
 130.2550012 109.9814997  40.7839988 129.8820012 109.1554997  41.0929988
 130.5330012 109.7984997  39.8869988 130.2415630 109.8437303  40.7049626
 127.4160012 104.7894997  47.8049988 126.4870012 104.5574997  47.7779988
 127.8670012 104.0124997  47.4749988 127.3499216 104.6527238  47.7566917
 119.9590012 109.1174997  43.9379988 120.4860012 109.8904997  43.7379988
 119.0790012 109.3424997  43.6369988 119.9121773 109.2538005  43.8699010
 115.7140012 103.9794997  38.5249988 116.3300012 104.6064997  38.9049988
 114.8520012 104.2954997  38.7969988 115.6817698 104.1079430  38.6137183
 121.3860012 106.7804997  43.5149988 121.1450012 107.7054997  43.5559988
 120.6450012 106.3214997  43.9109988 121.2528409 106.8451421  43.5741377
 121.9010012 110.9294997  49.8299988 122.2630012 111.7844997  49.5959988
 122.4320012 110.6374997  50.5699988 122.0224473 111.0071060  49.8980855
 120.0690012 111.8024997  43.0599988 119.1190012 111.9074997  43.1109988
 120.4210012 112.6224997  43.4049988 119.9864203 111.9278314  43.1136650
 125.4450012 107.0284997  49.5299988 125.0190012 106.8014997  50.3569988
 126.0250012 106.2904997  49.3479988 125.4651868 106.8975299  49.6185830
 127.6480012 107.9574997  38.6039988 128.0010012 107.5774997  39.4089988
 126.6990012 107.8644997  38.6909988 127.5680441 107.8929596  38.7258559
 128.1030012 111.5804997  51.9999988 127.5020012 111.0254997  51.5039988
 128.3850012 112.2474997  51.3739988 128.0588519 111.5946841  51.8474952
 132.1510012 112.4374997  38.8049988 132.8950012 113.0234997  38.6649988
 131.4570012 113.0054997  39.1389988 132.1590292 112.5945582  38.8309961
 116.2260012  98.8134997  51.4069988 115.3330012  99.1524997  51.3389988
 116.1270012  97.9584997  51.8249988 116.0904164  98.7442588  51.4542235
 128.5140012 106.6304997  40.8309988 128.2360012 105.9024997  41.3869988
 129.4410012 106.7494997  41.0359988 128.6013124 106.5468802  40.9348845
 115.8770012 110.6184997  49.8419988 116.0940012 109.6864997  49.8109988
 116.1230012 110.8924997  50.7249988 115.9399549 110.5280636  49.9571763
 121.7390012 109.0694997  37.0509988 121.9780012 108.3214997  36.5039988
 121.4700012 108.6814997  37.8839988 121.7353675 108.9146638  37.0886865
 120.6760012 108.6394997  39.5079988 120.8220012 108.1194997  40.2979988
 120.6730012 109.5464997  39.8139988 120.6955989 108.6908853  39.6576088
 117.1290012 105.8924997  40.0179988 116.4430012 106.2444997  40.5849988
 117.6510012 106.6554997  39.7709988 117.1056852 106.0438578  40.0622118
 124.9600012  98.5544997  50.2969988 125.6590012  98.6284997  50.9469988
 124.5790012  97.6904997  50.4509988 125.0041767  98.4477624  50.4068322
 125.7450012  98.2064997  41.3939988 125.9650012  98.6784997  40.5909988
 126.3030012  98.6014997  42.0639988 125.8504968  98.3244285  41.3747331
 123.4130012 110.3374997  40.2569988 122.5970012 110.8344997  40.3089988
 123.9430012 110.8124997  39.6169988 123.3729161 110.4697722  40.1775956
 122.9450012  99.9344997  42.2289988 123.7570012 100.4394997  42.2749988
 122.7000012  99.7894997  43.1429988 123.0230520  99.9840375  42.3588517
 123.4800012 100.9204997  51.4139988 123.5990012 101.4944997  52.1709988
 124.1360012 100.2324997  51.5279988 123.5849757 100.9061079  51.5330825
 123.8280012  97.0154997  43.1669988 123.4820012  97.6334997  43.8119988
 124.4870012  97.5164997  42.6859988 123.8697826  97.1675802  43.1900971
 120.7520012 111.3814997  40.2389988 120.9120012 112.1804997  39.7379988
 120.5540012 111.6874997  41.1239988 120.7471649 111.5324469  40.2899815
 119.4860012  98.0784997  39.8539988 119.4030012  98.9674997  40.2009988
 120.3760012  97.8134997  40.0859988 119.5949469  98.1641430  39.9327626
 129.6850012  98.8274997  52.2489988 128.7680012  99.0904997  52.1609988
 130.0200012  98.8244997  51.3519988 129.6049900  98.8630224  52.1157919
 128.2870012 102.5784997  46.3439988 127.4890012 102.1634997  46.0159988
 128.7320012 101.8874997  46.8349988 128.2379885 102.4283543  46.3654889
 117.7450012 108.5064997  38.9149988 118.3370012 109.2054997  39.1909988
 118.2040012 108.0734997  38.1949988 117.8881142 108.5437049  38.8554830
 116.0610012 101.1704997  38.0309988 116.0160012 102.1094997  38.2089988
 115.1730012 100.9344997  37.7609988 115.9348574 101.2671892  38.0188912
 129.3730012 111.8344997  47.9669988 129.2180012 112.5124997  47.3099988
 130.3060012 111.9064997  48.1699988 129.4778500 111.9370170  47.9045119
 116.8690012  95.9524997  46.7039988 116.6400012  96.0114997  45.7759988
 116.4260012  95.1604997  47.0099988 116.7778530  95.8535753  46.6184786
 115.7990012 109.8924997  42.8639988 114.9670012 110.3654997  42.8919988
 116.3450012 110.4024997  42.2659988 115.7589739 110.0261871  42.7869716
 115.0870012 112.5054997  54.1939988 115.6280012 112.2884997  54.9539988
 114.6060012 111.6994997  54.0049988 115.0959345 112.3669514  54.2723076
 119.6850012 111.4244997  55.8149988 120.4520012 110.9654997  56.1559988
 119.6630012 111.1984997  54.8849988 119.7871434 111.3310409  55.7360043
 123.7770012 110.9324997  37.1899988 123.1330012 110.3014997  37.5109988
 124.5390012 110.4014997  36.9579988 123.7918077 110.7742920  37.2026011
 126.2620012 109.8044997  54.5439988 125.9110012 108.9484997  54.7869988
 126.9880012 109.9474997  55.1509988 126.3120769 109.7065636  54.6593619
 128.3810012 110.7494997  37.4239988 128.6640012 109.9554997  37.8759988
 129.1210012 110.9824997  36.8629988 128.5197486 110.6722803  37.4100698
 114.9940012 106.3154997  55.1489988 115.1380012 105.4134997  54.8619988
 114.2220012 106.6014997  54.6609988 114.9093323 106.2308261  55.0437881
 119.3360012 106.6594997  37.2809988 119.4000012 105.8654997  37.8119988
 119.9890012 106.5404997  36.5909988 119.4330241 106.5347148  37.2604317
 121.6500012 106.2854997  54.5809988 121.3210012 106.5564997  53.7239988
 121.8020012 105.3444997  54.4939988 121.6254809 106.1953862  54.4518244
 124.6880012 107.7064997  37.0169988 124.4190012 107.8864997  37.9179988
 124.4820012 106.7804997  36.8859988 124.6233825 107.6060152  37.1225214
 127.3840012 106.2014997  51.9649988 128.1300012 106.7894997  51.8449988
 126.6270012 106.7834997  52.0279988 127.3837554 106.3607011  51.9570907
 115.8270012 103.5154997  54.5689988 116.2350012 102.6584997  54.4479988
 115.5670012 103.5304997  55.4899988 115.8477568 103.4000807  54.6769588
 120.4850012 104.6314997  39.5869988 120.0250012 104.1474997  40.2729988
 120.7400012 103.9634997  38.9509988 120.4564902 104.4748731  39.5949334
 119.7740012 102.5244997  51.9429988 119.1560012 103.1994997  52.2229988
 120.1180012 102.8454997  51.1099988 119.7359615 102.6602721  51.8686581
 121.5560012 102.8744997  37.8489988 121.3760012 102.7204997  36.9219988
 122.5060012 102.9824997  37.8939988 121.6597776 102.8680175  37.7281843
 124.7940012 104.9964997  55.2199988 125.7470012 105.0794997  55.1929988
 124.6330012 104.2844997  55.8399988 124.9026426 104.9116746  55.3000579
 130.9460012 105.2294997  37.2949988 130.6720012 104.8044997  36.4819988
 130.9850012 106.1604997  37.0779988 130.9137699 105.2972484  37.1543610
 120.1130012  99.8794997  53.0249988 120.2630012  99.1504997  52.4229988
 120.1160012 100.6564997  52.4659988 120.1339302  99.8847851  52.8670692
 120.5260012  98.2494997  50.5179988 121.0620012  98.7004997  49.8659988
 119.6740012  98.1414997  50.0949988 120.4842178  98.2966390  50.3715756
 122.1080012 103.6884997  50.7569988 122.8580012 103.5324997  50.1839988
 121.7690012 104.5404997  50.4819988 122.1648921 103.7822968  50.6413561
 126.5230012 101.5034997  55.7859988 126.7160012 100.5724997  55.6739988
 127.3810012 101.9284997  55.7759988 126.6653020 101.4336389  55.7693361
 127.8400012 104.2924997  53.8629988 127.5590012 105.0014997  53.2859988
 128.7830012 104.2194997  53.7119988 127.9289027 104.3797646  53.7635551
 118.5920012 101.0774997  54.9369988 117.8250012 100.5454997  54.7269988
 119.2710012 100.7674997  54.3369988 118.5787022 100.9627506  54.8271648
 121.3320012  95.7054997  50.9489988 121.2330012  96.6524997  50.8439988
 120.5890012  95.3334997  50.4739988 121.2180564  95.7845902  50.8704560
 122.5960012 100.0274997  54.5129988 122.3600012  99.8074997  55.4149988
 121.8120012  99.8204997  54.0029988 122.4578628  99.9694760  54.5673932
 125.3110012  99.1544997  53.5889988 124.3640012  99.1864997  53.7209988
 125.6240012  98.5294997  54.2419988 125.2235475  99.0743207  53.6954455
 126.9450012  97.7884997  55.5939988 126.8490012  96.8364997  55.5879988
 126.6240012  98.0574997  56.4539988 126.8884070  97.6944035  55.7095441
 116.7720012  98.9984997  54.6409988 116.9840012  98.2914997  54.0309988
 116.6610012  98.5604997  55.4849988 116.7859721  98.8427084  54.6716843
 121.5530012  94.9994997  53.6209988 122.2650012  94.3594997  53.6069988
 121.4520012  95.2664997  52.7069988 121.6367939  94.9479938  53.4955650
 121.9070012  96.6824997  55.6739988 121.7750012  96.2064997  54.8539988
 121.3080012  97.4264997  55.6189988 121.8079071  96.7179618  55.5542886
 121.4530012 113.5654997  38.8509988 122.3860012 113.7234997  38.9939988
 121.1890012 114.2404997  38.2259988 121.5449510 113.6783611  38.7860741
 115.0220012 108.2014997  38.3329988 115.9360012 108.2804997  38.6069988
 115.0290012 107.5144997  37.6669988 115.1481131 108.1193961  38.2804393
 113.6710012 113.5944997  43.4109988 113.0240012 113.1324997  42.8779988
 114.0250012 112.9224997  43.9929988 113.6303849 113.4404723  43.4167959
 114.5410012 111.6754997  45.2149988 114.2060012 110.7954997  45.3869988
 114.7630012 112.0204997  46.0799988 114.5251783 111.6017500  45.3554208
 132.0890012 112.4844997  48.1959988 132.0680012 112.6694997  49.1349988
 132.7800012 113.0534997  47.8549988 132.1794618 112.5866606  48.2783864
 131.6530012 112.0524997  51.1179988 131.1650012 111.3164997  50.7469988
 132.2020012 111.6584997  51.7959988 131.6604872 111.8986249  51.1589160
 130.1030012 107.8414997  55.7559988 129.2370012 107.7364997  56.1499988
 130.4800012 108.6004997  56.2019988 130.0353308 107.9296900  55.8702393
 131.4040012 106.0984997  41.2699988 132.2540012 106.5194997  41.3969988
 131.4100012 105.3584997  41.8769988 131.5211372 106.0560803  41.3694344
 131.7990012 104.1514997  43.0939988 131.0720012 103.6724997  43.4909988
 132.3800012 104.3574997  43.8259988 131.7779375 104.1137090  43.2474129
 131.5580012 106.9364997  48.0409988 132.3910012 106.5584997  47.7609988
 131.6700012 107.8794997  47.9219988 131.6872647 107.0122218  47.9865487
 130.0440012 109.8144997  50.3479988 129.3970012 110.1394997  50.9739988
 129.5270012 109.3744997  49.6739988 129.8854029 109.7995004  50.3425827
 132.0670012 104.0524997  39.4849988 131.5450012 104.4094997  38.7659988
 132.0340012 104.7274997  40.1629988 131.9911634 104.1925413  39.4783145
 130.4160012 101.2924997  38.0359988 130.5120012 101.9594997  37.3549988
 130.2760012 100.4764997  37.5539988 130.4102135 101.2734500  37.8778491
 129.5850012 102.6724997  43.6569988 129.4350012 101.7274997  43.6359988
 129.2320012 102.9534997  44.4999988 129.5166625 102.5810441  43.7682346
 114.6210012 104.7504997  47.6669988 114.8050012 104.6684997  46.7309988
 115.4700012 104.6264997  48.0909988 114.7610139 104.7225003  47.5961455
 130.4420012 104.6424997  53.2949988 131.0250012 103.9084997  53.4869988
 131.0060012 105.4144997  53.3419988 130.5979769 104.6464227  53.3276159
 131.9380012 102.5454997  53.9799988 131.0750012 102.1664997  53.8139988
 132.5430012 101.8064997  53.9059988 131.9015979 102.3938023  53.9472817
 129.6630012  98.7004997  37.1529988 130.2740012  98.3294997  37.7899988
 128.8270012  98.2794997  37.3489988 129.6335032  98.5927554  37.2667035
 129.2960012 100.2554997  42.1189988 129.5760012  99.3484997  42.2429988
 130.0550012 100.6894997  41.7299988 129.4369277 100.1900942  42.0833682
 129.9080012 100.8364997  47.5549988 130.8410012 101.0484997  47.5209988
 129.6730012 100.9384997  48.4769988 130.0038036 100.8792769  47.6749976
 129.9370012 101.5734997  50.3309988 129.0940012 101.8414997  50.6969988
 130.3790012 102.3954997  50.1199988 129.8814158 101.7213291  50.3525491
 114.2180012 100.0214997  53.8079988 115.1380012  99.8994997  54.0439988
 113.7690012  99.2714997  54.1969988 114.2831580  99.9033727  53.8929006
 132.2200012  95.5534997  55.6839988 132.5700012  94.8994997  55.0789988
 132.3670012  96.3904997  55.2449988 132.2878419  95.5771591  55.5417118
 129.9090012  97.5184997  42.1669988 130.0920012  97.0694997  42.9929988
 129.3100012  96.9334997  41.7039988 129.8530202  97.3779975  42.2173275
 115.4390012  98.3334997  46.6989988 115.8850012  97.5414997  47.0009988
 115.9060012  99.0494997  47.1299988 115.5630172  98.3220624  46.7984820
 113.7430012 101.3324997  47.7679988 114.2350012 101.1114997  46.9769988
 114.1060012 102.1734997  48.0489988 113.8593126 101.4158357  47.6977531
 131.7400012  97.6624997  54.0339988 130.8220012  97.9334997  53.9979988
 131.8630012  97.1274997  53.2489988 131.6311066  97.6272892  53.9230487
 131.7760012  97.5854997  38.6949988 132.1880012  96.8644997  38.2199988
 132.4580012  98.2554997  38.7539988 131.9245885  97.5772368  38.6378915
 114.0570012  97.5904997  41.8219988 113.1320012  97.7994997  41.6929988
 114.5110012  98.0744997  41.1329988 113.9917368  97.6845993  41.7111226
 128.8280012 112.5744997  43.7679988 129.4800012 112.2274997  43.1599988
 129.3380012 113.0634997  44.4139988 128.9862637 112.5930597  43.7720236
 114.0210012  96.3284997  50.1669988 113.3560012  96.0824997  50.8099988
 113.5780012  96.9504997  49.5889988 113.8700956  96.3788632  50.1769352
 116.2130012 109.5034997  54.3109988 115.3920012 109.6784997  53.8509988
 115.9600012 109.4304997  55.2319988 116.0666164 109.5175622  54.3724923
 119.1670012 110.4784997  50.5699988 118.7420012 111.2874997  50.2869988
 120.0710012 110.5634997  50.2679988 119.2310271 110.6008469  50.4903776
 123.4780012 111.8774997  53.5289988 123.6630012 111.5434997  54.4069988
 124.3240012 112.1864997  53.2069988 123.6177539 111.8736047  53.6055605
 125.8230012 113.1634997  52.7729988 126.5000012 112.5304997  52.5329988
 126.1450012 113.5644997  53.5799988 125.9591637 113.1311154  52.8492793
 130.7400012  95.7524997  51.8529988 129.9280012  96.0774997  51.4649988
 130.9730012  94.9924997  51.3199988 130.6603423  95.6942436  51.7278253
 116.5690012 113.7344997  50.6169988 115.8480012 114.1744997  50.1659988
 116.2030012 113.4834997  51.4659988 116.4209804 113.7607698  50.6699840
 119.0360012 113.3344997  49.6469988 118.1710012 113.4064997  50.0509988
 118.9810012 113.8814997  48.8629988 118.9102085 113.4182685  49.5963362
 123.7460012 113.2224997  48.8219988 123.2900012 113.7514997  48.1679988
 123.9090012 113.8254997  49.5479988 123.7055585 113.3764468  48.8305062
 126.0740012 112.1004997  49.7669988 125.1690012 112.2654997  49.5019988
 126.5030012 112.9534997  49.7019988 126.0080799 112.2384483  49.7219182
 128.6780012 113.6704997  50.0619988 128.4960012 114.5864997  49.8519988
 128.8550012 113.2604997  49.2159988 128.6770210 113.7404822  49.9187885
 115.9830012 112.3574997  47.5269988 115.9650012 111.9324997  48.3849988
 116.7880012 112.0394997  47.1189988 116.0893875 112.2563812  47.5891655
 118.1250012 111.0674997  46.1819988 117.9060012 110.1514997  46.3519988
 118.9490012 111.2074997  46.6479988 118.2064420 110.9610520  46.2682774
 120.6620012 111.5374997  47.0309988 120.8750012 110.6494997  46.7439988
 120.7260012 111.5034997  47.9849988 120.6998231 111.4113102  47.1207397
 124.1700012  97.2014997  46.1749988 123.4960012  96.5724997  46.4309988
 124.7340012  96.7174997  45.5719988 124.1539230  97.0498744  46.1285340
 129.3130012  95.3094997  46.2879988 129.9170012  95.8564997  45.7859988
 128.4430012  95.6284997  46.0479988 129.2781241  95.4275806  46.1867654
 131.0400012  96.4474997  44.6209988 131.6520012  95.9334997  44.0949988
 131.4220012  97.3254997  44.6449988 131.1754540  96.4957140  44.5521830
 116.4970012  95.8354997  43.9969988 115.7200012  95.6014997  43.4899988
 117.0270012  95.0384997  44.0059988 116.4622330  95.6956988  43.9287742
 115.3330012  95.6334997  39.8009988 115.7720012  96.2444997  39.2089988
 114.7000012  96.1714997  40.2749988 115.3074514  95.7899257  39.7840930
 121.0760012  95.7624997  43.8109988 121.9510012  96.1504997  43.7809988
 120.9400012  95.5474997  44.7329988 121.1773695  95.7865184  43.9316440
 126.6330012  95.7924997  45.4599988 126.7090012  95.8874997  44.5099988
 126.3580012  94.8844997  45.5889988 126.6062321  95.6827867  45.3475079
 127.9860012  95.8184997  41.1519988 127.2840012  96.4334997  40.9429988
 127.5420012  94.9804997  41.2829988 127.8296330  95.7895783  41.1410328
 115.2340012 111.5814997  40.6989988 114.5490012 111.5434997  40.0309988
 115.2380012 112.4944997  40.9869988 115.1408193 111.6997016  40.6465284
 117.1940012  97.5494997  38.2429988 117.6860012  96.9194997  37.7159988
 117.8180012  97.8454997  38.9069988 117.3455446  97.5033199  38.2605980
 122.2200012  97.8424997  40.6999988 122.3980012  97.1964997  41.3829988
 122.1670012  98.6764997  41.1679988 122.2371829  97.8667985  40.8565940
 124.0990012 112.7914997  39.0959988 124.9650012 113.1574997  38.9179988
 123.8520012 112.3514997  38.2819988 124.1842392 112.7821756  38.9616289
 130.8080012 112.3544997  41.7749988 130.6130012 111.6064997  41.2099988
 130.7690012 113.1124997  41.1919988 130.7760380 112.3546099  41.6188384
 116.4550012  96.3494997  53.5149988 116.0890012  95.5844997  53.9579988
 117.3680012  96.3784997  53.8019988 116.5282790  96.2487224  53.6144070
 118.4280012  95.7004997  55.0509988 119.3260012  95.4264997  54.8659988
 118.0410012  94.9574997  55.5149988 118.4986612  95.5625914  55.0883643
 117.0520012 112.5014997  37.7239988 116.7850012 112.7884997  38.5969988
 117.8240012 111.9554997  37.8759988 117.1197488 112.4670294  37.8641050
 126.8490012  95.0324997  55.2329988 126.9260012  94.6064997  56.0869988
 127.7430012  95.0464997  54.8899988 126.9803428  94.9760880  55.3035310
 130.0250012 111.1054997  53.9249988 129.2430012 110.9194997  53.4059988
 129.9530012 112.0344997  54.1429988 129.9081777 111.2056492  53.8834048
 144.4310012 104.9914997  43.9559988 144.5200012 105.9354997  43.8239988
 143.7930012 104.7164997  43.2979988 144.3569081 105.0834830  43.8489614
 143.3640012 104.2464997  47.3749988 143.3260012 103.6004997  48.0799988
 143.0420012 103.7804997  46.6039988 143.3152333 104.0949408  47.3672978
 135.7330012 103.8614997  48.9679988 135.7740012 103.2354997  49.6909988
 136.4360012 104.4854997  49.1499988 135.8336363 103.8601196  49.0916044
 136.6560012 108.3114997  47.5029988 136.2870012 107.5094997  47.1329988
 137.5970012 108.1424997  47.5489988 136.7327289 108.1790153  47.4586316
 133.2660012 101.9714997  42.8959988 132.8190012 102.8174997  42.8769988
 132.7050012 101.3914997  42.3799988 133.1289900 102.0089916  42.8236801
 133.9770012 104.1334997  45.0219988 134.1900012 103.3634997  45.5489988
 134.7150012 104.2224997  44.4179988 134.1058496 104.0401394  45.0125300
 144.1820012 112.2904997  45.8889988 144.8020012 111.6134997  45.6149988
 143.9740012 112.0724997  46.7969988 144.2386904 112.1683870  45.9743365
 141.7540012 106.6794997  47.7809988 142.0580012 105.9934997  47.1859988
 142.4750012 106.7974997  48.3989988 141.8930671 106.6016305  47.7831816
 144.8950012 101.0734997  48.1089988 145.0370012 100.1274997  48.1289988
 144.7880012 101.2804997  47.1799988 144.8999863 100.9719534  47.9862339
 138.0490012  99.1744997  45.3809988 138.0930012 100.0344997  44.9629988
 137.5920012  98.6224997  44.7469988 137.9932185  99.2175799  45.2380299
 134.6700012 101.5714997  46.1429988 135.3230012 101.0214997  46.5749988
 134.6940012 101.2974997  45.2259988 134.7626683 101.4591466  46.0782123
 139.8260012 103.1214997  45.3579988 140.4420012 102.5954997  45.8679988
 139.2400012 102.4814997  44.9549988 139.8310810 102.9629208  45.3733173
 136.8600012  98.0924997  49.4549988 136.6410012  98.6224997  48.6889988
 136.1920012  98.3194997  50.1019988 136.7397600  98.1956906  49.4376379
 144.2290012 107.5924997  42.9989988 143.9330012 107.2704997  42.1479988
 143.9040012 108.4924997  43.0399988 144.1446371 107.6700215  42.8881801
 139.4290012 105.7684997  49.7419988 138.6890012 106.3664997  49.8459988
 140.1430012 106.3224997  49.4269988 139.4242237 105.9252831  49.7136465
 136.4530012  99.9844997  47.4069988 137.0670012 100.6174997  47.7809988
 136.9650012  99.5124997  46.7509988 136.6062296 100.0072370  47.3694252
 137.8360012 107.7324997  50.5299988 137.8310012 108.6124997  50.1519988
 136.9830012 107.6494997  50.9549988 137.7199464 107.8416117  50.5357907
 133.9570012 107.4034997  41.3119988 133.6850012 107.6324997  40.4229988
 134.0030012 108.2414997  41.7719988 133.9260094 107.5481213  41.2525697
 140.8860012  95.3984997  46.9079988 140.7690012  94.4494997  46.8529988
 140.0310012  95.7304997  47.1809988 140.7543733  95.3135409  46.9373897
 143.1530012 104.2354997  41.4079988 142.4410012 104.7704997  41.0559988
 143.8440012 104.2914997  40.7479988 143.1490132 104.3162543  41.2706289
 143.2060012 102.6934997  38.4469988 143.9070012 102.7154997  39.0979988
 143.5090012 102.0654997  37.7909988 143.3427830 102.6116566  38.4473711
 138.2040012 105.0754997  44.2419988 137.8730012 104.7054997  43.4239988
 138.7920012 104.4054997  44.5889988 138.2381873 104.9341156  44.1768102
 139.5700012 108.5034997  46.9239988 139.4760012 107.9254997  46.1669988
 140.3000012 108.1324997  47.4199988 139.6557981 108.3742390  46.8874165
 138.5700012 103.8444997  47.8759988 139.1360012 103.9654997  47.1129988
 138.8890012 104.4814997  48.5149988 138.6905786 103.9471884  47.8580040
 144.8790012 109.3474997  48.6099988 144.6390012 110.0094997  49.2579988
 144.6810012 108.5134997  49.0349988 144.8193808 109.3253134  48.7561524
 139.4500012 108.2434997  52.5929988 139.1390012 109.0254997  53.0479988
 138.8000012 108.0904997  51.9069988 139.3195558 108.3299105  52.5625871
 136.3700012 104.4414997  51.8219988 136.4410012 105.0924997  52.5199988
 135.4800012 104.5444997  51.4869988 136.2593117 104.5445936  51.8722700
 143.1560012 110.3444997  43.4799988 143.6300012 110.6394997  44.2579988
 142.5930012 111.0824997  43.2469988 143.1447653 110.4846932  43.5550136
 137.6900012 110.3154997  53.3559988 137.6970012 110.1794997  52.4089988
 136.7740012 110.1974997  53.6079988 137.5671714 110.2809430  53.2604666
 137.1940012 104.1454997  41.8319988 136.9020012 104.9134997  41.3409988
 136.5200012 103.4854997  41.6689988 137.0629081 104.1614406  41.7427340
 133.2870012 106.5084997  50.6469988 132.7860012 106.4804997  49.8319988
 133.2920012 105.6024997  50.9559988 133.2191526 106.3822278  50.5772872
 133.0370012 109.2884997  47.5309988 133.9830012 109.1444997  47.5119988
 132.9250012 110.0724997  48.0679988 133.1512727 109.3748046  47.6010072
 142.2140012 109.5284997  52.0889988 142.3010012 110.3544997  52.5639988
 141.3500012 109.1984997  52.3379988 142.1091964 109.5969878  52.1876549
 142.6280012 113.3004997  41.8949988 142.5530012 113.1794997  40.9489988
 142.6610012 114.2504997  42.0139988 142.6221848 113.4122500  41.7814834
 136.2810012 112.0894997  43.6759988 136.4340012 111.7414997  44.5549988
 135.4310012 111.7334997  43.4209988 136.1868962 111.9936650  43.7618340
 135.5360012 107.8314997  51.6899988 135.7520012 107.4704997  52.5489988
 134.6810012 107.4574997  51.4799988 135.4499292 107.7314111  51.7793386
 138.1550012  96.3014997  47.6849988 137.2930012  96.2144997  47.2779988
 138.1320012  97.1574997  48.1129988 138.0340330  96.4052765  47.6871863
 142.8180012  96.0234997  51.0599988 143.2380012  95.6084997  51.8129988
 141.8850012  95.8454997  51.1769988 142.7493644  95.9425900  51.1789539
 142.4790012  98.5164997  38.3449988 142.2260012  98.5354997  39.2679988
 142.2230012  97.6444997  38.0439988 142.4097790  98.4012437  38.4306263
 138.2460012 101.2674997  48.7799988 137.6040012 101.2264997  49.4889988
 138.2830012 102.1934997  48.5429988 138.1631324 101.3871559  48.8449824
 138.2430012 101.4884997  43.6919988 137.3500012 101.1474997  43.6339988
 138.6930012 101.1114997  42.9369988 138.1817305 101.3908484  43.5819177
 143.7780012 101.9044997  42.5089988 143.3690012 102.7194997  42.2179988
 144.4990012 101.7644997  41.8949988 143.8194537 101.9972018  42.3861342
 142.8800012 102.0794997  53.9969988 142.3180012 101.3754997  54.3179988
 143.7070012 101.9594997  54.4649988 142.9147095 101.9667883  54.1042330
 144.7830012 101.3504997  45.3229988 144.5880012 101.9554997  44.6079988
 144.9640012 100.5164997  44.8889988 144.7807614 101.3206300  45.1664405
 135.9960012 101.5874997  50.6469988 135.9580012 101.9874997  51.5159988
 135.5050012 100.7704997  50.7379988 135.9244684 101.5318069  50.7781059
 139.3620012  98.9614997  37.4459988 138.9310012  98.5164997  38.1759988
 138.6440012  99.3334997  36.9339988 139.2059438  98.9508940  37.4766799
 132.6040012  98.7034997  44.4979988 133.2350012  98.6744997  45.2169988
 133.0530012  98.2784997  43.7679988 132.7510774  98.6420492  44.4976553
 133.8780012  99.4494997  39.9219988 134.3520012 100.0404997  39.3369988
 133.1610012  99.9804997  40.2689988 133.8459341  99.6020867  39.8888836
 144.0470012 102.9884997  49.9949988 144.3700012 102.3574997  49.3519988
 143.6070012 102.4534997  50.6549988 144.0316895 102.8298441  49.9962850
 140.8240012  98.9154997  44.7789988 139.9130012  98.9724997  45.0669988
 141.3300012  98.8554997  45.5889988 140.7675413  98.9151985  44.9280622
 135.6530012 100.5444997  43.6049988 134.7630012 100.6444997  43.2649988
 135.9490012  99.7024997  43.2589988 135.5712823 100.4443546  43.5117213
 139.3060012 100.5444997  41.2619988 140.2370012 100.6734997  41.4399988
 139.0910012 101.2144997  40.6119988 139.4044247 100.6526565  41.1985747
 137.9800012 101.7394997  38.8289988 137.4370012 101.3594997  38.1369988
 138.8130012 101.9334997  38.3999988 138.0184399 101.7138124  38.6764526
 136.1150012 106.2964997  53.9279988 136.8470012 106.5504997  54.4889988
 135.3350012 106.5004997  54.4429988 136.1098232 106.3589177  54.0745760
 142.1440012 101.7034997  46.6659988 142.7090012 101.1564997  46.1189988
 141.9970012 101.1814997  47.4539988 142.2012918 101.5582024  46.6978454
 137.1460012  97.8394997  43.0839988 136.8290012  96.9374997  43.0489988
 137.9280012  97.8414997  42.5309988 137.2082284  97.7161628  43.0044783
 140.7710012 100.0914997  49.0799988 139.9350012 100.5454997  49.1899988
 141.2950012 100.3674997  49.8319988 140.7274414 100.1909376  49.1967136
 141.3150012 106.3044997  40.7639988 140.5700012 105.7974997  40.4419988
 141.1810012 106.3534997  41.7109988 141.1948776 106.2416940  40.8478647
 142.8340012 106.4884997  52.0009988 142.4890012 106.1074997  52.8079988
 142.6340012 107.4224997  52.0729988 142.7598061 106.5625228  52.1210961
 136.4400012 105.5994997  46.5339988 137.1850012 105.5974997  45.9329988
 136.5180012 104.7764997  47.0159988 136.5525518 105.4879315  46.5168929
 143.4410012 107.7634997  39.7899988 143.1450012 108.5894997  40.1709988
 142.7380012 107.1434997  39.9859988 143.3054914 107.7928199  39.8686443
 133.4480012 104.0604997  51.8489988 133.6710012 103.6424997  52.6809988
 132.8460012 103.4474997  51.4259988 133.3971759 103.9204668  51.9057022
 140.4640012 103.5774997  54.0619988 140.1680012 103.4114997  53.1669988
 141.3960012 103.3574997  54.0509988 140.5494166 103.5250640  53.9380536
 138.8150012 109.1174997  43.9379988 139.3420012 109.8904997  43.7379988
 137.9350012 109.3424997  43.6369988 138.7681773 109.2538005  43.8699010
 134.5700012 103.9794997  38.5249988 135.1860012 104.6064997  38.9049988
 133.7080012 104.2954997  38.7969988 134.5377698 104.1079430  38.6137183
 140.2420012 106.7804997  43.5149988 140.0010012 107.7054997  43.5559988
 139.5010012 106.3214997  43.9109988 140.1088409 106.8451421  43.5741377
 140.7570012 110.9294997  49.8299988 141.1190012 111.7844997  49.5959988
 141.2880012 110.6374997  50.5699988 140.8784473 111.0071060  49.8980855
 138.9250012 111.8024997  43.0599988 137.9750012 111.9074997  43.1109988
 139.2770012 112.6224997  43.4049988 138.8424203 111.9278314  43.1136650
 144.3010012 107.0284997  49.5299988 143.8750012 106.8014997  50.3569988
 144.8810012 106.2904997  49.3479988 144.3211868 106.8975299  49.6185830
 135.0820012  98.8134997  51.4069988 134.1890012  99.1524997  51.3389988
 134.9830012  97.9584997  51.8249988 134.9464164  98.7442588  51.4542235
 134.7330012 110.6184997  49.8419988 134.9500012 109.6864997  49.8109988
 134.9790012 110.8924997  50.7249988 134.7959549 110.5280636  49.9571763
 140.5950012 109.0694997  37.0509988 140.8340012 108.3214997  36.5039988
 140.3260012 108.6814997  37.8839988 140.5913675 108.9146638  37.0886865
 139.5320012 108.6394997  39.5079988 139.6780012 108.1194997  40.2979988
 139.5290012 109.5464997  39.8139988 139.5515989 108.6908853  39.6576088
 135.9850012 105.8924997  40.0179988 135.2990012 106.2444997  40.5849988
 136.5070012 106.6554997  39.7709988 135.9616852 106.0438578  40.0622118
 143.8160012  98.5544997  50.2969988 144.5150012  98.6284997  50.9469988
 143.4350012  97.6904997  50.4509988 143.8601767  98.4477624  50.4068322
 144.6010012  98.2064997  41.3939988 144.8210012  98.6784997  40.5909988
 145.1590012  98.6014997  42.0639988 144.7064968  98.3244285  41.3747331
 142.2690012 110.3374997  40.2569988 141.4530012 110.8344997  40.3089988
 142.7990012 110.8124997  39.6169988 142.2289161 110.4697722  40.1775956
 141.8010012  99.9344997  42.2289988 142.6130012 100.4394997  42.2749988
 141.5560012  99.7894997  43.1429988 141.8790520  99.9840375  42.3588517
 142.3360012 100.9204997  51.4139988 142.4550012 101.4944997  52.1709988
 142.9920012 100.2324997  51.5279988 142.4409757 100.9061079  51.5330825
 142.6840012  97.0154997  43.1669988 142.3380012  97.6334997  43.8119988
 143.3430012  97.5164997  42.6859988 142.7257826  97.1675802  43.1900971
 139.6080012 111.3814997  40.2389988 139.7680012 112.1804997  39.7379988
 139.4100012 111.6874997  41.1239988 139.6031649 111.5324469  40.2899815
 138.3420012  98.0784997  39.8539988 138.2590012  98.9674997  40.2009988
 139.2320012  97.8134997  40.0859988 138.4509469  98.1641430  39.9327626
 136.6010012 108.5064997  38.9149988 137.1930012 109.2054997  39.1909988
 137.0600012 108.0734997  38.1949988 136.7441142 108.5437049  38.8554830
 134.9170012 101.1704997  38.0309988 134.8720012 102.1094997  38.2089988
 134.0290012 100.9344997  37.7609988 134.7908574 101.2671892  38.0188912
 135.7250012  95.9524997  46.7039988 135.4960012  96.0114997  45.7759988
 135.2820012  95.1604997  47.0099988 135.6338530  95.8535753  46.6184786
 134.6550012 109.8924997  42.8639988 133.8230012 110.3654997  42.8919988
 135.2010012 110.4024997  42.2659988 134.6149739 110.0261871  42.7869716
 133.9430012 112.5054997  54.1939988 134.4840012 112.2884997  54.9539988
 133.4620012 111.6994997  54.0049988 133.9519345 112.3669514  54.2723076
 138.5410012 111.4244997  55.8149988 139.3080012 110.9654997  56.1559988
 138.5190012 111.1984997  54.8849988 138.6431434 111.3310409  55.7360043
 142.6330012 110.9324997  37.1899988 141.9890012 110.3014997  37.5109988
 143.3950012 110.4014997  36.9579988 142.6478077 110.7742920  37.2026011
 133.8500012 106.3154997  55.1489988 133.9940012 105.4134997  54.8619988
 133.0780012 106.6014997  54.6609988 133.7653323 106.2308261  55.0437881
 138.1920012 106.6594997  37.2809988 138.2560012 105.8654997  37.8119988
 138.8450012 106.5404997  36.5909988 138.2890241 106.5347148  37.2604317
 140.5060012 106.2854997  54.5809988 140.1770012 106.5564997  53.7239988
 140.6580012 105.3444997  54.4939988 140.4814809 106.1953862  54.4518244
 143.5440012 107.7064997  37.0169988 143.2750012 107.8864997  37.9179988
 143.3380012 106.7804997  36.8859988 143.4793825 107.6060152  37.1225214
 134.6830012 103.5154997  54.5689988 135.0910012 102.6584997  54.4479988
 134.4230012 103.5304997  55.4899988 134.7037568 103.4000807  54.6769588
 139.3410012 104.6314997  39.5869988 138.8810012 104.1474997  40.2729988
 139.5960012 103.9634997  38.9509988 139.3124902 104.4748731  39.5949334
 138.6300012 102.5244997  51.9429988 138.0120012 103.1994997  52.2229988
 138.9740012 102.8454997  51.1099988 138.5919615 102.6602721  51.8686581
 140.4120012 102.8744997  37.8489988 140.2320012 102.7204997  36.9219988
 141.3620012 102.9824997  37.8939988 140.5157776 102.8680175  37.7281843
 143.6500012 104.9964997  55.2199988 144.6030012 105.0794997  55.1929988
 143.4890012 104.2844997  55.8399988 143.7586426 104.9116746  55.3000579
 138.9690012  99.8794997  53.0249988 139.1190012  99.1504997  52.4229988
 138.9720012 100.6564997  52.4659988 138.9899302  99.8847851  52.8670692
 139.3820012  98.2494997  50.5179988 139.9180012  98.7004997  49.8659988
 138.5300012  98.1414997  50.0949988 139.3402178  98.2966390  50.3715756
 140.9640012 103.6884997  50.7569988 141.7140012 103.5324997  50.1839988
 140.6250012 104.5404997  50.4819988 141.0208921 103.7822968  50.6413561
 137.4480012 101.0774997  54.9369988 136.6810012 100.5454997  54.7269988
 138.1270012 100.7674997  54.3369988 137.4347022 100.9627506  54.8271648
 140.1880012  95.7054997  50.9489988 140.0890012  96.6524997  50.8439988
 139.4450012  95.3334997  50.4739988 140.0740564  95.7845902  50.8704560
 141.4520012 100.0274997  54.5129988 141.2160012  99.8074997  55.4149988
 140.6680012  99.8204997  54.0029988 141.3138628  99.9694760  54.5673932
 144.1670012  99.1544997  53.5889988 143.2200012  99.1864997  53.7209988
 144.4800012  98.5294997  54.2419988 144.0795475  99.0743207  53.6954455
 135.6280012  98.9984997  54.6409988 135.8400012  98.2914997  54.0309988
 135.5170012  98.5604997  55.4849988 135.6419721  98.8427084  54.6716843
 140.4090012  94.9994997  53.6209988 141.1210012  94.3594997  53.6069988
 140.3080012  95.2664997  52.7069988 140.4927939  94.9479938  53.4955650
 140.7630012  96.6824997  55.6739988 140.6310012  96.2064997  54.8539988
 140.1640012  97.4264997  55.6189988 140.6639071  96.7179618  55.5542886
 140.3090012 113.5654997  38.8509988 141.2420012 113.7234997  38.9939988
 140.0450012 114.2404997  38.2259988 140.4009510 113.6783611  38.7860741
 133.8780012 108.2014997  38.3329988 134.7920012 108.2804997  38.6069988
 133.8850012 107.5144997  37.6669988 134.0041131 108.1193961  38.2804393
 132.5270012 113.5944997  43.4109988 131.8800012 113.1324997  42.8779988
 132.8810012 112.9224997  43.9929988 132.4863849 113.4404723  43.4167959
 133.3970012 111.6754997  45.2149988 133.0620012 110.7954997  45.3869988
 133.6190012 112.0204997  46.0799988 133.3811783 111.6017500  45.3554208
 133.4770012 104.7504997  47.6669988 133.6610012 104.6684997  46.7309988
 134.3260012 104.6264997  48.0909988 133.6170139 104.7225003  47.5961455
 133.0740012 100.0214997  53.8079988 133.9940012  99.8994997  54.0439988
 132.6250012  99.2714997  54.1969988 133.1391580  99.9033727  53.8929006
 134.2950012  98.3334997  46.6989988 134.7410012  97.5414997  47.0009988
 134.7620012  99.0494997  47.1299988 134.4190172  98.3220624  46.7984820
 132.5990012 101.3324997  47.7679988 133.0910012 101.1114997  46.9769988
 132.9620012 102.1734997  48.0489988 132.7153126 101.4158357  47.6977531
 132.9130012  97.5904997  41.8219988 131.9880012  97.7994997  41.6929988
 133.3670012  98.0744997  41.1329988 132.8477368  97.6845993  41.7111226
 132.8770012  96.3284997  50.1669988 132.2120012  96.0824997  50.8099988
 132.4340012  96.9504997  49.5889988 132.7260956  96.3788632  50.1769352
 135.0690012 109.5034997  54.3109988 134.2480012 109.6784997  53.8509988
 134.8160012 109.4304997  55.2319988 134.9226164 109.5175622  54.3724923
 138.0230012 110.4784997  50.5699988 137.5980012 111.2874997  50.2869988
 138.9270012 110.5634997  50.2679988 138.0870271 110.6008469  50.4903776
 142.3340012 111.8774997  53.5289988 142.5190012 111.5434997  54.4069988
 143.1800012 112.1864997  53.2069988 142.4737539 111.8736047  53.6055605
 144.6790012 113.1634997  52.7729988 145.3560012 112.5304997  52.5329988
 145.0010012 113.5644997  53.5799988 144.8151637 113.1311154  52.8492793
 135.4250012 113.7344997  50.6169988 134.7040012 114.1744997  50.1659988
 135.0590012 113.4834997  51.4659988 135.2769804 113.7607698  50.6699840
 137.8920012 113.3344997  49.6469988 137.0270012 113.4064997  50.0509988
 137.8370012 113.8814997  48.8629988 137.7662085 113.4182685  49.5963362
 142.6020012 113.2224997  48.8219988 142.1460012 113.7514997  48.1679988
 142.7650012 113.8254997  49.5479988 142.5615585 113.3764468  48.8305062
 134.8390012 112.3574997  47.5269988 134.8210012 111.9324997  48.3849988
 135.6440012 112.0394997  47.1189988 134.9453875 112.2563812  47.5891655
 136.9810012 111.0674997  46.1819988 136.7620012 110.1514997  46.3519988
 137.8050012 111.2074997  46.6479988 137.0624420 110.9610520  46.2682774
 139.5180012 111.5374997  47.0309988 139.7310012 110.6494997  46.7439988
 139.5820012 111.5034997  47.9849988 139.5558232 111.4113102  47.1207397
 143.0260012  97.2014997  46.1749988 142.3520012  96.5724997  46.4309988
 143.5900012  96.7174997  45.5719988 143.0099230  97.0498744  46.1285340
 135.3530012  95.8354997  43.9969988 134.5760012  95.6014997  43.4899988
 135.8830012  95.0384997  44.0059988 135.3182330  95.6956988  43.9287742
 134.1890012  95.6334997  39.8009988 134.6280012  96.2444997  39.2089988
 133.5560012  96.1714997  40.2749988 134.1634514  95.7899257  39.7840930
 139.9320012  95.7624997  43.8109988 140.8070012  96.1504997  43.7809988
 139.7960012  95.5474997  44.7329988 140.0333695  95.7865184  43.9316440
 134.0900012 111.5814997  40.6989988 133.4050012 111.5434997  40.0309988
 134.0940012 112.4944997  40.9869988 133.9968193 111.6997016  40.6465284
 136.0500012  97.5494997  38.2429988 136.5420012  96.9194997  37.7159988
 136.6740012  97.8454997  38.9069988 136.2015446  97.5033199  38.2605980
 141.0760012  97.8424997  40.6999988 141.2540012  97.1964997  41.3829988
 141.0230012  98.6764997  41.1679988 141.0931829  97.8667985  40.8565940
 142.9550012 112.7914997  39.0959988 143.8210012 113.1574997  38.9179988
 142.7080012 112.3514997  38.2819988 143.0402392 112.7821756  38.9616289
 135.3110012  96.3494997  53.5149988 134.9450012  95.5844997  53.9579988
 136.2240012  96.3784997  53.8019988 135.3842790  96.2487224  53.6144070
 137.2840012  95.7004997  55.0509988 138.1820012  95.4264997  54.8659988
 136.8970012  94.9574997  55.5149988 137.3546612  95.5625914  55.0883643
 135.9080012 112.5014997  37.7239988 135.6410012 112.7884997  38.5969988
 136.6800012 111.9554997  37.8759988 135.9757488 112.4670294  37.8641050
  12.4390012 123.8474997  43.9559988  12.5280012 124.7914997  43.8239988
  11.8010012 123.5724997  43.2979988  12.3649081 123.9394830  43.8489614
  11.3720012 123.1024997  47.3749988  11.3340012 122.4564997  48.0799988
  11.0500012 122.6364997  46.6039988  11.3232333 122.9509408  47.3672978
   3.7410012 122.7174997  48.9679988   3.7820012 122.0914997  49.6909988
   4.4440012 123.3414997  49.1499988   3.8416363 122.7161196  49.0916044
  15.0780012 126.0414997  45.6759988  14.6380012 125.3214997  46.1269988
  15.0650012 126.7624997  46.3059988  15.0160226 126.0403731  45.8228494
   4.6640012 127.1674997  47.5029988   4.2950012 126.3654997  47.1329988
   5.6050012 126.9984997  47.5489988   4.7407289 127.0350153  47.4586316
   1.2740012 120.8274997  42.8959988   0.8270012 121.6734997  42.8769988
   0.7130012 120.2474997  42.3799988   1.1369900 120.8649916  42.8236801
   1.9850012 122.9894997  45.0219988   2.1980012 122.2194997  45.5489988
   2.7230012 123.0784997  44.4179988   2.1138496 122.8961394  45.0125300
  12.1900012 131.1464997  45.8889988  12.8100012 130.4694997  45.6149988
  11.9820012 130.9284997  46.7969988  12.2466904 131.0243870  45.9743365
   9.7620012 125.5354997  47.7809988  10.0660012 124.8494997  47.1859988
  10.4830012 125.6534997  48.3989988   9.9010671 125.4576305  47.7831816
  18.4250012 117.1364997  48.6419988  18.4740012 117.7464997  49.3779988
  18.8500012 117.5974997  47.9189988  18.4891824 117.2823741  48.6450205
  12.9030012 119.9294997  48.1089988  13.0450012 118.9834997  48.1289988
  12.7960012 120.1364997  47.1799988  12.9079864 119.8279534  47.9862339
   6.0570012 118.0304997  45.3809988   6.1010012 118.8904997  44.9629988
   5.6000012 117.4784997  44.7469988   6.0012185 118.0735799  45.2380299
  13.7800012 118.1614997  43.7819988  14.4260012 117.8324997  44.4069988
  14.2900012 118.6794997  43.1589988  13.9374264 118.1864611  43.7833862
   2.6780012 120.4274997  46.1429988   3.3310012 119.8774997  46.5749988
   2.7020012 120.1534997  45.2259988   2.7706683 120.3151466  46.0782123
   7.8340012 121.9774997  45.3579988   8.4500012 121.4514997  45.8679988
   7.2480012 121.3374997  44.9549988   7.8390810 121.8189208  45.3733173
  18.8160012 118.6144997  50.8779988  18.1280012 119.2724997  50.7819988
  18.8320012 118.4174997  51.8139988  18.7238525 118.6780462  50.9914808
   4.8680012 116.9484997  49.4549988   4.6490012 117.4784997  48.6889988
   4.2000012 117.1754997  50.1019988   4.7477600 117.0516906  49.4376379
  12.2370012 126.4484997  42.9989988  11.9410012 126.1264997  42.1479988
  11.9120012 127.3484997  43.0399988  12.1526371 126.5260215  42.8881801
   7.4370012 124.6244997  49.7419988   6.6970012 125.2224997  49.8459988
   8.1510012 125.1784997  49.4269988   7.4322237 124.7812831  49.7136465
  15.5440012 117.4524997  45.7619988  15.3280012 116.6864997  46.2949988
  16.1990012 117.9244997  46.2749988  15.6030632 117.4115889  45.9042861
   4.4610012 118.8404997  47.4069988   5.0750012 119.4734997  47.7809988
   4.9730012 118.3684997  46.7509988   4.6142296 118.8632370  47.3694252
   5.8440012 126.5884997  50.5299988   5.8390012 127.4684997  50.1519988
   4.9910012 126.5054997  50.9549988   5.7279464 126.6976117  50.5357907
   1.9650012 126.2594997  41.3119988   1.6930012 126.4884997  40.4229988
   2.0110012 127.0974997  41.7719988   1.9340094 126.4041213  41.2525697
  15.5900012 127.8814997  48.0239988  14.6490012 127.9394997  48.1859988
  15.8670012 128.7874997  47.8869988  15.4984679 128.0119443  48.0276815
  15.8910012 116.1674997  49.4419988  15.1550012 116.7784997  49.4039988
  16.5740012 116.5824997  48.9149988  15.8826541 116.3071374  49.3655832
   8.8940012 114.2544997  46.9079988   8.7770012 113.3054997  46.8529988
   8.0390012 114.5864997  47.1809988   8.7623733 114.1695409  46.9373897
  13.8420012 129.6624997  44.6499988  14.2680012 128.9554997  44.1649988
  14.1590012 130.4634997  44.2329988  13.9431019 129.6740994  44.5273130
  15.0020012 127.5634997  43.1579988  14.7440012 126.8734997  42.5469988
  15.0730012 127.1204997  44.0039988  14.9762856 127.4092124  43.1886885
  16.6880012 126.1294997  51.6359988  16.8280012 125.5384997  50.8959988
  16.8550012 127.0024997  51.2789988  16.7296778 126.1666426  51.4866965
  11.1610012 123.0914997  41.4079988  10.4490012 123.6264997  41.0559988
  11.8520012 123.1474997  40.7479988  11.1570132 123.1722543  41.2706289
  11.2140012 121.5494997  38.4469988  11.9150012 121.5714997  39.0979988
  11.5170012 120.9214997  37.7909988  11.3507830 121.4676566  38.4473711
  18.5300012 122.4694997  49.7019988  17.8770012 123.1644997  49.7909988
  18.9950012 122.6794997  48.8919988  18.5035390 122.5929425  49.6046883
  14.5660012 123.3014997  42.3599988  13.8340012 123.5294997  42.9329988
  15.0140012 122.5874997  42.8149988  14.5263095 123.2362571  42.4999119
  14.4640012 121.4754997  51.4269988  14.5440012 122.2384997  51.9989988
  13.8620012 121.7544997  50.7369988  14.3935756 121.6177134  51.4120589
   6.2120012 123.9314997  44.2419988   5.8810012 123.5614997  43.4239988
   6.8000012 123.2614997  44.5889988   6.2461873 123.7901156  44.1768102
   7.5780012 127.3594997  46.9239988   7.4840012 126.7814997  46.1669988
   8.3080012 126.9884997  47.4199988   7.6637981 127.2302390  46.8874165
   6.5780012 122.7004997  47.8759988   7.1440012 122.8214997  47.1129988
   6.8970012 123.3374997  48.5149988   6.6985786 122.8031884  47.8580040
  12.8870012 128.2034997  48.6099988  12.6470012 128.8654997  49.2579988
  12.6890012 127.3694997  49.0349988  12.8273808 128.1813134  48.7561524
   7.4580012 127.0994997  52.5929988   7.1470012 127.8814997  53.0479988
   6.8080012 126.9464997  51.9069988   7.3275558 127.1859105  52.5625871
  13.4370012 122.4634997  40.0449988  14.0170012 122.6134997  40.7919988
  13.8510012 122.9344997  39.3219988  13.5722831 122.5476841  40.0494134
   4.3780012 123.2974997  51.8219988   4.4490012 123.9484997  52.5199988
   3.4880012 123.4004997  51.4869988   4.2673117 123.4005936  51.8722700
  11.1640012 129.2004997  43.4799988  11.6380012 129.4954997  44.2579988
  10.6010012 129.9384997  43.2469988  11.1527653 129.3406932  43.5550136
   5.6980012 129.1714997  53.3559988   5.7050012 129.0354997  52.4089988
   4.7820012 129.0534997  53.6079988   5.5751714 129.1369430  53.2604666
  17.1360012 114.2134997  39.8579988  16.2360012 114.3524997  40.1529988
  17.3880012 115.0444997  39.4559988  17.0468702 114.3449074  39.8440205
   5.2020012 123.0014997  41.8319988   4.9100012 123.7694997  41.3409988
   4.5280012 122.3414997  41.6689988   5.0709081 123.0174406  41.7427340
  18.3250012 128.5794997  38.2339988  18.3990012 129.5184997  38.4049988
  19.2310012 128.2744997  38.1779988  18.4575100 128.6666722  38.2498119
   1.2950012 125.3644997  50.6469988   0.7940012 125.3364997  49.8319988
   1.3000012 124.4584997  50.9559988   1.2271526 125.2382278  50.5772872
   1.0450012 128.1444997  47.5309988   1.9910012 128.0004997  47.5119988
   0.9330012 128.9284997  48.0679988   1.1592727 128.2308046  47.6010072
  19.2430012 128.8104997  53.2129988  19.1940012 127.8554997  53.1759988
  18.4160012 129.0784997  53.6139988  19.1244940 128.7158998  53.2621375
  10.2220012 128.3844997  52.0889988  10.3090012 129.2104997  52.5639988
   9.3580012 128.0544997  52.3379988  10.1171964 128.4529878  52.1876549
  10.6360012 132.1564997  41.8949988  10.5610012 132.0354997  40.9489988
  10.6690012 133.1064997  42.0139988  10.6301848 132.2682500  41.7814834
   4.2890012 130.9454997  43.6759988   4.4420012 130.5974997  44.5549988
   3.4390012 130.5894997  43.4209988   4.1948962 130.8496650  43.7618340
  13.7380012 131.3104997  38.8969988  14.1130012 130.5664997  38.4269988
  13.7420012 131.0404997  39.8159988  13.7898915 131.1721486  38.9567824
  13.4070012 131.2364997  41.6469988  12.4710012 131.3364997  41.8249988
  13.6870012 130.5274997  42.2249988  13.3168255 131.1542711  41.7495391
  16.3950012 120.3034997  53.6929988  15.9880012 120.7844997  52.9719988
  16.4360012 119.3984997  53.3849988  16.3448437 120.2469374  53.5526683
   3.5440012 126.6874997  51.6899988   3.7600012 126.3264997  52.5489988
   2.6890012 126.3134997  51.4799988   3.4579292 126.5874111  51.7793386
   6.1630012 115.1574997  47.6849988   5.3010012 115.0704997  47.2779988
   6.1400012 116.0134997  48.1129988   6.0420330 115.2612765  47.6871863
  10.8260012 114.8794997  51.0599988  11.2460012 114.4644997  51.8129988
   9.8930012 114.7014997  51.1769988  10.7573644 114.7985900  51.1789539
  14.1520012 118.6354997  51.9129988  13.6380012 118.5094997  52.7109988
  13.9970012 119.5474997  51.6689988  14.0606852 118.7416132  51.9892158
  14.9150012 123.4964997  37.6749988  14.9570012 123.2734997  36.7449988
  15.7640012 123.8954997  37.8649988  15.0355396 123.5199155  37.5733627
  10.4870012 117.3724997  38.3449988  10.2340012 117.3914997  39.2679988
  10.2310012 116.5004997  38.0439988  10.4177790 117.2572437  38.4306263
   6.2540012 120.1234997  48.7799988   5.6120012 120.0824997  49.4889988
   6.2910012 121.0494997  48.5429988   6.1711324 120.2431559  48.8449824
   6.2510012 120.3444997  43.6919988   5.3580012 120.0034997  43.6339988
   6.7010012 119.9674997  42.9369988   6.1897305 120.2468484  43.5819177
  11.7860012 120.7604997  42.5089988  11.3770012 121.5754997  42.2179988
  12.5070012 120.6204997  41.8949988  11.8274537 120.8532018  42.3861342
  10.8880012 120.9354997  53.9969988  10.3260012 120.2314997  54.3179988
  11.7150012 120.8154997  54.4649988  10.9227095 120.8227883  54.1042330
  12.7910012 120.2064997  45.3229988  12.5960012 120.8114997  44.6079988
  12.9720012 119.3724997  44.8889988  12.7887614 120.1766300  45.1664405
   4.0040012 120.4434997  50.6469988   3.9660012 120.8434997  51.5159988
   3.5130012 119.6264997  50.7379988   3.9324684 120.3878069  50.7781059
   7.3700012 117.8174997  37.4459988   6.9390012 117.3724997  38.1759988
   6.6520012 118.1894997  36.9339988   7.2139438 117.8068940  37.4766799
   0.6120012 117.5594997  44.4979988   1.2430012 117.5304997  45.2169988
   1.0610012 117.1344997  43.7679988   0.7590774 117.4980492  44.4976553
   1.8860012 118.3054997  39.9219988   2.3600012 118.8964997  39.3369988
   1.1690012 118.8364997  40.2689988   1.8539341 118.4580867  39.8888836
  12.0550012 121.8444997  49.9949988  12.3780012 121.2134997  49.3519988
  11.6150012 121.3094997  50.6549988  12.0396895 121.6858441  49.9962850
   8.8320012 117.7714997  44.7789988   7.9210012 117.8284997  45.0669988
   9.3380012 117.7114997  45.5889988   8.7755413 117.7711985  44.9280622
   3.6610012 119.4004997  43.6049988   2.7710012 119.5004997  43.2649988
   3.9570012 118.5584997  43.2589988   3.5792823 119.3003545  43.5117213
   7.3140012 119.4004997  41.2619988   8.2450012 119.5294997  41.4399988
   7.0990012 120.0704997  40.6119988   7.4124247 119.5086565  41.1985747
  13.2370012 117.0064997  48.0429988  12.5610012 117.1374997  48.7069988
  12.7520012 116.8514997  47.2329988  13.0787145 117.0034905  48.0244517
   5.9880012 120.5954997  38.8289988   5.4450012 120.2154997  38.1369988
   6.8210012 120.7894997  38.3999988   6.0264399 120.5698124  38.6764526
  16.5250012 132.6784997  54.3199988  16.7250012 133.1024997  53.4849988
  17.1800012 133.0214997  54.9269988  16.6410051 132.7829648  54.2877836
   4.1230012 125.1524997  53.9279988   4.8550012 125.4064997  54.4889988
   3.3430012 125.3564997  54.4429988   4.1178232 125.2149177  54.0745760
  10.1520012 120.5594997  46.6659988  10.7170012 120.0124997  46.1189988
  10.0050012 120.0374997  47.4539988  10.2092918 120.4142024  46.6978454
   5.1540012 116.6954997  43.0839988   4.8370012 115.7934997  43.0489988
   5.9360012 116.6974997  42.5309988   5.2162284 116.5721628  43.0044783
   8.7790012 118.9474997  49.0799988   7.9430012 119.4014997  49.1899988
   9.3030012 119.2234997  49.8319988   8.7354414 119.0469376  49.1967136
   9.3230012 125.1604997  40.7639988   8.5780012 124.6534997  40.4419988
   9.1890012 125.2094997  41.7109988   9.2028776 125.0976940  40.8478647
  16.4730012 124.2934997  49.5509988  17.1150012 124.7504997  49.0069988
  15.6430012 124.4064997  49.0879988  16.4485963 124.3712704  49.4140177
  13.2210012 117.9744997  38.9639988  12.2820012 118.0864997  38.8119988
  13.5180012 118.8314997  39.2699988  13.1327666 118.1056443  38.9845768
  10.8420012 125.3444997  52.0009988  10.4970012 124.9634997  52.8079988
  10.6420012 126.2784997  52.0729988  10.7678061 125.4185228  52.1210961
  13.9390012 119.8414997  40.6239988  14.8310012 119.7044997  40.9429988
  13.9960012 120.6324997  40.0879988  14.0686285 119.9296660  40.5951691
   4.4480012 124.4554997  46.5339988   5.1930012 124.4534997  45.9329988
   4.5260012 123.6324997  47.0159988   4.5605518 124.3439315  46.5168929
  11.4490012 126.6194997  39.7899988  11.1530012 127.4454997  40.1709988
  10.7460012 125.9994997  39.9859988  11.3134914 126.6488199  39.8686443
   1.4560012 122.9164997  51.8489988   1.6790012 122.4984997  52.6809988
   0.8540012 122.3034997  51.4259988   1.4051759 122.7764668  51.9057022
   8.4720012 122.4334997  54.0619988   8.1760012 122.2674997  53.1669988
   9.4040012 122.2134997  54.0509988   8.5574166 122.3810640  53.9380536
  13.0930012 127.8064997  51.9519988  12.1920012 127.9894997  51.6839988
  13.1270012 128.0654997  52.8729988  12.9743041 127.8665512  52.0398197
  18.8240012 120.0514997  40.3189988  18.2700012 119.6554997  39.6469988
  18.9240012 120.9614997  40.0409988  18.7617059 120.1203586  40.1894401
  18.7870012 125.8514997  53.1559988  17.9360012 126.0894997  52.7889988
  19.3780012 125.8344997  52.4029988  18.7502487 125.8818258  53.0038893
  17.1190012 128.8374997  40.7839988  16.7460012 128.0114997  41.0929988
  17.3970012 128.6544997  39.8869988  17.1055630 128.6997303  40.7049626
  14.2800012 123.6454997  47.8049988  13.3510012 123.4134997  47.7779988
  14.7310012 122.8684997  47.4749988  14.2139216 123.5087238  47.7566917
   6.8230012 127.9734997  43.9379988   7.3500012 128.7464997  43.7379988
   5.9430012 128.1984997  43.6369988   6.7761773 128.1098005  43.8699010
   2.5780012 122.8354997  38.5249988   3.1940012 123.4624997  38.9049988
   1.7160012 123.1514997  38.7969988   2.5457698 122.9639430  38.6137183
   8.2500012 125.6364997  43.5149988   8.0090012 126.5614997  43.5559988
   7.5090012 125.1774997  43.9109988   8.1168409 125.7011421  43.5741377
   8.7650012 129.7854997  49.8299988   9.1270012 130.6404997  49.5959988
   9.2960012 129.4934997  50.5699988   8.8864473 129.8631060  49.8980855
   6.9330012 130.6584997  43.0599988   5.9830012 130.7634997  43.1109988
   7.2850012 131.4784997  43.4049988   6.8504203 130.7838314  43.1136650
  12.3090012 125.8844997  49.5299988  11.8830012 125.6574997  50.3569988
  12.8890012 125.1464997  49.3479988  12.3291868 125.7535299  49.6185830
  14.5120012 126.8134997  38.6039988  14.8650012 126.4334997  39.4089988
  13.5630012 126.7204997  38.6909988  14.4320441 126.7489596  38.7258559
  14.9670012 130.4364997  51.9999988  14.3660012 129.8814997  51.5039988
  15.2490012 131.1034997  51.3739988  14.9228519 130.4506841  51.8474952
  19.0150012 131.2934997  38.8049988  19.7590012 131.8794997  38.6649988
  18.3210012 131.8614997  39.1389988  19.0230292 131.4505582  38.8309961
   3.0900012 117.6694997  51.4069988   2.1970012 118.0084997  51.3389988
   2.9910012 116.8144997  51.8249988   2.9544164 117.6002588  51.4542235
  15.3780012 125.4864997  40.8309988  15.1000012 124.7584997  41.3869988
  16.3050012 125.6054997  41.0359988  15.4653124 125.4028802  40.9348845
   2.7410012 129.4744997  49.8419988   2.9580012 128.5424997  49.8109988
   2.9870012 129.7484997  50.7249988   2.8039549 129.3840636  49.9571763
   8.6030012 127.9254997  37.0509988   8.8420012 127.1774997  36.5039988
   8.3340012 127.5374997  37.8839988   8.5993675 127.7706638  37.0886865
   7.5400012 127.4954997  39.5079988   7.6860012 126.9754997  40.2979988
   7.5370012 128.4024997  39.8139988   7.5595989 127.5468853  39.6576088
   3.9930012 124.7484997  40.0179988   3.3070012 125.1004997  40.5849988
   4.5150012 125.5114997  39.7709988   3.9696852 124.8998578  40.0622118
  11.8240012 117.4104997  50.2969988  12.5230012 117.4844997  50.9469988
  11.4430012 116.5464997  50.4509988  11.8681767 117.3037624  50.4068322
  12.6090012 117.0624997  41.3939988  12.8290012 117.5344997  40.5909988
  13.1670012 117.4574997  42.0639988  12.7144968 117.1804285  41.3747331
  10.2770012 129.1934997  40.2569988   9.4610012 129.6904997  40.3089988
  10.8070012 129.6684997  39.6169988  10.2369161 129.3257722  40.1775956
   9.8090012 118.7904997  42.2289988  10.6210012 119.2954997  42.2749988
   9.5640012 118.6454997  43.1429988   9.8870520 118.8400375  42.3588517
  10.3440012 119.7764997  51.4139988  10.4630012 120.3504997  52.1709988
  11.0000012 119.0884997  51.5279988  10.4489757 119.7621079  51.5330825
  10.6920012 115.8714997  43.1669988  10.3460012 116.4894997  43.8119988
  11.3510012 116.3724997  42.6859988  10.7337826 116.0235802  43.1900971
   7.6160012 130.2374997  40.2389988   7.7760012 131.0364997  39.7379988
   7.4180012 130.5434997  41.1239988   7.6111649 130.3884469  40.2899815
   6.3500012 116.9344997  39.8539988   6.2670012 117.8234997  40.2009988
   7.2400012 116.6694997  40.0859988   6.4589469 117.0201430  39.9327626
  16.5490012 117.6834997  52.2489988  15.6320012 117.9464997  52.1609988
  16.8840012 117.6804997  51.3519988  16.4689900 117.7190224  52.1157919
  15.1510012 121.4344997  46.3439988  14.3530012 121.0194997  46.0159988
  15.5960012 120.7434997  46.8349988  15.1019885 121.2843543  46.3654889
   4.6090012 127.3624997  38.9149988   5.2010012 128.0614997  39.1909988
   5.0680012 126.9294997  38.1949988   4.7521142 127.3997049  38.8554830
   2.9250012 120.0264997  38.0309988   2.8800012 120.9654997  38.2089988
   2.0370012 119.7904997  37.7609988   2.7988574 120.1231892  38.0188912
  16.2370012 130.6904997  47.9669988  16.0820012 131.3684997  47.3099988
  17.1700012 130.7624997  48.1699988  16.3418500 130.7930170  47.9045119
   3.7330012 114.8084997  46.7039988   3.5040012 114.8674997  45.7759988
   3.2900012 114.0164997  47.0099988   3.6418530 114.7095753  46.6184786
   2.6630012 128.7484997  42.8639988   1.8310012 129.2214997  42.8919988
   3.2090012 129.2584997  42.2659988   2.6229739 128.8821871  42.7869716
   1.9510012 131.3614997  54.1939988   2.4920012 131.1444997  54.9539988
   1.4700012 130.5554997  54.0049988   1.9599345 131.2229514  54.2723076
   6.5490012 130.2804997  55.8149988   7.3160012 129.8214997  56.1559988
   6.5270012 130.0544997  54.8849988   6.6511434 130.1870409  55.7360043
  10.6410012 129.7884997  37.1899988   9.9970012 129.1574997  37.5109988
  11.4030012 129.2574997  36.9579988  10.6558077 129.6302920  37.2026011
  13.1260012 128.6604997  54.5439988  12.7750012 127.8044997  54.7869988
  13.8520012 128.8034997  55.1509988  13.1760769 128.5625636  54.6593619
  15.2450012 129.6054997  37.4239988  15.5280012 128.8114997  37.8759988
  15.9850012 129.8384997  36.8629988  15.3837486 129.5282803  37.4100698
   1.8580012 125.1714997  55.1489988   2.0020012 124.2694997  54.8619988
   1.0860012 125.4574997  54.6609988   1.7733322 125.0868261  55.0437881
   6.2000012 125.5154997  37.2809988   6.2640012 124.7214997  37.8119988
   6.8530012 125.3964997  36.5909988   6.2970241 125.3907148  37.2604317
   8.5140012 125.1414997  54.5809988   8.1850012 125.4124997  53.7239988
   8.6660012 124.2004997  54.4939988   8.4894809 125.0513862  54.4518244
  11.5520012 126.5624997  37.0169988  11.2830012 126.7424997  37.9179988
  11.3460012 125.6364997  36.8859988  11.4873825 126.4620152  37.1225214
  14.2480012 125.0574997  51.9649988  14.9940012 125.6454997  51.8449988
  13.4910012 125.6394997  52.0279988  14.2477554 125.2167011  51.9570907
   2.6910012 122.3714997  54.5689988   3.0990012 121.5144997  54.4479988
   2.4310012 122.3864997  55.4899988   2.7117568 122.2560807  54.6769588
   7.3490012 123.4874997  39.5869988   6.8890012 123.0034997  40.2729988
   7.6040012 122.8194997  38.9509988   7.3204902 123.3308731  39.5949334
   6.6380012 121.3804997  51.9429988   6.0200012 122.0554997  52.2229988
   6.9820012 121.7014997  51.1099988   6.5999615 121.5162721  51.8686581
   8.4200012 121.7304997  37.8489988   8.2400012 121.5764997  36.9219988
   9.3700012 121.8384997  37.8939988   8.5237776 121.7240175  37.7281843
  11.6580012 123.8524997  55.2199988  12.6110012 123.9354997  55.1929988
  11.4970012 123.1404997  55.8399988  11.7666426 123.7676746  55.3000579
  17.8100012 124.0854997  37.2949988  17.5360012 123.6604997  36.4819988
  17.8490012 125.0164997  37.0779988  17.7777699 124.1532484  37.1543610
   6.9770012 118.7354997  53.0249988   7.1270012 118.0064997  52.4229988
   6.9800012 119.5124997  52.4659988   6.9979302 118.7407851  52.8670692
   7.3900012 117.1054997  50.5179988   7.9260012 117.5564997  49.8659988
   6.5380012 116.9974997  50.0949988   7.3482178 117.1526390  50.3715756
   8.9720012 122.5444997  50.7569988   9.7220012 122.3884997  50.1839988
   8.6330012 123.3964997  50.4819988   9.0288921 122.6382968  50.6413561
  13.3870012 120.3594997  55.7859988  13.5800012 119.4284997  55.6739988
  14.2450012 120.7844997  55.7759988  13.5293020 120.2896389  55.7693361
  14.7040012 123.1484997  53.8629988  14.4230012 123.8574997  53.2859988
  15.6470012 123.0754997  53.7119988  14.7929027 123.2357646  53.7635551
   5.4560012 119.9334997  54.9369988   4.6890012 119.4014997  54.7269988
   6.1350012 119.6234997  54.3369988   5.4427022 119.8187506  54.8271648
   8.1960012 114.5614997  50.9489988   8.0970012 115.5084997  50.8439988
   7.4530012 114.1894997  50.4739988   8.0820564 114.6405902  50.8704560
   9.4600012 118.8834997  54.5129988   9.2240012 118.6634997  55.4149988
   8.6760012 118.6764997  54.0029988   9.3218628 118.8254760  54.5673932
  12.1750012 118.0104997  53.5889988  11.2280012 118.0424997  53.7209988
  12.4880012 117.3854997  54.2419988  12.0875475 117.9303207  53.6954455
  13.8090012 116.6444997  55.5939988  13.7130012 115.6924997  55.5879988
  13.4880012 116.9134997  56.4539988  13.7524070 116.5504035  55.7095441
   3.6360012 117.8544997  54.6409988   3.8480012 117.1474997  54.0309988
   3.5250012 117.4164997  55.4849988   3.6499721 117.6987084  54.6716843
   8.4170012 113.8554997  53.6209988   9.1290012 113.2154997  53.6069988
   8.3160012 114.1224997  52.7069988   8.5007939 113.8039938  53.4955650
   8.7710012 115.5384997  55.6739988   8.6390012 115.0624997  54.8539988
   8.1720012 116.2824997  55.6189988   8.6719071 115.5739618  55.5542886
   8.3170012 132.4214997  38.8509988   9.2500012 132.5794997  38.9939988
   8.0530012 133.0964997  38.2259988   8.4089510 132.5343611  38.7860741
   1.8860012 127.0574997  38.3329988   2.8000012 127.1364997  38.6069988
   1.8930012 126.3704997  37.6669988   2.0121131 126.9753961  38.2804393
   0.5350012 132.4504997  43.4109988  -0.1119988 131.9884997  42.8779988
   0.8890012 131.7784997  43.9929988   0.4943849 132.2964723  43.4167959
   1.4050012 130.5314997  45.2149988   1.0700012 129.6514997  45.3869988
   1.6270012 130.8764997  46.0799988   1.3891783 130.4577501  45.3554208
  18.9530012 131.3404997  48.1959988  18.9320012 131.5254997  49.1349988
  19.6440012 131.9094997  47.8549988  19.0434618 131.4426606  48.2783864
  18.5170012 130.9084997  51.1179988  18.0290012 130.1724997  50.7469988
  19.0660012 130.5144997  51.7959988  18.5244872 130.7546249  51.1589160
  16.9670012 126.6974997  55.7559988  16.1010012 126.5924997  56.1499988
  17.3440012 127.4564997  56.2019988  16.8993308 126.7856900  55.8702393
  18.2680012 124.9544997  41.2699988  19.1180012 125.3754997  41.3969988
  18.2740012 124.2144997  41.8769988  18.3851372 124.9120803  41.3694344
  18.6630012 123.0074997  43.0939988  17.9360012 122.5284997  43.4909988
  19.2440012 123.2134997  43.8259988  18.6419375 122.9697090  43.2474129
  18.4220012 125.7924997  48.0409988  19.2550012 125.4144997  47.7609988
  18.5340012 126.7354997  47.9219988  18.5512647 125.8682218  47.9865487
  16.9080012 128.6704997  50.3479988  16.2610012 128.9954997  50.9739988
  16.3910012 128.2304997  49.6739988  16.7494029 128.6555004  50.3425827
  18.9310012 122.9084997  39.4849988  18.4090012 123.2654997  38.7659988
  18.8980012 123.5834997  40.1629988  18.8551634 123.0485413  39.4783145
  17.2800012 120.1484997  38.0359988  17.3760012 120.8154997  37.3549988
  17.1400012 119.3324997  37.5539988  17.2742135 120.1294500  37.8778491
  16.4490012 121.5284997  43.6569988  16.2990012 120.5834997  43.6359988
  16.0960012 121.8094997  44.4999988  16.3806625 121.4370441  43.7682346
   1.4850012 123.6064997  47.6669988   1.6690012 123.5244997  46.7309988
   2.3340012 123.4824997  48.0909988   1.6250139 123.5785003  47.5961455
  17.3060012 123.4984997  53.2949988  17.8890012 122.7644997  53.4869988
  17.8700012 124.2704997  53.3419988  17.4619769 123.5024227  53.3276159
  18.8020012 121.4014997  53.9799988  17.9390012 121.0224997  53.8139988
  19.4070012 120.6624997  53.9059988  18.7655979 121.2498023  53.9472817
  16.5270012 117.5564997  37.1529988  17.1380012 117.1854997  37.7899988
  15.6910012 117.1354997  37.3489988  16.4975032 117.4487554  37.2667035
  16.1600012 119.1114997  42.1189988  16.4400012 118.2044997  42.2429988
  16.9190012 119.5454997  41.7299988  16.3009277 119.0460942  42.0833682
  16.7720012 119.6924997  47.5549988  17.7050012 119.9044997  47.5209988
  16.5370012 119.7944997  48.4769988  16.8678036 119.7352769  47.6749976
  16.8010012 120.4294997  50.3309988  15.9580012 120.6974997  50.6969988
  17.2430012 121.2514997  50.1199988  16.7454158 120.5773291  50.3525491
   1.0820012 118.8774997  53.8079988   2.0020012 118.7554997  54.0439988
   0.6330012 118.1274997  54.1969988   1.1471580 118.7593727  53.8929006
  19.0840012 114.4094997  55.6839988  19.4340012 113.7554997  55.0789988
  19.2310012 115.2464997  55.2449988  19.1518419 114.4331591  55.5417118
  16.7730012 116.3744997  42.1669988  16.9560012 115.9254997  42.9929988
  16.1740012 115.7894997  41.7039988  16.7170202 116.2339975  42.2173275
   2.3030012 117.1894997  46.6989988   2.7490012 116.3974997  47.0009988
   2.7700012 117.9054997  47.1299988   2.4270172 117.1780624  46.7984820
   0.6070012 120.1884997  47.7679988   1.0990012 119.9674997  46.9769988
   0.9700012 121.0294997  48.0489988   0.7233126 120.2718357  47.6977531
  18.6040012 116.5184997  54.0339988  17.6860012 116.7894997  53.9979988
  18.7270012 115.9834997  53.2489988  18.4951066 116.4832892  53.9230487
  18.6400012 116.4414997  38.6949988  19.0520012 115.7204997  38.2199988
  19.3220012 117.1114997  38.7539988  18.7885885 116.4332368  38.6378915
   0.9210012 116.4464997  41.8219988  -0.0039988 116.6554997  41.6929988
   1.3750012 116.9304997  41.1329988   0.8557368 116.5405993  41.7111226
  15.6920012 131.4304997  43.7679988  16.3440012 131.0834997  43.1599988
  16.2020012 131.9194997  44.4139988  15.8502637 131.4490597  43.7720236
   0.8850012 115.1844997  50.1669988   0.2200012 114.9384997  50.8099988
   0.4420012 115.8064997  49.5889988   0.7340956 115.2348632  50.1769352
   3.0770012 128.3594997  54.3109988   2.2560012 128.5344997  53.8509988
   2.8240012 128.2864997  55.2319988   2.9306164 128.3735622  54.3724923
   6.0310012 129.3344997  50.5699988   5.6060012 130.1434997  50.2869988
   6.9350012 129.4194997  50.2679988   6.0950271 129.4568469  50.4903776
  10.3420012 130.7334997  53.5289988  10.5270012 130.3994997  54.4069988
  11.1880012 131.0424997  53.2069988  10.4817539 130.7296047  53.6055605
  12.6870012 132.0194997  52.7729988  13.3640012 131.3864997  52.5329988
  13.0090012 132.4204997  53.5799988  12.8231637 131.9871154  52.8492793
  17.6040012 114.6084997  51.8529988  16.7920012 114.9334997  51.4649988
  17.8370012 113.8484997  51.3199988  17.5243423 114.5502436  51.7278253
   3.4330012 132.5904997  50.6169988   2.7120012 133.0304997  50.1659988
   3.0670012 132.3394997  51.4659988   3.2849804 132.6167698  50.6699840
   5.9000012 132.1904997  49.6469988   5.0350012 132.2624997  50.0509988
   5.8450012 132.7374997  48.8629988   5.7742085 132.2742685  49.5963362
  10.6100012 132.0784997  48.8219988  10.1540012 132.6074997  48.1679988
  10.7730012 132.6814997  49.5479988  10.5695585 132.2324468  48.8305062
  12.9380012 130.9564997  49.7669988  12.0330012 131.1214997  49.5019988
  13.3670012 131.8094997  49.7019988  12.8720799 131.0944483  49.7219182
  15.5420012 132.5264997  50.0619988  15.3600012 133.4424997  49.8519988
  15.7190012 132.1164997  49.2159988  15.5410210 132.5964822  49.9187885
   2.8470012 131.2134997  47.5269988   2.8290012 130.7884997  48.3849988
   3.6520012 130.8954997  47.1189988   2.9533875 131.1123812  47.5891655
   4.9890012 129.9234997  46.1819988   4.7700012 129.0074997  46.3519988
   5.8130012 130.0634997  46.6479988   5.0704420 129.8170520  46.2682774
   7.5260012 130.3934997  47.0309988   7.7390012 129.5054997  46.7439988
   7.5900012 130.3594997  47.9849988   7.5638231 130.2673102  47.1207397
  11.0340012 116.0574997  46.1749988  10.3600012 115.4284997  46.4309988
  11.5980012 115.5734997  45.5719988  11.0179230 115.9058744  46.1285340
  16.1770012 114.1654997  46.2879988  16.7810012 114.7124997  45.7859988
  15.3070012 114.4844997  46.0479988  16.1421241 114.2835806  46.1867654
  17.9040012 115.3034997  44.6209988  18.5160012 114.7894997  44.0949988
  18.2860012 116.1814997  44.6449988  18.0394540 115.3517140  44.5521830
   3.3610012 114.6914997  43.9969988   2.5840012 114.4574997  43.4899988
   3.8910012 113.8944997  44.0059988   3.3262330 114.5516988  43.9287742
   2.1970012 114.4894997  39.8009988   2.6360012 115.1004997  39.2089988
   1.5640012 115.0274997  40.2749988   2.1714514 114.6459257  39.7840930
   7.9400012 114.6184997  43.8109988   8.8150012 115.0064997  43.7809988
   7.8040012 114.4034997  44.7329988   8.0413695 114.6425184  43.9316440
  13.4970012 114.6484997  45.4599988  13.5730012 114.7434997  44.5099988
  13.2220012 113.7404997  45.5889988  13.4702321 114.5387867  45.3475079
  14.8500012 114.6744997  41.1519988  14.1480012 115.2894997  40.9429988
  14.4060012 113.8364997  41.2829988  14.6936330 114.6455783  41.1410328
   2.0980012 130.4374997  40.6989988   1.4130012 130.3994997  40.0309988
   2.1020012 131.3504997  40.9869988   2.0048193 130.5557016  40.6465284
   4.0580012 116.4054997  38.2429988   4.5500012 115.7754997  37.7159988
   4.6820012 116.7014997  38.9069988   4.2095446 116.3593199  38.2605980
   9.0840012 116.6984997  40.6999988   9.2620012 116.0524997  41.3829988
   9.0310012 117.5324997  41.1679988   9.1011829 116.7227985  40.8565940
  10.9630012 131.6474997  39.0959988  11.8290012 132.0134997  38.9179988
  10.7160012 131.2074997  38.2819988  11.0482392 131.6381756  38.9616289
  17.6720012 131.2104997  41.7749988  17.4770012 130.4624997  41.2099988
  17.6330012 131.9684997  41.1919988  17.6400380 131.2106099  41.6188384
   3.3190012 115.2054997  53.5149988   2.9530012 114.4404997  53.9579988
   4.2320012 115.2344997  53.8019988   3.3922790 115.1047224  53.6144070
   5.2920012 114.5564997  55.0509988   6.1900012 114.2824997  54.8659988
   4.9050012 113.8134997  55.5149988   5.3626612 114.4185914  55.0883643
   3.9160012 131.3574997  37.7239988   3.6490012 131.6444997  38.5969988
   4.6880012 130.8114997  37.8759988   3.9837488 131.3230294  37.8641050
  13.7130012 113.8884997  55.2329988  13.7900012 113.4624997  56.0869988
  14.6070012 113.9024997  54.8899988  13.8443428 113.8320880  55.3035310
  16.8890012 129.9614997  53.9249988  16.1070012 129.7754997  53.4059988
  16.8170012 130.8904997  54.1429988  16.7721777 130.0616492  53.8834048
  31.2950012 123.8474997  43.9559988  31.3840012 124.7914997  43.8239988
  30.6570012 123.5724997  43.2979988  31.2209081 123.9394830  43.8489614
  30.2280012 123.1024997  47.3749988  30.1900012 122.4564997  48.0799988
  29.9060012 122.6364997  46.6039988  30.1792333 122.9509408  47.3672978
  22.5970012 122.7174997  48.9679988  22.6380012 122.0914997  49.6909988
  23.3000012 123.3414997  49.1499988  22.6976363 122.7161196  49.0916044
  33.9340012 126.0414997  45.6759988  33.4940012 125.3214997  46.1269988
  33.9210012 126.7624997  46.3059988  33.8720226 126.0403731  45.8228494
  23.5200012 127.1674997  47.5029988  23.1510012 126.3654997  47.1329988
  24.4610012 126.9984997  47.5489988  23.5967289 127.0350153  47.4586316
  20.1300012 120.8274997  42.8959988  19.6830012 121.6734997  42.8769988
  19.5690012 120.2474997  42.3799988  19.9929900 120.8649916  42.8236801
  20.8410012 122.9894997  45.0219988  21.0540012 122.2194997  45.5489988
  21.5790012 123.0784997  44.4179988  20.9698496 122.8961394  45.0125300
  31.0460012 131.1464997  45.8889988  31.6660012 130.4694997  45.6149988
  30.8380012 130.9284997  46.7969988  31.1026904 131.0243870  45.9743365
  28.6180012 125.5354997  47.7809988  28.9220012 124.8494997  47.1859988
  29.3390012 125.6534997  48.3989988  28.7570671 125.4576305  47.7831816
  37.2810012 117.1364997  48.6419988  37.3300012 117.7464997  49.3779988
  37.7060012 117.5974997  47.9189988  37.3451824 117.2823741  48.6450205
  31.7590012 119.9294997  48.1089988  31.9010012 118.9834997  48.1289988
  31.6520012 120.1364997  47.1799988  31.7639864 119.8279534  47.9862339
  24.9130012 118.0304997  45.3809988  24.9570012 118.8904997  44.9629988
  24.4560012 117.4784997  44.7469988  24.8572185 118.0735799  45.2380299
  32.6360012 118.1614997  43.7819988  33.2820012 117.8324997  44.4069988
  33.1460012 118.6794997  43.1589988  32.7934264 118.1864611  43.7833862
  21.5340012 120.4274997  46.1429988  22.1870012 119.8774997  46.5749988
  21.5580012 120.1534997  45.2259988  21.6266683 120.3151466  46.0782123
  26.6900012 121.9774997  45.3579988  27.3060012 121.4514997  45.8679988
  26.1040012 121.3374997  44.9549988  26.6950810 121.8189208  45.3733173
  37.6720012 118.6144997  50.8779988  36.9840012 119.2724997  50.7819988
  37.6880012 118.4174997  51.8139988  37.5798525 118.6780462  50.9914808
  23.7240012 116.9484997  49.4549988  23.5050012 117.4784997  48.6889988
  23.0560012 117.1754997  50.1019988  23.6037600 117.0516906  49.4376379
  31.0930012 126.4484997  42.9989988  30.7970012 126.1264997  42.1479988
  30.7680012 127.3484997  43.0399988  31.0086371 126.5260215  42.8881801
  26.2930012 124.6244997  49.7419988  25.5530012 125.2224997  49.8459988
  27.0070012 125.1784997  49.4269988  26.2882237 124.7812831  49.7136465
  34.4000012 117.4524997  45.7619988  34.1840012 116.6864997  46.2949988
  35.0550012 117.9244997  46.2749988  34.4590632 117.4115889  45.9042861
  23.3170012 118.8404997  47.4069988  23.9310012 119.4734997  47.7809988
  23.8290012 118.3684997  46.7509988  23.4702296 118.8632370  47.3694252
  24.7000012 126.5884997  50.5299988  24.6950012 127.4684997  50.1519988
  23.8470012 126.5054997  50.9549988  24.5839464 126.6976117  50.5357907
  20.8210012 126.2594997  41.3119988  20.5490012 126.4884997  40.4229988
  20.8670012 127.0974997  41.7719988  20.7900094 126.4041213  41.2525697
  34.4460012 127.8814997  48.0239988  33.5050012 127.9394997  48.1859988
  34.7230012 128.7874997  47.8869988  34.3544679 128.0119443  48.0276815
  34.7470012 116.1674997  49.4419988  34.0110012 116.7784997  49.4039988
  35.4300012 116.5824997  48.9149988  34.7386541 116.3071374  49.3655832
  27.7500012 114.2544997  46.9079988  27.6330012 113.3054997  46.8529988
  26.8950012 114.5864997  47.1809988  27.6183733 114.1695409  46.9373897
  32.6980012 129.6624997  44.6499988  33.1240012 128.9554997  44.1649988
  33.0150012 130.4634997  44.2329988  32.7991019 129.6740994  44.5273130
  33.8580012 127.5634997  43.1579988  33.6000012 126.8734997  42.5469988
  33.9290012 127.1204997  44.0039988  33.8322856 127.4092124  43.1886885
  35.5440012 126.1294997  51.6359988  35.6840012 125.5384997  50.8959988
  35.7110012 127.0024997  51.2789988  35.5856778 126.1666426  51.4866965
  30.0170012 123.0914997  41.4079988  29.3050012 123.6264997  41.0559988
  30.7080012 123.1474997  40.7479988  30.0130132 123.1722543  41.2706289
  30.0700012 121.5494997  38.4469988  30.7710012 121.5714997  39.0979988
  30.3730012 120.9214997  37.7909988  30.2067830 121.4676566  38.4473711
  37.3860012 122.4694997  49.7019988  36.7330012 123.1644997  49.7909988
  37.8510012 122.6794997  48.8919988  37.3595390 122.5929425  49.6046883
  33.4220012 123.3014997  42.3599988  32.6900012 123.5294997  42.9329988
  33.8700012 122.5874997  42.8149988  33.3823095 123.2362571  42.4999119
  33.3200012 121.4754997  51.4269988  33.4000012 122.2384997  51.9989988
  32.7180012 121.7544997  50.7369988  33.2495756 121.6177134  51.4120589
  25.0680012 123.9314997  44.2419988  24.7370012 123.5614997  43.4239988
  25.6560012 123.2614997  44.5889988  25.1021873 123.7901156  44.1768102
  26.4340012 127.3594997  46.9239988  26.3400012 126.7814997  46.1669988
  27.1640012 126.9884997  47.4199988  26.5197981 127.2302390  46.8874165
  25.4340012 122.7004997  47.8759988  26.0000012 122.8214997  47.1129988
  25.7530012 123.3374997  48.5149988  25.5545786 122.8031884  47.8580040
  31.7430012 128.2034997  48.6099988  31.5030012 128.8654997  49.2579988
  31.5450012 127.3694997  49.0349988  31.6833808 128.1813134  48.7561524
  26.3140012 127.0994997  52.5929988  26.0030012 127.8814997  53.0479988
  25.6640012 126.9464997  51.9069988  26.1835558 127.1859105  52.5625871
  32.2930012 122.4634997  40.0449988  32.8730012 122.6134997  40.7919988
  32.7070012 122.9344997  39.3219988  32.4282830 122.5476841  40.0494134
  23.2340012 123.2974997  51.8219988  23.3050012 123.9484997  52.5199988
  22.3440012 123.4004997  51.4869988  23.1233117 123.4005936  51.8722700
  30.0200012 129.2004997  43.4799988  30.4940012 129.4954997  44.2579988
  29.4570012 129.9384997  43.2469988  30.0087653 129.3406932  43.5550136
  24.5540012 129.1714997  53.3559988  24.5610012 129.0354997  52.4089988
  23.6380012 129.0534997  53.6079988  24.4311714 129.1369430  53.2604666
  35.9920012 114.2134997  39.8579988  35.0920012 114.3524997  40.1529988
  36.2440012 115.0444997  39.4559988  35.9028702 114.3449074  39.8440205
  24.0580012 123.0014997  41.8319988  23.7660012 123.7694997  41.3409988
  23.3840012 122.3414997  41.6689988  23.9269081 123.0174406  41.7427340
  37.1810012 128.5794997  38.2339988  37.2550012 129.5184997  38.4049988
  38.0870012 128.2744997  38.1779988  37.3135100 128.6666722  38.2498119
  20.1510012 125.3644997  50.6469988  19.6500012 125.3364997  49.8319988
  20.1560012 124.4584997  50.9559988  20.0831526 125.2382278  50.5772872
  19.9010012 128.1444997  47.5309988  20.8470012 128.0004997  47.5119988
  19.7890012 128.9284997  48.0679988  20.0152727 128.2308046  47.6010072
  38.0990012 128.8104997  53.2129988  38.0500012 127.8554997  53.1759988
  37.2720012 129.0784997  53.6139988  37.9804940 128.7158998  53.2621375
  29.0780012 128.3844997  52.0889988  29.1650012 129.2104997  52.5639988
  28.2140012 128.0544997  52.3379988  28.9731964 128.4529878  52.1876549
  29.4920012 132.1564997  41.8949988  29.4170012 132.0354997  40.9489988
  29.5250012 133.1064997  42.0139988  29.4861848 132.2682500  41.7814834
  23.1450012 130.9454997  43.6759988  23.2980012 130.5974997  44.5549988
  22.2950012 130.5894997  43.4209988  23.0508962 130.8496650  43.7618340
  32.5940012 131.3104997  38.8969988  32.9690012 130.5664997  38.4269988
  32.5980012 131.0404997  39.8159988  32.6458915 131.1721486  38.9567824
  32.2630012 131.2364997  41.6469988  31.3270012 131.3364997  41.8249988
  32.5430012 130.5274997  42.2249988  32.1728255 131.1542711  41.7495391
  35.2510012 120.3034997  53.6929988  34.8440012 120.7844997  52.9719988
  35.2920012 119.3984997  53.3849988  35.2008437 120.2469374  53.5526683
  22.4000012 126.6874997  51.6899988  22.6160012 126.3264997  52.5489988
  21.5450012 126.3134997  51.4799988  22.3139292 126.5874111  51.7793386
  25.0190012 115.1574997  47.6849988  24.1570012 115.0704997  47.2779988
  24.9960012 116.0134997  48.1129988  24.8980330 115.2612765  47.6871863
  29.6820012 114.8794997  51.0599988  30.1020012 114.4644997  51.8129988
  28.7490012 114.7014997  51.1769988  29.6133644 114.7985900  51.1789539
  33.0080012 118.6354997  51.9129988  32.4940012 118.5094997  52.7109988
  32.8530012 119.5474997  51.6689988  32.9166852 118.7416132  51.9892158
  33.7710012 123.4964997  37.6749988  33.8130012 123.2734997  36.7449988
  34.6200012 123.8954997  37.8649988  33.8915396 123.5199155  37.5733627
  29.3430012 117.3724997  38.3449988  29.0900012 117.3914997  39.2679988
  29.0870012 116.5004997  38.0439988  29.2737790 117.2572437  38.4306263
  25.1100012 120.1234997  48.7799988  24.4680012 120.0824997  49.4889988
  25.1470012 121.0494997  48.5429988  25.0271324 120.2431559  48.8449824
  25.1070012 120.3444997  43.6919988  24.2140012 120.0034997  43.6339988
  25.5570012 119.9674997  42.9369988  25.0457305 120.2468484  43.5819177
  30.6420012 120.7604997  42.5089988  30.2330012 121.5754997  42.2179988
  31.3630012 120.6204997  41.8949988  30.6834537 120.8532018  42.3861342
  29.7440012 120.9354997  53.9969988  29.1820012 120.2314997  54.3179988
  30.5710012 120.8154997  54.4649988  29.7787095 120.8227883  54.1042330
  31.6470012 120.2064997  45.3229988  31.4520012 120.8114997  44.6079988
  31.8280012 119.3724997  44.8889988  31.6447614 120.1766300  45.1664405
  22.8600012 120.4434997  50.6469988  22.8220012 120.8434997  51.5159988
  22.3690012 119.6264997  50.7379988  22.7884684 120.3878069  50.7781059
  26.2260012 117.8174997  37.4459988  25.7950012 117.3724997  38.1759988
  25.5080012 118.1894997  36.9339988  26.0699438 117.8068940  37.4766799
  19.4680012 117.5594997  44.4979988  20.0990012 117.5304997  45.2169988
  19.9170012 117.1344997  43.7679988  19.6150774 117.4980492  44.4976553
  20.7420012 118.3054997  39.9219988  21.2160012 118.8964997  39.3369988
  20.0250012 118.8364997  40.2689988  20.7099341 118.4580867  39.8888836
  30.9110012 121.8444997  49.9949988  31.2340012 121.2134997  49.3519988
  30.4710012 121.3094997  50.6549988  30.8956895 121.6858441  49.9962850
  27.6880012 117.7714997  44.7789988  26.7770012 117.8284997  45.0669988
  28.1940012 117.7114997  45.5889988  27.6315413 117.7711985  44.9280622
  22.5170012 119.4004997  43.6049988  21.6270012 119.5004997  43.2649988
  22.8130012 118.5584997  43.2589988  22.4352823 119.3003545  43.5117213
  26.1700012 119.4004997  41.2619988  27.1010012 119.5294997  41.4399988
  25.9550012 120.0704997  40.6119988  26.2684247 119.5086565  41.1985747
  32.0930012 117.0064997  48.0429988  31.4170012 117.1374997  48.7069988
  31.6080012 116.8514997  47.2329988  31.9347145 117.0034905  48.0244517
  24.8440012 120.5954997  38.8289988  24.3010012 120.2154997  38.1369988
  25.6770012 120.7894997  38.3999988  24.8824399 120.5698124  38.6764526
  35.3810012 132.6784997  54.3199988  35.5810012 133.1024997  53.4849988
  36.0360012 133.0214997  54.9269988  35.4970051 132.7829648  54.2877836
  22.9790012 125.1524997  53.9279988  23.7110012 125.4064997  54.4889988
  22.1990012 125.3564997  54.4429988  22.9738232 125.2149177  54.0745760
  29.0080012 120.5594997  46.6659988  29.5730012 120.0124997  46.1189988
  28.8610012 120.0374997  47.4539988  29.0652918 120.4142024  46.6978454
  24.0100012 116.6954997  43.0839988  23.6930012 115.7934997  43.0489988
  24.7920012 116.6974997  42.5309988  24.0722284 116.5721628  43.0044783
  27.6350012 118.9474997  49.0799988  26.7990012 119.4014997  49.1899988
  28.1590012 119.2234997  49.8319988  27.5914414 119.0469376  49.1967136
  28.1790012 125.1604997  40.7639988  27.4340012 124.6534997  40.4419988
  28.0450012 125.2094997  41.7109988  28.0588776 125.0976940  40.8478647
  35.3290012 124.2934997  49.5509988  35.9710012 124.7504997  49.0069988
  34.4990012 124.4064997  49.0879988  35.3045963 124.3712704  49.4140177
  32.0770012 117.9744997  38.9639988  31.1380012 118.0864997  38.8119988
  32.3740012 118.8314997  39.2699988  31.9887666 118.1056443  38.9845768
  29.6980012 125.3444997  52.0009988  29.3530012 124.9634997  52.8079988
  29.4980012 126.2784997  52.0729988  29.6238061 125.4185228  52.1210961
  32.7950012 119.8414997  40.6239988  33.6870012 119.7044997  40.9429988
  32.8520012 120.6324997  40.0879988  32.9246285 119.9296660  40.5951691
  23.3040012 124.4554997  46.5339988  24.0490012 124.4534997  45.9329988
  23.3820012 123.6324997  47.0159988  23.4165518 124.3439315  46.5168929
  30.3050012 126.6194997  39.7899988  30.0090012 127.4454997  40.1709988
  29.6020012 125.9994997  39.9859988  30.1694914 126.6488199  39.8686443
  20.3120012 122.9164997  51.8489988  20.5350012 122.4984997  52.6809988
  19.7100012 122.3034997  51.4259988  20.2611759 122.7764668  51.9057022
  27.3280012 122.4334997  54.0619988  27.0320012 122.2674997  53.1669988
  28.2600012 122.2134997  54.0509988  27.4134166 122.3810640  53.9380536
  31.9490012 127.8064997  51.9519988  31.0480012 127.9894997  51.6839988
  31.9830012 128.0654997  52.8729988  31.8303041 127.8665512  52.0398197
  37.6800012 120.0514997  40.3189988  37.1260012 119.6554997  39.6469988
  37.7800012 120.9614997  40.0409988  37.6177059 120.1203586  40.1894401
  37.6430012 125.8514997  53.1559988  36.7920012 126.0894997  52.7889988
  38.2340012 125.8344997  52.4029988  37.6062487 125.8818258  53.0038893
  35.9750012 128.8374997  40.7839988  35.6020012 128.0114997  41.0929988
  36.2530012 128.6544997  39.8869988  35.9615630 128.6997303  40.7049626
  33.1360012 123.6454997  47.8049988  32.2070012 123.4134997  47.7779988
  33.5870012 122.8684997  47.4749988  33.0699216 123.5087238  47.7566917
  25.6790012 127.9734997  43.9379988  26.2060012 128.7464997  43.7379988
  24.7990012 128.1984997  43.6369988  25.6321773 128.1098005  43.8699010
  21.4340012 122.8354997  38.5249988  22.0500012 123.4624997  38.9049988
  20.5720012 123.1514997  38.7969988  21.4017698 122.9639430  38.6137183
  27.1060012 125.6364997  43.5149988  26.8650012 126.5614997  43.5559988
  26.3650012 125.1774997  43.9109988  26.9728409 125.7011421  43.5741377
  27.6210012 129.7854997  49.8299988  27.9830012 130.6404997  49.5959988
  28.1520012 129.4934997  50.5699988  27.7424473 129.8631060  49.8980855
  25.7890012 130.6584997  43.0599988  24.8390012 130.7634997  43.1109988
  26.1410012 131.4784997  43.4049988  25.7064203 130.7838314  43.1136650
  31.1650012 125.8844997  49.5299988  30.7390012 125.6574997  50.3569988
  31.7450012 125.1464997  49.3479988  31.1851868 125.7535299  49.6185830
  33.3680012 126.8134997  38.6039988  33.7210012 126.4334997  39.4089988
  32.4190012 126.7204997  38.6909988  33.2880441 126.7489596  38.7258559
  33.8230012 130.4364997  51.9999988  33.2220012 129.8814997  51.5039988
  34.1050012 131.1034997  51.3739988  33.7788519 130.4506841  51.8474952
  37.8710012 131.2934997  38.8049988  38.6150012 131.8794997  38.6649988
  37.1770012 131.8614997  39.1389988  37.8790292 131.4505582  38.8309961
  21.9460012 117.6694997  51.4069988  21.0530012 118.0084997  51.3389988
  21.8470012 116.8144997  51.8249988  21.8104164 117.6002588  51.4542235
  34.2340012 125.4864997  40.8309988  33.9560012 124.7584997  41.3869988
  35.1610012 125.6054997  41.0359988  34.3213124 125.4028802  40.9348845
  21.5970012 129.4744997  49.8419988  21.8140012 128.5424997  49.8109988
  21.8430012 129.7484997  50.7249988  21.6599549 129.3840636  49.9571763
  27.4590012 127.9254997  37.0509988  27.6980012 127.1774997  36.5039988
  27.1900012 127.5374997  37.8839988  27.4553675 127.7706638  37.0886865
  26.3960012 127.4954997  39.5079988  26.5420012 126.9754997  40.2979988
  26.3930012 128.4024997  39.8139988  26.4155989 127.5468853  39.6576088
  22.8490012 124.7484997  40.0179988  22.1630012 125.1004997  40.5849988
  23.3710012 125.5114997  39.7709988  22.8256852 124.8998578  40.0622118
  30.6800012 117.4104997  50.2969988  31.3790012 117.4844997  50.9469988
  30.2990012 116.5464997  50.4509988  30.7241767 117.3037624  50.4068322
  31.4650012 117.0624997  41.3939988  31.6850012 117.5344997  40.5909988
  32.0230012 117.4574997  42.0639988  31.5704968 117.1804285  41.3747331
  29.1330012 129.1934997  40.2569988  28.3170012 129.6904997  40.3089988
  29.6630012 129.6684997  39.6169988  29.0929161 129.3257722  40.1775956
  28.6650012 118.7904997  42.2289988  29.4770012 119.2954997  42.2749988
  28.4200012 118.6454997  43.1429988  28.7430520 118.8400375  42.3588517
  29.2000012 119.7764997  51.4139988  29.3190012 120.3504997  52.1709988
  29.8560012 119.0884997  51.5279988  29.3049757 119.7621079  51.5330825
  29.5480012 115.8714997  43.1669988  29.2020012 116.4894997  43.8119988
  30.2070012 116.3724997  42.6859988  29.5897826 116.0235802  43.1900971
  26.4720012 130.2374997  40.2389988  26.6320012 131.0364997  39.7379988
  26.2740012 130.5434997  41.1239988  26.4671649 130.3884469  40.2899815
  25.2060012 116.9344997  39.8539988  25.1230012 117.8234997  40.2009988
  26.0960012 116.6694997  40.0859988  25.3149469 117.0201430  39.9327626
  35.4050012 117.6834997  52.2489988  34.4880012 117.9464997  52.1609988
  35.7400012 117.6804997  51.3519988  35.3249900 117.7190224  52.1157919
  34.0070012 121.4344997  46.3439988  33.2090012 121.0194997  46.0159988
  34.4520012 120.7434997  46.8349988  33.9579885 121.2843543  46.3654889
  23.4650012 127.3624997  38.9149988  24.0570012 128.0614997  39.1909988
  23.9240012 126.9294997  38.1949988  23.6081142 127.3997049  38.8554830
  21.7810012 120.0264997  38.0309988  21.7360012 120.9654997  38.2089988
  20.8930012 119.7904997  37.7609988  21.6548574 120.1231892  38.0188912
  35.0930012 130.6904997  47.9669988  34.9380012 131.3684997  47.3099988
  36.0260012 130.7624997  48.1699988  35.1978500 130.7930170  47.9045119
  22.5890012 114.8084997  46.7039988  22.3600012 114.8674997  45.7759988
  22.1460012 114.0164997  47.0099988  22.4978530 114.7095753  46.6184786
  21.5190012 128.7484997  42.8639988  20.6870012 129.2214997  42.8919988
  22.0650012 129.2584997  42.2659988  21.4789739 128.8821871  42.7869716
  20.8070012 131.3614997  54.1939988  21.3480012 131.1444997  54.9539988
  20.3260012 130.5554997  54.0049988  20.8159345 131.2229514  54.2723076
  25.4050012 130.2804997  55.8149988  26.1720012 129.8214997  56.1559988
  25.3830012 130.0544997  54.8849988  25.5071434 130.1870409  55.7360043
  29.4970012 129.7884997  37.1899988  28.8530012 129.1574997  37.5109988
  30.2590012 129.2574997  36.9579988  29.5118077 129.6302920  37.2026011
  31.9820012 128.6604997  54.5439988  31.6310012 127.8044997  54.7869988
  32.7080012 128.8034997  55.1509988  32.0320769 128.5625636  54.6593619
  34.1010012 129.6054997  37.4239988  34.3840012 128.8114997  37.8759988
  34.8410012 129.8384997  36.8629988  34.2397486 129.5282803  37.4100698
  20.7140012 125.1714997  55.1489988  20.8580012 124.2694997  54.8619988
  19.9420012 125.4574997  54.6609988  20.6293322 125.0868261  55.0437881
  25.0560012 125.5154997  37.2809988  25.1200012 124.7214997  37.8119988
  25.7090012 125.3964997  36.5909988  25.1530241 125.3907148  37.2604317
  27.3700012 125.1414997  54.5809988  27.0410012 125.4124997  53.7239988
  27.5220012 124.2004997  54.4939988  27.3454809 125.0513862  54.4518244
  30.4080012 126.5624997  37.0169988  30.1390012 126.7424997  37.9179988
  30.2020012 125.6364997  36.8859988  30.3433825 126.4620152  37.1225214
  33.1040012 125.0574997  51.9649988  33.8500012 125.6454997  51.8449988
  32.3470012 125.6394997  52.0279988  33.1037554 125.2167011  51.9570907
  21.5470012 122.3714997  54.5689988  21.9550012 121.5144997  54.4479988
  21.2870012 122.3864997  55.4899988  21.5677568 122.2560807  54.6769588
  26.2050012 123.4874997  39.5869988  25.7450012 123.0034997  40.2729988
  26.4600012 122.8194997  38.9509988  26.1764902 123.3308731  39.5949334
  25.4940012 121.3804997  51.9429988  24.8760012 122.0554997  52.2229988
  25.8380012 121.7014997  51.1099988  25.4559615 121.5162721  51.8686581
  27.2760012 121.7304997  37.8489988  27.0960012 121.5764997  36.9219988
  28.2260012 121.8384997  37.8939988  27.3797776 121.7240175  37.7281843
  30.5140012 123.8524997  55.2199988  31.4670012 123.9354997  55.1929988
  30.3530012 123.1404997  55.8399988  30.6226426 123.7676746  55.3000579
  36.6660012 124.0854997  37.2949988  36.3920012 123.6604997  36.4819988
  36.7050012 125.0164997  37.0779988  36.6337699 124.1532484  37.1543610
  25.8330012 118.7354997  53.0249988  25.9830012 118.0064997  52.4229988
  25.8360012 119.5124997  52.4659988  25.8539302 118.7407851  52.8670692
  26.2460012 117.1054997  50.5179988  26.7820012 117.5564997  49.8659988
  25.3940012 116.9974997  50.0949988  26.2042178 117.1526390  50.3715756
  27.8280012 122.5444997  50.7569988  28.5780012 122.3884997  50.1839988
  27.4890012 123.3964997  50.4819988  27.8848921 122.6382968  50.6413561
  32.2430012 120.3594997  55.7859988  32.4360012 119.4284997  55.6739988
  33.1010012 120.7844997  55.7759988  32.3853020 120.2896389  55.7693361
  33.5600012 123.1484997  53.8629988  33.2790012 123.8574997  53.2859988
  34.5030012 123.0754997  53.7119988  33.6489027 123.2357646  53.7635551
  24.3120012 119.9334997  54.9369988  23.5450012 119.4014997  54.7269988
  24.9910012 119.6234997  54.3369988  24.2987022 119.8187506  54.8271648
  27.0520012 114.5614997  50.9489988  26.9530012 115.5084997  50.8439988
  26.3090012 114.1894997  50.4739988  26.9380563 114.6405902  50.8704560
  28.3160012 118.8834997  54.5129988  28.0800012 118.6634997  55.4149988
  27.5320012 118.6764997  54.0029988  28.1778628 118.8254760  54.5673932
  31.0310012 118.0104997  53.5889988  30.0840012 118.0424997  53.7209988
  31.3440012 117.3854997  54.2419988  30.9435475 117.9303207  53.6954455
  32.6650012 116.6444997  55.5939988  32.5690012 115.6924997  55.5879988
  32.3440012 116.9134997  56.4539988  32.6084070 116.5504035  55.7095441
  22.4920012 117.8544997  54.6409988  22.7040012 117.1474997  54.0309988
  22.3810012 117.4164997  55.4849988  22.5059721 117.6987084  54.6716843
  27.2730012 113.8554997  53.6209988  27.9850012 113.2154997  53.6069988
  27.1720012 114.1224997  52.7069988  27.3567939 113.8039938  53.4955650
  27.6270012 115.5384997  55.6739988  27.4950012 115.0624997  54.8539988
  27.0280012 116.2824997  55.6189988  27.5279071 115.5739618  55.5542886
  27.1730012 132.4214997  38.8509988  28.1060012 132.5794997  38.9939988
  26.9090012 133.0964997  38.2259988  27.2649510 132.5343611  38.7860741
  20.7420012 127.0574997  38.3329988  21.6560012 127.1364997  38.6069988
  20.7490012 126.3704997  37.6669988  20.8681131 126.9753961  38.2804393
  19.3910012 132.4504997  43.4109988  18.7440012 131.9884997  42.8779988
  19.7450012 131.7784997  43.9929988  19.3503849 132.2964723  43.4167959
  20.2610012 130.5314997  45.2149988  19.9260012 129.6514997  45.3869988
  20.4830012 130.8764997  46.0799988  20.2451783 130.4577500  45.3554208
  37.8090012 131.3404997  48.1959988  37.7880012 131.5254997  49.1349988
  38.5000012 131.9094997  47.8549988  37.8994618 131.4426606  48.2783864
  37.3730012 130.9084997  51.1179988  36.8850012 130.1724997  50.7469988
  37.9220012 130.5144997  51.7959988  37.3804872 130.7546249  51.1589160
  35.8230012 126.6974997  55.7559988  34.9570012 126.5924997  56.1499988
  36.2000012 127.4564997  56.2019988  35.7553308 126.7856900  55.8702393
  37.1240012 124.9544997  41.2699988  37.9740012 125.3754997  41.3969988
  37.1300012 124.2144997  41.8769988  37.2411372 124.9120803  41.3694344
  37.5190012 123.0074997  43.0939988  36.7920012 122.5284997  43.4909988
  38.1000012 123.2134997  43.8259988  37.4979375 122.9697090  43.2474129
  37.2780012 125.7924997  48.0409988  38.1110012 125.4144997  47.7609988
  37.3900012 126.7354997  47.9219988  37.4072647 125.8682218  47.9865487
  35.7640012 128.6704997  50.3479988  35.1170012 128.9954997  50.9739988
  35.2470012 128.2304997  49.6739988  35.6054029 128.6555004  50.3425827
  37.7870012 122.9084997  39.4849988  37.2650012 123.2654997  38.7659988
  37.7540012 123.5834997  40.1629988  37.7111634 123.0485413  39.4783145
  36.1360012 120.1484997  38.0359988  36.2320012 120.8154997  37.3549988
  35.9960012 119.3324997  37.5539988  36.1302135 120.1294500  37.8778491
  35.3050012 121.5284997  43.6569988  35.1550012 120.5834997  43.6359988
  34.9520012 121.8094997  44.4999988  35.2366625 121.4370441  43.7682346
  20.3410012 123.6064997  47.6669988  20.5250012 123.5244997  46.7309988
  21.1900012 123.4824997  48.0909988  20.4810139 123.5785003  47.5961455
  36.1620012 123.4984997  53.2949988  36.7450012 122.7644997  53.4869988
  36.7260012 124.2704997  53.3419988  36.3179769 123.5024227  53.3276159
  37.6580012 121.4014997  53.9799988  36.7950012 121.0224997  53.8139988
  38.2630012 120.6624997  53.9059988  37.6215979 121.2498023  53.9472817
  35.3830012 117.5564997  37.1529988  35.9940012 117.1854997  37.7899988
  34.5470012 117.1354997  37.3489988  35.3535032 117.4487554  37.2667035
  35.0160012 119.1114997  42.1189988  35.2960012 118.2044997  42.2429988
  35.7750012 119.5454997  41.7299988  35.1569277 119.0460942  42.0833682
  35.6280012 119.6924997  47.5549988  36.5610012 119.9044997  47.5209988
  35.3930012 119.7944997  48.4769988  35.7238036 119.7352769  47.6749976
  35.6570012 120.4294997  50.3309988  34.8140012 120.6974997  50.6969988
  36.0990012 121.2514997  50.1199988  35.6014158 120.5773291  50.3525491
  19.9380012 118.8774997  53.8079988  20.8580012 118.7554997  54.0439988
  19.4890012 118.1274997  54.1969988  20.0031580 118.7593727  53.8929006
  37.9400012 114.4094997  55.6839988  38.2900012 113.7554997  55.0789988
  38.0870012 115.2464997  55.2449988  38.0078419 114.4331591  55.5417118
  35.6290012 116.3744997  42.1669988  35.8120012 115.9254997  42.9929988
  35.0300012 115.7894997  41.7039988  35.5730202 116.2339975  42.2173275
  21.1590012 117.1894997  46.6989988  21.6050012 116.3974997  47.0009988
  21.6260012 117.9054997  47.1299988  21.2830172 117.1780624  46.7984820
  19.4630012 120.1884997  47.7679988  19.9550012 119.9674997  46.9769988
  19.8260012 121.0294997  48.0489988  19.5793126 120.2718357  47.6977531
  37.4600012 116.5184997  54.0339988  36.5420012 116.7894997  53.9979988
  37.5830012 115.9834997  53.2489988  37.3511066 116.4832892  53.9230487
  37.4960012 116.4414997  38.6949988  37.9080012 115.7204997  38.2199988
  38.1780012 117.1114997  38.7539988  37.6445885 116.4332368  38.6378915
  19.7770012 116.4464997  41.8219988  18.8520012 116.6554997  41.6929988
  20.2310012 116.9304997  41.1329988  19.7117368 116.5405993  41.7111226
  34.5480012 131.4304997  43.7679988  35.2000012 131.0834997  43.1599988
  35.0580012 131.9194997  44.4139988  34.7062637 131.4490597  43.7720236
  19.7410012 115.1844997  50.1669988  19.0760012 114.9384997  50.8099988
  19.2980012 115.8064997  49.5889988  19.5900956 115.2348632  50.1769352
  21.9330012 128.3594997  54.3109988  21.1120012 128.5344997  53.8509988
  21.6800012 128.2864997  55.2319988  21.7866164 128.3735622  54.3724923
  24.8870012 129.3344997  50.5699988  24.4620012 130.1434997  50.2869988
  25.7910012 129.4194997  50.2679988  24.9510271 129.4568469  50.4903776
  29.1980012 130.7334997  53.5289988  29.3830012 130.3994997  54.4069988
  30.0440012 131.0424997  53.2069988  29.3377539 130.7296047  53.6055605
  31.5430012 132.0194997  52.7729988  32.2200012 131.3864997  52.5329988
  31.8650012 132.4204997  53.5799988  31.6791637 131.9871154  52.8492793
  36.4600012 114.6084997  51.8529988  35.6480012 114.9334997  51.4649988
  36.6930012 113.8484997  51.3199988  36.3803423 114.5502436  51.7278253
  22.2890012 132.5904997  50.6169988  21.5680012 133.0304997  50.1659988
  21.9230012 132.3394997  51.4659988  22.1409804 132.6167698  50.6699840
  24.7560012 132.1904997  49.6469988  23.8910012 132.2624997  50.0509988
  24.7010012 132.7374997  48.8629988  24.6302085 132.2742685  49.5963362
  29.4660012 132.0784997  48.8219988  29.0100012 132.6074997  48.1679988
  29.6290012 132.6814997  49.5479988  29.4255585 132.2324468  48.8305062
  31.7940012 130.9564997  49.7669988  30.8890012 131.1214997  49.5019988
  32.2230012 131.8094997  49.7019988  31.7280799 131.0944483  49.7219182
  34.3980012 132.5264997  50.0619988  34.2160012 133.4424997  49.8519988
  34.5750012 132.1164997  49.2159988  34.3970210 132.5964822  49.9187885
  21.7030012 131.2134997  47.5269988  21.6850012 130.7884997  48.3849988
  22.5080012 130.8954997  47.1189988  21.8093875 131.1123812  47.5891655
  23.8450012 129.9234997  46.1819988  23.6260012 129.0074997  46.3519988
  24.6690012 130.0634997  46.6479988  23.9264420 129.8170520  46.2682773
  26.3820012 130.3934997  47.0309988  26.5950012 129.5054997  46.7439988
  26.4460012 130.3594997  47.9849988  26.4198231 130.2673102  47.1207397
  29.8900012 116.0574997  46.1749988  29.2160012 115.4284997  46.4309988
  30.4540012 115.5734997  45.5719988  29.8739230 115.9058744  46.1285340
  35.0330012 114.1654997  46.2879988  35.6370012 114.7124997  45.7859988
  34.1630012 114.4844997  46.0479988  34.9981241 114.2835806  46.1867654
  36.7600012 115.3034997  44.6209988  37.3720012 114.7894997  44.0949988
  37.1420012 116.1814997  44.6449988  36.8954540 115.3517140  44.5521830
  22.2170012 114.6914997  43.9969988  21.4400012 114.4574997  43.4899988
  22.7470012 113.8944997  44.0059988  22.1822330 114.5516988  43.9287742
  21.0530012 114.4894997  39.8009988  21.4920012 115.1004997  39.2089988
  20.4200012 115.0274997  40.2749988  21.0274514 114.6459257  39.7840930
  26.7960012 114.6184997  43.8109988  27.6710012 115.0064997  43.7809988
  26.6600012 114.4034997  44.7329988  26.8973695 114.6425184  43.9316440
  32.3530012 114.6484997  45.4599988  32.4290012 114.7434997  44.5099988
  32.0780012 113.7404997  45.5889988  32.3262321 114.5387867  45.3475079
  33.7060012 114.6744997  41.1519988  33.0040012 115.2894997  40.9429988
  33.2620012 113.8364997  41.2829988  33.5496330 114.6455783  41.1410328
  20.9540012 130.4374997  40.6989988  20.2690012 130.3994997  40.0309988
  20.9580012 131.3504997  40.9869988  20.8608193 130.5557016  40.6465284
  22.9140012 116.4054997  38.2429988  23.4060012 115.7754997  37.7159988
  23.5380012 116.7014997  38.9069988  23.0655446 116.3593199  38.2605980
  27.9400012 116.6984997  40.6999988  28.1180012 116.0524997  41.3829988
  27.8870012 117.5324997  41.1679988  27.9571829 116.7227985  40.8565940
  29.8190012 131.6474997  39.0959988  30.6850012 132.0134997  38.9179988
  29.5720012 131.2074997  38.2819988  29.9042392 131.6381756  38.9616289
  36.5280012 131.2104997  41.7749988  36.3330012 130.4624997  41.2099988
  36.4890012 131.9684997  41.1919988  36.4960380 131.2106099  41.6188384
  22.1750012 115.2054997  53.5149988  21.8090012 114.4404997  53.9579988
  23.0880012 115.2344997  53.8019988  22.2482790 115.1047224  53.6144070
  24.1480012 114.5564997  55.0509988  25.0460012 114.2824997  54.8659988
  23.7610012 113.8134997  55.5149988  24.2186612 114.4185914  55.0883643
  22.7720012 131.3574997  37.7239988  22.5050012 131.6444997  38.5969988
  23.5440012 130.8114997  37.8759988  22.8397488 131.3230294  37.8641050
  32.5690012 113.8884997  55.2329988  32.6460012 113.4624997  56.0869988
  33.4630012 113.9024997  54.8899988  32.7003428 113.8320880  55.3035310
  35.7450012 129.9614997  53.9249988  34.9630012 129.7754997  53.4059988
  35.6730012 130.8904997  54.1429988  35.6281777 130.0616492  53.8834048
  50.1510012 123.8474997  43.9559988  50.2400012 124.7914997  43.8239988
  49.5130012 123.5724997  43.2979988  50.0769081 123.9394830  43.8489614
  49.0840012 123.1024997  47.3749988  49.0460012 122.4564997  48.0799988
  48.7620012 122.6364997  46.6039988  49.0352333 122.9509408  47.3672978
  41.4530012 122.7174997  48.9679988  41.4940012 122.0914997  49.6909988
  42.1560012 123.3414997  49.1499988  41.5536363 122.7161196  49.0916044
  52.7900012 126.0414997  45.6759988  52.3500012 125.3214997  46.1269988
  52.7770012 126.7624997  46.3059988  52.7280226 126.0403731  45.8228494
  42.3760012 127.1674997  47.5029988  42.0070012 126.3654997  47.1329988
  43.3170012 126.9984997  47.5489988  42.4527289 127.0350153  47.4586316
  38.9860012 120.8274997  42.8959988  38.5390012 121.6734997  42.8769988
  38.4250012 120.2474997  42.3799988  38.8489900 120.8649916  42.8236801
  39.6970012 122.9894997  45.0219988  39.9100012 122.2194997  45.5489988
  40.4350012 123.0784997  44.4179988  39.8258496 122.8961394  45.0125300
  49.9020012 131.1464997  45.8889988  50.5220012 130.4694997  45.6149988
  49.6940012 130.9284997  46.7969988  49.9586904 131.0243870  45.9743365
  47.4740012 125.5354997  47.7809988  47.7780012 124.8494997  47.1859988
  48.1950012 125.6534997  48.3989988  47.6130671 125.4576305  47.7831816
  56.1370012 117.1364997  48.6419988  56.1860012 117.7464997  49.3779988
  56.5620012 117.5974997  47.9189988  56.2011824 117.2823741  48.6450205
  50.6150012 119.9294997  48.1089988  50.7570012 118.9834997  48.1289988
  50.5080012 120.1364997  47.1799988  50.6199864 119.8279534  47.9862339
  43.7690012 118.0304997  45.3809988  43.8130012 118.8904997  44.9629988
  43.3120012 117.4784997  44.7469988  43.7132185 118.0735799  45.2380299
  51.4920012 118.1614997  43.7819988  52.1380012 117.8324997  44.4069988
  52.0020012 118.6794997  43.1589988  51.6494264 118.1864611  43.7833862
  40.3900012 120.4274997  46.1429988  41.0430012 119.8774997  46.5749988
  40.4140012 120.1534997  45.2259988  40.4826683 120.3151466  46.0782123
  45.5460012 121.9774997  45.3579988  46.1620012 121.4514997  45.8679988
  44.9600012 121.3374997  44.9549988  45.5510810 121.8189208  45.3733173
  56.5280012 118.6144997  50.8779988  55.8400012 119.2724997  50.7819988
  56.5440012 118.4174997  51.8139988  56.4358525 118.6780462  50.9914808
  42.5800012 116.9484997  49.4549988  42.3610012 117.4784997  48.6889988
  41.9120012 117.1754997  50.1019988  42.4597600 117.0516906  49.4376379
  49.9490012 126.4484997  42.9989988  49.6530012 126.1264997  42.1479988
  49.6240012 127.3484997  43.0399988  49.8646371 126.5260215  42.8881801
  45.1490012 124.6244997  49.7419988  44.4090012 125.2224997  49.8459988
  45.8630012 125.1784997  49.4269988  45.1442237 124.7812831  49.7136465
  53.2560012 117.4524997  45.7619988  53.0400012 116.6864997  46.2949988
  53.9110012 117.9244997  46.2749988  53.3150632 117.4115889  45.9042861
  42.1730012 118.8404997  47.4069988  42.7870012 119.4734997  47.7809988
  42.6850012 118.3684997  46.7509988  42.3262296 118.8632370  47.3694252
  43.5560012 126.5884997  50.5299988  43.5510012 127.4684997  50.1519988
  42.7030012 126.5054997  50.9549988  43.4399464 126.6976117  50.5357907
  39.6770012 126.2594997  41.3119988  39.4050012 126.4884997  40.4229988
  39.7230012 127.0974997  41.7719988  39.6460094 126.4041213  41.2525697
  53.3020012 127.8814997  48.0239988  52.3610012 127.9394997  48.1859988
  53.5790012 128.7874997  47.8869988  53.2104679 128.0119443  48.0276815
  53.6030012 116.1674997  49.4419988  52.8670012 116.7784997  49.4039988
  54.2860012 116.5824997  48.9149988  53.5946541 116.3071374  49.3655832
  46.6060012 114.2544997  46.9079988  46.4890012 113.3054997  46.8529988
  45.7510012 114.5864997  47.1809988  46.4743733 114.1695409  46.9373897
  51.5540012 129.6624997  44.6499988  51.9800012 128.9554997  44.1649988
  51.8710012 130.4634997  44.2329988  51.6551019 129.6740994  44.5273130
  52.7140012 127.5634997  43.1579988  52.4560012 126.8734997  42.5469988
  52.7850012 127.1204997  44.0039988  52.6882856 127.4092124  43.1886885
  54.4000012 126.1294997  51.6359988  54.5400012 125.5384997  50.8959988
  54.5670012 127.0024997  51.2789988  54.4416778 126.1666426  51.4866965
  48.8730012 123.0914997  41.4079988  48.1610012 123.6264997  41.0559988
  49.5640012 123.1474997  40.7479988  48.8690132 123.1722543  41.2706289
  48.9260012 121.5494997  38.4469988  49.6270012 121.5714997  39.0979988
  49.2290012 120.9214997  37.7909988  49.0627830 121.4676566  38.4473711
  56.2420012 122.4694997  49.7019988  55.5890012 123.1644997  49.7909988
  56.7070012 122.6794997  48.8919988  56.2155390 122.5929425  49.6046883
  52.2780012 123.3014997  42.3599988  51.5460012 123.5294997  42.9329988
  52.7260012 122.5874997  42.8149988  52.2383095 123.2362571  42.4999119
  52.1760012 121.4754997  51.4269988  52.2560012 122.2384997  51.9989988
  51.5740012 121.7544997  50.7369988  52.1055756 121.6177134  51.4120589
  43.9240012 123.9314997  44.2419988  43.5930012 123.5614997  43.4239988
  44.5120012 123.2614997  44.5889988  43.9581873 123.7901156  44.1768102
  45.2900012 127.3594997  46.9239988  45.1960012 126.7814997  46.1669988
  46.0200012 126.9884997  47.4199988  45.3757981 127.2302390  46.8874165
  44.2900012 122.7004997  47.8759988  44.8560012 122.8214997  47.1129988
  44.6090012 123.3374997  48.5149988  44.4105786 122.8031884  47.8580040
  50.5990012 128.2034997  48.6099988  50.3590012 128.8654997  49.2579988
  50.4010012 127.3694997  49.0349988  50.5393808 128.1813134  48.7561524
  45.1700012 127.0994997  52.5929988  44.8590012 127.8814997  53.0479988
  44.5200012 126.9464997  51.9069988  45.0395558 127.1859105  52.5625871
  51.1490012 122.4634997  40.0449988  51.7290012 122.6134997  40.7919988
  51.5630012 122.9344997  39.3219988  51.2842830 122.5476841  40.0494134
  42.0900012 123.2974997  51.8219988  42.1610012 123.9484997  52.5199988
  41.2000012 123.4004997  51.4869988  41.9793117 123.4005936  51.8722700
  48.8760012 129.2004997  43.4799988  49.3500012 129.4954997  44.2579988
  48.3130012 129.9384997  43.2469988  48.8647653 129.3406932  43.5550136
  43.4100012 129.1714997  53.3559988  43.4170012 129.0354997  52.4089988
  42.4940012 129.0534997  53.6079988  43.2871714 129.1369430  53.2604666
  54.8480012 114.2134997  39.8579988  53.9480012 114.3524997  40.1529988
  55.1000012 115.0444997  39.4559988  54.7588702 114.3449074  39.8440205
  42.9140012 123.0014997  41.8319988  42.6220012 123.7694997  41.3409988
  42.2400012 122.3414997  41.6689988  42.7829081 123.0174406  41.7427340
  56.0370012 128.5794997  38.2339988  56.1110012 129.5184997  38.4049988
  56.9430012 128.2744997  38.1779988  56.1695100 128.6666722  38.2498119
  39.0070012 125.3644997  50.6469988  38.5060012 125.3364997  49.8319988
  39.0120012 124.4584997  50.9559988  38.9391526 125.2382278  50.5772872
  38.7570012 128.1444997  47.5309988  39.7030012 128.0004997  47.5119988
  38.6450012 128.9284997  48.0679988  38.8712727 128.2308046  47.6010072
  56.9550012 128.8104997  53.2129988  56.9060012 127.8554997  53.1759988
  56.1280012 129.0784997  53.6139988  56.8364940 128.7158998  53.2621375
  47.9340012 128.3844997  52.0889988  48.0210012 129.2104997  52.5639988
  47.0700012 128.0544997  52.3379988  47.8291964 128.4529878  52.1876549
  48.3480012 132.1564997  41.8949988  48.2730012 132.0354997  40.9489988
  48.3810012 133.1064997  42.0139988  48.3421848 132.2682500  41.7814834
  42.0010012 130.9454997  43.6759988  42.1540012 130.5974997  44.5549988
  41.1510012 130.5894997  43.4209988  41.9068962 130.8496650  43.7618340
  51.4500012 131.3104997  38.8969988  51.8250012 130.5664997  38.4269988
  51.4540012 131.0404997  39.8159988  51.5018915 131.1721486  38.9567824
  51.1190012 131.2364997  41.6469988  50.1830012 131.3364997  41.8249988
  51.3990012 130.5274997  42.2249988  51.0288255 131.1542711  41.7495391
  54.1070012 120.3034997  53.6929988  53.7000012 120.7844997  52.9719988
  54.1480012 119.3984997  53.3849988  54.0568437 120.2469374  53.5526683
  41.2560012 126.6874997  51.6899988  41.4720012 126.3264997  52.5489988
  40.4010012 126.3134997  51.4799988  41.1699292 126.5874111  51.7793386
  43.8750012 115.1574997  47.6849988  43.0130012 115.0704997  47.2779988
  43.8520012 116.0134997  48.1129988  43.7540330 115.2612765  47.6871863
  48.5380012 114.8794997  51.0599988  48.9580012 114.4644997  51.8129988
  47.6050012 114.7014997  51.1769988  48.4693644 114.7985900  51.1789539
  51.8640012 118.6354997  51.9129988  51.3500012 118.5094997  52.7109988
  51.7090012 119.5474997  51.6689988  51.7726852 118.7416132  51.9892158
  52.6270012 123.4964997  37.6749988  52.6690012 123.2734997  36.7449988
  53.4760012 123.8954997  37.8649988  52.7475396 123.5199155  37.5733627
  48.1990012 117.3724997  38.3449988  47.9460012 117.3914997  39.2679988
  47.9430012 116.5004997  38.0439988  48.1297790 117.2572437  38.4306263
  43.9660012 120.1234997  48.7799988  43.3240012 120.0824997  49.4889988
  44.0030012 121.0494997  48.5429988  43.8831324 120.2431559  48.8449824
  43.9630012 120.3444997  43.6919988  43.0700012 120.0034997  43.6339988
  44.4130012 119.9674997  42.9369988  43.9017305 120.2468484  43.5819177
  49.4980012 120.7604997  42.5089988  49.0890012 121.5754997  42.2179988
  50.2190012 120.6204997  41.8949988  49.5394537 120.8532018  42.3861342
  48.6000012 120.9354997  53.9969988  48.0380012 120.2314997  54.3179988
  49.4270012 120.8154997  54.4649988  48.6347095 120.8227883  54.1042330
  50.5030012 120.2064997  45.3229988  50.3080012 120.8114997  44.6079988
  50.6840012 119.3724997  44.8889988  50.5007614 120.1766300  45.1664405
  41.7160012 120.4434997  50.6469988  41.6780012 120.8434997  51.5159988
  41.2250012 119.6264997  50.7379988  41.6444684 120.3878069  50.7781059
  45.0820012 117.8174997  37.4459988  44.6510012 117.3724997  38.1759988
  44.3640012 118.1894997  36.9339988  44.9259438 117.8068940  37.4766799
  38.3240012 117.5594997  44.4979988  38.9550012 117.5304997  45.2169988
  38.7730012 117.1344997  43.7679988  38.4710774 117.4980492  44.4976553
  39.5980012 118.3054997  39.9219988  40.0720012 118.8964997  39.3369988
  38.8810012 118.8364997  40.2689988  39.5659341 118.4580867  39.8888836
  49.7670012 121.8444997  49.9949988  50.0900012 121.2134997  49.3519988
  49.3270012 121.3094997  50.6549988  49.7516895 121.6858441  49.9962850
  46.5440012 117.7714997  44.7789988  45.6330012 117.8284997  45.0669988
  47.0500012 117.7114997  45.5889988  46.4875413 117.7711985  44.9280622
  41.3730012 119.4004997  43.6049988  40.4830012 119.5004997  43.2649988
  41.6690012 118.5584997  43.2589988  41.2912823 119.3003546  43.5117213
  45.0260012 119.4004997  41.2619988  45.9570012 119.5294997  41.4399988
  44.8110012 120.0704997  40.6119988  45.1244247 119.5086565  41.1985747
  50.9490012 117.0064997  48.0429988  50.2730012 117.1374997  48.7069988
  50.4640012 116.8514997  47.2329988  50.7907145 117.0034905  48.0244517
  43.7000012 120.5954997  38.8289988  43.1570012 120.2154997  38.1369988
  44.5330012 120.7894997  38.3999988  43.7384399 120.5698124  38.6764526
  54.2370012 132.6784997  54.3199988  54.4370012 133.1024997  53.4849988
  54.8920012 133.0214997  54.9269988  54.3530051 132.7829648  54.2877836
  41.8350012 125.1524997  53.9279988  42.5670012 125.4064997  54.4889988
  41.0550012 125.3564997  54.4429988  41.8298232 125.2149177  54.0745760
  47.8640012 120.5594997  46.6659988  48.4290012 120.0124997  46.1189988
  47.7170012 120.0374997  47.4539988  47.9212918 120.4142024  46.6978454
  42.8660012 116.6954997  43.0839988  42.5490012 115.7934997  43.0489988
  43.6480012 116.6974997  42.5309988  42.9282284 116.5721628  43.0044783
  46.4910012 118.9474997  49.0799988  45.6550012 119.4014997  49.1899988
  47.0150012 119.2234997  49.8319988  46.4474414 119.0469376  49.1967136
  47.0350012 125.1604997  40.7639988  46.2900012 124.6534997  40.4419988
  46.9010012 125.2094997  41.7109988  46.9148776 125.0976940  40.8478647
  54.1850012 124.2934997  49.5509988  54.8270012 124.7504997  49.0069988
  53.3550012 124.4064997  49.0879988  54.1605963 124.3712704  49.4140177
  50.9330012 117.9744997  38.9639988  49.9940012 118.0864997  38.8119988
  51.2300012 118.8314997  39.2699988  50.8447666 118.1056443  38.9845768
  48.5540012 125.3444997  52.0009988  48.2090012 124.9634997  52.8079988
  48.3540012 126.2784997  52.0729988  48.4798061 125.4185228  52.1210961
  51.6510012 119.8414997  40.6239988  52.5430012 119.7044997  40.9429988
  51.7080012 120.6324997  40.0879988  51.7806285 119.9296660  40.5951691
  42.1600012 124.4554997  46.5339988  42.9050012 124.4534997  45.9329988
  42.2380012 123.6324997  47.0159988  42.2725518 124.3439315  46.5168929
  49.1610012 126.6194997  39.7899988  48.8650012 127.4454997  40.1709988
  48.4580012 125.9994997  39.9859988  49.0254914 126.6488199  39.8686443
  39.1680012 122.9164997  51.8489988  39.3910012 122.4984997  52.6809988
  38.5660012 122.3034997  51.4259988  39.1171759 122.7764668  51.9057022
  46.1840012 122.4334997  54.0619988  45.8880012 122.2674997  53.1669988
  47.1160012 122.2134997  54.0509988  46.2694166 122.3810640  53.9380536
  50.8050012 127.8064997  51.9519988  49.9040012 127.9894997  51.6839988
  50.8390012 128.0654997  52.8729988  50.6863041 127.8665512  52.0398197
  56.5360012 120.0514997  40.3189988  55.9820012 119.6554997  39.6469988
  56.6360012 120.9614997  40.0409988  56.4737059 120.1203586  40.1894401
  56.4990012 125.8514997  53.1559988  55.6480012 126.0894997  52.7889988
  57.0900012 125.8344997  52.4029988  56.4622487 125.8818258  53.0038893
  54.8310012 128.8374997  40.7839988  54.4580012 128.0114997  41.0929988
  55.1090012 128.6544997  39.8869988  54.8175630 128.6997303  40.7049626
  51.9920012 123.6454997  47.8049988  51.0630012 123.4134997  47.7779988
  52.4430012 122.8684997  47.4749988  51.9259216 123.5087238  47.7566917
  44.5350012 127.9734997  43.9379988  45.0620012 128.7464997  43.7379988
  43.6550012 128.1984997  43.6369988  44.4881773 128.1098005  43.8699010
  40.2900012 122.8354997  38.5249988  40.9060012 123.4624997  38.9049988
  39.4280012 123.1514997  38.7969988  40.2577698 122.9639430  38.6137183
  45.9620012 125.6364997  43.5149988  45.7210012 126.5614997  43.5559988
  45.2210012 125.1774997  43.9109988  45.8288409 125.7011421  43.5741377
  46.4770012 129.7854997  49.8299988  46.8390012 130.6404997  49.5959988
  47.0080012 129.4934997  50.5699988  46.5984473 129.8631060  49.8980855
  44.6450012 130.6584997  43.0599988  43.6950012 130.7634997  43.1109988
  44.9970012 131.4784997  43.4049988  44.5624203 130.7838314  43.1136650
  50.0210012 125.8844997  49.5299988  49.5950012 125.6574997  50.3569988
  50.6010012 125.1464997  49.3479988  50.0411868 125.7535299  49.6185830
  52.2240012 126.8134997  38.6039988  52.5770012 126.4334997  39.4089988
  51.2750012 126.7204997  38.6909988  52.1440441 126.7489596  38.7258559
  52.6790012 130.4364997  51.9999988  52.0780012 129.8814997  51.5039988
  52.9610012 131.1034997  51.3739988  52.6348519 130.4506841  51.8474952
  56.7270012 131.2934997  38.8049988  57.4710012 131.8794997  38.6649988
  56.0330012 131.8614997  39.1389988  56.7350292 131.4505582  38.8309961
  40.8020012 117.6694997  51.4069988  39.9090012 118.0084997  51.3389988
  40.7030012 116.8144997  51.8249988  40.6664164 117.6002588  51.4542235
  53.0900012 125.4864997  40.8309988  52.8120012 124.7584997  41.3869988
  54.0170012 125.6054997  41.0359988  53.1773124 125.4028802  40.9348845
  40.4530012 129.4744997  49.8419988  40.6700012 128.5424997  49.8109988
  40.6990012 129.7484997  50.7249988  40.5159549 129.3840636  49.9571763
  46.3150012 127.9254997  37.0509988  46.5540012 127.1774997  36.5039988
  46.0460012 127.5374997  37.8839988  46.3113675 127.7706638  37.0886865
  45.2520012 127.4954997  39.5079988  45.3980012 126.9754997  40.2979988
  45.2490012 128.4024997  39.8139988  45.2715989 127.5468853  39.6576088
  41.7050012 124.7484997  40.0179988  41.0190012 125.1004997  40.5849988
  42.2270012 125.5114997  39.7709988  41.6816852 124.8998578  40.0622118
  49.5360012 117.4104997  50.2969988  50.2350012 117.4844997  50.9469988
  49.1550012 116.5464997  50.4509988  49.5801767 117.3037624  50.4068322
  50.3210012 117.0624997  41.3939988  50.5410012 117.5344997  40.5909988
  50.8790012 117.4574997  42.0639988  50.4264968 117.1804285  41.3747331
  47.9890012 129.1934997  40.2569988  47.1730012 129.6904997  40.3089988
  48.5190012 129.6684997  39.6169988  47.9489161 129.3257722  40.1775956
  47.5210012 118.7904997  42.2289988  48.3330012 119.2954997  42.2749988
  47.2760012 118.6454997  43.1429988  47.5990520 118.8400375  42.3588517
  48.0560012 119.7764997  51.4139988  48.1750012 120.3504997  52.1709988
  48.7120012 119.0884997  51.5279988  48.1609757 119.7621079  51.5330825
  48.4040012 115.8714997  43.1669988  48.0580012 116.4894997  43.8119988
  49.0630012 116.3724997  42.6859988  48.4457826 116.0235802  43.1900971
  45.3280012 130.2374997  40.2389988  45.4880012 131.0364997  39.7379988
  45.1300012 130.5434997  41.1239988  45.3231649 130.3884469  40.2899815
  44.0620012 116.9344997  39.8539988  43.9790012 117.8234997  40.2009988
  44.9520012 116.6694997  40.0859988  44.1709469 117.0201430  39.9327626
  54.2610012 117.6834997  52.2489988  53.3440012 117.9464997  52.1609988
  54.5960012 117.6804997  51.3519988  54.1809900 117.7190224  52.1157919
  52.8630012 121.4344997  46.3439988  52.0650012 121.0194997  46.0159988
  53.3080012 120.7434997  46.8349988  52.8139885 121.2843543  46.3654889
  42.3210012 127.3624997  38.9149988  42.9130012 128.0614997  39.1909988
  42.7800012 126.9294997  38.1949988  42.4641142 127.3997049  38.8554830
  40.6370012 120.0264997  38.0309988  40.5920012 120.9654997  38.2089988
  39.7490012 119.7904997  37.7609988  40.5108574 120.1231892  38.0188912
  53.9490012 130.6904997  47.9669988  53.7940012 131.3684997  47.3099988
  54.8820012 130.7624997  48.1699988  54.0538500 130.7930170  47.9045119
  41.4450012 114.8084997  46.7039988  41.2160012 114.8674997  45.7759988
  41.0020012 114.0164997  47.0099988  41.3538530 114.7095753  46.6184786
  40.3750012 128.7484997  42.8639988  39.5430012 129.2214997  42.8919988
  40.9210012 129.2584997  42.2659988  40.3349739 128.8821871  42.7869716
  39.6630012 131.3614997  54.1939988  40.2040012 131.1444997  54.9539988
  39.1820012 130.5554997  54.0049988  39.6719345 131.2229514  54.2723076
  44.2610012 130.2804997  55.8149988  45.0280012 129.8214997  56.1559988
  44.2390012 130.0544997  54.8849988  44.3631434 130.1870409  55.7360043
  48.3530012 129.7884997  37.1899988  47.7090012 129.1574997  37.5109988
  49.1150012 129.2574997  36.9579988  48.3678077 129.6302920  37.2026011
  50.8380012 128.6604997  54.5439988  50.4870012 127.8044997  54.7869988
  51.5640012 128.8034997  55.1509988  50.8880769 128.5625636  54.6593619
  52.9570012 129.6054997  37.4239988  53.2400012 128.8114997  37.8759988
  53.6970012 129.8384997  36.8629988  53.0957486 129.5282803  37.4100698
  39.5700012 125.1714997  55.1489988  39.7140012 124.2694997  54.8619988
  38.7980012 125.4574997  54.6609988  39.4853322 125.0868261  55.0437881
  43.9120012 125.5154997  37.2809988  43.9760012 124.7214997  37.8119988
  44.5650012 125.3964997  36.5909988  44.0090241 125.3907148  37.2604317
  46.2260012 125.1414997  54.5809988  45.8970012 125.4124997  53.7239988
  46.3780012 124.2004997  54.4939988  46.2014809 125.0513862  54.4518244
  49.2640012 126.5624997  37.0169988  48.9950012 126.7424997  37.9179988
  49.0580012 125.6364997  36.8859988  49.1993825 126.4620152  37.1225214
  51.9600012 125.0574997  51.9649988  52.7060012 125.6454997  51.8449988
  51.2030012 125.6394997  52.0279988  51.9597554 125.2167011  51.9570907
  40.4030012 122.3714997  54.5689988  40.8110012 121.5144997  54.4479988
  40.1430012 122.3864997  55.4899988  40.4237568 122.2560807  54.6769588
  45.0610012 123.4874997  39.5869988  44.6010012 123.0034997  40.2729988
  45.3160012 122.8194997  38.9509988  45.0324902 123.3308731  39.5949334
  44.3500012 121.3804997  51.9429988  43.7320012 122.0554997  52.2229988
  44.6940012 121.7014997  51.1099988  44.3119615 121.5162721  51.8686581
  46.1320012 121.7304997  37.8489988  45.9520012 121.5764997  36.9219988
  47.0820012 121.8384997  37.8939988  46.2357776 121.7240175  37.7281843
  49.3700012 123.8524997  55.2199988  50.3230012 123.9354997  55.1929988
  49.2090012 123.1404997  55.8399988  49.4786426 123.7676746  55.3000579
  55.5220012 124.0854997  37.2949988  55.2480012 123.6604997  36.4819988
  55.5610012 125.0164997  37.0779988  55.4897699 124.1532484  37.1543610
  44.6890012 118.7354997  53.0249988  44.8390012 118.0064997  52.4229988
  44.6920012 119.5124997  52.4659988  44.7099302 118.7407851  52.8670692
  45.1020012 117.1054997  50.5179988  45.6380012 117.5564997  49.8659988
  44.2500012 116.9974997  50.0949988  45.0602178 117.1526390  50.3715756
  46.6840012 122.5444997  50.7569988  47.4340012 122.3884997  50.1839988
  46.3450012 123.3964997  50.4819988  46.7408921 122.6382968  50.6413561
  51.0990012 120.3594997  55.7859988  51.2920012 119.4284997  55.6739988
  51.9570012 120.7844997  55.7759988  51.2413020 120.2896389  55.7693361
  52.4160012 123.1484997  53.8629988  52.1350012 123.8574997  53.2859988
  53.3590012 123.0754997  53.7119988  52.5049027 123.2357646  53.7635551
  43.1680012 119.9334997  54.9369988  42.4010012 119.4014997  54.7269988
  43.8470012 119.6234997  54.3369988  43.1547022 119.8187506  54.8271648
  45.9080012 114.5614997  50.9489988  45.8090012 115.5084997  50.8439988
  45.1650012 114.1894997  50.4739988  45.7940564 114.6405902  50.8704560
  47.1720012 118.8834997  54.5129988  46.9360012 118.6634997  55.4149988
  46.3880012 118.6764997  54.0029988  47.0338628 118.8254760  54.5673932
  49.8870012 118.0104997  53.5889988  48.9400012 118.0424997  53.7209988
  50.2000012 117.3854997  54.2419988  49.7995475 117.9303207  53.6954455
  51.5210012 116.6444997  55.5939988  51.4250012 115.6924997  55.5879988
  51.2000012 116.9134997  56.4539988  51.4644070 116.5504035  55.7095441
  41.3480012 117.8544997  54.6409988  41.5600012 117.1474997  54.0309988
  41.2370012 117.4164997  55.4849988  41.3619721 117.6987084  54.6716843
  46.1290012 113.8554997  53.6209988  46.8410012 113.2154997  53.6069988
  46.0280012 114.1224997  52.7069988  46.2127939 113.8039938  53.4955650
  46.4830012 115.5384997  55.6739988  46.3510012 115.0624997  54.8539988
  45.8840012 116.2824997  55.6189988  46.3839071 115.5739618  55.5542886
  46.0290012 132.4214997  38.8509988  46.9620012 132.5794997  38.9939988
  45.7650012 133.0964997  38.2259988  46.1209510 132.5343611  38.7860741
  39.5980012 127.0574997  38.3329988  40.5120012 127.1364997  38.6069988
  39.6050012 126.3704997  37.6669988  39.7241131 126.9753961  38.2804393
  38.2470012 132.4504997  43.4109988  37.6000012 131.9884997  42.8779988
  38.6010012 131.7784997  43.9929988  38.2063849 132.2964723  43.4167959
  39.1170012 130.5314997  45.2149988  38.7820012 129.6514997  45.3869988
  39.3390012 130.8764997  46.0799988  39.1011783 130.4577500  45.3554208
  56.6650012 131.3404997  48.1959988  56.6440012 131.5254997  49.1349988
  57.3560012 131.9094997  47.8549988  56.7554618 131.4426606  48.2783864
  56.2290012 130.9084997  51.1179988  55.7410012 130.1724997  50.7469988
  56.7780012 130.5144997  51.7959988  56.2364872 130.7546249  51.1589160
  54.6790012 126.6974997  55.7559988  53.8130012 126.5924997  56.1499988
  55.0560012 127.4564997  56.2019988  54.6113308 126.7856900  55.8702393
  55.9800012 124.9544997  41.2699988  56.8300012 125.3754997  41.3969988
  55.9860012 124.2144997  41.8769988  56.0971372 124.9120803  41.3694344
  56.3750012 123.0074997  43.0939988  55.6480012 122.5284997  43.4909988
  56.9560012 123.2134997  43.8259988  56.3539375 122.9697090  43.2474129
  56.1340012 125.7924997  48.0409988  56.9670012 125.4144997  47.7609988
  56.2460012 126.7354997  47.9219988  56.2632647 125.8682218  47.9865487
  54.6200012 128.6704997  50.3479988  53.9730012 128.9954997  50.9739988
  54.1030012 128.2304997  49.6739988  54.4614029 128.6555004  50.3425827
  56.6430012 122.9084997  39.4849988  56.1210012 123.2654997  38.7659988
  56.6100012 123.5834997  40.1629988  56.5671634 123.0485413  39.4783145
  54.9920012 120.1484997  38.0359988  55.0880012 120.8154997  37.3549988
  54.8520012 119.3324997  37.5539988  54.9862135 120.1294500  37.8778491
  54.1610012 121.5284997  43.6569988  54.0110012 120.5834997  43.6359988
  53.8080012 121.8094997  44.4999988  54.0926625 121.4370441  43.7682346
  39.1970012 123.6064997  47.6669988  39.3810012 123.5244997  46.7309988
  40.0460012 123.4824997  48.0909988  39.3370139 123.5785003  47.5961455
  55.0180012 123.4984997  53.2949988  55.6010012 122.7644997  53.4869988
  55.5820012 124.2704997  53.3419988  55.1739769 123.5024227  53.3276159
  56.5140012 121.4014997  53.9799988  55.6510012 121.0224997  53.8139988
  57.1190012 120.6624997  53.9059988  56.4775979 121.2498023  53.9472817
  54.2390012 117.5564997  37.1529988  54.8500012 117.1854997  37.7899988
  53.4030012 117.1354997  37.3489988  54.2095032 117.4487554  37.2667035
  53.8720012 119.1114997  42.1189988  54.1520012 118.2044997  42.2429988
  54.6310012 119.5454997  41.7299988  54.0129277 119.0460942  42.0833682
  54.4840012 119.6924997  47.5549988  55.4170012 119.9044997  47.5209988
  54.2490012 119.7944997  48.4769988  54.5798036 119.7352769  47.6749976
  54.5130012 120.4294997  50.3309988  53.6700012 120.6974997  50.6969988
  54.9550012 121.2514997  50.1199988  54.4574158 120.5773291  50.3525491
  38.7940012 118.8774997  53.8079988  39.7140012 118.7554997  54.0439988
  38.3450012 118.1274997  54.1969988  38.8591580 118.7593727  53.8929006
  56.7960012 114.4094997  55.6839988  57.1460012 113.7554997  55.0789988
  56.9430012 115.2464997  55.2449988  56.8638419 114.4331591  55.5417118
  54.4850012 116.3744997  42.1669988  54.6680012 115.9254997  42.9929988
  53.8860012 115.7894997  41.7039988  54.4290202 116.2339975  42.2173275
  40.0150012 117.1894997  46.6989988  40.4610012 116.3974997  47.0009988
  40.4820012 117.9054997  47.1299988  40.1390172 117.1780624  46.7984820
  38.3190012 120.1884997  47.7679988  38.8110012 119.9674997  46.9769988
  38.6820012 121.0294997  48.0489988  38.4353126 120.2718357  47.6977531
  56.3160012 116.5184997  54.0339988  55.3980012 116.7894997  53.9979988
  56.4390012 115.9834997  53.2489988  56.2071066 116.4832892  53.9230487
  56.3520012 116.4414997  38.6949988  56.7640012 115.7204997  38.2199988
  57.0340012 117.1114997  38.7539988  56.5005885 116.4332368  38.6378915
  38.6330012 116.4464997  41.8219988  37.7080012 116.6554997  41.6929988
  39.0870012 116.9304997  41.1329988  38.5677368 116.5405993  41.7111226
  53.4040012 131.4304997  43.7679988  54.0560012 131.0834997  43.1599988
  53.9140012 131.9194997  44.4139988  53.5622637 131.4490597  43.7720236
  38.5970012 115.1844997  50.1669988  37.9320012 114.9384997  50.8099988
  38.1540012 115.8064997  49.5889988  38.4460956 115.2348632  50.1769352
  40.7890012 128.3594997  54.3109988  39.9680012 128.5344997  53.8509988
  40.5360012 128.2864997  55.2319988  40.6426164 128.3735622  54.3724923
  43.7430012 129.3344997  50.5699988  43.3180012 130.1434997  50.2869988
  44.6470012 129.4194997  50.2679988  43.8070271 129.4568469  50.4903776
  48.0540012 130.7334997  53.5289988  48.2390012 130.3994997  54.4069988
  48.9000012 131.0424997  53.2069988  48.1937539 130.7296047  53.6055605
  50.3990012 132.0194997  52.7729988  51.0760012 131.3864997  52.5329988
  50.7210012 132.4204997  53.5799988  50.5351637 131.9871154  52.8492793
  55.3160012 114.6084997  51.8529988  54.5040012 114.9334997  51.4649988
  55.5490012 113.8484997  51.3199988  55.2363423 114.5502436  51.7278253
  41.1450012 132.5904997  50.6169988  40.4240012 133.0304997  50.1659988
  40.7790012 132.3394997  51.4659988  40.9969804 132.6167698  50.6699840
  43.6120012 132.1904997  49.6469988  42.7470012 132.2624997  50.0509988
  43.5570012 132.7374997  48.8629988  43.4862085 132.2742685  49.5963362
  48.3220012 132.0784997  48.8219988  47.8660012 132.6074997  48.1679988
  48.4850012 132.6814997  49.5479988  48.2815585 132.2324468  48.8305062
  50.6500012 130.9564997  49.7669988  49.7450012 131.1214997  49.5019988
  51.0790012 131.8094997  49.7019988  50.5840799 131.0944483  49.7219182
  53.2540012 132.5264997  50.0619988  53.0720012 133.4424997  49.8519988
  53.4310012 132.1164997  49.2159988  53.2530210 132.5964822  49.9187885
  40.5590012 131.2134997  47.5269988  40.5410012 130.7884997  48.3849988
  41.3640012 130.8954997  47.1189988  40.6653875 131.1123812  47.5891655
  42.7010012 129.9234997  46.1819988  42.4820012 129.0074997  46.3519988
  43.5250012 130.0634997  46.6479988  42.7824420 129.8170520  46.2682774
  45.2380012 130.3934997  47.0309988  45.4510012 129.5054997  46.7439988
  45.3020012 130.3594997  47.9849988  45.2758232 130.2673102  47.1207397
  48.7460012 116.0574997  46.1749988  48.0720012 115.4284997  46.4309988
  49.3100012 115.5734997  45.5719988  48.7299230 115.9058744  46.1285340
  53.8890012 114.1654997  46.2879988  54.4930012 114.7124997  45.7859988
  53.0190012 114.4844997  46.0479988  53.8541241 114.2835806  46.1867654
  55.6160012 115.3034997  44.6209988  56.2280012 114.7894997  44.0949988
  55.9980012 116.1814997  44.6449988  55.7514540 115.3517140  44.5521830
  41.0730012 114.6914997  43.9969988  40.2960012 114.4574997  43.4899988
  41.6030012 113.8944997  44.0059988  41.0382330 114.5516988  43.9287742
  39.9090012 114.4894997  39.8009988  40.3480012 115.1004997  39.2089988
  39.2760012 115.0274997  40.2749988  39.8834514 114.6459257  39.7840930
  45.6520012 114.6184997  43.8109988  46.5270012 115.0064997  43.7809988
  45.5160012 114.4034997  44.7329988  45.7533695 114.6425184  43.9316440
  51.2090012 114.6484997  45.4599988  51.2850012 114.7434997  44.5099988
  50.9340012 113.7404997  45.5889988  51.1822321 114.5387867  45.3475079
  52.5620012 114.6744997  41.1519988  51.8600012 115.2894997  40.9429988
  52.1180012 113.8364997  41.2829988  52.4056330 114.6455783  41.1410328
  39.8100012 130.4374997  40.6989988  39.1250012 130.3994997  40.0309988
  39.8140012 131.3504997  40.9869988  39.7168193 130.5557016  40.6465284
  41.7700012 116.4054997  38.2429988  42.2620012 115.7754997  37.7159988
  42.3940012 116.7014997  38.9069988  41.9215446 116.3593199  38.2605980
  46.7960012 116.6984997  40.6999988  46.9740012 116.0524997  41.3829988
  46.7430012 117.5324997  41.1679988  46.8131829 116.7227985  40.8565940
  48.6750012 131.6474997  39.0959988  49.5410012 132.0134997  38.9179988
  48.4280012 131.2074997  38.2819988  48.7602392 131.6381756  38.9616289
  55.3840012 131.2104997  41.7749988  55.1890012 130.4624997  41.2099988
  55.3450012 131.9684997  41.1919988  55.3520380 131.2106099  41.6188384
  41.0310012 115.2054997  53.5149988  40.6650012 114.4404997  53.9579988
  41.9440012 115.2344997  53.8019988  41.1042790 115.1047224  53.6144070
  43.0040012 114.5564997  55.0509988  43.9020012 114.2824997  54.8659988
  42.6170012 113.8134997  55.5149988  43.0746612 114.4185914  55.0883643
  41.6280012 131.3574997  37.7239988  41.3610012 131.6444997  38.5969988
  42.4000012 130.8114997  37.8759988  41.6957488 131.3230294  37.8641050
  51.4250012 113.8884997  55.2329988  51.5020012 113.4624997  56.0869988
  52.3190012 113.9024997  54.8899988  51.5563428 113.8320879  55.3035310
  54.6010012 129.9614997  53.9249988  53.8190012 129.7754997  53.4059988
  54.5290012 130.8904997  54.1429988  54.4841777 130.0616492  53.8834048
  69.0070012 123.8474997  43.9559988  69.0960012 124.7914997  43.8239988
  68.3690012 123.5724997  43.2979988  68.9329081 123.9394830  43.8489614
  67.9400012 123.1024997  47.3749988  67.9020012 122.4564997  48.0799988
  67.6180012 122.6364997  46.6039988  67.8912333 122.9509408  47.3672978
  60.3090012 122.7174997  48.9679988  60.3500012 122.0914997  49.6909988
  61.0120012 123.3414997  49.1499988  60.4096363 122.7161196  49.0916044
  71.6460012 126.0414997  45.6759988  71.2060012 125.3214997  46.1269988
  71.6330012 126.7624997  46.3059988  71.5840226 126.0403731  45.8228494
  61.2320012 127.1674997  47.5029988  60.8630012 126.3654997  47.1329988
  62.1730012 126.9984997  47.5489988  61.3087289 127.0350153  47.4586316
  57.8420012 120.8274997  42.8959988  57.3950012 121.6734997  42.8769988
  57.2810012 120.2474997  42.3799988  57.7049900 120.8649916  42.8236801
  58.5530012 122.9894997  45.0219988  58.7660012 122.2194997  45.5489988
  59.2910012 123.0784997  44.4179988  58.6818496 122.8961394  45.0125300
  68.7580012 131.1464997  45.8889988  69.3780012 130.4694997  45.6149988
  68.5500012 130.9284997  46.7969988  68.8146904 131.0243870  45.9743365
  66.3300012 125.5354997  47.7809988  66.6340012 124.8494997  47.1859988
  67.0510012 125.6534997  48.3989988  66.4690671 125.4576305  47.7831816
  74.9930012 117.1364997  48.6419988  75.0420012 117.7464997  49.3779988
  75.4180012 117.5974997  47.9189988  75.0571824 117.2823741  48.6450205
  69.4710012 119.9294997  48.1089988  69.6130012 118.9834997  48.1289988
  69.3640012 120.1364997  47.1799988  69.4759864 119.8279534  47.9862339
  62.6250012 118.0304997  45.3809988  62.6690012 118.8904997  44.9629988
  62.1680012 117.4784997  44.7469988  62.5692185 118.0735799  45.2380299
  70.3480012 118.1614997  43.7819988  70.9940012 117.8324997  44.4069988
  70.8580012 118.6794997  43.1589988  70.5054264 118.1864611  43.7833862
  59.2460012 120.4274997  46.1429988  59.8990012 119.8774997  46.5749988
  59.2700012 120.1534997  45.2259988  59.3386683 120.3151466  46.0782123
  64.4020012 121.9774997  45.3579988  65.0180012 121.4514997  45.8679988
  63.8160012 121.3374997  44.9549988  64.4070810 121.8189208  45.3733173
  75.3840012 118.6144997  50.8779988  74.6960012 119.2724997  50.7819988
  75.4000012 118.4174997  51.8139988  75.2918525 118.6780462  50.9914808
  61.4360012 116.9484997  49.4549988  61.2170012 117.4784997  48.6889988
  60.7680012 117.1754997  50.1019988  61.3157600 117.0516906  49.4376379
  68.8050012 126.4484997  42.9989988  68.5090012 126.1264997  42.1479988
  68.4800012 127.3484997  43.0399988  68.7206371 126.5260215  42.8881801
  64.0050012 124.6244997  49.7419988  63.2650012 125.2224997  49.8459988
  64.7190012 125.1784997  49.4269988  64.0002237 124.7812831  49.7136465
  72.1120012 117.4524997  45.7619988  71.8960012 116.6864997  46.2949988
  72.7670012 117.9244997  46.2749988  72.1710632 117.4115889  45.9042861
  61.0290012 118.8404997  47.4069988  61.6430012 119.4734997  47.7809988
  61.5410012 118.3684997  46.7509988  61.1822296 118.8632370  47.3694252
  62.4120012 126.5884997  50.5299988  62.4070012 127.4684997  50.1519988
  61.5590012 126.5054997  50.9549988  62.2959464 126.6976117  50.5357907
  58.5330012 126.2594997  41.3119988  58.2610012 126.4884997  40.4229988
  58.5790012 127.0974997  41.7719988  58.5020094 126.4041213  41.2525697
  72.1580012 127.8814997  48.0239988  71.2170012 127.9394997  48.1859988
  72.4350012 128.7874997  47.8869988  72.0664679 128.0119443  48.0276815
  72.4590012 116.1674997  49.4419988  71.7230012 116.7784997  49.4039988
  73.1420012 116.5824997  48.9149988  72.4506541 116.3071374  49.3655832
  65.4620012 114.2544997  46.9079988  65.3450012 113.3054997  46.8529988
  64.6070012 114.5864997  47.1809988  65.3303733 114.1695409  46.9373897
  70.4100012 129.6624997  44.6499988  70.8360012 128.9554997  44.1649988
  70.7270012 130.4634997  44.2329988  70.5111019 129.6740994  44.5273130
  71.5700012 127.5634997  43.1579988  71.3120012 126.8734997  42.5469988
  71.6410012 127.1204997  44.0039988  71.5442856 127.4092124  43.1886885
  73.2560012 126.1294997  51.6359988  73.3960012 125.5384997  50.8959988
  73.4230012 127.0024997  51.2789988  73.2976778 126.1666426  51.4866965
  67.7290012 123.0914997  41.4079988  67.0170012 123.6264997  41.0559988
  68.4200012 123.1474997  40.7479988  67.7250132 123.1722543  41.2706289
  67.7820012 121.5494997  38.4469988  68.4830012 121.5714997  39.0979988
  68.0850012 120.9214997  37.7909988  67.9187830 121.4676566  38.4473711
  75.0980012 122.4694997  49.7019988  74.4450012 123.1644997  49.7909988
  75.5630012 122.6794997  48.8919988  75.0715390 122.5929425  49.6046883
  71.1340012 123.3014997  42.3599988  70.4020012 123.5294997  42.9329988
  71.5820012 122.5874997  42.8149988  71.0943095 123.2362571  42.4999119
  71.0320012 121.4754997  51.4269988  71.1120012 122.2384997  51.9989988
  70.4300012 121.7544997  50.7369988  70.9615756 121.6177134  51.4120589
  62.7800012 123.9314997  44.2419988  62.4490012 123.5614997  43.4239988
  63.3680012 123.2614997  44.5889988  62.8141873 123.7901156  44.1768102
  64.1460012 127.3594997  46.9239988  64.0520012 126.7814997  46.1669988
  64.8760012 126.9884997  47.4199988  64.2317981 127.2302390  46.8874165
  63.1460012 122.7004997  47.8759988  63.7120012 122.8214997  47.1129988
  63.4650012 123.3374997  48.5149988  63.2665786 122.8031884  47.8580040
  69.4550012 128.2034997  48.6099988  69.2150012 128.8654997  49.2579988
  69.2570012 127.3694997  49.0349988  69.3953808 128.1813134  48.7561524
  64.0260012 127.0994997  52.5929988  63.7150012 127.8814997  53.0479988
  63.3760012 126.9464997  51.9069988  63.8955558 127.1859105  52.5625871
  70.0050012 122.4634997  40.0449988  70.5850012 122.6134997  40.7919988
  70.4190012 122.9344997  39.3219988  70.1402831 122.5476841  40.0494134
  60.9460012 123.2974997  51.8219988  61.0170012 123.9484997  52.5199988
  60.0560012 123.4004997  51.4869988  60.8353117 123.4005936  51.8722700
  67.7320012 129.2004997  43.4799988  68.2060012 129.4954997  44.2579988
  67.1690012 129.9384997  43.2469988  67.7207653 129.3406932  43.5550136
  62.2660012 129.1714997  53.3559988  62.2730012 129.0354997  52.4089988
  61.3500012 129.0534997  53.6079988  62.1431714 129.1369430  53.2604666
  73.7040012 114.2134997  39.8579988  72.8040012 114.3524997  40.1529988
  73.9560012 115.0444997  39.4559988  73.6148702 114.3449074  39.8440205
  61.7700012 123.0014997  41.8319988  61.4780012 123.7694997  41.3409988
  61.0960012 122.3414997  41.6689988  61.6389081 123.0174406  41.7427340
  74.8930012 128.5794997  38.2339988  74.9670012 129.5184997  38.4049988
  75.7990012 128.2744997  38.1779988  75.0255100 128.6666722  38.2498119
  57.8630012 125.3644997  50.6469988  57.3620012 125.3364997  49.8319988
  57.8680012 124.4584997  50.9559988  57.7951526 125.2382278  50.5772872
  57.6130012 128.1444997  47.5309988  58.5590012 128.0004997  47.5119988
  57.5010012 128.9284997  48.0679988  57.7272727 128.2308046  47.6010072
  75.8110012 128.8104997  53.2129988  75.7620012 127.8554997  53.1759988
  74.9840012 129.0784997  53.6139988  75.6924940 128.7158998  53.2621375
  66.7900012 128.3844997  52.0889988  66.8770012 129.2104997  52.5639988
  65.9260012 128.0544997  52.3379988  66.6851964 128.4529878  52.1876549
  67.2040012 132.1564997  41.8949988  67.1290012 132.0354997  40.9489988
  67.2370012 133.1064997  42.0139988  67.1981848 132.2682500  41.7814834
  60.8570012 130.9454997  43.6759988  61.0100012 130.5974997  44.5549988
  60.0070012 130.5894997  43.4209988  60.7628962 130.8496650  43.7618340
  70.3060012 131.3104997  38.8969988  70.6810012 130.5664997  38.4269988
  70.3100012 131.0404997  39.8159988  70.3578915 131.1721486  38.9567824
  69.9750012 131.2364997  41.6469988  69.0390012 131.3364997  41.8249988
  70.2550012 130.5274997  42.2249988  69.8848255 131.1542711  41.7495391
  72.9630012 120.3034997  53.6929988  72.5560012 120.7844997  52.9719988
  73.0040012 119.3984997  53.3849988  72.9128437 120.2469374  53.5526683
  60.1120012 126.6874997  51.6899988  60.3280012 126.3264997  52.5489988
  59.2570012 126.3134997  51.4799988  60.0259292 126.5874111  51.7793386
  62.7310012 115.1574997  47.6849988  61.8690012 115.0704997  47.2779988
  62.7080012 116.0134997  48.1129988  62.6100330 115.2612765  47.6871863
  67.3940012 114.8794997  51.0599988  67.8140012 114.4644997  51.8129988
  66.4610012 114.7014997  51.1769988  67.3253644 114.7985900  51.1789539
  70.7200012 118.6354997  51.9129988  70.2060012 118.5094997  52.7109988
  70.5650012 119.5474997  51.6689988  70.6286852 118.7416132  51.9892158
  71.4830012 123.4964997  37.6749988  71.5250012 123.2734997  36.7449988
  72.3320012 123.8954997  37.8649988  71.6035396 123.5199155  37.5733627
  67.0550012 117.3724997  38.3449988  66.8020012 117.3914997  39.2679988
  66.7990012 116.5004997  38.0439988  66.9857790 117.2572437  38.4306263
  62.8220012 120.1234997  48.7799988  62.1800012 120.0824997  49.4889988
  62.8590012 121.0494997  48.5429988  62.7391324 120.2431559  48.8449824
  62.8190012 120.3444997  43.6919988  61.9260012 120.0034997  43.6339988
  63.2690012 119.9674997  42.9369988  62.7577305 120.2468484  43.5819177
  68.3540012 120.7604997  42.5089988  67.9450012 121.5754997  42.2179988
  69.0750012 120.6204997  41.8949988  68.3954537 120.8532018  42.3861342
  67.4560012 120.9354997  53.9969988  66.8940012 120.2314997  54.3179988
  68.2830012 120.8154997  54.4649988  67.4907095 120.8227883  54.1042330
  69.3590012 120.2064997  45.3229988  69.1640012 120.8114997  44.6079988
  69.5400012 119.3724997  44.8889988  69.3567614 120.1766300  45.1664405
  60.5720012 120.4434997  50.6469988  60.5340012 120.8434997  51.5159988
  60.0810012 119.6264997  50.7379988  60.5004684 120.3878069  50.7781059
  63.9380012 117.8174997  37.4459988  63.5070012 117.3724997  38.1759988
  63.2200012 118.1894997  36.9339988  63.7819438 117.8068940  37.4766799
  57.1800012 117.5594997  44.4979988  57.8110012 117.5304997  45.2169988
  57.6290012 117.1344997  43.7679988  57.3270774 117.4980492  44.4976553
  58.4540012 118.3054997  39.9219988  58.9280012 118.8964997  39.3369988
  57.7370012 118.8364997  40.2689988  58.4219341 118.4580867  39.8888836
  68.6230012 121.8444997  49.9949988  68.9460012 121.2134997  49.3519988
  68.1830012 121.3094997  50.6549988  68.6076895 121.6858440  49.9962850
  65.4000012 117.7714997  44.7789988  64.4890012 117.8284997  45.0669988
  65.9060012 117.7114997  45.5889988  65.3435413 117.7711985  44.9280622
  60.2290012 119.4004997  43.6049988  59.3390012 119.5004997  43.2649988
  60.5250012 118.5584997  43.2589988  60.1472823 119.3003545  43.5117213
  63.8820012 119.4004997  41.2619988  64.8130012 119.5294997  41.4399988
  63.6670012 120.0704997  40.6119988  63.9804247 119.5086565  41.1985747
  69.8050012 117.0064997  48.0429988  69.1290012 117.1374997  48.7069988
  69.3200012 116.8514997  47.2329988  69.6467145 117.0034904  48.0244517
  62.5560012 120.5954997  38.8289988  62.0130012 120.2154997  38.1369988
  63.3890012 120.7894997  38.3999988  62.5944399 120.5698124  38.6764526
  73.0930012 132.6784997  54.3199988  73.2930012 133.1024997  53.4849988
  73.7480012 133.0214997  54.9269988  73.2090051 132.7829648  54.2877836
  60.6910012 125.1524997  53.9279988  61.4230012 125.4064997  54.4889988
  59.9110012 125.3564997  54.4429988  60.6858232 125.2149177  54.0745760
  66.7200012 120.5594997  46.6659988  67.2850012 120.0124997  46.1189988
  66.5730012 120.0374997  47.4539988  66.7772918 120.4142024  46.6978454
  61.7220012 116.6954997  43.0839988  61.4050012 115.7934997  43.0489988
  62.5040012 116.6974997  42.5309988  61.7842284 116.5721628  43.0044783
  65.3470012 118.9474997  49.0799988  64.5110012 119.4014997  49.1899988
  65.8710012 119.2234997  49.8319988  65.3034414 119.0469376  49.1967136
  65.8910012 125.1604997  40.7639988  65.1460012 124.6534997  40.4419988
  65.7570012 125.2094997  41.7109988  65.7708776 125.0976940  40.8478647
  73.0410012 124.2934997  49.5509988  73.6830012 124.7504997  49.0069988
  72.2110012 124.4064997  49.0879988  73.0165963 124.3712704  49.4140177
  69.7890012 117.9744997  38.9639988  68.8500012 118.0864997  38.8119988
  70.0860012 118.8314997  39.2699988  69.7007666 118.1056443  38.9845768
  67.4100012 125.3444997  52.0009988  67.0650012 124.9634997  52.8079988
  67.2100012 126.2784997  52.0729988  67.3358061 125.4185228  52.1210961
  70.5070012 119.8414997  40.6239988  71.3990012 119.7044997  40.9429988
  70.5640012 120.6324997  40.0879988  70.6366285 119.9296660  40.5951691
  61.0160012 124.4554997  46.5339988  61.7610012 124.4534997  45.9329988
  61.0940012 123.6324997  47.0159988  61.1285518 124.3439315  46.5168929
  68.0170012 126.6194997  39.7899988  67.7210012 127.4454997  40.1709988
  67.3140012 125.9994997  39.9859988  67.8814914 126.6488199  39.8686443
  58.0240012 122.9164997  51.8489988  58.2470012 122.4984997  52.6809988
  57.4220012 122.3034997  51.4259988  57.9731759 122.7764668  51.9057022
  65.0400012 122.4334997  54.0619988  64.7440012 122.2674997  53.1669988
  65.9720012 122.2134997  54.0509988  65.1254166 122.3810640  53.9380536
  69.6610012 127.8064997  51.9519988  68.7600012 127.9894997  51.6839988
  69.6950012 128.0654997  52.8729988  69.5423041 127.8665512  52.0398197
  75.3920012 120.0514997  40.3189988  74.8380012 119.6554997  39.6469988
  75.4920012 120.9614997  40.0409988  75.3297059 120.1203586  40.1894401
  75.3550012 125.8514997  53.1559988  74.5040012 126.0894997  52.7889988
  75.9460012 125.8344997  52.4029988  75.3182487 125.8818258  53.0038893
  73.6870012 128.8374997  40.7839988  73.3140012 128.0114997  41.0929988
  73.9650012 128.6544997  39.8869988  73.6735630 128.6997303  40.7049626
  70.8480012 123.6454997  47.8049988  69.9190012 123.4134997  47.7779988
  71.2990012 122.8684997  47.4749988  70.7819216 123.5087238  47.7566917
  63.3910012 127.9734997  43.9379988  63.9180012 128.7464997  43.7379988
  62.5110012 128.1984997  43.6369988  63.3441773 128.1098005  43.8699010
  59.1460012 122.8354997  38.5249988  59.7620012 123.4624997  38.9049988
  58.2840012 123.1514997  38.7969988  59.1137698 122.9639430  38.6137183
  64.8180012 125.6364997  43.5149988  64.5770012 126.5614997  43.5559988
  64.0770012 125.1774997  43.9109988  64.6848409 125.7011421  43.5741377
  65.3330012 129.7854997  49.8299988  65.6950012 130.6404997  49.5959988
  65.8640012 129.4934997  50.5699988  65.4544473 129.8631060  49.8980855
  63.5010012 130.6584997  43.0599988  62.5510012 130.7634997  43.1109988
  63.8530012 131.4784997  43.4049988  63.4184203 130.7838314  43.1136650
  68.8770012 125.8844997  49.5299988  68.4510012 125.6574997  50.3569988
  69.4570012 125.1464997  49.3479988  68.8971868 125.7535299  49.6185830
  71.0800012 126.8134997  38.6039988  71.4330012 126.4334997  39.4089988
  70.1310012 126.7204997  38.6909988  71.0000441 126.7489596  38.7258559
  71.5350012 130.4364997  51.9999988  70.9340012 129.8814997  51.5039988
  71.8170012 131.1034997  51.3739988  71.4908519 130.4506841  51.8474951
  75.5830012 131.2934997  38.8049988  76.3270012 131.8794997  38.6649988
  74.8890012 131.8614997  39.1389988  75.5910292 131.4505582  38.8309961
  59.6580012 117.6694997  51.4069988  58.7650012 118.0084997  51.3389988
  59.5590012 116.8144997  51.8249988  59.5224164 117.6002588  51.4542235
  71.9460012 125.4864997  40.8309988  71.6680012 124.7584997  41.3869988
  72.8730012 125.6054997  41.0359988  72.0333124 125.4028802  40.9348845
  59.3090012 129.4744997  49.8419988  59.5260012 128.5424997  49.8109988
  59.5550012 129.7484997  50.7249988  59.3719549 129.3840636  49.9571763
  65.1710012 127.9254997  37.0509988  65.4100012 127.1774997  36.5039988
  64.9020012 127.5374997  37.8839988  65.1673675 127.7706638  37.0886865
  64.1080012 127.4954997  39.5079988  64.2540012 126.9754997  40.2979988
  64.1050012 128.4024997  39.8139988  64.1275989 127.5468853  39.6576088
  60.5610012 124.7484997  40.0179988  59.8750012 125.1004997  40.5849988
  61.0830012 125.5114997  39.7709988  60.5376852 124.8998578  40.0622118
  68.3920012 117.4104997  50.2969988  69.0910012 117.4844997  50.9469988
  68.0110012 116.5464997  50.4509988  68.4361767 117.3037624  50.4068322
  69.1770012 117.0624997  41.3939988  69.3970012 117.5344997  40.5909988
  69.7350012 117.4574997  42.0639988  69.2824968 117.1804285  41.3747331
  66.8450012 129.1934997  40.2569988  66.0290012 129.6904997  40.3089988
  67.3750012 129.6684997  39.6169988  66.8049161 129.3257722  40.1775956
  66.3770012 118.7904997  42.2289988  67.1890012 119.2954997  42.2749988
  66.1320012 118.6454997  43.1429988  66.4550520 118.8400375  42.3588517
  66.9120012 119.7764997  51.4139988  67.0310012 120.3504997  52.1709988
  67.5680012 119.0884997  51.5279988  67.0169757 119.7621079  51.5330825
  67.2600012 115.8714997  43.1669988  66.9140012 116.4894997  43.8119988
  67.9190012 116.3724997  42.6859988  67.3017826 116.0235802  43.1900971
  64.1840012 130.2374997  40.2389988  64.3440012 131.0364997  39.7379988
  63.9860012 130.5434997  41.1239988  64.1791649 130.3884469  40.2899815
  62.9180012 116.9344997  39.8539988  62.8350012 117.8234997  40.2009988
  63.8080012 116.6694997  40.0859988  63.0269469 117.0201430  39.9327626
  73.1170012 117.6834997  52.2489988  72.2000012 117.9464997  52.1609988
  73.4520012 117.6804997  51.3519988  73.0369900 117.7190224  52.1157919
  71.7190012 121.4344997  46.3439988  70.9210012 121.0194997  46.0159988
  72.1640012 120.7434997  46.8349988  71.6699885 121.2843543  46.3654889
  61.1770012 127.3624997  38.9149988  61.7690012 128.0614997  39.1909988
  61.6360012 126.9294997  38.1949988  61.3201142 127.3997049  38.8554830
  59.4930012 120.0264997  38.0309988  59.4480012 120.9654997  38.2089988
  58.6050012 119.7904997  37.7609988  59.3668574 120.1231892  38.0188912
  72.8050012 130.6904997  47.9669988  72.6500012 131.3684997  47.3099988
  73.7380012 130.7624997  48.1699988  72.9098500 130.7930170  47.9045119
  60.3010012 114.8084997  46.7039988  60.0720012 114.8674997  45.7759988
  59.8580012 114.0164997  47.0099988  60.2098530 114.7095753  46.6184786
  59.2310012 128.7484997  42.8639988  58.3990012 129.2214997  42.8919988
  59.7770012 129.2584997  42.2659988  59.1909739 128.8821871  42.7869716
  58.5190012 131.3614997  54.1939988  59.0600012 131.1444997  54.9539988
  58.0380012 130.5554997  54.0049988  58.5279345 131.2229514  54.2723076
  63.1170012 130.2804997  55.8149988  63.8840012 129.8214997  56.1559988
  63.0950012 130.0544997  54.8849988  63.2191434 130.1870409  55.7360043
  67.2090012 129.7884997  37.1899988  66.5650012 129.1574997  37.5109988
  67.9710012 129.2574997  36.9579988  67.2238077 129.6302920  37.2026011
  69.6940012 128.6604997  54.5439988  69.3430012 127.8044997  54.7869988
  70.4200012 128.8034997  55.1509988  69.7440769 128.5625636  54.6593619
  71.8130012 129.6054997  37.4239988  72.0960012 128.8114997  37.8759988
  72.5530012 129.8384997  36.8629988  71.9517486 129.5282803  37.4100698
  58.4260012 125.1714997  55.1489988  58.5700012 124.2694997  54.8619988
  57.6540012 125.4574997  54.6609988  58.3413322 125.0868261  55.0437881
  62.7680012 125.5154997  37.2809988  62.8320012 124.7214997  37.8119988
  63.4210012 125.3964997  36.5909988  62.8650241 125.3907148  37.2604317
  65.0820012 125.1414997  54.5809988  64.7530012 125.4124997  53.7239988
  65.2340012 124.2004997  54.4939988  65.0574809 125.0513862  54.4518244
  68.1200012 126.5624997  37.0169988  67.8510012 126.7424997  37.9179988
  67.9140012 125.6364997  36.8859988  68.0553825 126.4620152  37.1225214
  70.8160012 125.0574997  51.9649988  71.5620012 125.6454997  51.8449988
  70.0590012 125.6394997  52.0279988  70.8157554 125.2167011  51.9570907
  59.2590012 122.3714997  54.5689988  59.6670012 121.5144997  54.4479988
  58.9990012 122.3864997  55.4899988  59.2797568 122.2560807  54.6769588
  63.9170012 123.4874997  39.5869988  63.4570012 123.0034997  40.2729988
  64.1720012 122.8194997  38.9509988  63.8884902 123.3308731  39.5949334
  63.2060012 121.3804997  51.9429988  62.5880012 122.0554997  52.2229988
  63.5500012 121.7014997  51.1099988  63.1679615 121.5162721  51.8686581
  64.9880012 121.7304997  37.8489988  64.8080012 121.5764997  36.9219988
  65.9380012 121.8384997  37.8939988  65.0917776 121.7240175  37.7281843
  68.2260012 123.8524997  55.2199988  69.1790012 123.9354997  55.1929988
  68.0650012 123.1404997  55.8399988  68.3346426 123.7676746  55.3000579
  74.3780012 124.0854997  37.2949988  74.1040012 123.6604997  36.4819988
  74.4170012 125.0164997  37.0779988  74.3457699 124.1532484  37.1543610
  63.5450012 118.7354997  53.0249988  63.6950012 118.0064997  52.4229988
  63.5480012 119.5124997  52.4659988  63.5659302 118.7407851  52.8670692
  63.9580012 117.1054997  50.5179988  64.4940012 117.5564997  49.8659988
  63.1060012 116.9974997  50.0949988  63.9162178 117.1526390  50.3715756
  65.5400012 122.5444997  50.7569988  66.2900012 122.3884997  50.1839988
  65.2010012 123.3964997  50.4819988  65.5968921 122.6382968  50.6413561
  69.9550012 120.3594997  55.7859988  70.1480012 119.4284997  55.6739988
  70.8130012 120.7844997  55.7759988  70.0973020 120.2896389  55.7693361
  71.2720012 123.1484997  53.8629988  70.9910012 123.8574997  53.2859988
  72.2150012 123.0754997  53.7119988  71.3609027 123.2357646  53.7635551
  62.0240012 119.9334997  54.9369988  61.2570012 119.4014997  54.7269988
  62.7030012 119.6234997  54.3369988  62.0107022 119.8187506  54.8271648
  64.7640012 114.5614997  50.9489988  64.6650012 115.5084997  50.8439988
  64.0210012 114.1894997  50.4739988  64.6500564 114.6405902  50.8704560
  66.0280012 118.8834997  54.5129988  65.7920012 118.6634997  55.4149988
  65.2440012 118.6764997  54.0029988  65.8898628 118.8254760  54.5673932
  68.7430012 118.0104997  53.5889988  67.7960012 118.0424997  53.7209988
  69.0560012 117.3854997  54.2419988  68.6555475 117.9303207  53.6954455
  70.3770012 116.6444997  55.5939988  70.2810012 115.6924997  55.5879988
  70.0560012 116.9134997  56.4539988  70.3204070 116.5504035  55.7095441
  60.2040012 117.8544997  54.6409988  60.4160012 117.1474997  54.0309988
  60.0930012 117.4164997  55.4849988  60.2179721 117.6987084  54.6716843
  64.9850012 113.8554997  53.6209988  65.6970012 113.2154997  53.6069988
  64.8840012 114.1224997  52.7069988  65.0687939 113.8039938  53.4955650
  65.3390012 115.5384997  55.6739988  65.2070012 115.0624997  54.8539988
  64.7400012 116.2824997  55.6189988  65.2399071 115.5739618  55.5542886
  64.8850012 132.4214997  38.8509988  65.8180012 132.5794997  38.9939988
  64.6210012 133.0964997  38.2259988  64.9769510 132.5343611  38.7860741
  58.4540012 127.0574997  38.3329988  59.3680012 127.1364997  38.6069988
  58.4610012 126.3704997  37.6669988  58.5801131 126.9753961  38.2804393
  57.1030012 132.4504997  43.4109988  56.4560012 131.9884997  42.8779988
  57.4570012 131.7784997  43.9929988  57.0623849 132.2964723  43.4167959
  57.9730012 130.5314997  45.2149988  57.6380012 129.6514997  45.3869988
  58.1950012 130.8764997  46.0799988  57.9571783 130.4577500  45.3554208
  75.5210012 131.3404997  48.1959988  75.5000012 131.5254997  49.1349988
  76.2120012 131.9094997  47.8549988  75.6114618 131.4426606  48.2783864
  75.0850012 130.9084997  51.1179988  74.5970012 130.1724997  50.7469988
  75.6340012 130.5144997  51.7959988  75.0924872 130.7546249  51.1589160
  73.5350012 126.6974997  55.7559988  72.6690012 126.5924997  56.1499988
  73.9120012 127.4564997  56.2019988  73.4673308 126.7856900  55.8702393
  74.8360012 124.9544997  41.2699988  75.6860012 125.3754997  41.3969988
  74.8420012 124.2144997  41.8769988  74.9531372 124.9120803  41.3694344
  75.2310012 123.0074997  43.0939988  74.5040012 122.5284997  43.4909988
  75.8120012 123.2134997  43.8259988  75.2099375 122.9697090  43.2474129
  74.9900012 125.7924997  48.0409988  75.8230012 125.4144997  47.7609988
  75.1020012 126.7354997  47.9219988  75.1192647 125.8682218  47.9865487
  73.4760012 128.6704997  50.3479988  72.8290012 128.9954997  50.9739988
  72.9590012 128.2304997  49.6739988  73.3174029 128.6555004  50.3425827
  75.4990012 122.9084997  39.4849988  74.9770012 123.2654997  38.7659988
  75.4660012 123.5834997  40.1629988  75.4231634 123.0485413  39.4783145
  73.8480012 120.1484997  38.0359988  73.9440012 120.8154997  37.3549988
  73.7080012 119.3324997  37.5539988  73.8422135 120.1294500  37.8778491
  73.0170012 121.5284997  43.6569988  72.8670012 120.5834997  43.6359988
  72.6640012 121.8094997  44.4999988  72.9486625 121.4370441  43.7682346
  58.0530012 123.6064997  47.6669988  58.2370012 123.5244997  46.7309988
  58.9020012 123.4824997  48.0909988  58.1930139 123.5785003  47.5961455
  73.8740012 123.4984997  53.2949988  74.4570012 122.7644997  53.4869988
  74.4380012 124.2704997  53.3419988  74.0299769 123.5024227  53.3276159
  75.3700012 121.4014997  53.9799988  74.5070012 121.0224997  53.8139988
  75.9750012 120.6624997  53.9059988  75.3335979 121.2498023  53.9472817
  73.0950012 117.5564997  37.1529988  73.7060012 117.1854997  37.7899988
  72.2590012 117.1354997  37.3489988  73.0655032 117.4487554  37.2667035
  72.7280012 119.1114997  42.1189988  73.0080012 118.2044997  42.2429988
  73.4870012 119.5454997  41.7299988  72.8689277 119.0460942  42.0833682
  73.3400012 119.6924997  47.5549988  74.2730012 119.9044997  47.5209988
  73.1050012 119.7944997  48.4769988  73.4358036 119.7352769  47.6749976
  73.3690012 120.4294997  50.3309988  72.5260012 120.6974997  50.6969988
  73.8110012 121.2514997  50.1199988  73.3134158 120.5773291  50.3525491
  57.6500012 118.8774997  53.8079988  58.5700012 118.7554997  54.0439988
  57.2010012 118.1274997  54.1969988  57.7151580 118.7593727  53.8929006
  75.6520012 114.4094997  55.6839988  76.0020012 113.7554997  55.0789988
  75.7990012 115.2464997  55.2449988  75.7198419 114.4331591  55.5417118
  73.3410012 116.3744997  42.1669988  73.5240012 115.9254997  42.9929988
  72.7420012 115.7894997  41.7039988  73.2850202 116.2339975  42.2173275
  58.8710012 117.1894997  46.6989988  59.3170012 116.3974997  47.0009988
  59.3380012 117.9054997  47.1299988  58.9950172 117.1780624  46.7984820
  57.1750012 120.1884997  47.7679988  57.6670012 119.9674997  46.9769988
  57.5380012 121.0294997  48.0489988  57.2913126 120.2718357  47.6977531
  75.1720012 116.5184997  54.0339988  74.2540012 116.7894997  53.9979988
  75.2950012 115.9834997  53.2489988  75.0631066 116.4832892  53.9230487
  75.2080012 116.4414997  38.6949988  75.6200012 115.7204997  38.2199988
  75.8900012 117.1114997  38.7539988  75.3565885 116.4332368  38.6378915
  57.4890012 116.4464997  41.8219988  56.5640012 116.6554997  41.6929988
  57.9430012 116.9304997  41.1329988  57.4237368 116.5405993  41.7111226
  72.2600012 131.4304997  43.7679988  72.9120012 131.0834997  43.1599988
  72.7700012 131.9194997  44.4139988  72.4182637 131.4490597  43.7720236
  57.4530012 115.1844997  50.1669988  56.7880012 114.9384997  50.8099988
  57.0100012 115.8064997  49.5889988  57.3020956 115.2348632  50.1769352
  59.6450012 128.3594997  54.3109988  58.8240012 128.5344997  53.8509988
  59.3920012 128.2864997  55.2319988  59.4986164 128.3735622  54.3724923
  62.5990012 129.3344997  50.5699988  62.1740012 130.1434997  50.2869988
  63.5030012 129.4194997  50.2679988  62.6630271 129.4568469  50.4903776
  66.9100012 130.7334997  53.5289988  67.0950012 130.3994997  54.4069988
  67.7560012 131.0424997  53.2069988  67.0497539 130.7296047  53.6055605
  69.2550012 132.0194997  52.7729988  69.9320012 131.3864997  52.5329988
  69.5770012 132.4204997  53.5799988  69.3911637 131.9871154  52.8492793
  74.1720012 114.6084997  51.8529988  73.3600012 114.9334997  51.4649988
  74.4050012 113.8484997  51.3199988  74.0923423 114.5502436  51.7278253
  60.0010012 132.5904997  50.6169988  59.2800012 133.0304997  50.1659988
  59.6350012 132.3394997  51.4659988  59.8529804 132.6167698  50.6699840
  62.4680012 132.1904997  49.6469988  61.6030012 132.2624997  50.0509988
  62.4130012 132.7374997  48.8629988  62.3422085 132.2742685  49.5963362
  67.1780012 132.0784997  48.8219988  66.7220012 132.6074997  48.1679988
  67.3410012 132.6814997  49.5479988  67.1375585 132.2324468  48.8305062
  69.5060012 130.9564997  49.7669988  68.6010012 131.1214997  49.5019988
  69.9350012 131.8094997  49.7019988  69.4400799 131.0944483  49.7219182
  72.1100012 132.5264997  50.0619988  71.9280012 133.4424997  49.8519988
  72.2870012 132.1164997  49.2159988  72.1090210 132.5964822  49.9187885
  59.4150012 131.2134997  47.5269988  59.3970012 130.7884997  48.3849988
  60.2200012 130.8954997  47.1189988  59.5213875 131.1123812  47.5891655
  61.5570012 129.9234997  46.1819988  61.3380012 129.0074997  46.3519988
  62.3810012 130.0634997  46.6479988  61.6384420 129.8170520  46.2682774
  64.0940012 130.3934997  47.0309988  64.3070012 129.5054997  46.7439988
  64.1580012 130.3594997  47.9849988  64.1318232 130.2673102  47.1207397
  67.6020012 116.0574997  46.1749988  66.9280012 115.4284997  46.4309988
  68.1660012 115.5734997  45.5719988  67.5859230 115.9058744  46.1285340
  72.7450012 114.1654997  46.2879988  73.3490012 114.7124997  45.7859988
  71.8750012 114.4844997  46.0479988  72.7101241 114.2835806  46.1867654
  74.4720012 115.3034997  44.6209988  75.0840012 114.7894997  44.0949988
  74.8540012 116.1814997  44.6449988  74.6074540 115.3517140  44.5521830
  59.9290012 114.6914997  43.9969988  59.1520012 114.4574997  43.4899988
  60.4590012 113.8944997  44.0059988  59.8942330 114.5516988  43.9287742
  58.7650012 114.4894997  39.8009988  59.2040012 115.1004997  39.2089988
  58.1320012 115.0274997  40.2749988  58.7394514 114.6459257  39.7840930
  64.5080012 114.6184997  43.8109988  65.3830012 115.0064997  43.7809988
  64.3720012 114.4034997  44.7329988  64.6093695 114.6425184  43.9316440
  70.0650012 114.6484997  45.4599988  70.1410012 114.7434997  44.5099988
  69.7900012 113.7404997  45.5889988  70.0382321 114.5387867  45.3475079
  71.4180012 114.6744997  41.1519988  70.7160012 115.2894997  40.9429988
  70.9740012 113.8364997  41.2829988  71.2616330 114.6455783  41.1410328
  58.6660012 130.4374997  40.6989988  57.9810012 130.3994997  40.0309988
  58.6700012 131.3504997  40.9869988  58.5728193 130.5557016  40.6465284
  60.6260012 116.4054997  38.2429988  61.1180012 115.7754997  37.7159988
  61.2500012 116.7014997  38.9069988  60.7775446 116.3593199  38.2605980
  65.6520012 116.6984997  40.6999988  65.8300012 116.0524997  41.3829988
  65.5990012 117.5324997  41.1679988  65.6691829 116.7227985  40.8565940
  67.5310012 131.6474997  39.0959988  68.3970012 132.0134997  38.9179988
  67.2840012 131.2074997  38.2819988  67.6162392 131.6381756  38.9616289
  74.2400012 131.2104997  41.7749988  74.0450012 130.4624997  41.2099988
  74.2010012 131.9684997  41.1919988  74.2080380 131.2106099  41.6188384
  59.8870012 115.2054997  53.5149988  59.5210012 114.4404997  53.9579988
  60.8000012 115.2344997  53.8019988  59.9602790 115.1047224  53.6144070
  61.8600012 114.5564997  55.0509988  62.7580012 114.2824997  54.8659988
  61.4730012 113.8134997  55.5149988  61.9306612 114.4185914  55.0883643
  60.4840012 131.3574997  37.7239988  60.2170012 131.6444997  38.5969988
  61.2560012 130.8114997  37.8759988  60.5517488 131.3230294  37.8641050
  70.2810012 113.8884997  55.2329988  70.3580012 113.4624997  56.0869988
  71.1750012 113.9024997  54.8899988  70.4123428 113.8320879  55.3035310
  73.4570012 129.9614997  53.9249988  72.6750012 129.7754997  53.4059988
  73.3850012 130.8904997  54.1429988  73.3401777 130.0616492  53.8834048
  87.8630012 123.8474997  43.9559988  87.9520012 124.7914997  43.8239988
  87.2250012 123.5724997  43.2979988  87.7889081 123.9394830  43.8489614
  86.7960012 123.1024997  47.3749988  86.7580012 122.4564997  48.0799988
  86.4740012 122.6364997  46.6039988  86.7472333 122.9509408  47.3672978
  79.1650012 122.7174997  48.9679988  79.2060012 122.0914997  49.6909988
  79.8680012 123.3414997  49.1499988  79.2656363 122.7161196  49.0916044
  90.5020012 126.0414997  45.6759988  90.0620012 125.3214997  46.1269988
  90.4890012 126.7624997  46.3059988  90.4400226 126.0403731  45.8228494
  80.0880012 127.1674997  47.5029988  79.7190012 126.3654997  47.1329988
  81.0290012 126.9984997  47.5489988  80.1647289 127.0350153  47.4586316
  76.6980012 120.8274997  42.8959988  76.2510012 121.6734997  42.8769988
  76.1370012 120.2474997  42.3799988  76.5609900 120.8649916  42.8236801
  77.4090012 122.9894997  45.0219988  77.6220012 122.2194997  45.5489988
  78.1470012 123.0784997  44.4179988  77.5378496 122.8961394  45.0125300
  87.6140012 131.1464997  45.8889988  88.2340012 130.4694997  45.6149988
  87.4060012 130.9284997  46.7969988  87.6706904 131.0243870  45.9743365
  85.1860012 125.5354997  47.7809988  85.4900012 124.8494997  47.1859988
  85.9070012 125.6534997  48.3989988  85.3250671 125.4576305  47.7831816
  93.8490012 117.1364997  48.6419988  93.8980012 117.7464997  49.3779988
  94.2740012 117.5974997  47.9189988  93.9131824 117.2823741  48.6450205
  88.3270012 119.9294997  48.1089988  88.4690012 118.9834997  48.1289988
  88.2200012 120.1364997  47.1799988  88.3319864 119.8279534  47.9862339
  81.4810012 118.0304997  45.3809988  81.5250012 118.8904997  44.9629988
  81.0240012 117.4784997  44.7469988  81.4252185 118.0735799  45.2380299
  89.2040012 118.1614997  43.7819988  89.8500012 117.8324997  44.4069988
  89.7140012 118.6794997  43.1589988  89.3614264 118.1864611  43.7833862
  78.1020012 120.4274997  46.1429988  78.7550012 119.8774997  46.5749988
  78.1260012 120.1534997  45.2259988  78.1946683 120.3151466  46.0782123
  83.2580012 121.9774997  45.3579988  83.8740012 121.4514997  45.8679988
  82.6720012 121.3374997  44.9549988  83.2630810 121.8189208  45.3733173
  94.2400012 118.6144997  50.8779988  93.5520012 119.2724997  50.7819988
  94.2560012 118.4174997  51.8139988  94.1478525 118.6780462  50.9914808
  80.2920012 116.9484997  49.4549988  80.0730012 117.4784997  48.6889988
  79.6240012 117.1754997  50.1019988  80.1717600 117.0516906  49.4376379
  87.6610012 126.4484997  42.9989988  87.3650012 126.1264997  42.1479988
  87.3360012 127.3484997  43.0399988  87.5766371 126.5260215  42.8881801
  82.8610012 124.6244997  49.7419988  82.1210012 125.2224997  49.8459988
  83.5750012 125.1784997  49.4269988  82.8562237 124.7812831  49.7136465
  90.9680012 117.4524997  45.7619988  90.7520012 116.6864997  46.2949988
  91.6230012 117.9244997  46.2749988  91.0270632 117.4115889  45.9042861
  79.8850012 118.8404997  47.4069988  80.4990012 119.4734997  47.7809988
  80.3970012 118.3684997  46.7509988  80.0382296 118.8632370  47.3694252
  81.2680012 126.5884997  50.5299988  81.2630012 127.4684997  50.1519988
  80.4150012 126.5054997  50.9549988  81.1519464 126.6976117  50.5357907
  77.3890012 126.2594997  41.3119988  77.1170012 126.4884997  40.4229988
  77.4350012 127.0974997  41.7719988  77.3580094 126.4041213  41.2525697
  91.0140012 127.8814997  48.0239988  90.0730012 127.9394997  48.1859988
  91.2910012 128.7874997  47.8869988  90.9224679 128.0119443  48.0276815
  91.3150012 116.1674997  49.4419988  90.5790012 116.7784997  49.4039988
  91.9980012 116.5824997  48.9149988  91.3066541 116.3071374  49.3655832
  84.3180012 114.2544997  46.9079988  84.2010012 113.3054997  46.8529988
  83.4630012 114.5864997  47.1809988  84.1863733 114.1695409  46.9373897
  89.2660012 129.6624997  44.6499988  89.6920012 128.9554997  44.1649988
  89.5830012 130.4634997  44.2329988  89.3671019 129.6740994  44.5273130
  90.4260012 127.5634997  43.1579988  90.1680012 126.8734997  42.5469988
  90.4970012 127.1204997  44.0039988  90.4002856 127.4092124  43.1886885
  92.1120012 126.1294997  51.6359988  92.2520012 125.5384997  50.8959988
  92.2790012 127.0024997  51.2789988  92.1536778 126.1666426  51.4866965
  86.5850012 123.0914997  41.4079988  85.8730012 123.6264997  41.0559988
  87.2760012 123.1474997  40.7479988  86.5810132 123.1722543  41.2706289
  86.6380012 121.5494997  38.4469988  87.3390012 121.5714997  39.0979988
  86.9410012 120.9214997  37.7909988  86.7747830 121.4676566  38.4473711
  93.9540012 122.4694997  49.7019988  93.3010012 123.1644997  49.7909988
  94.4190012 122.6794997  48.8919988  93.9275390 122.5929425  49.6046883
  89.9900012 123.3014997  42.3599988  89.2580012 123.5294997  42.9329988
  90.4380012 122.5874997  42.8149988  89.9503095 123.2362571  42.4999119
  89.8880012 121.4754997  51.4269988  89.9680012 122.2384997  51.9989988
  89.2860012 121.7544997  50.7369988  89.8175756 121.6177134  51.4120589
  81.6360012 123.9314997  44.2419988  81.3050012 123.5614997  43.4239988
  82.2240012 123.2614997  44.5889988  81.6701873 123.7901156  44.1768102
  83.0020012 127.3594997  46.9239988  82.9080012 126.7814997  46.1669988
  83.7320012 126.9884997  47.4199988  83.0877981 127.2302390  46.8874165
  82.0020012 122.7004997  47.8759988  82.5680012 122.8214997  47.1129988
  82.3210012 123.3374997  48.5149988  82.1225786 122.8031884  47.8580040
  88.3110012 128.2034997  48.6099988  88.0710012 128.8654997  49.2579988
  88.1130012 127.3694997  49.0349988  88.2513808 128.1813134  48.7561524
  82.8820012 127.0994997  52.5929988  82.5710012 127.8814997  53.0479988
  82.2320012 126.9464997  51.9069988  82.7515558 127.1859105  52.5625871
  88.8610012 122.4634997  40.0449988  89.4410012 122.6134997  40.7919988
  89.2750012 122.9344997  39.3219988  88.9962830 122.5476841  40.0494134
  79.8020012 123.2974997  51.8219988  79.8730012 123.9484997  52.5199988
  78.9120012 123.4004997  51.4869988  79.6913117 123.4005936  51.8722700
  86.5880012 129.2004997  43.4799988  87.0620012 129.4954997  44.2579988
  86.0250012 129.9384997  43.2469988  86.5767653 129.3406932  43.5550136
  81.1220012 129.1714997  53.3559988  81.1290012 129.0354997  52.4089988
  80.2060012 129.0534997  53.6079988  80.9991714 129.1369430  53.2604666
  92.5600012 114.2134997  39.8579988  91.6600012 114.3524997  40.1529988
  92.8120012 115.0444997  39.4559988  92.4708702 114.3449074  39.8440205
  80.6260012 123.0014997  41.8319988  80.3340012 123.7694997  41.3409988
  79.9520012 122.3414997  41.6689988  80.4949081 123.0174406  41.7427340
  93.7490012 128.5794997  38.2339988  93.8230012 129.5184997  38.4049988
  94.6550012 128.2744997  38.1779988  93.8815100 128.6666722  38.2498119
  76.7190012 125.3644997  50.6469988  76.2180012 125.3364997  49.8319988
  76.7240012 124.4584997  50.9559988  76.6511526 125.2382278  50.5772872
  76.4690012 128.1444997  47.5309988  77.4150012 128.0004997  47.5119988
  76.3570012 128.9284997  48.0679988  76.5832727 128.2308046  47.6010072
  94.6670012 128.8104997  53.2129988  94.6180012 127.8554997  53.1759988
  93.8400012 129.0784997  53.6139988  94.5484940 128.7158998  53.2621375
  85.6460012 128.3844997  52.0889988  85.7330012 129.2104997  52.5639988
  84.7820012 128.0544997  52.3379988  85.5411964 128.4529878  52.1876549
  86.0600012 132.1564997  41.8949988  85.9850012 132.0354997  40.9489988
  86.0930012 133.1064997  42.0139988  86.0541848 132.2682500  41.7814834
  79.7130012 130.9454997  43.6759988  79.8660012 130.5974997  44.5549988
  78.8630012 130.5894997  43.4209988  79.6188962 130.8496650  43.7618340
  89.1620012 131.3104997  38.8969988  89.5370012 130.5664997  38.4269988
  89.1660012 131.0404997  39.8159988  89.2138915 131.1721486  38.9567824
  88.8310012 131.2364997  41.6469988  87.8950012 131.3364997  41.8249988
  89.1110012 130.5274997  42.2249988  88.7408255 131.1542711  41.7495391
  91.8190012 120.3034997  53.6929988  91.4120012 120.7844997  52.9719988
  91.8600012 119.3984997  53.3849988  91.7688437 120.2469374  53.5526683
  78.9680012 126.6874997  51.6899988  79.1840012 126.3264997  52.5489988
  78.1130012 126.3134997  51.4799988  78.8819292 126.5874111  51.7793386
  81.5870012 115.1574997  47.6849988  80.7250012 115.0704997  47.2779988
  81.5640012 116.0134997  48.1129988  81.4660330 115.2612765  47.6871863
  86.2500012 114.8794997  51.0599988  86.6700012 114.4644997  51.8129988
  85.3170012 114.7014997  51.1769988  86.1813644 114.7985900  51.1789539
  89.5760012 118.6354997  51.9129988  89.0620012 118.5094997  52.7109988
  89.4210012 119.5474997  51.6689988  89.4846852 118.7416132  51.9892158
  90.3390012 123.4964997  37.6749988  90.3810012 123.2734997  36.7449988
  91.1880012 123.8954997  37.8649988  90.4595396 123.5199155  37.5733627
  85.9110012 117.3724997  38.3449988  85.6580012 117.3914997  39.2679988
  85.6550012 116.5004997  38.0439988  85.8417790 117.2572437  38.4306263
  81.6780012 120.1234997  48.7799988  81.0360012 120.0824997  49.4889988
  81.7150012 121.0494997  48.5429988  81.5951324 120.2431559  48.8449824
  81.6750012 120.3444997  43.6919988  80.7820012 120.0034997  43.6339988
  82.1250012 119.9674997  42.9369988  81.6137305 120.2468484  43.5819177
  87.2100012 120.7604997  42.5089988  86.8010012 121.5754997  42.2179988
  87.9310012 120.6204997  41.8949988  87.2514537 120.8532018  42.3861342
  86.3120012 120.9354997  53.9969988  85.7500012 120.2314997  54.3179988
  87.1390012 120.8154997  54.4649988  86.3467095 120.8227883  54.1042330
  88.2150012 120.2064997  45.3229988  88.0200012 120.8114997  44.6079988
  88.3960012 119.3724997  44.8889988  88.2127614 120.1766300  45.1664405
  79.4280012 120.4434997  50.6469988  79.3900012 120.8434997  51.5159988
  78.9370012 119.6264997  50.7379988  79.3564684 120.3878069  50.7781059
  82.7940012 117.8174997  37.4459988  82.3630012 117.3724997  38.1759988
  82.0760012 118.1894997  36.9339988  82.6379438 117.8068940  37.4766799
  76.0360012 117.5594997  44.4979988  76.6670012 117.5304997  45.2169988
  76.4850012 117.1344997  43.7679988  76.1830774 117.4980492  44.4976553
  77.3100012 118.3054997  39.9219988  77.7840012 118.8964997  39.3369988
  76.5930012 118.8364997  40.2689988  77.2779341 118.4580867  39.8888836
  87.4790012 121.8444997  49.9949988  87.8020012 121.2134997  49.3519988
  87.0390012 121.3094997  50.6549988  87.4636895 121.6858441  49.9962850
  84.2560012 117.7714997  44.7789988  83.3450012 117.8284997  45.0669988
  84.7620012 117.7114997  45.5889988  84.1995413 117.7711985  44.9280622
  79.0850012 119.4004997  43.6049988  78.1950012 119.5004997  43.2649988
  79.3810012 118.5584997  43.2589988  79.0032823 119.3003545  43.5117213
  82.7380012 119.4004997  41.2619988  83.6690012 119.5294997  41.4399988
  82.5230012 120.0704997  40.6119988  82.8364247 119.5086565  41.1985747
  88.6610012 117.0064997  48.0429988  87.9850012 117.1374997  48.7069988
  88.1760012 116.8514997  47.2329988  88.5027145 117.0034904  48.0244517
  81.4120012 120.5954997  38.8289988  80.8690012 120.2154997  38.1369988
  82.2450012 120.7894997  38.3999988  81.4504399 120.5698124  38.6764526
  91.9490012 132.6784997  54.3199988  92.1490012 133.1024997  53.4849988
  92.6040012 133.0214997  54.9269988  92.0650051 132.7829648  54.2877836
  79.5470012 125.1524997  53.9279988  80.2790012 125.4064997  54.4889988
  78.7670012 125.3564997  54.4429988  79.5418232 125.2149177  54.0745760
  85.5760012 120.5594997  46.6659988  86.1410012 120.0124997  46.1189988
  85.4290012 120.0374997  47.4539988  85.6332918 120.4142024  46.6978454
  80.5780012 116.6954997  43.0839988  80.2610012 115.7934997  43.0489988
  81.3600012 116.6974997  42.5309988  80.6402284 116.5721628  43.0044783
  84.2030012 118.9474997  49.0799988  83.3670012 119.4014997  49.1899988
  84.7270012 119.2234997  49.8319988  84.1594414 119.0469376  49.1967136
  84.7470012 125.1604997  40.7639988  84.0020012 124.6534997  40.4419988
  84.6130012 125.2094997  41.7109988  84.6268776 125.0976940  40.8478647
  91.8970012 124.2934997  49.5509988  92.5390012 124.7504997  49.0069988
  91.0670012 124.4064997  49.0879988  91.8725963 124.3712704  49.4140177
  88.6450012 117.9744997  38.9639988  87.7060012 118.0864997  38.8119988
  88.9420012 118.8314997  39.2699988  88.5567666 118.1056443  38.9845768
  86.2660012 125.3444997  52.0009988  85.9210012 124.9634997  52.8079988
  86.0660012 126.2784997  52.0729988  86.1918061 125.4185228  52.1210961
  89.3630012 119.8414997  40.6239988  90.2550012 119.7044997  40.9429988
  89.4200012 120.6324997  40.0879988  89.4926285 119.9296660  40.5951691
  79.8720012 124.4554997  46.5339988  80.6170012 124.4534997  45.9329988
  79.9500012 123.6324997  47.0159988  79.9845518 124.3439315  46.5168929
  86.8730012 126.6194997  39.7899988  86.5770012 127.4454997  40.1709988
  86.1700012 125.9994997  39.9859988  86.7374914 126.6488199  39.8686443
  76.8800012 122.9164997  51.8489988  77.1030012 122.4984997  52.6809988
  76.2780012 122.3034997  51.4259988  76.8291759 122.7764668  51.9057022
  83.8960012 122.4334997  54.0619988  83.6000012 122.2674997  53.1669988
  84.8280012 122.2134997  54.0509988  83.9814166 122.3810640  53.9380536
  88.5170012 127.8064997  51.9519988  87.6160012 127.9894997  51.6839988
  88.5510012 128.0654997  52.8729988  88.3983041 127.8665512  52.0398197
  94.2480012 120.0514997  40.3189988  93.6940012 119.6554997  39.6469988
  94.3480012 120.9614997  40.0409988  94.1857059 120.1203586  40.1894401
  94.2110012 125.8514997  53.1559988  93.3600012 126.0894997  52.7889988
  94.8020012 125.8344997  52.4029988  94.1742487 125.8818258  53.0038893
  92.5430012 128.8374997  40.7839988  92.1700012 128.0114997  41.0929988
  92.8210012 128.6544997  39.8869988  92.5295630 128.6997303  40.7049626
  89.7040012 123.6454997  47.8049988  88.7750012 123.4134997  47.7779988
  90.1550012 122.8684997  47.4749988  89.6379216 123.5087238  47.7566917
  82.2470012 127.9734997  43.9379988  82.7740012 128.7464997  43.7379988
  81.3670012 128.1984997  43.6369988  82.2001773 128.1098005  43.8699010
  78.0020012 122.8354997  38.5249988  78.6180012 123.4624997  38.9049988
  77.1400012 123.1514997  38.7969988  77.9697698 122.9639430  38.6137183
  83.6740012 125.6364997  43.5149988  83.4330012 126.5614997  43.5559988
  82.9330012 125.1774997  43.9109988  83.5408409 125.7011421  43.5741377
  84.1890012 129.7854997  49.8299988  84.5510012 130.6404997  49.5959988
  84.7200012 129.4934997  50.5699988  84.3104473 129.8631060  49.8980855
  82.3570012 130.6584997  43.0599988  81.4070012 130.7634997  43.1109988
  82.7090012 131.4784997  43.4049988  82.2744203 130.7838314  43.1136650
  87.7330012 125.8844997  49.5299988  87.3070012 125.6574997  50.3569988
  88.3130012 125.1464997  49.3479988  87.7531868 125.7535299  49.6185830
  89.9360012 126.8134997  38.6039988  90.2890012 126.4334997  39.4089988
  88.9870012 126.7204997  38.6909988  89.8560441 126.7489596  38.7258559
  90.3910012 130.4364997  51.9999988  89.7900012 129.8814997  51.5039988
  90.6730012 131.1034997  51.3739988  90.3468519 130.4506841  51.8474952
  94.4390012 131.2934997  38.8049988  95.1830012 131.8794997  38.6649988
  93.7450012 131.8614997  39.1389988  94.4470292 131.4505582  38.8309961
  78.5140012 117.6694997  51.4069988  77.6210012 118.0084997  51.3389988
  78.4150012 116.8144997  51.8249988  78.3784164 117.6002588  51.4542235
  90.8020012 125.4864997  40.8309988  90.5240012 124.7584997  41.3869988
  91.7290012 125.6054997  41.0359988  90.8893124 125.4028802  40.9348845
  78.1650012 129.4744997  49.8419988  78.3820012 128.5424997  49.8109988
  78.4110012 129.7484997  50.7249988  78.2279549 129.3840636  49.9571763
  84.0270012 127.9254997  37.0509988  84.2660012 127.1774997  36.5039988
  83.7580012 127.5374997  37.8839988  84.0233675 127.7706638  37.0886865
  82.9640012 127.4954997  39.5079988  83.1100012 126.9754997  40.2979988
  82.9610012 128.4024997  39.8139988  82.9835989 127.5468853  39.6576088
  79.4170012 124.7484997  40.0179988  78.7310012 125.1004997  40.5849988
  79.9390012 125.5114997  39.7709988  79.3936852 124.8998578  40.0622118
  87.2480012 117.4104997  50.2969988  87.9470012 117.4844997  50.9469988
  86.8670012 116.5464997  50.4509988  87.2921767 117.3037624  50.4068322
  88.0330012 117.0624997  41.3939988  88.2530012 117.5344997  40.5909988
  88.5910012 117.4574997  42.0639988  88.1384968 117.1804285  41.3747331
  85.7010012 129.1934997  40.2569988  84.8850012 129.6904997  40.3089988
  86.2310012 129.6684997  39.6169988  85.6609161 129.3257722  40.1775956
  85.2330012 118.7904997  42.2289988  86.0450012 119.2954997  42.2749988
  84.9880012 118.6454997  43.1429988  85.3110520 118.8400375  42.3588517
  85.7680012 119.7764997  51.4139988  85.8870012 120.3504997  52.1709988
  86.4240012 119.0884997  51.5279988  85.8729757 119.7621079  51.5330825
  86.1160012 115.8714997  43.1669988  85.7700012 116.4894997  43.8119988
  86.7750012 116.3724997  42.6859988  86.1577826 116.0235802  43.1900971
  83.0400012 130.2374997  40.2389988  83.2000012 131.0364997  39.7379988
  82.8420012 130.5434997  41.1239988  83.0351649 130.3884469  40.2899815
  81.7740012 116.9344997  39.8539988  81.6910012 117.8234997  40.2009988
  82.6640012 116.6694997  40.0859988  81.8829469 117.0201430  39.9327626
  91.9730012 117.6834997  52.2489988  91.0560012 117.9464997  52.1609988
  92.3080012 117.6804997  51.3519988  91.8929900 117.7190224  52.1157919
  90.5750012 121.4344997  46.3439988  89.7770012 121.0194997  46.0159988
  91.0200012 120.7434997  46.8349988  90.5259885 121.2843543  46.3654889
  80.0330012 127.3624997  38.9149988  80.6250012 128.0614997  39.1909988
  80.4920012 126.9294997  38.1949988  80.1761142 127.3997049  38.8554830
  78.3490012 120.0264997  38.0309988  78.3040012 120.9654997  38.2089988
  77.4610012 119.7904997  37.7609988  78.2228574 120.1231892  38.0188912
  91.6610012 130.6904997  47.9669988  91.5060012 131.3684997  47.3099988
  92.5940012 130.7624997  48.1699988  91.7658500 130.7930170  47.9045119
  79.1570012 114.8084997  46.7039988  78.9280012 114.8674997  45.7759988
  78.7140012 114.0164997  47.0099988  79.0658530 114.7095753  46.6184786
  78.0870012 128.7484997  42.8639988  77.2550012 129.2214997  42.8919988
  78.6330012 129.2584997  42.2659988  78.0469739 128.8821871  42.7869716
  77.3750012 131.3614997  54.1939988  77.9160012 131.1444997  54.9539988
  76.8940012 130.5554997  54.0049988  77.3839345 131.2229514  54.2723076
  81.9730012 130.2804997  55.8149988  82.7400012 129.8214997  56.1559988
  81.9510012 130.0544997  54.8849988  82.0751434 130.1870409  55.7360043
  86.0650012 129.7884997  37.1899988  85.4210012 129.1574997  37.5109988
  86.8270012 129.2574997  36.9579988  86.0798077 129.6302920  37.2026011
  88.5500012 128.6604997  54.5439988  88.1990012 127.8044997  54.7869988
  89.2760012 128.8034997  55.1509988  88.6000769 128.5625636  54.6593619
  90.6690012 129.6054997  37.4239988  90.9520012 128.8114997  37.8759988
  91.4090012 129.8384997  36.8629988  90.8077486 129.5282803  37.4100698
  77.2820012 125.1714997  55.1489988  77.4260012 124.2694997  54.8619988
  76.5100012 125.4574997  54.6609988  77.1973322 125.0868261  55.0437881
  81.6240012 125.5154997  37.2809988  81.6880012 124.7214997  37.8119988
  82.2770012 125.3964997  36.5909988  81.7210241 125.3907148  37.2604317
  83.9380012 125.1414997  54.5809988  83.6090012 125.4124997  53.7239988
  84.0900012 124.2004997  54.4939988  83.9134809 125.0513862  54.4518244
  86.9760012 126.5624997  37.0169988  86.7070012 126.7424997  37.9179988
  86.7700012 125.6364997  36.8859988  86.9113825 126.4620152  37.1225214
  89.6720012 125.0574997  51.9649988  90.4180012 125.6454997  51.8449988
  88.9150012 125.6394997  52.0279988  89.6717554 125.2167011  51.9570907
  78.1150012 122.3714997  54.5689988  78.5230012 121.5144997  54.4479988
  77.8550012 122.3864997  55.4899988  78.1357568 122.2560807  54.6769588
  82.7730012 123.4874997  39.5869988  82.3130012 123.0034997  40.2729988
  83.0280012 122.8194997  38.9509988  82.7444902 123.3308731  39.5949334
  82.0620012 121.3804997  51.9429988  81.4440012 122.0554997  52.2229988
  82.4060012 121.7014997  51.1099988  82.0239615 121.5162721  51.8686581
  83.8440012 121.7304997  37.8489988  83.6640012 121.5764997  36.9219988
  84.7940012 121.8384997  37.8939988  83.9477776 121.7240175  37.7281843
  87.0820012 123.8524997  55.2199988  88.0350012 123.9354997  55.1929988
  86.9210012 123.1404997  55.8399988  87.1906426 123.7676746  55.3000579
  93.2340012 124.0854997  37.2949988  92.9600012 123.6604997  36.4819988
  93.2730012 125.0164997  37.0779988  93.2017699 124.1532484  37.1543610
  82.4010012 118.7354997  53.0249988  82.5510012 118.0064997  52.4229988
  82.4040012 119.5124997  52.4659988  82.4219302 118.7407851  52.8670692
  82.8140012 117.1054997  50.5179988  83.3500012 117.5564997  49.8659988
  81.9620012 116.9974997  50.0949988  82.7722178 117.1526390  50.3715756
  84.3960012 122.5444997  50.7569988  85.1460012 122.3884997  50.1839988
  84.0570012 123.3964997  50.4819988  84.4528921 122.6382968  50.6413561
  88.8110012 120.3594997  55.7859988  89.0040012 119.4284997  55.6739988
  89.6690012 120.7844997  55.7759988  88.9533020 120.2896389  55.7693361
  90.1280012 123.1484997  53.8629988  89.8470012 123.8574997  53.2859988
  91.0710012 123.0754997  53.7119988  90.2169027 123.2357646  53.7635551
  80.8800012 119.9334997  54.9369988  80.1130012 119.4014997  54.7269988
  81.5590012 119.6234997  54.3369988  80.8667022 119.8187506  54.8271648
  83.6200012 114.5614997  50.9489988  83.5210012 115.5084997  50.8439988
  82.8770012 114.1894997  50.4739988  83.5060564 114.6405902  50.8704560
  84.8840012 118.8834997  54.5129988  84.6480012 118.6634997  55.4149988
  84.1000012 118.6764997  54.0029988  84.7458628 118.8254760  54.5673932
  87.5990012 118.0104997  53.5889988  86.6520012 118.0424997  53.7209988
  87.9120012 117.3854997  54.2419988  87.5115475 117.9303207  53.6954455
  89.2330012 116.6444997  55.5939988  89.1370012 115.6924997  55.5879988
  88.9120012 116.9134997  56.4539988  89.1764070 116.5504035  55.7095441
  79.0600012 117.8544997  54.6409988  79.2720012 117.1474997  54.0309988
  78.9490012 117.4164997  55.4849988  79.0739721 117.6987084  54.6716843
  83.8410012 113.8554997  53.6209988  84.5530012 113.2154997  53.6069988
  83.7400012 114.1224997  52.7069988  83.9247939 113.8039938  53.4955650
  84.1950012 115.5384997  55.6739988  84.0630012 115.0624997  54.8539988
  83.5960012 116.2824997  55.6189988  84.0959071 115.5739618  55.5542886
  83.7410012 132.4214997  38.8509988  84.6740012 132.5794997  38.9939988
  83.4770012 133.0964997  38.2259988  83.8329510 132.5343611  38.7860741
  77.3100012 127.0574997  38.3329988  78.2240012 127.1364997  38.6069988
  77.3170012 126.3704997  37.6669988  77.4361131 126.9753961  38.2804393
  75.9590012 132.4504997  43.4109988  75.3120012 131.9884997  42.8779988
  76.3130012 131.7784997  43.9929988  75.9183849 132.2964723  43.4167959
  76.8290012 130.5314997  45.2149988  76.4940012 129.6514997  45.3869988
  77.0510012 130.8764997  46.0799988  76.8131783 130.4577500  45.3554208
  94.3770012 131.3404997  48.1959988  94.3560012 131.5254997  49.1349988
  95.0680012 131.9094997  47.8549988  94.4674618 131.4426606  48.2783864
  93.9410012 130.9084997  51.1179988  93.4530012 130.1724997  50.7469988
  94.4900012 130.5144997  51.7959988  93.9484872 130.7546249  51.1589160
  92.3910012 126.6974997  55.7559988  91.5250012 126.5924997  56.1499988
  92.7680012 127.4564997  56.2019988  92.3233308 126.7856900  55.8702393
  93.6920012 124.9544997  41.2699988  94.5420012 125.3754997  41.3969988
  93.6980012 124.2144997  41.8769988  93.8091372 124.9120803  41.3694344
  94.0870012 123.0074997  43.0939988  93.3600012 122.5284997  43.4909988
  94.6680012 123.2134997  43.8259988  94.0659375 122.9697090  43.2474129
  93.8460012 125.7924997  48.0409988  94.6790012 125.4144997  47.7609988
  93.9580012 126.7354997  47.9219988  93.9752647 125.8682218  47.9865487
  92.3320012 128.6704997  50.3479988  91.6850012 128.9954997  50.9739988
  91.8150012 128.2304997  49.6739988  92.1734029 128.6555004  50.3425827
  94.3550012 122.9084997  39.4849988  93.8330012 123.2654997  38.7659988
  94.3220012 123.5834997  40.1629988  94.2791634 123.0485413  39.4783145
  92.7040012 120.1484997  38.0359988  92.8000012 120.8154997  37.3549988
  92.5640012 119.3324997  37.5539988  92.6982135 120.1294500  37.8778491
  91.8730012 121.5284997  43.6569988  91.7230012 120.5834997  43.6359988
  91.5200012 121.8094997  44.4999988  91.8046625 121.4370441  43.7682346
  76.9090012 123.6064997  47.6669988  77.0930012 123.5244997  46.7309988
  77.7580012 123.4824997  48.0909988  77.0490139 123.5785003  47.5961455
  92.7300012 123.4984997  53.2949988  93.3130012 122.7644997  53.4869988
  93.2940012 124.2704997  53.3419988  92.8859769 123.5024227  53.3276159
  94.2260012 121.4014997  53.9799988  93.3630012 121.0224997  53.8139988
  94.8310012 120.6624997  53.9059988  94.1895979 121.2498023  53.9472817
  91.9510012 117.5564997  37.1529988  92.5620012 117.1854997  37.7899988
  91.1150012 117.1354997  37.3489988  91.9215032 117.4487554  37.2667035
  91.5840012 119.1114997  42.1189988  91.8640012 118.2044997  42.2429988
  92.3430012 119.5454997  41.7299988  91.7249277 119.0460942  42.0833682
  92.1960012 119.6924997  47.5549988  93.1290012 119.9044997  47.5209988
  91.9610012 119.7944997  48.4769988  92.2918036 119.7352769  47.6749976
  92.2250012 120.4294997  50.3309988  91.3820012 120.6974997  50.6969988
  92.6670012 121.2514997  50.1199988  92.1694158 120.5773291  50.3525491
  76.5060012 118.8774997  53.8079988  77.4260012 118.7554997  54.0439988
  76.0570012 118.1274997  54.1969988  76.5711580 118.7593727  53.8929006
  94.5080012 114.4094997  55.6839988  94.8580012 113.7554997  55.0789988
  94.6550012 115.2464997  55.2449988  94.5758419 114.4331591  55.5417118
  92.1970012 116.3744997  42.1669988  92.3800012 115.9254997  42.9929988
  91.5980012 115.7894997  41.7039988  92.1410202 116.2339975  42.2173275
  77.7270012 117.1894997  46.6989988  78.1730012 116.3974997  47.0009988
  78.1940012 117.9054997  47.1299988  77.8510172 117.1780624  46.7984820
  76.0310012 120.1884997  47.7679988  76.5230012 119.9674997  46.9769988
  76.3940012 121.0294997  48.0489988  76.1473126 120.2718357  47.6977531
  94.0280012 116.5184997  54.0339988  93.1100012 116.7894997  53.9979988
  94.1510012 115.9834997  53.2489988  93.9191066 116.4832892  53.9230487
  94.0640012 116.4414997  38.6949988  94.4760012 115.7204997  38.2199988
  94.7460012 117.1114997  38.7539988  94.2125885 116.4332368  38.6378915
  76.3450012 116.4464997  41.8219988  75.4200012 116.6554997  41.6929988
  76.7990012 116.9304997  41.1329988  76.2797368 116.5405993  41.7111226
  91.1160012 131.4304997  43.7679988  91.7680012 131.0834997  43.1599988
  91.6260012 131.9194997  44.4139988  91.2742637 131.4490597  43.7720236
  76.3090012 115.1844997  50.1669988  75.6440012 114.9384997  50.8099988
  75.8660012 115.8064997  49.5889988  76.1580956 115.2348632  50.1769352
  78.5010012 128.3594997  54.3109988  77.6800012 128.5344997  53.8509988
  78.2480012 128.2864997  55.2319988  78.3546164 128.3735622  54.3724923
  81.4550012 129.3344997  50.5699988  81.0300012 130.1434997  50.2869988
  82.3590012 129.4194997  50.2679988  81.5190271 129.4568469  50.4903776
  85.7660012 130.7334997  53.5289988  85.9510012 130.3994997  54.4069988
  86.6120012 131.0424997  53.2069988  85.9057539 130.7296047  53.6055605
  88.1110012 132.0194997  52.7729988  88.7880012 131.3864997  52.5329988
  88.4330012 132.4204997  53.5799988  88.2471637 131.9871154  52.8492793
  93.0280012 114.6084997  51.8529988  92.2160012 114.9334997  51.4649988
  93.2610012 113.8484997  51.3199988  92.9483423 114.5502436  51.7278253
  78.8570012 132.5904997  50.6169988  78.1360012 133.0304997  50.1659988
  78.4910012 132.3394997  51.4659988  78.7089804 132.6167698  50.6699840
  81.3240012 132.1904997  49.6469988  80.4590012 132.2624997  50.0509988
  81.2690012 132.7374997  48.8629988  81.1982085 132.2742685  49.5963362
  86.0340012 132.0784997  48.8219988  85.5780012 132.6074997  48.1679988
  86.1970012 132.6814997  49.5479988  85.9935585 132.2324468  48.8305062
  88.3620012 130.9564997  49.7669988  87.4570012 131.1214997  49.5019988
  88.7910012 131.8094997  49.7019988  88.2960799 131.0944483  49.7219182
  90.9660012 132.5264997  50.0619988  90.7840012 133.4424997  49.8519988
  91.1430012 132.1164997  49.2159988  90.9650210 132.5964822  49.9187885
  78.2710012 131.2134997  47.5269988  78.2530012 130.7884997  48.3849988
  79.0760012 130.8954997  47.1189988  78.3773875 131.1123812  47.5891655
  80.4130012 129.9234997  46.1819988  80.1940012 129.0074997  46.3519988
  81.2370012 130.0634997  46.6479988  80.4944420 129.8170520  46.2682774
  82.9500012 130.3934997  47.0309988  83.1630012 129.5054997  46.7439988
  83.0140012 130.3594997  47.9849988  82.9878232 130.2673102  47.1207397
  86.4580012 116.0574997  46.1749988  85.7840012 115.4284997  46.4309988
  87.0220012 115.5734997  45.5719988  86.4419230 115.9058744  46.1285340
  91.6010012 114.1654997  46.2879988  92.2050012 114.7124997  45.7859988
  90.7310012 114.4844997  46.0479988  91.5661241 114.2835806  46.1867654
  93.3280012 115.3034997  44.6209988  93.9400012 114.7894997  44.0949988
  93.7100012 116.1814997  44.6449988  93.4634540 115.3517140  44.5521830
  78.7850012 114.6914997  43.9969988  78.0080012 114.4574997  43.4899988
  79.3150012 113.8944997  44.0059988  78.7502330 114.5516988  43.9287742
  77.6210012 114.4894997  39.8009988  78.0600012 115.1004997  39.2089988
  76.9880012 115.0274997  40.2749988  77.5954514 114.6459257  39.7840930
  83.3640012 114.6184997  43.8109988  84.2390012 115.0064997  43.7809988
  83.2280012 114.4034997  44.7329988  83.4653695 114.6425184  43.9316440
  88.9210012 114.6484997  45.4599988  88.9970012 114.7434997  44.5099988
  88.6460012 113.7404997  45.5889988  88.8942321 114.5387867  45.3475079
  90.2740012 114.6744997  41.1519988  89.5720012 115.2894997  40.9429988
  89.8300012 113.8364997  41.2829988  90.1176330 114.6455783  41.1410328
  77.5220012 130.4374997  40.6989988  76.8370012 130.3994997  40.0309988
  77.5260012 131.3504997  40.9869988  77.4288193 130.5557016  40.6465284
  79.4820012 116.4054997  38.2429988  79.9740012 115.7754997  37.7159988
  80.1060012 116.7014997  38.9069988  79.6335446 116.3593199  38.2605980
  84.5080012 116.6984997  40.6999988  84.6860012 116.0524997  41.3829988
  84.4550012 117.5324997  41.1679988  84.5251829 116.7227985  40.8565940
  86.3870012 131.6474997  39.0959988  87.2530012 132.0134997  38.9179988
  86.1400012 131.2074997  38.2819988  86.4722392 131.6381756  38.9616289
  93.0960012 131.2104997  41.7749988  92.9010012 130.4624997  41.2099988
  93.0570012 131.9684997  41.1919988  93.0640380 131.2106099  41.6188384
  78.7430012 115.2054997  53.5149988  78.3770012 114.4404997  53.9579988
  79.6560012 115.2344997  53.8019988  78.8162790 115.1047224  53.6144070
  80.7160012 114.5564997  55.0509988  81.6140012 114.2824997  54.8659988
  80.3290012 113.8134997  55.5149988  80.7866612 114.4185914  55.0883643
  79.3400012 131.3574997  37.7239988  79.0730012 131.6444997  38.5969988
  80.1120012 130.8114997  37.8759988  79.4077488 131.3230294  37.8641050
  89.1370012 113.8884997  55.2329988  89.2140012 113.4624997  56.0869988
  90.0310012 113.9024997  54.8899988  89.2683428 113.8320879  55.3035310
  92.3130012 129.9614997  53.9249988  91.5310012 129.7754997  53.4059988
  92.2410012 130.8904997  54.1429988  92.1961777 130.0616492  53.8834048
 106.7190012 123.8474997  43.9559988 106.8080012 124.7914997  43.8239988
 106.0810012 123.5724997  43.2979988 106.6449081 123.9394830  43.8489614
 105.6520012 123.1024997  47.3749988 105.6140012 122.4564997  48.0799988
 105.3300012 122.6364997  46.6039988 105.6032333 122.9509408  47.3672978
  98.0210012 122.7174997  48.9679988  98.0620012 122.0914997  49.6909988
  98.7240012 123.3414997  49.1499988  98.1216363 122.7161196  49.0916044
 109.3580012 126.0414997  45.6759988 108.9180012 125.3214997  46.1269988
 109.3450012 126.7624997  46.3059988 109.2960226 126.0403731  45.8228494
  98.9440012 127.1674997  47.5029988  98.5750012 126.3654997  47.1329988
  99.8850012 126.9984997  47.5489988  99.0207289 127.0350153  47.4586316
  95.5540012 120.8274997  42.8959988  95.1070012 121.6734997  42.8769988
  94.9930012 120.2474997  42.3799988  95.4169900 120.8649916  42.8236801
  96.2650012 122.9894997  45.0219988  96.4780012 122.2194997  45.5489988
  97.0030012 123.0784997  44.4179988  96.3938496 122.8961394  45.0125300
 106.4700012 131.1464997  45.8889988 107.0900012 130.4694997  45.6149988
 106.2620012 130.9284997  46.7969988 106.5266904 131.0243870  45.9743365
 104.0420012 125.5354997  47.7809988 104.3460012 124.8494997  47.1859988
 104.7630012 125.6534997  48.3989988 104.1810671 125.4576304  47.7831816
 112.7050012 117.1364997  48.6419988 112.7540012 117.7464997  49.3779988
 113.1300012 117.5974997  47.9189988 112.7691824 117.2823741  48.6450205
 107.1830012 119.9294997  48.1089988 107.3250012 118.9834997  48.1289988
 107.0760012 120.1364997  47.1799988 107.1879864 119.8279534  47.9862339
 100.3370012 118.0304997  45.3809988 100.3810012 118.8904997  44.9629988
  99.8800012 117.4784997  44.7469988 100.2812185 118.0735799  45.2380299
 108.0600012 118.1614997  43.7819988 108.7060012 117.8324997  44.4069988
 108.5700012 118.6794997  43.1589988 108.2174264 118.1864611  43.7833862
  96.9580012 120.4274997  46.1429988  97.6110012 119.8774997  46.5749988
  96.9820012 120.1534997  45.2259988  97.0506683 120.3151466  46.0782123
 102.1140012 121.9774997  45.3579988 102.7300012 121.4514997  45.8679988
 101.5280012 121.3374997  44.9549988 102.1190810 121.8189208  45.3733173
 113.0960012 118.6144997  50.8779988 112.4080012 119.2724997  50.7819988
 113.1120012 118.4174997  51.8139988 113.0038525 118.6780462  50.9914808
  99.1480012 116.9484997  49.4549988  98.9290012 117.4784997  48.6889988
  98.4800012 117.1754997  50.1019988  99.0277600 117.0516906  49.4376379
 106.5170012 126.4484997  42.9989988 106.2210012 126.1264997  42.1479988
 106.1920012 127.3484997  43.0399988 106.4326371 126.5260215  42.8881801
 101.7170012 124.6244997  49.7419988 100.9770012 125.2224997  49.8459988
 102.4310012 125.1784997  49.4269988 101.7122237 124.7812831  49.7136465
 109.8240012 117.4524997  45.7619988 109.6080012 116.6864997  46.2949988
 110.4790012 117.9244997  46.2749988 109.8830632 117.4115889  45.9042861
  98.7410012 118.8404997  47.4069988  99.3550012 119.4734997  47.7809988
  99.2530012 118.3684997  46.7509988  98.8942296 118.8632370  47.3694252
 100.1240012 126.5884997  50.5299988 100.1190012 127.4684997  50.1519988
  99.2710012 126.5054997  50.9549988 100.0079464 126.6976117  50.5357907
  96.2450012 126.2594997  41.3119988  95.9730012 126.4884997  40.4229988
  96.2910012 127.0974997  41.7719988  96.2140094 126.4041213  41.2525697
 109.8700012 127.8814997  48.0239988 108.9290012 127.9394997  48.1859988
 110.1470012 128.7874997  47.8869988 109.7784679 128.0119443  48.0276815
 110.1710012 116.1674997  49.4419988 109.4350012 116.7784997  49.4039988
 110.8540012 116.5824997  48.9149988 110.1626541 116.3071374  49.3655832
 103.1740012 114.2544997  46.9079988 103.0570012 113.3054997  46.8529988
 102.3190012 114.5864997  47.1809988 103.0423733 114.1695409  46.9373897
 108.1220012 129.6624997  44.6499988 108.5480012 128.9554997  44.1649988
 108.4390012 130.4634997  44.2329988 108.2231019 129.6740994  44.5273130
 109.2820012 127.5634997  43.1579988 109.0240012 126.8734997  42.5469988
 109.3530012 127.1204997  44.0039988 109.2562856 127.4092124  43.1886885
 110.9680012 126.1294997  51.6359988 111.1080012 125.5384997  50.8959988
 111.1350012 127.0024997  51.2789988 111.0096778 126.1666426  51.4866965
 105.4410012 123.0914997  41.4079988 104.7290012 123.6264997  41.0559988
 106.1320012 123.1474997  40.7479988 105.4370132 123.1722543  41.2706289
 105.4940012 121.5494997  38.4469988 106.1950012 121.5714997  39.0979988
 105.7970012 120.9214997  37.7909988 105.6307830 121.4676566  38.4473711
 112.8100012 122.4694997  49.7019988 112.1570012 123.1644997  49.7909988
 113.2750012 122.6794997  48.8919988 112.7835390 122.5929425  49.6046883
 108.8460012 123.3014997  42.3599988 108.1140012 123.5294997  42.9329988
 109.2940012 122.5874997  42.8149988 108.8063095 123.2362571  42.4999119
 108.7440012 121.4754997  51.4269988 108.8240012 122.2384997  51.9989988
 108.1420012 121.7544997  50.7369988 108.6735756 121.6177134  51.4120589
 100.4920012 123.9314997  44.2419988 100.1610012 123.5614997  43.4239988
 101.0800012 123.2614997  44.5889988 100.5261873 123.7901156  44.1768102
 101.8580012 127.3594997  46.9239988 101.7640012 126.7814997  46.1669988
 102.5880012 126.9884997  47.4199988 101.9437981 127.2302390  46.8874165
 100.8580012 122.7004997  47.8759988 101.4240012 122.8214997  47.1129988
 101.1770012 123.3374997  48.5149988 100.9785786 122.8031884  47.8580040
 107.1670012 128.2034997  48.6099988 106.9270012 128.8654997  49.2579988
 106.9690012 127.3694997  49.0349988 107.1073808 128.1813134  48.7561524
 101.7380012 127.0994997  52.5929988 101.4270012 127.8814997  53.0479988
 101.0880012 126.9464997  51.9069988 101.6075558 127.1859105  52.5625871
 107.7170012 122.4634997  40.0449988 108.2970012 122.6134997  40.7919988
 108.1310012 122.9344997  39.3219988 107.8522830 122.5476841  40.0494134
  98.6580012 123.2974997  51.8219988  98.7290012 123.9484997  52.5199988
  97.7680012 123.4004997  51.4869988  98.5473117 123.4005936  51.8722700
 105.4440012 129.2004997  43.4799988 105.9180012 129.4954997  44.2579988
 104.8810012 129.9384997  43.2469988 105.4327653 129.3406932  43.5550136
  99.9780012 129.1714997  53.3559988  99.9850012 129.0354997  52.4089988
  99.0620012 129.0534997  53.6079988  99.8551714 129.1369430  53.2604666
 111.4160012 114.2134997  39.8579988 110.5160012 114.3524997  40.1529988
 111.6680012 115.0444997  39.4559988 111.3268702 114.3449074  39.8440205
  99.4820012 123.0014997  41.8319988  99.1900012 123.7694997  41.3409988
  98.8080012 122.3414997  41.6689988  99.3509081 123.0174406  41.7427340
 112.6050012 128.5794997  38.2339988 112.6790012 129.5184997  38.4049988
 113.5110012 128.2744997  38.1779988 112.7375100 128.6666722  38.2498119
  95.5750012 125.3644997  50.6469988  95.0740012 125.3364997  49.8319988
  95.5800012 124.4584997  50.9559988  95.5071526 125.2382278  50.5772872
  95.3250012 128.1444997  47.5309988  96.2710012 128.0004997  47.5119988
  95.2130012 128.9284997  48.0679988  95.4392727 128.2308046  47.6010072
 113.5230012 128.8104997  53.2129988 113.4740012 127.8554997  53.1759988
 112.6960012 129.0784997  53.6139988 113.4044940 128.7158998  53.2621375
 104.5020012 128.3844997  52.0889988 104.5890012 129.2104997  52.5639988
 103.6380012 128.0544997  52.3379988 104.3971964 128.4529878  52.1876549
 104.9160012 132.1564997  41.8949988 104.8410012 132.0354997  40.9489988
 104.9490012 133.1064997  42.0139988 104.9101848 132.2682500  41.7814834
  98.5690012 130.9454997  43.6759988  98.7220012 130.5974997  44.5549988
  97.7190012 130.5894997  43.4209988  98.4748962 130.8496650  43.7618340
 108.0180012 131.3104997  38.8969988 108.3930012 130.5664997  38.4269988
 108.0220012 131.0404997  39.8159988 108.0698915 131.1721486  38.9567824
 107.6870012 131.2364997  41.6469988 106.7510012 131.3364997  41.8249988
 107.9670012 130.5274997  42.2249988 107.5968255 131.1542711  41.7495391
 110.6750012 120.3034997  53.6929988 110.2680012 120.7844997  52.9719988
 110.7160012 119.3984997  53.3849988 110.6248437 120.2469374  53.5526683
  97.8240012 126.6874997  51.6899988  98.0400012 126.3264997  52.5489988
  96.9690012 126.3134997  51.4799988  97.7379292 126.5874111  51.7793386
 100.4430012 115.1574997  47.6849988  99.5810012 115.0704997  47.2779988
 100.4200012 116.0134997  48.1129988 100.3220330 115.2612765  47.6871863
 105.1060012 114.8794997  51.0599988 105.5260012 114.4644997  51.8129988
 104.1730012 114.7014997  51.1769988 105.0373644 114.7985900  51.1789539
 108.4320012 118.6354997  51.9129988 107.9180012 118.5094997  52.7109988
 108.2770012 119.5474997  51.6689988 108.3406852 118.7416132  51.9892158
 109.1950012 123.4964997  37.6749988 109.2370012 123.2734997  36.7449988
 110.0440012 123.8954997  37.8649988 109.3155396 123.5199155  37.5733627
 104.7670012 117.3724997  38.3449988 104.5140012 117.3914997  39.2679988
 104.5110012 116.5004997  38.0439988 104.6977790 117.2572437  38.4306263
 100.5340012 120.1234997  48.7799988  99.8920012 120.0824997  49.4889988
 100.5710012 121.0494997  48.5429988 100.4511324 120.2431559  48.8449824
 100.5310012 120.3444997  43.6919988  99.6380012 120.0034997  43.6339988
 100.9810012 119.9674997  42.9369988 100.4697305 120.2468484  43.5819177
 106.0660012 120.7604997  42.5089988 105.6570012 121.5754997  42.2179988
 106.7870012 120.6204997  41.8949988 106.1074537 120.8532018  42.3861342
 105.1680012 120.9354997  53.9969988 104.6060012 120.2314997  54.3179988
 105.9950012 120.8154997  54.4649988 105.2027095 120.8227883  54.1042330
 107.0710012 120.2064997  45.3229988 106.8760012 120.8114997  44.6079988
 107.2520012 119.3724997  44.8889988 107.0687614 120.1766300  45.1664405
  98.2840012 120.4434997  50.6469988  98.2460012 120.8434997  51.5159988
  97.7930012 119.6264997  50.7379988  98.2124684 120.3878069  50.7781059
 101.6500012 117.8174997  37.4459988 101.2190012 117.3724997  38.1759988
 100.9320012 118.1894997  36.9339988 101.4939438 117.8068940  37.4766799
  94.8920012 117.5594997  44.4979988  95.5230012 117.5304997  45.2169988
  95.3410012 117.1344997  43.7679988  95.0390774 117.4980492  44.4976553
  96.1660012 118.3054997  39.9219988  96.6400012 118.8964997  39.3369988
  95.4490012 118.8364997  40.2689988  96.1339341 118.4580867  39.8888836
 106.3350012 121.8444997  49.9949988 106.6580012 121.2134997  49.3519988
 105.8950012 121.3094997  50.6549988 106.3196895 121.6858441  49.9962850
 103.1120012 117.7714997  44.7789988 102.2010012 117.8284997  45.0669988
 103.6180012 117.7114997  45.5889988 103.0555413 117.7711985  44.9280622
  97.9410012 119.4004997  43.6049988  97.0510012 119.5004997  43.2649988
  98.2370012 118.5584997  43.2589988  97.8592823 119.3003545  43.5117213
 101.5940012 119.4004997  41.2619988 102.5250012 119.5294997  41.4399988
 101.3790012 120.0704997  40.6119988 101.6924247 119.5086565  41.1985747
 107.5170012 117.0064997  48.0429988 106.8410012 117.1374997  48.7069988
 107.0320012 116.8514997  47.2329988 107.3587145 117.0034905  48.0244517
 100.2680012 120.5954997  38.8289988  99.7250012 120.2154997  38.1369988
 101.1010012 120.7894997  38.3999988 100.3064399 120.5698124  38.6764526
 110.8050012 132.6784997  54.3199988 111.0050012 133.1024997  53.4849988
 111.4600012 133.0214997  54.9269988 110.9210051 132.7829648  54.2877836
  98.4030012 125.1524997  53.9279988  99.1350012 125.4064997  54.4889988
  97.6230012 125.3564997  54.4429988  98.3978232 125.2149177  54.0745760
 104.4320012 120.5594997  46.6659988 104.9970012 120.0124997  46.1189988
 104.2850012 120.0374997  47.4539988 104.4892918 120.4142024  46.6978454
  99.4340012 116.6954997  43.0839988  99.1170012 115.7934997  43.0489988
 100.2160012 116.6974997  42.5309988  99.4962284 116.5721628  43.0044783
 103.0590012 118.9474997  49.0799988 102.2230012 119.4014997  49.1899988
 103.5830012 119.2234997  49.8319988 103.0154414 119.0469376  49.1967136
 103.6030012 125.1604997  40.7639988 102.8580012 124.6534997  40.4419988
 103.4690012 125.2094997  41.7109988 103.4828776 125.0976940  40.8478647
 110.7530012 124.2934997  49.5509988 111.3950012 124.7504997  49.0069988
 109.9230012 124.4064997  49.0879988 110.7285963 124.3712704  49.4140177
 107.5010012 117.9744997  38.9639988 106.5620012 118.0864997  38.8119988
 107.7980012 118.8314997  39.2699988 107.4127666 118.1056443  38.9845768
 105.1220012 125.3444997  52.0009988 104.7770012 124.9634997  52.8079988
 104.9220012 126.2784997  52.0729988 105.0478061 125.4185228  52.1210961
 108.2190012 119.8414997  40.6239988 109.1110012 119.7044997  40.9429988
 108.2760012 120.6324997  40.0879988 108.3486285 119.9296660  40.5951691
  98.7280012 124.4554997  46.5339988  99.4730012 124.4534997  45.9329988
  98.8060012 123.6324997  47.0159988  98.8405518 124.3439315  46.5168929
 105.7290012 126.6194997  39.7899988 105.4330012 127.4454997  40.1709988
 105.0260012 125.9994997  39.9859988 105.5934914 126.6488199  39.8686443
  95.7360012 122.9164997  51.8489988  95.9590012 122.4984997  52.6809988
  95.1340012 122.3034997  51.4259988  95.6851759 122.7764668  51.9057022
 102.7520012 122.4334997  54.0619988 102.4560012 122.2674997  53.1669988
 103.6840012 122.2134997  54.0509988 102.8374166 122.3810640  53.9380536
 107.3730012 127.8064997  51.9519988 106.4720012 127.9894997  51.6839988
 107.4070012 128.0654997  52.8729988 107.2543041 127.8665512  52.0398197
 113.1040012 120.0514997  40.3189988 112.5500012 119.6554997  39.6469988
 113.2040012 120.9614997  40.0409988 113.0417059 120.1203586  40.1894401
 113.0670012 125.8514997  53.1559988 112.2160012 126.0894997  52.7889988
 113.6580012 125.8344997  52.4029988 113.0302487 125.8818258  53.0038893
 111.3990012 128.8374997  40.7839988 111.0260012 128.0114997  41.0929988
 111.6770012 128.6544997  39.8869988 111.3855630 128.6997303  40.7049626
 108.5600012 123.6454997  47.8049988 107.6310012 123.4134997  47.7779988
 109.0110012 122.8684997  47.4749988 108.4939216 123.5087238  47.7566917
 101.1030012 127.9734997  43.9379988 101.6300012 128.7464997  43.7379988
 100.2230012 128.1984997  43.6369988 101.0561773 128.1098005  43.8699010
  96.8580012 122.8354997  38.5249988  97.4740012 123.4624997  38.9049988
  95.9960012 123.1514997  38.7969988  96.8257698 122.9639430  38.6137183
 102.5300012 125.6364997  43.5149988 102.2890012 126.5614997  43.5559988
 101.7890012 125.1774997  43.9109988 102.3968409 125.7011421  43.5741377
 103.0450012 129.7854997  49.8299988 103.4070012 130.6404997  49.5959988
 103.5760012 129.4934997  50.5699988 103.1664473 129.8631060  49.8980855
 101.2130012 130.6584997  43.0599988 100.2630012 130.7634997  43.1109988
 101.5650012 131.4784997  43.4049988 101.1304203 130.7838314  43.1136650
 106.5890012 125.8844997  49.5299988 106.1630012 125.6574997  50.3569988
 107.1690012 125.1464997  49.3479988 106.6091868 125.7535299  49.6185830
 108.7920012 126.8134997  38.6039988 109.1450012 126.4334997  39.4089988
 107.8430012 126.7204997  38.6909988 108.7120441 126.7489596  38.7258559
 109.2470012 130.4364997  51.9999988 108.6460012 129.8814997  51.5039988
 109.5290012 131.1034997  51.3739988 109.2028519 130.4506841  51.8474952
 113.2950012 131.2934997  38.8049988 114.0390012 131.8794997  38.6649988
 112.6010012 131.8614997  39.1389988 113.3030292 131.4505582  38.8309961
  97.3700012 117.6694997  51.4069988  96.4770012 118.0084997  51.3389988
  97.2710012 116.8144997  51.8249988  97.2344164 117.6002588  51.4542235
 109.6580012 125.4864997  40.8309988 109.3800012 124.7584997  41.3869988
 110.5850012 125.6054997  41.0359988 109.7453124 125.4028802  40.9348845
  97.0210012 129.4744997  49.8419988  97.2380012 128.5424997  49.8109988
  97.2670012 129.7484997  50.7249988  97.0839549 129.3840636  49.9571763
 102.8830012 127.9254997  37.0509988 103.1220012 127.1774997  36.5039988
 102.6140012 127.5374997  37.8839988 102.8793675 127.7706638  37.0886865
 101.8200012 127.4954997  39.5079988 101.9660012 126.9754997  40.2979988
 101.8170012 128.4024997  39.8139988 101.8395989 127.5468853  39.6576088
  98.2730012 124.7484997  40.0179988  97.5870012 125.1004997  40.5849988
  98.7950012 125.5114997  39.7709988  98.2496852 124.8998578  40.0622118
 106.1040012 117.4104997  50.2969988 106.8030012 117.4844997  50.9469988
 105.7230012 116.5464997  50.4509988 106.1481767 117.3037624  50.4068322
 106.8890012 117.0624997  41.3939988 107.1090012 117.5344997  40.5909988
 107.4470012 117.4574997  42.0639988 106.9944968 117.1804285  41.3747331
 104.5570012 129.1934997  40.2569988 103.7410012 129.6904997  40.3089988
 105.0870012 129.6684997  39.6169988 104.5169161 129.3257722  40.1775956
 104.0890012 118.7904997  42.2289988 104.9010012 119.2954997  42.2749988
 103.8440012 118.6454997  43.1429988 104.1670520 118.8400375  42.3588517
 104.6240012 119.7764997  51.4139988 104.7430012 120.3504997  52.1709988
 105.2800012 119.0884997  51.5279988 104.7289757 119.7621079  51.5330825
 104.9720012 115.8714997  43.1669988 104.6260012 116.4894997  43.8119988
 105.6310012 116.3724997  42.6859988 105.0137826 116.0235802  43.1900971
 101.8960012 130.2374997  40.2389988 102.0560012 131.0364997  39.7379988
 101.6980012 130.5434997  41.1239988 101.8911649 130.3884469  40.2899815
 100.6300012 116.9344997  39.8539988 100.5470012 117.8234997  40.2009988
 101.5200012 116.6694997  40.0859988 100.7389469 117.0201430  39.9327626
 110.8290012 117.6834997  52.2489988 109.9120012 117.9464997  52.1609988
 111.1640012 117.6804997  51.3519988 110.7489900 117.7190224  52.1157919
 109.4310012 121.4344997  46.3439988 108.6330012 121.0194997  46.0159988
 109.8760012 120.7434997  46.8349988 109.3819885 121.2843543  46.3654889
  98.8890012 127.3624997  38.9149988  99.4810012 128.0614997  39.1909988
  99.3480012 126.9294997  38.1949988  99.0321142 127.3997049  38.8554830
  97.2050012 120.0264997  38.0309988  97.1600012 120.9654997  38.2089988
  96.3170012 119.7904997  37.7609988  97.0788574 120.1231892  38.0188912
 110.5170012 130.6904997  47.9669988 110.3620012 131.3684997  47.3099988
 111.4500012 130.7624997  48.1699988 110.6218500 130.7930170  47.9045119
  98.0130012 114.8084997  46.7039988  97.7840012 114.8674997  45.7759988
  97.5700012 114.0164997  47.0099988  97.9218530 114.7095753  46.6184786
  96.9430012 128.7484997  42.8639988  96.1110012 129.2214997  42.8919988
  97.4890012 129.2584997  42.2659988  96.9029739 128.8821871  42.7869716
  96.2310012 131.3614997  54.1939988  96.7720012 131.1444997  54.9539988
  95.7500012 130.5554997  54.0049988  96.2399345 131.2229514  54.2723076
 100.8290012 130.2804997  55.8149988 101.5960012 129.8214997  56.1559988
 100.8070012 130.0544997  54.8849988 100.9311434 130.1870409  55.7360043
 104.9210012 129.7884997  37.1899988 104.2770012 129.1574997  37.5109988
 105.6830012 129.2574997  36.9579988 104.9358077 129.6302920  37.2026011
 107.4060012 128.6604997  54.5439988 107.0550012 127.8044997  54.7869988
 108.1320012 128.8034997  55.1509988 107.4560769 128.5625636  54.6593619
 109.5250012 129.6054997  37.4239988 109.8080012 128.8114997  37.8759988
 110.2650012 129.8384997  36.8629988 109.6637486 129.5282803  37.4100698
  96.1380012 125.1714997  55.1489988  96.2820012 124.2694997  54.8619988
  95.3660012 125.4574997  54.6609988  96.0533322 125.0868261  55.0437881
 100.4800012 125.5154997  37.2809988 100.5440012 124.7214997  37.8119988
 101.1330012 125.3964997  36.5909988 100.5770241 125.3907148  37.2604317
 102.7940012 125.1414997  54.5809988 102.4650012 125.4124997  53.7239988
 102.9460012 124.2004997  54.4939988 102.7694809 125.0513862  54.4518244
 105.8320012 126.5624997  37.0169988 105.5630012 126.7424997  37.9179988
 105.6260012 125.6364997  36.8859988 105.7673825 126.4620152  37.1225214
 108.5280012 125.0574997  51.9649988 109.2740012 125.6454997  51.8449988
 107.7710012 125.6394997  52.0279988 108.5277554 125.2167011  51.9570907
  96.9710012 122.3714997  54.5689988  97.3790012 121.5144997  54.4479988
  96.7110012 122.3864997  55.4899988  96.9917568 122.2560807  54.6769588
 101.6290012 123.4874997  39.5869988 101.1690012 123.0034997  40.2729988
 101.8840012 122.8194997  38.9509988 101.6004902 123.3308731  39.5949334
 100.9180012 121.3804997  51.9429988 100.3000012 122.0554997  52.2229988
 101.2620012 121.7014997  51.1099988 100.8799615 121.5162721  51.8686581
 102.7000012 121.7304997  37.8489988 102.5200012 121.5764997  36.9219988
 103.6500012 121.8384997  37.8939988 102.8037776 121.7240175  37.7281843
 105.9380012 123.8524997  55.2199988 106.8910012 123.9354997  55.1929988
 105.7770012 123.1404997  55.8399988 106.0466426 123.7676746  55.3000579
 112.0900012 124.0854997  37.2949988 111.8160012 123.6604997  36.4819988
 112.1290012 125.0164997  37.0779988 112.0577699 124.1532484  37.1543610
 101.2570012 118.7354997  53.0249988 101.4070012 118.0064997  52.4229988
 101.2600012 119.5124997  52.4659988 101.2779302 118.7407851  52.8670692
 101.6700012 117.1054997  50.5179988 102.2060012 117.5564997  49.8659988
 100.8180012 116.9974997  50.0949988 101.6282178 117.1526390  50.3715756
 103.2520012 122.5444997  50.7569988 104.0020012 122.3884997  50.1839988
 102.9130012 123.3964997  50.4819988 103.3088921 122.6382968  50.6413561
 107.6670012 120.3594997  55.7859988 107.8600012 119.4284997  55.6739988
 108.5250012 120.7844997  55.7759988 107.8093020 120.2896389  55.7693361
 108.9840012 123.1484997  53.8629988 108.7030012 123.8574997  53.2859988
 109.9270012 123.0754997  53.7119988 109.0729027 123.2357646  53.7635551
  99.7360012 119.9334997  54.9369988  98.9690012 119.4014997  54.7269988
 100.4150012 119.6234997  54.3369988  99.7227022 119.8187506  54.8271648
 102.4760012 114.5614997  50.9489988 102.3770012 115.5084997  50.8439988
 101.7330012 114.1894997  50.4739988 102.3620563 114.6405902  50.8704560
 103.7400012 118.8834997  54.5129988 103.5040012 118.6634997  55.4149988
 102.9560012 118.6764997  54.0029988 103.6018628 118.8254760  54.5673932
 106.4550012 118.0104997  53.5889988 105.5080012 118.0424997  53.7209988
 106.7680012 117.3854997  54.2419988 106.3675475 117.9303207  53.6954455
 108.0890012 116.6444997  55.5939988 107.9930012 115.6924997  55.5879988
 107.7680012 116.9134997  56.4539988 108.0324070 116.5504035  55.7095441
  97.9160012 117.8544997  54.6409988  98.1280012 117.1474997  54.0309988
  97.8050012 117.4164997  55.4849988  97.9299721 117.6987084  54.6716843
 102.6970012 113.8554997  53.6209988 103.4090012 113.2154997  53.6069988
 102.5960012 114.1224997  52.7069988 102.7807939 113.8039938  53.4955650
 103.0510012 115.5384997  55.6739988 102.9190012 115.0624997  54.8539988
 102.4520012 116.2824997  55.6189988 102.9519071 115.5739618  55.5542886
 102.5970012 132.4214997  38.8509988 103.5300012 132.5794997  38.9939988
 102.3330012 133.0964997  38.2259988 102.6889510 132.5343611  38.7860741
  96.1660012 127.0574997  38.3329988  97.0800012 127.1364997  38.6069988
  96.1730012 126.3704997  37.6669988  96.2921131 126.9753961  38.2804393
  94.8150012 132.4504997  43.4109988  94.1680012 131.9884997  42.8779988
  95.1690012 131.7784997  43.9929988  94.7743849 132.2964723  43.4167959
  95.6850012 130.5314997  45.2149988  95.3500012 129.6514997  45.3869988
  95.9070012 130.8764997  46.0799988  95.6691783 130.4577500  45.3554208
 113.2330012 131.3404997  48.1959988 113.2120012 131.5254997  49.1349988
 113.9240012 131.9094997  47.8549988 113.3234618 131.4426606  48.2783864
 112.7970012 130.9084997  51.1179988 112.3090012 130.1724997  50.7469988
 113.3460012 130.5144997  51.7959988 112.8044872 130.7546249  51.1589160
 111.2470012 126.6974997  55.7559988 110.3810012 126.5924997  56.1499988
 111.6240012 127.4564997  56.2019988 111.1793308 126.7856900  55.8702393
 112.5480012 124.9544997  41.2699988 113.3980012 125.3754997  41.3969988
 112.5540012 124.2144997  41.8769988 112.6651372 124.9120803  41.3694344
 112.9430012 123.0074997  43.0939988 112.2160012 122.5284997  43.4909988
 113.5240012 123.2134997  43.8259988 112.9219375 122.9697090  43.2474129
 112.7020012 125.7924997  48.0409988 113.5350012 125.4144997  47.7609988
 112.8140012 126.7354997  47.9219988 112.8312647 125.8682218  47.9865487
 111.1880012 128.6704997  50.3479988 110.5410012 128.9954997  50.9739988
 110.6710012 128.2304997  49.6739988 111.0294029 128.6555004  50.3425827
 113.2110012 122.9084997  39.4849988 112.6890012 123.2654997  38.7659988
 113.1780012 123.5834997  40.1629988 113.1351634 123.0485413  39.4783145
 111.5600012 120.1484997  38.0359988 111.6560012 120.8154997  37.3549988
 111.4200012 119.3324997  37.5539988 111.5542135 120.1294500  37.8778491
 110.7290012 121.5284997  43.6569988 110.5790012 120.5834997  43.6359988
 110.3760012 121.8094997  44.4999988 110.6606625 121.4370441  43.7682346
  95.7650012 123.6064997  47.6669988  95.9490012 123.5244997  46.7309988
  96.6140012 123.4824997  48.0909988  95.9050139 123.5785003  47.5961455
 111.5860012 123.4984997  53.2949988 112.1690012 122.7644997  53.4869988
 112.1500012 124.2704997  53.3419988 111.7419769 123.5024227  53.3276159
 113.0820012 121.4014997  53.9799988 112.2190012 121.0224997  53.8139988
 113.6870012 120.6624997  53.9059988 113.0455979 121.2498023  53.9472817
 110.8070012 117.5564997  37.1529988 111.4180012 117.1854997  37.7899988
 109.9710012 117.1354997  37.3489988 110.7775032 117.4487554  37.2667035
 110.4400012 119.1114997  42.1189988 110.7200012 118.2044997  42.2429988
 111.1990012 119.5454997  41.7299988 110.5809277 119.0460942  42.0833682
 111.0520012 119.6924997  47.5549988 111.9850012 119.9044997  47.5209988
 110.8170012 119.7944997  48.4769988 111.1478036 119.7352769  47.6749976
 111.0810012 120.4294997  50.3309988 110.2380012 120.6974997  50.6969988
 111.5230012 121.2514997  50.1199988 111.0254158 120.5773291  50.3525491
  95.3620012 118.8774997  53.8079988  96.2820012 118.7554997  54.0439988
  94.9130012 118.1274997  54.1969988  95.4271580 118.7593727  53.8929006
 113.3640012 114.4094997  55.6839988 113.7140012 113.7554997  55.0789988
 113.5110012 115.2464997  55.2449988 113.4318419 114.4331591  55.5417118
 111.0530012 116.3744997  42.1669988 111.2360012 115.9254997  42.9929988
 110.4540012 115.7894997  41.7039988 110.9970202 116.2339975  42.2173275
  96.5830012 117.1894997  46.6989988  97.0290012 116.3974997  47.0009988
  97.0500012 117.9054997  47.1299988  96.7070172 117.1780624  46.7984820
  94.8870012 120.1884997  47.7679988  95.3790012 119.9674997  46.9769988
  95.2500012 121.0294997  48.0489988  95.0033126 120.2718357  47.6977531
 112.8840012 116.5184997  54.0339988 111.9660012 116.7894997  53.9979988
 113.0070012 115.9834997  53.2489988 112.7751066 116.4832892  53.9230487
 112.9200012 116.4414997  38.6949988 113.3320012 115.7204997  38.2199988
 113.6020012 117.1114997  38.7539988 113.0685885 116.4332368  38.6378915
  95.2010012 116.4464997  41.8219988  94.2760012 116.6554997  41.6929988
  95.6550012 116.9304997  41.1329988  95.1357368 116.5405993  41.7111226
 109.9720012 131.4304997  43.7679988 110.6240012 131.0834997  43.1599988
 110.4820012 131.9194997  44.4139988 110.1302637 131.4490597  43.7720236
  95.1650012 115.1844997  50.1669988  94.5000012 114.9384997  50.8099988
  94.7220012 115.8064997  49.5889988  95.0140956 115.2348632  50.1769352
  97.3570012 128.3594997  54.3109988  96.5360012 128.5344997  53.8509988
  97.1040012 128.2864997  55.2319988  97.2106164 128.3735622  54.3724923
 100.3110012 129.3344997  50.5699988  99.8860012 130.1434997  50.2869988
 101.2150012 129.4194997  50.2679988 100.3750271 129.4568469  50.4903776
 104.6220012 130.7334997  53.5289988 104.8070012 130.3994997  54.4069988
 105.4680012 131.0424997  53.2069988 104.7617539 130.7296047  53.6055605
 106.9670012 132.0194997  52.7729988 107.6440012 131.3864997  52.5329988
 107.2890012 132.4204997  53.5799988 107.1031637 131.9871154  52.8492793
 111.8840012 114.6084997  51.8529988 111.0720012 114.9334997  51.4649988
 112.1170012 113.8484997  51.3199988 111.8043423 114.5502436  51.7278253
  97.7130012 132.5904997  50.6169988  96.9920012 133.0304997  50.1659988
  97.3470012 132.3394997  51.4659988  97.5649804 132.6167698  50.6699840
 100.1800012 132.1904997  49.6469988  99.3150012 132.2624997  50.0509988
 100.1250012 132.7374997  48.8629988 100.0542085 132.2742685  49.5963362
 104.8900012 132.0784997  48.8219988 104.4340012 132.6074997  48.1679988
 105.0530012 132.6814997  49.5479988 104.8495585 132.2324468  48.8305062
 107.2180012 130.9564997  49.7669988 106.3130012 131.1214997  49.5019988
 107.6470012 131.8094997  49.7019988 107.1520799 131.0944483  49.7219182
 109.8220012 132.5264997  50.0619988 109.6400012 133.4424997  49.8519988
 109.9990012 132.1164997  49.2159988 109.8210210 132.5964822  49.9187885
  97.1270012 131.2134997  47.5269988  97.1090012 130.7884997  48.3849988
  97.9320012 130.8954997  47.1189988  97.2333875 131.1123812  47.5891655
  99.2690012 129.9234997  46.1819988  99.0500012 129.0074997  46.3519988
 100.0930012 130.0634997  46.6479988  99.3504420 129.8170520  46.2682774
 101.8060012 130.3934997  47.0309988 102.0190012 129.5054997  46.7439988
 101.8700012 130.3594997  47.9849988 101.8438232 130.2673102  47.1207397
 105.3140012 116.0574997  46.1749988 104.6400012 115.4284997  46.4309988
 105.8780012 115.5734997  45.5719988 105.2979230 115.9058744  46.1285340
 110.4570012 114.1654997  46.2879988 111.0610012 114.7124997  45.7859988
 109.5870012 114.4844997  46.0479988 110.4221241 114.2835806  46.1867654
 112.1840012 115.3034997  44.6209988 112.7960012 114.7894997  44.0949988
 112.5660012 116.1814997  44.6449988 112.3194540 115.3517140  44.5521830
  97.6410012 114.6914997  43.9969988  96.8640012 114.4574997  43.4899988
  98.1710012 113.8944997  44.0059988  97.6062330 114.5516988  43.9287742
  96.4770012 114.4894997  39.8009988  96.9160012 115.1004997  39.2089988
  95.8440012 115.0274997  40.2749988  96.4514514 114.6459257  39.7840930
 102.2200012 114.6184997  43.8109988 103.0950012 115.0064997  43.7809988
 102.0840012 114.4034997  44.7329988 102.3213695 114.6425184  43.9316440
 107.7770012 114.6484997  45.4599988 107.8530012 114.7434997  44.5099988
 107.5020012 113.7404997  45.5889988 107.7502321 114.5387867  45.3475079
 109.1300012 114.6744997  41.1519988 108.4280012 115.2894997  40.9429988
 108.6860012 113.8364997  41.2829988 108.9736330 114.6455783  41.1410328
  96.3780012 130.4374997  40.6989988  95.6930012 130.3994997  40.0309988
  96.3820012 131.3504997  40.9869988  96.2848193 130.5557016  40.6465284
  98.3380012 116.4054997  38.2429988  98.8300012 115.7754997  37.7159988
  98.9620012 116.7014997  38.9069988  98.4895446 116.3593199  38.2605980
 103.3640012 116.6984997  40.6999988 103.5420012 116.0524997  41.3829988
 103.3110012 117.5324997  41.1679988 103.3811829 116.7227985  40.8565940
 105.2430012 131.6474997  39.0959988 106.1090012 132.0134997  38.9179988
 104.9960012 131.2074997  38.2819988 105.3282392 131.6381756  38.9616289
 111.9520012 131.2104997  41.7749988 111.7570012 130.4624997  41.2099988
 111.9130012 131.9684997  41.1919988 111.9200380 131.2106099  41.6188384
  97.5990012 115.2054997  53.5149988  97.2330012 114.4404997  53.9579988
  98.5120012 115.2344997  53.8019988  97.6722790 115.1047224  53.6144070
  99.5720012 114.5564997  55.0509988 100.4700012 114.2824997  54.8659988
  99.1850012 113.8134997  55.5149988  99.6426612 114.4185914  55.0883643
  98.1960012 131.3574997  37.7239988  97.9290012 131.6444997  38.5969988
  98.9680012 130.8114997  37.8759988  98.2637488 131.3230294  37.8641050
 107.9930012 113.8884997  55.2329988 108.0700012 113.4624997  56.0869988
 108.8870012 113.9024997  54.8899988 108.1243428 113.8320880  55.3035310
 111.1690012 129.9614997  53.9249988 110.3870012 129.7754997  53.4059988
 111.0970012 130.8904997  54.1429988 111.0521777 130.0616492  53.8834048
 125.5750012 123.8474997  43.9559988 125.6640012 124.7914997  43.8239988
 124.9370012 123.5724997  43.2979988 125.5009081 123.9394830  43.8489614
 124.5080012 123.1024997  47.3749988 124.4700012 122.4564997  48.0799988
 124.1860012 122.6364997  46.6039988 124.4592333 122.9509408  47.3672978
 116.8770012 122.7174997  48.9679988 116.9180012 122.0914997  49.6909988
 117.5800012 123.3414997  49.1499988 116.9776363 122.7161196  49.0916044
 128.2140012 126.0414997  45.6759988 127.7740012 125.3214997  46.1269988
 128.2010012 126.7624997  46.3059988 128.1520226 126.0403731  45.8228494
 117.8000012 127.1674997  47.5029988 117.4310012 126.3654997  47.1329988
 118.7410012 126.9984997  47.5489988 117.8767289 127.0350153  47.4586316
 114.4100012 120.8274997  42.8959988 113.9630012 121.6734997  42.8769988
 113.8490012 120.2474997  42.3799988 114.2729900 120.8649916  42.8236801
 115.1210012 122.9894997  45.0219988 115.3340012 122.2194997  45.5489988
 115.8590012 123.0784997  44.4179988 115.2498496 122.8961394  45.0125300
 125.3260012 131.1464997  45.8889988 125.9460012 130.4694997  45.6149988
 125.1180012 130.9284997  46.7969988 125.3826904 131.0243870  45.9743365
 122.8980012 125.5354997  47.7809988 123.2020012 124.8494997  47.1859988
 123.6190012 125.6534997  48.3989988 123.0370671 125.4576305  47.7831816
 131.5610012 117.1364997  48.6419988 131.6100012 117.7464997  49.3779988
 131.9860012 117.5974997  47.9189988 131.6251824 117.2823741  48.6450205
 126.0390012 119.9294997  48.1089988 126.1810012 118.9834997  48.1289988
 125.9320012 120.1364997  47.1799988 126.0439864 119.8279534  47.9862339
 119.1930012 118.0304997  45.3809988 119.2370012 118.8904997  44.9629988
 118.7360012 117.4784997  44.7469988 119.1372185 118.0735799  45.2380299
 126.9160012 118.1614997  43.7819988 127.5620012 117.8324997  44.4069988
 127.4260012 118.6794997  43.1589988 127.0734264 118.1864611  43.7833862
 115.8140012 120.4274997  46.1429988 116.4670012 119.8774997  46.5749988
 115.8380012 120.1534997  45.2259988 115.9066683 120.3151466  46.0782123
 120.9700012 121.9774997  45.3579988 121.5860012 121.4514997  45.8679988
 120.3840012 121.3374997  44.9549988 120.9750810 121.8189208  45.3733173
 131.9520012 118.6144997  50.8779988 131.2640012 119.2724997  50.7819988
 131.9680012 118.4174997  51.8139988 131.8598525 118.6780462  50.9914808
 118.0040012 116.9484997  49.4549988 117.7850012 117.4784997  48.6889988
 117.3360012 117.1754997  50.1019988 117.8837600 117.0516906  49.4376379
 125.3730012 126.4484997  42.9989988 125.0770012 126.1264997  42.1479988
 125.0480012 127.3484997  43.0399988 125.2886371 126.5260215  42.8881801
 120.5730012 124.6244997  49.7419988 119.8330012 125.2224997  49.8459988
 121.2870012 125.1784997  49.4269988 120.5682237 124.7812831  49.7136465
 128.6800012 117.4524997  45.7619988 128.4640012 116.6864997  46.2949988
 129.3350012 117.9244997  46.2749988 128.7390632 117.4115889  45.9042861
 117.5970012 118.8404997  47.4069988 118.2110012 119.4734997  47.7809988
 118.1090012 118.3684997  46.7509988 117.7502296 118.8632370  47.3694252
 118.9800012 126.5884997  50.5299988 118.9750012 127.4684997  50.1519988
 118.1270012 126.5054997  50.9549988 118.8639464 126.6976117  50.5357907
 115.1010012 126.2594997  41.3119988 114.8290012 126.4884997  40.4229988
 115.1470012 127.0974997  41.7719988 115.0700094 126.4041213  41.2525697
 128.7260012 127.8814997  48.0239988 127.7850012 127.9394997  48.1859988
 129.0030012 128.7874997  47.8869988 128.6344679 128.0119443  48.0276815
 129.0270012 116.1674997  49.4419988 128.2910012 116.7784997  49.4039988
 129.7100012 116.5824997  48.9149988 129.0186541 116.3071374  49.3655832
 122.0300012 114.2544997  46.9079988 121.9130012 113.3054997  46.8529988
 121.1750012 114.5864997  47.1809988 121.8983733 114.1695409  46.9373897
 126.9780012 129.6624997  44.6499988 127.4040012 128.9554997  44.1649988
 127.2950012 130.4634997  44.2329988 127.0791019 129.6740994  44.5273130
 128.1380012 127.5634997  43.1579988 127.8800012 126.8734997  42.5469988
 128.2090012 127.1204997  44.0039988 128.1122856 127.4092124  43.1886885
 129.8240012 126.1294997  51.6359988 129.9640012 125.5384997  50.8959988
 129.9910012 127.0024997  51.2789988 129.8656778 126.1666426  51.4866965
 124.2970012 123.0914997  41.4079988 123.5850012 123.6264997  41.0559988
 124.9880012 123.1474997  40.7479988 124.2930132 123.1722543  41.2706289
 124.3500012 121.5494997  38.4469988 125.0510012 121.5714997  39.0979988
 124.6530012 120.9214997  37.7909988 124.4867830 121.4676566  38.4473711
 131.6660012 122.4694997  49.7019988 131.0130012 123.1644997  49.7909988
 132.1310012 122.6794997  48.8919988 131.6395390 122.5929425  49.6046883
 127.7020012 123.3014997  42.3599988 126.9700012 123.5294997  42.9329988
 128.1500012 122.5874997  42.8149988 127.6623095 123.2362571  42.4999119
 127.6000012 121.4754997  51.4269988 127.6800012 122.2384997  51.9989988
 126.9980012 121.7544997  50.7369988 127.5295756 121.6177134  51.4120589
 119.3480012 123.9314997  44.2419988 119.0170012 123.5614997  43.4239988
 119.9360012 123.2614997  44.5889988 119.3821873 123.7901156  44.1768102
 120.7140012 127.3594997  46.9239988 120.6200012 126.7814997  46.1669988
 121.4440012 126.9884997  47.4199988 120.7997981 127.2302390  46.8874165
 119.7140012 122.7004997  47.8759988 120.2800012 122.8214997  47.1129988
 120.0330012 123.3374997  48.5149988 119.8345786 122.8031884  47.8580040
 126.0230012 128.2034997  48.6099988 125.7830012 128.8654997  49.2579988
 125.8250012 127.3694997  49.0349988 125.9633808 128.1813134  48.7561524
 120.5940012 127.0994997  52.5929988 120.2830012 127.8814997  53.0479988
 119.9440012 126.9464997  51.9069988 120.4635558 127.1859105  52.5625871
 126.5730012 122.4634997  40.0449988 127.1530012 122.6134997  40.7919988
 126.9870012 122.9344997  39.3219988 126.7082830 122.5476841  40.0494134
 117.5140012 123.2974997  51.8219988 117.5850012 123.9484997  52.5199988
 116.6240012 123.4004997  51.4869988 117.4033117 123.4005936  51.8722700
 124.3000012 129.2004997  43.4799988 124.7740012 129.4954997  44.2579988
 123.7370012 129.9384997  43.2469988 124.2887653 129.3406932  43.5550136
 118.8340012 129.1714997  53.3559988 118.8410012 129.0354997  52.4089988
 117.9180012 129.0534997  53.6079988 118.7111714 129.1369430  53.2604666
 130.2720012 114.2134997  39.8579988 129.3720012 114.3524997  40.1529988
 130.5240012 115.0444997  39.4559988 130.1828702 114.3449074  39.8440205
 118.3380012 123.0014997  41.8319988 118.0460012 123.7694997  41.3409988
 117.6640012 122.3414997  41.6689988 118.2069081 123.0174406  41.7427340
 131.4610012 128.5794997  38.2339988 131.5350012 129.5184997  38.4049988
 132.3670012 128.2744997  38.1779988 131.5935100 128.6666722  38.2498119
 114.4310012 125.3644997  50.6469988 113.9300012 125.3364997  49.8319988
 114.4360012 124.4584997  50.9559988 114.3631526 125.2382278  50.5772872
 114.1810012 128.1444997  47.5309988 115.1270012 128.0004997  47.5119988
 114.0690012 128.9284997  48.0679988 114.2952727 128.2308046  47.6010072
 132.3790012 128.8104997  53.2129988 132.3300012 127.8554997  53.1759988
 131.5520012 129.0784997  53.6139988 132.2604940 128.7158998  53.2621375
 123.3580012 128.3844997  52.0889988 123.4450012 129.2104997  52.5639988
 122.4940012 128.0544997  52.3379988 123.2531964 128.4529878  52.1876549
 123.7720012 132.1564997  41.8949988 123.6970012 132.0354997  40.9489988
 123.8050012 133.1064997  42.0139988 123.7661848 132.2682500  41.7814834
 117.4250012 130.9454997  43.6759988 117.5780012 130.5974997  44.5549988
 116.5750012 130.5894997  43.4209988 117.3308962 130.8496650  43.7618340
 126.8740012 131.3104997  38.8969988 127.2490012 130.5664997  38.4269988
 126.8780012 131.0404997  39.8159988 126.9258915 131.1721486  38.9567824
 126.5430012 131.2364997  41.6469988 125.6070012 131.3364997  41.8249988
 126.8230012 130.5274997  42.2249988 126.4528255 131.1542711  41.7495391
 129.5310012 120.3034997  53.6929988 129.1240012 120.7844997  52.9719988
 129.5720012 119.3984997  53.3849988 129.4808437 120.2469374  53.5526683
 116.6800012 126.6874997  51.6899988 116.8960012 126.3264997  52.5489988
 115.8250012 126.3134997  51.4799988 116.5939292 126.5874111  51.7793386
 119.2990012 115.1574997  47.6849988 118.4370012 115.0704997  47.2779988
 119.2760012 116.0134997  48.1129988 119.1780330 115.2612765  47.6871863
 123.9620012 114.8794997  51.0599988 124.3820012 114.4644997  51.8129988
 123.0290012 114.7014997  51.1769988 123.8933644 114.7985900  51.1789539
 127.2880012 118.6354997  51.9129988 126.7740012 118.5094997  52.7109988
 127.1330012 119.5474997  51.6689988 127.1966852 118.7416132  51.9892158
 128.0510012 123.4964997  37.6749988 128.0930012 123.2734997  36.7449988
 128.9000012 123.8954997  37.8649988 128.1715396 123.5199155  37.5733627
 123.6230012 117.3724997  38.3449988 123.3700012 117.3914997  39.2679988
 123.3670012 116.5004997  38.0439988 123.5537790 117.2572437  38.4306263
 119.3900012 120.1234997  48.7799988 118.7480012 120.0824997  49.4889988
 119.4270012 121.0494997  48.5429988 119.3071324 120.2431559  48.8449824
 119.3870012 120.3444997  43.6919988 118.4940012 120.0034997  43.6339988
 119.8370012 119.9674997  42.9369988 119.3257305 120.2468484  43.5819177
 124.9220012 120.7604997  42.5089988 124.5130012 121.5754997  42.2179988
 125.6430012 120.6204997  41.8949988 124.9634537 120.8532018  42.3861342
 124.0240012 120.9354997  53.9969988 123.4620012 120.2314997  54.3179988
 124.8510012 120.8154997  54.4649988 124.0587095 120.8227883  54.1042330
 125.9270012 120.2064997  45.3229988 125.7320012 120.8114997  44.6079988
 126.1080012 119.3724997  44.8889988 125.9247614 120.1766300  45.1664405
 117.1400012 120.4434997  50.6469988 117.1020012 120.8434997  51.5159988
 116.6490012 119.6264997  50.7379988 117.0684684 120.3878069  50.7781059
 120.5060012 117.8174997  37.4459988 120.0750012 117.3724997  38.1759988
 119.7880012 118.1894997  36.9339988 120.3499438 117.8068940  37.4766799
 113.7480012 117.5594997  44.4979988 114.3790012 117.5304997  45.2169988
 114.1970012 117.1344997  43.7679988 113.8950774 117.4980492  44.4976553
 115.0220012 118.3054997  39.9219988 115.4960012 118.8964997  39.3369988
 114.3050012 118.8364997  40.2689988 114.9899341 118.4580867  39.8888836
 125.1910012 121.8444997  49.9949988 125.5140012 121.2134997  49.3519988
 124.7510012 121.3094997  50.6549988 125.1756895 121.6858441  49.9962850
 121.9680012 117.7714997  44.7789988 121.0570012 117.8284997  45.0669988
 122.4740012 117.7114997  45.5889988 121.9115413 117.7711985  44.9280622
 116.7970012 119.4004997  43.6049988 115.9070012 119.5004997  43.2649988
 117.0930012 118.5584997  43.2589988 116.7152823 119.3003545  43.5117213
 120.4500012 119.4004997  41.2619988 121.3810012 119.5294997  41.4399988
 120.2350012 120.0704997  40.6119988 120.5484247 119.5086565  41.1985747
 126.3730012 117.0064997  48.0429988 125.6970012 117.1374997  48.7069988
 125.8880012 116.8514997  47.2329988 126.2147145 117.0034905  48.0244517
 119.1240012 120.5954997  38.8289988 118.5810012 120.2154997  38.1369988
 119.9570012 120.7894997  38.3999988 119.1624399 120.5698124  38.6764526
 129.6610012 132.6784997  54.3199988 129.8610012 133.1024997  53.4849988
 130.3160012 133.0214997  54.9269988 129.7770051 132.7829648  54.2877836
 117.2590012 125.1524997  53.9279988 117.9910012 125.4064997  54.4889988
 116.4790012 125.3564997  54.4429988 117.2538232 125.2149177  54.0745760
 123.2880012 120.5594997  46.6659988 123.8530012 120.0124997  46.1189988
 123.1410012 120.0374997  47.4539988 123.3452918 120.4142024  46.6978454
 118.2900012 116.6954997  43.0839988 117.9730012 115.7934997  43.0489988
 119.0720012 116.6974997  42.5309988 118.3522284 116.5721628  43.0044783
 121.9150012 118.9474997  49.0799988 121.0790012 119.4014997  49.1899988
 122.4390012 119.2234997  49.8319988 121.8714414 119.0469376  49.1967136
 122.4590012 125.1604997  40.7639988 121.7140012 124.6534997  40.4419988
 122.3250012 125.2094997  41.7109988 122.3388776 125.0976940  40.8478647
 129.6090012 124.2934997  49.5509988 130.2510012 124.7504997  49.0069988
 128.7790012 124.4064997  49.0879988 129.5845963 124.3712704  49.4140177
 126.3570012 117.9744997  38.9639988 125.4180012 118.0864997  38.8119988
 126.6540012 118.8314997  39.2699988 126.2687666 118.1056443  38.9845768
 123.9780012 125.3444997  52.0009988 123.6330012 124.9634997  52.8079988
 123.7780012 126.2784997  52.0729988 123.9038061 125.4185228  52.1210961
 127.0750012 119.8414997  40.6239988 127.9670012 119.7044997  40.9429988
 127.1320012 120.6324997  40.0879988 127.2046285 119.9296660  40.5951691
 117.5840012 124.4554997  46.5339988 118.3290012 124.4534997  45.9329988
 117.6620012 123.6324997  47.0159988 117.6965518 124.3439315  46.5168929
 124.5850012 126.6194997  39.7899988 124.2890012 127.4454997  40.1709988
 123.8820012 125.9994997  39.9859988 124.4494914 126.6488199  39.8686443
 114.5920012 122.9164997  51.8489988 114.8150012 122.4984997  52.6809988
 113.9900012 122.3034997  51.4259988 114.5411759 122.7764668  51.9057022
 121.6080012 122.4334997  54.0619988 121.3120012 122.2674997  53.1669988
 122.5400012 122.2134997  54.0509988 121.6934166 122.3810640  53.9380536
 126.2290012 127.8064997  51.9519988 125.3280012 127.9894997  51.6839988
 126.2630012 128.0654997  52.8729988 126.1103041 127.8665512  52.0398197
 131.9600012 120.0514997  40.3189988 131.4060012 119.6554997  39.6469988
 132.0600012 120.9614997  40.0409988 131.8977059 120.1203586  40.1894401
 131.9230012 125.8514997  53.1559988 131.0720012 126.0894997  52.7889988
 132.5140012 125.8344997  52.4029988 131.8862487 125.8818258  53.0038893
 130.2550012 128.8374997  40.7839988 129.8820012 128.0114997  41.0929988
 130.5330012 128.6544997  39.8869988 130.2415630 128.6997303  40.7049626
 127.4160012 123.6454997  47.8049988 126.4870012 123.4134997  47.7779988
 127.8670012 122.8684997  47.4749988 127.3499216 123.5087238  47.7566917
 119.9590012 127.9734997  43.9379988 120.4860012 128.7464997  43.7379988
 119.0790012 128.1984997  43.6369988 119.9121773 128.1098005  43.8699010
 115.7140012 122.8354997  38.5249988 116.3300012 123.4624997  38.9049988
 114.8520012 123.1514997  38.7969988 115.6817698 122.9639430  38.6137183
 121.3860012 125.6364997  43.5149988 121.1450012 126.5614997  43.5559988
 120.6450012 125.1774997  43.9109988 121.2528409 125.7011421  43.5741377
 121.9010012 129.7854997  49.8299988 122.2630012 130.6404997  49.5959988
 122.4320012 129.4934997  50.5699988 122.0224473 129.8631060  49.8980855
 120.0690012 130.6584997  43.0599988 119.1190012 130.7634997  43.1109988
 120.4210012 131.4784997  43.4049988 119.9864203 130.7838314  43.1136650
 125.4450012 125.8844997  49.5299988 125.0190012 125.6574997  50.3569988
 126.0250012 125.1464997  49.3479988 125.4651868 125.7535299  49.6185830
 127.6480012 126.8134997  38.6039988 128.0010012 126.4334997  39.4089988
 126.6990012 126.7204997  38.6909988 127.5680441 126.7489596  38.7258559
 128.1030012 130.4364997  51.9999988 127.5020012 129.8814997  51.5039988
 128.3850012 131.1034997  51.3739988 128.0588519 130.4506841  51.8474952
 132.1510012 131.2934997  38.8049988 132.8950012 131.8794997  38.6649988
 131.4570012 131.8614997  39.1389988 132.1590292 131.4505582  38.8309961
 116.2260012 117.6694997  51.4069988 115.3330012 118.0084997  51.3389988
 116.1270012 116.8144997  51.8249988 116.0904164 117.6002588  51.4542235
 128.5140012 125.4864997  40.8309988 128.2360012 124.7584997  41.3869988
 129.4410012 125.6054997  41.0359988 128.6013124 125.4028802  40.9348845
 115.8770012 129.4744997  49.8419988 116.0940012 128.5424997  49.8109988
 116.1230012 129.7484997  50.7249988 115.9399549 129.3840636  49.9571763
 121.7390012 127.9254997  37.0509988 121.9780012 127.1774997  36.5039988
 121.4700012 127.5374997  37.8839988 121.7353675 127.7706638  37.0886865
 120.6760012 127.4954997  39.5079988 120.8220012 126.9754997  40.2979988
 120.6730012 128.4024997  39.8139988 120.6955989 127.5468853  39.6576088
 117.1290012 124.7484997  40.0179988 116.4430012 125.1004997  40.5849988
 117.6510012 125.5114997  39.7709988 117.1056852 124.8998578  40.0622118
 124.9600012 117.4104997  50.2969988 125.6590012 117.4844997  50.9469988
 124.5790012 116.5464997  50.4509988 125.0041767 117.3037624  50.4068322
 125.7450012 117.0624997  41.3939988 125.9650012 117.5344997  40.5909988
 126.3030012 117.4574997  42.0639988 125.8504968 117.1804285  41.3747331
 123.4130012 129.1934997  40.2569988 122.5970012 129.6904997  40.3089988
 123.9430012 129.6684997  39.6169988 123.3729161 129.3257722  40.1775956
 122.9450012 118.7904997  42.2289988 123.7570012 119.2954997  42.2749988
 122.7000012 118.6454997  43.1429988 123.0230520 118.8400375  42.3588517
 123.4800012 119.7764997  51.4139988 123.5990012 120.3504997  52.1709988
 124.1360012 119.0884997  51.5279988 123.5849757 119.7621079  51.5330825
 123.8280012 115.8714997  43.1669988 123.4820012 116.4894997  43.8119988
 124.4870012 116.3724997  42.6859988 123.8697826 116.0235802  43.1900971
 120.7520012 130.2374997  40.2389988 120.9120012 131.0364997  39.7379988
 120.5540012 130.5434997  41.1239988 120.7471649 130.3884469  40.2899815
 119.4860012 116.9344997  39.8539988 119.4030012 117.8234997  40.2009988
 120.3760012 116.6694997  40.0859988 119.5949469 117.0201430  39.9327626
 129.6850012 117.6834997  52.2489988 128.7680012 117.9464997  52.1609988
 130.0200012 117.6804997  51.3519988 129.6049900 117.7190224  52.1157919
 128.2870012 121.4344997  46.3439988 127.4890012 121.0194997  46.0159988
 128.7320012 120.7434997  46.8349988 128.2379885 121.2843543  46.3654889
 117.7450012 127.3624997  38.9149988 118.3370012 128.0614997  39.1909988
 118.2040012 126.9294997  38.1949988 117.8881142 127.3997049  38.8554830
 116.0610012 120.0264997  38.0309988 116.0160012 120.9654997  38.2089988
 115.1730012 119.7904997  37.7609988 115.9348574 120.1231892  38.0188912
 129.3730012 130.6904997  47.9669988 129.2180012 131.3684997  47.3099988
 130.3060012 130.7624997  48.1699988 129.4778500 130.7930170  47.9045119
 116.8690012 114.8084997  46.7039988 116.6400012 114.8674997  45.7759988
 116.4260012 114.0164997  47.0099988 116.7778530 114.7095753  46.6184786
 115.7990012 128.7484997  42.8639988 114.9670012 129.2214997  42.8919988
 116.3450012 129.2584997  42.2659988 115.7589739 128.8821871  42.7869716
 115.0870012 131.3614997  54.1939988 115.6280012 131.1444997  54.9539988
 114.6060012 130.5554997  54.0049988 115.0959345 131.2229514  54.2723076
 119.6850012 130.2804997  55.8149988 120.4520012 129.8214997  56.1559988
 119.6630012 130.0544997  54.8849988 119.7871434 130.1870409  55.7360043
 123.7770012 129.7884997  37.1899988 123.1330012 129.1574997  37.5109988
 124.5390012 129.2574997  36.9579988 123.7918077 129.6302920  37.2026011
 126.2620012 128.6604997  54.5439988 125.9110012 127.8044997  54.7869988
 126.9880012 128.8034997  55.1509988 126.3120769 128.5625636  54.6593619
 128.3810012 129.6054997  37.4239988 128.6640012 128.8114997  37.8759988
 129.1210012 129.8384997  36.8629988 128.5197486 129.5282803  37.4100698
 114.9940012 125.1714997  55.1489988 115.1380012 124.2694997  54.8619988
 114.2220012 125.4574997  54.6609988 114.9093322 125.0868261  55.0437881
 119.3360012 125.5154997  37.2809988 119.4000012 124.7214997  37.8119988
 119.9890012 125.3964997  36.5909988 119.4330241 125.3907148  37.2604317
 121.6500012 125.1414997  54.5809988 121.3210012 125.4124997  53.7239988
 121.8020012 124.2004997  54.4939988 121.6254809 125.0513862  54.4518244
 124.6880012 126.5624997  37.0169988 124.4190012 126.7424997  37.9179988
 124.4820012 125.6364997  36.8859988 124.6233825 126.4620152  37.1225214
 127.3840012 125.0574997  51.9649988 128.1300012 125.6454997  51.8449988
 126.6270012 125.6394997  52.0279988 127.3837554 125.2167011  51.9570907
 115.8270012 122.3714997  54.5689988 116.2350012 121.5144997  54.4479988
 115.5670012 122.3864997  55.4899988 115.8477568 122.2560807  54.6769588
 120.4850012 123.4874997  39.5869988 120.0250012 123.0034997  40.2729988
 120.7400012 122.8194997  38.9509988 120.4564902 123.3308731  39.5949334
 119.7740012 121.3804997  51.9429988 119.1560012 122.0554997  52.2229988
 120.1180012 121.7014997  51.1099988 119.7359615 121.5162721  51.8686581
 121.5560012 121.7304997  37.8489988 121.3760012 121.5764997  36.9219988
 122.5060012 121.8384997  37.8939988 121.6597776 121.7240175  37.7281843
 124.7940012 123.8524997  55.2199988 125.7470012 123.9354997  55.1929988
 124.6330012 123.1404997  55.8399988 124.9026426 123.7676746  55.3000579
 130.9460012 124.0854997  37.2949988 130.6720012 123.6604997  36.4819988
 130.9850012 125.0164997  37.0779988 130.9137699 124.1532484  37.1543610
 120.1130012 118.7354997  53.0249988 120.2630012 118.0064997  52.4229988
 120.1160012 119.5124997  52.4659988 120.1339302 118.7407851  52.8670692
 120.5260012 117.1054997  50.5179988 121.0620012 117.5564997  49.8659988
 119.6740012 116.9974997  50.0949988 120.4842178 117.1526390  50.3715756
 122.1080012 122.5444997  50.7569988 122.8580012 122.3884997  50.1839988
 121.7690012 123.3964997  50.4819988 122.1648921 122.6382968  50.6413561
 126.5230012 120.3594997  55.7859988 126.7160012 119.4284997  55.6739988
 127.3810012 120.7844997  55.7759988 126.6653020 120.2896389  55.7693361
 127.8400012 123.1484997  53.8629988 127.5590012 123.8574997  53.2859988
 128.7830012 123.0754997  53.7119988 127.9289027 123.2357646  53.7635551
 118.5920012 119.9334997  54.9369988 117.8250012 119.4014997  54.7269988
 119.2710012 119.6234997  54.3369988 118.5787022 119.8187506  54.8271648
 121.3320012 114.5614997  50.9489988 121.2330012 115.5084997  50.8439988
 120.5890012 114.1894997  50.4739988 121.2180564 114.6405902  50.8704560
 122.5960012 118.8834997  54.5129988 122.3600012 118.6634997  55.4149988
 121.8120012 118.6764997  54.0029988 122.4578628 118.8254760  54.5673932
 125.3110012 118.0104997  53.5889988 124.3640012 118.0424997  53.7209988
 125.6240012 117.3854997  54.2419988 125.2235475 117.9303207  53.6954455
 126.9450012 116.6444997  55.5939988 126.8490012 115.6924997  55.5879988
 126.6240012 116.9134997  56.4539988 126.8884070 116.5504035  55.7095441
 116.7720012 117.8544997  54.6409988 116.9840012 117.1474997  54.0309988
 116.6610012 117.4164997  55.4849988 116.7859721 117.6987084  54.6716843
 121.5530012 113.8554997  53.6209988 122.2650012 113.2154997  53.6069988
 121.4520012 114.1224997  52.7069988 121.6367939 113.8039938  53.4955650
 121.9070012 115.5384997  55.6739988 121.7750012 115.0624997  54.8539988
 121.3080012 116.2824997  55.6189988 121.8079071 115.5739618  55.5542886
 121.4530012 132.4214997  38.8509988 122.3860012 132.5794997  38.9939988
 121.1890012 133.0964997  38.2259988 121.5449510 132.5343611  38.7860741
 115.0220012 127.0574997  38.3329988 115.9360012 127.1364997  38.6069988
 115.0290012 126.3704997  37.6669988 115.1481131 126.9753961  38.2804393
 113.6710012 132.4504997  43.4109988 113.0240012 131.9884997  42.8779988
 114.0250012 131.7784997  43.9929988 113.6303849 132.2964723  43.4167959
 114.5410012 130.5314997  45.2149988 114.2060012 129.6514997  45.3869988
 114.7630012 130.8764997  46.0799988 114.5251783 130.4577500  45.3554208
 132.0890012 131.3404997  48.1959988 132.0680012 131.5254997  49.1349988
 132.7800012 131.9094997  47.8549988 132.1794618 131.4426606  48.2783864
 131.6530012 130.9084997  51.1179988 131.1650012 130.1724997  50.7469988
 132.2020012 130.5144997  51.7959988 131.6604872 130.7546249  51.1589160
 130.1030012 126.6974997  55.7559988 129.2370012 126.5924997  56.1499988
 130.4800012 127.4564997  56.2019988 130.0353308 126.7856900  55.8702393
 131.4040012 124.9544997  41.2699988 132.2540012 125.3754997  41.3969988
 131.4100012 124.2144997  41.8769988 131.5211372 124.9120803  41.3694344
 131.7990012 123.0074997  43.0939988 131.0720012 122.5284997  43.4909988
 132.3800012 123.2134997  43.8259988 131.7779375 122.9697090  43.2474129
 131.5580012 125.7924997  48.0409988 132.3910012 125.4144997  47.7609988
 131.6700012 126.7354997  47.9219988 131.6872647 125.8682218  47.9865487
 130.0440012 128.6704997  50.3479988 129.3970012 128.9954997  50.9739988
 129.5270012 128.2304997  49.6739988 129.8854029 128.6555004  50.3425827
 132.0670012 122.9084997  39.4849988 131.5450012 123.2654997  38.7659988
 132.0340012 123.5834997  40.1629988 131.9911634 123.0485413  39.4783145
 130.4160012 120.1484997  38.0359988 130.5120012 120.8154997  37.3549988
 130.2760012 119.3324997  37.5539988 130.4102135 120.1294500  37.8778491
 129.5850012 121.5284997  43.6569988 129.4350012 120.5834997  43.6359988
 129.2320012 121.8094997  44.4999988 129.5166625 121.4370441  43.7682346
 114.6210012 123.6064997  47.6669988 114.8050012 123.5244997  46.7309988
 115.4700012 123.4824997  48.0909988 114.7610139 123.5785003  47.5961455
 130.4420012 123.4984997  53.2949988 131.0250012 122.7644997  53.4869988
 131.0060012 124.2704997  53.3419988 130.5979769 123.5024227  53.3276159
 131.9380012 121.4014997  53.9799988 131.0750012 121.0224997  53.8139988
 132.5430012 120.6624997  53.9059988 131.9015979 121.2498023  53.9472817
 129.6630012 117.5564997  37.1529988 130.2740012 117.1854997  37.7899988
 128.8270012 117.1354997  37.3489988 129.6335032 117.4487554  37.2667035
 129.2960012 119.1114997  42.1189988 129.5760012 118.2044997  42.2429988
 130.0550012 119.5454997  41.7299988 129.4369277 119.0460942  42.0833682
 129.9080012 119.6924997  47.5549988 130.8410012 119.9044997  47.5209988
 129.6730012 119.7944997  48.4769988 130.0038036 119.7352769  47.6749976
 129.9370012 120.4294997  50.3309988 129.0940012 120.6974997  50.6969988
 130.3790012 121.2514997  50.1199988 129.8814158 120.5773291  50.3525491
 114.2180012 118.8774997  53.8079988 115.1380012 118.7554997  54.0439988
 113.7690012 118.1274997  54.1969988 114.2831580 118.7593727  53.8929006
 132.2200012 114.4094997  55.6839988 132.5700012 113.7554997  55.0789988
 132.3670012 115.2464997  55.2449988 132.2878419 114.4331591  55.5417118
 129.9090012 116.3744997  42.1669988 130.0920012 115.9254997  42.9929988
 129.3100012 115.7894997  41.7039988 129.8530202 116.2339975  42.2173275
 115.4390012 117.1894997  46.6989988 115.8850012 116.3974997  47.0009988
 115.9060012 117.9054997  47.1299988 115.5630172 117.1780624  46.7984820
 113.7430012 120.1884997  47.7679988 114.2350012 119.9674997  46.9769988
 114.1060012 121.0294997  48.0489988 113.8593126 120.2718357  47.6977531
 131.7400012 116.5184997  54.0339988 130.8220012 116.7894997  53.9979988
 131.8630012 115.9834997  53.2489988 131.6311066 116.4832892  53.9230487
 131.7760012 116.4414997  38.6949988 132.1880012 115.7204997  38.2199988
 132.4580012 117.1114997  38.7539988 131.9245885 116.4332368  38.6378915
 114.0570012 116.4464997  41.8219988 113.1320012 116.6554997  41.6929988
 114.5110012 116.9304997  41.1329988 113.9917368 116.5405993  41.7111226
 128.8280012 131.4304997  43.7679988 129.4800012 131.0834997  43.1599988
 129.3380012 131.9194997  44.4139988 128.9862637 131.4490597  43.7720236
 114.0210012 115.1844997  50.1669988 113.3560012 114.9384997  50.8099988
 113.5780012 115.8064997  49.5889988 113.8700956 115.2348632  50.1769352
 116.2130012 128.3594997  54.3109988 115.3920012 128.5344997  53.8509988
 115.9600012 128.2864997  55.2319988 116.0666164 128.3735622  54.3724923
 119.1670012 129.3344997  50.5699988 118.7420012 130.1434997  50.2869988
 120.0710012 129.4194997  50.2679988 119.2310271 129.4568469  50.4903776
 123.4780012 130.7334997  53.5289988 123.6630012 130.3994997  54.4069988
 124.3240012 131.0424997  53.2069988 123.6177539 130.7296047  53.6055605
 125.8230012 132.0194997  52.7729988 126.5000012 131.3864997  52.5329988
 126.1450012 132.4204997  53.5799988 125.9591637 131.9871154  52.8492793
 130.7400012 114.6084997  51.8529988 129.9280012 114.9334997  51.4649988
 130.9730012 113.8484997  51.3199988 130.6603423 114.5502436  51.7278253
 116.5690012 132.5904997  50.6169988 115.8480012 133.0304997  50.1659988
 116.2030012 132.3394997  51.4659988 116.4209804 132.6167698  50.6699840
 119.0360012 132.1904997  49.6469988 118.1710012 132.2624997  50.0509988
 118.9810012 132.7374997  48.8629988 118.9102085 132.2742685  49.5963362
 123.7460012 132.0784997  48.8219988 123.2900012 132.6074997  48.1679988
 123.9090012 132.6814997  49.5479988 123.7055585 132.2324468  48.8305062
 126.0740012 130.9564997  49.7669988 125.1690012 131.1214997  49.5019988
 126.5030012 131.8094997  49.7019988 126.0080799 131.0944483  49.7219182
 128.6780012 132.5264997  50.0619988 128.4960012 133.4424997  49.8519988
 128.8550012 132.1164997  49.2159988 128.6770210 132.5964822  49.9187885
 115.9830012 131.2134997  47.5269988 115.9650012 130.7884997  48.3849988
 116.7880012 130.8954997  47.1189988 116.0893875 131.1123812  47.5891655
 118.1250012 129.9234997  46.1819988 117.9060012 129.0074997  46.3519988
 118.9490012 130.0634997  46.6479988 118.2064420 129.8170520  46.2682774
 120.6620012 130.3934997  47.0309988 120.8750012 129.5054997  46.7439988
 120.7260012 130.3594997  47.9849988 120.6998232 130.2673102  47.1207397
 124.1700012 116.0574997  46.1749988 123.4960012 115.4284997  46.4309988
 124.7340012 115.5734997  45.5719988 124.1539230 115.9058744  46.1285340
 129.3130012 114.1654997  46.2879988 129.9170012 114.7124997  45.7859988
 128.4430012 114.4844997  46.0479988 129.2781241 114.2835806  46.1867654
 131.0400012 115.3034997  44.6209988 131.6520012 114.7894997  44.0949988
 131.4220012 116.1814997  44.6449988 131.1754540 115.3517140  44.5521830
 116.4970012 114.6914997  43.9969988 115.7200012 114.4574997  43.4899988
 117.0270012 113.8944997  44.0059988 116.4622330 114.5516988  43.9287742
 115.3330012 114.4894997  39.8009988 115.7720012 115.1004997  39.2089988
 114.7000012 115.0274997  40.2749988 115.3074514 114.6459257  39.7840930
 121.0760012 114.6184997  43.8109988 121.9510012 115.0064997  43.7809988
 120.9400012 114.4034997  44.7329988 121.1773695 114.6425184  43.9316440
 126.6330012 114.6484997  45.4599988 126.7090012 114.7434997  44.5099988
 126.3580012 113.7404997  45.5889988 126.6062321 114.5387867  45.3475079
 127.9860012 114.6744997  41.1519988 127.2840012 115.2894997  40.9429988
 127.5420012 113.8364997  41.2829988 127.8296330 114.6455783  41.1410328
 115.2340012 130.4374997  40.6989988 114.5490012 130.3994997  40.0309988
 115.2380012 131.3504997  40.9869988 115.1408193 130.5557016  40.6465284
 117.1940012 116.4054997  38.2429988 117.6860012 115.7754997  37.7159988
 117.8180012 116.7014997  38.9069988 117.3455446 116.3593199  38.2605980
 122.2200012 116.6984997  40.6999988 122.3980012 116.0524997  41.3829988
 122.1670012 117.5324997  41.1679988 122.2371829 116.7227985  40.8565940
 124.0990012 131.6474997  39.0959988 124.9650012 132.0134997  38.9179988
 123.8520012 131.2074997  38.2819988 124.1842392 131.6381756  38.9616289
 130.8080012 131.2104997  41.7749988 130.6130012 130.4624997  41.2099988
 130.7690012 131.9684997  41.1919988 130.7760380 131.2106099  41.6188384
 116.4550012 115.2054997  53.5149988 116.0890012 114.4404997  53.9579988
 117.3680012 115.2344997  53.8019988 116.5282790 115.1047224  53.6144070
 118.4280012 114.5564997  55.0509988 119.3260012 114.2824997  54.8659988
 118.0410012 113.8134997  55.5149988 118.4986612 114.4185914  55.0883643
 117.0520012 131.3574997  37.7239988 116.7850012 131.6444997  38.5969988
 117.8240012 130.8114997  37.8759988 117.1197488 131.3230294  37.8641050
 126.8490012 113.8884997  55.2329988 126.9260012 113.4624997  56.0869988
 127.7430012 113.9024997  54.8899988 126.9803428 113.8320880  55.3035310
 130.0250012 129.9614997  53.9249988 129.2430012 129.7754997  53.4059988
 129.9530012 130.8904997  54.1429988 129.9081777 130.0616492  53.8834048
 144.4310012 123.8474997  43.9559988 144.5200012 124.7914997  43.8239988
 143.7930012 123.5724997  43.2979988 144.3569081 123.9394830  43.8489614
 143.3640012 123.1024997  47.3749988 143.3260012 122.4564997  48.0799988
 143.0420012 122.6364997  46.6039988 143.3152333 122.9509408  47.3672978
 135.7330012 122.7174997  48.9679988 135.7740012 122.0914997  49.6909988
 136.4360012 123.3414997  49.1499988 135.8336363 122.7161196  49.0916044
 136.6560012 127.1674997  47.5029988 136.2870012 126.3654997  47.1329988
 137.5970012 126.9984997  47.5489988 136.7327289 127.0350153  47.4586316
 133.2660012 120.8274997  42.8959988 132.8190012 121.6734997  42.8769988
 132.7050012 120.2474997  42.3799988 133.1289900 120.8649916  42.8236801
 133.9770012 122.9894997  45.0219988 134.1900012 122.2194997  45.5489988
 134.7150012 123.0784997  44.4179988 134.1058496 122.8961394  45.0125300
 144.1820012 131.1464997  45.8889988 144.8020012 130.4694997  45.6149988
 143.9740012 130.9284997  46.7969988 144.2386904 131.0243870  45.9743365
 141.7540012 125.5354997  47.7809988 142.0580012 124.8494997  47.1859988
 142.4750012 125.6534997  48.3989988 141.8930671 125.4576305  47.7831816
 144.8950012 119.9294997  48.1089988 145.0370012 118.9834997  48.1289988
 144.7880012 120.1364997  47.1799988 144.8999863 119.8279534  47.9862339
 138.0490012 118.0304997  45.3809988 138.0930012 118.8904997  44.9629988
 137.5920012 117.4784997  44.7469988 137.9932185 118.0735799  45.2380299
 134.6700012 120.4274997  46.1429988 135.3230012 119.8774997  46.5749988
 134.6940012 120.1534997  45.2259988 134.7626683 120.3151466  46.0782123
 139.8260012 121.9774997  45.3579988 140.4420012 121.4514997  45.8679988
 139.2400012 121.3374997  44.9549988 139.8310810 121.8189208  45.3733173
 136.8600012 116.9484997  49.4549988 136.6410012 117.4784997  48.6889988
 136.1920012 117.1754997  50.1019988 136.7397600 117.0516906  49.4376379
 144.2290012 126.4484997  42.9989988 143.9330012 126.1264997  42.1479988
 143.9040012 127.3484997  43.0399988 144.1446371 126.5260215  42.8881801
 139.4290012 124.6244997  49.7419988 138.6890012 125.2224997  49.8459988
 140.1430012 125.1784997  49.4269988 139.4242237 124.7812831  49.7136465
 136.4530012 118.8404997  47.4069988 137.0670012 119.4734997  47.7809988
 136.9650012 118.3684997  46.7509988 136.6062296 118.8632370  47.3694252
 137.8360012 126.5884997  50.5299988 137.8310012 127.4684997  50.1519988
 136.9830012 126.5054997  50.9549988 137.7199464 126.6976117  50.5357907
 133.9570012 126.2594997  41.3119988 133.6850012 126.4884997  40.4229988
 134.0030012 127.0974997  41.7719988 133.9260094 126.4041213  41.2525697
 140.8860012 114.2544997  46.9079988 140.7690012 113.3054997  46.8529988
 140.0310012 114.5864997  47.1809988 140.7543733 114.1695409  46.9373897
 143.1530012 123.0914997  41.4079988 142.4410012 123.6264997  41.0559988
 143.8440012 123.1474997  40.7479988 143.1490132 123.1722543  41.2706289
 143.2060012 121.5494997  38.4469988 143.9070012 121.5714997  39.0979988
 143.5090012 120.9214997  37.7909988 143.3427830 121.4676566  38.4473711
 138.2040012 123.9314997  44.2419988 137.8730012 123.5614997  43.4239988
 138.7920012 123.2614997  44.5889988 138.2381873 123.7901156  44.1768102
 139.5700012 127.3594997  46.9239988 139.4760012 126.7814997  46.1669988
 140.3000012 126.9884997  47.4199988 139.6557981 127.2302390  46.8874165
 138.5700012 122.7004997  47.8759988 139.1360012 122.8214997  47.1129988
 138.8890012 123.3374997  48.5149988 138.6905786 122.8031884  47.8580040
 144.8790012 128.2034997  48.6099988 144.6390012 128.8654997  49.2579988
 144.6810012 127.3694997  49.0349988 144.8193808 128.1813134  48.7561524
 139.4500012 127.0994997  52.5929988 139.1390012 127.8814997  53.0479988
 138.8000012 126.9464997  51.9069988 139.3195558 127.1859105  52.5625871
 136.3700012 123.2974997  51.8219988 136.4410012 123.9484997  52.5199988
 135.4800012 123.4004997  51.4869988 136.2593117 123.4005936  51.8722700
 143.1560012 129.2004997  43.4799988 143.6300012 129.4954997  44.2579988
 142.5930012 129.9384997  43.2469988 143.1447653 129.3406932  43.5550136
 137.6900012 129.1714997  53.3559988 137.6970012 129.0354997  52.4089988
 136.7740012 129.0534997  53.6079988 137.5671714 129.1369430  53.2604666
 137.1940012 123.0014997  41.8319988 136.9020012 123.7694997  41.3409988
 136.5200012 122.3414997  41.6689988 137.0629081 123.0174406  41.7427340
 133.2870012 125.3644997  50.6469988 132.7860012 125.3364997  49.8319988
 133.2920012 124.4584997  50.9559988 133.2191526 125.2382278  50.5772872
 133.0370012 128.1444997  47.5309988 133.9830012 128.0004997  47.5119988
 132.9250012 128.9284997  48.0679988 133.1512727 128.2308046  47.6010072
 142.2140012 128.3844997  52.0889988 142.3010012 129.2104997  52.5639988
 141.3500012 128.0544997  52.3379988 142.1091964 128.4529878  52.1876549
 142.6280012 132.1564997  41.8949988 142.5530012 132.0354997  40.9489988
 142.6610012 133.1064997  42.0139988 142.6221848 132.2682500  41.7814834
 136.2810012 130.9454997  43.6759988 136.4340012 130.5974997  44.5549988
 135.4310012 130.5894997  43.4209988 136.1868962 130.8496650  43.7618340
 135.5360012 126.6874997  51.6899988 135.7520012 126.3264997  52.5489988
 134.6810012 126.3134997  51.4799988 135.4499292 126.5874111  51.7793386
 138.1550012 115.1574997  47.6849988 137.2930012 115.0704997  47.2779988
 138.1320012 116.0134997  48.1129988 138.0340330 115.2612765  47.6871863
 142.8180012 114.8794997  51.0599988 143.2380012 114.4644997  51.8129988
 141.8850012 114.7014997  51.1769988 142.7493644 114.7985900  51.1789539
 142.4790012 117.3724997  38.3449988 142.2260012 117.3914997  39.2679988
 142.2230012 116.5004997  38.0439988 142.4097790 117.2572437  38.4306263
 138.2460012 120.1234997  48.7799988 137.6040012 120.0824997  49.4889988
 138.2830012 121.0494997  48.5429988 138.1631324 120.2431559  48.8449824
 138.2430012 120.3444997  43.6919988 137.3500012 120.0034997  43.6339988
 138.6930012 119.9674997  42.9369988 138.1817305 120.2468484  43.5819177
 143.7780012 120.7604997  42.5089988 143.3690012 121.5754997  42.2179988
 144.4990012 120.6204997  41.8949988 143.8194537 120.8532018  42.3861342
 142.8800012 120.9354997  53.9969988 142.3180012 120.2314997  54.3179988
 143.7070012 120.8154997  54.4649988 142.9147095 120.8227883  54.1042330
 144.7830012 120.2064997  45.3229988 144.5880012 120.8114997  44.6079988
 144.9640012 119.3724997  44.8889988 144.7807614 120.1766300  45.1664405
 135.9960012 120.4434997  50.6469988 135.9580012 120.8434997  51.5159988
 135.5050012 119.6264997  50.7379988 135.9244684 120.3878069  50.7781059
 139.3620012 117.8174997  37.4459988 138.9310012 117.3724997  38.1759988
 138.6440012 118.1894997  36.9339988 139.2059438 117.8068940  37.4766799
 132.6040012 117.5594997  44.4979988 133.2350012 117.5304997  45.2169988
 133.0530012 117.1344997  43.7679988 132.7510774 117.4980492  44.4976553
 133.8780012 118.3054997  39.9219988 134.3520012 118.8964997  39.3369988
 133.1610012 118.8364997  40.2689988 133.8459341 118.4580867  39.8888836
 144.0470012 121.8444997  49.9949988 144.3700012 121.2134997  49.3519988
 143.6070012 121.3094997  50.6549988 144.0316895 121.6858441  49.9962850
 140.8240012 117.7714997  44.7789988 139.9130012 117.8284997  45.0669988
 141.3300012 117.7114997  45.5889988 140.7675413 117.7711985  44.9280622
 135.6530012 119.4004997  43.6049988 134.7630012 119.5004997  43.2649988
 135.9490012 118.5584997  43.2589988 135.5712823 119.3003546  43.5117213
 139.3060012 119.4004997  41.2619988 140.2370012 119.5294997  41.4399988
 139.0910012 120.0704997  40.6119988 139.4044247 119.5086565  41.1985747
 137.9800012 120.5954997  38.8289988 137.4370012 120.2154997  38.1369988
 138.8130012 120.7894997  38.3999988 138.0184399 120.5698124  38.6764526
 136.1150012 125.1524997  53.9279988 136.8470012 125.4064997  54.4889988
 135.3350012 125.3564997  54.4429988 136.1098232 125.2149177  54.0745760
 142.1440012 120.5594997  46.6659988 142.7090012 120.0124997  46.1189988
 141.9970012 120.0374997  47.4539988 142.2012918 120.4142024  46.6978454
 137.1460012 116.6954997  43.0839988 136.8290012 115.7934997  43.0489988
 137.9280012 116.6974997  42.5309988 137.2082284 116.5721628  43.0044783
 140.7710012 118.9474997  49.0799988 139.9350012 119.4014997  49.1899988
 141.2950012 119.2234997  49.8319988 140.7274414 119.0469376  49.1967136
 141.3150012 125.1604997  40.7639988 140.5700012 124.6534997  40.4419988
 141.1810012 125.2094997  41.7109988 141.1948776 125.0976940  40.8478647
 142.8340012 125.3444997  52.0009988 142.4890012 124.9634997  52.8079988
 142.6340012 126.2784997  52.0729988 142.7598061 125.4185228  52.1210961
 136.4400012 124.4554997  46.5339988 137.1850012 124.4534997  45.9329988
 136.5180012 123.6324997  47.0159988 136.5525518 124.3439315  46.5168929
 143.4410012 126.6194997  39.7899988 143.1450012 127.4454997  40.1709988
 142.7380012 125.9994997  39.9859988 143.3054914 126.6488199  39.8686443
 133.4480012 122.9164997  51.8489988 133.6710012 122.4984997  52.6809988
 132.8460012 122.3034997  51.4259988 133.3971759 122.7764668  51.9057022
 140.4640012 122.4334997  54.0619988 140.1680012 122.2674997  53.1669988
 141.3960012 122.2134997  54.0509988 140.5494166 122.3810640  53.9380536
 138.8150012 127.9734997  43.9379988 139.3420012 128.7464997  43.7379988
 137.9350012 128.1984997  43.6369988 138.7681773 128.1098005  43.8699010
 134.5700012 122.8354997  38.5249988 135.1860012 123.4624997  38.9049988
 133.7080012 123.1514997  38.7969988 134.5377698 122.9639430  38.6137183
 140.2420012 125.6364997  43.5149988 140.0010012 126.5614997  43.5559988
 139.5010012 125.1774997  43.9109988 140.1088409 125.7011421  43.5741377
 140.7570012 129.7854997  49.8299988 141.1190012 130.6404997  49.5959988
 141.2880012 129.4934997  50.5699988 140.8784473 129.8631060  49.8980855
 138.9250012 130.6584997  43.0599988 137.9750012 130.7634997  43.1109988
 139.2770012 131.4784997  43.4049988 138.8424203 130.7838314  43.1136650
 144.3010012 125.8844997  49.5299988 143.8750012 125.6574997  50.3569988
 144.8810012 125.1464997  49.3479988 144.3211868 125.7535299  49.6185830
 135.0820012 117.6694997  51.4069988 134.1890012 118.0084997  51.3389988
 134.9830012 116.8144997  51.8249988 134.9464164 117.6002588  51.4542235
 134.7330012 129.4744997  49.8419988 134.9500012 128.5424997  49.8109988
 134.9790012 129.7484997  50.7249988 134.7959549 129.3840636  49.9571763
 140.5950012 127.9254997  37.0509988 140.8340012 127.1774997  36.5039988
 140.3260012 127.5374997  37.8839988 140.5913675 127.7706638  37.0886865
 139.5320012 127.4954997  39.5079988 139.6780012 126.9754997  40.2979988
 139.5290012 128.4024997  39.8139988 139.5515989 127.5468853  39.6576088
 135.9850012 124.7484997  40.0179988 135.2990012 125.1004997  40.5849988
 136.5070012 125.5114997  39.7709988 135.9616852 124.8998578  40.0622118
 143.8160012 117.4104997  50.2969988 144.5150012 117.4844997  50.9469988
 143.4350012 116.5464997  50.4509988 143.8601767 117.3037624  50.4068322
 144.6010012 117.0624997  41.3939988 144.8210012 117.5344997  40.5909988
 145.1590012 117.4574997  42.0639988 144.7064968 117.1804285  41.3747331
 142.2690012 129.1934997  40.2569988 141.4530012 129.6904997  40.3089988
 142.7990012 129.6684997  39.6169988 142.2289161 129.3257722  40.1775956
 141.8010012 118.7904997  42.2289988 142.6130012 119.2954997  42.2749988
 141.5560012 118.6454997  43.1429988 141.8790520 118.8400375  42.3588517
 142.3360012 119.7764997  51.4139988 142.4550012 120.3504997  52.1709988
 142.9920012 119.0884997  51.5279988 142.4409757 119.7621079  51.5330825
 142.6840012 115.8714997  43.1669988 142.3380012 116.4894997  43.8119988
 143.3430012 116.3724997  42.6859988 142.7257826 116.0235802  43.1900971
 139.6080012 130.2374997  40.2389988 139.7680012 131.0364997  39.7379988
 139.4100012 130.5434997  41.1239988 139.6031649 130.3884469  40.2899815
 138.3420012 116.9344997  39.8539988 138.2590012 117.8234997  40.2009988
 139.2320012 116.6694997  40.0859988 138.4509469 117.0201430  39.9327626
 136.6010012 127.3624997  38.9149988 137.1930012 128.0614997  39.1909988
 137.0600012 126.9294997  38.1949988 136.7441142 127.3997049  38.8554830
 134.9170012 120.0264997  38.0309988 134.8720012 120.9654997  38.2089988
 134.0290012 119.7904997  37.7609988 134.7908574 120.1231892  38.0188912
 135.7250012 114.8084997  46.7039988 135.4960012 114.8674997  45.7759988
 135.2820012 114.0164997  47.0099988 135.6338530 114.7095753  46.6184786
 134.6550012 128.7484997  42.8639988 133.8230012 129.2214997  42.8919988
 135.2010012 129.2584997  42.2659988 134.6149739 128.8821871  42.7869716
 133.9430012 131.3614997  54.1939988 134.4840012 131.1444997  54.9539988
 133.4620012 130.5554997  54.0049988 133.9519345 131.2229514  54.2723076
 138.5410012 130.2804997  55.8149988 139.3080012 129.8214997  56.1559988
 138.5190012 130.0544997  54.8849988 138.6431434 130.1870409  55.7360043
 142.6330012 129.7884997  37.1899988 141.9890012 129.1574997  37.5109988
 143.3950012 129.2574997  36.9579988 142.6478077 129.6302920  37.2026011
 133.8500012 125.1714997  55.1489988 133.9940012 124.2694997  54.8619988
 133.0780012 125.4574997  54.6609988 133.7653322 125.0868261  55.0437881
 138.1920012 125.5154997  37.2809988 138.2560012 124.7214997  37.8119988
 138.8450012 125.3964997  36.5909988 138.2890241 125.3907148  37.2604317
 140.5060012 125.1414997  54.5809988 140.1770012 125.4124997  53.7239988
 140.6580012 124.2004997  54.4939988 140.4814809 125.0513862  54.4518244
 143.5440012 126.5624997  37.0169988 143.2750012 126.7424997  37.9179988
 143.3380012 125.6364997  36.8859988 143.4793825 126.4620152  37.1225214
 134.6830012 122.3714997  54.5689988 135.0910012 121.5144997  54.4479988
 134.4230012 122.3864997  55.4899988 134.7037568 122.2560807  54.6769588
 139.3410012 123.4874997  39.5869988 138.8810012 123.0034997  40.2729988
 139.5960012 122.8194997  38.9509988 139.3124902 123.3308731  39.5949334
 138.6300012 121.3804997  51.9429988 138.0120012 122.0554997  52.2229988
 138.9740012 121.7014997  51.1099988 138.5919615 121.5162721  51.8686581
 140.4120012 121.7304997  37.8489988 140.2320012 121.5764997  36.9219988
 141.3620012 121.8384997  37.8939988 140.5157776 121.7240175  37.7281843
 143.6500012 123.8524997  55.2199988 144.6030012 123.9354997  55.1929988
 143.4890012 123.1404997  55.8399988 143.7586426 123.7676746  55.3000579
 138.9690012 118.7354997  53.0249988 139.1190012 118.0064997  52.4229988
 138.9720012 119.5124997  52.4659988 138.9899302 118.7407851  52.8670692
 139.3820012 117.1054997  50.5179988 139.9180012 117.5564997  49.8659988
 138.5300012 116.9974997  50.0949988 139.3402178 117.1526390  50.3715756
 140.9640012 122.5444997  50.7569988 141.7140012 122.3884997  50.1839988
 140.6250012 123.3964997  50.4819988 141.0208921 122.6382968  50.6413561
 137.4480012 119.9334997  54.9369988 136.6810012 119.4014997  54.7269988
 138.1270012 119.6234997  54.3369988 137.4347022 119.8187506  54.8271648
 140.1880012 114.5614997  50.9489988 140.0890012 115.5084997  50.8439988
 139.4450012 114.1894997  50.4739988 140.0740564 114.6405902  50.8704560
 141.4520012 118.8834997  54.5129988 141.2160012 118.6634997  55.4149988
 140.6680012 118.6764997  54.0029988 141.3138628 118.8254760  54.5673932
 144.1670012 118.0104997  53.5889988 143.2200012 118.0424997  53.7209988
 144.4800012 117.3854997  54.2419988 144.0795475 117.9303207  53.6954455
 135.6280012 117.8544997  54.6409988 135.8400012 117.1474997  54.0309988
 135.5170012 117.4164997  55.4849988 135.6419721 117.6987084  54.6716843
 140.4090012 113.8554997  53.6209988 141.1210012 113.2154997  53.6069988
 140.3080012 114.1224997  52.7069988 140.4927939 113.8039938  53.4955650
 140.7630012 115.5384997  55.6739988 140.6310012 115.0624997  54.8539988
 140.1640012 116.2824997  55.6189988 140.6639071 115.5739618  55.5542886
 140.3090012 132.4214997  38.8509988 141.2420012 132.5794997  38.9939988
 140.0450012 133.0964997  38.2259988 140.4009510 132.5343611  38.7860741
 133.8780012 127.0574997  38.3329988 134.7920012 127.1364997  38.6069988
 133.8850012 126.3704997  37.6669988 134.0041131 126.9753961  38.2804393
 132.5270012 132.4504997  43.4109988 131.8800012 131.9884997  42.8779988
 132.8810012 131.7784997  43.9929988 132.4863849 132.2964723  43.4167959
 133.3970012 130.5314997  45.2149988 133.0620012 129.6514997  45.3869988
 133.6190012 130.8764997  46.0799988 133.3811783 130.4577500  45.3554208
 133.4770012 123.6064997  47.6669988 133.6610012 123.5244997  46.7309988
 134.3260012 123.4824997  48.0909988 133.6170139 123.5785003  47.5961455
 133.0740012 118.8774997  53.8079988 133.9940012 118.7554997  54.0439988
 132.6250012 118.1274997  54.1969988 133.1391580 118.7593727  53.8929006
 134.2950012 117.1894997  46.6989988 134.7410012 116.3974997  47.0009988
 134.7620012 117.9054997  47.1299988 134.4190172 117.1780624  46.7984820
 132.5990012 120.1884997  47.7679988 133.0910012 119.9674997  46.9769988
 132.9620012 121.0294997  48.0489988 132.7153126 120.2718357  47.6977531
 132.9130012 116.4464997  41.8219988 131.9880012 116.6554997  41.6929988
 133.3670012 116.9304997  41.1329988 132.8477368 116.5405993  41.7111226
 132.8770012 115.1844997  50.1669988 132.2120012 114.9384997  50.8099988
 132.4340012 115.8064997  49.5889988 132.7260956 115.2348632  50.1769352
 135.0690012 128.3594997  54.3109988 134.2480012 128.5344997  53.8509988
 134.8160012 128.2864997  55.2319988 134.9226164 128.3735622  54.3724923
 138.0230012 129.3344997  50.5699988 137.5980012 130.1434997  50.2869988
 138.9270012 129.4194997  50.2679988 138.0870271 129.4568469  50.4903776
 142.3340012 130.7334997  53.5289988 142.5190012 130.3994997  54.4069988
 143.1800012 131.0424997  53.2069988 142.4737539 130.7296047  53.6055605
 144.6790012 132.0194997  52.7729988 145.3560012 131.3864997  52.5329988
 145.0010012 132.4204997  53.5799988 144.8151637 131.9871154  52.8492793
 135.4250012 132.5904997  50.6169988 134.7040012 133.0304997  50.1659988
 135.0590012 132.3394997  51.4659988 135.2769804 132.6167698  50.6699840
 137.8920012 132.1904997  49.6469988 137.0270012 132.2624997  50.0509988
 137.8370012 132.7374997  48.8629988 137.7662085 132.2742685  49.5963362
 142.6020012 132.0784997  48.8219988 142.1460012 132.6074997  48.1679988
 142.7650012 132.6814997  49.5479988 142.5615585 132.2324468  48.8305062
 134.8390012 131.2134997  47.5269988 134.8210012 130.7884997  48.3849988
 135.6440012 130.8954997  47.1189988 134.9453875 131.1123812  47.5891655
 136.9810012 129.9234997  46.1819988 136.7620012 129.0074997  46.3519988
 137.8050012 130.0634997  46.6479988 137.0624420 129.8170520  46.2682774
 139.5180012 130.3934997  47.0309988 139.7310012 129.5054997  46.7439988
 139.5820012 130.3594997  47.9849988 139.5558231 130.2673102  47.1207397
 143.0260012 116.0574997  46.1749988 142.3520012 115.4284997  46.4309988
 143.5900012 115.5734997  45.5719988 143.0099230 115.9058744  46.1285340
 135.3530012 114.6914997  43.9969988 134.5760012 114.4574997  43.4899988
 135.8830012 113.8944997  44.0059988 135.3182330 114.5516988  43.9287742
 134.1890012 114.4894997  39.8009988 134.6280012 115.1004997  39.2089988
 133.5560012 115.0274997  40.2749988 134.1634514 114.6459257  39.7840930
 139.9320012 114.6184997  43.8109988 140.8070012 115.0064997  43.7809988
 139.7960012 114.4034997  44.7329988 140.0333695 114.6425184  43.9316440
 134.0900012 130.4374997  40.6989988 133.4050012 130.3994997  40.0309988
 134.0940012 131.3504997  40.9869988 133.9968193 130.5557016  40.6465284
 136.0500012 116.4054997  38.2429988 136.5420012 115.7754997  37.7159988
 136.6740012 116.7014997  38.9069988 136.2015446 116.3593199  38.2605980
 141.0760012 116.6984997  40.6999988 141.2540012 116.0524997  41.3829988
 141.0230012 117.5324997  41.1679988 141.0931829 116.7227985  40.8565940
 142.9550012 131.6474997  39.0959988 143.8210012 132.0134997  38.9179988
 142.7080012 131.2074997  38.2819988 143.0402392 131.6381756  38.9616289
 135.3110012 115.2054997  53.5149988 134.9450012 114.4404997  53.9579988
 136.2240012 115.2344997  53.8019988 135.3842790 115.1047224  53.6144070
 137.2840012 114.5564997  55.0509988 138.1820012 114.2824997  54.8659988
 136.8970012 113.8134997  55.5149988 137.3546612 114.4185914  55.0883643
 135.9080012 131.3574997  37.7239988 135.6410012 131.6444997  38.5969988
 136.6800012 130.8114997  37.8759988 135.9757488 131.3230294  37.8641050
  12.4390012 142.7034997  43.9559988  12.5280012 143.6474997  43.8239988
  11.8010012 142.4284997  43.2979988  12.3649081 142.7954830  43.8489614
  11.3720012 141.9584997  47.3749988  11.3340012 141.3124997  48.0799988
  11.0500012 141.4924997  46.6039988  11.3232333 141.8069408  47.3672978
   3.7410012 141.5734997  48.9679988   3.7820012 140.9474997  49.6909988
   4.4440012 142.1974997  49.1499988   3.8416363 141.5721196  49.0916044
  15.0780012 144.8974997  45.6759988  14.6380012 144.1774997  46.1269988
  15.0650012 145.6184997  46.3059988  15.0160226 144.8963731  45.8228494
   1.2740012 139.6834997  42.8959988   0.8270012 140.5294997  42.8769988
   0.7130012 139.1034997  42.3799988   1.1369900 139.7209916  42.8236801
   1.9850012 141.8454997  45.0219988   2.1980012 141.0754997  45.5489988
   2.7230012 141.9344997  44.4179988   2.1138496 141.7521394  45.0125300
   9.7620012 144.3914997  47.7809988  10.0660012 143.7054997  47.1859988
  10.4830012 144.5094997  48.3989988   9.9010671 144.3136305  47.7831816
  18.4250012 135.9924997  48.6419988  18.4740012 136.6024997  49.3779988
  18.8500012 136.4534997  47.9189988  18.4891824 136.1383741  48.6450205
  12.9030012 138.7854997  48.1089988  13.0450012 137.8394997  48.1289988
  12.7960012 138.9924997  47.1799988  12.9079864 138.6839534  47.9862339
   6.0570012 136.8864997  45.3809988   6.1010012 137.7464997  44.9629988
   5.6000012 136.3344997  44.7469988   6.0012185 136.9295799  45.2380299
  13.7800012 137.0174997  43.7819988  14.4260012 136.6884997  44.4069988
  14.2900012 137.5354997  43.1589988  13.9374264 137.0424611  43.7833862
   2.6780012 139.2834997  46.1429988   3.3310012 138.7334997  46.5749988
   2.7020012 139.0094997  45.2259988   2.7706683 139.1711466  46.0782123
   7.8340012 140.8334997  45.3579988   8.4500012 140.3074997  45.8679988
   7.2480012 140.1934997  44.9549988   7.8390810 140.6749208  45.3733173
  18.8160012 137.4704997  50.8779988  18.1280012 138.1284997  50.7819988
  18.8320012 137.2734997  51.8139988  18.7238525 137.5340462  50.9914808
   4.8680012 135.8044997  49.4549988   4.6490012 136.3344997  48.6889988
   4.2000012 136.0314997  50.1019988   4.7477600 135.9076906  49.4376379
   7.4370012 143.4804997  49.7419988   6.6970012 144.0784997  49.8459988
   8.1510012 144.0344997  49.4269988   7.4322237 143.6372831  49.7136465
  15.5440012 136.3084997  45.7619988  15.3280012 135.5424997  46.2949988
  16.1990012 136.7804997  46.2749988  15.6030632 136.2675889  45.9042861
   4.4610012 137.6964997  47.4069988   5.0750012 138.3294997  47.7809988
   4.9730012 137.2244997  46.7509988   4.6142296 137.7192370  47.3694252
  15.8910012 135.0234997  49.4419988  15.1550012 135.6344997  49.4039988
  16.5740012 135.4384997  48.9149988  15.8826541 135.1631374  49.3655832
   8.8940012 133.1104997  46.9079988   8.7770012 132.1614997  46.8529988
   8.0390012 133.4424997  47.1809988   8.7623733 133.0255409  46.9373897
  16.6880012 144.9854997  51.6359988  16.8280012 144.3944997  50.8959988
  16.8550012 145.8584997  51.2789988  16.7296778 145.0226426  51.4866965
  11.1610012 141.9474997  41.4079988  10.4490012 142.4824997  41.0559988
  11.8520012 142.0034997  40.7479988  11.1570132 142.0282543  41.2706289
  11.2140012 140.4054997  38.4469988  11.9150012 140.4274997  39.0979988
  11.5170012 139.7774997  37.7909988  11.3507830 140.3236566  38.4473711
  18.5300012 141.3254997  49.7019988  17.8770012 142.0204997  49.7909988
  18.9950012 141.5354997  48.8919988  18.5035390 141.4489425  49.6046883
  14.5660012 142.1574997  42.3599988  13.8340012 142.3854997  42.9329988
  15.0140012 141.4434997  42.8149988  14.5263095 142.0922571  42.4999119
  14.4640012 140.3314997  51.4269988  14.5440012 141.0944997  51.9989988
  13.8620012 140.6104997  50.7369988  14.3935756 140.4737134  51.4120589
   6.2120012 142.7874997  44.2419988   5.8810012 142.4174997  43.4239988
   6.8000012 142.1174997  44.5889988   6.2461873 142.6461156  44.1768102
   6.5780012 141.5564997  47.8759988   7.1440012 141.6774997  47.1129988
   6.8970012 142.1934997  48.5149988   6.6985786 141.6591884  47.8580040
  13.4370012 141.3194997  40.0449988  14.0170012 141.4694997  40.7919988
  13.8510012 141.7904997  39.3219988  13.5722831 141.4036841  40.0494134
   4.3780012 142.1534997  51.8219988   4.4490012 142.8044997  52.5199988
   3.4880012 142.2564997  51.4869988   4.2673117 142.2565936  51.8722700
  17.1360012 133.0694997  39.8579988  16.2360012 133.2084997  40.1529988
  17.3880012 133.9004997  39.4559988  17.0468702 133.2009074  39.8440205
   5.2020012 141.8574997  41.8319988   4.9100012 142.6254997  41.3409988
   4.5280012 141.1974997  41.6689988   5.0709081 141.8734406  41.7427340
   1.2950012 144.2204997  50.6469988   0.7940012 144.1924997  49.8319988
   1.3000012 143.3144997  50.9559988   1.2271526 144.0942278  50.5772872
  16.3950012 139.1594997  53.6929988  15.9880012 139.6404997  52.9719988
  16.4360012 138.2544997  53.3849988  16.3448437 139.1029374  53.5526683
   6.1630012 134.0134997  47.6849988   5.3010012 133.9264997  47.2779988
   6.1400012 134.8694997  48.1129988   6.0420330 134.1172765  47.6871863
  10.8260012 133.7354997  51.0599988  11.2460012 133.3204997  51.8129988
   9.8930012 133.5574997  51.1769988  10.7573644 133.6545900  51.1789539
  14.1520012 137.4914997  51.9129988  13.6380012 137.3654997  52.7109988
  13.9970012 138.4034997  51.6689988  14.0606852 137.5976132  51.9892158
  14.9150012 142.3524997  37.6749988  14.9570012 142.1294997  36.7449988
  15.7640012 142.7514997  37.8649988  15.0355396 142.3759155  37.5733627
  10.4870012 136.2284997  38.3449988  10.2340012 136.2474997  39.2679988
  10.2310012 135.3564997  38.0439988  10.4177790 136.1132437  38.4306263
   6.2540012 138.9794997  48.7799988   5.6120012 138.9384997  49.4889988
   6.2910012 139.9054997  48.5429988   6.1711324 139.0991559  48.8449824
   6.2510012 139.2004997  43.6919988   5.3580012 138.8594997  43.6339988
   6.7010012 138.8234997  42.9369988   6.1897305 139.1028484  43.5819177
  11.7860012 139.6164997  42.5089988  11.3770012 140.4314997  42.2179988
  12.5070012 139.4764997  41.8949988  11.8274537 139.7092018  42.3861342
  10.8880012 139.7914997  53.9969988  10.3260012 139.0874997  54.3179988
  11.7150012 139.6714997  54.4649988  10.9227095 139.6787883  54.1042330
  12.7910012 139.0624997  45.3229988  12.5960012 139.6674997  44.6079988
  12.9720012 138.2284997  44.8889988  12.7887614 139.0326300  45.1664405
   4.0040012 139.2994997  50.6469988   3.9660012 139.6994997  51.5159988
   3.5130012 138.4824997  50.7379988   3.9324684 139.2438069  50.7781059
   7.3700012 136.6734997  37.4459988   6.9390012 136.2284997  38.1759988
   6.6520012 137.0454997  36.9339988   7.2139438 136.6628940  37.4766799
   0.6120012 136.4154997  44.4979988   1.2430012 136.3864997  45.2169988
   1.0610012 135.9904997  43.7679988   0.7590774 136.3540492  44.4976553
   1.8860012 137.1614997  39.9219988   2.3600012 137.7524997  39.3369988
   1.1690012 137.6924997  40.2689988   1.8539341 137.3140867  39.8888836
  12.0550012 140.7004997  49.9949988  12.3780012 140.0694997  49.3519988
  11.6150012 140.1654997  50.6549988  12.0396895 140.5418441  49.9962850
   8.8320012 136.6274997  44.7789988   7.9210012 136.6844997  45.0669988
   9.3380012 136.5674997  45.5889988   8.7755413 136.6271985  44.9280622
   3.6610012 138.2564997  43.6049988   2.7710012 138.3564997  43.2649988
   3.9570012 137.4144997  43.2589988   3.5792823 138.1563545  43.5117213
   7.3140012 138.2564997  41.2619988   8.2450012 138.3854997  41.4399988
   7.0990012 138.9264997  40.6119988   7.4124247 138.3646565  41.1985747
  13.2370012 135.8624997  48.0429988  12.5610012 135.9934997  48.7069988
  12.7520012 135.7074997  47.2329988  13.0787145 135.8594905  48.0244517
   5.9880012 139.4514997  38.8289988   5.4450012 139.0714997  38.1369988
   6.8210012 139.6454997  38.3999988   6.0264399 139.4258124  38.6764526
   4.1230012 144.0084997  53.9279988   4.8550012 144.2624997  54.4889988
   3.3430012 144.2124997  54.4429988   4.1178232 144.0709177  54.0745760
  10.1520012 139.4154997  46.6659988  10.7170012 138.8684997  46.1189988
  10.0050012 138.8934997  47.4539988  10.2092918 139.2702024  46.6978454
   5.1540012 135.5514997  43.0839988   4.8370012 134.6494997  43.0489988
   5.9360012 135.5534997  42.5309988   5.2162284 135.4281628  43.0044783
   8.7790012 137.8034997  49.0799988   7.9430012 138.2574997  49.1899988
   9.3030012 138.0794997  49.8319988   8.7354414 137.9029376  49.1967136
   9.3230012 144.0164997  40.7639988   8.5780012 143.5094997  40.4419988
   9.1890012 144.0654997  41.7109988   9.2028776 143.9536940  40.8478647
  16.4730012 143.1494997  49.5509988  17.1150012 143.6064997  49.0069988
  15.6430012 143.2624997  49.0879988  16.4485963 143.2272704  49.4140177
  13.2210012 136.8304997  38.9639988  12.2820012 136.9424997  38.8119988
  13.5180012 137.6874997  39.2699988  13.1327666 136.9616443  38.9845768
  10.8420012 144.2004997  52.0009988  10.4970012 143.8194997  52.8079988
  10.6420012 145.1344997  52.0729988  10.7678061 144.2745228  52.1210961
  13.9390012 138.6974997  40.6239988  14.8310012 138.5604997  40.9429988
  13.9960012 139.4884997  40.0879988  14.0686285 138.7856660  40.5951691
   4.4480012 143.3114997  46.5339988   5.1930012 143.3094997  45.9329988
   4.5260012 142.4884997  47.0159988   4.5605518 143.1999315  46.5168929
   1.4560012 141.7724997  51.8489988   1.6790012 141.3544997  52.6809988
   0.8540012 141.1594997  51.4259988   1.4051759 141.6324668  51.9057022
   8.4720012 141.2894997  54.0619988   8.1760012 141.1234997  53.1669988
   9.4040012 141.0694997  54.0509988   8.5574166 141.2370640  53.9380536
  18.8240012 138.9074997  40.3189988  18.2700012 138.5114997  39.6469988
  18.9240012 139.8174997  40.0409988  18.7617059 138.9763586  40.1894401
  18.7870012 144.7074997  53.1559988  17.9360012 144.9454997  52.7889988
  19.3780012 144.6904997  52.4029988  18.7502487 144.7378258  53.0038893
  14.2800012 142.5014997  47.8049988  13.3510012 142.2694997  47.7779988
  14.7310012 141.7244997  47.4749988  14.2139216 142.3647238  47.7566917
   2.5780012 141.6914997  38.5249988   3.1940012 142.3184997  38.9049988
   1.7160012 142.0074997  38.7969988   2.5457698 141.8199430  38.6137183
   8.2500012 144.4924997  43.5149988   8.0090012 145.4174997  43.5559988
   7.5090012 144.0334997  43.9109988   8.1168409 144.5571421  43.5741377
  12.3090012 144.7404997  49.5299988  11.8830012 144.5134997  50.3569988
  12.8890012 144.0024997  49.3479988  12.3291868 144.6095299  49.6185830
   3.0900012 136.5254997  51.4069988   2.1970012 136.8644997  51.3389988
   2.9910012 135.6704997  51.8249988   2.9544164 136.4562588  51.4542235
  15.3780012 144.3424997  40.8309988  15.1000012 143.6144997  41.3869988
  16.3050012 144.4614997  41.0359988  15.4653124 144.2588802  40.9348845
   3.9930012 143.6044997  40.0179988   3.3070012 143.9564997  40.5849988
   4.5150012 144.3674997  39.7709988   3.9696852 143.7558578  40.0622118
  11.8240012 136.2664997  50.2969988  12.5230012 136.3404997  50.9469988
  11.4430012 135.4024997  50.4509988  11.8681767 136.1597624  50.4068322
  12.6090012 135.9184997  41.3939988  12.8290012 136.3904997  40.5909988
  13.1670012 136.3134997  42.0639988  12.7144968 136.0364285  41.3747331
   9.8090012 137.6464997  42.2289988  10.6210012 138.1514997  42.2749988
   9.5640012 137.5014997  43.1429988   9.8870520 137.6960375  42.3588517
  10.3440012 138.6324997  51.4139988  10.4630012 139.2064997  52.1709988
  11.0000012 137.9444997  51.5279988  10.4489757 138.6181079  51.5330825
  10.6920012 134.7274997  43.1669988  10.3460012 135.3454997  43.8119988
  11.3510012 135.2284997  42.6859988  10.7337826 134.8795802  43.1900971
   6.3500012 135.7904997  39.8539988   6.2670012 136.6794997  40.2009988
   7.2400012 135.5254997  40.0859988   6.4589469 135.8761430  39.9327626
  16.5490012 136.5394997  52.2489988  15.6320012 136.8024997  52.1609988
  16.8840012 136.5364997  51.3519988  16.4689900 136.5750224  52.1157919
  15.1510012 140.2904997  46.3439988  14.3530012 139.8754997  46.0159988
  15.5960012 139.5994997  46.8349988  15.1019885 140.1403543  46.3654889
   2.9250012 138.8824997  38.0309988   2.8800012 139.8214997  38.2089988
   2.0370012 138.6464997  37.7609988   2.7988574 138.9791892  38.0188912
   3.7330012 133.6644997  46.7039988   3.5040012 133.7234997  45.7759988
   3.2900012 132.8724997  47.0099988   3.6418530 133.5655753  46.6184786
   1.8580012 144.0274997  55.1489988   2.0020012 143.1254997  54.8619988
   1.0860012 144.3134997  54.6609988   1.7733322 143.9428261  55.0437881
   6.2000012 144.3714997  37.2809988   6.2640012 143.5774997  37.8119988
   6.8530012 144.2524997  36.5909988   6.2970241 144.2467148  37.2604317
   8.5140012 143.9974997  54.5809988   8.1850012 144.2684997  53.7239988
   8.6660012 143.0564997  54.4939988   8.4894809 143.9073862  54.4518244
  14.2480012 143.9134997  51.9649988  14.9940012 144.5014997  51.8449988
  13.4910012 144.4954997  52.0279988  14.2477554 144.0727011  51.9570907
   2.6910012 141.2274997  54.5689988   3.0990012 140.3704997  54.4479988
   2.4310012 141.2424997  55.4899988   2.7117568 141.1120807  54.6769588
   7.3490012 142.3434997  39.5869988   6.8890012 141.8594997  40.2729988
   7.6040012 141.6754997  38.9509988   7.3204902 142.1868731  39.5949334
   6.6380012 140.2364997  51.9429988   6.0200012 140.9114997  52.2229988
   6.9820012 140.5574997  51.1099988   6.5999615 140.3722721  51.8686581
   8.4200012 140.5864997  37.8489988   8.2400012 140.4324997  36.9219988
   9.3700012 140.6944997  37.8939988   8.5237776 140.5800175  37.7281843
  11.6580012 142.7084997  55.2199988  12.6110012 142.7914997  55.1929988
  11.4970012 141.9964997  55.8399988  11.7666426 142.6236746  55.3000579
  17.8100012 142.9414997  37.2949988  17.5360012 142.5164997  36.4819988
  17.8490012 143.8724997  37.0779988  17.7777699 143.0092484  37.1543610
   6.9770012 137.5914997  53.0249988   7.1270012 136.8624997  52.4229988
   6.9800012 138.3684997  52.4659988   6.9979302 137.5967851  52.8670692
   7.3900012 135.9614997  50.5179988   7.9260012 136.4124997  49.8659988
   6.5380012 135.8534997  50.0949988   7.3482178 136.0086390  50.3715756
   8.9720012 141.4004997  50.7569988   9.7220012 141.2444997  50.1839988
   8.6330012 142.2524997  50.4819988   9.0288921 141.4942968  50.6413561
  13.3870012 139.2154997  55.7859988  13.5800012 138.2844997  55.6739988
  14.2450012 139.6404997  55.7759988  13.5293020 139.1456389  55.7693361
  14.7040012 142.0044997  53.8629988  14.4230012 142.7134997  53.2859988
  15.6470012 141.9314997  53.7119988  14.7929027 142.0917646  53.7635551
   5.4560012 138.7894997  54.9369988   4.6890012 138.2574997  54.7269988
   6.1350012 138.4794997  54.3369988   5.4427022 138.6747506  54.8271648
   8.1960012 133.4174997  50.9489988   8.0970012 134.3644997  50.8439988
   7.4530012 133.0454997  50.4739988   8.0820564 133.4965902  50.8704560
   9.4600012 137.7394997  54.5129988   9.2240012 137.5194997  55.4149988
   8.6760012 137.5324997  54.0029988   9.3218628 137.6814760  54.5673932
  12.1750012 136.8664997  53.5889988  11.2280012 136.8984997  53.7209988
  12.4880012 136.2414997  54.2419988  12.0875475 136.7863207  53.6954455
  13.8090012 135.5004997  55.5939988  13.7130012 134.5484997  55.5879988
  13.4880012 135.7694997  56.4539988  13.7524070 135.4064035  55.7095441
   3.6360012 136.7104997  54.6409988   3.8480012 136.0034997  54.0309988
   3.5250012 136.2724997  55.4849988   3.6499721 136.5547084  54.6716843
   8.4170012 132.7114997  53.6209988   9.1290012 132.0714997  53.6069988
   8.3160012 132.9784997  52.7069988   8.5007939 132.6599938  53.4955650
   8.7710012 134.3944997  55.6739988   8.6390012 133.9184997  54.8539988
   8.1720012 135.1384997  55.6189988   8.6719071 134.4299618  55.5542886
  18.2680012 143.8104997  41.2699988  19.1180012 144.2314997  41.3969988
  18.2740012 143.0704997  41.8769988  18.3851372 143.7680803  41.3694344
  18.6630012 141.8634997  43.0939988  17.9360012 141.3844997  43.4909988
  19.2440012 142.0694997  43.8259988  18.6419375 141.8257090  43.2474129
  18.4220012 144.6484997  48.0409988  19.2550012 144.2704997  47.7609988
  18.5340012 145.5914997  47.9219988  18.5512647 144.7242218  47.9865487
  18.9310012 141.7644997  39.4849988  18.4090012 142.1214997  38.7659988
  18.8980012 142.4394997  40.1629988  18.8551634 141.9045413  39.4783145
  17.2800012 139.0044997  38.0359988  17.3760012 139.6714997  37.3549988
  17.1400012 138.1884997  37.5539988  17.2742135 138.9854500  37.8778491
  16.4490012 140.3844997  43.6569988  16.2990012 139.4394997  43.6359988
  16.0960012 140.6654997  44.4999988  16.3806625 140.2930441  43.7682346
   1.4850012 142.4624997  47.6669988   1.6690012 142.3804997  46.7309988
   2.3340012 142.3384997  48.0909988   1.6250139 142.4345003  47.5961455
  17.3060012 142.3544997  53.2949988  17.8890012 141.6204997  53.4869988
  17.8700012 143.1264997  53.3419988  17.4619769 142.3584227  53.3276159
  18.8020012 140.2574997  53.9799988  17.9390012 139.8784997  53.8139988
  19.4070012 139.5184997  53.9059988  18.7655979 140.1058023  53.9472817
  16.5270012 136.4124997  37.1529988  17.1380012 136.0414997  37.7899988
  15.6910012 135.9914997  37.3489988  16.4975032 136.3047554  37.2667035
  16.1600012 137.9674997  42.1189988  16.4400012 137.0604997  42.2429988
  16.9190012 138.4014997  41.7299988  16.3009277 137.9020942  42.0833682
  16.7720012 138.5484997  47.5549988  17.7050012 138.7604997  47.5209988
  16.5370012 138.6504997  48.4769988  16.8678036 138.5912769  47.6749976
  16.8010012 139.2854997  50.3309988  15.9580012 139.5534997  50.6969988
  17.2430012 140.1074997  50.1199988  16.7454158 139.4333291  50.3525491
   1.0820012 137.7334997  53.8079988   2.0020012 137.6114997  54.0439988
   0.6330012 136.9834997  54.1969988   1.1471580 137.6153727  53.8929006
  19.0840012 133.2654997  55.6839988  19.4340012 132.6114997  55.0789988
  19.2310012 134.1024997  55.2449988  19.1518419 133.2891591  55.5417118
  16.7730012 135.2304997  42.1669988  16.9560012 134.7814997  42.9929988
  16.1740012 134.6454997  41.7039988  16.7170202 135.0899975  42.2173275
   2.3030012 136.0454997  46.6989988   2.7490012 135.2534997  47.0009988
   2.7700012 136.7614997  47.1299988   2.4270172 136.0340624  46.7984820
   0.6070012 139.0444997  47.7679988   1.0990012 138.8234997  46.9769988
   0.9700012 139.8854997  48.0489988   0.7233126 139.1278357  47.6977531
  18.6040012 135.3744997  54.0339988  17.6860012 135.6454997  53.9979988
  18.7270012 134.8394997  53.2489988  18.4951066 135.3392892  53.9230487
  18.6400012 135.2974997  38.6949988  19.0520012 134.5764997  38.2199988
  19.3220012 135.9674997  38.7539988  18.7885885 135.2892368  38.6378915
   0.9210012 135.3024997  41.8219988  -0.0039988 135.5114997  41.6929988
   1.3750012 135.7864997  41.1329988   0.8557368 135.3965993  41.7111226
   0.8850012 134.0404997  50.1669988   0.2200012 133.7944997  50.8099988
   0.4420012 134.6624997  49.5889988   0.7340956 134.0908632  50.1769352
  17.6040012 133.4644997  51.8529988  16.7920012 133.7894997  51.4649988
  17.8370012 132.7044997  51.3199988  17.5243423 133.4062436  51.7278253
  11.0340012 134.9134997  46.1749988  10.3600012 134.2844997  46.4309988
  11.5980012 134.4294997  45.5719988  11.0179230 134.7618744  46.1285340
  16.1770012 133.0214997  46.2879988  16.7810012 133.5684997  45.7859988
  15.3070012 133.3404997  46.0479988  16.1421241 133.1395806  46.1867654
  17.9040012 134.1594997  44.6209988  18.5160012 133.6454997  44.0949988
  18.2860012 135.0374997  44.6449988  18.0394540 134.2077140  44.5521830
   3.3610012 133.5474997  43.9969988   2.5840012 133.3134997  43.4899988
   3.8910012 132.7504997  44.0059988   3.3262330 133.4076988  43.9287742
   2.1970012 133.3454997  39.8009988   2.6360012 133.9564997  39.2089988
   1.5640012 133.8834997  40.2749988   2.1714514 133.5019257  39.7840930
   7.9400012 133.4744997  43.8109988   8.8150012 133.8624997  43.7809988
   7.8040012 133.2594997  44.7329988   8.0413695 133.4985184  43.9316440
  13.4970012 133.5044997  45.4599988  13.5730012 133.5994997  44.5099988
  13.2220012 132.5964997  45.5889988  13.4702321 133.3947867  45.3475079
  14.8500012 133.5304997  41.1519988  14.1480012 134.1454997  40.9429988
  14.4060012 132.6924997  41.2829988  14.6936330 133.5015783  41.1410328
   4.0580012 135.2614997  38.2429988   4.5500012 134.6314997  37.7159988
   4.6820012 135.5574997  38.9069988   4.2095446 135.2153199  38.2605980
   9.0840012 135.5544997  40.6999988   9.2620012 134.9084997  41.3829988
   9.0310012 136.3884997  41.1679988   9.1011829 135.5787985  40.8565940
   3.3190012 134.0614997  53.5149988   2.9530012 133.2964997  53.9579988
   4.2320012 134.0904997  53.8019988   3.3922790 133.9607224  53.6144070
   5.2920012 133.4124997  55.0509988   6.1900012 133.1384997  54.8659988
   4.9050012 132.6694997  55.5149988   5.3626612 133.2745914  55.0883643
  13.7130012 132.7444997  55.2329988  13.7900012 132.3184997  56.0869988
  14.6070012 132.7584997  54.8899988  13.8443428 132.6880879  55.3035310
  31.2950012 142.7034997  43.9559988  31.3840012 143.6474997  43.8239988
  30.6570012 142.4284997  43.2979988  31.2209081 142.7954830  43.8489614
  30.2280012 141.9584997  47.3749988  30.1900012 141.3124997  48.0799988
  29.9060012 141.4924997  46.6039988  30.1792333 141.8069408  47.3672978
  22.5970012 141.5734997  48.9679988  22.6380012 140.9474997  49.6909988
  23.3000012 142.1974997  49.1499988  22.6976363 141.5721196  49.0916044
  33.9340012 144.8974997  45.6759988  33.4940012 144.1774997  46.1269988
  33.9210012 145.6184997  46.3059988  33.8720226 144.8963731  45.8228494
  20.1300012 139.6834997  42.8959988  19.6830012 140.5294997  42.8769988
  19.5690012 139.1034997  42.3799988  19.9929900 139.7209916  42.8236801
  20.8410012 141.8454997  45.0219988  21.0540012 141.0754997  45.5489988
  21.5790012 141.9344997  44.4179988  20.9698496 141.7521394  45.0125300
  28.6180012 144.3914997  47.7809988  28.9220012 143.7054997  47.1859988
  29.3390012 144.5094997  48.3989988  28.7570671 144.3136305  47.7831816
  37.2810012 135.9924997  48.6419988  37.3300012 136.6024997  49.3779988
  37.7060012 136.4534997  47.9189988  37.3451824 136.1383741  48.6450205
  31.7590012 138.7854997  48.1089988  31.9010012 137.8394997  48.1289988
  31.6520012 138.9924997  47.1799988  31.7639864 138.6839534  47.9862339
  24.9130012 136.8864997  45.3809988  24.9570012 137.7464997  44.9629988
  24.4560012 136.3344997  44.7469988  24.8572185 136.9295799  45.2380299
  32.6360012 137.0174997  43.7819988  33.2820012 136.6884997  44.4069988
  33.1460012 137.5354997  43.1589988  32.7934264 137.0424611  43.7833862
  21.5340012 139.2834997  46.1429988  22.1870012 138.7334997  46.5749988
  21.5580012 139.0094997  45.2259988  21.6266683 139.1711466  46.0782123
  26.6900012 140.8334997  45.3579988  27.3060012 140.3074997  45.8679988
  26.1040012 140.1934997  44.9549988  26.6950810 140.6749208  45.3733173
  37.6720012 137.4704997  50.8779988  36.9840012 138.1284997  50.7819988
  37.6880012 137.2734997  51.8139988  37.5798525 137.5340462  50.9914808
  23.7240012 135.8044997  49.4549988  23.5050012 136.3344997  48.6889988
  23.0560012 136.0314997  50.1019988  23.6037600 135.9076906  49.4376379
  26.2930012 143.4804997  49.7419988  25.5530012 144.0784997  49.8459988
  27.0070012 144.0344997  49.4269988  26.2882237 143.6372831  49.7136465
  34.4000012 136.3084997  45.7619988  34.1840012 135.5424997  46.2949988
  35.0550012 136.7804997  46.2749988  34.4590632 136.2675889  45.9042861
  23.3170012 137.6964997  47.4069988  23.9310012 138.3294997  47.7809988
  23.8290012 137.2244997  46.7509988  23.4702296 137.7192370  47.3694252
  34.7470012 135.0234997  49.4419988  34.0110012 135.6344997  49.4039988
  35.4300012 135.4384997  48.9149988  34.7386541 135.1631374  49.3655832
  27.7500012 133.1104997  46.9079988  27.6330012 132.1614997  46.8529988
  26.8950012 133.4424997  47.1809988  27.6183733 133.0255409  46.9373897
  35.5440012 144.9854997  51.6359988  35.6840012 144.3944997  50.8959988
  35.7110012 145.8584997  51.2789988  35.5856778 145.0226426  51.4866965
  30.0170012 141.9474997  41.4079988  29.3050012 142.4824997  41.0559988
  30.7080012 142.0034997  40.7479988  30.0130132 142.0282543  41.2706289
  30.0700012 140.4054997  38.4469988  30.7710012 140.4274997  39.0979988
  30.3730012 139.7774997  37.7909988  30.2067830 140.3236566  38.4473711
  37.3860012 141.3254997  49.7019988  36.7330012 142.0204997  49.7909988
  37.8510012 141.5354997  48.8919988  37.3595390 141.4489425  49.6046883
  33.4220012 142.1574997  42.3599988  32.6900012 142.3854997  42.9329988
  33.8700012 141.4434997  42.8149988  33.3823095 142.0922571  42.4999119
  33.3200012 140.3314997  51.4269988  33.4000012 141.0944997  51.9989988
  32.7180012 140.6104997  50.7369988  33.2495756 140.4737134  51.4120589
  25.0680012 142.7874997  44.2419988  24.7370012 142.4174997  43.4239988
  25.6560012 142.1174997  44.5889988  25.1021873 142.6461156  44.1768102
  25.4340012 141.5564997  47.8759988  26.0000012 141.6774997  47.1129988
  25.7530012 142.1934997  48.5149988  25.5545786 141.6591884  47.8580040
  32.2930012 141.3194997  40.0449988  32.8730012 141.4694997  40.7919988
  32.7070012 141.7904997  39.3219988  32.4282830 141.4036841  40.0494134
  23.2340012 142.1534997  51.8219988  23.3050012 142.8044997  52.5199988
  22.3440012 142.2564997  51.4869988  23.1233117 142.2565936  51.8722700
  35.9920012 133.0694997  39.8579988  35.0920012 133.2084997  40.1529988
  36.2440012 133.9004997  39.4559988  35.9028702 133.2009074  39.8440205
  24.0580012 141.8574997  41.8319988  23.7660012 142.6254997  41.3409988
  23.3840012 141.1974997  41.6689988  23.9269081 141.8734406  41.7427340
  20.1510012 144.2204997  50.6469988  19.6500012 144.1924997  49.8319988
  20.1560012 143.3144997  50.9559988  20.0831526 144.0942278  50.5772872
  35.2510012 139.1594997  53.6929988  34.8440012 139.6404997  52.9719988
  35.2920012 138.2544997  53.3849988  35.2008437 139.1029374  53.5526683
  25.0190012 134.0134997  47.6849988  24.1570012 133.9264997  47.2779988
  24.9960012 134.8694997  48.1129988  24.8980330 134.1172765  47.6871863
  29.6820012 133.7354997  51.0599988  30.1020012 133.3204997  51.8129988
  28.7490012 133.5574997  51.1769988  29.6133644 133.6545900  51.1789539
  33.0080012 137.4914997  51.9129988  32.4940012 137.3654997  52.7109988
  32.8530012 138.4034997  51.6689988  32.9166852 137.5976132  51.9892158
  33.7710012 142.3524997  37.6749988  33.8130012 142.1294997  36.7449988
  34.6200012 142.7514997  37.8649988  33.8915396 142.3759155  37.5733627
  29.3430012 136.2284997  38.3449988  29.0900012 136.2474997  39.2679988
  29.0870012 135.3564997  38.0439988  29.2737790 136.1132437  38.4306263
  25.1100012 138.9794997  48.7799988  24.4680012 138.9384997  49.4889988
  25.1470012 139.9054997  48.5429988  25.0271324 139.0991559  48.8449824
  25.1070012 139.2004997  43.6919988  24.2140012 138.8594997  43.6339988
  25.5570012 138.8234997  42.9369988  25.0457305 139.1028484  43.5819177
  30.6420012 139.6164997  42.5089988  30.2330012 140.4314997  42.2179988
  31.3630012 139.4764997  41.8949988  30.6834537 139.7092018  42.3861342
  29.7440012 139.7914997  53.9969988  29.1820012 139.0874997  54.3179988
  30.5710012 139.6714997  54.4649988  29.7787095 139.6787883  54.1042330
  31.6470012 139.0624997  45.3229988  31.4520012 139.6674997  44.6079988
  31.8280012 138.2284997  44.8889988  31.6447614 139.0326300  45.1664405
  22.8600012 139.2994997  50.6469988  22.8220012 139.6994997  51.5159988
  22.3690012 138.4824997  50.7379988  22.7884684 139.2438069  50.7781059
  26.2260012 136.6734997  37.4459988  25.7950012 136.2284997  38.1759988
  25.5080012 137.0454997  36.9339988  26.0699438 136.6628940  37.4766799
  19.4680012 136.4154997  44.4979988  20.0990012 136.3864997  45.2169988
  19.9170012 135.9904997  43.7679988  19.6150774 136.3540492  44.4976553
  20.7420012 137.1614997  39.9219988  21.2160012 137.7524997  39.3369988
  20.0250012 137.6924997  40.2689988  20.7099341 137.3140867  39.8888836
  30.9110012 140.7004997  49.9949988  31.2340012 140.0694997  49.3519988
  30.4710012 140.1654997  50.6549988  30.8956895 140.5418441  49.9962850
  27.6880012 136.6274997  44.7789988  26.7770012 136.6844997  45.0669988
  28.1940012 136.5674997  45.5889988  27.6315413 136.6271985  44.9280622
  22.5170012 138.2564997  43.6049988  21.6270012 138.3564997  43.2649988
  22.8130012 137.4144997  43.2589988  22.4352823 138.1563545  43.5117213
  26.1700012 138.2564997  41.2619988  27.1010012 138.3854997  41.4399988
  25.9550012 138.9264997  40.6119988  26.2684247 138.3646565  41.1985747
  32.0930012 135.8624997  48.0429988  31.4170012 135.9934997  48.7069988
  31.6080012 135.7074997  47.2329988  31.9347145 135.8594905  48.0244517
  24.8440012 139.4514997  38.8289988  24.3010012 139.0714997  38.1369988
  25.6770012 139.6454997  38.3999988  24.8824399 139.4258124  38.6764526
  22.9790012 144.0084997  53.9279988  23.7110012 144.2624997  54.4889988
  22.1990012 144.2124997  54.4429988  22.9738232 144.0709177  54.0745760
  29.0080012 139.4154997  46.6659988  29.5730012 138.8684997  46.1189988
  28.8610012 138.8934997  47.4539988  29.0652918 139.2702024  46.6978454
  24.0100012 135.5514997  43.0839988  23.6930012 134.6494997  43.0489988
  24.7920012 135.5534997  42.5309988  24.0722284 135.4281628  43.0044783
  27.6350012 137.8034997  49.0799988  26.7990012 138.2574997  49.1899988
  28.1590012 138.0794997  49.8319988  27.5914414 137.9029376  49.1967136
  28.1790012 144.0164997  40.7639988  27.4340012 143.5094997  40.4419988
  28.0450012 144.0654997  41.7109988  28.0588776 143.9536940  40.8478647
  35.3290012 143.1494997  49.5509988  35.9710012 143.6064997  49.0069988
  34.4990012 143.2624997  49.0879988  35.3045963 143.2272704  49.4140177
  32.0770012 136.8304997  38.9639988  31.1380012 136.9424997  38.8119988
  32.3740012 137.6874997  39.2699988  31.9887666 136.9616443  38.9845768
  29.6980012 144.2004997  52.0009988  29.3530012 143.8194997  52.8079988
  29.4980012 145.1344997  52.0729988  29.6238061 144.2745228  52.1210961
  32.7950012 138.6974997  40.6239988  33.6870012 138.5604997  40.9429988
  32.8520012 139.4884997  40.0879988  32.9246285 138.7856660  40.5951691
  23.3040012 143.3114997  46.5339988  24.0490012 143.3094997  45.9329988
  23.3820012 142.4884997  47.0159988  23.4165518 143.1999315  46.5168929
  20.3120012 141.7724997  51.8489988  20.5350012 141.3544997  52.6809988
  19.7100012 141.1594997  51.4259988  20.2611759 141.6324668  51.9057022
  27.3280012 141.2894997  54.0619988  27.0320012 141.1234997  53.1669988
  28.2600012 141.0694997  54.0509988  27.4134166 141.2370640  53.9380536
  37.6800012 138.9074997  40.3189988  37.1260012 138.5114997  39.6469988
  37.7800012 139.8174997  40.0409988  37.6177059 138.9763586  40.1894401
  37.6430012 144.7074997  53.1559988  36.7920012 144.9454997  52.7889988
  38.2340012 144.6904997  52.4029988  37.6062487 144.7378258  53.0038893
  33.1360012 142.5014997  47.8049988  32.2070012 142.2694997  47.7779988
  33.5870012 141.7244997  47.4749988  33.0699216 142.3647238  47.7566917
  21.4340012 141.6914997  38.5249988  22.0500012 142.3184997  38.9049988
  20.5720012 142.0074997  38.7969988  21.4017698 141.8199430  38.6137183
  27.1060012 144.4924997  43.5149988  26.8650012 145.4174997  43.5559988
  26.3650012 144.0334997  43.9109988  26.9728409 144.5571421  43.5741377
  31.1650012 144.7404997  49.5299988  30.7390012 144.5134997  50.3569988
  31.7450012 144.0024997  49.3479988  31.1851868 144.6095299  49.6185830
  21.9460012 136.5254997  51.4069988  21.0530012 136.8644997  51.3389988
  21.8470012 135.6704997  51.8249988  21.8104164 136.4562588  51.4542235
  34.2340012 144.3424997  40.8309988  33.9560012 143.6144997  41.3869988
  35.1610012 144.4614997  41.0359988  34.3213124 144.2588802  40.9348845
  22.8490012 143.6044997  40.0179988  22.1630012 143.9564997  40.5849988
  23.3710012 144.3674997  39.7709988  22.8256852 143.7558578  40.0622118
  30.6800012 136.2664997  50.2969988  31.3790012 136.3404997  50.9469988
  30.2990012 135.4024997  50.4509988  30.7241767 136.1597624  50.4068322
  31.4650012 135.9184997  41.3939988  31.6850012 136.3904997  40.5909988
  32.0230012 136.3134997  42.0639988  31.5704968 136.0364285  41.3747331
  28.6650012 137.6464997  42.2289988  29.4770012 138.1514997  42.2749988
  28.4200012 137.5014997  43.1429988  28.7430520 137.6960375  42.3588517
  29.2000012 138.6324997  51.4139988  29.3190012 139.2064997  52.1709988
  29.8560012 137.9444997  51.5279988  29.3049757 138.6181079  51.5330825
  29.5480012 134.7274997  43.1669988  29.2020012 135.3454997  43.8119988
  30.2070012 135.2284997  42.6859988  29.5897826 134.8795802  43.1900971
  25.2060012 135.7904997  39.8539988  25.1230012 136.6794997  40.2009988
  26.0960012 135.5254997  40.0859988  25.3149469 135.8761430  39.9327626
  35.4050012 136.5394997  52.2489988  34.4880012 136.8024997  52.1609988
  35.7400012 136.5364997  51.3519988  35.3249900 136.5750224  52.1157919
  34.0070012 140.2904997  46.3439988  33.2090012 139.8754997  46.0159988
  34.4520012 139.5994997  46.8349988  33.9579885 140.1403543  46.3654889
  21.7810012 138.8824997  38.0309988  21.7360012 139.8214997  38.2089988
  20.8930012 138.6464997  37.7609988  21.6548574 138.9791892  38.0188912
  22.5890012 133.6644997  46.7039988  22.3600012 133.7234997  45.7759988
  22.1460012 132.8724997  47.0099988  22.4978530 133.5655753  46.6184786
  20.7140012 144.0274997  55.1489988  20.8580012 143.1254997  54.8619988
  19.9420012 144.3134997  54.6609988  20.6293323 143.9428261  55.0437881
  25.0560012 144.3714997  37.2809988  25.1200012 143.5774997  37.8119988
  25.7090012 144.2524997  36.5909988  25.1530241 144.2467148  37.2604317
  27.3700012 143.9974997  54.5809988  27.0410012 144.2684997  53.7239988
  27.5220012 143.0564997  54.4939988  27.3454809 143.9073862  54.4518244
  33.1040012 143.9134997  51.9649988  33.8500012 144.5014997  51.8449988
  32.3470012 144.4954997  52.0279988  33.1037554 144.0727011  51.9570907
  21.5470012 141.2274997  54.5689988  21.9550012 140.3704997  54.4479988
  21.2870012 141.2424997  55.4899988  21.5677568 141.1120807  54.6769588
  26.2050012 142.3434997  39.5869988  25.7450012 141.8594997  40.2729988
  26.4600012 141.6754997  38.9509988  26.1764902 142.1868731  39.5949334
  25.4940012 140.2364997  51.9429988  24.8760012 140.9114997  52.2229988
  25.8380012 140.5574997  51.1099988  25.4559615 140.3722721  51.8686581
  27.2760012 140.5864997  37.8489988  27.0960012 140.4324997  36.9219988
  28.2260012 140.6944997  37.8939988  27.3797776 140.5800175  37.7281843
  30.5140012 142.7084997  55.2199988  31.4670012 142.7914997  55.1929988
  30.3530012 141.9964997  55.8399988  30.6226426 142.6236746  55.3000579
  36.6660012 142.9414997  37.2949988  36.3920012 142.5164997  36.4819988
  36.7050012 143.8724997  37.0779988  36.6337699 143.0092484  37.1543610
  25.8330012 137.5914997  53.0249988  25.9830012 136.8624997  52.4229988
  25.8360012 138.3684997  52.4659988  25.8539302 137.5967851  52.8670692
  26.2460012 135.9614997  50.5179988  26.7820012 136.4124997  49.8659988
  25.3940012 135.8534997  50.0949988  26.2042178 136.0086390  50.3715756
  27.8280012 141.4004997  50.7569988  28.5780012 141.2444997  50.1839988
  27.4890012 142.2524997  50.4819988  27.8848921 141.4942968  50.6413561
  32.2430012 139.2154997  55.7859988  32.4360012 138.2844997  55.6739988
  33.1010012 139.6404997  55.7759988  32.3853020 139.1456389  55.7693361
  33.5600012 142.0044997  53.8629988  33.2790012 142.7134997  53.2859988
  34.5030012 141.9314997  53.7119988  33.6489027 142.0917646  53.7635551
  24.3120012 138.7894997  54.9369988  23.5450012 138.2574997  54.7269988
  24.9910012 138.4794997  54.3369988  24.2987022 138.6747506  54.8271648
  27.0520012 133.4174997  50.9489988  26.9530012 134.3644997  50.8439988
  26.3090012 133.0454997  50.4739988  26.9380563 133.4965902  50.8704560
  28.3160012 137.7394997  54.5129988  28.0800012 137.5194997  55.4149988
  27.5320012 137.5324997  54.0029988  28.1778628 137.6814760  54.5673932
  31.0310012 136.8664997  53.5889988  30.0840012 136.8984997  53.7209988
  31.3440012 136.2414997  54.2419988  30.9435475 136.7863207  53.6954455
  32.6650012 135.5004997  55.5939988  32.5690012 134.5484997  55.5879988
  32.3440012 135.7694997  56.4539988  32.6084070 135.4064035  55.7095441
  22.4920012 136.7104997  54.6409988  22.7040012 136.0034997  54.0309988
  22.3810012 136.2724997  55.4849988  22.5059721 136.5547084  54.6716843
  27.2730012 132.7114997  53.6209988  27.9850012 132.0714997  53.6069988
  27.1720012 132.9784997  52.7069988  27.3567939 132.6599938  53.4955650
  27.6270012 134.3944997  55.6739988  27.4950012 133.9184997  54.8539988
  27.0280012 135.1384997  55.6189988  27.5279071 134.4299618  55.5542886
  37.1240012 143.8104997  41.2699988  37.9740012 144.2314997  41.3969988
  37.1300012 143.0704997  41.8769988  37.2411372 143.7680803  41.3694344
  37.5190012 141.8634997  43.0939988  36.7920012 141.3844997  43.4909988
  38.1000012 142.0694997  43.8259988  37.4979375 141.8257090  43.2474129
  37.2780012 144.6484997  48.0409988  38.1110012 144.2704997  47.7609988
  37.3900012 145.5914997  47.9219988  37.4072647 144.7242218  47.9865487
  37.7870012 141.7644997  39.4849988  37.2650012 142.1214997  38.7659988
  37.7540012 142.4394997  40.1629988  37.7111634 141.9045413  39.4783145
  36.1360012 139.0044997  38.0359988  36.2320012 139.6714997  37.3549988
  35.9960012 138.1884997  37.5539988  36.1302135 138.9854500  37.8778491
  35.3050012 140.3844997  43.6569988  35.1550012 139.4394997  43.6359988
  34.9520012 140.6654997  44.4999988  35.2366625 140.2930441  43.7682346
  20.3410012 142.4624997  47.6669988  20.5250012 142.3804997  46.7309988
  21.1900012 142.3384997  48.0909988  20.4810139 142.4345003  47.5961455
  36.1620012 142.3544997  53.2949988  36.7450012 141.6204997  53.4869988
  36.7260012 143.1264997  53.3419988  36.3179769 142.3584227  53.3276159
  37.6580012 140.2574997  53.9799988  36.7950012 139.8784997  53.8139988
  38.2630012 139.5184997  53.9059988  37.6215979 140.1058023  53.9472817
  35.3830012 136.4124997  37.1529988  35.9940012 136.0414997  37.7899988
  34.5470012 135.9914997  37.3489988  35.3535032 136.3047554  37.2667035
  35.0160012 137.9674997  42.1189988  35.2960012 137.0604997  42.2429988
  35.7750012 138.4014997  41.7299988  35.1569277 137.9020942  42.0833682
  35.6280012 138.5484997  47.5549988  36.5610012 138.7604997  47.5209988
  35.3930012 138.6504997  48.4769988  35.7238036 138.5912769  47.6749976
  35.6570012 139.2854997  50.3309988  34.8140012 139.5534997  50.6969988
  36.0990012 140.1074997  50.1199988  35.6014158 139.4333291  50.3525491
  19.9380012 137.7334997  53.8079988  20.8580012 137.6114997  54.0439988
  19.4890012 136.9834997  54.1969988  20.0031580 137.6153727  53.8929006
  37.9400012 133.2654997  55.6839988  38.2900012 132.6114997  55.0789988
  38.0870012 134.1024997  55.2449988  38.0078419 133.2891591  55.5417118
  35.6290012 135.2304997  42.1669988  35.8120012 134.7814997  42.9929988
  35.0300012 134.6454997  41.7039988  35.5730202 135.0899975  42.2173275
  21.1590012 136.0454997  46.6989988  21.6050012 135.2534997  47.0009988
  21.6260012 136.7614997  47.1299988  21.2830172 136.0340624  46.7984820
  19.4630012 139.0444997  47.7679988  19.9550012 138.8234997  46.9769988
  19.8260012 139.8854997  48.0489988  19.5793126 139.1278357  47.6977531
  37.4600012 135.3744997  54.0339988  36.5420012 135.6454997  53.9979988
  37.5830012 134.8394997  53.2489988  37.3511066 135.3392892  53.9230487
  37.4960012 135.2974997  38.6949988  37.9080012 134.5764997  38.2199988
  38.1780012 135.9674997  38.7539988  37.6445885 135.2892368  38.6378915
  19.7770012 135.3024997  41.8219988  18.8520012 135.5114997  41.6929988
  20.2310012 135.7864997  41.1329988  19.7117368 135.3965993  41.7111226
  19.7410012 134.0404997  50.1669988  19.0760012 133.7944997  50.8099988
  19.2980012 134.6624997  49.5889988  19.5900956 134.0908632  50.1769352
  36.4600012 133.4644997  51.8529988  35.6480012 133.7894997  51.4649988
  36.6930012 132.7044997  51.3199988  36.3803423 133.4062436  51.7278253
  29.8900012 134.9134997  46.1749988  29.2160012 134.2844997  46.4309988
  30.4540012 134.4294997  45.5719988  29.8739230 134.7618744  46.1285340
  35.0330012 133.0214997  46.2879988  35.6370012 133.5684997  45.7859988
  34.1630012 133.3404997  46.0479988  34.9981241 133.1395806  46.1867654
  36.7600012 134.1594997  44.6209988  37.3720012 133.6454997  44.0949988
  37.1420012 135.0374997  44.6449988  36.8954540 134.2077140  44.5521830
  22.2170012 133.5474997  43.9969988  21.4400012 133.3134997  43.4899988
  22.7470012 132.7504997  44.0059988  22.1822330 133.4076988  43.9287742
  21.0530012 133.3454997  39.8009988  21.4920012 133.9564997  39.2089988
  20.4200012 133.8834997  40.2749988  21.0274514 133.5019257  39.7840930
  26.7960012 133.4744997  43.8109988  27.6710012 133.8624997  43.7809988
  26.6600012 133.2594997  44.7329988  26.8973695 133.4985184  43.9316440
  32.3530012 133.5044997  45.4599988  32.4290012 133.5994997  44.5099988
  32.0780012 132.5964997  45.5889988  32.3262321 133.3947867  45.3475079
  33.7060012 133.5304997  41.1519988  33.0040012 134.1454997  40.9429988
  33.2620012 132.6924997  41.2829988  33.5496330 133.5015783  41.1410328
  22.9140012 135.2614997  38.2429988  23.4060012 134.6314997  37.7159988
  23.5380012 135.5574997  38.9069988  23.0655446 135.2153199  38.2605980
  27.9400012 135.5544997  40.6999988  28.1180012 134.9084997  41.3829988
  27.8870012 136.3884997  41.1679988  27.9571829 135.5787985  40.8565940
  22.1750012 134.0614997  53.5149988  21.8090012 133.2964997  53.9579988
  23.0880012 134.0904997  53.8019988  22.2482790 133.9607224  53.6144070
  24.1480012 133.4124997  55.0509988  25.0460012 133.1384997  54.8659988
  23.7610012 132.6694997  55.5149988  24.2186612 133.2745914  55.0883643
  32.5690012 132.7444997  55.2329988  32.6460012 132.3184997  56.0869988
  33.4630012 132.7584997  54.8899988  32.7003428 132.6880879  55.3035310
  50.1510012 142.7034997  43.9559988  50.2400012 143.6474997  43.8239988
  49.5130012 142.4284997  43.2979988  50.0769081 142.7954830  43.8489614
  49.0840012 141.9584997  47.3749988  49.0460012 141.3124997  48.0799988
  48.7620012 141.4924997  46.6039988  49.0352333 141.8069408  47.3672978
  41.4530012 141.5734997  48.9679988  41.4940012 140.9474997  49.6909988
  42.1560012 142.1974997  49.1499988  41.5536363 141.5721196  49.0916044
  52.7900012 144.8974997  45.6759988  52.3500012 144.1774997  46.1269988
  52.7770012 145.6184997  46.3059988  52.7280226 144.8963731  45.8228494
  38.9860012 139.6834997  42.8959988  38.5390012 140.5294997  42.8769988
  38.4250012 139.1034997  42.3799988  38.8489900 139.7209916  42.8236801
  39.6970012 141.8454997  45.0219988  39.9100012 141.0754997  45.5489988
  40.4350012 141.9344997  44.4179988  39.8258496 141.7521394  45.0125300
  47.4740012 144.3914997  47.7809988  47.7780012 143.7054997  47.1859988
  48.1950012 144.5094997  48.3989988  47.6130671 144.3136305  47.7831816
  56.1370012 135.9924997  48.6419988  56.1860012 136.6024997  49.3779988
  56.5620012 136.4534997  47.9189988  56.2011824 136.1383741  48.6450205
  50.6150012 138.7854997  48.1089988  50.7570012 137.8394997  48.1289988
  50.5080012 138.9924997  47.1799988  50.6199864 138.6839534  47.9862339
  43.7690012 136.8864997  45.3809988  43.8130012 137.7464997  44.9629988
  43.3120012 136.3344997  44.7469988  43.7132185 136.9295799  45.2380299
  51.4920012 137.0174997  43.7819988  52.1380012 136.6884997  44.4069988
  52.0020012 137.5354997  43.1589988  51.6494264 137.0424611  43.7833862
  40.3900012 139.2834997  46.1429988  41.0430012 138.7334997  46.5749988
  40.4140012 139.0094997  45.2259988  40.4826683 139.1711466  46.0782123
  45.5460012 140.8334997  45.3579988  46.1620012 140.3074997  45.8679988
  44.9600012 140.1934997  44.9549988  45.5510810 140.6749208  45.3733173
  56.5280012 137.4704997  50.8779988  55.8400012 138.1284997  50.7819988
  56.5440012 137.2734997  51.8139988  56.4358525 137.5340462  50.9914808
  42.5800012 135.8044997  49.4549988  42.3610012 136.3344997  48.6889988
  41.9120012 136.0314997  50.1019988  42.4597600 135.9076906  49.4376379
  45.1490012 143.4804997  49.7419988  44.4090012 144.0784997  49.8459988
  45.8630012 144.0344997  49.4269988  45.1442237 143.6372831  49.7136465
  53.2560012 136.3084997  45.7619988  53.0400012 135.5424997  46.2949988
  53.9110012 136.7804997  46.2749988  53.3150632 136.2675889  45.9042861
  42.1730012 137.6964997  47.4069988  42.7870012 138.3294997  47.7809988
  42.6850012 137.2244997  46.7509988  42.3262296 137.7192370  47.3694252
  53.6030012 135.0234997  49.4419988  52.8670012 135.6344997  49.4039988
  54.2860012 135.4384997  48.9149988  53.5946541 135.1631374  49.3655832
  46.6060012 133.1104997  46.9079988  46.4890012 132.1614997  46.8529988
  45.7510012 133.4424997  47.1809988  46.4743733 133.0255409  46.9373897
  54.4000012 144.9854997  51.6359988  54.5400012 144.3944997  50.8959988
  54.5670012 145.8584997  51.2789988  54.4416778 145.0226426  51.4866965
  48.8730012 141.9474997  41.4079988  48.1610012 142.4824997  41.0559988
  49.5640012 142.0034997  40.7479988  48.8690132 142.0282543  41.2706289
  48.9260012 140.4054997  38.4469988  49.6270012 140.4274997  39.0979988
  49.2290012 139.7774997  37.7909988  49.0627830 140.3236566  38.4473711
  56.2420012 141.3254997  49.7019988  55.5890012 142.0204997  49.7909988
  56.7070012 141.5354997  48.8919988  56.2155390 141.4489425  49.6046883
  52.2780012 142.1574997  42.3599988  51.5460012 142.3854997  42.9329988
  52.7260012 141.4434997  42.8149988  52.2383095 142.0922571  42.4999119
  52.1760012 140.3314997  51.4269988  52.2560012 141.0944997  51.9989988
  51.5740012 140.6104997  50.7369988  52.1055756 140.4737134  51.4120589
  43.9240012 142.7874997  44.2419988  43.5930012 142.4174997  43.4239988
  44.5120012 142.1174997  44.5889988  43.9581873 142.6461156  44.1768102
  44.2900012 141.5564997  47.8759988  44.8560012 141.6774997  47.1129988
  44.6090012 142.1934997  48.5149988  44.4105786 141.6591884  47.8580040
  51.1490012 141.3194997  40.0449988  51.7290012 141.4694997  40.7919988
  51.5630012 141.7904997  39.3219988  51.2842830 141.4036841  40.0494134
  42.0900012 142.1534997  51.8219988  42.1610012 142.8044997  52.5199988
  41.2000012 142.2564997  51.4869988  41.9793117 142.2565936  51.8722700
  54.8480012 133.0694997  39.8579988  53.9480012 133.2084997  40.1529988
  55.1000012 133.9004997  39.4559988  54.7588702 133.2009074  39.8440205
  42.9140012 141.8574997  41.8319988  42.6220012 142.6254997  41.3409988
  42.2400012 141.1974997  41.6689988  42.7829081 141.8734406  41.7427340
  39.0070012 144.2204997  50.6469988  38.5060012 144.1924997  49.8319988
  39.0120012 143.3144997  50.9559988  38.9391526 144.0942278  50.5772872
  54.1070012 139.1594997  53.6929988  53.7000012 139.6404997  52.9719988
  54.1480012 138.2544997  53.3849988  54.0568437 139.1029374  53.5526683
  43.8750012 134.0134997  47.6849988  43.0130012 133.9264997  47.2779988
  43.8520012 134.8694997  48.1129988  43.7540330 134.1172765  47.6871863
  48.5380012 133.7354997  51.0599988  48.9580012 133.3204997  51.8129988
  47.6050012 133.5574997  51.1769988  48.4693644 133.6545900  51.1789539
  51.8640012 137.4914997  51.9129988  51.3500012 137.3654997  52.7109988
  51.7090012 138.4034997  51.6689988  51.7726852 137.5976132  51.9892158
  52.6270012 142.3524997  37.6749988  52.6690012 142.1294997  36.7449988
  53.4760012 142.7514997  37.8649988  52.7475396 142.3759155  37.5733627
  48.1990012 136.2284997  38.3449988  47.9460012 136.2474997  39.2679988
  47.9430012 135.3564997  38.0439988  48.1297790 136.1132437  38.4306263
  43.9660012 138.9794997  48.7799988  43.3240012 138.9384997  49.4889988
  44.0030012 139.9054997  48.5429988  43.8831324 139.0991559  48.8449824
  43.9630012 139.2004997  43.6919988  43.0700012 138.8594997  43.6339988
  44.4130012 138.8234997  42.9369988  43.9017305 139.1028484  43.5819177
  49.4980012 139.6164997  42.5089988  49.0890012 140.4314997  42.2179988
  50.2190012 139.4764997  41.8949988  49.5394537 139.7092018  42.3861342
  48.6000012 139.7914997  53.9969988  48.0380012 139.0874997  54.3179988
  49.4270012 139.6714997  54.4649988  48.6347095 139.6787883  54.1042330
  50.5030012 139.0624997  45.3229988  50.3080012 139.6674997  44.6079988
  50.6840012 138.2284997  44.8889988  50.5007614 139.0326300  45.1664405
  41.7160012 139.2994997  50.6469988  41.6780012 139.6994997  51.5159988
  41.2250012 138.4824997  50.7379988  41.6444684 139.2438069  50.7781059
  45.0820012 136.6734997  37.4459988  44.6510012 136.2284997  38.1759988
  44.3640012 137.0454997  36.9339988  44.9259438 136.6628940  37.4766799
  38.3240012 136.4154997  44.4979988  38.9550012 136.3864997  45.2169988
  38.7730012 135.9904997  43.7679988  38.4710774 136.3540492  44.4976553
  39.5980012 137.1614997  39.9219988  40.0720012 137.7524997  39.3369988
  38.8810012 137.6924997  40.2689988  39.5659341 137.3140867  39.8888836
  49.7670012 140.7004997  49.9949988  50.0900012 140.0694997  49.3519988
  49.3270012 140.1654997  50.6549988  49.7516895 140.5418441  49.9962850
  46.5440012 136.6274997  44.7789988  45.6330012 136.6844997  45.0669988
  47.0500012 136.5674997  45.5889988  46.4875413 136.6271985  44.9280622
  41.3730012 138.2564997  43.6049988  40.4830012 138.3564997  43.2649988
  41.6690012 137.4144997  43.2589988  41.2912823 138.1563545  43.5117213
  45.0260012 138.2564997  41.2619988  45.9570012 138.3854997  41.4399988
  44.8110012 138.9264997  40.6119988  45.1244247 138.3646565  41.1985747
  50.9490012 135.8624997  48.0429988  50.2730012 135.9934997  48.7069988
  50.4640012 135.7074997  47.2329988  50.7907145 135.8594905  48.0244517
  43.7000012 139.4514997  38.8289988  43.1570012 139.0714997  38.1369988
  44.5330012 139.6454997  38.3999988  43.7384399 139.4258124  38.6764526
  41.8350012 144.0084997  53.9279988  42.5670012 144.2624997  54.4889988
  41.0550012 144.2124997  54.4429988  41.8298232 144.0709177  54.0745760
  47.8640012 139.4154997  46.6659988  48.4290012 138.8684997  46.1189988
  47.7170012 138.8934997  47.4539988  47.9212918 139.2702024  46.6978454
  42.8660012 135.5514997  43.0839988  42.5490012 134.6494997  43.0489988
  43.6480012 135.5534997  42.5309988  42.9282284 135.4281628  43.0044783
  46.4910012 137.8034997  49.0799988  45.6550012 138.2574997  49.1899988
  47.0150012 138.0794997  49.8319988  46.4474414 137.9029376  49.1967136
  47.0350012 144.0164997  40.7639988  46.2900012 143.5094997  40.4419988
  46.9010012 144.0654997  41.7109988  46.9148776 143.9536940  40.8478647
  54.1850012 143.1494997  49.5509988  54.8270012 143.6064997  49.0069988
  53.3550012 143.2624997  49.0879988  54.1605963 143.2272704  49.4140177
  50.9330012 136.8304997  38.9639988  49.9940012 136.9424997  38.8119988
  51.2300012 137.6874997  39.2699988  50.8447666 136.9616443  38.9845768
  48.5540012 144.2004997  52.0009988  48.2090012 143.8194997  52.8079988
  48.3540012 145.1344997  52.0729988  48.4798061 144.2745228  52.1210961
  51.6510012 138.6974997  40.6239988  52.5430012 138.5604997  40.9429988
  51.7080012 139.4884997  40.0879988  51.7806285 138.7856660  40.5951691
  42.1600012 143.3114997  46.5339988  42.9050012 143.3094997  45.9329988
  42.2380012 142.4884997  47.0159988  42.2725518 143.1999315  46.5168929
  39.1680012 141.7724997  51.8489988  39.3910012 141.3544997  52.6809988
  38.5660012 141.1594997  51.4259988  39.1171759 141.6324668  51.9057022
  46.1840012 141.2894997  54.0619988  45.8880012 141.1234997  53.1669988
  47.1160012 141.0694997  54.0509988  46.2694166 141.2370640  53.9380536
  56.5360012 138.9074997  40.3189988  55.9820012 138.5114997  39.6469988
  56.6360012 139.8174997  40.0409988  56.4737059 138.9763586  40.1894401
  56.4990012 144.7074997  53.1559988  55.6480012 144.9454997  52.7889988
  57.0900012 144.6904997  52.4029988  56.4622487 144.7378258  53.0038893
  51.9920012 142.5014997  47.8049988  51.0630012 142.2694997  47.7779988
  52.4430012 141.7244997  47.4749988  51.9259216 142.3647238  47.7566917
  40.2900012 141.6914997  38.5249988  40.9060012 142.3184997  38.9049988
  39.4280012 142.0074997  38.7969988  40.2577698 141.8199430  38.6137183
  45.9620012 144.4924997  43.5149988  45.7210012 145.4174997  43.5559988
  45.2210012 144.0334997  43.9109988  45.8288409 144.5571421  43.5741377
  50.0210012 144.7404997  49.5299988  49.5950012 144.5134997  50.3569988
  50.6010012 144.0024997  49.3479988  50.0411868 144.6095299  49.6185830
  40.8020012 136.5254997  51.4069988  39.9090012 136.8644997  51.3389988
  40.7030012 135.6704997  51.8249988  40.6664164 136.4562588  51.4542235
  53.0900012 144.3424997  40.8309988  52.8120012 143.6144997  41.3869988
  54.0170012 144.4614997  41.0359988  53.1773124 144.2588802  40.9348845
  41.7050012 143.6044997  40.0179988  41.0190012 143.9564997  40.5849988
  42.2270012 144.3674997  39.7709988  41.6816852 143.7558578  40.0622118
  49.5360012 136.2664997  50.2969988  50.2350012 136.3404997  50.9469988
  49.1550012 135.4024997  50.4509988  49.5801767 136.1597624  50.4068322
  50.3210012 135.9184997  41.3939988  50.5410012 136.3904997  40.5909988
  50.8790012 136.3134997  42.0639988  50.4264968 136.0364285  41.3747331
  47.5210012 137.6464997  42.2289988  48.3330012 138.1514997  42.2749988
  47.2760012 137.5014997  43.1429988  47.5990520 137.6960375  42.3588517
  48.0560012 138.6324997  51.4139988  48.1750012 139.2064997  52.1709988
  48.7120012 137.9444997  51.5279988  48.1609757 138.6181079  51.5330825
  48.4040012 134.7274997  43.1669988  48.0580012 135.3454997  43.8119988
  49.0630012 135.2284997  42.6859988  48.4457826 134.8795802  43.1900971
  44.0620012 135.7904997  39.8539988  43.9790012 136.6794997  40.2009988
  44.9520012 135.5254997  40.0859988  44.1709469 135.8761430  39.9327626
  54.2610012 136.5394997  52.2489988  53.3440012 136.8024997  52.1609988
  54.5960012 136.5364997  51.3519988  54.1809900 136.5750224  52.1157919
  52.8630012 140.2904997  46.3439988  52.0650012 139.8754997  46.0159988
  53.3080012 139.5994997  46.8349988  52.8139885 140.1403543  46.3654889
  40.6370012 138.8824997  38.0309988  40.5920012 139.8214997  38.2089988
  39.7490012 138.6464997  37.7609988  40.5108574 138.9791892  38.0188912
  41.4450012 133.6644997  46.7039988  41.2160012 133.7234997  45.7759988
  41.0020012 132.8724997  47.0099988  41.3538530 133.5655753  46.6184786
  39.5700012 144.0274997  55.1489988  39.7140012 143.1254997  54.8619988
  38.7980012 144.3134997  54.6609988  39.4853323 143.9428261  55.0437881
  43.9120012 144.3714997  37.2809988  43.9760012 143.5774997  37.8119988
  44.5650012 144.2524997  36.5909988  44.0090241 144.2467148  37.2604317
  46.2260012 143.9974997  54.5809988  45.8970012 144.2684997  53.7239988
  46.3780012 143.0564997  54.4939988  46.2014809 143.9073862  54.4518244
  51.9600012 143.9134997  51.9649988  52.7060012 144.5014997  51.8449988
  51.2030012 144.4954997  52.0279988  51.9597554 144.0727011  51.9570907
  40.4030012 141.2274997  54.5689988  40.8110012 140.3704997  54.4479988
  40.1430012 141.2424997  55.4899988  40.4237568 141.1120807  54.6769588
  45.0610012 142.3434997  39.5869988  44.6010012 141.8594997  40.2729988
  45.3160012 141.6754997  38.9509988  45.0324902 142.1868731  39.5949334
  44.3500012 140.2364997  51.9429988  43.7320012 140.9114997  52.2229988
  44.6940012 140.5574997  51.1099988  44.3119615 140.3722721  51.8686581
  46.1320012 140.5864997  37.8489988  45.9520012 140.4324997  36.9219988
  47.0820012 140.6944997  37.8939988  46.2357776 140.5800175  37.7281843
  49.3700012 142.7084997  55.2199988  50.3230012 142.7914997  55.1929988
  49.2090012 141.9964997  55.8399988  49.4786426 142.6236746  55.3000579
  55.5220012 142.9414997  37.2949988  55.2480012 142.5164997  36.4819988
  55.5610012 143.8724997  37.0779988  55.4897699 143.0092484  37.1543610
  44.6890012 137.5914997  53.0249988  44.8390012 136.8624997  52.4229988
  44.6920012 138.3684997  52.4659988  44.7099302 137.5967851  52.8670692
  45.1020012 135.9614997  50.5179988  45.6380012 136.4124997  49.8659988
  44.2500012 135.8534997  50.0949988  45.0602178 136.0086390  50.3715756
  46.6840012 141.4004997  50.7569988  47.4340012 141.2444997  50.1839988
  46.3450012 142.2524997  50.4819988  46.7408921 141.4942968  50.6413561
  51.0990012 139.2154997  55.7859988  51.2920012 138.2844997  55.6739988
  51.9570012 139.6404997  55.7759988  51.2413020 139.1456389  55.7693361
  52.4160012 142.0044997  53.8629988  52.1350012 142.7134997  53.2859988
  53.3590012 141.9314997  53.7119988  52.5049027 142.0917646  53.7635551
  43.1680012 138.7894997  54.9369988  42.4010012 138.2574997  54.7269988
  43.8470012 138.4794997  54.3369988  43.1547022 138.6747506  54.8271648
  45.9080012 133.4174997  50.9489988  45.8090012 134.3644997  50.8439988
  45.1650012 133.0454997  50.4739988  45.7940564 133.4965902  50.8704560
  47.1720012 137.7394997  54.5129988  46.9360012 137.5194997  55.4149988
  46.3880012 137.5324997  54.0029988  47.0338628 137.6814760  54.5673932
  49.8870012 136.8664997  53.5889988  48.9400012 136.8984997  53.7209988
  50.2000012 136.2414997  54.2419988  49.7995475 136.7863207  53.6954455
  51.5210012 135.5004997  55.5939988  51.4250012 134.5484997  55.5879988
  51.2000012 135.7694997  56.4539988  51.4644070 135.4064035  55.7095441
  41.3480012 136.7104997  54.6409988  41.5600012 136.0034997  54.0309988
  41.2370012 136.2724997  55.4849988  41.3619721 136.5547084  54.6716843
  46.1290012 132.7114997  53.6209988  46.8410012 132.0714997  53.6069988
  46.0280012 132.9784997  52.7069988  46.2127939 132.6599938  53.4955650
  46.4830012 134.3944997  55.6739988  46.3510012 133.9184997  54.8539988
  45.8840012 135.1384997  55.6189988  46.3839071 134.4299618  55.5542886
  55.9800012 143.8104997  41.2699988  56.8300012 144.2314997  41.3969988
  55.9860012 143.0704997  41.8769988  56.0971372 143.7680803  41.3694344
  56.3750012 141.8634997  43.0939988  55.6480012 141.3844997  43.4909988
  56.9560012 142.0694997  43.8259988  56.3539375 141.8257090  43.2474129
  56.1340012 144.6484997  48.0409988  56.9670012 144.2704997  47.7609988
  56.2460012 145.5914997  47.9219988  56.2632647 144.7242218  47.9865487
  56.6430012 141.7644997  39.4849988  56.1210012 142.1214997  38.7659988
  56.6100012 142.4394997  40.1629988  56.5671634 141.9045413  39.4783145
  54.9920012 139.0044997  38.0359988  55.0880012 139.6714997  37.3549988
  54.8520012 138.1884997  37.5539988  54.9862135 138.9854500  37.8778491
  54.1610012 140.3844997  43.6569988  54.0110012 139.4394997  43.6359988
  53.8080012 140.6654997  44.4999988  54.0926625 140.2930441  43.7682346
  39.1970012 142.4624997  47.6669988  39.3810012 142.3804997  46.7309988
  40.0460012 142.3384997  48.0909988  39.3370139 142.4345003  47.5961455
  55.0180012 142.3544997  53.2949988  55.6010012 141.6204997  53.4869988
  55.5820012 143.1264997  53.3419988  55.1739769 142.3584227  53.3276159
  56.5140012 140.2574997  53.9799988  55.6510012 139.8784997  53.8139988
  57.1190012 139.5184997  53.9059988  56.4775979 140.1058023  53.9472817
  54.2390012 136.4124997  37.1529988  54.8500012 136.0414997  37.7899988
  53.4030012 135.9914997  37.3489988  54.2095032 136.3047554  37.2667035
  53.8720012 137.9674997  42.1189988  54.1520012 137.0604997  42.2429988
  54.6310012 138.4014997  41.7299988  54.0129277 137.9020942  42.0833682
  54.4840012 138.5484997  47.5549988  55.4170012 138.7604997  47.5209988
  54.2490012 138.6504997  48.4769988  54.5798036 138.5912769  47.6749976
  54.5130012 139.2854997  50.3309988  53.6700012 139.5534997  50.6969988
  54.9550012 140.1074997  50.1199988  54.4574158 139.4333291  50.3525491
  38.7940012 137.7334997  53.8079988  39.7140012 137.6114997  54.0439988
  38.3450012 136.9834997  54.1969988  38.8591580 137.6153727  53.8929006
  56.7960012 133.2654997  55.6839988  57.1460012 132.6114997  55.0789988
  56.9430012 134.1024997  55.2449988  56.8638419 133.2891591  55.5417118
  54.4850012 135.2304997  42.1669988  54.6680012 134.7814997  42.9929988
  53.8860012 134.6454997  41.7039988  54.4290202 135.0899975  42.2173275
  40.0150012 136.0454997  46.6989988  40.4610012 135.2534997  47.0009988
  40.4820012 136.7614997  47.1299988  40.1390172 136.0340624  46.7984820
  38.3190012 139.0444997  47.7679988  38.8110012 138.8234997  46.9769988
  38.6820012 139.8854997  48.0489988  38.4353126 139.1278357  47.6977531
  56.3160012 135.3744997  54.0339988  55.3980012 135.6454997  53.9979988
  56.4390012 134.8394997  53.2489988  56.2071066 135.3392892  53.9230487
  56.3520012 135.2974997  38.6949988  56.7640012 134.5764997  38.2199988
  57.0340012 135.9674997  38.7539988  56.5005885 135.2892368  38.6378915
  38.6330012 135.3024997  41.8219988  37.7080012 135.5114997  41.6929988
  39.0870012 135.7864997  41.1329988  38.5677368 135.3965993  41.7111226
  38.5970012 134.0404997  50.1669988  37.9320012 133.7944997  50.8099988
  38.1540012 134.6624997  49.5889988  38.4460956 134.0908632  50.1769352
  55.3160012 133.4644997  51.8529988  54.5040012 133.7894997  51.4649988
  55.5490012 132.7044997  51.3199988  55.2363423 133.4062436  51.7278253
  48.7460012 134.9134997  46.1749988  48.0720012 134.2844997  46.4309988
  49.3100012 134.4294997  45.5719988  48.7299230 134.7618744  46.1285340
  53.8890012 133.0214997  46.2879988  54.4930012 133.5684997  45.7859988
  53.0190012 133.3404997  46.0479988  53.8541241 133.1395806  46.1867654
  55.6160012 134.1594997  44.6209988  56.2280012 133.6454997  44.0949988
  55.9980012 135.0374997  44.6449988  55.7514540 134.2077140  44.5521830
  41.0730012 133.5474997  43.9969988  40.2960012 133.3134997  43.4899988
  41.6030012 132.7504997  44.0059988  41.0382330 133.4076988  43.9287742
  39.9090012 133.3454997  39.8009988  40.3480012 133.9564997  39.2089988
  39.2760012 133.8834997  40.2749988  39.8834514 133.5019257  39.7840930
  45.6520012 133.4744997  43.8109988  46.5270012 133.8624997  43.7809988
  45.5160012 133.2594997  44.7329988  45.7533695 133.4985184  43.9316440
  51.2090012 133.5044997  45.4599988  51.2850012 133.5994997  44.5099988
  50.9340012 132.5964997  45.5889988  51.1822321 133.3947867  45.3475079
  52.5620012 133.5304997  41.1519988  51.8600012 134.1454997  40.9429988
  52.1180012 132.6924997  41.2829988  52.4056330 133.5015783  41.1410328
  41.7700012 135.2614997  38.2429988  42.2620012 134.6314997  37.7159988
  42.3940012 135.5574997  38.9069988  41.9215446 135.2153199  38.2605980
  46.7960012 135.5544997  40.6999988  46.9740012 134.9084997  41.3829988
  46.7430012 136.3884997  41.1679988  46.8131829 135.5787985  40.8565940
  41.0310012 134.0614997  53.5149988  40.6650012 133.2964997  53.9579988
  41.9440012 134.0904997  53.8019988  41.1042790 133.9607224  53.6144070
  43.0040012 133.4124997  55.0509988  43.9020012 133.1384997  54.8659988
  42.6170012 132.6694997  55.5149988  43.0746612 133.2745914  55.0883643
  51.4250012 132.7444997  55.2329988  51.5020012 132.3184997  56.0869988
  52.3190012 132.7584997  54.8899988  51.5563428 132.6880879  55.3035310
  69.0070012 142.7034997  43.9559988  69.0960012 143.6474997  43.8239988
  68.3690012 142.4284997  43.2979988  68.9329081 142.7954830  43.8489614
  67.9400012 141.9584997  47.3749988  67.9020012 141.3124997  48.0799988
  67.6180012 141.4924997  46.6039988  67.8912333 141.8069408  47.3672978
  60.3090012 141.5734997  48.9679988  60.3500012 140.9474997  49.6909988
  61.0120012 142.1974997  49.1499988  60.4096363 141.5721196  49.0916044
  71.6460012 144.8974997  45.6759988  71.2060012 144.1774997  46.1269988
  71.6330012 145.6184997  46.3059988  71.5840226 144.8963731  45.8228494
  57.8420012 139.6834997  42.8959988  57.3950012 140.5294997  42.8769988
  57.2810012 139.1034997  42.3799988  57.7049900 139.7209916  42.8236801
  58.5530012 141.8454997  45.0219988  58.7660012 141.0754997  45.5489988
  59.2910012 141.9344997  44.4179988  58.6818496 141.7521394  45.0125300
  66.3300012 144.3914997  47.7809988  66.6340012 143.7054997  47.1859988
  67.0510012 144.5094997  48.3989988  66.4690671 144.3136305  47.7831816
  74.9930012 135.9924997  48.6419988  75.0420012 136.6024997  49.3779988
  75.4180012 136.4534997  47.9189988  75.0571824 136.1383741  48.6450205
  69.4710012 138.7854997  48.1089988  69.6130012 137.8394997  48.1289988
  69.3640012 138.9924997  47.1799988  69.4759864 138.6839534  47.9862339
  62.6250012 136.8864997  45.3809988  62.6690012 137.7464997  44.9629988
  62.1680012 136.3344997  44.7469988  62.5692185 136.9295799  45.2380299
  70.3480012 137.0174997  43.7819988  70.9940012 136.6884997  44.4069988
  70.8580012 137.5354997  43.1589988  70.5054264 137.0424611  43.7833862
  59.2460012 139.2834997  46.1429988  59.8990012 138.7334997  46.5749988
  59.2700012 139.0094997  45.2259988  59.3386683 139.1711466  46.0782123
  64.4020012 140.8334997  45.3579988  65.0180012 140.3074997  45.8679988
  63.8160012 140.1934997  44.9549988  64.4070810 140.6749208  45.3733173
  75.3840012 137.4704997  50.8779988  74.6960012 138.1284997  50.7819988
  75.4000012 137.2734997  51.8139988  75.2918525 137.5340462  50.9914808
  61.4360012 135.8044997  49.4549988  61.2170012 136.3344997  48.6889988
  60.7680012 136.0314997  50.1019988  61.3157600 135.9076906  49.4376379
  64.0050012 143.4804997  49.7419988  63.2650012 144.0784997  49.8459988
  64.7190012 144.0344997  49.4269988  64.0002237 143.6372831  49.7136465
  72.1120012 136.3084997  45.7619988  71.8960012 135.5424997  46.2949988
  72.7670012 136.7804997  46.2749988  72.1710632 136.2675889  45.9042861
  61.0290012 137.6964997  47.4069988  61.6430012 138.3294997  47.7809988
  61.5410012 137.2244997  46.7509988  61.1822296 137.7192370  47.3694252
  72.4590012 135.0234997  49.4419988  71.7230012 135.6344997  49.4039988
  73.1420012 135.4384997  48.9149988  72.4506541 135.1631374  49.3655832
  65.4620012 133.1104997  46.9079988  65.3450012 132.1614997  46.8529988
  64.6070012 133.4424997  47.1809988  65.3303733 133.0255409  46.9373897
  73.2560012 144.9854997  51.6359988  73.3960012 144.3944997  50.8959988
  73.4230012 145.8584997  51.2789988  73.2976778 145.0226426  51.4866965
  67.7290012 141.9474997  41.4079988  67.0170012 142.4824997  41.0559988
  68.4200012 142.0034997  40.7479988  67.7250132 142.0282543  41.2706289
  67.7820012 140.4054997  38.4469988  68.4830012 140.4274997  39.0979988
  68.0850012 139.7774997  37.7909988  67.9187830 140.3236566  38.4473711
  75.0980012 141.3254997  49.7019988  74.4450012 142.0204997  49.7909988
  75.5630012 141.5354997  48.8919988  75.0715390 141.4489425  49.6046883
  71.1340012 142.1574997  42.3599988  70.4020012 142.3854997  42.9329988
  71.5820012 141.4434997  42.8149988  71.0943095 142.0922571  42.4999119
  71.0320012 140.3314997  51.4269988  71.1120012 141.0944997  51.9989988
  70.4300012 140.6104997  50.7369988  70.9615756 140.4737134  51.4120589
  62.7800012 142.7874997  44.2419988  62.4490012 142.4174997  43.4239988
  63.3680012 142.1174997  44.5889988  62.8141873 142.6461156  44.1768102
  63.1460012 141.5564997  47.8759988  63.7120012 141.6774997  47.1129988
  63.4650012 142.1934997  48.5149988  63.2665786 141.6591884  47.8580040
  70.0050012 141.3194997  40.0449988  70.5850012 141.4694997  40.7919988
  70.4190012 141.7904997  39.3219988  70.1402830 141.4036841  40.0494134
  60.9460012 142.1534997  51.8219988  61.0170012 142.8044997  52.5199988
  60.0560012 142.2564997  51.4869988  60.8353117 142.2565936  51.8722700
  73.7040012 133.0694997  39.8579988  72.8040012 133.2084997  40.1529988
  73.9560012 133.9004997  39.4559988  73.6148702 133.2009074  39.8440205
  61.7700012 141.8574997  41.8319988  61.4780012 142.6254997  41.3409988
  61.0960012 141.1974997  41.6689988  61.6389081 141.8734406  41.7427340
  57.8630012 144.2204997  50.6469988  57.3620012 144.1924997  49.8319988
  57.8680012 143.3144997  50.9559988  57.7951526 144.0942278  50.5772872
  72.9630012 139.1594997  53.6929988  72.5560012 139.6404997  52.9719988
  73.0040012 138.2544997  53.3849988  72.9128437 139.1029374  53.5526683
  62.7310012 134.0134997  47.6849988  61.8690012 133.9264997  47.2779988
  62.7080012 134.8694997  48.1129988  62.6100330 134.1172765  47.6871863
  67.3940012 133.7354997  51.0599988  67.8140012 133.3204997  51.8129988
  66.4610012 133.5574997  51.1769988  67.3253644 133.6545900  51.1789539
  70.7200012 137.4914997  51.9129988  70.2060012 137.3654997  52.7109988
  70.5650012 138.4034997  51.6689988  70.6286852 137.5976132  51.9892158
  71.4830012 142.3524997  37.6749988  71.5250012 142.1294997  36.7449988
  72.3320012 142.7514997  37.8649988  71.6035396 142.3759155  37.5733627
  67.0550012 136.2284997  38.3449988  66.8020012 136.2474997  39.2679988
  66.7990012 135.3564997  38.0439988  66.9857790 136.1132437  38.4306263
  62.8220012 138.9794997  48.7799988  62.1800012 138.9384997  49.4889988
  62.8590012 139.9054997  48.5429988  62.7391324 139.0991559  48.8449824
  62.8190012 139.2004997  43.6919988  61.9260012 138.8594997  43.6339988
  63.2690012 138.8234997  42.9369988  62.7577305 139.1028484  43.5819177
  68.3540012 139.6164997  42.5089988  67.9450012 140.4314997  42.2179988
  69.0750012 139.4764997  41.8949988  68.3954537 139.7092018  42.3861342
  67.4560012 139.7914997  53.9969988  66.8940012 139.0874997  54.3179988
  68.2830012 139.6714997  54.4649988  67.4907095 139.6787883  54.1042330
  69.3590012 139.0624997  45.3229988  69.1640012 139.6674997  44.6079988
  69.5400012 138.2284997  44.8889988  69.3567614 139.0326300  45.1664405
  60.5720012 139.2994997  50.6469988  60.5340012 139.6994997  51.5159988
  60.0810012 138.4824997  50.7379988  60.5004684 139.2438069  50.7781059
  63.9380012 136.6734997  37.4459988  63.5070012 136.2284997  38.1759988
  63.2200012 137.0454997  36.9339988  63.7819438 136.6628940  37.4766799
  57.1800012 136.4154997  44.4979988  57.8110012 136.3864997  45.2169988
  57.6290012 135.9904997  43.7679988  57.3270774 136.3540492  44.4976553
  58.4540012 137.1614997  39.9219988  58.9280012 137.7524997  39.3369988
  57.7370012 137.6924997  40.2689988  58.4219341 137.3140867  39.8888836
  68.6230012 140.7004997  49.9949988  68.9460012 140.0694997  49.3519988
  68.1830012 140.1654997  50.6549988  68.6076895 140.5418441  49.9962850
  65.4000012 136.6274997  44.7789988  64.4890012 136.6844997  45.0669988
  65.9060012 136.5674997  45.5889988  65.3435413 136.6271985  44.9280622
  60.2290012 138.2564997  43.6049988  59.3390012 138.3564997  43.2649988
  60.5250012 137.4144997  43.2589988  60.1472823 138.1563545  43.5117213
  63.8820012 138.2564997  41.2619988  64.8130012 138.3854997  41.4399988
  63.6670012 138.9264997  40.6119988  63.9804247 138.3646565  41.1985747
  69.8050012 135.8624997  48.0429988  69.1290012 135.9934997  48.7069988
  69.3200012 135.7074997  47.2329988  69.6467145 135.8594905  48.0244517
  62.5560012 139.4514997  38.8289988  62.0130012 139.0714997  38.1369988
  63.3890012 139.6454997  38.3999988  62.5944399 139.4258124  38.6764526
  60.6910012 144.0084997  53.9279988  61.4230012 144.2624997  54.4889988
  59.9110012 144.2124997  54.4429988  60.6858232 144.0709177  54.0745760
  66.7200012 139.4154997  46.6659988  67.2850012 138.8684997  46.1189988
  66.5730012 138.8934997  47.4539988  66.7772918 139.2702024  46.6978454
  61.7220012 135.5514997  43.0839988  61.4050012 134.6494997  43.0489988
  62.5040012 135.5534997  42.5309988  61.7842284 135.4281628  43.0044783
  65.3470012 137.8034997  49.0799988  64.5110012 138.2574997  49.1899988
  65.8710012 138.0794997  49.8319988  65.3034414 137.9029376  49.1967136
  65.8910012 144.0164997  40.7639988  65.1460012 143.5094997  40.4419988
  65.7570012 144.0654997  41.7109988  65.7708776 143.9536940  40.8478647
  73.0410012 143.1494997  49.5509988  73.6830012 143.6064997  49.0069988
  72.2110012 143.2624997  49.0879988  73.0165963 143.2272704  49.4140177
  69.7890012 136.8304997  38.9639988  68.8500012 136.9424997  38.8119988
  70.0860012 137.6874997  39.2699988  69.7007666 136.9616443  38.9845768
  67.4100012 144.2004997  52.0009988  67.0650012 143.8194997  52.8079988
  67.2100012 145.1344997  52.0729988  67.3358061 144.2745228  52.1210961
  70.5070012 138.6974997  40.6239988  71.3990012 138.5604997  40.9429988
  70.5640012 139.4884997  40.0879988  70.6366285 138.7856660  40.5951690
  61.0160012 143.3114997  46.5339988  61.7610012 143.3094997  45.9329988
  61.0940012 142.4884997  47.0159988  61.1285518 143.1999315  46.5168929
  58.0240012 141.7724997  51.8489988  58.2470012 141.3544997  52.6809988
  57.4220012 141.1594997  51.4259988  57.9731759 141.6324668  51.9057022
  65.0400012 141.2894997  54.0619988  64.7440012 141.1234997  53.1669988
  65.9720012 141.0694997  54.0509988  65.1254166 141.2370640  53.9380536
  75.3920012 138.9074997  40.3189988  74.8380012 138.5114997  39.6469988
  75.4920012 139.8174997  40.0409988  75.3297059 138.9763586  40.1894401
  75.3550012 144.7074997  53.1559988  74.5040012 144.9454997  52.7889988
  75.9460012 144.6904997  52.4029988  75.3182487 144.7378258  53.0038893
  70.8480012 142.5014997  47.8049988  69.9190012 142.2694997  47.7779988
  71.2990012 141.7244997  47.4749988  70.7819216 142.3647238  47.7566917
  59.1460012 141.6914997  38.5249988  59.7620012 142.3184997  38.9049988
  58.2840012 142.0074997  38.7969988  59.1137698 141.8199430  38.6137183
  64.8180012 144.4924997  43.5149988  64.5770012 145.4174997  43.5559988
  64.0770012 144.0334997  43.9109988  64.6848409 144.5571421  43.5741377
  68.8770012 144.7404997  49.5299988  68.4510012 144.5134997  50.3569988
  69.4570012 144.0024997  49.3479988  68.8971868 144.6095299  49.6185830
  59.6580012 136.5254997  51.4069988  58.7650012 136.8644997  51.3389988
  59.5590012 135.6704997  51.8249988  59.5224164 136.4562588  51.4542235
  71.9460012 144.3424997  40.8309988  71.6680012 143.6144997  41.3869988
  72.8730012 144.4614997  41.0359988  72.0333124 144.2588802  40.9348845
  60.5610012 143.6044997  40.0179988  59.8750012 143.9564997  40.5849988
  61.0830012 144.3674997  39.7709988  60.5376852 143.7558578  40.0622118
  68.3920012 136.2664997  50.2969988  69.0910012 136.3404997  50.9469988
  68.0110012 135.4024997  50.4509988  68.4361767 136.1597624  50.4068322
  69.1770012 135.9184997  41.3939988  69.3970012 136.3904997  40.5909988
  69.7350012 136.3134997  42.0639988  69.2824968 136.0364285  41.3747331
  66.3770012 137.6464997  42.2289988  67.1890012 138.1514997  42.2749988
  66.1320012 137.5014997  43.1429988  66.4550520 137.6960375  42.3588517
  66.9120012 138.6324997  51.4139988  67.0310012 139.2064997  52.1709988
  67.5680012 137.9444997  51.5279988  67.0169757 138.6181079  51.5330825
  67.2600012 134.7274997  43.1669988  66.9140012 135.3454997  43.8119988
  67.9190012 135.2284997  42.6859988  67.3017826 134.8795802  43.1900971
  62.9180012 135.7904997  39.8539988  62.8350012 136.6794997  40.2009988
  63.8080012 135.5254997  40.0859988  63.0269469 135.8761430  39.9327626
  73.1170012 136.5394997  52.2489988  72.2000012 136.8024997  52.1609988
  73.4520012 136.5364997  51.3519988  73.0369900 136.5750224  52.1157919
  71.7190012 140.2904997  46.3439988  70.9210012 139.8754997  46.0159988
  72.1640012 139.5994997  46.8349988  71.6699885 140.1403543  46.3654889
  59.4930012 138.8824997  38.0309988  59.4480012 139.8214997  38.2089988
  58.6050012 138.6464997  37.7609988  59.3668574 138.9791892  38.0188912
  60.3010012 133.6644997  46.7039988  60.0720012 133.7234997  45.7759988
  59.8580012 132.8724997  47.0099988  60.2098530 133.5655753  46.6184786
  58.4260012 144.0274997  55.1489988  58.5700012 143.1254997  54.8619988
  57.6540012 144.3134997  54.6609988  58.3413323 143.9428261  55.0437881
  62.7680012 144.3714997  37.2809988  62.8320012 143.5774997  37.8119988
  63.4210012 144.2524997  36.5909988  62.8650241 144.2467148  37.2604317
  65.0820012 143.9974997  54.5809988  64.7530012 144.2684997  53.7239988
  65.2340012 143.0564997  54.4939988  65.0574809 143.9073862  54.4518244
  70.8160012 143.9134997  51.9649988  71.5620012 144.5014997  51.8449988
  70.0590012 144.4954997  52.0279988  70.8157554 144.0727011  51.9570907
  59.2590012 141.2274997  54.5689988  59.6670012 140.3704997  54.4479988
  58.9990012 141.2424997  55.4899988  59.2797568 141.1120807  54.6769588
  63.9170012 142.3434997  39.5869988  63.4570012 141.8594997  40.2729988
  64.1720012 141.6754997  38.9509988  63.8884902 142.1868731  39.5949334
  63.2060012 140.2364997  51.9429988  62.5880012 140.9114997  52.2229988
  63.5500012 140.5574997  51.1099988  63.1679615 140.3722721  51.8686581
  64.9880012 140.5864997  37.8489988  64.8080012 140.4324997  36.9219988
  65.9380012 140.6944997  37.8939988  65.0917776 140.5800175  37.7281843
  68.2260012 142.7084997  55.2199988  69.1790012 142.7914997  55.1929988
  68.0650012 141.9964997  55.8399988  68.3346426 142.6236746  55.3000579
  74.3780012 142.9414997  37.2949988  74.1040012 142.5164997  36.4819988
  74.4170012 143.8724997  37.0779988  74.3457699 143.0092484  37.1543610
  63.5450012 137.5914997  53.0249988  63.6950012 136.8624997  52.4229988
  63.5480012 138.3684997  52.4659988  63.5659302 137.5967851  52.8670692
  63.9580012 135.9614997  50.5179988  64.4940012 136.4124997  49.8659988
  63.1060012 135.8534997  50.0949988  63.9162178 136.0086390  50.3715756
  65.5400012 141.4004997  50.7569988  66.2900012 141.2444997  50.1839988
  65.2010012 142.2524997  50.4819988  65.5968921 141.4942968  50.6413561
  69.9550012 139.2154997  55.7859988  70.1480012 138.2844997  55.6739988
  70.8130012 139.6404997  55.7759988  70.0973020 139.1456389  55.7693361
  71.2720012 142.0044997  53.8629988  70.9910012 142.7134997  53.2859988
  72.2150012 141.9314997  53.7119988  71.3609027 142.0917646  53.7635551
  62.0240012 138.7894997  54.9369988  61.2570012 138.2574997  54.7269988
  62.7030012 138.4794997  54.3369988  62.0107022 138.6747506  54.8271648
  64.7640012 133.4174997  50.9489988  64.6650012 134.3644997  50.8439988
  64.0210012 133.0454997  50.4739988  64.6500564 133.4965902  50.8704560
  66.0280012 137.7394997  54.5129988  65.7920012 137.5194997  55.4149988
  65.2440012 137.5324997  54.0029988  65.8898628 137.6814760  54.5673932
  68.7430012 136.8664997  53.5889988  67.7960012 136.8984997  53.7209988
  69.0560012 136.2414997  54.2419988  68.6555475 136.7863207  53.6954455
  70.3770012 135.5004997  55.5939988  70.2810012 134.5484997  55.5879988
  70.0560012 135.7694997  56.4539988  70.3204070 135.4064035  55.7095441
  60.2040012 136.7104997  54.6409988  60.4160012 136.0034997  54.0309988
  60.0930012 136.2724997  55.4849988  60.2179721 136.5547084  54.6716843
  64.9850012 132.7114997  53.6209988  65.6970012 132.0714997  53.6069988
  64.8840012 132.9784997  52.7069988  65.0687939 132.6599938  53.4955650
  65.3390012 134.3944997  55.6739988  65.2070012 133.9184997  54.8539988
  64.7400012 135.1384997  55.6189988  65.2399071 134.4299618  55.5542886
  74.8360012 143.8104997  41.2699988  75.6860012 144.2314997  41.3969988
  74.8420012 143.0704997  41.8769988  74.9531372 143.7680803  41.3694344
  75.2310012 141.8634997  43.0939988  74.5040012 141.3844997  43.4909988
  75.8120012 142.0694997  43.8259988  75.2099375 141.8257090  43.2474129
  74.9900012 144.6484997  48.0409988  75.8230012 144.2704997  47.7609988
  75.1020012 145.5914997  47.9219988  75.1192647 144.7242218  47.9865487
  75.4990012 141.7644997  39.4849988  74.9770012 142.1214997  38.7659988
  75.4660012 142.4394997  40.1629988  75.4231634 141.9045413  39.4783145
  73.8480012 139.0044997  38.0359988  73.9440012 139.6714997  37.3549988
  73.7080012 138.1884997  37.5539988  73.8422135 138.9854500  37.8778491
  73.0170012 140.3844997  43.6569988  72.8670012 139.4394997  43.6359988
  72.6640012 140.6654997  44.4999988  72.9486625 140.2930441  43.7682346
  58.0530012 142.4624997  47.6669988  58.2370012 142.3804997  46.7309988
  58.9020012 142.3384997  48.0909988  58.1930139 142.4345003  47.5961455
  73.8740012 142.3544997  53.2949988  74.4570012 141.6204997  53.4869988
  74.4380012 143.1264997  53.3419988  74.0299769 142.3584227  53.3276159
  75.3700012 140.2574997  53.9799988  74.5070012 139.8784997  53.8139988
  75.9750012 139.5184997  53.9059988  75.3335979 140.1058023  53.9472817
  73.0950012 136.4124997  37.1529988  73.7060012 136.0414997  37.7899988
  72.2590012 135.9914997  37.3489988  73.0655032 136.3047554  37.2667035
  72.7280012 137.9674997  42.1189988  73.0080012 137.0604997  42.2429988
  73.4870012 138.4014997  41.7299988  72.8689277 137.9020942  42.0833682
  73.3400012 138.5484997  47.5549988  74.2730012 138.7604997  47.5209988
  73.1050012 138.6504997  48.4769988  73.4358036 138.5912769  47.6749976
  73.3690012 139.2854997  50.3309988  72.5260012 139.5534997  50.6969988
  73.8110012 140.1074997  50.1199988  73.3134158 139.4333291  50.3525491
  57.6500012 137.7334997  53.8079988  58.5700012 137.6114997  54.0439988
  57.2010012 136.9834997  54.1969988  57.7151580 137.6153727  53.8929006
  75.6520012 133.2654997  55.6839988  76.0020012 132.6114997  55.0789988
  75.7990012 134.1024997  55.2449988  75.7198419 133.2891591  55.5417118
  73.3410012 135.2304997  42.1669988  73.5240012 134.7814997  42.9929988
  72.7420012 134.6454997  41.7039988  73.2850202 135.0899975  42.2173275
  58.8710012 136.0454997  46.6989988  59.3170012 135.2534997  47.0009988
  59.3380012 136.7614997  47.1299988  58.9950172 136.0340624  46.7984820
  57.1750012 139.0444997  47.7679988  57.6670012 138.8234997  46.9769988
  57.5380012 139.8854997  48.0489988  57.2913126 139.1278357  47.6977531
  75.1720012 135.3744997  54.0339988  74.2540012 135.6454997  53.9979988
  75.2950012 134.8394997  53.2489988  75.0631066 135.3392892  53.9230487
  75.2080012 135.2974997  38.6949988  75.6200012 134.5764997  38.2199988
  75.8900012 135.9674997  38.7539988  75.3565885 135.2892368  38.6378915
  57.4890012 135.3024997  41.8219988  56.5640012 135.5114997  41.6929988
  57.9430012 135.7864997  41.1329988  57.4237368 135.3965993  41.7111226
  57.4530012 134.0404997  50.1669988  56.7880012 133.7944997  50.8099988
  57.0100012 134.6624997  49.5889988  57.3020956 134.0908632  50.1769352
  74.1720012 133.4644997  51.8529988  73.3600012 133.7894997  51.4649988
  74.4050012 132.7044997  51.3199988  74.0923423 133.4062436  51.7278253
  67.6020012 134.9134997  46.1749988  66.9280012 134.2844997  46.4309988
  68.1660012 134.4294997  45.5719988  67.5859230 134.7618744  46.1285340
  72.7450012 133.0214997  46.2879988  73.3490012 133.5684997  45.7859988
  71.8750012 133.3404997  46.0479988  72.7101241 133.1395806  46.1867654
  74.4720012 134.1594997  44.6209988  75.0840012 133.6454997  44.0949988
  74.8540012 135.0374997  44.6449988  74.6074540 134.2077140  44.5521830
  59.9290012 133.5474997  43.9969988  59.1520012 133.3134997  43.4899988
  60.4590012 132.7504997  44.0059988  59.8942330 133.4076988  43.9287742
  58.7650012 133.3454997  39.8009988  59.2040012 133.9564997  39.2089988
  58.1320012 133.8834997  40.2749988  58.7394514 133.5019257  39.7840930
  64.5080012 133.4744997  43.8109988  65.3830012 133.8624997  43.7809988
  64.3720012 133.2594997  44.7329988  64.6093695 133.4985184  43.9316440
  70.0650012 133.5044997  45.4599988  70.1410012 133.5994997  44.5099988
  69.7900012 132.5964997  45.5889988  70.0382321 133.3947867  45.3475079
  71.4180012 133.5304997  41.1519988  70.7160012 134.1454997  40.9429988
  70.9740012 132.6924997  41.2829988  71.2616330 133.5015783  41.1410328
  60.6260012 135.2614997  38.2429988  61.1180012 134.6314997  37.7159988
  61.2500012 135.5574997  38.9069988  60.7775446 135.2153199  38.2605980
  65.6520012 135.5544997  40.6999988  65.8300012 134.9084997  41.3829988
  65.5990012 136.3884997  41.1679988  65.6691829 135.5787985  40.8565940
  59.8870012 134.0614997  53.5149988  59.5210012 133.2964997  53.9579988
  60.8000012 134.0904997  53.8019988  59.9602790 133.9607224  53.6144070
  61.8600012 133.4124997  55.0509988  62.7580012 133.1384997  54.8659988
  61.4730012 132.6694997  55.5149988  61.9306612 133.2745914  55.0883643
  70.2810012 132.7444997  55.2329988  70.3580012 132.3184997  56.0869988
  71.1750012 132.7584997  54.8899988  70.4123428 132.6880879  55.3035310
  87.8630012 142.7034997  43.9559988  87.9520012 143.6474997  43.8239988
  87.2250012 142.4284997  43.2979988  87.7889081 142.7954830  43.8489614
  86.7960012 141.9584997  47.3749988  86.7580012 141.3124997  48.0799988
  86.4740012 141.4924997  46.6039988  86.7472333 141.8069408  47.3672978
  79.1650012 141.5734997  48.9679988  79.2060012 140.9474997  49.6909988
  79.8680012 142.1974997  49.1499988  79.2656363 141.5721196  49.0916044
  90.5020012 144.8974997  45.6759988  90.0620012 144.1774997  46.1269988
  90.4890012 145.6184997  46.3059988  90.4400226 144.8963731  45.8228494
  76.6980012 139.6834997  42.8959988  76.2510012 140.5294997  42.8769988
  76.1370012 139.1034997  42.3799988  76.5609900 139.7209916  42.8236801
  77.4090012 141.8454997  45.0219988  77.6220012 141.0754997  45.5489988
  78.1470012 141.9344997  44.4179988  77.5378496 141.7521394  45.0125300
  85.1860012 144.3914997  47.7809988  85.4900012 143.7054997  47.1859988
  85.9070012 144.5094997  48.3989988  85.3250671 144.3136305  47.7831816
  93.8490012 135.9924997  48.6419988  93.8980012 136.6024997  49.3779988
  94.2740012 136.4534997  47.9189988  93.9131824 136.1383741  48.6450205
  88.3270012 138.7854997  48.1089988  88.4690012 137.8394997  48.1289988
  88.2200012 138.9924997  47.1799988  88.3319864 138.6839534  47.9862339
  81.4810012 136.8864997  45.3809988  81.5250012 137.7464997  44.9629988
  81.0240012 136.3344997  44.7469988  81.4252185 136.9295799  45.2380299
  89.2040012 137.0174997  43.7819988  89.8500012 136.6884997  44.4069988
  89.7140012 137.5354997  43.1589988  89.3614264 137.0424611  43.7833862
  78.1020012 139.2834997  46.1429988  78.7550012 138.7334997  46.5749988
  78.1260012 139.0094997  45.2259988  78.1946683 139.1711466  46.0782123
  83.2580012 140.8334997  45.3579988  83.8740012 140.3074997  45.8679988
  82.6720012 140.1934997  44.9549988  83.2630810 140.6749208  45.3733173
  94.2400012 137.4704997  50.8779988  93.5520012 138.1284997  50.7819988
  94.2560012 137.2734997  51.8139988  94.1478525 137.5340462  50.9914808
  80.2920012 135.8044997  49.4549988  80.0730012 136.3344997  48.6889988
  79.6240012 136.0314997  50.1019988  80.1717600 135.9076906  49.4376379
  82.8610012 143.4804997  49.7419988  82.1210012 144.0784997  49.8459988
  83.5750012 144.0344997  49.4269988  82.8562237 143.6372831  49.7136465
  90.9680012 136.3084997  45.7619988  90.7520012 135.5424997  46.2949988
  91.6230012 136.7804997  46.2749988  91.0270632 136.2675889  45.9042861
  79.8850012 137.6964997  47.4069988  80.4990012 138.3294997  47.7809988
  80.3970012 137.2244997  46.7509988  80.0382296 137.7192370  47.3694252
  91.3150012 135.0234997  49.4419988  90.5790012 135.6344997  49.4039988
  91.9980012 135.4384997  48.9149988  91.3066541 135.1631374  49.3655832
  84.3180012 133.1104997  46.9079988  84.2010012 132.1614997  46.8529988
  83.4630012 133.4424997  47.1809988  84.1863733 133.0255409  46.9373897
  92.1120012 144.9854997  51.6359988  92.2520012 144.3944997  50.8959988
  92.2790012 145.8584997  51.2789988  92.1536778 145.0226426  51.4866965
  86.5850012 141.9474997  41.4079988  85.8730012 142.4824997  41.0559988
  87.2760012 142.0034997  40.7479988  86.5810132 142.0282543  41.2706289
  86.6380012 140.4054997  38.4469988  87.3390012 140.4274997  39.0979988
  86.9410012 139.7774997  37.7909988  86.7747830 140.3236566  38.4473711
  93.9540012 141.3254997  49.7019988  93.3010012 142.0204997  49.7909988
  94.4190012 141.5354997  48.8919988  93.9275390 141.4489425  49.6046883
  89.9900012 142.1574997  42.3599988  89.2580012 142.3854997  42.9329988
  90.4380012 141.4434997  42.8149988  89.9503095 142.0922571  42.4999119
  89.8880012 140.3314997  51.4269988  89.9680012 141.0944997  51.9989988
  89.2860012 140.6104997  50.7369988  89.8175756 140.4737134  51.4120589
  81.6360012 142.7874997  44.2419988  81.3050012 142.4174997  43.4239988
  82.2240012 142.1174997  44.5889988  81.6701873 142.6461156  44.1768102
  82.0020012 141.5564997  47.8759988  82.5680012 141.6774997  47.1129988
  82.3210012 142.1934997  48.5149988  82.1225786 141.6591884  47.8580040
  88.8610012 141.3194997  40.0449988  89.4410012 141.4694997  40.7919988
  89.2750012 141.7904997  39.3219988  88.9962830 141.4036841  40.0494134
  79.8020012 142.1534997  51.8219988  79.8730012 142.8044997  52.5199988
  78.9120012 142.2564997  51.4869988  79.6913117 142.2565936  51.8722700
  92.5600012 133.0694997  39.8579988  91.6600012 133.2084997  40.1529988
  92.8120012 133.9004997  39.4559988  92.4708702 133.2009074  39.8440205
  80.6260012 141.8574997  41.8319988  80.3340012 142.6254997  41.3409988
  79.9520012 141.1974997  41.6689988  80.4949081 141.8734406  41.7427340
  76.7190012 144.2204997  50.6469988  76.2180012 144.1924997  49.8319988
  76.7240012 143.3144997  50.9559988  76.6511526 144.0942278  50.5772872
  91.8190012 139.1594997  53.6929988  91.4120012 139.6404997  52.9719988
  91.8600012 138.2544997  53.3849988  91.7688437 139.1029374  53.5526683
  81.5870012 134.0134997  47.6849988  80.7250012 133.9264997  47.2779988
  81.5640012 134.8694997  48.1129988  81.4660330 134.1172765  47.6871863
  86.2500012 133.7354997  51.0599988  86.6700012 133.3204997  51.8129988
  85.3170012 133.5574997  51.1769988  86.1813644 133.6545900  51.1789539
  89.5760012 137.4914997  51.9129988  89.0620012 137.3654997  52.7109988
  89.4210012 138.4034997  51.6689988  89.4846852 137.5976132  51.9892158
  90.3390012 142.3524997  37.6749988  90.3810012 142.1294997  36.7449988
  91.1880012 142.7514997  37.8649988  90.4595396 142.3759155  37.5733627
  85.9110012 136.2284997  38.3449988  85.6580012 136.2474997  39.2679988
  85.6550012 135.3564997  38.0439988  85.8417790 136.1132437  38.4306263
  81.6780012 138.9794997  48.7799988  81.0360012 138.9384997  49.4889988
  81.7150012 139.9054997  48.5429988  81.5951324 139.0991559  48.8449824
  81.6750012 139.2004997  43.6919988  80.7820012 138.8594997  43.6339988
  82.1250012 138.8234997  42.9369988  81.6137305 139.1028484  43.5819177
  87.2100012 139.6164997  42.5089988  86.8010012 140.4314997  42.2179988
  87.9310012 139.4764997  41.8949988  87.2514537 139.7092018  42.3861342
  86.3120012 139.7914997  53.9969988  85.7500012 139.0874997  54.3179988
  87.1390012 139.6714997  54.4649988  86.3467095 139.6787883  54.1042330
  88.2150012 139.0624997  45.3229988  88.0200012 139.6674997  44.6079988
  88.3960012 138.2284997  44.8889988  88.2127614 139.0326300  45.1664405
  79.4280012 139.2994997  50.6469988  79.3900012 139.6994997  51.5159988
  78.9370012 138.4824997  50.7379988  79.3564684 139.2438069  50.7781059
  82.7940012 136.6734997  37.4459988  82.3630012 136.2284997  38.1759988
  82.0760012 137.0454997  36.9339988  82.6379438 136.6628940  37.4766799
  76.0360012 136.4154997  44.4979988  76.6670012 136.3864997  45.2169988
  76.4850012 135.9904997  43.7679988  76.1830774 136.3540492  44.4976553
  77.3100012 137.1614997  39.9219988  77.7840012 137.7524997  39.3369988
  76.5930012 137.6924997  40.2689988  77.2779341 137.3140867  39.8888836
  87.4790012 140.7004997  49.9949988  87.8020012 140.0694997  49.3519988
  87.0390012 140.1654997  50.6549988  87.4636895 140.5418441  49.9962850
  84.2560012 136.6274997  44.7789988  83.3450012 136.6844997  45.0669988
  84.7620012 136.5674997  45.5889988  84.1995413 136.6271985  44.9280622
  79.0850012 138.2564997  43.6049988  78.1950012 138.3564997  43.2649988
  79.3810012 137.4144997  43.2589988  79.0032823 138.1563545  43.5117213
  82.7380012 138.2564997  41.2619988  83.6690012 138.3854997  41.4399988
  82.5230012 138.9264997  40.6119988  82.8364247 138.3646565  41.1985747
  88.6610012 135.8624997  48.0429988  87.9850012 135.9934997  48.7069988
  88.1760012 135.7074997  47.2329988  88.5027145 135.8594905  48.0244517
  81.4120012 139.4514997  38.8289988  80.8690012 139.0714997  38.1369988
  82.2450012 139.6454997  38.3999988  81.4504399 139.4258124  38.6764526
  79.5470012 144.0084997  53.9279988  80.2790012 144.2624997  54.4889988
  78.7670012 144.2124997  54.4429988  79.5418232 144.0709177  54.0745760
  85.5760012 139.4154997  46.6659988  86.1410012 138.8684997  46.1189988
  85.4290012 138.8934997  47.4539988  85.6332918 139.2702024  46.6978454
  80.5780012 135.5514997  43.0839988  80.2610012 134.6494997  43.0489988
  81.3600012 135.5534997  42.5309988  80.6402284 135.4281628  43.0044783
  84.2030012 137.8034997  49.0799988  83.3670012 138.2574997  49.1899988
  84.7270012 138.0794997  49.8319988  84.1594414 137.9029376  49.1967136
  84.7470012 144.0164997  40.7639988  84.0020012 143.5094997  40.4419988
  84.6130012 144.0654997  41.7109988  84.6268776 143.9536940  40.8478647
  91.8970012 143.1494997  49.5509988  92.5390012 143.6064997  49.0069988
  91.0670012 143.2624997  49.0879988  91.8725963 143.2272704  49.4140177
  88.6450012 136.8304997  38.9639988  87.7060012 136.9424997  38.8119988
  88.9420012 137.6874997  39.2699988  88.5567666 136.9616443  38.9845768
  86.2660012 144.2004997  52.0009988  85.9210012 143.8194997  52.8079988
  86.0660012 145.1344997  52.0729988  86.1918061 144.2745228  52.1210961
  89.3630012 138.6974997  40.6239988  90.2550012 138.5604997  40.9429988
  89.4200012 139.4884997  40.0879988  89.4926285 138.7856660  40.5951691
  79.8720012 143.3114997  46.5339988  80.6170012 143.3094997  45.9329988
  79.9500012 142.4884997  47.0159988  79.9845518 143.1999315  46.5168929
  76.8800012 141.7724997  51.8489988  77.1030012 141.3544997  52.6809988
  76.2780012 141.1594997  51.4259988  76.8291759 141.6324668  51.9057022
  83.8960012 141.2894997  54.0619988  83.6000012 141.1234997  53.1669988
  84.8280012 141.0694997  54.0509988  83.9814166 141.2370640  53.9380536
  94.2480012 138.9074997  40.3189988  93.6940012 138.5114997  39.6469988
  94.3480012 139.8174997  40.0409988  94.1857059 138.9763586  40.1894401
  94.2110012 144.7074997  53.1559988  93.3600012 144.9454997  52.7889988
  94.8020012 144.6904997  52.4029988  94.1742487 144.7378258  53.0038893
  89.7040012 142.5014997  47.8049988  88.7750012 142.2694997  47.7779988
  90.1550012 141.7244997  47.4749988  89.6379216 142.3647238  47.7566917
  78.0020012 141.6914997  38.5249988  78.6180012 142.3184997  38.9049988
  77.1400012 142.0074997  38.7969988  77.9697698 141.8199430  38.6137183
  83.6740012 144.4924997  43.5149988  83.4330012 145.4174997  43.5559988
  82.9330012 144.0334997  43.9109988  83.5408409 144.5571421  43.5741377
  87.7330012 144.7404997  49.5299988  87.3070012 144.5134997  50.3569988
  88.3130012 144.0024997  49.3479988  87.7531868 144.6095299  49.6185830
  78.5140012 136.5254997  51.4069988  77.6210012 136.8644997  51.3389988
  78.4150012 135.6704997  51.8249988  78.3784164 136.4562588  51.4542235
  90.8020012 144.3424997  40.8309988  90.5240012 143.6144997  41.3869988
  91.7290012 144.4614997  41.0359988  90.8893124 144.2588802  40.9348845
  79.4170012 143.6044997  40.0179988  78.7310012 143.9564997  40.5849988
  79.9390012 144.3674997  39.7709988  79.3936852 143.7558578  40.0622118
  87.2480012 136.2664997  50.2969988  87.9470012 136.3404997  50.9469988
  86.8670012 135.4024997  50.4509988  87.2921767 136.1597624  50.4068322
  88.0330012 135.9184997  41.3939988  88.2530012 136.3904997  40.5909988
  88.5910012 136.3134997  42.0639988  88.1384968 136.0364285  41.3747331
  85.2330012 137.6464997  42.2289988  86.0450012 138.1514997  42.2749988
  84.9880012 137.5014997  43.1429988  85.3110520 137.6960375  42.3588517
  85.7680012 138.6324997  51.4139988  85.8870012 139.2064997  52.1709988
  86.4240012 137.9444997  51.5279988  85.8729757 138.6181079  51.5330825
  86.1160012 134.7274997  43.1669988  85.7700012 135.3454997  43.8119988
  86.7750012 135.2284997  42.6859988  86.1577826 134.8795802  43.1900971
  81.7740012 135.7904997  39.8539988  81.6910012 136.6794997  40.2009988
  82.6640012 135.5254997  40.0859988  81.8829469 135.8761430  39.9327626
  91.9730012 136.5394997  52.2489988  91.0560012 136.8024997  52.1609988
  92.3080012 136.5364997  51.3519988  91.8929900 136.5750224  52.1157919
  90.5750012 140.2904997  46.3439988  89.7770012 139.8754997  46.0159988
  91.0200012 139.5994997  46.8349988  90.5259885 140.1403543  46.3654889
  78.3490012 138.8824997  38.0309988  78.3040012 139.8214997  38.2089988
  77.4610012 138.6464997  37.7609988  78.2228574 138.9791892  38.0188912
  79.1570012 133.6644997  46.7039988  78.9280012 133.7234997  45.7759988
  78.7140012 132.8724997  47.0099988  79.0658530 133.5655753  46.6184786
  77.2820012 144.0274997  55.1489988  77.4260012 143.1254997  54.8619988
  76.5100012 144.3134997  54.6609988  77.1973323 143.9428261  55.0437881
  81.6240012 144.3714997  37.2809988  81.6880012 143.5774997  37.8119988
  82.2770012 144.2524997  36.5909988  81.7210241 144.2467148  37.2604317
  83.9380012 143.9974997  54.5809988  83.6090012 144.2684997  53.7239988
  84.0900012 143.0564997  54.4939988  83.9134809 143.9073862  54.4518244
  89.6720012 143.9134997  51.9649988  90.4180012 144.5014997  51.8449988
  88.9150012 144.4954997  52.0279988  89.6717554 144.0727011  51.9570907
  78.1150012 141.2274997  54.5689988  78.5230012 140.3704997  54.4479988
  77.8550012 141.2424997  55.4899988  78.1357568 141.1120807  54.6769588
  82.7730012 142.3434997  39.5869988  82.3130012 141.8594997  40.2729988
  83.0280012 141.6754997  38.9509988  82.7444902 142.1868731  39.5949334
  82.0620012 140.2364997  51.9429988  81.4440012 140.9114997  52.2229988
  82.4060012 140.5574997  51.1099988  82.0239615 140.3722721  51.8686581
  83.8440012 140.5864997  37.8489988  83.6640012 140.4324997  36.9219988
  84.7940012 140.6944997  37.8939988  83.9477776 140.5800175  37.7281843
  87.0820012 142.7084997  55.2199988  88.0350012 142.7914997  55.1929988
  86.9210012 141.9964997  55.8399988  87.1906426 142.6236746  55.3000579
  93.2340012 142.9414997  37.2949988  92.9600012 142.5164997  36.4819988
  93.2730012 143.8724997  37.0779988  93.2017699 143.0092484  37.1543610
  82.4010012 137.5914997  53.0249988  82.5510012 136.8624997  52.4229988
  82.4040012 138.3684997  52.4659988  82.4219302 137.5967851  52.8670692
  82.8140012 135.9614997  50.5179988  83.3500012 136.4124997  49.8659988
  81.9620012 135.8534997  50.0949988  82.7722178 136.0086390  50.3715756
  84.3960012 141.4004997  50.7569988  85.1460012 141.2444997  50.1839988
  84.0570012 142.2524997  50.4819988  84.4528921 141.4942968  50.6413561
  88.8110012 139.2154997  55.7859988  89.0040012 138.2844997  55.6739988
  89.6690012 139.6404997  55.7759988  88.9533020 139.1456389  55.7693361
  90.1280012 142.0044997  53.8629988  89.8470012 142.7134997  53.2859988
  91.0710012 141.9314997  53.7119988  90.2169027 142.0917646  53.7635551
  80.8800012 138.7894997  54.9369988  80.1130012 138.2574997  54.7269988
  81.5590012 138.4794997  54.3369988  80.8667022 138.6747506  54.8271648
  83.6200012 133.4174997  50.9489988  83.5210012 134.3644997  50.8439988
  82.8770012 133.0454997  50.4739988  83.5060564 133.4965902  50.8704560
  84.8840012 137.7394997  54.5129988  84.6480012 137.5194997  55.4149988
  84.1000012 137.5324997  54.0029988  84.7458628 137.6814760  54.5673932
  87.5990012 136.8664997  53.5889988  86.6520012 136.8984997  53.7209988
  87.9120012 136.2414997  54.2419988  87.5115475 136.7863207  53.6954455
  89.2330012 135.5004997  55.5939988  89.1370012 134.5484997  55.5879988
  88.9120012 135.7694997  56.4539988  89.1764070 135.4064035  55.7095441
  79.0600012 136.7104997  54.6409988  79.2720012 136.0034997  54.0309988
  78.9490012 136.2724997  55.4849988  79.0739721 136.5547084  54.6716843
  83.8410012 132.7114997  53.6209988  84.5530012 132.0714997  53.6069988
  83.7400012 132.9784997  52.7069988  83.9247939 132.6599938  53.4955650
  84.1950012 134.3944997  55.6739988  84.0630012 133.9184997  54.8539988
  83.5960012 135.1384997  55.6189988  84.0959071 134.4299618  55.5542886
  93.6920012 143.8104997  41.2699988  94.5420012 144.2314997  41.3969988
  93.6980012 143.0704997  41.8769988  93.8091372 143.7680803  41.3694344
  94.0870012 141.8634997  43.0939988  93.3600012 141.3844997  43.4909988
  94.6680012 142.0694997  43.8259988  94.0659375 141.8257090  43.2474129
  93.8460012 144.6484997  48.0409988  94.6790012 144.2704997  47.7609988
  93.9580012 145.5914997  47.9219988  93.9752647 144.7242218  47.9865487
  94.3550012 141.7644997  39.4849988  93.8330012 142.1214997  38.7659988
  94.3220012 142.4394997  40.1629988  94.2791634 141.9045413  39.4783145
  92.7040012 139.0044997  38.0359988  92.8000012 139.6714997  37.3549988
  92.5640012 138.1884997  37.5539988  92.6982135 138.9854500  37.8778491
  91.8730012 140.3844997  43.6569988  91.7230012 139.4394997  43.6359988
  91.5200012 140.6654997  44.4999988  91.8046625 140.2930441  43.7682346
  76.9090012 142.4624997  47.6669988  77.0930012 142.3804997  46.7309988
  77.7580012 142.3384997  48.0909988  77.0490139 142.4345003  47.5961455
  92.7300012 142.3544997  53.2949988  93.3130012 141.6204997  53.4869988
  93.2940012 143.1264997  53.3419988  92.8859769 142.3584227  53.3276159
  94.2260012 140.2574997  53.9799988  93.3630012 139.8784997  53.8139988
  94.8310012 139.5184997  53.9059988  94.1895979 140.1058023  53.9472817
  91.9510012 136.4124997  37.1529988  92.5620012 136.0414997  37.7899988
  91.1150012 135.9914997  37.3489988  91.9215032 136.3047554  37.2667035
  91.5840012 137.9674997  42.1189988  91.8640012 137.0604997  42.2429988
  92.3430012 138.4014997  41.7299988  91.7249277 137.9020942  42.0833682
  92.1960012 138.5484997  47.5549988  93.1290012 138.7604997  47.5209988
  91.9610012 138.6504997  48.4769988  92.2918036 138.5912769  47.6749976
  92.2250012 139.2854997  50.3309988  91.3820012 139.5534997  50.6969988
  92.6670012 140.1074997  50.1199988  92.1694158 139.4333291  50.3525491
  76.5060012 137.7334997  53.8079988  77.4260012 137.6114997  54.0439988
  76.0570012 136.9834997  54.1969988  76.5711580 137.6153727  53.8929006
  94.5080012 133.2654997  55.6839988  94.8580012 132.6114997  55.0789988
  94.6550012 134.1024997  55.2449988  94.5758419 133.2891591  55.5417118
  92.1970012 135.2304997  42.1669988  92.3800012 134.7814997  42.9929988
  91.5980012 134.6454997  41.7039988  92.1410202 135.0899975  42.2173275
  77.7270012 136.0454997  46.6989988  78.1730012 135.2534997  47.0009988
  78.1940012 136.7614997  47.1299988  77.8510172 136.0340624  46.7984820
  76.0310012 139.0444997  47.7679988  76.5230012 138.8234997  46.9769988
  76.3940012 139.8854997  48.0489988  76.1473126 139.1278357  47.6977531
  94.0280012 135.3744997  54.0339988  93.1100012 135.6454997  53.9979988
  94.1510012 134.8394997  53.2489988  93.9191066 135.3392892  53.9230487
  94.0640012 135.2974997  38.6949988  94.4760012 134.5764997  38.2199988
  94.7460012 135.9674997  38.7539988  94.2125885 135.2892368  38.6378915
  76.3450012 135.3024997  41.8219988  75.4200012 135.5114997  41.6929988
  76.7990012 135.7864997  41.1329988  76.2797368 135.3965993  41.7111226
  76.3090012 134.0404997  50.1669988  75.6440012 133.7944997  50.8099988
  75.8660012 134.6624997  49.5889988  76.1580956 134.0908632  50.1769352
  93.0280012 133.4644997  51.8529988  92.2160012 133.7894997  51.4649988
  93.2610012 132.7044997  51.3199988  92.9483423 133.4062436  51.7278253
  86.4580012 134.9134997  46.1749988  85.7840012 134.2844997  46.4309988
  87.0220012 134.4294997  45.5719988  86.4419230 134.7618744  46.1285340
  91.6010012 133.0214997  46.2879988  92.2050012 133.5684997  45.7859988
  90.7310012 133.3404997  46.0479988  91.5661241 133.1395806  46.1867654
  93.3280012 134.1594997  44.6209988  93.9400012 133.6454997  44.0949988
  93.7100012 135.0374997  44.6449988  93.4634540 134.2077140  44.5521830
  78.7850012 133.5474997  43.9969988  78.0080012 133.3134997  43.4899988
  79.3150012 132.7504997  44.0059988  78.7502330 133.4076988  43.9287742
  77.6210012 133.3454997  39.8009988  78.0600012 133.9564997  39.2089988
  76.9880012 133.8834997  40.2749988  77.5954514 133.5019257  39.7840930
  83.3640012 133.4744997  43.8109988  84.2390012 133.8624997  43.7809988
  83.2280012 133.2594997  44.7329988  83.4653695 133.4985184  43.9316440
  88.9210012 133.5044997  45.4599988  88.9970012 133.5994997  44.5099988
  88.6460012 132.5964997  45.5889988  88.8942321 133.3947867  45.3475079
  90.2740012 133.5304997  41.1519988  89.5720012 134.1454997  40.9429988
  89.8300012 132.6924997  41.2829988  90.1176330 133.5015783  41.1410328
  79.4820012 135.2614997  38.2429988  79.9740012 134.6314997  37.7159988
  80.1060012 135.5574997  38.9069988  79.6335446 135.2153199  38.2605980
  84.5080012 135.5544997  40.6999988  84.6860012 134.9084997  41.3829988
  84.4550012 136.3884997  41.1679988  84.5251829 135.5787985  40.8565940
  78.7430012 134.0614997  53.5149988  78.3770012 133.2964997  53.9579988
  79.6560012 134.0904997  53.8019988  78.8162790 133.9607224  53.6144070
  80.7160012 133.4124997  55.0509988  81.6140012 133.1384997  54.8659988
  80.3290012 132.6694997  55.5149988  80.7866612 133.2745914  55.0883643
  89.1370012 132.7444997  55.2329988  89.2140012 132.3184997  56.0869988
  90.0310012 132.7584997  54.8899988  89.2683428 132.6880879  55.3035310
 106.7190012 142.7034997  43.9559988 106.8080012 143.6474997  43.8239988
 106.0810012 142.4284997  43.2979988 106.6449081 142.7954830  43.8489614
 105.6520012 141.9584997  47.3749988 105.6140012 141.3124997  48.0799988
 105.3300012 141.4924997  46.6039988 105.6032333 141.8069408  47.3672978
  98.0210012 141.5734997  48.9679988  98.0620012 140.9474997  49.6909988
  98.7240012 142.1974997  49.1499988  98.1216363 141.5721196  49.0916044
 109.3580012 144.8974997  45.6759988 108.9180012 144.1774997  46.1269988
 109.3450012 145.6184997  46.3059988 109.2960226 144.8963731  45.8228494
  95.5540012 139.6834997  42.8959988  95.1070012 140.5294997  42.8769988
  94.9930012 139.1034997  42.3799988  95.4169900 139.7209916  42.8236801
  96.2650012 141.8454997  45.0219988  96.4780012 141.0754997  45.5489988
  97.0030012 141.9344997  44.4179988  96.3938496 141.7521394  45.0125300
 104.0420012 144.3914997  47.7809988 104.3460012 143.7054997  47.1859988
 104.7630012 144.5094997  48.3989988 104.1810671 144.3136305  47.7831816
 112.7050012 135.9924997  48.6419988 112.7540012 136.6024997  49.3779988
 113.1300012 136.4534997  47.9189988 112.7691824 136.1383741  48.6450205
 107.1830012 138.7854997  48.1089988 107.3250012 137.8394997  48.1289988
 107.0760012 138.9924997  47.1799988 107.1879864 138.6839534  47.9862339
 100.3370012 136.8864997  45.3809988 100.3810012 137.7464997  44.9629988
  99.8800012 136.3344997  44.7469988 100.2812185 136.9295799  45.2380299
 108.0600012 137.0174997  43.7819988 108.7060012 136.6884997  44.4069988
 108.5700012 137.5354997  43.1589988 108.2174264 137.0424611  43.7833862
  96.9580012 139.2834997  46.1429988  97.6110012 138.7334997  46.5749988
  96.9820012 139.0094997  45.2259988  97.0506683 139.1711466  46.0782123
 102.1140012 140.8334997  45.3579988 102.7300012 140.3074997  45.8679988
 101.5280012 140.1934997  44.9549988 102.1190810 140.6749208  45.3733173
 113.0960012 137.4704997  50.8779988 112.4080012 138.1284997  50.7819988
 113.1120012 137.2734997  51.8139988 113.0038525 137.5340462  50.9914808
  99.1480012 135.8044997  49.4549988  98.9290012 136.3344997  48.6889988
  98.4800012 136.0314997  50.1019988  99.0277600 135.9076906  49.4376379
 101.7170012 143.4804997  49.7419988 100.9770012 144.0784997  49.8459988
 102.4310012 144.0344997  49.4269988 101.7122237 143.6372831  49.7136465
 109.8240012 136.3084997  45.7619988 109.6080012 135.5424997  46.2949988
 110.4790012 136.7804997  46.2749988 109.8830632 136.2675889  45.9042861
  98.7410012 137.6964997  47.4069988  99.3550012 138.3294997  47.7809988
  99.2530012 137.2244997  46.7509988  98.8942296 137.7192370  47.3694252
 110.1710012 135.0234997  49.4419988 109.4350012 135.6344997  49.4039988
 110.8540012 135.4384997  48.9149988 110.1626541 135.1631374  49.3655832
 103.1740012 133.1104997  46.9079988 103.0570012 132.1614997  46.8529988
 102.3190012 133.4424997  47.1809988 103.0423733 133.0255409  46.9373897
 110.9680012 144.9854997  51.6359988 111.1080012 144.3944997  50.8959988
 111.1350012 145.8584997  51.2789988 111.0096778 145.0226426  51.4866965
 105.4410012 141.9474997  41.4079988 104.7290012 142.4824997  41.0559988
 106.1320012 142.0034997  40.7479988 105.4370132 142.0282543  41.2706289
 105.4940012 140.4054997  38.4469988 106.1950012 140.4274997  39.0979988
 105.7970012 139.7774997  37.7909988 105.6307830 140.3236566  38.4473711
 112.8100012 141.3254997  49.7019988 112.1570012 142.0204997  49.7909988
 113.2750012 141.5354997  48.8919988 112.7835390 141.4489425  49.6046883
 108.8460012 142.1574997  42.3599988 108.1140012 142.3854997  42.9329988
 109.2940012 141.4434997  42.8149988 108.8063095 142.0922571  42.4999119
 108.7440012 140.3314997  51.4269988 108.8240012 141.0944997  51.9989988
 108.1420012 140.6104997  50.7369988 108.6735756 140.4737134  51.4120589
 100.4920012 142.7874997  44.2419988 100.1610012 142.4174997  43.4239988
 101.0800012 142.1174997  44.5889988 100.5261873 142.6461156  44.1768102
 100.8580012 141.5564997  47.8759988 101.4240012 141.6774997  47.1129988
 101.1770012 142.1934997  48.5149988 100.9785786 141.6591884  47.8580040
 107.7170012 141.3194997  40.0449988 108.2970012 141.4694997  40.7919988
 108.1310012 141.7904997  39.3219988 107.8522830 141.4036841  40.0494134
  98.6580012 142.1534997  51.8219988  98.7290012 142.8044997  52.5199988
  97.7680012 142.2564997  51.4869988  98.5473117 142.2565936  51.8722700
 111.4160012 133.0694997  39.8579988 110.5160012 133.2084997  40.1529988
 111.6680012 133.9004997  39.4559988 111.3268702 133.2009074  39.8440205
  99.4820012 141.8574997  41.8319988  99.1900012 142.6254997  41.3409988
  98.8080012 141.1974997  41.6689988  99.3509081 141.8734406  41.7427340
  95.5750012 144.2204997  50.6469988  95.0740012 144.1924997  49.8319988
  95.5800012 143.3144997  50.9559988  95.5071526 144.0942278  50.5772872
 110.6750012 139.1594997  53.6929988 110.2680012 139.6404997  52.9719988
 110.7160012 138.2544997  53.3849988 110.6248437 139.1029374  53.5526683
 100.4430012 134.0134997  47.6849988  99.5810012 133.9264997  47.2779988
 100.4200012 134.8694997  48.1129988 100.3220330 134.1172765  47.6871863
 105.1060012 133.7354997  51.0599988 105.5260012 133.3204997  51.8129988
 104.1730012 133.5574997  51.1769988 105.0373644 133.6545900  51.1789539
 108.4320012 137.4914997  51.9129988 107.9180012 137.3654997  52.7109988
 108.2770012 138.4034997  51.6689988 108.3406852 137.5976132  51.9892158
 109.1950012 142.3524997  37.6749988 109.2370012 142.1294997  36.7449988
 110.0440012 142.7514997  37.8649988 109.3155396 142.3759155  37.5733627
 104.7670012 136.2284997  38.3449988 104.5140012 136.2474997  39.2679988
 104.5110012 135.3564997  38.0439988 104.6977790 136.1132437  38.4306263
 100.5340012 138.9794997  48.7799988  99.8920012 138.9384997  49.4889988
 100.5710012 139.9054997  48.5429988 100.4511324 139.0991559  48.8449824
 100.5310012 139.2004997  43.6919988  99.6380012 138.8594997  43.6339988
 100.9810012 138.8234997  42.9369988 100.4697305 139.1028484  43.5819177
 106.0660012 139.6164997  42.5089988 105.6570012 140.4314997  42.2179988
 106.7870012 139.4764997  41.8949988 106.1074537 139.7092018  42.3861342
 105.1680012 139.7914997  53.9969988 104.6060012 139.0874997  54.3179988
 105.9950012 139.6714997  54.4649988 105.2027095 139.6787883  54.1042330
 107.0710012 139.0624997  45.3229988 106.8760012 139.6674997  44.6079988
 107.2520012 138.2284997  44.8889988 107.0687614 139.0326300  45.1664405
  98.2840012 139.2994997  50.6469988  98.2460012 139.6994997  51.5159988
  97.7930012 138.4824997  50.7379988  98.2124684 139.2438069  50.7781059
 101.6500012 136.6734997  37.4459988 101.2190012 136.2284997  38.1759988
 100.9320012 137.0454997  36.9339988 101.4939438 136.6628940  37.4766799
  94.8920012 136.4154997  44.4979988  95.5230012 136.3864997  45.2169988
  95.3410012 135.9904997  43.7679988  95.0390774 136.3540492  44.4976553
  96.1660012 137.1614997  39.9219988  96.6400012 137.7524997  39.3369988
  95.4490012 137.6924997  40.2689988  96.1339341 137.3140867  39.8888836
 106.3350012 140.7004997  49.9949988 106.6580012 140.0694997  49.3519988
 105.8950012 140.1654997  50.6549988 106.3196895 140.5418441  49.9962850
 103.1120012 136.6274997  44.7789988 102.2010012 136.6844997  45.0669988
 103.6180012 136.5674997  45.5889988 103.0555413 136.6271985  44.9280622
  97.9410012 138.2564997  43.6049988  97.0510012 138.3564997  43.2649988
  98.2370012 137.4144997  43.2589988  97.8592823 138.1563545  43.5117213
 101.5940012 138.2564997  41.2619988 102.5250012 138.3854997  41.4399988
 101.3790012 138.9264997  40.6119988 101.6924247 138.3646565  41.1985747
 107.5170012 135.8624997  48.0429988 106.8410012 135.9934997  48.7069988
 107.0320012 135.7074997  47.2329988 107.3587145 135.8594905  48.0244517
 100.2680012 139.4514997  38.8289988  99.7250012 139.0714997  38.1369988
 101.1010012 139.6454997  38.3999988 100.3064399 139.4258124  38.6764526
  98.4030012 144.0084997  53.9279988  99.1350012 144.2624997  54.4889988
  97.6230012 144.2124997  54.4429988  98.3978232 144.0709177  54.0745760
 104.4320012 139.4154997  46.6659988 104.9970012 138.8684997  46.1189988
 104.2850012 138.8934997  47.4539988 104.4892918 139.2702024  46.6978454
  99.4340012 135.5514997  43.0839988  99.1170012 134.6494997  43.0489988
 100.2160012 135.5534997  42.5309988  99.4962284 135.4281628  43.0044783
 103.0590012 137.8034997  49.0799988 102.2230012 138.2574997  49.1899988
 103.5830012 138.0794997  49.8319988 103.0154414 137.9029376  49.1967136
 103.6030012 144.0164997  40.7639988 102.8580012 143.5094997  40.4419988
 103.4690012 144.0654997  41.7109988 103.4828776 143.9536940  40.8478647
 110.7530012 143.1494997  49.5509988 111.3950012 143.6064997  49.0069988
 109.9230012 143.2624997  49.0879988 110.7285963 143.2272704  49.4140177
 107.5010012 136.8304997  38.9639988 106.5620012 136.9424997  38.8119988
 107.7980012 137.6874997  39.2699988 107.4127666 136.9616443  38.9845768
 105.1220012 144.2004997  52.0009988 104.7770012 143.8194997  52.8079988
 104.9220012 145.1344997  52.0729988 105.0478061 144.2745228  52.1210961
 108.2190012 138.6974997  40.6239988 109.1110012 138.5604997  40.9429988
 108.2760012 139.4884997  40.0879988 108.3486285 138.7856660  40.5951691
  98.7280012 143.3114997  46.5339988  99.4730012 143.3094997  45.9329988
  98.8060012 142.4884997  47.0159988  98.8405518 143.1999315  46.5168929
  95.7360012 141.7724997  51.8489988  95.9590012 141.3544997  52.6809988
  95.1340012 141.1594997  51.4259988  95.6851759 141.6324668  51.9057022
 102.7520012 141.2894997  54.0619988 102.4560012 141.1234997  53.1669988
 103.6840012 141.0694997  54.0509988 102.8374166 141.2370640  53.9380536
 113.1040012 138.9074997  40.3189988 112.5500012 138.5114997  39.6469988
 113.2040012 139.8174997  40.0409988 113.0417059 138.9763586  40.1894401
 113.0670012 144.7074997  53.1559988 112.2160012 144.9454997  52.7889988
 113.6580012 144.6904997  52.4029988 113.0302487 144.7378258  53.0038893
 108.5600012 142.5014997  47.8049988 107.6310012 142.2694997  47.7779988
 109.0110012 141.7244997  47.4749988 108.4939216 142.3647238  47.7566917
  96.8580012 141.6914997  38.5249988  97.4740012 142.3184997  38.9049988
  95.9960012 142.0074997  38.7969988  96.8257698 141.8199430  38.6137183
 102.5300012 144.4924997  43.5149988 102.2890012 145.4174997  43.5559988
 101.7890012 144.0334997  43.9109988 102.3968409 144.5571421  43.5741377
 106.5890012 144.7404997  49.5299988 106.1630012 144.5134997  50.3569988
 107.1690012 144.0024997  49.3479988 106.6091868 144.6095299  49.6185830
  97.3700012 136.5254997  51.4069988  96.4770012 136.8644997  51.3389988
  97.2710012 135.6704997  51.8249988  97.2344164 136.4562588  51.4542235
 109.6580012 144.3424997  40.8309988 109.3800012 143.6144997  41.3869988
 110.5850012 144.4614997  41.0359988 109.7453124 144.2588802  40.9348845
  98.2730012 143.6044997  40.0179988  97.5870012 143.9564997  40.5849988
  98.7950012 144.3674997  39.7709988  98.2496852 143.7558578  40.0622118
 106.1040012 136.2664997  50.2969988 106.8030012 136.3404997  50.9469988
 105.7230012 135.4024997  50.4509988 106.1481767 136.1597624  50.4068322
 106.8890012 135.9184997  41.3939988 107.1090012 136.3904997  40.5909988
 107.4470012 136.3134997  42.0639988 106.9944968 136.0364285  41.3747331
 104.0890012 137.6464997  42.2289988 104.9010012 138.1514997  42.2749988
 103.8440012 137.5014997  43.1429988 104.1670520 137.6960375  42.3588517
 104.6240012 138.6324997  51.4139988 104.7430012 139.2064997  52.1709988
 105.2800012 137.9444997  51.5279988 104.7289757 138.6181079  51.5330825
 104.9720012 134.7274997  43.1669988 104.6260012 135.3454997  43.8119988
 105.6310012 135.2284997  42.6859988 105.0137826 134.8795802  43.1900971
 100.6300012 135.7904997  39.8539988 100.5470012 136.6794997  40.2009988
 101.5200012 135.5254997  40.0859988 100.7389469 135.8761430  39.9327626
 110.8290012 136.5394997  52.2489988 109.9120012 136.8024997  52.1609988
 111.1640012 136.5364997  51.3519988 110.7489900 136.5750224  52.1157919
 109.4310012 140.2904997  46.3439988 108.6330012 139.8754997  46.0159988
 109.8760012 139.5994997  46.8349988 109.3819885 140.1403543  46.3654889
  97.2050012 138.8824997  38.0309988  97.1600012 139.8214997  38.2089988
  96.3170012 138.6464997  37.7609988  97.0788574 138.9791892  38.0188912
  98.0130012 133.6644997  46.7039988  97.7840012 133.7234997  45.7759988
  97.5700012 132.8724997  47.0099988  97.9218530 133.5655753  46.6184786
  96.1380012 144.0274997  55.1489988  96.2820012 143.1254997  54.8619988
  95.3660012 144.3134997  54.6609988  96.0533323 143.9428261  55.0437881
 100.4800012 144.3714997  37.2809988 100.5440012 143.5774997  37.8119988
 101.1330012 144.2524997  36.5909988 100.5770241 144.2467148  37.2604317
 102.7940012 143.9974997  54.5809988 102.4650012 144.2684997  53.7239988
 102.9460012 143.0564997  54.4939988 102.7694809 143.9073862  54.4518244
 108.5280012 143.9134997  51.9649988 109.2740012 144.5014997  51.8449988
 107.7710012 144.4954997  52.0279988 108.5277554 144.0727011  51.9570907
  96.9710012 141.2274997  54.5689988  97.3790012 140.3704997  54.4479988
  96.7110012 141.2424997  55.4899988  96.9917568 141.1120807  54.6769588
 101.6290012 142.3434997  39.5869988 101.1690012 141.8594997  40.2729988
 101.8840012 141.6754997  38.9509988 101.6004902 142.1868731  39.5949334
 100.9180012 140.2364997  51.9429988 100.3000012 140.9114997  52.2229988
 101.2620012 140.5574997  51.1099988 100.8799615 140.3722721  51.8686581
 102.7000012 140.5864997  37.8489988 102.5200012 140.4324997  36.9219988
 103.6500012 140.6944997  37.8939988 102.8037776 140.5800175  37.7281843
 105.9380012 142.7084997  55.2199988 106.8910012 142.7914997  55.1929988
 105.7770012 141.9964997  55.8399988 106.0466426 142.6236746  55.3000579
 112.0900012 142.9414997  37.2949988 111.8160012 142.5164997  36.4819988
 112.1290012 143.8724997  37.0779988 112.0577699 143.0092484  37.1543610
 101.2570012 137.5914997  53.0249988 101.4070012 136.8624997  52.4229988
 101.2600012 138.3684997  52.4659988 101.2779302 137.5967851  52.8670692
 101.6700012 135.9614997  50.5179988 102.2060012 136.4124997  49.8659988
 100.8180012 135.8534997  50.0949988 101.6282178 136.0086390  50.3715756
 103.2520012 141.4004997  50.7569988 104.0020012 141.2444997  50.1839988
 102.9130012 142.2524997  50.4819988 103.3088921 141.4942968  50.6413561
 107.6670012 139.2154997  55.7859988 107.8600012 138.2844997  55.6739988
 108.5250012 139.6404997  55.7759988 107.8093020 139.1456389  55.7693361
 108.9840012 142.0044997  53.8629988 108.7030012 142.7134997  53.2859988
 109.9270012 141.9314997  53.7119988 109.0729027 142.0917646  53.7635551
  99.7360012 138.7894997  54.9369988  98.9690012 138.2574997  54.7269988
 100.4150012 138.4794997  54.3369988  99.7227022 138.6747506  54.8271648
 102.4760012 133.4174997  50.9489988 102.3770012 134.3644997  50.8439988
 101.7330012 133.0454997  50.4739988 102.3620563 133.4965902  50.8704560
 103.7400012 137.7394997  54.5129988 103.5040012 137.5194997  55.4149988
 102.9560012 137.5324997  54.0029988 103.6018628 137.6814760  54.5673932
 106.4550012 136.8664997  53.5889988 105.5080012 136.8984997  53.7209988
 106.7680012 136.2414997  54.2419988 106.3675475 136.7863207  53.6954455
 108.0890012 135.5004997  55.5939988 107.9930012 134.5484997  55.5879988
 107.7680012 135.7694997  56.4539988 108.0324070 135.4064035  55.7095441
  97.9160012 136.7104997  54.6409988  98.1280012 136.0034997  54.0309988
  97.8050012 136.2724997  55.4849988  97.9299721 136.5547084  54.6716843
 102.6970012 132.7114997  53.6209988 103.4090012 132.0714997  53.6069988
 102.5960012 132.9784997  52.7069988 102.7807939 132.6599938  53.4955650
 103.0510012 134.3944997  55.6739988 102.9190012 133.9184997  54.8539988
 102.4520012 135.1384997  55.6189988 102.9519071 134.4299618  55.5542886
 112.5480012 143.8104997  41.2699988 113.3980012 144.2314997  41.3969988
 112.5540012 143.0704997  41.8769988 112.6651372 143.7680803  41.3694344
 112.9430012 141.8634997  43.0939988 112.2160012 141.3844997  43.4909988
 113.5240012 142.0694997  43.8259988 112.9219375 141.8257090  43.2474129
 112.7020012 144.6484997  48.0409988 113.5350012 144.2704997  47.7609988
 112.8140012 145.5914997  47.9219988 112.8312647 144.7242218  47.9865487
 113.2110012 141.7644997  39.4849988 112.6890012 142.1214997  38.7659988
 113.1780012 142.4394997  40.1629988 113.1351634 141.9045413  39.4783145
 111.5600012 139.0044997  38.0359988 111.6560012 139.6714997  37.3549988
 111.4200012 138.1884997  37.5539988 111.5542135 138.9854500  37.8778491
 110.7290012 140.3844997  43.6569988 110.5790012 139.4394997  43.6359988
 110.3760012 140.6654997  44.4999988 110.6606625 140.2930441  43.7682346
  95.7650012 142.4624997  47.6669988  95.9490012 142.3804997  46.7309988
  96.6140012 142.3384997  48.0909988  95.9050139 142.4345003  47.5961455
 111.5860012 142.3544997  53.2949988 112.1690012 141.6204997  53.4869988
 112.1500012 143.1264997  53.3419988 111.7419769 142.3584227  53.3276159
 113.0820012 140.2574997  53.9799988 112.2190012 139.8784997  53.8139988
 113.6870012 139.5184997  53.9059988 113.0455979 140.1058023  53.9472817
 110.8070012 136.4124997  37.1529988 111.4180012 136.0414997  37.7899988
 109.9710012 135.9914997  37.3489988 110.7775032 136.3047554  37.2667035
 110.4400012 137.9674997  42.1189988 110.7200012 137.0604997  42.2429988
 111.1990012 138.4014997  41.7299988 110.5809277 137.9020942  42.0833682
 111.0520012 138.5484997  47.5549988 111.9850012 138.7604997  47.5209988
 110.8170012 138.6504997  48.4769988 111.1478036 138.5912769  47.6749976
 111.0810012 139.2854997  50.3309988 110.2380012 139.5534997  50.6969988
 111.5230012 140.1074997  50.1199988 111.0254158 139.4333291  50.3525491
  95.3620012 137.7334997  53.8079988  96.2820012 137.6114997  54.0439988
  94.9130012 136.9834997  54.1969988  95.4271580 137.6153727  53.8929006
 113.3640012 133.2654997  55.6839988 113.7140012 132.6114997  55.0789988
 113.5110012 134.1024997  55.2449988 113.4318419 133.2891591  55.5417118
 111.0530012 135.2304997  42.1669988 111.2360012 134.7814997  42.9929988
 110.4540012 134.6454997  41.7039988 110.9970202 135.0899975  42.2173275
  96.5830012 136.0454997  46.6989988  97.0290012 135.2534997  47.0009988
  97.0500012 136.7614997  47.1299988  96.7070172 136.0340624  46.7984820
  94.8870012 139.0444997  47.7679988  95.3790012 138.8234997  46.9769988
  95.2500012 139.8854997  48.0489988  95.0033126 139.1278357  47.6977531
 112.8840012 135.3744997  54.0339988 111.9660012 135.6454997  53.9979988
 113.0070012 134.8394997  53.2489988 112.7751066 135.3392892  53.9230487
 112.9200012 135.2974997  38.6949988 113.3320012 134.5764997  38.2199988
 113.6020012 135.9674997  38.7539988 113.0685885 135.2892368  38.6378915
  95.2010012 135.3024997  41.8219988  94.2760012 135.5114997  41.6929988
  95.6550012 135.7864997  41.1329988  95.1357368 135.3965993  41.7111226
  95.1650012 134.0404997  50.1669988  94.5000012 133.7944997  50.8099988
  94.7220012 134.6624997  49.5889988  95.0140956 134.0908632  50.1769352
 111.8840012 133.4644997  51.8529988 111.0720012 133.7894997  51.4649988
 112.1170012 132.7044997  51.3199988 111.8043423 133.4062436  51.7278253
 105.3140012 134.9134997  46.1749988 104.6400012 134.2844997  46.4309988
 105.8780012 134.4294997  45.5719988 105.2979230 134.7618744  46.1285340
 110.4570012 133.0214997  46.2879988 111.0610012 133.5684997  45.7859988
 109.5870012 133.3404997  46.0479988 110.4221241 133.1395806  46.1867654
 112.1840012 134.1594997  44.6209988 112.7960012 133.6454997  44.0949988
 112.5660012 135.0374997  44.6449988 112.3194540 134.2077140  44.5521830
  97.6410012 133.5474997  43.9969988  96.8640012 133.3134997  43.4899988
  98.1710012 132.7504997  44.0059988  97.6062330 133.4076988  43.9287742
  96.4770012 133.3454997  39.8009988  96.9160012 133.9564997  39.2089988
  95.8440012 133.8834997  40.2749988  96.4514514 133.5019257  39.7840930
 102.2200012 133.4744997  43.8109988 103.0950012 133.8624997  43.7809988
 102.0840012 133.2594997  44.7329988 102.3213695 133.4985184  43.9316440
 107.7770012 133.5044997  45.4599988 107.8530012 133.5994997  44.5099988
 107.5020012 132.5964997  45.5889988 107.7502321 133.3947867  45.3475079
 109.1300012 133.5304997  41.1519988 108.4280012 134.1454997  40.9429988
 108.6860012 132.6924997  41.2829988 108.9736330 133.5015783  41.1410328
  98.3380012 135.2614997  38.2429988  98.8300012 134.6314997  37.7159988
  98.9620012 135.5574997  38.9069988  98.4895446 135.2153199  38.2605980
 103.3640012 135.5544997  40.6999988 103.5420012 134.9084997  41.3829988
 103.3110012 136.3884997  41.1679988 103.3811829 135.5787985  40.8565940
  97.5990012 134.0614997  53.5149988  97.2330012 133.2964997  53.9579988
  98.5120012 134.0904997  53.8019988  97.6722790 133.9607224  53.6144070
  99.5720012 133.4124997  55.0509988 100.4700012 133.1384997  54.8659988
  99.1850012 132.6694997  55.5149988  99.6426612 133.2745914  55.0883643
 107.9930012 132.7444997  55.2329988 108.0700012 132.3184997  56.0869988
 108.8870012 132.7584997  54.8899988 108.1243428 132.6880879  55.3035310
 125.5750012 142.7034997  43.9559988 125.6640012 143.6474997  43.8239988
 124.9370012 142.4284997  43.2979988 125.5009081 142.7954830  43.8489614
 124.5080012 141.9584997  47.3749988 124.4700012 141.3124997  48.0799988
 124.1860012 141.4924997  46.6039988 124.4592333 141.8069408  47.3672978
 116.8770012 141.5734997  48.9679988 116.9180012 140.9474997  49.6909988
 117.5800012 142.1974997  49.1499988 116.9776363 141.5721196  49.0916044
 128.2140012 144.8974997  45.6759988 127.7740012 144.1774997  46.1269988
 128.2010012 145.6184997  46.3059988 128.1520226 144.8963731  45.8228494
 114.4100012 139.6834997  42.8959988 113.9630012 140.5294997  42.8769988
 113.8490012 139.1034997  42.3799988 114.2729900 139.7209916  42.8236801
 115.1210012 141.8454997  45.0219988 115.3340012 141.0754997  45.5489988
 115.8590012 141.9344997  44.4179988 115.2498496 141.7521394  45.0125300
 122.8980012 144.3914997  47.7809988 123.2020012 143.7054997  47.1859988
 123.6190012 144.5094997  48.3989988 123.0370671 144.3136305  47.7831816
 131.5610012 135.9924997  48.6419988 131.6100012 136.6024997  49.3779988
 131.9860012 136.4534997  47.9189988 131.6251824 136.1383741  48.6450205
 126.0390012 138.7854997  48.1089988 126.1810012 137.8394997  48.1289988
 125.9320012 138.9924997  47.1799988 126.0439864 138.6839534  47.9862339
 119.1930012 136.8864997  45.3809988 119.2370012 137.7464997  44.9629988
 118.7360012 136.3344997  44.7469988 119.1372185 136.9295799  45.2380299
 126.9160012 137.0174997  43.7819988 127.5620012 136.6884997  44.4069988
 127.4260012 137.5354997  43.1589988 127.0734264 137.0424611  43.7833862
 115.8140012 139.2834997  46.1429988 116.4670012 138.7334997  46.5749988
 115.8380012 139.0094997  45.2259988 115.9066683 139.1711466  46.0782123
 120.9700012 140.8334997  45.3579988 121.5860012 140.3074997  45.8679988
 120.3840012 140.1934997  44.9549988 120.9750810 140.6749208  45.3733173
 131.9520012 137.4704997  50.8779988 131.2640012 138.1284997  50.7819988
 131.9680012 137.2734997  51.8139988 131.8598525 137.5340462  50.9914808
 118.0040012 135.8044997  49.4549988 117.7850012 136.3344997  48.6889988
 117.3360012 136.0314997  50.1019988 117.8837600 135.9076906  49.4376379
 120.5730012 143.4804997  49.7419988 119.8330012 144.0784997  49.8459988
 121.2870012 144.0344997  49.4269988 120.5682237 143.6372831  49.7136465
 128.6800012 136.3084997  45.7619988 128.4640012 135.5424997  46.2949988
 129.3350012 136.7804997  46.2749988 128.7390632 136.2675889  45.9042861
 117.5970012 137.6964997  47.4069988 118.2110012 138.3294997  47.7809988
 118.1090012 137.2244997  46.7509988 117.7502296 137.7192370  47.3694252
 129.0270012 135.0234997  49.4419988 128.2910012 135.6344997  49.4039988
 129.7100012 135.4384997  48.9149988 129.0186541 135.1631374  49.3655832
 122.0300012 133.1104997  46.9079988 121.9130012 132.1614997  46.8529988
 121.1750012 133.4424997  47.1809988 121.8983733 133.0255409  46.9373897
 129.8240012 144.9854997  51.6359988 129.9640012 144.3944997  50.8959988
 129.9910012 145.8584997  51.2789988 129.8656778 145.0226426  51.4866965
 124.2970012 141.9474997  41.4079988 123.5850012 142.4824997  41.0559988
 124.9880012 142.0034997  40.7479988 124.2930132 142.0282543  41.2706289
 124.3500012 140.4054997  38.4469988 125.0510012 140.4274997  39.0979988
 124.6530012 139.7774997  37.7909988 124.4867830 140.3236566  38.4473711
 131.6660012 141.3254997  49.7019988 131.0130012 142.0204997  49.7909988
 132.1310012 141.5354997  48.8919988 131.6395390 141.4489425  49.6046883
 127.7020012 142.1574997  42.3599988 126.9700012 142.3854997  42.9329988
 128.1500012 141.4434997  42.8149988 127.6623095 142.0922571  42.4999119
 127.6000012 140.3314997  51.4269988 127.6800012 141.0944997  51.9989988
 126.9980012 140.6104997  50.7369988 127.5295756 140.4737134  51.4120589
 119.3480012 142.7874997  44.2419988 119.0170012 142.4174997  43.4239988
 119.9360012 142.1174997  44.5889988 119.3821873 142.6461156  44.1768102
 119.7140012 141.5564997  47.8759988 120.2800012 141.6774997  47.1129988
 120.0330012 142.1934997  48.5149988 119.8345786 141.6591884  47.8580040
 126.5730012 141.3194997  40.0449988 127.1530012 141.4694997  40.7919988
 126.9870012 141.7904997  39.3219988 126.7082830 141.4036841  40.0494134
 117.5140012 142.1534997  51.8219988 117.5850012 142.8044997  52.5199988
 116.6240012 142.2564997  51.4869988 117.4033117 142.2565936  51.8722700
 130.2720012 133.0694997  39.8579988 129.3720012 133.2084997  40.1529988
 130.5240012 133.9004997  39.4559988 130.1828702 133.2009074  39.8440205
 118.3380012 141.8574997  41.8319988 118.0460012 142.6254997  41.3409988
 117.6640012 141.1974997  41.6689988 118.2069081 141.8734406  41.7427340
 114.4310012 144.2204997  50.6469988 113.9300012 144.1924997  49.8319988
 114.4360012 143.3144997  50.9559988 114.3631526 144.0942278  50.5772872
 129.5310012 139.1594997  53.6929988 129.1240012 139.6404997  52.9719988
 129.5720012 138.2544997  53.3849988 129.4808437 139.1029374  53.5526683
 119.2990012 134.0134997  47.6849988 118.4370012 133.9264997  47.2779988
 119.2760012 134.8694997  48.1129988 119.1780330 134.1172765  47.6871863
 123.9620012 133.7354997  51.0599988 124.3820012 133.3204997  51.8129988
 123.0290012 133.5574997  51.1769988 123.8933644 133.6545900  51.1789539
 127.2880012 137.4914997  51.9129988 126.7740012 137.3654997  52.7109988
 127.1330012 138.4034997  51.6689988 127.1966852 137.5976132  51.9892158
 128.0510012 142.3524997  37.6749988 128.0930012 142.1294997  36.7449988
 128.9000012 142.7514997  37.8649988 128.1715396 142.3759155  37.5733627
 123.6230012 136.2284997  38.3449988 123.3700012 136.2474997  39.2679988
 123.3670012 135.3564997  38.0439988 123.5537790 136.1132437  38.4306263
 119.3900012 138.9794997  48.7799988 118.7480012 138.9384997  49.4889988
 119.4270012 139.9054997  48.5429988 119.3071324 139.0991559  48.8449824
 119.3870012 139.2004997  43.6919988 118.4940012 138.8594997  43.6339988
 119.8370012 138.8234997  42.9369988 119.3257305 139.1028484  43.5819177
 124.9220012 139.6164997  42.5089988 124.5130012 140.4314997  42.2179988
 125.6430012 139.4764997  41.8949988 124.9634537 139.7092018  42.3861342
 124.0240012 139.7914997  53.9969988 123.4620012 139.0874997  54.3179988
 124.8510012 139.6714997  54.4649988 124.0587095 139.6787883  54.1042330
 125.9270012 139.0624997  45.3229988 125.7320012 139.6674997  44.6079988
 126.1080012 138.2284997  44.8889988 125.9247614 139.0326300  45.1664405
 117.1400012 139.2994997  50.6469988 117.1020012 139.6994997  51.5159988
 116.6490012 138.4824997  50.7379988 117.0684684 139.2438069  50.7781059
 120.5060012 136.6734997  37.4459988 120.0750012 136.2284997  38.1759988
 119.7880012 137.0454997  36.9339988 120.3499438 136.6628940  37.4766799
 113.7480012 136.4154997  44.4979988 114.3790012 136.3864997  45.2169988
 114.1970012 135.9904997  43.7679988 113.8950774 136.3540492  44.4976553
 115.0220012 137.1614997  39.9219988 115.4960012 137.7524997  39.3369988
 114.3050012 137.6924997  40.2689988 114.9899341 137.3140867  39.8888836
 125.1910012 140.7004997  49.9949988 125.5140012 140.0694997  49.3519988
 124.7510012 140.1654997  50.6549988 125.1756895 140.5418441  49.9962850
 121.9680012 136.6274997  44.7789988 121.0570012 136.6844997  45.0669988
 122.4740012 136.5674997  45.5889988 121.9115413 136.6271985  44.9280622
 116.7970012 138.2564997  43.6049988 115.9070012 138.3564997  43.2649988
 117.0930012 137.4144997  43.2589988 116.7152823 138.1563545  43.5117213
 120.4500012 138.2564997  41.2619988 121.3810012 138.3854997  41.4399988
 120.2350012 138.9264997  40.6119988 120.5484247 138.3646565  41.1985747
 126.3730012 135.8624997  48.0429988 125.6970012 135.9934997  48.7069988
 125.8880012 135.7074997  47.2329988 126.2147145 135.8594905  48.0244517
 119.1240012 139.4514997  38.8289988 118.5810012 139.0714997  38.1369988
 119.9570012 139.6454997  38.3999988 119.1624399 139.4258124  38.6764526
 117.2590012 144.0084997  53.9279988 117.9910012 144.2624997  54.4889988
 116.4790012 144.2124997  54.4429988 117.2538232 144.0709177  54.0745760
 123.2880012 139.4154997  46.6659988 123.8530012 138.8684997  46.1189988
 123.1410012 138.8934997  47.4539988 123.3452918 139.2702024  46.6978454
 118.2900012 135.5514997  43.0839988 117.9730012 134.6494997  43.0489988
 119.0720012 135.5534997  42.5309988 118.3522284 135.4281628  43.0044783
 121.9150012 137.8034997  49.0799988 121.0790012 138.2574997  49.1899988
 122.4390012 138.0794997  49.8319988 121.8714414 137.9029376  49.1967136
 122.4590012 144.0164997  40.7639988 121.7140012 143.5094997  40.4419988
 122.3250012 144.0654997  41.7109988 122.3388776 143.9536940  40.8478647
 129.6090012 143.1494997  49.5509988 130.2510012 143.6064997  49.0069988
 128.7790012 143.2624997  49.0879988 129.5845963 143.2272704  49.4140177
 126.3570012 136.8304997  38.9639988 125.4180012 136.9424997  38.8119988
 126.6540012 137.6874997  39.2699988 126.2687666 136.9616443  38.9845768
 123.9780012 144.2004997  52.0009988 123.6330012 143.8194997  52.8079988
 123.7780012 145.1344997  52.0729988 123.9038061 144.2745228  52.1210961
 127.0750012 138.6974997  40.6239988 127.9670012 138.5604997  40.9429988
 127.1320012 139.4884997  40.0879988 127.2046285 138.7856660  40.5951691
 117.5840012 143.3114997  46.5339988 118.3290012 143.3094997  45.9329988
 117.6620012 142.4884997  47.0159988 117.6965518 143.1999315  46.5168929
 114.5920012 141.7724997  51.8489988 114.8150012 141.3544997  52.6809988
 113.9900012 141.1594997  51.4259988 114.5411759 141.6324668  51.9057022
 121.6080012 141.2894997  54.0619988 121.3120012 141.1234997  53.1669988
 122.5400012 141.0694997  54.0509988 121.6934166 141.2370640  53.9380536
 131.9600012 138.9074997  40.3189988 131.4060012 138.5114997  39.6469988
 132.0600012 139.8174997  40.0409988 131.8977059 138.9763586  40.1894401
 131.9230012 144.7074997  53.1559988 131.0720012 144.9454997  52.7889988
 132.5140012 144.6904997  52.4029988 131.8862487 144.7378258  53.0038893
 127.4160012 142.5014997  47.8049988 126.4870012 142.2694997  47.7779988
 127.8670012 141.7244997  47.4749988 127.3499216 142.3647238  47.7566917
 115.7140012 141.6914997  38.5249988 116.3300012 142.3184997  38.9049988
 114.8520012 142.0074997  38.7969988 115.6817698 141.8199430  38.6137183
 121.3860012 144.4924997  43.5149988 121.1450012 145.4174997  43.5559988
 120.6450012 144.0334997  43.9109988 121.2528409 144.5571421  43.5741377
 125.4450012 144.7404997  49.5299988 125.0190012 144.5134997  50.3569988
 126.0250012 144.0024997  49.3479988 125.4651868 144.6095299  49.6185830
 116.2260012 136.5254997  51.4069988 115.3330012 136.8644997  51.3389988
 116.1270012 135.6704997  51.8249988 116.0904164 136.4562588  51.4542235
 128.5140012 144.3424997  40.8309988 128.2360012 143.6144997  41.3869988
 129.4410012 144.4614997  41.0359988 128.6013124 144.2588802  40.9348845
 117.1290012 143.6044997  40.0179988 116.4430012 143.9564997  40.5849988
 117.6510012 144.3674997  39.7709988 117.1056852 143.7558578  40.0622118
 124.9600012 136.2664997  50.2969988 125.6590012 136.3404997  50.9469988
 124.5790012 135.4024997  50.4509988 125.0041767 136.1597624  50.4068322
 125.7450012 135.9184997  41.3939988 125.9650012 136.3904997  40.5909988
 126.3030012 136.3134997  42.0639988 125.8504968 136.0364285  41.3747331
 122.9450012 137.6464997  42.2289988 123.7570012 138.1514997  42.2749988
 122.7000012 137.5014997  43.1429988 123.0230520 137.6960375  42.3588517
 123.4800012 138.6324997  51.4139988 123.5990012 139.2064997  52.1709988
 124.1360012 137.9444997  51.5279988 123.5849757 138.6181079  51.5330825
 123.8280012 134.7274997  43.1669988 123.4820012 135.3454997  43.8119988
 124.4870012 135.2284997  42.6859988 123.8697826 134.8795802  43.1900971
 119.4860012 135.7904997  39.8539988 119.4030012 136.6794997  40.2009988
 120.3760012 135.5254997  40.0859988 119.5949469 135.8761430  39.9327626
 129.6850012 136.5394997  52.2489988 128.7680012 136.8024997  52.1609988
 130.0200012 136.5364997  51.3519988 129.6049900 136.5750224  52.1157919
 128.2870012 140.2904997  46.3439988 127.4890012 139.8754997  46.0159988
 128.7320012 139.5994997  46.8349988 128.2379885 140.1403543  46.3654889
 116.0610012 138.8824997  38.0309988 116.0160012 139.8214997  38.2089988
 115.1730012 138.6464997  37.7609988 115.9348574 138.9791892  38.0188912
 116.8690012 133.6644997  46.7039988 116.6400012 133.7234997  45.7759988
 116.4260012 132.8724997  47.0099988 116.7778530 133.5655753  46.6184786
 114.9940012 144.0274997  55.1489988 115.1380012 143.1254997  54.8619988
 114.2220012 144.3134997  54.6609988 114.9093323 143.9428261  55.0437881
 119.3360012 144.3714997  37.2809988 119.4000012 143.5774997  37.8119988
 119.9890012 144.2524997  36.5909988 119.4330241 144.2467148  37.2604317
 121.6500012 143.9974997  54.5809988 121.3210012 144.2684997  53.7239988
 121.8020012 143.0564997  54.4939988 121.6254809 143.9073862  54.4518244
 127.3840012 143.9134997  51.9649988 128.1300012 144.5014997  51.8449988
 126.6270012 144.4954997  52.0279988 127.3837554 144.0727011  51.9570907
 115.8270012 141.2274997  54.5689988 116.2350012 140.3704997  54.4479988
 115.5670012 141.2424997  55.4899988 115.8477568 141.1120807  54.6769588
 120.4850012 142.3434997  39.5869988 120.0250012 141.8594997  40.2729988
 120.7400012 141.6754997  38.9509988 120.4564902 142.1868731  39.5949334
 119.7740012 140.2364997  51.9429988 119.1560012 140.9114997  52.2229988
 120.1180012 140.5574997  51.1099988 119.7359615 140.3722721  51.8686581
 121.5560012 140.5864997  37.8489988 121.3760012 140.4324997  36.9219988
 122.5060012 140.6944997  37.8939988 121.6597776 140.5800175  37.7281843
 124.7940012 142.7084997  55.2199988 125.7470012 142.7914997  55.1929988
 124.6330012 141.9964997  55.8399988 124.9026426 142.6236746  55.3000579
 130.9460012 142.9414997  37.2949988 130.6720012 142.5164997  36.4819988
 130.9850012 143.8724997  37.0779988 130.9137699 143.0092484  37.1543610
 120.1130012 137.5914997  53.0249988 120.2630012 136.8624997  52.4229988
 120.1160012 138.3684997  52.4659988 120.1339302 137.5967851  52.8670692
 120.5260012 135.9614997  50.5179988 121.0620012 136.4124997  49.8659988
 119.6740012 135.8534997  50.0949988 120.4842178 136.0086390  50.3715756
 122.1080012 141.4004997  50.7569988 122.8580012 141.2444997  50.1839988
 121.7690012 142.2524997  50.4819988 122.1648921 141.4942968  50.6413561
 126.5230012 139.2154997  55.7859988 126.7160012 138.2844997  55.6739988
 127.3810012 139.6404997  55.7759988 126.6653020 139.1456389  55.7693361
 127.8400012 142.0044997  53.8629988 127.5590012 142.7134997  53.2859988
 128.7830012 141.9314997  53.7119988 127.9289027 142.0917646  53.7635551
 118.5920012 138.7894997  54.9369988 117.8250012 138.2574997  54.7269988
 119.2710012 138.4794997  54.3369988 118.5787022 138.6747506  54.8271648
 121.3320012 133.4174997  50.9489988 121.2330012 134.3644997  50.8439988
 120.5890012 133.0454997  50.4739988 121.2180564 133.4965902  50.8704560
 122.5960012 137.7394997  54.5129988 122.3600012 137.5194997  55.4149988
 121.8120012 137.5324997  54.0029988 122.4578628 137.6814760  54.5673932
 125.3110012 136.8664997  53.5889988 124.3640012 136.8984997  53.7209988
 125.6240012 136.2414997  54.2419988 125.2235475 136.7863207  53.6954455
 126.9450012 135.5004997  55.5939988 126.8490012 134.5484997  55.5879988
 126.6240012 135.7694997  56.4539988 126.8884070 135.4064035  55.7095441
 116.7720012 136.7104997  54.6409988 116.9840012 136.0034997  54.0309988
 116.6610012 136.2724997  55.4849988 116.7859721 136.5547084  54.6716843
 121.5530012 132.7114997  53.6209988 122.2650012 132.0714997  53.6069988
 121.4520012 132.9784997  52.7069988 121.6367939 132.6599938  53.4955650
 121.9070012 134.3944997  55.6739988 121.7750012 133.9184997  54.8539988
 121.3080012 135.1384997  55.6189988 121.8079071 134.4299618  55.5542886
 131.4040012 143.8104997  41.2699988 132.2540012 144.2314997  41.3969988
 131.4100012 143.0704997  41.8769988 131.5211372 143.7680803  41.3694344
 131.7990012 141.8634997  43.0939988 131.0720012 141.3844997  43.4909988
 132.3800012 142.0694997  43.8259988 131.7779375 141.8257090  43.2474129
 131.5580012 144.6484997  48.0409988 132.3910012 144.2704997  47.7609988
 131.6700012 145.5914997  47.9219988 131.6872647 144.7242218  47.9865487
 132.0670012 141.7644997  39.4849988 131.5450012 142.1214997  38.7659988
 132.0340012 142.4394997  40.1629988 131.9911634 141.9045413  39.4783145
 130.4160012 139.0044997  38.0359988 130.5120012 139.6714997  37.3549988
 130.2760012 138.1884997  37.5539988 130.4102135 138.9854500  37.8778491
 129.5850012 140.3844997  43.6569988 129.4350012 139.4394997  43.6359988
 129.2320012 140.6654997  44.4999988 129.5166625 140.2930441  43.7682346
 114.6210012 142.4624997  47.6669988 114.8050012 142.3804997  46.7309988
 115.4700012 142.3384997  48.0909988 114.7610139 142.4345003  47.5961455
 130.4420012 142.3544997  53.2949988 131.0250012 141.6204997  53.4869988
 131.0060012 143.1264997  53.3419988 130.5979769 142.3584227  53.3276159
 131.9380012 140.2574997  53.9799988 131.0750012 139.8784997  53.8139988
 132.5430012 139.5184997  53.9059988 131.9015979 140.1058023  53.9472817
 129.6630012 136.4124997  37.1529988 130.2740012 136.0414997  37.7899988
 128.8270012 135.9914997  37.3489988 129.6335032 136.3047554  37.2667035
 129.2960012 137.9674997  42.1189988 129.5760012 137.0604997  42.2429988
 130.0550012 138.4014997  41.7299988 129.4369277 137.9020942  42.0833682
 129.9080012 138.5484997  47.5549988 130.8410012 138.7604997  47.5209988
 129.6730012 138.6504997  48.4769988 130.0038036 138.5912769  47.6749976
 129.9370012 139.2854997  50.3309988 129.0940012 139.5534997  50.6969988
 130.3790012 140.1074997  50.1199988 129.8814158 139.4333291  50.3525491
 114.2180012 137.7334997  53.8079988 115.1380012 137.6114997  54.0439988
 113.7690012 136.9834997  54.1969988 114.2831580 137.6153727  53.8929006
 132.2200012 133.2654997  55.6839988 132.5700012 132.6114997  55.0789988
 132.3670012 134.1024997  55.2449988 132.2878419 133.2891591  55.5417118
 129.9090012 135.2304997  42.1669988 130.0920012 134.7814997  42.9929988
 129.3100012 134.6454997  41.7039988 129.8530202 135.0899975  42.2173275
 115.4390012 136.0454997  46.6989988 115.8850012 135.2534997  47.0009988
 115.9060012 136.7614997  47.1299988 115.5630172 136.0340624  46.7984820
 113.7430012 139.0444997  47.7679988 114.2350012 138.8234997  46.9769988
 114.1060012 139.8854997  48.0489988 113.8593126 139.1278357  47.6977531
 131.7400012 135.3744997  54.0339988 130.8220012 135.6454997  53.9979988
 131.8630012 134.8394997  53.2489988 131.6311066 135.3392892  53.9230487
 131.7760012 135.2974997  38.6949988 132.1880012 134.5764997  38.2199988
 132.4580012 135.9674997  38.7539988 131.9245885 135.2892368  38.6378915
 114.0570012 135.3024997  41.8219988 113.1320012 135.5114997  41.6929988
 114.5110012 135.7864997  41.1329988 113.9917368 135.3965993  41.7111226
 114.0210012 134.0404997  50.1669988 113.3560012 133.7944997  50.8099988
 113.5780012 134.6624997  49.5889988 113.8700956 134.0908632  50.1769352
 130.7400012 133.4644997  51.8529988 129.9280012 133.7894997  51.4649988
 130.9730012 132.7044997  51.3199988 130.6603423 133.4062436  51.7278253
 124.1700012 134.9134997  46.1749988 123.4960012 134.2844997  46.4309988
 124.7340012 134.4294997  45.5719988 124.1539230 134.7618744  46.1285340
 129.3130012 133.0214997  46.2879988 129.9170012 133.5684997  45.7859988
 128.4430012 133.3404997  46.0479988 129.2781241 133.1395806  46.1867654
 131.0400012 134.1594997  44.6209988 131.6520012 133.6454997  44.0949988
 131.4220012 135.0374997  44.6449988 131.1754540 134.2077140  44.5521830
 116.4970012 133.5474997  43.9969988 115.7200012 133.3134997  43.4899988
 117.0270012 132.7504997  44.0059988 116.4622330 133.4076988  43.9287742
 115.3330012 133.3454997  39.8009988 115.7720012 133.9564997  39.2089988
 114.7000012 133.8834997  40.2749988 115.3074514 133.5019257  39.7840930
 121.0760012 133.4744997  43.8109988 121.9510012 133.8624997  43.7809988
 120.9400012 133.2594997  44.7329988 121.1773695 133.4985184  43.9316440
 126.6330012 133.5044997  45.4599988 126.7090012 133.5994997  44.5099988
 126.3580012 132.5964997  45.5889988 126.6062321 133.3947867  45.3475079
 127.9860012 133.5304997  41.1519988 127.2840012 134.1454997  40.9429988
 127.5420012 132.6924997  41.2829988 127.8296330 133.5015783  41.1410328
 117.1940012 135.2614997  38.2429988 117.6860012 134.6314997  37.7159988
 117.8180012 135.5574997  38.9069988 117.3455446 135.2153199  38.2605980
 122.2200012 135.5544997  40.6999988 122.3980012 134.9084997  41.3829988
 122.1670012 136.3884997  41.1679988 122.2371829 135.5787985  40.8565940
 116.4550012 134.0614997  53.5149988 116.0890012 133.2964997  53.9579988
 117.3680012 134.0904997  53.8019988 116.5282790 133.9607224  53.6144070
 118.4280012 133.4124997  55.0509988 119.3260012 133.1384997  54.8659988
 118.0410012 132.6694997  55.5149988 118.4986612 133.2745914  55.0883643
 126.8490012 132.7444997  55.2329988 126.9260012 132.3184997  56.0869988
 127.7430012 132.7584997  54.8899988 126.9803428 132.6880879  55.3035310
 144.4310012 142.7034997  43.9559988 144.5200012 143.6474997  43.8239988
 143.7930012 142.4284997  43.2979988 144.3569081 142.7954830  43.8489614
 143.3640012 141.9584997  47.3749988 143.3260012 141.3124997  48.0799988
 143.0420012 141.4924997  46.6039988 143.3152333 141.8069408  47.3672978
 135.7330012 141.5734997  48.9679988 135.7740012 140.9474997  49.6909988
 136.4360012 142.1974997  49.1499988 135.8336363 141.5721196  49.0916044
 133.2660012 139.6834997  42.8959988 132.8190012 140.5294997  42.8769988
 132.7050012 139.1034997  42.3799988 133.1289900 139.7209916  42.8236801
 133.9770012 141.8454997  45.0219988 134.1900012 141.0754997  45.5489988
 134.7150012 141.9344997  44.4179988 134.1058496 141.7521394  45.0125300
 141.7540012 144.3914997  47.7809988 142.0580012 143.7054997  47.1859988
 142.4750012 144.5094997  48.3989988 141.8930671 144.3136305  47.7831816
 144.8950012 138.7854997  48.1089988 145.0370012 137.8394997  48.1289988
 144.7880012 138.9924997  47.1799988 144.8999864 138.6839534  47.9862339
 138.0490012 136.8864997  45.3809988 138.0930012 137.7464997  44.9629988
 137.5920012 136.3344997  44.7469988 137.9932185 136.9295799  45.2380299
 134.6700012 139.2834997  46.1429988 135.3230012 138.7334997  46.5749988
 134.6940012 139.0094997  45.2259988 134.7626683 139.1711466  46.0782123
 139.8260012 140.8334997  45.3579988 140.4420012 140.3074997  45.8679988
 139.2400012 140.1934997  44.9549988 139.8310810 140.6749208  45.3733173
 136.8600012 135.8044997  49.4549988 136.6410012 136.3344997  48.6889988
 136.1920012 136.0314997  50.1019988 136.7397600 135.9076906  49.4376379
 139.4290012 143.4804997  49.7419988 138.6890012 144.0784997  49.8459988
 140.1430012 144.0344997  49.4269988 139.4242237 143.6372831  49.7136465
 136.4530012 137.6964997  47.4069988 137.0670012 138.3294997  47.7809988
 136.9650012 137.2244997  46.7509988 136.6062296 137.7192370  47.3694252
 140.8860012 133.1104997  46.9079988 140.7690012 132.1614997  46.8529988
 140.0310012 133.4424997  47.1809988 140.7543733 133.0255409  46.9373897
 143.1530012 141.9474997  41.4079988 142.4410012 142.4824997  41.0559988
 143.8440012 142.0034997  40.7479988 143.1490132 142.0282543  41.2706289
 143.2060012 140.4054997  38.4469988 143.9070012 140.4274997  39.0979988
 143.5090012 139.7774997  37.7909988 143.3427830 140.3236566  38.4473711
 138.2040012 142.7874997  44.2419988 137.8730012 142.4174997  43.4239988
 138.7920012 142.1174997  44.5889988 138.2381873 142.6461156  44.1768102
 138.5700012 141.5564997  47.8759988 139.1360012 141.6774997  47.1129988
 138.8890012 142.1934997  48.5149988 138.6905786 141.6591884  47.8580040
 136.3700012 142.1534997  51.8219988 136.4410012 142.8044997  52.5199988
 135.4800012 142.2564997  51.4869988 136.2593117 142.2565936  51.8722700
 137.1940012 141.8574997  41.8319988 136.9020012 142.6254997  41.3409988
 136.5200012 141.1974997  41.6689988 137.0629081 141.8734406  41.7427340
 133.2870012 144.2204997  50.6469988 132.7860012 144.1924997  49.8319988
 133.2920012 143.3144997  50.9559988 133.2191526 144.0942278  50.5772872
 138.1550012 134.0134997  47.6849988 137.2930012 133.9264997  47.2779988
 138.1320012 134.8694997  48.1129988 138.0340330 134.1172765  47.6871863
 142.8180012 133.7354997  51.0599988 143.2380012 133.3204997  51.8129988
 141.8850012 133.5574997  51.1769988 142.7493644 133.6545900  51.1789539
 142.4790012 136.2284997  38.3449988 142.2260012 136.2474997  39.2679988
 142.2230012 135.3564997  38.0439988 142.4097790 136.1132437  38.4306263
 138.2460012 138.9794997  48.7799988 137.6040012 138.9384997  49.4889988
 138.2830012 139.9054997  48.5429988 138.1631324 139.0991559  48.8449824
 138.2430012 139.2004997  43.6919988 137.3500012 138.8594997  43.6339988
 138.6930012 138.8234997  42.9369988 138.1817305 139.1028484  43.5819177
 143.7780012 139.6164997  42.5089988 143.3690012 140.4314997  42.2179988
 144.4990012 139.4764997  41.8949988 143.8194537 139.7092018  42.3861342
 142.8800012 139.7914997  53.9969988 142.3180012 139.0874997  54.3179988
 143.7070012 139.6714997  54.4649988 142.9147095 139.6787883  54.1042330
 144.7830012 139.0624997  45.3229988 144.5880012 139.6674997  44.6079988
 144.9640012 138.2284997  44.8889988 144.7807614 139.0326300  45.1664405
 135.9960012 139.2994997  50.6469988 135.9580012 139.6994997  51.5159988
 135.5050012 138.4824997  50.7379988 135.9244684 139.2438069  50.7781059
 139.3620012 136.6734997  37.4459988 138.9310012 136.2284997  38.1759988
 138.6440012 137.0454997  36.9339988 139.2059438 136.6628940  37.4766799
 132.6040012 136.4154997  44.4979988 133.2350012 136.3864997  45.2169988
 133.0530012 135.9904997  43.7679988 132.7510774 136.3540492  44.4976553
 133.8780012 137.1614997  39.9219988 134.3520012 137.7524997  39.3369988
 133.1610012 137.6924997  40.2689988 133.8459341 137.3140867  39.8888836
 144.0470012 140.7004997  49.9949988 144.3700012 140.0694997  49.3519988
 143.6070012 140.1654997  50.6549988 144.0316895 140.5418441  49.9962850
 140.8240012 136.6274997  44.7789988 139.9130012 136.6844997  45.0669988
 141.3300012 136.5674997  45.5889988 140.7675413 136.6271985  44.9280622
 135.6530012 138.2564997  43.6049988 134.7630012 138.3564997  43.2649988
 135.9490012 137.4144997  43.2589988 135.5712823 138.1563545  43.5117213
 139.3060012 138.2564997  41.2619988 140.2370012 138.3854997  41.4399988
 139.0910012 138.9264997  40.6119988 139.4044247 138.3646565  41.1985747
 137.9800012 139.4514997  38.8289988 137.4370012 139.0714997  38.1369988
 138.8130012 139.6454997  38.3999988 138.0184399 139.4258124  38.6764526
 136.1150012 144.0084997  53.9279988 136.8470012 144.2624997  54.4889988
 135.3350012 144.2124997  54.4429988 136.1098232 144.0709177  54.0745760
 142.1440012 139.4154997  46.6659988 142.7090012 138.8684997  46.1189988
 141.9970012 138.8934997  47.4539988 142.2012918 139.2702024  46.6978454
 137.1460012 135.5514997  43.0839988 136.8290012 134.6494997  43.0489988
 137.9280012 135.5534997  42.5309988 137.2082284 135.4281628  43.0044783
 140.7710012 137.8034997  49.0799988 139.9350012 138.2574997  49.1899988
 141.2950012 138.0794997  49.8319988 140.7274414 137.9029376  49.1967136
 141.3150012 144.0164997  40.7639988 140.5700012 143.5094997  40.4419988
 141.1810012 144.0654997  41.7109988 141.1948776 143.9536940  40.8478647
 142.8340012 144.2004997  52.0009988 142.4890012 143.8194997  52.8079988
 142.6340012 145.1344997  52.0729988 142.7598061 144.2745228  52.1210961
 136.4400012 143.3114997  46.5339988 137.1850012 143.3094997  45.9329988
 136.5180012 142.4884997  47.0159988 136.5525518 143.1999315  46.5168929
 133.4480012 141.7724997  51.8489988 133.6710012 141.3544997  52.6809988
 132.8460012 141.1594997  51.4259988 133.3971759 141.6324668  51.9057022
 140.4640012 141.2894997  54.0619988 140.1680012 141.1234997  53.1669988
 141.3960012 141.0694997  54.0509988 140.5494166 141.2370640  53.9380536
 134.5700012 141.6914997  38.5249988 135.1860012 142.3184997  38.9049988
 133.7080012 142.0074997  38.7969988 134.5377698 141.8199430  38.6137183
 140.2420012 144.4924997  43.5149988 140.0010012 145.4174997  43.5559988
 139.5010012 144.0334997  43.9109988 140.1088409 144.5571421  43.5741377
 144.3010012 144.7404997  49.5299988 143.8750012 144.5134997  50.3569988
 144.8810012 144.0024997  49.3479988 144.3211868 144.6095299  49.6185830
 135.0820012 136.5254997  51.4069988 134.1890012 136.8644997  51.3389988
 134.9830012 135.6704997  51.8249988 134.9464164 136.4562588  51.4542235
 135.9850012 143.6044997  40.0179988 135.2990012 143.9564997  40.5849988
 136.5070012 144.3674997  39.7709988 135.9616852 143.7558578  40.0622118
 143.8160012 136.2664997  50.2969988 144.5150012 136.3404997  50.9469988
 143.4350012 135.4024997  50.4509988 143.8601767 136.1597624  50.4068322
 144.6010012 135.9184997  41.3939988 144.8210012 136.3904997  40.5909988
 145.1590012 136.3134997  42.0639988 144.7064968 136.0364285  41.3747331
 141.8010012 137.6464997  42.2289988 142.6130012 138.1514997  42.2749988
 141.5560012 137.5014997  43.1429988 141.8790520 137.6960375  42.3588517
 142.3360012 138.6324997  51.4139988 142.4550012 139.2064997  52.1709988
 142.9920012 137.9444997  51.5279988 142.4409757 138.6181079  51.5330825
 142.6840012 134.7274997  43.1669988 142.3380012 135.3454997  43.8119988
 143.3430012 135.2284997  42.6859988 142.7257826 134.8795802  43.1900971
 138.3420012 135.7904997  39.8539988 138.2590012 136.6794997  40.2009988
 139.2320012 135.5254997  40.0859988 138.4509469 135.8761430  39.9327626
 134.9170012 138.8824997  38.0309988 134.8720012 139.8214997  38.2089988
 134.0290012 138.6464997  37.7609988 134.7908574 138.9791892  38.0188912
 135.7250012 133.6644997  46.7039988 135.4960012 133.7234997  45.7759988
 135.2820012 132.8724997  47.0099988 135.6338530 133.5655753  46.6184786
 133.8500012 144.0274997  55.1489988 133.9940012 143.1254997  54.8619988
 133.0780012 144.3134997  54.6609988 133.7653323 143.9428261  55.0437881
 138.1920012 144.3714997  37.2809988 138.2560012 143.5774997  37.8119988
 138.8450012 144.2524997  36.5909988 138.2890241 144.2467148  37.2604317
 140.5060012 143.9974997  54.5809988 140.1770012 144.2684997  53.7239988
 140.6580012 143.0564997  54.4939988 140.4814809 143.9073862  54.4518244
 134.6830012 141.2274997  54.5689988 135.0910012 140.3704997  54.4479988
 134.4230012 141.2424997  55.4899988 134.7037568 141.1120807  54.6769588
 139.3410012 142.3434997  39.5869988 138.8810012 141.8594997  40.2729988
 139.5960012 141.6754997  38.9509988 139.3124902 142.1868731  39.5949334
 138.6300012 140.2364997  51.9429988 138.0120012 140.9114997  52.2229988
 138.9740012 140.5574997  51.1099988 138.5919615 140.3722721  51.8686581
 140.4120012 140.5864997  37.8489988 140.2320012 140.4324997  36.9219988
 141.3620012 140.6944997  37.8939988 140.5157776 140.5800175  37.7281843
 143.6500012 142.7084997  55.2199988 144.6030012 142.7914997  55.1929988
 143.4890012 141.9964997  55.8399988 143.7586426 142.6236746  55.3000579
 138.9690012 137.5914997  53.0249988 139.1190012 136.8624997  52.4229988
 138.9720012 138.3684997  52.4659988 138.9899302 137.5967851  52.8670692
 139.3820012 135.9614997  50.5179988 139.9180012 136.4124997  49.8659988
 138.5300012 135.8534997  50.0949988 139.3402178 136.0086390  50.3715756
 140.9640012 141.4004997  50.7569988 141.7140012 141.2444997  50.1839988
 140.6250012 142.2524997  50.4819988 141.0208921 141.4942968  50.6413561
 137.4480012 138.7894997  54.9369988 136.6810012 138.2574997  54.7269988
 138.1270012 138.4794997  54.3369988 137.4347022 138.6747506  54.8271648
 140.1880012 133.4174997  50.9489988 140.0890012 134.3644997  50.8439988
 139.4450012 133.0454997  50.4739988 140.0740564 133.4965902  50.8704560
 141.4520012 137.7394997  54.5129988 141.2160012 137.5194997  55.4149988
 140.6680012 137.5324997  54.0029988 141.3138628 137.6814760  54.5673932
 144.1670012 136.8664997  53.5889988 143.2200012 136.8984997  53.7209988
 144.4800012 136.2414997  54.2419988 144.0795475 136.7863207  53.6954455
 135.6280012 136.7104997  54.6409988 135.8400012 136.0034997  54.0309988
 135.5170012 136.2724997  55.4849988 135.6419721 136.5547084  54.6716843
 140.4090012 132.7114997  53.6209988 141.1210012 132.0714997  53.6069988
 140.3080012 132.9784997  52.7069988 140.4927939 132.6599938  53.4955650
 140.7630012 134.3944997  55.6739988 140.6310012 133.9184997  54.8539988
 140.1640012 135.1384997  55.6189988 140.6639071 134.4299618  55.5542886
 133.4770012 142.4624997  47.6669988 133.6610012 142.3804997  46.7309988
 134.3260012 142.3384997  48.0909988 133.6170139 142.4345003  47.5961455
 133.0740012 137.7334997  53.8079988 133.9940012 137.6114997  54.0439988
 132.6250012 136.9834997  54.1969988 133.1391580 137.6153727  53.8929006
 134.2950012 136.0454997  46.6989988 134.7410012 135.2534997  47.0009988
 134.7620012 136.7614997  47.1299988 134.4190172 136.0340624  46.7984820
 132.5990012 139.0444997  47.7679988 133.0910012 138.8234997  46.9769988
 132.9620012 139.8854997  48.0489988 132.7153126 139.1278357  47.6977531
 132.9130012 135.3024997  41.8219988 131.9880012 135.5114997  41.6929988
 133.3670012 135.7864997  41.1329988 132.8477368 135.3965993  41.7111226
 132.8770012 134.0404997  50.1669988 132.2120012 133.7944997  50.8099988
 132.4340012 134.6624997  49.5889988 132.7260956 134.0908632  50.1769352
 143.0260012 134.9134997  46.1749988 142.3520012 134.2844997  46.4309988
 143.5900012 134.4294997  45.5719988 143.0099230 134.7618744  46.1285340
 135.3530012 133.5474997  43.9969988 134.5760012 133.3134997  43.4899988
 135.8830012 132.7504997  44.0059988 135.3182330 133.4076988  43.9287742
 134.1890012 133.3454997  39.8009988 134.6280012 133.9564997  39.2089988
 133.5560012 133.8834997  40.2749988 134.1634514 133.5019257  39.7840930
 139.9320012 133.4744997  43.8109988 140.8070012 133.8624997  43.7809988
 139.7960012 133.2594997  44.7329988 140.0333695 133.4985184  43.9316440
 136.0500012 135.2614997  38.2429988 136.5420012 134.6314997  37.7159988
 136.6740012 135.5574997  38.9069988 136.2015446 135.2153199  38.2605980
 141.0760012 135.5544997  40.6999988 141.2540012 134.9084997  41.3829988
 141.0230012 136.3884997  41.1679988 141.0931829 135.5787985  40.8565940
 135.3110012 134.0614997  53.5149988 134.9450012 133.2964997  53.9579988
 136.2240012 134.0904997  53.8019988 135.3842790 133.9607224  53.6144070
 137.2840012 133.4124997  55.0509988 138.1820012 133.1384997  54.8659988
 136.8970012 132.6694997  55.5149988 137.3546612 133.2745914  55.0883643
   1.2740012   7.6914997  61.7519988   0.8270012   8.5374997  61.7329988
   0.7130012   7.1114997  61.2359988   1.1369900   7.7289916  61.6796801
  12.2370012  13.3124997  61.8549988  11.9410012  12.9904997  61.0039988
  11.9120012  14.2124997  61.8959988  12.1526371  13.3900215  61.7441801
   1.9650012  13.1234997  60.1679988   1.6930012  13.3524997  59.2789988
   2.0110012  13.9614997  60.6279988   1.9340094  13.2681213  60.1085697
  15.0020012  14.4274997  62.0139988  14.7440012  13.7374997  61.4029988
  15.0730012  13.9844997  62.8599988  14.9762856  14.2732124  62.0446885
  11.1610012   9.9554997  60.2639988  10.4490012  10.4904997  59.9119988
  11.8520012  10.0114997  59.6039988  11.1570132  10.0362543  60.1266289
  11.2140012   8.4134997  57.3029988  11.9150012   8.4354997  57.9539988
  11.5170012   7.7854997  56.6469988  11.3507830   8.3316566  57.3033711
  13.4370012   9.3274997  58.9009988  14.0170012   9.4774997  59.6479988
  13.8510012   9.7984997  58.1779988  13.5722830   9.4116841  58.9054134
  11.1640012  16.0644997  62.3359988  11.6380012  16.3594997  63.1139988
  10.6010012  16.8024997  62.1029988  11.1527653  16.2046932  62.4110136
  17.1360012   1.0774997  58.7139988  16.2360012   1.2164997  59.0089988
  17.3880012   1.9084997  58.3119988  17.0468702   1.2089074  58.7000205
   5.2020012   9.8654997  60.6879988   4.9100012  10.6334997  60.1969988
   4.5280012   9.2054997  60.5249988   5.0709081   9.8814406  60.5987340
  18.3250012  15.4434997  57.0899988  18.3990012  16.3824997  57.2609988
  19.2310012  15.1384997  57.0339988  18.4575100  15.5306722  57.1058119
  13.7380012  18.1744997  57.7529988  14.1130012  17.4304997  57.2829988
  13.7420012  17.9044997  58.6719988  13.7898915  18.0361486  57.8127824
  14.9150012  10.3604997  56.5309988  14.9570012  10.1374997  55.6009988
  15.7640012  10.7594997  56.7209988  15.0355396  10.3839155  56.4293627
  10.4870012   4.2364997  57.2009988  10.2340012   4.2554997  58.1239988
  10.2310012   3.3644997  56.8999988  10.4177790   4.1212437  57.2866263
   7.3700012   4.6814997  56.3019988   6.9390012   4.2364997  57.0319988
   6.6520012   5.0534997  55.7899988   7.2139438   4.6708940  56.3326799
   1.8860012   5.1694997  58.7779988   2.3600012   5.7604997  58.1929988
   1.1690012   5.7004997  59.1249988   1.8539341   5.3220867  58.7448836
   7.3140012   6.2644997  60.1179988   8.2450012   6.3934997  60.2959988
   7.0990012   6.9344997  59.4679988   7.4124247   6.3726565  60.0545747
   5.9880012   7.4594997  57.6849988   5.4450012   7.0794997  56.9929988
   6.8210012   7.6534997  57.2559988   6.0264399   7.4338124  57.5324526
   9.3230012  12.0244997  59.6199988   8.5780012  11.5174997  59.2979988
   9.1890012  12.0734997  60.5669988   9.2028776  11.9616940  59.7038647
  13.2210012   4.8384997  57.8199988  12.2820012   4.9504997  57.6679988
  13.5180012   5.6954997  58.1259988  13.1327666   4.9696443  57.8405768
  13.9390012   6.7054997  59.4799988  14.8310012   6.5684997  59.7989988
  13.9960012   7.4964997  58.9439988  14.0686285   6.7936660  59.4511691
  11.4490012  13.4834997  58.6459988  11.1530012  14.3094997  59.0269988
  10.7460012  12.8634997  58.8419988  11.3134914  13.5128199  58.7246443
  18.8240012   6.9154997  59.1749988  18.2700012   6.5194997  58.5029988
  18.9240012   7.8254997  58.8969988  18.7617059   6.9843586  59.0454401
  17.1190012  15.7014997  59.6399988  16.7460012  14.8754997  59.9489988
  17.3970012  15.5184997  58.7429988  17.1055630  15.5637303  59.5609626
   2.5780012   9.6994997  57.3809988   3.1940012  10.3264997  57.7609988
   1.7160012  10.0154997  57.6529988   2.5457698   9.8279430  57.4697183
  14.5120012  13.6774997  57.4599988  14.8650012  13.2974997  58.2649988
  13.5630012  13.5844997  57.5469988  14.4320441  13.6129596  57.5818559
  19.0150012  18.1574997  57.6609988  19.7590012  18.7434997  57.5209988
  18.3210012  18.7254997  57.9949988  19.0230292  18.3145582  57.6869961
  15.3780012  12.3504997  59.6869988  15.1000012  11.6224997  60.2429988
  16.3050012  12.4694997  59.8919988  15.4653124  12.2668802  59.7908845
   8.6030012  14.7894997  55.9069988   8.8420012  14.0414997  55.3599988
   8.3340012  14.4014997  56.7399988   8.5993675  14.6346638  55.9446865
   7.5400012  14.3594997  58.3639988   7.6860012  13.8394997  59.1539988
   7.5370012  15.2664997  58.6699988   7.5595989  14.4108853  58.5136088
   3.9930012  11.6124997  58.8739988   3.3070012  11.9644997  59.4409988
   4.5150012  12.3754997  58.6269988   3.9696852  11.7638578  58.9182118
  12.6090012   3.9264997  60.2499988  12.8290012   4.3984997  59.4469988
  13.1670012   4.3214997  60.9199988  12.7144968   4.0444285  60.2307331
  10.2770012  16.0574997  59.1129988   9.4610012  16.5544997  59.1649988
  10.8070012  16.5324997  58.4729988  10.2369161  16.1897722  59.0335956
   9.8090012   5.6544997  61.0849988  10.6210012   6.1594997  61.1309988
   9.5640012   5.5094997  61.9989988   9.8870520   5.7040375  61.2148517
   6.3500012   3.7984997  58.7099988   6.2670012   4.6874997  59.0569988
   7.2400012   3.5334997  58.9419988   6.4589469   3.8841430  58.7887626
   4.6090012  14.2264997  57.7709988   5.2010012  14.9254997  58.0469988
   5.0680012  13.7934997  57.0509988   4.7521142  14.2637049  57.7114830
   2.9250012   6.8904997  56.8869988   2.8800012   7.8294997  57.0649988
   2.0370012   6.6544997  56.6169988   2.7988574   6.9871892  56.8748912
   2.6630012  15.6124997  61.7199988   1.8310012  16.0854997  61.7479988
   3.2090012  16.1224997  61.1219988   2.6229739  15.7461871  61.6429716
  10.6410012  16.6524997  56.0459988   9.9970012  16.0214997  56.3669988
  11.4030012  16.1214997  55.8139988  10.6558077  16.4942920  56.0586011
  15.2450012  16.4694997  56.2799988  15.5280012  15.6754997  56.7319988
  15.9850012  16.7024997  55.7189988  15.3837486  16.3922803  56.2660698
   6.2000012  12.3794997  56.1369988   6.2640012  11.5854997  56.6679988
   6.8530012  12.2604997  55.4469988   6.2970241  12.2547148  56.1164317
  11.5520012  13.4264997  55.8729988  11.2830012  13.6064997  56.7739988
  11.3460012  12.5004997  55.7419988  11.4873825  13.3260152  55.9785214
   7.3490012  10.3514997  58.4429988   6.8890012   9.8674997  59.1289988
   7.6040012   9.6834997  57.8069988   7.3204902  10.1948731  58.4509334
   8.4200012   8.5944997  56.7049988   8.2400012   8.4404997  55.7779988
   9.3700012   8.7024997  56.7499988   8.5237776   8.5880175  56.5841843
  17.8100012  10.9494997  56.1509988  17.5360012  10.5244997  55.3379988
  17.8490012  11.8804997  55.9339988  17.7777699  11.0172484  56.0103610
   8.3170012  19.2854997  57.7069988   9.2500012  19.4434997  57.8499988
   8.0530012  19.9604997  57.0819988   8.4089510  19.3983611  57.6420741
   1.8860012  13.9214997  57.1889988   2.8000012  14.0004997  57.4629988
   1.8930012  13.2344997  56.5229988   2.0121131  13.8393961  57.1364393
   0.5350012  19.3144997  62.2669988  -0.1119988  18.8524997  61.7339988
   0.8890012  18.6424997  62.8489988   0.4943849  19.1604723  62.2727959
  18.9310012   9.7724997  58.3409988  18.4090012  10.1294997  57.6219988
  18.8980012  10.4474997  59.0189988  18.8551634   9.9125413  58.3343145
  17.2800012   7.0124997  56.8919988  17.3760012   7.6794997  56.2109988
  17.1400012   6.1964997  56.4099988  17.2742135   6.9934500  56.7338491
  16.5270012   4.4204997  56.0089988  17.1380012   4.0494997  56.6459988
  15.6910012   3.9994997  56.2049988  16.4975032   4.3127554  56.1227035
  16.7730012   3.2384997  61.0229988  16.9560012   2.7894997  61.8489988
  16.1740012   2.6534997  60.5599988  16.7170202   3.0979975  61.0733275
  18.6400012   3.3054997  57.5509988  19.0520012   2.5844997  57.0759988
  19.3220012   3.9754997  57.6099988  18.7885885   3.2972368  57.4938915
   0.9210012   3.3104997  60.6779988  -0.0039988   3.5194997  60.5489988
   1.3750012   3.7944997  59.9889988   0.8557368   3.4045993  60.5671226
   2.1970012   1.3534997  58.6569988   2.6360012   1.9644997  58.0649988
   1.5640012   1.8914997  59.1309988   2.1714514   1.5099257  58.6400930
  14.8500012   1.5384997  60.0079988  14.1480012   2.1534997  59.7989988
  14.4060012   0.7004997  60.1389988  14.6936330   1.5095783  59.9970328
   2.0980012  17.3014997  59.5549988   1.4130012  17.2634997  58.8869988
   2.1020012  18.2144997  59.8429988   2.0048193  17.4197016  59.5025284
   4.0580012   3.2694997  57.0989988   4.5500012   2.6394997  56.5719988
   4.6820012   3.5654997  57.7629988   4.2095446   3.2233199  57.1165980
   9.0840012   3.5624997  59.5559988   9.2620012   2.9164997  60.2389988
   9.0310012   4.3964997  60.0239988   9.1011829   3.5867985  59.7125940
  10.9630012  18.5114997  57.9519988  11.8290012  18.8774997  57.7739988
  10.7160012  18.0714997  57.1379988  11.0482392  18.5021756  57.8176289
  17.6720012  18.0744997  60.6309988  17.4770012  17.3264997  60.0659988
  17.6330012  18.8324997  60.0479988  17.6400380  18.0746099  60.4748384
   3.9160012  18.2214997  56.5799988   3.6490012  18.5084997  57.4529988
   4.6880012  17.6754997  56.7319988   3.9837488  18.1870294  56.7201050
  20.8210012  13.1234997  60.1679988  20.5490012  13.3524997  59.2789988
  20.8670012  13.9614997  60.6279988  20.7900094  13.2681213  60.1085697
  33.8580012  14.4274997  62.0139988  33.6000012  13.7374997  61.4029988
  33.9290012  13.9844997  62.8599988  33.8322856  14.2732124  62.0446885
  30.0700012   8.4134997  57.3029988  30.7710012   8.4354997  57.9539988
  30.3730012   7.7854997  56.6469988  30.2067830   8.3316566  57.3033711
  35.9920012   1.0774997  58.7139988  35.0920012   1.2164997  59.0089988
  36.2440012   1.9084997  58.3119988  35.9028702   1.2089074  58.7000205
  24.0580012   9.8654997  60.6879988  23.7660012  10.6334997  60.1969988
  23.3840012   9.2054997  60.5249988  23.9269081   9.8814406  60.5987340
  37.1810012  15.4434997  57.0899988  37.2550012  16.3824997  57.2609988
  38.0870012  15.1384997  57.0339988  37.3135100  15.5306722  57.1058119
  32.5940012  18.1744997  57.7529988  32.9690012  17.4304997  57.2829988
  32.5980012  17.9044997  58.6719988  32.6458915  18.0361486  57.8127824
  32.2630012  18.1004997  60.5029988  31.3270012  18.2004997  60.6809988
  32.5430012  17.3914997  61.0809988  32.1728255  18.0182711  60.6055391
  33.7710012  10.3604997  56.5309988  33.8130012  10.1374997  55.6009988
  34.6200012  10.7594997  56.7209988  33.8915396  10.3839155  56.4293627
  29.3430012   4.2364997  57.2009988  29.0900012   4.2554997  58.1239988
  29.0870012   3.3644997  56.8999988  29.2737790   4.1212437  57.2866263
  26.2260012   4.6814997  56.3019988  25.7950012   4.2364997  57.0319988
  25.5080012   5.0534997  55.7899988  26.0699438   4.6708940  56.3326799
  20.7420012   5.1694997  58.7779988  21.2160012   5.7604997  58.1929988
  20.0250012   5.7004997  59.1249988  20.7099341   5.3220867  58.7448836
  24.8440012   7.4594997  57.6849988  24.3010012   7.0794997  56.9929988
  25.6770012   7.6534997  57.2559988  24.8824399   7.4338124  57.5324526
  28.1790012  12.0244997  59.6199988  27.4340012  11.5174997  59.2979988
  28.0450012  12.0734997  60.5669988  28.0588776  11.9616940  59.7038647
  32.0770012   4.8384997  57.8199988  31.1380012   4.9504997  57.6679988
  32.3740012   5.6954997  58.1259988  31.9887666   4.9696443  57.8405768
  32.7950012   6.7054997  59.4799988  33.6870012   6.5684997  59.7989988
  32.8520012   7.4964997  58.9439988  32.9246285   6.7936660  59.4511691
  30.3050012  13.4834997  58.6459988  30.0090012  14.3094997  59.0269988
  29.6020012  12.8634997  58.8419988  30.1694914  13.5128199  58.7246443
  37.6800012   6.9154997  59.1749988  37.1260012   6.5194997  58.5029988
  37.7800012   7.8254997  58.8969988  37.6177059   6.9843586  59.0454401
  35.9750012  15.7014997  59.6399988  35.6020012  14.8754997  59.9489988
  36.2530012  15.5184997  58.7429988  35.9615630  15.5637303  59.5609626
  21.4340012   9.6994997  57.3809988  22.0500012  10.3264997  57.7609988
  20.5720012  10.0154997  57.6529988  21.4017698   9.8279430  57.4697183
  25.7890012  17.5224997  61.9159988  24.8390012  17.6274997  61.9669988
  26.1410012  18.3424997  62.2609988  25.7064203  17.6478314  61.9696650
  33.3680012  13.6774997  57.4599988  33.7210012  13.2974997  58.2649988
  32.4190012  13.5844997  57.5469988  33.2880441  13.6129596  57.5818559
  37.8710012  18.1574997  57.6609988  38.6150012  18.7434997  57.5209988
  37.1770012  18.7254997  57.9949988  37.8790292  18.3145582  57.6869961
  34.2340012  12.3504997  59.6869988  33.9560012  11.6224997  60.2429988
  35.1610012  12.4694997  59.8919988  34.3213124  12.2668802  59.7908845
  27.4590012  14.7894997  55.9069988  27.6980012  14.0414997  55.3599988
  27.1900012  14.4014997  56.7399988  27.4553675  14.6346638  55.9446865
  26.3960012  14.3594997  58.3639988  26.5420012  13.8394997  59.1539988
  26.3930012  15.2664997  58.6699988  26.4155989  14.4108853  58.5136088
  22.8490012  11.6124997  58.8739988  22.1630012  11.9644997  59.4409988
  23.3710012  12.3754997  58.6269988  22.8256852  11.7638578  58.9182118
  29.1330012  16.0574997  59.1129988  28.3170012  16.5544997  59.1649988
  29.6630012  16.5324997  58.4729988  29.0929161  16.1897722  59.0335956
  26.4720012  17.1014997  59.0949988  26.6320012  17.9004997  58.5939988
  26.2740012  17.4074997  59.9799988  26.4671649  17.2524469  59.1459815
  25.2060012   3.7984997  58.7099988  25.1230012   4.6874997  59.0569988
  26.0960012   3.5334997  58.9419988  25.3149469   3.8841430  58.7887626
  23.4650012  14.2264997  57.7709988  24.0570012  14.9254997  58.0469988
  23.9240012  13.7934997  57.0509988  23.6081142  14.2637049  57.7114830
  21.7810012   6.8904997  56.8869988  21.7360012   7.8294997  57.0649988
  20.8930012   6.6544997  56.6169988  21.6548574   6.9871892  56.8748912
  29.4970012  16.6524997  56.0459988  28.8530012  16.0214997  56.3669988
  30.2590012  16.1214997  55.8139988  29.5118077  16.4942920  56.0586011
  34.1010012  16.4694997  56.2799988  34.3840012  15.6754997  56.7319988
  34.8410012  16.7024997  55.7189988  34.2397486  16.3922803  56.2660698
  25.0560012  12.3794997  56.1369988  25.1200012  11.5854997  56.6679988
  25.7090012  12.2604997  55.4469988  25.1530241  12.2547148  56.1164317
  30.4080012  13.4264997  55.8729988  30.1390012  13.6064997  56.7739988
  30.2020012  12.5004997  55.7419988  30.3433825  13.3260152  55.9785214
  26.2050012  10.3514997  58.4429988  25.7450012   9.8674997  59.1289988
  26.4600012   9.6834997  57.8069988  26.1764902  10.1948731  58.4509334
  27.2760012   8.5944997  56.7049988  27.0960012   8.4404997  55.7779988
  28.2260012   8.7024997  56.7499988  27.3797776   8.5880175  56.5841843
  36.6660012  10.9494997  56.1509988  36.3920012  10.5244997  55.3379988
  36.7050012  11.8804997  55.9339988  36.6337699  11.0172484  56.0103610
  27.1730012  19.2854997  57.7069988  28.1060012  19.4434997  57.8499988
  26.9090012  19.9604997  57.0819988  27.2649510  19.3983611  57.6420741
  20.7420012  13.9214997  57.1889988  21.6560012  14.0004997  57.4629988
  20.7490012  13.2344997  56.5229988  20.8681131  13.8393961  57.1364393
  37.1240012  11.8184997  60.1259988  37.9740012  12.2394997  60.2529988
  37.1300012  11.0784997  60.7329988  37.2411372  11.7760803  60.2254344
  37.7870012   9.7724997  58.3409988  37.2650012  10.1294997  57.6219988
  37.7540012  10.4474997  59.0189988  37.7111634   9.9125413  58.3343145
  36.1360012   7.0124997  56.8919988  36.2320012   7.6794997  56.2109988
  35.9960012   6.1964997  56.4099988  36.1302135   6.9934500  56.7338491
  35.3830012   4.4204997  56.0089988  35.9940012   4.0494997  56.6459988
  34.5470012   3.9994997  56.2049988  35.3535032   4.3127554  56.1227035
  35.6290012   3.2384997  61.0229988  35.8120012   2.7894997  61.8489988
  35.0300012   2.6534997  60.5599988  35.5730202   3.0979975  61.0733275
  37.4960012   3.3054997  57.5509988  37.9080012   2.5844997  57.0759988
  38.1780012   3.9754997  57.6099988  37.6445885   3.2972368  57.4938915
  19.7770012   3.3104997  60.6779988  18.8520012   3.5194997  60.5489988
  20.2310012   3.7944997  59.9889988  19.7117368   3.4045994  60.5671226
  21.0530012   1.3534997  58.6569988  21.4920012   1.9644997  58.0649988
  20.4200012   1.8914997  59.1309988  21.0274514   1.5099257  58.6400930
  33.7060012   1.5384997  60.0079988  33.0040012   2.1534997  59.7989988
  33.2620012   0.7004997  60.1389988  33.5496330   1.5095783  59.9970328
  20.9540012  17.3014997  59.5549988  20.2690012  17.2634997  58.8869988
  20.9580012  18.2144997  59.8429988  20.8608193  17.4197016  59.5025284
  22.9140012   3.2694997  57.0989988  23.4060012   2.6394997  56.5719988
  23.5380012   3.5654997  57.7629988  23.0655446   3.2233199  57.1165980
  27.9400012   3.5624997  59.5559988  28.1180012   2.9164997  60.2389988
  27.8870012   4.3964997  60.0239988  27.9571829   3.5867985  59.7125940
  29.8190012  18.5114997  57.9519988  30.6850012  18.8774997  57.7739988
  29.5720012  18.0714997  57.1379988  29.9042392  18.5021756  57.8176289
  22.7720012  18.2214997  56.5799988  22.5050012  18.5084997  57.4529988
  23.5440012  17.6754997  56.7319988  22.8397488  18.1870294  56.7201050
  48.8730012   9.9554997  60.2639988  48.1610012  10.4904997  59.9119988
  49.5640012  10.0114997  59.6039988  48.8690132  10.0362543  60.1266289
  48.9260012   8.4134997  57.3029988  49.6270012   8.4354997  57.9539988
  49.2290012   7.7854997  56.6469988  49.0627830   8.3316566  57.3033711
  51.1490012   9.3274997  58.9009988  51.7290012   9.4774997  59.6479988
  51.5630012   9.7984997  58.1779988  51.2842830   9.4116841  58.9054134
  54.8480012   1.0774997  58.7139988  53.9480012   1.2164997  59.0089988
  55.1000012   1.9084997  58.3119988  54.7588702   1.2089074  58.7000205
  56.0370012  15.4434997  57.0899988  56.1110012  16.3824997  57.2609988
  56.9430012  15.1384997  57.0339988  56.1695100  15.5306722  57.1058119
  48.3480012  19.0204997  60.7509988  48.2730012  18.8994997  59.8049988
  48.3810012  19.9704997  60.8699988  48.3421848  19.1322500  60.6374834
  51.4500012  18.1744997  57.7529988  51.8250012  17.4304997  57.2829988
  51.4540012  17.9044997  58.6719988  51.5018915  18.0361486  57.8127824
  51.1190012  18.1004997  60.5029988  50.1830012  18.2004997  60.6809988
  51.3990012  17.3914997  61.0809988  51.0288255  18.0182711  60.6055391
  52.6270012  10.3604997  56.5309988  52.6690012  10.1374997  55.6009988
  53.4760012  10.7594997  56.7209988  52.7475396  10.3839155  56.4293627
  48.1990012   4.2364997  57.2009988  47.9460012   4.2554997  58.1239988
  47.9430012   3.3644997  56.8999988  48.1297790   4.1212437  57.2866263
  49.4980012   7.6244997  61.3649988  49.0890012   8.4394997  61.0739988
  50.2190012   7.4844997  60.7509988  49.5394537   7.7172018  61.2421342
  45.0820012   4.6814997  56.3019988  44.6510012   4.2364997  57.0319988
  44.3640012   5.0534997  55.7899988  44.9259438   4.6708940  56.3326799
  39.5980012   5.1694997  58.7779988  40.0720012   5.7604997  58.1929988
  38.8810012   5.7004997  59.1249988  39.5659341   5.3220867  58.7448836
  45.0260012   6.2644997  60.1179988  45.9570012   6.3934997  60.2959988
  44.8110012   6.9344997  59.4679988  45.1244247   6.3726565  60.0545747
  43.7000012   7.4594997  57.6849988  43.1570012   7.0794997  56.9929988
  44.5330012   7.6534997  57.2559988  43.7384399   7.4338124  57.5324526
  50.9330012   4.8384997  57.8199988  49.9940012   4.9504997  57.6679988
  51.2300012   5.6954997  58.1259988  50.8447666   4.9696443  57.8405768
  51.6510012   6.7054997  59.4799988  52.5430012   6.5684997  59.7989988
  51.7080012   7.4964997  58.9439988  51.7806285   6.7936660  59.4511691
  49.1610012  13.4834997  58.6459988  48.8650012  14.3094997  59.0269988
  48.4580012  12.8634997  58.8419988  49.0254914  13.5128199  58.7246443
  56.5360012   6.9154997  59.1749988  55.9820012   6.5194997  58.5029988
  56.6360012   7.8254997  58.8969988  56.4737059   6.9843586  59.0454401
  54.8310012  15.7014997  59.6399988  54.4580012  14.8754997  59.9489988
  55.1090012  15.5184997  58.7429988  54.8175630  15.5637303  59.5609626
  40.2900012   9.6994997  57.3809988  40.9060012  10.3264997  57.7609988
  39.4280012  10.0154997  57.6529988  40.2577698   9.8279430  57.4697183
  52.2240012  13.6774997  57.4599988  52.5770012  13.2974997  58.2649988
  51.2750012  13.5844997  57.5469988  52.1440441  13.6129596  57.5818559
  56.7270012  18.1574997  57.6609988  57.4710012  18.7434997  57.5209988
  56.0330012  18.7254997  57.9949988  56.7350292  18.3145582  57.6869961
  53.0900012  12.3504997  59.6869988  52.8120012  11.6224997  60.2429988
  54.0170012  12.4694997  59.8919988  53.1773124  12.2668802  59.7908845
  46.3150012  14.7894997  55.9069988  46.5540012  14.0414997  55.3599988
  46.0460012  14.4014997  56.7399988  46.3113675  14.6346638  55.9446865
  45.2520012  14.3594997  58.3639988  45.3980012  13.8394997  59.1539988
  45.2490012  15.2664997  58.6699988  45.2715989  14.4108853  58.5136088
  41.7050012  11.6124997  58.8739988  41.0190012  11.9644997  59.4409988
  42.2270012  12.3754997  58.6269988  41.6816852  11.7638578  58.9182118
  50.3210012   3.9264997  60.2499988  50.5410012   4.3984997  59.4469988
  50.8790012   4.3214997  60.9199988  50.4264968   4.0444285  60.2307331
  47.9890012  16.0574997  59.1129988  47.1730012  16.5544997  59.1649988
  48.5190012  16.5324997  58.4729988  47.9489161  16.1897722  59.0335956
  47.5210012   5.6544997  61.0849988  48.3330012   6.1594997  61.1309988
  47.2760012   5.5094997  61.9989988  47.5990520   5.7040375  61.2148517
  45.3280012  17.1014997  59.0949988  45.4880012  17.9004997  58.5939988
  45.1300012  17.4074997  59.9799988  45.3231649  17.2524469  59.1459815
  42.3210012  14.2264997  57.7709988  42.9130012  14.9254997  58.0469988
  42.7800012  13.7934997  57.0509988  42.4641142  14.2637049  57.7114830
  40.6370012   6.8904997  56.8869988  40.5920012   7.8294997  57.0649988
  39.7490012   6.6544997  56.6169988  40.5108574   6.9871892  56.8748912
  48.3530012  16.6524997  56.0459988  47.7090012  16.0214997  56.3669988
  49.1150012  16.1214997  55.8139988  48.3678077  16.4942920  56.0586011
  52.9570012  16.4694997  56.2799988  53.2400012  15.6754997  56.7319988
  53.6970012  16.7024997  55.7189988  53.0957486  16.3922803  56.2660698
  43.9120012  12.3794997  56.1369988  43.9760012  11.5854997  56.6679988
  44.5650012  12.2604997  55.4469988  44.0090241  12.2547148  56.1164317
  49.2640012  13.4264997  55.8729988  48.9950012  13.6064997  56.7739988
  49.0580012  12.5004997  55.7419988  49.1993825  13.3260152  55.9785214
  45.0610012  10.3514997  58.4429988  44.6010012   9.8674997  59.1289988
  45.3160012   9.6834997  57.8069988  45.0324902  10.1948731  58.4509334
  46.1320012   8.5944997  56.7049988  45.9520012   8.4404997  55.7779988
  47.0820012   8.7024997  56.7499988  46.2357776   8.5880175  56.5841843
  55.5220012  10.9494997  56.1509988  55.2480012  10.5244997  55.3379988
  55.5610012  11.8804997  55.9339988  55.4897699  11.0172484  56.0103610
  46.0290012  19.2854997  57.7069988  46.9620012  19.4434997  57.8499988
  45.7650012  19.9604997  57.0819988  46.1209510  19.3983611  57.6420741
  39.5980012  13.9214997  57.1889988  40.5120012  14.0004997  57.4629988
  39.6050012  13.2344997  56.5229988  39.7241131  13.8393961  57.1364393
  55.9800012  11.8184997  60.1259988  56.8300012  12.2394997  60.2529988
  55.9860012  11.0784997  60.7329988  56.0971372  11.7760803  60.2254344
  56.6430012   9.7724997  58.3409988  56.1210012  10.1294997  57.6219988
  56.6100012  10.4474997  59.0189988  56.5671634   9.9125413  58.3343145
  54.9920012   7.0124997  56.8919988  55.0880012   7.6794997  56.2109988
  54.8520012   6.1964997  56.4099988  54.9862135   6.9934500  56.7338491
  54.2390012   4.4204997  56.0089988  54.8500012   4.0494997  56.6459988
  53.4030012   3.9994997  56.2049988  54.2095032   4.3127554  56.1227035
  54.4850012   3.2384997  61.0229988  54.6680012   2.7894997  61.8489988
  53.8860012   2.6534997  60.5599988  54.4290202   3.0979975  61.0733275
  56.3520012   3.3054997  57.5509988  56.7640012   2.5844997  57.0759988
  57.0340012   3.9754997  57.6099988  56.5005885   3.2972368  57.4938915
  38.6330012   3.3104997  60.6779988  37.7080012   3.5194997  60.5489988
  39.0870012   3.7944997  59.9889988  38.5677368   3.4045993  60.5671226
  39.9090012   1.3534997  58.6569988  40.3480012   1.9644997  58.0649988
  39.2760012   1.8914997  59.1309988  39.8834514   1.5099257  58.6400930
  52.5620012   1.5384997  60.0079988  51.8600012   2.1534997  59.7989988
  52.1180012   0.7004997  60.1389988  52.4056330   1.5095783  59.9970328
  39.8100012  17.3014997  59.5549988  39.1250012  17.2634997  58.8869988
  39.8140012  18.2144997  59.8429988  39.7168193  17.4197016  59.5025284
  41.7700012   3.2694997  57.0989988  42.2620012   2.6394997  56.5719988
  42.3940012   3.5654997  57.7629988  41.9215446   3.2233199  57.1165980
  48.6750012  18.5114997  57.9519988  49.5410012  18.8774997  57.7739988
  48.4280012  18.0714997  57.1379988  48.7602392  18.5021756  57.8176289
  55.3840012  18.0744997  60.6309988  55.1890012  17.3264997  60.0659988
  55.3450012  18.8324997  60.0479988  55.3520380  18.0746099  60.4748384
  41.6280012  18.2214997  56.5799988  41.3610012  18.5084997  57.4529988
  42.4000012  17.6754997  56.7319988  41.6957488  18.1870294  56.7201050
  68.8050012  13.3124997  61.8549988  68.5090012  12.9904997  61.0039988
  68.4800012  14.2124997  61.8959988  68.7206371  13.3900215  61.7441801
  67.7820012   8.4134997  57.3029988  68.4830012   8.4354997  57.9539988
  68.0850012   7.7854997  56.6469988  67.9187830   8.3316566  57.3033711
  71.1340012  10.1654997  61.2159988  70.4020012  10.3934997  61.7889988
  71.5820012   9.4514997  61.6709988  71.0943095  10.1002571  61.3559119
  73.7040012   1.0774997  58.7139988  72.8040012   1.2164997  59.0089988
  73.9560012   1.9084997  58.3119988  73.6148702   1.2089074  58.7000205
  61.7700012   9.8654997  60.6879988  61.4780012  10.6334997  60.1969988
  61.0960012   9.2054997  60.5249988  61.6389081   9.8814406  60.5987340
  74.8930012  15.4434997  57.0899988  74.9670012  16.3824997  57.2609988
  75.7990012  15.1384997  57.0339988  75.0255100  15.5306722  57.1058119
  70.3060012  18.1744997  57.7529988  70.6810012  17.4304997  57.2829988
  70.3100012  17.9044997  58.6719988  70.3578915  18.0361486  57.8127824
  71.4830012  10.3604997  56.5309988  71.5250012  10.1374997  55.6009988
  72.3320012  10.7594997  56.7209988  71.6035396  10.3839155  56.4293627
  67.0550012   4.2364997  57.2009988  66.8020012   4.2554997  58.1239988
  66.7990012   3.3644997  56.8999988  66.9857790   4.1212437  57.2866263
  63.9380012   4.6814997  56.3019988  63.5070012   4.2364997  57.0319988
  63.2200012   5.0534997  55.7899988  63.7819438   4.6708940  56.3326799
  58.4540012   5.1694997  58.7779988  58.9280012   5.7604997  58.1929988
  57.7370012   5.7004997  59.1249988  58.4219341   5.3220867  58.7448836
  63.8820012   6.2644997  60.1179988  64.8130012   6.3934997  60.2959988
  63.6670012   6.9344997  59.4679988  63.9804247   6.3726565  60.0545747
  62.5560012   7.4594997  57.6849988  62.0130012   7.0794997  56.9929988
  63.3890012   7.6534997  57.2559988  62.5944399   7.4338124  57.5324526
  65.8910012  12.0244997  59.6199988  65.1460012  11.5174997  59.2979988
  65.7570012  12.0734997  60.5669988  65.7708776  11.9616940  59.7038647
  69.7890012   4.8384997  57.8199988  68.8500012   4.9504997  57.6679988
  70.0860012   5.6954997  58.1259988  69.7007666   4.9696443  57.8405768
  68.0170012  13.4834997  58.6459988  67.7210012  14.3094997  59.0269988
  67.3140012  12.8634997  58.8419988  67.8814914  13.5128199  58.7246443
  75.3920012   6.9154997  59.1749988  74.8380012   6.5194997  58.5029988
  75.4920012   7.8254997  58.8969988  75.3297059   6.9843586  59.0454401
  59.1460012   9.6994997  57.3809988  59.7620012  10.3264997  57.7609988
  58.2840012  10.0154997  57.6529988  59.1137698   9.8279430  57.4697183
  71.0800012  13.6774997  57.4599988  71.4330012  13.2974997  58.2649988
  70.1310012  13.5844997  57.5469988  71.0000441  13.6129596  57.5818559
  75.5830012  18.1574997  57.6609988  76.3270012  18.7434997  57.5209988
  74.8890012  18.7254997  57.9949988  75.5910292  18.3145582  57.6869961
  65.1710012  14.7894997  55.9069988  65.4100012  14.0414997  55.3599988
  64.9020012  14.4014997  56.7399988  65.1673675  14.6346638  55.9446865
  64.1080012  14.3594997  58.3639988  64.2540012  13.8394997  59.1539988
  64.1050012  15.2664997  58.6699988  64.1275989  14.4108853  58.5136088
  60.5610012  11.6124997  58.8739988  59.8750012  11.9644997  59.4409988
  61.0830012  12.3754997  58.6269988  60.5376852  11.7638578  58.9182118
  69.1770012   3.9264997  60.2499988  69.3970012   4.3984997  59.4469988
  69.7350012   4.3214997  60.9199988  69.2824968   4.0444285  60.2307331
  67.2600012   2.7354997  62.0229988  66.9140012   3.3534997  62.6679988
  67.9190012   3.2364997  61.5419988  67.3017826   2.8875802  62.0460971
  62.9180012   3.7984997  58.7099988  62.8350012   4.6874997  59.0569988
  63.8080012   3.5334997  58.9419988  63.0269469   3.8841430  58.7887626
  61.1770012  14.2264997  57.7709988  61.7690012  14.9254997  58.0469988
  61.6360012  13.7934997  57.0509988  61.3201142  14.2637049  57.7114830
  59.4930012   6.8904997  56.8869988  59.4480012   7.8294997  57.0649988
  58.6050012   6.6544997  56.6169988  59.3668574   6.9871892  56.8748912
  67.2090012  16.6524997  56.0459988  66.5650012  16.0214997  56.3669988
  67.9710012  16.1214997  55.8139988  67.2238077  16.4942920  56.0586011
  71.8130012  16.4694997  56.2799988  72.0960012  15.6754997  56.7319988
  72.5530012  16.7024997  55.7189988  71.9517486  16.3922803  56.2660698
  62.7680012  12.3794997  56.1369988  62.8320012  11.5854997  56.6679988
  63.4210012  12.2604997  55.4469988  62.8650241  12.2547148  56.1164317
  68.1200012  13.4264997  55.8729988  67.8510012  13.6064997  56.7739988
  67.9140012  12.5004997  55.7419988  68.0553825  13.3260152  55.9785214
  63.9170012  10.3514997  58.4429988  63.4570012   9.8674997  59.1289988
  64.1720012   9.6834997  57.8069988  63.8884902  10.1948731  58.4509334
  64.9880012   8.5944997  56.7049988  64.8080012   8.4404997  55.7779988
  65.9380012   8.7024997  56.7499988  65.0917776   8.5880175  56.5841843
  74.3780012  10.9494997  56.1509988  74.1040012  10.5244997  55.3379988
  74.4170012  11.8804997  55.9339988  74.3457699  11.0172484  56.0103610
  64.8850012  19.2854997  57.7069988  65.8180012  19.4434997  57.8499988
  64.6210012  19.9604997  57.0819988  64.9769510  19.3983611  57.6420741
  58.4540012  13.9214997  57.1889988  59.3680012  14.0004997  57.4629988
  58.4610012  13.2344997  56.5229988  58.5801131  13.8393961  57.1364393
  75.2310012   9.8714997  61.9499988  74.5040012   9.3924997  62.3469988
  75.8120012  10.0774997  62.6819988  75.2099375   9.8337090  62.1034129
  75.4990012   9.7724997  58.3409988  74.9770012  10.1294997  57.6219988
  75.4660012  10.4474997  59.0189988  75.4231634   9.9125413  58.3343145
  73.8480012   7.0124997  56.8919988  73.9440012   7.6794997  56.2109988
  73.7080012   6.1964997  56.4099988  73.8422135   6.9934500  56.7338491
  73.0950012   4.4204997  56.0089988  73.7060012   4.0494997  56.6459988
  72.2590012   3.9994997  56.2049988  73.0655032   4.3127554  56.1227035
  75.2080012   3.3054997  57.5509988  75.6200012   2.5844997  57.0759988
  75.8900012   3.9754997  57.6099988  75.3565885   3.2972368  57.4938915
  57.4890012   3.3104997  60.6779988  56.5640012   3.5194997  60.5489988
  57.9430012   3.7944997  59.9889988  57.4237368   3.4045993  60.5671226
  58.7650012   1.3534997  58.6569988  59.2040012   1.9644997  58.0649988
  58.1320012   1.8914997  59.1309988  58.7394514   1.5099257  58.6400930
  71.4180012   1.5384997  60.0079988  70.7160012   2.1534997  59.7989988
  70.9740012   0.7004997  60.1389988  71.2616330   1.5095783  59.9970328
  58.6660012  17.3014997  59.5549988  57.9810012  17.2634997  58.8869988
  58.6700012  18.2144997  59.8429988  58.5728193  17.4197016  59.5025284
  60.6260012   3.2694997  57.0989988  61.1180012   2.6394997  56.5719988
  61.2500012   3.5654997  57.7629988  60.7775446   3.2233199  57.1165980
  65.6520012   3.5624997  59.5559988  65.8300012   2.9164997  60.2389988
  65.5990012   4.3964997  60.0239988  65.6691829   3.5867985  59.7125940
  74.2400012  18.0744997  60.6309988  74.0450012  17.3264997  60.0659988
  74.2010012  18.8324997  60.0479988  74.2080380  18.0746099  60.4748384
  60.4840012  18.2214997  56.5799988  60.2170012  18.5084997  57.4529988
  61.2560012  17.6754997  56.7319988  60.5517488  18.1870294  56.7201050
  76.6980012   7.6914997  61.7519988  76.2510012   8.5374997  61.7329988
  76.1370012   7.1114997  61.2359988  76.5609900   7.7289916  61.6796801
  86.5850012   9.9554997  60.2639988  85.8730012  10.4904997  59.9119988
  87.2760012  10.0114997  59.6039988  86.5810132  10.0362543  60.1266289
  86.6380012   8.4134997  57.3029988  87.3390012   8.4354997  57.9539988
  86.9410012   7.7854997  56.6469988  86.7747830   8.3316566  57.3033711
  89.9900012  10.1654997  61.2159988  89.2580012  10.3934997  61.7889988
  90.4380012   9.4514997  61.6709988  89.9503095  10.1002571  61.3559119
  88.8610012   9.3274997  58.9009988  89.4410012   9.4774997  59.6479988
  89.2750012   9.7984997  58.1779988  88.9962830   9.4116841  58.9054134
  92.5600012   1.0774997  58.7139988  91.6600012   1.2164997  59.0089988
  92.8120012   1.9084997  58.3119988  92.4708702   1.2089074  58.7000205
  93.7490012  15.4434997  57.0899988  93.8230012  16.3824997  57.2609988
  94.6550012  15.1384997  57.0339988  93.8815100  15.5306722  57.1058119
  89.1620012  18.1744997  57.7529988  89.5370012  17.4304997  57.2829988
  89.1660012  17.9044997  58.6719988  89.2138915  18.0361486  57.8127824
  88.8310012  18.1004997  60.5029988  87.8950012  18.2004997  60.6809988
  89.1110012  17.3914997  61.0809988  88.7408255  18.0182711  60.6055391
  90.3390012  10.3604997  56.5309988  90.3810012  10.1374997  55.6009988
  91.1880012  10.7594997  56.7209988  90.4595396  10.3839155  56.4293627
  85.9110012   4.2364997  57.2009988  85.6580012   4.2554997  58.1239988
  85.6550012   3.3644997  56.8999988  85.8417790   4.1212437  57.2866263
  82.7940012   4.6814997  56.3019988  82.3630012   4.2364997  57.0319988
  82.0760012   5.0534997  55.7899988  82.6379438   4.6708940  56.3326799
  77.3100012   5.1694997  58.7779988  77.7840012   5.7604997  58.1929988
  76.5930012   5.7004997  59.1249988  77.2779341   5.3220867  58.7448836
  82.7380012   6.2644997  60.1179988  83.6690012   6.3934997  60.2959988
  82.5230012   6.9344997  59.4679988  82.8364247   6.3726565  60.0545747
  81.4120012   7.4594997  57.6849988  80.8690012   7.0794997  56.9929988
  82.2450012   7.6534997  57.2559988  81.4504399   7.4338124  57.5324526
  80.5780012   3.5594997  61.9399988  80.2610012   2.6574997  61.9049988
  81.3600012   3.5614997  61.3869988  80.6402284   3.4361628  61.8604783
  84.7470012  12.0244997  59.6199988  84.0020012  11.5174997  59.2979988
  84.6130012  12.0734997  60.5669988  84.6268776  11.9616940  59.7038647
  88.6450012   4.8384997  57.8199988  87.7060012   4.9504997  57.6679988
  88.9420012   5.6954997  58.1259988  88.5567666   4.9696443  57.8405768
  86.8730012  13.4834997  58.6459988  86.5770012  14.3094997  59.0269988
  86.1700012  12.8634997  58.8419988  86.7374914  13.5128199  58.7246443
  94.2480012   6.9154997  59.1749988  93.6940012   6.5194997  58.5029988
  94.3480012   7.8254997  58.8969988  94.1857059   6.9843586  59.0454401
  92.5430012  15.7014997  59.6399988  92.1700012  14.8754997  59.9489988
  92.8210012  15.5184997  58.7429988  92.5295630  15.5637303  59.5609626
  78.0020012   9.6994997  57.3809988  78.6180012  10.3264997  57.7609988
  77.1400012  10.0154997  57.6529988  77.9697698   9.8279430  57.4697183
  89.9360012  13.6774997  57.4599988  90.2890012  13.2974997  58.2649988
  88.9870012  13.5844997  57.5469988  89.8560441  13.6129596  57.5818559
  94.4390012  18.1574997  57.6609988  95.1830012  18.7434997  57.5209988
  93.7450012  18.7254997  57.9949988  94.4470292  18.3145582  57.6869961
  90.8020012  12.3504997  59.6869988  90.5240012  11.6224997  60.2429988
  91.7290012  12.4694997  59.8919988  90.8893124  12.2668802  59.7908845
  84.0270012  14.7894997  55.9069988  84.2660012  14.0414997  55.3599988
  83.7580012  14.4014997  56.7399988  84.0233675  14.6346638  55.9446865
  82.9640012  14.3594997  58.3639988  83.1100012  13.8394997  59.1539988
  82.9610012  15.2664997  58.6699988  82.9835989  14.4108853  58.5136088
  79.4170012  11.6124997  58.8739988  78.7310012  11.9644997  59.4409988
  79.9390012  12.3754997  58.6269988  79.3936852  11.7638578  58.9182118
  88.0330012   3.9264997  60.2499988  88.2530012   4.3984997  59.4469988
  88.5910012   4.3214997  60.9199988  88.1384968   4.0444285  60.2307331
  85.2330012   5.6544997  61.0849988  86.0450012   6.1594997  61.1309988
  84.9880012   5.5094997  61.9989988  85.3110520   5.7040375  61.2148517
  83.0400012  17.1014997  59.0949988  83.2000012  17.9004997  58.5939988
  82.8420012  17.4074997  59.9799988  83.0351649  17.2524469  59.1459815
  81.7740012   3.7984997  58.7099988  81.6910012   4.6874997  59.0569988
  82.6640012   3.5334997  58.9419988  81.8829469   3.8841430  58.7887626
  80.0330012  14.2264997  57.7709988  80.6250012  14.9254997  58.0469988
  80.4920012  13.7934997  57.0509988  80.1761142  14.2637049  57.7114830
  78.3490012   6.8904997  56.8869988  78.3040012   7.8294997  57.0649988
  77.4610012   6.6544997  56.6169988  78.2228574   6.9871892  56.8748912
  78.0870012  15.6124997  61.7199988  77.2550012  16.0854997  61.7479988
  78.6330012  16.1224997  61.1219988  78.0469739  15.7461871  61.6429716
  86.0650012  16.6524997  56.0459988  85.4210012  16.0214997  56.3669988
  86.8270012  16.1214997  55.8139988  86.0798077  16.4942920  56.0586011
  90.6690012  16.4694997  56.2799988  90.9520012  15.6754997  56.7319988
  91.4090012  16.7024997  55.7189988  90.8077486  16.3922803  56.2660698
  81.6240012  12.3794997  56.1369988  81.6880012  11.5854997  56.6679988
  82.2770012  12.2604997  55.4469988  81.7210241  12.2547148  56.1164317
  86.9760012  13.4264997  55.8729988  86.7070012  13.6064997  56.7739988
  86.7700012  12.5004997  55.7419988  86.9113825  13.3260152  55.9785214
  82.7730012  10.3514997  58.4429988  82.3130012   9.8674997  59.1289988
  83.0280012   9.6834997  57.8069988  82.7444902  10.1948731  58.4509334
  83.8440012   8.5944997  56.7049988  83.6640012   8.4404997  55.7779988
  84.7940012   8.7024997  56.7499988  83.9477776   8.5880175  56.5841843
  93.2340012  10.9494997  56.1509988  92.9600012  10.5244997  55.3379988
  93.2730012  11.8804997  55.9339988  93.2017699  11.0172484  56.0103610
  83.7410012  19.2854997  57.7069988  84.6740012  19.4434997  57.8499988
  83.4770012  19.9604997  57.0819988  83.8329510  19.3983611  57.6420741
  77.3100012  13.9214997  57.1889988  78.2240012  14.0004997  57.4629988
  77.3170012  13.2344997  56.5229988  77.4361131  13.8393961  57.1364393
  75.9590012  19.3144997  62.2669988  75.3120012  18.8524997  61.7339988
  76.3130012  18.6424997  62.8489988  75.9183849  19.1604723  62.2727959
  93.6920012  11.8184997  60.1259988  94.5420012  12.2394997  60.2529988
  93.6980012  11.0784997  60.7329988  93.8091372  11.7760803  60.2254344
  94.3550012   9.7724997  58.3409988  93.8330012  10.1294997  57.6219988
  94.3220012  10.4474997  59.0189988  94.2791634   9.9125413  58.3343145
  92.7040012   7.0124997  56.8919988  92.8000012   7.6794997  56.2109988
  92.5640012   6.1964997  56.4099988  92.6982135   6.9934500  56.7338491
  91.9510012   4.4204997  56.0089988  92.5620012   4.0494997  56.6459988
  91.1150012   3.9994997  56.2049988  91.9215032   4.3127554  56.1227035
  94.0640012   3.3054997  57.5509988  94.4760012   2.5844997  57.0759988
  94.7460012   3.9754997  57.6099988  94.2125885   3.2972368  57.4938915
  77.6210012   1.3534997  58.6569988  78.0600012   1.9644997  58.0649988
  76.9880012   1.8914997  59.1309988  77.5954514   1.5099257  58.6400930
  90.2740012   1.5384997  60.0079988  89.5720012   2.1534997  59.7989988
  89.8300012   0.7004997  60.1389988  90.1176330   1.5095783  59.9970328
  77.5220012  17.3014997  59.5549988  76.8370012  17.2634997  58.8869988
  77.5260012  18.2144997  59.8429988  77.4288193  17.4197016  59.5025284
  79.4820012   3.2694997  57.0989988  79.9740012   2.6394997  56.5719988
  80.1060012   3.5654997  57.7629988  79.6335446   3.2233199  57.1165980
  86.3870012  18.5114997  57.9519988  87.2530012  18.8774997  57.7739988
  86.1400012  18.0714997  57.1379988  86.4722392  18.5021756  57.8176289
  93.0960012  18.0744997  60.6309988  92.9010012  17.3264997  60.0659988
  93.0570012  18.8324997  60.0479988  93.0640380  18.0746099  60.4748384
  79.3400012  18.2214997  56.5799988  79.0730012  18.5084997  57.4529988
  80.1120012  17.6754997  56.7319988  79.4077488  18.1870294  56.7201050
 105.4410012   9.9554997  60.2639988 104.7290012  10.4904997  59.9119988
 106.1320012  10.0114997  59.6039988 105.4370132  10.0362543  60.1266289
 105.4940012   8.4134997  57.3029988 106.1950012   8.4354997  57.9539988
 105.7970012   7.7854997  56.6469988 105.6307830   8.3316566  57.3033711
 107.7170012   9.3274997  58.9009988 108.2970012   9.4774997  59.6479988
 108.1310012   9.7984997  58.1779988 107.8522830   9.4116841  58.9054134
 111.4160012   1.0774997  58.7139988 110.5160012   1.2164997  59.0089988
 111.6680012   1.9084997  58.3119988 111.3268702   1.2089074  58.7000205
  99.4820012   9.8654997  60.6879988  99.1900012  10.6334997  60.1969988
  98.8080012   9.2054997  60.5249988  99.3509081   9.8814406  60.5987340
 112.6050012  15.4434997  57.0899988 112.6790012  16.3824997  57.2609988
 113.5110012  15.1384997  57.0339988 112.7375100  15.5306722  57.1058119
 108.0180012  18.1744997  57.7529988 108.3930012  17.4304997  57.2829988
 108.0220012  17.9044997  58.6719988 108.0698915  18.0361486  57.8127824
 109.1950012  10.3604997  56.5309988 109.2370012  10.1374997  55.6009988
 110.0440012  10.7594997  56.7209988 109.3155396  10.3839155  56.4293627
 104.7670012   4.2364997  57.2009988 104.5140012   4.2554997  58.1239988
 104.5110012   3.3644997  56.8999988 104.6977790   4.1212437  57.2866263
 101.6500012   4.6814997  56.3019988 101.2190012   4.2364997  57.0319988
 100.9320012   5.0534997  55.7899988 101.4939438   4.6708940  56.3326799
  96.1660012   5.1694997  58.7779988  96.6400012   5.7604997  58.1929988
  95.4490012   5.7004997  59.1249988  96.1339341   5.3220867  58.7448836
 101.5940012   6.2644997  60.1179988 102.5250012   6.3934997  60.2959988
 101.3790012   6.9344997  59.4679988 101.6924247   6.3726565  60.0545747
 100.2680012   7.4594997  57.6849988  99.7250012   7.0794997  56.9929988
 101.1010012   7.6534997  57.2559988 100.3064399   7.4338124  57.5324526
 103.6030012  12.0244997  59.6199988 102.8580012  11.5174997  59.2979988
 103.4690012  12.0734997  60.5669988 103.4828776  11.9616940  59.7038647
 107.5010012   4.8384997  57.8199988 106.5620012   4.9504997  57.6679988
 107.7980012   5.6954997  58.1259988 107.4127666   4.9696443  57.8405768
 105.7290012  13.4834997  58.6459988 105.4330012  14.3094997  59.0269988
 105.0260012  12.8634997  58.8419988 105.5934914  13.5128199  58.7246443
 113.1040012   6.9154997  59.1749988 112.5500012   6.5194997  58.5029988
 113.2040012   7.8254997  58.8969988 113.0417059   6.9843586  59.0454401
 111.3990012  15.7014997  59.6399988 111.0260012  14.8754997  59.9489988
 111.6770012  15.5184997  58.7429988 111.3855630  15.5637303  59.5609626
  96.8580012   9.6994997  57.3809988  97.4740012  10.3264997  57.7609988
  95.9960012  10.0154997  57.6529988  96.8257698   9.8279430  57.4697183
 108.7920012  13.6774997  57.4599988 109.1450012  13.2974997  58.2649988
 107.8430012  13.5844997  57.5469988 108.7120441  13.6129596  57.5818559
 113.2950012  18.1574997  57.6609988 114.0390012  18.7434997  57.5209988
 112.6010012  18.7254997  57.9949988 113.3030292  18.3145582  57.6869961
 109.6580012  12.3504997  59.6869988 109.3800012  11.6224997  60.2429988
 110.5850012  12.4694997  59.8919988 109.7453124  12.2668802  59.7908845
 102.8830012  14.7894997  55.9069988 103.1220012  14.0414997  55.3599988
 102.6140012  14.4014997  56.7399988 102.8793675  14.6346638  55.9446865
 101.8200012  14.3594997  58.3639988 101.9660012  13.8394997  59.1539988
 101.8170012  15.2664997  58.6699988 101.8395989  14.4108853  58.5136088
  98.2730012  11.6124997  58.8739988  97.5870012  11.9644997  59.4409988
  98.7950012  12.3754997  58.6269988  98.2496852  11.7638578  58.9182118
 106.8890012   3.9264997  60.2499988 107.1090012   4.3984997  59.4469988
 107.4470012   4.3214997  60.9199988 106.9944968   4.0444285  60.2307331
 104.5570012  16.0574997  59.1129988 103.7410012  16.5544997  59.1649988
 105.0870012  16.5324997  58.4729988 104.5169161  16.1897722  59.0335956
 104.9720012   2.7354997  62.0229988 104.6260012   3.3534997  62.6679988
 105.6310012   3.2364997  61.5419988 105.0137826   2.8875802  62.0460971
 101.8960012  17.1014997  59.0949988 102.0560012  17.9004997  58.5939988
 101.6980012  17.4074997  59.9799988 101.8911649  17.2524469  59.1459815
 100.6300012   3.7984997  58.7099988 100.5470012   4.6874997  59.0569988
 101.5200012   3.5334997  58.9419988 100.7389469   3.8841430  58.7887626
  98.8890012  14.2264997  57.7709988  99.4810012  14.9254997  58.0469988
  99.3480012  13.7934997  57.0509988  99.0321142  14.2637049  57.7114830
  97.2050012   6.8904997  56.8869988  97.1600012   7.8294997  57.0649988
  96.3170012   6.6544997  56.6169988  97.0788574   6.9871892  56.8748912
  96.9430012  15.6124997  61.7199988  96.1110012  16.0854997  61.7479988
  97.4890012  16.1224997  61.1219988  96.9029739  15.7461871  61.6429716
 104.9210012  16.6524997  56.0459988 104.2770012  16.0214997  56.3669988
 105.6830012  16.1214997  55.8139988 104.9358077  16.4942920  56.0586011
 109.5250012  16.4694997  56.2799988 109.8080012  15.6754997  56.7319988
 110.2650012  16.7024997  55.7189988 109.6637486  16.3922803  56.2660698
 100.4800012  12.3794997  56.1369988 100.5440012  11.5854997  56.6679988
 101.1330012  12.2604997  55.4469988 100.5770241  12.2547148  56.1164317
 105.8320012  13.4264997  55.8729988 105.5630012  13.6064997  56.7739988
 105.6260012  12.5004997  55.7419988 105.7673825  13.3260152  55.9785214
 101.6290012  10.3514997  58.4429988 101.1690012   9.8674997  59.1289988
 101.8840012   9.6834997  57.8069988 101.6004902  10.1948731  58.4509334
 102.7000012   8.5944997  56.7049988 102.5200012   8.4404997  55.7779988
 103.6500012   8.7024997  56.7499988 102.8037776   8.5880175  56.5841843
 112.0900012  10.9494997  56.1509988 111.8160012  10.5244997  55.3379988
 112.1290012  11.8804997  55.9339988 112.0577699  11.0172484  56.0103610
 102.5970012  19.2854997  57.7069988 103.5300012  19.4434997  57.8499988
 102.3330012  19.9604997  57.0819988 102.6889510  19.3983611  57.6420741
  96.1660012  13.9214997  57.1889988  97.0800012  14.0004997  57.4629988
  96.1730012  13.2344997  56.5229988  96.2921131  13.8393961  57.1364393
 113.2110012   9.7724997  58.3409988 112.6890012  10.1294997  57.6219988
 113.1780012  10.4474997  59.0189988 113.1351634   9.9125413  58.3343145
 111.5600012   7.0124997  56.8919988 111.6560012   7.6794997  56.2109988
 111.4200012   6.1964997  56.4099988 111.5542135   6.9934500  56.7338491
 110.8070012   4.4204997  56.0089988 111.4180012   4.0494997  56.6459988
 109.9710012   3.9994997  56.2049988 110.7775032   4.3127554  56.1227035
 111.0530012   3.2384997  61.0229988 111.2360012   2.7894997  61.8489988
 110.4540012   2.6534997  60.5599988 110.9970202   3.0979975  61.0733275
 112.9200012   3.3054997  57.5509988 113.3320012   2.5844997  57.0759988
 113.6020012   3.9754997  57.6099988 113.0685885   3.2972368  57.4938915
 109.1300012   1.5384997  60.0079988 108.4280012   2.1534997  59.7989988
 108.6860012   0.7004997  60.1389988 108.9736330   1.5095783  59.9970328
  96.3780012  17.3014997  59.5549988  95.6930012  17.2634997  58.8869988
  96.3820012  18.2144997  59.8429988  96.2848193  17.4197016  59.5025284
  98.3380012   3.2694997  57.0989988  98.8300012   2.6394997  56.5719988
  98.9620012   3.5654997  57.7629988  98.4895446   3.2233199  57.1165980
 103.3640012   3.5624997  59.5559988 103.5420012   2.9164997  60.2389988
 103.3110012   4.3964997  60.0239988 103.3811829   3.5867985  59.7125940
 105.2430012  18.5114997  57.9519988 106.1090012  18.8774997  57.7739988
 104.9960012  18.0714997  57.1379988 105.3282392  18.5021756  57.8176289
 111.9520012  18.0744997  60.6309988 111.7570012  17.3264997  60.0659988
 111.9130012  18.8324997  60.0479988 111.9200380  18.0746099  60.4748384
  98.1960012  18.2214997  56.5799988  97.9290012  18.5084997  57.4529988
  98.9680012  17.6754997  56.7319988  98.2637488  18.1870294  56.7201050
 125.3730012  13.3124997  61.8549988 125.0770012  12.9904997  61.0039988
 125.0480012  14.2124997  61.8959988 125.2886371  13.3900215  61.7441801
 124.2970012   9.9554997  60.2639988 123.5850012  10.4904997  59.9119988
 124.9880012  10.0114997  59.6039988 124.2930132  10.0362543  60.1266289
 124.3500012   8.4134997  57.3029988 125.0510012   8.4354997  57.9539988
 124.6530012   7.7854997  56.6469988 124.4867830   8.3316566  57.3033711
 127.7020012  10.1654997  61.2159988 126.9700012  10.3934997  61.7889988
 128.1500012   9.4514997  61.6709988 127.6623095  10.1002571  61.3559119
 126.5730012   9.3274997  58.9009988 127.1530012   9.4774997  59.6479988
 126.9870012   9.7984997  58.1779988 126.7082830   9.4116841  58.9054134
 124.3000012  16.0644997  62.3359988 124.7740012  16.3594997  63.1139988
 123.7370012  16.8024997  62.1029988 124.2887653  16.2046932  62.4110136
 130.2720012   1.0774997  58.7139988 129.3720012   1.2164997  59.0089988
 130.5240012   1.9084997  58.3119988 130.1828702   1.2089074  58.7000205
 131.4610012  15.4434997  57.0899988 131.5350012  16.3824997  57.2609988
 132.3670012  15.1384997  57.0339988 131.5935100  15.5306722  57.1058119
 123.7720012  19.0204997  60.7509988 123.6970012  18.8994997  59.8049988
 123.8050012  19.9704997  60.8699988 123.7661848  19.1322500  60.6374834
 126.8740012  18.1744997  57.7529988 127.2490012  17.4304997  57.2829988
 126.8780012  17.9044997  58.6719988 126.9258915  18.0361486  57.8127824
 128.0510012  10.3604997  56.5309988 128.0930012  10.1374997  55.6009988
 128.9000012  10.7594997  56.7209988 128.1715396  10.3839155  56.4293627
 123.6230012   4.2364997  57.2009988 123.3700012   4.2554997  58.1239988
 123.3670012   3.3644997  56.8999988 123.5537790   4.1212437  57.2866263
 120.5060012   4.6814997  56.3019988 120.0750012   4.2364997  57.0319988
 119.7880012   5.0534997  55.7899988 120.3499438   4.6708940  56.3326799
 115.0220012   5.1694997  58.7779988 115.4960012   5.7604997  58.1929988
 114.3050012   5.7004997  59.1249988 114.9899341   5.3220867  58.7448836
 119.1240012   7.4594997  57.6849988 118.5810012   7.0794997  56.9929988
 119.9570012   7.6534997  57.2559988 119.1624399   7.4338124  57.5324526
 122.4590012  12.0244997  59.6199988 121.7140012  11.5174997  59.2979988
 122.3250012  12.0734997  60.5669988 122.3388776  11.9616940  59.7038647
 126.3570012   4.8384997  57.8199988 125.4180012   4.9504997  57.6679988
 126.6540012   5.6954997  58.1259988 126.2687666   4.9696443  57.8405768
 124.5850012  13.4834997  58.6459988 124.2890012  14.3094997  59.0269988
 123.8820012  12.8634997  58.8419988 124.4494914  13.5128199  58.7246443
 131.9600012   6.9154997  59.1749988 131.4060012   6.5194997  58.5029988
 132.0600012   7.8254997  58.8969988 131.8977059   6.9843586  59.0454401
 115.7140012   9.6994997  57.3809988 116.3300012  10.3264997  57.7609988
 114.8520012  10.0154997  57.6529988 115.6817698   9.8279430  57.4697183
 127.6480012  13.6774997  57.4599988 128.0010012  13.2974997  58.2649988
 126.6990012  13.5844997  57.5469988 127.5680441  13.6129596  57.5818559
 132.1510012  18.1574997  57.6609988 132.8950012  18.7434997  57.5209988
 131.4570012  18.7254997  57.9949988 132.1590292  18.3145582  57.6869961
 128.5140012  12.3504997  59.6869988 128.2360012  11.6224997  60.2429988
 129.4410012  12.4694997  59.8919988 128.6013124  12.2668802  59.7908845
 121.7390012  14.7894997  55.9069988 121.9780012  14.0414997  55.3599988
 121.4700012  14.4014997  56.7399988 121.7353675  14.6346638  55.9446865
 120.6760012  14.3594997  58.3639988 120.8220012  13.8394997  59.1539988
 120.6730012  15.2664997  58.6699988 120.6955989  14.4108853  58.5136088
 117.1290012  11.6124997  58.8739988 116.4430012  11.9644997  59.4409988
 117.6510012  12.3754997  58.6269988 117.1056852  11.7638578  58.9182118
 123.4130012  16.0574997  59.1129988 122.5970012  16.5544997  59.1649988
 123.9430012  16.5324997  58.4729988 123.3729161  16.1897722  59.0335956
 122.9450012   5.6544997  61.0849988 123.7570012   6.1594997  61.1309988
 122.7000012   5.5094997  61.9989988 123.0230520   5.7040375  61.2148517
 119.4860012   3.7984997  58.7099988 119.4030012   4.6874997  59.0569988
 120.3760012   3.5334997  58.9419988 119.5949469   3.8841430  58.7887626
 117.7450012  14.2264997  57.7709988 118.3370012  14.9254997  58.0469988
 118.2040012  13.7934997  57.0509988 117.8881142  14.2637049  57.7114830
 116.0610012   6.8904997  56.8869988 116.0160012   7.8294997  57.0649988
 115.1730012   6.6544997  56.6169988 115.9348574   6.9871892  56.8748912
 123.7770012  16.6524997  56.0459988 123.1330012  16.0214997  56.3669988
 124.5390012  16.1214997  55.8139988 123.7918077  16.4942920  56.0586011
 128.3810012  16.4694997  56.2799988 128.6640012  15.6754997  56.7319988
 129.1210012  16.7024997  55.7189988 128.5197486  16.3922803  56.2660698
 119.3360012  12.3794997  56.1369988 119.4000012  11.5854997  56.6679988
 119.9890012  12.2604997  55.4469988 119.4330241  12.2547148  56.1164317
 124.6880012  13.4264997  55.8729988 124.4190012  13.6064997  56.7739988
 124.4820012  12.5004997  55.7419988 124.6233825  13.3260152  55.9785214
 120.4850012  10.3514997  58.4429988 120.0250012   9.8674997  59.1289988
 120.7400012   9.6834997  57.8069988 120.4564902  10.1948731  58.4509334
 121.5560012   8.5944997  56.7049988 121.3760012   8.4404997  55.7779988
 122.5060012   8.7024997  56.7499988 121.6597776   8.5880175  56.5841843
 130.9460012  10.9494997  56.1509988 130.6720012  10.5244997  55.3379988
 130.9850012  11.8804997  55.9339988 130.9137699  11.0172484  56.0103610
 121.4530012  19.2854997  57.7069988 122.3860012  19.4434997  57.8499988
 121.1890012  19.9604997  57.0819988 121.5449510  19.3983611  57.6420741
 115.0220012  13.9214997  57.1889988 115.9360012  14.0004997  57.4629988
 115.0290012  13.2344997  56.5229988 115.1481131  13.8393961  57.1364393
 113.6710012  19.3144997  62.2669988 113.0240012  18.8524997  61.7339988
 114.0250012  18.6424997  62.8489988 113.6303849  19.1604723  62.2727959
 131.4040012  11.8184997  60.1259988 132.2540012  12.2394997  60.2529988
 131.4100012  11.0784997  60.7329988 131.5211372  11.7760803  60.2254344
 132.0670012   9.7724997  58.3409988 131.5450012  10.1294997  57.6219988
 132.0340012  10.4474997  59.0189988 131.9911634   9.9125413  58.3343145
 130.4160012   7.0124997  56.8919988 130.5120012   7.6794997  56.2109988
 130.2760012   6.1964997  56.4099988 130.4102135   6.9934500  56.7338491
 129.6630012   4.4204997  56.0089988 130.2740012   4.0494997  56.6459988
 128.8270012   3.9994997  56.2049988 129.6335032   4.3127554  56.1227035
 131.7760012   3.3054997  57.5509988 132.1880012   2.5844997  57.0759988
 132.4580012   3.9754997  57.6099988 131.9245885   3.2972368  57.4938915
 115.3330012   1.3534997  58.6569988 115.7720012   1.9644997  58.0649988
 114.7000012   1.8914997  59.1309988 115.3074514   1.5099257  58.6400930
 127.9860012   1.5384997  60.0079988 127.2840012   2.1534997  59.7989988
 127.5420012   0.7004997  60.1389988 127.8296330   1.5095783  59.9970328
 115.2340012  17.3014997  59.5549988 114.5490012  17.2634997  58.8869988
 115.2380012  18.2144997  59.8429988 115.1408193  17.4197016  59.5025284
 117.1940012   3.2694997  57.0989988 117.6860012   2.6394997  56.5719988
 117.8180012   3.5654997  57.7629988 117.3455446   3.2233199  57.1165980
 122.2200012   3.5624997  59.5559988 122.3980012   2.9164997  60.2389988
 122.1670012   4.3964997  60.0239988 122.2371829   3.5867985  59.7125940
 124.0990012  18.5114997  57.9519988 124.9650012  18.8774997  57.7739988
 123.8520012  18.0714997  57.1379988 124.1842392  18.5021756  57.8176289
 117.0520012  18.2214997  56.5799988 116.7850012  18.5084997  57.4529988
 117.8240012  17.6754997  56.7319988 117.1197488  18.1870294  56.7201050
 133.2660012   7.6914997  61.7519988 132.8190012   8.5374997  61.7329988
 132.7050012   7.1114997  61.2359988 133.1289900   7.7289916  61.6796801
 143.2060012   8.4134997  57.3029988 143.9070012   8.4354997  57.9539988
 143.5090012   7.7854997  56.6469988 143.3427830   8.3316566  57.3033711
 137.1940012   9.8654997  60.6879988 136.9020012  10.6334997  60.1969988
 136.5200012   9.2054997  60.5249988 137.0629081   9.8814406  60.5987340
 142.6280012  19.0204997  60.7509988 142.5530012  18.8994997  59.8049988
 142.6610012  19.9704997  60.8699988 142.6221848  19.1322500  60.6374834
 142.4790012   4.2364997  57.2009988 142.2260012   4.2554997  58.1239988
 142.2230012   3.3644997  56.8999988 142.4097790   4.1212437  57.2866263
 139.3620012   4.6814997  56.3019988 138.9310012   4.2364997  57.0319988
 138.6440012   5.0534997  55.7899988 139.2059438   4.6708940  56.3326799
 133.8780012   5.1694997  58.7779988 134.3520012   5.7604997  58.1929988
 133.1610012   5.7004997  59.1249988 133.8459341   5.3220867  58.7448836
 139.3060012   6.2644997  60.1179988 140.2370012   6.3934997  60.2959988
 139.0910012   6.9344997  59.4679988 139.4044247   6.3726565  60.0545747
 137.9800012   7.4594997  57.6849988 137.4370012   7.0794997  56.9929988
 138.8130012   7.6534997  57.2559988 138.0184399   7.4338124  57.5324526
 141.3150012  12.0244997  59.6199988 140.5700012  11.5174997  59.2979988
 141.1810012  12.0734997  60.5669988 141.1948776  11.9616940  59.7038647
 143.4410012  13.4834997  58.6459988 143.1450012  14.3094997  59.0269988
 142.7380012  12.8634997  58.8419988 143.3054914  13.5128199  58.7246443
 134.5700012   9.6994997  57.3809988 135.1860012  10.3264997  57.7609988
 133.7080012  10.0154997  57.6529988 134.5377698   9.8279430  57.4697183
 140.5950012  14.7894997  55.9069988 140.8340012  14.0414997  55.3599988
 140.3260012  14.4014997  56.7399988 140.5913675  14.6346638  55.9446865
 139.5320012  14.3594997  58.3639988 139.6780012  13.8394997  59.1539988
 139.5290012  15.2664997  58.6699988 139.5515989  14.4108853  58.5136088
 135.9850012  11.6124997  58.8739988 135.2990012  11.9644997  59.4409988
 136.5070012  12.3754997  58.6269988 135.9616852  11.7638578  58.9182118
 144.6010012   3.9264997  60.2499988 144.8210012   4.3984997  59.4469988
 145.1590012   4.3214997  60.9199988 144.7064968   4.0444285  60.2307331
 142.2690012  16.0574997  59.1129988 141.4530012  16.5544997  59.1649988
 142.7990012  16.5324997  58.4729988 142.2289161  16.1897722  59.0335956
 141.8010012   5.6544997  61.0849988 142.6130012   6.1594997  61.1309988
 141.5560012   5.5094997  61.9989988 141.8790520   5.7040375  61.2148517
 142.6840012   2.7354997  62.0229988 142.3380012   3.3534997  62.6679988
 143.3430012   3.2364997  61.5419988 142.7257826   2.8875802  62.0460971
 139.6080012  17.1014997  59.0949988 139.7680012  17.9004997  58.5939988
 139.4100012  17.4074997  59.9799988 139.6031649  17.2524469  59.1459815
 138.3420012   3.7984997  58.7099988 138.2590012   4.6874997  59.0569988
 139.2320012   3.5334997  58.9419988 138.4509469   3.8841430  58.7887626
 136.6010012  14.2264997  57.7709988 137.1930012  14.9254997  58.0469988
 137.0600012  13.7934997  57.0509988 136.7441142  14.2637049  57.7114830
 134.9170012   6.8904997  56.8869988 134.8720012   7.8294997  57.0649988
 134.0290012   6.6544997  56.6169988 134.7908574   6.9871892  56.8748912
 142.6330012  16.6524997  56.0459988 141.9890012  16.0214997  56.3669988
 143.3950012  16.1214997  55.8139988 142.6478077  16.4942920  56.0586011
 138.1920012  12.3794997  56.1369988 138.2560012  11.5854997  56.6679988
 138.8450012  12.2604997  55.4469988 138.2890241  12.2547148  56.1164317
 143.5440012  13.4264997  55.8729988 143.2750012  13.6064997  56.7739988
 143.3380012  12.5004997  55.7419988 143.4793825  13.3260152  55.9785214
 139.3410012  10.3514997  58.4429988 138.8810012   9.8674997  59.1289988
 139.5960012   9.6834997  57.8069988 139.3124902  10.1948731  58.4509334
 140.4120012   8.5944997  56.7049988 140.2320012   8.4404997  55.7779988
 141.3620012   8.7024997  56.7499988 140.5157776   8.5880175  56.5841843
 140.3090012  19.2854997  57.7069988 141.2420012  19.4434997  57.8499988
 140.0450012  19.9604997  57.0819988 140.4009510  19.3983611  57.6420741
 133.8780012  13.9214997  57.1889988 134.7920012  14.0004997  57.4629988
 133.8850012  13.2344997  56.5229988 134.0041131  13.8393961  57.1364393
 134.1890012   1.3534997  58.6569988 134.6280012   1.9644997  58.0649988
 133.5560012   1.8914997  59.1309988 134.1634514   1.5099257  58.6400930
 136.0500012   3.2694997  57.0989988 136.5420012   2.6394997  56.5719988
 136.6740012   3.5654997  57.7629988 136.2015446   3.2233199  57.1165980
 141.0760012   3.5624997  59.5559988 141.2540012   2.9164997  60.2389988
 141.0230012   4.3964997  60.0239988 141.0931829   3.5867985  59.7125940
 142.9550012  18.5114997  57.9519988 143.8210012  18.8774997  57.7739988
 142.7080012  18.0714997  57.1379988 143.0402392  18.5021756  57.8176289
 135.9080012  18.2214997  56.5799988 135.6410012  18.5084997  57.4529988
 136.6800012  17.6754997  56.7319988 135.9757488  18.1870294  56.7201050
   1.9650012  31.9794997  60.1679988   1.6930012  32.2084997  59.2789988
   2.0110012  32.8174997  60.6279988   1.9340094  32.1241213  60.1085697
  17.1360012  19.9334997  58.7139988  16.2360012  20.0724997  59.0089988
  17.3880012  20.7644997  58.3119988  17.0468702  20.0649074  58.7000205
  18.3250012  34.2994997  57.0899988  18.3990012  35.2384997  57.2609988
  19.2310012  33.9944997  57.0339988  18.4575100  34.3866722  57.1058119
  13.7380012  37.0304997  57.7529988  14.1130012  36.2864997  57.2829988
  13.7420012  36.7604997  58.6719988  13.7898915  36.8921486  57.8127824
  14.9150012  29.2164997  56.5309988  14.9570012  28.9934997  55.6009988
  15.7640012  29.6154997  56.7209988  15.0355396  29.2399155  56.4293627
  10.4870012  23.0924997  57.2009988  10.2340012  23.1114997  58.1239988
  10.2310012  22.2204997  56.8999988  10.4177790  22.9772437  57.2866263
   7.3700012  23.5374997  56.3019988   6.9390012  23.0924997  57.0319988
   6.6520012  23.9094997  55.7899988   7.2139438  23.5268940  56.3326799
   1.8860012  24.0254997  58.7779988   2.3600012  24.6164997  58.1929988
   1.1690012  24.5564997  59.1249988   1.8539341  24.1780867  58.7448836
   5.9880012  26.3154997  57.6849988   5.4450012  25.9354997  56.9929988
   6.8210012  26.5094997  57.2559988   6.0264399  26.2898124  57.5324526
  13.2210012  23.6944997  57.8199988  12.2820012  23.8064997  57.6679988
  13.5180012  24.5514997  58.1259988  13.1327666  23.8256443  57.8405768
  11.4490012  32.3394997  58.6459988  11.1530012  33.1654997  59.0269988
  10.7460012  31.7194997  58.8419988  11.3134914  32.3688199  58.7246443
  18.8240012  25.7714997  59.1749988  18.2700012  25.3754997  58.5029988
  18.9240012  26.6814997  58.8969988  18.7617059  25.8403586  59.0454401
   2.5780012  28.5554997  57.3809988   3.1940012  29.1824997  57.7609988
   1.7160012  28.8714997  57.6529988   2.5457698  28.6839430  57.4697183
  14.5120012  32.5334997  57.4599988  14.8650012  32.1534997  58.2649988
  13.5630012  32.4404997  57.5469988  14.4320441  32.4689596  57.5818559
  19.0150012  37.0134997  57.6609988  19.7590012  37.5994997  57.5209988
  18.3210012  37.5814997  57.9949988  19.0230292  37.1705582  57.6869961
  15.3780012  31.2064997  59.6869988  15.1000012  30.4784997  60.2429988
  16.3050012  31.3254997  59.8919988  15.4653124  31.1228802  59.7908845
   8.6030012  33.6454997  55.9069988   8.8420012  32.8974997  55.3599988
   8.3340012  33.2574997  56.7399988   8.5993675  33.4906638  55.9446865
   7.5400012  33.2154997  58.3639988   7.6860012  32.6954997  59.1539988
   7.5370012  34.1224997  58.6699988   7.5595989  33.2668853  58.5136088
   3.9930012  30.4684997  58.8739988   3.3070012  30.8204997  59.4409988
   4.5150012  31.2314997  58.6269988   3.9696852  30.6198578  58.9182118
  12.6090012  22.7824997  60.2499988  12.8290012  23.2544997  59.4469988
  13.1670012  23.1774997  60.9199988  12.7144968  22.9004285  60.2307331
   9.8090012  24.5104997  61.0849988  10.6210012  25.0154997  61.1309988
   9.5640012  24.3654997  61.9989988   9.8870520  24.5600375  61.2148517
  10.6920012  21.5914997  62.0229988  10.3460012  22.2094997  62.6679988
  11.3510012  22.0924997  61.5419988  10.7337826  21.7435802  62.0460971
   7.6160012  35.9574997  59.0949988   7.7760012  36.7564997  58.5939988
   7.4180012  36.2634997  59.9799988   7.6111649  36.1084469  59.1459815
   4.6090012  33.0824997  57.7709988   5.2010012  33.7814997  58.0469988
   5.0680012  32.6494997  57.0509988   4.7521142  33.1197049  57.7114830
   2.9250012  25.7464997  56.8869988   2.8800012  26.6854997  57.0649988
   2.0370012  25.5104997  56.6169988   2.7988574  25.8431892  56.8748912
   2.6630012  34.4684997  61.7199988   1.8310012  34.9414997  61.7479988
   3.2090012  34.9784997  61.1219988   2.6229739  34.6021871  61.6429716
  10.6410012  35.5084997  56.0459988   9.9970012  34.8774997  56.3669988
  11.4030012  34.9774997  55.8139988  10.6558077  35.3502920  56.0586011
  15.2450012  35.3254997  56.2799988  15.5280012  34.5314997  56.7319988
  15.9850012  35.5584997  55.7189988  15.3837486  35.2482803  56.2660698
   6.2000012  31.2354997  56.1369988   6.2640012  30.4414997  56.6679988
   6.8530012  31.1164997  55.4469988   6.2970241  31.1107148  56.1164317
  11.5520012  32.2824997  55.8729988  11.2830012  32.4624997  56.7739988
  11.3460012  31.3564997  55.7419988  11.4873825  32.1820152  55.9785214
   7.3490012  29.2074997  58.4429988   6.8890012  28.7234997  59.1289988
   7.6040012  28.5394997  57.8069988   7.3204902  29.0508731  58.4509334
   8.4200012  27.4504997  56.7049988   8.2400012  27.2964997  55.7779988
   9.3700012  27.5584997  56.7499988   8.5237776  27.4440175  56.5841843
  17.8100012  29.8054997  56.1509988  17.5360012  29.3804997  55.3379988
  17.8490012  30.7364997  55.9339988  17.7777699  29.8732484  56.0103610
   8.3170012  38.1414997  57.7069988   9.2500012  38.2994997  57.8499988
   8.0530012  38.8164997  57.0819988   8.4089510  38.2543611  57.6420741
   1.8860012  32.7774997  57.1889988   2.8000012  32.8564997  57.4629988
   1.8930012  32.0904997  56.5229988   2.0121131  32.6953961  57.1364393
  18.2680012  30.6744997  60.1259988  19.1180012  31.0954997  60.2529988
  18.2740012  29.9344997  60.7329988  18.3851372  30.6320803  60.2254344
  18.6630012  28.7274997  61.9499988  17.9360012  28.2484997  62.3469988
  19.2440012  28.9334997  62.6819988  18.6419375  28.6897090  62.1034129
  18.9310012  28.6284997  58.3409988  18.4090012  28.9854997  57.6219988
  18.8980012  29.3034997  59.0189988  18.8551634  28.7685413  58.3343145
  17.2800012  25.8684997  56.8919988  17.3760012  26.5354997  56.2109988
  17.1400012  25.0524997  56.4099988  17.2742135  25.8494500  56.7338491
  16.5270012  23.2764997  56.0089988  17.1380012  22.9054997  56.6459988
  15.6910012  22.8554997  56.2049988  16.4975032  23.1687554  56.1227035
  18.6400012  22.1614997  57.5509988  19.0520012  21.4404997  57.0759988
  19.3220012  22.8314997  57.6099988  18.7885885  22.1532368  57.4938915
   0.9210012  22.1664997  60.6779988  -0.0039988  22.3754997  60.5489988
   1.3750012  22.6504997  59.9889988   0.8557368  22.2605993  60.5671226
   2.1970012  20.2094997  58.6569988   2.6360012  20.8204997  58.0649988
   1.5640012  20.7474997  59.1309988   2.1714514  20.3659257  58.6400930
   2.0980012  36.1574997  59.5549988   1.4130012  36.1194997  58.8869988
   2.1020012  37.0704997  59.8429988   2.0048193  36.2757016  59.5025284
   4.0580012  22.1254997  57.0989988   4.5500012  21.4954997  56.5719988
   4.6820012  22.4214997  57.7629988   4.2095446  22.0793199  57.1165980
   9.0840012  22.4184997  59.5559988   9.2620012  21.7724997  60.2389988
   9.0310012  23.2524997  60.0239988   9.1011829  22.4427985  59.7125940
  10.9630012  37.3674997  57.9519988  11.8290012  37.7334997  57.7739988
  10.7160012  36.9274997  57.1379988  11.0482392  37.3581756  57.8176289
   3.9160012  37.0774997  56.5799988   3.6490012  37.3644997  57.4529988
   4.6880012  36.5314997  56.7319988   3.9837488  37.0430294  56.7201050
  31.0930012  32.1684997  61.8549988  30.7970012  31.8464997  61.0039988
  30.7680012  33.0684997  61.8959988  31.0086371  32.2460215  61.7441801
  30.0700012  27.2694997  57.3029988  30.7710012  27.2914997  57.9539988
  30.3730012  26.6414997  56.6469988  30.2067830  27.1876566  57.3033711
  33.4220012  29.0214997  61.2159988  32.6900012  29.2494997  61.7889988
  33.8700012  28.3074997  61.6709988  33.3823095  28.9562571  61.3559119
  32.2930012  28.1834997  58.9009988  32.8730012  28.3334997  59.6479988
  32.7070012  28.6544997  58.1779988  32.4282830  28.2676841  58.9054134
  35.9920012  19.9334997  58.7139988  35.0920012  20.0724997  59.0089988
  36.2440012  20.7644997  58.3119988  35.9028702  20.0649074  58.7000205
  24.0580012  28.7214997  60.6879988  23.7660012  29.4894997  60.1969988
  23.3840012  28.0614997  60.5249988  23.9269081  28.7374406  60.5987340
  37.1810012  34.2994997  57.0899988  37.2550012  35.2384997  57.2609988
  38.0870012  33.9944997  57.0339988  37.3135100  34.3866722  57.1058119
  32.5940012  37.0304997  57.7529988  32.9690012  36.2864997  57.2829988
  32.5980012  36.7604997  58.6719988  32.6458915  36.8921486  57.8127824
  33.7710012  29.2164997  56.5309988  33.8130012  28.9934997  55.6009988
  34.6200012  29.6154997  56.7209988  33.8915396  29.2399155  56.4293627
  29.3430012  23.0924997  57.2009988  29.0900012  23.1114997  58.1239988
  29.0870012  22.2204997  56.8999988  29.2737790  22.9772437  57.2866263
  26.2260012  23.5374997  56.3019988  25.7950012  23.0924997  57.0319988
  25.5080012  23.9094997  55.7899988  26.0699438  23.5268940  56.3326799
  20.7420012  24.0254997  58.7779988  21.2160012  24.6164997  58.1929988
  20.0250012  24.5564997  59.1249988  20.7099341  24.1780867  58.7448836
  26.1700012  25.1204997  60.1179988  27.1010012  25.2494997  60.2959988
  25.9550012  25.7904997  59.4679988  26.2684247  25.2286565  60.0545747
  24.8440012  26.3154997  57.6849988  24.3010012  25.9354997  56.9929988
  25.6770012  26.5094997  57.2559988  24.8824399  26.2898124  57.5324526
  24.0100012  22.4154997  61.9399988  23.6930012  21.5134997  61.9049988
  24.7920012  22.4174997  61.3869988  24.0722284  22.2921628  61.8604783
  28.1790012  30.8804997  59.6199988  27.4340012  30.3734997  59.2979988
  28.0450012  30.9294997  60.5669988  28.0588776  30.8176940  59.7038647
  32.0770012  23.6944997  57.8199988  31.1380012  23.8064997  57.6679988
  32.3740012  24.5514997  58.1259988  31.9887666  23.8256443  57.8405768
  32.7950012  25.5614997  59.4799988  33.6870012  25.4244997  59.7989988
  32.8520012  26.3524997  58.9439988  32.9246285  25.6496660  59.4511691
  30.3050012  32.3394997  58.6459988  30.0090012  33.1654997  59.0269988
  29.6020012  31.7194997  58.8419988  30.1694914  32.3688199  58.7246443
  37.6800012  25.7714997  59.1749988  37.1260012  25.3754997  58.5029988
  37.7800012  26.6814997  58.8969988  37.6177059  25.8403586  59.0454401
  21.4340012  28.5554997  57.3809988  22.0500012  29.1824997  57.7609988
  20.5720012  28.8714997  57.6529988  21.4017698  28.6839430  57.4697183
  33.3680012  32.5334997  57.4599988  33.7210012  32.1534997  58.2649988
  32.4190012  32.4404997  57.5469988  33.2880441  32.4689596  57.5818559
  37.8710012  37.0134997  57.6609988  38.6150012  37.5994997  57.5209988
  37.1770012  37.5814997  57.9949988  37.8790292  37.1705582  57.6869961
  27.4590012  33.6454997  55.9069988  27.6980012  32.8974997  55.3599988
  27.1900012  33.2574997  56.7399988  27.4553675  33.4906638  55.9446865
  26.3960012  33.2154997  58.3639988  26.5420012  32.6954997  59.1539988
  26.3930012  34.1224997  58.6699988  26.4155989  33.2668853  58.5136088
  22.8490012  30.4684997  58.8739988  22.1630012  30.8204997  59.4409988
  23.3710012  31.2314997  58.6269988  22.8256852  30.6198578  58.9182118
  26.4720012  35.9574997  59.0949988  26.6320012  36.7564997  58.5939988
  26.2740012  36.2634997  59.9799988  26.4671649  36.1084469  59.1459815
  25.2060012  22.6544997  58.7099988  25.1230012  23.5434997  59.0569988
  26.0960012  22.3894997  58.9419988  25.3149469  22.7401430  58.7887626
  23.4650012  33.0824997  57.7709988  24.0570012  33.7814997  58.0469988
  23.9240012  32.6494997  57.0509988  23.6081142  33.1197049  57.7114830
  21.7810012  25.7464997  56.8869988  21.7360012  26.6854997  57.0649988
  20.8930012  25.5104997  56.6169988  21.6548574  25.8431892  56.8748912
  29.4970012  35.5084997  56.0459988  28.8530012  34.8774997  56.3669988
  30.2590012  34.9774997  55.8139988  29.5118077  35.3502920  56.0586011
  34.1010012  35.3254997  56.2799988  34.3840012  34.5314997  56.7319988
  34.8410012  35.5584997  55.7189988  34.2397486  35.2482803  56.2660698
  25.0560012  31.2354997  56.1369988  25.1200012  30.4414997  56.6679988
  25.7090012  31.1164997  55.4469988  25.1530241  31.1107148  56.1164317
  30.4080012  32.2824997  55.8729988  30.1390012  32.4624997  56.7739988
  30.2020012  31.3564997  55.7419988  30.3433825  32.1820152  55.9785214
  26.2050012  29.2074997  58.4429988  25.7450012  28.7234997  59.1289988
  26.4600012  28.5394997  57.8069988  26.1764902  29.0508731  58.4509334
  27.2760012  27.4504997  56.7049988  27.0960012  27.2964997  55.7779988
  28.2260012  27.5584997  56.7499988  27.3797776  27.4440175  56.5841843
  36.6660012  29.8054997  56.1509988  36.3920012  29.3804997  55.3379988
  36.7050012  30.7364997  55.9339988  36.6337699  29.8732484  56.0103610
  27.1730012  38.1414997  57.7069988  28.1060012  38.2994997  57.8499988
  26.9090012  38.8164997  57.0819988  27.2649510  38.2543611  57.6420741
  20.7420012  32.7774997  57.1889988  21.6560012  32.8564997  57.4629988
  20.7490012  32.0904997  56.5229988  20.8681131  32.6953961  57.1364393
  37.7870012  28.6284997  58.3409988  37.2650012  28.9854997  57.6219988
  37.7540012  29.3034997  59.0189988  37.7111634  28.7685413  58.3343145
  36.1360012  25.8684997  56.8919988  36.2320012  26.5354997  56.2109988
  35.9960012  25.0524997  56.4099988  36.1302135  25.8494500  56.7338491
  35.3830012  23.2764997  56.0089988  35.9940012  22.9054997  56.6459988
  34.5470012  22.8554997  56.2049988  35.3535032  23.1687554  56.1227035
  37.4960012  22.1614997  57.5509988  37.9080012  21.4404997  57.0759988
  38.1780012  22.8314997  57.6099988  37.6445885  22.1532368  57.4938915
  21.0530012  20.2094997  58.6569988  21.4920012  20.8204997  58.0649988
  20.4200012  20.7474997  59.1309988  21.0274514  20.3659257  58.6400930
  33.7060012  20.3944997  60.0079988  33.0040012  21.0094997  59.7989988
  33.2620012  19.5564997  60.1389988  33.5496330  20.3655783  59.9970328
  20.9540012  36.1574997  59.5549988  20.2690012  36.1194997  58.8869988
  20.9580012  37.0704997  59.8429988  20.8608193  36.2757016  59.5025284
  22.9140012  22.1254997  57.0989988  23.4060012  21.4954997  56.5719988
  23.5380012  22.4214997  57.7629988  23.0655446  22.0793199  57.1165980
  29.8190012  37.3674997  57.9519988  30.6850012  37.7334997  57.7739988
  29.5720012  36.9274997  57.1379988  29.9042392  37.3581756  57.8176289
  36.5280012  36.9304997  60.6309988  36.3330012  36.1824997  60.0659988
  36.4890012  37.6884997  60.0479988  36.4960380  36.9306099  60.4748384
  22.7720012  37.0774997  56.5799988  22.5050012  37.3644997  57.4529988
  23.5440012  36.5314997  56.7319988  22.8397488  37.0430294  56.7201050
  49.9490012  32.1684997  61.8549988  49.6530012  31.8464997  61.0039988
  49.6240012  33.0684997  61.8959988  49.8646371  32.2460215  61.7441801
  48.8730012  28.8114997  60.2639988  48.1610012  29.3464997  59.9119988
  49.5640012  28.8674997  59.6039988  48.8690132  28.8922543  60.1266289
  48.9260012  27.2694997  57.3029988  49.6270012  27.2914997  57.9539988
  49.2290012  26.6414997  56.6469988  49.0627830  27.1876566  57.3033711
  51.1490012  28.1834997  58.9009988  51.7290012  28.3334997  59.6479988
  51.5630012  28.6544997  58.1779988  51.2842830  28.2676841  58.9054134
  54.8480012  19.9334997  58.7139988  53.9480012  20.0724997  59.0089988
  55.1000012  20.7644997  58.3119988  54.7588702  20.0649074  58.7000205
  56.0370012  34.2994997  57.0899988  56.1110012  35.2384997  57.2609988
  56.9430012  33.9944997  57.0339988  56.1695100  34.3866722  57.1058119
  51.4500012  37.0304997  57.7529988  51.8250012  36.2864997  57.2829988
  51.4540012  36.7604997  58.6719988  51.5018915  36.8921486  57.8127824
  52.6270012  29.2164997  56.5309988  52.6690012  28.9934997  55.6009988
  53.4760012  29.6154997  56.7209988  52.7475396  29.2399155  56.4293627
  48.1990012  23.0924997  57.2009988  47.9460012  23.1114997  58.1239988
  47.9430012  22.2204997  56.8999988  48.1297790  22.9772437  57.2866263
  45.0820012  23.5374997  56.3019988  44.6510012  23.0924997  57.0319988
  44.3640012  23.9094997  55.7899988  44.9259438  23.5268940  56.3326799
  39.5980012  24.0254997  58.7779988  40.0720012  24.6164997  58.1929988
  38.8810012  24.5564997  59.1249988  39.5659341  24.1780867  58.7448836
  45.0260012  25.1204997  60.1179988  45.9570012  25.2494997  60.2959988
  44.8110012  25.7904997  59.4679988  45.1244247  25.2286565  60.0545747
  43.7000012  26.3154997  57.6849988  43.1570012  25.9354997  56.9929988
  44.5330012  26.5094997  57.2559988  43.7384399  26.2898124  57.5324526
  47.0350012  30.8804997  59.6199988  46.2900012  30.3734997  59.2979988
  46.9010012  30.9294997  60.5669988  46.9148776  30.8176940  59.7038647
  50.9330012  23.6944997  57.8199988  49.9940012  23.8064997  57.6679988
  51.2300012  24.5514997  58.1259988  50.8447666  23.8256443  57.8405768
  51.6510012  25.5614997  59.4799988  52.5430012  25.4244997  59.7989988
  51.7080012  26.3524997  58.9439988  51.7806285  25.6496660  59.4511691
  49.1610012  32.3394997  58.6459988  48.8650012  33.1654997  59.0269988
  48.4580012  31.7194997  58.8419988  49.0254914  32.3688199  58.7246443
  56.5360012  25.7714997  59.1749988  55.9820012  25.3754997  58.5029988
  56.6360012  26.6814997  58.8969988  56.4737059  25.8403586  59.0454401
  40.2900012  28.5554997  57.3809988  40.9060012  29.1824997  57.7609988
  39.4280012  28.8714997  57.6529988  40.2577698  28.6839430  57.4697183
  52.2240012  32.5334997  57.4599988  52.5770012  32.1534997  58.2649988
  51.2750012  32.4404997  57.5469988  52.1440441  32.4689596  57.5818559
  56.7270012  37.0134997  57.6609988  57.4710012  37.5994997  57.5209988
  56.0330012  37.5814997  57.9949988  56.7350292  37.1705582  57.6869961
  53.0900012  31.2064997  59.6869988  52.8120012  30.4784997  60.2429988
  54.0170012  31.3254997  59.8919988  53.1773124  31.1228802  59.7908845
  46.3150012  33.6454997  55.9069988  46.5540012  32.8974997  55.3599988
  46.0460012  33.2574997  56.7399988  46.3113675  33.4906638  55.9446865
  45.2520012  33.2154997  58.3639988  45.3980012  32.6954997  59.1539988
  45.2490012  34.1224997  58.6699988  45.2715989  33.2668853  58.5136088
  41.7050012  30.4684997  58.8739988  41.0190012  30.8204997  59.4409988
  42.2270012  31.2314997  58.6269988  41.6816852  30.6198578  58.9182118
  47.9890012  34.9134997  59.1129988  47.1730012  35.4104997  59.1649988
  48.5190012  35.3884997  58.4729988  47.9489161  35.0457722  59.0335956
  45.3280012  35.9574997  59.0949988  45.4880012  36.7564997  58.5939988
  45.1300012  36.2634997  59.9799988  45.3231649  36.1084469  59.1459815
  42.3210012  33.0824997  57.7709988  42.9130012  33.7814997  58.0469988
  42.7800012  32.6494997  57.0509988  42.4641142  33.1197049  57.7114830
  40.6370012  25.7464997  56.8869988  40.5920012  26.6854997  57.0649988
  39.7490012  25.5104997  56.6169988  40.5108574  25.8431892  56.8748912
  48.3530012  35.5084997  56.0459988  47.7090012  34.8774997  56.3669988
  49.1150012  34.9774997  55.8139988  48.3678077  35.3502920  56.0586011
  52.9570012  35.3254997  56.2799988  53.2400012  34.5314997  56.7319988
  53.6970012  35.5584997  55.7189988  53.0957486  35.2482803  56.2660698
  43.9120012  31.2354997  56.1369988  43.9760012  30.4414997  56.6679988
  44.5650012  31.1164997  55.4469988  44.0090241  31.1107148  56.1164317
  49.2640012  32.2824997  55.8729988  48.9950012  32.4624997  56.7739988
  49.0580012  31.3564997  55.7419988  49.1993825  32.1820152  55.9785214
  45.0610012  29.2074997  58.4429988  44.6010012  28.7234997  59.1289988
  45.3160012  28.5394997  57.8069988  45.0324902  29.0508731  58.4509334
  46.1320012  27.4504997  56.7049988  45.9520012  27.2964997  55.7779988
  47.0820012  27.5584997  56.7499988  46.2357776  27.4440175  56.5841843
  55.5220012  29.8054997  56.1509988  55.2480012  29.3804997  55.3379988
  55.5610012  30.7364997  55.9339988  55.4897699  29.8732484  56.0103610
  46.0290012  38.1414997  57.7069988  46.9620012  38.2994997  57.8499988
  45.7650012  38.8164997  57.0819988  46.1209510  38.2543611  57.6420741
  39.5980012  32.7774997  57.1889988  40.5120012  32.8564997  57.4629988
  39.6050012  32.0904997  56.5229988  39.7241131  32.6953961  57.1364393
  38.2470012  38.1704997  62.2669988  37.6000012  37.7084997  61.7339988
  38.6010012  37.4984997  62.8489988  38.2063849  38.0164723  62.2727959
  55.9800012  30.6744997  60.1259988  56.8300012  31.0954997  60.2529988
  55.9860012  29.9344997  60.7329988  56.0971372  30.6320803  60.2254344
  56.3750012  28.7274997  61.9499988  55.6480012  28.2484997  62.3469988
  56.9560012  28.9334997  62.6819988  56.3539375  28.6897090  62.1034129
  56.6430012  28.6284997  58.3409988  56.1210012  28.9854997  57.6219988
  56.6100012  29.3034997  59.0189988  56.5671634  28.7685413  58.3343145
  54.9920012  25.8684997  56.8919988  55.0880012  26.5354997  56.2109988
  54.8520012  25.0524997  56.4099988  54.9862135  25.8494500  56.7338491
  54.2390012  23.2764997  56.0089988  54.8500012  22.9054997  56.6459988
  53.4030012  22.8554997  56.2049988  54.2095032  23.1687554  56.1227035
  54.4850012  22.0944997  61.0229988  54.6680012  21.6454997  61.8489988
  53.8860012  21.5094997  60.5599988  54.4290202  21.9539975  61.0733275
  56.3520012  22.1614997  57.5509988  56.7640012  21.4404997  57.0759988
  57.0340012  22.8314997  57.6099988  56.5005885  22.1532368  57.4938915
  39.9090012  20.2094997  58.6569988  40.3480012  20.8204997  58.0649988
  39.2760012  20.7474997  59.1309988  39.8834514  20.3659257  58.6400930
  39.8100012  36.1574997  59.5549988  39.1250012  36.1194997  58.8869988
  39.8140012  37.0704997  59.8429988  39.7168193  36.2757016  59.5025284
  41.7700012  22.1254997  57.0989988  42.2620012  21.4954997  56.5719988
  42.3940012  22.4214997  57.7629988  41.9215446  22.0793199  57.1165980
  48.6750012  37.3674997  57.9519988  49.5410012  37.7334997  57.7739988
  48.4280012  36.9274997  57.1379988  48.7602392  37.3581756  57.8176289
  55.3840012  36.9304997  60.6309988  55.1890012  36.1824997  60.0659988
  55.3450012  37.6884997  60.0479988  55.3520380  36.9306099  60.4748384
  41.6280012  37.0774997  56.5799988  41.3610012  37.3644997  57.4529988
  42.4000012  36.5314997  56.7319988  41.6957488  37.0430294  56.7201050
  57.8420012  26.5474997  61.7519988  57.3950012  27.3934997  61.7329988
  57.2810012  25.9674997  61.2359988  57.7049900  26.5849916  61.6796801
  71.5700012  33.2834997  62.0139988  71.3120012  32.5934997  61.4029988
  71.6410012  32.8404997  62.8599988  71.5442856  33.1292124  62.0446885
  67.7820012  27.2694997  57.3029988  68.4830012  27.2914997  57.9539988
  68.0850012  26.6414997  56.6469988  67.9187830  27.1876566  57.3033711
  71.1340012  29.0214997  61.2159988  70.4020012  29.2494997  61.7889988
  71.5820012  28.3074997  61.6709988  71.0943095  28.9562571  61.3559119
  70.0050012  28.1834997  58.9009988  70.5850012  28.3334997  59.6479988
  70.4190012  28.6544997  58.1779988  70.1402830  28.2676841  58.9054134
  73.7040012  19.9334997  58.7139988  72.8040012  20.0724997  59.0089988
  73.9560012  20.7644997  58.3119988  73.6148702  20.0649074  58.7000205
  74.8930012  34.2994997  57.0899988  74.9670012  35.2384997  57.2609988
  75.7990012  33.9944997  57.0339988  75.0255100  34.3866722  57.1058119
  67.2040012  37.8764997  60.7509988  67.1290012  37.7554997  59.8049988
  67.2370012  38.8264997  60.8699988  67.1981848  37.9882500  60.6374834
  70.3060012  37.0304997  57.7529988  70.6810012  36.2864997  57.2829988
  70.3100012  36.7604997  58.6719988  70.3578915  36.8921486  57.8127824
  69.9750012  36.9564997  60.5029988  69.0390012  37.0564997  60.6809988
  70.2550012  36.2474997  61.0809988  69.8848255  36.8742711  60.6055391
  71.4830012  29.2164997  56.5309988  71.5250012  28.9934997  55.6009988
  72.3320012  29.6154997  56.7209988  71.6035396  29.2399155  56.4293627
  67.0550012  23.0924997  57.2009988  66.8020012  23.1114997  58.1239988
  66.7990012  22.2204997  56.8999988  66.9857790  22.9772437  57.2866263
  63.9380012  23.5374997  56.3019988  63.5070012  23.0924997  57.0319988
  63.2200012  23.9094997  55.7899988  63.7819438  23.5268940  56.3326799
  58.4540012  24.0254997  58.7779988  58.9280012  24.6164997  58.1929988
  57.7370012  24.5564997  59.1249988  58.4219341  24.1780867  58.7448836
  63.8820012  25.1204997  60.1179988  64.8130012  25.2494997  60.2959988
  63.6670012  25.7904997  59.4679988  63.9804247  25.2286565  60.0545747
  62.5560012  26.3154997  57.6849988  62.0130012  25.9354997  56.9929988
  63.3890012  26.5094997  57.2559988  62.5944399  26.2898124  57.5324526
  65.8910012  30.8804997  59.6199988  65.1460012  30.3734997  59.2979988
  65.7570012  30.9294997  60.5669988  65.7708776  30.8176940  59.7038647
  69.7890012  23.6944997  57.8199988  68.8500012  23.8064997  57.6679988
  70.0860012  24.5514997  58.1259988  69.7007666  23.8256443  57.8405768
  70.5070012  25.5614997  59.4799988  71.3990012  25.4244997  59.7989988
  70.5640012  26.3524997  58.9439988  70.6366285  25.6496660  59.4511691
  68.0170012  32.3394997  58.6459988  67.7210012  33.1654997  59.0269988
  67.3140012  31.7194997  58.8419988  67.8814914  32.3688199  58.7246443
  73.6870012  34.5574997  59.6399988  73.3140012  33.7314997  59.9489988
  73.9650012  34.3744997  58.7429988  73.6735630  34.4197303  59.5609626
  59.1460012  28.5554997  57.3809988  59.7620012  29.1824997  57.7609988
  58.2840012  28.8714997  57.6529988  59.1137698  28.6839430  57.4697183
  71.0800012  32.5334997  57.4599988  71.4330012  32.1534997  58.2649988
  70.1310012  32.4404997  57.5469988  71.0000441  32.4689596  57.5818559
  75.5830012  37.0134997  57.6609988  76.3270012  37.5994997  57.5209988
  74.8890012  37.5814997  57.9949988  75.5910292  37.1705582  57.6869961
  71.9460012  31.2064997  59.6869988  71.6680012  30.4784997  60.2429988
  72.8730012  31.3254997  59.8919988  72.0333124  31.1228802  59.7908845
  65.1710012  33.6454997  55.9069988  65.4100012  32.8974997  55.3599988
  64.9020012  33.2574997  56.7399988  65.1673675  33.4906638  55.9446865
  64.1080012  33.2154997  58.3639988  64.2540012  32.6954997  59.1539988
  64.1050012  34.1224997  58.6699988  64.1275989  33.2668853  58.5136088
  60.5610012  30.4684997  58.8739988  59.8750012  30.8204997  59.4409988
  61.0830012  31.2314997  58.6269988  60.5376852  30.6198578  58.9182118
  69.1770012  22.7824997  60.2499988  69.3970012  23.2544997  59.4469988
  69.7350012  23.1774997  60.9199988  69.2824968  22.9004285  60.2307331
  62.9180012  22.6544997  58.7099988  62.8350012  23.5434997  59.0569988
  63.8080012  22.3894997  58.9419988  63.0269469  22.7401430  58.7887626
  61.1770012  33.0824997  57.7709988  61.7690012  33.7814997  58.0469988
  61.6360012  32.6494997  57.0509988  61.3201142  33.1197049  57.7114830
  59.4930012  25.7464997  56.8869988  59.4480012  26.6854997  57.0649988
  58.6050012  25.5104997  56.6169988  59.3668574  25.8431892  56.8748912
  67.2090012  35.5084997  56.0459988  66.5650012  34.8774997  56.3669988
  67.9710012  34.9774997  55.8139988  67.2238077  35.3502920  56.0586011
  71.8130012  35.3254997  56.2799988  72.0960012  34.5314997  56.7319988
  72.5530012  35.5584997  55.7189988  71.9517486  35.2482803  56.2660698
  62.7680012  31.2354997  56.1369988  62.8320012  30.4414997  56.6679988
  63.4210012  31.1164997  55.4469988  62.8650241  31.1107148  56.1164317
  68.1200012  32.2824997  55.8729988  67.8510012  32.4624997  56.7739988
  67.9140012  31.3564997  55.7419988  68.0553825  32.1820152  55.9785214
  63.9170012  29.2074997  58.4429988  63.4570012  28.7234997  59.1289988
  64.1720012  28.5394997  57.8069988  63.8884902  29.0508731  58.4509334
  64.9880012  27.4504997  56.7049988  64.8080012  27.2964997  55.7779988
  65.9380012  27.5584997  56.7499988  65.0917776  27.4440175  56.5841843
  74.3780012  29.8054997  56.1509988  74.1040012  29.3804997  55.3379988
  74.4170012  30.7364997  55.9339988  74.3457699  29.8732484  56.0103610
  64.8850012  38.1414997  57.7069988  65.8180012  38.2994997  57.8499988
  64.6210012  38.8164997  57.0819988  64.9769510  38.2543611  57.6420741
  58.4540012  32.7774997  57.1889988  59.3680012  32.8564997  57.4629988
  58.4610012  32.0904997  56.5229988  58.5801131  32.6953961  57.1364393
  75.2310012  28.7274997  61.9499988  74.5040012  28.2484997  62.3469988
  75.8120012  28.9334997  62.6819988  75.2099375  28.6897090  62.1034129
  75.4990012  28.6284997  58.3409988  74.9770012  28.9854997  57.6219988
  75.4660012  29.3034997  59.0189988  75.4231634  28.7685413  58.3343145
  73.8480012  25.8684997  56.8919988  73.9440012  26.5354997  56.2109988
  73.7080012  25.0524997  56.4099988  73.8422135  25.8494500  56.7338491
  73.0950012  23.2764997  56.0089988  73.7060012  22.9054997  56.6459988
  72.2590012  22.8554997  56.2049988  73.0655032  23.1687554  56.1227035
  75.2080012  22.1614997  57.5509988  75.6200012  21.4404997  57.0759988
  75.8900012  22.8314997  57.6099988  75.3565885  22.1532368  57.4938915
  57.4890012  22.1664997  60.6779988  56.5640012  22.3754997  60.5489988
  57.9430012  22.6504997  59.9889988  57.4237368  22.2605993  60.5671226
  58.7650012  20.2094997  58.6569988  59.2040012  20.8204997  58.0649988
  58.1320012  20.7474997  59.1309988  58.7394514  20.3659257  58.6400930
  71.4180012  20.3944997  60.0079988  70.7160012  21.0094997  59.7989988
  70.9740012  19.5564997  60.1389988  71.2616330  20.3655783  59.9970328
  58.6660012  36.1574997  59.5549988  57.9810012  36.1194997  58.8869988
  58.6700012  37.0704997  59.8429988  58.5728193  36.2757016  59.5025284
  60.6260012  22.1254997  57.0989988  61.1180012  21.4954997  56.5719988
  61.2500012  22.4214997  57.7629988  60.7775446  22.0793199  57.1165980
  65.6520012  22.4184997  59.5559988  65.8300012  21.7724997  60.2389988
  65.5990012  23.2524997  60.0239988  65.6691829  22.4427985  59.7125940
  67.5310012  37.3674997  57.9519988  68.3970012  37.7334997  57.7739988
  67.2840012  36.9274997  57.1379988  67.6162392  37.3581756  57.8176289
  74.2400012  36.9304997  60.6309988  74.0450012  36.1824997  60.0659988
  74.2010012  37.6884997  60.0479988  74.2080380  36.9306099  60.4748384
  60.4840012  37.0774997  56.5799988  60.2170012  37.3644997  57.4529988
  61.2560012  36.5314997  56.7319988  60.5517488  37.0430294  56.7201050
  90.4260012  33.2834997  62.0139988  90.1680012  32.5934997  61.4029988
  90.4970012  32.8404997  62.8599988  90.4002856  33.1292124  62.0446885
  86.5850012  28.8114997  60.2639988  85.8730012  29.3464997  59.9119988
  87.2760012  28.8674997  59.6039988  86.5810132  28.8922543  60.1266289
  86.6380012  27.2694997  57.3029988  87.3390012  27.2914997  57.9539988
  86.9410012  26.6414997  56.6469988  86.7747830  27.1876566  57.3033711
  89.9900012  29.0214997  61.2159988  89.2580012  29.2494997  61.7889988
  90.4380012  28.3074997  61.6709988  89.9503095  28.9562571  61.3559119
  88.8610012  28.1834997  58.9009988  89.4410012  28.3334997  59.6479988
  89.2750012  28.6544997  58.1779988  88.9962830  28.2676841  58.9054134
  92.5600012  19.9334997  58.7139988  91.6600012  20.0724997  59.0089988
  92.8120012  20.7644997  58.3119988  92.4708702  20.0649074  58.7000205
  80.6260012  28.7214997  60.6879988  80.3340012  29.4894997  60.1969988
  79.9520012  28.0614997  60.5249988  80.4949081  28.7374406  60.5987340
  93.7490012  34.2994997  57.0899988  93.8230012  35.2384997  57.2609988
  94.6550012  33.9944997  57.0339988  93.8815100  34.3866722  57.1058119
  86.0600012  37.8764997  60.7509988  85.9850012  37.7554997  59.8049988
  86.0930012  38.8264997  60.8699988  86.0541848  37.9882500  60.6374834
  89.1620012  37.0304997  57.7529988  89.5370012  36.2864997  57.2829988
  89.1660012  36.7604997  58.6719988  89.2138915  36.8921486  57.8127824
  88.8310012  36.9564997  60.5029988  87.8950012  37.0564997  60.6809988
  89.1110012  36.2474997  61.0809988  88.7408255  36.8742711  60.6055391
  90.3390012  29.2164997  56.5309988  90.3810012  28.9934997  55.6009988
  91.1880012  29.6154997  56.7209988  90.4595396  29.2399155  56.4293627
  85.9110012  23.0924997  57.2009988  85.6580012  23.1114997  58.1239988
  85.6550012  22.2204997  56.8999988  85.8417790  22.9772437  57.2866263
  82.7940012  23.5374997  56.3019988  82.3630012  23.0924997  57.0319988
  82.0760012  23.9094997  55.7899988  82.6379438  23.5268940  56.3326799
  77.3100012  24.0254997  58.7779988  77.7840012  24.6164997  58.1929988
  76.5930012  24.5564997  59.1249988  77.2779341  24.1780867  58.7448836
  82.7380012  25.1204997  60.1179988  83.6690012  25.2494997  60.2959988
  82.5230012  25.7904997  59.4679988  82.8364247  25.2286565  60.0545747
  81.4120012  26.3154997  57.6849988  80.8690012  25.9354997  56.9929988
  82.2450012  26.5094997  57.2559988  81.4504399  26.2898124  57.5324526
  80.5780012  22.4154997  61.9399988  80.2610012  21.5134997  61.9049988
  81.3600012  22.4174997  61.3869988  80.6402284  22.2921628  61.8604783
  84.7470012  30.8804997  59.6199988  84.0020012  30.3734997  59.2979988
  84.6130012  30.9294997  60.5669988  84.6268776  30.8176940  59.7038647
  88.6450012  23.6944997  57.8199988  87.7060012  23.8064997  57.6679988
  88.9420012  24.5514997  58.1259988  88.5567666  23.8256443  57.8405768
  89.3630012  25.5614997  59.4799988  90.2550012  25.4244997  59.7989988
  89.4200012  26.3524997  58.9439988  89.4926285  25.6496660  59.4511691
  86.8730012  32.3394997  58.6459988  86.5770012  33.1654997  59.0269988
  86.1700012  31.7194997  58.8419988  86.7374914  32.3688199  58.7246443
  78.0020012  28.5554997  57.3809988  78.6180012  29.1824997  57.7609988
  77.1400012  28.8714997  57.6529988  77.9697698  28.6839430  57.4697183
  82.3570012  36.3784997  61.9159988  81.4070012  36.4834997  61.9669988
  82.7090012  37.1984997  62.2609988  82.2744203  36.5038314  61.9696650
  89.9360012  32.5334997  57.4599988  90.2890012  32.1534997  58.2649988
  88.9870012  32.4404997  57.5469988  89.8560441  32.4689596  57.5818559
  94.4390012  37.0134997  57.6609988  95.1830012  37.5994997  57.5209988
  93.7450012  37.5814997  57.9949988  94.4470292  37.1705582  57.6869961
  90.8020012  31.2064997  59.6869988  90.5240012  30.4784997  60.2429988
  91.7290012  31.3254997  59.8919988  90.8893124  31.1228802  59.7908845
  84.0270012  33.6454997  55.9069988  84.2660012  32.8974997  55.3599988
  83.7580012  33.2574997  56.7399988  84.0233675  33.4906638  55.9446865
  82.9640012  33.2154997  58.3639988  83.1100012  32.6954997  59.1539988
  82.9610012  34.1224997  58.6699988  82.9835989  33.2668853  58.5136088
  79.4170012  30.4684997  58.8739988  78.7310012  30.8204997  59.4409988
  79.9390012  31.2314997  58.6269988  79.3936852  30.6198578  58.9182118
  85.7010012  34.9134997  59.1129988  84.8850012  35.4104997  59.1649988
  86.2310012  35.3884997  58.4729988  85.6609161  35.0457722  59.0335956
  85.2330012  24.5104997  61.0849988  86.0450012  25.0154997  61.1309988
  84.9880012  24.3654997  61.9989988  85.3110520  24.5600375  61.2148517
  83.0400012  35.9574997  59.0949988  83.2000012  36.7564997  58.5939988
  82.8420012  36.2634997  59.9799988  83.0351649  36.1084469  59.1459815
  81.7740012  22.6544997  58.7099988  81.6910012  23.5434997  59.0569988
  82.6640012  22.3894997  58.9419988  81.8829469  22.7401430  58.7887626
  80.0330012  33.0824997  57.7709988  80.6250012  33.7814997  58.0469988
  80.4920012  32.6494997  57.0509988  80.1761142  33.1197049  57.7114830
  78.3490012  25.7464997  56.8869988  78.3040012  26.6854997  57.0649988
  77.4610012  25.5104997  56.6169988  78.2228574  25.8431892  56.8748912
  86.0650012  35.5084997  56.0459988  85.4210012  34.8774997  56.3669988
  86.8270012  34.9774997  55.8139988  86.0798077  35.3502920  56.0586011
  90.6690012  35.3254997  56.2799988  90.9520012  34.5314997  56.7319988
  91.4090012  35.5584997  55.7189988  90.8077486  35.2482803  56.2660698
  81.6240012  31.2354997  56.1369988  81.6880012  30.4414997  56.6679988
  82.2770012  31.1164997  55.4469988  81.7210241  31.1107148  56.1164317
  86.9760012  32.2824997  55.8729988  86.7070012  32.4624997  56.7739988
  86.7700012  31.3564997  55.7419988  86.9113825  32.1820152  55.9785214
  82.7730012  29.2074997  58.4429988  82.3130012  28.7234997  59.1289988
  83.0280012  28.5394997  57.8069988  82.7444902  29.0508731  58.4509334
  83.8440012  27.4504997  56.7049988  83.6640012  27.2964997  55.7779988
  84.7940012  27.5584997  56.7499988  83.9477776  27.4440175  56.5841843
  93.2340012  29.8054997  56.1509988  92.9600012  29.3804997  55.3379988
  93.2730012  30.7364997  55.9339988  93.2017699  29.8732484  56.0103610
  83.7410012  38.1414997  57.7069988  84.6740012  38.2994997  57.8499988
  83.4770012  38.8164997  57.0819988  83.8329510  38.2543611  57.6420741
  77.3100012  32.7774997  57.1889988  78.2240012  32.8564997  57.4629988
  77.3170012  32.0904997  56.5229988  77.4361131  32.6953961  57.1364393
  94.3550012  28.6284997  58.3409988  93.8330012  28.9854997  57.6219988
  94.3220012  29.3034997  59.0189988  94.2791634  28.7685413  58.3343145
  92.7040012  25.8684997  56.8919988  92.8000012  26.5354997  56.2109988
  92.5640012  25.0524997  56.4099988  92.6982135  25.8494500  56.7338491
  91.9510012  23.2764997  56.0089988  92.5620012  22.9054997  56.6459988
  91.1150012  22.8554997  56.2049988  91.9215032  23.1687554  56.1227035
  91.5840012  24.8314997  60.9749988  91.8640012  23.9244997  61.0989988
  92.3430012  25.2654997  60.5859988  91.7249277  24.7660942  60.9393682
  92.1970012  22.0944997  61.0229988  92.3800012  21.6454997  61.8489988
  91.5980012  21.5094997  60.5599988  92.1410202  21.9539975  61.0733275
  94.0640012  22.1614997  57.5509988  94.4760012  21.4404997  57.0759988
  94.7460012  22.8314997  57.6099988  94.2125885  22.1532368  57.4938915
  77.6210012  20.2094997  58.6569988  78.0600012  20.8204997  58.0649988
  76.9880012  20.7474997  59.1309988  77.5954514  20.3659257  58.6400930
  90.2740012  20.3944997  60.0079988  89.5720012  21.0094997  59.7989988
  89.8300012  19.5564997  60.1389988  90.1176330  20.3655783  59.9970328
  77.5220012  36.1574997  59.5549988  76.8370012  36.1194997  58.8869988
  77.5260012  37.0704997  59.8429988  77.4288193  36.2757016  59.5025284
  79.4820012  22.1254997  57.0989988  79.9740012  21.4954997  56.5719988
  80.1060012  22.4214997  57.7629988  79.6335446  22.0793199  57.1165980
  84.5080012  22.4184997  59.5559988  84.6860012  21.7724997  60.2389988
  84.4550012  23.2524997  60.0239988  84.5251829  22.4427985  59.7125940
  86.3870012  37.3674997  57.9519988  87.2530012  37.7334997  57.7739988
  86.1400012  36.9274997  57.1379988  86.4722392  37.3581756  57.8176289
  79.3400012  37.0774997  56.5799988  79.0730012  37.3644997  57.4529988
  80.1120012  36.5314997  56.7319988  79.4077488  37.0430294  56.7201050
 106.5170012  32.1684997  61.8549988 106.2210012  31.8464997  61.0039988
 106.1920012  33.0684997  61.8959988 106.4326371  32.2460215  61.7441801
  96.2450012  31.9794997  60.1679988  95.9730012  32.2084997  59.2789988
  96.2910012  32.8174997  60.6279988  96.2140094  32.1241213  60.1085697
 105.4410012  28.8114997  60.2639988 104.7290012  29.3464997  59.9119988
 106.1320012  28.8674997  59.6039988 105.4370132  28.8922543  60.1266289
 105.4940012  27.2694997  57.3029988 106.1950012  27.2914997  57.9539988
 105.7970012  26.6414997  56.6469988 105.6307830  27.1876566  57.3033711
 107.7170012  28.1834997  58.9009988 108.2970012  28.3334997  59.6479988
 108.1310012  28.6544997  58.1779988 107.8522830  28.2676841  58.9054134
 111.4160012  19.9334997  58.7139988 110.5160012  20.0724997  59.0089988
 111.6680012  20.7644997  58.3119988 111.3268702  20.0649074  58.7000205
  99.4820012  28.7214997  60.6879988  99.1900012  29.4894997  60.1969988
  98.8080012  28.0614997  60.5249988  99.3509081  28.7374406  60.5987340
 112.6050012  34.2994997  57.0899988 112.6790012  35.2384997  57.2609988
 113.5110012  33.9944997  57.0339988 112.7375100  34.3866722  57.1058119
 108.0180012  37.0304997  57.7529988 108.3930012  36.2864997  57.2829988
 108.0220012  36.7604997  58.6719988 108.0698915  36.8921486  57.8127824
 107.6870012  36.9564997  60.5029988 106.7510012  37.0564997  60.6809988
 107.9670012  36.2474997  61.0809988 107.5968255  36.8742711  60.6055391
 109.1950012  29.2164997  56.5309988 109.2370012  28.9934997  55.6009988
 110.0440012  29.6154997  56.7209988 109.3155396  29.2399155  56.4293627
 104.7670012  23.0924997  57.2009988 104.5140012  23.1114997  58.1239988
 104.5110012  22.2204997  56.8999988 104.6977790  22.9772437  57.2866263
 101.6500012  23.5374997  56.3019988 101.2190012  23.0924997  57.0319988
 100.9320012  23.9094997  55.7899988 101.4939438  23.5268940  56.3326799
  96.1660012  24.0254997  58.7779988  96.6400012  24.6164997  58.1929988
  95.4490012  24.5564997  59.1249988  96.1339341  24.1780867  58.7448836
 100.2680012  26.3154997  57.6849988  99.7250012  25.9354997  56.9929988
 101.1010012  26.5094997  57.2559988 100.3064399  26.2898124  57.5324526
 103.6030012  30.8804997  59.6199988 102.8580012  30.3734997  59.2979988
 103.4690012  30.9294997  60.5669988 103.4828776  30.8176940  59.7038647
 107.5010012  23.6944997  57.8199988 106.5620012  23.8064997  57.6679988
 107.7980012  24.5514997  58.1259988 107.4127666  23.8256443  57.8405768
 108.2190012  25.5614997  59.4799988 109.1110012  25.4244997  59.7989988
 108.2760012  26.3524997  58.9439988 108.3486285  25.6496660  59.4511691
 105.7290012  32.3394997  58.6459988 105.4330012  33.1654997  59.0269988
 105.0260012  31.7194997  58.8419988 105.5934914  32.3688199  58.7246443
 113.1040012  25.7714997  59.1749988 112.5500012  25.3754997  58.5029988
 113.2040012  26.6814997  58.8969988 113.0417059  25.8403586  59.0454401
 111.3990012  34.5574997  59.6399988 111.0260012  33.7314997  59.9489988
 111.6770012  34.3744997  58.7429988 111.3855630  34.4197303  59.5609626
  96.8580012  28.5554997  57.3809988  97.4740012  29.1824997  57.7609988
  95.9960012  28.8714997  57.6529988  96.8257698  28.6839430  57.4697183
 108.7920012  32.5334997  57.4599988 109.1450012  32.1534997  58.2649988
 107.8430012  32.4404997  57.5469988 108.7120441  32.4689596  57.5818559
 113.2950012  37.0134997  57.6609988 114.0390012  37.5994997  57.5209988
 112.6010012  37.5814997  57.9949988 113.3030292  37.1705582  57.6869961
 102.8830012  33.6454997  55.9069988 103.1220012  32.8974997  55.3599988
 102.6140012  33.2574997  56.7399988 102.8793675  33.4906638  55.9446865
 101.8200012  33.2154997  58.3639988 101.9660012  32.6954997  59.1539988
 101.8170012  34.1224997  58.6699988 101.8395989  33.2668853  58.5136088
  98.2730012  30.4684997  58.8739988  97.5870012  30.8204997  59.4409988
  98.7950012  31.2314997  58.6269988  98.2496852  30.6198578  58.9182118
 106.8890012  22.7824997  60.2499988 107.1090012  23.2544997  59.4469988
 107.4470012  23.1774997  60.9199988 106.9944968  22.9004285  60.2307331
 104.5570012  34.9134997  59.1129988 103.7410012  35.4104997  59.1649988
 105.0870012  35.3884997  58.4729988 104.5169161  35.0457722  59.0335956
 101.8960012  35.9574997  59.0949988 102.0560012  36.7564997  58.5939988
 101.6980012  36.2634997  59.9799988 101.8911649  36.1084469  59.1459815
 100.6300012  22.6544997  58.7099988 100.5470012  23.5434997  59.0569988
 101.5200012  22.3894997  58.9419988 100.7389469  22.7401430  58.7887626
  98.8890012  33.0824997  57.7709988  99.4810012  33.7814997  58.0469988
  99.3480012  32.6494997  57.0509988  99.0321142  33.1197049  57.7114830
  97.2050012  25.7464997  56.8869988  97.1600012  26.6854997  57.0649988
  96.3170012  25.5104997  56.6169988  97.0788574  25.8431892  56.8748912
 104.9210012  35.5084997  56.0459988 104.2770012  34.8774997  56.3669988
 105.6830012  34.9774997  55.8139988 104.9358077  35.3502920  56.0586011
 109.5250012  35.3254997  56.2799988 109.8080012  34.5314997  56.7319988
 110.2650012  35.5584997  55.7189988 109.6637486  35.2482803  56.2660698
 100.4800012  31.2354997  56.1369988 100.5440012  30.4414997  56.6679988
 101.1330012  31.1164997  55.4469988 100.5770241  31.1107148  56.1164317
 105.8320012  32.2824997  55.8729988 105.5630012  32.4624997  56.7739988
 105.6260012  31.3564997  55.7419988 105.7673825  32.1820152  55.9785214
 102.7000012  27.4504997  56.7049988 102.5200012  27.2964997  55.7779988
 103.6500012  27.5584997  56.7499988 102.8037776  27.4440175  56.5841843
 112.0900012  29.8054997  56.1509988 111.8160012  29.3804997  55.3379988
 112.1290012  30.7364997  55.9339988 112.0577699  29.8732484  56.0103610
 102.5970012  38.1414997  57.7069988 103.5300012  38.2994997  57.8499988
 102.3330012  38.8164997  57.0819988 102.6889510  38.2543611  57.6420741
  96.1660012  32.7774997  57.1889988  97.0800012  32.8564997  57.4629988
  96.1730012  32.0904997  56.5229988  96.2921131  32.6953961  57.1364393
 113.2110012  28.6284997  58.3409988 112.6890012  28.9854997  57.6219988
 113.1780012  29.3034997  59.0189988 113.1351634  28.7685413  58.3343145
 111.5600012  25.8684997  56.8919988 111.6560012  26.5354997  56.2109988
 111.4200012  25.0524997  56.4099988 111.5542135  25.8494500  56.7338491
 110.8070012  23.2764997  56.0089988 111.4180012  22.9054997  56.6459988
 109.9710012  22.8554997  56.2049988 110.7775032  23.1687554  56.1227035
 112.9200012  22.1614997  57.5509988 113.3320012  21.4404997  57.0759988
 113.6020012  22.8314997  57.6099988 113.0685885  22.1532368  57.4938915
  96.4770012  20.2094997  58.6569988  96.9160012  20.8204997  58.0649988
  95.8440012  20.7474997  59.1309988  96.4514514  20.3659257  58.6400930
  98.3380012  22.1254997  57.0989988  98.8300012  21.4954997  56.5719988
  98.9620012  22.4214997  57.7629988  98.4895446  22.0793199  57.1165980
 103.3640012  22.4184997  59.5559988 103.5420012  21.7724997  60.2389988
 103.3110012  23.2524997  60.0239988 103.3811829  22.4427985  59.7125940
 105.2430012  37.3674997  57.9519988 106.1090012  37.7334997  57.7739988
 104.9960012  36.9274997  57.1379988 105.3282392  37.3581756  57.8176289
 111.9520012  36.9304997  60.6309988 111.7570012  36.1824997  60.0659988
 111.9130012  37.6884997  60.0479988 111.9200380  36.9306099  60.4748384
  98.1960012  37.0774997  56.5799988  97.9290012  37.3644997  57.4529988
  98.9680012  36.5314997  56.7319988  98.2637488  37.0430294  56.7201050
 114.4100012  26.5474997  61.7519988 113.9630012  27.3934997  61.7329988
 113.8490012  25.9674997  61.2359988 114.2729900  26.5849916  61.6796801
 115.1010012  31.9794997  60.1679988 114.8290012  32.2084997  59.2789988
 115.1470012  32.8174997  60.6279988 115.0700094  32.1241213  60.1085697
 124.2970012  28.8114997  60.2639988 123.5850012  29.3464997  59.9119988
 124.9880012  28.8674997  59.6039988 124.2930132  28.8922543  60.1266289
 124.3500012  27.2694997  57.3029988 125.0510012  27.2914997  57.9539988
 124.6530012  26.6414997  56.6469988 124.4867830  27.1876566  57.3033711
 127.7020012  29.0214997  61.2159988 126.9700012  29.2494997  61.7889988
 128.1500012  28.3074997  61.6709988 127.6623095  28.9562571  61.3559119
 126.5730012  28.1834997  58.9009988 127.1530012  28.3334997  59.6479988
 126.9870012  28.6544997  58.1779988 126.7082830  28.2676841  58.9054134
 130.2720012  19.9334997  58.7139988 129.3720012  20.0724997  59.0089988
 130.5240012  20.7644997  58.3119988 130.1828702  20.0649074  58.7000205
 131.4610012  34.2994997  57.0899988 131.5350012  35.2384997  57.2609988
 132.3670012  33.9944997  57.0339988 131.5935100  34.3866722  57.1058119
 123.7720012  37.8764997  60.7509988 123.6970012  37.7554997  59.8049988
 123.8050012  38.8264997  60.8699988 123.7661848  37.9882500  60.6374834
 126.8740012  37.0304997  57.7529988 127.2490012  36.2864997  57.2829988
 126.8780012  36.7604997  58.6719988 126.9258915  36.8921486  57.8127824
 128.0510012  29.2164997  56.5309988 128.0930012  28.9934997  55.6009988
 128.9000012  29.6154997  56.7209988 128.1715396  29.2399155  56.4293627
 123.6230012  23.0924997  57.2009988 123.3700012  23.1114997  58.1239988
 123.3670012  22.2204997  56.8999988 123.5537790  22.9772437  57.2866263
 124.9220012  26.4804997  61.3649988 124.5130012  27.2954997  61.0739988
 125.6430012  26.3404997  60.7509988 124.9634537  26.5732018  61.2421342
 120.5060012  23.5374997  56.3019988 120.0750012  23.0924997  57.0319988
 119.7880012  23.9094997  55.7899988 120.3499438  23.5268940  56.3326799
 115.0220012  24.0254997  58.7779988 115.4960012  24.6164997  58.1929988
 114.3050012  24.5564997  59.1249988 114.9899341  24.1780867  58.7448836
 119.1240012  26.3154997  57.6849988 118.5810012  25.9354997  56.9929988
 119.9570012  26.5094997  57.2559988 119.1624399  26.2898124  57.5324526
 118.2900012  22.4154997  61.9399988 117.9730012  21.5134997  61.9049988
 119.0720012  22.4174997  61.3869988 118.3522284  22.2921628  61.8604783
 122.4590012  30.8804997  59.6199988 121.7140012  30.3734997  59.2979988
 122.3250012  30.9294997  60.5669988 122.3388776  30.8176940  59.7038647
 126.3570012  23.6944997  57.8199988 125.4180012  23.8064997  57.6679988
 126.6540012  24.5514997  58.1259988 126.2687666  23.8256443  57.8405768
 124.5850012  32.3394997  58.6459988 124.2890012  33.1654997  59.0269988
 123.8820012  31.7194997  58.8419988 124.4494914  32.3688199  58.7246443
 131.9600012  25.7714997  59.1749988 131.4060012  25.3754997  58.5029988
 132.0600012  26.6814997  58.8969988 131.8977059  25.8403586  59.0454401
 115.7140012  28.5554997  57.3809988 116.3300012  29.1824997  57.7609988
 114.8520012  28.8714997  57.6529988 115.6817698  28.6839430  57.4697183
 127.6480012  32.5334997  57.4599988 128.0010012  32.1534997  58.2649988
 126.6990012  32.4404997  57.5469988 127.5680441  32.4689596  57.5818559
 132.1510012  37.0134997  57.6609988 132.8950012  37.5994997  57.5209988
 131.4570012  37.5814997  57.9949988 132.1590292  37.1705582  57.6869961
 121.7390012  33.6454997  55.9069988 121.9780012  32.8974997  55.3599988
 121.4700012  33.2574997  56.7399988 121.7353675  33.4906638  55.9446865
 120.6760012  33.2154997  58.3639988 120.8220012  32.6954997  59.1539988
 120.6730012  34.1224997  58.6699988 120.6955989  33.2668853  58.5136088
 117.1290012  30.4684997  58.8739988 116.4430012  30.8204997  59.4409988
 117.6510012  31.2314997  58.6269988 117.1056852  30.6198578  58.9182118
 123.4130012  34.9134997  59.1129988 122.5970012  35.4104997  59.1649988
 123.9430012  35.3884997  58.4729988 123.3729161  35.0457722  59.0335956
 122.9450012  24.5104997  61.0849988 123.7570012  25.0154997  61.1309988
 122.7000012  24.3654997  61.9989988 123.0230520  24.5600375  61.2148517
 120.7520012  35.9574997  59.0949988 120.9120012  36.7564997  58.5939988
 120.5540012  36.2634997  59.9799988 120.7471649  36.1084469  59.1459815
 119.4860012  22.6544997  58.7099988 119.4030012  23.5434997  59.0569988
 120.3760012  22.3894997  58.9419988 119.5949469  22.7401430  58.7887626
 117.7450012  33.0824997  57.7709988 118.3370012  33.7814997  58.0469988
 118.2040012  32.6494997  57.0509988 117.8881142  33.1197049  57.7114830
 116.0610012  25.7464997  56.8869988 116.0160012  26.6854997  57.0649988
 115.1730012  25.5104997  56.6169988 115.9348574  25.8431892  56.8748912
 123.7770012  35.5084997  56.0459988 123.1330012  34.8774997  56.3669988
 124.5390012  34.9774997  55.8139988 123.7918077  35.3502920  56.0586011
 128.3810012  35.3254997  56.2799988 128.6640012  34.5314997  56.7319988
 129.1210012  35.5584997  55.7189988 128.5197486  35.2482803  56.2660698
 119.3360012  31.2354997  56.1369988 119.4000012  30.4414997  56.6679988
 119.9890012  31.1164997  55.4469988 119.4330241  31.1107148  56.1164317
 124.6880012  32.2824997  55.8729988 124.4190012  32.4624997  56.7739988
 124.4820012  31.3564997  55.7419988 124.6233825  32.1820152  55.9785214
 121.5560012  27.4504997  56.7049988 121.3760012  27.2964997  55.7779988
 122.5060012  27.5584997  56.7499988 121.6597776  27.4440175  56.5841843
 130.9460012  29.8054997  56.1509988 130.6720012  29.3804997  55.3379988
 130.9850012  30.7364997  55.9339988 130.9137699  29.8732484  56.0103610
 121.4530012  38.1414997  57.7069988 122.3860012  38.2994997  57.8499988
 121.1890012  38.8164997  57.0819988 121.5449510  38.2543611  57.6420741
 115.0220012  32.7774997  57.1889988 115.9360012  32.8564997  57.4629988
 115.0290012  32.0904997  56.5229988 115.1481131  32.6953961  57.1364393
 131.4040012  30.6744997  60.1259988 132.2540012  31.0954997  60.2529988
 131.4100012  29.9344997  60.7329988 131.5211372  30.6320803  60.2254344
 132.0670012  28.6284997  58.3409988 131.5450012  28.9854997  57.6219988
 132.0340012  29.3034997  59.0189988 131.9911634  28.7685413  58.3343145
 130.4160012  25.8684997  56.8919988 130.5120012  26.5354997  56.2109988
 130.2760012  25.0524997  56.4099988 130.4102135  25.8494500  56.7338491
 129.6630012  23.2764997  56.0089988 130.2740012  22.9054997  56.6459988
 128.8270012  22.8554997  56.2049988 129.6335032  23.1687554  56.1227035
 131.7760012  22.1614997  57.5509988 132.1880012  21.4404997  57.0759988
 132.4580012  22.8314997  57.6099988 131.9245885  22.1532368  57.4938915
 115.3330012  20.2094997  58.6569988 115.7720012  20.8204997  58.0649988
 114.7000012  20.7474997  59.1309988 115.3074514  20.3659257  58.6400930
 117.1940012  22.1254997  57.0989988 117.6860012  21.4954997  56.5719988
 117.8180012  22.4214997  57.7629988 117.3455446  22.0793199  57.1165980
 122.2200012  22.4184997  59.5559988 122.3980012  21.7724997  60.2389988
 122.1670012  23.2524997  60.0239988 122.2371829  22.4427985  59.7125940
 124.0990012  37.3674997  57.9519988 124.9650012  37.7334997  57.7739988
 123.8520012  36.9274997  57.1379988 124.1842392  37.3581756  57.8176289
 117.0520012  37.0774997  56.5799988 116.7850012  37.3644997  57.4529988
 117.8240012  36.5314997  56.7319988 117.1197488  37.0430294  56.7201050
 144.2290012  32.1684997  61.8549988 143.9330012  31.8464997  61.0039988
 143.9040012  33.0684997  61.8959988 144.1446371  32.2460215  61.7441801
 133.9570012  31.9794997  60.1679988 133.6850012  32.2084997  59.2789988
 134.0030012  32.8174997  60.6279988 133.9260094  32.1241213  60.1085697
 143.2060012  27.2694997  57.3029988 143.9070012  27.2914997  57.9539988
 143.5090012  26.6414997  56.6469988 143.3427830  27.1876566  57.3033711
 137.1940012  28.7214997  60.6879988 136.9020012  29.4894997  60.1969988
 136.5200012  28.0614997  60.5249988 137.0629081  28.7374406  60.5987340
 142.4790012  23.0924997  57.2009988 142.2260012  23.1114997  58.1239988
 142.2230012  22.2204997  56.8999988 142.4097790  22.9772437  57.2866263
 139.3620012  23.5374997  56.3019988 138.9310012  23.0924997  57.0319988
 138.6440012  23.9094997  55.7899988 139.2059438  23.5268940  56.3326799
 133.8780012  24.0254997  58.7779988 134.3520012  24.6164997  58.1929988
 133.1610012  24.5564997  59.1249988 133.8459341  24.1780867  58.7448836
 139.3060012  25.1204997  60.1179988 140.2370012  25.2494997  60.2959988
 139.0910012  25.7904997  59.4679988 139.4044247  25.2286565  60.0545747
 137.9800012  26.3154997  57.6849988 137.4370012  25.9354997  56.9929988
 138.8130012  26.5094997  57.2559988 138.0184399  26.2898124  57.5324526
 141.3150012  30.8804997  59.6199988 140.5700012  30.3734997  59.2979988
 141.1810012  30.9294997  60.5669988 141.1948776  30.8176940  59.7038647
 143.4410012  32.3394997  58.6459988 143.1450012  33.1654997  59.0269988
 142.7380012  31.7194997  58.8419988 143.3054914  32.3688199  58.7246443
 134.5700012  28.5554997  57.3809988 135.1860012  29.1824997  57.7609988
 133.7080012  28.8714997  57.6529988 134.5377698  28.6839430  57.4697183
 140.5950012  33.6454997  55.9069988 140.8340012  32.8974997  55.3599988
 140.3260012  33.2574997  56.7399988 140.5913675  33.4906638  55.9446865
 139.5320012  33.2154997  58.3639988 139.6780012  32.6954997  59.1539988
 139.5290012  34.1224997  58.6699988 139.5515989  33.2668853  58.5136088
 135.9850012  30.4684997  58.8739988 135.2990012  30.8204997  59.4409988
 136.5070012  31.2314997  58.6269988 135.9616852  30.6198578  58.9182118
 144.6010012  22.7824997  60.2499988 144.8210012  23.2544997  59.4469988
 145.1590012  23.1774997  60.9199988 144.7064968  22.9004285  60.2307331
 142.2690012  34.9134997  59.1129988 141.4530012  35.4104997  59.1649988
 142.7990012  35.3884997  58.4729988 142.2289161  35.0457722  59.0335956
 142.6840012  21.5914997  62.0229988 142.3380012  22.2094997  62.6679988
 143.3430012  22.0924997  61.5419988 142.7257826  21.7435802  62.0460971
 139.6080012  35.9574997  59.0949988 139.7680012  36.7564997  58.5939988
 139.4100012  36.2634997  59.9799988 139.6031649  36.1084469  59.1459815
 138.3420012  22.6544997  58.7099988 138.2590012  23.5434997  59.0569988
 139.2320012  22.3894997  58.9419988 138.4509469  22.7401430  58.7887626
 136.6010012  33.0824997  57.7709988 137.1930012  33.7814997  58.0469988
 137.0600012  32.6494997  57.0509988 136.7441142  33.1197049  57.7114830
 134.9170012  25.7464997  56.8869988 134.8720012  26.6854997  57.0649988
 134.0290012  25.5104997  56.6169988 134.7908574  25.8431892  56.8748912
 142.6330012  35.5084997  56.0459988 141.9890012  34.8774997  56.3669988
 143.3950012  34.9774997  55.8139988 142.6478077  35.3502920  56.0586011
 138.1920012  31.2354997  56.1369988 138.2560012  30.4414997  56.6679988
 138.8450012  31.1164997  55.4469988 138.2890241  31.1107148  56.1164317
 143.5440012  32.2824997  55.8729988 143.2750012  32.4624997  56.7739988
 143.3380012  31.3564997  55.7419988 143.4793825  32.1820152  55.9785214
 139.3410012  29.2074997  58.4429988 138.8810012  28.7234997  59.1289988
 139.5960012  28.5394997  57.8069988 139.3124902  29.0508731  58.4509334
 140.4120012  27.4504997  56.7049988 140.2320012  27.2964997  55.7779988
 141.3620012  27.5584997  56.7499988 140.5157776  27.4440175  56.5841843
 140.3090012  38.1414997  57.7069988 141.2420012  38.2994997  57.8499988
 140.0450012  38.8164997  57.0819988 140.4009510  38.2543611  57.6420741
 133.8780012  32.7774997  57.1889988 134.7920012  32.8564997  57.4629988
 133.8850012  32.0904997  56.5229988 134.0041131  32.6953961  57.1364393
 132.9130012  22.1664997  60.6779988 131.9880012  22.3754997  60.5489988
 133.3670012  22.6504997  59.9889988 132.8477368  22.2605993  60.5671226
 136.0500012  22.1254997  57.0989988 136.5420012  21.4954997  56.5719988
 136.6740012  22.4214997  57.7629988 136.2015446  22.0793199  57.1165980
 141.0760012  22.4184997  59.5559988 141.2540012  21.7724997  60.2389988
 141.0230012  23.2524997  60.0239988 141.0931829  22.4427985  59.7125940
 142.9550012  37.3674997  57.9519988 143.8210012  37.7334997  57.7739988
 142.7080012  36.9274997  57.1379988 143.0402392  37.3581756  57.8176289
 135.9080012  37.0774997  56.5799988 135.6410012  37.3644997  57.4529988
 136.6800012  36.5314997  56.7319988 135.9757488  37.0430294  56.7201050
   1.2740012  45.4034997  61.7519988   0.8270012  46.2494997  61.7329988
   0.7130012  44.8234997  61.2359988   1.1369900  45.4409916  61.6796801
  15.0020012  52.1394997  62.0139988  14.7440012  51.4494997  61.4029988
  15.0730012  51.6964997  62.8599988  14.9762856  51.9852124  62.0446885
  11.2140012  46.1254997  57.3029988  11.9150012  46.1474997  57.9539988
  11.5170012  45.4974997  56.6469988  11.3507830  46.0436566  57.3033711
  13.4370012  47.0394997  58.9009988  14.0170012  47.1894997  59.6479988
  13.8510012  47.5104997  58.1779988  13.5722830  47.1236841  58.9054134
  17.1360012  38.7894997  58.7139988  16.2360012  38.9284997  59.0089988
  17.3880012  39.6204997  58.3119988  17.0468702  38.9209074  58.7000205
  18.3250012  53.1554997  57.0899988  18.3990012  54.0944997  57.2609988
  19.2310012  52.8504997  57.0339988  18.4575100  53.2426722  57.1058119
  13.7380012  55.8864997  57.7529988  14.1130012  55.1424997  57.2829988
  13.7420012  55.6164997  58.6719988  13.7898915  55.7481486  57.8127824
  14.9150012  48.0724997  56.5309988  14.9570012  47.8494997  55.6009988
  15.7640012  48.4714997  56.7209988  15.0355396  48.0959155  56.4293627
  10.4870012  41.9484997  57.2009988  10.2340012  41.9674997  58.1239988
  10.2310012  41.0764997  56.8999988  10.4177790  41.8332437  57.2866263
   7.3700012  42.3934997  56.3019988   6.9390012  41.9484997  57.0319988
   6.6520012  42.7654997  55.7899988   7.2139438  42.3828940  56.3326799
   1.8860012  42.8814997  58.7779988   2.3600012  43.4724997  58.1929988
   1.1690012  43.4124997  59.1249988   1.8539341  43.0340867  58.7448836
   7.3140012  43.9764997  60.1179988   8.2450012  44.1054997  60.2959988
   7.0990012  44.6464997  59.4679988   7.4124247  44.0846565  60.0545747
   5.9880012  45.1714997  57.6849988   5.4450012  44.7914997  56.9929988
   6.8210012  45.3654997  57.2559988   6.0264399  45.1458124  57.5324526
   9.3230012  49.7364997  59.6199988   8.5780012  49.2294997  59.2979988
   9.1890012  49.7854997  60.5669988   9.2028776  49.6736940  59.7038647
  13.2210012  42.5504997  57.8199988  12.2820012  42.6624997  57.6679988
  13.5180012  43.4074997  58.1259988  13.1327666  42.6816443  57.8405768
  13.9390012  44.4174997  59.4799988  14.8310012  44.2804997  59.7989988
  13.9960012  45.2084997  58.9439988  14.0686285  44.5056660  59.4511691
  11.4490012  51.1954997  58.6459988  11.1530012  52.0214997  59.0269988
  10.7460012  50.5754997  58.8419988  11.3134914  51.2248199  58.7246443
  18.8240012  44.6274997  59.1749988  18.2700012  44.2314997  58.5029988
  18.9240012  45.5374997  58.8969988  18.7617059  44.6963586  59.0454401
  17.1190012  53.4134997  59.6399988  16.7460012  52.5874997  59.9489988
  17.3970012  53.2304997  58.7429988  17.1055630  53.2757303  59.5609626
   2.5780012  47.4114997  57.3809988   3.1940012  48.0384997  57.7609988
   1.7160012  47.7274997  57.6529988   2.5457698  47.5399430  57.4697183
   8.2500012  50.2124997  62.3709988   8.0090012  51.1374997  62.4119988
   7.5090012  49.7534997  62.7669988   8.1168409  50.2771421  62.4301377
  14.5120012  51.3894997  57.4599988  14.8650012  51.0094997  58.2649988
  13.5630012  51.2964997  57.5469988  14.4320441  51.3249596  57.5818559
  19.0150012  55.8694997  57.6609988  19.7590012  56.4554997  57.5209988
  18.3210012  56.4374997  57.9949988  19.0230292  56.0265582  57.6869961
  15.3780012  50.0624997  59.6869988  15.1000012  49.3344997  60.2429988
  16.3050012  50.1814997  59.8919988  15.4653124  49.9788802  59.7908845
   8.6030012  52.5014997  55.9069988   8.8420012  51.7534997  55.3599988
   8.3340012  52.1134997  56.7399988   8.5993675  52.3466638  55.9446865
   7.5400012  52.0714997  58.3639988   7.6860012  51.5514997  59.1539988
   7.5370012  52.9784997  58.6699988   7.5595989  52.1228853  58.5136088
   7.6160012  54.8134997  59.0949988   7.7760012  55.6124997  58.5939988
   7.4180012  55.1194997  59.9799988   7.6111649  54.9644469  59.1459815
   6.3500012  41.5104997  58.7099988   6.2670012  42.3994997  59.0569988
   7.2400012  41.2454997  58.9419988   6.4589469  41.5961430  58.7887626
   4.6090012  51.9384997  57.7709988   5.2010012  52.6374997  58.0469988
   5.0680012  51.5054997  57.0509988   4.7521142  51.9757049  57.7114830
   2.9250012  44.6024997  56.8869988   2.8800012  45.5414997  57.0649988
   2.0370012  44.3664997  56.6169988   2.7988574  44.6991892  56.8748912
   2.6630012  53.3244997  61.7199988   1.8310012  53.7974997  61.7479988
   3.2090012  53.8344997  61.1219988   2.6229739  53.4581871  61.6429716
  10.6410012  54.3644997  56.0459988   9.9970012  53.7334997  56.3669988
  11.4030012  53.8334997  55.8139988  10.6558077  54.2062920  56.0586011
  15.2450012  54.1814997  56.2799988  15.5280012  53.3874997  56.7319988
  15.9850012  54.4144997  55.7189988  15.3837486  54.1042803  56.2660698
   6.2000012  50.0914997  56.1369988   6.2640012  49.2974997  56.6679988
   6.8530012  49.9724997  55.4469988   6.2970241  49.9667148  56.1164317
  11.5520012  51.1384997  55.8729988  11.2830012  51.3184997  56.7739988
  11.3460012  50.2124997  55.7419988  11.4873825  51.0380152  55.9785214
   7.3490012  48.0634997  58.4429988   6.8890012  47.5794997  59.1289988
   7.6040012  47.3954997  57.8069988   7.3204902  47.9068731  58.4509334
   8.4200012  46.3064997  56.7049988   8.2400012  46.1524997  55.7779988
   9.3700012  46.4144997  56.7499988   8.5237776  46.3000175  56.5841843
  17.8100012  48.6614997  56.1509988  17.5360012  48.2364997  55.3379988
  17.8490012  49.5924997  55.9339988  17.7777699  48.7292484  56.0103610
   8.3170012  56.9974997  57.7069988   9.2500012  57.1554997  57.8499988
   8.0530012  57.6724997  57.0819988   8.4089510  57.1103611  57.6420741
   1.8860012  51.6334997  57.1889988   2.8000012  51.7124997  57.4629988
   1.8930012  50.9464997  56.5229988   2.0121131  51.5513961  57.1364393
  18.9310012  47.4844997  58.3409988  18.4090012  47.8414997  57.6219988
  18.8980012  48.1594997  59.0189988  18.8551634  47.6245413  58.3343145
  17.2800012  44.7244997  56.8919988  17.3760012  45.3914997  56.2109988
  17.1400012  43.9084997  56.4099988  17.2742135  44.7054500  56.7338491
  16.5270012  42.1324997  56.0089988  17.1380012  41.7614997  56.6459988
  15.6910012  41.7114997  56.2049988  16.4975032  42.0247554  56.1227035
  16.1600012  43.6874997  60.9749988  16.4400012  42.7804997  61.0989988
  16.9190012  44.1214997  60.5859988  16.3009277  43.6220942  60.9393682
  16.7730012  40.9504997  61.0229988  16.9560012  40.5014997  61.8489988
  16.1740012  40.3654997  60.5599988  16.7170202  40.8099975  61.0733275
  18.6400012  41.0174997  57.5509988  19.0520012  40.2964997  57.0759988
  19.3220012  41.6874997  57.6099988  18.7885885  41.0092368  57.4938915
   0.9210012  41.0224997  60.6779988  -0.0039988  41.2314997  60.5489988
   1.3750012  41.5064997  59.9889988   0.8557368  41.1165993  60.5671226
   2.1970012  39.0654997  58.6569988   2.6360012  39.6764997  58.0649988
   1.5640012  39.6034997  59.1309988   2.1714514  39.2219257  58.6400930
  14.8500012  39.2504997  60.0079988  14.1480012  39.8654997  59.7989988
  14.4060012  38.4124997  60.1389988  14.6936330  39.2215783  59.9970328
   4.0580012  40.9814997  57.0989988   4.5500012  40.3514997  56.5719988
   4.6820012  41.2774997  57.7629988   4.2095446  40.9353199  57.1165980
   9.0840012  41.2744997  59.5559988   9.2620012  40.6284997  60.2389988
   9.0310012  42.1084997  60.0239988   9.1011829  41.2987985  59.7125940
  10.9630012  56.2234997  57.9519988  11.8290012  56.5894997  57.7739988
  10.7160012  55.7834997  57.1379988  11.0482392  56.2141756  57.8176289
  17.6720012  55.7864997  60.6309988  17.4770012  55.0384997  60.0659988
  17.6330012  56.5444997  60.0479988  17.6400380  55.7866099  60.4748384
   3.9160012  55.9334997  56.5799988   3.6490012  56.2204997  57.4529988
   4.6880012  55.3874997  56.7319988   3.9837488  55.8990294  56.7201050
  30.0170012  47.6674997  60.2639988  29.3050012  48.2024997  59.9119988
  30.7080012  47.7234997  59.6039988  30.0130132  47.7482543  60.1266289
  30.0700012  46.1254997  57.3029988  30.7710012  46.1474997  57.9539988
  30.3730012  45.4974997  56.6469988  30.2067830  46.0436566  57.3033711
  32.2930012  47.0394997  58.9009988  32.8730012  47.1894997  59.6479988
  32.7070012  47.5104997  58.1779988  32.4282831  47.1236841  58.9054134
  30.0200012  53.7764997  62.3359988  30.4940012  54.0714997  63.1139988
  29.4570012  54.5144997  62.1029988  30.0087653  53.9166932  62.4110136
  35.9920012  38.7894997  58.7139988  35.0920012  38.9284997  59.0089988
  36.2440012  39.6204997  58.3119988  35.9028702  38.9209074  58.7000205
  37.1810012  53.1554997  57.0899988  37.2550012  54.0944997  57.2609988
  38.0870012  52.8504997  57.0339988  37.3135100  53.2426722  57.1058119
  29.4920012  56.7324997  60.7509988  29.4170012  56.6114997  59.8049988
  29.5250012  57.6824997  60.8699988  29.4861848  56.8442500  60.6374834
  32.5940012  55.8864997  57.7529988  32.9690012  55.1424997  57.2829988
  32.5980012  55.6164997  58.6719988  32.6458915  55.7481486  57.8127824
  32.2630012  55.8124997  60.5029988  31.3270012  55.9124997  60.6809988
  32.5430012  55.1034997  61.0809988  32.1728255  55.7302711  60.6055391
  33.7710012  48.0724997  56.5309988  33.8130012  47.8494997  55.6009988
  34.6200012  48.4714997  56.7209988  33.8915396  48.0959155  56.4293627
  29.3430012  41.9484997  57.2009988  29.0900012  41.9674997  58.1239988
  29.0870012  41.0764997  56.8999988  29.2737790  41.8332437  57.2866263
  30.6420012  45.3364997  61.3649988  30.2330012  46.1514997  61.0739988
  31.3630012  45.1964997  60.7509988  30.6834537  45.4292018  61.2421342
  26.2260012  42.3934997  56.3019988  25.7950012  41.9484997  57.0319988
  25.5080012  42.7654997  55.7899988  26.0699438  42.3828940  56.3326799
  20.7420012  42.8814997  58.7779988  21.2160012  43.4724997  58.1929988
  20.0250012  43.4124997  59.1249988  20.7099341  43.0340867  58.7448836
  26.1700012  43.9764997  60.1179988  27.1010012  44.1054997  60.2959988
  25.9550012  44.6464997  59.4679988  26.2684247  44.0846565  60.0545747
  24.8440012  45.1714997  57.6849988  24.3010012  44.7914997  56.9929988
  25.6770012  45.3654997  57.2559988  24.8824399  45.1458124  57.5324526
  24.0100012  41.2714997  61.9399988  23.6930012  40.3694997  61.9049988
  24.7920012  41.2734997  61.3869988  24.0722284  41.1481628  61.8604783
  28.1790012  49.7364997  59.6199988  27.4340012  49.2294997  59.2979988
  28.0450012  49.7854997  60.5669988  28.0588776  49.6736940  59.7038647
  32.0770012  42.5504997  57.8199988  31.1380012  42.6624997  57.6679988
  32.3740012  43.4074997  58.1259988  31.9887666  42.6816443  57.8405768
  30.3050012  51.1954997  58.6459988  30.0090012  52.0214997  59.0269988
  29.6020012  50.5754997  58.8419988  30.1694914  51.2248199  58.7246443
  37.6800012  44.6274997  59.1749988  37.1260012  44.2314997  58.5029988
  37.7800012  45.5374997  58.8969988  37.6177059  44.6963586  59.0454401
  35.9750012  53.4134997  59.6399988  35.6020012  52.5874997  59.9489988
  36.2530012  53.2304997  58.7429988  35.9615630  53.2757303  59.5609626
  21.4340012  47.4114997  57.3809988  22.0500012  48.0384997  57.7609988
  20.5720012  47.7274997  57.6529988  21.4017698  47.5399430  57.4697183
  33.3680012  51.3894997  57.4599988  33.7210012  51.0094997  58.2649988
  32.4190012  51.2964997  57.5469988  33.2880441  51.3249596  57.5818559
  37.8710012  55.8694997  57.6609988  38.6150012  56.4554997  57.5209988
  37.1770012  56.4374997  57.9949988  37.8790292  56.0265582  57.6869961
  27.4590012  52.5014997  55.9069988  27.6980012  51.7534997  55.3599988
  27.1900012  52.1134997  56.7399988  27.4553675  52.3466638  55.9446865
  26.3960012  52.0714997  58.3639988  26.5420012  51.5514997  59.1539988
  26.3930012  52.9784997  58.6699988  26.4155989  52.1228853  58.5136088
  22.8490012  49.3244997  58.8739988  22.1630012  49.6764997  59.4409988
  23.3710012  50.0874997  58.6269988  22.8256852  49.4758578  58.9182118
  29.1330012  53.7694997  59.1129988  28.3170012  54.2664997  59.1649988
  29.6630012  54.2444997  58.4729988  29.0929161  53.9017722  59.0335956
  28.6650012  43.3664997  61.0849988  29.4770012  43.8714997  61.1309988
  28.4200012  43.2214997  61.9989988  28.7430520  43.4160375  61.2148517
  29.5480012  40.4474997  62.0229988  29.2020012  41.0654997  62.6679988
  30.2070012  40.9484997  61.5419988  29.5897826  40.5995802  62.0460971
  26.4720012  54.8134997  59.0949988  26.6320012  55.6124997  58.5939988
  26.2740012  55.1194997  59.9799988  26.4671649  54.9644469  59.1459815
  25.2060012  41.5104997  58.7099988  25.1230012  42.3994997  59.0569988
  26.0960012  41.2454997  58.9419988  25.3149469  41.5961430  58.7887626
  23.4650012  51.9384997  57.7709988  24.0570012  52.6374997  58.0469988
  23.9240012  51.5054997  57.0509988  23.6081142  51.9757049  57.7114830
  21.7810012  44.6024997  56.8869988  21.7360012  45.5414997  57.0649988
  20.8930012  44.3664997  56.6169988  21.6548574  44.6991892  56.8748912
  29.4970012  54.3644997  56.0459988  28.8530012  53.7334997  56.3669988
  30.2590012  53.8334997  55.8139988  29.5118077  54.2062920  56.0586011
  34.1010012  54.1814997  56.2799988  34.3840012  53.3874997  56.7319988
  34.8410012  54.4144997  55.7189988  34.2397486  54.1042803  56.2660698
  25.0560012  50.0914997  56.1369988  25.1200012  49.2974997  56.6679988
  25.7090012  49.9724997  55.4469988  25.1530241  49.9667148  56.1164317
  30.4080012  51.1384997  55.8729988  30.1390012  51.3184997  56.7739988
  30.2020012  50.2124997  55.7419988  30.3433825  51.0380152  55.9785214
  27.2760012  46.3064997  56.7049988  27.0960012  46.1524997  55.7779988
  28.2260012  46.4144997  56.7499988  27.3797776  46.3000175  56.5841843
  36.6660012  48.6614997  56.1509988  36.3920012  48.2364997  55.3379988
  36.7050012  49.5924997  55.9339988  36.6337699  48.7292484  56.0103610
  27.1730012  56.9974997  57.7069988  28.1060012  57.1554997  57.8499988
  26.9090012  57.6724997  57.0819988  27.2649510  57.1103611  57.6420741
  20.7420012  51.6334997  57.1889988  21.6560012  51.7124997  57.4629988
  20.7490012  50.9464997  56.5229988  20.8681131  51.5513961  57.1364393
  37.1240012  49.5304997  60.1259988  37.9740012  49.9514997  60.2529988
  37.1300012  48.7904997  60.7329988  37.2411372  49.4880803  60.2254344
  37.5190012  47.5834997  61.9499988  36.7920012  47.1044997  62.3469988
  38.1000012  47.7894997  62.6819988  37.4979375  47.5457090  62.1034129
  37.7870012  47.4844997  58.3409988  37.2650012  47.8414997  57.6219988
  37.7540012  48.1594997  59.0189988  37.7111634  47.6245413  58.3343145
  36.1360012  44.7244997  56.8919988  36.2320012  45.3914997  56.2109988
  35.9960012  43.9084997  56.4099988  36.1302135  44.7054500  56.7338491
  35.3830012  42.1324997  56.0089988  35.9940012  41.7614997  56.6459988
  34.5470012  41.7114997  56.2049988  35.3535032  42.0247554  56.1227035
  37.4960012  41.0174997  57.5509988  37.9080012  40.2964997  57.0759988
  38.1780012  41.6874997  57.6099988  37.6445885  41.0092368  57.4938915
  21.0530012  39.0654997  58.6569988  21.4920012  39.6764997  58.0649988
  20.4200012  39.6034997  59.1309988  21.0274514  39.2219257  58.6400930
  33.7060012  39.2504997  60.0079988  33.0040012  39.8654997  59.7989988
  33.2620012  38.4124997  60.1389988  33.5496330  39.2215783  59.9970328
  20.9540012  55.0134997  59.5549988  20.2690012  54.9754997  58.8869988
  20.9580012  55.9264997  59.8429988  20.8608193  55.1317016  59.5025284
  22.9140012  40.9814997  57.0989988  23.4060012  40.3514997  56.5719988
  23.5380012  41.2774997  57.7629988  23.0655446  40.9353199  57.1165980
  27.9400012  41.2744997  59.5559988  28.1180012  40.6284997  60.2389988
  27.8870012  42.1084997  60.0239988  27.9571829  41.2987985  59.7125940
  29.8190012  56.2234997  57.9519988  30.6850012  56.5894997  57.7739988
  29.5720012  55.7834997  57.1379988  29.9042392  56.2141756  57.8176289
  22.7720012  55.9334997  56.5799988  22.5050012  56.2204997  57.4529988
  23.5440012  55.3874997  56.7319988  22.8397488  55.8990294  56.7201050
  52.7140012  52.1394997  62.0139988  52.4560012  51.4494997  61.4029988
  52.7850012  51.6964997  62.8599988  52.6882856  51.9852124  62.0446885
  48.9260012  46.1254997  57.3029988  49.6270012  46.1474997  57.9539988
  49.2290012  45.4974997  56.6469988  49.0627830  46.0436566  57.3033711
  51.1490012  47.0394997  58.9009988  51.7290012  47.1894997  59.6479988
  51.5630012  47.5104997  58.1779988  51.2842830  47.1236841  58.9054134
  54.8480012  38.7894997  58.7139988  53.9480012  38.9284997  59.0089988
  55.1000012  39.6204997  58.3119988  54.7588702  38.9209074  58.7000205
  56.0370012  53.1554997  57.0899988  56.1110012  54.0944997  57.2609988
  56.9430012  52.8504997  57.0339988  56.1695100  53.2426722  57.1058119
  48.3480012  56.7324997  60.7509988  48.2730012  56.6114997  59.8049988
  48.3810012  57.6824997  60.8699988  48.3421848  56.8442500  60.6374834
  51.4500012  55.8864997  57.7529988  51.8250012  55.1424997  57.2829988
  51.4540012  55.6164997  58.6719988  51.5018915  55.7481486  57.8127824
  51.1190012  55.8124997  60.5029988  50.1830012  55.9124997  60.6809988
  51.3990012  55.1034997  61.0809988  51.0288255  55.7302711  60.6055391
  52.6270012  48.0724997  56.5309988  52.6690012  47.8494997  55.6009988
  53.4760012  48.4714997  56.7209988  52.7475396  48.0959155  56.4293627
  48.1990012  41.9484997  57.2009988  47.9460012  41.9674997  58.1239988
  47.9430012  41.0764997  56.8999988  48.1297790  41.8332437  57.2866263
  45.0820012  42.3934997  56.3019988  44.6510012  41.9484997  57.0319988
  44.3640012  42.7654997  55.7899988  44.9259438  42.3828940  56.3326799
  39.5980012  42.8814997  58.7779988  40.0720012  43.4724997  58.1929988
  38.8810012  43.4124997  59.1249988  39.5659341  43.0340867  58.7448836
  45.0260012  43.9764997  60.1179988  45.9570012  44.1054997  60.2959988
  44.8110012  44.6464997  59.4679988  45.1244247  44.0846565  60.0545747
  43.7000012  45.1714997  57.6849988  43.1570012  44.7914997  56.9929988
  44.5330012  45.3654997  57.2559988  43.7384399  45.1458124  57.5324526
  50.9330012  42.5504997  57.8199988  49.9940012  42.6624997  57.6679988
  51.2300012  43.4074997  58.1259988  50.8447666  42.6816443  57.8405768
  49.1610012  51.1954997  58.6459988  48.8650012  52.0214997  59.0269988
  48.4580012  50.5754997  58.8419988  49.0254914  51.2248199  58.7246443
  56.5360012  44.6274997  59.1749988  55.9820012  44.2314997  58.5029988
  56.6360012  45.5374997  58.8969988  56.4737059  44.6963586  59.0454401
  54.8310012  53.4134997  59.6399988  54.4580012  52.5874997  59.9489988
  55.1090012  53.2304997  58.7429988  54.8175630  53.2757303  59.5609626
  40.2900012  47.4114997  57.3809988  40.9060012  48.0384997  57.7609988
  39.4280012  47.7274997  57.6529988  40.2577698  47.5399430  57.4697183
  52.2240012  51.3894997  57.4599988  52.5770012  51.0094997  58.2649988
  51.2750012  51.2964997  57.5469988  52.1440441  51.3249596  57.5818559
  56.7270012  55.8694997  57.6609988  57.4710012  56.4554997  57.5209988
  56.0330012  56.4374997  57.9949988  56.7350292  56.0265582  57.6869961
  53.0900012  50.0624997  59.6869988  52.8120012  49.3344997  60.2429988
  54.0170012  50.1814997  59.8919988  53.1773124  49.9788802  59.7908845
  46.3150012  52.5014997  55.9069988  46.5540012  51.7534997  55.3599988
  46.0460012  52.1134997  56.7399988  46.3113675  52.3466638  55.9446865
  45.2520012  52.0714997  58.3639988  45.3980012  51.5514997  59.1539988
  45.2490012  52.9784997  58.6699988  45.2715989  52.1228853  58.5136088
  41.7050012  49.3244997  58.8739988  41.0190012  49.6764997  59.4409988
  42.2270012  50.0874997  58.6269988  41.6816852  49.4758578  58.9182118
  50.3210012  41.6384997  60.2499988  50.5410012  42.1104997  59.4469988
  50.8790012  42.0334997  60.9199988  50.4264968  41.7564285  60.2307331
  47.9890012  53.7694997  59.1129988  47.1730012  54.2664997  59.1649988
  48.5190012  54.2444997  58.4729988  47.9489161  53.9017722  59.0335956
  47.5210012  43.3664997  61.0849988  48.3330012  43.8714997  61.1309988
  47.2760012  43.2214997  61.9989988  47.5990520  43.4160375  61.2148517
  48.4040012  40.4474997  62.0229988  48.0580012  41.0654997  62.6679988
  49.0630012  40.9484997  61.5419988  48.4457826  40.5995802  62.0460971
  45.3280012  54.8134997  59.0949988  45.4880012  55.6124997  58.5939988
  45.1300012  55.1194997  59.9799988  45.3231649  54.9644469  59.1459815
  44.0620012  41.5104997  58.7099988  43.9790012  42.3994997  59.0569988
  44.9520012  41.2454997  58.9419988  44.1709469  41.5961430  58.7887626
  42.3210012  51.9384997  57.7709988  42.9130012  52.6374997  58.0469988
  42.7800012  51.5054997  57.0509988  42.4641142  51.9757049  57.7114830
  40.6370012  44.6024997  56.8869988  40.5920012  45.5414997  57.0649988
  39.7490012  44.3664997  56.6169988  40.5108574  44.6991892  56.8748912
  48.3530012  54.3644997  56.0459988  47.7090012  53.7334997  56.3669988
  49.1150012  53.8334997  55.8139988  48.3678077  54.2062920  56.0586011
  52.9570012  54.1814997  56.2799988  53.2400012  53.3874997  56.7319988
  53.6970012  54.4144997  55.7189988  53.0957486  54.1042803  56.2660698
  43.9120012  50.0914997  56.1369988  43.9760012  49.2974997  56.6679988
  44.5650012  49.9724997  55.4469988  44.0090241  49.9667148  56.1164317
  49.2640012  51.1384997  55.8729988  48.9950012  51.3184997  56.7739988
  49.0580012  50.2124997  55.7419988  49.1993825  51.0380152  55.9785214
  45.0610012  48.0634997  58.4429988  44.6010012  47.5794997  59.1289988
  45.3160012  47.3954997  57.8069988  45.0324902  47.9068731  58.4509334
  46.1320012  46.3064997  56.7049988  45.9520012  46.1524997  55.7779988
  47.0820012  46.4144997  56.7499988  46.2357776  46.3000175  56.5841843
  55.5220012  48.6614997  56.1509988  55.2480012  48.2364997  55.3379988
  55.5610012  49.5924997  55.9339988  55.4897699  48.7292484  56.0103610
  46.0290012  56.9974997  57.7069988  46.9620012  57.1554997  57.8499988
  45.7650012  57.6724997  57.0819988  46.1209510  57.1103611  57.6420741
  39.5980012  51.6334997  57.1889988  40.5120012  51.7124997  57.4629988
  39.6050012  50.9464997  56.5229988  39.7241131  51.5513961  57.1364393
  56.6430012  47.4844997  58.3409988  56.1210012  47.8414997  57.6219988
  56.6100012  48.1594997  59.0189988  56.5671634  47.6245413  58.3343145
  54.9920012  44.7244997  56.8919988  55.0880012  45.3914997  56.2109988
  54.8520012  43.9084997  56.4099988  54.9862135  44.7054500  56.7338491
  54.2390012  42.1324997  56.0089988  54.8500012  41.7614997  56.6459988
  53.4030012  41.7114997  56.2049988  54.2095032  42.0247554  56.1227035
  53.8720012  43.6874997  60.9749988  54.1520012  42.7804997  61.0989988
  54.6310012  44.1214997  60.5859988  54.0129277  43.6220942  60.9393682
  54.4850012  40.9504997  61.0229988  54.6680012  40.5014997  61.8489988
  53.8860012  40.3654997  60.5599988  54.4290202  40.8099975  61.0733275
  56.3520012  41.0174997  57.5509988  56.7640012  40.2964997  57.0759988
  57.0340012  41.6874997  57.6099988  56.5005885  41.0092368  57.4938915
  38.6330012  41.0224997  60.6779988  37.7080012  41.2314997  60.5489988
  39.0870012  41.5064997  59.9889988  38.5677368  41.1165993  60.5671226
  39.9090012  39.0654997  58.6569988  40.3480012  39.6764997  58.0649988
  39.2760012  39.6034997  59.1309988  39.8834514  39.2219257  58.6400930
  52.5620012  39.2504997  60.0079988  51.8600012  39.8654997  59.7989988
  52.1180012  38.4124997  60.1389988  52.4056330  39.2215783  59.9970328
  39.8100012  55.0134997  59.5549988  39.1250012  54.9754997  58.8869988
  39.8140012  55.9264997  59.8429988  39.7168193  55.1317016  59.5025284
  41.7700012  40.9814997  57.0989988  42.2620012  40.3514997  56.5719988
  42.3940012  41.2774997  57.7629988  41.9215446  40.9353199  57.1165980
  46.7960012  41.2744997  59.5559988  46.9740012  40.6284997  60.2389988
  46.7430012  42.1084997  60.0239988  46.8131829  41.2987985  59.7125940
  48.6750012  56.2234997  57.9519988  49.5410012  56.5894997  57.7739988
  48.4280012  55.7834997  57.1379988  48.7602392  56.2141756  57.8176289
  41.6280012  55.9334997  56.5799988  41.3610012  56.2204997  57.4529988
  42.4000012  55.3874997  56.7319988  41.6957488  55.8990294  56.7201050
  67.7290012  47.6674997  60.2639988  67.0170012  48.2024997  59.9119988
  68.4200012  47.7234997  59.6039988  67.7250132  47.7482543  60.1266289
  67.7820012  46.1254997  57.3029988  68.4830012  46.1474997  57.9539988
  68.0850012  45.4974997  56.6469988  67.9187830  46.0436566  57.3033711
  71.1340012  47.8774997  61.2159988  70.4020012  48.1054997  61.7889988
  71.5820012  47.1634997  61.6709988  71.0943095  47.8122571  61.3559119
  70.0050012  47.0394997  58.9009988  70.5850012  47.1894997  59.6479988
  70.4190012  47.5104997  58.1779988  70.1402830  47.1236841  58.9054134
  73.7040012  38.7894997  58.7139988  72.8040012  38.9284997  59.0089988
  73.9560012  39.6204997  58.3119988  73.6148702  38.9209074  58.7000205
  61.7700012  47.5774997  60.6879988  61.4780012  48.3454997  60.1969988
  61.0960012  46.9174997  60.5249988  61.6389081  47.5934406  60.5987340
  74.8930012  53.1554997  57.0899988  74.9670012  54.0944997  57.2609988
  75.7990012  52.8504997  57.0339988  75.0255100  53.2426722  57.1058119
  67.2040012  56.7324997  60.7509988  67.1290012  56.6114997  59.8049988
  67.2370012  57.6824997  60.8699988  67.1981848  56.8442500  60.6374834
  70.3060012  55.8864997  57.7529988  70.6810012  55.1424997  57.2829988
  70.3100012  55.6164997  58.6719988  70.3578915  55.7481486  57.8127824
  69.9750012  55.8124997  60.5029988  69.0390012  55.9124997  60.6809988
  70.2550012  55.1034997  61.0809988  69.8848255  55.7302711  60.6055391
  71.4830012  48.0724997  56.5309988  71.5250012  47.8494997  55.6009988
  72.3320012  48.4714997  56.7209988  71.6035396  48.0959155  56.4293627
  67.0550012  41.9484997  57.2009988  66.8020012  41.9674997  58.1239988
  66.7990012  41.0764997  56.8999988  66.9857790  41.8332437  57.2866263
  63.9380012  42.3934997  56.3019988  63.5070012  41.9484997  57.0319988
  63.2200012  42.7654997  55.7899988  63.7819438  42.3828940  56.3326799
  58.4540012  42.8814997  58.7779988  58.9280012  43.4724997  58.1929988
  57.7370012  43.4124997  59.1249988  58.4219341  43.0340867  58.7448836
  63.8820012  43.9764997  60.1179988  64.8130012  44.1054997  60.2959988
  63.6670012  44.6464997  59.4679988  63.9804247  44.0846565  60.0545747
  62.5560012  45.1714997  57.6849988  62.0130012  44.7914997  56.9929988
  63.3890012  45.3654997  57.2559988  62.5944399  45.1458124  57.5324526
  65.8910012  49.7364997  59.6199988  65.1460012  49.2294997  59.2979988
  65.7570012  49.7854997  60.5669988  65.7708776  49.6736940  59.7038647
  69.7890012  42.5504997  57.8199988  68.8500012  42.6624997  57.6679988
  70.0860012  43.4074997  58.1259988  69.7007666  42.6816443  57.8405768
  70.5070012  44.4174997  59.4799988  71.3990012  44.2804997  59.7989988
  70.5640012  45.2084997  58.9439988  70.6366285  44.5056660  59.4511691
  68.0170012  51.1954997  58.6459988  67.7210012  52.0214997  59.0269988
  67.3140012  50.5754997  58.8419988  67.8814914  51.2248199  58.7246443
  75.3920012  44.6274997  59.1749988  74.8380012  44.2314997  58.5029988
  75.4920012  45.5374997  58.8969988  75.3297059  44.6963586  59.0454401
  73.6870012  53.4134997  59.6399988  73.3140012  52.5874997  59.9489988
  73.9650012  53.2304997  58.7429988  73.6735630  53.2757303  59.5609626
  59.1460012  47.4114997  57.3809988  59.7620012  48.0384997  57.7609988
  58.2840012  47.7274997  57.6529988  59.1137698  47.5399430  57.4697183
  64.8180012  50.2124997  62.3709988  64.5770012  51.1374997  62.4119988
  64.0770012  49.7534997  62.7669988  64.6848409  50.2771421  62.4301377
  71.0800012  51.3894997  57.4599988  71.4330012  51.0094997  58.2649988
  70.1310012  51.2964997  57.5469988  71.0000441  51.3249596  57.5818559
  75.5830012  55.8694997  57.6609988  76.3270012  56.4554997  57.5209988
  74.8890012  56.4374997  57.9949988  75.5910292  56.0265582  57.6869961
  71.9460012  50.0624997  59.6869988  71.6680012  49.3344997  60.2429988
  72.8730012  50.1814997  59.8919988  72.0333124  49.9788802  59.7908845
  65.1710012  52.5014997  55.9069988  65.4100012  51.7534997  55.3599988
  64.9020012  52.1134997  56.7399988  65.1673675  52.3466638  55.9446865
  64.1080012  52.0714997  58.3639988  64.2540012  51.5514997  59.1539988
  64.1050012  52.9784997  58.6699988  64.1275989  52.1228853  58.5136088
  66.8450012  53.7694997  59.1129988  66.0290012  54.2664997  59.1649988
  67.3750012  54.2444997  58.4729988  66.8049161  53.9017722  59.0335956
  62.9180012  41.5104997  58.7099988  62.8350012  42.3994997  59.0569988
  63.8080012  41.2454997  58.9419988  63.0269469  41.5961430  58.7887626
  61.1770012  51.9384997  57.7709988  61.7690012  52.6374997  58.0469988
  61.6360012  51.5054997  57.0509988  61.3201142  51.9757049  57.7114830
  59.4930012  44.6024997  56.8869988  59.4480012  45.5414997  57.0649988
  58.6050012  44.3664997  56.6169988  59.3668574  44.6991892  56.8748912
  67.2090012  54.3644997  56.0459988  66.5650012  53.7334997  56.3669988
  67.9710012  53.8334997  55.8139988  67.2238077  54.2062920  56.0586011
  71.8130012  54.1814997  56.2799988  72.0960012  53.3874997  56.7319988
  72.5530012  54.4144997  55.7189988  71.9517486  54.1042803  56.2660698
  62.7680012  50.0914997  56.1369988  62.8320012  49.2974997  56.6679988
  63.4210012  49.9724997  55.4469988  62.8650241  49.9667148  56.1164317
  68.1200012  51.1384997  55.8729988  67.8510012  51.3184997  56.7739988
  67.9140012  50.2124997  55.7419988  68.0553825  51.0380152  55.9785214
  63.9170012  48.0634997  58.4429988  63.4570012  47.5794997  59.1289988
  64.1720012  47.3954997  57.8069988  63.8884902  47.9068731  58.4509334
  64.9880012  46.3064997  56.7049988  64.8080012  46.1524997  55.7779988
  65.9380012  46.4144997  56.7499988  65.0917776  46.3000175  56.5841843
  74.3780012  48.6614997  56.1509988  74.1040012  48.2364997  55.3379988
  74.4170012  49.5924997  55.9339988  74.3457699  48.7292484  56.0103610
  64.8850012  56.9974997  57.7069988  65.8180012  57.1554997  57.8499988
  64.6210012  57.6724997  57.0819988  64.9769510  57.1103611  57.6420741
  58.4540012  51.6334997  57.1889988  59.3680012  51.7124997  57.4629988
  58.4610012  50.9464997  56.5229988  58.5801131  51.5513961  57.1364393
  75.4990012  47.4844997  58.3409988  74.9770012  47.8414997  57.6219988
  75.4660012  48.1594997  59.0189988  75.4231634  47.6245413  58.3343145
  73.8480012  44.7244997  56.8919988  73.9440012  45.3914997  56.2109988
  73.7080012  43.9084997  56.4099988  73.8422135  44.7054500  56.7338491
  73.0950012  42.1324997  56.0089988  73.7060012  41.7614997  56.6459988
  72.2590012  41.7114997  56.2049988  73.0655032  42.0247554  56.1227035
  72.7280012  43.6874997  60.9749988  73.0080012  42.7804997  61.0989988
  73.4870012  44.1214997  60.5859988  72.8689277  43.6220942  60.9393682
  73.3410012  40.9504997  61.0229988  73.5240012  40.5014997  61.8489988
  72.7420012  40.3654997  60.5599988  73.2850202  40.8099975  61.0733275
  75.2080012  41.0174997  57.5509988  75.6200012  40.2964997  57.0759988
  75.8900012  41.6874997  57.6099988  75.3565885  41.0092368  57.4938915
  58.7650012  39.0654997  58.6569988  59.2040012  39.6764997  58.0649988
  58.1320012  39.6034997  59.1309988  58.7394514  39.2219257  58.6400930
  71.4180012  39.2504997  60.0079988  70.7160012  39.8654997  59.7989988
  70.9740012  38.4124997  60.1389988  71.2616330  39.2215783  59.9970328
  58.6660012  55.0134997  59.5549988  57.9810012  54.9754997  58.8869988
  58.6700012  55.9264997  59.8429988  58.5728193  55.1317016  59.5025284
  60.6260012  40.9814997  57.0989988  61.1180012  40.3514997  56.5719988
  61.2500012  41.2774997  57.7629988  60.7775446  40.9353199  57.1165980
  65.6520012  41.2744997  59.5559988  65.8300012  40.6284997  60.2389988
  65.5990012  42.1084997  60.0239988  65.6691829  41.2987985  59.7125940
  67.5310012  56.2234997  57.9519988  68.3970012  56.5894997  57.7739988
  67.2840012  55.7834997  57.1379988  67.6162392  56.2141756  57.8176289
  60.4840012  55.9334997  56.5799988  60.2170012  56.2204997  57.4529988
  61.2560012  55.3874997  56.7319988  60.5517488  55.8990294  56.7201050
  86.5850012  47.6674997  60.2639988  85.8730012  48.2024997  59.9119988
  87.2760012  47.7234997  59.6039988  86.5810132  47.7482543  60.1266289
  86.6380012  46.1254997  57.3029988  87.3390012  46.1474997  57.9539988
  86.9410012  45.4974997  56.6469988  86.7747830  46.0436566  57.3033711
  88.8610012  47.0394997  58.9009988  89.4410012  47.1894997  59.6479988
  89.2750012  47.5104997  58.1779988  88.9962830  47.1236841  58.9054134
  92.5600012  38.7894997  58.7139988  91.6600012  38.9284997  59.0089988
  92.8120012  39.6204997  58.3119988  92.4708702  38.9209074  58.7000205
  80.6260012  47.5774997  60.6879988  80.3340012  48.3454997  60.1969988
  79.9520012  46.9174997  60.5249988  80.4949081  47.5934406  60.5987340
  93.7490012  53.1554997  57.0899988  93.8230012  54.0944997  57.2609988
  94.6550012  52.8504997  57.0339988  93.8815100  53.2426722  57.1058119
  86.0600012  56.7324997  60.7509988  85.9850012  56.6114997  59.8049988
  86.0930012  57.6824997  60.8699988  86.0541848  56.8442500  60.6374834
  89.1620012  55.8864997  57.7529988  89.5370012  55.1424997  57.2829988
  89.1660012  55.6164997  58.6719988  89.2138915  55.7481486  57.8127824
  90.3390012  48.0724997  56.5309988  90.3810012  47.8494997  55.6009988
  91.1880012  48.4714997  56.7209988  90.4595396  48.0959155  56.4293627
  85.9110012  41.9484997  57.2009988  85.6580012  41.9674997  58.1239988
  85.6550012  41.0764997  56.8999988  85.8417790  41.8332437  57.2866263
  82.7940012  42.3934997  56.3019988  82.3630012  41.9484997  57.0319988
  82.0760012  42.7654997  55.7899988  82.6379438  42.3828940  56.3326799
  77.3100012  42.8814997  58.7779988  77.7840012  43.4724997  58.1929988
  76.5930012  43.4124997  59.1249988  77.2779341  43.0340867  58.7448836
  82.7380012  43.9764997  60.1179988  83.6690012  44.1054997  60.2959988
  82.5230012  44.6464997  59.4679988  82.8364247  44.0846565  60.0545747
  81.4120012  45.1714997  57.6849988  80.8690012  44.7914997  56.9929988
  82.2450012  45.3654997  57.2559988  81.4504399  45.1458124  57.5324526
  88.6450012  42.5504997  57.8199988  87.7060012  42.6624997  57.6679988
  88.9420012  43.4074997  58.1259988  88.5567666  42.6816443  57.8405768
  86.8730012  51.1954997  58.6459988  86.5770012  52.0214997  59.0269988
  86.1700012  50.5754997  58.8419988  86.7374914  51.2248199  58.7246443
  92.5430012  53.4134997  59.6399988  92.1700012  52.5874997  59.9489988
  92.8210012  53.2304997  58.7429988  92.5295630  53.2757303  59.5609626
  78.0020012  47.4114997  57.3809988  78.6180012  48.0384997  57.7609988
  77.1400012  47.7274997  57.6529988  77.9697698  47.5399430  57.4697183
  82.3570012  55.2344997  61.9159988  81.4070012  55.3394997  61.9669988
  82.7090012  56.0544997  62.2609988  82.2744203  55.3598314  61.9696650
  89.9360012  51.3894997  57.4599988  90.2890012  51.0094997  58.2649988
  88.9870012  51.2964997  57.5469988  89.8560441  51.3249596  57.5818559
  94.4390012  55.8694997  57.6609988  95.1830012  56.4554997  57.5209988
  93.7450012  56.4374997  57.9949988  94.4470292  56.0265582  57.6869961
  90.8020012  50.0624997  59.6869988  90.5240012  49.3344997  60.2429988
  91.7290012  50.1814997  59.8919988  90.8893124  49.9788802  59.7908845
  84.0270012  52.5014997  55.9069988  84.2660012  51.7534997  55.3599988
  83.7580012  52.1134997  56.7399988  84.0233675  52.3466638  55.9446865
  82.9640012  52.0714997  58.3639988  83.1100012  51.5514997  59.1539988
  82.9610012  52.9784997  58.6699988  82.9835989  52.1228853  58.5136088
  79.4170012  49.3244997  58.8739988  78.7310012  49.6764997  59.4409988
  79.9390012  50.0874997  58.6269988  79.3936852  49.4758578  58.9182118
  83.0400012  54.8134997  59.0949988  83.2000012  55.6124997  58.5939988
  82.8420012  55.1194997  59.9799988  83.0351649  54.9644469  59.1459815
  81.7740012  41.5104997  58.7099988  81.6910012  42.3994997  59.0569988
  82.6640012  41.2454997  58.9419988  81.8829469  41.5961430  58.7887626
  80.0330012  51.9384997  57.7709988  80.6250012  52.6374997  58.0469988
  80.4920012  51.5054997  57.0509988  80.1761142  51.9757049  57.7114830
  78.3490012  44.6024997  56.8869988  78.3040012  45.5414997  57.0649988
  77.4610012  44.3664997  56.6169988  78.2228574  44.6991892  56.8748912
  86.0650012  54.3644997  56.0459988  85.4210012  53.7334997  56.3669988
  86.8270012  53.8334997  55.8139988  86.0798077  54.2062920  56.0586011
  90.6690012  54.1814997  56.2799988  90.9520012  53.3874997  56.7319988
  91.4090012  54.4144997  55.7189988  90.8077486  54.1042803  56.2660698
  81.6240012  50.0914997  56.1369988  81.6880012  49.2974997  56.6679988
  82.2770012  49.9724997  55.4469988  81.7210241  49.9667148  56.1164317
  86.9760012  51.1384997  55.8729988  86.7070012  51.3184997  56.7739988
  86.7700012  50.2124997  55.7419988  86.9113825  51.0380152  55.9785214
  82.7730012  48.0634997  58.4429988  82.3130012  47.5794997  59.1289988
  83.0280012  47.3954997  57.8069988  82.7444902  47.9068731  58.4509334
  83.8440012  46.3064997  56.7049988  83.6640012  46.1524997  55.7779988
  84.7940012  46.4144997  56.7499988  83.9477776  46.3000175  56.5841843
  93.2340012  48.6614997  56.1509988  92.9600012  48.2364997  55.3379988
  93.2730012  49.5924997  55.9339988  93.2017699  48.7292484  56.0103610
  83.7410012  56.9974997  57.7069988  84.6740012  57.1554997  57.8499988
  83.4770012  57.6724997  57.0819988  83.8329510  57.1103611  57.6420741
  77.3100012  51.6334997  57.1889988  78.2240012  51.7124997  57.4629988
  77.3170012  50.9464997  56.5229988  77.4361131  51.5513961  57.1364393
  93.6920012  49.5304997  60.1259988  94.5420012  49.9514997  60.2529988
  93.6980012  48.7904997  60.7329988  93.8091372  49.4880803  60.2254344
  94.3550012  47.4844997  58.3409988  93.8330012  47.8414997  57.6219988
  94.3220012  48.1594997  59.0189988  94.2791634  47.6245413  58.3343145
  92.7040012  44.7244997  56.8919988  92.8000012  45.3914997  56.2109988
  92.5640012  43.9084997  56.4099988  92.6982135  44.7054500  56.7338491
  91.9510012  42.1324997  56.0089988  92.5620012  41.7614997  56.6459988
  91.1150012  41.7114997  56.2049988  91.9215032  42.0247554  56.1227035
  92.1970012  40.9504997  61.0229988  92.3800012  40.5014997  61.8489988
  91.5980012  40.3654997  60.5599988  92.1410202  40.8099975  61.0733275
  94.0640012  41.0174997  57.5509988  94.4760012  40.2964997  57.0759988
  94.7460012  41.6874997  57.6099988  94.2125885  41.0092368  57.4938915
  77.6210012  39.0654997  58.6569988  78.0600012  39.6764997  58.0649988
  76.9880012  39.6034997  59.1309988  77.5954514  39.2219257  58.6400930
  90.2740012  39.2504997  60.0079988  89.5720012  39.8654997  59.7989988
  89.8300012  38.4124997  60.1389988  90.1176330  39.2215783  59.9970328
  79.4820012  40.9814997  57.0989988  79.9740012  40.3514997  56.5719988
  80.1060012  41.2774997  57.7629988  79.6335446  40.9353199  57.1165980
  86.3870012  56.2234997  57.9519988  87.2530012  56.5894997  57.7739988
  86.1400012  55.7834997  57.1379988  86.4722392  56.2141756  57.8176289
  79.3400012  55.9334997  56.5799988  79.0730012  56.2204997  57.4529988
  80.1120012  55.3874997  56.7319988  79.4077488  55.8990294  56.7201050
  95.5540012  45.4034997  61.7519988  95.1070012  46.2494997  61.7329988
  94.9930012  44.8234997  61.2359988  95.4169900  45.4409916  61.6796801
 105.4410012  47.6674997  60.2639988 104.7290012  48.2024997  59.9119988
 106.1320012  47.7234997  59.6039988 105.4370132  47.7482543  60.1266289
 105.4940012  46.1254997  57.3029988 106.1950012  46.1474997  57.9539988
 105.7970012  45.4974997  56.6469988 105.6307830  46.0436566  57.3033711
 107.7170012  47.0394997  58.9009988 108.2970012  47.1894997  59.6479988
 108.1310012  47.5104997  58.1779988 107.8522831  47.1236841  58.9054134
 105.4440012  53.7764997  62.3359988 105.9180012  54.0714997  63.1139988
 104.8810012  54.5144997  62.1029988 105.4327653  53.9166932  62.4110136
  99.4820012  47.5774997  60.6879988  99.1900012  48.3454997  60.1969988
  98.8080012  46.9174997  60.5249988  99.3509081  47.5934406  60.5987340
 112.6050012  53.1554997  57.0899988 112.6790012  54.0944997  57.2609988
 113.5110012  52.8504997  57.0339988 112.7375100  53.2426722  57.1058119
 108.0180012  55.8864997  57.7529988 108.3930012  55.1424997  57.2829988
 108.0220012  55.6164997  58.6719988 108.0698915  55.7481486  57.8127824
 109.1950012  48.0724997  56.5309988 109.2370012  47.8494997  55.6009988
 110.0440012  48.4714997  56.7209988 109.3155396  48.0959155  56.4293627
 104.7670012  41.9484997  57.2009988 104.5140012  41.9674997  58.1239988
 104.5110012  41.0764997  56.8999988 104.6977790  41.8332437  57.2866263
 106.0660012  45.3364997  61.3649988 105.6570012  46.1514997  61.0739988
 106.7870012  45.1964997  60.7509988 106.1074537  45.4292018  61.2421342
 101.6500012  42.3934997  56.3019988 101.2190012  41.9484997  57.0319988
 100.9320012  42.7654997  55.7899988 101.4939438  42.3828940  56.3326799
  96.1660012  42.8814997  58.7779988  96.6400012  43.4724997  58.1929988
  95.4490012  43.4124997  59.1249988  96.1339341  43.0340867  58.7448836
 100.2680012  45.1714997  57.6849988  99.7250012  44.7914997  56.9929988
 101.1010012  45.3654997  57.2559988 100.3064399  45.1458124  57.5324526
 103.6030012  49.7364997  59.6199988 102.8580012  49.2294997  59.2979988
 103.4690012  49.7854997  60.5669988 103.4828776  49.6736940  59.7038647
 107.5010012  42.5504997  57.8199988 106.5620012  42.6624997  57.6679988
 107.7980012  43.4074997  58.1259988 107.4127666  42.6816443  57.8405768
 108.2190012  44.4174997  59.4799988 109.1110012  44.2804997  59.7989988
 108.2760012  45.2084997  58.9439988 108.3486285  44.5056660  59.4511691
 105.7290012  51.1954997  58.6459988 105.4330012  52.0214997  59.0269988
 105.0260012  50.5754997  58.8419988 105.5934914  51.2248199  58.7246443
 113.1040012  44.6274997  59.1749988 112.5500012  44.2314997  58.5029988
 113.2040012  45.5374997  58.8969988 113.0417059  44.6963586  59.0454401
 111.3990012  53.4134997  59.6399988 111.0260012  52.5874997  59.9489988
 111.6770012  53.2304997  58.7429988 111.3855630  53.2757303  59.5609626
  96.8580012  47.4114997  57.3809988  97.4740012  48.0384997  57.7609988
  95.9960012  47.7274997  57.6529988  96.8257698  47.5399430  57.4697183
 108.7920012  51.3894997  57.4599988 109.1450012  51.0094997  58.2649988
 107.8430012  51.2964997  57.5469988 108.7120441  51.3249596  57.5818559
 113.2950012  55.8694997  57.6609988 114.0390012  56.4554997  57.5209988
 112.6010012  56.4374997  57.9949988 113.3030292  56.0265582  57.6869961
 102.8830012  52.5014997  55.9069988 103.1220012  51.7534997  55.3599988
 102.6140012  52.1134997  56.7399988 102.8793675  52.3466638  55.9446865
 101.8200012  52.0714997  58.3639988 101.9660012  51.5514997  59.1539988
 101.8170012  52.9784997  58.6699988 101.8395989  52.1228853  58.5136088
  98.2730012  49.3244997  58.8739988  97.5870012  49.6764997  59.4409988
  98.7950012  50.0874997  58.6269988  98.2496852  49.4758578  58.9182118
 106.8890012  41.6384997  60.2499988 107.1090012  42.1104997  59.4469988
 107.4470012  42.0334997  60.9199988 106.9944968  41.7564285  60.2307331
 104.5570012  53.7694997  59.1129988 103.7410012  54.2664997  59.1649988
 105.0870012  54.2444997  58.4729988 104.5169161  53.9017722  59.0335956
 101.8960012  54.8134997  59.0949988 102.0560012  55.6124997  58.5939988
 101.6980012  55.1194997  59.9799988 101.8911649  54.9644469  59.1459815
  98.8890012  51.9384997  57.7709988  99.4810012  52.6374997  58.0469988
  99.3480012  51.5054997  57.0509988  99.0321142  51.9757049  57.7114830
  97.2050012  44.6024997  56.8869988  97.1600012  45.5414997  57.0649988
  96.3170012  44.3664997  56.6169988  97.0788574  44.6991892  56.8748912
 104.9210012  54.3644997  56.0459988 104.2770012  53.7334997  56.3669988
 105.6830012  53.8334997  55.8139988 104.9358077  54.2062920  56.0586011
 109.5250012  54.1814997  56.2799988 109.8080012  53.3874997  56.7319988
 110.2650012  54.4144997  55.7189988 109.6637486  54.1042803  56.2660698
 100.4800012  50.0914997  56.1369988 100.5440012  49.2974997  56.6679988
 101.1330012  49.9724997  55.4469988 100.5770241  49.9667148  56.1164317
 105.8320012  51.1384997  55.8729988 105.5630012  51.3184997  56.7739988
 105.6260012  50.2124997  55.7419988 105.7673825  51.0380152  55.9785214
 101.6290012  48.0634997  58.4429988 101.1690012  47.5794997  59.1289988
 101.8840012  47.3954997  57.8069988 101.6004902  47.9068731  58.4509334
 102.7000012  46.3064997  56.7049988 102.5200012  46.1524997  55.7779988
 103.6500012  46.4144997  56.7499988 102.8037776  46.3000175  56.5841843
 112.0900012  48.6614997  56.1509988 111.8160012  48.2364997  55.3379988
 112.1290012  49.5924997  55.9339988 112.0577699  48.7292484  56.0103610
 102.5970012  56.9974997  57.7069988 103.5300012  57.1554997  57.8499988
 102.3330012  57.6724997  57.0819988 102.6889510  57.1103611  57.6420741
  96.1660012  51.6334997  57.1889988  97.0800012  51.7124997  57.4629988
  96.1730012  50.9464997  56.5229988  96.2921131  51.5513961  57.1364393
 113.2110012  47.4844997  58.3409988 112.6890012  47.8414997  57.6219988
 113.1780012  48.1594997  59.0189988 113.1351634  47.6245413  58.3343145
 111.5600012  44.7244997  56.8919988 111.6560012  45.3914997  56.2109988
 111.4200012  43.9084997  56.4099988 111.5542135  44.7054500  56.7338491
 110.8070012  42.1324997  56.0089988 111.4180012  41.7614997  56.6459988
 109.9710012  41.7114997  56.2049988 110.7775032  42.0247554  56.1227035
 112.9200012  41.0174997  57.5509988 113.3320012  40.2964997  57.0759988
 113.6020012  41.6874997  57.6099988 113.0685885  41.0092368  57.4938915
  95.2010012  41.0224997  60.6779988  94.2760012  41.2314997  60.5489988
  95.6550012  41.5064997  59.9889988  95.1357368  41.1165993  60.5671226
  96.4770012  39.0654997  58.6569988  96.9160012  39.6764997  58.0649988
  95.8440012  39.6034997  59.1309988  96.4514514  39.2219257  58.6400930
  96.3780012  55.0134997  59.5549988  95.6930012  54.9754997  58.8869988
  96.3820012  55.9264997  59.8429988  96.2848193  55.1317016  59.5025284
  98.3380012  40.9814997  57.0989988  98.8300012  40.3514997  56.5719988
  98.9620012  41.2774997  57.7629988  98.4895446  40.9353199  57.1165980
 105.2430012  56.2234997  57.9519988 106.1090012  56.5894997  57.7739988
 104.9960012  55.7834997  57.1379988 105.3282392  56.2141756  57.8176289
  98.1960012  55.9334997  56.5799988  97.9290012  56.2204997  57.4529988
  98.9680012  55.3874997  56.7319988  98.2637488  55.8990294  56.7201050
 115.1010012  50.8354997  60.1679988 114.8290012  51.0644997  59.2789988
 115.1470012  51.6734997  60.6279988 115.0700094  50.9801213  60.1085697
 128.1380012  52.1394997  62.0139988 127.8800012  51.4494997  61.4029988
 128.2090012  51.6964997  62.8599988 128.1122856  51.9852124  62.0446885
 124.3500012  46.1254997  57.3029988 125.0510012  46.1474997  57.9539988
 124.6530012  45.4974997  56.6469988 124.4867830  46.0436566  57.3033711
 126.5730012  47.0394997  58.9009988 127.1530012  47.1894997  59.6479988
 126.9870012  47.5104997  58.1779988 126.7082830  47.1236841  58.9054134
 130.2720012  38.7894997  58.7139988 129.3720012  38.9284997  59.0089988
 130.5240012  39.6204997  58.3119988 130.1828702  38.9209074  58.7000205
 118.3380012  47.5774997  60.6879988 118.0460012  48.3454997  60.1969988
 117.6640012  46.9174997  60.5249988 118.2069081  47.5934406  60.5987340
 131.4610012  53.1554997  57.0899988 131.5350012  54.0944997  57.2609988
 132.3670012  52.8504997  57.0339988 131.5935100  53.2426722  57.1058119
 126.8740012  55.8864997  57.7529988 127.2490012  55.1424997  57.2829988
 126.8780012  55.6164997  58.6719988 126.9258915  55.7481486  57.8127824
 126.5430012  55.8124997  60.5029988 125.6070012  55.9124997  60.6809988
 126.8230012  55.1034997  61.0809988 126.4528255  55.7302711  60.6055391
 128.0510012  48.0724997  56.5309988 128.0930012  47.8494997  55.6009988
 128.9000012  48.4714997  56.7209988 128.1715396  48.0959155  56.4293627
 123.6230012  41.9484997  57.2009988 123.3700012  41.9674997  58.1239988
 123.3670012  41.0764997  56.8999988 123.5537790  41.8332437  57.2866263
 124.9220012  45.3364997  61.3649988 124.5130012  46.1514997  61.0739988
 125.6430012  45.1964997  60.7509988 124.9634537  45.4292018  61.2421342
 120.5060012  42.3934997  56.3019988 120.0750012  41.9484997  57.0319988
 119.7880012  42.7654997  55.7899988 120.3499438  42.3828940  56.3326799
 115.0220012  42.8814997  58.7779988 115.4960012  43.4724997  58.1929988
 114.3050012  43.4124997  59.1249988 114.9899341  43.0340867  58.7448836
 120.4500012  43.9764997  60.1179988 121.3810012  44.1054997  60.2959988
 120.2350012  44.6464997  59.4679988 120.5484247  44.0846565  60.0545747
 119.1240012  45.1714997  57.6849988 118.5810012  44.7914997  56.9929988
 119.9570012  45.3654997  57.2559988 119.1624399  45.1458124  57.5324526
 122.4590012  49.7364997  59.6199988 121.7140012  49.2294997  59.2979988
 122.3250012  49.7854997  60.5669988 122.3388776  49.6736940  59.7038647
 126.3570012  42.5504997  57.8199988 125.4180012  42.6624997  57.6679988
 126.6540012  43.4074997  58.1259988 126.2687666  42.6816443  57.8405768
 127.0750012  44.4174997  59.4799988 127.9670012  44.2804997  59.7989988
 127.1320012  45.2084997  58.9439988 127.2046285  44.5056660  59.4511691
 124.5850012  51.1954997  58.6459988 124.2890012  52.0214997  59.0269988
 123.8820012  50.5754997  58.8419988 124.4494914  51.2248199  58.7246443
 131.9600012  44.6274997  59.1749988 131.4060012  44.2314997  58.5029988
 132.0600012  45.5374997  58.8969988 131.8977059  44.6963586  59.0454401
 130.2550012  53.4134997  59.6399988 129.8820012  52.5874997  59.9489988
 130.5330012  53.2304997  58.7429988 130.2415630  53.2757303  59.5609626
 115.7140012  47.4114997  57.3809988 116.3300012  48.0384997  57.7609988
 114.8520012  47.7274997  57.6529988 115.6817698  47.5399430  57.4697183
 127.6480012  51.3894997  57.4599988 128.0010012  51.0094997  58.2649988
 126.6990012  51.2964997  57.5469988 127.5680441  51.3249596  57.5818559
 132.1510012  55.8694997  57.6609988 132.8950012  56.4554997  57.5209988
 131.4570012  56.4374997  57.9949988 132.1590292  56.0265582  57.6869961
 128.5140012  50.0624997  59.6869988 128.2360012  49.3344997  60.2429988
 129.4410012  50.1814997  59.8919988 128.6013124  49.9788802  59.7908845
 121.7390012  52.5014997  55.9069988 121.9780012  51.7534997  55.3599988
 121.4700012  52.1134997  56.7399988 121.7353675  52.3466638  55.9446865
 120.6760012  52.0714997  58.3639988 120.8220012  51.5514997  59.1539988
 120.6730012  52.9784997  58.6699988 120.6955989  52.1228853  58.5136088
 117.1290012  49.3244997  58.8739988 116.4430012  49.6764997  59.4409988
 117.6510012  50.0874997  58.6269988 117.1056852  49.4758578  58.9182118
 123.4130012  53.7694997  59.1129988 122.5970012  54.2664997  59.1649988
 123.9430012  54.2444997  58.4729988 123.3729161  53.9017722  59.0335956
 120.7520012  54.8134997  59.0949988 120.9120012  55.6124997  58.5939988
 120.5540012  55.1194997  59.9799988 120.7471649  54.9644469  59.1459815
 119.4860012  41.5104997  58.7099988 119.4030012  42.3994997  59.0569988
 120.3760012  41.2454997  58.9419988 119.5949469  41.5961430  58.7887626
 117.7450012  51.9384997  57.7709988 118.3370012  52.6374997  58.0469988
 118.2040012  51.5054997  57.0509988 117.8881142  51.9757049  57.7114830
 116.0610012  44.6024997  56.8869988 116.0160012  45.5414997  57.0649988
 115.1730012  44.3664997  56.6169988 115.9348574  44.6991892  56.8748912
 123.7770012  54.3644997  56.0459988 123.1330012  53.7334997  56.3669988
 124.5390012  53.8334997  55.8139988 123.7918077  54.2062920  56.0586011
 128.3810012  54.1814997  56.2799988 128.6640012  53.3874997  56.7319988
 129.1210012  54.4144997  55.7189988 128.5197486  54.1042803  56.2660698
 119.3360012  50.0914997  56.1369988 119.4000012  49.2974997  56.6679988
 119.9890012  49.9724997  55.4469988 119.4330241  49.9667148  56.1164317
 124.6880012  51.1384997  55.8729988 124.4190012  51.3184997  56.7739988
 124.4820012  50.2124997  55.7419988 124.6233825  51.0380152  55.9785214
 120.4850012  48.0634997  58.4429988 120.0250012  47.5794997  59.1289988
 120.7400012  47.3954997  57.8069988 120.4564902  47.9068731  58.4509334
 121.5560012  46.3064997  56.7049988 121.3760012  46.1524997  55.7779988
 122.5060012  46.4144997  56.7499988 121.6597776  46.3000175  56.5841843
 130.9460012  48.6614997  56.1509988 130.6720012  48.2364997  55.3379988
 130.9850012  49.5924997  55.9339988 130.9137699  48.7292484  56.0103610
 121.4530012  56.9974997  57.7069988 122.3860012  57.1554997  57.8499988
 121.1890012  57.6724997  57.0819988 121.5449510  57.1103611  57.6420741
 115.0220012  51.6334997  57.1889988 115.9360012  51.7124997  57.4629988
 115.0290012  50.9464997  56.5229988 115.1481131  51.5513961  57.1364393
 131.4040012  49.5304997  60.1259988 132.2540012  49.9514997  60.2529988
 131.4100012  48.7904997  60.7329988 131.5211372  49.4880803  60.2254344
 132.0670012  47.4844997  58.3409988 131.5450012  47.8414997  57.6219988
 132.0340012  48.1594997  59.0189988 131.9911634  47.6245413  58.3343145
 130.4160012  44.7244997  56.8919988 130.5120012  45.3914997  56.2109988
 130.2760012  43.9084997  56.4099988 130.4102135  44.7054500  56.7338491
 129.6630012  42.1324997  56.0089988 130.2740012  41.7614997  56.6459988
 128.8270012  41.7114997  56.2049988 129.6335032  42.0247554  56.1227035
 129.9090012  40.9504997  61.0229988 130.0920012  40.5014997  61.8489988
 129.3100012  40.3654997  60.5599988 129.8530202  40.8099975  61.0733275
 131.7760012  41.0174997  57.5509988 132.1880012  40.2964997  57.0759988
 132.4580012  41.6874997  57.6099988 131.9245885  41.0092368  57.4938915
 115.3330012  39.0654997  58.6569988 115.7720012  39.6764997  58.0649988
 114.7000012  39.6034997  59.1309988 115.3074514  39.2219257  58.6400930
 127.9860012  39.2504997  60.0079988 127.2840012  39.8654997  59.7989988
 127.5420012  38.4124997  60.1389988 127.8296330  39.2215783  59.9970328
 117.1940012  40.9814997  57.0989988 117.6860012  40.3514997  56.5719988
 117.8180012  41.2774997  57.7629988 117.3455446  40.9353199  57.1165980
 124.0990012  56.2234997  57.9519988 124.9650012  56.5894997  57.7739988
 123.8520012  55.7834997  57.1379988 124.1842392  56.2141756  57.8176289
 117.0520012  55.9334997  56.5799988 116.7850012  56.2204997  57.4529988
 117.8240012  55.3874997  56.7319988 117.1197488  55.8990294  56.7201050
 144.2290012  51.0244997  61.8549988 143.9330012  50.7024997  61.0039988
 143.9040012  51.9244997  61.8959988 144.1446371  51.1020215  61.7441801
 143.1530012  47.6674997  60.2639988 142.4410012  48.2024997  59.9119988
 143.8440012  47.7234997  59.6039988 143.1490132  47.7482543  60.1266289
 143.2060012  46.1254997  57.3029988 143.9070012  46.1474997  57.9539988
 143.5090012  45.4974997  56.6469988 143.3427830  46.0436566  57.3033711
 143.1560012  53.7764997  62.3359988 143.6300012  54.0714997  63.1139988
 142.5930012  54.5144997  62.1029988 143.1447653  53.9166932  62.4110136
 137.1940012  47.5774997  60.6879988 136.9020012  48.3454997  60.1969988
 136.5200012  46.9174997  60.5249988 137.0629081  47.5934406  60.5987340
 142.6280012  56.7324997  60.7509988 142.5530012  56.6114997  59.8049988
 142.6610012  57.6824997  60.8699988 142.6221848  56.8442500  60.6374834
 142.4790012  41.9484997  57.2009988 142.2260012  41.9674997  58.1239988
 142.2230012  41.0764997  56.8999988 142.4097790  41.8332437  57.2866263
 143.7780012  45.3364997  61.3649988 143.3690012  46.1514997  61.0739988
 144.4990012  45.1964997  60.7509988 143.8194537  45.4292018  61.2421342
 139.3620012  42.3934997  56.3019988 138.9310012  41.9484997  57.0319988
 138.6440012  42.7654997  55.7899988 139.2059438  42.3828940  56.3326799
 133.8780012  42.8814997  58.7779988 134.3520012  43.4724997  58.1929988
 133.1610012  43.4124997  59.1249988 133.8459341  43.0340867  58.7448836
 137.9800012  45.1714997  57.6849988 137.4370012  44.7914997  56.9929988
 138.8130012  45.3654997  57.2559988 138.0184399  45.1458124  57.5324526
 141.3150012  49.7364997  59.6199988 140.5700012  49.2294997  59.2979988
 141.1810012  49.7854997  60.5669988 141.1948776  49.6736940  59.7038647
 143.4410012  51.1954997  58.6459988 143.1450012  52.0214997  59.0269988
 142.7380012  50.5754997  58.8419988 143.3054914  51.2248199  58.7246443
 134.5700012  47.4114997  57.3809988 135.1860012  48.0384997  57.7609988
 133.7080012  47.7274997  57.6529988 134.5377698  47.5399430  57.4697183
 140.5950012  52.5014997  55.9069988 140.8340012  51.7534997  55.3599988
 140.3260012  52.1134997  56.7399988 140.5913675  52.3466638  55.9446865
 139.5320012  52.0714997  58.3639988 139.6780012  51.5514997  59.1539988
 139.5290012  52.9784997  58.6699988 139.5515989  52.1228853  58.5136088
 135.9850012  49.3244997  58.8739988 135.2990012  49.6764997  59.4409988
 136.5070012  50.0874997  58.6269988 135.9616852  49.4758578  58.9182118
 144.6010012  41.6384997  60.2499988 144.8210012  42.1104997  59.4469988
 145.1590012  42.0334997  60.9199988 144.7064968  41.7564285  60.2307331
 142.2690012  53.7694997  59.1129988 141.4530012  54.2664997  59.1649988
 142.7990012  54.2444997  58.4729988 142.2289161  53.9017722  59.0335956
 142.6840012  40.4474997  62.0229988 142.3380012  41.0654997  62.6679988
 143.3430012  40.9484997  61.5419988 142.7257826  40.5995802  62.0460971
 139.6080012  54.8134997  59.0949988 139.7680012  55.6124997  58.5939988
 139.4100012  55.1194997  59.9799988 139.6031649  54.9644469  59.1459815
 136.6010012  51.9384997  57.7709988 137.1930012  52.6374997  58.0469988
 137.0600012  51.5054997  57.0509988 136.7441142  51.9757049  57.7114830
 134.9170012  44.6024997  56.8869988 134.8720012  45.5414997  57.0649988
 134.0290012  44.3664997  56.6169988 134.7908574  44.6991892  56.8748912
 142.6330012  54.3644997  56.0459988 141.9890012  53.7334997  56.3669988
 143.3950012  53.8334997  55.8139988 142.6478077  54.2062920  56.0586011
 138.1920012  50.0914997  56.1369988 138.2560012  49.2974997  56.6679988
 138.8450012  49.9724997  55.4469988 138.2890241  49.9667148  56.1164317
 143.5440012  51.1384997  55.8729988 143.2750012  51.3184997  56.7739988
 143.3380012  50.2124997  55.7419988 143.4793825  51.0380152  55.9785214
 139.3410012  48.0634997  58.4429988 138.8810012  47.5794997  59.1289988
 139.5960012  47.3954997  57.8069988 139.3124902  47.9068731  58.4509334
 140.4120012  46.3064997  56.7049988 140.2320012  46.1524997  55.7779988
 141.3620012  46.4144997  56.7499988 140.5157776  46.3000175  56.5841843
 140.3090012  56.9974997  57.7069988 141.2420012  57.1554997  57.8499988
 140.0450012  57.6724997  57.0819988 140.4009510  57.1103611  57.6420741
 133.8780012  51.6334997  57.1889988 134.7920012  51.7124997  57.4629988
 133.8850012  50.9464997  56.5229988 134.0041131  51.5513961  57.1364393
 132.9130012  41.0224997  60.6779988 131.9880012  41.2314997  60.5489988
 133.3670012  41.5064997  59.9889988 132.8477368  41.1165993  60.5671226
 134.1890012  39.0654997  58.6569988 134.6280012  39.6764997  58.0649988
 133.5560012  39.6034997  59.1309988 134.1634514  39.2219257  58.6400930
 136.0500012  40.9814997  57.0989988 136.5420012  40.3514997  56.5719988
 136.6740012  41.2774997  57.7629988 136.2015446  40.9353199  57.1165980
 141.0760012  41.2744997  59.5559988 141.2540012  40.6284997  60.2389988
 141.0230012  42.1084997  60.0239988 141.0931829  41.2987985  59.7125940
 142.9550012  56.2234997  57.9519988 143.8210012  56.5894997  57.7739988
 142.7080012  55.7834997  57.1379988 143.0402392  56.2141756  57.8176289
 135.9080012  55.9334997  56.5799988 135.6410012  56.2204997  57.4529988
 136.6800012  55.3874997  56.7319988 135.9757488  55.8990294  56.7201050
   1.2740012  64.2594997  61.7519988   0.8270012  65.1054997  61.7329988
   0.7130012  63.6794997  61.2359988   1.1369900  64.2969916  61.6796801
  12.2370012  69.8804997  61.8549988  11.9410012  69.5584997  61.0039988
  11.9120012  70.7804997  61.8959988  12.1526371  69.9580215  61.7441801
   1.9650012  69.6914997  60.1679988   1.6930012  69.9204997  59.2789988
   2.0110012  70.5294997  60.6279988   1.9340094  69.8361213  60.1085697
  11.1610012  66.5234997  60.2639988  10.4490012  67.0584997  59.9119988
  11.8520012  66.5794997  59.6039988  11.1570132  66.6042543  60.1266289
  11.2140012  64.9814997  57.3029988  11.9150012  65.0034997  57.9539988
  11.5170012  64.3534997  56.6469988  11.3507830  64.8996566  57.3033711
  13.4370012  65.8954997  58.9009988  14.0170012  66.0454997  59.6479988
  13.8510012  66.3664997  58.1779988  13.5722830  65.9796841  58.9054134
  17.1360012  57.6454997  58.7139988  16.2360012  57.7844997  59.0089988
  17.3880012  58.4764997  58.3119988  17.0468702  57.7769074  58.7000205
   5.2020012  66.4334997  60.6879988   4.9100012  67.2014997  60.1969988
   4.5280012  65.7734997  60.5249988   5.0709081  66.4494406  60.5987340
  18.3250012  72.0114997  57.0899988  18.3990012  72.9504997  57.2609988
  19.2310012  71.7064997  57.0339988  18.4575100  72.0986722  57.1058119
  13.7380012  74.7424997  57.7529988  14.1130012  73.9984997  57.2829988
  13.7420012  74.4724997  58.6719988  13.7898915  74.6041486  57.8127824
  14.9150012  66.9284997  56.5309988  14.9570012  66.7054997  55.6009988
  15.7640012  67.3274997  56.7209988  15.0355396  66.9519155  56.4293627
  10.4870012  60.8044997  57.2009988  10.2340012  60.8234997  58.1239988
  10.2310012  59.9324997  56.8999988  10.4177790  60.6892437  57.2866263
   7.3700012  61.2494997  56.3019988   6.9390012  60.8044997  57.0319988
   6.6520012  61.6214997  55.7899988   7.2139438  61.2388940  56.3326799
   1.8860012  61.7374997  58.7779988   2.3600012  62.3284997  58.1929988
   1.1690012  62.2684997  59.1249988   1.8539341  61.8900867  58.7448836
   5.9880012  64.0274997  57.6849988   5.4450012  63.6474997  56.9929988
   6.8210012  64.2214997  57.2559988   6.0264399  64.0018124  57.5324526
   9.3230012  68.5924997  59.6199988   8.5780012  68.0854997  59.2979988
   9.1890012  68.6414997  60.5669988   9.2028776  68.5296940  59.7038647
  13.2210012  61.4064997  57.8199988  12.2820012  61.5184997  57.6679988
  13.5180012  62.2634997  58.1259988  13.1327666  61.5376443  57.8405768
  13.9390012  63.2734997  59.4799988  14.8310012  63.1364997  59.7989988
  13.9960012  64.0644997  58.9439988  14.0686285  63.3616660  59.4511691
  11.4490012  70.0514997  58.6459988  11.1530012  70.8774997  59.0269988
  10.7460012  69.4314997  58.8419988  11.3134914  70.0808199  58.7246443
  18.8240012  63.4834997  59.1749988  18.2700012  63.0874997  58.5029988
  18.9240012  64.3934997  58.8969988  18.7617059  63.5523586  59.0454401
  17.1190012  72.2694997  59.6399988  16.7460012  71.4434997  59.9489988
  17.3970012  72.0864997  58.7429988  17.1055630  72.1317303  59.5609626
   2.5780012  66.2674997  57.3809988   3.1940012  66.8944997  57.7609988
   1.7160012  66.5834997  57.6529988   2.5457698  66.3959430  57.4697183
  14.5120012  70.2454997  57.4599988  14.8650012  69.8654997  58.2649988
  13.5630012  70.1524997  57.5469988  14.4320441  70.1809596  57.5818559
  19.0150012  74.7254997  57.6609988  19.7590012  75.3114997  57.5209988
  18.3210012  75.2934997  57.9949988  19.0230292  74.8825582  57.6869961
  15.3780012  68.9184997  59.6869988  15.1000012  68.1904997  60.2429988
  16.3050012  69.0374997  59.8919988  15.4653124  68.8348802  59.7908845
   8.6030012  71.3574997  55.9069988   8.8420012  70.6094997  55.3599988
   8.3340012  70.9694997  56.7399988   8.5993675  71.2026638  55.9446865
   7.5400012  70.9274997  58.3639988   7.6860012  70.4074997  59.1539988
   7.5370012  71.8344997  58.6699988   7.5595989  70.9788853  58.5136088
   3.9930012  68.1804997  58.8739988   3.3070012  68.5324997  59.4409988
   4.5150012  68.9434997  58.6269988   3.9696852  68.3318578  58.9182118
  12.6090012  60.4944997  60.2499988  12.8290012  60.9664997  59.4469988
  13.1670012  60.8894997  60.9199988  12.7144968  60.6124285  60.2307331
  10.6920012  59.3034997  62.0229988  10.3460012  59.9214997  62.6679988
  11.3510012  59.8044997  61.5419988  10.7337826  59.4555802  62.0460971
   6.3500012  60.3664997  58.7099988   6.2670012  61.2554997  59.0569988
   7.2400012  60.1014997  58.9419988   6.4589469  60.4521430  58.7887626
   4.6090012  70.7944997  57.7709988   5.2010012  71.4934997  58.0469988
   5.0680012  70.3614997  57.0509988   4.7521142  70.8317049  57.7114830
   2.9250012  63.4584997  56.8869988   2.8800012  64.3974997  57.0649988
   2.0370012  63.2224997  56.6169988   2.7988574  63.5551892  56.8748912
   2.6630012  72.1804997  61.7199988   1.8310012  72.6534997  61.7479988
   3.2090012  72.6904997  61.1219988   2.6229739  72.3141871  61.6429716
  10.6410012  73.2204997  56.0459988   9.9970012  72.5894997  56.3669988
  11.4030012  72.6894997  55.8139988  10.6558077  73.0622920  56.0586011
  15.2450012  73.0374997  56.2799988  15.5280012  72.2434997  56.7319988
  15.9850012  73.2704997  55.7189988  15.3837486  72.9602803  56.2660698
   6.2000012  68.9474997  56.1369988   6.2640012  68.1534997  56.6679988
   6.8530012  68.8284997  55.4469988   6.2970241  68.8227148  56.1164317
  11.5520012  69.9944997  55.8729988  11.2830012  70.1744997  56.7739988
  11.3460012  69.0684997  55.7419988  11.4873825  69.8940152  55.9785214
   7.3490012  66.9194997  58.4429988   6.8890012  66.4354997  59.1289988
   7.6040012  66.2514997  57.8069988   7.3204902  66.7628731  58.4509334
   8.4200012  65.1624997  56.7049988   8.2400012  65.0084997  55.7779988
   9.3700012  65.2704997  56.7499988   8.5237776  65.1560175  56.5841843
  17.8100012  67.5174997  56.1509988  17.5360012  67.0924997  55.3379988
  17.8490012  68.4484997  55.9339988  17.7777699  67.5852484  56.0103610
   8.3170012  75.8534997  57.7069988   9.2500012  76.0114997  57.8499988
   8.0530012  76.5284997  57.0819988   8.4089510  75.9663611  57.6420741
   1.8860012  70.4894997  57.1889988   2.8000012  70.5684997  57.4629988
   1.8930012  69.8024997  56.5229988   2.0121131  70.4073961  57.1364393
   0.5350012  75.8824997  62.2669988  -0.1119988  75.4204997  61.7339988
   0.8890012  75.2104997  62.8489988   0.4943849  75.7284723  62.2727959
  18.9310012  66.3404997  58.3409988  18.4090012  66.6974997  57.6219988
  18.8980012  67.0154997  59.0189988  18.8551634  66.4805413  58.3343145
  17.2800012  63.5804997  56.8919988  17.3760012  64.2474997  56.2109988
  17.1400012  62.7644997  56.4099988  17.2742135  63.5614500  56.7338491
  16.5270012  60.9884997  56.0089988  17.1380012  60.6174997  56.6459988
  15.6910012  60.5674997  56.2049988  16.4975032  60.8807554  56.1227035
  18.6400012  59.8734997  57.5509988  19.0520012  59.1524997  57.0759988
  19.3220012  60.5434997  57.6099988  18.7885885  59.8652368  57.4938915
   2.0980012  73.8694997  59.5549988   1.4130012  73.8314997  58.8869988
   2.1020012  74.7824997  59.8429988   2.0048193  73.9877016  59.5025284
   4.0580012  59.8374997  57.0989988   4.5500012  59.2074997  56.5719988
   4.6820012  60.1334997  57.7629988   4.2095446  59.7913199  57.1165980
   9.0840012  60.1304997  59.5559988   9.2620012  59.4844997  60.2389988
   9.0310012  60.9644997  60.0239988   9.1011829  60.1547985  59.7125940
  10.9630012  75.0794997  57.9519988  11.8290012  75.4454997  57.7739988
  10.7160012  74.6394997  57.1379988  11.0482392  75.0701756  57.8176289
   3.9160012  74.7894997  56.5799988   3.6490012  75.0764997  57.4529988
   4.6880012  74.2434997  56.7319988   3.9837488  74.7550294  56.7201050
  20.8210012  69.6914997  60.1679988  20.5490012  69.9204997  59.2789988
  20.8670012  70.5294997  60.6279988  20.7900094  69.8361213  60.1085697
  30.0170012  66.5234997  60.2639988  29.3050012  67.0584997  59.9119988
  30.7080012  66.5794997  59.6039988  30.0130132  66.6042543  60.1266289
  30.0700012  64.9814997  57.3029988  30.7710012  65.0034997  57.9539988
  30.3730012  64.3534997  56.6469988  30.2067830  64.8996566  57.3033711
  33.4220012  66.7334997  61.2159988  32.6900012  66.9614997  61.7889988
  33.8700012  66.0194997  61.6709988  33.3823095  66.6682571  61.3559119
  32.2930012  65.8954997  58.9009988  32.8730012  66.0454997  59.6479988
  32.7070012  66.3664997  58.1779988  32.4282830  65.9796841  58.9054134
  35.9920012  57.6454997  58.7139988  35.0920012  57.7844997  59.0089988
  36.2440012  58.4764997  58.3119988  35.9028702  57.7769074  58.7000205
  37.1810012  72.0114997  57.0899988  37.2550012  72.9504997  57.2609988
  38.0870012  71.7064997  57.0339988  37.3135100  72.0986722  57.1058119
  32.5940012  74.7424997  57.7529988  32.9690012  73.9984997  57.2829988
  32.5980012  74.4724997  58.6719988  32.6458915  74.6041486  57.8127824
  32.2630012  74.6684997  60.5029988  31.3270012  74.7684997  60.6809988
  32.5430012  73.9594997  61.0809988  32.1728255  74.5862711  60.6055391
  33.7710012  66.9284997  56.5309988  33.8130012  66.7054997  55.6009988
  34.6200012  67.3274997  56.7209988  33.8915396  66.9519155  56.4293627
  29.3430012  60.8044997  57.2009988  29.0900012  60.8234997  58.1239988
  29.0870012  59.9324997  56.8999988  29.2737790  60.6892437  57.2866263
  30.6420012  64.1924997  61.3649988  30.2330012  65.0074997  61.0739988
  31.3630012  64.0524997  60.7509988  30.6834537  64.2852018  61.2421342
  26.2260012  61.2494997  56.3019988  25.7950012  60.8044997  57.0319988
  25.5080012  61.6214997  55.7899988  26.0699438  61.2388940  56.3326799
  20.7420012  61.7374997  58.7779988  21.2160012  62.3284997  58.1929988
  20.0250012  62.2684997  59.1249988  20.7099341  61.8900867  58.7448836
  24.8440012  64.0274997  57.6849988  24.3010012  63.6474997  56.9929988
  25.6770012  64.2214997  57.2559988  24.8824399  64.0018124  57.5324526
  28.1790012  68.5924997  59.6199988  27.4340012  68.0854997  59.2979988
  28.0450012  68.6414997  60.5669988  28.0588776  68.5296940  59.7038647
  32.0770012  61.4064997  57.8199988  31.1380012  61.5184997  57.6679988
  32.3740012  62.2634997  58.1259988  31.9887666  61.5376443  57.8405768
  32.7950012  63.2734997  59.4799988  33.6870012  63.1364997  59.7989988
  32.8520012  64.0644997  58.9439988  32.9246285  63.3616660  59.4511691
  30.3050012  70.0514997  58.6459988  30.0090012  70.8774997  59.0269988
  29.6020012  69.4314997  58.8419988  30.1694914  70.0808199  58.7246443
  37.6800012  63.4834997  59.1749988  37.1260012  63.0874997  58.5029988
  37.7800012  64.3934997  58.8969988  37.6177059  63.5523586  59.0454401
  35.9750012  72.2694997  59.6399988  35.6020012  71.4434997  59.9489988
  36.2530012  72.0864997  58.7429988  35.9615630  72.1317303  59.5609626
  21.4340012  66.2674997  57.3809988  22.0500012  66.8944997  57.7609988
  20.5720012  66.5834997  57.6529988  21.4017698  66.3959430  57.4697183
  33.3680012  70.2454997  57.4599988  33.7210012  69.8654997  58.2649988
  32.4190012  70.1524997  57.5469988  33.2880441  70.1809596  57.5818559
  37.8710012  74.7254997  57.6609988  38.6150012  75.3114997  57.5209988
  37.1770012  75.2934997  57.9949988  37.8790292  74.8825582  57.6869961
  27.4590012  71.3574997  55.9069988  27.6980012  70.6094997  55.3599988
  27.1900012  70.9694997  56.7399988  27.4553675  71.2026638  55.9446865
  26.3960012  70.9274997  58.3639988  26.5420012  70.4074997  59.1539988
  26.3930012  71.8344997  58.6699988  26.4155989  70.9788853  58.5136088
  22.8490012  68.1804997  58.8739988  22.1630012  68.5324997  59.4409988
  23.3710012  68.9434997  58.6269988  22.8256852  68.3318578  58.9182118
  29.1330012  72.6254997  59.1129988  28.3170012  73.1224997  59.1649988
  29.6630012  73.1004997  58.4729988  29.0929161  72.7577722  59.0335956
  26.4720012  73.6694997  59.0949988  26.6320012  74.4684997  58.5939988
  26.2740012  73.9754997  59.9799988  26.4671649  73.8204469  59.1459815
  25.2060012  60.3664997  58.7099988  25.1230012  61.2554997  59.0569988
  26.0960012  60.1014997  58.9419988  25.3149469  60.4521430  58.7887626
  23.4650012  70.7944997  57.7709988  24.0570012  71.4934997  58.0469988
  23.9240012  70.3614997  57.0509988  23.6081142  70.8317049  57.7114830
  21.7810012  63.4584997  56.8869988  21.7360012  64.3974997  57.0649988
  20.8930012  63.2224997  56.6169988  21.6548574  63.5551892  56.8748912
  29.4970012  73.2204997  56.0459988  28.8530012  72.5894997  56.3669988
  30.2590012  72.6894997  55.8139988  29.5118077  73.0622920  56.0586011
  34.1010012  73.0374997  56.2799988  34.3840012  72.2434997  56.7319988
  34.8410012  73.2704997  55.7189988  34.2397486  72.9602803  56.2660698
  25.0560012  68.9474997  56.1369988  25.1200012  68.1534997  56.6679988
  25.7090012  68.8284997  55.4469988  25.1530241  68.8227148  56.1164317
  30.4080012  69.9944997  55.8729988  30.1390012  70.1744997  56.7739988
  30.2020012  69.0684997  55.7419988  30.3433825  69.8940152  55.9785214
  26.2050012  66.9194997  58.4429988  25.7450012  66.4354997  59.1289988
  26.4600012  66.2514997  57.8069988  26.1764902  66.7628731  58.4509334
  27.2760012  65.1624997  56.7049988  27.0960012  65.0084997  55.7779988
  28.2260012  65.2704997  56.7499988  27.3797776  65.1560175  56.5841843
  36.6660012  67.5174997  56.1509988  36.3920012  67.0924997  55.3379988
  36.7050012  68.4484997  55.9339988  36.6337699  67.5852484  56.0103610
  27.1730012  75.8534997  57.7069988  28.1060012  76.0114997  57.8499988
  26.9090012  76.5284997  57.0819988  27.2649510  75.9663611  57.6420741
  20.7420012  70.4894997  57.1889988  21.6560012  70.5684997  57.4629988
  20.7490012  69.8024997  56.5229988  20.8681131  70.4073961  57.1364393
  37.1240012  68.3864997  60.1259988  37.9740012  68.8074997  60.2529988
  37.1300012  67.6464997  60.7329988  37.2411372  68.3440803  60.2254344
  37.7870012  66.3404997  58.3409988  37.2650012  66.6974997  57.6219988
  37.7540012  67.0154997  59.0189988  37.7111634  66.4805413  58.3343145
  36.1360012  63.5804997  56.8919988  36.2320012  64.2474997  56.2109988
  35.9960012  62.7644997  56.4099988  36.1302135  63.5614500  56.7338491
  35.3830012  60.9884997  56.0089988  35.9940012  60.6174997  56.6459988
  34.5470012  60.5674997  56.2049988  35.3535032  60.8807554  56.1227035
  37.4960012  59.8734997  57.5509988  37.9080012  59.1524997  57.0759988
  38.1780012  60.5434997  57.6099988  37.6445885  59.8652368  57.4938915
  21.0530012  57.9214997  58.6569988  21.4920012  58.5324997  58.0649988
  20.4200012  58.4594997  59.1309988  21.0274514  58.0779257  58.6400930
  33.7060012  58.1064997  60.0079988  33.0040012  58.7214997  59.7989988
  33.2620012  57.2684997  60.1389988  33.5496330  58.0775783  59.9970328
  22.9140012  59.8374997  57.0989988  23.4060012  59.2074997  56.5719988
  23.5380012  60.1334997  57.7629988  23.0655446  59.7913199  57.1165980
  27.9400012  60.1304997  59.5559988  28.1180012  59.4844997  60.2389988
  27.8870012  60.9644997  60.0239988  27.9571829  60.1547985  59.7125940
  29.8190012  75.0794997  57.9519988  30.6850012  75.4454997  57.7739988
  29.5720012  74.6394997  57.1379988  29.9042392  75.0701756  57.8176289
  22.7720012  74.7894997  56.5799988  22.5050012  75.0764997  57.4529988
  23.5440012  74.2434997  56.7319988  22.8397488  74.7550294  56.7201050
  39.6770012  69.6914997  60.1679988  39.4050012  69.9204997  59.2789988
  39.7230012  70.5294997  60.6279988  39.6460094  69.8361213  60.1085697
  48.8730012  66.5234997  60.2639988  48.1610012  67.0584997  59.9119988
  49.5640012  66.5794997  59.6039988  48.8690132  66.6042543  60.1266289
  48.9260012  64.9814997  57.3029988  49.6270012  65.0034997  57.9539988
  49.2290012  64.3534997  56.6469988  49.0627830  64.8996566  57.3033711
  52.2780012  66.7334997  61.2159988  51.5460012  66.9614997  61.7889988
  52.7260012  66.0194997  61.6709988  52.2383095  66.6682571  61.3559119
  51.1490012  65.8954997  58.9009988  51.7290012  66.0454997  59.6479988
  51.5630012  66.3664997  58.1779988  51.2842830  65.9796841  58.9054134
  42.9140012  66.4334997  60.6879988  42.6220012  67.2014997  60.1969988
  42.2400012  65.7734997  60.5249988  42.7829081  66.4494406  60.5987340
  52.6270012  66.9284997  56.5309988  52.6690012  66.7054997  55.6009988
  53.4760012  67.3274997  56.7209988  52.7475396  66.9519155  56.4293627
  48.1990012  60.8044997  57.2009988  47.9460012  60.8234997  58.1239988
  47.9430012  59.9324997  56.8999988  48.1297790  60.6892437  57.2866263
  45.0820012  61.2494997  56.3019988  44.6510012  60.8044997  57.0319988
  44.3640012  61.6214997  55.7899988  44.9259438  61.2388940  56.3326799
  39.5980012  61.7374997  58.7779988  40.0720012  62.3284997  58.1929988
  38.8810012  62.2684997  59.1249988  39.5659341  61.8900867  58.7448836
  45.0260012  62.8324997  60.1179988  45.9570012  62.9614997  60.2959988
  44.8110012  63.5024997  59.4679988  45.1244247  62.9406565  60.0545747
  43.7000012  64.0274997  57.6849988  43.1570012  63.6474997  56.9929988
  44.5330012  64.2214997  57.2559988  43.7384399  64.0018124  57.5324526
  42.8660012  60.1274997  61.9399988  42.5490012  59.2254997  61.9049988
  43.6480012  60.1294997  61.3869988  42.9282284  60.0041628  61.8604783
  50.9330012  61.4064997  57.8199988  49.9940012  61.5184997  57.6679988
  51.2300012  62.2634997  58.1259988  50.8447666  61.5376443  57.8405768
  51.6510012  63.2734997  59.4799988  52.5430012  63.1364997  59.7989988
  51.7080012  64.0644997  58.9439988  51.7806285  63.3616660  59.4511691
  56.5360012  63.4834997  59.1749988  55.9820012  63.0874997  58.5029988
  56.6360012  64.3934997  58.8969988  56.4737059  63.5523586  59.0454401
  40.2900012  66.2674997  57.3809988  40.9060012  66.8944997  57.7609988
  39.4280012  66.5834997  57.6529988  40.2577698  66.3959430  57.4697183
  46.3150012  71.3574997  55.9069988  46.5540012  70.6094997  55.3599988
  46.0460012  70.9694997  56.7399988  46.3113675  71.2026638  55.9446865
  41.7050012  68.1804997  58.8739988  41.0190012  68.5324997  59.4409988
  42.2270012  68.9434997  58.6269988  41.6816852  68.3318578  58.9182118
  45.3280012  73.6694997  59.0949988  45.4880012  74.4684997  58.5939988
  45.1300012  73.9754997  59.9799988  45.3231649  73.8204469  59.1459815
  44.0620012  60.3664997  58.7099988  43.9790012  61.2554997  59.0569988
  44.9520012  60.1014997  58.9419988  44.1709469  60.4521430  58.7887626
  42.3210012  70.7944997  57.7709988  42.9130012  71.4934997  58.0469988
  42.7800012  70.3614997  57.0509988  42.4641142  70.8317049  57.7114830
  40.6370012  63.4584997  56.8869988  40.5920012  64.3974997  57.0649988
  39.7490012  63.2224997  56.6169988  40.5108574  63.5551892  56.8748912
  48.3530012  73.2204997  56.0459988  47.7090012  72.5894997  56.3669988
  49.1150012  72.6894997  55.8139988  48.3678077  73.0622920  56.0586011
  43.9120012  68.9474997  56.1369988  43.9760012  68.1534997  56.6679988
  44.5650012  68.8284997  55.4469988  44.0090241  68.8227148  56.1164317
  49.2640012  69.9944997  55.8729988  48.9950012  70.1744997  56.7739988
  49.0580012  69.0684997  55.7419988  49.1993825  69.8940152  55.9785214
  45.0610012  66.9194997  58.4429988  44.6010012  66.4354997  59.1289988
  45.3160012  66.2514997  57.8069988  45.0324902  66.7628731  58.4509334
  46.1320012  65.1624997  56.7049988  45.9520012  65.0084997  55.7779988
  47.0820012  65.2704997  56.7499988  46.2357776  65.1560175  56.5841843
  46.0290012  75.8534997  57.7069988  46.9620012  76.0114997  57.8499988
  45.7650012  76.5284997  57.0819988  46.1209510  75.9663611  57.6420741
  39.5980012  70.4894997  57.1889988  40.5120012  70.5684997  57.4629988
  39.6050012  69.8024997  56.5229988  39.7241131  70.4073961  57.1364393
  56.6430012  66.3404997  58.3409988  56.1210012  66.6974997  57.6219988
  56.6100012  67.0154997  59.0189988  56.5671634  66.4805413  58.3343145
  54.9920012  63.5804997  56.8919988  55.0880012  64.2474997  56.2109988
  54.8520012  62.7644997  56.4099988  54.9862135  63.5614500  56.7338491
  54.2390012  60.9884997  56.0089988  54.8500012  60.6174997  56.6459988
  53.4030012  60.5674997  56.2049988  54.2095032  60.8807554  56.1227035
  53.8720012  62.5434997  60.9749988  54.1520012  61.6364997  61.0989988
  54.6310012  62.9774997  60.5859988  54.0129277  62.4780942  60.9393682
  56.3520012  59.8734997  57.5509988  56.7640012  59.1524997  57.0759988
  57.0340012  60.5434997  57.6099988  56.5005885  59.8652368  57.4938915
  38.6330012  59.8784997  60.6779988  37.7080012  60.0874997  60.5489988
  39.0870012  60.3624997  59.9889988  38.5677368  59.9725993  60.5671226
  39.9090012  57.9214997  58.6569988  40.3480012  58.5324997  58.0649988
  39.2760012  58.4594997  59.1309988  39.8834514  58.0779257  58.6400930
  52.5620012  58.1064997  60.0079988  51.8600012  58.7214997  59.7989988
  52.1180012  57.2684997  60.1389988  52.4056330  58.0775783  59.9970328
  39.8100012  73.8694997  59.5549988  39.1250012  73.8314997  58.8869988
  39.8140012  74.7824997  59.8429988  39.7168193  73.9877016  59.5025284
  41.7700012  59.8374997  57.0989988  42.2620012  59.2074997  56.5719988
  42.3940012  60.1334997  57.7629988  41.9215446  59.7913199  57.1165980
  48.6750012  75.0794997  57.9519988  49.5410012  75.4454997  57.7739988
  48.4280012  74.6394997  57.1379988  48.7602392  75.0701756  57.8176289
  41.6280012  74.7894997  56.5799988  41.3610012  75.0764997  57.4529988
  42.4000012  74.2434997  56.7319988  41.6957488  74.7550294  56.7201050
  57.8420012  64.2594997  61.7519988  57.3950012  65.1054997  61.7329988
  57.2810012  63.6794997  61.2359988  57.7049900  64.2969916  61.6796801
  68.8050012  69.8804997  61.8549988  68.5090012  69.5584997  61.0039988
  68.4800012  70.7804997  61.8959988  68.7206371  69.9580215  61.7441801
  58.5330012  69.6914997  60.1679988  58.2610012  69.9204997  59.2789988
  58.5790012  70.5294997  60.6279988  58.5020094  69.8361213  60.1085697
  71.5700012  70.9954997  62.0139988  71.3120012  70.3054997  61.4029988
  71.6410012  70.5524997  62.8599988  71.5442856  70.8412124  62.0446885
  67.7290012  66.5234997  60.2639988  67.0170012  67.0584997  59.9119988
  68.4200012  66.5794997  59.6039988  67.7250132  66.6042543  60.1266289
  70.0050012  65.8954997  58.9009988  70.5850012  66.0454997  59.6479988
  70.4190012  66.3664997  58.1779988  70.1402830  65.9796841  58.9054134
  73.7040012  57.6454997  58.7139988  72.8040012  57.7844997  59.0089988
  73.9560012  58.4764997  58.3119988  73.6148702  57.7769074  58.7000205
  61.7700012  66.4334997  60.6879988  61.4780012  67.2014997  60.1969988
  61.0960012  65.7734997  60.5249988  61.6389081  66.4494406  60.5987340
  74.8930012  72.0114997  57.0899988  74.9670012  72.9504997  57.2609988
  75.7990012  71.7064997  57.0339988  75.0255100  72.0986722  57.1058119
  71.4830012  66.9284997  56.5309988  71.5250012  66.7054997  55.6009988
  72.3320012  67.3274997  56.7209988  71.6035396  66.9519155  56.4293627
  67.0550012  60.8044997  57.2009988  66.8020012  60.8234997  58.1239988
  66.7990012  59.9324997  56.8999988  66.9857790  60.6892437  57.2866263
  68.3540012  64.1924997  61.3649988  67.9450012  65.0074997  61.0739988
  69.0750012  64.0524997  60.7509988  68.3954537  64.2852018  61.2421342
  58.4540012  61.7374997  58.7779988  58.9280012  62.3284997  58.1929988
  57.7370012  62.2684997  59.1249988  58.4219341  61.8900867  58.7448836
  63.8820012  62.8324997  60.1179988  64.8130012  62.9614997  60.2959988
  63.6670012  63.5024997  59.4679988  63.9804247  62.9406565  60.0545747
  61.7220012  60.1274997  61.9399988  61.4050012  59.2254997  61.9049988
  62.5040012  60.1294997  61.3869988  61.7842284  60.0041628  61.8604783
  65.8910012  68.5924997  59.6199988  65.1460012  68.0854997  59.2979988
  65.7570012  68.6414997  60.5669988  65.7708776  68.5296940  59.7038647
  69.7890012  61.4064997  57.8199988  68.8500012  61.5184997  57.6679988
  70.0860012  62.2634997  58.1259988  69.7007666  61.5376443  57.8405768
  70.5070012  63.2734997  59.4799988  71.3990012  63.1364997  59.7989988
  70.5640012  64.0644997  58.9439988  70.6366285  63.3616660  59.4511691
  68.0170012  70.0514997  58.6459988  67.7210012  70.8774997  59.0269988
  67.3140012  69.4314997  58.8419988  67.8814914  70.0808199  58.7246443
  75.3920012  63.4834997  59.1749988  74.8380012  63.0874997  58.5029988
  75.4920012  64.3934997  58.8969988  75.3297059  63.5523586  59.0454401
  59.1460012  66.2674997  57.3809988  59.7620012  66.8944997  57.7609988
  58.2840012  66.5834997  57.6529988  59.1137698  66.3959430  57.4697183
  64.8180012  69.0684997  62.3709988  64.5770012  69.9934997  62.4119988
  64.0770012  68.6094997  62.7669988  64.6848409  69.1331421  62.4301377
  71.0800012  70.2454997  57.4599988  71.4330012  69.8654997  58.2649988
  70.1310012  70.1524997  57.5469988  71.0000441  70.1809596  57.5818559
  75.5830012  74.7254997  57.6609988  76.3270012  75.3114997  57.5209988
  74.8890012  75.2934997  57.9949988  75.5910292  74.8825582  57.6869961
  60.5610012  68.1804997  58.8739988  59.8750012  68.5324997  59.4409988
  61.0830012  68.9434997  58.6269988  60.5376852  68.3318578  58.9182118
  69.1770012  60.4944997  60.2499988  69.3970012  60.9664997  59.4469988
  69.7350012  60.8894997  60.9199988  69.2824968  60.6124285  60.2307331
  66.8450012  72.6254997  59.1129988  66.0290012  73.1224997  59.1649988
  67.3750012  73.1004997  58.4729988  66.8049161  72.7577722  59.0335956
  66.3770012  62.2224997  61.0849988  67.1890012  62.7274997  61.1309988
  66.1320012  62.0774997  61.9989988  66.4550520  62.2720375  61.2148517
  67.2600012  59.3034997  62.0229988  66.9140012  59.9214997  62.6679988
  67.9190012  59.8044997  61.5419988  67.3017826  59.4555802  62.0460971
  62.9180012  60.3664997  58.7099988  62.8350012  61.2554997  59.0569988
  63.8080012  60.1014997  58.9419988  63.0269469  60.4521430  58.7887626
  59.4930012  63.4584997  56.8869988  59.4480012  64.3974997  57.0649988
  58.6050012  63.2224997  56.6169988  59.3668574  63.5551892  56.8748912
  59.2310012  72.1804997  61.7199988  58.3990012  72.6534997  61.7479988
  59.7770012  72.6904997  61.1219988  59.1909739  72.3141871  61.6429716
  63.9170012  66.9194997  58.4429988  63.4570012  66.4354997  59.1289988
  64.1720012  66.2514997  57.8069988  63.8884902  66.7628731  58.4509334
  74.3780012  67.5174997  56.1509988  74.1040012  67.0924997  55.3379988
  74.4170012  68.4484997  55.9339988  74.3457699  67.5852484  56.0103610
  73.8480012  63.5804997  56.8919988  73.9440012  64.2474997  56.2109988
  73.7080012  62.7644997  56.4099988  73.8422135  63.5614500  56.7338491
  73.0950012  60.9884997  56.0089988  73.7060012  60.6174997  56.6459988
  72.2590012  60.5674997  56.2049988  73.0655032  60.8807554  56.1227035
  72.7280012  62.5434997  60.9749988  73.0080012  61.6364997  61.0989988
  73.4870012  62.9774997  60.5859988  72.8689277  62.4780942  60.9393682
  73.3410012  59.8064997  61.0229988  73.5240012  59.3574997  61.8489988
  72.7420012  59.2214997  60.5599988  73.2850202  59.6659975  61.0733275
  75.2080012  59.8734997  57.5509988  75.6200012  59.1524997  57.0759988
  75.8900012  60.5434997  57.6099988  75.3565885  59.8652368  57.4938915
  58.7650012  57.9214997  58.6569988  59.2040012  58.5324997  58.0649988
  58.1320012  58.4594997  59.1309988  58.7394514  58.0779257  58.6400930
  71.4180012  58.1064997  60.0079988  70.7160012  58.7214997  59.7989988
  70.9740012  57.2684997  60.1389988  71.2616330  58.0775783  59.9970328
  60.6260012  59.8374997  57.0989988  61.1180012  59.2074997  56.5719988
  61.2500012  60.1334997  57.7629988  60.7775446  59.7913199  57.1165980
  65.6520012  60.1304997  59.5559988  65.8300012  59.4844997  60.2389988
  65.5990012  60.9644997  60.0239988  65.6691829  60.1547985  59.7125940
  60.4840012  74.7894997  56.5799988  60.2170012  75.0764997  57.4529988
  61.2560012  74.2434997  56.7319988  60.5517488  74.7550294  56.7201050
  89.9900012  66.7334997  61.2159988  89.2580012  66.9614997  61.7889988
  90.4380012  66.0194997  61.6709988  89.9503095  66.6682571  61.3559119
  92.5600012  57.6454997  58.7139988  91.6600012  57.7844997  59.0089988
  92.8120012  58.4764997  58.3119988  92.4708702  57.7769074  58.7000205
  93.7490012  72.0114997  57.0899988  93.8230012  72.9504997  57.2609988
  94.6550012  71.7064997  57.0339988  93.8815100  72.0986722  57.1058119
  89.1620012  74.7424997  57.7529988  89.5370012  73.9984997  57.2829988
  89.1660012  74.4724997  58.6719988  89.2138915  74.6041486  57.8127824
  90.3390012  66.9284997  56.5309988  90.3810012  66.7054997  55.6009988
  91.1880012  67.3274997  56.7209988  90.4595396  66.9519155  56.4293627
  82.7940012  61.2494997  56.3019988  82.3630012  60.8044997  57.0319988
  82.0760012  61.6214997  55.7899988  82.6379438  61.2388940  56.3326799
  77.3100012  61.7374997  58.7779988  77.7840012  62.3284997  58.1929988
  76.5930012  62.2684997  59.1249988  77.2779341  61.8900867  58.7448836
  94.2480012  63.4834997  59.1749988  93.6940012  63.0874997  58.5029988
  94.3480012  64.3934997  58.8969988  94.1857059  63.5523586  59.0454401
  92.5430012  72.2694997  59.6399988  92.1700012  71.4434997  59.9489988
  92.8210012  72.0864997  58.7429988  92.5295630  72.1317303  59.5609626
  78.0020012  66.2674997  57.3809988  78.6180012  66.8944997  57.7609988
  77.1400012  66.5834997  57.6529988  77.9697698  66.3959430  57.4697183
  89.9360012  70.2454997  57.4599988  90.2890012  69.8654997  58.2649988
  88.9870012  70.1524997  57.5469988  89.8560441  70.1809596  57.5818559
  94.4390012  74.7254997  57.6609988  95.1830012  75.3114997  57.5209988
  93.7450012  75.2934997  57.9949988  94.4470292  74.8825582  57.6869961
  81.7740012  60.3664997  58.7099988  81.6910012  61.2554997  59.0569988
  82.6640012  60.1014997  58.9419988  81.8829469  60.4521430  58.7887626
  78.3490012  63.4584997  56.8869988  78.3040012  64.3974997  57.0649988
  77.4610012  63.2224997  56.6169988  78.2228574  63.5551892  56.8748912
  86.0650012  73.2204997  56.0459988  85.4210012  72.5894997  56.3669988
  86.8270012  72.6894997  55.8139988  86.0798077  73.0622920  56.0586011
  90.6690012  73.0374997  56.2799988  90.9520012  72.2434997  56.7319988
  91.4090012  73.2704997  55.7189988  90.8077486  72.9602803  56.2660698
  86.9760012  69.9944997  55.8729988  86.7070012  70.1744997  56.7739988
  86.7700012  69.0684997  55.7419988  86.9113825  69.8940152  55.9785214
  93.2340012  67.5174997  56.1509988  92.9600012  67.0924997  55.3379988
  93.2730012  68.4484997  55.9339988  93.2017699  67.5852484  56.0103610
  93.6920012  68.3864997  60.1259988  94.5420012  68.8074997  60.2529988
  93.6980012  67.6464997  60.7329988  93.8091372  68.3440803  60.2254344
  94.0870012  66.4394997  61.9499988  93.3600012  65.9604997  62.3469988
  94.6680012  66.6454997  62.6819988  94.0659375  66.4017090  62.1034129
  94.3550012  66.3404997  58.3409988  93.8330012  66.6974997  57.6219988
  94.3220012  67.0154997  59.0189988  94.2791634  66.4805413  58.3343145
  92.7040012  63.5804997  56.8919988  92.8000012  64.2474997  56.2109988
  92.5640012  62.7644997  56.4099988  92.6982135  63.5614500  56.7338491
  91.9510012  60.9884997  56.0089988  92.5620012  60.6174997  56.6459988
  91.1150012  60.5674997  56.2049988  91.9215032  60.8807554  56.1227035
  94.0640012  59.8734997  57.5509988  94.4760012  59.1524997  57.0759988
  94.7460012  60.5434997  57.6099988  94.2125885  59.8652368  57.4938915
  77.6210012  57.9214997  58.6569988  78.0600012  58.5324997  58.0649988
  76.9880012  58.4594997  59.1309988  77.5954514  58.0779257  58.6400930
  79.4820012  59.8374997  57.0989988  79.9740012  59.2074997  56.5719988
  80.1060012  60.1334997  57.7629988  79.6335446  59.7913199  57.1165980
  86.3870012  75.0794997  57.9519988  87.2530012  75.4454997  57.7739988
  86.1400012  74.6394997  57.1379988  86.4722392  75.0701756  57.8176289
 105.4940012  64.9814997  57.3029988 106.1950012  65.0034997  57.9539988
 105.7970012  64.3534997  56.6469988 105.6307830  64.8996566  57.3033711
 108.8460012  66.7334997  61.2159988 108.1140012  66.9614997  61.7889988
 109.2940012  66.0194997  61.6709988 108.8063095  66.6682571  61.3559119
 107.7170012  65.8954997  58.9009988 108.2970012  66.0454997  59.6479988
 108.1310012  66.3664997  58.1779988 107.8522830  65.9796841  58.9054134
 111.4160012  57.6454997  58.7139988 110.5160012  57.7844997  59.0089988
 111.6680012  58.4764997  58.3119988 111.3268702  57.7769074  58.7000205
  99.4820012  66.4334997  60.6879988  99.1900012  67.2014997  60.1969988
  98.8080012  65.7734997  60.5249988  99.3509081  66.4494406  60.5987340
 112.6050012  72.0114997  57.0899988 112.6790012  72.9504997  57.2609988
 113.5110012  71.7064997  57.0339988 112.7375100  72.0986722  57.1058119
 108.0180012  74.7424997  57.7529988 108.3930012  73.9984997  57.2829988
 108.0220012  74.4724997  58.6719988 108.0698915  74.6041486  57.8127824
 109.1950012  66.9284997  56.5309988 109.2370012  66.7054997  55.6009988
 110.0440012  67.3274997  56.7209988 109.3155396  66.9519155  56.4293627
 104.7670012  60.8044997  57.2009988 104.5140012  60.8234997  58.1239988
 104.5110012  59.9324997  56.8999988 104.6977790  60.6892437  57.2866263
 101.6500012  61.2494997  56.3019988 101.2190012  60.8044997  57.0319988
 100.9320012  61.6214997  55.7899988 101.4939438  61.2388940  56.3326799
  96.1660012  61.7374997  58.7779988  96.6400012  62.3284997  58.1929988
  95.4490012  62.2684997  59.1249988  96.1339341  61.8900867  58.7448836
 100.2680012  64.0274997  57.6849988  99.7250012  63.6474997  56.9929988
 101.1010012  64.2214997  57.2559988 100.3064399  64.0018124  57.5324526
 103.6030012  68.5924997  59.6199988 102.8580012  68.0854997  59.2979988
 103.4690012  68.6414997  60.5669988 103.4828776  68.5296940  59.7038647
 107.5010012  61.4064997  57.8199988 106.5620012  61.5184997  57.6679988
 107.7980012  62.2634997  58.1259988 107.4127666  61.5376443  57.8405768
 108.2190012  63.2734997  59.4799988 109.1110012  63.1364997  59.7989988
 108.2760012  64.0644997  58.9439988 108.3486285  63.3616660  59.4511691
 105.7290012  70.0514997  58.6459988 105.4330012  70.8774997  59.0269988
 105.0260012  69.4314997  58.8419988 105.5934914  70.0808199  58.7246443
 113.1040012  63.4834997  59.1749988 112.5500012  63.0874997  58.5029988
 113.2040012  64.3934997  58.8969988 113.0417059  63.5523586  59.0454401
  96.8580012  66.2674997  57.3809988  97.4740012  66.8944997  57.7609988
  95.9960012  66.5834997  57.6529988  96.8257698  66.3959430  57.4697183
 102.5300012  69.0684997  62.3709988 102.2890012  69.9934997  62.4119988
 101.7890012  68.6094997  62.7669988 102.3968409  69.1331421  62.4301377
 101.2130012  74.0904997  61.9159988 100.2630012  74.1954997  61.9669988
 101.5650012  74.9104997  62.2609988 101.1304203  74.2158314  61.9696650
 108.7920012  70.2454997  57.4599988 109.1450012  69.8654997  58.2649988
 107.8430012  70.1524997  57.5469988 108.7120441  70.1809596  57.5818559
 113.2950012  74.7254997  57.6609988 114.0390012  75.3114997  57.5209988
 112.6010012  75.2934997  57.9949988 113.3030292  74.8825582  57.6869961
 109.6580012  68.9184997  59.6869988 109.3800012  68.1904997  60.2429988
 110.5850012  69.0374997  59.8919988 109.7453124  68.8348802  59.7908845
 102.8830012  71.3574997  55.9069988 103.1220012  70.6094997  55.3599988
 102.6140012  70.9694997  56.7399988 102.8793675  71.2026638  55.9446865
 101.8200012  70.9274997  58.3639988 101.9660012  70.4074997  59.1539988
 101.8170012  71.8344997  58.6699988 101.8395989  70.9788853  58.5136088
 104.5570012  72.6254997  59.1129988 103.7410012  73.1224997  59.1649988
 105.0870012  73.1004997  58.4729988 104.5169161  72.7577722  59.0335956
 101.8960012  73.6694997  59.0949988 102.0560012  74.4684997  58.5939988
 101.6980012  73.9754997  59.9799988 101.8911649  73.8204469  59.1459815
 100.6300012  60.3664997  58.7099988 100.5470012  61.2554997  59.0569988
 101.5200012  60.1014997  58.9419988 100.7389469  60.4521430  58.7887626
  97.2050012  63.4584997  56.8869988  97.1600012  64.3974997  57.0649988
  96.3170012  63.2224997  56.6169988  97.0788574  63.5551892  56.8748912
 104.9210012  73.2204997  56.0459988 104.2770012  72.5894997  56.3669988
 105.6830012  72.6894997  55.8139988 104.9358077  73.0622920  56.0586011
 109.5250012  73.0374997  56.2799988 109.8080012  72.2434997  56.7319988
 110.2650012  73.2704997  55.7189988 109.6637486  72.9602803  56.2660698
 100.4800012  68.9474997  56.1369988 100.5440012  68.1534997  56.6679988
 101.1330012  68.8284997  55.4469988 100.5770241  68.8227148  56.1164317
 105.8320012  69.9944997  55.8729988 105.5630012  70.1744997  56.7739988
 105.6260012  69.0684997  55.7419988 105.7673825  69.8940152  55.9785214
 101.6290012  66.9194997  58.4429988 101.1690012  66.4354997  59.1289988
 101.8840012  66.2514997  57.8069988 101.6004902  66.7628731  58.4509334
 102.7000012  65.1624997  56.7049988 102.5200012  65.0084997  55.7779988
 103.6500012  65.2704997  56.7499988 102.8037776  65.1560175  56.5841843
 112.0900012  67.5174997  56.1509988 111.8160012  67.0924997  55.3379988
 112.1290012  68.4484997  55.9339988 112.0577699  67.5852484  56.0103610
 102.5970012  75.8534997  57.7069988 103.5300012  76.0114997  57.8499988
 102.3330012  76.5284997  57.0819988 102.6889510  75.9663611  57.6420741
  96.1660012  70.4894997  57.1889988  97.0800012  70.5684997  57.4629988
  96.1730012  69.8024997  56.5229988  96.2921131  70.4073961  57.1364393
  94.8150012  75.8824997  62.2669988  94.1680012  75.4204997  61.7339988
  95.1690012  75.2104997  62.8489988  94.7743849  75.7284723  62.2727959
 112.9430012  66.4394997  61.9499988 112.2160012  65.9604997  62.3469988
 113.5240012  66.6454997  62.6819988 112.9219375  66.4017090  62.1034129
 113.2110012  66.3404997  58.3409988 112.6890012  66.6974997  57.6219988
 113.1780012  67.0154997  59.0189988 113.1351634  66.4805413  58.3343145
 111.5600012  63.5804997  56.8919988 111.6560012  64.2474997  56.2109988
 111.4200012  62.7644997  56.4099988 111.5542135  63.5614500  56.7338491
 110.8070012  60.9884997  56.0089988 111.4180012  60.6174997  56.6459988
 109.9710012  60.5674997  56.2049988 110.7775032  60.8807554  56.1227035
 111.0530012  59.8064997  61.0229988 111.2360012  59.3574997  61.8489988
 110.4540012  59.2214997  60.5599988 110.9970202  59.6659975  61.0733275
 112.9200012  59.8734997  57.5509988 113.3320012  59.1524997  57.0759988
 113.6020012  60.5434997  57.6099988 113.0685885  59.8652368  57.4938915
  96.4770012  57.9214997  58.6569988  96.9160012  58.5324997  58.0649988
  95.8440012  58.4594997  59.1309988  96.4514514  58.0779257  58.6400930
 109.1300012  58.1064997  60.0079988 108.4280012  58.7214997  59.7989988
 108.6860012  57.2684997  60.1389988 108.9736330  58.0775783  59.9970328
  96.3780012  73.8694997  59.5549988  95.6930012  73.8314997  58.8869988
  96.3820012  74.7824997  59.8429988  96.2848193  73.9877016  59.5025284
  98.3380012  59.8374997  57.0989988  98.8300012  59.2074997  56.5719988
  98.9620012  60.1334997  57.7629988  98.4895446  59.7913199  57.1165980
 111.9520012  74.6424997  60.6309988 111.7570012  73.8944997  60.0659988
 111.9130012  75.4004997  60.0479988 111.9200380  74.6426099  60.4748384
  98.1960012  74.7894997  56.5799988  97.9290012  75.0764997  57.4529988
  98.9680012  74.2434997  56.7319988  98.2637488  74.7550294  56.7201050
 125.3730012  69.8804997  61.8549988 125.0770012  69.5584997  61.0039988
 125.0480012  70.7804997  61.8959988 125.2886371  69.9580215  61.7441801
 124.2970012  66.5234997  60.2639988 123.5850012  67.0584997  59.9119988
 124.9880012  66.5794997  59.6039988 124.2930132  66.6042543  60.1266289
 124.3500012  64.9814997  57.3029988 125.0510012  65.0034997  57.9539988
 124.6530012  64.3534997  56.6469988 124.4867830  64.8996566  57.3033711
 127.7020012  66.7334997  61.2159988 126.9700012  66.9614997  61.7889988
 128.1500012  66.0194997  61.6709988 127.6623095  66.6682571  61.3559119
 126.5730012  65.8954997  58.9009988 127.1530012  66.0454997  59.6479988
 126.9870012  66.3664997  58.1779988 126.7082830  65.9796841  58.9054134
 124.3000012  72.6324997  62.3359988 124.7740012  72.9274997  63.1139988
 123.7370012  73.3704997  62.1029988 124.2887653  72.7726932  62.4110136
 130.2720012  57.6454997  58.7139988 129.3720012  57.7844997  59.0089988
 130.5240012  58.4764997  58.3119988 130.1828702  57.7769074  58.7000205
 131.4610012  72.0114997  57.0899988 131.5350012  72.9504997  57.2609988
 132.3670012  71.7064997  57.0339988 131.5935100  72.0986722  57.1058119
 126.8740012  74.7424997  57.7529988 127.2490012  73.9984997  57.2829988
 126.8780012  74.4724997  58.6719988 126.9258915  74.6041486  57.8127824
 126.5430012  74.6684997  60.5029988 125.6070012  74.7684997  60.6809988
 126.8230012  73.9594997  61.0809988 126.4528255  74.5862711  60.6055391
 128.0510012  66.9284997  56.5309988 128.0930012  66.7054997  55.6009988
 128.9000012  67.3274997  56.7209988 128.1715396  66.9519155  56.4293627
 123.6230012  60.8044997  57.2009988 123.3700012  60.8234997  58.1239988
 123.3670012  59.9324997  56.8999988 123.5537790  60.6892437  57.2866263
 120.5060012  61.2494997  56.3019988 120.0750012  60.8044997  57.0319988
 119.7880012  61.6214997  55.7899988 120.3499438  61.2388940  56.3326799
 115.0220012  61.7374997  58.7779988 115.4960012  62.3284997  58.1929988
 114.3050012  62.2684997  59.1249988 114.9899341  61.8900867  58.7448836
 119.1240012  64.0274997  57.6849988 118.5810012  63.6474997  56.9929988
 119.9570012  64.2214997  57.2559988 119.1624399  64.0018124  57.5324526
 126.3570012  61.4064997  57.8199988 125.4180012  61.5184997  57.6679988
 126.6540012  62.2634997  58.1259988 126.2687666  61.5376443  57.8405768
 124.5850012  70.0514997  58.6459988 124.2890012  70.8774997  59.0269988
 123.8820012  69.4314997  58.8419988 124.4494914  70.0808199  58.7246443
 131.9600012  63.4834997  59.1749988 131.4060012  63.0874997  58.5029988
 132.0600012  64.3934997  58.8969988 131.8977059  63.5523586  59.0454401
 115.7140012  66.2674997  57.3809988 116.3300012  66.8944997  57.7609988
 114.8520012  66.5834997  57.6529988 115.6817698  66.3959430  57.4697183
 127.6480012  70.2454997  57.4599988 128.0010012  69.8654997  58.2649988
 126.6990012  70.1524997  57.5469988 127.5680441  70.1809596  57.5818559
 132.1510012  74.7254997  57.6609988 132.8950012  75.3114997  57.5209988
 131.4570012  75.2934997  57.9949988 132.1590292  74.8825582  57.6869961
 128.5140012  68.9184997  59.6869988 128.2360012  68.1904997  60.2429988
 129.4410012  69.0374997  59.8919988 128.6013124  68.8348802  59.7908845
 121.7390012  71.3574997  55.9069988 121.9780012  70.6094997  55.3599988
 121.4700012  70.9694997  56.7399988 121.7353675  71.2026638  55.9446865
 120.6760012  70.9274997  58.3639988 120.8220012  70.4074997  59.1539988
 120.6730012  71.8344997  58.6699988 120.6955989  70.9788853  58.5136088
 117.1290012  68.1804997  58.8739988 116.4430012  68.5324997  59.4409988
 117.6510012  68.9434997  58.6269988 117.1056852  68.3318578  58.9182118
 125.7450012  60.4944997  60.2499988 125.9650012  60.9664997  59.4469988
 126.3030012  60.8894997  60.9199988 125.8504968  60.6124285  60.2307331
 123.4130012  72.6254997  59.1129988 122.5970012  73.1224997  59.1649988
 123.9430012  73.1004997  58.4729988 123.3729161  72.7577722  59.0335956
 122.9450012  62.2224997  61.0849988 123.7570012  62.7274997  61.1309988
 122.7000012  62.0774997  61.9989988 123.0230520  62.2720375  61.2148517
 120.7520012  73.6694997  59.0949988 120.9120012  74.4684997  58.5939988
 120.5540012  73.9754997  59.9799988 120.7471649  73.8204469  59.1459815
 119.4860012  60.3664997  58.7099988 119.4030012  61.2554997  59.0569988
 120.3760012  60.1014997  58.9419988 119.5949469  60.4521430  58.7887626
 117.7450012  70.7944997  57.7709988 118.3370012  71.4934997  58.0469988
 118.2040012  70.3614997  57.0509988 117.8881142  70.8317049  57.7114830
 116.0610012  63.4584997  56.8869988 116.0160012  64.3974997  57.0649988
 115.1730012  63.2224997  56.6169988 115.9348574  63.5551892  56.8748912
 123.7770012  73.2204997  56.0459988 123.1330012  72.5894997  56.3669988
 124.5390012  72.6894997  55.8139988 123.7918077  73.0622920  56.0586011
 128.3810012  73.0374997  56.2799988 128.6640012  72.2434997  56.7319988
 129.1210012  73.2704997  55.7189988 128.5197486  72.9602803  56.2660698
 119.3360012  68.9474997  56.1369988 119.4000012  68.1534997  56.6679988
 119.9890012  68.8284997  55.4469988 119.4330241  68.8227148  56.1164317
 124.6880012  69.9944997  55.8729988 124.4190012  70.1744997  56.7739988
 124.4820012  69.0684997  55.7419988 124.6233825  69.8940152  55.9785214
 121.5560012  65.1624997  56.7049988 121.3760012  65.0084997  55.7779988
 122.5060012  65.2704997  56.7499988 121.6597776  65.1560175  56.5841843
 130.9460012  67.5174997  56.1509988 130.6720012  67.0924997  55.3379988
 130.9850012  68.4484997  55.9339988 130.9137699  67.5852484  56.0103610
 121.4530012  75.8534997  57.7069988 122.3860012  76.0114997  57.8499988
 121.1890012  76.5284997  57.0819988 121.5449510  75.9663611  57.6420741
 115.0220012  70.4894997  57.1889988 115.9360012  70.5684997  57.4629988
 115.0290012  69.8024997  56.5229988 115.1481131  70.4073961  57.1364393
 113.6710012  75.8824997  62.2669988 113.0240012  75.4204997  61.7339988
 114.0250012  75.2104997  62.8489988 113.6303849  75.7284723  62.2727959
 131.4040012  68.3864997  60.1259988 132.2540012  68.8074997  60.2529988
 131.4100012  67.6464997  60.7329988 131.5211372  68.3440803  60.2254344
 132.0670012  66.3404997  58.3409988 131.5450012  66.6974997  57.6219988
 132.0340012  67.0154997  59.0189988 131.9911634  66.4805413  58.3343145
 130.4160012  63.5804997  56.8919988 130.5120012  64.2474997  56.2109988
 130.2760012  62.7644997  56.4099988 130.4102135  63.5614500  56.7338491
 129.6630012  60.9884997  56.0089988 130.2740012  60.6174997  56.6459988
 128.8270012  60.5674997  56.2049988 129.6335032  60.8807554  56.1227035
 131.7760012  59.8734997  57.5509988 132.1880012  59.1524997  57.0759988
 132.4580012  60.5434997  57.6099988 131.9245885  59.8652368  57.4938915
 114.0570012  59.8784997  60.6779988 113.1320012  60.0874997  60.5489988
 114.5110012  60.3624997  59.9889988 113.9917368  59.9725993  60.5671226
 115.3330012  57.9214997  58.6569988 115.7720012  58.5324997  58.0649988
 114.7000012  58.4594997  59.1309988 115.3074514  58.0779257  58.6400930
 127.9860012  58.1064997  60.0079988 127.2840012  58.7214997  59.7989988
 127.5420012  57.2684997  60.1389988 127.8296330  58.0775783  59.9970328
 117.1940012  59.8374997  57.0989988 117.6860012  59.2074997  56.5719988
 117.8180012  60.1334997  57.7629988 117.3455446  59.7913199  57.1165980
 122.2200012  60.1304997  59.5559988 122.3980012  59.4844997  60.2389988
 122.1670012  60.9644997  60.0239988 122.2371829  60.1547985  59.7125940
 124.0990012  75.0794997  57.9519988 124.9650012  75.4454997  57.7739988
 123.8520012  74.6394997  57.1379988 124.1842392  75.0701756  57.8176289
 117.0520012  74.7894997  56.5799988 116.7850012  75.0764997  57.4529988
 117.8240012  74.2434997  56.7319988 117.1197488  74.7550294  56.7201050
 133.2660012  64.2594997  61.7519988 132.8190012  65.1054997  61.7329988
 132.7050012  63.6794997  61.2359988 133.1289900  64.2969916  61.6796801
 143.2060012  64.9814997  57.3029988 143.9070012  65.0034997  57.9539988
 143.5090012  64.3534997  56.6469988 143.3427830  64.8996566  57.3033711
 142.4790012  60.8044997  57.2009988 142.2260012  60.8234997  58.1239988
 142.2230012  59.9324997  56.8999988 142.4097790  60.6892437  57.2866263
 139.3620012  61.2494997  56.3019988 138.9310012  60.8044997  57.0319988
 138.6440012  61.6214997  55.7899988 139.2059438  61.2388940  56.3326799
 133.8780012  61.7374997  58.7779988 134.3520012  62.3284997  58.1929988
 133.1610012  62.2684997  59.1249988 133.8459341  61.8900867  58.7448836
 139.3060012  62.8324997  60.1179988 140.2370012  62.9614997  60.2959988
 139.0910012  63.5024997  59.4679988 139.4044247  62.9406565  60.0545747
 137.9800012  64.0274997  57.6849988 137.4370012  63.6474997  56.9929988
 138.8130012  64.2214997  57.2559988 138.0184399  64.0018124  57.5324526
 141.3150012  68.5924997  59.6199988 140.5700012  68.0854997  59.2979988
 141.1810012  68.6414997  60.5669988 141.1948776  68.5296940  59.7038647
 143.4410012  70.0514997  58.6459988 143.1450012  70.8774997  59.0269988
 142.7380012  69.4314997  58.8419988 143.3054914  70.0808199  58.7246443
 134.5700012  66.2674997  57.3809988 135.1860012  66.8944997  57.7609988
 133.7080012  66.5834997  57.6529988 134.5377698  66.3959430  57.4697183
 140.2420012  69.0684997  62.3709988 140.0010012  69.9934997  62.4119988
 139.5010012  68.6094997  62.7669988 140.1088409  69.1331421  62.4301377
 140.5950012  71.3574997  55.9069988 140.8340012  70.6094997  55.3599988
 140.3260012  70.9694997  56.7399988 140.5913675  71.2026638  55.9446865
 139.5320012  70.9274997  58.3639988 139.6780012  70.4074997  59.1539988
 139.5290012  71.8344997  58.6699988 139.5515989  70.9788853  58.5136088
 144.6010012  60.4944997  60.2499988 144.8210012  60.9664997  59.4469988
 145.1590012  60.8894997  60.9199988 144.7064968  60.6124285  60.2307331
 142.2690012  72.6254997  59.1129988 141.4530012  73.1224997  59.1649988
 142.7990012  73.1004997  58.4729988 142.2289161  72.7577722  59.0335956
 141.8010012  62.2224997  61.0849988 142.6130012  62.7274997  61.1309988
 141.5560012  62.0774997  61.9989988 141.8790520  62.2720375  61.2148517
 142.6840012  59.3034997  62.0229988 142.3380012  59.9214997  62.6679988
 143.3430012  59.8044997  61.5419988 142.7257826  59.4555802  62.0460971
 139.6080012  73.6694997  59.0949988 139.7680012  74.4684997  58.5939988
 139.4100012  73.9754997  59.9799988 139.6031649  73.8204469  59.1459815
 138.3420012  60.3664997  58.7099988 138.2590012  61.2554997  59.0569988
 139.2320012  60.1014997  58.9419988 138.4509469  60.4521430  58.7887626
 136.6010012  70.7944997  57.7709988 137.1930012  71.4934997  58.0469988
 137.0600012  70.3614997  57.0509988 136.7441142  70.8317049  57.7114830
 134.9170012  63.4584997  56.8869988 134.8720012  64.3974997  57.0649988
 134.0290012  63.2224997  56.6169988 134.7908574  63.5551892  56.8748912
 134.6550012  72.1804997  61.7199988 133.8230012  72.6534997  61.7479988
 135.2010012  72.6904997  61.1219988 134.6149739  72.3141871  61.6429716
 142.6330012  73.2204997  56.0459988 141.9890012  72.5894997  56.3669988
 143.3950012  72.6894997  55.8139988 142.6478077  73.0622920  56.0586011
 138.1920012  68.9474997  56.1369988 138.2560012  68.1534997  56.6679988
 138.8450012  68.8284997  55.4469988 138.2890241  68.8227148  56.1164317
 143.5440012  69.9944997  55.8729988 143.2750012  70.1744997  56.7739988
 143.3380012  69.0684997  55.7419988 143.4793825  69.8940152  55.9785214
 139.3410012  66.9194997  58.4429988 138.8810012  66.4354997  59.1289988
 139.5960012  66.2514997  57.8069988 139.3124902  66.7628731  58.4509334
 140.4120012  65.1624997  56.7049988 140.2320012  65.0084997  55.7779988
 141.3620012  65.2704997  56.7499988 140.5157776  65.1560175  56.5841843
 140.3090012  75.8534997  57.7069988 141.2420012  76.0114997  57.8499988
 140.0450012  76.5284997  57.0819988 140.4009510  75.9663611  57.6420741
 133.8780012  70.4894997  57.1889988 134.7920012  70.5684997  57.4629988
 133.8850012  69.8024997  56.5229988 134.0041131  70.4073961  57.1364393
 132.9130012  59.8784997  60.6779988 131.9880012  60.0874997  60.5489988
 133.3670012  60.3624997  59.9889988 132.8477368  59.9725993  60.5671226
 134.1890012  57.9214997  58.6569988 134.6280012  58.5324997  58.0649988
 133.5560012  58.4594997  59.1309988 134.1634514  58.0779257  58.6400930
 134.0900012  73.8694997  59.5549988 133.4050012  73.8314997  58.8869988
 134.0940012  74.7824997  59.8429988 133.9968193  73.9877016  59.5025284
 136.0500012  59.8374997  57.0989988 136.5420012  59.2074997  56.5719988
 136.6740012  60.1334997  57.7629988 136.2015446  59.7913199  57.1165980
 141.0760012  60.1304997  59.5559988 141.2540012  59.4844997  60.2389988
 141.0230012  60.9644997  60.0239988 141.0931829  60.1547985  59.7125940
 142.9550012  75.0794997  57.9519988 143.8210012  75.4454997  57.7739988
 142.7080012  74.6394997  57.1379988 143.0402392  75.0701756  57.8176289
 135.9080012  74.7894997  56.5799988 135.6410012  75.0764997  57.4529988
 136.6800012  74.2434997  56.7319988 135.9757488  74.7550294  56.7201050
   1.2740012  83.1154997  61.7519988   0.8270012  83.9614997  61.7329988
   0.7130012  82.5354997  61.2359988   1.1369900  83.1529916  61.6796801
   1.9650012  88.5474997  60.1679988   1.6930012  88.7764997  59.2789988
   2.0110012  89.3854997  60.6279988   1.9340094  88.6921213  60.1085697
  15.0020012  89.8514997  62.0139988  14.7440012  89.1614997  61.4029988
  15.0730012  89.4084997  62.8599988  14.9762856  89.6972124  62.0446885
  11.1610012  85.3794997  60.2639988  10.4490012  85.9144997  59.9119988
  11.8520012  85.4354997  59.6039988  11.1570132  85.4602543  60.1266289
  11.2140012  83.8374997  57.3029988  11.9150012  83.8594997  57.9539988
  11.5170012  83.2094997  56.6469988  11.3507830  83.7556566  57.3033711
  13.4370012  84.7514997  58.9009988  14.0170012  84.9014997  59.6479988
  13.8510012  85.2224997  58.1779988  13.5722830  84.8356841  58.9054134
  17.1360012  76.5014997  58.7139988  16.2360012  76.6404997  59.0089988
  17.3880012  77.3324997  58.3119988  17.0468702  76.6329074  58.7000205
  18.3250012  90.8674997  57.0899988  18.3990012  91.8064997  57.2609988
  19.2310012  90.5624997  57.0339988  18.4575100  90.9546722  57.1058119
  10.6360012  94.4444997  60.7509988  10.5610012  94.3234997  59.8049988
  10.6690012  95.3944997  60.8699988  10.6301848  94.5562500  60.6374834
  13.7380012  93.5984997  57.7529988  14.1130012  92.8544997  57.2829988
  13.7420012  93.3284997  58.6719988  13.7898915  93.4601486  57.8127824
  14.9150012  85.7844997  56.5309988  14.9570012  85.5614997  55.6009988
  15.7640012  86.1834997  56.7209988  15.0355396  85.8079155  56.4293627
  10.4870012  79.6604997  57.2009988  10.2340012  79.6794997  58.1239988
  10.2310012  78.7884997  56.8999988  10.4177790  79.5452437  57.2866263
  11.7860012  83.0484997  61.3649988  11.3770012  83.8634997  61.0739988
  12.5070012  82.9084997  60.7509988  11.8274537  83.1412018  61.2421342
   7.3700012  80.1054997  56.3019988   6.9390012  79.6604997  57.0319988
   6.6520012  80.4774997  55.7899988   7.2139438  80.0948940  56.3326799
   1.8860012  80.5934997  58.7779988   2.3600012  81.1844997  58.1929988
   1.1690012  81.1244997  59.1249988   1.8539341  80.7460867  58.7448836
   5.9880012  82.8834997  57.6849988   5.4450012  82.5034997  56.9929988
   6.8210012  83.0774997  57.2559988   6.0264399  82.8578124  57.5324526
   9.3230012  87.4484997  59.6199988   8.5780012  86.9414997  59.2979988
   9.1890012  87.4974997  60.5669988   9.2028776  87.3856940  59.7038647
  13.2210012  80.2624997  57.8199988  12.2820012  80.3744997  57.6679988
  13.5180012  81.1194997  58.1259988  13.1327666  80.3936443  57.8405768
  13.9390012  82.1294997  59.4799988  14.8310012  81.9924997  59.7989988
  13.9960012  82.9204997  58.9439988  14.0686285  82.2176660  59.4511691
  11.4490012  88.9074997  58.6459988  11.1530012  89.7334997  59.0269988
  10.7460012  88.2874997  58.8419988  11.3134914  88.9368199  58.7246443
  18.8240012  82.3394997  59.1749988  18.2700012  81.9434997  58.5029988
  18.9240012  83.2494997  58.8969988  18.7617059  82.4083586  59.0454401
  17.1190012  91.1254997  59.6399988  16.7460012  90.2994997  59.9489988
  17.3970012  90.9424997  58.7429988  17.1055630  90.9877303  59.5609626
   2.5780012  85.1234997  57.3809988   3.1940012  85.7504997  57.7609988
   1.7160012  85.4394997  57.6529988   2.5457698  85.2519430  57.4697183
   6.9330012  92.9464997  61.9159988   5.9830012  93.0514997  61.9669988
   7.2850012  93.7664997  62.2609988   6.8504203  93.0718314  61.9696650
  14.5120012  89.1014997  57.4599988  14.8650012  88.7214997  58.2649988
  13.5630012  89.0084997  57.5469988  14.4320441  89.0369596  57.5818559
  19.0150012  93.5814997  57.6609988  19.7590012  94.1674997  57.5209988
  18.3210012  94.1494997  57.9949988  19.0230292  93.7385582  57.6869961
  15.3780012  87.7744997  59.6869988  15.1000012  87.0464997  60.2429988
  16.3050012  87.8934997  59.8919988  15.4653124  87.6908802  59.7908845
   8.6030012  90.2134997  55.9069988   8.8420012  89.4654997  55.3599988
   8.3340012  89.8254997  56.7399988   8.5993675  90.0586638  55.9446865
   7.5400012  89.7834997  58.3639988   7.6860012  89.2634997  59.1539988
   7.5370012  90.6904997  58.6699988   7.5595989  89.8348853  58.5136088
   3.9930012  87.0364997  58.8739988   3.3070012  87.3884997  59.4409988
   4.5150012  87.7994997  58.6269988   3.9696852  87.1878578  58.9182118
  12.6090012  79.3504997  60.2499988  12.8290012  79.8224997  59.4469988
  13.1670012  79.7454997  60.9199988  12.7144968  79.4684285  60.2307331
  10.2770012  91.4814997  59.1129988   9.4610012  91.9784997  59.1649988
  10.8070012  91.9564997  58.4729988  10.2369161  91.6137722  59.0335956
   9.8090012  81.0784997  61.0849988  10.6210012  81.5834997  61.1309988
   9.5640012  80.9334997  61.9989988   9.8870520  81.1280375  61.2148517
   7.6160012  92.5254997  59.0949988   7.7760012  93.3244997  58.5939988
   7.4180012  92.8314997  59.9799988   7.6111649  92.6764469  59.1459815
   6.3500012  79.2224997  58.7099988   6.2670012  80.1114997  59.0569988
   7.2400012  78.9574997  58.9419988   6.4589469  79.3081430  58.7887626
   4.6090012  89.6504997  57.7709988   5.2010012  90.3494997  58.0469988
   5.0680012  89.2174997  57.0509988   4.7521142  89.6877049  57.7114830
   2.9250012  82.3144997  56.8869988   2.8800012  83.2534997  57.0649988
   2.0370012  82.0784997  56.6169988   2.7988574  82.4111892  56.8748912
   2.6630012  91.0364997  61.7199988   1.8310012  91.5094997  61.7479988
   3.2090012  91.5464997  61.1219988   2.6229739  91.1701871  61.6429716
  10.6410012  92.0764997  56.0459988   9.9970012  91.4454997  56.3669988
  11.4030012  91.5454997  55.8139988  10.6558077  91.9182920  56.0586011
  15.2450012  91.8934997  56.2799988  15.5280012  91.0994997  56.7319988
  15.9850012  92.1264997  55.7189988  15.3837486  91.8162803  56.2660698
   6.2000012  87.8034997  56.1369988   6.2640012  87.0094997  56.6679988
   6.8530012  87.6844997  55.4469988   6.2970241  87.6787148  56.1164317
  11.5520012  88.8504997  55.8729988  11.2830012  89.0304997  56.7739988
  11.3460012  87.9244997  55.7419988  11.4873825  88.7500152  55.9785214
   8.4200012  84.0184997  56.7049988   8.2400012  83.8644997  55.7779988
   9.3700012  84.1264997  56.7499988   8.5237776  84.0120175  56.5841843
  17.8100012  86.3734997  56.1509988  17.5360012  85.9484997  55.3379988
  17.8490012  87.3044997  55.9339988  17.7777699  86.4412484  56.0103610
   8.3170012  94.7094997  57.7069988   9.2500012  94.8674997  57.8499988
   8.0530012  95.3844997  57.0819988   8.4089510  94.8223611  57.6420741
   1.8860012  89.3454997  57.1889988   2.8000012  89.4244997  57.4629988
   1.8930012  88.6584997  56.5229988   2.0121131  89.2633961  57.1364393
   0.5350012  94.7384997  62.2669988  -0.1119988  94.2764997  61.7339988
   0.8890012  94.0664997  62.8489988   0.4943849  94.5844723  62.2727959
  18.2680012  87.2424997  60.1259988  19.1180012  87.6634997  60.2529988
  18.2740012  86.5024997  60.7329988  18.3851372  87.2000803  60.2254344
  18.9310012  85.1964997  58.3409988  18.4090012  85.5534997  57.6219988
  18.8980012  85.8714997  59.0189988  18.8551634  85.3365413  58.3343145
  17.2800012  82.4364997  56.8919988  17.3760012  83.1034997  56.2109988
  17.1400012  81.6204997  56.4099988  17.2742135  82.4174500  56.7338491
  16.5270012  79.8444997  56.0089988  17.1380012  79.4734997  56.6459988
  15.6910012  79.4234997  56.2049988  16.4975032  79.7367554  56.1227035
  16.1600012  81.3994997  60.9749988  16.4400012  80.4924997  61.0989988
  16.9190012  81.8334997  60.5859988  16.3009277  81.3340942  60.9393682
  18.6400012  78.7294997  57.5509988  19.0520012  78.0084997  57.0759988
  19.3220012  79.3994997  57.6099988  18.7885885  78.7212368  57.4938915
   0.9210012  78.7344997  60.6779988  -0.0039988  78.9434997  60.5489988
   1.3750012  79.2184997  59.9889988   0.8557368  78.8285993  60.5671226
   2.1970012  76.7774997  58.6569988   2.6360012  77.3884997  58.0649988
   1.5640012  77.3154997  59.1309988   2.1714514  76.9339257  58.6400930
   2.0980012  92.7254997  59.5549988   1.4130012  92.6874997  58.8869988
   2.1020012  93.6384997  59.8429988   2.0048193  92.8437016  59.5025284
   4.0580012  78.6934997  57.0989988   4.5500012  78.0634997  56.5719988
   4.6820012  78.9894997  57.7629988   4.2095446  78.6473199  57.1165980
   9.0840012  78.9864997  59.5559988   9.2620012  78.3404997  60.2389988
   9.0310012  79.8204997  60.0239988   9.1011829  79.0107985  59.7125940
  10.9630012  93.9354997  57.9519988  11.8290012  94.3014997  57.7739988
  10.7160012  93.4954997  57.1379988  11.0482392  93.9261756  57.8176289
   3.9160012  93.6454997  56.5799988   3.6490012  93.9324997  57.4529988
   4.6880012  93.0994997  56.7319988   3.9837488  93.6110294  56.7201050
  30.0700012  83.8374997  57.3029988  30.7710012  83.8594997  57.9539988
  30.3730012  83.2094997  56.6469988  30.2067830  83.7556566  57.3033711
  33.4220012  85.5894997  61.2159988  32.6900012  85.8174997  61.7889988
  33.8700012  84.8754997  61.6709988  33.3823095  85.5242571  61.3559119
  32.2930012  84.7514997  58.9009988  32.8730012  84.9014997  59.6479988
  32.7070012  85.2224997  58.1779988  32.4282830  84.8356841  58.9054134
  30.0200012  91.4884997  62.3359988  30.4940012  91.7834997  63.1139988
  29.4570012  92.2264997  62.1029988  30.0087653  91.6286932  62.4110136
  35.9920012  76.5014997  58.7139988  35.0920012  76.6404997  59.0089988
  36.2440012  77.3324997  58.3119988  35.9028702  76.6329074  58.7000205
  24.0580012  85.2894997  60.6879988  23.7660012  86.0574997  60.1969988
  23.3840012  84.6294997  60.5249988  23.9269081  85.3054406  60.5987340
  37.1810012  90.8674997  57.0899988  37.2550012  91.8064997  57.2609988
  38.0870012  90.5624997  57.0339988  37.3135100  90.9546722  57.1058119
  32.5940012  93.5984997  57.7529988  32.9690012  92.8544997  57.2829988
  32.5980012  93.3284997  58.6719988  32.6458915  93.4601486  57.8127824
  32.2630012  93.5244997  60.5029988  31.3270012  93.6244997  60.6809988
  32.5430012  92.8154997  61.0809988  32.1728255  93.4422711  60.6055391
  33.7710012  85.7844997  56.5309988  33.8130012  85.5614997  55.6009988
  34.6200012  86.1834997  56.7209988  33.8915396  85.8079155  56.4293627
  29.3430012  79.6604997  57.2009988  29.0900012  79.6794997  58.1239988
  29.0870012  78.7884997  56.8999988  29.2737790  79.5452437  57.2866263
  30.6420012  83.0484997  61.3649988  30.2330012  83.8634997  61.0739988
  31.3630012  82.9084997  60.7509988  30.6834537  83.1412018  61.2421342
  26.2260012  80.1054997  56.3019988  25.7950012  79.6604997  57.0319988
  25.5080012  80.4774997  55.7899988  26.0699438  80.0948940  56.3326799
  20.7420012  80.5934997  58.7779988  21.2160012  81.1844997  58.1929988
  20.0250012  81.1244997  59.1249988  20.7099341  80.7460867  58.7448836
  24.8440012  82.8834997  57.6849988  24.3010012  82.5034997  56.9929988
  25.6770012  83.0774997  57.2559988  24.8824399  82.8578124  57.5324526
  32.0770012  80.2624997  57.8199988  31.1380012  80.3744997  57.6679988
  32.3740012  81.1194997  58.1259988  31.9887666  80.3936443  57.8405768
  32.7950012  82.1294997  59.4799988  33.6870012  81.9924997  59.7989988
  32.8520012  82.9204997  58.9439988  32.9246285  82.2176660  59.4511691
  30.3050012  88.9074997  58.6459988  30.0090012  89.7334997  59.0269988
  29.6020012  88.2874997  58.8419988  30.1694914  88.9368199  58.7246443
  35.9750012  91.1254997  59.6399988  35.6020012  90.2994997  59.9489988
  36.2530012  90.9424997  58.7429988  35.9615630  90.9877303  59.5609626
  21.4340012  85.1234997  57.3809988  22.0500012  85.7504997  57.7609988
  20.5720012  85.4394997  57.6529988  21.4017698  85.2519430  57.4697183
  33.3680012  89.1014997  57.4599988  33.7210012  88.7214997  58.2649988
  32.4190012  89.0084997  57.5469988  33.2880441  89.0369596  57.5818559
  37.8710012  93.5814997  57.6609988  38.6150012  94.1674997  57.5209988
  37.1770012  94.1494997  57.9949988  37.8790292  93.7385582  57.6869961
  34.2340012  87.7744997  59.6869988  33.9560012  87.0464997  60.2429988
  35.1610012  87.8934997  59.8919988  34.3213124  87.6908802  59.7908845
  27.4590012  90.2134997  55.9069988  27.6980012  89.4654997  55.3599988
  27.1900012  89.8254997  56.7399988  27.4553675  90.0586638  55.9446865
  26.3960012  89.7834997  58.3639988  26.5420012  89.2634997  59.1539988
  26.3930012  90.6904997  58.6699988  26.4155989  89.8348853  58.5136088
  22.8490012  87.0364997  58.8739988  22.1630012  87.3884997  59.4409988
  23.3710012  87.7994997  58.6269988  22.8256852  87.1878578  58.9182118
  29.1330012  91.4814997  59.1129988  28.3170012  91.9784997  59.1649988
  29.6630012  91.9564997  58.4729988  29.0929161  91.6137722  59.0335956
  28.6650012  81.0784997  61.0849988  29.4770012  81.5834997  61.1309988
  28.4200012  80.9334997  61.9989988  28.7430520  81.1280375  61.2148517
  26.4720012  92.5254997  59.0949988  26.6320012  93.3244997  58.5939988
  26.2740012  92.8314997  59.9799988  26.4671649  92.6764469  59.1459815
  25.2060012  79.2224997  58.7099988  25.1230012  80.1114997  59.0569988
  26.0960012  78.9574997  58.9419988  25.3149469  79.3081430  58.7887626
  23.4650012  89.6504997  57.7709988  24.0570012  90.3494997  58.0469988
  23.9240012  89.2174997  57.0509988  23.6081142  89.6877049  57.7114830
  21.7810012  82.3144997  56.8869988  21.7360012  83.2534997  57.0649988
  20.8930012  82.0784997  56.6169988  21.6548574  82.4111892  56.8748912
  29.4970012  92.0764997  56.0459988  28.8530012  91.4454997  56.3669988
  30.2590012  91.5454997  55.8139988  29.5118077  91.9182920  56.0586011
  34.1010012  91.8934997  56.2799988  34.3840012  91.0994997  56.7319988
  34.8410012  92.1264997  55.7189988  34.2397486  91.8162803  56.2660698
  25.0560012  87.8034997  56.1369988  25.1200012  87.0094997  56.6679988
  25.7090012  87.6844997  55.4469988  25.1530241  87.6787148  56.1164317
  30.4080012  88.8504997  55.8729988  30.1390012  89.0304997  56.7739988
  30.2020012  87.9244997  55.7419988  30.3433825  88.7500152  55.9785214
  26.2050012  85.7754997  58.4429988  25.7450012  85.2914997  59.1289988
  26.4600012  85.1074997  57.8069988  26.1764902  85.6188731  58.4509334
  27.2760012  84.0184997  56.7049988  27.0960012  83.8644997  55.7779988
  28.2260012  84.1264997  56.7499988  27.3797776  84.0120175  56.5841843
  36.6660012  86.3734997  56.1509988  36.3920012  85.9484997  55.3379988
  36.7050012  87.3044997  55.9339988  36.6337699  86.4412484  56.0103610
  27.1730012  94.7094997  57.7069988  28.1060012  94.8674997  57.8499988
  26.9090012  95.3844997  57.0819988  27.2649510  94.8223611  57.6420741
  20.7420012  89.3454997  57.1889988  21.6560012  89.4244997  57.4629988
  20.7490012  88.6584997  56.5229988  20.8681131  89.2633961  57.1364393
  37.1240012  87.2424997  60.1259988  37.9740012  87.6634997  60.2529988
  37.1300012  86.5024997  60.7329988  37.2411372  87.2000803  60.2254344
  37.7870012  85.1964997  58.3409988  37.2650012  85.5534997  57.6219988
  37.7540012  85.8714997  59.0189988  37.7111634  85.3365413  58.3343145
  36.1360012  82.4364997  56.8919988  36.2320012  83.1034997  56.2109988
  35.9960012  81.6204997  56.4099988  36.1302135  82.4174500  56.7338491
  35.3830012  79.8444997  56.0089988  35.9940012  79.4734997  56.6459988
  34.5470012  79.4234997  56.2049988  35.3535032  79.7367554  56.1227035
  37.4960012  78.7294997  57.5509988  37.9080012  78.0084997  57.0759988
  38.1780012  79.3994997  57.6099988  37.6445885  78.7212368  57.4938915
  19.7770012  78.7344997  60.6779988  18.8520012  78.9434997  60.5489988
  20.2310012  79.2184997  59.9889988  19.7117368  78.8285993  60.5671226
  21.0530012  76.7774997  58.6569988  21.4920012  77.3884997  58.0649988
  20.4200012  77.3154997  59.1309988  21.0274514  76.9339257  58.6400930
  20.9540012  92.7254997  59.5549988  20.2690012  92.6874997  58.8869988
  20.9580012  93.6384997  59.8429988  20.8608193  92.8437016  59.5025284
  22.9140012  78.6934997  57.0989988  23.4060012  78.0634997  56.5719988
  23.5380012  78.9894997  57.7629988  23.0655446  78.6473199  57.1165980
  27.9400012  78.9864997  59.5559988  28.1180012  78.3404997  60.2389988
  27.8870012  79.8204997  60.0239988  27.9571829  79.0107985  59.7125940
  29.8190012  93.9354997  57.9519988  30.6850012  94.3014997  57.7739988
  29.5720012  93.4954997  57.1379988  29.9042392  93.9261756  57.8176289
  22.7720012  93.6454997  56.5799988  22.5050012  93.9324997  57.4529988
  23.5440012  93.0994997  56.7319988  22.8397488  93.6110294  56.7201050
  48.9260012  83.8374997  57.3029988  49.6270012  83.8594997  57.9539988
  49.2290012  83.2094997  56.6469988  49.0627830  83.7556566  57.3033711
  51.1490012  84.7514997  58.9009988  51.7290012  84.9014997  59.6479988
  51.5630012  85.2224997  58.1779988  51.2842830  84.8356841  58.9054134
  42.9140012  85.2894997  60.6879988  42.6220012  86.0574997  60.1969988
  42.2400012  84.6294997  60.5249988  42.7829081  85.3054406  60.5987340
  56.0370012  90.8674997  57.0899988  56.1110012  91.8064997  57.2609988
  56.9430012  90.5624997  57.0339988  56.1695100  90.9546722  57.1058119
  51.4500012  93.5984997  57.7529988  51.8250012  92.8544997  57.2829988
  51.4540012  93.3284997  58.6719988  51.5018915  93.4601486  57.8127824
  52.6270012  85.7844997  56.5309988  52.6690012  85.5614997  55.6009988
  53.4760012  86.1834997  56.7209988  52.7475396  85.8079155  56.4293627
  48.1990012  79.6604997  57.2009988  47.9460012  79.6794997  58.1239988
  47.9430012  78.7884997  56.8999988  48.1297790  79.5452437  57.2866263
  45.0820012  80.1054997  56.3019988  44.6510012  79.6604997  57.0319988
  44.3640012  80.4774997  55.7899988  44.9259438  80.0948940  56.3326799
  39.5980012  80.5934997  58.7779988  40.0720012  81.1844997  58.1929988
  38.8810012  81.1244997  59.1249988  39.5659341  80.7460867  58.7448836
  43.7000012  82.8834997  57.6849988  43.1570012  82.5034997  56.9929988
  44.5330012  83.0774997  57.2559988  43.7384399  82.8578124  57.5324526
  47.0350012  87.4484997  59.6199988  46.2900012  86.9414997  59.2979988
  46.9010012  87.4974997  60.5669988  46.9148776  87.3856940  59.7038647
  50.9330012  80.2624997  57.8199988  49.9940012  80.3744997  57.6679988
  51.2300012  81.1194997  58.1259988  50.8447666  80.3936443  57.8405768
  51.6510012  82.1294997  59.4799988  52.5430012  81.9924997  59.7989988
  51.7080012  82.9204997  58.9439988  51.7806285  82.2176660  59.4511691
  49.1610012  88.9074997  58.6459988  48.8650012  89.7334997  59.0269988
  48.4580012  88.2874997  58.8419988  49.0254914  88.9368199  58.7246443
  54.8310012  91.1254997  59.6399988  54.4580012  90.2994997  59.9489988
  55.1090012  90.9424997  58.7429988  54.8175630  90.9877303  59.5609626
  40.2900012  85.1234997  57.3809988  40.9060012  85.7504997  57.7609988
  39.4280012  85.4394997  57.6529988  40.2577698  85.2519430  57.4697183
  52.2240012  89.1014997  57.4599988  52.5770012  88.7214997  58.2649988
  51.2750012  89.0084997  57.5469988  52.1440441  89.0369596  57.5818559
  56.7270012  93.5814997  57.6609988  57.4710012  94.1674997  57.5209988
  56.0330012  94.1494997  57.9949988  56.7350292  93.7385582  57.6869961
  53.0900012  87.7744997  59.6869988  52.8120012  87.0464997  60.2429988
  54.0170012  87.8934997  59.8919988  53.1773124  87.6908802  59.7908845
  46.3150012  90.2134997  55.9069988  46.5540012  89.4654997  55.3599988
  46.0460012  89.8254997  56.7399988  46.3113675  90.0586638  55.9446865
  45.2520012  89.7834997  58.3639988  45.3980012  89.2634997  59.1539988
  45.2490012  90.6904997  58.6699988  45.2715989  89.8348853  58.5136088
  41.7050012  87.0364997  58.8739988  41.0190012  87.3884997  59.4409988
  42.2270012  87.7994997  58.6269988  41.6816852  87.1878578  58.9182118
  50.3210012  79.3504997  60.2499988  50.5410012  79.8224997  59.4469988
  50.8790012  79.7454997  60.9199988  50.4264968  79.4684285  60.2307331
  47.9890012  91.4814997  59.1129988  47.1730012  91.9784997  59.1649988
  48.5190012  91.9564997  58.4729988  47.9489161  91.6137722  59.0335956
  45.3280012  92.5254997  59.0949988  45.4880012  93.3244997  58.5939988
  45.1300012  92.8314997  59.9799988  45.3231649  92.6764469  59.1459815
  42.3210012  89.6504997  57.7709988  42.9130012  90.3494997  58.0469988
  42.7800012  89.2174997  57.0509988  42.4641142  89.6877049  57.7114830
  40.6370012  82.3144997  56.8869988  40.5920012  83.2534997  57.0649988
  39.7490012  82.0784997  56.6169988  40.5108574  82.4111892  56.8748912
  48.3530012  92.0764997  56.0459988  47.7090012  91.4454997  56.3669988
  49.1150012  91.5454997  55.8139988  48.3678077  91.9182920  56.0586011
  52.9570012  91.8934997  56.2799988  53.2400012  91.0994997  56.7319988
  53.6970012  92.1264997  55.7189988  53.0957486  91.8162803  56.2660698
  43.9120012  87.8034997  56.1369988  43.9760012  87.0094997  56.6679988
  44.5650012  87.6844997  55.4469988  44.0090241  87.6787148  56.1164317
  49.2640012  88.8504997  55.8729988  48.9950012  89.0304997  56.7739988
  49.0580012  87.9244997  55.7419988  49.1993825  88.7500152  55.9785214
  45.0610012  85.7754997  58.4429988  44.6010012  85.2914997  59.1289988
  45.3160012  85.1074997  57.8069988  45.0324902  85.6188731  58.4509334
  46.1320012  84.0184997  56.7049988  45.9520012  83.8644997  55.7779988
  47.0820012  84.1264997  56.7499988  46.2357776  84.0120175  56.5841843
  46.0290012  94.7094997  57.7069988  46.9620012  94.8674997  57.8499988
  45.7650012  95.3844997  57.0819988  46.1209510  94.8223611  57.6420741
  39.5980012  89.3454997  57.1889988  40.5120012  89.4244997  57.4629988
  39.6050012  88.6584997  56.5229988  39.7241131  89.2633961  57.1364393
  55.9800012  87.2424997  60.1259988  56.8300012  87.6634997  60.2529988
  55.9860012  86.5024997  60.7329988  56.0971372  87.2000803  60.2254344
  56.3750012  85.2954997  61.9499988  55.6480012  84.8164997  62.3469988
  56.9560012  85.5014997  62.6819988  56.3539375  85.2577090  62.1034129
  53.8720012  81.3994997  60.9749988  54.1520012  80.4924997  61.0989988
  54.6310012  81.8334997  60.5859988  54.0129277  81.3340942  60.9393682
  39.9090012  76.7774997  58.6569988  40.3480012  77.3884997  58.0649988
  39.2760012  77.3154997  59.1309988  39.8834514  76.9339257  58.6400930
  39.8100012  92.7254997  59.5549988  39.1250012  92.6874997  58.8869988
  39.8140012  93.6384997  59.8429988  39.7168193  92.8437016  59.5025284
  41.7700012  78.6934997  57.0989988  42.2620012  78.0634997  56.5719988
  42.3940012  78.9894997  57.7629988  41.9215446  78.6473199  57.1165980
  48.6750012  93.9354997  57.9519988  49.5410012  94.3014997  57.7739988
  48.4280012  93.4954997  57.1379988  48.7602392  93.9261756  57.8176289
  55.3840012  93.4984997  60.6309988  55.1890012  92.7504997  60.0659988
  55.3450012  94.2564997  60.0479988  55.3520380  93.4986099  60.4748384
  41.6280012  93.6454997  56.5799988  41.3610012  93.9324997  57.4529988
  42.4000012  93.0994997  56.7319988  41.6957488  93.6110294  56.7201050
  73.7040012  76.5014997  58.7139988  72.8040012  76.6404997  59.0089988
  73.9560012  77.3324997  58.3119988  73.6148702  76.6329074  58.7000205
  61.7700012  85.2894997  60.6879988  61.4780012  86.0574997  60.1969988
  61.0960012  84.6294997  60.5249988  61.6389081  85.3054406  60.5987340
  70.3060012  93.5984997  57.7529988  70.6810012  92.8544997  57.2829988
  70.3100012  93.3284997  58.6719988  70.3578915  93.4601486  57.8127824
  69.9750012  93.5244997  60.5029988  69.0390012  93.6244997  60.6809988
  70.2550012  92.8154997  61.0809988  69.8848255  93.4422711  60.6055391
  75.5830012  93.5814997  57.6609988  76.3270012  94.1674997  57.5209988
  74.8890012  94.1494997  57.9949988  75.5910292  93.7385582  57.6869961
  65.1710012  90.2134997  55.9069988  65.4100012  89.4654997  55.3599988
  64.9020012  89.8254997  56.7399988  65.1673675  90.0586638  55.9446865
  64.1080012  89.7834997  58.3639988  64.2540012  89.2634997  59.1539988
  64.1050012  90.6904997  58.6699988  64.1275989  89.8348853  58.5136088
  60.5610012  87.0364997  58.8739988  59.8750012  87.3884997  59.4409988
  61.0830012  87.7994997  58.6269988  60.5376852  87.1878578  58.9182118
  66.8450012  91.4814997  59.1129988  66.0290012  91.9784997  59.1649988
  67.3750012  91.9564997  58.4729988  66.8049161  91.6137722  59.0335956
  64.1840012  92.5254997  59.0949988  64.3440012  93.3244997  58.5939988
  63.9860012  92.8314997  59.9799988  64.1791649  92.6764469  59.1459815
  61.1770012  89.6504997  57.7709988  61.7690012  90.3494997  58.0469988
  61.6360012  89.2174997  57.0509988  61.3201142  89.6877049  57.7114830
  67.2090012  92.0764997  56.0459988  66.5650012  91.4454997  56.3669988
  67.9710012  91.5454997  55.8139988  67.2238077  91.9182920  56.0586011
  62.7680012  87.8034997  56.1369988  62.8320012  87.0094997  56.6679988
  63.4210012  87.6844997  55.4469988  62.8650241  87.6787148  56.1164317
  64.8850012  94.7094997  57.7069988  65.8180012  94.8674997  57.8499988
  64.6210012  95.3844997  57.0819988  64.9769510  94.8223611  57.6420741
  58.4540012  89.3454997  57.1889988  59.3680012  89.4244997  57.4629988
  58.4610012  88.6584997  56.5229988  58.5801131  89.2633961  57.1364393
  57.1030012  94.7384997  62.2669988  56.4560012  94.2764997  61.7339988
  57.4570012  94.0664997  62.8489988  57.0623849  94.5844723  62.2727959
  73.0950012  79.8444997  56.0089988  73.7060012  79.4734997  56.6459988
  72.2590012  79.4234997  56.2049988  73.0655032  79.7367554  56.1227035
  71.4180012  76.9624997  60.0079988  70.7160012  77.5774997  59.7989988
  70.9740012  76.1244997  60.1389988  71.2616330  76.9335783  59.9970328
  58.6660012  92.7254997  59.5549988  57.9810012  92.6874997  58.8869988
  58.6700012  93.6384997  59.8429988  58.5728193  92.8437016  59.5025284
  67.5310012  93.9354997  57.9519988  68.3970012  94.3014997  57.7739988
  67.2840012  93.4954997  57.1379988  67.6162392  93.9261756  57.8176289
  60.4840012  93.6454997  56.5799988  60.2170012  93.9324997  57.4529988
  61.2560012  93.0994997  56.7319988  60.5517488  93.6110294  56.7201050
  86.6380012  83.8374997  57.3029988  87.3390012  83.8594997  57.9539988
  86.9410012  83.2094997  56.6469988  86.7747830  83.7556566  57.3033711
  88.8610012  84.7514997  58.9009988  89.4410012  84.9014997  59.6479988
  89.2750012  85.2224997  58.1779988  88.9962830  84.8356841  58.9054134
  92.5600012  76.5014997  58.7139988  91.6600012  76.6404997  59.0089988
  92.8120012  77.3324997  58.3119988  92.4708702  76.6329074  58.7000205
  93.7490012  90.8674997  57.0899988  93.8230012  91.8064997  57.2609988
  94.6550012  90.5624997  57.0339988  93.8815100  90.9546722  57.1058119
  86.0600012  94.4444997  60.7509988  85.9850012  94.3234997  59.8049988
  86.0930012  95.3944997  60.8699988  86.0541848  94.5562500  60.6374834
  89.1620012  93.5984997  57.7529988  89.5370012  92.8544997  57.2829988
  89.1660012  93.3284997  58.6719988  89.2138915  93.4601486  57.8127824
  90.3390012  85.7844997  56.5309988  90.3810012  85.5614997  55.6009988
  91.1880012  86.1834997  56.7209988  90.4595396  85.8079155  56.4293627
  82.7940012  80.1054997  56.3019988  82.3630012  79.6604997  57.0319988
  82.0760012  80.4774997  55.7899988  82.6379438  80.0948940  56.3326799
  84.7470012  87.4484997  59.6199988  84.0020012  86.9414997  59.2979988
  84.6130012  87.4974997  60.5669988  84.6268776  87.3856940  59.7038647
  88.6450012  80.2624997  57.8199988  87.7060012  80.3744997  57.6679988
  88.9420012  81.1194997  58.1259988  88.5567666  80.3936443  57.8405768
  89.3630012  82.1294997  59.4799988  90.2550012  81.9924997  59.7989988
  89.4200012  82.9204997  58.9439988  89.4926285  82.2176660  59.4511691
  86.8730012  88.9074997  58.6459988  86.5770012  89.7334997  59.0269988
  86.1700012  88.2874997  58.8419988  86.7374914  88.9368199  58.7246443
  94.2480012  82.3394997  59.1749988  93.6940012  81.9434997  58.5029988
  94.3480012  83.2494997  58.8969988  94.1857059  82.4083586  59.0454401
  83.6740012  87.9244997  62.3709988  83.4330012  88.8494997  62.4119988
  82.9330012  87.4654997  62.7669988  83.5408409  87.9891421  62.4301377
  89.9360012  89.1014997  57.4599988  90.2890012  88.7214997  58.2649988
  88.9870012  89.0084997  57.5469988  89.8560441  89.0369596  57.5818559
  94.4390012  93.5814997  57.6609988  95.1830012  94.1674997  57.5209988
  93.7450012  94.1494997  57.9949988  94.4470292  93.7385582  57.6869961
  90.8020012  87.7744997  59.6869988  90.5240012  87.0464997  60.2429988
  91.7290012  87.8934997  59.8919988  90.8893124  87.6908802  59.7908845
  84.0270012  90.2134997  55.9069988  84.2660012  89.4654997  55.3599988
  83.7580012  89.8254997  56.7399988  84.0233675  90.0586638  55.9446865
  82.9640012  89.7834997  58.3639988  83.1100012  89.2634997  59.1539988
  82.9610012  90.6904997  58.6699988  82.9835989  89.8348853  58.5136088
  85.7010012  91.4814997  59.1129988  84.8850012  91.9784997  59.1649988
  86.2310012  91.9564997  58.4729988  85.6609161  91.6137722  59.0335956
  83.0400012  92.5254997  59.0949988  83.2000012  93.3244997  58.5939988
  82.8420012  92.8314997  59.9799988  83.0351649  92.6764469  59.1459815
  86.0650012  92.0764997  56.0459988  85.4210012  91.4454997  56.3669988
  86.8270012  91.5454997  55.8139988  86.0798077  91.9182920  56.0586011
  90.6690012  91.8934997  56.2799988  90.9520012  91.0994997  56.7319988
  91.4090012  92.1264997  55.7189988  90.8077486  91.8162803  56.2660698
  81.6240012  87.8034997  56.1369988  81.6880012  87.0094997  56.6679988
  82.2770012  87.6844997  55.4469988  81.7210241  87.6787148  56.1164317
  86.9760012  88.8504997  55.8729988  86.7070012  89.0304997  56.7739988
  86.7700012  87.9244997  55.7419988  86.9113825  88.7500152  55.9785214
  83.8440012  84.0184997  56.7049988  83.6640012  83.8644997  55.7779988
  84.7940012  84.1264997  56.7499988  83.9477776  84.0120175  56.5841843
  93.2340012  86.3734997  56.1509988  92.9600012  85.9484997  55.3379988
  93.2730012  87.3044997  55.9339988  93.2017699  86.4412484  56.0103610
  83.7410012  94.7094997  57.7069988  84.6740012  94.8674997  57.8499988
  83.4770012  95.3844997  57.0819988  83.8329510  94.8223611  57.6420741
  93.6920012  87.2424997  60.1259988  94.5420012  87.6634997  60.2529988
  93.6980012  86.5024997  60.7329988  93.8091372  87.2000803  60.2254344
  94.0870012  85.2954997  61.9499988  93.3600012  84.8164997  62.3469988
  94.6680012  85.5014997  62.6819988  94.0659375  85.2577090  62.1034129
  94.3550012  85.1964997  58.3409988  93.8330012  85.5534997  57.6219988
  94.3220012  85.8714997  59.0189988  94.2791634  85.3365413  58.3343145
  92.7040012  82.4364997  56.8919988  92.8000012  83.1034997  56.2109988
  92.5640012  81.6204997  56.4099988  92.6982135  82.4174500  56.7338491
  91.9510012  79.8444997  56.0089988  92.5620012  79.4734997  56.6459988
  91.1150012  79.4234997  56.2049988  91.9215032  79.7367554  56.1227035
  92.1970012  78.6624997  61.0229988  92.3800012  78.2134997  61.8489988
  91.5980012  78.0774997  60.5599988  92.1410202  78.5219975  61.0733275
  94.0640012  78.7294997  57.5509988  94.4760012  78.0084997  57.0759988
  94.7460012  79.3994997  57.6099988  94.2125885  78.7212368  57.4938915
  86.3870012  93.9354997  57.9519988  87.2530012  94.3014997  57.7739988
  86.1400012  93.4954997  57.1379988  86.4722392  93.9261756  57.8176289
  93.0960012  93.4984997  60.6309988  92.9010012  92.7504997  60.0659988
  93.0570012  94.2564997  60.0479988  93.0640380  93.4986099  60.4748384
  79.3400012  93.6454997  56.5799988  79.0730012  93.9324997  57.4529988
  80.1120012  93.0994997  56.7319988  79.4077488  93.6110294  56.7201050
 106.5170012  88.7364997  61.8549988 106.2210012  88.4144997  61.0039988
 106.1920012  89.6364997  61.8959988 106.4326371  88.8140215  61.7441801
 105.4940012  83.8374997  57.3029988 106.1950012  83.8594997  57.9539988
 105.7970012  83.2094997  56.6469988 105.6307830  83.7556566  57.3033711
 108.8460012  85.5894997  61.2159988 108.1140012  85.8174997  61.7889988
 109.2940012  84.8754997  61.6709988 108.8063095  85.5242571  61.3559119
 107.7170012  84.7514997  58.9009988 108.2970012  84.9014997  59.6479988
 108.1310012  85.2224997  58.1779988 107.8522830  84.8356841  58.9054134
 111.4160012  76.5014997  58.7139988 110.5160012  76.6404997  59.0089988
 111.6680012  77.3324997  58.3119988 111.3268702  76.6329074  58.7000205
  99.4820012  85.2894997  60.6879988  99.1900012  86.0574997  60.1969988
  98.8080012  84.6294997  60.5249988  99.3509081  85.3054406  60.5987340
 112.6050012  90.8674997  57.0899988 112.6790012  91.8064997  57.2609988
 113.5110012  90.5624997  57.0339988 112.7375100  90.9546722  57.1058119
 108.0180012  93.5984997  57.7529988 108.3930012  92.8544997  57.2829988
 108.0220012  93.3284997  58.6719988 108.0698915  93.4601486  57.8127824
 109.1950012  85.7844997  56.5309988 109.2370012  85.5614997  55.6009988
 110.0440012  86.1834997  56.7209988 109.3155396  85.8079155  56.4293627
 104.7670012  79.6604997  57.2009988 104.5140012  79.6794997  58.1239988
 104.5110012  78.7884997  56.8999988 104.6977790  79.5452437  57.2866263
 101.6500012  80.1054997  56.3019988 101.2190012  79.6604997  57.0319988
 100.9320012  80.4774997  55.7899988 101.4939438  80.0948940  56.3326799
  96.1660012  80.5934997  58.7779988  96.6400012  81.1844997  58.1929988
  95.4490012  81.1244997  59.1249988  96.1339341  80.7460867  58.7448836
 100.2680012  82.8834997  57.6849988  99.7250012  82.5034997  56.9929988
 101.1010012  83.0774997  57.2559988 100.3064399  82.8578124  57.5324526
 103.6030012  87.4484997  59.6199988 102.8580012  86.9414997  59.2979988
 103.4690012  87.4974997  60.5669988 103.4828776  87.3856940  59.7038647
 107.5010012  80.2624997  57.8199988 106.5620012  80.3744997  57.6679988
 107.7980012  81.1194997  58.1259988 107.4127666  80.3936443  57.8405768
 108.2190012  82.1294997  59.4799988 109.1110012  81.9924997  59.7989988
 108.2760012  82.9204997  58.9439988 108.3486285  82.2176660  59.4511691
 105.7290012  88.9074997  58.6459988 105.4330012  89.7334997  59.0269988
 105.0260012  88.2874997  58.8419988 105.5934914  88.9368199  58.7246443
 113.1040012  82.3394997  59.1749988 112.5500012  81.9434997  58.5029988
 113.2040012  83.2494997  58.8969988 113.0417059  82.4083586  59.0454401
 111.3990012  91.1254997  59.6399988 111.0260012  90.2994997  59.9489988
 111.6770012  90.9424997  58.7429988 111.3855630  90.9877303  59.5609626
  96.8580012  85.1234997  57.3809988  97.4740012  85.7504997  57.7609988
  95.9960012  85.4394997  57.6529988  96.8257698  85.2519430  57.4697183
 102.5300012  87.9244997  62.3709988 102.2890012  88.8494997  62.4119988
 101.7890012  87.4654997  62.7669988 102.3968409  87.9891421  62.4301377
 108.7920012  89.1014997  57.4599988 109.1450012  88.7214997  58.2649988
 107.8430012  89.0084997  57.5469988 108.7120441  89.0369596  57.5818559
 113.2950012  93.5814997  57.6609988 114.0390012  94.1674997  57.5209988
 112.6010012  94.1494997  57.9949988 113.3030292  93.7385582  57.6869961
 109.6580012  87.7744997  59.6869988 109.3800012  87.0464997  60.2429988
 110.5850012  87.8934997  59.8919988 109.7453124  87.6908802  59.7908845
 102.8830012  90.2134997  55.9069988 103.1220012  89.4654997  55.3599988
 102.6140012  89.8254997  56.7399988 102.8793675  90.0586638  55.9446865
 101.8200012  89.7834997  58.3639988 101.9660012  89.2634997  59.1539988
 101.8170012  90.6904997  58.6699988 101.8395989  89.8348853  58.5136088
  98.2730012  87.0364997  58.8739988  97.5870012  87.3884997  59.4409988
  98.7950012  87.7994997  58.6269988  98.2496852  87.1878578  58.9182118
 106.8890012  79.3504997  60.2499988 107.1090012  79.8224997  59.4469988
 107.4470012  79.7454997  60.9199988 106.9944968  79.4684285  60.2307331
 101.8960012  92.5254997  59.0949988 102.0560012  93.3244997  58.5939988
 101.6980012  92.8314997  59.9799988 101.8911649  92.6764469  59.1459815
 100.6300012  79.2224997  58.7099988 100.5470012  80.1114997  59.0569988
 101.5200012  78.9574997  58.9419988 100.7389469  79.3081430  58.7887626
  98.8890012  89.6504997  57.7709988  99.4810012  90.3494997  58.0469988
  99.3480012  89.2174997  57.0509988  99.0321142  89.6877049  57.7114830
  97.2050012  82.3144997  56.8869988  97.1600012  83.2534997  57.0649988
  96.3170012  82.0784997  56.6169988  97.0788574  82.4111892  56.8748912
 104.9210012  92.0764997  56.0459988 104.2770012  91.4454997  56.3669988
 105.6830012  91.5454997  55.8139988 104.9358077  91.9182920  56.0586011
 109.5250012  91.8934997  56.2799988 109.8080012  91.0994997  56.7319988
 110.2650012  92.1264997  55.7189988 109.6637486  91.8162803  56.2660698
 100.4800012  87.8034997  56.1369988 100.5440012  87.0094997  56.6679988
 101.1330012  87.6844997  55.4469988 100.5770241  87.6787148  56.1164317
 105.8320012  88.8504997  55.8729988 105.5630012  89.0304997  56.7739988
 105.6260012  87.9244997  55.7419988 105.7673825  88.7500152  55.9785214
 101.6290012  85.7754997  58.4429988 101.1690012  85.2914997  59.1289988
 101.8840012  85.1074997  57.8069988 101.6004902  85.6188731  58.4509334
 102.7000012  84.0184997  56.7049988 102.5200012  83.8644997  55.7779988
 103.6500012  84.1264997  56.7499988 102.8037776  84.0120175  56.5841843
 112.0900012  86.3734997  56.1509988 111.8160012  85.9484997  55.3379988
 112.1290012  87.3044997  55.9339988 112.0577699  86.4412484  56.0103610
 102.5970012  94.7094997  57.7069988 103.5300012  94.8674997  57.8499988
 102.3330012  95.3844997  57.0819988 102.6889510  94.8223611  57.6420741
  96.1660012  89.3454997  57.1889988  97.0800012  89.4244997  57.4629988
  96.1730012  88.6584997  56.5229988  96.2921131  89.2633961  57.1364393
 112.5480012  87.2424997  60.1259988 113.3980012  87.6634997  60.2529988
 112.5540012  86.5024997  60.7329988 112.6651372  87.2000803  60.2254344
 113.2110012  85.1964997  58.3409988 112.6890012  85.5534997  57.6219988
 113.1780012  85.8714997  59.0189988 113.1351634  85.3365413  58.3343145
 111.5600012  82.4364997  56.8919988 111.6560012  83.1034997  56.2109988
 111.4200012  81.6204997  56.4099988 111.5542135  82.4174500  56.7338491
 110.8070012  79.8444997  56.0089988 111.4180012  79.4734997  56.6459988
 109.9710012  79.4234997  56.2049988 110.7775032  79.7367554  56.1227035
 111.0530012  78.6624997  61.0229988 111.2360012  78.2134997  61.8489988
 110.4540012  78.0774997  60.5599988 110.9970202  78.5219975  61.0733275
 112.9200012  78.7294997  57.5509988 113.3320012  78.0084997  57.0759988
 113.6020012  79.3994997  57.6099988 113.0685885  78.7212368  57.4938915
  96.4770012  76.7774997  58.6569988  96.9160012  77.3884997  58.0649988
  95.8440012  77.3154997  59.1309988  96.4514514  76.9339257  58.6400930
 109.1300012  76.9624997  60.0079988 108.4280012  77.5774997  59.7989988
 108.6860012  76.1244997  60.1389988 108.9736330  76.9335783  59.9970328
  98.3380012  78.6934997  57.0989988  98.8300012  78.0634997  56.5719988
  98.9620012  78.9894997  57.7629988  98.4895446  78.6473199  57.1165980
 103.3640012  78.9864997  59.5559988 103.5420012  78.3404997  60.2389988
 103.3110012  79.8204997  60.0239988 103.3811829  79.0107985  59.7125940
 105.2430012  93.9354997  57.9519988 106.1090012  94.3014997  57.7739988
 104.9960012  93.4954997  57.1379988 105.3282392  93.9261756  57.8176289
  98.1960012  93.6454997  56.5799988  97.9290012  93.9324997  57.4529988
  98.9680012  93.0994997  56.7319988  98.2637488  93.6110294  56.7201050
 115.1010012  88.5474997  60.1679988 114.8290012  88.7764997  59.2789988
 115.1470012  89.3854997  60.6279988 115.0700094  88.6921213  60.1085697
 124.2970012  85.3794997  60.2639988 123.5850012  85.9144997  59.9119988
 124.9880012  85.4354997  59.6039988 124.2930132  85.4602543  60.1266289
 124.3500012  83.8374997  57.3029988 125.0510012  83.8594997  57.9539988
 124.6530012  83.2094997  56.6469988 124.4867830  83.7556566  57.3033711
 126.5730012  84.7514997  58.9009988 127.1530012  84.9014997  59.6479988
 126.9870012  85.2224997  58.1779988 126.7082830  84.8356841  58.9054134
 130.2720012  76.5014997  58.7139988 129.3720012  76.6404997  59.0089988
 130.5240012  77.3324997  58.3119988 130.1828702  76.6329074  58.7000205
 131.4610012  90.8674997  57.0899988 131.5350012  91.8064997  57.2609988
 132.3670012  90.5624997  57.0339988 131.5935100  90.9546722  57.1058119
 123.7720012  94.4444997  60.7509988 123.6970012  94.3234997  59.8049988
 123.8050012  95.3944997  60.8699988 123.7661848  94.5562500  60.6374834
 126.8740012  93.5984997  57.7529988 127.2490012  92.8544997  57.2829988
 126.8780012  93.3284997  58.6719988 126.9258915  93.4601486  57.8127824
 126.5430012  93.5244997  60.5029988 125.6070012  93.6244997  60.6809988
 126.8230012  92.8154997  61.0809988 126.4528255  93.4422711  60.6055391
 128.0510012  85.7844997  56.5309988 128.0930012  85.5614997  55.6009988
 128.9000012  86.1834997  56.7209988 128.1715396  85.8079155  56.4293627
 123.6230012  79.6604997  57.2009988 123.3700012  79.6794997  58.1239988
 123.3670012  78.7884997  56.8999988 123.5537790  79.5452437  57.2866263
 120.5060012  80.1054997  56.3019988 120.0750012  79.6604997  57.0319988
 119.7880012  80.4774997  55.7899988 120.3499438  80.0948940  56.3326799
 115.0220012  80.5934997  58.7779988 115.4960012  81.1844997  58.1929988
 114.3050012  81.1244997  59.1249988 114.9899341  80.7460867  58.7448836
 120.4500012  81.6884997  60.1179988 121.3810012  81.8174997  60.2959988
 120.2350012  82.3584997  59.4679988 120.5484247  81.7966565  60.0545747
 119.1240012  82.8834997  57.6849988 118.5810012  82.5034997  56.9929988
 119.9570012  83.0774997  57.2559988 119.1624399  82.8578124  57.5324526
 122.4590012  87.4484997  59.6199988 121.7140012  86.9414997  59.2979988
 122.3250012  87.4974997  60.5669988 122.3388776  87.3856940  59.7038647
 126.3570012  80.2624997  57.8199988 125.4180012  80.3744997  57.6679988
 126.6540012  81.1194997  58.1259988 126.2687666  80.3936443  57.8405768
 127.0750012  82.1294997  59.4799988 127.9670012  81.9924997  59.7989988
 127.1320012  82.9204997  58.9439988 127.2046285  82.2176660  59.4511691
 124.5850012  88.9074997  58.6459988 124.2890012  89.7334997  59.0269988
 123.8820012  88.2874997  58.8419988 124.4494914  88.9368199  58.7246443
 131.9600012  82.3394997  59.1749988 131.4060012  81.9434997  58.5029988
 132.0600012  83.2494997  58.8969988 131.8977059  82.4083586  59.0454401
 130.2550012  91.1254997  59.6399988 129.8820012  90.2994997  59.9489988
 130.5330012  90.9424997  58.7429988 130.2415630  90.9877303  59.5609626
 115.7140012  85.1234997  57.3809988 116.3300012  85.7504997  57.7609988
 114.8520012  85.4394997  57.6529988 115.6817698  85.2519430  57.4697183
 127.6480012  89.1014997  57.4599988 128.0010012  88.7214997  58.2649988
 126.6990012  89.0084997  57.5469988 127.5680441  89.0369596  57.5818559
 132.1510012  93.5814997  57.6609988 132.8950012  94.1674997  57.5209988
 131.4570012  94.1494997  57.9949988 132.1590292  93.7385582  57.6869961
 128.5140012  87.7744997  59.6869988 128.2360012  87.0464997  60.2429988
 129.4410012  87.8934997  59.8919988 128.6013124  87.6908802  59.7908845
 121.7390012  90.2134997  55.9069988 121.9780012  89.4654997  55.3599988
 121.4700012  89.8254997  56.7399988 121.7353675  90.0586638  55.9446865
 120.6760012  89.7834997  58.3639988 120.8220012  89.2634997  59.1539988
 120.6730012  90.6904997  58.6699988 120.6955989  89.8348853  58.5136088
 117.1290012  87.0364997  58.8739988 116.4430012  87.3884997  59.4409988
 117.6510012  87.7994997  58.6269988 117.1056852  87.1878578  58.9182118
 125.7450012  79.3504997  60.2499988 125.9650012  79.8224997  59.4469988
 126.3030012  79.7454997  60.9199988 125.8504968  79.4684285  60.2307331
 123.4130012  91.4814997  59.1129988 122.5970012  91.9784997  59.1649988
 123.9430012  91.9564997  58.4729988 123.3729161  91.6137722  59.0335956
 122.9450012  81.0784997  61.0849988 123.7570012  81.5834997  61.1309988
 122.7000012  80.9334997  61.9989988 123.0230520  81.1280375  61.2148517
 120.7520012  92.5254997  59.0949988 120.9120012  93.3244997  58.5939988
 120.5540012  92.8314997  59.9799988 120.7471649  92.6764469  59.1459815
 119.4860012  79.2224997  58.7099988 119.4030012  80.1114997  59.0569988
 120.3760012  78.9574997  58.9419988 119.5949469  79.3081430  58.7887626
 117.7450012  89.6504997  57.7709988 118.3370012  90.3494997  58.0469988
 118.2040012  89.2174997  57.0509988 117.8881142  89.6877049  57.7114830
 116.0610012  82.3144997  56.8869988 116.0160012  83.2534997  57.0649988
 115.1730012  82.0784997  56.6169988 115.9348574  82.4111892  56.8748912
 115.7990012  91.0364997  61.7199988 114.9670012  91.5094997  61.7479988
 116.3450012  91.5464997  61.1219988 115.7589739  91.1701871  61.6429716
 123.7770012  92.0764997  56.0459988 123.1330012  91.4454997  56.3669988
 124.5390012  91.5454997  55.8139988 123.7918077  91.9182920  56.0586011
 128.3810012  91.8934997  56.2799988 128.6640012  91.0994997  56.7319988
 129.1210012  92.1264997  55.7189988 128.5197486  91.8162803  56.2660698
 119.3360012  87.8034997  56.1369988 119.4000012  87.0094997  56.6679988
 119.9890012  87.6844997  55.4469988 119.4330241  87.6787148  56.1164317
 124.6880012  88.8504997  55.8729988 124.4190012  89.0304997  56.7739988
 124.4820012  87.9244997  55.7419988 124.6233825  88.7500152  55.9785214
 120.4850012  85.7754997  58.4429988 120.0250012  85.2914997  59.1289988
 120.7400012  85.1074997  57.8069988 120.4564902  85.6188731  58.4509334
 121.5560012  84.0184997  56.7049988 121.3760012  83.8644997  55.7779988
 122.5060012  84.1264997  56.7499988 121.6597776  84.0120175  56.5841843
 130.9460012  86.3734997  56.1509988 130.6720012  85.9484997  55.3379988
 130.9850012  87.3044997  55.9339988 130.9137699  86.4412484  56.0103610
 121.4530012  94.7094997  57.7069988 122.3860012  94.8674997  57.8499988
 121.1890012  95.3844997  57.0819988 121.5449510  94.8223611  57.6420741
 115.0220012  89.3454997  57.1889988 115.9360012  89.4244997  57.4629988
 115.0290012  88.6584997  56.5229988 115.1481131  89.2633961  57.1364393
 113.6710012  94.7384997  62.2669988 113.0240012  94.2764997  61.7339988
 114.0250012  94.0664997  62.8489988 113.6303849  94.5844723  62.2727959
 132.0670012  85.1964997  58.3409988 131.5450012  85.5534997  57.6219988
 132.0340012  85.8714997  59.0189988 131.9911634  85.3365413  58.3343145
 130.4160012  82.4364997  56.8919988 130.5120012  83.1034997  56.2109988
 130.2760012  81.6204997  56.4099988 130.4102135  82.4174500  56.7338491
 129.6630012  79.8444997  56.0089988 130.2740012  79.4734997  56.6459988
 128.8270012  79.4234997  56.2049988 129.6335032  79.7367554  56.1227035
 129.9090012  78.6624997  61.0229988 130.0920012  78.2134997  61.8489988
 129.3100012  78.0774997  60.5599988 129.8530202  78.5219975  61.0733275
 131.7760012  78.7294997  57.5509988 132.1880012  78.0084997  57.0759988
 132.4580012  79.3994997  57.6099988 131.9245885  78.7212368  57.4938915
 115.3330012  76.7774997  58.6569988 115.7720012  77.3884997  58.0649988
 114.7000012  77.3154997  59.1309988 115.3074514  76.9339257  58.6400930
 127.9860012  76.9624997  60.0079988 127.2840012  77.5774997  59.7989988
 127.5420012  76.1244997  60.1389988 127.8296330  76.9335783  59.9970328
 115.2340012  92.7254997  59.5549988 114.5490012  92.6874997  58.8869988
 115.2380012  93.6384997  59.8429988 115.1408193  92.8437016  59.5025284
 117.1940012  78.6934997  57.0989988 117.6860012  78.0634997  56.5719988
 117.8180012  78.9894997  57.7629988 117.3455446  78.6473199  57.1165980
 122.2200012  78.9864997  59.5559988 122.3980012  78.3404997  60.2389988
 122.1670012  79.8204997  60.0239988 122.2371829  79.0107985  59.7125940
 124.0990012  93.9354997  57.9519988 124.9650012  94.3014997  57.7739988
 123.8520012  93.4954997  57.1379988 124.1842392  93.9261756  57.8176289
 117.0520012  93.6454997  56.5799988 116.7850012  93.9324997  57.4529988
 117.8240012  93.0994997  56.7319988 117.1197488  93.6110294  56.7201050
 143.1530012  85.3794997  60.2639988 142.4410012  85.9144997  59.9119988
 143.8440012  85.4354997  59.6039988 143.1490132  85.4602543  60.1266289
 143.2060012  83.8374997  57.3029988 143.9070012  83.8594997  57.9539988
 143.5090012  83.2094997  56.6469988 143.3427830  83.7556566  57.3033711
 137.1940012  85.2894997  60.6879988 136.9020012  86.0574997  60.1969988
 136.5200012  84.6294997  60.5249988 137.0629081  85.3054406  60.5987340
 142.4790012  79.6604997  57.2009988 142.2260012  79.6794997  58.1239988
 142.2230012  78.7884997  56.8999988 142.4097790  79.5452437  57.2866263
 139.3620012  80.1054997  56.3019988 138.9310012  79.6604997  57.0319988
 138.6440012  80.4774997  55.7899988 139.2059438  80.0948940  56.3326799
 133.8780012  80.5934997  58.7779988 134.3520012  81.1844997  58.1929988
 133.1610012  81.1244997  59.1249988 133.8459341  80.7460867  58.7448836
 139.3060012  81.6884997  60.1179988 140.2370012  81.8174997  60.2959988
 139.0910012  82.3584997  59.4679988 139.4044247  81.7966565  60.0545747
 137.9800012  82.8834997  57.6849988 137.4370012  82.5034997  56.9929988
 138.8130012  83.0774997  57.2559988 138.0184399  82.8578124  57.5324526
 141.3150012  87.4484997  59.6199988 140.5700012  86.9414997  59.2979988
 141.1810012  87.4974997  60.5669988 141.1948776  87.3856940  59.7038647
 143.4410012  88.9074997  58.6459988 143.1450012  89.7334997  59.0269988
 142.7380012  88.2874997  58.8419988 143.3054914  88.9368199  58.7246443
 134.5700012  85.1234997  57.3809988 135.1860012  85.7504997  57.7609988
 133.7080012  85.4394997  57.6529988 134.5377698  85.2519430  57.4697183
 138.9250012  92.9464997  61.9159988 137.9750012  93.0514997  61.9669988
 139.2770012  93.7664997  62.2609988 138.8424203  93.0718314  61.9696650
 140.5950012  90.2134997  55.9069988 140.8340012  89.4654997  55.3599988
 140.3260012  89.8254997  56.7399988 140.5913675  90.0586638  55.9446865
 139.5320012  89.7834997  58.3639988 139.6780012  89.2634997  59.1539988
 139.5290012  90.6904997  58.6699988 139.5515989  89.8348853  58.5136088
 135.9850012  87.0364997  58.8739988 135.2990012  87.3884997  59.4409988
 136.5070012  87.7994997  58.6269988 135.9616852  87.1878578  58.9182118
 144.6010012  79.3504997  60.2499988 144.8210012  79.8224997  59.4469988
 145.1590012  79.7454997  60.9199988 144.7064968  79.4684285  60.2307331
 142.6840012  78.1594997  62.0229988 142.3380012  78.7774997  62.6679988
 143.3430012  78.6604997  61.5419988 142.7257826  78.3115802  62.0460971
 139.6080012  92.5254997  59.0949988 139.7680012  93.3244997  58.5939988
 139.4100012  92.8314997  59.9799988 139.6031649  92.6764469  59.1459815
 138.3420012  79.2224997  58.7099988 138.2590012  80.1114997  59.0569988
 139.2320012  78.9574997  58.9419988 138.4509469  79.3081430  58.7887626
 136.6010012  89.6504997  57.7709988 137.1930012  90.3494997  58.0469988
 137.0600012  89.2174997  57.0509988 136.7441142  89.6877049  57.7114830
 134.9170012  82.3144997  56.8869988 134.8720012  83.2534997  57.0649988
 134.0290012  82.0784997  56.6169988 134.7908574  82.4111892  56.8748912
 134.6550012  91.0364997  61.7199988 133.8230012  91.5094997  61.7479988
 135.2010012  91.5464997  61.1219988 134.6149739  91.1701871  61.6429716
 142.6330012  92.0764997  56.0459988 141.9890012  91.4454997  56.3669988
 143.3950012  91.5454997  55.8139988 142.6478077  91.9182920  56.0586011
 138.1920012  87.8034997  56.1369988 138.2560012  87.0094997  56.6679988
 138.8450012  87.6844997  55.4469988 138.2890241  87.6787148  56.1164317
 143.5440012  88.8504997  55.8729988 143.2750012  89.0304997  56.7739988
 143.3380012  87.9244997  55.7419988 143.4793825  88.7500152  55.9785214
 139.3410012  85.7754997  58.4429988 138.8810012  85.2914997  59.1289988
 139.5960012  85.1074997  57.8069988 139.3124902  85.6188731  58.4509334
 140.4120012  84.0184997  56.7049988 140.2320012  83.8644997  55.7779988
 141.3620012  84.1264997  56.7499988 140.5157776  84.0120175  56.5841843
 140.3090012  94.7094997  57.7069988 141.2420012  94.8674997  57.8499988
 140.0450012  95.3844997  57.0819988 140.4009510  94.8223611  57.6420741
 133.8780012  89.3454997  57.1889988 134.7920012  89.4244997  57.4629988
 133.8850012  88.6584997  56.5229988 134.0041131  89.2633961  57.1364393
 134.0900012  92.7254997  59.5549988 133.4050012  92.6874997  58.8869988
 134.0940012  93.6384997  59.8429988 133.9968193  92.8437016  59.5025284
 136.0500012  78.6934997  57.0989988 136.5420012  78.0634997  56.5719988
 136.6740012  78.9894997  57.7629988 136.2015446  78.6473199  57.1165980
 141.0760012  78.9864997  59.5559988 141.2540012  78.3404997  60.2389988
 141.0230012  79.8204997  60.0239988 141.0931829  79.0107985  59.7125940
 142.9550012  93.9354997  57.9519988 143.8210012  94.3014997  57.7739988
 142.7080012  93.4954997  57.1379988 143.0402392  93.9261756  57.8176289
 135.9080012  93.6454997  56.5799988 135.6410012  93.9324997  57.4529988
 136.6800012  93.0994997  56.7319988 135.9757488  93.6110294  56.7201050
   1.2740012 101.9714997  61.7519988   0.8270012 102.8174997  61.7329988
   0.7130012 101.3914997  61.2359988   1.1369900 102.0089916  61.6796801
   1.9650012 107.4034997  60.1679988   1.6930012 107.6324997  59.2789988
   2.0110012 108.2414997  60.6279988   1.9340094 107.5481213  60.1085697
  15.0020012 108.7074997  62.0139988  14.7440012 108.0174997  61.4029988
  15.0730012 108.2644997  62.8599988  14.9762856 108.5532124  62.0446885
  11.2140012 102.6934997  57.3029988  11.9150012 102.7154997  57.9539988
  11.5170012 102.0654997  56.6469988  11.3507830 102.6116566  57.3033711
  17.1360012  95.3574997  58.7139988  16.2360012  95.4964997  59.0089988
  17.3880012  96.1884997  58.3119988  17.0468702  95.4889074  58.7000205
   5.2020012 104.1454997  60.6879988   4.9100012 104.9134997  60.1969988
   4.5280012 103.4854997  60.5249988   5.0709081 104.1614406  60.5987340
  18.3250012 109.7234997  57.0899988  18.3990012 110.6624997  57.2609988
  19.2310012 109.4184997  57.0339988  18.4575100 109.8106722  57.1058119
  13.7380012 112.4544997  57.7529988  14.1130012 111.7104997  57.2829988
  13.7420012 112.1844997  58.6719988  13.7898915 112.3161486  57.8127824
  14.9150012 104.6404997  56.5309988  14.9570012 104.4174997  55.6009988
  15.7640012 105.0394997  56.7209988  15.0355396 104.6639155  56.4293627
  10.4870012  98.5164997  57.2009988  10.2340012  98.5354997  58.1239988
  10.2310012  97.6444997  56.8999988  10.4177790  98.4012437  57.2866263
   7.3700012  98.9614997  56.3019988   6.9390012  98.5164997  57.0319988
   6.6520012  99.3334997  55.7899988   7.2139438  98.9508940  56.3326799
   1.8860012  99.4494997  58.7779988   2.3600012 100.0404997  58.1929988
   1.1690012  99.9804997  59.1249988   1.8539341  99.6020867  58.7448836
   7.3140012 100.5444997  60.1179988   8.2450012 100.6734997  60.2959988
   7.0990012 101.2144997  59.4679988   7.4124247 100.6526565  60.0545747
   5.9880012 101.7394997  57.6849988   5.4450012 101.3594997  56.9929988
   6.8210012 101.9334997  57.2559988   6.0264399 101.7138124  57.5324526
  13.2210012  99.1184997  57.8199988  12.2820012  99.2304997  57.6679988
  13.5180012  99.9754997  58.1259988  13.1327666  99.2496443  57.8405768
  13.9390012 100.9854997  59.4799988  14.8310012 100.8484997  59.7989988
  13.9960012 101.7764997  58.9439988  14.0686285 101.0736660  59.4511691
  11.4490012 107.7634997  58.6459988  11.1530012 108.5894997  59.0269988
  10.7460012 107.1434997  58.8419988  11.3134914 107.7928199  58.7246443
  18.8240012 101.1954997  59.1749988  18.2700012 100.7994997  58.5029988
  18.9240012 102.1054997  58.8969988  18.7617059 101.2643586  59.0454401
   2.5780012 103.9794997  57.3809988   3.1940012 104.6064997  57.7609988
   1.7160012 104.2954997  57.6529988   2.5457698 104.1079430  57.4697183
   6.9330012 111.8024997  61.9159988   5.9830012 111.9074997  61.9669988
   7.2850012 112.6224997  62.2609988   6.8504203 111.9278314  61.9696650
  14.5120012 107.9574997  57.4599988  14.8650012 107.5774997  58.2649988
  13.5630012 107.8644997  57.5469988  14.4320441 107.8929596  57.5818559
  19.0150012 112.4374997  57.6609988  19.7590012 113.0234997  57.5209988
  18.3210012 113.0054997  57.9949988  19.0230292 112.5945582  57.6869961
  15.3780012 106.6304997  59.6869988  15.1000012 105.9024997  60.2429988
  16.3050012 106.7494997  59.8919988  15.4653124 106.5468802  59.7908845
   8.6030012 109.0694997  55.9069988   8.8420012 108.3214997  55.3599988
   8.3340012 108.6814997  56.7399988   8.5993675 108.9146638  55.9446865
   7.5400012 108.6394997  58.3639988   7.6860012 108.1194997  59.1539988
   7.5370012 109.5464997  58.6699988   7.5595989 108.6908853  58.5136088
   3.9930012 105.8924997  58.8739988   3.3070012 106.2444997  59.4409988
   4.5150012 106.6554997  58.6269988   3.9696852 106.0438578  58.9182118
  12.6090012  98.2064997  60.2499988  12.8290012  98.6784997  59.4469988
  13.1670012  98.6014997  60.9199988  12.7144968  98.3244285  60.2307331
  10.2770012 110.3374997  59.1129988   9.4610012 110.8344997  59.1649988
  10.8070012 110.8124997  58.4729988  10.2369161 110.4697722  59.0335956
  10.6920012  97.0154997  62.0229988  10.3460012  97.6334997  62.6679988
  11.3510012  97.5164997  61.5419988  10.7337826  97.1675802  62.0460971
   7.6160012 111.3814997  59.0949988   7.7760012 112.1804997  58.5939988
   7.4180012 111.6874997  59.9799988   7.6111649 111.5324469  59.1459815
   6.3500012  98.0784997  58.7099988   6.2670012  98.9674997  59.0569988
   7.2400012  97.8134997  58.9419988   6.4589469  98.1641430  58.7887626
   4.6090012 108.5064997  57.7709988   5.2010012 109.2054997  58.0469988
   5.0680012 108.0734997  57.0509988   4.7521142 108.5437049  57.7114830
   2.9250012 101.1704997  56.8869988   2.8800012 102.1094997  57.0649988
   2.0370012 100.9344997  56.6169988   2.7988574 101.2671892  56.8748912
   2.6630012 109.8924997  61.7199988   1.8310012 110.3654997  61.7479988
   3.2090012 110.4024997  61.1219988   2.6229739 110.0261871  61.6429716
  10.6410012 110.9324997  56.0459988   9.9970012 110.3014997  56.3669988
  11.4030012 110.4014997  55.8139988  10.6558077 110.7742920  56.0586011
  15.2450012 110.7494997  56.2799988  15.5280012 109.9554997  56.7319988
  15.9850012 110.9824997  55.7189988  15.3837486 110.6722803  56.2660698
   6.2000012 106.6594997  56.1369988   6.2640012 105.8654997  56.6679988
   6.8530012 106.5404997  55.4469988   6.2970241 106.5347148  56.1164317
  11.5520012 107.7064997  55.8729988  11.2830012 107.8864997  56.7739988
  11.3460012 106.7804997  55.7419988  11.4873825 107.6060152  55.9785214
   7.3490012 104.6314997  58.4429988   6.8890012 104.1474997  59.1289988
   7.6040012 103.9634997  57.8069988   7.3204902 104.4748731  58.4509334
   8.4200012 102.8744997  56.7049988   8.2400012 102.7204997  55.7779988
   9.3700012 102.9824997  56.7499988   8.5237776 102.8680175  56.5841843
  17.8100012 105.2294997  56.1509988  17.5360012 104.8044997  55.3379988
  17.8490012 106.1604997  55.9339988  17.7777699 105.2972484  56.0103610
   8.3170012 113.5654997  57.7069988   9.2500012 113.7234997  57.8499988
   8.0530012 114.2404997  57.0819988   8.4089510 113.6783611  57.6420741
   1.8860012 108.2014997  57.1889988   2.8000012 108.2804997  57.4629988
   1.8930012 107.5144997  56.5229988   2.0121131 108.1193961  57.1364393
  18.9310012 104.0524997  58.3409988  18.4090012 104.4094997  57.6219988
  18.8980012 104.7274997  59.0189988  18.8551634 104.1925413  58.3343145
  17.2800012 101.2924997  56.8919988  17.3760012 101.9594997  56.2109988
  17.1400012 100.4764997  56.4099988  17.2742135 101.2734500  56.7338491
  16.5270012  98.7004997  56.0089988  17.1380012  98.3294997  56.6459988
  15.6910012  98.2794997  56.2049988  16.4975032  98.5927554  56.1227035
  16.1600012 100.2554997  60.9749988  16.4400012  99.3484997  61.0989988
  16.9190012 100.6894997  60.5859988  16.3009277 100.1900942  60.9393682
  16.7730012  97.5184997  61.0229988  16.9560012  97.0694997  61.8489988
  16.1740012  96.9334997  60.5599988  16.7170202  97.3779975  61.0733275
  18.6400012  97.5854997  57.5509988  19.0520012  96.8644997  57.0759988
  19.3220012  98.2554997  57.6099988  18.7885885  97.5772368  57.4938915
   2.1970012  95.6334997  58.6569988   2.6360012  96.2444997  58.0649988
   1.5640012  96.1714997  59.1309988   2.1714514  95.7899257  58.6400930
   2.0980012 111.5814997  59.5549988   1.4130012 111.5434997  58.8869988
   2.1020012 112.4944997  59.8429988   2.0048193 111.6997016  59.5025284
   4.0580012  97.5494997  57.0989988   4.5500012  96.9194997  56.5719988
   4.6820012  97.8454997  57.7629988   4.2095446  97.5033199  57.1165980
   9.0840012  97.8424997  59.5559988   9.2620012  97.1964997  60.2389988
   9.0310012  98.6764997  60.0239988   9.1011829  97.8667985  59.7125940
  10.9630012 112.7914997  57.9519988  11.8290012 113.1574997  57.7739988
  10.7160012 112.3514997  57.1379988  11.0482392 112.7821756  57.8176289
   3.9160012 112.5014997  56.5799988   3.6490012 112.7884997  57.4529988
   4.6880012 111.9554997  56.7319988   3.9837488 112.4670294  56.7201050
  30.0700012 102.6934997  57.3029988  30.7710012 102.7154997  57.9539988
  30.3730012 102.0654997  56.6469988  30.2067830 102.6116566  57.3033711
  32.2930012 103.6074997  58.9009988  32.8730012 103.7574997  59.6479988
  32.7070012 104.0784997  58.1779988  32.4282830 103.6916841  58.9054134
  30.0200012 110.3444997  62.3359988  30.4940012 110.6394997  63.1139988
  29.4570012 111.0824997  62.1029988  30.0087653 110.4846932  62.4110136
  35.9920012  95.3574997  58.7139988  35.0920012  95.4964997  59.0089988
  36.2440012  96.1884997  58.3119988  35.9028702  95.4889074  58.7000205
  37.1810012 109.7234997  57.0899988  37.2550012 110.6624997  57.2609988
  38.0870012 109.4184997  57.0339988  37.3135100 109.8106722  57.1058119
  29.4920012 113.3004997  60.7509988  29.4170012 113.1794997  59.8049988
  29.5250012 114.2504997  60.8699988  29.4861848 113.4122500  60.6374834
  32.5940012 112.4544997  57.7529988  32.9690012 111.7104997  57.2829988
  32.5980012 112.1844997  58.6719988  32.6458915 112.3161486  57.8127824
  32.2630012 112.3804997  60.5029988  31.3270012 112.4804997  60.6809988
  32.5430012 111.6714997  61.0809988  32.1728255 112.2982711  60.6055391
  33.7710012 104.6404997  56.5309988  33.8130012 104.4174997  55.6009988
  34.6200012 105.0394997  56.7209988  33.8915396 104.6639155  56.4293627
  29.3430012  98.5164997  57.2009988  29.0900012  98.5354997  58.1239988
  29.0870012  97.6444997  56.8999988  29.2737790  98.4012437  57.2866263
  26.2260012  98.9614997  56.3019988  25.7950012  98.5164997  57.0319988
  25.5080012  99.3334997  55.7899988  26.0699438  98.9508940  56.3326799
  20.7420012  99.4494997  58.7779988  21.2160012 100.0404997  58.1929988
  20.0250012  99.9804997  59.1249988  20.7099341  99.6020867  58.7448836
  26.1700012 100.5444997  60.1179988  27.1010012 100.6734997  60.2959988
  25.9550012 101.2144997  59.4679988  26.2684247 100.6526565  60.0545747
  24.8440012 101.7394997  57.6849988  24.3010012 101.3594997  56.9929988
  25.6770012 101.9334997  57.2559988  24.8824399 101.7138124  57.5324526
  32.0770012  99.1184997  57.8199988  31.1380012  99.2304997  57.6679988
  32.3740012  99.9754997  58.1259988  31.9887666  99.2496443  57.8405768
  30.3050012 107.7634997  58.6459988  30.0090012 108.5894997  59.0269988
  29.6020012 107.1434997  58.8419988  30.1694914 107.7928199  58.7246443
  35.9750012 109.9814997  59.6399988  35.6020012 109.1554997  59.9489988
  36.2530012 109.7984997  58.7429988  35.9615630 109.8437303  59.5609626
  21.4340012 103.9794997  57.3809988  22.0500012 104.6064997  57.7609988
  20.5720012 104.2954997  57.6529988  21.4017698 104.1079430  57.4697183
  33.3680012 107.9574997  57.4599988  33.7210012 107.5774997  58.2649988
  32.4190012 107.8644997  57.5469988  33.2880441 107.8929596  57.5818559
  37.8710012 112.4374997  57.6609988  38.6150012 113.0234997  57.5209988
  37.1770012 113.0054997  57.9949988  37.8790292 112.5945582  57.6869961
  34.2340012 106.6304997  59.6869988  33.9560012 105.9024997  60.2429988
  35.1610012 106.7494997  59.8919988  34.3213124 106.5468802  59.7908845
  27.4590012 109.0694997  55.9069988  27.6980012 108.3214997  55.3599988
  27.1900012 108.6814997  56.7399988  27.4553675 108.9146638  55.9446865
  26.3960012 108.6394997  58.3639988  26.5420012 108.1194997  59.1539988
  26.3930012 109.5464997  58.6699988  26.4155989 108.6908853  58.5136088
  22.8490012 105.8924997  58.8739988  22.1630012 106.2444997  59.4409988
  23.3710012 106.6554997  58.6269988  22.8256852 106.0438578  58.9182118
  29.1330012 110.3374997  59.1129988  28.3170012 110.8344997  59.1649988
  29.6630012 110.8124997  58.4729988  29.0929161 110.4697722  59.0335956
  26.4720012 111.3814997  59.0949988  26.6320012 112.1804997  58.5939988
  26.2740012 111.6874997  59.9799988  26.4671649 111.5324469  59.1459815
  25.2060012  98.0784997  58.7099988  25.1230012  98.9674997  59.0569988
  26.0960012  97.8134997  58.9419988  25.3149469  98.1641430  58.7887626
  23.4650012 108.5064997  57.7709988  24.0570012 109.2054997  58.0469988
  23.9240012 108.0734997  57.0509988  23.6081142 108.5437049  57.7114830
  21.7810012 101.1704997  56.8869988  21.7360012 102.1094997  57.0649988
  20.8930012 100.9344997  56.6169988  21.6548574 101.2671892  56.8748912
  29.4970012 110.9324997  56.0459988  28.8530012 110.3014997  56.3669988
  30.2590012 110.4014997  55.8139988  29.5118077 110.7742920  56.0586011
  34.1010012 110.7494997  56.2799988  34.3840012 109.9554997  56.7319988
  34.8410012 110.9824997  55.7189988  34.2397486 110.6722803  56.2660698
  25.0560012 106.6594997  56.1369988  25.1200012 105.8654997  56.6679988
  25.7090012 106.5404997  55.4469988  25.1530241 106.5347148  56.1164317
  30.4080012 107.7064997  55.8729988  30.1390012 107.8864997  56.7739988
  30.2020012 106.7804997  55.7419988  30.3433825 107.6060152  55.9785214
  26.2050012 104.6314997  58.4429988  25.7450012 104.1474997  59.1289988
  26.4600012 103.9634997  57.8069988  26.1764902 104.4748731  58.4509334
  27.2760012 102.8744997  56.7049988  27.0960012 102.7204997  55.7779988
  28.2260012 102.9824997  56.7499988  27.3797776 102.8680175  56.5841843
  36.6660012 105.2294997  56.1509988  36.3920012 104.8044997  55.3379988
  36.7050012 106.1604997  55.9339988  36.6337699 105.2972484  56.0103610
  27.1730012 113.5654997  57.7069988  28.1060012 113.7234997  57.8499988
  26.9090012 114.2404997  57.0819988  27.2649510 113.6783611  57.6420741
  20.7420012 108.2014997  57.1889988  21.6560012 108.2804997  57.4629988
  20.7490012 107.5144997  56.5229988  20.8681131 108.1193961  57.1364393
  19.3910012 113.5944997  62.2669988  18.7440012 113.1324997  61.7339988
  19.7450012 112.9224997  62.8489988  19.3503849 113.4404723  62.2727959
  37.1240012 106.0984997  60.1259988  37.9740012 106.5194997  60.2529988
  37.1300012 105.3584997  60.7329988  37.2411372 106.0560803  60.2254344
  37.7870012 104.0524997  58.3409988  37.2650012 104.4094997  57.6219988
  37.7540012 104.7274997  59.0189988  37.7111634 104.1925413  58.3343145
  36.1360012 101.2924997  56.8919988  36.2320012 101.9594997  56.2109988
  35.9960012 100.4764997  56.4099988  36.1302135 101.2734500  56.7338491
  35.3830012  98.7004997  56.0089988  35.9940012  98.3294997  56.6459988
  34.5470012  98.2794997  56.2049988  35.3535032  98.5927554  56.1227035
  35.6290012  97.5184997  61.0229988  35.8120012  97.0694997  61.8489988
  35.0300012  96.9334997  60.5599988  35.5730202  97.3779975  61.0733275
  37.4960012  97.5854997  57.5509988  37.9080012  96.8644997  57.0759988
  38.1780012  98.2554997  57.6099988  37.6445885  97.5772368  57.4938915
  21.0530012  95.6334997  58.6569988  21.4920012  96.2444997  58.0649988
  20.4200012  96.1714997  59.1309988  21.0274514  95.7899257  58.6400930
  33.7060012  95.8184997  60.0079988  33.0040012  96.4334997  59.7989988
  33.2620012  94.9804997  60.1389988  33.5496330  95.7895783  59.9970328
  20.9540012 111.5814997  59.5549988  20.2690012 111.5434997  58.8869988
  20.9580012 112.4944997  59.8429988  20.8608193 111.6997016  59.5025284
  22.9140012  97.5494997  57.0989988  23.4060012  96.9194997  56.5719988
  23.5380012  97.8454997  57.7629988  23.0655446  97.5033199  57.1165980
  29.8190012 112.7914997  57.9519988  30.6850012 113.1574997  57.7739988
  29.5720012 112.3514997  57.1379988  29.9042392 112.7821756  57.8176289
  22.7720012 112.5014997  56.5799988  22.5050012 112.7884997  57.4529988
  23.5440012 111.9554997  56.7319988  22.8397488 112.4670294  56.7201050
  38.9860012 101.9714997  61.7519988  38.5390012 102.8174997  61.7329988
  38.4250012 101.3914997  61.2359988  38.8489900 102.0089916  61.6796801
  49.9490012 107.5924997  61.8549988  49.6530012 107.2704997  61.0039988
  49.6240012 108.4924997  61.8959988  49.8646371 107.6700215  61.7441801
  52.7140012 108.7074997  62.0139988  52.4560012 108.0174997  61.4029988
  52.7850012 108.2644997  62.8599988  52.6882856 108.5532124  62.0446885
  48.9260012 102.6934997  57.3029988  49.6270012 102.7154997  57.9539988
  49.2290012 102.0654997  56.6469988  49.0627830 102.6116566  57.3033711
  54.8480012  95.3574997  58.7139988  53.9480012  95.4964997  59.0089988
  55.1000012  96.1884997  58.3119988  54.7588702  95.4889074  58.7000205
  42.9140012 104.1454997  60.6879988  42.6220012 104.9134997  60.1969988
  42.2400012 103.4854997  60.5249988  42.7829081 104.1614406  60.5987340
  56.0370012 109.7234997  57.0899988  56.1110012 110.6624997  57.2609988
  56.9430012 109.4184997  57.0339988  56.1695100 109.8106722  57.1058119
  51.4500012 112.4544997  57.7529988  51.8250012 111.7104997  57.2829988
  51.4540012 112.1844997  58.6719988  51.5018915 112.3161486  57.8127824
  52.6270012 104.6404997  56.5309988  52.6690012 104.4174997  55.6009988
  53.4760012 105.0394997  56.7209988  52.7475396 104.6639155  56.4293627
  48.1990012  98.5164997  57.2009988  47.9460012  98.5354997  58.1239988
  47.9430012  97.6444997  56.8999988  48.1297790  98.4012437  57.2866263
  45.0820012  98.9614997  56.3019988  44.6510012  98.5164997  57.0319988
  44.3640012  99.3334997  55.7899988  44.9259438  98.9508940  56.3326799
  39.5980012  99.4494997  58.7779988  40.0720012 100.0404997  58.1929988
  38.8810012  99.9804997  59.1249988  39.5659341  99.6020867  58.7448836
  45.0260012 100.5444997  60.1179988  45.9570012 100.6734997  60.2959988
  44.8110012 101.2144997  59.4679988  45.1244247 100.6526565  60.0545747
  43.7000012 101.7394997  57.6849988  43.1570012 101.3594997  56.9929988
  44.5330012 101.9334997  57.2559988  43.7384399 101.7138124  57.5324526
  47.0350012 106.3044997  59.6199988  46.2900012 105.7974997  59.2979988
  46.9010012 106.3534997  60.5669988  46.9148776 106.2416940  59.7038647
  50.9330012  99.1184997  57.8199988  49.9940012  99.2304997  57.6679988
  51.2300012  99.9754997  58.1259988  50.8447666  99.2496443  57.8405768
  49.1610012 107.7634997  58.6459988  48.8650012 108.5894997  59.0269988
  48.4580012 107.1434997  58.8419988  49.0254914 107.7928199  58.7246443
  56.5360012 101.1954997  59.1749988  55.9820012 100.7994997  58.5029988
  56.6360012 102.1054997  58.8969988  56.4737059 101.2643586  59.0454401
  54.8310012 109.9814997  59.6399988  54.4580012 109.1554997  59.9489988
  55.1090012 109.7984997  58.7429988  54.8175630 109.8437303  59.5609626
  40.2900012 103.9794997  57.3809988  40.9060012 104.6064997  57.7609988
  39.4280012 104.2954997  57.6529988  40.2577698 104.1079430  57.4697183
  52.2240012 107.9574997  57.4599988  52.5770012 107.5774997  58.2649988
  51.2750012 107.8644997  57.5469988  52.1440441 107.8929596  57.5818559
  56.7270012 112.4374997  57.6609988  57.4710012 113.0234997  57.5209988
  56.0330012 113.0054997  57.9949988  56.7350292 112.5945582  57.6869961
  53.0900012 106.6304997  59.6869988  52.8120012 105.9024997  60.2429988
  54.0170012 106.7494997  59.8919988  53.1773124 106.5468802  59.7908845
  46.3150012 109.0694997  55.9069988  46.5540012 108.3214997  55.3599988
  46.0460012 108.6814997  56.7399988  46.3113675 108.9146638  55.9446865
  45.2520012 108.6394997  58.3639988  45.3980012 108.1194997  59.1539988
  45.2490012 109.5464997  58.6699988  45.2715989 108.6908853  58.5136088
  41.7050012 105.8924997  58.8739988  41.0190012 106.2444997  59.4409988
  42.2270012 106.6554997  58.6269988  41.6816852 106.0438578  58.9182118
  50.3210012  98.2064997  60.2499988  50.5410012  98.6784997  59.4469988
  50.8790012  98.6014997  60.9199988  50.4264968  98.3244285  60.2307331
  47.9890012 110.3374997  59.1129988  47.1730012 110.8344997  59.1649988
  48.5190012 110.8124997  58.4729988  47.9489161 110.4697722  59.0335956
  47.5210012  99.9344997  61.0849988  48.3330012 100.4394997  61.1309988
  47.2760012  99.7894997  61.9989988  47.5990520  99.9840375  61.2148517
  48.4040012  97.0154997  62.0229988  48.0580012  97.6334997  62.6679988
  49.0630012  97.5164997  61.5419988  48.4457826  97.1675802  62.0460971
  45.3280012 111.3814997  59.0949988  45.4880012 112.1804997  58.5939988
  45.1300012 111.6874997  59.9799988  45.3231649 111.5324469  59.1459815
  44.0620012  98.0784997  58.7099988  43.9790012  98.9674997  59.0569988
  44.9520012  97.8134997  58.9419988  44.1709469  98.1641430  58.7887626
  42.3210012 108.5064997  57.7709988  42.9130012 109.2054997  58.0469988
  42.7800012 108.0734997  57.0509988  42.4641142 108.5437049  57.7114830
  40.6370012 101.1704997  56.8869988  40.5920012 102.1094997  57.0649988
  39.7490012 100.9344997  56.6169988  40.5108574 101.2671892  56.8748912
  48.3530012 110.9324997  56.0459988  47.7090012 110.3014997  56.3669988
  49.1150012 110.4014997  55.8139988  48.3678077 110.7742920  56.0586011
  52.9570012 110.7494997  56.2799988  53.2400012 109.9554997  56.7319988
  53.6970012 110.9824997  55.7189988  53.0957486 110.6722803  56.2660698
  43.9120012 106.6594997  56.1369988  43.9760012 105.8654997  56.6679988
  44.5650012 106.5404997  55.4469988  44.0090241 106.5347148  56.1164317
  49.2640012 107.7064997  55.8729988  48.9950012 107.8864997  56.7739988
  49.0580012 106.7804997  55.7419988  49.1993825 107.6060152  55.9785214
  45.0610012 104.6314997  58.4429988  44.6010012 104.1474997  59.1289988
  45.3160012 103.9634997  57.8069988  45.0324902 104.4748731  58.4509334
  46.1320012 102.8744997  56.7049988  45.9520012 102.7204997  55.7779988
  47.0820012 102.9824997  56.7499988  46.2357776 102.8680175  56.5841843
  55.5220012 105.2294997  56.1509988  55.2480012 104.8044997  55.3379988
  55.5610012 106.1604997  55.9339988  55.4897699 105.2972484  56.0103610
  46.0290012 113.5654997  57.7069988  46.9620012 113.7234997  57.8499988
  45.7650012 114.2404997  57.0819988  46.1209510 113.6783611  57.6420741
  39.5980012 108.2014997  57.1889988  40.5120012 108.2804997  57.4629988
  39.6050012 107.5144997  56.5229988  39.7241131 108.1193961  57.1364393
  56.6430012 104.0524997  58.3409988  56.1210012 104.4094997  57.6219988
  56.6100012 104.7274997  59.0189988  56.5671634 104.1925413  58.3343145
  54.9920012 101.2924997  56.8919988  55.0880012 101.9594997  56.2109988
  54.8520012 100.4764997  56.4099988  54.9862135 101.2734500  56.7338491
  54.2390012  98.7004997  56.0089988  54.8500012  98.3294997  56.6459988
  53.4030012  98.2794997  56.2049988  54.2095032  98.5927554  56.1227035
  53.8720012 100.2554997  60.9749988  54.1520012  99.3484997  61.0989988
  54.6310012 100.6894997  60.5859988  54.0129277 100.1900942  60.9393682
  54.4850012  97.5184997  61.0229988  54.6680012  97.0694997  61.8489988
  53.8860012  96.9334997  60.5599988  54.4290202  97.3779975  61.0733275
  56.3520012  97.5854997  57.5509988  56.7640012  96.8644997  57.0759988
  57.0340012  98.2554997  57.6099988  56.5005885  97.5772368  57.4938915
  38.6330012  97.5904997  60.6779988  37.7080012  97.7994997  60.5489988
  39.0870012  98.0744997  59.9889988  38.5677368  97.6845993  60.5671226
  39.9090012  95.6334997  58.6569988  40.3480012  96.2444997  58.0649988
  39.2760012  96.1714997  59.1309988  39.8834514  95.7899257  58.6400930
  39.8100012 111.5814997  59.5549988  39.1250012 111.5434997  58.8869988
  39.8140012 112.4944997  59.8429988  39.7168193 111.6997016  59.5025284
  41.7700012  97.5494997  57.0989988  42.2620012  96.9194997  56.5719988
  42.3940012  97.8454997  57.7629988  41.9215446  97.5033199  57.1165980
  46.7960012  97.8424997  59.5559988  46.9740012  97.1964997  60.2389988
  46.7430012  98.6764997  60.0239988  46.8131829  97.8667985  59.7125940
  48.6750012 112.7914997  57.9519988  49.5410012 113.1574997  57.7739988
  48.4280012 112.3514997  57.1379988  48.7602392 112.7821756  57.8176289
  55.3840012 112.3544997  60.6309988  55.1890012 111.6064997  60.0659988
  55.3450012 113.1124997  60.0479988  55.3520380 112.3546099  60.4748384
  41.6280012 112.5014997  56.5799988  41.3610012 112.7884997  57.4529988
  42.4000012 111.9554997  56.7319988  41.6957488 112.4670294  56.7201050
  67.7290012 104.2354997  60.2639988  67.0170012 104.7704997  59.9119988
  68.4200012 104.2914997  59.6039988  67.7250132 104.3162543  60.1266289
  67.7820012 102.6934997  57.3029988  68.4830012 102.7154997  57.9539988
  68.0850012 102.0654997  56.6469988  67.9187830 102.6116566  57.3033711
  70.0050012 103.6074997  58.9009988  70.5850012 103.7574997  59.6479988
  70.4190012 104.0784997  58.1779988  70.1402830 103.6916841  58.9054134
  73.7040012  95.3574997  58.7139988  72.8040012  95.4964997  59.0089988
  73.9560012  96.1884997  58.3119988  73.6148702  95.4889074  58.7000205
  61.7700012 104.1454997  60.6879988  61.4780012 104.9134997  60.1969988
  61.0960012 103.4854997  60.5249988  61.6389081 104.1614406  60.5987340
  74.8930012 109.7234997  57.0899988  74.9670012 110.6624997  57.2609988
  75.7990012 109.4184997  57.0339988  75.0255100 109.8106722  57.1058119
  70.3060012 112.4544997  57.7529988  70.6810012 111.7104997  57.2829988
  70.3100012 112.1844997  58.6719988  70.3578915 112.3161486  57.8127824
  69.9750012 112.3804997  60.5029988  69.0390012 112.4804997  60.6809988
  70.2550012 111.6714997  61.0809988  69.8848255 112.2982711  60.6055391
  71.4830012 104.6404997  56.5309988  71.5250012 104.4174997  55.6009988
  72.3320012 105.0394997  56.7209988  71.6035396 104.6639155  56.4293627
  67.0550012  98.5164997  57.2009988  66.8020012  98.5354997  58.1239988
  66.7990012  97.6444997  56.8999988  66.9857790  98.4012437  57.2866263
  63.9380012  98.9614997  56.3019988  63.5070012  98.5164997  57.0319988
  63.2200012  99.3334997  55.7899988  63.7819438  98.9508940  56.3326799
  58.4540012  99.4494997  58.7779988  58.9280012 100.0404997  58.1929988
  57.7370012  99.9804997  59.1249988  58.4219341  99.6020867  58.7448836
  63.8820012 100.5444997  60.1179988  64.8130012 100.6734997  60.2959988
  63.6670012 101.2144997  59.4679988  63.9804247 100.6526565  60.0545747
  62.5560012 101.7394997  57.6849988  62.0130012 101.3594997  56.9929988
  63.3890012 101.9334997  57.2559988  62.5944399 101.7138124  57.5324526
  65.8910012 106.3044997  59.6199988  65.1460012 105.7974997  59.2979988
  65.7570012 106.3534997  60.5669988  65.7708776 106.2416940  59.7038647
  69.7890012  99.1184997  57.8199988  68.8500012  99.2304997  57.6679988
  70.0860012  99.9754997  58.1259988  69.7007666  99.2496443  57.8405768
  70.5070012 100.9854997  59.4799988  71.3990012 100.8484997  59.7989988
  70.5640012 101.7764997  58.9439988  70.6366285 101.0736660  59.4511691
  68.0170012 107.7634997  58.6459988  67.7210012 108.5894997  59.0269988
  67.3140012 107.1434997  58.8419988  67.8814914 107.7928199  58.7246443
  59.1460012 103.9794997  57.3809988  59.7620012 104.6064997  57.7609988
  58.2840012 104.2954997  57.6529988  59.1137698 104.1079430  57.4697183
  71.0800012 107.9574997  57.4599988  71.4330012 107.5774997  58.2649988
  70.1310012 107.8644997  57.5469988  71.0000441 107.8929596  57.5818559
  75.5830012 112.4374997  57.6609988  76.3270012 113.0234997  57.5209988
  74.8890012 113.0054997  57.9949988  75.5910292 112.5945582  57.6869961
  65.1710012 109.0694997  55.9069988  65.4100012 108.3214997  55.3599988
  64.9020012 108.6814997  56.7399988  65.1673675 108.9146638  55.9446865
  64.1080012 108.6394997  58.3639988  64.2540012 108.1194997  59.1539988
  64.1050012 109.5464997  58.6699988  64.1275989 108.6908853  58.5136088
  60.5610012 105.8924997  58.8739988  59.8750012 106.2444997  59.4409988
  61.0830012 106.6554997  58.6269988  60.5376852 106.0438578  58.9182118
  69.1770012  98.2064997  60.2499988  69.3970012  98.6784997  59.4469988
  69.7350012  98.6014997  60.9199988  69.2824968  98.3244285  60.2307331
  66.8450012 110.3374997  59.1129988  66.0290012 110.8344997  59.1649988
  67.3750012 110.8124997  58.4729988  66.8049161 110.4697722  59.0335956
  64.1840012 111.3814997  59.0949988  64.3440012 112.1804997  58.5939988
  63.9860012 111.6874997  59.9799988  64.1791649 111.5324469  59.1459815
  62.9180012  98.0784997  58.7099988  62.8350012  98.9674997  59.0569988
  63.8080012  97.8134997  58.9419988  63.0269469  98.1641430  58.7887626
  61.1770012 108.5064997  57.7709988  61.7690012 109.2054997  58.0469988
  61.6360012 108.0734997  57.0509988  61.3201142 108.5437049  57.7114830
  59.4930012 101.1704997  56.8869988  59.4480012 102.1094997  57.0649988
  58.6050012 100.9344997  56.6169988  59.3668574 101.2671892  56.8748912
  67.2090012 110.9324997  56.0459988  66.5650012 110.3014997  56.3669988
  67.9710012 110.4014997  55.8139988  67.2238077 110.7742920  56.0586011
  71.8130012 110.7494997  56.2799988  72.0960012 109.9554997  56.7319988
  72.5530012 110.9824997  55.7189988  71.9517486 110.6722803  56.2660698
  62.7680012 106.6594997  56.1369988  62.8320012 105.8654997  56.6679988
  63.4210012 106.5404997  55.4469988  62.8650241 106.5347148  56.1164317
  68.1200012 107.7064997  55.8729988  67.8510012 107.8864997  56.7739988
  67.9140012 106.7804997  55.7419988  68.0553825 107.6060152  55.9785214
  63.9170012 104.6314997  58.4429988  63.4570012 104.1474997  59.1289988
  64.1720012 103.9634997  57.8069988  63.8884902 104.4748731  58.4509334
  64.9880012 102.8744997  56.7049988  64.8080012 102.7204997  55.7779988
  65.9380012 102.9824997  56.7499988  65.0917776 102.8680175  56.5841843
  74.3780012 105.2294997  56.1509988  74.1040012 104.8044997  55.3379988
  74.4170012 106.1604997  55.9339988  74.3457699 105.2972484  56.0103610
  64.8850012 113.5654997  57.7069988  65.8180012 113.7234997  57.8499988
  64.6210012 114.2404997  57.0819988  64.9769510 113.6783611  57.6420741
  58.4540012 108.2014997  57.1889988  59.3680012 108.2804997  57.4629988
  58.4610012 107.5144997  56.5229988  58.5801131 108.1193961  57.1364393
  74.8360012 106.0984997  60.1259988  75.6860012 106.5194997  60.2529988
  74.8420012 105.3584997  60.7329988  74.9531372 106.0560803  60.2254344
  75.4990012 104.0524997  58.3409988  74.9770012 104.4094997  57.6219988
  75.4660012 104.7274997  59.0189988  75.4231634 104.1925413  58.3343145
  73.8480012 101.2924997  56.8919988  73.9440012 101.9594997  56.2109988
  73.7080012 100.4764997  56.4099988  73.8422135 101.2734500  56.7338491
  73.0950012  98.7004997  56.0089988  73.7060012  98.3294997  56.6459988
  72.2590012  98.2794997  56.2049988  73.0655032  98.5927554  56.1227035
  75.2080012  97.5854997  57.5509988  75.6200012  96.8644997  57.0759988
  75.8900012  98.2554997  57.6099988  75.3565885  97.5772368  57.4938915
  57.4890012  97.5904997  60.6779988  56.5640012  97.7994997  60.5489988
  57.9430012  98.0744997  59.9889988  57.4237368  97.6845993  60.5671226
  58.7650012  95.6334997  58.6569988  59.2040012  96.2444997  58.0649988
  58.1320012  96.1714997  59.1309988  58.7394514  95.7899257  58.6400930
  71.4180012  95.8184997  60.0079988  70.7160012  96.4334997  59.7989988
  70.9740012  94.9804997  60.1389988  71.2616330  95.7895783  59.9970328
  58.6660012 111.5814997  59.5549988  57.9810012 111.5434997  58.8869988
  58.6700012 112.4944997  59.8429988  58.5728193 111.6997016  59.5025284
  60.6260012  97.5494997  57.0989988  61.1180012  96.9194997  56.5719988
  61.2500012  97.8454997  57.7629988  60.7775446  97.5033199  57.1165980
  67.5310012 112.7914997  57.9519988  68.3970012 113.1574997  57.7739988
  67.2840012 112.3514997  57.1379988  67.6162392 112.7821756  57.8176289
  60.4840012 112.5014997  56.5799988  60.2170012 112.7884997  57.4529988
  61.2560012 111.9554997  56.7319988  60.5517488 112.4670294  56.7201050
  76.6980012 101.9714997  61.7519988  76.2510012 102.8174997  61.7329988
  76.1370012 101.3914997  61.2359988  76.5609900 102.0089916  61.6796801
  86.5850012 104.2354997  60.2639988  85.8730012 104.7704997  59.9119988
  87.2760012 104.2914997  59.6039988  86.5810132 104.3162543  60.1266289
  86.6380012 102.6934997  57.3029988  87.3390012 102.7154997  57.9539988
  86.9410012 102.0654997  56.6469988  86.7747830 102.6116566  57.3033711
  89.9900012 104.4454997  61.2159988  89.2580012 104.6734997  61.7889988
  90.4380012 103.7314997  61.6709988  89.9503095 104.3802571  61.3559119
  92.5600012  95.3574997  58.7139988  91.6600012  95.4964997  59.0089988
  92.8120012  96.1884997  58.3119988  92.4708702  95.4889074  58.7000205
  93.7490012 109.7234997  57.0899988  93.8230012 110.6624997  57.2609988
  94.6550012 109.4184997  57.0339988  93.8815100 109.8106722  57.1058119
  86.0600012 113.3004997  60.7509988  85.9850012 113.1794997  59.8049988
  86.0930012 114.2504997  60.8699988  86.0541848 113.4122500  60.6374834
  89.1620012 112.4544997  57.7529988  89.5370012 111.7104997  57.2829988
  89.1660012 112.1844997  58.6719988  89.2138915 112.3161486  57.8127824
  88.8310012 112.3804997  60.5029988  87.8950012 112.4804997  60.6809988
  89.1110012 111.6714997  61.0809988  88.7408255 112.2982711  60.6055391
  90.3390012 104.6404997  56.5309988  90.3810012 104.4174997  55.6009988
  91.1880012 105.0394997  56.7209988  90.4595396 104.6639155  56.4293627
  85.9110012  98.5164997  57.2009988  85.6580012  98.5354997  58.1239988
  85.6550012  97.6444997  56.8999988  85.8417790  98.4012437  57.2866263
  82.7940012  98.9614997  56.3019988  82.3630012  98.5164997  57.0319988
  82.0760012  99.3334997  55.7899988  82.6379438  98.9508940  56.3326799
  77.3100012  99.4494997  58.7779988  77.7840012 100.0404997  58.1929988
  76.5930012  99.9804997  59.1249988  77.2779341  99.6020867  58.7448836
  82.7380012 100.5444997  60.1179988  83.6690012 100.6734997  60.2959988
  82.5230012 101.2144997  59.4679988  82.8364247 100.6526565  60.0545747
  81.4120012 101.7394997  57.6849988  80.8690012 101.3594997  56.9929988
  82.2450012 101.9334997  57.2559988  81.4504399 101.7138124  57.5324526
  84.7470012 106.3044997  59.6199988  84.0020012 105.7974997  59.2979988
  84.6130012 106.3534997  60.5669988  84.6268776 106.2416940  59.7038647
  88.6450012  99.1184997  57.8199988  87.7060012  99.2304997  57.6679988
  88.9420012  99.9754997  58.1259988  88.5567666  99.2496443  57.8405768
  86.8730012 107.7634997  58.6459988  86.5770012 108.5894997  59.0269988
  86.1700012 107.1434997  58.8419988  86.7374914 107.7928199  58.7246443
  94.2480012 101.1954997  59.1749988  93.6940012 100.7994997  58.5029988
  94.3480012 102.1054997  58.8969988  94.1857059 101.2643586  59.0454401
  92.5430012 109.9814997  59.6399988  92.1700012 109.1554997  59.9489988
  92.8210012 109.7984997  58.7429988  92.5295630 109.8437303  59.5609626
  78.0020012 103.9794997  57.3809988  78.6180012 104.6064997  57.7609988
  77.1400012 104.2954997  57.6529988  77.9697698 104.1079430  57.4697183
  82.3570012 111.8024997  61.9159988  81.4070012 111.9074997  61.9669988
  82.7090012 112.6224997  62.2609988  82.2744203 111.9278314  61.9696650
  89.9360012 107.9574997  57.4599988  90.2890012 107.5774997  58.2649988
  88.9870012 107.8644997  57.5469988  89.8560441 107.8929596  57.5818559
  94.4390012 112.4374997  57.6609988  95.1830012 113.0234997  57.5209988
  93.7450012 113.0054997  57.9949988  94.4470292 112.5945582  57.6869961
  90.8020012 106.6304997  59.6869988  90.5240012 105.9024997  60.2429988
  91.7290012 106.7494997  59.8919988  90.8893124 106.5468802  59.7908845
  84.0270012 109.0694997  55.9069988  84.2660012 108.3214997  55.3599988
  83.7580012 108.6814997  56.7399988  84.0233675 108.9146638  55.9446865
  82.9640012 108.6394997  58.3639988  83.1100012 108.1194997  59.1539988
  82.9610012 109.5464997  58.6699988  82.9835989 108.6908853  58.5136088
  85.7010012 110.3374997  59.1129988  84.8850012 110.8344997  59.1649988
  86.2310012 110.8124997  58.4729988  85.6609161 110.4697722  59.0335956
  86.1160012  97.0154997  62.0229988  85.7700012  97.6334997  62.6679988
  86.7750012  97.5164997  61.5419988  86.1577826  97.1675802  62.0460971
  83.0400012 111.3814997  59.0949988  83.2000012 112.1804997  58.5939988
  82.8420012 111.6874997  59.9799988  83.0351649 111.5324469  59.1459815
  81.7740012  98.0784997  58.7099988  81.6910012  98.9674997  59.0569988
  82.6640012  97.8134997  58.9419988  81.8829469  98.1641430  58.7887626
  80.0330012 108.5064997  57.7709988  80.6250012 109.2054997  58.0469988
  80.4920012 108.0734997  57.0509988  80.1761142 108.5437049  57.7114830
  78.3490012 101.1704997  56.8869988  78.3040012 102.1094997  57.0649988
  77.4610012 100.9344997  56.6169988  78.2228574 101.2671892  56.8748912
  86.0650012 110.9324997  56.0459988  85.4210012 110.3014997  56.3669988
  86.8270012 110.4014997  55.8139988  86.0798077 110.7742920  56.0586011
  90.6690012 110.7494997  56.2799988  90.9520012 109.9554997  56.7319988
  91.4090012 110.9824997  55.7189988  90.8077486 110.6722803  56.2660698
  81.6240012 106.6594997  56.1369988  81.6880012 105.8654997  56.6679988
  82.2770012 106.5404997  55.4469988  81.7210241 106.5347148  56.1164317
  86.9760012 107.7064997  55.8729988  86.7070012 107.8864997  56.7739988
  86.7700012 106.7804997  55.7419988  86.9113825 107.6060152  55.9785214
  82.7730012 104.6314997  58.4429988  82.3130012 104.1474997  59.1289988
  83.0280012 103.9634997  57.8069988  82.7444902 104.4748731  58.4509334
  83.8440012 102.8744997  56.7049988  83.6640012 102.7204997  55.7779988
  84.7940012 102.9824997  56.7499988  83.9477776 102.8680175  56.5841843
  93.2340012 105.2294997  56.1509988  92.9600012 104.8044997  55.3379988
  93.2730012 106.1604997  55.9339988  93.2017699 105.2972484  56.0103610
  83.7410012 113.5654997  57.7069988  84.6740012 113.7234997  57.8499988
  83.4770012 114.2404997  57.0819988  83.8329510 113.6783611  57.6420741
  77.3100012 108.2014997  57.1889988  78.2240012 108.2804997  57.4629988
  77.3170012 107.5144997  56.5229988  77.4361131 108.1193961  57.1364393
  94.3550012 104.0524997  58.3409988  93.8330012 104.4094997  57.6219988
  94.3220012 104.7274997  59.0189988  94.2791634 104.1925413  58.3343145
  92.7040012 101.2924997  56.8919988  92.8000012 101.9594997  56.2109988
  92.5640012 100.4764997  56.4099988  92.6982135 101.2734500  56.7338491
  91.9510012  98.7004997  56.0089988  92.5620012  98.3294997  56.6459988
  91.1150012  98.2794997  56.2049988  91.9215032  98.5927554  56.1227035
  94.0640012  97.5854997  57.5509988  94.4760012  96.8644997  57.0759988
  94.7460012  98.2554997  57.6099988  94.2125885  97.5772368  57.4938915
  77.6210012  95.6334997  58.6569988  78.0600012  96.2444997  58.0649988
  76.9880012  96.1714997  59.1309988  77.5954514  95.7899257  58.6400930
  90.2740012  95.8184997  60.0079988  89.5720012  96.4334997  59.7989988
  89.8300012  94.9804997  60.1389988  90.1176330  95.7895783  59.9970328
  77.5220012 111.5814997  59.5549988  76.8370012 111.5434997  58.8869988
  77.5260012 112.4944997  59.8429988  77.4288193 111.6997016  59.5025284
  79.4820012  97.5494997  57.0989988  79.9740012  96.9194997  56.5719988
  80.1060012  97.8454997  57.7629988  79.6335446  97.5033199  57.1165980
  84.5080012  97.8424997  59.5559988  84.6860012  97.1964997  60.2389988
  84.4550012  98.6764997  60.0239988  84.5251829  97.8667985  59.7125940
  86.3870012 112.7914997  57.9519988  87.2530012 113.1574997  57.7739988
  86.1400012 112.3514997  57.1379988  86.4722392 112.7821756  57.8176289
  93.0960012 112.3544997  60.6309988  92.9010012 111.6064997  60.0659988
  93.0570012 113.1124997  60.0479988  93.0640380 112.3546099  60.4748384
  79.3400012 112.5014997  56.5799988  79.0730012 112.7884997  57.4529988
  80.1120012 111.9554997  56.7319988  79.4077488 112.4670294  56.7201050
  95.5540012 101.9714997  61.7519988  95.1070012 102.8174997  61.7329988
  94.9930012 101.3914997  61.2359988  95.4169900 102.0089916  61.6796801
 106.5170012 107.5924997  61.8549988 106.2210012 107.2704997  61.0039988
 106.1920012 108.4924997  61.8959988 106.4326371 107.6700215  61.7441801
 105.4940012 102.6934997  57.3029988 106.1950012 102.7154997  57.9539988
 105.7970012 102.0654997  56.6469988 105.6307830 102.6116566  57.3033711
 107.7170012 103.6074997  58.9009988 108.2970012 103.7574997  59.6479988
 108.1310012 104.0784997  58.1779988 107.8522830 103.6916841  58.9054134
 111.4160012  95.3574997  58.7139988 110.5160012  95.4964997  59.0089988
 111.6680012  96.1884997  58.3119988 111.3268702  95.4889074  58.7000205
 112.6050012 109.7234997  57.0899988 112.6790012 110.6624997  57.2609988
 113.5110012 109.4184997  57.0339988 112.7375100 109.8106722  57.1058119
 108.0180012 112.4544997  57.7529988 108.3930012 111.7104997  57.2829988
 108.0220012 112.1844997  58.6719988 108.0698915 112.3161486  57.8127824
 107.6870012 112.3804997  60.5029988 106.7510012 112.4804997  60.6809988
 107.9670012 111.6714997  61.0809988 107.5968255 112.2982711  60.6055391
 109.1950012 104.6404997  56.5309988 109.2370012 104.4174997  55.6009988
 110.0440012 105.0394997  56.7209988 109.3155396 104.6639155  56.4293627
 104.7670012  98.5164997  57.2009988 104.5140012  98.5354997  58.1239988
 104.5110012  97.6444997  56.8999988 104.6977790  98.4012437  57.2866263
 106.0660012 101.9044997  61.3649988 105.6570012 102.7194997  61.0739988
 106.7870012 101.7644997  60.7509988 106.1074537 101.9972018  61.2421342
 101.6500012  98.9614997  56.3019988 101.2190012  98.5164997  57.0319988
 100.9320012  99.3334997  55.7899988 101.4939438  98.9508940  56.3326799
  96.1660012  99.4494997  58.7779988  96.6400012 100.0404997  58.1929988
  95.4490012  99.9804997  59.1249988  96.1339341  99.6020867  58.7448836
 100.2680012 101.7394997  57.6849988  99.7250012 101.3594997  56.9929988
 101.1010012 101.9334997  57.2559988 100.3064399 101.7138124  57.5324526
 103.6030012 106.3044997  59.6199988 102.8580012 105.7974997  59.2979988
 103.4690012 106.3534997  60.5669988 103.4828776 106.2416940  59.7038647
 107.5010012  99.1184997  57.8199988 106.5620012  99.2304997  57.6679988
 107.7980012  99.9754997  58.1259988 107.4127666  99.2496443  57.8405768
 108.2190012 100.9854997  59.4799988 109.1110012 100.8484997  59.7989988
 108.2760012 101.7764997  58.9439988 108.3486285 101.0736660  59.4511691
 105.7290012 107.7634997  58.6459988 105.4330012 108.5894997  59.0269988
 105.0260012 107.1434997  58.8419988 105.5934914 107.7928199  58.7246443
 113.1040012 101.1954997  59.1749988 112.5500012 100.7994997  58.5029988
 113.2040012 102.1054997  58.8969988 113.0417059 101.2643586  59.0454401
 111.3990012 109.9814997  59.6399988 111.0260012 109.1554997  59.9489988
 111.6770012 109.7984997  58.7429988 111.3855630 109.8437303  59.5609626
  96.8580012 103.9794997  57.3809988  97.4740012 104.6064997  57.7609988
  95.9960012 104.2954997  57.6529988  96.8257698 104.1079430  57.4697183
 108.7920012 107.9574997  57.4599988 109.1450012 107.5774997  58.2649988
 107.8430012 107.8644997  57.5469988 108.7120441 107.8929596  57.5818559
 113.2950012 112.4374997  57.6609988 114.0390012 113.0234997  57.5209988
 112.6010012 113.0054997  57.9949988 113.3030292 112.5945582  57.6869961
 102.8830012 109.0694997  55.9069988 103.1220012 108.3214997  55.3599988
 102.6140012 108.6814997  56.7399988 102.8793675 108.9146638  55.9446865
 101.8200012 108.6394997  58.3639988 101.9660012 108.1194997  59.1539988
 101.8170012 109.5464997  58.6699988 101.8395989 108.6908853  58.5136088
 106.8890012  98.2064997  60.2499988 107.1090012  98.6784997  59.4469988
 107.4470012  98.6014997  60.9199988 106.9944968  98.3244285  60.2307331
 104.5570012 110.3374997  59.1129988 103.7410012 110.8344997  59.1649988
 105.0870012 110.8124997  58.4729988 104.5169161 110.4697722  59.0335956
 104.9720012  97.0154997  62.0229988 104.6260012  97.6334997  62.6679988
 105.6310012  97.5164997  61.5419988 105.0137826  97.1675802  62.0460971
 101.8960012 111.3814997  59.0949988 102.0560012 112.1804997  58.5939988
 101.6980012 111.6874997  59.9799988 101.8911649 111.5324469  59.1459815
 100.6300012  98.0784997  58.7099988 100.5470012  98.9674997  59.0569988
 101.5200012  97.8134997  58.9419988 100.7389469  98.1641430  58.7887626
  98.8890012 108.5064997  57.7709988  99.4810012 109.2054997  58.0469988
  99.3480012 108.0734997  57.0509988  99.0321142 108.5437049  57.7114830
  97.2050012 101.1704997  56.8869988  97.1600012 102.1094997  57.0649988
  96.3170012 100.9344997  56.6169988  97.0788574 101.2671892  56.8748912
  96.9430012 109.8924997  61.7199988  96.1110012 110.3654997  61.7479988
  97.4890012 110.4024997  61.1219988  96.9029739 110.0261871  61.6429716
 104.9210012 110.9324997  56.0459988 104.2770012 110.3014997  56.3669988
 105.6830012 110.4014997  55.8139988 104.9358077 110.7742920  56.0586011
 109.5250012 110.7494997  56.2799988 109.8080012 109.9554997  56.7319988
 110.2650012 110.9824997  55.7189988 109.6637486 110.6722803  56.2660698
 100.4800012 106.6594997  56.1369988 100.5440012 105.8654997  56.6679988
 101.1330012 106.5404997  55.4469988 100.5770241 106.5347148  56.1164317
 105.8320012 107.7064997  55.8729988 105.5630012 107.8864997  56.7739988
 105.6260012 106.7804997  55.7419988 105.7673825 107.6060152  55.9785214
 101.6290012 104.6314997  58.4429988 101.1690012 104.1474997  59.1289988
 101.8840012 103.9634997  57.8069988 101.6004902 104.4748731  58.4509334
 102.7000012 102.8744997  56.7049988 102.5200012 102.7204997  55.7779988
 103.6500012 102.9824997  56.7499988 102.8037776 102.8680175  56.5841843
 112.0900012 105.2294997  56.1509988 111.8160012 104.8044997  55.3379988
 112.1290012 106.1604997  55.9339988 112.0577699 105.2972484  56.0103610
 102.5970012 113.5654997  57.7069988 103.5300012 113.7234997  57.8499988
 102.3330012 114.2404997  57.0819988 102.6889510 113.6783611  57.6420741
  96.1660012 108.2014997  57.1889988  97.0800012 108.2804997  57.4629988
  96.1730012 107.5144997  56.5229988  96.2921131 108.1193961  57.1364393
 113.2110012 104.0524997  58.3409988 112.6890012 104.4094997  57.6219988
 113.1780012 104.7274997  59.0189988 113.1351634 104.1925413  58.3343145
 111.5600012 101.2924997  56.8919988 111.6560012 101.9594997  56.2109988
 111.4200012 100.4764997  56.4099988 111.5542135 101.2734500  56.7338491
 110.8070012  98.7004997  56.0089988 111.4180012  98.3294997  56.6459988
 109.9710012  98.2794997  56.2049988 110.7775032  98.5927554  56.1227035
 112.9200012  97.5854997  57.5509988 113.3320012  96.8644997  57.0759988
 113.6020012  98.2554997  57.6099988 113.0685885  97.5772368  57.4938915
  96.4770012  95.6334997  58.6569988  96.9160012  96.2444997  58.0649988
  95.8440012  96.1714997  59.1309988  96.4514514  95.7899257  58.6400930
 109.1300012  95.8184997  60.0079988 108.4280012  96.4334997  59.7989988
 108.6860012  94.9804997  60.1389988 108.9736330  95.7895783  59.9970328
  96.3780012 111.5814997  59.5549988  95.6930012 111.5434997  58.8869988
  96.3820012 112.4944997  59.8429988  96.2848193 111.6997016  59.5025284
  98.3380012  97.5494997  57.0989988  98.8300012  96.9194997  56.5719988
  98.9620012  97.8454997  57.7629988  98.4895446  97.5033199  57.1165980
 103.3640012  97.8424997  59.5559988 103.5420012  97.1964997  60.2389988
 103.3110012  98.6764997  60.0239988 103.3811829  97.8667985  59.7125940
 105.2430012 112.7914997  57.9519988 106.1090012 113.1574997  57.7739988
 104.9960012 112.3514997  57.1379988 105.3282392 112.7821756  57.8176289
 111.9520012 112.3544997  60.6309988 111.7570012 111.6064997  60.0659988
 111.9130012 113.1124997  60.0479988 111.9200380 112.3546099  60.4748384
  98.1960012 112.5014997  56.5799988  97.9290012 112.7884997  57.4529988
  98.9680012 111.9554997  56.7319988  98.2637488 112.4670294  56.7201050
 115.1010012 107.4034997  60.1679988 114.8290012 107.6324997  59.2789988
 115.1470012 108.2414997  60.6279988 115.0700094 107.5481213  60.1085697
 124.2970012 104.2354997  60.2639988 123.5850012 104.7704997  59.9119988
 124.9880012 104.2914997  59.6039988 124.2930132 104.3162543  60.1266289
 124.3500012 102.6934997  57.3029988 125.0510012 102.7154997  57.9539988
 124.6530012 102.0654997  56.6469988 124.4867830 102.6116566  57.3033711
 127.7020012 104.4454997  61.2159988 126.9700012 104.6734997  61.7889988
 128.1500012 103.7314997  61.6709988 127.6623095 104.3802571  61.3559119
 126.5730012 103.6074997  58.9009988 127.1530012 103.7574997  59.6479988
 126.9870012 104.0784997  58.1779988 126.7082830 103.6916841  58.9054134
 130.2720012  95.3574997  58.7139988 129.3720012  95.4964997  59.0089988
 130.5240012  96.1884997  58.3119988 130.1828702  95.4889074  58.7000205
 131.4610012 109.7234997  57.0899988 131.5350012 110.6624997  57.2609988
 132.3670012 109.4184997  57.0339988 131.5935100 109.8106722  57.1058119
 123.7720012 113.3004997  60.7509988 123.6970012 113.1794997  59.8049988
 123.8050012 114.2504997  60.8699988 123.7661848 113.4122500  60.6374834
 126.8740012 112.4544997  57.7529988 127.2490012 111.7104997  57.2829988
 126.8780012 112.1844997  58.6719988 126.9258915 112.3161486  57.8127824
 128.0510012 104.6404997  56.5309988 128.0930012 104.4174997  55.6009988
 128.9000012 105.0394997  56.7209988 128.1715396 104.6639155  56.4293627
 123.6230012  98.5164997  57.2009988 123.3700012  98.5354997  58.1239988
 123.3670012  97.6444997  56.8999988 123.5537790  98.4012437  57.2866263
 120.5060012  98.9614997  56.3019988 120.0750012  98.5164997  57.0319988
 119.7880012  99.3334997  55.7899988 120.3499438  98.9508940  56.3326799
 115.0220012  99.4494997  58.7779988 115.4960012 100.0404997  58.1929988
 114.3050012  99.9804997  59.1249988 114.9899341  99.6020867  58.7448836
 120.4500012 100.5444997  60.1179988 121.3810012 100.6734997  60.2959988
 120.2350012 101.2144997  59.4679988 120.5484247 100.6526565  60.0545747
 119.1240012 101.7394997  57.6849988 118.5810012 101.3594997  56.9929988
 119.9570012 101.9334997  57.2559988 119.1624399 101.7138124  57.5324526
 122.4590012 106.3044997  59.6199988 121.7140012 105.7974997  59.2979988
 122.3250012 106.3534997  60.5669988 122.3388776 106.2416940  59.7038647
 126.3570012  99.1184997  57.8199988 125.4180012  99.2304997  57.6679988
 126.6540012  99.9754997  58.1259988 126.2687666  99.2496443  57.8405768
 127.0750012 100.9854997  59.4799988 127.9670012 100.8484997  59.7989988
 127.1320012 101.7764997  58.9439988 127.2046285 101.0736660  59.4511691
 124.5850012 107.7634997  58.6459988 124.2890012 108.5894997  59.0269988
 123.8820012 107.1434997  58.8419988 124.4494914 107.7928199  58.7246443
 131.9600012 101.1954997  59.1749988 131.4060012 100.7994997  58.5029988
 132.0600012 102.1054997  58.8969988 131.8977059 101.2643586  59.0454401
 130.2550012 109.9814997  59.6399988 129.8820012 109.1554997  59.9489988
 130.5330012 109.7984997  58.7429988 130.2415630 109.8437303  59.5609626
 115.7140012 103.9794997  57.3809988 116.3300012 104.6064997  57.7609988
 114.8520012 104.2954997  57.6529988 115.6817698 104.1079430  57.4697183
 127.6480012 107.9574997  57.4599988 128.0010012 107.5774997  58.2649988
 126.6990012 107.8644997  57.5469988 127.5680441 107.8929596  57.5818559
 132.1510012 112.4374997  57.6609988 132.8950012 113.0234997  57.5209988
 131.4570012 113.0054997  57.9949988 132.1590292 112.5945582  57.6869961
 128.5140012 106.6304997  59.6869988 128.2360012 105.9024997  60.2429988
 129.4410012 106.7494997  59.8919988 128.6013124 106.5468802  59.7908845
 121.7390012 109.0694997  55.9069988 121.9780012 108.3214997  55.3599988
 121.4700012 108.6814997  56.7399988 121.7353675 108.9146638  55.9446865
 120.6760012 108.6394997  58.3639988 120.8220012 108.1194997  59.1539988
 120.6730012 109.5464997  58.6699988 120.6955989 108.6908853  58.5136088
 123.4130012 110.3374997  59.1129988 122.5970012 110.8344997  59.1649988
 123.9430012 110.8124997  58.4729988 123.3729161 110.4697722  59.0335956
 122.9450012  99.9344997  61.0849988 123.7570012 100.4394997  61.1309988
 122.7000012  99.7894997  61.9989988 123.0230520  99.9840375  61.2148517
 123.8280012  97.0154997  62.0229988 123.4820012  97.6334997  62.6679988
 124.4870012  97.5164997  61.5419988 123.8697826  97.1675802  62.0460971
 120.7520012 111.3814997  59.0949988 120.9120012 112.1804997  58.5939988
 120.5540012 111.6874997  59.9799988 120.7471649 111.5324469  59.1459815
 119.4860012  98.0784997  58.7099988 119.4030012  98.9674997  59.0569988
 120.3760012  97.8134997  58.9419988 119.5949469  98.1641430  58.7887626
 117.7450012 108.5064997  57.7709988 118.3370012 109.2054997  58.0469988
 118.2040012 108.0734997  57.0509988 117.8881142 108.5437049  57.7114830
 116.0610012 101.1704997  56.8869988 116.0160012 102.1094997  57.0649988
 115.1730012 100.9344997  56.6169988 115.9348574 101.2671892  56.8748912
 123.7770012 110.9324997  56.0459988 123.1330012 110.3014997  56.3669988
 124.5390012 110.4014997  55.8139988 123.7918077 110.7742920  56.0586011
 128.3810012 110.7494997  56.2799988 128.6640012 109.9554997  56.7319988
 129.1210012 110.9824997  55.7189988 128.5197486 110.6722803  56.2660698
 119.3360012 106.6594997  56.1369988 119.4000012 105.8654997  56.6679988
 119.9890012 106.5404997  55.4469988 119.4330241 106.5347148  56.1164317
 124.6880012 107.7064997  55.8729988 124.4190012 107.8864997  56.7739988
 124.4820012 106.7804997  55.7419988 124.6233825 107.6060152  55.9785214
 121.5560012 102.8744997  56.7049988 121.3760012 102.7204997  55.7779988
 122.5060012 102.9824997  56.7499988 121.6597776 102.8680175  56.5841843
 130.9460012 105.2294997  56.1509988 130.6720012 104.8044997  55.3379988
 130.9850012 106.1604997  55.9339988 130.9137699 105.2972484  56.0103610
 121.4530012 113.5654997  57.7069988 122.3860012 113.7234997  57.8499988
 121.1890012 114.2404997  57.0819988 121.5449510 113.6783611  57.6420741
 115.0220012 108.2014997  57.1889988 115.9360012 108.2804997  57.4629988
 115.0290012 107.5144997  56.5229988 115.1481131 108.1193961  57.1364393
 113.6710012 113.5944997  62.2669988 113.0240012 113.1324997  61.7339988
 114.0250012 112.9224997  62.8489988 113.6303849 113.4404723  62.2727959
 130.4160012 101.2924997  56.8919988 130.5120012 101.9594997  56.2109988
 130.2760012 100.4764997  56.4099988 130.4102135 101.2734500  56.7338491
 129.6630012  98.7004997  56.0089988 130.2740012  98.3294997  56.6459988
 128.8270012  98.2794997  56.2049988 129.6335032  98.5927554  56.1227035
 131.7760012  97.5854997  57.5509988 132.1880012  96.8644997  57.0759988
 132.4580012  98.2554997  57.6099988 131.9245885  97.5772368  57.4938915
 114.0570012  97.5904997  60.6779988 113.1320012  97.7994997  60.5489988
 114.5110012  98.0744997  59.9889988 113.9917368  97.6845993  60.5671226
 115.3330012  95.6334997  58.6569988 115.7720012  96.2444997  58.0649988
 114.7000012  96.1714997  59.1309988 115.3074514  95.7899257  58.6400930
 115.2340012 111.5814997  59.5549988 114.5490012 111.5434997  58.8869988
 115.2380012 112.4944997  59.8429988 115.1408193 111.6997016  59.5025284
 117.1940012  97.5494997  57.0989988 117.6860012  96.9194997  56.5719988
 117.8180012  97.8454997  57.7629988 117.3455446  97.5033199  57.1165980
 122.2200012  97.8424997  59.5559988 122.3980012  97.1964997  60.2389988
 122.1670012  98.6764997  60.0239988 122.2371829  97.8667985  59.7125940
 124.0990012 112.7914997  57.9519988 124.9650012 113.1574997  57.7739988
 123.8520012 112.3514997  57.1379988 124.1842392 112.7821756  57.8176289
 130.8080012 112.3544997  60.6309988 130.6130012 111.6064997  60.0659988
 130.7690012 113.1124997  60.0479988 130.7760380 112.3546099  60.4748384
 117.0520012 112.5014997  56.5799988 116.7850012 112.7884997  57.4529988
 117.8240012 111.9554997  56.7319988 117.1197488 112.4670294  56.7201050
 133.2660012 101.9714997  61.7519988 132.8190012 102.8174997  61.7329988
 132.7050012 101.3914997  61.2359988 133.1289900 102.0089916  61.6796801
 143.1530012 104.2354997  60.2639988 142.4410012 104.7704997  59.9119988
 143.8440012 104.2914997  59.6039988 143.1490132 104.3162543  60.1266289
 143.2060012 102.6934997  57.3029988 143.9070012 102.7154997  57.9539988
 143.5090012 102.0654997  56.6469988 143.3427830 102.6116566  57.3033711
 137.1940012 104.1454997  60.6879988 136.9020012 104.9134997  60.1969988
 136.5200012 103.4854997  60.5249988 137.0629081 104.1614406  60.5987340
 142.4790012  98.5164997  57.2009988 142.2260012  98.5354997  58.1239988
 142.2230012  97.6444997  56.8999988 142.4097790  98.4012437  57.2866263
 139.3620012  98.9614997  56.3019988 138.9310012  98.5164997  57.0319988
 138.6440012  99.3334997  55.7899988 139.2059438  98.9508940  56.3326799
 133.8780012  99.4494997  58.7779988 134.3520012 100.0404997  58.1929988
 133.1610012  99.9804997  59.1249988 133.8459341  99.6020867  58.7448836
 137.9800012 101.7394997  57.6849988 137.4370012 101.3594997  56.9929988
 138.8130012 101.9334997  57.2559988 138.0184399 101.7138124  57.5324526
 141.3150012 106.3044997  59.6199988 140.5700012 105.7974997  59.2979988
 141.1810012 106.3534997  60.5669988 141.1948776 106.2416940  59.7038647
 143.4410012 107.7634997  58.6459988 143.1450012 108.5894997  59.0269988
 142.7380012 107.1434997  58.8419988 143.3054914 107.7928199  58.7246443
 134.5700012 103.9794997  57.3809988 135.1860012 104.6064997  57.7609988
 133.7080012 104.2954997  57.6529988 134.5377698 104.1079430  57.4697183
 140.2420012 106.7804997  62.3709988 140.0010012 107.7054997  62.4119988
 139.5010012 106.3214997  62.7669988 140.1088409 106.8451421  62.4301377
 140.5950012 109.0694997  55.9069988 140.8340012 108.3214997  55.3599988
 140.3260012 108.6814997  56.7399988 140.5913675 108.9146638  55.9446865
 139.5320012 108.6394997  58.3639988 139.6780012 108.1194997  59.1539988
 139.5290012 109.5464997  58.6699988 139.5515989 108.6908853  58.5136088
 135.9850012 105.8924997  58.8739988 135.2990012 106.2444997  59.4409988
 136.5070012 106.6554997  58.6269988 135.9616852 106.0438578  58.9182118
 144.6010012  98.2064997  60.2499988 144.8210012  98.6784997  59.4469988
 145.1590012  98.6014997  60.9199988 144.7064968  98.3244285  60.2307331
 142.2690012 110.3374997  59.1129988 141.4530012 110.8344997  59.1649988
 142.7990012 110.8124997  58.4729988 142.2289161 110.4697722  59.0335956
 139.6080012 111.3814997  59.0949988 139.7680012 112.1804997  58.5939988
 139.4100012 111.6874997  59.9799988 139.6031649 111.5324469  59.1459815
 138.3420012  98.0784997  58.7099988 138.2590012  98.9674997  59.0569988
 139.2320012  97.8134997  58.9419988 138.4509469  98.1641430  58.7887626
 136.6010012 108.5064997  57.7709988 137.1930012 109.2054997  58.0469988
 137.0600012 108.0734997  57.0509988 136.7441142 108.5437049  57.7114830
 134.9170012 101.1704997  56.8869988 134.8720012 102.1094997  57.0649988
 134.0290012 100.9344997  56.6169988 134.7908574 101.2671892  56.8748912
 134.6550012 109.8924997  61.7199988 133.8230012 110.3654997  61.7479988
 135.2010012 110.4024997  61.1219988 134.6149739 110.0261871  61.6429716
 142.6330012 110.9324997  56.0459988 141.9890012 110.3014997  56.3669988
 143.3950012 110.4014997  55.8139988 142.6478077 110.7742920  56.0586011
 138.1920012 106.6594997  56.1369988 138.2560012 105.8654997  56.6679988
 138.8450012 106.5404997  55.4469988 138.2890241 106.5347148  56.1164317
 143.5440012 107.7064997  55.8729988 143.2750012 107.8864997  56.7739988
 143.3380012 106.7804997  55.7419988 143.4793825 107.6060152  55.9785214
 139.3410012 104.6314997  58.4429988 138.8810012 104.1474997  59.1289988
 139.5960012 103.9634997  57.8069988 139.3124902 104.4748731  58.4509334
 140.4120012 102.8744997  56.7049988 140.2320012 102.7204997  55.7779988
 141.3620012 102.9824997  56.7499988 140.5157776 102.8680175  56.5841843
 140.3090012 113.5654997  57.7069988 141.2420012 113.7234997  57.8499988
 140.0450012 114.2404997  57.0819988 140.4009510 113.6783611  57.6420741
 133.8780012 108.2014997  57.1889988 134.7920012 108.2804997  57.4629988
 133.8850012 107.5144997  56.5229988 134.0041131 108.1193961  57.1364393
 134.1890012  95.6334997  58.6569988 134.6280012  96.2444997  58.0649988
 133.5560012  96.1714997  59.1309988 134.1634514  95.7899257  58.6400930
 134.0900012 111.5814997  59.5549988 133.4050012 111.5434997  58.8869988
 134.0940012 112.4944997  59.8429988 133.9968193 111.6997016  59.5025284
 136.0500012  97.5494997  57.0989988 136.5420012  96.9194997  56.5719988
 136.6740012  97.8454997  57.7629988 136.2015446  97.5033199  57.1165980
 141.0760012  97.8424997  59.5559988 141.2540012  97.1964997  60.2389988
 141.0230012  98.6764997  60.0239988 141.0931829  97.8667985  59.7125940
 142.9550012 112.7914997  57.9519988 143.8210012 113.1574997  57.7739988
 142.7080012 112.3514997  57.1379988 143.0402392 112.7821756  57.8176289
 135.9080012 112.5014997  56.5799988 135.6410012 112.7884997  57.4529988
 136.6800012 111.9554997  56.7319988 135.9757488 112.4670294  56.7201050
   1.2740012 120.8274997  61.7519988   0.8270012 121.6734997  61.7329988
   0.7130012 120.2474997  61.2359988   1.1369900 120.8649916  61.6796801
  12.2370012 126.4484997  61.8549988  11.9410012 126.1264997  61.0039988
  11.9120012 127.3484997  61.8959988  12.1526371 126.5260215  61.7441801
  11.2140012 121.5494997  57.3029988  11.9150012 121.5714997  57.9539988
  11.5170012 120.9214997  56.6469988  11.3507830 121.4676566  57.3033711
  14.5660012 123.3014997  61.2159988  13.8340012 123.5294997  61.7889988
  15.0140012 122.5874997  61.6709988  14.5263095 123.2362571  61.3559119
  13.4370012 122.4634997  58.9009988  14.0170012 122.6134997  59.6479988
  13.8510012 122.9344997  58.1779988  13.5722831 122.5476841  58.9054134
  17.1360012 114.2134997  58.7139988  16.2360012 114.3524997  59.0089988
  17.3880012 115.0444997  58.3119988  17.0468702 114.3449074  58.7000205
   5.2020012 123.0014997  60.6879988   4.9100012 123.7694997  60.1969988
   4.5280012 122.3414997  60.5249988   5.0709081 123.0174406  60.5987340
  18.3250012 128.5794997  57.0899988  18.3990012 129.5184997  57.2609988
  19.2310012 128.2744997  57.0339988  18.4575100 128.6666722  57.1058119
  13.7380012 131.3104997  57.7529988  14.1130012 130.5664997  57.2829988
  13.7420012 131.0404997  58.6719988  13.7898915 131.1721486  57.8127824
  13.4070012 131.2364997  60.5029988  12.4710012 131.3364997  60.6809988
  13.6870012 130.5274997  61.0809988  13.3168255 131.1542711  60.6055391
  14.9150012 123.4964997  56.5309988  14.9570012 123.2734997  55.6009988
  15.7640012 123.8954997  56.7209988  15.0355396 123.5199155  56.4293627
  10.4870012 117.3724997  57.2009988  10.2340012 117.3914997  58.1239988
  10.2310012 116.5004997  56.8999988  10.4177790 117.2572437  57.2866263
   7.3700012 117.8174997  56.3019988   6.9390012 117.3724997  57.0319988
   6.6520012 118.1894997  55.7899988   7.2139438 117.8068940  56.3326799
   5.9880012 120.5954997  57.6849988   5.4450012 120.2154997  56.9929988
   6.8210012 120.7894997  57.2559988   6.0264399 120.5698124  57.5324526
   9.3230012 125.1604997  59.6199988   8.5780012 124.6534997  59.2979988
   9.1890012 125.2094997  60.5669988   9.2028776 125.0976940  59.7038647
  13.2210012 117.9744997  57.8199988  12.2820012 118.0864997  57.6679988
  13.5180012 118.8314997  58.1259988  13.1327666 118.1056443  57.8405768
  11.4490012 126.6194997  58.6459988  11.1530012 127.4454997  59.0269988
  10.7460012 125.9994997  58.8419988  11.3134914 126.6488199  58.7246443
  18.8240012 120.0514997  59.1749988  18.2700012 119.6554997  58.5029988
  18.9240012 120.9614997  58.8969988  18.7617059 120.1203586  59.0454401
  17.1190012 128.8374997  59.6399988  16.7460012 128.0114997  59.9489988
  17.3970012 128.6544997  58.7429988  17.1055630 128.6997303  59.5609626
   2.5780012 122.8354997  57.3809988   3.1940012 123.4624997  57.7609988
   1.7160012 123.1514997  57.6529988   2.5457698 122.9639430  57.4697183
   8.2500012 125.6364997  62.3709988   8.0090012 126.5614997  62.4119988
   7.5090012 125.1774997  62.7669988   8.1168409 125.7011421  62.4301377
  14.5120012 126.8134997  57.4599988  14.8650012 126.4334997  58.2649988
  13.5630012 126.7204997  57.5469988  14.4320441 126.7489596  57.5818559
  19.0150012 131.2934997  57.6609988  19.7590012 131.8794997  57.5209988
  18.3210012 131.8614997  57.9949988  19.0230292 131.4505582  57.6869961
  15.3780012 125.4864997  59.6869988  15.1000012 124.7584997  60.2429988
  16.3050012 125.6054997  59.8919988  15.4653124 125.4028802  59.7908845
   8.6030012 127.9254997  55.9069988   8.8420012 127.1774997  55.3599988
   8.3340012 127.5374997  56.7399988   8.5993675 127.7706638  55.9446865
   7.5400012 127.4954997  58.3639988   7.6860012 126.9754997  59.1539988
   7.5370012 128.4024997  58.6699988   7.5595989 127.5468853  58.5136088
   3.9930012 124.7484997  58.8739988   3.3070012 125.1004997  59.4409988
   4.5150012 125.5114997  58.6269988   3.9696852 124.8998578  58.9182118
  12.6090012 117.0624997  60.2499988  12.8290012 117.5344997  59.4469988
  13.1670012 117.4574997  60.9199988  12.7144968 117.1804285  60.2307331
   6.3500012 116.9344997  58.7099988   6.2670012 117.8234997  59.0569988
   7.2400012 116.6694997  58.9419988   6.4589469 117.0201430  58.7887626
   4.6090012 127.3624997  57.7709988   5.2010012 128.0614997  58.0469988
   5.0680012 126.9294997  57.0509988   4.7521142 127.3997049  57.7114830
   2.9250012 120.0264997  56.8869988   2.8800012 120.9654997  57.0649988
   2.0370012 119.7904997  56.6169988   2.7988574 120.1231892  56.8748912
  10.6410012 129.7884997  56.0459988   9.9970012 129.1574997  56.3669988
  11.4030012 129.2574997  55.8139988  10.6558077 129.6302920  56.0586011
  15.2450012 129.6054997  56.2799988  15.5280012 128.8114997  56.7319988
  15.9850012 129.8384997  55.7189988  15.3837486 129.5282803  56.2660698
   6.2000012 125.5154997  56.1369988   6.2640012 124.7214997  56.6679988
   6.8530012 125.3964997  55.4469988   6.2970241 125.3907148  56.1164317
  11.5520012 126.5624997  55.8729988  11.2830012 126.7424997  56.7739988
  11.3460012 125.6364997  55.7419988  11.4873825 126.4620152  55.9785214
   7.3490012 123.4874997  58.4429988   6.8890012 123.0034997  59.1289988
   7.6040012 122.8194997  57.8069988   7.3204902 123.3308731  58.4509334
   8.4200012 121.7304997  56.7049988   8.2400012 121.5764997  55.7779988
   9.3700012 121.8384997  56.7499988   8.5237776 121.7240175  56.5841843
  17.8100012 124.0854997  56.1509988  17.5360012 123.6604997  55.3379988
  17.8490012 125.0164997  55.9339988  17.7777699 124.1532484  56.0103610
   8.3170012 132.4214997  57.7069988   9.2500012 132.5794997  57.8499988
   8.0530012 133.0964997  57.0819988   8.4089510 132.5343611  57.6420741
   1.8860012 127.0574997  57.1889988   2.8000012 127.1364997  57.4629988
   1.8930012 126.3704997  56.5229988   2.0121131 126.9753961  57.1364393
  18.9310012 122.9084997  58.3409988  18.4090012 123.2654997  57.6219988
  18.8980012 123.5834997  59.0189988  18.8551634 123.0485413  58.3343145
  17.2800012 120.1484997  56.8919988  17.3760012 120.8154997  56.2109988
  17.1400012 119.3324997  56.4099988  17.2742135 120.1294500  56.7338491
  16.5270012 117.5564997  56.0089988  17.1380012 117.1854997  56.6459988
  15.6910012 117.1354997  56.2049988  16.4975032 117.4487554  56.1227035
  18.6400012 116.4414997  57.5509988  19.0520012 115.7204997  57.0759988
  19.3220012 117.1114997  57.6099988  18.7885885 116.4332368  57.4938915
   2.1970012 114.4894997  58.6569988   2.6360012 115.1004997  58.0649988
   1.5640012 115.0274997  59.1309988   2.1714514 114.6459257  58.6400930
  14.8500012 114.6744997  60.0079988  14.1480012 115.2894997  59.7989988
  14.4060012 113.8364997  60.1389988  14.6936330 114.6455783  59.9970328
   2.0980012 130.4374997  59.5549988   1.4130012 130.3994997  58.8869988
   2.1020012 131.3504997  59.8429988   2.0048193 130.5557016  59.5025284
   4.0580012 116.4054997  57.0989988   4.5500012 115.7754997  56.5719988
   4.6820012 116.7014997  57.7629988   4.2095446 116.3593199  57.1165980
   9.0840012 116.6984997  59.5559988   9.2620012 116.0524997  60.2389988
   9.0310012 117.5324997  60.0239988   9.1011829 116.7227985  59.7125940
  17.6720012 131.2104997  60.6309988  17.4770012 130.4624997  60.0659988
  17.6330012 131.9684997  60.0479988  17.6400380 131.2106099  60.4748384
   3.9160012 131.3574997  56.5799988   3.6490012 131.6444997  57.4529988
   4.6880012 130.8114997  56.7319988   3.9837488 131.3230294  56.7201050
  20.1300012 120.8274997  61.7519988  19.6830012 121.6734997  61.7329988
  19.5690012 120.2474997  61.2359988  19.9929900 120.8649916  61.6796801
  30.0170012 123.0914997  60.2639988  29.3050012 123.6264997  59.9119988
  30.7080012 123.1474997  59.6039988  30.0130132 123.1722543  60.1266289
  30.0700012 121.5494997  57.3029988  30.7710012 121.5714997  57.9539988
  30.3730012 120.9214997  56.6469988  30.2067830 121.4676566  57.3033711
  32.2930012 122.4634997  58.9009988  32.8730012 122.6134997  59.6479988
  32.7070012 122.9344997  58.1779988  32.4282830 122.5476841  58.9054134
  37.1810012 128.5794997  57.0899988  37.2550012 129.5184997  57.2609988
  38.0870012 128.2744997  57.0339988  37.3135100 128.6666722  57.1058119
  32.5940012 131.3104997  57.7529988  32.9690012 130.5664997  57.2829988
  32.5980012 131.0404997  58.6719988  32.6458915 131.1721486  57.8127824
  32.2630012 131.2364997  60.5029988  31.3270012 131.3364997  60.6809988
  32.5430012 130.5274997  61.0809988  32.1728255 131.1542711  60.6055391
  33.7710012 123.4964997  56.5309988  33.8130012 123.2734997  55.6009988
  34.6200012 123.8954997  56.7209988  33.8915396 123.5199155  56.4293627
  29.3430012 117.3724997  57.2009988  29.0900012 117.3914997  58.1239988
  29.0870012 116.5004997  56.8999988  29.2737790 117.2572437  57.2866263
  26.2260012 117.8174997  56.3019988  25.7950012 117.3724997  57.0319988
  25.5080012 118.1894997  55.7899988  26.0699438 117.8068940  56.3326799
  20.7420012 118.3054997  58.7779988  21.2160012 118.8964997  58.1929988
  20.0250012 118.8364997  59.1249988  20.7099341 118.4580867  58.7448836
  26.1700012 119.4004997  60.1179988  27.1010012 119.5294997  60.2959988
  25.9550012 120.0704997  59.4679988  26.2684247 119.5086565  60.0545747
  24.8440012 120.5954997  57.6849988  24.3010012 120.2154997  56.9929988
  25.6770012 120.7894997  57.2559988  24.8824399 120.5698124  57.5324526
  24.0100012 116.6954997  61.9399988  23.6930012 115.7934997  61.9049988
  24.7920012 116.6974997  61.3869988  24.0722284 116.5721628  61.8604783
  28.1790012 125.1604997  59.6199988  27.4340012 124.6534997  59.2979988
  28.0450012 125.2094997  60.5669988  28.0588776 125.0976940  59.7038647
  32.0770012 117.9744997  57.8199988  31.1380012 118.0864997  57.6679988
  32.3740012 118.8314997  58.1259988  31.9887666 118.1056443  57.8405768
  30.3050012 126.6194997  58.6459988  30.0090012 127.4454997  59.0269988
  29.6020012 125.9994997  58.8419988  30.1694914 126.6488199  58.7246443
  37.6800012 120.0514997  59.1749988  37.1260012 119.6554997  58.5029988
  37.7800012 120.9614997  58.8969988  37.6177059 120.1203586  59.0454401
  35.9750012 128.8374997  59.6399988  35.6020012 128.0114997  59.9489988
  36.2530012 128.6544997  58.7429988  35.9615630 128.6997303  59.5609626
  21.4340012 122.8354997  57.3809988  22.0500012 123.4624997  57.7609988
  20.5720012 123.1514997  57.6529988  21.4017698 122.9639430  57.4697183
  33.3680012 126.8134997  57.4599988  33.7210012 126.4334997  58.2649988
  32.4190012 126.7204997  57.5469988  33.2880441 126.7489596  57.5818559
  37.8710012 131.2934997  57.6609988  38.6150012 131.8794997  57.5209988
  37.1770012 131.8614997  57.9949988  37.8790292 131.4505582  57.6869961
  34.2340012 125.4864997  59.6869988  33.9560012 124.7584997  60.2429988
  35.1610012 125.6054997  59.8919988  34.3213124 125.4028802  59.7908845
  27.4590012 127.9254997  55.9069988  27.6980012 127.1774997  55.3599988
  27.1900012 127.5374997  56.7399988  27.4553675 127.7706638  55.9446865
  26.3960012 127.4954997  58.3639988  26.5420012 126.9754997  59.1539988
  26.3930012 128.4024997  58.6699988  26.4155989 127.5468853  58.5136088
  22.8490012 124.7484997  58.8739988  22.1630012 125.1004997  59.4409988
  23.3710012 125.5114997  58.6269988  22.8256852 124.8998578  58.9182118
  29.1330012 129.1934997  59.1129988  28.3170012 129.6904997  59.1649988
  29.6630012 129.6684997  58.4729988  29.0929161 129.3257722  59.0335956
  26.4720012 130.2374997  59.0949988  26.6320012 131.0364997  58.5939988
  26.2740012 130.5434997  59.9799988  26.4671649 130.3884469  59.1459815
  25.2060012 116.9344997  58.7099988  25.1230012 117.8234997  59.0569988
  26.0960012 116.6694997  58.9419988  25.3149469 117.0201430  58.7887626
  23.4650012 127.3624997  57.7709988  24.0570012 128.0614997  58.0469988
  23.9240012 126.9294997  57.0509988  23.6081142 127.3997049  57.7114830
  21.7810012 120.0264997  56.8869988  21.7360012 120.9654997  57.0649988
  20.8930012 119.7904997  56.6169988  21.6548574 120.1231892  56.8748912
  21.5190012 128.7484997  61.7199988  20.6870012 129.2214997  61.7479988
  22.0650012 129.2584997  61.1219988  21.4789739 128.8821871  61.6429716
  29.4970012 129.7884997  56.0459988  28.8530012 129.1574997  56.3669988
  30.2590012 129.2574997  55.8139988  29.5118077 129.6302920  56.0586011
  34.1010012 129.6054997  56.2799988  34.3840012 128.8114997  56.7319988
  34.8410012 129.8384997  55.7189988  34.2397486 129.5282803  56.2660698
  25.0560012 125.5154997  56.1369988  25.1200012 124.7214997  56.6679988
  25.7090012 125.3964997  55.4469988  25.1530241 125.3907148  56.1164317
  30.4080012 126.5624997  55.8729988  30.1390012 126.7424997  56.7739988
  30.2020012 125.6364997  55.7419988  30.3433825 126.4620152  55.9785214
  26.2050012 123.4874997  58.4429988  25.7450012 123.0034997  59.1289988
  26.4600012 122.8194997  57.8069988  26.1764902 123.3308731  58.4509334
  27.2760012 121.7304997  56.7049988  27.0960012 121.5764997  55.7779988
  28.2260012 121.8384997  56.7499988  27.3797776 121.7240175  56.5841843
  36.6660012 124.0854997  56.1509988  36.3920012 123.6604997  55.3379988
  36.7050012 125.0164997  55.9339988  36.6337699 124.1532484  56.0103610
  27.1730012 132.4214997  57.7069988  28.1060012 132.5794997  57.8499988
  26.9090012 133.0964997  57.0819988  27.2649510 132.5343611  57.6420741
  20.7420012 127.0574997  57.1889988  21.6560012 127.1364997  57.4629988
  20.7490012 126.3704997  56.5229988  20.8681131 126.9753961  57.1364393
  37.7870012 122.9084997  58.3409988  37.2650012 123.2654997  57.6219988
  37.7540012 123.5834997  59.0189988  37.7111634 123.0485413  58.3343145
  36.1360012 120.1484997  56.8919988  36.2320012 120.8154997  56.2109988
  35.9960012 119.3324997  56.4099988  36.1302135 120.1294500  56.7338491
  35.3830012 117.5564997  56.0089988  35.9940012 117.1854997  56.6459988
  34.5470012 117.1354997  56.2049988  35.3535032 117.4487554  56.1227035
  35.6290012 116.3744997  61.0229988  35.8120012 115.9254997  61.8489988
  35.0300012 115.7894997  60.5599988  35.5730202 116.2339975  61.0733275
  37.4960012 116.4414997  57.5509988  37.9080012 115.7204997  57.0759988
  38.1780012 117.1114997  57.6099988  37.6445885 116.4332368  57.4938915
  19.7770012 116.4464997  60.6779988  18.8520012 116.6554997  60.5489988
  20.2310012 116.9304997  59.9889988  19.7117368 116.5405994  60.5671226
  21.0530012 114.4894997  58.6569988  21.4920012 115.1004997  58.0649988
  20.4200012 115.0274997  59.1309988  21.0274514 114.6459257  58.6400930
  20.9540012 130.4374997  59.5549988  20.2690012 130.3994997  58.8869988
  20.9580012 131.3504997  59.8429988  20.8608193 130.5557016  59.5025284
  22.9140012 116.4054997  57.0989988  23.4060012 115.7754997  56.5719988
  23.5380012 116.7014997  57.7629988  23.0655446 116.3593199  57.1165980
  29.8190012 131.6474997  57.9519988  30.6850012 132.0134997  57.7739988
  29.5720012 131.2074997  57.1379988  29.9042392 131.6381756  57.8176289
  36.5280012 131.2104997  60.6309988  36.3330012 130.4624997  60.0659988
  36.4890012 131.9684997  60.0479988  36.4960380 131.2106099  60.4748384
  22.7720012 131.3574997  56.5799988  22.5050012 131.6444997  57.4529988
  23.5440012 130.8114997  56.7319988  22.8397488 131.3230294  56.7201050
  38.9860012 120.8274997  61.7519988  38.5390012 121.6734997  61.7329988
  38.4250012 120.2474997  61.2359988  38.8489900 120.8649916  61.6796801
  49.9490012 126.4484997  61.8549988  49.6530012 126.1264997  61.0039988
  49.6240012 127.3484997  61.8959988  49.8646371 126.5260215  61.7441801
  48.8730012 123.0914997  60.2639988  48.1610012 123.6264997  59.9119988
  49.5640012 123.1474997  59.6039988  48.8690132 123.1722543  60.1266289
  48.9260012 121.5494997  57.3029988  49.6270012 121.5714997  57.9539988
  49.2290012 120.9214997  56.6469988  49.0627830 121.4676566  57.3033711
  52.2780012 123.3014997  61.2159988  51.5460012 123.5294997  61.7889988
  52.7260012 122.5874997  61.6709988  52.2383095 123.2362571  61.3559119
  51.1490012 122.4634997  58.9009988  51.7290012 122.6134997  59.6479988
  51.5630012 122.9344997  58.1779988  51.2842830 122.5476841  58.9054134
  54.8480012 114.2134997  58.7139988  53.9480012 114.3524997  59.0089988
  55.1000012 115.0444997  58.3119988  54.7588702 114.3449074  58.7000205
  56.0370012 128.5794997  57.0899988  56.1110012 129.5184997  57.2609988
  56.9430012 128.2744997  57.0339988  56.1695100 128.6666722  57.1058119
  51.4500012 131.3104997  57.7529988  51.8250012 130.5664997  57.2829988
  51.4540012 131.0404997  58.6719988  51.5018915 131.1721486  57.8127824
  52.6270012 123.4964997  56.5309988  52.6690012 123.2734997  55.6009988
  53.4760012 123.8954997  56.7209988  52.7475396 123.5199155  56.4293627
  48.1990012 117.3724997  57.2009988  47.9460012 117.3914997  58.1239988
  47.9430012 116.5004997  56.8999988  48.1297790 117.2572437  57.2866263
  45.0820012 117.8174997  56.3019988  44.6510012 117.3724997  57.0319988
  44.3640012 118.1894997  55.7899988  44.9259438 117.8068940  56.3326799
  39.5980012 118.3054997  58.7779988  40.0720012 118.8964997  58.1929988
  38.8810012 118.8364997  59.1249988  39.5659341 118.4580867  58.7448836
  45.0260012 119.4004997  60.1179988  45.9570012 119.5294997  60.2959988
  44.8110012 120.0704997  59.4679988  45.1244247 119.5086565  60.0545747
  43.7000012 120.5954997  57.6849988  43.1570012 120.2154997  56.9929988
  44.5330012 120.7894997  57.2559988  43.7384399 120.5698124  57.5324526
  47.0350012 125.1604997  59.6199988  46.2900012 124.6534997  59.2979988
  46.9010012 125.2094997  60.5669988  46.9148776 125.0976940  59.7038647
  50.9330012 117.9744997  57.8199988  49.9940012 118.0864997  57.6679988
  51.2300012 118.8314997  58.1259988  50.8447666 118.1056443  57.8405768
  51.6510012 119.8414997  59.4799988  52.5430012 119.7044997  59.7989988
  51.7080012 120.6324997  58.9439988  51.7806285 119.9296660  59.4511691
  49.1610012 126.6194997  58.6459988  48.8650012 127.4454997  59.0269988
  48.4580012 125.9994997  58.8419988  49.0254914 126.6488199  58.7246443
  56.5360012 120.0514997  59.1749988  55.9820012 119.6554997  58.5029988
  56.6360012 120.9614997  58.8969988  56.4737059 120.1203586  59.0454401
  40.2900012 122.8354997  57.3809988  40.9060012 123.4624997  57.7609988
  39.4280012 123.1514997  57.6529988  40.2577698 122.9639430  57.4697183
  52.2240012 126.8134997  57.4599988  52.5770012 126.4334997  58.2649988
  51.2750012 126.7204997  57.5469988  52.1440441 126.7489596  57.5818559
  56.7270012 131.2934997  57.6609988  57.4710012 131.8794997  57.5209988
  56.0330012 131.8614997  57.9949988  56.7350292 131.4505582  57.6869961
  53.0900012 125.4864997  59.6869988  52.8120012 124.7584997  60.2429988
  54.0170012 125.6054997  59.8919988  53.1773124 125.4028802  59.7908845
  46.3150012 127.9254997  55.9069988  46.5540012 127.1774997  55.3599988
  46.0460012 127.5374997  56.7399988  46.3113675 127.7706638  55.9446865
  45.2520012 127.4954997  58.3639988  45.3980012 126.9754997  59.1539988
  45.2490012 128.4024997  58.6699988  45.2715989 127.5468853  58.5136088
  41.7050012 124.7484997  58.8739988  41.0190012 125.1004997  59.4409988
  42.2270012 125.5114997  58.6269988  41.6816852 124.8998578  58.9182118
  50.3210012 117.0624997  60.2499988  50.5410012 117.5344997  59.4469988
  50.8790012 117.4574997  60.9199988  50.4264968 117.1804285  60.2307331
  47.9890012 129.1934997  59.1129988  47.1730012 129.6904997  59.1649988
  48.5190012 129.6684997  58.4729988  47.9489161 129.3257722  59.0335956
  45.3280012 130.2374997  59.0949988  45.4880012 131.0364997  58.5939988
  45.1300012 130.5434997  59.9799988  45.3231649 130.3884469  59.1459815
  44.0620012 116.9344997  58.7099988  43.9790012 117.8234997  59.0569988
  44.9520012 116.6694997  58.9419988  44.1709469 117.0201430  58.7887626
  42.3210012 127.3624997  57.7709988  42.9130012 128.0614997  58.0469988
  42.7800012 126.9294997  57.0509988  42.4641142 127.3997049  57.7114830
  40.6370012 120.0264997  56.8869988  40.5920012 120.9654997  57.0649988
  39.7490012 119.7904997  56.6169988  40.5108574 120.1231892  56.8748912
  48.3530012 129.7884997  56.0459988  47.7090012 129.1574997  56.3669988
  49.1150012 129.2574997  55.8139988  48.3678077 129.6302920  56.0586011
  52.9570012 129.6054997  56.2799988  53.2400012 128.8114997  56.7319988
  53.6970012 129.8384997  55.7189988  53.0957486 129.5282803  56.2660698
  43.9120012 125.5154997  56.1369988  43.9760012 124.7214997  56.6679988
  44.5650012 125.3964997  55.4469988  44.0090241 125.3907148  56.1164317
  49.2640012 126.5624997  55.8729988  48.9950012 126.7424997  56.7739988
  49.0580012 125.6364997  55.7419988  49.1993825 126.4620152  55.9785214
  45.0610012 123.4874997  58.4429988  44.6010012 123.0034997  59.1289988
  45.3160012 122.8194997  57.8069988  45.0324902 123.3308731  58.4509334
  46.1320012 121.7304997  56.7049988  45.9520012 121.5764997  55.7779988
  47.0820012 121.8384997  56.7499988  46.2357776 121.7240175  56.5841843
  55.5220012 124.0854997  56.1509988  55.2480012 123.6604997  55.3379988
  55.5610012 125.0164997  55.9339988  55.4897699 124.1532484  56.0103610
  46.0290012 132.4214997  57.7069988  46.9620012 132.5794997  57.8499988
  45.7650012 133.0964997  57.0819988  46.1209510 132.5343611  57.6420741
  39.5980012 127.0574997  57.1889988  40.5120012 127.1364997  57.4629988
  39.6050012 126.3704997  56.5229988  39.7241131 126.9753961  57.1364393
  56.6430012 122.9084997  58.3409988  56.1210012 123.2654997  57.6219988
  56.6100012 123.5834997  59.0189988  56.5671634 123.0485413  58.3343145
  54.9920012 120.1484997  56.8919988  55.0880012 120.8154997  56.2109988
  54.8520012 119.3324997  56.4099988  54.9862135 120.1294500  56.7338491
  54.2390012 117.5564997  56.0089988  54.8500012 117.1854997  56.6459988
  53.4030012 117.1354997  56.2049988  54.2095032 117.4487554  56.1227035
  56.3520012 116.4414997  57.5509988  56.7640012 115.7204997  57.0759988
  57.0340012 117.1114997  57.6099988  56.5005885 116.4332368  57.4938915
  39.8100012 130.4374997  59.5549988  39.1250012 130.3994997  58.8869988
  39.8140012 131.3504997  59.8429988  39.7168193 130.5557016  59.5025284
  41.7700012 116.4054997  57.0989988  42.2620012 115.7754997  56.5719988
  42.3940012 116.7014997  57.7629988  41.9215446 116.3593199  57.1165980
  46.7960012 116.6984997  59.5559988  46.9740012 116.0524997  60.2389988
  46.7430012 117.5324997  60.0239988  46.8131829 116.7227985  59.7125940
  48.6750012 131.6474997  57.9519988  49.5410012 132.0134997  57.7739988
  48.4280012 131.2074997  57.1379988  48.7602392 131.6381756  57.8176289
  55.3840012 131.2104997  60.6309988  55.1890012 130.4624997  60.0659988
  55.3450012 131.9684997  60.0479988  55.3520380 131.2106099  60.4748384
  41.6280012 131.3574997  56.5799988  41.3610012 131.6444997  57.4529988
  42.4000012 130.8114997  56.7319988  41.6957488 131.3230294  56.7201050
  58.5330012 126.2594997  60.1679988  58.2610012 126.4884997  59.2789988
  58.5790012 127.0974997  60.6279988  58.5020094 126.4041213  60.1085697
  67.7820012 121.5494997  57.3029988  68.4830012 121.5714997  57.9539988
  68.0850012 120.9214997  56.6469988  67.9187830 121.4676566  57.3033711
  70.0050012 122.4634997  58.9009988  70.5850012 122.6134997  59.6479988
  70.4190012 122.9344997  58.1779988  70.1402831 122.5476841  58.9054134
  73.7040012 114.2134997  58.7139988  72.8040012 114.3524997  59.0089988
  73.9560012 115.0444997  58.3119988  73.6148702 114.3449074  58.7000205
  61.7700012 123.0014997  60.6879988  61.4780012 123.7694997  60.1969988
  61.0960012 122.3414997  60.5249988  61.6389081 123.0174406  60.5987340
  74.8930012 128.5794997  57.0899988  74.9670012 129.5184997  57.2609988
  75.7990012 128.2744997  57.0339988  75.0255100 128.6666722  57.1058119
  67.2040012 132.1564997  60.7509988  67.1290012 132.0354997  59.8049988
  67.2370012 133.1064997  60.8699988  67.1981848 132.2682500  60.6374834
  70.3060012 131.3104997  57.7529988  70.6810012 130.5664997  57.2829988
  70.3100012 131.0404997  58.6719988  70.3578915 131.1721486  57.8127824
  69.9750012 131.2364997  60.5029988  69.0390012 131.3364997  60.6809988
  70.2550012 130.5274997  61.0809988  69.8848255 131.1542711  60.6055391
  71.4830012 123.4964997  56.5309988  71.5250012 123.2734997  55.6009988
  72.3320012 123.8954997  56.7209988  71.6035396 123.5199155  56.4293627
  67.0550012 117.3724997  57.2009988  66.8020012 117.3914997  58.1239988
  66.7990012 116.5004997  56.8999988  66.9857790 117.2572437  57.2866263
  68.3540012 120.7604997  61.3649988  67.9450012 121.5754997  61.0739988
  69.0750012 120.6204997  60.7509988  68.3954537 120.8532018  61.2421342
  63.9380012 117.8174997  56.3019988  63.5070012 117.3724997  57.0319988
  63.2200012 118.1894997  55.7899988  63.7819438 117.8068940  56.3326799
  58.4540012 118.3054997  58.7779988  58.9280012 118.8964997  58.1929988
  57.7370012 118.8364997  59.1249988  58.4219341 118.4580867  58.7448836
  62.5560012 120.5954997  57.6849988  62.0130012 120.2154997  56.9929988
  63.3890012 120.7894997  57.2559988  62.5944399 120.5698124  57.5324526
  65.8910012 125.1604997  59.6199988  65.1460012 124.6534997  59.2979988
  65.7570012 125.2094997  60.5669988  65.7708776 125.0976940  59.7038647
  69.7890012 117.9744997  57.8199988  68.8500012 118.0864997  57.6679988
  70.0860012 118.8314997  58.1259988  69.7007666 118.1056443  57.8405768
  75.3920012 120.0514997  59.1749988  74.8380012 119.6554997  58.5029988
  75.4920012 120.9614997  58.8969988  75.3297059 120.1203586  59.0454401
  73.6870012 128.8374997  59.6399988  73.3140012 128.0114997  59.9489988
  73.9650012 128.6544997  58.7429988  73.6735630 128.6997303  59.5609626
  59.1460012 122.8354997  57.3809988  59.7620012 123.4624997  57.7609988
  58.2840012 123.1514997  57.6529988  59.1137698 122.9639430  57.4697183
  71.0800012 126.8134997  57.4599988  71.4330012 126.4334997  58.2649988
  70.1310012 126.7204997  57.5469988  71.0000441 126.7489596  57.5818559
  75.5830012 131.2934997  57.6609988  76.3270012 131.8794997  57.5209988
  74.8890012 131.8614997  57.9949988  75.5910292 131.4505582  57.6869961
  65.1710012 127.9254997  55.9069988  65.4100012 127.1774997  55.3599988
  64.9020012 127.5374997  56.7399988  65.1673675 127.7706638  55.9446865
  64.1080012 127.4954997  58.3639988  64.2540012 126.9754997  59.1539988
  64.1050012 128.4024997  58.6699988  64.1275989 127.5468853  58.5136088
  60.5610012 124.7484997  58.8739988  59.8750012 125.1004997  59.4409988
  61.0830012 125.5114997  58.6269988  60.5376852 124.8998578  58.9182118
  69.1770012 117.0624997  60.2499988  69.3970012 117.5344997  59.4469988
  69.7350012 117.4574997  60.9199988  69.2824968 117.1804285  60.2307331
  66.8450012 129.1934997  59.1129988  66.0290012 129.6904997  59.1649988
  67.3750012 129.6684997  58.4729988  66.8049161 129.3257722  59.0335956
  66.3770012 118.7904997  61.0849988  67.1890012 119.2954997  61.1309988
  66.1320012 118.6454997  61.9989988  66.4550520 118.8400375  61.2148517
  67.2600012 115.8714997  62.0229988  66.9140012 116.4894997  62.6679988
  67.9190012 116.3724997  61.5419988  67.3017826 116.0235802  62.0460971
  62.9180012 116.9344997  58.7099988  62.8350012 117.8234997  59.0569988
  63.8080012 116.6694997  58.9419988  63.0269469 117.0201430  58.7887626
  61.1770012 127.3624997  57.7709988  61.7690012 128.0614997  58.0469988
  61.6360012 126.9294997  57.0509988  61.3201142 127.3997049  57.7114830
  59.4930012 120.0264997  56.8869988  59.4480012 120.9654997  57.0649988
  58.6050012 119.7904997  56.6169988  59.3668574 120.1231892  56.8748912
  59.2310012 128.7484997  61.7199988  58.3990012 129.2214997  61.7479988
  59.7770012 129.2584997  61.1219988  59.1909739 128.8821871  61.6429716
  67.2090012 129.7884997  56.0459988  66.5650012 129.1574997  56.3669988
  67.9710012 129.2574997  55.8139988  67.2238077 129.6302920  56.0586011
  71.8130012 129.6054997  56.2799988  72.0960012 128.8114997  56.7319988
  72.5530012 129.8384997  55.7189988  71.9517486 129.5282803  56.2660698
  62.7680012 125.5154997  56.1369988  62.8320012 124.7214997  56.6679988
  63.4210012 125.3964997  55.4469988  62.8650241 125.3907148  56.1164317
  68.1200012 126.5624997  55.8729988  67.8510012 126.7424997  56.7739988
  67.9140012 125.6364997  55.7419988  68.0553825 126.4620152  55.9785214
  63.9170012 123.4874997  58.4429988  63.4570012 123.0034997  59.1289988
  64.1720012 122.8194997  57.8069988  63.8884902 123.3308731  58.4509334
  64.9880012 121.7304997  56.7049988  64.8080012 121.5764997  55.7779988
  65.9380012 121.8384997  56.7499988  65.0917776 121.7240175  56.5841843
  74.3780012 124.0854997  56.1509988  74.1040012 123.6604997  55.3379988
  74.4170012 125.0164997  55.9339988  74.3457699 124.1532484  56.0103610
  64.8850012 132.4214997  57.7069988  65.8180012 132.5794997  57.8499988
  64.6210012 133.0964997  57.0819988  64.9769510 132.5343611  57.6420741
  58.4540012 127.0574997  57.1889988  59.3680012 127.1364997  57.4629988
  58.4610012 126.3704997  56.5229988  58.5801131 126.9753961  57.1364393
  74.8360012 124.9544997  60.1259988  75.6860012 125.3754997  60.2529988
  74.8420012 124.2144997  60.7329988  74.9531372 124.9120803  60.2254344
  75.4990012 122.9084997  58.3409988  74.9770012 123.2654997  57.6219988
  75.4660012 123.5834997  59.0189988  75.4231634 123.0485413  58.3343145
  73.8480012 120.1484997  56.8919988  73.9440012 120.8154997  56.2109988
  73.7080012 119.3324997  56.4099988  73.8422135 120.1294500  56.7338491
  73.0950012 117.5564997  56.0089988  73.7060012 117.1854997  56.6459988
  72.2590012 117.1354997  56.2049988  73.0655032 117.4487554  56.1227035
  75.2080012 116.4414997  57.5509988  75.6200012 115.7204997  57.0759988
  75.8900012 117.1114997  57.6099988  75.3565885 116.4332368  57.4938915
  58.7650012 114.4894997  58.6569988  59.2040012 115.1004997  58.0649988
  58.1320012 115.0274997  59.1309988  58.7394514 114.6459257  58.6400930
  71.4180012 114.6744997  60.0079988  70.7160012 115.2894997  59.7989988
  70.9740012 113.8364997  60.1389988  71.2616330 114.6455783  59.9970328
  58.6660012 130.4374997  59.5549988  57.9810012 130.3994997  58.8869988
  58.6700012 131.3504997  59.8429988  58.5728193 130.5557016  59.5025284
  60.6260012 116.4054997  57.0989988  61.1180012 115.7754997  56.5719988
  61.2500012 116.7014997  57.7629988  60.7775446 116.3593199  57.1165980
  65.6520012 116.6984997  59.5559988  65.8300012 116.0524997  60.2389988
  65.5990012 117.5324997  60.0239988  65.6691829 116.7227985  59.7125940
  67.5310012 131.6474997  57.9519988  68.3970012 132.0134997  57.7739988
  67.2840012 131.2074997  57.1379988  67.6162392 131.6381756  57.8176289
  60.4840012 131.3574997  56.5799988  60.2170012 131.6444997  57.4529988
  61.2560012 130.8114997  56.7319988  60.5517488 131.3230294  56.7201050
  77.3890012 126.2594997  60.1679988  77.1170012 126.4884997  59.2789988
  77.4350012 127.0974997  60.6279988  77.3580094 126.4041213  60.1085697
  86.5850012 123.0914997  60.2639988  85.8730012 123.6264997  59.9119988
  87.2760012 123.1474997  59.6039988  86.5810132 123.1722543  60.1266289
  86.6380012 121.5494997  57.3029988  87.3390012 121.5714997  57.9539988
  86.9410012 120.9214997  56.6469988  86.7747830 121.4676566  57.3033711
  88.8610012 122.4634997  58.9009988  89.4410012 122.6134997  59.6479988
  89.2750012 122.9344997  58.1779988  88.9962830 122.5476841  58.9054134
  92.5600012 114.2134997  58.7139988  91.6600012 114.3524997  59.0089988
  92.8120012 115.0444997  58.3119988  92.4708702 114.3449074  58.7000205
  93.7490012 128.5794997  57.0899988  93.8230012 129.5184997  57.2609988
  94.6550012 128.2744997  57.0339988  93.8815100 128.6666722  57.1058119
  89.1620012 131.3104997  57.7529988  89.5370012 130.5664997  57.2829988
  89.1660012 131.0404997  58.6719988  89.2138915 131.1721486  57.8127824
  88.8310012 131.2364997  60.5029988  87.8950012 131.3364997  60.6809988
  89.1110012 130.5274997  61.0809988  88.7408255 131.1542711  60.6055391
  90.3390012 123.4964997  56.5309988  90.3810012 123.2734997  55.6009988
  91.1880012 123.8954997  56.7209988  90.4595396 123.5199155  56.4293627
  85.9110012 117.3724997  57.2009988  85.6580012 117.3914997  58.1239988
  85.6550012 116.5004997  56.8999988  85.8417790 117.2572437  57.2866263
  82.7940012 117.8174997  56.3019988  82.3630012 117.3724997  57.0319988
  82.0760012 118.1894997  55.7899988  82.6379438 117.8068940  56.3326799
  77.3100012 118.3054997  58.7779988  77.7840012 118.8964997  58.1929988
  76.5930012 118.8364997  59.1249988  77.2779341 118.4580867  58.7448836
  82.7380012 119.4004997  60.1179988  83.6690012 119.5294997  60.2959988
  82.5230012 120.0704997  59.4679988  82.8364247 119.5086565  60.0545747
  81.4120012 120.5954997  57.6849988  80.8690012 120.2154997  56.9929988
  82.2450012 120.7894997  57.2559988  81.4504399 120.5698124  57.5324526
  88.6450012 117.9744997  57.8199988  87.7060012 118.0864997  57.6679988
  88.9420012 118.8314997  58.1259988  88.5567666 118.1056443  57.8405768
  89.3630012 119.8414997  59.4799988  90.2550012 119.7044997  59.7989988
  89.4200012 120.6324997  58.9439988  89.4926285 119.9296660  59.4511691
  86.8730012 126.6194997  58.6459988  86.5770012 127.4454997  59.0269988
  86.1700012 125.9994997  58.8419988  86.7374914 126.6488199  58.7246443
  94.2480012 120.0514997  59.1749988  93.6940012 119.6554997  58.5029988
  94.3480012 120.9614997  58.8969988  94.1857059 120.1203586  59.0454401
  78.0020012 122.8354997  57.3809988  78.6180012 123.4624997  57.7609988
  77.1400012 123.1514997  57.6529988  77.9697698 122.9639430  57.4697183
  82.3570012 130.6584997  61.9159988  81.4070012 130.7634997  61.9669988
  82.7090012 131.4784997  62.2609988  82.2744203 130.7838314  61.9696650
  89.9360012 126.8134997  57.4599988  90.2890012 126.4334997  58.2649988
  88.9870012 126.7204997  57.5469988  89.8560441 126.7489596  57.5818559
  94.4390012 131.2934997  57.6609988  95.1830012 131.8794997  57.5209988
  93.7450012 131.8614997  57.9949988  94.4470292 131.4505582  57.6869961
  84.0270012 127.9254997  55.9069988  84.2660012 127.1774997  55.3599988
  83.7580012 127.5374997  56.7399988  84.0233675 127.7706638  55.9446865
  82.9640012 127.4954997  58.3639988  83.1100012 126.9754997  59.1539988
  82.9610012 128.4024997  58.6699988  82.9835989 127.5468853  58.5136088
  79.4170012 124.7484997  58.8739988  78.7310012 125.1004997  59.4409988
  79.9390012 125.5114997  58.6269988  79.3936852 124.8998578  58.9182118
  85.7010012 129.1934997  59.1129988  84.8850012 129.6904997  59.1649988
  86.2310012 129.6684997  58.4729988  85.6609161 129.3257722  59.0335956
  83.0400012 130.2374997  59.0949988  83.2000012 131.0364997  58.5939988
  82.8420012 130.5434997  59.9799988  83.0351649 130.3884469  59.1459815
  81.7740012 116.9344997  58.7099988  81.6910012 117.8234997  59.0569988
  82.6640012 116.6694997  58.9419988  81.8829469 117.0201430  58.7887626
  80.0330012 127.3624997  57.7709988  80.6250012 128.0614997  58.0469988
  80.4920012 126.9294997  57.0509988  80.1761142 127.3997049  57.7114830
  78.3490012 120.0264997  56.8869988  78.3040012 120.9654997  57.0649988
  77.4610012 119.7904997  56.6169988  78.2228574 120.1231892  56.8748912
  86.0650012 129.7884997  56.0459988  85.4210012 129.1574997  56.3669988
  86.8270012 129.2574997  55.8139988  86.0798077 129.6302920  56.0586011
  90.6690012 129.6054997  56.2799988  90.9520012 128.8114997  56.7319988
  91.4090012 129.8384997  55.7189988  90.8077486 129.5282803  56.2660698
  81.6240012 125.5154997  56.1369988  81.6880012 124.7214997  56.6679988
  82.2770012 125.3964997  55.4469988  81.7210241 125.3907148  56.1164317
  86.9760012 126.5624997  55.8729988  86.7070012 126.7424997  56.7739988
  86.7700012 125.6364997  55.7419988  86.9113825 126.4620152  55.9785214
  82.7730012 123.4874997  58.4429988  82.3130012 123.0034997  59.1289988
  83.0280012 122.8194997  57.8069988  82.7444902 123.3308731  58.4509334
  83.8440012 121.7304997  56.7049988  83.6640012 121.5764997  55.7779988
  84.7940012 121.8384997  56.7499988  83.9477776 121.7240175  56.5841843
  93.2340012 124.0854997  56.1509988  92.9600012 123.6604997  55.3379988
  93.2730012 125.0164997  55.9339988  93.2017699 124.1532484  56.0103610
  83.7410012 132.4214997  57.7069988  84.6740012 132.5794997  57.8499988
  83.4770012 133.0964997  57.0819988  83.8329510 132.5343611  57.6420741
  77.3100012 127.0574997  57.1889988  78.2240012 127.1364997  57.4629988
  77.3170012 126.3704997  56.5229988  77.4361131 126.9753961  57.1364393
  94.3550012 122.9084997  58.3409988  93.8330012 123.2654997  57.6219988
  94.3220012 123.5834997  59.0189988  94.2791634 123.0485413  58.3343145
  92.7040012 120.1484997  56.8919988  92.8000012 120.8154997  56.2109988
  92.5640012 119.3324997  56.4099988  92.6982135 120.1294500  56.7338491
  91.9510012 117.5564997  56.0089988  92.5620012 117.1854997  56.6459988
  91.1150012 117.1354997  56.2049988  91.9215032 117.4487554  56.1227035
  91.5840012 119.1114997  60.9749988  91.8640012 118.2044997  61.0989988
  92.3430012 119.5454997  60.5859988  91.7249277 119.0460942  60.9393682
  94.0640012 116.4414997  57.5509988  94.4760012 115.7204997  57.0759988
  94.7460012 117.1114997  57.6099988  94.2125885 116.4332368  57.4938915
  77.6210012 114.4894997  58.6569988  78.0600012 115.1004997  58.0649988
  76.9880012 115.0274997  59.1309988  77.5954514 114.6459257  58.6400930
  90.2740012 114.6744997  60.0079988  89.5720012 115.2894997  59.7989988
  89.8300012 113.8364997  60.1389988  90.1176330 114.6455783  59.9970328
  79.4820012 116.4054997  57.0989988  79.9740012 115.7754997  56.5719988
  80.1060012 116.7014997  57.7629988  79.6335446 116.3593199  57.1165980
  84.5080012 116.6984997  59.5559988  84.6860012 116.0524997  60.2389988
  84.4550012 117.5324997  60.0239988  84.5251829 116.7227985  59.7125940
  86.3870012 131.6474997  57.9519988  87.2530012 132.0134997  57.7739988
  86.1400012 131.2074997  57.1379988  86.4722392 131.6381756  57.8176289
  79.3400012 131.3574997  56.5799988  79.0730012 131.6444997  57.4529988
  80.1120012 130.8114997  56.7319988  79.4077488 131.3230294  56.7201050
  96.2450012 126.2594997  60.1679988  95.9730012 126.4884997  59.2789988
  96.2910012 127.0974997  60.6279988  96.2140094 126.4041213  60.1085697
 105.4410012 123.0914997  60.2639988 104.7290012 123.6264997  59.9119988
 106.1320012 123.1474997  59.6039988 105.4370132 123.1722543  60.1266289
 105.4940012 121.5494997  57.3029988 106.1950012 121.5714997  57.9539988
 105.7970012 120.9214997  56.6469988 105.6307830 121.4676566  57.3033711
 107.7170012 122.4634997  58.9009988 108.2970012 122.6134997  59.6479988
 108.1310012 122.9344997  58.1779988 107.8522830 122.5476841  58.9054134
 111.4160012 114.2134997  58.7139988 110.5160012 114.3524997  59.0089988
 111.6680012 115.0444997  58.3119988 111.3268702 114.3449074  58.7000205
 112.6050012 128.5794997  57.0899988 112.6790012 129.5184997  57.2609988
 113.5110012 128.2744997  57.0339988 112.7375100 128.6666722  57.1058119
 108.0180012 131.3104997  57.7529988 108.3930012 130.5664997  57.2829988
 108.0220012 131.0404997  58.6719988 108.0698915 131.1721486  57.8127824
 107.6870012 131.2364997  60.5029988 106.7510012 131.3364997  60.6809988
 107.9670012 130.5274997  61.0809988 107.5968255 131.1542711  60.6055391
 109.1950012 123.4964997  56.5309988 109.2370012 123.2734997  55.6009988
 110.0440012 123.8954997  56.7209988 109.3155396 123.5199155  56.4293627
 104.7670012 117.3724997  57.2009988 104.5140012 117.3914997  58.1239988
 104.5110012 116.5004997  56.8999988 104.6977790 117.2572437  57.2866263
 106.0660012 120.7604997  61.3649988 105.6570012 121.5754997  61.0739988
 106.7870012 120.6204997  60.7509988 106.1074537 120.8532018  61.2421342
 101.6500012 117.8174997  56.3019988 101.2190012 117.3724997  57.0319988
 100.9320012 118.1894997  55.7899988 101.4939438 117.8068940  56.3326799
  96.1660012 118.3054997  58.7779988  96.6400012 118.8964997  58.1929988
  95.4490012 118.8364997  59.1249988  96.1339341 118.4580867  58.7448836
 100.2680012 120.5954997  57.6849988  99.7250012 120.2154997  56.9929988
 101.1010012 120.7894997  57.2559988 100.3064399 120.5698124  57.5324526
 103.6030012 125.1604997  59.6199988 102.8580012 124.6534997  59.2979988
 103.4690012 125.2094997  60.5669988 103.4828776 125.0976940  59.7038647
 107.5010012 117.9744997  57.8199988 106.5620012 118.0864997  57.6679988
 107.7980012 118.8314997  58.1259988 107.4127666 118.1056443  57.8405768
 108.2190012 119.8414997  59.4799988 109.1110012 119.7044997  59.7989988
 108.2760012 120.6324997  58.9439988 108.3486285 119.9296660  59.4511691
 105.7290012 126.6194997  58.6459988 105.4330012 127.4454997  59.0269988
 105.0260012 125.9994997  58.8419988 105.5934914 126.6488199  58.7246443
 113.1040012 120.0514997  59.1749988 112.5500012 119.6554997  58.5029988
 113.2040012 120.9614997  58.8969988 113.0417059 120.1203586  59.0454401
 111.3990012 128.8374997  59.6399988 111.0260012 128.0114997  59.9489988
 111.6770012 128.6544997  58.7429988 111.3855630 128.6997303  59.5609626
  96.8580012 122.8354997  57.3809988  97.4740012 123.4624997  57.7609988
  95.9960012 123.1514997  57.6529988  96.8257698 122.9639430  57.4697183
 108.7920012 126.8134997  57.4599988 109.1450012 126.4334997  58.2649988
 107.8430012 126.7204997  57.5469988 108.7120441 126.7489596  57.5818559
 113.2950012 131.2934997  57.6609988 114.0390012 131.8794997  57.5209988
 112.6010012 131.8614997  57.9949988 113.3030292 131.4505582  57.6869961
 102.8830012 127.9254997  55.9069988 103.1220012 127.1774997  55.3599988
 102.6140012 127.5374997  56.7399988 102.8793675 127.7706638  55.9446865
 101.8200012 127.4954997  58.3639988 101.9660012 126.9754997  59.1539988
 101.8170012 128.4024997  58.6699988 101.8395989 127.5468853  58.5136088
  98.2730012 124.7484997  58.8739988  97.5870012 125.1004997  59.4409988
  98.7950012 125.5114997  58.6269988  98.2496852 124.8998578  58.9182118
 106.8890012 117.0624997  60.2499988 107.1090012 117.5344997  59.4469988
 107.4470012 117.4574997  60.9199988 106.9944968 117.1804285  60.2307331
 104.5570012 129.1934997  59.1129988 103.7410012 129.6904997  59.1649988
 105.0870012 129.6684997  58.4729988 104.5169161 129.3257722  59.0335956
 101.8960012 130.2374997  59.0949988 102.0560012 131.0364997  58.5939988
 101.6980012 130.5434997  59.9799988 101.8911649 130.3884469  59.1459815
 100.6300012 116.9344997  58.7099988 100.5470012 117.8234997  59.0569988
 101.5200012 116.6694997  58.9419988 100.7389469 117.0201430  58.7887626
  98.8890012 127.3624997  57.7709988  99.4810012 128.0614997  58.0469988
  99.3480012 126.9294997  57.0509988  99.0321142 127.3997049  57.7114830
  97.2050012 120.0264997  56.8869988  97.1600012 120.9654997  57.0649988
  96.3170012 119.7904997  56.6169988  97.0788574 120.1231892  56.8748912
 104.9210012 129.7884997  56.0459988 104.2770012 129.1574997  56.3669988
 105.6830012 129.2574997  55.8139988 104.9358077 129.6302920  56.0586011
 109.5250012 129.6054997  56.2799988 109.8080012 128.8114997  56.7319988
 110.2650012 129.8384997  55.7189988 109.6637486 129.5282803  56.2660698
 100.4800012 125.5154997  56.1369988 100.5440012 124.7214997  56.6679988
 101.1330012 125.3964997  55.4469988 100.5770241 125.3907148  56.1164317
 105.8320012 126.5624997  55.8729988 105.5630012 126.7424997  56.7739988
 105.6260012 125.6364997  55.7419988 105.7673825 126.4620152  55.9785214
 101.6290012 123.4874997  58.4429988 101.1690012 123.0034997  59.1289988
 101.8840012 122.8194997  57.8069988 101.6004902 123.3308731  58.4509334
 102.7000012 121.7304997  56.7049988 102.5200012 121.5764997  55.7779988
 103.6500012 121.8384997  56.7499988 102.8037776 121.7240175  56.5841843
 112.0900012 124.0854997  56.1509988 111.8160012 123.6604997  55.3379988
 112.1290012 125.0164997  55.9339988 112.0577699 124.1532484  56.0103610
 102.5970012 132.4214997  57.7069988 103.5300012 132.5794997  57.8499988
 102.3330012 133.0964997  57.0819988 102.6889510 132.5343611  57.6420741
  96.1660012 127.0574997  57.1889988  97.0800012 127.1364997  57.4629988
  96.1730012 126.3704997  56.5229988  96.2921131 126.9753961  57.1364393
 113.2110012 122.9084997  58.3409988 112.6890012 123.2654997  57.6219988
 113.1780012 123.5834997  59.0189988 113.1351634 123.0485413  58.3343145
 111.5600012 120.1484997  56.8919988 111.6560012 120.8154997  56.2109988
 111.4200012 119.3324997  56.4099988 111.5542135 120.1294500  56.7338491
 110.8070012 117.5564997  56.0089988 111.4180012 117.1854997  56.6459988
 109.9710012 117.1354997  56.2049988 110.7775032 117.4487554  56.1227035
 112.9200012 116.4414997  57.5509988 113.3320012 115.7204997  57.0759988
 113.6020012 117.1114997  57.6099988 113.0685885 116.4332368  57.4938915
  96.3780012 130.4374997  59.5549988  95.6930012 130.3994997  58.8869988
  96.3820012 131.3504997  59.8429988  96.2848193 130.5557016  59.5025284
  98.3380012 116.4054997  57.0989988  98.8300012 115.7754997  56.5719988
  98.9620012 116.7014997  57.7629988  98.4895446 116.3593199  57.1165980
 103.3640012 116.6984997  59.5559988 103.5420012 116.0524997  60.2389988
 103.3110012 117.5324997  60.0239988 103.3811829 116.7227985  59.7125940
 105.2430012 131.6474997  57.9519988 106.1090012 132.0134997  57.7739988
 104.9960012 131.2074997  57.1379988 105.3282392 131.6381756  57.8176289
 111.9520012 131.2104997  60.6309988 111.7570012 130.4624997  60.0659988
 111.9130012 131.9684997  60.0479988 111.9200380 131.2106099  60.4748384
  98.1960012 131.3574997  56.5799988  97.9290012 131.6444997  57.4529988
  98.9680012 130.8114997  56.7319988  98.2637488 131.3230294  56.7201050
 115.1010012 126.2594997  60.1679988 114.8290012 126.4884997  59.2789988
 115.1470012 127.0974997  60.6279988 115.0700094 126.4041213  60.1085697
 124.3500012 121.5494997  57.3029988 125.0510012 121.5714997  57.9539988
 124.6530012 120.9214997  56.6469988 124.4867830 121.4676566  57.3033711
 126.5730012 122.4634997  58.9009988 127.1530012 122.6134997  59.6479988
 126.9870012 122.9344997  58.1779988 126.7082830 122.5476841  58.9054134
 130.2720012 114.2134997  58.7139988 129.3720012 114.3524997  59.0089988
 130.5240012 115.0444997  58.3119988 130.1828702 114.3449074  58.7000205
 131.4610012 128.5794997  57.0899988 131.5350012 129.5184997  57.2609988
 132.3670012 128.2744997  57.0339988 131.5935100 128.6666722  57.1058119
 123.7720012 132.1564997  60.7509988 123.6970012 132.0354997  59.8049988
 123.8050012 133.1064997  60.8699988 123.7661848 132.2682500  60.6374834
 126.8740012 131.3104997  57.7529988 127.2490012 130.5664997  57.2829988
 126.8780012 131.0404997  58.6719988 126.9258915 131.1721486  57.8127824
 126.5430012 131.2364997  60.5029988 125.6070012 131.3364997  60.6809988
 126.8230012 130.5274997  61.0809988 126.4528255 131.1542711  60.6055391
 128.0510012 123.4964997  56.5309988 128.0930012 123.2734997  55.6009988
 128.9000012 123.8954997  56.7209988 128.1715396 123.5199155  56.4293627
 123.6230012 117.3724997  57.2009988 123.3700012 117.3914997  58.1239988
 123.3670012 116.5004997  56.8999988 123.5537790 117.2572437  57.2866263
 120.5060012 117.8174997  56.3019988 120.0750012 117.3724997  57.0319988
 119.7880012 118.1894997  55.7899988 120.3499438 117.8068940  56.3326799
 115.0220012 118.3054997  58.7779988 115.4960012 118.8964997  58.1929988
 114.3050012 118.8364997  59.1249988 114.9899341 118.4580867  58.7448836
 120.4500012 119.4004997  60.1179988 121.3810012 119.5294997  60.2959988
 120.2350012 120.0704997  59.4679988 120.5484247 119.5086565  60.0545747
 119.1240012 120.5954997  57.6849988 118.5810012 120.2154997  56.9929988
 119.9570012 120.7894997  57.2559988 119.1624399 120.5698124  57.5324526
 122.4590012 125.1604997  59.6199988 121.7140012 124.6534997  59.2979988
 122.3250012 125.2094997  60.5669988 122.3388776 125.0976940  59.7038647
 126.3570012 117.9744997  57.8199988 125.4180012 118.0864997  57.6679988
 126.6540012 118.8314997  58.1259988 126.2687666 118.1056443  57.8405768
 127.0750012 119.8414997  59.4799988 127.9670012 119.7044997  59.7989988
 127.1320012 120.6324997  58.9439988 127.2046285 119.9296660  59.4511691
 124.5850012 126.6194997  58.6459988 124.2890012 127.4454997  59.0269988
 123.8820012 125.9994997  58.8419988 124.4494914 126.6488199  58.7246443
 131.9600012 120.0514997  59.1749988 131.4060012 119.6554997  58.5029988
 132.0600012 120.9614997  58.8969988 131.8977059 120.1203586  59.0454401
 130.2550012 128.8374997  59.6399988 129.8820012 128.0114997  59.9489988
 130.5330012 128.6544997  58.7429988 130.2415630 128.6997303  59.5609626
 115.7140012 122.8354997  57.3809988 116.3300012 123.4624997  57.7609988
 114.8520012 123.1514997  57.6529988 115.6817698 122.9639430  57.4697183
 127.6480012 126.8134997  57.4599988 128.0010012 126.4334997  58.2649988
 126.6990012 126.7204997  57.5469988 127.5680441 126.7489596  57.5818559
 132.1510012 131.2934997  57.6609988 132.8950012 131.8794997  57.5209988
 131.4570012 131.8614997  57.9949988 132.1590292 131.4505582  57.6869961
 128.5140012 125.4864997  59.6869988 128.2360012 124.7584997  60.2429988
 129.4410012 125.6054997  59.8919988 128.6013124 125.4028802  59.7908845
 121.7390012 127.9254997  55.9069988 121.9780012 127.1774997  55.3599988
 121.4700012 127.5374997  56.7399988 121.7353675 127.7706638  55.9446865
 120.6760012 127.4954997  58.3639988 120.8220012 126.9754997  59.1539988
 120.6730012 128.4024997  58.6699988 120.6955989 127.5468853  58.5136088
 117.1290012 124.7484997  58.8739988 116.4430012 125.1004997  59.4409988
 117.6510012 125.5114997  58.6269988 117.1056852 124.8998578  58.9182118
 123.4130012 129.1934997  59.1129988 122.5970012 129.6904997  59.1649988
 123.9430012 129.6684997  58.4729988 123.3729161 129.3257722  59.0335956
 120.7520012 130.2374997  59.0949988 120.9120012 131.0364997  58.5939988
 120.5540012 130.5434997  59.9799988 120.7471649 130.3884469  59.1459815
 119.4860012 116.9344997  58.7099988 119.4030012 117.8234997  59.0569988
 120.3760012 116.6694997  58.9419988 119.5949469 117.0201430  58.7887626
 117.7450012 127.3624997  57.7709988 118.3370012 128.0614997  58.0469988
 118.2040012 126.9294997  57.0509988 117.8881142 127.3997049  57.7114830
 116.0610012 120.0264997  56.8869988 116.0160012 120.9654997  57.0649988
 115.1730012 119.7904997  56.6169988 115.9348574 120.1231892  56.8748912
 123.7770012 129.7884997  56.0459988 123.1330012 129.1574997  56.3669988
 124.5390012 129.2574997  55.8139988 123.7918077 129.6302920  56.0586011
 128.3810012 129.6054997  56.2799988 128.6640012 128.8114997  56.7319988
 129.1210012 129.8384997  55.7189988 128.5197486 129.5282803  56.2660698
 119.3360012 125.5154997  56.1369988 119.4000012 124.7214997  56.6679988
 119.9890012 125.3964997  55.4469988 119.4330241 125.3907148  56.1164317
 124.6880012 126.5624997  55.8729988 124.4190012 126.7424997  56.7739988
 124.4820012 125.6364997  55.7419988 124.6233825 126.4620152  55.9785214
 120.4850012 123.4874997  58.4429988 120.0250012 123.0034997  59.1289988
 120.7400012 122.8194997  57.8069988 120.4564902 123.3308731  58.4509334
 121.5560012 121.7304997  56.7049988 121.3760012 121.5764997  55.7779988
 122.5060012 121.8384997  56.7499988 121.6597776 121.7240175  56.5841843
 130.9460012 124.0854997  56.1509988 130.6720012 123.6604997  55.3379988
 130.9850012 125.0164997  55.9339988 130.9137699 124.1532484  56.0103610
 121.4530012 132.4214997  57.7069988 122.3860012 132.5794997  57.8499988
 121.1890012 133.0964997  57.0819988 121.5449510 132.5343611  57.6420741
 115.0220012 127.0574997  57.1889988 115.9360012 127.1364997  57.4629988
 115.0290012 126.3704997  56.5229988 115.1481131 126.9753961  57.1364393
 132.0670012 122.9084997  58.3409988 131.5450012 123.2654997  57.6219988
 132.0340012 123.5834997  59.0189988 131.9911634 123.0485413  58.3343145
 130.4160012 120.1484997  56.8919988 130.5120012 120.8154997  56.2109988
 130.2760012 119.3324997  56.4099988 130.4102135 120.1294500  56.7338491
 129.6630012 117.5564997  56.0089988 130.2740012 117.1854997  56.6459988
 128.8270012 117.1354997  56.2049988 129.6335032 117.4487554  56.1227035
 129.2960012 119.1114997  60.9749988 129.5760012 118.2044997  61.0989988
 130.0550012 119.5454997  60.5859988 129.4369277 119.0460942  60.9393682
 131.7760012 116.4414997  57.5509988 132.1880012 115.7204997  57.0759988
 132.4580012 117.1114997  57.6099988 131.9245885 116.4332368  57.4938915
 114.0570012 116.4464997  60.6779988 113.1320012 116.6554997  60.5489988
 114.5110012 116.9304997  59.9889988 113.9917368 116.5405994  60.5671226
 115.3330012 114.4894997  58.6569988 115.7720012 115.1004997  58.0649988
 114.7000012 115.0274997  59.1309988 115.3074514 114.6459257  58.6400930
 117.1940012 116.4054997  57.0989988 117.6860012 115.7754997  56.5719988
 117.8180012 116.7014997  57.7629988 117.3455446 116.3593199  57.1165980
 122.2200012 116.6984997  59.5559988 122.3980012 116.0524997  60.2389988
 122.1670012 117.5324997  60.0239988 122.2371829 116.7227985  59.7125940
 124.0990012 131.6474997  57.9519988 124.9650012 132.0134997  57.7739988
 123.8520012 131.2074997  57.1379988 124.1842392 131.6381756  57.8176289
 117.0520012 131.3574997  56.5799988 116.7850012 131.6444997  57.4529988
 117.8240012 130.8114997  56.7319988 117.1197488 131.3230294  56.7201050
 144.2290012 126.4484997  61.8549988 143.9330012 126.1264997  61.0039988
 143.9040012 127.3484997  61.8959988 144.1446371 126.5260215  61.7441801
 133.9570012 126.2594997  60.1679988 133.6850012 126.4884997  59.2789988
 134.0030012 127.0974997  60.6279988 133.9260094 126.4041213  60.1085697
 143.1530012 123.0914997  60.2639988 142.4410012 123.6264997  59.9119988
 143.8440012 123.1474997  59.6039988 143.1490132 123.1722543  60.1266289
 143.2060012 121.5494997  57.3029988 143.9070012 121.5714997  57.9539988
 143.5090012 120.9214997  56.6469988 143.3427830 121.4676566  57.3033711
 143.1560012 129.2004997  62.3359988 143.6300012 129.4954997  63.1139988
 142.5930012 129.9384997  62.1029988 143.1447653 129.3406932  62.4110136
 137.1940012 123.0014997  60.6879988 136.9020012 123.7694997  60.1969988
 136.5200012 122.3414997  60.5249988 137.0629081 123.0174406  60.5987340
 142.6280012 132.1564997  60.7509988 142.5530012 132.0354997  59.8049988
 142.6610012 133.1064997  60.8699988 142.6221848 132.2682500  60.6374834
 142.4790012 117.3724997  57.2009988 142.2260012 117.3914997  58.1239988
 142.2230012 116.5004997  56.8999988 142.4097790 117.2572437  57.2866263
 139.3620012 117.8174997  56.3019988 138.9310012 117.3724997  57.0319988
 138.6440012 118.1894997  55.7899988 139.2059438 117.8068940  56.3326799
 133.8780012 118.3054997  58.7779988 134.3520012 118.8964997  58.1929988
 133.1610012 118.8364997  59.1249988 133.8459341 118.4580867  58.7448836
 139.3060012 119.4004997  60.1179988 140.2370012 119.5294997  60.2959988
 139.0910012 120.0704997  59.4679988 139.4044247 119.5086565  60.0545747
 137.9800012 120.5954997  57.6849988 137.4370012 120.2154997  56.9929988
 138.8130012 120.7894997  57.2559988 138.0184399 120.5698124  57.5324526
 137.1460012 116.6954997  61.9399988 136.8290012 115.7934997  61.9049988
 137.9280012 116.6974997  61.3869988 137.2082284 116.5721628  61.8604783
 141.3150012 125.1604997  59.6199988 140.5700012 124.6534997  59.2979988
 141.1810012 125.2094997  60.5669988 141.1948776 125.0976940  59.7038647
 143.4410012 126.6194997  58.6459988 143.1450012 127.4454997  59.0269988
 142.7380012 125.9994997  58.8419988 143.3054914 126.6488199  58.7246443
 134.5700012 122.8354997  57.3809988 135.1860012 123.4624997  57.7609988
 133.7080012 123.1514997  57.6529988 134.5377698 122.9639430  57.4697183
 140.2420012 125.6364997  62.3709988 140.0010012 126.5614997  62.4119988
 139.5010012 125.1774997  62.7669988 140.1088409 125.7011421  62.4301377
 140.5950012 127.9254997  55.9069988 140.8340012 127.1774997  55.3599988
 140.3260012 127.5374997  56.7399988 140.5913675 127.7706638  55.9446865
 139.5320012 127.4954997  58.3639988 139.6780012 126.9754997  59.1539988
 139.5290012 128.4024997  58.6699988 139.5515989 127.5468853  58.5136088
 135.9850012 124.7484997  58.8739988 135.2990012 125.1004997  59.4409988
 136.5070012 125.5114997  58.6269988 135.9616852 124.8998578  58.9182118
 144.6010012 117.0624997  60.2499988 144.8210012 117.5344997  59.4469988
 145.1590012 117.4574997  60.9199988 144.7064968 117.1804285  60.2307331
 142.2690012 129.1934997  59.1129988 141.4530012 129.6904997  59.1649988
 142.7990012 129.6684997  58.4729988 142.2289161 129.3257722  59.0335956
 142.6840012 115.8714997  62.0229988 142.3380012 116.4894997  62.6679988
 143.3430012 116.3724997  61.5419988 142.7257826 116.0235802  62.0460971
 138.3420012 116.9344997  58.7099988 138.2590012 117.8234997  59.0569988
 139.2320012 116.6694997  58.9419988 138.4509469 117.0201430  58.7887626
 136.6010012 127.3624997  57.7709988 137.1930012 128.0614997  58.0469988
 137.0600012 126.9294997  57.0509988 136.7441142 127.3997049  57.7114830
 134.9170012 120.0264997  56.8869988 134.8720012 120.9654997  57.0649988
 134.0290012 119.7904997  56.6169988 134.7908574 120.1231892  56.8748912
 142.6330012 129.7884997  56.0459988 141.9890012 129.1574997  56.3669988
 143.3950012 129.2574997  55.8139988 142.6478077 129.6302920  56.0586011
 138.1920012 125.5154997  56.1369988 138.2560012 124.7214997  56.6679988
 138.8450012 125.3964997  55.4469988 138.2890241 125.3907148  56.1164317
 143.5440012 126.5624997  55.8729988 143.2750012 126.7424997  56.7739988
 143.3380012 125.6364997  55.7419988 143.4793825 126.4620152  55.9785214
 139.3410012 123.4874997  58.4429988 138.8810012 123.0034997  59.1289988
 139.5960012 122.8194997  57.8069988 139.3124902 123.3308731  58.4509334
 140.4120012 121.7304997  56.7049988 140.2320012 121.5764997  55.7779988
 141.3620012 121.8384997  56.7499988 140.5157776 121.7240175  56.5841843
 140.3090012 132.4214997  57.7069988 141.2420012 132.5794997  57.8499988
 140.0450012 133.0964997  57.0819988 140.4009510 132.5343611  57.6420741
 133.8780012 127.0574997  57.1889988 134.7920012 127.1364997  57.4629988
 133.8850012 126.3704997  56.5229988 134.0041131 126.9753961  57.1364393
 134.0900012 130.4374997  59.5549988 133.4050012 130.3994997  58.8869988
 134.0940012 131.3504997  59.8429988 133.9968193 130.5557016  59.5025284
 136.0500012 116.4054997  57.0989988 136.5420012 115.7754997  56.5719988
 136.6740012 116.7014997  57.7629988 136.2015446 116.3593199  57.1165980
 141.0760012 116.6984997  59.5559988 141.2540012 116.0524997  60.2389988
 141.0230012 117.5324997  60.0239988 141.0931829 116.7227985  59.7125940
 142.9550012 131.6474997  57.9519988 143.8210012 132.0134997  57.7739988
 142.7080012 131.2074997  57.1379988 143.0402392 131.6381756  57.8176289
 135.9080012 131.3574997  56.5799988 135.6410012 131.6444997  57.4529988
 136.6800012 130.8114997  56.7319988 135.9757488 131.3230294  56.7201050
  11.1610012 141.9474997  60.2639988  10.4490012 142.4824997  59.9119988
  11.8520012 142.0034997  59.6039988  11.1570132 142.0282543  60.1266289
  11.2140012 140.4054997  57.3029988  11.9150012 140.4274997  57.9539988
  11.5170012 139.7774997  56.6469988  11.3507830 140.3236566  57.3033711
  13.4370012 141.3194997  58.9009988  14.0170012 141.4694997  59.6479988
  13.8510012 141.7904997  58.1779988  13.5722831 141.4036841  58.9054134
  17.1360012 133.0694997  58.7139988  16.2360012 133.2084997  59.0089988
  17.3880012 133.9004997  58.3119988  17.0468702 133.2009074  58.7000205
  14.9150012 142.3524997  56.5309988  14.9570012 142.1294997  55.6009988
  15.7640012 142.7514997  56.7209988  15.0355396 142.3759155  56.4293627
  10.4870012 136.2284997  57.2009988  10.2340012 136.2474997  58.1239988
  10.2310012 135.3564997  56.8999988  10.4177790 136.1132437  57.2866263
   7.3700012 136.6734997  56.3019988   6.9390012 136.2284997  57.0319988
   6.6520012 137.0454997  55.7899988   7.2139438 136.6628940  56.3326799
   1.8860012 137.1614997  58.7779988   2.3600012 137.7524997  58.1929988
   1.1690012 137.6924997  59.1249988   1.8539341 137.3140867  58.7448836
   7.3140012 138.2564997  60.1179988   8.2450012 138.3854997  60.2959988
   7.0990012 138.9264997  59.4679988   7.4124247 138.3646565  60.0545747
   5.9880012 139.4514997  57.6849988   5.4450012 139.0714997  56.9929988
   6.8210012 139.6454997  57.2559988   6.0264399 139.4258124  57.5324526
   9.3230012 144.0164997  59.6199988   8.5780012 143.5094997  59.2979988
   9.1890012 144.0654997  60.5669988   9.2028776 143.9536940  59.7038647
  13.2210012 136.8304997  57.8199988  12.2820012 136.9424997  57.6679988
  13.5180012 137.6874997  58.1259988  13.1327666 136.9616443  57.8405768
  13.9390012 138.6974997  59.4799988  14.8310012 138.5604997  59.7989988
  13.9960012 139.4884997  58.9439988  14.0686285 138.7856660  59.4511691
  18.8240012 138.9074997  59.1749988  18.2700012 138.5114997  58.5029988
  18.9240012 139.8174997  58.8969988  18.7617059 138.9763586  59.0454401
   2.5780012 141.6914997  57.3809988   3.1940012 142.3184997  57.7609988
   1.7160012 142.0074997  57.6529988   2.5457698 141.8199430  57.4697183
   3.9930012 143.6044997  58.8739988   3.3070012 143.9564997  59.4409988
   4.5150012 144.3674997  58.6269988   3.9696852 143.7558578  58.9182118
  12.6090012 135.9184997  60.2499988  12.8290012 136.3904997  59.4469988
  13.1670012 136.3134997  60.9199988  12.7144968 136.0364285  60.2307331
   6.3500012 135.7904997  58.7099988   6.2670012 136.6794997  59.0569988
   7.2400012 135.5254997  58.9419988   6.4589469 135.8761430  58.7887626
   2.9250012 138.8824997  56.8869988   2.8800012 139.8214997  57.0649988
   2.0370012 138.6464997  56.6169988   2.7988574 138.9791892  56.8748912
   6.2000012 144.3714997  56.1369988   6.2640012 143.5774997  56.6679988
   6.8530012 144.2524997  55.4469988   6.2970241 144.2467148  56.1164317
   7.3490012 142.3434997  58.4429988   6.8890012 141.8594997  59.1289988
   7.6040012 141.6754997  57.8069988   7.3204902 142.1868731  58.4509334
   8.4200012 140.5864997  56.7049988   8.2400012 140.4324997  55.7779988
   9.3700012 140.6944997  56.7499988   8.5237776 140.5800175  56.5841843
  17.8100012 142.9414997  56.1509988  17.5360012 142.5164997  55.3379988
  17.8490012 143.8724997  55.9339988  17.7777699 143.0092484  56.0103610
  18.2680012 143.8104997  60.1259988  19.1180012 144.2314997  60.2529988
  18.2740012 143.0704997  60.7329988  18.3851372 143.7680803  60.2254344
  18.6630012 141.8634997  61.9499988  17.9360012 141.3844997  62.3469988
  19.2440012 142.0694997  62.6819988  18.6419375 141.8257090  62.1034129
  18.9310012 141.7644997  58.3409988  18.4090012 142.1214997  57.6219988
  18.8980012 142.4394997  59.0189988  18.8551634 141.9045413  58.3343145
  17.2800012 139.0044997  56.8919988  17.3760012 139.6714997  56.2109988
  17.1400012 138.1884997  56.4099988  17.2742135 138.9854500  56.7338491
  16.5270012 136.4124997  56.0089988  17.1380012 136.0414997  56.6459988
  15.6910012 135.9914997  56.2049988  16.4975032 136.3047554  56.1227035
  18.6400012 135.2974997  57.5509988  19.0520012 134.5764997  57.0759988
  19.3220012 135.9674997  57.6099988  18.7885885 135.2892368  57.4938915
   2.1970012 133.3454997  58.6569988   2.6360012 133.9564997  58.0649988
   1.5640012 133.8834997  59.1309988   2.1714514 133.5019257  58.6400930
  14.8500012 133.5304997  60.0079988  14.1480012 134.1454997  59.7989988
  14.4060012 132.6924997  60.1389988  14.6936330 133.5015783  59.9970328
   4.0580012 135.2614997  57.0989988   4.5500012 134.6314997  56.5719988
   4.6820012 135.5574997  57.7629988   4.2095446 135.2153199  57.1165980
   9.0840012 135.5544997  59.5559988   9.2620012 134.9084997  60.2389988
   9.0310012 136.3884997  60.0239988   9.1011829 135.5787985  59.7125940
  30.0170012 141.9474997  60.2639988  29.3050012 142.4824997  59.9119988
  30.7080012 142.0034997  59.6039988  30.0130132 142.0282543  60.1266289
  30.0700012 140.4054997  57.3029988  30.7710012 140.4274997  57.9539988
  30.3730012 139.7774997  56.6469988  30.2067830 140.3236566  57.3033711
  33.4220012 142.1574997  61.2159988  32.6900012 142.3854997  61.7889988
  33.8700012 141.4434997  61.6709988  33.3823095 142.0922571  61.3559119
  32.2930012 141.3194997  58.9009988  32.8730012 141.4694997  59.6479988
  32.7070012 141.7904997  58.1779988  32.4282830 141.4036841  58.9054134
  33.7710012 142.3524997  56.5309988  33.8130012 142.1294997  55.6009988
  34.6200012 142.7514997  56.7209988  33.8915396 142.3759155  56.4293627
  29.3430012 136.2284997  57.2009988  29.0900012 136.2474997  58.1239988
  29.0870012 135.3564997  56.8999988  29.2737790 136.1132437  57.2866263
  26.2260012 136.6734997  56.3019988  25.7950012 136.2284997  57.0319988
  25.5080012 137.0454997  55.7899988  26.0699438 136.6628940  56.3326799
  20.7420012 137.1614997  58.7779988  21.2160012 137.7524997  58.1929988
  20.0250012 137.6924997  59.1249988  20.7099341 137.3140867  58.7448836
  26.1700012 138.2564997  60.1179988  27.1010012 138.3854997  60.2959988
  25.9550012 138.9264997  59.4679988  26.2684247 138.3646565  60.0545747
  24.8440012 139.4514997  57.6849988  24.3010012 139.0714997  56.9929988
  25.6770012 139.6454997  57.2559988  24.8824399 139.4258124  57.5324526
  28.1790012 144.0164997  59.6199988  27.4340012 143.5094997  59.2979988
  28.0450012 144.0654997  60.5669988  28.0588776 143.9536940  59.7038647
  32.0770012 136.8304997  57.8199988  31.1380012 136.9424997  57.6679988
  32.3740012 137.6874997  58.1259988  31.9887666 136.9616443  57.8405768
  32.7950012 138.6974997  59.4799988  33.6870012 138.5604997  59.7989988
  32.8520012 139.4884997  58.9439988  32.9246285 138.7856660  59.4511691
  37.6800012 138.9074997  59.1749988  37.1260012 138.5114997  58.5029988
  37.7800012 139.8174997  58.8969988  37.6177059 138.9763586  59.0454401
  21.4340012 141.6914997  57.3809988  22.0500012 142.3184997  57.7609988
  20.5720012 142.0074997  57.6529988  21.4017698 141.8199430  57.4697183
  22.8490012 143.6044997  58.8739988  22.1630012 143.9564997  59.4409988
  23.3710012 144.3674997  58.6269988  22.8256852 143.7558578  58.9182118
  29.5480012 134.7274997  62.0229988  29.2020012 135.3454997  62.6679988
  30.2070012 135.2284997  61.5419988  29.5897826 134.8795802  62.0460971
  25.2060012 135.7904997  58.7099988  25.1230012 136.6794997  59.0569988
  26.0960012 135.5254997  58.9419988  25.3149469 135.8761430  58.7887626
  21.7810012 138.8824997  56.8869988  21.7360012 139.8214997  57.0649988
  20.8930012 138.6464997  56.6169988  21.6548574 138.9791892  56.8748912
  25.0560012 144.3714997  56.1369988  25.1200012 143.5774997  56.6679988
  25.7090012 144.2524997  55.4469988  25.1530241 144.2467148  56.1164317
  26.2050012 142.3434997  58.4429988  25.7450012 141.8594997  59.1289988
  26.4600012 141.6754997  57.8069988  26.1764902 142.1868731  58.4509334
  27.2760012 140.5864997  56.7049988  27.0960012 140.4324997  55.7779988
  28.2260012 140.6944997  56.7499988  27.3797776 140.5800175  56.5841843
  36.6660012 142.9414997  56.1509988  36.3920012 142.5164997  55.3379988
  36.7050012 143.8724997  55.9339988  36.6337699 143.0092484  56.0103610
  37.7870012 141.7644997  58.3409988  37.2650012 142.1214997  57.6219988
  37.7540012 142.4394997  59.0189988  37.7111634 141.9045413  58.3343145
  36.1360012 139.0044997  56.8919988  36.2320012 139.6714997  56.2109988
  35.9960012 138.1884997  56.4099988  36.1302135 138.9854500  56.7338491
  35.3830012 136.4124997  56.0089988  35.9940012 136.0414997  56.6459988
  34.5470012 135.9914997  56.2049988  35.3535032 136.3047554  56.1227035
  35.0160012 137.9674997  60.9749988  35.2960012 137.0604997  61.0989988
  35.7750012 138.4014997  60.5859988  35.1569277 137.9020942  60.9393682
  35.6290012 135.2304997  61.0229988  35.8120012 134.7814997  61.8489988
  35.0300012 134.6454997  60.5599988  35.5730202 135.0899975  61.0733275
  37.4960012 135.2974997  57.5509988  37.9080012 134.5764997  57.0759988
  38.1780012 135.9674997  57.6099988  37.6445885 135.2892368  57.4938915
  21.0530012 133.3454997  58.6569988  21.4920012 133.9564997  58.0649988
  20.4200012 133.8834997  59.1309988  21.0274514 133.5019257  58.6400930
  22.9140012 135.2614997  57.0989988  23.4060012 134.6314997  56.5719988
  23.5380012 135.5574997  57.7629988  23.0655446 135.2153199  57.1165980
  27.9400012 135.5544997  59.5559988  28.1180012 134.9084997  60.2389988
  27.8870012 136.3884997  60.0239988  27.9571829 135.5787985  59.7125940
  38.9860012 139.6834997  61.7519988  38.5390012 140.5294997  61.7329988
  38.4250012 139.1034997  61.2359988  38.8489900 139.7209916  61.6796801
  48.8730012 141.9474997  60.2639988  48.1610012 142.4824997  59.9119988
  49.5640012 142.0034997  59.6039988  48.8690132 142.0282543  60.1266289
  48.9260012 140.4054997  57.3029988  49.6270012 140.4274997  57.9539988
  49.2290012 139.7774997  56.6469988  49.0627830 140.3236566  57.3033711
  51.1490012 141.3194997  58.9009988  51.7290012 141.4694997  59.6479988
  51.5630012 141.7904997  58.1779988  51.2842830 141.4036841  58.9054134
  54.8480012 133.0694997  58.7139988  53.9480012 133.2084997  59.0089988
  55.1000012 133.9004997  58.3119988  54.7588702 133.2009074  58.7000205
  42.9140012 141.8574997  60.6879988  42.6220012 142.6254997  60.1969988
  42.2400012 141.1974997  60.5249988  42.7829081 141.8734406  60.5987340
  52.6270012 142.3524997  56.5309988  52.6690012 142.1294997  55.6009988
  53.4760012 142.7514997  56.7209988  52.7475396 142.3759155  56.4293627
  48.1990012 136.2284997  57.2009988  47.9460012 136.2474997  58.1239988
  47.9430012 135.3564997  56.8999988  48.1297790 136.1132437  57.2866263
  49.4980012 139.6164997  61.3649988  49.0890012 140.4314997  61.0739988
  50.2190012 139.4764997  60.7509988  49.5394537 139.7092018  61.2421342
  45.0820012 136.6734997  56.3019988  44.6510012 136.2284997  57.0319988
  44.3640012 137.0454997  55.7899988  44.9259438 136.6628940  56.3326799
  39.5980012 137.1614997  58.7779988  40.0720012 137.7524997  58.1929988
  38.8810012 137.6924997  59.1249988  39.5659341 137.3140867  58.7448836
  43.7000012 139.4514997  57.6849988  43.1570012 139.0714997  56.9929988
  44.5330012 139.6454997  57.2559988  43.7384399 139.4258124  57.5324526
  42.8660012 135.5514997  61.9399988  42.5490012 134.6494997  61.9049988
  43.6480012 135.5534997  61.3869988  42.9282284 135.4281628  61.8604783
  47.0350012 144.0164997  59.6199988  46.2900012 143.5094997  59.2979988
  46.9010012 144.0654997  60.5669988  46.9148776 143.9536940  59.7038647
  50.9330012 136.8304997  57.8199988  49.9940012 136.9424997  57.6679988
  51.2300012 137.6874997  58.1259988  50.8447666 136.9616443  57.8405768
  51.6510012 138.6974997  59.4799988  52.5430012 138.5604997  59.7989988
  51.7080012 139.4884997  58.9439988  51.7806285 138.7856660  59.4511691
  56.5360012 138.9074997  59.1749988  55.9820012 138.5114997  58.5029988
  56.6360012 139.8174997  58.8969988  56.4737059 138.9763586  59.0454401
  40.2900012 141.6914997  57.3809988  40.9060012 142.3184997  57.7609988
  39.4280012 142.0074997  57.6529988  40.2577698 141.8199430  57.4697183
  45.9620012 144.4924997  62.3709988  45.7210012 145.4174997  62.4119988
  45.2210012 144.0334997  62.7669988  45.8288409 144.5571421  62.4301377
  53.0900012 144.3424997  59.6869988  52.8120012 143.6144997  60.2429988
  54.0170012 144.4614997  59.8919988  53.1773124 144.2588802  59.7908845
  41.7050012 143.6044997  58.8739988  41.0190012 143.9564997  59.4409988
  42.2270012 144.3674997  58.6269988  41.6816852 143.7558578  58.9182118
  48.4040012 134.7274997  62.0229988  48.0580012 135.3454997  62.6679988
  49.0630012 135.2284997  61.5419988  48.4457826 134.8795802  62.0460971
  44.0620012 135.7904997  58.7099988  43.9790012 136.6794997  59.0569988
  44.9520012 135.5254997  58.9419988  44.1709469 135.8761430  58.7887626
  40.6370012 138.8824997  56.8869988  40.5920012 139.8214997  57.0649988
  39.7490012 138.6464997  56.6169988  40.5108574 138.9791892  56.8748912
  43.9120012 144.3714997  56.1369988  43.9760012 143.5774997  56.6679988
  44.5650012 144.2524997  55.4469988  44.0090241 144.2467148  56.1164317
  45.0610012 142.3434997  58.4429988  44.6010012 141.8594997  59.1289988
  45.3160012 141.6754997  57.8069988  45.0324902 142.1868731  58.4509334
  46.1320012 140.5864997  56.7049988  45.9520012 140.4324997  55.7779988
  47.0820012 140.6944997  56.7499988  46.2357776 140.5800175  56.5841843
  55.5220012 142.9414997  56.1509988  55.2480012 142.5164997  55.3379988
  55.5610012 143.8724997  55.9339988  55.4897699 143.0092484  56.0103610
  56.6430012 141.7644997  58.3409988  56.1210012 142.1214997  57.6219988
  56.6100012 142.4394997  59.0189988  56.5671634 141.9045413  58.3343145
  54.9920012 139.0044997  56.8919988  55.0880012 139.6714997  56.2109988
  54.8520012 138.1884997  56.4099988  54.9862135 138.9854500  56.7338491
  54.2390012 136.4124997  56.0089988  54.8500012 136.0414997  56.6459988
  53.4030012 135.9914997  56.2049988  54.2095032 136.3047554  56.1227035
  56.3520012 135.2974997  57.5509988  56.7640012 134.5764997  57.0759988
  57.0340012 135.9674997  57.6099988  56.5005885 135.2892368  57.4938915
  41.7700012 135.2614997  57.0989988  42.2620012 134.6314997  56.5719988
  42.3940012 135.5574997  57.7629988  41.9215446 135.2153199  57.1165980
  46.7960012 135.5544997  59.5559988  46.9740012 134.9084997  60.2389988
  46.7430012 136.3884997  60.0239988  46.8131829 135.5787985  59.7125940
  67.7290012 141.9474997  60.2639988  67.0170012 142.4824997  59.9119988
  68.4200012 142.0034997  59.6039988  67.7250132 142.0282543  60.1266289
  67.7820012 140.4054997  57.3029988  68.4830012 140.4274997  57.9539988
  68.0850012 139.7774997  56.6469988  67.9187830 140.3236566  57.3033711
  70.0050012 141.3194997  58.9009988  70.5850012 141.4694997  59.6479988
  70.4190012 141.7904997  58.1779988  70.1402830 141.4036841  58.9054134
  73.7040012 133.0694997  58.7139988  72.8040012 133.2084997  59.0089988
  73.9560012 133.9004997  58.3119988  73.6148702 133.2009074  58.7000205
  71.4830012 142.3524997  56.5309988  71.5250012 142.1294997  55.6009988
  72.3320012 142.7514997  56.7209988  71.6035396 142.3759155  56.4293627
  67.0550012 136.2284997  57.2009988  66.8020012 136.2474997  58.1239988
  66.7990012 135.3564997  56.8999988  66.9857790 136.1132437  57.2866263
  63.9380012 136.6734997  56.3019988  63.5070012 136.2284997  57.0319988
  63.2200012 137.0454997  55.7899988  63.7819438 136.6628940  56.3326799
  58.4540012 137.1614997  58.7779988  58.9280012 137.7524997  58.1929988
  57.7370012 137.6924997  59.1249988  58.4219341 137.3140867  58.7448836
  62.5560012 139.4514997  57.6849988  62.0130012 139.0714997  56.9929988
  63.3890012 139.6454997  57.2559988  62.5944399 139.4258124  57.5324526
  65.8910012 144.0164997  59.6199988  65.1460012 143.5094997  59.2979988
  65.7570012 144.0654997  60.5669988  65.7708776 143.9536940  59.7038647
  69.7890012 136.8304997  57.8199988  68.8500012 136.9424997  57.6679988
  70.0860012 137.6874997  58.1259988  69.7007666 136.9616443  57.8405768
  70.5070012 138.6974997  59.4799988  71.3990012 138.5604997  59.7989988
  70.5640012 139.4884997  58.9439988  70.6366285 138.7856660  59.4511691
  59.1460012 141.6914997  57.3809988  59.7620012 142.3184997  57.7609988
  58.2840012 142.0074997  57.6529988  59.1137698 141.8199430  57.4697183
  64.8180012 144.4924997  62.3709988  64.5770012 145.4174997  62.4119988
  64.0770012 144.0334997  62.7669988  64.6848409 144.5571421  62.4301377
  60.5610012 143.6044997  58.8739988  59.8750012 143.9564997  59.4409988
  61.0830012 144.3674997  58.6269988  60.5376852 143.7558578  58.9182118
  62.9180012 135.7904997  58.7099988  62.8350012 136.6794997  59.0569988
  63.8080012 135.5254997  58.9419988  63.0269469 135.8761430  58.7887626
  59.4930012 138.8824997  56.8869988  59.4480012 139.8214997  57.0649988
  58.6050012 138.6464997  56.6169988  59.3668574 138.9791892  56.8748912
  62.7680012 144.3714997  56.1369988  62.8320012 143.5774997  56.6679988
  63.4210012 144.2524997  55.4469988  62.8650241 144.2467148  56.1164317
  63.9170012 142.3434997  58.4429988  63.4570012 141.8594997  59.1289988
  64.1720012 141.6754997  57.8069988  63.8884902 142.1868731  58.4509334
  64.9880012 140.5864997  56.7049988  64.8080012 140.4324997  55.7779988
  65.9380012 140.6944997  56.7499988  65.0917776 140.5800175  56.5841843
  74.3780012 142.9414997  56.1509988  74.1040012 142.5164997  55.3379988
  74.4170012 143.8724997  55.9339988  74.3457699 143.0092484  56.0103610
  74.8360012 143.8104997  60.1259988  75.6860012 144.2314997  60.2529988
  74.8420012 143.0704997  60.7329988  74.9531372 143.7680803  60.2254344
  75.4990012 141.7644997  58.3409988  74.9770012 142.1214997  57.6219988
  75.4660012 142.4394997  59.0189988  75.4231634 141.9045413  58.3343145
  73.8480012 139.0044997  56.8919988  73.9440012 139.6714997  56.2109988
  73.7080012 138.1884997  56.4099988  73.8422135 138.9854500  56.7338491
  73.0950012 136.4124997  56.0089988  73.7060012 136.0414997  56.6459988
  72.2590012 135.9914997  56.2049988  73.0655032 136.3047554  56.1227035
  72.7280012 137.9674997  60.9749988  73.0080012 137.0604997  61.0989988
  73.4870012 138.4014997  60.5859988  72.8689277 137.9020942  60.9393682
  73.3410012 135.2304997  61.0229988  73.5240012 134.7814997  61.8489988
  72.7420012 134.6454997  60.5599988  73.2850202 135.0899975  61.0733275
  75.2080012 135.2974997  57.5509988  75.6200012 134.5764997  57.0759988
  75.8900012 135.9674997  57.6099988  75.3565885 135.2892368  57.4938915
  57.4890012 135.3024997  60.6779988  56.5640012 135.5114997  60.5489988
  57.9430012 135.7864997  59.9889988  57.4237368 135.3965993  60.5671226
  58.7650012 133.3454997  58.6569988  59.2040012 133.9564997  58.0649988
  58.1320012 133.8834997  59.1309988  58.7394514 133.5019257  58.6400930
  71.4180012 133.5304997  60.0079988  70.7160012 134.1454997  59.7989988
  70.9740012 132.6924997  60.1389988  71.2616330 133.5015783  59.9970328
  60.6260012 135.2614997  57.0989988  61.1180012 134.6314997  56.5719988
  61.2500012 135.5574997  57.7629988  60.7775446 135.2153199  57.1165980
  86.5850012 141.9474997  60.2639988  85.8730012 142.4824997  59.9119988
  87.2760012 142.0034997  59.6039988  86.5810132 142.0282543  60.1266289
  86.6380012 140.4054997  57.3029988  87.3390012 140.4274997  57.9539988
  86.9410012 139.7774997  56.6469988  86.7747830 140.3236566  57.3033711
  88.8610012 141.3194997  58.9009988  89.4410012 141.4694997  59.6479988
  89.2750012 141.7904997  58.1779988  88.9962830 141.4036841  58.9054134
  92.5600012 133.0694997  58.7139988  91.6600012 133.2084997  59.0089988
  92.8120012 133.9004997  58.3119988  92.4708702 133.2009074  58.7000205
  80.6260012 141.8574997  60.6879988  80.3340012 142.6254997  60.1969988
  79.9520012 141.1974997  60.5249988  80.4949081 141.8734406  60.5987340
  90.3390012 142.3524997  56.5309988  90.3810012 142.1294997  55.6009988
  91.1880012 142.7514997  56.7209988  90.4595396 142.3759155  56.4293627
  85.9110012 136.2284997  57.2009988  85.6580012 136.2474997  58.1239988
  85.6550012 135.3564997  56.8999988  85.8417790 136.1132437  57.2866263
  82.7940012 136.6734997  56.3019988  82.3630012 136.2284997  57.0319988
  82.0760012 137.0454997  55.7899988  82.6379438 136.6628940  56.3326799
  77.3100012 137.1614997  58.7779988  77.7840012 137.7524997  58.1929988
  76.5930012 137.6924997  59.1249988  77.2779341 137.3140867  58.7448836
  82.7380012 138.2564997  60.1179988  83.6690012 138.3854997  60.2959988
  82.5230012 138.9264997  59.4679988  82.8364247 138.3646565  60.0545747
  81.4120012 139.4514997  57.6849988  80.8690012 139.0714997  56.9929988
  82.2450012 139.6454997  57.2559988  81.4504399 139.4258124  57.5324526
  80.5780012 135.5514997  61.9399988  80.2610012 134.6494997  61.9049988
  81.3600012 135.5534997  61.3869988  80.6402284 135.4281628  61.8604783
  84.7470012 144.0164997  59.6199988  84.0020012 143.5094997  59.2979988
  84.6130012 144.0654997  60.5669988  84.6268776 143.9536940  59.7038647
  88.6450012 136.8304997  57.8199988  87.7060012 136.9424997  57.6679988
  88.9420012 137.6874997  58.1259988  88.5567666 136.9616443  57.8405768
  89.3630012 138.6974997  59.4799988  90.2550012 138.5604997  59.7989988
  89.4200012 139.4884997  58.9439988  89.4926285 138.7856660  59.4511691
  94.2480012 138.9074997  59.1749988  93.6940012 138.5114997  58.5029988
  94.3480012 139.8174997  58.8969988  94.1857059 138.9763586  59.0454401
  78.0020012 141.6914997  57.3809988  78.6180012 142.3184997  57.7609988
  77.1400012 142.0074997  57.6529988  77.9697698 141.8199430  57.4697183
  83.6740012 144.4924997  62.3709988  83.4330012 145.4174997  62.4119988
  82.9330012 144.0334997  62.7669988  83.5408409 144.5571421  62.4301377
  79.4170012 143.6044997  58.8739988  78.7310012 143.9564997  59.4409988
  79.9390012 144.3674997  58.6269988  79.3936852 143.7558578  58.9182118
  81.7740012 135.7904997  58.7099988  81.6910012 136.6794997  59.0569988
  82.6640012 135.5254997  58.9419988  81.8829469 135.8761430  58.7887626
  78.3490012 138.8824997  56.8869988  78.3040012 139.8214997  57.0649988
  77.4610012 138.6464997  56.6169988  78.2228574 138.9791892  56.8748912
  81.6240012 144.3714997  56.1369988  81.6880012 143.5774997  56.6679988
  82.2770012 144.2524997  55.4469988  81.7210241 144.2467148  56.1164317
  82.7730012 142.3434997  58.4429988  82.3130012 141.8594997  59.1289988
  83.0280012 141.6754997  57.8069988  82.7444902 142.1868731  58.4509334
  83.8440012 140.5864997  56.7049988  83.6640012 140.4324997  55.7779988
  84.7940012 140.6944997  56.7499988  83.9477776 140.5800175  56.5841843
  93.2340012 142.9414997  56.1509988  92.9600012 142.5164997  55.3379988
  93.2730012 143.8724997  55.9339988  93.2017699 143.0092484  56.0103610
  94.3550012 141.7644997  58.3409988  93.8330012 142.1214997  57.6219988
  94.3220012 142.4394997  59.0189988  94.2791634 141.9045413  58.3343145
  92.7040012 139.0044997  56.8919988  92.8000012 139.6714997  56.2109988
  92.5640012 138.1884997  56.4099988  92.6982135 138.9854500  56.7338491
  91.9510012 136.4124997  56.0089988  92.5620012 136.0414997  56.6459988
  91.1150012 135.9914997  56.2049988  91.9215032 136.3047554  56.1227035
  94.0640012 135.2974997  57.5509988  94.4760012 134.5764997  57.0759988
  94.7460012 135.9674997  57.6099988  94.2125885 135.2892368  57.4938915
  90.2740012 133.5304997  60.0079988  89.5720012 134.1454997  59.7989988
  89.8300012 132.6924997  60.1389988  90.1176330 133.5015783  59.9970328
  79.4820012 135.2614997  57.0989988  79.9740012 134.6314997  56.5719988
  80.1060012 135.5574997  57.7629988  79.6335446 135.2153199  57.1165980
  95.5540012 139.6834997  61.7519988  95.1070012 140.5294997  61.7329988
  94.9930012 139.1034997  61.2359988  95.4169900 139.7209916  61.6796801
 105.4940012 140.4054997  57.3029988 106.1950012 140.4274997  57.9539988
 105.7970012 139.7774997  56.6469988 105.6307830 140.3236566  57.3033711
 107.7170012 141.3194997  58.9009988 108.2970012 141.4694997  59.6479988
 108.1310012 141.7904997  58.1779988 107.8522830 141.4036841  58.9054134
 111.4160012 133.0694997  58.7139988 110.5160012 133.2084997  59.0089988
 111.6680012 133.9004997  58.3119988 111.3268702 133.2009074  58.7000205
 109.1950012 142.3524997  56.5309988 109.2370012 142.1294997  55.6009988
 110.0440012 142.7514997  56.7209988 109.3155396 142.3759155  56.4293627
 104.7670012 136.2284997  57.2009988 104.5140012 136.2474997  58.1239988
 104.5110012 135.3564997  56.8999988 104.6977790 136.1132437  57.2866263
 106.0660012 139.6164997  61.3649988 105.6570012 140.4314997  61.0739988
 106.7870012 139.4764997  60.7509988 106.1074537 139.7092018  61.2421342
 101.6500012 136.6734997  56.3019988 101.2190012 136.2284997  57.0319988
 100.9320012 137.0454997  55.7899988 101.4939438 136.6628940  56.3326799
  96.1660012 137.1614997  58.7779988  96.6400012 137.7524997  58.1929988
  95.4490012 137.6924997  59.1249988  96.1339341 137.3140867  58.7448836
 101.5940012 138.2564997  60.1179988 102.5250012 138.3854997  60.2959988
 101.3790012 138.9264997  59.4679988 101.6924247 138.3646565  60.0545747
 100.2680012 139.4514997  57.6849988  99.7250012 139.0714997  56.9929988
 101.1010012 139.6454997  57.2559988 100.3064399 139.4258124  57.5324526
 103.6030012 144.0164997  59.6199988 102.8580012 143.5094997  59.2979988
 103.4690012 144.0654997  60.5669988 103.4828776 143.9536940  59.7038647
 108.2190012 138.6974997  59.4799988 109.1110012 138.5604997  59.7989988
 108.2760012 139.4884997  58.9439988 108.3486285 138.7856660  59.4511691
  96.8580012 141.6914997  57.3809988  97.4740012 142.3184997  57.7609988
  95.9960012 142.0074997  57.6529988  96.8257698 141.8199430  57.4697183
 109.6580012 144.3424997  59.6869988 109.3800012 143.6144997  60.2429988
 110.5850012 144.4614997  59.8919988 109.7453124 144.2588802  59.7908845
  98.2730012 143.6044997  58.8739988  97.5870012 143.9564997  59.4409988
  98.7950012 144.3674997  58.6269988  98.2496852 143.7558578  58.9182118
 104.0890012 137.6464997  61.0849988 104.9010012 138.1514997  61.1309988
 103.8440012 137.5014997  61.9989988 104.1670520 137.6960375  61.2148517
 100.6300012 135.7904997  58.7099988 100.5470012 136.6794997  59.0569988
 101.5200012 135.5254997  58.9419988 100.7389469 135.8761430  58.7887626
  97.2050012 138.8824997  56.8869988  97.1600012 139.8214997  57.0649988
  96.3170012 138.6464997  56.6169988  97.0788574 138.9791892  56.8748912
 100.4800012 144.3714997  56.1369988 100.5440012 143.5774997  56.6679988
 101.1330012 144.2524997  55.4469988 100.5770241 144.2467148  56.1164317
 101.6290012 142.3434997  58.4429988 101.1690012 141.8594997  59.1289988
 101.8840012 141.6754997  57.8069988 101.6004902 142.1868731  58.4509334
 102.7000012 140.5864997  56.7049988 102.5200012 140.4324997  55.7779988
 103.6500012 140.6944997  56.7499988 102.8037776 140.5800175  56.5841843
 112.0900012 142.9414997  56.1509988 111.8160012 142.5164997  55.3379988
 112.1290012 143.8724997  55.9339988 112.0577699 143.0092484  56.0103610
 112.5480012 143.8104997  60.1259988 113.3980012 144.2314997  60.2529988
 112.5540012 143.0704997  60.7329988 112.6651372 143.7680803  60.2254344
 113.2110012 141.7644997  58.3409988 112.6890012 142.1214997  57.6219988
 113.1780012 142.4394997  59.0189988 113.1351634 141.9045413  58.3343145
 111.5600012 139.0044997  56.8919988 111.6560012 139.6714997  56.2109988
 111.4200012 138.1884997  56.4099988 111.5542135 138.9854500  56.7338491
 110.8070012 136.4124997  56.0089988 111.4180012 136.0414997  56.6459988
 109.9710012 135.9914997  56.2049988 110.7775032 136.3047554  56.1227035
 112.9200012 135.2974997  57.5509988 113.3320012 134.5764997  57.0759988
 113.6020012 135.9674997  57.6099988 113.0685885 135.2892368  57.4938915
  95.2010012 135.3024997  60.6779988  94.2760012 135.5114997  60.5489988
  95.6550012 135.7864997  59.9889988  95.1357368 135.3965993  60.5671226
  96.4770012 133.3454997  58.6569988  96.9160012 133.9564997  58.0649988
  95.8440012 133.8834997  59.1309988  96.4514514 133.5019257  58.6400930
  98.3380012 135.2614997  57.0989988  98.8300012 134.6314997  56.5719988
  98.9620012 135.5574997  57.7629988  98.4895446 135.2153199  57.1165980
 103.3640012 135.5544997  59.5559988 103.5420012 134.9084997  60.2389988
 103.3110012 136.3884997  60.0239988 103.3811829 135.5787985  59.7125940
 124.2970012 141.9474997  60.2639988 123.5850012 142.4824997  59.9119988
 124.9880012 142.0034997  59.6039988 124.2930132 142.0282543  60.1266289
 124.3500012 140.4054997  57.3029988 125.0510012 140.4274997  57.9539988
 124.6530012 139.7774997  56.6469988 124.4867830 140.3236566  57.3033711
 126.5730012 141.3194997  58.9009988 127.1530012 141.4694997  59.6479988
 126.9870012 141.7904997  58.1779988 126.7082830 141.4036841  58.9054134
 130.2720012 133.0694997  58.7139988 129.3720012 133.2084997  59.0089988
 130.5240012 133.9004997  58.3119988 130.1828702 133.2009074  58.7000205
 118.3380012 141.8574997  60.6879988 118.0460012 142.6254997  60.1969988
 117.6640012 141.1974997  60.5249988 118.2069081 141.8734406  60.5987340
 128.0510012 142.3524997  56.5309988 128.0930012 142.1294997  55.6009988
 128.9000012 142.7514997  56.7209988 128.1715396 142.3759155  56.4293627
 123.6230012 136.2284997  57.2009988 123.3700012 136.2474997  58.1239988
 123.3670012 135.3564997  56.8999988 123.5537790 136.1132437  57.2866263
 124.9220012 139.6164997  61.3649988 124.5130012 140.4314997  61.0739988
 125.6430012 139.4764997  60.7509988 124.9634537 139.7092018  61.2421342
 120.5060012 136.6734997  56.3019988 120.0750012 136.2284997  57.0319988
 119.7880012 137.0454997  55.7899988 120.3499438 136.6628940  56.3326799
 115.0220012 137.1614997  58.7779988 115.4960012 137.7524997  58.1929988
 114.3050012 137.6924997  59.1249988 114.9899341 137.3140867  58.7448836
 119.1240012 139.4514997  57.6849988 118.5810012 139.0714997  56.9929988
 119.9570012 139.6454997  57.2559988 119.1624399 139.4258124  57.5324526
 118.2900012 135.5514997  61.9399988 117.9730012 134.6494997  61.9049988
 119.0720012 135.5534997  61.3869988 118.3522284 135.4281628  61.8604783
 122.4590012 144.0164997  59.6199988 121.7140012 143.5094997  59.2979988
 122.3250012 144.0654997  60.5669988 122.3388776 143.9536940  59.7038647
 126.3570012 136.8304997  57.8199988 125.4180012 136.9424997  57.6679988
 126.6540012 137.6874997  58.1259988 126.2687666 136.9616443  57.8405768
 127.0750012 138.6974997  59.4799988 127.9670012 138.5604997  59.7989988
 127.1320012 139.4884997  58.9439988 127.2046285 138.7856660  59.4511691
 131.9600012 138.9074997  59.1749988 131.4060012 138.5114997  58.5029988
 132.0600012 139.8174997  58.8969988 131.8977059 138.9763586  59.0454401
 115.7140012 141.6914997  57.3809988 116.3300012 142.3184997  57.7609988
 114.8520012 142.0074997  57.6529988 115.6817698 141.8199430  57.4697183
 121.3860012 144.4924997  62.3709988 121.1450012 145.4174997  62.4119988
 120.6450012 144.0334997  62.7669988 121.2528409 144.5571421  62.4301377
 117.1290012 143.6044997  58.8739988 116.4430012 143.9564997  59.4409988
 117.6510012 144.3674997  58.6269988 117.1056852 143.7558578  58.9182118
 116.0610012 138.8824997  56.8869988 116.0160012 139.8214997  57.0649988
 115.1730012 138.6464997  56.6169988 115.9348574 138.9791892  56.8748912
 119.3360012 144.3714997  56.1369988 119.4000012 143.5774997  56.6679988
 119.9890012 144.2524997  55.4469988 119.4330241 144.2467148  56.1164317
 120.4850012 142.3434997  58.4429988 120.0250012 141.8594997  59.1289988
 120.7400012 141.6754997  57.8069988 120.4564902 142.1868731  58.4509334
 121.5560012 140.5864997  56.7049988 121.3760012 140.4324997  55.7779988
 122.5060012 140.6944997  56.7499988 121.6597776 140.5800175  56.5841843
 130.9460012 142.9414997  56.1509988 130.6720012 142.5164997  55.3379988
 130.9850012 143.8724997  55.9339988 130.9137699 143.0092484  56.0103610
 131.4040012 143.8104997  60.1259988 132.2540012 144.2314997  60.2529988
 131.4100012 143.0704997  60.7329988 131.5211372 143.7680803  60.2254344
 132.0670012 141.7644997  58.3409988 131.5450012 142.1214997  57.6219988
 132.0340012 142.4394997  59.0189988 131.9911634 141.9045413  58.3343145
 130.4160012 139.0044997  56.8919988 130.5120012 139.6714997  56.2109988
 130.2760012 138.1884997  56.4099988 130.4102135 138.9854500  56.7338491
 129.6630012 136.4124997  56.0089988 130.2740012 136.0414997  56.6459988
 128.8270012 135.9914997  56.2049988 129.6335032 136.3047554  56.1227035
 129.2960012 137.9674997  60.9749988 129.5760012 137.0604997  61.0989988
 130.0550012 138.4014997  60.5859988 129.4369277 137.9020942  60.9393682
 131.7760012 135.2974997  57.5509988 132.1880012 134.5764997  57.0759988
 132.4580012 135.9674997  57.6099988 131.9245885 135.2892368  57.4938915
 114.0570012 135.3024997  60.6779988 113.1320012 135.5114997  60.5489988
 114.5110012 135.7864997  59.9889988 113.9917368 135.3965993  60.5671226
 115.3330012 133.3454997  58.6569988 115.7720012 133.9564997  58.0649988
 114.7000012 133.8834997  59.1309988 115.3074514 133.5019257  58.6400930
 127.9860012 133.5304997  60.0079988 127.2840012 134.1454997  59.7989988
 127.5420012 132.6924997  60.1389988 127.8296330 133.5015783  59.9970328
 117.1940012 135.2614997  57.0989988 117.6860012 134.6314997  56.5719988
 117.8180012 135.5574997  57.7629988 117.3455446 135.2153199  57.1165980
 143.1530012 141.9474997  60.2639988 142.4410012 142.4824997  59.9119988
 143.8440012 142.0034997  59.6039988 143.1490132 142.0282543  60.1266289
 143.2060012 140.4054997  57.3029988 143.9070012 140.4274997  57.9539988
 143.5090012 139.7774997  56.6469988 143.3427830 140.3236566  57.3033711
 137.1940012 141.8574997  60.6879988 136.9020012 142.6254997  60.1969988
 136.5200012 141.1974997  60.5249988 137.0629081 141.8734406  60.5987340
 142.4790012 136.2284997  57.2009988 142.2260012 136.2474997  58.1239988
 142.2230012 135.3564997  56.8999988 142.4097790 136.1132437  57.2866263
 143.7780012 139.6164997  61.3649988 143.3690012 140.4314997  61.0739988
 144.4990012 139.4764997  60.7509988 143.8194537 139.7092018  61.2421342
 139.3620012 136.6734997  56.3019988 138.9310012 136.2284997  57.0319988
 138.6440012 137.0454997  55.7899988 139.2059438 136.6628940  56.3326799
 133.8780012 137.1614997  58.7779988 134.3520012 137.7524997  58.1929988
 133.1610012 137.6924997  59.1249988 133.8459341 137.3140867  58.7448836
 139.3060012 138.2564997  60.1179988 140.2370012 138.3854997  60.2959988
 139.0910012 138.9264997  59.4679988 139.4044247 138.3646565  60.0545747
 137.9800012 139.4514997  57.6849988 137.4370012 139.0714997  56.9929988
 138.8130012 139.6454997  57.2559988 138.0184399 139.4258124  57.5324526
 141.3150012 144.0164997  59.6199988 140.5700012 143.5094997  59.2979988
 141.1810012 144.0654997  60.5669988 141.1948776 143.9536940  59.7038647
 134.5700012 141.6914997  57.3809988 135.1860012 142.3184997  57.7609988
 133.7080012 142.0074997  57.6529988 134.5377698 141.8199430  57.4697183
 140.2420012 144.4924997  62.3709988 140.0010012 145.4174997  62.4119988
 139.5010012 144.0334997  62.7669988 140.1088409 144.5571421  62.4301377
 135.9850012 143.6044997  58.8739988 135.2990012 143.9564997  59.4409988
 136.5070012 144.3674997  58.6269988 135.9616852 143.7558578  58.9182118
 144.6010012 135.9184997  60.2499988 144.8210012 136.3904997  59.4469988
 145.1590012 136.3134997  60.9199988 144.7064968 136.0364285  60.2307331
 142.6840012 134.7274997  62.0229988 142.3380012 135.3454997  62.6679988
 143.3430012 135.2284997  61.5419988 142.7257826 134.8795802  62.0460971
 138.3420012 135.7904997  58.7099988 138.2590012 136.6794997  59.0569988
 139.2320012 135.5254997  58.9419988 138.4509469 135.8761430  58.7887626
 134.9170012 138.8824997  56.8869988 134.8720012 139.8214997  57.0649988
 134.0290012 138.6464997  56.6169988 134.7908574 138.9791892  56.8748912
 138.1920012 144.3714997  56.1369988 138.2560012 143.5774997  56.6679988
 138.8450012 144.2524997  55.4469988 138.2890241 144.2467148  56.1164317
 139.3410012 142.3434997  58.4429988 138.8810012 141.8594997  59.1289988
 139.5960012 141.6754997  57.8069988 139.3124902 142.1868731  58.4509334
 140.4120012 140.5864997  56.7049988 140.2320012 140.4324997  55.7779988
 141.3620012 140.6944997  56.7499988 140.5157776 140.5800175  56.5841843
 132.9130012 135.3024997  60.6779988 131.9880012 135.5114997  60.5489988
 133.3670012 135.7864997  59.9889988 132.8477368 135.3965993  60.5671226
 134.1890012 133.3454997  58.6569988 134.6280012 133.9564997  58.0649988
 133.5560012 133.8834997  59.1309988 134.1634514 133.5019257  58.6400930
 136.0500012 135.2614997  57.0989988 136.5420012 134.6314997  56.5719988
 136.6740012 135.5574997  57.7629988 136.2015446 135.2153199  57.1165980
 141.0760012 135.5544997  59.5559988 141.2540012 134.9084997  60.2389988
 141.0230012 136.3884997  60.0239988 141.0931829 135.5787985  59.7125940
 145.4680023 145.7789993 164.9419975  90.0000000  90.0000000  90.0000000
